Protein in water t=   0.00000 step= 0
325728
    1DG5    H5T    1   3.410   5.377   3.040
    1DG5    O5'    2   3.396   5.284   3.058
    1DG5    C5'    3   3.480   5.235   3.157
    1DG5   H5'1    4   3.577   5.285   3.151
    1DG5   H5'2    5   3.488   5.127   3.147
    1DG5    C4'    6   3.418   5.281   3.292
    1DG5    H4'    7   3.393   5.387   3.289
    1DG5    O4'    8   3.304   5.203   3.325
    1DG5    C1'    9   3.311   5.196   3.469
    1DG5    H1'   10   3.293   5.300   3.497
    1DG5     N9   11   3.216   5.095   3.526
    1DG5     C8   12   3.227   4.967   3.566
    1DG5     H8   13   3.303   4.892   3.553
    1DG5     N7   14   3.122   4.921   3.633
    1DG5     C5   15   3.042   5.034   3.632
    1DG5     C6   16   2.911   5.044   3.687
    1DG5     O6   17   2.848   4.953   3.745
    1DG5     N1   18   2.847   5.165   3.658
    1DG5     H1   19   2.759   5.187   3.702
    1DG5     C2   20   2.912   5.265   3.587
    1DG5     N2   21   2.844   5.367   3.554
    1DG5    H21   22   2.752   5.387   3.590
    1DG5    H22   23   2.879   5.441   3.495
    1DG5     N3   24   3.032   5.264   3.532
    1DG5     C4   25   3.092   5.140   3.556
    1DG5    C3'   26   3.516   5.264   3.405
    1DG5    H3'   27   3.609   5.224   3.365
    1DG5    C2'   28   3.455   5.166   3.502
    1DG5   H2'1   29   3.477   5.063   3.475
    1DG5   H2'2   30   3.487   5.182   3.605
    1DG5    O3'   31   3.539   5.380   3.480
    2DC       P   32   3.634   5.493   3.430
    2DC     O1P   33   3.637   5.508   3.281
    2DC     O2P   34   3.761   5.474   3.499
    2DC     O5'   35   3.564   5.629   3.487
    2DC     C5'   36   3.456   5.684   3.436
    2DC    H5'1   37   3.415   5.631   3.349
    2DC    H5'2   38   3.468   5.787   3.403
    2DC     C4'   39   3.336   5.681   3.523
    2DC     H4'   40   3.259   5.733   3.466
    2DC     O4'   41   3.287   5.543   3.557
    2DC     C1'   42   3.236   5.561   3.688
    2DC     H1'   43   3.142   5.615   3.678
    2DC      N1   44   3.198   5.432   3.745
    2DC      C6   45   3.301   5.352   3.775
    2DC      H6   46   3.392   5.355   3.717
    2DC      C5   47   3.280   5.250   3.860
    2DC      H5   48   3.356   5.174   3.872
    2DC      C4   49   3.153   5.246   3.923
    2DC      N4   50   3.119   5.138   3.993
    2DC     H41   51   3.025   5.123   4.028
    2DC     H42   52   3.189   5.067   4.009
    2DC      N3   53   3.054   5.324   3.893
    2DC      C2   54   3.074   5.424   3.809
    2DC      O2   55   2.987   5.506   3.791
    2DC     C3'   56   3.374   5.749   3.657
    2DC     H3'   57   3.479   5.776   3.665
    2DC     C2'   58   3.332   5.649   3.765
    2DC    H2'1   59   3.416   5.582   3.782
    2DC    H2'2   60   3.294   5.693   3.857
    2DC     O3'   61   3.301   5.870   3.644
    3DA       P   62   3.294   5.980   3.758
    3DA     O1P   63   3.278   6.109   3.680
    3DA     O2P   64   3.415   5.963   3.842
    3DA     O5'   65   3.170   5.952   3.855
    3DA     C5'   66   3.038   5.940   3.817
    3DA    H5'1   67   3.023   5.839   3.778
    3DA    H5'2   68   3.024   6.016   3.740
    3DA     C4'   69   2.931   5.977   3.928
    3DA     H4'   70   2.852   6.017   3.865
    3DA     O4'   71   2.881   5.864   4.003
    3DA     C1'   72   2.938   5.862   4.133
    3DA     H1'   73   2.858   5.871   4.207
    3DA      N9   74   3.001   5.733   4.148
    3DA      C8   75   3.124   5.691   4.112
    3DA      H8   76   3.195   5.748   4.054
    3DA      N7   77   3.144   5.561   4.135
    3DA      C5   78   3.026   5.514   4.190
    3DA      C6   79   2.984   5.393   4.246
    3DA      N6   80   3.052   5.279   4.256
    3DA     H61   81   3.009   5.206   4.311
    3DA     H62   82   3.140   5.267   4.209
    3DA      N1   83   2.869   5.384   4.307
    3DA      C2   84   2.786   5.488   4.293
    3DA      H2   85   2.686   5.480   4.333
    3DA      N3   86   2.810   5.601   4.236
    3DA      C4   87   2.936   5.615   4.190
    3DA     C3'   88   2.980   6.082   4.022
    3DA     H3'   89   3.068   6.137   3.990
    3DA     C2'   90   3.017   5.995   4.145
    3DA    H2'1   91   3.125   5.982   4.144
    3DA    H2'2   92   3.002   6.040   4.244
    3DA     O3'   93   2.870   6.171   4.033
    4DT       P   94   2.849   6.273   4.159
    4DT     O1P   95   2.762   6.384   4.119
    4DT     O2P   96   2.980   6.312   4.218
    4DT     O5'   97   2.769   6.185   4.274
    4DT     C5'   98   2.644   6.122   4.245
    4DT    H5'1   99   2.651   6.050   4.163
    4DT    H5'2  100   2.576   6.200   4.210
    4DT     C4'  101   2.576   6.055   4.367
    4DT     H4'  102   2.476   6.040   4.327
    4DT     O4'  103   2.655   5.936   4.382
    4DT     C1'  104   2.698   5.923   4.513
    4DT     H1'  105   2.619   5.868   4.563
    4DT      N1  106   2.820   5.836   4.526
    4DT      C6  107   2.944   5.891   4.492
    4DT      H6  108   2.946   5.993   4.456
    4DT      C5  109   3.054   5.807   4.491
    4DT      C7  110   3.188   5.865   4.439
    4DT     H71  111   3.266   5.812   4.493
    4DT     H72  112   3.195   5.862   4.330
    4DT     H73  113   3.189   5.967   4.478
    4DT      C4  114   3.060   5.669   4.543
    4DT      O4  115   3.151   5.584   4.540
    4DT      N3  116   2.931   5.624   4.571
    4DT      H3  117   2.917   5.532   4.609
    4DT      C2  118   2.815   5.705   4.575
    4DT      O2  119   2.711   5.645   4.626
    4DT     C3'  120   2.587   6.132   4.493
    4DT     H3'  121   2.613   6.236   4.475
    4DT     C2'  122   2.701   6.067   4.565
    4DT    H2'1  123   2.790   6.121   4.533
    4DT    H2'2  124   2.702   6.074   4.674
    4DT     O3'  125   2.464   6.135   4.565
    5DG       P  126   2.448   6.224   4.698
    5DG     O1P  127   2.300   6.246   4.717
    5DG     O2P  128   2.534   6.346   4.687
    5DG     O5'  129   2.498   6.139   4.814
    5DG     C5'  130   2.437   6.013   4.844
    5DG    H5'1  131   2.345   6.035   4.899
    5DG    H5'2  132   2.396   5.964   4.755
    5DG     C4'  133   2.517   5.904   4.920
    5DG     H4'  134   2.446   5.821   4.922
    5DG     O4'  135   2.639   5.855   4.854
    5DG     C1'  136   2.728   5.801   4.953
    5DG     H1'  137   2.693   5.699   4.966
    5DG      N9  138   2.869   5.803   4.899
    5DG      C8  139   2.928   5.897   4.817
    5DG      H8  140   2.886   5.994   4.798
    5DG      N7  141   3.050   5.863   4.788
    5DG      C5  142   3.072   5.738   4.852
    5DG      C6  143   3.187   5.654   4.856
    5DG      O6  144   3.303   5.666   4.806
    5DG      N1  145   3.164   5.540   4.927
    5DG      H1  146   3.232   5.467   4.941
    5DG      C2  147   3.052   5.514   5.008
    5DG      N2  148   3.064   5.417   5.085
    5DG     H21  149   3.140   5.352   5.087
    5DG     H22  150   3.000   5.398   5.161
    5DG      N3  151   2.952   5.600   5.012
    5DG      C4  152   2.965   5.709   4.929
    5DG     C3'  153   2.572   5.950   5.056
    5DG     H3'  154   2.594   6.056   5.043
    5DG     C2'  155   2.698   5.874   5.084
    5DG    H2'1  156   2.776   5.948   5.106
    5DG    H2'2  157   2.700   5.806   5.169
    5DG     O3'  158   2.476   5.942   5.165
    6DT       P  159   2.520   5.997   5.308
    6DT     O1P  160   2.396   6.034   5.386
    6DT     O2P  161   2.619   6.109   5.292
    6DT     O5'  162   2.586   5.875   5.385
    6DT     C5'  163   2.546   5.744   5.385
    6DT    H5'1  164   2.537   5.702   5.285
    6DT    H5'2  165   2.451   5.740   5.438
    6DT     C4'  166   2.656   5.656   5.455
    6DT     H4'  167   2.615   5.557   5.477
    6DT     O4'  168   2.770   5.635   5.368
    6DT     C1'  169   2.889   5.668   5.437
    6DT     H1'  170   2.928   5.570   5.465
    6DT      N1  171   2.994   5.741   5.357
    6DT      C6  172   2.970   5.870   5.317
    6DT      H6  173   2.877   5.916   5.347
    6DT      C5  174   3.049   5.930   5.232
    6DT      C7  175   3.016   6.075   5.185
    6DT     H71  176   2.927   6.115   5.232
    6DT     H72  177   3.100   6.137   5.215
    6DT     H73  178   3.013   6.092   5.078
    6DT      C4  179   3.170   5.863   5.182
    6DT      O4  180   3.247   5.911   5.103
    6DT      N3  181   3.188   5.736   5.240
    6DT      H3  182   3.279   5.694   5.227
    6DT      C2  183   3.106   5.675   5.328
    6DT      O2  184   3.136   5.561   5.368
    6DT     C3'  185   2.692   5.717   5.585
    6DT     H3'  186   2.639   5.810   5.607
    6DT     C2'  187   2.842   5.744   5.562
    6DT    H2'1  188   2.858   5.852   5.559
    6DT    H2'2  189   2.905   5.709   5.643
    6DT     O3'  190   2.660   5.622   5.697
    7DG       P  191   2.704   5.660   5.852
    7DG     O1P  192   2.620   5.571   5.933
    7DG     O2P  193   2.688   5.806   5.879
    7DG     O5'  194   2.854   5.624   5.870
    7DG     C5'  195   2.909   5.491   5.843
    7DG    H5'1  196   2.861   5.444   5.757
    7DG    H5'2  197   2.880   5.425   5.925
    7DG     C4'  198   3.056   5.494   5.816
    7DG     H4'  199   3.095   5.395   5.790
    7DG     O4'  200   3.099   5.568   5.702
    7DG     C1'  201   3.221   5.631   5.742
    7DG     H1'  202   3.301   5.557   5.738
    7DG      N9  203   3.261   5.748   5.654
    7DG      C8  204   3.191   5.854   5.607
    7DG      H8  205   3.089   5.874   5.638
    7DG      N7  206   3.260   5.937   5.532
    7DG      C5  207   3.380   5.872   5.514
    7DG      C6  208   3.491   5.897   5.431
    7DG      O6  209   3.515   5.995   5.358
    7DG      N1  210   3.592   5.803   5.448
    7DG      H1  211   3.665   5.809   5.379
    7DG      C2  212   3.582   5.686   5.518
    7DG      N2  213   3.671   5.598   5.500
    7DG     H21  214   3.746   5.628   5.440
    7DG     H22  215   3.665   5.502   5.532
    7DG      N3  216   3.480   5.659   5.596
    7DG      C4  217   3.380   5.755   5.586
    7DG     C3'  218   3.134   5.536   5.941
    7DG     H3'  219   3.076   5.557   6.031
    7DG     C2'  220   3.199   5.668   5.885
    7DG    H2'1  221   3.135   5.755   5.891
    7DG    H2'2  222   3.295   5.682   5.935
    7DG     O3'  223   3.235   5.442   5.964
    8DC       P  224   3.284   5.388   6.107
    8DC     O1P  225   3.213   5.255   6.132
    8DC     O2P  226   3.274   5.497   6.208
    8DC     O5'  227   3.438   5.356   6.091
    8DC     C5'  228   3.485   5.253   6.009
    8DC    H5'1  229   3.420   5.252   5.922
    8DC    H5'2  230   3.488   5.155   6.057
    8DC     C4'  231   3.631   5.280   5.961
    8DC     H4'  232   3.669   5.190   5.914
    8DC     O4'  233   3.646   5.388   5.864
    8DC     C1'  234   3.742   5.479   5.913
    8DC     H1'  235   3.844   5.452   5.884
    8DC      N1  236   3.702   5.616   5.861
    8DC      C6  237   3.582   5.674   5.890
    8DC      H6  238   3.505   5.612   5.932
    8DC      C5  239   3.553   5.806   5.860
    8DC      H5  240   3.452   5.844   5.868
    8DC      C4  241   3.663   5.874   5.794
    8DC      N4  242   3.642   5.997   5.766
    8DC     H41  243   3.720   6.048   5.727
    8DC     H42  244   3.553   6.043   5.775
    8DC      N3  245   3.779   5.820   5.759
    8DC      C2  246   3.799   5.688   5.789
    8DC      O2  247   3.900   5.632   5.749
    8DC     C3'  248   3.734   5.319   6.069
    8DC     H3'  249   3.694   5.287   6.165
    8DC     C2'  250   3.751   5.466   6.062
    8DC    H2'1  251   3.659   5.507   6.104
    8DC    H2'2  252   3.843   5.506   6.107
    8DC     O3'  253   3.846   5.240   6.044
    9DG       P  254   3.978   5.235   6.149
    9DG     O1P  255   4.022   5.096   6.152
    9DG     O2P  256   3.943   5.305   6.278
    9DG     O5'  257   4.087   5.323   6.069
    9DG     C5'  258   4.158   5.277   5.960
    9DG    H5'1  259   4.097   5.239   5.878
    9DG    H5'2  260   4.217   5.192   5.992
    9DG     C4'  261   4.244   5.393   5.908
    9DG     H4'  262   4.305   5.341   5.834
    9DG     O4'  263   4.175   5.500   5.847
    9DG     C1'  264   4.255   5.621   5.866
    9DG     H1'  265   4.296   5.665   5.776
    9DG      N9  266   4.172   5.715   5.932
    9DG      C8  267   4.058   5.694   6.003
    9DG      H8  268   4.036   5.600   6.052
    9DG      N7  269   3.973   5.793   6.009
    9DG      C5  270   4.038   5.891   5.933
    9DG      C6  271   4.007   6.025   5.894
    9DG      O6  272   3.910   6.093   5.925
    9DG      N1  273   4.102   6.086   5.818
    9DG      H1  274   4.072   6.173   5.774
    9DG      C2  275   4.215   6.029   5.777
    9DG      N2  276   4.289   6.099   5.694
    9DG     H21  277   4.246   6.170   5.637
    9DG     H22  278   4.372   6.059   5.653
    9DG      N3  279   4.254   5.909   5.815
    9DG      C4  280   4.161   5.844   5.890
    9DG     C3'  281   4.345   5.447   6.008
    9DG     H3'  282   4.292   5.461   6.102
    9DG     C2'  283   4.381   5.583   5.945
    9DG    H2'1  284   4.412   5.654   6.022
    9DG    H2'2  285   4.463   5.579   5.873
    9DG     O3'  286   4.455   5.358   6.019
   10DT       P  287   4.576   5.384   6.122
   10DT     O1P  288   4.671   5.274   6.113
   10DT     O2P  289   4.517   5.415   6.251
   10DT     O5'  290   4.660   5.517   6.085
   10DT     C5'  291   4.740   5.529   5.962
   10DT    H5'1  292   4.691   5.490   5.873
   10DT    H5'2  293   4.834   5.477   5.980
   10DT     C4'  294   4.781   5.679   5.944
   10DT     H4'  295   4.837   5.691   5.851
   10DT     O4'  296   4.663   5.755   5.944
   10DT     C1'  297   4.672   5.877   6.009
   10DT     H1'  298   4.730   5.944   5.945
   10DT      N1  299   4.542   5.934   6.050
   10DT      C6  300   4.470   5.877   6.150
   10DT      H6  301   4.504   5.782   6.189
   10DT      C5  302   4.355   5.933   6.197
   10DT      C7  303   4.282   5.859   6.306
   10DT     H71  304   4.331   5.883   6.401
   10DT     H72  305   4.179   5.891   6.318
   10DT     H73  306   4.284   5.752   6.289
   10DT      C4  307   4.305   6.048   6.138
   10DT      O4  308   4.198   6.099   6.169
   10DT      N3  309   4.374   6.104   6.032
   10DT      H3  310   4.347   6.199   6.011
   10DT      C2  311   4.499   6.057   5.994
   10DT      O2  312   4.568   6.130   5.920
   10DT     C3'  313   4.866   5.738   6.053
   10DT     H3'  314   4.891   5.660   6.124
   10DT     C2'  315   4.771   5.837   6.121
   10DT    H2'1  316   4.714   5.787   6.199
   10DT    H2'2  317   4.832   5.918   6.161
   10DT     O3'  318   4.987   5.794   6.001
   11DA       P  319   5.107   5.846   6.082
   11DA     O1P  320   5.221   5.864   5.989
   11DA     O2P  321   5.126   5.756   6.193
   11DA     O5'  322   5.061   5.990   6.137
   11DA     C5'  323   5.041   6.107   6.052
   11DA    H5'1  324   4.978   6.067   5.973
   11DA    H5'2  325   5.136   6.142   6.009
   11DA     C4'  326   4.972   6.229   6.117
   11DA     H4'  327   4.974   6.314   6.049
   11DA     O4'  328   4.841   6.186   6.145
   11DA     C1'  329   4.800   6.227   6.272
   11DA     H1'  330   4.775   6.333   6.276
   11DA      N9  331   4.673   6.160   6.319
   11DA      C8  332   4.651   6.050   6.403
   11DA      H8  333   4.728   5.976   6.415
   11DA      N7  334   4.531   6.044   6.452
   11DA      C5  335   4.465   6.157   6.400
   11DA      C6  336   4.342   6.219   6.415
   11DA      N6  337   4.241   6.176   6.485
   11DA     H61  338   4.150   6.219   6.486
   11DA     H62  339   4.259   6.086   6.527
   11DA      N1  340   4.320   6.339   6.354
   11DA      C2  341   4.401   6.380   6.265
   11DA      H2  342   4.375   6.471   6.213
   11DA      N3  343   4.524   6.338   6.241
   11DA      C4  344   4.551   6.228   6.317
   11DA     C3'  345   5.037   6.255   6.255
   11DA     H3'  346   5.138   6.215   6.264
   11DA     C2'  347   4.932   6.199   6.356
   11DA    H2'1  348   4.941   6.093   6.379
   11DA    H2'2  349   4.916   6.269   6.438
   11DA     O3'  350   5.049   6.396   6.267
   12DT       P  351   5.174   6.480   6.213
   12DT     O1P  352   5.218   6.433   6.077
   12DT     O2P  353   5.282   6.488   6.319
   12DT     O5'  354   5.116   6.626   6.199
   12DT     C5'  355   5.008   6.656   6.108
   12DT    H5'1  356   4.975   6.563   6.063
   12DT    H5'2  357   5.041   6.719   6.024
   12DT     C4'  358   4.887   6.719   6.180
   12DT     H4'  359   4.814   6.761   6.111
   12DT     O4'  360   4.823   6.621   6.251
   12DT     C1'  361   4.748   6.694   6.345
   12DT     H1'  362   4.669   6.751   6.297
   12DT      N1  363   4.689   6.611   6.454
   12DT      C6  364   4.758   6.521   6.527
   12DT      H6  365   4.865   6.526   6.518
   12DT      C5  366   4.696   6.437   6.616
   12DT      C7  367   4.784   6.347   6.703
   12DT     H71  368   4.887   6.384   6.706
   12DT     H72  369   4.749   6.347   6.806
   12DT     H73  370   4.769   6.243   6.675
   12DT      C4  371   4.554   6.429   6.628
   12DT      O4  372   4.490   6.351   6.701
   12DT      N3  373   4.486   6.514   6.547
   12DT      H3  374   4.385   6.512   6.552
   12DT      C2  375   4.548   6.615   6.476
   12DT      O2  376   4.477   6.707   6.422
   12DT     C3'  377   4.913   6.842   6.271
   12DT     H3'  378   5.020   6.856   6.286
   12DT     C2'  379   4.856   6.790   6.399
   12DT    H2'1  380   4.933   6.747   6.462
   12DT    H2'2  381   4.795   6.860   6.456
   12DT     O3'  382   4.854   6.960   6.223
   13DG       P  383   4.909   7.104   6.273
   13DG     O1P  384   4.862   7.202   6.171
   13DG     O2P  385   5.052   7.091   6.306
   13DG     O5'  386   4.826   7.132   6.404
   13DG     C5'  387   4.710   7.206   6.401
   13DG    H5'1  388   4.651   7.192   6.311
   13DG    H5'2  389   4.741   7.311   6.398
   13DG     C4'  390   4.624   7.177   6.526
   13DG     H4'  391   4.532   7.234   6.526
   13DG     O4'  392   4.597   7.046   6.559
   13DG     C1'  393   4.615   7.030   6.695
   13DG     H1'  394   4.531   7.073   6.749
   13DG      N9  395   4.611   6.891   6.736
   13DG      C8  396   4.711   6.800   6.740
   13DG      H8  397   4.802   6.833   6.692
   13DG      N7  398   4.678   6.686   6.792
   13DG      C5  399   4.553   6.711   6.845
   13DG      C6  400   4.460   6.633   6.932
   13DG      O6  401   4.483   6.538   7.002
   13DG      N1  402   4.334   6.693   6.937
   13DG      H1  403   4.253   6.656   6.984
   13DG      C2  404   4.303   6.817   6.881
   13DG      N2  405   4.179   6.854   6.903
   13DG     H21  406   4.113   6.798   6.956
   13DG     H22  407   4.148   6.936   6.853
   13DG      N3  408   4.388   6.884   6.804
   13DG      C4  409   4.509   6.830   6.795
   13DG     C3'  410   4.704   7.233   6.649
   13DG     H3'  411   4.795   7.285   6.616
   13DG     C2'  412   4.735   7.118   6.738
   13DG    H2'1  413   4.829   7.073   6.704
   13DG    H2'2  414   4.729   7.137   6.845
   13DG     O3'  415   4.620   7.323   6.723
   14DC       P  416   4.612   7.484   6.689
   14DC     O1P  417   4.582   7.501   6.543
   14DC     O2P  418   4.723   7.553   6.748
   14DC     O5'  419   4.489   7.535   6.773
   14DC     C5'  420   4.357   7.492   6.755
   14DC    H5'1  421   4.356   7.416   6.677
   14DC    H5'2  422   4.290   7.571   6.719
   14DC     C4'  423   4.299   7.440   6.888
   14DC     H4'  424   4.191   7.460   6.883
   14DC     O4'  425   4.328   7.302   6.911
   14DC     C1'  426   4.362   7.290   7.047
   14DC     H1'  427   4.271   7.298   7.106
   14DC      N1  428   4.421   7.163   7.092
   14DC      C6  429   4.564   7.142   7.088
   14DC      H6  430   4.628   7.216   7.043
   14DC      C5  431   4.620   7.035   7.146
   14DC      H5  432   4.727   7.030   7.144
   14DC      C4  433   4.533   6.936   7.189
   14DC      N4  434   4.590   6.832   7.238
   14DC     H41  435   4.522   6.766   7.274
   14DC     H42  436   4.689   6.815   7.231
   14DC      N3  437   4.407   6.953   7.196
   14DC      C2  438   4.342   7.064   7.155
   14DC      O2  439   4.217   7.067   7.163
   14DC     C3'  440   4.345   7.518   7.007
   14DC     H3'  441   4.402   7.608   6.987
   14DC     C2'  442   4.448   7.415   7.064
   14DC    H2'1  443   4.537   7.421   7.000
   14DC    H2'2  444   4.475   7.431   7.168
   14DC     O3'  445   4.240   7.550   7.109
   15DG       P  446   4.228   7.692   7.181
   15DG     O1P  447   4.166   7.788   7.089
   15DG     O2P  448   4.358   7.730   7.238
   15DG     O5'  449   4.136   7.652   7.303
   15DG     C5'  450   3.991   7.647   7.287
   15DG    H5'1  451   3.986   7.605   7.186
   15DG    H5'2  452   3.946   7.745   7.273
   15DG     C4'  453   3.920   7.550   7.377
   15DG     H4'  454   3.813   7.565   7.364
   15DG     O4'  455   3.931   7.416   7.338
   15DG     C1'  456   3.962   7.328   7.445
   15DG     H1'  457   3.906   7.235   7.449
   15DG      N9  458   4.107   7.287   7.450
   15DG      C8  459   4.209   7.341   7.388
   15DG      H8  460   4.196   7.415   7.310
   15DG      N7  461   4.323   7.275   7.401
   15DG      C5  462   4.295   7.172   7.494
   15DG      C6  463   4.370   7.056   7.545
   15DG      O6  464   4.488   7.021   7.515
   15DG      N1  465   4.292   6.983   7.637
   15DG      H1  466   4.343   6.908   7.680
   15DG      C2  467   4.169   7.017   7.685
   15DG      N2  468   4.120   6.930   7.765
   15DG     H21  469   4.170   6.842   7.773
   15DG     H22  470   4.020   6.936   7.770
   15DG      N3  471   4.092   7.119   7.631
   15DG      C4  472   4.162   7.191   7.537
   15DG     C3'  473   3.946   7.546   7.526
   15DG     H3'  474   4.053   7.557   7.541
   15DG     C2'  475   3.916   7.401   7.578
   15DG    H2'1  476   3.976   7.379   7.666
   15DG    H2'2  477   3.811   7.375   7.590
   15DG     O3'  478   3.864   7.630   7.598
   16DT       P  479   3.912   7.727   7.715
   16DT     O1P  480   3.808   7.836   7.727
   16DT     O2P  481   4.054   7.765   7.703
   16DT     O5'  482   3.893   7.633   7.844
   16DT     C5'  483   3.766   7.563   7.865
   16DT    H5'1  484   3.733   7.519   7.771
   16DT    H5'2  485   3.696   7.638   7.902
   16DT     C4'  486   3.780   7.459   7.975
   16DT     H4'  487   3.680   7.416   7.984
   16DT     O4'  488   3.871   7.361   7.930
   16DT     C1'  489   3.962   7.332   8.040
   16DT     H1'  490   3.931   7.241   8.091
   16DT      N1  491   4.090   7.313   7.971
   16DT      C6  492   4.137   7.413   7.885
   16DT      H6  493   4.071   7.496   7.865
   16DT      C5  494   4.261   7.404   7.835
   16DT      C7  495   4.316   7.503   7.726
   16DT     H71  496   4.416   7.516   7.767
   16DT     H72  497   4.329   7.452   7.631
   16DT     H73  498   4.257   7.593   7.712
   16DT      C4  499   4.343   7.288   7.867
   16DT      O4  500   4.459   7.266   7.839
   16DT      N3  501   4.290   7.193   7.955
   16DT      H3  502   4.338   7.105   7.968
   16DT      C2  503   4.162   7.199   7.996
   16DT      O2  504   4.122   7.102   8.064
   16DT     C3'  505   3.820   7.511   8.114
   16DT     H3'  506   3.830   7.619   8.105
   16DT     C2'  507   3.957   7.447   8.144
   16DT    H2'1  508   4.042   7.511   8.121
   16DT    H2'2  509   3.960   7.398   8.241
   16DT     O3'  510   3.732   7.474   8.216
   17DT       P  511   3.744   7.527   8.369
   17DT     O1P  512   3.606   7.515   8.428
   17DT     O2P  513   3.815   7.656   8.375
   17DT     O5'  514   3.834   7.417   8.442
   17DT     C5'  515   3.818   7.274   8.436
   17DT    H5'1  516   3.820   7.232   8.335
   17DT    H5'2  517   3.718   7.248   8.472
   17DT     C4'  518   3.926   7.195   8.515
   17DT     H4'  519   3.872   7.102   8.534
   17DT     O4'  520   4.047   7.165   8.435
   17DT     C1'  521   4.158   7.228   8.491
   17DT     H1'  522   4.210   7.146   8.541
   17DT      N1  523   4.240   7.290   8.387
   17DT      C6  524   4.212   7.417   8.338
   17DT      H6  525   4.128   7.477   8.369
   17DT      C5  526   4.296   7.472   8.242
   17DT      C7  527   4.270   7.611   8.192
   17DT     H71  528   4.276   7.612   8.083
   17DT     H72  529   4.177   7.655   8.228
   17DT     H73  530   4.350   7.677   8.225
   17DT      C4  531   4.410   7.395   8.189
   17DT      O4  532   4.490   7.435   8.103
   17DT      N3  533   4.424   7.273   8.245
   17DT      H3  534   4.510   7.224   8.223
   17DT      C2  535   4.354   7.215   8.348
   17DT      O2  536   4.393   7.108   8.399
   17DT     C3'  537   3.969   7.267   8.643
   17DT     H3'  538   3.908   7.353   8.672
   17DT     C2'  539   4.101   7.315   8.610
   17DT    H2'1  540   4.107   7.419   8.576
   17DT    H2'2  541   4.166   7.311   8.697
   17DT     O3'  542   3.973   7.177   8.759
   18DA       P  543   4.017   7.223   8.903
   18DA     O1P  544   3.956   7.130   8.995
   18DA     O2P  545   4.001   7.369   8.915
   18DA     O5'  546   4.175   7.204   8.901
   18DA     C5'  547   4.235   7.078   8.900
   18DA    H5'1  548   4.195   7.022   8.816
   18DA    H5'2  549   4.206   7.025   8.991
   18DA     C4'  550   4.382   7.088   8.875
   18DA     H4'  551   4.427   6.990   8.859
   18DA     O4'  552   4.400   7.164   8.760
   18DA     C1'  553   4.527   7.225   8.764
   18DA     H1'  554   4.602   7.150   8.739
   18DA      N9  555   4.534   7.337   8.661
   18DA      C8  556   4.442   7.440   8.634
   18DA      H8  557   4.345   7.449   8.681
   18DA      N7  558   4.483   7.527   8.542
   18DA      C5  559   4.611   7.478   8.512
   18DA      C6  560   4.713   7.523   8.423
   18DA      N6  561   4.710   7.629   8.345
   18DA     H61  562   4.793   7.664   8.300
   18DA     H62  563   4.631   7.692   8.339
   18DA      N1  564   4.831   7.460   8.410
   18DA      C2  565   4.848   7.356   8.488
   18DA      H2  566   4.944   7.307   8.483
   18DA      N3  567   4.764   7.303   8.576
   18DA      C4  568   4.643   7.370   8.586
   18DA     C3'  569   4.452   7.156   8.993
   18DA     H3'  570   4.374   7.198   9.056
   18DA     C2'  571   4.536   7.261   8.914
   18DA    H2'1  572   4.494   7.359   8.935
   18DA    H2'2  573   4.641   7.265   8.941
   18DA     O3'  574   4.526   7.061   9.066
   19DT       P  575   4.631   7.101   9.180
   19DT     O1P  576   4.640   6.987   9.278
   19DT     O2P  577   4.595   7.228   9.238
   19DT     O5'  578   4.786   7.112   9.116
   19DT     C5'  579   4.832   7.023   9.016
   19DT    H5'1  580   4.765   7.021   8.930
   19DT    H5'2  581   4.833   6.927   9.067
   19DT     C4'  582   4.967   7.063   8.964
   19DT     H4'  583   4.997   6.973   8.912
   19DT     O4'  584   4.961   7.167   8.868
   19DT     C1'  585   5.063   7.263   8.897
   19DT     H1'  586   5.152   7.242   8.837
   19DT      N1  587   5.004   7.386   8.847
   19DT      C6  588   4.885   7.426   8.901
   19DT      H6  589   4.840   7.356   8.970
   19DT      C5  590   4.817   7.534   8.848
   19DT      C7  591   4.683   7.576   8.903
   19DT     H71  592   4.679   7.681   8.932
   19DT     H72  593   4.603   7.544   8.837
   19DT     H73  594   4.668   7.513   8.991
   19DT      C4  595   4.880   7.613   8.743
   19DT      O4  596   4.832   7.715   8.689
   19DT      N3  597   5.004   7.566   8.698
   19DT      H3  598   5.046   7.608   8.616
   19DT      C2  599   5.063   7.450   8.740
   19DT      O2  600   5.171   7.417   8.688
   19DT     C3'  601   5.070   7.097   9.070
   19DT     H3'  602   5.036   7.078   9.171
   19DT     C2'  603   5.094   7.247   9.051
   19DT    H2'1  604   5.025   7.301   9.116
   19DT    H2'2  605   5.196   7.279   9.073
   19DT     O3'  606   5.183   7.014   9.039
   20DG       P  607   5.300   6.999   9.149
   20DG     O1P  608   5.391   6.892   9.101
   20DG     O2P  609   5.235   6.979   9.277
   20DG     O5'  610   5.370   7.141   9.153
   20DG     C5'  611   5.468   7.183   9.063
   20DG    H5'1  612   5.430   7.162   8.963
   20DG    H5'2  613   5.553   7.120   9.087
   20DG     C4'  614   5.498   7.336   9.071
   20DG     H4'  615   5.592   7.353   9.018
   20DG     O4'  616   5.407   7.425   9.009
   20DG     C1'  617   5.421   7.553   9.068
   20DG     H1'  618   5.510   7.605   9.031
   20DG      N9  619   5.296   7.625   9.047
   20DG      C8  620   5.179   7.611   9.114
   20DG      H8  621   5.159   7.551   9.202
   20DG      N7  622   5.083   7.689   9.071
   20DG      C5  623   5.136   7.761   8.971
   20DG      C6  624   5.087   7.881   8.904
   20DG      O6  625   4.983   7.942   8.911
   20DG      N1  626   5.178   7.929   8.812
   20DG      H1  627   5.137   7.987   8.741
   20DG      C2  628   5.305   7.880   8.801
   20DG      N2  629   5.372   7.938   8.708
   20DG     H21  630   5.334   8.016   8.657
   20DG     H22  631   5.472   7.923   8.711
   20DG      N3  632   5.360   7.784   8.870
   20DG      C4  633   5.272   7.725   8.955
   20DG     C3'  634   5.531   7.389   9.213
   20DG     H3'  635   5.487   7.318   9.283
   20DG     C2'  636   5.452   7.517   9.218
   20DG    H2'1  637   5.360   7.489   9.269
   20DG    H2'2  638   5.508   7.602   9.258
   20DG     O3'  639   5.676   7.389   9.226
   21DC       P  640   5.747   7.484   9.332
   21DC     O1P  641   5.888   7.434   9.343
   21DC     O2P  642   5.668   7.476   9.461
   21DC     O5'  643   5.769   7.632   9.270
   21DC     C5'  644   5.798   7.645   9.131
   21DC    H5'1  645   5.723   7.585   9.079
   21DC    H5'2  646   5.901   7.631   9.098
   21DC     C4'  647   5.769   7.791   9.084
   21DC     H4'  648   5.823   7.812   8.992
   21DC     O4'  649   5.627   7.814   9.073
   21DC     C1'  650   5.604   7.950   9.100
   21DC     H1'  651   5.630   8.011   9.014
   21DC      N1  652   5.461   7.981   9.131
   21DC      C6  653   5.398   7.935   9.244
   21DC      H6  654   5.441   7.860   9.308
   21DC      C5  655   5.282   7.985   9.284
   21DC      H5  656   5.244   7.945   9.376
   21DC      C4  657   5.226   8.085   9.207
   21DC      N4  658   5.113   8.137   9.238
   21DC     H41  659   5.073   8.203   9.174
   21DC     H42  660   5.054   8.095   9.309
   21DC      N3  661   5.277   8.130   9.091
   21DC      C2  662   5.399   8.084   9.061
   21DC      O2  663   5.444   8.144   8.966
   21DC     C3'  664   5.818   7.898   9.185
   21DC     H3'  665   5.869   7.853   9.270
   21DC     C2'  666   5.693   7.964   9.224
   21DC    H2'1  667   5.651   7.909   9.308
   21DC    H2'2  668   5.721   8.067   9.245
   21DC     O3'  669   5.914   7.983   9.121
   22DG       P  670   6.019   8.071   9.204
   22DG     O1P  671   6.157   8.027   9.158
   22DG     O2P  672   5.977   8.066   9.343
   22DG     O5'  673   5.987   8.221   9.145
   22DG     C5'  674   5.978   8.229   9.001
   22DG    H5'1  675   5.932   8.139   8.961
   22DG    H5'2  676   6.076   8.244   8.956
   22DG     C4'  677   5.884   8.345   8.967
   22DG     H4'  678   5.874   8.347   8.859
   22DG     O4'  679   5.753   8.306   9.002
   22DG     C1'  680   5.677   8.425   9.025
   22DG     H1'  681   5.623   8.460   8.937
   22DG      N9  682   5.579   8.397   9.129
   22DG      C8  683   5.597   8.342   9.254
   22DG      H8  684   5.684   8.292   9.293
   22DG      N7  685   5.486   8.341   9.322
   22DG      C5  686   5.391   8.413   9.251
   22DG      C6  687   5.259   8.457   9.288
   22DG      O6  688   5.196   8.443   9.390
   22DG      N1  689   5.212   8.544   9.194
   22DG      H1  690   5.116   8.573   9.209
   22DG      C2  691   5.270   8.573   9.074
   22DG      N2  692   5.202   8.648   8.995
   22DG     H21  693   5.118   8.699   9.020
   22DG     H22  694   5.244   8.698   8.918
   22DG      N3  695   5.397   8.540   9.046
   22DG      C4  696   5.451   8.450   9.132
   22DG     C3'  697   5.918   8.478   9.034
   22DG     H3'  698   5.976   8.468   9.126
   22DG     C2'  699   5.775   8.528   9.076
   22DG    H2'1  700   5.770   8.536   9.185
   22DG    H2'2  701   5.766   8.617   9.015
   22DG     O3'  702   5.990   8.560   8.941
   23DC       P  703   6.038   8.709   8.977
   23DC     O1P  704   6.149   8.736   8.882
   23DC     O2P  705   6.058   8.720   9.121
   23DC     O5'  706   5.912   8.799   8.940
   23DC     C5'  707   5.854   8.788   8.815
   23DC    H5'1  708   5.805   8.693   8.798
   23DC    H5'2  709   5.934   8.807   8.744
   23DC     C4'  710   5.745   8.893   8.792
   23DC     H4'  711   5.710   8.894   8.689
   23DC     O4'  712   5.638   8.845   8.873
   23DC     C1'  713   5.610   8.951   8.959
   23DC     H1'  714   5.532   9.013   8.916
   23DC      N1  715   5.558   8.898   9.091
   23DC      C6  716   5.645   8.838   9.179
   23DC      H6  717   5.746   8.821   9.145
   23DC      C5  718   5.593   8.790   9.299
   23DC      H5  719   5.661   8.742   9.368
   23DC      C4  720   5.457   8.819   9.321
   23DC      N4  721   5.396   8.783   9.433
   23DC     H41  722   5.298   8.800   9.451
   23DC     H42  723   5.456   8.745   9.505
   23DC      N3  724   5.372   8.872   9.233
   23DC      C2  725   5.423   8.903   9.113
   23DC      O2  726   5.341   8.938   9.026
   23DC     C3'  727   5.779   9.038   8.833
   23DC     H3'  728   5.888   9.047   8.832
   23DC     C2'  729   5.729   9.042   8.972
   23DC    H2'1  730   5.806   9.018   9.046
   23DC    H2'2  731   5.692   9.141   8.999
   23DC     O3'  732   5.720   9.123   8.737
   24DG       P  733   5.690   9.284   8.755
   24DG     O1P  734   5.686   9.350   8.627
   24DG     O2P  735   5.795   9.332   8.848
   24DG     O5'  736   5.554   9.285   8.839
   24DG     C5'  737   5.430   9.254   8.790
   24DG    H5'1  738   5.406   9.151   8.813
   24DG    H5'2  739   5.448   9.266   8.683
   24DG     C4'  740   5.326   9.359   8.845
   24DG     H4'  741   5.245   9.364   8.773
   24DG     O4'  742   5.274   9.310   8.967
   24DG     C1'  743   5.320   9.396   9.068
   24DG     H1'  744   5.231   9.445   9.108
   24DG      N9  745   5.384   9.312   9.175
   24DG      C8  746   5.516   9.279   9.190
   24DG      H8  747   5.584   9.304   9.110
   24DG      N7  748   5.536   9.199   9.288
   24DG      C5  749   5.415   9.188   9.357
   24DG      C6  750   5.371   9.125   9.481
   24DG      O6  751   5.438   9.057   9.561
   24DG      N1  752   5.233   9.126   9.503
   24DG      H1  753   5.196   9.092   9.590
   24DG      C2  754   5.151   9.185   9.416
   24DG      N2  755   5.038   9.206   9.460
   24DG     H21  756   5.026   9.195   9.560
   24DG     H22  757   4.976   9.260   9.402
   24DG      N3  758   5.183   9.247   9.301
   24DG      C4  759   5.317   9.246   9.278
   24DG     C3'  760   5.374   9.502   8.851
   24DG     H3'  761   5.472   9.518   8.805
   24DG     C2'  762   5.402   9.506   9.003
   24DG    H2'1  763   5.507   9.482   9.014
   24DG    H2'2  764   5.369   9.595   9.057
   24DG     O3'  765   5.282   9.592   8.797
   25DT       P  766   5.244   9.738   8.855
   25DT     O1P  767   5.163   9.797   8.745
   25DT     O2P  768   5.370   9.809   8.897
   25DT     O5'  769   5.153   9.706   8.981
   25DT     C5'  770   5.034   9.635   8.977
   25DT    H5'1  771   5.046   9.530   8.950
   25DT    H5'2  772   4.965   9.693   8.916
   25DT     C4'  773   4.974   9.637   9.116
   25DT     H4'  774   4.874   9.596   9.108
   25DT     O4'  775   5.050   9.556   9.207
   25DT     C1'  776   5.051   9.606   9.337
   25DT     H1'  777   4.963   9.576   9.394
   25DT      N1  778   5.176   9.576   9.406
   25DT      C6  779   5.298   9.605   9.347
   25DT      H6  780   5.296   9.664   9.257
   25DT      C5  781   5.414   9.566   9.406
   25DT      C7  782   5.547   9.606   9.338
   25DT     H71  783   5.567   9.514   9.282
   25DT     H72  784   5.536   9.690   9.270
   25DT     H73  785   5.623   9.629   9.413
   25DT      C4  786   5.411   9.488   9.525
   25DT      O4  787   5.502   9.431   9.575
   25DT      N3  788   5.293   9.474   9.583
   25DT      H3  789   5.293   9.436   9.677
   25DT      C2  790   5.173   9.519   9.531
   25DT      O2  791   5.064   9.510   9.591
   25DT     C3'  792   4.966   9.779   9.177
   25DT     H3'  793   5.025   9.846   9.115
   25DT     C2'  794   5.037   9.752   9.309
   25DT    H2'1  795   5.127   9.813   9.320
   25DT    H2'2  796   4.978   9.781   9.395
   25DT     O3'  797   4.829   9.821   9.200
   26DG       P  798   4.794   9.975   9.228
   26DG     O1P  799   4.654  10.004   9.182
   26DG     O2P  800   4.905  10.056   9.185
   26DG     O5'  801   4.789   9.959   9.380
   26DG     C5'  802   4.700   9.866   9.449
   26DG    H5'1  803   4.721   9.763   9.420
   26DG    H5'2  804   4.596   9.891   9.429
   26DG     C4'  805   4.715   9.869   9.596
   26DG     H4'  806   4.644   9.801   9.642
   26DG     O4'  807   4.842   9.823   9.643
   26DG     C1'  808   4.917   9.909   9.716
   26DG     H1'  809   4.898   9.877   9.819
   26DG      N9  810   5.065   9.888   9.687
   26DG      C8  811   5.149   9.948   9.593
   26DG      H8  812   5.128  10.037   9.535
   26DG      N7  813   5.272   9.906   9.602
   26DG      C5  814   5.277   9.821   9.712
   26DG      C6  815   5.380   9.743   9.780
   26DG      O6  816   5.497   9.729   9.738
   26DG      N1  817   5.342   9.685   9.898
   26DG      H1  818   5.408   9.628   9.948
   26DG      C2  819   5.218   9.696   9.948
   26DG      N2  820   5.196   9.628  10.059
   26DG     H21  821   5.269   9.577  10.108
   26DG     H22  822   5.105   9.630  10.103
   26DG      N3  823   5.113   9.745   9.879
   26DG      C4  824   5.148   9.807   9.762
   26DG     C3'  825   4.713  10.005   9.661
   26DG     H3'  826   4.665  10.072   9.590
   26DG     C2'  827   4.865  10.047   9.673
   26DG    H2'1  828   4.901  10.073   9.574
   26DG    H2'2  829   4.892  10.125   9.744
   26DG     O3'  830   4.661  10.003   9.791
   27DC       P  831   4.510  10.023   9.829
   27DC     O1P  832   4.428   9.929   9.749
   27DC     O2P  833   4.470  10.162   9.823
   27DC     O5'  834   4.508   9.978   9.976
   27DC     C5'  835   4.558   9.850  10.022
   27DC    H5'1  836   4.605   9.792   9.943
   27DC    H5'2  837   4.475   9.806  10.078
   27DC     C4'  838   4.661   9.873  10.133
   27DC     H4'  839   4.654   9.792  10.205
   27DC     O4'  840   4.793   9.883  10.080
   27DC     C1'  841   4.867   9.981  10.157
   27DC     H1'  842   4.890   9.944  10.257
   27DC      N1  843   4.995  10.027  10.090
   27DC      C6  844   4.991  10.136  10.007
   27DC      H6  845   4.895  10.178   9.980
   27DC      C5  846   5.101  10.185   9.955
   27DC      H5  847   5.092  10.271   9.890
   27DC      C4  848   5.225  10.108   9.969
   27DC      N4  849   5.343  10.146   9.940
   27DC     H41  850   5.416  10.082   9.965
   27DC     H42  851   5.362  10.231   9.889
   27DC      N3  852   5.223   9.998  10.047
   27DC      C2  853   5.114   9.958  10.114
   27DC      O2  854   5.124   9.866  10.196
   27DC     C3'  855   4.647   9.998  10.220
   27DC     H3'  856   4.553  10.050  10.200
   27DC     C2'  857   4.761  10.087  10.182
   27DC    H2'1  858   4.727  10.142  10.095
   27DC    H2'2  859   4.783  10.150  10.269
   27DC     O3'  860   4.653   9.965  10.355
   28DG       P  861   4.586  10.046  10.475
   28DG     O1P  862   4.467   9.973  10.517
   28DG     O2P  863   4.574  10.186  10.442
   28DG     O5'  864   4.695  10.027  10.591
   28DG     C5'  865   4.735   9.897  10.625
   28DG    H5'1  866   4.709   9.826  10.546
   28DG    H5'2  867   4.658   9.855  10.690
   28DG     C4'  868   4.884   9.879  10.662
   28DG     H4'  869   4.900   9.777  10.699
   28DG     O4'  870   4.968   9.910  10.549
   28DG     C1'  871   5.072   9.994  10.590
   28DG     H1'  872   5.161   9.935  10.616
   28DG      N9  873   5.107  10.088  10.477
   28DG      C8  874   5.032  10.192  10.428
   28DG      H8  875   4.931  10.217  10.456
   28DG      N7  876   5.089  10.259  10.336
   28DG      C5  877   5.224  10.211  10.337
   28DG      C6  878   5.340  10.251  10.260
   28DG      O6  879   5.355  10.338  10.176
   28DG      N1  880   5.455  10.178  10.302
   28DG      H1  881   5.543  10.197  10.256
   28DG      C2  882   5.457  10.087  10.402
   28DG      N2  883   5.576  10.048  10.425
   28DG     H21  884   5.650  10.095  10.376
   28DG     H22  885   5.587  10.014  10.519
   28DG      N3  886   5.352  10.054  10.475
   28DG      C4  887   5.235  10.116  10.436
   28DG     C3'  888   4.917   9.975  10.784
   28DG     H3'  889   4.828  10.026  10.821
   28DG     C2'  890   5.013  10.073  10.711
   28DG    H2'1  891   4.959  10.165  10.690
   28DG    H2'2  892   5.095  10.104  10.776
   28DG     O3'  893   4.984   9.900  10.880
   29DT       P  894   5.043   9.955  11.017
   29DT     O1P  895   5.055   9.840  11.108
   29DT     O2P  896   4.953  10.066  11.058
   29DT     O5'  897   5.194  10.007  10.997
   29DT     C5'  898   5.309   9.924  10.996
   29DT    H5'1  899   5.295   9.860  10.908
   29DT    H5'2  900   5.309   9.866  11.088
   29DT     C4'  901   5.442  10.007  10.984
   29DT     H4'  902   5.534   9.949  10.993
   29DT     O4'  903   5.442  10.079  10.862
   29DT     C1'  904   5.491  10.210  10.882
   29DT     H1'  905   5.599  10.213  10.895
   29DT      N1  906   5.462  10.292  10.765
   29DT      C6  907   5.334  10.332  10.738
   29DT      H6  908   5.255  10.294  10.801
   29DT      C5  909   5.306  10.428  10.647
   29DT      C7  910   5.168  10.483  10.624
   29DT     H71  911   5.097  10.438  10.694
   29DT     H72  912   5.173  10.591  10.633
   29DT     H73  913   5.130  10.446  10.529
   29DT      C4  914   5.419  10.485  10.569
   29DT      O4  915   5.412  10.565  10.476
   29DT      N3  916   5.543  10.434  10.595
   29DT      H3  917   5.612  10.461  10.526
   29DT      C2  918   5.573  10.341  10.689
   29DT      O2  919   5.694  10.317  10.705
   29DT     C3'  920   5.445  10.122  11.094
   29DT     H3'  921   5.367  10.097  11.166
   29DT     C2'  922   5.420  10.253  11.014
   29DT    H2'1  923   5.313  10.271  11.011
   29DT    H2'2  924   5.474  10.336  11.058
   29DT     O3'  925   5.572  10.131  11.155
   30DG       P  926   5.609  10.029  11.270
   30DG     O1P  927   5.564   9.891  11.241
   30DG     O2P  928   5.560  10.092  11.398
   30DG     O5'  929   5.765  10.037  11.265
   30DG     C5'  930   5.837   9.948  11.178
   30DG    H5'1  931   5.789   9.930  11.081
   30DG    H5'2  932   5.861   9.856  11.231
   30DG     C4'  933   5.968  10.013  11.135
   30DG     H4'  934   6.025   9.929  11.094
   30DG     O4'  935   5.946  10.111  11.035
   30DG     C1'  936   6.012  10.229  11.070
   30DG     H1'  937   6.106  10.257  11.022
   30DG      N9  938   5.925  10.338  11.031
   30DG      C8  939   5.814  10.387  11.095
   30DG      H8  940   5.792  10.339  11.189
   30DG      N7  941   5.754  10.480  11.032
   30DG      C5  942   5.833  10.503  10.917
   30DG      C6  943   5.817  10.586  10.801
   30DG      O6  944   5.721  10.651  10.775
   30DG      N1  945   5.917  10.570  10.708
   30DG      H1  946   5.928  10.631  10.629
   30DG      C2  947   6.023  10.489  10.726
   30DG      N2  948   6.113  10.483  10.631
   30DG     H21  949   6.111  10.539  10.547
   30DG     H22  950   6.180  10.409  10.644
   30DG      N3  951   6.044  10.413  10.835
   30DG      C4  952   5.942  10.417  10.921
   30DG     C3'  953   6.065  10.071  11.233
   30DG     H3'  954   6.031  10.042  11.333
   30DG     C2'  955   6.033  10.222  11.220
   30DG    H2'1  956   5.944  10.236  11.282
   30DG    H2'2  957   6.118  10.278  11.257
   30DG     O3'  958   6.205  10.039  11.213
   31DC       P  959   6.313  10.074  11.328
   31DC     O1P  960   6.418   9.970  11.310
   31DC     O2P  961   6.239  10.080  11.454
   31DC     O5'  962   6.371  10.217  11.282
   31DC     C5'  963   6.444  10.232  11.164
   31DC    H5'1  964   6.389  10.168  11.096
   31DC    H5'2  965   6.543  10.189  11.182
   31DC     C4'  966   6.441  10.372  11.112
   31DC     H4'  967   6.505  10.384  11.024
   31DC     O4'  968   6.307  10.414  11.090
   31DC     C1'  969   6.297  10.547  11.138
   31DC     H1'  970   6.342  10.614  11.065
   31DC      N1  971   6.156  10.580  11.155
   31DC      C6  972   6.081  10.551  11.267
   31DC      H6  973   6.104  10.478  11.343
   31DC      C5  974   5.963  10.608  11.285
   31DC      H5  975   5.905  10.575  11.369
   31DC      C4  976   5.917  10.703  11.193
   31DC      N4  977   5.808  10.766  11.210
   31DC     H41  978   5.768  10.825  11.138
   31DC     H42  979   5.755  10.746  11.294
   31DC      N3  980   5.988  10.741  11.088
   31DC      C2  981   6.108  10.680  11.068
   31DC      O2  982   6.175  10.721  10.971
   31DC     C3'  983   6.503  10.458  11.223
   31DC     H3'  984   6.551  10.413  11.310
   31DC     C2'  985   6.388  10.547  11.264
   31DC    H2'1  986   6.355  10.497  11.355
   31DC    H2'2  987   6.428  10.647  11.275
   31DC     O3'  988   6.594  10.552  11.155
   32DG3      P  989   6.749  10.548  11.151
   32DG3    O1P  990   6.797  10.424  11.092
   32DG3    O2P  991   6.800  10.583  11.287
   32DG3    O5'  992   6.764  10.668  11.054
   32DG3    C5'  993   6.731  10.645  10.915
   32DG3   H5'1  994   6.655  10.567  10.909
   32DG3   H5'2  995   6.823  10.603  10.873
   32DG3    C4'  996   6.691  10.768  10.839
   32DG3    H4'  997   6.684  10.745  10.733
   32DG3    O4'  998   6.564  10.810  10.879
   32DG3    C1'  999   6.568  10.944  10.922
   32DG3    H1' 1000   6.537  11.010  10.841
   32DG3     N9 1001   6.476  10.956  11.036
   32DG3     C8 1002   6.491  10.931  11.168
   32DG3     H8 1003   6.582  10.895  11.214
   32DG3     N7 1004   6.381  10.950  11.238
   32DG3     C5 1005   6.294  11.007  11.147
   32DG3     C6 1006   6.155  11.050  11.153
   32DG3     O6 1007   6.076  11.044  11.250
   32DG3     N1 1008   6.103  11.111  11.044
   32DG3     H1 1009   6.025  11.175  11.052
   32DG3     C2 1010   6.170  11.119  10.927
   32DG3     N2 1011   6.117  11.194  10.834
   32DG3    H21 1012   6.032  11.247  10.848
   32DG3    H22 1013   6.156  11.189  10.741
   32DG3     N3 1014   6.291  11.063  10.907
   32DG3     C4 1015   6.351  11.012  11.024
   32DG3    C3' 1016   6.786  10.888  10.853
   32DG3    H3' 1017   6.885  10.856  10.886
   32DG3    C2' 1018   6.716  10.964  10.959
   32DG3   H2'1 1019   6.724  10.910  11.053
   32DG3   H2'2 1020   6.747  11.068  10.972
   32DG3    O3' 1021   6.789  10.962  10.727
   32DG3    H3T 1022   6.824  10.898  10.663
   33DC5    H5T 1023   5.395  11.892  10.811
   33DC5    O5' 1024   5.333  11.823  10.836
   33DC5    C5' 1025   5.390  11.750  10.947
   33DC5   H5'1 1026   5.338  11.660  10.980
   33DC5   H5'2 1027   5.415  11.817  11.029
   33DC5    C4' 1028   5.527  11.699  10.900
   33DC5    H4' 1029   5.588  11.785  10.872
   33DC5    O4' 1030   5.586  11.620  11.005
   33DC5    C1' 1031   5.679  11.532  10.944
   33DC5    H1' 1032   5.767  11.588  10.913
   33DC5     N1 1033   5.698  11.410  11.028
   33DC5     C6 1034   5.612  11.378  11.125
   33DC5     H6 1035   5.521  11.434  11.137
   33DC5     C5 1036   5.635  11.270  11.200
   33DC5     H5 1037   5.571  11.241  11.282
   33DC5     C4 1038   5.755  11.193  11.172
   33DC5     N4 1039   5.797  11.110  11.259
   33DC5    H41 1040   5.875  11.050  11.236
   33DC5    H42 1041   5.737  11.095  11.339
   33DC5     N3 1042   5.845  11.230  11.085
   33DC5     C2 1043   5.819  11.336  11.011
   33DC5     O2 1044   5.898  11.359  10.921
   33DC5    C3' 1045   5.512  11.615  10.774
   33DC5    H3' 1046   5.406  11.597  10.761
   33DC5    C2' 1047   5.588  11.490  10.824
   33DC5   H2'1 1048   5.501  11.429  10.850
   33DC5   H2'2 1049   5.653  11.450  10.746
   33DC5    O3' 1050   5.559  11.682  10.653
   34DG       P 1051   5.514  11.639  10.512
   34DG     O1P 1052   5.549  11.744  10.417
   34DG     O2P 1053   5.377  11.589  10.521
   34DG     O5' 1054   5.609  11.513  10.483
   34DG     C5' 1055   5.730  11.532  10.408
   34DG    H5'1 1056   5.812  11.578  10.464
   34DG    H5'2 1057   5.723  11.597  10.321
   34DG     C4' 1058   5.778  11.395  10.362
   34DG     H4' 1059   5.869  11.401  10.302
   34DG     O4' 1060   5.802  11.316  10.480
   34DG     C1' 1061   5.724  11.200  10.477
   34DG     H1' 1062   5.786  11.121  10.435
   34DG      N9 1063   5.680  11.150  10.615
   34DG      C8 1064   5.571  11.187  10.689
   34DG      H8 1065   5.499  11.259  10.653
   34DG      N7 1066   5.563  11.129  10.811
   34DG      C5 1067   5.678  11.052  10.813
   34DG      C6 1068   5.732  10.969  10.917
   34DG      O6 1069   5.682  10.934  11.022
   34DG      N1 1070   5.858  10.927  10.893
   34DG      H1 1071   5.894  10.858  10.958
   34DG      C2 1072   5.920  10.931  10.768
   34DG      N2 1073   6.025  10.856  10.755
   34DG     H21 1074   6.074  10.814  10.832
   34DG     H22 1075   6.058  10.846  10.660
   34DG      N3 1076   5.873  11.008  10.670
   34DG      C4 1077   5.749  11.066  10.693
   34DG     C3' 1078   5.675  11.314  10.282
   34DG     H3' 1079   5.600  11.376  10.234
   34DG     C2' 1080   5.603  11.231  10.389
   34DG    H2'1 1081   5.531  11.295  10.439
   34DG    H2'2 1082   5.563  11.136  10.354
   34DG     O3' 1083   5.739  11.224  10.187
   35DC       P 1084   5.810  11.269  10.059
   35DC     O1P 1085   5.824  11.412  10.068
   35DC     O2P 1086   5.741  11.204   9.951
   35DC     O5' 1087   5.941  11.196  10.079
   35DC     C5' 1088   6.050  11.259  10.146
   35DC    H5'1 1089   6.022  11.316  10.235
   35DC    H5'2 1090   6.080  11.342  10.082
   35DC     C4' 1091   6.168  11.167  10.177
   35DC     H4' 1092   6.256  11.227  10.200
   35DC     O4' 1093   6.125  11.094  10.287
   35DC     C1' 1094   6.104  10.955  10.255
   35DC     H1' 1095   6.186  10.897  10.299
   35DC      N1 1096   5.985  10.903  10.323
   35DC      C6 1097   5.863  10.929  10.275
   35DC      H6 1098   5.856  11.004  10.198
   35DC      C5 1099   5.753  10.869  10.322
   35DC      H5 1100   5.656  10.887  10.278
   35DC      C4 1101   5.770  10.789  10.438
   35DC      N4 1102   5.667  10.761  10.518
   35DC     H41 1103   5.685  10.695  10.593
   35DC     H42 1104   5.578  10.806  10.507
   35DC      N3 1105   5.886  10.760  10.485
   35DC      C2 1106   6.001  10.813  10.431
   35DC      O2 1107   6.110  10.781  10.478
   35DC     C3' 1108   6.212  11.058  10.070
   35DC     H3' 1109   6.207  11.093   9.967
   35DC     C2' 1110   6.116  10.940  10.103
   35DC    H2'1 1111   6.023  10.956  10.048
   35DC    H2'2 1112   6.162  10.843  10.085
   35DC     O3' 1113   6.348  11.017  10.092
   36DA       P 1114   6.431  10.915  10.000
   36DA     O1P 1115   6.579  10.928  10.012
   36DA     O2P 1116   6.376  10.912   9.866
   36DA     O5' 1117   6.394  10.779  10.063
   36DA     C5' 1118   6.455  10.737  10.190
   36DA    H5'1 1119   6.421  10.800  10.273
   36DA    H5'2 1120   6.562  10.755  10.182
   36DA     C4' 1121   6.429  10.597  10.227
   36DA     H4' 1122   6.501  10.570  10.304
   36DA     O4' 1123   6.295  10.582  10.265
   36DA     C1' 1124   6.235  10.473  10.194
   36DA     H1' 1125   6.249  10.379  10.247
   36DA      N9 1126   6.090  10.493  10.175
   36DA      C8 1127   6.031  10.553  10.071
   36DA      H8 1128   6.085  10.599   9.990
   36DA      N7 1129   5.905  10.559  10.084
   36DA      C5 1130   5.877  10.500  10.207
   36DA      C6 1131   5.761  10.485  10.283
   36DA      N6 1132   5.644  10.536  10.252
   36DA     H61 1133   5.558  10.517  10.302
   36DA     H62 1134   5.633  10.589  10.167
   36DA      N1 1135   5.763  10.411  10.393
   36DA      C2 1136   5.880  10.367  10.435
   36DA      H2 1137   5.887  10.314  10.529
   36DA      N3 1138   6.002  10.384  10.377
   36DA      C4 1139   5.991  10.448  10.259
   36DA     C3' 1140   6.461  10.493  10.113
   36DA     H3' 1141   6.505  10.547  10.030
   36DA     C2' 1142   6.317  10.455  10.071
   36DA    H2'1 1143   6.299  10.538  10.003
   36DA    H2'2 1144   6.305  10.360  10.018
   36DA     O3' 1145   6.548  10.388  10.150
   37DC       P 1146   6.574  10.258  10.059
   37DC     O1P 1147   6.699  10.198  10.121
   37DC     O2P 1148   6.591  10.298   9.919
   37DC     O5' 1149   6.453  10.149  10.073
   37DC     C5' 1150   6.410  10.100  10.198
   37DC    H5'1 1151   6.419  10.180  10.272
   37DC    H5'2 1152   6.479  10.020  10.223
   37DC     C4' 1153   6.273  10.038  10.205
   37DC     H4' 1154   6.265  10.000  10.306
   37DC     O4' 1155   6.166  10.131  10.186
   37DC     C1' 1156   6.058  10.064  10.139
   37DC     H1' 1157   6.024   9.993  10.214
   37DC      N1 1158   5.936  10.144  10.104
   37DC      C6 1159   5.919  10.201   9.977
   37DC      H6 1160   5.996  10.208   9.901
   37DC      C5 1161   5.803  10.262   9.946
   37DC      H5 1162   5.786  10.310   9.851
   37DC      C4 1163   5.698  10.235  10.038
   37DC      N4 1164   5.592  10.305  10.009
   37DC     H41 1165   5.509  10.306  10.067
   37DC     H42 1166   5.590  10.363   9.926
   37DC      N3 1167   5.702  10.189  10.160
   37DC      C2 1168   5.824  10.136  10.191
   37DC      O2 1169   5.832  10.076  10.299
   37DC     C3' 1170   6.247   9.921  10.111
   37DC     H3' 1171   6.338   9.902  10.054
   37DC     C2' 1172   6.127   9.980  10.032
   37DC    H2'1 1173   6.160  10.044   9.950
   37DC    H2'2 1174   6.058   9.905   9.995
   37DC     O3' 1175   6.212   9.816  10.197
   38DG       P 1176   6.301   9.686  10.223
   38DG     O1P 1177   6.437   9.723  10.271
   38DG     O2P 1178   6.300   9.602  10.102
   38DG     O5' 1179   6.222   9.600  10.337
   38DG     C5' 1180   6.203   9.646  10.467
   38DG    H5'1 1181   6.221   9.753  10.469
   38DG    H5'2 1182   6.273   9.590  10.528
   38DG     C4' 1183   6.058   9.619  10.504
   38DG     H4' 1184   6.044   9.642  10.610
   38DG     O4' 1185   5.978   9.711  10.426
   38DG     C1' 1186   5.881   9.630  10.376
   38DG     H1' 1187   5.809   9.633  10.459
   38DG      N9 1188   5.815   9.695  10.261
   38DG      C8 1189   5.891   9.743  10.153
   38DG      H8 1190   5.995   9.719  10.142
   38DG      N7 1191   5.820   9.821  10.077
   38DG      C5 1192   5.692   9.819  10.131
   38DG      C6 1193   5.575   9.883  10.082
   38DG      O6 1194   5.562   9.957   9.989
   38DG      N1 1195   5.465   9.848  10.164
   38DG      H1 1196   5.377   9.890  10.139
   38DG      C2 1197   5.468   9.767  10.268
   38DG      N2 1198   5.353   9.745  10.322
   38DG     H21 1199   5.269   9.787  10.284
   38DG     H22 1200   5.347   9.675  10.393
   38DG      N3 1201   5.579   9.714  10.318
   38DG      C4 1202   5.687   9.738  10.242
   38DG     C3' 1203   6.008   9.477  10.488
   38DG     H3' 1204   6.092   9.408  10.481
   38DG     C2' 1205   5.929   9.483  10.362
   38DG    H2'1 1206   5.979   9.479  10.265
   38DG    H2'2 1207   5.838   9.423  10.359
   38DG     O3' 1208   5.932   9.436  10.603
   39DC       P 1209   5.927   9.280  10.651
   39DC     O1P 1210   5.904   9.286  10.799
   39DC     O2P 1211   6.049   9.214  10.617
   39DC     O5' 1212   5.800   9.206  10.587
   39DC     C5' 1213   5.667   9.221  10.626
   39DC    H5'1 1214   5.648   9.322  10.663
   39DC    H5'2 1215   5.644   9.149  10.705
   39DC     C4' 1216   5.568   9.198  10.505
   39DC     H4' 1217   5.466   9.220  10.537
   39DC     O4' 1218   5.595   9.298  10.400
   39DC     C1' 1219   5.563   9.230  10.283
   39DC     H1' 1220   5.457   9.205  10.276
   39DC      N1 1221   5.603   9.313  10.168
   39DC      C6 1222   5.724   9.301  10.103
   39DC      H6 1223   5.801   9.231  10.129
   39DC      C5 1224   5.758   9.387  10.005
   39DC      H5 1225   5.847   9.372   9.946
   39DC      C4 1226   5.664   9.490   9.969
   39DC      N4 1227   5.694   9.569   9.870
   39DC     H41 1228   5.623   9.630   9.832
   39DC     H42 1229   5.790   9.574   9.838
   39DC      N3 1230   5.551   9.506  10.025
   39DC      C2 1231   5.519   9.418  10.127
   39DC      O2 1232   5.407   9.436  10.181
   39DC     C3' 1233   5.596   9.059  10.444
   39DC     H3' 1234   5.667   9.007  10.509
   39DC     C2' 1235   5.642   9.102  10.301
   39DC    H2'1 1236   5.750   9.117  10.301
   39DC    H2'2 1237   5.612   9.031  10.224
   39DC     O3' 1238   5.466   9.007  10.427
   40DA       P 1239   5.406   8.905  10.524
   40DA     O1P 1240   5.438   8.939  10.664
   40DA     O2P 1241   5.438   8.769  10.472
   40DA     O5' 1242   5.248   8.921  10.504
   40DA     C5' 1243   5.187   9.034  10.552
   40DA    H5'1 1244   5.255   9.119  10.550
   40DA    H5'2 1245   5.159   9.022  10.657
   40DA     C4' 1246   5.073   9.078  10.461
   40DA     H4' 1247   5.008   9.148  10.515
   40DA     O4' 1248   5.125   9.144  10.351
   40DA     C1' 1249   5.082   9.083  10.227
   40DA     H1' 1250   4.998   9.138  10.183
   40DA      N9 1251   5.195   9.102  10.140
   40DA      C8 1252   5.319   9.036  10.148
   40DA      H8 1253   5.339   8.965  10.226
   40DA      N7 1254   5.406   9.073  10.058
   40DA      C5 1255   5.332   9.169   9.987
   40DA      C6 1256   5.361   9.260   9.880
   40DA      N6 1257   5.471   9.280   9.811
   40DA     H61 1258   5.472   9.360   9.749
   40DA     H62 1259   5.544   9.215   9.838
   40DA      N1 1260   5.274   9.349   9.842
   40DA      C2 1261   5.151   9.344   9.896
   40DA      H2 1262   5.086   9.424   9.863
   40DA      N3 1263   5.107   9.270   9.993
   40DA      C4 1264   5.206   9.189  10.034
   40DA     C3' 1265   4.988   8.958  10.402
   40DA     H3' 1266   4.988   8.867  10.461
   40DA     C2' 1267   5.038   8.940  10.260
   40DA    H2'1 1268   5.121   8.872  10.243
   40DA    H2'2 1269   4.957   8.907  10.195
   40DA     O3' 1270   4.854   9.011  10.412
   41DC       P 1271   4.720   8.928  10.395
   41DC     O1P 1272   4.613   8.996  10.473
   41DC     O2P 1273   4.743   8.787  10.419
   41DC     O5' 1274   4.692   8.944  10.236
   41DC     C5' 1275   4.674   9.071  10.181
   41DC    H5'1 1276   4.756   9.135  10.215
   41DC    H5'2 1277   4.575   9.108  10.206
   41DC     C4' 1278   4.687   9.056  10.032
   41DC     H4' 1279   4.631   9.138   9.988
   41DC     O4' 1280   4.822   9.061   9.990
   41DC     C1' 1281   4.853   8.958   9.892
   41DC     H1' 1282   4.816   8.985   9.793
   41DC      N1 1283   4.998   8.934   9.883
   41DC      C6 1284   5.064   8.833   9.948
   41DC      H6 1285   5.014   8.774  10.023
   41DC      C5 1286   5.195   8.820   9.918
   41DC      H5 1287   5.246   8.741   9.972
   41DC      C4 1288   5.255   8.901   9.818
   41DC      N4 1289   5.368   8.890   9.774
   41DC     H41 1290   5.382   8.953   9.697
   41DC     H42 1291   5.435   8.815   9.787
   41DC      N3 1292   5.194   8.989   9.755
   41DC      C2 1293   5.067   9.017   9.788
   41DC      O2 1294   5.007   9.108   9.732
   41DC     C3' 1295   4.638   8.922   9.966
   41DC     H3' 1296   4.568   8.860  10.021
   41DC     C2' 1297   4.767   8.843   9.934
   41DC    H2'1 1298   4.811   8.798  10.023
   41DC    H2'2 1299   4.745   8.766   9.860
   41DC     O3' 1300   4.586   8.961   9.842
   42DG       P 1301   4.439   9.005   9.824
   42DG     O1P 1302   4.419   9.130   9.897
   42DG     O2P 1303   4.363   8.887   9.853
   42DG     O5' 1304   4.425   9.039   9.666
   42DG     C5' 1305   4.435   9.166   9.611
   42DG    H5'1 1306   4.524   9.216   9.650
   42DG    H5'2 1307   4.349   9.231   9.630
   42DG     C4' 1308   4.456   9.169   9.456
   42DG     H4' 1309   4.445   9.271   9.420
   42DG     O4' 1310   4.589   9.137   9.426
   42DG     C1' 1311   4.599   9.013   9.362
   42DG     H1' 1312   4.638   9.033   9.262
   42DG      N9 1313   4.713   8.939   9.423
   42DG      C8 1314   4.709   8.878   9.544
   42DG      H8 1315   4.620   8.882   9.604
   42DG      N7 1316   4.824   8.814   9.565
   42DG      C5 1317   4.908   8.852   9.457
   42DG      C6 1318   5.043   8.822   9.425
   42DG      O6 1319   5.116   8.747   9.488
   42DG      N1 1320   5.086   8.874   9.303
   42DG      H1 1321   5.181   8.856   9.274
   42DG      C2 1322   5.008   8.944   9.222
   42DG      N2 1323   5.064   8.994   9.113
   42DG     H21 1324   5.163   8.986   9.094
   42DG     H22 1325   5.002   9.042   9.050
   42DG      N3 1326   4.883   8.986   9.249
   42DG      C4 1327   4.835   8.929   9.366
   42DG     C3' 1328   4.364   9.075   9.373
   42DG     H3' 1329   4.272   9.057   9.429
   42DG     C2' 1330   4.459   8.954   9.351
   42DG    H2'1 1331   4.441   8.886   9.435
   42DG    H2'2 1332   4.443   8.908   9.253
   42DG     O3' 1333   4.327   9.138   9.254
   43DC       P 1334   4.236   9.060   9.138
   43DC     O1P 1335   4.192   9.166   9.044
   43DC     O2P 1336   4.137   8.972   9.199
   43DC     O5' 1337   4.344   8.973   9.054
   43DC     C5' 1338   4.460   9.045   8.996
   43DC    H5'1 1339   4.495   9.115   9.072
   43DC    H5'2 1340   4.425   9.105   8.912
   43DC     C4' 1341   4.573   8.952   8.954
   43DC     H4' 1342   4.641   9.018   8.900
   43DC     O4' 1343   4.638   8.891   9.071
   43DC     C1' 1344   4.674   8.765   9.023
   43DC     H1' 1345   4.758   8.781   8.956
   43DC      N1 1346   4.725   8.674   9.133
   43DC      C6 1347   4.642   8.611   9.223
   43DC      H6 1348   4.537   8.637   9.221
   43DC      C5 1349   4.694   8.524   9.308
   43DC      H5 1350   4.638   8.490   9.394
   43DC      C4 1351   4.833   8.495   9.295
   43DC      N4 1352   4.890   8.405   9.368
   43DC     H41 1353   4.985   8.375   9.349
   43DC     H42 1354   4.829   8.345   9.422
   43DC      N3 1355   4.916   8.557   9.215
   43DC      C2 1356   4.860   8.650   9.137
   43DC      O2 1357   4.939   8.704   9.058
   43DC     C3' 1358   4.527   8.832   8.862
   43DC     H3' 1359   4.423   8.838   8.829
   43DC     C2' 1360   4.552   8.713   8.953
   43DC    H2'1 1361   4.466   8.689   9.015
   43DC    H2'2 1362   4.566   8.625   8.890
   43DC     O3' 1363   4.620   8.818   8.756
   44DG       P 1364   4.576   8.846   8.611
   44DG     O1P 1365   4.524   8.981   8.599
   44DG     O2P 1366   4.487   8.735   8.569
   44DG     O5' 1367   4.705   8.836   8.524
   44DG     C5' 1368   4.809   8.936   8.532
   44DG    H5'1 1369   4.820   8.967   8.636
   44DG    H5'2 1370   4.784   9.017   8.463
   44DG     C4' 1371   4.940   8.866   8.482
   44DG     H4' 1372   5.011   8.946   8.460
   44DG     O4' 1373   4.982   8.790   8.593
   44DG     C1' 1374   5.004   8.658   8.550
   44DG     H1' 1375   5.110   8.644   8.531
   44DG      N9 1376   4.957   8.584   8.671
   44DG      C8 1377   4.835   8.582   8.737
   44DG      H8 1378   4.756   8.652   8.711
   44DG      N7 1379   4.828   8.491   8.831
   44DG      C5 1380   4.956   8.434   8.834
   44DG      C6 1381   5.008   8.333   8.921
   44DG      O6 1382   4.961   8.276   9.022
   44DG      N1 1383   5.135   8.293   8.886
   44DG      H1 1384   5.184   8.219   8.933
   44DG      C2 1385   5.210   8.349   8.791
   44DG      N2 1386   5.332   8.318   8.776
   44DG     H21 1387   5.370   8.243   8.833
   44DG     H22 1388   5.394   8.383   8.731
   44DG      N3 1389   5.165   8.445   8.710
   44DG      C4 1390   5.036   8.488   8.737
   44DG     C3' 1391   4.930   8.774   8.367
   44DG     H3' 1392   4.838   8.792   8.310
   44DG     C2' 1393   4.929   8.637   8.421
   44DG    H2'1 1394   4.828   8.605   8.445
   44DG    H2'2 1395   4.971   8.561   8.355
   44DG     O3' 1396   5.047   8.789   8.289
   45DC       P 1397   5.049   8.755   8.133
   45DC     O1P 1398   5.124   8.850   8.057
   45DC     O2P 1399   4.911   8.734   8.083
   45DC     O5' 1400   5.112   8.615   8.119
   45DC     C5' 1401   5.246   8.587   8.164
   45DC    H5'1 1402   5.260   8.643   8.256
   45DC    H5'2 1403   5.330   8.623   8.105
   45DC     C4' 1404   5.260   8.439   8.182
   45DC     H4' 1405   5.369   8.428   8.189
   45DC     O4' 1406   5.184   8.403   8.306
   45DC     C1' 1407   5.148   8.268   8.275
   45DC     H1' 1408   5.236   8.204   8.278
   45DC      N1 1409   5.068   8.218   8.388
   45DC      C6 1410   4.938   8.270   8.403
   45DC      H6 1411   4.901   8.344   8.333
   45DC      C5 1412   4.861   8.240   8.512
   45DC      H5 1413   4.766   8.288   8.531
   45DC      C4 1414   4.925   8.161   8.609
   45DC      N4 1415   4.872   8.135   8.724
   45DC     H41 1416   4.932   8.082   8.786
   45DC     H42 1417   4.777   8.160   8.750
   45DC      N3 1418   5.049   8.110   8.603
   45DC      C2 1419   5.126   8.145   8.492
   45DC      O2 1420   5.239   8.100   8.485
   45DC     C3' 1421   5.203   8.353   8.071
   45DC     H3' 1422   5.182   8.415   7.983
   45DC     C2' 1423   5.083   8.278   8.133
   45DC    H2'1 1424   4.997   8.344   8.141
   45DC    H2'2 1425   5.061   8.182   8.088
   45DC     O3' 1426   5.304   8.263   8.029
   46DA       P 1427   5.332   8.231   7.881
   46DA     O1P 1428   5.430   8.333   7.834
   46DA     O2P 1429   5.205   8.210   7.803
   46DA     O5' 1430   5.396   8.088   7.891
   46DA     C5' 1431   5.538   8.073   7.876
   46DA    H5'1 1432   5.591   8.149   7.935
   46DA    H5'2 1433   5.565   8.084   7.771
   46DA     C4' 1434   5.590   7.936   7.931
   46DA     H4' 1435   5.698   7.944   7.942
   46DA     O4' 1436   5.532   7.910   8.062
   46DA     C1' 1437   5.454   7.800   8.058
   46DA     H1' 1438   5.500   7.714   8.108
   46DA      N9 1439   5.341   7.832   8.138
   46DA      C8 1440   5.245   7.919   8.105
   46DA      H8 1441   5.258   7.998   8.032
   46DA      N7 1442   5.139   7.927   8.182
   46DA      C5 1443   5.170   7.827   8.273
   46DA      C6 1444   5.102   7.780   8.393
   46DA      N6 1445   4.986   7.824   8.437
   46DA     H61 1446   4.944   7.784   8.520
   46DA     H62 1447   4.943   7.905   8.395
   46DA      N1 1448   5.151   7.677   8.462
   46DA      C2 1449   5.273   7.638   8.431
   46DA      H2 1450   5.312   7.569   8.505
   46DA      N3 1451   5.357   7.682   8.331
   46DA      C4 1452   5.289   7.768   8.251
   46DA     C3' 1453   5.545   7.825   7.841
   46DA     H3' 1454   5.522   7.869   7.744
   46DA     C2' 1455   5.420   7.769   7.914
   46DA    H2'1 1456   5.337   7.834   7.886
   46DA    H2'2 1457   5.401   7.662   7.904
   46DA     O3' 1458   5.660   7.739   7.833
   47DT       P 1459   5.648   7.596   7.758
   47DT     O1P 1460   5.786   7.561   7.722
   47DT     O2P 1461   5.542   7.604   7.652
   47DT     O5' 1462   5.602   7.490   7.866
   47DT     C5' 1463   5.684   7.479   7.978
   47DT    H5'1 1464   5.714   7.577   8.015
   47DT    H5'2 1465   5.775   7.424   7.956
   47DT     C4' 1466   5.613   7.405   8.092
   47DT     H4' 1467   5.683   7.386   8.174
   47DT     O4' 1468   5.495   7.469   8.132
   47DT     C1' 1469   5.389   7.369   8.138
   47DT     H1' 1470   5.398   7.322   8.236
   47DT      N1 1471   5.246   7.422   8.118
   47DT      C6 1472   5.213   7.479   7.995
   47DT      H6 1473   5.282   7.472   7.913
   47DT      C5 1474   5.093   7.545   7.976
   47DT      C7 1475   5.047   7.609   7.845
   47DT     H71 1476   5.035   7.717   7.853
   47DT     H72 1477   5.123   7.595   7.767
   47DT     H73 1478   4.948   7.571   7.822
   47DT      C4 1479   5.000   7.554   8.091
   47DT      O4 1480   4.886   7.607   8.089
   47DT      N3 1481   5.047   7.498   8.212
   47DT      H3 1482   4.988   7.496   8.294
   47DT      C2 1483   5.161   7.430   8.226
   47DT      O2 1484   5.191   7.381   8.335
   47DT     C3' 1485   5.571   7.260   8.050
   47DT     H3' 1486   5.607   7.234   7.950
   47DT     C2' 1487   5.424   7.270   8.024
   47DT    H2'1 1488   5.418   7.314   7.924
   47DT    H2'2 1489   5.367   7.178   8.035
   47DT     O3' 1490   5.608   7.165   8.150
   48DA       P 1491   5.612   7.004   8.120
   48DA     O1P 1492   5.729   6.951   8.195
   48DA     O2P 1493   5.599   6.971   7.974
   48DA     O5' 1494   5.484   6.927   8.179
   48DA     C5' 1495   5.481   6.901   8.320
   48DA    H5'1 1496   5.554   6.821   8.328
   48DA    H5'2 1497   5.521   6.992   8.364
   48DA     C4' 1498   5.342   6.859   8.370
   48DA     H4' 1499   5.339   6.842   8.478
   48DA     O4' 1500   5.243   6.961   8.341
   48DA     C1' 1501   5.127   6.901   8.288
   48DA     H1' 1502   5.067   6.860   8.370
   48DA      N9 1503   5.056   6.999   8.200
   48DA      C8 1504   5.096   7.048   8.077
   48DA      H8 1505   5.190   7.021   8.030
   48DA      N7 1506   5.012   7.130   8.021
   48DA      C5 1507   4.910   7.136   8.118
   48DA      C6 1508   4.789   7.198   8.141
   48DA      N6 1509   4.743   7.286   8.054
   48DA     H61 1510   4.660   7.336   8.081
   48DA     H62 1511   4.810   7.317   7.985
   48DA      N1 1512   4.706   7.185   8.243
   48DA      C2 1513   4.740   7.099   8.331
   48DA      H2 1514   4.671   7.091   8.414
   48DA      N3 1515   4.856   7.031   8.329
   48DA      C4 1516   4.931   7.046   8.217
   48DA     C3' 1517   5.294   6.732   8.302
   48DA     H3' 1518   5.373   6.681   8.245
   48DA     C2' 1519   5.179   6.784   8.208
   48DA    H2'1 1520   5.205   6.816   8.107
   48DA    H2'2 1521   5.106   6.703   8.196
   48DA     O3' 1522   5.251   6.646   8.406
   49DA       P 1523   5.238   6.489   8.388
   49DA     O1P 1524   5.262   6.427   8.523
   49DA     O2P 1525   5.323   6.446   8.271
   49DA     O5' 1526   5.075   6.469   8.359
   49DA     C5' 1527   4.974   6.487   8.460
   49DA    H5'1 1528   4.982   6.587   8.502
   49DA    H5'2 1529   4.988   6.410   8.536
   49DA     C4' 1530   4.830   6.477   8.402
   49DA     H4' 1531   4.767   6.457   8.489
   49DA     O4' 1532   4.802   6.605   8.344
   49DA     C1' 1533   4.732   6.577   8.225
   49DA     H1' 1534   4.628   6.558   8.252
   49DA      N9 1535   4.729   6.689   8.129
   49DA      C8 1536   4.836   6.723   8.049
   49DA      H8 1537   4.929   6.668   8.043
   49DA      N7 1538   4.817   6.836   7.982
   49DA      C5 1539   4.680   6.870   8.010
   49DA      C6 1540   4.586   6.962   7.964
   49DA      N6 1541   4.621   7.050   7.873
   49DA     H61 1542   4.554   7.122   7.848
   49DA     H62 1543   4.717   7.037   7.847
   49DA      N1 1544   4.461   6.969   8.018
   49DA      C2 1545   4.429   6.875   8.105
   49DA      H2 1546   4.331   6.882   8.150
   49DA      N3 1547   4.504   6.777   8.145
   49DA      C4 1548   4.634   6.780   8.102
   49DA     C3' 1549   4.815   6.373   8.293
   49DA     H3' 1550   4.907   6.314   8.294
   49DA     C2' 1551   4.796   6.453   8.167
   49DA    H2'1 1552   4.893   6.477   8.122
   49DA    H2'2 1553   4.723   6.413   8.098
   49DA     O3' 1554   4.693   6.304   8.319
   50DC       P 1555   4.636   6.178   8.246
   50DC     O1P 1556   4.579   6.096   8.358
   50DC     O2P 1557   4.723   6.114   8.144
   50DC     O5' 1558   4.507   6.232   8.170
   50DC     C5' 1559   4.401   6.307   8.226
   50DC    H5'1 1560   4.437   6.375   8.303
   50DC    H5'2 1561   4.333   6.238   8.275
   50DC     C4' 1562   4.320   6.375   8.114
   50DC     H4' 1563   4.229   6.418   8.154
   50DC     O4' 1564   4.403   6.470   8.064
   50DC     C1' 1565   4.381   6.470   7.926
   50DC     H1' 1566   4.278   6.505   7.924
   50DC      N1 1567   4.472   6.559   7.849
   50DC      C6 1568   4.593   6.521   7.805
   50DC      H6 1569   4.642   6.435   7.848
   50DC      C5 1570   4.667   6.595   7.716
   50DC      H5 1571   4.769   6.568   7.692
   50DC      C4 1572   4.604   6.718   7.665
   50DC      N4 1573   4.640   6.790   7.568
   50DC     H41 1574   4.571   6.860   7.543
   50DC     H42 1575   4.708   6.755   7.503
   50DC      N3 1576   4.481   6.748   7.700
   50DC      C2 1577   4.414   6.677   7.795
   50DC      O2 1578   4.301   6.718   7.831
   50DC     C3' 1579   4.289   6.283   8.005
   50DC     H3' 1580   4.303   6.178   8.029
   50DC     C2' 1581   4.379   6.322   7.887
   50DC    H2'1 1582   4.476   6.273   7.885
   50DC    H2'2 1583   4.337   6.298   7.789
   50DC     O3' 1584   4.152   6.307   7.964
   51DG       P 1585   4.053   6.186   8.003
   51DG     O1P 1586   4.042   6.183   8.148
   51DG     O2P 1587   4.111   6.064   7.937
   51DG     O5' 1588   3.919   6.222   7.934
   51DG     C5' 1589   3.845   6.337   7.981
   51DG    H5'1 1590   3.900   6.388   8.060
   51DG    H5'2 1591   3.746   6.307   8.013
   51DG     C4' 1592   3.831   6.435   7.870
   51DG     H4' 1593   3.762   6.509   7.909
   51DG     O4' 1594   3.955   6.497   7.830
   51DG     C1' 1595   3.949   6.513   7.682
   51DG     H1' 1596   3.912   6.612   7.657
   51DG      N9 1597   4.089   6.501   7.627
   51DG      C8 1598   4.175   6.394   7.617
   51DG      H8 1599   4.145   6.303   7.667
   51DG      N7 1600   4.282   6.417   7.549
   51DG      C5 1601   4.262   6.544   7.498
   51DG      C6 1602   4.344   6.622   7.407
   51DG      O6 1603   4.458   6.603   7.368
   51DG      N1 1604   4.277   6.736   7.362
   51DG      H1 1605   4.314   6.777   7.277
   51DG      C2 1606   4.160   6.777   7.412
   51DG      N2 1607   4.120   6.889   7.367
   51DG     H21 1608   4.179   6.942   7.305
   51DG     H22 1609   4.027   6.922   7.389
   51DG      N3 1610   4.089   6.715   7.500
   51DG      C4 1611   4.143   6.593   7.540
   51DG     C3' 1612   3.770   6.365   7.747
   51DG     H3' 1613   3.771   6.257   7.767
   51DG     C2' 1614   3.858   6.398   7.631
   51DG    H2'1 1615   3.921   6.311   7.609
   51DG    H2'2 1616   3.805   6.421   7.538
   51DG     O3' 1617   3.637   6.406   7.746
   52DC       P 1618   3.535   6.373   7.625
   52DC     O1P 1619   3.409   6.413   7.675
   52DC     O2P 1620   3.552   6.232   7.590
   52DC     O5' 1621   3.569   6.463   7.504
   52DC     C5' 1622   3.547   6.604   7.504
   52DC    H5'1 1623   3.596   6.649   7.590
   52DC    H5'2 1624   3.439   6.621   7.502
   52DC     C4' 1625   3.584   6.671   7.373
   52DC     H4' 1626   3.562   6.778   7.375
   52DC     O4' 1627   3.725   6.653   7.366
   52DC     C1' 1628   3.753   6.635   7.233
   52DC     H1' 1629   3.757   6.737   7.195
   52DC      N1 1630   3.893   6.579   7.212
   52DC      C6 1631   3.915   6.446   7.241
   52DC      H6 1632   3.833   6.397   7.291
   52DC      C5 1633   4.029   6.381   7.207
   52DC      H5 1634   4.047   6.278   7.234
   52DC      C4 1635   4.123   6.459   7.135
   52DC      N4 1636   4.241   6.416   7.104
   52DC     H41 1637   4.302   6.485   7.065
   52DC     H42 1638   4.268   6.320   7.123
   52DC      N3 1639   4.103   6.586   7.104
   52DC      C2 1640   3.989   6.647   7.143
   52DC      O2 1641   3.977   6.765   7.104
   52DC     C3' 1642   3.509   6.612   7.245
   52DC     H3' 1643   3.451   6.521   7.258
   52DC     C2' 1644   3.631   6.560   7.172
   52DC    H2'1 1645   3.645   6.454   7.191
   52DC    H2'2 1646   3.629   6.569   7.063
   52DC     O3' 1647   3.441   6.715   7.175
   53DA       P 1648   3.412   6.716   7.012
   53DA     O1P 1649   3.311   6.824   6.990
   53DA     O2P 1650   3.380   6.577   6.965
   53DA     O5' 1651   3.547   6.771   6.950
   53DA     C5' 1652   3.586   6.909   6.963
   53DA    H5'1 1653   3.655   6.914   7.047
   53DA    H5'2 1654   3.501   6.974   6.982
   53DA     C4' 1655   3.655   6.969   6.839
   53DA     H4' 1656   3.678   7.074   6.856
   53DA     O4' 1657   3.775   6.904   6.831
   53DA     C1' 1658   3.777   6.829   6.712
   53DA     H1' 1659   3.833   6.884   6.637
   53DA      N9 1660   3.857   6.706   6.744
   53DA      C8 1661   3.820   6.595   6.814
   53DA      H8 1662   3.720   6.584   6.853
   53DA      N7 1663   3.910   6.498   6.817
   53DA      C5 1664   4.018   6.549   6.750
   53DA      C6 1665   4.151   6.509   6.726
   53DA      N6 1666   4.206   6.394   6.768
   53DA     H61 1667   4.305   6.380   6.761
   53DA     H62 1668   4.154   6.334   6.830
   53DA      N1 1669   4.231   6.587   6.655
   53DA      C2 1670   4.179   6.696   6.606
   53DA      H2 1671   4.252   6.747   6.546
   53DA      N3 1672   4.062   6.747   6.621
   53DA      C4 1673   3.985   6.670   6.697
   53DA     C3' 1674   3.584   6.943   6.705
   53DA     H3' 1675   3.475   6.934   6.707
   53DA     C2' 1676   3.636   6.819   6.647
   53DA    H2'1 1677   3.572   6.735   6.676
   53DA    H2'2 1678   3.645   6.819   6.539
   53DA     O3' 1679   3.620   7.059   6.631
   54DT       P 1680   3.594   7.090   6.475
   54DT     O1P 1681   3.581   7.234   6.448
   54DT     O2P 1682   3.480   7.004   6.422
   54DT     O5' 1683   3.728   7.021   6.421
   54DT     C5' 1684   3.845   7.100   6.385
   54DT    H5'1 1685   3.901   7.146   6.466
   54DT    H5'2 1686   3.816   7.193   6.337
   54DT     C4' 1687   3.938   7.031   6.290
   54DT     H4' 1688   4.039   7.072   6.280
   54DT     O4' 1689   3.960   6.904   6.337
   54DT     C1' 1690   3.969   6.817   6.229
   54DT     H1' 1691   4.068   6.832   6.187
   54DT      N1 1692   3.964   6.680   6.284
   54DT      C6 1693   3.846   6.632   6.341
   54DT      H6 1694   3.762   6.700   6.351
   54DT      C5 1695   3.845   6.506   6.392
   54DT      C7 1696   3.729   6.457   6.478
   54DT     H71 1697   3.666   6.394   6.416
   54DT     H72 1698   3.778   6.402   6.558
   54DT     H73 1699   3.667   6.545   6.498
   54DT      C4 1700   3.967   6.426   6.393
   54DT      O4 1701   3.992   6.318   6.445
   54DT      N3 1702   4.079   6.491   6.346
   54DT      H3 1703   4.165   6.438   6.349
   54DT      C2 1704   4.084   6.618   6.298
   54DT      O2 1705   4.194   6.670   6.269
   54DT     C3' 1706   3.874   7.008   6.156
   54DT     H3' 1707   3.774   7.051   6.151
   54DT     C2' 1708   3.856   6.862   6.135
   54DT    H2'1 1709   3.763   6.823   6.176
   54DT    H2'2 1710   3.873   6.833   6.031
   54DT     O3' 1711   3.953   7.053   6.050
   55DA       P 1712   3.907   7.107   5.907
   55DA     O1P 1713   3.923   7.254   5.917
   55DA     O2P 1714   3.773   7.046   5.865
   55DA     O5' 1715   4.022   7.054   5.814
   55DA     C5' 1716   4.144   7.127   5.787
   55DA    H5'1 1717   4.205   7.147   5.875
   55DA    H5'2 1718   4.123   7.220   5.735
   55DA     C4' 1719   4.231   7.040   5.691
   55DA     H4' 1720   4.324   7.092   5.669
   55DA     O4' 1721   4.274   6.922   5.753
   55DA     C1' 1722   4.213   6.806   5.686
   55DA     H1' 1723   4.293   6.743   5.646
   55DA      N9 1724   4.152   6.720   5.791
   55DA      C8 1725   4.025   6.718   5.836
   55DA      H8 1726   3.955   6.797   5.813
   55DA      N7 1727   3.999   6.625   5.918
   55DA      C5 1728   4.116   6.547   5.922
   55DA      C6 1729   4.158   6.423   5.977
   55DA      N6 1730   4.085   6.355   6.061
   55DA     H61 1731   4.122   6.268   6.096
   55DA     H62 1732   4.007   6.404   6.104
   55DA      N1 1733   4.270   6.359   5.941
   55DA      C2 1734   4.346   6.426   5.856
   55DA      H2 1735   4.435   6.381   5.815
   55DA      N3 1736   4.320   6.543   5.796
   55DA      C4 1737   4.206   6.601   5.837
   55DA     C3' 1738   4.163   6.998   5.558
   55DA     H3' 1739   4.077   7.065   5.551
   55DA     C2' 1740   4.119   6.851   5.580
   55DA    H2'1 1741   4.013   6.852   5.606
   55DA    H2'2 1742   4.124   6.793   5.488
   55DA     O3' 1743   4.243   7.021   5.443
   56DC       P 1744   4.188   7.028   5.296
   56DC     O1P 1745   4.290   7.084   5.215
   56DC     O2P 1746   4.052   7.090   5.293
   56DC     O5' 1747   4.174   6.877   5.257
   56DC     C5' 1748   4.288   6.789   5.260
   56DC    H5'1 1749   4.349   6.805   5.349
   56DC    H5'2 1750   4.341   6.811   5.167
   56DC     C4' 1751   4.257   6.641   5.249
   56DC     H4' 1752   4.347   6.591   5.214
   56DC     O4' 1753   4.222   6.592   5.379
   56DC     C1' 1754   4.114   6.508   5.370
   56DC     H1' 1755   4.155   6.413   5.335
   56DC      N1 1756   4.048   6.479   5.500
   56DC      C6 1757   3.942   6.548   5.537
   56DC      H6 1758   3.928   6.648   5.497
   56DC      C5 1759   3.868   6.510   5.638
   56DC      H5 1760   3.783   6.571   5.663
   56DC      C4 1761   3.902   6.389   5.709
   56DC      N4 1762   3.830   6.346   5.811
   56DC     H41 1763   3.863   6.265   5.861
   56DC     H42 1764   3.754   6.403   5.846
   56DC      N3 1765   4.007   6.321   5.674
   56DC      C2 1766   4.077   6.365   5.569
   56DC      O2 1767   4.170   6.295   5.529
   56DC     C3' 1768   4.139   6.609   5.155
   56DC     H3' 1769   4.116   6.689   5.086
   56DC     C2' 1770   4.032   6.572   5.255
   56DC    H2'1 1771   3.996   6.672   5.281
   56DC    H2'2 1772   3.951   6.509   5.218
   56DC     O3' 1773   4.169   6.496   5.078
   57DG       P 1774   4.256   6.491   4.948
   57DG     O1P 1775   4.362   6.603   4.949
   57DG     O2P 1776   4.164   6.483   4.831
   57DG     O5' 1777   4.313   6.344   4.973
   57DG     C5' 1778   4.438   6.326   5.038
   57DG    H5'1 1779   4.445   6.385   5.129
   57DG    H5'2 1780   4.527   6.352   4.980
   57DG     C4' 1781   4.452   6.183   5.081
   57DG     H4' 1782   4.555   6.162   5.109
   57DG     O4' 1783   4.387   6.161   5.209
   57DG     C1' 1784   4.282   6.061   5.177
   57DG     H1' 1785   4.306   5.960   5.212
   57DG      N9 1786   4.150   6.097   5.238
   57DG      C8 1787   4.070   6.201   5.199
   57DG      H8 1788   4.097   6.254   5.109
   57DG      N7 1789   3.958   6.212   5.260
   57DG      C5 1790   3.975   6.111   5.359
   57DG      C6 1791   3.891   6.073   5.467
   57DG      O6 1792   3.794   6.138   5.510
   57DG      N1 1793   3.924   5.960   5.532
   57DG      H1 1794   3.860   5.927   5.603
   57DG      C2 1795   4.035   5.894   5.506
   57DG      N2 1796   4.056   5.780   5.567
   57DG     H21 1797   3.988   5.749   5.634
   57DG     H22 1798   4.144   5.731   5.551
   57DG      N3 1799   4.122   5.920   5.409
   57DG      C4 1800   4.087   6.035   5.336
   57DG     C3' 1801   4.415   6.083   4.972
   57DG     H3' 1802   4.404   6.125   4.873
   57DG     C2' 1803   4.280   6.043   5.024
   57DG    H2'1 1804   4.217   6.124   4.988
   57DG    H2'2 1805   4.234   5.953   4.982
   57DG     O3' 1806   4.502   5.967   4.969
   58DC       P 1807   4.479   5.844   4.875
   58DC     O1P 1808   4.612   5.778   4.851
   58DC     O2P 1809   4.397   5.883   4.761
   58DC     O5' 1810   4.396   5.742   4.963
   58DC     C5' 1811   4.448   5.690   5.081
   58DC    H5'1 1812   4.492   5.772   5.138
   58DC    H5'2 1813   4.519   5.610   5.063
   58DC     C4' 1814   4.331   5.622   5.154
   58DC     H4' 1815   4.379   5.592   5.247
   58DC     O4' 1816   4.236   5.714   5.193
   58DC     C1' 1817   4.112   5.637   5.198
   58DC     H1' 1818   4.098   5.589   5.295
   58DC      N1 1819   4.005   5.729   5.166
   58DC      C6 1820   3.999   5.808   5.054
   58DC      H6 1821   4.076   5.804   4.978
   58DC      C5 1822   3.908   5.909   5.044
   58DC      H5 1823   3.911   5.974   4.957
   58DC      C4 1824   3.811   5.916   5.151
   58DC      N4 1825   3.717   6.001   5.153
   58DC     H41 1826   3.644   5.987   5.222
   58DC     H42 1827   3.689   6.041   5.065
   58DC      N3 1828   3.810   5.838   5.257
   58DC      C2 1829   3.907   5.741   5.261
   58DC      O2 1830   3.892   5.650   5.343
   58DC     C3' 1831   4.276   5.499   5.081
   58DC     H3' 1832   4.314   5.492   4.979
   58DC     C2' 1833   4.123   5.535   5.088
   58DC    H2'1 1834   4.102   5.589   4.996
   58DC    H2'2 1835   4.071   5.442   5.109
   58DC     O3' 1836   4.312   5.381   5.144
   59DA       P 1837   4.291   5.240   5.076
   59DA     O1P 1838   4.370   5.141   5.152
   59DA     O2P 1839   4.316   5.248   4.930
   59DA     O5' 1840   4.130   5.213   5.095
   59DA     C5' 1841   4.084   5.154   5.216
   59DA    H5'1 1842   4.109   5.218   5.300
   59DA    H5'2 1843   4.143   5.064   5.233
   59DA     C4' 1844   3.934   5.123   5.213
   59DA     H4' 1845   3.898   5.069   5.301
   59DA     O4' 1846   3.857   5.247   5.212
   59DA     C1' 1847   3.775   5.238   5.101
   59DA     H1' 1848   3.693   5.181   5.145
   59DA      N9 1849   3.739   5.376   5.063
   59DA      C8 1850   3.804   5.461   4.978
   59DA      H8 1851   3.877   5.432   4.904
   59DA      N7 1852   3.750   5.575   4.969
   59DA      C5 1853   3.643   5.569   5.058
   59DA      C6 1854   3.542   5.654   5.101
   59DA      N6 1855   3.516   5.780   5.054
   59DA     H61 1856   3.427   5.824   5.069
   59DA     H62 1857   3.576   5.829   4.989
   59DA      N1 1858   3.455   5.617   5.199
   59DA      C2 1859   3.463   5.491   5.244
   59DA      H2 1860   3.395   5.469   5.325
   59DA      N3 1861   3.545   5.399   5.211
   59DA      C4 1862   3.637   5.449   5.122
   59DA     C3' 1863   3.901   5.048   5.085
   59DA     H3' 1864   3.984   4.998   5.034
   59DA     C2' 1865   3.852   5.160   4.993
   59DA    H2'1 1866   3.936   5.219   4.955
   59DA    H2'2 1867   3.789   5.112   4.918
   59DA     O3' 1868   3.802   4.954   5.111
   60DC       P 1869   3.811   4.803   5.057
   60DC     O1P 1870   3.897   4.729   5.145
   60DC     O2P 1871   3.857   4.808   4.913
   60DC     O5' 1872   3.669   4.741   5.059
   60DC     C5' 1873   3.608   4.712   5.181
   60DC    H5'1 1874   3.671   4.748   5.262
   60DC    H5'2 1875   3.593   4.604   5.187
   60DC     C4' 1876   3.466   4.774   5.189
   60DC     H4' 1877   3.423   4.769   5.289
   60DC     O4' 1878   3.465   4.915   5.158
   60DC     C1' 1879   3.360   4.935   5.061
   60DC     H1' 1880   3.272   4.955   5.121
   60DC      N1 1881   3.385   5.065   4.982
   60DC      C6 1882   3.493   5.074   4.897
   60DC      H6 1883   3.568   4.996   4.886
   60DC      C5 1884   3.517   5.192   4.830
   60DC      H5 1885   3.601   5.207   4.764
   60DC      C4 1886   3.419   5.293   4.841
   60DC      N4 1887   3.416   5.396   4.761
   60DC     H41 1888   3.343   5.466   4.766
   60DC     H42 1889   3.489   5.405   4.692
   60DC      N3 1890   3.321   5.289   4.933
   60DC      C2 1891   3.300   5.173   4.999
   60DC      O2 1892   3.208   5.168   5.076
   60DC     C3' 1893   3.376   4.703   5.081
   60DC     H3' 1894   3.425   4.620   5.030
   60DC     C2' 1895   3.358   4.812   4.983
   60DC    H2'1 1896   3.443   4.814   4.914
   60DC    H2'2 1897   3.271   4.802   4.918
   60DC     O3' 1898   3.256   4.656   5.140
   61DA       P 1899   3.133   4.600   5.052
   61DA     O1P 1900   3.078   4.495   5.141
   61DA     O2P 1901   3.176   4.560   4.912
   61DA     O5' 1902   3.034   4.726   5.050
   61DA     C5' 1903   2.978   4.780   5.167
   61DA    H5'1 1904   3.050   4.852   5.205
   61DA    H5'2 1905   2.975   4.701   5.242
   61DA     C4' 1906   2.834   4.835   5.161
   61DA     H4' 1907   2.786   4.839   5.259
   61DA     O4' 1908   2.848   4.962   5.102
   61DA     C1' 1909   2.805   4.956   4.968
   61DA     H1' 1910   2.721   5.024   4.983
   61DA      N9 1911   2.918   5.015   4.893
   61DA      C8 1912   3.023   4.944   4.831
   61DA      H8 1913   3.036   4.838   4.847
   61DA      N7 1914   3.095   5.017   4.750
   61DA      C5 1915   3.041   5.145   4.762
   61DA      C6 1916   3.056   5.269   4.694
   61DA      N6 1917   3.146   5.292   4.598
   61DA     H61 1918   3.149   5.380   4.549
   61DA     H62 1919   3.223   5.228   4.587
   61DA      N1 1920   2.967   5.368   4.709
   61DA      C2 1921   2.871   5.355   4.801
   61DA      H2 1922   2.804   5.436   4.822
   61DA      N3 1923   2.843   5.253   4.872
   61DA      C4 1924   2.930   5.146   4.850
   61DA     C3' 1925   2.742   4.754   5.076
   61DA     H3' 1926   2.763   4.647   5.077
   61DA     C2' 1927   2.757   4.814   4.941
   61DA    H2'1 1928   2.838   4.758   4.892
   61DA    H2'2 1929   2.668   4.818   4.878
   61DA     O3' 1930   2.605   4.772   5.120
   62DT       P 1931   2.469   4.717   5.043
   62DT     O1P 1932   2.358   4.702   5.142
   62DT     O2P 1933   2.508   4.600   4.958
   62DT     O5' 1934   2.438   4.840   4.937
   62DT     C5' 1935   2.408   4.966   4.988
   62DT    H5'1 1936   2.494   5.001   5.044
   62DT    H5'2 1937   2.327   4.961   5.060
   62DT     C4' 1938   2.364   5.070   4.881
   62DT     H4' 1939   2.323   5.159   4.928
   62DT     O4' 1940   2.486   5.088   4.816
   62DT     C1' 1941   2.461   5.125   4.684
   62DT     H1' 1942   2.422   5.226   4.675
   62DT      N1 1943   2.589   5.102   4.616
   62DT      C6 1944   2.642   4.973   4.602
   62DT      H6 1945   2.591   4.888   4.646
   62DT      C5 1946   2.750   4.955   4.520
   62DT      C7 1947   2.796   4.809   4.499
   62DT     H71 1948   2.798   4.793   4.391
   62DT     H72 1949   2.891   4.796   4.550
   62DT     H73 1950   2.725   4.743   4.550
   62DT      C4 1951   2.821   5.059   4.457
   62DT      O4 1952   2.924   5.046   4.386
   62DT      N3 1953   2.763   5.184   4.475
   62DT      H3 1954   2.819   5.261   4.441
   62DT      C2 1955   2.652   5.206   4.553
   62DT      O2 1956   2.610   5.327   4.558
   62DT     C3' 1957   2.270   5.033   4.764
   62DT     H3' 1958   2.220   4.938   4.776
   62DT     C2' 1959   2.355   5.031   4.641
   62DT    H2'1 1960   2.390   4.929   4.623
   62DT    H2'2 1961   2.309   5.066   4.548
   62DT     O3' 1962   2.176   5.137   4.752
   63DG       P 1963   2.046   5.119   4.663
   63DG     O1P 1964   1.942   5.200   4.718
   63DG     O2P 1965   2.026   4.980   4.630
   63DG     O5' 1966   2.099   5.203   4.534
   63DG     C5' 1967   2.148   5.339   4.543
   63DG    H5'1 1968   2.222   5.347   4.622
   63DG    H5'2 1969   2.073   5.407   4.582
   63DG     C4' 1970   2.204   5.402   4.416
   63DG     H4' 1971   2.216   5.510   4.424
   63DG     O4' 1972   2.333   5.354   4.401
   63DG     C1' 1973   2.355   5.360   4.257
   63DG     H1' 1974   2.385   5.461   4.231
   63DG      N9 1975   2.448   5.253   4.215
   63DG      C8 1976   2.447   5.118   4.241
   63DG      H8 1977   2.378   5.076   4.313
   63DG      N7 1978   2.561   5.059   4.212
   63DG      C5 1979   2.634   5.151   4.142
   63DG      C6 1980   2.764   5.151   4.076
   63DG      O6 1981   2.853   5.060   4.076
   63DG      N1 1982   2.792   5.262   4.004
   63DG      H1 1983   2.872   5.270   3.944
   63DG      C2 1984   2.717   5.374   4.008
   63DG      N2 1985   2.743   5.472   3.928
   63DG     H21 1986   2.821   5.477   3.864
   63DG     H22 1987   2.690   5.555   3.954
   63DG      N3 1988   2.598   5.384   4.068
   63DG      C4 1989   2.566   5.270   4.136
   63DG     C3' 1990   2.115   5.385   4.289
   63DG     H3' 1991   2.037   5.310   4.304
   63DG     C2' 1992   2.222   5.337   4.191
   63DG    H2'1 1993   2.205   5.234   4.159
   63DG    H2'2 1994   2.230   5.396   4.099
   63DG     O3' 1995   2.070   5.512   4.244
   64DC3      P 1996   1.982   5.534   4.114
   64DC3    O1P 1997   1.910   5.667   4.126
   64DC3    O2P 1998   1.917   5.404   4.089
   64DC3    O5' 1999   2.087   5.559   3.987
   64DC3    C5' 2000   2.166   5.674   3.973
   64DC3   H5'1 2001   2.220   5.700   4.064
   64DC3   H5'2 2002   2.106   5.762   3.949
   64DC3    C4' 2003   2.271   5.651   3.863
   64DC3    H4' 2004   2.337   5.737   3.854
   64DC3    O4' 2005   2.362   5.546   3.891
   64DC3    C1' 2006   2.377   5.465   3.780
   64DC3    H1' 2007   2.450   5.510   3.713
   64DC3     N1 2008   2.406   5.323   3.803
   64DC3     C6 2009   2.318   5.231   3.862
   64DC3     H6 2010   2.225   5.267   3.904
   64DC3     C5 2011   2.353   5.102   3.876
   64DC3     H5 2012   2.284   5.030   3.917
   64DC3     C4 2013   2.483   5.068   3.835
   64DC3     N4 2014   2.529   4.949   3.858
   64DC3    H41 2015   2.607   4.914   3.805
   64DC3    H42 2016   2.474   4.892   3.921
   64DC3     N3 2017   2.565   5.143   3.767
   64DC3     C2 2018   2.534   5.275   3.755
   64DC3     O2 2019   2.610   5.356   3.693
   64DC3    C3' 2020   2.212   5.630   3.726
   64DC3    H3' 2021   2.105   5.647   3.715
   64DC3    C2' 2022   2.242   5.482   3.704
   64DC3   H2'1 2023   2.165   5.417   3.744
   64DC3   H2'2 2024   2.267   5.465   3.599
   64DC3    O3' 2025   2.282   5.704   3.627
   64DC3    H3T 2026   2.225   5.750   3.564
   65SOL     OW 2027  12.485  13.627  14.824
   65SOL    HW1 2028  12.440  13.695  14.873
   65SOL    HW2 2029  12.479  13.549   0.007
   66SOL     OW 2030   6.006  12.956   2.940
   66SOL    HW1 2031   5.991  12.976   3.032
   66SOL    HW2 2032   6.053  12.872   2.941
   67SOL     OW 2033   9.902  11.867  11.171
   67SOL    HW1 2034   9.827  11.921  11.197
   67SOL    HW2 2035   9.868  11.778  11.170
   68SOL     OW 2036   5.606   0.596   9.215
   68SOL    HW1 2037   5.563   0.678   9.240
   68SOL    HW2 2038   5.699   0.613   9.227
   69SOL     OW 2039   1.922   2.254  12.740
   69SOL    HW1 2040   1.993   2.252  12.803
   69SOL    HW2 2041   1.902   2.162  12.722
   70SOL     OW 2042   1.652  13.557   6.851
   70SOL    HW1 2043   1.657  13.629   6.788
   70SOL    HW2 2044   1.559  13.544   6.867
   71SOL     OW 2045   3.119   1.994   4.736
   71SOL    HW1 2046   3.200   1.958   4.773
   71SOL    HW2 2047   3.137   2.002   4.643
   72SOL     OW 2048   8.931   7.499   1.313
   72SOL    HW1 2049   8.879   7.578   1.330
   72SOL    HW2 2050   9.021   7.531   1.308
   73SOL     OW 2051   3.191  12.687   4.075
   73SOL    HW1 2052   3.107  12.726   4.053
   73SOL    HW2 2053   3.254  12.758   4.061
   74SOL     OW 2054   9.636  10.247   2.187
   74SOL    HW1 2055   9.637  10.251   2.091
   74SOL    HW2 2056   9.636  10.339   2.215
   75SOL     OW 2057  10.130   1.243  13.085
   75SOL    HW1 2058  10.166   1.156  13.068
   75SOL    HW2 2059  10.038   1.227  13.108
   76SOL     OW 2060  10.190   5.119   1.456
   76SOL    HW1 2061  10.120   5.162   1.407
   76SOL    HW2 2062  10.257   5.099   1.390
   77SOL     OW 2063   8.087  12.788   4.233
   77SOL    HW1 2064   8.119  12.699   4.214
   77SOL    HW2 2065   8.152  12.846   4.193
   78SOL     OW 2066  11.350   3.733   6.742
   78SOL    HW1 2067  11.438   3.768   6.760
   78SOL    HW2 2068  11.354   3.643   6.772
   79SOL     OW 2069   5.307  14.790   0.600
   79SOL    HW1 2070   5.258  14.816   0.678
   79SOL    HW2 2071   5.343  14.704   0.623
   80SOL     OW 2072   5.623   4.949   0.837
   80SOL    HW1 2073   5.624   5.035   0.879
   80SOL    HW2 2074   5.567   4.896   0.893
   81SOL     OW 2075  14.698   9.409   2.800
   81SOL    HW1 2076  14.728   9.473   2.734
   81SOL    HW2 2077  14.603   9.406   2.789
   82SOL     OW 2078  10.704   8.744   6.828
   82SOL    HW1 2079  10.710   8.831   6.790
   82SOL    HW2 2080  10.674   8.688   6.757
   83SOL     OW 2081   2.610   2.121  12.825
   83SOL    HW1 2082   2.617   2.127  12.920
   83SOL    HW2 2083   2.530   2.167  12.803
   84SOL     OW 2084   3.366   0.215  12.159
   84SOL    HW1 2085   3.348   0.146  12.095
   84SOL    HW2 2086   3.294   0.277  12.148
   85SOL     OW 2087   4.276   4.900  10.082
   85SOL    HW1 2088   4.249   4.839  10.014
   85SOL    HW2 2089   4.257   4.854  10.164
   86SOL     OW 2090  11.799   9.409   0.530
   86SOL    HW1 2091  11.887   9.399   0.568
   86SOL    HW2 2092  11.780   9.324   0.490
   87SOL     OW 2093   2.148   2.695  13.087
   87SOL    HW1 2094   2.118   2.633  13.153
   87SOL    HW2 2095   2.098   2.673  13.009
   88SOL     OW 2096   4.348   8.439  13.929
   88SOL    HW1 2097   4.384   8.382  13.997
   88SOL    HW2 2098   4.356   8.387  13.849
   89SOL     OW 2099  13.249   2.868   2.771
   89SOL    HW1 2100  13.297   2.817   2.837
   89SOL    HW2 2101  13.237   2.954   2.811
   90SOL     OW 2102   6.433   5.666   2.293
   90SOL    HW1 2103   6.449   5.622   2.377
   90SOL    HW2 2104   6.341   5.650   2.275
   91SOL     OW 2105  10.888  10.913   1.382
   91SOL    HW1 2106  10.866  10.981   1.318
   91SOL    HW2 2107  10.818  10.848   1.373
   92SOL     OW 2108  11.999   9.844  12.294
   92SOL    HW1 2109  12.011   9.906  12.365
   92SOL    HW2 2110  11.919   9.872  12.250
   93SOL     OW 2111  10.319  10.736  10.481
   93SOL    HW1 2112  10.341  10.815  10.431
   93SOL    HW2 2113  10.359  10.750  10.566
   94SOL     OW 2114   9.913  14.579   5.554
   94SOL    HW1 2115   9.918  14.527   5.634
   94SOL    HW2 2116   9.973  14.652   5.569
   95SOL     OW 2117   6.172   4.225   8.122
   95SOL    HW1 2118   6.120   4.220   8.042
   95SOL    HW2 2119   6.197   4.135   8.140
   96SOL     OW 2120  14.298  10.192   7.025
   96SOL    HW1 2121  14.271  10.236   7.106
   96SOL    HW2 2122  14.316  10.102   7.051
   97SOL     OW 2123   0.616   2.567   9.986
   97SOL    HW1 2124   0.673   2.633  10.025
   97SOL    HW2 2125   0.665   2.485   9.993
   98SOL     OW 2126   8.248  13.418  10.858
   98SOL    HW1 2127   8.264  13.491  10.798
   98SOL    HW2 2128   8.333  13.403  10.900
   99SOL     OW 2129   1.016   1.776   7.528
   99SOL    HW1 2130   1.035   1.843   7.462
   99SOL    HW2 2131   1.034   1.819   7.612
  100SOL     OW 2132   9.467   0.839   8.862
  100SOL    HW1 2133   9.440   0.774   8.798
  100SOL    HW2 2134   9.498   0.788   8.937
  101SOL     OW 2135   5.522   5.674   8.381
  101SOL    HW1 2136   5.429   5.683   8.400
  101SOL    HW2 2137   5.530   5.697   8.288
  102SOL     OW 2138   6.261  14.406   0.034
  102SOL    HW1 2139   6.202  14.473  14.872
  102SOL    HW2 2140   6.207  14.328   0.040
  103SOL     OW 2141   8.834  12.625  10.810
  103SOL    HW1 2142   8.828  12.535  10.840
  103SOL    HW2 2143   8.853  12.676  10.888
  104SOL     OW 2144   4.213  11.389  10.538
  104SOL    HW1 2145   4.231  11.458  10.474
  104SOL    HW2 2146   4.194  11.436  10.619
  105SOL     OW 2147   7.779  14.665   1.523
  105SOL    HW1 2148   7.719  14.601   1.563
  105SOL    HW2 2149   7.751  14.670   1.432
  106SOL     OW 2150  10.714   7.426   8.690
  106SOL    HW1 2151  10.674   7.404   8.605
  106SOL    HW2 2152  10.640   7.441   8.748
  107SOL     OW 2153   6.468   5.340  14.432
  107SOL    HW1 2154   6.417   5.301  14.502
  107SOL    HW2 2155   6.557   5.345  14.467
  108SOL     OW 2156   2.297   5.409  12.347
  108SOL    HW1 2157   2.212   5.447  12.369
  108SOL    HW2 2158   2.357   5.450  12.409
  109SOL     OW 2159  13.883   8.309   0.248
  109SOL    HW1 2160  13.867   8.272   0.335
  109SOL    HW2 2161  13.964   8.359   0.258
  110SOL     OW 2162  10.131  14.054   3.152
  110SOL    HW1 2163  10.130  14.040   3.057
  110SOL    HW2 2164  10.094  13.974   3.189
  111SOL     OW 2165  11.209  10.118   5.734
  111SOL    HW1 2166  11.258  10.036   5.724
  111SOL    HW2 2167  11.261  10.184   5.689
  112SOL     OW 2168   5.055  12.173  11.779
  112SOL    HW1 2169   5.039  12.267  11.789
  112SOL    HW2 2170   4.971  12.132  11.800
  113SOL     OW 2171  14.245   2.744   2.804
  113SOL    HW1 2172  14.314   2.717   2.744
  113SOL    HW2 2173  14.165   2.708   2.766
  114SOL     OW 2174  14.382   2.891   2.004
  114SOL    HW1 2175  14.476   2.908   2.016
  114SOL    HW2 2176  14.374   2.796   2.005
  115SOL     OW 2177  11.825  14.191   2.878
  115SOL    HW1 2178  11.918  14.175   2.861
  115SOL    HW2 2179  11.820  14.285   2.894
  116SOL     OW 2180  13.590   9.099  10.512
  116SOL    HW1 2181  13.513   9.080  10.459
  116SOL    HW2 2182  13.662   9.104  10.450
  117SOL     OW 2183   6.074   3.607   6.551
  117SOL    HW1 2184   6.156   3.648   6.525
  117SOL    HW2 2185   6.098   3.520   6.581
  118SOL     OW 2186   8.841  12.512   9.528
  118SOL    HW1 2187   8.810  12.481   9.443
  118SOL    HW2 2188   8.859  12.432   9.578
  119SOL     OW 2189  13.282  10.730  14.023
  119SOL    HW1 2190  13.318  10.660  14.076
  119SOL    HW2 2191  13.210  10.766  14.075
  120SOL     OW 2192   5.901   7.115  11.496
  120SOL    HW1 2193   5.821   7.166  11.502
  120SOL    HW2 2194   5.946   7.131  11.579
  121SOL     OW 2195  11.079   3.871   2.159
  121SOL    HW1 2196  11.011   3.816   2.119
  121SOL    HW2 2197  11.043   3.960   2.156
  122SOL     OW 2198  12.949  14.067   6.422
  122SOL    HW1 2199  12.882  14.003   6.399
  122SOL    HW2 2200  13.024  14.043   6.368
  123SOL     OW 2201  11.555  13.539   5.345
  123SOL    HW1 2202  11.650  13.524   5.339
  123SOL    HW2 2203  11.540  13.616   5.290
  124SOL     OW 2204   5.878  10.787   6.518
  124SOL    HW1 2205   5.923  10.810   6.437
  124SOL    HW2 2206   5.809  10.853   6.527
  125SOL     OW 2207   8.737   6.743  11.318
  125SOL    HW1 2208   8.767   6.787  11.238
  125SOL    HW2 2209   8.702   6.659  11.288
  126SOL     OW 2210   3.385  11.471  13.647
  126SOL    HW1 2211   3.385  11.567  13.641
  126SOL    HW2 2212   3.344  11.442  13.565
  127SOL     OW 2213  10.248   8.465   5.217
  127SOL    HW1 2214  10.314   8.440   5.153
  127SOL    HW2 2215  10.272   8.418   5.296
  128SOL     OW 2216  14.822  13.267   0.359
  128SOL    HW1 2217   0.025  13.217   0.328
  128SOL    HW2 2218  14.749  13.236   0.306
  129SOL     OW 2219   2.495   0.001   1.236
  129SOL    HW1 2220   2.500   0.090   1.201
  129SOL    HW2 2221   2.406  14.844   1.216
  130SOL     OW 2222  12.833   0.605   9.980
  130SOL    HW1 2223  12.812   0.512   9.987
  130SOL    HW2 2224  12.862   0.629  10.067
  131SOL     OW 2225  13.284  10.093   8.537
  131SOL    HW1 2226  13.372  10.073   8.571
  131SOL    HW2 2227  13.228  10.090   8.614
  132SOL     OW 2228   5.255   9.103   4.648
  132SOL    HW1 2229   5.332   9.112   4.591
  132SOL    HW2 2230   5.285   9.047   4.720
  133SOL     OW 2231   3.783   8.039   0.400
  133SOL    HW1 2232   3.736   8.091   0.335
  133SOL    HW2 2233   3.724   7.968   0.422
  134SOL     OW 2234   2.637   4.341   2.446
  134SOL    HW1 2235   2.712   4.390   2.479
  134SOL    HW2 2236   2.577   4.408   2.415
  135SOL     OW 2237   7.110   6.834  10.678
  135SOL    HW1 2238   7.172   6.763  10.659
  135SOL    HW2 2239   7.152   6.913  10.644
  136SOL     OW 2240  14.594   4.698  13.617
  136SOL    HW1 2241  14.678   4.660  13.591
  136SOL    HW2 2242  14.597   4.696  13.713
  137SOL     OW 2243  10.281   6.887  12.893
  137SOL    HW1 2244  10.332   6.935  12.958
  137SOL    HW2 2245  10.234   6.821  12.944
  138SOL     OW 2246  13.676   7.008   1.203
  138SOL    HW1 2247  13.751   6.967   1.161
  138SOL    HW2 2248  13.610   7.015   1.134
  139SOL     OW 2249  13.441   1.493   9.357
  139SOL    HW1 2250  13.364   1.476   9.411
  139SOL    HW2 2251  13.505   1.428   9.385
  140SOL     OW 2252   1.678   4.786   4.098
  140SOL    HW1 2253   1.746   4.743   4.150
  140SOL    HW2 2254   1.727   4.839   4.035
  141SOL     OW 2255   1.607  14.341   9.301
  141SOL    HW1 2256   1.691  14.297   9.319
  141SOL    HW2 2257   1.541  14.275   9.323
  142SOL     OW 2258  10.327   0.752   8.824
  142SOL    HW1 2259  10.261   0.763   8.757
  142SOL    HW2 2260  10.401   0.710   8.779
  143SOL     OW 2261  10.685   0.508   0.331
  143SOL    HW1 2262  10.595   0.516   0.300
  143SOL    HW2 2263  10.731   0.581   0.290
  144SOL     OW 2264  14.030   6.566  12.731
  144SOL    HW1 2265  14.014   6.604  12.645
  144SOL    HW2 2266  13.943   6.551  12.767
  145SOL     OW 2267   1.530   2.429  12.825
  145SOL    HW1 2268   1.558   2.428  12.734
  145SOL    HW2 2269   1.480   2.511  12.834
  146SOL     OW 2270  14.073   9.581   9.417
  146SOL    HW1 2271  14.088   9.529   9.496
  146SOL    HW2 2272  14.160   9.615   9.394
  147SOL     OW 2273  11.435   8.074   9.998
  147SOL    HW1 2274  11.433   7.980  10.017
  147SOL    HW2 2275  11.346   8.096   9.972
  148SOL     OW 2276  13.884   8.535   4.326
  148SOL    HW1 2277  13.880   8.585   4.245
  148SOL    HW2 2278  13.920   8.596   4.391
  149SOL     OW 2279   0.014   5.550   2.233
  149SOL    HW1 2280   0.051   5.623   2.283
  149SOL    HW2 2281  14.794   5.571   2.225
  150SOL     OW 2282  14.636  10.319  10.442
  150SOL    HW1 2283  14.720  10.328  10.486
  150SOL    HW2 2284  14.578  10.381  10.487
  151SOL     OW 2285  10.355   0.838  13.515
  151SOL    HW1 2286  10.437   0.836  13.564
  151SOL    HW2 2287  10.369   0.903  13.446
  152SOL     OW 2288   3.312   1.648   5.674
  152SOL    HW1 2289   3.386   1.610   5.723
  152SOL    HW2 2290   3.348   1.666   5.587
  153SOL     OW 2291   7.685   4.624   6.953
  153SOL    HW1 2292   7.636   4.542   6.965
  153SOL    HW2 2293   7.635   4.671   6.886
  154SOL     OW 2294  10.143   7.490   2.356
  154SOL    HW1 2295  10.183   7.567   2.314
  154SOL    HW2 2296  10.050   7.499   2.338
  155SOL     OW 2297   4.203   3.111  13.076
  155SOL    HW1 2298   4.124   3.103  13.129
  155SOL    HW2 2299   4.172   3.152  12.994
  156SOL     OW 2300  13.922  13.782   7.534
  156SOL    HW1 2301  13.910  13.858   7.477
  156SOL    HW2 2302  13.910  13.817   7.622
  157SOL     OW 2303   1.467   9.223   6.871
  157SOL    HW1 2304   1.535   9.264   6.926
  157SOL    HW2 2305   1.432   9.296   6.820
  158SOL     OW 2306  13.729  14.631   5.326
  158SOL    HW1 2307  13.707  14.594   5.411
  158SOL    HW2 2308  13.812  14.678   5.340
  159SOL     OW 2309  12.340   7.268  13.647
  159SOL    HW1 2310  12.349   7.316  13.564
  159SOL    HW2 2311  12.270   7.205  13.630
  160SOL     OW 2312   9.387  13.822   6.680
  160SOL    HW1 2313   9.366  13.780   6.596
  160SOL    HW2 2314   9.305  13.820   6.729
  161SOL     OW 2315   8.464  10.375   4.662
  161SOL    HW1 2316   8.551  10.341   4.681
  161SOL    HW2 2317   8.475  10.424   4.580
  162SOL     OW 2318   3.554   2.206   1.927
  162SOL    HW1 2319   3.530   2.235   2.014
  162SOL    HW2 2320   3.541   2.111   1.929
  163SOL     OW 2321   6.595  14.854   1.194
  163SOL    HW1 2322   6.616  14.761   1.200
  163SOL    HW2 2323   6.537  14.870   1.269
  164SOL     OW 2324   3.032   5.174  10.624
  164SOL    HW1 2325   3.000   5.106  10.564
  164SOL    HW2 2326   3.042   5.252  10.570
  165SOL     OW 2327  13.623  13.765   8.258
  165SOL    HW1 2328  13.631  13.717   8.175
  165SOL    HW2 2329  13.707  13.750   8.302
  166SOL     OW 2330   7.469   4.862   4.244
  166SOL    HW1 2331   7.532   4.870   4.316
  166SOL    HW2 2332   7.521   4.829   4.171
  167SOL     OW 2333   9.898  10.361   6.610
  167SOL    HW1 2334   9.845  10.305   6.553
  167SOL    HW2 2335   9.904  10.444   6.564
  168SOL     OW 2336   5.271  14.518   3.969
  168SOL    HW1 2337   5.236  14.575   3.900
  168SOL    HW2 2338   5.341  14.468   3.925
  169SOL     OW 2339   7.810   7.568  10.736
  169SOL    HW1 2340   7.737   7.623  10.765
  169SOL    HW2 2341   7.811   7.578  10.641
  170SOL     OW 2342  10.137   9.844  11.591
  170SOL    HW1 2343  10.174   9.884  11.670
  170SOL    HW2 2344  10.169   9.900  11.519
  171SOL     OW 2345   5.061  10.859  14.406
  171SOL    HW1 2346   5.099  10.772  14.419
  171SOL    HW2 2347   5.038  10.889  14.494
  172SOL     OW 2348   3.696  12.215   1.170
  172SOL    HW1 2349   3.651  12.135   1.200
  172SOL    HW2 2350   3.689  12.211   1.074
  173SOL     OW 2351   9.325   3.797   7.176
  173SOL    HW1 2352   9.292   3.761   7.258
  173SOL    HW2 2353   9.416   3.769   7.172
  174SOL     OW 2354   2.170  10.784   3.586
  174SOL    HW1 2355   2.263  10.760   3.583
  174SOL    HW2 2356   2.134  10.744   3.507
  175SOL     OW 2357  10.328  10.631  14.556
  175SOL    HW1 2358  10.327  10.697  14.624
  175SOL    HW2 2359  10.406  10.578  14.575
  176SOL     OW 2360   2.294  13.887  12.643
  176SOL    HW1 2361   2.267  13.960  12.698
  176SOL    HW2 2362   2.387  13.902  12.626
  177SOL     OW 2363   1.497   6.178   0.419
  177SOL    HW1 2364   1.567   6.238   0.445
  177SOL    HW2 2365   1.544   6.103   0.381
  178SOL     OW 2366   5.030   5.737   5.334
  178SOL    HW1 2367   4.943   5.760   5.368
  178SOL    HW2 2368   5.021   5.742   5.239
  179SOL     OW 2369   2.163   1.992  14.333
  179SOL    HW1 2370   2.068   2.003  14.329
  179SOL    HW2 2371   2.179   1.944  14.414
  180SOL     OW 2372   5.017   2.987   4.052
  180SOL    HW1 2373   4.962   3.057   4.017
  180SOL    HW2 2374   4.976   2.963   4.135
  181SOL     OW 2375   2.869  10.636  13.499
  181SOL    HW1 2376   2.921  10.706  13.536
  181SOL    HW2 2377   2.840  10.584  13.574
  182SOL     OW 2378   7.748  12.946  13.242
  182SOL    HW1 2379   7.731  12.852  13.233
  182SOL    HW2 2380   7.717  12.968  13.330
  183SOL     OW 2381   3.505  13.771   7.836
  183SOL    HW1 2382   3.545  13.803   7.755
  183SOL    HW2 2383   3.574  13.779   7.902
  184SOL     OW 2384   2.398  10.224   2.816
  184SOL    HW1 2385   2.493  10.230   2.821
  184SOL    HW2 2386   2.368  10.248   2.904
  185SOL     OW 2387  12.518  14.008   8.485
  185SOL    HW1 2388  12.459  14.055   8.427
  185SOL    HW2 2389  12.494  14.038   8.573
  186SOL     OW 2390   0.261   0.647   2.054
  186SOL    HW1 2391   0.340   0.674   2.007
  186SOL    HW2 2392   0.191   0.653   1.990
  187SOL     OW 2393   2.663  13.317   3.587
  187SOL    HW1 2394   2.712  13.330   3.668
  187SOL    HW2 2395   2.726  13.336   3.518
  188SOL     OW 2396   4.576   8.328   2.765
  188SOL    HW1 2397   4.558   8.372   2.682
  188SOL    HW2 2398   4.520   8.373   2.828
  189SOL     OW 2399   6.677   2.278  11.868
  189SOL    HW1 2400   6.608   2.246  11.810
  189SOL    HW2 2401   6.641   2.357  11.908
  190SOL     OW 2402   7.219   9.152   4.429
  190SOL    HW1 2403   7.274   9.229   4.445
  190SOL    HW2 2404   7.276   9.090   4.384
  191SOL     OW 2405  12.927   8.164  13.610
  191SOL    HW1 2406  12.848   8.133  13.565
  191SOL    HW2 2407  12.979   8.085  13.626
  192SOL     OW 2408   2.082   3.071   5.518
  192SOL    HW1 2409   2.145   3.142   5.530
  192SOL    HW2 2410   2.046   3.086   5.430
  193SOL     OW 2411   1.792   9.313   8.076
  193SOL    HW1 2412   1.805   9.246   8.143
  193SOL    HW2 2413   1.698   9.315   8.063
  194SOL     OW 2414   1.606  12.557  13.737
  194SOL    HW1 2415   1.582  12.468  13.711
  194SOL    HW2 2416   1.570  12.613  13.668
  195SOL     OW 2417   1.486  14.398   5.199
  195SOL    HW1 2418   1.513  14.461   5.266
  195SOL    HW2 2419   1.391  14.396   5.205
  196SOL     OW 2420  13.883   7.939   1.071
  196SOL    HW1 2421  13.861   7.858   1.118
  196SOL    HW2 2422  13.799   7.973   1.041
  197SOL     OW 2423   8.053   7.181   0.538
  197SOL    HW1 2424   8.063   7.185   0.633
  197SOL    HW2 2425   7.972   7.228   0.520
  198SOL     OW 2426   3.315  13.819  12.121
  198SOL    HW1 2427   3.228  13.801  12.085
  198SOL    HW2 2428   3.374  13.809  12.047
  199SOL     OW 2429  13.372  13.056   0.236
  199SOL    HW1 2430  13.370  12.962   0.250
  199SOL    HW2 2431  13.340  13.094   0.318
  200SOL     OW 2432   9.655   3.565  14.264
  200SOL    HW1 2433   9.689   3.567  14.175
  200SOL    HW2 2434   9.571   3.610  14.259
  201SOL     OW 2435   8.108  13.724   7.565
  201SOL    HW1 2436   8.109  13.713   7.660
  201SOL    HW2 2437   8.196  13.696   7.537
  202SOL     OW 2438   3.983  13.117  14.833
  202SOL    HW1 2439   3.927  13.179  14.787
  202SOL    HW2 2440   4.063  13.114  14.781
  203SOL     OW 2441  12.818   1.237  14.007
  203SOL    HW1 2442  12.811   1.292  13.929
  203SOL    HW2 2443  12.776   1.288  14.076
  204SOL     OW 2444  11.346   5.309   4.079
  204SOL    HW1 2445  11.327   5.216   4.065
  204SOL    HW2 2446  11.401   5.310   4.158
  205SOL     OW 2447   8.880   7.593   0.836
  205SOL    HW1 2448   8.920   7.521   0.884
  205SOL    HW2 2449   8.949   7.626   0.779
  206SOL     OW 2450  11.890  12.814   3.198
  206SOL    HW1 2451  11.808  12.776   3.227
  206SOL    HW2 2452  11.883  12.907   3.221
  207SOL     OW 2453   8.702   0.894  14.788
  207SOL    HW1 2454   8.627   0.834  14.784
  207SOL    HW2 2455   8.703   0.936  14.702
  208SOL     OW 2456   8.780  14.030  10.253
  208SOL    HW1 2457   8.760  13.938  10.236
  208SOL    HW2 2458   8.698  14.066  10.288
  209SOL     OW 2459  13.580  10.213   8.059
  209SOL    HW1 2460  13.611  10.171   8.139
  209SOL    HW2 2461  13.652  10.271   8.033
  210SOL     OW 2462   6.540   2.949  14.482
  210SOL    HW1 2463   6.636   2.953  14.478
  210SOL    HW2 2464   6.521   2.918  14.571
  211SOL     OW 2465  12.374   2.851   2.762
  211SOL    HW1 2466  12.313   2.922   2.779
  211SOL    HW2 2467  12.348   2.782   2.824
  212SOL     OW 2468   9.809  14.245   8.606
  212SOL    HW1 2469   9.745  14.222   8.538
  212SOL    HW2 2470   9.853  14.323   8.572
  213SOL     OW 2471   0.237  12.620   8.192
  213SOL    HW1 2472   0.233  12.684   8.264
  213SOL    HW2 2473   0.293  12.550   8.225
  214SOL     OW 2474   5.967   1.933   4.418
  214SOL    HW1 2475   5.933   2.023   4.411
  214SOL    HW2 2476   6.054   1.938   4.380
  215SOL     OW 2477  11.660  12.259  12.245
  215SOL    HW1 2478  11.612  12.202  12.306
  215SOL    HW2 2479  11.632  12.348  12.269
  216SOL     OW 2480  12.438   8.372  13.142
  216SOL    HW1 2481  12.466   8.292  13.097
  216SOL    HW2 2482  12.392   8.340  13.220
  217SOL     OW 2483   7.602   5.128   7.247
  217SOL    HW1 2484   7.656   5.176   7.184
  217SOL    HW2 2485   7.558   5.196   7.298
  218SOL     OW 2486   8.276   8.291  10.403
  218SOL    HW1 2487   8.321   8.208  10.386
  218SOL    HW2 2488   8.228   8.276  10.485
  219SOL     OW 2489  12.684   7.016   7.121
  219SOL    HW1 2490  12.606   7.001   7.067
  219SOL    HW2 2491  12.754   6.971   7.074
  220SOL     OW 2492   9.603   0.276   4.534
  220SOL    HW1 2493   9.538   0.234   4.477
  220SOL    HW2 2494   9.614   0.364   4.497
  221SOL     OW 2495   6.680  13.948   7.692
  221SOL    HW1 2496   6.752  13.987   7.642
  221SOL    HW2 2497   6.656  14.016   7.755
  222SOL     OW 2498   0.029  14.796  12.679
  222SOL    HW1 2499   0.011   0.017  12.682
  222SOL    HW2 2500   0.112  14.788  12.632
  223SOL     OW 2501  12.747  12.092  12.728
  223SOL    HW1 2502  12.825  12.053  12.688
  223SOL    HW2 2503  12.738  12.046  12.812
  224SOL     OW 2504   4.959   2.453   5.537
  224SOL    HW1 2505   4.908   2.519   5.583
  224SOL    HW2 2506   4.902   2.424   5.465
  225SOL     OW 2507  13.750   1.470   4.143
  225SOL    HW1 2508  13.702   1.510   4.071
  225SOL    HW2 2509  13.833   1.518   4.147
  226SOL     OW 2510   0.651  12.362   5.657
  226SOL    HW1 2511   0.716  12.343   5.725
  226SOL    HW2 2512   0.567  12.354   5.702
  227SOL     OW 2513   5.303  11.683  11.675
  227SOL    HW1 2514   5.280  11.776  11.669
  227SOL    HW2 2515   5.225  11.638  11.645
  228SOL     OW 2516  11.375   4.665   7.751
  228SOL    HW1 2517  11.348   4.737   7.694
  228SOL    HW2 2518  11.327   4.589   7.718
  229SOL     OW 2519  10.793   0.532   9.439
  229SOL    HW1 2520  10.722   0.476   9.471
  229SOL    HW2 2521  10.767   0.621   9.463
  230SOL     OW 2522  12.098   4.993   2.561
  230SOL    HW1 2523  12.083   4.907   2.522
  230SOL    HW2 2524  12.045   4.993   2.641
  231SOL     OW 2525   8.793  10.513   7.218
  231SOL    HW1 2526   8.783  10.463   7.299
  231SOL    HW2 2527   8.834  10.452   7.157
  232SOL     OW 2528  12.865   7.866   8.527
  232SOL    HW1 2529  12.941   7.924   8.524
  232SOL    HW2 2530  12.826   7.881   8.613
  233SOL     OW 2531   0.879  11.659  10.443
  233SOL    HW1 2532   0.880  11.589  10.378
  233SOL    HW2 2533   0.970  11.663  10.474
  234SOL     OW 2534  11.982   1.732   3.601
  234SOL    HW1 2535  11.914   1.674   3.633
  234SOL    HW2 2536  12.063   1.698   3.640
  235SOL     OW 2537   1.027  10.864   0.686
  235SOL    HW1 2538   1.049  10.944   0.639
  235SOL    HW2 2539   0.931  10.859   0.680
  236SOL     OW 2540  11.183   9.795  11.343
  236SOL    HW1 2541  11.270   9.763  11.368
  236SOL    HW2 2542  11.200   9.853  11.268
  237SOL     OW 2543   4.567   9.792   2.909
  237SOL    HW1 2544   4.558   9.861   2.976
  237SOL    HW2 2545   4.640   9.739   2.939
  238SOL     OW 2546   1.651   7.053   1.618
  238SOL    HW1 2547   1.717   7.114   1.586
  238SOL    HW2 2548   1.661   7.055   1.713
  239SOL     OW 2549   4.845   6.963  14.029
  239SOL    HW1 2550   4.760   6.921  14.034
  239SOL    HW2 2551   4.887   6.945  14.113
  240SOL     OW 2552   4.772  13.151   4.377
  240SOL    HW1 2553   4.692  13.199   4.355
  240SOL    HW2 2554   4.758  13.122   4.467
  241SOL     OW 2555   0.231   4.670   7.344
  241SOL    HW1 2556   0.205   4.610   7.274
  241SOL    HW2 2557   0.270   4.744   7.299
  242SOL     OW 2558   7.385   7.150  11.035
  242SOL    HW1 2559   7.397   7.062  11.070
  242SOL    HW2 2560   7.292   7.156  11.014
  243SOL     OW 2561   2.317  14.197   5.530
  243SOL    HW1 2562   2.356  14.160   5.609
  243SOL    HW2 2563   2.341  14.290   5.532
  244SOL     OW 2564  12.019   6.893   2.929
  244SOL    HW1 2565  12.012   6.972   2.982
  244SOL    HW2 2566  12.081   6.837   2.976
  245SOL     OW 2567  10.999   1.698  10.686
  245SOL    HW1 2568  11.021   1.716  10.778
  245SOL    HW2 2569  11.069   1.740  10.636
  246SOL     OW 2570   7.046   5.235  12.734
  246SOL    HW1 2571   7.048   5.139  12.740
  246SOL    HW2 2572   6.993   5.253  12.656
  247SOL     OW 2573  10.572   8.992   2.207
  247SOL    HW1 2574  10.611   8.905   2.217
  247SOL    HW2 2575  10.504   8.996   2.274
  248SOL     OW 2576   4.944   1.593   4.340
  248SOL    HW1 2577   4.978   1.503   4.345
  248SOL    HW2 2578   4.929   1.608   4.247
  249SOL     OW 2579  11.896   7.023   8.300
  249SOL    HW1 2580  11.974   7.065   8.263
  249SOL    HW2 2581  11.824   7.083   8.279
  250SOL     OW 2582   6.309  14.046   4.709
  250SOL    HW1 2583   6.336  14.115   4.770
  250SOL    HW2 2584   6.302  14.090   4.625
  251SOL     OW 2585   4.077   3.007  13.470
  251SOL    HW1 2586   4.118   2.964  13.395
  251SOL    HW2 2587   4.137   3.077  13.494
  252SOL     OW 2588  13.539  14.775   6.186
  252SOL    HW1 2589  13.461  14.826   6.162
  252SOL    HW2 2590  13.590  14.769   6.106
  253SOL     OW 2591  11.726   1.082   1.885
  253SOL    HW1 2592  11.812   1.040   1.877
  253SOL    HW2 2593  11.701   1.069   1.976
  254SOL     OW 2594  12.484   6.660   2.591
  254SOL    HW1 2595  12.535   6.734   2.623
  254SOL    HW2 2596  12.401   6.699   2.562
  255SOL     OW 2597   6.269  14.605   7.907
  255SOL    HW1 2598   6.359  14.638   7.909
  255SOL    HW2 2599   6.265  14.554   7.826
  256SOL     OW 2600   4.452   2.944   2.559
  256SOL    HW1 2601   4.537   2.953   2.602
  256SOL    HW2 2602   4.441   3.026   2.510
  257SOL     OW 2603   9.657   7.388   2.431
  257SOL    HW1 2604   9.598   7.321   2.465
  257SOL    HW2 2605   9.626   7.404   2.342
  258SOL     OW 2606   4.882  14.697   6.135
  258SOL    HW1 2607   4.937  14.771   6.162
  258SOL    HW2 2608   4.881  14.701   6.039
  259SOL     OW 2609  13.973   0.798  12.751
  259SOL    HW1 2610  13.967   0.885  12.789
  259SOL    HW2 2611  14.026   0.809  12.672
  260SOL     OW 2612   9.060  11.502  10.834
  260SOL    HW1 2613   8.967  11.505  10.857
  260SOL    HW2 2614   9.060  11.473  10.742
  261SOL     OW 2615   7.550   7.711   1.353
  261SOL    HW1 2616   7.564   7.621   1.324
  261SOL    HW2 2617   7.475   7.741   1.302
  262SOL     OW 2618  10.300   6.144   8.117
  262SOL    HW1 2619  10.391   6.136   8.088
  262SOL    HW2 2620  10.284   6.238   8.120
  263SOL     OW 2621  11.500   1.557  12.566
  263SOL    HW1 2622  11.574   1.616  12.550
  263SOL    HW2 2623  11.430   1.614  12.596
  264SOL     OW 2624  13.415   5.556   3.929
  264SOL    HW1 2625  13.374   5.528   4.011
  264SOL    HW2 2626  13.488   5.611   3.957
  265SOL     OW 2627   3.040   5.342  13.696
  265SOL    HW1 2628   3.135   5.349  13.685
  265SOL    HW2 2629   3.005   5.365  13.610
  266SOL     OW 2630   7.688   5.643  14.067
  266SOL    HW1 2631   7.694   5.654  13.972
  266SOL    HW2 2632   7.624   5.573  14.080
  267SOL     OW 2633   0.881   6.403  14.135
  267SOL    HW1 2634   0.922   6.435  14.216
  267SOL    HW2 2635   0.934   6.443  14.065
  268SOL     OW 2636  14.345  14.696  14.295
  268SOL    HW1 2637  14.381  14.639  14.227
  268SOL    HW2 2638  14.320  14.776  14.250
  269SOL     OW 2639   3.060   1.809   5.682
  269SOL    HW1 2640   3.126   1.751   5.644
  269SOL    HW2 2641   3.100   1.841   5.763
  270SOL     OW 2642   5.498   3.650   2.206
  270SOL    HW1 2643   5.442   3.707   2.152
  270SOL    HW2 2644   5.584   3.692   2.204
  271SOL     OW 2645   2.118  11.128   9.725
  271SOL    HW1 2646   2.097  11.174   9.806
  271SOL    HW2 2647   2.174  11.056   9.752
  272SOL     OW 2648  14.654   2.623   8.373
  272SOL    HW1 2649  14.730   2.580   8.335
  272SOL    HW2 2650  14.651   2.709   8.332
  273SOL     OW 2651   7.928  14.808   7.420
  273SOL    HW1 2652   7.957  14.748   7.490
  273SOL    HW2 2653   7.914  14.751   7.345
  274SOL     OW 2654   3.840   6.429  13.567
  274SOL    HW1 2655   3.880   6.477  13.640
  274SOL    HW2 2656   3.909   6.426  13.501
  275SOL     OW 2657   5.599  14.787   0.849
  275SOL    HW1 2658   5.633  14.715   0.903
  275SOL    HW2 2659   5.659  14.791   0.774
  276SOL     OW 2660   3.155   7.099   0.700
  276SOL    HW1 2661   3.235   7.151   0.707
  276SOL    HW2 2662   3.107   7.117   0.781
  277SOL     OW 2663   9.623   8.864   0.786
  277SOL    HW1 2664   9.638   8.959   0.787
  277SOL    HW2 2665   9.541   8.853   0.836
  278SOL     OW 2666   2.282  11.169  12.812
  278SOL    HW1 2667   2.318  11.085  12.840
  278SOL    HW2 2668   2.206  11.146  12.758
  279SOL     OW 2669   1.483  14.484   6.496
  279SOL    HW1 2670   1.523  14.402   6.468
  279SOL    HW2 2671   1.427  14.509   6.423
  280SOL     OW 2672   6.883  12.036   6.876
  280SOL    HW1 2673   6.810  11.979   6.849
  280SOL    HW2 2674   6.948  11.976   6.913
  281SOL     OW 2675  11.051   1.007   8.520
  281SOL    HW1 2676  11.000   0.938   8.479
  281SOL    HW2 2677  10.994   1.040   8.590
  282SOL     OW 2678  13.544  13.013   4.960
  282SOL    HW1 2679  13.564  12.935   5.013
  282SOL    HW2 2680  13.622  13.028   4.908
  283SOL     OW 2681   2.480   2.192   8.012
  283SOL    HW1 2682   2.563   2.237   7.995
  283SOL    HW2 2683   2.436   2.189   7.927
  284SOL     OW 2684   9.694   5.160   5.117
  284SOL    HW1 2685   9.643   5.151   5.198
  284SOL    HW2 2686   9.764   5.221   5.140
  285SOL     OW 2687  13.489  12.259   5.167
  285SOL    HW1 2688  13.427  12.332   5.171
  285SOL    HW2 2689  13.436  12.181   5.179
  286SOL     OW 2690  11.395   0.362   2.315
  286SOL    HW1 2691  11.469   0.387   2.259
  286SOL    HW2 2692  11.424   0.383   2.404
  287SOL     OW 2693   9.307   9.177   7.498
  287SOL    HW1 2694   9.393   9.148   7.469
  287SOL    HW2 2695   9.251   9.099   7.488
  288SOL     OW 2696  11.133  12.454   5.674
  288SOL    HW1 2697  11.096  12.399   5.743
  288SOL    HW2 2698  11.223  12.422   5.664
  289SOL     OW 2699   6.734  10.895   0.478
  289SOL    HW1 2700   6.805  10.959   0.472
  289SOL    HW2 2701   6.745  10.854   0.564
  290SOL     OW 2702   2.326   5.580   2.415
  290SOL    HW1 2703   2.385   5.616   2.349
  290SOL    HW2 2704   2.244   5.565   2.368
  291SOL     OW 2705   2.434   6.647   8.158
  291SOL    HW1 2706   2.465   6.606   8.239
  291SOL    HW2 2707   2.414   6.573   8.100
  292SOL     OW 2708  13.176  13.008  14.112
  292SOL    HW1 2709  13.221  13.050  14.186
  292SOL    HW2 2710  13.177  12.914  14.133
  293SOL     OW 2711   9.450   3.998  12.805
  293SOL    HW1 2712   9.452   4.047  12.722
  293SOL    HW2 2713   9.540   4.004  12.838
  294SOL     OW 2714   5.296  11.512  14.562
  294SOL    HW1 2715   5.235  11.474  14.498
  294SOL    HW2 2716   5.254  11.593  14.591
  295SOL     OW 2717  14.306  13.441   2.813
  295SOL    HW1 2718  14.388  13.481   2.841
  295SOL    HW2 2719  14.315  13.432   2.718
  296SOL     OW 2720  13.340   7.966  10.957
  296SOL    HW1 2721  13.418   7.944  10.906
  296SOL    HW2 2722  13.358   8.054  10.992
  297SOL     OW 2723   5.933  12.722   8.165
  297SOL    HW1 2724   5.874  12.721   8.240
  297SOL    HW2 2725   5.915  12.640   8.119
  298SOL     OW 2726   9.627  14.378   5.926
  298SOL    HW1 2727   9.596  14.426   6.002
  298SOL    HW2 2728   9.659  14.295   5.962
  299SOL     OW 2729   6.369   0.709   1.652
  299SOL    HW1 2730   6.413   0.624   1.656
  299SOL    HW2 2731   6.319   0.705   1.570
  300SOL     OW 2732   2.914   2.250   1.749
  300SOL    HW1 2733   2.859   2.326   1.727
  300SOL    HW2 2734   2.937   2.264   1.841
  301SOL     OW 2735   8.399   4.754   9.194
  301SOL    HW1 2736   8.337   4.720   9.259
  301SOL    HW2 2737   8.439   4.830   9.237
  302SOL     OW 2738   5.187   8.761   4.440
  302SOL    HW1 2739   5.269   8.800   4.410
  302SOL    HW2 2740   5.143   8.830   4.489
  303SOL     OW 2741   9.603   4.570   7.364
  303SOL    HW1 2742   9.563   4.483   7.376
  303SOL    HW2 2743   9.571   4.621   7.438
  304SOL     OW 2744  12.937  13.160  10.202
  304SOL    HW1 2745  12.893  13.178  10.119
  304SOL    HW2 2746  12.963  13.246  10.234
  305SOL     OW 2747   8.359  12.565   5.334
  305SOL    HW1 2748   8.424  12.630   5.306
  305SOL    HW2 2749   8.278  12.616   5.345
  306SOL     OW 2750  11.579   9.663   0.497
  306SOL    HW1 2751  11.531   9.583   0.519
  306SOL    HW2 2752  11.646   9.671   0.565
  307SOL     OW 2753   1.741   6.575   3.532
  307SOL    HW1 2754   1.696   6.659   3.524
  307SOL    HW2 2755   1.831   6.598   3.555
  308SOL     OW 2756   9.749  12.666  14.047
  308SOL    HW1 2757   9.757  12.695  14.137
  308SOL    HW2 2758   9.665  12.620  14.044
  309SOL     OW 2759  13.318   9.121   7.396
  309SOL    HW1 2760  13.268   9.056   7.346
  309SOL    HW2 2761  13.282   9.116   7.484
  310SOL     OW 2762   5.478   4.057   8.813
  310SOL    HW1 2763   5.434   4.118   8.871
  310SOL    HW2 2764   5.412   3.991   8.793
  311SOL     OW 2765   4.799   4.740   4.854
  311SOL    HW1 2766   4.808   4.810   4.919
  311SOL    HW2 2767   4.792   4.786   4.770
  312SOL     OW 2768  10.513   2.744   1.895
  312SOL    HW1 2769  10.442   2.801   1.869
  312SOL    HW2 2770  10.539   2.776   1.982
  313SOL     OW 2771   6.963   0.651   2.557
  313SOL    HW1 2772   7.001   0.714   2.618
  313SOL    HW2 2773   6.945   0.701   2.478
  314SOL     OW 2774   0.135   0.299   9.845
  314SOL    HW1 2775   0.049   0.333   9.820
  314SOL    HW2 2776   0.180   0.374   9.886
  315SOL     OW 2777  11.136  12.355   1.730
  315SOL    HW1 2778  11.083  12.414   1.678
  315SOL    HW2 2779  11.202  12.412   1.771
  316SOL     OW 2780  11.584  13.083  14.210
  316SOL    HW1 2781  11.660  13.049  14.256
  316SOL    HW2 2782  11.603  13.070  14.117
  317SOL     OW 2783   6.986   6.419   7.442
  317SOL    HW1 2784   6.917   6.484   7.455
  317SOL    HW2 2785   7.045   6.432   7.516
  318SOL     OW 2786   3.276   4.558   8.329
  318SOL    HW1 2787   3.246   4.609   8.405
  318SOL    HW2 2788   3.215   4.582   8.259
  319SOL     OW 2789   2.348   8.365  10.767
  319SOL    HW1 2790   2.349   8.460  10.784
  319SOL    HW2 2791   2.376   8.326  10.850
  320SOL     OW 2792   8.854  12.989  13.659
  320SOL    HW1 2793   8.931  12.977  13.716
  320SOL    HW2 2794   8.780  12.987  13.719
  321SOL     OW 2795   1.163  14.642  14.103
  321SOL    HW1 2796   1.156  14.656  14.009
  321SOL    HW2 2797   1.225  14.708  14.133
  322SOL     OW 2798   6.779   2.275   5.838
  322SOL    HW1 2799   6.858   2.281   5.785
  322SOL    HW2 2800   6.710   2.310   5.781
  323SOL     OW 2801  14.560  11.818   9.630
  323SOL    HW1 2802  14.505  11.783   9.560
  323SOL    HW2 2803  14.637  11.853   9.585
  324SOL     OW 2804   4.614   5.125   0.609
  324SOL    HW1 2805   4.535   5.175   0.629
  324SOL    HW2 2806   4.659   5.118   0.693
  325SOL     OW 2807  13.402   4.249  13.559
  325SOL    HW1 2808  13.433   4.165  13.527
  325SOL    HW2 2809  13.480   4.304  13.562
  326SOL     OW 2810  13.679   9.801   6.875
  326SOL    HW1 2811  13.637   9.750   6.806
  326SOL    HW2 2812  13.626   9.880   6.883
  327SOL     OW 2813  11.071  12.117   7.860
  327SOL    HW1 2814  11.142  12.097   7.799
  327SOL    HW2 2815  10.991  12.095   7.812
  328SOL     OW 2816   7.904  13.158   5.990
  328SOL    HW1 2817   7.879  13.141   6.080
  328SOL    HW2 2818   7.821  13.166   5.943
  329SOL     OW 2819  14.821  13.766   8.015
  329SOL    HW1 2820  14.809  13.696   7.951
  329SOL    HW2 2821  14.732  13.792   8.038
  330SOL     OW 2822  12.506  11.199   7.393
  330SOL    HW1 2823  12.470  11.282   7.424
  330SOL    HW2 2824  12.432  11.156   7.348
  331SOL     OW 2825   3.663   4.505   9.807
  331SOL    HW1 2826   3.703   4.588   9.833
  331SOL    HW2 2827   3.571   4.526   9.792
  332SOL     OW 2828  14.006   3.765  13.402
  332SOL    HW1 2829  14.009   3.707  13.477
  332SOL    HW2 2830  14.056   3.720  13.334
  333SOL     OW 2831   1.677  14.786  13.044
  333SOL    HW1 2832   1.650  14.791  12.952
  333SOL    HW2 2833   1.690   0.004  13.071
  334SOL     OW 2834   1.992   9.450   8.382
  334SOL    HW1 2835   1.902   9.466   8.356
  334SOL    HW2 2836   1.985   9.396   8.460
  335SOL     OW 2837   8.957   1.909  13.658
  335SOL    HW1 2838   8.965   2.000  13.688
  335SOL    HW2 2839   8.914   1.864  13.731
  336SOL     OW 2840   0.188   4.097   4.303
  336SOL    HW1 2841   0.261   4.070   4.359
  336SOL    HW2 2842   0.217   4.078   4.214
  337SOL     OW 2843   1.923   6.760   9.983
  337SOL    HW1 2844   1.862   6.792   9.916
  337SOL    HW2 2845   1.867   6.716  10.046
  338SOL     OW 2846   7.965  13.491   5.773
  338SOL    HW1 2847   8.039  13.532   5.818
  338SOL    HW2 2848   7.908  13.460   5.844
  339SOL     OW 2849   5.326  11.408  13.196
  339SOL    HW1 2850   5.321  11.499  13.226
  339SOL    HW2 2851   5.393  11.369  13.252
  340SOL     OW 2852  13.367  12.406   2.833
  340SOL    HW1 2853  13.395  12.335   2.891
  340SOL    HW2 2854  13.443  12.464   2.828
  341SOL     OW 2855   8.033   8.084   3.475
  341SOL    HW1 2856   8.068   8.000   3.505
  341SOL    HW2 2857   8.012   8.132   3.555
  342SOL     OW 2858   2.011   0.008  10.485
  342SOL    HW1 2859   1.955  14.831  10.425
  342SOL    HW2 2860   2.094   0.017  10.439
  343SOL     OW 2861   9.084  10.394   3.841
  343SOL    HW1 2862   9.103  10.411   3.749
  343SOL    HW2 2863   9.138  10.456   3.890
  344SOL     OW 2864   7.545   1.034  10.082
  344SOL    HW1 2865   7.616   1.079  10.129
  344SOL    HW2 2866   7.517   0.965  10.142
  345SOL     OW 2867  11.152   8.413   9.199
  345SOL    HW1 2868  11.235   8.447   9.167
  345SOL    HW2 2869  11.111   8.487   9.244
  346SOL     OW 2870   8.007  12.969   7.406
  346SOL    HW1 2871   7.945  13.010   7.346
  346SOL    HW2 2872   8.086  12.955   7.353
  347SOL     OW 2873  10.803   3.983   0.271
  347SOL    HW1 2874  10.874   4.026   0.223
  347SOL    HW2 2875  10.725   4.034   0.247
  348SOL     OW 2876   6.300   5.789  11.207
  348SOL    HW1 2877   6.288   5.840  11.127
  348SOL    HW2 2878   6.371   5.728  11.185
  349SOL     OW 2879  13.517   8.394  11.253
  349SOL    HW1 2880  13.599   8.368  11.295
  349SOL    HW2 2881  13.472   8.447  11.318
  350SOL     OW 2882  10.959   1.861  13.174
  350SOL    HW1 2883  10.867   1.837  13.177
  350SOL    HW2 2884  11.002   1.788  13.131
  351SOL     OW 2885   2.917  11.584   5.400
  351SOL    HW1 2886   2.871  11.501   5.414
  351SOL    HW2 2887   3.007  11.567   5.430
  352SOL     OW 2888   4.413   8.769  11.795
  352SOL    HW1 2889   4.404   8.719  11.714
  352SOL    HW2 2890   4.459   8.710  11.855
  353SOL     OW 2891   3.961  10.646  13.399
  353SOL    HW1 2892   3.882  10.611  13.358
  353SOL    HW2 2893   4.024  10.656  13.327
  354SOL     OW 2894   9.519   0.890   1.782
  354SOL    HW1 2895   9.464   0.871   1.857
  354SOL    HW2 2896   9.597   0.836   1.795
  355SOL     OW 2897   9.086  10.320   0.347
  355SOL    HW1 2898   9.134  10.305   0.266
  355SOL    HW2 2899   9.029  10.244   0.355
  356SOL     OW 2900   5.206  13.806   8.020
  356SOL    HW1 2901   5.289  13.829   8.062
  356SOL    HW2 2902   5.232  13.771   7.934
  357SOL     OW 2903  14.144   4.109   9.037
  357SOL    HW1 2904  14.059   4.112   8.993
  357SOL    HW2 2905  14.202   4.160   8.980
  358SOL     OW 2906   6.227  10.679  13.911
  358SOL    HW1 2907   6.146  10.727  13.930
  358SOL    HW2 2908   6.203  10.587  13.922
  359SOL     OW 2909   7.677   9.578  13.094
  359SOL    HW1 2910   7.617   9.545  13.028
  359SOL    HW2 2911   7.656   9.671  13.101
  360SOL     OW 2912   8.454  11.549  10.321
  360SOL    HW1 2913   8.410  11.523  10.240
  360SOL    HW2 2914   8.386  11.594  10.371
  361SOL     OW 2915   9.630   3.856  13.421
  361SOL    HW1 2916   9.698   3.923  13.431
  361SOL    HW2 2917   9.591   3.848  13.509
  362SOL     OW 2918   3.256   2.195   8.802
  362SOL    HW1 2919   3.306   2.124   8.762
  362SOL    HW2 2920   3.280   2.273   8.752
  363SOL     OW 2921  12.782   7.354   5.748
  363SOL    HW1 2922  12.764   7.288   5.815
  363SOL    HW2 2923  12.802   7.303   5.669
  364SOL     OW 2924   0.699   5.762  10.108
  364SOL    HW1 2925   0.770   5.821  10.081
  364SOL    HW2 2926   0.679   5.710  10.030
  365SOL     OW 2927  14.837   9.507  11.967
  365SOL    HW1 2928  14.789   9.533  12.046
  365SOL    HW2 2929  14.782   9.537  11.895
  366SOL     OW 2930  14.458   3.572  12.881
  366SOL    HW1 2931  14.382   3.624  12.856
  366SOL    HW2 2932  14.423   3.505  12.940
  367SOL     OW 2933  14.776   6.066  14.319
  367SOL    HW1 2934  14.689   6.025  14.310
  367SOL    HW2 2935  14.818   6.051  14.235
  368SOL     OW 2936   2.020   1.329  11.337
  368SOL    HW1 2937   2.094   1.274  11.364
  368SOL    HW2 2938   1.993   1.293  11.253
  369SOL     OW 2939   4.938   1.725  12.937
  369SOL    HW1 2940   4.879   1.674  12.992
  369SOL    HW2 2941   4.940   1.678  12.854
  370SOL     OW 2942  13.849   1.213   4.151
  370SOL    HW1 2943  13.823   1.303   4.133
  370SOL    HW2 2944  13.849   1.206   4.246
  371SOL     OW 2945   6.587   3.450  12.767
  371SOL    HW1 2946   6.624   3.443  12.855
  371SOL    HW2 2947   6.652   3.410  12.710
  372SOL     OW 2948  13.473   3.499   2.242
  372SOL    HW1 2949  13.432   3.530   2.323
  372SOL    HW2 2950  13.542   3.439   2.272
  373SOL     OW 2951   1.931  10.028   8.806
  373SOL    HW1 2952   1.900   9.951   8.760
  373SOL    HW2 2953   1.892  10.102   8.759
  374SOL     OW 2954  11.463   3.623   2.149
  374SOL    HW1 2955  11.494   3.705   2.188
  374SOL    HW2 2956  11.397   3.650   2.085
  375SOL     OW 2957   7.155   7.520   0.515
  375SOL    HW1 2958   7.080   7.573   0.489
  375SOL    HW2 2959   7.202   7.575   0.578
  376SOL     OW 2960   9.145   2.514  12.408
  376SOL    HW1 2961   9.120   2.605  12.421
  376SOL    HW2 2962   9.160   2.505  12.314
  377SOL     OW 2963   2.807  12.761  13.137
  377SOL    HW1 2964   2.799  12.672  13.104
  377SOL    HW2 2965   2.901  12.777  13.139
  378SOL     OW 2966   1.416  13.515  13.185
  378SOL    HW1 2967   1.495  13.563  13.207
  378SOL    HW2 2968   1.349  13.582  13.174
  379SOL     OW 2969  13.744  12.323   9.141
  379SOL    HW1 2970  13.680  12.272   9.191
  379SOL    HW2 2971  13.778  12.262   9.076
  380SOL     OW 2972   0.601   1.537   6.123
  380SOL    HW1 2973   0.625   1.450   6.154
  380SOL    HW2 2974   0.531   1.522   6.060
  381SOL     OW 2975   5.485   7.604   9.863
  381SOL    HW1 2976   5.490   7.512   9.888
  381SOL    HW2 2977   5.573   7.626   9.834
  382SOL     OW 2978   2.428  12.707  14.796
  382SOL    HW1 2979   2.520  12.686  14.780
  382SOL    HW2 2980   2.401  12.757  14.719
  383SOL     OW 2981  12.435   3.377  13.963
  383SOL    HW1 2982  12.423   3.317  13.889
  383SOL    HW2 2983  12.369   3.350  14.027
  384SOL     OW 2984  12.244  13.537   9.433
  384SOL    HW1 2985  12.303  13.577   9.369
  384SOL    HW2 2986  12.168  13.509   9.382
  385SOL     OW 2987  11.589  14.738   3.859
  385SOL    HW1 2988  11.625  14.791   3.789
  385SOL    HW2 2989  11.592  14.794   3.937
  386SOL     OW 2990   0.476  11.675   6.136
  386SOL    HW1 2991   0.417  11.624   6.080
  386SOL    HW2 2992   0.421  11.745   6.172
  387SOL     OW 2993   8.163   9.503   9.495
  387SOL    HW1 2994   8.098   9.504   9.424
  387SOL    HW2 2995   8.213   9.584   9.482
  388SOL     OW 2996   8.326  13.691   0.631
  388SOL    HW1 2997   8.287  13.623   0.576
  388SOL    HW2 2998   8.251  13.736   0.671
  389SOL     OW 2999   3.427   8.779   7.463
  389SOL    HW1 3000   3.405   8.852   7.404
  389SOL    HW2 3001   3.343   8.757   7.505
  390SOL     OW 3002   4.944   7.228   2.464
  390SOL    HW1 3003   5.021   7.277   2.435
  390SOL    HW2 3004   4.872   7.291   2.456
  391SOL     OW 3005  14.708  10.915   6.703
  391SOL    HW1 3006  14.794  10.907   6.662
  391SOL    HW2 3007  14.669  10.828   6.694
  392SOL     OW 3008   1.270   0.807   1.488
  392SOL    HW1 3009   1.233   0.850   1.411
  392SOL    HW2 3010   1.262   0.872   1.558
  393SOL     OW 3011   6.849  14.412  10.665
  393SOL    HW1 3012   6.766  14.447  10.631
  393SOL    HW2 3013   6.892  14.488  10.705
  394SOL     OW 3014   5.419  10.052  14.109
  394SOL    HW1 3015   5.443  10.142  14.084
  394SOL    HW2 3016   5.355  10.064  14.179
  395SOL     OW 3017  11.293   8.598   2.150
  395SOL    HW1 3018  11.242   8.534   2.101
  395SOL    HW2 3019  11.228   8.660   2.183
  396SOL     OW 3020   4.730   0.421   7.757
  396SOL    HW1 3021   4.734   0.477   7.835
  396SOL    HW2 3022   4.736   0.332   7.791
  397SOL     OW 3023  14.353  11.920  12.520
  397SOL    HW1 3024  14.341  11.968  12.602
  397SOL    HW2 3025  14.398  11.840  12.546
  398SOL     OW 3026   5.744   0.854   3.971
  398SOL    HW1 3027   5.715   0.828   3.884
  398SOL    HW2 3028   5.822   0.908   3.955
  399SOL     OW 3029  10.414   8.369   4.900
  399SOL    HW1 3030  10.341   8.313   4.926
  399SOL    HW2 3031  10.391   8.456   4.931
  400SOL     OW 3032   2.389   9.904  13.068
  400SOL    HW1 3033   2.313   9.936  13.116
  400SOL    HW2 3034   2.364   9.816  13.039
  401SOL     OW 3035   5.529   1.482   0.533
  401SOL    HW1 3036   5.470   1.486   0.608
  401SOL    HW2 3037   5.500   1.404   0.485
  402SOL     OW 3038   0.087   1.027   8.726
  402SOL    HW1 3039   0.045   1.101   8.769
  402SOL    HW2 3040   0.054   1.030   8.636
  403SOL     OW 3041   1.729  14.163   0.162
  403SOL    HW1 3042   1.682  14.173   0.079
  403SOL    HW2 3043   1.817  14.197   0.144
  404SOL     OW 3044   9.703   4.781   4.206
  404SOL    HW1 3045   9.632   4.842   4.224
  404SOL    HW2 3046   9.714   4.732   4.288
  405SOL     OW 3047   8.617   3.650  12.050
  405SOL    HW1 3048   8.639   3.635  12.142
  405SOL    HW2 3049   8.660   3.578  12.003
  406SOL     OW 3050   2.176  10.809   9.059
  406SOL    HW1 3051   2.162  10.903   9.069
  406SOL    HW2 3052   2.271  10.799   9.065
  407SOL     OW 3053   2.298  11.698   3.924
  407SOL    HW1 3054   2.330  11.783   3.957
  407SOL    HW2 3055   2.215  11.685   3.969
  408SOL     OW 3056   2.332   2.080  10.320
  408SOL    HW1 3057   2.370   2.140  10.384
  408SOL    HW2 3058   2.248   2.119  10.298
  409SOL     OW 3059   5.644   4.241  10.551
  409SOL    HW1 3060   5.618   4.233  10.460
  409SOL    HW2 3061   5.636   4.335  10.570
  410SOL     OW 3062   8.453  13.576   1.668
  410SOL    HW1 3063   8.427  13.613   1.583
  410SOL    HW2 3064   8.464  13.483   1.652
  411SOL     OW 3065   3.923   8.041   8.547
  411SOL    HW1 3066   3.957   8.120   8.590
  411SOL    HW2 3067   3.865   8.073   8.478
  412SOL     OW 3068   4.231   1.319   9.872
  412SOL    HW1 3069   4.291   1.353   9.806
  412SOL    HW2 3070   4.238   1.380   9.945
  413SOL     OW 3071   5.336   0.893  13.474
  413SOL    HW1 3072   5.345   0.798  13.484
  413SOL    HW2 3073   5.286   0.921  13.551
  414SOL     OW 3074  13.889   2.225   8.174
  414SOL    HW1 3075  13.812   2.252   8.223
  414SOL    HW2 3076  13.895   2.131   8.189
  415SOL     OW 3077   0.720   4.781   8.821
  415SOL    HW1 3078   0.724   4.875   8.800
  415SOL    HW2 3079   0.811   4.751   8.811
  416SOL     OW 3080   2.092   7.618   3.548
  416SOL    HW1 3081   2.060   7.647   3.633
  416SOL    HW2 3082   2.074   7.524   3.547
  417SOL     OW 3083   8.131   1.659   5.098
  417SOL    HW1 3084   8.164   1.573   5.123
  417SOL    HW2 3085   8.137   1.711   5.177
  418SOL     OW 3086   3.682  10.362   0.892
  418SOL    HW1 3087   3.683  10.272   0.860
  418SOL    HW2 3088   3.640  10.357   0.977
  419SOL     OW 3089  14.734  11.497   4.160
  419SOL    HW1 3090  14.801  11.458   4.215
  419SOL    HW2 3091  14.682  11.423   4.128
  420SOL     OW 3092   8.463   9.090   6.115
  420SOL    HW1 3093   8.433   9.004   6.145
  420SOL    HW2 3094   8.519   9.071   6.040
  421SOL     OW 3095   1.571   0.379   3.066
  421SOL    HW1 3096   1.648   0.324   3.085
  421SOL    HW2 3097   1.605   0.468   3.066
  422SOL     OW 3098  10.093   1.448  11.293
  422SOL    HW1 3099  10.011   1.398  11.290
  422SOL    HW2 3100  10.130   1.439  11.206
  423SOL     OW 3101   9.274   4.383   4.973
  423SOL    HW1 3102   9.214   4.312   4.995
  423SOL    HW2 3103   9.338   4.382   5.044
  424SOL     OW 3104   1.033   0.743   0.678
  424SOL    HW1 3105   1.070   0.759   0.591
  424SOL    HW2 3106   1.014   0.649   0.679
  425SOL     OW 3107   8.004   6.799   5.362
  425SOL    HW1 3108   8.023   6.736   5.293
  425SOL    HW2 3109   8.089   6.830   5.392
  426SOL     OW 3110   7.231   7.823   1.881
  426SOL    HW1 3111   7.207   7.830   1.973
  426SOL    HW2 3112   7.326   7.835   1.880
  427SOL     OW 3113   9.771   8.709   8.466
  427SOL    HW1 3114   9.845   8.650   8.482
  427SOL    HW2 3115   9.801   8.766   8.395
  428SOL     OW 3116   1.840   6.759   6.950
  428SOL    HW1 3117   1.755   6.738   6.989
  428SOL    HW2 3118   1.843   6.854   6.948
  429SOL     OW 3119   1.507   3.988   0.925
  429SOL    HW1 3120   1.561   3.916   0.893
  429SOL    HW2 3121   1.426   3.946   0.955
  430SOL     OW 3122   6.939   2.596  11.646
  430SOL    HW1 3123   6.930   2.690  11.630
  430SOL    HW2 3124   7.028   2.586  11.681
  431SOL     OW 3125  10.169   3.781  12.704
  431SOL    HW1 3126  10.138   3.844  12.768
  431SOL    HW2 3127  10.236   3.731  12.750
  432SOL     OW 3128   7.004  13.531   1.999
  432SOL    HW1 3129   6.986  13.561   2.088
  432SOL    HW2 3130   7.029  13.610   1.951
  433SOL     OW 3131   2.238   3.125  14.347
  433SOL    HW1 3132   2.186   3.073  14.407
  433SOL    HW2 3133   2.224   3.216  14.375
  434SOL     OW 3134   6.999  11.492   3.914
  434SOL    HW1 3135   7.008  11.506   3.819
  434SOL    HW2 3136   6.935  11.422   3.922
  435SOL     OW 3137  14.726  12.647   0.022
  435SOL    HW1 3138  14.645  12.598   0.010
  435SOL    HW2 3139  14.740  12.692  14.812
  436SOL     OW 3140   3.073   7.494   0.432
  436SOL    HW1 3141   3.113   7.505   0.345
  436SOL    HW2 3142   3.140   7.450   0.484
  437SOL     OW 3143   0.319   1.122   3.241
  437SOL    HW1 3144   0.309   1.216   3.257
  437SOL    HW2 3145   0.229   1.089   3.239
  438SOL     OW 3146  14.310   7.449   6.674
  438SOL    HW1 3147  14.218   7.434   6.652
  438SOL    HW2 3148  14.347   7.489   6.596
  439SOL     OW 3149   7.716   7.687  13.525
  439SOL    HW1 3150   7.789   7.649  13.476
  439SOL    HW2 3151   7.639   7.671  13.469
  440SOL     OW 3152  10.538  10.069  14.549
  440SOL    HW1 3153  10.572  10.075  14.638
  440SOL    HW2 3154  10.606  10.108  14.495
  441SOL     OW 3155  12.912   5.919   6.508
  441SOL    HW1 3156  12.917   5.879   6.595
  441SOL    HW2 3157  12.819   5.929   6.490
  442SOL     OW 3158   1.941   6.279  11.383
  442SOL    HW1 3159   1.935   6.187  11.358
  442SOL    HW2 3160   1.877   6.290  11.454
  443SOL     OW 3161   9.525   3.644   7.956
  443SOL    HW1 3162   9.565   3.705   7.893
  443SOL    HW2 3163   9.452   3.694   7.992
  444SOL     OW 3164  11.601   7.389   3.385
  444SOL    HW1 3165  11.667   7.458   3.387
  444SOL    HW2 3166  11.599   7.361   3.293
  445SOL     OW 3167   3.248  14.176   3.410
  445SOL    HW1 3168   3.256  14.127   3.328
  445SOL    HW2 3169   3.159  14.211   3.409
  446SOL     OW 3170   7.625  11.603  14.174
  446SOL    HW1 3171   7.689  11.569  14.237
  446SOL    HW2 3172   7.642  11.554  14.094
  447SOL     OW 3173   9.189   4.344   2.731
  447SOL    HW1 3174   9.210   4.323   2.640
  447SOL    HW2 3175   9.095   4.326   2.739
  448SOL     OW 3176   8.870   5.505   0.730
  448SOL    HW1 3177   8.790   5.474   0.689
  448SOL    HW2 3178   8.872   5.461   0.815
  449SOL     OW 3179  12.007   6.719   6.046
  449SOL    HW1 3180  12.057   6.800   6.046
  449SOL    HW2 3181  12.016   6.685   5.957
  450SOL     OW 3182  12.910   7.603   5.778
  450SOL    HW1 3183  12.860   7.623   5.699
  450SOL    HW2 3184  12.900   7.509   5.789
  451SOL     OW 3185   2.669   2.446  10.779
  451SOL    HW1 3186   2.737   2.389  10.742
  451SOL    HW2 3187   2.626   2.393  10.846
  452SOL     OW 3188  11.718  12.110   5.405
  452SOL    HW1 3189  11.662  12.165   5.459
  452SOL    HW2 3190  11.788  12.168   5.375
  453SOL     OW 3191   8.920   1.860  12.485
  453SOL    HW1 3192   8.889   1.873  12.575
  453SOL    HW2 3193   8.968   1.940  12.465
  454SOL     OW 3194   7.420   0.765  14.107
  454SOL    HW1 3195   7.505   0.789  14.145
  454SOL    HW2 3196   7.427   0.672  14.088
  455SOL     OW 3197   5.835   5.222  14.188
  455SOL    HW1 3198   5.870   5.296  14.238
  455SOL    HW2 3199   5.757   5.258  14.144
  456SOL     OW 3200   3.474   7.768   8.421
  456SOL    HW1 3201   3.527   7.842   8.391
  456SOL    HW2 3202   3.536   7.697   8.435
  457SOL     OW 3203   9.307   3.599   4.684
  457SOL    HW1 3204   9.347   3.523   4.727
  457SOL    HW2 3205   9.221   3.567   4.657
  458SOL     OW 3206   2.674   8.683  11.223
  458SOL    HW1 3207   2.679   8.588  11.212
  458SOL    HW2 3208   2.725   8.718  11.150
  459SOL     OW 3209   7.153   6.300  11.957
  459SOL    HW1 3210   7.088   6.291  11.887
  459SOL    HW2 3211   7.102   6.294  12.037
  460SOL     OW 3212   7.426   8.364   1.465
  460SOL    HW1 3213   7.447   8.438   1.408
  460SOL    HW2 3214   7.330   8.360   1.467
  461SOL     OW 3215   5.046   5.050   3.978
  461SOL    HW1 3216   4.952   5.071   3.982
  461SOL    HW2 3217   5.077   5.062   4.068
  462SOL     OW 3218   1.206   1.930   2.384
  462SOL    HW1 3219   1.201   1.892   2.472
  462SOL    HW2 3220   1.280   1.990   2.388
  463SOL     OW 3221   8.329   3.836   9.179
  463SOL    HW1 3222   8.279   3.798   9.107
  463SOL    HW2 3223   8.267   3.839   9.252
  464SOL     OW 3224  11.432  14.257  13.593
  464SOL    HW1 3225  11.504  14.224  13.648
  464SOL    HW2 3226  11.403  14.337  13.638
  465SOL     OW 3227  14.250  10.884  11.582
  465SOL    HW1 3228  14.223  10.809  11.635
  465SOL    HW2 3229  14.344  10.893  11.598
  466SOL     OW 3230   9.758  12.971   3.816
  466SOL    HW1 3231   9.778  12.889   3.861
  466SOL    HW2 3232   9.680  12.951   3.764
  467SOL     OW 3233   9.603   1.707  11.647
  467SOL    HW1 3234   9.530   1.645  11.639
  467SOL    HW2 3235   9.660   1.686  11.573
  468SOL     OW 3236   5.513  12.331   3.396
  468SOL    HW1 3237   5.555  12.265   3.341
  468SOL    HW2 3238   5.523  12.297   3.485
  469SOL     OW 3239   2.031   0.727  12.503
  469SOL    HW1 3240   2.083   0.780  12.563
  469SOL    HW2 3241   1.941   0.740  12.531
  470SOL     OW 3242   1.750   1.420  13.535
  470SOL    HW1 3243   1.671   1.447  13.583
  470SOL    HW2 3244   1.822   1.448  13.591
  471SOL     OW 3245   7.875   7.816  11.969
  471SOL    HW1 3246   7.932   7.747  11.935
  471SOL    HW2 3247   7.901   7.894  11.922
  472SOL     OW 3248   2.912   4.862  13.872
  472SOL    HW1 3249   2.908   4.771  13.843
  472SOL    HW2 3250   2.848   4.868  13.942
  473SOL     OW 3251   0.626  14.817   3.564
  473SOL    HW1 3252   0.628   0.036   3.589
  473SOL    HW2 3253   0.567  14.814   3.489
  474SOL     OW 3254  11.417   5.390  11.325
  474SOL    HW1 3255  11.500   5.405  11.370
  474SOL    HW2 3256  11.418   5.297  11.302
  475SOL     OW 3257   1.344  10.993   8.539
  475SOL    HW1 3258   1.382  11.063   8.486
  475SOL    HW2 3259   1.257  10.979   8.501
  476SOL     OW 3260   2.280  11.743   7.008
  476SOL    HW1 3261   2.306  11.710   6.922
  476SOL    HW2 3262   2.187  11.720   7.015
  477SOL     OW 3263   1.378   2.117   8.020
  477SOL    HW1 3264   1.315   2.187   8.001
  477SOL    HW2 3265   1.372   2.059   7.944
  478SOL     OW 3266   7.111  10.152   9.676
  478SOL    HW1 3267   7.127  10.094   9.751
  478SOL    HW2 3268   7.198  10.187   9.654
  479SOL     OW 3269   3.137   4.131  14.737
  479SOL    HW1 3270   3.070   4.199  14.735
  479SOL    HW2 3271   3.178   4.136  14.650
  480SOL     OW 3272   4.794  14.064   7.232
  480SOL    HW1 3273   4.808  14.159   7.229
  480SOL    HW2 3274   4.721  14.052   7.291
  481SOL     OW 3275  11.630  14.273   9.839
  481SOL    HW1 3276  11.694  14.202   9.831
  481SOL    HW2 3277  11.660  14.340   9.776
  482SOL     OW 3278   7.253   8.267   9.815
  482SOL    HW1 3279   7.203   8.270   9.897
  482SOL    HW2 3280   7.336   8.227   9.839
  483SOL     OW 3281   0.530   7.097   5.744
  483SOL    HW1 3282   0.625   7.098   5.745
  483SOL    HW2 3283   0.507   7.004   5.748
  484SOL     OW 3284  12.540  11.846  11.596
  484SOL    HW1 3285  12.597  11.838  11.519
  484SOL    HW2 3286  12.451  11.842  11.561
  485SOL     OW 3287   6.940  10.228   9.960
  485SOL    HW1 3288   6.866  10.220  10.019
  485SOL    HW2 3289   6.907  10.278   9.885
  486SOL     OW 3290   9.583  11.762   7.555
  486SOL    HW1 3291   9.498  11.762   7.511
  486SOL    HW2 3292   9.577  11.832   7.620
  487SOL     OW 3293   2.542  12.393   5.944
  487SOL    HW1 3294   2.597  12.460   5.986
  487SOL    HW2 3295   2.599  12.355   5.877
  488SOL     OW 3296   4.816   7.481  11.035
  488SOL    HW1 3297   4.777   7.564  11.007
  488SOL    HW2 3298   4.880   7.505  11.101
  489SOL     OW 3299   1.481   2.947   9.039
  489SOL    HW1 3300   1.457   2.886   9.110
  489SOL    HW2 3301   1.408   3.009   9.035
  490SOL     OW 3302   6.305   9.060   3.645
  490SOL    HW1 3303   6.306   8.964   3.657
  490SOL    HW2 3304   6.326   9.073   3.553
  491SOL     OW 3305   6.102   3.257   8.883
  491SOL    HW1 3306   6.067   3.200   8.951
  491SOL    HW2 3307   6.054   3.339   8.892
  492SOL     OW 3308  13.943   7.221  14.215
  492SOL    HW1 3309  14.012   7.177  14.265
  492SOL    HW2 3310  13.862   7.178  14.245
  493SOL     OW 3311  13.885  14.216  14.635
  493SOL    HW1 3312  13.832  14.206  14.556
  493SOL    HW2 3313  13.955  14.276  14.609
  494SOL     OW 3314  11.920   2.822   2.144
  494SOL    HW1 3315  11.937   2.822   2.050
  494SOL    HW2 3316  11.970   2.748   2.177
  495SOL     OW 3317  12.317   6.941   0.121
  495SOL    HW1 3318  12.240   6.984   0.159
  495SOL    HW2 3319  12.304   6.948   0.026
  496SOL     OW 3320   3.719   1.516   5.216
  496SOL    HW1 3321   3.641   1.507   5.271
  496SOL    HW2 3322   3.685   1.513   5.126
  497SOL     OW 3323   7.608  12.086   9.324
  497SOL    HW1 3324   7.522  12.044   9.327
  497SOL    HW2 3325   7.596  12.168   9.371
  498SOL     OW 3326   4.971   6.150   7.196
  498SOL    HW1 3327   4.973   6.246   7.195
  498SOL    HW2 3328   4.902   6.129   7.258
  499SOL     OW 3329   8.633  12.665  14.112
  499SOL    HW1 3330   8.621  12.576  14.146
  499SOL    HW2 3331   8.728  12.676  14.106
  500SOL     OW 3332   7.364   5.357   5.770
  500SOL    HW1 3333   7.450   5.360   5.811
  500SOL    HW2 3334   7.340   5.449   5.758
  501SOL     OW 3335   2.433   8.896   7.872
  501SOL    HW1 3336   2.408   8.859   7.957
  501SOL    HW2 3337   2.478   8.825   7.827
  502SOL     OW 3338  14.584  11.100  14.506
  502SOL    HW1 3339  14.493  11.115  14.478
  502SOL    HW2 3340  14.631  11.176  14.473
  503SOL     OW 3341   4.343   7.894   1.034
  503SOL    HW1 3342   4.410   7.862   0.974
  503SOL    HW2 3343   4.364   7.987   1.047
  504SOL     OW 3344   1.836   3.197   6.221
  504SOL    HW1 3345   1.832   3.120   6.164
  504SOL    HW2 3346   1.795   3.169   6.303
  505SOL     OW 3347   0.933   3.698   8.637
  505SOL    HW1 3348   0.903   3.615   8.673
  505SOL    HW2 3349   0.907   3.696   8.545
  506SOL     OW 3350  14.326   5.810   3.017
  506SOL    HW1 3351  14.388   5.821   3.089
  506SOL    HW2 3352  14.252   5.762   3.056
  507SOL     OW 3353   5.692   1.848   2.464
  507SOL    HW1 3354   5.686   1.912   2.534
  507SOL    HW2 3355   5.725   1.898   2.389
  508SOL     OW 3356   4.680   6.110  10.459
  508SOL    HW1 3357   4.690   6.179  10.393
  508SOL    HW2 3358   4.730   6.141  10.534
  509SOL     OW 3359   4.158   4.493   1.711
  509SOL    HW1 3360   4.219   4.496   1.784
  509SOL    HW2 3361   4.212   4.474   1.634
  510SOL     OW 3362  14.016  11.374   1.420
  510SOL    HW1 3363  14.079  11.328   1.476
  510SOL    HW2 3364  13.946  11.311   1.405
  511SOL     OW 3365   3.139   9.757   3.559
  511SOL    HW1 3366   3.206   9.771   3.492
  511SOL    HW2 3367   3.057   9.753   3.511
  512SOL     OW 3368   8.498   9.237   9.746
  512SOL    HW1 3369   8.496   9.287   9.664
  512SOL    HW2 3370   8.407   9.238   9.776
  513SOL     OW 3371  12.564   0.996  12.299
  513SOL    HW1 3372  12.489   1.037  12.255
  513SOL    HW2 3373  12.576   1.047  12.379
  514SOL     OW 3374  11.074  14.756   8.236
  514SOL    HW1 3375  11.038  14.753   8.147
  514SOL    HW2 3376  11.133  14.832   8.236
  515SOL     OW 3377   4.782   9.857  11.696
  515SOL    HW1 3378   4.849   9.794  11.671
  515SOL    HW2 3379   4.830   9.927  11.740
  516SOL     OW 3380  14.223   9.203  12.411
  516SOL    HW1 3381  14.318   9.193  12.414
  516SOL    HW2 3382  14.200   9.236  12.498
  517SOL     OW 3383  12.699   4.467  11.312
  517SOL    HW1 3384  12.751   4.532  11.360
  517SOL    HW2 3385  12.690   4.503  11.224
  518SOL     OW 3386   7.902   6.634   7.570
  518SOL    HW1 3387   7.904   6.653   7.476
  518SOL    HW2 3388   7.918   6.719   7.612
  519SOL     OW 3389  12.983   6.865   5.256
  519SOL    HW1 3390  12.993   6.949   5.210
  519SOL    HW2 3391  12.984   6.799   5.187
  520SOL     OW 3392  13.059  10.020   8.001
  520SOL    HW1 3393  13.014  10.001   8.083
  520SOL    HW2 3394  13.001  10.079   7.954
  521SOL     OW 3395  14.588  12.291   6.836
  521SOL    HW1 3396  14.513  12.235   6.856
  521SOL    HW2 3397  14.663  12.245   6.875
  522SOL     OW 3398   2.807  11.087   8.264
  522SOL    HW1 3399   2.869  11.151   8.297
  522SOL    HW2 3400   2.853  11.003   8.271
  523SOL     OW 3401  12.842   2.959   7.232
  523SOL    HW1 3402  12.872   2.982   7.320
  523SOL    HW2 3403  12.882   2.874   7.215
  524SOL     OW 3404   6.263   2.869   1.544
  524SOL    HW1 3405   6.339   2.824   1.581
  524SOL    HW2 3406   6.214   2.800   1.499
  525SOL     OW 3407   6.674  10.017   0.291
  525SOL    HW1 3408   6.647   9.970   0.369
  525SOL    HW2 3409   6.616   9.985   0.222
  526SOL     OW 3410   4.998   1.010  12.872
  526SOL    HW1 3411   4.993   1.030  12.778
  526SOL    HW2 3412   4.950   0.927  12.881
  527SOL     OW 3413   4.982   4.099   1.222
  527SOL    HW1 3414   4.923   4.024   1.214
  527SOL    HW2 3415   5.053   4.081   1.160
  528SOL     OW 3416  14.773   2.834  14.092
  528SOL    HW1 3417  14.855   2.878  14.112
  528SOL    HW2 3418  14.755   2.858  14.001
  529SOL     OW 3419   3.725   7.202   3.305
  529SOL    HW1 3420   3.791   7.181   3.240
  529SOL    HW2 3421   3.645   7.162   3.272
  530SOL     OW 3422  10.509   1.524   8.486
  530SOL    HW1 3423  10.437   1.534   8.549
  530SOL    HW2 3424  10.506   1.431   8.463
  531SOL     OW 3425   6.875   2.125   3.970
  531SOL    HW1 3426   6.951   2.074   3.998
  531SOL    HW2 3427   6.911   2.194   3.914
  532SOL     OW 3428   5.606   1.259   2.028
  532SOL    HW1 3429   5.527   1.311   2.040
  532SOL    HW2 3430   5.614   1.207   2.108
  533SOL     OW 3431   9.945  13.144   2.223
  533SOL    HW1 3432   9.893  13.117   2.298
  533SOL    HW2 3433   9.912  13.231   2.201
  534SOL     OW 3434  11.679   5.875  14.318
  534SOL    HW1 3435  11.687   5.809  14.249
  534SOL    HW2 3436  11.592   5.859  14.356
  535SOL     OW 3437  12.085   0.005   8.060
  535SOL    HW1 3438  12.078  14.782   8.051
  535SOL    HW2 3439  12.179   0.023   8.055
  536SOL     OW 3440   9.759   0.734  11.835
  536SOL    HW1 3441   9.668   0.739  11.865
  536SOL    HW2 3442   9.807   0.792  11.893
  537SOL     OW 3443  12.401   7.377   7.390
  537SOL    HW1 3444  12.448   7.409   7.313
  537SOL    HW2 3445  12.433   7.288   7.402
  538SOL     OW 3446  12.966   1.966   4.385
  538SOL    HW1 3447  13.047   1.977   4.434
  538SOL    HW2 3448  12.934   1.879   4.409
  539SOL     OW 3449   9.457   9.552   6.402
  539SOL    HW1 3450   9.433   9.463   6.426
  539SOL    HW2 3451   9.524   9.541   6.334
  540SOL     OW 3452   7.016   3.940   7.260
  540SOL    HW1 3453   7.046   4.030   7.251
  540SOL    HW2 3454   6.975   3.937   7.347
  541SOL     OW 3455   4.837   3.516   5.256
  541SOL    HW1 3456   4.829   3.534   5.350
  541SOL    HW2 3457   4.747   3.502   5.227
  542SOL     OW 3458   8.491  12.062   2.702
  542SOL    HW1 3459   8.506  12.053   2.796
  542SOL    HW2 3460   8.418  12.123   2.695
  543SOL     OW 3461   6.806   3.753  13.262
  543SOL    HW1 3462   6.891   3.791  13.240
  543SOL    HW2 3463   6.785   3.790  13.348
  544SOL     OW 3464  10.913   7.949   7.382
  544SOL    HW1 3465  10.981   8.009   7.414
  544SOL    HW2 3466  10.832   7.981   7.423
  545SOL     OW 3467   1.071  14.499  11.791
  545SOL    HW1 3468   1.133  14.472  11.858
  545SOL    HW2 3469   1.107  14.581  11.757
  546SOL     OW 3470  14.811  12.545  10.690
  546SOL    HW1 3471   0.025  12.572  10.661
  546SOL    HW2 3472  14.758  12.625  10.683
  547SOL     OW 3473   9.360  12.833   9.927
  547SOL    HW1 3474   9.394  12.744   9.918
  547SOL    HW2 3475   9.339  12.860   9.838
  548SOL     OW 3476  14.325  12.069  11.163
  548SOL    HW1 3477  14.395  12.026  11.115
  548SOL    HW2 3478  14.364  12.152  11.192
  549SOL     OW 3479   5.574   1.463   6.470
  549SOL    HW1 3480   5.624   1.460   6.551
  549SOL    HW2 3481   5.493   1.509   6.492
  550SOL     OW 3482   1.812   6.750  14.539
  550SOL    HW1 3483   1.839   6.836  14.569
  550SOL    HW2 3484   1.892   6.708  14.507
  551SOL     OW 3485   3.321  10.780  11.381
  551SOL    HW1 3486   3.384  10.817  11.443
  551SOL    HW2 3487   3.266  10.722  11.435
  552SOL     OW 3488  12.408   0.517   7.129
  552SOL    HW1 3489  12.372   0.552   7.048
  552SOL    HW2 3490  12.483   0.573   7.149
  553SOL     OW 3491  11.665   6.271   1.368
  553SOL    HW1 3492  11.607   6.344   1.389
  553SOL    HW2 3493  11.619   6.194   1.400
  554SOL     OW 3494  12.318   8.759   9.012
  554SOL    HW1 3495  12.295   8.676   8.970
  554SOL    HW2 3496  12.319   8.823   8.941
  555SOL     OW 3497   5.815   2.492   4.214
  555SOL    HW1 3498   5.846   2.478   4.303
  555SOL    HW2 3499   5.795   2.404   4.182
  556SOL     OW 3500   4.261   8.939   2.969
  556SOL    HW1 3501   4.252   9.017   2.914
  556SOL    HW2 3502   4.288   8.870   2.909
  557SOL     OW 3503   2.402   2.415   4.684
  557SOL    HW1 3504   2.448   2.368   4.753
  557SOL    HW2 3505   2.451   2.496   4.671
  558SOL     OW 3506   5.456  10.163   7.489
  558SOL    HW1 3507   5.468  10.110   7.568
  558SOL    HW2 3508   5.543  10.197   7.470
  559SOL     OW 3509   1.565  10.730   0.056
  559SOL    HW1 3510   1.577  10.636   0.038
  559SOL    HW2 3511   1.653  10.763   0.074
  560SOL     OW 3512   8.882   0.557   4.430
  560SOL    HW1 3513   8.817   0.625   4.410
  560SOL    HW2 3514   8.949   0.567   4.363
  561SOL     OW 3515   3.320  13.810   0.046
  561SOL    HW1 3516   3.296  13.861   0.124
  561SOL    HW2 3517   3.242  13.757   0.028
  562SOL     OW 3518   5.832   9.846   4.347
  562SOL    HW1 3519   5.802   9.809   4.264
  562SOL    HW2 3520   5.792   9.933   4.350
  563SOL     OW 3521   6.012  11.487   3.177
  563SOL    HW1 3522   5.931  11.476   3.128
  563SOL    HW2 3523   6.079  11.447   3.121
  564SOL     OW 3524   5.935   3.458   6.945
  564SOL    HW1 3525   5.975   3.472   7.031
  564SOL    HW2 3526   5.919   3.546   6.911
  565SOL     OW 3527  14.199   5.137  12.261
  565SOL    HW1 3528  14.167   5.165  12.175
  565SOL    HW2 3529  14.122   5.139  12.317
  566SOL     OW 3530  13.280   5.842   3.238
  566SOL    HW1 3531  13.251   5.924   3.280
  566SOL    HW2 3532  13.370   5.859   3.213
  567SOL     OW 3533   4.086   5.944   0.855
  567SOL    HW1 3534   4.034   6.011   0.810
  567SOL    HW2 3535   4.028   5.869   0.863
  568SOL     OW 3536   5.071   8.260   3.998
  568SOL    HW1 3537   5.083   8.326   4.067
  568SOL    HW2 3538   4.979   8.236   4.005
  569SOL     OW 3539  12.519  11.705   9.038
  569SOL    HW1 3540  12.583  11.642   9.072
  569SOL    HW2 3541  12.443  11.652   9.017
  570SOL     OW 3542   7.951  13.832   0.897
  570SOL    HW1 3543   8.041  13.824   0.929
  570SOL    HW2 3544   7.920  13.915   0.935
  571SOL     OW 3545   3.841   8.618  10.467
  571SOL    HW1 3546   3.829   8.622  10.372
  571SOL    HW2 3547   3.823   8.526  10.489
  572SOL     OW 3548   8.693   3.675   0.461
  572SOL    HW1 3549   8.607   3.684   0.419
  572SOL    HW2 3550   8.698   3.583   0.486
  573SOL     OW 3551   4.975  12.096   2.437
  573SOL    HW1 3552   5.053  12.042   2.450
  573SOL    HW2 3553   5.007  12.185   2.433
  574SOL     OW 3554  14.365  11.439  14.574
  574SOL    HW1 3555  14.440  11.488  14.606
  574SOL    HW2 3556  14.291  11.470  14.626
  575SOL     OW 3557   0.007   3.336   8.604
  575SOL    HW1 3558   0.092   3.291   8.605
  575SOL    HW2 3559   0.026   3.421   8.565
  576SOL     OW 3560  12.367   6.548   9.399
  576SOL    HW1 3561  12.460   6.567   9.410
  576SOL    HW2 3562  12.364   6.475   9.337
  577SOL     OW 3563   0.688  11.407   7.296
  577SOL    HW1 3564   0.683  11.334   7.358
  577SOL    HW2 3565   0.598  11.423   7.269
  578SOL     OW 3566  10.053   5.030   9.575
  578SOL    HW1 3567  10.011   4.962   9.522
  578SOL    HW2 3568  10.063   5.104   9.515
  579SOL     OW 3569  14.303  10.849  13.556
  579SOL    HW1 3570  14.355  10.916  13.511
  579SOL    HW2 3571  14.360  10.816  13.625
  580SOL     OW 3572   3.992   8.147   3.000
  580SOL    HW1 3573   3.973   8.230   2.956
  580SOL    HW2 3574   3.910   8.097   2.995
  581SOL     OW 3575   2.482  10.099   3.262
  581SOL    HW1 3576   2.506  10.037   3.193
  581SOL    HW2 3577   2.509  10.184   3.228
  582SOL     OW 3578   4.281  10.255  12.488
  582SOL    HW1 3579   4.193  10.259  12.451
  582SOL    HW2 3580   4.339  10.256  12.412
  583SOL     OW 3581  12.636  12.790  14.495
  583SOL    HW1 3582  12.668  12.784  14.405
  583SOL    HW2 3583  12.715  12.803  14.548
  584SOL     OW 3584  13.161   4.393  12.017
  584SOL    HW1 3585  13.117   4.404  11.933
  584SOL    HW2 3586  13.172   4.298  12.025
  585SOL     OW 3587   4.934  11.528  10.216
  585SOL    HW1 3588   4.851  11.575  10.227
  585SOL    HW2 3589   4.948  11.528  10.121
  586SOL     OW 3590   6.079   0.674   1.195
  586SOL    HW1 3591   6.058   0.587   1.229
  586SOL    HW2 3592   6.174   0.681   1.202
  587SOL     OW 3593  13.738   0.114  12.672
  587SOL    HW1 3594  13.791   0.174  12.724
  587SOL    HW2 3595  13.722   0.040  12.730
  588SOL     OW 3596   4.546  13.136   6.380
  588SOL    HW1 3597   4.592  13.085   6.446
  588SOL    HW2 3598   4.545  13.225   6.414
  589SOL     OW 3599  11.791   8.832   1.556
  589SOL    HW1 3600  11.746   8.853   1.639
  589SOL    HW2 3601  11.776   8.909   1.501
  590SOL     OW 3602   1.285   0.546   2.403
  590SOL    HW1 3603   1.286   0.570   2.496
  590SOL    HW2 3604   1.216   0.480   2.396
  591SOL     OW 3605  14.114   6.688  12.980
  591SOL    HW1 3606  14.048   6.757  12.993
  591SOL    HW2 3607  14.086   6.644  12.900
  592SOL     OW 3608  10.960   3.562   0.438
  592SOL    HW1 3609  11.038   3.512   0.459
  592SOL    HW2 3610  10.892   3.528   0.496
  593SOL     OW 3611   5.320  11.667   9.835
  593SOL    HW1 3612   5.270  11.594   9.871
  593SOL    HW2 3613   5.324  11.649   9.741
  594SOL     OW 3614   8.674   3.059   5.733
  594SOL    HW1 3615   8.721   2.979   5.760
  594SOL    HW2 3616   8.735   3.104   5.675
  595SOL     OW 3617   1.738   0.323   5.347
  595SOL    HW1 3618   1.822   0.358   5.316
  595SOL    HW2 3619   1.688   0.401   5.371
  596SOL     OW 3620   2.774   7.144  10.750
  596SOL    HW1 3621   2.720   7.154  10.828
  596SOL    HW2 3622   2.757   7.055  10.720
  597SOL     OW 3623   2.479  12.108   0.127
  597SOL    HW1 3624   2.392  12.103   0.166
  597SOL    HW2 3625   2.486  12.029   0.073
  598SOL     OW 3626   3.541  13.359   5.521
  598SOL    HW1 3627   3.524  13.421   5.450
  598SOL    HW2 3628   3.481  13.286   5.504
  599SOL     OW 3629  12.448   8.538   7.354
  599SOL    HW1 3630  12.386   8.567   7.288
  599SOL    HW2 3631  12.467   8.447   7.331
  600SOL     OW 3632  12.293   8.933  11.628
  600SOL    HW1 3633  12.333   8.955  11.712
  600SOL    HW2 3634  12.206   8.973  11.631
  601SOL     OW 3635   1.192   8.478  10.215
  601SOL    HW1 3636   1.145   8.489  10.133
  601SOL    HW2 3637   1.127   8.446  10.277
  602SOL     OW 3638   6.104   9.987  10.774
  602SOL    HW1 3639   6.086   9.974  10.681
  602SOL    HW2 3640   6.033  10.043  10.804
  603SOL     OW 3641   4.974   3.740   9.722
  603SOL    HW1 3642   5.045   3.798   9.749
  603SOL    HW2 3643   4.961   3.758   9.629
  604SOL     OW 3644   5.562   4.467   8.213
  604SOL    HW1 3645   5.517   4.384   8.196
  604SOL    HW2 3646   5.638   4.465   8.155
  605SOL     OW 3647  11.774   5.016  13.227
  605SOL    HW1 3648  11.720   5.081  13.272
  605SOL    HW2 3649  11.812   4.963  13.298
  606SOL     OW 3650   2.784  11.324   5.417
  606SOL    HW1 3651   2.868  11.291   5.386
  606SOL    HW2 3652   2.742  11.249   5.458
  607SOL     OW 3653   3.998   1.159   9.902
  607SOL    HW1 3654   4.079   1.206   9.880
  607SOL    HW2 3655   3.939   1.177   9.829
  608SOL     OW 3656   9.873  11.460   0.287
  608SOL    HW1 3657   9.782  11.480   0.262
  608SOL    HW2 3658   9.876  11.364   0.287
  609SOL     OW 3659   6.680   2.568  14.495
  609SOL    HW1 3660   6.751   2.566  14.431
  609SOL    HW2 3661   6.715   2.619  14.568
  610SOL     OW 3662  11.902   5.262   9.642
  610SOL    HW1 3663  11.913   5.356   9.656
  610SOL    HW2 3664  11.886   5.226   9.729
  611SOL     OW 3665   7.639   1.076   4.377
  611SOL    HW1 3666   7.726   1.104   4.350
  611SOL    HW2 3667   7.601   1.152   4.420
  612SOL     OW 3668   1.144  12.038   0.657
  612SOL    HW1 3669   1.196  11.981   0.600
  612SOL    HW2 3670   1.153  12.125   0.619
  613SOL     OW 3671   2.755   8.542   4.380
  613SOL    HW1 3672   2.815   8.477   4.416
  613SOL    HW2 3673   2.719   8.587   4.456
  614SOL     OW 3674  14.192  14.665   7.136
  614SOL    HW1 3675  14.171  14.743   7.188
  614SOL    HW2 3676  14.176  14.692   7.045
  615SOL     OW 3677   2.518  13.505  13.521
  615SOL    HW1 3678   2.444  13.453  13.551
  615SOL    HW2 3679   2.490  13.538  13.435
  616SOL     OW 3680  14.756   7.434  14.481
  616SOL    HW1 3681  14.775   7.367  14.416
  616SOL    HW2 3682  14.663   7.452  14.470
  617SOL     OW 3683  12.583   6.817   4.154
  617SOL    HW1 3684  12.580   6.778   4.241
  617SOL    HW2 3685  12.560   6.746   4.094
  618SOL     OW 3686   4.023  13.868   9.952
  618SOL    HW1 3687   4.092  13.879  10.017
  618SOL    HW2 3688   4.032  13.945   9.896
  619SOL     OW 3689   3.519  12.290  13.073
  619SOL    HW1 3690   3.515  12.235  13.151
  619SOL    HW2 3691   3.509  12.380  13.107
  620SOL     OW 3692  13.173   1.476   2.910
  620SOL    HW1 3693  13.193   1.538   2.980
  620SOL    HW2 3694  13.249   1.479   2.852
  621SOL     OW 3695  12.199   7.998  14.331
  621SOL    HW1 3696  12.139   8.048  14.385
  621SOL    HW2 3697  12.162   8.003  14.243
  622SOL     OW 3698   1.253  14.471   4.124
  622SOL    HW1 3699   1.214  14.557   4.106
  622SOL    HW2 3700   1.285  14.441   4.040
  623SOL     OW 3701   3.821   5.457  12.101
  623SOL    HW1 3702   3.741   5.405  12.097
  623SOL    HW2 3703   3.887   5.403  12.057
  624SOL     OW 3704   3.379  12.648   7.057
  624SOL    HW1 3705   3.450  12.694   7.011
  624SOL    HW2 3706   3.319  12.717   7.085
  625SOL     OW 3707   9.769   7.154   0.849
  625SOL    HW1 3708   9.828   7.210   0.798
  625SOL    HW2 3709   9.816   7.071   0.856
  626SOL     OW 3710   7.620   2.918  10.291
  626SOL    HW1 3711   7.621   2.843  10.231
  626SOL    HW2 3712   7.696   2.970  10.266
  627SOL     OW 3713   0.369   1.939  12.777
  627SOL    HW1 3714   0.412   2.025  12.781
  627SOL    HW2 3715   0.404   1.898  12.698
  628SOL     OW 3716   3.141   3.358   3.909
  628SOL    HW1 3717   3.182   3.372   3.823
  628SOL    HW2 3718   3.109   3.444   3.935
  629SOL     OW 3719  14.062  13.138  14.242
  629SOL    HW1 3720  14.115  13.066  14.207
  629SOL    HW2 3721  14.051  13.116  14.334
  630SOL     OW 3722   3.868   5.248   3.574
  630SOL    HW1 3723   3.892   5.195   3.498
  630SOL    HW2 3724   3.827   5.326   3.537
  631SOL     OW 3725  13.720   7.094   8.675
  631SOL    HW1 3726  13.769   7.131   8.602
  631SOL    HW2 3727  13.636   7.067   8.637
  632SOL     OW 3728  14.855   0.015   2.614
  632SOL    HW1 3729   0.018   0.019   2.526
  632SOL    HW2 3730   0.059   0.008   2.671
  633SOL     OW 3731   2.993  10.209  13.399
  633SOL    HW1 3732   3.017  10.301  13.386
  633SOL    HW2 3733   2.958  10.206  13.488
  634SOL     OW 3734   6.273  10.092   4.637
  634SOL    HW1 3735   6.179  10.104   4.649
  634SOL    HW2 3736   6.280  10.031   4.564
  635SOL     OW 3737   8.827   4.924   7.949
  635SOL    HW1 3738   8.804   4.889   8.035
  635SOL    HW2 3739   8.903   4.874   7.922
  636SOL     OW 3740   8.869   2.487   9.336
  636SOL    HW1 3741   8.837   2.467   9.248
  636SOL    HW2 3742   8.789   2.499   9.388
  637SOL     OW 3743   2.761   8.043   3.835
  637SOL    HW1 3744   2.722   8.007   3.915
  637SOL    HW2 3745   2.779   7.966   3.781
  638SOL     OW 3746  13.951   7.009   5.621
  638SOL    HW1 3747  14.041   7.034   5.601
  638SOL    HW2 3748  13.959   6.935   5.681
  639SOL     OW 3749  12.685  13.764   3.817
  639SOL    HW1 3750  12.733  13.841   3.845
  639SOL    HW2 3751  12.600  13.771   3.859
  640SOL     OW 3752  13.756   1.321   7.842
  640SOL    HW1 3753  13.685   1.385   7.855
  640SOL    HW2 3754  13.745   1.259   7.914
  641SOL     OW 3755  10.823  11.670   2.527
  641SOL    HW1 3756  10.818  11.643   2.435
  641SOL    HW2 3757  10.784  11.757   2.528
  642SOL     OW 3758   6.854   2.361   4.257
  642SOL    HW1 3759   6.878   2.371   4.164
  642SOL    HW2 3760   6.771   2.408   4.265
  643SOL     OW 3761  13.248   9.653  11.132
  643SOL    HW1 3762  13.169   9.605  11.155
  643SOL    HW2 3763  13.239   9.736  11.179
  644SOL     OW 3764   3.645  11.722   7.360
  644SOL    HW1 3765   3.647  11.788   7.430
  644SOL    HW2 3766   3.693  11.647   7.395
  645SOL     OW 3767   9.028   4.012   4.162
  645SOL    HW1 3768   9.118   3.985   4.142
  645SOL    HW2 3769   9.026   4.105   4.140
  646SOL     OW 3770   9.004   9.563   9.551
  646SOL    HW1 3771   9.046   9.648   9.564
  646SOL    HW2 3772   9.077   9.501   9.543
  647SOL     OW 3773  11.168  13.022  10.632
  647SOL    HW1 3774  11.182  12.936  10.671
  647SOL    HW2 3775  11.079  13.046  10.657
  648SOL     OW 3776  11.281  12.293  11.990
  648SOL    HW1 3777  11.327  12.211  12.008
  648SOL    HW2 3778  11.303  12.313  11.899
  649SOL     OW 3779   9.823   4.524   4.197
  649SOL    HW1 3780   9.842   4.602   4.146
  649SOL    HW2 3781   9.728   4.514   4.192
  650SOL     OW 3782  12.120   6.778   0.561
  650SOL    HW1 3783  12.025   6.778   0.565
  650SOL    HW2 3784  12.144   6.870   0.552
  651SOL     OW 3785   9.069   2.135   0.674
  651SOL    HW1 3786   9.035   2.193   0.605
  651SOL    HW2 3787   9.163   2.152   0.675
  652SOL     OW 3788   1.599  10.416   9.153
  652SOL    HW1 3789   1.637  10.333   9.180
  652SOL    HW2 3790   1.663  10.482   9.180
  653SOL     OW 3791   6.638  13.305   4.483
  653SOL    HW1 3792   6.594  13.390   4.488
  653SOL    HW2 3793   6.731  13.326   4.474
  654SOL     OW 3794   8.014   0.399   5.065
  654SOL    HW1 3795   8.074   0.413   5.139
  654SOL    HW2 3796   8.061   0.434   4.989
  655SOL     OW 3797  14.132   6.271   2.599
  655SOL    HW1 3798  14.085   6.189   2.582
  655SOL    HW2 3799  14.122   6.322   2.519
  656SOL     OW 3800  10.749  14.672   4.510
  656SOL    HW1 3801  10.708  14.615   4.444
  656SOL    HW2 3802  10.780  14.748   4.460
  657SOL     OW 3803   1.874   2.660   6.565
  657SOL    HW1 3804   1.824   2.606   6.504
  657SOL    HW2 3805   1.966   2.642   6.543
  658SOL     OW 3806  11.646   2.166   7.940
  658SOL    HW1 3807  11.604   2.242   7.980
  658SOL    HW2 3808  11.694   2.202   7.865
  659SOL     OW 3809   4.796  10.711   8.344
  659SOL    HW1 3810   4.739  10.639   8.318
  659SOL    HW2 3811   4.777  10.725   8.437
  660SOL     OW 3812   8.289   3.910   2.037
  660SOL    HW1 3813   8.304   3.839   2.099
  660SOL    HW2 3814   8.375   3.949   2.024
  661SOL     OW 3815   8.778   3.785  10.141
  661SOL    HW1 3816   8.776   3.859  10.081
  661SOL    HW2 3817   8.782   3.708  10.084
  662SOL     OW 3818  14.239   7.973  12.030
  662SOL    HW1 3819  14.194   7.918  11.966
  662SOL    HW2 3820  14.284   7.911  12.087
  663SOL     OW 3821   5.450   9.656  13.465
  663SOL    HW1 3822   5.382   9.686  13.405
  663SOL    HW2 3823   5.484   9.575  13.425
  664SOL     OW 3824  11.226  13.432  12.442
  664SOL    HW1 3825  11.150  13.457  12.390
  664SOL    HW2 3826  11.200  13.350  12.485
  665SOL     OW 3827   3.651   8.964  13.590
  665SOL    HW1 3828   3.732   8.942  13.636
  665SOL    HW2 3829   3.610   9.032  13.644
  666SOL     OW 3830  13.352   4.146   4.039
  666SOL    HW1 3831  13.361   4.240   4.020
  666SOL    HW2 3832  13.373   4.139   4.132
  667SOL     OW 3833   7.855   6.991   1.547
  667SOL    HW1 3834   7.838   6.994   1.452
  667SOL    HW2 3835   7.792   7.053   1.584
  668SOL     OW 3836   6.414   5.201   2.002
  668SOL    HW1 3837   6.382   5.143   2.070
  668SOL    HW2 3838   6.486   5.250   2.043
  669SOL     OW 3839  13.901   2.932  10.340
  669SOL    HW1 3840  13.895   3.019  10.300
  669SOL    HW2 3841  13.953   2.880  10.278
  670SOL     OW 3842  14.543   9.859   3.984
  670SOL    HW1 3843  14.473   9.912   3.946
  670SOL    HW2 3844  14.499   9.802   4.048
  671SOL     OW 3845  10.446  13.844   9.564
  671SOL    HW1 3846  10.477  13.933   9.548
  671SOL    HW2 3847  10.525  13.790   9.563
  672SOL     OW 3848   7.939  11.214  13.260
  672SOL    HW1 3849   7.860  11.249  13.301
  672SOL    HW2 3850   7.915  11.201  13.168
  673SOL     OW 3851   1.171   7.604   6.513
  673SOL    HW1 3852   1.233   7.536   6.539
  673SOL    HW2 3853   1.187   7.676   6.574
  674SOL     OW 3854   4.093  11.167   4.759
  674SOL    HW1 3855   4.069  11.075   4.764
  674SOL    HW2 3856   4.081  11.200   4.849
  675SOL     OW 3857   1.193  14.677   5.715
  675SOL    HW1 3858   1.125  14.627   5.670
  675SOL    HW2 3859   1.147  14.723   5.785
  676SOL     OW 3860   3.742  10.577  13.212
  676SOL    HW1 3861   3.721  10.666  13.182
  676SOL    HW2 3862   3.783  10.535  13.137
  677SOL     OW 3863  14.862   2.556   3.440
  677SOL    HW1 3864   0.060   2.521   3.495
  677SOL    HW2 3865  14.848   2.490   3.373
  678SOL     OW 3866   7.925   6.242   0.906
  678SOL    HW1 3867   7.945   6.267   0.816
  678SOL    HW2 3868   7.973   6.160   0.919
  679SOL     OW 3869  13.823   1.742   3.741
  679SOL    HW1 3870  13.746   1.799   3.736
  679SOL    HW2 3871  13.897   1.802   3.731
  680SOL     OW 3872   1.400   8.009   3.260
  680SOL    HW1 3873   1.420   7.955   3.184
  680SOL    HW2 3874   1.343   8.078   3.226
  681SOL     OW 3875   5.719   8.676   2.968
  681SOL    HW1 3876   5.744   8.592   2.929
  681SOL    HW2 3877   5.746   8.670   3.059
  682SOL     OW 3878  11.194  13.405   3.449
  682SOL    HW1 3879  11.256  13.470   3.479
  682SOL    HW2 3880  11.237  13.321   3.465
  683SOL     OW 3881   7.575   9.826  12.990
  683SOL    HW1 3882   7.534   9.895  13.042
  683SOL    HW2 3883   7.650   9.870  12.948
  684SOL     OW 3884  11.055  10.095   9.015
  684SOL    HW1 3885  11.090  10.097   8.926
  684SOL    HW2 3886  10.970  10.051   9.006
  685SOL     OW 3887   9.525   3.843   3.727
  685SOL    HW1 3888   9.537   3.809   3.639
  685SOL    HW2 3889   9.451   3.791   3.762
  686SOL     OW 3890  12.014   1.634   3.102
  686SOL    HW1 3891  12.085   1.607   3.161
  686SOL    HW2 3892  12.041   1.601   3.016
  687SOL     OW 3893  12.464   7.745   0.708
  687SOL    HW1 3894  12.483   7.827   0.662
  687SOL    HW2 3895  12.475   7.678   0.640
  688SOL     OW 3896   1.274   9.559   1.381
  688SOL    HW1 3897   1.323   9.560   1.463
  688SOL    HW2 3898   1.188   9.594   1.403
  689SOL     OW 3899  10.354   6.532   0.520
  689SOL    HW1 3900  10.277   6.490   0.558
  689SOL    HW2 3901  10.390   6.584   0.591
  690SOL     OW 3902   8.699   4.639   4.374
  690SOL    HW1 3903   8.638   4.651   4.447
  690SOL    HW2 3904   8.694   4.720   4.324
  691SOL     OW 3905   0.738   6.832   1.302
  691SOL    HW1 3906   0.731   6.882   1.221
  691SOL    HW2 3907   0.817   6.779   1.290
  692SOL     OW 3908  11.591  11.594   6.083
  692SOL    HW1 3909  11.576  11.514   6.033
  692SOL    HW2 3910  11.585  11.566   6.175
  693SOL     OW 3911   7.111   5.023   1.527
  693SOL    HW1 3912   7.202   4.996   1.513
  693SOL    HW2 3913   7.074   4.956   1.583
  694SOL     OW 3914  12.775   1.107  14.312
  694SOL    HW1 3915  12.721   1.089  14.389
  694SOL    HW2 3916  12.743   1.191  14.280
  695SOL     OW 3917  13.693   7.785   7.664
  695SOL    HW1 3918  13.691   7.689   7.665
  695SOL    HW2 3919  13.782   7.807   7.694
  696SOL     OW 3920   3.027  10.566  12.072
  696SOL    HW1 3921   3.001  10.493  12.129
  696SOL    HW2 3922   3.079  10.525  12.003
  697SOL     OW 3923   4.116  14.164   3.862
  697SOL    HW1 3924   4.033  14.159   3.910
  697SOL    HW2 3925   4.182  14.177   3.929
  698SOL     OW 3926   4.668  13.082   5.176
  698SOL    HW1 3927   4.689  12.992   5.201
  698SOL    HW2 3928   4.704  13.136   5.246
  699SOL     OW 3929   1.185  10.163   5.387
  699SOL    HW1 3930   1.248  10.204   5.327
  699SOL    HW2 3931   1.106  10.150   5.334
  700SOL     OW 3932   8.651   8.560  14.828
  700SOL    HW1 3933   8.678   8.638   0.004
  700SOL    HW2 3934   8.559   8.548  14.850
  701SOL     OW 3935   4.485   9.571   5.586
  701SOL    HW1 3936   4.501   9.658   5.551
  701SOL    HW2 3937   4.462   9.518   5.509
  702SOL     OW 3938   1.002   2.542   4.282
  702SOL    HW1 3939   0.936   2.606   4.308
  702SOL    HW2 3940   0.958   2.457   4.292
  703SOL     OW 3941   0.655   3.996   3.008
  703SOL    HW1 3942   0.619   3.996   3.096
  703SOL    HW2 3943   0.738   3.948   3.016
  704SOL     OW 3944   8.830   9.118  13.434
  704SOL    HW1 3945   8.847   9.127  13.340
  704SOL    HW2 3946   8.823   9.024  13.448
  705SOL     OW 3947   8.224  14.768   3.580
  705SOL    HW1 3948   8.160  14.700   3.557
  705SOL    HW2 3949   8.230  14.762   3.676
  706SOL     OW 3950  13.216   9.448  10.761
  706SOL    HW1 3951  13.167   9.384  10.812
  706SOL    HW2 3952  13.299   9.459  10.809
  707SOL     OW 3953   4.063  11.908   8.767
  707SOL    HW1 3954   4.079  12.001   8.782
  707SOL    HW2 3955   4.139  11.878   8.716
  708SOL     OW 3956   5.951   6.772   5.591
  708SOL    HW1 3957   5.920   6.681   5.592
  708SOL    HW2 3958   5.950   6.799   5.682
  709SOL     OW 3959  10.103   1.011   6.923
  709SOL    HW1 3960  10.138   0.951   6.988
  709SOL    HW2 3961  10.047   0.957   6.867
  710SOL     OW 3962   3.912  12.502   8.985
  710SOL    HW1 3963   3.997  12.503   9.028
  710SOL    HW2 3964   3.903  12.589   8.947
  711SOL     OW 3965  11.563   2.459   9.093
  711SOL    HW1 3966  11.634   2.401   9.122
  711SOL    HW2 3967  11.562   2.530   9.157
  712SOL     OW 3968   7.075  13.222  13.387
  712SOL    HW1 3969   7.066  13.171  13.468
  712SOL    HW2 3970   7.167  13.210  13.362
  713SOL     OW 3971   4.880  11.352   0.980
  713SOL    HW1 3972   4.916  11.429   1.024
  713SOL    HW2 3973   4.797  11.382   0.943
  714SOL     OW 3974   8.106   5.578  11.140
  714SOL    HW1 3975   8.182   5.604  11.089
  714SOL    HW2 3976   8.138   5.509  11.198
  715SOL     OW 3977  10.686   6.740   7.524
  715SOL    HW1 3978  10.696   6.675   7.593
  715SOL    HW2 3979  10.643   6.814   7.567
  716SOL     OW 3980   1.782   8.062  13.048
  716SOL    HW1 3981   1.751   7.980  13.086
  716SOL    HW2 3982   1.724   8.129  13.084
  717SOL     OW 3983   5.522  13.517   5.781
  717SOL    HW1 3984   5.548  13.437   5.828
  717SOL    HW2 3985   5.472  13.567   5.845
  718SOL     OW 3986  11.660   0.261  14.381
  718SOL    HW1 3987  11.588   0.306  14.426
  718SOL    HW2 3988  11.735   0.270  14.439
  719SOL     OW 3989  13.308   7.809   6.075
  719SOL    HW1 3990  13.340   7.722   6.052
  719SOL    HW2 3991  13.237   7.793   6.138
  720SOL     OW 3992  11.627   4.133   2.971
  720SOL    HW1 3993  11.604   4.194   2.901
  720SOL    HW2 3994  11.722   4.123   2.965
  721SOL     OW 3995   7.376  13.801   7.357
  721SOL    HW1 3996   7.467  13.795   7.385
  721SOL    HW2 3997   7.343  13.711   7.363
  722SOL     OW 3998   9.440   9.820   7.853
  722SOL    HW1 3999   9.501   9.821   7.927
  722SOL    HW2 4000   9.360   9.783   7.889
  723SOL     OW 4001  12.760   2.481  10.867
  723SOL    HW1 4002  12.775   2.525  10.951
  723SOL    HW2 4003  12.804   2.537  10.803
  724SOL     OW 4004  10.579   6.444  13.411
  724SOL    HW1 4005  10.563   6.515  13.349
  724SOL    HW2 4006  10.571   6.364  13.359
  725SOL     OW 4007   4.058  13.602  13.630
  725SOL    HW1 4008   4.057  13.676  13.570
  725SOL    HW2 4009   4.115  13.629  13.702
  726SOL     OW 4010  11.180   5.769   7.241
  726SOL    HW1 4011  11.149   5.701   7.301
  726SOL    HW2 4012  11.139   5.747   7.157
  727SOL     OW 4013   9.981   4.431   0.044
  727SOL    HW1 4014   9.910   4.368   0.029
  727SOL    HW2 4015  10.052   4.401  14.860
  728SOL     OW 4016   1.645  10.164   5.026
  728SOL    HW1 4017   1.704  10.088   5.024
  728SOL    HW2 4018   1.557  10.125   5.024
  729SOL     OW 4019  10.799  12.637   2.769
  729SOL    HW1 4020  10.860  12.580   2.722
  729SOL    HW2 4021  10.783  12.710   2.709
  730SOL     OW 4022   9.102   3.063  12.314
  730SOL    HW1 4023   9.062   3.034  12.232
  730SOL    HW2 4024   9.141   2.983  12.351
  731SOL     OW 4025   0.525   2.178   3.518
  731SOL    HW1 4026   0.524   2.229   3.599
  731SOL    HW2 4027   0.545   2.088   3.547
  732SOL     OW 4028  11.236  12.783   9.105
  732SOL    HW1 4029  11.198  12.698   9.082
  732SOL    HW2 4030  11.313  12.790   9.047
  733SOL     OW 4031   3.939   1.549   1.232
  733SOL    HW1 4032   3.982   1.605   1.168
  733SOL    HW2 4033   3.849   1.580   1.234
  734SOL     OW 4034  13.121   3.902  11.159
  734SOL    HW1 4035  13.121   3.814  11.123
  734SOL    HW2 4036  13.039   3.909  11.208
  735SOL     OW 4037  12.769   9.266  11.607
  735SOL    HW1 4038  12.763   9.192  11.546
  735SOL    HW2 4039  12.831   9.238  11.673
  736SOL     OW 4040   8.117  10.329  14.589
  736SOL    HW1 4041   8.069  10.349  14.508
  736SOL    HW2 4042   8.197  10.285  14.560
  737SOL     OW 4043   7.438   9.205   6.089
  737SOL    HW1 4044   7.374   9.223   6.020
  737SOL    HW2 4045   7.502   9.147   6.048
  738SOL     OW 4046   7.272   2.485  10.152
  738SOL    HW1 4047   7.239   2.454  10.236
  738SOL    HW2 4048   7.299   2.576  10.169
  739SOL     OW 4049  10.983   6.254   5.531
  739SOL    HW1 4050  10.959   6.337   5.573
  739SOL    HW2 4051  10.996   6.277   5.439
  740SOL     OW 4052  13.210   6.278   1.373
  740SOL    HW1 4053  13.251   6.287   1.459
  740SOL    HW2 4054  13.168   6.362   1.357
  741SOL     OW 4055   9.963   8.526   1.492
  741SOL    HW1 4056   9.921   8.561   1.414
  741SOL    HW2 4057   9.917   8.567   1.565
  742SOL     OW 4058  13.765   7.524  10.580
  742SOL    HW1 4059  13.692   7.521  10.642
  742SOL    HW2 4060  13.800   7.435  10.580
  743SOL     OW 4061  11.985   0.664   9.786
  743SOL    HW1 4062  11.961   0.573   9.771
  743SOL    HW2 4063  11.912   0.714   9.750
  744SOL     OW 4064   7.323   1.070   4.089
  744SOL    HW1 4065   7.404   1.028   4.118
  744SOL    HW2 4066   7.260   0.999   4.082
  745SOL     OW 4067  10.932   9.034   3.183
  745SOL    HW1 4068  10.948   8.967   3.250
  745SOL    HW2 4069  10.922   8.985   3.101
  746SOL     OW 4070   0.860  11.408  11.734
  746SOL    HW1 4071   0.775  11.436  11.768
  746SOL    HW2 4072   0.852  11.419  11.639
  747SOL     OW 4073   5.769  11.844   0.861
  747SOL    HW1 4074   5.743  11.857   0.770
  747SOL    HW2 4075   5.713  11.904   0.911
  748SOL     OW 4076   9.654   2.604   6.550
  748SOL    HW1 4077   9.631   2.536   6.487
  748SOL    HW2 4078   9.634   2.686   6.504
  749SOL     OW 4079  12.973  10.350   4.487
  749SOL    HW1 4080  12.916  10.387   4.419
  749SOL    HW2 4081  12.969  10.412   4.559
  750SOL     OW 4082   3.751   9.934  12.828
  750SOL    HW1 4083   3.815  10.002  12.846
  750SOL    HW2 4084   3.666   9.978  12.836
  751SOL     OW 4085  14.519  10.659   3.318
  751SOL    HW1 4086  14.439  10.711   3.311
  751SOL    HW2 4087  14.583  10.705   3.263
  752SOL     OW 4088   3.195   8.400   6.247
  752SOL    HW1 4089   3.194   8.495   6.250
  752SOL    HW2 4090   3.161   8.373   6.332
  753SOL     OW 4091   3.250   8.925  10.750
  753SOL    HW1 4092   3.213   8.913  10.837
  753SOL    HW2 4093   3.317   8.856  10.743
  754SOL     OW 4094  10.383   5.086   0.235
  754SOL    HW1 4095  10.338   5.098   0.319
  754SOL    HW2 4096  10.319   5.043   0.179
  755SOL     OW 4097  14.477  14.052   0.525
  755SOL    HW1 4098  14.506  14.056   0.434
  755SOL    HW2 4099  14.430  13.968   0.531
  756SOL     OW 4100   2.532   3.327  12.735
  756SOL    HW1 4101   2.533   3.337  12.830
  756SOL    HW2 4102   2.441   3.338  12.710
  757SOL     OW 4103   4.220   0.288   2.561
  757SOL    HW1 4104   4.134   0.283   2.521
  757SOL    HW2 4105   4.262   0.205   2.540
  758SOL     OW 4106   5.873   3.250   5.290
  758SOL    HW1 4107   5.817   3.304   5.346
  758SOL    HW2 4108   5.849   3.160   5.312
  759SOL     OW 4109  12.161   6.068  14.844
  759SOL    HW1 4110  12.250   6.104  14.851
  759SOL    HW2 4111  12.170   5.977  14.872
  760SOL     OW 4112   0.636   1.821  14.462
  760SOL    HW1 4113   0.730   1.815  14.478
  760SOL    HW2 4114   0.629   1.868  14.379
  761SOL     OW 4115   2.982   7.538  12.243
  761SOL    HW1 4116   2.943   7.587  12.170
  761SOL    HW2 4117   2.958   7.589  12.321
  762SOL     OW 4118   8.805   6.265   4.663
  762SOL    HW1 4119   8.712   6.286   4.655
  762SOL    HW2 4120   8.851   6.348   4.651
  763SOL     OW 4121   1.737  14.329   9.664
  763SOL    HW1 4122   1.760  14.301   9.752
  763SOL    HW2 4123   1.748  14.251   9.610
  764SOL     OW 4124   4.774   7.833   2.829
  764SOL    HW1 4125   4.844   7.772   2.852
  764SOL    HW2 4126   4.817   7.899   2.773
  765SOL     OW 4127  12.493  11.381   2.769
  765SOL    HW1 4128  12.550  11.365   2.845
  765SOL    HW2 4129  12.474  11.294   2.735
  766SOL     OW 4130   2.851   3.809  12.416
  766SOL    HW1 4131   2.872   3.858  12.495
  766SOL    HW2 4132   2.903   3.852  12.347
  767SOL     OW 4133  12.172   4.277   7.942
  767SOL    HW1 4134  12.121   4.282   8.022
  767SOL    HW2 4135  12.164   4.186   7.914
  768SOL     OW 4136  12.290   4.703   7.886
  768SOL    HW1 4137  12.200   4.672   7.874
  768SOL    HW2 4138  12.285   4.764   7.960
  769SOL     OW 4139   2.508   9.588   4.509
  769SOL    HW1 4140   2.557   9.509   4.488
  769SOL    HW2 4141   2.572   9.645   4.552
  770SOL     OW 4142  13.874  12.833  12.463
  770SOL    HW1 4143  13.915  12.834  12.377
  770SOL    HW2 4144  13.784  12.863  12.447
  771SOL     OW 4145   2.488   4.805   5.386
  771SOL    HW1 4146   2.506   4.787   5.294
  771SOL    HW2 4147   2.420   4.873   5.384
  772SOL     OW 4148   9.019   0.305   8.491
  772SOL    HW1 4149   9.064   0.279   8.572
  772SOL    HW2 4150   9.082   0.287   8.422
  773SOL     OW 4151  11.118   8.428   2.040
  773SOL    HW1 4152  11.069   8.459   1.963
  773SOL    HW2 4153  11.136   8.336   2.021
  774SOL     OW 4154  11.006   4.617   0.548
  774SOL    HW1 4155  11.039   4.531   0.570
  774SOL    HW2 4156  10.911   4.610   0.560
  775SOL     OW 4157   4.381   8.131  12.334
  775SOL    HW1 4158   4.316   8.181  12.284
  775SOL    HW2 4159   4.360   8.039  12.315
  776SOL     OW 4160   2.608  13.504   2.484
  776SOL    HW1 4161   2.524  13.461   2.467
  776SOL    HW2 4162   2.618  13.567   2.413
  777SOL     OW 4163   8.652   1.732  14.344
  777SOL    HW1 4164   8.634   1.648  14.303
  777SOL    HW2 4165   8.601   1.730  14.425
  778SOL     OW 4166   4.692   2.764  12.260
  778SOL    HW1 4167   4.752   2.764  12.185
  778SOL    HW2 4168   4.744   2.728  12.332
  779SOL     OW 4169   4.005   5.197   2.133
  779SOL    HW1 4170   3.982   5.104   2.132
  779SOL    HW2 4171   3.923   5.242   2.112
  780SOL     OW 4172  13.135   1.078  14.037
  780SOL    HW1 4173  13.156   1.008  13.976
  780SOL    HW2 4174  13.201   1.070  14.106
  781SOL     OW 4175   6.014   3.663   8.022
  781SOL    HW1 4176   5.964   3.743   8.034
  781SOL    HW2 4177   5.950   3.599   7.992
  782SOL     OW 4178   0.940  12.959   1.694
  782SOL    HW1 4179   0.938  12.897   1.766
  782SOL    HW2 4180   0.919  13.044   1.734
  783SOL     OW 4181  12.088   3.505   4.603
  783SOL    HW1 4182  12.104   3.585   4.553
  783SOL    HW2 4183  12.175   3.472   4.625
  784SOL     OW 4184  12.669   6.852   2.042
  784SOL    HW1 4185  12.629   6.765   2.036
  784SOL    HW2 4186  12.628   6.902   1.973
  785SOL     OW 4187   7.631   9.491  11.927
  785SOL    HW1 4188   7.657   9.514  12.016
  785SOL    HW2 4189   7.556   9.548  11.909
  786SOL     OW 4190   9.294   0.087   0.627
  786SOL    HW1 4191   9.221   0.029   0.651
  786SOL    HW2 4192   9.315   0.134   0.707
  787SOL     OW 4193   2.114   5.939   1.663
  787SOL    HW1 4194   2.173   5.904   1.730
  787SOL    HW2 4195   2.028   5.906   1.686
  788SOL     OW 4196   7.972   9.043   1.654
  788SOL    HW1 4197   7.899   9.096   1.686
  788SOL    HW2 4198   7.942   9.008   1.571
  789SOL     OW 4199   6.569   6.680   4.974
  789SOL    HW1 4200   6.608   6.644   5.054
  789SOL    HW2 4201   6.528   6.762   5.002
  790SOL     OW 4202   3.339   6.166   5.021
  790SOL    HW1 4203   3.324   6.091   5.079
  790SOL    HW2 4204   3.306   6.138   4.936
  791SOL     OW 4205  10.768   1.779   1.495
  791SOL    HW1 4206  10.859   1.782   1.466
  791SOL    HW2 4207  10.717   1.764   1.415
  792SOL     OW 4208  11.456   0.485   6.551
  792SOL    HW1 4209  11.500   0.471   6.467
  792SOL    HW2 4210  11.491   0.418   6.609
  793SOL     OW 4211   2.432   7.358  11.185
  793SOL    HW1 4212   2.439   7.379  11.092
  793SOL    HW2 4213   2.494   7.418  11.227
  794SOL     OW 4214   4.992   2.878  11.011
  794SOL    HW1 4215   4.985   2.966  10.973
  794SOL    HW2 4216   5.027   2.893  11.099
  795SOL     OW 4217   9.177   9.024   9.876
  795SOL    HW1 4218   9.142   9.007   9.789
  795SOL    HW2 4219   9.127   8.966   9.934
  796SOL     OW 4220  14.115   5.189   0.151
  796SOL    HW1 4221  14.098   5.097   0.171
  796SOL    HW2 4222  14.073   5.237   0.222
  797SOL     OW 4223   0.219   8.658   1.484
  797SOL    HW1 4224   0.286   8.711   1.528
  797SOL    HW2 4225   0.268   8.603   1.423
  798SOL     OW 4226   9.718   1.386   5.337
  798SOL    HW1 4227   9.708   1.341   5.253
  798SOL    HW2 4228   9.687   1.475   5.320
  799SOL     OW 4229   9.199   0.152   2.930
  799SOL    HW1 4230   9.293   0.134   2.932
  799SOL    HW2 4231   9.178   0.160   2.837
  800SOL     OW 4232   5.680   0.146   5.252
  800SOL    HW1 4233   5.771   0.129   5.225
  800SOL    HW2 4234   5.689   0.205   5.328
  801SOL     OW 4235   8.740   0.939   4.846
  801SOL    HW1 4236   8.760   1.022   4.889
  801SOL    HW2 4237   8.712   0.881   4.917
  802SOL     OW 4238   3.995  10.503   5.353
  802SOL    HW1 4239   4.014  10.439   5.422
  802SOL    HW2 4240   4.060  10.484   5.285
  803SOL     OW 4241   9.539   1.005  12.094
  803SOL    HW1 4242   9.511   1.096  12.086
  803SOL    HW2 4243   9.583   1.001  12.179
  804SOL     OW 4244   2.271   8.125   0.183
  804SOL    HW1 4245   2.190   8.171   0.161
  804SOL    HW2 4246   2.243   8.058   0.245
  805SOL     OW 4247   2.869   5.083   8.257
  805SOL    HW1 4248   2.846   5.082   8.350
  805SOL    HW2 4249   2.904   4.995   8.240
  806SOL     OW 4250   6.259   2.532  12.081
  806SOL    HW1 4251   6.293   2.448  12.050
  806SOL    HW2 4252   6.285   2.595  12.014
  807SOL     OW 4253  12.010   5.001   8.085
  807SOL    HW1 4254  11.932   4.988   8.032
  807SOL    HW2 4255  12.014   4.924   8.142
  808SOL     OW 4256  14.758   8.622  10.720
  808SOL    HW1 4257  14.758   8.588  10.810
  808SOL    HW2 4258  14.821   8.566  10.674
  809SOL     OW 4259  12.619   2.466   7.123
  809SOL    HW1 4260  12.553   2.421   7.176
  809SOL    HW2 4261  12.698   2.466   7.177
  810SOL     OW 4262   3.410  10.347  14.490
  810SOL    HW1 4263   3.326  10.388  14.469
  810SOL    HW2 4264   3.446  10.321  14.405
  811SOL     OW 4265   4.559   0.569  14.059
  811SOL    HW1 4266   4.562   0.518  13.978
  811SOL    HW2 4267   4.594   0.655  14.033
  812SOL     OW 4268  11.546   6.570   8.417
  812SOL    HW1 4269  11.460   6.593   8.382
  812SOL    HW2 4270  11.599   6.550   8.340
  813SOL     OW 4271  10.390   3.580   3.474
  813SOL    HW1 4272  10.352   3.612   3.556
  813SOL    HW2 4273  10.480   3.612   3.474
  814SOL     OW 4274   8.551   3.121  13.428
  814SOL    HW1 4275   8.603   3.059  13.376
  814SOL    HW2 4276   8.607   3.143  13.502
  815SOL     OW 4277  10.299  14.841   1.623
  815SOL    HW1 4278  10.358  14.775   1.585
  815SOL    HW2 4279  10.256   0.007   1.547
  816SOL     OW 4280   3.998   2.794  12.527
  816SOL    HW1 4281   3.971   2.735  12.456
  816SOL    HW2 4282   3.955   2.759  12.605
  817SOL     OW 4283   2.034  14.015   7.294
  817SOL    HW1 4284   2.119  14.023   7.338
  817SOL    HW2 4285   2.055  13.991   7.204
  818SOL     OW 4286   5.166   8.741   5.979
  818SOL    HW1 4287   5.234   8.676   5.961
  818SOL    HW2 4288   5.207   8.825   5.956
  819SOL     OW 4289   8.113   9.905   8.528
  819SOL    HW1 4290   8.018   9.893   8.535
  819SOL    HW2 4291   8.141   9.927   8.617
  820SOL     OW 4292   8.886   2.513  12.566
  820SOL    HW1 4293   8.864   2.421  12.581
  820SOL    HW2 4294   8.956   2.511  12.501
  821SOL     OW 4295  14.338  11.698   6.728
  821SOL    HW1 4296  14.325  11.755   6.804
  821SOL    HW2 4297  14.275  11.728   6.664
  822SOL     OW 4298   6.967   8.725  12.390
  822SOL    HW1 4299   6.959   8.635  12.358
  822SOL    HW2 4300   6.878   8.749  12.415
  823SOL     OW 4301  13.809   8.108   9.262
  823SOL    HW1 4302  13.832   8.153   9.181
  823SOL    HW2 4303  13.714   8.093   9.255
  824SOL     OW 4304   5.815  10.550   3.412
  824SOL    HW1 4305   5.769  10.477   3.453
  824SOL    HW2 4306   5.859  10.511   3.337
  825SOL     OW 4307   1.854   3.930   2.123
  825SOL    HW1 4308   1.779   3.871   2.129
  825SOL    HW2 4309   1.931   3.872   2.129
  826SOL     OW 4310   8.589   0.859   1.259
  826SOL    HW1 4311   8.533   0.895   1.191
  826SOL    HW2 4312   8.562   0.768   1.267
  827SOL     OW 4313  14.760  14.673  11.612
  827SOL    HW1 4314  14.713  14.591  11.597
  827SOL    HW2 4315  14.694  14.741  11.600
  828SOL     OW 4316  12.248   1.365   3.840
  828SOL    HW1 4317  12.285   1.342   3.925
  828SOL    HW2 4318  12.160   1.398   3.860
  829SOL     OW 4319   3.931   5.990   9.587
  829SOL    HW1 4320   3.886   6.071   9.614
  829SOL    HW2 4321   3.900   5.924   9.650
  830SOL     OW 4322   2.529  14.533   0.258
  830SOL    HW1 4323   2.544  14.582   0.339
  830SOL    HW2 4324   2.595  14.566   0.197
  831SOL     OW 4325   5.884  12.752   5.729
  831SOL    HW1 4326   5.795  12.788   5.723
  831SOL    HW2 4327   5.873  12.671   5.780
  832SOL     OW 4328   6.102   8.399   2.826
  832SOL    HW1 4329   6.195   8.417   2.815
  832SOL    HW2 4330   6.096   8.303   2.828
  833SOL     OW 4331  13.740   3.589   9.533
  833SOL    HW1 4332  13.758   3.677   9.565
  833SOL    HW2 4333  13.743   3.534   9.611
  834SOL     OW 4334   3.527  12.629   4.911
  834SOL    HW1 4335   3.450  12.656   4.961
  834SOL    HW2 4336   3.563  12.556   4.961
  835SOL     OW 4337   6.910   2.790   7.344
  835SOL    HW1 4338   6.978   2.855   7.325
  835SOL    HW2 4339   6.951   2.706   7.326
  836SOL     OW 4340   1.426   8.418   3.738
  836SOL    HW1 4341   1.402   8.461   3.820
  836SOL    HW2 4342   1.376   8.336   3.737
  837SOL     OW 4343   6.142   9.730  11.857
  837SOL    HW1 4344   6.213   9.749  11.918
  837SOL    HW2 4345   6.067   9.709  11.913
  838SOL     OW 4346  13.284  14.139   1.741
  838SOL    HW1 4347  13.233  14.086   1.679
  838SOL    HW2 4348  13.233  14.219   1.752
  839SOL     OW 4349   0.225   2.522  13.998
  839SOL    HW1 4350   0.184   2.510  14.083
  839SOL    HW2 4351   0.276   2.442  13.985
  840SOL     OW 4352  11.085   9.607   7.187
  840SOL    HW1 4353  11.169   9.629   7.229
  840SOL    HW2 4354  11.083   9.660   7.108
  841SOL     OW 4355   4.119   4.920   6.663
  841SOL    HW1 4356   4.178   4.987   6.699
  841SOL    HW2 4357   4.033   4.943   6.698
  842SOL     OW 4358  10.072   3.532  10.292
  842SOL    HW1 4359  10.088   3.560  10.202
  842SOL    HW2 4360  10.156   3.545  10.337
  843SOL     OW 4361   1.355   6.549  13.385
  843SOL    HW1 4362   1.392   6.526  13.300
  843SOL    HW2 4363   1.296   6.622  13.367
  844SOL     OW 4364  12.863  12.383   4.020
  844SOL    HW1 4365  12.859  12.468   3.974
  844SOL    HW2 4366  12.872  12.319   3.949
  845SOL     OW 4367  13.492   5.236   1.688
  845SOL    HW1 4368  13.526   5.309   1.740
  845SOL    HW2 4369  13.444   5.182   1.751
  846SOL     OW 4370   4.123  14.258   0.525
  846SOL    HW1 4371   4.076  14.179   0.554
  846SOL    HW2 4372   4.131  14.247   0.430
  847SOL     OW 4373   9.007   3.932   2.583
  847SOL    HW1 4374   8.974   3.964   2.499
  847SOL    HW2 4375   9.097   3.966   2.587
  848SOL     OW 4376   4.470  10.206   9.339
  848SOL    HW1 4377   4.417  10.140   9.384
  848SOL    HW2 4378   4.525  10.155   9.280
  849SOL     OW 4379   3.790  13.126  12.992
  849SOL    HW1 4380   3.777  13.109  13.085
  849SOL    HW2 4381   3.701  13.127  12.956
  850SOL     OW 4382   8.601   0.937   7.172
  850SOL    HW1 4383   8.596   0.841   7.175
  850SOL    HW2 4384   8.510   0.965   7.160
  851SOL     OW 4385   1.173  11.582  12.067
  851SOL    HW1 4386   1.260  11.568  12.105
  851SOL    HW2 4387   1.136  11.494  12.061
  852SOL     OW 4388  11.984  12.872   4.774
  852SOL    HW1 4389  11.907  12.926   4.791
  852SOL    HW2 4390  12.058  12.931   4.788
  853SOL     OW 4391   6.784   4.259   3.738
  853SOL    HW1 4392   6.788   4.188   3.674
  853SOL    HW2 4393   6.711   4.314   3.709
  854SOL     OW 4394   0.412   4.432   4.095
  854SOL    HW1 4395   0.349   4.492   4.055
  854SOL    HW2 4396   0.497   4.472   4.076
  855SOL     OW 4397   0.324   5.047  10.829
  855SOL    HW1 4398   0.303   4.992  10.754
  855SOL    HW2 4399   0.302   4.993  10.906
  856SOL     OW 4400   5.565  10.796   1.573
  856SOL    HW1 4401   5.487  10.756   1.535
  856SOL    HW2 4402   5.570  10.760   1.662
  857SOL     OW 4403   1.913   5.920  14.564
  857SOL    HW1 4404   1.994   5.937  14.611
  857SOL    HW2 4405   1.845   5.962  14.617
  858SOL     OW 4406   4.426   1.704   9.733
  858SOL    HW1 4407   4.509   1.655   9.737
  858SOL    HW2 4408   4.365   1.644   9.689
  859SOL     OW 4409   1.000   8.729  10.188
  859SOL    HW1 4410   0.990   8.703  10.097
  859SOL    HW2 4411   1.073   8.792  10.187
  860SOL     OW 4412   1.090  13.027   7.607
  860SOL    HW1 4413   1.054  12.945   7.571
  860SOL    HW2 4414   1.167  12.999   7.656
  861SOL     OW 4415  10.012   5.275   5.900
  861SOL    HW1 4416  10.029   5.366   5.924
  861SOL    HW2 4417  10.000   5.230   5.984
  862SOL     OW 4418   9.968  13.512   3.276
  862SOL    HW1 4419   9.905  13.451   3.314
  862SOL    HW2 4420   9.925  13.546   3.197
  863SOL     OW 4421  14.230  11.634  14.416
  863SOL    HW1 4422  14.297  11.566  14.419
  863SOL    HW2 4423  14.255  11.695  14.486
  864SOL     OW 4424  11.721   8.810   7.356
  864SOL    HW1 4425  11.675   8.847   7.432
  864SOL    HW2 4426  11.759   8.885   7.312
  865SOL     OW 4427  10.896   7.579  14.662
  865SOL    HW1 4428  10.925   7.564  14.572
  865SOL    HW2 4429  10.807   7.610  14.654
  866SOL     OW 4430  11.632  14.692   6.534
  866SOL    HW1 4431  11.607  14.745   6.609
  866SOL    HW2 4432  11.650  14.605   6.571
  867SOL     OW 4433   3.505   1.681   6.930
  867SOL    HW1 4434   3.544   1.753   6.981
  867SOL    HW2 4435   3.470   1.621   6.996
  868SOL     OW 4436   6.045  12.734  11.053
  868SOL    HW1 4437   6.040  12.701  11.143
  868SOL    HW2 4438   6.138  12.746  11.036
  869SOL     OW 4439   9.695   0.596   7.581
  869SOL    HW1 4440   9.706   0.524   7.643
  869SOL    HW2 4441   9.601   0.611   7.577
  870SOL     OW 4442   9.273   7.952   5.285
  870SOL    HW1 4443   9.202   7.989   5.339
  870SOL    HW2 4444   9.324   8.027   5.258
  871SOL     OW 4445  14.743   5.316   7.951
  871SOL    HW1 4446  14.708   5.227   7.952
  871SOL    HW2 4447  14.715   5.353   8.034
  872SOL     OW 4448   8.473   8.156   9.177
  872SOL    HW1 4449   8.567   8.153   9.194
  872SOL    HW2 4450   8.432   8.149   9.263
  873SOL     OW 4451   5.889   7.330  10.044
  873SOL    HW1 4452   5.865   7.284  10.125
  873SOL    HW2 4453   5.983   7.319  10.038
  874SOL     OW 4454   2.159   9.028   9.682
  874SOL    HW1 4455   2.212   8.968   9.630
  874SOL    HW2 4456   2.192   9.115   9.661
  875SOL     OW 4457   4.882   6.031  12.358
  875SOL    HW1 4458   4.874   6.066  12.269
  875SOL    HW2 4459   4.928   5.948  12.347
  876SOL     OW 4460  14.838   0.320   9.173
  876SOL    HW1 4461  14.791   0.250   9.217
  876SOL    HW2 4462   0.055   0.314   9.206
  877SOL     OW 4463   4.423   1.188   2.240
  877SOL    HW1 4464   4.397   1.104   2.278
  877SOL    HW2 4465   4.424   1.172   2.146
  878SOL     OW 4466   5.837   6.483   2.881
  878SOL    HW1 4467   5.758   6.535   2.891
  878SOL    HW2 4468   5.903   6.531   2.932
  879SOL     OW 4469   7.926  12.353   9.563
  879SOL    HW1 4470   7.978  12.432   9.543
  879SOL    HW2 4471   7.930  12.347   9.658
  880SOL     OW 4472   4.367  13.258   7.185
  880SOL    HW1 4473   4.348  13.192   7.252
  880SOL    HW2 4474   4.463  13.259   7.180
  881SOL     OW 4475   0.878   1.818   6.250
  881SOL    HW1 4476   0.839   1.797   6.335
  881SOL    HW2 4477   0.895   1.912   6.254
  882SOL     OW 4478  13.161   6.415  10.608
  882SOL    HW1 4479  13.204   6.378  10.685
  882SOL    HW2 4480  13.077   6.369  10.603
  883SOL     OW 4481   5.340   2.243  14.698
  883SOL    HW1 4482   5.261   2.290  14.671
  883SOL    HW2 4483   5.334   2.237  14.793
  884SOL     OW 4484   0.065  10.066  11.310
  884SOL    HW1 4485   0.062   9.973  11.332
  884SOL    HW2 4486   0.154  10.081  11.279
  885SOL     OW 4487   1.385  12.221  11.816
  885SOL    HW1 4488   1.454  12.247  11.755
  885SOL    HW2 4489   1.432  12.175  11.886
  886SOL     OW 4490   6.112  10.053   6.661
  886SOL    HW1 4491   6.132   9.987   6.728
  886SOL    HW2 4492   6.068  10.123   6.710
  887SOL     OW 4493   9.693   9.698   5.013
  887SOL    HW1 4494   9.739   9.781   5.010
  887SOL    HW2 4495   9.693   9.673   5.105
  888SOL     OW 4496   9.127   1.753   8.478
  888SOL    HW1 4497   9.203   1.811   8.492
  888SOL    HW2 4498   9.161   1.665   8.493
  889SOL     OW 4499   7.241  12.013  13.651
  889SOL    HW1 4500   7.323  12.020  13.602
  889SOL    HW2 4501   7.247  12.084  13.716
  890SOL     OW 4502  14.391   1.936   7.230
  890SOL    HW1 4503  14.420   1.923   7.321
  890SOL    HW2 4504  14.352   1.852   7.205
  891SOL     OW 4505   3.818  14.340  10.776
  891SOL    HW1 4506   3.905  14.343  10.737
  891SOL    HW2 4507   3.762  14.384  10.713
  892SOL     OW 4508   6.736   9.136   6.212
  892SOL    HW1 4509   6.776   9.221   6.194
  892SOL    HW2 4510   6.745   9.125   6.307
  893SOL     OW 4511  13.298   4.729  14.344
  893SOL    HW1 4512  13.376   4.726  14.288
  893SOL    HW2 4513  13.260   4.642  14.337
  894SOL     OW 4514   4.404   0.285   8.094
  894SOL    HW1 4515   4.386   0.233   8.015
  894SOL    HW2 4516   4.373   0.230   8.166
  895SOL     OW 4517   9.364   1.290   7.849
  895SOL    HW1 4518   9.314   1.370   7.859
  895SOL    HW2 4519   9.399   1.273   7.937
  896SOL     OW 4520   1.798   0.760   7.834
  896SOL    HW1 4521   1.866   0.693   7.838
  896SOL    HW2 4522   1.741   0.741   7.909
  897SOL     OW 4523   8.109  13.691   4.498
  897SOL    HW1 4524   8.021  13.666   4.471
  897SOL    HW2 4525   8.142  13.616   4.548
  898SOL     OW 4526  11.850   5.062   1.479
  898SOL    HW1 4527  11.788   5.063   1.551
  898SOL    HW2 4528  11.819   5.128   1.418
  899SOL     OW 4529   6.566   1.978   0.115
  899SOL    HW1 4530   6.577   1.954   0.023
  899SOL    HW2 4531   6.539   2.070   0.112
  900SOL     OW 4532   9.231   9.130   8.043
  900SOL    HW1 4533   9.171   9.202   8.060
  900SOL    HW2 4534   9.187   9.053   8.080
  901SOL     OW 4535  11.105   2.729   4.349
  901SOL    HW1 4536  11.150   2.763   4.271
  901SOL    HW2 4537  11.053   2.655   4.315
  902SOL     OW 4538   1.989   1.195   8.324
  902SOL    HW1 4539   1.908   1.156   8.291
  902SOL    HW2 4540   2.022   1.131   8.387
  903SOL     OW 4541   8.622  10.970   5.509
  903SOL    HW1 4542   8.551  10.991   5.569
  903SOL    HW2 4543   8.622  11.043   5.446
  904SOL     OW 4544   5.220  10.272   7.064
  904SOL    HW1 4545   5.200  10.248   6.973
  904SOL    HW2 4546   5.143  10.322   7.093
  905SOL     OW 4547   3.701  14.776   7.977
  905SOL    HW1 4548   3.690  14.864   8.014
  905SOL    HW2 4549   3.672  14.717   8.047
  906SOL     OW 4550  12.467  10.323   3.969
  906SOL    HW1 4551  12.417  10.285   4.042
  906SOL    HW2 4552  12.483  10.414   3.996
  907SOL     OW 4553   3.287  11.643   8.116
  907SOL    HW1 4554   3.328  11.725   8.092
  907SOL    HW2 4555   3.270  11.599   8.033
  908SOL     OW 4556   3.388  14.517   5.578
  908SOL    HW1 4557   3.354  14.601   5.610
  908SOL    HW2 4558   3.312  14.460   5.575
  909SOL     OW 4559   4.731   9.489   4.178
  909SOL    HW1 4560   4.658   9.521   4.231
  909SOL    HW2 4561   4.779   9.430   4.236
  910SOL     OW 4562  13.810   5.994  13.301
  910SOL    HW1 4563  13.780   5.922  13.357
  910SOL    HW2 4564  13.768   5.978  13.217
  911SOL     OW 4565   9.694  10.435   8.479
  911SOL    HW1 4566   9.769  10.495   8.474
  911SOL    HW2 4567   9.618  10.493   8.484
  912SOL     OW 4568   4.221   8.117   6.864
  912SOL    HW1 4569   4.219   8.089   6.955
  912SOL    HW2 4570   4.313   8.134   6.845
  913SOL     OW 4571   7.547   5.138  11.520
  913SOL    HW1 4572   7.544   5.064  11.460
  913SOL    HW2 4573   7.482   5.199  11.486
  914SOL     OW 4574   7.605  14.127  13.838
  914SOL    HW1 4575   7.549  14.076  13.780
  914SOL    HW2 4576   7.547  14.194  13.875
  915SOL     OW 4577   3.409   2.798   3.590
  915SOL    HW1 4578   3.403   2.870   3.528
  915SOL    HW2 4579   3.404   2.719   3.536
  916SOL     OW 4580   0.426   7.473  13.835
  916SOL    HW1 4581   0.413   7.455  13.928
  916SOL    HW2 4582   0.374   7.551  13.818
  917SOL     OW 4583  14.667   3.579   6.349
  917SOL    HW1 4584  14.597   3.623   6.397
  917SOL    HW2 4585  14.692   3.506   6.406
  918SOL     OW 4586   4.439   3.189  14.675
  918SOL    HW1 4587   4.407   3.109  14.716
  918SOL    HW2 4588   4.361   3.244  14.666
  919SOL     OW 4589   9.761  12.585   5.870
  919SOL    HW1 4590   9.807  12.645   5.928
  919SOL    HW2 4591   9.825  12.564   5.802
  920SOL     OW 4592   3.800   6.902  11.120
  920SOL    HW1 4593   3.707   6.892  11.101
  920SOL    HW2 4594   3.819   6.835  11.186
  921SOL     OW 4595   6.198  13.222   5.270
  921SOL    HW1 4596   6.286  13.232   5.234
  921SOL    HW2 4597   6.207  13.245   5.362
  922SOL     OW 4598   2.076   4.819  11.149
  922SOL    HW1 4599   2.156   4.767  11.144
  922SOL    HW2 4600   2.008   4.763  11.110
  923SOL     OW 4601   6.771   3.352  14.556
  923SOL    HW1 4602   6.848   3.399  14.523
  923SOL    HW2 4603   6.714   3.343  14.480
  924SOL     OW 4604   8.007  14.127   8.937
  924SOL    HW1 4605   7.990  14.099   8.848
  924SOL    HW2 4606   8.102  14.122   8.947
  925SOL     OW 4607  11.361   7.167  13.337
  925SOL    HW1 4608  11.349   7.208  13.423
  925SOL    HW2 4609  11.285   7.195  13.286
  926SOL     OW 4610  11.147   0.855  11.013
  926SOL    HW1 4611  11.111   0.829  11.098
  926SOL    HW2 4612  11.096   0.932  10.988
  927SOL     OW 4613  10.445   8.688  11.008
  927SOL    HW1 4614  10.498   8.744  11.066
  927SOL    HW2 4615  10.359   8.730  11.008
  928SOL     OW 4616  12.511   4.070   7.105
  928SOL    HW1 4617  12.536   4.116   7.025
  928SOL    HW2 4618  12.569   3.994   7.108
  929SOL     OW 4619   1.492   7.023  13.632
  929SOL    HW1 4620   1.497   7.114  13.602
  929SOL    HW2 4621   1.499   7.030  13.728
  930SOL     OW 4622   3.160  11.558   2.377
  930SOL    HW1 4623   3.076  11.521   2.349
  930SOL    HW2 4624   3.191  11.497   2.445
  931SOL     OW 4625  13.699   8.002  13.585
  931SOL    HW1 4626  13.762   8.039  13.523
  931SOL    HW2 4627  13.614   8.030  13.552
  932SOL     OW 4628   5.439   0.530   5.817
  932SOL    HW1 4629   5.474   0.465   5.755
  932SOL    HW2 4630   5.454   0.491   5.903
  933SOL     OW 4631   4.885   9.092   3.016
  933SOL    HW1 4632   4.822   9.094   2.944
  933SOL    HW2 4633   4.832   9.086   3.095
  934SOL     OW 4634   1.173   8.848  13.220
  934SOL    HW1 4635   1.197   8.862  13.128
  934SOL    HW2 4636   1.248   8.878  13.270
  935SOL     OW 4637   4.531   1.020  10.302
  935SOL    HW1 4638   4.466   1.081  10.268
  935SOL    HW2 4639   4.615   1.052  10.267
  936SOL     OW 4640  11.048   7.795  10.557
  936SOL    HW1 4641  11.029   7.889  10.564
  936SOL    HW2 4642  11.142   7.789  10.571
  937SOL     OW 4643   7.030   1.410  12.843
  937SOL    HW1 4644   7.014   1.354  12.918
  937SOL    HW2 4645   6.943   1.440  12.816
  938SOL     OW 4646  13.446   5.087  12.081
  938SOL    HW1 4647  13.537   5.068  12.103
  938SOL    HW2 4648  13.411   5.134  12.156
  939SOL     OW 4649   5.919   2.694   3.210
  939SOL    HW1 4650   5.838   2.645   3.200
  939SOL    HW2 4651   5.987   2.627   3.222
  940SOL     OW 4652  12.296   5.264   8.988
  940SOL    HW1 4653  12.204   5.241   8.971
  940SOL    HW2 4654  12.291   5.333   9.055
  941SOL     OW 4655   0.322   3.196  11.914
  941SOL    HW1 4656   0.237   3.228  11.882
  941SOL    HW2 4657   0.301   3.117  11.964
  942SOL     OW 4658   7.326   6.647   6.271
  942SOL    HW1 4659   7.307   6.679   6.360
  942SOL    HW2 4660   7.298   6.718   6.214
  943SOL     OW 4661   7.988   5.694  14.477
  943SOL    HW1 4662   7.930   5.674  14.403
  943SOL    HW2 4663   8.061   5.741  14.438
  944SOL     OW 4664  13.312  11.211  14.137
  944SOL    HW1 4665  13.352  11.125  14.153
  944SOL    HW2 4666  13.386  11.271  14.135
  945SOL     OW 4667  13.883  11.353   5.031
  945SOL    HW1 4668  13.841  11.345   5.117
  945SOL    HW2 4669  13.976  11.369   5.052
  946SOL     OW 4670  10.013  13.800   8.351
  946SOL    HW1 4671  10.061  13.798   8.268
  946SOL    HW2 4672   9.944  13.864   8.337
  947SOL     OW 4673   6.652  12.412   7.172
  947SOL    HW1 4674   6.707  12.439   7.245
  947SOL    HW2 4675   6.627  12.322   7.192
  948SOL     OW 4676   5.523  10.227   5.649
  948SOL    HW1 4677   5.569  10.184   5.576
  948SOL    HW2 4678   5.487  10.155   5.700
  949SOL     OW 4679   0.951  10.269  14.799
  949SOL    HW1 4680   0.981  10.247  14.711
  949SOL    HW2 4681   0.973  10.192  14.852
  950SOL     OW 4682  10.604  12.888  12.654
  950SOL    HW1 4683  10.580  12.925  12.739
  950SOL    HW2 4684  10.606  12.794  12.669
  951SOL     OW 4685   2.049   1.643   4.330
  951SOL    HW1 4686   1.979   1.579   4.338
  951SOL    HW2 4687   2.087   1.649   4.418
  952SOL     OW 4688   6.748   3.905   4.370
  952SOL    HW1 4689   6.686   3.915   4.298
  952SOL    HW2 4690   6.696   3.916   4.450
  953SOL     OW 4691   2.391   5.362   8.889
  953SOL    HW1 4692   2.416   5.272   8.909
  953SOL    HW2 4693   2.402   5.410   8.971
  954SOL     OW 4694   9.354  13.091  12.936
  954SOL    HW1 4695   9.336  13.184  12.954
  954SOL    HW2 4696   9.312  13.076  12.851
  955SOL     OW 4697   0.495   9.379   6.988
  955SOL    HW1 4698   0.589   9.379   6.967
  955SOL    HW2 4699   0.491   9.344   7.076
  956SOL     OW 4700   6.936  10.823   1.199
  956SOL    HW1 4701   6.923  10.730   1.182
  956SOL    HW2 4702   6.851  10.854   1.229
  957SOL     OW 4703   8.390   2.189  13.045
  957SOL    HW1 4704   8.470   2.239  13.064
  957SOL    HW2 4705   8.374   2.204  12.952
  958SOL     OW 4706  10.734   4.988   6.130
  958SOL    HW1 4707  10.656   5.043   6.118
  958SOL    HW2 4708  10.703   4.912   6.178
  959SOL     OW 4709   1.287   5.135  11.130
  959SOL    HW1 4710   1.219   5.096  11.075
  959SOL    HW2 4711   1.246   5.147  11.215
  960SOL     OW 4712   9.702   7.988   7.592
  960SOL    HW1 4713   9.610   8.008   7.574
  960SOL    HW2 4714   9.740   8.071   7.620
  961SOL     OW 4715   1.227   6.967   1.695
  961SOL    HW1 4716   1.255   7.058   1.708
  961SOL    HW2 4717   1.201   6.937   1.782
  962SOL     OW 4718  10.320  10.698  12.398
  962SOL    HW1 4719  10.327  10.626  12.336
  962SOL    HW2 4720  10.290  10.772  12.345
  963SOL     OW 4721   7.613   6.489  12.976
  963SOL    HW1 4722   7.526   6.516  13.007
  963SOL    HW2 4723   7.659   6.572  12.960
  964SOL     OW 4724   7.217   6.393   6.376
  964SOL    HW1 4725   7.289   6.340   6.411
  964SOL    HW2 4726   7.258   6.475   6.349
  965SOL     OW 4727  13.598   2.661   6.659
  965SOL    HW1 4728  13.533   2.601   6.695
  965SOL    HW2 4729  13.555   2.700   6.584
  966SOL     OW 4730   7.269   0.203   3.003
  966SOL    HW1 4731   7.301   0.229   2.917
  966SOL    HW2 4732   7.308   0.266   3.064
  967SOL     OW 4733  11.620  14.345   1.845
  967SOL    HW1 4734  11.607  14.421   1.902
  967SOL    HW2 4735  11.696  14.368   1.792
  968SOL     OW 4736   2.105   5.926   1.162
  968SOL    HW1 4737   2.196   5.947   1.143
  968SOL    HW2 4738   2.096   5.834   1.138
  969SOL     OW 4739   8.659   2.686   2.159
  969SOL    HW1 4740   8.635   2.688   2.066
  969SOL    HW2 4741   8.681   2.595   2.177
  970SOL     OW 4742   1.471   5.695  10.145
  970SOL    HW1 4743   1.454   5.737  10.229
  970SOL    HW2 4744   1.486   5.603  10.167
  971SOL     OW 4745   8.264  11.919   1.143
  971SOL    HW1 4746   8.199  11.988   1.157
  971SOL    HW2 4747   8.334  11.962   1.094
  972SOL     OW 4748   0.056   2.747   8.701
  972SOL    HW1 4749   0.124   2.724   8.764
  972SOL    HW2 4750   0.102   2.758   8.618
  973SOL     OW 4751   2.033   9.880   5.397
  973SOL    HW1 4752   2.124   9.848   5.396
  973SOL    HW2 4753   1.982   9.807   5.362
  974SOL     OW 4754  14.707   2.209   8.746
  974SOL    HW1 4755  14.725   2.136   8.806
  974SOL    HW2 4756  14.775   2.273   8.765
  975SOL     OW 4757   8.391   2.035   1.236
  975SOL    HW1 4758   8.456   2.017   1.168
  975SOL    HW2 4759   8.432   2.006   1.317
  976SOL     OW 4760  11.530   2.542   8.822
  976SOL    HW1 4761  11.457   2.486   8.794
  976SOL    HW2 4762  11.551   2.510   8.910
  977SOL     OW 4763   1.609   4.106   6.833
  977SOL    HW1 4764   1.614   4.116   6.738
  977SOL    HW2 4765   1.520   4.073   6.848
  978SOL     OW 4766   5.011   9.855   7.518
  978SOL    HW1 4767   5.020   9.950   7.519
  978SOL    HW2 4768   4.951   9.838   7.446
  979SOL     OW 4769   3.059   3.215   4.137
  979SOL    HW1 4770   3.008   3.174   4.068
  979SOL    HW2 4771   3.127   3.264   4.091
  980SOL     OW 4772   3.452  10.150   4.873
  980SOL    HW1 4773   3.500  10.186   4.947
  980SOL    HW2 4774   3.375  10.108   4.912
  981SOL     OW 4775   5.331  11.774   3.174
  981SOL    HW1 4776   5.252  11.753   3.125
  981SOL    HW2 4777   5.300  11.789   3.263
  982SOL     OW 4778   9.179  12.422  10.365
  982SOL    HW1 4779   9.198  12.336  10.328
  982SOL    HW2 4780   9.207  12.484  10.297
  983SOL     OW 4781   4.937   4.998   0.325
  983SOL    HW1 4782   4.948   5.058   0.251
  983SOL    HW2 4783   4.972   4.915   0.293
  984SOL     OW 4784   1.211  12.404   8.820
  984SOL    HW1 4785   1.147  12.408   8.891
  984SOL    HW2 4786   1.209  12.313   8.791
  985SOL     OW 4787   2.734  13.026   5.447
  985SOL    HW1 4788   2.712  13.044   5.355
  985SOL    HW2 4789   2.652  12.997   5.486
  986SOL     OW 4790  14.396  13.784   4.812
  986SOL    HW1 4791  14.394  13.820   4.723
  986SOL    HW2 4792  14.426  13.857   4.866
  987SOL     OW 4793   2.517   7.084  12.823
  987SOL    HW1 4794   2.448   7.067  12.760
  987SOL    HW2 4795   2.591   7.116  12.770
  988SOL     OW 4796   6.567   6.809   4.392
  988SOL    HW1 4797   6.617   6.787   4.470
  988SOL    HW2 4798   6.476   6.803   4.418
  989SOL     OW 4799  10.745   2.893  13.407
  989SOL    HW1 4800  10.802   2.908  13.331
  989SOL    HW2 4801  10.731   2.981  13.443
  990SOL     OW 4802   5.850  14.655  13.018
  990SOL    HW1 4803   5.830  14.616  12.933
  990SOL    HW2 4804   5.783  14.722  13.030
  991SOL     OW 4805  12.118  12.830   9.257
  991SOL    HW1 4806  12.115  12.911   9.308
  991SOL    HW2 4807  12.210  12.822   9.231
  992SOL     OW 4808   4.259   9.812  11.702
  992SOL    HW1 4809   4.332   9.790  11.645
  992SOL    HW2 4810   4.292   9.796  11.791
  993SOL     OW 4811   4.183  14.312   0.897
  993SOL    HW1 4812   4.158  14.398   0.863
  993SOL    HW2 4813   4.119  14.252   0.859
  994SOL     OW 4814   8.990   7.278   9.453
  994SOL    HW1 4815   8.898   7.256   9.469
  994SOL    HW2 4816   9.035   7.257   9.535
  995SOL     OW 4817   7.056  14.513  11.078
  995SOL    HW1 4818   7.143  14.477  11.095
  995SOL    HW2 4819   7.072  14.583  11.014
  996SOL     OW 4820  14.299   2.955  13.732
  996SOL    HW1 4821  14.215   2.954  13.686
  996SOL    HW2 4822  14.351   3.022  13.686
  997SOL     OW 4823   6.463   8.324   2.620
  997SOL    HW1 4824   6.531   8.341   2.555
  997SOL    HW2 4825   6.383   8.358   2.580
  998SOL     OW 4826  14.266   2.297   5.492
  998SOL    HW1 4827  14.359   2.310   5.473
  998SOL    HW2 4828  14.221   2.360   5.436
  999SOL     OW 4829  14.868   6.664   9.294
  999SOL    HW1 4830  14.860   6.701   9.382
  999SOL    HW2 4831   0.087   6.639   9.287
 1000SOL     OW 4832  11.763   9.915  12.142
 1000SOL    HW1 4833  11.709   9.976  12.092
 1000SOL    HW2 4834  11.812   9.866  12.076
 1001SOL     OW 4835  14.128   3.252   7.907
 1001SOL    HW1 4836  14.134   3.207   7.992
 1001SOL    HW2 4837  14.077   3.331   7.925
 1002SOL     OW 4838   4.906   1.014   9.722
 1002SOL    HW1 4839   4.815   1.000   9.747
 1002SOL    HW2 4840   4.936   1.085   9.780
 1003SOL     OW 4841   6.367   7.929   8.485
 1003SOL    HW1 4842   6.313   7.989   8.538
 1003SOL    HW2 4843   6.334   7.842   8.507
 1004SOL     OW 4844   6.764  14.433  13.211
 1004SOL    HW1 4845   6.815  14.453  13.290
 1004SOL    HW2 4846   6.786  14.343  13.190
 1005SOL     OW 4847   2.646   0.729  14.469
 1005SOL    HW1 4848   2.692   0.671  14.529
 1005SOL    HW2 4849   2.631   0.809  14.519
 1006SOL     OW 4850  13.532   7.898   1.936
 1006SOL    HW1 4851  13.510   7.822   1.882
 1006SOL    HW2 4852  13.530   7.972   1.875
 1007SOL     OW 4853   2.471   8.123   6.166
 1007SOL    HW1 4854   2.517   8.187   6.220
 1007SOL    HW2 4855   2.530   8.108   6.092
 1008SOL     OW 4856   1.341  14.871  12.696
 1008SOL    HW1 4857   1.434   0.008  12.718
 1008SOL    HW2 4858   1.342  14.827  12.610
 1009SOL     OW 4859   1.173   9.558  12.002
 1009SOL    HW1 4860   1.266   9.535  12.005
 1009SOL    HW2 4861   1.162   9.602  11.918
 1010SOL     OW 4862   8.739  13.012  12.120
 1010SOL    HW1 4863   8.651  13.045  12.102
 1010SOL    HW2 4864   8.741  12.926  12.079
 1011SOL     OW 4865  12.522   5.007   9.014
 1011SOL    HW1 4866  12.563   5.017   9.100
 1011SOL    HW2 4867  12.488   5.095   8.994
 1012SOL     OW 4868   0.727   1.530  10.504
 1012SOL    HW1 4869   0.757   1.533  10.413
 1012SOL    HW2 4870   0.771   1.604  10.546
 1013SOL     OW 4871   9.462   9.306  13.555
 1013SOL    HW1 4872   9.407   9.316  13.477
 1013SOL    HW2 4873   9.415   9.355  13.623
 1014SOL     OW 4874   1.118   6.756  13.747
 1014SOL    HW1 4875   1.032   6.735  13.785
 1014SOL    HW2 4876   1.139   6.681  13.692
 1015SOL     OW 4877   4.166  13.012  10.892
 1015SOL    HW1 4878   4.141  12.928  10.931
 1015SOL    HW2 4879   4.127  13.010  10.804
 1016SOL     OW 4880   9.864   5.940   1.429
 1016SOL    HW1 4881   9.823   5.975   1.350
 1016SOL    HW2 4882   9.791   5.927   1.490
 1017SOL     OW 4883  12.812   5.995   8.258
 1017SOL    HW1 4884  12.822   6.057   8.185
 1017SOL    HW2 4885  12.727   5.954   8.243
 1018SOL     OW 4886   9.286   0.091   6.791
 1018SOL    HW1 4887   9.340   0.110   6.868
 1018SOL    HW2 4888   9.346   0.046   6.731
 1019SOL     OW 4889   1.339  13.240  13.698
 1019SOL    HW1 4890   1.328  13.186  13.777
 1019SOL    HW2 4891   1.382  13.182  13.636
 1020SOL     OW 4892   9.675  11.767   3.689
 1020SOL    HW1 4893   9.712  11.679   3.688
 1020SOL    HW2 4894   9.607  11.765   3.622
 1021SOL     OW 4895   1.172  11.633   0.711
 1021SOL    HW1 4896   1.124  11.633   0.628
 1021SOL    HW2 4897   1.142  11.555   0.757
 1022SOL     OW 4898  13.107   7.784   5.724
 1022SOL    HW1 4899  13.149   7.849   5.778
 1022SOL    HW2 4900  13.048   7.737   5.783
 1023SOL     OW 4901   3.596  12.185  11.308
 1023SOL    HW1 4902   3.505  12.158  11.321
 1023SOL    HW2 4903   3.620  12.150  11.223
 1024SOL     OW 4904   2.903   1.801   4.445
 1024SOL    HW1 4905   2.871   1.871   4.501
 1024SOL    HW2 4906   2.842   1.799   4.371
 1025SOL     OW 4907   9.506   9.640   0.475
 1025SOL    HW1 4908   9.478   9.615   0.387
 1025SOL    HW2 4909   9.526   9.557   0.518
 1026SOL     OW 4910  11.855   6.049   1.172
 1026SOL    HW1 4911  11.810   5.977   1.129
 1026SOL    HW2 4912  11.940   6.053   1.128
 1027SOL     OW 4913   7.071   3.034   3.798
 1027SOL    HW1 4914   7.061   3.128   3.785
 1027SOL    HW2 4915   6.982   2.999   3.794
 1028SOL     OW 4916   0.905  12.727   9.370
 1028SOL    HW1 4917   0.977  12.681   9.326
 1028SOL    HW2 4918   0.891  12.806   9.317
 1029SOL     OW 4919   9.259  10.013   1.737
 1029SOL    HW1 4920   9.182  10.059   1.702
 1029SOL    HW2 4921   9.264   9.932   1.687
 1030SOL     OW 4922   9.279   3.736   7.474
 1030SOL    HW1 4923   9.333   3.670   7.517
 1030SOL    HW2 4924   9.191   3.721   7.509
 1031SOL     OW 4925   8.096   4.546  12.408
 1031SOL    HW1 4926   8.129   4.517  12.323
 1031SOL    HW2 4927   8.003   4.565  12.392
 1032SOL     OW 4928   2.365   9.793  13.622
 1032SOL    HW1 4929   2.434   9.729  13.642
 1032SOL    HW2 4930   2.305   9.788  13.696
 1033SOL     OW 4931  14.335   4.567   0.497
 1033SOL    HW1 4932  14.399   4.553   0.567
 1033SOL    HW2 4933  14.389   4.582   0.419
 1034SOL     OW 4934   5.466   6.515   3.410
 1034SOL    HW1 4935   5.480   6.425   3.439
 1034SOL    HW2 4936   5.378   6.537   3.442
 1035SOL     OW 4937   7.041  10.346   7.227
 1035SOL    HW1 4938   7.120  10.354   7.174
 1035SOL    HW2 4939   7.007  10.435   7.233
 1036SOL     OW 4940  12.471   9.361   5.607
 1036SOL    HW1 4941  12.448   9.340   5.516
 1036SOL    HW2 4942  12.476   9.457   5.609
 1037SOL     OW 4943  11.935   5.852   3.734
 1037SOL    HW1 4944  11.913   5.768   3.696
 1037SOL    HW2 4945  11.895   5.851   3.821
 1038SOL     OW 4946   4.168   4.174   2.257
 1038SOL    HW1 4947   4.199   4.084   2.241
 1038SOL    HW2 4948   4.121   4.169   2.340
 1039SOL     OW 4949   6.677   8.136  12.368
 1039SOL    HW1 4950   6.724   8.097  12.442
 1039SOL    HW2 4951   6.611   8.193  12.408
 1040SOL     OW 4952  12.770   3.480   9.829
 1040SOL    HW1 4953  12.704   3.528   9.779
 1040SOL    HW2 4954  12.757   3.510   9.919
 1041SOL     OW 4955   2.918   4.333   8.434
 1041SOL    HW1 4956   2.904   4.408   8.491
 1041SOL    HW2 4957   2.832   4.291   8.427
 1042SOL     OW 4958  13.020   1.605  13.150
 1042SOL    HW1 4959  13.003   1.617  13.056
 1042SOL    HW2 4960  13.083   1.673  13.172
 1043SOL     OW 4961   0.999   2.416   1.063
 1043SOL    HW1 4962   1.055   2.492   1.050
 1043SOL    HW2 4963   1.025   2.381   1.148
 1044SOL     OW 4964   8.028  14.074   6.208
 1044SOL    HW1 4965   7.956  14.013   6.190
 1044SOL    HW2 4966   8.095  14.019   6.249
 1045SOL     OW 4967   3.180   1.475   1.592
 1045SOL    HW1 4968   3.235   1.403   1.563
 1045SOL    HW2 4969   3.214   1.498   1.678
 1046SOL     OW 4970   6.053   8.855   6.444
 1046SOL    HW1 4971   6.055   8.898   6.529
 1046SOL    HW2 4972   5.960   8.840   6.427
 1047SOL     OW 4973   7.059  11.131   3.926
 1047SOL    HW1 4974   6.994  11.201   3.929
 1047SOL    HW2 4975   7.130  11.162   3.983
 1048SOL     OW 4976   5.229   3.725   5.893
 1048SOL    HW1 4977   5.295   3.659   5.915
 1048SOL    HW2 4978   5.275   3.808   5.896
 1049SOL     OW 4979   2.016   6.266   0.838
 1049SOL    HW1 4980   2.019   6.293   0.746
 1049SOL    HW2 4981   1.993   6.174   0.836
 1050SOL     OW 4982  14.074   0.699   8.189
 1050SOL    HW1 4983  14.040   0.743   8.111
 1050SOL    HW2 4984  14.015   0.625   8.203
 1051SOL     OW 4985   2.580   9.301   6.279
 1051SOL    HW1 4986   2.559   9.320   6.370
 1051SOL    HW2 4987   2.546   9.213   6.263
 1052SOL     OW 4988   3.332   2.446  13.289
 1052SOL    HW1 4989   3.237   2.442  13.297
 1052SOL    HW2 4990   3.363   2.363  13.325
 1053SOL     OW 4991   6.513   1.091   4.324
 1053SOL    HW1 4992   6.598   1.077   4.281
 1053SOL    HW2 4993   6.521   1.045   4.407
 1054SOL     OW 4994  14.539   2.985   4.638
 1054SOL    HW1 4995  14.472   3.049   4.615
 1054SOL    HW2 4996  14.530   2.973   4.733
 1055SOL     OW 4997   9.072  14.541   6.007
 1055SOL    HW1 4998   9.001  14.583   5.958
 1055SOL    HW2 4999   9.117  14.487   5.942
 1056SOL     OW 5000  14.082   8.391  12.780
 1056SOL    HW1 5001  14.091   8.325  12.849
 1056SOL    HW2 5002  14.132   8.355  12.707
 1057SOL     OW 5003  10.417   6.960   6.465
 1057SOL    HW1 5004  10.335   7.005   6.443
 1057SOL    HW2 5005  10.482   7.000   6.409
 1058SOL     OW 5006  10.556  11.697  11.956
 1058SOL    HW1 5007  10.622  11.761  11.930
 1058SOL    HW2 5008  10.599  11.645  12.024
 1059SOL     OW 5009   9.933   8.204   3.794
 1059SOL    HW1 5010   9.933   8.134   3.859
 1059SOL    HW2 5011   9.843   8.236   3.793
 1060SOL     OW 5012  11.548   9.635   1.587
 1060SOL    HW1 5013  11.622   9.647   1.647
 1060SOL    HW2 5014  11.564   9.550   1.545
 1061SOL     OW 5015  11.782   8.294   2.270
 1061SOL    HW1 5016  11.723   8.233   2.313
 1061SOL    HW2 5017  11.852   8.240   2.233
 1062SOL     OW 5018  10.147  13.155   3.758
 1062SOL    HW1 5019  10.062  13.151   3.803
 1062SOL    HW2 5020  10.211  13.141   3.827
 1063SOL     OW 5021   3.787  13.582   7.042
 1063SOL    HW1 5022   3.743  13.523   6.982
 1063SOL    HW2 5023   3.817  13.655   6.987
 1064SOL     OW 5024   7.379  12.932   9.891
 1064SOL    HW1 5025   7.440  12.872   9.933
 1064SOL    HW2 5026   7.410  12.942   9.802
 1065SOL     OW 5027   2.176   5.298  14.220
 1065SOL    HW1 5028   2.248   5.308  14.283
 1065SOL    HW2 5029   2.219   5.276  14.138
 1066SOL     OW 5030   2.455  12.840   2.758
 1066SOL    HW1 5031   2.502  12.768   2.798
 1066SOL    HW2 5032   2.363  12.816   2.767
 1067SOL     OW 5033  10.824   0.843  10.859
 1067SOL    HW1 5034  10.809   0.802  10.944
 1067SOL    HW2 5035  10.916   0.868  10.861
 1068SOL     OW 5036   2.242   9.243   5.644
 1068SOL    HW1 5037   2.236   9.336   5.624
 1068SOL    HW2 5038   2.292   9.206   5.571
 1069SOL     OW 5039   9.202  11.907   7.654
 1069SOL    HW1 5040   9.235  11.994   7.632
 1069SOL    HW2 5041   9.167  11.917   7.743
 1070SOL     OW 5042  12.478   6.304   8.425
 1070SOL    HW1 5043  12.472   6.209   8.438
 1070SOL    HW2 5044  12.401   6.326   8.373
 1071SOL     OW 5045   5.670  10.437   7.271
 1071SOL    HW1 5046   5.743  10.379   7.290
 1071SOL    HW2 5047   5.640  10.466   7.357
 1072SOL     OW 5048   8.973   1.899   3.633
 1072SOL    HW1 5049   8.956   1.955   3.709
 1072SOL    HW2 5050   9.044   1.841   3.662
 1073SOL     OW 5051   2.562   7.986  12.309
 1073SOL    HW1 5052   2.532   7.901  12.275
 1073SOL    HW2 5053   2.624   8.017  12.243
 1074SOL     OW 5054   0.944   7.419   2.005
 1074SOL    HW1 5055   0.933   7.384   1.916
 1074SOL    HW2 5056   0.859   7.457   2.026
 1075SOL     OW 5057   7.284   9.338   5.201
 1075SOL    HW1 5058   7.277   9.405   5.269
 1075SOL    HW2 5059   7.378   9.333   5.183
 1076SOL     OW 5060   7.328   8.669  10.066
 1076SOL    HW1 5061   7.390   8.596  10.067
 1076SOL    HW2 5062   7.243   8.628  10.051
 1077SOL     OW 5063   8.721   5.910   2.234
 1077SOL    HW1 5064   8.647   5.858   2.264
 1077SOL    HW2 5065   8.681   5.991   2.200
 1078SOL     OW 5066  11.501   4.494  12.829
 1078SOL    HW1 5067  11.445   4.452  12.764
 1078SOL    HW2 5068  11.502   4.433  12.903
 1079SOL     OW 5069  13.524  12.880  10.028
 1079SOL    HW1 5070  13.613  12.910  10.009
 1079SOL    HW2 5071  13.476  12.895   9.946
 1080SOL     OW 5072   5.360   3.483   6.042
 1080SOL    HW1 5073   5.416   3.541   6.093
 1080SOL    HW2 5074   5.276   3.482   6.089
 1081SOL     OW 5075  11.507   6.261  11.697
 1081SOL    HW1 5076  11.560   6.200  11.748
 1081SOL    HW2 5077  11.522   6.237  11.606
 1082SOL     OW 5078   9.010   7.298   4.469
 1082SOL    HW1 5079   9.012   7.232   4.400
 1082SOL    HW2 5080   9.067   7.263   4.538
 1083SOL     OW 5081   0.015   4.984  10.645
 1083SOL    HW1 5082   0.105   4.961  10.667
 1083SOL    HW2 5083  14.856   5.033  10.721
 1084SOL     OW 5084  13.268  10.212   3.986
 1084SOL    HW1 5085  13.256  10.135   3.930
 1084SOL    HW2 5086  13.212  10.195   4.062
 1085SOL     OW 5087  11.471   8.245   9.422
 1085SOL    HW1 5088  11.428   8.160   9.416
 1085SOL    HW2 5089  11.480   8.273   9.330
 1086SOL     OW 5090   5.966  12.338   9.359
 1086SOL    HW1 5091   6.035  12.283   9.323
 1086SOL    HW2 5092   5.932  12.289   9.433
 1087SOL     OW 5093  10.532  13.771   8.018
 1087SOL    HW1 5094  10.588  13.769   7.940
 1087SOL    HW2 5095  10.578  13.830   8.078
 1088SOL     OW 5096  14.108   5.406   6.959
 1088SOL    HW1 5097  14.193   5.448   6.972
 1088SOL    HW2 5098  14.066   5.457   6.890
 1089SOL     OW 5099  10.635   2.588   8.328
 1089SOL    HW1 5100  10.635   2.670   8.377
 1089SOL    HW2 5101  10.636   2.615   8.236
 1090SOL     OW 5102   7.973  11.886   2.027
 1090SOL    HW1 5103   7.926  11.910   2.107
 1090SOL    HW2 5104   7.973  11.966   1.974
 1091SOL     OW 5105   6.396   7.022  10.371
 1091SOL    HW1 5106   6.432   6.934  10.368
 1091SOL    HW2 5107   6.307   7.013  10.337
 1092SOL     OW 5108  13.757  11.792   5.328
 1092SOL    HW1 5109  13.683  11.756   5.378
 1092SOL    HW2 5110  13.833  11.776   5.383
 1093SOL     OW 5111  13.904   1.052   4.615
 1093SOL    HW1 5112  13.920   1.003   4.535
 1093SOL    HW2 5113  13.987   1.047   4.663
 1094SOL     OW 5114   1.627  12.191   5.152
 1094SOL    HW1 5115   1.668  12.266   5.195
 1094SOL    HW2 5116   1.691  12.121   5.161
 1095SOL     OW 5117   0.315  10.722   8.298
 1095SOL    HW1 5118   0.308  10.776   8.377
 1095SOL    HW2 5119   0.224  10.711   8.269
 1096SOL     OW 5120  13.470  11.689  10.416
 1096SOL    HW1 5121  13.486  11.778  10.385
 1096SOL    HW2 5122  13.466  11.636  10.337
 1097SOL     OW 5123  11.365   3.887  10.981
 1097SOL    HW1 5124  11.391   3.937  10.903
 1097SOL    HW2 5125  11.353   3.797  10.949
 1098SOL     OW 5126  12.192   7.787  12.100
 1098SOL    HW1 5127  12.229   7.757  12.016
 1098SOL    HW2 5128  12.101   7.758  12.097
 1099SOL     OW 5129   3.886   9.342   9.376
 1099SOL    HW1 5130   3.945   9.369   9.305
 1099SOL    HW2 5131   3.846   9.261   9.344
 1100SOL     OW 5132  12.078  10.892  12.707
 1100SOL    HW1 5133  12.085  10.803  12.670
 1100SOL    HW2 5134  12.041  10.878  12.794
 1101SOL     OW 5135  13.341   7.974   2.126
 1101SOL    HW1 5136  13.332   8.069   2.118
 1101SOL    HW2 5137  13.409   7.952   2.062
 1102SOL     OW 5138   8.420   2.313  12.801
 1102SOL    HW1 5139   8.470   2.368  12.862
 1102SOL    HW2 5140   8.483   2.287  12.735
 1103SOL     OW 5141   0.074  12.481   3.829
 1103SOL    HW1 5142   0.035  12.403   3.789
 1103SOL    HW2 5143   0.058  12.551   3.765
 1104SOL     OW 5144   3.683   4.840   1.433
 1104SOL    HW1 5145   3.728   4.859   1.515
 1104SOL    HW2 5146   3.705   4.914   1.376
 1105SOL     OW 5147  13.990   4.076   5.298
 1105SOL    HW1 5148  14.075   4.050   5.262
 1105SOL    HW2 5149  13.971   4.160   5.257
 1106SOL     OW 5150   2.467  14.422   7.207
 1106SOL    HW1 5151   2.515  14.480   7.147
 1106SOL    HW2 5152   2.384  14.467   7.222
 1107SOL     OW 5153   7.135   3.801   2.856
 1107SOL    HW1 5154   7.206   3.860   2.833
 1107SOL    HW2 5155   7.162   3.716   2.821
 1108SOL     OW 5156   8.563   1.822   5.857
 1108SOL    HW1 5157   8.529   1.746   5.810
 1108SOL    HW2 5158   8.504   1.833   5.931
 1109SOL     OW 5159  14.360  12.700   4.849
 1109SOL    HW1 5160  14.324  12.708   4.761
 1109SOL    HW2 5161  14.293  12.650   4.897
 1110SOL     OW 5162   5.909   9.511   3.001
 1110SOL    HW1 5163   5.872   9.561   3.074
 1110SOL    HW2 5164   5.926   9.424   3.037
 1111SOL     OW 5165   7.507  11.157   7.051
 1111SOL    HW1 5166   7.474  11.096   6.984
 1111SOL    HW2 5167   7.508  11.106   7.132
 1112SOL     OW 5168   6.741  11.932   3.033
 1112SOL    HW1 5169   6.679  11.868   3.068
 1112SOL    HW2 5170   6.818  11.924   3.091
 1113SOL     OW 5171  11.921   5.080   4.255
 1113SOL    HW1 5172  11.910   5.155   4.313
 1113SOL    HW2 5173  11.885   5.109   4.171
 1114SOL     OW 5174  14.208  10.655   2.848
 1114SOL    HW1 5175  14.260  10.645   2.768
 1114SOL    HW2 5176  14.246  10.593   2.910
 1115SOL     OW 5177  14.226   4.204   1.120
 1115SOL    HW1 5178  14.141   4.209   1.162
 1115SOL    HW2 5179  14.220   4.264   1.046
 1116SOL     OW 5180   9.157   8.532   2.943
 1116SOL    HW1 5181   9.164   8.612   2.891
 1116SOL    HW2 5182   9.173   8.462   2.879
 1117SOL     OW 5183  12.777   8.137  12.567
 1117SOL    HW1 5184  12.684   8.150  12.581
 1117SOL    HW2 5185  12.796   8.051  12.605
 1118SOL     OW 5186  14.688   3.681   8.072
 1118SOL    HW1 5187  14.673   3.610   8.011
 1118SOL    HW2 5188  14.767   3.656   8.120
 1119SOL     OW 5189  14.278   2.905  12.680
 1119SOL    HW1 5190  14.323   2.839  12.628
 1119SOL    HW2 5191  14.338   2.923  12.753
 1120SOL     OW 5192   8.933  10.997  13.678
 1120SOL    HW1 5193   8.882  11.056  13.733
 1120SOL    HW2 5194   9.023  11.030  13.685
 1121SOL     OW 5195  13.305  10.759   2.252
 1121SOL    HW1 5196  13.314  10.737   2.345
 1121SOL    HW2 5197  13.307  10.674   2.207
 1122SOL     OW 5198  14.176   2.168   2.311
 1122SOL    HW1 5199  14.225   2.247   2.335
 1122SOL    HW2 5200  14.086   2.188   2.334
 1123SOL     OW 5201  13.687   6.925   0.353
 1123SOL    HW1 5202  13.723   7.004   0.313
 1123SOL    HW2 5203  13.754   6.859   0.341
 1124SOL     OW 5204   6.968  13.852   8.663
 1124SOL    HW1 5205   6.921  13.772   8.686
 1124SOL    HW2 5206   6.992  13.890   8.748
 1125SOL     OW 5207  14.295  12.306  13.008
 1125SOL    HW1 5208  14.374  12.265  12.974
 1125SOL    HW2 5209  14.301  12.397  12.979
 1126SOL     OW 5210   2.178   8.008   2.233
 1126SOL    HW1 5211   2.141   8.087   2.272
 1126SOL    HW2 5212   2.103   7.953   2.214
 1127SOL     OW 5213   0.210  14.201  13.232
 1127SOL    HW1 5214   0.133  14.189  13.288
 1127SOL    HW2 5215   0.227  14.114  13.196
 1128SOL     OW 5216   8.595   9.286   6.268
 1128SOL    HW1 5217   8.527   9.353   6.273
 1128SOL    HW2 5218   8.550   9.208   6.235
 1129SOL     OW 5219   6.723   2.045  13.492
 1129SOL    HW1 5220   6.708   2.069  13.584
 1129SOL    HW2 5221   6.768   2.121  13.455
 1130SOL     OW 5222  11.251  12.001   1.257
 1130SOL    HW1 5223  11.291  12.073   1.304
 1130SOL    HW2 5224  11.165  12.034   1.230
 1131SOL     OW 5225  12.477   8.356  11.255
 1131SOL    HW1 5226  12.496   8.311  11.173
 1131SOL    HW2 5227  12.392   8.396  11.241
 1132SOL     OW 5228  13.426  10.535  10.467
 1132SOL    HW1 5229  13.439  10.629  10.465
 1132SOL    HW2 5230  13.353  10.519  10.406
 1133SOL     OW 5231   1.265   2.535   2.889
 1133SOL    HW1 5232   1.312   2.602   2.840
 1133SOL    HW2 5233   1.198   2.503   2.828
 1134SOL     OW 5234   8.980   5.142   7.040
 1134SOL    HW1 5235   8.900   5.125   7.091
 1134SOL    HW2 5236   8.959   5.115   6.951
 1135SOL     OW 5237   6.908  10.072   4.192
 1135SOL    HW1 5238   6.894  10.149   4.137
 1135SOL    HW2 5239   6.997  10.083   4.226
 1136SOL     OW 5240  11.202  14.868  12.362
 1136SOL    HW1 5241  11.251   0.075  12.383
 1136SOL    HW2 5242  11.263  14.815  12.310
 1137SOL     OW 5243   1.140   4.683   2.001
 1137SOL    HW1 5244   1.193   4.724   2.069
 1137SOL    HW2 5245   1.177   4.716   1.919
 1138SOL     OW 5246   3.644   2.544   0.511
 1138SOL    HW1 5247   3.735   2.570   0.525
 1138SOL    HW2 5248   3.602   2.563   0.595
 1139SOL     OW 5249  12.841   6.172   5.462
 1139SOL    HW1 5250  12.921   6.142   5.419
 1139SOL    HW2 5251  12.771   6.120   5.424
 1140SOL     OW 5252   1.263  14.021   1.631
 1140SOL    HW1 5253   1.353  14.050   1.617
 1140SOL    HW2 5254   1.212  14.074   1.571
 1141SOL     OW 5255  11.037   7.892  14.162
 1141SOL    HW1 5256  11.043   7.881  14.067
 1141SOL    HW2 5257  11.100   7.961  14.183
 1142SOL     OW 5258   8.029  14.283  10.865
 1142SOL    HW1 5259   8.088  14.335  10.810
 1142SOL    HW2 5260   8.079  14.267  10.945
 1143SOL     OW 5261   2.589  10.804   6.973
 1143SOL    HW1 5262   2.575  10.857   6.895
 1143SOL    HW2 5263   2.678  10.826   7.002
 1144SOL     OW 5264   1.560   1.705   6.369
 1144SOL    HW1 5265   1.474   1.746   6.358
 1144SOL    HW2 5266   1.615   1.775   6.405
 1145SOL     OW 5267  12.453   2.592  12.128
 1145SOL    HW1 5268  12.519   2.526  12.148
 1145SOL    HW2 5269  12.372   2.542  12.113
 1146SOL     OW 5270  14.025   4.333  11.254
 1146SOL    HW1 5271  14.018   4.293  11.167
 1146SOL    HW2 5272  13.935   4.352  11.279
 1147SOL     OW 5273   2.612   3.739   6.849
 1147SOL    HW1 5274   2.561   3.818   6.834
 1147SOL    HW2 5275   2.615   3.730   6.945
 1148SOL     OW 5276   7.294  12.385   9.600
 1148SOL    HW1 5277   7.328  12.474   9.600
 1148SOL    HW2 5278   7.286  12.363   9.693
 1149SOL     OW 5279  11.695   0.349   6.757
 1149SOL    HW1 5280  11.698   0.323   6.665
 1149SOL    HW2 5281  11.602   0.344   6.781
 1150SOL     OW 5282   8.880  13.867   5.881
 1150SOL    HW1 5283   8.943  13.884   5.811
 1150SOL    HW2 5284   8.817  13.807   5.842
 1151SOL     OW 5285   4.415   1.206   6.881
 1151SOL    HW1 5286   4.383   1.245   6.799
 1151SOL    HW2 5287   4.446   1.280   6.932
 1152SOL     OW 5288   7.129   9.868   6.280
 1152SOL    HW1 5289   7.112   9.875   6.374
 1152SOL    HW2 5290   7.052   9.824   6.244
 1153SOL     OW 5291   7.752   8.426   4.442
 1153SOL    HW1 5292   7.687   8.477   4.490
 1153SOL    HW2 5293   7.714   8.338   4.438
 1154SOL     OW 5294   7.020  11.369   2.279
 1154SOL    HW1 5295   7.046  11.462   2.279
 1154SOL    HW2 5296   7.019  11.344   2.187
 1155SOL     OW 5297  12.615   6.613   6.466
 1155SOL    HW1 5298  12.674   6.547   6.503
 1155SOL    HW2 5299  12.548   6.562   6.420
 1156SOL     OW 5300   2.432  13.847   3.399
 1156SOL    HW1 5301   2.380  13.915   3.355
 1156SOL    HW2 5302   2.518  13.887   3.411
 1157SOL     OW 5303  10.634   2.147  13.244
 1157SOL    HW1 5304  10.679   2.189  13.170
 1157SOL    HW2 5305  10.668   2.193  13.321
 1158SOL     OW 5306  10.684  13.106   9.962
 1158SOL    HW1 5307  10.778  13.091   9.956
 1158SOL    HW2 5308  10.675  13.187  10.011
 1159SOL     OW 5309   1.754  13.956   1.029
 1159SOL    HW1 5310   1.781  14.001   1.108
 1159SOL    HW2 5311   1.688  14.013   0.990
 1160SOL     OW 5312   2.871   1.175   9.951
 1160SOL    HW1 5313   2.843   1.264   9.931
 1160SOL    HW2 5314   2.944   1.158   9.891
 1161SOL     OW 5315  13.883   5.126   7.440
 1161SOL    HW1 5316  13.867   5.036   7.410
 1161SOL    HW2 5317  13.970   5.122   7.481
 1162SOL     OW 5318   9.919   6.146   6.014
 1162SOL    HW1 5319   9.843   6.171   5.961
 1162SOL    HW2 5320   9.924   6.213   6.082
 1163SOL     OW 5321   2.188  12.645   8.804
 1163SOL    HW1 5322   2.156  12.632   8.714
 1163SOL    HW2 5323   2.158  12.732   8.828
 1164SOL     OW 5324   7.688   1.325   8.768
 1164SOL    HW1 5325   7.714   1.351   8.680
 1164SOL    HW2 5326   7.694   1.230   8.767
 1165SOL     OW 5327   4.194   4.224   7.513
 1165SOL    HW1 5328   4.190   4.135   7.546
 1165SOL    HW2 5329   4.106   4.241   7.479
 1166SOL     OW 5330   7.293   8.354  11.675
 1166SOL    HW1 5331   7.293   8.390  11.764
 1166SOL    HW2 5332   7.330   8.422  11.620
 1167SOL     OW 5333   6.099  13.747   0.449
 1167SOL    HW1 5334   6.186  13.709   0.446
 1167SOL    HW2 5335   6.095  13.794   0.532
 1168SOL     OW 5336   5.018   0.911   4.377
 1168SOL    HW1 5337   4.933   0.922   4.419
 1168SOL    HW2 5338   5.074   0.874   4.446
 1169SOL     OW 5339   7.457   0.098   9.107
 1169SOL    HW1 5340   7.534   0.128   9.059
 1169SOL    HW2 5341   7.387   0.158   9.079
 1170SOL     OW 5342   0.373   4.611   6.386
 1170SOL    HW1 5343   0.451   4.655   6.351
 1170SOL    HW2 5344   0.339   4.560   6.313
 1171SOL     OW 5345  10.320  10.968   5.387
 1171SOL    HW1 5346  10.237  10.922   5.400
 1171SOL    HW2 5347  10.313  11.005   5.299
 1172SOL     OW 5348   2.046  10.460   0.954
 1172SOL    HW1 5349   2.094  10.500   1.027
 1172SOL    HW2 5350   1.956  10.454   0.985
 1173SOL     OW 5351   8.483  12.040  11.385
 1173SOL    HW1 5352   8.566  12.043  11.339
 1173SOL    HW2 5353   8.493  12.102  11.457
 1174SOL     OW 5354   0.103   9.464   2.244
 1174SOL    HW1 5355   0.046   9.423   2.309
 1174SOL    HW2 5356   0.152   9.391   2.205
 1175SOL     OW 5357  11.464   8.775  11.962
 1175SOL    HW1 5358  11.445   8.796  12.054
 1175SOL    HW2 5359  11.399   8.824  11.912
 1176SOL     OW 5360  10.668  13.068  11.202
 1176SOL    HW1 5361  10.655  12.987  11.252
 1176SOL    HW2 5362  10.656  13.137  11.267
 1177SOL     OW 5363   7.572   7.402  11.046
 1177SOL    HW1 5364   7.615   7.488  11.039
 1177SOL    HW2 5365   7.480   7.420  11.027
 1178SOL     OW 5366   0.127   5.978   0.269
 1178SOL    HW1 5367   0.097   5.888   0.259
 1178SOL    HW2 5368   0.206   5.972   0.323
 1179SOL     OW 5369  14.307  14.461  12.874
 1179SOL    HW1 5370  14.329  14.533  12.933
 1179SOL    HW2 5371  14.386  14.449  12.821
 1180SOL     OW 5372   4.402   1.742   9.286
 1180SOL    HW1 5373   4.448   1.677   9.339
 1180SOL    HW2 5374   4.468   1.810   9.269
 1181SOL     OW 5375   1.350   4.059  14.473
 1181SOL    HW1 5376   1.311   4.063  14.561
 1181SOL    HW2 5377   1.416   4.128  14.474
 1182SOL     OW 5378   1.330   9.177   0.021
 1182SOL    HW1 5379   1.259   9.147  14.836
 1182SOL    HW2 5380   1.374   9.097   0.048
 1183SOL     OW 5381  11.483  14.611  13.328
 1183SOL    HW1 5382  11.516  14.698  13.350
 1183SOL    HW2 5383  11.436  14.624  13.245
 1184SOL     OW 5384   1.118   2.879   3.435
 1184SOL    HW1 5385   1.032   2.915   3.457
 1184SOL    HW2 5386   1.119   2.875   3.340
 1185SOL     OW 5387  10.644   2.341  12.084
 1185SOL    HW1 5388  10.650   2.377  12.173
 1185SOL    HW2 5389  10.550   2.344  12.064
 1186SOL     OW 5390  10.209   7.653  11.649
 1186SOL    HW1 5391  10.250   7.663  11.734
 1186SOL    HW2 5392  10.122   7.692  11.660
 1187SOL     OW 5393  14.038   3.603  13.633
 1187SOL    HW1 5394  14.006   3.520  13.669
 1187SOL    HW2 5395  14.117   3.622  13.684
 1188SOL     OW 5396   9.073   1.739  10.959
 1188SOL    HW1 5397   9.167   1.755  10.950
 1188SOL    HW2 5398   9.060   1.725  11.053
 1189SOL     OW 5399  11.471   9.924   0.477
 1189SOL    HW1 5400  11.499   9.836   0.503
 1189SOL    HW2 5401  11.552   9.968   0.452
 1190SOL     OW 5402   9.121  11.124   0.520
 1190SOL    HW1 5403   9.062  11.129   0.596
 1190SOL    HW2 5404   9.062  11.129   0.445
 1191SOL     OW 5405   5.127  13.436   7.543
 1191SOL    HW1 5406   5.121  13.343   7.519
 1191SOL    HW2 5407   5.204  13.468   7.496
 1192SOL     OW 5408   6.587   3.018  13.639
 1192SOL    HW1 5409   6.522   2.964  13.683
 1192SOL    HW2 5410   6.621   3.076  13.708
 1193SOL     OW 5411   9.678  11.952  10.591
 1193SOL    HW1 5412   9.620  12.018  10.552
 1193SOL    HW2 5413   9.690  11.981  10.681
 1194SOL     OW 5414   8.715   0.508   9.956
 1194SOL    HW1 5415   8.648   0.447   9.926
 1194SOL    HW2 5416   8.690   0.528  10.046
 1195SOL     OW 5417   9.160  13.236  13.232
 1195SOL    HW1 5418   9.216  13.246  13.155
 1195SOL    HW2 5419   9.222  13.230  13.305
 1196SOL     OW 5420   2.524  11.786   1.115
 1196SOL    HW1 5421   2.529  11.708   1.059
 1196SOL    HW2 5422   2.584  11.848   1.075
 1197SOL     OW 5423   8.919  10.249  14.286
 1197SOL    HW1 5424   8.876  10.164  14.290
 1197SOL    HW2 5425   9.002  10.232  14.241
 1198SOL     OW 5426   7.572   8.245   0.239
 1198SOL    HW1 5427   7.513   8.302   0.289
 1198SOL    HW2 5428   7.591   8.294   0.159
 1199SOL     OW 5429   7.653  11.563  11.796
 1199SOL    HW1 5430   7.669  11.474  11.826
 1199SOL    HW2 5431   7.705  11.618  11.855
 1200SOL     OW 5432   6.689  11.873   9.444
 1200SOL    HW1 5433   6.772  11.859   9.490
 1200SOL    HW2 5434   6.709  11.849   9.353
 1201SOL     OW 5435  12.638   4.700   8.433
 1201SOL    HW1 5436  12.555   4.671   8.395
 1201SOL    HW2 5437  12.700   4.699   8.360
 1202SOL     OW 5438   2.141  11.014   9.463
 1202SOL    HW1 5439   2.198  10.937   9.463
 1202SOL    HW2 5440   2.122  11.029   9.556
 1203SOL     OW 5441  10.530  11.199   9.864
 1203SOL    HW1 5442  10.501  11.118   9.907
 1203SOL    HW2 5443  10.616  11.217   9.902
 1204SOL     OW 5444   9.908   9.270   2.717
 1204SOL    HW1 5445   9.956   9.344   2.680
 1204SOL    HW2 5446   9.843   9.247   2.650
 1205SOL     OW 5447   4.860  13.759  10.887
 1205SOL    HW1 5448   4.947  13.742  10.851
 1205SOL    HW2 5449   4.849  13.854  10.876
 1206SOL     OW 5450   4.147   4.491   7.298
 1206SOL    HW1 5451   4.208   4.557   7.267
 1206SOL    HW2 5452   4.188   4.407   7.276
 1207SOL     OW 5453  13.334   2.487   1.215
 1207SOL    HW1 5454  13.347   2.397   1.246
 1207SOL    HW2 5455  13.273   2.478   1.141
 1208SOL     OW 5456   6.971  13.945  12.753
 1208SOL    HW1 5457   7.035  13.952  12.682
 1208SOL    HW2 5458   6.887  13.959  12.711
 1209SOL     OW 5459  13.798   7.089   2.199
 1209SOL    HW1 5460  13.884   7.067   2.236
 1209SOL    HW2 5461  13.748   7.008   2.203
 1210SOL     OW 5462   0.501   7.867  13.962
 1210SOL    HW1 5463   0.432   7.931  13.945
 1210SOL    HW2 5464   0.518   7.829  13.876
 1211SOL     OW 5465  14.803   5.697   3.292
 1211SOL    HW1 5466   0.005   5.644   3.263
 1211SOL    HW2 5467  14.767   5.649   3.366
 1212SOL     OW 5468   9.001   6.147  10.498
 1212SOL    HW1 5469   8.976   6.065  10.540
 1212SOL    HW2 5470   8.920   6.199  10.495
 1213SOL     OW 5471   4.666  12.059  10.569
 1213SOL    HW1 5472   4.677  12.072  10.475
 1213SOL    HW2 5473   4.687  11.967  10.583
 1214SOL     OW 5474   0.805   7.693   7.122
 1214SOL    HW1 5475   0.816   7.602   7.151
 1214SOL    HW2 5476   0.733   7.727   7.176
 1215SOL     OW 5477  12.317   6.036   5.367
 1215SOL    HW1 5478  12.233   5.991   5.360
 1215SOL    HW2 5479  12.357   6.025   5.281
 1216SOL     OW 5480  11.758   4.628  11.051
 1216SOL    HW1 5481  11.666   4.601  11.057
 1216SOL    HW2 5482  11.807   4.548  11.069
 1217SOL     OW 5483   6.194  10.069   0.739
 1217SOL    HW1 5484   6.189   9.981   0.776
 1217SOL    HW2 5485   6.270  10.066   0.681
 1218SOL     OW 5486  14.659   8.838   2.097
 1218SOL    HW1 5487  14.702   8.922   2.115
 1218SOL    HW2 5488  14.669   8.788   2.178
 1219SOL     OW 5489  14.474  13.504  12.112
 1219SOL    HW1 5490  14.524  13.558  12.051
 1219SOL    HW2 5491  14.390  13.491  12.069
 1220SOL     OW 5492  10.970   0.742   0.435
 1220SOL    HW1 5493  10.994   0.831   0.411
 1220SOL    HW2 5494  10.931   0.750   0.522
 1221SOL     OW 5495   5.926   5.617   4.807
 1221SOL    HW1 5496   5.953   5.648   4.720
 1221SOL    HW2 5497   5.851   5.561   4.790
 1222SOL     OW 5498   0.085   7.110   0.872
 1222SOL    HW1 5499   0.101   7.201   0.847
 1222SOL    HW2 5500   0.054   7.115   0.963
 1223SOL     OW 5501   7.658   6.234   6.681
 1223SOL    HW1 5502   7.625   6.168   6.620
 1223SOL    HW2 5503   7.731   6.191   6.726
 1224SOL     OW 5504   5.804   9.701   2.258
 1224SOL    HW1 5505   5.830   9.654   2.337
 1224SOL    HW2 5506   5.885   9.740   2.225
 1225SOL     OW 5507   5.654  10.033   1.195
 1225SOL    HW1 5508   5.638  10.010   1.286
 1225SOL    HW2 5509   5.641   9.951   1.147
 1226SOL     OW 5510  14.863   2.145   4.795
 1226SOL    HW1 5511  14.844   2.152   4.888
 1226SOL    HW2 5512   0.040   2.063   4.787
 1227SOL     OW 5513  12.956   9.614   9.751
 1227SOL    HW1 5514  13.019   9.542   9.750
 1227SOL    HW2 5515  13.002   9.688   9.712
 1228SOL     OW 5516  10.387   4.519   2.079
 1228SOL    HW1 5517  10.360   4.609   2.092
 1228SOL    HW2 5518  10.461   4.525   2.018
 1229SOL     OW 5519  12.759   0.359  12.588
 1229SOL    HW1 5520  12.735   0.445  12.552
 1229SOL    HW2 5521  12.824   0.378  12.655
 1230SOL     OW 5522  11.011   4.349   8.060
 1230SOL    HW1 5523  11.082   4.403   8.094
 1230SOL    HW2 5524  10.933   4.380   8.107
 1231SOL     OW 5525   6.516   9.132   0.019
 1231SOL    HW1 5526   6.608   9.115  14.870
 1231SOL    HW2 5527   6.500   9.077   0.096
 1232SOL     OW 5528   6.685   5.846   5.082
 1232SOL    HW1 5529   6.685   5.770   5.023
 1232SOL    HW2 5530   6.623   5.907   5.042
 1233SOL     OW 5531   1.056   3.789  10.796
 1233SOL    HW1 5532   1.137   3.804  10.845
 1233SOL    HW2 5533   1.056   3.696  10.777
 1234SOL     OW 5534   9.320   4.024   4.111
 1234SOL    HW1 5535   9.343   3.934   4.087
 1234SOL    HW2 5536   9.387   4.049   4.175
 1235SOL     OW 5537  13.223   5.700   0.687
 1235SOL    HW1 5538  13.302   5.645   0.693
 1235SOL    HW2 5539  13.155   5.640   0.655
 1236SOL     OW 5540   0.485   3.176  10.771
 1236SOL    HW1 5541   0.479   3.253  10.714
 1236SOL    HW2 5542   0.579   3.165  10.787
 1237SOL     OW 5543   4.376   6.685  13.601
 1237SOL    HW1 5544   4.306   6.723  13.548
 1237SOL    HW2 5545   4.358   6.591  13.601
 1238SOL     OW 5546   4.383   1.003  12.847
 1238SOL    HW1 5547   4.313   0.987  12.910
 1238SOL    HW2 5548   4.421   1.086  12.875
 1239SOL     OW 5549  11.569   7.642   8.783
 1239SOL    HW1 5550  11.569   7.736   8.765
 1239SOL    HW2 5551  11.634   7.606   8.723
 1240SOL     OW 5552   9.352   2.660   2.639
 1240SOL    HW1 5553   9.374   2.654   2.546
 1240SOL    HW2 5554   9.377   2.575   2.676
 1241SOL     OW 5555   4.557   0.920   6.867
 1241SOL    HW1 5556   4.500   0.860   6.819
 1241SOL    HW2 5557   4.519   0.925   6.954
 1242SOL     OW 5558   3.839  14.265   6.553
 1242SOL    HW1 5559   3.802  14.347   6.522
 1242SOL    HW2 5560   3.839  14.208   6.476
 1243SOL     OW 5561  11.236  14.141   7.018
 1243SOL    HW1 5562  11.191  14.096   6.947
 1243SOL    HW2 5563  11.218  14.234   7.004
 1244SOL     OW 5564   6.863   1.941   1.691
 1244SOL    HW1 5565   6.800   1.876   1.658
 1244SOL    HW2 5566   6.909   1.972   1.613
 1245SOL     OW 5567   4.182   3.242   7.179
 1245SOL    HW1 5568   4.225   3.157   7.171
 1245SOL    HW2 5569   4.251   3.306   7.161
 1246SOL     OW 5570   2.464   1.260  12.085
 1246SOL    HW1 5571   2.451   1.197  12.156
 1246SOL    HW2 5572   2.484   1.343  12.128
 1247SOL     OW 5573   9.882  11.470   8.524
 1247SOL    HW1 5574   9.829  11.530   8.577
 1247SOL    HW2 5575   9.915  11.405   8.586
 1248SOL     OW 5576  12.085   6.702   2.667
 1248SOL    HW1 5577  12.072   6.617   2.624
 1248SOL    HW2 5578  12.040   6.693   2.751
 1249SOL     OW 5579   5.785   5.576   1.377
 1249SOL    HW1 5580   5.707   5.606   1.330
 1249SOL    HW2 5581   5.818   5.654   1.422
 1250SOL     OW 5582  12.924  13.033  12.798
 1250SOL    HW1 5583  12.944  13.102  12.735
 1250SOL    HW2 5584  12.835  13.004  12.775
 1251SOL     OW 5585   5.643  14.389   5.145
 1251SOL    HW1 5586   5.713  14.443   5.181
 1251SOL    HW2 5587   5.594  14.447   5.088
 1252SOL     OW 5588   4.044  10.400   7.607
 1252SOL    HW1 5589   3.976  10.370   7.547
 1252SOL    HW2 5590   4.107  10.327   7.610
 1253SOL     OW 5591  14.777  10.443   2.303
 1253SOL    HW1 5592  14.838  10.494   2.250
 1253SOL    HW2 5593  14.802  10.352   2.289
 1254SOL     OW 5594   1.780  10.216   5.254
 1254SOL    HW1 5595   1.733  10.201   5.172
 1254SOL    HW2 5596   1.853  10.154   5.252
 1255SOL     OW 5597  12.517  10.590   6.813
 1255SOL    HW1 5598  12.511  10.506   6.767
 1255SOL    HW2 5599  12.527  10.566   6.905
 1256SOL     OW 5600  14.215  12.675  14.683
 1256SOL    HW1 5601  14.278  12.727  14.632
 1256SOL    HW2 5602  14.151  12.738  14.714
 1257SOL     OW 5603  11.860   2.448   6.116
 1257SOL    HW1 5604  11.920   2.433   6.189
 1257SOL    HW2 5605  11.917   2.466   6.042
 1258SOL     OW 5606   2.151   7.436   2.802
 1258SOL    HW1 5607   2.180   7.392   2.882
 1258SOL    HW2 5608   2.056   7.423   2.801
 1259SOL     OW 5609   9.174  11.207   0.875
 1259SOL    HW1 5610   9.238  11.264   0.832
 1259SOL    HW2 5611   9.149  11.253   0.954
 1260SOL     OW 5612  13.960  13.379   6.353
 1260SOL    HW1 5613  13.933  13.457   6.402
 1260SOL    HW2 5614  14.019  13.411   6.286
 1261SOL     OW 5615   8.669   3.169   7.707
 1261SOL    HW1 5616   8.677   3.135   7.618
 1261SOL    HW2 5617   8.759   3.187   7.734
 1262SOL     OW 5618   8.213   4.605  14.752
 1262SOL    HW1 5619   8.168   4.647  14.679
 1262SOL    HW2 5620   8.147   4.545  14.788
 1263SOL     OW 5621   6.088  12.133  10.635
 1263SOL    HW1 5622   6.100  12.224  10.607
 1263SOL    HW2 5623   6.147  12.083  10.578
 1264SOL     OW 5624  12.584   9.824  13.750
 1264SOL    HW1 5625  12.645   9.774  13.804
 1264SOL    HW2 5626  12.609   9.802  13.660
 1265SOL     OW 5627  14.491   4.743  11.261
 1265SOL    HW1 5628  14.586   4.729  11.267
 1265SOL    HW2 5629  14.457   4.662  11.222
 1266SOL     OW 5630   8.702   7.023   0.087
 1266SOL    HW1 5631   8.692   6.997  14.868
 1266SOL    HW2 5632   8.612   7.041   0.116
 1267SOL     OW 5633  14.825  14.326   0.415
 1267SOL    HW1 5634  14.845  14.286   0.500
 1267SOL    HW2 5635   0.027  14.302   0.360
 1268SOL     OW 5636   2.376  11.273  11.960
 1268SOL    HW1 5637   2.394  11.343  11.898
 1268SOL    HW2 5638   2.442  11.283  12.029
 1269SOL     OW 5639  12.344  11.854   2.802
 1269SOL    HW1 5640  12.355  11.791   2.730
 1269SOL    HW2 5641  12.352  11.801   2.881
 1270SOL     OW 5642   8.873   3.153   8.028
 1270SOL    HW1 5643   8.823   3.234   8.038
 1270SOL    HW2 5644   8.952   3.167   8.080
 1271SOL     OW 5645   5.285   4.436   9.916
 1271SOL    HW1 5646   5.237   4.354   9.909
 1271SOL    HW2 5647   5.246   4.481   9.991
 1272SOL     OW 5648   2.828  11.060   3.665
 1272SOL    HW1 5649   2.848  11.150   3.693
 1272SOL    HW2 5650   2.879  11.048   3.585
 1273SOL     OW 5651   5.782  13.720   8.153
 1273SOL    HW1 5652   5.863  13.670   8.138
 1273SOL    HW2 5653   5.732  13.708   8.073
 1274SOL     OW 5654  11.883   6.724   6.285
 1274SOL    HW1 5655  11.797   6.742   6.248
 1274SOL    HW2 5656  11.942   6.718   6.210
 1275SOL     OW 5657  10.581  12.776   6.891
 1275SOL    HW1 5658  10.670  12.776   6.855
 1275SOL    HW2 5659  10.585  12.716   6.965
 1276SOL     OW 5660   5.362   4.361  11.890
 1276SOL    HW1 5661   5.449   4.387  11.860
 1276SOL    HW2 5662   5.369   4.360  11.986
 1277SOL     OW 5663   1.474  12.670   9.238
 1277SOL    HW1 5664   1.519  12.729   9.177
 1277SOL    HW2 5665   1.436  12.602   9.182
 1278SOL     OW 5666   2.204   2.728   7.733
 1278SOL    HW1 5667   2.133   2.765   7.679
 1278SOL    HW2 5668   2.159   2.668   7.792
 1279SOL     OW 5669   8.004  13.872   2.018
 1279SOL    HW1 5670   7.936  13.835   1.961
 1279SOL    HW2 5671   8.004  13.966   1.999
 1280SOL     OW 5672   3.831  14.474   8.049
 1280SOL    HW1 5673   3.760  14.442   7.994
 1280SOL    HW2 5674   3.907  14.421   8.023
 1281SOL     OW 5675   5.862  10.632   4.392
 1281SOL    HW1 5676   5.856  10.727   4.378
 1281SOL    HW2 5677   5.788  10.612   4.450
 1282SOL     OW 5678   1.561   9.671  12.487
 1282SOL    HW1 5679   1.573   9.720  12.405
 1282SOL    HW2 5680   1.588   9.732  12.556
 1283SOL     OW 5681  14.274   3.714   6.942
 1283SOL    HW1 5682  14.300   3.623   6.930
 1283SOL    HW2 5683  14.313   3.761   6.868
 1284SOL     OW 5684   5.247  11.416  12.501
 1284SOL    HW1 5685   5.312  11.348  12.482
 1284SOL    HW2 5686   5.202  11.430  12.418
 1285SOL     OW 5687   6.944  10.411  12.370
 1285SOL    HW1 5688   6.993  10.421  12.288
 1285SOL    HW2 5689   6.873  10.475  12.363
 1286SOL     OW 5690   2.948   8.211   6.613
 1286SOL    HW1 5691   2.856   8.187   6.624
 1286SOL    HW2 5692   2.992   8.176   6.691
 1287SOL     OW 5693   8.244   9.524   2.872
 1287SOL    HW1 5694   8.151   9.538   2.853
 1287SOL    HW2 5695   8.289   9.556   2.794
 1288SOL     OW 5696   9.962  11.181  14.563
 1288SOL    HW1 5697   9.877  11.182  14.606
 1288SOL    HW2 5698  10.011  11.252  14.604
 1289SOL     OW 5699   2.622   9.196   2.222
 1289SOL    HW1 5700   2.657   9.107   2.220
 1289SOL    HW2 5701   2.629   9.222   2.314
 1290SOL     OW 5702   9.044   7.441   6.433
 1290SOL    HW1 5703   9.021   7.450   6.340
 1290SOL    HW2 5704   8.968   7.398   6.472
 1291SOL     OW 5705   4.567   0.187   4.930
 1291SOL    HW1 5706   4.532   0.194   5.019
 1291SOL    HW2 5707   4.516   0.117   4.890
 1292SOL     OW 5708   7.860  14.075   4.190
 1292SOL    HW1 5709   7.949  14.087   4.157
 1292SOL    HW2 5710   7.814  14.032   4.117
 1293SOL     OW 5711   1.069  12.731  12.793
 1293SOL    HW1 5712   1.104  12.753  12.880
 1293SOL    HW2 5713   0.974  12.733  12.804
 1294SOL     OW 5714   3.740  14.421  11.841
 1294SOL    HW1 5715   3.806  14.442  11.907
 1294SOL    HW2 5716   3.778  14.450  11.758
 1295SOL     OW 5717  12.955   2.069   7.462
 1295SOL    HW1 5718  12.992   2.034   7.543
 1295SOL    HW2 5719  12.989   2.011   7.394
 1296SOL     OW 5720   1.510  14.293   6.179
 1296SOL    HW1 5721   1.571  14.219   6.189
 1296SOL    HW2 5722   1.566  14.367   6.155
 1297SOL     OW 5723   0.295  11.307   0.885
 1297SOL    HW1 5724   0.204  11.313   0.914
 1297SOL    HW2 5725   0.346  11.346   0.956
 1298SOL     OW 5726   3.129   2.333   5.954
 1298SOL    HW1 5727   3.173   2.395   5.896
 1298SOL    HW2 5728   3.065   2.288   5.899
 1299SOL     OW 5729  13.166   4.412   8.012
 1299SOL    HW1 5730  13.108   4.346   8.050
 1299SOL    HW2 5731  13.137   4.495   8.050
 1300SOL     OW 5732   1.365  12.444   4.359
 1300SOL    HW1 5733   1.405  12.384   4.422
 1300SOL    HW2 5734   1.276  12.410   4.346
 1301SOL     OW 5735  13.905   5.201   8.386
 1301SOL    HW1 5736  13.829   5.228   8.437
 1301SOL    HW2 5737  13.913   5.107   8.403
 1302SOL     OW 5738  10.947   5.382   7.535
 1302SOL    HW1 5739  10.923   5.320   7.465
 1302SOL    HW2 5740  10.894   5.355   7.610
 1303SOL     OW 5741  12.686   2.181   0.086
 1303SOL    HW1 5742  12.653   2.144   0.168
 1303SOL    HW2 5743  12.617   2.161   0.022
 1304SOL     OW 5744   7.368   4.956   3.881
 1304SOL    HW1 5745   7.359   4.994   3.969
 1304SOL    HW2 5746   7.279   4.932   3.855
 1305SOL     OW 5747   2.284  13.060  11.995
 1305SOL    HW1 5748   2.323  12.974  12.010
 1305SOL    HW2 5749   2.256  13.058  11.903
 1306SOL     OW 5750   5.474  12.472  11.504
 1306SOL    HW1 5751   5.545  12.408  11.515
 1306SOL    HW2 5752   5.401  12.435  11.553
 1307SOL     OW 5753   2.737  12.455   4.218
 1307SOL    HW1 5754   2.668  12.464   4.152
 1307SOL    HW2 5755   2.817  12.441   4.167
 1308SOL     OW 5756   3.873  10.296   9.135
 1308SOL    HW1 5757   3.934  10.272   9.204
 1308SOL    HW2 5758   3.823  10.370   9.170
 1309SOL     OW 5759   9.932   4.729   3.163
 1309SOL    HW1 5760   9.873   4.804   3.174
 1309SOL    HW2 5761  10.020   4.767   3.162
 1310SOL     OW 5762   6.724  12.378   6.244
 1310SOL    HW1 5763   6.634  12.406   6.261
 1310SOL    HW2 5764   6.777  12.456   6.260
 1311SOL     OW 5765  14.584   0.012   4.242
 1311SOL    HW1 5766  14.654   0.076   4.233
 1311SOL    HW2 5767  14.613  14.828   4.314
 1312SOL     OW 5768   3.666   0.910   9.031
 1312SOL    HW1 5769   3.665   1.000   8.999
 1312SOL    HW2 5770   3.718   0.862   8.967
 1313SOL     OW 5771  12.284  12.784  12.450
 1313SOL    HW1 5772  12.372  12.750  12.466
 1313SOL    HW2 5773  12.289  12.875  12.478
 1314SOL     OW 5774   7.319   3.060  10.181
 1314SOL    HW1 5775   7.294   2.990  10.120
 1314SOL    HW2 5776   7.408   3.084  10.154
 1315SOL     OW 5777   1.100  13.700   0.923
 1315SOL    HW1 5778   1.008  13.701   0.898
 1315SOL    HW2 5779   1.104  13.643   1.000
 1316SOL     OW 5780   8.512  13.890   7.432
 1316SOL    HW1 5781   8.526  13.954   7.362
 1316SOL    HW2 5782   8.586  13.830   7.424
 1317SOL     OW 5783   2.642  10.064  13.908
 1317SOL    HW1 5784   2.589  10.140  13.887
 1317SOL    HW2 5785   2.665  10.026  13.823
 1318SOL     OW 5786   0.600  10.758   8.832
 1318SOL    HW1 5787   0.627  10.717   8.914
 1318SOL    HW2 5788   0.620  10.851   8.845
 1319SOL     OW 5789   1.367  10.902  11.647
 1319SOL    HW1 5790   1.302  10.844  11.606
 1319SOL    HW2 5791   1.427  10.843  11.693
 1320SOL     OW 5792  12.225  12.884   8.476
 1320SOL    HW1 5793  12.213  12.849   8.564
 1320SOL    HW2 5794  12.312  12.854   8.450
 1321SOL     OW 5795  13.345   5.409   6.678
 1321SOL    HW1 5796  13.326   5.470   6.750
 1321SOL    HW2 5797  13.440   5.412   6.669
 1322SOL     OW 5798   4.666   2.993   3.099
 1322SOL    HW1 5799   4.611   3.030   3.030
 1322SOL    HW2 5800   4.726   2.935   3.053
 1323SOL     OW 5801  14.127   3.239   2.981
 1323SOL    HW1 5802  14.160   3.166   2.929
 1323SOL    HW2 5803  14.179   3.314   2.953
 1324SOL     OW 5804   4.698   9.060  11.558
 1324SOL    HW1 5805   4.706   9.090  11.467
 1324SOL    HW2 5806   4.753   8.982  11.562
 1325SOL     OW 5807   5.540   3.019   7.818
 1325SOL    HW1 5808   5.613   3.009   7.878
 1325SOL    HW2 5809   5.557   2.956   7.748
 1326SOL     OW 5810  11.399   8.819   2.453
 1326SOL    HW1 5811  11.392   8.877   2.377
 1326SOL    HW2 5812  11.471   8.856   2.505
 1327SOL     OW 5813   1.793   4.198  10.384
 1327SOL    HW1 5814   1.827   4.288  10.382
 1327SOL    HW2 5815   1.844   4.153  10.317
 1328SOL     OW 5816  14.153  13.323  12.805
 1328SOL    HW1 5817  14.206  13.375  12.745
 1328SOL    HW2 5818  14.110  13.388  12.861
 1329SOL     OW 5819   8.682   3.134  13.951
 1329SOL    HW1 5820   8.658   3.126  14.043
 1329SOL    HW2 5821   8.769   3.096  13.945
 1330SOL     OW 5822   2.585   4.651   0.438
 1330SOL    HW1 5823   2.543   4.630   0.355
 1330SOL    HW2 5824   2.538   4.598   0.502
 1331SOL     OW 5825   3.663  12.537   0.478
 1331SOL    HW1 5826   3.634  12.485   0.553
 1331SOL    HW2 5827   3.708  12.475   0.421
 1332SOL     OW 5828   0.346   6.869   3.960
 1332SOL    HW1 5829   0.274   6.879   3.898
 1332SOL    HW2 5830   0.398   6.797   3.925
 1333SOL     OW 5831   3.878  12.484   1.235
 1333SOL    HW1 5832   3.947  12.437   1.189
 1333SOL    HW2 5833   3.810  12.418   1.250
 1334SOL     OW 5834  13.370   8.292   7.844
 1334SOL    HW1 5835  13.276   8.299   7.861
 1334SOL    HW2 5836  13.380   8.320   7.753
 1335SOL     OW 5837  10.230  10.580   5.694
 1335SOL    HW1 5838  10.229  10.552   5.786
 1335SOL    HW2 5839  10.221  10.676   5.699
 1336SOL     OW 5840   2.402   5.356   9.324
 1336SOL    HW1 5841   2.443   5.409   9.256
 1336SOL    HW2 5842   2.311   5.386   9.326
 1337SOL     OW 5843   2.570   1.083  11.845
 1337SOL    HW1 5844   2.662   1.109  11.856
 1337SOL    HW2 5845   2.524   1.128  11.916
 1338SOL     OW 5846   1.916   5.092   8.395
 1338SOL    HW1 5847   1.983   5.159   8.381
 1338SOL    HW2 5848   1.833   5.139   8.384
 1339SOL     OW 5849   3.913   7.559  13.842
 1339SOL    HW1 5850   3.969   7.482  13.830
 1339SOL    HW2 5851   3.870   7.544  13.926
 1340SOL     OW 5852  12.086   2.198   8.266
 1340SOL    HW1 5853  12.088   2.104   8.248
 1340SOL    HW2 5854  12.178   2.225   8.260
 1341SOL     OW 5855   9.203  12.231   1.715
 1341SOL    HW1 5856   9.171  12.228   1.625
 1341SOL    HW2 5857   9.220  12.140   1.738
 1342SOL     OW 5858   9.343  12.566  11.841
 1342SOL    HW1 5859   9.257  12.580  11.802
 1342SOL    HW2 5860   9.373  12.653  11.868
 1343SOL     OW 5861   5.949   8.814   7.639
 1343SOL    HW1 5862   5.901   8.880   7.688
 1343SOL    HW2 5863   5.919   8.825   7.548
 1344SOL     OW 5864   7.622  11.258   1.141
 1344SOL    HW1 5865   7.540  11.212   1.126
 1344SOL    HW2 5866   7.690  11.191   1.127
 1345SOL     OW 5867   2.309   8.741   1.649
 1345SOL    HW1 5868   2.393   8.770   1.684
 1345SOL    HW2 5869   2.311   8.646   1.658
 1346SOL     OW 5870  13.877   4.405  13.477
 1346SOL    HW1 5871  13.851   4.379  13.389
 1346SOL    HW2 5872  13.873   4.324  13.528
 1347SOL     OW 5873   6.008   6.523  11.537
 1347SOL    HW1 5874   6.085   6.542  11.483
 1347SOL    HW2 5875   6.014   6.585  11.609
 1348SOL     OW 5876  14.075  10.013   4.160
 1348SOL    HW1 5877  14.020   9.969   4.095
 1348SOL    HW2 5878  14.018  10.078   4.200
 1349SOL     OW 5879   8.984   9.130   4.589
 1349SOL    HW1 5880   8.908   9.111   4.535
 1349SOL    HW2 5881   8.990   9.226   4.589
 1350SOL     OW 5882   6.616   4.856  13.438
 1350SOL    HW1 5883   6.621   4.890  13.349
 1350SOL    HW2 5884   6.705   4.867  13.473
 1351SOL     OW 5885   8.523   1.733  14.589
 1351SOL    HW1 5886   8.450   1.708  14.645
 1351SOL    HW2 5887   8.528   1.828  14.598
 1352SOL     OW 5888  14.342   4.139   4.390
 1352SOL    HW1 5889  14.324   4.228   4.359
 1352SOL    HW2 5890  14.269   4.119   4.449
 1353SOL     OW 5891   7.067   4.604   2.230
 1353SOL    HW1 5892   7.142   4.660   2.247
 1353SOL    HW2 5893   7.047   4.618   2.137
 1354SOL     OW 5894   2.230   0.292   2.734
 1354SOL    HW1 5895   2.187   0.268   2.816
 1354SOL    HW2 5896   2.276   0.374   2.754
 1355SOL     OW 5897   1.590   1.679   2.937
 1355SOL    HW1 5898   1.551   1.687   2.849
 1355SOL    HW2 5899   1.520   1.708   2.996
 1356SOL     OW 5900   7.566   6.294  11.598
 1356SOL    HW1 5901   7.577   6.386  11.574
 1356SOL    HW2 5902   7.653   6.255  11.583
 1357SOL     OW 5903  11.934  12.038   0.774
 1357SOL    HW1 5904  12.025  12.018   0.755
 1357SOL    HW2 5905  11.936  12.088   0.855
 1358SOL     OW 5906  12.228   5.069   4.276
 1358SOL    HW1 5907  12.313   5.107   4.300
 1358SOL    HW2 5908  12.168   5.144   4.272
 1359SOL     OW 5909   5.776   8.448  14.243
 1359SOL    HW1 5910   5.712   8.379  14.224
 1359SOL    HW2 5911   5.812   8.472  14.158
 1360SOL     OW 5912   4.958   4.956   8.694
 1360SOL    HW1 5913   4.957   4.968   8.789
 1360SOL    HW2 5914   5.050   4.941   8.673
 1361SOL     OW 5915   9.028   1.894   8.707
 1361SOL    HW1 5916   9.075   1.870   8.787
 1361SOL    HW2 5917   9.009   1.810   8.664
 1362SOL     OW 5918   2.313   0.477  12.627
 1362SOL    HW1 5919   2.342   0.515  12.545
 1362SOL    HW2 5920   2.256   0.405  12.602
 1363SOL     OW 5921   9.909  13.032  14.776
 1363SOL    HW1 5922   9.886  13.022  14.869
 1363SOL    HW2 5923   9.855  13.105  14.746
 1364SOL     OW 5924  14.266   4.510   7.025
 1364SOL    HW1 5925  14.322   4.480   7.096
 1364SOL    HW2 5926  14.326   4.537   6.956
 1365SOL     OW 5927   1.262   0.490   6.261
 1365SOL    HW1 5928   1.290   0.407   6.221
 1365SOL    HW2 5929   1.334   0.514   6.319
 1366SOL     OW 5930   1.244  13.006   9.977
 1366SOL    HW1 5931   1.260  13.099   9.959
 1366SOL    HW2 5932   1.174  12.981   9.916
 1367SOL     OW 5933   9.317   2.437  11.674
 1367SOL    HW1 5934   9.228   2.471  11.669
 1367SOL    HW2 5935   9.334   2.428  11.768
 1368SOL     OW 5936   1.488  10.115   3.697
 1368SOL    HW1 5937   1.520  10.168   3.624
 1368SOL    HW2 5938   1.562  10.060   3.721
 1369SOL     OW 5939   5.661   0.970   6.973
 1369SOL    HW1 5940   5.672   0.970   6.878
 1369SOL    HW2 5941   5.748   0.947   7.007
 1370SOL     OW 5942   6.914   6.289   9.429
 1370SOL    HW1 5943   6.960   6.372   9.420
 1370SOL    HW2 5944   6.939   6.239   9.351
 1371SOL     OW 5945   0.125   3.695  12.761
 1371SOL    HW1 5946   0.069   3.737  12.695
 1371SOL    HW2 5947   0.121   3.601  12.740
 1372SOL     OW 5948   3.139   0.426   4.417
 1372SOL    HW1 5949   3.102   0.451   4.502
 1372SOL    HW2 5950   3.217   0.480   4.408
 1373SOL     OW 5951   2.500   1.896   4.119
 1373SOL    HW1 5952   2.542   1.818   4.082
 1373SOL    HW2 5953   2.479   1.871   4.209
 1374SOL     OW 5954   5.980   7.293   9.114
 1374SOL    HW1 5955   6.002   7.332   9.198
 1374SOL    HW2 5956   6.031   7.342   9.049
 1375SOL     OW 5957   3.484   4.216   2.195
 1375SOL    HW1 5958   3.406   4.173   2.161
 1375SOL    HW2 5959   3.457   4.253   2.279
 1376SOL     OW 5960  10.412   0.905   2.633
 1376SOL    HW1 5961  10.388   0.994   2.659
 1376SOL    HW2 5962  10.466   0.917   2.555
 1377SOL     OW 5963  13.480  10.221   1.953
 1377SOL    HW1 5964  13.544  10.161   1.990
 1377SOL    HW2 5965  13.523  10.260   1.877
 1378SOL     OW 5966   5.356   8.582   7.731
 1378SOL    HW1 5967   5.360   8.505   7.787
 1378SOL    HW2 5968   5.274   8.625   7.756
 1379SOL     OW 5969   1.271  10.148   3.055
 1379SOL    HW1 5970   1.282  10.155   3.150
 1379SOL    HW2 5971   1.358  10.168   3.019
 1380SOL     OW 5972   2.555  10.572   8.118
 1380SOL    HW1 5973   2.637  10.559   8.166
 1380SOL    HW2 5974   2.513  10.486   8.118
 1381SOL     OW 5975   0.579   6.726   9.840
 1381SOL    HW1 5976   0.639   6.793   9.808
 1381SOL    HW2 5977   0.579   6.738   9.935
 1382SOL     OW 5978   3.144  10.386   7.263
 1382SOL    HW1 5979   3.227  10.426   7.290
 1382SOL    HW2 5980   3.122  10.327   7.335
 1383SOL     OW 5981  13.987   2.650  13.418
 1383SOL    HW1 5982  13.997   2.629  13.511
 1383SOL    HW2 5983  13.916   2.594  13.389
 1384SOL     OW 5984   1.369  13.878   7.182
 1384SOL    HW1 5985   1.379  13.864   7.276
 1384SOL    HW2 5986   1.284  13.920   7.172
 1385SOL     OW 5987   5.508  11.912  12.957
 1385SOL    HW1 5988   5.465  11.830  12.980
 1385SOL    HW2 5989   5.463  11.942  12.878
 1386SOL     OW 5990   9.167   1.495   7.691
 1386SOL    HW1 5991   9.244   1.452   7.653
 1386SOL    HW2 5992   9.093   1.455   7.646
 1387SOL     OW 5993   7.552   3.728   5.562
 1387SOL    HW1 5994   7.634   3.763   5.596
 1387SOL    HW2 5995   7.484   3.781   5.603
 1388SOL     OW 5996   2.895   6.650   0.266
 1388SOL    HW1 5997   2.832   6.625   0.334
 1388SOL    HW2 5998   2.899   6.574   0.208
 1389SOL     OW 5999   7.170   1.290  13.531
 1389SOL    HW1 6000   7.211   1.299  13.617
 1389SOL    HW2 6001   7.079   1.317  13.545
 1390SOL     OW 6002  13.373  11.671   4.210
 1390SOL    HW1 6003  13.426  11.749   4.228
 1390SOL    HW2 6004  13.398  11.646   4.121
 1391SOL     OW 6005   4.426   4.090   7.577
 1391SOL    HW1 6006   4.513   4.051   7.592
 1391SOL    HW2 6007   4.368   4.014   7.568
 1392SOL     OW 6008   7.303   1.994   9.950
 1392SOL    HW1 6009   7.345   1.926  10.002
 1392SOL    HW2 6010   7.354   2.073   9.968
 1393SOL     OW 6011   9.167   4.117   9.848
 1393SOL    HW1 6012   9.150   4.210   9.834
 1393SOL    HW2 6013   9.131   4.099   9.935
 1394SOL     OW 6014   0.072  11.716   1.993
 1394SOL    HW1 6015   0.094  11.783   1.929
 1394SOL    HW2 6016   0.015  11.761   2.056
 1395SOL     OW 6017   1.801   6.005  13.477
 1395SOL    HW1 6018   1.809   5.995  13.572
 1395SOL    HW2 6019   1.805   6.099  13.461
 1396SOL     OW 6020   1.736   7.746   7.101
 1396SOL    HW1 6021   1.724   7.813   7.033
 1396SOL    HW2 6022   1.825   7.759   7.132
 1397SOL     OW 6023   3.044  13.395  12.385
 1397SOL    HW1 6024   3.003  13.340  12.318
 1397SOL    HW2 6025   3.075  13.472  12.338
 1398SOL     OW 6026   8.136  10.228   5.059
 1398SOL    HW1 6027   8.168  10.149   5.015
 1398SOL    HW2 6028   8.068  10.261   5.000
 1399SOL     OW 6029  13.430   0.482   9.969
 1399SOL    HW1 6030  13.480   0.488   9.887
 1399SOL    HW2 6031  13.496   0.495  10.038
 1400SOL     OW 6032   0.690   2.374   2.346
 1400SOL    HW1 6033   0.612   2.394   2.294
 1400SOL    HW2 6034   0.664   2.388   2.436
 1401SOL     OW 6035   0.609  12.610  10.786
 1401SOL    HW1 6036   0.601  12.587  10.878
 1401SOL    HW2 6037   0.571  12.535  10.739
 1402SOL     OW 6038   1.607  11.350   8.287
 1402SOL    HW1 6039   1.614  11.394   8.202
 1402SOL    HW2 6040   1.693  11.311   8.301
 1403SOL     OW 6041  11.551  11.563   4.332
 1403SOL    HW1 6042  11.457  11.570   4.313
 1403SOL    HW2 6043  11.579  11.653   4.347
 1404SOL     OW 6044   8.874   1.627   0.470
 1404SOL    HW1 6045   8.870   1.581   0.386
 1404SOL    HW2 6046   8.792   1.604   0.513
 1405SOL     OW 6047   0.341   1.216  14.852
 1405SOL    HW1 6048   0.337   1.282  14.783
 1405SOL    HW2 6049   0.339   1.132  14.807
 1406SOL     OW 6050   6.144  11.566  10.953
 1406SOL    HW1 6051   6.147  11.474  10.981
 1406SOL    HW2 6052   6.174  11.564  10.862
 1407SOL     OW 6053   5.733  11.531   0.195
 1407SOL    HW1 6054   5.767  11.621   0.195
 1407SOL    HW2 6055   5.647  11.539   0.236
 1408SOL     OW 6056   8.363  13.588   4.755
 1408SOL    HW1 6057   8.431  13.556   4.815
 1408SOL    HW2 6058   8.285  13.596   4.808
 1409SOL     OW 6059   1.462   6.672   4.625
 1409SOL    HW1 6060   1.555   6.654   4.625
 1409SOL    HW2 6061   1.450   6.739   4.557
 1410SOL     OW 6062  11.598  11.234   1.125
 1410SOL    HW1 6063  11.609  11.276   1.039
 1410SOL    HW2 6064  11.669  11.271   1.179
 1411SOL     OW 6065   6.237   5.690   8.909
 1411SOL    HW1 6066   6.231   5.677   9.003
 1411SOL    HW2 6067   6.149   5.674   8.876
 1412SOL     OW 6068   7.890   7.873  14.129
 1412SOL    HW1 6069   7.912   7.801  14.188
 1412SOL    HW2 6070   7.836   7.932  14.182
 1413SOL     OW 6071   6.464   6.300   2.364
 1413SOL    HW1 6072   6.432   6.354   2.436
 1413SOL    HW2 6073   6.526   6.239   2.406
 1414SOL     OW 6074   3.202  11.362   8.080
 1414SOL    HW1 6075   3.109  11.354   8.102
 1414SOL    HW2 6076   3.203  11.406   7.995
 1415SOL     OW 6077   8.690  12.901  13.433
 1415SOL    HW1 6078   8.746  12.920  13.508
 1415SOL    HW2 6079   8.739  12.935  13.358
 1416SOL     OW 6080   2.364   3.243  11.713
 1416SOL    HW1 6081   2.444   3.285  11.682
 1416SOL    HW2 6082   2.356   3.271  11.804
 1417SOL     OW 6083   1.157   2.664  11.819
 1417SOL    HW1 6084   1.092   2.728  11.850
 1417SOL    HW2 6085   1.125   2.637  11.734
 1418SOL     OW 6086   9.100  14.246   3.182
 1418SOL    HW1 6087   9.103  14.341   3.166
 1418SOL    HW2 6088   9.145  14.234   3.265
 1419SOL     OW 6089  13.026  12.630   6.524
 1419SOL    HW1 6090  13.045  12.674   6.607
 1419SOL    HW2 6091  13.001  12.541   6.549
 1420SOL     OW 6092  13.644  10.870   6.808
 1420SOL    HW1 6093  13.734  10.885   6.779
 1420SOL    HW2 6094  13.653  10.844   6.900
 1421SOL     OW 6095   6.509  13.361   9.056
 1421SOL    HW1 6096   6.557  13.295   9.107
 1421SOL    HW2 6097   6.523  13.443   9.104
 1422SOL     OW 6098   1.291  14.566   1.526
 1422SOL    HW1 6099   1.295  14.501   1.455
 1422SOL    HW2 6100   1.226  14.531   1.586
 1423SOL     OW 6101  12.254   7.981   2.536
 1423SOL    HW1 6102  12.267   8.062   2.586
 1423SOL    HW2 6103  12.317   7.919   2.574
 1424SOL     OW 6104  12.408   2.153   1.361
 1424SOL    HW1 6105  12.415   2.095   1.285
 1424SOL    HW2 6106  12.499   2.171   1.386
 1425SOL     OW 6107  13.895   0.744   1.422
 1425SOL    HW1 6108  13.908   0.711   1.333
 1425SOL    HW2 6109  13.823   0.806   1.414
 1426SOL     OW 6110   4.252   8.216   3.057
 1426SOL    HW1 6111   4.312   8.168   2.999
 1426SOL    HW2 6112   4.166   8.177   3.040
 1427SOL     OW 6113  10.703   3.157   3.236
 1427SOL    HW1 6114  10.703   3.162   3.140
 1427SOL    HW2 6115  10.756   3.080   3.256
 1428SOL     OW 6116   1.026  13.208   9.748
 1428SOL    HW1 6117   1.014  13.227   9.655
 1428SOL    HW2 6118   1.043  13.114   9.751
 1429SOL     OW 6119   8.021   3.317   3.863
 1429SOL    HW1 6120   7.981   3.305   3.777
 1429SOL    HW2 6121   8.068   3.400   3.857
 1430SOL     OW 6122  12.941   7.990  11.619
 1430SOL    HW1 6123  12.990   8.037  11.553
 1430SOL    HW2 6124  12.885   7.929  11.570
 1431SOL     OW 6125   4.425   0.677   9.371
 1431SOL    HW1 6126   4.333   0.676   9.345
 1431SOL    HW2 6127   4.472   0.704   9.292
 1432SOL     OW 6128  12.889  14.532   4.316
 1432SOL    HW1 6129  12.918  14.442   4.328
 1432SOL    HW2 6130  12.963  14.575   4.273
 1433SOL     OW 6131   5.954  14.239  13.859
 1433SOL    HW1 6132   5.983  14.154  13.894
 1433SOL    HW2 6133   6.010  14.303  13.904
 1434SOL     OW 6134   9.405  12.860   8.573
 1434SOL    HW1 6135   9.429  12.773   8.539
 1434SOL    HW2 6136   9.451  12.921   8.515
 1435SOL     OW 6137  10.118  11.691  12.407
 1435SOL    HW1 6138  10.178  11.656  12.473
 1435SOL    HW2 6139  10.126  11.786  12.415
 1436SOL     OW 6140   9.858   3.981  12.559
 1436SOL    HW1 6141   9.894   3.952  12.643
 1436SOL    HW2 6142   9.796   3.912  12.535
 1437SOL     OW 6143  14.699   9.676   9.558
 1437SOL    HW1 6144  14.762   9.699   9.627
 1437SOL    HW2 6145  14.614   9.682   9.601
 1438SOL     OW 6146   0.409   4.666   1.940
 1438SOL    HW1 6147   0.331   4.613   1.925
 1438SOL    HW2 6148   0.376   4.755   1.951
 1439SOL     OW 6149   6.954   4.639   4.422
 1439SOL    HW1 6150   6.984   4.714   4.370
 1439SOL    HW2 6151   6.874   4.671   4.464
 1440SOL     OW 6152   9.908   1.976   6.737
 1440SOL    HW1 6153   9.815   1.968   6.762
 1440SOL    HW2 6154   9.956   1.952   6.817
 1441SOL     OW 6155   4.213  13.093  14.622
 1441SOL    HW1 6156   4.280  13.051  14.674
 1441SOL    HW2 6157   4.257  13.167  14.581
 1442SOL     OW 6158  12.527   5.553  14.172
 1442SOL    HW1 6159  12.456   5.536  14.111
 1442SOL    HW2 6160  12.497   5.517  14.255
 1443SOL     OW 6161   0.929   8.939   6.465
 1443SOL    HW1 6162   0.926   9.028   6.428
 1443SOL    HW2 6163   0.978   8.948   6.546
 1444SOL     OW 6164  10.259   6.847   0.773
 1444SOL    HW1 6165  10.274   6.903   0.849
 1444SOL    HW2 6166  10.345   6.842   0.730
 1445SOL     OW 6167  13.132  11.613   0.306
 1445SOL    HW1 6168  13.150  11.583   0.217
 1445SOL    HW2 6169  13.172  11.547   0.363
 1446SOL     OW 6170   2.131  14.747   0.311
 1446SOL    HW1 6171   2.144  14.830   0.357
 1446SOL    HW2 6172   2.111  14.772   0.221
 1447SOL     OW 6173   5.479   9.328   1.565
 1447SOL    HW1 6174   5.527   9.377   1.631
 1447SOL    HW2 6175   5.545   9.302   1.501
 1448SOL     OW 6176   6.184   0.825   5.360
 1448SOL    HW1 6177   6.227   0.849   5.278
 1448SOL    HW2 6178   6.225   0.742   5.386
 1449SOL     OW 6179   0.437   1.360   2.827
 1449SOL    HW1 6180   0.397   1.432   2.778
 1449SOL    HW2 6181   0.371   1.337   2.893
 1450SOL     OW 6182   6.661   0.202   4.736
 1450SOL    HW1 6183   6.654   0.122   4.683
 1450SOL    HW2 6184   6.586   0.255   4.710
 1451SOL     OW 6185  13.792   2.613  13.745
 1451SOL    HW1 6186  13.797   2.523  13.776
 1451SOL    HW2 6187  13.700   2.637  13.756
 1452SOL     OW 6188   8.603   7.973   6.413
 1452SOL    HW1 6189   8.637   7.884   6.406
 1452SOL    HW2 6190   8.520   7.970   6.366
 1453SOL     OW 6191   7.043  11.360  12.495
 1453SOL    HW1 6192   7.124  11.356  12.443
 1453SOL    HW2 6193   7.067  11.410  12.573
 1454SOL     OW 6194   6.485   0.731  12.867
 1454SOL    HW1 6195   6.572   0.713  12.831
 1454SOL    HW2 6196   6.498   0.808  12.923
 1455SOL     OW 6197   1.617   1.645   3.855
 1455SOL    HW1 6198   1.605   1.557   3.820
 1455SOL    HW2 6199   1.622   1.701   3.777
 1456SOL     OW 6200   1.043   1.376   1.324
 1456SOL    HW1 6201   1.096   1.454   1.338
 1456SOL    HW2 6202   1.022   1.345   1.412
 1457SOL     OW 6203  13.475   6.049   2.242
 1457SOL    HW1 6204  13.444   5.959   2.233
 1457SOL    HW2 6205  13.395   6.102   2.244
 1458SOL     OW 6206   8.526   2.382   5.654
 1458SOL    HW1 6207   8.479   2.317   5.601
 1458SOL    HW2 6208   8.463   2.410   5.720
 1459SOL     OW 6209   8.840  12.543   4.857
 1459SOL    HW1 6210   8.885  12.615   4.900
 1459SOL    HW2 6211   8.889  12.465   4.884
 1460SOL     OW 6212   0.483  13.217   5.354
 1460SOL    HW1 6213   0.442  13.288   5.306
 1460SOL    HW2 6214   0.411  13.176   5.403
 1461SOL     OW 6215   2.097  14.605  11.113
 1461SOL    HW1 6216   2.031  14.535  11.105
 1461SOL    HW2 6217   2.124  14.623  11.023
 1462SOL     OW 6218  11.682   2.939   4.582
 1462SOL    HW1 6219  11.719   2.973   4.663
 1462SOL    HW2 6220  11.758   2.923   4.525
 1463SOL     OW 6221  11.413   6.005  12.114
 1463SOL    HW1 6222  11.324   5.969  12.110
 1463SOL    HW2 6223  11.404   6.084  12.167
 1464SOL     OW 6224   0.490   4.017   5.944
 1464SOL    HW1 6225   0.436   3.965   5.885
 1464SOL    HW2 6226   0.571   3.966   5.953
 1465SOL     OW 6227  10.873   9.722   4.404
 1465SOL    HW1 6228  10.933   9.717   4.329
 1465SOL    HW2 6229  10.862   9.632   4.432
 1466SOL     OW 6230   4.429   6.403  12.188
 1466SOL    HW1 6231   4.431   6.488  12.145
 1466SOL    HW2 6232   4.516   6.367  12.174
 1467SOL     OW 6233   8.247   4.932   3.824
 1467SOL    HW1 6234   8.324   4.909   3.876
 1467SOL    HW2 6235   8.280   4.937   3.734
 1468SOL     OW 6236   6.796   1.559   0.226
 1468SOL    HW1 6237   6.798   1.488   0.162
 1468SOL    HW2 6238   6.820   1.637   0.177
 1469SOL     OW 6239  11.447  14.788   7.263
 1469SOL    HW1 6240  11.462  14.869   7.215
 1469SOL    HW2 6241  11.501  14.723   7.218
 1470SOL     OW 6242  12.216   4.748   1.159
 1470SOL    HW1 6243  12.193   4.655   1.155
 1470SOL    HW2 6244  12.132   4.794   1.163
 1471SOL     OW 6245  11.396   5.934   5.743
 1471SOL    HW1 6246  11.455   5.872   5.785
 1471SOL    HW2 6247  11.340   5.881   5.686
 1472SOL     OW 6248   0.350   9.949   2.947
 1472SOL    HW1 6249   0.443   9.937   2.926
 1472SOL    HW2 6250   0.331   9.880   3.010
 1473SOL     OW 6251   7.876   3.176   5.554
 1473SOL    HW1 6252   7.840   3.117   5.620
 1473SOL    HW2 6253   7.960   3.137   5.529
 1474SOL     OW 6254   7.253   5.805  12.014
 1474SOL    HW1 6255   7.248   5.901  12.011
 1474SOL    HW2 6256   7.214   5.782  12.099
 1475SOL     OW 6257   3.650   1.309   4.395
 1475SOL    HW1 6258   3.604   1.304   4.479
 1475SOL    HW2 6259   3.669   1.218   4.373
 1476SOL     OW 6260  14.494  12.811   4.386
 1476SOL    HW1 6261  14.589  12.818   4.394
 1476SOL    HW2 6262  14.467  12.898   4.356
 1477SOL     OW 6263  11.701   4.258  11.932
 1477SOL    HW1 6264  11.703   4.287  11.841
 1477SOL    HW2 6265  11.788   4.280  11.966
 1478SOL     OW 6266  12.492  14.210   1.018
 1478SOL    HW1 6267  12.559  14.197   0.951
 1478SOL    HW2 6268  12.526  14.282   1.072
 1479SOL     OW 6269   2.022   1.601   8.726
 1479SOL    HW1 6270   2.055   1.518   8.691
 1479SOL    HW2 6271   2.004   1.583   8.818
 1480SOL     OW 6272  12.016  14.610   3.213
 1480SOL    HW1 6273  12.054  14.541   3.267
 1480SOL    HW2 6274  12.086  14.634   3.153
 1481SOL     OW 6275   4.846   8.706   7.463
 1481SOL    HW1 6276   4.850   8.801   7.473
 1481SOL    HW2 6277   4.879   8.689   7.375
 1482SOL     OW 6278   2.493   7.863   9.717
 1482SOL    HW1 6279   2.505   7.957   9.705
 1482SOL    HW2 6280   2.398   7.851   9.719
 1483SOL     OW 6281   5.851  11.866   9.554
 1483SOL    HW1 6282   5.923  11.854   9.493
 1483SOL    HW2 6283   5.881  11.825   9.635
 1484SOL     OW 6284   0.047   3.573  12.318
 1484SOL    HW1 6285  14.841   3.609  12.278
 1484SOL    HW2 6286   0.031   3.581  12.412
 1485SOL     OW 6287  14.059   9.902  14.382
 1485SOL    HW1 6288  13.972   9.861  14.386
 1485SOL    HW2 6289  14.043   9.989  14.344
 1486SOL     OW 6290   3.343   1.366  11.271
 1486SOL    HW1 6291   3.404   1.439  11.267
 1486SOL    HW2 6292   3.304   1.362  11.183
 1487SOL     OW 6293   5.155   3.569  11.524
 1487SOL    HW1 6294   5.094   3.517  11.472
 1487SOL    HW2 6295   5.179   3.643  11.468
 1488SOL     OW 6296  14.092  14.173  10.960
 1488SOL    HW1 6297  14.047  14.173  11.044
 1488SOL    HW2 6298  14.068  14.257  10.920
 1489SOL     OW 6299   6.957   9.846   7.696
 1489SOL    HW1 6300   6.900   9.828   7.771
 1489SOL    HW2 6301   6.924   9.929   7.661
 1490SOL     OW 6302  10.428  13.816   6.780
 1490SOL    HW1 6303  10.499  13.811   6.844
 1490SOL    HW2 6304  10.360  13.868   6.823
 1491SOL     OW 6305   1.550  13.590  13.757
 1491SOL    HW1 6306   1.607  13.650  13.709
 1491SOL    HW2 6307   1.601  13.510  13.766
 1492SOL     OW 6308   4.331   6.144  11.151
 1492SOL    HW1 6309   4.252   6.199  11.145
 1492SOL    HW2 6310   4.351   6.120  11.060
 1493SOL     OW 6311  12.515   6.479   8.035
 1493SOL    HW1 6312  12.479   6.559   7.997
 1493SOL    HW2 6313  12.608   6.499   8.048
 1494SOL     OW 6314  10.841   3.867   6.538
 1494SOL    HW1 6315  10.856   3.777   6.567
 1494SOL    HW2 6316  10.846   3.862   6.442
 1495SOL     OW 6317  10.701   9.869   5.086
 1495SOL    HW1 6318  10.768   9.824   5.034
 1495SOL    HW2 6319  10.751   9.910   5.157
 1496SOL     OW 6320   6.558   6.180  14.761
 1496SOL    HW1 6321   6.467   6.201  14.781
 1496SOL    HW2 6322   6.576   6.227  14.680
 1497SOL     OW 6323   4.249   7.305   0.645
 1497SOL    HW1 6324   4.154   7.303   0.658
 1497SOL    HW2 6325   4.276   7.214   0.652
 1498SOL     OW 6326   8.891  10.391   6.206
 1498SOL    HW1 6327   8.854  10.303   6.211
 1498SOL    HW2 6328   8.880  10.417   6.115
 1499SOL     OW 6329   5.339   7.992   2.221
 1499SOL    HW1 6330   5.357   8.035   2.137
 1499SOL    HW2 6331   5.342   7.899   2.202
 1500SOL     OW 6332   1.794  13.709   9.915
 1500SOL    HW1 6333   1.771  13.802   9.916
 1500SOL    HW2 6334   1.780  13.683   9.824
 1501SOL     OW 6335   7.324  11.365  10.524
 1501SOL    HW1 6336   7.318  11.422  10.601
 1501SOL    HW2 6337   7.273  11.411  10.457
 1502SOL     OW 6338  14.636  10.333   2.826
 1502SOL    HW1 6339  14.560  10.276   2.809
 1502SOL    HW2 6340  14.648  10.381   2.744
 1503SOL     OW 6341   8.502   4.499   3.783
 1503SOL    HW1 6342   8.588   4.477   3.820
 1503SOL    HW2 6343   8.516   4.582   3.737
 1504SOL     OW 6344   8.716   2.684  13.965
 1504SOL    HW1 6345   8.803   2.671  13.927
 1504SOL    HW2 6346   8.732   2.703  14.057
 1505SOL     OW 6347   3.063   5.610  12.430
 1505SOL    HW1 6348   3.086   5.682  12.489
 1505SOL    HW2 6349   2.970   5.596  12.444
 1506SOL     OW 6350   4.093   5.273  14.277
 1506SOL    HW1 6351   4.015   5.279  14.332
 1506SOL    HW2 6352   4.065   5.220  14.202
 1507SOL     OW 6353   0.327   3.466   6.961
 1507SOL    HW1 6354   0.304   3.557   6.941
 1507SOL    HW2 6355   0.410   3.473   7.009
 1508SOL     OW 6356   8.376   0.611   9.973
 1508SOL    HW1 6357   8.446   0.636  10.034
 1508SOL    HW2 6358   8.322   0.549  10.022
 1509SOL     OW 6359   6.838  14.654  12.978
 1509SOL    HW1 6360   6.913  14.596  12.970
 1509SOL    HW2 6361   6.779  14.626  12.908
 1510SOL     OW 6362  13.911   4.208  13.906
 1510SOL    HW1 6363  13.992   4.257  13.893
 1510SOL    HW2 6364  13.884   4.181  13.818
 1511SOL     OW 6365   7.426   1.720  11.770
 1511SOL    HW1 6366   7.500   1.748  11.715
 1511SOL    HW2 6367   7.453   1.634  11.804
 1512SOL     OW 6368   2.968   9.489   6.682
 1512SOL    HW1 6369   2.986   9.523   6.595
 1512SOL    HW2 6370   3.026   9.538   6.740
 1513SOL     OW 6371   2.629   3.867   4.854
 1513SOL    HW1 6372   2.680   3.835   4.928
 1513SOL    HW2 6373   2.648   3.961   4.850
 1514SOL     OW 6374   8.392   1.831   9.334
 1514SOL    HW1 6375   8.349   1.783   9.264
 1514SOL    HW2 6376   8.418   1.763   9.397
 1515SOL     OW 6377   0.644   2.358   9.144
 1515SOL    HW1 6378   0.738   2.369   9.128
 1515SOL    HW2 6379   0.621   2.277   9.099
 1516SOL     OW 6380   1.349  13.480   0.929
 1516SOL    HW1 6381   1.264  13.517   0.951
 1516SOL    HW2 6382   1.390  13.546   0.874
 1517SOL     OW 6383  14.296   7.709   0.383
 1517SOL    HW1 6384  14.286   7.665   0.299
 1517SOL    HW2 6385  14.384   7.685   0.412
 1518SOL     OW 6386   9.215   2.944   2.205
 1518SOL    HW1 6387   9.167   2.862   2.210
 1518SOL    HW2 6388   9.276   2.941   2.279
 1519SOL     OW 6389   6.414   9.503   4.922
 1519SOL    HW1 6390   6.408   9.417   4.879
 1519SOL    HW2 6391   6.381   9.487   5.011
 1520SOL     OW 6392   6.078   9.809   9.711
 1520SOL    HW1 6393   5.987   9.784   9.730
 1520SOL    HW2 6394   6.074   9.902   9.692
 1521SOL     OW 6395   0.988   0.169   9.704
 1521SOL    HW1 6396   0.908   0.204   9.743
 1521SOL    HW2 6397   1.030   0.244   9.663
 1522SOL     OW 6398   0.468  12.831   1.761
 1522SOL    HW1 6399   0.455  12.736   1.771
 1522SOL    HW2 6400   0.559  12.840   1.733
 1523SOL     OW 6401  11.493  13.400  12.419
 1523SOL    HW1 6402  11.402  13.425  12.408
 1523SOL    HW2 6403  11.532  13.471  12.470
 1524SOL     OW 6404   3.512   2.888   2.889
 1524SOL    HW1 6405   3.593   2.868   2.842
 1524SOL    HW2 6406   3.538   2.951   2.956
 1525SOL     OW 6407   4.719  13.098  11.579
 1525SOL    HW1 6408   4.632  13.065  11.601
 1525SOL    HW2 6409   4.703  13.162  11.509
 1526SOL     OW 6410   8.714   0.891   1.527
 1526SOL    HW1 6411   8.659   0.899   1.449
 1526SOL    HW2 6412   8.731   0.797   1.535
 1527SOL     OW 6413   2.514   6.813   7.011
 1527SOL    HW1 6414   2.555   6.727   7.016
 1527SOL    HW2 6415   2.561   6.866   7.075
 1528SOL     OW 6416  11.605  13.595   3.118
 1528SOL    HW1 6417  11.590  13.540   3.195
 1528SOL    HW2 6418  11.592  13.537   3.043
 1529SOL     OW 6419   1.921   3.480  14.144
 1529SOL    HW1 6420   2.005   3.523  14.133
 1529SOL    HW2 6421   1.937   3.411  14.208
 1530SOL     OW 6422   5.487   7.962   6.610
 1530SOL    HW1 6423   5.460   7.925   6.694
 1530SOL    HW2 6424   5.430   7.919   6.545
 1531SOL     OW 6425   8.834   4.840  10.983
 1531SOL    HW1 6426   8.808   4.770  10.923
 1531SOL    HW2 6427   8.862   4.911  10.926
 1532SOL     OW 6428   8.233  13.452   0.511
 1532SOL    HW1 6429   8.297  13.408   0.456
 1532SOL    HW2 6430   8.150  13.408   0.492
 1533SOL     OW 6431   4.976   3.494  13.850
 1533SOL    HW1 6432   4.957   3.471  13.941
 1533SOL    HW2 6433   4.899   3.466  13.801
 1534SOL     OW 6434   0.440   9.142   2.030
 1534SOL    HW1 6435   0.531   9.161   2.050
 1534SOL    HW2 6436   0.440   9.050   2.002
 1535SOL     OW 6437   7.006   5.051   3.198
 1535SOL    HW1 6438   6.937   5.016   3.255
 1535SOL    HW2 6439   7.078   5.072   3.257
 1536SOL     OW 6440   5.915   8.741   8.280
 1536SOL    HW1 6441   5.888   8.729   8.189
 1536SOL    HW2 6442   5.949   8.831   8.283
 1537SOL     OW 6443   6.456   9.008   9.892
 1537SOL    HW1 6444   6.375   8.958   9.899
 1537SOL    HW2 6445   6.427   9.097   9.872
 1538SOL     OW 6446   7.665   3.245   3.614
 1538SOL    HW1 6447   7.609   3.268   3.688
 1538SOL    HW2 6448   7.604   3.241   3.539
 1539SOL     OW 6449  13.011  14.394   1.551
 1539SOL    HW1 6450  13.072  14.381   1.624
 1539SOL    HW2 6451  13.047  14.469   1.503
 1540SOL     OW 6452   6.329   6.837   1.132
 1540SOL    HW1 6453   6.261   6.894   1.166
 1540SOL    HW2 6454   6.407   6.857   1.184
 1541SOL     OW 6455  14.365   3.764  12.112
 1541SOL    HW1 6456  14.405   3.688  12.154
 1541SOL    HW2 6457  14.436   3.827  12.104
 1542SOL     OW 6458   9.688  10.707   5.668
 1542SOL    HW1 6459   9.597  10.708   5.700
 1542SOL    HW2 6460   9.681  10.670   5.580
 1543SOL     OW 6461   1.594  14.033   2.917
 1543SOL    HW1 6462   1.569  14.030   2.824
 1543SOL    HW2 6463   1.559  14.116   2.949
 1544SOL     OW 6464  13.680   0.289   5.609
 1544SOL    HW1 6465  13.661   0.349   5.682
 1544SOL    HW2 6466  13.625   0.212   5.627
 1545SOL     OW 6467  12.143  12.776  12.915
 1545SOL    HW1 6468  12.212  12.792  12.851
 1545SOL    HW2 6469  12.179  12.807  12.998
 1546SOL     OW 6470  10.278   5.102   0.738
 1546SOL    HW1 6471  10.299   5.041   0.808
 1546SOL    HW2 6472  10.235   5.176   0.783
 1547SOL     OW 6473  11.785  13.547   9.276
 1547SOL    HW1 6474  11.786  13.626   9.222
 1547SOL    HW2 6475  11.859  13.558   9.335
 1548SOL     OW 6476   8.661  12.807   1.803
 1548SOL    HW1 6477   8.637  12.881   1.858
 1548SOL    HW2 6478   8.699  12.743   1.863
 1549SOL     OW 6479   3.815   2.655   6.812
 1549SOL    HW1 6480   3.874   2.617   6.746
 1549SOL    HW2 6481   3.851   2.742   6.829
 1550SOL     OW 6482  13.870  11.868   9.009
 1550SOL    HW1 6483  13.907  11.953   9.030
 1550SOL    HW2 6484  13.794  11.887   8.953
 1551SOL     OW 6485   5.504   6.727  10.948
 1551SOL    HW1 6486   5.444   6.653  10.942
 1551SOL    HW2 6487   5.509   6.762  10.859
 1552SOL     OW 6488  13.523   5.929   0.565
 1552SOL    HW1 6489  13.522   5.962   0.655
 1552SOL    HW2 6490  13.570   5.846   0.570
 1553SOL     OW 6491   9.057   9.179   9.567
 1553SOL    HW1 6492   9.089   9.089   9.567
 1553SOL    HW2 6493   9.134   9.232   9.546
 1554SOL     OW 6494   2.973  11.159  12.794
 1554SOL    HW1 6495   2.880  11.176  12.784
 1554SOL    HW2 6496   3.009  11.162  12.706
 1555SOL     OW 6497   0.191  14.189   7.957
 1555SOL    HW1 6498   0.117  14.134   7.931
 1555SOL    HW2 6499   0.267  14.131   7.951
 1556SOL     OW 6500  11.319  13.669   3.149
 1556SOL    HW1 6501  11.346  13.638   3.062
 1556SOL    HW2 6502  11.371  13.748   3.163
 1557SOL     OW 6503   6.462  11.558   9.996
 1557SOL    HW1 6504   6.524  11.630  10.002
 1557SOL    HW2 6505   6.489  11.497  10.064
 1558SOL     OW 6506   4.644   5.196   3.801
 1558SOL    HW1 6507   4.553   5.181   3.828
 1558SOL    HW2 6508   4.660   5.288   3.821
 1559SOL     OW 6509   5.055   2.386   7.749
 1559SOL    HW1 6510   4.978   2.431   7.785
 1559SOL    HW2 6511   5.026   2.355   7.663
 1560SOL     OW 6512  10.478  11.852   4.220
 1560SOL    HW1 6513  10.463  11.945   4.237
 1560SOL    HW2 6514  10.406  11.808   4.265
 1561SOL     OW 6515  13.973   7.280  13.448
 1561SOL    HW1 6516  14.044   7.284  13.511
 1561SOL    HW2 6517  13.904   7.230  13.492
 1562SOL     OW 6518   3.267   3.396   5.478
 1562SOL    HW1 6519   3.335   3.370   5.540
 1562SOL    HW2 6520   3.257   3.319   5.421
 1563SOL     OW 6521   3.961   3.486   4.176
 1563SOL    HW1 6522   3.882   3.532   4.147
 1563SOL    HW2 6523   4.027   3.554   4.184
 1564SOL     OW 6524   6.673   8.801  12.027
 1564SOL    HW1 6525   6.648   8.811  12.119
 1564SOL    HW2 6526   6.765   8.826  12.025
 1565SOL     OW 6527   3.591   9.638   9.380
 1565SOL    HW1 6528   3.608   9.584   9.457
 1565SOL    HW2 6529   3.651   9.605   9.313
 1566SOL     OW 6530   0.986   7.347   1.304
 1566SOL    HW1 6531   0.931   7.268   1.306
 1566SOL    HW2 6532   1.028   7.348   1.390
 1567SOL     OW 6533   2.457   4.841  11.178
 1567SOL    HW1 6534   2.387   4.836  11.113
 1567SOL    HW2 6535   2.522   4.899  11.137
 1568SOL     OW 6536   8.038   6.083   6.191
 1568SOL    HW1 6537   8.113   6.052   6.241
 1568SOL    HW2 6538   8.023   6.172   6.223
 1569SOL     OW 6539  11.026   1.320   0.237
 1569SOL    HW1 6540  11.022   1.288   0.328
 1569SOL    HW2 6541  11.120   1.327   0.218
 1570SOL     OW 6542   1.598   0.738   6.898
 1570SOL    HW1 6543   1.647   0.767   6.974
 1570SOL    HW2 6544   1.509   0.768   6.914
 1571SOL     OW 6545   1.839  14.708   1.451
 1571SOL    HW1 6546   1.858  14.615   1.444
 1571SOL    HW2 6547   1.916  14.746   1.492
 1572SOL     OW 6548   7.202  10.814  14.002
 1572SOL    HW1 6549   7.141  10.821  13.929
 1572SOL    HW2 6550   7.184  10.729  14.041
 1573SOL     OW 6551   5.417   4.476   2.321
 1573SOL    HW1 6552   5.346   4.451   2.380
 1573SOL    HW2 6553   5.405   4.419   2.244
 1574SOL     OW 6554   8.854  10.002   0.048
 1574SOL    HW1 6555   8.922  10.002  14.853
 1574SOL    HW2 6556   8.868   9.920   0.095
 1575SOL     OW 6557  12.627  10.142   1.428
 1575SOL    HW1 6558  12.572  10.175   1.499
 1575SOL    HW2 6559  12.713  10.181   1.444
 1576SOL     OW 6560  10.045   6.561  14.811
 1576SOL    HW1 6561  10.005   6.648  14.803
 1576SOL    HW2 6562  10.117   6.574   0.000
 1577SOL     OW 6563  14.351  12.294   8.572
 1577SOL    HW1 6564  14.275  12.244   8.543
 1577SOL    HW2 6565  14.375  12.347   8.496
 1578SOL     OW 6566   9.461   4.639   3.009
 1578SOL    HW1 6567   9.417   4.554   3.009
 1578SOL    HW2 6568   9.551   4.620   3.035
 1579SOL     OW 6569   7.027   6.425   2.061
 1579SOL    HW1 6570   7.095   6.472   2.013
 1579SOL    HW2 6571   6.951   6.483   2.060
 1580SOL     OW 6572  13.884   3.469  13.354
 1580SOL    HW1 6573  13.884   3.493  13.261
 1580SOL    HW2 6574  13.975   3.479  13.381
 1581SOL     OW 6575   9.460  11.911   5.158
 1581SOL    HW1 6576   9.465  11.816   5.162
 1581SOL    HW2 6577   9.366  11.930   5.153
 1582SOL     OW 6578  10.834  13.949  14.246
 1582SOL    HW1 6579  10.810  13.925  14.336
 1582SOL    HW2 6580  10.919  13.908  14.233
 1583SOL     OW 6581   3.863   7.559  12.296
 1583SOL    HW1 6582   3.894   7.649  12.293
 1583SOL    HW2 6583   3.786   7.558  12.239
 1584SOL     OW 6584  12.281   2.878   6.596
 1584SOL    HW1 6585  12.338   2.917   6.662
 1584SOL    HW2 6586  12.342   2.838   6.533
 1585SOL     OW 6587   0.417  10.244  14.245
 1585SOL    HW1 6588   0.458  10.300  14.310
 1585SOL    HW2 6589   0.327  10.234  14.276
 1586SOL     OW 6590   0.272   8.891   8.906
 1586SOL    HW1 6591   0.185   8.921   8.883
 1586SOL    HW2 6592   0.331   8.942   8.851
 1587SOL     OW 6593   1.339  13.053   6.099
 1587SOL    HW1 6594   1.379  12.973   6.131
 1587SOL    HW2 6595   1.347  13.115   6.172
 1588SOL     OW 6596   3.079  13.529  14.528
 1588SOL    HW1 6597   3.030  13.607  14.501
 1588SOL    HW2 6598   3.126  13.502  14.449
 1589SOL     OW 6599   4.049   0.594   0.904
 1589SOL    HW1 6600   4.136   0.581   0.865
 1589SOL    HW2 6601   4.009   0.507   0.905
 1590SOL     OW 6602   1.018   0.977  10.127
 1590SOL    HW1 6603   1.095   0.963  10.073
 1590SOL    HW2 6604   0.958   1.027  10.072
 1591SOL     OW 6605   4.205   8.538  14.208
 1591SOL    HW1 6606   4.197   8.573  14.119
 1591SOL    HW2 6607   4.210   8.443  14.197
 1592SOL     OW 6608   5.496  10.611   7.824
 1592SOL    HW1 6609   5.574  10.617   7.878
 1592SOL    HW2 6610   5.423  10.603   7.886
 1593SOL     OW 6611  11.909   6.067  11.762
 1593SOL    HW1 6612  11.885   6.128  11.832
 1593SOL    HW2 6613  11.916   6.121  11.684
 1594SOL     OW 6614   5.988  12.648   6.058
 1594SOL    HW1 6615   6.052  12.577   6.066
 1594SOL    HW2 6616   5.903  12.604   6.058
 1595SOL     OW 6617   2.942   7.114   2.255
 1595SOL    HW1 6618   2.862   7.138   2.303
 1595SOL    HW2 6619   3.013   7.132   2.317
 1596SOL     OW 6620   6.777  10.421   5.403
 1596SOL    HW1 6621   6.831  10.491   5.442
 1596SOL    HW2 6622   6.764  10.450   5.312
 1597SOL     OW 6623   2.013   7.942   4.305
 1597SOL    HW1 6624   2.085   7.968   4.249
 1597SOL    HW2 6625   1.988   7.855   4.272
 1598SOL     OW 6626  14.542   4.219  14.279
 1598SOL    HW1 6627  14.594   4.152  14.235
 1598SOL    HW2 6628  14.480   4.249  14.213
 1599SOL     OW 6629   7.839  10.720   6.287
 1599SOL    HW1 6630   7.928  10.696   6.261
 1599SOL    HW2 6631   7.826  10.676   6.371
 1600SOL     OW 6632  10.074   5.756  14.485
 1600SOL    HW1 6633  10.022   5.777  14.563
 1600SOL    HW2 6634  10.148   5.817  14.488
 1601SOL     OW 6635   4.365  10.151   6.027
 1601SOL    HW1 6636   4.390  10.089   6.096
 1601SOL    HW2 6637   4.438  10.212   6.021
 1602SOL     OW 6638   7.413   4.097  14.862
 1602SOL    HW1 6639   7.359   4.018  14.859
 1602SOL    HW2 6640   7.480   4.081  14.795
 1603SOL     OW 6641   7.698  14.825   0.894
 1603SOL    HW1 6642   7.770   0.010   0.917
 1603SOL    HW2 6643   7.622   0.010   0.884
 1604SOL     OW 6644  13.696  12.636  11.407
 1604SOL    HW1 6645  13.734  12.718  11.439
 1604SOL    HW2 6646  13.770  12.588  11.370
 1605SOL     OW 6647  12.528   4.285   1.111
 1605SOL    HW1 6648  12.470   4.289   1.034
 1605SOL    HW2 6649  12.583   4.209   1.094
 1606SOL     OW 6650   6.144  14.590  13.725
 1606SOL    HW1 6651   6.108  14.605  13.812
 1606SOL    HW2 6652   6.081  14.533  13.682
 1607SOL     OW 6653   6.500  13.865  10.303
 1607SOL    HW1 6654   6.568  13.927  10.275
 1607SOL    HW2 6655   6.548  13.788  10.333
 1608SOL     OW 6656   6.696   1.694   5.840
 1608SOL    HW1 6657   6.666   1.647   5.918
 1608SOL    HW2 6658   6.665   1.641   5.766
 1609SOL     OW 6659   4.177   5.948   2.868
 1609SOL    HW1 6660   4.083   5.953   2.883
 1609SOL    HW2 6661   4.195   5.855   2.854
 1610SOL     OW 6662   7.265  14.232   8.742
 1610SOL    HW1 6663   7.295  14.263   8.657
 1610SOL    HW2 6664   7.343  14.233   8.798
 1611SOL     OW 6665   6.591  12.568   5.034
 1611SOL    HW1 6666   6.625  12.586   4.946
 1611SOL    HW2 6667   6.617  12.643   5.086
 1612SOL     OW 6668   7.207   9.121  10.217
 1612SOL    HW1 6669   7.220   9.050  10.154
 1612SOL    HW2 6670   7.140   9.177  10.178
 1613SOL     OW 6671   6.349   5.636   4.351
 1613SOL    HW1 6672   6.341   5.549   4.392
 1613SOL    HW2 6673   6.274   5.685   4.383
 1614SOL     OW 6674   6.030   3.909   4.742
 1614SOL    HW1 6675   5.987   3.994   4.732
 1614SOL    HW2 6676   6.124   3.929   4.734
 1615SOL     OW 6677  11.503  13.791   0.774
 1615SOL    HW1 6678  11.535  13.881   0.773
 1615SOL    HW2 6679  11.568  13.743   0.825
 1616SOL     OW 6680   1.337  10.780   0.517
 1616SOL    HW1 6681   1.304  10.837   0.448
 1616SOL    HW2 6682   1.431  10.796   0.520
 1617SOL     OW 6683   8.052   9.421   6.914
 1617SOL    HW1 6684   7.971   9.468   6.937
 1617SOL    HW2 6685   8.070   9.365   6.990
 1618SOL     OW 6686   1.927   6.311   8.536
 1618SOL    HW1 6687   1.890   6.237   8.585
 1618SOL    HW2 6688   1.968   6.271   8.460
 1619SOL     OW 6689  13.462   8.281   0.487
 1619SOL    HW1 6690  13.532   8.231   0.528
 1619SOL    HW2 6691  13.501   8.318   0.408
 1620SOL     OW 6692   2.359   5.502   1.834
 1620SOL    HW1 6693   2.320   5.451   1.763
 1620SOL    HW2 6694   2.397   5.578   1.790
 1621SOL     OW 6695   5.418  11.683  14.300
 1621SOL    HW1 6696   5.452  11.654  14.385
 1621SOL    HW2 6697   5.390  11.773  14.315
 1622SOL     OW 6698   0.362   8.466   0.125
 1622SOL    HW1 6699   0.409   8.537   0.083
 1622SOL    HW2 6700   0.290   8.509   0.172
 1623SOL     OW 6701  13.522  12.193   8.510
 1623SOL    HW1 6702  13.584  12.258   8.477
 1623SOL    HW2 6703  13.436  12.231   8.491
 1624SOL     OW 6704   6.728  10.706   7.234
 1624SOL    HW1 6705   6.681  10.764   7.294
 1624SOL    HW2 6706   6.694  10.728   7.147
 1625SOL     OW 6707   3.689   2.243   2.784
 1625SOL    HW1 6708   3.640   2.310   2.832
 1625SOL    HW2 6709   3.622   2.181   2.755
 1626SOL     OW 6710  10.566  10.741   2.070
 1626SOL    HW1 6711  10.605  10.692   2.142
 1626SOL    HW2 6712  10.476  10.708   2.065
 1627SOL     OW 6713  10.141  13.438   3.737
 1627SOL    HW1 6714  10.049  13.453   3.758
 1627SOL    HW2 6715  10.145  13.345   3.713
 1628SOL     OW 6716  11.741  12.106   5.012
 1628SOL    HW1 6717  11.774  12.029   5.057
 1628SOL    HW2 6718  11.775  12.099   4.923
 1629SOL     OW 6719  10.647  12.221   7.316
 1629SOL    HW1 6720  10.670  12.130   7.336
 1629SOL    HW2 6721  10.720  12.252   7.262
 1630SOL     OW 6722  11.900   9.532   9.325
 1630SOL    HW1 6723  11.823   9.476   9.313
 1630SOL    HW2 6724  11.962   9.501   9.259
 1631SOL     OW 6725  12.755   4.479   2.407
 1631SOL    HW1 6726  12.754   4.398   2.457
 1631SOL    HW2 6727  12.843   4.484   2.370
 1632SOL     OW 6728   7.970   5.455  10.939
 1632SOL    HW1 6729   8.003   5.498  11.018
 1632SOL    HW2 6730   8.048   5.427  10.892
 1633SOL     OW 6731   8.691  11.591   6.460
 1633SOL    HW1 6732   8.635  11.515   6.448
 1633SOL    HW2 6733   8.631  11.665   6.470
 1634SOL     OW 6734   9.021  14.026  14.147
 1634SOL    HW1 6735   8.941  14.039  14.198
 1634SOL    HW2 6736   9.013  13.937  14.112
 1635SOL     OW 6737  10.147   4.450  12.364
 1635SOL    HW1 6738  10.105   4.491  12.440
 1635SOL    HW2 6739  10.074   4.414  12.313
 1636SOL     OW 6740  11.911   9.751  13.459
 1636SOL    HW1 6741  11.994   9.736  13.505
 1636SOL    HW2 6742  11.846   9.706  13.513
 1637SOL     OW 6743  13.574   5.547   1.265
 1637SOL    HW1 6744  13.645   5.581   1.321
 1637SOL    HW2 6745  13.617   5.479   1.212
 1638SOL     OW 6746   9.459  11.788  11.978
 1638SOL    HW1 6747   9.472  11.777  12.072
 1638SOL    HW2 6748   9.517  11.723  11.938
 1639SOL     OW 6749  14.177   0.376  10.028
 1639SOL    HW1 6750  14.093   0.341   9.999
 1639SOL    HW2 6751  14.222   0.302  10.068
 1640SOL     OW 6752   7.288   9.316   6.765
 1640SOL    HW1 6753   7.211   9.369   6.743
 1640SOL    HW2 6754   7.339   9.314   6.684
 1641SOL     OW 6755   3.011   4.259   6.462
 1641SOL    HW1 6756   3.050   4.172   6.458
 1641SOL    HW2 6757   3.077   4.312   6.506
 1642SOL     OW 6758   2.040  11.592   4.214
 1642SOL    HW1 6759   2.111  11.620   4.271
 1642SOL    HW2 6760   1.964  11.643   4.244
 1643SOL     OW 6761   2.784   2.291   0.155
 1643SOL    HW1 6762   2.781   2.385   0.136
 1643SOL    HW2 6763   2.779   2.249   0.069
 1644SOL     OW 6764  13.187   8.499  12.537
 1644SOL    HW1 6765  13.179   8.552  12.457
 1644SOL    HW2 6766  13.102   8.455  12.545
 1645SOL     OW 6767  13.892   5.214  11.514
 1645SOL    HW1 6768  13.809   5.209  11.560
 1645SOL    HW2 6769  13.924   5.302  11.530
 1646SOL     OW 6770   6.821   4.797   0.725
 1646SOL    HW1 6771   6.818   4.736   0.651
 1646SOL    HW2 6772   6.891   4.763   0.781
 1647SOL     OW 6773   3.649  13.793   2.525
 1647SOL    HW1 6774   3.584  13.752   2.582
 1647SOL    HW2 6775   3.608  13.875   2.497
 1648SOL     OW 6776   7.692  10.384   7.956
 1648SOL    HW1 6777   7.773  10.391   7.905
 1648SOL    HW2 6778   7.722  10.365   8.045
 1649SOL     OW 6779  10.786   5.251   2.117
 1649SOL    HW1 6780  10.880   5.239   2.110
 1649SOL    HW2 6781  10.776   5.344   2.140
 1650SOL     OW 6782   8.395   2.322   8.360
 1650SOL    HW1 6783   8.485   2.310   8.329
 1650SOL    HW2 6784   8.374   2.413   8.336
 1651SOL     OW 6785  11.480   0.684  14.803
 1651SOL    HW1 6786  11.399   0.641  14.775
 1651SOL    HW2 6787  11.510   0.731  14.726
 1652SOL     OW 6788   0.622   2.527   4.533
 1652SOL    HW1 6789   0.679   2.457   4.564
 1652SOL    HW2 6790   0.680   2.603   4.525
 1653SOL     OW 6791   4.096  14.299  11.106
 1653SOL    HW1 6792   4.023  14.237  11.102
 1653SOL    HW2 6793   4.163  14.254  11.156
 1654SOL     OW 6794   9.657   1.896   4.492
 1654SOL    HW1 6795   9.748   1.926   4.495
 1654SOL    HW2 6796   9.663   1.801   4.479
 1655SOL     OW 6797   9.735   9.949   8.413
 1655SOL    HW1 6798   9.748   9.961   8.507
 1655SOL    HW2 6799   9.796   9.879   8.388
 1656SOL     OW 6800   3.987   1.464   7.062
 1656SOL    HW1 6801   3.938   1.478   6.981
 1656SOL    HW2 6802   4.079   1.463   7.035
 1657SOL     OW 6803  14.628  11.942   6.941
 1657SOL    HW1 6804  14.552  11.957   6.997
 1657SOL    HW2 6805  14.697  11.998   6.979
 1658SOL     OW 6806   6.185  11.338   8.981
 1658SOL    HW1 6807   6.234  11.416   9.007
 1658SOL    HW2 6808   6.202  11.275   9.052
 1659SOL     OW 6809   2.024   1.797  14.747
 1659SOL    HW1 6810   1.933   1.787  14.719
 1659SOL    HW2 6811   2.018   1.808  14.842
 1660SOL     OW 6812   3.599   4.341  12.173
 1660SOL    HW1 6813   3.651   4.303  12.102
 1660SOL    HW2 6814   3.640   4.426  12.189
 1661SOL     OW 6815  13.166  14.049   6.268
 1661SOL    HW1 6816  13.152  14.073   6.176
 1661SOL    HW2 6817  13.157  14.132   6.316
 1662SOL     OW 6818   0.563  14.384   6.517
 1662SOL    HW1 6819   0.639  14.430   6.551
 1662SOL    HW2 6820   0.565  14.299   6.561
 1663SOL     OW 6821  10.198   4.756   7.814
 1663SOL    HW1 6822  10.139   4.807   7.759
 1663SOL    HW2 6823  10.198   4.669   7.775
 1664SOL     OW 6824   3.124  14.057   6.620
 1664SOL    HW1 6825   3.028  14.062   6.619
 1664SOL    HW2 6826   3.152  14.133   6.671
 1665SOL     OW 6827   2.846   5.664   0.649
 1665SOL    HW1 6828   2.788   5.739   0.642
 1665SOL    HW2 6829   2.814   5.602   0.583
 1666SOL     OW 6830  13.718  10.701   1.454
 1666SOL    HW1 6831  13.723  10.686   1.549
 1666SOL    HW2 6832  13.644  10.647   1.425
 1667SOL     OW 6833  13.219  12.211   9.975
 1667SOL    HW1 6834  13.283  12.219  10.046
 1667SOL    HW2 6835  13.253  12.139   9.921
 1668SOL     OW 6836   0.304   8.455  14.438
 1668SOL    HW1 6837   0.364   8.522  14.406
 1668SOL    HW2 6838   0.347   8.421  14.517
 1669SOL     OW 6839  10.684   4.229   3.237
 1669SOL    HW1 6840  10.612   4.288   3.255
 1669SOL    HW2 6841  10.674   4.157   3.300
 1670SOL     OW 6842  10.013  10.574   6.469
 1670SOL    HW1 6843   9.936  10.612   6.428
 1670SOL    HW2 6844  10.076  10.646   6.475
 1671SOL     OW 6845   4.171   5.272   7.641
 1671SOL    HW1 6846   4.111   5.266   7.567
 1671SOL    HW2 6847   4.154   5.192   7.691
 1672SOL     OW 6848  10.914   2.154   9.278
 1672SOL    HW1 6849  10.836   2.206   9.298
 1672SOL    HW2 6850  10.943   2.185   9.192
 1673SOL     OW 6851  10.230   5.500   4.113
 1673SOL    HW1 6852  10.261   5.506   4.022
 1673SOL    HW2 6853  10.156   5.561   4.117
 1674SOL     OW 6854  12.104   6.236   1.218
 1674SOL    HW1 6855  12.117   6.184   1.138
 1674SOL    HW2 6856  12.190   6.238   1.259
 1675SOL     OW 6857   2.581   8.966   0.560
 1675SOL    HW1 6858   2.677   8.969   0.559
 1675SOL    HW2 6859   2.560   8.873   0.571
 1676SOL     OW 6860   1.174  11.368   0.876
 1676SOL    HW1 6861   1.121  11.288   0.875
 1676SOL    HW2 6862   1.123  11.430   0.927
 1677SOL     OW 6863  10.372   2.730   7.391
 1677SOL    HW1 6864  10.371   2.791   7.465
 1677SOL    HW2 6865  10.427   2.773   7.326
 1678SOL     OW 6866  11.686   2.905   4.114
 1678SOL    HW1 6867  11.769   2.869   4.145
 1678SOL    HW2 6868  11.623   2.884   4.183
 1679SOL     OW 6869   5.702   9.565   4.399
 1679SOL    HW1 6870   5.684   9.507   4.326
 1679SOL    HW2 6871   5.673   9.651   4.370
 1680SOL     OW 6872   6.261   9.345  10.269
 1680SOL    HW1 6873   6.238   9.437  10.284
 1680SOL    HW2 6874   6.330   9.348  10.203
 1681SOL     OW 6875   7.615   9.563   1.225
 1681SOL    HW1 6876   7.663   9.587   1.304
 1681SOL    HW2 6877   7.644   9.474   1.205
 1682SOL     OW 6878  13.920   9.881  10.828
 1682SOL    HW1 6879  13.843   9.838  10.792
 1682SOL    HW2 6880  13.942   9.949  10.765
 1683SOL     OW 6881   2.995   9.389  11.280
 1683SOL    HW1 6882   2.973   9.421  11.368
 1683SOL    HW2 6883   2.965   9.458  11.221
 1684SOL     OW 6884   4.537   1.739   4.821
 1684SOL    HW1 6885   4.474   1.764   4.754
 1684SOL    HW2 6886   4.565   1.822   4.860
 1685SOL     OW 6887   7.912   8.118   0.196
 1685SOL    HW1 6888   7.836   8.071   0.231
 1685SOL    HW2 6889   7.931   8.072   0.113
 1686SOL     OW 6890   5.565  10.219   0.663
 1686SOL    HW1 6891   5.622  10.245   0.735
 1686SOL    HW2 6892   5.490  10.278   0.668
 1687SOL     OW 6893  11.444  10.700  10.097
 1687SOL    HW1 6894  11.537  10.698  10.118
 1687SOL    HW2 6895  11.432  10.627  10.036
 1688SOL     OW 6896  10.215  12.350  14.118
 1688SOL    HW1 6897  10.245  12.435  14.086
 1688SOL    HW2 6898  10.127  12.367  14.151
 1689SOL     OW 6899   0.822   2.860   0.137
 1689SOL    HW1 6900   0.730   2.867   0.161
 1689SOL    HW2 6901   0.843   2.767   0.151
 1690SOL     OW 6902   5.049   1.517   9.563
 1690SOL    HW1 6903   4.975   1.482   9.613
 1690SOL    HW2 6904   5.103   1.562   9.628
 1691SOL     OW 6905  13.653  12.128  12.182
 1691SOL    HW1 6906  13.666  12.042  12.223
 1691SOL    HW2 6907  13.735  12.175  12.198
 1692SOL     OW 6908  14.535   6.953   8.883
 1692SOL    HW1 6909  14.478   7.028   8.869
 1692SOL    HW2 6910  14.606   6.964   8.819
 1693SOL     OW 6911   5.814   7.764   9.525
 1693SOL    HW1 6912   5.904   7.755   9.493
 1693SOL    HW2 6913   5.760   7.729   9.454
 1694SOL     OW 6914   9.014   4.503   0.354
 1694SOL    HW1 6915   9.094   4.501   0.302
 1694SOL    HW2 6916   8.945   4.477   0.292
 1695SOL     OW 6917   5.210   5.043   9.614
 1695SOL    HW1 6918   5.304   5.063   9.614
 1695SOL    HW2 6919   5.172   5.108   9.672
 1696SOL     OW 6920  13.970   9.998   1.750
 1696SOL    HW1 6921  13.885  10.019   1.711
 1696SOL    HW2 6922  13.955   9.915   1.796
 1697SOL     OW 6923  14.260   2.004   4.242
 1697SOL    HW1 6924  14.317   1.966   4.310
 1697SOL    HW2 6925  14.262   2.098   4.259
 1698SOL     OW 6926   1.725   6.235  14.073
 1698SOL    HW1 6927   1.691   6.284  13.999
 1698SOL    HW2 6928   1.654   6.174  14.095
 1699SOL     OW 6929  10.074   6.145  12.172
 1699SOL    HW1 6930  10.051   6.064  12.126
 1699SOL    HW2 6931   9.991   6.177  12.207
 1700SOL     OW 6932   0.106  14.220   6.369
 1700SOL    HW1 6933   0.155  14.169   6.304
 1700SOL    HW2 6934   0.157  14.212   6.449
 1701SOL     OW 6935   4.771   2.773   1.906
 1701SOL    HW1 6936   4.736   2.753   1.819
 1701SOL    HW2 6937   4.693   2.782   1.961
 1702SOL     OW 6938  11.652   0.844   7.304
 1702SOL    HW1 6939  11.605   0.761   7.305
 1702SOL    HW2 6940  11.589   0.906   7.268
 1703SOL     OW 6941   7.494   0.068  13.980
 1703SOL    HW1 6942   7.545   0.145  14.003
 1703SOL    HW2 6943   7.428   0.100  13.919
 1704SOL     OW 6944   4.078  10.666   7.034
 1704SOL    HW1 6945   4.144  10.735   7.041
 1704SOL    HW2 6946   4.119  10.600   6.978
 1705SOL     OW 6947   3.890  11.911   7.273
 1705SOL    HW1 6948   3.855  11.978   7.214
 1705SOL    HW2 6949   3.822  11.845   7.277
 1706SOL     OW 6950   6.313   3.517   8.345
 1706SOL    HW1 6951   6.268   3.441   8.309
 1706SOL    HW2 6952   6.248   3.559   8.402
 1707SOL     OW 6953   9.204   4.295   6.896
 1707SOL    HW1 6954   9.109   4.288   6.885
 1707SOL    HW2 6955   9.241   4.253   6.818
 1708SOL     OW 6956   4.118   2.079  14.204
 1708SOL    HW1 6957   4.174   2.030  14.144
 1708SOL    HW2 6958   4.158   2.066  14.290
 1709SOL     OW 6959  10.199  12.164   9.830
 1709SOL    HW1 6960  10.137  12.098   9.860
 1709SOL    HW2 6961  10.157  12.202   9.753
 1710SOL     OW 6962   3.902   3.955  11.409
 1710SOL    HW1 6963   3.848   4.030  11.433
 1710SOL    HW2 6964   3.981   3.964  11.462
 1711SOL     OW 6965   4.968  11.117  12.350
 1711SOL    HW1 6966   4.961  11.022  12.362
 1711SOL    HW2 6967   5.061  11.136  12.364
 1712SOL     OW 6968   6.892   2.006   4.428
 1712SOL    HW1 6969   6.848   2.069   4.371
 1712SOL    HW2 6970   6.851   2.018   4.514
 1713SOL     OW 6971   7.428  13.922   6.502
 1713SOL    HW1 6972   7.446  13.982   6.429
 1713SOL    HW2 6973   7.356  13.963   6.549
 1714SOL     OW 6974  11.832   6.543   4.455
 1714SOL    HW1 6975  11.869   6.631   4.459
 1714SOL    HW2 6976  11.846   6.515   4.364
 1715SOL     OW 6977   7.002  11.697  10.862
 1715SOL    HW1 6978   7.070  11.681  10.927
 1715SOL    HW2 6979   6.939  11.753  10.908
 1716SOL     OW 6980   1.502   9.760   1.009
 1716SOL    HW1 6981   1.474   9.677   1.048
 1716SOL    HW2 6982   1.434   9.822   1.035
 1717SOL     OW 6983   5.965   3.839   0.240
 1717SOL    HW1 6984   5.962   3.772   0.308
 1717SOL    HW2 6985   5.882   3.886   0.250
 1718SOL     OW 6986   3.741  14.313   9.018
 1718SOL    HW1 6987   3.741  14.409   9.014
 1718SOL    HW2 6988   3.670  14.292   9.079
 1719SOL     OW 6989   6.699  12.226   3.572
 1719SOL    HW1 6990   6.672  12.259   3.658
 1719SOL    HW2 6991   6.769  12.164   3.591
 1720SOL     OW 6992   2.406   2.884   1.337
 1720SOL    HW1 6993   2.474   2.821   1.311
 1720SOL    HW2 6994   2.435   2.967   1.300
 1721SOL     OW 6995   6.002   6.526   4.226
 1721SOL    HW1 6996   6.095   6.528   4.204
 1721SOL    HW2 6997   5.964   6.600   4.178
 1722SOL     OW 6998   7.431   6.841   1.525
 1722SOL    HW1 6999   7.517   6.803   1.543
 1722SOL    HW2 7000   7.424   6.841   1.429
 1723SOL     OW 7001   5.026  11.584   0.005
 1723SOL    HW1 7002   5.117  11.579   0.033
 1723SOL    HW2 7003   5.017  11.514  14.813
 1724SOL     OW 7004  13.373   3.631   1.495
 1724SOL    HW1 7005  13.393   3.544   1.463
 1724SOL    HW2 7006  13.458   3.671   1.513
 1725SOL     OW 7007   2.423   0.171   5.759
 1725SOL    HW1 7008   2.504   0.121   5.773
 1725SOL    HW2 7009   2.450   0.244   5.704
 1726SOL     OW 7010  10.509   5.638   4.477
 1726SOL    HW1 7011  10.600   5.656   4.454
 1726SOL    HW2 7012  10.489   5.556   4.433
 1727SOL     OW 7013   8.215   7.064   1.591
 1727SOL    HW1 7014   8.293   7.090   1.642
 1727SOL    HW2 7015   8.221   6.969   1.585
 1728SOL     OW 7016   0.307   5.053   9.544
 1728SOL    HW1 7017   0.375   5.107   9.504
 1728SOL    HW2 7018   0.329   5.053   9.638
 1729SOL     OW 7019  14.155   1.745   8.014
 1729SOL    HW1 7020  14.202   1.807   8.070
 1729SOL    HW2 7021  14.193   1.660   8.036
 1730SOL     OW 7022  12.237   9.368   0.375
 1730SOL    HW1 7023  12.254   9.440   0.314
 1730SOL    HW2 7024  12.226   9.291   0.319
 1731SOL     OW 7025  12.272   2.212  13.073
 1731SOL    HW1 7026  12.335   2.257  13.017
 1731SOL    HW2 7027  12.283   2.251  13.159
 1732SOL     OW 7028  13.767   0.082   5.115
 1732SOL    HW1 7029  13.757  14.867   5.077
 1732SOL    HW2 7030  13.700   0.086   5.184
 1733SOL     OW 7031   7.624   7.196   9.690
 1733SOL    HW1 7032   7.557   7.129   9.684
 1733SOL    HW2 7033   7.585   7.265   9.743
 1734SOL     OW 7034   8.569   7.031   2.032
 1734SOL    HW1 7035   8.590   7.077   2.113
 1734SOL    HW2 7036   8.482   7.064   2.008
 1735SOL     OW 7037   6.961   9.758   3.780
 1735SOL    HW1 7038   6.877   9.744   3.824
 1735SOL    HW2 7039   6.938   9.799   3.697
 1736SOL     OW 7040   5.340  13.834   5.715
 1736SOL    HW1 7041   5.256  13.836   5.670
 1736SOL    HW2 7042   5.395  13.777   5.662
 1737SOL     OW 7043   2.819   1.466   0.138
 1737SOL    HW1 7044   2.803   1.454   0.044
 1737SOL    HW2 7045   2.852   1.555   0.145
 1738SOL     OW 7046   9.421   9.265   1.250
 1738SOL    HW1 7047   9.368   9.254   1.171
 1738SOL    HW2 7048   9.399   9.190   1.305
 1739SOL     OW 7049  14.183   5.251  14.453
 1739SOL    HW1 7050  14.215   5.168  14.487
 1739SOL    HW2 7051  14.116   5.279  14.516
 1740SOL     OW 7052  13.398   8.894  12.686
 1740SOL    HW1 7053  13.428   8.976  12.726
 1740SOL    HW2 7054  13.306   8.910  12.665
 1741SOL     OW 7055   3.141   7.795  12.383
 1741SOL    HW1 7056   3.132   7.815  12.476
 1741SOL    HW2 7057   3.226   7.752  12.376
 1742SOL     OW 7058   6.227   9.700   1.533
 1742SOL    HW1 7059   6.172   9.702   1.454
 1742SOL    HW2 7060   6.177   9.750   1.598
 1743SOL     OW 7061  12.117   0.834   5.355
 1743SOL    HW1 7062  12.095   0.923   5.326
 1743SOL    HW2 7063  12.177   0.847   5.429
 1744SOL     OW 7064   2.129  13.918   5.628
 1744SOL    HW1 7065   2.079  13.999   5.624
 1744SOL    HW2 7066   2.187  13.921   5.552
 1745SOL     OW 7067   3.644   8.792  12.087
 1745SOL    HW1 7068   3.701   8.849  12.035
 1745SOL    HW2 7069   3.556   8.826  12.071
 1746SOL     OW 7070   5.961   0.914   3.201
 1746SOL    HW1 7071   5.954   0.903   3.106
 1746SOL    HW2 7072   6.044   0.872   3.224
 1747SOL     OW 7073   8.821   4.255   9.216
 1747SOL    HW1 7074   8.726   4.259   9.207
 1747SOL    HW2 7075   8.851   4.344   9.196
 1748SOL     OW 7076   3.175   2.364  13.595
 1748SOL    HW1 7077   3.241   2.299  13.621
 1748SOL    HW2 7078   3.126   2.381  13.675
 1749SOL     OW 7079  11.953   0.314   2.061
 1749SOL    HW1 7080  11.862   0.317   2.032
 1749SOL    HW2 7081  11.950   0.271   2.146
 1750SOL     OW 7082   4.878   1.407   4.617
 1750SOL    HW1 7083   4.809   1.460   4.655
 1750SOL    HW2 7084   4.849   1.390   4.527
 1751SOL     OW 7085  14.646  13.145  14.555
 1751SOL    HW1 7086  14.717  13.160  14.493
 1751SOL    HW2 7087  14.568  13.176  14.510
 1752SOL     OW 7088  13.827   6.951  14.544
 1752SOL    HW1 7089  13.892   6.941  14.614
 1752SOL    HW2 7090  13.853   7.032  14.499
 1753SOL     OW 7091   6.480   6.091   1.317
 1753SOL    HW1 7092   6.493   6.160   1.251
 1753SOL    HW2 7093   6.418   6.130   1.379
 1754SOL     OW 7094   7.016  11.407   1.256
 1754SOL    HW1 7095   7.089  11.344   1.258
 1754SOL    HW2 7096   6.967  11.388   1.336
 1755SOL     OW 7097  11.511   2.493  12.188
 1755SOL    HW1 7098  11.564   2.472  12.265
 1755SOL    HW2 7099  11.422   2.500  12.223
 1756SOL     OW 7100   3.306   5.050   0.409
 1756SOL    HW1 7101   3.285   4.992   0.482
 1756SOL    HW2 7102   3.222   5.067   0.367
 1757SOL     OW 7103  13.069  11.628   6.186
 1757SOL    HW1 7104  13.099  11.697   6.245
 1757SOL    HW2 7105  13.107  11.651   6.101
 1758SOL     OW 7106   7.514   6.290   4.130
 1758SOL    HW1 7107   7.461   6.215   4.106
 1758SOL    HW2 7108   7.600   6.254   4.149
 1759SOL     OW 7109   9.975   3.918   9.984
 1759SOL    HW1 7110   9.941   4.001   9.951
 1759SOL    HW2 7111   9.920   3.898  10.060
 1760SOL     OW 7112  10.855   8.968   7.134
 1760SOL    HW1 7113  10.868   9.052   7.178
 1760SOL    HW2 7114  10.761   8.968   7.112
 1761SOL     OW 7115   1.328  11.483   8.633
 1761SOL    HW1 7116   1.310  11.419   8.701
 1761SOL    HW2 7117   1.256  11.546   8.639
 1762SOL     OW 7118   5.030   9.398   3.267
 1762SOL    HW1 7119   5.039   9.305   3.284
 1762SOL    HW2 7120   5.117   9.435   3.282
 1763SOL     OW 7121   0.872  10.574   8.267
 1763SOL    HW1 7122   0.787  10.539   8.295
 1763SOL    HW2 7123   0.891  10.644   8.329
 1764SOL     OW 7124   1.273   7.033  14.307
 1764SOL    HW1 7125   1.248   7.125  14.300
 1764SOL    HW2 7126   1.345   7.023  14.244
 1765SOL     OW 7127  10.604  13.469   5.721
 1765SOL    HW1 7128  10.689  13.502   5.748
 1765SOL    HW2 7129  10.554  13.547   5.698
 1766SOL     OW 7130  13.679  14.695  12.870
 1766SOL    HW1 7131  13.773  14.698  12.886
 1766SOL    HW2 7132  13.644  14.639  12.939
 1767SOL     OW 7133   2.276  11.654  13.372
 1767SOL    HW1 7134   2.279  11.565  13.337
 1767SOL    HW2 7135   2.207  11.653  13.438
 1768SOL     OW 7136   6.242  10.894  12.477
 1768SOL    HW1 7137   6.328  10.892  12.435
 1768SOL    HW2 7138   6.179  10.890  12.405
 1769SOL     OW 7139   5.015  10.442   7.088
 1769SOL    HW1 7140   4.936  10.453   7.036
 1769SOL    HW2 7141   4.984  10.441   7.179
 1770SOL     OW 7142   2.714  10.115   7.281
 1770SOL    HW1 7143   2.630  10.160   7.290
 1770SOL    HW2 7144   2.774  10.182   7.249
 1771SOL     OW 7145   3.762   3.588  10.393
 1771SOL    HW1 7146   3.803   3.591  10.479
 1771SOL    HW2 7147   3.788   3.504  10.357
 1772SOL     OW 7148  11.223   3.118   5.195
 1772SOL    HW1 7149  11.182   3.115   5.108
 1772SOL    HW2 7150  11.203   3.032   5.233
 1773SOL     OW 7151   6.475  10.134   8.827
 1773SOL    HW1 7152   6.424  10.209   8.859
 1773SOL    HW2 7153   6.413  10.061   8.826
 1774SOL     OW 7154   3.048   6.846   7.062
 1774SOL    HW1 7155   3.138   6.838   7.032
 1774SOL    HW2 7156   3.052   6.825   7.155
 1775SOL     OW 7157   1.011   7.312   6.867
 1775SOL    HW1 7158   1.047   7.400   6.868
 1775SOL    HW2 7159   0.917   7.324   6.886
 1776SOL     OW 7160   0.907  10.752   1.465
 1776SOL    HW1 7161   0.980  10.814   1.460
 1776SOL    HW2 7162   0.936  10.676   1.415
 1777SOL     OW 7163   3.010   7.324   2.849
 1777SOL    HW1 7164   3.050   7.277   2.923
 1777SOL    HW2 7165   2.961   7.395   2.891
 1778SOL     OW 7166   9.112  13.446  12.819
 1778SOL    HW1 7167   9.130  13.456  12.725
 1778SOL    HW2 7168   9.057  13.521  12.841
 1779SOL     OW 7169   9.593   5.438  11.313
 1779SOL    HW1 7170   9.546   5.368  11.359
 1779SOL    HW2 7171   9.600   5.406  11.223
 1780SOL     OW 7172  11.057   8.410   5.804
 1780SOL    HW1 7173  11.068   8.474   5.733
 1780SOL    HW2 7174  10.962   8.401   5.813
 1781SOL     OW 7175   5.084   3.620  12.881
 1781SOL    HW1 7176   5.046   3.655  12.801
 1781SOL    HW2 7177   5.171   3.589  12.855
 1782SOL     OW 7178  12.685   8.388  13.843
 1782SOL    HW1 7179  12.707   8.436  13.923
 1782SOL    HW2 7180  12.725   8.302  13.856
 1783SOL     OW 7181   3.738   3.326   4.792
 1783SOL    HW1 7182   3.801   3.286   4.732
 1783SOL    HW2 7183   3.667   3.262   4.797
 1784SOL     OW 7184   7.218   5.118   9.836
 1784SOL    HW1 7185   7.196   5.210   9.818
 1784SOL    HW2 7186   7.147   5.086   9.891
 1785SOL     OW 7187   3.880   5.612  13.708
 1785SOL    HW1 7188   3.799   5.635  13.662
 1785SOL    HW2 7189   3.851   5.556  13.780
 1786SOL     OW 7190   6.353   1.911  12.676
 1786SOL    HW1 7191   6.422   1.910  12.610
 1786SOL    HW2 7192   6.382   1.977  12.740
 1787SOL     OW 7193   0.891   5.757  13.625
 1787SOL    HW1 7194   0.841   5.704  13.688
 1787SOL    HW2 7195   0.907   5.697  13.552
 1788SOL     OW 7196  10.423  10.221   7.070
 1788SOL    HW1 7197  10.400  10.294   7.127
 1788SOL    HW2 7198  10.500  10.181   7.111
 1789SOL     OW 7199  13.836   8.334   6.501
 1789SOL    HW1 7200  13.849   8.278   6.577
 1789SOL    HW2 7201  13.762   8.390   6.524
 1790SOL     OW 7202   1.373   8.392   5.355
 1790SOL    HW1 7203   1.344   8.347   5.434
 1790SOL    HW2 7204   1.401   8.478   5.384
 1791SOL     OW 7205  13.264  12.825   7.425
 1791SOL    HW1 7206  13.299  12.906   7.462
 1791SOL    HW2 7207  13.325  12.802   7.355
 1792SOL     OW 7208   8.614  12.850   3.885
 1792SOL    HW1 7209   8.543  12.860   3.821
 1792SOL    HW2 7210   8.693  12.844   3.832
 1793SOL     OW 7211   1.300   6.913  14.671
 1793SOL    HW1 7212   1.300   6.990  14.728
 1793SOL    HW2 7213   1.335   6.843  14.725
 1794SOL     OW 7214   4.685  14.569  12.256
 1794SOL    HW1 7215   4.733  14.507  12.311
 1794SOL    HW2 7216   4.660  14.640  12.315
 1795SOL     OW 7217   8.004   1.761   9.383
 1795SOL    HW1 7218   7.999   1.689   9.320
 1795SOL    HW2 7219   7.935   1.742   9.447
 1796SOL     OW 7220  14.136   3.422  11.496
 1796SOL    HW1 7221  14.143   3.464  11.410
 1796SOL    HW2 7222  14.044   3.434  11.520
 1797SOL     OW 7223  14.759   1.311   2.108
 1797SOL    HW1 7224  14.799   1.280   2.189
 1797SOL    HW2 7225  14.665   1.306   2.124
 1798SOL     OW 7226   4.599   7.376   1.964
 1798SOL    HW1 7227   4.627   7.454   1.915
 1798SOL    HW2 7228   4.636   7.303   1.916
 1799SOL     OW 7229  13.048   1.945   1.036
 1799SOL    HW1 7230  13.084   2.032   1.020
 1799SOL    HW2 7231  12.980   1.935   0.968
 1800SOL     OW 7232   2.147   3.447  14.844
 1800SOL    HW1 7233   2.215   3.475  14.783
 1800SOL    HW2 7234   2.134   3.522   0.029
 1801SOL     OW 7235  10.762   4.834   0.588
 1801SOL    HW1 7236  10.799   4.872   0.668
 1801SOL    HW2 7237  10.799   4.886   0.517
 1802SOL     OW 7238   6.927  10.506   3.037
 1802SOL    HW1 7239   6.901  10.470   2.952
 1802SOL    HW2 7240   6.963  10.431   3.085
 1803SOL     OW 7241   8.259   7.564   1.605
 1803SOL    HW1 7242   8.230   7.590   1.517
 1803SOL    HW2 7243   8.180   7.528   1.646
 1804SOL     OW 7244  12.717   3.204  10.174
 1804SOL    HW1 7245  12.705   3.128  10.117
 1804SOL    HW2 7246  12.753   3.168  10.255
 1805SOL     OW 7247  11.660  12.102   7.137
 1805SOL    HW1 7248  11.662  12.032   7.202
 1805SOL    HW2 7249  11.655  12.182   7.189
 1806SOL     OW 7250   5.310   7.844   2.593
 1806SOL    HW1 7251   5.283   7.878   2.507
 1806SOL    HW2 7252   5.385   7.787   2.573
 1807SOL     OW 7253  10.623   0.929  13.142
 1807SOL    HW1 7254  10.690   0.863  13.159
 1807SOL    HW2 7255  10.669   0.999  13.096
 1808SOL     OW 7256   5.526   3.660   3.389
 1808SOL    HW1 7257   5.591   3.721   3.354
 1808SOL    HW2 7258   5.559   3.573   3.365
 1809SOL     OW 7259   1.696   0.155   9.312
 1809SOL    HW1 7260   1.624   0.174   9.371
 1809SOL    HW2 7261   1.686   0.063   9.289
 1810SOL     OW 7262   6.491   8.405  12.386
 1810SOL    HW1 7263   6.468   8.320  12.423
 1810SOL    HW2 7264   6.432   8.416  12.311
 1811SOL     OW 7265   4.850   6.196   3.053
 1811SOL    HW1 7266   4.921   6.254   3.079
 1811SOL    HW2 7267   4.775   6.223   3.106
 1812SOL     OW 7268   6.925  14.664  13.789
 1812SOL    HW1 7269   6.902  14.747  13.748
 1812SOL    HW2 7270   7.020  14.670  13.803
 1813SOL     OW 7271   8.449  13.350  11.881
 1813SOL    HW1 7272   8.427  13.343  11.789
 1813SOL    HW2 7273   8.375  13.310  11.927
 1814SOL     OW 7274  10.234  13.287   0.968
 1814SOL    HW1 7275  10.163  13.239   0.927
 1814SOL    HW2 7276  10.284  13.221   1.016
 1815SOL     OW 7277   9.617   6.205   7.944
 1815SOL    HW1 7278   9.672   6.128   7.960
 1815SOL    HW2 7279   9.585   6.229   8.031
 1816SOL     OW 7280   0.028   7.659   2.095
 1816SOL    HW1 7281   0.100   7.722   2.105
 1816SOL    HW2 7282   0.069   7.583   2.052
 1817SOL     OW 7283  13.801  12.613   4.764
 1817SOL    HW1 7284  13.707  12.630   4.770
 1817SOL    HW2 7285  13.806  12.518   4.750
 1818SOL     OW 7286  12.634  14.653   0.096
 1818SOL    HW1 7287  12.618  14.739   0.136
 1818SOL    HW2 7288  12.666  14.673   0.008
 1819SOL     OW 7289  12.658   1.264  13.485
 1819SOL    HW1 7290  12.705   1.187  13.516
 1819SOL    HW2 7291  12.696   1.337  13.534
 1820SOL     OW 7292   4.976  11.691   3.525
 1820SOL    HW1 7293   4.926  11.728   3.596
 1820SOL    HW2 7294   4.912  11.641   3.473
 1821SOL     OW 7295   8.241   2.486   5.780
 1821SOL    HW1 7296   8.196   2.536   5.848
 1821SOL    HW2 7297   8.173   2.462   5.718
 1822SOL     OW 7298  12.963   3.126   1.579
 1822SOL    HW1 7299  12.923   3.140   1.494
 1822SOL    HW2 7300  13.053   3.101   1.559
 1823SOL     OW 7301   3.762   4.197   5.320
 1823SOL    HW1 7302   3.820   4.268   5.294
 1823SOL    HW2 7303   3.693   4.197   5.254
 1824SOL     OW 7304  14.542   0.769  12.249
 1824SOL    HW1 7305  14.453   0.752  12.279
 1824SOL    HW2 7306  14.533   0.837  12.182
 1825SOL     OW 7307  11.723   7.846  14.704
 1825SOL    HW1 7308  11.806   7.888  14.726
 1825SOL    HW2 7309  11.736   7.754  14.727
 1826SOL     OW 7310  10.449   5.954   6.548
 1826SOL    HW1 7311  10.451   6.040   6.505
 1826SOL    HW2 7312  10.502   5.966   6.627
 1827SOL     OW 7313   7.269  10.458   7.788
 1827SOL    HW1 7314   7.328  10.433   7.859
 1827SOL    HW2 7315   7.182  10.434   7.820
 1828SOL     OW 7316   8.735   1.253   2.043
 1828SOL    HW1 7317   8.775   1.339   2.056
 1828SOL    HW2 7318   8.643   1.273   2.025
 1829SOL     OW 7319  13.576   5.879   7.395
 1829SOL    HW1 7320  13.637   5.896   7.323
 1829SOL    HW2 7321  13.525   5.803   7.366
 1830SOL     OW 7322   9.413   6.958   3.971
 1830SOL    HW1 7323   9.501   6.959   3.934
 1830SOL    HW2 7324   9.406   7.041   4.018
 1831SOL     OW 7325  12.819   4.227  10.080
 1831SOL    HW1 7326  12.749   4.162  10.090
 1831SOL    HW2 7327  12.831   4.263  10.168
 1832SOL     OW 7328  11.350   3.074  11.895
 1832SOL    HW1 7329  11.404   3.096  11.820
 1832SOL    HW2 7330  11.410   3.034  11.958
 1833SOL     OW 7331  10.768   7.368   0.847
 1833SOL    HW1 7332  10.768   7.295   0.786
 1833SOL    HW2 7333  10.683   7.363   0.891
 1834SOL     OW 7334   8.952   9.535   7.516
 1834SOL    HW1 7335   8.952   9.573   7.428
 1834SOL    HW2 7336   8.947   9.441   7.502
 1835SOL     OW 7337   4.049  12.771   8.604
 1835SOL    HW1 7338   4.130  12.818   8.625
 1835SOL    HW2 7339   4.079  12.688   8.566
 1836SOL     OW 7340   8.809  13.411   4.378
 1836SOL    HW1 7341   8.891  13.389   4.423
 1836SOL    HW2 7342   8.770  13.327   4.357
 1837SOL     OW 7343   8.078   1.236  14.372
 1837SOL    HW1 7344   8.081   1.332  14.376
 1837SOL    HW2 7345   8.043   1.210  14.458
 1838SOL     OW 7346  12.886   1.294   6.062
 1838SOL    HW1 7347  12.903   1.252   6.146
 1838SOL    HW2 7348  12.791   1.295   6.054
 1839SOL     OW 7349   8.462  10.727   3.935
 1839SOL    HW1 7350   8.478  10.665   4.007
 1839SOL    HW2 7351   8.516  10.803   3.957
 1840SOL     OW 7352  12.226  14.452  13.286
 1840SOL    HW1 7353  12.155  14.429  13.226
 1840SOL    HW2 7354  12.269  14.369  13.306
 1841SOL     OW 7355   7.781   6.675  14.044
 1841SOL    HW1 7356   7.809   6.723  14.122
 1841SOL    HW2 7357   7.722   6.735  13.998
 1842SOL     OW 7358  14.253   4.503   4.352
 1842SOL    HW1 7359  14.345   4.489   4.330
 1842SOL    HW2 7360  14.252   4.588   4.395
 1843SOL     OW 7361   2.000   9.119  12.198
 1843SOL    HW1 7362   1.965   9.116  12.286
 1843SOL    HW2 7363   1.970   9.039  12.156
 1844SOL     OW 7364  11.047   6.954  14.014
 1844SOL    HW1 7365  11.091   7.039  14.023
 1844SOL    HW2 7366  11.096   6.909  13.946
 1845SOL     OW 7367   5.037   7.080   1.024
 1845SOL    HW1 7368   5.101   7.013   1.000
 1845SOL    HW2 7369   5.025   7.132   0.945
 1846SOL     OW 7370   8.601  11.831   7.258
 1846SOL    HW1 7371   8.661  11.761   7.230
 1846SOL    HW2 7372   8.533  11.831   7.190
 1847SOL     OW 7373   4.566  12.389   6.045
 1847SOL    HW1 7374   4.586  12.476   6.010
 1847SOL    HW2 7375   4.596  12.328   5.978
 1848SOL     OW 7376   9.932   2.145   4.640
 1848SOL    HW1 7377   9.903   2.079   4.576
 1848SOL    HW2 7378  10.002   2.101   4.689
 1849SOL     OW 7379   5.888   1.172   8.516
 1849SOL    HW1 7380   5.848   1.086   8.530
 1849SOL    HW2 7381   5.916   1.199   8.603
 1850SOL     OW 7382   6.492   1.210   4.017
 1850SOL    HW1 7383   6.507   1.123   4.054
 1850SOL    HW2 7384   6.397   1.222   4.022
 1851SOL     OW 7385   8.276   5.071   7.888
 1851SOL    HW1 7386   8.292   4.995   7.944
 1851SOL    HW2 7387   8.337   5.138   7.920
 1852SOL     OW 7388   9.418  11.188   9.737
 1852SOL    HW1 7389   9.435  11.094   9.725
 1852SOL    HW2 7390   9.382  11.217   9.653
 1853SOL     OW 7391   7.373  14.410   1.086
 1853SOL    HW1 7392   7.330  14.432   1.004
 1853SOL    HW2 7393   7.328  14.331   1.117
 1854SOL     OW 7394   1.832  14.340   3.287
 1854SOL    HW1 7395   1.880  14.270   3.332
 1854SOL    HW2 7396   1.899  14.384   3.234
 1855SOL     OW 7397   9.891  14.123   2.702
 1855SOL    HW1 7398   9.851  14.197   2.747
 1855SOL    HW2 7399   9.859  14.129   2.612
 1856SOL     OW 7400   1.207  13.700   1.261
 1856SOL    HW1 7401   1.272  13.706   1.191
 1856SOL    HW2 7402   1.253  13.730   1.340
 1857SOL     OW 7403   1.991   3.129  14.021
 1857SOL    HW1 7404   2.058   3.196  14.009
 1857SOL    HW2 7405   1.963   3.106  13.932
 1858SOL     OW 7406   5.659   7.780  10.397
 1858SOL    HW1 7407   5.667   7.864  10.441
 1858SOL    HW2 7408   5.735   7.775  10.339
 1859SOL     OW 7409   0.195   1.934   6.218
 1859SOL    HW1 7410   0.117   1.984   6.241
 1859SOL    HW2 7411   0.185   1.915   6.125
 1860SOL     OW 7412   6.018   2.327   9.542
 1860SOL    HW1 7413   5.928   2.343   9.513
 1860SOL    HW2 7414   6.011   2.249   9.598
 1861SOL     OW 7415   0.365  10.033  10.247
 1861SOL    HW1 7416   0.456  10.007  10.254
 1861SOL    HW2 7417   0.338  10.005  10.159
 1862SOL     OW 7418   3.999   6.519  13.356
 1862SOL    HW1 7419   3.929   6.516  13.291
 1862SOL    HW2 7420   4.013   6.612  13.373
 1863SOL     OW 7421   6.490   0.933   4.557
 1863SOL    HW1 7422   6.432   0.874   4.509
 1863SOL    HW2 7423   6.556   0.875   4.595
 1864SOL     OW 7424   6.139   7.698   2.700
 1864SOL    HW1 7425   6.193   7.694   2.779
 1864SOL    HW2 7426   6.058   7.654   2.723
 1865SOL     OW 7427   9.154   8.564   5.847
 1865SOL    HW1 7428   9.088   8.517   5.899
 1865SOL    HW2 7429   9.131   8.544   5.756
 1866SOL     OW 7430   6.726   6.304   7.255
 1866SOL    HW1 7431   6.726   6.346   7.341
 1866SOL    HW2 7432   6.780   6.226   7.266
 1867SOL     OW 7433   2.855   8.977  11.916
 1867SOL    HW1 7434   2.803   9.005  11.991
 1867SOL    HW2 7435   2.791   8.947  11.851
 1868SOL     OW 7436  14.568  13.183  10.914
 1868SOL    HW1 7437  14.559  13.277  10.898
 1868SOL    HW2 7438  14.582  13.145  10.827
 1869SOL     OW 7439   0.755   5.410  12.680
 1869SOL    HW1 7440   0.731   5.447  12.765
 1869SOL    HW2 7441   0.792   5.324  12.700
 1870SOL     OW 7442   9.022   5.489   2.438
 1870SOL    HW1 7443   8.960   5.417   2.435
 1870SOL    HW2 7444   8.970   5.567   2.416
 1871SOL     OW 7445   6.659  13.895  10.877
 1871SOL    HW1 7446   6.700  13.913  10.792
 1871SOL    HW2 7447   6.733  13.886  10.937
 1872SOL     OW 7448   6.626   5.850   2.565
 1872SOL    HW1 7449   6.595   5.843   2.655
 1872SOL    HW2 7450   6.564   5.798   2.514
 1873SOL     OW 7451   5.485   2.381   1.622
 1873SOL    HW1 7452   5.494   2.447   1.691
 1873SOL    HW2 7453   5.548   2.407   1.555
 1874SOL     OW 7454   7.400   4.561   4.488
 1874SOL    HW1 7455   7.391   4.467   4.471
 1874SOL    HW2 7456   7.323   4.600   4.447
 1875SOL     OW 7457  11.691  13.238   8.313
 1875SOL    HW1 7458  11.600  13.230   8.342
 1875SOL    HW2 7459  11.686  13.288   8.232
 1876SOL     OW 7460   1.117   3.925   8.646
 1876SOL    HW1 7461   1.063   3.847   8.642
 1876SOL    HW2 7462   1.068   3.991   8.597
 1877SOL     OW 7463   0.072   0.880   1.185
 1877SOL    HW1 7464   0.127   0.859   1.260
 1877SOL    HW2 7465   0.030   0.964   1.208
 1878SOL     OW 7466  11.021   5.739  11.936
 1878SOL    HW1 7467  11.094   5.683  11.909
 1878SOL    HW2 7468  10.945   5.681  11.934
 1879SOL     OW 7469   6.730   1.250   9.480
 1879SOL    HW1 7470   6.749   1.332   9.434
 1879SOL    HW2 7471   6.731   1.273   9.573
 1880SOL     OW 7472  10.835   4.693   5.260
 1880SOL    HW1 7473  10.916   4.685   5.210
 1880SOL    HW2 7474  10.767   4.698   5.193
 1881SOL     OW 7475   7.051   6.425  11.511
 1881SOL    HW1 7476   7.038   6.399  11.602
 1881SOL    HW2 7477   7.088   6.348  11.469
 1882SOL     OW 7478   4.945   9.259  13.036
 1882SOL    HW1 7479   4.983   9.236  12.952
 1882SOL    HW2 7480   4.851   9.246  13.024
 1883SOL     OW 7481   4.065  13.383   7.841
 1883SOL    HW1 7482   4.021  13.465   7.862
 1883SOL    HW2 7483   4.016  13.348   7.766
 1884SOL     OW 7484  13.885   4.613   2.641
 1884SOL    HW1 7485  13.948   4.658   2.697
 1884SOL    HW2 7486  13.879   4.666   2.562
 1885SOL     OW 7487   1.773   4.271  14.115
 1885SOL    HW1 7488   1.862   4.260  14.148
 1885SOL    HW2 7489   1.784   4.282  14.021
 1886SOL     OW 7490   1.207   0.726   4.739
 1886SOL    HW1 7491   1.258   0.769   4.671
 1886SOL    HW2 7492   1.262   0.652   4.767
 1887SOL     OW 7493  13.496   4.839   1.134
 1887SOL    HW1 7494  13.490   4.768   1.199
 1887SOL    HW2 7495  13.424   4.898   1.158
 1888SOL     OW 7496   0.636   1.955   7.821
 1888SOL    HW1 7497   0.706   1.965   7.886
 1888SOL    HW2 7498   0.590   1.876   7.848
 1889SOL     OW 7499  11.976   9.738   4.317
 1889SOL    HW1 7500  11.913   9.716   4.249
 1889SOL    HW2 7501  11.925   9.783   4.384
 1890SOL     OW 7502   3.858   0.317   2.259
 1890SOL    HW1 7503   3.934   0.369   2.231
 1890SOL    HW2 7504   3.866   0.235   2.210
 1891SOL     OW 7505  13.836  14.403  12.171
 1891SOL    HW1 7506  13.885  14.326  12.140
 1891SOL    HW2 7507  13.876  14.477  12.125
 1892SOL     OW 7508   8.643   5.953   0.305
 1892SOL    HW1 7509   8.608   5.966   0.216
 1892SOL    HW2 7510   8.607   5.870   0.333
 1893SOL     OW 7511   3.149   9.518   1.410
 1893SOL    HW1 7512   3.223   9.541   1.355
 1893SOL    HW2 7513   3.113   9.439   1.370
 1894SOL     OW 7514   8.899   1.718  11.192
 1894SOL    HW1 7515   8.924   1.626  11.186
 1894SOL    HW2 7516   8.818   1.719  11.243
 1895SOL     OW 7517   5.669   8.451   8.659
 1895SOL    HW1 7518   5.616   8.399   8.599
 1895SOL    HW2 7519   5.608   8.518   8.692
 1896SOL     OW 7520   1.497   4.625   2.902
 1896SOL    HW1 7521   1.491   4.610   2.808
 1896SOL    HW2 7522   1.560   4.697   2.911
 1897SOL     OW 7523   0.012  11.818  14.449
 1897SOL    HW1 7524   0.069  11.744  14.473
 1897SOL    HW2 7525   0.068  11.876  14.398
 1898SOL     OW 7526  13.788   0.025  11.738
 1898SOL    HW1 7527  13.863   0.065  11.694
 1898SOL    HW2 7528  13.768   0.085  11.811
 1899SOL     OW 7529   6.363   5.015   9.788
 1899SOL    HW1 7530   6.374   5.052   9.876
 1899SOL    HW2 7531   6.289   4.955   9.796
 1900SOL     OW 7532   9.130  10.195   2.349
 1900SOL    HW1 7533   9.177  10.146   2.281
 1900SOL    HW2 7534   9.041  10.205   2.314
 1901SOL     OW 7535   9.587   5.861   3.890
 1901SOL    HW1 7536   9.548   5.939   3.852
 1901SOL    HW2 7537   9.523   5.831   3.954
 1902SOL     OW 7538  11.796   3.231   0.697
 1902SOL    HW1 7539  11.824   3.282   0.773
 1902SOL    HW2 7540  11.862   3.162   0.688
 1903SOL     OW 7541   9.936  13.738  14.285
 1903SOL    HW1 7542   9.932  13.802  14.214
 1903SOL    HW2 7543   9.946  13.791  14.364
 1904SOL     OW 7544   4.209   4.511   4.772
 1904SOL    HW1 7545   4.205   4.602   4.804
 1904SOL    HW2 7546   4.211   4.519   4.677
 1905SOL     OW 7547  11.635  10.359   6.874
 1905SOL    HW1 7548  11.614  10.452   6.875
 1905SOL    HW2 7549  11.714  10.351   6.926
 1906SOL     OW 7550   7.796   6.939   5.098
 1906SOL    HW1 7551   7.890   6.951   5.109
 1906SOL    HW2 7552   7.756   7.008   5.151
 1907SOL     OW 7553   5.748   5.336  10.447
 1907SOL    HW1 7554   5.722   5.266  10.387
 1907SOL    HW2 7555   5.823   5.377  10.406
 1908SOL     OW 7556   9.174  14.142   6.502
 1908SOL    HW1 7557   9.097  14.085   6.502
 1908SOL    HW2 7558   9.218  14.122   6.419
 1909SOL     OW 7559  14.645  13.370   3.894
 1909SOL    HW1 7560  14.569  13.422   3.869
 1909SOL    HW2 7561  14.609  13.299   3.947
 1910SOL     OW 7562   3.795  11.098   1.560
 1910SOL    HW1 7563   3.844  11.061   1.634
 1910SOL    HW2 7564   3.707  11.061   1.569
 1911SOL     OW 7565  11.242  12.638  13.745
 1911SOL    HW1 7566  11.236  12.570  13.678
 1911SOL    HW2 7567  11.212  12.596  13.826
 1912SOL     OW 7568   0.324  13.044   2.097
 1912SOL    HW1 7569   0.374  12.963   2.098
 1912SOL    HW2 7570   0.390  13.113   2.090
 1913SOL     OW 7571   6.207   1.022   4.844
 1913SOL    HW1 7572   6.273   1.067   4.792
 1913SOL    HW2 7573   6.124   1.047   4.803
 1914SOL     OW 7574  14.396   9.274   5.970
 1914SOL    HW1 7575  14.340   9.205   6.006
 1914SOL    HW2 7576  14.482   9.233   5.959
 1915SOL     OW 7577   0.876   1.498  11.557
 1915SOL    HW1 7578   0.797   1.465  11.600
 1915SOL    HW2 7579   0.872   1.593  11.568
 1916SOL     OW 7580   0.920   5.514   2.948
 1916SOL    HW1 7581   0.829   5.544   2.951
 1916SOL    HW2 7582   0.926   5.447   3.016
 1917SOL     OW 7583   7.016  10.254   1.800
 1917SOL    HW1 7584   6.961  10.186   1.838
 1917SOL    HW2 7585   6.991  10.255   1.707
 1918SOL     OW 7586   8.411   5.437   3.200
 1918SOL    HW1 7587   8.333   5.489   3.220
 1918SOL    HW2 7588   8.415   5.436   3.105
 1919SOL     OW 7589   0.943  11.364   5.639
 1919SOL    HW1 7590   0.993  11.370   5.557
 1919SOL    HW2 7591   0.955  11.449   5.681
 1920SOL     OW 7592   3.459   4.330   3.064
 1920SOL    HW1 7593   3.435   4.408   3.013
 1920SOL    HW2 7594   3.549   4.345   3.091
 1921SOL     OW 7595   8.550   3.469  10.914
 1921SOL    HW1 7596   8.562   3.514  10.997
 1921SOL    HW2 7597   8.461   3.492  10.886
 1922SOL     OW 7598  13.026   1.352   3.236
 1922SOL    HW1 7599  12.950   1.362   3.179
 1922SOL    HW2 7600  13.005   1.405   3.313
 1923SOL     OW 7601   5.882   2.829   1.623
 1923SOL    HW1 7602   5.921   2.873   1.548
 1923SOL    HW2 7603   5.868   2.739   1.593
 1924SOL     OW 7604   9.275  12.655   7.780
 1924SOL    HW1 7605   9.300  12.630   7.869
 1924SOL    HW2 7606   9.315  12.741   7.768
 1925SOL     OW 7607   1.403   4.808   8.253
 1925SOL    HW1 7608   1.432   4.891   8.289
 1925SOL    HW2 7609   1.456   4.795   8.174
 1926SOL     OW 7610   0.606   1.553   7.365
 1926SOL    HW1 7611   0.541   1.618   7.395
 1926SOL    HW2 7612   0.556   1.494   7.309
 1927SOL     OW 7613   0.700  10.728   3.190
 1927SOL    HW1 7614   0.639  10.799   3.212
 1927SOL    HW2 7615   0.784  10.757   3.224
 1928SOL     OW 7616  11.679   3.642   7.361
 1928SOL    HW1 7617  11.641   3.554   7.361
 1928SOL    HW2 7618  11.767   3.630   7.399
 1929SOL     OW 7619  11.298   5.284  14.756
 1929SOL    HW1 7620  11.271   5.342  14.827
 1929SOL    HW2 7621  11.217   5.239  14.731
 1930SOL     OW 7622   6.281  12.486  13.087
 1930SOL    HW1 7623   6.316  12.397  13.092
 1930SOL    HW2 7624   6.186  12.474  13.091
 1931SOL     OW 7625   8.076   1.455   4.559
 1931SOL    HW1 7626   8.018   1.397   4.608
 1931SOL    HW2 7627   8.026   1.537   4.551
 1932SOL     OW 7628   2.626   7.688  11.433
 1932SOL    HW1 7629   2.655   7.638  11.356
 1932SOL    HW2 7630   2.662   7.641  11.508
 1933SOL     OW 7631   4.077  12.218   5.440
 1933SOL    HW1 7632   4.013  12.170   5.494
 1933SOL    HW2 7633   4.049  12.202   5.350
 1934SOL     OW 7634   2.877   7.354   5.482
 1934SOL    HW1 7635   2.926   7.316   5.555
 1934SOL    HW2 7636   2.823   7.282   5.449
 1935SOL     OW 7637  13.922   9.857   4.373
 1935SOL    HW1 7638  13.919   9.817   4.286
 1935SOL    HW2 7639  14.015   9.863   4.393
 1936SOL     OW 7640   0.541   8.494   7.514
 1936SOL    HW1 7641   0.532   8.538   7.598
 1936SOL    HW2 7642   0.477   8.422   7.518
 1937SOL     OW 7643   4.959  11.539   9.942
 1937SOL    HW1 7644   5.050  11.509   9.942
 1937SOL    HW2 7645   4.907  11.459   9.937
 1938SOL     OW 7646   7.448  11.063  14.472
 1938SOL    HW1 7647   7.458  11.148  14.430
 1938SOL    HW2 7648   7.536  11.026  14.474
 1939SOL     OW 7649   2.020   1.157   3.389
 1939SOL    HW1 7650   1.926   1.158   3.370
 1939SOL    HW2 7651   2.059   1.110   3.315
 1940SOL     OW 7652   9.261   1.277   1.520
 1940SOL    HW1 7653   9.187   1.273   1.581
 1940SOL    HW2 7654   9.221   1.274   1.433
 1941SOL     OW 7655   7.171   6.337   1.427
 1941SOL    HW1 7656   7.125   6.319   1.346
 1941SOL    HW2 7657   7.188   6.432   1.424
 1942SOL     OW 7658  12.598   3.796   1.847
 1942SOL    HW1 7659  12.593   3.798   1.752
 1942SOL    HW2 7660  12.688   3.820   1.867
 1943SOL     OW 7661   2.245   9.154   5.316
 1943SOL    HW1 7662   2.276   9.124   5.402
 1943SOL    HW2 7663   2.304   9.112   5.253
 1944SOL     OW 7664   9.411   3.743  12.470
 1944SOL    HW1 7665   9.408   3.746  12.375
 1944SOL    HW2 7666   9.355   3.668  12.493
 1945SOL     OW 7667  10.622   2.035  10.489
 1945SOL    HW1 7668  10.597   1.943  10.500
 1945SOL    HW2 7669  10.573   2.082  10.557
 1946SOL     OW 7670   0.840   5.583  12.110
 1946SOL    HW1 7671   0.875   5.595  12.199
 1946SOL    HW2 7672   0.915   5.554  12.059
 1947SOL     OW 7673   0.518   4.750  10.152
 1947SOL    HW1 7674   0.605   4.711  10.153
 1947SOL    HW2 7675   0.492   4.753  10.244
 1948SOL     OW 7676   7.477  12.978   1.118
 1948SOL    HW1 7677   7.402  13.038   1.121
 1948SOL    HW2 7678   7.455  12.910   1.182
 1949SOL     OW 7679  12.079   3.879   1.307
 1949SOL    HW1 7680  12.016   3.813   1.279
 1949SOL    HW2 7681  12.145   3.831   1.356
 1950SOL     OW 7682  12.336   3.409   4.715
 1950SOL    HW1 7683  12.339   3.503   4.732
 1950SOL    HW2 7684  12.422   3.390   4.677
 1951SOL     OW 7685  10.969  13.760   5.768
 1951SOL    HW1 7686  10.950  13.849   5.795
 1951SOL    HW2 7687  11.056  13.741   5.803
 1952SOL     OW 7688   9.040  11.199  11.300
 1952SOL    HW1 7689   8.965  11.178  11.356
 1952SOL    HW2 7690   9.009  11.269  11.243
 1953SOL     OW 7691   5.462   2.828  11.851
 1953SOL    HW1 7692   5.414   2.829  11.768
 1953SOL    HW2 7693   5.513   2.909  11.851
 1954SOL     OW 7694  14.374   7.662   6.874
 1954SOL    HW1 7695  14.350   7.739   6.822
 1954SOL    HW2 7696  14.358   7.588   6.815
 1955SOL     OW 7697   1.552   5.015   6.297
 1955SOL    HW1 7698   1.618   4.947   6.302
 1955SOL    HW2 7699   1.554   5.056   6.384
 1956SOL     OW 7700   6.780   7.506  12.958
 1956SOL    HW1 7701   6.771   7.537  13.049
 1956SOL    HW2 7702   6.872   7.480  12.951
 1957SOL     OW 7703   9.281   6.513   8.321
 1957SOL    HW1 7704   9.238   6.582   8.270
 1957SOL    HW2 7705   9.229   6.434   8.301
 1958SOL     OW 7706   1.158  10.404   8.771
 1958SOL    HW1 7707   1.159  10.363   8.857
 1958SOL    HW2 7708   1.250  10.413   8.747
 1959SOL     OW 7709  13.869  10.770   4.618
 1959SOL    HW1 7710  13.960  10.740   4.622
 1959SOL    HW2 7711  13.831  10.741   4.701
 1960SOL     OW 7712   9.131   1.653   3.688
 1960SOL    HW1 7713   9.085   1.579   3.727
 1960SOL    HW2 7714   9.224   1.630   3.693
 1961SOL     OW 7715   1.570   2.873  13.855
 1961SOL    HW1 7716   1.510   2.879  13.930
 1961SOL    HW2 7717   1.550   2.788  13.815
 1962SOL     OW 7718   1.072  12.501  12.173
 1962SOL    HW1 7719   1.010  12.430  12.186
 1962SOL    HW2 7720   1.129  12.470  12.102
 1963SOL     OW 7721   2.091  11.849  10.300
 1963SOL    HW1 7722   2.090  11.801  10.217
 1963SOL    HW2 7723   2.172  11.900  10.297
 1964SOL     OW 7724   2.447  13.722  14.762
 1964SOL    HW1 7725   2.453  13.639  14.715
 1964SOL    HW2 7726   2.419  13.698  14.851
 1965SOL     OW 7727   5.997   3.878   6.583
 1965SOL    HW1 7728   6.011   3.783   6.584
 1965SOL    HW2 7729   5.902   3.888   6.584
 1966SOL     OW 7730   1.873   8.076   7.024
 1966SOL    HW1 7731   1.898   8.150   7.078
 1966SOL    HW2 7732   1.833   8.114   6.946
 1967SOL     OW 7733   1.390   2.968   5.556
 1967SOL    HW1 7734   1.465   2.980   5.497
 1967SOL    HW2 7735   1.406   2.884   5.598
 1968SOL     OW 7736   3.777  13.117  13.289
 1968SOL    HW1 7737   3.775  13.021  13.293
 1968SOL    HW2 7738   3.815  13.142  13.374
 1969SOL     OW 7739  12.475   8.999  14.196
 1969SOL    HW1 7740  12.458   9.092  14.206
 1969SOL    HW2 7741  12.549   8.994  14.136
 1970SOL     OW 7742  12.092   2.372  12.582
 1970SOL    HW1 7743  12.095   2.292  12.633
 1970SOL    HW2 7744  12.017   2.420  12.616
 1971SOL     OW 7745  13.863   0.103   3.797
 1971SOL    HW1 7746  13.920   0.027   3.783
 1971SOL    HW2 7747  13.915   0.177   3.767
 1972SOL     OW 7748   3.029   6.017   0.021
 1972SOL    HW1 7749   3.043   5.956   0.092
 1972SOL    HW2 7750   2.949   5.986  14.851
 1973SOL     OW 7751   0.600   5.918   8.692
 1973SOL    HW1 7752   0.683   5.883   8.724
 1973SOL    HW2 7753   0.540   5.844   8.696
 1974SOL     OW 7754   1.041  12.898   9.826
 1974SOL    HW1 7755   0.964  12.853   9.860
 1974SOL    HW2 7756   1.063  12.850   9.745
 1975SOL     OW 7757   8.405   5.515   0.139
 1975SOL    HW1 7758   8.401   5.585   0.074
 1975SOL    HW2 7759   8.342   5.541   0.206
 1976SOL     OW 7760   2.063   9.597  13.167
 1976SOL    HW1 7761   2.132   9.588  13.232
 1976SOL    HW2 7762   2.043   9.507  13.141
 1977SOL     OW 7763   0.727  11.715   1.639
 1977SOL    HW1 7764   0.756  11.657   1.569
 1977SOL    HW2 7765   0.695  11.793   1.594
 1978SOL     OW 7766  10.338  10.510  11.620
 1978SOL    HW1 7767  10.275  10.565  11.666
 1978SOL    HW2 7768  10.406  10.492  11.685
 1979SOL     OW 7769   3.690   6.616   9.327
 1979SOL    HW1 7770   3.727   6.531   9.352
 1979SOL    HW2 7771   3.761   6.678   9.341
 1980SOL     OW 7772  10.372   5.680  12.223
 1980SOL    HW1 7773  10.293   5.630  12.202
 1980SOL    HW2 7774  10.342   5.750  12.280
 1981SOL     OW 7775   5.196   9.581  14.782
 1981SOL    HW1 7776   5.103   9.594  14.766
 1981SOL    HW2 7777   5.201   9.549  14.872
 1982SOL     OW 7778  10.573   2.971   7.239
 1982SOL    HW1 7779  10.554   3.046   7.183
 1982SOL    HW2 7780  10.640   3.002   7.299
 1983SOL     OW 7781   9.102   4.332   8.872
 1983SOL    HW1 7782   9.092   4.295   8.784
 1983SOL    HW2 7783   9.013   4.353   8.900
 1984SOL     OW 7784   3.359  13.013   7.341
 1984SOL    HW1 7785   3.427  13.057   7.392
 1984SOL    HW2 7786   3.278  13.055   7.370
 1985SOL     OW 7787  12.551   2.351   3.086
 1985SOL    HW1 7788  12.645   2.334   3.076
 1985SOL    HW2 7789  12.511   2.264   3.081
 1986SOL     OW 7790   7.251   1.191   9.696
 1986SOL    HW1 7791   7.277   1.125   9.631
 1986SOL    HW2 7792   7.313   1.179   9.768
 1987SOL     OW 7793   7.285  11.763  12.757
 1987SOL    HW1 7794   7.333  11.683  12.735
 1987SOL    HW2 7795   7.333  11.800  12.831
 1988SOL     OW 7796  13.190   2.821   0.679
 1988SOL    HW1 7797  13.277   2.800   0.646
 1988SOL    HW2 7798  13.202   2.900   0.731
 1989SOL     OW 7799   9.532   8.273   0.997
 1989SOL    HW1 7800   9.563   8.205   0.937
 1989SOL    HW2 7801   9.469   8.323   0.945
 1990SOL     OW 7802   9.786  11.654   7.948
 1990SOL    HW1 7803   9.869  11.625   7.987
 1990SOL    HW2 7804   9.807  11.738   7.908
 1991SOL     OW 7805   8.268  11.326   1.530
 1991SOL    HW1 7806   8.179  11.315   1.496
 1991SOL    HW2 7807   8.311  11.243   1.512
 1992SOL     OW 7808   7.892  14.368  12.014
 1992SOL    HW1 7809   7.816  14.386  11.958
 1992SOL    HW2 7810   7.869  14.406  12.098
 1993SOL     OW 7811  13.209   4.676   0.629
 1993SOL    HW1 7812  13.297   4.642   0.618
 1993SOL    HW2 7813  13.172   4.674   0.540
 1994SOL     OW 7814  12.438   4.042  14.222
 1994SOL    HW1 7815  12.431   3.951  14.252
 1994SOL    HW2 7816  12.392   4.043  14.138
 1995SOL     OW 7817   5.634   4.793  11.900
 1995SOL    HW1 7818   5.704   4.784  11.835
 1995SOL    HW2 7819   5.601   4.882  11.888
 1996SOL     OW 7820   9.438   9.876   8.304
 1996SOL    HW1 7821   9.492   9.871   8.382
 1996SOL    HW2 7822   9.353   9.910   8.335
 1997SOL     OW 7823   2.416   0.542   2.484
 1997SOL    HW1 7824   2.463   0.462   2.507
 1997SOL    HW2 7825   2.459   0.572   2.404
 1998SOL     OW 7826   8.539   9.762   1.675
 1998SOL    HW1 7827   8.558   9.856   1.670
 1998SOL    HW2 7828   8.607   9.727   1.732
 1999SOL     OW 7829   5.644   9.711   8.890
 1999SOL    HW1 7830   5.550   9.719   8.906
 1999SOL    HW2 7831   5.651   9.695   8.796
 2000SOL     OW 7832  13.372   2.416   0.026
 2000SOL    HW1 7833  13.448   2.433   0.082
 2000SOL    HW2 7834  13.300   2.400   0.087
 2001SOL     OW 7835   7.540   8.233   3.665
 2001SOL    HW1 7836   7.508   8.321   3.686
 2001SOL    HW2 7837   7.602   8.247   3.593
 2002SOL     OW 7838  14.530   1.701  13.549
 2002SOL    HW1 7839  14.546   1.795  13.541
 2002SOL    HW2 7840  14.614   1.665  13.578
 2003SOL     OW 7841   7.003   4.551   0.142
 2003SOL    HW1 7842   7.080   4.503   0.175
 2003SOL    HW2 7843   6.959   4.582   0.221
 2004SOL     OW 7844   1.491   9.038   2.285
 2004SOL    HW1 7845   1.569   8.999   2.324
 2004SOL    HW2 7846   1.523   9.119   2.245
 2005SOL     OW 7847   8.323   8.788  13.150
 2005SOL    HW1 7848   8.261   8.720  13.177
 2005SOL    HW2 7849   8.276   8.871  13.166
 2006SOL     OW 7850  13.308   8.784  13.195
 2006SOL    HW1 7851  13.311   8.690  13.174
 2006SOL    HW2 7852  13.214   8.805  13.193
 2007SOL     OW 7853  10.385   0.543  12.267
 2007SOL    HW1 7854  10.329   0.567  12.193
 2007SOL    HW2 7855  10.343   0.585  12.342
 2008SOL     OW 7856   1.499   3.845  14.571
 2008SOL    HW1 7857   1.562   3.824  14.502
 2008SOL    HW2 7858   1.433   3.898  14.527
 2009SOL     OW 7859   2.026   2.602  13.791
 2009SOL    HW1 7860   1.938   2.633  13.769
 2009SOL    HW2 7861   2.056   2.664  13.858
 2010SOL     OW 7862   6.033   2.000   5.649
 2010SOL    HW1 7863   5.981   2.072   5.613
 2010SOL    HW2 7864   6.124   2.029   5.639
 2011SOL     OW 7865  13.206   8.283   9.589
 2011SOL    HW1 7866  13.231   8.319   9.504
 2011SOL    HW2 7867  13.110   8.289   9.590
 2012SOL     OW 7868   8.782   2.916  13.033
 2012SOL    HW1 7869   8.847   2.981  13.061
 2012SOL    HW2 7870   8.721   2.966  12.978
 2013SOL     OW 7871  14.813   3.406   6.534
 2013SOL    HW1 7872   0.022   3.369   6.501
 2013SOL    HW2 7873  14.824   3.501   6.524
 2014SOL     OW 7874  13.906  14.588   2.027
 2014SOL    HW1 7875  13.838  14.522   2.029
 2014SOL    HW2 7876  13.953  14.572   1.945
 2015SOL     OW 7877  11.762   5.976   7.426
 2015SOL    HW1 7878  11.813   6.030   7.366
 2015SOL    HW2 7879  11.815   5.898   7.440
 2016SOL     OW 7880  10.911   4.009   8.166
 2016SOL    HW1 7881  10.935   3.924   8.130
 2016SOL    HW2 7882  10.919   3.999   8.261
 2017SOL     OW 7883   2.079  13.818  14.654
 2017SOL    HW1 7884   2.097  13.751  14.720
 2017SOL    HW2 7885   2.104  13.777  14.571
 2018SOL     OW 7886   5.717   6.520   1.294
 2018SOL    HW1 7887   5.705   6.438   1.342
 2018SOL    HW2 7888   5.723   6.494   1.202
 2019SOL     OW 7889  14.620   0.130   2.133
 2019SOL    HW1 7890  14.530   0.109   2.109
 2019SOL    HW2 7891  14.662   0.155   2.051
 2020SOL     OW 7892   6.861  13.621  11.803
 2020SOL    HW1 7893   6.817  13.583  11.726
 2020SOL    HW2 7894   6.910  13.695  11.768
 2021SOL     OW 7895   4.850   6.890  10.617
 2021SOL    HW1 7896   4.905   6.956  10.573
 2021SOL    HW2 7897   4.902   6.863  10.693
 2022SOL     OW 7898   5.364  14.455  13.567
 2022SOL    HW1 7899   5.292  14.518  13.562
 2022SOL    HW2 7900   5.420  14.489  13.637
 2023SOL     OW 7901   7.622  10.205  11.152
 2023SOL    HW1 7902   7.692  10.151  11.114
 2023SOL    HW2 7903   7.665  10.287  11.176
 2024SOL     OW 7904   9.419   1.613   6.780
 2024SOL    HW1 7905   9.411   1.686   6.841
 2024SOL    HW2 7906   9.492   1.637   6.723
 2025SOL     OW 7907   9.716  11.366   6.283
 2025SOL    HW1 7908   9.730  11.274   6.304
 2025SOL    HW2 7909   9.697  11.366   6.189
 2026SOL     OW 7910  11.188  10.841   4.040
 2026SOL    HW1 7911  11.100  10.806   4.029
 2026SOL    HW2 7912  11.203  10.838   4.135
 2027SOL     OW 7913  10.981   9.447   8.992
 2027SOL    HW1 7914  11.035   9.491   9.057
 2027SOL    HW2 7915  11.005   9.354   9.000
 2028SOL     OW 7916   7.833   9.411   4.630
 2028SOL    HW1 7917   7.876   9.358   4.563
 2028SOL    HW2 7918   7.761   9.356   4.662
 2029SOL     OW 7919   5.290   0.374   8.251
 2029SOL    HW1 7920   5.370   0.337   8.289
 2029SOL    HW2 7921   5.320   0.418   8.171
 2030SOL     OW 7922  12.488   6.630   6.078
 2030SOL    HW1 7923  12.505   6.719   6.109
 2030SOL    HW2 7924  12.480   6.578   6.159
 2031SOL     OW 7925   3.716   4.331   9.207
 2031SOL    HW1 7926   3.689   4.255   9.258
 2031SOL    HW2 7927   3.641   4.391   9.212
 2032SOL     OW 7928  13.251   6.056  14.562
 2032SOL    HW1 7929  13.211   6.096  14.484
 2032SOL    HW2 7930  13.288   6.129  14.610
 2033SOL     OW 7931   7.919   3.671   3.732
 2033SOL    HW1 7932   7.861   3.745   3.712
 2033SOL    HW2 7933   7.940   3.682   3.825
 2034SOL     OW 7934   6.704  13.467   0.608
 2034SOL    HW1 7935   6.799  13.467   0.608
 2034SOL    HW2 7936   6.680  13.491   0.518
 2035SOL     OW 7937   9.983   0.620   0.412
 2035SOL    HW1 7938   9.958   0.618   0.504
 2035SOL    HW2 7939   9.916   0.674   0.370
 2036SOL     OW 7940   9.666  12.430   0.819
 2036SOL    HW1 7941   9.702  12.423   0.731
 2036SOL    HW2 7942   9.654  12.524   0.833
 2037SOL     OW 7943   8.092   6.687  10.117
 2037SOL    HW1 7944   8.054   6.766  10.080
 2037SOL    HW2 7945   8.016   6.636  10.148
 2038SOL     OW 7946  13.592   8.440   6.550
 2038SOL    HW1 7947  13.565   8.443   6.458
 2038SOL    HW2 7948  13.530   8.498   6.595
 2039SOL     OW 7949   0.838   6.745  13.761
 2039SOL    HW1 7950   0.742   6.737  13.764
 2039SOL    HW2 7951   0.857   6.828  13.804
 2040SOL     OW 7952  12.550   7.415   9.668
 2040SOL    HW1 7953  12.496   7.423   9.747
 2040SOL    HW2 7954  12.597   7.332   9.679
 2041SOL     OW 7955  11.426   5.661  12.615
 2041SOL    HW1 7956  11.380   5.606  12.678
 2041SOL    HW2 7957  11.361   5.726  12.588
 2042SOL     OW 7958   6.673   8.422  14.687
 2042SOL    HW1 7959   6.692   8.459  14.773
 2042SOL    HW2 7960   6.585   8.453  14.666
 2043SOL     OW 7961   8.940  12.387   2.026
 2043SOL    HW1 7962   9.011  12.448   2.046
 2043SOL    HW2 7963   8.944  12.321   2.095
 2044SOL     OW 7964  10.962   2.749   3.005
 2044SOL    HW1 7965  10.938   2.694   2.930
 2044SOL    HW2 7966  10.957   2.689   3.080
 2045SOL     OW 7967   8.952   3.664   4.579
 2045SOL    HW1 7968   8.951   3.723   4.505
 2045SOL    HW2 7969   8.944   3.577   4.541
 2046SOL     OW 7970   0.148   9.632  10.719
 2046SOL    HW1 7971   0.085   9.686  10.767
 2046SOL    HW2 7972   0.169   9.561  10.779
 2047SOL     OW 7973   4.386  12.080   9.483
 2047SOL    HW1 7974   4.465  12.087   9.537
 2047SOL    HW2 7975   4.314  12.077   9.545
 2048SOL     OW 7976   4.471  11.755   8.289
 2048SOL    HW1 7977   4.500  11.831   8.239
 2048SOL    HW2 7978   4.536  11.687   8.271
 2049SOL     OW 7979   7.667   8.785  14.160
 2049SOL    HW1 7980   7.712   8.725  14.219
 2049SOL    HW2 7981   7.634   8.729  14.090
 2050SOL     OW 7982  13.429  11.109  10.634
 2050SOL    HW1 7983  13.505  11.121  10.690
 2050SOL    HW2 7984  13.440  11.174  10.564
 2051SOL     OW 7985   6.742   9.796   2.111
 2051SOL    HW1 7986   6.824   9.745   2.107
 2051SOL    HW2 7987   6.700   9.780   2.026
 2052SOL     OW 7988   4.199   2.964  12.631
 2052SOL    HW1 7989   4.135   2.919  12.575
 2052SOL    HW2 7990   4.168   2.948  12.720
 2053SOL     OW 7991   1.463   9.434   2.237
 2053SOL    HW1 7992   1.451   9.456   2.329
 2053SOL    HW2 7993   1.377   9.403   2.209
 2054SOL     OW 7994   9.788  13.332   3.444
 2054SOL    HW1 7995   9.826  13.245   3.441
 2054SOL    HW2 7996   9.724  13.333   3.373
 2055SOL     OW 7997   3.284   8.487  10.383
 2055SOL    HW1 7998   3.325   8.498  10.297
 2055SOL    HW2 7999   3.330   8.413  10.423
 2056SOL     OW 8000   9.012   8.283   1.468
 2056SOL    HW1 8001   8.918   8.277   1.449
 2056SOL    HW2 8002   9.017   8.329   1.552
 2057SOL     OW 8003  13.137  10.723   3.218
 2057SOL    HW1 8004  13.050  10.707   3.254
 2057SOL    HW2 8005  13.146  10.658   3.148
 2058SOL     OW 8006   4.430   4.864   8.170
 2058SOL    HW1 8007   4.451   4.955   8.151
 2058SOL    HW2 8008   4.367   4.867   8.242
 2059SOL     OW 8009  12.573   0.083   7.313
 2059SOL    HW1 8010  12.657   0.131   7.310
 2059SOL    HW2 8011  12.592   0.005   7.364
 2060SOL     OW 8012  10.892   9.248   4.558
 2060SOL    HW1 8013  10.844   9.329   4.579
 2060SOL    HW2 8014  10.824   9.184   4.539
 2061SOL     OW 8015   3.522   8.318  12.052
 2061SOL    HW1 8016   3.513   8.399  12.102
 2061SOL    HW2 8017   3.567   8.343  11.972
 2062SOL     OW 8018   6.727   8.198   6.800
 2062SOL    HW1 8019   6.768   8.160   6.878
 2062SOL    HW2 8020   6.729   8.127   6.735
 2063SOL     OW 8021  12.425   3.048   1.937
 2063SOL    HW1 8022  12.383   3.020   2.018
 2063SOL    HW2 8023  12.396   3.138   1.925
 2064SOL     OW 8024   6.729   7.914   6.172
 2064SOL    HW1 8025   6.804   7.966   6.200
 2064SOL    HW2 8026   6.672   7.976   6.128
 2065SOL     OW 8027  13.544  12.774   9.021
 2065SOL    HW1 8028  13.502  12.849   8.980
 2065SOL    HW2 8029  13.602  12.740   8.954
 2066SOL     OW 8030  12.620  11.708   3.676
 2066SOL    HW1 8031  12.702  11.720   3.628
 2066SOL    HW2 8032  12.626  11.769   3.749
 2067SOL     OW 8033  12.295  13.305   5.570
 2067SOL    HW1 8034  12.339  13.309   5.654
 2067SOL    HW2 8035  12.293  13.396   5.540
 2068SOL     OW 8036  14.687   5.110  11.513
 2068SOL    HW1 8037  14.665   5.141  11.426
 2068SOL    HW2 8038  14.642   5.026  11.522
 2069SOL     OW 8039   0.623  12.834  11.296
 2069SOL    HW1 8040   0.536  12.795  11.310
 2069SOL    HW2 8041   0.684  12.763  11.314
 2070SOL     OW 8042   3.387  11.763  11.771
 2070SOL    HW1 8043   3.393  11.773  11.866
 2070SOL    HW2 8044   3.478  11.753  11.743
 2071SOL     OW 8045   1.030   2.061   1.314
 2071SOL    HW1 8046   1.022   2.151   1.347
 2071SOL    HW2 8047   1.119   2.036   1.338
 2072SOL     OW 8048   4.404   9.365   7.595
 2072SOL    HW1 8049   4.310   9.348   7.590
 2072SOL    HW2 8050   4.412   9.459   7.576
 2073SOL     OW 8051  13.939   6.744   4.499
 2073SOL    HW1 8052  14.000   6.783   4.562
 2073SOL    HW2 8053  13.874   6.700   4.554
 2074SOL     OW 8054  13.137   7.725   4.447
 2074SOL    HW1 8055  13.151   7.668   4.523
 2074SOL    HW2 8056  13.188   7.804   4.467
 2075SOL     OW 8057   7.231  11.418   7.502
 2075SOL    HW1 8058   7.254  11.357   7.432
 2075SOL    HW2 8059   7.292  11.396   7.573
 2076SOL     OW 8060   1.361  14.635   5.342
 2076SOL    HW1 8061   1.344  14.556   5.393
 2076SOL    HW2 8062   1.274  14.672   5.325
 2077SOL     OW 8063   5.845   1.644  14.509
 2077SOL    HW1 8064   5.801   1.625  14.592
 2077SOL    HW2 8065   5.866   1.558  14.473
 2078SOL     OW 8066   5.200   1.182   5.046
 2078SOL    HW1 8067   5.285   1.145   5.070
 2078SOL    HW2 8068   5.204   1.272   5.079
 2079SOL     OW 8069  12.260  13.403  13.338
 2079SOL    HW1 8070  12.350  13.374  13.320
 2079SOL    HW2 8071  12.231  13.350  13.412
 2080SOL     OW 8072   4.522   9.816   6.155
 2080SOL    HW1 8073   4.471   9.876   6.209
 2080SOL    HW2 8074   4.544   9.743   6.213
 2081SOL     OW 8075   3.881  12.217  12.518
 2081SOL    HW1 8076   3.892  12.177  12.604
 2081SOL    HW2 8077   3.968  12.252  12.497
 2082SOL     OW 8078   1.313   5.209   2.483
 2082SOL    HW1 8079   1.285   5.151   2.554
 2082SOL    HW2 8080   1.245   5.276   2.477
 2083SOL     OW 8081   9.366   2.793   0.449
 2083SOL    HW1 8082   9.462   2.795   0.445
 2083SOL    HW2 8083   9.340   2.885   0.446
 2084SOL     OW 8084   3.172  12.386   3.188
 2084SOL    HW1 8085   3.171  12.447   3.113
 2084SOL    HW2 8086   3.215  12.308   3.155
 2085SOL     OW 8087   5.881   0.972  11.345
 2085SOL    HW1 8088   5.885   0.878  11.362
 2085SOL    HW2 8089   5.956   0.989  11.289
 2086SOL     OW 8090  11.759  10.775   0.194
 2086SOL    HW1 8091  11.816  10.811   0.262
 2086SOL    HW2 8092  11.670  10.788   0.227
 2087SOL     OW 8093   6.201   4.897  14.119
 2087SOL    HW1 8094   6.237   4.978  14.155
 2087SOL    HW2 8095   6.239   4.889  14.032
 2088SOL     OW 8096   2.609  14.124  10.681
 2088SOL    HW1 8097   2.515  14.141  10.676
 2088SOL    HW2 8098   2.636  14.108  10.590
 2089SOL     OW 8099  14.762   8.578  13.524
 2089SOL    HW1 8100  14.790   8.641  13.591
 2089SOL    HW2 8101  14.675   8.550  13.551
 2090SOL     OW 8102  10.936   6.470   6.209
 2090SOL    HW1 8103  10.870   6.416   6.254
 2090SOL    HW2 8104  11.005   6.409   6.185
 2091SOL     OW 8105  10.516   7.502  14.386
 2091SOL    HW1 8106  10.462   7.581  14.381
 2091SOL    HW2 8107  10.595   7.524  14.338
 2092SOL     OW 8108   2.843  14.691   8.523
 2092SOL    HW1 8109   2.916  14.750   8.511
 2092SOL    HW2 8110   2.877  14.621   8.579
 2093SOL     OW 8111   2.023  13.671  12.617
 2093SOL    HW1 8112   2.044  13.582  12.648
 2093SOL    HW2 8113   2.100  13.698  12.569
 2094SOL     OW 8114   7.053   7.176   9.150
 2094SOL    HW1 8115   7.039   7.212   9.237
 2094SOL    HW2 8116   7.132   7.222   9.118
 2095SOL     OW 8117  11.791   2.824   7.967
 2095SOL    HW1 8118  11.878   2.804   8.001
 2095SOL    HW2 8119  11.765   2.745   7.919
 2096SOL     OW 8120  11.139  11.768   6.731
 2096SOL    HW1 8121  11.065  11.829   6.729
 2096SOL    HW2 8122  11.105  11.691   6.776
 2097SOL     OW 8123   3.871  13.599   7.874
 2097SOL    HW1 8124   3.810  13.625   7.805
 2097SOL    HW2 8125   3.851  13.657   7.947
 2098SOL     OW 8126   6.217   0.632  14.748
 2098SOL    HW1 8127   6.273   0.586  14.812
 2098SOL    HW2 8128   6.279   0.681  14.694
 2099SOL     OW 8129   8.138   9.731   3.142
 2099SOL    HW1 8130   8.183   9.684   3.212
 2099SOL    HW2 8131   8.048   9.696   3.144
 2100SOL     OW 8132  10.242   6.543  11.646
 2100SOL    HW1 8133  10.178   6.603  11.606
 2100SOL    HW2 8134  10.287   6.596  11.712
 2101SOL     OW 8135   0.818  13.337   2.796
 2101SOL    HW1 8136   0.753  13.274   2.763
 2101SOL    HW2 8137   0.788  13.357   2.885
 2102SOL     OW 8138  14.038  11.549   1.758
 2102SOL    HW1 8139  14.128  11.541   1.788
 2102SOL    HW2 8140  14.001  11.461   1.768
 2103SOL     OW 8141   4.287   2.388   6.381
 2103SOL    HW1 8142   4.220   2.443   6.339
 2103SOL    HW2 8143   4.358   2.384   6.317
 2104SOL     OW 8144  12.250  13.465   6.243
 2104SOL    HW1 8145  12.208  13.381   6.259
 2104SOL    HW2 8146  12.251  13.474   6.148
 2105SOL     OW 8147   0.601  14.871   1.783
 2105SOL    HW1 8148   0.639  14.863   1.871
 2105SOL    HW2 8149   0.512  14.839   1.793
 2106SOL     OW 8150   6.222  11.154   4.284
 2106SOL    HW1 8151   6.229  11.061   4.264
 2106SOL    HW2 8152   6.127  11.171   4.287
 2107SOL     OW 8153   7.099   6.917   4.198
 2107SOL    HW1 8154   7.140   6.836   4.228
 2107SOL    HW2 8155   7.091   6.970   4.277
 2108SOL     OW 8156   0.987   4.005  11.879
 2108SOL    HW1 8157   0.908   4.047  11.847
 2108SOL    HW2 8158   0.956   3.939  11.942
 2109SOL     OW 8159  11.597   3.407   5.711
 2109SOL    HW1 8160  11.598   3.368   5.623
 2109SOL    HW2 8161  11.620   3.335   5.770
 2110SOL     OW 8162   3.581   4.119   2.490
 2110SOL    HW1 8163   3.606   4.060   2.419
 2110SOL    HW2 8164   3.584   4.063   2.569
 2111SOL     OW 8165   0.060   6.972   9.292
 2111SOL    HW1 8166   0.150   7.003   9.303
 2111SOL    HW2 8167   0.062   6.921   9.211
 2112SOL     OW 8168   1.376   4.697  13.308
 2112SOL    HW1 8169   1.353   4.628  13.245
 2112SOL    HW2 8170   1.459   4.731  13.276
 2113SOL     OW 8171   6.252  14.739   9.810
 2113SOL    HW1 8172   6.169  14.728   9.857
 2113SOL    HW2 8173   6.319  14.727   9.877
 2114SOL     OW 8174  14.443   2.111   1.089
 2114SOL    HW1 8175  14.466   2.117   0.996
 2114SOL    HW2 8176  14.431   2.018   1.105
 2115SOL     OW 8177  12.654  12.302   9.539
 2115SOL    HW1 8178  12.682  12.232   9.597
 2115SOL    HW2 8179  12.708  12.377   9.563
 2116SOL     OW 8180   8.015  10.263   9.734
 2116SOL    HW1 8181   8.005  10.330   9.802
 2116SOL    HW2 8182   8.056  10.308   9.661
 2117SOL     OW 8183   5.276   6.599   2.496
 2117SOL    HW1 8184   5.277   6.590   2.401
 2117SOL    HW2 8185   5.197   6.651   2.514
 2118SOL     OW 8186  11.874   8.489   8.563
 2118SOL    HW1 8187  11.874   8.582   8.539
 2118SOL    HW2 8188  11.784   8.470   8.587
 2119SOL     OW 8189   7.107   4.756   9.576
 2119SOL    HW1 8190   7.058   4.794   9.650
 2119SOL    HW2 8191   7.188   4.807   9.572
 2120SOL     OW 8192   9.087   0.864   6.437
 2120SOL    HW1 8193   9.055   0.918   6.365
 2120SOL    HW2 8194   9.180   0.853   6.419
 2121SOL     OW 8195  10.798   9.137  12.593
 2121SOL    HW1 8196  10.750   9.180  12.523
 2121SOL    HW2 8197  10.759   9.049  12.598
 2122SOL     OW 8198  13.660   5.187   8.568
 2122SOL    HW1 8199  13.708   5.244   8.629
 2122SOL    HW2 8200  13.595   5.144   8.622
 2123SOL     OW 8201  14.750   0.690   8.937
 2123SOL    HW1 8202  14.827   0.747   8.931
 2123SOL    HW2 8203  14.688   0.726   8.874
 2124SOL     OW 8204   5.641  11.580   5.846
 2124SOL    HW1 8205   5.685  11.504   5.807
 2124SOL    HW2 8206   5.575  11.543   5.904
 2125SOL     OW 8207  11.106   4.755  10.759
 2125SOL    HW1 8208  11.143   4.829  10.711
 2125SOL    HW2 8209  11.179   4.695  10.772
 2126SOL     OW 8210  14.574   0.388   7.575
 2126SOL    HW1 8211  14.526   0.438   7.509
 2126SOL    HW2 8212  14.660   0.428   7.578
 2127SOL     OW 8213   3.199   8.833   5.031
 2127SOL    HW1 8214   3.227   8.835   4.939
 2127SOL    HW2 8215   3.189   8.740   5.051
 2128SOL     OW 8216   1.357   8.499   6.667
 2128SOL    HW1 8217   1.359   8.411   6.705
 2128SOL    HW2 8218   1.322   8.486   6.579
 2129SOL     OW 8219  11.798  12.022  14.469
 2129SOL    HW1 8220  11.706  12.039  14.450
 2129SOL    HW2 8221  11.798  11.944  14.524
 2130SOL     OW 8222  13.941   2.721   0.898
 2130SOL    HW1 8223  13.875   2.664   0.937
 2130SOL    HW2 8224  14.025   2.677   0.916
 2131SOL     OW 8225   6.565   9.367   7.761
 2131SOL    HW1 8226   6.634   9.308   7.732
 2131SOL    HW2 8227   6.499   9.310   7.800
 2132SOL     OW 8228   9.616   8.145   6.227
 2132SOL    HW1 8229   9.706   8.124   6.249
 2132SOL    HW2 8230   9.592   8.081   6.160
 2133SOL     OW 8231   0.840   3.463   8.762
 2133SOL    HW1 8232   0.899   3.400   8.803
 2133SOL    HW2 8233   0.754   3.422   8.768
 2134SOL     OW 8234  14.385  14.516   4.108
 2134SOL    HW1 8235  14.312  14.471   4.065
 2134SOL    HW2 8236  14.357  14.607   4.115
 2135SOL     OW 8237   2.525   3.153   1.294
 2135SOL    HW1 8238   2.556   3.242   1.277
 2135SOL    HW2 8239   2.504   3.152   1.387
 2136SOL     OW 8240   0.109  12.383   2.311
 2136SOL    HW1 8241   0.191  12.365   2.357
 2136SOL    HW2 8242   0.135  12.390   2.219
 2137SOL     OW 8243   5.043   6.779   9.303
 2137SOL    HW1 8244   4.977   6.800   9.236
 2137SOL    HW2 8245   5.110   6.846   9.291
 2138SOL     OW 8246  11.253   6.692   9.676
 2138SOL    HW1 8247  11.277   6.713   9.766
 2138SOL    HW2 8248  11.157   6.696   9.675
 2139SOL     OW 8249   0.782   8.129   9.257
 2139SOL    HW1 8250   0.827   8.100   9.178
 2139SOL    HW2 8251   0.844   8.111   9.328
 2140SOL     OW 8252   4.335  11.354  13.754
 2140SOL    HW1 8253   4.249  11.391  13.735
 2140SOL    HW2 8254   4.397  11.417  13.717
 2141SOL     OW 8255   8.380   8.269   6.751
 2141SOL    HW1 8256   8.414   8.330   6.816
 2141SOL    HW2 8257   8.455   8.215   6.727
 2142SOL     OW 8258   7.759  14.349  10.207
 2142SOL    HW1 8259   7.731  14.406  10.136
 2142SOL    HW2 8260   7.833  14.300  10.171
 2143SOL     OW 8261  10.350  12.324  11.382
 2143SOL    HW1 8262  10.327  12.411  11.415
 2143SOL    HW2 8263  10.371  12.274  11.460
 2144SOL     OW 8264   2.037   0.765   4.263
 2144SOL    HW1 8265   2.131   0.747   4.266
 2144SOL    HW2 8266   2.002   0.719   4.340
 2145SOL     OW 8267  12.591  10.390   3.568
 2145SOL    HW1 8268  12.650  10.314   3.575
 2145SOL    HW2 8269  12.516  10.357   3.519
 2146SOL     OW 8270   7.532  13.210   3.777
 2146SOL    HW1 8271   7.453  13.259   3.799
 2146SOL    HW2 8272   7.510  13.166   3.694
 2147SOL     OW 8273   6.689   5.672   4.439
 2147SOL    HW1 8274   6.783   5.678   4.424
 2147SOL    HW2 8275   6.649   5.716   4.364
 2148SOL     OW 8276   5.510  13.745   7.191
 2148SOL    HW1 8277   5.565  13.696   7.130
 2148SOL    HW2 8278   5.424  13.748   7.149
 2149SOL     OW 8279   3.996   7.988   3.646
 2149SOL    HW1 8280   4.012   7.921   3.580
 2149SOL    HW2 8281   3.965   8.063   3.597
 2150SOL     OW 8282   4.644  11.759   9.958
 2150SOL    HW1 8283   4.568  11.701   9.957
 2150SOL    HW2 8284   4.670  11.761  10.050
 2151SOL     OW 8285   9.317  11.698   7.492
 2151SOL    HW1 8286   9.291  11.693   7.400
 2151SOL    HW2 8287   9.276  11.778   7.524
 2152SOL     OW 8288  10.989   3.903   4.964
 2152SOL    HW1 8289  11.080   3.927   4.978
 2152SOL    HW2 8290  10.952   3.896   5.052
 2153SOL     OW 8291  12.786   4.056   1.854
 2153SOL    HW1 8292  12.715   4.064   1.918
 2153SOL    HW2 8293  12.832   3.976   1.879
 2154SOL     OW 8294   0.015  14.129   5.629
 2154SOL    HW1 8295  14.854  14.200   5.683
 2154SOL    HW2 8296  14.811  14.098   5.581
 2155SOL     OW 8297  10.514   7.542   6.835
 2155SOL    HW1 8298  10.434   7.595   6.835
 2155SOL    HW2 8299  10.485   7.456   6.804
 2156SOL     OW 8300   3.002  10.074   6.622
 2156SOL    HW1 8301   3.027  10.161   6.591
 2156SOL    HW2 8302   2.977  10.087   6.714
 2157SOL     OW 8303   5.103   6.831   0.957
 2157SOL    HW1 8304   5.173   6.769   0.938
 2157SOL    HW2 8305   5.072   6.806   1.044
 2158SOL     OW 8306   1.439  13.960   6.049
 2158SOL    HW1 8307   1.353  13.926   6.075
 2158SOL    HW2 8308   1.447  13.936   5.956
 2159SOL     OW 8309   1.463  10.363   4.406
 2159SOL    HW1 8310   1.413  10.439   4.437
 2159SOL    HW2 8311   1.541  10.361   4.461
 2160SOL     OW 8312   8.122   3.169  10.059
 2160SOL    HW1 8313   8.050   3.132  10.110
 2160SOL    HW2 8314   8.194   3.106  10.071
 2161SOL     OW 8315   3.382  13.153  13.616
 2161SOL    HW1 8316   3.336  13.228  13.652
 2161SOL    HW2 8317   3.435  13.119  13.688
 2162SOL     OW 8318  12.536   6.092  11.398
 2162SOL    HW1 8319  12.630   6.088  11.416
 2162SOL    HW2 8320  12.495   6.061  11.478
 2163SOL     OW 8321   5.621   6.572   7.273
 2163SOL    HW1 8322   5.579   6.517   7.206
 2163SOL    HW2 8323   5.557   6.576   7.344
 2164SOL     OW 8324   8.006  11.668   8.498
 2164SOL    HW1 8325   7.933  11.646   8.557
 2164SOL    HW2 8326   7.982  11.626   8.416
 2165SOL     OW 8327   8.470  12.696   0.716
 2165SOL    HW1 8328   8.412  12.742   0.655
 2165SOL    HW2 8329   8.416  12.682   0.794
 2166SOL     OW 8330  10.628  14.842   1.629
 2166SOL    HW1 8331  10.609  14.750   1.649
 2166SOL    HW2 8332  10.722  14.843   1.610
 2167SOL     OW 8333  13.096   3.789   4.921
 2167SOL    HW1 8334  13.080   3.695   4.924
 2167SOL    HW2 8335  13.009   3.828   4.929
 2168SOL     OW 8336  10.277   5.763   3.333
 2168SOL    HW1 8337  10.336   5.691   3.358
 2168SOL    HW2 8338  10.298   5.779   3.241
 2169SOL     OW 8339   1.074  13.966   9.336
 2169SOL    HW1 8340   1.143  14.033   9.333
 2169SOL    HW2 8341   1.038  13.965   9.247
 2170SOL     OW 8342  14.432   6.139   6.355
 2170SOL    HW1 8343  14.402   6.230   6.361
 2170SOL    HW2 8344  14.511   6.136   6.409
 2171SOL     OW 8345   6.859  10.144   1.451
 2171SOL    HW1 8346   6.775  10.161   1.409
 2171SOL    HW2 8347   6.859  10.049   1.466
 2172SOL     OW 8348  14.329   6.313  10.959
 2172SOL    HW1 8349  14.277   6.355  10.891
 2172SOL    HW2 8350  14.409   6.285  10.914
 2173SOL     OW 8351   3.425   3.906   8.827
 2173SOL    HW1 8352   3.417   3.814   8.852
 2173SOL    HW2 8353   3.472   3.904   8.744
 2174SOL     OW 8354   0.129  13.044   9.318
 2174SOL    HW1 8355   0.092  13.006   9.398
 2174SOL    HW2 8356   0.177  12.972   9.277
 2175SOL     OW 8357   3.007   1.844   2.733
 2175SOL    HW1 8358   2.946   1.776   2.705
 2175SOL    HW2 8359   2.962   1.887   2.806
 2176SOL     OW 8360   4.628  10.267  12.620
 2176SOL    HW1 8361   4.618  10.319  12.699
 2176SOL    HW2 8362   4.721  10.244  12.618
 2177SOL     OW 8363   6.978   3.344  10.859
 2177SOL    HW1 8364   7.051   3.293  10.894
 2177SOL    HW2 8365   6.935   3.285  10.797
 2178SOL     OW 8366   6.190   5.560   5.187
 2178SOL    HW1 8367   6.227   5.541   5.100
 2178SOL    HW2 8368   6.237   5.638   5.216
 2179SOL     OW 8369   4.279  12.652   1.882
 2179SOL    HW1 8370   4.367  12.629   1.855
 2179SOL    HW2 8371   4.290  12.691   1.969
 2180SOL     OW 8372  13.861  10.339  13.259
 2180SOL    HW1 8373  13.884  10.316  13.169
 2180SOL    HW2 8374  13.802  10.270  13.288
 2181SOL     OW 8375   8.866  13.241  13.515
 2181SOL    HW1 8376   8.784  13.286  13.536
 2181SOL    HW2 8377   8.877  13.177  13.585
 2182SOL     OW 8378   4.526   1.182   9.107
 2182SOL    HW1 8379   4.452   1.225   9.150
 2182SOL    HW2 8380   4.495   1.163   9.018
 2183SOL     OW 8381   4.517  10.693  12.750
 2183SOL    HW1 8382   4.459  10.731  12.816
 2183SOL    HW2 8383   4.575  10.765  12.725
 2184SOL     OW 8384  10.560  12.566   7.061
 2184SOL    HW1 8385  10.551  12.479   7.021
 2184SOL    HW2 8386  10.593  12.549   7.149
 2185SOL     OW 8387  10.068  11.576  13.031
 2185SOL    HW1 8388  10.062  11.504  12.968
 2185SOL    HW2 8389  10.051  11.536  13.116
 2186SOL     OW 8390   5.439   4.494   7.018
 2186SOL    HW1 8391   5.510   4.522   6.961
 2186SOL    HW2 8392   5.443   4.398   7.015
 2187SOL     OW 8393   6.036   5.112   8.245
 2187SOL    HW1 8394   5.986   5.030   8.245
 2187SOL    HW2 8395   6.031   5.144   8.335
 2188SOL     OW 8396   2.354  14.744   9.861
 2188SOL    HW1 8397   2.400  14.794   9.928
 2188SOL    HW2 8398   2.262  14.747   9.888
 2189SOL     OW 8399  11.123   3.624  13.900
 2189SOL    HW1 8400  11.152   3.592  13.985
 2189SOL    HW2 8401  11.203   3.652  13.856
 2190SOL     OW 8402   6.205  12.980   0.098
 2190SOL    HW1 8403   6.282  13.013   0.146
 2190SOL    HW2 8404   6.146  13.055   0.093
 2191SOL     OW 8405   1.827  13.617   2.467
 2191SOL    HW1 8406   1.793  13.670   2.395
 2191SOL    HW2 8407   1.872  13.544   2.425
 2192SOL     OW 8408   7.269   8.176   2.050
 2192SOL    HW1 8409   7.213   8.200   1.976
 2192SOL    HW2 8410   7.335   8.118   2.012
 2193SOL     OW 8411  10.499  10.630   8.746
 2193SOL    HW1 8412  10.439  10.681   8.800
 2193SOL    HW2 8413  10.569  10.691   8.722
 2194SOL     OW 8414   3.049   5.167   5.949
 2194SOL    HW1 8415   3.093   5.140   5.868
 2194SOL    HW2 8416   3.121   5.191   6.009
 2195SOL     OW 8417  13.939  14.776   9.463
 2195SOL    HW1 8418  13.888  14.726   9.399
 2195SOL    HW2 8419  13.937  14.722   9.543
 2196SOL     OW 8420  10.697  14.136   6.338
 2196SOL    HW1 8421  10.678  14.085   6.260
 2196SOL    HW2 8422  10.616  14.184   6.357
 2197SOL     OW 8423   7.538   9.057   5.243
 2197SOL    HW1 8424   7.593   9.006   5.184
 2197SOL    HW2 8425   7.600   9.100   5.302
 2198SOL     OW 8426   4.021   4.344  13.174
 2198SOL    HW1 8427   4.109   4.326  13.139
 2198SOL    HW2 8428   3.969   4.365  13.097
 2199SOL     OW 8429   0.180   6.941  11.743
 2199SOL    HW1 8430   0.146   6.859  11.780
 2199SOL    HW2 8431   0.192   6.921  11.649
 2200SOL     OW 8432   2.620   2.684  11.430
 2200SOL    HW1 8433   2.595   2.635  11.352
 2200SOL    HW2 8434   2.689   2.631  11.470
 2201SOL     OW 8435   7.765  10.681   2.574
 2201SOL    HW1 8436   7.710  10.659   2.499
 2201SOL    HW2 8437   7.811  10.600   2.595
 2202SOL     OW 8438   1.223   8.093  14.645
 2202SOL    HW1 8439   1.213   8.098  14.740
 2202SOL    HW2 8440   1.191   8.178  14.613
 2203SOL     OW 8441   3.632   6.555  10.003
 2203SOL    HW1 8442   3.592   6.530  10.086
 2203SOL    HW2 8443   3.721   6.520  10.007
 2204SOL     OW 8444   6.915  12.896  12.242
 2204SOL    HW1 8445   6.971  12.917  12.316
 2204SOL    HW2 8446   6.895  12.980  12.202
 2205SOL     OW 8447  12.501  10.692  13.299
 2205SOL    HW1 8448  12.503  10.784  13.274
 2205SOL    HW2 8449  12.520  10.645  13.218
 2206SOL     OW 8450   6.514  11.538   7.032
 2206SOL    HW1 8451   6.579  11.468   7.028
 2206SOL    HW2 8452   6.467  11.531   6.949
 2207SOL     OW 8453  13.852  14.016   7.759
 2207SOL    HW1 8454  13.850  13.932   7.805
 2207SOL    HW2 8455  13.871  14.081   7.827
 2208SOL     OW 8456   9.556  13.226   4.307
 2208SOL    HW1 8457   9.615  13.228   4.231
 2208SOL    HW2 8458   9.525  13.135   4.310
 2209SOL     OW 8459   6.627  11.319  10.145
 2209SOL    HW1 8460   6.587  11.259  10.208
 2209SOL    HW2 8461   6.705  11.353  10.190
 2210SOL     OW 8462  11.479   4.651   6.523
 2210SOL    HW1 8463  11.465   4.561   6.551
 2210SOL    HW2 8464  11.465   4.649   6.428
 2211SOL     OW 8465  14.813  12.915  14.734
 2211SOL    HW1 8466  14.746  12.972  14.696
 2211SOL    HW2 8467  14.834  12.956  14.818
 2212SOL     OW 8468  13.152   3.539   5.180
 2212SOL    HW1 8469  13.212   3.469   5.206
 2212SOL    HW2 8470  13.181   3.615   5.230
 2213SOL     OW 8471  12.790   2.529   3.536
 2213SOL    HW1 8472  12.704   2.506   3.502
 2213SOL    HW2 8473  12.849   2.515   3.461
 2214SOL     OW 8474   2.499  13.435  14.198
 2214SOL    HW1 8475   2.565  13.376  14.233
 2214SOL    HW2 8476   2.460  13.476  14.275
 2215SOL     OW 8477   4.885   6.983  13.241
 2215SOL    HW1 8478   4.881   7.034  13.322
 2215SOL    HW2 8479   4.796   6.949  13.229
 2216SOL     OW 8480  12.434   9.887   2.495
 2216SOL    HW1 8481  12.507   9.861   2.550
 2216SOL    HW2 8482  12.404   9.970   2.531
 2217SOL     OW 8483  13.688   8.288   2.974
 2217SOL    HW1 8484  13.614   8.310   3.031
 2217SOL    HW2 8485  13.751   8.358   2.988
 2218SOL     OW 8486   7.458   1.565  10.303
 2218SOL    HW1 8487   7.505   1.634  10.351
 2218SOL    HW2 8488   7.517   1.541  10.231
 2219SOL     OW 8489   4.775   7.723   6.941
 2219SOL    HW1 8490   4.739   7.654   6.885
 2219SOL    HW2 8491   4.868   7.702   6.947
 2220SOL     OW 8492   4.845   8.791  14.499
 2220SOL    HW1 8493   4.772   8.846  14.529
 2220SOL    HW2 8494   4.920   8.823  14.548
 2221SOL     OW 8495   8.093  11.391  14.426
 2221SOL    HW1 8496   8.066  11.468  14.476
 2221SOL    HW2 8497   8.108  11.324  14.492
 2222SOL     OW 8498  11.921   7.365   9.766
 2222SOL    HW1 8499  11.937   7.298   9.832
 2222SOL    HW2 8500  11.959   7.329   9.686
 2223SOL     OW 8501   7.525   8.804   3.183
 2223SOL    HW1 8502   7.527   8.866   3.255
 2223SOL    HW2 8503   7.615   8.805   3.148
 2224SOL     OW 8504  13.045  11.413   2.363
 2224SOL    HW1 8505  13.116  11.388   2.304
 2224SOL    HW2 8506  13.078  11.490   2.409
 2225SOL     OW 8507   9.896   8.068   8.037
 2225SOL    HW1 8508   9.835   8.133   8.071
 2225SOL    HW2 8509   9.897   7.999   8.103
 2226SOL     OW 8510   7.744   3.132   7.185
 2226SOL    HW1 8511   7.702   3.046   7.174
 2226SOL    HW2 8512   7.672   3.195   7.175
 2227SOL     OW 8513  11.534  11.987  14.348
 2227SOL    HW1 8514  11.508  12.042  14.274
 2227SOL    HW2 8515  11.453  11.948  14.379
 2228SOL     OW 8516   8.470   6.776   8.355
 2228SOL    HW1 8517   8.466   6.751   8.447
 2228SOL    HW2 8518   8.475   6.693   8.307
 2229SOL     OW 8519  12.821   7.875   3.173
 2229SOL    HW1 8520  12.890   7.933   3.142
 2229SOL    HW2 8521  12.841   7.860   3.265
 2230SOL     OW 8522  13.927  13.929  12.857
 2230SOL    HW1 8523  13.946  14.008  12.807
 2230SOL    HW2 8524  13.832  13.929  12.869
 2231SOL     OW 8525   5.069   4.174   1.476
 2231SOL    HW1 8526   5.025   4.150   1.394
 2231SOL    HW2 8527   5.161   4.153   1.461
 2232SOL     OW 8528   0.973   4.410  13.071
 2232SOL    HW1 8529   0.933   4.412  13.158
 2232SOL    HW2 8530   0.980   4.502  13.045
 2233SOL     OW 8531   7.878  13.533   0.610
 2233SOL    HW1 8532   7.809  13.510   0.547
 2233SOL    HW2 8533   7.851  13.492   0.692
 2234SOL     OW 8534  11.959   0.311   7.465
 2234SOL    HW1 8535  11.950   0.256   7.388
 2234SOL    HW2 8536  12.052   0.306   7.488
 2235SOL     OW 8537   5.879   7.274   1.452
 2235SOL    HW1 8538   5.909   7.230   1.531
 2235SOL    HW2 8539   5.789   7.242   1.439
 2236SOL     OW 8540  10.685   9.972  11.781
 2236SOL    HW1 8541  10.654   9.934  11.698
 2236SOL    HW2 8542  10.660   9.908  11.847
 2237SOL     OW 8543  13.661   7.209  10.097
 2237SOL    HW1 8544  13.647   7.138  10.033
 2237SOL    HW2 8545  13.694   7.282  10.045
 2238SOL     OW 8546   7.981  10.110   5.283
 2238SOL    HW1 8547   8.009  10.162   5.358
 2238SOL    HW2 8548   8.029  10.147   5.209
 2239SOL     OW 8549   3.047   4.255   5.002
 2239SOL    HW1 8550   3.094   4.321   5.053
 2239SOL    HW2 8551   2.955   4.277   5.012
 2240SOL     OW 8552  13.240  14.626   8.154
 2240SOL    HW1 8553  13.281  14.614   8.069
 2240SOL    HW2 8554  13.192  14.544   8.169
 2241SOL     OW 8555   0.719  11.780   7.340
 2241SOL    HW1 8556   0.690  11.769   7.250
 2241SOL    HW2 8557   0.730  11.691   7.373
 2242SOL     OW 8558   0.274   6.306  13.216
 2242SOL    HW1 8559   0.328   6.343  13.146
 2242SOL    HW2 8560   0.305   6.348  13.296
 2243SOL     OW 8561  14.270  14.067  11.123
 2243SOL    HW1 8562  14.218  14.122  11.065
 2243SOL    HW2 8563  14.348  14.043  11.071
 2244SOL     OW 8564   9.019  10.040   2.972
 2244SOL    HW1 8565   9.023  10.102   2.899
 2244SOL    HW2 8566   8.926  10.020   2.982
 2245SOL     OW 8567  14.360   1.072   7.035
 2245SOL    HW1 8568  14.444   1.117   7.049
 2245SOL    HW2 8569  14.355   1.059   6.941
 2246SOL     OW 8570  13.475  13.648  10.040
 2246SOL    HW1 8571  13.529  13.666  10.117
 2246SOL    HW2 8572  13.531  13.669   9.966
 2247SOL     OW 8573   9.865   5.402  11.394
 2247SOL    HW1 8574   9.771   5.407  11.374
 2247SOL    HW2 8575   9.870   5.338  11.465
 2248SOL     OW 8576   5.384   4.661   0.589
 2248SOL    HW1 8577   5.353   4.626   0.506
 2248SOL    HW2 8578   5.344   4.748   0.595
 2249SOL     OW 8579  14.843   2.357  12.660
 2249SOL    HW1 8580   0.031   2.300  12.708
 2249SOL    HW2 8581   0.022   2.389  12.586
 2250SOL     OW 8582   2.174  12.161   3.103
 2250SOL    HW1 8583   2.116  12.114   3.043
 2250SOL    HW2 8584   2.259  12.163   3.058
 2251SOL     OW 8585   7.163   0.822   1.776
 2251SOL    HW1 8586   7.078   0.857   1.750
 2251SOL    HW2 8587   7.227   0.875   1.729
 2252SOL     OW 8588  12.599   9.283   8.622
 2252SOL    HW1 8589  12.653   9.347   8.668
 2252SOL    HW2 8590  12.660   9.214   8.597
 2253SOL     OW 8591   6.856  11.657  13.836
 2253SOL    HW1 8592   6.898  11.676  13.753
 2253SOL    HW2 8593   6.830  11.743  13.870
 2254SOL     OW 8594   1.955   1.046   9.566
 2254SOL    HW1 8595   2.010   1.038   9.488
 2254SOL    HW2 8596   2.013   1.083   9.633
 2255SOL     OW 8597  13.974   4.368   9.621
 2255SOL    HW1 8598  14.004   4.317   9.546
 2255SOL    HW2 8599  13.929   4.304   9.676
 2256SOL     OW 8600   2.278   5.807   4.459
 2256SOL    HW1 8601   2.195   5.819   4.412
 2256SOL    HW2 8602   2.283   5.881   4.519
 2257SOL     OW 8603  12.217   8.888   9.815
 2257SOL    HW1 8604  12.175   8.959   9.766
 2257SOL    HW2 8605  12.145   8.848   9.864
 2258SOL     OW 8606  10.707   0.704  13.882
 2258SOL    HW1 8607  10.709   0.785  13.933
 2258SOL    HW2 8608  10.798   0.673  13.883
 2259SOL     OW 8609   8.638   0.924   0.849
 2259SOL    HW1 8610   8.648   1.017   0.830
 2259SOL    HW2 8611   8.712   0.902   0.905
 2260SOL     OW 8612   2.538   6.282   0.717
 2260SOL    HW1 8613   2.453   6.285   0.673
 2260SOL    HW2 8614   2.602   6.295   0.648
 2261SOL     OW 8615   7.732  10.324  10.183
 2261SOL    HW1 8616   7.776  10.305  10.266
 2261SOL    HW2 8617   7.752  10.417  10.168
 2262SOL     OW 8618   3.312   9.510  12.273
 2262SOL    HW1 8619   3.390   9.552  12.236
 2262SOL    HW2 8620   3.276   9.575  12.334
 2263SOL     OW 8621  10.925   4.980  10.136
 2263SOL    HW1 8622  11.005   4.944  10.097
 2263SOL    HW2 8623  10.887   5.035  10.067
 2264SOL     OW 8624  11.171   0.996   6.373
 2264SOL    HW1 8625  11.166   0.924   6.436
 2264SOL    HW2 8626  11.155   0.954   6.288
 2265SOL     OW 8627   2.924   8.354   4.487
 2265SOL    HW1 8628   2.938   8.305   4.568
 2265SOL    HW2 8629   3.006   8.404   4.476
 2266SOL     OW 8630   2.692  10.403   6.096
 2266SOL    HW1 8631   2.720  10.410   6.004
 2266SOL    HW2 8632   2.628  10.473   6.107
 2267SOL     OW 8633   4.161  12.016   2.849
 2267SOL    HW1 8634   4.097  12.083   2.825
 2267SOL    HW2 8635   4.241  12.042   2.804
 2268SOL     OW 8636   0.463   4.933   8.538
 2268SOL    HW1 8637   0.447   4.927   8.632
 2268SOL    HW2 8638   0.420   5.014   8.512
 2269SOL     OW 8639   4.123  10.141   2.792
 2269SOL    HW1 8640   4.111  10.070   2.856
 2269SOL    HW2 8641   4.133  10.220   2.846
 2270SOL     OW 8642   7.648  11.142   9.285
 2270SOL    HW1 8643   7.575  11.131   9.224
 2270SOL    HW2 8644   7.626  11.086   9.359
 2271SOL     OW 8645  14.445   6.860   6.241
 2271SOL    HW1 8646  14.535   6.832   6.225
 2271SOL    HW2 8647  14.420   6.815   6.322
 2272SOL     OW 8648   9.520   1.480   4.608
 2272SOL    HW1 8649   9.482   1.566   4.627
 2272SOL    HW2 8650   9.610   1.498   4.581
 2273SOL     OW 8651   4.856   5.550   2.727
 2273SOL    HW1 8652   4.895   5.621   2.778
 2273SOL    HW2 8653   4.902   5.472   2.756
 2274SOL     OW 8654   8.615  12.862   4.358
 2274SOL    HW1 8655   8.523  12.867   4.334
 2274SOL    HW2 8656   8.657  12.930   4.306
 2275SOL     OW 8657   3.454   2.572   7.272
 2275SOL    HW1 8658   3.446   2.619   7.189
 2275SOL    HW2 8659   3.377   2.600   7.322
 2276SOL     OW 8660   5.160  12.964   0.765
 2276SOL    HW1 8661   5.223  12.934   0.831
 2276SOL    HW2 8662   5.133  12.885   0.719
 2277SOL     OW 8663   4.384  12.856   9.980
 2277SOL    HW1 8664   4.434  12.787  10.022
 2277SOL    HW2 8665   4.424  12.865   9.893
 2278SOL     OW 8666  10.976  10.158   0.084
 2278SOL    HW1 8667  11.044  10.093   0.098
 2278SOL    HW2 8668  10.894  10.109   0.088
 2279SOL     OW 8669   5.493   9.384   7.698
 2279SOL    HW1 8670   5.422   9.438   7.665
 2279SOL    HW2 8671   5.565   9.446   7.714
 2280SOL     OW 8672   8.509   5.139  13.086
 2280SOL    HW1 8673   8.579   5.201  13.065
 2280SOL    HW2 8674   8.438   5.194  13.121
 2281SOL     OW 8675   7.003   5.358   3.194
 2281SOL    HW1 8676   7.026   5.265   3.198
 2281SOL    HW2 8677   6.907   5.359   3.197
 2282SOL     OW 8678  10.025   6.864  13.472
 2282SOL    HW1 8679   9.960   6.803  13.438
 2282SOL    HW2 8680   9.993   6.950  13.447
 2283SOL     OW 8681  12.760  11.668  11.849
 2283SOL    HW1 8682  12.749  11.733  11.918
 2283SOL    HW2 8683  12.755  11.583  11.894
 2284SOL     OW 8684  13.693  13.520   8.568
 2284SOL    HW1 8685  13.614  13.569   8.543
 2284SOL    HW2 8686  13.686  13.438   8.519
 2285SOL     OW 8687   8.771  14.808  13.131
 2285SOL    HW1 8688   8.699  14.807  13.068
 2285SOL    HW2 8689   8.754   0.012  13.185
 2286SOL     OW 8690   2.264   6.253   9.549
 2286SOL    HW1 8691   2.236   6.301   9.471
 2286SOL    HW2 8692   2.280   6.164   9.518
 2287SOL     OW 8693   9.695   4.399  13.555
 2287SOL    HW1 8694   9.781   4.397  13.598
 2287SOL    HW2 8695   9.684   4.310  13.521
 2288SOL     OW 8696  14.364  11.349   6.755
 2288SOL    HW1 8697  14.439  11.408   6.764
 2288SOL    HW2 8698  14.289  11.401   6.782
 2289SOL     OW 8699  12.601   9.812   0.990
 2289SOL    HW1 8700  12.578   9.875   1.058
 2289SOL    HW2 8701  12.684   9.774   1.020
 2290SOL     OW 8702  11.252  13.019  10.245
 2290SOL    HW1 8703  11.194  12.950  10.277
 2290SOL    HW2 8704  11.233  13.094  10.300
 2291SOL     OW 8705   1.255   4.736   2.993
 2291SOL    HW1 8706   1.245   4.725   3.087
 2291SOL    HW2 8707   1.344   4.707   2.974
 2292SOL     OW 8708  10.197  13.089  13.372
 2292SOL    HW1 8709  10.238  13.077  13.286
 2292SOL    HW2 8710  10.271  13.098  13.432
 2293SOL     OW 8711   7.683   8.515   8.811
 2293SOL    HW1 8712   7.708   8.424   8.795
 2293SOL    HW2 8713   7.750   8.548   8.871
 2294SOL     OW 8714   5.261   9.780   0.768
 2294SOL    HW1 8715   5.209   9.778   0.688
 2294SOL    HW2 8716   5.283   9.872   0.780
 2295SOL     OW 8717  10.737   8.281   8.069
 2295SOL    HW1 8718  10.765   8.349   8.009
 2295SOL    HW2 8719  10.773   8.200   8.033
 2296SOL     OW 8720  11.640  14.808   2.139
 2296SOL    HW1 8721  11.637  14.812   2.234
 2296SOL    HW2 8722  11.584   0.008   2.110
 2297SOL     OW 8723  10.291   0.068   4.774
 2297SOL    HW1 8724  10.266   0.148   4.729
 2297SOL    HW2 8725  10.277   0.087   4.867
 2298SOL     OW 8726   5.793   6.217   3.317
 2298SOL    HW1 8727   5.765   6.232   3.227
 2298SOL    HW2 8728   5.889   6.217   3.313
 2299SOL     OW 8729   1.524   4.273   7.700
 2299SOL    HW1 8730   1.446   4.288   7.646
 2299SOL    HW2 8731   1.524   4.178   7.715
 2300SOL     OW 8732   5.497   1.364   7.612
 2300SOL    HW1 8733   5.423   1.408   7.655
 2300SOL    HW2 8734   5.458   1.321   7.536
 2301SOL     OW 8735   5.081   5.322   3.985
 2301SOL    HW1 8736   5.099   5.232   3.959
 2301SOL    HW2 8737   5.076   5.370   3.902
 2302SOL     OW 8738   5.312  14.581  11.187
 2302SOL    HW1 8739   5.297  14.649  11.253
 2302SOL    HW2 8740   5.277  14.618  11.106
 2303SOL     OW 8741   3.129  13.592   4.083
 2303SOL    HW1 8742   3.131  13.680   4.045
 2303SOL    HW2 8743   3.219  13.576   4.111
 2304SOL     OW 8744   8.945   5.208  12.319
 2304SOL    HW1 8745   8.937   5.136  12.381
 2304SOL    HW2 8746   8.989   5.277  12.368
 2305SOL     OW 8747  12.651   6.435   3.209
 2305SOL    HW1 8748  12.655   6.348   3.169
 2305SOL    HW2 8749  12.561   6.463   3.194
 2306SOL     OW 8750   5.534  13.895   3.284
 2306SOL    HW1 8751   5.617  13.872   3.242
 2306SOL    HW2 8752   5.475  13.824   3.260
 2307SOL     OW 8753   1.283  14.223   6.344
 2307SOL    HW1 8754   1.364  14.229   6.294
 2307SOL    HW2 8755   1.229  14.295   6.311
 2308SOL     OW 8756  12.286   0.357  12.365
 2308SOL    HW1 8757  12.350   0.426  12.348
 2308SOL    HW2 8758  12.335   0.289  12.411
 2309SOL     OW 8759  14.430   9.937   1.229
 2309SOL    HW1 8760  14.438   9.956   1.135
 2309SOL    HW2 8761  14.387   9.851   1.232
 2310SOL     OW 8762  13.551  14.264   6.697
 2310SOL    HW1 8763  13.637  14.284   6.661
 2310SOL    HW2 8764  13.561  14.177   6.736
 2311SOL     OW 8765   5.848   3.898  13.610
 2311SOL    HW1 8766   5.770   3.875  13.560
 2311SOL    HW2 8767   5.847   3.994  13.612
 2312SOL     OW 8768   3.418   9.440   5.063
 2312SOL    HW1 8769   3.439   9.355   5.103
 2312SOL    HW2 8770   3.342   9.422   5.007
 2313SOL     OW 8771   9.006   7.181   7.704
 2313SOL    HW1 8772   8.967   7.106   7.749
 2313SOL    HW2 8773   9.011   7.155   7.612
 2314SOL     OW 8774  11.081   9.524   3.527
 2314SOL    HW1 8775  11.139   9.556   3.596
 2314SOL    HW2 8776  10.993   9.544   3.559
 2315SOL     OW 8777  11.244  13.311   6.253
 2315SOL    HW1 8778  11.320  13.251   6.253
 2315SOL    HW2 8779  11.279  13.393   6.217
 2316SOL     OW 8780  12.522   5.403   8.561
 2316SOL    HW1 8781  12.610   5.369   8.544
 2316SOL    HW2 8782  12.474   5.328   8.595
 2317SOL     OW 8783   0.814   9.872   2.102
 2317SOL    HW1 8784   0.894   9.820   2.110
 2317SOL    HW2 8785   0.841   9.950   2.053
 2318SOL     OW 8786   6.071  14.026   6.515
 2318SOL    HW1 8787   6.009  14.015   6.443
 2318SOL    HW2 8788   6.105  14.115   6.503
 2319SOL     OW 8789   2.366   5.576  11.295
 2319SOL    HW1 8790   2.378   5.488  11.332
 2319SOL    HW2 8791   2.399   5.635  11.362
 2320SOL     OW 8792   8.913   1.698   6.103
 2320SOL    HW1 8793   8.993   1.707   6.155
 2320SOL    HW2 8794   8.905   1.780   6.055
 2321SOL     OW 8795  12.133   1.361   5.028
 2321SOL    HW1 8796  12.176   1.420   5.090
 2321SOL    HW2 8797  12.052   1.334   5.072
 2322SOL     OW 8798   3.689   5.712  14.358
 2322SOL    HW1 8799   3.738   5.790  14.384
 2322SOL    HW2 8800   3.631   5.742  14.288
 2323SOL     OW 8801  10.030   4.704   0.482
 2323SOL    HW1 8802  10.038   4.686   0.576
 2323SOL    HW2 8803  10.118   4.730   0.455
 2324SOL     OW 8804   9.249  11.719   0.822
 2324SOL    HW1 8805   9.240  11.649   0.757
 2324SOL    HW2 8806   9.166  11.766   0.819
 2325SOL     OW 8807  10.325   2.278  13.562
 2325SOL    HW1 8808  10.418   2.299  13.551
 2325SOL    HW2 8809  10.325   2.188  13.594
 2326SOL     OW 8810   1.546   1.471   0.159
 2326SOL    HW1 8811   1.480   1.540   0.154
 2326SOL    HW2 8812   1.629   1.515   0.144
 2327SOL     OW 8813  11.391   1.558  14.158
 2327SOL    HW1 8814  11.408   1.594  14.245
 2327SOL    HW2 8815  11.311   1.602  14.128
 2328SOL     OW 8816   3.442   7.692   8.881
 2328SOL    HW1 8817   3.484   7.675   8.797
 2328SOL    HW2 8818   3.515   7.713   8.940
 2329SOL     OW 8819   7.092   3.268  13.943
 2329SOL    HW1 8820   7.072   3.333  14.010
 2329SOL    HW2 8821   7.181   3.290  13.914
 2330SOL     OW 8822  11.672   6.451   7.691
 2330SOL    HW1 8823  11.597   6.472   7.635
 2330SOL    HW2 8824  11.683   6.528   7.747
 2331SOL     OW 8825   4.492  13.371  13.025
 2331SOL    HW1 8826   4.572  13.399  13.069
 2331SOL    HW2 8827   4.508  13.386  12.932
 2332SOL     OW 8828   1.658   9.603   8.018
 2332SOL    HW1 8829   1.667   9.531   7.956
 2332SOL    HW2 8830   1.576   9.646   7.993
 2333SOL     OW 8831   7.298  13.759   8.834
 2333SOL    HW1 8832   7.296  13.682   8.890
 2333SOL    HW2 8833   7.244  13.736   8.759
 2334SOL     OW 8834   1.467   4.015  13.163
 2334SOL    HW1 8835   1.528   3.941  13.162
 2334SOL    HW2 8836   1.523   4.091  13.180
 2335SOL     OW 8837  12.780   1.980  14.819
 2335SOL    HW1 8838  12.751   2.041   0.014
 2335SOL    HW2 8839  12.866   2.012  14.793
 2336SOL     OW 8840  10.947   8.513   8.053
 2336SOL    HW1 8841  10.904   8.592   8.021
 2336SOL    HW2 8842  11.038   8.523   8.029
 2337SOL     OW 8843  14.454   8.165  12.025
 2337SOL    HW1 8844  14.407   8.082  12.011
 2337SOL    HW2 8845  14.519   8.167  11.955
 2338SOL     OW 8846   3.937   4.770  10.041
 2338SOL    HW1 8847   3.911   4.769   9.949
 2338SOL    HW2 8848   3.976   4.684  10.056
 2339SOL     OW 8849  14.133   2.375  14.243
 2339SOL    HW1 8850  14.200   2.308  14.257
 2339SOL    HW2 8851  14.162   2.423  14.165
 2340SOL     OW 8852  11.104  11.963  11.992
 2340SOL    HW1 8853  11.190  11.986  12.028
 2340SOL    HW2 8854  11.089  11.873  12.019
 2341SOL     OW 8855   2.948   6.964   4.723
 2341SOL    HW1 8856   3.011   7.003   4.663
 2341SOL    HW2 8857   2.864   7.000   4.696
 2342SOL     OW 8858   9.544   1.884   4.177
 2342SOL    HW1 8859   9.491   1.957   4.144
 2342SOL    HW2 8860   9.626   1.924   4.205
 2343SOL     OW 8861   3.140  11.442  10.097
 2343SOL    HW1 8862   3.097  11.485  10.171
 2343SOL    HW2 8863   3.213  11.500  10.075
 2344SOL     OW 8864  11.038  12.067   5.191
 2344SOL    HW1 8865  11.049  12.094   5.100
 2344SOL    HW2 8866  11.114  12.011   5.208
 2345SOL     OW 8867  13.873   2.136  12.824
 2345SOL    HW1 8868  13.923   2.216  12.806
 2345SOL    HW2 8869  13.864   2.094  12.739
 2346SOL     OW 8870   1.480   5.179  11.543
 2346SOL    HW1 8871   1.487   5.084  11.554
 2346SOL    HW2 8872   1.541   5.200  11.473
 2347SOL     OW 8873   9.887  13.227   8.323
 2347SOL    HW1 8874   9.918  13.318   8.318
 2347SOL    HW2 8875   9.954  13.176   8.277
 2348SOL     OW 8876   9.653   2.362   3.570
 2348SOL    HW1 8877   9.569   2.407   3.569
 2348SOL    HW2 8878   9.633   2.272   3.594
 2349SOL     OW 8879  14.554  11.802  11.587
 2349SOL    HW1 8880  14.609  11.742  11.638
 2349SOL    HW2 8881  14.513  11.746  11.520
 2350SOL     OW 8882  11.512  10.831   0.357
 2350SOL    HW1 8883  11.498  10.790   0.442
 2350SOL    HW2 8884  11.528  10.923   0.377
 2351SOL     OW 8885  12.170   2.784  10.335
 2351SOL    HW1 8886  12.131   2.701  10.308
 2351SOL    HW2 8887  12.259   2.762  10.361
 2352SOL     OW 8888   0.184  13.841  13.970
 2352SOL    HW1 8889   0.154  13.752  13.986
 2352SOL    HW2 8890   0.114  13.896  14.005
 2353SOL     OW 8891   1.473   1.047   6.785
 2353SOL    HW1 8892   1.523   1.115   6.739
 2353SOL    HW2 8893   1.481   1.070   6.878
 2354SOL     OW 8894   0.469   5.803   0.751
 2354SOL    HW1 8895   0.388   5.805   0.802
 2354SOL    HW2 8896   0.520   5.876   0.785
 2355SOL     OW 8897  11.416   2.027   2.809
 2355SOL    HW1 8898  11.345   2.088   2.829
 2355SOL    HW2 8899  11.486   2.051   2.870
 2356SOL     OW 8900   0.979   4.707   8.798
 2356SOL    HW1 8901   0.980   4.616   8.769
 2356SOL    HW2 8902   1.041   4.752   8.741
 2357SOL     OW 8903   1.186   7.072   1.439
 2357SOL    HW1 8904   1.198   7.050   1.531
 2357SOL    HW2 8905   1.273   7.067   1.400
 2358SOL     OW 8906   4.163   1.689  13.242
 2358SOL    HW1 8907   4.109   1.756  13.284
 2358SOL    HW2 8908   4.114   1.666  13.163
 2359SOL     OW 8909   5.346   1.568   1.382
 2359SOL    HW1 8910   5.315   1.548   1.294
 2359SOL    HW2 8911   5.394   1.489   1.409
 2360SOL     OW 8912   3.597   0.303  10.061
 2360SOL    HW1 8913   3.676   0.349  10.031
 2360SOL    HW2 8914   3.582   0.235   9.996
 2361SOL     OW 8915  13.261   0.882   6.147
 2361SOL    HW1 8916  13.339   0.836   6.177
 2361SOL    HW2 8917  13.289   0.929   6.069
 2362SOL     OW 8918   5.874   6.142   2.297
 2362SOL    HW1 8919   5.779   6.150   2.292
 2362SOL    HW2 8920   5.906   6.193   2.223
 2363SOL     OW 8921   2.754   8.269  11.959
 2363SOL    HW1 8922   2.771   8.335  11.892
 2363SOL    HW2 8923   2.753   8.317  12.042
 2364SOL     OW 8924   4.731  13.550   1.071
 2364SOL    HW1 8925   4.819  13.515   1.081
 2364SOL    HW2 8926   4.735  13.637   1.111
 2365SOL     OW 8927  13.753  13.424   4.969
 2365SOL    HW1 8928  13.664  13.430   5.005
 2365SOL    HW2 8929  13.805  13.482   5.025
 2366SOL     OW 8930   0.171  11.447   1.990
 2366SOL    HW1 8931   0.151  11.498   2.068
 2366SOL    HW2 8932   0.168  11.356   2.020
 2367SOL     OW 8933   2.066   2.157  10.255
 2367SOL    HW1 8934   2.079   2.229  10.193
 2367SOL    HW2 8935   1.992   2.186  10.309
 2368SOL     OW 8936   2.544  11.436   4.977
 2368SOL    HW1 8937   2.548  11.355   4.925
 2368SOL    HW2 8938   2.461  11.430   5.024
 2369SOL     OW 8939   9.133   5.162   6.722
 2369SOL    HW1 8940   9.186   5.098   6.675
 2369SOL    HW2 8941   9.054   5.113   6.747
 2370SOL     OW 8942  12.723   7.857   8.140
 2370SOL    HW1 8943  12.641   7.891   8.175
 2370SOL    HW2 8944  12.750   7.790   8.203
 2371SOL     OW 8945   3.348   2.858   8.142
 2371SOL    HW1 8946   3.307   2.874   8.227
 2371SOL    HW2 8947   3.442   2.873   8.158
 2372SOL     OW 8948   9.546   3.625   7.288
 2372SOL    HW1 8949   9.522   3.560   7.221
 2372SOL    HW2 8950   9.560   3.574   7.368
 2373SOL     OW 8951   1.877  13.034  11.431
 2373SOL    HW1 8952   1.868  12.943  11.460
 2373SOL    HW2 8953   1.888  13.027  11.336
 2374SOL     OW 8954   2.232   4.283   3.029
 2374SOL    HW1 8955   2.144   4.311   3.055
 2374SOL    HW2 8956   2.234   4.189   3.047
 2375SOL     OW 8957   8.198   3.291  14.181
 2375SOL    HW1 8958   8.237   3.325  14.262
 2375SOL    HW2 8959   8.106   3.317  14.186
 2376SOL     OW 8960  12.038   3.140  12.232
 2376SOL    HW1 8961  11.965   3.117  12.174
 2376SOL    HW2 8962  12.066   3.227  12.202
 2377SOL     OW 8963   3.408  11.325  11.314
 2377SOL    HW1 8964   3.377  11.239  11.341
 2377SOL    HW2 8965   3.495  11.333  11.353
 2378SOL     OW 8966  10.703   2.975  10.595
 2378SOL    HW1 8967  10.611   3.000  10.585
 2378SOL    HW2 8968  10.705   2.922  10.675
 2379SOL     OW 8969   2.904  10.683   8.545
 2379SOL    HW1 8970   2.918  10.729   8.462
 2379SOL    HW2 8971   2.922  10.749   8.612
 2380SOL     OW 8972   5.461   0.999   2.488
 2380SOL    HW1 8973   5.434   0.956   2.568
 2380SOL    HW2 8974   5.547   1.037   2.508
 2381SOL     OW 8975   2.295  14.743  12.874
 2381SOL    HW1 8976   2.390  14.740  12.867
 2381SOL    HW2 8977   2.264  14.686  12.803
 2382SOL     OW 8978   7.966   1.891   1.431
 2382SOL    HW1 8979   7.911   1.813   1.438
 2382SOL    HW2 8980   8.030   1.869   1.363
 2383SOL     OW 8981  14.163   5.957  14.041
 2383SOL    HW1 8982  14.254   5.929  14.045
 2383SOL    HW2 8983  14.144   5.966  13.948
 2384SOL     OW 8984   1.385  13.339   5.774
 2384SOL    HW1 8985   1.354  13.252   5.798
 2384SOL    HW2 8986   1.307  13.395   5.782
 2385SOL     OW 8987   1.734   7.769   9.420
 2385SOL    HW1 8988   1.797   7.697   9.418
 2385SOL    HW2 8989   1.714   7.782   9.513
 2386SOL     OW 8990   0.129  11.546  10.987
 2386SOL    HW1 8991   0.197  11.614  10.990
 2386SOL    HW2 8992   0.111  11.534  10.894
 2387SOL     OW 8993   6.247  11.818   4.653
 2387SOL    HW1 8994   6.294  11.742   4.688
 2387SOL    HW2 8995   6.170  11.826   4.710
 2388SOL     OW 8996   1.047   2.565   2.519
 2388SOL    HW1 8997   1.041   2.533   2.429
 2388SOL    HW2 8998   1.059   2.660   2.509
 2389SOL     OW 8999   8.981   6.609   5.489
 2389SOL    HW1 9000   9.075   6.612   5.505
 2389SOL    HW2 9001   8.959   6.516   5.493
 2390SOL     OW 9002  12.272   2.541   8.443
 2390SOL    HW1 9003  12.253   2.473   8.508
 2390SOL    HW2 9004  12.262   2.496   8.359
 2391SOL     OW 9005   0.830  10.275  12.190
 2391SOL    HW1 9006   0.759  10.302  12.247
 2391SOL    HW2 9007   0.863  10.356  12.152
 2392SOL     OW 9008   7.667   4.192  11.927
 2392SOL    HW1 9009   7.605   4.142  11.979
 2392SOL    HW2 9010   7.713   4.247  11.991
 2393SOL     OW 9011   4.451   1.437   2.872
 2393SOL    HW1 9012   4.402   1.493   2.933
 2393SOL    HW2 9013   4.384   1.399   2.815
 2394SOL     OW 9014   7.297   5.642   1.300
 2394SOL    HW1 9015   7.295   5.567   1.241
 2394SOL    HW2 9016   7.367   5.698   1.267
 2395SOL     OW 9017   9.445   4.365   7.497
 2395SOL    HW1 9018   9.488   4.299   7.442
 2395SOL    HW2 9019   9.438   4.323   7.583
 2396SOL     OW 9020   1.173   2.590   4.500
 2396SOL    HW1 9021   1.110   2.561   4.434
 2396SOL    HW2 9022   1.170   2.522   4.568
 2397SOL     OW 9023   0.787   9.844  13.318
 2397SOL    HW1 9024   0.709   9.880  13.276
 2397SOL    HW2 9025   0.764   9.839  13.411
 2398SOL     OW 9026   7.268  10.141   7.891
 2398SOL    HW1 9027   7.220  10.124   7.810
 2398SOL    HW2 9028   7.296  10.233   7.884
 2399SOL     OW 9029   8.781   2.571   3.030
 2399SOL    HW1 9030   8.729   2.608   2.959
 2399SOL    HW2 9031   8.783   2.639   3.097
 2400SOL     OW 9032   4.830   9.956   5.180
 2400SOL    HW1 9033   4.888  10.026   5.152
 2400SOL    HW2 9034   4.768   9.946   5.108
 2401SOL     OW 9035   7.735   1.375   7.159
 2401SOL    HW1 9036   7.665   1.366   7.095
 2401SOL    HW2 9037   7.735   1.293   7.207
 2402SOL     OW 9038   8.510  13.313   1.947
 2402SOL    HW1 9039   8.564  13.292   2.023
 2402SOL    HW2 9040   8.466  13.231   1.925
 2403SOL     OW 9041   1.197   8.031   2.956
 2403SOL    HW1 9042   1.168   7.946   2.989
 2403SOL    HW2 9043   1.253   8.066   3.025
 2404SOL     OW 9044  14.747   1.401   7.939
 2404SOL    HW1 9045  14.772   1.366   7.853
 2404SOL    HW2 9046  14.744   1.496   7.927
 2405SOL     OW 9047   5.064   4.818   9.951
 2405SOL    HW1 9048   5.137   4.830   9.890
 2405SOL    HW2 9049   5.079   4.884  10.019
 2406SOL     OW 9050   4.895   2.335   6.439
 2406SOL    HW1 9051   4.953   2.265   6.408
 2406SOL    HW2 9052   4.949   2.414   6.437
 2407SOL     OW 9053   4.413   7.931  14.759
 2407SOL    HW1 9054   4.394   8.009  14.707
 2407SOL    HW2 9055   4.430   7.963  14.847
 2408SOL     OW 9056   3.642   5.986   7.596
 2408SOL    HW1 9057   3.716   5.989   7.656
 2408SOL    HW2 9058   3.603   6.073   7.603
 2409SOL     OW 9059   2.793   1.392  10.713
 2409SOL    HW1 9060   2.748   1.355  10.636
 2409SOL    HW2 9061   2.758   1.481  10.720
 2410SOL     OW 9062   7.701   8.997  11.433
 2410SOL    HW1 9063   7.691   9.063  11.502
 2410SOL    HW2 9064   7.678   8.915  11.476
 2411SOL     OW 9065   7.153   1.008   5.949
 2411SOL    HW1 9066   7.201   1.012   6.031
 2411SOL    HW2 9067   7.138   1.099   5.924
 2412SOL     OW 9068  13.001   6.572   7.274
 2412SOL    HW1 9069  13.040   6.633   7.211
 2412SOL    HW2 9070  12.950   6.511   7.220
 2413SOL     OW 9071  14.259   9.110   5.525
 2413SOL    HW1 9072  14.284   9.184   5.581
 2413SOL    HW2 9073  14.257   9.035   5.585
 2414SOL     OW 9074   1.130   8.980  12.633
 2414SOL    HW1 9075   1.169   8.892  12.631
 2414SOL    HW2 9076   1.060   8.973  12.698
 2415SOL     OW 9077  10.050  14.000   6.812
 2415SOL    HW1 9078  10.025  14.093   6.810
 2415SOL    HW2 9079   9.969  13.953   6.793
 2416SOL     OW 9080  13.495   5.956   3.122
 2416SOL    HW1 9081  13.452   5.967   3.037
 2416SOL    HW2 9082  13.550   6.034   3.131
 2417SOL     OW 9083   2.845   4.726   9.777
 2417SOL    HW1 9084   2.818   4.636   9.794
 2417SOL    HW2 9085   2.901   4.720   9.699
 2418SOL     OW 9086   8.229   2.438   6.199
 2418SOL    HW1 9087   8.290   2.394   6.259
 2418SOL    HW2 9088   8.142   2.414   6.232
 2419SOL     OW 9089   1.644  12.464  14.066
 2419SOL    HW1 9090   1.627  12.524  14.138
 2419SOL    HW2 9091   1.695  12.393  14.105
 2420SOL     OW 9092  10.214  11.340   2.303
 2420SOL    HW1 9093  10.190  11.284   2.377
 2420SOL    HW2 9094  10.309  11.341   2.304
 2421SOL     OW 9095   9.738   7.087   5.752
 2421SOL    HW1 9096   9.675   7.141   5.704
 2421SOL    HW2 9097   9.751   7.010   5.696
 2422SOL     OW 9098  10.609  10.577  11.481
 2422SOL    HW1 9099  10.663  10.599  11.557
 2422SOL    HW2 9100  10.539  10.642  11.482
 2423SOL     OW 9101  13.461  11.685   0.356
 2423SOL    HW1 9102  13.514  11.644   0.425
 2423SOL    HW2 9103  13.397  11.738   0.404
 2424SOL     OW 9104   9.331   0.037   7.648
 2424SOL    HW1 9105   9.425   0.023   7.638
 2424SOL    HW2 9106   9.294   0.019   7.561
 2425SOL     OW 9107   1.397   5.670   4.087
 2425SOL    HW1 9108   1.397   5.574   4.090
 2425SOL    HW2 9109   1.312   5.692   4.049
 2426SOL     OW 9110   4.130   5.517   8.970
 2426SOL    HW1 9111   4.124   5.612   8.959
 2426SOL    HW2 9112   4.198   5.505   9.035
 2427SOL     OW 9113   9.511   6.451   3.207
 2427SOL    HW1 9114   9.530   6.498   3.125
 2427SOL    HW2 9115   9.428   6.488   3.237
 2428SOL     OW 9116  14.331   4.205   3.671
 2428SOL    HW1 9117  14.372   4.275   3.620
 2428SOL    HW2 9118  14.239   4.208   3.647
 2429SOL     OW 9119  12.239   6.040   2.031
 2429SOL    HW1 9120  12.323   6.071   2.066
 2429SOL    HW2 9121  12.221   5.961   2.081
 2430SOL     OW 9122   9.674   7.474   6.027
 2430SOL    HW1 9123   9.675   7.510   5.938
 2430SOL    HW2 9124   9.590   7.502   6.064
 2431SOL     OW 9125  10.708   8.598  10.510
 2431SOL    HW1 9126  10.714   8.626  10.601
 2431SOL    HW2 9127  10.704   8.680  10.460
 2432SOL     OW 9128   3.842  12.194   2.362
 2432SOL    HW1 9129   3.820  12.242   2.283
 2432SOL    HW2 9130   3.931  12.223   2.385
 2433SOL     OW 9131   3.701  13.096   2.751
 2433SOL    HW1 9132   3.744  13.137   2.675
 2433SOL    HW2 9133   3.730  13.005   2.748
 2434SOL     OW 9134   5.039   8.312   6.987
 2434SOL    HW1 9135   5.097   8.236   6.978
 2434SOL    HW2 9136   5.005   8.328   6.899
 2435SOL     OW 9137   8.987   8.014  14.330
 2435SOL    HW1 9138   9.007   8.089  14.273
 2435SOL    HW2 9139   8.891   8.012  14.333
 2436SOL     OW 9140   5.909   1.156   9.873
 2436SOL    HW1 9141   5.881   1.199   9.954
 2436SOL    HW2 9142   5.842   1.180   9.809
 2437SOL     OW 9143  12.656  13.016  13.242
 2437SOL    HW1 9144  12.588  12.950  13.227
 2437SOL    HW2 9145  12.711  12.978  13.310
 2438SOL     OW 9146   3.375  14.111  11.959
 2438SOL    HW1 9147   3.282  14.089  11.962
 2438SOL    HW2 9148   3.381  14.185  11.899
 2439SOL     OW 9149   7.542  11.567   9.472
 2439SOL    HW1 9150   7.504  11.591   9.557
 2439SOL    HW2 9151   7.632  11.601   9.476
 2440SOL     OW 9152   8.182  10.712  12.547
 2440SOL    HW1 9153   8.153  10.689  12.635
 2440SOL    HW2 9154   8.193  10.629  12.502
 2441SOL     OW 9155   4.974   2.624   1.991
 2441SOL    HW1 9156   4.901   2.677   1.961
 2441SOL    HW2 9157   4.941   2.534   1.987
 2442SOL     OW 9158   4.546  13.816   0.841
 2442SOL    HW1 9159   4.496  13.810   0.922
 2442SOL    HW2 9160   4.628  13.859   0.866
 2443SOL     OW 9161   1.296   1.762   1.427
 2443SOL    HW1 9162   1.385   1.741   1.400
 2443SOL    HW2 9163   1.241   1.702   1.376
 2444SOL     OW 9164   2.545  11.436   6.063
 2444SOL    HW1 9165   2.542  11.408   6.154
 2444SOL    HW2 9166   2.495  11.369   6.016
 2445SOL     OW 9167   7.686   7.643  12.345
 2445SOL    HW1 9168   7.598   7.620  12.376
 2445SOL    HW2 9169   7.695   7.597  12.262
 2446SOL     OW 9170   5.137   3.302  13.048
 2446SOL    HW1 9171   5.067   3.337  12.994
 2446SOL    HW2 9172   5.092   3.259  13.121
 2447SOL     OW 9173   0.978   3.491  10.747
 2447SOL    HW1 9174   0.992   3.406  10.788
 2447SOL    HW2 9175   1.066   3.521  10.723
 2448SOL     OW 9176   8.752  10.863   3.103
 2448SOL    HW1 9177   8.819  10.920   3.067
 2448SOL    HW2 9178   8.696  10.921   3.155
 2449SOL     OW 9179   8.131   5.735   4.254
 2449SOL    HW1 9180   8.073   5.659   4.252
 2449SOL    HW2 9181   8.151   5.753   4.162
 2450SOL     OW 9182   0.257   4.415  12.130
 2450SOL    HW1 9183   0.215   4.459  12.056
 2450SOL    HW2 9184   0.331   4.368  12.090
 2451SOL     OW 9185   5.676  13.463   6.785
 2451SOL    HW1 9186   5.756  13.508   6.757
 2451SOL    HW2 9187   5.688  13.373   6.756
 2452SOL     OW 9188  14.728   4.830   7.502
 2452SOL    HW1 9189  14.717   4.898   7.569
 2452SOL    HW2 9190  14.660   4.766   7.522
 2453SOL     OW 9191   4.625   8.904   2.663
 2453SOL    HW1 9192   4.694   8.849   2.625
 2453SOL    HW2 9193   4.548   8.846   2.666
 2454SOL     OW 9194   4.900   4.166  10.476
 2454SOL    HW1 9195   4.865   4.254  10.460
 2454SOL    HW2 9196   4.986   4.181  10.515
 2455SOL     OW 9197   1.294  14.822   7.529
 2455SOL    HW1 9198   1.341  14.821   7.446
 2455SOL    HW2 9199   1.216   0.003   7.512
 2456SOL     OW 9200   5.580  11.674   3.251
 2456SOL    HW1 9201   5.548  11.591   3.287
 2456SOL    HW2 9202   5.501  11.719   3.221
 2457SOL     OW 9203  12.349  10.076   9.646
 2457SOL    HW1 9204  12.417  10.016   9.676
 2457SOL    HW2 9205  12.270  10.049   9.693
 2458SOL     OW 9206   8.406   3.615  12.610
 2458SOL    HW1 9207   8.371   3.612  12.699
 2458SOL    HW2 9208   8.356   3.550  12.561
 2459SOL     OW 9209   2.835   0.357   2.099
 2459SOL    HW1 9210   2.886   0.335   2.177
 2459SOL    HW2 9211   2.899   0.397   2.040
 2460SOL     OW 9212  13.444   3.216   6.418
 2460SOL    HW1 9213  13.400   3.147   6.468
 2460SOL    HW2 9214  13.487   3.170   6.346
 2461SOL     OW 9215  12.472   2.505   9.535
 2461SOL    HW1 9216  12.553   2.553   9.551
 2461SOL    HW2 9217  12.492   2.416   9.561
 2462SOL     OW 9218  14.038  13.785   6.644
 2462SOL    HW1 9219  14.022  13.868   6.689
 2462SOL    HW2 9220  14.104  13.741   6.697
 2463SOL     OW 9221   1.683   3.597  13.292
 2463SOL    HW1 9222   1.706   3.679  13.248
 2463SOL    HW2 9223   1.765   3.547  13.295
 2464SOL     OW 9224   5.370   3.481   6.688
 2464SOL    HW1 9225   5.302   3.488   6.620
 2464SOL    HW2 9226   5.355   3.395   6.728
 2465SOL     OW 9227   5.297  13.811   7.756
 2465SOL    HW1 9228   5.374  13.867   7.768
 2465SOL    HW2 9229   5.241  13.860   7.697
 2466SOL     OW 9230   6.730  10.804   8.146
 2466SOL    HW1 9231   6.706  10.859   8.072
 2466SOL    HW2 9232   6.789  10.858   8.198
 2467SOL     OW 9233   2.506   6.629   9.475
 2467SOL    HW1 9234   2.531   6.608   9.385
 2467SOL    HW2 9235   2.539   6.556   9.527
 2468SOL     OW 9236   4.614   8.453  11.593
 2468SOL    HW1 9237   4.664   8.452  11.512
 2468SOL    HW2 9238   4.647   8.379  11.643
 2469SOL     OW 9239   1.193   1.302   2.867
 2469SOL    HW1 9240   1.163   1.215   2.841
 2469SOL    HW2 9241   1.288   1.293   2.875
 2470SOL     OW 9242   3.826   8.718  12.285
 2470SOL    HW1 9243   3.851   8.629  12.259
 2470SOL    HW2 9244   3.768   8.749  12.215
 2471SOL     OW 9245  10.688   0.279   0.444
 2471SOL    HW1 9246  10.662   0.366   0.413
 2471SOL    HW2 9247  10.698   0.227   0.364
 2472SOL     OW 9248   2.073   7.718  14.254
 2472SOL    HW1 9249   2.124   7.710  14.173
 2472SOL    HW2 9250   1.987   7.749  14.225
 2473SOL     OW 9251   7.295   6.936   1.121
 2473SOL    HW1 9252   7.350   7.009   1.090
 2473SOL    HW2 9253   7.357   6.869   1.150
 2474SOL     OW 9254   3.254  12.686   3.781
 2474SOL    HW1 9255   3.215  12.685   3.869
 2474SOL    HW2 9256   3.209  12.757   3.736
 2475SOL     OW 9257   6.406  13.110   9.803
 2475SOL    HW1 9258   6.373  13.148   9.722
 2475SOL    HW2 9259   6.453  13.181   9.846
 2476SOL     OW 9260  14.491   2.412   8.382
 2476SOL    HW1 9261  14.548   2.480   8.417
 2476SOL    HW2 9262  14.550   2.338   8.366
 2477SOL     OW 9263   8.569  10.846   0.098
 2477SOL    HW1 9264   8.578  10.816   0.188
 2477SOL    HW2 9265   8.476  10.867   0.089
 2478SOL     OW 9266   4.282  10.538   3.322
 2478SOL    HW1 9267   4.377  10.550   3.315
 2478SOL    HW2 9268   4.259  10.582   3.404
 2479SOL     OW 9269  11.909   1.142   8.968
 2479SOL    HW1 9270  11.901   1.046   8.966
 2479SOL    HW2 9271  11.849   1.172   8.900
 2480SOL     OW 9272   2.508  12.169  10.740
 2480SOL    HW1 9273   2.445  12.207  10.802
 2480SOL    HW2 9274   2.593  12.181  10.782
 2481SOL     OW 9275   2.958  12.279  10.147
 2481SOL    HW1 9276   3.024  12.291  10.079
 2481SOL    HW2 9277   3.003  12.231  10.216
 2482SOL     OW 9278  10.119   4.335   4.594
 2482SOL    HW1 9279  10.049   4.399   4.611
 2482SOL    HW2 9280  10.087   4.283   4.521
 2483SOL     OW 9281   4.926   6.984  11.330
 2483SOL    HW1 9282   4.837   6.957  11.353
 2483SOL    HW2 9283   4.916   7.043  11.256
 2484SOL     OW 9284   4.508   4.794   4.001
 2484SOL    HW1 9285   4.538   4.861   4.062
 2484SOL    HW2 9286   4.560   4.717   4.022
 2485SOL     OW 9287  10.905   4.113   6.515
 2485SOL    HW1 9288  10.974   4.117   6.449
 2485SOL    HW2 9289  10.891   4.019   6.529
 2486SOL     OW 9290   1.463   6.688  12.517
 2486SOL    HW1 9291   1.535   6.642  12.473
 2486SOL    HW2 9292   1.458   6.646  12.603
 2487SOL     OW 9293  13.020   2.043   4.831
 2487SOL    HW1 9294  13.088   2.104   4.862
 2487SOL    HW2 9295  13.069   1.973   4.789
 2488SOL     OW 9296   5.685   0.793  10.188
 2488SOL    HW1 9297   5.775   0.825  10.179
 2488SOL    HW2 9298   5.642   0.819  10.106
 2489SOL     OW 9299   5.125   1.965   1.493
 2489SOL    HW1 9300   5.078   1.995   1.572
 2489SOL    HW2 9301   5.211   1.938   1.525
 2490SOL     OW 9302   2.818   7.934   7.041
 2490SOL    HW1 9303   2.839   7.863   7.102
 2490SOL    HW2 9304   2.903   7.965   7.010
 2491SOL     OW 9305   2.522  14.027   1.633
 2491SOL    HW1 9306   2.606  14.066   1.659
 2491SOL    HW2 9307   2.505  14.062   1.546
 2492SOL     OW 9308   8.674   5.966   8.834
 2492SOL    HW1 9309   8.645   6.023   8.763
 2492SOL    HW2 9310   8.630   6.000   8.912
 2493SOL     OW 9311  13.626   3.121   0.200
 2493SOL    HW1 9312  13.630   3.216   0.187
 2493SOL    HW2 9313  13.612   3.111   0.294
 2494SOL     OW 9314  11.203   3.127   4.056
 2494SOL    HW1 9315  11.245   3.209   4.029
 2494SOL    HW2 9316  11.159   3.148   4.138
 2495SOL     OW 9317   2.667  14.827  11.248
 2495SOL    HW1 9318   2.732  14.791  11.308
 2495SOL    HW2 9319   2.614  14.752  11.223
 2496SOL     OW 9320  14.425  12.133  14.636
 2496SOL    HW1 9321  14.478  12.083  14.574
 2496SOL    HW2 9322  14.421  12.078  14.714
 2497SOL     OW 9323  11.621  12.469   0.797
 2497SOL    HW1 9324  11.577  12.385   0.782
 2497SOL    HW2 9325  11.714  12.449   0.787
 2498SOL     OW 9326   2.219  13.321   1.496
 2498SOL    HW1 9327   2.268  13.402   1.512
 2498SOL    HW2 9328   2.127  13.347   1.505
 2499SOL     OW 9329   4.401   0.257   0.822
 2499SOL    HW1 9330   4.349   0.270   0.742
 2499SOL    HW2 9331   4.491   0.275   0.795
 2500SOL     OW 9332   2.985   6.520  13.051
 2500SOL    HW1 9333   2.897   6.495  13.022
 2500SOL    HW2 9334   2.979   6.613  13.070
 2501SOL     OW 9335   6.845   6.728   6.191
 2501SOL    HW1 9336   6.755   6.701   6.212
 2501SOL    HW2 9337   6.896   6.647   6.196
 2502SOL     OW 9338   6.105   9.783   8.979
 2502SOL    HW1 9339   6.066   9.855   8.929
 2502SOL    HW2 9340   6.141   9.824   9.057
 2503SOL     OW 9341  14.118   0.231   0.086
 2503SOL    HW1 9342  14.140   0.218  14.866
 2503SOL    HW2 9343  14.184   0.182   0.134
 2504SOL     OW 9344   8.595  10.716  10.624
 2504SOL    HW1 9345   8.651  10.649  10.662
 2504SOL    HW2 9346   8.532  10.736  10.693
 2505SOL     OW 9347   0.259  10.806   0.240
 2505SOL    HW1 9348   0.271  10.901   0.247
 2505SOL    HW2 9349   0.303  10.782   0.159
 2506SOL     OW 9350  14.409   0.068  11.392
 2506SOL    HW1 9351  14.423   0.035  11.303
 2506SOL    HW2 9352  14.475   0.136  11.403
 2507SOL     OW 9353  11.502   1.055   4.802
 2507SOL    HW1 9354  11.548   1.006   4.734
 2507SOL    HW2 9355  11.568   1.113   4.839
 2508SOL     OW 9356   6.444  10.284   4.996
 2508SOL    HW1 9357   6.450  10.189   4.993
 2508SOL    HW2 9358   6.427  10.304   5.088
 2509SOL     OW 9359   1.707  12.468   7.993
 2509SOL    HW1 9360   1.703  12.389   8.046
 2509SOL    HW2 9361   1.683  12.440   7.904
 2510SOL     OW 9362   1.114  12.065   9.755
 2510SOL    HW1 9363   1.072  12.150   9.767
 2510SOL    HW2 9364   1.092  12.041   9.665
 2511SOL     OW 9365  10.339  13.789   8.278
 2511SOL    HW1 9366  10.320  13.803   8.371
 2511SOL    HW2 9367  10.375  13.872   8.248
 2512SOL     OW 9368   1.783  11.697  11.417
 2512SOL    HW1 9369   1.714  11.633  11.435
 2512SOL    HW2 9370   1.757  11.775  11.465
 2513SOL     OW 9371  11.240   5.717  11.625
 2513SOL    HW1 9372  11.311   5.728  11.562
 2513SOL    HW2 9373  11.241   5.799  11.676
 2514SOL     OW 9374  12.908   7.173   0.376
 2514SOL    HW1 9375  12.882   7.130   0.457
 2514SOL    HW2 9376  12.904   7.267   0.397
 2515SOL     OW 9377   4.455   3.396  11.435
 2515SOL    HW1 9378   4.498   3.481  11.428
 2515SOL    HW2 9379   4.476   3.366  11.523
 2516SOL     OW 9380   9.901  12.972  10.813
 2516SOL    HW1 9381   9.915  12.882  10.783
 2516SOL    HW2 9382   9.936  13.027  10.743
 2517SOL     OW 9383   9.955   6.995   2.314
 2517SOL    HW1 9384  10.043   6.987   2.350
 2517SOL    HW2 9385   9.904   6.930   2.362
 2518SOL     OW 9386  12.111  14.519  12.945
 2518SOL    HW1 9387  12.120  14.611  12.922
 2518SOL    HW2 9388  12.041  14.516  13.010
 2519SOL     OW 9389   2.818   9.485  10.845
 2519SOL    HW1 9390   2.799   9.546  10.774
 2519SOL    HW2 9391   2.913   9.489  10.855
 2520SOL     OW 9392   1.039   4.390   5.087
 2520SOL    HW1 9393   1.082   4.453   5.030
 2520SOL    HW2 9394   0.991   4.332   5.028
 2521SOL     OW 9395  12.933   1.038   4.817
 2521SOL    HW1 9396  12.898   0.982   4.887
 2521SOL    HW2 9397  13.026   1.017   4.814
 2522SOL     OW 9398  14.821   4.619   1.430
 2522SOL    HW1 9399   0.030   4.623   1.380
 2522SOL    HW2 9400  14.826   4.537   1.479
 2523SOL     OW 9401   8.178   7.318   7.764
 2523SOL    HW1 9402   8.137   7.349   7.845
 2523SOL    HW2 9403   8.186   7.223   7.775
 2524SOL     OW 9404  12.109   1.052   0.430
 2524SOL    HW1 9405  12.148   1.059   0.516
 2524SOL    HW2 9406  12.048   0.978   0.437
 2525SOL     OW 9407   9.634   5.098   9.269
 2525SOL    HW1 9408   9.562   5.085   9.330
 2525SOL    HW2 9409   9.641   5.015   9.221
 2526SOL     OW 9410   2.602   7.201  13.394
 2526SOL    HW1 9411   2.572   7.140  13.327
 2526SOL    HW2 9412   2.563   7.169  13.475
 2527SOL     OW 9413   2.269   0.054  12.448
 2527SOL    HW1 9414   2.323   0.003  12.508
 2527SOL    HW2 9415   2.330   0.119  12.411
 2528SOL     OW 9416   1.924  10.041   7.080
 2528SOL    HW1 9417   2.017  10.021   7.068
 2528SOL    HW2 9418   1.920  10.136   7.086
 2529SOL     OW 9419   3.435  10.630   7.070
 2529SOL    HW1 9420   3.391  10.664   7.148
 2529SOL    HW2 9421   3.479  10.707   7.032
 2530SOL     OW 9422   2.077  13.481  11.158
 2530SOL    HW1 9423   1.992  13.442  11.180
 2530SOL    HW2 9424   2.059  13.537  11.082
 2531SOL     OW 9425  14.618   3.763  11.776
 2531SOL    HW1 9426  14.613   3.670  11.796
 2531SOL    HW2 9427  14.530   3.787  11.747
 2532SOL     OW 9428   2.110   2.950  12.914
 2532SOL    HW1 9429   2.125   2.895  12.991
 2532SOL    HW2 9430   2.197   2.960  12.875
 2533SOL     OW 9431   2.103   7.396   3.309
 2533SOL    HW1 9432   2.055   7.439   3.381
 2533SOL    HW2 9433   2.034   7.363   3.251
 2534SOL     OW 9434   2.113   8.217   3.223
 2534SOL    HW1 9435   2.158   8.154   3.167
 2534SOL    HW2 9436   2.180   8.282   3.244
 2535SOL     OW 9437  13.875   4.097   9.694
 2535SOL    HW1 9438  13.800   4.155   9.693
 2535SOL    HW2 9439  13.868   4.047   9.612
 2536SOL     OW 9440   7.297   0.157  13.831
 2536SOL    HW1 9441   7.204   0.140  13.843
 2536SOL    HW2 9442   7.303   0.249  13.807
 2537SOL     OW 9443   7.344   8.387  10.248
 2537SOL    HW1 9444   7.329   8.335  10.169
 2537SOL    HW2 9445   7.343   8.324  10.319
 2538SOL     OW 9446  14.428   6.210  12.065
 2538SOL    HW1 9447  14.479   6.131  12.045
 2538SOL    HW2 9448  14.482   6.259  12.126
 2539SOL     OW 9449  13.547   3.974   3.111
 2539SOL    HW1 9450  13.612   3.911   3.142
 2539SOL    HW2 9451  13.584   4.009   3.030
 2540SOL     OW 9452   6.373   0.867   0.846
 2540SOL    HW1 9453   6.409   0.841   0.931
 2540SOL    HW2 9454   6.362   0.784   0.799
 2541SOL     OW 9455   5.915  10.759   0.895
 2541SOL    HW1 9456   5.827  10.740   0.862
 2541SOL    HW2 9457   5.974  10.728   0.827
 2542SOL     OW 9458  10.427   2.971  10.386
 2542SOL    HW1 9459  10.374   2.914  10.442
 2542SOL    HW2 9460  10.406   3.060  10.417
 2543SOL     OW 9461   1.831   9.790   3.581
 2543SOL    HW1 9462   1.862   9.705   3.613
 2543SOL    HW2 9463   1.794   9.833   3.658
 2544SOL     OW 9464   4.223   6.040   4.391
 2544SOL    HW1 9465   4.294   6.035   4.455
 2544SOL    HW2 9466   4.188   6.128   4.400
 2545SOL     OW 9467  12.654  11.029   7.503
 2545SOL    HW1 9468  12.722  11.059   7.563
 2545SOL    HW2 9469  12.615  11.110   7.469
 2546SOL     OW 9470   6.300   9.615  13.809
 2546SOL    HW1 9471   6.351   9.691  13.834
 2546SOL    HW2 9472   6.220   9.621  13.861
 2547SOL     OW 9473   9.256  11.149   4.734
 2547SOL    HW1 9474   9.178  11.095   4.737
 2547SOL    HW2 9475   9.271  11.176   4.824
 2548SOL     OW 9476  10.937   2.239   2.005
 2548SOL    HW1 9477  10.981   2.293   1.939
 2548SOL    HW2 9478  11.008   2.196   2.053
 2549SOL     OW 9479   1.269   3.202  13.651
 2549SOL    HW1 9480   1.283   3.281  13.600
 2549SOL    HW2 9481   1.271   3.131  13.587
 2550SOL     OW 9482  11.559   7.070   2.271
 2550SOL    HW1 9483  11.489   7.075   2.336
 2550SOL    HW2 9484  11.602   7.155   2.275
 2551SOL     OW 9485   4.040   6.503  12.709
 2551SOL    HW1 9486   4.003   6.483  12.795
 2551SOL    HW2 9487   4.134   6.506  12.723
 2552SOL     OW 9488   6.976   3.560  11.141
 2552SOL    HW1 9489   7.021   3.639  11.111
 2552SOL    HW2 9490   6.883   3.581  11.134
 2553SOL     OW 9491  10.172   6.949  10.201
 2553SOL    HW1 9492  10.094   6.935  10.148
 2553SOL    HW2 9493  10.187   6.866  10.246
 2554SOL     OW 9494  11.294   5.881   6.798
 2554SOL    HW1 9495  11.289   5.822   6.874
 2554SOL    HW2 9496  11.388   5.900   6.789
 2555SOL     OW 9497  13.904   4.922  12.317
 2555SOL    HW1 9498  13.940   4.884  12.397
 2555SOL    HW2 9499  13.916   5.016  12.329
 2556SOL     OW 9500   2.934   2.215   9.911
 2556SOL    HW1 9501   2.892   2.277   9.971
 2556SOL    HW2 9502   2.889   2.228   9.828
 2557SOL     OW 9503   9.459   7.818   7.156
 2557SOL    HW1 9504   9.464   7.757   7.229
 2557SOL    HW2 9505   9.369   7.853   7.160
 2558SOL     OW 9506   4.845   0.515  13.967
 2558SOL    HW1 9507   4.819   0.489  14.055
 2558SOL    HW2 9508   4.805   0.602  13.955
 2559SOL     OW 9509   9.785   4.695   9.615
 2559SOL    HW1 9510   9.791   4.781   9.574
 2559SOL    HW2 9511   9.876   4.669   9.628
 2560SOL     OW 9512   7.212   5.880   5.852
 2560SOL    HW1 9513   7.172   5.960   5.817
 2560SOL    HW2 9514   7.295   5.908   5.889
 2561SOL     OW 9515  12.774   3.246   1.756
 2561SOL    HW1 9516  12.847   3.251   1.695
 2561SOL    HW2 9517  12.748   3.154   1.757
 2562SOL     OW 9518   3.985  13.637   6.149
 2562SOL    HW1 9519   3.959  13.546   6.167
 2562SOL    HW2 9520   3.985  13.644   6.054
 2563SOL     OW 9521  11.319   5.456   2.562
 2563SOL    HW1 9522  11.371   5.386   2.523
 2563SOL    HW2 9523  11.379   5.498   2.624
 2564SOL     OW 9524   0.929  13.691   2.936
 2564SOL    HW1 9525   0.883  13.711   2.854
 2564SOL    HW2 9526   0.864  13.648   2.990
 2565SOL     OW 9527   9.195  11.016   2.448
 2565SOL    HW1 9528   9.228  11.074   2.516
 2565SOL    HW2 9529   9.101  11.009   2.464
 2566SOL     OW 9530   7.290   3.150  11.847
 2566SOL    HW1 9531   7.324   3.224  11.896
 2566SOL    HW2 9532   7.221   3.187  11.792
 2567SOL     OW 9533  12.142  13.652  10.100
 2567SOL    HW1 9534  12.168  13.695  10.182
 2567SOL    HW2 9535  12.101  13.722  10.048
 2568SOL     OW 9536   0.844  14.832   7.647
 2568SOL    HW1 9537   0.787  14.755   7.649
 2568SOL    HW2 9538   0.887  14.832   7.732
 2569SOL     OW 9539  14.208   6.817   0.929
 2569SOL    HW1 9540  14.276   6.773   0.980
 2569SOL    HW2 9541  14.184   6.893   0.982
 2570SOL     OW 9542   1.815  11.646   9.942
 2570SOL    HW1 9543   1.772  11.692   9.870
 2570SOL    HW2 9544   1.754  11.577   9.967
 2571SOL     OW 9545  11.356  12.709  14.535
 2571SOL    HW1 9546  11.434  12.704  14.480
 2571SOL    HW2 9547  11.286  12.669  14.482
 2572SOL     OW 9548   3.298   1.139  13.544
 2572SOL    HW1 9549   3.321   1.160  13.635
 2572SOL    HW2 9550   3.305   1.222  13.498
 2573SOL     OW 9551   1.707   7.942   8.822
 2573SOL    HW1 9552   1.726   7.895   8.903
 2573SOL    HW2 9553   1.686   8.031   8.850
 2574SOL     OW 9554   7.988   1.749   2.205
 2574SOL    HW1 9555   7.990   1.671   2.149
 2574SOL    HW2 9556   8.018   1.717   2.290
 2575SOL     OW 9557   0.529   4.543   6.613
 2575SOL    HW1 9558   0.468   4.563   6.542
 2575SOL    HW2 9559   0.513   4.611   6.678
 2576SOL     OW 9560  12.271   4.003   8.177
 2576SOL    HW1 9561  12.343   4.065   8.188
 2576SOL    HW2 9562  12.203   4.035   8.237
 2577SOL     OW 9563   7.445   0.219  11.964
 2577SOL    HW1 9564   7.360   0.257  11.943
 2577SOL    HW2 9565   7.442   0.131  11.925
 2578SOL     OW 9566   1.883   0.456  10.394
 2578SOL    HW1 9567   1.891   0.492  10.306
 2578SOL    HW2 9568   1.807   0.398  10.389
 2579SOL     OW 9569   3.352   4.797   8.532
 2579SOL    HW1 9570   3.323   4.827   8.446
 2579SOL    HW2 9571   3.413   4.865   8.561
 2580SOL     OW 9572  12.748  10.243   1.021
 2580SOL    HW1 9573  12.688  10.314   1.043
 2580SOL    HW2 9574  12.728  10.222   0.930
 2581SOL     OW 9575   7.350   8.797  13.591
 2581SOL    HW1 9576   7.288   8.869  13.598
 2581SOL    HW2 9577   7.311   8.738  13.527
 2582SOL     OW 9578   9.537   3.755   5.049
 2582SOL    HW1 9579   9.597   3.805   5.105
 2582SOL    HW2 9580   9.497   3.820   4.992
 2583SOL     OW 9581   1.554  11.973   1.664
 2583SOL    HW1 9582   1.515  11.916   1.597
 2583SOL    HW2 9583   1.543  12.061   1.629
 2584SOL     OW 9584   7.099   2.325   2.321
 2584SOL    HW1 9585   7.018   2.286   2.352
 2584SOL    HW2 9586   7.109   2.405   2.372
 2585SOL     OW 9587  11.864  14.452  11.486
 2585SOL    HW1 9588  11.826  14.393  11.552
 2585SOL    HW2 9589  11.879  14.396  11.410
 2586SOL     OW 9590   5.816   4.965   1.943
 2586SOL    HW1 9591   5.870   5.043   1.937
 2586SOL    HW2 9592   5.763   4.967   1.863
 2587SOL     OW 9593  12.481   8.194  12.933
 2587SOL    HW1 9594  12.517   8.120  12.981
 2587SOL    HW2 9595  12.553   8.225  12.878
 2588SOL     OW 9596  11.964  10.931  13.552
 2588SOL    HW1 9597  11.967  11.019  13.513
 2588SOL    HW2 9598  12.053  10.916  13.584
 2589SOL     OW 9599   5.383   3.853   2.101
 2589SOL    HW1 9600   5.453   3.907   2.066
 2589SOL    HW2 9601   5.309   3.914   2.113
 2590SOL     OW 9602  11.017   1.670  10.244
 2590SOL    HW1 9603  11.102   1.645  10.281
 2590SOL    HW2 9604  10.987   1.593  10.198
 2591SOL     OW 9605   7.425  14.510   9.237
 2591SOL    HW1 9606   7.485  14.526   9.165
 2591SOL    HW2 9607   7.349  14.469   9.197
 2592SOL     OW 9608   4.633  14.141   9.703
 2592SOL    HW1 9609   4.660  14.152   9.794
 2592SOL    HW2 9610   4.714  14.130   9.654
 2593SOL     OW 9611   6.863  12.586   4.321
 2593SOL    HW1 9612   6.871  12.669   4.368
 2593SOL    HW2 9613   6.769  12.577   4.305
 2594SOL     OW 9614   0.221   3.682   1.029
 2594SOL    HW1 9615   0.272   3.725   0.961
 2594SOL    HW2 9616   0.255   3.718   1.111
 2595SOL     OW 9617   8.922   8.945   2.071
 2595SOL    HW1 9618   8.915   8.986   1.985
 2595SOL    HW2 9619   8.956   8.857   2.053
 2596SOL     OW 9620   5.490  14.870   9.554
 2596SOL    HW1 9621   5.447  14.785   9.548
 2596SOL    HW2 9622   5.521   0.003   9.645
 2597SOL     OW 9623   7.059   2.234   9.005
 2597SOL    HW1 9624   7.152   2.254   9.011
 2597SOL    HW2 9625   7.020   2.280   9.080
 2598SOL     OW 9626  13.429  11.441   3.002
 2598SOL    HW1 9627  13.388  11.355   3.009
 2598SOL    HW2 9628  13.398  11.475   2.918
 2599SOL     OW 9629  13.673   0.749   4.812
 2599SOL    HW1 9630  13.726   0.730   4.890
 2599SOL    HW2 9631  13.660   0.844   4.815
 2600SOL     OW 9632   9.136   5.087  10.786
 2600SOL    HW1 9633   9.178   5.135  10.715
 2600SOL    HW2 9634   9.188   5.109  10.864
 2601SOL     OW 9635  13.515  14.160  11.075
 2601SOL    HW1 9636  13.551  14.110  11.148
 2601SOL    HW2 9637  13.423  14.171  11.097
 2602SOL     OW 9638  12.204  14.163   6.451
 2602SOL    HW1 9639  12.297  14.174   6.470
 2602SOL    HW2 9640  12.195  14.071   6.427
 2603SOL     OW 9641   5.652   2.586   8.162
 2603SOL    HW1 9642   5.643   2.641   8.084
 2603SOL    HW2 9643   5.576   2.609   8.216
 2604SOL     OW 9644   7.007   4.606   4.809
 2604SOL    HW1 9645   7.018   4.685   4.757
 2604SOL    HW2 9646   7.041   4.630   4.896
 2605SOL     OW 9647  14.523   2.310  13.517
 2605SOL    HW1 9648  14.603   2.259  13.509
 2605SOL    HW2 9649  14.494   2.296  13.607
 2606SOL     OW 9650   1.063  13.222   4.992
 2606SOL    HW1 9651   1.126  13.177   4.935
 2606SOL    HW2 9652   0.985  13.231   4.938
 2607SOL     OW 9653   9.595   9.574  13.536
 2607SOL    HW1 9654   9.589   9.510  13.464
 2607SOL    HW2 9655   9.519   9.630  13.525
 2608SOL     OW 9656   0.525   3.438  14.364
 2608SOL    HW1 9657   0.515   3.343  14.368
 2608SOL    HW2 9658   0.588   3.453  14.294
 2609SOL     OW 9659  13.992  13.591   0.826
 2609SOL    HW1 9660  14.042  13.665   0.861
 2609SOL    HW2 9661  13.907  13.597   0.869
 2610SOL     OW 9662   4.265  12.271   0.521
 2610SOL    HW1 9663   4.234  12.202   0.462
 2610SOL    HW2 9664   4.285  12.225   0.602
 2611SOL     OW 9665   7.695   1.641  10.601
 2611SOL    HW1 9666   7.651   1.557  10.597
 2611SOL    HW2 9667   7.669   1.686  10.521
 2612SOL     OW 9668   8.512  12.837   0.102
 2612SOL    HW1 9669   8.507  12.927   0.070
 2612SOL    HW2 9670   8.530  12.845   0.195
 2613SOL     OW 9671   6.708   0.692  14.023
 2613SOL    HW1 9672   6.785   0.665  14.073
 2613SOL    HW2 9673   6.633   0.667  14.078
 2614SOL     OW 9674   1.200   1.078   0.527
 2614SOL    HW1 9675   1.168   1.163   0.497
 2614SOL    HW2 9676   1.127   1.018   0.511
 2615SOL     OW 9677  12.982   0.035   3.879
 2615SOL    HW1 9678  13.077   0.021   3.875
 2615SOL    HW2 9679  12.944  14.821   3.868
 2616SOL     OW 9680   0.207  10.586   2.916
 2616SOL    HW1 9681   0.263  10.510   2.927
 2616SOL    HW2 9682   0.175  10.606   3.004
 2617SOL     OW 9683   7.324   7.693   9.535
 2617SOL    HW1 9684   7.232   7.675   9.512
 2617SOL    HW2 9685   7.319   7.761   9.602
 2618SOL     OW 9686   7.155   4.776   3.549
 2618SOL    HW1 9687   7.118   4.785   3.461
 2618SOL    HW2 9688   7.222   4.708   3.540
 2619SOL     OW 9689  14.723   1.380  12.018
 2619SOL    HW1 9690  14.752   1.454  12.071
 2619SOL    HW2 9691  14.760   1.303  12.063
 2620SOL     OW 9692  11.478  11.075   7.546
 2620SOL    HW1 9693  11.462  11.168   7.562
 2620SOL    HW2 9694  11.458  11.063   7.453
 2621SOL     OW 9695   3.636  13.132   2.149
 2621SOL    HW1 9696   3.584  13.114   2.228
 2621SOL    HW2 9697   3.639  13.228   2.145
 2622SOL     OW 9698   8.178  11.791  14.657
 2622SOL    HW1 9699   8.265  11.782  14.620
 2622SOL    HW2 9700   8.177  11.877  14.697
 2623SOL     OW 9701  10.642  13.759  13.310
 2623SOL    HW1 9702  10.706  13.826  13.335
 2623SOL    HW2 9703  10.687  13.676  13.327
 2624SOL     OW 9704  11.070   0.877   3.311
 2624SOL    HW1 9705  11.121   0.941   3.261
 2624SOL    HW2 9706  11.001   0.930   3.352
 2625SOL     OW 9707   9.526  11.310   4.143
 2625SOL    HW1 9708   9.601  11.253   4.129
 2625SOL    HW2 9709   9.562  11.399   4.140
 2626SOL     OW 9710  12.740  12.894   4.561
 2626SOL    HW1 9711  12.697  12.816   4.525
 2626SOL    HW2 9712  12.699  12.968   4.516
 2627SOL     OW 9713   7.894  10.727   9.750
 2627SOL    HW1 9714   7.899  10.795   9.683
 2627SOL    HW2 9715   7.885  10.646   9.700
 2628SOL     OW 9716  10.744   5.567  10.522
 2628SOL    HW1 9717  10.651   5.568  10.500
 2628SOL    HW2 9718  10.763   5.476  10.544
 2629SOL     OW 9719   6.824   5.278   6.399
 2629SOL    HW1 9720   6.887   5.236   6.457
 2629SOL    HW2 9721   6.870   5.355   6.365
 2630SOL     OW 9722   8.456   4.181  12.439
 2630SOL    HW1 9723   8.509   4.102  12.445
 2630SOL    HW2 9724   8.422   4.194  12.528
 2631SOL     OW 9725   2.896  11.605   9.042
 2631SOL    HW1 9726   2.821  11.566   9.086
 2631SOL    HW2 9727   2.964  11.538   9.045
 2632SOL     OW 9728  11.890   1.565   8.212
 2632SOL    HW1 9729  11.969   1.586   8.162
 2632SOL    HW2 9730  11.921   1.519   8.289
 2633SOL     OW 9731   3.411   7.143   5.466
 2633SOL    HW1 9732   3.357   7.091   5.525
 2633SOL    HW2 9733   3.494   7.153   5.513
 2634SOL     OW 9734  10.123  13.929   4.968
 2634SOL    HW1 9735  10.127  13.912   5.062
 2634SOL    HW2 9736  10.061  14.002   4.959
 2635SOL     OW 9737   6.299   5.198   5.224
 2635SOL    HW1 9738   6.301   5.262   5.295
 2635SOL    HW2 9739   6.391   5.183   5.203
 2636SOL     OW 9740  10.597   0.840  11.562
 2636SOL    HW1 9741  10.661   0.813  11.628
 2636SOL    HW2 9742  10.541   0.764  11.549
 2637SOL     OW 9743   5.585   9.455   6.106
 2637SOL    HW1 9744   5.646   9.426   6.173
 2637SOL    HW2 9745   5.592   9.389   6.037
 2638SOL     OW 9746   7.107  11.533  13.708
 2638SOL    HW1 9747   7.074  11.520  13.619
 2638SOL    HW2 9748   7.107  11.627  13.720
 2639SOL     OW 9749   6.561   4.728   7.154
 2639SOL    HW1 9750   6.597   4.649   7.195
 2639SOL    HW2 9751   6.466   4.720   7.166
 2640SOL     OW 9752   9.579  10.453   9.053
 2640SOL    HW1 9753   9.551  10.369   9.089
 2640SOL    HW2 9754   9.512  10.515   9.082
 2641SOL     OW 9755   7.978   8.357  12.970
 2641SOL    HW1 9756   8.017   8.402  13.045
 2641SOL    HW2 9757   8.046   8.298  12.939
 2642SOL     OW 9758   9.851   4.600   7.556
 2642SOL    HW1 9759   9.840   4.567   7.467
 2642SOL    HW2 9760   9.833   4.524   7.612
 2643SOL     OW 9761   2.558  12.635  14.349
 2643SOL    HW1 9762   2.542  12.551  14.393
 2643SOL    HW2 9763   2.576  12.696  14.421
 2644SOL     OW 9764  11.627  14.408   2.893
 2644SOL    HW1 9765  11.566  14.442   2.959
 2644SOL    HW2 9766  11.581  14.335   2.852
 2645SOL     OW 9767   5.442  12.709  11.341
 2645SOL    HW1 9768   5.364  12.705  11.397
 2645SOL    HW2 9769   5.492  12.630  11.364
 2646SOL     OW 9770   2.488   8.464   0.064
 2646SOL    HW1 9771   2.576   8.473   0.101
 2646SOL    HW2 9772   2.478   8.538   0.005
 2647SOL     OW 9773   6.170  12.340  12.758
 2647SOL    HW1 9774   6.157  12.334  12.663
 2647SOL    HW2 9775   6.096  12.393  12.789
 2648SOL     OW 9776  11.052  10.299   1.827
 2648SOL    HW1 9777  11.145  10.278   1.817
 2648SOL    HW2 9778  11.007  10.239   1.767
 2649SOL     OW 9779  13.044  14.655  12.762
 2649SOL    HW1 9780  13.116  14.619  12.711
 2649SOL    HW2 9781  13.016  14.584  12.819
 2650SOL     OW 9782  13.255   1.031  10.568
 2650SOL    HW1 9783  13.242   0.939  10.545
 2650SOL    HW2 9784  13.253   1.078  10.485
 2651SOL     OW 9785  13.210  11.049   4.903
 2651SOL    HW1 9786  13.211  11.139   4.934
 2651SOL    HW2 9787  13.276  11.046   4.834
 2652SOL     OW 9788  14.643   6.593   2.291
 2652SOL    HW1 9789  14.603   6.587   2.204
 2652SOL    HW2 9790  14.583   6.648   2.341
 2653SOL     OW 9791   6.088  14.008   8.722
 2653SOL    HW1 9792   6.136  14.081   8.686
 2653SOL    HW2 9793   6.058  13.958   8.646
 2654SOL     OW 9794   2.858  13.498   1.314
 2654SOL    HW1 9795   2.916  13.442   1.366
 2654SOL    HW2 9796   2.916  13.562   1.274
 2655SOL     OW 9797   6.238  11.732   5.226
 2655SOL    HW1 9798   6.245  11.805   5.164
 2655SOL    HW2 9799   6.226  11.774   5.311
 2656SOL     OW 9800   6.853   1.066  10.820
 2656SOL    HW1 9801   6.798   1.144  10.830
 2656SOL    HW2 9802   6.933   1.087  10.870
 2657SOL     OW 9803  12.910   4.923   4.115
 2657SOL    HW1 9804  12.838   4.877   4.071
 2657SOL    HW2 9805  12.880   4.932   4.206
 2658SOL     OW 9806   3.739  12.262  12.030
 2658SOL    HW1 9807   3.744  12.267  12.125
 2658SOL    HW2 9808   3.794  12.334  12.000
 2659SOL     OW 9809   3.045   5.869  13.660
 2659SOL    HW1 9810   3.000   5.787  13.683
 2659SOL    HW2 9811   3.059   5.913  13.744
 2660SOL     OW 9812   5.927   7.952   0.026
 2660SOL    HW1 9813   5.868   7.941  14.825
 2660SOL    HW2 9814   5.907   8.039   0.061
 2661SOL     OW 9815   8.747  11.797   0.567
 2661SOL    HW1 9816   8.842  11.786   0.561
 2661SOL    HW2 9817   8.712  11.735   0.503
 2662SOL     OW 9818   4.895   0.970   1.391
 2662SOL    HW1 9819   4.838   0.955   1.315
 2662SOL    HW2 9820   4.867   1.055   1.425
 2663SOL     OW 9821   3.627  13.078   7.055
 2663SOL    HW1 9822   3.714  13.116   7.043
 2663SOL    HW2 9823   3.638  13.013   7.125
 2664SOL     OW 9824   2.501   5.237   9.963
 2664SOL    HW1 9825   2.567   5.169   9.980
 2664SOL    HW2 9826   2.525   5.272   9.877
 2665SOL     OW 9827   2.937   6.648   6.723
 2665SOL    HW1 9828   3.007   6.615   6.779
 2665SOL    HW2 9829   2.874   6.576   6.719
 2666SOL     OW 9830   3.164   7.511  10.946
 2666SOL    HW1 9831   3.103   7.556  10.888
 2666SOL    HW2 9832   3.189   7.432  10.897
 2667SOL     OW 9833  14.058   5.262   6.461
 2667SOL    HW1 9834  14.043   5.289   6.552
 2667SOL    HW2 9835  14.002   5.321   6.410
 2668SOL     OW 9836  13.290   3.587   7.885
 2668SOL    HW1 9837  13.385   3.575   7.896
 2668SOL    HW2 9838  13.254   3.574   7.973
 2669SOL     OW 9839  12.411   2.025   1.115
 2669SOL    HW1 9840  12.444   1.987   1.033
 2669SOL    HW2 9841  12.328   2.066   1.090
 2670SOL     OW 9842   5.194   3.555   5.085
 2670SOL    HW1 9843   5.145   3.526   5.008
 2670SOL    HW2 9844   5.147   3.632   5.116
 2671SOL     OW 9845   9.829  14.245   4.112
 2671SOL    HW1 9846   9.810  14.310   4.180
 2671SOL    HW2 9847   9.873  14.174   4.159
 2672SOL     OW 9848   1.217  10.440  12.902
 2672SOL    HW1 9849   1.243  10.350  12.922
 2672SOL    HW2 9850   1.122  10.440  12.914
 2673SOL     OW 9851  14.228  12.989  12.806
 2673SOL    HW1 9852  14.136  13.009  12.792
 2673SOL    HW2 9853  14.230  12.943  12.890
 2674SOL     OW 9854  12.551   1.519   3.443
 2674SOL    HW1 9855  12.505   1.508   3.526
 2674SOL    HW2 9856  12.485   1.556   3.384
 2675SOL     OW 9857   9.446  11.874   8.868
 2675SOL    HW1 9858   9.470  11.962   8.838
 2675SOL    HW2 9859   9.411  11.887   8.955
 2676SOL     OW 9860   2.276  13.017  10.491
 2676SOL    HW1 9861   2.221  12.955  10.443
 2676SOL    HW2 9862   2.264  12.994  10.583
 2677SOL     OW 9863  13.389   0.327  10.764
 2677SOL    HW1 9864  13.324   0.349  10.697
 2677SOL    HW2 9865  13.466   0.299  10.714
 2678SOL     OW 9866   7.621  13.598  11.786
 2678SOL    HW1 9867   7.696  13.596  11.726
 2678SOL    HW2 9868   7.561  13.661  11.746
 2679SOL     OW 9869  12.055  12.870  10.644
 2679SOL    HW1 9870  11.980  12.865  10.704
 2679SOL    HW2 9871  12.126  12.906  10.697
 2680SOL     OW 9872   2.853   2.727   0.958
 2680SOL    HW1 9873   2.903   2.647   0.939
 2680SOL    HW2 9874   2.892   2.761   1.038
 2681SOL     OW 9875   1.078   9.907   6.782
 2681SOL    HW1 9876   1.111   9.820   6.759
 2681SOL    HW2 9877   1.087   9.958   6.701
 2682SOL     OW 9878   3.228   5.942   3.306
 2682SOL    HW1 9879   3.155   5.899   3.352
 2682SOL    HW2 9880   3.270   5.996   3.373
 2683SOL     OW 9881   6.113   9.185  14.466
 2683SOL    HW1 9882   6.084   9.262  14.515
 2683SOL    HW2 9883   6.201   9.168  14.499
 2684SOL     OW 9884  11.869   7.989  10.268
 2684SOL    HW1 9885  11.844   7.941  10.189
 2684SOL    HW2 9886  11.888   7.921  10.333
 2685SOL     OW 9887  14.046   3.594   6.859
 2685SOL    HW1 9888  14.027   3.617   6.768
 2685SOL    HW2 9889  14.125   3.643   6.880
 2686SOL     OW 9890   6.503   0.690   9.463
 2686SOL    HW1 9891   6.428   0.748   9.476
 2686SOL    HW2 9892   6.575   0.750   9.440
 2687SOL     OW 9893   6.058   8.816   3.915
 2687SOL    HW1 9894   6.024   8.740   3.963
 2687SOL    HW2 9895   5.989   8.836   3.851
 2688SOL     OW 9896   6.504  14.869  13.621
 2688SOL    HW1 9897   6.440  14.871  13.551
 2688SOL    HW2 9898   6.497  14.781  13.658
 2689SOL     OW 9899   4.292  13.886  10.733
 2689SOL    HW1 9900   4.294  13.818  10.665
 2689SOL    HW2 9901   4.327  13.964  10.690
 2690SOL     OW 9902   4.177  14.200   1.345
 2690SOL    HW1 9903   4.144  14.261   1.279
 2690SOL    HW2 9904   4.098  14.162   1.384
 2691SOL     OW 9905  10.479   6.668  11.751
 2691SOL    HW1 9906  10.445   6.729  11.685
 2691SOL    HW2 9907  10.573   6.663  11.733
 2692SOL     OW 9908   6.363  13.664   0.446
 2692SOL    HW1 9909   6.451  13.659   0.410
 2692SOL    HW2 9910   6.376  13.669   0.540
 2693SOL     OW 9911   4.398   6.466  13.987
 2693SOL    HW1 9912   4.475   6.416  14.014
 2693SOL    HW2 9913   4.428   6.521  13.915
 2694SOL     OW 9914  11.178   2.566   6.763
 2694SOL    HW1 9915  11.174   2.661   6.774
 2694SOL    HW2 9916  11.245   2.537   6.826
 2695SOL     OW 9917  13.762   8.709  13.284
 2695SOL    HW1 9918  13.835   8.736  13.340
 2695SOL    HW2 9919  13.729   8.791  13.246
 2696SOL     OW 9920   7.484  10.096   5.115
 2696SOL    HW1 9921   7.427  10.040   5.168
 2696SOL    HW2 9922   7.569  10.092   5.159
 2697SOL     OW 9923  12.035   7.266   8.214
 2697SOL    HW1 9924  12.011   7.248   8.123
 2697SOL    HW2 9925  12.110   7.326   8.208
 2698SOL     OW 9926  12.375   1.114   0.838
 2698SOL    HW1 9927  12.388   1.024   0.808
 2698SOL    HW2 9928  12.424   1.119   0.920
 2699SOL     OW 9929   8.597   2.183   3.581
 2699SOL    HW1 9930   8.517   2.132   3.591
 2699SOL    HW2 9931   8.604   2.234   3.661
 2700SOL     OW 9932   4.993  10.532  10.300
 2700SOL    HW1 9933   5.035  10.446  10.308
 2700SOL    HW2 9934   5.062  10.588  10.265
 2701SOL     OW 9935  10.477  10.822   4.413
 2701SOL    HW1 9936  10.392  10.864   4.400
 2701SOL    HW2 9937  10.472  10.741   4.362
 2702SOL     OW 9938  11.469   9.657  11.759
 2702SOL    HW1 9939  11.557   9.626  11.782
 2702SOL    HW2 9940  11.415   9.632  11.833
 2703SOL     OW 9941  10.076   6.736   6.338
 2703SOL    HW1 9942  10.014   6.691   6.395
 2703SOL    HW2 9943  10.021   6.783   6.275
 2704SOL     OW 9944   2.367   7.050  12.589
 2704SOL    HW1 9945   2.285   7.086  12.554
 2704SOL    HW2 9946   2.376   6.965  12.545
 2705SOL     OW 9947   8.392   4.274   3.382
 2705SOL    HW1 9948   8.484   4.301   3.380
 2705SOL    HW2 9949   8.390   4.203   3.446
 2706SOL     OW 9950   8.141   3.763  12.938
 2706SOL    HW1 9951   8.153   3.678  12.897
 2706SOL    HW2 9952   8.047   3.778  12.936
 2707SOL     OW 9953   3.636  11.357   5.379
 2707SOL    HW1 9954   3.625  11.443   5.339
 2707SOL    HW2 9955   3.714  11.365   5.433
 2708SOL     OW 9956   5.588  13.666   8.562
 2708SOL    HW1 9957   5.601  13.624   8.478
 2708SOL    HW2 9958   5.578  13.759   8.541
 2709SOL     OW 9959  12.207   0.218  11.687
 2709SOL    HW1 9960  12.190   0.199  11.594
 2709SOL    HW2 9961  12.171   0.143  11.734
 2710SOL     OW 9962  13.514  10.726   0.802
 2710SOL    HW1 9963  13.501  10.654   0.740
 2710SOL    HW2 9964  13.606  10.751   0.791
 2711SOL     OW 9965  14.671   5.084   8.766
 2711SOL    HW1 9966  14.727   5.025   8.715
 2711SOL    HW2 9967  14.613   5.026   8.814
 2712SOL     OW 9968   3.976  10.711   0.074
 2712SOL    HW1 9969   3.933  10.629   0.052
 2712SOL    HW2 9970   3.904  10.771   0.096
 2713SOL     OW 9971  12.738   9.412   2.714
 2713SOL    HW1 9972  12.833   9.402   2.712
 2713SOL    HW2 9973  12.724   9.507   2.718
 2714SOL     OW 9974   8.312   1.478   5.922
 2714SOL    HW1 9975   8.332   1.478   5.828
 2714SOL    HW2 9976   8.345   1.563   5.953
 2715SOL     OW 9977   0.639   6.297   9.187
 2715SOL    HW1 9978   0.617   6.205   9.172
 2715SOL    HW2 9979   0.701   6.294   9.260
 2716SOL     OW 9980   2.633  11.866   9.368
 2716SOL    HW1 9981   2.682  11.893   9.445
 2716SOL    HW2 9982   2.581  11.943   9.344
 2717SOL     OW 9983   4.061   5.717   2.697
 2717SOL    HW1 9984   3.991   5.739   2.758
 2717SOL    HW2 9985   4.139   5.711   2.751
 2718SOL     OW 9986   9.088   9.914   7.799
 2718SOL    HW1 9987   9.152   9.874   7.858
 2718SOL    HW2 9988   9.018   9.945   7.856
 2719SOL     OW 9989   5.625  11.789   0.312
 2719SOL    HW1 9990   5.692  11.833   0.259
 2719SOL    HW2 9991   5.663  11.784   0.400
 2720SOL     OW 9992   9.939  10.637   2.239
 2720SOL    HW1 9993   9.937  10.594   2.324
 2720SOL    HW2 9994  10.021  10.687   2.239
 2721SOL     OW 9995   3.468   2.715   8.677
 2721SOL    HW1 9996   3.485   2.667   8.758
 2721SOL    HW2 9997   3.533   2.683   8.615
 2722SOL     OW 9998  10.089  11.909   5.730
 2722SOL    HW1 9999  10.143  11.966   5.785
 2722SOL    HW210000  10.027  11.868   5.791
 2723SOL     OW10001   5.735  10.114   4.371
 2723SOL    HW110002   5.652  10.159   4.383
 2723SOL    HW210003   5.801  10.176   4.403
 2724SOL     OW10004   4.918   5.359   6.188
 2724SOL    HW110005   4.920   5.284   6.248
 2724SOL    HW210006   4.834   5.352   6.143
 2725SOL     OW10007   3.566   9.010   0.559
 2725SOL    HW110008   3.476   9.015   0.591
 2725SOL    HW210009   3.577   9.091   0.508
 2726SOL     OW10010   5.124   5.776   2.127
 2726SOL    HW110011   5.103   5.869   2.125
 2726SOL    HW210012   5.207   5.769   2.079
 2727SOL     OW10013   4.483   5.773   6.591
 2727SOL    HW110014   4.524   5.860   6.594
 2727SOL    HW210015   4.501   5.741   6.503
 2728SOL     OW10016   5.617  11.021   0.428
 2728SOL    HW110017   5.530  11.043   0.394
 2728SOL    HW210018   5.676  11.041   0.355
 2729SOL     OW10019   0.310   3.695   1.294
 2729SOL    HW110020   0.327   3.711   1.387
 2729SOL    HW210021   0.239   3.631   1.293
 2730SOL     OW10022   4.703   5.647   5.442
 2730SOL    HW110023   4.713   5.693   5.359
 2730SOL    HW210024   4.757   5.696   5.504
 2731SOL     OW10025   5.506   0.141  12.614
 2731SOL    HW110026   5.573   0.202  12.583
 2731SOL    HW210027   5.556   0.066  12.648
 2732SOL     OW10028   7.155  12.312   3.955
 2732SOL    HW110029   7.197  12.372   4.017
 2732SOL    HW210030   7.164  12.226   3.995
 2733SOL     OW10031   9.779   6.709   8.523
 2733SOL    HW110032   9.844   6.640   8.506
 2733SOL    HW210033   9.795   6.735   8.613
 2734SOL     OW10034   7.389   1.583   9.653
 2734SOL    HW110035   7.317   1.530   9.620
 2734SOL    HW210036   7.359   1.673   9.643
 2735SOL     OW10037  11.022   6.305   9.594
 2735SOL    HW110038  11.091   6.310   9.528
 2735SOL    HW210039  11.067   6.278   9.674
 2736SOL     OW10040   0.887   3.683   3.482
 2736SOL    HW110041   0.852   3.639   3.404
 2736SOL    HW210042   0.852   3.633   3.555
 2737SOL     OW10043  14.109   8.598  10.881
 2737SOL    HW110044  14.164   8.532  10.923
 2737SOL    HW210045  14.027   8.553  10.861
 2738SOL     OW10046   0.288   2.125   6.941
 2738SOL    HW110047   0.275   2.083   7.026
 2738SOL    HW210048   0.363   2.183   6.954
 2739SOL     OW10049   2.928   5.938   9.084
 2739SOL    HW110050   2.986   6.011   9.066
 2739SOL    HW210051   2.841   5.977   9.088
 2740SOL     OW10052  11.707   7.917   3.908
 2740SOL    HW110053  11.708   7.831   3.949
 2740SOL    HW210054  11.649   7.908   3.832
 2741SOL     OW10055   7.203   1.691   5.667
 2741SOL    HW110056   7.258   1.715   5.592
 2741SOL    HW210057   7.215   1.596   5.675
 2742SOL     OW10058   0.190  14.146  12.372
 2742SOL    HW110059   0.126  14.214  12.352
 2742SOL    HW210060   0.252  14.149  12.300
 2743SOL     OW10061   3.056   4.493   8.122
 2743SOL    HW110062   3.010   4.439   8.057
 2743SOL    HW210063   3.025   4.461   8.206
 2744SOL     OW10064   6.053  12.058   7.755
 2744SOL    HW110065   6.027  12.081   7.844
 2744SOL    HW210066   6.149  12.051   7.759
 2745SOL     OW10067   1.284   3.260  12.011
 2745SOL    HW110068   1.299   3.215  11.928
 2745SOL    HW210069   1.295   3.353  11.990
 2746SOL     OW10070   0.690   9.793   5.368
 2746SOL    HW110071   0.685   9.888   5.366
 2746SOL    HW210072   0.606   9.765   5.402
 2747SOL     OW10073   3.337   7.324   6.482
 2747SOL    HW110074   3.416   7.283   6.448
 2747SOL    HW210075   3.309   7.268   6.554
 2748SOL     OW10076  12.907  10.046   3.235
 2748SOL    HW110077  12.889  10.126   3.185
 2748SOL    HW210078  12.833  10.037   3.295
 2749SOL     OW10079   9.337  10.596   7.323
 2749SOL    HW110080   9.261  10.638   7.364
 2749SOL    HW210081   9.370  10.661   7.262
 2750SOL     OW10082   0.187   6.035  12.648
 2750SOL    HW110083   0.185   6.128  12.670
 2750SOL    HW210084   0.277   6.008  12.666
 2751SOL     OW10085  14.069   9.380   8.337
 2751SOL    HW110086  14.114   9.463   8.349
 2751SOL    HW210087  14.052   9.375   8.242
 2752SOL     OW10088  13.682   3.273   8.792
 2752SOL    HW110089  13.749   3.218   8.831
 2752SOL    HW210090  13.686   3.254   8.699
 2753SOL     OW10091  14.273   9.783   6.601
 2753SOL    HW110092  14.365   9.777   6.574
 2753SOL    HW210093  14.254   9.698   6.639
 2754SOL     OW10094   6.546  10.774   4.471
 2754SOL    HW110095   6.626  10.805   4.516
 2754SOL    HW210096   6.574  10.697   4.423
 2755SOL     OW10097  12.280   8.027   6.309
 2755SOL    HW110098  12.223   7.973   6.365
 2755SOL    HW210099  12.367   7.990   6.321
 2756SOL     OW10100  12.702  10.849   7.273
 2756SOL    HW110101  12.640  10.861   7.202
 2756SOL    HW210102  12.652  10.868   7.352
 2757SOL     OW10103   6.036   9.123   0.377
 2757SOL    HW110104   6.033   9.205   0.427
 2757SOL    HW210105   6.085   9.144   0.298
 2758SOL     OW10106  11.697   0.043  11.661
 2758SOL    HW110107  11.622   0.037  11.720
 2758SOL    HW210108  11.659   0.052  11.574
 2759SOL     OW10109  12.101   7.508   0.226
 2759SOL    HW110110  12.016   7.543   0.252
 2759SOL    HW210111  12.081   7.424   0.185
 2760SOL     OW10112   9.732   4.379   4.865
 2760SOL    HW110113   9.806   4.434   4.891
 2760SOL    HW210114   9.656   4.437   4.867
 2761SOL     OW10115   6.522   9.814  10.743
 2761SOL    HW110116   6.547   9.837  10.653
 2761SOL    HW210117   6.479   9.892  10.777
 2762SOL     OW10118   5.707  12.347   6.828
 2762SOL    HW110119   5.624  12.325   6.871
 2762SOL    HW210120   5.756  12.265   6.825
 2763SOL     OW10121  10.146  10.762   5.944
 2763SOL    HW110122  10.155  10.731   6.033
 2763SOL    HW210123  10.100  10.691   5.898
 2764SOL     OW10124  12.195   8.711   5.057
 2764SOL    HW110125  12.201   8.627   5.011
 2764SOL    HW210126  12.280   8.752   5.044
 2765SOL     OW10127   7.849  11.541   3.348
 2765SOL    HW110128   7.816  11.475   3.409
 2765SOL    HW210129   7.856  11.620   3.401
 2766SOL     OW10130   6.995   3.886  14.685
 2766SOL    HW110131   7.057   3.902  14.614
 2766SOL    HW210132   6.999   3.791  14.699
 2767SOL     OW10133   5.046   5.773  12.973
 2767SOL    HW110134   4.973   5.828  12.946
 2767SOL    HW210135   5.030   5.756  13.066
 2768SOL     OW10136   3.299  11.575   6.304
 2768SOL    HW110137   3.229  11.558   6.241
 2768SOL    HW210138   3.255  11.576   6.389
 2769SOL     OW10139  14.232   5.682   8.766
 2769SOL    HW110140  14.225   5.622   8.840
 2769SOL    HW210141  14.298   5.643   8.709
 2770SOL     OW10142   8.638   5.689  10.167
 2770SOL    HW110143   8.551   5.668  10.132
 2770SOL    HW210144   8.699   5.657  10.101
 2771SOL     OW10145  13.453   8.750  12.116
 2771SOL    HW110146  13.485   8.714  12.033
 2771SOL    HW210147  13.473   8.843  12.111
 2772SOL     OW10148   9.581   1.033  11.742
 2772SOL    HW110149   9.670   1.058  11.767
 2772SOL    HW210150   9.535   1.019  11.825
 2773SOL     OW10151   8.561   7.589   4.359
 2773SOL    HW110152   8.558   7.647   4.435
 2773SOL    HW210153   8.644   7.610   4.316
 2774SOL     OW10154   0.965  11.015  12.266
 2774SOL    HW110155   0.951  11.106  12.239
 2774SOL    HW210156   0.878  10.980  12.281
 2775SOL     OW10157   9.140   8.185  13.380
 2775SOL    HW110158   9.141   8.111  13.319
 2775SOL    HW210159   9.051   8.220  13.373
 2776SOL     OW10160   9.232  13.141   3.522
 2776SOL    HW110161   9.171  13.202   3.481
 2776SOL    HW210162   9.291  13.115   3.451
 2777SOL     OW10163  10.360   4.638  14.849
 2777SOL    HW110164  10.440   4.690  14.842
 2777SOL    HW210165  10.294   4.689  14.803
 2778SOL     OW10166  11.656   4.071   1.040
 2778SOL    HW110167  11.561   4.068   1.034
 2778SOL    HW210168  11.675   4.138   1.106
 2779SOL     OW10169  12.898   0.900   5.038
 2779SOL    HW110170  12.808   0.913   5.066
 2779SOL    HW210171  12.905   0.805   5.022
 2780SOL     OW10172  11.371   3.280   7.916
 2780SOL    HW110173  11.370   3.237   8.001
 2780SOL    HW210174  11.280   3.285   7.889
 2781SOL     OW10175  14.774   9.132   1.764
 2781SOL    HW110176  14.687   9.140   1.803
 2781SOL    HW210177  14.831   9.108   1.836
 2782SOL     OW10178   7.922   9.721   5.064
 2782SOL    HW110179   7.827   9.715   5.076
 2782SOL    HW210180   7.952   9.630   5.071
 2783SOL     OW10181   7.638   4.083   6.267
 2783SOL    HW110182   7.604   4.032   6.193
 2783SOL    HW210183   7.600   4.170   6.255
 2784SOL     OW10184  12.650   4.862  12.639
 2784SOL    HW110185  12.587   4.852  12.567
 2784SOL    HW210186  12.605   4.918  12.702
 2785SOL     OW10187  10.907   1.552  11.818
 2785SOL    HW110188  10.817   1.562  11.848
 2785SOL    HW210189  10.901   1.555  11.723
 2786SOL     OW10190   4.961  14.218   1.624
 2786SOL    HW110191   4.927  14.307   1.638
 2786SOL    HW210192   4.913  14.164   1.686
 2787SOL     OW10193   4.882  12.076   3.549
 2787SOL    HW110194   4.928  12.141   3.601
 2787SOL    HW210195   4.814  12.125   3.503
 2788SOL     OW10196   2.551   5.123   8.151
 2788SOL    HW110197   2.507   5.163   8.226
 2788SOL    HW210198   2.632   5.087   8.187
 2789SOL     OW10199   1.557  11.698   0.449
 2789SOL    HW110200   1.514  11.686   0.534
 2789SOL    HW210201   1.486  11.701   0.386
 2790SOL     OW10202   2.981   4.455   4.749
 2790SOL    HW110203   2.953   4.385   4.807
 2790SOL    HW210204   3.055   4.496   4.795
 2791SOL     OW10205  12.178   8.571   0.360
 2791SOL    HW110206  12.177   8.629   0.436
 2791SOL    HW210207  12.258   8.519   0.370
 2792SOL     OW10208   5.809  13.729   8.720
 2792SOL    HW110209   5.827  13.676   8.798
 2792SOL    HW210210   5.714  13.723   8.708
 2793SOL     OW10211   3.889   5.178   3.012
 2793SOL    HW110212   3.910   5.101   3.065
 2793SOL    HW210213   3.865   5.245   3.076
 2794SOL     OW10214   7.890   3.736   6.162
 2794SOL    HW110215   7.875   3.749   6.068
 2794SOL    HW210216   7.885   3.642   6.174
 2795SOL     OW10217  12.974   4.632   0.055
 2795SOL    HW110218  12.949   4.558   0.110
 2795SOL    HW210219  13.034   4.596  14.864
 2796SOL     OW10220  14.791   4.461  14.636
 2796SOL    HW110221  14.830   4.408  14.705
 2796SOL    HW210222  14.855   4.460  14.565
 2797SOL     OW10223   0.580   6.232   7.051
 2797SOL    HW110224   0.591   6.322   7.023
 2797SOL    HW210225   0.666   6.206   7.084
 2798SOL     OW10226   0.819   8.232   8.708
 2798SOL    HW110227   0.757   8.276   8.650
 2798SOL    HW210228   0.905   8.261   8.679
 2799SOL     OW10229   2.261  11.270   9.969
 2799SOL    HW110230   2.173  11.289  10.002
 2799SOL    HW210231   2.311  11.349   9.988
 2800SOL     OW10232  11.133  11.331   7.106
 2800SOL    HW110233  11.129  11.259   7.043
 2800SOL    HW210234  11.044  11.368   7.106
 2801SOL     OW10235   6.633   0.220  13.664
 2801SOL    HW110236   6.596   0.134  13.644
 2801SOL    HW210237   6.597   0.242  13.750
 2802SOL     OW10238  12.158   2.840   0.804
 2802SOL    HW110239  12.229   2.903   0.814
 2802SOL    HW210240  12.191   2.760   0.845
 2803SOL     OW10241  10.767   8.539   1.074
 2803SOL    HW110242  10.814   8.458   1.057
 2803SOL    HW210243  10.723   8.524   1.158
 2804SOL     OW10244  13.121   3.208   8.955
 2804SOL    HW110245  13.153   3.278   9.012
 2804SOL    HW210246  13.027   3.206   8.968
 2805SOL     OW10247   1.070  10.130   7.542
 2805SOL    HW110248   1.008  10.149   7.612
 2805SOL    HW210249   1.102  10.216   7.515
 2806SOL     OW10250  13.745   7.709   5.282
 2806SOL    HW110251  13.675   7.668   5.334
 2806SOL    HW210252  13.825   7.683   5.327
 2807SOL     OW10253   5.368   5.128  11.112
 2807SOL    HW110254   5.326   5.065  11.171
 2807SOL    HW210255   5.442   5.162  11.162
 2808SOL     OW10256   2.417   5.065  11.872
 2808SOL    HW110257   2.395   5.143  11.822
 2808SOL    HW210258   2.483   5.094  11.935
 2809SOL     OW10259  10.772   7.159   8.534
 2809SOL    HW110260  10.719   7.128   8.607
 2809SOL    HW210261  10.808   7.242   8.563
 2810SOL     OW10262   9.078   5.318   0.871
 2810SOL    HW110263   9.038   5.232   0.857
 2810SOL    HW210264   9.170   5.300   0.887
 2811SOL     OW10265   8.265   1.299   9.964
 2811SOL    HW110266   8.233   1.220  10.007
 2811SOL    HW210267   8.291   1.270   9.877
 2812SOL     OW10268  11.479  14.028   6.991
 2812SOL    HW110269  11.553  14.088   6.982
 2812SOL    HW210270  11.404  14.085   7.009
 2813SOL     OW10271   4.633   4.609   1.935
 2813SOL    HW110272   4.661   4.518   1.947
 2813SOL    HW210273   4.538   4.605   1.928
 2814SOL     OW10274   3.761  10.360   8.703
 2814SOL    HW110275   3.832  10.387   8.762
 2814SOL    HW210276   3.803  10.349   8.618
 2815SOL     OW10277   9.067  14.276   4.658
 2815SOL    HW110278   9.117  14.341   4.609
 2815SOL    HW210279   9.074  14.304   4.749
 2816SOL     OW10280   7.739   0.785   1.098
 2816SOL    HW110281   7.762   0.692   1.098
 2816SOL    HW210282   7.647   0.786   1.072
 2817SOL     OW10283  13.032   0.710   1.092
 2817SOL    HW110284  13.079   0.793   1.095
 2817SOL    HW210285  12.978   0.710   1.171
 2818SOL     OW10286   2.408   7.736  11.027
 2818SOL    HW110287   2.378   7.826  11.017
 2818SOL    HW210288   2.354   7.700  11.098
 2819SOL     OW10289  11.154   0.182   0.350
 2819SOL    HW110290  11.149   0.086   0.345
 2819SOL    HW210291  11.226   0.205   0.292
 2820SOL     OW10292   9.045  12.985   7.887
 2820SOL    HW110293   9.121  13.040   7.904
 2820SOL    HW210294   9.055  12.958   7.795
 2821SOL     OW10295  11.291   0.730   9.821
 2821SOL    HW110296  11.205   0.711   9.785
 2821SOL    HW210297  11.304   0.666   9.891
 2822SOL     OW10298   2.462   2.761   4.986
 2822SOL    HW110299   2.477   2.673   5.020
 2822SOL    HW210300   2.538   2.780   4.932
 2823SOL     OW10301   8.931  14.643   6.623
 2823SOL    HW110302   9.007  14.640   6.566
 2823SOL    HW210303   8.934  14.729   6.664
 2824SOL     OW10304   7.575  10.520   0.551
 2824SOL    HW110305   7.522  10.571   0.612
 2824SOL    HW210306   7.606  10.445   0.601
 2825SOL     OW10307   3.517   6.992  11.697
 2825SOL    HW110308   3.584   7.044  11.653
 2825SOL    HW210309   3.551   6.980  11.785
 2826SOL     OW10310   8.490   3.367   3.235
 2826SOL    HW110311   8.410   3.417   3.247
 2826SOL    HW210312   8.490   3.302   3.305
 2827SOL     OW10313   3.930   5.615  11.093
 2827SOL    HW110314   3.843   5.637  11.126
 2827SOL    HW210315   3.960   5.544  11.149
 2828SOL     OW10316   0.775  11.354   8.843
 2828SOL    HW110317   0.783  11.415   8.769
 2828SOL    HW210318   0.834  11.282   8.822
 2829SOL     OW10319  10.539   0.604   3.910
 2829SOL    HW110320  10.630   0.583   3.891
 2829SOL    HW210321  10.536   0.614   4.005
 2830SOL     OW10322  12.112   4.826  14.039
 2830SOL    HW110323  12.147   4.739  14.060
 2830SOL    HW210324  12.175   4.862  13.976
 2831SOL     OW10325   8.477   6.645   8.046
 2831SOL    HW110326   8.384   6.662   8.059
 2831SOL    HW210327   8.480   6.563   7.998
 2832SOL     OW10328  14.774   9.944  14.649
 2832SOL    HW110329  14.859   9.902  14.664
 2832SOL    HW210330  14.757   9.931  14.556
 2833SOL     OW10331  10.246   3.033   0.232
 2833SOL    HW110332  10.322   3.074   0.273
 2833SOL    HW210333  10.219   2.966   0.294
 2834SOL     OW10334   7.063   7.508   5.862
 2834SOL    HW110335   7.005   7.544   5.928
 2834SOL    HW210336   7.137   7.570   5.858
 2835SOL     OW10337   9.184   4.463   8.135
 2835SOL    HW110338   9.191   4.459   8.230
 2835SOL    HW210339   9.146   4.379   8.110
 2836SOL     OW10340   6.169  11.306   1.920
 2836SOL    HW110341   6.208  11.251   1.852
 2836SOL    HW210342   6.086  11.335   1.881
 2837SOL     OW10343   1.349   4.445   2.353
 2837SOL    HW110344   1.383   4.496   2.279
 2837SOL    HW210345   1.254   4.452   2.346
 2838SOL     OW10346  12.363  11.498   8.883
 2838SOL    HW110347  12.290  11.499   8.944
 2838SOL    HW210348  12.353  11.578   8.832
 2839SOL     OW10349   5.986   4.845  11.421
 2839SOL    HW110350   6.037   4.855  11.340
 2839SOL    HW210351   5.909   4.793  11.395
 2840SOL     OW10352   5.520   8.212   6.035
 2840SOL    HW110353   5.551   8.300   6.058
 2840SOL    HW210354   5.594   8.155   6.055
 2841SOL     OW10355   8.914   6.445   1.210
 2841SOL    HW110356   8.931   6.536   1.187
 2841SOL    HW210357   8.994   6.415   1.252
 2842SOL     OW10358   6.742   9.733  12.090
 2842SOL    HW110359   6.717   9.770  12.174
 2842SOL    HW210360   6.712   9.643  12.093
 2843SOL     OW10361  11.183   5.613  12.307
 2843SOL    HW110362  11.272   5.581  12.289
 2843SOL    HW210363  11.168   5.594  12.399
 2844SOL     OW10364  10.473   4.623   7.748
 2844SOL    HW110365  10.442   4.663   7.667
 2844SOL    HW210366  10.506   4.697   7.800
 2845SOL     OW10367  12.706   4.759  11.902
 2845SOL    HW110368  12.616   4.787  11.885
 2845SOL    HW210369  12.747   4.756  11.816
 2846SOL     OW10370   1.096  13.052   6.840
 2846SOL    HW110371   1.069  13.090   6.756
 2846SOL    HW210372   1.017  13.054   6.893
 2847SOL     OW10373  11.466   5.565   7.247
 2847SOL    HW110374  11.558   5.541   7.237
 2847SOL    HW210375  11.467   5.650   7.291
 2848SOL     OW10376  10.619   0.655   2.968
 2848SOL    HW110377  10.624   0.665   2.873
 2848SOL    HW210378  10.556   0.583   2.981
 2849SOL     OW10379   0.784   8.257   4.130
 2849SOL    HW110380   0.770   8.163   4.117
 2849SOL    HW210381   0.701   8.289   4.165
 2850SOL     OW10382   8.228   4.552   3.794
 2850SOL    HW110383   8.319   4.525   3.796
 2850SOL    HW210384   8.210   4.583   3.883
 2851SOL     OW10385  12.459   6.642  13.336
 2851SOL    HW110386  12.388   6.645  13.272
 2851SOL    HW210387  12.511   6.566  13.310
 2852SOL     OW10388   8.401   7.829   9.485
 2852SOL    HW110389   8.390   7.752   9.430
 2852SOL    HW210390   8.379   7.799   9.573
 2853SOL     OW10391  11.335  10.133   0.085
 2853SOL    HW110392  11.294  10.217   0.103
 2853SOL    HW210393  11.275  10.068   0.123
 2854SOL     OW10394   6.520   2.936  11.477
 2854SOL    HW110395   6.592   2.912  11.535
 2854SOL    HW210396   6.473   3.005  11.525
 2855SOL     OW10397   4.520   1.302   5.764
 2855SOL    HW110398   4.481   1.272   5.846
 2855SOL    HW210399   4.505   1.230   5.702
 2856SOL     OW10400   6.538   2.059   6.752
 2856SOL    HW110401   6.534   2.132   6.690
 2856SOL    HW210402   6.602   1.999   6.714
 2857SOL     OW10403   3.946   2.759   8.381
 2857SOL    HW110404   4.009   2.687   8.374
 2857SOL    HW210405   3.888   2.748   8.307
 2858SOL     OW10406  12.856  14.263   1.190
 2858SOL    HW110407  12.900  14.309   1.118
 2858SOL    HW210408  12.768  14.245   1.157
 2859SOL     OW10409   9.901   7.814   0.161
 2859SOL    HW110410   9.811   7.845   0.155
 2859SOL    HW210411   9.946   7.879   0.214
 2860SOL     OW10412   5.583   6.957  10.431
 2860SOL    HW110413   5.517   6.903  10.389
 2860SOL    HW210414   5.562   7.046  10.403
 2861SOL     OW10415   1.861   8.484  11.883
 2861SOL    HW110416   1.830   8.570  11.857
 2861SOL    HW210417   1.879   8.439  11.800
 2862SOL     OW10418  12.259   4.529   0.209
 2862SOL    HW110419  12.196   4.597   0.230
 2862SOL    HW210420  12.221   4.484   0.133
 2863SOL     OW10421  14.748   2.478  13.914
 2863SOL    HW110422  14.774   2.527  13.836
 2863SOL    HW210423  14.770   2.387  13.894
 2864SOL     OW10424   4.313   1.189   8.909
 2864SOL    HW110425   4.387   1.185   8.848
 2864SOL    HW210426   4.266   1.268   8.884
 2865SOL     OW10427  10.801   6.669   8.873
 2865SOL    HW110428  10.746   6.623   8.937
 2865SOL    HW210429  10.850   6.732   8.925
 2866SOL     OW10430   1.368   4.900   4.458
 2866SOL    HW110431   1.279   4.871   4.473
 2866SOL    HW210432   1.401   4.843   4.389
 2867SOL     OW10433   6.957   4.564   9.366
 2867SOL    HW110434   7.047   4.581   9.336
 2867SOL    HW210435   6.948   4.618   9.445
 2868SOL     OW10436   9.172  13.780   6.159
 2868SOL    HW110437   9.171  13.816   6.070
 2868SOL    HW210438   9.080  13.770   6.182
 2869SOL     OW10439  11.132   0.980   8.137
 2869SOL    HW110440  11.182   1.039   8.194
 2869SOL    HW210441  11.051   0.965   8.185
 2870SOL     OW10442   9.913   1.391   7.142
 2870SOL    HW110443   9.825   1.378   7.177
 2870SOL    HW210444   9.909   1.475   7.096
 2871SOL     OW10445  13.324  11.984  14.292
 2871SOL    HW110446  13.231  11.962  14.279
 2871SOL    HW210447  13.366  11.960  14.209
 2872SOL     OW10448   6.560   4.880   1.553
 2872SOL    HW110449   6.627   4.816   1.528
 2872SOL    HW210450   6.537   4.857   1.643
 2873SOL     OW10451   4.970   1.928   8.002
 2873SOL    HW110452   4.936   2.008   7.961
 2873SOL    HW210453   4.903   1.903   8.066
 2874SOL     OW10454  13.884  11.121   6.815
 2874SOL    HW110455  13.977  11.118   6.836
 2874SOL    HW210456  13.865  11.036   6.776
 2875SOL     OW10457   5.051  12.689   0.933
 2875SOL    HW110458   5.031  12.777   0.904
 2875SOL    HW210459   4.987  12.671   1.002
 2876SOL     OW10460  10.877  10.126   5.654
 2876SOL    HW110461  10.929  10.193   5.698
 2876SOL    HW210462  10.912  10.043   5.686
 2877SOL     OW10463  11.827   8.243   3.434
 2877SOL    HW110464  11.847   8.336   3.445
 2877SOL    HW210465  11.910   8.198   3.450
 2878SOL     OW10466   3.069   3.625   2.443
 2878SOL    HW110467   3.163   3.647   2.442
 2878SOL    HW210468   3.049   3.612   2.536
 2879SOL     OW10469   2.869  11.329   2.462
 2879SOL    HW110470   2.836  11.398   2.518
 2879SOL    HW210471   2.883  11.254   2.520
 2880SOL     OW10472   9.559   0.022  14.273
 2880SOL    HW110473   9.585  14.821  14.217
 2880SOL    HW210474   9.594  14.872  14.359
 2881SOL     OW10475  14.821   7.410   6.703
 2881SOL    HW110476  14.727   7.390   6.711
 2881SOL    HW210477  14.827   7.504   6.717
 2882SOL     OW10478   5.660  12.350   4.718
 2882SOL    HW110479   5.611  12.322   4.641
 2882SOL    HW210480   5.658  12.274   4.777
 2883SOL     OW10481   6.023   0.686   5.645
 2883SOL    HW110482   6.118   0.688   5.659
 2883SOL    HW210483   5.992   0.614   5.699
 2884SOL     OW10484   9.763  13.196   6.984
 2884SOL    HW110485   9.722  13.209   6.899
 2884SOL    HW210486   9.762  13.283   7.025
 2885SOL     OW10487  10.002  13.490  14.864
 2885SOL    HW110488   9.949  13.568   0.010
 2885SOL    HW210489   9.991  13.475  14.771
 2886SOL     OW10490   2.171  10.261   6.903
 2886SOL    HW110491   2.219  10.187   6.941
 2886SOL    HW210492   2.239  10.326   6.884
 2887SOL     OW10493   0.732   4.597   1.516
 2887SOL    HW110494   0.772   4.515   1.543
 2887SOL    HW210495   0.652   4.603   1.568
 2888SOL     OW10496  14.340  12.614  10.992
 2888SOL    HW110497  14.316  12.599  11.083
 2888SOL    HW210498  14.283  12.557  10.942
 2889SOL     OW10499   2.076  10.573   3.397
 2889SOL    HW110500   2.082  10.534   3.485
 2889SOL    HW210501   1.985  10.603   3.391
 2890SOL     OW10502   1.289   1.606   9.989
 2890SOL    HW110503   1.333   1.684  10.021
 2890SOL    HW210504   1.200   1.634   9.970
 2891SOL     OW10505   7.342   8.573  14.160
 2891SOL    HW110506   7.388   8.592  14.078
 2891SOL    HW210507   7.277   8.643  14.168
 2892SOL     OW10508   3.808   4.764  13.016
 2892SOL    HW110509   3.814   4.741  13.109
 2892SOL    HW210510   3.873   4.833  13.004
 2893SOL     OW10511   7.379   9.582   9.490
 2893SOL    HW110512   7.358   9.649   9.425
 2893SOL    HW210513   7.416   9.510   9.439
 2894SOL     OW10514   7.159   1.784   8.720
 2894SOL    HW110515   7.111   1.825   8.648
 2894SOL    HW210516   7.111   1.703   8.737
 2895SOL     OW10517   1.865   4.918   9.599
 2895SOL    HW110518   1.832   4.921   9.509
 2895SOL    HW210519   1.929   4.847   9.598
 2896SOL     OW10520   0.463   0.485   6.741
 2896SOL    HW110521   0.553   0.456   6.754
 2896SOL    HW210522   0.410   0.408   6.759
 2897SOL     OW10523  13.690   5.909   5.520
 2897SOL    HW110524  13.732   5.823   5.511
 2897SOL    HW210525  13.598   5.893   5.500
 2898SOL     OW10526   6.600  12.424   7.747
 2898SOL    HW110527   6.519  12.458   7.787
 2898SOL    HW210528   6.662  12.496   7.754
 2899SOL     OW10529   6.096   6.939  10.731
 2899SOL    HW110530   6.147   7.001  10.783
 2899SOL    HW210531   6.005   6.964  10.746
 2900SOL     OW10532   8.048   7.787  10.837
 2900SOL    HW110533   8.086   7.754  10.918
 2900SOL    HW210534   7.997   7.714  10.803
 2901SOL     OW10535  10.667   2.238   9.065
 2901SOL    HW110536  10.759   2.265   9.054
 2901SOL    HW210537  10.638   2.217   8.977
 2902SOL     OW10538   9.573  14.142   4.133
 2902SOL    HW110539   9.569  14.118   4.225
 2902SOL    HW210540   9.654  14.192   4.124
 2903SOL     OW10541   5.394   2.229  14.084
 2903SOL    HW110542   5.352   2.193  14.162
 2903SOL    HW210543   5.322   2.242  14.022
 2904SOL     OW10544  10.157   6.247  13.182
 2904SOL    HW110545  10.091   6.297  13.230
 2904SOL    HW210546  10.222   6.312  13.156
 2905SOL     OW10547   7.800   1.247   2.228
 2905SOL    HW110548   7.753   1.164   2.229
 2905SOL    HW210549   7.732   1.313   2.211
 2906SOL     OW10550   8.359   4.001  10.905
 2906SOL    HW110551   8.320   3.977  10.989
 2906SOL    HW210552   8.352   3.922  10.852
 2907SOL     OW10553   5.273   4.640  14.224
 2907SOL    HW110554   5.206   4.698  14.261
 2907SOL    HW210555   5.348   4.650  14.282
 2908SOL     OW10556   9.987   7.210   9.252
 2908SOL    HW110557  10.001   7.254   9.336
 2908SOL    HW210558   9.917   7.146   9.270
 2909SOL     OW10559   0.012   3.748   0.310
 2909SOL    HW110560  14.819   3.726   0.376
 2909SOL    HW210561   0.082   3.789   0.360
 2910SOL     OW10562   6.705   4.081   0.029
 2910SOL    HW110563   6.613   4.104   0.039
 2910SOL    HW210564   6.717   4.066  14.808
 2911SOL     OW10565  11.077   6.521  13.956
 2911SOL    HW110566  10.990   6.482  13.966
 2911SOL    HW210567  11.076   6.598  14.013
 2912SOL     OW10568   2.368   2.580   8.804
 2912SOL    HW110569   2.394   2.598   8.894
 2912SOL    HW210570   2.423   2.636   8.750
 2913SOL     OW10571   9.621   4.237   7.314
 2913SOL    HW110572   9.619   4.165   7.250
 2913SOL    HW210573   9.707   4.275   7.304
 2914SOL     OW10574  10.173   9.536   0.146
 2914SOL    HW110575  10.214   9.562   0.229
 2914SOL    HW210576  10.103   9.600   0.133
 2915SOL     OW10577   0.589   4.013   0.195
 2915SOL    HW110578   0.573   3.978   0.283
 2915SOL    HW210579   0.627   4.100   0.211
 2916SOL     OW10580   4.887   8.154  10.650
 2916SOL    HW110581   4.852   8.092  10.585
 2916SOL    HW210582   4.940   8.214  10.598
 2917SOL     OW10583  10.522   6.692  13.258
 2917SOL    HW110584  10.443   6.733  13.295
 2917SOL    HW210585  10.559   6.758  13.200
 2918SOL     OW10586   8.977   7.577  14.137
 2918SOL    HW110587   8.994   7.545  14.225
 2918SOL    HW210588   8.897   7.532  14.110
 2919SOL     OW10589   2.433   7.689   6.140
 2919SOL    HW110590   2.517   7.684   6.094
 2919SOL    HW210591   2.375   7.735   6.079
 2920SOL     OW10592   9.478  10.541   1.607
 2920SOL    HW110593   9.522  10.462   1.575
 2920SOL    HW210594   9.401  10.550   1.551
 2921SOL     OW10595  12.458   5.974   9.660
 2921SOL    HW110596  12.464   5.882   9.633
 2921SOL    HW210597  12.546   6.009   9.646
 2922SOL     OW10598   1.383  13.281   7.321
 2922SOL    HW110599   1.445  13.244   7.384
 2922SOL    HW210600   1.431  13.281   7.238
 2923SOL     OW10601   8.577   7.192  13.505
 2923SOL    HW110602   8.641   7.122  13.513
 2923SOL    HW210603   8.539   7.200  13.592
 2924SOL     OW10604   7.392  14.398   3.511
 2924SOL    HW110605   7.480  14.411   3.546
 2924SOL    HW210606   7.404  14.331   3.443
 2925SOL     OW10607   7.983   7.892  13.478
 2925SOL    HW110608   8.051   7.879  13.544
 2925SOL    HW210609   7.945   7.806  13.466
 2926SOL     OW10610   8.365   9.541   1.304
 2926SOL    HW110611   8.361   9.565   1.397
 2926SOL    HW210612   8.443   9.486   1.297
 2927SOL     OW10613   4.341   1.543  14.000
 2927SOL    HW110614   4.326   1.488  13.923
 2927SOL    HW210615   4.378   1.484  14.066
 2928SOL     OW10616  11.330   5.120   1.460
 2928SOL    HW110617  11.403   5.078   1.415
 2928SOL    HW210618  11.271   5.048   1.482
 2929SOL     OW10619   2.002   2.864  10.984
 2929SOL    HW110620   1.962   2.944  10.950
 2929SOL    HW210621   1.991   2.871  11.079
 2930SOL     OW10622  12.327   3.356   2.403
 2930SOL    HW110623  12.366   3.358   2.491
 2930SOL    HW210624  12.379   3.291   2.356
 2931SOL     OW10625   2.966   4.510   6.098
 2931SOL    HW110626   2.878   4.483   6.069
 2931SOL    HW210627   2.951   4.558   6.179
 2932SOL     OW10628  13.892  14.762   3.349
 2932SOL    HW110629  13.821  14.816   3.384
 2932SOL    HW210630  13.852  14.677   3.334
 2933SOL     OW10631   7.288   6.588   0.189
 2933SOL    HW110632   7.267   6.607   0.281
 2933SOL    HW210633   7.261   6.667   0.142
 2934SOL     OW10634   7.745  10.640  12.788
 2934SOL    HW110635   7.727  10.730  12.760
 2934SOL    HW210636   7.680  10.588  12.741
 2935SOL     OW10637  11.699   5.129   2.613
 2935SOL    HW110638  11.756   5.105   2.686
 2935SOL    HW210639  11.758   5.137   2.539
 2936SOL     OW10640   3.108   3.738  12.612
 2936SOL    HW110641   3.022   3.711  12.645
 2936SOL    HW210642   3.130   3.817  12.663
 2937SOL     OW10643   6.682  10.331   2.550
 2937SOL    HW110644   6.598  10.376   2.535
 2937SOL    HW210645   6.657  10.243   2.579
 2938SOL     OW10646   5.238   6.079   4.191
 2938SOL    HW110647   5.187   6.107   4.267
 2938SOL    HW210648   5.191   6.115   4.116
 2939SOL     OW10649  11.580   1.286   4.558
 2939SOL    HW110650  11.647   1.232   4.601
 2939SOL    HW210651  11.566   1.359   4.618
 2940SOL     OW10652   3.757   1.341   7.662
 2940SOL    HW110653   3.664   1.329   7.681
 2940SOL    HW210654   3.802   1.286   7.726
 2941SOL     OW10655   7.695   4.751   0.256
 2941SOL    HW110656   7.739   4.676   0.216
 2941SOL    HW210657   7.615   4.715   0.295
 2942SOL     OW10658   1.958   6.919   8.270
 2942SOL    HW110659   2.005   6.994   8.233
 2942SOL    HW210660   2.013   6.844   8.250
 2943SOL     OW10661  11.151   0.705   9.516
 2943SOL    HW110662  11.222   0.769   9.516
 2943SOL    HW210663  11.073   0.756   9.541
 2944SOL     OW10664  11.968   7.061   2.367
 2944SOL    HW110665  12.040   7.120   2.391
 2944SOL    HW210666  11.919   7.048   2.449
 2945SOL     OW10667   0.886   5.468   0.947
 2945SOL    HW110668   0.857   5.426   0.866
 2945SOL    HW210669   0.867   5.561   0.934
 2946SOL     OW10670   4.451   3.276  10.688
 2946SOL    HW110671   4.407   3.269  10.604
 2946SOL    HW210672   4.395   3.335  10.740
 2947SOL     OW10673  11.200   5.269   7.569
 2947SOL    HW110674  11.257   5.343   7.546
 2947SOL    HW210675  11.111   5.303   7.558
 2948SOL     OW10676   1.445   4.427  11.994
 2948SOL    HW110677   1.410   4.348  12.035
 2948SOL    HW210678   1.540   4.418  12.001
 2949SOL     OW10679  12.594   0.721   4.021
 2949SOL    HW110680  12.570   0.807   4.056
 2949SOL    HW210681  12.514   0.669   4.027
 2950SOL     OW10682  10.611   1.411  10.647
 2950SOL    HW110683  10.610   1.389  10.554
 2950SOL    HW210684  10.541   1.357  10.684
 2951SOL     OW10685   7.877   1.363  11.475
 2951SOL    HW110686   7.798   1.383  11.426
 2951SOL    HW210687   7.933   1.439  11.463
 2952SOL     OW10688  14.400  11.983   5.135
 2952SOL    HW110689  14.454  11.987   5.056
 2952SOL    HW210690  14.329  12.045   5.118
 2953SOL     OW10691   3.400   4.613   2.434
 2953SOL    HW110692   3.367   4.523   2.432
 2953SOL    HW210693   3.354   4.657   2.363
 2954SOL     OW10694   4.928   6.942   2.501
 2954SOL    HW110695   4.953   7.028   2.466
 2954SOL    HW210696   4.840   6.955   2.534
 2955SOL     OW10697   5.785   2.167  13.369
 2955SOL    HW110698   5.690   2.165  13.384
 2955SOL    HW210699   5.801   2.093  13.311
 2956SOL     OW10700   6.498  10.623  11.589
 2956SOL    HW110701   6.413  10.665  11.603
 2956SOL    HW210702   6.477  10.534  11.564
 2957SOL     OW10703   0.048   4.753   5.929
 2957SOL    HW110704   0.072   4.834   5.883
 2957SOL    HW210705   0.131   4.714   5.954
 2958SOL     OW10706   9.841   7.297  10.218
 2958SOL    HW110707   9.834   7.385  10.255
 2958SOL    HW210708   9.830   7.309  10.124
 2959SOL     OW10709   7.495   4.380   2.229
 2959SOL    HW110710   7.432   4.393   2.158
 2959SOL    HW210711   7.518   4.469   2.257
 2960SOL     OW10712   4.563  11.381   9.146
 2960SOL    HW110713   4.541  11.288   9.152
 2960SOL    HW210714   4.539  11.405   9.057
 2961SOL     OW10715   5.397  13.383   9.909
 2961SOL    HW110716   5.394  13.350   9.998
 2961SOL    HW210717   5.399  13.304   9.854
 2962SOL     OW10718   4.608   7.618   5.584
 2962SOL    HW110719   4.661   7.671   5.643
 2962SOL    HW210720   4.670   7.556   5.545
 2963SOL     OW10721  11.014  13.759   8.417
 2963SOL    HW110722  11.023  13.700   8.492
 2963SOL    HW210723  11.058  13.713   8.345
 2964SOL     OW10724   4.171  13.970   0.899
 2964SOL    HW110725   4.212  13.979   0.813
 2964SOL    HW210726   4.077  13.972   0.881
 2965SOL     OW10727   5.854   9.066   3.499
 2965SOL    HW110728   5.888   9.075   3.589
 2965SOL    HW210729   5.834   9.156   3.473
 2966SOL     OW10730   1.141  12.433  10.515
 2966SOL    HW110731   1.137  12.400  10.426
 2966SOL    HW210732   1.113  12.524  10.508
 2967SOL     OW10733  13.186   0.281   9.017
 2967SOL    HW110734  13.164   0.188   9.019
 2967SOL    HW210735  13.169   0.308   8.927
 2968SOL     OW10736   0.914   2.070   9.810
 2968SOL    HW110737   0.915   1.979   9.841
 2968SOL    HW210738   0.992   2.109   9.849
 2969SOL     OW10739  13.212   9.583  11.781
 2969SOL    HW110740  13.276   9.512  11.784
 2969SOL    HW210741  13.189   9.599  11.872
 2970SOL     OW10742   2.583  10.081   0.252
 2970SOL    HW110743   2.561  10.034   0.172
 2970SOL    HW210744   2.664  10.128   0.231
 2971SOL     OW10745  11.243   2.753  10.154
 2971SOL    HW110746  11.237   2.836  10.200
 2971SOL    HW210747  11.259   2.776  10.063
 2972SOL     OW10748   4.543  14.841   5.292
 2972SOL    HW110749   4.570  14.753   5.318
 2972SOL    HW210750   4.614   0.025   5.321
 2973SOL     OW10751   5.078   9.622   7.614
 2973SOL    HW110752   5.064   9.703   7.565
 2973SOL    HW210753   5.049   9.642   7.703
 2974SOL     OW10754  14.578   6.459  11.901
 2974SOL    HW110755  14.665   6.491  11.922
 2974SOL    HW210756  14.533   6.455  11.985
 2975SOL     OW10757  13.484   7.556   9.888
 2975SOL    HW110758  13.455   7.605   9.810
 2975SOL    HW210759  13.514   7.624   9.948
 2976SOL     OW10760   2.641   6.492   5.873
 2976SOL    HW110761   2.614   6.490   5.965
 2976SOL    HW210762   2.616   6.406   5.839
 2977SOL     OW10763  14.721   0.296  13.712
 2977SOL    HW110764  14.626   0.284  13.712
 2977SOL    HW210765  14.739   0.351  13.636
 2978SOL     OW10766   7.931   9.969   1.378
 2978SOL    HW110767   7.994  10.018   1.325
 2978SOL    HW210768   7.863   9.942   1.316
 2979SOL     OW10769  12.570   6.491  11.795
 2979SOL    HW110770  12.600   6.579  11.818
 2979SOL    HW210771  12.506   6.468  11.862
 2980SOL     OW10772   6.873   2.611   6.791
 2980SOL    HW110773   6.954   2.626   6.744
 2980SOL    HW210774   6.868   2.516   6.802
 2981SOL     OW10775  12.899   2.754   1.848
 2981SOL    HW110776  12.915   2.840   1.887
 2981SOL    HW210777  12.850   2.706   1.916
 2982SOL     OW10778   9.225   3.429  11.200
 2982SOL    HW110779   9.175   3.439  11.119
 2982SOL    HW210780   9.182   3.357  11.246
 2983SOL     OW10781   5.196   4.071   5.009
 2983SOL    HW110782   5.138   4.086   5.084
 2983SOL    HW210783   5.177   4.143   4.949
 2984SOL     OW10784   0.188  13.315   2.033
 2984SOL    HW110785   0.208  13.395   1.985
 2984SOL    HW210786   0.212  13.245   1.973
 2985SOL     OW10787   7.204  12.413  12.577
 2985SOL    HW110788   7.246  12.354  12.640
 2985SOL    HW210789   7.148  12.357  12.524
 2986SOL     OW10790   3.687   9.417   1.451
 2986SOL    HW110791   3.782   9.413   1.439
 2986SOL    HW210792   3.665   9.332   1.490
 2987SOL     OW10793   1.054   5.935   4.410
 2987SOL    HW110794   0.977   5.938   4.467
 2987SOL    HW210795   1.092   6.022   4.416
 2988SOL     OW10796   1.460  12.030   5.713
 2988SOL    HW110797   1.555  12.024   5.706
 2988SOL    HW210798   1.443  12.049   5.805
 2989SOL     OW10799  11.836   8.398   1.823
 2989SOL    HW110800  11.924   8.435   1.814
 2989SOL    HW210801  11.809   8.379   1.733
 2990SOL     OW10802  10.094  13.875  10.662
 2990SOL    HW110803  10.019  13.901  10.715
 2990SOL    HW210804  10.056  13.838  10.582
 2991SOL     OW10805  14.576  11.720   0.752
 2991SOL    HW110806  14.560  11.727   0.846
 2991SOL    HW210807  14.526  11.643   0.725
 2992SOL     OW10808   0.780   5.911   6.823
 2992SOL    HW110809   0.803   5.840   6.764
 2992SOL    HW210810   0.775   5.871   6.910
 2993SOL     OW10811  11.678   0.825   2.485
 2993SOL    HW110812  11.698   0.864   2.570
 2993SOL    HW210813  11.583   0.814   2.485
 2994SOL     OW10814   9.363   6.985   3.542
 2994SOL    HW110815   9.318   7.036   3.609
 2994SOL    HW210816   9.301   6.917   3.517
 2995SOL     OW10817  14.233   7.844  14.080
 2995SOL    HW110818  14.252   7.903  14.153
 2995SOL    HW210819  14.137   7.841  14.076
 2996SOL     OW10820  11.673   7.528   4.620
 2996SOL    HW110821  11.726   7.586   4.675
 2996SOL    HW210822  11.685   7.562   4.531
 2997SOL     OW10823   7.337   6.483  10.036
 2997SOL    HW110824   7.321   6.485   9.942
 2997SOL    HW210825   7.270   6.424  10.071
 2998SOL     OW10826   5.976   0.761   8.546
 2998SOL    HW110827   5.951   0.669   8.544
 2998SOL    HW210828   6.061   0.764   8.502
 2999SOL     OW10829   4.935  10.710  13.815
 2999SOL    HW110830   4.872  10.705  13.887
 2999SOL    HW210831   4.885  10.750  13.743
 3000SOL     OW10832   4.466   2.759   9.414
 3000SOL    HW110833   4.374   2.749   9.389
 3000SOL    HW210834   4.512   2.692   9.363
 3001SOL     OW10835   1.477  10.013   4.221
 3001SOL    HW110836   1.485  10.108   4.211
 3001SOL    HW210837   1.409  10.001   4.286
 3002SOL     OW10838   9.760  10.445  10.178
 3002SOL    HW110839   9.692  10.476  10.118
 3002SOL    HW210840   9.750  10.350  10.180
 3003SOL     OW10841  11.695   8.774   3.766
 3003SOL    HW110842  11.670   8.837   3.698
 3003SOL    HW210843  11.691   8.825   3.848
 3004SOL     OW10844  10.816  11.162   8.075
 3004SOL    HW110845  10.869  11.083   8.086
 3004SOL    HW210846  10.726  11.130   8.068
 3005SOL     OW10847  14.774  12.817   2.665
 3005SOL    HW110848  14.757  12.736   2.712
 3005SOL    HW210849  14.726  12.884   2.714
 3006SOL     OW10850   2.737  14.108   7.569
 3006SOL    HW110851   2.825  14.082   7.542
 3006SOL    HW210852   2.697  14.145   7.490
 3007SOL     OW10853   0.447   8.548  13.033
 3007SOL    HW110854   0.525   8.515  13.079
 3007SOL    HW210855   0.459   8.643  13.033
 3008SOL     OW10856   2.985  13.868   1.371
 3008SOL    HW110857   2.904  13.841   1.328
 3008SOL    HW210858   2.961  13.947   1.420
 3009SOL     OW10859   3.781   2.232   3.248
 3009SOL    HW110860   3.802   2.262   3.159
 3009SOL    HW210861   3.864   2.237   3.294
 3010SOL     OW10862  11.234  14.171  14.506
 3010SOL    HW110863  11.206  14.183  14.416
 3010SOL    HW210864  11.154  14.184  14.558
 3011SOL     OW10865  12.304   5.889  12.547
 3011SOL    HW110866  12.258   5.854  12.471
 3011SOL    HW210867  12.349   5.967  12.514
 3012SOL     OW10868   2.020   0.368   8.023
 3012SOL    HW110869   2.002   0.421   7.946
 3012SOL    HW210870   1.972   0.411   8.094
 3013SOL     OW10871   0.693   2.353  11.778
 3013SOL    HW110872   0.695   2.431  11.834
 3013SOL    HW210873   0.681   2.389  11.689
 3014SOL     OW10874  10.430   2.059   0.827
 3014SOL    HW110875  10.435   2.008   0.746
 3014SOL    HW210876  10.387   2.141   0.802
 3015SOL     OW10877   2.043   1.025   4.737
 3015SOL    HW110878   2.070   1.117   4.735
 3015SOL    HW210879   2.075   0.989   4.655
 3016SOL     OW10880  10.774  12.529  11.123
 3016SOL    HW110881  10.781  12.434  11.127
 3016SOL    HW210882  10.694  12.549  11.172
 3017SOL     OW10883   5.220   4.747  13.385
 3017SOL    HW110884   5.308   4.729  13.417
 3017SOL    HW210885   5.163   4.732  13.460
 3018SOL     OW10886   0.832   8.743   6.200
 3018SOL    HW110887   0.843   8.819   6.257
 3018SOL    HW210888   0.864   8.669   6.252
 3019SOL     OW10889   8.058   3.269  10.694
 3019SOL    HW110890   8.082   3.346  10.642
 3019SOL    HW210891   8.007   3.304  10.766
 3020SOL     OW10892  10.812   6.281   4.000
 3020SOL    HW110893  10.760   6.343   3.948
 3020SOL    HW210894  10.836   6.212   3.938
 3021SOL     OW10895   9.204  14.541  10.293
 3021SOL    HW110896   9.202  14.535  10.389
 3021SOL    HW210897   9.140  14.475  10.264
 3022SOL     OW10898   0.227   1.833   8.090
 3022SOL    HW110899   0.214   1.761   8.029
 3022SOL    HW210900   0.320   1.855   8.081
 3023SOL     OW10901   2.306   4.816  10.225
 3023SOL    HW110902   2.397   4.792  10.209
 3023SOL    HW210903   2.303   4.911  10.209
 3024SOL     OW10904   6.124   6.419   6.392
 3024SOL    HW110905   6.128   6.327   6.368
 3024SOL    HW210906   6.201   6.434   6.446
 3025SOL     OW10907   7.594   8.793  10.731
 3025SOL    HW110908   7.657   8.844  10.680
 3025SOL    HW210909   7.565   8.724  10.672
 3026SOL     OW10910   1.748   5.123   2.645
 3026SOL    HW110911   1.823   5.097   2.698
 3026SOL    HW210912   1.779   5.197   2.593
 3027SOL     OW10913   6.359   7.085   2.983
 3027SOL    HW110914   6.310   7.094   2.901
 3027SOL    HW210915   6.422   7.015   2.965
 3028SOL     OW10916  11.266   1.185   3.711
 3028SOL    HW110917  11.337   1.227   3.760
 3028SOL    HW210918  11.269   1.093   3.739
 3029SOL     OW10919   4.344  11.060   8.205
 3029SOL    HW110920   4.427  11.033   8.165
 3029SOL    HW210921   4.333  11.000   8.279
 3030SOL     OW10922   0.278   0.681   7.518
 3030SOL    HW110923   0.210   0.718   7.573
 3030SOL    HW210924   0.231   0.636   7.447
 3031SOL     OW10925   4.978  12.029   4.877
 3031SOL    HW110926   4.996  11.936   4.860
 3031SOL    HW210927   5.037  12.076   4.819
 3032SOL     OW10928  11.335   4.774  10.288
 3032SOL    HW110929  11.316   4.709  10.356
 3032SOL    HW210930  11.250   4.794  10.249
 3033SOL     OW10931  14.656   2.988   1.641
 3033SOL    HW110932  14.641   3.027   1.555
 3033SOL    HW210933  14.568   2.984   1.681
 3034SOL     OW10934   4.284   0.337   5.488
 3034SOL    HW110935   4.310   0.245   5.485
 3034SOL    HW210936   4.200   0.340   5.442
 3035SOL     OW10937   2.767   6.716   7.171
 3035SOL    HW110938   2.732   6.627   7.168
 3035SOL    HW210939   2.852   6.710   7.127
 3036SOL     OW10940  13.305  12.839   4.908
 3036SOL    HW110941  13.365  12.769   4.932
 3036SOL    HW210942  13.361  12.916   4.896
 3037SOL     OW10943   7.174  12.588   0.916
 3037SOL    HW110944   7.129  12.657   0.868
 3037SOL    HW210945   7.212  12.633   0.992
 3038SOL     OW10946  13.401   5.775  14.136
 3038SOL    HW110947  13.316   5.733  14.149
 3038SOL    HW210948  13.432   5.795  14.224
 3039SOL     OW10949   5.951   4.061   0.847
 3039SOL    HW110950   6.012   4.080   0.918
 3039SOL    HW210951   5.893   4.137   0.844
 3040SOL     OW10952  10.228   3.742  14.823
 3040SOL    HW110953  10.180   3.689   0.014
 3040SOL    HW210954  10.207   3.703  14.739
 3041SOL     OW10955   2.971   1.198   6.330
 3041SOL    HW110956   3.003   1.158   6.410
 3041SOL    HW210957   3.014   1.284   6.327
 3042SOL     OW10958   3.195  11.078  11.124
 3042SOL    HW110959   3.138  11.010  11.159
 3042SOL    HW210960   3.170  11.157  11.172
 3043SOL     OW10961  11.514   4.929  12.336
 3043SOL    HW110962  11.481   4.891  12.418
 3043SOL    HW210963  11.444   4.915  12.273
 3044SOL     OW10964   0.320   6.348   6.608
 3044SOL    HW110965   0.389   6.296   6.649
 3044SOL    HW210966   0.254   6.359   6.677
 3045SOL     OW10967   9.580   0.051   1.406
 3045SOL    HW110968   9.668   0.056   1.370
 3045SOL    HW210969   9.587   0.090   1.494
 3046SOL     OW10970   4.689   4.390   8.826
 3046SOL    HW110971   4.641   4.462   8.785
 3046SOL    HW210972   4.631   4.359   8.895
 3047SOL     OW10973   1.121   6.145   9.583
 3047SOL    HW110974   1.045   6.122   9.530
 3047SOL    HW210975   1.191   6.160   9.520
 3048SOL     OW10976   4.254   2.077   0.268
 3048SOL    HW110977   4.159   2.066   0.258
 3048SOL    HW210978   4.263   2.160   0.315
 3049SOL     OW10979   9.111   8.824   5.630
 3049SOL    HW110980   9.135   8.843   5.721
 3049SOL    HW210981   9.016   8.834   5.628
 3050SOL     OW10982  11.321   3.744  14.243
 3050SOL    HW110983  11.392   3.802  14.217
 3050SOL    HW210984  11.248   3.802  14.262
 3051SOL     OW10985  13.089   3.045   1.124
 3051SOL    HW110986  12.996   3.020   1.124
 3051SOL    HW210987  13.104   3.079   1.212
 3052SOL     OW10988   2.194   9.504   3.137
 3052SOL    HW110989   2.225   9.571   3.199
 3052SOL    HW210990   2.255   9.432   3.147
 3053SOL     OW10991   5.498   8.081   1.811
 3053SOL    HW110992   5.577   8.092   1.865
 3053SOL    HW210993   5.526   8.103   1.723
 3054SOL     OW10994   6.017  10.601  13.258
 3054SOL    HW110995   6.046  10.613  13.168
 3054SOL    HW210996   6.007  10.690  13.293
 3055SOL     OW10997  13.170   6.372   8.364
 3055SOL    HW110998  13.143   6.364   8.273
 3055SOL    HW210999  13.090   6.396   8.410
 3056SOL     OW11000   1.685  10.347  10.197
 3056SOL    HW111001   1.665  10.254  10.196
 3056SOL    HW211002   1.602  10.390  10.173
 3057SOL     OW11003  12.784  14.346   3.340
 3057SOL    HW111004  12.784  14.392   3.256
 3057SOL    HW211005  12.784  14.415   3.406
 3058SOL     OW11006  10.366  11.591  11.787
 3058SOL    HW111007  10.455  11.571  11.817
 3058SOL    HW211008  10.309  11.541  11.846
 3059SOL     OW11009   1.573   9.250   1.921
 3059SOL    HW111010   1.504   9.193   1.887
 3059SOL    HW211011   1.647   9.237   1.861
 3060SOL     OW11012   8.168   8.192  12.515
 3060SOL    HW111013   8.080   8.163  12.540
 3060SOL    HW211014   8.187   8.266  12.573
 3061SOL     OW11015  12.931   7.882  13.040
 3061SOL    HW111016  12.910   7.953  12.980
 3061SOL    HW211017  13.014   7.846  13.008
 3062SOL     OW11018   8.644   5.661   6.998
 3062SOL    HW111019   8.680   5.586   7.045
 3062SOL    HW211020   8.656   5.735   7.058
 3063SOL     OW11021  12.640   1.987   9.087
 3063SOL    HW111022  12.604   1.958   9.171
 3063SOL    HW211023  12.571   1.967   9.023
 3064SOL     OW11024   8.651   8.578  12.748
 3064SOL    HW111025   8.586   8.549  12.812
 3064SOL    HW211026   8.604   8.637  12.690
 3065SOL     OW11027   7.830   2.848  13.495
 3065SOL    HW111028   7.850   2.758  13.467
 3065SOL    HW211029   7.804   2.892  13.414
 3066SOL     OW11030   9.998   6.016   3.072
 3066SOL    HW111031  10.049   5.946   3.031
 3066SOL    HW211032  10.059   6.056   3.135
 3067SOL     OW11033  14.695   2.504   0.006
 3067SOL    HW111034  14.608   2.543   0.007
 3067SOL    HW211035  14.744   2.553   0.072
 3068SOL     OW11036   1.002  12.068  11.549
 3068SOL    HW111037   1.063  12.026  11.489
 3068SOL    HW211038   1.050  12.074  11.632
 3069SOL     OW11039   8.972   9.815   1.510
 3069SOL    HW111040   8.886   9.774   1.511
 3069SOL    HW211041   9.032   9.746   1.482
 3070SOL     OW11042   5.363   6.669  14.073
 3070SOL    HW111043   5.310   6.748  14.068
 3070SOL    HW211044   5.348   6.624  13.990
 3071SOL     OW11045   3.698  10.641   4.078
 3071SOL    HW111046   3.790  10.624   4.100
 3071SOL    HW211047   3.653  10.560   4.100
 3072SOL     OW11048   6.875   8.841   9.306
 3072SOL    HW111049   6.964   8.817   9.282
 3072SOL    HW211050   6.886   8.908   9.373
 3073SOL     OW11051   3.756   3.898   2.931
 3073SOL    HW111052   3.699   3.972   2.954
 3073SOL    HW211053   3.706   3.821   2.959
 3074SOL     OW11054   8.409   1.119   1.612
 3074SOL    HW111055   8.477   1.185   1.615
 3074SOL    HW211056   8.443   1.047   1.666
 3075SOL     OW11057   1.210   8.395   3.908
 3075SOL    HW111058   1.157   8.452   3.964
 3075SOL    HW211059   1.209   8.310   3.952
 3076SOL     OW11060   4.468   2.707   0.775
 3076SOL    HW111061   4.499   2.797   0.765
 3076SOL    HW211062   4.452   2.677   0.685
 3077SOL     OW11063  11.205  10.025   1.353
 3077SOL    HW111064  11.172  10.085   1.287
 3077SOL    HW211065  11.292   9.999   1.321
 3078SOL     OW11066   1.989   5.955   2.169
 3078SOL    HW111067   1.993   6.019   2.097
 3078SOL    HW211068   1.923   5.990   2.229
 3079SOL     OW11069   4.893  10.436   7.735
 3079SOL    HW111070   4.941  10.518   7.730
 3079SOL    HW211071   4.904  10.408   7.826
 3080SOL     OW11072  14.070  13.773   3.890
 3080SOL    HW111073  14.163  13.794   3.883
 3080SOL    HW211074  14.067  13.692   3.941
 3081SOL     OW11075   8.766   5.489  12.601
 3081SOL    HW111076   8.720   5.483  12.518
 3081SOL    HW211077   8.854   5.455  12.582
 3082SOL     OW11078   5.020   3.341   0.248
 3082SOL    HW111079   5.053   3.259   0.211
 3082SOL    HW211080   5.093   3.375   0.300
 3083SOL     OW11081   8.820   2.154   8.949
 3083SOL    HW111082   8.872   2.135   8.871
 3083SOL    HW211083   8.820   2.073   8.999
 3084SOL     OW11084  13.398  12.680   5.346
 3084SOL    HW111085  13.351  12.759   5.317
 3084SOL    HW211086  13.490  12.699   5.328
 3085SOL     OW11087   6.705   1.098  12.257
 3085SOL    HW111088   6.774   1.103  12.323
 3085SOL    HW211089   6.642   1.166  12.284
 3086SOL     OW11090   7.346   7.842  12.887
 3086SOL    HW111091   7.282   7.817  12.953
 3086SOL    HW211092   7.329   7.935  12.871
 3087SOL     OW11093  10.003   7.535  12.119
 3087SOL    HW111094  10.076   7.569  12.172
 3087SOL    HW211095   9.929   7.533  12.180
 3088SOL     OW11096   4.232   4.947   6.125
 3088SOL    HW111097   4.147   4.989   6.138
 3088SOL    HW211098   4.213   4.871   6.069
 3089SOL     OW11099   7.336  10.867  12.757
 3089SOL    HW111100   7.332  10.946  12.704
 3089SOL    HW211101   7.360  10.798  12.695
 3090SOL     OW11102   4.735  10.515   1.260
 3090SOL    HW111103   4.697  10.553   1.339
 3090SOL    HW211104   4.823  10.487   1.287
 3091SOL     OW11105  11.086   9.274  12.912
 3091SOL    HW111106  11.016   9.213  12.934
 3091SOL    HW211107  11.163   9.218  12.899
 3092SOL     OW11108   8.278   3.643  13.505
 3092SOL    HW111109   8.248   3.642  13.596
 3092SOL    HW211110   8.202   3.674  13.456
 3093SOL     OW11111   1.701   9.770   7.616
 3093SOL    HW111112   1.682   9.806   7.703
 3093SOL    HW211113   1.793   9.743   7.622
 3094SOL     OW11114   9.049   9.097   5.821
 3094SOL    HW111115   9.104   9.146   5.759
 3094SOL    HW211116   9.111   9.061   5.884
 3095SOL     OW11117   9.293   4.179   6.664
 3095SOL    HW111118   9.372   4.128   6.646
 3095SOL    HW211119   9.241   4.173   6.583
 3096SOL     OW11120   6.880   8.306  13.990
 3096SOL    HW111121   6.962   8.355  13.986
 3096SOL    HW211122   6.883   8.248  13.915
 3097SOL     OW11123  14.255   9.486   3.821
 3097SOL    HW111124  14.323   9.552   3.805
 3097SOL    HW211125  14.182   9.536   3.859
 3098SOL     OW11126  10.704  12.593   4.157
 3098SOL    HW111127  10.676  12.512   4.114
 3098SOL    HW211128  10.679  12.581   4.249
 3099SOL     OW11129   8.205   4.647   4.033
 3099SOL    HW111130   8.166   4.639   4.120
 3099SOL    HW211131   8.277   4.709   4.045
 3100SOL     OW11132   9.256   9.465  14.589
 3100SOL    HW111133   9.349   9.480  14.572
 3100SOL    HW211134   9.229   9.401  14.524
 3101SOL     OW11135   9.387   1.762  13.774
 3101SOL    HW111136   9.423   1.850  13.762
 3101SOL    HW211137   9.315   1.774  13.836
 3102SOL     OW11138  11.081   6.202   8.421
 3102SOL    HW111139  11.133   6.139   8.472
 3102SOL    HW211140  11.109   6.287   8.453
 3103SOL     OW11141   9.003  12.211   1.271
 3103SOL    HW111142   9.046  12.252   1.196
 3103SOL    HW211143   9.019  12.271   1.344
 3104SOL     OW11144   0.496  13.764   8.959
 3104SOL    HW111145   0.425  13.825   8.938
 3104SOL    HW211146   0.564  13.784   8.895
 3105SOL     OW11147   3.636   8.479   4.429
 3105SOL    HW111148   3.715   8.439   4.394
 3105SOL    HW211149   3.639   8.570   4.398
 3106SOL     OW11150  11.052   8.806   6.087
 3106SOL    HW111151  11.043   8.753   6.166
 3106SOL    HW211152  11.022   8.893   6.112
 3107SOL     OW11153   1.849   1.375  11.868
 3107SOL    HW111154   1.902   1.339  11.797
 3107SOL    HW211155   1.801   1.300  11.903
 3108SOL     OW11156   5.782   6.885   2.660
 3108SOL    HW111157   5.735   6.890   2.743
 3108SOL    HW211158   5.715   6.867   2.594
 3109SOL     OW11159  12.017  10.236   4.576
 3109SOL    HW111160  11.997  10.265   4.665
 3109SOL    HW211161  11.932  10.218   4.536
 3110SOL     OW11162   3.354   4.187   4.209
 3110SOL    HW111163   3.268   4.212   4.177
 3110SOL    HW211164   3.411   4.260   4.185
 3111SOL     OW11165   6.434   5.800   0.806
 3111SOL    HW111166   6.489   5.841   0.739
 3111SOL    HW211167   6.419   5.870   0.870
 3112SOL     OW11168   6.193   2.427   2.744
 3112SOL    HW111169   6.118   2.487   2.746
 3112SOL    HW211170   6.242   2.448   2.824
 3113SOL     OW11171  14.456   8.501  12.315
 3113SOL    HW111172  14.508   8.421  12.309
 3113SOL    HW211173  14.463   8.528  12.406
 3114SOL     OW11174   3.492   6.865   5.085
 3114SOL    HW111175   3.585   6.849   5.072
 3114SOL    HW211176   3.486   6.959   5.100
 3115SOL     OW11177   4.553   6.955   1.768
 3115SOL    HW111178   4.621   6.915   1.822
 3115SOL    HW211179   4.524   6.884   1.709
 3116SOL     OW11180  10.620  13.270   9.654
 3116SOL    HW111181  10.671  13.196   9.686
 3116SOL    HW211182  10.603  13.250   9.562
 3117SOL     OW11183   8.803   9.760   9.536
 3117SOL    HW111184   8.719   9.719   9.556
 3117SOL    HW211185   8.864   9.686   9.528
 3118SOL     OW11186   3.169  13.998   2.126
 3118SOL    HW111187   3.084  14.016   2.166
 3118SOL    HW211188   3.233  14.023   2.193
 3119SOL     OW11189   8.014  11.961  10.289
 3119SOL    HW111190   8.056  11.957  10.375
 3119SOL    HW211191   7.931  12.007  10.304
 3120SOL     OW11192   3.085   5.464   7.471
 3120SOL    HW111193   3.170   5.492   7.436
 3120SOL    HW211194   3.033   5.545   7.475
 3121SOL     OW11195   7.315  14.677  14.660
 3121SOL    HW111196   7.275  14.726  14.731
 3121SOL    HW211197   7.282  14.718  14.580
 3122SOL     OW11198   0.764   7.005  14.203
 3122SOL    HW111199   0.744   6.918  14.238
 3122SOL    HW211200   0.800   7.053  14.277
 3123SOL     OW11201   4.843  12.131   8.473
 3123SOL    HW111202   4.922  12.082   8.494
 3123SOL    HW211203   4.874  12.219   8.452
 3124SOL     OW11204  11.378   9.667   1.315
 3124SOL    HW111205  11.464   9.668   1.355
 3124SOL    HW211206  11.350   9.576   1.320
 3125SOL     OW11207   5.532   8.968   2.111
 3125SOL    HW111208   5.459   9.003   2.060
 3125SOL    HW211209   5.599   8.949   2.046
 3126SOL     OW11210   5.103   9.826   1.015
 3126SOL    HW111211   5.053   9.745   1.007
 3126SOL    HW211212   5.141   9.839   0.928
 3127SOL     OW11213  11.657   6.610   3.509
 3127SOL    HW111214  11.715   6.556   3.562
 3127SOL    HW211215  11.687   6.700   3.524
 3128SOL     OW11216   3.235   2.308   6.589
 3128SOL    HW111217   3.268   2.220   6.571
 3128SOL    HW211218   3.292   2.365   6.538
 3129SOL     OW11219   1.570  11.390   6.274
 3129SOL    HW111220   1.528  11.306   6.292
 3129SOL    HW211221   1.499  11.448   6.247
 3130SOL     OW11222   3.582   9.670   6.116
 3130SOL    HW111223   3.624   9.585   6.121
 3130SOL    HW211224   3.653   9.733   6.123
 3131SOL     OW11225  12.417  14.872   2.035
 3131SOL    HW111226  12.337   0.051   2.040
 3131SOL    HW211227  12.404  14.802   2.099
 3132SOL     OW11228   8.537   9.301   4.595
 3132SOL    HW111229   8.444   9.283   4.582
 3132SOL    HW211230   8.548   9.392   4.565
 3133SOL     OW11231  11.627   9.228   2.089
 3133SOL    HW111232  11.655   9.297   2.150
 3133SOL    HW211233  11.705   9.175   2.075
 3134SOL     OW11234   3.434  11.702   5.658
 3134SOL    HW111235   3.426  11.756   5.579
 3134SOL    HW211236   3.419  11.612   5.627
 3135SOL     OW11237   7.376   3.323   5.408
 3135SOL    HW111238   7.345   3.326   5.318
 3135SOL    HW211239   7.412   3.411   5.423
 3136SOL     OW11240   0.648   0.153   6.443
 3136SOL    HW111241   0.590   0.179   6.514
 3136SOL    HW211242   0.633   0.059   6.433
 3137SOL     OW11243   3.181   6.898   8.304
 3137SOL    HW111244   3.172   6.931   8.394
 3137SOL    HW211245   3.093   6.905   8.267
 3138SOL     OW11246   7.279   3.574   3.036
 3138SOL    HW111247   7.245   3.661   3.059
 3138SOL    HW211248   7.307   3.583   2.945
 3139SOL     OW11249   8.340   6.861   3.223
 3139SOL    HW111250   8.324   6.767   3.236
 3139SOL    HW211251   8.386   6.888   3.302
 3140SOL     OW11252  11.636   7.675   0.479
 3140SOL    HW111253  11.571   7.738   0.448
 3140SOL    HW211254  11.613   7.659   0.570
 3141SOL     OW11255   7.347   4.232   3.060
 3141SOL    HW111256   7.283   4.222   3.131
 3141SOL    HW211257   7.373   4.324   3.064
 3142SOL     OW11258   7.622  12.162  11.572
 3142SOL    HW111259   7.528  12.151  11.560
 3142SOL    HW211260   7.634  12.168  11.667
 3143SOL     OW11261  13.779   0.656   5.080
 3143SOL    HW111262  13.786   0.561   5.085
 3143SOL    HW211263  13.744   0.683   5.165
 3144SOL     OW11264   0.783   2.702   7.190
 3144SOL    HW111265   0.846   2.630   7.178
 3144SOL    HW211266   0.738   2.708   7.105
 3145SOL     OW11267   5.039   4.369   6.825
 3145SOL    HW111268   5.122   4.415   6.816
 3145SOL    HW211269   4.981   4.411   6.761
 3146SOL     OW11270  12.911  14.645   9.564
 3146SOL    HW111271  12.892  14.717   9.503
 3146SOL    HW211272  13.007  14.646   9.573
 3147SOL     OW11273   1.602   8.285   5.777
 3147SOL    HW111274   1.693   8.260   5.790
 3147SOL    HW211275   1.574   8.233   5.701
 3148SOL     OW11276   6.716   5.108   8.906
 3148SOL    HW111277   6.704   5.160   8.985
 3148SOL    HW211278   6.810   5.115   8.887
 3149SOL     OW11279  13.921   7.885  11.604
 3149SOL    HW111280  13.892   7.889  11.695
 3149SOL    HW211281  13.846   7.851  11.556
 3150SOL     OW11282   8.548  12.771   5.304
 3150SOL    HW111283   8.607  12.802   5.236
 3150SOL    HW211284   8.481  12.839   5.311
 3151SOL     OW11285   3.410  13.871  13.404
 3151SOL    HW111286   3.464  13.797  13.379
 3151SOL    HW211287   3.393  13.917  13.321
 3152SOL     OW11288   6.962   4.451   3.037
 3152SOL    HW111289   7.044   4.488   3.070
 3152SOL    HW211290   6.931   4.515   2.973
 3153SOL     OW11291  11.503   9.083  10.914
 3153SOL    HW111292  11.598   9.085  10.911
 3153SOL    HW211293  11.481   8.992  10.932
 3154SOL     OW11294  14.382   5.193   6.749
 3154SOL    HW111295  14.424   5.176   6.833
 3154SOL    HW211296  14.425   5.132   6.689
 3155SOL     OW11297   8.898   4.053   5.847
 3155SOL    HW111298   8.981   4.100   5.841
 3155SOL    HW211299   8.845   4.106   5.906
 3156SOL     OW11300   3.273   2.808  14.002
 3156SOL    HW111301   3.364   2.779  14.007
 3156SOL    HW211302   3.270   2.868  13.927
 3157SOL     OW11303   6.459   4.600   2.574
 3157SOL    HW111304   6.374   4.621   2.613
 3157SOL    HW211305   6.510   4.681   2.581
 3158SOL     OW11306  10.620   2.846  13.967
 3158SOL    HW111307  10.677   2.916  13.935
 3158SOL    HW211308  10.532   2.873  13.940
 3159SOL     OW11309  12.711   5.688  13.778
 3159SOL    HW111310  12.643   5.681  13.710
 3159SOL    HW211311  12.793   5.674  13.730
 3160SOL     OW11312   0.854   4.393   0.413
 3160SOL    HW111313   0.947   4.380   0.394
 3160SOL    HW211314   0.836   4.482   0.382
 3161SOL     OW11315   8.727   1.544   6.701
 3161SOL    HW111316   8.658   1.611   6.702
 3161SOL    HW211317   8.784   1.567   6.774
 3162SOL     OW11318  10.824  10.149   2.498
 3162SOL    HW111319  10.812  10.055   2.512
 3162SOL    HW211320  10.899  10.156   2.439
 3163SOL     OW11321   3.951   0.420   3.793
 3163SOL    HW111322   3.876   0.361   3.784
 3163SOL    HW211323   3.930   0.472   3.871
 3164SOL     OW11324   7.831   4.370  12.362
 3164SOL    HW111325   7.745   4.349  12.398
 3164SOL    HW211326   7.836   4.465  12.364
 3165SOL     OW11327   9.399  11.594   6.082
 3165SOL    HW111328   9.465  11.630   6.141
 3165SOL    HW211329   9.342  11.542   6.138
 3166SOL     OW11330   7.147   3.722   7.324
 3166SOL    HW111331   7.112   3.801   7.284
 3166SOL    HW211332   7.241   3.726   7.308
 3167SOL     OW11333   4.153  13.965   2.895
 3167SOL    HW111334   4.117  13.878   2.910
 3167SOL    HW211335   4.201  13.957   2.812
 3168SOL     OW11336   3.450   8.429  10.681
 3168SOL    HW111337   3.494   8.346  10.695
 3168SOL    HW211338   3.445   8.438  10.586
 3169SOL     OW11339   2.841   5.543   2.795
 3169SOL    HW111340   2.896   5.619   2.812
 3169SOL    HW211341   2.823   5.506   2.882
 3170SOL     OW11342  14.269   9.959   0.424
 3170SOL    HW111343  14.213  10.020   0.376
 3170SOL    HW211344  14.218   9.878   0.429
 3171SOL     OW11345   3.317  13.840   5.274
 3171SOL    HW111346   3.369  13.919   5.284
 3171SOL    HW211347   3.265  13.835   5.355
 3172SOL     OW11348   7.774   4.730  11.348
 3172SOL    HW111349   7.858   4.713  11.389
 3172SOL    HW211350   7.795   4.779  11.268
 3173SOL     OW11351   7.427   4.282   2.712
 3173SOL    HW111352   7.438   4.289   2.617
 3173SOL    HW211353   7.343   4.325   2.729
 3174SOL     OW11354   2.498   4.271   3.303
 3174SOL    HW111355   2.573   4.326   3.328
 3174SOL    HW211356   2.422   4.317   3.339
 3175SOL     OW11357   7.894  10.441   6.116
 3175SOL    HW111358   7.826  10.471   6.176
 3175SOL    HW211359   7.928  10.520   6.076
 3176SOL     OW11360   9.038   0.747   4.620
 3176SOL    HW111361   8.943   0.745   4.630
 3176SOL    HW211362   9.053   0.789   4.536
 3177SOL     OW11363   8.832   8.927   7.228
 3177SOL    HW111364   8.918   8.887   7.219
 3177SOL    HW211365   8.827   8.992   7.158
 3178SOL     OW11366   5.237  10.876  10.656
 3178SOL    HW111367   5.325  10.849  10.682
 3178SOL    HW211368   5.237  10.872  10.561
 3179SOL     OW11369   6.956  11.922   9.552
 3179SOL    HW111370   6.973  11.983   9.624
 3179SOL    HW211371   6.997  11.963   9.476
 3180SOL     OW11372  11.429   3.451   8.688
 3180SOL    HW111373  11.469   3.434   8.773
 3180SOL    HW211374  11.463   3.536   8.662
 3181SOL     OW11375  10.872   7.964   5.807
 3181SOL    HW111376  10.945   8.025   5.815
 3181SOL    HW211377  10.795   8.016   5.833
 3182SOL     OW11378   9.676   4.905   3.303
 3182SOL    HW111379   9.675   4.931   3.211
 3182SOL    HW211380   9.585   4.882   3.322
 3183SOL     OW11381   3.411   8.352   5.184
 3183SOL    HW111382   3.415   8.281   5.248
 3183SOL    HW211383   3.442   8.429   5.231
 3184SOL     OW11384   5.023   5.156   4.562
 3184SOL    HW111385   4.935   5.165   4.598
 3184SOL    HW211386   5.057   5.245   4.559
 3185SOL     OW11387   7.083   2.282   2.044
 3185SOL    HW111388   7.114   2.339   2.113
 3185SOL    HW211389   7.163   2.248   2.003
 3186SOL     OW11390   9.482   0.392   7.306
 3186SOL    HW111391   9.420   0.319   7.308
 3186SOL    HW211392   9.565   0.355   7.336
 3187SOL     OW11393   5.434  10.872   8.276
 3187SOL    HW111394   5.340  10.883   8.260
 3187SOL    HW211395   5.477  10.909   8.199
 3188SOL     OW11396   2.906   1.793   4.803
 3188SOL    HW111397   2.946   1.706   4.800
 3188SOL    HW211398   2.977   1.853   4.782
 3189SOL     OW11399   9.490  10.995   4.641
 3189SOL    HW111400   9.400  11.027   4.628
 3189SOL    HW211401   9.511  11.018   4.731
 3190SOL     OW11402  11.806   3.432  11.724
 3190SOL    HW111403  11.821   3.408  11.815
 3190SOL    HW211404  11.731   3.379  11.698
 3191SOL     OW11405  10.929   5.748  13.400
 3191SOL    HW111406  10.926   5.656  13.373
 3191SOL    HW211407  11.007   5.783  13.357
 3192SOL     OW11408  14.366   8.144  14.669
 3192SOL    HW111409  14.343   8.126  14.760
 3192SOL    HW211410  14.295   8.199  14.636
 3193SOL     OW11411  11.141   7.872   1.261
 3193SOL    HW111412  11.083   7.856   1.187
 3193SOL    HW211413  11.093   7.841   1.337
 3194SOL     OW11414   0.513  11.151  12.721
 3194SOL    HW111415   0.567  11.075  12.700
 3194SOL    HW211416   0.573  11.212  12.763
 3195SOL     OW11417   3.106   4.602  11.770
 3195SOL    HW111418   3.027   4.612  11.717
 3195SOL    HW211419   3.169   4.664  11.732
 3196SOL     OW11420   4.517  13.429   5.288
 3196SOL    HW111421   4.592  13.374   5.307
 3196SOL    HW211422   4.487  13.459   5.375
 3197SOL     OW11423   8.163   6.946  12.658
 3197SOL    HW111424   8.149   6.879  12.725
 3197SOL    HW211425   8.166   6.898  12.576
 3198SOL     OW11426   2.462   7.624   4.433
 3198SOL    HW111427   2.406   7.569   4.487
 3198SOL    HW211428   2.403   7.666   4.371
 3199SOL     OW11429   1.836  13.386   5.881
 3199SOL    HW111430   1.858  13.478   5.889
 3199SOL    HW211431   1.916  13.344   5.850
 3200SOL     OW11432   6.466  13.380  11.740
 3200SOL    HW111433   6.541  13.336  11.779
 3200SOL    HW211434   6.402  13.387  11.811
 3201SOL     OW11435   1.576   6.509  14.623
 3201SOL    HW111436   1.536   6.560  14.553
 3201SOL    HW211437   1.656   6.557  14.645
 3202SOL     OW11438   5.979   2.882   8.495
 3202SOL    HW111439   6.001   2.947   8.562
 3202SOL    HW211440   6.014   2.800   8.529
 3203SOL     OW11441   4.074   8.274   0.846
 3203SOL    HW111442   3.997   8.302   0.796
 3203SOL    HW211443   4.064   8.180   0.855
 3204SOL     OW11444  12.373  13.923  12.854
 3204SOL    HW111445  12.437  13.937  12.785
 3204SOL    HW211446  12.291  13.907  12.807
 3205SOL     OW11447   9.033   3.081   9.611
 3205SOL    HW111448   9.033   3.035   9.695
 3205SOL    HW211449   9.096   3.152   9.622
 3206SOL     OW11450   9.117   1.385   1.159
 3206SOL    HW111451   9.079   1.344   1.237
 3206SOL    HW211452   9.085   1.331   1.087
 3207SOL     OW11453  12.760   7.094  12.222
 3207SOL    HW111454  12.844   7.078  12.265
 3207SOL    HW211455  12.699   7.032  12.263
 3208SOL     OW11456   6.617  14.314   7.573
 3208SOL    HW111457   6.709  14.319   7.600
 3208SOL    HW211458   6.614  14.363   7.491
 3209SOL     OW11459   8.313  13.210  10.427
 3209SOL    HW111460   8.314  13.166  10.512
 3209SOL    HW211461   8.220  13.221  10.407
 3210SOL     OW11462  10.446  14.373   3.448
 3210SOL    HW111463  10.537  14.404   3.455
 3210SOL    HW211464  10.393  14.452   3.459
 3211SOL     OW11465  12.408  10.221  10.724
 3211SOL    HW111466  12.354  10.300  10.732
 3211SOL    HW211467  12.484  10.249  10.672
 3212SOL     OW11468  13.787  13.290   3.725
 3212SOL    HW111469  13.731  13.364   3.700
 3212SOL    HW211470  13.757  13.266   3.813
 3213SOL     OW11471   4.917  11.410   7.954
 3213SOL    HW111472   4.976  11.464   7.902
 3213SOL    HW211473   4.959  11.403   8.040
 3214SOL     OW11474   2.531   8.337   7.890
 3214SOL    HW111475   2.584   8.392   7.832
 3214SOL    HW211476   2.582   8.331   7.971
 3215SOL     OW11477  11.832  11.375   4.791
 3215SOL    HW111478  11.921  11.355   4.821
 3215SOL    HW211479  11.835  11.468   4.768
 3216SOL     OW11480   4.035   6.999  10.411
 3216SOL    HW111481   3.994   7.058  10.348
 3216SOL    HW211482   4.126   7.028  10.416
 3217SOL     OW11483   7.518   7.293  10.243
 3217SOL    HW111484   7.431   7.262  10.268
 3217SOL    HW211485   7.574   7.268  10.317
 3218SOL     OW11486   1.922   1.654   3.336
 3218SOL    HW111487   1.910   1.747   3.314
 3218SOL    HW211488   1.847   1.632   3.391
 3219SOL     OW11489  13.934   5.931  14.758
 3219SOL    HW111490  14.011   5.976  14.793
 3219SOL    HW211491  13.864   5.952  14.819
 3220SOL     OW11492  14.282  10.739  13.306
 3220SOL    HW111493  14.257  10.772  13.393
 3220SOL    HW211494  14.347  10.671  13.324
 3221SOL     OW11495   7.597  14.595   9.015
 3221SOL    HW111496   7.516  14.624   8.973
 3221SOL    HW211497   7.637  14.535   8.952
 3222SOL     OW11498  14.852  10.788   9.585
 3222SOL    HW111499   0.016  10.829   9.663
 3222SOL    HW211500  14.852  10.695   9.605
 3223SOL     OW11501   3.327   4.364   2.785
 3223SOL    HW111502   3.357   4.453   2.805
 3223SOL    HW211503   3.405   4.310   2.795
 3224SOL     OW11504  10.973   6.172   1.453
 3224SOL    HW111505  11.001   6.233   1.521
 3224SOL    HW211506  11.048   6.114   1.440
 3225SOL     OW11507   5.475  13.442   0.775
 3225SOL    HW111508   5.558  13.425   0.731
 3225SOL    HW211509   5.413  13.383   0.733
 3226SOL     OW11510   7.823   1.242   0.238
 3226SOL    HW111511   7.890   1.178   0.213
 3226SOL    HW211512   7.843   1.263   0.329
 3227SOL     OW11513   3.128   7.046  14.644
 3227SOL    HW111514   3.036   7.024  14.661
 3227SOL    HW211515   3.177   6.993  14.707
 3228SOL     OW11516   1.534   3.110   2.954
 3228SOL    HW111517   1.513   3.017   2.960
 3228SOL    HW211518   1.604   3.115   2.889
 3229SOL     OW11519   6.345   0.533  13.125
 3229SOL    HW111520   6.354   0.444  13.161
 3229SOL    HW211521   6.279   0.524  13.055
 3230SOL     OW11522   5.803  12.920   8.555
 3230SOL    HW111523   5.883  12.933   8.505
 3230SOL    HW211524   5.792  13.002   8.603
 3231SOL     OW11525   9.889  10.503  12.781
 3231SOL    HW111526   9.887  10.563  12.706
 3231SOL    HW211527   9.863  10.418  12.745
 3232SOL     OW11528   9.279  12.477   5.760
 3232SOL    HW111529   9.248  12.527   5.684
 3232SOL    HW211530   9.354  12.528   5.792
 3233SOL     OW11531   0.988  10.726  14.027
 3233SOL    HW111532   1.035  10.810  14.026
 3233SOL    HW211533   1.057  10.660  14.031
 3234SOL     OW11534  13.831   2.015   3.667
 3234SOL    HW111535  13.780   2.096   3.673
 3234SOL    HW211536  13.784   1.962   3.603
 3235SOL     OW11537   8.378   2.206   2.653
 3235SOL    HW111538   8.424   2.167   2.727
 3235SOL    HW211539   8.443   2.211   2.583
 3236SOL     OW11540  13.150  10.717   3.664
 3236SOL    HW111541  13.079  10.774   3.694
 3236SOL    HW211542  13.227  10.773   3.662
 3237SOL     OW11543   7.396  12.827  11.644
 3237SOL    HW111544   7.464  12.865  11.589
 3237SOL    HW211545   7.316  12.871  11.617
 3238SOL     OW11546   6.357   1.773   0.691
 3238SOL    HW111547   6.325   1.684   0.702
 3238SOL    HW211548   6.424   1.766   0.622
 3239SOL     OW11549  10.837   2.101   0.781
 3239SOL    HW111550  10.760   2.100   0.723
 3239SOL    HW211551  10.886   2.022   0.757
 3240SOL     OW11552  11.513   6.404   2.426
 3240SOL    HW111553  11.563   6.323   2.436
 3240SOL    HW211554  11.477   6.421   2.513
 3241SOL     OW11555   6.951   0.666   6.291
 3241SOL    HW111556   6.987   0.595   6.238
 3241SOL    HW211557   6.939   0.627   6.378
 3242SOL     OW11558  12.033  13.031   8.327
 3242SOL    HW111559  12.097  13.036   8.257
 3242SOL    HW211560  12.078  12.984   8.397
 3243SOL     OW11561  11.194   8.762   5.853
 3243SOL    HW111562  11.172   8.749   5.946
 3243SOL    HW211563  11.127   8.711   5.806
 3244SOL     OW11564  14.617   9.884  11.327
 3244SOL    HW111565  14.547   9.829  11.291
 3244SOL    HW211566  14.598   9.889  11.421
 3245SOL     OW11567   3.274   8.404   1.155
 3245SOL    HW111568   3.269   8.410   1.250
 3245SOL    HW211569   3.206   8.340   1.132
 3246SOL     OW11570   8.064   8.504   8.594
 3246SOL    HW111571   8.047   8.455   8.674
 3246SOL    HW211572   8.160   8.511   8.590
 3247SOL     OW11573  10.020   4.895   7.658
 3247SOL    HW111574  10.007   4.988   7.640
 3247SOL    HW211575   9.937   4.854   7.636
 3248SOL     OW11576  13.213  12.609  12.007
 3248SOL    HW111577  13.290  12.636  11.958
 3248SOL    HW211578  13.171  12.690  12.033
 3249SOL     OW11579   1.668   1.942  13.463
 3249SOL    HW111580   1.651   1.906  13.550
 3249SOL    HW211581   1.680   1.865  13.407
 3250SOL     OW11582   0.546   5.282   5.243
 3250SOL    HW111583   0.593   5.249   5.319
 3250SOL    HW211584   0.598   5.356   5.212
 3251SOL     OW11585  11.928   9.961  10.344
 3251SOL    HW111586  11.976   9.902  10.402
 3251SOL    HW211587  11.921   9.913  10.261
 3252SOL     OW11588  14.421   1.366   3.591
 3252SOL    HW111589  14.469   1.294   3.549
 3252SOL    HW211590  14.334   1.362   3.552
 3253SOL     OW11591   0.067  13.611   1.394
 3253SOL    HW111592   0.106  13.641   1.312
 3253SOL    HW211593   0.001  13.678   1.415
 3254SOL     OW11594   5.274   7.692  13.441
 3254SOL    HW111595   5.203   7.741  13.400
 3254SOL    HW211596   5.256   7.601  13.422
 3255SOL     OW11597   0.401  11.309   7.028
 3255SOL    HW111598   0.375  11.250   7.098
 3255SOL    HW211599   0.452  11.255   6.968
 3256SOL     OW11600   4.851  11.033   2.713
 3256SOL    HW111601   4.868  11.126   2.698
 3256SOL    HW211602   4.800  11.031   2.794
 3257SOL     OW11603  13.535   1.933   4.915
 3257SOL    HW111604  13.594   1.940   4.840
 3257SOL    HW211605  13.582   1.876   4.977
 3258SOL     OW11606  12.819   9.067  13.344
 3258SOL    HW111607  12.855   9.146  13.385
 3258SOL    HW211608  12.844   9.074  13.252
 3259SOL     OW11609   6.894   1.734  10.882
 3259SOL    HW111610   6.897   1.643  10.913
 3259SOL    HW211611   6.981   1.750  10.845
 3260SOL     OW11612   4.252  13.731  13.235
 3260SOL    HW111613   4.160  13.729  13.260
 3260SOL    HW211614   4.279  13.639  13.234
 3261SOL     OW11615  10.599   5.212  10.255
 3261SOL    HW111616  10.512   5.242  10.280
 3261SOL    HW211617  10.609   5.128  10.300
 3262SOL     OW11618   9.380   4.569   6.133
 3262SOL    HW111619   9.290   4.536   6.125
 3262SOL    HW211620   9.373   4.663   6.118
 3263SOL     OW11621  14.152   2.740   5.196
 3263SOL    HW111622  14.096   2.818   5.201
 3263SOL    HW211623  14.226   2.767   5.142
 3264SOL     OW11624   2.811   4.012   6.553
 3264SOL    HW111625   2.815   3.917   6.543
 3264SOL    HW211626   2.900   4.038   6.573
 3265SOL     OW11627   3.840   3.684   5.341
 3265SOL    HW111628   3.856   3.756   5.281
 3265SOL    HW211629   3.746   3.687   5.358
 3266SOL     OW11630   7.741   3.011  12.569
 3266SOL    HW111631   7.656   3.048  12.591
 3266SOL    HW211632   7.784   3.079  12.518
 3267SOL     OW11633  12.054   9.989  12.514
 3267SOL    HW111634  12.035   9.946  12.598
 3267SOL    HW211635  12.108  10.065  12.538
 3268SOL     OW11636   3.538  13.028   7.540
 3268SOL    HW111637   3.555  13.106   7.593
 3268SOL    HW211638   3.604  12.965   7.569
 3269SOL     OW11639   2.472  13.583   5.761
 3269SOL    HW111640   2.488  13.534   5.842
 3269SOL    HW211641   2.410  13.652   5.787
 3270SOL     OW11642   9.400   9.924   6.179
 3270SOL    HW111643   9.413   9.855   6.114
 3270SOL    HW211644   9.310   9.954   6.165
 3271SOL     OW11645   4.668  10.271   7.724
 3271SOL    HW111646   4.642  10.260   7.816
 3271SOL    HW211647   4.744  10.329   7.728
 3272SOL     OW11648   1.029   0.023  12.015
 3272SOL    HW111649   0.940   0.027  11.981
 3272SOL    HW211650   1.040   0.104  12.064
 3273SOL     OW11651   3.209  11.795  12.125
 3273SOL    HW111652   3.176  11.810  12.214
 3273SOL    HW211653   3.186  11.875  12.077
 3274SOL     OW11654  10.688   3.530  10.540
 3274SOL    HW111655  10.783   3.539  10.535
 3274SOL    HW211656  10.664   3.576  10.620
 3275SOL     OW11657  12.707   2.075   2.731
 3275SOL    HW111658  12.622   2.090   2.774
 3275SOL    HW211659  12.767   2.133   2.778
 3276SOL     OW11660   7.590   7.529   0.971
 3276SOL    HW111661   7.677   7.561   0.948
 3276SOL    HW211662   7.590   7.526   1.067
 3277SOL     OW11663  10.556   0.993  12.741
 3277SOL    HW111664  10.517   0.914  12.704
 3277SOL    HW211665  10.490   1.024  12.804
 3278SOL     OW11666  11.033  12.197   1.463
 3278SOL    HW111667  11.041  12.175   1.370
 3278SOL    HW211668  10.975  12.273   1.464
 3279SOL     OW11669  11.020   5.996   7.879
 3279SOL    HW111670  10.934   5.954   7.878
 3279SOL    HW211671  11.071   5.947   7.943
 3280SOL     OW11672   0.445  14.832   5.282
 3280SOL    HW111673   0.459  14.848   5.189
 3280SOL    HW211674   0.481  14.745   5.297
 3281SOL     OW11675   2.733   1.961  10.742
 3281SOL    HW111676   2.709   1.938  10.653
 3281SOL    HW211677   2.654   1.941  10.793
 3282SOL     OW11678   4.603   2.127   7.845
 3282SOL    HW111679   4.542   2.184   7.799
 3282SOL    HW211680   4.609   2.049   7.791
 3283SOL     OW11681  12.726  14.569  13.266
 3283SOL    HW111682  12.764  14.607  13.187
 3283SOL    HW211683  12.632  14.571  13.252
 3284SOL     OW11684  10.135  12.788   8.748
 3284SOL    HW111685  10.050  12.831   8.753
 3284SOL    HW211686  10.114  12.695   8.735
 3285SOL     OW11687  11.007   6.200   3.703
 3285SOL    HW111688  10.937   6.262   3.680
 3285SOL    HW211689  10.961   6.124   3.738
 3286SOL     OW11690   5.217   6.318   7.522
 3286SOL    HW111691   5.239   6.370   7.599
 3286SOL    HW211692   5.290   6.332   7.462
 3287SOL     OW11693  12.951   4.926   2.107
 3287SOL    HW111694  12.893   4.852   2.086
 3287SOL    HW211695  12.973   4.914   2.199
 3288SOL     OW11696  13.372   8.268  13.074
 3288SOL    HW111697  13.397   8.242  12.985
 3288SOL    HW211698  13.351   8.186  13.118
 3289SOL     OW11699   9.436  10.498  12.760
 3289SOL    HW111700   9.476  10.541  12.684
 3289SOL    HW211701   9.342  10.503  12.744
 3290SOL     OW11702   1.378  11.925   3.704
 3290SOL    HW111703   1.355  11.858   3.768
 3290SOL    HW211704   1.453  11.971   3.742
 3291SOL     OW11705   1.556  10.511   6.109
 3291SOL    HW111706   1.633  10.550   6.151
 3291SOL    HW211707   1.590  10.474   6.028
 3292SOL     OW11708   3.267  10.017   2.095
 3292SOL    HW111709   3.351  10.008   2.048
 3292SOL    HW211710   3.264   9.940   2.152
 3293SOL     OW11711  11.233   4.624   4.612
 3293SOL    HW111712  11.202   4.622   4.521
 3293SOL    HW211713  11.154   4.630   4.665
 3294SOL     OW11714   4.077  13.265   4.208
 3294SOL    HW111715   4.019  13.342   4.210
 3294SOL    HW211716   4.149  13.289   4.267
 3295SOL     OW11717   9.961   9.892  14.336
 3295SOL    HW111718   9.989   9.938  14.415
 3295SOL    HW211719   9.979   9.953  14.265
 3296SOL     OW11720   2.878   7.537   1.096
 3296SOL    HW111721   2.935   7.589   1.154
 3296SOL    HW211722   2.815   7.600   1.062
 3297SOL     OW11723   0.124  11.702   6.848
 3297SOL    HW111724   0.103  11.609   6.845
 3297SOL    HW211725   0.067  11.737   6.916
 3298SOL     OW11726   3.308   7.944   5.184
 3298SOL    HW111727   3.215   7.964   5.180
 3298SOL    HW211728   3.331   7.921   5.094
 3299SOL     OW11729  11.161  14.025  11.754
 3299SOL    HW111730  11.142  14.089  11.823
 3299SOL    HW211731  11.205  13.953  11.800
 3300SOL     OW11732  11.042  14.500   3.352
 3300SOL    HW111733  11.069  14.506   3.444
 3300SOL    HW211734  11.045  14.590   3.321
 3301SOL     OW11735  12.946   5.458   3.799
 3301SOL    HW111736  12.892   5.532   3.771
 3301SOL    HW211737  12.906   5.430   3.882
 3302SOL     OW11738   8.925   0.855   3.277
 3302SOL    HW111739   8.883   0.914   3.340
 3302SOL    HW211740   8.973   0.913   3.218
 3303SOL     OW11741   5.300   3.192   1.315
 3303SOL    HW111742   5.299   3.280   1.353
 3303SOL    HW211743   5.309   3.133   1.389
 3304SOL     OW11744   9.125   7.293  13.205
 3304SOL    HW111745   9.219   7.306  13.211
 3304SOL    HW211746   9.106   7.224  13.268
 3305SOL     OW11747   0.368   4.883   8.825
 3305SOL    HW111748   0.446   4.894   8.880
 3305SOL    HW211749   0.343   4.792   8.837
 3306SOL     OW11750   8.166   0.965   4.743
 3306SOL    HW111751   8.107   0.962   4.818
 3306SOL    HW211752   8.127   0.906   4.679
 3307SOL     OW11753  12.603  14.461  14.038
 3307SOL    HW111754  12.541  14.533  14.026
 3307SOL    HW211755  12.550  14.389  14.071
 3308SOL     OW11756  12.669   0.198   3.635
 3308SOL    HW111757  12.686   0.118   3.585
 3308SOL    HW211758  12.737   0.199   3.702
 3309SOL     OW11759   5.981  11.132   5.061
 3309SOL    HW111760   5.895  11.090   5.058
 3309SOL    HW211761   5.998  11.159   4.971
 3310SOL     OW11762  13.818   1.147   6.234
 3310SOL    HW111763  13.836   1.220   6.292
 3310SOL    HW211764  13.891   1.086   6.249
 3311SOL     OW11765   8.552   9.044  11.877
 3311SOL    HW111766   8.537   9.084  11.963
 3311SOL    HW211767   8.495   9.091  11.818
 3312SOL     OW11768   8.569   7.090   6.287
 3312SOL    HW111769   8.606   7.021   6.342
 3312SOL    HW211770   8.553   7.047   6.203
 3313SOL     OW11771  14.672   4.309   9.807
 3313SOL    HW111772  14.696   4.310   9.714
 3313SOL    HW211773  14.640   4.221   9.823
 3314SOL     OW11774   1.371   3.094   9.886
 3314SOL    HW111775   1.396   3.185   9.870
 3314SOL    HW211776   1.399   3.048   9.808
 3315SOL     OW11777  10.599   9.231  10.744
 3315SOL    HW111778  10.679   9.194  10.705
 3315SOL    HW211779  10.528   9.177  10.709
 3316SOL     OW11780   9.525   8.278   9.973
 3316SOL    HW111781   9.583   8.206   9.950
 3316SOL    HW211782   9.578   8.356   9.963
 3317SOL     OW11783  10.600   7.203  11.835
 3317SOL    HW111784  10.516   7.241  11.811
 3317SOL    HW211785  10.628   7.255  11.911
 3318SOL     OW11786   9.140   7.156   4.653
 3318SOL    HW111787   9.073   7.102   4.694
 3318SOL    HW211788   9.219   7.101   4.656
 3319SOL     OW11789   9.670  10.786  12.127
 3319SOL    HW111790   9.755  10.765  12.087
 3319SOL    HW211791   9.617  10.708  12.111
 3320SOL     OW11792  14.196  10.998   2.057
 3320SOL    HW111793  14.241  10.913   2.064
 3320SOL    HW211794  14.266  11.062   2.067
 3321SOL     OW11795   9.729   5.546  14.817
 3321SOL    HW111796   9.813   5.559  14.863
 3321SOL    HW211797   9.677   5.623  14.841
 3322SOL     OW11798  10.926   8.287   2.717
 3322SOL    HW111799  10.925   8.359   2.780
 3322SOL    HW211800  11.019   8.272   2.700
 3323SOL     OW11801   2.071  12.186  13.783
 3323SOL    HW111802   2.072  12.156  13.874
 3323SOL    HW211803   2.110  12.113  13.733
 3324SOL     OW11804   2.777   2.991   3.024
 3324SOL    HW111805   2.711   2.927   3.051
 3324SOL    HW211806   2.750   3.073   3.066
 3325SOL     OW11807  14.627   5.375   8.419
 3325SOL    HW111808  14.649   5.412   8.334
 3325SOL    HW211809  14.697   5.405   8.477
 3326SOL     OW11810   8.213   3.236   6.275
 3326SOL    HW111811   8.215   3.234   6.370
 3326SOL    HW211812   8.220   3.144   6.249
 3327SOL     OW11813  13.138   2.124  11.874
 3327SOL    HW111814  13.194   2.049  11.857
 3327SOL    HW211815  13.100   2.107  11.960
 3328SOL     OW11816  10.419  12.224   7.951
 3328SOL    HW111817  10.386  12.313   7.960
 3328SOL    HW211818  10.504  12.225   7.995
 3329SOL     OW11819  14.786   4.402   3.017
 3329SOL    HW111820  14.856   4.467   3.019
 3329SOL    HW211821  14.716   4.441   3.070
 3330SOL     OW11822   3.249  11.724   3.180
 3330SOL    HW111823   3.306  11.769   3.118
 3330SOL    HW211824   3.281  11.634   3.181
 3331SOL     OW11825  12.505  14.661   9.051
 3331SOL    HW111826  12.555  14.595   9.004
 3331SOL    HW211827  12.505  14.632   9.142
 3332SOL     OW11828   5.540  11.400   4.209
 3332SOL    HW111829   5.603  11.419   4.140
 3332SOL    HW211830   5.576  11.325   4.256
 3333SOL     OW11831   1.530   1.603  11.331
 3333SOL    HW111832   1.475   1.533  11.367
 3333SOL    HW211833   1.616   1.563  11.320
 3334SOL     OW11834   7.033  11.583  14.473
 3334SOL    HW111835   7.068  11.541  14.395
 3334SOL    HW211836   6.939  11.591  14.456
 3335SOL     OW11837  11.985   6.704   5.166
 3335SOL    HW111838  11.960   6.642   5.098
 3335SOL    HW211839  12.047   6.763   5.123
 3336SOL     OW11840   0.736   1.239   8.115
 3336SOL    HW111841   0.704   1.324   8.146
 3336SOL    HW211842   0.657   1.191   8.090
 3337SOL     OW11843   0.460   6.284  12.840
 3337SOL    HW111844   0.454   6.260  12.748
 3337SOL    HW211845   0.492   6.205  12.884
 3338SOL     OW11846  11.358  12.001   1.873
 3338SOL    HW111847  11.440  11.952   1.873
 3338SOL    HW211848  11.355  12.045   1.788
 3339SOL     OW11849  13.862   1.910  13.570
 3339SOL    HW111850  13.830   1.911  13.479
 3339SOL    HW211851  13.913   1.829  13.576
 3340SOL     OW11852  13.119   4.165   3.848
 3340SOL    HW111853  13.044   4.171   3.789
 3340SOL    HW211854  13.117   4.246   3.898
 3341SOL     OW11855   2.037   3.205   1.549
 3341SOL    HW111856   2.113   3.178   1.498
 3341SOL    HW211857   2.015   3.128   1.602
 3342SOL     OW11858  11.856   5.505  13.919
 3342SOL    HW111859  11.898   5.536  13.999
 3342SOL    HW211860  11.769   5.545  13.921
 3343SOL     OW11861   3.750   7.887   8.686
 3343SOL    HW111862   3.823   7.921   8.634
 3343SOL    HW211863   3.673   7.931   8.650
 3344SOL     OW11864   1.231  13.755  12.831
 3344SOL    HW111865   1.250  13.662  12.824
 3344SOL    HW211866   1.197  13.766  12.920
 3345SOL     OW11867   1.525   1.777  11.827
 3345SOL    HW111868   1.485   1.818  11.904
 3345SOL    HW211869   1.610   1.819  11.818
 3346SOL     OW11870   0.048   5.442   3.273
 3346SOL    HW111871   0.115   5.408   3.214
 3346SOL    HW211872   0.093   5.451   3.358
 3347SOL     OW11873   6.073   7.459   7.165
 3347SOL    HW111874   5.978   7.445   7.165
 3347SOL    HW211875   6.105   7.404   7.237
 3348SOL     OW11876  11.155   8.791  12.652
 3348SOL    HW111877  11.079   8.837  12.690
 3348SOL    HW211878  11.214   8.861  12.625
 3349SOL     OW11879   2.103   8.727   9.578
 3349SOL    HW111880   2.119   8.645   9.530
 3349SOL    HW211881   2.011   8.747   9.561
 3350SOL     OW11882   8.560  14.366   6.752
 3350SOL    HW111883   8.570  14.402   6.840
 3350SOL    HW211884   8.477  14.318   6.754
 3351SOL     OW11885   1.682  10.833   1.283
 3351SOL    HW111886   1.741  10.876   1.344
 3351SOL    HW211887   1.683  10.741   1.309
 3352SOL     OW11888   5.137   1.659   5.497
 3352SOL    HW111889   5.077   1.588   5.474
 3352SOL    HW211890   5.081   1.737   5.501
 3353SOL     OW11891  13.207   4.563   5.522
 3353SOL    HW111892  13.113   4.576   5.514
 3353SOL    HW211893  13.228   4.589   5.611
 3354SOL     OW11894   9.642   7.913   6.440
 3354SOL    HW111895   9.686   7.890   6.522
 3354SOL    HW211896   9.564   7.963   6.468
 3355SOL     OW11897   8.137   8.200   3.249
 3355SOL    HW111898   8.090   8.170   3.327
 3355SOL    HW211899   8.080   8.175   3.176
 3356SOL     OW11900  12.374   7.633   3.479
 3356SOL    HW111901  12.451   7.689   3.472
 3356SOL    HW211902  12.352   7.635   3.572
 3357SOL     OW11903   9.793   6.553   8.990
 3357SOL    HW111904   9.741   6.510   9.057
 3357SOL    HW211905   9.747   6.534   8.908
 3358SOL     OW11906  13.469   2.174   9.273
 3358SOL    HW111907  13.393   2.162   9.216
 3358SOL    HW211908  13.445   2.248   9.329
 3359SOL     OW11909  13.645   5.403   6.574
 3359SOL    HW111910  13.644   5.497   6.593
 3359SOL    HW211911  13.682   5.398   6.486
 3360SOL     OW11912   0.037  10.750   4.308
 3360SOL    HW111913   0.062  10.836   4.342
 3360SOL    HW211914  14.815  10.746   4.319
 3361SOL     OW11915  11.896   4.342   1.007
 3361SOL    HW111916  11.839   4.286   0.955
 3361SOL    HW211917  11.983   4.330   0.969
 3362SOL     OW11918  10.664   7.849   4.806
 3362SOL    HW111919  10.612   7.915   4.852
 3362SOL    HW211920  10.608   7.821   4.733
 3363SOL     OW11921   6.867   6.177  14.322
 3363SOL    HW111922   6.816   6.135  14.390
 3363SOL    HW211923   6.908   6.252  14.366
 3364SOL     OW11924  11.922  12.862  11.653
 3364SOL    HW111925  11.883  12.780  11.623
 3364SOL    HW211926  11.922  12.918  11.575
 3365SOL     OW11927  10.129  10.143   2.711
 3365SOL    HW111928  10.104  10.075   2.648
 3365SOL    HW211929  10.196  10.195   2.665
 3366SOL     OW11930   1.550   3.266   3.952
 3366SOL    HW111931   1.614   3.200   3.981
 3366SOL    HW211932   1.468   3.218   3.946
 3367SOL     OW11933   5.192   8.303   3.759
 3367SOL    HW111934   5.156   8.390   3.744
 3367SOL    HW211935   5.165   8.281   3.848
 3368SOL     OW11936  12.154  13.702   8.074
 3368SOL    HW111937  12.153  13.608   8.096
 3368SOL    HW211938  12.072  13.735   8.111
 3369SOL     OW11939   1.473   0.615   6.398
 3369SOL    HW111940   1.505   0.676   6.465
 3369SOL    HW211941   1.529   0.537   6.408
 3370SOL     OW11942  11.456   4.430   1.169
 3370SOL    HW111943  11.448   4.500   1.234
 3370SOL    HW211944  11.521   4.370   1.207
 3371SOL     OW11945   6.164   0.835   9.074
 3371SOL    HW111946   6.238   0.880   9.033
 3371SOL    HW211947   6.087   0.885   9.046
 3372SOL     OW11948   2.068  14.759  11.365
 3372SOL    HW111949   2.107  14.843  11.338
 3372SOL    HW211950   2.035  14.721  11.285
 3373SOL     OW11951   1.564   4.955   3.117
 3373SOL    HW111952   1.593   4.957   3.026
 3373SOL    HW211953   1.503   5.029   3.126
 3374SOL     OW11954  10.586  12.037   2.560
 3374SOL    HW111955  10.576  11.964   2.621
 3374SOL    HW211956  10.672  12.024   2.520
 3375SOL     OW11957  14.593   1.478   6.664
 3375SOL    HW111958  14.522   1.539   6.647
 3375SOL    HW211959  14.583   1.410   6.597
 3376SOL     OW11960   6.940   9.588  11.425
 3376SOL    HW111961   6.997   9.637  11.484
 3376SOL    HW211962   6.948   9.633  11.341
 3377SOL     OW11963  12.815   9.147  10.891
 3377SOL    HW111964  12.797   9.108  10.806
 3377SOL    HW211965  12.730   9.157  10.932
 3378SOL     OW11966   0.261  10.478   7.353
 3378SOL    HW111967   0.344  10.522   7.336
 3378SOL    HW211968   0.210  10.490   7.273
 3379SOL     OW11969  12.436   2.105  11.203
 3379SOL    HW111970  12.525   2.075  11.184
 3379SOL    HW211971  12.380   2.051  11.148
 3380SOL     OW11972  14.758   1.916   8.818
 3380SOL    HW111973  14.764   1.907   8.723
 3380SOL    HW211974  14.708   1.839   8.847
 3381SOL     OW11975  14.281   2.530  11.742
 3381SOL    HW111976  14.260   2.463  11.806
 3381SOL    HW211977  14.374   2.550  11.758
 3382SOL     OW11978   9.147  13.408   2.678
 3382SOL    HW111979   9.195  13.329   2.702
 3382SOL    HW211980   9.081  13.418   2.747
 3383SOL     OW11981  13.903   9.790   9.250
 3383SOL    HW111982  13.813   9.759   9.258
 3383SOL    HW211983  13.955   9.721   9.291
 3384SOL     OW11984   5.307   5.846  12.543
 3384SOL    HW111985   5.381   5.831  12.603
 3384SOL    HW211986   5.229   5.834  12.598
 3385SOL     OW11987  14.080   5.276   4.129
 3385SOL    HW111988  14.160   5.264   4.180
 3385SOL    HW211989  14.015   5.222   4.174
 3386SOL     OW11990  11.066   2.080   7.650
 3386SOL    HW111991  11.056   2.021   7.575
 3386SOL    HW211992  11.068   2.022   7.726
 3387SOL     OW11993  14.407   6.354   4.732
 3387SOL    HW111994  14.363   6.312   4.658
 3387SOL    HW211995  14.492   6.309   4.739
 3388SOL     OW11996  13.118   9.374   3.323
 3388SOL    HW111997  13.065   9.408   3.395
 3388SOL    HW211998  13.101   9.280   3.323
 3389SOL     OW11999   5.008  11.318   4.193
 3389SOL    HW112000   5.101  11.293   4.197
 3389SOL    HW212001   4.976  11.304   4.282
 3390SOL     OW12002   4.802   5.074   7.850
 3390SOL    HW112003   4.834   5.163   7.863
 3390SOL    HW212004   4.730   5.082   7.788
 3391SOL     OW12005   3.792  14.487   2.542
 3391SOL    HW112006   3.733  14.415   2.523
 3391SOL    HW212007   3.864  14.476   2.480
 3392SOL     OW12008  10.508   0.424   8.436
 3392SOL    HW112009  10.602   0.421   8.417
 3392SOL    HW212010  10.467   0.405   8.352
 3393SOL     OW12011  11.391  10.835   6.938
 3393SOL    HW112012  11.404  10.806   7.029
 3393SOL    HW212013  11.456  10.904   6.925
 3394SOL     OW12014   7.986   3.592  10.634
 3394SOL    HW112015   8.016   3.682  10.623
 3394SOL    HW212016   7.892   3.599  10.648
 3395SOL     OW12017  13.477  10.128  10.096
 3395SOL    HW112018  13.383  10.117  10.082
 3395SOL    HW212019  13.510  10.038  10.105
 3396SOL     OW12020  14.274   6.163  11.195
 3396SOL    HW112021  14.301   6.237  11.141
 3396SOL    HW212022  14.355   6.125  11.227
 3397SOL     OW12023   6.025  10.693   9.258
 3397SOL    HW112024   6.036  10.716   9.350
 3397SOL    HW212025   5.936  10.722   9.236
 3398SOL     OW12026   3.066  10.025   4.486
 3398SOL    HW112027   3.040  10.108   4.526
 3398SOL    HW212028   2.989   9.969   4.493
 3399SOL     OW12029   0.481   6.640   9.368
 3399SOL    HW112030   0.449   6.620   9.456
 3399SOL    HW212031   0.414   6.606   9.309
 3400SOL     OW12032   6.015  11.388  14.107
 3400SOL    HW112033   6.072  11.316  14.134
 3400SOL    HW212034   6.057  11.423  14.028
 3401SOL     OW12035   7.345  10.592   0.695
 3401SOL    HW112036   7.267  10.648   0.706
 3401SOL    HW212037   7.405  10.621   0.763
 3402SOL     OW12038   9.868   6.297   4.945
 3402SOL    HW112039   9.913   6.283   5.029
 3402SOL    HW212040   9.931   6.347   4.892
 3403SOL     OW12041   1.239  13.840  11.593
 3403SOL    HW112042   1.244  13.832  11.689
 3403SOL    HW212043   1.190  13.762  11.566
 3404SOL     OW12044   6.576   2.834  12.554
 3404SOL    HW112045   6.547   2.821  12.645
 3404SOL    HW212046   6.671   2.841  12.561
 3405SOL     OW12047   9.801   1.296   6.378
 3405SOL    HW112048   9.755   1.379   6.389
 3405SOL    HW212049   9.768   1.240   6.449
 3406SOL     OW12050   6.439   0.286  11.258
 3406SOL    HW112051   6.379   0.353  11.289
 3406SOL    HW212052   6.490   0.262  11.335
 3407SOL     OW12053   1.614   9.124  11.297
 3407SOL    HW112054   1.599   9.088  11.384
 3407SOL    HW212055   1.600   9.050  11.237
 3408SOL     OW12056   8.895   3.581   2.582
 3408SOL    HW112057   8.805   3.605   2.605
 3408SOL    HW212058   8.945   3.597   2.662
 3409SOL     OW12059   0.894  11.705  13.159
 3409SOL    HW112060   0.947  11.783  13.142
 3409SOL    HW212061   0.952  11.632  13.136
 3410SOL     OW12062   6.372   3.139   1.049
 3410SOL    HW112063   6.332   3.126   1.135
 3410SOL    HW212064   6.309   3.101   0.987
 3411SOL     OW12065   8.095  12.561   8.481
 3411SOL    HW112066   8.033  12.498   8.517
 3411SOL    HW212067   8.050  12.598   8.405
 3412SOL     OW12068  14.498   3.430   7.196
 3412SOL    HW112069  14.462   3.506   7.241
 3412SOL    HW212070  14.520   3.368   7.266
 3413SOL     OW12071   1.543   3.183   4.679
 3413SOL    HW112072   1.505   3.180   4.591
 3413SOL    HW212073   1.538   3.275   4.705
 3414SOL     OW12074  11.230   9.805   4.141
 3414SOL    HW112075  11.138   9.783   4.124
 3414SOL    HW212076  11.236   9.808   4.236
 3415SOL     OW12077   0.923   5.777   6.106
 3415SOL    HW112078   1.015   5.798   6.094
 3415SOL    HW212079   0.885   5.855   6.147
 3416SOL     OW12080  14.241   1.785  11.463
 3416SOL    HW112081  14.318   1.728  11.461
 3416SOL    HW212082  14.167   1.724  11.473
 3417SOL     OW12083  12.874  10.903   5.834
 3417SOL    HW112084  12.819  10.952   5.773
 3417SOL    HW212085  12.852  10.811   5.818
 3418SOL     OW12086  14.838  14.544   7.840
 3418SOL    HW112087   0.027  14.568   7.771
 3418SOL    HW212088  14.800  14.461   7.810
 3419SOL     OW12089   3.338   2.557   2.189
 3419SOL    HW112090   3.373   2.646   2.194
 3419SOL    HW212091   3.351   2.531   2.098
 3420SOL     OW12092   7.731  10.503   1.886
 3420SOL    HW112093   7.757  10.439   1.953
 3420SOL    HW212094   7.660  10.461   1.839
 3421SOL     OW12095   6.522  14.431   8.652
 3421SOL    HW112096   6.595  14.372   8.674
 3421SOL    HW212097   6.469  14.380   8.590
 3422SOL     OW12098   5.018   5.712   8.245
 3422SOL    HW112099   4.960   5.651   8.200
 3422SOL    HW212100   5.027   5.785   8.185
 3423SOL     OW12101  11.169   8.406  12.970
 3423SOL    HW112102  11.121   8.367  13.043
 3423SOL    HW212103  11.189   8.495  13.000
 3424SOL     OW12104  14.820  14.151   0.066
 3424SOL    HW112105   0.034  14.170   0.100
 3424SOL    HW212106  14.794  14.070   0.110
 3425SOL     OW12107   9.900   5.981  13.448
 3425SOL    HW112108   9.854   5.951  13.370
 3425SOL    HW212109   9.839   6.042  13.490
 3426SOL     OW12110   1.293   2.929  13.530
 3426SOL    HW112111   1.353   2.946  13.458
 3426SOL    HW212112   1.206   2.947  13.494
 3427SOL     OW12113   5.822   6.595  10.343
 3427SOL    HW112114   5.827   6.533  10.416
 3427SOL    HW212115   5.909   6.635  10.339
 3428SOL     OW12116   1.234   2.426  10.130
 3428SOL    HW112117   1.283   2.384  10.059
 3428SOL    HW212118   1.302   2.461  10.188
 3429SOL     OW12119  13.964  11.444   8.816
 3429SOL    HW112120  13.963  11.474   8.907
 3429SOL    HW212121  13.873  11.417   8.799
 3430SOL     OW12122   3.805   2.873  14.395
 3430SOL    HW112123   3.884   2.834  14.435
 3430SOL    HW212124   3.832   2.898  14.307
 3431SOL     OW12125  14.770   6.494   4.484
 3431SOL    HW112126  14.765   6.423   4.547
 3431SOL    HW212127  14.689   6.487   4.433
 3432SOL     OW12128   0.412  10.749   1.169
 3432SOL    HW112129   0.399  10.837   1.205
 3432SOL    HW212130   0.422  10.692   1.245
 3433SOL     OW12131   8.159  10.400   2.046
 3433SOL    HW112132   8.090  10.417   2.111
 3433SOL    HW212133   8.229  10.359   2.097
 3434SOL     OW12134   8.226   6.471  14.813
 3434SOL    HW112135   8.155   6.412  14.788
 3434SOL    HW212136   8.196   6.514   0.020
 3435SOL     OW12137   6.067  13.749  14.314
 3435SOL    HW112138   6.049  13.731  14.406
 3435SOL    HW212139   6.133  13.819  14.316
 3436SOL     OW12140   3.854   1.415  12.072
 3436SOL    HW112141   3.947   1.435  12.080
 3436SOL    HW212142   3.828   1.448  11.987
 3437SOL     OW12143   0.038   4.954   6.166
 3437SOL    HW112144   0.048   4.914   6.079
 3437SOL    HW212145   0.128   4.963   6.198
 3438SOL     OW12146   2.348   6.781   2.757
 3438SOL    HW112147   2.437   6.815   2.746
 3438SOL    HW212148   2.293   6.845   2.712
 3439SOL     OW12149   5.685   3.847  11.413
 3439SOL    HW112150   5.710   3.926  11.460
 3439SOL    HW212151   5.639   3.879  11.335
 3440SOL     OW12152   9.106  12.074   9.421
 3440SOL    HW112153   9.066  12.119   9.346
 3440SOL    HW212154   9.032  12.054   9.478
 3441SOL     OW12155   5.205   4.076   5.355
 3441SOL    HW112156   5.113   4.091   5.379
 3441SOL    HW212157   5.255   4.119   5.426
 3442SOL     OW12158   9.816  10.636   0.088
 3442SOL    HW112159   9.766  10.602   0.014
 3442SOL    HW212160   9.907  10.636   0.057
 3443SOL     OW12161   0.214   1.997  10.399
 3443SOL    HW112162   0.153   2.068  10.415
 3443SOL    HW212163   0.267   2.027  10.325
 3444SOL     OW12164   2.823   7.506   4.971
 3444SOL    HW112165   2.732   7.533   4.961
 3444SOL    HW212166   2.829   7.477   5.062
 3445SOL     OW12167  10.921   3.274  14.855
 3445SOL    HW112168  10.989   3.221   0.025
 3445SOL    HW212169  10.968   3.328  14.792
 3446SOL     OW12170   5.419   6.685   1.538
 3446SOL    HW112171   5.430   6.610   1.597
 3446SOL    HW212172   5.391   6.645   1.455
 3447SOL     OW12173   9.908   8.050   9.440
 3447SOL    HW112174   9.922   7.979   9.378
 3447SOL    HW212175   9.975   8.115   9.418
 3448SOL     OW12176  13.573   4.066   7.460
 3448SOL    HW112177  13.544   4.094   7.547
 3448SOL    HW212178  13.499   4.016   7.425
 3449SOL     OW12179   1.999   5.376  14.403
 3449SOL    HW112180   2.056   5.348  14.331
 3449SOL    HW212181   1.984   5.469  14.386
 3450SOL     OW12182  12.836  11.505   6.844
 3450SOL    HW112183  12.889  11.512   6.923
 3450SOL    HW212184  12.759  11.558   6.862
 3451SOL     OW12185   1.511  12.932  12.892
 3451SOL    HW112186   1.511  12.840  12.864
 3451SOL    HW212187   1.603  12.955  12.899
 3452SOL     OW12188   4.951   2.976   4.382
 3452SOL    HW112189   4.889   3.040   4.418
 3452SOL    HW212190   5.037   3.010   4.404
 3453SOL     OW12191   2.743   3.442  12.049
 3453SOL    HW112192   2.787   3.408  12.127
 3453SOL    HW212193   2.675   3.378  12.029
 3454SOL     OW12194   5.055  10.422   3.383
 3454SOL    HW112195   5.150  10.425   3.377
 3454SOL    HW212196   5.030  10.510   3.412
 3455SOL     OW12197  14.154   8.854  12.616
 3455SOL    HW112198  14.128   8.871  12.526
 3455SOL    HW212199  14.085   8.797  12.650
 3456SOL     OW12200  13.794  11.777  13.042
 3456SOL    HW112201  13.871  11.726  13.016
 3456SOL    HW212202  13.785  11.760  13.136
 3457SOL     OW12203  11.795   7.625   9.689
 3457SOL    HW112204  11.862   7.670   9.740
 3457SOL    HW212205  11.795   7.536   9.725
 3458SOL     OW12206   8.524  12.828   9.693
 3458SOL    HW112207   8.567  12.908   9.723
 3458SOL    HW212208   8.593  12.779   9.649
 3459SOL     OW12209  13.964  10.763  12.906
 3459SOL    HW112210  14.019  10.841  12.896
 3459SOL    HW212211  13.999  10.718  12.983
 3460SOL     OW12212   1.288   6.578  14.091
 3460SOL    HW112213   1.369   6.628  14.103
 3460SOL    HW212214   1.247   6.577  14.177
 3461SOL     OW12215   0.553   7.182   6.612
 3461SOL    HW112216   0.509   7.239   6.675
 3461SOL    HW212217   0.629   7.233   6.584
 3462SOL     OW12218   0.678   5.988   9.475
 3462SOL    HW112219   0.603   5.947   9.519
 3462SOL    HW212220   0.677   6.078   9.506
 3463SOL     OW12221   2.737  13.008  13.164
 3463SOL    HW112222   2.750  13.014  13.258
 3463SOL    HW212223   2.743  12.914  13.145
 3464SOL     OW12224   5.690   0.875   2.087
 3464SOL    HW112225   5.720   0.812   2.152
 3464SOL    HW212226   5.609   0.911   2.123
 3465SOL     OW12227  11.495  11.616   3.066
 3465SOL    HW112228  11.492  11.710   3.079
 3465SOL    HW212229  11.434  11.580   3.130
 3466SOL     OW12230  11.571   6.332   5.442
 3466SOL    HW112231  11.573   6.352   5.535
 3466SOL    HW212232  11.511   6.259   5.433
 3467SOL     OW12233  10.987   8.331   8.863
 3467SOL    HW112234  10.990   8.418   8.902
 3467SOL    HW212235  10.954   8.274   8.932
 3468SOL     OW12236  14.026   1.393  10.991
 3468SOL    HW112237  13.986   1.454  10.929
 3468SOL    HW212238  14.111   1.372  10.952
 3469SOL     OW12239   5.568   0.662  14.310
 3469SOL    HW112240   5.624   0.589  14.338
 3469SOL    HW212241   5.480   0.635  14.338
 3470SOL     OW12242   6.946   5.208  14.362
 3470SOL    HW112243   6.995   5.170  14.289
 3470SOL    HW212244   6.950   5.141  14.430
 3471SOL     OW12245   2.322   6.595   5.076
 3471SOL    HW112246   2.402   6.544   5.090
 3471SOL    HW212247   2.254   6.546   5.122
 3472SOL     OW12248   0.245  12.031   5.241
 3472SOL    HW112249   0.271  12.013   5.331
 3472SOL    HW212250   0.308  12.097   5.210
 3473SOL     OW12251   3.736   2.562   3.401
 3473SOL    HW112252   3.766   2.633   3.344
 3473SOL    HW212253   3.641   2.572   3.404
 3474SOL     OW12254   3.942  11.305   8.834
 3474SOL    HW112255   3.874  11.274   8.775
 3474SOL    HW212256   4.010  11.340   8.775
 3475SOL     OW12257  13.140   6.137  14.348
 3475SOL    HW112258  13.062   6.192  14.337
 3475SOL    HW212259  13.151   6.094  14.263
 3476SOL     OW12260  14.424   9.690   8.379
 3476SOL    HW112261  14.500   9.653   8.334
 3476SOL    HW212262  14.449   9.693   8.471
 3477SOL     OW12263  14.228  13.032   8.443
 3477SOL    HW112264  14.249  13.069   8.357
 3477SOL    HW212265  14.132  13.027   8.444
 3478SOL     OW12266  11.042  14.034   8.429
 3478SOL    HW112267  11.027  13.943   8.454
 3478SOL    HW212268  10.980  14.084   8.483
 3479SOL     OW12269  12.842   8.098   2.851
 3479SOL    HW112270  12.795   8.018   2.872
 3479SOL    HW212271  12.877   8.083   2.763
 3480SOL     OW12272   8.467   3.410   0.692
 3480SOL    HW112273   8.418   3.426   0.773
 3480SOL    HW212274   8.429   3.470   0.629
 3481SOL     OW12275  11.906  11.089   4.048
 3481SOL    HW112276  11.879  10.998   4.047
 3481SOL    HW212277  11.832  11.136   4.087
 3482SOL     OW12278  12.284   5.467  11.932
 3482SOL    HW112279  12.330   5.533  11.983
 3482SOL    HW212280  12.210   5.514  11.894
 3483SOL     OW12281   7.138   4.181   7.295
 3483SOL    HW112282   7.226   4.181   7.257
 3483SOL    HW212283   7.149   4.139   7.380
 3484SOL     OW12284   6.375  12.094   9.747
 3484SOL    HW112285   6.400  12.019   9.801
 3484SOL    HW212286   6.370  12.058   9.658
 3485SOL     OW12287   2.447  12.268   5.562
 3485SOL    HW112288   2.416  12.359   5.566
 3485SOL    HW212289   2.376  12.217   5.601
 3486SOL     OW12290  10.313   5.702   1.053
 3486SOL    HW112291  10.333   5.783   1.005
 3486SOL    HW212292  10.243   5.726   1.113
 3487SOL     OW12293   3.159   3.726  14.172
 3487SOL    HW112294   3.201   3.711  14.257
 3487SOL    HW212295   3.082   3.779  14.192
 3488SOL     OW12296   2.789  11.783   2.517
 3488SOL    HW112297   2.857  11.840   2.552
 3488SOL    HW212298   2.801  11.700   2.563
 3489SOL     OW12299   2.041  11.815  12.870
 3489SOL    HW112300   2.065  11.761  12.795
 3489SOL    HW212301   2.114  11.806  12.931
 3490SOL     OW12302   1.811   4.944   3.925
 3490SOL    HW112303   1.865   4.997   3.983
 3490SOL    HW212304   1.745   5.004   3.892
 3491SOL     OW12305   0.039   7.957   5.232
 3491SOL    HW112306  14.830   7.940   5.186
 3491SOL    HW212307   0.086   7.873   5.229
 3492SOL     OW12308  11.266  13.146  11.727
 3492SOL    HW112309  11.208  13.108  11.793
 3492SOL    HW212310  11.305  13.071  11.683
 3493SOL     OW12311  14.126   2.080  12.447
 3493SOL    HW112312  14.130   2.130  12.528
 3493SOL    HW212313  14.185   2.128  12.388
 3494SOL     OW12314   9.481   0.231   5.324
 3494SOL    HW112315   9.389   0.259   5.329
 3494SOL    HW212316   9.528   0.308   5.291
 3495SOL     OW12317  13.219  13.721   6.828
 3495SOL    HW112318  13.252  13.779   6.760
 3495SOL    HW212319  13.128  13.703   6.801
 3496SOL     OW12320  13.252  11.188   6.909
 3496SOL    HW112321  13.317  11.162   6.844
 3496SOL    HW212322  13.273  11.279   6.929
 3497SOL     OW12323  11.448   9.541   4.375
 3497SOL    HW112324  11.392   9.600   4.426
 3497SOL    HW212325  11.466   9.468   4.434
 3498SOL     OW12326  12.410  14.165  11.042
 3498SOL    HW112327  12.316  14.149  11.029
 3498SOL    HW212328  12.428  14.127  11.128
 3499SOL     OW12329  11.466  12.616   8.532
 3499SOL    HW112330  11.516  12.691   8.566
 3499SOL    HW212331  11.384  12.618   8.582
 3500SOL     OW12332   5.062   7.515   5.318
 3500SOL    HW112333   5.105   7.467   5.389
 3500SOL    HW212334   4.970   7.518   5.343
 3501SOL     OW12335   4.637   4.390   5.827
 3501SOL    HW112336   4.625   4.475   5.783
 3501SOL    HW212337   4.584   4.397   5.907
 3502SOL     OW12338   5.217  10.914  14.686
 3502SOL    HW112339   5.229  10.972  14.611
 3502SOL    HW212340   5.152  10.958  14.740
 3503SOL     OW12341  11.122   3.455   4.913
 3503SOL    HW112342  11.157   3.486   4.996
 3503SOL    HW212343  11.185   3.389   4.883
 3504SOL     OW12344  13.564   2.626   4.942
 3504SOL    HW112345  13.634   2.673   4.987
 3504SOL    HW212346  13.517   2.693   4.893
 3505SOL     OW12347   9.132   6.464  14.268
 3505SOL    HW112348   9.125   6.555  14.239
 3505SOL    HW212349   9.213   6.432  14.228
 3506SOL     OW12350  13.092   3.646   6.126
 3506SOL    HW112351  13.170   3.592   6.124
 3506SOL    HW212352  13.096   3.698   6.046
 3507SOL     OW12353   2.977   6.262  14.405
 3507SOL    HW112354   2.897   6.273  14.353
 3507SOL    HW212355   3.043   6.237  14.340
 3508SOL     OW12356   1.542   0.798  11.566
 3508SOL    HW112357   1.530   0.787  11.661
 3508SOL    HW212358   1.586   0.883  11.557
 3509SOL     OW12359   5.469   2.750   8.815
 3509SOL    HW112360   5.418   2.699   8.753
 3509SOL    HW212361   5.550   2.771   8.769
 3510SOL     OW12362   0.280   8.838   7.776
 3510SOL    HW112363   0.375   8.844   7.769
 3510SOL    HW212364   0.264   8.750   7.811
 3511SOL     OW12365  11.984  12.167   3.998
 3511SOL    HW112366  11.997  12.202   4.086
 3511SOL    HW212367  11.900  12.122   4.002
 3512SOL     OW12368  12.984   5.716   4.932
 3512SOL    HW112369  13.065   5.760   4.956
 3512SOL    HW212370  13.007   5.623   4.929
 3513SOL     OW12371  13.688   0.006   6.503
 3513SOL    HW112372  13.735  14.797   6.488
 3513SOL    HW212373  13.643  14.866   6.586
 3514SOL     OW12374  10.420   0.220   1.667
 3514SOL    HW112375  10.412   0.132   1.631
 3514SOL    HW212376  10.458   0.207   1.754
 3515SOL     OW12377  10.909   0.007   1.626
 3515SOL    HW112378  10.882   0.042   1.541
 3515SOL    HW212379  10.895  14.785   1.619
 3516SOL     OW12380  10.237  11.515   5.012
 3516SOL    HW112381  10.236  11.456   5.087
 3516SOL    HW212382  10.329  11.531   4.995
 3517SOL     OW12383   6.108  12.674   9.319
 3517SOL    HW112384   6.181  12.719   9.275
 3517SOL    HW212385   6.150  12.625   9.390
 3518SOL     OW12386   1.131   7.803   8.322
 3518SOL    HW112387   1.135   7.759   8.407
 3518SOL    HW212388   1.096   7.890   8.342
 3519SOL     OW12389  11.828  14.634  13.342
 3519SOL    HW112390  11.759  14.589  13.392
 3519SOL    HW212391  11.854  14.708  13.398
 3520SOL     OW12392   2.484   2.234   1.086
 3520SOL    HW112393   2.418   2.166   1.102
 3520SOL    HW212394   2.561   2.185   1.057
 3521SOL     OW12395   9.872  12.062   3.565
 3521SOL    HW112396   9.866  12.135   3.504
 3521SOL    HW212397   9.790  12.066   3.615
 3522SOL     OW12398   5.988   6.636  14.639
 3522SOL    HW112399   5.959   6.570  14.576
 3522SOL    HW212400   5.948   6.608  14.722
 3523SOL     OW12401  11.238  12.168  13.722
 3523SOL    HW112402  11.208  12.106  13.655
 3523SOL    HW212403  11.165  12.228  13.734
 3524SOL     OW12404  13.990   4.859   2.048
 3524SOL    HW112405  14.052   4.864   2.121
 3524SOL    HW212406  13.907   4.834   2.089
 3525SOL     OW12407  10.219   5.950   3.888
 3525SOL    HW112408  10.157   5.914   3.824
 3525SOL    HW212409  10.294   5.978   3.836
 3526SOL     OW12410  13.024   2.781  11.014
 3526SOL    HW112411  13.103   2.835  11.021
 3526SOL    HW212412  12.952   2.840  11.038
 3527SOL     OW12413   9.549   1.279   6.743
 3527SOL    HW112414   9.509   1.364   6.758
 3527SOL    HW212415   9.476   1.217   6.749
 3528SOL     OW12416   4.757   8.184   9.160
 3528SOL    HW112417   4.833   8.222   9.116
 3528SOL    HW212418   4.771   8.089   9.154
 3529SOL     OW12419   5.402  14.236  12.313
 3529SOL    HW112420   5.387  14.163  12.253
 3529SOL    HW212421   5.358  14.209  12.394
 3530SOL     OW12422  12.843  10.482   9.952
 3530SOL    HW112423  12.774  10.547   9.964
 3530SOL    HW212424  12.917  10.516  10.001
 3531SOL     OW12425   3.550   5.727   6.968
 3531SOL    HW112426   3.503   5.800   7.008
 3531SOL    HW212427   3.559   5.751   6.876
 3532SOL     OW12428  14.681   1.496   5.074
 3532SOL    HW112429  14.621   1.514   5.146
 3532SOL    HW212430  14.747   1.566   5.080
 3533SOL     OW12431   5.344   6.856   7.912
 3533SOL    HW112432   5.415   6.875   7.973
 3533SOL    HW212433   5.375   6.781   7.861
 3534SOL     OW12434   4.460   9.412   8.409
 3534SOL    HW112435   4.518   9.461   8.350
 3534SOL    HW212436   4.477   9.449   8.495
 3535SOL     OW12437   6.334   6.083   2.813
 3535SOL    HW112438   6.258   6.059   2.866
 3535SOL    HW212439   6.306   6.162   2.765
 3536SOL     OW12440   2.604  11.397   6.694
 3536SOL    HW112441   2.605  11.441   6.609
 3536SOL    HW212442   2.693  11.364   6.706
 3537SOL     OW12443  10.282   3.190   3.700
 3537SOL    HW112444  10.235   3.106   3.703
 3537SOL    HW212445  10.373   3.167   3.723
 3538SOL     OW12446   8.978  14.429   8.210
 3538SOL    HW112447   8.979  14.506   8.266
 3538SOL    HW212448   9.066  14.391   8.221
 3539SOL     OW12449   9.805  11.058   7.716
 3539SOL    HW112450   9.767  11.142   7.690
 3539SOL    HW212451   9.887  11.080   7.758
 3540SOL     OW12452  12.928   9.243   4.760
 3540SOL    HW112453  12.886   9.236   4.846
 3540SOL    HW212454  13.022   9.235   4.779
 3541SOL     OW12455   0.273   5.077   9.831
 3541SOL    HW112456   0.185   5.090   9.865
 3541SOL    HW212457   0.290   4.983   9.843
 3542SOL     OW12458  12.034   9.037  11.569
 3542SOL    HW112459  11.977   9.112  11.553
 3542SOL    HW212460  11.981   8.961  11.546
 3543SOL     OW12461   4.104   7.956  12.946
 3543SOL    HW112462   4.018   7.973  12.907
 3543SOL    HW212463   4.111   7.861  12.948
 3544SOL     OW12464   3.056  14.716   1.341
 3544SOL    HW112465   2.972  14.754   1.366
 3544SOL    HW212466   3.100  14.698   1.424
 3545SOL     OW12467  13.764  10.036   5.159
 3545SOL    HW112468  13.850  10.007   5.191
 3545SOL    HW212469  13.707  10.030   5.236
 3546SOL     OW12470   4.307   6.216   0.723
 3546SOL    HW112471   4.244   6.147   0.744
 3546SOL    HW212472   4.298   6.229   0.628
 3547SOL     OW12473   5.167  10.149  12.144
 3547SOL    HW112474   5.089  10.193  12.111
 3547SOL    HW212475   5.183  10.077  12.083
 3548SOL     OW12476  12.408   3.598   1.819
 3548SOL    HW112477  12.469   3.663   1.853
 3548SOL    HW212478  12.337   3.649   1.781
 3549SOL     OW12479  14.515   4.419   4.352
 3549SOL    HW112480  14.558   4.412   4.267
 3549SOL    HW212481  14.587   4.433   4.414
 3550SOL     OW12482   5.085   1.281   9.368
 3550SOL    HW112483   5.062   1.199   9.412
 3550SOL    HW212484   5.055   1.350   9.428
 3551SOL     OW12485  10.505   9.385   0.750
 3551SOL    HW112486  10.468   9.300   0.729
 3551SOL    HW212487  10.438   9.448   0.723
 3552SOL     OW12488   1.297   1.509   0.456
 3552SOL    HW112489   1.305   1.473   0.545
 3552SOL    HW212490   1.242   1.587   0.466
 3553SOL     OW12491  13.127   3.015   6.058
 3553SOL    HW112492  13.125   2.963   6.138
 3553SOL    HW212493  13.081   3.095   6.080
 3554SOL     OW12494   4.185  12.027   6.700
 3554SOL    HW112495   4.246  11.985   6.639
 3554SOL    HW212496   4.100  12.019   6.657
 3555SOL     OW12497  10.755   6.855   3.503
 3555SOL    HW112498  10.721   6.797   3.434
 3555SOL    HW212499  10.775   6.937   3.457
 3556SOL     OW12500  14.124   7.793   5.665
 3556SOL    HW112501  14.089   7.850   5.596
 3556SOL    HW212502  14.194   7.744   5.624
 3557SOL     OW12503   2.642   2.377   3.535
 3557SOL    HW112504   2.733   2.400   3.521
 3557SOL    HW212505   2.592   2.453   3.504
 3558SOL     OW12506   9.974   2.101  11.770
 3558SOL    HW112507   9.926   2.029  11.728
 3558SOL    HW212508   9.950   2.093  11.863
 3559SOL     OW12509   1.477   2.457   1.768
 3559SOL    HW112510   1.460   2.530   1.709
 3559SOL    HW212511   1.391   2.419   1.785
 3560SOL     OW12512  12.622   5.031   8.384
 3560SOL    HW112513  12.560   5.006   8.453
 3560SOL    HW212514  12.569   5.036   8.304
 3561SOL     OW12515  10.749   1.098   6.400
 3561SOL    HW112516  10.756   1.171   6.339
 3561SOL    HW212517  10.700   1.031   6.352
 3562SOL     OW12518   1.911   0.346   0.816
 3562SOL    HW112519   1.916   0.251   0.806
 3562SOL    HW212520   1.890   0.359   0.908
 3563SOL     OW12521   0.926   3.051   8.979
 3563SOL    HW112522   0.883   3.135   8.959
 3563SOL    HW212523   0.901   3.033   9.070
 3564SOL     OW12524  12.446   3.634   5.063
 3564SOL    HW112525  12.398   3.717   5.060
 3564SOL    HW212526  12.515   3.643   4.997
 3565SOL     OW12527   9.310   9.933   9.823
 3565SOL    HW112528   9.373  10.005   9.823
 3565SOL    HW212529   9.252   9.952   9.749
 3566SOL     OW12530  14.624  12.471   8.178
 3566SOL    HW112531  14.660  12.462   8.266
 3566SOL    HW212532  14.700  12.476   8.121
 3567SOL     OW12533  12.147   7.603  14.584
 3567SOL    HW112534  12.235   7.568  14.597
 3567SOL    HW212535  12.122   7.637  14.670
 3568SOL     OW12536  11.359   4.370   4.642
 3568SOL    HW112537  11.295   4.308   4.676
 3568SOL    HW212538  11.328   4.456   4.670
 3569SOL     OW12539  14.106  14.125   2.248
 3569SOL    HW112540  14.196  14.116   2.280
 3569SOL    HW212541  14.058  14.160   2.323
 3570SOL     OW12542   9.365   6.880   2.080
 3570SOL    HW112543   9.396   6.801   2.125
 3570SOL    HW212544   9.290   6.851   2.030
 3571SOL     OW12545  13.247   0.931   2.596
 3571SOL    HW112546  13.277   0.847   2.563
 3571SOL    HW212547  13.314   0.958   2.659
 3572SOL     OW12548   0.801  13.290  12.575
 3572SOL    HW112549   0.790  13.196  12.557
 3572SOL    HW212550   0.833  13.293  12.665
 3573SOL     OW12551   4.568   7.638   0.513
 3573SOL    HW112552   4.644   7.694   0.526
 3573SOL    HW212553   4.498   7.682   0.562
 3574SOL     OW12554   9.201   5.132  13.147
 3574SOL    HW112555   9.293   5.148  13.127
 3574SOL    HW212556   9.201   5.052  13.199
 3575SOL     OW12557   9.260  12.091   6.776
 3575SOL    HW112558   9.266  12.076   6.681
 3575SOL    HW212559   9.327  12.034   6.813
 3576SOL     OW12560   5.983  14.485   2.540
 3576SOL    HW112561   5.949  14.527   2.619
 3576SOL    HW212562   6.059  14.538   2.516
 3577SOL     OW12563   2.900   4.039   8.648
 3577SOL    HW112564   2.981   3.992   8.667
 3577SOL    HW212565   2.919   4.087   8.567
 3578SOL     OW12566   0.200   3.875   0.442
 3578SOL    HW112567   0.243   3.949   0.485
 3578SOL    HW212568   0.192   3.808   0.510
 3579SOL     OW12569   7.753   2.065   3.623
 3579SOL    HW112570   7.784   2.038   3.709
 3579SOL    HW212571   7.749   2.161   3.628
 3580SOL     OW12572  10.672  13.331   3.589
 3580SOL    HW112573  10.627  13.258   3.547
 3580SOL    HW212574  10.610  13.362   3.656
 3581SOL     OW12575   2.640   7.556  10.379
 3581SOL    HW112576   2.626   7.560  10.284
 3581SOL    HW212577   2.657   7.464  10.397
 3582SOL     OW12578   1.005   4.767   6.849
 3582SOL    HW112579   1.089   4.811   6.839
 3582SOL    HW212580   1.001   4.704   6.778
 3583SOL     OW12581   4.668   6.429   7.305
 3583SOL    HW112582   4.597   6.493   7.304
 3583SOL    HW212583   4.703   6.432   7.394
 3584SOL     OW12584   9.551  13.201  11.998
 3584SOL    HW112585   9.607  13.212  11.921
 3584SOL    HW212586   9.585  13.121  12.040
 3585SOL     OW12587   9.130   1.389   2.257
 3585SOL    HW112588   9.169   1.311   2.215
 3585SOL    HW212589   9.186   1.406   2.333
 3586SOL     OW12590   8.704   9.841   7.822
 3586SOL    HW112591   8.611   9.833   7.798
 3586SOL    HW212592   8.728   9.754   7.854
 3587SOL     OW12593  12.209  12.929  14.746
 3587SOL    HW112594  12.301  12.920  14.720
 3587SOL    HW212595  12.211  12.991  14.819
 3588SOL     OW12596  14.357   5.044   5.388
 3588SOL    HW112597  14.326   5.097   5.461
 3588SOL    HW212598  14.334   5.095   5.310
 3589SOL     OW12599  12.959  10.222   0.651
 3589SOL    HW112600  13.044  10.244   0.690
 3589SOL    HW212601  12.915  10.170   0.717
 3590SOL     OW12602   8.312  14.221  11.654
 3590SOL    HW112603   8.334  14.207  11.746
 3590SOL    HW212604   8.333  14.313  11.639
 3591SOL     OW12605   0.217   0.394   4.111
 3591SOL    HW112606   0.262   0.331   4.055
 3591SOL    HW212607   0.286   0.455   4.138
 3592SOL     OW12608   8.609  12.553   8.292
 3592SOL    HW112609   8.637  12.488   8.227
 3592SOL    HW212610   8.572  12.502   8.363
 3593SOL     OW12611  12.111   5.336   2.763
 3593SOL    HW112612  12.157   5.303   2.686
 3593SOL    HW212613  12.128   5.430   2.762
 3594SOL     OW12614   1.649   6.024   6.170
 3594SOL    HW112615   1.602   6.051   6.249
 3594SOL    HW212616   1.733   6.071   6.175
 3595SOL     OW12617  10.521  12.248  12.821
 3595SOL    HW112618  10.504  12.262  12.914
 3595SOL    HW212619  10.464  12.175  12.797
 3596SOL     OW12620  11.899   7.429   0.628
 3596SOL    HW112621  11.982   7.383   0.624
 3596SOL    HW212622  11.918   7.509   0.676
 3597SOL     OW12623  14.566   7.776   1.128
 3597SOL    HW112624  14.650   7.803   1.090
 3597SOL    HW212625  14.569   7.808   1.218
 3598SOL     OW12626   9.258   4.915   0.841
 3598SOL    HW112627   9.289   4.857   0.911
 3598SOL    HW212628   9.192   4.864   0.794
 3599SOL     OW12629  14.165   7.520   2.290
 3599SOL    HW112630  14.203   7.595   2.336
 3599SOL    HW212631  14.209   7.519   2.206
 3600SOL     OW12632   1.621   8.708   1.209
 3600SOL    HW112633   1.594   8.791   1.250
 3600SOL    HW212634   1.680   8.735   1.138
 3601SOL     OW12635   6.924   6.114   0.370
 3601SOL    HW112636   6.888   6.062   0.298
 3601SOL    HW212637   6.913   6.058   0.447
 3602SOL     OW12638  11.931   5.586   5.772
 3602SOL    HW112639  11.877   5.663   5.786
 3602SOL    HW212640  11.921   5.535   5.852
 3603SOL     OW12641  12.048   6.326   3.274
 3603SOL    HW112642  12.010   6.375   3.201
 3603SOL    HW212643  12.042   6.234   3.246
 3604SOL     OW12644   2.947   4.780   3.449
 3604SOL    HW112645   2.892   4.715   3.492
 3604SOL    HW212646   2.996   4.821   3.520
 3605SOL     OW12647  11.528   1.877   6.733
 3605SOL    HW112648  11.466   1.942   6.700
 3605SOL    HW212649  11.538   1.899   6.826
 3606SOL     OW12650   9.315   0.411   4.886
 3606SOL    HW112651   9.401   0.420   4.847
 3606SOL    HW212652   9.330   0.418   4.980
 3607SOL     OW12653   4.736  12.747  13.023
 3607SOL    HW112654   4.664  12.710  12.973
 3607SOL    HW212655   4.767  12.674  13.077
 3608SOL     OW12656   6.283   4.361   8.764
 3608SOL    HW112657   6.349   4.296   8.789
 3608SOL    HW212658   6.322   4.445   8.786
 3609SOL     OW12659  12.616  10.478   1.427
 3609SOL    HW112660  12.642  10.568   1.408
 3609SOL    HW212661  12.524  10.473   1.400
 3610SOL     OW12662   0.963  11.798   5.861
 3610SOL    HW112663   0.949  11.780   5.954
 3610SOL    HW212664   0.907  11.873   5.843
 3611SOL     OW12665   2.345   3.912   5.519
 3611SOL    HW112666   2.439   3.933   5.516
 3611SOL    HW212667   2.301   3.997   5.512
 3612SOL     OW12668  13.963   3.569   7.736
 3612SOL    HW112669  14.016   3.649   7.737
 3612SOL    HW212670  13.911   3.576   7.655
 3613SOL     OW12671   2.806   3.919  11.739
 3613SOL    HW112672   2.879   3.881  11.789
 3613SOL    HW212673   2.785   3.853  11.673
 3614SOL     OW12674   1.456   5.921   9.948
 3614SOL    HW112675   1.483   5.865   9.876
 3614SOL    HW212676   1.415   5.862  10.012
 3615SOL     OW12677   7.863   2.249   1.357
 3615SOL    HW112678   7.784   2.257   1.411
 3615SOL    HW212679   7.839   2.187   1.288
 3616SOL     OW12680   4.215  11.117  11.929
 3616SOL    HW112681   4.279  11.164  11.876
 3616SOL    HW212682   4.265  11.046  11.969
 3617SOL     OW12683   3.742   4.246   6.798
 3617SOL    HW112684   3.776   4.263   6.886
 3617SOL    HW212685   3.665   4.301   6.791
 3618SOL     OW12686   1.792  11.893  10.632
 3618SOL    HW112687   1.873  11.939  10.651
 3618SOL    HW212688   1.765  11.856  10.716
 3619SOL     OW12689  11.518   8.641   5.668
 3619SOL    HW112690  11.550   8.551   5.663
 3619SOL    HW212691  11.424   8.635   5.652
 3620SOL     OW12692   0.594   0.884  12.437
 3620SOL    HW112693   0.635   0.970  12.421
 3620SOL    HW212694   0.640   0.825  12.378
 3621SOL     OW12695  10.438  14.515   6.559
 3621SOL    HW112696  10.456  14.427   6.525
 3621SOL    HW212697  10.501  14.527   6.629
 3622SOL     OW12698   7.763   5.965   0.173
 3622SOL    HW112699   7.735   5.911   0.247
 3622SOL    HW212700   7.683   6.009   0.144
 3623SOL     OW12701   1.272   2.882  11.032
 3623SOL    HW112702   1.282   2.856  11.123
 3623SOL    HW212703   1.178   2.876  11.015
 3624SOL     OW12704  13.954  14.742  14.311
 3624SOL    HW112705  14.014  14.671  14.334
 3624SOL    HW212706  13.930  14.726  14.220
 3625SOL     OW12707   4.587   1.008  11.039
 3625SOL    HW112708   4.612   0.993  10.948
 3625SOL    HW212709   4.523   1.079  11.035
 3626SOL     OW12710   6.523   1.813   0.956
 3626SOL    HW112711   6.463   1.816   0.882
 3626SOL    HW212712   6.479   1.757   1.020
 3627SOL     OW12713  12.787  11.903  11.989
 3627SOL    HW112714  12.872  11.933  11.957
 3627SOL    HW212715  12.777  11.943  12.075
 3628SOL     OW12716  13.765   1.972  14.444
 3628SOL    HW112717  13.788   1.969  14.351
 3628SOL    HW212718  13.719   1.890  14.461
 3629SOL     OW12719  14.682   8.837   0.604
 3629SOL    HW112720  14.674   8.786   0.685
 3629SOL    HW212721  14.621   8.910   0.616
 3630SOL     OW12722   9.133   4.285  11.406
 3630SOL    HW112723   9.195   4.251  11.341
 3630SOL    HW212724   9.047   4.266  11.370
 3631SOL     OW12725  10.793   6.433   9.658
 3631SOL    HW112726  10.784   6.393   9.744
 3631SOL    HW212727  10.873   6.395   9.622
 3632SOL     OW12728   6.988   3.659  12.806
 3632SOL    HW112729   7.012   3.583  12.859
 3632SOL    HW212730   7.018   3.638  12.718
 3633SOL     OW12731  12.985   9.289   5.389
 3633SOL    HW112732  13.042   9.268   5.464
 3633SOL    HW212733  12.897   9.286   5.425
 3634SOL     OW12734   8.441   1.867   0.838
 3634SOL    HW112735   8.481   1.900   0.918
 3634SOL    HW212736   8.513   1.822   0.792
 3635SOL     OW12737   8.208   9.011  13.779
 3635SOL    HW112738   8.169   9.040  13.861
 3635SOL    HW212739   8.286   9.065  13.768
 3636SOL     OW12740   5.343  13.564   4.940
 3636SOL    HW112741   5.274  13.619   4.976
 3636SOL    HW212742   5.299  13.482   4.916
 3637SOL     OW12743   2.312   4.713   5.784
 3637SOL    HW112744   2.341   4.791   5.832
 3637SOL    HW212745   2.379   4.700   5.718
 3638SOL     OW12746  10.626   2.634   2.658
 3638SOL    HW112747  10.694   2.590   2.607
 3638SOL    HW212748  10.603   2.571   2.726
 3639SOL     OW12749   4.807  10.770   7.628
 3639SOL    HW112750   4.741  10.713   7.588
 3639SOL    HW212751   4.847  10.717   7.696
 3640SOL     OW12752  11.199   9.099   6.024
 3640SOL    HW112753  11.230   9.188   6.009
 3640SOL    HW212754  11.145   9.104   6.103
 3641SOL     OW12755  12.354   7.953   1.617
 3641SOL    HW112756  12.331   7.975   1.527
 3641SOL    HW212757  12.289   7.888   1.644
 3642SOL     OW12758   0.822   5.524   0.451
 3642SOL    HW112759   0.736   5.546   0.487
 3642SOL    HW212760   0.842   5.438   0.488
 3643SOL     OW12761   8.284  13.576  10.622
 3643SOL    HW112762   8.321  13.500  10.577
 3643SOL    HW212763   8.360  13.627  10.649
 3644SOL     OW12764   3.017   7.665   7.881
 3644SOL    HW112765   3.049   7.630   7.964
 3644SOL    HW212766   2.962   7.739   7.905
 3645SOL     OW12767   1.818   6.825   0.299
 3645SOL    HW112768   1.745   6.766   0.312
 3645SOL    HW212769   1.885   6.772   0.256
 3646SOL     OW12770   2.060  13.838  14.018
 3646SOL    HW112771   1.975  13.813  13.983
 3646SOL    HW212772   2.098  13.896  13.951
 3647SOL     OW12773  13.203   2.658  11.230
 3647SOL    HW112774  13.208   2.685  11.138
 3647SOL    HW212775  13.191   2.563  11.226
 3648SOL     OW12776   6.803   3.929   8.846
 3648SOL    HW112777   6.812   3.871   8.921
 3648SOL    HW212778   6.780   4.014   8.884
 3649SOL     OW12779   5.023   8.458   2.853
 3649SOL    HW112780   4.977   8.530   2.897
 3649SOL    HW212781   5.038   8.394   2.923
 3650SOL     OW12782   8.030   1.605  14.728
 3650SOL    HW112783   7.984   1.611  14.644
 3650SOL    HW212784   7.965   1.631  14.793
 3651SOL     OW12785   7.423   7.470   7.237
 3651SOL    HW112786   7.356   7.403   7.252
 3651SOL    HW212787   7.501   7.437   7.280
 3652SOL     OW12788   8.900   6.385   3.197
 3652SOL    HW112789   8.987   6.423   3.181
 3652SOL    HW212790   8.904   6.354   3.287
 3653SOL     OW12791   5.541  13.916  11.586
 3653SOL    HW112792   5.471  13.963  11.631
 3653SOL    HW212793   5.567  13.848  11.648
 3654SOL     OW12794   5.418   9.967   1.793
 3654SOL    HW112795   5.377   9.990   1.876
 3654SOL    HW212796   5.354   9.992   1.726
 3655SOL     OW12797   4.935  12.842  14.266
 3655SOL    HW112798   4.905  12.860  14.177
 3655SOL    HW212799   4.856  12.843  14.319
 3656SOL     OW12800  14.370   0.529  13.510
 3656SOL    HW112801  14.406   0.443  13.529
 3656SOL    HW212802  14.275   0.517  13.512
 3657SOL     OW12803  12.915   7.122  14.280
 3657SOL    HW112804  13.009   7.131  14.292
 3657SOL    HW212805  12.901   7.027  14.275
 3658SOL     OW12806   2.582   9.182   8.555
 3658SOL    HW112807   2.574   9.276   8.537
 3658SOL    HW212808   2.624   9.146   8.477
 3659SOL     OW12809  14.023  11.547  11.154
 3659SOL    HW112810  14.021  11.638  11.122
 3659SOL    HW212811  13.949  11.540  11.213
 3660SOL     OW12812  12.687   1.215  10.832
 3660SOL    HW112813  12.645   1.238  10.915
 3660SOL    HW212814  12.781   1.220  10.850
 3661SOL     OW12815   9.067  12.241   8.278
 3661SOL    HW112816   9.160  12.260   8.268
 3661SOL    HW212817   9.054  12.160   8.230
 3662SOL     OW12818   7.395  13.074  14.696
 3662SOL    HW112819   7.325  13.009  14.704
 3662SOL    HW212820   7.355  13.156  14.728
 3663SOL     OW12821   5.527   3.676   5.861
 3663SOL    HW112822   5.579   3.596   5.872
 3663SOL    HW212823   5.527   3.717   5.948
 3664SOL     OW12824   8.858   5.136  12.598
 3664SOL    HW112825   8.846   5.172  12.686
 3664SOL    HW212826   8.771   5.143  12.558
 3665SOL     OW12827   7.924   1.292   4.729
 3665SOL    HW112828   7.978   1.215   4.747
 3665SOL    HW212829   7.834   1.263   4.743
 3666SOL     OW12830   2.166   2.001   8.017
 3666SOL    HW112831   2.149   2.092   7.992
 3666SOL    HW212832   2.257   2.000   8.045
 3667SOL     OW12833   2.905  12.169   0.172
 3667SOL    HW112834   2.821  12.181   0.217
 3667SOL    HW212835   2.898  12.083   0.130
 3668SOL     OW12836   3.873  11.385  12.274
 3668SOL    HW112837   3.881  11.290  12.276
 3668SOL    HW212838   3.882  11.409  12.182
 3669SOL     OW12839  11.249  13.603  14.193
 3669SOL    HW112840  11.227  13.611  14.100
 3669SOL    HW212841  11.317  13.536  14.196
 3670SOL     OW12842   7.243   8.331   6.001
 3670SOL    HW112843   7.227   8.403   5.941
 3670SOL    HW212844   7.222   8.367   6.088
 3671SOL     OW12845  12.719  13.930   9.769
 3671SOL    HW112846  12.773  13.877   9.827
 3671SOL    HW212847  12.781  13.985   9.721
 3672SOL     OW12848   8.615   4.887   6.810
 3672SOL    HW112849   8.592   4.833   6.886
 3672SOL    HW212850   8.599   4.831   6.735
 3673SOL     OW12851  12.853   4.091  14.620
 3673SOL    HW112852  12.926   4.031  14.605
 3673SOL    HW212853  12.891   4.162  14.671
 3674SOL     OW12854   8.166   6.077   7.987
 3674SOL    HW112855   8.259   6.094   7.972
 3674SOL    HW212856   8.122   6.114   7.911
 3675SOL     OW12857   7.202   8.032   8.731
 3675SOL    HW112858   7.234   8.061   8.645
 3675SOL    HW212859   7.128   8.090   8.750
 3676SOL     OW12860  14.849   7.268  13.087
 3676SOL    HW112861   0.017   7.339  13.037
 3676SOL    HW212862  14.798   7.313  13.154
 3677SOL     OW12863  12.672   1.700  14.832
 3677SOL    HW112864  12.677   1.795  14.831
 3677SOL    HW212865  12.599   1.680   0.018
 3678SOL     OW12866   7.058   3.610   9.006
 3678SOL    HW112867   7.095   3.686   8.962
 3678SOL    HW212868   7.131   3.550   9.016
 3679SOL     OW12869  14.604  11.933   6.678
 3679SOL    HW112870  14.684  11.957   6.632
 3679SOL    HW212871  14.630  11.929   6.770
 3680SOL     OW12872  11.260  11.040  13.141
 3680SOL    HW112873  11.271  10.946  13.128
 3680SOL    HW212874  11.188  11.048  13.203
 3681SOL     OW12875   7.861   8.902  12.642
 3681SOL    HW112876   7.839   8.986  12.683
 3681SOL    HW212877   7.940   8.872  12.688
 3682SOL     OW12878  10.030   9.212  12.435
 3682SOL    HW112879   9.958   9.231  12.375
 3682SOL    HW212880  10.017   9.271  12.509
 3683SOL     OW12881   8.243   4.228  10.836
 3683SOL    HW112882   8.200   4.266  10.913
 3683SOL    HW212883   8.286   4.149  10.869
 3684SOL     OW12884   0.665   7.520   2.099
 3684SOL    HW112885   0.689   7.585   2.033
 3684SOL    HW212886   0.643   7.572   2.177
 3685SOL     OW12887   1.105   5.849   0.948
 3685SOL    HW112888   1.119   5.934   0.989
 3685SOL    HW212889   1.114   5.786   1.020
 3686SOL     OW12890   7.833   9.500   9.698
 3686SOL    HW112891   7.871   9.552   9.769
 3686SOL    HW212892   7.749   9.542   9.679
 3687SOL     OW12893   6.201   3.954   7.862
 3687SOL    HW112894   6.239   4.033   7.823
 3687SOL    HW212895   6.107   3.963   7.846
 3688SOL     OW12896   1.560   5.020   4.656
 3688SOL    HW112897   1.609   5.088   4.609
 3688SOL    HW212898   1.508   4.977   4.588
 3689SOL     OW12899   5.642   5.549   4.829
 3689SOL    HW112900   5.549   5.569   4.841
 3689SOL    HW212901   5.657   5.472   4.885
 3690SOL     OW12902   3.879   0.329   0.185
 3690SOL    HW112903   3.827   0.304   0.108
 3690SOL    HW212904   3.919   0.412   0.160
 3691SOL     OW12905   5.183  14.416   6.122
 3691SOL    HW112906   5.209  14.458   6.204
 3691SOL    HW212907   5.087  14.415   6.126
 3692SOL     OW12908  13.311   1.680  12.485
 3692SOL    HW112909  13.228   1.726  12.473
 3692SOL    HW212910  13.327   1.683  12.579
 3693SOL     OW12911   9.381   1.468  12.744
 3693SOL    HW112912   9.417   1.383  12.766
 3693SOL    HW212913   9.375   1.514  12.828
 3694SOL     OW12914  10.980  13.264  13.653
 3694SOL    HW112915  10.986  13.182  13.702
 3694SOL    HW212916  10.887  13.288  13.659
 3695SOL     OW12917   1.902  11.867  11.813
 3695SOL    HW112918   1.976  11.881  11.872
 3695SOL    HW212919   1.833  11.925  11.847
 3696SOL     OW12920   9.700   0.993   5.679
 3696SOL    HW112921   9.733   1.011   5.767
 3696SOL    HW212922   9.699   1.078   5.636
 3697SOL     OW12923   8.371   5.211   9.911
 3697SOL    HW112924   8.369   5.284   9.973
 3697SOL    HW212925   8.322   5.141   9.954
 3698SOL     OW12926   4.016   6.393   8.874
 3698SOL    HW112927   3.976   6.475   8.903
 3698SOL    HW212928   4.057   6.415   8.790
 3699SOL     OW12929   5.088  12.009   4.608
 3699SOL    HW112930   5.080  11.932   4.552
 3699SOL    HW212931   5.056  12.081   4.554
 3700SOL     OW12932   6.849  10.658   1.518
 3700SOL    HW112933   6.781  10.683   1.456
 3700SOL    HW212934   6.916  10.726   1.509
 3701SOL     OW12935   1.190  12.502   2.302
 3701SOL    HW112936   1.246  12.442   2.254
 3701SOL    HW212937   1.122  12.446   2.340
 3702SOL     OW12938   7.246   4.467   9.528
 3702SOL    HW112939   7.216   4.514   9.450
 3702SOL    HW212940   7.187   4.496   9.598
 3703SOL     OW12941   7.182   6.668   9.025
 3703SOL    HW112942   7.243   6.739   9.007
 3703SOL    HW212943   7.123   6.667   8.950
 3704SOL     OW12944  10.439   2.426  11.250
 3704SOL    HW112945  10.367   2.391  11.198
 3704SOL    HW212946  10.433   2.380  11.334
 3705SOL     OW12947   2.934   3.090  10.520
 3705SOL    HW112948   2.970   3.137  10.444
 3705SOL    HW212949   2.858   3.142  10.546
 3706SOL     OW12950   5.365   1.479   6.119
 3706SOL    HW112951   5.457   1.459   6.098
 3706SOL    HW212952   5.347   1.429   6.198
 3707SOL     OW12953   2.087   5.034   3.433
 3707SOL    HW112954   2.000   5.072   3.444
 3707SOL    HW212955   2.118   5.019   3.522
 3708SOL     OW12956   3.483   8.367  10.181
 3708SOL    HW112957   3.548   8.437  10.174
 3708SOL    HW212958   3.492   8.336  10.271
 3709SOL     OW12959   2.131  10.271  11.963
 3709SOL    HW112960   2.156  10.361  11.942
 3709SOL    HW212961   2.045  10.278  12.004
 3710SOL     OW12962   5.719   6.444  11.234
 3710SOL    HW112963   5.690   6.465  11.145
 3710SOL    HW212964   5.749   6.528  11.270
 3711SOL     OW12965  13.410   7.391   6.291
 3711SOL    HW112966  13.409   7.382   6.386
 3711SOL    HW212967  13.503   7.401   6.269
 3712SOL     OW12968   9.121  12.632  12.076
 3712SOL    HW112969   9.169  12.581  12.141
 3712SOL    HW212970   9.073  12.568  12.024
 3713SOL     OW12971   1.878  10.153   3.361
 3713SOL    HW112972   1.877  10.058   3.345
 3713SOL    HW212973   1.914  10.162   3.450
 3714SOL     OW12974  11.132  10.621  14.426
 3714SOL    HW112975  11.116  10.697  14.482
 3714SOL    HW212976  11.214  10.585  14.458
 3715SOL     OW12977  14.305   7.817   6.670
 3715SOL    HW112978  14.258   7.813   6.586
 3715SOL    HW212979  14.374   7.882   6.655
 3716SOL     OW12980   8.453   8.114   8.749
 3716SOL    HW112981   8.388   8.156   8.806
 3716SOL    HW212982   8.488   8.042   8.802
 3717SOL     OW12983   1.546   5.921  13.435
 3717SOL    HW112984   1.573   5.855  13.498
 3717SOL    HW212985   1.628   5.963  13.409
 3718SOL     OW12986  14.538  12.203   7.317
 3718SOL    HW112987  14.461  12.217   7.372
 3718SOL    HW212988  14.563  12.291   7.289
 3719SOL     OW12989  10.536   1.617   8.836
 3719SOL    HW112990  10.468   1.630   8.769
 3719SOL    HW212991  10.524   1.689   8.898
 3720SOL     OW12992  14.865   3.384   5.324
 3720SOL    HW112993   0.046   3.306   5.314
 3720SOL    HW212994  14.806   3.382   5.249
 3721SOL     OW12995   7.280   9.047   1.319
 3721SOL    HW112996   7.310   9.049   1.229
 3721SOL    HW212997   7.321   9.123   1.361
 3722SOL     OW12998   0.072   7.959   5.898
 3722SOL    HW112999   0.160   7.984   5.927
 3722SOL    HW213000   0.013   8.009   5.955
 3723SOL     OW13001  13.936  12.799  14.557
 3723SOL    HW113002  13.949  12.742  14.633
 3723SOL    HW213003  13.845  12.783  14.531
 3724SOL     OW13004  13.281   5.441   4.107
 3724SOL    HW113005  13.329   5.417   4.187
 3724SOL    HW213006  13.242   5.360   4.077
 3725SOL     OW13007   3.058   4.275   1.203
 3725SOL    HW113008   3.047   4.359   1.159
 3725SOL    HW213009   2.980   4.266   1.258
 3726SOL     OW13010  12.577   9.682   2.061
 3726SOL    HW113011  12.510   9.630   2.107
 3726SOL    HW213012  12.576   9.767   2.106
 3727SOL     OW13013   6.858   2.669   3.871
 3727SOL    HW113014   6.918   2.595   3.860
 3727SOL    HW213015   6.875   2.700   3.959
 3728SOL     OW13016   6.410  11.301  11.315
 3728SOL    HW113017   6.318  11.321  11.298
 3728SOL    HW213018   6.408  11.230  11.379
 3729SOL     OW13019   7.342  13.620   7.654
 3729SOL    HW113020   7.273  13.580   7.601
 3729SOL    HW213021   7.423  13.595   7.610
 3730SOL     OW13022   4.446  13.051   5.466
 3730SOL    HW113023   4.363  13.095   5.484
 3730SOL    HW213024   4.496  13.114   5.414
 3731SOL     OW13025   5.983   8.929  11.321
 3731SOL    HW113026   6.007   8.976  11.241
 3731SOL    HW213027   5.905   8.880  11.298
 3732SOL     OW13028   5.785   2.564   1.699
 3732SOL    HW113029   5.735   2.573   1.781
 3732SOL    HW213030   5.839   2.486   1.713
 3733SOL     OW13031   9.839  14.271   0.606
 3733SOL    HW113032   9.907  14.300   0.667
 3733SOL    HW213033   9.797  14.198   0.651
 3734SOL     OW13034  14.413   0.724   0.958
 3734SOL    HW113035  14.380   0.813   0.973
 3734SOL    HW213036  14.334   0.671   0.947
 3735SOL     OW13037  14.134  14.815   5.072
 3735SOL    HW113038  14.059  14.868   5.098
 3735SOL    HW213039  14.208  14.854   5.119
 3736SOL     OW13040  12.839   8.629   4.255
 3736SOL    HW113041  12.777   8.574   4.206
 3736SOL    HW213042  12.906   8.568   4.286
 3737SOL     OW13043  13.788   4.467   4.762
 3737SOL    HW113044  13.854   4.496   4.699
 3737SOL    HW213045  13.705   4.498   4.725
 3738SOL     OW13046   5.854  14.676  12.291
 3738SOL    HW113047   5.914  14.613  12.251
 3738SOL    HW213048   5.876  14.674  12.384
 3739SOL     OW13049   7.902   6.523  14.305
 3739SOL    HW113050   7.818   6.561  14.282
 3739SOL    HW213051   7.926   6.469  14.230
 3740SOL     OW13052   5.448   3.995   7.940
 3740SOL    HW113053   5.486   4.083   7.952
 3740SOL    HW213054   5.512   3.949   7.886
 3741SOL     OW13055   9.661   0.588   6.129
 3741SOL    HW113056   9.604   0.631   6.065
 3741SOL    HW213057   9.750   0.602   6.096
 3742SOL     OW13058   3.374   7.154   8.332
 3742SOL    HW113059   3.394   7.213   8.404
 3742SOL    HW213060   3.374   7.067   8.372
 3743SOL     OW13061  11.102  10.542   9.847
 3743SOL    HW113062  11.082  10.526   9.755
 3743SOL    HW213063  11.198  10.537   9.852
 3744SOL     OW13064  12.870  13.590   5.257
 3744SOL    HW113065  12.884  13.544   5.174
 3744SOL    HW213066  12.811  13.533   5.306
 3745SOL     OW13067  14.302  12.685   7.798
 3745SOL    HW113068  14.283  12.659   7.889
 3745SOL    HW213069  14.366  12.755   7.807
 3746SOL     OW13070   2.079  14.304   9.656
 3746SOL    HW113071   2.091  14.396   9.679
 3746SOL    HW213072   2.157  14.282   9.605
 3747SOL     OW13073   7.033   9.506  13.712
 3747SOL    HW113074   7.097   9.485  13.644
 3747SOL    HW213075   6.973   9.432  13.712
 3748SOL     OW13076   5.365   7.368  13.732
 3748SOL    HW113077   5.380   7.294  13.790
 3748SOL    HW213078   5.363   7.444  13.790
 3749SOL     OW13079  11.607   1.637   8.236
 3749SOL    HW113080  11.703   1.640   8.241
 3749SOL    HW213081  11.582   1.563   8.291
 3750SOL     OW13082  13.081  13.070   9.168
 3750SOL    HW113083  12.995  13.055   9.128
 3750SOL    HW213084  13.072  13.153   9.215
 3751SOL     OW13085   4.800   1.569   3.582
 3751SOL    HW113086   4.748   1.537   3.508
 3751SOL    HW213087   4.845   1.646   3.549
 3752SOL     OW13088   5.304  13.312  12.253
 3752SOL    HW113089   5.236  13.266  12.205
 3752SOL    HW213090   5.384  13.295  12.203
 3753SOL     OW13091  10.516   1.026   4.219
 3753SOL    HW113092  10.580   0.964   4.183
 3753SOL    HW213093  10.562   1.110   4.218
 3754SOL     OW13094   5.931   8.566  11.464
 3754SOL    HW113095   5.985   8.535  11.392
 3754SOL    HW213096   5.863   8.619  11.422
 3755SOL     OW13097   3.077   3.019   2.249
 3755SOL    HW113098   3.024   2.940   2.256
 3755SOL    HW213099   3.156   2.991   2.204
 3756SOL     OW13100  14.792   8.000   1.320
 3756SOL    HW113101  14.827   8.033   1.403
 3756SOL    HW213102  14.713   7.952   1.345
 3757SOL     OW13103  13.399   7.193   2.198
 3757SOL    HW113104  13.454   7.139   2.254
 3757SOL    HW213105  13.317   7.203   2.247
 3758SOL     OW13106   3.716  12.742  13.601
 3758SOL    HW113107   3.633  12.708  13.633
 3758SOL    HW213108   3.724  12.829  13.642
 3759SOL     OW13109   4.802   1.155   5.804
 3759SOL    HW113110   4.732   1.219   5.793
 3759SOL    HW213111   4.843   1.178   5.887
 3760SOL     OW13112   0.038  14.245  10.480
 3760SOL    HW113113   0.048  14.151  10.469
 3760SOL    HW213114   0.123  14.281  10.455
 3761SOL     OW13115  10.914   1.938   9.982
 3761SOL    HW113116  10.904   1.848   9.952
 3761SOL    HW213117  10.998   1.939  10.028
 3762SOL     OW13118  14.667   7.881  11.323
 3762SOL    HW113119  14.699   7.943  11.388
 3762SOL    HW213120  14.583   7.917  11.295
 3763SOL     OW13121   7.207  10.069  14.066
 3763SOL    HW113122   7.282  10.010  14.077
 3763SOL    HW213123   7.146  10.019  14.011
 3764SOL     OW13124  13.000   4.270  12.528
 3764SOL    HW113125  13.060   4.338  12.498
 3764SOL    HW213126  12.923   4.317  12.559
 3765SOL     OW13127  14.268  13.903   3.138
 3765SOL    HW113128  14.178  13.879   3.119
 3765SOL    HW213129  14.267  13.931   3.230
 3766SOL     OW13130  10.572   2.554   3.847
 3766SOL    HW113131  10.573   2.620   3.916
 3766SOL    HW213132  10.511   2.588   3.781
 3767SOL     OW13133   7.209   1.587  10.502
 3767SOL    HW113134   7.144   1.522  10.474
 3767SOL    HW213135   7.282   1.576  10.442
 3768SOL     OW13136   0.542   6.896  13.010
 3768SOL    HW113137   0.550   6.986  13.044
 3768SOL    HW213138   0.535   6.907  12.916
 3769SOL     OW13139   2.714  14.362  14.483
 3769SOL    HW113140   2.769  14.402  14.416
 3769SOL    HW213141   2.726  14.268  14.471
 3770SOL     OW13142  10.300   3.570   2.074
 3770SOL    HW113143  10.333   3.504   2.013
 3770SOL    HW213144  10.239   3.522   2.131
 3771SOL     OW13145   9.998   0.733   8.956
 3771SOL    HW113146   9.961   0.820   8.973
 3771SOL    HW213147  10.071   0.726   9.017
 3772SOL     OW13148   9.115  11.231   9.521
 3772SOL    HW113149   9.051  11.279   9.468
 3772SOL    HW213150   9.151  11.296   9.581
 3773SOL     OW13151  10.490   2.417   5.555
 3773SOL    HW113152  10.577   2.377   5.562
 3773SOL    HW213153  10.483   2.441   5.462
 3774SOL     OW13154  11.008  14.057   1.670
 3774SOL    HW113155  10.921  14.095   1.683
 3774SOL    HW213156  11.044  14.047   1.758
 3775SOL     OW13157   2.585  13.088   1.966
 3775SOL    HW113158   2.518  13.068   2.032
 3775SOL    HW213159   2.547  13.057   1.884
 3776SOL     OW13160   5.765   1.687   2.705
 3776SOL    HW113161   5.697   1.675   2.771
 3776SOL    HW213162   5.725   1.741   2.638
 3777SOL     OW13163   4.126   0.663   8.527
 3777SOL    HW113164   4.047   0.704   8.490
 3777SOL    HW213165   4.173   0.630   8.451
 3778SOL     OW13166   7.235  13.224   8.863
 3778SOL    HW113167   7.169  13.178   8.914
 3778SOL    HW213168   7.298  13.156   8.837
 3779SOL     OW13169   3.215  10.476   4.729
 3779SOL    HW113170   3.285  10.480   4.664
 3779SOL    HW213171   3.157  10.547   4.706
 3780SOL     OW13172  11.756   1.573   5.118
 3780SOL    HW113173  11.662   1.586   5.120
 3780SOL    HW213174  11.792   1.658   5.094
 3781SOL     OW13175  12.323  12.128   2.823
 3781SOL    HW113176  12.386  12.145   2.892
 3781SOL    HW213177  12.343  12.039   2.793
 3782SOL     OW13178   5.619  12.419   8.301
 3782SOL    HW113179   5.572  12.442   8.381
 3782SOL    HW213180   5.578  12.338   8.271
 3783SOL     OW13181   7.441   9.953  14.185
 3783SOL    HW113182   7.424   9.906  14.266
 3783SOL    HW213183   7.536   9.955  14.177
 3784SOL     OW13184   5.782   4.322   8.910
 3784SOL    HW113185   5.831   4.239   8.904
 3784SOL    HW213186   5.834   4.376   8.969
 3785SOL     OW13187   3.839   2.452   4.138
 3785SOL    HW113188   3.858   2.422   4.227
 3785SOL    HW213189   3.762   2.402   4.112
 3786SOL     OW13190   3.687   2.948   9.882
 3786SOL    HW113191   3.609   2.969   9.830
 3786SOL    HW213192   3.760   2.959   9.822
 3787SOL     OW13193  10.951   3.538   2.228
 3787SOL    HW113194  11.024   3.523   2.287
 3787SOL    HW213195  10.926   3.450   2.198
 3788SOL     OW13196   0.420   5.327  10.278
 3788SOL    HW113197   0.469   5.252  10.243
 3788SOL    HW213198   0.387   5.372  10.201
 3789SOL     OW13199   9.330   5.938  10.556
 3789SOL    HW113200   9.314   5.967  10.646
 3789SOL    HW213201   9.419   5.965  10.537
 3790SOL     OW13202  13.017   3.324  14.726
 3790SOL    HW113203  13.033   3.350  14.635
 3790SOL    HW213204  13.070   3.246  14.738
 3791SOL     OW13205   5.104   5.256   1.278
 3791SOL    HW113206   5.071   5.171   1.309
 3791SOL    HW213207   5.162   5.285   1.349
 3792SOL     OW13208  13.993   4.665  13.573
 3792SOL    HW113209  13.991   4.714  13.491
 3792SOL    HW213210  13.962   4.577  13.549
 3793SOL     OW13211   8.010   7.967   8.648
 3793SOL    HW113212   8.027   7.982   8.741
 3793SOL    HW213213   8.065   8.030   8.602
 3794SOL     OW13214   9.531  13.527   1.131
 3794SOL    HW113215   9.451  13.475   1.122
 3794SOL    HW213216   9.531  13.554   1.223
 3795SOL     OW13217  12.861  12.075  11.004
 3795SOL    HW113218  12.919  12.079  10.928
 3795SOL    HW213219  12.920  12.057  11.077
 3796SOL     OW13220   4.238  13.993   4.160
 3796SOL    HW113221   4.310  13.988   4.222
 3796SOL    HW213222   4.229  14.086   4.141
 3797SOL     OW13223   9.339  13.721  12.387
 3797SOL    HW113224   9.292  13.805  12.394
 3797SOL    HW213225   9.311  13.685  12.303
 3798SOL     OW13226   0.846  10.885  10.677
 3798SOL    HW113227   0.804  10.834  10.747
 3798SOL    HW213228   0.835  10.832  10.598
 3799SOL     OW13229  13.967   6.354   9.977
 3799SOL    HW113230  14.029   6.300  10.026
 3799SOL    HW213231  13.939   6.422  10.038
 3800SOL     OW13232   7.721  14.765   1.804
 3800SOL    HW113233   7.701  14.714   1.726
 3800SOL    HW213234   7.809  14.736   1.829
 3801SOL     OW13235   1.243  14.836  12.425
 3801SOL    HW113236   1.188  14.801  12.354
 3801SOL    HW213237   1.316  14.774  12.431
 3802SOL     OW13238   2.007  10.890  11.861
 3802SOL    HW113239   2.075  10.902  11.927
 3802SOL    HW213240   1.941  10.836  11.904
 3803SOL     OW13241  12.900  13.794   2.390
 3803SOL    HW113242  12.819  13.758   2.354
 3803SOL    HW213243  12.964  13.724   2.378
 3804SOL     OW13244  13.177   6.595   0.111
 3804SOL    HW113245  13.129   6.627   0.187
 3804SOL    HW213246  13.157   6.502   0.107
 3805SOL     OW13247   5.515  14.734   7.933
 3805SOL    HW113248   5.578  14.674   7.892
 3805SOL    HW213249   5.497  14.696   8.019
 3806SOL     OW13250   4.620   5.169  10.494
 3806SOL    HW113251   4.670   5.176  10.575
 3806SOL    HW213252   4.535   5.207  10.515
 3807SOL     OW13253  13.454  13.664   0.532
 3807SOL    HW113254  13.457  13.725   0.606
 3807SOL    HW213255  13.361  13.655   0.512
 3808SOL     OW13256   1.248  10.928   3.435
 3808SOL    HW113257   1.301  10.865   3.386
 3808SOL    HW213258   1.295  10.941   3.517
 3809SOL     OW13259   2.016   2.369   2.033
 3809SOL    HW113260   2.027   2.278   2.005
 3809SOL    HW213261   2.024   2.420   1.952
 3810SOL     OW13262   9.623  12.471   3.189
 3810SOL    HW113263   9.698  12.526   3.166
 3810SOL    HW213264   9.618  12.406   3.119
 3811SOL     OW13265   1.713   6.281   0.947
 3811SOL    HW113266   1.802   6.255   0.924
 3811SOL    HW213267   1.661   6.203   0.933
 3812SOL     OW13268  10.643   3.791   2.696
 3812SOL    HW113269  10.717   3.850   2.689
 3812SOL    HW213270  10.657   3.726   2.628
 3813SOL     OW13271  12.715   0.038   3.408
 3813SOL    HW113272  12.709   0.057   3.314
 3813SOL    HW213273  12.673  14.825   3.417
 3814SOL     OW13274   6.265   1.269   6.458
 3814SOL    HW113275   6.280   1.327   6.384
 3814SOL    HW213276   6.353   1.242   6.486
 3815SOL     OW13277  13.904   4.767   7.612
 3815SOL    HW113278  13.812   4.794   7.615
 3815SOL    HW213279  13.901   4.672   7.603
 3816SOL     OW13280  10.873  11.800  12.505
 3816SOL    HW113281  10.804  11.863  12.488
 3816SOL    HW213282  10.897  11.766  12.419
 3817SOL     OW13283  12.418   8.587  14.636
 3817SOL    HW113284  12.383   8.652  14.575
 3817SOL    HW213285  12.481   8.537  14.585
 3818SOL     OW13286  11.080  13.122   6.353
 3818SOL    HW113287  11.115  13.048   6.303
 3818SOL    HW213288  11.143  13.192   6.339
 3819SOL     OW13289  14.393   2.696  12.578
 3819SOL    HW113290  14.413   2.653  12.495
 3819SOL    HW213291  14.436   2.641  12.644
 3820SOL     OW13292   9.780   5.380   3.289
 3820SOL    HW113293   9.818   5.435   3.358
 3820SOL    HW213294   9.767   5.295   3.330
 3821SOL     OW13295   0.300   1.571   2.733
 3821SOL    HW113296   0.286   1.641   2.796
 3821SOL    HW213297   0.291   1.613   2.647
 3822SOL     OW13298  13.986   0.351   3.296
 3822SOL    HW113299  14.078   0.334   3.278
 3822SOL    HW213300  13.986   0.431   3.349
 3823SOL     OW13301   1.613   7.648  10.215
 3823SOL    HW113302   1.652   7.610  10.136
 3823SOL    HW213303   1.682   7.641  10.281
 3824SOL     OW13304   0.816  11.598   9.123
 3824SOL    HW113305   0.763  11.537   9.073
 3824SOL    HW213306   0.874  11.543   9.175
 3825SOL     OW13307  13.121   2.668  13.303
 3825SOL    HW113308  13.205   2.659  13.256
 3825SOL    HW213309  13.076   2.738  13.256
 3826SOL     OW13310   6.071   3.838  11.503
 3826SOL    HW113311   6.007   3.772  11.473
 3826SOL    HW213312   6.061   3.839  11.598
 3827SOL     OW13313   0.767   3.720   0.337
 3827SOL    HW113314   0.851   3.746   0.375
 3827SOL    HW213315   0.763   3.626   0.351
 3828SOL     OW13316   1.012   3.771  11.302
 3828SOL    HW113317   0.961   3.812  11.373
 3828SOL    HW213318   1.090   3.737  11.345
 3829SOL     OW13319  12.784   1.504   1.973
 3829SOL    HW113320  12.715   1.439   1.958
 3829SOL    HW213321  12.805   1.536   1.885
 3830SOL     OW13322   8.088   4.791   8.921
 3830SOL    HW113323   8.055   4.796   8.831
 3830SOL    HW213324   8.154   4.722   8.919
 3831SOL     OW13325   9.636  12.616  11.509
 3831SOL    HW113326   9.611  12.690  11.563
 3831SOL    HW213327   9.714  12.645  11.461
 3832SOL     OW13328   7.090   1.913   8.954
 3832SOL    HW113329   7.113   2.004   8.939
 3832SOL    HW213330   7.128   1.866   8.880
 3833SOL     OW13331  14.063  11.068   6.388
 3833SOL    HW113332  14.008  11.146   6.383
 3833SOL    HW213333  14.002  10.995   6.379
 3834SOL     OW13334  14.207   6.078   4.884
 3834SOL    HW113335  14.178   6.168   4.870
 3834SOL    HW213336  14.239   6.077   4.974
 3835SOL     OW13337   2.234   3.087   6.678
 3835SOL    HW113338   2.139   3.091   6.673
 3835SOL    HW213339   2.263   3.177   6.666
 3836SOL     OW13340  13.365  12.606   4.073
 3836SOL    HW113341  13.424  12.606   4.149
 3836SOL    HW213342  13.288  12.655   4.102
 3837SOL     OW13343  11.257   1.765  12.385
 3837SOL    HW113344  11.336   1.736  12.339
 3837SOL    HW213345  11.223   1.837  12.331
 3838SOL     OW13346  13.930   1.991   7.262
 3838SOL    HW113347  13.891   1.926   7.321
 3838SOL    HW213348  13.875   1.987   7.183
 3839SOL     OW13349   2.488   3.212  12.312
 3839SOL    HW113350   2.535   3.129  12.321
 3839SOL    HW213351   2.398   3.191  12.337
 3840SOL     OW13352  14.537   0.676   9.405
 3840SOL    HW113353  14.455   0.636   9.374
 3840SOL    HW213354  14.593   0.679   9.327
 3841SOL     OW13355   6.142   0.327   0.692
 3841SOL    HW113356   6.158   0.369   0.608
 3841SOL    HW213357   6.050   0.300   0.689
 3842SOL     OW13358   8.421   5.853   4.972
 3842SOL    HW113359   8.360   5.803   5.027
 3842SOL    HW213360   8.458   5.918   5.032
 3843SOL     OW13361   8.919  11.809   6.692
 3843SOL    HW113362   8.930  11.871   6.620
 3843SOL    HW213363   8.912  11.865   6.770
 3844SOL     OW13364   5.054   7.724  14.291
 3844SOL    HW113365   5.045   7.780  14.368
 3844SOL    HW213366   4.994   7.761  14.227
 3845SOL     OW13367  11.574  10.849  13.939
 3845SOL    HW113368  11.491  10.808  13.965
 3845SOL    HW213369  11.547  10.932  13.899
 3846SOL     OW13370   8.286  14.216   2.600
 3846SOL    HW113371   8.219  14.266   2.554
 3846SOL    HW213372   8.262  14.125   2.587
 3847SOL     OW13373   5.994   1.571   9.739
 3847SOL    HW113374   5.945   1.653   9.736
 3847SOL    HW213375   6.014   1.558   9.832
 3848SOL     OW13376   0.533   7.919  14.677
 3848SOL    HW113377   0.459   7.979  14.685
 3848SOL    HW213378   0.558   7.924  14.585
 3849SOL     OW13379   0.913   4.948   2.233
 3849SOL    HW113380   0.999   4.989   2.245
 3849SOL    HW213381   0.889   4.967   2.143
 3850SOL     OW13382  13.552  14.673  10.592
 3850SOL    HW113383  13.625  14.647  10.648
 3850SOL    HW213384  13.520  14.591  10.554
 3851SOL     OW13385   8.449  10.452   9.428
 3851SOL    HW113386   8.460  10.466   9.333
 3851SOL    HW213387   8.506  10.517   9.468
 3852SOL     OW13388  13.911   5.487   5.909
 3852SOL    HW113389  13.898   5.515   5.999
 3852SOL    HW213390  13.824   5.497   5.869
 3853SOL     OW13391   7.700   8.669  14.831
 3853SOL    HW113392   7.736   8.711  14.753
 3853SOL    HW213393   7.761   8.598  14.850
 3854SOL     OW13394   2.718  11.925  10.908
 3854SOL    HW113395   2.770  11.889  10.836
 3854SOL    HW213396   2.765  11.899  10.987
 3855SOL     OW13397   1.482  11.361   5.674
 3855SOL    HW113398   1.425  11.318   5.737
 3855SOL    HW213399   1.490  11.451   5.706
 3856SOL     OW13400   5.062   7.332   4.240
 3856SOL    HW113401   5.059   7.283   4.158
 3856SOL    HW213402   4.971   7.335   4.270
 3857SOL     OW13403   1.831   2.378  12.284
 3857SOL    HW113404   1.784   2.350  12.363
 3857SOL    HW213405   1.779   2.450  12.250
 3858SOL     OW13406  13.789   7.088   3.470
 3858SOL    HW113407  13.717   7.100   3.408
 3858SOL    HW213408  13.747   7.095   3.556
 3859SOL     OW13409   0.578   4.820   2.437
 3859SOL    HW113410   0.614   4.732   2.428
 3859SOL    HW213411   0.586   4.858   2.350
 3860SOL     OW13412   8.248  14.340   8.409
 3860SOL    HW113413   8.173  14.302   8.454
 3860SOL    HW213414   8.250  14.431   8.439
 3861SOL     OW13415  11.538   2.213   9.508
 3861SOL    HW113416  11.487   2.170   9.440
 3861SOL    HW213417  11.479   2.220   9.582
 3862SOL     OW13418   1.431  13.337   1.503
 3862SOL    HW113419   1.410  13.335   1.596
 3862SOL    HW213420   1.345  13.336   1.459
 3863SOL     OW13421  13.900  12.004  12.896
 3863SOL    HW113422  13.892  11.934  12.831
 3863SOL    HW213423  13.900  11.958  12.980
 3864SOL     OW13424   4.884  12.675  13.465
 3864SOL    HW113425   4.924  12.744  13.517
 3864SOL    HW213426   4.880  12.711  13.376
 3865SOL     OW13427  10.323  12.904   2.038
 3865SOL    HW113428  10.261  12.873   1.972
 3865SOL    HW213429  10.405  12.861   2.017
 3866SOL     OW13430   2.479   9.600  11.905
 3866SOL    HW113431   2.474   9.644  11.990
 3866SOL    HW213432   2.393   9.613  11.867
 3867SOL     OW13433  14.269   1.757   2.143
 3867SOL    HW113434  14.182   1.721   2.161
 3867SOL    HW213435  14.329   1.693   2.182
 3868SOL     OW13436   1.670  11.728   6.181
 3868SOL    HW113437   1.588  11.681   6.192
 3868SOL    HW213438   1.715  11.719   6.265
 3869SOL     OW13439   6.922   0.643   6.656
 3869SOL    HW113440   6.870   0.563   6.660
 3869SOL    HW213441   6.885   0.698   6.725
 3870SOL     OW13442   3.548  12.154  13.299
 3870SOL    HW113443   3.621  12.096  13.320
 3870SOL    HW213444   3.486  12.141  13.371
 3871SOL     OW13445   3.199   9.959   7.030
 3871SOL    HW113446   3.143   9.883   7.048
 3871SOL    HW213447   3.243   9.976   7.113
 3872SOL     OW13448   7.405  13.511   5.906
 3872SOL    HW113449   7.320  13.513   5.860
 3872SOL    HW213450   7.390  13.560   5.986
 3873SOL     OW13451   0.921   2.941   6.644
 3873SOL    HW113452   0.901   2.972   6.556
 3873SOL    HW213453   0.848   2.884   6.667
 3874SOL     OW13454   6.718   8.263   0.486
 3874SOL    HW113455   6.633   8.258   0.442
 3874SOL    HW213456   6.761   8.340   0.449
 3875SOL     OW13457  11.764   9.391   5.622
 3875SOL    HW113458  11.851   9.393   5.663
 3875SOL    HW213459  11.782   9.403   5.529
 3876SOL     OW13460  11.084   8.557  10.388
 3876SOL    HW113461  11.122   8.534  10.303
 3876SOL    HW213462  10.999   8.512  10.390
 3877SOL     OW13463   1.308  10.604   1.453
 3877SOL    HW113464   1.228  10.579   1.500
 3877SOL    HW213465   1.285  10.596   1.361
 3878SOL     OW13466   7.947  12.665  10.200
 3878SOL    HW113467   8.022  12.606  10.214
 3878SOL    HW213468   7.871  12.607  10.198
 3879SOL     OW13469  11.555   8.342  14.824
 3879SOL    HW113470  11.508   8.408  14.773
 3879SOL    HW213471  11.512   8.343   0.037
 3880SOL     OW13472   2.597   7.777  14.279
 3880SOL    HW113473   2.586   7.747  14.369
 3880SOL    HW213474   2.656   7.851  14.285
 3881SOL     OW13475   6.378   2.057   2.657
 3881SOL    HW113476   6.388   2.119   2.729
 3881SOL    HW213477   6.380   1.971   2.700
 3882SOL     OW13478   8.348   2.877   9.481
 3882SOL    HW113479   8.436   2.912   9.467
 3882SOL    HW213480   8.290   2.946   9.447
 3883SOL     OW13481  14.147  11.023   0.605
 3883SOL    HW113482  14.217  11.038   0.541
 3883SOL    HW213483  14.173  11.075   0.681
 3884SOL     OW13484   8.704   6.243   5.805
 3884SOL    HW113485   8.640   6.176   5.781
 3884SOL    HW213486   8.789   6.200   5.796
 3885SOL     OW13487   3.247   3.399  14.162
 3885SOL    HW113488   3.158   3.406  14.196
 3885SOL    HW213489   3.245   3.444  14.078
 3886SOL     OW13490  10.571   7.978   8.949
 3886SOL    HW113491  10.501   8.001   8.888
 3886SOL    HW213492  10.533   7.992   9.036
 3887SOL     OW13493   9.345   9.261   9.654
 3887SOL    HW113494   9.334   9.256   9.749
 3887SOL    HW213495   9.404   9.188   9.633
 3888SOL     OW13496   9.384   2.167  10.861
 3888SOL    HW113497   9.340   2.203  10.937
 3888SOL    HW213498   9.453   2.230  10.841
 3889SOL     OW13499  11.218   5.365   5.976
 3889SOL    HW113500  11.221   5.274   6.005
 3889SOL    HW213501  11.142   5.402   6.021
 3890SOL     OW13502   1.156   9.905   4.671
 3890SOL    HW113503   1.110   9.896   4.587
 3890SOL    HW213504   1.186   9.816   4.691
 3891SOL     OW13505   9.540   9.353   1.873
 3891SOL    HW113506   9.613   9.314   1.825
 3891SOL    HW213507   9.465   9.346   1.813
 3892SOL     OW13508   2.363   1.533   8.702
 3892SOL    HW113509   2.268   1.542   8.696
 3892SOL    HW213510   2.377   1.440   8.721
 3893SOL     OW13511  13.075   9.808   8.461
 3893SOL    HW113512  13.070   9.869   8.387
 3893SOL    HW213513  13.109   9.861   8.533
 3894SOL     OW13514  11.332  11.890  11.194
 3894SOL    HW113515  11.336  11.797  11.213
 3894SOL    HW213516  11.413  11.926  11.230
 3895SOL     OW13517   8.349   4.150  11.389
 3895SOL    HW113518   8.376   4.196  11.469
 3895SOL    HW213519   8.375   4.059  11.404
 3896SOL     OW13520  11.675   5.843   5.394
 3896SOL    HW113521  11.722   5.859   5.312
 3896SOL    HW213522  11.693   5.751   5.415
 3897SOL     OW13523   0.572  11.103   9.257
 3897SOL    HW113524   0.615  11.172   9.207
 3897SOL    HW213525   0.536  11.148   9.334
 3898SOL     OW13526  11.991  11.539   0.016
 3898SOL    HW113527  12.058  11.600  14.858
 3898SOL    HW213528  12.040  11.474   0.068
 3899SOL     OW13529   0.309   8.752  11.919
 3899SOL    HW113530   0.260   8.834  11.928
 3899SOL    HW213531   0.372   8.769  11.849
 3900SOL     OW13532   7.721   5.615  12.472
 3900SOL    HW113533   7.688   5.592  12.559
 3900SOL    HW213534   7.778   5.542  12.447
 3901SOL     OW13535   1.186  11.949   6.766
 3901SOL    HW113536   1.218  11.885   6.702
 3901SOL    HW213537   1.242  11.935   6.843
 3902SOL     OW13538  12.733   4.947   2.467
 3902SOL    HW113539  12.750   4.982   2.380
 3902SOL    HW213540  12.738   5.023   2.525
 3903SOL     OW13541   4.531   3.867  10.020
 3903SOL    HW113542   4.480   3.880  10.100
 3903SOL    HW213543   4.529   3.773  10.006
 3904SOL     OW13544  13.654   2.287  13.986
 3904SOL    HW113545  13.724   2.318  13.928
 3904SOL    HW213546  13.687   2.306  14.074
 3905SOL     OW13547  10.851   9.001  10.031
 3905SOL    HW113548  10.759   8.987  10.006
 3905SOL    HW213549  10.851   9.087  10.073
 3906SOL     OW13550   9.347  11.373   6.240
 3906SOL    HW113551   9.319  11.375   6.332
 3906SOL    HW213552   9.370  11.282   6.224
 3907SOL     OW13553   4.191  10.661  14.068
 3907SOL    HW113554   4.147  10.577  14.055
 3907SOL    HW213555   4.168  10.713  13.991
 3908SOL     OW13556  11.270   7.854  11.317
 3908SOL    HW113557  11.306   7.822  11.400
 3908SOL    HW213558  11.318   7.935  11.299
 3909SOL     OW13559  11.300  14.358  13.028
 3909SOL    HW113560  11.350  14.428  13.070
 3909SOL    HW213561  11.366  14.303  12.987
 3910SOL     OW13562   8.700   4.413   8.321
 3910SOL    HW113563   8.726   4.505   8.326
 3910SOL    HW213564   8.767   4.367   8.372
 3911SOL     OW13565   2.812   1.661   5.307
 3911SOL    HW113566   2.903   1.644   5.285
 3911SOL    HW213567   2.799   1.617   5.391
 3912SOL     OW13568   6.209   3.571   3.642
 3912SOL    HW113569   6.222   3.511   3.569
 3912SOL    HW213570   6.175   3.651   3.603
 3913SOL     OW13571   1.290  14.307   1.125
 3913SOL    HW113572   1.345  14.381   1.152
 3913SOL    HW213573   1.308  14.297   1.032
 3914SOL     OW13574  14.375   9.308   8.466
 3914SOL    HW113575  14.291   9.277   8.501
 3914SOL    HW213576  14.377   9.272   8.377
 3915SOL     OW13577   0.929  11.657   3.564
 3915SOL    HW113578   0.875  11.604   3.623
 3915SOL    HW213579   0.941  11.740   3.611
 3916SOL     OW13580  13.886  13.473  10.181
 3916SOL    HW113581  13.919  13.403  10.124
 3916SOL    HW213582  13.908  13.444  10.270
 3917SOL     OW13583  11.373   6.744   3.110
 3917SOL    HW113584  11.370   6.833   3.146
 3917SOL    HW213585  11.288   6.706   3.133
 3918SOL     OW13586   8.771   8.160  13.127
 3918SOL    HW113587   8.712   8.105  13.076
 3918SOL    HW213588   8.826   8.204  13.062
 3919SOL     OW13589   5.487  12.283   8.821
 3919SOL    HW113590   5.393  12.298   8.808
 3919SOL    HW213591   5.520  12.263   8.733
 3920SOL     OW13592  11.180   7.816  12.486
 3920SOL    HW113593  11.251   7.851  12.539
 3920SOL    HW213594  11.188   7.721  12.495
 3921SOL     OW13595  12.635   1.319   0.179
 3921SOL    HW113596  12.704   1.253   0.174
 3921SOL    HW213597  12.576   1.297   0.106
 3922SOL     OW13598  14.034   7.910   3.154
 3922SOL    HW113599  14.064   7.821   3.137
 3922SOL    HW213600  14.045   7.956   3.071
 3923SOL     OW13601   7.429   0.577  10.989
 3923SOL    HW113602   7.444   0.484  10.999
 3923SOL    HW213603   7.335   0.585  10.972
 3924SOL     OW13604   2.532   8.722   1.146
 3924SOL    HW113605   2.464   8.779   1.182
 3924SOL    HW213606   2.566   8.674   1.221
 3925SOL     OW13607  12.343  11.694   0.185
 3925SOL    HW113608  12.418  11.657   0.232
 3925SOL    HW213609  12.371  11.698   0.094
 3926SOL     OW13610   9.784  11.420  14.601
 3926SOL    HW113611   9.790  11.480  14.675
 3926SOL    HW213612   9.761  11.475  14.527
 3927SOL     OW13613   1.958   8.566  14.588
 3927SOL    HW113614   1.993   8.479  14.609
 3927SOL    HW213615   2.031   8.626  14.603
 3928SOL     OW13616   3.172   5.319  11.303
 3928SOL    HW113617   3.193   5.382  11.372
 3928SOL    HW213618   3.152   5.373  11.227
 3929SOL     OW13619  10.323  12.464   1.596
 3929SOL    HW113620  10.397  12.449   1.655
 3929SOL    HW213621  10.266  12.388   1.609
 3930SOL     OW13622   2.040   2.655   1.679
 3930SOL    HW113623   2.134   2.656   1.663
 3930SOL    HW213624   2.019   2.562   1.688
 3931SOL     OW13625  13.740  14.708   1.641
 3931SOL    HW113626  13.651  14.684   1.613
 3931SOL    HW213627  13.787  14.625   1.645
 3932SOL     OW13628  10.977   6.612   0.865
 3932SOL    HW113629  10.995   6.636   0.955
 3932SOL    HW213630  11.064   6.600   0.825
 3933SOL     OW13631   9.192  13.048  14.028
 3933SOL    HW113632   9.200  13.102  14.107
 3933SOL    HW213633   9.163  13.109  13.960
 3934SOL     OW13634   7.472   4.967   0.433
 3934SOL    HW113635   7.388   4.930   0.459
 3934SOL    HW213636   7.463   4.985   0.339
 3935SOL     OW13637  12.929   1.087  12.107
 3935SOL    HW113638  12.896   1.073  12.018
 3935SOL    HW213639  13.001   1.148  12.096
 3936SOL     OW13640   9.162   7.794   5.697
 3936SOL    HW113641   9.090   7.845   5.658
 3936SOL    HW213642   9.221   7.776   5.624
 3937SOL     OW13643  13.450   2.123   3.488
 3937SOL    HW113644  13.423   2.033   3.467
 3937SOL    HW213645  13.529   2.137   3.435
 3938SOL     OW13646   8.458   8.474  12.936
 3938SOL    HW113647   8.433   8.393  12.891
 3938SOL    HW213648   8.429   8.460  13.026
 3939SOL     OW13649   9.921   8.960   4.313
 3939SOL    HW113650   9.866   8.923   4.382
 3939SOL    HW213651   9.876   8.938   4.232
 3940SOL     OW13652  13.129   0.211  10.725
 3940SOL    HW113653  13.041   0.214  10.763
 3940SOL    HW213654  13.180   0.156  10.785
 3941SOL     OW13655  10.053   5.495   6.784
 3941SOL    HW113656  10.114   5.558   6.822
 3941SOL    HW213657   9.991   5.476   6.855
 3942SOL     OW13658   8.007   8.046  11.842
 3942SOL    HW113659   8.009   8.142  11.850
 3942SOL    HW213660   8.031   8.029  11.751
 3943SOL     OW13661   5.958   9.489  10.975
 3943SOL    HW113662   5.914   9.570  10.948
 3943SOL    HW213663   5.937   9.426  10.906
 3944SOL     OW13664   9.976  12.621   5.730
 3944SOL    HW113665  10.066  12.590   5.718
 3944SOL    HW213666   9.986  12.711   5.763
 3945SOL     OW13667  10.440  14.392   4.182
 3945SOL    HW113668  10.494  14.313   4.168
 3945SOL    HW213669  10.379  14.391   4.109
 3946SOL     OW13670   3.921   2.413   3.790
 3946SOL    HW113671   3.984   2.439   3.856
 3946SOL    HW213672   3.877   2.337   3.827
 3947SOL     OW13673   4.808   5.431   5.319
 3947SOL    HW113674   4.760   5.374   5.379
 3947SOL    HW213675   4.779   5.520   5.343
 3948SOL     OW13676  14.407   7.096   3.708
 3948SOL    HW113677  14.498   7.068   3.722
 3948SOL    HW213678  14.373   7.035   3.642
 3949SOL     OW13679   3.142  10.644   6.983
 3949SOL    HW113680   3.237  10.640   6.974
 3949SOL    HW213681   3.125  10.728   7.026
 3950SOL     OW13682  10.482   5.042   2.198
 3950SOL    HW113683  10.509   5.133   2.190
 3950SOL    HW213684  10.501   5.019   2.288
 3951SOL     OW13685  12.503   6.240   9.037
 3951SOL    HW113686  12.505   6.305   8.967
 3951SOL    HW213687  12.513   6.156   8.992
 3952SOL     OW13688   4.656   5.755   4.575
 3952SOL    HW113689   4.743   5.722   4.596
 3952SOL    HW213690   4.615   5.770   4.660
 3953SOL     OW13691   6.862   1.937   9.136
 3953SOL    HW113692   6.932   1.931   9.070
 3953SOL    HW213693   6.908   1.931   9.220
 3954SOL     OW13694   4.030   9.272  10.610
 3954SOL    HW113695   4.020   9.180  10.584
 3954SOL    HW213696   3.953   9.289  10.665
 3955SOL     OW13697   4.650   3.015   9.593
 3955SOL    HW113698   4.580   2.957   9.564
 3955SOL    HW213699   4.638   3.022   9.688
 3956SOL     OW13700   8.489   8.214   1.839
 3956SOL    HW113701   8.459   8.260   1.918
 3956SOL    HW213702   8.416   8.157   1.815
 3957SOL     OW13703  13.799   5.823   3.682
 3957SOL    HW113704  13.815   5.729   3.673
 3957SOL    HW213705  13.875   5.864   3.642
 3958SOL     OW13706   1.775   5.817   3.400
 3958SOL    HW113707   1.759   5.851   3.488
 3958SOL    HW213708   1.688   5.812   3.361
 3959SOL     OW13709   4.480  13.593   3.388
 3959SOL    HW113710   4.392  13.558   3.375
 3959SOL    HW213711   4.537  13.537   3.335
 3960SOL     OW13712   4.459   8.067   8.272
 3960SOL    HW113713   4.519   8.029   8.336
 3960SOL    HW213714   4.477   8.020   8.191
 3961SOL     OW13715  12.741  11.954   1.432
 3961SOL    HW113716  12.785  11.883   1.478
 3961SOL    HW213717  12.657  11.917   1.405
 3962SOL     OW13718   6.865  13.916   7.964
 3962SOL    HW113719   6.811  13.842   7.937
 3962SOL    HW213720   6.950  13.876   7.986
 3963SOL     OW13721  14.125   9.130   1.685
 3963SOL    HW113722  14.088   9.200   1.740
 3963SOL    HW213723  14.126   9.167   1.597
 3964SOL     OW13724   3.155   8.840  10.974
 3964SOL    HW113725   3.106   8.882  11.045
 3964SOL    HW213726   3.121   8.751  10.970
 3965SOL     OW13727   7.688   4.888   1.993
 3965SOL    HW113728   7.620   4.955   1.986
 3965SOL    HW213729   7.737   4.895   1.911
 3966SOL     OW13730  13.000   9.935   1.716
 3966SOL    HW113731  12.946   9.912   1.791
 3966SOL    HW213732  13.018  10.028   1.727
 3967SOL     OW13733   9.695  11.580   2.690
 3967SOL    HW113734   9.650  11.656   2.728
 3967SOL    HW213735   9.739  11.539   2.764
 3968SOL     OW13736   6.143   4.852  12.838
 3968SOL    HW113737   6.173   4.796  12.910
 3968SOL    HW213738   6.085   4.916  12.880
 3969SOL     OW13739   5.118   2.287   9.842
 3969SOL    HW113740   5.061   2.363   9.838
 3969SOL    HW213741   5.060   2.212   9.829
 3970SOL     OW13742  10.872   8.793  14.760
 3970SOL    HW113743  10.889   8.870  14.814
 3970SOL    HW213744  10.958   8.755  14.745
 3971SOL     OW13745   5.714   6.480   4.120
 3971SOL    HW113746   5.631   6.524   4.139
 3971SOL    HW213747   5.740   6.516   4.035
 3972SOL     OW13748  14.552   2.558   2.347
 3972SOL    HW113749  14.614   2.620   2.388
 3972SOL    HW213750  14.591   2.472   2.363
 3973SOL     OW13751  11.423   1.248   2.921
 3973SOL    HW113752  11.368   1.285   2.851
 3973SOL    HW213753  11.500   1.305   2.924
 3974SOL     OW13754  13.282   4.213   1.052
 3974SOL    HW113755  13.225   4.139   1.030
 3974SOL    HW213756  13.358   4.202   0.994
 3975SOL     OW13757   8.445   8.486  10.263
 3975SOL    HW113758   8.392   8.440  10.328
 3975SOL    HW213759   8.437   8.578  10.287
 3976SOL     OW13760  10.315   4.701   4.004
 3976SOL    HW113761  10.350   4.785   4.034
 3976SOL    HW213762  10.267   4.723   3.924
 3977SOL     OW13763   5.678  11.739   2.320
 3977SOL    HW113764   5.701  11.813   2.263
 3977SOL    HW213765   5.591  11.712   2.290
 3978SOL     OW13766   4.623  14.009   8.430
 3978SOL    HW113767   4.634  14.046   8.518
 3978SOL    HW213768   4.710  14.015   8.391
 3979SOL     OW13769   9.829   7.996   6.764
 3979SOL    HW113770   9.750   7.943   6.766
 3979SOL    HW213771   9.844   8.021   6.855
 3980SOL     OW13772   3.487   1.312  12.284
 3980SOL    HW113773   3.511   1.240  12.342
 3980SOL    HW213774   3.440   1.270  12.212
 3981SOL     OW13775   1.877  13.195  12.121
 3981SOL    HW113776   1.837  13.264  12.174
 3981SOL    HW213777   1.922  13.242  12.051
 3982SOL     OW13778   2.567   7.904   2.000
 3982SOL    HW113779   2.495   7.874   1.945
 3982SOL    HW213780   2.630   7.832   2.000
 3983SOL     OW13781  12.479   7.659   4.314
 3983SOL    HW113782  12.501   7.571   4.287
 3983SOL    HW213783  12.424   7.648   4.392
 3984SOL     OW13784   4.569  11.414  10.151
 3984SOL    HW113785   4.510  11.344  10.179
 3984SOL    HW213786   4.629  11.372  10.089
 3985SOL     OW13787   9.854   0.599  12.422
 3985SOL    HW113788   9.830   0.612  12.330
 3985SOL    HW213789   9.823   0.510  12.441
 3986SOL     OW13790  14.313   0.157   0.461
 3986SOL    HW113791  14.381   0.224   0.461
 3986SOL    HW213792  14.348   0.088   0.518
 3987SOL     OW13793   3.401  13.360   8.425
 3987SOL    HW113794   3.444  13.445   8.417
 3987SOL    HW213795   3.424  13.329   8.512
 3988SOL     OW13796   9.963   0.279   8.169
 3988SOL    HW113797   9.917   0.338   8.230
 3988SOL    HW213798   9.902   0.206   8.157
 3989SOL     OW13799   1.507   0.522  13.576
 3989SOL    HW113800   1.583   0.574  13.551
 3989SOL    HW213801   1.437   0.587  13.585
 3990SOL     OW13802  12.725  11.048   6.912
 3990SOL    HW113803  12.782  11.010   6.845
 3990SOL    HW213804  12.779  11.052   6.991
 3991SOL     OW13805   2.576   3.615  10.913
 3991SOL    HW113806   2.498   3.642  10.960
 3991SOL    HW213807   2.641   3.684  10.930
 3992SOL     OW13808   6.231   7.917  14.764
 3992SOL    HW113809   6.219   7.839  14.710
 3992SOL    HW213810   6.179   7.984  14.720
 3993SOL     OW13811   3.117  10.108  11.968
 3993SOL    HW113812   3.080  10.185  11.925
 3993SOL    HW213813   3.050  10.040  11.958
 3994SOL     OW13814   2.616  12.987   9.976
 3994SOL    HW113815   2.633  12.899   9.943
 3994SOL    HW213816   2.701  13.017  10.009
 3995SOL     OW13817   5.797   9.643   9.102
 3995SOL    HW113818   5.838   9.562   9.071
 3995SOL    HW213819   5.759   9.681   9.023
 3996SOL     OW13820   6.902  11.600   7.373
 3996SOL    HW113821   6.892  11.673   7.313
 3996SOL    HW213822   6.982  11.621   7.423
 3997SOL     OW13823   1.407   0.885  12.333
 3997SOL    HW113824   1.316   0.914  12.342
 3997SOL    HW213825   1.409   0.800  12.377
 3998SOL     OW13826   8.593   7.345   5.972
 3998SOL    HW113827   8.507   7.312   5.995
 3998SOL    HW213828   8.576   7.415   5.909
 3999SOL     OW13829   6.823   6.068   7.333
 3999SOL    HW113830   6.729   6.059   7.317
 3999SOL    HW213831   6.863   5.996   7.283
 4000SOL     OW13832  14.476  10.687  10.969
 4000SOL    HW113833  14.492  10.764  10.915
 4000SOL    HW213834  14.436  10.623  10.909
 4001SOL     OW13835  13.157  14.477   5.567
 4001SOL    HW113836  13.126  14.417   5.500
 4001SOL    HW213837  13.138  14.564   5.531
 4002SOL     OW13838   3.089   6.189   3.054
 4002SOL    HW113839   3.037   6.253   3.102
 4002SOL    HW213840   3.175   6.191   3.096
 4003SOL     OW13841   5.221   1.790   8.089
 4003SOL    HW113842   5.299   1.776   8.143
 4003SOL    HW213843   5.148   1.782   8.150
 4004SOL     OW13844   9.939  13.457   7.912
 4004SOL    HW113845  10.010  13.400   7.941
 4004SOL    HW213846   9.925  13.433   7.821
 4005SOL     OW13847  13.986  11.318  12.674
 4005SOL    HW113848  14.022  11.346  12.758
 4005SOL    HW213849  14.039  11.363  12.609
 4006SOL     OW13850  13.792   3.752   5.220
 4006SOL    HW113851  13.711   3.727   5.264
 4006SOL    HW213852  13.843   3.798   5.287
 4007SOL     OW13853   4.580   2.006   1.937
 4007SOL    HW113854   4.490   2.029   1.957
 4007SOL    HW213855   4.632   2.046   2.007
 4008SOL     OW13856   3.757  10.018   0.909
 4008SOL    HW113857   3.776   9.931   0.944
 4008SOL    HW213858   3.670  10.039   0.944
 4009SOL     OW13859   2.079  12.780   0.730
 4009SOL    HW113860   2.102  12.849   0.668
 4009SOL    HW213861   2.157  12.770   0.785
 4010SOL     OW13862   1.613   5.096   4.138
 4010SOL    HW113863   1.607   5.038   4.062
 4010SOL    HW213864   1.628   5.183   4.101
 4011SOL     OW13865   1.310   0.992   9.433
 4011SOL    HW113866   1.265   0.937   9.497
 4011SOL    HW213867   1.399   0.957   9.430
 4012SOL     OW13868  10.393   2.459  14.645
 4012SOL    HW113869  10.300   2.467  14.626
 4012SOL    HW213870  10.421   2.548  14.667
 4013SOL     OW13871   2.882  12.887   3.709
 4013SOL    HW113872   2.965  12.900   3.664
 4013SOL    HW213873   2.839  12.973   3.707
 4014SOL     OW13874   1.925  13.829  10.777
 4014SOL    HW113875   1.981  13.810  10.702
 4014SOL    HW213876   1.913  13.744  10.820
 4015SOL     OW13877   6.786   2.594   5.726
 4015SOL    HW113878   6.838   2.658   5.678
 4015SOL    HW213879   6.827   2.510   5.706
 4016SOL     OW13880   2.057   5.607  12.042
 4016SOL    HW113881   2.090   5.673  11.982
 4016SOL    HW213882   1.996   5.654  12.098
 4017SOL     OW13883  14.259   4.818   7.495
 4017SOL    HW113884  14.235   4.782   7.410
 4017SOL    HW213885  14.182   4.868   7.522
 4018SOL     OW13886   2.072   8.048   2.636
 4018SOL    HW113887   2.009   8.115   2.662
 4018SOL    HW213888   2.020   7.983   2.588
 4019SOL     OW13889  14.544   1.751   8.626
 4019SOL    HW113890  14.510   1.702   8.550
 4019SOL    HW213891  14.477   1.740   8.693
 4020SOL     OW13892  12.334  10.186   4.730
 4020SOL    HW113893  12.269  10.212   4.796
 4020SOL    HW213894  12.316  10.094   4.712
 4021SOL     OW13895   1.074   0.822   6.162
 4021SOL    HW113896   1.091   0.740   6.115
 4021SOL    HW213897   1.109   0.807   6.250
 4022SOL     OW13898  11.443   0.611  12.400
 4022SOL    HW113899  11.423   0.570  12.316
 4022SOL    HW213900  11.367   0.592  12.454
 4023SOL     OW13901   9.465   5.907   5.599
 4023SOL    HW113902   9.532   5.852   5.642
 4023SOL    HW213903   9.456   5.869   5.511
 4024SOL     OW13904   1.067  14.326   1.981
 4024SOL    HW113905   1.131  14.282   1.925
 4024SOL    HW213906   1.061  14.414   1.946
 4025SOL     OW13907   1.898  10.601   8.515
 4025SOL    HW113908   1.854  10.654   8.448
 4025SOL    HW213909   1.840  10.526   8.529
 4026SOL     OW13910  11.140   4.013  13.177
 4026SOL    HW113911  11.109   3.979  13.261
 4026SOL    HW213912  11.234   4.024  13.190
 4027SOL     OW13913  10.897  12.381   9.192
 4027SOL    HW113914  10.926  12.411   9.279
 4027SOL    HW213915  10.956  12.309   9.171
 4028SOL     OW13916  11.594   9.028  12.514
 4028SOL    HW113917  11.642   8.994  12.439
 4028SOL    HW213918  11.603   8.960  12.581
 4029SOL     OW13919   8.679   2.560   4.467
 4029SOL    HW113920   8.600   2.512   4.489
 4029SOL    HW213921   8.673   2.642   4.517
 4030SOL     OW13922   1.349   5.589  10.610
 4030SOL    HW113923   1.309   5.657  10.664
 4030SOL    HW213924   1.276   5.532  10.587
 4031SOL     OW13925  13.758  12.108  11.327
 4031SOL    HW113926  13.839  12.156  11.343
 4031SOL    HW213927  13.688  12.172  11.342
 4032SOL     OW13928   6.415   2.895  13.814
 4032SOL    HW113929   6.322   2.919  13.819
 4032SOL    HW213930   6.427   2.831  13.884
 4033SOL     OW13931   3.628   3.044   2.450
 4033SOL    HW113932   3.696   3.002   2.398
 4033SOL    HW213933   3.592   3.113   2.393
 4034SOL     OW13934   9.113  13.731   4.109
 4034SOL    HW113935   9.076  13.711   4.023
 4034SOL    HW213936   9.055  13.688   4.172
 4035SOL     OW13937   3.494  10.866   6.405
 4035SOL    HW113938   3.406  10.840   6.430
 4035SOL    HW213939   3.494  10.863   6.310
 4036SOL     OW13940   6.670   1.436   1.321
 4036SOL    HW113941   6.692   1.517   1.276
 4036SOL    HW213942   6.614   1.463   1.393
 4037SOL     OW13943   0.093   7.488   8.981
 4037SOL    HW113944   0.020   7.476   8.921
 4037SOL    HW213945   0.163   7.433   8.945
 4038SOL     OW13946  12.696   0.340   9.962
 4038SOL    HW113947  12.657   0.283   9.896
 4038SOL    HW213948  12.680   0.296  10.045
 4039SOL     OW13949   3.157   1.607  14.871
 4039SOL    HW113950   3.200   1.601  14.786
 4039SOL    HW213951   3.206   1.547   0.055
 4040SOL     OW13952   0.419  13.192   0.185
 4040SOL    HW113953   0.431  13.196   0.090
 4040SOL    HW213954   0.455  13.107   0.210
 4041SOL     OW13955   8.474   4.700   0.963
 4041SOL    HW113956   8.537   4.673   0.896
 4041SOL    HW213957   8.490   4.639   1.036
 4042SOL     OW13958   1.812   9.678  14.811
 4042SOL    HW113959   1.874   9.632  14.867
 4042SOL    HW213960   1.729   9.674  14.858
 4043SOL     OW13961  10.045   6.384   3.194
 4043SOL    HW113962   9.973   6.368   3.133
 4043SOL    HW213963  10.112   6.320   3.169
 4044SOL     OW13964   1.272   8.077   8.226
 4044SOL    HW113965   1.191   8.036   8.257
 4044SOL    HW213966   1.331   8.074   8.301
 4045SOL     OW13967   1.912   6.605  14.185
 4045SOL    HW113968   1.886   6.556  14.263
 4045SOL    HW213969   1.942   6.539  14.123
 4046SOL     OW13970  11.853   6.357   8.446
 4046SOL    HW113971  11.760   6.343   8.428
 4046SOL    HW213972  11.899   6.320   8.371
 4047SOL     OW13973  11.633   1.780  12.481
 4047SOL    HW113974  11.606   1.857  12.531
 4047SOL    HW213975  11.725   1.796  12.461
 4048SOL     OW13976   8.165   6.089   3.610
 4048SOL    HW113977   8.246   6.039   3.609
 4048SOL    HW213978   8.153   6.117   3.519
 4049SOL     OW13979   6.775   6.034   9.013
 4049SOL    HW113980   6.708   6.077   9.066
 4049SOL    HW213981   6.736   6.026   8.927
 4050SOL     OW13982  12.408   4.161   0.887
 4050SOL    HW113983  12.406   4.078   0.839
 4050SOL    HW213984  12.321   4.167   0.928
 4051SOL     OW13985   1.498  12.437   7.464
 4051SOL    HW113986   1.457  12.522   7.451
 4051SOL    HW213987   1.427  12.381   7.495
 4052SOL     OW13988   0.468   0.562  12.165
 4052SOL    HW113989   0.473   0.509  12.244
 4052SOL    HW213990   0.529   0.634  12.180
 4053SOL     OW13991   5.480   0.550  12.153
 4053SOL    HW113992   5.533   0.474  12.128
 4053SOL    HW213993   5.541   0.623  12.155
 4054SOL     OW13994   5.142   2.517  14.218
 4054SOL    HW113995   5.178   2.487  14.135
 4054SOL    HW213996   5.180   2.458  14.283
 4055SOL     OW13997   2.641   7.625   7.122
 4055SOL    HW113998   2.705   7.578   7.176
 4055SOL    HW213999   2.612   7.698   7.177
 4056SOL     OW14000   1.516   0.796   0.377
 4056SOL    HW114001   1.528   0.882   0.416
 4056SOL    HW214002   1.597   0.749   0.399
 4057SOL     OW14003   1.127   8.278   7.690
 4057SOL    HW114004   1.153   8.272   7.782
 4057SOL    HW214005   1.053   8.219   7.682
 4058SOL     OW14006   4.914   6.330  12.923
 4058SOL    HW114007   4.971   6.407  12.926
 4058SOL    HW214008   4.922   6.290  13.009
 4059SOL     OW14009   2.128   7.445  10.834
 4059SOL    HW114010   2.127   7.359  10.875
 4059SOL    HW214011   2.220   7.463  10.815
 4060SOL     OW14012   2.717   9.368   5.696
 4060SOL    HW114013   2.733   9.355   5.790
 4060SOL    HW214014   2.634   9.416   5.692
 4061SOL     OW14015   6.547  11.190   9.452
 4061SOL    HW114016   6.574  11.103   9.478
 4061SOL    HW214017   6.503  11.226   9.530
 4062SOL     OW14018   0.150  10.028   1.317
 4062SOL    HW114019   0.113  10.036   1.230
 4062SOL    HW214020   0.095  10.084   1.372
 4063SOL     OW14021   4.030   1.184  11.745
 4063SOL    HW114022   4.043   1.100  11.789
 4063SOL    HW214023   4.113   1.230  11.757
 4064SOL     OW14024   5.083   6.942   6.835
 4064SOL    HW114025   5.089   6.965   6.742
 4064SOL    HW214026   5.172   6.916   6.858
 4065SOL     OW14027   0.169   3.844   5.704
 4065SOL    HW114028   0.252   3.874   5.666
 4065SOL    HW214029   0.193   3.809   5.789
 4066SOL     OW14030   6.268   5.573   8.541
 4066SOL    HW114031   6.302   5.626   8.469
 4066SOL    HW214032   6.177   5.602   8.551
 4067SOL     OW14033   6.722  13.224   7.748
 4067SOL    HW114034   6.792  13.259   7.693
 4067SOL    HW214035   6.740  13.129   7.752
 4068SOL     OW14036  11.977   3.971  11.303
 4068SOL    HW114037  12.018   3.904  11.357
 4068SOL    HW214038  11.916   3.922  11.247
 4069SOL     OW14039  11.986   4.052   6.572
 4069SOL    HW114040  11.943   4.123   6.526
 4069SOL    HW214041  12.069   4.040   6.525
 4070SOL     OW14042   3.751   8.470   0.325
 4070SOL    HW114043   3.843   8.493   0.313
 4070SOL    HW214044   3.752   8.405   0.396
 4071SOL     OW14045   3.110  13.650   7.574
 4071SOL    HW114046   3.021  13.683   7.570
 4071SOL    HW214047   3.141  13.672   7.662
 4072SOL     OW14048   3.271   5.982   1.232
 4072SOL    HW114049   3.328   5.989   1.309
 4072SOL    HW214050   3.315   6.035   1.166
 4073SOL     OW14051  12.037   9.726   6.153
 4073SOL    HW114052  11.975   9.657   6.132
 4073SOL    HW214053  12.002   9.766   6.232
 4074SOL     OW14054  10.293  10.323  14.569
 4074SOL    HW114055  10.290  10.418  14.578
 4074SOL    HW214056  10.385  10.300  14.580
 4075SOL     OW14057   6.710  14.825   0.386
 4075SOL    HW114058   6.793  14.842   0.343
 4075SOL    HW214059   6.668   0.038   0.395
 4076SOL     OW14060  10.849  14.715  14.536
 4076SOL    HW114061  10.888  14.627  14.542
 4076SOL    HW214062  10.844  14.745  14.626
 4077SOL     OW14063   6.393   2.619   4.494
 4077SOL    HW114064   6.366   2.693   4.440
 4077SOL    HW214065   6.361   2.640   4.582
 4078SOL     OW14066   0.517   4.993   1.297
 4078SOL    HW114067   0.517   4.917   1.240
 4078SOL    HW214068   0.587   5.049   1.264
 4079SOL     OW14069  12.240   4.901   8.788
 4079SOL    HW114070  12.236   4.980   8.734
 4079SOL    HW214071  12.157   4.857   8.772
 4080SOL     OW14072   1.312   0.389   4.588
 4080SOL    HW114073   1.312   0.297   4.559
 4080SOL    HW214074   1.248   0.432   4.532
 4081SOL     OW14075   7.971   4.943   9.832
 4081SOL    HW114076   8.006   4.956   9.744
 4081SOL    HW214077   7.885   4.903   9.818
 4082SOL     OW14078  13.637   3.943   8.296
 4082SOL    HW114079  13.639   3.909   8.385
 4082SOL    HW214080  13.720   3.913   8.257
 4083SOL     OW14081   9.501   7.218   2.573
 4083SOL    HW114082   9.442   7.288   2.602
 4083SOL    HW214083   9.442   7.149   2.541
 4084SOL     OW14084  10.075  13.582   5.548
 4084SOL    HW114085  10.007  13.566   5.483
 4084SOL    HW214086  10.134  13.507   5.541
 4085SOL     OW14087  12.048   6.351  12.372
 4085SOL    HW114088  12.083   6.420  12.315
 4085SOL    HW214089  11.988   6.302  12.315
 4086SOL     OW14090  12.953   6.165   7.494
 4086SOL    HW114091  13.031   6.181   7.547
 4086SOL    HW214092  12.983   6.170   7.404
 4087SOL     OW14093  12.806   7.197   8.215
 4087SOL    HW114094  12.743   7.205   8.288
 4087SOL    HW214095  12.885   7.161   8.256
 4088SOL     OW14096   9.208  10.122   8.925
 4088SOL    HW114097   9.232  10.202   8.972
 4088SOL    HW214098   9.292  10.084   8.899
 4089SOL     OW14099   4.788   9.285  10.438
 4089SOL    HW114100   4.806   9.191  10.440
 4089SOL    HW214101   4.831   9.316  10.359
 4090SOL     OW14102  13.230  13.078   3.025
 4090SOL    HW114103  13.191  13.003   3.070
 4090SOL    HW214104  13.189  13.154   3.066
 4091SOL     OW14105   9.403   5.658   6.129
 4091SOL    HW114106   9.488   5.674   6.171
 4091SOL    HW214107   9.379   5.570   6.159
 4092SOL     OW14108  14.192   7.022   7.693
 4092SOL    HW114109  14.124   7.001   7.758
 4092SOL    HW214110  14.237   7.098   7.730
 4093SOL     OW14111   9.995  10.807   9.145
 4093SOL    HW114112  10.011  10.855   9.227
 4093SOL    HW214113  10.036  10.722   9.159
 4094SOL     OW14114  11.250  10.030  10.037
 4094SOL    HW114115  11.203  10.012  10.118
 4094SOL    HW214116  11.211   9.970   9.973
 4095SOL     OW14117   1.596  11.808   9.835
 4095SOL    HW114118   1.517  11.754   9.831
 4095SOL    HW214119   1.563  11.898   9.839
 4096SOL     OW14120   3.781   2.590   5.445
 4096SOL    HW114121   3.702   2.578   5.392
 4096SOL    HW214122   3.753   2.646   5.517
 4097SOL     OW14123   3.559   8.983   6.733
 4097SOL    HW114124   3.576   8.917   6.800
 4097SOL    HW214125   3.632   8.976   6.671
 4098SOL     OW14126  13.548   0.000   9.104
 4098SOL    HW114127  13.474   0.061   9.109
 4098SOL    HW214128  13.613   0.036   9.166
 4099SOL     OW14129   2.578  12.629  12.365
 4099SOL    HW114130   2.488  12.600  12.353
 4099SOL    HW214131   2.575  12.723  12.352
 4100SOL     OW14132   6.130   2.495   0.785
 4100SOL    HW114133   6.051   2.448   0.757
 4100SOL    HW214134   6.163   2.536   0.705
 4101SOL     OW14135  13.064  12.292   3.175
 4101SOL    HW114136  12.997  12.296   3.242
 4101SOL    HW214137  13.138  12.342   3.211
 4102SOL     OW14138   8.967   3.428   5.224
 4102SOL    HW114139   8.908   3.430   5.299
 4102SOL    HW214140   9.045   3.381   5.255
 4103SOL     OW14141   1.260   4.362   0.345
 4103SOL    HW114142   1.353   4.366   0.321
 4103SOL    HW214143   1.255   4.293   0.410
 4104SOL     OW14144   8.528   3.356   1.703
 4104SOL    HW114145   8.501   3.400   1.784
 4104SOL    HW214146   8.593   3.292   1.731
 4105SOL     OW14147  10.652   8.280  11.495
 4105SOL    HW114148  10.736   8.324  11.484
 4105SOL    HW214149  10.641   8.229  11.416
 4106SOL     OW14150   6.382   1.859  10.286
 4106SOL    HW114151   6.431   1.940  10.299
 4106SOL    HW214152   6.398   1.808  10.365
 4107SOL     OW14153  10.126   8.221  11.935
 4107SOL    HW114154  10.149   8.225  12.027
 4107SOL    HW214155  10.031   8.208  11.934
 4108SOL     OW14156   4.822  12.511   9.478
 4108SOL    HW114157   4.805  12.604   9.493
 4108SOL    HW214158   4.832  12.474   9.565
 4109SOL     OW14159  14.788  13.677   7.248
 4109SOL    HW114160  14.732  13.677   7.326
 4109SOL    HW214161  14.852  13.608   7.264
 4110SOL     OW14162   8.141   9.834  12.359
 4110SOL    HW114163   8.094   9.835  12.442
 4110SOL    HW214164   8.073   9.838  12.292
 4111SOL     OW14165   6.503  12.578   2.875
 4111SOL    HW114166   6.582  12.604   2.827
 4111SOL    HW214167   6.526  12.588   2.967
 4112SOL     OW14168  14.290  14.005   9.822
 4112SOL    HW114169  14.215  13.997   9.880
 4112SOL    HW214170  14.346  13.930   9.844
 4113SOL     OW14171  11.610   6.430   0.184
 4113SOL    HW114172  11.657   6.496   0.132
 4113SOL    HW214173  11.539   6.402   0.127
 4114SOL     OW14174  14.869   6.117   2.636
 4114SOL    HW114175   0.024   6.127   2.545
 4114SOL    HW214176   0.072   6.080   2.681
 4115SOL     OW14177   6.813   7.583   4.210
 4115SOL    HW114178   6.790   7.594   4.303
 4115SOL    HW214179   6.729   7.580   4.165
 4116SOL     OW14180   6.447   6.998   2.480
 4116SOL    HW114181   6.488   6.969   2.398
 4116SOL    HW214182   6.409   7.083   2.459
 4117SOL     OW14183  14.623   7.535   3.220
 4117SOL    HW114184  14.528   7.527   3.210
 4117SOL    HW214185  14.646   7.471   3.288
 4118SOL     OW14186   4.670   0.698   2.902
 4118SOL    HW114187   4.741   0.762   2.911
 4118SOL    HW214188   4.660   0.661   2.990
 4119SOL     OW14189   7.363  12.351   7.936
 4119SOL    HW114190   7.296  12.393   7.991
 4119SOL    HW214191   7.315  12.321   7.859
 4120SOL     OW14192   6.990  10.899   8.493
 4120SOL    HW114193   6.943  10.977   8.464
 4120SOL    HW214194   6.930  10.826   8.476
 4121SOL     OW14195  10.574   6.167   8.363
 4121SOL    HW114196  10.650   6.134   8.314
 4121SOL    HW214197  10.551   6.249   8.319
 4122SOL     OW14198   7.181  11.529   5.628
 4122SOL    HW114199   7.166  11.440   5.597
 4122SOL    HW214200   7.254  11.561   5.574
 4123SOL     OW14201   5.795   1.483  13.520
 4123SOL    HW114202   5.877   1.516  13.484
 4123SOL    HW214203   5.770   1.547  13.587
 4124SOL     OW14204   2.813   6.176  10.778
 4124SOL    HW114205   2.831   6.190  10.685
 4124SOL    HW214206   2.718   6.165  10.782
 4125SOL     OW14207  12.262   5.386  14.646
 4125SOL    HW114208  12.314   5.461  14.674
 4125SOL    HW214209  12.247   5.336  14.726
 4126SOL     OW14210  11.240   0.574  11.866
 4126SOL    HW114211  11.182   0.498  11.862
 4126SOL    HW214212  11.189   0.645  11.825
 4127SOL     OW14213   4.708  13.302  13.740
 4127SOL    HW114214   4.636  13.270  13.686
 4127SOL    HW214215   4.744  13.376  13.690
 4128SOL     OW14216  10.965   6.182   0.218
 4128SOL    HW114217  10.937   6.093   0.237
 4128SOL    HW214218  11.057   6.174   0.195
 4129SOL     OW14219   2.422   5.450   7.785
 4129SOL    HW114220   2.441   5.543   7.780
 4129SOL    HW214221   2.329   5.442   7.767
 4130SOL     OW14222   2.007  14.503   9.179
 4130SOL    HW114223   2.059  14.566   9.129
 4130SOL    HW214224   2.026  14.524   9.270
 4131SOL     OW14225   0.589   2.481  12.166
 4131SOL    HW114226   0.600   2.575  12.157
 4131SOL    HW214227   0.494   2.468  12.159
 4132SOL     OW14228  13.730   7.149   7.094
 4132SOL    HW114229  13.746   7.186   7.008
 4132SOL    HW214230  13.683   7.067   7.077
 4133SOL     OW14231   7.063   9.902   9.184
 4133SOL    HW114232   7.001   9.829   9.181
 4133SOL    HW214233   7.133   9.871   9.241
 4134SOL     OW14234   8.558   1.775   7.249
 4134SOL    HW114235   8.549   1.714   7.323
 4134SOL    HW214236   8.604   1.724   7.182
 4135SOL     OW14237  11.559   7.732   9.821
 4135SOL    HW114238  11.504   7.760   9.748
 4135SOL    HW214239  11.631   7.685   9.779
 4136SOL     OW14240  13.126  11.808   9.864
 4136SOL    HW114241  13.104  11.733   9.810
 4136SOL    HW214242  13.152  11.876   9.802
 4137SOL     OW14243  12.109   6.037   2.904
 4137SOL    HW114244  12.056   5.959   2.890
 4137SOL    HW214245  12.199   6.009   2.886
 4138SOL     OW14246  14.450   0.023  14.630
 4138SOL    HW114247  14.386  14.849  14.684
 4138SOL    HW214248  14.487  14.829  14.573
 4139SOL     OW14249  11.375   8.936   1.631
 4139SOL    HW114250  11.335   8.851   1.612
 4139SOL    HW214251  11.303   8.988   1.668
 4140SOL     OW14252   2.381   1.524   2.230
 4140SOL    HW114253   2.413   1.440   2.263
 4140SOL    HW214254   2.458   1.565   2.189
 4141SOL     OW14255  11.506   1.236   1.352
 4141SOL    HW114256  11.515   1.155   1.301
 4141SOL    HW214257  11.418   1.266   1.332
 4142SOL     OW14258   9.032  14.595   3.484
 4142SOL    HW114259   9.019  14.541   3.406
 4142SOL    HW214260   9.094  14.662   3.457
 4143SOL     OW14261   8.641   3.285  10.250
 4143SOL    HW114262   8.718   3.320  10.296
 4143SOL    HW214263   8.661   3.297  10.158
 4144SOL     OW14264  11.105  11.125   6.928
 4144SOL    HW114265  11.152  11.045   6.907
 4144SOL    HW214266  11.033  11.128   6.865
 4145SOL     OW14267   8.367   7.841  13.208
 4145SOL    HW114268   8.420   7.857  13.285
 4145SOL    HW214269   8.382   7.916  13.151
 4146SOL     OW14270  10.946  12.321   0.160
 4146SOL    HW114271  11.038  12.302   0.179
 4146SOL    HW214272  10.930  12.280   0.075
 4147SOL     OW14273  13.325   4.604   2.721
 4147SOL    HW114274  13.236   4.605   2.755
 4147SOL    HW214275  13.377   4.646   2.790
 4148SOL     OW14276  14.617   9.468   8.073
 4148SOL    HW114277  14.663   9.500   7.996
 4148SOL    HW214278  14.545   9.531   8.086
 4149SOL     OW14279   9.994  13.598  11.483
 4149SOL    HW114280   9.986  13.504  11.465
 4149SOL    HW214281   9.976  13.606  11.577
 4150SOL     OW14282   4.316  11.607  13.499
 4150SOL    HW114283   4.276  11.570  13.577
 4150SOL    HW214284   4.345  11.694  13.527
 4151SOL     OW14285  10.186   6.863   1.078
 4151SOL    HW114286  10.181   6.928   1.148
 4151SOL    HW214287  10.279   6.860   1.055
 4152SOL     OW14288  11.395   5.232   8.226
 4152SOL    HW114289  11.449   5.258   8.301
 4152SOL    HW214290  11.308   5.265   8.247
 4153SOL     OW14291   7.465   5.227   6.375
 4153SOL    HW114292   7.478   5.143   6.419
 4153SOL    HW214293   7.420   5.206   6.294
 4154SOL     OW14294  12.236  14.280   4.145
 4154SOL    HW114295  12.199  14.216   4.207
 4154SOL    HW214296  12.291  14.228   4.087
 4155SOL     OW14297   9.456   7.272   0.376
 4155SOL    HW114298   9.465   7.246   0.285
 4155SOL    HW214299   9.370   7.239   0.403
 4156SOL     OW14300  12.319   2.246   3.448
 4156SOL    HW114301  12.235   2.250   3.494
 4156SOL    HW214302  12.320   2.327   3.396
 4157SOL     OW14303  14.576  10.191  13.512
 4157SOL    HW114304  14.534  10.256  13.569
 4157SOL    HW214305  14.557  10.222  13.423
 4158SOL     OW14306   4.955   1.069  14.800
 4158SOL    HW114307   4.978   1.149  14.752
 4158SOL    HW214308   4.878   1.035  14.754
 4159SOL     OW14309   3.684   0.146   0.663
 4159SOL    HW114310   3.642   0.064   0.687
 4159SOL    HW214311   3.691   0.144   0.568
 4160SOL     OW14312   1.000   4.146   0.091
 4160SOL    HW114313   1.045   4.223   0.127
 4160SOL    HW214314   0.955   4.179   0.013
 4161SOL     OW14315   8.548   8.618  12.141
 4161SOL    HW114316   8.575   8.653  12.226
 4161SOL    HW214317   8.453   8.631  12.139
 4162SOL     OW14318   0.068  12.368  14.309
 4162SOL    HW114319  14.861  12.346  14.260
 4162SOL    HW214320   0.071  12.463  14.307
 4163SOL     OW14321   1.606  10.593  14.385
 4163SOL    HW114322   1.586  10.685  14.403
 4163SOL    HW214323   1.558  10.545  14.453
 4164SOL     OW14324   8.548   7.041   8.771
 4164SOL    HW114325   8.629   7.049   8.821
 4164SOL    HW214326   8.574   7.056   8.680
 4165SOL     OW14327   5.671  14.221  13.255
 4165SOL    HW114328   5.657  14.202  13.347
 4165SOL    HW214329   5.614  14.295  13.236
 4166SOL     OW14330   7.633   4.224   8.509
 4166SOL    HW114331   7.690   4.280   8.562
 4166SOL    HW214332   7.694   4.166   8.463
 4167SOL     OW14333  14.042   5.697   8.546
 4167SOL    HW114334  14.088   5.667   8.467
 4167SOL    HW214335  14.110   5.701   8.613
 4168SOL     OW14336   3.303   7.786  13.876
 4168SOL    HW114337   3.265   7.874  13.870
 4168SOL    HW214338   3.397   7.801  13.885
 4169SOL     OW14339   7.658   6.988   9.974
 4169SOL    HW114340   7.675   6.944   9.890
 4169SOL    HW214341   7.572   7.028   9.963
 4170SOL     OW14342   0.203   3.917   2.095
 4170SOL    HW114343   0.290   3.911   2.133
 4170SOL    HW214344   0.144   3.925   2.170
 4171SOL     OW14345  12.559   4.859   2.957
 4171SOL    HW114346  12.602   4.841   2.874
 4171SOL    HW214347  12.621   4.828   3.023
 4172SOL     OW14348   9.296  10.076   0.772
 4172SOL    HW114349   9.255  10.121   0.697
 4172SOL    HW214350   9.360  10.018   0.732
 4173SOL     OW14351  11.010   1.208  12.706
 4173SOL    HW114352  10.985   1.121  12.674
 4173SOL    HW214353  11.095   1.224  12.666
 4174SOL     OW14354  11.274   9.253   2.799
 4174SOL    HW114355  11.211   9.310   2.843
 4174SOL    HW214356  11.275   9.173   2.851
 4175SOL     OW14357  12.867   0.189   2.579
 4175SOL    HW114358  12.955   0.150   2.574
 4175SOL    HW214359  12.814   0.136   2.519
 4176SOL     OW14360  12.374  14.471   6.609
 4176SOL    HW114361  12.431  14.548   6.618
 4176SOL    HW214362  12.314  14.477   6.683
 4177SOL     OW14363   5.503  12.905  14.390
 4177SOL    HW114364   5.533  12.898  14.299
 4177SOL    HW214365   5.419  12.859  14.390
 4178SOL     OW14366   2.709   6.295   5.137
 4178SOL    HW114367   2.789   6.336   5.171
 4178SOL    HW214368   2.699   6.216   5.190
 4179SOL     OW14369   3.043  14.355   6.953
 4179SOL    HW114370   3.048  14.405   7.035
 4179SOL    HW214371   3.107  14.285   6.963
 4180SOL     OW14372  12.340   8.490   1.722
 4180SOL    HW114373  12.338   8.487   1.627
 4180SOL    HW214374  12.399   8.418   1.747
 4181SOL     OW14375  12.110  10.760  10.988
 4181SOL    HW114376  12.202  10.783  10.996
 4181SOL    HW214377  12.075  10.768  11.077
 4182SOL     OW14378   2.724   0.255   6.996
 4182SOL    HW114379   2.711   0.310   7.073
 4182SOL    HW214380   2.724   0.166   7.030
 4183SOL     OW14381   1.576  13.017  12.394
 4183SOL    HW114382   1.666  13.025  12.361
 4183SOL    HW214383   1.559  13.101  12.436
 4184SOL     OW14384   6.697  10.189  12.356
 4184SOL    HW114385   6.749  10.254  12.311
 4184SOL    HW214386   6.606  10.213  12.337
 4185SOL     OW14387  14.522  11.773   8.542
 4185SOL    HW114388  14.574  11.846   8.573
 4185SOL    HW214389  14.431  11.803   8.550
 4186SOL     OW14390  10.100   5.604  11.384
 4186SOL    HW114391  10.138   5.522  11.415
 4186SOL    HW214392  10.013   5.580  11.352
 4187SOL     OW14393  14.125   8.012  13.850
 4187SOL    HW114394  14.197   7.976  13.901
 4187SOL    HW214395  14.152   8.102  13.831
 4188SOL     OW14396   8.692  12.466   1.212
 4188SOL    HW114397   8.678  12.522   1.289
 4188SOL    HW214398   8.666  12.379   1.241
 4189SOL     OW14399   4.420   5.035   9.599
 4189SOL    HW114400   4.388   5.118   9.561
 4189SOL    HW214401   4.513   5.034   9.579
 4190SOL     OW14402   6.570  10.976   2.816
 4190SOL    HW114403   6.525  11.044   2.866
 4190SOL    HW214404   6.655  10.965   2.860
 4191SOL     OW14405  14.060   1.523   0.440
 4191SOL    HW114406  14.063   1.568   0.355
 4191SOL    HW214407  14.028   1.435   0.420
 4192SOL     OW14408   5.522   9.126  14.227
 4192SOL    HW114409   5.450   9.063  14.234
 4192SOL    HW214410   5.479   9.211  14.225
 4193SOL     OW14411   3.452  13.890   3.982
 4193SOL    HW114412   3.358  13.870   3.982
 4193SOL    HW214413   3.473  13.905   4.075
 4194SOL     OW14414   7.077   2.670   6.599
 4194SOL    HW114415   7.074   2.591   6.546
 4194SOL    HW214416   7.170   2.692   6.604
 4195SOL     OW14417  10.425   8.721  11.596
 4195SOL    HW114418  10.453   8.630  11.605
 4195SOL    HW214419  10.475   8.769  11.662
 4196SOL     OW14420   1.210   7.256   8.292
 4196SOL    HW114421   1.268   7.295   8.227
 4196SOL    HW214422   1.259   7.180   8.325
 4197SOL     OW14423  10.250  10.026  12.174
 4197SOL    HW114424  10.235   9.978  12.255
 4197SOL    HW214425  10.274   9.958  12.110
 4198SOL     OW14426   8.763  10.242  10.410
 4198SOL    HW114427   8.705  10.232  10.486
 4198SOL    HW214428   8.789  10.334  10.412
 4199SOL     OW14429  14.786   9.365   7.797
 4199SOL    HW114430  14.775   9.271   7.806
 4199SOL    HW214431  14.702   9.395   7.762
 4200SOL     OW14432  13.795   1.942  14.077
 4200SOL    HW114433  13.818   1.899  13.995
 4200SOL    HW214434  13.840   1.891  14.144
 4201SOL     OW14435   0.907   9.070  10.404
 4201SOL    HW114436   0.834   9.131  10.416
 4201SOL    HW214437   0.952   9.102  10.326
 4202SOL     OW14438  13.842   7.191   6.813
 4202SOL    HW114439  13.861   7.280   6.843
 4202SOL    HW214440  13.746   7.187   6.809
 4203SOL     OW14441   5.026  13.659  12.148
 4203SOL    HW114442   5.005  13.603  12.073
 4203SOL    HW214443   4.942  13.671  12.192
 4204SOL     OW14444  10.611   2.851  12.100
 4204SOL    HW114445  10.643   2.781  12.044
 4204SOL    HW214446  10.551   2.901  12.044
 4205SOL     OW14447   5.092   9.354   0.828
 4205SOL    HW114448   5.000   9.326   0.822
 4205SOL    HW214449   5.109   9.394   0.742
 4206SOL     OW14450   0.613  11.443   2.353
 4206SOL    HW114451   0.567  11.450   2.269
 4206SOL    HW214452   0.554  11.484   2.416
 4207SOL     OW14453   4.747  12.973  13.149
 4207SOL    HW114454   4.750  12.893  13.097
 4207SOL    HW214455   4.666  13.017  13.122
 4208SOL     OW14456  10.680   2.653  14.841
 4208SOL    HW114457  10.728   2.627   0.047
 4208SOL    HW214458  10.748   2.677  14.778
 4209SOL     OW14459  11.757   4.686   3.288
 4209SOL    HW114460  11.669   4.715   3.314
 4209SOL    HW214461  11.749   4.591   3.281
 4210SOL     OW14462   3.425   0.640   3.804
 4210SOL    HW114463   3.488   0.614   3.737
 4210SOL    HW214464   3.435   0.736   3.810
 4211SOL     OW14465   1.218   6.776  13.121
 4211SOL    HW114466   1.152   6.720  13.162
 4211SOL    HW214467   1.239   6.731  13.039
 4212SOL     OW14468   2.439  14.413  14.546
 4212SOL    HW114469   2.521  14.381  14.510
 4212SOL    HW214470   2.428  14.366  14.628
 4213SOL     OW14471   5.023  11.369   6.739
 4213SOL    HW114472   4.948  11.371   6.681
 4213SOL    HW214473   4.987  11.341   6.824
 4214SOL     OW14474   2.452   7.281  14.750
 4214SOL    HW114475   2.470   7.199  14.797
 4214SOL    HW214476   2.415   7.253  14.666
 4215SOL     OW14477   0.192  13.937   5.538
 4215SOL    HW114478   0.109  13.981   5.556
 4215SOL    HW214479   0.239  13.940   5.621
 4216SOL     OW14480  12.939  11.255  11.766
 4216SOL    HW114481  12.968  11.293  11.683
 4216SOL    HW214482  12.980  11.169  11.768
 4217SOL     OW14483  14.379   1.577  10.738
 4217SOL    HW114484  14.442   1.583  10.810
 4217SOL    HW214485  14.350   1.666  10.724
 4218SOL     OW14486   4.657   4.316  12.593
 4218SOL    HW114487   4.719   4.367  12.540
 4218SOL    HW214488   4.640   4.237  12.541
 4219SOL     OW14489   6.273   1.476   5.946
 4219SOL    HW114490   6.257   1.528   6.025
 4219SOL    HW214491   6.292   1.542   5.878
 4220SOL     OW14492   9.288   8.262   9.616
 4220SOL    HW114493   9.246   8.216   9.688
 4220SOL    HW214494   9.216   8.301   9.567
 4221SOL     OW14495  10.978  12.878   6.433
 4221SOL    HW114496  11.005  12.963   6.397
 4221SOL    HW214497  11.007  12.814   6.368
 4222SOL     OW14498  11.383   6.195   5.207
 4222SOL    HW114499  11.342   6.274   5.243
 4222SOL    HW214500  11.314   6.130   5.205
 4223SOL     OW14501   3.378   2.362   5.004
 4223SOL    HW114502   3.372   2.409   4.922
 4223SOL    HW214503   3.455   2.306   4.994
 4224SOL     OW14504  12.480  12.589   9.707
 4224SOL    HW114505  12.392  12.553   9.718
 4224SOL    HW214506  12.531  12.547   9.777
 4225SOL     OW14507   2.449   5.256   8.383
 4225SOL    HW114508   2.439   5.341   8.340
 4225SOL    HW214509   2.363   5.214   8.374
 4226SOL     OW14510   9.239   1.221  14.316
 4226SOL    HW114511   9.256   1.315  14.304
 4226SOL    HW214512   9.326   1.182  14.322
 4227SOL     OW14513   9.862   1.768   4.794
 4227SOL    HW114514   9.816   1.844   4.832
 4227SOL    HW214515   9.919   1.805   4.727
 4228SOL     OW14516   5.213   2.407   1.552
 4228SOL    HW114517   5.305   2.400   1.576
 4228SOL    HW214518   5.179   2.478   1.607
 4229SOL     OW14519   3.143   9.251   7.199
 4229SOL    HW114520   3.128   9.227   7.107
 4229SOL    HW214521   3.231   9.218   7.218
 4230SOL     OW14522  10.672   9.517   9.149
 4230SOL    HW114523  10.609   9.553   9.213
 4230SOL    HW214524  10.672   9.581   9.078
 4231SOL     OW14525   1.848  10.728   4.476
 4231SOL    HW114526   1.830  10.812   4.517
 4231SOL    HW214527   1.943  10.730   4.459
 4232SOL     OW14528   7.402   8.005   2.516
 4232SOL    HW114529   7.426   8.035   2.604
 4232SOL    HW214530   7.371   8.084   2.472
 4233SOL     OW14531  10.627   9.202   5.115
 4233SOL    HW114532  10.682   9.155   5.177
 4233SOL    HW214533  10.588   9.133   5.062
 4234SOL     OW14534   1.324  11.927  11.064
 4234SOL    HW114535   1.396  11.972  11.021
 4234SOL    HW214536   1.245  11.968  11.029
 4235SOL     OW14537   4.927  12.605   8.512
 4235SOL    HW114538   4.843  12.584   8.551
 4235SOL    HW214539   4.964  12.672   8.569
 4236SOL     OW14540   8.363   6.074  11.283
 4236SOL    HW114541   8.365   6.169  11.269
 4236SOL    HW214542   8.301   6.062  11.355
 4237SOL     OW14543   2.479   6.342   8.032
 4237SOL    HW114544   2.544   6.285   7.989
 4237SOL    HW214545   2.445   6.289   8.104
 4238SOL     OW14546   7.387  10.041   4.845
 4238SOL    HW114547   7.305  10.028   4.893
 4238SOL    HW214548   7.455  10.039   4.912
 4239SOL     OW14549   0.120   8.679   9.876
 4239SOL    HW114550   0.184   8.708   9.941
 4239SOL    HW214551   0.112   8.753   9.816
 4240SOL     OW14552   7.874  12.024   7.091
 4240SOL    HW114553   7.920  11.940   7.082
 4240SOL    HW214554   7.796  12.014   7.036
 4241SOL     OW14555   3.520   9.842   1.106
 4241SOL    HW114556   3.517   9.813   1.197
 4241SOL    HW214557   3.609   9.822   1.077
 4242SOL     OW14558  13.511   7.918   2.576
 4242SOL    HW114559  13.542   7.955   2.658
 4242SOL    HW214560  13.493   7.826   2.595
 4243SOL     OW14561  14.198   1.468   7.649
 4243SOL    HW114562  14.190   1.502   7.560
 4243SOL    HW214563  14.140   1.392   7.651
 4244SOL     OW14564  12.494   8.591  10.577
 4244SOL    HW114565  12.515   8.684  10.588
 4244SOL    HW214566  12.531   8.568  10.492
 4245SOL     OW14567  13.860   6.083   1.002
 4245SOL    HW114568  13.781   6.088   0.948
 4245SOL    HW214569  13.902   6.169   0.992
 4246SOL     OW14570   6.048  13.157  10.478
 4246SOL    HW114571   6.116  13.224  10.474
 4246SOL    HW214572   5.980  13.194  10.534
 4247SOL     OW14573   8.492   9.067  12.142
 4247SOL    HW114574   8.496   8.987  12.194
 4247SOL    HW214575   8.494   9.137  12.207
 4248SOL     OW14576   6.433   9.182  13.518
 4248SOL    HW114577   6.355   9.184  13.573
 4248SOL    HW214578   6.416   9.248  13.451
 4249SOL     OW14579   2.648   3.964   4.174
 4249SOL    HW114580   2.577   3.935   4.231
 4249SOL    HW214581   2.605   3.998   4.096
 4250SOL     OW14582  10.616   3.671  11.739
 4250SOL    HW114583  10.586   3.699  11.825
 4250SOL    HW214584  10.637   3.578  11.750
 4251SOL     OW14585  12.673   6.875  14.581
 4251SOL    HW114586  12.696   6.823  14.504
 4251SOL    HW214587  12.705   6.963  14.560
 4252SOL     OW14588  13.140   9.330   4.433
 4252SOL    HW114589  13.202   9.262   4.409
 4252SOL    HW214590  13.194   9.408   4.447
 4253SOL     OW14591  13.320   9.253   1.944
 4253SOL    HW114592  13.226   9.266   1.932
 4253SOL    HW214593  13.346   9.320   2.007
 4254SOL     OW14594  11.927  11.744   0.206
 4254SOL    HW114595  11.943  11.667   0.152
 4254SOL    HW214596  11.983  11.812   0.168
 4255SOL     OW14597  10.822   3.157   4.963
 4255SOL    HW114598  10.807   3.194   5.050
 4255SOL    HW214599  10.790   3.224   4.902
 4256SOL     OW14600   8.810   0.253  13.773
 4256SOL    HW114601   8.802   0.189  13.843
 4256SOL    HW214602   8.875   0.217  13.714
 4257SOL     OW14603   6.196   3.992   4.415
 4257SOL    HW114604   6.231   3.930   4.479
 4257SOL    HW214605   6.129   3.943   4.368
 4258SOL     OW14606   2.734   3.713   2.604
 4258SOL    HW114607   2.650   3.748   2.631
 4258SOL    HW214608   2.712   3.647   2.537
 4259SOL     OW14609   4.341   3.151   2.390
 4259SOL    HW114610   4.353   3.235   2.345
 4259SOL    HW214611   4.272   3.169   2.454
 4260SOL     OW14612   5.732   6.173   0.397
 4260SOL    HW114613   5.747   6.214   0.482
 4260SOL    HW214614   5.778   6.229   0.334
 4261SOL     OW14615   5.060   5.572   1.797
 4261SOL    HW114616   4.970   5.602   1.806
 4261SOL    HW214617   5.105   5.644   1.753
 4262SOL     OW14618   8.141   4.963  10.246
 4262SOL    HW114619   8.163   4.880  10.289
 4262SOL    HW214620   8.046   4.966  10.246
 4263SOL     OW14621  11.957   8.631   2.807
 4263SOL    HW114622  11.880   8.628   2.752
 4263SOL    HW214623  11.958   8.721   2.842
 4264SOL     OW14624  12.415   0.585   2.080
 4264SOL    HW114625  12.346   0.580   2.145
 4264SOL    HW214626  12.424   0.678   2.060
 4265SOL     OW14627  12.458  14.101   6.622
 4265SOL    HW114628  12.425  14.014   6.644
 4265SOL    HW214629  12.445  14.153   6.701
 4266SOL     OW14630   7.012   6.655  11.831
 4266SOL    HW114631   7.089   6.609  11.863
 4266SOL    HW214632   6.960   6.672  11.910
 4267SOL     OW14633  13.113  11.374  12.425
 4267SOL    HW114634  13.083  11.440  12.362
 4267SOL    HW214635  13.138  11.425  12.502
 4268SOL     OW14636   4.948  10.462   5.749
 4268SOL    HW114637   4.870  10.491   5.797
 4268SOL    HW214638   4.915  10.434   5.664
 4269SOL     OW14639  11.859   6.732  13.782
 4269SOL    HW114640  11.921   6.658  13.786
 4269SOL    HW214641  11.840   6.752  13.873
 4270SOL     OW14642  13.942  13.943  13.333
 4270SOL    HW114643  13.985  14.027  13.318
 4270SOL    HW214644  13.947  13.898  13.248
 4271SOL     OW14645   3.745  11.321   7.167
 4271SOL    HW114646   3.750  11.335   7.262
 4271SOL    HW214647   3.809  11.381   7.130
 4272SOL     OW14648   8.810   4.758  11.817
 4272SOL    HW114649   8.825   4.795  11.730
 4272SOL    HW214650   8.882   4.792  11.870
 4273SOL     OW14651   8.606   5.665  13.030
 4273SOL    HW114652   8.657   5.701  12.957
 4273SOL    HW214653   8.618   5.728  13.101
 4274SOL     OW14654   7.466   5.692   3.714
 4274SOL    HW114655   7.485   5.622   3.776
 4274SOL    HW214656   7.462   5.771   3.768
 4275SOL     OW14657  14.384  12.862   8.130
 4275SOL    HW114658  14.318  12.867   8.062
 4275SOL    HW214659  14.425  12.949   8.129
 4276SOL     OW14660   7.624   3.546   6.681
 4276SOL    HW114661   7.707   3.502   6.663
 4276SOL    HW214662   7.650   3.633   6.712
 4277SOL     OW14663   6.150   9.497   9.216
 4277SOL    HW114664   6.123   9.405   9.213
 4277SOL    HW214665   6.165   9.520   9.124
 4278SOL     OW14666   5.392  10.842  13.187
 4278SOL    HW114667   5.457  10.837  13.117
 4278SOL    HW214668   5.442  10.865  13.265
 4279SOL     OW14669   9.577   0.606   9.990
 4279SOL    HW114670   9.597   0.653  10.071
 4279SOL    HW214671   9.496   0.645   9.958
 4280SOL     OW14672   8.434  10.196  10.167
 4280SOL    HW114673   8.447  10.106  10.137
 4280SOL    HW214674   8.519  10.224  10.199
 4281SOL     OW14675  14.533   5.232   0.338
 4281SOL    HW114676  14.610   5.247   0.283
 4281SOL    HW214677  14.459   5.249   0.280
 4282SOL     OW14678   3.279  11.542   1.732
 4282SOL    HW114679   3.208  11.564   1.671
 4282SOL    HW214680   3.234  11.524   1.815
 4283SOL     OW14681   2.401   9.880   7.488
 4283SOL    HW114682   2.348   9.937   7.545
 4283SOL    HW214683   2.405   9.797   7.536
 4284SOL     OW14684   2.131   9.993   7.584
 4284SOL    HW114685   2.167  10.035   7.662
 4284SOL    HW214686   2.080   9.919   7.618
 4285SOL     OW14687   8.350   3.715   3.684
 4285SOL    HW114688   8.422   3.764   3.723
 4285SOL    HW214689   8.279   3.779   3.677
 4286SOL     OW14690  12.295   7.377   4.651
 4286SOL    HW114691  12.232   7.339   4.712
 4286SOL    HW214692  12.297   7.316   4.577
 4287SOL     OW14693   4.649   4.315   1.506
 4287SOL    HW114694   4.728   4.315   1.559
 4287SOL    HW214695   4.631   4.222   1.489
 4288SOL     OW14696   7.807   2.515  10.188
 4288SOL    HW114697   7.855   2.439  10.155
 4288SOL    HW214698   7.744   2.479  10.250
 4289SOL     OW14699   3.201  13.173   0.667
 4289SOL    HW114700   3.249  13.114   0.725
 4289SOL    HW214701   3.158  13.235   0.725
 4290SOL     OW14702  11.467  12.157   5.735
 4290SOL    HW114703  11.419  12.076   5.720
 4290SOL    HW214704  11.419  12.201   5.805
 4291SOL     OW14705   9.341   2.960  12.116
 4291SOL    HW114706   9.305   2.923  12.036
 4291SOL    HW214707   9.349   3.054  12.098
 4292SOL     OW14708   2.058  13.518   9.535
 4292SOL    HW114709   2.096  13.532   9.449
 4292SOL    HW214710   2.089  13.432   9.562
 4293SOL     OW14711   9.997   4.813   9.346
 4293SOL    HW114712  10.087   4.810   9.379
 4293SOL    HW214713  10.003   4.859   9.262
 4294SOL     OW14714  13.497   3.670   4.745
 4294SOL    HW114715  13.457   3.714   4.819
 4294SOL    HW214716  13.581   3.638   4.778
 4295SOL     OW14717   6.466   6.555   2.085
 4295SOL    HW114718   6.439   6.503   2.160
 4295SOL    HW214719   6.417   6.636   2.093
 4296SOL     OW14720   5.494  14.759   8.496
 4296SOL    HW114721   5.436  14.694   8.535
 4296SOL    HW214722   5.472  14.757   8.403
 4297SOL     OW14723   4.712   4.420   9.384
 4297SOL    HW114724   4.632   4.410   9.334
 4297SOL    HW214725   4.694   4.490   9.446
 4298SOL     OW14726  12.738   6.345  11.453
 4298SOL    HW114727  12.785   6.262  11.462
 4298SOL    HW214728  12.692   6.337  11.370
 4299SOL     OW14729   3.691   7.211  13.947
 4299SOL    HW114730   3.714   7.292  13.993
 4299SOL    HW214731   3.707   7.141  14.010
 4300SOL     OW14732  10.468   8.638   6.105
 4300SOL    HW114733  10.526   8.575   6.148
 4300SOL    HW214734  10.484   8.721   6.150
 4301SOL     OW14735   6.543   8.478   8.227
 4301SOL    HW114736   6.623   8.522   8.201
 4301SOL    HW214737   6.533   8.499   8.320
 4302SOL     OW14738   9.923  14.480   3.743
 4302SOL    HW114739   9.984  14.441   3.806
 4302SOL    HW214740   9.854  14.414   3.732
 4303SOL     OW14741   5.534   3.701  13.378
 4303SOL    HW114742   5.452   3.653  13.379
 4303SOL    HW214743   5.574   3.683  13.463
 4304SOL     OW14744   0.952  14.191   9.457
 4304SOL    HW114745   0.988  14.105   9.433
 4304SOL    HW214746   0.861  14.188   9.428
 4305SOL     OW14747  13.443  10.852   8.901
 4305SOL    HW114748  13.470  10.834   8.811
 4305SOL    HW214749  13.521  10.892   8.941
 4306SOL     OW14750  10.689   3.612   1.047
 4306SOL    HW114751  10.677   3.578   0.958
 4306SOL    HW214752  10.734   3.696   1.034
 4307SOL     OW14753   2.074  11.031  12.665
 4307SOL    HW114754   2.013  11.088  12.711
 4307SOL    HW214755   2.022  10.953  12.643
 4308SOL     OW14756   5.725   5.791  12.324
 4308SOL    HW114757   5.817   5.793  12.350
 4308SOL    HW214758   5.684   5.727  12.382
 4309SOL     OW14759   3.629   8.965   5.073
 4309SOL    HW114760   3.557   8.967   5.137
 4309SOL    HW214761   3.706   8.940   5.124
 4310SOL     OW14762   3.879   1.094   1.920
 4310SOL    HW114763   3.798   1.145   1.925
 4310SOL    HW214764   3.869   1.027   1.988
 4311SOL     OW14765   7.299   1.112   0.844
 4311SOL    HW114766   7.358   1.150   0.909
 4311SOL    HW214767   7.247   1.048   0.893
 4312SOL     OW14768  11.436   7.396   5.738
 4312SOL    HW114769  11.502   7.369   5.801
 4312SOL    HW214770  11.388   7.467   5.781
 4313SOL     OW14771   4.660  10.383   8.992
 4313SOL    HW114772   4.688  10.446   8.926
 4313SOL    HW214773   4.599  10.432   9.048
 4314SOL     OW14774   1.897   8.257   4.128
 4314SOL    HW114775   1.981   8.300   4.118
 4314SOL    HW214776   1.835   8.313   4.082
 4315SOL     OW14777   7.680   6.949   3.095
 4315SOL    HW114778   7.607   7.009   3.111
 4315SOL    HW214779   7.667   6.877   3.156
 4316SOL     OW14780   5.966   7.141  13.395
 4316SOL    HW114781   6.005   7.125  13.309
 4316SOL    HW214782   6.041   7.166  13.450
 4317SOL     OW14783   1.566   1.658   1.695
 4317SOL    HW114784   1.641   1.714   1.675
 4317SOL    HW214785   1.604   1.571   1.709
 4318SOL     OW14786   0.903   8.277  13.897
 4318SOL    HW114787   0.888   8.220  13.973
 4318SOL    HW214788   0.886   8.221  13.821
 4319SOL     OW14789  13.853   1.196   3.389
 4319SOL    HW114790  13.842   1.211   3.296
 4319SOL    HW214791  13.851   1.284   3.428
 4320SOL     OW14792  10.439  12.795   6.243
 4320SOL    HW114793  10.511  12.841   6.200
 4320SOL    HW214794  10.481  12.723   6.289
 4321SOL     OW14795   9.001  13.846   8.726
 4321SOL    HW114796   9.044  13.894   8.655
 4321SOL    HW214797   9.055  13.864   8.803
 4322SOL     OW14798   4.437   3.383   7.535
 4322SOL    HW114799   4.392   3.334   7.604
 4322SOL    HW214800   4.515   3.418   7.577
 4323SOL     OW14801   9.220   8.624   9.060
 4323SOL    HW114802   9.259   8.584   9.138
 4323SOL    HW214803   9.295   8.650   9.007
 4324SOL     OW14804   4.467  11.149  10.610
 4324SOL    HW114805   4.487  11.164  10.703
 4324SOL    HW214806   4.409  11.222  10.587
 4325SOL     OW14807  12.296  11.710  12.846
 4325SOL    HW114808  12.365  11.668  12.897
 4325SOL    HW214809  12.270  11.785  12.898
 4326SOL     OW14810  14.732   4.076  13.269
 4326SOL    HW114811  14.673   4.133  13.318
 4326SOL    HW214812  14.730   3.993  13.316
 4327SOL     OW14813   8.205  13.792   6.202
 4327SOL    HW114814   8.241  13.851   6.137
 4327SOL    HW214815   8.128  13.754   6.161
 4328SOL     OW14816   8.044   1.037   8.649
 4328SOL    HW114817   8.048   0.978   8.575
 4328SOL    HW214818   7.961   1.084   8.638
 4329SOL     OW14819   8.988   0.874  10.272
 4329SOL    HW114820   8.930   0.948  10.292
 4329SOL    HW214821   8.937   0.797  10.296
 4330SOL     OW14822   1.380  14.835   0.918
 4330SOL    HW114823   1.434   0.033   0.952
 4330SOL    HW214824   1.309  14.825   0.982
 4331SOL     OW14825   3.235   7.085   2.107
 4331SOL    HW114826   3.146   7.101   2.139
 4331SOL    HW214827   3.282   7.054   2.184
 4332SOL     OW14828   3.563   4.944   8.624
 4332SOL    HW114829   3.610   5.015   8.579
 4332SOL    HW214830   3.621   4.868   8.616
 4333SOL     OW14831   3.710  12.763  10.291
 4333SOL    HW114832   3.784  12.732  10.343
 4333SOL    HW214833   3.724  12.857  10.283
 4334SOL     OW14834  12.128   7.319   3.924
 4334SOL    HW114835  12.208   7.358   3.959
 4334SOL    HW214836  12.061   7.387   3.936
 4335SOL     OW14837   1.525   9.762   4.930
 4335SOL    HW114838   1.450   9.707   4.905
 4335SOL    HW214839   1.557   9.798   4.847
 4336SOL     OW14840  10.474  11.536   0.095
 4336SOL    HW114841  10.385  11.541   0.060
 4336SOL    HW214842  10.527  11.502   0.023
 4337SOL     OW14843   6.037   9.060   5.937
 4337SOL    HW114844   6.113   9.002   5.924
 4337SOL    HW214845   6.074   9.139   5.977
 4338SOL     OW14846   1.331   2.600   8.054
 4338SOL    HW114847   1.396   2.616   7.985
 4338SOL    HW214848   1.346   2.509   8.080
 4339SOL     OW14849   7.464   9.758  14.380
 4339SOL    HW114850   7.382   9.712  14.397
 4339SOL    HW214851   7.513   9.700  14.322
 4340SOL     OW14852   4.668  11.299  13.544
 4340SOL    HW114853   4.639  11.342  13.463
 4340SOL    HW214854   4.649  11.364  13.612
 4341SOL     OW14855   4.108   5.174  13.878
 4341SOL    HW114856   4.020   5.137  13.877
 4341SOL    HW214857   4.133   5.181  13.786
 4342SOL     OW14858   1.017  10.100   1.212
 4342SOL    HW114859   1.036  10.168   1.148
 4342SOL    HW214860   0.922  10.090   1.209
 4343SOL     OW14861   4.537   7.418   9.778
 4343SOL    HW114862   4.452   7.409   9.821
 4343SOL    HW214863   4.555   7.332   9.742
 4344SOL     OW14864   6.838  13.962   5.438
 4344SOL    HW114865   6.772  14.028   5.415
 4344SOL    HW214866   6.851  13.972   5.532
 4345SOL     OW14867  13.027   1.485   4.382
 4345SOL    HW114868  13.009   1.553   4.317
 4345SOL    HW214869  13.120   1.494   4.401
 4346SOL     OW14870   9.237  13.961   2.423
 4346SOL    HW114871   9.329  13.945   2.445
 4346SOL    HW214872   9.214  13.890   2.363
 4347SOL     OW14873   0.443  11.323   8.835
 4347SOL    HW114874   0.446  11.264   8.910
 4347SOL    HW214875   0.531  11.321   8.798
 4348SOL     OW14876  10.286  12.907   3.477
 4348SOL    HW114877  10.319  12.990   3.443
 4348SOL    HW214878  10.312  12.907   3.569
 4349SOL     OW14879   1.245   5.369   5.811
 4349SOL    HW114880   1.243   5.407   5.723
 4349SOL    HW214881   1.171   5.409   5.856
 4350SOL     OW14882  12.151   4.450   2.450
 4350SOL    HW114883  12.201   4.496   2.382
 4350SOL    HW214884  12.217   4.426   2.515
 4351SOL     OW14885   3.895   6.809   1.405
 4351SOL    HW114886   3.938   6.734   1.447
 4351SOL    HW214887   3.965   6.858   1.364
 4352SOL     OW14888   8.280   0.029   2.023
 4352SOL    HW114889   8.376   0.033   2.023
 4352SOL    HW214890   8.255   0.054   1.934
 4353SOL     OW14891   0.288  11.008  12.015
 4353SOL    HW114892   0.293  11.090  12.063
 4353SOL    HW214893   0.373  10.966  12.030
 4354SOL     OW14894  13.761   8.884  14.021
 4354SOL    HW114895  13.750   8.803  13.972
 4354SOL    HW214896  13.848   8.877  14.060
 4355SOL     OW14897  12.257   5.326  12.947
 4355SOL    HW114898  12.200   5.363  12.879
 4355SOL    HW214899  12.333   5.294  12.900
 4356SOL     OW14900  12.328  10.869   7.202
 4356SOL    HW114901  12.379  10.917   7.137
 4356SOL    HW214902  12.321  10.780   7.166
 4357SOL     OW14903   6.488  12.510  11.597
 4357SOL    HW114904   6.399  12.511  11.633
 4357SOL    HW214905   6.475  12.502  11.502
 4358SOL     OW14906   6.717   0.038  12.944
 4358SOL    HW114907   6.762  14.828  12.961
 4358SOL    HW214908   6.662   0.021  12.868
 4359SOL     OW14909   9.753  12.336   7.863
 4359SOL    HW114910   9.814  12.274   7.823
 4359SOL    HW214911   9.785  12.346   7.953
 4360SOL     OW14912   1.040   9.585   0.233
 4360SOL    HW114913   0.950   9.563   0.259
 4360SOL    HW214914   1.074   9.504   0.194
 4361SOL     OW14915   7.580   1.285   4.173
 4361SOL    HW114916   7.493   1.312   4.203
 4361SOL    HW214917   7.587   1.193   4.200
 4362SOL     OW14918   0.139   2.151  12.716
 4362SOL    HW114919   0.221   2.127  12.758
 4362SOL    HW214920   0.076   2.086  12.748
 4363SOL     OW14921   2.325   0.764   3.932
 4363SOL    HW114922   2.412   0.726   3.917
 4363SOL    HW214923   2.305   0.743   4.023
 4364SOL     OW14924  11.149   2.248  13.140
 4364SOL    HW114925  11.205   2.208  13.207
 4364SOL    HW214926  11.189   2.333  13.123
 4365SOL     OW14927   3.858  10.261   7.481
 4365SOL    HW114928   3.892  10.263   7.391
 4365SOL    HW214929   3.846  10.168   7.500
 4366SOL     OW14930   0.587  13.317  13.913
 4366SOL    HW114931   0.512  13.262  13.934
 4366SOL    HW214932   0.660  13.256  13.902
 4367SOL     OW14933   6.308  10.820  11.503
 4367SOL    HW114934   6.212  10.822  11.496
 4367SOL    HW214935   6.338  10.856  11.419
 4368SOL     OW14936   7.450  10.326   5.001
 4368SOL    HW114937   7.458  10.239   5.042
 4368SOL    HW214938   7.361  10.328   4.967
 4369SOL     OW14939  11.173   3.276   6.764
 4369SOL    HW114940  11.208   3.270   6.675
 4369SOL    HW214941  11.197   3.364   6.793
 4370SOL     OW14942  10.485  13.562  11.772
 4370SOL    HW114943  10.448  13.579  11.685
 4370SOL    HW214944  10.579  13.576  11.761
 4371SOL     OW14945   0.745  13.181  13.069
 4371SOL    HW114946   0.835  13.215  13.069
 4371SOL    HW214947   0.755  13.087  13.052
 4372SOL     OW14948   6.901   8.864   4.214
 4372SOL    HW114949   6.970   8.806   4.180
 4372SOL    HW214950   6.937   8.952   4.203
 4373SOL     OW14951   1.206   4.640   6.170
 4373SOL    HW114952   1.263   4.589   6.112
 4373SOL    HW214953   1.259   4.716   6.195
 4374SOL     OW14954  11.011   1.331   2.821
 4374SOL    HW114955  10.995   1.239   2.800
 4374SOL    HW214956  11.012   1.375   2.736
 4375SOL     OW14957   4.562   2.107  14.065
 4375SOL    HW114958   4.536   2.047  13.995
 4375SOL    HW214959   4.640   2.150  14.031
 4376SOL     OW14960   8.877  13.934   4.977
 4376SOL    HW114961   8.843  14.015   5.015
 4376SOL    HW214962   8.808  13.905   4.917
 4377SOL     OW14963  13.430  13.627   6.690
 4377SOL    HW114964  13.377  13.626   6.610
 4377SOL    HW214965  13.366  13.613   6.761
 4378SOL     OW14966   9.164  12.830   1.460
 4378SOL    HW114967   9.174  12.793   1.548
 4378SOL    HW214968   9.118  12.913   1.474
 4379SOL     OW14969  11.088  14.072  13.179
 4379SOL    HW114970  11.075  14.140  13.112
 4379SOL    HW214971  11.143  14.115  13.245
 4380SOL     OW14972   7.840  11.146   1.566
 4380SOL    HW114973   7.879  11.197   1.638
 4380SOL    HW214974   7.893  11.168   1.490
 4381SOL     OW14975   1.506   6.946   6.693
 4381SOL    HW114976   1.523   7.010   6.623
 4381SOL    HW214977   1.583   6.889   6.692
 4382SOL     OW14978   4.630   1.705   1.135
 4382SOL    HW114979   4.564   1.771   1.116
 4382SOL    HW214980   4.662   1.677   1.049
 4383SOL     OW14981   7.786   2.710  11.229
 4383SOL    HW114982   7.820   2.622  11.214
 4383SOL    HW214983   7.807   2.757  11.148
 4384SOL     OW14984   1.660   6.495  11.261
 4384SOL    HW114985   1.597   6.430  11.228
 4384SOL    HW214986   1.643   6.499  11.355
 4385SOL     OW14987  14.085   7.201   2.608
 4385SOL    HW114988  14.023   7.268   2.580
 4385SOL    HW214989  14.167   7.223   2.565
 4386SOL     OW14990   8.011   4.218   9.983
 4386SOL    HW114991   7.949   4.171   9.927
 4386SOL    HW214992   7.998   4.310   9.961
 4387SOL     OW14993   1.121   6.102   5.274
 4387SOL    HW114994   1.051   6.168   5.275
 4387SOL    HW214995   1.105   6.053   5.193
 4388SOL     OW14996  14.692   1.774  11.113
 4388SOL    HW114997  14.787   1.772  11.104
 4388SOL    HW214998  14.677   1.815  11.199
 4389SOL     OW14999   4.117   8.356  13.251
 4389SOL    HW115000   4.137   8.265  13.269
 4389SOL    HW215001   4.196   8.404  13.278
 4390SOL     OW15002  14.223   5.095   1.619
 4390SOL    HW115003  14.307   5.083   1.664
 4390SOL    HW215004  14.238   5.172   1.563
 4391SOL     OW15005   1.260   1.737  12.539
 4391SOL    HW115006   1.165   1.723  12.531
 4391SOL    HW215007   1.283   1.785  12.459
 4392SOL     OW15008   6.566   4.326   0.604
 4392SOL    HW115009   6.550   4.413   0.568
 4392SOL    HW215010   6.580   4.271   0.527
 4393SOL     OW15011   9.128  11.803   6.965
 4393SOL    HW115012   9.053  11.832   7.017
 4393SOL    HW215013   9.090  11.743   6.900
 4394SOL     OW15014   9.599  13.293  12.829
 4394SOL    HW115015   9.669  13.230  12.844
 4394SOL    HW215016   9.560  13.307  12.915
 4395SOL     OW15017   4.795   5.534   8.114
 4395SOL    HW115018   4.752   5.552   8.198
 4395SOL    HW215019   4.728   5.490   8.062
 4396SOL     OW15020  13.666   9.834  12.277
 4396SOL    HW115021  13.727   9.760  12.281
 4396SOL    HW215022  13.592   9.806  12.331
 4397SOL     OW15023  13.806   1.550   2.659
 4397SOL    HW115024  13.856   1.512   2.587
 4397SOL    HW215025  13.759   1.623   2.619
 4398SOL     OW15026   1.317   9.935   8.970
 4398SOL    HW115027   1.347   9.909   9.057
 4398SOL    HW215028   1.396   9.965   8.925
 4399SOL     OW15029   4.224   6.110   0.473
 4399SOL    HW115030   4.185   6.024   0.461
 4399SOL    HW215031   4.175   6.168   0.416
 4400SOL     OW15032  13.223   3.452   6.635
 4400SOL    HW115033  13.139   3.470   6.678
 4400SOL    HW215034  13.281   3.424   6.705
 4401SOL     OW15035  10.423  13.400  12.383
 4401SOL    HW115036  10.339  13.375  12.422
 4401SOL    HW215037  10.482  13.413  12.457
 4402SOL     OW15038  10.832   1.602   3.607
 4402SOL    HW115039  10.759   1.664   3.615
 4402SOL    HW215040  10.807   1.545   3.534
 4403SOL     OW15041   5.464   7.921   4.828
 4403SOL    HW115042   5.370   7.916   4.812
 4403SOL    HW215043   5.472   7.926   4.924
 4404SOL     OW15044  11.667   9.169  12.034
 4404SOL    HW115045  11.676   9.238  12.100
 4404SOL    HW215046  11.716   9.203  11.958
 4405SOL     OW15047   7.782  14.459   7.732
 4405SOL    HW115048   7.744  14.403   7.800
 4405SOL    HW215049   7.876  14.456   7.749
 4406SOL     OW15050   2.718   5.215  11.264
 4406SOL    HW115051   2.752   5.125  11.271
 4406SOL    HW215052   2.791   5.270  11.290
 4407SOL     OW15053  11.981  14.243   6.596
 4407SOL    HW115054  12.060  14.229   6.543
 4407SOL    HW215055  11.909  14.234   6.534
 4408SOL     OW15056  13.352   8.311   4.850
 4408SOL    HW115057  13.376   8.230   4.894
 4408SOL    HW215058  13.392   8.304   4.763
 4409SOL     OW15059   3.138   1.080  14.647
 4409SOL    HW115060   3.184   1.148  14.598
 4409SOL    HW215061   3.166   1.091  14.737
 4410SOL     OW15062   6.728   9.712   0.328
 4410SOL    HW115063   6.646   9.695   0.280
 4410SOL    HW215064   6.794   9.720   0.259
 4411SOL     OW15065  10.078   1.197   2.291
 4411SOL    HW115066  10.078   1.222   2.199
 4411SOL    HW215067  10.157   1.144   2.302
 4412SOL     OW15068   8.701   2.333  11.928
 4412SOL    HW115069   8.646   2.255  11.920
 4412SOL    HW215070   8.673   2.373  12.011
 4413SOL     OW15071  14.840  13.190  14.362
 4413SOL    HW115072  14.840  13.124  14.293
 4413SOL    HW215073   0.050  13.177  14.408
 4414SOL     OW15074   8.671   9.657  10.549
 4414SOL    HW115075   8.575   9.649  10.544
 4414SOL    HW215076   8.688   9.749  10.528
 4415SOL     OW15077  14.265   1.195   9.121
 4415SOL    HW115078  14.247   1.150   9.203
 4415SOL    HW215079  14.336   1.256   9.142
 4416SOL     OW15080  14.517  14.619   5.328
 4416SOL    HW115081  14.514  14.685   5.259
 4416SOL    HW215082  14.426  14.615   5.360
 4417SOL     OW15083   8.796  13.373  10.518
 4417SOL    HW115084   8.880  13.403  10.553
 4417SOL    HW215085   8.798  13.278  10.527
 4418SOL     OW15086  14.065   4.974   7.590
 4418SOL    HW115087  14.015   4.894   7.608
 4418SOL    HW215088  14.055   5.026   7.669
 4419SOL     OW15089  13.361   0.107   4.594
 4419SOL    HW115090  13.350   0.016   4.565
 4419SOL    HW215091  13.352   0.103   4.689
 4420SOL     OW15092  14.013   1.668   4.618
 4420SOL    HW115093  14.020   1.761   4.639
 4420SOL    HW215094  14.101   1.634   4.628
 4421SOL     OW15095   1.979  14.805  13.796
 4421SOL    HW115096   2.036  14.872  13.834
 4421SOL    HW215097   2.039  14.742  13.756
 4422SOL     OW15098  13.722  14.171   3.842
 4422SOL    HW115099  13.756  14.087   3.874
 4422SOL    HW215100  13.697  14.154   3.751
 4423SOL     OW15101   5.745   5.905   7.343
 4423SOL    HW115102   5.759   5.810   7.339
 4423SOL    HW215103   5.803   5.936   7.412
 4424SOL     OW15104  10.755  11.709  13.785
 4424SOL    HW115105  10.847  11.688  13.769
 4424SOL    HW215106  10.746  11.801  13.762
 4425SOL     OW15107  14.103  11.481   3.116
 4425SOL    HW115108  14.190  11.441   3.115
 4425SOL    HW215109  14.086  11.500   3.208
 4426SOL     OW15110  14.040  12.760   5.833
 4426SOL    HW115111  14.120  12.811   5.818
 4426SOL    HW215112  14.045  12.689   5.769
 4427SOL     OW15113   5.887   9.988  12.683
 4427SOL    HW115114   5.918  10.028  12.764
 4427SOL    HW215115   5.955   9.924  12.660
 4428SOL     OW15116   6.421   8.531   8.488
 4428SOL    HW115117   6.450   8.563   8.574
 4428SOL    HW215118   6.338   8.576   8.473
 4429SOL     OW15119   9.691  12.606   7.562
 4429SOL    HW115120   9.630  12.588   7.491
 4429SOL    HW215121   9.767  12.552   7.542
 4430SOL     OW15122  14.055   6.367  14.717
 4430SOL    HW115123  14.132   6.375  14.773
 4430SOL    HW215124  14.067   6.433  14.648
 4431SOL     OW15125   0.850  14.328  12.191
 4431SOL    HW115126   0.818  14.250  12.145
 4431SOL    HW215127   0.938  14.342  12.157
 4432SOL     OW15128  13.647  13.419   0.592
 4432SOL    HW115129  13.635  13.513   0.574
 4432SOL    HW215130  13.591  13.402   0.667
 4433SOL     OW15131   1.071  13.216   3.104
 4433SOL    HW115132   1.050  13.301   3.066
 4433SOL    HW215133   1.137  13.236   3.171
 4434SOL     OW15134   4.919  10.830  10.371
 4434SOL    HW115135   4.967  10.749  10.354
 4434SOL    HW215136   4.932  10.846  10.464
 4435SOL     OW15137  14.613   9.411  14.342
 4435SOL    HW115138  14.620   9.482  14.279
 4435SOL    HW215139  14.601   9.454  14.426
 4436SOL     OW15140   9.625   3.004  12.641
 4436SOL    HW115141   9.632   2.996  12.736
 4436SOL    HW215142   9.534   3.028  12.626
 4437SOL     OW15143   1.855   7.277  14.628
 4437SOL    HW115144   1.799   7.353  14.612
 4437SOL    HW215145   1.807   7.224  14.691
 4438SOL     OW15146  13.655   7.111   9.434
 4438SOL    HW115147  13.748   7.102   9.455
 4438SOL    HW215148  13.611   7.051   9.495
 4439SOL     OW15149   0.593  14.634   8.971
 4439SOL    HW115150   0.567  14.620   9.063
 4439SOL    HW215151   0.594  14.546   8.934
 4440SOL     OW15152   3.626  11.124   8.094
 4440SOL    HW115153   3.660  11.055   8.151
 4440SOL    HW215154   3.536  11.138   8.125
 4441SOL     OW15155  11.591   1.928   3.715
 4441SOL    HW115156  11.510   1.917   3.664
 4441SOL    HW215157  11.657   1.879   3.665
 4442SOL     OW15158   3.621  13.742   0.720
 4442SOL    HW115159   3.589  13.653   0.703
 4442SOL    HW215160   3.708  13.744   0.679
 4443SOL     OW15161   4.607   7.427  11.807
 4443SOL    HW115162   4.567   7.346  11.838
 4443SOL    HW215163   4.697   7.425  11.841
 4444SOL     OW15164   7.493   7.953   6.499
 4444SOL    HW115165   7.571   7.935   6.552
 4444SOL    HW215166   7.467   8.042   6.524
 4445SOL     OW15167   4.675  12.847  14.361
 4445SOL    HW115168   4.596  12.842  14.307
 4445SOL    HW215169   4.646  12.888  14.442
 4446SOL     OW15170  10.746   2.159   4.010
 4446SOL    HW115171  10.702   2.097   3.953
 4446SOL    HW215172  10.796   2.215   3.951
 4447SOL     OW15173   8.466  11.997   0.948
 4447SOL    HW115174   8.509  11.916   0.921
 4447SOL    HW215175   8.518  12.029   1.023
 4448SOL     OW15176   2.847   9.910  11.144
 4448SOL    HW115177   2.884   9.855  11.213
 4448SOL    HW215178   2.914   9.976  11.127
 4449SOL     OW15179   7.704   4.090   6.537
 4449SOL    HW115180   7.640   4.064   6.603
 4449SOL    HW215181   7.653   4.102   6.457
 4450SOL     OW15182   9.551  12.516   7.313
 4450SOL    HW115183   9.468  12.535   7.270
 4450SOL    HW215184   9.600  12.465   7.249
 4451SOL     OW15185  13.874   3.348   8.484
 4451SOL    HW115186  13.795   3.300   8.507
 4451SOL    HW215187  13.891   3.325   8.392
 4452SOL     OW15188   1.215   6.014  11.491
 4452SOL    HW115189   1.166   6.049  11.417
 4452SOL    HW215190   1.279   5.954  11.452
 4453SOL     OW15191   2.021   5.007   5.797
 4453SOL    HW115192   2.018   4.983   5.890
 4453SOL    HW215193   1.970   4.938   5.753
 4454SOL     OW15194   3.018  14.508   2.832
 4454SOL    HW115195   3.088  14.450   2.801
 4454SOL    HW215196   3.017  14.580   2.768
 4455SOL     OW15197   4.397   7.842  11.569
 4455SOL    HW115198   4.364   7.765  11.615
 4455SOL    HW215199   4.484   7.855  11.605
 4456SOL     OW15200  12.788   2.031   9.556
 4456SOL    HW115201  12.781   2.017   9.461
 4456SOL    HW215202  12.730   1.965   9.594
 4457SOL     OW15203   1.540   5.539   4.970
 4457SOL    HW115204   1.614   5.484   4.997
 4457SOL    HW215205   1.482   5.481   4.922
 4458SOL     OW15206   3.553   1.209   4.095
 4458SOL    HW115207   3.513   1.277   4.040
 4458SOL    HW215208   3.585   1.256   4.172
 4459SOL     OW15209   8.745  11.548  12.328
 4459SOL    HW115210   8.798  11.485  12.376
 4459SOL    HW215211   8.694  11.495  12.267
 4460SOL     OW15212   0.949   5.472   1.495
 4460SOL    HW115213   1.034   5.430   1.500
 4460SOL    HW215214   0.889   5.402   1.468
 4461SOL     OW15215   2.944   7.098  12.239
 4461SOL    HW115216   2.995   7.161  12.291
 4461SOL    HW215217   2.980   7.012  12.264
 4462SOL     OW15218   1.800   2.744   1.553
 4462SOL    HW115219   1.894   2.743   1.570
 4462SOL    HW215220   1.765   2.676   1.610
 4463SOL     OW15221  14.134   1.246   5.174
 4463SOL    HW115222  14.146   1.295   5.093
 4463SOL    HW215223  14.140   1.154   5.147
 4464SOL     OW15224   6.123   4.021   7.295
 4464SOL    HW115225   6.085   4.096   7.248
 4464SOL    HW215226   6.090   4.029   7.384
 4465SOL     OW15227   8.642  14.123  11.402
 4465SOL    HW115228   8.573  14.187  11.416
 4465SOL    HW215229   8.707  14.168  11.348
 4466SOL     OW15230  14.506  14.082   3.162
 4466SOL    HW115231  14.432  14.033   3.127
 4466SOL    HW215232  14.561  14.100   3.085
 4467SOL     OW15233   7.919  12.289   5.112
 4467SOL    HW115234   7.915  12.271   5.206
 4467SOL    HW215235   7.968  12.372   5.106
 4468SOL     OW15236   3.347   1.353   6.299
 4468SOL    HW115237   3.322   1.302   6.223
 4468SOL    HW215238   3.396   1.428   6.264
 4469SOL     OW15239   6.196   5.589  14.772
 4469SOL    HW115240   6.231   5.555  14.855
 4469SOL    HW215241   6.125   5.648  14.798
 4470SOL     OW15242   4.928  13.510   3.134
 4470SOL    HW115243   4.959  13.559   3.211
 4470SOL    HW215244   4.862  13.450   3.170
 4471SOL     OW15245  10.093  10.086   5.702
 4471SOL    HW115246  10.060  10.155   5.645
 4471SOL    HW215247  10.168  10.050   5.654
 4472SOL     OW15248  10.317  13.758   2.070
 4472SOL    HW115249  10.256  13.735   2.140
 4472SOL    HW215250  10.382  13.814   2.114
 4473SOL     OW15251  11.012  11.625   6.913
 4473SOL    HW115252  10.976  11.699   6.962
 4473SOL    HW215253  10.965  11.549   6.946
 4474SOL     OW15254  13.462   7.012  13.804
 4474SOL    HW115255  13.493   6.993  13.715
 4474SOL    HW215256  13.464   6.927  13.848
 4475SOL     OW15257   0.939   4.697   6.586
 4475SOL    HW115258   0.861   4.660   6.545
 4475SOL    HW215259   1.010   4.674   6.527
 4476SOL     OW15260  14.812   1.920   1.277
 4476SOL    HW115261  14.806   1.861   1.353
 4476SOL    HW215262  14.770   1.872   1.206
 4477SOL     OW15263   9.725  13.789  12.392
 4477SOL    HW115264   9.701  13.697  12.403
 4477SOL    HW215265   9.820  13.789  12.388
 4478SOL     OW15266   8.525   7.618   6.318
 4478SOL    HW115267   8.487   7.544   6.364
 4478SOL    HW215268   8.450   7.667   6.284
 4479SOL     OW15269  11.040   0.039   4.400
 4479SOL    HW115270  11.074  14.824   4.418
 4479SOL    HW215271  10.947   0.034   4.421
 4480SOL     OW15272   9.913   6.857  14.297
 4480SOL    HW115273   9.941   6.948  14.309
 4480SOL    HW215274   9.988   6.814  14.256
 4481SOL     OW15275   7.327   2.175   0.147
 4481SOL    HW115276   7.289   2.257   0.180
 4481SOL    HW215277   7.379   2.143   0.221
 4482SOL     OW15278  10.459   7.360  12.357
 4482SOL    HW115279  10.502   7.286  12.314
 4482SOL    HW215280  10.499   7.365  12.443
 4483SOL     OW15281  12.986  14.142   5.791
 4483SOL    HW115282  12.969  14.065   5.736
 4483SOL    HW215283  12.915  14.203   5.768
 4484SOL     OW15284   4.381   2.905  14.655
 4484SOL    HW115285   4.404   2.814  14.638
 4484SOL    HW215286   4.388   2.949  14.570
 4485SOL     OW15287   6.177  13.962  13.969
 4485SOL    HW115288   6.265  13.962  14.007
 4485SOL    HW215289   6.192  13.971  13.875
 4486SOL     OW15290   7.230   3.211  13.139
 4486SOL    HW115291   7.216   3.202  13.233
 4486SOL    HW215292   7.168   3.277  13.111
 4487SOL     OW15293  11.997   4.250   7.353
 4487SOL    HW115294  11.943   4.178   7.321
 4487SOL    HW215295  12.016   4.302   7.275
 4488SOL     OW15296   3.725   2.006  14.117
 4488SOL    HW115297   3.732   2.047  14.031
 4488SOL    HW215298   3.646   1.952  14.112
 4489SOL     OW15299   3.949   0.695   9.469
 4489SOL    HW115300   4.010   0.668   9.401
 4489SOL    HW215301   3.962   0.630   9.539
 4490SOL     OW15302   3.304  12.489   4.781
 4490SOL    HW115303   3.333  12.403   4.751
 4490SOL    HW215304   3.352  12.504   4.862
 4491SOL     OW15305  14.267  13.165   1.053
 4491SOL    HW115306  14.286  13.080   1.013
 4491SOL    HW215307  14.221  13.214   0.985
 4492SOL     OW15308   6.883   6.108  12.756
 4492SOL    HW115309   6.837   6.151  12.684
 4492SOL    HW215310   6.931   6.036  12.715
 4493SOL     OW15311   3.997   5.529   7.714
 4493SOL    HW115312   4.055   5.454   7.704
 4493SOL    HW215313   3.991   5.542   7.809
 4494SOL     OW15314   2.166  11.423  10.877
 4494SOL    HW115315   2.253  11.462  10.885
 4494SOL    HW215316   2.125  11.438  10.962
 4495SOL     OW15317  10.247   6.079  10.946
 4495SOL    HW115318  10.204   6.139  10.886
 4495SOL    HW215319  10.320   6.129  10.982
 4496SOL     OW15320  13.808   6.866  10.363
 4496SOL    HW115321  13.898   6.890  10.385
 4496SOL    HW215322  13.769   6.841  10.446
 4497SOL     OW15323   1.451  10.456   6.831
 4497SOL    HW115324   1.478  10.541   6.799
 4497SOL    HW215325   1.514  10.395   6.792
 4498SOL     OW15326   8.417  12.370  11.760
 4498SOL    HW115327   8.435  12.285  11.800
 4498SOL    HW215328   8.328  12.363  11.726
 4499SOL     OW15329   9.583  10.492  12.014
 4499SOL    HW115330   9.497  10.453  11.998
 4499SOL    HW215331   9.608  10.531  11.931
 4500SOL     OW15332   1.101  12.236   2.135
 4500SOL    HW115333   1.155  12.187   2.196
 4500SOL    HW215334   1.032  12.175   2.109
 4501SOL     OW15335  14.319   2.490   9.316
 4501SOL    HW115336  14.252   2.520   9.254
 4501SOL    HW215337  14.402   2.516   9.276
 4502SOL     OW15338  13.034   2.087  13.174
 4502SOL    HW115339  13.049   2.134  13.092
 4502SOL    HW215340  13.098   2.123  13.235
 4503SOL     OW15341  12.410  11.225   8.927
 4503SOL    HW115342  12.404  11.319   8.943
 4503SOL    HW215343  12.469  11.217   8.852
 4504SOL     OW15344   6.034  12.026   3.952
 4504SOL    HW115345   5.944  12.008   3.927
 4504SOL    HW215346   6.085  11.955   3.912
 4505SOL     OW15347   3.447   8.450   4.242
 4505SOL    HW115348   3.489   8.484   4.321
 4505SOL    HW215349   3.362   8.493   4.239
 4506SOL     OW15350   7.160  14.308  14.868
 4506SOL    HW115351   7.127  14.272  14.786
 4506SOL    HW215352   7.145  14.403  14.861
 4507SOL     OW15353   1.516  13.099   4.778
 4507SOL    HW115354   1.610  13.080   4.779
 4507SOL    HW215355   1.477  13.032   4.834
 4508SOL     OW15356   3.209   9.018  13.644
 4508SOL    HW115357   3.225   9.112  13.637
 4508SOL    HW215358   3.202   8.988  13.554
 4509SOL     OW15359   1.166  11.857  10.588
 4509SOL    HW115360   1.200  11.918  10.653
 4509SOL    HW215361   1.083  11.896  10.560
 4510SOL     OW15362   9.847   7.899   8.979
 4510SOL    HW115363   9.940   7.911   8.957
 4510SOL    HW215364   9.824   7.977   9.030
 4511SOL     OW15365  10.098   5.254   0.864
 4511SOL    HW115366  10.105   5.349   0.869
 4511SOL    HW215367  10.070   5.228   0.952
 4512SOL     OW15368   1.749  14.738  10.313
 4512SOL    HW115369   1.825  14.732  10.254
 4512SOL    HW215370   1.707  14.821  10.290
 4513SOL     OW15371   0.718   4.531   4.301
 4513SOL    HW115372   0.728   4.457   4.361
 4513SOL    HW215373   0.807   4.558   4.281
 4514SOL     OW15374   0.167  12.417   0.615
 4514SOL    HW115375   0.216  12.334   0.614
 4514SOL    HW215376   0.075  12.391   0.607
 4515SOL     OW15377  12.707   4.889   7.634
 4515SOL    HW115378  12.753   4.842   7.565
 4515SOL    HW215379  12.625   4.841   7.647
 4516SOL     OW15380   2.964  10.631   1.656
 4516SOL    HW115381   2.971  10.601   1.747
 4516SOL    HW215382   2.959  10.727   1.663
 4517SOL     OW15383  14.770   9.191  10.417
 4517SOL    HW115384  14.781   9.266  10.476
 4517SOL    HW215385  14.787   9.114  10.472
 4518SOL     OW15386   8.616  11.722   1.966
 4518SOL    HW115387   8.525  11.742   1.987
 4518SOL    HW215388   8.668  11.781   2.022
 4519SOL     OW15389  10.391   7.431  11.584
 4519SOL    HW115390  10.413   7.371  11.655
 4519SOL    HW215391  10.350   7.506  11.627
 4520SOL     OW15392  11.011  13.975   0.628
 4520SOL    HW115393  11.085  14.016   0.585
 4520SOL    HW215394  11.050  13.926   0.701
 4521SOL     OW15395  13.639   4.366   7.860
 4521SOL    HW115396  13.628   4.440   7.800
 4521SOL    HW215397  13.731   4.369   7.886
 4522SOL     OW15398   4.758   8.498   4.728
 4522SOL    HW115399   4.688   8.468   4.669
 4522SOL    HW215400   4.809   8.559   4.675
 4523SOL     OW15401  11.895   3.887   8.817
 4523SOL    HW115402  11.850   3.925   8.742
 4523SOL    HW215403  11.889   3.955   8.885
 4524SOL     OW15404   4.476   7.362   4.263
 4524SOL    HW115405   4.443   7.278   4.231
 4524SOL    HW215406   4.510   7.342   4.351
 4525SOL     OW15407   1.802  14.769  14.592
 4525SOL    HW115408   1.883  14.728  14.622
 4525SOL    HW215409   1.735  14.734  14.650
 4526SOL     OW15410   2.323   5.323   9.692
 4526SOL    HW115411   2.256   5.304   9.627
 4526SOL    HW215412   2.332   5.241   9.741
 4527SOL     OW15413  12.172   0.584  10.573
 4527SOL    HW115414  12.181   0.591  10.478
 4527SOL    HW215415  12.151   0.492  10.589
 4528SOL     OW15416  11.061   1.505  13.131
 4528SOL    HW115417  11.087   1.596  13.117
 4528SOL    HW215418  11.052   1.468  13.044
 4529SOL     OW15419  12.144   2.060   4.802
 4529SOL    HW115420  12.173   2.136   4.853
 4529SOL    HW215421  12.058   2.038   4.837
 4530SOL     OW15422   2.980   1.405  10.156
 4530SOL    HW115423   3.007   1.396  10.064
 4530SOL    HW215424   3.035   1.344  10.204
 4531SOL     OW15425   6.925   2.935   0.940
 4531SOL    HW115426   6.880   3.019   0.946
 4531SOL    HW215427   6.888   2.882   1.011
 4532SOL     OW15428  14.747   8.838   5.554
 4532SOL    HW115429  14.798   8.806   5.479
 4532SOL    HW215430  14.692   8.907   5.518
 4533SOL     OW15431   8.309  13.404   2.470
 4533SOL    HW115432   8.345  13.492   2.481
 4533SOL    HW215433   8.240  13.415   2.405
 4534SOL     OW15434  13.016  14.742   3.298
 4534SOL    HW115435  12.997  14.702   3.383
 4534SOL    HW215436  12.995  14.674   3.234
 4535SOL     OW15437   8.058   4.646  12.896
 4535SOL    HW115438   8.009   4.666  12.816
 4535SOL    HW215439   8.145   4.621  12.865
 4536SOL     OW15440   9.187  13.835   4.461
 4536SOL    HW115441   9.093  13.823   4.475
 4536SOL    HW215442   9.228  13.767   4.513
 4537SOL     OW15443   1.095   0.362   2.382
 4537SOL    HW115444   1.024   0.425   2.370
 4537SOL    HW215445   1.118   0.335   2.293
 4538SOL     OW15446  14.350  13.040   3.459
 4538SOL    HW115447  14.291  13.103   3.500
 4538SOL    HW215448  14.390  13.088   3.386
 4539SOL     OW15449   1.325   4.065  14.028
 4539SOL    HW115450   1.395   4.041  14.089
 4539SOL    HW215451   1.303   4.155  14.051
 4540SOL     OW15452  13.634   2.831   3.445
 4540SOL    HW115453  13.716   2.791   3.475
 4540SOL    HW215454  13.656   2.922   3.430
 4541SOL     OW15455   0.341   8.570  13.431
 4541SOL    HW115456   0.410   8.631  13.404
 4541SOL    HW215457   0.272   8.582  13.367
 4542SOL     OW15458   1.550   8.958   9.589
 4542SOL    HW115459   1.639   8.993   9.592
 4542SOL    HW215460   1.497   9.024   9.635
 4543SOL     OW15461  13.945   2.399   7.508
 4543SOL    HW115462  13.963   2.339   7.436
 4543SOL    HW215463  14.016   2.383   7.571
 4544SOL     OW15464  12.754   8.056  14.797
 4544SOL    HW115465  12.839   8.082  14.761
 4544SOL    HW215466  12.703   8.027  14.721
 4545SOL     OW15467   2.046   3.766   9.073
 4545SOL    HW115468   2.087   3.744   8.989
 4545SOL    HW215469   2.020   3.681   9.110
 4546SOL     OW15470   3.806   2.927   2.023
 4546SOL    HW115471   3.724   2.906   1.978
 4546SOL    HW215472   3.841   3.001   1.974
 4547SOL     OW15473   8.416   2.149   0.261
 4547SOL    HW115474   8.324   2.163   0.240
 4547SOL    HW215475   8.460   2.138   0.177
 4548SOL     OW15476   2.346   9.463   2.267
 4548SOL    HW115477   2.406   9.490   2.336
 4548SOL    HW215478   2.260   9.465   2.307
 4549SOL     OW15479  10.108   0.682   7.659
 4549SOL    HW115480  10.106   0.594   7.696
 4549SOL    HW215481  10.107   0.668   7.564
 4550SOL     OW15482   1.521  12.942  14.518
 4550SOL    HW115483   1.484  12.878  14.458
 4550SOL    HW215484   1.503  13.027  14.476
 4551SOL     OW15485  10.632   2.489  11.073
 4551SOL    HW115486  10.712   2.456  11.113
 4551SOL    HW215487  10.562   2.459  11.132
 4552SOL     OW15488   9.315   9.745  14.244
 4552SOL    HW115489   9.233   9.773  14.202
 4552SOL    HW215490   9.370   9.715  14.171
 4553SOL     OW15491   0.081  10.009  10.383
 4553SOL    HW115492   0.019  10.077  10.357
 4553SOL    HW215493   0.167  10.048  10.370
 4554SOL     OW15494   9.732  12.644  13.159
 4554SOL    HW115495   9.657  12.701  13.141
 4554SOL    HW215496   9.704  12.588  13.230
 4555SOL     OW15497   7.749   7.493   7.189
 4555SOL    HW115498   7.831   7.530   7.219
 4555SOL    HW215499   7.737   7.414   7.242
 4556SOL     OW15500   3.240   3.708  14.426
 4556SOL    HW115501   3.316   3.752  14.464
 4556SOL    HW215502   3.190   3.677  14.501
 4557SOL     OW15503  14.597   1.171   7.952
 4557SOL    HW115504  14.641   1.248   7.989
 4557SOL    HW215505  14.540   1.207   7.883
 4558SOL     OW15506   5.343  12.009   9.821
 4558SOL    HW115507   5.354  12.096   9.782
 4558SOL    HW215508   5.259  11.978   9.788
 4559SOL     OW15509  10.539   2.091  12.481
 4559SOL    HW115510  10.545   2.064  12.389
 4559SOL    HW215511  10.610   2.154  12.491
 4560SOL     OW15512   4.426   9.190   5.227
 4560SOL    HW115513   4.502   9.133   5.236
 4560SOL    HW215514   4.355   9.142   5.270
 4561SOL     OW15515   4.034  12.340  10.012
 4561SOL    HW115516   3.973  12.373   9.946
 4561SOL    HW215517   4.119  12.336   9.967
 4562SOL     OW15518  12.140   4.274   3.270
 4562SOL    HW115519  12.052   4.305   3.294
 4562SOL    HW215520  12.170   4.336   3.204
 4563SOL     OW15521   1.932   7.589   3.040
 4563SOL    HW115522   1.865   7.521   3.047
 4563SOL    HW215523   1.901   7.659   3.098
 4564SOL     OW15524  10.398   1.603   1.523
 4564SOL    HW115525  10.315   1.557   1.537
 4564SOL    HW215526  10.450   1.543   1.469
 4565SOL     OW15527  11.766   1.971   3.481
 4565SOL    HW115528  11.833   1.939   3.541
 4565SOL    HW215529  11.771   2.066   3.488
 4566SOL     OW15530   6.940  14.670  10.725
 4566SOL    HW115531   6.957  14.756  10.686
 4566SOL    HW215532   6.906  14.689  10.812
 4567SOL     OW15533  12.676   1.525   2.971
 4567SOL    HW115534  12.730   1.447   2.958
 4567SOL    HW215535  12.591   1.492   2.998
 4568SOL     OW15536  12.021  10.882   2.052
 4568SOL    HW115537  11.964  10.811   2.079
 4568SOL    HW215538  12.104  10.840   2.031
 4569SOL     OW15539   2.937   9.764   8.232
 4569SOL    HW115540   2.921   9.771   8.138
 4569SOL    HW215541   3.009   9.701   8.239
 4570SOL     OW15542  11.656   7.233   8.055
 4570SOL    HW115543  11.610   7.169   8.001
 4570SOL    HW215544  11.592   7.303   8.069
 4571SOL     OW15545   8.051   0.564  13.631
 4571SOL    HW115546   8.062   0.613  13.713
 4571SOL    HW215547   8.034   0.474  13.659
 4572SOL     OW15548   6.813   7.858  14.330
 4572SOL    HW115549   6.733   7.827  14.289
 4572SOL    HW215550   6.818   7.809  14.413
 4573SOL     OW15551   7.102  10.305  11.704
 4573SOL    HW115552   7.016  10.343  11.724
 4573SOL    HW215553   7.084  10.211  11.696
 4574SOL     OW15554   8.386   0.730  10.540
 4574SOL    HW115555   8.313   0.771  10.493
 4574SOL    HW215556   8.369   0.749  10.632
 4575SOL     OW15557   3.588   9.188   7.776
 4575SOL    HW115558   3.597   9.212   7.868
 4575SOL    HW215559   3.668   9.140   7.756
 4576SOL     OW15560   1.701  11.849   7.380
 4576SOL    HW115561   1.767  11.879   7.317
 4576SOL    HW215562   1.739  11.771   7.419
 4577SOL     OW15563   4.098  13.940   7.334
 4577SOL    HW115564   4.079  13.915   7.425
 4577SOL    HW215565   4.013  13.965   7.298
 4578SOL     OW15566   6.873   2.464  12.370
 4578SOL    HW115567   6.933   2.481  12.442
 4578SOL    HW215568   6.830   2.382  12.394
 4579SOL     OW15569   6.581   6.240   6.435
 4579SOL    HW115570   6.545   6.250   6.347
 4579SOL    HW215571   6.665   6.286   6.432
 4580SOL     OW15572  10.635  11.576  14.695
 4580SOL    HW115573  10.608  11.502  14.642
 4580SOL    HW215574  10.698  11.539  14.757
 4581SOL     OW15575  10.730   0.728  13.519
 4581SOL    HW115576  10.677   0.736  13.598
 4581SOL    HW215577  10.762   0.638  13.521
 4582SOL     OW15578   7.008  12.382  11.950
 4582SOL    HW115579   6.917  12.384  11.920
 4582SOL    HW215580   7.059  12.372  11.869
 4583SOL     OW15581   4.669   9.535  12.278
 4583SOL    HW115582   4.695   9.449  12.245
 4583SOL    HW215583   4.574   9.527  12.293
 4584SOL     OW15584   3.650  11.783   0.207
 4584SOL    HW115585   3.639  11.688   0.195
 4584SOL    HW215586   3.642  11.819   0.119
 4585SOL     OW15587   2.271   8.379   7.673
 4585SOL    HW115588   2.211   8.356   7.744
 4585SOL    HW215589   2.216   8.382   7.595
 4586SOL     OW15590   9.492   4.274  10.018
 4586SOL    HW115591   9.506   4.345   9.955
 4586SOL    HW215592   9.542   4.200   9.983
 4587SOL     OW15593   6.378   4.865  10.807
 4587SOL    HW115594   6.422   4.781  10.816
 4587SOL    HW215595   6.419   4.905  10.730
 4588SOL     OW15596   0.293  14.444   5.610
 4588SOL    HW115597   0.318  14.406   5.526
 4588SOL    HW215598   0.211  14.490   5.592
 4589SOL     OW15599  14.102  12.126   6.956
 4589SOL    HW115600  14.091  12.121   7.051
 4589SOL    HW215601  14.022  12.168   6.925
 4590SOL     OW15602   0.726   0.230  11.750
 4590SOL    HW115603   0.789   0.173  11.706
 4590SOL    HW215604   0.642   0.208  11.710
 4591SOL     OW15605   1.406   3.794  10.666
 4591SOL    HW115606   1.393   3.751  10.581
 4591SOL    HW215607   1.466   3.867  10.647
 4592SOL     OW15608  10.273   1.351  13.286
 4592SOL    HW115609  10.366   1.368  13.294
 4592SOL    HW215610  10.262   1.322  13.195
 4593SOL     OW15611   8.026   9.148  10.867
 4593SOL    HW115612   7.998   9.075  10.922
 4593SOL    HW215613   7.979   9.135  10.784
 4594SOL     OW15614  12.163   3.487   5.738
 4594SOL    HW115615  12.179   3.399   5.772
 4594SOL    HW215616  12.092   3.474   5.674
 4595SOL     OW15617   4.926   0.857  11.213
 4595SOL    HW115618   4.911   0.791  11.145
 4595SOL    HW215619   4.903   0.814  11.295
 4596SOL     OW15620   2.334   8.442   3.553
 4596SOL    HW115621   2.244   8.428   3.585
 4596SOL    HW215622   2.380   8.361   3.578
 4597SOL     OW15623   5.634  12.905   5.765
 4597SOL    HW115624   5.601  12.877   5.851
 4597SOL    HW215625   5.561  12.951   5.725
 4598SOL     OW15626   5.080   6.044  12.535
 4598SOL    HW115627   5.047   6.084  12.616
 4598SOL    HW215628   5.020   6.074  12.467
 4599SOL     OW15629   6.936  12.640   3.401
 4599SOL    HW115630   6.906  12.728   3.423
 4599SOL    HW215631   7.031  12.649   3.389
 4600SOL     OW15632   7.040  10.173   9.214
 4600SOL    HW115633   7.025  10.079   9.199
 4600SOL    HW215634   7.006  10.189   9.302
 4601SOL     OW15635  12.815   7.802  12.572
 4601SOL    HW115636  12.841   7.784  12.482
 4601SOL    HW215637  12.878   7.753  12.626
 4602SOL     OW15638   7.800   0.633   5.464
 4602SOL    HW115639   7.729   0.655   5.525
 4602SOL    HW215640   7.758   0.634   5.378
 4603SOL     OW15641   0.625   1.268  14.153
 4603SOL    HW115642   0.679   1.209  14.206
 4603SOL    HW215643   0.556   1.212  14.118
 4604SOL     OW15644   6.006   8.380   9.997
 4604SOL    HW115645   5.913   8.393   9.979
 4604SOL    HW215646   6.012   8.384  10.093
 4605SOL     OW15647  10.058  14.621   4.803
 4605SOL    HW115648  10.124  14.583   4.746
 4605SOL    HW215649  10.098  14.620   4.890
 4606SOL     OW15650  13.781   2.564  14.796
 4606SOL    HW115651  13.707   2.605  14.841
 4606SOL    HW215652  13.765   2.470  14.804
 4607SOL     OW15653   7.522  13.299  11.376
 4607SOL    HW115654   7.474  13.361  11.322
 4607SOL    HW215655   7.504  13.214  11.337
 4608SOL     OW15656   2.625  10.498   9.268
 4608SOL    HW115657   2.653  10.412   9.237
 4608SOL    HW215658   2.707  10.547   9.278
 4609SOL     OW15659   2.247  14.841   5.529
 4609SOL    HW115660   2.227  14.803   5.444
 4609SOL    HW215661   2.294   0.049   5.509
 4610SOL     OW15662   7.450  14.757   1.133
 4610SOL    HW115663   7.369  14.787   1.177
 4610SOL    HW215664   7.421  14.732   1.045
 4611SOL     OW15665   2.350  13.657  11.723
 4611SOL    HW115666   2.432  13.655  11.673
 4611SOL    HW215667   2.282  13.635  11.659
 4612SOL     OW15668   5.443  12.364   4.090
 4612SOL    HW115669   5.517  12.340   4.146
 4612SOL    HW215670   5.402  12.438   4.134
 4613SOL     OW15671   1.313   3.874   0.559
 4613SOL    HW115672   1.326   3.799   0.501
 4613SOL    HW215673   1.401   3.898   0.588
 4614SOL     OW15674   3.320   0.023  14.103
 4614SOL    HW115675   3.307  14.833  14.174
 4614SOL    HW215676   3.241   0.077  14.105
 4615SOL     OW15677   8.001   5.858   8.026
 4615SOL    HW115678   7.917   5.897   8.050
 4615SOL    HW215679   8.060   5.932   8.018
 4616SOL     OW15680  10.356   4.330  12.055
 4616SOL    HW115681  10.418   4.382  12.106
 4616SOL    HW215682  10.377   4.351  11.964
 4617SOL     OW15683   0.172   1.816  14.580
 4617SOL    HW115684   0.231   1.892  14.576
 4617SOL    HW215685   0.198   1.771  14.660
 4618SOL     OW15686   5.467   4.043   8.513
 4618SOL    HW115687   5.481   4.059   8.607
 4618SOL    HW215688   5.552   4.062   8.473
 4619SOL     OW15689   9.903   2.010   4.421
 4619SOL    HW115690   9.985   1.984   4.380
 4619SOL    HW215691   9.845   2.032   4.348
 4620SOL     OW15692   5.796   7.502   8.417
 4620SOL    HW115693   5.867   7.486   8.356
 4620SOL    HW215694   5.839   7.520   8.501
 4621SOL     OW15695   3.346  12.708  11.527
 4621SOL    HW115696   3.275  12.739  11.583
 4621SOL    HW215697   3.392  12.788  11.500
 4622SOL     OW15698   9.532  11.305  11.162
 4622SOL    HW115699   9.454  11.290  11.216
 4622SOL    HW215700   9.501  11.298  11.072
 4623SOL     OW15701  14.542   9.519  14.624
 4623SOL    HW115702  14.457   9.562  14.637
 4623SOL    HW215703  14.605   9.579  14.662
 4624SOL     OW15704  12.659   0.386   7.455
 4624SOL    HW115705  12.727   0.453   7.460
 4624SOL    HW215706  12.707   0.303   7.448
 4625SOL     OW15707   3.178  12.608   6.192
 4625SOL    HW115708   3.267  12.591   6.160
 4625SOL    HW215709   3.163  12.701   6.174
 4626SOL     OW15710   1.796  14.465   6.586
 4626SOL    HW115711   1.801  14.546   6.636
 4626SOL    HW215712   1.703  14.451   6.573
 4627SOL     OW15713  11.028   5.220  14.619
 4627SOL    HW115714  10.962   5.249  14.681
 4627SOL    HW215715  10.978   5.199  14.540
 4628SOL     OW15716  14.008   2.749  11.303
 4628SOL    HW115717  14.054   2.695  11.239
 4628SOL    HW215718  14.073   2.812  11.333
 4629SOL     OW15719   3.470  14.282  10.817
 4629SOL    HW115720   3.524  14.289  10.897
 4629SOL    HW215721   3.459  14.188  10.805
 4630SOL     OW15722  10.003   7.389   6.539
 4630SOL    HW115723  10.006   7.316   6.478
 4630SOL    HW215724   9.911   7.395   6.564
 4631SOL     OW15725   9.829  13.834   1.572
 4631SOL    HW115726   9.896  13.862   1.509
 4631SOL    HW215727   9.765  13.906   1.572
 4632SOL     OW15728  10.046  12.852   3.752
 4632SOL    HW115729  10.095  12.933   3.742
 4632SOL    HW215730  10.057  12.828   3.844
 4633SOL     OW15731   2.224   7.628  13.169
 4633SOL    HW115732   2.253   7.641  13.079
 4633SOL    HW215733   2.150   7.688  13.180
 4634SOL     OW15734  12.762   6.343  13.457
 4634SOL    HW115735  12.751   6.291  13.536
 4634SOL    HW215736  12.812   6.420  13.485
 4635SOL     OW15737   1.984   2.883  10.224
 4635SOL    HW115738   1.974   2.818  10.294
 4635SOL    HW215739   1.897   2.890  10.186
 4636SOL     OW15740  11.896   6.616   2.257
 4636SOL    HW115741  11.856   6.701   2.275
 4636SOL    HW215742  11.824   6.554   2.267
 4637SOL     OW15743   3.371   6.574   3.550
 4637SOL    HW115744   3.313   6.538   3.617
 4637SOL    HW215745   3.387   6.664   3.578
 4638SOL     OW15746   1.216   3.092   3.595
 4638SOL    HW115747   1.175   3.013   3.557
 4638SOL    HW215748   1.309   3.071   3.599
 4639SOL     OW15749  10.106   7.064  10.991
 4639SOL    HW115750  10.135   7.109  10.911
 4639SOL    HW215751  10.114   6.971  10.970
 4640SOL     OW15752  12.314  13.046  12.506
 4640SOL    HW115753  12.378  13.114  12.483
 4640SOL    HW215754  12.326  13.033  12.600
 4641SOL     OW15755   5.968   5.028   7.601
 4641SOL    HW115756   5.926   5.105   7.562
 4641SOL    HW215757   6.052   5.060   7.633
 4642SOL     OW15758  14.694  11.447   1.965
 4642SOL    HW115759  14.753  11.493   1.905
 4642SOL    HW215760  14.631  11.513   1.993
 4643SOL     OW15761   1.592   4.567   0.655
 4643SOL    HW115762   1.671   4.596   0.610
 4643SOL    HW215763   1.593   4.614   0.738
 4644SOL     OW15764   9.049  11.701  13.892
 4644SOL    HW115765   9.070  11.707  13.799
 4644SOL    HW215766   9.135  11.693  13.935
 4645SOL     OW15767   7.600   6.770   6.412
 4645SOL    HW115768   7.559   6.690   6.379
 4645SOL    HW215769   7.564   6.840   6.358
 4646SOL     OW15770   4.287   6.023   3.886
 4646SOL    HW115771   4.209   6.047   3.936
 4646SOL    HW215772   4.347   5.986   3.952
 4647SOL     OW15773   0.712  13.311   4.378
 4647SOL    HW115774   0.733  13.277   4.291
 4647SOL    HW215775   0.795  13.342   4.413
 4648SOL     OW15776  14.310  14.761  14.820
 4648SOL    HW115777  14.237  14.704  14.843
 4648SOL    HW215778  14.337  14.799   0.031
 4649SOL     OW15779   4.959   5.863   9.030
 4649SOL    HW115780   4.921   5.836   8.946
 4649SOL    HW215781   4.931   5.954   9.040
 4650SOL     OW15782  14.212  12.552   6.161
 4650SOL    HW115783  14.202  12.549   6.256
 4650SOL    HW215784  14.183  12.640   6.137
 4651SOL     OW15785  11.687   1.725   1.650
 4651SOL    HW115786  11.724   1.670   1.719
 4651SOL    HW215787  11.649   1.662   1.588
 4652SOL     OW15788   6.482   6.830  13.573
 4652SOL    HW115789   6.558   6.833  13.631
 4652SOL    HW215790   6.515   6.861  13.489
 4653SOL     OW15791  10.200  14.146   9.912
 4653SOL    HW115792  10.200  14.071   9.852
 4653SOL    HW215793  10.118  14.137   9.960
 4654SOL     OW15794   6.617  10.097   7.188
 4654SOL    HW115795   6.659  10.067   7.107
 4654SOL    HW215796   6.683  10.153   7.229
 4655SOL     OW15797   6.422   6.883   6.082
 4655SOL    HW115798   6.468   6.822   6.023
 4655SOL    HW215799   6.336   6.895   6.042
 4656SOL     OW15800   3.994  11.312   0.056
 4656SOL    HW115801   3.952  11.308   0.142
 4656SOL    HW215802   3.937  11.369   0.004
 4657SOL     OW15803  11.807   2.752   9.454
 4657SOL    HW115804  11.865   2.802   9.398
 4657SOL    HW215805  11.730   2.733   9.400
 4658SOL     OW15806   4.516   5.976   3.598
 4658SOL    HW115807   4.438   5.921   3.591
 4658SOL    HW215808   4.534   5.979   3.692
 4659SOL     OW15809   7.826  10.248  12.935
 4659SOL    HW115810   7.741  10.266  12.894
 4659SOL    HW215811   7.841  10.323  12.992
 4660SOL     OW15812   8.561   3.934   2.228
 4660SOL    HW115813   8.493   3.995   2.256
 4660SOL    HW215814   8.643   3.974   2.258
 4661SOL     OW15815   4.849  13.849   1.982
 4661SOL    HW115816   4.932  13.859   1.936
 4661SOL    HW215817   4.856  13.905   2.059
 4662SOL     OW15818   8.888  10.191   4.902
 4662SOL    HW115819   8.868  10.124   4.967
 4662SOL    HW215820   8.872  10.274   4.947
 4663SOL     OW15821   1.398   5.468  14.513
 4663SOL    HW115822   1.463   5.438  14.576
 4663SOL    HW215823   1.382   5.391  14.458
 4664SOL     OW15824   8.818   2.439  11.693
 4664SOL    HW115825   8.785   2.408  11.777
 4664SOL    HW215826   8.774   2.523  11.679
 4665SOL     OW15827   7.929   4.811   2.369
 4665SOL    HW115828   7.898   4.896   2.336
 4665SOL    HW215829   7.861   4.783   2.430
 4666SOL     OW15830   8.655   7.613  10.955
 4666SOL    HW115831   8.740   7.646  10.926
 4666SOL    HW215832   8.632   7.545  10.892
 4667SOL     OW15833   2.868   4.506   2.488
 4667SOL    HW115834   2.910   4.531   2.406
 4667SOL    HW215835   2.939   4.468   2.540
 4668SOL     OW15836   2.880  14.116   0.212
 4668SOL    HW115837   2.955  14.106   0.154
 4668SOL    HW215838   2.883  14.207   0.240
 4669SOL     OW15839  11.907   6.895   0.893
 4669SOL    HW115840  11.959   6.882   0.973
 4669SOL    HW215841  11.842   6.825   0.896
 4670SOL     OW15842  12.505  11.315  12.396
 4670SOL    HW115843  12.507  11.222  12.376
 4670SOL    HW215844  12.585  11.350  12.356
 4671SOL     OW15845   1.590   0.980  13.005
 4671SOL    HW115846   1.563   0.899  12.962
 4671SOL    HW215847   1.509   1.028  13.019
 4672SOL     OW15848   0.279   6.546   9.207
 4672SOL    HW115849   0.299   6.454   9.190
 4672SOL    HW215850   0.277   6.586   9.120
 4673SOL     OW15851   1.661   7.326   7.804
 4673SOL    HW115852   1.677   7.363   7.717
 4673SOL    HW215853   1.580   7.278   7.796
 4674SOL     OW15854   8.641   9.077   1.137
 4674SOL    HW115855   8.728   9.115   1.145
 4674SOL    HW215856   8.581   9.150   1.155
 4675SOL     OW15857   0.835   3.954  13.300
 4675SOL    HW115858   0.743   3.930  13.307
 4675SOL    HW215859   0.869   3.948  13.389
 4676SOL     OW15860  11.574  13.634   1.046
 4676SOL    HW115861  11.614  13.623   1.132
 4676SOL    HW215862  11.511  13.705   1.058
 4677SOL     OW15863  11.498  10.038   3.905
 4677SOL    HW115864  11.512  10.132   3.890
 4677SOL    HW215865  11.584   9.999   3.891
 4678SOL     OW15866  13.036   8.162   5.171
 4678SOL    HW115867  12.946   8.193   5.183
 4678SOL    HW215868  13.061   8.193   5.084
 4679SOL     OW15869   3.561   4.921  12.985
 4679SOL    HW115870   3.518   4.904  13.068
 4679SOL    HW215871   3.635   4.860  12.983
 4680SOL     OW15872  11.379  10.218   9.025
 4680SOL    HW115873  11.377  10.173   8.941
 4680SOL    HW215874  11.311  10.174   9.077
 4681SOL     OW15875  13.578   4.401   7.512
 4681SOL    HW115876  13.549   4.380   7.423
 4681SOL    HW215877  13.507   4.453   7.549
 4682SOL     OW15878   6.313   4.060   3.984
 4682SOL    HW115879   6.298   4.136   3.928
 4682SOL    HW215880   6.398   4.078   4.026
 4683SOL     OW15881   6.755   6.692   8.182
 4683SOL    HW115882   6.674   6.695   8.233
 4683SOL    HW215883   6.804   6.769   8.212
 4684SOL     OW15884   5.661   6.068  12.367
 4684SOL    HW115885   5.579   6.065  12.416
 4684SOL    HW215886   5.678   5.977  12.343
 4685SOL     OW15887   8.307   7.835   5.648
 4685SOL    HW115888   8.292   7.929   5.659
 4685SOL    HW215889   8.321   7.824   5.554
 4686SOL     OW15890   0.144   2.054   1.114
 4686SOL    HW115891   0.177   2.001   1.042
 4686SOL    HW215892   0.092   1.993   1.167
 4687SOL     OW15893  12.894   3.028   9.149
 4687SOL    HW115894  12.864   2.964   9.084
 4687SOL    HW215895  12.813   3.069   9.181
 4688SOL     OW15896   5.418  10.742  14.485
 4688SOL    HW115897   5.511  10.747  14.461
 4688SOL    HW215898   5.411  10.795  14.564
 4689SOL     OW15899   1.828   7.988   5.426
 4689SOL    HW115900   1.818   7.901   5.388
 4689SOL    HW215901   1.908   8.023   5.387
 4690SOL     OW15902   2.102  11.101   8.588
 4690SOL    HW115903   2.050  11.169   8.630
 4690SOL    HW215904   2.038  11.046   8.542
 4691SOL     OW15905   3.672   9.410  12.357
 4691SOL    HW115906   3.699   9.343  12.295
 4691SOL    HW215907   3.701   9.377  12.442
 4692SOL     OW15908  11.101   1.287  10.367
 4692SOL    HW115909  11.087   1.336  10.448
 4692SOL    HW215910  11.190   1.310  10.341
 4693SOL     OW15911   1.898   6.973  14.677
 4693SOL    HW115912   1.846   6.975  14.757
 4693SOL    HW215913   1.968   7.037  14.693
 4694SOL     OW15914   8.147   0.170   6.252
 4694SOL    HW115915   8.150   0.242   6.188
 4694SOL    HW215916   8.233   0.172   6.294
 4695SOL     OW15917   4.069   9.936   0.971
 4695SOL    HW115918   4.029  10.001   1.030
 4695SOL    HW215919   4.095   9.865   1.029
 4696SOL     OW15920   3.453  13.079   9.747
 4696SOL    HW115921   3.457  13.027   9.666
 4696SOL    HW215922   3.517  13.039   9.805
 4697SOL     OW15923   8.631  11.193  11.604
 4697SOL    HW115924   8.652  11.100  11.610
 4697SOL    HW215925   8.695  11.236  11.660
 4698SOL     OW15926   7.606  12.910  11.856
 4698SOL    HW115927   7.556  12.881  11.933
 4698SOL    HW215928   7.540  12.938  11.794
 4699SOL     OW15929  14.732   3.926   4.006
 4699SOL    HW115930  14.636   3.920   4.012
 4699SOL    HW215931  14.756   3.991   4.072
 4700SOL     OW15932   1.877  13.654   3.889
 4700SOL    HW115933   1.884  13.611   3.974
 4700SOL    HW215934   1.864  13.583   3.826
 4701SOL     OW15935   1.093   6.604   3.803
 4701SOL    HW115936   1.109   6.693   3.837
 4701SOL    HW215937   1.013   6.576   3.848
 4702SOL     OW15938   2.183   1.848  10.826
 4702SOL    HW115939   2.273   1.867  10.799
 4702SOL    HW215940   2.188   1.760  10.865
 4703SOL     OW15941   4.207  13.117   6.467
 4703SOL    HW115942   4.211  13.199   6.517
 4703SOL    HW215943   4.130  13.071   6.502
 4704SOL     OW15944   7.573   7.992   5.978
 4704SOL    HW115945   7.529   7.945   6.049
 4704SOL    HW215946   7.648   8.034   6.021
 4705SOL     OW15947   3.643   7.686   2.599
 4705SOL    HW115948   3.657   7.632   2.521
 4705SOL    HW215949   3.576   7.749   2.574
 4706SOL     OW15950  12.022   4.957   5.172
 4706SOL    HW115951  11.938   4.997   5.149
 4706SOL    HW215952  12.037   4.893   5.103
 4707SOL     OW15953   8.707   7.647  14.716
 4707SOL    HW115954   8.769   7.575  14.728
 4707SOL    HW215955   8.727   7.708  14.787
 4708SOL     OW15956  12.932  13.826  11.841
 4708SOL    HW115957  12.908  13.912  11.875
 4708SOL    HW215958  12.892  13.822  11.754
 4709SOL     OW15959   3.479   1.981  12.672
 4709SOL    HW115960   3.454   2.059  12.624
 4709SOL    HW215961   3.418   1.914  12.643
 4710SOL     OW15962  11.591   2.004   8.472
 4710SOL    HW115963  11.571   1.960   8.389
 4710SOL    HW215964  11.533   2.080   8.474
 4711SOL     OW15965  12.014  10.745   9.024
 4711SOL    HW115966  11.959  10.699   8.960
 4711SOL    HW215967  12.060  10.811   8.972
 4712SOL     OW15968   3.488   9.419   3.620
 4712SOL    HW115969   3.572   9.374   3.610
 4712SOL    HW215970   3.511   9.511   3.634
 4713SOL     OW15971   2.561   9.631  14.678
 4713SOL    HW115972   2.500   9.610  14.749
 4713SOL    HW215973   2.646   9.641  14.721
 4714SOL     OW15974  10.674   6.576   6.393
 4714SOL    HW115975  10.664   6.486   6.360
 4714SOL    HW215976  10.590   6.618   6.373
 4715SOL     OW15977  11.621   8.911  13.624
 4715SOL    HW115978  11.587   8.825  13.649
 4715SOL    HW215979  11.583   8.971  13.688
 4716SOL     OW15980  11.433  13.571   3.437
 4716SOL    HW115981  11.509  13.618   3.472
 4716SOL    HW215982  11.400  13.627   3.367
 4717SOL     OW15983  11.299  10.562   3.962
 4717SOL    HW115984  11.280  10.495   4.028
 4717SOL    HW215985  11.274  10.644   4.004
 4718SOL     OW15986  10.232   6.192   3.172
 4718SOL    HW115987  10.281   6.146   3.240
 4718SOL    HW215988  10.286   6.182   3.093
 4719SOL     OW15989  11.996   4.316   8.157
 4719SOL    HW115990  12.002   4.389   8.218
 4719SOL    HW215991  11.903   4.310   8.135
 4720SOL     OW15992  14.819  11.363  13.712
 4720SOL    HW115993  14.812  11.269  13.696
 4720SOL    HW215994  14.818  11.371  13.807
 4721SOL     OW15995   6.908   4.758   3.267
 4721SOL    HW115996   6.906   4.691   3.335
 4721SOL    HW215997   6.821   4.798   3.270
 4722SOL     OW15998  12.215   7.150   9.257
 4722SOL    HW115999  12.173   7.167   9.174
 4722SOL    HW216000  12.309   7.151   9.238
 4723SOL     OW16001   1.815   1.146  12.056
 4723SOL    HW116002   1.864   1.067  12.078
 4723SOL    HW216003   1.759   1.162  12.131
 4724SOL     OW16004   0.961  14.736  12.703
 4724SOL    HW116005   0.968  14.831  12.710
 4724SOL    HW216006   0.905  14.710  12.776
 4725SOL     OW16007  11.767  14.764  13.773
 4725SOL    HW116008  11.762  14.669  13.770
 4725SOL    HW216009  11.821  14.788  13.697
 4726SOL     OW16010  12.939   6.033   1.874
 4726SOL    HW116011  12.941   6.077   1.789
 4726SOL    HW216012  12.846   6.016   1.891
 4727SOL     OW16013  13.777  11.657   7.360
 4727SOL    HW116014  13.724  11.632   7.284
 4727SOL    HW216015  13.783  11.578   7.413
 4728SOL     OW16016   5.841  14.170   8.759
 4728SOL    HW116017   5.900  14.098   8.736
 4728SOL    HW216018   5.895  14.230   8.809
 4729SOL     OW16019  12.271  10.180   3.823
 4729SOL    HW116020  12.282  10.112   3.889
 4729SOL    HW216021  12.335  10.247   3.847
 4730SOL     OW16022   8.698   4.978   5.418
 4730SOL    HW116023   8.754   4.994   5.494
 4730SOL    HW216024   8.732   4.896   5.381
 4731SOL     OW16025   3.332   1.545  10.042
 4731SOL    HW116026   3.279   1.466  10.033
 4731SOL    HW216027   3.422   1.514  10.034
 4732SOL     OW16028  11.547  10.427   5.821
 4732SOL    HW116029  11.571  10.505   5.771
 4732SOL    HW216030  11.597  10.434   5.902
 4733SOL     OW16031   4.463   7.766   2.181
 4733SOL    HW116032   4.385   7.803   2.139
 4733SOL    HW216033   4.456   7.672   2.166
 4734SOL     OW16034   8.815   7.848  10.386
 4734SOL    HW116035   8.801   7.855  10.481
 4734SOL    HW216036   8.910   7.852  10.375
 4735SOL     OW16037   6.232   0.006   8.707
 4735SOL    HW116038   6.251  14.785   8.706
 4735SOL    HW216039   6.178   0.018   8.786
 4736SOL     OW16040   8.692   3.144   9.794
 4736SOL    HW116041   8.633   3.220   9.789
 4736SOL    HW216042   8.633   3.069   9.800
 4737SOL     OW16043  11.516   5.610  13.429
 4737SOL    HW116044  11.575   5.622  13.354
 4737SOL    HW216045  11.544   5.677  13.492
 4738SOL     OW16046   8.877   7.243   4.940
 4738SOL    HW116047   8.803   7.238   4.879
 4738SOL    HW216048   8.900   7.335   4.943
 4739SOL     OW16049  14.260  12.385   1.265
 4739SOL    HW116050  14.332  12.432   1.308
 4739SOL    HW216051  14.277  12.395   1.172
 4740SOL     OW16052  10.304  12.054  10.447
 4740SOL    HW116053  10.264  11.971  10.472
 4740SOL    HW216054  10.358  12.032  10.371
 4741SOL     OW16055  14.164   6.734   1.325
 4741SOL    HW116056  14.164   6.641   1.347
 4741SOL    HW216057  14.190   6.778   1.406
 4742SOL     OW16058  14.538  10.896   9.224
 4742SOL    HW116059  14.468  10.937   9.275
 4742SOL    HW216060  14.614  10.896   9.282
 4743SOL     OW16061  14.500  10.539   0.337
 4743SOL    HW116062  14.411  10.565   0.314
 4743SOL    HW216063  14.491  10.453   0.378
 4744SOL     OW16064   2.768   4.102  12.390
 4744SOL    HW116065   2.801   4.052  12.315
 4744SOL    HW216066   2.811   4.062  12.466
 4745SOL     OW16067   8.694   0.327   3.955
 4745SOL    HW116068   8.715   0.399   3.895
 4745SOL    HW216069   8.770   0.269   3.950
 4746SOL     OW16070   5.631   0.367   5.697
 4746SOL    HW116071   5.713   0.416   5.698
 4746SOL    HW216072   5.638   0.309   5.621
 4747SOL     OW16073   0.643  12.882  11.592
 4747SOL    HW116074   0.625  12.870  11.499
 4747SOL    HW216075   0.558  12.899  11.632
 4748SOL     OW16076  10.284   2.049   8.501
 4748SOL    HW116077  10.327   2.093   8.575
 4748SOL    HW216078  10.268   2.119   8.438
 4749SOL     OW16079   4.646  12.104   9.643
 4749SOL    HW116080   4.691  12.106   9.558
 4749SOL    HW216081   4.711  12.068   9.703
 4750SOL     OW16082  13.242   9.042   4.446
 4750SOL    HW116083  13.211   9.061   4.534
 4750SOL    HW216084  13.280   8.954   4.453
 4751SOL     OW16085   7.125   2.883   4.482
 4751SOL    HW116086   7.075   2.821   4.429
 4751SOL    HW216087   7.078   2.886   4.566
 4752SOL     OW16088  14.556  13.771  12.794
 4752SOL    HW116089  14.464  13.797  12.790
 4752SOL    HW216090  14.560  13.691  12.742
 4753SOL     OW16091   5.209   9.872  11.785
 4753SOL    HW116092   5.274   9.923  11.737
 4753SOL    HW216093   5.162   9.822  11.718
 4754SOL     OW16094   7.638   7.062  14.215
 4754SOL    HW116095   7.732   7.065  14.235
 4754SOL    HW216096   7.619   6.968  14.207
 4755SOL     OW16097   9.003   7.688   2.953
 4755SOL    HW116098   9.088   7.712   2.989
 4755SOL    HW216099   9.016   7.598   2.921
 4756SOL     OW16100   0.093   7.250   6.973
 4756SOL    HW116101  14.873   7.227   6.978
 4756SOL    HW216102   0.118   7.267   7.064
 4757SOL     OW16103  14.576   8.710  13.812
 4757SOL    HW116104  14.488   8.720  13.775
 4757SOL    HW216105  14.587   8.787  13.867
 4758SOL     OW16106  11.771   4.221   4.202
 4758SOL    HW116107  11.837   4.205   4.269
 4758SOL    HW216108  11.716   4.142   4.203
 4759SOL     OW16109  14.155  10.490   1.169
 4759SOL    HW116110  14.110  10.499   1.253
 4759SOL    HW216111  14.114  10.556   1.112
 4760SOL     OW16112   8.481  10.312   9.844
 4760SOL    HW116113   8.476  10.269   9.758
 4760SOL    HW216114   8.392  10.305   9.879
 4761SOL     OW16115   8.562  13.045   5.833
 4761SOL    HW116116   8.578  12.993   5.754
 4761SOL    HW216117   8.647  13.046   5.878
 4762SOL     OW16118  10.435   1.787   0.981
 4762SOL    HW116119  10.372   1.762   1.049
 4762SOL    HW216120  10.455   1.878   0.999
 4763SOL     OW16121  12.718  11.500   0.867
 4763SOL    HW116122  12.803  11.527   0.834
 4763SOL    HW216123  12.733  11.483   0.960
 4764SOL     OW16124   5.905  11.015   2.486
 4764SOL    HW116125   5.873  10.932   2.522
 4764SOL    HW216126   5.997  10.999   2.466
 4765SOL     OW16127  12.268  10.891   2.319
 4765SOL    HW116128  12.196  10.941   2.358
 4765SOL    HW216129  12.305  10.842   2.392
 4766SOL     OW16130  12.408   6.472  11.997
 4766SOL    HW116131  12.478   6.488  12.061
 4766SOL    HW216132  12.344   6.419  12.045
 4767SOL     OW16133   5.100   3.201   7.300
 4767SOL    HW116134   5.189   3.235   7.298
 4767SOL    HW216135   5.080   3.192   7.393
 4768SOL     OW16136   1.866   5.218   5.940
 4768SOL    HW116137   1.921   5.140   5.938
 4768SOL    HW216138   1.792   5.195   5.996
 4769SOL     OW16139   6.542  13.699   2.448
 4769SOL    HW116140   6.449  13.720   2.436
 4769SOL    HW216141   6.567  13.744   2.529
 4770SOL     OW16142  13.198   3.889   9.574
 4770SOL    HW116143  13.234   3.948   9.508
 4770SOL    HW216144  13.263   3.888   9.644
 4771SOL     OW16145   4.255  11.390   5.743
 4771SOL    HW116146   4.235  11.303   5.777
 4771SOL    HW216147   4.292  11.374   5.656
 4772SOL     OW16148   1.225  10.443   3.983
 4772SOL    HW116149   1.155  10.506   3.971
 4772SOL    HW216150   1.185  10.370   4.030
 4773SOL     OW16151   1.202   9.235  13.637
 4773SOL    HW116152   1.251   9.315  13.617
 4773SOL    HW216153   1.110   9.263  13.634
 4774SOL     OW16154   6.725   4.733  10.764
 4774SOL    HW116155   6.779   4.811  10.779
 4774SOL    HW216156   6.668   4.756  10.691
 4775SOL     OW16157   4.882  14.341  13.900
 4775SOL    HW116158   4.798  14.294  13.902
 4775SOL    HW216159   4.919  14.320  13.814
 4776SOL     OW16160   1.030   9.423   2.811
 4776SOL    HW116161   1.110   9.439   2.761
 4776SOL    HW216162   1.061   9.402   2.899
 4777SOL     OW16163  10.530   4.811   5.303
 4777SOL    HW116164  10.440   4.830   5.329
 4777SOL    HW216165  10.580   4.817   5.384
 4778SOL     OW16166   0.325   4.656   4.409
 4778SOL    HW116167   0.334   4.561   4.408
 4778SOL    HW216168   0.401   4.689   4.362
 4779SOL     OW16169   6.848  12.658   7.198
 4779SOL    HW116170   6.922  12.601   7.178
 4779SOL    HW216171   6.771  12.607   7.173
 4780SOL     OW16172  14.642   8.807   3.305
 4780SOL    HW116173  14.613   8.829   3.393
 4780SOL    HW216174  14.567   8.762   3.265
 4781SOL     OW16175   6.795  11.909   8.902
 4781SOL    HW116176   6.734  11.863   8.844
 4781SOL    HW216177   6.859  11.948   8.843
 4782SOL     OW16178  11.163   8.644   6.935
 4782SOL    HW116179  11.244   8.673   6.977
 4782SOL    HW216180  11.143   8.712   6.871
 4783SOL     OW16181   5.058   7.377   0.467
 4783SOL    HW116182   5.034   7.390   0.376
 4783SOL    HW216183   5.091   7.287   0.471
 4784SOL     OW16184  13.063   8.917   3.073
 4784SOL    HW116185  13.055   8.835   3.122
 4784SOL    HW216186  13.125   8.896   3.002
 4785SOL     OW16187   5.574   0.165   0.977
 4785SOL    HW116188   5.568   0.194   0.886
 4785SOL    HW216189   5.604   0.075   0.972
 4786SOL     OW16190  12.686  12.122   6.442
 4786SOL    HW116191  12.645  12.159   6.520
 4786SOL    HW216192  12.657  12.179   6.370
 4787SOL     OW16193  10.973  13.495   9.100
 4787SOL    HW116194  10.994  13.570   9.045
 4787SOL    HW216195  10.937  13.430   9.040
 4788SOL     OW16196  11.392   0.918  10.004
 4788SOL    HW116197  11.478   0.877   9.992
 4788SOL    HW216198  11.331   0.861   9.958
 4789SOL     OW16199  10.302   8.426   1.581
 4789SOL    HW116200  10.298   8.415   1.676
 4789SOL    HW216201  10.219   8.467   1.558
 4790SOL     OW16202   1.817   1.671   8.431
 4790SOL    HW116203   1.884   1.644   8.367
 4790SOL    HW216204   1.754   1.722   8.380
 4791SOL     OW16205  11.072   5.029   8.388
 4791SOL    HW116206  11.007   5.053   8.322
 4791SOL    HW216207  11.109   4.946   8.357
 4792SOL     OW16208  11.669  13.643  13.231
 4792SOL    HW116209  11.651  13.680  13.145
 4792SOL    HW216210  11.731  13.572  13.214
 4793SOL     OW16211  10.422   2.506   6.015
 4793SOL    HW116212  10.482   2.434   6.039
 4793SOL    HW216213  10.355   2.504   6.083
 4794SOL     OW16214  11.647  11.380   2.797
 4794SOL    HW116215  11.662  11.391   2.891
 4794SOL    HW216216  11.719  11.324   2.768
 4795SOL     OW16217   9.094   1.440  14.549
 4795SOL    HW116218   9.185   1.439  14.579
 4795SOL    HW216219   9.046   1.483  14.619
 4796SOL     OW16220   1.423   9.236   7.173
 4796SOL    HW116221   1.481   9.172   7.131
 4796SOL    HW216222   1.475   9.271   7.245
 4797SOL     OW16223  12.075   8.713   8.791
 4797SOL    HW116224  12.010   8.741   8.726
 4797SOL    HW216225  12.130   8.790   8.804
 4798SOL     OW16226   4.643  13.679   5.781
 4798SOL    HW116227   4.672  13.765   5.811
 4798SOL    HW216228   4.548  13.679   5.797
 4799SOL     OW16229   3.699  11.860   8.283
 4799SOL    HW116230   3.717  11.767   8.269
 4799SOL    HW216231   3.779  11.904   8.257
 4800SOL     OW16232   9.052  11.285   5.791
 4800SOL    HW116233   9.077  11.339   5.867
 4800SOL    HW216234   9.032  11.348   5.722
 4801SOL     OW16235   8.681  11.687   8.595
 4801SOL    HW116236   8.669  11.737   8.676
 4801SOL    HW216237   8.593  11.683   8.556
 4802SOL     OW16238   0.657  10.101   7.670
 4802SOL    HW116239   0.751  10.114   7.684
 4802SOL    HW216240   0.647  10.101   7.575
 4803SOL     OW16241   6.488  12.469   6.362
 4803SOL    HW116242   6.455  12.519   6.436
 4803SOL    HW216243   6.411  12.450   6.308
 4804SOL     OW16244   6.111   6.802  11.167
 4804SOL    HW116245   6.194   6.849  11.170
 4804SOL    HW216246   6.076   6.810  11.256
 4805SOL     OW16247  11.396   7.857   7.161
 4805SOL    HW116248  11.346   7.833   7.083
 4805SOL    HW216249  11.484   7.876   7.128
 4806SOL     OW16250  10.227   5.733   0.610
 4806SOL    HW116251  10.322   5.737   0.623
 4806SOL    HW216252  10.213   5.653   0.560
 4807SOL     OW16253   8.752   2.218   4.976
 4807SOL    HW116254   8.749   2.235   5.070
 4807SOL    HW216255   8.795   2.295   4.939
 4808SOL     OW16256   5.473   9.710   1.965
 4808SOL    HW116257   5.507   9.759   2.040
 4808SOL    HW216258   5.490   9.768   1.890
 4809SOL     OW16259  10.686  13.487  13.031
 4809SOL    HW116260  10.709  13.569  12.985
 4809SOL    HW216261  10.770  13.448  13.053
 4810SOL     OW16262   8.162  13.224   4.406
 4810SOL    HW116263   8.215  13.242   4.328
 4810SOL    HW216264   8.099  13.295   4.409
 4811SOL     OW16265  14.826  13.964   7.211
 4811SOL    HW116266  14.822  13.977   7.305
 4811SOL    HW216267  14.790  13.876   7.197
 4812SOL     OW16268  11.640   3.295   1.671
 4812SOL    HW116269  11.609   3.346   1.746
 4812SOL    HW216270  11.562   3.279   1.619
 4813SOL     OW16271   8.756  12.763   6.205
 4813SOL    HW116272   8.805  12.691   6.244
 4813SOL    HW216273   8.695  12.791   6.273
 4814SOL     OW16274   6.781   5.408  11.545
 4814SOL    HW116275   6.702   5.406  11.490
 4814SOL    HW216276   6.747   5.408  11.634
 4815SOL     OW16277  12.661   0.535   5.039
 4815SOL    HW116278  12.706   0.556   4.957
 4815SOL    HW216279  12.572   0.567   5.026
 4816SOL     OW16280   6.854   3.670   0.715
 4816SOL    HW116281   6.949   3.676   0.707
 4816SOL    HW216282   6.821   3.725   0.644
 4817SOL     OW16283   0.942   9.741  14.263
 4817SOL    HW116284   1.027   9.709  14.294
 4817SOL    HW216285   0.929   9.824  14.309
 4818SOL     OW16286   5.220   0.812  10.151
 4818SOL    HW116287   5.213   0.721  10.178
 4818SOL    HW216288   5.189   0.863  10.226
 4819SOL     OW16289  14.100   5.747   6.749
 4819SOL    HW116290  14.028   5.710   6.800
 4819SOL    HW216291  14.059   5.805   6.686
 4820SOL     OW16292   4.763   2.435   9.540
 4820SOL    HW116293   4.698   2.450   9.608
 4820SOL    HW216294   4.786   2.342   9.548
 4821SOL     OW16295   3.520  12.871   0.655
 4821SOL    HW116296   3.450  12.910   0.707
 4821SOL    HW216297   3.475  12.812   0.594
 4822SOL     OW16298   3.188   4.090   5.471
 4822SOL    HW116299   3.162   4.017   5.415
 4822SOL    HW216300   3.184   4.167   5.414
 4823SOL     OW16301   5.117   4.637  13.164
 4823SOL    HW116302   5.147   4.662  13.251
 4823SOL    HW216303   5.169   4.560  13.142
 4824SOL     OW16304   4.864  13.079   2.923
 4824SOL    HW116305   4.917  13.004   2.897
 4824SOL    HW216306   4.893  13.100   3.012
 4825SOL     OW16307   1.675   4.295   4.703
 4825SOL    HW116308   1.764   4.275   4.732
 4825SOL    HW216309   1.668   4.390   4.710
 4826SOL     OW16310  10.131   3.875  10.385
 4826SOL    HW116311  10.058   3.856  10.444
 4826SOL    HW216312  10.191   3.801  10.396
 4827SOL     OW16313   7.563   6.430  10.464
 4827SOL    HW116314   7.586   6.338  10.476
 4827SOL    HW216315   7.605   6.475  10.536
 4828SOL     OW16316  13.510   1.186   0.230
 4828SOL    HW116317  13.542   1.273   0.205
 4828SOL    HW216318  13.584   1.144   0.273
 4829SOL     OW16319  14.788   0.350   1.623
 4829SOL    HW116320  14.735   0.355   1.544
 4829SOL    HW216321  14.745   0.410   1.685
 4830SOL     OW16322  10.966   5.494   3.160
 4830SOL    HW116323  10.982   5.471   3.251
 4830SOL    HW216324  11.015   5.428   3.110
 4831SOL     OW16325   3.728   9.037  14.157
 4831SOL    HW116326   3.767   9.082  14.232
 4831SOL    HW216327   3.740   9.097  14.083
 4832SOL     OW16328   7.152   1.598   0.996
 4832SOL    HW116329   7.083   1.665   0.993
 4832SOL    HW216330   7.125   1.538   1.066
 4833SOL     OW16331  12.583   4.290   1.384
 4833SOL    HW116332  12.571   4.280   1.289
 4833SOL    HW216333  12.674   4.317   1.394
 4834SOL     OW16334   7.995   9.119  11.955
 4834SOL    HW116335   8.066   9.166  11.999
 4834SOL    HW216336   7.915   9.159  11.990
 4835SOL     OW16337   1.612   5.840  10.887
 4835SOL    HW116338   1.573   5.753  10.882
 4835SOL    HW216339   1.537   5.898  10.902
 4836SOL     OW16340  12.119   3.031  10.883
 4836SOL    HW116341  12.161   2.986  10.956
 4836SOL    HW216342  12.031   2.994  10.879
 4837SOL     OW16343   9.300   3.608   3.204
 4837SOL    HW116344   9.263   3.623   3.117
 4837SOL    HW216345   9.313   3.513   3.208
 4838SOL     OW16346   6.175   5.336   8.660
 4838SOL    HW116347   6.196   5.361   8.750
 4838SOL    HW216348   6.238   5.384   8.606
 4839SOL     OW16349   4.139   6.162   2.068
 4839SOL    HW116350   4.087   6.187   1.992
 4839SOL    HW216351   4.152   6.068   2.059
 4840SOL     OW16352  11.598  13.603   1.528
 4840SOL    HW116353  11.536  13.656   1.579
 4840SOL    HW216354  11.563  13.514   1.533
 4841SOL     OW16355   1.062   5.020  13.068
 4841SOL    HW116356   1.089   5.010  13.159
 4841SOL    HW216357   1.121   4.962  13.019
 4842SOL     OW16358  14.858  12.707  14.570
 4842SOL    HW116359  14.800  12.743  14.503
 4842SOL    HW216360  14.861  12.775  14.638
 4843SOL     OW16361   4.451   8.167   2.098
 4843SOL    HW116362   4.393   8.211   2.036
 4843SOL    HW216363   4.401   8.164   2.179
 4844SOL     OW16364   0.560   4.959  12.952
 4844SOL    HW116365   0.509   4.940  13.031
 4844SOL    HW216366   0.548   5.052  12.937
 4845SOL     OW16367  13.212   1.236   0.279
 4845SOL    HW116368  13.302   1.206   0.291
 4845SOL    HW216369  13.220   1.324   0.244
 4846SOL     OW16370  12.558  11.674  12.346
 4846SOL    HW116371  12.623  11.627  12.294
 4846SOL    HW216372  12.608  11.715  12.416
 4847SOL     OW16373   4.671   1.476   2.556
 4847SOL    HW116374   4.585   1.443   2.581
 4847SOL    HW216375   4.652   1.552   2.501
 4848SOL     OW16376  13.494   7.393   7.986
 4848SOL    HW116377  13.523   7.474   8.027
 4848SOL    HW216378  13.575   7.350   7.958
 4849SOL     OW16379   5.536   4.886   1.928
 4849SOL    HW116380   5.611   4.873   1.985
 4849SOL    HW216381   5.524   4.802   1.884
 4850SOL     OW16382  14.834   8.669   8.406
 4850SOL    HW116383  14.868   8.582   8.427
 4850SOL    HW216384  14.754   8.651   8.355
 4851SOL     OW16385   8.382  12.176   5.268
 4851SOL    HW116386   8.438  12.142   5.338
 4851SOL    HW216387   8.309  12.114   5.263
 4852SOL     OW16388  14.184   6.789   8.718
 4852SOL    HW116389  14.160   6.704   8.755
 4852SOL    HW216390  14.236   6.768   8.641
 4853SOL     OW16391   8.651   3.840   4.531
 4853SOL    HW116392   8.655   3.936   4.536
 4853SOL    HW216393   8.634   3.812   4.621
 4854SOL     OW16394  10.223  13.696   0.934
 4854SOL    HW116395  10.260  13.731   0.853
 4854SOL    HW216396  10.273  13.739   1.004
 4855SOL     OW16397   9.676  13.159  10.631
 4855SOL    HW116398   9.658  13.117  10.546
 4855SOL    HW216399   9.755  13.210  10.617
 4856SOL     OW16400   3.101  11.601   6.924
 4856SOL    HW116401   3.194  11.598   6.945
 4856SOL    HW216402   3.091  11.677   6.866
 4857SOL     OW16403   4.862  13.628  11.136
 4857SOL    HW116404   4.789  13.653  11.192
 4857SOL    HW216405   4.844  13.670  11.052
 4858SOL     OW16406   0.700   9.637   0.556
 4858SOL    HW116407   0.687   9.674   0.469
 4858SOL    HW216408   0.683   9.544   0.545
 4859SOL     OW16409   9.562   5.967   8.700
 4859SOL    HW116410   9.513   6.048   8.687
 4859SOL    HW216411   9.607   5.979   8.783
 4860SOL     OW16412  10.284  11.587   8.584
 4860SOL    HW116413  10.202  11.617   8.624
 4860SOL    HW216414  10.297  11.499   8.619
 4861SOL     OW16415   1.949   4.372   2.556
 4861SOL    HW116416   1.886   4.363   2.484
 4861SOL    HW216417   1.897   4.404   2.630
 4862SOL     OW16418  12.344   2.861  13.343
 4862SOL    HW116419  12.410   2.793  13.335
 4862SOL    HW216420  12.291   2.852  13.263
 4863SOL     OW16421   5.484   5.214   6.930
 4863SOL    HW116422   5.414   5.224   6.865
 4863SOL    HW216423   5.465   5.132   6.974
 4864SOL     OW16424   4.422  12.248   7.808
 4864SOL    HW116425   4.499  12.232   7.863
 4864SOL    HW216426   4.347  12.237   7.867
 4865SOL     OW16427   5.274   2.964   6.320
 4865SOL    HW116428   5.317   2.994   6.399
 4865SOL    HW216429   5.259   3.044   6.269
 4866SOL     OW16430   1.462   7.089   1.439
 4866SOL    HW116431   1.480   7.006   1.395
 4866SOL    HW216432   1.527   7.092   1.510
 4867SOL     OW16433   7.176   3.266   9.967
 4867SOL    HW116434   7.244   3.289  10.031
 4867SOL    HW216435   7.121   3.202  10.013
 4868SOL     OW16436   9.664   5.734  12.919
 4868SOL    HW116437   9.655   5.688  13.002
 4868SOL    HW216438   9.681   5.825  12.945
 4869SOL     OW16439  11.527  14.009   2.514
 4869SOL    HW116440  11.550  14.073   2.581
 4869SOL    HW216441  11.536  14.057   2.431
 4870SOL     OW16442  14.366  14.649  10.475
 4870SOL    HW116443  14.399  14.637  10.564
 4870SOL    HW216444  14.443  14.635  10.419
 4871SOL     OW16445  12.290   8.923  12.765
 4871SOL    HW116446  12.375   8.929  12.722
 4871SOL    HW216447  12.254   8.840  12.734
 4872SOL     OW16448   0.673   3.334   0.304
 4872SOL    HW116449   0.679   3.342   0.209
 4872SOL    HW216450   0.617   3.257   0.318
 4873SOL     OW16451  11.790   8.485  11.776
 4873SOL    HW116452  11.829   8.399  11.790
 4873SOL    HW216453  11.719   8.491  11.840
 4874SOL     OW16454   5.001   9.794   5.375
 4874SOL    HW116455   4.956   9.848   5.310
 4874SOL    HW216456   5.047   9.857   5.430
 4875SOL     OW16457   7.040   9.932  10.600
 4875SOL    HW116458   6.986   9.912  10.677
 4875SOL    HW216459   7.005  10.015  10.567
 4876SOL     OW16460   8.741   6.855   8.334
 4876SOL    HW116461   8.740   6.839   8.239
 4876SOL    HW216462   8.709   6.774   8.373
 4877SOL     OW16463  10.612   7.917  10.055
 4877SOL    HW116464  10.636   8.009  10.066
 4877SOL    HW216465  10.519   7.914  10.076
 4878SOL     OW16466   8.862   4.079   1.415
 4878SOL    HW116467   8.914   4.121   1.484
 4878SOL    HW216468   8.814   4.010   1.460
 4879SOL     OW16469   9.370   4.043   2.362
 4879SOL    HW116470   9.459   4.068   2.337
 4879SOL    HW216471   9.334   4.001   2.284
 4880SOL     OW16472  13.150  10.971   1.357
 4880SOL    HW116473  13.060  10.942   1.374
 4880SOL    HW216474  13.189  10.981   1.444
 4881SOL     OW16475   5.594  10.362   3.816
 4881SOL    HW116476   5.657  10.340   3.747
 4881SOL    HW216477   5.649  10.383   3.892
 4882SOL     OW16478  14.603  13.064   7.124
 4882SOL    HW116479  14.596  13.139   7.184
 4882SOL    HW216480  14.655  13.097   7.051
 4883SOL     OW16481  10.346   3.065   2.368
 4883SOL    HW116482  10.303   3.137   2.414
 4883SOL    HW216483  10.424   3.045   2.420
 4884SOL     OW16484   9.090   7.519   0.311
 4884SOL    HW116485   9.032   7.593   0.292
 4884SOL    HW216486   9.168   7.535   0.259
 4885SOL     OW16487   3.122   7.258  13.538
 4885SOL    HW116488   3.126   7.198  13.464
 4885SOL    HW216489   3.028   7.272  13.551
 4886SOL     OW16490  11.748   0.632   6.152
 4886SOL    HW116491  11.746   0.572   6.227
 4886SOL    HW216492  11.791   0.583   6.082
 4887SOL     OW16493   6.822   8.257   8.600
 4887SOL    HW116494   6.856   8.270   8.511
 4887SOL    HW216495   6.810   8.162   8.606
 4888SOL     OW16496   3.490  13.480   7.905
 4888SOL    HW116497   3.439  13.467   7.825
 4888SOL    HW216498   3.496  13.576   7.915
 4889SOL     OW16499   9.232   5.614  11.305
 4889SOL    HW116500   9.192   5.700  11.316
 4889SOL    HW216501   9.326   5.630  11.318
 4890SOL     OW16502   1.608   4.126   8.840
 4890SOL    HW116503   1.651   4.195   8.891
 4890SOL    HW216504   1.543   4.089   8.900
 4891SOL     OW16505   1.883  10.512  12.591
 4891SOL    HW116506   1.977  10.517  12.577
 4891SOL    HW216507   1.852  10.451  12.524
 4892SOL     OW16508  14.420   8.904  10.088
 4892SOL    HW116509  14.455   8.966  10.151
 4892SOL    HW216510  14.434   8.945  10.003
 4893SOL     OW16511   9.109   5.868   0.172
 4893SOL    HW116512   9.092   5.890   0.080
 4893SOL    HW216513   9.205   5.867   0.179
 4894SOL     OW16514   7.980   9.265   0.412
 4894SOL    HW116515   8.009   9.352   0.386
 4894SOL    HW216516   7.939   9.278   0.497
 4895SOL     OW16517  11.201   2.905   9.920
 4895SOL    HW116518  11.185   2.888   9.827
 4895SOL    HW216519  11.260   2.980   9.922
 4896SOL     OW16520  10.158   6.017   0.123
 4896SOL    HW116521  10.079   6.020   0.176
 4896SOL    HW216522  10.220   5.964   0.174
 4897SOL     OW16523   4.630   1.931   9.321
 4897SOL    HW116524   4.665   2.006   9.272
 4897SOL    HW216525   4.708   1.883   9.348
 4898SOL     OW16526   6.663   7.989  11.502
 4898SOL    HW116527   6.627   7.938  11.574
 4898SOL    HW216528   6.684   8.074  11.541
 4899SOL     OW16529   3.455  12.001  12.330
 4899SOL    HW116530   3.505  12.078  12.359
 4899SOL    HW216531   3.385  12.037  12.275
 4900SOL     OW16532   2.595   2.355   7.536
 4900SOL    HW116533   2.655   2.312   7.475
 4900SOL    HW216534   2.508   2.334   7.503
 4901SOL     OW16535   3.872  14.417   5.076
 4901SOL    HW116536   3.803  14.436   5.139
 4901SOL    HW216537   3.859  14.325   5.053
 4902SOL     OW16538   2.168  12.839   6.862
 4902SOL    HW116539   2.207  12.803   6.782
 4902SOL    HW216540   2.222  12.805   6.933
 4903SOL     OW16541   3.306   7.622  13.008
 4903SOL    HW116542   3.387   7.642  13.053
 4903SOL    HW216543   3.333   7.587  12.923
 4904SOL     OW16544   3.308   5.455   2.347
 4904SOL    HW116545   3.339   5.469   2.437
 4904SOL    HW216546   3.325   5.538   2.303
 4905SOL     OW16547  10.392   8.032   8.760
 4905SOL    HW116548  10.462   7.994   8.708
 4905SOL    HW216549  10.385   8.123   8.729
 4906SOL     OW16550   6.813   2.036   4.684
 4906SOL    HW116551   6.857   1.964   4.730
 4906SOL    HW216552   6.734   2.052   4.735
 4907SOL     OW16553   2.763  12.355   3.076
 4907SOL    HW116554   2.775  12.296   3.150
 4907SOL    HW216555   2.818  12.318   3.007
 4908SOL     OW16556  13.268   9.056  14.143
 4908SOL    HW116557  13.286   9.146  14.169
 4908SOL    HW216558  13.245   9.062  14.050
 4909SOL     OW16559   6.094  14.559  13.388
 4909SOL    HW116560   6.053  14.520  13.465
 4909SOL    HW216561   6.115  14.484  13.331
 4910SOL     OW16562   1.073   7.048   7.234
 4910SOL    HW116563   1.119   7.131   7.220
 4910SOL    HW216564   0.991   7.057   7.186
 4911SOL     OW16565   1.524   3.601   2.354
 4911SOL    HW116566   1.433   3.583   2.332
 4911SOL    HW216567   1.519   3.675   2.415
 4912SOL     OW16568   4.014  10.887  11.846
 4912SOL    HW116569   4.092  10.942  11.859
 4912SOL    HW216570   3.987  10.904  11.756
 4913SOL     OW16571   4.822  14.614   8.895
 4913SOL    HW116572   4.757  14.602   8.826
 4913SOL    HW216573   4.906  14.607   8.850
 4914SOL     OW16574   3.792   1.350   2.761
 4914SOL    HW116575   3.762   1.323   2.848
 4914SOL    HW216576   3.843   1.429   2.777
 4915SOL     OW16577   8.245   9.713   4.909
 4915SOL    HW116578   8.332   9.705   4.949
 4915SOL    HW216579   8.185   9.675   4.973
 4916SOL     OW16580   5.083  10.391  11.191
 4916SOL    HW116581   5.039  10.474  11.206
 4916SOL    HW216582   5.152  10.411  11.129
 4917SOL     OW16583   9.732   9.744  11.844
 4917SOL    HW116584   9.819   9.735  11.884
 4917SOL    HW216585   9.695   9.822  11.886
 4918SOL     OW16586   4.171   4.356   9.720
 4918SOL    HW116587   4.098   4.407   9.685
 4918SOL    HW216588   4.244   4.417   9.724
 4919SOL     OW16589   1.186   6.291   7.671
 4919SOL    HW116590   1.265   6.342   7.688
 4919SOL    HW216591   1.204   6.205   7.710
 4920SOL     OW16592   4.446   2.653   4.479
 4920SOL    HW116593   4.504   2.594   4.431
 4920SOL    HW216594   4.466   2.740   4.443
 4921SOL     OW16595   6.553   2.098   5.205
 4921SOL    HW116596   6.505   2.083   5.286
 4921SOL    HW216597   6.586   2.188   5.213
 4922SOL     OW16598   2.500   0.226   1.115
 4922SOL    HW116599   2.546   0.281   1.052
 4922SOL    HW216600   2.477   0.285   1.187
 4923SOL     OW16601  10.432  11.665   5.547
 4923SOL    HW116602  10.460  11.613   5.471
 4923SOL    HW216603  10.423  11.754   5.512
 4924SOL     OW16604   9.095  11.922   8.855
 4924SOL    HW116605   9.180  11.963   8.836
 4924SOL    HW216606   9.108  11.880   8.940
 4925SOL     OW16607   6.940   5.085   3.781
 4925SOL    HW116608   6.974   5.019   3.842
 4925SOL    HW216609   6.898   5.150   3.837
 4926SOL     OW16610   0.787   8.538   0.237
 4926SOL    HW116611   0.807   8.447   0.260
 4926SOL    HW216612   0.774   8.537   0.142
 4927SOL     OW16613   0.850   7.567  11.297
 4927SOL    HW116614   0.777   7.619  11.331
 4927SOL    HW216615   0.833   7.560  11.203
 4928SOL     OW16616   2.840   6.958  10.437
 4928SOL    HW116617   2.935   6.955  10.442
 4928SOL    HW216618   2.810   6.925  10.522
 4929SOL     OW16619   3.518   6.763   2.401
 4929SOL    HW116620   3.503   6.671   2.421
 4929SOL    HW216621   3.475   6.777   2.317
 4930SOL     OW16622   8.984   1.029  11.080
 4930SOL    HW116623   8.948   1.051  10.994
 4930SOL    HW216624   8.947   0.943  11.100
 4931SOL     OW16625   6.811   2.877   3.706
 4931SOL    HW116626   6.818   2.792   3.748
 4931SOL    HW216627   6.781   2.857   3.617
 4932SOL     OW16628   5.979   3.932  13.325
 4932SOL    HW116629   5.922   3.931  13.248
 4932SOL    HW216630   5.919   3.946  13.399
 4933SOL     OW16631   7.821   2.554  14.152
 4933SOL    HW116632   7.813   2.594  14.239
 4933SOL    HW216633   7.831   2.628  14.092
 4934SOL     OW16634   2.361  14.048  12.852
 4934SOL    HW116635   2.367  13.974  12.912
 4934SOL    HW216636   2.434  14.036  12.792
 4935SOL     OW16637   7.993   0.364   3.840
 4935SOL    HW116638   8.086   0.351   3.825
 4935SOL    HW216639   7.983   0.358   3.935
 4936SOL     OW16640   2.720   2.258   8.300
 4936SOL    HW116641   2.739   2.341   8.343
 4936SOL    HW216642   2.646   2.221   8.349
 4937SOL     OW16643   0.433   7.231   0.574
 4937SOL    HW116644   0.481   7.281   0.507
 4937SOL    HW216645   0.342   7.236   0.547
 4938SOL     OW16646   2.724  10.293  11.594
 4938SOL    HW116647   2.817  10.305  11.614
 4938SOL    HW216648   2.723  10.252  11.508
 4939SOL     OW16649   5.987   0.452   1.342
 4939SOL    HW116650   5.941   0.437   1.425
 4939SOL    HW216651   5.921   0.434   1.275
 4940SOL     OW16652   7.823   6.003   8.758
 4940SOL    HW116653   7.820   5.907   8.751
 4940SOL    HW216654   7.742   6.027   8.801
 4941SOL     OW16655   3.340   3.930   0.369
 4941SOL    HW116656   3.387   3.865   0.318
 4941SOL    HW216657   3.402   4.003   0.379
 4942SOL     OW16658   9.875  12.981  13.085
 4942SOL    HW116659   9.881  13.000  13.179
 4942SOL    HW216660   9.966  12.981  13.056
 4943SOL     OW16661  12.860   2.874   1.584
 4943SOL    HW116662  12.845   2.834   1.669
 4943SOL    HW216663  12.877   2.966   1.603
 4944SOL     OW16664   4.772   0.601   2.653
 4944SOL    HW116665   4.718   0.657   2.708
 4944SOL    HW216666   4.818   0.544   2.714
 4945SOL     OW16667  14.578  12.954   8.448
 4945SOL    HW116668  14.514  12.893   8.486
 4945SOL    HW216669  14.662  12.908   8.454
 4946SOL     OW16670   9.306   9.222  10.568
 4946SOL    HW116671   9.318   9.286  10.638
 4946SOL    HW216672   9.239   9.163  10.600
 4947SOL     OW16673   9.463   5.453   7.528
 4947SOL    HW116674   9.463   5.368   7.484
 4947SOL    HW216675   9.543   5.453   7.580
 4948SOL     OW16676   0.764   8.519   5.337
 4948SOL    HW116677   0.840   8.550   5.288
 4948SOL    HW216678   0.733   8.442   5.289
 4949SOL     OW16679   7.408   1.335   7.901
 4949SOL    HW116680   7.489   1.374   7.935
 4949SOL    HW216681   7.358   1.312   7.979
 4950SOL     OW16682   3.146   9.771  11.811
 4950SOL    HW116683   3.201   9.703  11.772
 4950SOL    HW216684   3.122   9.736  11.897
 4951SOL     OW16685   8.813   4.653   3.618
 4951SOL    HW116686   8.798   4.560   3.599
 4951SOL    HW216687   8.829   4.693   3.532
 4952SOL     OW16688  13.219   5.444   0.398
 4952SOL    HW116689  13.249   5.353   0.396
 4952SOL    HW216690  13.148   5.445   0.463
 4953SOL     OW16691  11.251   9.230   7.425
 4953SOL    HW116692  11.317   9.235   7.355
 4953SOL    HW216693  11.277   9.153   7.477
 4954SOL     OW16694  11.959   9.453   3.683
 4954SOL    HW116695  11.868   9.472   3.661
 4954SOL    HW216696  11.959   9.447   3.779
 4955SOL     OW16697   9.743  11.114   5.456
 4955SOL    HW116698   9.731  11.062   5.376
 4955SOL    HW216699   9.686  11.073   5.520
 4956SOL     OW16700  13.860   3.209   9.618
 4956SOL    HW116701  13.930   3.160   9.661
 4956SOL    HW216702  13.897   3.234   9.533
 4957SOL     OW16703  11.949   3.574   0.229
 4957SOL    HW116704  11.897   3.533   0.299
 4957SOL    HW216705  11.921   3.529   0.150
 4958SOL     OW16706  12.154   4.486  10.275
 4958SOL    HW116707  12.238   4.457  10.310
 4958SOL    HW216708  12.163   4.476  10.180
 4959SOL     OW16709  12.848   1.470  13.848
 4959SOL    HW116710  12.817   1.555  13.877
 4959SOL    HW216711  12.835   1.471  13.753
 4960SOL     OW16712  13.752   5.544  13.088
 4960SOL    HW116713  13.790   5.558  13.174
 4960SOL    HW216714  13.700   5.464  13.097
 4961SOL     OW16715   4.057  10.431   4.019
 4961SOL    HW116716   3.988  10.401   4.077
 4961SOL    HW216717   4.031  10.400   3.932
 4962SOL     OW16718   4.334  10.113   1.296
 4962SOL    HW116719   4.425  10.104   1.324
 4962SOL    HW216720   4.291  10.158   1.369
 4963SOL     OW16721   9.047  14.233   4.355
 4963SOL    HW116722   9.053  14.263   4.446
 4963SOL    HW216723   9.127  14.181   4.342
 4964SOL     OW16724   2.135  11.146   8.185
 4964SOL    HW116725   2.206  11.201   8.152
 4964SOL    HW216726   2.088  11.202   8.246
 4965SOL     OW16727   9.345   3.194  14.548
 4965SOL    HW116728   9.420   3.234  14.503
 4965SOL    HW216729   9.364   3.100  14.548
 4966SOL     OW16730   2.439  13.253  12.518
 4966SOL    HW116731   2.518  13.276  12.470
 4966SOL    HW216732   2.468  13.190  12.584
 4967SOL     OW16733   2.880   0.801   4.822
 4967SOL    HW116734   2.969   0.817   4.852
 4967SOL    HW216735   2.830   0.785   4.902
 4968SOL     OW16736   7.828  14.083   2.211
 4968SOL    HW116737   7.760  14.146   2.234
 4968SOL    HW216738   7.841  14.096   2.117
 4969SOL     OW16739   0.416   5.870   1.691
 4969SOL    HW116740   0.474   5.796   1.672
 4969SOL    HW216741   0.475   5.943   1.710
 4970SOL     OW16742  11.621   1.409   2.868
 4970SOL    HW116743  11.634   1.458   2.787
 4970SOL    HW216744  11.696   1.431   2.922
 4971SOL     OW16745   0.214  13.774   8.143
 4971SOL    HW116746   0.287  13.760   8.082
 4971SOL    HW216747   0.142  13.805   8.087
 4972SOL     OW16748  12.694   7.704   7.272
 4972SOL    HW116749  12.696   7.658   7.188
 4972SOL    HW216750  12.704   7.797   7.248
 4973SOL     OW16751   2.861   0.605  13.649
 4973SOL    HW116752   2.780   0.601  13.598
 4973SOL    HW216753   2.883   0.698  13.651
 4974SOL     OW16754   9.245   9.329  14.841
 4974SOL    HW116755   9.263   9.397  14.777
 4974SOL    HW216756   9.288   9.250  14.807
 4975SOL     OW16757  10.007   2.570   6.584
 4975SOL    HW116758  10.092   2.612   6.598
 4975SOL    HW216759  10.028   2.480   6.561
 4976SOL     OW16760  14.104   3.307   6.798
 4976SOL    HW116761  14.055   3.388   6.810
 4976SOL    HW216762  14.038   3.239   6.787
 4977SOL     OW16763   0.730   0.004   4.380
 4977SOL    HW116764   0.666  14.807   4.369
 4977SOL    HW216765   0.765   0.019   4.292
 4978SOL     OW16766   1.260  12.605   8.636
 4978SOL    HW116767   1.241  12.688   8.680
 4978SOL    HW216768   1.224  12.538   8.694
 4979SOL     OW16769   4.230   5.122   2.544
 4979SOL    HW116770   4.274   5.067   2.479
 4979SOL    HW216771   4.301   5.157   2.597
 4980SOL     OW16772   9.897   6.634  13.118
 4980SOL    HW116773   9.832   6.583  13.166
 4980SOL    HW216774   9.863   6.724  13.120
 4981SOL     OW16775   8.297  14.858   1.514
 4981SOL    HW116776   8.302   0.077   1.541
 4981SOL    HW216777   8.225  14.855   1.452
 4982SOL     OW16778   4.016   7.191  10.208
 4982SOL    HW116779   4.088   7.168  10.149
 4982SOL    HW216780   3.992   7.281  10.183
 4983SOL     OW16781   0.148  10.566   3.185
 4983SOL    HW116782   0.064  10.608   3.203
 4983SOL    HW216783   0.130  10.473   3.190
 4984SOL     OW16784   3.741   9.791   2.632
 4984SOL    HW116785   3.832   9.814   2.649
 4984SOL    HW216786   3.725   9.713   2.687
 4985SOL     OW16787   3.253   6.043   7.654
 4985SOL    HW116788   3.163   6.063   7.679
 4985SOL    HW216789   3.305   6.066   7.731
 4986SOL     OW16790   3.272   4.976  12.576
 4986SOL    HW116791   3.316   5.009  12.655
 4986SOL    HW216792   3.262   4.882  12.592
 4987SOL     OW16793   9.618   3.459  10.617
 4987SOL    HW116794   9.658   3.373  10.614
 4987SOL    HW216795   9.691   3.520  10.628
 4988SOL     OW16796   4.953   7.268   1.223
 4988SOL    HW116797   5.013   7.335   1.190
 4988SOL    HW216798   4.975   7.190   1.172
 4989SOL     OW16799  14.516  10.890   9.644
 4989SOL    HW116800  14.530  10.796   9.655
 4989SOL    HW216801  14.596  10.930   9.678
 4990SOL     OW16802   4.820  14.141   2.489
 4990SOL    HW116803   4.740  14.120   2.440
 4990SOL    HW216804   4.799  14.222   2.535
 4991SOL     OW16805   3.957   8.748   2.449
 4991SOL    HW116806   4.021   8.676   2.452
 4991SOL    HW216807   3.905   8.730   2.370
 4992SOL     OW16808   9.048   7.944  12.336
 4992SOL    HW116809   9.140   7.948  12.310
 4992SOL    HW216810   9.038   7.860  12.380
 4993SOL     OW16811  14.682  12.387  10.467
 4993SOL    HW116812  14.588  12.405  10.459
 4993SOL    HW216813  14.712  12.448  10.534
 4994SOL     OW16814   2.028   9.851  13.335
 4994SOL    HW116815   2.054   9.769  13.293
 4994SOL    HW216816   2.108   9.884  13.375
 4995SOL     OW16817   1.080   9.015   0.143
 4995SOL    HW116818   1.110   9.106   0.146
 4995SOL    HW216819   1.087   8.990   0.051
 4996SOL     OW16820   5.553   2.990  13.893
 4996SOL    HW116821   5.545   2.926  13.822
 4996SOL    HW216822   5.573   3.072  13.849
 4997SOL     OW16823  11.471  12.235  10.489
 4997SOL    HW116824  11.519  12.191  10.561
 4997SOL    HW216825  11.540  12.274  10.436
 4998SOL     OW16826  13.799   4.174   8.361
 4998SOL    HW116827  13.803   4.262   8.323
 4998SOL    HW216828  13.706   4.151   8.359
 4999SOL     OW16829   1.480   5.287   9.758
 4999SOL    HW116830   1.488   5.356   9.823
 4999SOL    HW216831   1.452   5.332   9.678
 5000SOL     OW16832   6.666  13.660  13.292
 5000SOL    HW116833   6.598  13.723  13.314
 5000SOL    HW216834   6.720  13.705  13.227
 5001SOL     OW16835  13.067  11.230  11.366
 5001SOL    HW116836  13.066  11.288  11.442
 5001SOL    HW216837  13.004  11.161  11.387
 5002SOL     OW16838   0.755   0.024   7.115
 5002SOL    HW116839   0.847   0.039   7.139
 5002SOL    HW216840   0.710   0.013   7.199
 5003SOL     OW16841   9.381  14.804  11.093
 5003SOL    HW116842   9.422  14.723  11.121
 5003SOL    HW216843   9.404  14.868  11.161
 5004SOL     OW16844  13.526   8.261   9.481
 5004SOL    HW116845  13.436   8.289   9.461
 5004SOL    HW216846  13.518   8.167   9.497
 5005SOL     OW16847   1.607   2.154   9.497
 5005SOL    HW116848   1.639   2.186   9.581
 5005SOL    HW216849   1.540   2.089   9.520
 5006SOL     OW16850   5.435   9.940   0.224
 5006SOL    HW116851   5.451   9.979   0.310
 5006SOL    HW216852   5.498   9.983   0.166
 5007SOL     OW16853   3.046  10.796   0.401
 5007SOL    HW116854   2.951  10.809   0.400
 5007SOL    HW216855   3.056  10.701   0.412
 5008SOL     OW16856   8.365   6.739  11.043
 5008SOL    HW116857   8.284   6.694  11.020
 5008SOL    HW216858   8.366   6.740  11.139
 5009SOL     OW16859  14.587  13.206  12.479
 5009SOL    HW116860  14.548  13.238  12.560
 5009SOL    HW216861  14.547  13.260  12.410
 5010SOL     OW16862  13.059   3.292   0.460
 5010SOL    HW116863  13.081   3.276   0.552
 5010SOL    HW216864  12.991   3.360   0.463
 5011SOL     OW16865   5.362  10.409   0.686
 5011SOL    HW116866   5.339  10.440   0.773
 5011SOL    HW216867   5.278  10.403   0.640
 5012SOL     OW16868   1.724  13.047   4.431
 5012SOL    HW116869   1.796  13.051   4.494
 5012SOL    HW216870   1.731  12.961   4.391
 5013SOL     OW16871   0.756   0.886   7.216
 5013SOL    HW116872   0.680   0.846   7.258
 5013SOL    HW216873   0.738   0.880   7.122
 5014SOL     OW16874  11.222  10.259  10.973
 5014SOL    HW116875  11.258  10.347  10.986
 5014SOL    HW216876  11.130  10.267  11.001
 5015SOL     OW16877   0.886  11.780  13.615
 5015SOL    HW116878   0.936  11.861  13.605
 5015SOL    HW216879   0.847  11.764  13.529
 5016SOL     OW16880   0.752   6.400  10.572
 5016SOL    HW116881   0.753   6.368  10.481
 5016SOL    HW216882   0.781   6.325  10.624
 5017SOL     OW16883   5.807   7.879  12.328
 5017SOL    HW116884   5.893   7.913  12.304
 5017SOL    HW216885   5.800   7.895  12.422
 5018SOL     OW16886   6.655  13.510  12.905
 5018SOL    HW116887   6.706  13.578  12.862
 5018SOL    HW216888   6.565  13.543  12.905
 5019SOL     OW16889   2.605  14.671   4.414
 5019SOL    HW116890   2.594  14.629   4.329
 5019SOL    HW216891   2.515  14.689   4.443
 5020SOL     OW16892   6.975   2.668   0.496
 5020SOL    HW116893   6.982   2.744   0.553
 5020SOL    HW216894   6.938   2.599   0.551
 5021SOL     OW16895   8.044  12.817  11.137
 5021SOL    HW116896   8.089  12.817  11.222
 5021SOL    HW216897   8.015  12.727  11.125
 5022SOL     OW16898   3.308  10.368   4.241
 5022SOL    HW116899   3.248  10.431   4.282
 5022SOL    HW216900   3.307  10.293   4.300
 5023SOL     OW16901   8.985   1.933  13.380
 5023SOL    HW116902   8.976   1.925  13.476
 5023SOL    HW216903   9.060   1.990  13.368
 5024SOL     OW16904   2.552  12.068  11.079
 5024SOL    HW116905   2.482  12.129  11.061
 5024SOL    HW216906   2.595  12.053  10.995
 5025SOL     OW16907  10.445  12.516   3.038
 5025SOL    HW116908  10.514  12.558   3.089
 5025SOL    HW216909  10.465  12.538   2.947
 5026SOL     OW16910   4.763  11.181   8.889
 5026SOL    HW116911   4.836  11.162   8.830
 5026SOL    HW216912   4.696  11.117   8.865
 5027SOL     OW16913  11.575   8.433   1.927
 5027SOL    HW116914  11.660   8.462   1.895
 5027SOL    HW216915  11.591   8.405   2.017
 5028SOL     OW16916   3.944   7.373  14.579
 5028SOL    HW116917   3.940   7.462  14.613
 5028SOL    HW216918   4.029   7.340  14.607
 5029SOL     OW16919  12.832   2.675   2.355
 5029SOL    HW116920  12.922   2.666   2.385
 5029SOL    HW216921  12.780   2.626   2.418
 5030SOL     OW16922   7.186   7.888   4.326
 5030SOL    HW116923   7.105   7.911   4.371
 5030SOL    HW216924   7.184   7.793   4.320
 5031SOL     OW16925  11.128  13.740   8.152
 5031SOL    HW116926  11.039  13.768   8.130
 5031SOL    HW216927  11.177  13.822   8.162
 5032SOL     OW16928  12.040  12.179   9.197
 5032SOL    HW116929  12.090  12.186   9.279
 5032SOL    HW216930  12.085  12.110   9.148
 5033SOL     OW16931  13.629  12.096  14.522
 5033SOL    HW116932  13.579  12.174  14.497
 5033SOL    HW216933  13.690  12.083  14.449
 5034SOL     OW16934   4.475   3.547  12.201
 5034SOL    HW116935   4.522   3.598  12.266
 5034SOL    HW216936   4.412   3.609  12.163
 5035SOL     OW16937   3.873   0.862   2.826
 5035SOL    HW116938   3.938   0.812   2.776
 5035SOL    HW216939   3.900   0.953   2.816
 5036SOL     OW16940   7.683  13.270   2.634
 5036SOL    HW116941   7.660  13.298   2.546
 5036SOL    HW216942   7.696  13.175   2.627
 5037SOL     OW16943   9.232   0.576   7.850
 5037SOL    HW116944   9.288   0.633   7.903
 5037SOL    HW216945   9.153   0.628   7.836
 5038SOL     OW16946   5.020   5.215  12.342
 5038SOL    HW116947   5.065   5.164  12.409
 5038SOL    HW216948   4.952   5.263  12.389
 5039SOL     OW16949  10.199   6.216  11.448
 5039SOL    HW116950  10.266   6.185  11.387
 5039SOL    HW216951  10.116   6.196  11.405
 5040SOL     OW16952   7.079   5.948  11.525
 5040SOL    HW116953   7.006   5.931  11.466
 5040SOL    HW216954   7.143   5.879  11.506
 5041SOL     OW16955   7.539  12.405   2.255
 5041SOL    HW116956   7.478  12.332   2.263
 5041SOL    HW216957   7.551  12.416   2.161
 5042SOL     OW16958   2.291   1.344   6.303
 5042SOL    HW116959   2.227   1.275   6.319
 5042SOL    HW216960   2.354   1.304   6.243
 5043SOL     OW16961  13.467  13.717   1.581
 5043SOL    HW116962  13.503  13.778   1.518
 5043SOL    HW216963  13.373  13.734   1.581
 5044SOL     OW16964  14.749   4.290  12.821
 5044SOL    HW116965  14.690   4.269  12.894
 5044SOL    HW216966  14.837   4.288  12.860
 5045SOL     OW16967   3.698  12.372   9.534
 5045SOL    HW116968   3.651  12.288   9.536
 5045SOL    HW216969   3.768  12.359   9.470
 5046SOL     OW16970   7.847   8.582   9.017
 5046SOL    HW116971   7.929   8.534   9.020
 5046SOL    HW216972   7.872   8.671   8.992
 5047SOL     OW16973   0.393  12.717   4.525
 5047SOL    HW116974   0.466  12.778   4.517
 5047SOL    HW216975   0.315  12.771   4.513
 5048SOL     OW16976   1.980  12.028   1.408
 5048SOL    HW116977   2.060  12.011   1.458
 5048SOL    HW216978   1.910  12.017   1.472
 5049SOL     OW16979   6.044   0.264  12.042
 5049SOL    HW116980   6.003   0.179  12.060
 5049SOL    HW216981   6.030   0.315  12.121
 5050SOL     OW16982  12.468  13.839   3.555
 5050SOL    HW116983  12.447  13.752   3.589
 5050SOL    HW216984  12.543  13.868   3.607
 5051SOL     OW16985   6.214   5.500  13.204
 5051SOL    HW116986   6.290   5.456  13.243
 5051SOL    HW216987   6.238   5.509  13.111
 5052SOL     OW16988  14.309   2.766  13.917
 5052SOL    HW116989  14.288   2.838  13.857
 5052SOL    HW216990  14.367   2.805  13.982
 5053SOL     OW16991   4.319   4.057  11.305
 5053SOL    HW116992   4.342   4.104  11.224
 5053SOL    HW216993   4.252   3.995  11.277
 5054SOL     OW16994   5.935   1.970  11.411
 5054SOL    HW116995   5.872   1.941  11.345
 5054SOL    HW216996   5.967   1.889  11.450
 5055SOL     OW16997   7.909   5.277   4.309
 5055SOL    HW116998   7.960   5.206   4.347
 5055SOL    HW216999   7.879   5.244   4.224
 5056SOL     OW17000   6.921   2.458  14.625
 5056SOL    HW117001   6.830   2.451  14.654
 5056SOL    HW217002   6.957   2.371  14.638
 5057SOL     OW17003   6.091   3.196  10.338
 5057SOL    HW117004   6.078   3.105  10.365
 5057SOL    HW217005   6.154   3.231  10.402
 5058SOL     OW17006   1.216  11.671  11.069
 5058SOL    HW117007   1.125  11.683  11.096
 5058SOL    HW217008   1.260  11.753  11.093
 5059SOL     OW17009  11.528   8.804   1.253
 5059SOL    HW117010  11.457   8.862   1.281
 5059SOL    HW217011  11.499   8.717   1.282
 5060SOL     OW17012   4.104  12.201  14.560
 5060SOL    HW117013   4.083  12.174  14.471
 5060SOL    HW217014   4.193  12.168  14.575
 5061SOL     OW17015   3.285   3.358   9.124
 5061SOL    HW117016   3.365   3.312   9.097
 5061SOL    HW217017   3.221   3.289   9.137
 5062SOL     OW17018   4.874  13.676  10.023
 5062SOL    HW117019   4.784  13.645  10.031
 5062SOL    HW217020   4.871  13.741   9.952
 5063SOL     OW17021   5.152  14.769  10.386
 5063SOL    HW117022   5.148  14.676  10.362
 5063SOL    HW217023   5.155  14.770  10.481
 5064SOL     OW17024   3.651  10.105   4.377
 5064SOL    HW117025   3.584  10.140   4.319
 5064SOL    HW217026   3.724  10.082   4.318
 5065SOL     OW17027   2.528   6.870   3.246
 5065SOL    HW117028   2.614   6.842   3.214
 5065SOL    HW217029   2.510   6.812   3.320
 5066SOL     OW17030   7.472   2.289   7.582
 5066SOL    HW117031   7.389   2.328   7.607
 5066SOL    HW217032   7.537   2.358   7.596
 5067SOL     OW17033   9.234  13.982   8.860
 5067SOL    HW117034   9.312  14.016   8.902
 5067SOL    HW217035   9.187  14.060   8.830
 5068SOL     OW17036  10.536   7.711   8.210
 5068SOL    HW117037  10.516   7.641   8.148
 5068SOL    HW217038  10.581   7.777   8.157
 5069SOL     OW17039   8.883   9.114   1.866
 5069SOL    HW117040   8.931   9.197   1.870
 5069SOL    HW217041   8.798   9.138   1.828
 5070SOL     OW17042   3.289  11.458   5.194
 5070SOL    HW117043   3.225  11.474   5.263
 5070SOL    HW217044   3.238  11.419   5.122
 5071SOL     OW17045   2.281  10.575   6.780
 5071SOL    HW117046   2.346  10.559   6.848
 5071SOL    HW217047   2.322  10.543   6.700
 5072SOL     OW17048   1.985   9.225   1.246
 5072SOL    HW117049   1.989   9.284   1.170
 5072SOL    HW217050   1.951   9.279   1.317
 5073SOL     OW17051  11.318   2.724   3.100
 5073SOL    HW117052  11.407   2.722   3.065
 5073SOL    HW217053  11.312   2.645   3.155
 5074SOL     OW17054  12.521  13.407   8.207
 5074SOL    HW117055  12.610  13.421   8.239
 5074SOL    HW217056  12.467  13.468   8.256
 5075SOL     OW17057   9.261  14.694   2.413
 5075SOL    HW117058   9.291  14.623   2.355
 5075SOL    HW217059   9.302  14.772   2.377
 5076SOL     OW17060   0.676   3.309   3.137
 5076SOL    HW117061   0.617   3.379   3.111
 5076SOL    HW217062   0.698   3.328   3.228
 5077SOL     OW17063   9.806  10.697  13.984
 5077SOL    HW117064   9.808  10.604  13.962
 5077SOL    HW217065   9.893  10.714  14.022
 5078SOL     OW17066   2.401   4.677   3.730
 5078SOL    HW117067   2.355   4.714   3.805
 5078SOL    HW217068   2.476   4.632   3.769
 5079SOL     OW17069  10.805  14.163   2.354
 5079SOL    HW117070  10.793  14.182   2.447
 5079SOL    HW217071  10.773  14.073   2.343
 5080SOL     OW17072  13.595  11.220  14.821
 5080SOL    HW117073  13.603  11.289   0.014
 5080SOL    HW217074  13.502  11.219  14.799
 5081SOL     OW17075   7.725   3.283  11.762
 5081SOL    HW117076   7.689   3.330  11.837
 5081SOL    HW217077   7.684   3.322  11.686
 5082SOL     OW17078   1.224   4.635   9.789
 5082SOL    HW117079   1.178   4.714   9.816
 5082SOL    HW217080   1.272   4.660   9.710
 5083SOL     OW17081   7.326   4.628  11.041
 5083SOL    HW117082   7.322   4.708  10.990
 5083SOL    HW217083   7.242   4.624  11.087
 5084SOL     OW17084   6.166   5.353   1.920
 5084SOL    HW117085   6.125   5.403   1.991
 5084SOL    HW217086   6.257   5.342   1.948
 5085SOL     OW17087   9.904   6.014   4.438
 5085SOL    HW117088   9.941   5.927   4.448
 5085SOL    HW217089   9.810   6.002   4.451
 5086SOL     OW17090   6.885  12.401   1.017
 5086SOL    HW117091   6.947  12.340   1.057
 5086SOL    HW217092   6.911  12.405   0.925
 5087SOL     OW17093   9.634  11.030  12.704
 5087SOL    HW117094   9.678  11.002  12.783
 5087SOL    HW217095   9.694  11.008  12.633
 5088SOL     OW17096  11.209   5.330   1.179
 5088SOL    HW117097  11.291   5.287   1.201
 5088SOL    HW217098  11.216   5.349   1.085
 5089SOL     OW17099  10.641   1.623  13.612
 5089SOL    HW117100  10.556   1.607  13.571
 5089SOL    HW217101  10.691   1.671  13.546
 5090SOL     OW17102  13.923   1.958   8.208
 5090SOL    HW117103  13.982   1.906   8.262
 5090SOL    HW217104  13.836   1.942   8.245
 5091SOL     OW17105   9.329   8.057  13.766
 5091SOL    HW117106   9.277   7.997  13.712
 5091SOL    HW217107   9.312   8.029  13.855
 5092SOL     OW17108   4.268  12.157  12.092
 5092SOL    HW117109   4.235  12.243  12.066
 5092SOL    HW217110   4.305  12.171  12.179
 5093SOL     OW17111   9.386   0.307  10.064
 5093SOL    HW117112   9.315   0.244  10.051
 5093SOL    HW217113   9.412   0.295  10.156
 5094SOL     OW17114   2.152  12.691   3.580
 5094SOL    HW117115   2.137  12.690   3.674
 5094SOL    HW217116   2.158  12.784   3.558
 5095SOL     OW17117  11.899  13.803   6.282
 5095SOL    HW117118  11.832  13.853   6.234
 5095SOL    HW217119  11.979  13.854   6.271
 5096SOL     OW17120  13.523  10.756   0.465
 5096SOL    HW117121  13.575  10.829   0.500
 5096SOL    HW217122  13.584  10.683   0.462
 5097SOL     OW17123  12.927  11.144   8.857
 5097SOL    HW117124  12.972  11.068   8.893
 5097SOL    HW217125  12.879  11.109   8.781
 5098SOL     OW17126   2.507   4.832  12.219
 5098SOL    HW117127   2.467   4.764  12.272
 5098SOL    HW217128   2.447   4.906  12.225
 5099SOL     OW17129  10.854   9.932   0.546
 5099SOL    HW117130  10.922   9.935   0.614
 5099SOL    HW217131  10.867  10.014   0.497
 5100SOL     OW17132  12.560  12.750   3.463
 5100SOL    HW117133  12.532  12.821   3.405
 5100SOL    HW217134  12.487  12.688   3.461
 5101SOL     OW17135   1.291   5.686   1.610
 5101SOL    HW117136   1.338   5.645   1.538
 5101SOL    HW217137   1.331   5.773   1.619
 5102SOL     OW17138   4.809   9.258   9.265
 5102SOL    HW117139   4.844   9.175   9.233
 5102SOL    HW217140   4.717   9.241   9.284
 5103SOL     OW17141   8.310   0.593   9.150
 5103SOL    HW117142   8.391   0.606   9.100
 5103SOL    HW217143   8.274   0.511   9.117
 5104SOL     OW17144   9.041   6.622  12.759
 5104SOL    HW117145   8.975   6.581  12.815
 5104SOL    HW217146   9.119   6.627  12.815
 5105SOL     OW17147   6.881  10.945   1.593
 5105SOL    HW117148   6.884  11.021   1.651
 5105SOL    HW217149   6.853  10.981   1.509
 5106SOL     OW17150   2.344   5.337  13.075
 5106SOL    HW117151   2.290   5.265  13.042
 5106SOL    HW217152   2.335   5.406  13.009
 5107SOL     OW17153   4.675  13.014  11.140
 5107SOL    HW117154   4.676  13.106  11.167
 5107SOL    HW217155   4.652  13.017  11.048
 5108SOL     OW17156  10.075   9.689   9.607
 5108SOL    HW117157  10.039   9.663   9.523
 5108SOL    HW217158  10.000   9.690   9.667
 5109SOL     OW17159   3.646  11.483   2.132
 5109SOL    HW117160   3.601  11.504   2.051
 5109SOL    HW217161   3.734  11.520   2.122
 5110SOL     OW17162  12.753  11.294   8.493
 5110SOL    HW117163  12.841  11.266   8.517
 5110SOL    HW217164  12.765  11.376   8.446
 5111SOL     OW17165   3.344   9.098   7.620
 5111SOL    HW117166   3.415   9.114   7.682
 5111SOL    HW217167   3.347   9.172   7.560
 5112SOL     OW17168  10.945   7.516  10.023
 5112SOL    HW117169  10.863   7.565  10.028
 5112SOL    HW217170  10.939   7.467   9.941
 5113SOL     OW17171   5.599  10.715   4.752
 5113SOL    HW117172   5.624  10.646   4.814
 5113SOL    HW217173   5.628  10.796   4.794
 5114SOL     OW17174   8.838   3.150   1.119
 5114SOL    HW117175   8.832   3.204   1.199
 5114SOL    HW217176   8.914   3.094   1.134
 5115SOL     OW17177   1.004  14.364   5.039
 5115SOL    HW117178   0.951  14.443   5.034
 5115SOL    HW217179   0.942  14.292   5.029
 5116SOL     OW17180  12.568  12.015   2.627
 5116SOL    HW117181  12.562  11.952   2.699
 5116SOL    HW217182  12.477  12.024   2.596
 5117SOL     OW17183   0.806   0.965  14.055
 5117SOL    HW117184   0.861   0.952  13.978
 5117SOL    HW217185   0.795   0.877  14.091
 5118SOL     OW17186   2.868   2.266   2.932
 5118SOL    HW117187   2.872   2.318   2.852
 5118SOL    HW217188   2.960   2.247   2.952
 5119SOL     OW17189   0.237  11.041   9.301
 5119SOL    HW117190   0.209  11.036   9.392
 5119SOL    HW217191   0.196  11.121   9.268
 5120SOL     OW17192  12.576   2.987   4.657
 5120SOL    HW117193  12.657   3.035   4.641
 5120SOL    HW217194  12.512   3.029   4.600
 5121SOL     OW17195  12.918   0.469  14.719
 5121SOL    HW117196  12.900   0.563  14.713
 5121SOL    HW217197  12.864   0.438  14.792
 5122SOL     OW17198   5.826   5.891   3.566
 5122SOL    HW117199   5.903   5.943   3.545
 5122SOL    HW217200   5.833   5.813   3.512
 5123SOL     OW17201   4.380   9.155   4.561
 5123SOL    HW117202   4.424   9.199   4.488
 5123SOL    HW217203   4.436   9.171   4.637
 5124SOL     OW17204  13.880   9.167  10.939
 5124SOL    HW117205  13.827   9.246  10.954
 5124SOL    HW217206  13.904   9.172  10.847
 5125SOL     OW17207   0.239  14.833  10.904
 5125SOL    HW117208   0.172  14.801  10.845
 5125SOL    HW217209   0.321  14.820  10.856
 5126SOL     OW17210  11.605   8.726   6.222
 5126SOL    HW117211  11.530   8.771   6.184
 5126SOL    HW217212  11.652   8.690   6.147
 5127SOL     OW17213   7.112  10.621   7.461
 5127SOL    HW117214   7.146  10.670   7.535
 5127SOL    HW217215   7.106  10.531   7.493
 5128SOL     OW17216  11.229   3.804   7.420
 5128SOL    HW117217  11.162   3.748   7.459
 5128SOL    HW217218  11.217   3.889   7.463
 5129SOL     OW17219   1.399   8.530  10.544
 5129SOL    HW117220   1.481   8.482  10.552
 5129SOL    HW217221   1.333   8.471  10.582
 5130SOL     OW17222   0.348   4.384   0.662
 5130SOL    HW117223   0.287   4.458   0.665
 5130SOL    HW217224   0.391   4.391   0.577
 5131SOL     OW17225   9.933   9.987   7.276
 5131SOL    HW117226   9.898  10.008   7.189
 5131SOL    HW217227   9.994   9.915   7.260
 5132SOL     OW17228   2.461   4.329   4.228
 5132SOL    HW117229   2.514   4.376   4.292
 5132SOL    HW217230   2.522   4.309   4.157
 5133SOL     OW17231  10.354   1.586  13.584
 5133SOL    HW117232  10.272   1.612  13.626
 5133SOL    HW217233  10.374   1.657  13.523
 5134SOL     OW17234  13.488  10.542   3.194
 5134SOL    HW117235  13.559  10.540   3.130
 5134SOL    HW217236  13.463  10.635   3.199
 5135SOL     OW17237  14.872   8.492   0.594
 5135SOL    HW117238  14.872   8.528   0.505
 5135SOL    HW217239  14.783   8.507   0.626
 5136SOL     OW17240  12.639   8.524   5.676
 5136SOL    HW117241  12.716   8.547   5.624
 5136SOL    HW217242  12.672   8.464   5.743
 5137SOL     OW17243  14.554   1.147   1.071
 5137SOL    HW117244  14.535   1.237   1.046
 5137SOL    HW217245  14.471   1.114   1.106
 5138SOL     OW17246  12.392  10.568   4.928
 5138SOL    HW117247  12.319  10.507   4.939
 5138SOL    HW217248  12.360  10.651   4.963
 5139SOL     OW17249   7.484   8.611  11.021
 5139SOL    HW117250   7.468   8.551  11.094
 5139SOL    HW217251   7.399   8.616  10.976
 5140SOL     OW17252   5.523   0.798  11.204
 5140SOL    HW117253   5.444   0.816  11.256
 5140SOL    HW217254   5.574   0.878  11.211
 5141SOL     OW17255   7.991   3.503  13.621
 5141SOL    HW117256   8.066   3.446  13.603
 5141SOL    HW217257   7.975   3.549  13.538
 5142SOL     OW17258   0.552   3.713   0.844
 5142SOL    HW117259   0.622   3.777   0.854
 5142SOL    HW217260   0.537   3.706   0.750
 5143SOL     OW17261   2.891  11.384   4.751
 5143SOL    HW117262   2.853  11.425   4.828
 5143SOL    HW217263   2.963  11.441   4.726
 5144SOL     OW17264   5.617   8.954  12.961
 5144SOL    HW117265   5.686   8.889  12.950
 5144SOL    HW217266   5.590   8.945  13.052
 5145SOL     OW17267   7.162   9.348   1.145
 5145SOL    HW117268   7.135   9.415   1.207
 5145SOL    HW217269   7.257   9.343   1.153
 5146SOL     OW17270  14.807   7.530   5.505
 5146SOL    HW117271  14.762   7.553   5.586
 5146SOL    HW217272  14.768   7.447   5.478
 5147SOL     OW17273   8.275   1.720  14.747
 5147SOL    HW117274   8.238   1.807  14.734
 5147SOL    HW217275   8.204   1.660  14.724
 5148SOL     OW17276   2.348  13.939   8.784
 5148SOL    HW117277   2.374  13.957   8.874
 5148SOL    HW217278   2.430  13.935   8.735
 5149SOL     OW17279  14.810   4.437  12.005
 5149SOL    HW117280  14.786   4.386  11.927
 5149SOL    HW217281  14.823   4.371  12.073
 5150SOL     OW17282   2.448   8.879   5.738
 5150SOL    HW117283   2.506   8.816   5.694
 5150SOL    HW217284   2.361   8.842   5.730
 5151SOL     OW17285   4.483  12.788   8.551
 5151SOL    HW117286   4.577  12.803   8.565
 5151SOL    HW217287   4.476  12.760   8.460
 5152SOL     OW17288  10.230   2.452  10.421
 5152SOL    HW117289  10.308   2.468  10.368
 5152SOL    HW217290  10.173   2.400  10.364
 5153SOL     OW17291   5.959   6.570   8.495
 5153SOL    HW117292   5.874   6.611   8.481
 5153SOL    HW217293   6.016   6.642   8.521
 5154SOL     OW17294   0.998   4.575   4.248
 5154SOL    HW117295   1.071   4.636   4.253
 5154SOL    HW217296   1.022   4.505   4.309
 5155SOL     OW17297   1.509   5.748   8.896
 5155SOL    HW117298   1.594   5.732   8.936
 5155SOL    HW217299   1.527   5.751   8.802
 5156SOL     OW17300   2.955   2.319   5.135
 5156SOL    HW117301   2.911   2.395   5.095
 5156SOL    HW217302   2.977   2.263   5.060
 5157SOL     OW17303   6.919   6.644   4.128
 5157SOL    HW117304   6.837   6.601   4.151
 5157SOL    HW217305   6.894   6.732   4.100
 5158SOL     OW17306  12.102   1.538   8.374
 5158SOL    HW117307  12.087   1.498   8.459
 5158SOL    HW217308  12.187   1.505   8.345
 5159SOL     OW17309   8.119   2.766   0.397
 5159SOL    HW117310   8.078   2.826   0.458
 5159SOL    HW217311   8.194   2.731   0.446
 5160SOL     OW17312   0.486   0.489   2.151
 5160SOL    HW117313   0.563   0.522   2.105
 5160SOL    HW217314   0.432   0.567   2.166
 5161SOL     OW17315   0.257   6.554   3.831
 5161SOL    HW117316   0.260   6.493   3.904
 5161SOL    HW217317   0.338   6.539   3.783
 5162SOL     OW17318  12.247   5.457   9.471
 5162SOL    HW117319  12.211   5.532   9.424
 5162SOL    HW217320  12.232   5.476   9.563
 5163SOL     OW17321   5.280   9.502   6.045
 5163SOL    HW117322   5.263   9.592   6.021
 5163SOL    HW217323   5.375   9.496   6.052
 5164SOL     OW17324  11.135   7.129   1.961
 5164SOL    HW117325  11.193   7.090   1.896
 5164SOL    HW217326  11.096   7.055   2.006
 5165SOL     OW17327   0.152   3.535  10.971
 5165SOL    HW117328   0.239   3.504  10.996
 5165SOL    HW217329   0.160   3.556  10.878
 5166SOL     OW17330  14.694   6.355  14.597
 5166SOL    HW117331  14.710   6.367  14.504
 5166SOL    HW217332  14.740   6.429  14.639
 5167SOL     OW17333  13.048   1.381   3.576
 5167SOL    HW117334  13.130   1.351   3.616
 5167SOL    HW217335  13.008   1.438   3.642
 5168SOL     OW17336   5.126   9.981   6.899
 5168SOL    HW117337   5.217   9.952   6.906
 5168SOL    HW217338   5.121  10.027   6.815
 5169SOL     OW17339  10.616   5.758   2.477
 5169SOL    HW117340  10.543   5.756   2.414
 5169SOL    HW217341  10.685   5.707   2.435
 5170SOL     OW17342   1.402  13.035  11.969
 5170SOL    HW117343   1.456  12.982  12.027
 5170SOL    HW217344   1.397  13.120  12.012
 5171SOL     OW17345   0.563   5.118   5.602
 5171SOL    HW117346   0.637   5.177   5.590
 5171SOL    HW217347   0.495   5.152   5.544
 5172SOL     OW17348  14.780   4.032   6.777
 5172SOL    HW117349  14.692   4.000   6.797
 5172SOL    HW217350  14.836   3.991   6.843
 5173SOL     OW17351   8.592  12.410   6.858
 5173SOL    HW117352   8.602  12.475   6.788
 5173SOL    HW217353   8.584  12.462   6.938
 5174SOL     OW17354   7.601  10.351  12.778
 5174SOL    HW117355   7.506  10.347  12.771
 5174SOL    HW217356   7.633  10.296  12.707
 5175SOL     OW17357   9.296   9.874  14.779
 5175SOL    HW117358   9.213   9.915  14.753
 5175SOL    HW217359   9.344   9.862  14.696
 5176SOL     OW17360  11.035  11.578   7.404
 5176SOL    HW117361  11.045  11.488   7.375
 5176SOL    HW217362  10.982  11.573   7.483
 5177SOL     OW17363   5.786  11.041   5.604
 5177SOL    HW117364   5.783  11.023   5.698
 5177SOL    HW217365   5.718  10.986   5.567
 5178SOL     OW17366   8.651   4.730   2.616
 5178SOL    HW117367   8.735   4.777   2.623
 5178SOL    HW217368   8.613   4.737   2.703
 5179SOL     OW17369  14.483   0.889  14.648
 5179SOL    HW117370  14.556   0.900  14.708
 5179SOL    HW217371  14.500   0.952  14.578
 5180SOL     OW17372   7.920   5.170  14.127
 5180SOL    HW117373   8.015   5.168  14.126
 5180SOL    HW217374   7.895   5.210  14.043
 5181SOL     OW17375   4.060   6.781  11.967
 5181SOL    HW117376   4.008   6.854  11.999
 5181SOL    HW217377   3.998   6.708  11.959
 5182SOL     OW17378  11.565   3.511   2.868
 5182SOL    HW117379  11.561   3.549   2.780
 5182SOL    HW217380  11.652   3.534   2.900
 5183SOL     OW17381   9.712   2.977   3.199
 5183SOL    HW117382   9.808   2.982   3.200
 5183SOL    HW217383   9.690   2.955   3.108
 5184SOL     OW17384  11.906   0.204   6.855
 5184SOL    HW117385  11.983   0.209   6.799
 5184SOL    HW217386  11.851   0.278   6.827
 5185SOL     OW17387  11.721   8.005  12.373
 5185SOL    HW117388  11.791   8.059  12.409
 5185SOL    HW217389  11.662   7.992  12.447
 5186SOL     OW17390   7.704   6.760   0.601
 5186SOL    HW117391   7.748   6.727   0.679
 5186SOL    HW217392   7.639   6.693   0.580
 5187SOL     OW17393   6.439   1.328   1.838
 5187SOL    HW117394   6.474   1.241   1.858
 5187SOL    HW217395   6.444   1.376   1.921
 5188SOL     OW17396  11.351  11.897   4.597
 5188SOL    HW117397  11.266  11.916   4.559
 5188SOL    HW217398  11.336  11.893   4.691
 5189SOL     OW17399   3.935   7.632  11.468
 5189SOL    HW117400   3.983   7.568  11.520
 5189SOL    HW217401   3.915   7.586  11.386
 5190SOL     OW17402  11.550   5.976   7.102
 5190SOL    HW117403  11.598   5.923   7.165
 5190SOL    HW217404  11.482   5.919   7.068
 5191SOL     OW17405  10.683  10.215  12.323
 5191SOL    HW117406  10.691  10.258  12.238
 5191SOL    HW217407  10.723  10.276  12.385
 5192SOL     OW17408  13.249   3.847   5.620
 5192SOL    HW117409  13.322   3.889   5.666
 5192SOL    HW217410  13.283   3.762   5.593
 5193SOL     OW17411  12.429   0.543   6.263
 5193SOL    HW117412  12.513   0.533   6.218
 5193SOL    HW217413  12.404   0.634   6.248
 5194SOL     OW17414   0.940   5.327   7.051
 5194SOL    HW117415   0.905   5.353   6.965
 5194SOL    HW217416   0.951   5.232   7.045
 5195SOL     OW17417  11.028  14.232   0.156
 5195SOL    HW117418  11.008  14.295   0.225
 5195SOL    HW217419  11.123  14.220   0.162
 5196SOL     OW17420   0.425   8.997   8.130
 5196SOL    HW117421   0.334   8.996   8.161
 5196SOL    HW217422   0.429   9.069   8.068
 5197SOL     OW17423  12.325   9.139   4.115
 5197SOL    HW117424  12.349   9.218   4.164
 5197SOL    HW217425  12.322   9.169   4.024
 5198SOL     OW17426  12.712   4.812   4.716
 5198SOL    HW117427  12.787   4.852   4.761
 5198SOL    HW217428  12.749   4.773   4.637
 5199SOL     OW17429  10.557   3.951   7.799
 5199SOL    HW117430  10.599   3.933   7.883
 5199SOL    HW217431  10.466   3.970   7.821
 5200SOL     OW17432   4.616   9.994  13.570
 5200SOL    HW117433   4.705  10.030  13.574
 5200SOL    HW217434   4.570  10.050  13.507
 5201SOL     OW17435  12.972   2.700   9.693
 5201SOL    HW117436  13.040   2.753   9.650
 5201SOL    HW217437  12.890   2.730   9.654
 5202SOL     OW17438   8.744  12.210  11.178
 5202SOL    HW117439   8.726  12.132  11.230
 5202SOL    HW217440   8.728  12.283  11.237
 5203SOL     OW17441   6.859   8.891   3.397
 5203SOL    HW117442   6.773   8.888   3.353
 5203SOL    HW217443   6.920   8.913   3.327
 5204SOL     OW17444   3.814   0.225   6.031
 5204SOL    HW117445   3.778   0.193   5.948
 5204SOL    HW217446   3.747   0.202   6.095
 5205SOL     OW17447   4.953   6.613  14.159
 5205SOL    HW117448   5.013   6.680  14.127
 5205SOL    HW217449   4.873   6.627  14.110
 5206SOL     OW17450   0.074   0.870   0.455
 5206SOL    HW117451   0.042   0.799   0.511
 5206SOL    HW217452   0.149   0.906   0.502
 5207SOL     OW17453   8.201   7.746   4.069
 5207SOL    HW117454   8.234   7.829   4.105
 5207SOL    HW217455   8.121   7.771   4.022
 5208SOL     OW17456  10.919   3.492  11.693
 5208SOL    HW117457  10.962   3.456  11.771
 5208SOL    HW217458  10.832   3.454  11.694
 5209SOL     OW17459   4.936   2.466   9.784
 5209SOL    HW117460   4.871   2.526   9.820
 5209SOL    HW217461   4.886   2.411   9.722
 5210SOL     OW17462  13.250  13.515  11.871
 5210SOL    HW117463  13.263  13.608  11.890
 5210SOL    HW217464  13.183  13.487  11.933
 5211SOL     OW17465  11.672  10.471   8.837
 5211SOL    HW117466  11.631  10.493   8.920
 5211SOL    HW217467  11.600  10.443   8.781
 5212SOL     OW17468   4.049  13.811   1.644
 5212SOL    HW117469   4.059  13.718   1.620
 5212SOL    HW217470   3.958  13.819   1.670
 5213SOL     OW17471   9.323   5.157  10.964
 5213SOL    HW117472   9.306   5.232  11.021
 5213SOL    HW217473   9.384   5.103  11.013
 5214SOL     OW17474  12.705   7.138  14.481
 5214SOL    HW117475  12.734   7.212  14.535
 5214SOL    HW217476  12.769   7.134  14.410
 5215SOL     OW17477   9.587  12.958   6.421
 5215SOL    HW117478   9.571  12.917   6.506
 5215SOL    HW217479   9.506  13.006   6.402
 5216SOL     OW17480   7.603  12.181   3.475
 5216SOL    HW117481   7.569  12.094   3.496
 5216SOL    HW217482   7.544  12.241   3.522
 5217SOL     OW17483   4.437  10.847  10.086
 5217SOL    HW117484   4.515  10.830  10.140
 5217SOL    HW217485   4.427  10.769  10.032
 5218SOL     OW17486  11.152   3.315   2.218
 5218SOL    HW117487  11.174   3.284   2.306
 5218SOL    HW217488  11.120   3.237   2.172
 5219SOL     OW17489   3.965   0.689  12.400
 5219SOL    HW117490   3.980   0.777  12.364
 5219SOL    HW217491   3.930   0.638  12.327
 5220SOL     OW17492   5.783  13.706   5.736
 5220SOL    HW117493   5.720  13.633   5.740
 5220SOL    HW217494   5.744  13.774   5.791
 5221SOL     OW17495   9.626  14.190  11.079
 5221SOL    HW117496   9.613  14.154  11.167
 5221SOL    HW217497   9.720  14.208  11.074
 5222SOL     OW17498   5.538  14.216   6.319
 5222SOL    HW117499   5.517  14.293   6.371
 5222SOL    HW217500   5.632  14.226   6.299
 5223SOL     OW17501  13.175  11.924  10.466
 5223SOL    HW117502  13.213  11.850  10.513
 5223SOL    HW217503  13.207  12.002  10.513
 5224SOL     OW17504   0.158   2.403  12.425
 5224SOL    HW117505   0.215   2.344  12.377
 5224SOL    HW217506   0.099   2.439  12.359
 5225SOL     OW17507   4.560   1.114   2.008
 5225SOL    HW117508   4.558   1.090   1.915
 5225SOL    HW217509   4.624   1.054   2.047
 5226SOL     OW17510   5.462  14.230   0.019
 5226SOL    HW117511   5.388  14.208   0.075
 5226SOL    HW217512   5.506  14.302   0.064
 5227SOL     OW17513   2.495   4.727   0.862
 5227SOL    HW117514   2.432   4.794   0.831
 5227SOL    HW217515   2.570   4.777   0.892
 5228SOL     OW17516   5.027   0.766   0.261
 5228SOL    HW117517   5.050   0.778   0.353
 5228SOL    HW217518   5.053   0.848   0.219
 5229SOL     OW17519  12.875   1.908   5.042
 5229SOL    HW117520  12.936   1.862   5.100
 5229SOL    HW217521  12.932   1.952   4.978
 5230SOL     OW17522   8.290  14.200  12.992
 5230SOL    HW117523   8.354  14.256  12.946
 5230SOL    HW217524   8.333  14.179  13.075
 5231SOL     OW17525  14.721   6.488  11.534
 5231SOL    HW117526  14.638   6.447  11.512
 5231SOL    HW217527  14.788   6.433  11.493
 5232SOL     OW17528   0.132   0.326  12.873
 5232SOL    HW117529   0.045   0.288  12.867
 5232SOL    HW217530   0.144   0.345  12.966
 5233SOL     OW17531   0.569   0.755  10.281
 5233SOL    HW117532   0.612   0.759  10.366
 5233SOL    HW217533   0.490   0.807  10.290
 5234SOL     OW17534   2.978  11.560   7.383
 5234SOL    HW117535   3.067  11.590   7.365
 5234SOL    HW217536   2.937  11.556   7.296
 5235SOL     OW17537   6.426   6.504   1.610
 5235SOL    HW117538   6.433   6.500   1.514
 5235SOL    HW217539   6.477   6.581   1.634
 5236SOL     OW17540  11.030   0.031   5.529
 5236SOL    HW117541  11.005   0.021   5.437
 5236SOL    HW217542  11.090   0.106   5.529
 5237SOL     OW17543   7.064   2.423   1.347
 5237SOL    HW117544   7.092   2.353   1.288
 5237SOL    HW217545   7.123   2.417   1.422
 5238SOL     OW17546  12.019  11.848   8.214
 5238SOL    HW117547  12.112  11.870   8.216
 5238SOL    HW217548  11.974  11.932   8.218
 5239SOL     OW17549  12.959  13.276   7.482
 5239SOL    HW117550  12.945  13.234   7.567
 5239SOL    HW217551  13.029  13.225   7.442
 5240SOL     OW17552   2.938   0.750   8.571
 5240SOL    HW117553   2.906   0.794   8.493
 5240SOL    HW217554   3.027   0.724   8.550
 5241SOL     OW17555   7.121  14.711  14.327
 5241SOL    HW117556   7.202  14.720  14.276
 5241SOL    HW217557   7.091  14.622  14.308
 5242SOL     OW17558   2.924   6.284   3.738
 5242SOL    HW117559   2.956   6.223   3.672
 5242SOL    HW217560   2.922   6.234   3.819
 5243SOL     OW17561   2.140  14.160   6.278
 5243SOL    HW117562   2.181  14.097   6.218
 5243SOL    HW217563   2.058  14.119   6.303
 5244SOL     OW17564   2.082   7.555   1.593
 5244SOL    HW117565   2.141   7.564   1.518
 5244SOL    HW217566   2.115   7.480   1.642
 5245SOL     OW17567   9.697   4.106   4.830
 5245SOL    HW117568   9.723   4.198   4.835
 5245SOL    HW217569   9.619   4.100   4.885
 5246SOL     OW17570   7.282  13.989  14.352
 5246SOL    HW117571   7.356  13.955  14.301
 5246SOL    HW217572   7.227  13.913  14.369
 5247SOL     OW17573  10.687  13.224   1.357
 5247SOL    HW117574  10.678  13.136   1.393
 5247SOL    HW217575  10.646  13.219   1.271
 5248SOL     OW17576  11.979   4.511  11.459
 5248SOL    HW117577  11.892   4.535  11.428
 5248SOL    HW217578  11.971   4.510  11.554
 5249SOL     OW17579  12.892  14.682   5.019
 5249SOL    HW117580  12.866  14.758   5.070
 5249SOL    HW217581  12.899  14.714   4.929
 5250SOL     OW17582   9.030   7.120  11.613
 5250SOL    HW117583   8.971   7.177  11.662
 5250SOL    HW217584   8.998   7.032  11.630
 5251SOL     OW17585  14.324   7.234   8.609
 5251SOL    HW117586  14.236   7.252   8.577
 5251SOL    HW217587  14.310   7.195   8.695
 5252SOL     OW17588   6.582   0.501   4.796
 5252SOL    HW117589   6.555   0.546   4.876
 5252SOL    HW217590   6.505   0.452   4.769
 5253SOL     OW17591   7.644   0.179  13.561
 5253SOL    HW117592   7.611   0.106  13.507
 5253SOL    HW217593   7.724   0.207  13.517
 5254SOL     OW17594  12.634   1.304   6.127
 5254SOL    HW117595  12.610   1.367   6.195
 5254SOL    HW217596  12.607   1.346   6.045
 5255SOL     OW17597   4.474  13.563  13.582
 5255SOL    HW117598   4.432  13.643  13.551
 5255SOL    HW217599   4.568  13.582  13.577
 5256SOL     OW17600   2.608   5.838  14.720
 5256SOL    HW117601   2.573   5.927  14.724
 5256SOL    HW217602   2.679   5.836  14.784
 5257SOL     OW17603  11.996  12.115   7.381
 5257SOL    HW117604  12.013  12.187   7.321
 5257SOL    HW217605  11.981  12.157   7.466
 5258SOL     OW17606  12.974  13.338   1.688
 5258SOL    HW117607  12.938  13.371   1.770
 5258SOL    HW217608  13.065  13.369   1.688
 5259SOL     OW17609   8.661  10.691   1.158
 5259SOL    HW117610   8.648  10.606   1.199
 5259SOL    HW217611   8.683  10.750   1.230
 5260SOL     OW17612   9.242   1.312   3.852
 5260SOL    HW117613   9.289   1.307   3.936
 5260SOL    HW217614   9.223   1.220   3.830
 5261SOL     OW17615   1.492   4.209   0.748
 5261SOL    HW117616   1.495   4.131   0.804
 5261SOL    HW217617   1.484   4.282   0.809
 5262SOL     OW17618  11.091  13.756  10.403
 5262SOL    HW117619  11.171  13.770  10.454
 5262SOL    HW217620  11.121  13.714  10.322
 5263SOL     OW17621   3.845   0.655  11.305
 5263SOL    HW117622   3.886   0.725  11.355
 5263SOL    HW217623   3.862   0.576  11.356
 5264SOL     OW17624   0.394  12.133   4.299
 5264SOL    HW117625   0.310  12.105   4.337
 5264SOL    HW217626   0.448  12.054   4.301
 5265SOL     OW17627   1.629   9.398  11.605
 5265SOL    HW117628   1.710   9.441  11.630
 5265SOL    HW217629   1.634   9.391  11.509
 5266SOL     OW17630   0.571  13.430   5.995
 5266SOL    HW117631   0.620  13.490   5.939
 5266SOL    HW217632   0.483  13.466   5.998
 5267SOL     OW17633   1.299   2.443  14.661
 5267SOL    HW117634   1.343   2.525  14.684
 5267SOL    HW217635   1.369   2.386  14.628
 5268SOL     OW17636   5.443  11.422   7.010
 5268SOL    HW117637   5.462  11.355   7.075
 5268SOL    HW217638   5.527  11.465   6.994
 5269SOL     OW17639   9.572   4.605   6.754
 5269SOL    HW117640   9.495   4.576   6.705
 5269SOL    HW217641   9.570   4.701   6.746
 5270SOL     OW17642  14.688   6.098   5.186
 5270SOL    HW117643  14.672   6.093   5.280
 5270SOL    HW217644  14.746   6.023   5.168
 5271SOL     OW17645   7.134   3.920   0.552
 5271SOL    HW117646   7.161   4.012   0.552
 5271SOL    HW217647   7.127   3.897   0.645
 5272SOL     OW17648   2.873   7.886   9.101
 5272SOL    HW117649   2.877   7.936   9.019
 5272SOL    HW217650   2.900   7.798   9.077
 5273SOL     OW17651   8.409   8.602   3.631
 5273SOL    HW117652   8.482   8.664   3.632
 5273SOL    HW217653   8.367   8.617   3.546
 5274SOL     OW17654   3.396   3.099   5.511
 5274SOL    HW117655   3.407   3.159   5.584
 5274SOL    HW217656   3.437   3.143   5.437
 5275SOL     OW17657  14.870   3.251   2.950
 5275SOL    HW117658   0.049   3.171   2.957
 5275SOL    HW217659   0.035   3.298   2.876
 5276SOL     OW17660   6.649   6.986   5.237
 5276SOL    HW117661   6.738   7.020   5.242
 5276SOL    HW217662   6.626   6.964   5.328
 5277SOL     OW17663  10.833   1.301   7.358
 5277SOL    HW117664  10.839   1.211   7.392
 5277SOL    HW217665  10.803   1.352   7.433
 5278SOL     OW17666  11.862   9.129   1.682
 5278SOL    HW117667  11.781   9.087   1.708
 5278SOL    HW217668  11.927   9.099   1.746
 5279SOL     OW17669  10.670   4.782   5.811
 5279SOL    HW117670  10.618   4.845   5.761
 5279SOL    HW217671  10.757   4.822   5.817
 5280SOL     OW17672   7.820  13.857   8.561
 5280SOL    HW117673   7.757  13.818   8.500
 5280SOL    HW217674   7.900  13.807   8.546
 5281SOL     OW17675   7.424  14.608  10.838
 5281SOL    HW117676   7.396  14.648  10.921
 5281SOL    HW217677   7.364  14.642  10.773
 5282SOL     OW17678   7.538   4.117   3.932
 5282SOL    HW117679   7.633   4.108   3.944
 5282SOL    HW217680   7.512   4.182   3.997
 5283SOL     OW17681   2.826   8.178  12.302
 5283SOL    HW117682   2.891   8.108  12.303
 5283SOL    HW217683   2.876   8.257  12.322
 5284SOL     OW17684   4.281   8.215  10.988
 5284SOL    HW117685   4.347   8.247  10.926
 5284SOL    HW217686   4.245   8.294  11.028
 5285SOL     OW17687   9.594   3.216   1.576
 5285SOL    HW117688   9.625   3.182   1.492
 5285SOL    HW217689   9.527   3.154   1.604
 5286SOL     OW17690   8.802  10.425   1.425
 5286SOL    HW117691   8.890  10.445   1.393
 5286SOL    HW217692   8.789  10.485   1.498
 5287SOL     OW17693  13.924   2.560  12.013
 5287SOL    HW117694  14.005   2.508  12.005
 5287SOL    HW217695  13.872   2.533  11.937
 5288SOL     OW17696   9.983   1.643   9.499
 5288SOL    HW117697   9.915   1.695   9.542
 5288SOL    HW217698  10.031   1.706   9.446
 5289SOL     OW17699  10.551   1.080  13.872
 5289SOL    HW117700  10.579   1.097  13.962
 5289SOL    HW217701  10.506   1.161  13.846
 5290SOL     OW17702   3.178   3.394   1.120
 5290SOL    HW117703   3.150   3.486   1.128
 5290SOL    HW217704   3.195   3.367   1.210
 5291SOL     OW17705   6.633   9.733   4.179
 5291SOL    HW117706   6.541   9.760   4.190
 5291SOL    HW217707   6.662   9.711   4.268
 5292SOL     OW17708   9.872   4.441   8.705
 5292SOL    HW117709   9.800   4.505   8.715
 5292SOL    HW217710   9.885   4.434   8.611
 5293SOL     OW17711   9.989   6.786   3.796
 5293SOL    HW117712  10.017   6.842   3.723
 5293SOL    HW217713   9.893   6.788   3.792
 5294SOL     OW17714   9.474   4.275  12.502
 5294SOL    HW117715   9.503   4.283  12.593
 5294SOL    HW217716   9.448   4.184  12.493
 5295SOL     OW17717   9.578  13.512   8.152
 5295SOL    HW117718   9.532  13.447   8.204
 5295SOL    HW217719   9.547  13.498   8.062
 5296SOL     OW17720   4.889  12.048  12.637
 5296SOL    HW117721   4.822  12.103  12.676
 5296SOL    HW217722   4.845  12.004  12.564
 5297SOL     OW17723   5.181   8.008   3.062
 5297SOL    HW117724   5.264   8.031   3.105
 5297SOL    HW217725   5.204   7.994   2.971
 5298SOL     OW17726   2.242   5.854   6.571
 5298SOL    HW117727   2.250   5.843   6.477
 5298SOL    HW217728   2.151   5.878   6.585
 5299SOL     OW17729   6.198  12.406  11.193
 5299SOL    HW117730   6.152  12.482  11.229
 5299SOL    HW217731   6.131  12.338  11.187
 5300SOL     OW17732   4.814   8.996  13.518
 5300SOL    HW117733   4.805   9.054  13.441
 5300SOL    HW217734   4.724   8.980  13.546
 5301SOL     OW17735  12.298   2.350   5.522
 5301SOL    HW117736  12.332   2.439   5.530
 5301SOL    HW217737  12.205   2.361   5.501
 5302SOL     OW17738   3.961   7.910   2.703
 5302SOL    HW117739   3.892   7.872   2.757
 5302SOL    HW217740   4.042   7.885   2.748
 5303SOL     OW17741  14.217   0.687  14.012
 5303SOL    HW117742  14.233   0.726  14.098
 5303SOL    HW217743  14.290   0.626  14.000
 5304SOL     OW17744   0.587   2.186  14.553
 5304SOL    HW117745   0.606   2.251  14.620
 5304SOL    HW217746   0.547   2.236  14.482
 5305SOL     OW17747   6.021  14.102   3.576
 5305SOL    HW117748   6.043  14.179   3.524
 5305SOL    HW217749   6.047  14.028   3.522
 5306SOL     OW17750   2.972   4.448   7.484
 5306SOL    HW117751   2.966   4.461   7.579
 5306SOL    HW217752   2.976   4.537   7.448
 5307SOL     OW17753   5.709  12.399   6.429
 5307SOL    HW117754   5.622  12.438   6.432
 5307SOL    HW217755   5.693  12.304   6.426
 5308SOL     OW17756   0.380   2.282   9.656
 5308SOL    HW117757   0.388   2.338   9.579
 5308SOL    HW217758   0.468   2.246   9.668
 5309SOL     OW17759  14.403   7.546   3.984
 5309SOL    HW117760  14.347   7.597   3.926
 5309SOL    HW217761  14.487   7.542   3.938
 5310SOL     OW17762   4.303   1.430   1.274
 5310SOL    HW117763   4.237   1.474   1.327
 5310SOL    HW217764   4.386   1.464   1.306
 5311SOL     OW17765  10.571  12.917  12.101
 5311SOL    HW117766  10.657  12.928  12.141
 5311SOL    HW217767  10.521  12.995  12.127
 5312SOL     OW17768   5.506   7.421   2.264
 5312SOL    HW117769   5.551   7.417   2.349
 5312SOL    HW217770   5.527   7.508   2.230
 5313SOL     OW17771   7.670   0.154   6.505
 5313SOL    HW117772   7.696   0.069   6.541
 5313SOL    HW217773   7.594   0.180   6.557
 5314SOL     OW17774   7.954   3.500   8.630
 5314SOL    HW117775   7.972   3.536   8.542
 5314SOL    HW217776   7.896   3.565   8.670
 5315SOL     OW17777   0.628   0.524   8.686
 5315SOL    HW117778   0.547   0.495   8.729
 5315SOL    HW217779   0.616   0.500   8.594
 5316SOL     OW17780   6.152   7.489  13.136
 5316SOL    HW117781   6.088   7.514  13.203
 5316SOL    HW217782   6.141   7.394  13.129
 5317SOL     OW17783   7.926  11.532   7.478
 5317SOL    HW117784   7.912  11.472   7.405
 5317SOL    HW217785   7.870  11.498   7.548
 5318SOL     OW17786   5.162   4.360   2.462
 5318SOL    HW117787   5.141   4.332   2.551
 5318SOL    HW217788   5.138   4.287   2.406
 5319SOL     OW17789  10.607   6.988   3.736
 5319SOL    HW117790  10.663   6.945   3.672
 5319SOL    HW217791  10.544   7.038   3.683
 5320SOL     OW17792   4.970  10.443  14.658
 5320SOL    HW117793   4.981  10.427  14.564
 5320SOL    HW217794   5.056  10.470  14.688
 5321SOL     OW17795   4.288   1.352   3.884
 5321SOL    HW117796   4.290   1.272   3.832
 5321SOL    HW217797   4.222   1.407   3.841
 5322SOL     OW17798   8.213  13.055   2.436
 5322SOL    HW117799   8.182  13.110   2.507
 5322SOL    HW217800   8.307  13.047   2.451
 5323SOL     OW17801   9.512   6.380   8.475
 5323SOL    HW117802   9.548   6.433   8.546
 5323SOL    HW217803   9.459   6.441   8.424
 5324SOL     OW17804   3.758   8.688   4.881
 5324SOL    HW117805   3.702   8.610   4.877
 5324SOL    HW217806   3.748   8.720   4.970
 5325SOL     OW17807  12.816   7.794  11.441
 5325SOL    HW117808  12.755   7.726  11.469
 5325SOL    HW217809  12.895   7.747  11.414
 5326SOL     OW17810  13.615   7.632   3.133
 5326SOL    HW117811  13.680   7.613   3.201
 5326SOL    HW217812  13.544   7.570   3.151
 5327SOL     OW17813   9.792  14.215  11.942
 5327SOL    HW117814   9.871  14.171  11.972
 5327SOL    HW217815   9.803  14.223  11.847
 5328SOL     OW17816   7.848  11.566  11.579
 5328SOL    HW117817   7.878  11.580  11.669
 5328SOL    HW217818   7.765  11.613  11.574
 5329SOL     OW17819   3.464  13.009   5.090
 5329SOL    HW117820   3.415  13.052   5.021
 5329SOL    HW217821   3.415  13.029   5.170
 5330SOL     OW17822  11.792  11.803   6.035
 5330SOL    HW117823  11.742  11.724   6.055
 5330SOL    HW217824  11.777  11.861   6.109
 5331SOL     OW17825   1.136   9.794   9.547
 5331SOL    HW117826   1.178   9.722   9.500
 5331SOL    HW217827   1.179   9.795   9.632
 5332SOL     OW17828   5.042  12.707   6.972
 5332SOL    HW117829   4.990  12.728   7.049
 5332SOL    HW217830   4.981  12.716   6.898
 5333SOL     OW17831  12.185   0.334   1.574
 5333SOL    HW117832  12.187   0.277   1.497
 5333SOL    HW217833  12.277   0.351   1.595
 5334SOL     OW17834   9.011   1.410   5.475
 5334SOL    HW117835   8.943   1.448   5.530
 5334SOL    HW217836   8.974   1.407   5.387
 5335SOL     OW17837   0.224   1.897  13.302
 5335SOL    HW117838   0.229   1.820  13.246
 5335SOL    HW217839   0.229   1.971  13.241
 5336SOL     OW17840  12.956  12.384   2.374
 5336SOL    HW117841  13.013  12.403   2.299
 5336SOL    HW217842  12.893  12.321   2.341
 5337SOL     OW17843   1.946   8.636   6.051
 5337SOL    HW117844   1.965   8.694   6.125
 5337SOL    HW217845   1.939   8.694   5.976
 5338SOL     OW17846   8.964  13.881  11.115
 5338SOL    HW117847   9.054  13.904  11.091
 5338SOL    HW217848   8.966  13.786  11.128
 5339SOL     OW17849   0.190   0.836   4.030
 5339SOL    HW117850   0.225   0.765   3.976
 5339SOL    HW217851   0.172   0.906   3.968
 5340SOL     OW17852   0.944  14.558   8.976
 5340SOL    HW117853   0.951  14.652   8.961
 5340SOL    HW217854   0.944  14.519   8.889
 5341SOL     OW17855  12.179  12.366   6.507
 5341SOL    HW117856  12.240  12.304   6.467
 5341SOL    HW217857  12.156  12.326   6.591
 5342SOL     OW17858   9.752   8.238  11.387
 5342SOL    HW117859   9.771   8.152  11.348
 5342SOL    HW217860   9.707   8.286  11.318
 5343SOL     OW17861  14.513   5.500  13.113
 5343SOL    HW117862  14.568   5.572  13.081
 5343SOL    HW217863  14.433   5.505  13.060
 5344SOL     OW17864   4.419  14.195   5.325
 5344SOL    HW117865   4.512  14.185   5.347
 5344SOL    HW217866   4.398  14.285   5.351
 5345SOL     OW17867   0.058  10.681   5.891
 5345SOL    HW117868   0.013  10.753   5.936
 5345SOL    HW217869   0.124  10.652   5.954
 5346SOL     OW17870   7.408   1.809   2.280
 5346SOL    HW117871   7.357   1.837   2.204
 5346SOL    HW217872   7.354   1.832   2.355
 5347SOL     OW17873  10.753   2.745   0.328
 5347SOL    HW117874  10.839   2.732   0.288
 5347SOL    HW217875  10.771   2.787   0.412
 5348SOL     OW17876   4.665   1.981   4.373
 5348SOL    HW117877   4.743   1.988   4.427
 5348SOL    HW217878   4.633   1.892   4.388
 5349SOL     OW17879   4.899   0.725   5.506
 5349SOL    HW117880   4.984   0.718   5.549
 5349SOL    HW217881   4.920   0.746   5.414
 5350SOL     OW17882   7.107  14.184   9.113
 5350SOL    HW117883   7.115  14.093   9.087
 5350SOL    HW217884   7.012  14.197   9.124
 5351SOL     OW17885   1.528   2.985  13.382
 5351SOL    HW117886   1.602   2.988  13.321
 5351SOL    HW217887   1.544   3.057  13.443
 5352SOL     OW17888   5.950   0.109  14.272
 5352SOL    HW117889   6.034   0.128  14.230
 5352SOL    HW217890   5.952   0.159  14.354
 5353SOL     OW17891   0.071  10.215   5.120
 5353SOL    HW117892   0.095  10.192   5.031
 5353SOL    HW217893   0.015  10.293   5.111
 5354SOL     OW17894   8.070  11.779   0.063
 5354SOL    HW117895   8.014  11.784  14.859
 5354SOL    HW217896   8.111  11.693   0.057
 5355SOL     OW17897  12.831  11.353   5.163
 5355SOL    HW117898  12.737  11.352   5.183
 5355SOL    HW217899  12.834  11.349   5.067
 5356SOL     OW17900   9.099   8.326   7.824
 5356SOL    HW117901   9.156   8.387   7.777
 5356SOL    HW217902   9.121   8.240   7.788
 5357SOL     OW17903   4.809   2.358   8.509
 5357SOL    HW117904   4.789   2.388   8.421
 5357SOL    HW217905   4.792   2.264   8.507
 5358SOL     OW17906   2.442   9.940   8.721
 5358SOL    HW117907   2.399   9.937   8.636
 5358SOL    HW217908   2.379   9.901   8.782
 5359SOL     OW17909   3.699   1.986   0.860
 5359SOL    HW117910   3.736   1.922   0.921
 5359SOL    HW217911   3.774   2.027   0.818
 5360SOL     OW17912   9.206   9.118   5.363
 5360SOL    HW117913   9.268   9.046   5.360
 5360SOL    HW217914   9.144   9.100   5.292
 5361SOL     OW17915   1.308  10.803   4.830
 5361SOL    HW117916   1.320  10.711   4.855
 5361SOL    HW217917   1.224  10.805   4.784
 5362SOL     OW17918   7.732   4.717   1.300
 5362SOL    HW117919   7.760   4.759   1.381
 5362SOL    HW217920   7.813   4.685   1.260
 5363SOL     OW17921   7.056   7.531  12.817
 5363SOL    HW117922   7.120   7.460  12.816
 5363SOL    HW217923   6.991   7.507  12.750
 5364SOL     OW17924   5.596   2.630   2.587
 5364SOL    HW117925   5.525   2.664   2.532
 5364SOL    HW217926   5.651   2.706   2.605
 5365SOL     OW17927   2.035   8.131  11.753
 5365SOL    HW117928   1.987   8.118  11.835
 5365SOL    HW217929   2.012   8.055  11.700
 5366SOL     OW17930  10.472   2.219  14.801
 5366SOL    HW117931  10.484   2.267   0.010
 5366SOL    HW217932  10.452   2.286  14.736
 5367SOL     OW17933   4.787   3.427   2.822
 5367SOL    HW117934   4.790   3.488   2.748
 5367SOL    HW217935   4.850   3.359   2.800
 5368SOL     OW17936  10.800  11.010  13.112
 5368SOL    HW117937  10.809  10.927  13.065
 5368SOL    HW217938  10.707  11.033  13.101
 5369SOL     OW17939  14.706   5.698  12.680
 5369SOL    HW117940  14.773   5.660  12.623
 5369SOL    HW217941  14.748   5.776  12.717
 5370SOL     OW17942   2.791  12.809   4.695
 5370SOL    HW117943   2.721  12.847   4.748
 5370SOL    HW217944   2.871  12.850   4.727
 5371SOL     OW17945  10.064   5.626   3.418
 5371SOL    HW117946  10.132   5.687   3.390
 5371SOL    HW217947  10.093   5.541   3.386
 5372SOL     OW17948  11.900  11.828  12.880
 5372SOL    HW117949  11.845  11.906  12.886
 5372SOL    HW217950  11.961  11.835  12.954
 5373SOL     OW17951   2.682   1.678   0.475
 5373SOL    HW117952   2.615   1.688   0.407
 5373SOL    HW217953   2.691   1.766   0.512
 5374SOL     OW17954   5.312   3.638   2.421
 5374SOL    HW117955   5.350   3.623   2.508
 5374SOL    HW217956   5.380   3.607   2.360
 5375SOL     OW17957   0.326   5.642   2.637
 5375SOL    HW117958   0.418   5.619   2.651
 5375SOL    HW217959   0.328   5.708   2.567
 5376SOL     OW17960   7.467  11.307   9.551
 5376SOL    HW117961   7.511  11.348   9.477
 5376SOL    HW217962   7.382  11.279   9.515
 5377SOL     OW17963  13.907   5.707   5.320
 5377SOL    HW117964  13.895   5.697   5.414
 5377SOL    HW217965  13.962   5.784   5.310
 5378SOL     OW17966   6.527   3.905   3.050
 5378SOL    HW117967   6.481   3.959   2.986
 5378SOL    HW217968   6.572   3.968   3.106
 5379SOL     OW17969   9.771   1.511   4.772
 5379SOL    HW117970   9.691   1.492   4.821
 5379SOL    HW217971   9.796   1.599   4.800
 5380SOL     OW17972   3.974   5.327   0.693
 5380SOL    HW117973   3.885   5.362   0.698
 5380SOL    HW217974   4.008   5.336   0.782
 5381SOL     OW17975  13.923   9.458   4.064
 5381SOL    HW117976  13.840   9.446   4.110
 5381SOL    HW217977  13.897   9.476   3.973
 5382SOL     OW17978  10.379   1.761   3.271
 5382SOL    HW117979  10.434   1.695   3.229
 5382SOL    HW217980  10.338   1.715   3.344
 5383SOL     OW17981  12.706   7.892   7.010
 5383SOL    HW117982  12.734   7.882   6.919
 5383SOL    HW217983  12.775   7.945   7.050
 5384SOL     OW17984   8.922  10.885  13.432
 5384SOL    HW117985   9.018  10.888  13.436
 5384SOL    HW217986   8.893  10.928  13.512
 5385SOL     OW17987   0.588   5.056   5.877
 5385SOL    HW117988   0.673   5.068   5.919
 5385SOL    HW217989   0.600   5.091   5.788
 5386SOL     OW17990  13.909   1.350  13.797
 5386SOL    HW117991  13.841   1.398  13.751
 5386SOL    HW217992  13.928   1.404  13.874
 5387SOL     OW17993   5.944  12.373  14.044
 5387SOL    HW117994   5.993  12.431  14.103
 5387SOL    HW217995   5.921  12.429  13.970
 5388SOL     OW17996  12.879   9.643   2.902
 5388SOL    HW117997  12.829   9.682   2.973
 5388SOL    HW217998  12.942   9.585   2.945
 5389SOL     OW17999  10.290   7.761  10.887
 5389SOL    HW118000  10.201   7.725  10.882
 5389SOL    HW218001  10.300   7.809  10.805
 5390SOL     OW18002  11.736  11.228   9.327
 5390SOL    HW118003  11.782  11.197   9.248
 5390SOL    HW218004  11.690  11.307   9.299
 5391SOL     OW18005   3.213  10.611  12.796
 5391SOL    HW118006   3.218  10.690  12.850
 5391SOL    HW218007   3.219  10.643  12.706
 5392SOL     OW18008   6.628   2.346  11.137
 5392SOL    HW118009   6.598   2.365  11.225
 5392SOL    HW218010   6.547   2.340  11.085
 5393SOL     OW18011  12.870   4.058   2.787
 5393SOL    HW118012  12.942   4.006   2.752
 5393SOL    HW218013  12.902   4.148   2.785
 5394SOL     OW18014   8.264   8.249  14.011
 5394SOL    HW118015   8.279   8.343  14.003
 5394SOL    HW218016   8.286   8.214  13.925
 5395SOL     OW18017   6.036  14.395   7.845
 5395SOL    HW118018   6.092  14.403   7.922
 5395SOL    HW218019   5.990  14.312   7.858
 5396SOL     OW18020   0.772  11.889  14.733
 5396SOL    HW118021   0.760  11.967  14.679
 5396SOL    HW218022   0.866  11.886  14.750
 5397SOL     OW18023   4.876   1.829   4.702
 5397SOL    HW118024   4.957   1.824   4.650
 5397SOL    HW218025   4.815   1.773   4.655
 5398SOL     OW18026   9.890   9.560   2.293
 5398SOL    HW118027   9.877   9.654   2.278
 5398SOL    HW218028   9.913   9.525   2.207
 5399SOL     OW18029   8.083   2.722  13.289
 5399SOL    HW118030   8.129   2.673  13.221
 5399SOL    HW218031   8.016   2.662  13.322
 5400SOL     OW18032  10.737   8.206   0.481
 5400SOL    HW118033  10.831   8.190   0.479
 5400SOL    HW218034  10.721   8.260   0.403
 5401SOL     OW18035   7.150   9.806  10.987
 5401SOL    HW118036   7.091   9.785  11.059
 5401SOL    HW218037   7.130   9.897  10.965
 5402SOL     OW18038   1.551   7.547   1.596
 5402SOL    HW118039   1.642   7.563   1.619
 5402SOL    HW218040   1.545   7.568   1.502
 5403SOL     OW18041   2.129  14.079  13.366
 5403SOL    HW118042   2.071  14.116  13.432
 5403SOL    HW218043   2.075  14.017  13.317
 5404SOL     OW18044   1.117   1.002   7.505
 5404SOL    HW118045   1.143   0.933   7.566
 5404SOL    HW218046   1.056   1.057   7.554
 5405SOL     OW18047  12.468  13.201  13.321
 5405SOL    HW118048  12.499  13.198  13.411
 5405SOL    HW218049  12.524  13.139  13.274
 5406SOL     OW18050   6.898   2.607   2.979
 5406SOL    HW118051   6.984   2.635   3.012
 5406SOL    HW218052   6.838   2.623   3.051
 5407SOL     OW18053   2.437  13.327   4.928
 5407SOL    HW118054   2.373  13.300   4.862
 5407SOL    HW218055   2.391  13.391   4.983
 5408SOL     OW18056   1.410   8.244   8.742
 5408SOL    HW118057   1.482   8.252   8.679
 5408SOL    HW218058   1.337   8.288   8.701
 5409SOL     OW18059   6.068  10.675   4.865
 5409SOL    HW118060   6.072  10.717   4.780
 5409SOL    HW218061   6.149  10.701   4.909
 5410SOL     OW18062  10.430   4.863  10.160
 5410SOL    HW118063  10.443   4.835  10.251
 5410SOL    HW218064  10.372   4.797  10.122
 5411SOL     OW18065  14.738   0.500   6.151
 5411SOL    HW118066  14.712   0.425   6.099
 5411SOL    HW218067  14.767   0.565   6.087
 5412SOL     OW18068   7.408   0.599  12.027
 5412SOL    HW118069   7.427   0.625  12.118
 5412SOL    HW218070   7.462   0.521  12.013
 5413SOL     OW18071   3.482  13.503  11.014
 5413SOL    HW118072   3.413  13.562  11.044
 5413SOL    HW218073   3.456  13.479  10.925
 5414SOL     OW18074   1.241   5.961   6.271
 5414SOL    HW118075   1.246   6.033   6.209
 5414SOL    HW218076   1.222   5.884   6.217
 5415SOL     OW18077   8.684  11.678  11.235
 5415SOL    HW118078   8.744  11.644  11.301
 5415SOL    HW218079   8.617  11.610  11.225
 5416SOL     OW18080   1.305   1.095   9.772
 5416SOL    HW118081   1.382   1.094   9.714
 5416SOL    HW218082   1.312   1.177   9.820
 5417SOL     OW18083   8.569   5.793  14.587
 5417SOL    HW118084   8.646   5.818  14.639
 5417SOL    HW218085   8.507   5.864  14.600
 5418SOL     OW18086  13.803   1.569  14.364
 5418SOL    HW118087  13.730   1.622  14.396
 5418SOL    HW218088  13.791   1.567  14.269
 5419SOL     OW18089   7.895   6.532  10.905
 5419SOL    HW118090   7.869   6.446  10.939
 5419SOL    HW218091   7.817   6.587  10.914
 5420SOL     OW18092   7.987  10.423   2.346
 5420SOL    HW118093   7.904  10.452   2.308
 5420SOL    HW218094   7.978  10.328   2.354
 5421SOL     OW18095  11.601  13.290  13.161
 5421SOL    HW118096  11.532  13.340  13.205
 5421SOL    HW218097  11.658  13.356  13.122
 5422SOL     OW18098   0.425   5.264   8.981
 5422SOL    HW118099   0.350   5.208   9.001
 5422SOL    HW218100   0.407   5.346   9.027
 5423SOL     OW18101  10.595   6.884   4.046
 5423SOL    HW118102  10.686   6.882   4.074
 5423SOL    HW218103  10.599   6.919   3.957
 5424SOL     OW18104   4.619   7.472   2.257
 5424SOL    HW118105   4.610   7.443   2.166
 5424SOL    HW218106   4.532   7.463   2.294
 5425SOL     OW18107   9.863  11.672   1.651
 5425SOL    HW118108   9.777  11.643   1.680
 5425SOL    HW218109   9.858  11.768   1.654
 5426SOL     OW18110   5.418  10.065   2.573
 5426SOL    HW118111   5.329  10.038   2.550
 5426SOL    HW218112   5.469   9.984   2.571
 5427SOL     OW18113   2.090   2.968  12.437
 5427SOL    HW118114   2.117   2.905  12.370
 5427SOL    HW218115   2.100   2.921  12.519
 5428SOL     OW18116  14.493   5.548  14.627
 5428SOL    HW118117  14.537   5.500  14.698
 5428SOL    HW218118  14.478   5.482  14.560
 5429SOL     OW18119  12.092   5.784   2.361
 5429SOL    HW118120  12.138   5.754   2.440
 5429SOL    HW218121  12.000   5.771   2.382
 5430SOL     OW18122   2.661   3.411   1.319
 5430SOL    HW118123   2.724   3.365   1.375
 5430SOL    HW218124   2.639   3.490   1.368
 5431SOL     OW18125  10.213   6.633  10.525
 5431SOL    HW118126  10.271   6.559  10.544
 5431SOL    HW218127  10.142   6.625  10.590
 5432SOL     OW18128   4.394  13.992  11.543
 5432SOL    HW118129   4.310  14.037  11.542
 5432SOL    HW218130   4.381  13.916  11.485
 5433SOL     OW18131   1.991   6.650   9.754
 5433SOL    HW118132   1.943   6.679   9.831
 5433SOL    HW218133   1.987   6.554   9.759
 5434SOL     OW18134   9.089  12.795   6.428
 5434SOL    HW118135   9.150  12.780   6.500
 5434SOL    HW218136   9.132  12.756   6.352
 5435SOL     OW18137   7.265   3.880   4.762
 5435SOL    HW118138   7.175   3.848   4.762
 5435SOL    HW218139   7.258   3.969   4.797
 5436SOL     OW18140  12.009   9.652  11.742
 5436SOL    HW118141  12.075   9.583  11.747
 5436SOL    HW218142  11.970   9.643  11.655
 5437SOL     OW18143   2.636  10.458   0.809
 5437SOL    HW118144   2.657  10.502   0.892
 5437SOL    HW218145   2.622  10.529   0.747
 5438SOL     OW18146  14.266   9.513  10.084
 5438SOL    HW118147  14.287   9.550   9.998
 5438SOL    HW218148  14.245   9.421  10.066
 5439SOL     OW18149  10.757   7.907  14.212
 5439SOL    HW118150  10.740   7.862  14.295
 5439SOL    HW218151  10.852   7.904  14.202
 5440SOL     OW18152   2.892   0.424   8.906
 5440SOL    HW118153   2.929   0.509   8.884
 5440SOL    HW218154   2.822   0.412   8.841
 5441SOL     OW18155  10.264   2.602   8.470
 5441SOL    HW118156  10.318   2.635   8.542
 5441SOL    HW218157  10.175   2.627   8.493
 5442SOL     OW18158  11.062   2.380   1.823
 5442SOL    HW118159  11.079   2.291   1.790
 5442SOL    HW218160  11.148   2.416   1.840
 5443SOL     OW18161   5.660   4.318  12.183
 5443SOL    HW118162   5.641   4.357  12.268
 5443SOL    HW218163   5.647   4.389  12.120
 5444SOL     OW18164   1.700  11.513   7.406
 5444SOL    HW118165   1.704  11.424   7.441
 5444SOL    HW218166   1.608  11.537   7.410
 5445SOL     OW18167   6.273   0.537   4.592
 5445SOL    HW118168   6.234   0.536   4.504
 5445SOL    HW218169   6.256   0.625   4.625
 5446SOL     OW18170   5.429   7.705   3.357
 5446SOL    HW118171   5.501   7.651   3.325
 5446SOL    HW218172   5.447   7.716   3.450
 5447SOL     OW18173   3.867   8.403  12.165
 5447SOL    HW118174   3.939   8.340  12.155
 5447SOL    HW218175   3.803   8.378  12.099
 5448SOL     OW18176   3.380   2.997  13.594
 5448SOL    HW118177   3.385   2.924  13.532
 5448SOL    HW218178   3.470   3.028  13.602
 5449SOL     OW18179  12.616   2.534  11.569
 5449SOL    HW118180  12.600   2.558  11.660
 5449SOL    HW218181  12.707   2.556  11.554
 5450SOL     OW18182   6.847  10.793   7.752
 5450SOL    HW118183   6.818  10.871   7.706
 5450SOL    HW218184   6.936  10.814   7.782
 5451SOL     OW18185   8.459   3.108  14.503
 5451SOL    HW118186   8.377   3.091  14.548
 5451SOL    HW218187   8.470   3.203  14.508
 5452SOL     OW18188   7.916   1.878   8.583
 5452SOL    HW118189   7.965   1.940   8.638
 5452SOL    HW218190   7.981   1.816   8.552
 5453SOL     OW18191   9.830   2.709   7.084
 5453SOL    HW118192   9.904   2.682   7.030
 5453SOL    HW218193   9.859   2.697   7.174
 5454SOL     OW18194   3.718   8.715   4.343
 5454SOL    HW118195   3.759   8.782   4.397
 5454SOL    HW218196   3.659   8.763   4.285
 5455SOL     OW18197  10.582   8.351  14.600
 5455SOL    HW118198  10.670   8.380  14.626
 5455SOL    HW218199  10.523   8.400  14.658
 5456SOL     OW18200   6.360   9.823   8.804
 5456SOL    HW118201   6.432   9.831   8.867
 5456SOL    HW218202   6.329   9.733   8.814
 5457SOL     OW18203   7.801  11.361   0.869
 5457SOL    HW118204   7.816  11.456   0.865
 5457SOL    HW218205   7.717  11.352   0.914
 5458SOL     OW18206   2.677   1.429  12.515
 5458SOL    HW118207   2.684   1.435  12.610
 5458SOL    HW218208   2.632   1.510  12.489
 5459SOL     OW18209   9.713   9.038   4.102
 5459SOL    HW118210   9.686   9.063   4.013
 5459SOL    HW218211   9.650   9.081   4.159
 5460SOL     OW18212   9.167   2.891   4.793
 5460SOL    HW118213   9.138   2.808   4.755
 5460SOL    HW218214   9.090   2.949   4.786
 5461SOL     OW18215   8.873   2.353   9.818
 5461SOL    HW118216   8.875   2.259   9.798
 5461SOL    HW218217   8.877   2.357   9.914
 5462SOL     OW18218   8.919  12.957  10.670
 5462SOL    HW118219   8.922  12.898  10.746
 5462SOL    HW218220   8.961  13.037  10.700
 5463SOL     OW18221  12.411   8.122  14.378
 5463SOL    HW118222  12.337   8.061  14.377
 5463SOL    HW218223  12.413   8.159  14.290
 5464SOL     OW18224  11.121   6.015   9.347
 5464SOL    HW118225  11.034   5.976   9.352
 5464SOL    HW218226  11.106   6.103   9.311
 5465SOL     OW18227   3.987  13.084   1.023
 5465SOL    HW118228   3.921  13.016   1.010
 5465SOL    HW218229   4.062  13.037   1.061
 5466SOL     OW18230   3.749   6.883   2.517
 5466SOL    HW118231   3.663   6.846   2.497
 5466SOL    HW218232   3.806   6.806   2.529
 5467SOL     OW18233  12.488   0.166  11.701
 5467SOL    HW118234  12.393   0.155  11.708
 5467SOL    HW218235  12.513   0.205  11.785
 5468SOL     OW18236  12.710   3.122   0.300
 5468SOL    HW118237  12.748   3.111   0.388
 5468SOL    HW218238  12.731   3.212   0.276
 5469SOL     OW18239   3.110  13.543   5.778
 5469SOL    HW118240   3.121  13.462   5.827
 5469SOL    HW218241   3.019  13.569   5.795
 5470SOL     OW18242  13.921  10.038  11.045
 5470SOL    HW118243  13.942   9.987  10.967
 5470SOL    HW218244  13.921  10.129  11.015
 5471SOL     OW18245   9.397  14.752  13.697
 5471SOL    HW118246   9.304  14.740  13.718
 5471SOL    HW218247   9.397  14.772  13.603
 5472SOL     OW18248   1.780   3.573   4.704
 5472SOL    HW118249   1.830   3.536   4.632
 5472SOL    HW218250   1.846   3.598   4.769
 5473SOL     OW18251  14.461   3.151   4.305
 5473SOL    HW118252  14.366   3.163   4.306
 5473SOL    HW218253  14.487   3.173   4.216
 5474SOL     OW18254   1.532   4.715   0.886
 5474SOL    HW118255   1.531   4.718   0.981
 5474SOL    HW218256   1.442   4.733   0.860
 5475SOL     OW18257   1.703   8.203   0.529
 5475SOL    HW118258   1.764   8.248   0.588
 5475SOL    HW218259   1.688   8.265   0.458
 5476SOL     OW18260   1.612  11.384   2.171
 5476SOL    HW118261   1.605  11.312   2.234
 5476SOL    HW218262   1.621  11.462   2.225
 5477SOL     OW18263   6.374   0.477   2.051
 5477SOL    HW118264   6.455   0.454   2.005
 5477SOL    HW218265   6.305   0.438   1.998
 5478SOL     OW18266   9.505   6.436   5.312
 5478SOL    HW118267   9.518   6.525   5.279
 5478SOL    HW218268   9.594   6.405   5.331
 5479SOL     OW18269  13.867   8.440   3.854
 5479SOL    HW118270  13.960   8.420   3.870
 5479SOL    HW218271  13.826   8.433   3.941
 5480SOL     OW18272  12.940  13.658  13.783
 5480SOL    HW118273  12.970  13.572  13.812
 5480SOL    HW218274  12.932  13.649  13.688
 5481SOL     OW18275   9.950   7.920   7.798
 5481SOL    HW118276   9.870   7.884   7.760
 5481SOL    HW218277   9.919   7.979   7.867
 5482SOL     OW18278   1.306   2.075  12.311
 5482SOL    HW118279   1.301   2.171  12.316
 5482SOL    HW218280   1.215   2.047  12.301
 5483SOL     OW18281   6.441   1.449   2.072
 5483SOL    HW118282   6.430   1.463   2.166
 5483SOL    HW218283   6.508   1.512   2.046
 5484SOL     OW18284   6.857   9.387   4.171
 5484SOL    HW118285   6.932   9.440   4.144
 5484SOL    HW218286   6.846   9.407   4.264
 5485SOL     OW18287   5.058  14.134   7.721
 5485SOL    HW118288   5.093  14.057   7.675
 5485SOL    HW218289   4.992  14.170   7.662
 5486SOL     OW18290   1.621   2.080   4.421
 5486SOL    HW118291   1.699   2.037   4.456
 5486SOL    HW218292   1.638   2.174   4.431
 5487SOL     OW18293   3.755   3.012   6.565
 5487SOL    HW118294   3.720   3.101   6.580
 5487SOL    HW218295   3.677   2.960   6.545
 5488SOL     OW18296   0.967   3.086  13.540
 5488SOL    HW118297   1.000   3.041  13.617
 5488SOL    HW218298   0.976   3.023  13.469
 5489SOL     OW18299   5.178   1.402   2.342
 5489SOL    HW118300   5.101   1.444   2.380
 5489SOL    HW218301   5.163   1.405   2.248
 5490SOL     OW18302  10.378   0.021   7.751
 5490SOL    HW118303  10.336  14.870   7.669
 5490SOL    HW218304  10.309   0.016   7.817
 5491SOL     OW18305  10.367   6.390   3.588
 5491SOL    HW118306  10.325   6.443   3.655
 5491SOL    HW218307  10.333   6.425   3.505
 5492SOL     OW18308   3.665  11.161  14.459
 5492SOL    HW118309   3.741  11.144  14.514
 5492SOL    HW218310   3.702  11.200  14.380
 5493SOL     OW18311  12.054   2.227   5.856
 5493SOL    HW118312  12.090   2.158   5.801
 5493SOL    HW218313  11.966   2.196   5.879
 5494SOL     OW18314   3.162  11.084   7.418
 5494SOL    HW118315   3.209  11.020   7.470
 5494SOL    HW218316   3.120  11.142   7.482
 5495SOL     OW18317   0.338   5.847  14.133
 5495SOL    HW118318   0.281   5.774  14.156
 5495SOL    HW218319   0.374   5.876  14.217
 5496SOL     OW18320   8.222  12.558  11.972
 5496SOL    HW118321   8.270  12.636  11.945
 5496SOL    HW218322   8.179  12.528  11.893
 5497SOL     OW18323  14.165  11.405   0.439
 5497SOL    HW118324  14.198  11.449   0.361
 5497SOL    HW218325  14.243  11.386   0.491
 5498SOL     OW18326  11.958  13.231   6.368
 5498SOL    HW118327  11.983  13.264   6.282
 5498SOL    HW218328  11.876  13.276   6.388
 5499SOL     OW18329   9.084  12.638   7.589
 5499SOL    HW118330   9.109  12.689   7.512
 5499SOL    HW218331   9.152  12.658   7.654
 5500SOL     OW18332   5.152  14.637  14.177
 5500SOL    HW118333   5.109  14.672  14.255
 5500SOL    HW218334   5.118  14.690  14.105
 5501SOL     OW18335   9.839   3.763   1.860
 5501SOL    HW118336   9.918   3.757   1.806
 5501SOL    HW218337   9.866   3.726   1.945
 5502SOL     OW18338   6.269   2.688   5.149
 5502SOL    HW118339   6.182   2.728   5.149
 5502SOL    HW218340   6.282   2.659   5.239
 5503SOL     OW18341   5.522   2.180   3.483
 5503SOL    HW118342   5.584   2.111   3.462
 5503SOL    HW218343   5.538   2.199   3.576
 5504SOL     OW18344  12.393   6.543   3.195
 5504SOL    HW118345  12.397   6.635   3.170
 5504SOL    HW218346  12.324   6.506   3.141
 5505SOL     OW18347  10.820   2.636  10.728
 5505SOL    HW118348  10.903   2.670  10.764
 5505SOL    HW218349  10.804   2.557  10.780
 5506SOL     OW18350  14.500   2.902   6.003
 5506SOL    HW118351  14.522   2.991   6.029
 5506SOL    HW218352  14.432   2.875   6.064
 5507SOL     OW18353   5.747   8.591   7.769
 5507SOL    HW118354   5.710   8.549   7.691
 5507SOL    HW218355   5.711   8.680   7.767
 5508SOL     OW18356   0.472   6.810  11.109
 5508SOL    HW118357   0.400   6.863  11.074
 5508SOL    HW218358   0.501   6.857  11.186
 5509SOL     OW18359   9.326  13.197   4.914
 5509SOL    HW118360   9.411  13.168   4.947
 5509SOL    HW218361   9.334  13.190   4.819
 5510SOL     OW18362   9.684  13.810   9.951
 5510SOL    HW118363   9.657  13.902   9.953
 5510SOL    HW218364   9.768  13.809   9.997
 5511SOL     OW18365   4.788   1.902   5.906
 5511SOL    HW118366   4.777   1.974   5.844
 5511SOL    HW218367   4.751   1.934   5.988
 5512SOL     OW18368   8.243   9.713  10.478
 5512SOL    HW118369   8.253   9.659  10.556
 5512SOL    HW218370   8.161   9.761  10.493
 5513SOL     OW18371  10.616   8.267   4.593
 5513SOL    HW118372  10.658   8.310   4.668
 5513SOL    HW218373  10.650   8.314   4.517
 5514SOL     OW18374   7.140  11.988   0.811
 5514SOL    HW118375   7.080  12.054   0.777
 5514SOL    HW218376   7.085  11.931   0.865
 5515SOL     OW18377   9.699  12.780  11.010
 5515SOL    HW118378   9.792  12.777  10.991
 5515SOL    HW218379   9.670  12.863  10.974
 5516SOL     OW18380   3.054   2.425  13.815
 5516SOL    HW118381   3.065   2.470  13.899
 5516SOL    HW218382   2.987   2.360  13.831
 5517SOL     OW18383   0.400  11.244  13.603
 5517SOL    HW118384   0.362  11.158  13.619
 5517SOL    HW218385   0.326  11.300  13.582
 5518SOL     OW18386  14.018   7.095   6.000
 5518SOL    HW118387  14.028   7.000   5.995
 5518SOL    HW218388  14.108   7.129   6.002
 5519SOL     OW18389  10.568  11.390   9.501
 5519SOL    HW118390  10.487  11.342   9.484
 5519SOL    HW218391  10.555  11.431   9.586
 5520SOL     OW18392   4.292  10.756   8.840
 5520SOL    HW118393   4.235  10.816   8.793
 5520SOL    HW218394   4.333  10.703   8.772
 5521SOL     OW18395  14.755   7.179   9.332
 5521SOL    HW118396  14.712   7.227   9.261
 5521SOL    HW218397  14.807   7.112   9.288
 5522SOL     OW18398  13.553  13.080   6.874
 5522SOL    HW118399  13.517  13.161   6.908
 5522SOL    HW218400  13.549  13.089   6.779
 5523SOL     OW18401   1.472  10.555   8.679
 5523SOL    HW118402   1.522  10.517   8.607
 5523SOL    HW218403   1.384  10.567   8.644
 5524SOL     OW18404   4.000   3.573   3.059
 5524SOL    HW118405   4.003   3.635   2.986
 5524SOL    HW218406   4.069   3.510   3.040
 5525SOL     OW18407   3.913   4.838   3.864
 5525SOL    HW118408   3.846   4.770   3.865
 5525SOL    HW218409   3.868   4.916   3.831
 5526SOL     OW18410  14.698   7.717   5.263
 5526SOL    HW118411  14.621   7.762   5.299
 5526SOL    HW218412  14.738   7.674   5.339
 5527SOL     OW18413   9.445   8.673  11.025
 5527SOL    HW118414   9.417   8.698  11.113
 5527SOL    HW218415   9.440   8.578  11.024
 5528SOL     OW18416   6.882   8.932   3.783
 5528SOL    HW118417   6.955   8.907   3.726
 5528SOL    HW218418   6.808   8.881   3.751
 5529SOL     OW18419  10.974   8.251  14.829
 5529SOL    HW118420  10.909   8.181  14.831
 5529SOL    HW218421  11.050   8.215   0.001
 5530SOL     OW18422   9.455  14.179   2.559
 5530SOL    HW118423   9.536  14.171   2.508
 5530SOL    HW218424   9.448  14.096   2.605
 5531SOL     OW18425  11.293   9.045   0.942
 5531SOL    HW118426  11.300   8.971   0.882
 5531SOL    HW218427  11.219   9.023   0.999
 5532SOL     OW18428   1.190  13.427   8.307
 5532SOL    HW118429   1.210  13.488   8.378
 5532SOL    HW218430   1.098  13.404   8.320
 5533SOL     OW18431   6.852  14.367   8.954
 5533SOL    HW118432   6.913  14.294   8.940
 5533SOL    HW218433   6.864  14.391   9.046
 5534SOL     OW18434   6.016   0.709   2.163
 5534SOL    HW118435   5.926   0.683   2.183
 5534SOL    HW218436   6.069   0.636   2.193
 5535SOL     OW18437   1.680   2.806  14.746
 5535SOL    HW118438   1.636   2.744  14.805
 5535SOL    HW218439   1.769   2.811  14.779
 5536SOL     OW18440   7.512   2.504  11.869
 5536SOL    HW118441   7.452   2.578  11.879
 5536SOL    HW218442   7.461   2.428  11.898
 5537SOL     OW18443  14.735   6.655   2.903
 5537SOL    HW118444  14.779   6.732   2.869
 5537SOL    HW218445  14.675   6.628   2.834
 5538SOL     OW18446   7.886   2.752  10.259
 5538SOL    HW118447   7.851   2.669  10.225
 5538SOL    HW218448   7.913   2.799  10.180
 5539SOL     OW18449   1.876   2.219   8.678
 5539SOL    HW118450   1.891   2.228   8.773
 5539SOL    HW218451   1.811   2.287   8.658
 5540SOL     OW18452   5.073   2.286   8.111
 5540SOL    HW118453   5.120   2.364   8.081
 5540SOL    HW218454   5.133   2.213   8.095
 5541SOL     OW18455   0.702   7.284   1.548
 5541SOL    HW118456   0.761   7.209   1.542
 5541SOL    HW218457   0.641   7.272   1.475
 5542SOL     OW18458   1.948   1.429   6.615
 5542SOL    HW118459   1.913   1.342   6.593
 5542SOL    HW218460   2.004   1.451   6.540
 5543SOL     OW18461   9.624   1.266   5.623
 5543SOL    HW118462   9.542   1.259   5.672
 5543SOL    HW218463   9.597   1.287   5.534
 5544SOL     OW18464  13.327   3.286   7.484
 5544SOL    HW118465  13.420   3.296   7.460
 5544SOL    HW218466  13.281   3.338   7.418
 5545SOL     OW18467  12.061  13.951  13.438
 5545SOL    HW118468  12.015  13.875  13.404
 5545SOL    HW218469  12.152  13.922  13.449
 5546SOL     OW18470   0.333  11.675   3.576
 5546SOL    HW118471   0.346  11.634   3.662
 5546SOL    HW218472   0.241  11.660   3.556
 5547SOL     OW18473  11.649   0.761   2.971
 5547SOL    HW118474  11.713   0.769   3.042
 5547SOL    HW218475  11.618   0.850   2.956
 5548SOL     OW18476  13.297   4.482   4.566
 5548SOL    HW118477  13.225   4.423   4.544
 5548SOL    HW218478  13.255   4.567   4.583
 5549SOL     OW18479   2.189  12.509   4.152
 5549SOL    HW118480   2.129  12.579   4.126
 5549SOL    HW218481   2.244  12.549   4.220
 5550SOL     OW18482   3.763   6.932   9.759
 5550SOL    HW118483   3.683   6.895   9.798
 5550SOL    HW218484   3.816   6.856   9.738
 5551SOL     OW18485  13.649  12.732   0.109
 5551SOL    HW118486  13.661  12.640   0.086
 5551SOL    HW218487  13.736  12.770   0.098
 5552SOL     OW18488   6.051   9.699  12.426
 5552SOL    HW118489   6.006   9.643  12.490
 5552SOL    HW218490   6.144   9.683  12.442
 5553SOL     OW18491  10.072  10.149   7.991
 5553SOL    HW118492  10.053  10.056   8.000
 5553SOL    HW218493  10.078  10.164   7.896
 5554SOL     OW18494  10.156   5.279   4.480
 5554SOL    HW118495  10.138   5.351   4.541
 5554SOL    HW218496  10.084   5.283   4.417
 5555SOL     OW18497  10.907  12.268   2.898
 5555SOL    HW118498  10.975  12.202   2.881
 5555SOL    HW218499  10.949  12.331   2.956
 5556SOL     OW18500  12.484   2.415   3.977
 5556SOL    HW118501  12.465   2.329   3.939
 5556SOL    HW218502  12.567   2.441   3.937
 5557SOL     OW18503  13.346   6.609   4.382
 5557SOL    HW118504  13.368   6.516   4.380
 5557SOL    HW218505  13.261   6.613   4.428
 5558SOL     OW18506  10.252   6.230   1.775
 5558SOL    HW118507  10.299   6.191   1.848
 5558SOL    HW218508  10.211   6.156   1.730
 5559SOL     OW18509  11.531  10.036   5.803
 5559SOL    HW118510  11.588  10.034   5.880
 5559SOL    HW218511  11.590  10.025   5.729
 5560SOL     OW18512   0.092   4.192  12.182
 5560SOL    HW118513   0.016   4.194  12.240
 5560SOL    HW218514   0.141   4.271  12.203
 5561SOL     OW18515   3.509  10.995  14.760
 5561SOL    HW118516   3.436  10.965  14.814
 5561SOL    HW218517   3.493  11.089  14.749
 5562SOL     OW18518   6.309   9.985  14.573
 5562SOL    HW118519   6.382   9.934  14.538
 5562SOL    HW218520   6.319   9.977  14.668
 5563SOL     OW18521   7.326   7.207   0.742
 5563SOL    HW118522   7.376   7.193   0.662
 5563SOL    HW218523   7.391   7.231   0.807
 5564SOL     OW18524  11.488   1.607   5.097
 5564SOL    HW118525  11.404   1.647   5.075
 5564SOL    HW218526  11.483   1.593   5.192
 5565SOL     OW18527   9.279  12.523  10.616
 5565SOL    HW118528   9.233  12.514  10.532
 5565SOL    HW218529   9.242  12.454  10.671
 5566SOL     OW18530   4.917   4.363  13.080
 5566SOL    HW118531   4.915   4.315  12.997
 5566SOL    HW218532   4.866   4.442  13.063
 5567SOL     OW18533   8.503  13.814  10.456
 5567SOL    HW118534   8.554  13.774  10.387
 5567SOL    HW218535   8.530  13.769  10.536
 5568SOL     OW18536  12.608  13.587   5.112
 5568SOL    HW118537  12.643  13.551   5.193
 5568SOL    HW218538  12.515  13.598   5.128
 5569SOL     OW18539   8.106   7.735  13.170
 5569SOL    HW118540   8.059   7.817  13.182
 5569SOL    HW218541   8.198   7.757  13.182
 5570SOL     OW18542   8.632  10.262   2.397
 5570SOL    HW118543   8.558  10.298   2.447
 5570SOL    HW218544   8.617  10.168   2.397
 5571SOL     OW18545  12.446   4.362   5.915
 5571SOL    HW118546  12.427   4.304   5.989
 5571SOL    HW218547  12.507   4.312   5.860
 5572SOL     OW18548   8.846   3.143  10.491
 5572SOL    HW118549   8.917   3.079  10.483
 5572SOL    HW218550   8.873   3.216  10.436
 5573SOL     OW18551   8.429  10.505   4.068
 5573SOL    HW118552   8.456  10.453   4.144
 5573SOL    HW218553   8.337  10.484   4.056
 5574SOL     OW18554  13.262  14.258   7.024
 5574SOL    HW118555  13.356  14.241   7.028
 5574SOL    HW218556  13.220  14.175   7.044
 5575SOL     OW18557  14.740  11.590   2.318
 5575SOL    HW118558  14.813  11.551   2.272
 5575SOL    HW218559  14.771  11.602   2.408
 5576SOL     OW18560  10.810  14.243  11.670
 5576SOL    HW118561  10.874  14.192  11.621
 5576SOL    HW218562  10.742  14.179  11.695
 5577SOL     OW18563   1.997   5.187   3.779
 5577SOL    HW118564   1.922   5.245   3.770
 5577SOL    HW218565   1.987   5.148   3.866
 5578SOL     OW18566   0.670   9.463   3.105
 5578SOL    HW118567   0.690   9.510   3.186
 5578SOL    HW218568   0.606   9.396   3.131
 5579SOL     OW18569   9.286   3.722   2.754
 5579SOL    HW118570   9.327   3.668   2.687
 5579SOL    HW218571   9.243   3.793   2.704
 5580SOL     OW18572   9.496   3.728  11.212
 5580SOL    HW118573   9.534   3.713  11.125
 5580SOL    HW218574   9.559   3.690  11.273
 5581SOL     OW18575  10.374   9.687   1.923
 5581SOL    HW118576  10.306   9.754   1.913
 5581SOL    HW218577  10.432   9.722   1.991
 5582SOL     OW18578   4.880   5.801   3.602
 5582SOL    HW118579   4.936   5.864   3.648
 5582SOL    HW218580   4.935   5.768   3.531
 5583SOL     OW18581   8.877   1.679   3.159
 5583SOL    HW118582   8.901   1.586   3.164
 5583SOL    HW218583   8.856   1.703   3.249
 5584SOL     OW18584  10.534   5.343   6.173
 5584SOL    HW118585  10.622   5.330   6.139
 5584SOL    HW218586  10.521   5.274   6.237
 5585SOL     OW18587  14.228   8.435   0.523
 5585SOL    HW118588  14.252   8.522   0.554
 5585SOL    HW218589  14.206   8.448   0.431
 5586SOL     OW18590   9.768  13.511   4.524
 5586SOL    HW118591   9.754  13.549   4.436
 5586SOL    HW218592   9.755  13.585   4.583
 5587SOL     OW18593   8.267   3.308   7.849
 5587SOL    HW118594   8.362   3.303   7.860
 5587SOL    HW218595   8.237   3.362   7.923
 5588SOL     OW18596   6.907  14.098   3.771
 5588SOL    HW118597   6.864  14.184   3.764
 5588SOL    HW218598   6.965  14.107   3.846
 5589SOL     OW18599  10.045   7.098  11.867
 5589SOL    HW118600  10.068   7.181  11.826
 5589SOL    HW218601  10.057   7.033  11.798
 5590SOL     OW18602   8.300  10.414   5.180
 5590SOL    HW118603   8.268  10.334   5.138
 5590SOL    HW218604   8.222  10.460   5.208
 5591SOL     OW18605   8.630   0.199   8.189
 5591SOL    HW118606   8.691   0.152   8.132
 5591SOL    HW218607   8.682   0.228   8.263
 5592SOL     OW18608   5.120  13.422   5.866
 5592SOL    HW118609   5.052  13.466   5.918
 5592SOL    HW218610   5.125  13.474   5.786
 5593SOL     OW18611  11.607  12.772  10.643
 5593SOL    HW118612  11.564  12.801  10.563
 5593SOL    HW218613  11.643  12.851  10.682
 5594SOL     OW18614  14.629   1.038  11.274
 5594SOL    HW118615  14.647   0.951  11.238
 5594SOL    HW218616  14.700   1.052  11.338
 5595SOL     OW18617  12.412   0.674   4.982
 5595SOL    HW118618  12.440   0.735   5.051
 5595SOL    HW218619  12.392   0.730   4.907
 5596SOL     OW18620   7.362   8.959   9.814
 5596SOL    HW118621   7.428   8.955   9.744
 5596SOL    HW218622   7.281   8.934   9.771
 5597SOL     OW18623  12.985   7.732   3.705
 5597SOL    HW118624  12.958   7.648   3.668
 5597SOL    HW218625  12.937   7.739   3.788
 5598SOL     OW18626   0.411   9.391  11.155
 5598SOL    HW118627   0.503   9.415  11.150
 5598SOL    HW218628   0.401   9.354  11.243
 5599SOL     OW18629   8.966   5.205   7.454
 5599SOL    HW118630   9.011   5.260   7.519
 5599SOL    HW218631   9.032   5.143   7.425
 5600SOL     OW18632  12.788   9.390  13.810
 5600SOL    HW118633  12.814   9.299  13.795
 5600SOL    HW218634  12.851   9.441  13.759
 5601SOL     OW18635   8.815   5.115  10.812
 5601SOL    HW118636   8.877   5.113  10.739
 5601SOL    HW218637   8.856   5.171  10.878
 5602SOL     OW18638   7.904   6.298  10.305
 5602SOL    HW118639   7.969   6.320  10.372
 5602SOL    HW218640   7.900   6.202  10.305
 5603SOL     OW18641  13.803   7.280  12.910
 5603SOL    HW118642  13.888   7.265  12.869
 5603SOL    HW218643  13.752   7.327  12.844
 5604SOL     OW18644   4.138   5.658  12.792
 5604SOL    HW118645   4.139   5.655  12.888
 5604SOL    HW218646   4.182   5.577  12.766
 5605SOL     OW18647   7.066  10.746   6.204
 5605SOL    HW118648   7.001  10.805   6.242
 5605SOL    HW218649   7.053  10.754   6.109
 5606SOL     OW18650   2.129   7.118   5.799
 5606SOL    HW118651   2.209   7.139   5.750
 5606SOL    HW218652   2.063   7.102   5.732
 5607SOL     OW18653  11.922  13.402  10.760
 5607SOL    HW118654  12.010  13.439  10.750
 5607SOL    HW218655  11.920  13.328  10.699
 5608SOL     OW18656   1.948  12.968   6.773
 5608SOL    HW118657   2.022  12.918   6.808
 5608SOL    HW218658   1.940  13.044   6.831
 5609SOL     OW18659  14.532   0.776   1.414
 5609SOL    HW118660  14.591   0.716   1.459
 5609SOL    HW218661  14.499   0.725   1.339
 5610SOL     OW18662   6.132   1.524  12.512
 5610SOL    HW118663   6.076   1.446  12.520
 5610SOL    HW218664   6.125   1.567  12.597
 5611SOL     OW18665   6.536   6.815   1.381
 5611SOL    HW118666   6.621   6.859   1.392
 5611SOL    HW218667   6.475   6.867   1.434
 5612SOL     OW18668   1.589  13.307   4.404
 5612SOL    HW118669   1.525  13.351   4.461
 5612SOL    HW218670   1.589  13.216   4.435
 5613SOL     OW18671  13.609   6.263   7.262
 5613SOL    HW118672  13.567   6.204   7.199
 5613SOL    HW218673  13.632   6.207   7.336
 5614SOL     OW18674   3.644  14.761   0.775
 5614SOL    HW118675   3.557  14.791   0.802
 5614SOL    HW218676   3.663  14.689   0.835
 5615SOL     OW18677   0.032   4.954   8.177
 5615SOL    HW118678  14.828   5.005   8.204
 5615SOL    HW218679   0.029   4.875   8.232
 5616SOL     OW18680   0.009   0.182   0.108
 5616SOL    HW118681   0.021   0.203   0.015
 5616SOL    HW218682  14.850   0.091   0.108
 5617SOL     OW18683   1.613  10.437   8.480
 5617SOL    HW118684   1.619  10.488   8.400
 5617SOL    HW218685   1.670  10.361   8.464
 5618SOL     OW18686   3.823  11.934  11.286
 5618SOL    HW118687   3.783  11.880  11.354
 5618SOL    HW218688   3.751  11.951  11.225
 5619SOL     OW18689   5.758  10.768   9.180
 5619SOL    HW118690   5.734  10.860   9.169
 5619SOL    HW218691   5.712  10.723   9.109
 5620SOL     OW18692   3.145   6.495  11.192
 5620SOL    HW118693   3.231   6.527  11.167
 5620SOL    HW218694   3.098   6.573  11.221
 5621SOL     OW18695   3.359  13.731  13.620
 5621SOL    HW118696   3.405  13.650  13.597
 5621SOL    HW218697   3.369  13.786  13.543
 5622SOL     OW18698  13.084   1.197   5.045
 5622SOL    HW118699  13.054   1.120   4.997
 5622SOL    HW218700  13.122   1.253   4.978
 5623SOL     OW18701   0.620  10.375   5.210
 5623SOL    HW118702   0.631  10.451   5.266
 5623SOL    HW218703   0.705  10.363   5.169
 5624SOL     OW18704  14.283  11.867   4.836
 5624SOL    HW118705  14.256  11.879   4.745
 5624SOL    HW218706  14.375  11.842   4.831
 5625SOL     OW18707  10.828   0.318   6.887
 5625SOL    HW118708  10.824   0.317   6.982
 5625SOL    HW218709  10.921   0.333   6.867
 5626SOL     OW18710   7.448   6.523  12.617
 5626SOL    HW118711   7.399   6.498  12.695
 5626SOL    HW218712   7.425   6.615  12.603
 5627SOL     OW18713   8.695   2.714   9.466
 5627SOL    HW118714   8.720   2.678   9.551
 5627SOL    HW218715   8.674   2.805   9.483
 5628SOL     OW18716   8.255   0.702   6.405
 5628SOL    HW118717   8.300   0.755   6.470
 5628SOL    HW218718   8.203   0.765   6.355
 5629SOL     OW18719   4.851  14.190   7.519
 5629SOL    HW118720   4.783  14.124   7.513
 5629SOL    HW218721   4.810  14.271   7.488
 5630SOL     OW18722  14.349   5.409  13.849
 5630SOL    HW118723  14.275   5.359  13.815
 5630SOL    HW218724  14.382   5.356  13.922
 5631SOL     OW18725   2.334   1.450  11.477
 5631SOL    HW118726   2.377   1.424  11.396
 5631SOL    HW218727   2.372   1.392  11.544
 5632SOL     OW18728   3.823   8.500  14.163
 5632SOL    HW118729   3.788   8.587  14.144
 5632SOL    HW218730   3.869   8.475  14.083
 5633SOL     OW18731  10.799   6.013   5.075
 5633SOL    HW118732  10.892   5.991   5.085
 5633SOL    HW218733  10.789   6.095   5.123
 5634SOL     OW18734   3.895   4.558  10.961
 5634SOL    HW118735   3.853   4.474  10.943
 5634SOL    HW218736   3.861   4.617  10.894
 5635SOL     OW18737  10.437  14.096   5.334
 5635SOL    HW118738  10.342  14.103   5.333
 5635SOL    HW218739  10.462  14.136   5.417
 5636SOL     OW18740  14.440   6.755   1.257
 5636SOL    HW118741  14.357   6.719   1.286
 5636SOL    HW218742  14.486   6.681   1.216
 5637SOL     OW18743   9.069  13.800  14.702
 5637SOL    HW118744   9.017  13.878  14.720
 5637SOL    HW218745   9.156  13.820  14.736
 5638SOL     OW18746  14.267   6.607  11.377
 5638SOL    HW118747  14.262   6.693  11.334
 5638SOL    HW218748  14.220   6.548  11.318
 5639SOL     OW18749  11.891   7.544  11.099
 5639SOL    HW118750  11.888   7.458  11.057
 5639SOL    HW218751  11.799   7.564  11.118
 5640SOL     OW18752   5.081  13.688  10.727
 5640SOL    HW118753   5.131  13.762  10.692
 5640SOL    HW218754   5.095  13.617  10.663
 5641SOL     OW18755   2.373  13.520   1.078
 5641SOL    HW118756   2.309  13.451   1.096
 5641SOL    HW218757   2.454  13.490   1.119
 5642SOL     OW18758  14.339   5.368   9.662
 5642SOL    HW118759  14.422   5.358   9.615
 5642SOL    HW218760  14.286   5.293   9.634
 5643SOL     OW18761   8.293   3.099  13.548
 5643SOL    HW118762   8.369   3.130  13.498
 5643SOL    HW218763   8.285   3.007  13.526
 5644SOL     OW18764   8.765  11.614   3.170
 5644SOL    HW118765   8.717  11.535   3.144
 5644SOL    HW218766   8.844  11.612   3.117
 5645SOL     OW18767  11.495   0.484  10.240
 5645SOL    HW118768  11.500   0.393  10.211
 5645SOL    HW218769  11.471   0.478  10.333
 5646SOL     OW18770   2.522  11.750   7.941
 5646SOL    HW118771   2.575  11.817   7.985
 5646SOL    HW218772   2.565  11.668   7.965
 5647SOL     OW18773  10.496  10.296   4.024
 5647SOL    HW118774  10.509  10.244   4.104
 5647SOL    HW218775  10.504  10.233   3.953
 5648SOL     OW18776  14.550   5.610  14.336
 5648SOL    HW118777  14.474   5.610  14.395
 5648SOL    HW218778  14.611   5.548  14.376
 5649SOL     OW18779   1.365   6.034   7.724
 5649SOL    HW118780   1.429   6.105   7.724
 5649SOL    HW218781   1.367   6.001   7.634
 5650SOL     OW18782   3.372   7.966   1.246
 5650SOL    HW118783   3.293   7.997   1.201
 5650SOL    HW218784   3.388   7.879   1.209
 5651SOL     OW18785  14.100  10.949   4.287
 5651SOL    HW118786  14.006  10.937   4.293
 5651SOL    HW218787  14.117  11.031   4.333
 5652SOL     OW18788   0.215   8.226   1.354
 5652SOL    HW118789   0.240   8.297   1.294
 5652SOL    HW218790   0.167   8.269   1.424
 5653SOL     OW18791   4.530  12.872   3.174
 5653SOL    HW118792   4.583  12.826   3.109
 5653SOL    HW218793   4.467  12.806   3.204
 5654SOL     OW18794   6.180   9.949   2.841
 5654SOL    HW118795   6.111   9.990   2.893
 5654SOL    HW218796   6.260   9.964   2.892
 5655SOL     OW18797   2.206  10.158   9.293
 5655SOL    HW118798   2.229  10.066   9.306
 5655SOL    HW218799   2.282  10.206   9.324
 5656SOL     OW18800   5.195   7.618   6.260
 5656SOL    HW118801   5.239   7.680   6.203
 5656SOL    HW218802   5.235   7.632   6.346
 5657SOL     OW18803   0.743   5.453   5.162
 5657SOL    HW118804   0.777   5.437   5.074
 5657SOL    HW218805   0.813   5.501   5.206
 5658SOL     OW18806  12.734  10.704   4.771
 5658SOL    HW118807  12.790  10.718   4.695
 5658SOL    HW218808  12.711  10.792   4.800
 5659SOL     OW18809   6.473   0.407   0.623
 5659SOL    HW118810   6.522   0.379   0.700
 5659SOL    HW218811   6.416   0.334   0.602
 5660SOL     OW18812  10.985   9.990   0.780
 5660SOL    HW118813  11.010   9.909   0.825
 5660SOL    HW218814  11.029  10.059   0.828
 5661SOL     OW18815   7.873  14.665   2.709
 5661SOL    HW118816   7.909  14.661   2.798
 5661SOL    HW218817   7.821  14.585   2.700
 5662SOL     OW18818   5.229  11.536   6.620
 5662SOL    HW118819   5.187  11.450   6.621
 5662SOL    HW218820   5.167  11.594   6.663
 5663SOL     OW18821   6.063   4.494   7.724
 5663SOL    HW118822   6.003   4.490   7.799
 5663SOL    HW218823   6.009   4.466   7.650
 5664SOL     OW18824   0.256   3.429   7.894
 5664SOL    HW118825   0.322   3.455   7.830
 5664SOL    HW218826   0.226   3.343   7.864
 5665SOL     OW18827   4.976   3.886   2.432
 5665SOL    HW118828   4.999   3.809   2.381
 5665SOL    HW218829   5.027   3.878   2.512
 5666SOL     OW18830  11.392  14.093  11.093
 5666SOL    HW118831  11.351  14.123  11.175
 5666SOL    HW218832  11.320  14.091  11.030
 5667SOL     OW18833   3.298  12.419   9.390
 5667SOL    HW118834   3.203  12.430   9.395
 5667SOL    HW218835   3.317  12.412   9.296
 5668SOL     OW18836   7.601   4.815  14.115
 5668SOL    HW118837   7.620   4.724  14.089
 5668SOL    HW218838   7.682   4.847  14.153
 5669SOL     OW18839  13.688   8.859  14.532
 5669SOL    HW118840  13.660   8.909  14.456
 5669SOL    HW218841  13.652   8.771  14.518
 5670SOL     OW18842  10.443  11.894   5.376
 5670SOL    HW118843  10.403  11.939   5.301
 5670SOL    HW218844  10.431  11.955   5.449
 5671SOL     OW18845   1.583  14.318   3.205
 5671SOL    HW118846   1.593  14.403   3.162
 5671SOL    HW218847   1.670  14.298   3.239
 5672SOL     OW18848  11.667   9.894   1.361
 5672SOL    HW118849  11.669   9.962   1.294
 5672SOL    HW218850  11.628   9.936   1.438
 5673SOL     OW18851   8.658   4.788   7.096
 5673SOL    HW118852   8.592   4.799   7.164
 5673SOL    HW218853   8.726   4.852   7.118
 5674SOL     OW18854  14.462   8.049   6.837
 5674SOL    HW118855  14.499   8.126   6.880
 5674SOL    HW218856  14.392   8.021   6.896
 5675SOL     OW18857  10.334   8.254  10.816
 5675SOL    HW118858  10.324   8.172  10.768
 5675SOL    HW218859  10.315   8.230  10.907
 5676SOL     OW18860   5.545  11.706   0.605
 5676SOL    HW118861   5.523  11.626   0.558
 5676SOL    HW218862   5.488  11.773   0.566
 5677SOL     OW18863   0.122   9.828   8.437
 5677SOL    HW118864   0.118   9.741   8.397
 5677SOL    HW218865   0.190   9.874   8.388
 5678SOL     OW18866   6.798  11.181   3.327
 5678SOL    HW118867   6.885  11.143   3.342
 5678SOL    HW218868   6.739  11.126   3.378
 5679SOL     OW18869   5.323  12.272  12.797
 5679SOL    HW118870   5.371  12.332  12.741
 5679SOL    HW218871   5.389  12.235  12.856
 5680SOL     OW18872   3.731   5.249  11.325
 5680SOL    HW118873   3.661   5.198  11.285
 5680SOL    HW218874   3.697   5.338  11.330
 5681SOL     OW18875   0.820   6.394   1.018
 5681SOL    HW118876   0.754   6.462   1.004
 5681SOL    HW218877   0.903   6.436   0.998
 5682SOL     OW18878   4.788   6.482  12.278
 5682SOL    HW118879   4.873   6.493  12.320
 5682SOL    HW218880   4.740   6.421  12.335
 5683SOL     OW18881   6.265   6.053  10.288
 5683SOL    HW118882   6.261   6.148  10.299
 5683SOL    HW218883   6.346   6.028  10.332
 5684SOL     OW18884   7.603   1.181   8.132
 5684SOL    HW118885   7.608   1.275   8.147
 5684SOL    HW218886   7.594   1.143   8.220
 5685SOL     OW18887   7.764   6.595   2.302
 5685SOL    HW118888   7.696   6.528   2.302
 5685SOL    HW218889   7.750   6.642   2.384
 5686SOL     OW18890   9.893   2.589   0.904
 5686SOL    HW118891   9.920   2.657   0.843
 5686SOL    HW218892   9.808   2.559   0.872
 5687SOL     OW18893   4.428  12.213  13.301
 5687SOL    HW118894   4.398  12.127  13.330
 5687SOL    HW218895   4.359  12.244  13.242
 5688SOL     OW18896  13.646  10.933  13.786
 5688SOL    HW118897  13.569  10.876  13.797
 5688SOL    HW218898  13.609  11.021  13.778
 5689SOL     OW18899   1.255   0.042  13.833
 5689SOL    HW118900   1.289   0.058  13.744
 5689SOL    HW218901   1.221  14.826  13.830
 5690SOL     OW18902   2.003  14.827  12.518
 5690SOL    HW118903   1.955   0.035  12.533
 5690SOL    HW218904   2.062  14.846  12.445
 5691SOL     OW18905  12.210   9.525  14.355
 5691SOL    HW118906  12.303   9.520  14.377
 5691SOL    HW218907  12.202   9.604  14.302
 5692SOL     OW18908   8.934   9.852   3.288
 5692SOL    HW118909   8.956   9.904   3.364
 5692SOL    HW218910   8.997   9.879   3.221
 5693SOL     OW18911   7.582  13.479  12.596
 5693SOL    HW118912   7.577  13.391  12.560
 5693SOL    HW218913   7.676  13.493  12.611
 5694SOL     OW18914  14.202   1.955   6.923
 5694SOL    HW118915  14.208   2.041   6.964
 5694SOL    HW218916  14.292   1.933   6.899
 5695SOL     OW18917  13.892  12.458  11.322
 5695SOL    HW118918  13.911  12.373  11.360
 5695SOL    HW218919  13.840  12.438  11.244
 5696SOL     OW18920  14.150  10.135  12.351
 5696SOL    HW118921  14.071  10.098  12.390
 5696SOL    HW218922  14.136  10.127  12.257
 5697SOL     OW18923   1.632   7.448   7.343
 5697SOL    HW118924   1.689   7.411   7.276
 5697SOL    HW218925   1.635   7.385   7.415
 5698SOL     OW18926  13.909   1.551  12.551
 5698SOL    HW118927  13.929   1.507  12.469
 5698SOL    HW218928  13.923   1.484  12.618
 5699SOL     OW18929   8.968  14.701   9.048
 5699SOL    HW118930   8.997  14.774   9.103
 5699SOL    HW218931   8.875  14.691   9.069
 5700SOL     OW18932   8.524   7.179   2.273
 5700SOL    HW118933   8.466   7.107   2.297
 5700SOL    HW218934   8.503   7.248   2.335
 5701SOL     OW18935   2.458  12.520   9.489
 5701SOL    HW118936   2.397  12.561   9.551
 5701SOL    HW218937   2.494  12.593   9.439
 5702SOL     OW18938   8.859   7.616   6.950
 5702SOL    HW118939   8.944   7.587   6.917
 5702SOL    HW218940   8.824   7.540   6.996
 5703SOL     OW18941   0.591   5.916  14.809
 5703SOL    HW118942   0.634   5.918   0.022
 5703SOL    HW218943   0.540   5.997  14.806
 5704SOL     OW18944  11.353   0.807   2.976
 5704SOL    HW118945  11.300   0.854   2.912
 5704SOL    HW218946  11.443   0.828   2.952
 5705SOL     OW18947   0.374   0.538   2.893
 5705SOL    HW118948   0.347   0.629   2.883
 5705SOL    HW218949   0.458   0.542   2.938
 5706SOL     OW18950   7.411   2.352   2.314
 5706SOL    HW118951   7.339   2.365   2.253
 5706SOL    HW218952   7.368   2.333   2.397
 5707SOL     OW18953   0.086   4.993   2.154
 5707SOL    HW118954   0.024   4.951   2.095
 5707SOL    HW218955   0.063   5.086   2.151
 5708SOL     OW18956   7.644  11.075  10.986
 5708SOL    HW118957   7.648  11.166  11.014
 5708SOL    HW218958   7.704  11.028  11.045
 5709SOL     OW18959   0.157   7.824  12.693
 5709SOL    HW118960   0.095   7.765  12.651
 5709SOL    HW218961   0.201   7.770  12.759
 5710SOL     OW18962   9.098   2.526   3.648
 5710SOL    HW118963   9.142   2.607   3.674
 5710SOL    HW218964   9.013   2.555   3.615
 5711SOL     OW18965  11.540   3.466   1.872
 5711SOL    HW118966  11.598   3.507   1.937
 5711SOL    HW218967  11.495   3.397   1.921
 5712SOL     OW18968   6.940   7.628   0.305
 5712SOL    HW118969   7.027   7.643   0.267
 5712SOL    HW218970   6.893   7.710   0.288
 5713SOL     OW18971  10.011   5.955   4.750
 5713SOL    HW118972   9.989   5.897   4.677
 5713SOL    HW218973  10.096   5.924   4.781
 5714SOL     OW18974   1.834   4.345   0.971
 5714SOL    HW118975   1.842   4.313   0.881
 5714SOL    HW218976   1.910   4.400   0.984
 5715SOL     OW18977   5.032   6.654  10.681
 5715SOL    HW118978   4.980   6.642  10.760
 5715SOL    HW218979   5.109   6.703  10.710
 5716SOL     OW18980  10.662   4.293   2.901
 5716SOL    HW118981  10.649   4.295   2.806
 5716SOL    HW218982  10.755   4.273   2.912
 5717SOL     OW18983  10.854  12.691   9.389
 5717SOL    HW118984  10.917  12.620   9.373
 5717SOL    HW218985  10.896  12.746   9.454
 5718SOL     OW18986  11.014  12.511  12.599
 5718SOL    HW118987  10.988  12.419  12.607
 5718SOL    HW218988  11.022  12.542  12.689
 5719SOL     OW18989   1.627   0.251  13.440
 5719SOL    HW118990   1.574   0.330  13.430
 5719SOL    HW218991   1.674   0.264  13.523
 5720SOL     OW18992  10.948  12.161  14.720
 5720SOL    HW118993  10.985  12.105  14.788
 5720SOL    HW218994  11.005  12.238  14.719
 5721SOL     OW18995  11.824   5.986   5.591
 5721SOL    HW118996  11.773   5.950   5.519
 5721SOL    HW218997  11.915   5.970   5.566
 5722SOL     OW18998   3.393  11.117   6.641
 5722SOL    HW118999   3.437  11.114   6.556
 5722SOL    HW219000   3.301  11.105   6.620
 5723SOL     OW19001   5.156   5.834   9.426
 5723SOL    HW119002   5.079   5.833   9.369
 5723SOL    HW219003   5.135   5.771   9.495
 5724SOL     OW19004   0.147   5.123  13.279
 5724SOL    HW119005   0.166   5.132  13.186
 5724SOL    HW219006   0.051   5.123  13.284
 5725SOL     OW19007   5.405   3.083  12.905
 5725SOL    HW119008   5.352   3.047  12.976
 5725SOL    HW219009   5.495   3.070  12.934
 5726SOL     OW19010   0.981  12.421   7.519
 5726SOL    HW119011   0.990  12.517   7.523
 5726SOL    HW219012   0.903  12.407   7.466
 5727SOL     OW19013  12.921   9.760   6.216
 5727SOL    HW119014  12.910   9.666   6.232
 5727SOL    HW219015  12.832   9.793   6.209
 5728SOL     OW19016  10.397   4.710   4.358
 5728SOL    HW119017  10.307   4.681   4.344
 5728SOL    HW219018  10.450   4.634   4.333
 5729SOL     OW19019   1.025   3.466   2.534
 5729SOL    HW119020   1.112   3.463   2.575
 5729SOL    HW219021   0.968   3.421   2.597
 5730SOL     OW19022   9.881  10.635   2.536
 5730SOL    HW119023   9.970  10.608   2.559
 5730SOL    HW219024   9.885  10.730   2.531
 5731SOL     OW19025  10.882   8.782   1.512
 5731SOL    HW119026  10.788   8.773   1.530
 5731SOL    HW219027  10.925   8.753   1.592
 5732SOL     OW19028   5.988   2.135  14.512
 5732SOL    HW119029   6.002   2.057  14.459
 5732SOL    HW219030   5.920   2.184  14.465
 5733SOL     OW19031  12.369  13.672  12.563
 5733SOL    HW119032  12.302  13.725  12.606
 5733SOL    HW219033  12.364  13.697  12.471
 5734SOL     OW19034  13.106   9.590   4.715
 5734SOL    HW119035  13.122   9.511   4.664
 5734SOL    HW219036  13.156   9.658   4.669
 5735SOL     OW19037   8.269  13.305   4.861
 5735SOL    HW119038   8.296  13.241   4.796
 5735SOL    HW219039   8.349  13.350   4.886
 5736SOL     OW19040   6.276  12.673   0.630
 5736SOL    HW119041   6.255  12.659   0.722
 5736SOL    HW219042   6.361  12.630   0.618
 5737SOL     OW19043   4.258  11.963  11.536
 5737SOL    HW119044   4.206  12.021  11.481
 5737SOL    HW219045   4.259  12.007  11.621
 5738SOL     OW19046   6.647   1.110   2.028
 5738SOL    HW119047   6.556   1.097   2.056
 5738SOL    HW219048   6.685   1.169   2.093
 5739SOL     OW19049  13.375  12.045   5.872
 5739SOL    HW119050  13.371  12.040   5.967
 5739SOL    HW219051  13.458  12.089   5.853
 5740SOL     OW19052  10.533  13.945   8.978
 5740SOL    HW119053  10.493  13.891   8.909
 5740SOL    HW219054  10.555  13.883   9.048
 5741SOL     OW19055   2.044   8.594   4.670
 5741SOL    HW119056   2.008   8.626   4.587
 5741SOL    HW219057   1.968   8.587   4.728
 5742SOL     OW19058   1.327  12.997   9.163
 5742SOL    HW119059   1.342  12.932   9.095
 5742SOL    HW219060   1.369  13.076   9.130
 5743SOL     OW19061   6.603  14.126   7.897
 5743SOL    HW119062   6.566  14.062   7.957
 5743SOL    HW219063   6.532  14.188   7.881
 5744SOL     OW19064  14.147   7.790  11.842
 5744SOL    HW119065  14.053   7.771  11.844
 5744SOL    HW219066  14.158   7.848  11.766
 5745SOL     OW19067   1.609   1.746   7.396
 5745SOL    HW119068   1.561   1.821   7.361
 5745SOL    HW219069   1.540   1.685   7.423
 5746SOL     OW19070   5.506   9.647  14.253
 5746SOL    HW119071   5.463   9.700  14.186
 5746SOL    HW219072   5.452   9.658  14.331
 5747SOL     OW19073   2.775  12.697   2.399
 5747SOL    HW119074   2.702  12.644   2.431
 5747SOL    HW219075   2.828  12.714   2.478
 5748SOL     OW19076   9.818   6.782   4.923
 5748SOL    HW119077   9.880   6.729   4.873
 5748SOL    HW219078   9.736   6.732   4.921
 5749SOL     OW19079   3.258  10.191   8.517
 5749SOL    HW119080   3.207  10.188   8.436
 5749SOL    HW219081   3.192  10.201   8.586
 5750SOL     OW19082  14.643   3.756  13.815
 5750SOL    HW119083  14.627   3.673  13.859
 5750SOL    HW219084  14.737   3.754  13.794
 5751SOL     OW19085  13.467   7.960   9.466
 5751SOL    HW119086  13.547   7.944   9.516
 5751SOL    HW219087  13.396   7.944   9.529
 5752SOL     OW19088   7.532  13.589   0.709
 5752SOL    HW119089   7.559  13.641   0.633
 5752SOL    HW219090   7.446  13.623   0.733
 5753SOL     OW19091   0.262  11.468  14.013
 5753SOL    HW119092   0.323  11.414  14.062
 5753SOL    HW219093   0.201  11.503  14.079
 5754SOL     OW19094  13.604   0.472   4.840
 5754SOL    HW119095  13.548   0.448   4.914
 5754SOL    HW219096  13.619   0.565   4.850
 5755SOL     OW19097   7.737   8.505   2.761
 5755SOL    HW119098   7.651   8.520   2.800
 5755SOL    HW219099   7.718   8.482   2.670
 5756SOL     OW19100   4.411  12.902   3.855
 5756SOL    HW119101   4.343  12.967   3.833
 5756SOL    HW219102   4.493  12.950   3.848
 5757SOL     OW19103   0.592  11.804   7.734
 5757SOL    HW119104   0.540  11.728   7.761
 5757SOL    HW219105   0.575  11.869   7.803
 5758SOL     OW19106   3.506   7.439   6.764
 5758SOL    HW119107   3.480   7.347   6.760
 5758SOL    HW219108   3.566   7.444   6.839
 5759SOL     OW19109   3.186   2.787   1.811
 5759SOL    HW119110   3.134   2.850   1.860
 5759SOL    HW219111   3.123   2.720   1.784
 5760SOL     OW19112   1.386   7.299   0.336
 5760SOL    HW119113   1.430   7.359   0.397
 5760SOL    HW219114   1.434   7.309   0.254
 5761SOL     OW19115  14.116   3.945  14.868
 5761SOL    HW119116  14.052   3.893  14.820
 5761SOL    HW219117  14.192   3.951  14.810
 5762SOL     OW19118   1.751   4.087   5.566
 5762SOL    HW119119   1.815   4.134   5.619
 5762SOL    HW219120   1.781   4.100   5.475
 5763SOL     OW19121   8.088   7.051   6.944
 5763SOL    HW119122   8.073   7.097   6.861
 5763SOL    HW219123   8.009   7.068   6.996
 5764SOL     OW19124   3.520   6.914   7.655
 5764SOL    HW119125   3.516   6.835   7.710
 5764SOL    HW219126   3.612   6.941   7.659
 5765SOL     OW19127   5.343   1.286   2.740
 5765SOL    HW119128   5.355   1.374   2.774
 5765SOL    HW219129   5.432   1.253   2.726
 5766SOL     OW19130   4.585  12.630  12.811
 5766SOL    HW119131   4.612  12.680  12.734
 5766SOL    HW219132   4.659  12.573  12.830
 5767SOL     OW19133  11.615  10.949  11.761
 5767SOL    HW119134  11.522  10.929  11.755
 5767SOL    HW219135  11.620  11.028  11.814
 5768SOL     OW19136   1.449   1.663  10.985
 5768SOL    HW119137   1.420   1.573  10.999
 5768SOL    HW219138   1.368   1.713  10.975
 5769SOL     OW19139  14.738  10.103   8.637
 5769SOL    HW119140  14.812  10.162   8.629
 5769SOL    HW219141  14.695  10.129   8.718
 5770SOL     OW19142  11.475   6.897  11.358
 5770SOL    HW119143  11.387   6.868  11.336
 5770SOL    HW219144  11.532   6.824  11.332
 5771SOL     OW19145   6.714   8.546  12.273
 5771SOL    HW119146   6.641   8.531  12.333
 5771SOL    HW219147   6.675   8.541  12.186
 5772SOL     OW19148  14.450   4.117   5.422
 5772SOL    HW119149  14.422   4.187   5.481
 5772SOL    HW219150  14.543   4.135   5.406
 5773SOL     OW19151  10.989   9.589   9.684
 5773SOL    HW119152  10.949   9.671   9.655
 5773SOL    HW219153  10.942   9.567   9.765
 5774SOL     OW19154   1.627  12.041  13.171
 5774SOL    HW119155   1.630  12.043  13.076
 5774SOL    HW219156   1.708  11.997  13.197
 5775SOL     OW19157   2.856  10.708   4.462
 5775SOL    HW119158   2.780  10.659   4.433
 5775SOL    HW219159   2.848  10.794   4.420
 5776SOL     OW19160   2.061   2.146   7.171
 5776SOL    HW119161   1.969   2.133   7.195
 5776SOL    HW219162   2.057   2.185   7.084
 5777SOL     OW19163   2.337  14.819   6.806
 5777SOL    HW119164   2.369   0.014   6.746
 5777SOL    HW219165   2.293  14.756   6.749
 5778SOL     OW19166  14.557   1.202  13.938
 5778SOL    HW119167  14.478   1.181  13.889
 5778SOL    HW219168  14.618   1.236  13.872
 5779SOL     OW19169   8.142   8.976   8.842
 5779SOL    HW119170   8.210   8.930   8.794
 5779SOL    HW219171   8.188   9.044   8.891
 5780SOL     OW19172   7.157   3.741   8.127
 5780SOL    HW119173   7.193   3.653   8.133
 5780SOL    HW219174   7.086   3.734   8.063
 5781SOL     OW19175   2.597   7.982   6.849
 5781SOL    HW119176   2.620   8.072   6.873
 5781SOL    HW219177   2.665   7.928   6.891
 5782SOL     OW19178  13.148   9.625   7.962
 5782SOL    HW119179  13.200   9.669   8.028
 5782SOL    HW219180  13.124   9.695   7.900
 5783SOL     OW19181   8.144  10.263  11.658
 5783SOL    HW119182   8.108  10.176  11.676
 5783SOL    HW219183   8.183  10.290  11.741
 5784SOL     OW19184   3.704   7.761  14.555
 5784SOL    HW119185   3.615   7.733  14.576
 5784SOL    HW219186   3.694   7.849  14.518
 5785SOL     OW19187   4.804   2.778   3.747
 5785SOL    HW119188   4.829   2.858   3.701
 5785SOL    HW219189   4.831   2.707   3.690
 5786SOL     OW19190   5.821   6.954  11.902
 5786SOL    HW119191   5.895   6.972  11.961
 5786SOL    HW219192   5.856   6.891  11.839
 5787SOL     OW19193  13.014   5.728  11.908
 5787SOL    HW119194  13.008   5.634  11.893
 5787SOL    HW219195  13.034   5.736  12.001
 5788SOL     OW19196   0.837  12.772   6.616
 5788SOL    HW119197   0.851  12.678   6.609
 5788SOL    HW219198   0.863  12.807   6.531
 5789SOL     OW19199   9.334   2.525   6.942
 5789SOL    HW119200   9.376   2.601   6.902
 5789SOL    HW219201   9.322   2.550   7.034
 5790SOL     OW19202   0.410   6.222  10.062
 5790SOL    HW119203   0.419   6.195   9.970
 5790SOL    HW219204   0.326   6.267  10.065
 5791SOL     OW19205   6.098   4.467  12.022
 5791SOL    HW119206   6.052   4.424  12.094
 5791SOL    HW219207   6.034   4.472  11.951
 5792SOL     OW19208   1.304  14.475   8.754
 5792SOL    HW119209   1.221  14.445   8.791
 5792SOL    HW219210   1.371  14.430   8.803
 5793SOL     OW19211   4.365   6.174  13.764
 5793SOL    HW119212   4.409   6.125  13.694
 5793SOL    HW219213   4.321   6.107  13.816
 5794SOL     OW19214  10.404   1.167   5.630
 5794SOL    HW119215  10.479   1.223   5.650
 5794SOL    HW219216  10.391   1.178   5.536
 5795SOL     OW19217   2.878   3.036  12.118
 5795SOL    HW119218   2.783   3.022  12.121
 5795SOL    HW219219   2.893   3.074  12.031
 5796SOL     OW19220   4.688  12.218   1.354
 5796SOL    HW119221   4.639  12.209   1.273
 5796SOL    HW219222   4.671  12.136   1.402
 5797SOL     OW19223  12.412   8.473   4.303
 5797SOL    HW119224  12.331   8.467   4.252
 5797SOL    HW219225  12.401   8.552   4.356
 5798SOL     OW19226   1.601  14.226   1.420
 5798SOL    HW119227   1.549  14.168   1.475
 5798SOL    HW219228   1.590  14.193   1.331
 5799SOL     OW19229  13.168   3.696   9.332
 5799SOL    HW119230  13.127   3.611   9.349
 5799SOL    HW219231  13.219   3.714   9.411
 5800SOL     OW19232   1.608   6.062   5.431
 5800SOL    HW119233   1.567   6.120   5.367
 5800SOL    HW219234   1.617   5.978   5.385
 5801SOL     OW19235   9.330  11.189   2.615
 5801SOL    HW119236   9.248  11.197   2.663
 5801SOL    HW219237   9.392  11.244   2.664
 5802SOL     OW19238   1.017   1.802   8.106
 5802SOL    HW119239   0.943   1.862   8.095
 5802SOL    HW219240   0.996   1.754   8.186
 5803SOL     OW19241  14.439   4.296   9.458
 5803SOL    HW119242  14.382   4.220   9.461
 5803SOL    HW219243  14.513   4.268   9.403
 5804SOL     OW19244  13.250   2.894   9.454
 5804SOL    HW119245  13.218   2.968   9.402
 5804SOL    HW219246  13.229   2.919   9.545
 5805SOL     OW19247   1.922   4.177   2.030
 5805SOL    HW119248   1.875   4.105   2.072
 5805SOL    HW219249   2.005   4.138   2.002
 5806SOL     OW19250   4.945   9.839  14.309
 5806SOL    HW119251   4.919   9.753  14.341
 5806SOL    HW219252   4.948   9.895  14.386
 5807SOL     OW19253   2.647  13.370   4.568
 5807SOL    HW119254   2.725  13.344   4.518
 5807SOL    HW219255   2.584  13.299   4.553
 5808SOL     OW19256   4.967  12.234   9.173
 5808SOL    HW119257   5.005  12.239   9.085
 5808SOL    HW219258   4.873  12.225   9.157
 5809SOL     OW19259   6.041   4.945   2.109
 5809SOL    HW119260   5.960   4.906   2.075
 5809SOL    HW219261   6.104   4.934   2.037
 5810SOL     OW19262   4.360  14.750   9.723
 5810SOL    HW119263   4.409  14.825   9.688
 5810SOL    HW219264   4.377  14.754   9.817
 5811SOL     OW19265  14.749   1.576  11.444
 5811SOL    HW119266  14.679   1.516  11.418
 5811SOL    HW219267  14.713   1.663  11.429
 5812SOL     OW19268  13.729  10.118   2.184
 5812SOL    HW119269  13.685  10.058   2.244
 5812SOL    HW219270  13.797  10.066   2.142
 5813SOL     OW19271  14.068   4.053   4.857
 5813SOL    HW119272  14.045   4.146   4.864
 5813SOL    HW219273  14.005   4.007   4.911
 5814SOL     OW19274   9.330   3.909   9.881
 5814SOL    HW119275   9.264   3.978   9.877
 5814SOL    HW219276   9.283   3.834   9.917
 5815SOL     OW19277   0.529   8.071  14.167
 5815SOL    HW119278   0.485   8.142  14.120
 5815SOL    HW219279   0.487   7.991  14.134
 5816SOL     OW19280   5.075  13.671  14.706
 5816SOL    HW119281   5.006  13.614  14.673
 5816SOL    HW219282   5.064  13.672  14.801
 5817SOL     OW19283   5.544  13.449  12.131
 5817SOL    HW119284   5.517  13.462  12.222
 5817SOL    HW219285   5.548  13.354  12.120
 5818SOL     OW19286   9.507  10.777   9.891
 5818SOL    HW119287   9.601  10.776   9.909
 5818SOL    HW219288   9.497  10.843   9.822
 5819SOL     OW19289  12.567   5.237  14.223
 5819SOL    HW119290  12.616   5.318  14.212
 5819SOL    HW219291  12.566   5.197  14.136
 5820SOL     OW19292   0.067   2.815  14.805
 5820SOL    HW119293   0.081   2.727  14.839
 5820SOL    HW219294   0.112   2.873  14.866
 5821SOL     OW19295   9.674   4.631   5.840
 5821SOL    HW119296   9.608   4.635   5.772
 5821SOL    HW219297   9.753   4.599   5.795
 5822SOL     OW19298   7.841   7.994   8.375
 5822SOL    HW119299   7.910   7.930   8.393
 5822SOL    HW219300   7.844   8.054   8.450
 5823SOL     OW19301  13.835  12.175   6.384
 5823SOL    HW119302  13.899  12.136   6.444
 5823SOL    HW219303  13.768  12.211   6.442
 5824SOL     OW19304   0.627   6.671   8.253
 5824SOL    HW119305   0.679   6.602   8.212
 5824SOL    HW219306   0.593   6.631   8.333
 5825SOL     OW19307   0.922  14.016   2.319
 5825SOL    HW119308   1.004  14.033   2.365
 5825SOL    HW219309   0.894  14.102   2.288
 5826SOL     OW19310   4.029  11.600   1.202
 5826SOL    HW119311   4.084  11.642   1.136
 5826SOL    HW219312   4.039  11.506   1.185
 5827SOL     OW19313   4.315  13.914   0.679
 5827SOL    HW119314   4.386  13.876   0.731
 5827SOL    HW219315   4.296  13.847   0.612
 5828SOL     OW19316   0.033  10.803  13.124
 5828SOL    HW119317  14.830  10.744  13.129
 5828SOL    HW219318   0.013  10.860  13.050
 5829SOL     OW19319  13.380  12.941  11.262
 5829SOL    HW119320  13.286  12.948  11.277
 5829SOL    HW219321  13.406  12.860  11.307
 5830SOL     OW19322  12.132   5.432   0.063
 5830SOL    HW119323  12.108   5.490  14.864
 5830SOL    HW219324  12.051   5.386   0.085
 5831SOL     OW19325   6.611  10.913   9.455
 5831SOL    HW119326   6.592  10.822   9.477
 5831SOL    HW219327   6.703  10.925   9.479
 5832SOL     OW19328  11.644   8.958   0.694
 5832SOL    HW119329  11.618   8.909   0.772
 5832SOL    HW219330  11.604   8.910   0.622
 5833SOL     OW19331  11.357  14.659  12.219
 5833SOL    HW119332  11.443  14.618  12.210
 5833SOL    HW219333  11.295  14.589  12.199
 5834SOL     OW19334   7.609  11.776  11.275
 5834SOL    HW119335   7.689  11.801  11.229
 5834SOL    HW219336   7.543  11.838  11.244
 5835SOL     OW19337   0.237   7.291   9.393
 5835SOL    HW119338   0.218   7.204   9.429
 5835SOL    HW219339   0.154   7.338   9.399
 5836SOL     OW19340  11.565   8.762   9.166
 5836SOL    HW119341  11.528   8.688   9.118
 5836SOL    HW219342  11.490   8.818   9.186
 5837SOL     OW19343  12.750   2.777   8.771
 5837SOL    HW119344  12.710   2.812   8.692
 5837SOL    HW219345  12.722   2.686   8.774
 5838SOL     OW19346   7.337   6.433  10.694
 5838SOL    HW119347   7.256   6.386  10.714
 5838SOL    HW219348   7.385   6.375  10.635
 5839SOL     OW19349  14.026   1.606  11.442
 5839SOL    HW119350  14.026   1.511  11.458
 5839SOL    HW219351  14.007   1.614  11.349
 5840SOL     OW19352   7.904   9.069  13.687
 5840SOL    HW119353   7.873   9.052  13.598
 5840SOL    HW219354   7.997   9.046  13.685
 5841SOL     OW19355   5.797   3.722   2.502
 5841SOL    HW119356   5.884   3.749   2.474
 5841SOL    HW219357   5.749   3.804   2.515
 5842SOL     OW19358   7.774  13.778  12.684
 5842SOL    HW119359   7.799  13.693  12.722
 5842SOL    HW219360   7.845  13.799  12.623
 5843SOL     OW19361   4.987   7.104   9.844
 5843SOL    HW119362   4.899   7.102   9.883
 5843SOL    HW219363   5.029   7.025   9.876
 5844SOL     OW19364   9.272   3.964  11.476
 5844SOL    HW119365   9.227   3.894  11.524
 5844SOL    HW219366   9.262   3.941  11.384
 5845SOL     OW19367  12.347   6.921   7.705
 5845SOL    HW119368  12.415   6.902   7.641
 5845SOL    HW219369  12.276   6.960   7.655
 5846SOL     OW19370   3.422   2.066  10.233
 5846SOL    HW119371   3.467   2.020  10.161
 5846SOL    HW219372   3.473   2.044  10.311
 5847SOL     OW19373  12.174   9.498   6.913
 5847SOL    HW119374  12.185   9.529   6.823
 5847SOL    HW219375  12.146   9.407   6.903
 5848SOL     OW19376   6.868   3.740  14.401
 5848SOL    HW119377   6.881   3.821  14.451
 5848SOL    HW219378   6.782   3.708  14.428
 5849SOL     OW19379   7.702  14.651   6.867
 5849SOL    HW119380   7.670  14.585   6.805
 5849SOL    HW219381   7.675  14.735   6.830
 5850SOL     OW19382   6.111  13.464   3.978
 5850SOL    HW119383   6.054  13.473   3.902
 5850SOL    HW219384   6.190  13.421   3.945
 5851SOL     OW19385   6.108   9.939   9.210
 5851SOL    HW119386   6.156   9.907   9.286
 5851SOL    HW219387   6.016   9.936   9.237
 5852SOL     OW19388  10.055  12.093  14.146
 5852SOL    HW119389   9.971  12.123  14.111
 5852SOL    HW219390  10.074  12.013  14.098
 5853SOL     OW19391   0.598   6.284   5.845
 5853SOL    HW119392   0.659   6.257   5.914
 5853SOL    HW219393   0.647   6.348   5.794
 5854SOL     OW19394  14.072  11.199   2.990
 5854SOL    HW119395  13.990  11.244   3.007
 5854SOL    HW219396  14.136  11.242   3.047
 5855SOL     OW19397   7.052   5.769   8.235
 5855SOL    HW119398   6.976   5.737   8.284
 5855SOL    HW219399   7.076   5.696   8.178
 5856SOL     OW19400   2.681   4.621  12.851
 5856SOL    HW119401   2.712   4.530  12.857
 5856SOL    HW219402   2.673   4.637  12.757
 5857SOL     OW19403  12.240   0.231   1.969
 5857SOL    HW119404  12.244   0.206   1.877
 5857SOL    HW219405  12.147   0.250   1.985
 5858SOL     OW19406  10.572   1.242   2.550
 5858SOL    HW119407  10.482   1.237   2.580
 5858SOL    HW219408  10.567   1.290   2.467
 5859SOL     OW19409   6.442   4.611   8.717
 5859SOL    HW119410   6.434   4.628   8.623
 5859SOL    HW219411   6.514   4.547   8.723
 5860SOL     OW19412   2.617   3.909   5.704
 5860SOL    HW119413   2.530   3.902   5.743
 5860SOL    HW219414   2.677   3.896   5.778
 5861SOL     OW19415   1.304   5.711  13.572
 5861SOL    HW119416   1.262   5.624  13.572
 5861SOL    HW219417   1.266   5.755  13.648
 5862SOL     OW19418   6.035   7.071   3.395
 5862SOL    HW119419   6.043   6.976   3.391
 5862SOL    HW219420   6.122   7.104   3.371
 5863SOL     OW19421   1.385   1.349   7.520
 5863SOL    HW119422   1.408   1.276   7.577
 5863SOL    HW219423   1.436   1.335   7.441
 5864SOL     OW19424  12.163   7.983   9.038
 5864SOL    HW119425  12.229   8.028   8.985
 5864SOL    HW219426  12.132   8.049   9.099
 5865SOL     OW19427   2.819   9.696   1.647
 5865SOL    HW119428   2.771   9.619   1.679
 5865SOL    HW219429   2.910   9.668   1.644
 5866SOL     OW19430   7.880   7.371   5.758
 5866SOL    HW119431   7.831   7.311   5.814
 5866SOL    HW219432   7.961   7.387   5.806
 5867SOL     OW19433   4.538   0.128   8.860
 5867SOL    HW119434   4.555   0.167   8.946
 5867SOL    HW219435   4.625   0.118   8.821
 5868SOL     OW19436   2.826   7.866  12.986
 5868SOL    HW119437   2.752   7.905  12.940
 5868SOL    HW219438   2.804   7.874  13.079
 5869SOL     OW19439   2.217  12.893   1.128
 5869SOL    HW119440   2.303  12.933   1.140
 5869SOL    HW219441   2.227  12.839   1.048
 5870SOL     OW19442  10.803   9.417  14.356
 5870SOL    HW119443  10.774   9.495  14.308
 5870SOL    HW219444  10.829   9.355  14.288
 5871SOL     OW19445   1.201   8.734  14.140
 5871SOL    HW119446   1.180   8.694  14.056
 5871SOL    HW219447   1.120   8.726  14.192
 5872SOL     OW19448  10.365   9.417  13.208
 5872SOL    HW119449  10.386   9.417  13.302
 5872SOL    HW219450  10.442   9.381  13.166
 5873SOL     OW19451  14.053   7.554   7.577
 5873SOL    HW119452  14.140   7.542   7.614
 5873SOL    HW219453  13.998   7.578   7.651
 5874SOL     OW19454   3.189  12.356  13.757
 5874SOL    HW119455   3.222  12.394  13.838
 5874SOL    HW219456   3.116  12.413  13.731
 5875SOL     OW19457   7.924  12.028   5.038
 5875SOL    HW119458   7.868  11.975   4.982
 5875SOL    HW219459   7.873  12.108   5.052
 5876SOL     OW19460   1.403  11.726   7.222
 5876SOL    HW119461   1.472  11.762   7.166
 5876SOL    HW219462   1.358  11.803   7.258
 5877SOL     OW19463   9.664  11.568   4.754
 5877SOL    HW119464   9.614  11.529   4.825
 5877SOL    HW219465   9.689  11.654   4.787
 5878SOL     OW19466  11.015   5.597   0.229
 5878SOL    HW119467  10.921   5.602   0.212
 5878SOL    HW219468  11.045   5.688   0.228
 5879SOL     OW19469   1.531   7.380   2.326
 5879SOL    HW119470   1.586   7.341   2.258
 5879SOL    HW219471   1.454   7.324   2.331
 5880SOL     OW19472  12.290  11.845  11.467
 5880SOL    HW119473  12.237  11.771  11.499
 5880SOL    HW219474  12.315  11.818  11.379
 5881SOL     OW19475  11.984   6.796  14.545
 5881SOL    HW119476  11.980   6.842  14.630
 5881SOL    HW219477  12.067   6.824  14.507
 5882SOL     OW19478   6.405   7.889   0.437
 5882SOL    HW119479   6.451   7.808   0.414
 5882SOL    HW219480   6.383   7.929   0.353
 5883SOL     OW19481  10.750  11.057  12.217
 5883SOL    HW119482  10.822  11.098  12.265
 5883SOL    HW219483  10.788  11.030  12.133
 5884SOL     OW19484   2.429   3.384   5.732
 5884SOL    HW119485   2.473   3.464   5.705
 5884SOL    HW219486   2.438   3.383   5.828
 5885SOL     OW19487   3.126  13.974   1.122
 5885SOL    HW119488   3.088  13.932   1.199
 5885SOL    HW219489   3.137  14.065   1.147
 5886SOL     OW19490   0.045   3.968   3.012
 5886SOL    HW119491  14.871   3.918   2.944
 5886SOL    HW219492   0.025   3.922   3.093
 5887SOL     OW19493   6.141  13.999   7.276
 5887SOL    HW119494   6.100  13.985   7.361
 5887SOL    HW219495   6.072  13.980   7.213
 5888SOL     OW19496  14.287  13.483   3.393
 5888SOL    HW119497  14.332  13.419   3.449
 5888SOL    HW219498  14.350  13.554   3.383
 5889SOL     OW19499  12.138   4.762   5.784
 5889SOL    HW119500  12.126   4.672   5.814
 5889SOL    HW219501  12.233   4.774   5.782
 5890SOL     OW19502   3.530  13.633  13.389
 5890SOL    HW119503   3.549  13.600  13.301
 5890SOL    HW219504   3.570  13.569  13.448
 5891SOL     OW19505   3.381   9.441   7.852
 5891SOL    HW119506   3.447   9.390   7.900
 5891SOL    HW219507   3.373   9.523   7.901
 5892SOL     OW19508   8.939  13.648  12.866
 5892SOL    HW119509   8.866  13.669  12.924
 5892SOL    HW219510   8.949  13.726  12.811
 5893SOL     OW19511   5.701   9.895   9.749
 5893SOL    HW119512   5.628   9.833   9.741
 5893SOL    HW219513   5.704   9.917   9.842
 5894SOL     OW19514   7.819   4.699   4.533
 5894SOL    HW119515   7.914   4.704   4.547
 5894SOL    HW219516   7.787   4.786   4.559
 5895SOL     OW19517   4.458   7.829   6.746
 5895SOL    HW119518   4.467   7.740   6.780
 5895SOL    HW219519   4.461   7.819   6.651
 5896SOL     OW19520  12.368   5.501  13.957
 5896SOL    HW119521  12.358   5.562  13.884
 5896SOL    HW219522  12.347   5.415  13.919
 5897SOL     OW19523  14.078   5.902  12.576
 5897SOL    HW119524  14.001   5.951  12.548
 5897SOL    HW219525  14.057   5.811  12.555
 5898SOL     OW19526  10.236   5.500   5.253
 5898SOL    HW119527  10.326   5.527   5.271
 5898SOL    HW219528  10.216   5.434   5.320
 5899SOL     OW19529   4.382   0.327   5.094
 5899SOL    HW119530   4.352   0.237   5.105
 5899SOL    HW219531   4.343   0.356   5.012
 5900SOL     OW19532  11.825   5.287   6.717
 5900SOL    HW119533  11.833   5.280   6.621
 5900SOL    HW219534  11.906   5.332   6.744
 5901SOL     OW19535  10.794  12.003  14.218
 5901SOL    HW119536  10.710  12.046  14.202
 5901SOL    HW219537  10.846  12.023  14.140
 5902SOL     OW19538   2.404   7.065  10.746
 5902SOL    HW119539   2.427   7.012  10.670
 5902SOL    HW219540   2.426   7.155  10.720
 5903SOL     OW19541   4.504   9.332   2.246
 5903SOL    HW119542   4.493   9.364   2.336
 5903SOL    HW219543   4.427   9.365   2.200
 5904SOL     OW19544   7.818   6.454  10.641
 5904SOL    HW119545   7.835   6.474  10.734
 5904SOL    HW219546   7.875   6.516  10.594
 5905SOL     OW19547  11.288   2.463  10.827
 5905SOL    HW119548  11.234   2.515  10.768
 5905SOL    HW219549  11.260   2.373  10.813
 5906SOL     OW19550  10.129  12.328   3.251
 5906SOL    HW119551  10.050  12.367   3.289
 5906SOL    HW219552  10.113  12.233   3.256
 5907SOL     OW19553  14.369  13.416   1.754
 5907SOL    HW119554  14.363  13.334   1.803
 5907SOL    HW219555  14.328  13.396   1.670
 5908SOL     OW19556   3.219  14.167   7.234
 5908SOL    HW119557   3.302  14.128   7.263
 5908SOL    HW219558   3.224  14.166   7.139
 5909SOL     OW19559  11.185   1.771  14.699
 5909SOL    HW119560  11.154   1.845  14.751
 5909SOL    HW219561  11.137   1.777  14.616
 5910SOL     OW19562  11.563  10.312   9.759
 5910SOL    HW119563  11.564  10.273   9.671
 5910SOL    HW219564  11.537  10.240   9.817
 5911SOL     OW19565   2.147  11.229  14.249
 5911SOL    HW119566   2.230  11.180  14.252
 5911SOL    HW219567   2.106  11.211  14.333
 5912SOL     OW19568   7.964  12.744   2.010
 5912SOL    HW119569   7.921  12.806   2.068
 5912SOL    HW219570   7.896  12.717   1.948
 5913SOL     OW19571   3.234  11.089  12.011
 5913SOL    HW119572   3.201  11.001  12.028
 5913SOL    HW219573   3.221  11.102  11.917
 5914SOL     OW19574  13.021   5.906   3.505
 5914SOL    HW119575  13.078   5.836   3.536
 5914SOL    HW219576  13.076   5.985   3.508
 5915SOL     OW19577   2.397   0.538   6.477
 5915SOL    HW119578   2.316   0.565   6.520
 5915SOL    HW219579   2.419   0.454   6.518
 5916SOL     OW19580  13.013   7.086   5.101
 5916SOL    HW119581  12.950   7.151   5.134
 5916SOL    HW219582  13.034   7.117   5.013
 5917SOL     OW19583   9.389  14.807   8.050
 5917SOL    HW119584   9.462  14.860   8.017
 5917SOL    HW219585   9.358  14.759   7.973
 5918SOL     OW19586   0.976   8.501  12.100
 5918SOL    HW119587   0.971   8.541  12.013
 5918SOL    HW219588   1.066   8.467  12.105
 5919SOL     OW19589  11.985   4.313  11.923
 5919SOL    HW119590  11.981   4.250  11.851
 5919SOL    HW219591  12.060   4.284  11.975
 5920SOL     OW19592  12.824   3.630   9.470
 5920SOL    HW119593  12.800   3.664   9.384
 5920SOL    HW219594  12.895   3.688   9.500
 5921SOL     OW19595  14.166  12.129  10.394
 5921SOL    HW119596  14.137  12.171  10.475
 5921SOL    HW219597  14.148  12.036  10.407
 5922SOL     OW19598   8.171   3.758   2.493
 5922SOL    HW119599   8.131   3.841   2.467
 5922SOL    HW219600   8.121   3.692   2.444
 5923SOL     OW19601  14.085   4.208   6.395
 5923SOL    HW119602  14.057   4.279   6.452
 5923SOL    HW219603  14.160   4.244   6.347
 5924SOL     OW19604   0.133  10.206   0.456
 5924SOL    HW119605   0.087  10.145   0.514
 5924SOL    HW219606   0.178  10.266   0.515
 5925SOL     OW19607  11.049  11.317   9.943
 5925SOL    HW119608  11.117  11.350   9.884
 5925SOL    HW219609  11.055  11.373  10.020
 5926SOL     OW19610  12.679   0.647  12.666
 5926SOL    HW119611  12.594   0.607  12.647
 5926SOL    HW219612  12.705   0.608  12.750
 5927SOL     OW19613  13.059  12.167  11.609
 5927SOL    HW119614  13.098  12.081  11.623
 5927SOL    HW219615  13.134  12.227  11.606
 5928SOL     OW19616   6.635   5.674  11.521
 5928SOL    HW119617   6.586   5.754  11.502
 5928SOL    HW219618   6.622   5.619  11.444
 5929SOL     OW19619   7.688  10.305  12.342
 5929SOL    HW119620   7.660  10.213  12.335
 5929SOL    HW219621   7.657  10.346  12.262
 5930SOL     OW19622   5.776   8.947   7.110
 5930SOL    HW119623   5.805   8.955   7.019
 5930SOL    HW219624   5.820   8.869   7.142
 5931SOL     OW19625  12.980   4.531   4.457
 5931SOL    HW119626  12.959   4.441   4.436
 5931SOL    HW219627  12.933   4.548   4.539
 5932SOL     OW19628   6.232   7.620   6.551
 5932SOL    HW119629   6.210   7.560   6.480
 5932SOL    HW219630   6.148   7.641   6.592
 5933SOL     OW19631   9.063   1.818  11.550
 5933SOL    HW119632   8.974   1.788  11.571
 5933SOL    HW219633   9.078   1.891  11.610
 5934SOL     OW19634   6.558   3.753  12.755
 5934SOL    HW119635   6.483   3.768  12.697
 5934SOL    HW219636   6.573   3.659  12.752
 5935SOL     OW19637   5.412  14.501   9.649
 5935SOL    HW119638   5.330  14.454   9.664
 5935SOL    HW219639   5.435  14.480   9.558
 5936SOL     OW19640  11.364   4.859   0.242
 5936SOL    HW119641  11.304   4.809   0.297
 5936SOL    HW219642  11.412   4.914   0.303
 5937SOL     OW19643  11.875   3.255  14.424
 5937SOL    HW119644  11.794   3.208  14.406
 5937SOL    HW219645  11.848   3.345  14.442
 5938SOL     OW19646  10.138   4.926   1.181
 5938SOL    HW119647  10.086   4.855   1.145
 5938SOL    HW219648  10.078   5.001   1.185
 5939SOL     OW19649  10.346   1.535   2.166
 5939SOL    HW119650  10.322   1.627   2.151
 5939SOL    HW219651  10.308   1.488   2.091
 5940SOL     OW19652  13.480  14.171  12.419
 5940SOL    HW119653  13.509  14.150  12.508
 5940SOL    HW219654  13.482  14.267  12.416
 5941SOL     OW19655   3.465   2.231   0.634
 5941SOL    HW119656   3.553   2.221   0.599
 5941SOL    HW219657   3.432   2.141   0.644
 5942SOL     OW19658  11.063   1.375   0.923
 5942SOL    HW119659  11.096   1.322   0.850
 5942SOL    HW219660  11.140   1.419   0.958
 5943SOL     OW19661  11.215  13.745   5.883
 5943SOL    HW119662  11.273  13.820   5.872
 5943SOL    HW219663  11.268  13.669   5.861
 5944SOL     OW19664   3.622  12.879   5.811
 5944SOL    HW119665   3.543  12.826   5.805
 5944SOL    HW219666   3.667  12.865   5.728
 5945SOL     OW19667   8.106   8.322   5.375
 5945SOL    HW119668   8.065   8.350   5.293
 5945SOL    HW219669   8.096   8.226   5.375
 5946SOL     OW19670   1.356  13.785  14.597
 5946SOL    HW119671   1.313  13.710  14.638
 5946SOL    HW219672   1.309  13.861  14.632
 5947SOL     OW19673   3.896  14.230   9.783
 5947SOL    HW119674   3.979  14.182   9.781
 5947SOL    HW219675   3.885  14.255   9.875
 5948SOL     OW19676   6.972   0.339   0.143
 5948SOL    HW119677   6.995   0.300   0.059
 5948SOL    HW219678   6.900   0.399   0.122
 5949SOL     OW19679  10.048   6.209  14.215
 5949SOL    HW119680  10.078   6.202  14.305
 5949SOL    HW219681  10.121   6.249  14.168
 5950SOL     OW19682   5.268   2.890   8.319
 5950SOL    HW119683   5.203   2.950   8.283
 5950SOL    HW219684   5.230   2.803   8.306
 5951SOL     OW19685   4.079  11.137   4.453
 5951SOL    HW119686   4.000  11.187   4.433
 5951SOL    HW219687   4.047  11.060   4.500
 5952SOL     OW19688  10.960  10.101  11.158
 5952SOL    HW119689  10.895  10.093  11.089
 5952SOL    HW219690  10.913  10.144  11.230
 5953SOL     OW19691   4.988  14.463   9.897
 5953SOL    HW119692   5.063  14.418   9.859
 5953SOL    HW219693   4.934  14.486   9.821
 5954SOL     OW19694  13.297   6.944   2.478
 5954SOL    HW119695  13.239   7.019   2.464
 5954SOL    HW219696  13.384   6.978   2.455
 5955SOL     OW19697  11.285  11.907   5.162
 5955SOL    HW119698  11.341  11.985   5.158
 5955SOL    HW219699  11.330  11.848   5.222
 5956SOL     OW19700   3.396  13.557   4.204
 5956SOL    HW119701   3.384  13.633   4.261
 5956SOL    HW219702   3.401  13.482   4.263
 5957SOL     OW19703   5.990   1.575  12.782
 5957SOL    HW119704   6.053   1.585  12.853
 5957SOL    HW219705   5.988   1.482  12.763
 5958SOL     OW19706   9.419   6.187   5.635
 5958SOL    HW119707   9.469   6.110   5.607
 5958SOL    HW219708   9.328   6.164   5.617
 5959SOL     OW19709   2.678   8.685   4.612
 5959SOL    HW119710   2.675   8.680   4.708
 5959SOL    HW219711   2.714   8.771   4.593
 5960SOL     OW19712   3.082   3.812  10.282
 5960SOL    HW119713   3.158   3.800  10.338
 5960SOL    HW219714   3.100   3.758  10.205
 5961SOL     OW19715  14.726  11.923  10.564
 5961SOL    HW119716  14.696  11.851  10.507
 5961SOL    HW219717  14.699  11.897  10.652
 5962SOL     OW19718   6.792   3.752   3.462
 5962SOL    HW119719   6.813   3.700   3.540
 5962SOL    HW219720   6.722   3.704   3.419
 5963SOL     OW19721  12.142   5.646   4.323
 5963SOL    HW119722  12.103   5.667   4.407
 5963SOL    HW219723  12.118   5.720   4.266
 5964SOL     OW19724   6.863  13.054  10.216
 5964SOL    HW119725   6.778  13.009  10.215
 5964SOL    HW219726   6.908  13.022  10.139
 5965SOL     OW19727   9.564   7.209   5.577
 5965SOL    HW119728   9.542   7.228   5.486
 5965SOL    HW219729   9.482   7.220   5.625
 5966SOL     OW19730   0.636   6.645   4.700
 5966SOL    HW119731   0.613   6.618   4.789
 5966SOL    HW219732   0.722   6.686   4.708
 5967SOL     OW19733   7.381  10.348   8.568
 5967SOL    HW119734   7.321  10.402   8.620
 5967SOL    HW219735   7.394  10.270   8.621
 5968SOL     OW19736   9.548   8.570   5.513
 5968SOL    HW119737   9.489   8.641   5.486
 5968SOL    HW219738   9.490   8.497   5.534
 5969SOL     OW19739   3.150   4.900   6.063
 5969SOL    HW119740   3.186   4.928   5.979
 5969SOL    HW219741   3.225   4.860   6.108
 5970SOL     OW19742   7.273   5.978   6.324
 5970SOL    HW119743   7.198   6.023   6.285
 5970SOL    HW219744   7.259   5.886   6.303
 5971SOL     OW19745   5.637   5.201   0.930
 5971SOL    HW119746   5.578   5.274   0.947
 5971SOL    HW219747   5.725   5.239   0.938
 5972SOL     OW19748  14.592   8.542   2.804
 5972SOL    HW119749  14.645   8.478   2.851
 5972SOL    HW219750  14.521   8.564   2.864
 5973SOL     OW19751   3.604   0.704  12.205
 5973SOL    HW119752   3.547   0.672  12.274
 5973SOL    HW219753   3.681   0.646  12.207
 5974SOL     OW19754   6.246  12.049   9.495
 5974SOL    HW119755   6.306  12.050   9.421
 5974SOL    HW219756   6.177  11.988   9.469
 5975SOL     OW19757  11.358   5.457  14.230
 5975SOL    HW119758  11.448   5.464  14.261
 5975SOL    HW219759  11.316   5.396  14.291
 5976SOL     OW19760   3.374  11.264   0.818
 5976SOL    HW119761   3.311  11.246   0.749
 5976SOL    HW219762   3.401  11.354   0.804
 5977SOL     OW19763  12.664  12.762   0.053
 5977SOL    HW119764  12.630  12.764   0.143
 5977SOL    HW219765  12.758  12.747   0.064
 5978SOL     OW19766   2.909  12.964   9.402
 5978SOL    HW119767   2.816  12.963   9.383
 5978SOL    HW219768   2.915  12.954   9.497
 5979SOL     OW19769   6.536   8.252   5.034
 5979SOL    HW119770   6.513   8.162   5.011
 5979SOL    HW219771   6.456   8.288   5.071
 5980SOL     OW19772   1.226   5.129   8.761
 5980SOL    HW119773   1.253   5.112   8.851
 5980SOL    HW219774   1.279   5.069   8.708
 5981SOL     OW19775   2.991  10.049  12.512
 5981SOL    HW119776   3.027  10.136  12.531
 5981SOL    HW219777   2.900  10.054  12.543
 5982SOL     OW19778   7.597   2.100   7.090
 5982SOL    HW119779   7.684   2.091   7.128
 5982SOL    HW219780   7.537   2.088   7.163
 5983SOL     OW19781   5.343   4.614   9.166
 5983SOL    HW119782   5.342   4.519   9.155
 5983SOL    HW219783   5.296   4.629   9.249
 5984SOL     OW19784   0.683  14.351  14.804
 5984SOL    HW119785   0.747  14.409  14.844
 5984SOL    HW219786   0.712  14.263  14.828
 5985SOL     OW19787   1.559  14.513   7.822
 5985SOL    HW119788   1.602  14.470   7.749
 5985SOL    HW219789   1.500  14.577   7.781
 5986SOL     OW19790   7.653  14.072   7.211
 5986SOL    HW119791   7.692  14.085   7.298
 5986SOL    HW219792   7.673  14.154   7.164
 5987SOL     OW19793   4.869   2.158   9.546
 5987SOL    HW119794   4.889   2.115   9.463
 5987SOL    HW219795   4.885   2.091   9.613
 5988SOL     OW19796   7.776   5.398   2.044
 5988SOL    HW119797   7.685   5.372   2.027
 5988SOL    HW219798   7.828   5.342   1.986
 5989SOL     OW19799  10.885   7.198  12.758
 5989SOL    HW119800  10.898   7.258  12.684
 5989SOL    HW219801  10.947   7.127  12.742
 5990SOL     OW19802  11.629   9.466   6.602
 5990SOL    HW119803  11.625   9.431   6.690
 5990SOL    HW219804  11.720   9.493   6.591
 5991SOL     OW19805  13.767   6.622   6.148
 5991SOL    HW119806  13.692   6.582   6.193
 5991SOL    HW219807  13.737   6.710   6.126
 5992SOL     OW19808  11.779   7.025   7.674
 5992SOL    HW119809  11.776   7.101   7.615
 5992SOL    HW219810  11.714   6.965   7.639
 5993SOL     OW19811   5.036   9.878   4.472
 5993SOL    HW119812   5.101   9.942   4.444
 5993SOL    HW219813   5.009   9.835   4.391
 5994SOL     OW19814  14.194   4.080   3.398
 5994SOL    HW119815  14.220   3.993   3.368
 5994SOL    HW219816  14.140   4.064   3.475
 5995SOL     OW19817  11.370   9.241   5.018
 5995SOL    HW119818  11.300   9.186   4.984
 5995SOL    HW219819  11.371   9.224   5.112
 5996SOL     OW19820   4.855  13.124  12.583
 5996SOL    HW119821   4.821  13.083  12.663
 5996SOL    HW219822   4.804  13.205  12.574
 5997SOL     OW19823   6.633   0.901   0.808
 5997SOL    HW119824   6.539   0.897   0.821
 5997SOL    HW219825   6.652   0.835   0.741
 5998SOL     OW19826  11.893  11.567   6.297
 5998SOL    HW119827  11.910  11.654   6.333
 5998SOL    HW219828  11.798  11.558   6.300
 5999SOL     OW19829   5.689   3.995   6.972
 5999SOL    HW119830   5.610   3.992   6.918
 5999SOL    HW219831   5.670   3.939   7.047
 6000SOL     OW19832  12.147  11.252  12.995
 6000SOL    HW119833  12.125  11.233  12.904
 6000SOL    HW219834  12.074  11.305  13.027
 6001SOL     OW19835  10.088   3.477   2.229
 6001SOL    HW119836  10.037   3.397   2.210
 6001SOL    HW219837  10.026   3.535   2.272
 6002SOL     OW19838  13.327   3.920   1.565
 6002SOL    HW119839  13.318   3.828   1.538
 6002SOL    HW219840  13.343   3.968   1.483
 6003SOL     OW19841   6.494   3.111   0.345
 6003SOL    HW119842   6.580   3.076   0.367
 6003SOL    HW219843   6.485   3.189   0.401
 6004SOL     OW19844   4.795   1.844   0.915
 6004SOL    HW119845   4.772   1.908   0.848
 6004SOL    HW219846   4.748   1.764   0.889
 6005SOL     OW19847   4.152   4.631   4.235
 6005SOL    HW119848   4.078   4.691   4.235
 6005SOL    HW219849   4.128   4.563   4.172
 6006SOL     OW19850  12.445   4.053  12.261
 6006SOL    HW119851  12.518   4.063  12.323
 6006SOL    HW219852  12.380   4.116  12.291
 6007SOL     OW19853  10.295   9.316   6.213
 6007SOL    HW119854  10.337   9.230   6.219
 6007SOL    HW219855  10.297   9.350   6.302
 6008SOL     OW19856  13.737   1.478   7.560
 6008SOL    HW119857  13.743   1.390   7.524
 6008SOL    HW219858  13.819   1.521   7.535
 6009SOL     OW19859   8.160  13.988   8.455
 6009SOL    HW119860   8.166  13.893   8.455
 6009SOL    HW219861   8.113  14.009   8.374
 6010SOL     OW19862   4.787  13.259   8.107
 6010SOL    HW119863   4.874  13.258   8.146
 6010SOL    HW219864   4.755  13.169   8.116
 6011SOL     OW19865  14.219  11.276   6.538
 6011SOL    HW119866  14.178  11.190   6.547
 6011SOL    HW219867  14.282  11.280   6.610
 6012SOL     OW19868  14.083   4.524  10.110
 6012SOL    HW119869  14.086   4.577  10.030
 6012SOL    HW219870  14.169   4.538  10.150
 6013SOL     OW19871   4.305   4.600   9.283
 6013SOL    HW119872   4.227   4.547   9.268
 6013SOL    HW219873   4.378   4.542   9.260
 6014SOL     OW19874   4.805   4.123  11.362
 6014SOL    HW119875   4.772   4.212  11.366
 6014SOL    HW219876   4.851   4.110  11.445
 6015SOL     OW19877  12.003  11.994   3.227
 6015SOL    HW119878  12.003  12.060   3.157
 6015SOL    HW219879  11.936  11.931   3.202
 6016SOL     OW19880   7.657   6.712   9.264
 6016SOL    HW119881   7.642   6.761   9.344
 6016SOL    HW219882   7.747   6.734   9.239
 6017SOL     OW19883   5.275  10.485   2.219
 6017SOL    HW119884   5.204  10.547   2.231
 6017SOL    HW219885   5.270  10.428   2.296
 6018SOL     OW19886   8.911  12.266   2.260
 6018SOL    HW119887   8.961  12.303   2.333
 6018SOL    HW219888   8.885  12.179   2.290
 6019SOL     OW19889   2.631   6.277  13.080
 6019SOL    HW119890   2.601   6.206  13.022
 6019SOL    HW219891   2.550   6.316  13.113
 6020SOL     OW19892   3.727   9.303   0.490
 6020SOL    HW119893   3.634   9.281   0.493
 6020SOL    HW219894   3.762   9.248   0.419
 6021SOL     OW19895  13.493   6.993  11.040
 6021SOL    HW119896  13.457   6.989  10.952
 6021SOL    HW219897  13.421   6.964  11.097
 6022SOL     OW19898   0.288   8.045  12.581
 6022SOL    HW119899   0.232   8.088  12.517
 6022SOL    HW219900   0.255   7.955  12.585
 6023SOL     OW19901   6.456   2.246   0.123
 6023SOL    HW119902   6.371   2.291   0.125
 6023SOL    HW219903   6.505   2.290   0.053
 6024SOL     OW19904   1.255   4.432  13.907
 6024SOL    HW119905   1.349   4.445  13.918
 6024SOL    HW219906   1.247   4.376  13.829
 6025SOL     OW19907   7.965   1.458   8.518
 6025SOL    HW119908   8.020   1.420   8.450
 6025SOL    HW219909   7.889   1.400   8.523
 6026SOL     OW19910   5.590  12.486  12.434
 6026SOL    HW119911   5.538  12.453  12.360
 6026SOL    HW219912   5.590  12.581  12.421
 6027SOL     OW19913  11.156   2.996  12.997
 6027SOL    HW119914  11.087   3.023  12.936
 6027SOL    HW219915  11.168   3.072  13.054
 6028SOL     OW19916   5.934  11.292   3.573
 6028SOL    HW119917   5.931  11.388   3.570
 6028SOL    HW219918   5.900  11.270   3.660
 6029SOL     OW19919   5.172  10.277  14.029
 6029SOL    HW119920   5.262  10.304  14.046
 6029SOL    HW219921   5.119  10.331  14.088
 6030SOL     OW19922   2.835  12.658   9.606
 6030SOL    HW119923   2.849  12.564   9.619
 6030SOL    HW219924   2.831  12.669   9.511
 6031SOL     OW19925   8.932  10.259   0.662
 6031SOL    HW119926   8.940  10.183   0.720
 6031SOL    HW219927   8.849  10.246   0.616
 6032SOL     OW19928   5.083   2.025   1.760
 6032SOL    HW119929   5.024   1.953   1.782
 6032SOL    HW219930   5.170   1.987   1.768
 6033SOL     OW19931   7.420  11.121   9.141
 6033SOL    HW119932   7.396  11.213   9.150
 6033SOL    HW219933   7.351  11.083   9.087
 6034SOL     OW19934   0.525   7.742   2.303
 6034SOL    HW119935   0.514   7.798   2.379
 6034SOL    HW219936   0.540   7.655   2.340
 6035SOL     OW19937   6.244   3.618   0.723
 6035SOL    HW119938   6.246   3.579   0.810
 6035SOL    HW219939   6.204   3.703   0.736
 6036SOL     OW19940   6.584  12.744  12.956
 6036SOL    HW119941   6.629  12.753  13.040
 6036SOL    HW219942   6.573  12.649  12.945
 6037SOL     OW19943   6.088   5.326   7.073
 6037SOL    HW119944   6.139   5.375   7.008
 6037SOL    HW219945   6.150   5.263   7.110
 6038SOL     OW19946   2.544   2.669   4.626
 6038SOL    HW119947   2.555   2.726   4.550
 6038SOL    HW219948   2.507   2.726   4.694
 6039SOL     OW19949  14.374   8.681   7.848
 6039SOL    HW119950  14.376   8.588   7.869
 6039SOL    HW219951  14.466   8.706   7.841
 6040SOL     OW19952   1.563   7.978   0.342
 6040SOL    HW119953   1.614   8.058   0.355
 6040SOL    HW219954   1.513   7.994   0.261
 6041SOL     OW19955   7.915   7.620  14.251
 6041SOL    HW119956   7.943   7.667  14.330
 6041SOL    HW219957   7.985   7.556  14.236
 6042SOL     OW19958   1.435   8.961   0.603
 6042SOL    HW119959   1.380   9.007   0.666
 6042SOL    HW219960   1.388   8.969   0.520
 6043SOL     OW19961   0.010   0.450  10.102
 6043SOL    HW119962   0.025   0.413  10.189
 6043SOL    HW219963   0.096   0.447  10.059
 6044SOL     OW19964   5.955   0.028  10.609
 6044SOL    HW119965   5.889  14.839  10.640
 6044SOL    HW219966   6.021  14.846  10.568
 6045SOL     OW19967   7.124   0.967   4.859
 6045SOL    HW119968   7.150   0.889   4.811
 6045SOL    HW219969   7.040   0.992   4.820
 6046SOL     OW19970  14.514   0.238   9.840
 6046SOL    HW119971  14.435   0.223   9.787
 6046SOL    HW219972  14.490   0.309   9.899
 6047SOL     OW19973  11.140  11.190   8.931
 6047SOL    HW119974  11.206  11.149   8.986
 6047SOL    HW219975  11.060  11.188   8.984
 6048SOL     OW19976   6.661   2.228   9.937
 6048SOL    HW119977   6.751   2.228   9.969
 6048SOL    HW219978   6.664   2.180   9.855
 6049SOL     OW19979   2.696   3.700   8.216
 6049SOL    HW119980   2.732   3.633   8.158
 6049SOL    HW219981   2.749   3.778   8.198
 6050SOL     OW19982   3.547  10.355   7.831
 6050SOL    HW119983   3.500  10.432   7.864
 6050SOL    HW219984   3.629  10.355   7.879
 6051SOL     OW19985   2.810   4.488   9.921
 6051SOL    HW119986   2.755   4.412   9.901
 6051SOL    HW219987   2.840   4.473  10.010
 6052SOL     OW19988   9.400   8.813   4.543
 6052SOL    HW119989   9.374   8.895   4.584
 6052SOL    HW219990   9.404   8.833   4.449
 6053SOL     OW19991   2.416   6.464   9.945
 6053SOL    HW119992   2.358   6.538   9.963
 6053SOL    HW219993   2.466   6.452  10.026
 6054SOL     OW19994   3.194   3.601   2.042
 6054SOL    HW119995   3.277   3.635   2.075
 6054SOL    HW219996   3.142   3.678   2.021
 6055SOL     OW19997  14.080  11.196   3.429
 6055SOL    HW119998  14.146  11.233   3.371
 6055SOL    HW219999  14.130  11.152   3.498
 6056SOL     OW20000  11.314   2.990   4.834
 6056SOL    HW120001  11.320   2.905   4.878
 6056SOL    HW220002  11.234   3.029   4.870
 6057SOL     OW20003   9.602  10.202  12.917
 6057SOL    HW120004   9.568  10.116  12.891
 6057SOL    HW220005   9.616  10.195  13.011
 6058SOL     OW20006  11.507   8.826   4.401
 6058SOL    HW120007  11.431   8.782   4.361
 6058SOL    HW220008  11.531   8.894   4.339
 6059SOL     OW20009  13.261  11.476  11.237
 6059SOL    HW120010  13.322  11.426  11.182
 6059SOL    HW220011  13.315  11.511  11.308
 6060SOL     OW20012  12.234   6.078   7.788
 6060SOL    HW120013  12.186   6.107   7.710
 6060SOL    HW220014  12.323   6.062   7.757
 6061SOL     OW20015  10.936   8.742  11.821
 6061SOL    HW120016  11.004   8.676  11.815
 6061SOL    HW220017  10.970   8.806  11.884
 6062SOL     OW20018   6.389  14.002   2.165
 6062SOL    HW120019   6.441  13.963   2.095
 6062SOL    HW220020   6.319  14.049   2.121
 6063SOL     OW20021  11.784   4.499   8.608
 6063SOL    HW120022  11.767   4.566   8.674
 6063SOL    HW220023  11.876   4.511   8.584
 6064SOL     OW20024   7.511   5.247   2.346
 6064SOL    HW120025   7.539   5.261   2.436
 6064SOL    HW220026   7.471   5.330   2.320
 6065SOL     OW20027   7.165   9.435   1.676
 6065SOL    HW120028   7.078   9.429   1.637
 6065SOL    HW220029   7.149   9.422   1.770
 6066SOL     OW20030  10.902   3.613  13.433
 6066SOL    HW120031  10.984   3.566  13.427
 6066SOL    HW220032  10.897   3.641  13.525
 6067SOL     OW20033  13.266   6.637   0.659
 6067SOL    HW120034  13.341   6.581   0.642
 6067SOL    HW220035  13.196   6.576   0.682
 6068SOL     OW20036  12.011   0.052  12.241
 6068SOL    HW120037  11.933  14.871  12.253
 6068SOL    HW220038  11.980   0.128  12.191
 6069SOL     OW20039  13.151  12.132   5.743
 6069SOL    HW120040  13.104  12.060   5.701
 6069SOL    HW220041  13.231  12.091   5.778
 6070SOL     OW20042  13.312  12.291  11.726
 6070SOL    HW120043  13.242  12.316  11.787
 6070SOL    HW220044  13.375  12.244  11.781
 6071SOL     OW20045   2.014   7.813   1.622
 6071SOL    HW120046   2.071   7.736   1.627
 6071SOL    HW220047   2.060   7.874   1.564
 6072SOL     OW20048  11.849   6.065   2.780
 6072SOL    HW120049  11.790   6.080   2.853
 6072SOL    HW220050  11.867   6.152   2.745
 6073SOL     OW20051   5.498   1.376   4.776
 6073SOL    HW120052   5.527   1.463   4.750
 6073SOL    HW220053   5.547   1.316   4.719
 6074SOL     OW20054  13.203   1.965  14.791
 6074SOL    HW120055  13.267   2.027  14.756
 6074SOL    HW220056  13.178   2.001   0.003
 6075SOL     OW20057   4.585  10.956   2.112
 6075SOL    HW120058   4.510  10.899   2.129
 6075SOL    HW220059   4.608  10.992   2.198
 6076SOL     OW20060   7.474   8.003  13.300
 6076SOL    HW120061   7.469   7.908  13.295
 6076SOL    HW220062   7.499   8.021  13.391
 6077SOL     OW20063  14.147   9.533   3.355
 6077SOL    HW120064  14.078   9.468   3.367
 6077SOL    HW220065  14.216   9.506   3.415
 6078SOL     OW20066   9.919  10.775  12.004
 6078SOL    HW120067   9.974  10.853  12.003
 6078SOL    HW220068   9.930  10.737  11.917
 6079SOL     OW20069   6.871  13.073   4.509
 6079SOL    HW120070   6.853  13.137   4.578
 6079SOL    HW220071   6.839  13.115   4.429
 6080SOL     OW20072   3.542   3.913   8.457
 6080SOL    HW120073   3.551   4.007   8.445
 6080SOL    HW220074   3.613   3.890   8.517
 6081SOL     OW20075   2.782   2.270   1.410
 6081SOL    HW120076   2.869   2.243   1.381
 6081SOL    HW220077   2.730   2.190   1.408
 6082SOL     OW20078   4.512  13.740   4.669
 6082SOL    HW120079   4.605  13.732   4.646
 6082SOL    HW220080   4.497  13.672   4.734
 6083SOL     OW20081   1.115  12.148  11.819
 6083SOL    HW120082   1.105  12.118  11.909
 6083SOL    HW220083   1.210  12.161  11.809
 6084SOL     OW20084   8.139  12.682   2.741
 6084SOL    HW120085   8.084  12.732   2.682
 6084SOL    HW220086   8.222  12.731   2.744
 6085SOL     OW20087   2.373  11.545  10.028
 6085SOL    HW120088   2.381  11.510  10.116
 6085SOL    HW220089   2.463  11.553   9.996
 6086SOL     OW20090   6.962   5.137  11.776
 6086SOL    HW120091   6.919   5.088  11.705
 6086SOL    HW220092   6.894   5.195  11.810
 6087SOL     OW20093  12.137   8.895   6.757
 6087SOL    HW120094  12.219   8.909   6.710
 6087SOL    HW220095  12.142   8.804   6.787
 6088SOL     OW20096   7.657   2.150   8.008
 6088SOL    HW120097   7.581   2.187   7.965
 6088SOL    HW220098   7.624   2.116   8.091
 6089SOL     OW20099  11.046   8.872  12.074
 6089SOL    HW120100  10.982   8.942  12.079
 6089SOL    HW220101  11.024   8.813  12.145
 6090SOL     OW20102   3.572   9.831   4.311
 6090SOL    HW120103   3.614   9.880   4.382
 6090SOL    HW220104   3.644   9.788   4.265
 6091SOL     OW20105  11.640   9.751   8.813
 6091SOL    HW120106  11.698   9.826   8.806
 6091SOL    HW220107  11.623   9.743   8.907
 6092SOL     OW20108   3.216  13.358  12.933
 6092SOL    HW120109   3.122  13.360  12.954
 6092SOL    HW220110   3.227  13.278  12.883
 6093SOL     OW20111   5.960   9.531   1.733
 6093SOL    HW120112   6.014   9.595   1.687
 6093SOL    HW220113   6.021   9.484   1.790
 6094SOL     OW20114  10.836   5.901   1.969
 6094SOL    HW120115  10.851   5.971   1.906
 6094SOL    HW220116  10.854   5.821   1.919
 6095SOL     OW20117   0.257  13.574   1.601
 6095SOL    HW120118   0.316  13.506   1.567
 6095SOL    HW220119   0.209  13.603   1.523
 6096SOL     OW20120  14.828   8.577   8.015
 6096SOL    HW120121   0.018   8.557   8.084
 6096SOL    HW220122  14.815   8.493   7.970
 6097SOL     OW20123   7.760   1.068   1.887
 6097SOL    HW120124   7.689   1.011   1.916
 6097SOL    HW220125   7.720   1.155   1.882
 6098SOL     OW20126   9.839  10.131   4.297
 6098SOL    HW120127   9.795  10.174   4.370
 6098SOL    HW220128   9.924  10.174   4.291
 6099SOL     OW20129  11.211   4.185  12.977
 6099SOL    HW120130  11.168   4.255  13.026
 6099SOL    HW220131  11.180   4.105  13.018
 6100SOL     OW20132  12.224  14.669   3.440
 6100SOL    HW120133  12.301  14.707   3.481
 6100SOL    HW220134  12.247  14.577   3.425
 6101SOL     OW20135  11.606   2.951   9.108
 6101SOL    HW120136  11.624   3.017   9.174
 6101SOL    HW220137  11.641   2.988   9.026
 6102SOL     OW20138  13.148  12.210   2.892
 6102SOL    HW120139  13.137  12.275   2.961
 6102SOL    HW220140  13.242  12.202   2.881
 6103SOL     OW20141  12.407  10.923  14.266
 6103SOL    HW120142  12.495  10.952  14.288
 6103SOL    HW220143  12.409  10.910  14.171
 6104SOL     OW20144   8.494   3.172   7.919
 6104SOL    HW120145   8.557   3.243   7.926
 6104SOL    HW220146   8.515   3.129   7.836
 6105SOL     OW20147   0.445  12.873   1.233
 6105SOL    HW120148   0.360  12.847   1.268
 6105SOL    HW220149   0.463  12.809   1.164
 6106SOL     OW20150  13.417   0.034   3.581
 6106SOL    HW120151  13.348   0.039   3.515
 6106SOL    HW220152  13.403   0.109   3.638
 6107SOL     OW20153   2.036   8.239  13.877
 6107SOL    HW120154   2.032   8.331  13.901
 6107SOL    HW220155   2.062   8.194  13.958
 6108SOL     OW20156   4.706   7.335  14.491
 6108SOL    HW120157   4.651   7.401  14.449
 6108SOL    HW220158   4.789   7.338  14.442
 6109SOL     OW20159   3.257   7.436   0.685
 6109SOL    HW120160   3.294   7.349   0.701
 6109SOL    HW220161   3.170   7.432   0.725
 6110SOL     OW20162  11.463   2.386  10.417
 6110SOL    HW120163  11.482   2.299  10.449
 6110SOL    HW220164  11.509   2.445  10.477
 6111SOL     OW20165   8.203   3.379  14.682
 6111SOL    HW120166   8.269   3.405  14.747
 6111SOL    HW220167   8.150   3.457  14.669
 6112SOL     OW20168   7.453   0.024   9.387
 6112SOL    HW120169   7.509  14.820   9.400
 6112SOL    HW220170   7.482   0.061   9.303
 6113SOL     OW20171   6.995  12.735   0.335
 6113SOL    HW120172   6.935  12.668   0.301
 6113SOL    HW220173   6.984  12.810   0.276
 6114SOL     OW20174  11.285   0.506  14.684
 6114SOL    HW120175  11.309   0.426  14.638
 6114SOL    HW220176  11.204   0.535  14.642
 6115SOL     OW20177   3.413   7.708   4.402
 6115SOL    HW120178   3.392   7.740   4.489
 6115SOL    HW220179   3.454   7.623   4.417
 6116SOL     OW20180  12.990   1.804   3.454
 6116SOL    HW120181  13.052   1.770   3.518
 6116SOL    HW220182  13.038   1.875   3.410
 6117SOL     OW20183  11.393   8.747   9.778
 6117SOL    HW120184  11.383   8.724   9.685
 6117SOL    HW220185  11.420   8.665   9.820
 6118SOL     OW20186   9.676   4.255  14.355
 6118SOL    HW120187   9.696   4.261  14.262
 6118SOL    HW220188   9.675   4.346  14.386
 6119SOL     OW20189   3.079  12.086  13.714
 6119SOL    HW120190   3.139  12.154  13.746
 6119SOL    HW220191   3.047  12.120  13.630
 6120SOL     OW20192   0.505  12.680  12.788
 6120SOL    HW120193   0.523  12.632  12.869
 6120SOL    HW220194   0.433  12.739  12.811
 6121SOL     OW20195   6.328   8.805   1.684
 6121SOL    HW120196   6.350   8.897   1.700
 6121SOL    HW220197   6.355   8.760   1.764
 6122SOL     OW20198   0.924   2.071  13.779
 6122SOL    HW120199   0.907   2.165  13.792
 6122SOL    HW220200   0.992   2.050  13.843
 6123SOL     OW20201   1.210  12.038   7.762
 6123SOL    HW120202   1.148  11.966   7.757
 6123SOL    HW220203   1.245  12.046   7.673
 6124SOL     OW20204   3.169   7.437   9.526
 6124SOL    HW120205   3.221   7.506   9.485
 6124SOL    HW220206   3.120   7.398   9.454
 6125SOL     OW20207   8.722   6.432   0.357
 6125SOL    HW120208   8.631   6.450   0.331
 6125SOL    HW220209   8.773   6.497   0.310
 6126SOL     OW20210   4.521   9.685   3.677
 6126SOL    HW120211   4.591   9.717   3.619
 6126SOL    HW220212   4.447   9.670   3.618
 6127SOL     OW20213  13.887   5.119  11.260
 6127SOL    HW120214  13.915   5.152  11.345
 6127SOL    HW220215  13.873   5.025  11.273
 6128SOL     OW20216   8.504   2.015   7.383
 6128SOL    HW120217   8.527   1.924   7.362
 6128SOL    HW220218   8.500   2.017   7.479
 6129SOL     OW20219   4.493  13.891   3.914
 6129SOL    HW120220   4.548  13.969   3.914
 6129SOL    HW220221   4.414  13.918   3.867
 6130SOL     OW20222   5.455   6.190  11.704
 6130SOL    HW120223   5.388   6.198  11.636
 6130SOL    HW220224   5.472   6.279  11.733
 6131SOL     OW20225  10.180   4.762  13.733
 6131SOL    HW120226  10.227   4.732  13.811
 6131SOL    HW220227  10.158   4.853  13.753
 6132SOL     OW20228   3.592   2.718   8.410
 6132SOL    HW120229   3.585   2.709   8.315
 6132SOL    HW220230   3.627   2.806   8.424
 6133SOL     OW20231  14.248   3.741   5.078
 6133SOL    HW120232  14.250   3.827   5.119
 6133SOL    HW220233  14.158   3.731   5.048
 6134SOL     OW20234  12.078   1.388   5.484
 6134SOL    HW120235  12.114   1.301   5.500
 6134SOL    HW220236  12.002   1.393   5.543
 6135SOL     OW20237   2.260   3.466  13.890
 6135SOL    HW120238   2.206   3.488  13.814
 6135SOL    HW220239   2.279   3.372  13.880
 6136SOL     OW20240   7.670  13.259   0.577
 6136SOL    HW120241   7.653  13.289   0.666
 6136SOL    HW220242   7.586  13.222   0.548
 6137SOL     OW20243  14.100   1.022   4.811
 6137SOL    HW120244  14.153   1.099   4.832
 6137SOL    HW220245  14.087   0.979   4.895
 6138SOL     OW20246   7.939   5.992  14.093
 6138SOL    HW120247   7.901   5.960  14.175
 6138SOL    HW220248   7.865   6.033  14.047
 6139SOL     OW20249   1.262   6.663  10.038
 6139SOL    HW120250   1.220   6.587  10.077
 6139SOL    HW220251   1.268   6.726  10.110
 6140SOL     OW20252   7.941   2.749   7.150
 6140SOL    HW120253   7.971   2.801   7.075
 6140SOL    HW220254   8.020   2.704   7.180
 6141SOL     OW20255   3.735  12.728   0.774
 6141SOL    HW120256   3.804  12.769   0.723
 6141SOL    HW220257   3.654  12.758   0.733
 6142SOL     OW20258   5.223   4.681   1.979
 6142SOL    HW120259   5.316   4.692   1.959
 6142SOL    HW220260   5.219   4.600   2.029
 6143SOL     OW20261   6.684   5.491   3.950
 6143SOL    HW120262   6.629   5.507   4.027
 6143SOL    HW220263   6.662   5.402   3.923
 6144SOL     OW20264   6.136   2.940   3.279
 6144SOL    HW120265   6.157   2.858   3.322
 6144SOL    HW220266   6.040   2.942   3.276
 6145SOL     OW20267   8.201  12.310   7.907
 6145SOL    HW120268   8.145  12.326   7.983
 6145SOL    HW220269   8.289  12.303   7.943
 6146SOL     OW20270   1.221   0.578   5.524
 6146SOL    HW120271   1.132   0.592   5.556
 6146SOL    HW220272   1.277   0.616   5.592
 6147SOL     OW20273   8.694   8.006   0.392
 6147SOL    HW120274   8.789   7.999   0.390
 6147SOL    HW220275   8.676   8.096   0.368
 6148SOL     OW20276   6.403   3.125   6.688
 6148SOL    HW120277   6.446   3.178   6.620
 6148SOL    HW220278   6.452   3.145   6.768
 6149SOL     OW20279   3.962   7.024   7.116
 6149SOL    HW120280   3.963   6.929   7.117
 6149SOL    HW220281   4.053   7.049   7.134
 6150SOL     OW20282   8.375   1.320   3.769
 6150SOL    HW120283   8.333   1.404   3.751
 6150SOL    HW220284   8.442   1.341   3.835
 6151SOL     OW20285   7.007   2.538   2.456
 6151SOL    HW120286   6.981   2.539   2.548
 6151SOL    HW220287   6.959   2.610   2.416
 6152SOL     OW20288   7.228   0.727   0.580
 6152SOL    HW120289   7.313   0.695   0.550
 6152SOL    HW220290   7.230   0.821   0.561
 6153SOL     OW20291   2.690   4.099   8.828
 6153SOL    HW120292   2.646   4.016   8.846
 6153SOL    HW220293   2.765   4.075   8.773
 6154SOL     OW20294  12.219   8.139  13.680
 6154SOL    HW120295  12.283   8.153  13.750
 6154SOL    HW220296  12.166   8.219  13.680
 6155SOL     OW20297   8.259   1.064   6.418
 6155SOL    HW120298   8.193   1.079   6.486
 6155SOL    HW220299   8.325   1.009   6.460
 6156SOL     OW20300   2.978   1.765   9.072
 6156SOL    HW120301   2.966   1.695   9.135
 6156SOL    HW220302   3.004   1.841   9.124
 6157SOL     OW20303  14.001   6.259  14.080
 6157SOL    HW120304  13.958   6.191  14.133
 6157SOL    HW220305  14.050   6.311  14.143
 6158SOL     OW20306   4.406   5.817  14.320
 6158SOL    HW120307   4.434   5.795  14.231
 6158SOL    HW220308   4.348   5.744  14.344
 6159SOL     OW20309   2.951  12.550  10.538
 6159SOL    HW120310   2.935  12.529  10.445
 6159SOL    HW220311   3.036  12.592  10.539
 6160SOL     OW20312   0.986   8.404   3.194
 6160SOL    HW120313   1.011   8.448   3.275
 6160SOL    HW220314   0.948   8.472   3.140
 6161SOL     OW20315  14.556  12.204   7.948
 6161SOL    HW120316  14.570  12.283   7.895
 6161SOL    HW220317  14.627  12.145   7.922
 6162SOL     OW20318   6.664  13.290   2.201
 6162SOL    HW120319   6.664  13.239   2.282
 6162SOL    HW220320   6.679  13.380   2.229
 6163SOL     OW20321  12.026   4.585   4.224
 6163SOL    HW120322  12.071   4.669   4.232
 6163SOL    HW220323  11.978   4.590   4.142
 6164SOL     OW20324   9.067  13.434   0.854
 6164SOL    HW120325   9.059  13.393   0.767
 6164SOL    HW220326   8.995  13.394   0.904
 6165SOL     OW20327  13.697   2.865   0.747
 6165SOL    HW120328  13.680   2.834   0.836
 6165SOL    HW220329  13.793   2.874   0.743
 6166SOL     OW20330   0.164   5.996  14.691
 6166SOL    HW120331   0.173   6.037  14.605
 6166SOL    HW220332   0.124   5.911  14.674
 6167SOL     OW20333   2.927   3.694   8.833
 6167SOL    HW120334   2.987   3.624   8.858
 6167SOL    HW220335   2.973   3.774   8.859
 6168SOL     OW20336  12.417  12.474  11.228
 6168SOL    HW120337  12.489  12.416  11.252
 6168SOL    HW220338  12.362  12.422  11.169
 6169SOL     OW20339  12.787  12.143  13.533
 6169SOL    HW120340  12.830  12.175  13.454
 6169SOL    HW220341  12.722  12.211  13.554
 6170SOL     OW20342   0.019   5.354   6.005
 6170SOL    HW120343   0.108   5.338   5.972
 6170SOL    HW220344  14.852   5.413   5.941
 6171SOL     OW20345   4.239   0.271   3.083
 6171SOL    HW120346   4.245   0.179   3.055
 6171SOL    HW220347   4.230   0.320   3.001
 6172SOL     OW20348   1.314   9.186  11.885
 6172SOL    HW120349   1.341   9.222  11.969
 6172SOL    HW220350   1.314   9.261  11.825
 6173SOL     OW20351   7.601  12.150   0.678
 6173SOL    HW120352   7.585  12.244   0.671
 6173SOL    HW220353   7.586  12.129   0.770
 6174SOL     OW20354   1.234  13.131   9.371
 6174SOL    HW120355   1.269  13.102   9.455
 6174SOL    HW220356   1.265  13.066   9.308
 6175SOL     OW20357   2.851   3.719  12.715
 6175SOL    HW120358   2.825   3.628  12.707
 6175SOL    HW220359   2.776   3.761  12.759
 6176SOL     OW20360   3.832   0.766  14.355
 6176SOL    HW120361   3.895   0.734  14.291
 6176SOL    HW220362   3.755   0.790  14.304
 6177SOL     OW20363   2.844  11.557  11.611
 6177SOL    HW120364   2.850  11.568  11.706
 6177SOL    HW220365   2.906  11.621  11.575
 6178SOL     OW20366   5.395  13.213   8.429
 6178SOL    HW120367   5.389  13.117   8.428
 6178SOL    HW220368   5.309  13.243   8.458
 6179SOL     OW20369  12.502   8.093  12.340
 6179SOL    HW120370  12.425   8.113  12.288
 6179SOL    HW220371  12.534   8.010  12.306
 6180SOL     OW20372   1.271  14.120  12.168
 6180SOL    HW120373   1.356  14.150  12.198
 6180SOL    HW220374   1.240  14.062  12.237
 6181SOL     OW20375   9.158   7.891  13.593
 6181SOL    HW120376   9.107   7.846  13.661
 6181SOL    HW220377   9.199   7.820  13.544
 6182SOL     OW20378   6.299   8.804  14.698
 6182SOL    HW120379   6.248   8.746  14.755
 6182SOL    HW220380   6.236   8.832  14.631
 6183SOL     OW20381   1.315   6.487   5.373
 6183SOL    HW120382   1.395   6.531   5.400
 6183SOL    HW220383   1.286   6.534   5.295
 6184SOL     OW20384  13.481  11.886  14.861
 6184SOL    HW120385  13.451  11.882  14.770
 6184SOL    HW220386  13.424  11.952   0.029
 6185SOL     OW20387   5.379  12.551   5.556
 6185SOL    HW120388   5.375  12.646   5.543
 6185SOL    HW220389   5.317  12.515   5.492
 6186SOL     OW20390   9.855   1.414   6.677
 6186SOL    HW120391   9.793   1.464   6.731
 6186SOL    HW220392   9.888   1.346   6.736
 6187SOL     OW20393   1.065   3.975   1.784
 6187SOL    HW120394   0.990   3.916   1.788
 6187SOL    HW220395   1.107   3.955   1.701
 6188SOL     OW20396  14.852   1.658  14.428
 6188SOL    HW120397  14.868   1.582  14.483
 6188SOL    HW220398   0.052   1.718  14.446
 6189SOL     OW20399   0.041   7.131  12.133
 6189SOL    HW120400   0.018   7.125  12.040
 6189SOL    HW220401   0.137   7.135  12.133
 6190SOL     OW20402  13.618  10.617   2.615
 6190SOL    HW120403  13.563  10.576   2.548
 6190SOL    HW220404  13.620  10.554   2.687
 6191SOL     OW20405   0.647  10.277   9.084
 6191SOL    HW120406   0.633  10.305   9.175
 6191SOL    HW220407   0.739  10.252   9.081
 6192SOL     OW20408   4.457  14.455   1.285
 6192SOL    HW120409   4.409  14.462   1.202
 6192SOL    HW220410   4.391  14.437   1.351
 6193SOL     OW20411   9.460  14.229  14.125
 6193SOL    HW120412   9.461  14.319  14.092
 6193SOL    HW220413   9.397  14.183  14.071
 6194SOL     OW20414   5.286   0.317   0.383
 6194SOL    HW120415   5.196   0.348   0.395
 6194SOL    HW220416   5.340   0.391   0.412
 6195SOL     OW20417   3.869   5.311   8.818
 6195SOL    HW120418   3.916   5.311   8.901
 6195SOL    HW220419   3.890   5.226   8.778
 6196SOL     OW20420  11.408  13.619   1.327
 6196SOL    HW120421  11.434  13.634   1.418
 6196SOL    HW220422  11.314  13.605   1.331
 6197SOL     OW20423  12.983  14.034  12.333
 6197SOL    HW120424  12.968  14.097  12.263
 6197SOL    HW220425  12.897  14.021  12.373
 6198SOL     OW20426  13.090   8.312   7.882
 6198SOL    HW120427  13.018   8.313   7.819
 6198SOL    HW220428  13.072   8.386   7.940
 6199SOL     OW20429   3.139  11.196   5.597
 6199SOL    HW120430   3.102  11.128   5.653
 6199SOL    HW220431   3.224  11.215   5.635
 6200SOL     OW20432  12.616  14.848   9.411
 6200SOL    HW120433  12.708  14.833   9.390
 6200SOL    HW220434  12.617   0.044   9.477
 6201SOL     OW20435   0.789   4.262   9.993
 6201SOL    HW120436   0.732   4.330   9.955
 6201SOL    HW220437   0.868   4.310  10.019
 6202SOL     OW20438   7.858  11.350   4.408
 6202SOL    HW120439   7.916  11.283   4.445
 6202SOL    HW220440   7.776  11.305   4.390
 6203SOL     OW20441   1.680  12.241   6.259
 6203SOL    HW120442   1.610  12.265   6.321
 6203SOL    HW220443   1.745  12.311   6.269
 6204SOL     OW20444   0.846   9.947   0.954
 6204SOL    HW120445   0.802   9.891   0.889
 6204SOL    HW220446   0.910   9.997   0.903
 6205SOL     OW20447  14.176  11.401   5.159
 6205SOL    HW120448  14.126  11.378   5.237
 6205SOL    HW220449  14.201  11.492   5.172
 6206SOL     OW20450   4.554   6.194   7.322
 6206SOL    HW120451   4.625   6.129   7.324
 6206SOL    HW220452   4.595   6.273   7.288
 6207SOL     OW20453   9.043   2.098   5.204
 6207SOL    HW120454   9.072   2.129   5.118
 6207SOL    HW220455   9.066   2.168   5.264
 6208SOL     OW20456  11.908   3.556   7.018
 6208SOL    HW120457  11.886   3.590   6.932
 6208SOL    HW220458  11.941   3.632   7.066
 6209SOL     OW20459   6.906   1.783  11.611
 6209SOL    HW120460   6.952   1.738  11.540
 6209SOL    HW220461   6.970   1.788  11.682
 6210SOL     OW20462  10.842   2.490   1.726
 6210SOL    HW120463  10.915   2.448   1.772
 6210SOL    HW220464  10.849   2.583   1.748
 6211SOL     OW20465   4.756   0.432  14.212
 6211SOL    HW120466   4.717   0.403  14.295
 6211SOL    HW220467   4.705   0.510  14.188
 6212SOL     OW20468  11.399   4.977   9.798
 6212SOL    HW120469  11.350   5.047   9.754
 6212SOL    HW220470  11.357   4.896   9.770
 6213SOL     OW20471   3.553   7.365   1.233
 6213SOL    HW120472   3.548   7.452   1.272
 6213SOL    HW220473   3.518   7.375   1.145
 6214SOL     OW20474   9.292  13.425   1.038
 6214SOL    HW120475   9.343  13.345   1.022
 6214SOL    HW220476   9.214  13.415   0.983
 6215SOL     OW20477  10.190   1.632   0.164
 6215SOL    HW120478  10.263   1.582   0.129
 6215SOL    HW220479  10.226   1.674   0.243
 6216SOL     OW20480   5.500   4.681   5.893
 6216SOL    HW120481   5.454   4.740   5.833
 6216SOL    HW220482   5.439   4.667   5.965
 6217SOL     OW20483   7.077  11.891   4.967
 6217SOL    HW120484   7.082  11.930   5.054
 6217SOL    HW220485   7.012  11.943   4.921
 6218SOL     OW20486  12.756  14.444  10.077
 6218SOL    HW120487  12.698  14.368  10.088
 6218SOL    HW220488  12.710  14.516  10.119
 6219SOL     OW20489   5.363  10.163   4.508
 6219SOL    HW120490   5.299  10.149   4.578
 6219SOL    HW220491   5.324  10.120   4.432
 6220SOL     OW20492   8.873   2.049   1.257
 6220SOL    HW120493   8.781   2.073   1.244
 6220SOL    HW220494   8.906   2.036   1.168
 6221SOL     OW20495   7.503   4.433   6.980
 6221SOL    HW120496   7.497   4.419   6.885
 6221SOL    HW220497   7.424   4.484   7.001
 6222SOL     OW20498  12.528   5.179   7.968
 6222SOL    HW120499  12.456   5.206   7.910
 6222SOL    HW220500  12.487   5.171   8.054
 6223SOL     OW20501   7.617  10.726  12.239
 6223SOL    HW120502   7.568  10.808  12.231
 6223SOL    HW220503   7.664  10.735  12.322
 6224SOL     OW20504   8.837   6.132   6.897
 6224SOL    HW120505   8.814   6.203   6.837
 6224SOL    HW220506   8.757   6.114   6.945
 6225SOL     OW20507   0.537  12.527   1.159
 6225SOL    HW120508   0.611  12.527   1.099
 6225SOL    HW220509   0.471  12.581   1.116
 6226SOL     OW20510  13.763   4.194  10.171
 6226SOL    HW120511  13.829   4.221  10.107
 6226SOL    HW220512  13.777   4.100  10.182
 6227SOL     OW20513   8.152  13.440   0.883
 6227SOL    HW120514   8.084  13.496   0.845
 6227SOL    HW220515   8.194  13.495   0.949
 6228SOL     OW20516  11.744  14.507   8.280
 6228SOL    HW120517  11.687  14.575   8.244
 6228SOL    HW220518  11.804  14.555   8.338
 6229SOL     OW20519   0.233   9.581  12.005
 6229SOL    HW120520   0.233   9.673  12.031
 6229SOL    HW220521   0.142   9.561  11.985
 6230SOL     OW20522   2.335   3.975   1.071
 6230SOL    HW120523   2.407   3.980   1.008
 6230SOL    HW220524   2.375   3.945   1.152
 6231SOL     OW20525  13.028   9.917  11.665
 6231SOL    HW120526  12.934   9.936  11.669
 6231SOL    HW220527  13.034   9.843  11.604
 6232SOL     OW20528   9.367   4.025   9.418
 6232SOL    HW120529   9.423   3.952   9.447
 6232SOL    HW220530   9.300   4.032   9.486
 6233SOL     OW20531   1.819   2.031   4.961
 6233SOL    HW120532   1.773   2.070   4.886
 6233SOL    HW220533   1.912   2.047   4.942
 6234SOL     OW20534   0.209   7.510   2.967
 6234SOL    HW120535   0.247   7.557   2.893
 6234SOL    HW220536   0.115   7.510   2.950
 6235SOL     OW20537  13.777  11.375  10.428
 6235SOL    HW120538  13.866  11.349  10.409
 6235SOL    HW220539  13.775  11.469  10.410
 6236SOL     OW20540   6.606   6.905   7.720
 6236SOL    HW120541   6.566   6.964   7.784
 6236SOL    HW220542   6.536   6.884   7.658
 6237SOL     OW20543  13.552   6.865   8.194
 6237SOL    HW120544  13.561   6.898   8.104
 6237SOL    HW220545  13.462   6.832   8.198
 6238SOL     OW20546   0.028   3.624   8.622
 6238SOL    HW120547  14.853   3.673   8.555
 6238SOL    HW220548   0.120   3.638   8.601
 6239SOL     OW20549  13.607  11.034   9.852
 6239SOL    HW120550  13.562  11.013   9.933
 6239SOL    HW220551  13.672  11.100   9.877
 6240SOL     OW20552   3.227   6.448   3.987
 6240SOL    HW120553   3.249   6.381   4.052
 6240SOL    HW220554   3.270   6.527   4.018
 6241SOL     OW20555   1.741  14.555   5.467
 6241SOL    HW120556   1.739  14.517   5.379
 6241SOL    HW220557   1.738  14.479   5.526
 6242SOL     OW20558   1.781  12.314   7.369
 6242SOL    HW120559   1.855  12.374   7.361
 6242SOL    HW220560   1.707  12.361   7.330
 6243SOL     OW20561  11.366   0.715  14.112
 6243SOL    HW120562  11.359   0.676  14.199
 6243SOL    HW220563  11.313   0.658  14.056
 6244SOL     OW20564   0.593   0.035   7.371
 6244SOL    HW120565   0.563   0.124   7.349
 6244SOL    HW220566   0.528  14.850   7.331
 6245SOL     OW20567  12.493   5.881   4.887
 6245SOL    HW120568  12.452   5.809   4.935
 6245SOL    HW220569  12.550   5.837   4.823
 6246SOL     OW20570   6.824   0.321   6.352
 6246SOL    HW120571   6.909   0.339   6.391
 6246SOL    HW220572   6.833   0.235   6.312
 6247SOL     OW20573  13.219  12.386   9.319
 6247SOL    HW120574  13.128  12.385   9.288
 6247SOL    HW220575  13.226  12.469   9.367
 6248SOL     OW20576  10.508  13.629  12.687
 6248SOL    HW120577  10.494  13.535  12.703
 6248SOL    HW220578  10.448  13.672  12.749
 6249SOL     OW20579   5.066   7.300   1.769
 6249SOL    HW120580   5.133   7.273   1.832
 6249SOL    HW220581   5.032   7.383   1.803
 6250SOL     OW20582   0.560   0.767  12.672
 6250SOL    HW120583   0.503   0.817  12.731
 6250SOL    HW220584   0.582   0.828  12.602
 6251SOL     OW20585   0.925   5.053   7.055
 6251SOL    HW120586   0.911   4.982   7.119
 6251SOL    HW220587   0.869   5.029   6.981
 6252SOL     OW20588   0.162   7.777   6.641
 6252SOL    HW120589   0.220   7.836   6.592
 6252SOL    HW220590   0.217   7.701   6.661
 6253SOL     OW20591  11.369  11.379   5.213
 6253SOL    HW120592  11.416  11.377   5.130
 6253SOL    HW220593  11.301  11.446   5.201
 6254SOL     OW20594   3.711   1.074  10.973
 6254SOL    HW120595   3.753   1.160  10.973
 6254SOL    HW220596   3.622   1.092  11.004
 6255SOL     OW20597  13.346  14.281   1.391
 6255SOL    HW120598  13.419  14.244   1.441
 6255SOL    HW220599  13.276  14.291   1.455
 6256SOL     OW20600  12.819   3.114   9.527
 6256SOL    HW120601  12.760   3.178   9.486
 6256SOL    HW220602  12.875   3.167   9.584
 6257SOL     OW20603   5.656  12.900   9.263
 6257SOL    HW120604   5.703  12.927   9.183
 6257SOL    HW220605   5.690  12.813   9.281
 6258SOL     OW20606  11.211   9.170   4.602
 6258SOL    HW120607  11.301   9.175   4.635
 6258SOL    HW220608  11.214   9.214   4.517
 6259SOL     OW20609   0.795   8.856  14.639
 6259SOL    HW120610   0.782   8.902  14.722
 6259SOL    HW220611   0.732   8.896  14.579
 6260SOL     OW20612   4.430  11.616   0.709
 6260SOL    HW120613   4.476  11.539   0.677
 6260SOL    HW220614   4.382  11.649   0.634
 6261SOL     OW20615  12.440   8.427  12.722
 6261SOL    HW120616  12.493   8.368  12.669
 6261SOL    HW220617  12.369   8.372  12.754
 6262SOL     OW20618   8.420   4.552   1.422
 6262SOL    HW120619   8.353   4.619   1.407
 6262SOL    HW220620   8.379   4.490   1.483
 6263SOL     OW20621   7.793   2.675   4.530
 6263SOL    HW120622   7.711   2.706   4.492
 6263SOL    HW220623   7.853   2.664   4.456
 6264SOL     OW20624  14.039  14.327   9.661
 6264SOL    HW120625  13.957  14.331   9.711
 6264SOL    HW220626  14.026  14.389   9.589
 6265SOL     OW20627   5.471  11.129   9.700
 6265SOL    HW120628   5.519  11.187   9.760
 6265SOL    HW220629   5.490  11.041   9.732
 6266SOL     OW20630   5.922   2.902   0.233
 6266SOL    HW120631   5.878   2.883   0.316
 6266SOL    HW220632   5.955   2.817   0.204
 6267SOL     OW20633  12.812   6.162   4.648
 6267SOL    HW120634  12.768   6.216   4.581
 6267SOL    HW220635  12.743   6.143   4.712
 6268SOL     OW20636   8.159   2.077   5.408
 6268SOL    HW120637   8.151   2.068   5.503
 6268SOL    HW220638   8.070   2.092   5.378
 6269SOL     OW20639   3.365   1.900   6.789
 6269SOL    HW120640   3.393   1.830   6.848
 6269SOL    HW220641   3.275   1.920   6.817
 6270SOL     OW20642   2.851   2.872   8.867
 6270SOL    HW120643   2.943   2.882   8.891
 6270SOL    HW220644   2.850   2.799   8.806
 6271SOL     OW20645   2.652  12.926   9.339
 6271SOL    HW120646   2.623  12.849   9.291
 6271SOL    HW220647   2.572  12.977   9.351
 6272SOL     OW20648   5.122   9.569   6.537
 6272SOL    HW120649   5.102   9.598   6.626
 6272SOL    HW220650   5.191   9.504   6.549
 6273SOL     OW20651   2.152   2.301   2.995
 6273SOL    HW120652   2.107   2.242   2.934
 6273SOL    HW220653   2.105   2.292   3.077
 6274SOL     OW20654  13.296  13.390   6.291
 6274SOL    HW120655  13.353  13.402   6.215
 6274SOL    HW220656  13.211  13.366   6.254
 6275SOL     OW20657   9.268   6.575   8.623
 6275SOL    HW120658   9.293   6.555   8.533
 6275SOL    HW220659   9.252   6.489   8.663
 6276SOL     OW20660   8.700  11.287  10.651
 6276SOL    HW120661   8.795  11.280  10.666
 6276SOL    HW220662   8.682  11.381  10.657
 6277SOL     OW20663   8.600  11.200   8.387
 6277SOL    HW120664   8.628  11.256   8.314
 6277SOL    HW220665   8.538  11.139   8.347
 6278SOL     OW20666   3.066   1.179   1.923
 6278SOL    HW120667   3.007   1.219   1.987
 6278SOL    HW220668   3.038   1.215   1.839
 6279SOL     OW20669   5.765   2.837  13.473
 6279SOL    HW120670   5.754   2.931  13.456
 6279SOL    HW220671   5.750   2.795  13.388
 6280SOL     OW20672   3.931   7.545   4.420
 6280SOL    HW120673   4.023   7.571   4.416
 6280SOL    HW220674   3.897   7.565   4.333
 6281SOL     OW20675  11.213   4.648   2.705
 6281SOL    HW120676  11.164   4.681   2.780
 6281SOL    HW220677  11.188   4.706   2.633
 6282SOL     OW20678   3.198  11.355   2.615
 6282SOL    HW120679   3.204  11.275   2.666
 6282SOL    HW220680   3.145  11.414   2.668
 6283SOL     OW20681  10.460   8.164   2.537
 6283SOL    HW120682  10.536   8.186   2.592
 6283SOL    HW220683  10.474   8.215   2.457
 6284SOL     OW20684   1.288  11.882   2.180
 6284SOL    HW120685   1.314  11.957   2.233
 6284SOL    HW220686   1.367  11.830   2.170
 6285SOL     OW20687  10.970  10.529   2.194
 6285SOL    HW120688  11.030  10.579   2.138
 6285SOL    HW220689  11.017  10.448   2.213
 6286SOL     OW20690   6.311   7.342   4.364
 6286SOL    HW120691   6.231   7.316   4.410
 6286SOL    HW220692   6.282   7.363   4.276
 6287SOL     OW20693  10.689   4.921  13.221
 6287SOL    HW120694  10.782   4.903  13.211
 6287SOL    HW220695  10.654   4.844  13.265
 6288SOL     OW20696  14.719   1.870  10.583
 6288SOL    HW120697  14.730   1.776  10.571
 6288SOL    HW220698  14.809   1.904  10.586
 6289SOL     OW20699  10.710   1.949   4.217
 6289SOL    HW120700  10.676   1.999   4.143
 6289SOL    HW220701  10.796   1.919   4.187
 6290SOL     OW20702   0.668   9.479  10.611
 6290SOL    HW120703   0.692   9.570  10.594
 6290SOL    HW220704   0.730   9.428  10.557
 6291SOL     OW20705   8.124   5.382   2.852
 6291SOL    HW120706   8.098   5.472   2.875
 6291SOL    HW220707   8.073   5.362   2.773
 6292SOL     OW20708   8.226   5.995   0.306
 6292SOL    HW120709   8.297   6.051   0.274
 6292SOL    HW220710   8.147   6.034   0.269
 6293SOL     OW20711   4.454   7.122   4.852
 6293SOL    HW120712   4.464   7.069   4.932
 6293SOL    HW220713   4.361   7.146   4.852
 6294SOL     OW20714  10.899  11.044   3.355
 6294SOL    HW120715  10.824  11.093   3.389
 6294SOL    HW220716  10.918  11.085   3.270
 6295SOL     OW20717   7.872   7.177  14.272
 6295SOL    HW120718   7.801   7.222  14.317
 6295SOL    HW220719   7.951   7.203  14.319
 6296SOL     OW20720   3.663   2.811   9.140
 6296SOL    HW120721   3.633   2.844   9.055
 6296SOL    HW220722   3.643   2.882   9.201
 6297SOL     OW20723   2.104  11.182   3.833
 6297SOL    HW120724   2.076  11.124   3.762
 6297SOL    HW220725   2.023  11.220   3.866
 6298SOL     OW20726   1.104   2.661   8.181
 6298SOL    HW120727   1.189   2.634   8.145
 6298SOL    HW220728   1.044   2.591   8.157
 6299SOL     OW20729   6.929   8.330   2.779
 6299SOL    HW120730   6.983   8.309   2.855
 6299SOL    HW220731   6.842   8.343   2.814
 6300SOL     OW20732  14.829   6.863   5.520
 6300SOL    HW120733  14.819   6.785   5.574
 6300SOL    HW220734   0.050   6.876   5.514
 6301SOL     OW20735  13.207   2.526   6.424
 6301SOL    HW120736  13.286   2.474   6.433
 6301SOL    HW220737  13.194   2.534   6.330
 6302SOL     OW20738   0.566  10.609   0.624
 6302SOL    HW120739   0.587  10.525   0.584
 6302SOL    HW220740   0.487  10.593   0.675
 6303SOL     OW20741   5.097  13.978   4.082
 6303SOL    HW120742   5.012  13.975   4.126
 6303SOL    HW220743   5.143  13.900   4.115
 6304SOL     OW20744   7.482  13.294   1.897
 6304SOL    HW120745   7.391  13.325   1.900
 6304SOL    HW220746   7.474  13.199   1.894
 6305SOL     OW20747   6.414   1.250   5.380
 6305SOL    HW120748   6.400   1.288   5.293
 6305SOL    HW220749   6.351   1.295   5.436
 6306SOL     OW20750  14.687  10.551   3.510
 6306SOL    HW120751  14.654  10.461   3.507
 6306SOL    HW220752  14.623  10.601   3.460
 6307SOL     OW20753   6.470   3.667   7.978
 6307SOL    HW120754   6.522   3.741   7.947
 6307SOL    HW220755   6.396   3.663   7.918
 6308SOL     OW20756   4.559  12.996   0.567
 6308SOL    HW120757   4.633  12.955   0.523
 6308SOL    HW220758   4.484  12.976   0.511
 6309SOL     OW20759  13.097   1.976   6.316
 6309SOL    HW120760  13.154   1.965   6.240
 6309SOL    HW220761  13.120   2.061   6.352
 6310SOL     OW20762  12.791   0.005   2.190
 6310SOL    HW120763  12.760  14.837   2.110
 6310SOL    HW220764  12.839  14.808   2.235
 6311SOL     OW20765   3.228  10.795   8.298
 6311SOL    HW120766   3.248  10.836   8.382
 6311SOL    HW220767   3.299  10.824   8.240
 6312SOL     OW20768   0.557  14.120   5.655
 6312SOL    HW120769   0.615  14.194   5.636
 6312SOL    HW220770   0.586  14.051   5.595
 6313SOL     OW20771   6.576   2.508   7.823
 6313SOL    HW120772   6.503   2.569   7.815
 6313SOL    HW220773   6.625   2.539   7.898
 6314SOL     OW20774  10.754   4.711  10.975
 6314SOL    HW120775  10.769   4.799  11.009
 6314SOL    HW220776  10.704   4.724  10.895
 6315SOL     OW20777   7.438  14.232   4.023
 6315SOL    HW120778   7.417  14.169   4.092
 6315SOL    HW220779   7.390  14.201   3.946
 6316SOL     OW20780   3.823   0.623   1.455
 6316SOL    HW120781   3.786   0.543   1.417
 6316SOL    HW220782   3.852   0.674   1.380
 6317SOL     OW20783   8.292  14.111   8.668
 6317SOL    HW120784   8.302  14.200   8.635
 6317SOL    HW220785   8.265  14.060   8.592
 6318SOL     OW20786   4.797   4.106   8.022
 6318SOL    HW120787   4.799   4.201   8.037
 6318SOL    HW220788   4.831   4.095   7.933
 6319SOL     OW20789  12.233   4.772  13.534
 6319SOL    HW120790  12.302   4.738  13.477
 6319SOL    HW220791  12.269   4.854  13.569
 6320SOL     OW20792   0.568   5.764  14.593
 6320SOL    HW120793   0.609   5.806  14.669
 6320SOL    HW220794   0.480   5.741  14.623
 6321SOL     OW20795   1.628   1.471   1.221
 6321SOL    HW120796   1.567   1.426   1.279
 6321SOL    HW220797   1.701   1.496   1.277
 6322SOL     OW20798   5.422   0.285   2.511
 6322SOL    HW120799   5.504   0.270   2.464
 6322SOL    HW220800   5.437   0.367   2.558
 6323SOL     OW20801   9.638   4.607  10.384
 6323SOL    HW120802   9.587   4.623  10.464
 6323SOL    HW220803   9.705   4.544  10.411
 6324SOL     OW20804  10.389   6.912   8.350
 6324SOL    HW120805  10.449   6.984   8.332
 6324SOL    HW220806  10.435   6.859   8.415
 6325SOL     OW20807  13.015  12.789   5.295
 6325SOL    HW120808  13.029  12.720   5.230
 6325SOL    HW220809  13.065  12.761   5.372
 6326SOL     OW20810   8.353  13.300   3.315
 6326SOL    HW120811   8.301  13.220   3.321
 6326SOL    HW220812   8.333  13.334   3.227
 6327SOL     OW20813   7.441   5.928   0.640
 6327SOL    HW120814   7.480   6.015   0.646
 6327SOL    HW220815   7.351   5.945   0.614
 6328SOL     OW20816  11.638   9.505   9.871
 6328SOL    HW120817  11.669   9.560   9.943
 6328SOL    HW220818  11.684   9.539   9.794
 6329SOL     OW20819   6.629  11.463  14.834
 6329SOL    HW120820   6.694  11.528  14.809
 6329SOL    HW220821   6.607  11.484   0.051
 6330SOL     OW20822  12.337   4.452   2.220
 6330SOL    HW120823  12.354   4.367   2.178
 6330SOL    HW220824  12.283   4.500   2.158
 6331SOL     OW20825  13.756   8.474   8.962
 6331SOL    HW120826  13.700   8.531   8.909
 6331SOL    HW220827  13.740   8.503   9.052
 6332SOL     OW20828   9.641  10.790   9.300
 6332SOL    HW120829   9.704  10.795   9.373
 6332SOL    HW220830   9.686  10.738   9.234
 6333SOL     OW20831  11.847  12.479   7.079
 6333SOL    HW120832  11.862  12.568   7.047
 6333SOL    HW220833  11.824  12.428   7.002
 6334SOL     OW20834   0.924   8.856   0.971
 6334SOL    HW120835   0.916   8.767   1.005
 6334SOL    HW220836   0.934   8.846   0.877
 6335SOL     OW20837  14.678  11.403   7.221
 6335SOL    HW120838  14.656  11.447   7.303
 6335SOL    HW220839  14.664  11.310   7.240
 6336SOL     OW20840  14.483   5.040  11.275
 6336SOL    HW120841  14.505   4.966  11.218
 6336SOL    HW220842  14.541   5.110  11.247
 6337SOL     OW20843   5.837  12.554   4.060
 6337SOL    HW120844   5.767  12.608   4.025
 6337SOL    HW220845   5.909  12.564   3.998
 6338SOL     OW20846   3.616  12.485  11.309
 6338SOL    HW120847   3.622  12.393  11.283
 6338SOL    HW220848   3.706  12.516  11.309
 6339SOL     OW20849   4.355  10.528   9.440
 6339SOL    HW120850   4.420  10.544   9.508
 6339SOL    HW220851   4.289  10.473   9.482
 6340SOL     OW20852   0.209  13.999  13.060
 6340SOL    HW120853   0.175  13.909  13.062
 6340SOL    HW220854   0.180  14.033  12.975
 6341SOL     OW20855  14.439   8.993   2.120
 6341SOL    HW120856  14.478   9.036   2.044
 6341SOL    HW220857  14.471   8.903   2.116
 6342SOL     OW20858   1.106   3.574   6.063
 6342SOL    HW120859   1.196   3.601   6.042
 6342SOL    HW220860   1.060   3.656   6.081
 6343SOL     OW20861   9.360   6.048   0.178
 6343SOL    HW120862   9.404   6.129   0.152
 6343SOL    HW220863   9.305   6.074   0.252
 6344SOL     OW20864   6.891   1.808   5.593
 6344SOL    HW120865   6.970   1.859   5.576
 6344SOL    HW220866   6.852   1.849   5.671
 6345SOL     OW20867   7.147  11.800   1.149
 6345SOL    HW120868   7.218  11.754   1.192
 6345SOL    HW220869   7.189  11.874   1.104
 6346SOL     OW20870   0.069  11.649   4.467
 6346SOL    HW120871   0.107  11.712   4.528
 6346SOL    HW220872   0.087  11.686   4.381
 6347SOL     OW20873  14.759   7.477   7.531
 6347SOL    HW120874  14.725   7.530   7.459
 6347SOL    HW220875  14.801   7.403   7.487
 6348SOL     OW20876  13.309   0.422   9.517
 6348SOL    HW120877  13.296   0.503   9.566
 6348SOL    HW220878  13.292   0.446   9.426
 6349SOL     OW20879   8.621   3.971  13.007
 6349SOL    HW120880   8.714   3.949  13.001
 6349SOL    HW220881   8.605   4.028  12.932
 6350SOL     OW20882  10.167  14.419  12.489
 6350SOL    HW120883  10.236  14.378  12.437
 6350SOL    HW220884  10.144  14.353  12.555
 6351SOL     OW20885   8.026  12.399   3.990
 6351SOL    HW120886   8.041  12.356   3.906
 6351SOL    HW220887   8.095  12.465   3.995
 6352SOL     OW20888   5.726   8.315   3.786
 6352SOL    HW120889   5.724   8.237   3.730
 6352SOL    HW220890   5.687   8.384   3.732
 6353SOL     OW20891   8.076   5.829   5.282
 6353SOL    HW120892   8.036   5.895   5.226
 6353SOL    HW220893   8.002   5.792   5.332
 6354SOL     OW20894   1.368   4.767   6.540
 6354SOL    HW120895   1.366   4.858   6.510
 6354SOL    HW220896   1.283   4.731   6.514
 6355SOL     OW20897  12.452   9.033   6.043
 6355SOL    HW120898  12.441   9.100   5.975
 6355SOL    HW220899  12.377   8.975   6.030
 6356SOL     OW20900  14.069  12.281   4.200
 6356SOL    HW120901  14.152  12.236   4.219
 6356SOL    HW220902  14.091  12.374   4.203
 6357SOL     OW20903   1.792  12.594   2.043
 6357SOL    HW120904   1.847  12.547   1.981
 6357SOL    HW220905   1.814  12.556   2.128
 6358SOL     OW20906   2.576   6.840   5.680
 6358SOL    HW120907   2.642   6.886   5.629
 6358SOL    HW220908   2.590   6.747   5.660
 6359SOL     OW20909   7.933   4.289  10.800
 6359SOL    HW120910   7.994   4.279  10.873
 6359SOL    HW220911   7.855   4.241  10.828
 6360SOL     OW20912  13.417  12.774  10.829
 6360SOL    HW120913  13.437  12.712  10.759
 6360SOL    HW220914  13.343  12.736  10.875
 6361SOL     OW20915  12.132   1.952   6.264
 6361SOL    HW120916  12.224   1.967   6.242
 6361SOL    HW220917  12.090   1.930   6.181
 6362SOL     OW20918   8.838   5.766   8.090
 6362SOL    HW120919   8.849   5.797   8.180
 6362SOL    HW220920   8.827   5.847   8.039
 6363SOL     OW20921  10.915   7.589   5.665
 6363SOL    HW120922  10.871   7.574   5.582
 6363SOL    HW220923  10.980   7.518   5.672
 6364SOL     OW20924   7.511  11.926   5.755
 6364SOL    HW120925   7.604  11.913   5.775
 6364SOL    HW220926   7.469  11.844   5.782
 6365SOL     OW20927  12.453  10.161   3.406
 6365SOL    HW120928  12.421  10.124   3.323
 6365SOL    HW220929  12.377  10.205   3.444
 6366SOL     OW20930   6.102  11.748   4.146
 6366SOL    HW120931   6.163  11.708   4.208
 6366SOL    HW220932   6.055  11.814   4.198
 6367SOL     OW20933   2.764   7.300  11.988
 6367SOL    HW120934   2.815   7.257  12.057
 6367SOL    HW220935   2.829   7.346  11.935
 6368SOL     OW20936   1.092   2.769   0.000
 6368SOL    HW120937   1.036   2.741  14.801
 6368SOL    HW220938   1.055   2.853   0.028
 6369SOL     OW20939   8.935  12.162  10.318
 6369SOL    HW120940   8.959  12.200  10.234
 6369SOL    HW220941   9.008  12.104  10.340
 6370SOL     OW20942   2.669   0.433   5.649
 6370SOL    HW120943   2.588   0.414   5.602
 6370SOL    HW220944   2.722   0.483   5.586
 6371SOL     OW20945   0.953  11.404  12.853
 6371SOL    HW120946   1.033  11.352  12.844
 6371SOL    HW220947   0.944  11.448  12.769
 6372SOL     OW20948   2.722  12.678   3.169
 6372SOL    HW120949   2.638  12.668   3.214
 6372SOL    HW220950   2.749  12.588   3.149
 6373SOL     OW20951   6.427  14.325   7.802
 6373SOL    HW120952   6.372  14.390   7.759
 6373SOL    HW220953   6.491  14.299   7.735
 6374SOL     OW20954  10.656  13.657   6.211
 6374SOL    HW120955  10.620  13.725   6.267
 6374SOL    HW220956  10.598  13.582   6.223
 6375SOL     OW20957  10.672  12.240   6.742
 6375SOL    HW120958  10.644  12.215   6.829
 6375SOL    HW220959  10.765  12.260   6.751
 6376SOL     OW20960   0.361   3.660  14.086
 6376SOL    HW120961   0.273   3.699  14.087
 6376SOL    HW220962   0.358   3.593  14.155
 6377SOL     OW20963   2.038   4.134  11.207
 6377SOL    HW120964   1.974   4.201  11.183
 6377SOL    HW220965   2.018   4.114  11.298
 6378SOL     OW20966   1.008  14.798   2.663
 6378SOL    HW120967   1.044  14.815   2.750
 6378SOL    HW220968   0.976  14.708   2.668
 6379SOL     OW20969   0.341  12.131  12.698
 6379SOL    HW120970   0.346  12.039  12.723
 6379SOL    HW220971   0.383  12.178  12.770
 6380SOL     OW20972  13.567   7.879   1.570
 6380SOL    HW120973  13.555   7.861   1.477
 6380SOL    HW220974  13.606   7.799   1.605
 6381SOL     OW20975   9.126   3.640  12.285
 6381SOL    HW120976   9.190   3.703  12.253
 6381SOL    HW220977   9.150   3.557  12.245
 6382SOL     OW20978  14.160   0.002  10.969
 6382SOL    HW120979  14.084   0.019  11.026
 6382SOL    HW220980  14.121  14.861  10.882
 6383SOL     OW20981   7.560  12.584   6.672
 6383SOL    HW120982   7.562  12.505   6.618
 6383SOL    HW220983   7.469  12.612   6.672
 6384SOL     OW20984   0.678  12.241  11.506
 6384SOL    HW120985   0.586  12.251  11.530
 6384SOL    HW220986   0.693  12.146  11.505
 6385SOL     OW20987   7.934   8.431   8.237
 6385SOL    HW120988   7.896   8.344   8.240
 6385SOL    HW220989   7.951   8.447   8.144
 6386SOL     OW20990   5.209   9.743   1.898
 6386SOL    HW120991   5.298   9.734   1.933
 6386SOL    HW220992   5.176   9.824   1.938
 6387SOL     OW20993  13.604  12.145   9.329
 6387SOL    HW120994  13.544  12.151   9.404
 6387SOL    HW220995  13.613  12.051   9.312
 6388SOL     OW20996  11.174  12.196   0.099
 6388SOL    HW120997  11.188  12.103   0.081
 6388SOL    HW220998  11.233  12.241   0.040
 6389SOL     OW20999   8.506   9.375  11.953
 6389SOL    HW121000   8.527   9.374  11.860
 6389SOL    HW221001   8.588   9.355  11.997
 6390SOL     OW21002   0.736   3.938   0.555
 6390SOL    HW121003   0.724   3.865   0.493
 6390SOL    HW221004   0.815   3.983   0.524
 6391SOL     OW21005   1.450  12.837   7.258
 6391SOL    HW121006   1.373  12.800   7.215
 6391SOL    HW221007   1.417  12.871   7.341
 6392SOL     OW21008   9.511   7.417  13.512
 6392SOL    HW121009   9.543   7.499  13.475
 6392SOL    HW221010   9.443   7.443  13.573
 6393SOL     OW21011  13.001   7.960  11.201
 6393SOL    HW121012  13.035   7.893  11.142
 6393SOL    HW221013  12.906   7.949  11.198
 6394SOL     OW21014  11.375  12.930   8.265
 6394SOL    HW121015  11.342  13.020   8.258
 6394SOL    HW221016  11.464  12.934   8.230
 6395SOL     OW21017   4.075   2.626   7.046
 6395SOL    HW121018   4.158   2.590   7.014
 6395SOL    HW221019   4.055   2.697   6.984
 6396SOL     OW21020   2.909  12.242  14.600
 6396SOL    HW121021   2.960  12.164  14.619
 6396SOL    HW221022   2.834  12.211  14.549
 6397SOL     OW21023  14.694  12.895   9.779
 6397SOL    HW121024  14.689  12.956   9.853
 6397SOL    HW221025  14.785  12.867   9.776
 6398SOL     OW21026   1.102  11.218  13.207
 6398SOL    HW121027   1.092  11.281  13.278
 6398SOL    HW221028   1.158  11.149  13.244
 6399SOL     OW21029   6.865   9.295  13.498
 6399SOL    HW121030   6.909   9.210  13.492
 6399SOL    HW221031   6.802   9.294  13.426
 6400SOL     OW21032  12.866   3.676  12.713
 6400SOL    HW121033  12.835   3.759  12.751
 6400SOL    HW221034  12.819   3.669  12.630
 6401SOL     OW21035   2.609   2.918   4.124
 6401SOL    HW121036   2.704   2.910   4.129
 6401SOL    HW221037   2.585   2.874   4.042
 6402SOL     OW21038  11.748  14.142  11.537
 6402SOL    HW121039  11.781  14.152  11.626
 6402SOL    HW221040  11.810  14.084  11.494
 6403SOL     OW21041   3.721  13.735   8.894
 6403SOL    HW121042   3.801  13.786   8.907
 6403SOL    HW221043   3.746  13.646   8.917
 6404SOL     OW21044  11.688  13.287   3.829
 6404SOL    HW121045  11.731  13.209   3.795
 6404SOL    HW221046  11.753  13.326   3.888
 6405SOL     OW21047  14.349   0.706   7.789
 6405SOL    HW121048  14.268   0.655   7.799
 6405SOL    HW221049  14.319   0.796   7.783
 6406SOL     OW21050   8.705  10.895   1.809
 6406SOL    HW121051   8.739  10.967   1.756
 6406SOL    HW221052   8.610  10.906   1.807
 6407SOL     OW21053   0.031  14.560   2.406
 6407SOL    HW121054  14.837  14.578   2.340
 6407SOL    HW221055   0.109  14.604   2.374
 6408SOL     OW21056   3.363   4.959   9.478
 6408SOL    HW121057   3.305   4.999   9.543
 6408SOL    HW221058   3.306   4.938   9.404
 6409SOL     OW21059   8.609   4.727   1.568
 6409SOL    HW121060   8.560   4.674   1.504
 6409SOL    HW221061   8.591   4.817   1.541
 6410SOL     OW21062  12.205   4.408  11.361
 6410SOL    HW121063  12.132   4.453  11.403
 6410SOL    HW221064  12.248   4.361  11.432
 6411SOL     OW21065   5.500  13.942   8.774
 6411SOL    HW121066   5.499  13.947   8.869
 6411SOL    HW221067   5.408  13.930   8.750
 6412SOL     OW21068  10.047   4.130   5.997
 6412SOL    HW121069  10.003   4.076   5.932
 6412SOL    HW221070  10.079   4.067   6.062
 6413SOL     OW21071   6.662   7.668   2.684
 6413SOL    HW121072   6.600   7.721   2.635
 6413SOL    HW221073   6.681   7.719   2.763
 6414SOL     OW21074   8.659   7.095  10.223
 6414SOL    HW121075   8.591   7.056  10.279
 6414SOL    HW221076   8.613   7.118  10.142
 6415SOL     OW21077   3.821  11.942  11.726
 6415SOL    HW121078   3.742  11.981  11.763
 6415SOL    HW221079   3.789  11.875  11.666
 6416SOL     OW21080   1.863   2.476   4.195
 6416SOL    HW121081   1.774   2.503   4.173
 6416SOL    HW221082   1.870   2.490   4.289
 6417SOL     OW21083   7.371   7.378   9.439
 6417SOL    HW121084   7.325   7.461   9.426
 6417SOL    HW221085   7.350   7.352   9.528
 6418SOL     OW21086   5.385   4.209  12.930
 6418SOL    HW121087   5.441   4.177  13.000
 6418SOL    HW221088   5.345   4.131  12.892
 6419SOL     OW21089  12.371  11.564   4.722
 6419SOL    HW121090  12.326  11.633   4.771
 6419SOL    HW221091  12.302  11.500   4.702
 6420SOL     OW21092   3.673   4.571  10.323
 6420SOL    HW121093   3.707   4.494  10.278
 6420SOL    HW221094   3.638   4.536  10.405
 6421SOL     OW21095  12.432   3.965   4.237
 6421SOL    HW121096  12.523   3.957   4.209
 6421SOL    HW221097  12.432   3.935   4.328
 6422SOL     OW21098   3.578  11.903  12.611
 6422SOL    HW121099   3.549  11.902  12.703
 6422SOL    HW221100   3.520  11.839  12.568
 6423SOL     OW21101   7.323   6.081  14.017
 6423SOL    HW121102   7.348   6.002  14.064
 6423SOL    HW221103   7.232   6.098  14.044
 6424SOL     OW21104   6.722  11.298   7.613
 6424SOL    HW121105   6.678  11.366   7.665
 6424SOL    HW221106   6.749  11.344   7.533
 6425SOL     OW21107  14.705   2.820   0.610
 6425SOL    HW121108  14.714   2.915   0.599
 6425SOL    HW221109  14.735   2.803   0.699
 6426SOL     OW21110  12.989   6.789   9.726
 6426SOL    HW121111  13.048   6.726   9.768
 6426SOL    HW221112  13.031   6.808   9.642
 6427SOL     OW21113   6.565   0.118   9.583
 6427SOL    HW121114   6.471   0.099   9.587
 6427SOL    HW221115   6.595   0.115   9.673
 6428SOL     OW21116   6.421  13.779  10.770
 6428SOL    HW121117   6.506  13.822  10.782
 6428SOL    HW221118   6.423  13.746  10.680
 6429SOL     OW21119   8.897  12.136  11.523
 6429SOL    HW121120   8.931  12.101  11.441
 6429SOL    HW221121   8.930  12.226  11.527
 6430SOL     OW21122  14.031  12.374   2.699
 6430SOL    HW121123  13.939  12.395   2.714
 6430SOL    HW221124  14.037  12.280   2.715
 6431SOL     OW21125  10.164  11.930   9.031
 6431SOL    HW121126  10.099  11.953   8.965
 6431SOL    HW221127  10.180  12.011   9.079
 6432SOL     OW21128  11.311   7.165   0.611
 6432SOL    HW121129  11.219   7.189   0.603
 6432SOL    HW221130  11.317   7.117   0.694
 6433SOL     OW21131   3.586   9.710   2.991
 6433SOL    HW121132   3.614   9.658   3.067
 6433SOL    HW221133   3.635   9.673   2.918
 6434SOL     OW21134   3.575  11.573   9.891
 6434SOL    HW121135   3.632  11.591   9.965
 6434SOL    HW221136   3.597  11.484   9.864
 6435SOL     OW21137   1.513  14.506  13.433
 6435SOL    HW121138   1.563  14.541  13.360
 6435SOL    HW221139   1.532  14.565  13.506
 6436SOL     OW21140   6.603  11.720   3.141
 6436SOL    HW121141   6.680  11.672   3.171
 6436SOL    HW221142   6.544  11.653   3.108
 6437SOL     OW21143   2.653   3.012  10.768
 6437SOL    HW121144   2.564   2.992  10.797
 6437SOL    HW221145   2.699   2.928  10.773
 6438SOL     OW21146  14.814  10.902   6.038
 6438SOL    HW121147  14.796  10.871   6.126
 6438SOL    HW221148  14.746  10.968   6.022
 6439SOL     OW21149   2.347   8.261   5.531
 6439SOL    HW121150   2.373   8.206   5.605
 6439SOL    HW221151   2.277   8.316   5.565
 6440SOL     OW21152   2.287  11.978  11.589
 6440SOL    HW121153   2.196  12.006  11.599
 6440SOL    HW221154   2.303  11.923  11.665
 6441SOL     OW21155  11.900   8.502  12.751
 6441SOL    HW121156  11.910   8.558  12.675
 6441SOL    HW221157  11.980   8.516  12.802
 6442SOL     OW21158   1.959   9.855   2.506
 6442SOL    HW121159   1.882   9.897   2.545
 6442SOL    HW221160   1.974   9.905   2.426
 6443SOL     OW21161   7.258  13.471   4.467
 6443SOL    HW121162   7.242  13.377   4.454
 6443SOL    HW221163   7.172  13.508   4.488
 6444SOL     OW21164  11.471   9.043   5.511
 6444SOL    HW121165  11.422   9.117   5.476
 6444SOL    HW221166  11.428   8.966   5.475
 6445SOL     OW21167  11.935  10.501  10.737
 6445SOL    HW121168  11.960  10.426  10.683
 6445SOL    HW221169  12.004  10.566  10.722
 6446SOL     OW21170   0.378   0.573   4.227
 6446SOL    HW121171   0.367   0.519   4.306
 6446SOL    HW221172   0.421   0.652   4.259
 6447SOL     OW21173   1.898  12.957   6.470
 6447SOL    HW121174   1.931  12.922   6.552
 6447SOL    HW221175   1.882  13.050   6.488
 6448SOL     OW21176  12.453  11.063   0.950
 6448SOL    HW121177  12.496  11.091   0.869
 6448SOL    HW221178  12.503  11.107   1.020
 6449SOL     OW21179   5.550   6.203   1.757
 6449SOL    HW121180   5.574   6.131   1.699
 6449SOL    HW221181   5.511   6.161   1.833
 6450SOL     OW21182   7.933   3.227   3.635
 6450SOL    HW121183   7.842   3.220   3.607
 6450SOL    HW221184   7.982   3.173   3.573
 6451SOL     OW21185   1.222   7.619  10.769
 6451SOL    HW121186   1.149   7.582  10.718
 6451SOL    HW221187   1.284   7.649  10.703
 6452SOL     OW21188  13.745   0.504  14.824
 6452SOL    HW121189  13.662   0.457  14.816
 6452SOL    HW221190  13.739   0.576  14.761
 6453SOL     OW21191   1.597   7.109  12.687
 6453SOL    HW121192   1.689   7.113  12.713
 6453SOL    HW221193   1.599   7.097  12.592
 6454SOL     OW21194   8.489   3.884   5.316
 6454SOL    HW121195   8.537   3.875   5.398
 6454SOL    HW221196   8.415   3.941   5.338
 6455SOL     OW21197   0.836   6.204   7.112
 6455SOL    HW121198   0.929   6.214   7.089
 6455SOL    HW221199   0.836   6.142   7.185
 6456SOL     OW21200  10.632   8.700  11.782
 6456SOL    HW121201  10.626   8.613  11.742
 6456SOL    HW221202  10.726   8.714  11.794
 6457SOL     OW21203   4.952   0.582   1.411
 6457SOL    HW121204   4.893   0.584   1.336
 6457SOL    HW221205   4.894   0.583   1.488
 6458SOL     OW21206   2.681   0.407   3.680
 6458SOL    HW121207   2.603   0.364   3.714
 6458SOL    HW221208   2.655   0.440   3.594
 6459SOL     OW21209  13.252   6.396   4.929
 6459SOL    HW121210  13.293   6.326   4.980
 6459SOL    HW221211  13.241   6.468   4.991
 6460SOL     OW21212   5.204  10.574  14.725
 6460SOL    HW121213   5.182  10.628  14.800
 6460SOL    HW221214   5.282  10.525  14.752
 6461SOL     OW21215  14.823   5.656   0.783
 6461SOL    HW121216  14.815   5.567   0.817
 6461SOL    HW221217  14.862   5.645   0.696
 6462SOL     OW21218  12.541   7.841  11.676
 6462SOL    HW121219  12.547   7.860  11.770
 6462SOL    HW221220  12.526   7.927  11.636
 6463SOL     OW21221  10.317   8.168   7.231
 6463SOL    HW121222  10.370   8.142   7.156
 6463SOL    HW221223  10.322   8.263   7.232
 6464SOL     OW21224   5.063   2.398  10.576
 6464SOL    HW121225   5.132   2.345  10.615
 6464SOL    HW221226   4.982   2.349  10.591
 6465SOL     OW21227   6.579   2.725  13.282
 6465SOL    HW121228   6.633   2.782  13.337
 6465SOL    HW221229   6.638   2.696  13.212
 6466SOL     OW21230   7.710   1.819   7.757
 6466SOL    HW121231   7.768   1.805   7.832
 6466SOL    HW221232   7.729   1.747   7.698
 6467SOL     OW21233  12.554   1.517  11.254
 6467SOL    HW121234  12.552   1.425  11.279
 6467SOL    HW221235  12.611   1.519  11.177
 6468SOL     OW21236   6.212   1.167   7.904
 6468SOL    HW121237   6.208   1.260   7.924
 6468SOL    HW221238   6.305   1.150   7.888
 6469SOL     OW21239   0.695   4.181   1.468
 6469SOL    HW121240   0.699   4.226   1.552
 6469SOL    HW221241   0.634   4.108   1.483
 6470SOL     OW21242   8.781  11.422  12.744
 6470SOL    HW121243   8.690  11.448  12.728
 6470SOL    HW221244   8.792  11.429  12.839
 6471SOL     OW21245   9.677   4.055  11.743
 6471SOL    HW121246   9.761   4.009  11.747
 6471SOL    HW221247   9.641   4.032  11.657
 6472SOL     OW21248   0.113  12.396   3.413
 6472SOL    HW121249   0.028  12.382   3.373
 6472SOL    HW221250   0.176  12.367   3.348
 6473SOL     OW21251  13.633   3.664   1.523
 6473SOL    HW121252  13.686   3.631   1.595
 6473SOL    HW221253  13.677   3.633   1.444
 6474SOL     OW21254  12.262   1.724  11.609
 6474SOL    HW121255  12.306   1.664  11.549
 6474SOL    HW221256  12.276   1.688  11.696
 6475SOL     OW21257   9.466  12.112  11.122
 6475SOL    HW121258   9.531  12.182  11.124
 6475SOL    HW221259   9.518  12.032  11.128
 6476SOL     OW21260  13.637  12.781  10.985
 6476SOL    HW121261  13.564  12.771  10.923
 6476SOL    HW221262  13.715  12.776  10.930
 6477SOL     OW21263  10.040  12.527  13.876
 6477SOL    HW121264   9.990  12.533  13.795
 6477SOL    HW221265   9.989  12.466  13.931
 6478SOL     OW21266   6.936   9.258   0.261
 6478SOL    HW121267   7.017   9.307   0.276
 6478SOL    HW221268   6.923   9.208   0.342
 6479SOL     OW21269   0.850   2.132  14.512
 6479SOL    HW121270   0.850   2.074  14.435
 6479SOL    HW221271   0.757   2.150  14.527
 6480SOL     OW21272  14.834  10.224  13.179
 6480SOL    HW121273  14.799  10.187  13.097
 6480SOL    HW221274  14.797  10.312  13.182
 6481SOL     OW21275   8.045  11.712   3.483
 6481SOL    HW121276   8.086  11.662   3.413
 6481SOL    HW221277   8.068  11.665   3.563
 6482SOL     OW21278   5.730   2.673  13.858
 6482SOL    HW121279   5.670   2.612  13.900
 6482SOL    HW221280   5.673   2.731  13.807
 6483SOL     OW21281   3.821   0.486  11.055
 6483SOL    HW121282   3.871   0.417  11.100
 6483SOL    HW221283   3.821   0.559  11.116
 6484SOL     OW21284   9.558   4.636  13.542
 6484SOL    HW121285   9.593   4.693  13.610
 6484SOL    HW221286   9.607   4.554  13.551
 6485SOL     OW21287   3.380   2.106   7.205
 6485SOL    HW121288   3.353   2.151   7.285
 6485SOL    HW221289   3.471   2.133   7.192
 6486SOL     OW21290   9.119   2.861  11.002
 6486SOL    HW121291   9.091   2.950  10.981
 6486SOL    HW221292   9.156   2.867  11.091
 6487SOL     OW21293   4.251   8.997   8.650
 6487SOL    HW121294   4.342   8.991   8.680
 6487SOL    HW221295   4.257   9.037   8.564
 6488SOL     OW21296   9.735  12.483  12.024
 6488SOL    HW121297   9.660  12.429  11.998
 6488SOL    HW221298   9.811  12.430  12.003
 6489SOL     OW21299   3.961   3.980   0.087
 6489SOL    HW121300   3.938   3.966  14.868
 6489SOL    HW221301   3.933   3.900   0.131
 6490SOL     OW21302   8.680  13.766   0.038
 6490SOL    HW121303   8.668  13.861   0.026
 6490SOL    HW221304   8.591  13.730   0.034
 6491SOL     OW21305   4.237   6.805   9.164
 6491SOL    HW121306   4.327   6.806   9.196
 6491SOL    HW221307   4.216   6.712   9.156
 6492SOL     OW21308   0.530   9.535   4.150
 6492SOL    HW121309   0.529   9.622   4.110
 6492SOL    HW221310   0.448   9.531   4.199
 6493SOL     OW21311   0.989   8.486   8.506
 6493SOL    HW121312   1.051   8.548   8.466
 6493SOL    HW221313   0.942   8.448   8.432
 6494SOL     OW21314   7.981  10.065   3.483
 6494SOL    HW121315   8.004  10.031   3.396
 6494SOL    HW221316   8.019  10.003   3.544
 6495SOL     OW21317  10.512   4.027   1.790
 6495SOL    HW121318  10.548   4.113   1.813
 6495SOL    HW221319  10.573   3.992   1.725
 6496SOL     OW21320   2.590   1.638   8.402
 6496SOL    HW121321   2.609   1.680   8.486
 6496SOL    HW221322   2.497   1.658   8.386
 6497SOL     OW21323   0.546   7.774   7.266
 6497SOL    HW121324   0.509   7.849   7.220
 6497SOL    HW221325   0.478   7.706   7.261
 6498SOL     OW21326  13.693   4.469  10.012
 6498SOL    HW121327  13.624   4.424  10.062
 6498SOL    HW221328  13.687   4.560  10.041
 6499SOL     OW21329   2.879   2.502   8.205
 6499SOL    HW121330   2.871   2.583   8.255
 6499SOL    HW221331   2.952   2.456   8.246
 6500SOL     OW21332   3.012   3.555   9.514
 6500SOL    HW121333   3.011   3.641   9.471
 6500SOL    HW221334   3.074   3.565   9.586
 6501SOL     OW21335   9.429   3.701  12.217
 6501SOL    HW121336   9.455   3.618  12.177
 6501SOL    HW221337   9.378   3.745  12.150
 6502SOL     OW21338  12.227  11.726   4.339
 6502SOL    HW121339  12.313  11.759   4.364
 6502SOL    HW221340  12.205  11.773   4.259
 6503SOL     OW21341  14.845   1.410  14.518
 6503SOL    HW121342  14.754   1.403  14.491
 6503SOL    HW221343   0.012   1.327  14.492
 6504SOL     OW21344   4.301   3.870   0.631
 6504SOL    HW121345   4.390   3.871   0.597
 6504SOL    HW221346   4.305   3.921   0.712
 6505SOL     OW21347   1.445  11.499  12.754
 6505SOL    HW121348   1.512  11.539  12.809
 6505SOL    HW221349   1.446  11.550  12.673
 6506SOL     OW21350  10.166   6.271  14.869
 6506SOL    HW121351  10.173   6.350   0.050
 6506SOL    HW221352  10.204   6.202   0.050
 6507SOL     OW21353  10.216   8.998   7.197
 6507SOL    HW121354  10.198   9.029   7.108
 6507SOL    HW221355  10.276   8.924   7.184
 6508SOL     OW21356  13.722   7.429   8.300
 6508SOL    HW121357  13.780   7.396   8.369
 6508SOL    HW221358  13.634   7.404   8.328
 6509SOL     OW21359  11.920  11.232  10.320
 6509SOL    HW121360  11.825  11.229  10.306
 6509SOL    HW221361  11.934  11.182  10.400
 6510SOL     OW21362   0.860   1.064   6.395
 6510SOL    HW121363   0.929   1.120   6.432
 6510SOL    HW221364   0.871   0.980   6.440
 6511SOL     OW21365   4.948   0.695   8.543
 6511SOL    HW121366   5.042   0.686   8.558
 6511SOL    HW221367   4.936   0.672   8.451
 6512SOL     OW21368   9.115  11.392   4.288
 6512SOL    HW121369   9.181  11.362   4.350
 6512SOL    HW221370   9.035  11.401   4.340
 6513SOL     OW21371   1.996  13.989  11.611
 6513SOL    HW121372   2.001  14.044  11.689
 6513SOL    HW221373   2.088  13.966  11.593
 6514SOL     OW21374  12.633  12.193  14.262
 6514SOL    HW121375  12.650  12.281  14.294
 6514SOL    HW221376  12.657  12.195  14.170
 6515SOL     OW21377   9.894  10.941   8.716
 6515SOL    HW121378   9.814  10.976   8.676
 6515SOL    HW221379   9.918  10.866   8.661
 6516SOL     OW21380   2.217   6.764   2.092
 6516SOL    HW121381   2.221   6.695   2.158
 6516SOL    HW221382   2.175   6.724   2.016
 6517SOL     OW21383  11.056   4.189  12.165
 6517SOL    HW121384  11.114   4.189  12.089
 6517SOL    HW221385  11.083   4.266  12.216
 6518SOL     OW21386  13.178   4.371   0.830
 6518SOL    HW121387  13.261   4.413   0.853
 6518SOL    HW221388  13.176   4.373   0.734
 6519SOL     OW21389   2.798   5.924  11.019
 6519SOL    HW121390   2.713   5.965  11.000
 6519SOL    HW221391   2.852   5.996  11.053
 6520SOL     OW21392   9.753   8.955   8.895
 6520SOL    HW121393   9.801   9.005   8.830
 6520SOL    HW221394   9.670   9.001   8.905
 6521SOL     OW21395  14.192   8.844   7.621
 6521SOL    HW121396  14.216   8.919   7.675
 6521SOL    HW221397  14.270   8.827   7.568
 6522SOL     OW21398   4.308   0.068   5.112
 6522SOL    HW121399   4.215   0.045   5.115
 6522SOL    HW221400   4.343   0.036   5.195
 6523SOL     OW21401   7.530  14.595   2.539
 6523SOL    HW121402   7.604  14.585   2.599
 6523SOL    HW221403   7.485  14.511   2.542
 6524SOL     OW21404   4.541   9.418   5.330
 6524SOL    HW121405   4.491   9.342   5.300
 6524SOL    HW221406   4.604   9.382   5.392
 6525SOL     OW21407   4.120  12.690   5.983
 6525SOL    HW121408   4.053  12.694   5.915
 6525SOL    HW221409   4.075  12.717   6.063
 6526SOL     OW21410  13.920  13.198   8.853
 6526SOL    HW121411  13.857  13.269   8.867
 6526SOL    HW221412  13.993  13.220   8.911
 6527SOL     OW21413  14.550   7.926   1.436
 6527SOL    HW121414  14.468   7.973   1.419
 6527SOL    HW221415  14.552   7.916   1.531
 6528SOL     OW21416   0.267  14.157  11.652
 6528SOL    HW121417   0.300  14.208  11.726
 6528SOL    HW221418   0.219  14.220  11.599
 6529SOL     OW21419  14.165  12.799  11.665
 6529SOL    HW121420  14.148  12.734  11.733
 6529SOL    HW221421  14.110  12.773  11.591
 6530SOL     OW21422   2.163  14.034   6.794
 6530SOL    HW121423   2.072  14.030   6.825
 6530SOL    HW221424   2.214  14.053   6.872
 6531SOL     OW21425   1.332   2.492  14.106
 6531SOL    HW121426   1.396   2.558  14.132
 6531SOL    HW221427   1.250   2.521  14.147
 6532SOL     OW21428  12.494   8.167   5.495
 6532SOL    HW121429  12.447   8.096   5.450
 6532SOL    HW221430  12.487   8.145   5.588
 6533SOL     OW21431   1.498   0.991   1.971
 6533SOL    HW121432   1.514   0.915   1.916
 6533SOL    HW221433   1.521   0.962   2.059
 6534SOL     OW21434  10.090  12.109   7.748
 6534SOL    HW121435  10.145  12.066   7.814
 6534SOL    HW221436  10.148  12.123   7.674
 6535SOL     OW21437   9.821  11.615  11.226
 6535SOL    HW121438   9.750  11.563  11.262
 6535SOL    HW221439   9.887  11.618  11.295
 6536SOL     OW21440   7.565  14.628  14.365
 6536SOL    HW121441   7.504  14.675  14.309
 6536SOL    HW221442   7.650  14.636  14.321
 6537SOL     OW21443  11.002   2.415  12.317
 6537SOL    HW121444  11.037   2.382  12.234
 6537SOL    HW221445  11.009   2.341  12.377
 6538SOL     OW21446  10.859  13.606   3.432
 6538SOL    HW121447  10.923  13.646   3.374
 6538SOL    HW221448  10.774  13.631   3.396
 6539SOL     OW21449   7.057   8.656  11.631
 6539SOL    HW121450   7.044   8.645  11.725
 6539SOL    HW221451   6.969   8.661  11.595
 6540SOL     OW21452   4.335   5.353   3.434
 6540SOL    HW121453   4.371   5.441   3.449
 6540SOL    HW221454   4.388   5.296   3.489
 6541SOL     OW21455   1.381   2.043  11.166
 6541SOL    HW121456   1.291   2.020  11.142
 6541SOL    HW221457   1.434   1.970  11.135
 6542SOL     OW21458   0.532   7.171  10.423
 6542SOL    HW121459   0.540   7.149  10.516
 6542SOL    HW221460   0.596   7.241  10.409
 6543SOL     OW21461   0.892   7.953  14.239
 6543SOL    HW121462   0.942   7.890  14.187
 6543SOL    HW221463   0.935   7.955  14.324
 6544SOL     OW21464  13.272  14.706  14.580
 6544SOL    HW121465  13.242  14.771  14.643
 6544SOL    HW221466  13.300  14.757  14.504
 6545SOL     OW21467   0.911   6.839   7.482
 6545SOL    HW121468   0.974   6.808   7.417
 6545SOL    HW221469   0.893   6.929   7.457
 6546SOL     OW21470  10.421  14.231  14.495
 6546SOL    HW121471  10.450  14.141  14.483
 6546SOL    HW221472  10.459  14.258  14.579
 6547SOL     OW21473   7.142  10.596  10.761
 6547SOL    HW121474   7.216  10.543  10.730
 6547SOL    HW221475   7.112  10.552  10.841
 6548SOL     OW21476   5.950   9.222  13.636
 6548SOL    HW121477   5.927   9.315  13.632
 6548SOL    HW221478   5.875   9.177  13.600
 6549SOL     OW21479   3.792  14.334   1.497
 6549SOL    HW121480   3.874  14.384   1.505
 6549SOL    HW221481   3.819  14.243   1.496
 6550SOL     OW21482   6.984   7.141  14.568
 6550SOL    HW121483   7.036   7.113  14.643
 6550SOL    HW221484   6.978   7.063  14.513
 6551SOL     OW21485  14.004  11.946  14.572
 6551SOL    HW121486  14.029  11.952  14.664
 6551SOL    HW221487  13.926  11.891  14.572
 6552SOL     OW21488   2.660   9.326   1.978
 6552SOL    HW121489   2.637   9.316   2.070
 6552SOL    HW221490   2.631   9.244   1.937
 6553SOL     OW21491   7.503   7.681   3.359
 6553SOL    HW121492   7.408   7.692   3.355
 6553SOL    HW221493   7.528   7.723   3.442
 6554SOL     OW21494  11.075  14.545   5.227
 6554SOL    HW121495  11.066  14.482   5.155
 6554SOL    HW221496  11.085  14.490   5.305
 6555SOL     OW21497  10.597   9.766   9.651
 6555SOL    HW121498  10.527   9.701   9.641
 6555SOL    HW221499  10.573   9.816   9.729
 6556SOL     OW21500   7.072   6.778   2.064
 6556SOL    HW121501   7.094   6.734   1.982
 6556SOL    HW221502   7.156   6.792   2.108
 6557SOL     OW21503  14.456   4.698   2.911
 6557SOL    HW121504  14.498   4.677   2.827
 6557SOL    HW221505  14.412   4.782   2.895
 6558SOL     OW21506   5.567   8.048  13.766
 6558SOL    HW121507   5.644   8.094  13.732
 6558SOL    HW221508   5.492   8.095  13.729
 6559SOL     OW21509   8.685  14.470   7.197
 6559SOL    HW121510   8.622  14.398   7.193
 6559SOL    HW221511   8.750  14.441   7.260
 6560SOL     OW21512   0.489   0.316   2.734
 6560SOL    HW121513   0.510   0.320   2.641
 6560SOL    HW221514   0.446   0.400   2.753
 6561SOL     OW21515  12.714   8.331  12.842
 6561SOL    HW121516  12.736   8.391  12.913
 6561SOL    HW221517  12.665   8.384  12.779
 6562SOL     OW21518   2.021   2.543   1.347
 6562SOL    HW121519   2.056   2.474   1.291
 6562SOL    HW221520   1.926   2.533   1.342
 6563SOL     OW21521   4.762  14.458  13.510
 6563SOL    HW121522   4.718  14.517  13.571
 6563SOL    HW221523   4.693  14.397  13.482
 6564SOL     OW21524  11.050   8.039   4.250
 6564SOL    HW121525  11.047   7.952   4.292
 6564SOL    HW221526  11.021   8.099   4.319
 6565SOL     OW21527  11.942   1.917  14.839
 6565SOL    HW121528  11.871   1.875   0.014
 6565SOL    HW221529  12.018   1.909   0.024
 6566SOL     OW21530   8.300   7.903   0.396
 6566SOL    HW121531   8.295   7.992   0.432
 6566SOL    HW221532   8.212   7.868   0.407
 6567SOL     OW21533   0.705   9.362   0.671
 6567SOL    HW121534   0.698   9.274   0.708
 6567SOL    HW221535   0.785   9.360   0.619
 6568SOL     OW21536  10.035  13.147   9.414
 6568SOL    HW121537  10.008  13.114   9.328
 6568SOL    HW221538  10.032  13.242   9.405
 6569SOL     OW21539   4.707   9.209   8.147
 6569SOL    HW121540   4.681   9.172   8.063
 6569SOL    HW221541   4.635   9.187   8.206
 6570SOL     OW21542   7.244  11.396   6.969
 6570SOL    HW121543   7.323  11.415   6.919
 6570SOL    HW221544   7.199  11.328   6.919
 6571SOL     OW21545  11.506   6.351   0.828
 6571SOL    HW121546  11.590   6.323   0.863
 6571SOL    HW221547  11.442   6.323   0.894
 6572SOL     OW21548  12.715  12.782   3.028
 6572SOL    HW121549  12.713  12.688   3.010
 6572SOL    HW221550  12.773  12.818   2.961
 6573SOL     OW21551   4.787  11.687  12.311
 6573SOL    HW121552   4.813  11.595  12.318
 6573SOL    HW221553   4.870  11.734  12.310
 6574SOL     OW21554   9.316  11.502   0.177
 6574SOL    HW121555   9.276  11.450   0.108
 6574SOL    HW221556   9.288  11.459   0.258
 6575SOL     OW21557   7.589   0.070  11.318
 6575SOL    HW121558   7.631   0.156  11.328
 6575SOL    HW221559   7.544   0.076  11.234
 6576SOL     OW21560   7.950   3.504   3.536
 6576SOL    HW121561   7.963   3.566   3.608
 6576SOL    HW221562   7.904   3.430   3.576
 6577SOL     OW21563  12.396   5.061  11.724
 6577SOL    HW121564  12.452   5.044  11.649
 6577SOL    HW221565  12.372   4.974  11.757
 6578SOL     OW21566  12.579  13.380   4.878
 6578SOL    HW121567  12.634  13.306   4.905
 6578SOL    HW221568  12.565  13.430   4.959
 6579SOL     OW21569   6.284   5.329   4.438
 6579SOL    HW121570   6.208   5.293   4.483
 6579SOL    HW221571   6.341   5.253   4.423
 6580SOL     OW21572   1.703  10.747   0.977
 6580SOL    HW121573   1.705  10.762   1.072
 6580SOL    HW221574   1.794  10.725   0.955
 6581SOL     OW21575   9.088   4.134   7.702
 6581SOL    HW121576   9.174   4.168   7.723
 6581SOL    HW221577   9.060   4.185   7.626
 6582SOL     OW21578   6.589   2.223   1.144
 6582SOL    HW121579   6.576   2.212   1.050
 6582SOL    HW221580   6.587   2.318   1.157
 6583SOL     OW21581   2.198   1.750   3.086
 6583SOL    HW121582   2.229   1.839   3.105
 6583SOL    HW221583   2.222   1.699   3.163
 6584SOL     OW21584   0.371   8.977  11.728
 6584SOL    HW121585   0.312   9.018  11.664
 6584SOL    HW221586   0.376   9.040  11.800
 6585SOL     OW21587   2.896   2.733   7.993
 6585SOL    HW121588   2.914   2.809   8.048
 6585SOL    HW221589   2.938   2.754   7.909
 6586SOL     OW21590   1.199   3.716   5.789
 6586SOL    HW121591   1.158   3.634   5.762
 6586SOL    HW221592   1.209   3.708   5.884
 6587SOL     OW21593  10.356   1.600   8.144
 6587SOL    HW121594  10.271   1.634   8.118
 6587SOL    HW221595  10.377   1.645   8.226
 6588SOL     OW21596  14.036  14.202   0.174
 6588SOL    HW121597  14.049  14.122   0.225
 6588SOL    HW221598  14.112  14.256   0.194
 6589SOL     OW21599   5.742   0.110  13.527
 6589SOL    HW121600   5.721   0.148  13.442
 6589SOL    HW221601   5.702   0.023  13.525
 6590SOL     OW21602   8.431   3.558  11.859
 6590SOL    HW121603   8.447   3.595  11.772
 6590SOL    HW221604   8.505   3.589  11.912
 6591SOL     OW21605  10.856  10.910  14.170
 6591SOL    HW121606  10.815  10.844  14.225
 6591SOL    HW221607  10.784  10.947  14.119
 6592SOL     OW21608  11.452  12.839  10.431
 6592SOL    HW121609  11.358  12.849  10.417
 6592SOL    HW221610  11.487  12.927  10.422
 6593SOL     OW21611  10.644   1.649   4.262
 6593SOL    HW121612  10.664   1.741   4.247
 6593SOL    HW221613  10.721   1.602   4.229
 6594SOL     OW21614   9.796  11.771   1.087
 6594SOL    HW121615   9.858  11.844   1.089
 6594SOL    HW221616   9.715  11.808   1.122
 6595SOL     OW21617  12.747  11.773   8.635
 6595SOL    HW121618  12.664  11.774   8.682
 6595SOL    HW221619  12.814  11.766   8.703
 6596SOL     OW21620   7.409  13.302   2.210
 6596SOL    HW121621   7.384  13.293   2.118
 6596SOL    HW221622   7.369  13.227   2.253
 6597SOL     OW21623   9.886   4.880  12.890
 6597SOL    HW121624   9.921   4.809  12.944
 6597SOL    HW221625   9.838   4.936  12.951
 6598SOL     OW21626  14.324   6.497   0.370
 6598SOL    HW121627  14.387   6.432   0.340
 6598SOL    HW221628  14.364   6.582   0.350
 6599SOL     OW21629  12.639  10.456   2.997
 6599SOL    HW121630  12.583  10.464   3.074
 6599SOL    HW221631  12.696  10.532   3.000
 6600SOL     OW21632   4.836   5.922  14.827
 6600SOL    HW121633   4.765   5.863  14.800
 6600SOL    HW221634   4.869   5.959  14.745
 6601SOL     OW21635   4.343  13.531   4.381
 6601SOL    HW121636   4.327  13.565   4.293
 6601SOL    HW221637   4.402  13.595   4.421
 6602SOL     OW21638  13.659  10.148  11.493
 6602SOL    HW121639  13.710  10.168  11.572
 6602SOL    HW221640  13.721  10.156  11.421
 6603SOL     OW21641   5.239  10.060   0.733
 6603SOL    HW121642   5.143  10.059   0.725
 6603SOL    HW221643   5.262  10.152   0.729
 6604SOL     OW21644  11.182   8.813   5.506
 6604SOL    HW121645  11.218   8.883   5.561
 6604SOL    HW221646  11.245   8.805   5.434
 6605SOL     OW21647   5.451  10.990   8.946
 6605SOL    HW121648   5.386  10.950   8.888
 6605SOL    HW221649   5.530  10.994   8.893
 6606SOL     OW21650   7.601   1.858   3.013
 6606SOL    HW121651   7.690   1.835   2.987
 6606SOL    HW221652   7.555   1.774   3.014
 6607SOL     OW21653   3.619  14.403   9.427
 6607SOL    HW121654   3.570  14.365   9.354
 6607SOL    HW221655   3.709  14.412   9.394
 6608SOL     OW21656  11.683  12.263  14.039
 6608SOL    HW121657  11.756  12.302  14.088
 6608SOL    HW221658  11.720  12.245  13.953
 6609SOL     OW21659   6.241  12.517   5.907
 6609SOL    HW121660   6.243  12.421   5.908
 6609SOL    HW221661   6.201  12.539   5.823
 6610SOL     OW21662  14.836   7.114  10.382
 6610SOL    HW121663  14.832   7.019  10.393
 6610SOL    HW221664   0.021   7.128  10.307
 6611SOL     OW21665  10.961   6.008   1.742
 6611SOL    HW121666  10.887   6.068   1.731
 6611SOL    HW221667  10.969   5.963   1.658
 6612SOL     OW21668  12.154   2.539  12.857
 6612SOL    HW121669  12.237   2.565  12.896
 6612SOL    HW221670  12.177   2.517  12.766
 6613SOL     OW21671   8.370  14.354   7.742
 6613SOL    HW121672   8.460  14.325   7.761
 6613SOL    HW221673   8.353  14.319   7.654
 6614SOL     OW21674   0.041  14.854   3.089
 6614SOL    HW121675   0.078  14.776   3.048
 6614SOL    HW221676   0.117   0.035   3.112
 6615SOL     OW21677  14.492  12.063   5.375
 6615SOL    HW121678  14.476  12.023   5.290
 6615SOL    HW221679  14.567  12.016   5.411
 6616SOL     OW21680   3.116   8.966  13.908
 6616SOL    HW121681   3.129   8.979  13.814
 6616SOL    HW221682   3.067   9.043  13.936
 6617SOL     OW21683   3.478   9.365   4.285
 6617SOL    HW121684   3.546   9.433   4.280
 6617SOL    HW221685   3.429   9.374   4.204
 6618SOL     OW21686   7.870  13.179   6.299
 6618SOL    HW121687   7.786  13.200   6.339
 6618SOL    HW221688   7.926  13.253   6.320
 6619SOL     OW21689   2.605   1.518  13.004
 6619SOL    HW121690   2.522   1.553  12.971
 6619SOL    HW221691   2.658   1.596  13.023
 6620SOL     OW21692   7.684   8.757   1.952
 6620SOL    HW121693   7.609   8.718   1.907
 6620SOL    HW221694   7.752   8.761   1.885
 6621SOL     OW21695   7.000  11.521   7.696
 6621SOL    HW121696   7.026  11.525   7.788
 6621SOL    HW221697   7.017  11.431   7.670
 6622SOL     OW21698   8.447   3.829  11.723
 6622SOL    HW121699   8.407   3.838  11.636
 6622SOL    HW221700   8.534   3.867  11.714
 6623SOL     OW21701   0.347   2.500   7.773
 6623SOL    HW121702   0.321   2.408   7.783
 6623SOL    HW221703   0.411   2.515   7.842
 6624SOL     OW21704   7.766  14.831  11.818
 6624SOL    HW121705   7.789  14.740  11.798
 6624SOL    HW221706   7.706  14.856  11.748
 6625SOL     OW21707   8.808  13.497  14.284
 6625SOL    HW121708   8.872  13.551  14.330
 6625SOL    HW221709   8.732  13.496  14.342
 6626SOL     OW21710   3.736   6.406  10.940
 6626SOL    HW121711   3.697   6.450  10.864
 6626SOL    HW221712   3.715   6.313  10.927
 6627SOL     OW21713   6.707  14.220   3.343
 6627SOL    HW121714   6.642  14.256   3.283
 6627SOL    HW221715   6.779  14.284   3.341
 6628SOL     OW21716   0.521   9.748   2.029
 6628SOL    HW121717   0.500   9.655   2.020
 6628SOL    HW221718   0.617   9.751   2.030
 6629SOL     OW21719  10.597  12.162  14.093
 6629SOL    HW121720  10.631  12.231  14.149
 6629SOL    HW221721  10.507  12.148  14.123
 6630SOL     OW21722   4.947  10.357  12.057
 6630SOL    HW121723   4.873  10.347  12.117
 6630SOL    HW221724   4.987  10.440  12.082
 6631SOL     OW21725   8.452   4.157  10.533
 6631SOL    HW121726   8.420   4.121  10.450
 6631SOL    HW221727   8.390   4.126  10.598
 6632SOL     OW21728   8.991  14.045   3.042
 6632SOL    HW121729   9.026  14.129   3.072
 6632SOL    HW221730   9.002  14.048   2.947
 6633SOL     OW21731  11.545  13.859  10.148
 6633SOL    HW121732  11.622  13.804  10.133
 6633SOL    HW221733  11.478  13.797  10.178
 6634SOL     OW21734   3.851   1.618   9.604
 6634SOL    HW121735   3.868   1.568   9.684
 6634SOL    HW221736   3.836   1.708   9.634
 6635SOL     OW21737   4.642   0.507  11.263
 6635SOL    HW121738   4.601   0.491  11.348
 6635SOL    HW221739   4.574   0.490  11.199
 6636SOL     OW21740   0.334   5.896   4.827
 6636SOL    HW121741   0.366   5.850   4.904
 6636SOL    HW221742   0.337   5.830   4.757
 6637SOL     OW21743   1.966   0.264  12.017
 6637SOL    HW121744   1.878   0.299  12.010
 6637SOL    HW221745   1.974   0.238  12.109
 6638SOL     OW21746   0.928  14.441   4.683
 6638SOL    HW121747   0.950  14.349   4.702
 6638SOL    HW221748   0.834  14.440   4.665
 6639SOL     OW21749  13.845   4.399   1.122
 6639SOL    HW121750  13.918   4.378   1.063
 6639SOL    HW221751  13.801   4.473   1.080
 6640SOL     OW21752   2.503  12.951  11.743
 6640SOL    HW121753   2.419  12.942  11.698
 6640SOL    HW221754   2.509  12.872  11.798
 6641SOL     OW21755  13.440  10.795  10.530
 6641SOL    HW121756  13.478  10.767  10.614
 6641SOL    HW221757  13.384  10.869  10.552
 6642SOL     OW21758   0.565   0.473  11.822
 6642SOL    HW121759   0.598   0.557  11.853
 6642SOL    HW221760   0.636   0.411  11.838
 6643SOL     OW21761   3.594   2.959   8.199
 6643SOL    HW121762   3.651   3.007   8.259
 6643SOL    HW221763   3.639   2.876   8.184
 6644SOL     OW21764   6.353  12.339   0.315
 6644SOL    HW121765   6.352  12.431   0.290
 6644SOL    HW221766   6.383  12.339   0.406
 6645SOL     OW21767   5.790   0.829   2.482
 6645SOL    HW121768   5.855   0.774   2.526
 6645SOL    HW221769   5.790   0.799   2.392
 6646SOL     OW21770   2.828  13.743   2.911
 6646SOL    HW121771   2.866  13.720   2.995
 6646SOL    HW221772   2.739  13.771   2.931
 6647SOL     OW21773   7.279   2.071   6.102
 6647SOL    HW121774   7.295   2.024   6.184
 6647SOL    HW221775   7.184   2.067   6.091
 6648SOL     OW21776   1.677  13.190   9.564
 6648SOL    HW121777   1.695  13.118   9.625
 6648SOL    HW221778   1.708  13.268   9.610
 6649SOL     OW21779   3.639   6.822   5.823
 6649SOL    HW121780   3.696   6.896   5.839
 6649SOL    HW221781   3.562   6.859   5.779
 6650SOL     OW21782   8.664   4.917   4.405
 6650SOL    HW121783   8.592   4.890   4.462
 6650SOL    HW221784   8.715   4.979   4.459
 6651SOL     OW21785  13.957  10.971   3.971
 6651SOL    HW121786  14.047  10.966   3.938
 6651SOL    HW221787  13.903  10.946   3.897
 6652SOL     OW21788  13.529  11.178   6.993
 6652SOL    HW121789  13.527  11.114   7.063
 6652SOL    HW221790  13.508  11.128   6.914
 6653SOL     OW21791   5.707  10.287  13.534
 6653SOL    HW121792   5.755  10.343  13.473
 6653SOL    HW221793   5.761  10.286  13.613
 6654SOL     OW21794  12.443   7.619  10.931
 6654SOL    HW121795  12.523   7.567  10.930
 6654SOL    HW221796  12.381   7.567  10.983
 6655SOL     OW21797   8.099  11.021   7.726
 6655SOL    HW121798   8.050  11.058   7.653
 6655SOL    HW221799   8.088  10.927   7.718
 6656SOL     OW21800   8.590   3.630  10.685
 6656SOL    HW121801   8.576   3.570  10.611
 6656SOL    HW221802   8.589   3.573  10.761
 6657SOL     OW21803   6.914  14.507  13.459
 6657SOL    HW121804   6.894  14.435  13.520
 6657SOL    HW221805   6.983  14.557  13.502
 6658SOL     OW21806   1.553   8.642   6.973
 6658SOL    HW121807   1.476   8.613   7.022
 6658SOL    HW221808   1.612   8.679   7.039
 6659SOL     OW21809   3.271   3.375  13.032
 6659SOL    HW121810   3.190   3.379  12.981
 6659SOL    HW221811   3.272   3.457  13.081
 6660SOL     OW21812   2.753  11.822  14.272
 6660SOL    HW121813   2.740  11.915  14.251
 6660SOL    HW221814   2.823  11.794  14.213
 6661SOL     OW21815  13.468   6.891   0.979
 6661SOL    HW121816  13.468   6.807   0.933
 6661SOL    HW221817  13.454   6.956   0.910
 6662SOL     OW21818  10.618   3.409   3.666
 6662SOL    HW121819  10.609   3.315   3.676
 6662SOL    HW221820  10.550   3.447   3.722
 6663SOL     OW21821   6.257   5.343  14.657
 6663SOL    HW121822   6.234   5.354  14.749
 6663SOL    HW221823   6.250   5.432  14.620
 6664SOL     OW21824   1.442   6.802   2.002
 6664SOL    HW121825   1.483   6.886   1.981
 6664SOL    HW221826   1.384   6.821   2.076
 6665SOL     OW21827   8.113   7.601   9.597
 6665SOL    HW121828   8.081   7.526   9.546
 6665SOL    HW221829   8.044   7.666   9.589
 6666SOL     OW21830  10.234   4.799  12.912
 6666SOL    HW121831  10.242   4.894  12.909
 6666SOL    HW221832  10.271   4.775  12.997
 6667SOL     OW21833  11.275   7.669   0.415
 6667SOL    HW121834  11.360   7.708   0.433
 6667SOL    HW221835  11.217   7.705   0.483
 6668SOL     OW21836  14.312   9.340   0.616
 6668SOL    HW121837  14.236   9.286   0.637
 6668SOL    HW221838  14.383   9.305   0.671
 6669SOL     OW21839  12.911   8.250  10.268
 6669SOL    HW121840  13.000   8.222  10.286
 6669SOL    HW221841  12.920   8.324  10.207
 6670SOL     OW21842  11.890   3.076   0.099
 6670SOL    HW121843  11.956   3.017   0.137
 6670SOL    HW221844  11.898   3.063   0.005
 6671SOL     OW21845   9.275  12.560   1.593
 6671SOL    HW121846   9.227  12.590   1.670
 6671SOL    HW221847   9.312  12.639   1.556
 6672SOL     OW21848   5.829   8.727   6.654
 6672SOL    HW121849   5.746   8.686   6.681
 6672SOL    HW221850   5.886   8.653   6.631
 6673SOL     OW21851   7.082   7.231   5.893
 6673SOL    HW121852   7.008   7.217   5.952
 6673SOL    HW221853   7.066   7.316   5.854
 6674SOL     OW21854  12.562   8.515   5.230
 6674SOL    HW121855  12.538   8.586   5.290
 6674SOL    HW221856  12.484   8.460   5.224
 6675SOL     OW21857   4.632   0.500   0.939
 6675SOL    HW121858   4.662   0.450   0.863
 6675SOL    HW221859   4.622   0.590   0.906
 6676SOL     OW21860   5.188   4.705   5.943
 6676SOL    HW121861   5.100   4.721   5.978
 6676SOL    HW221862   5.174   4.689   5.850
 6677SOL     OW21863   1.258   1.522   4.941
 6677SOL    HW121864   1.276   1.610   4.909
 6677SOL    HW221865   1.225   1.536   5.030
 6678SOL     OW21866   4.771   4.790  14.783
 6678SOL    HW121867   4.821   4.724  14.831
 6678SOL    HW221868   4.746   4.854  14.850
 6679SOL     OW21869  14.624   6.464   8.200
 6679SOL    HW121870  14.630   6.525   8.126
 6679SOL    HW221871  14.715   6.446   8.224
 6680SOL     OW21872   7.847   5.662   4.519
 6680SOL    HW121873   7.929   5.699   4.485
 6680SOL    HW221874   7.849   5.681   4.612
 6681SOL     OW21875  12.172   0.360  13.772
 6681SOL    HW121876  12.261   0.340  13.744
 6681SOL    HW221877  12.178   0.450  13.806
 6682SOL     OW21878  12.377   4.023  14.471
 6682SOL    HW121879  12.434   4.069  14.532
 6682SOL    HW221880  12.391   4.067  14.387
 6683SOL     OW21881   4.788   8.718   7.843
 6683SOL    HW121882   4.834   8.653   7.789
 6683SOL    HW221883   4.833   8.714   7.927
 6684SOL     OW21884   7.510   6.278   9.530
 6684SOL    HW121885   7.496   6.251   9.440
 6684SOL    HW221886   7.490   6.200   9.582
 6685SOL     OW21887   4.813  12.566   3.714
 6685SOL    HW121888   4.854  12.563   3.801
 6685SOL    HW221889   4.724  12.597   3.731
 6686SOL     OW21890   3.858  12.264   0.710
 6686SOL    HW121891   3.883  12.355   0.696
 6686SOL    HW221892   3.911  12.215   0.646
 6687SOL     OW21893  11.623   7.640  10.633
 6687SOL    HW121894  11.578   7.630  10.716
 6687SOL    HW221895  11.704   7.686  10.655
 6688SOL     OW21896  14.629   3.266   7.018
 6688SOL    HW121897  14.566   3.317   7.069
 6688SOL    HW221898  14.676   3.331   6.966
 6689SOL     OW21899   6.176   0.459   0.162
 6689SOL    HW121900   6.082   0.474   0.157
 6689SOL    HW221901   6.215   0.546   0.154
 6690SOL     OW21902  10.234   1.008   0.076
 6690SOL    HW121903  10.182   1.085   0.052
 6690SOL    HW221904  10.272   0.977  14.867
 6691SOL     OW21905   4.628  10.323   1.475
 6691SOL    HW121906   4.543  10.365   1.488
 6691SOL    HW221907   4.607  10.240   1.431
 6692SOL     OW21908   9.795   0.351   9.130
 6692SOL    HW121909   9.884   0.381   9.150
 6692SOL    HW221910   9.808   0.277   9.071
 6693SOL     OW21911   7.056   2.386   3.461
 6693SOL    HW121912   7.009   2.304   3.477
 6693SOL    HW221913   7.107   2.370   3.382
 6694SOL     OW21914   3.840  10.372   4.177
 6694SOL    HW121915   3.835  10.395   4.270
 6694SOL    HW221916   3.750  10.377   4.146
 6695SOL     OW21917   8.524  11.772   5.329
 6695SOL    HW121918   8.435  11.745   5.304
 6695SOL    HW221919   8.580  11.705   5.291
 6696SOL     OW21920   3.260  14.571   4.741
 6696SOL    HW121921   3.282  14.523   4.661
 6696SOL    HW221922   3.167  14.552   4.756
 6697SOL     OW21923   1.363   8.925   1.244
 6697SOL    HW121924   1.351   8.847   1.299
 6697SOL    HW221925   1.276   8.941   1.207
 6698SOL     OW21926   6.988   0.182   0.746
 6698SOL    HW121927   6.956   0.150   0.830
 6698SOL    HW221928   6.919   0.241   0.715
 6699SOL     OW21929   4.865   7.856   3.651
 6699SOL    HW121930   4.955   7.854   3.617
 6699SOL    HW221931   4.822   7.782   3.609
 6700SOL     OW21932   8.434   2.754   4.329
 6700SOL    HW121933   8.491   2.756   4.405
 6700SOL    HW221934   8.428   2.661   4.305
 6701SOL     OW21935   6.853  11.425   9.776
 6701SOL    HW121936   6.772  11.458   9.737
 6701SOL    HW221937   6.843  11.330   9.777
 6702SOL     OW21938  12.447   3.832   7.424
 6702SOL    HW121939  12.372   3.861   7.372
 6702SOL    HW221940  12.442   3.736   7.422
 6703SOL     OW21941  11.359   7.929   2.547
 6703SOL    HW121942  11.399   7.849   2.514
 6703SOL    HW221943  11.288   7.898   2.604
 6704SOL     OW21944   3.658   5.264  12.948
 6704SOL    HW121945   3.740   5.216  12.954
 6704SOL    HW221946   3.638   5.265  12.854
 6705SOL     OW21947  11.791   9.172  11.181
 6705SOL    HW121948  11.797   9.263  11.150
 6705SOL    HW221949  11.697   9.158  11.195
 6706SOL     OW21950   4.421   0.560   8.753
 6706SOL    HW121951   4.495   0.505   8.729
 6706SOL    HW221952   4.437   0.643   8.708
 6707SOL     OW21953  10.547   8.257   0.158
 6707SOL    HW121954  10.639   8.273   0.179
 6707SOL    HW221955  10.499   8.325   0.206
 6708SOL     OW21956   4.326   4.670   0.628
 6708SOL    HW121957   4.386   4.690   0.557
 6708SOL    HW221958   4.293   4.756   0.656
 6709SOL     OW21959   0.787   9.064   5.830
 6709SOL    HW121960   0.781   8.990   5.891
 6709SOL    HW221961   0.719   9.047   5.765
 6710SOL     OW21962   0.628  13.210   0.705
 6710SOL    HW121963   0.620  13.301   0.676
 6710SOL    HW221964   0.613  13.158   0.625
 6711SOL     OW21965   8.846   6.054  12.926
 6711SOL    HW121966   8.899   6.130  12.950
 6711SOL    HW221967   8.852   5.996  13.002
 6712SOL     OW21968  13.189   8.810   8.419
 6712SOL    HW121969  13.104   8.852   8.429
 6712SOL    HW221970  13.223   8.803   8.509
 6713SOL     OW21971  14.853   0.351   8.015
 6713SOL    HW121972  14.764   0.371   8.042
 6713SOL    HW221973   0.028   0.336   8.096
 6714SOL     OW21974  14.330   8.802  10.453
 6714SOL    HW121975  14.380   8.878  10.482
 6714SOL    HW221976  14.397   8.735  10.437
 6715SOL     OW21977  10.442  14.225  13.076
 6715SOL    HW121978  10.445  14.277  12.996
 6715SOL    HW221979  10.526  14.179  13.079
 6716SOL     OW21980   0.391   4.239   3.072
 6716SOL    HW121981   0.371   4.152   3.107
 6716SOL    HW221982   0.353   4.238   2.984
 6717SOL     OW21983  11.269   7.140   0.873
 6717SOL    HW121984  11.182   7.180   0.877
 6717SOL    HW221985  11.280   7.097   0.958
 6718SOL     OW21986   9.217  11.424  10.118
 6718SOL    HW121987   9.216  11.467  10.204
 6718SOL    HW221988   9.166  11.344  10.131
 6719SOL     OW21989  12.465   1.105   0.415
 6719SOL    HW121990  12.404   1.151   0.474
 6719SOL    HW221991  12.552   1.134   0.444
 6720SOL     OW21992  10.930   7.319   3.409
 6720SOL    HW121993  10.877   7.374   3.468
 6720SOL    HW221994  11.018   7.356   3.415
 6721SOL     OW21995  11.284   7.871   7.942
 6721SOL    HW121996  11.294   7.922   7.861
 6721SOL    HW221997  11.220   7.919   7.993
 6722SOL     OW21998   9.882  13.885  10.170
 6722SOL    HW121999   9.822  13.914  10.239
 6722SOL    HW222000   9.932  13.963  10.148
 6723SOL     OW22001   5.627   0.624   6.419
 6723SOL    HW122002   5.588   0.637   6.332
 6723SOL    HW222003   5.720   0.642   6.407
 6724SOL     OW22004   7.258   4.243   5.410
 6724SOL    HW122005   7.179   4.193   5.429
 6724SOL    HW222006   7.286   4.277   5.495
 6725SOL     OW22007   9.659   9.362  10.457
 6725SOL    HW122008   9.687   9.279  10.418
 6725SOL    HW222009   9.627   9.413  10.382
 6726SOL     OW22010  13.528   8.738   3.002
 6726SOL    HW122011  13.519   8.812   3.063
 6726SOL    HW222012  13.443   8.693   3.007
 6727SOL     OW22013   8.826   3.192  13.610
 6727SOL    HW122014   8.917   3.218  13.616
 6727SOL    HW222015   8.780   3.247  13.673
 6728SOL     OW22016  14.321   9.174   6.992
 6728SOL    HW122017  14.334   9.112   6.920
 6728SOL    HW222018  14.227   9.177   7.005
 6729SOL     OW22019  11.828   3.853  12.710
 6729SOL    HW122020  11.897   3.903  12.667
 6729SOL    HW222021  11.848   3.762  12.689
 6730SOL     OW22022   7.154  11.228   4.447
 6730SOL    HW122023   7.169  11.320   4.470
 6730SOL    HW222024   7.082  11.201   4.504
 6731SOL     OW22025   6.240  12.306   5.243
 6731SOL    HW122026   6.279  12.370   5.183
 6731SOL    HW222027   6.262  12.221   5.205
 6732SOL     OW22028   5.980   2.082   8.973
 6732SOL    HW122029   5.913   2.124   9.027
 6732SOL    HW222030   5.936   2.064   8.890
 6733SOL     OW22031  12.982  10.508  11.305
 6733SOL    HW122032  13.060  10.526  11.357
 6733SOL    HW222033  12.948  10.425  11.339
 6734SOL     OW22034   9.363   2.888   2.781
 6734SOL    HW122035   9.321   2.867   2.865
 6734SOL    HW222036   9.350   2.810   2.727
 6735SOL     OW22037   1.417   6.488   7.952
 6735SOL    HW122038   1.445   6.577   7.933
 6735SOL    HW222039   1.451   6.437   7.878
 6736SOL     OW22040  12.058   5.123   2.132
 6736SOL    HW122041  12.070   5.106   2.038
 6736SOL    HW222042  11.991   5.191   2.135
 6737SOL     OW22043  10.470   8.150  13.044
 6737SOL    HW122044  10.473   8.157  13.139
 6737SOL    HW222045  10.497   8.236  13.012
 6738SOL     OW22046  14.103   3.422  14.193
 6738SOL    HW122047  14.015   3.392  14.214
 6738SOL    HW222048  14.154   3.342  14.180
 6739SOL     OW22049   2.907   6.998   0.277
 6739SOL    HW122050   2.874   6.995   0.367
 6739SOL    HW222051   2.994   6.959   0.283
 6740SOL     OW22052  10.065   8.713   7.637
 6740SOL    HW122053  10.041   8.668   7.718
 6740SOL    HW222054  10.132   8.658   7.598
 6741SOL     OW22055   2.079  10.018   5.626
 6741SOL    HW122056   2.165  10.036   5.588
 6741SOL    HW222057   2.031   9.974   5.556
 6742SOL     OW22058   2.660   8.636  11.543
 6742SOL    HW122059   2.646   8.698  11.472
 6742SOL    HW222060   2.576   8.592  11.554
 6743SOL     OW22061   1.668  11.417   4.808
 6743SOL    HW122062   1.646  11.495   4.757
 6743SOL    HW222063   1.713  11.450   4.885
 6744SOL     OW22064   7.648   7.613   5.828
 6744SOL    HW122065   7.700   7.552   5.776
 6744SOL    HW222066   7.669   7.591   5.919
 6745SOL     OW22067  13.544   7.243  12.370
 6745SOL    HW122068  13.462   7.207  12.338
 6745SOL    HW222069  13.518   7.306  12.437
 6746SOL     OW22070   9.489  14.861  12.067
 6746SOL    HW122071   9.561   0.038  12.028
 6746SOL    HW222072   9.513  14.853  12.159
 6747SOL     OW22073   2.020   4.079   4.537
 6747SOL    HW122074   2.099   4.047   4.494
 6747SOL    HW222075   2.028   4.174   4.535
 6748SOL     OW22076   2.931   0.959   0.926
 6748SOL    HW122077   2.931   0.895   0.855
 6748SOL    HW222078   3.005   1.017   0.906
 6749SOL     OW22079  11.212   8.985   5.708
 6749SOL    HW122080  11.274   9.040   5.754
 6749SOL    HW222081  11.194   8.913   5.769
 6750SOL     OW22082   6.074   6.559   7.300
 6750SOL    HW122083   6.074   6.545   7.205
 6750SOL    HW222084   5.983   6.580   7.321
 6751SOL     OW22085   3.593  12.088   9.991
 6751SOL    HW122086   3.583  12.173   9.948
 6751SOL    HW222087   3.642  12.035   9.928
 6752SOL     OW22088   3.465   1.775   3.058
 6752SOL    HW122089   3.464   1.727   2.975
 6752SOL    HW222090   3.510   1.717   3.119
 6753SOL     OW22091   0.789  13.976  13.224
 6753SOL    HW122092   0.716  13.915  13.231
 6753SOL    HW222093   0.833  13.953  13.142
 6754SOL     OW22094   5.828   0.229   6.122
 6754SOL    HW122095   5.745   0.216   6.075
 6754SOL    HW222096   5.804   0.288   6.194
 6755SOL     OW22097   3.432  11.124  12.508
 6755SOL    HW122098   3.452  11.150  12.598
 6755SOL    HW222099   3.410  11.205  12.463
 6756SOL     OW22100   5.790   3.413  10.739
 6756SOL    HW122101   5.844   3.374  10.808
 6756SOL    HW222102   5.777   3.504  10.767
 6757SOL     OW22103   4.950  11.922   1.586
 6757SOL    HW122104   4.967  11.831   1.559
 6757SOL    HW222105   5.025  11.971   1.555
 6758SOL     OW22106   4.957   6.271  13.965
 6758SOL    HW122107   4.922   6.295  14.051
 6758SOL    HW222108   4.893   6.210  13.929
 6759SOL     OW22109   7.193   2.415  12.640
 6759SOL    HW122110   7.232   2.421  12.727
 6759SOL    HW222111   7.106   2.452  12.650
 6760SOL     OW22112   2.549   0.068   9.261
 6760SOL    HW122113   2.552   0.161   9.236
 6760SOL    HW222114   2.497   0.066   9.341
 6761SOL     OW22115   0.370  12.423   5.483
 6761SOL    HW122116   0.391  12.333   5.508
 6761SOL    HW222117   0.275  12.422   5.468
 6762SOL     OW22118  10.882  10.571   9.017
 6762SOL    HW122119  10.792  10.553   9.044
 6762SOL    HW222120  10.879  10.565   8.922
 6763SOL     OW22121   6.213  13.736  13.121
 6763SOL    HW122122   6.121  13.760  13.114
 6763SOL    HW222123   6.260  13.819  13.115
 6764SOL     OW22124   4.609  10.836  13.151
 6764SOL    HW122125   4.555  10.914  13.136
 6764SOL    HW222126   4.671  10.863  13.219
 6765SOL     OW22127   6.687   8.578   3.742
 6765SOL    HW122128   6.772   8.598   3.782
 6765SOL    HW222129   6.652   8.664   3.717
 6766SOL     OW22130   1.094   1.259   0.387
 6766SOL    HW122131   1.043   1.333   0.421
 6766SOL    HW222132   1.157   1.299   0.328
 6767SOL     OW22133   8.296   6.097  11.789
 6767SOL    HW122134   8.314   6.146  11.869
 6767SOL    HW222135   8.221   6.142  11.750
 6768SOL     OW22136   8.832   9.821  11.790
 6768SOL    HW122137   8.874   9.862  11.865
 6768SOL    HW222138   8.837   9.887  11.721
 6769SOL     OW22139   0.475   2.279   9.982
 6769SOL    HW122140   0.557   2.256   9.937
 6769SOL    HW222141   0.440   2.352   9.930
 6770SOL     OW22142   3.328  10.835   6.835
 6770SOL    HW122143   3.411  10.871   6.865
 6770SOL    HW222144   3.262  10.889   6.877
 6771SOL     OW22145   9.305   9.979  12.288
 6771SOL    HW122146   9.299   9.884  12.294
 6771SOL    HW222147   9.287  10.010  12.377
 6772SOL     OW22148   1.226  13.839   3.644
 6772SOL    HW122149   1.283  13.855   3.719
 6772SOL    HW222150   1.215  13.925   3.603
 6773SOL     OW22151   3.750   9.173  13.927
 6773SOL    HW122152   3.683   9.186  13.859
 6773SOL    HW222153   3.831   9.160  13.878
 6774SOL     OW22154   5.568   9.782   7.701
 6774SOL    HW122155   5.530   9.870   7.699
 6774SOL    HW222156   5.493   9.723   7.694
 6775SOL     OW22157  11.098  13.882   7.246
 6775SOL    HW122158  11.190  13.883   7.272
 6775SOL    HW222159  11.065  13.798   7.279
 6776SOL     OW22160   4.925   6.104   2.536
 6776SOL    HW122161   4.901   6.098   2.629
 6776SOL    HW222162   4.957   6.194   2.526
 6777SOL     OW22163   1.814  10.104   3.024
 6777SOL    HW122164   1.897  10.080   2.982
 6777SOL    HW222165   1.838  10.125   3.114
 6778SOL     OW22166   8.847   5.263   2.456
 6778SOL    HW122167   8.756   5.236   2.470
 6778SOL    HW222168   8.899   5.199   2.504
 6779SOL     OW22169  11.728  14.758  12.689
 6779SOL    HW122170  11.716  14.689  12.755
 6779SOL    HW222171  11.698  14.718  12.607
 6780SOL     OW22172   1.685   9.325   8.982
 6780SOL    HW122173   1.766   9.337   9.032
 6780SOL    HW222174   1.669   9.410   8.942
 6781SOL     OW22175  12.392   3.811   2.029
 6781SOL    HW122176  12.454   3.799   1.957
 6781SOL    HW222177  12.363   3.902   2.021
 6782SOL     OW22178   8.352   1.440   4.584
 6782SOL    HW122179   8.266   1.480   4.570
 6782SOL    HW222180   8.342   1.350   4.555
 6783SOL     OW22181  10.812   7.436   4.042
 6783SOL    HW122182  10.847   7.350   4.065
 6783SOL    HW222183  10.889   7.488   4.018
 6784SOL     OW22184  13.157  13.613   1.021
 6784SOL    HW122185  13.170  13.628   1.115
 6784SOL    HW222186  13.088  13.548   1.015
 6785SOL     OW22187  10.722  11.805   8.595
 6785SOL    HW122188  10.652  11.817   8.531
 6785SOL    HW222189  10.798  11.846   8.555
 6786SOL     OW22190   3.355  12.947   1.188
 6786SOL    HW122191   3.386  12.860   1.210
 6786SOL    HW222192   3.308  12.935   1.105
 6787SOL     OW22193   3.662   1.965  14.629
 6787SOL    HW122194   3.603   2.001  14.695
 6787SOL    HW222195   3.609   1.961  14.550
 6788SOL     OW22196   8.881   4.453  12.932
 6788SOL    HW122197   8.850   4.366  12.956
 6788SOL    HW222198   8.943   4.477  13.002
 6789SOL     OW22199   8.200   2.062   0.544
 6789SOL    HW122200   8.146   2.139   0.526
 6789SOL    HW222201   8.218   2.068   0.638
 6790SOL     OW22202   2.092   3.356   1.023
 6790SOL    HW122203   2.006   3.395   1.015
 6790SOL    HW222204   2.144   3.421   1.070
 6791SOL     OW22205  10.497   6.542   2.502
 6791SOL    HW122206  10.480   6.510   2.590
 6791SOL    HW222207  10.549   6.473   2.461
 6792SOL     OW22208   4.536   5.878   1.728
 6792SOL    HW122209   4.508   5.965   1.701
 6792SOL    HW222210   4.457   5.837   1.766
 6793SOL     OW22211   6.000   7.406   4.839
 6793SOL    HW122212   5.993   7.489   4.791
 6793SOL    HW222213   5.910   7.378   4.850
 6794SOL     OW22214  10.310  10.235   1.904
 6794SOL    HW122215  10.276  10.318   1.870
 6794SOL    HW222216  10.304  10.243   1.999
 6795SOL     OW22217  11.435  10.250   6.461
 6795SOL    HW122218  11.488  10.226   6.537
 6795SOL    HW222219  11.424  10.169   6.413
 6796SOL     OW22220   4.685   7.886   5.635
 6796SOL    HW122221   4.610   7.869   5.692
 6796SOL    HW222222   4.677   7.979   5.612
 6797SOL     OW22223   7.588   7.563   1.566
 6797SOL    HW122224   7.575   7.637   1.506
 6797SOL    HW222225   7.503   7.553   1.610
 6798SOL     OW22226   7.495  13.961  13.497
 6798SOL    HW122227   7.427  13.927  13.438
 6798SOL    HW222228   7.447  14.006  13.566
 6799SOL     OW22229   0.086   8.160   9.122
 6799SOL    HW122230   0.119   8.159   9.033
 6799SOL    HW222231   0.140   8.096   9.168
 6800SOL     OW22232   8.389   0.476   6.368
 6800SOL    HW122233   8.473   0.517   6.345
 6800SOL    HW222234   8.325   0.547   6.359
 6801SOL     OW22235   4.313  14.091   8.618
 6801SOL    HW122236   4.395  14.080   8.666
 6801SOL    HW222237   4.333  14.158   8.552
 6802SOL     OW22238   1.029   0.773  11.926
 6802SOL    HW122239   0.995   0.860  11.904
 6802SOL    HW222240   1.122   0.776  11.903
 6803SOL     OW22241   9.483   1.435  10.270
 6803SOL    HW122242   9.494   1.466  10.180
 6803SOL    HW222243   9.441   1.350  10.261
 6804SOL     OW22244   2.139  10.478   1.500
 6804SOL    HW122245   2.159  10.572   1.497
 6804SOL    HW222246   2.211  10.436   1.455
 6805SOL     OW22247  14.242   3.847   2.148
 6805SOL    HW122248  14.220   3.866   2.056
 6805SOL    HW222249  14.168   3.882   2.197
 6806SOL     OW22250  11.667   4.791   9.856
 6806SOL    HW122251  11.665   4.849   9.932
 6806SOL    HW222252  11.577   4.760   9.848
 6807SOL     OW22253   4.656   5.854  12.184
 6807SOL    HW122254   4.617   5.879  12.101
 6807SOL    HW222255   4.635   5.927  12.243
 6808SOL     OW22256   2.152  13.932  13.795
 6808SOL    HW122257   2.233  13.887  13.771
 6808SOL    HW222258   2.149  14.009  13.738
 6809SOL     OW22259   5.731   8.609  10.925
 6809SOL    HW122260   5.637   8.592  10.931
 6809SOL    HW222261   5.736   8.702  10.904
 6810SOL     OW22262   4.664   6.249  12.131
 6810SOL    HW122263   4.729   6.179  12.121
 6810SOL    HW222264   4.655   6.260  12.226
 6811SOL     OW22265   5.435   1.221   7.403
 6811SOL    HW122266   5.490   1.146   7.380
 6811SOL    HW222267   5.420   1.266   7.319
 6812SOL     OW22268   8.438   7.895   0.881
 6812SOL    HW122269   8.492   7.817   0.892
 6812SOL    HW222270   8.386   7.878   0.802
 6813SOL     OW22271   6.882   8.081   9.663
 6813SOL    HW122272   6.944   8.126   9.605
 6813SOL    HW222273   6.799   8.126   9.649
 6814SOL     OW22274   5.881   1.214   4.108
 6814SOL    HW122275   5.883   1.252   4.196
 6814SOL    HW222276   5.796   1.171   4.102
 6815SOL     OW22277   9.698   4.200   1.378
 6815SOL    HW122278   9.704   4.110   1.410
 6815SOL    HW222279   9.718   4.255   1.454
 6816SOL     OW22280  12.651   7.197   3.410
 6816SOL    HW122281  12.561   7.200   3.442
 6816SOL    HW222282  12.664   7.282   3.367
 6817SOL     OW22283   4.744  11.912   4.669
 6817SOL    HW122284   4.809  11.869   4.724
 6817SOL    HW222285   4.793  11.976   4.618
 6818SOL     OW22286   7.527  13.786   8.119
 6818SOL    HW122287   7.490  13.823   8.200
 6818SOL    HW222288   7.452  13.777   8.060
 6819SOL     OW22289  11.703   8.907  11.922
 6819SOL    HW122290  11.691   8.981  11.981
 6819SOL    HW222291  11.629   8.849  11.941
 6820SOL     OW22292  14.324  12.298   7.484
 6820SOL    HW122293  14.385  12.359   7.527
 6820SOL    HW222294  14.277  12.352   7.421
 6821SOL     OW22295   6.026   7.944  10.835
 6821SOL    HW122296   5.989   8.032  10.829
 6821SOL    HW222297   6.096   7.943  10.770
 6822SOL     OW22298   4.191   8.744  13.265
 6822SOL    HW122299   4.151   8.676  13.210
 6822SOL    HW222300   4.138   8.822  13.250
 6823SOL     OW22301   5.841  12.421  11.258
 6823SOL    HW122302   5.876  12.341  11.220
 6823SOL    HW222303   5.763  12.440  11.205
 6824SOL     OW22304   3.287   3.873   7.448
 6824SOL    HW122305   3.313   3.910   7.533
 6824SOL    HW222306   3.263   3.783   7.467
 6825SOL     OW22307   6.920   8.393   7.322
 6825SOL    HW122308   6.930   8.339   7.400
 6825SOL    HW222309   6.840   8.443   7.338
 6826SOL     OW22310  11.293   7.037   2.436
 6826SOL    HW122311  11.301   6.986   2.355
 6826SOL    HW222312  11.300   6.972   2.506
 6827SOL     OW22313  10.987  13.901   5.446
 6827SOL    HW122314  10.935  13.954   5.507
 6827SOL    HW222315  11.049  13.855   5.502
 6828SOL     OW22316   9.187  14.818  10.912
 6828SOL    HW122317   9.266  14.839  10.962
 6828SOL    HW222318   9.131  14.773  10.975
 6829SOL     OW22319   9.773   0.591   4.991
 6829SOL    HW122320   9.721   0.643   5.053
 6829SOL    HW222321   9.732   0.505   4.993
 6830SOL     OW22322   8.847  13.626   6.132
 6830SOL    HW122323   8.817  13.712   6.160
 6830SOL    HW222324   8.791  13.604   6.058
 6831SOL     OW22325   7.720  11.661   4.629
 6831SOL    HW122326   7.682  11.713   4.558
 6831SOL    HW222327   7.814  11.671   4.619
 6832SOL     OW22328  13.900   0.042   5.634
 6832SOL    HW122329  13.984   0.062   5.593
 6832SOL    HW222330  13.835   0.067   5.569
 6833SOL     OW22331   3.312   6.200   9.097
 6833SOL    HW122332   3.234   6.193   9.043
 6833SOL    HW222333   3.316   6.118   9.146
 6834SOL     OW22334   8.924  10.661  11.911
 6834SOL    HW122335   8.926  10.566  11.911
 6834SOL    HW222336   8.862  10.684  11.980
 6835SOL     OW22337   3.122  12.170   5.641
 6835SOL    HW122338   3.133  12.100   5.577
 6835SOL    HW222339   3.207  12.179   5.682
 6836SOL     OW22340   2.669  11.964   8.079
 6836SOL    HW122341   2.583  12.003   8.090
 6836SOL    HW222342   2.698  11.943   8.168
 6837SOL     OW22343  11.382  14.685   2.746
 6837SOL    HW122344  11.419  14.679   2.834
 6837SOL    HW222345  11.400  14.774   2.718
 6838SOL     OW22346  11.823   3.837   6.062
 6838SOL    HW122347  11.876   3.881   5.996
 6838SOL    HW222348  11.765   3.904   6.095
 6839SOL     OW22349   5.959   4.439  14.180
 6839SOL    HW122350   6.028   4.505  14.177
 6839SOL    HW222351   5.969   4.398  14.266
 6840SOL     OW22352  13.175   7.866  12.514
 6840SOL    HW122353  13.115   7.936  12.491
 6840SOL    HW222354  13.260   7.909  12.526
 6841SOL     OW22355  13.070  12.448   1.003
 6841SOL    HW122356  13.086  12.405   1.088
 6841SOL    HW222357  13.109  12.535   1.013
 6842SOL     OW22358   0.707   3.477   0.555
 6842SOL    HW122359   0.706   3.431   0.471
 6842SOL    HW222360   0.760   3.423   0.613
 6843SOL     OW22361   5.152  13.393   3.007
 6843SOL    HW122362   5.075  13.450   3.000
 6843SOL    HW222363   5.226  13.451   2.993
 6844SOL     OW22364  11.044  14.471   1.145
 6844SOL    HW122365  11.132  14.507   1.137
 6844SOL    HW222366  10.999  14.500   1.065
 6845SOL     OW22367  14.697  11.429   8.718
 6845SOL    HW122368  14.788  11.443   8.691
 6845SOL    HW222369  14.645  11.453   8.641
 6846SOL     OW22370  12.522  12.414  12.338
 6846SOL    HW122371  12.447  12.356  12.334
 6846SOL    HW222372  12.511  12.464  12.419
 6847SOL     OW22373  13.912   9.222   8.974
 6847SOL    HW122374  13.869   9.305   8.955
 6847SOL    HW222375  13.930   9.184   8.888
 6848SOL     OW22376   3.278   6.354  12.640
 6848SOL    HW122377   3.269   6.413  12.564
 6848SOL    HW222378   3.247   6.406  12.714
 6849SOL     OW22379   7.019   7.802  12.008
 6849SOL    HW122380   7.082   7.735  11.981
 6849SOL    HW222381   7.026   7.805  12.103
 6850SOL     OW22382   0.651   6.032   1.399
 6850SOL    HW122383   0.686   6.099   1.340
 6850SOL    HW222384   0.697   6.046   1.481
 6851SOL     OW22385   3.812  11.049   3.704
 6851SOL    HW122386   3.859  11.053   3.620
 6851SOL    HW222387   3.755  10.973   3.696
 6852SOL     OW22388  11.462  10.924  11.429
 6852SOL    HW122389  11.544  10.973  11.436
 6852SOL    HW222390  11.393  10.990  11.437
 6853SOL     OW22391   9.041   3.645   2.371
 6853SOL    HW122392   9.132   3.639   2.400
 6853SOL    HW222393   8.990   3.609   2.444
 6854SOL     OW22394   6.669  13.425   5.576
 6854SOL    HW122395   6.592  13.474   5.547
 6854SOL    HW222396   6.743  13.485   5.562
 6855SOL     OW22397   1.837   0.341   8.835
 6855SOL    HW122398   1.790   0.328   8.918
 6855SOL    HW222399   1.782   0.298   8.770
 6856SOL     OW22400   5.794  13.507   7.545
 6856SOL    HW122401   5.779  13.415   7.567
 6856SOL    HW222402   5.816  13.507   7.452
 6857SOL     OW22403   4.265  14.686   7.664
 6857SOL    HW122404   4.300  14.749   7.601
 6857SOL    HW222405   4.330  14.616   7.667
 6858SOL     OW22406   8.891  10.922  12.464
 6858SOL    HW122407   8.935  11.006  12.456
 6858SOL    HW222408   8.803  10.943  12.495
 6859SOL     OW22409   0.476   2.601   0.641
 6859SOL    HW122410   0.508   2.673   0.586
 6859SOL    HW222411   0.497   2.628   0.730
 6860SOL     OW22412   9.925   2.349   3.866
 6860SOL    HW122413   9.861   2.279   3.856
 6860SOL    HW222414   9.985   2.318   3.933
 6861SOL     OW22415  11.570   1.951   1.194
 6861SOL    HW122416  11.515   2.011   1.143
 6861SOL    HW222417  11.623   2.009   1.249
 6862SOL     OW22418   6.258   3.571   3.921
 6862SOL    HW122419   6.338   3.526   3.946
 6862SOL    HW222420   6.244   3.547   3.829
 6863SOL     OW22421  11.934  13.931  14.871
 6863SOL    HW122422  11.972  14.003  14.821
 6863SOL    HW222423  12.005  13.868   0.008
 6864SOL     OW22424  10.666   4.564   1.783
 6864SOL    HW122425  10.698   4.652   1.766
 6864SOL    HW222426  10.675   4.518   1.700
 6865SOL     OW22427   7.753   9.378   9.403
 6865SOL    HW122428   7.731   9.459   9.357
 6865SOL    HW222429   7.749   9.401   9.495
 6866SOL     OW22430   2.991   2.518   0.823
 6866SOL    HW122431   2.998   2.532   0.728
 6866SOL    HW222432   3.059   2.453   0.842
 6867SOL     OW22433   0.962  11.758   2.258
 6867SOL    HW122434   0.958  11.816   2.334
 6867SOL    HW222435   0.879  11.772   2.213
 6868SOL     OW22436   3.119  12.993   9.881
 6868SOL    HW122437   3.147  13.079   9.849
 6868SOL    HW222438   3.200  12.942   9.885
 6869SOL     OW22439   1.778   6.689   4.026
 6869SOL    HW122440   1.751   6.605   3.990
 6869SOL    HW222441   1.712   6.709   4.093
 6870SOL     OW22442   8.086   0.878  12.602
 6870SOL    HW122443   8.093   0.843  12.691
 6870SOL    HW222444   8.034   0.812  12.555
 6871SOL     OW22445   4.842   2.276  13.952
 6871SOL    HW122446   4.889   2.246  13.874
 6871SOL    HW222447   4.887   2.232  14.025
 6872SOL     OW22448   8.049   3.537   2.774
 6872SOL    HW122449   8.000   3.530   2.855
 6872SOL    HW222450   8.109   3.610   2.788
 6873SOL     OW22451   8.822   1.894  13.923
 6873SOL    HW122452   8.748   1.954  13.928
 6873SOL    HW222453   8.782   1.808  13.907
 6874SOL     OW22454  11.829   1.363   6.375
 6874SOL    HW122455  11.766   1.364   6.302
 6874SOL    HW222456  11.888   1.291   6.355
 6875SOL     OW22457  11.638   2.845   2.082
 6875SOL    HW122458  11.728   2.852   2.113
 6875SOL    HW222459  11.614   2.934   2.056
 6876SOL     OW22460   9.067   8.370  14.626
 6876SOL    HW122461   9.072   8.466  14.634
 6876SOL    HW222462   9.064   8.355  14.531
 6877SOL     OW22463  11.921   4.048   9.074
 6877SOL    HW122464  11.920   4.137   9.109
 6877SOL    HW222465  12.013   4.021   9.080
 6878SOL     OW22466   6.784   3.834   2.625
 6878SOL    HW122467   6.792   3.925   2.654
 6878SOL    HW222468   6.692   3.825   2.597
 6879SOL     OW22469   6.432  10.077   9.806
 6879SOL    HW122470   6.394  10.153   9.851
 6879SOL    HW222471   6.413  10.003   9.864
 6880SOL     OW22472   3.205   3.847   5.317
 6880SOL    HW122473   3.178   3.768   5.363
 6880SOL    HW222474   3.132   3.868   5.260
 6881SOL     OW22475   5.057   7.133   3.644
 6881SOL    HW122476   5.095   7.184   3.572
 6881SOL    HW222477   4.966   7.161   3.647
 6882SOL     OW22478   9.083   8.572   8.656
 6882SOL    HW122479   9.148   8.526   8.708
 6882SOL    HW222480   9.056   8.645   8.711
 6883SOL     OW22481  13.805   8.708   0.331
 6883SOL    HW122482  13.724   8.661   0.353
 6883SOL    HW222483  13.780   8.800   0.328
 6884SOL     OW22484  13.167   1.907   8.673
 6884SOL    HW122485  13.178   1.999   8.651
 6884SOL    HW222486  13.247   1.865   8.644
 6885SOL     OW22487  14.704  11.347   1.347
 6885SOL    HW122488  14.726  11.274   1.289
 6885SOL    HW222489  14.608  11.349   1.348
 6886SOL     OW22490   2.190   4.482   6.982
 6886SOL    HW122491   2.166   4.407   6.928
 6886SOL    HW222492   2.285   4.488   6.973
 6887SOL     OW22493  11.014   9.876   5.696
 6887SOL    HW122494  11.030   9.782   5.698
 6887SOL    HW222495  11.047   9.909   5.779
 6888SOL     OW22496  14.256   0.237  12.903
 6888SOL    HW122497  14.226   0.258  12.814
 6888SOL    HW222498  14.180   0.253  12.958
 6889SOL     OW22499  14.442   0.293   4.116
 6889SOL    HW122500  14.471   0.295   4.207
 6889SOL    HW222501  14.491   0.221   4.076
 6890SOL     OW22502   4.558   7.365   3.634
 6890SOL    HW122503   4.465   7.384   3.621
 6890SOL    HW222504   4.587   7.328   3.551
 6891SOL     OW22505   2.939  13.680   3.151
 6891SOL    HW122506   3.022  13.664   3.197
 6891SOL    HW222507   2.918  13.771   3.171
 6892SOL     OW22508   1.524   4.989  13.427
 6892SOL    HW122509   1.535   4.983  13.332
 6892SOL    HW222510   1.544   4.900  13.458
 6893SOL     OW22511  11.703  12.482   0.435
 6893SOL    HW122512  11.766  12.443   0.374
 6893SOL    HW222513  11.749  12.555   0.474
 6894SOL     OW22514  14.286  10.836   8.950
 6894SOL    HW122515  14.239  10.797   8.876
 6894SOL    HW222516  14.343  10.902   8.911
 6895SOL     OW22517   1.812   8.578   5.530
 6895SOL    HW122518   1.815   8.482   5.536
 6895SOL    HW222519   1.720   8.599   5.545
 6896SOL     OW22520   9.488   0.616  14.199
 6896SOL    HW122521   9.480   0.659  14.285
 6896SOL    HW222522   9.557   0.551  14.211
 6897SOL     OW22523   5.073   5.915  11.285
 6897SOL    HW122524   5.107   5.926  11.374
 6897SOL    HW222525   5.057   6.004  11.254
 6898SOL     OW22526   4.621   2.774  12.868
 6898SOL    HW122527   4.662   2.858  12.890
 6898SOL    HW222528   4.649   2.757  12.779
 6899SOL     OW22529  12.386   2.823   5.653
 6899SOL    HW122530  12.345   2.862   5.575
 6899SOL    HW222531  12.416   2.737   5.624
 6900SOL     OW22532   9.134   4.893   0.470
 6900SOL    HW122533   9.085   4.881   0.388
 6900SOL    HW222534   9.216   4.934   0.443
 6901SOL     OW22535   6.217   8.885   9.863
 6901SOL    HW122536   6.140   8.836   9.893
 6901SOL    HW222537   6.182   8.947   9.798
 6902SOL     OW22538  10.727   1.082   0.543
 6902SOL    HW122539  10.701   1.009   0.487
 6902SOL    HW222540  10.697   1.160   0.496
 6903SOL     OW22541   5.724  10.170  14.129
 6903SOL    HW122542   5.777  10.235  14.175
 6903SOL    HW222543   5.712  10.100  14.193
 6904SOL     OW22544   1.925  10.938  13.147
 6904SOL    HW122545   1.876  10.928  13.065
 6904SOL    HW222546   1.859  10.932  13.216
 6905SOL     OW22547   8.189   6.434   5.591
 6905SOL    HW122548   8.252   6.415   5.660
 6905SOL    HW222549   8.119   6.369   5.603
 6906SOL     OW22550   5.029   2.862   9.581
 6906SOL    HW122551   5.086   2.799   9.626
 6906SOL    HW222552   5.041   2.843   9.488
 6907SOL     OW22553   6.883   4.910   4.744
 6907SOL    HW122554   6.959   4.908   4.686
 6907SOL    HW222555   6.809   4.885   4.689
 6908SOL     OW22556   5.594  11.660  14.495
 6908SOL    HW122557   5.673  11.607  14.482
 6908SOL    HW222558   5.577  11.655  14.589
 6909SOL     OW22559  13.145   5.323   6.349
 6909SOL    HW122560  13.213   5.311   6.283
 6909SOL    HW222561  13.077   5.260   6.325
 6910SOL     OW22562   2.742   8.059   9.278
 6910SOL    HW122563   2.770   8.003   9.205
 6910SOL    HW222564   2.790   8.025   9.353
 6911SOL     OW22565   4.967   7.431   2.174
 6911SOL    HW122566   4.874   7.417   2.192
 6911SOL    HW222567   4.969   7.510   2.120
 6912SOL     OW22568   9.328   2.478   6.044
 6912SOL    HW122569   9.362   2.440   5.964
 6912SOL    HW222570   9.350   2.415   6.112
 6913SOL     OW22571   3.480  10.616  10.439
 6913SOL    HW122572   3.527  10.570  10.509
 6913SOL    HW222573   3.513  10.576  10.359
 6914SOL     OW22574   7.841   5.124   2.994
 6914SOL    HW122575   7.866   5.033   2.978
 6914SOL    HW222576   7.844   5.134   3.089
 6915SOL     OW22577   6.717  11.405   7.344
 6915SOL    HW122578   6.744  11.385   7.255
 6915SOL    HW222579   6.774  11.478   7.370
 6916SOL     OW22580  14.481   3.154  13.670
 6916SOL    HW122581  14.558   3.168  13.615
 6916SOL    HW222582  14.510   3.179  13.758
 6917SOL     OW22583  10.784  12.178   6.450
 6917SOL    HW122584  10.814  12.202   6.362
 6917SOL    HW222585  10.729  12.252   6.477
 6918SOL     OW22586   6.756   7.833  10.318
 6918SOL    HW122587   6.835   7.872  10.356
 6918SOL    HW222588   6.703   7.908  10.290
 6919SOL     OW22589   5.363  12.536   2.443
 6919SOL    HW122590   5.410  12.589   2.507
 6919SOL    HW222591   5.429  12.477   2.407
 6920SOL     OW22592   2.877   7.532   9.199
 6920SOL    HW122593   2.961   7.563   9.233
 6920SOL    HW222594   2.879   7.437   9.212
 6921SOL     OW22595   9.326   7.652   7.804
 6921SOL    HW122596   9.368   7.683   7.724
 6921SOL    HW222597   9.281   7.572   7.777
 6922SOL     OW22598   0.559   0.923   4.566
 6922SOL    HW122599   0.531   0.931   4.657
 6922SOL    HW222600   0.638   0.868   4.570
 6923SOL     OW22601   7.729   9.424   7.896
 6923SOL    HW122602   7.647   9.376   7.893
 6923SOL    HW222603   7.716   9.498   7.837
 6924SOL     OW22604  13.331  14.320   0.578
 6924SOL    HW122605  13.276  14.372   0.520
 6924SOL    HW222606  13.420  14.350   0.560
 6925SOL     OW22607  12.701   5.195   5.887
 6925SOL    HW122608  12.727   5.286   5.869
 6925SOL    HW222609  12.618   5.203   5.934
 6926SOL     OW22610   8.805  14.108   9.640
 6926SOL    HW122611   8.842  14.116   9.553
 6926SOL    HW222612   8.845  14.179   9.690
 6927SOL     OW22613   2.367  11.127  11.697
 6927SOL    HW122614   2.326  11.168  11.773
 6927SOL    HW222615   2.316  11.158  11.623
 6928SOL     OW22616   9.407   0.527  12.779
 6928SOL    HW122617   9.316   0.557  12.774
 6928SOL    HW222618   9.404   0.435  12.755
 6929SOL     OW22619   9.722   7.044  13.287
 6929SOL    HW122620   9.672   7.119  13.319
 6929SOL    HW222621   9.812   7.059  13.317
 6930SOL     OW22622  11.885   9.011   0.513
 6930SOL    HW122623  11.958   9.012   0.573
 6930SOL    HW222624  11.812   8.975   0.564
 6931SOL     OW22625   3.999   3.761   8.413
 6931SOL    HW122626   4.091   3.742   8.430
 6931SOL    HW222627   3.990   3.855   8.432
 6932SOL     OW22628   0.416  14.476   6.016
 6932SOL    HW122629   0.445  14.434   6.096
 6932SOL    HW222630   0.392  14.565   6.042
 6933SOL     OW22631   2.705   2.111   4.409
 6933SOL    HW122632   2.727   2.071   4.494
 6933SOL    HW222633   2.609   2.107   4.405
 6934SOL     OW22634  11.795  13.071   4.596
 6934SOL    HW122635  11.834  13.037   4.515
 6934SOL    HW222636  11.861  13.131   4.630
 6935SOL     OW22637   8.758  11.651   5.714
 6935SOL    HW122638   8.745  11.642   5.808
 6935SOL    HW222639   8.843  11.694   5.706
 6936SOL     OW22640  12.092   3.289  11.573
 6936SOL    HW122641  12.187   3.289  11.577
 6936SOL    HW222642  12.065   3.249  11.656
 6937SOL     OW22643   8.912   8.376  13.590
 6937SOL    HW122644   8.907   8.329  13.507
 6937SOL    HW222645   8.935   8.309  13.654
 6938SOL     OW22646  10.957   7.270   7.151
 6938SOL    HW122647  10.989   7.294   7.238
 6938SOL    HW222648  10.932   7.354   7.111
 6939SOL     OW22649  13.756   9.731   7.114
 6939SOL    HW122650  13.740   9.762   7.024
 6939SOL    HW222651  13.751   9.635   7.107
 6940SOL     OW22652   0.096  10.334   0.070
 6940SOL    HW122653   0.112  10.258   0.125
 6940SOL    HW222654   0.104  10.409   0.129
 6941SOL     OW22655   9.786  11.945  12.715
 6941SOL    HW122656   9.788  11.916  12.807
 6941SOL    HW222657   9.874  11.927  12.683
 6942SOL     OW22658   8.326   8.165  12.287
 6942SOL    HW122659   8.280   8.181  12.370
 6942SOL    HW222660   8.256   8.158  12.222
 6943SOL     OW22661   6.933   1.241   3.704
 6943SOL    HW122662   7.008   1.196   3.666
 6943SOL    HW222663   6.862   1.227   3.641
 6944SOL     OW22664   9.493   0.836   1.233
 6944SOL    HW122665   9.502   0.751   1.190
 6944SOL    HW222666   9.539   0.826   1.316
 6945SOL     OW22667  11.844   0.475  11.892
 6945SOL    HW122668  11.821   0.423  11.814
 6945SOL    HW222669  11.939   0.475  11.893
 6946SOL     OW22670   9.880   0.056   5.823
 6946SOL    HW122671   9.803   0.090   5.868
 6946SOL    HW222672   9.875  14.834   5.834
 6947SOL     OW22673   3.449  11.361   1.628
 6947SOL    HW122674   3.375  11.411   1.663
 6947SOL    HW222675   3.420  11.270   1.630
 6948SOL     OW22676  14.173  11.242  11.106
 6948SOL    HW122677  14.233  11.172  11.080
 6948SOL    HW222678  14.230  11.310  11.141
 6949SOL     OW22679  13.331   8.267  14.130
 6949SOL    HW122680  13.274   8.247  14.205
 6949SOL    HW222681  13.292   8.221  14.057
 6950SOL     OW22682   1.617  13.610  14.811
 6950SOL    HW122683   1.667  13.552  14.870
 6950SOL    HW222684   1.615  13.564  14.728
 6951SOL     OW22685   7.658  11.870   2.085
 6951SOL    HW122686   7.701  11.792   2.120
 6951SOL    HW222687   7.676  11.867   1.991
 6952SOL     OW22688   2.967  13.657   7.976
 6952SOL    HW122689   2.887  13.605   7.973
 6952SOL    HW222690   3.035  13.595   8.002
 6953SOL     OW22691  10.177   3.060   3.032
 6953SOL    HW122692  10.251   3.030   3.085
 6953SOL    HW222693  10.213   3.129   2.977
 6954SOL     OW22694   1.702   6.651   1.397
 6954SOL    HW122695   1.748   6.573   1.427
 6954SOL    HW222696   1.769   6.704   1.354
 6955SOL     OW22697   1.338  13.102   1.960
 6955SOL    HW122698   1.357  13.011   1.980
 6955SOL    HW222699   1.359  13.150   2.040
 6956SOL     OW22700  10.149  10.471   4.491
 6956SOL    HW122701  10.102  10.495   4.571
 6956SOL    HW222702  10.236  10.510   4.501
 6957SOL     OW22703   2.706  11.625   4.013
 6957SOL    HW122704   2.630  11.627   3.955
 6957SOL    HW222705   2.779  11.598   3.956
 6958SOL     OW22706  10.284  12.600  13.973
 6958SOL    HW122707  10.333  12.631  13.897
 6958SOL    HW222708  10.203  12.565  13.937
 6959SOL     OW22709  14.860   5.292  13.536
 6959SOL    HW122710  14.792   5.310  13.601
 6959SOL    HW222711  14.816   5.236  13.471
 6960SOL     OW22712  10.558  10.263   3.703
 6960SOL    HW122713  10.522  10.175   3.712
 6960SOL    HW222714  10.502  10.305   3.638
 6961SOL     OW22715   3.310  11.545   4.349
 6961SOL    HW122716   3.252  11.474   4.377
 6961SOL    HW222717   3.387  11.501   4.313
 6962SOL     OW22718   6.183  11.425  14.835
 6962SOL    HW122719   6.101  11.471  14.818
 6962SOL    HW222720   6.157  11.348   0.012
 6963SOL     OW22721  12.958  10.687  13.457
 6963SOL    HW122722  12.989  10.769  13.419
 6963SOL    HW222723  12.864  10.701  13.471
 6964SOL     OW22724   0.306  12.110   6.020
 6964SOL    HW122725   0.229  12.167   6.018
 6964SOL    HW222726   0.378  12.169   6.044
 6965SOL     OW22727   4.731   0.826  10.316
 6965SOL    HW122728   4.778   0.841  10.398
 6965SOL    HW222729   4.652   0.878  10.324
 6966SOL     OW22730   4.288   2.174   7.254
 6966SOL    HW122731   4.205   2.194   7.296
 6966SOL    HW222732   4.264   2.139   7.169
 6967SOL     OW22733  14.643   5.982  10.202
 6967SOL    HW122734  14.679   6.015  10.120
 6967SOL    HW222735  14.604   5.898  10.180
 6968SOL     OW22736  11.580   6.342   9.309
 6968SOL    HW122737  11.652   6.312   9.365
 6968SOL    HW222738  11.590   6.291   9.228
 6969SOL     OW22739   9.412   4.408   5.193
 6969SOL    HW122740   9.497   4.440   5.165
 6969SOL    HW222741   9.375   4.480   5.244
 6970SOL     OW22742   5.024  12.167   0.359
 6970SOL    HW122743   4.992  12.175   0.449
 6970SOL    HW222744   5.046  12.256   0.334
 6971SOL     OW22745   5.435   1.641  12.385
 6971SOL    HW122746   5.387   1.648  12.467
 6971SOL    HW222747   5.432   1.548  12.363
 6972SOL     OW22748  14.078   0.992  10.213
 6972SOL    HW122749  14.169   0.970  10.230
 6972SOL    HW222750  14.073   1.000  10.118
 6973SOL     OW22751   5.726  12.723   8.942
 6973SOL    HW122752   5.682  12.648   8.983
 6973SOL    HW222753   5.773  12.766   9.013
 6974SOL     OW22754  13.907   0.467  13.205
 6974SOL    HW122755  13.888   0.560  13.192
 6974SOL    HW222756  13.843   0.438  13.269
 6975SOL     OW22757   8.690   2.396   3.396
 6975SOL    HW122758   8.660   2.340   3.467
 6975SOL    HW222759   8.617   2.398   3.334
 6976SOL     OW22760   5.794   2.217  14.061
 6976SOL    HW122761   5.833   2.266  13.988
 6976SOL    HW222762   5.702   2.206  14.037
 6977SOL     OW22763  11.939   9.297   8.867
 6977SOL    HW122764  11.946   9.318   8.960
 6977SOL    HW222765  11.954   9.381   8.823
 6978SOL     OW22766   8.355  10.833  14.570
 6978SOL    HW122767   8.362  10.759  14.630
 6978SOL    HW222768   8.302  10.897  14.617
 6979SOL     OW22769   0.588  12.038   0.524
 6979SOL    HW122770   0.549  12.090   0.454
 6979SOL    HW222771   0.623  12.103   0.585
 6980SOL     OW22772   5.287   1.169   4.395
 6980SOL    HW122773   5.349   1.240   4.414
 6980SOL    HW222774   5.240   1.156   4.477
 6981SOL     OW22775  14.362   7.465   5.813
 6981SOL    HW122776  14.349   7.392   5.751
 6981SOL    HW222777  14.278   7.512   5.811
 6982SOL     OW22778  11.020   2.867   0.591
 6982SOL    HW122779  11.075   2.903   0.660
 6982SOL    HW222780  11.069   2.884   0.510
 6983SOL     OW22781   5.788  14.401   0.253
 6983SOL    HW122782   5.854  14.411   0.322
 6983SOL    HW222783   5.839  14.387   0.173
 6984SOL     OW22784   3.014   2.560  10.410
 6984SOL    HW122785   3.011   2.612  10.490
 6984SOL    HW222786   3.096   2.511  10.417
 6985SOL     OW22787  11.133  10.722   8.017
 6985SOL    HW122788  11.053  10.773   8.013
 6985SOL    HW222789  11.194  10.777   8.066
 6986SOL     OW22790   7.950   4.081   9.712
 6986SOL    HW122791   8.026   4.043   9.667
 6986SOL    HW222792   7.937   4.166   9.670
 6987SOL     OW22793  14.485   7.778   3.729
 6987SOL    HW122794  14.477   7.785   3.634
 6987SOL    HW222795  14.517   7.689   3.743
 6988SOL     OW22796  14.385   2.194   5.169
 6988SOL    HW122797  14.347   2.282   5.178
 6988SOL    HW222798  14.309   2.136   5.158
 6989SOL     OW22799  13.040  14.270  11.964
 6989SOL    HW122800  12.993  14.205  12.015
 6989SOL    HW222801  12.982  14.290  11.891
 6990SOL     OW22802  14.806  13.913   3.837
 6990SOL    HW122803  14.784  13.821   3.822
 6990SOL    HW222804   0.026  13.919   3.813
 6991SOL     OW22805   8.117  12.072   0.100
 6991SOL    HW122806   8.048  12.138   0.108
 6991SOL    HW222807   8.073  11.988   0.109
 6992SOL     OW22808   8.989   6.626  11.816
 6992SOL    HW122809   9.068   6.678  11.832
 6992SOL    HW222810   8.953   6.662  11.735
 6993SOL     OW22811  13.605  14.140   9.271
 6993SOL    HW122812  13.549  14.215   9.288
 6993SOL    HW222813  13.567  14.068   9.321
 6994SOL     OW22814  10.449   8.463   4.221
 6994SOL    HW122815  10.477   8.544   4.177
 6994SOL    HW222816  10.369   8.488   4.267
 6995SOL     OW22817   6.842   9.797   5.382
 6995SOL    HW122818   6.867   9.771   5.471
 6995SOL    HW222819   6.797   9.881   5.393
 6996SOL     OW22820  14.442   1.853   2.491
 6996SOL    HW122821  14.460   1.820   2.402
 6996SOL    HW222822  14.508   1.810   2.546
 6997SOL     OW22823   0.152  12.066  10.954
 6997SOL    HW122824   0.127  12.084  10.864
 6997SOL    HW222825   0.096  12.122  11.007
 6998SOL     OW22826   8.645  13.948   0.334
 6998SOL    HW122827   8.708  13.876   0.337
 6998SOL    HW222828   8.696  14.024   0.306
 6999SOL     OW22829  10.560  12.429   0.475
 6999SOL    HW122830  10.576  12.443   0.381
 6999SOL    HW222831  10.500  12.355   0.477
 7000SOL     OW22832   7.644  14.295  12.435
 7000SOL    HW122833   7.664  14.343  12.515
 7000SOL    HW222834   7.633  14.204  12.463
 7001SOL     OW22835  12.021   0.868   4.990
 7001SOL    HW122836  11.979   0.946   4.955
 7001SOL    HW222837  11.949   0.809   5.010
 7002SOL     OW22838  14.372   2.424   9.775
 7002SOL    HW122839  14.324   2.408   9.857
 7002SOL    HW222840  14.464   2.425   9.802
 7003SOL     OW22841   6.404   5.774   4.119
 7003SOL    HW122842   6.408   5.717   4.196
 7003SOL    HW222843   6.492   5.811   4.113
 7004SOL     OW22844   5.283   4.533   4.786
 7004SOL    HW122845   5.367   4.509   4.748
 7004SOL    HW222846   5.259   4.615   4.742
 7005SOL     OW22847   9.255  10.671   1.070
 7005SOL    HW122848   9.319  10.621   1.020
 7005SOL    HW222849   9.305  10.705   1.145
 7006SOL     OW22850   7.538   6.910   9.720
 7006SOL    HW122851   7.568   6.831   9.674
 7006SOL    HW222852   7.511   6.880   9.806
 7007SOL     OW22853  10.860   8.526   6.616
 7007SOL    HW122854  10.859   8.431   6.629
 7007SOL    HW222855  10.776   8.545   6.574
 7008SOL     OW22856   0.884   6.820  12.433
 7008SOL    HW122857   0.845   6.806  12.520
 7008SOL    HW222858   0.852   6.748  12.380
 7009SOL     OW22859   8.736   3.979   0.460
 7009SOL    HW122860   8.731   4.002   0.552
 7009SOL    HW222861   8.723   3.884   0.457
 7010SOL     OW22862   2.904   4.607  11.558
 7010SOL    HW122863   2.859   4.604  11.474
 7010SOL    HW222864   2.975   4.670  11.545
 7011SOL     OW22865   7.181  12.158   5.123
 7011SOL    HW122866   7.184  12.253   5.112
 7011SOL    HW222867   7.120  12.144   5.195
 7012SOL     OW22868   4.929   8.107   2.340
 7012SOL    HW122869   4.940   8.200   2.321
 7012SOL    HW222870   4.835   8.092   2.332
 7013SOL     OW22871   2.233   9.502   1.996
 7013SOL    HW122872   2.229   9.428   1.935
 7013SOL    HW222873   2.149   9.500   2.041
 7014SOL     OW22874  10.186   7.678   1.432
 7014SOL    HW122875  10.153   7.650   1.347
 7014SOL    HW222876  10.136   7.758   1.452
 7015SOL     OW22877  14.133   4.613   2.462
 7015SOL    HW122878  14.072   4.544   2.487
 7015SOL    HW222879  14.154   4.595   2.370
 7016SOL     OW22880   7.823   4.503  11.782
 7016SOL    HW122881   7.786   4.543  11.703
 7016SOL    HW222882   7.862   4.421  11.751
 7017SOL     OW22883   2.666   8.691   0.906
 7017SOL    HW122884   2.627   8.737   0.980
 7017SOL    HW222885   2.593   8.673   0.847
 7018SOL     OW22886   4.210   7.654   1.961
 7018SOL    HW122887   4.199   7.676   2.053
 7018SOL    HW222888   4.248   7.733   1.922
 7019SOL     OW22889   7.606   0.462   1.364
 7019SOL    HW122890   7.576   0.503   1.283
 7019SOL    HW222891   7.688   0.419   1.339
 7020SOL     OW22892  13.106   4.853   6.404
 7020SOL    HW122893  13.068   4.793   6.468
 7020SOL    HW222894  13.079   4.817   6.319
 7021SOL     OW22895  10.820   0.461   2.404
 7021SOL    HW122896  10.805   0.401   2.477
 7021SOL    HW222897  10.916   0.466   2.397
 7022SOL     OW22898   7.393   9.673   6.600
 7022SOL    HW122899   7.322   9.636   6.548
 7022SOL    HW222900   7.445   9.723   6.538
 7023SOL     OW22901   9.812  13.433   1.722
 7023SOL    HW122902   9.875  13.503   1.739
 7023SOL    HW222903   9.745  13.473   1.666
 7024SOL     OW22904   0.636   2.462  10.497
 7024SOL    HW122905   0.583   2.494  10.570
 7024SOL    HW222906   0.699   2.532  10.481
 7025SOL     OW22907   2.656   8.112   5.907
 7025SOL    HW122908   2.699   8.177   5.963
 7025SOL    HW222909   2.721   8.042   5.897
 7026SOL     OW22910   6.346   4.178   4.313
 7026SOL    HW122911   6.290   4.244   4.273
 7026SOL    HW222912   6.286   4.122   4.362
 7027SOL     OW22913  12.532   3.162   1.245
 7027SOL    HW122914  12.563   3.104   1.314
 7027SOL    HW222915  12.509   3.104   1.172
 7028SOL     OW22916  10.563   2.746   4.588
 7028SOL    HW122917  10.618   2.822   4.574
 7028SOL    HW222918  10.584   2.716   4.676
 7029SOL     OW22919   8.618   2.931  13.251
 7029SOL    HW122920   8.641   2.856  13.306
 7029SOL    HW222921   8.673   2.920  13.173
 7030SOL     OW22922  11.441   9.660  12.859
 7030SOL    HW122923  11.518   9.621  12.901
 7030SOL    HW222924  11.421   9.601  12.786
 7031SOL     OW22925  13.520   3.438   8.221
 7031SOL    HW122926  13.525   3.462   8.314
 7031SOL    HW222927  13.436   3.393   8.212
 7032SOL     OW22928   2.843   3.205  14.197
 7032SOL    HW122929   2.821   3.293  14.226
 7032SOL    HW222930   2.914   3.178  14.255
 7033SOL     OW22931   9.124  10.090  10.063
 7033SOL    HW122932   9.165  10.029  10.124
 7033SOL    HW222933   9.040  10.113  10.104
 7034SOL     OW22934   8.561   8.424  13.420
 7034SOL    HW122935   8.608   8.350  13.460
 7034SOL    HW222936   8.606   8.440  13.338
 7035SOL     OW22937  10.268  13.308   0.473
 7035SOL    HW122938  10.293  13.349   0.390
 7035SOL    HW222939  10.275  13.214   0.457
 7036SOL     OW22940   1.465  13.328   1.788
 7036SOL    HW122941   1.551  13.354   1.820
 7036SOL    HW222942   1.422  13.286   1.863
 7037SOL     OW22943  13.304   8.386   8.737
 7037SOL    HW122944  13.317   8.435   8.818
 7037SOL    HW222945  13.363   8.427   8.674
 7038SOL     OW22946  14.700   0.676  13.961
 7038SOL    HW122947  14.654   0.754  13.991
 7038SOL    HW222948  14.712   0.690  13.867
 7039SOL     OW22949   2.385  12.668   4.328
 7039SOL    HW122950   2.452  12.691   4.392
 7039SOL    HW222951   2.412  12.713   4.248
 7040SOL     OW22952   3.546   6.188   6.017
 7040SOL    HW122953   3.513   6.265   6.064
 7040SOL    HW222954   3.491   6.182   5.939
 7041SOL     OW22955   9.825   7.605   4.607
 7041SOL    HW122956   9.812   7.517   4.643
 7041SOL    HW222957   9.918   7.623   4.620
 7042SOL     OW22958   4.936   2.796   6.767
 7042SOL    HW122959   4.983   2.874   6.737
 7042SOL    HW222960   4.912   2.751   6.686
 7043SOL     OW22961   1.507   1.136   2.377
 7043SOL    HW122962   1.539   1.224   2.360
 7043SOL    HW222963   1.518   1.125   2.472
 7044SOL     OW22964   0.692   9.995  11.044
 7044SOL    HW122965   0.676   9.971  10.952
 7044SOL    HW222966   0.725   9.914  11.083
 7045SOL     OW22967   8.477   6.484  13.749
 7045SOL    HW122968   8.452   6.439  13.668
 7045SOL    HW222969   8.527   6.418  13.797
 7046SOL     OW22970  10.211  14.748   1.880
 7046SOL    HW122971  10.241  14.805   1.809
 7046SOL    HW222972  10.249  14.662   1.859
 7047SOL     OW22973  12.894   7.067   5.765
 7047SOL    HW122974  12.975   7.021   5.789
 7047SOL    HW222975  12.907   7.090   5.673
 7048SOL     OW22976  10.109  14.786  12.256
 7048SOL    HW122977  10.145  14.806  12.342
 7048SOL    HW222978  10.049  14.713  12.272
 7049SOL     OW22979   9.554  10.231  10.778
 7049SOL    HW122980   9.547  10.240  10.683
 7049SOL    HW222981   9.538  10.319  10.812
 7050SOL     OW22982  13.542   9.410  14.375
 7050SOL    HW122983  13.561   9.342  14.310
 7050SOL    HW222984  13.600   9.391  14.448
 7051SOL     OW22985   3.944   2.825   3.152
 7051SOL    HW122986   3.967   2.760   3.218
 7051SOL    HW222987   3.859   2.859   3.179
 7052SOL     OW22988  11.028   2.785   5.968
 7052SOL    HW122989  10.974   2.835   6.030
 7052SOL    HW222990  10.992   2.696   5.970
 7053SOL     OW22991  12.205   3.978   9.124
 7053SOL    HW122992  12.194   3.971   9.219
 7053SOL    HW222993  12.248   4.063   9.111
 7054SOL     OW22994  13.202   5.187   4.018
 7054SOL    HW122995  13.228   5.134   3.942
 7054SOL    HW222996  13.237   5.139   4.093
 7055SOL     OW22997   8.834   7.551   3.181
 7055SOL    HW122998   8.854   7.616   3.113
 7055SOL    HW222999   8.833   7.601   3.263
 7056SOL     OW23000  14.854   1.565   0.342
 7056SOL    HW123001  14.765   1.599   0.348
 7056SOL    HW223002  14.852   1.483   0.391
 7057SOL     OW23003  12.781   3.780  11.470
 7057SOL    HW123004  12.801   3.810  11.382
 7057SOL    HW223005  12.731   3.851  11.509
 7058SOL     OW23006   4.599   0.847   2.281
 7058SOL    HW123007   4.517   0.894   2.298
 7058SOL    HW223008   4.573   0.755   2.279
 7059SOL     OW23009   9.390   7.796  11.502
 7059SOL    HW123010   9.467   7.759  11.546
 7059SOL    HW223011   9.361   7.726  11.443
 7060SOL     OW23012   3.062  13.426   7.406
 7060SOL    HW123013   3.039  13.364   7.474
 7060SOL    HW223014   3.100  13.501   7.452
 7061SOL     OW23015   9.195  12.942   3.285
 7061SOL    HW123016   9.120  12.882   3.291
 7061SOL    HW223017   9.177  12.994   3.207
 7062SOL     OW23018   7.320  14.343  13.125
 7062SOL    HW123019   7.378  14.268  13.138
 7062SOL    HW223020   7.331  14.366  13.032
 7063SOL     OW23021   9.668   1.169   9.650
 7063SOL    HW123022   9.719   1.093   9.623
 7063SOL    HW223023   9.619   1.194   9.572
 7064SOL     OW23024   9.585  14.556   3.672
 7064SOL    HW123025   9.540  14.557   3.588
 7064SOL    HW223026   9.629  14.641   3.676
 7065SOL     OW23027   7.340   9.993  12.528
 7065SOL    HW123028   7.395  10.001  12.606
 7065SOL    HW223029   7.251  10.006  12.560
 7066SOL     OW23030   8.956  14.181  11.702
 7066SOL    HW123031   8.965  14.127  11.780
 7066SOL    HW223032   9.018  14.144  11.639
 7067SOL     OW23033  14.500  12.073   4.893
 7067SOL    HW123034  14.419  12.123   4.894
 7067SOL    HW223035  14.525  12.070   4.801
 7068SOL     OW23036   7.331   5.369  10.114
 7068SOL    HW123037   7.401   5.305  10.105
 7068SOL    HW223038   7.350   5.436  10.048
 7069SOL     OW23039   7.608  13.901  10.990
 7069SOL    HW123040   7.609  13.956  10.912
 7069SOL    HW223041   7.555  13.950  11.053
 7070SOL     OW23042   7.236   5.526   8.817
 7070SOL    HW123043   7.328   5.555   8.822
 7070SOL    HW223044   7.237   5.437   8.851
 7071SOL     OW23045   0.843   0.497   9.489
 7071SOL    HW123046   0.762   0.464   9.451
 7071SOL    HW223047   0.825   0.504   9.583
 7072SOL     OW23048  10.502   8.048   9.681
 7072SOL    HW123049  10.576   7.997   9.713
 7072SOL    HW223050  10.472   8.097   9.758
 7073SOL     OW23051   4.739   7.169   1.879
 7073SOL    HW123052   4.802   7.124   1.934
 7073SOL    HW223053   4.784   7.179   1.795
 7074SOL     OW23054   5.184   2.197   4.526
 7074SOL    HW123055   5.100   2.237   4.552
 7074SOL    HW223056   5.250   2.261   4.554
 7075SOL     OW23057   5.591   2.206  13.717
 7075SOL    HW123058   5.670   2.240  13.758
 7075SOL    HW223059   5.599   2.111  13.724
 7076SOL     OW23060   1.925  12.309   1.652
 7076SOL    HW123061   1.955  12.223   1.681
 7076SOL    HW223062   1.917  12.301   1.557
 7077SOL     OW23063   5.831   8.824   5.713
 7077SOL    HW123064   5.774   8.788   5.782
 7077SOL    HW223065   5.819   8.919   5.719
 7078SOL     OW23066  12.554   8.212  11.749
 7078SOL    HW123067  12.590   8.242  11.665
 7078SOL    HW223068  12.460   8.228  11.741
 7079SOL     OW23069   7.635   3.615  12.879
 7079SOL    HW123070   7.584   3.573  12.948
 7079SOL    HW223071   7.602   3.705  12.877
 7080SOL     OW23072   5.384   3.238   4.213
 7080SOL    HW123073   5.370   3.257   4.120
 7080SOL    HW223074   5.327   3.299   4.260
 7081SOL     OW23075   4.585  13.399   6.484
 7081SOL    HW123076   4.624  13.436   6.563
 7081SOL    HW223077   4.523  13.466   6.455
 7082SOL     OW23078   9.499   4.274  13.007
 7082SOL    HW123079   9.571   4.326  13.043
 7082SOL    HW223080   9.471   4.218  13.080
 7083SOL     OW23081   2.609   8.366   2.302
 7083SOL    HW123082   2.574   8.296   2.357
 7083SOL    HW223083   2.591   8.447   2.351
 7084SOL     OW23084   9.260   3.407   0.220
 7084SOL    HW123085   9.312   3.381   0.144
 7084SOL    HW223086   9.216   3.487   0.192
 7085SOL     OW23087  10.452   1.478   9.480
 7085SOL    HW123088  10.361   1.496   9.456
 7085SOL    HW223089  10.499   1.477   9.397
 7086SOL     OW23090  13.319   0.132  11.677
 7086SOL    HW123091  13.252   0.172  11.623
 7086SOL    HW223092  13.275   0.109  11.759
 7087SOL     OW23093  12.728   9.671   3.133
 7087SOL    HW123094  12.776   9.678   3.215
 7087SOL    HW223095  12.701   9.580   3.127
 7088SOL     OW23096   6.203   1.949   1.183
 7088SOL    HW123097   6.111   1.926   1.171
 7088SOL    HW223098   6.221   2.011   1.112
 7089SOL     OW23099   4.137   1.696  10.415
 7089SOL    HW123100   4.164   1.651  10.495
 7089SOL    HW223101   4.198   1.770  10.407
 7090SOL     OW23102   2.694   3.020  13.930
 7090SOL    HW123103   2.605   2.984  13.925
 7090SOL    HW223104   2.684   3.100  13.981
 7091SOL     OW23105   4.676   5.830  14.568
 7091SOL    HW123106   4.667   5.803  14.477
 7091SOL    HW223107   4.719   5.757  14.611
 7092SOL     OW23108   2.038  11.376  11.107
 7092SOL    HW123109   2.058  11.283  11.097
 7092SOL    HW223110   2.044  11.392  11.201
 7093SOL     OW23111   8.225   7.349   7.312
 7093SOL    HW123112   8.279   7.274   7.338
 7093SOL    HW223113   8.154   7.351   7.376
 7094SOL     OW23114   6.085   8.343  13.768
 7094SOL    HW123115   6.141   8.374  13.839
 7094SOL    HW223116   6.112   8.395  13.692
 7095SOL     OW23117   4.300   9.957   3.729
 7095SOL    HW123118   4.240   9.887   3.703
 7095SOL    HW223119   4.340   9.985   3.647
 7096SOL     OW23120   7.411   7.156   9.960
 7096SOL    HW123121   7.420   7.183  10.052
 7096SOL    HW223122   7.430   7.236   9.910
 7097SOL     OW23123  12.746   1.563   2.234
 7097SOL    HW123124  12.774   1.480   2.273
 7097SOL    HW223125  12.752   1.548   2.140
 7098SOL     OW23126  14.454   3.408   1.956
 7098SOL    HW123127  14.414   3.415   1.869
 7098SOL    HW223128  14.457   3.499   1.988
 7099SOL     OW23129   8.454   5.069  14.686
 7099SOL    HW123130   8.444   5.165  14.690
 7099SOL    HW223131   8.408   5.037  14.764
 7100SOL     OW23132  12.985   6.443   3.348
 7100SOL    HW123133  13.071   6.403   3.356
 7100SOL    HW223134  12.940   6.392   3.280
 7101SOL     OW23135   6.793   8.539   8.109
 7101SOL    HW123136   6.872   8.594   8.113
 7101SOL    HW223137   6.826   8.451   8.089
 7102SOL     OW23138  13.187  11.125  12.800
 7102SOL    HW123139  13.111  11.127  12.742
 7102SOL    HW223140  13.219  11.035  12.794
 7103SOL     OW23141   5.147   7.008  12.073
 7103SOL    HW123142   5.153   6.967  12.159
 7103SOL    HW223143   5.172   6.939  12.011
 7104SOL     OW23144   3.386  13.513   0.963
 7104SOL    HW123145   3.318  13.490   0.900
 7104SOL    HW223146   3.417  13.599   0.934
 7105SOL     OW23147   3.865   8.067   4.510
 7105SOL    HW123148   3.877   7.990   4.564
 7105SOL    HW223149   3.775   8.097   4.528
 7106SOL     OW23150  14.333   7.593  11.027
 7106SOL    HW123151  14.315   7.675  10.982
 7106SOL    HW223152  14.347   7.529  10.957
 7107SOL     OW23153   1.753   5.170  12.659
 7107SOL    HW123154   1.713   5.159  12.572
 7107SOL    HW223155   1.688   5.134  12.720
 7108SOL     OW23156   4.451  13.656   6.880
 7108SOL    HW123157   4.450  13.721   6.951
 7108SOL    HW223158   4.363  13.620   6.879
 7109SOL     OW23159  14.664  11.968  14.076
 7109SOL    HW123160  14.741  11.933  14.031
 7109SOL    HW223161  14.647  11.905  14.146
 7110SOL     OW23162   9.553   4.301  12.755
 7110SOL    HW123163   9.629   4.359  12.761
 7110SOL    HW223164   9.531   4.281  12.846
 7111SOL     OW23165  12.592   7.047   4.022
 7111SOL    HW123166  12.576   6.962   4.062
 7111SOL    HW223167  12.668   7.033   3.965
 7112SOL     OW23168   4.557   6.923   0.362
 7112SOL    HW123169   4.534   7.015   0.348
 7112SOL    HW223170   4.514   6.876   0.291
 7113SOL     OW23171   0.249   2.772  10.380
 7113SOL    HW123172   0.211   2.860  10.382
 7113SOL    HW223173   0.341   2.785  10.404
 7114SOL     OW23174   3.719   8.288   2.307
 7114SOL    HW123175   3.763   8.204   2.319
 7114SOL    HW223176   3.626   8.266   2.307
 7115SOL     OW23177  11.770   1.559   6.572
 7115SOL    HW123178  11.857   1.598   6.574
 7115SOL    HW223179  11.770   1.503   6.494
 7116SOL     OW23180   5.466   3.319  14.111
 7116SOL    HW123181   5.496   3.238  14.153
 7116SOL    HW223182   5.372   3.308  14.103
 7117SOL     OW23183  12.516   0.622   7.788
 7117SOL    HW123184  12.485   0.561   7.855
 7117SOL    HW223185  12.489   0.583   7.705
 7118SOL     OW23186  14.671   9.639   2.642
 7118SOL    HW123187  14.740   9.649   2.576
 7118SOL    HW223188  14.599   9.692   2.608
 7119SOL     OW23189   4.285   4.780  13.434
 7119SOL    HW123190   4.254   4.690  13.447
 7119SOL    HW223191   4.381   4.773  13.442
 7120SOL     OW23192   0.580  10.469   6.525
 7120SOL    HW123193   0.603  10.462   6.432
 7120SOL    HW223194   0.664  10.480   6.570
 7121SOL     OW23195   7.967   5.708   6.450
 7121SOL    HW123196   7.892   5.654   6.425
 7121SOL    HW223197   8.035   5.645   6.474
 7122SOL     OW23198   3.324   6.916   4.018
 7122SOL    HW123199   3.396   6.889   3.962
 7122SOL    HW223200   3.348   7.003   4.049
 7123SOL     OW23201  12.753   9.308   5.495
 7123SOL    HW123202  12.699   9.231   5.511
 7123SOL    HW223203  12.739   9.365   5.570
 7124SOL     OW23204  10.550   4.848  10.759
 7124SOL    HW123205  10.499   4.819  10.683
 7124SOL    HW223206  10.484   4.862  10.828
 7125SOL     OW23207  14.781  10.388   1.670
 7125SOL    HW123208  14.839  10.388   1.746
 7125SOL    HW223209  14.711  10.327   1.693
 7126SOL     OW23210   9.937   0.950   5.030
 7126SOL    HW123211   9.973   0.864   5.010
 7126SOL    HW223212   9.871   0.965   4.962
 7127SOL     OW23213   0.081   2.694  12.522
 7127SOL    HW123214   0.156   2.655  12.568
 7127SOL    HW223215   0.102   2.684  12.429
 7128SOL     OW23216   4.766   6.801  11.882
 7128SOL    HW123217   4.860   6.784  11.884
 7128SOL    HW223218   4.751   6.846  11.799
 7129SOL     OW23219  12.541   5.384   5.373
 7129SOL    HW123220  12.584   5.453   5.323
 7129SOL    HW223221  12.474   5.350   5.315
 7130SOL     OW23222  10.036   2.872  13.079
 7130SOL    HW123223  10.070   2.800  13.026
 7130SOL    HW223224  10.078   2.861  13.164
 7131SOL     OW23225   2.582   8.785  11.973
 7131SOL    HW123226   2.572   8.763  12.066
 7131SOL    HW223227   2.527   8.863  11.961
 7132SOL     OW23228  10.274   7.859   7.784
 7132SOL    HW123229  10.193   7.893   7.746
 7132SOL    HW223230  10.246   7.783   7.835
 7133SOL     OW23231  12.080   5.380  10.605
 7133SOL    HW123232  12.003   5.363  10.659
 7133SOL    HW223233  12.133   5.301  10.612
 7134SOL     OW23234   7.570  14.513   6.653
 7134SOL    HW123235   7.621  14.454   6.598
 7134SOL    HW223236   7.496  14.539   6.598
 7135SOL     OW23237   1.205   6.455   3.582
 7135SOL    HW123238   1.175   6.494   3.664
 7135SOL    HW223239   1.299   6.440   3.596
 7136SOL     OW23240  14.145   5.529   9.328
 7136SOL    HW123241  14.176   5.600   9.385
 7136SOL    HW223242  14.127   5.572   9.245
 7137SOL     OW23243   4.884  11.448  12.291
 7137SOL    HW123244   4.839  11.378  12.242
 7137SOL    HW223245   4.977  11.434  12.273
 7138SOL     OW23246   5.734   8.891   1.356
 7138SOL    HW123247   5.663   8.927   1.409
 7138SOL    HW223248   5.716   8.923   1.267
 7139SOL     OW23249   5.879   4.430  13.058
 7139SOL    HW123250   5.806   4.396  13.111
 7139SOL    HW223251   5.927   4.487  13.118
 7140SOL     OW23252   0.253   0.150   4.440
 7140SOL    HW123253   0.268   0.078   4.378
 7140SOL    HW223254   0.254   0.108   4.526
 7141SOL     OW23255   2.445   7.128  13.078
 7141SOL    HW123256   2.469   7.058  13.139
 7141SOL    HW223257   2.484   7.100  12.995
 7142SOL     OW23258   7.900   2.652   0.288
 7142SOL    HW123259   7.994   2.660   0.304
 7142SOL    HW223260   7.859   2.709   0.353
 7143SOL     OW23261  10.596  14.548  14.673
 7143SOL    HW123262  10.690  14.531  14.665
 7143SOL    HW223263  10.574  14.599  14.596
 7144SOL     OW23264   8.908   8.254  10.590
 7144SOL    HW123265   8.953   8.334  10.562
 7144SOL    HW223266   8.815   8.276  10.584
 7145SOL     OW23267   1.955   4.114   2.332
 7145SOL    HW123268   1.933   4.048   2.266
 7145SOL    HW223269   2.031   4.159   2.297
 7146SOL     OW23270   9.709  10.742   9.567
 7146SOL    HW123271   9.798  10.723   9.595
 7146SOL    HW223272   9.684  10.820   9.618
 7147SOL     OW23273   6.836  14.504   8.344
 7147SOL    HW123274   6.787  14.560   8.403
 7147SOL    HW223275   6.924  14.501   8.382
 7148SOL     OW23276   6.436  12.338   1.349
 7148SOL    HW123277   6.528  12.361   1.334
 7148SOL    HW223278   6.394  12.349   1.264
 7149SOL     OW23279  11.233  10.914   8.791
 7149SOL    HW123280  11.286  10.977   8.742
 7149SOL    HW223281  11.272  10.913   8.878
 7150SOL     OW23282   4.565   8.410  12.286
 7150SOL    HW123283   4.552   8.315  12.281
 7150SOL    HW223284   4.479   8.447  12.268
 7151SOL     OW23285  10.815   8.245   6.745
 7151SOL    HW123286  10.845   8.308   6.811
 7151SOL    HW223287  10.821   8.160   6.790
 7152SOL     OW23288   5.354   5.713   1.033
 7152SOL    HW123289   5.319   5.682   0.950
 7152SOL    HW223290   5.276   5.724   1.088
 7153SOL     OW23291   8.928  10.025  11.588
 7153SOL    HW123292   8.899  10.093  11.648
 7153SOL    HW223293   8.917  10.063  11.501
 7154SOL     OW23294   7.963   6.908   3.132
 7154SOL    HW123295   7.990   6.914   3.223
 7154SOL    HW223296   7.872   6.939   3.131
 7155SOL     OW23297   6.009  14.851   9.083
 7155SOL    HW123298   6.022  14.788   9.012
 7155SOL    HW223299   6.094  14.854   9.128
 7156SOL     OW23300   6.854   4.941   1.046
 7156SOL    HW123301   6.775   4.912   1.000
 7156SOL    HW223302   6.827   5.022   1.090
 7157SOL     OW23303  14.037  12.934  11.024
 7157SOL    HW123304  13.967  12.887  11.068
 7157SOL    HW223305  14.103  12.948  11.092
 7158SOL     OW23306   0.322   0.008   4.211
 7158SOL    HW123307   0.347  14.812   4.151
 7158SOL    HW223308   0.362   0.088   4.176
 7159SOL     OW23309  11.909   4.693   1.802
 7159SOL    HW123310  11.896   4.617   1.860
 7159SOL    HW223311  11.864   4.765   1.846
 7160SOL     OW23312   1.928   1.418  13.758
 7160SOL    HW123313   2.014   1.417  13.715
 7160SOL    HW223314   1.938   1.359  13.833
 7161SOL     OW23315   3.437   6.733   0.440
 7161SOL    HW123316   3.382   6.788   0.497
 7161SOL    HW223317   3.407   6.644   0.456
 7162SOL     OW23318  11.809   9.740   1.046
 7162SOL    HW123319  11.874   9.695   0.993
 7162SOL    HW223320  11.847   9.826   1.064
 7163SOL     OW23321   3.373   0.569   6.452
 7163SOL    HW123322   3.384   0.653   6.407
 7163SOL    HW223323   3.291   0.578   6.501
 7164SOL     OW23324   8.964   5.062   0.838
 7164SOL    HW123325   8.965   4.969   0.861
 7164SOL    HW223326   8.890   5.070   0.778
 7165SOL     OW23327  13.394   3.557   6.415
 7165SOL    HW123328  13.387   3.652   6.419
 7165SOL    HW223329  13.314   3.525   6.457
 7166SOL     OW23330   3.361  11.290   1.107
 7166SOL    HW123331   3.320  11.285   1.021
 7166SOL    HW223332   3.397  11.378   1.111
 7167SOL     OW23333   5.219   2.585  10.183
 7167SOL    HW123334   5.191   2.641  10.111
 7167SOL    HW223335   5.262   2.511  10.140
 7168SOL     OW23336   2.262  14.330  12.782
 7168SOL    HW123337   2.252  14.237  12.803
 7168SOL    HW223338   2.239  14.337  12.690
 7169SOL     OW23339  13.236  14.017   1.107
 7169SOL    HW123340  13.222  14.020   1.012
 7169SOL    HW223341  13.226  14.108   1.135
 7170SOL     OW23342  10.627  12.951   0.196
 7170SOL    HW123343  10.549  13.005   0.211
 7170SOL    HW223344  10.611  12.871   0.246
 7171SOL     OW23345   8.079   3.885  11.766
 7171SOL    HW123346   7.985   3.878  11.749
 7171SOL    HW223347   8.088   3.864  11.859
 7172SOL     OW23348   5.210   9.104   1.055
 7172SOL    HW123349   5.177   9.187   1.021
 7172SOL    HW223350   5.132   9.059   1.089
 7173SOL     OW23351   7.102   2.395   8.750
 7173SOL    HW123352   7.075   2.352   8.831
 7173SOL    HW223353   7.119   2.486   8.775
 7174SOL     OW23354   7.073  12.922   7.778
 7174SOL    HW123355   7.124  12.842   7.784
 7174SOL    HW223356   7.051  12.944   7.869
 7175SOL     OW23357  10.419   2.936   9.659
 7175SOL    HW123358  10.482   2.927   9.587
 7175SOL    HW223359  10.342   2.975   9.619
 7176SOL     OW23360  13.352   3.879  11.325
 7176SOL    HW123361  13.292   3.875  11.251
 7176SOL    HW223362  13.328   3.960  11.371
 7177SOL     OW23363   0.759  13.460   1.502
 7177SOL    HW123364   0.791  13.374   1.477
 7177SOL    HW223365   0.798  13.520   1.438
 7178SOL     OW23366   0.338  11.553   6.467
 7178SOL    HW123367   0.317  11.472   6.513
 7178SOL    HW223368   0.317  11.622   6.530
 7179SOL     OW23369   1.151  13.192   7.237
 7179SOL    HW123370   1.238  13.217   7.268
 7179SOL    HW223371   1.091  13.245   7.290
 7180SOL     OW23372  10.752   0.462  11.585
 7180SOL    HW123373  10.810   0.524  11.541
 7180SOL    HW223374  10.680   0.517  11.619
 7181SOL     OW23375  10.833  12.982   7.014
 7181SOL    HW123376  10.780  12.915   7.057
 7181SOL    HW223377  10.771  13.031   6.960
 7182SOL     OW23378   5.235  11.614   1.498
 7182SOL    HW123379   5.142  11.635   1.489
 7182SOL    HW223380   5.247  11.600   1.592
 7183SOL     OW23381   3.073   4.402   1.551
 7183SOL    HW123382   3.097   4.460   1.479
 7183SOL    HW223383   3.049   4.460   1.623
 7184SOL     OW23384   2.301   2.818   6.678
 7184SOL    HW123385   2.241   2.779   6.742
 7184SOL    HW223386   2.297   2.912   6.696
 7185SOL     OW23387   1.446   2.129   1.860
 7185SOL    HW123388   1.455   2.034   1.868
 7185SOL    HW223389   1.517   2.165   1.914
 7186SOL     OW23390  14.488   8.064  11.246
 7186SOL    HW123391  14.398   8.060  11.278
 7186SOL    HW223392  14.497   8.152  11.211
 7187SOL     OW23393  11.475   6.310   2.874
 7187SOL    HW123394  11.509   6.399   2.859
 7187SOL    HW223395  11.437   6.314   2.962
 7188SOL     OW23396   0.509  13.469  14.608
 7188SOL    HW123397   0.536  13.449  14.697
 7188SOL    HW223398   0.572  13.424  14.552
 7189SOL     OW23399   3.513   8.478  10.963
 7189SOL    HW123400   3.453   8.411  10.998
 7189SOL    HW223401   3.467   8.513  10.886
 7190SOL     OW23402   3.924   6.029   7.142
 7190SOL    HW123403   3.988   6.000   7.208
 7190SOL    HW223404   3.849   6.059   7.192
 7191SOL     OW23405  12.519   9.344   4.596
 7191SOL    HW123406  12.608   9.380   4.597
 7191SOL    HW223407  12.531   9.253   4.621
 7192SOL     OW23408   6.407   9.240   2.510
 7192SOL    HW123409   6.385   9.160   2.461
 7192SOL    HW223410   6.385   9.311   2.450
 7193SOL     OW23411  11.407  12.489  14.213
 7193SOL    HW123412  11.431  12.396  14.217
 7193SOL    HW223413  11.465  12.531  14.277
 7194SOL     OW23414   0.980   1.019  11.356
 7194SOL    HW123415   1.038   1.057  11.291
 7194SOL    HW223416   0.954   0.935  11.319
 7195SOL     OW23417  13.491   2.579   8.999
 7195SOL    HW123418  13.434   2.655   9.011
 7195SOL    HW223419  13.547   2.603   8.925
 7196SOL     OW23420   9.292   8.520  10.806
 7196SOL    HW123421   9.369   8.472  10.778
 7196SOL    HW223422   9.313   8.548  10.896
 7197SOL     OW23423   9.468   4.898   2.541
 7197SOL    HW123424   9.539   4.837   2.525
 7197SOL    HW223425   9.501   4.982   2.509
 7198SOL     OW23426  10.841   9.312   5.366
 7198SOL    HW123427  10.879   9.347   5.446
 7198SOL    HW223428  10.746   9.316   5.380
 7199SOL     OW23429   7.684   8.288   9.367
 7199SOL    HW123430   7.614   8.340   9.327
 7199SOL    HW223431   7.672   8.200   9.329
 7200SOL     OW23432   0.401  12.716   0.998
 7200SOL    HW123433   0.462  12.762   0.941
 7200SOL    HW223434   0.362  12.649   0.942
 7201SOL     OW23435   5.318  11.983   8.586
 7201SOL    HW123436   5.229  11.948   8.595
 7201SOL    HW223437   5.355  11.978   8.674
 7202SOL     OW23438   7.000   1.154   9.786
 7202SOL    HW123439   7.088   1.189   9.774
 7202SOL    HW223440   6.944   1.213   9.736
 7203SOL     OW23441   8.702   6.324  14.584
 7203SOL    HW123442   8.649   6.381  14.639
 7203SOL    HW223443   8.792   6.351  14.601
 7204SOL     OW23444   9.823  11.447   5.855
 7204SOL    HW123445   9.895  11.384   5.868
 7204SOL    HW223446   9.776  11.447   5.938
 7205SOL     OW23447  10.994   1.932   2.583
 7205SOL    HW123448  11.061   1.875   2.621
 7205SOL    HW223449  11.037   2.017   2.574
 7206SOL     OW23450   0.851   1.295  13.536
 7206SOL    HW123451   0.816   1.286  13.625
 7206SOL    HW223452   0.926   1.236  13.533
 7207SOL     OW23453   2.530  13.289   9.426
 7207SOL    HW123454   2.556  13.319   9.513
 7207SOL    HW223455   2.590  13.333   9.366
 7208SOL     OW23456   0.107   4.597   2.998
 7208SOL    HW123457   0.067   4.684   2.994
 7208SOL    HW223458   0.128   4.575   2.907
 7209SOL     OW23459   6.249   1.753   3.544
 7209SOL    HW123460   6.319   1.794   3.492
 7209SOL    HW223461   6.173   1.752   3.485
 7210SOL     OW23462   6.296  13.454   0.260
 7210SOL    HW123463   6.291  13.541   0.300
 7210SOL    HW223464   6.205  13.433   0.238
 7211SOL     OW23465  11.474  13.467  14.032
 7211SOL    HW123466  11.464  13.415  14.112
 7211SOL    HW223467  11.558  13.512  14.043
 7212SOL     OW23468   0.380  13.503   2.788
 7212SOL    HW123469   0.315  13.486   2.720
 7212SOL    HW223470   0.426  13.419   2.797
 7213SOL     OW23471   8.320  10.607   1.001
 7213SOL    HW123472   8.224  10.604   1.000
 7213SOL    HW223473   8.343  10.679   0.942
 7214SOL     OW23474  12.406   4.801   0.240
 7214SOL    HW123475  12.347   4.726   0.233
 7214SOL    HW223476  12.384   4.841   0.324
 7215SOL     OW23477  10.345  12.124   3.813
 7215SOL    HW123478  10.295  12.048   3.782
 7215SOL    HW223479  10.411  12.088   3.871
 7216SOL     OW23480  11.500   3.106   2.325
 7216SOL    HW123481  11.519   3.062   2.408
 7216SOL    HW223482  11.529   3.044   2.257
 7217SOL     OW23483  10.829   8.849   9.694
 7217SOL    HW123484  10.856   8.814   9.779
 7217SOL    HW223485  10.839   8.944   9.703
 7218SOL     OW23486  10.105   7.973   6.293
 7218SOL    HW123487  10.157   8.023   6.230
 7218SOL    HW223488  10.159   7.896   6.312
 7219SOL     OW23489  12.714   3.017   3.100
 7219SOL    HW123490  12.656   3.086   3.069
 7219SOL    HW223491  12.777   3.062   3.156
 7220SOL     OW23492   2.294  12.306  13.507
 7220SOL    HW123493   2.274  12.390  13.549
 7220SOL    HW223494   2.294  12.327  13.413
 7221SOL     OW23495  14.602  13.366   8.387
 7221SOL    HW123496  14.628  13.311   8.460
 7221SOL    HW223497  14.507  13.354   8.381
 7222SOL     OW23498  11.914   6.118   3.946
 7222SOL    HW123499  11.884   6.035   3.981
 7222SOL    HW223500  11.940   6.169   4.023
 7223SOL     OW23501   7.490   4.229   0.228
 7223SOL    HW123502   7.568   4.183   0.257
 7223SOL    HW223503   7.456   4.176   0.156
 7224SOL     OW23504  10.777  12.304   5.840
 7224SOL    HW123505  10.853  12.292   5.783
 7224SOL    HW223506  10.755  12.397   5.831
 7225SOL     OW23507  11.910   3.559   0.809
 7225SOL    HW123508  11.834   3.563   0.866
 7225SOL    HW223509  11.920   3.647   0.775
 7226SOL     OW23510  14.270  10.476   3.587
 7226SOL    HW123511  14.280  10.492   3.493
 7226SOL    HW223512  14.232  10.388   3.593
 7227SOL     OW23513   9.089   9.430  10.354
 7227SOL    HW123514   9.047   9.354  10.395
 7227SOL    HW223515   9.020   9.496  10.350
 7228SOL     OW23516  14.381   2.595   0.838
 7228SOL    HW123517  14.461   2.576   0.887
 7228SOL    HW223518  14.311   2.579   0.900
 7229SOL     OW23519   6.595   1.578   6.075
 7229SOL    HW123520   6.592   1.617   6.163
 7229SOL    HW223521   6.516   1.525   6.070
 7230SOL     OW23522   3.474   2.785   2.185
 7230SOL    HW123523   3.560   2.774   2.226
 7230SOL    HW223524   3.443   2.870   2.216
 7231SOL     OW23525  10.947  12.367  11.359
 7231SOL    HW123526  11.012  12.408  11.303
 7231SOL    HW223527  10.903  12.303  11.303
 7232SOL     OW23528   5.216  11.423   9.970
 7232SOL    HW123529   5.264  11.403  10.050
 7232SOL    HW223530   5.236  11.351   9.910
 7233SOL     OW23531  14.364   9.713  11.277
 7233SOL    HW123532  14.316   9.723  11.359
 7233SOL    HW223533  14.307   9.751  11.210
 7234SOL     OW23534  10.955   4.514   7.709
 7234SOL    HW123535  10.874   4.463   7.700
 7234SOL    HW223536  11.024   4.455   7.680
 7235SOL     OW23537   9.985   2.261   4.918
 7235SOL    HW123538   9.919   2.265   4.848
 7235SOL    HW223539  10.050   2.200   4.885
 7236SOL     OW23540   2.683   0.845  13.135
 7236SOL    HW123541   2.772   0.879  13.136
 7236SOL    HW223542   2.631   0.915  13.174
 7237SOL     OW23543   9.241   1.533   3.372
 7237SOL    HW123544   9.335   1.533   3.391
 7237SOL    HW223545   9.230   1.600   3.304
 7238SOL     OW23546   6.619   1.365   4.339
 7238SOL    HW123547   6.574   1.280   4.339
 7238SOL    HW223548   6.620   1.391   4.431
 7239SOL     OW23549  14.199   7.773   9.542
 7239SOL    HW123550  14.113   7.782   9.583
 7239SOL    HW223551  14.184   7.796   9.450
 7240SOL     OW23552   2.740   7.091  13.916
 7240SOL    HW123553   2.751   7.185  13.901
 7240SOL    HW223554   2.720   7.056  13.829
 7241SOL     OW23555   7.422   3.168  10.912
 7241SOL    HW123556   7.512   3.182  10.941
 7241SOL    HW223557   7.424   3.188  10.818
 7242SOL     OW23558   7.802   8.393   4.779
 7242SOL    HW123559   7.824   8.476   4.737
 7242SOL    HW223560   7.733   8.356   4.724
 7243SOL     OW23561   8.169   2.714   6.409
 7243SOL    HW123562   8.089   2.755   6.376
 7243SOL    HW223563   8.236   2.735   6.344
 7244SOL     OW23564   1.252   8.976   4.661
 7244SOL    HW123565   1.228   8.922   4.586
 7244SOL    HW223566   1.347   8.962   4.671
 7245SOL     OW23567   2.361   0.072   9.009
 7245SOL    HW123568   2.392   0.152   8.967
 7245SOL    HW223569   2.404   0.072   9.095
 7246SOL     OW23570   6.729   3.149   5.749
 7246SOL    HW123571   6.772   3.109   5.824
 7246SOL    HW223572   6.636   3.151   5.772
 7247SOL     OW23573  14.484   2.317   0.156
 7247SOL    HW123574  14.464   2.340   0.247
 7247SOL    HW223575  14.578   2.297   0.156
 7248SOL     OW23576  14.071   7.501  11.094
 7248SOL    HW123577  14.117   7.483  11.176
 7248SOL    HW223578  14.134   7.479  11.025
 7249SOL     OW23579   6.408  11.462  14.651
 7249SOL    HW123580   6.494  11.448  14.692
 7249SOL    HW223581   6.348  11.473  14.724
 7250SOL     OW23582   6.740  11.743   0.765
 7250SOL    HW123583   6.678  11.789   0.709
 7250SOL    HW223584   6.818  11.731   0.710
 7251SOL     OW23585  11.484  14.617   6.060
 7251SOL    HW123586  11.425  14.577   5.996
 7251SOL    HW223587  11.522  14.692   6.014
 7252SOL     OW23588  14.066  10.983  13.023
 7252SOL    HW123589  14.084  11.076  13.011
 7252SOL    HW223590  13.995  10.980  13.087
 7253SOL     OW23591  13.402  11.094  10.134
 7253SOL    HW123592  13.358  11.150  10.198
 7253SOL    HW223593  13.442  11.025  10.186
 7254SOL     OW23594  14.032  10.793   7.228
 7254SOL    HW123595  14.066  10.722   7.283
 7254SOL    HW223596  14.035  10.758   7.139
 7255SOL     OW23597   1.113   0.866  14.396
 7255SOL    HW123598   1.048   0.805  14.359
 7255SOL    HW223599   1.110   0.942  14.338
 7256SOL     OW23600  13.572  11.853   3.917
 7256SOL    HW123601  13.576  11.799   3.838
 7256SOL    HW223602  13.479  11.863   3.935
 7257SOL     OW23603  12.021   9.304   8.159
 7257SOL    HW123604  12.071   9.357   8.098
 7257SOL    HW223605  12.080   9.289   8.232
 7258SOL     OW23606   8.686   4.035   1.799
 7258SOL    HW123607   8.719   3.987   1.723
 7258SOL    HW223608   8.722   4.123   1.790
 7259SOL     OW23609  14.370   6.466  11.726
 7259SOL    HW123610  14.441   6.475  11.788
 7259SOL    HW223611  14.356   6.554  11.691
 7260SOL     OW23612  14.688  11.724  13.887
 7260SOL    HW123613  14.715  11.632  13.884
 7260SOL    HW223614  14.762  11.770  13.926
 7261SOL     OW23615   4.117   4.148   5.219
 7261SOL    HW123616   4.209   4.167   5.236
 7261SOL    HW223617   4.107   4.056   5.244
 7262SOL     OW23618   3.187   3.063   3.826
 7262SOL    HW123619   3.236   3.077   3.745
 7262SOL    HW223620   3.168   3.152   3.858
 7263SOL     OW23621   2.281   8.715  11.418
 7263SOL    HW123622   2.246   8.679  11.335
 7263SOL    HW223623   2.356   8.768  11.392
 7264SOL     OW23624   9.010   3.325   2.516
 7264SOL    HW123625   8.982   3.416   2.524
 7264SOL    HW223626   9.098   3.330   2.480
 7265SOL     OW23627   1.144   7.053   2.232
 7265SOL    HW123628   1.076   7.069   2.166
 7265SOL    HW223629   1.155   6.957   2.231
 7266SOL     OW23630   1.003   8.383   8.069
 7266SOL    HW123631   1.001   8.471   8.033
 7266SOL    HW223632   0.948   8.387   8.147
 7267SOL     OW23633   5.151   9.704   2.855
 7267SOL    HW123634   5.126   9.675   2.767
 7267SOL    HW223635   5.238   9.666   2.869
 7268SOL     OW23636   5.274   9.873   3.582
 7268SOL    HW123637   5.347   9.836   3.531
 7268SOL    HW223638   5.308   9.879   3.671
 7269SOL     OW23639   9.512  14.516   8.377
 7269SOL    HW123640   9.562  14.526   8.296
 7269SOL    HW223641   9.564  14.561   8.444
 7270SOL     OW23642   8.055   5.810   9.066
 7270SOL    HW123643   7.991   5.739   9.066
 7270SOL    HW223644   8.103   5.799   8.983
 7271SOL     OW23645   1.431  11.273   2.003
 7271SOL    HW123646   1.381  11.236   2.076
 7271SOL    HW223647   1.500  11.325   2.045
 7272SOL     OW23648   1.117   9.375   1.096
 7272SOL    HW123649   1.052   9.443   1.078
 7272SOL    HW223650   1.095   9.344   1.184
 7273SOL     OW23651   3.035   0.823   7.544
 7273SOL    HW123652   3.031   0.823   7.640
 7273SOL    HW223653   2.954   0.782   7.516
 7274SOL     OW23654   5.447   9.380  11.661
 7274SOL    HW123655   5.404   9.381  11.746
 7274SOL    HW223656   5.538   9.402  11.679
 7275SOL     OW23657   5.023  10.427  11.593
 7275SOL    HW123658   5.054  10.374  11.666
 7275SOL    HW223659   4.960  10.371  11.547
 7276SOL     OW23660   8.275   3.512   6.777
 7276SOL    HW123661   8.214   3.567   6.827
 7276SOL    HW223662   8.220   3.441   6.744
 7277SOL     OW23663   4.646   4.536   0.442
 7277SOL    HW123664   4.644   4.613   0.384
 7277SOL    HW223665   4.554   4.511   0.452
 7278SOL     OW23666   3.011   6.979   9.258
 7278SOL    HW123667   2.998   6.984   9.353
 7278SOL    HW223668   2.997   6.886   9.237
 7279SOL     OW23669  11.680   3.111   2.019
 7279SOL    HW123670  11.753   3.157   1.979
 7279SOL    HW223671  11.611   3.177   2.025
 7280SOL     OW23672   0.587   6.260  13.627
 7280SOL    HW123673   0.604   6.173  13.591
 7280SOL    HW223674   0.562   6.244  13.718
 7281SOL     OW23675   4.171   5.566   8.249
 7281SOL    HW123676   4.167   5.640   8.310
 7281SOL    HW223677   4.261   5.534   8.257
 7282SOL     OW23678   9.990  13.383   4.059
 7282SOL    HW123679   9.978  13.438   3.982
 7282SOL    HW223680  10.058  13.320   4.034
 7283SOL     OW23681  14.588   0.830  11.045
 7283SOL    HW123682  14.595   0.852  10.952
 7283SOL    HW223683  14.675   0.798  11.068
 7284SOL     OW23684   2.302   1.665   8.419
 7284SOL    HW123685   2.282   1.725   8.491
 7284SOL    HW223686   2.291   1.578   8.457
 7285SOL     OW23687   1.416   4.135   8.146
 7285SOL    HW123688   1.360   4.172   8.214
 7285SOL    HW223689   1.460   4.211   8.108
 7286SOL     OW23690  11.879   6.218  11.543
 7286SOL    HW123691  11.807   6.162  11.514
 7286SOL    HW223692  11.914   6.255  11.462
 7287SOL     OW23693   7.523   1.861   0.246
 7287SOL    HW123694   7.517   1.937   0.304
 7287SOL    HW223695   7.511   1.786   0.304
 7288SOL     OW23696   9.612   3.698   6.680
 7288SOL    HW123697   9.534   3.645   6.660
 7288SOL    HW223698   9.621   3.694   6.775
 7289SOL     OW23699  13.717   5.279  11.121
 7289SOL    HW123700  13.778   5.211  11.151
 7289SOL    HW223701  13.771   5.357  11.111
 7290SOL     OW23702   1.338  11.726   4.499
 7290SOL    HW123703   1.386  11.796   4.544
 7290SOL    HW223704   1.348  11.747   4.406
 7291SOL     OW23705   0.737  12.033   6.587
 7291SOL    HW123706   0.792  12.011   6.662
 7291SOL    HW223707   0.711  11.948   6.551
 7292SOL     OW23708   4.509   3.394   5.610
 7292SOL    HW123709   4.520   3.338   5.688
 7292SOL    HW223710   4.464   3.338   5.547
 7293SOL     OW23711   4.837  12.848   4.941
 7293SOL    HW123712   4.757  12.901   4.939
 7293SOL    HW223713   4.807  12.758   4.952
 7294SOL     OW23714   4.912  14.044   2.193
 7294SOL    HW123715   5.005  14.067   2.191
 7294SOL    HW223716   4.884  14.062   2.283
 7295SOL     OW23717  14.537   6.577   7.071
 7295SOL    HW123718  14.442   6.582   7.058
 7295SOL    HW223719  14.548   6.526   7.151
 7296SOL     OW23720   9.422  13.468   3.960
 7296SOL    HW123721   9.460  13.538   4.013
 7296SOL    HW223722   9.343  13.506   3.922
 7297SOL     OW23723   2.515   6.545   7.127
 7297SOL    HW123724   2.478   6.531   7.040
 7297SOL    HW223725   2.503   6.461   7.172
 7298SOL     OW23726   0.909  10.446   4.797
 7298SOL    HW123727   0.939  10.358   4.777
 7298SOL    HW223728   0.897  10.488   4.711
 7299SOL     OW23729   6.489   3.028  13.299
 7299SOL    HW123730   6.560   3.074  13.343
 7299SOL    HW223731   6.503   3.044  13.206
 7300SOL     OW23732   3.601   1.982   2.983
 7300SOL    HW123733   3.552   1.924   3.041
 7300SOL    HW223734   3.534   2.039   2.945
 7301SOL     OW23735   8.455   6.390   3.578
 7301SOL    HW123736   8.513   6.461   3.549
 7301SOL    HW223737   8.437   6.341   3.498
 7302SOL     OW23738   2.100  12.345   5.460
 7302SOL    HW123739   2.045  12.278   5.418
 7302SOL    HW223740   2.112  12.312   5.549
 7303SOL     OW23741  14.593  12.368   3.580
 7303SOL    HW123742  14.601  12.393   3.488
 7303SOL    HW223743  14.569  12.449   3.625
 7304SOL     OW23744  12.198  13.318  12.358
 7304SOL    HW123745  12.235  13.247  12.412
 7304SOL    HW223746  12.254  13.394  12.378
 7305SOL     OW23747   9.505  13.851   1.344
 7305SOL    HW123748   9.473  13.779   1.398
 7305SOL    HW223749   9.426  13.889   1.306
 7306SOL     OW23750   3.977   0.153   6.385
 7306SOL    HW123751   4.019   0.106   6.457
 7306SOL    HW223752   3.898   0.191   6.425
 7307SOL     OW23753   4.124  10.503   1.938
 7307SOL    HW123754   4.091  10.587   1.907
 7307SOL    HW223755   4.047  10.447   1.942
 7308SOL     OW23756  11.644   1.871   4.259
 7308SOL    HW123757  11.549   1.859   4.265
 7308SOL    HW223758  11.681   1.789   4.294
 7309SOL     OW23759  13.288   5.286   8.622
 7309SOL    HW123760  13.279   5.235   8.703
 7309SOL    HW223761  13.339   5.363   8.648
 7310SOL     OW23762   8.335   0.986   4.958
 7310SOL    HW123763   8.294   1.012   4.875
 7310SOL    HW223764   8.276   1.020   5.025
 7311SOL     OW23765   1.076  10.471   0.023
 7311SOL    HW123766   1.014  10.417  14.848
 7311SOL    HW223767   1.160  10.425   0.014
 7312SOL     OW23768  11.649   1.720   7.964
 7312SOL    HW123769  11.706   1.797   7.968
 7312SOL    HW223770  11.652   1.684   8.053
 7313SOL     OW23771   4.055   5.249   6.514
 7313SOL    HW123772   4.029   5.272   6.425
 7313SOL    HW223773   4.144   5.215   6.505
 7314SOL     OW23774  11.197   8.662  14.512
 7314SOL    HW123775  11.137   8.607  14.461
 7314SOL    HW223776  11.154   8.672  14.597
 7315SOL     OW23777  10.767   4.450   0.940
 7315SOL    HW123778  10.697   4.426   0.879
 7315SOL    HW223779  10.743   4.537   0.972
 7316SOL     OW23780  12.870   7.395  12.591
 7316SOL    HW123781  12.945   7.451  12.573
 7316SOL    HW223782  12.798   7.434  12.541
 7317SOL     OW23783   1.603   3.855  11.072
 7317SOL    HW123784   1.682   3.908  11.064
 7317SOL    HW223785   1.612   3.810  11.156
 7318SOL     OW23786  12.659   9.476  10.110
 7318SOL    HW123787  12.626   9.419  10.041
 7318SOL    HW223788  12.747   9.500  10.082
 7319SOL     OW23789   8.643  13.844   5.665
 7319SOL    HW123790   8.565  13.805   5.626
 7319SOL    HW223791   8.672  13.781   5.731
 7320SOL     OW23792   2.100  14.201  14.513
 7320SOL    HW123793   2.150  14.155  14.581
 7320SOL    HW223794   2.028  14.242  14.560
 7321SOL     OW23795  12.781   6.173   0.381
 7321SOL    HW123796  12.720   6.214   0.320
 7321SOL    HW223797  12.729   6.157   0.460
 7322SOL     OW23798  13.547   5.149   6.509
 7322SOL    HW123799  13.475   5.149   6.572
 7322SOL    HW223800  13.591   5.233   6.521
 7323SOL     OW23801  10.378   5.975   7.846
 7323SOL    HW123802  10.344   5.904   7.792
 7323SOL    HW223803  10.306   6.038   7.850
 7324SOL     OW23804   9.144   3.194   7.026
 7324SOL    HW123805   9.091   3.272   7.008
 7324SOL    HW223806   9.101   3.123   6.978
 7325SOL     OW23807   3.014   4.571   2.276
 7325SOL    HW123808   3.081   4.503   2.286
 7325SOL    HW223809   3.055   4.649   2.312
 7326SOL     OW23810   5.343   6.695   0.969
 7326SOL    HW123811   5.339   6.601   0.982
 7326SOL    HW223812   5.421   6.709   0.915
 7327SOL     OW23813  11.323  11.617  11.289
 7327SOL    HW123814  11.401  11.607  11.342
 7327SOL    HW223815  11.258  11.558  11.328
 7328SOL     OW23816  11.072   5.373  11.087
 7328SOL    HW123817  10.985   5.361  11.051
 7328SOL    HW223818  11.114   5.436  11.028
 7329SOL     OW23819   5.850   3.516  13.749
 7329SOL    HW123820   5.886   3.433  13.718
 7329SOL    HW223821   5.777   3.492  13.806
 7330SOL     OW23822   2.216   7.157   0.415
 7330SOL    HW123823   2.122   7.138   0.426
 7330SOL    HW223824   2.231   7.150   0.321
 7331SOL     OW23825  13.197   7.174   1.184
 7331SOL    HW123826  13.114   7.166   1.230
 7331SOL    HW223827  13.261   7.193   1.253
 7332SOL     OW23828  13.438   5.945   9.002
 7332SOL    HW123829  13.369   5.983   9.056
 7332SOL    HW223830  13.445   6.004   8.927
 7333SOL     OW23831   4.962   3.474  14.137
 7333SOL    HW123832   4.947   3.537  14.208
 7333SOL    HW223833   4.907   3.398  14.160
 7334SOL     OW23834   9.678  12.855  11.636
 7334SOL    HW123835   9.725  12.778  11.668
 7334SOL    HW223836   9.627  12.885  11.711
 7335SOL     OW23837   5.504   8.828  14.485
 7335SOL    HW123838   5.462   8.743  14.496
 7335SOL    HW223839   5.585   8.809  14.438
 7336SOL     OW23840   4.506  13.951   0.412
 7336SOL    HW123841   4.507  13.999   0.330
 7336SOL    HW223842   4.531  14.015   0.479
 7337SOL     OW23843   0.831   3.056  12.716
 7337SOL    HW123844   0.819   3.151  12.717
 7337SOL    HW223845   0.745   3.020  12.738
 7338SOL     OW23846  14.790   0.433   6.663
 7338SOL    HW123847  14.776   0.512   6.714
 7338SOL    HW223848  14.805   0.464   6.574
 7339SOL     OW23849   6.430   2.371  10.947
 7339SOL    HW123850   6.367   2.419  10.893
 7339SOL    HW223851   6.485   2.324  10.884
 7340SOL     OW23852   4.668   0.512   0.508
 7340SOL    HW123853   4.739   0.562   0.467
 7340SOL    HW223854   4.617   0.479   0.434
 7341SOL     OW23855  10.711  11.563  10.689
 7341SOL    HW123856  10.769  11.490  10.710
 7341SOL    HW223857  10.689  11.601  10.773
 7342SOL     OW23858   3.257   2.309   3.861
 7342SOL    HW123859   3.211   2.264   3.790
 7342SOL    HW223860   3.335   2.346   3.820
 7343SOL     OW23861   9.158   6.342  10.376
 7343SOL    HW123862   9.092   6.275  10.396
 7343SOL    HW223863   9.216   6.340  10.452
 7344SOL     OW23864   7.996   6.889   3.411
 7344SOL    HW123865   8.046   6.813   3.442
 7344SOL    HW223866   7.973   6.936   3.491
 7345SOL     OW23867   4.615   5.639  13.012
 7345SOL    HW123868   4.634   5.612  12.922
 7345SOL    HW223869   4.650   5.568  13.066
 7346SOL     OW23870  12.100  14.758   1.456
 7346SOL    HW123871  12.194  14.773   1.445
 7346SOL    HW223872  12.060  14.843   1.438
 7347SOL     OW23873   2.398   3.588   8.258
 7347SOL    HW123874   2.467   3.522   8.244
 7347SOL    HW223875   2.429   3.640   8.332
 7348SOL     OW23876  11.170  13.507   4.735
 7348SOL    HW123877  11.152  13.414   4.727
 7348SOL    HW223878  11.265  13.514   4.740
 7349SOL     OW23879   8.913   0.276   2.789
 7349SOL    HW123880   8.867   0.201   2.750
 7349SOL    HW223881   9.000   0.274   2.749
 7350SOL     OW23882   9.429   3.520   5.507
 7350SOL    HW123883   9.453   3.435   5.545
 7350SOL    HW223884   9.499   3.539   5.444
 7351SOL     OW23885  12.859  11.988   0.573
 7351SOL    HW123886  12.795  11.960   0.508
 7351SOL    HW223887  12.849  11.925   0.645
 7352SOL     OW23888  11.296   4.050  13.971
 7352SOL    HW123889  11.377   4.101  13.977
 7352SOL    HW223890  11.235   4.095  14.028
 7353SOL     OW23891   3.711  11.742  10.721
 7353SOL    HW123892   3.761  11.790  10.787
 7353SOL    HW223893   3.757  11.758  10.639
 7354SOL     OW23894  13.260   2.427   2.626
 7354SOL    HW123895  13.213   2.509   2.644
 7354SOL    HW223896  13.199   2.359   2.653
 7355SOL     OW23897   5.642   3.881  14.573
 7355SOL    HW123898   5.670   3.792  14.551
 7355SOL    HW223899   5.682   3.899  14.658
 7356SOL     OW23900   4.745   7.156  12.568
 7356SOL    HW123901   4.838   7.156  12.589
 7356SOL    HW223902   4.737   7.097  12.493
 7357SOL     OW23903  12.844   4.616  12.394
 7357SOL    HW123904  12.901   4.578  12.327
 7357SOL    HW223905  12.779   4.666  12.344
 7358SOL     OW23906  14.346  13.526   4.763
 7358SOL    HW123907  14.384  13.453   4.812
 7358SOL    HW223908  14.375  13.604   4.811
 7359SOL     OW23909  14.574  10.779  13.170
 7359SOL    HW123910  14.488  10.820  13.165
 7359SOL    HW223911  14.625  10.837  13.226
 7360SOL     OW23912  14.003   8.764  13.040
 7360SOL    HW123913  14.002   8.841  13.096
 7360SOL    HW223914  14.091   8.763  13.002
 7361SOL     OW23915  14.680   8.654   0.817
 7361SOL    HW123916  14.720   8.689   0.896
 7361SOL    HW223917  14.672   8.560   0.834
 7362SOL     OW23918  13.839   1.518   9.471
 7362SOL    HW123919  13.773   1.450   9.453
 7362SOL    HW223920  13.889   1.484   9.545
 7363SOL     OW23921   3.240   2.116  11.489
 7363SOL    HW123922   3.201   2.145  11.406
 7363SOL    HW223923   3.273   2.196  11.529
 7364SOL     OW23924   2.490   7.186   6.305
 7364SOL    HW123925   2.426   7.181   6.376
 7364SOL    HW223926   2.531   7.099   6.303
 7365SOL     OW23927   2.047   5.140  14.502
 7365SOL    HW123928   2.022   5.096  14.420
 7365SOL    HW223929   2.026   5.232  14.487
 7366SOL     OW23930   6.190  12.587   4.838
 7366SOL    HW123931   6.147  12.563   4.756
 7366SOL    HW223932   6.133  12.653   4.877
 7367SOL     OW23933   0.510  13.153  12.410
 7367SOL    HW123934   0.480  13.133  12.321
 7367SOL    HW223935   0.605  13.157  12.403
 7368SOL     OW23936  10.877  10.585  10.671
 7368SOL    HW123937  10.831  10.611  10.591
 7368SOL    HW223938  10.925  10.663  10.698
 7369SOL     OW23939  14.102  14.441   8.358
 7369SOL    HW123940  14.061  14.402   8.435
 7369SOL    HW223941  14.171  14.380   8.333
 7370SOL     OW23942  13.542  10.126  12.277
 7370SOL    HW123943  13.498  10.091  12.199
 7370SOL    HW223944  13.551  10.219  12.260
 7371SOL     OW23945   4.104  14.645   2.069
 7371SOL    HW123946   4.103  14.557   2.033
 7371SOL    HW223947   4.115  14.632   2.164
 7372SOL     OW23948  12.256   3.256  13.482
 7372SOL    HW123949  12.319   3.327  13.497
 7372SOL    HW223950  12.250   3.211  13.566
 7373SOL     OW23951   1.401  11.539   8.394
 7373SOL    HW123952   1.370  11.519   8.482
 7373SOL    HW223953   1.463  11.469   8.374
 7374SOL     OW23954  13.221  10.527  10.279
 7374SOL    HW123955  13.130  10.498  10.278
 7374SOL    HW223956  13.239  10.554  10.189
 7375SOL     OW23957   2.566   2.836   3.696
 7375SOL    HW123958   2.503   2.888   3.647
 7375SOL    HW223959   2.530   2.747   3.694
 7376SOL     OW23960   7.913   2.669   6.832
 7376SOL    HW123961   7.979   2.616   6.876
 7376SOL    HW223962   7.914   2.752   6.878
 7377SOL     OW23963   4.464  12.605  13.456
 7377SOL    HW123964   4.530  12.674  13.452
 7377SOL    HW223965   4.512  12.527  13.483
 7378SOL     OW23966  12.873  12.807   3.276
 7378SOL    HW123967  12.814  12.846   3.340
 7378SOL    HW223968  12.822  12.804   3.195
 7379SOL     OW23969   5.143   7.898  12.702
 7379SOL    HW123970   5.121   7.987  12.731
 7379SOL    HW223971   5.233   7.904  12.672
 7380SOL     OW23972  10.280   7.560   1.135
 7380SOL    HW123973  10.337   7.619   1.087
 7380SOL    HW223974  10.339   7.510   1.192
 7381SOL     OW23975  14.679  14.380   9.386
 7381SOL    HW123976  14.592  14.342   9.377
 7381SOL    HW223977  14.688  14.399   9.479
 7382SOL     OW23978   5.783  12.178  11.437
 7382SOL    HW123979   5.731  12.233  11.495
 7382SOL    HW223980   5.843  12.239  11.393
 7383SOL     OW23981   5.451  13.157   2.503
 7383SOL    HW123982   5.515  13.085   2.503
 7383SOL    HW223983   5.369  13.115   2.479
 7384SOL     OW23984   6.182  14.261   4.061
 7384SOL    HW123985   6.161  14.243   3.970
 7384SOL    HW223986   6.261  14.211   4.079
 7385SOL     OW23987  14.662  10.030   3.350
 7385SOL    HW123988  14.620   9.944   3.352
 7385SOL    HW223989  14.622  10.077   3.423
 7386SOL     OW23990   8.962  14.065  12.162
 7386SOL    HW123991   8.916  13.982  12.173
 7386SOL    HW223992   9.011  14.077  12.244
 7387SOL     OW23993   0.287   2.176   1.287
 7387SOL    HW123994   0.222   2.118   1.248
 7387SOL    HW223995   0.304   2.138   1.373
 7388SOL     OW23996   7.798   1.952  14.601
 7388SOL    HW123997   7.722   1.988  14.556
 7388SOL    HW223998   7.806   2.004  14.681
 7389SOL     OW23999   8.109  13.259   5.701
 7389SOL    HW124000   8.197  13.293   5.716
 7389SOL    HW224001   8.053  13.337   5.696
 7390SOL     OW24002  11.433   2.925   5.488
 7390SOL    HW124003  11.527   2.907   5.487
 7390SOL    HW224004  11.394   2.843   5.519
 7391SOL     OW24005   5.360   8.444   8.502
 7391SOL    HW124006   5.291   8.453   8.436
 7391SOL    HW224007   5.314   8.454   8.585
 7392SOL     OW24008   7.518   6.251   2.763
 7392SOL    HW124009   7.565   6.305   2.699
 7392SOL    HW224010   7.576   6.250   2.839
 7393SOL     OW24011   4.890  10.217   4.606
 7393SOL    HW124012   4.833  10.240   4.679
 7393SOL    HW224013   4.969  10.271   4.618
 7394SOL     OW24014   2.602  12.048  12.665
 7394SOL    HW124015   2.532  11.985  12.648
 7394SOL    HW224016   2.679  12.009  12.623
 7395SOL     OW24017   4.769  11.415   1.494
 7395SOL    HW124018   4.820  11.353   1.442
 7395SOL    HW224019   4.810  11.415   1.580
 7396SOL     OW24020   2.378  11.307   2.058
 7396SOL    HW124021   2.322  11.271   2.126
 7396SOL    HW224022   2.466  11.304   2.096
 7397SOL     OW24023  10.914   1.499   6.853
 7397SOL    HW124024  10.894   1.518   6.944
 7397SOL    HW224025  10.834   1.521   6.806
 7398SOL     OW24026  12.089   9.041  14.780
 7398SOL    HW124027  12.159   8.984  14.748
 7398SOL    HW224028  12.062   9.091  14.703
 7399SOL     OW24029   5.422  12.425  10.911
 7399SOL    HW124030   5.353  12.473  10.956
 7399SOL    HW224031   5.392  12.419  10.820
 7400SOL     OW24032  11.815  11.328   1.697
 7400SOL    HW124033  11.853  11.247   1.729
 7400SOL    HW224034  11.886  11.392   1.703
 7401SOL     OW24035   8.144   8.166   8.171
 7401SOL    HW124036   8.059   8.186   8.133
 7401SOL    HW224037   8.205   8.173   8.097
 7402SOL     OW24038   0.268   0.833   1.394
 7402SOL    HW124039   0.316   0.904   1.436
 7402SOL    HW224040   0.274   0.760   1.455
 7403SOL     OW24041   7.753  12.784   6.733
 7403SOL    HW124042   7.666  12.749   6.714
 7403SOL    HW224043   7.799  12.781   6.650
 7404SOL     OW24044   1.387   2.934   8.201
 7404SOL    HW124045   1.384   2.876   8.125
 7404SOL    HW224046   1.325   2.896   8.263
 7405SOL     OW24047   3.586   2.140   9.721
 7405SOL    HW124048   3.521   2.081   9.760
 7405SOL    HW224049   3.543   2.173   9.642
 7406SOL     OW24050  12.253   3.707  13.069
 7406SOL    HW124051  12.265   3.670  13.156
 7406SOL    HW224052  12.261   3.802  13.082
 7407SOL     OW24053   8.246  14.801  14.276
 7407SOL    HW124054   8.307   0.001  14.291
 7407SOL    HW224055   8.261  14.776  14.185
 7408SOL     OW24056   4.808  14.255  11.610
 7408SOL    HW124057   4.721  14.292  11.600
 7408SOL    HW224058   4.859  14.291  11.537
 7409SOL     OW24059   8.202  11.207   9.304
 7409SOL    HW124060   8.281  11.228   9.254
 7409SOL    HW224061   8.200  11.272   9.374
 7410SOL     OW24062  11.743  13.915   3.586
 7410SOL    HW124063  11.827  13.947   3.554
 7410SOL    HW224064  11.727  13.965   3.667
 7411SOL     OW24065   2.667   2.216   7.297
 7411SOL    HW124066   2.759   2.191   7.304
 7411SOL    HW224067   2.619   2.139   7.327
 7412SOL     OW24068   1.529  12.829  12.604
 7412SOL    HW124069   1.560  12.909  12.561
 7412SOL    HW224070   1.434  12.832  12.594
 7413SOL     OW24071   2.561  13.032   4.317
 7413SOL    HW124072   2.530  13.055   4.405
 7413SOL    HW224073   2.582  13.116   4.276
 7414SOL     OW24074   4.359  10.911  11.722
 7414SOL    HW124075   4.336  10.818  11.719
 7414SOL    HW224076   4.406  10.922  11.804
 7415SOL     OW24077   0.545   9.359   6.634
 7415SOL    HW124078   0.502   9.290   6.584
 7415SOL    HW224079   0.539   9.330   6.725
 7416SOL     OW24080   4.185   0.563   5.259
 7416SOL    HW124081   4.271   0.520   5.251
 7416SOL    HW224082   4.187   0.633   5.194
 7417SOL     OW24083  13.968  13.368   8.599
 7417SOL    HW124084  13.957  13.301   8.666
 7417SOL    HW224085  13.903  13.434   8.620
 7418SOL     OW24086  11.199   3.434   0.238
 7418SOL    HW124087  11.242   3.508   0.282
 7418SOL    HW224088  11.202   3.363   0.302
 7419SOL     OW24089  10.823   1.813   3.323
 7419SOL    HW124090  10.849   1.818   3.231
 7419SOL    HW224091  10.790   1.901   3.343
 7420SOL     OW24092   8.021   3.860   9.113
 7420SOL    HW124093   7.956   3.930   9.119
 7420SOL    HW224094   7.986   3.791   9.169
 7421SOL     OW24095   9.334   4.251   6.285
 7421SOL    HW124096   9.264   4.242   6.350
 7421SOL    HW224097   9.322   4.176   6.226
 7422SOL     OW24098   7.364  11.957   0.364
 7422SOL    HW124099   7.349  11.951   0.459
 7422SOL    HW224100   7.459  11.959   0.356
 7423SOL     OW24101   0.467   8.243   9.300
 7423SOL    HW124102   0.519   8.275   9.226
 7423SOL    HW224103   0.403   8.313   9.316
 7424SOL     OW24104   2.883   9.353   0.608
 7424SOL    HW124105   2.875   9.271   0.656
 7424SOL    HW224106   2.891   9.326   0.516
 7425SOL     OW24107   6.442   4.844  13.710
 7425SOL    HW124108   6.449   4.917  13.771
 7425SOL    HW224109   6.532   4.826  13.683
 7426SOL     OW24110  13.757   0.063  14.628
 7426SOL    HW124111  13.774   0.016  14.710
 7426SOL    HW224112  13.714  14.871  14.572
 7427SOL     OW24113  13.582   8.595  10.776
 7427SOL    HW124114  13.639   8.672  10.770
 7427SOL    HW224115  13.575   8.563  10.686
 7428SOL     OW24116  11.669   9.555  14.675
 7428SOL    HW124117  11.756   9.534  14.709
 7428SOL    HW224118  11.648   9.482  14.616
 7429SOL     OW24119   2.180   7.636  13.748
 7429SOL    HW124120   2.201   7.689  13.670
 7429SOL    HW224121   2.110   7.578  13.719
 7430SOL     OW24122  14.430   1.528   9.938
 7430SOL    HW124123  14.515   1.501   9.903
 7430SOL    HW224124  14.367   1.466   9.900
 7431SOL     OW24125  11.440   2.454   5.528
 7431SOL    HW124126  11.399   2.508   5.461
 7431SOL    HW224127  11.526   2.494   5.541
 7432SOL     OW24128  13.197   6.136  13.465
 7432SOL    HW124129  13.215   6.043  13.455
 7432SOL    HW224130  13.271   6.170  13.514
 7433SOL     OW24131   2.265   5.232   1.230
 7433SOL    HW124132   2.258   5.327   1.241
 7433SOL    HW224133   2.287   5.199   1.318
 7434SOL     OW24134  10.437   3.096   9.864
 7434SOL    HW124135  10.428   3.047   9.946
 7434SOL    HW224136  10.447   3.029   9.797
 7435SOL     OW24137   3.942   0.923  10.755
 7435SOL    HW124138   4.031   0.890  10.767
 7435SOL    HW224139   3.893   0.886  10.828
 7436SOL     OW24140   4.846   4.456  10.010
 7436SOL    HW124141   4.856   4.390   9.941
 7436SOL    HW224142   4.823   4.536   9.963
 7437SOL     OW24143   1.512   8.758  10.618
 7437SOL    HW124144   1.467   8.683  10.578
 7437SOL    HW224145   1.505   8.828  10.553
 7438SOL     OW24146   6.676   0.797   7.318
 7438SOL    HW124147   6.602   0.826   7.371
 7438SOL    HW224148   6.694   0.871   7.259
 7439SOL     OW24149   4.873   5.325  12.053
 7439SOL    HW124150   4.875   5.273  12.133
 7439SOL    HW224151   4.822   5.402  12.077
 7440SOL     OW24152   3.483   7.546   1.460
 7440SOL    HW124153   3.464   7.452   1.458
 7440SOL    HW224154   3.488   7.567   1.554
 7441SOL     OW24155  12.157   6.735  14.007
 7441SOL    HW124156  12.218   6.696  13.945
 7441SOL    HW224157  12.114   6.805  13.957
 7442SOL     OW24158   4.951   8.272  12.322
 7442SOL    HW124159   5.007   8.196  12.338
 7442SOL    HW224160   4.940   8.275  12.227
 7443SOL     OW24161   1.138   7.216   8.605
 7443SOL    HW124162   1.175   7.252   8.525
 7443SOL    HW224163   1.073   7.152   8.575
 7444SOL     OW24164   1.975   8.393  11.647
 7444SOL    HW124165   1.995   8.302  11.667
 7444SOL    HW224166   2.061   8.436  11.643
 7445SOL     OW24167   4.161  12.380  11.957
 7445SOL    HW124168   4.072  12.364  11.925
 7445SOL    HW224169   4.194  12.450  11.900
 7446SOL     OW24170  13.484  10.596   8.509
 7446SOL    HW124171  13.502  10.686   8.538
 7446SOL    HW224172  13.444  10.606   8.423
 7447SOL     OW24173   4.570   3.873   0.543
 7447SOL    HW124174   4.649   3.907   0.586
 7447SOL    HW224175   4.599   3.846   0.456
 7448SOL     OW24176   4.351   5.242  14.012
 7448SOL    HW124177   4.275   5.218  13.958
 7448SOL    HW224178   4.361   5.168  14.072
 7449SOL     OW24179  12.093   9.209   6.595
 7449SOL    HW124180  12.109   9.253   6.678
 7449SOL    HW224181  12.178   9.170   6.572
 7450SOL     OW24182   3.203   4.346  11.244
 7450SOL    HW124183   3.269   4.279  11.227
 7450SOL    HW224184   3.196   4.395  11.163
 7451SOL     OW24185  10.020   3.471   3.154
 7451SOL    HW124186  10.102   3.514   3.180
 7451SOL    HW224187  10.047   3.404   3.092
 7452SOL     OW24188   6.435   6.892   5.075
 7452SOL    HW124189   6.396   6.965   5.027
 7452SOL    HW224190   6.506   6.931   5.126
 7453SOL     OW24191  11.858   3.293   1.945
 7453SOL    HW124192  11.792   3.348   1.987
 7453SOL    HW224193  11.914   3.354   1.899
 7454SOL     OW24194  10.737   4.572   1.300
 7454SOL    HW124195  10.754   4.642   1.363
 7454SOL    HW224196  10.822   4.558   1.257
 7455SOL     OW24197  11.711  13.635   8.162
 7455SOL    HW124198  11.617  13.637   8.179
 7455SOL    HW224199  11.730  13.542   8.145
 7456SOL     OW24200  13.555  10.518   1.757
 7456SOL    HW124201  13.639  10.474   1.740
 7456SOL    HW224202  13.564  10.551   1.846
 7457SOL     OW24203   7.149  13.630   4.074
 7457SOL    HW124204   7.220  13.672   4.026
 7457SOL    HW224205   7.088  13.602   4.006
 7458SOL     OW24206   0.656  14.059   8.825
 7458SOL    HW124207   0.601  14.044   8.748
 7458SOL    HW224208   0.719  13.987   8.824
 7459SOL     OW24209  11.889   5.318   6.410
 7459SOL    HW124210  11.976   5.320   6.451
 7459SOL    HW224211  11.894   5.248   6.346
 7460SOL     OW24212   5.249   5.597  13.779
 7460SOL    HW124213   5.304   5.520  13.797
 7460SOL    HW224214   5.277   5.662  13.844
 7461SOL     OW24215  11.220   9.479   4.608
 7461SOL    HW124216  11.192   9.431   4.530
 7461SOL    HW224217  11.147   9.470   4.669
 7462SOL     OW24218   3.701   1.949  11.595
 7462SOL    HW124219   3.669   1.875  11.646
 7462SOL    HW224220   3.690   2.025  11.652
 7463SOL     OW24221  14.141   6.532   4.416
 7463SOL    HW124222  14.066   6.590   4.425
 7463SOL    HW224223  14.205   6.567   4.478
 7464SOL     OW24224  12.537   3.156  12.815
 7464SOL    HW124225  12.487   3.191  12.742
 7464SOL    HW224226  12.573   3.073  12.783
 7465SOL     OW24227   8.271   3.635   5.520
 7465SOL    HW124228   8.196   3.675   5.476
 7465SOL    HW224229   8.280   3.685   5.601
 7466SOL     OW24230   6.702  10.795   3.583
 7466SOL    HW124231   6.785  10.787   3.629
 7466SOL    HW224232   6.709  10.735   3.508
 7467SOL     OW24233   4.651   9.997   5.386
 7467SOL    HW124234   4.710   9.998   5.461
 7467SOL    HW224235   4.704   9.967   5.313
 7468SOL     OW24236   6.792  13.639   4.881
 7468SOL    HW124237   6.730  13.710   4.868
 7468SOL    HW224238   6.751  13.582   4.946
 7469SOL     OW24239   8.342  14.167   1.283
 7469SOL    HW124240   8.331  14.076   1.310
 7469SOL    HW224241   8.334  14.165   1.188
 7470SOL     OW24242   8.305   9.948   9.933
 7470SOL    HW124243   8.258   9.901  10.002
 7470SOL    HW224244   8.272   9.911   9.851
 7471SOL     OW24245   7.140   6.465   7.685
 7471SOL    HW124246   7.098   6.540   7.727
 7471SOL    HW224247   7.222   6.453   7.734
 7472SOL     OW24248   0.268  14.405  11.504
 7472SOL    HW124249   0.340  14.417  11.566
 7472SOL    HW224250   0.308  14.425  11.419
 7473SOL     OW24251  10.433   6.066  12.046
 7473SOL    HW124252  10.370   6.086  12.115
 7473SOL    HW224253  10.514   6.110  12.073
 7474SOL     OW24254   7.369   4.216   7.190
 7474SOL    HW124255   7.346   4.195   7.100
 7474SOL    HW224256   7.450   4.168   7.207
 7475SOL     OW24257   6.471   7.647   9.325
 7475SOL    HW124258   6.519   7.627   9.245
 7475SOL    HW224259   6.413   7.720   9.302
 7476SOL     OW24260   5.354  12.933  10.951
 7476SOL    HW124261   5.343  12.885  10.869
 7476SOL    HW224262   5.349  13.025  10.926
 7477SOL     OW24263  11.544   0.511   0.419
 7477SOL    HW124264  11.621   0.482   0.370
 7477SOL    HW224265  11.578   0.576   0.481
 7478SOL     OW24266  13.059   2.834   1.411
 7478SOL    HW124267  13.024   2.819   1.323
 7478SOL    HW224268  12.984   2.820   1.469
 7479SOL     OW24269   2.840   9.860   4.505
 7479SOL    HW124270   2.791   9.785   4.538
 7479SOL    HW224271   2.799   9.882   4.422
 7480SOL     OW24272   4.243  11.617   4.356
 7480SOL    HW124273   4.189  11.544   4.327
 7480SOL    HW224274   4.222  11.688   4.295
 7481SOL     OW24275   7.435   6.676  11.974
 7481SOL    HW124276   7.402   6.690  11.885
 7481SOL    HW224277   7.423   6.583  11.990
 7482SOL     OW24278  11.035  12.084   6.853
 7482SOL    HW124279  11.007  12.173   6.876
 7482SOL    HW224280  11.047  12.040   6.937
 7483SOL     OW24281  13.934   3.281   5.657
 7483SOL    HW124282  13.985   3.263   5.736
 7483SOL    HW224283  13.991   3.254   5.585
 7484SOL     OW24284   1.280  13.037   5.460
 7484SOL    HW124285   1.363  12.991   5.465
 7484SOL    HW224286   1.217  12.978   5.502
 7485SOL     OW24287  12.962   9.561   5.831
 7485SOL    HW124288  12.969   9.588   5.739
 7485SOL    HW224289  12.962   9.465   5.827
 7486SOL     OW24290  14.007   5.796  12.228
 7486SOL    HW124291  14.101   5.808  12.218
 7486SOL    HW224292  13.997   5.723  12.289
 7487SOL     OW24293   0.549  14.676  11.588
 7487SOL    HW124294   0.642  14.665  11.567
 7487SOL    HW224295   0.518  14.738  11.522
 7488SOL     OW24296   8.807   4.145   5.593
 7488SOL    HW124297   8.818   4.138   5.687
 7488SOL    HW224298   8.880   4.097   5.556
 7489SOL     OW24299  11.664   7.659  12.228
 7489SOL    HW124300  11.741   7.664  12.171
 7489SOL    HW224301  11.633   7.568  12.219
 7490SOL     OW24302   2.338   1.943  12.188
 7490SOL    HW124303   2.398   1.947  12.262
 7490SOL    HW224304   2.365   1.865  12.140
 7491SOL     OW24305  13.673   7.269   5.249
 7491SOL    HW124306  13.703   7.263   5.340
 7491SOL    HW224307  13.753   7.282   5.198
 7492SOL     OW24308  13.045   1.497   5.082
 7492SOL    HW124309  13.136   1.521   5.098
 7492SOL    HW224310  13.000   1.518   5.165
 7493SOL     OW24311   9.723   3.799  11.500
 7493SOL    HW124312   9.661   3.870  11.485
 7493SOL    HW224313   9.809   3.839  11.495
 7494SOL     OW24314   9.586   9.750   0.826
 7494SOL    HW124315   9.548   9.803   0.756
 7494SOL    HW224316   9.654   9.805   0.864
 7495SOL     OW24317  10.585   4.609   8.692
 7495SOL    HW124318  10.526   4.619   8.618
 7495SOL    HW224319  10.635   4.529   8.674
 7496SOL     OW24320   6.723   7.371  11.905
 7496SOL    HW124321   6.788   7.436  11.876
 7496SOL    HW224322   6.656   7.423  11.949
 7497SOL     OW24323   8.586   7.662   1.653
 7497SOL    HW124324   8.553   7.720   1.721
 7497SOL    HW224325   8.677   7.643   1.678
 7498SOL     OW24326   9.993  10.852   6.267
 7498SOL    HW124327   9.914  10.819   6.309
 7498SOL    HW224328  10.044  10.774   6.246
 7499SOL     OW24329  14.147  11.887  13.198
 7499SOL    HW124330  14.243  11.890  13.199
 7499SOL    HW224331  14.122  11.959  13.140
 7500SOL     OW24332  13.322  13.407   2.610
 7500SOL    HW124333  13.384  13.399   2.683
 7500SOL    HW224334  13.263  13.477   2.636
 7501SOL     OW24335   2.525   5.376   3.043
 7501SOL    HW124336   2.494   5.453   3.090
 7501SOL    HW224337   2.606   5.351   3.088
 7502SOL     OW24338   6.984  13.058   0.621
 7502SOL    HW124339   6.996  13.135   0.565
 7502SOL    HW224340   6.926  13.001   0.571
 7503SOL     OW24341  12.643  13.889   0.731
 7503SOL    HW124342  12.726  13.924   0.762
 7503SOL    HW224343  12.583  13.899   0.804
 7504SOL     OW24344  11.837   6.517   9.176
 7504SOL    HW124345  11.784   6.580   9.226
 7504SOL    HW224346  11.875   6.569   9.105
 7505SOL     OW24347  10.366  12.154   6.339
 7505SOL    HW124348  10.360  12.073   6.389
 7505SOL    HW224349  10.399  12.219   6.401
 7506SOL     OW24350  11.506  13.612   4.055
 7506SOL    HW124351  11.509  13.538   3.995
 7506SOL    HW224352  11.569  13.675   4.019
 7507SOL     OW24353   9.931   6.393   6.436
 7507SOL    HW124354   9.894   6.353   6.515
 7507SOL    HW224355   9.908   6.486   6.444
 7508SOL     OW24356   5.007  14.412   2.683
 7508SOL    HW124357   4.991  14.446   2.595
 7508SOL    HW224358   4.977  14.481   2.742
 7509SOL     OW24359   5.147   9.284   1.278
 7509SOL    HW124360   5.167   9.377   1.263
 7509SOL    HW224361   5.232   9.242   1.286
 7510SOL     OW24362  12.971   5.549   9.223
 7510SOL    HW124363  12.963   5.484   9.153
 7510SOL    HW224364  12.958   5.499   9.304
 7511SOL     OW24365  12.732  11.263   9.317
 7511SOL    HW124366  12.700  11.246   9.228
 7511SOL    HW224367  12.658  11.241   9.373
 7512SOL     OW24368   3.825  12.632   4.037
 7512SOL    HW124369   3.784  12.716   4.014
 7512SOL    HW224370   3.919  12.651   4.040
 7513SOL     OW24371   5.992  11.589   3.962
 7513SOL    HW124372   6.059  11.522   3.971
 7513SOL    HW224373   6.014  11.655   4.028
 7514SOL     OW24374  14.697   7.731  10.648
 7514SOL    HW124375  14.755   7.803  10.673
 7514SOL    HW224376  14.667   7.754  10.560
 7515SOL     OW24377  11.995   4.661  13.549
 7515SOL    HW124378  11.928   4.702  13.494
 7515SOL    HW224379  12.070   4.720  13.543
 7516SOL     OW24380   0.110   8.985   7.217
 7516SOL    HW124381   0.124   9.010   7.308
 7516SOL    HW224382   0.198   8.971   7.182
 7517SOL     OW24383   5.179  13.571  14.362
 7517SOL    HW124384   5.169  13.548  14.269
 7517SOL    HW224385   5.122  13.510  14.408
 7518SOL     OW24386  10.815   0.039   7.506
 7518SOL    HW124387  10.837   0.015   7.596
 7518SOL    HW224388  10.727   0.004   7.493
 7519SOL     OW24389   1.112   4.949   3.745
 7519SOL    HW124390   1.093   4.885   3.813
 7519SOL    HW224391   1.165   4.902   3.681
 7520SOL     OW24392   7.922   6.888   3.777
 7520SOL    HW124393   7.849   6.937   3.740
 7520SOL    HW224394   7.907   6.798   3.748
 7521SOL     OW24395   2.169   7.783   3.158
 7521SOL    HW124396   2.102   7.799   3.225
 7521SOL    HW224397   2.158   7.690   3.136
 7522SOL     OW24398   9.107   1.694   9.276
 7522SOL    HW124399   9.019   1.712   9.310
 7522SOL    HW224400   9.134   1.613   9.318
 7523SOL     OW24401  11.275   1.390   0.166
 7523SOL    HW124402  11.247   1.421   0.080
 7523SOL    HW224403  11.291   1.296   0.154
 7524SOL     OW24404   4.028   6.667  12.294
 7524SOL    HW124405   4.015   6.727  12.220
 7524SOL    HW224406   4.122   6.649  12.293
 7525SOL     OW24407   9.385  13.172  14.205
 7525SOL    HW124408   9.325  13.215  14.266
 7525SOL    HW224409   9.408  13.090  14.247
 7526SOL     OW24410   7.707   4.160  10.923
 7526SOL    HW124411   7.692   4.196  11.011
 7526SOL    HW224412   7.651   4.083  10.919
 7527SOL     OW24413  11.509   4.020  12.579
 7527SOL    HW124414  11.427   4.070  12.575
 7527SOL    HW224415  11.484   3.936  12.618
 7528SOL     OW24416   4.763   9.937   6.206
 7528SOL    HW124417   4.704   9.897   6.142
 7528SOL    HW224418   4.842   9.884   6.202
 7529SOL     OW24419   5.816  13.017   3.186
 7529SOL    HW124420   5.774  12.932   3.171
 7529SOL    HW224421   5.751  13.081   3.158
 7530SOL     OW24422  12.324  11.289   8.252
 7530SOL    HW124423  12.357  11.220   8.309
 7530SOL    HW224424  12.393  11.302   8.188
 7531SOL     OW24425   3.486   2.257   5.925
 7531SOL    HW124426   3.491   2.262   5.829
 7531SOL    HW224427   3.405   2.305   5.947
 7532SOL     OW24428   4.634  10.586   7.998
 7532SOL    HW124429   4.712  10.641   7.984
 7532SOL    HW224430   4.643  10.554   8.087
 7533SOL     OW24431   2.451   8.184   3.241
 7533SOL    HW124432   2.418   8.163   3.154
 7533SOL    HW224433   2.423   8.273   3.257
 7534SOL     OW24434  11.376  13.857   1.107
 7534SOL    HW124435  11.386  13.904   1.024
 7534SOL    HW224436  11.287  13.821   1.103
 7535SOL     OW24437  12.326  13.286  11.364
 7535SOL    HW124438  12.420  13.302  11.359
 7535SOL    HW224439  12.288  13.343  11.297
 7536SOL     OW24440   2.132  10.710   6.546
 7536SOL    HW124441   2.160  10.637   6.602
 7536SOL    HW224442   2.183  10.699   6.466
 7537SOL     OW24443   5.859   8.005   1.899
 7537SOL    HW124444   5.808   8.029   1.976
 7537SOL    HW224445   5.879   8.088   1.856
 7538SOL     OW24446  11.613   9.052  13.099
 7538SOL    HW124447  11.664   9.080  13.175
 7538SOL    HW224448  11.671   8.994  13.050
 7539SOL     OW24449   9.925  14.371   5.737
 7539SOL    HW124450   9.960  14.328   5.815
 7539SOL    HW224451   9.877  14.302   5.691
 7540SOL     OW24452   2.737   1.165   2.675
 7540SOL    HW124453   2.709   1.256   2.679
 7540SOL    HW224454   2.719   1.138   2.585
 7541SOL     OW24455   1.565   6.232  14.488
 7541SOL    HW124456   1.530   6.152  14.448
 7541SOL    HW224457   1.521   6.303  14.441
 7542SOL     OW24458   2.073   6.630   2.522
 7542SOL    HW124459   2.083   6.705   2.464
 7542SOL    HW224460   2.111   6.557   2.472
 7543SOL     OW24461   8.403  12.024   9.177
 7543SOL    HW124462   8.337  12.038   9.109
 7543SOL    HW224463   8.356  11.978   9.246
 7544SOL     OW24464   8.897   8.825   5.408
 7544SOL    HW124465   8.810   8.794   5.380
 7544SOL    HW224466   8.880   8.868   5.492
 7545SOL     OW24467   2.064  10.863   0.082
 7545SOL    HW124468   2.133  10.901   0.137
 7545SOL    HW224469   2.085  10.893  14.867
 7546SOL     OW24470   8.623   5.925   7.677
 7546SOL    HW124471   8.610   5.941   7.583
 7546SOL    HW224472   8.671   5.842   7.680
 7547SOL     OW24473  13.401   6.647  13.111
 7547SOL    HW124474  13.431   6.605  13.031
 7547SOL    HW224475  13.306   6.651  13.102
 7548SOL     OW24476   3.520   1.523   6.077
 7548SOL    HW124477   3.551   1.564   6.158
 7548SOL    HW224478   3.463   1.589   6.037
 7549SOL     OW24479   2.085   3.843   8.745
 7549SOL    HW124480   2.151   3.868   8.810
 7549SOL    HW224481   2.134   3.834   8.664
 7550SOL     OW24482   4.265   7.274  13.329
 7550SOL    HW124483   4.182   7.300  13.287
 7550SOL    HW224484   4.313   7.356  13.339
 7551SOL     OW24485   7.008   9.966   1.027
 7551SOL    HW124486   7.052   9.908   0.966
 7551SOL    HW224487   6.940  10.009   0.976
 7552SOL     OW24488   7.574   0.132   0.154
 7552SOL    HW124489   7.664   0.101   0.146
 7552SOL    HW224490   7.582   0.228   0.149
 7553SOL     OW24491   4.691   7.657  12.359
 7553SOL    HW124492   4.739   7.718  12.414
 7553SOL    HW224493   4.730   7.571  12.379
 7554SOL     OW24494   3.884  12.352  13.776
 7554SOL    HW124495   3.969  12.311  13.756
 7554SOL    HW224496   3.907  12.439  13.808
 7555SOL     OW24497   2.903   6.816   7.470
 7555SOL    HW124498   2.839   6.747   7.485
 7555SOL    HW224499   2.961   6.781   7.402
 7556SOL     OW24500   0.279   5.115   1.357
 7556SOL    HW124501   0.314   5.177   1.421
 7556SOL    HW224502   0.355   5.068   1.323
 7557SOL     OW24503   0.511  12.808   3.523
 7557SOL    HW124504   0.558  12.788   3.442
 7557SOL    HW224505   0.427  12.765   3.514
 7558SOL     OW24506   5.927   7.689   1.299
 7558SOL    HW124507   5.944   7.633   1.375
 7558SOL    HW224508   5.912   7.628   1.227
 7559SOL     OW24509  11.012   6.534  12.060
 7559SOL    HW124510  11.026   6.563  11.970
 7559SOL    HW224511  10.949   6.596  12.096
 7560SOL     OW24512   9.858   1.759  11.756
 7560SOL    HW124513   9.935   1.767  11.700
 7560SOL    HW224514   9.808   1.687  11.718
 7561SOL     OW24515  12.289   4.803   1.435
 7561SOL    HW124516  12.229   4.848   1.494
 7561SOL    HW224517  12.256   4.823   1.347
 7562SOL     OW24518   4.799  10.515  14.329
 7562SOL    HW124519   4.846  10.432  14.323
 7562SOL    HW224520   4.835  10.568  14.258
 7563SOL     OW24521   9.382   6.177  12.087
 7563SOL    HW124522   9.432   6.228  12.151
 7563SOL    HW224523   9.296   6.166  12.126
 7564SOL     OW24524   1.767   9.124   3.479
 7564SOL    HW124525   1.737   9.092   3.564
 7564SOL    HW224526   1.696   9.101   3.418
 7565SOL     OW24527  14.850   3.619   3.530
 7565SOL    HW124528  14.833   3.713   3.521
 7565SOL    HW224529  14.795   3.592   3.603
 7566SOL     OW24530   4.971  10.544   8.662
 7566SOL    HW124531   4.923  10.518   8.583
 7566SOL    HW224532   4.905  10.547   8.731
 7567SOL     OW24533  13.368   7.723   0.723
 7567SOL    HW124534  13.410   7.809   0.729
 7567SOL    HW224535  13.441   7.661   0.718
 7568SOL     OW24536  10.778   1.518   2.857
 7568SOL    HW124537  10.799   1.605   2.824
 7568SOL    HW224538  10.735   1.474   2.784
 7569SOL     OW24539  11.611   9.654   2.119
 7569SOL    HW124540  11.628   9.693   2.205
 7569SOL    HW224541  11.639   9.563   2.128
 7570SOL     OW24542   2.195  11.162   1.736
 7570SOL    HW124543   2.278  11.114   1.737
 7570SOL    HW224544   2.128  11.094   1.739
 7571SOL     OW24545   8.450   2.358   9.407
 7571SOL    HW124546   8.383   2.416   9.442
 7571SOL    HW224547   8.511   2.344   9.480
 7572SOL     OW24548   5.028   7.115   5.041
 7572SOL    HW124549   5.100   7.119   5.103
 7572SOL    HW224550   5.000   7.206   5.032
 7573SOL     OW24551   6.140   1.491  11.452
 7573SOL    HW124552   6.108   1.414  11.405
 7573SOL    HW224553   6.225   1.464  11.487
 7574SOL     OW24554   8.604   1.307   4.532
 7574SOL    HW124555   8.659   1.371   4.486
 7574SOL    HW224556   8.514   1.336   4.516
 7575SOL     OW24557   0.956  11.181  13.579
 7575SOL    HW124558   0.868  11.202  13.547
 7575SOL    HW224559   0.972  11.245  13.648
 7576SOL     OW24560   8.929  12.274   9.267
 7576SOL    HW124561   8.886  12.359   9.272
 7576SOL    HW224562   8.872  12.216   9.318
 7577SOL     OW24563  13.057  10.777  12.995
 7577SOL    HW124564  13.037  10.828  12.917
 7577SOL    HW224565  13.096  10.696  12.963
 7578SOL     OW24566  13.141   8.491  13.853
 7578SOL    HW124567  13.214   8.437  13.822
 7578SOL    HW224568  13.088   8.432  13.906
 7579SOL     OW24569   3.814   9.566   8.601
 7579SOL    HW124570   3.874   9.503   8.643
 7579SOL    HW224571   3.746   9.581   8.666
 7580SOL     OW24572   6.749  11.123  10.370
 7580SOL    HW124573   6.725  11.040  10.411
 7580SOL    HW224574   6.774  11.180  10.443
 7581SOL     OW24575   9.573   7.343   6.467
 7581SOL    HW124576   9.557   7.434   6.494
 7581SOL    HW224577   9.645   7.313   6.523
 7582SOL     OW24578   3.436  13.557   0.585
 7582SOL    HW124579   3.471  13.581   0.499
 7582SOL    HW224580   3.481  13.476   0.607
 7583SOL     OW24581   1.056   8.888   8.327
 7583SOL    HW124582   1.009   8.901   8.409
 7583SOL    HW224583   1.026   8.960   8.271
 7584SOL     OW24584   8.597  11.075   6.740
 7584SOL    HW124585   8.679  11.027   6.729
 7584SOL    HW224586   8.531  11.020   6.700
 7585SOL     OW24587   7.138   0.605   9.195
 7585SOL    HW124588   7.060   0.556   9.223
 7585SOL    HW224589   7.155   0.665   9.267
 7586SOL     OW24590  12.518   2.436   9.077
 7586SOL    HW124591  12.609   2.444   9.105
 7586SOL    HW224592  12.502   2.515   9.025
 7587SOL     OW24593   3.038  10.777   8.758
 7587SOL    HW124594   3.032  10.709   8.825
 7587SOL    HW224595   3.028  10.859   8.807
 7588SOL     OW24596  11.002   5.838  11.243
 7588SOL    HW124597  11.058   5.820  11.168
 7588SOL    HW224598  11.016   5.764  11.303
 7589SOL     OW24599   4.322   7.847   2.438
 7589SOL    HW124600   4.402   7.813   2.480
 7589SOL    HW224601   4.288   7.772   2.389
 7590SOL     OW24602  12.253   1.877   3.933
 7590SOL    HW124603  12.278   1.917   3.849
 7590SOL    HW224604  12.279   1.785   3.924
 7591SOL     OW24605  11.443  10.532  13.928
 7591SOL    HW124606  11.403  10.609  13.970
 7591SOL    HW224607  11.378  10.503  13.864
 7592SOL     OW24608   0.961   9.089  10.016
 7592SOL    HW124609   0.932   9.170   9.975
 7592SOL    HW224610   0.895   9.024   9.991
 7593SOL     OW24611   1.390   8.896   5.548
 7593SOL    HW124612   1.424   8.967   5.492
 7593SOL    HW224613   1.310   8.932   5.586
 7594SOL     OW24614   1.459   7.697   9.248
 7594SOL    HW124615   1.513   7.703   9.169
 7594SOL    HW224616   1.522   7.696   9.320
 7595SOL     OW24617  12.475   6.241   1.821
 7595SOL    HW124618  12.387   6.278   1.824
 7595SOL    HW224619  12.480   6.187   1.900
 7596SOL     OW24620  14.111   2.976   2.029
 7596SOL    HW124621  14.199   2.963   1.996
 7596SOL    HW224622  14.119   2.963   2.124
 7597SOL     OW24623  12.321  14.687  10.737
 7597SOL    HW124624  12.400  14.646  10.700
 7597SOL    HW224625  12.347  14.777  10.756
 7598SOL     OW24626   0.656  11.847  13.792
 7598SOL    HW124627   0.743  11.873  13.822
 7598SOL    HW224628   0.596  11.891  13.853
 7599SOL     OW24629   2.423  13.099   7.183
 7599SOL    HW124630   2.485  13.059   7.121
 7599SOL    HW224631   2.478  13.142   7.248
 7600SOL     OW24632   1.434   0.882  13.237
 7600SOL    HW124633   1.357   0.914  13.189
 7600SOL    HW224634   1.479   0.962  13.266
 7601SOL     OW24635  13.051  12.812  12.073
 7601SOL    HW124636  12.955  12.812  12.071
 7601SOL    HW224637  13.073  12.808  12.166
 7602SOL     OW24638   1.787   6.156   9.017
 7602SOL    HW124639   1.795   6.067   8.982
 7602SOL    HW224640   1.877   6.183   9.036
 7603SOL     OW24641  12.163   7.603  10.158
 7603SOL    HW124642  12.236   7.663  10.139
 7603SOL    HW224643  12.205   7.518  10.171
 7604SOL     OW24644  14.814   3.524   7.079
 7604SOL    HW124645  14.731   3.571   7.085
 7604SOL    HW224646  14.814   3.485   6.991
 7605SOL     OW24647   9.082  11.088   3.861
 7605SOL    HW124648   9.100  11.103   3.954
 7605SOL    HW224649   8.987  11.090   3.854
 7606SOL     OW24650   0.045  12.713  10.026
 7606SOL    HW124651   0.062  12.777  10.094
 7606SOL    HW224652   0.092  12.635  10.055
 7607SOL     OW24653  10.947   2.269   9.038
 7607SOL    HW124654  11.040   2.248   9.030
 7607SOL    HW224655  10.927   2.317   8.958
 7608SOL     OW24656  11.347   5.775   1.836
 7608SOL    HW124657  11.416   5.749   1.775
 7608SOL    HW224658  11.339   5.870   1.824
 7609SOL     OW24659  10.679   6.101   3.607
 7609SOL    HW124660  10.614   6.039   3.573
 7609SOL    HW224661  10.634   6.147   3.678
 7610SOL     OW24662  12.033  10.174   1.097
 7610SOL    HW124663  12.044  10.266   1.075
 7610SOL    HW224664  12.102  10.157   1.162
 7611SOL     OW24665  14.008  10.508   1.836
 7611SOL    HW124666  14.098  10.493   1.809
 7611SOL    HW224667  13.975  10.422   1.861
 7612SOL     OW24668   1.686   6.837   0.913
 7612SOL    HW124669   1.723   6.781   0.981
 7612SOL    HW224670   1.592   6.835   0.929
 7613SOL     OW24671   8.278   8.885  14.690
 7613SOL    HW124672   8.304   8.838  14.769
 7613SOL    HW224673   8.284   8.978  14.714
 7614SOL     OW24674  10.100   2.701   8.763
 7614SOL    HW124675  10.156   2.623   8.769
 7614SOL    HW224676  10.119   2.750   8.843
 7615SOL     OW24677   3.495  11.744   3.418
 7615SOL    HW124678   3.440  11.821   3.403
 7615SOL    HW224679   3.441  11.687   3.473
 7616SOL     OW24680   8.022  14.766  11.906
 7616SOL    HW124681   7.963  14.810  11.845
 7616SOL    HW224682   7.969  14.751  11.984
 7617SOL     OW24683  11.087   4.615  14.859
 7617SOL    HW124684  11.178   4.586  14.857
 7617SOL    HW224685  11.079   4.661   0.070
 7618SOL     OW24686   4.553   6.043   0.932
 7618SOL    HW124687   4.634   6.032   0.882
 7618SOL    HW224688   4.552   6.136   0.956
 7619SOL     OW24689  12.863   0.669   8.436
 7619SOL    HW124690  12.811   0.590   8.428
 7619SOL    HW224691  12.893   0.688   8.347
 7620SOL     OW24692   2.138   0.325   7.679
 7620SOL    HW124693   2.139   0.392   7.610
 7620SOL    HW224694   2.045   0.318   7.703
 7621SOL     OW24695   0.239   5.464   6.992
 7621SOL    HW124696   0.203   5.504   7.070
 7621SOL    HW224697   0.211   5.373   6.996
 7622SOL     OW24698   9.851  11.833  13.978
 7622SOL    HW124699   9.922  11.770  13.989
 7622SOL    HW224700   9.881  11.894  13.911
 7623SOL     OW24701   6.493   5.389  13.083
 7623SOL    HW124702   6.561   5.331  13.048
 7623SOL    HW224703   6.481   5.456  13.016
 7624SOL     OW24704   6.317   9.607  14.749
 7624SOL    HW124705   6.343   9.562  14.669
 7624SOL    HW224706   6.221   9.614  14.742
 7625SOL     OW24707   6.957  10.871   6.525
 7625SOL    HW124708   6.939  10.860   6.432
 7625SOL    HW224709   6.885  10.926   6.557
 7626SOL     OW24710   9.779  11.895   8.382
 7626SOL    HW124711   9.704  11.884   8.440
 7626SOL    HW224712   9.756  11.972   8.328
 7627SOL     OW24713   1.189   3.966  10.452
 7627SOL    HW124714   1.110   3.987  10.501
 7627SOL    HW224715   1.257   4.021  10.490
 7628SOL     OW24716   9.683   0.184   6.460
 7628SOL    HW124717   9.698   0.120   6.390
 7628SOL    HW224718   9.589   0.202   6.457
 7629SOL     OW24719  11.018   2.475   5.625
 7629SOL    HW124720  11.095   2.442   5.671
 7629SOL    HW224721  10.975   2.532   5.689
 7630SOL     OW24722  13.268   0.792   2.937
 7630SOL    HW124723  13.230   0.745   3.011
 7630SOL    HW224724  13.357   0.758   2.930
 7631SOL     OW24725   7.663   8.805   5.812
 7631SOL    HW124726   7.733   8.797   5.748
 7631SOL    HW224727   7.634   8.716   5.828
 7632SOL     OW24728  13.219   8.559   4.888
 7632SOL    HW124729  13.260   8.472   4.885
 7632SOL    HW224730  13.133   8.543   4.926
 7633SOL     OW24731  14.279  14.803   4.159
 7633SOL    HW124732  14.208  14.868   4.164
 7633SOL    HW224733  14.357  14.851   4.189
 7634SOL     OW24734  14.269   1.541   7.325
 7634SOL    HW124735  14.267   1.620   7.272
 7634SOL    HW224736  14.347   1.494   7.295
 7635SOL     OW24737  11.904   5.926   9.158
 7635SOL    HW124738  11.867   5.950   9.073
 7635SOL    HW224739  11.829   5.928   9.218
 7636SOL     OW24740  11.312  11.395   0.248
 7636SOL    HW124741  11.307  11.322   0.186
 7636SOL    HW224742  11.222  11.411   0.273
 7637SOL     OW24743  14.079  12.722   9.023
 7637SOL    HW124744  14.168  12.714   9.058
 7637SOL    HW224745  14.035  12.642   9.051
 7638SOL     OW24746   0.973   5.567  13.439
 7638SOL    HW124747   0.918   5.494  13.410
 7638SOL    HW224748   1.024   5.591  13.362
 7639SOL     OW24749   6.890  12.946   2.780
 7639SOL    HW124750   6.957  12.979   2.839
 7639SOL    HW224751   6.820  12.915   2.838
 7640SOL     OW24752  10.473   2.676  14.343
 7640SOL    HW124753  10.556   2.639  14.373
 7640SOL    HW224754  10.446   2.735  14.413
 7641SOL     OW24755  10.851   2.740  10.099
 7641SOL    HW124756  10.919   2.675  10.115
 7641SOL    HW224757  10.836   2.735  10.004
 7642SOL     OW24758   7.491  12.948   3.546
 7642SOL    HW124759   7.533  12.867   3.518
 7642SOL    HW224760   7.495  13.005   3.469
 7643SOL     OW24761   0.076  13.640   8.296
 7643SOL    HW124762   0.151  13.601   8.341
 7643SOL    HW224763   0.114  13.707   8.238
 7644SOL     OW24764   3.696   0.347   8.841
 7644SOL    HW124765   3.721   0.325   8.931
 7644SOL    HW224766   3.623   0.288   8.821
 7645SOL     OW24767  11.211   9.362   1.968
 7645SOL    HW124768  11.268   9.418   2.020
 7645SOL    HW224769  11.122   9.382   1.998
 7646SOL     OW24770   4.947  11.756   4.785
 7646SOL    HW124771   4.925  11.739   4.876
 7646SOL    HW224772   4.989  11.675   4.755
 7647SOL     OW24773   0.804   9.795   1.672
 7647SOL    HW124774   0.761   9.714   1.649
 7647SOL    HW224775   0.733   9.856   1.692
 7648SOL     OW24776   1.592  14.223   6.457
 7648SOL    HW124777   1.597  14.145   6.402
 7648SOL    HW224778   1.540  14.196   6.533
 7649SOL     OW24779   1.803   1.646   7.572
 7649SOL    HW124780   1.717   1.666   7.534
 7649SOL    HW224781   1.816   1.712   7.640
 7650SOL     OW24782  11.687  12.784   8.439
 7650SOL    HW124783  11.718  12.802   8.528
 7650SOL    HW224784  11.694  12.868   8.394
 7651SOL     OW24785  13.654   2.519   6.311
 7651SOL    HW124786  13.737   2.537   6.355
 7651SOL    HW224787  13.660   2.427   6.285
 7652SOL     OW24788  13.050   4.018   2.278
 7652SOL    HW124789  13.050   4.041   2.185
 7652SOL    HW224790  12.960   3.992   2.296
 7653SOL     OW24791   3.427   0.215  12.964
 7653SOL    HW124792   3.482   0.269  13.021
 7653SOL    HW224793   3.436   0.255  12.877
 7654SOL     OW24794   5.309  13.669   3.690
 7654SOL    HW124795   5.398  13.645   3.715
 7654SOL    HW224796   5.297  13.758   3.723
 7655SOL     OW24797  13.572   8.128   7.969
 7655SOL    HW124798  13.504   8.081   8.016
 7655SOL    HW224799  13.525   8.198   7.922
 7656SOL     OW24800   0.272   7.681  11.136
 7656SOL    HW124801   0.194   7.728  11.106
 7656SOL    HW224802   0.267   7.686  11.232
 7657SOL     OW24803   3.099   9.599   0.760
 7657SOL    HW124804   3.058   9.631   0.840
 7657SOL    HW224805   3.065   9.511   0.749
 7658SOL     OW24806   7.941   2.166  13.078
 7658SOL    HW124807   8.027   2.188  13.113
 7658SOL    HW224808   7.881   2.230  13.118
 7659SOL     OW24809  12.270   4.907  13.787
 7659SOL    HW124810  12.324   4.974  13.745
 7659SOL    HW224811  12.182   4.923  13.753
 7660SOL     OW24812   6.864   2.596   0.769
 7660SOL    HW124813   6.959   2.597   0.770
 7660SOL    HW224814   6.841   2.503   0.767
 7661SOL     OW24815  13.854  10.882   3.416
 7661SOL    HW124816  13.829  10.832   3.338
 7661SOL    HW224817  13.929  10.835   3.452
 7662SOL     OW24818   5.949   1.471   6.044
 7662SOL    HW124819   5.955   1.522   5.963
 7662SOL    HW224820   5.881   1.514   6.095
 7663SOL     OW24821   0.544   3.779   3.559
 7663SOL    HW124822   0.601   3.842   3.514
 7663SOL    HW224823   0.603   3.733   3.618
 7664SOL     OW24824  14.440   1.311  13.452
 7664SOL    HW124825  14.491   1.230  13.452
 7664SOL    HW224826  14.461   1.354  13.534
 7665SOL     OW24827   4.364   7.277  13.652
 7665SOL    HW124828   4.281   7.315  13.624
 7665SOL    HW224829   4.344   7.185  13.670
 7666SOL     OW24830  11.400   0.359  10.925
 7666SOL    HW124831  11.460   0.292  10.958
 7666SOL    HW224832  11.445   0.396  10.849
 7667SOL     OW24833   3.743   8.387   8.660
 7667SOL    HW124834   3.825   8.342   8.641
 7667SOL    HW224835   3.693   8.324   8.713
 7668SOL     OW24836   0.223   8.814  10.591
 7668SOL    HW124837   0.286   8.798  10.520
 7668SOL    HW224838   0.202   8.727  10.624
 7669SOL     OW24839  10.516   4.826  13.681
 7669SOL    HW124840  10.477   4.858  13.762
 7669SOL    HW224841  10.549   4.905  13.638
 7670SOL     OW24842   5.853   9.792  10.841
 7670SOL    HW124843   5.779   9.734  10.856
 7670SOL    HW224844   5.819   9.880  10.856
 7671SOL     OW24845   4.188   3.959  13.738
 7671SOL    HW124846   4.176   3.865  13.749
 7671SOL    HW224847   4.203   3.993  13.826
 7672SOL     OW24848  10.525   4.940  12.288
 7672SOL    HW124849  10.462   5.005  12.257
 7672SOL    HW224850  10.578   4.918  12.211
 7673SOL     OW24851   4.351   4.103   9.631
 7673SOL    HW124852   4.312   4.180   9.673
 7673SOL    HW224853   4.292   4.084   9.558
 7674SOL     OW24854   2.357  14.692   6.389
 7674SOL    HW124855   2.318  14.723   6.308
 7674SOL    HW224856   2.396  14.607   6.366
 7675SOL     OW24857   8.997   6.305   3.467
 7675SOL    HW124858   9.080   6.318   3.512
 7675SOL    HW224859   8.983   6.210   3.468
 7676SOL     OW24860   6.541  13.499   0.107
 7676SOL    HW124861   6.464  13.507   0.162
 7676SOL    HW224862   6.542  13.407   0.080
 7677SOL     OW24863   2.540   3.219   2.192
 7677SOL    HW124864   2.519   3.217   2.286
 7677SOL    HW224865   2.621   3.169   2.185
 7678SOL     OW24866  11.859  11.550  13.924
 7678SOL    HW124867  11.820  11.583  13.844
 7678SOL    HW224868  11.951  11.535  13.902
 7679SOL     OW24869   5.530  12.827   6.030
 7679SOL    HW124870   5.437  12.835   6.010
 7679SOL    HW224871   5.533  12.796   6.120
 7680SOL     OW24872   5.573   1.055  12.258
 7680SOL    HW124873   5.622   1.136  12.272
 7680SOL    HW224874   5.517   1.048  12.336
 7681SOL     OW24875  14.489   1.126  10.023
 7681SOL    HW124876  14.464   1.042  10.061
 7681SOL    HW224877  14.470   1.190  10.092
 7682SOL     OW24878  13.802   4.236   5.655
 7682SOL    HW124879  13.769   4.280   5.733
 7682SOL    HW224880  13.869   4.295   5.620
 7683SOL     OW24881   9.049   8.803   3.316
 7683SOL    HW124882   9.085   8.796   3.227
 7683SOL    HW224883   9.118   8.767   3.372
 7684SOL     OW24884   9.339  11.574  12.818
 7684SOL    HW124885   9.297  11.652  12.780
 7684SOL    HW224886   9.267  11.512  12.827
 7685SOL     OW24887   3.311   7.611  11.142
 7685SOL    HW124888   3.267   7.696  11.150
 7685SOL    HW224889   3.264   7.566  11.072
 7686SOL     OW24890   1.531  12.448   1.345
 7686SOL    HW124891   1.619  12.449   1.307
 7686SOL    HW224892   1.541  12.492   1.429
 7687SOL     OW24893   4.611  12.575   2.774
 7687SOL    HW124894   4.537  12.529   2.812
 7687SOL    HW224895   4.572  12.635   2.710
 7688SOL     OW24896  11.941   0.847   6.789
 7688SOL    HW124897  11.860   0.801   6.811
 7688SOL    HW224898  11.973   0.880   6.873
 7689SOL     OW24899  12.442   0.528  13.818
 7689SOL    HW124900  12.393   0.499  13.894
 7689SOL    HW224901  12.526   0.481  13.824
 7690SOL     OW24902   2.149   0.530   7.096
 7690SOL    HW124903   2.120   0.522   7.005
 7690SOL    HW224904   2.166   0.441   7.123
 7691SOL     OW24905   9.228  11.813   2.082
 7691SOL    HW124906   9.292  11.800   2.152
 7691SOL    HW224907   9.264  11.886   2.031
 7692SOL     OW24908  10.973   4.925   1.316
 7692SOL    HW124909  11.007   4.914   1.227
 7692SOL    HW224910  10.935   4.840   1.339
 7693SOL     OW24911   6.667  10.689  14.798
 7693SOL    HW124912   6.658  10.671  14.705
 7693SOL    HW224913   6.650  10.782  14.807
 7694SOL     OW24914   1.589   3.251   2.242
 7694SOL    HW124915   1.513   3.285   2.194
 7694SOL    HW224916   1.592   3.304   2.322
 7695SOL     OW24917  10.599   7.917   8.024
 7695SOL    HW124918  10.584   7.892   7.933
 7695SOL    HW224919  10.577   8.011   8.026
 7696SOL     OW24920   7.502   7.131  12.783
 7696SOL    HW124921   7.572   7.131  12.717
 7696SOL    HW224922   7.547   7.112  12.865
 7697SOL     OW24923   2.347   3.717   6.541
 7697SOL    HW124924   2.283   3.656   6.504
 7697SOL    HW224925   2.296   3.772   6.600
 7698SOL     OW24926   9.289   6.810   3.747
 7698SOL    HW124927   9.254   6.867   3.816
 7698SOL    HW224928   9.217   6.802   3.685
 7699SOL     OW24929   5.430  13.488  13.701
 7699SOL    HW124930   5.486  13.463  13.775
 7699SOL    HW224931   5.449  13.581  13.687
 7700SOL     OW24932  12.927   9.650   3.481
 7700SOL    HW124933  12.960   9.681   3.396
 7700SOL    HW224934  12.929   9.727   3.537
 7701SOL     OW24935   3.938   2.919   4.017
 7701SOL    HW124936   3.896   2.998   3.983
 7701SOL    HW224937   3.995   2.890   3.946
 7702SOL     OW24938   7.208   4.867   0.546
 7702SOL    HW124939   7.197   4.944   0.602
 7702SOL    HW224940   7.238   4.798   0.604
 7703SOL     OW24941  14.821   6.455  11.230
 7703SOL    HW124942  14.864   6.372  11.212
 7703SOL    HW224943   0.020   6.518  11.240
 7704SOL     OW24944   6.026   8.518   7.555
 7704SOL    HW124945   6.088   8.572   7.506
 7704SOL    HW224946   6.016   8.564   7.639
 7705SOL     OW24947   0.602   6.542   4.946
 7705SOL    HW124948   0.528   6.518   5.002
 7705SOL    HW224949   0.659   6.465   4.946
 7706SOL     OW24950   6.355  11.243  11.780
 7706SOL    HW124951   6.396  11.291  11.708
 7706SOL    HW224952   6.360  11.151  11.755
 7707SOL     OW24953   1.650   5.638   5.717
 7707SOL    HW124954   1.607   5.683   5.789
 7707SOL    HW224955   1.724   5.694   5.693
 7708SOL     OW24956  11.192   6.248  10.797
 7708SOL    HW124957  11.254   6.275  10.729
 7708SOL    HW224958  11.217   6.158  10.818
 7709SOL     OW24959   8.403   9.274  10.466
 7709SOL    HW124960   8.435   9.341  10.527
 7709SOL    HW224961   8.379   9.323  10.388
 7710SOL     OW24962   3.655   1.259   4.902
 7710SOL    HW124963   3.731   1.224   4.947
 7710SOL    HW224964   3.679   1.348   4.880
 7711SOL     OW24965   6.768  11.397   8.598
 7711SOL    HW124966   6.691  11.422   8.546
 7711SOL    HW224967   6.739  11.319   8.647
 7712SOL     OW24968   9.498   7.604   6.475
 7712SOL    HW124969   9.591   7.615   6.455
 7712SOL    HW224970   9.487   7.644   6.562
 7713SOL     OW24971  10.891   8.217   9.107
 7713SOL    HW124972  10.973   8.253   9.141
 7713SOL    HW224973  10.823   8.270   9.148
 7714SOL     OW24974  13.656   4.951   7.006
 7714SOL    HW124975  13.610   5.021   6.960
 7714SOL    HW224976  13.738   4.941   6.959
 7715SOL     OW24977   2.582   2.515   5.040
 7715SOL    HW124978   2.570   2.448   4.973
 7715SOL    HW224979   2.646   2.477   5.101
 7716SOL     OW24980   1.991   0.223  11.166
 7716SOL    HW124981   2.014   0.289  11.232
 7716SOL    HW224982   1.931   0.164  11.210
 7717SOL     OW24983  12.903   1.063   9.782
 7717SOL    HW124984  12.981   1.008   9.787
 7717SOL    HW224985  12.835   1.012   9.827
 7718SOL     OW24986   6.686   3.293  10.186
 7718SOL    HW124987   6.592   3.274  10.177
 7718SOL    HW224988   6.711   3.327  10.100
 7719SOL     OW24989   8.038  11.259  14.808
 7719SOL    HW124990   7.948  11.233  14.830
 7719SOL    HW224991   8.027  11.343  14.762
 7720SOL     OW24992  11.707   0.445   1.942
 7720SOL    HW124993  11.749   0.489   1.868
 7720SOL    HW224994  11.617   0.431   1.913
 7721SOL     OW24995  13.210   5.632   6.824
 7721SOL    HW124996  13.216   5.617   6.918
 7721SOL    HW224997  13.260   5.712   6.809
 7722SOL     OW24998   5.520   4.842   5.238
 7722SOL    HW124999   5.442   4.836   5.293
 7722SOL    HW225000   5.516   4.931   5.201
 7723SOL     OW25001   4.115   8.840   9.470
 7723SOL    HW125002   4.083   8.929   9.487
 7723SOL    HW225003   4.184   8.852   9.404
 7724SOL     OW25004  13.432   3.990   1.978
 7724SOL    HW125005  13.477   3.947   1.906
 7724SOL    HW225006  13.381   4.060   1.937
 7725SOL     OW25007   5.504  13.623   9.969
 7725SOL    HW125008   5.463  13.541   9.941
 7725SOL    HW225009   5.435  13.689   9.957
 7726SOL     OW25010   9.320  11.031   7.488
 7726SOL    HW125011   9.341  11.113   7.534
 7726SOL    HW225012   9.367  11.037   7.405
 7727SOL     OW25013   2.726   1.649   6.715
 7727SOL    HW125014   2.817   1.670   6.733
 7727SOL    HW225015   2.727   1.613   6.626
 7728SOL     OW25016  13.476   3.788   7.630
 7728SOL    HW125017  13.552   3.845   7.640
 7728SOL    HW225018  13.512   3.699   7.638
 7729SOL     OW25019   5.607   4.078   5.872
 7729SOL    HW125020   5.517   4.051   5.891
 7729SOL    HW225021   5.634   4.126   5.950
 7730SOL     OW25022   4.724   3.862   8.012
 7730SOL    HW125023   4.750   3.952   8.032
 7730SOL    HW225024   4.668   3.870   7.935
 7731SOL     OW25025   1.637   7.695  14.262
 7731SOL    HW125026   1.678   7.609  14.270
 7731SOL    HW225027   1.702   7.749  14.216
 7732SOL     OW25028   8.478  10.307   1.443
 7732SOL    HW125029   8.522  10.236   1.396
 7732SOL    HW225030   8.500  10.386   1.394
 7733SOL     OW25031   6.372  14.143  11.929
 7733SOL    HW125032   6.304  14.211  11.930
 7733SOL    HW225033   6.358  14.098  11.845
 7734SOL     OW25034   0.079   3.879  12.306
 7734SOL    HW125035   0.128   3.940  12.251
 7734SOL    HW225036   0.067   3.802  12.252
 7735SOL     OW25037   4.060   1.276   4.037
 7735SOL    HW125038   4.149   1.277   4.002
 7735SOL    HW225039   4.033   1.368   4.036
 7736SOL     OW25040  10.650   0.682  12.445
 7736SOL    HW125041  10.587   0.744  12.483
 7736SOL    HW225042  10.667   0.716  12.357
 7737SOL     OW25043  14.091  12.648   3.953
 7737SOL    HW125044  14.056  12.664   4.041
 7737SOL    HW225045  14.067  12.726   3.903
 7738SOL     OW25046   3.550   6.010  10.646
 7738SOL    HW125047   3.574   6.080  10.584
 7738SOL    HW225048   3.555   5.930  10.594
 7739SOL     OW25049   3.102   7.280   1.439
 7739SOL    HW125050   3.007   7.294   1.441
 7739SOL    HW225051   3.133   7.317   1.522
 7740SOL     OW25052   8.893  13.454   0.200
 7740SOL    HW125053   8.987  13.442   0.189
 7740SOL    HW225054   8.880  13.549   0.192
 7741SOL     OW25055  14.264   3.732   1.015
 7741SOL    HW125056  14.205   3.750   0.943
 7741SOL    HW225057  14.219   3.767   1.092
 7742SOL     OW25058  10.678   8.331  10.416
 7742SOL    HW125059  10.686   8.426  10.421
 7742SOL    HW225060  10.688   8.301  10.506
 7743SOL     OW25061  10.314   2.181   2.956
 7743SOL    HW125062  10.286   2.114   2.894
 7743SOL    HW225063  10.375   2.136   3.015
 7744SOL     OW25064   7.427  10.709  11.788
 7744SOL    HW125065   7.368  10.640  11.758
 7744SOL    HW225066   7.514  10.680  11.759
 7745SOL     OW25067   3.934   2.809  13.934
 7745SOL    HW125068   3.937   2.828  13.841
 7745SOL    HW225069   4.021   2.833  13.967
 7746SOL     OW25070   0.470   2.709   6.574
 7746SOL    HW125071   0.467   2.735   6.666
 7746SOL    HW225072   0.564   2.709   6.552
 7747SOL     OW25073  13.841   9.221  10.303
 7747SOL    HW125074  13.892   9.239  10.225
 7747SOL    HW225075  13.751   9.246  10.280
 7748SOL     OW25076   1.014  12.064  12.862
 7748SOL    HW125077   0.991  12.108  12.943
 7748SOL    HW225078   1.048  12.134  12.805
 7749SOL     OW25079   8.267  10.917   9.611
 7749SOL    HW125080   8.229  10.861   9.543
 7749SOL    HW225081   8.253  10.868   9.693
 7750SOL     OW25082   8.182   4.115   7.429
 7750SOL    HW125083   8.171   4.035   7.379
 7750SOL    HW225084   8.266   4.151   7.399
 7751SOL     OW25085   0.027   6.179   1.879
 7751SOL    HW125086   0.013   6.260   1.830
 7751SOL    HW225087   0.122   6.174   1.891
 7752SOL     OW25088   0.706   2.231   6.162
 7752SOL    HW125089   0.720   2.206   6.071
 7752SOL    HW225090   0.612   2.220   6.175
 7753SOL     OW25091  10.420   4.461   6.507
 7753SOL    HW125092  10.381   4.425   6.427
 7753SOL    HW225093  10.373   4.543   6.522
 7754SOL     OW25094   5.032  11.625   7.468
 7754SOL    HW125095   5.041  11.540   7.425
 7754SOL    HW225096   5.037  11.689   7.396
 7755SOL     OW25097  13.134   9.279   9.187
 7755SOL    HW125098  13.082   9.240   9.117
 7755SOL    HW225099  13.215   9.309   9.143
 7756SOL     OW25100  13.287  10.017   6.003
 7756SOL    HW125101  13.350  10.078   5.964
 7756SOL    HW225102  13.340   9.948   6.042
 7757SOL     OW25103  10.153  14.184   7.641
 7757SOL    HW125104  10.152  14.279   7.655
 7757SOL    HW225105  10.201  14.172   7.559
 7758SOL     OW25106   2.643  11.365  10.015
 7758SOL    HW125107   2.714  11.354   9.952
 7758SOL    HW225108   2.587  11.288  10.001
 7759SOL     OW25109   8.252   4.367   4.388
 7759SOL    HW125110   8.196   4.372   4.310
 7759SOL    HW225111   8.194   4.339   4.458
 7760SOL     OW25112  14.831   6.649   7.001
 7760SOL    HW125113  14.852   6.556   6.990
 7760SOL    HW225114  14.736   6.653   6.990
 7761SOL     OW25115  12.813  14.337   5.728
 7761SOL    HW125116  12.829  14.399   5.657
 7761SOL    HW225117  12.748  14.381   5.783
 7762SOL     OW25118   6.726  12.075   4.429
 7762SOL    HW125119   6.638  12.105   4.452
 7762SOL    HW225120   6.727  12.074   4.334
 7763SOL     OW25121   0.237   4.458   3.440
 7763SOL    HW125122   0.177   4.532   3.449
 7763SOL    HW225123   0.295   4.483   3.367
 7764SOL     OW25124   2.914   3.734   8.530
 7764SOL    HW125125   2.902   3.774   8.616
 7764SOL    HW225126   2.884   3.643   8.542
 7765SOL     OW25127  10.908   3.196  11.593
 7765SOL    HW125128  10.889   3.104  11.576
 7765SOL    HW225129  10.825   3.233  11.622
 7766SOL     OW25130  14.337  11.811  14.602
 7766SOL    HW125131  14.325  11.835  14.694
 7766SOL    HW225132  14.417  11.857  14.576
 7767SOL     OW25133   4.787   5.578   7.779
 7767SOL    HW125134   4.700   5.559   7.813
 7767SOL    HW225135   4.790   5.533   7.695
 7768SOL     OW25136   5.135  13.700   8.864
 7768SOL    HW125137   5.107  13.661   8.947
 7768SOL    HW225138   5.155  13.625   8.808
 7769SOL     OW25139  14.593   3.266   2.146
 7769SOL    HW125140  14.540   3.292   2.071
 7769SOL    HW225141  14.669   3.324   2.143
 7770SOL     OW25142   1.268  11.260   9.831
 7770SOL    HW125143   1.351  11.251   9.785
 7770SOL    HW225144   1.292  11.278   9.922
 7771SOL     OW25145   4.632   1.388   7.330
 7771SOL    HW125146   4.541   1.361   7.335
 7771SOL    HW225147   4.630   1.483   7.339
 7772SOL     OW25148   0.586   3.124   5.569
 7772SOL    HW125149   0.534   3.120   5.489
 7772SOL    HW225150   0.588   3.034   5.601
 7773SOL     OW25151   2.855  12.244   8.936
 7773SOL    HW125152   2.876  12.200   8.854
 7773SOL    HW225153   2.790  12.310   8.911
 7774SOL     OW25154   7.148   6.640   7.235
 7774SOL    HW125155   7.206   6.565   7.219
 7774SOL    HW225156   7.060   6.605   7.224
 7775SOL     OW25157   6.281  13.933   5.521
 7775SOL    HW125158   6.374  13.908   5.521
 7775SOL    HW225159   6.243  13.884   5.594
 7776SOL     OW25160   9.187  13.536   2.999
 7776SOL    HW125161   9.224  13.459   3.043
 7776SOL    HW225162   9.253  13.605   3.014
 7777SOL     OW25163   8.471   9.382   0.567
 7777SOL    HW125164   8.485   9.318   0.496
 7777SOL    HW225165   8.544   9.367   0.627
 7778SOL     OW25166   7.411   7.990   3.604
 7778SOL    HW125167   7.470   7.915   3.592
 7778SOL    HW225168   7.469   8.064   3.619
 7779SOL     OW25169  10.176   2.570   5.312
 7779SOL    HW125170  10.144   2.514   5.241
 7779SOL    HW225171  10.267   2.588   5.290
 7780SOL     OW25172   6.020  10.094   4.675
 7780SOL    HW125173   5.989  10.007   4.650
 7780SOL    HW225174   5.941  10.148   4.676
 7781SOL     OW25175   4.857  11.624   2.200
 7781SOL    HW125176   4.809  11.666   2.272
 7781SOL    HW225177   4.835  11.676   2.123
 7782SOL     OW25178   6.510  13.969   6.978
 7782SOL    HW125179   6.464  13.990   7.059
 7782SOL    HW225180   6.494  14.045   6.921
 7783SOL     OW25181  12.914   1.488   4.847
 7783SOL    HW125182  12.981   1.486   4.779
 7783SOL    HW225183  12.963   1.498   4.929
 7784SOL     OW25184   5.214   3.936  12.008
 7784SOL    HW125185   5.296   3.896  12.037
 7784SOL    HW225186   5.156   3.861  11.991
 7785SOL     OW25187   8.068   2.395   6.961
 7785SOL    HW125188   7.982   2.361   6.988
 7785SOL    HW225189   8.110   2.419   7.043
 7786SOL     OW25190   6.978  10.096   4.506
 7786SOL    HW125191   7.040  10.102   4.434
 7786SOL    HW225192   7.010  10.022   4.558
 7787SOL     OW25193   3.430   5.228   8.356
 7787SOL    HW125194   3.384   5.298   8.402
 7787SOL    HW225195   3.470   5.175   8.425
 7788SOL     OW25196   2.305  13.508   8.037
 7788SOL    HW125197   2.308  13.488   7.943
 7788SOL    HW225198   2.297  13.603   8.041
 7789SOL     OW25199   1.653  14.438   7.564
 7789SOL    HW125200   1.702  14.413   7.485
 7789SOL    HW225201   1.624  14.528   7.546
 7790SOL     OW25202   8.038   9.217  13.406
 7790SOL    HW125203   8.093   9.244  13.480
 7790SOL    HW225204   8.027   9.297  13.354
 7791SOL     OW25205   5.986  10.356   7.234
 7791SOL    HW125206   5.977  10.283   7.173
 7791SOL    HW225207   5.960  10.433   7.184
 7792SOL     OW25208   3.136   1.581  10.324
 7792SOL    HW125209   3.107   1.512  10.264
 7792SOL    HW225210   3.151   1.657  10.268
 7793SOL     OW25211   8.023   4.228   7.234
 7793SOL    HW125212   8.074   4.186   7.303
 7793SOL    HW225213   8.007   4.160   7.169
 7794SOL     OW25214   6.582   0.884   2.904
 7794SOL    HW125215   6.533   0.836   2.838
 7794SOL    HW225216   6.574   0.976   2.878
 7795SOL     OW25217   1.259   1.231   9.317
 7795SOL    HW125218   1.304   1.278   9.387
 7795SOL    HW225219   1.266   1.139   9.342
 7796SOL     OW25220   8.726   5.699   3.854
 7796SOL    HW125221   8.673   5.626   3.823
 7796SOL    HW225222   8.813   5.683   3.817
 7797SOL     OW25223   2.713   5.132   6.806
 7797SOL    HW125224   2.789   5.175   6.767
 7797SOL    HW225225   2.735   5.124   6.899
 7798SOL     OW25226   6.053   0.882   4.178
 7798SOL    HW125227   6.095   0.924   4.253
 7798SOL    HW225228   6.035   0.793   4.207
 7799SOL     OW25229  10.674   1.664  11.898
 7799SOL    HW125230  10.654   1.751  11.863
 7799SOL    HW225231  10.638   1.665  11.987
 7800SOL     OW25232   6.802   2.903   1.568
 7800SOL    HW125233   6.724   2.848   1.564
 7800SOL    HW225234   6.836   2.891   1.657
 7801SOL     OW25235   9.647   2.228   7.274
 7801SOL    HW125236   9.687   2.304   7.232
 7801SOL    HW225237   9.714   2.198   7.336
 7802SOL     OW25238   1.707   7.880   4.332
 7802SOL    HW125239   1.718   7.881   4.237
 7802SOL    HW225240   1.720   7.971   4.358
 7803SOL     OW25241   5.031   0.773  12.071
 7803SOL    HW125242   4.975   0.703  12.103
 7803SOL    HW225243   4.976   0.851  12.072
 7804SOL     OW25244   4.689   5.645   0.511
 7804SOL    HW125245   4.647   5.687   0.436
 7804SOL    HW225246   4.641   5.679   0.587
 7805SOL     OW25247   7.046   5.858   6.997
 7805SOL    HW125248   7.092   5.941   6.991
 7805SOL    HW225249   7.024   5.849   7.089
 7806SOL     OW25250  13.843  10.248   1.385
 7806SOL    HW125251  13.831  10.272   1.293
 7806SOL    HW225252  13.841  10.153   1.386
 7807SOL     OW25253   2.005  10.010   6.652
 7807SOL    HW125254   2.003   9.977   6.563
 7807SOL    HW225255   2.050  10.094   6.646
 7808SOL     OW25256  13.350   8.336  13.620
 7808SOL    HW125257  13.426   8.329  13.563
 7808SOL    HW225258  13.302   8.412  13.587
 7809SOL     OW25259  13.724   1.034   8.153
 7809SOL    HW125260  13.686   0.972   8.215
 7809SOL    HW225261  13.769   1.098   8.208
 7810SOL     OW25262   9.117   8.365   7.475
 7810SOL    HW125263   9.139   8.418   7.398
 7810SOL    HW225264   9.132   8.423   7.549
 7811SOL     OW25265   7.881   9.783   2.874
 7811SOL    HW125266   7.793   9.819   2.860
 7811SOL    HW225267   7.940   9.856   2.854
 7812SOL     OW25268   9.214  10.751  11.359
 7812SOL    HW125269   9.215  10.806  11.438
 7812SOL    HW225270   9.275  10.680  11.379
 7813SOL     OW25271   3.291   8.638   5.440
 7813SOL    HW125272   3.278   8.701   5.511
 7813SOL    HW225273   3.224   8.572   5.453
 7814SOL     OW25274   2.230  11.317  10.408
 7814SOL    HW125275   2.225  11.226  10.379
 7814SOL    HW225276   2.141  11.340  10.432
 7815SOL     OW25277   8.411   9.031   4.515
 7815SOL    HW125278   8.405   8.957   4.454
 7815SOL    HW225279   8.347   9.094   4.484
 7816SOL     OW25280  13.349   9.310  10.055
 7816SOL    HW125281  13.285   9.249  10.017
 7816SOL    HW225282  13.297   9.384  10.085
 7817SOL     OW25283   0.713  11.042   8.928
 7817SOL    HW125284   0.751  10.972   8.981
 7817SOL    HW225285   0.706  11.117   8.988
 7818SOL     OW25286   3.536   3.029   9.261
 7818SOL    HW125287   3.459   3.078   9.231
 7818SOL    HW225288   3.603   3.097   9.275
 7819SOL     OW25289  13.911   0.185   4.679
 7819SOL    HW125290  13.937   0.141   4.598
 7819SOL    HW225291  13.819   0.164   4.690
 7820SOL     OW25292   0.754  13.244   9.331
 7820SOL    HW125293   0.832  13.261   9.278
 7820SOL    HW225294   0.779  13.268   9.420
 7821SOL     OW25295  10.174   9.795  12.376
 7821SOL    HW125296  10.191   9.701  12.385
 7821SOL    HW225297  10.082   9.805  12.401
 7822SOL     OW25298  12.805   3.509   6.859
 7822SOL    HW125299  12.791   3.425   6.902
 7822SOL    HW225300  12.897   3.507   6.832
 7823SOL     OW25301   1.765   3.668  11.727
 7823SOL    HW125302   1.685   3.718  11.747
 7823SOL    HW225303   1.815   3.669  11.808
 7824SOL     OW25304   0.485   3.437  14.653
 7824SOL    HW125305   0.479   3.424  14.558
 7824SOL    HW225306   0.567   3.483  14.667
 7825SOL     OW25307  10.377   6.655   6.388
 7825SOL    HW125308  10.391   6.628   6.479
 7825SOL    HW225309  10.358   6.748   6.394
 7826SOL     OW25310   9.886   2.319   6.942
 7826SOL    HW125311   9.932   2.275   6.870
 7826SOL    HW225312   9.842   2.393   6.900
 7827SOL     OW25313   4.285   5.620   7.092
 7827SOL    HW125314   4.277   5.546   7.032
 7827SOL    HW225315   4.238   5.593   7.171
 7828SOL     OW25316   7.422   6.677  11.199
 7828SOL    HW125317   7.490   6.659  11.264
 7828SOL    HW225318   7.397   6.591  11.165
 7829SOL     OW25319   5.078  11.635   0.387
 7829SOL    HW125320   5.172  11.619   0.377
 7829SOL    HW225321   5.059  11.705   0.324
 7830SOL     OW25322   6.249   5.661   2.699
 7830SOL    HW125323   6.162   5.663   2.659
 7830SOL    HW225324   6.290   5.743   2.672
 7831SOL     OW25325   3.581   2.699  14.529
 7831SOL    HW125326   3.663   2.738  14.499
 7831SOL    HW225327   3.608   2.621  14.578
 7832SOL     OW25328   1.243  10.290   7.929
 7832SOL    HW125329   1.228  10.281   8.024
 7832SOL    HW225330   1.160  10.324   7.895
 7833SOL     OW25331  14.776  13.905   2.084
 7833SOL    HW125332  14.707  13.877   2.024
 7833SOL    HW225333  14.854  13.856   2.057
 7834SOL     OW25334   3.428   5.740  12.764
 7834SOL    HW125335   3.487   5.670  12.737
 7834SOL    HW225336   3.451   5.757  12.855
 7835SOL     OW25337   2.056  12.487  11.103
 7835SOL    HW125338   2.065  12.439  11.186
 7835SOL    HW225339   1.990  12.553  11.121
 7836SOL     OW25340   8.020  10.104   4.655
 7836SOL    HW125341   8.036  10.012   4.676
 7836SOL    HW225342   8.100  10.133   4.611
 7837SOL     OW25343  12.142   7.211   7.547
 7837SOL    HW125344  12.202   7.252   7.484
 7837SOL    HW225345  12.099   7.285   7.590
 7838SOL     OW25346   4.492   6.038   4.530
 7838SOL    HW125347   4.463   5.979   4.600
 7838SOL    HW225348   4.480   6.126   4.566
 7839SOL     OW25349   4.717  12.438  11.011
 7839SOL    HW125350   4.812  12.425  11.007
 7839SOL    HW225351   4.700  12.505  10.945
 7840SOL     OW25352   1.257   8.108  13.588
 7840SOL    HW125353   1.193   8.176  13.568
 7840SOL    HW225354   1.234   8.035  13.530
 7841SOL     OW25355  14.097   5.275   9.961
 7841SOL    HW125356  14.034   5.237   9.900
 7841SOL    HW225357  14.056   5.357   9.989
 7842SOL     OW25358   7.036   3.128   7.488
 7842SOL    HW125359   6.950   3.121   7.530
 7842SOL    HW225360   7.035   3.061   7.419
 7843SOL     OW25361   7.779   5.257  10.926
 7843SOL    HW125362   7.854   5.315  10.937
 7843SOL    HW225363   7.705   5.307  10.959
 7844SOL     OW25364   9.045   0.531   6.903
 7844SOL    HW125365   8.998   0.530   6.986
 7844SOL    HW225366   9.049   0.439   6.876
 7845SOL     OW25367  14.364   7.910   4.667
 7845SOL    HW125368  14.364   7.934   4.760
 7845SOL    HW225369  14.402   7.822   4.664
 7846SOL     OW25370   7.911  14.586  14.543
 7846SOL    HW125371   7.854  14.509  14.550
 7846SOL    HW225372   7.970  14.565  14.470
 7847SOL     OW25373  11.957   0.119  12.804
 7847SOL    HW125374  11.864   0.107  12.826
 7847SOL    HW225375  11.956   0.162  12.718
 7848SOL     OW25376  13.048  12.152   8.141
 7848SOL    HW125377  13.115  12.211   8.106
 7848SOL    HW225378  13.034  12.088   8.071
 7849SOL     OW25379   7.964   4.036   7.044
 7849SOL    HW125380   8.024   3.979   6.994
 7849SOL    HW225381   7.890   3.979   7.064
 7850SOL     OW25382   4.699   4.268  11.668
 7850SOL    HW125383   4.694   4.240  11.759
 7850SOL    HW225384   4.614   4.243  11.630
 7851SOL     OW25385  13.025   8.546  10.665
 7851SOL    HW125386  12.970   8.563  10.741
 7851SOL    HW225387  12.998   8.611  10.600
 7852SOL     OW25388   2.265  13.834   4.201
 7852SOL    HW125389   2.216  13.860   4.122
 7852SOL    HW225390   2.197  13.810   4.264
 7853SOL     OW25391   2.177  12.106  14.363
 7853SOL    HW125392   2.189  12.147  14.278
 7853SOL    HW225393   2.084  12.082  14.365
 7854SOL     OW25394   4.570   9.614   7.937
 7854SOL    HW125395   4.586   9.636   8.028
 7854SOL    HW225396   4.558   9.519   7.937
 7855SOL     OW25397   3.153   5.692  10.507
 7855SOL    HW125398   3.163   5.697  10.412
 7855SOL    HW225399   3.062   5.717  10.522
 7856SOL     OW25400  13.203  10.398  13.314
 7856SOL    HW125401  13.111  10.419  13.329
 7856SOL    HW225402  13.229  10.347  13.390
 7857SOL     OW25403  13.937   2.358   6.563
 7857SOL    HW125404  13.907   2.449   6.565
 7857SOL    HW225405  13.998   2.354   6.490
 7858SOL     OW25406   5.840   8.322   1.653
 7858SOL    HW125407   5.826   8.382   1.579
 7858SOL    HW225408   5.775   8.252   1.640
 7859SOL     OW25409   3.018   8.601  10.991
 7859SOL    HW125410   2.996   8.584  11.082
 7859SOL    HW225411   3.031   8.514  10.953
 7860SOL     OW25412  10.848   0.495  10.042
 7860SOL    HW125413  10.764   0.534  10.068
 7860SOL    HW225414  10.824   0.434   9.972
 7861SOL     OW25415  14.723   8.331  10.000
 7861SOL    HW125416  14.665   8.282  10.058
 7861SOL    HW225417  14.744   8.411  10.048
 7862SOL     OW25418   2.723   3.775   0.676
 7862SOL    HW125419   2.629   3.786   0.664
 7862SOL    HW225420   2.732   3.693   0.725
 7863SOL     OW25421   5.586   7.120   6.518
 7863SOL    HW125422   5.626   7.099   6.434
 7863SOL    HW225423   5.547   7.038   6.547
 7864SOL     OW25424  13.739  11.071   2.369
 7864SOL    HW125425  13.815  11.013   2.364
 7864SOL    HW225426  13.667  11.018   2.334
 7865SOL     OW25427   2.282  12.192   1.664
 7865SOL    HW125428   2.258  12.221   1.576
 7865SOL    HW225429   2.202  12.202   1.715
 7866SOL     OW25430   3.089   4.928   7.598
 7866SOL    HW125431   3.020   4.977   7.554
 7866SOL    HW225432   3.052   4.905   7.684
 7867SOL     OW25433   8.509  11.374  12.217
 7867SOL    HW125434   8.438  11.318  12.185
 7867SOL    HW225435   8.483  11.397  12.307
 7868SOL     OW25436   7.125   0.522   6.953
 7868SOL    HW125437   7.213   0.487   6.942
 7868SOL    HW225438   7.136   0.598   7.009
 7869SOL     OW25439   7.024  10.379   6.686
 7869SOL    HW125440   6.984  10.463   6.668
 7869SOL    HW225441   7.000  10.360   6.777
 7870SOL     OW25442  12.742   3.538  10.407
 7870SOL    HW125443  12.738   3.459  10.461
 7870SOL    HW225444  12.835   3.554  10.395
 7871SOL     OW25445  12.644   7.852   4.412
 7871SOL    HW125446  12.714   7.789   4.396
 7871SOL    HW225447  12.566   7.811   4.377
 7872SOL     OW25448  12.167  14.674  13.429
 7872SOL    HW125449  12.189  14.635  13.514
 7872SOL    HW225450  12.164  14.599  13.369
 7873SOL     OW25451   3.981  14.738   7.571
 7873SOL    HW125452   3.906  14.722   7.629
 7873SOL    HW225453   4.056  14.743   7.630
 7874SOL     OW25454   2.335   4.777   3.984
 7874SOL    HW125455   2.335   4.807   4.075
 7874SOL    HW225456   2.248   4.738   3.972
 7875SOL     OW25457  11.782  11.878  12.070
 7875SOL    HW125458  11.850  11.817  12.100
 7875SOL    HW225459  11.701  11.840  12.103
 7876SOL     OW25460   7.296   0.998   2.786
 7876SOL    HW125461   7.255   1.070   2.835
 7876SOL    HW225462   7.364   1.041   2.734
 7877SOL     OW25463   2.052   3.917   0.261
 7877SOL    HW125464   2.031   3.941   0.171
 7877SOL    HW225465   2.061   4.001   0.306
 7878SOL     OW25466   9.603  11.743   4.358
 7878SOL    HW125467   9.586  11.706   4.272
 7878SOL    HW225468   9.630  11.668   4.411
 7879SOL     OW25469  13.137   6.636   9.881
 7879SOL    HW125470  13.181   6.671   9.959
 7879SOL    HW225471  13.128   6.543   9.899
 7880SOL     OW25472  10.523   6.673   0.708
 7880SOL    HW125473  10.494   6.640   0.793
 7880SOL    HW225474  10.591   6.611   0.680
 7881SOL     OW25475   3.471   4.263  11.182
 7881SOL    HW125476   3.493   4.253  11.090
 7881SOL    HW225477   3.450   4.356  11.193
 7882SOL     OW25478   0.682   9.036   8.322
 7882SOL    HW125479   0.690   8.944   8.345
 7882SOL    HW225480   0.598   9.063   8.360
 7883SOL     OW25481   0.034   8.910  11.535
 7883SOL    HW125482   0.100   8.857  11.491
 7883SOL    HW225483  14.872   8.852  11.603
 7884SOL     OW25484   4.422  11.939   2.663
 7884SOL    HW125485   4.391  11.858   2.702
 7884SOL    HW225486   4.517  11.934   2.669
 7885SOL     OW25487   3.029   7.997  10.157
 7885SOL    HW125488   3.109   8.045  10.178
 7885SOL    HW225489   2.976   8.059  10.107
 7886SOL     OW25490  11.674  10.649   6.831
 7886SOL    HW125491  11.762  10.625   6.804
 7886SOL    HW225492  11.661  10.736   6.794
 7887SOL     OW25493   2.788   7.868  14.624
 7887SOL    HW125494   2.769   7.890  14.715
 7887SOL    HW225495   2.714   7.902  14.575
 7888SOL     OW25496   8.758   1.066   9.535
 7888SOL    HW125497   8.670   1.103   9.527
 7888SOL    HW225498   8.816   1.136   9.504
 7889SOL     OW25499   0.498  11.127   7.695
 7889SOL    HW125500   0.437  11.155   7.763
 7889SOL    HW225501   0.580  11.113   7.741
 7890SOL     OW25502  12.410  10.875   7.620
 7890SOL    HW125503  12.482  10.933   7.594
 7890SOL    HW225504  12.335  10.907   7.571
 7891SOL     OW25505   1.861  13.347   9.783
 7891SOL    HW125506   1.834  13.303   9.863
 7891SOL    HW225507   1.835  13.438   9.796
 7892SOL     OW25508   3.679  14.224  13.653
 7892SOL    HW125509   3.628  14.198  13.576
 7892SOL    HW225510   3.770  14.208  13.628
 7893SOL     OW25511   5.184   7.871   4.796
 7893SOL    HW125512   5.178   7.840   4.706
 7893SOL    HW225513   5.179   7.792   4.850
 7894SOL     OW25514   3.707   1.240  14.051
 7894SOL    HW125515   3.725   1.278  14.137
 7894SOL    HW225516   3.672   1.153  14.070
 7895SOL     OW25517  12.842   6.478   2.660
 7895SOL    HW125518  12.786   6.484   2.582
 7895SOL    HW225519  12.793   6.524   2.728
 7896SOL     OW25520  10.543   7.112   9.662
 7896SOL    HW125521  10.602   7.067   9.601
 7896SOL    HW225522  10.601   7.163   9.718
 7897SOL     OW25523  10.001   2.561  13.324
 7897SOL    HW125524   9.934   2.625  13.300
 7897SOL    HW225525  10.006   2.566  13.420
 7898SOL     OW25526   5.372   3.428   5.271
 7898SOL    HW125527   5.309   3.484   5.225
 7898SOL    HW225528   5.433   3.490   5.312
 7899SOL     OW25529  12.284   2.600   0.003
 7899SOL    HW125530  12.288   2.559  14.789
 7899SOL    HW225531  12.346   2.550   0.055
 7900SOL     OW25532   4.639  13.206  10.462
 7900SOL    HW125533   4.662  13.184  10.372
 7900SOL    HW225534   4.573  13.140  10.487
 7901SOL     OW25535   2.289  14.551  10.093
 7901SOL    HW125536   2.372  14.555  10.141
 7901SOL    HW225537   2.296  14.473  10.038
 7902SOL     OW25538   8.599   5.867   6.789
 7902SOL    HW125539   8.527   5.851   6.729
 7902SOL    HW225540   8.598   5.792   6.849
 7903SOL     OW25541  13.271   2.716   8.795
 7903SOL    HW125542  13.266   2.794   8.850
 7903SOL    HW225543  13.342   2.735   8.733
 7904SOL     OW25544  13.194   5.305   2.563
 7904SOL    HW125545  13.165   5.258   2.485
 7904SOL    HW225546  13.289   5.292   2.565
 7905SOL     OW25547  13.102   1.870  12.791
 7905SOL    HW125548  13.009   1.894  12.784
 7905SOL    HW225549  13.102   1.780  12.824
 7906SOL     OW25550   2.905  10.707   5.716
 7906SOL    HW125551   2.870  10.796   5.702
 7906SOL    HW225552   2.941  10.682   5.631
 7907SOL     OW25553  12.472   1.316  10.994
 7907SOL    HW125554  12.464   1.259  11.070
 7907SOL    HW225555  12.441   1.401  11.024
 7908SOL     OW25556   0.002   2.466  13.448
 7908SOL    HW125557  14.847   2.374  13.453
 7908SOL    HW225558   0.062   2.468  13.374
 7909SOL     OW25559   2.262   3.361  12.668
 7909SOL    HW125560   2.239   3.331  12.581
 7909SOL    HW225561   2.202   3.434  12.685
 7910SOL     OW25562   1.966  10.198   7.467
 7910SOL    HW125563   1.910  10.224   7.540
 7910SOL    HW225564   2.012  10.121   7.499
 7911SOL     OW25565  14.223  13.024   0.357
 7911SOL    HW125566  14.156  13.075   0.312
 7911SOL    HW225567  14.198  13.027   0.449
 7912SOL     OW25568  10.540  13.142  14.664
 7912SOL    HW125569  10.445  13.153  14.656
 7912SOL    HW225570  10.562  13.181  14.748
 7913SOL     OW25571   9.248   6.888   0.395
 7913SOL    HW125572   9.178   6.910   0.333
 7913SOL    HW225573   9.316   6.849   0.340
 7914SOL     OW25574   2.159   2.705  11.267
 7914SOL    HW125575   2.138   2.670  11.354
 7914SOL    HW225576   2.081   2.756  11.243
 7915SOL     OW25577   0.396   5.256   4.767
 7915SOL    HW125578   0.373   5.301   4.685
 7915SOL    HW225579   0.326   5.192   4.779
 7916SOL     OW25580   4.444   0.732   5.459
 7916SOL    HW125581   4.414   0.643   5.475
 7916SOL    HW225582   4.454   0.737   5.364
 7917SOL     OW25583   4.499   3.654  13.758
 7917SOL    HW125584   4.556   3.616  13.825
 7917SOL    HW225585   4.550   3.725  13.720
 7918SOL     OW25586   7.519   8.075   7.576
 7918SOL    HW125587   7.542   7.999   7.522
 7918SOL    HW225588   7.501   8.039   7.663
 7919SOL     OW25589   9.316   5.435  12.101
 7919SOL    HW125590   9.322   5.505  12.166
 7919SOL    HW225591   9.405   5.399  12.096
 7920SOL     OW25592  14.495   8.732  12.141
 7920SOL    HW125593  14.555   8.763  12.209
 7920SOL    HW225594  14.504   8.637  12.143
 7921SOL     OW25595   0.511   4.076  11.605
 7921SOL    HW125596   0.567   4.142  11.565
 7921SOL    HW225597   0.426   4.119  11.617
 7922SOL     OW25598  12.236   5.875   0.740
 7922SOL    HW125599  12.320   5.835   0.717
 7922SOL    HW225600  12.232   5.869   0.835
 7923SOL     OW25601   2.805  11.883   9.158
 7923SOL    HW125602   2.854  11.811   9.117
 7923SOL    HW225603   2.735  11.840   9.207
 7924SOL     OW25604   9.898   5.558   9.572
 7924SOL    HW125605   9.803   5.571   9.567
 7924SOL    HW225606   9.929   5.576   9.484
 7925SOL     OW25607   7.524   7.785  14.743
 7925SOL    HW125608   7.473   7.866  14.742
 7925SOL    HW225609   7.610   7.812  14.776
 7926SOL     OW25610  12.043   7.290   0.072
 7926SOL    HW125611  11.987   7.282  14.867
 7926SOL    HW225612  12.027   7.210   0.122
 7927SOL     OW25613   6.805   5.757   8.389
 7927SOL    HW125614   6.771   5.843   8.413
 7927SOL    HW225615   6.741   5.721   8.329
 7928SOL     OW25616  13.990   3.331   3.200
 7928SOL    HW125617  14.062   3.315   3.139
 7928SOL    HW225618  13.970   3.244   3.236
 7929SOL     OW25619  14.591   6.514   0.440
 7929SOL    HW125620  14.596   6.464   0.358
 7929SOL    HW225621  14.658   6.476   0.496
 7930SOL     OW25622   3.592   1.534   8.950
 7930SOL    HW125623   3.547   1.618   8.945
 7930SOL    HW225624   3.522   1.469   8.957
 7931SOL     OW25625   2.794  14.531   1.334
 7931SOL    HW125626   2.783  14.624   1.312
 7931SOL    HW225627   2.813  14.489   1.251
 7932SOL     OW25628   9.413   2.001   3.346
 7932SOL    HW125629   9.356   2.073   3.318
 7932SOL    HW225630   9.427   1.949   3.267
 7933SOL     OW25631  13.478   6.412   1.474
 7933SOL    HW125632  13.435   6.350   1.532
 7933SOL    HW225633  13.420   6.487   1.472
 7934SOL     OW25634  11.985  14.848   1.979
 7934SOL    HW125635  12.021   0.018   1.902
 7934SOL    HW225636  11.966  14.759   1.951
 7935SOL     OW25637   9.854  12.437  12.949
 7935SOL    HW125638   9.864  12.506  12.884
 7935SOL    HW225639   9.802  12.477  13.019
 7936SOL     OW25640  12.809   1.917  14.144
 7936SOL    HW125641  12.808   1.831  14.104
 7936SOL    HW225642  12.721   1.928  14.179
 7937SOL     OW25643   3.475   6.077   4.085
 7937SOL    HW125644   3.445   6.018   4.016
 7937SOL    HW225645   3.408   6.146   4.089
 7938SOL     OW25646   0.146   5.289   9.543
 7938SOL    HW125647   0.096   5.310   9.621
 7938SOL    HW225648   0.182   5.202   9.559
 7939SOL     OW25649   2.867   8.375  13.105
 7939SOL    HW125650   2.863   8.462  13.064
 7939SOL    HW225651   2.920   8.388  13.183
 7940SOL     OW25652   2.247  14.422  11.632
 7940SOL    HW125653   2.332  14.435  11.590
 7940SOL    HW225654   2.204  14.507  11.626
 7941SOL     OW25655  14.724   0.362  13.350
 7941SOL    HW125656  14.658   0.430  13.334
 7941SOL    HW225657  14.803   0.411  13.371
 7942SOL     OW25658   3.945  13.141   8.265
 7942SOL    HW125659   3.911  13.088   8.193
 7942SOL    HW225660   3.867  13.180   8.304
 7943SOL     OW25661   9.413   2.279   7.130
 7943SOL    HW125662   9.466   2.285   7.210
 7943SOL    HW225663   9.474   2.298   7.059
 7944SOL     OW25664   4.817  10.544   3.164
 7944SOL    HW125665   4.867  10.486   3.107
 7944SOL    HW225666   4.856  10.630   3.150
 7945SOL     OW25667  14.714   7.271   7.031
 7945SOL    HW125668  14.733   7.365   7.030
 7945SOL    HW225669  14.635   7.262   6.978
 7946SOL     OW25670   0.197   3.305   4.079
 7946SOL    HW125671   0.209   3.352   3.996
 7946SOL    HW225672   0.115   3.340   4.114
 7947SOL     OW25673  11.261   8.208  13.452
 7947SOL    HW125674  11.193   8.274  13.467
 7947SOL    HW225675  11.309   8.240  13.376
 7948SOL     OW25676  12.916   1.253   0.392
 7948SOL    HW125677  12.955   1.310   0.326
 7948SOL    HW225678  12.989   1.228   0.448
 7949SOL     OW25679  10.667  12.548  10.614
 7949SOL    HW125680  10.664  12.491  10.691
 7949SOL    HW225681  10.578  12.580  10.604
 7950SOL     OW25682  14.835   3.690   2.315
 7950SOL    HW125683   0.033   3.646   2.362
 7950SOL    HW225684  14.796   3.622   2.260
 7951SOL     OW25685   0.782  13.504  10.646
 7951SOL    HW125686   0.721  13.537  10.580
 7951SOL    HW225687   0.747  13.537  10.729
 7952SOL     OW25688  11.343   0.275  11.653
 7952SOL    HW125689  11.268   0.300  11.600
 7952SOL    HW225690  11.409   0.342  11.633
 7953SOL     OW25691   8.711  12.544   1.481
 7953SOL    HW125692   8.797  12.580   1.504
 7953SOL    HW225693   8.694  12.479   1.549
 7954SOL     OW25694  11.981  12.488  12.483
 7954SOL    HW125695  12.031  12.530  12.413
 7954SOL    HW225696  11.890  12.512  12.466
 7955SOL     OW25697   7.492  11.896  12.044
 7955SOL    HW125698   7.434  11.971  12.026
 7955SOL    HW225699   7.467  11.831  11.977
 7956SOL     OW25700  11.787   1.883   0.352
 7956SOL    HW125701  11.800   1.958   0.410
 7956SOL    HW225702  11.725   1.914   0.286
 7957SOL     OW25703   1.751  12.533  10.177
 7957SOL    HW125704   1.791  12.504  10.259
 7957SOL    HW225705   1.688  12.464  10.155
 7958SOL     OW25706  10.474  11.386   2.295
 7958SOL    HW125707  10.547  11.446   2.286
 7958SOL    HW225708  10.491  11.318   2.229
 7959SOL     OW25709   4.446   4.876  12.176
 7959SOL    HW125710   4.434   4.790  12.135
 7959SOL    HW225711   4.374   4.929  12.142
 7960SOL     OW25712   6.789   7.623  13.196
 7960SOL    HW125713   6.739   7.704  13.189
 7960SOL    HW225714   6.794   7.606  13.291
 7961SOL     OW25715   3.655   7.389   5.704
 7961SOL    HW125716   3.644   7.295   5.693
 7961SOL    HW225717   3.693   7.399   5.791
 7962SOL     OW25718  11.468  10.585  12.291
 7962SOL    HW125719  11.433  10.633  12.216
 7962SOL    HW225720  11.540  10.534  12.254
 7963SOL     OW25721  13.496  13.439   5.041
 7963SOL    HW125722  13.456  13.516   5.000
 7963SOL    HW225723  13.429  13.370   5.032
 7964SOL     OW25724  13.649  13.292   8.408
 7964SOL    HW125725  13.706  13.215   8.402
 7964SOL    HW225726  13.565  13.257   8.438
 7965SOL     OW25727   1.683   5.831   5.291
 7965SOL    HW125728   1.629   5.756   5.266
 7965SOL    HW225729   1.772   5.795   5.300
 7966SOL     OW25730   2.338   7.728  14.819
 7966SOL    HW125731   2.274   7.661  14.844
 7966SOL    HW225732   2.289   7.786  14.761
 7967SOL     OW25733   1.081  13.495   3.062
 7967SOL    HW125734   1.083  13.564   2.996
 7967SOL    HW225735   1.158  13.512   3.116
 7968SOL     OW25736   4.137   6.546  11.618
 7968SOL    HW125737   4.152   6.616  11.681
 7968SOL    HW225738   4.079   6.585  11.552
 7969SOL     OW25739   0.857   7.970   1.772
 7969SOL    HW125740   0.778   8.011   1.807
 7969SOL    HW225741   0.825   7.898   1.718
 7970SOL     OW25742   2.659   1.393   9.108
 7970SOL    HW125743   2.725   1.409   9.040
 7970SOL    HW225744   2.645   1.479   9.148
 7971SOL     OW25745   4.422   0.374   3.578
 7971SOL    HW125746   4.371   0.376   3.659
 7971SOL    HW225747   4.356   0.364   3.509
 7972SOL     OW25748  11.273   5.696   5.974
 7972SOL    HW125749  11.351   5.680   5.920
 7972SOL    HW225750  11.263   5.616   6.026
 7973SOL     OW25751   0.413   0.517   5.568
 7973SOL    HW125752   0.409   0.427   5.603
 7973SOL    HW225753   0.354   0.567   5.625
 7974SOL     OW25754  13.078   2.874   3.080
 7974SOL    HW125755  13.032   2.916   3.151
 7974SOL    HW225756  13.078   2.938   3.009
 7975SOL     OW25757  10.175   2.557   7.169
 7975SOL    HW125758  10.195   2.545   7.077
 7975SOL    HW225759  10.122   2.637   7.172
 7976SOL     OW25760   7.162   3.306  14.704
 7976SOL    HW125761   7.130   3.223  14.670
 7976SOL    HW225762   7.106   3.325  14.779
 7977SOL     OW25763   5.450   8.569  10.901
 7977SOL    HW125764   5.429   8.506  10.832
 7977SOL    HW225765   5.420   8.527  10.982
 7978SOL     OW25766   8.496   7.344   9.417
 7978SOL    HW125767   8.403   7.324   9.404
 7978SOL    HW225768   8.496   7.433   9.453
 7979SOL     OW25769   5.678   3.526  12.529
 7979SOL    HW125770   5.659   3.597  12.590
 7979SOL    HW225771   5.607   3.529  12.465
 7980SOL     OW25772  12.833   5.851  13.225
 7980SOL    HW125773  12.807   5.920  13.286
 7980SOL    HW225774  12.793   5.877  13.142
 7981SOL     OW25775   8.289   7.819   8.842
 7981SOL    HW125776   8.368   7.862   8.875
 7981SOL    HW225777   8.319   7.772   8.764
 7982SOL     OW25778  13.055  10.081   6.126
 7982SOL    HW125779  13.065  10.018   6.197
 7982SOL    HW225780  13.135  10.072   6.074
 7983SOL     OW25781   9.003   1.525   7.296
 7983SOL    HW125782   9.097   1.512   7.310
 7983SOL    HW225783   8.998   1.601   7.237
 7984SOL     OW25784   0.396   6.264  10.491
 7984SOL    HW125785   0.454   6.205  10.445
 7984SOL    HW225786   0.348   6.310  10.422
 7985SOL     OW25787  13.573  14.866  12.059
 7985SOL    HW125788  13.569  14.778  12.021
 7985SOL    HW225789  13.637  14.858  12.130
 7986SOL     OW25790   8.842  13.970   5.412
 7986SOL    HW125791   8.760  13.934   5.380
 7986SOL    HW225792   8.901  13.895   5.419
 7987SOL     OW25793  10.532  13.747   0.287
 7987SOL    HW125794  10.619  13.785   0.302
 7987SOL    HW225795  10.546  13.653   0.294
 7988SOL     OW25796   8.468   6.845   2.950
 7988SOL    HW125797   8.372   6.847   2.957
 7988SOL    HW225798   8.492   6.757   2.975
 7989SOL     OW25799   0.848   2.612   0.208
 7989SOL    HW125800   0.753   2.614   0.226
 7989SOL    HW225801   0.861   2.531   0.160
 7990SOL     OW25802   5.943   0.951  14.268
 7990SOL    HW125803   5.990   0.897  14.332
 7990SOL    HW225804   5.987   0.934  14.185
 7991SOL     OW25805   9.221   9.707   7.933
 7991SOL    HW125806   9.143   9.658   7.910
 7991SOL    HW225807   9.251   9.669   8.016
 7992SOL     OW25808   9.752   9.143   2.057
 7992SOL    HW125809   9.676   9.184   2.016
 7992SOL    HW225810   9.823   9.151   1.993
 7993SOL     OW25811  10.274   8.764   0.299
 7993SOL    HW125812  10.272   8.859   0.292
 7993SOL    HW225813  10.215   8.733   0.231
 7994SOL     OW25814  12.674   4.888   0.387
 7994SOL    HW125815  12.580   4.893   0.372
 7994SOL    HW225816  12.684   4.901   0.482
 7995SOL     OW25817   7.129  12.173   2.420
 7995SOL    HW125818   7.133  12.185   2.515
 7995SOL    HW225819   7.043  12.132   2.406
 7996SOL     OW25820   1.080   5.313  10.920
 7996SOL    HW125821   1.011   5.335  10.857
 7996SOL    HW225822   1.034   5.297  11.002
 7997SOL     OW25823  12.413   3.661  14.752
 7997SOL    HW125824  12.459   3.744  14.762
 7997SOL    HW225825  12.345   3.678  14.686
 7998SOL     OW25826   7.933   2.469   2.697
 7998SOL    HW125827   8.011   2.414   2.702
 7998SOL    HW225828   7.860   2.406   2.695
 7999SOL     OW25829  12.627  14.058  12.252
 7999SOL    HW125830  12.536  14.060  12.224
 7999SOL    HW225831  12.646  13.965  12.264
 8000SOL     OW25832   3.301   4.687  10.268
 8000SOL    HW125833   3.372   4.701  10.331
 8000SOL    HW225834   3.337   4.719  10.185
 8001SOL     OW25835   3.612   3.241  14.811
 8001SOL    HW125836   3.573   3.272  14.729
 8001SOL    HW225837   3.657   3.161  14.787
 8002SOL     OW25838   5.834  13.419  13.955
 8002SOL    HW125839   5.866  13.497  13.909
 8002SOL    HW225840   5.850  13.347  13.894
 8003SOL     OW25841   1.685   0.950   5.641
 8003SOL    HW125842   1.647   0.947   5.729
 8003SOL    HW225843   1.614   0.922   5.584
 8004SOL     OW25844   6.450   5.830   1.157
 8004SOL    HW125845   6.452   5.907   1.214
 8004SOL    HW225846   6.434   5.866   1.070
 8005SOL     OW25847   5.938  13.254   2.264
 8005SOL    HW125848   6.028  13.280   2.283
 8005SOL    HW225849   5.905  13.219   2.347
 8006SOL     OW25850  11.633   2.496  14.570
 8006SOL    HW125851  11.685   2.495  14.490
 8006SOL    HW225852  11.542   2.503  14.540
 8007SOL     OW25853  12.903   5.580   0.324
 8007SOL    HW125854  12.970   5.586   0.257
 8007SOL    HW225855  12.947   5.539   0.399
 8008SOL     OW25856   3.509   3.295   7.927
 8008SOL    HW125857   3.541   3.205   7.919
 8008SOL    HW225858   3.573   3.347   7.878
 8009SOL     OW25859   8.068   8.002   8.902
 8009SOL    HW125860   8.128   7.930   8.921
 8009SOL    HW225861   8.109   8.079   8.941
 8010SOL     OW25862   8.748  13.995   4.260
 8010SOL    HW125863   8.698  14.051   4.320
 8010SOL    HW225864   8.834  13.988   4.300
 8011SOL     OW25865   5.043   7.870   1.788
 8011SOL    HW125866   5.132   7.881   1.755
 8011SOL    HW225867   5.031   7.941   1.850
 8012SOL     OW25868  11.948   3.243   8.806
 8012SOL    HW125869  11.933   3.338   8.806
 8012SOL    HW225870  12.024   3.231   8.863
 8013SOL     OW25871   0.234  13.833   2.994
 8013SOL    HW125872   0.234  13.782   3.075
 8013SOL    HW225873   0.318  13.813   2.953
 8014SOL     OW25874   9.726   2.499   0.382
 8014SOL    HW125875   9.716   2.582   0.430
 8014SOL    HW225876   9.813   2.467   0.407
 8015SOL     OW25877  14.028   3.970   5.968
 8015SOL    HW125878  14.073   3.990   6.050
 8015SOL    HW225879  13.945   3.931   5.995
 8016SOL     OW25880  11.359   1.010   4.028
 8016SOL    HW125881  11.264   1.024   4.021
 8016SOL    HW225882  11.397   1.096   4.013
 8017SOL     OW25883  13.270  14.828   1.070
 8017SOL    HW125884  13.351   0.004   1.085
 8017SOL    HW225885  13.215  14.849   1.146
 8018SOL     OW25886   1.973   2.458  14.145
 8018SOL    HW125887   1.907   2.393  14.169
 8018SOL    HW225888   2.023   2.473  14.225
 8019SOL     OW25889   7.399  11.939  11.202
 8019SOL    HW125890   7.305  11.925  11.206
 8019SOL    HW225891   7.417  11.954  11.109
 8020SOL     OW25892   9.524   5.814   3.429
 8020SOL    HW125893   9.527   5.846   3.339
 8020SOL    HW225894   9.439   5.769   3.435
 8021SOL     OW25895   4.600  13.456  12.359
 8021SOL    HW125896   4.597  13.364  12.385
 8021SOL    HW225897   4.662  13.458  12.286
 8022SOL     OW25898   9.379   8.372   6.352
 8022SOL    HW125899   9.404   8.292   6.397
 8022SOL    HW225900   9.462   8.409   6.321
 8023SOL     OW25901  11.510   0.964  11.653
 8023SOL    HW125902  11.466   0.959  11.738
 8023SOL    HW225903  11.577   1.031  11.665
 8024SOL     OW25904   9.388   0.146   7.060
 8024SOL    HW125905   9.463   0.121   7.114
 8024SOL    HW225906   9.319   0.165   7.123
 8025SOL     OW25907   4.383   6.921   2.399
 8025SOL    HW125908   4.397   6.884   2.311
 8025SOL    HW225909   4.437   7.000   2.400
 8026SOL     OW25910   2.904  10.181  13.656
 8026SOL    HW125911   2.822  10.230  13.664
 8026SOL    HW225912   2.945  10.188  13.742
 8027SOL     OW25913  14.195   2.195  13.528
 8027SOL    HW125914  14.227   2.274  13.483
 8027SOL    HW225915  14.106   2.217  13.553
 8028SOL     OW25916  12.919   6.914   7.023
 8028SOL    HW125917  12.915   6.968   6.944
 8028SOL    HW225918  13.008   6.880   7.024
 8029SOL     OW25919   0.693   3.588  14.729
 8029SOL    HW125920   0.690   3.662  14.789
 8029SOL    HW225921   0.695   3.511  14.786
 8030SOL     OW25922  12.211   7.866   1.031
 8030SOL    HW125923  12.229   7.774   1.010
 8030SOL    HW225924  12.269   7.916   0.972
 8031SOL     OW25925  13.855   7.280   7.786
 8031SOL    HW125926  13.848   7.314   7.875
 8031SOL    HW225927  13.948   7.287   7.764
 8032SOL     OW25928   9.849   0.922   1.326
 8032SOL    HW125929   9.788   0.858   1.362
 8032SOL    HW225930   9.808   0.954   1.246
 8033SOL     OW25931   0.285   4.798   9.836
 8033SOL    HW125932   0.220   4.768   9.772
 8033SOL    HW225933   0.355   4.733   9.831
 8034SOL     OW25934  13.099  11.200   7.746
 8034SOL    HW125935  13.069  11.217   7.657
 8034SOL    HW225936  13.181  11.152   7.736
 8035SOL     OW25937  13.218   9.867  11.338
 8035SOL    HW125938  13.141   9.821  11.372
 8035SOL    HW225939  13.293   9.822  11.378
 8036SOL     OW25940  10.776  14.518   9.462
 8036SOL    HW125941  10.865  14.509   9.496
 8036SOL    HW225942  10.760  14.612   9.460
 8037SOL     OW25943   3.464   9.975   3.568
 8037SOL    HW125944   3.413  10.052   3.592
 8037SOL    HW225945   3.547  10.009   3.537
 8038SOL     OW25946   6.445   8.267   6.787
 8038SOL    HW125947   6.538   8.269   6.809
 8038SOL    HW225948   6.408   8.203   6.847
 8039SOL     OW25949   5.877  12.596   0.066
 8039SOL    HW125950   5.850  12.687   0.082
 8039SOL    HW225951   5.910  12.598  14.848
 8040SOL     OW25952  13.323  14.679   2.169
 8040SOL    HW125953  13.344  14.773   2.171
 8040SOL    HW225954  13.408  14.637   2.155
 8041SOL     OW25955   7.491  13.293   0.276
 8041SOL    HW125956   7.586  13.304   0.278
 8041SOL    HW225957   7.461  13.360   0.215
 8042SOL     OW25958  13.449   0.476   5.065
 8042SOL    HW125959  13.516   0.430   5.115
 8042SOL    HW225960  13.466   0.569   5.080
 8043SOL     OW25961   7.071   4.754  14.813
 8043SOL    HW125962   7.045   4.691   0.008
 8043SOL    HW225963   7.033   4.719  14.732
 8044SOL     OW25964   4.301  10.030  14.617
 8044SOL    HW125965   4.368   9.971  14.650
 8044SOL    HW225966   4.350  10.102  14.577
 8045SOL     OW25967   6.782   0.856   2.065
 8045SOL    HW125968   6.823   0.931   2.022
 8045SOL    HW225969   6.694   0.886   2.088
 8046SOL     OW25970   5.218   1.167   0.979
 8046SOL    HW125971   5.226   1.078   0.945
 8046SOL    HW225972   5.229   1.223   0.903
 8047SOL     OW25973   0.845  12.501   3.460
 8047SOL    HW125974   0.880  12.421   3.499
 8047SOL    HW225975   0.770  12.472   3.409
 8048SOL     OW25976   4.819   4.415   6.162
 8048SOL    HW125977   4.784   4.504   6.161
 8048SOL    HW225978   4.896   4.419   6.106
 8049SOL     OW25979   9.597   4.226   6.395
 8049SOL    HW125980   9.625   4.313   6.367
 8049SOL    HW225981   9.513   4.213   6.352
 8050SOL     OW25982   4.177   7.783   6.794
 8050SOL    HW125983   4.254   7.829   6.825
 8050SOL    HW225984   4.137   7.746   6.872
 8051SOL     OW25985   8.448   8.689   7.037
 8051SOL    HW125986   8.378   8.625   7.051
 8051SOL    HW225987   8.441   8.749   7.110
 8052SOL     OW25988   3.999   7.822   8.305
 8052SOL    HW125989   3.930   7.765   8.340
 8052SOL    HW225990   4.005   7.800   8.213
 8053SOL     OW25991   4.425  10.681   0.061
 8053SOL    HW125992   4.343  10.684   0.012
 8053SOL    HW225993   4.488  10.640   0.002
 8054SOL     OW25994   4.182  12.359   3.611
 8054SOL    HW125995   4.274  12.333   3.613
 8054SOL    HW225996   4.184  12.455   3.612
 8055SOL     OW25997  13.287   9.047   3.767
 8055SOL    HW125998  13.239   9.102   3.830
 8055SOL    HW225999  13.379   9.060   3.789
 8056SOL     OW26000   5.944   2.656   3.898
 8056SOL    HW126001   5.869   2.677   3.953
 8056SOL    HW226002   6.019   2.658   3.958
 8057SOL     OW26003  12.511  10.107  13.774
 8057SOL    HW126004  12.485  10.165  13.703
 8057SOL    HW226005  12.533  10.024  13.731
 8058SOL     OW26006   2.026   6.432   0.633
 8058SOL    HW126007   2.012   6.476   0.549
 8058SOL    HW226008   1.988   6.490   0.698
 8059SOL     OW26009   4.169  11.575  13.736
 8059SOL    HW126010   4.085  11.612  13.765
 8059SOL    HW226011   4.222  11.569  13.816
 8060SOL     OW26012   1.922  11.043  10.004
 8060SOL    HW126013   1.896  11.122   9.958
 8060SOL    HW226014   1.856  11.032  10.073
 8061SOL     OW26015   9.727   2.762   4.825
 8061SOL    HW126016   9.677   2.843   4.817
 8061SOL    HW226017   9.817   2.791   4.845
 8062SOL     OW26018   6.573  12.159   3.853
 8062SOL    HW126019   6.525  12.089   3.808
 8062SOL    HW226020   6.508  12.228   3.866
 8063SOL     OW26021  12.398   5.198   6.482
 8063SOL    HW126022  12.395   5.287   6.517
 8063SOL    HW226023  12.426   5.209   6.391
 8064SOL     OW26024   7.841   5.432   7.575
 8064SOL    HW126025   7.917   5.479   7.611
 8064SOL    HW226026   7.843   5.347   7.619
 8065SOL     OW26027   7.179   8.674  13.422
 8065SOL    HW126028   7.168   8.620  13.343
 8065SOL    HW226029   7.090   8.701  13.445
 8066SOL     OW26030  13.421  11.344   3.369
 8066SOL    HW126031  13.416  11.297   3.452
 8066SOL    HW226032  13.439  11.277   3.304
 8067SOL     OW26033   6.348  11.327   9.649
 8067SOL    HW126034   6.292  11.286   9.583
 8067SOL    HW226035   6.399  11.254   9.685
 8068SOL     OW26036   4.806  14.448  10.365
 8068SOL    HW126037   4.779  14.369  10.412
 8068SOL    HW226038   4.820  14.418  10.275
 8069SOL     OW26039   9.682   4.088  10.414
 8069SOL    HW126040   9.645   4.012  10.370
 8069SOL    HW226041   9.689   4.155  10.345
 8070SOL     OW26042  11.661   0.521   8.524
 8070SOL    HW126043  11.602   0.590   8.493
 8070SOL    HW226044  11.610   0.440   8.514
 8071SOL     OW26045   3.057   9.518   3.673
 8071SOL    HW126046   3.027   9.593   3.725
 8071SOL    HW226047   3.063   9.551   3.584
 8072SOL     OW26048   2.526  11.215   5.453
 8072SOL    HW126049   2.465  11.155   5.495
 8072SOL    HW226050   2.534  11.183   5.363
 8073SOL     OW26051   9.582  12.797  14.462
 8073SOL    HW126052   9.612  12.835  14.545
 8073SOL    HW226053   9.634  12.717  14.453
 8074SOL     OW26054   9.400   9.487   3.274
 8074SOL    HW126055   9.401   9.560   3.212
 8074SOL    HW226056   9.365   9.413   3.223
 8075SOL     OW26057   5.047  14.176   2.816
 8075SOL    HW126058   5.041  14.122   2.737
 8075SOL    HW226059   5.030  14.265   2.786
 8076SOL     OW26060  13.620   5.048   9.710
 8076SOL    HW126061  13.656   5.125   9.665
 8076SOL    HW226062  13.634   4.976   9.649
 8077SOL     OW26063  12.846  13.914  10.137
 8077SOL    HW126064  12.861  13.853  10.065
 8077SOL    HW226065  12.753  13.938  10.129
 8078SOL     OW26066   5.489  14.561   4.961
 8078SOL    HW126067   5.486  14.642   4.909
 8078SOL    HW226068   5.454  14.494   4.903
 8079SOL     OW26069  11.307   1.788  12.717
 8079SOL    HW126070  11.217   1.777  12.747
 8079SOL    HW226071  11.356   1.722  12.766
 8080SOL     OW26072   7.377   8.409  13.388
 8080SOL    HW126073   7.312   8.468  13.426
 8080SOL    HW226074   7.327   8.329  13.368
 8081SOL     OW26075  10.115  14.377   4.135
 8081SOL    HW126076  10.033  14.333   4.154
 8081SOL    HW226077  10.146  14.407   4.221
 8082SOL     OW26078   2.760   0.938   6.692
 8082SOL    HW126079   2.775   0.855   6.738
 8082SOL    HW226080   2.829   0.996   6.726
 8083SOL     OW26081   7.169  13.626  13.089
 8083SOL    HW126082   7.250  13.575  13.093
 8083SOL    HW226083   7.158  13.646  12.996
 8084SOL     OW26084  11.192   5.811   4.572
 8084SOL    HW126085  11.149   5.869   4.635
 8084SOL    HW226086  11.275   5.787   4.613
 8085SOL     OW26087   2.965   5.538  14.019
 8085SOL    HW126088   3.047   5.548  13.973
 8085SOL    HW226089   2.984   5.474  14.088
 8086SOL     OW26090   7.270   0.294   0.422
 8086SOL    HW126091   7.229   0.377   0.395
 8086SOL    HW226092   7.357   0.319   0.452
 8087SOL     OW26093   9.806  12.535   9.146
 8087SOL    HW126094   9.736  12.588   9.109
 8087SOL    HW226095   9.762  12.474   9.204
 8088SOL     OW26096   3.845   9.663  11.213
 8088SOL    HW126097   3.876   9.621  11.133
 8088SOL    HW226098   3.750   9.648  11.212
 8089SOL     OW26099   3.922  11.791   1.865
 8089SOL    HW126100   3.966  11.871   1.838
 8089SOL    HW226101   3.906  11.743   1.784
 8090SOL     OW26102   3.231  11.079   9.972
 8090SOL    HW126103   3.269  11.165   9.954
 8090SOL    HW226104   3.305  11.027  10.004
 8091SOL     OW26105  12.753  10.496   1.673
 8091SOL    HW126106  12.831  10.450   1.642
 8091SOL    HW226107  12.702  10.511   1.593
 8092SOL     OW26108   4.401   6.664   8.367
 8092SOL    HW126109   4.455   6.691   8.293
 8092SOL    HW226110   4.313   6.656   8.331
 8093SOL     OW26111   9.427   3.165   9.895
 8093SOL    HW126112   9.405   3.112   9.972
 8093SOL    HW226113   9.446   3.252   9.931
 8094SOL     OW26114   4.003   4.741   1.658
 8094SOL    HW126115   4.062   4.676   1.697
 8094SOL    HW226116   4.042   4.761   1.574
 8095SOL     OW26117   7.414   6.228   4.766
 8095SOL    HW126118   7.385   6.246   4.677
 8095SOL    HW226119   7.437   6.315   4.802
 8096SOL     OW26120  13.308   6.353   3.896
 8096SOL    HW126121  13.323   6.437   3.940
 8096SOL    HW226122  13.358   6.290   3.948
 8097SOL     OW26123   8.151   2.732   2.099
 8097SOL    HW126124   8.174   2.647   2.137
 8097SOL    HW226125   8.061   2.747   2.130
 8098SOL     OW26126   4.066   1.596   9.121
 8098SOL    HW126127   3.999   1.621   9.058
 8098SOL    HW226128   4.082   1.676   9.171
 8099SOL     OW26129  13.251   1.151   1.946
 8099SOL    HW126130  13.159   1.127   1.942
 8099SOL    HW226131  13.263   1.214   1.875
 8100SOL     OW26132   4.848  14.256   2.042
 8100SOL    HW126133   4.893  14.173   2.060
 8100SOL    HW226134   4.845  14.300   2.127
 8101SOL     OW26135   9.803   4.779  12.027
 8101SOL    HW126136   9.880   4.777  12.084
 8101SOL    HW226137   9.755   4.858  12.054
 8102SOL     OW26138   8.027  12.092   0.385
 8102SOL    HW126139   8.003  12.156   0.318
 8102SOL    HW226140   8.000  12.132   0.468
 8103SOL     OW26141   1.682   1.048  14.061
 8103SOL    HW126142   1.758   0.993  14.042
 8103SOL    HW226143   1.684   1.062  14.155
 8104SOL     OW26144   9.154   7.613   2.091
 8104SOL    HW126145   9.205   7.532   2.085
 8104SOL    HW226146   9.206   7.670   2.147
 8105SOL     OW26147   1.973  14.051  10.126
 8105SOL    HW126148   2.025  14.123  10.090
 8105SOL    HW226149   1.991  13.977  10.069
 8106SOL     OW26150  12.659   4.754  12.250
 8106SOL    HW126151  12.595   4.807  12.298
 8106SOL    HW226152  12.606   4.689  12.203
 8107SOL     OW26153   7.172  11.514  12.005
 8107SOL    HW126154   7.199  11.433  11.964
 8107SOL    HW226155   7.244  11.575  11.991
 8108SOL     OW26156   7.404  11.332   4.284
 8108SOL    HW126157   7.391  11.399   4.352
 8108SOL    HW226158   7.475  11.278   4.317
 8109SOL     OW26159   3.047   2.505  14.073
 8109SOL    HW126160   3.020   2.597  14.079
 8109SOL    HW226161   3.022   2.467  14.158
 8110SOL     OW26162   6.638  11.239  14.143
 8110SOL    HW126163   6.713  11.194  14.104
 8110SOL    HW226164   6.565  11.217  14.086
 8111SOL     OW26165  14.781   7.682   1.323
 8111SOL    HW126166  14.867   7.660   1.360
 8111SOL    HW226167  14.795   7.767   1.281
 8112SOL     OW26168   1.583   9.679   4.525
 8112SOL    HW126169   1.520   9.610   4.546
 8112SOL    HW226170   1.609   9.660   4.435
 8113SOL     OW26171   3.508   3.990   7.305
 8113SOL    HW126172   3.542   3.918   7.357
 8113SOL    HW226173   3.413   3.980   7.308
 8114SOL     OW26174   4.498   4.137   6.614
 8114SOL    HW126175   4.526   4.172   6.529
 8114SOL    HW226176   4.410   4.103   6.597
 8115SOL     OW26177   5.142  14.102   9.340
 8115SOL    HW126178   5.154  14.197   9.339
 8115SOL    HW226179   5.229  14.067   9.356
 8116SOL     OW26180   4.356   8.474   3.123
 8116SOL    HW126181   4.314   8.390   3.106
 8116SOL    HW226182   4.322   8.500   3.209
 8117SOL     OW26183  10.929  14.503   4.952
 8117SOL    HW126184  10.855  14.445   4.970
 8117SOL    HW226185  10.898  14.561   4.882
 8118SOL     OW26186  12.356   1.949   3.693
 8118SOL    HW126187  12.290   1.943   3.624
 8118SOL    HW226188  12.437   1.968   3.647
 8119SOL     OW26189   3.676   7.792   6.251
 8119SOL    HW126190   3.626   7.770   6.171
 8119SOL    HW226191   3.669   7.887   6.258
 8120SOL     OW26192  12.157   2.930   4.623
 8120SOL    HW126193  12.223   2.993   4.652
 8120SOL    HW226194  12.203   2.847   4.615
 8121SOL     OW26195   5.452   1.582   8.756
 8121SOL    HW126196   5.375   1.527   8.768
 8121SOL    HW226197   5.493   1.549   8.676
 8122SOL     OW26198  10.314   4.677   4.980
 8122SOL    HW126199  10.255   4.632   5.040
 8122SOL    HW226200  10.379   4.610   4.956
 8123SOL     OW26201   0.361   9.014   3.871
 8123SOL    HW126202   0.306   8.959   3.816
 8123SOL    HW226203   0.367   9.097   3.824
 8124SOL     OW26204  14.321  12.957   0.839
 8124SOL    HW126205  14.417  12.950   0.837
 8124SOL    HW226206  14.290  12.875   0.801
 8125SOL     OW26207   8.937   1.962  10.899
 8125SOL    HW126208   9.009   2.001  10.850
 8125SOL    HW226209   8.976   1.890  10.948
 8126SOL     OW26210   5.210  13.125   6.173
 8126SOL    HW126211   5.265  13.190   6.216
 8126SOL    HW226212   5.121  13.153   6.190
 8127SOL     OW26213   1.691   1.745  12.128
 8127SOL    HW126214   1.771   1.758  12.179
 8127SOL    HW226215   1.723   1.717  12.042
 8128SOL     OW26216  14.866   2.287  13.209
 8128SOL    HW126217   0.078   2.328  13.225
 8128SOL    HW226218   0.015   2.206  13.163
 8129SOL     OW26219  12.224   5.240  13.859
 8129SOL    HW126220  12.172   5.207  13.785
 8129SOL    HW226221  12.160   5.248  13.930
 8130SOL     OW26222   0.900  14.602   4.303
 8130SOL    HW126223   0.929  14.527   4.355
 8130SOL    HW226224   0.902  14.676   4.364
 8131SOL     OW26225   7.587   1.730   8.201
 8131SOL    HW126226   7.498   1.734   8.236
 8131SOL    HW226227   7.641   1.764   8.272
 8132SOL     OW26228   1.572   1.567  13.952
 8132SOL    HW126229   1.627   1.491  13.973
 8132SOL    HW226230   1.605   1.637  14.009
 8133SOL     OW26231   5.701  11.107   8.326
 8133SOL    HW126232   5.761  11.102   8.251
 8133SOL    HW226233   5.635  11.171   8.299
 8134SOL     OW26234   1.347   6.284  13.727
 8134SOL    HW126235   1.348   6.190  13.710
 8134SOL    HW226236   1.317   6.293  13.817
 8135SOL     OW26237   6.699   1.306  10.741
 8135SOL    HW126238   6.742   1.377  10.789
 8135SOL    HW226239   6.606   1.317  10.761
 8136SOL     OW26240  12.317  10.745   2.555
 8136SOL    HW126241  12.241  10.766   2.609
 8136SOL    HW226242  12.385  10.722   2.618
 8137SOL     OW26243   3.544  13.032  10.935
 8137SOL    HW126244   3.454  13.035  10.902
 8137SOL    HW226245   3.544  13.090  11.011
 8138SOL     OW26246   4.307   8.863  12.949
 8138SOL    HW126247   4.402   8.867  12.944
 8138SOL    HW226248   4.282   8.940  13.000
 8139SOL     OW26249   3.534  10.305  13.161
 8139SOL    HW126250   3.526  10.212  13.140
 8139SOL    HW226251   3.628  10.319  13.172
 8140SOL     OW26252  13.868   6.598  11.452
 8140SOL    HW126253  13.953   6.569  11.484
 8140SOL    HW226254  13.871   6.694  11.460
 8141SOL     OW26255  10.659   5.443   4.201
 8141SOL    HW126256  10.616   5.382   4.260
 8141SOL    HW226257  10.703   5.505   4.258
 8142SOL     OW26258   0.329  12.973   2.390
 8142SOL    HW126259   0.333  12.961   2.296
 8142SOL    HW226260   0.419  12.998   2.415
 8143SOL     OW26261  10.353   6.598  11.988
 8143SOL    HW126262  10.407   6.633  11.917
 8143SOL    HW226263  10.407   6.610  12.067
 8144SOL     OW26264   5.189   3.298  10.441
 8144SOL    HW126265   5.228   3.211  10.449
 8144SOL    HW226266   5.262   3.357  10.426
 8145SOL     OW26267   1.694   9.029   7.819
 8145SOL    HW126268   1.681   9.118   7.785
 8145SOL    HW226269   1.788   9.023   7.835
 8146SOL     OW26270   0.217   6.839   5.476
 8146SOL    HW126271   0.246   6.840   5.567
 8146SOL    HW226272   0.248   6.756   5.441
 8147SOL     OW26273   7.132   2.565   4.164
 8147SOL    HW126274   7.146   2.596   4.074
 8147SOL    HW226275   7.051   2.609   4.192
 8148SOL     OW26276   3.157  12.943   3.139
 8148SOL    HW126277   3.210  12.932   3.060
 8148SOL    HW226278   3.137  13.037   3.141
 8149SOL     OW26279   5.187  10.628  14.420
 8149SOL    HW126280   5.203  10.556  14.481
 8149SOL    HW226281   5.254  10.693  14.442
 8150SOL     OW26282  11.228   9.479  13.058
 8150SOL    HW126283  11.244   9.385  13.060
 8150SOL    HW226284  11.133   9.487  13.052
 8151SOL     OW26285   1.444   0.770   8.739
 8151SOL    HW126286   1.435   0.724   8.822
 8151SOL    HW226287   1.355   0.798   8.718
 8152SOL     OW26288   3.675   3.924   1.889
 8152SOL    HW126289   3.680   3.979   1.811
 8152SOL    HW226290   3.683   3.985   1.962
 8153SOL     OW26291   6.332   3.286  12.898
 8153SOL    HW126292   6.297   3.200  12.875
 8153SOL    HW226293   6.391   3.308  12.826
 8154SOL     OW26294  14.586   5.679   6.006
 8154SOL    HW126295  14.680   5.670   5.990
 8154SOL    HW226296  14.578   5.694   6.100
 8155SOL     OW26297   3.376   1.931   5.581
 8155SOL    HW126298   3.355   1.929   5.674
 8155SOL    HW226299   3.471   1.917   5.578
 8156SOL     OW26300  12.425   2.098   4.452
 8156SOL    HW126301  12.348   2.077   4.504
 8156SOL    HW226302  12.420   2.192   4.438
 8157SOL     OW26303   2.271   7.794   1.033
 8157SOL    HW126304   2.220   7.754   1.103
 8157SOL    HW226305   2.206   7.839   0.979
 8158SOL     OW26306   5.068   2.929   5.133
 8158SOL    HW126307   5.056   2.868   5.060
 8158SOL    HW226308   4.985   2.927   5.180
 8159SOL     OW26309  11.096   2.017  11.601
 8159SOL    HW126310  11.045   2.095  11.625
 8159SOL    HW226311  11.087   2.011  11.505
 8160SOL     OW26312   2.052   0.547  12.299
 8160SOL    HW126313   2.073   0.606  12.371
 8160SOL    HW226314   1.961   0.522  12.314
 8161SOL     OW26315  13.388   5.931   8.522
 8161SOL    HW126316  13.325   5.873   8.480
 8161SOL    HW226317  13.399   6.004   8.461
 8162SOL     OW26318   6.588   9.396   6.372
 8162SOL    HW126319   6.639   9.426   6.297
 8162SOL    HW226320   6.592   9.469   6.435
 8163SOL     OW26321   9.750  13.701  13.567
 8163SOL    HW126322   9.793  13.748  13.638
 8163SOL    HW226323   9.737  13.613  13.600
 8164SOL     OW26324   6.991   4.830   7.711
 8164SOL    HW126325   6.941   4.757   7.673
 8164SOL    HW226326   7.083   4.806   7.698
 8165SOL     OW26327   6.260   4.701   5.469
 8165SOL    HW126328   6.170   4.668   5.476
 8165SOL    HW226329   6.253   4.778   5.413
 8166SOL     OW26330   3.997  13.752  14.498
 8166SOL    HW126331   3.970  13.719  14.583
 8166SOL    HW226332   4.073  13.698  14.474
 8167SOL     OW26333   5.334   4.172   1.377
 8167SOL    HW126334   5.413   4.145   1.331
 8167SOL    HW226335   5.327   4.266   1.362
 8168SOL     OW26336   9.481   6.812   9.274
 8168SOL    HW126337   9.535   6.800   9.196
 8168SOL    HW226338   9.444   6.900   9.264
 8169SOL     OW26339   0.663   9.197  10.358
 8169SOL    HW126340   0.697   9.223  10.272
 8169SOL    HW226341   0.568   9.199  10.348
 8170SOL     OW26342   9.915   5.486   1.253
 8170SOL    HW126343   9.948   5.536   1.179
 8170SOL    HW226344   9.820   5.500   1.251
 8171SOL     OW26345  10.029  14.206  14.668
 8171SOL    HW126346   9.946  14.201  14.620
 8171SOL    HW226347  10.020  14.281  14.726
 8172SOL     OW26348  12.863   6.067   9.044
 8172SOL    HW126349  12.860   6.109   9.130
 8172SOL    HW226350  12.923   5.993   9.055
 8173SOL     OW26351   4.645   0.631  12.650
 8173SOL    HW126352   4.667   0.716  12.612
 8173SOL    HW226353   4.606   0.582  12.578
 8174SOL     OW26354   2.205   0.047   9.228
 8174SOL    HW126355   2.241   0.040   9.140
 8174SOL    HW226356   2.119   0.088   9.216
 8175SOL     OW26357   8.893   6.051  12.254
 8175SOL    HW126358   8.864   6.024  12.167
 8175SOL    HW226359   8.823   6.107  12.286
 8176SOL     OW26360   0.006   0.729  13.728
 8176SOL    HW126361   0.040   0.787  13.660
 8176SOL    HW226362   0.080   0.715  13.786
 8177SOL     OW26363   5.871  10.006   3.863
 8177SOL    HW126364   5.940  10.069   3.843
 8177SOL    HW226365   5.842  10.029   3.951
 8178SOL     OW26366  13.788  11.145   1.674
 8178SOL    HW126367  13.873  11.136   1.718
 8178SOL    HW226368  13.761  11.235   1.694
 8179SOL     OW26369   1.967   0.503  11.729
 8179SOL    HW126370   1.995   0.501  11.821
 8179SOL    HW226371   1.920   0.421  11.717
 8180SOL     OW26372   1.832   2.121  10.950
 8180SOL    HW126373   1.796   2.131  11.038
 8180SOL    HW226374   1.777   2.177  10.895
 8181SOL     OW26375  11.449   0.072   3.143
 8181SOL    HW126376  11.414   0.039   3.225
 8181SOL    HW226377  11.537   0.036   3.137
 8182SOL     OW26378  12.752   1.523   8.353
 8182SOL    HW126379  12.707   1.607   8.343
 8182SOL    HW226380  12.744   1.481   8.268
 8183SOL     OW26381   9.052   1.764   7.721
 8183SOL    HW126382   8.980   1.701   7.722
 8183SOL    HW226383   9.131   1.712   7.708
 8184SOL     OW26384  11.223   3.620   8.011
 8184SOL    HW126385  11.294   3.556   8.011
 8184SOL    HW226386  11.220   3.653   7.921
 8185SOL     OW26387  14.526   7.770   3.427
 8185SOL    HW126388  14.540   7.822   3.347
 8185SOL    HW226389  14.471   7.697   3.399
 8186SOL     OW26390   2.540   2.072   2.765
 8186SOL    HW126391   2.478   2.000   2.765
 8186SOL    HW226392   2.493   2.144   2.807
 8187SOL     OW26393   0.667   8.850   1.750
 8187SOL    HW126394   0.756   8.882   1.735
 8187SOL    HW226395   0.677   8.784   1.819
 8188SOL     OW26396   6.830   5.970   0.147
 8188SOL    HW126397   6.739   5.955   0.118
 8188SOL    HW226398   6.882   5.955   0.069
 8189SOL     OW26399  11.434  11.119  14.121
 8189SOL    HW126400  11.348  11.148  14.090
 8189SOL    HW226401  11.417  11.036  14.166
 8190SOL     OW26402   9.302   1.826  12.403
 8190SOL    HW126403   9.276   1.739  12.433
 8190SOL    HW226404   9.318   1.815  12.310
 8191SOL     OW26405   8.797   0.034  13.955
 8191SOL    HW126406   8.766  14.845  13.890
 8191SOL    HW226407   8.809  14.855  14.034
 8192SOL     OW26408  14.075   3.856   1.206
 8192SOL    HW126409  14.041   3.944   1.222
 8192SOL    HW226410  14.079   3.816   1.293
 8193SOL     OW26411   7.515   6.395   3.881
 8193SOL    HW126412   7.607   6.420   3.871
 8193SOL    HW226413   7.509   6.361   3.971
 8194SOL     OW26414   7.487  13.083  13.872
 8194SOL    HW126415   7.530  13.127  13.945
 8194SOL    HW226416   7.418  13.143  13.845
 8195SOL     OW26417   0.257   3.288   7.593
 8195SOL    HW126418   0.234   3.200   7.563
 8195SOL    HW226419   0.192   3.345   7.553
 8196SOL     OW26420   2.779   8.001  11.993
 8196SOL    HW126421   2.786   8.096  11.983
 8196SOL    HW226422   2.834   7.981  12.069
 8197SOL     OW26423   2.024   2.371   0.652
 8197SOL    HW126424   1.960   2.407   0.714
 8197SOL    HW226425   1.971   2.343   0.577
 8198SOL     OW26426   2.249   8.839  14.839
 8198SOL    HW126427   2.183   8.909  14.840
 8198SOL    HW226428   2.298   8.851   0.047
 8199SOL     OW26429   0.275   9.865  14.199
 8199SOL    HW126430   0.361   9.888  14.234
 8199SOL    HW226431   0.251   9.940  14.144
 8200SOL     OW26432   3.125   9.293   7.751
 8200SOL    HW126433   3.188   9.225   7.727
 8200SOL    HW226434   3.178   9.372   7.758
 8201SOL     OW26435  10.999   2.552   3.212
 8201SOL    HW126436  11.071   2.516   3.160
 8201SOL    HW226437  11.037   2.566   3.299
 8202SOL     OW26438  11.511  14.534   0.121
 8202SOL    HW126439  11.592  14.541   0.070
 8202SOL    HW226440  11.453  14.481   0.066
 8203SOL     OW26441   5.247  13.992  14.791
 8203SOL    HW126442   5.288  13.907  14.779
 8203SOL    HW226443   5.179  13.977  14.857
 8204SOL     OW26444   9.272   6.019   6.354
 8204SOL    HW126445   9.270   6.005   6.449
 8204SOL    HW226446   9.197   5.969   6.321
 8205SOL     OW26447   2.677   9.302   3.056
 8205SOL    HW126448   2.706   9.326   3.144
 8205SOL    HW226449   2.746   9.246   3.022
 8206SOL     OW26450   0.576   3.410  11.326
 8206SOL    HW126451   0.547   3.361  11.402
 8206SOL    HW226452   0.608   3.493  11.362
 8207SOL     OW26453   3.569   8.500   8.495
 8207SOL    HW126454   3.634   8.448   8.542
 8207SOL    HW226455   3.566   8.462   8.407
 8208SOL     OW26456   6.580  14.580   1.631
 8208SOL    HW126457   6.615  14.491   1.629
 8208SOL    HW226458   6.488  14.570   1.608
 8209SOL     OW26459   0.425  13.430  12.252
 8209SOL    HW126460   0.520  13.422  12.264
 8209SOL    HW226461   0.396  13.341  12.230
 8210SOL     OW26462   5.663   6.250  13.509
 8210SOL    HW126463   5.736   6.280  13.455
 8210SOL    HW226464   5.590   6.241  13.447
 8211SOL     OW26465   4.810   0.417  11.930
 8211SOL    HW126466   4.843   0.478  11.996
 8211SOL    HW226467   4.838   0.331  11.960
 8212SOL     OW26468   5.613   9.919   6.716
 8212SOL    HW126469   5.675   9.858   6.756
 8212SOL    HW226470   5.669   9.979   6.666
 8213SOL     OW26471  13.833   2.338  13.794
 8213SOL    HW126472  13.902   2.301  13.850
 8213SOL    HW226473  13.850   2.301  13.708
 8214SOL     OW26474   7.284  13.945  12.168
 8214SOL    HW126475   7.213  13.910  12.222
 8214SOL    HW226476   7.347  13.981  12.231
 8215SOL     OW26477   6.619   7.574   3.691
 8215SOL    HW126478   6.704   7.585   3.732
 8215SOL    HW226479   6.635   7.590   3.598
 8216SOL     OW26480   5.881   6.437  14.466
 8216SOL    HW126481   5.878   6.457  14.372
 8216SOL    HW226482   5.789   6.436  14.493
 8217SOL     OW26483   9.084   9.808   0.738
 8217SOL    HW126484   9.080   9.716   0.712
 8217SOL    HW226485   9.175   9.823   0.762
 8218SOL     OW26486  14.102   8.581   8.883
 8218SOL    HW126487  14.067   8.579   8.973
 8218SOL    HW226488  14.074   8.666   8.849
 8219SOL     OW26489  11.462   8.157   1.935
 8219SOL    HW126490  11.470   8.251   1.919
 8219SOL    HW226491  11.431   8.150   2.025
 8220SOL     OW26492   2.643  12.378   8.820
 8220SOL    HW126493   2.621  12.295   8.778
 8220SOL    HW226494   2.652  12.440   8.748
 8221SOL     OW26495   6.030   8.096   7.054
 8221SOL    HW126496   6.056   8.180   7.016
 8221SOL    HW226497   6.022   8.114   7.148
 8222SOL     OW26498   6.361   7.253   2.452
 8222SOL    HW126499   6.400   7.297   2.376
 8222SOL    HW226500   6.308   7.321   2.494
 8223SOL     OW26501  11.114   7.595   6.061
 8223SOL    HW126502  11.188   7.589   6.121
 8223SOL    HW226503  11.101   7.689   6.049
 8224SOL     OW26504   9.239   0.964  10.473
 8224SOL    HW126505   9.219   0.905  10.545
 8224SOL    HW226506   9.170   0.948  10.409
 8225SOL     OW26507  11.395  14.662  12.966
 8225SOL    HW126508  11.350  14.626  12.890
 8225SOL    HW226509  11.485  14.675  12.937
 8226SOL     OW26510   7.982   2.048   0.993
 8226SOL    HW126511   7.906   2.033   1.050
 8226SOL    HW226512   7.947   2.037   0.904
 8227SOL     OW26513   7.575   2.648  12.103
 8227SOL    HW126514   7.600   2.621  12.014
 8227SOL    HW226515   7.480   2.658  12.099
 8228SOL     OW26516   7.231   5.982   8.808
 8228SOL    HW126517   7.259   6.069   8.777
 8228SOL    HW226518   7.296   5.922   8.771
 8229SOL     OW26519   8.631   5.584   7.999
 8229SOL    HW126520   8.653   5.547   7.913
 8229SOL    HW226521   8.691   5.657   8.010
 8230SOL     OW26522   4.208  10.480   6.355
 8230SOL    HW126523   4.135  10.466   6.415
 8230SOL    HW226524   4.222  10.575   6.357
 8231SOL     OW26525  11.004  10.219   8.531
 8231SOL    HW126526  11.017  10.245   8.440
 8231SOL    HW226527  11.091  10.226   8.571
 8232SOL     OW26528   1.616   7.666  12.123
 8232SOL    HW126529   1.628   7.571  12.124
 8232SOL    HW226530   1.687   7.698  12.067
 8233SOL     OW26531   4.080   0.668   6.806
 8233SOL    HW126532   4.146   0.673   6.737
 8233SOL    HW226533   4.016   0.605   6.773
 8234SOL     OW26534   3.751  10.141   5.907
 8234SOL    HW126535   3.692  10.215   5.888
 8234SOL    HW226536   3.822  10.180   5.957
 8235SOL     OW26537   2.501  10.371   9.620
 8235SOL    HW126538   2.415  10.409   9.639
 8235SOL    HW226539   2.560  10.447   9.613
 8236SOL     OW26540   8.007   0.547   9.304
 8236SOL    HW126541   8.049   0.565   9.220
 8236SOL    HW226542   8.010   0.630   9.351
 8237SOL     OW26543   6.766   3.187   8.370
 8237SOL    HW126544   6.732   3.266   8.327
 8237SOL    HW226545   6.859   3.188   8.350
 8238SOL     OW26546  10.020   9.259  14.008
 8238SOL    HW126547  10.057   9.343  13.980
 8238SOL    HW226548   9.967   9.230  13.934
 8239SOL     OW26549   9.431   4.755  10.084
 8239SOL    HW126550   9.391   4.707  10.158
 8239SOL    HW226551   9.383   4.837  10.081
 8240SOL     OW26552  12.166   2.513   3.651
 8240SOL    HW126553  12.177   2.428   3.693
 8240SOL    HW226554  12.132   2.493   3.564
 8241SOL     OW26555  10.243   1.913   7.380
 8241SOL    HW126556  10.149   1.893   7.378
 8241SOL    HW226557  10.281   1.844   7.433
 8242SOL     OW26558  14.826   6.409   0.935
 8242SOL    HW126559  14.826   6.435   1.027
 8242SOL    HW226560  14.735   6.384   0.917
 8243SOL     OW26561  10.350  10.877   6.672
 8243SOL    HW126562  10.409  10.953   6.668
 8243SOL    HW226563  10.355  10.848   6.763
 8244SOL     OW26564   9.508  12.146   5.549
 8244SOL    HW126565   9.443  12.155   5.618
 8244SOL    HW226566   9.543  12.234   5.537
 8245SOL     OW26567   5.093   9.495  12.979
 8245SOL    HW126568   5.080   9.567  12.917
 8245SOL    HW226569   5.012   9.444  12.973
 8246SOL     OW26570   6.465  10.512   2.027
 8246SOL    HW126571   6.539  10.516   1.965
 8246SOL    HW226572   6.451  10.602   2.054
 8247SOL     OW26573  14.537   4.610  10.385
 8247SOL    HW126574  14.540   4.681  10.449
 8247SOL    HW226575  14.617   4.620  10.334
 8248SOL     OW26576  13.109   9.783   2.060
 8248SOL    HW126577  13.171   9.831   2.116
 8248SOL    HW226578  13.152   9.699   2.045
 8249SOL     OW26579   4.609   5.540  13.755
 8249SOL    HW126580   4.691   5.526  13.707
 8249SOL    HW226581   4.627   5.504  13.842
 8250SOL     OW26582   7.465   8.280  12.499
 8250SOL    HW126583   7.525   8.268  12.425
 8250SOL    HW226584   7.497   8.358  12.544
 8251SOL     OW26585   8.326   9.446  13.782
 8251SOL    HW126586   8.324   9.368  13.839
 8251SOL    HW226587   8.267   9.508  13.825
 8252SOL     OW26588  11.811   8.979   4.501
 8252SOL    HW126589  11.761   9.016   4.575
 8252SOL    HW226590  11.900   8.968   4.535
 8253SOL     OW26591  11.053   5.258  11.904
 8253SOL    HW126592  11.075   5.310  11.982
 8253SOL    HW226593  11.130   5.204  11.889
 8254SOL     OW26594  13.824   8.039  13.884
 8254SOL    HW126595  13.814   8.115  13.826
 8254SOL    HW226596  13.905   7.997  13.855
 8255SOL     OW26597   1.709   0.030  11.619
 8255SOL    HW126598   1.768   0.101  11.640
 8255SOL    HW226599   1.636   0.072  11.574
 8256SOL     OW26600  12.699   9.117   6.828
 8256SOL    HW126601  12.772   9.080   6.877
 8256SOL    HW226602  12.635   9.046   6.822
 8257SOL     OW26603  11.522  14.242   8.954
 8257SOL    HW126604  11.471  14.314   8.917
 8257SOL    HW226605  11.499  14.241   9.047
 8258SOL     OW26606   5.503  10.864   2.210
 8258SOL    HW126607   5.507  10.775   2.176
 8258SOL    HW226608   5.568  10.912   2.159
 8259SOL     OW26609   8.503   5.256  10.895
 8259SOL    HW126610   8.536   5.228  10.980
 8259SOL    HW226611   8.553   5.205  10.831
 8260SOL     OW26612   3.776   4.315  10.911
 8260SOL    HW126613   3.692   4.285  10.947
 8260SOL    HW226614   3.842   4.276  10.970
 8261SOL     OW26615   7.714   7.898  10.283
 8261SOL    HW126616   7.737   7.918  10.374
 8261SOL    HW226617   7.797   7.870  10.244
 8262SOL     OW26618   4.740   8.235   0.677
 8262SOL    HW126619   4.758   8.256   0.586
 8262SOL    HW226620   4.651   8.200   0.677
 8263SOL     OW26621   8.136   4.313   2.886
 8263SOL    HW126622   8.204   4.334   2.822
 8263SOL    HW226623   8.057   4.302   2.834
 8264SOL     OW26624   9.346   8.200   4.300
 8264SOL    HW126625   9.275   8.252   4.338
 8264SOL    HW226626   9.324   8.109   4.321
 8265SOL     OW26627  14.538   7.227   4.074
 8265SOL    HW126628  14.503   7.297   4.130
 8265SOL    HW226629  14.570   7.161   4.134
 8266SOL     OW26630   1.336   5.500   8.170
 8266SOL    HW126631   1.250   5.509   8.210
 8266SOL    HW226632   1.321   5.444   8.094
 8267SOL     OW26633  11.814   7.743   3.056
 8267SOL    HW126634  11.909   7.742   3.043
 8267SOL    HW226635  11.778   7.732   2.968
 8268SOL     OW26636   8.904  11.287   3.142
 8268SOL    HW126637   8.945  11.350   3.083
 8268SOL    HW226638   8.810  11.300   3.131
 8269SOL     OW26639   5.058  12.370  14.080
 8269SOL    HW126640   4.980  12.330  14.042
 8269SOL    HW226641   5.025  12.426  14.150
 8270SOL     OW26642  11.144   7.341  11.812
 8270SOL    HW126643  11.134   7.376  11.900
 8270SOL    HW226644  11.056   7.317  11.785
 8271SOL     OW26645  11.960   1.020   2.246
 8271SOL    HW126646  11.984   1.108   2.276
 8271SOL    HW226647  12.041   0.986   2.207
 8272SOL     OW26648  14.562  13.159   1.097
 8272SOL    HW126649  14.600  13.247   1.103
 8272SOL    HW226650  14.488  13.160   1.158
 8273SOL     OW26651   9.686   6.210   5.465
 8273SOL    HW126652   9.754   6.158   5.508
 8273SOL    HW226653   9.692   6.186   5.373
 8274SOL     OW26654   0.904   9.228  14.635
 8274SOL    HW126655   0.951   9.311  14.639
 8274SOL    HW226656   0.970   9.164  14.609
 8275SOL     OW26657   2.799  13.125  10.254
 8275SOL    HW126658   2.813  13.130  10.160
 8275SOL    HW226659   2.725  13.065  10.264
 8276SOL     OW26660   0.735  14.601   2.726
 8276SOL    HW126661   0.756  14.548   2.649
 8276SOL    HW226662   0.641  14.593   2.737
 8277SOL     OW26663   0.558   9.421  13.278
 8277SOL    HW126664   0.522   9.411  13.366
 8277SOL    HW226665   0.653   9.412  13.290
 8278SOL     OW26666   2.605  12.652  11.991
 8278SOL    HW126667   2.667  12.599  12.042
 8278SOL    HW226668   2.613  12.619  11.902
 8279SOL     OW26669  10.331  14.096  12.709
 8279SOL    HW126670  10.377  14.107  12.792
 8279SOL    HW226671  10.392  14.129  12.643
 8280SOL     OW26672   4.640  12.967   3.646
 8280SOL    HW126673   4.687  12.884   3.645
 8280SOL    HW226674   4.695  13.025   3.699
 8281SOL     OW26675   2.500  12.320   9.665
 8281SOL    HW126676   2.473  12.374   9.590
 8281SOL    HW226677   2.497  12.230   9.633
 8282SOL     OW26678   2.225   8.338  10.317
 8282SOL    HW126679   2.278   8.356  10.239
 8282SOL    HW226680   2.285   8.296  10.378
 8283SOL     OW26681  10.908  13.920  12.092
 8283SOL    HW126682  10.865  14.005  12.084
 8283SOL    HW226683  10.995  13.941  12.127
 8284SOL     OW26684   2.503  11.908  13.898
 8284SOL    HW126685   2.595  11.887  13.885
 8284SOL    HW226686   2.491  11.903  13.993
 8285SOL     OW26687   8.248   1.062   5.673
 8285SOL    HW126688   8.209   1.013   5.745
 8285SOL    HW226689   8.323   1.009   5.645
 8286SOL     OW26690   3.911   3.447   7.802
 8286SOL    HW126691   3.927   3.400   7.884
 8286SOL    HW226692   3.989   3.431   7.749
 8287SOL     OW26693   7.051   8.577  13.165
 8287SOL    HW126694   6.992   8.651  13.150
 8287SOL    HW226695   7.073   8.546  13.078
 8288SOL     OW26696   1.759  14.483   1.027
 8288SOL    HW126697   1.671  14.507   1.054
 8288SOL    HW226698   1.784  14.551   0.964
 8289SOL     OW26699   1.241   6.502  12.898
 8289SOL    HW126700   1.319   6.508  12.843
 8289SOL    HW226701   1.174   6.551  12.850
 8290SOL     OW26702  12.172   5.781   2.102
 8290SOL    HW126703  12.141   5.776   2.192
 8290SOL    HW226704  12.104   5.738   2.051
 8291SOL     OW26705   2.178   4.968   7.378
 8291SOL    HW126706   2.202   4.923   7.458
 8291SOL    HW226707   2.221   4.918   7.308
 8292SOL     OW26708   9.168  10.161   1.394
 8292SOL    HW126709   9.104  10.105   1.352
 8292SOL    HW226710   9.135  10.174   1.483
 8293SOL     OW26711  13.227   3.552   7.322
 8293SOL    HW126712  13.141   3.522   7.294
 8293SOL    HW226713  13.234   3.642   7.290
 8294SOL     OW26714  13.458   6.364   6.697
 8294SOL    HW126715  13.550   6.386   6.709
 8294SOL    HW226716  13.442   6.293   6.759
 8295SOL     OW26717   0.669   4.103   4.591
 8295SOL    HW126718   0.743   4.061   4.548
 8295SOL    HW226719   0.639   4.038   4.655
 8296SOL     OW26720   2.956   6.146   5.737
 8296SOL    HW126721   2.888   6.113   5.678
 8296SOL    HW226722   2.908   6.200   5.800
 8297SOL     OW26723   8.662   1.224   6.184
 8297SOL    HW126724   8.688   1.310   6.150
 8297SOL    HW226725   8.595   1.193   6.123
 8298SOL     OW26726   6.248   9.008   1.205
 8298SOL    HW126727   6.302   8.943   1.251
 8298SOL    HW226728   6.213   9.064   1.274
 8299SOL     OW26729   8.615  11.204   4.018
 8299SOL    HW126730   8.702  11.243   4.022
 8299SOL    HW226731   8.582  11.227   3.931
 8300SOL     OW26732  10.792   2.125   5.698
 8300SOL    HW126733  10.760   2.173   5.622
 8300SOL    HW226734  10.805   2.192   5.765
 8301SOL     OW26735   6.374  14.857   3.414
 8301SOL    HW126736   6.392   0.026   3.330
 8301SOL    HW226737   6.355  14.766   3.391
 8302SOL     OW26738   9.078  13.217   2.365
 8302SOL    HW126739   9.114  13.260   2.287
 8302SOL    HW226740   9.005  13.273   2.391
 8303SOL     OW26741   0.613  10.959   8.282
 8303SOL    HW126742   0.624  10.870   8.314
 8303SOL    HW226743   0.545  10.997   8.339
 8304SOL     OW26744   6.807   0.427   4.547
 8304SOL    HW126745   6.900   0.450   4.548
 8304SOL    HW226746   6.794   0.377   4.628
 8305SOL     OW26747   6.805   0.740   8.713
 8305SOL    HW126748   6.831   0.651   8.688
 8305SOL    HW226749   6.744   0.728   8.785
 8306SOL     OW26750  11.220  12.106  11.476
 8306SOL    HW126751  11.299  12.055  11.492
 8306SOL    HW226752  11.248  12.175  11.415
 8307SOL     OW26753  10.085   9.093   3.114
 8307SOL    HW126754  10.111   9.185   3.119
 8307SOL    HW226755   9.990   9.095   3.104
 8308SOL     OW26756  13.515   6.428  11.611
 8308SOL    HW126757  13.572   6.385  11.547
 8308SOL    HW226758  13.483   6.357  11.666
 8309SOL     OW26759   7.497   9.610  10.559
 8309SOL    HW126760   7.536   9.524  10.545
 8309SOL    HW226761   7.436   9.621  10.487
 8310SOL     OW26762   0.018   3.404  14.511
 8310SOL    HW126763  14.822   3.362  14.562
 8310SOL    HW226764   0.083   3.335  14.498
 8311SOL     OW26765  11.440   8.528   9.911
 8311SOL    HW126766  11.411   8.437   9.897
 8311SOL    HW226767  11.494   8.524   9.990
 8312SOL     OW26768   1.597   0.594   5.360
 8312SOL    HW126769   1.557   0.602   5.274
 8312SOL    HW226770   1.591   0.682   5.398
 8313SOL     OW26771  10.667   9.619  14.255
 8313SOL    HW126772  10.690   9.631  14.163
 8313SOL    HW226773  10.684   9.704  14.295
 8314SOL     OW26774  14.355   5.180   3.943
 8314SOL    HW126775  14.338   5.111   4.008
 8314SOL    HW226776  14.303   5.154   3.867
 8315SOL     OW26777   7.484   6.797   2.614
 8315SOL    HW126778   7.502   6.708   2.644
 8315SOL    HW226779   7.565   6.825   2.570
 8316SOL     OW26780   1.768   0.960  11.566
 8316SOL    HW126781   1.771   0.914  11.650
 8316SOL    HW226782   1.858   0.990  11.552
 8317SOL     OW26783   1.575   3.025   2.365
 8317SOL    HW126784   1.480   3.024   2.358
 8317SOL    HW226785   1.603   3.093   2.304
 8318SOL     OW26786   6.718   6.910  11.487
 8318SOL    HW126787   6.724   6.817  11.508
 8318SOL    HW226788   6.769   6.920  11.406
 8319SOL     OW26789   0.193   2.560  10.818
 8319SOL    HW126790   0.242   2.641  10.834
 8319SOL    HW226791   0.181   2.557  10.723
 8320SOL     OW26792   8.703  12.455   0.738
 8320SOL    HW126793   8.742  12.385   0.790
 8320SOL    HW226794   8.617  12.470   0.778
 8321SOL     OW26795   3.024   9.441   9.279
 8321SOL    HW126796   2.941   9.396   9.264
 8321SOL    HW226797   3.040   9.489   9.197
 8322SOL     OW26798   5.908   6.501   6.570
 8322SOL    HW126799   5.837   6.438   6.559
 8322SOL    HW226800   5.980   6.464   6.520
 8323SOL     OW26801   8.091   0.519  11.130
 8323SOL    HW126802   8.084   0.526  11.035
 8323SOL    HW226803   8.106   0.426  11.147
 8324SOL     OW26804  11.973   0.159  10.267
 8324SOL    HW126805  11.897   0.154  10.325
 8324SOL    HW226806  12.002   0.068  10.257
 8325SOL     OW26807  10.784  12.015   2.039
 8325SOL    HW126808  10.699  11.975   2.025
 8325SOL    HW226809  10.801  12.063   1.957
 8326SOL     OW26810  12.017   9.182   7.741
 8326SOL    HW126811  11.966   9.124   7.797
 8326SOL    HW226812  11.963   9.191   7.662
 8327SOL     OW26813   8.623   6.253  10.042
 8327SOL    HW126814   8.612   6.339  10.000
 8327SOL    HW226815   8.647   6.195   9.969
 8328SOL     OW26816  13.266  10.410   4.785
 8328SOL    HW126817  13.262  10.504   4.767
 8328SOL    HW226818  13.265  10.369   4.699
 8329SOL     OW26819   9.632  14.691  11.893
 8329SOL    HW126820   9.560  14.734  11.939
 8329SOL    HW226821   9.594  14.610  11.860
 8330SOL     OW26822   6.369  13.528  14.232
 8330SOL    HW126823   6.440  13.547  14.294
 8330SOL    HW226824   6.289  13.543  14.282
 8331SOL     OW26825  12.602  11.163   2.388
 8331SOL    HW126826  12.593  11.213   2.307
 8331SOL    HW226827  12.673  11.101   2.371
 8332SOL     OW26828   2.438   4.038  11.582
 8332SOL    HW126829   2.369   4.022  11.647
 8332SOL    HW226830   2.394   4.084  11.511
 8333SOL     OW26831  12.412   9.704   9.083
 8333SOL    HW126832  12.378   9.658   9.160
 8333SOL    HW226833  12.376   9.792   9.089
 8334SOL     OW26834   1.886   0.243  12.500
 8334SOL    HW126835   1.822   0.174  12.483
 8334SOL    HW226836   1.873   0.306  12.428
 8335SOL     OW26837  13.603  10.666   8.244
 8335SOL    HW126838  13.530  10.609   8.220
 8335SOL    HW226839  13.563  10.751   8.260
 8336SOL     OW26840   9.972  12.750  11.061
 8336SOL    HW126841   9.990  12.662  11.028
 8336SOL    HW226842  10.058  12.790  11.073
 8337SOL     OW26843   0.945   5.779   7.868
 8337SOL    HW126844   0.883   5.729   7.815
 8337SOL    HW226845   0.937   5.742   7.956
 8338SOL     OW26846   1.930   9.694   8.985
 8338SOL    HW126847   1.914   9.623   8.923
 8338SOL    HW226848   1.846   9.740   8.989
 8339SOL     OW26849   6.752  12.983   0.811
 8339SOL    HW126850   6.758  13.077   0.829
 8339SOL    HW226851   6.692  12.976   0.738
 8340SOL     OW26852   3.154   3.034   6.034
 8340SOL    HW126853   3.212   2.966   6.068
 8340SOL    HW226854   3.198   3.116   6.057
 8341SOL     OW26855   7.035   7.546   8.024
 8341SOL    HW126856   7.096   7.525   7.954
 8341SOL    HW226857   6.967   7.478   8.018
 8342SOL     OW26858   6.120   9.836   1.733
 8342SOL    HW126859   6.036   9.883   1.732
 8342SOL    HW226860   6.168   9.875   1.807
 8343SOL     OW26861   9.414   6.573  12.022
 8343SOL    HW126862   9.357   6.634  11.977
 8343SOL    HW226863   9.392   6.584  12.115
 8344SOL     OW26864  11.540   9.532  11.317
 8344SOL    HW126865  11.504   9.588  11.386
 8344SOL    HW226866  11.542   9.587  11.239
 8345SOL     OW26867  13.576  14.104   4.175
 8345SOL    HW126868  13.650  14.086   4.117
 8345SOL    HW226869  13.616  14.139   4.254
 8346SOL     OW26870  12.612   2.741   1.648
 8346SOL    HW126871  12.682   2.681   1.623
 8346SOL    HW226872  12.534   2.685   1.657
 8347SOL     OW26873  10.446   0.584   4.519
 8347SOL    HW126874  10.447   0.494   4.485
 8347SOL    HW226875  10.511   0.584   4.589
 8348SOL     OW26876   6.679   8.152   2.062
 8348SOL    HW126877   6.658   8.111   1.978
 8348SOL    HW226878   6.618   8.113   2.125
 8349SOL     OW26879  12.183   5.585   1.148
 8349SOL    HW126880  12.245   5.629   1.207
 8349SOL    HW226881  12.228   5.505   1.122
 8350SOL     OW26882   1.008   7.896   3.873
 8350SOL    HW126883   1.028   7.929   3.960
 8350SOL    HW226884   1.093   7.873   3.836
 8351SOL     OW26885  13.475  14.562   9.065
 8351SOL    HW126886  13.509  14.621   8.997
 8351SOL    HW226887  13.505  14.475   9.038
 8352SOL     OW26888  12.578   4.556  10.664
 8352SOL    HW126889  12.554   4.579  10.753
 8352SOL    HW226890  12.614   4.468  10.670
 8353SOL     OW26891  10.154   6.336   0.603
 8353SOL    HW126892  10.089   6.399   0.636
 8353SOL    HW226893  10.127   6.252   0.641
 8354SOL     OW26894  14.126  12.400  12.209
 8354SOL    HW126895  14.214  12.436  12.224
 8354SOL    HW226896  14.122  12.385  12.115
 8355SOL     OW26897   9.922   2.201   1.923
 8355SOL    HW126898   9.878   2.276   1.964
 8355SOL    HW226899  10.002   2.237   1.886
 8356SOL     OW26900   0.753   3.721   2.116
 8356SOL    HW126901   0.841   3.757   2.124
 8356SOL    HW226902   0.767   3.628   2.095
 8357SOL     OW26903  14.120  14.527   2.196
 8357SOL    HW126904  14.083  14.592   2.255
 8357SOL    HW226905  14.049  14.504   2.136
 8358SOL     OW26906   5.725  12.216  13.591
 8358SOL    HW126907   5.752  12.175  13.509
 8358SOL    HW226908   5.717  12.143  13.653
 8359SOL     OW26909   7.354   3.573  14.066
 8359SOL    HW126910   7.393   3.651  14.028
 8359SOL    HW226911   7.354   3.589  14.160
 8360SOL     OW26912   0.574   8.698  10.874
 8360SOL    HW126913   0.630   8.759  10.923
 8360SOL    HW226914   0.598   8.712  10.782
 8361SOL     OW26915   0.187   6.390   8.061
 8361SOL    HW126916   0.255   6.374   8.127
 8361SOL    HW226917   0.203   6.324   7.994
 8362SOL     OW26918   3.585  14.198   8.019
 8362SOL    HW126919   3.667  14.151   8.033
 8362SOL    HW226920   3.516  14.134   8.036
 8363SOL     OW26921   9.631   3.585  12.748
 8363SOL    HW126922   9.673   3.643  12.684
 8363SOL    HW226923   9.647   3.497  12.715
 8364SOL     OW26924   5.758  13.217  13.646
 8364SOL    HW126925   5.725  13.132  13.615
 8364SOL    HW226926   5.835  13.195  13.698
 8365SOL     OW26927  10.405  14.456   7.823
 8365SOL    HW126928  10.311  14.462   7.839
 8365SOL    HW226929  10.439  14.407   7.898
 8366SOL     OW26930  13.030   5.223  12.363
 8366SOL    HW126931  13.021   5.188  12.452
 8366SOL    HW226932  13.034   5.318  12.375
 8367SOL     OW26933  13.212   1.000   4.882
 8367SOL    HW126934  13.186   0.919   4.927
 8367SOL    HW226935  13.284   0.972   4.824
 8368SOL     OW26936   5.890   3.016   0.721
 8368SOL    HW126937   5.852   2.936   0.758
 8368SOL    HW226938   5.976   2.989   0.690
 8369SOL     OW26939   4.942   4.629  12.144
 8369SOL    HW126940   4.896   4.554  12.106
 8369SOL    HW226941   5.025   4.632  12.098
 8370SOL     OW26942   6.069  12.575   3.455
 8370SOL    HW126943   6.055  12.670   3.451
 8370SOL    HW226944   6.132  12.563   3.526
 8371SOL     OW26945   9.420   7.135   4.917
 8371SOL    HW126946   9.482   7.141   4.991
 8371SOL    HW226947   9.349   7.194   4.940
 8372SOL     OW26948  10.560   5.426   7.076
 8372SOL    HW126949  10.605   5.457   6.997
 8372SOL    HW226950  10.626   5.374   7.122
 8373SOL     OW26951   9.878   9.400   6.516
 8373SOL    HW126952   9.903   9.435   6.602
 8373SOL    HW226953   9.857   9.308   6.534
 8374SOL     OW26954  12.554   7.802   7.693
 8374SOL    HW126955  12.634   7.797   7.746
 8374SOL    HW226956  12.498   7.862   7.742
 8375SOL     OW26957   0.488   9.045  11.323
 8375SOL    HW126958   0.574   9.023  11.287
 8375SOL    HW226959   0.426   9.019  11.255
 8376SOL     OW26960   1.740   3.352  13.949
 8376SOL    HW126961   1.813   3.382  14.003
 8376SOL    HW226962   1.713   3.269  13.989
 8377SOL     OW26963   3.980  12.404  13.071
 8377SOL    HW126964   3.948  12.489  13.102
 8377SOL    HW226965   3.932  12.340  13.124
 8378SOL     OW26966   6.760   6.225   2.727
 8378SOL    HW126967   6.792   6.175   2.802
 8378SOL    HW226968   6.705   6.294   2.766
 8379SOL     OW26969   3.437   2.938  14.647
 8379SOL    HW126970   3.447   2.843  14.653
 8379SOL    HW226971   3.344   2.950  14.626
 8380SOL     OW26972  11.223  12.758  11.447
 8380SOL    HW126973  11.152  12.796  11.395
 8380SOL    HW226974  11.200  12.665  11.455
 8381SOL     OW26975   0.676   6.262   0.065
 8381SOL    HW126976   0.764   6.268   0.103
 8381SOL    HW226977   0.688   6.208  14.859
 8382SOL     OW26978   6.269  13.465  13.600
 8382SOL    HW126979   6.336  13.448  13.666
 8382SOL    HW226980   6.317  13.505  13.528
 8383SOL     OW26981   5.131  10.631   8.850
 8383SOL    HW126982   5.076  10.670   8.918
 8383SOL    HW226983   5.068  10.599   8.785
 8384SOL     OW26984  10.235   7.216   4.892
 8384SOL    HW126985  10.157   7.159   4.894
 8384SOL    HW226986  10.259   7.219   4.799
 8385SOL     OW26987  13.557  12.820   2.324
 8385SOL    HW126988  13.611  12.741   2.329
 8385SOL    HW226989  13.620  12.892   2.326
 8386SOL     OW26990   6.997  10.625   8.213
 8386SOL    HW126991   7.009  10.718   8.198
 8386SOL    HW226992   6.936  10.620   8.287
 8387SOL     OW26993  10.071  11.306   1.452
 8387SOL    HW126994  10.001  11.352   1.404
 8387SOL    HW226995  10.082  11.357   1.532
 8388SOL     OW26996  14.258   1.657   5.932
 8388SOL    HW126997  14.218   1.576   5.901
 8388SOL    HW226998  14.308   1.631   6.009
 8389SOL     OW26999   9.375   7.486  10.672
 8389SOL    HW127000   9.289   7.523  10.651
 8389SOL    HW227001   9.434   7.525  10.608
 8390SOL     OW27002   7.672   9.099  12.873
 8390SOL    HW127003   7.590   9.079  12.827
 8390SOL    HW227004   7.713   9.167  12.820
 8391SOL     OW27005  14.006   3.712   8.037
 8391SOL    HW127006  14.079   3.702   7.975
 8391SOL    HW227007  14.028   3.791   8.087
 8392SOL     OW27008  14.690  11.058   1.504
 8392SOL    HW127009  14.640  10.990   1.550
 8392SOL    HW227010  14.654  11.060   1.416
 8393SOL     OW27011  11.491   4.261  13.002
 8393SOL    HW127012  11.492   4.282  13.095
 8393SOL    HW227013  11.401   4.231  12.985
 8394SOL     OW27014   1.844  13.059   5.265
 8394SOL    HW127015   1.841  12.969   5.298
 8394SOL    HW227016   1.830  13.113   5.343
 8395SOL     OW27017   4.327   3.724  12.082
 8395SOL    HW127018   4.402   3.752  12.030
 8395SOL    HW227019   4.256   3.782  12.055
 8396SOL     OW27020   2.387   8.667  11.823
 8396SOL    HW127021   2.469   8.713  11.843
 8396SOL    HW227022   2.342   8.663  11.907
 8397SOL     OW27023   2.369  10.763  10.702
 8397SOL    HW127024   2.380  10.809  10.785
 8397SOL    HW227025   2.352  10.672  10.728
 8398SOL     OW27026   7.500   4.606   3.362
 8398SOL    HW127027   7.525   4.684   3.312
 8398SOL    HW227028   7.582   4.572   3.396
 8399SOL     OW27029   0.545  11.934   2.333
 8399SOL    HW127030   0.483  11.969   2.396
 8399SOL    HW227031   0.600  11.874   2.384
 8400SOL     OW27032   5.512   9.221  12.272
 8400SOL    HW127033   5.562   9.232  12.191
 8400SOL    HW227034   5.453   9.148  12.254
 8401SOL     OW27035   5.821  12.792  11.971
 8401SOL    HW127036   5.900  12.824  11.928
 8401SOL    HW227037   5.757  12.780  11.900
 8402SOL     OW27038  10.518   2.385  10.560
 8402SOL    HW127039  10.492   2.384  10.468
 8402SOL    HW227040  10.556   2.472  10.573
 8403SOL     OW27041   8.972   7.031  12.515
 8403SOL    HW127042   8.974   7.013  12.609
 8403SOL    HW227043   8.885   7.068  12.500
 8404SOL     OW27044  12.820   8.278  14.244
 8404SOL    HW127045  12.790   8.190  14.221
 8404SOL    HW227046  12.843   8.272  14.337
 8405SOL     OW27047  12.661  10.607   9.706
 8405SOL    HW127048  12.622  10.535   9.755
 8405SOL    HW227049  12.685  10.568   9.622
 8406SOL     OW27050  11.932   5.300   4.914
 8406SOL    HW127051  11.970   5.387   4.904
 8406SOL    HW227052  11.877   5.289   4.836
 8407SOL     OW27053   3.300  14.639  14.677
 8407SOL    HW127054   3.320  14.683  14.594
 8407SOL    HW227055   3.382  14.596  14.702
 8408SOL     OW27056   7.386  13.905   7.670
 8408SOL    HW127057   7.364  13.812   7.670
 8408SOL    HW227058   7.477  13.909   7.699
 8409SOL     OW27059   6.340  13.006  13.094
 8409SOL    HW127060   6.378  12.955  13.023
 8409SOL    HW227061   6.246  12.992  13.086
 8410SOL     OW27062  10.040  14.026   0.678
 8410SOL    HW127063   9.948  14.029   0.651
 8410SOL    HW227064  10.041  13.962   0.749
 8411SOL     OW27065   6.670  14.317   3.721
 8411SOL    HW127066   6.614  14.295   3.796
 8411SOL    HW227067   6.727  14.387   3.753
 8412SOL     OW27068   5.199   2.610   2.697
 8412SOL    HW127069   5.141   2.652   2.633
 8412SOL    HW227070   5.153   2.529   2.721
 8413SOL     OW27071  10.587  12.011   1.294
 8413SOL    HW127072  10.563  11.922   1.320
 8413SOL    HW227073  10.567  12.065   1.370
 8414SOL     OW27074   5.088  12.487  13.361
 8414SOL    HW127075   5.123  12.484  13.449
 8414SOL    HW227076   5.025  12.559  13.362
 8415SOL     OW27077  11.848   0.380   3.921
 8415SOL    HW127078  11.807   0.375   3.835
 8415SOL    HW227079  11.942   0.387   3.902
 8416SOL     OW27080  10.802  13.794   3.004
 8416SOL    HW127081  10.791  13.849   3.082
 8416SOL    HW227082  10.776  13.706   3.032
 8417SOL     OW27083   5.234  13.524  14.100
 8417SOL    HW127084   5.323  13.559  14.093
 8417SOL    HW227085   5.182  13.581  14.044
 8418SOL     OW27086   2.683  13.990   9.190
 8418SOL    HW127087   2.681  13.901   9.225
 8418SOL    HW227088   2.776  14.009   9.177
 8419SOL     OW27089   2.447  13.968   5.374
 8419SOL    HW127090   2.434  14.000   5.463
 8419SOL    HW227091   2.522  14.018   5.342
 8420SOL     OW27092  10.894   1.418  13.550
 8420SOL    HW127093  10.807   1.450  13.575
 8420SOL    HW227094  10.880   1.373  13.467
 8421SOL     OW27095  12.817  11.679   1.411
 8421SOL    HW127096  12.905  11.711   1.434
 8421SOL    HW227097  12.818  11.674   1.315
 8422SOL     OW27098  13.541   7.654   9.099
 8422SOL    HW127099  13.494   7.725   9.143
 8422SOL    HW227100  13.582   7.695   9.023
 8423SOL     OW27101  14.401   2.131   2.519
 8423SOL    HW127102  14.320   2.141   2.570
 8423SOL    HW227103  14.403   2.038   2.496
 8424SOL     OW27104   4.892  10.035   1.468
 8424SOL    HW127105   4.927   9.999   1.386
 8424SOL    HW227106   4.880   9.959   1.525
 8425SOL     OW27107  14.342   9.912  14.704
 8425SOL    HW127108  14.326   9.892  14.612
 8425SOL    HW227109  14.315  10.003  14.714
 8426SOL     OW27110   3.098   0.106  13.448
 8426SOL    HW127111   3.137   0.175  13.394
 8426SOL    HW227112   3.009   0.096  13.414
 8427SOL     OW27113   5.844   0.055   1.997
 8427SOL    HW127114   5.825   0.076   1.906
 8427SOL    HW227115   5.762   0.019   2.031
 8428SOL     OW27116   3.458  12.662  13.996
 8428SOL    HW127117   3.518  12.737  13.987
 8428SOL    HW227118   3.471  12.633  14.087
 8429SOL     OW27119  10.957   7.755  12.616
 8429SOL    HW127120  10.885   7.815  12.632
 8429SOL    HW227121  10.983   7.773  12.525
 8430SOL     OW27122   5.028   0.443   7.659
 8430SOL    HW127123   4.937   0.469   7.674
 8430SOL    HW227124   5.070   0.521   7.625
 8431SOL     OW27125   8.565  13.526   4.399
 8431SOL    HW127126   8.656  13.498   4.403
 8431SOL    HW227127   8.538  13.507   4.309
 8432SOL     OW27128   8.978   5.828   7.577
 8432SOL    HW127129   9.002   5.894   7.642
 8432SOL    HW227130   8.935   5.877   7.507
 8433SOL     OW27131   9.251  11.298  13.226
 8433SOL    HW127132   9.263  11.223  13.166
 8433SOL    HW227133   9.177  11.346  13.188
 8434SOL     OW27134  12.250   2.574  11.823
 8434SOL    HW127135  12.231   2.533  11.907
 8434SOL    HW227136  12.213   2.514  11.758
 8435SOL     OW27137   9.291  14.679   7.810
 8435SOL    HW127138   9.202  14.651   7.829
 8435SOL    HW227139   9.281  14.751   7.748
 8436SOL     OW27140   7.046   4.914  10.909
 8436SOL    HW127141   6.991   4.858  10.963
 8436SOL    HW227142   6.993   4.932  10.831
 8437SOL     OW27143  14.659   9.893   8.157
 8437SOL    HW127144  14.696   9.949   8.226
 8437SOL    HW227145  14.618   9.954   8.096
 8438SOL     OW27146  12.607   7.752  14.273
 8438SOL    HW127147  12.565   7.702  14.344
 8438SOL    HW227148  12.534   7.787  14.223
 8439SOL     OW27149  10.223   8.300   2.458
 8439SOL    HW127150  10.137   8.287   2.499
 8439SOL    HW227151  10.285   8.290   2.529
 8440SOL     OW27152  12.401   0.080  10.786
 8440SOL    HW127153  12.403   0.166  10.828
 8440SOL    HW227154  12.468   0.030  10.833
 8441SOL     OW27155  14.841   0.612   2.327
 8441SOL    HW127156  14.794   0.575   2.402
 8441SOL    HW227157  14.852   0.705   2.350
 8442SOL     OW27158  14.330  10.412   5.932
 8442SOL    HW127159  14.290  10.491   5.895
 8442SOL    HW227160  14.309  10.417   6.025
 8443SOL     OW27161   5.030   6.743   4.093
 8443SOL    HW127162   4.936   6.725   4.091
 8443SOL    HW227163   5.070   6.667   4.051
 8444SOL     OW27164   1.466   3.368  10.415
 8444SOL    HW127165   1.480   3.292  10.471
 8444SOL    HW227166   1.444   3.331  10.330
 8445SOL     OW27167  13.138   6.757  10.936
 8445SOL    HW127168  13.093   6.735  10.855
 8445SOL    HW227169  13.068   6.777  10.998
 8446SOL     OW27170   7.075   0.282   7.623
 8446SOL    HW127171   7.029   0.365   7.632
 8446SOL    HW227172   7.098   0.278   7.530
 8447SOL     OW27173  13.025   8.138   4.664
 8447SOL    HW127174  13.109   8.094   4.669
 8447SOL    HW227175  12.963   8.078   4.706
 8448SOL     OW27176  12.445   8.907   0.954
 8448SOL    HW127177  12.518   8.892   1.015
 8448SOL    HW227178  12.367   8.905   1.009
 8449SOL     OW27179   3.003   5.947  10.736
 8449SOL    HW127180   3.056   5.919  10.811
 8449SOL    HW227181   2.961   6.028  10.765
 8450SOL     OW27182  14.065   1.177   6.518
 8450SOL    HW127183  14.037   1.265   6.493
 8450SOL    HW227184  13.985   1.133   6.545
 8451SOL     OW27185   0.670   8.246   2.580
 8451SOL    HW127186   0.669   8.270   2.673
 8451SOL    HW227187   0.714   8.161   2.578
 8452SOL     OW27188  14.012   8.572   9.577
 8452SOL    HW127189  14.007   8.496   9.519
 8452SOL    HW227190  14.105   8.593   9.583
 8453SOL     OW27191  13.488   6.759  13.882
 8453SOL    HW127192  13.427   6.763  13.955
 8453SOL    HW227193  13.531   6.674  13.890
 8454SOL     OW27194   5.999   6.891   3.078
 8454SOL    HW127195   6.052   6.815   3.101
 8454SOL    HW227196   5.979   6.880   2.986
 8455SOL     OW27197  12.399   6.064  11.649
 8455SOL    HW127198  12.471   6.047  11.711
 8455SOL    HW227199  12.341   6.123  11.696
 8456SOL     OW27200  14.202  11.336   0.751
 8456SOL    HW127201  14.173  11.380   0.831
 8456SOL    HW227202  14.152  11.255   0.748
 8457SOL     OW27203   0.052   3.773   4.148
 8457SOL    HW127204   0.014   3.775   4.060
 8457SOL    HW227205   0.124   3.711   4.142
 8458SOL     OW27206   4.009  10.915   2.185
 8458SOL    HW127207   4.069  10.967   2.132
 8458SOL    HW227208   4.011  10.956   2.271
 8459SOL     OW27209   6.537   0.955  13.553
 8459SOL    HW127210   6.549   1.006  13.634
 8459SOL    HW227211   6.581   1.007  13.486
 8460SOL     OW27212   9.151  14.534  11.050
 8460SOL    HW127213   9.099  14.465  11.010
 8460SOL    HW227214   9.231  14.538  10.997
 8461SOL     OW27215   8.475  10.474  13.762
 8461SOL    HW127216   8.390  10.456  13.723
 8461SOL    HW227217   8.462  10.459  13.856
 8462SOL     OW27218   2.756   4.001  11.160
 8462SOL    HW127219   2.715   4.070  11.107
 8462SOL    HW227220   2.690   3.980  11.226
 8463SOL     OW27221   9.625   2.577   8.318
 8463SOL    HW127222   9.543   2.609   8.356
 8463SOL    HW227223   9.613   2.588   8.224
 8464SOL     OW27224   8.744   9.388   6.979
 8464SOL    HW127225   8.709   9.476   6.964
 8464SOL    HW227226   8.832   9.402   7.013
 8465SOL     OW27227   0.189  11.579   2.361
 8465SOL    HW127228   0.206  11.497   2.316
 8465SOL    HW227229   0.274  11.608   2.394
 8466SOL     OW27230  12.047   6.746  10.994
 8466SOL    HW127231  11.969   6.784  10.955
 8466SOL    HW227232  12.018   6.663  11.031
 8467SOL     OW27233  13.294   3.443   3.033
 8467SOL    HW127234  13.209   3.453   3.076
 8467SOL    HW227235  13.341   3.524   3.053
 8468SOL     OW27236   2.416   3.402  13.103
 8468SOL    HW127237   2.341   3.406  13.162
 8468SOL    HW227238   2.490   3.435  13.153
 8469SOL     OW27239   6.462   2.453  11.656
 8469SOL    HW127240   6.440   2.375  11.708
 8469SOL    HW227241   6.422   2.526  11.704
 8470SOL     OW27242   4.639   4.652  12.642
 8470SOL    HW127243   4.598   4.672  12.726
 8470SOL    HW227244   4.573   4.600  12.596
 8471SOL     OW27245   8.663  14.620  12.408
 8471SOL    HW127246   8.619  14.680  12.348
 8471SOL    HW227247   8.756  14.641  12.401
 8472SOL     OW27248   0.112  11.246   9.195
 8472SOL    HW127249   0.026  11.263   9.235
 8472SOL    HW227250   0.106  11.285   9.108
 8473SOL     OW27251  12.611  13.942   4.109
 8473SOL    HW127252  12.640  13.993   4.034
 8473SOL    HW227253  12.515  13.939   4.100
 8474SOL     OW27254   7.713   3.515   4.548
 8474SOL    HW127255   7.763   3.524   4.629
 8474SOL    HW227256   7.664   3.597   4.541
 8475SOL     OW27257   3.732   2.833   3.312
 8475SOL    HW127258   3.648   2.864   3.276
 8475SOL    HW227259   3.749   2.891   3.386
 8476SOL     OW27260   2.581   3.776  10.551
 8476SOL    HW127261   2.579   3.826  10.632
 8476SOL    HW227262   2.673   3.753  10.538
 8477SOL     OW27263   3.454   7.322   8.515
 8477SOL    HW127264   3.511   7.288   8.584
 8477SOL    HW227265   3.494   7.406   8.491
 8478SOL     OW27266   8.779   6.280   1.764
 8478SOL    HW127267   8.776   6.375   1.762
 8478SOL    HW227268   8.697   6.254   1.806
 8479SOL     OW27269   5.664   4.009  14.324
 8479SOL    HW127270   5.636   3.980  14.412
 8479SOL    HW227271   5.587   4.054  14.289
 8480SOL     OW27272  11.803  12.643   8.867
 8480SOL    HW127273  11.768  12.715   8.815
 8480SOL    HW227274  11.771  12.564   8.824
 8481SOL     OW27275   1.607   2.110   8.338
 8481SOL    HW127276   1.619   2.018   8.317
 8481SOL    HW227277   1.692   2.150   8.322
 8482SOL     OW27278   7.622   5.456   8.462
 8482SOL    HW127279   7.556   5.407   8.413
 8482SOL    HW227280   7.692   5.393   8.479
 8483SOL     OW27281   3.093   1.370   2.299
 8483SOL    HW127282   3.014   1.316   2.304
 8483SOL    HW227283   3.065   1.456   2.332
 8484SOL     OW27284   3.298   4.760   2.673
 8484SOL    HW127285   3.235   4.723   2.735
 8484SOL    HW227286   3.313   4.691   2.609
 8485SOL     OW27287   3.386  10.237   5.308
 8485SOL    HW127288   3.304  10.188   5.306
 8485SOL    HW227289   3.454  10.170   5.311
 8486SOL     OW27290   7.386   5.704   0.270
 8486SOL    HW127291   7.388   5.610   0.252
 8486SOL    HW227292   7.332   5.713   0.348
 8487SOL     OW27293   4.982   0.050  12.294
 8487SOL    HW127294   4.896   0.090  12.310
 8487SOL    HW227295   5.036   0.122  12.263
 8488SOL     OW27296   5.614   0.709   7.151
 8488SOL    HW127297   5.691   0.663   7.184
 8488SOL    HW227298   5.644   0.798   7.134
 8489SOL     OW27299  10.256   6.528  13.969
 8489SOL    HW127300  10.164   6.519  13.943
 8489SOL    HW227301  10.303   6.538  13.886
 8490SOL     OW27302   7.695   7.999   5.277
 8490SOL    HW127303   7.738   7.922   5.314
 8490SOL    HW227304   7.605   7.995   5.309
 8491SOL     OW27305   7.368   5.710  14.610
 8491SOL    HW127306   7.408   5.741  14.691
 8491SOL    HW227307   7.365   5.614  14.619
 8492SOL     OW27308   5.929   3.248   5.781
 8492SOL    HW127309   6.019   3.217   5.770
 8492SOL    HW227310   5.928   3.334   5.740
 8493SOL     OW27311   9.381   7.459   4.303
 8493SOL    HW127312   9.436   7.390   4.339
 8493SOL    HW227313   9.340   7.499   4.380
 8494SOL     OW27314  11.482  10.627  13.417
 8494SOL    HW127315  11.391  10.605  13.438
 8494SOL    HW227316  11.495  10.713  13.457
 8495SOL     OW27317   1.060   2.264   8.854
 8495SOL    HW127318   1.028   2.353   8.841
 8495SOL    HW227319   1.155   2.271   8.841
 8496SOL     OW27320   7.792  14.106   9.412
 8496SOL    HW127321   7.727  14.055   9.461
 8496SOL    HW227322   7.811  14.053   9.335
 8497SOL     OW27323  11.991   5.985  12.222
 8497SOL    HW127324  11.965   5.894  12.237
 8497SOL    HW227325  12.068   5.998  12.277
 8498SOL     OW27326  11.584   1.481   2.557
 8498SOL    HW127327  11.575   1.549   2.490
 8498SOL    HW227328  11.676   1.457   2.555
 8499SOL     OW27329   6.039   6.421   7.747
 8499SOL    HW127330   6.077   6.336   7.772
 8499SOL    HW227331   5.945   6.409   7.757
 8500SOL     OW27332   5.350   9.347  11.037
 8500SOL    HW127333   5.419   9.324  10.975
 8500SOL    HW227334   5.328   9.438  11.015
 8501SOL     OW27335   5.598  12.180   6.259
 8501SOL    HW127336   5.555  12.252   6.213
 8501SOL    HW227337   5.532  12.110   6.261
 8502SOL     OW27338   3.584  14.536   8.735
 8502SOL    HW127339   3.626  14.499   8.657
 8502SOL    HW227340   3.653  14.587   8.777
 8503SOL     OW27341   0.039   9.427   6.963
 8503SOL    HW127342   0.057   9.449   6.872
 8503SOL    HW227343  14.849   9.494   6.992
 8504SOL     OW27344   4.806  10.834   8.017
 8504SOL    HW127345   4.851  10.918   8.013
 8504SOL    HW227346   4.876  10.769   8.014
 8505SOL     OW27347   0.755  10.171   7.187
 8505SOL    HW127348   0.848  10.174   7.166
 8505SOL    HW227349   0.714  10.137   7.107
 8506SOL     OW27350   5.017   5.488  10.359
 8506SOL    HW127351   4.971   5.423  10.413
 8506SOL    HW227352   4.955   5.509  10.289
 8507SOL     OW27353   7.658   5.694   2.417
 8507SOL    HW127354   7.625   5.783   2.431
 8507SOL    HW227355   7.709   5.700   2.337
 8508SOL     OW27356   3.644   9.250  11.299
 8508SOL    HW127357   3.563   9.233  11.347
 8508SOL    HW227358   3.688   9.316  11.352
 8509SOL     OW27359  11.533   3.858  11.360
 8509SOL    HW127360  11.512   3.806  11.438
 8509SOL    HW227361  11.533   3.794  11.289
 8510SOL     OW27362  10.153  12.840  12.107
 8510SOL    HW127363  10.146  12.817  12.014
 8510SOL    HW227364  10.190  12.929  12.107
 8511SOL     OW27365  11.887  12.931   7.638
 8511SOL    HW127366  11.891  12.888   7.552
 8511SOL    HW227367  11.938  12.873   7.695
 8512SOL     OW27368   1.844   0.331  14.311
 8512SOL    HW127369   1.821   0.395  14.244
 8512SOL    HW227370   1.917   0.372  14.359
 8513SOL     OW27371   1.375   4.821   3.261
 8513SOL    HW127372   1.455   4.862   3.228
 8513SOL    HW227373   1.404   4.737   3.296
 8514SOL     OW27374   3.491   8.565  13.999
 8514SOL    HW127375   3.533   8.481  14.018
 8514SOL    HW227376   3.560   8.630  14.012
 8515SOL     OW27377   4.290   9.467  10.243
 8515SOL    HW127378   4.266   9.508  10.159
 8515SOL    HW227379   4.385   9.461  10.240
 8516SOL     OW27380  13.613  13.959   3.582
 8516SOL    HW127381  13.633  13.892   3.648
 8516SOL    HW227382  13.535  13.926   3.537
 8517SOL     OW27383  14.575  12.161   3.210
 8517SOL    HW127384  14.577  12.254   3.232
 8517SOL    HW227385  14.662  12.128   3.234
 8518SOL     OW27386   4.289   9.730   3.090
 8518SOL    HW127387   4.300   9.726   2.995
 8518SOL    HW227388   4.195   9.737   3.103
 8519SOL     OW27389   2.093   4.175  14.025
 8519SOL    HW127390   2.121   4.237  13.958
 8519SOL    HW227391   2.170   4.120  14.041
 8520SOL     OW27392   4.575   2.199   6.320
 8520SOL    HW127393   4.555   2.207   6.414
 8520SOL    HW227394   4.559   2.287   6.285
 8521SOL     OW27395   7.585   0.214   1.490
 8521SOL    HW127396   7.579   0.309   1.476
 8521SOL    HW227397   7.631   0.181   1.413
 8522SOL     OW27398  10.729  10.898  14.872
 8522SOL    HW127399  10.796  10.966  14.861
 8522SOL    HW227400  10.778  10.818   0.018
 8523SOL     OW27401   6.511   4.492   0.107
 8523SOL    HW127402   6.551   4.518   0.024
 8523SOL    HW227403   6.536   4.562   0.168
 8524SOL     OW27404   8.627   1.390  10.756
 8524SOL    HW127405   8.647   1.469  10.805
 8524SOL    HW227406   8.567   1.341  10.812
 8525SOL     OW27407  12.681   9.616   8.125
 8525SOL    HW127408  12.738   9.551   8.084
 8525SOL    HW227409  12.635   9.567   8.194
 8526SOL     OW27410   4.980   5.323   5.738
 8526SOL    HW127411   5.017   5.398   5.784
 8526SOL    HW227412   5.056   5.277   5.703
 8527SOL     OW27413   0.375   6.818   1.064
 8527SOL    HW127414   0.312   6.809   1.136
 8527SOL    HW227415   0.389   6.729   1.033
 8528SOL     OW27416   6.188   0.363  10.096
 8528SOL    HW127417   6.128   0.426  10.136
 8528SOL    HW227418   6.251   0.416  10.049
 8529SOL     OW27419  10.672   9.523   2.814
 8529SOL    HW127420  10.757   9.506   2.854
 8529SOL    HW227421  10.693   9.559   2.728
 8530SOL     OW27422   6.027   9.634   4.316
 8530SOL    HW127423   6.058   9.717   4.353
 8530SOL    HW227424   5.932   9.644   4.310
 8531SOL     OW27425   6.679   9.815   1.812
 8531SOL    HW127426   6.624   9.885   1.776
 8531SOL    HW227427   6.738   9.791   1.740
 8532SOL     OW27428   9.723   7.342   1.034
 8532SOL    HW127429   9.738   7.251   1.007
 8532SOL    HW227430   9.771   7.394   0.970
 8533SOL     OW27431  10.478  11.145   2.168
 8533SOL    HW127432  10.398  11.114   2.127
 8533SOL    HW227433  10.529  11.183   2.096
 8534SOL     OW27434   6.451   9.987   7.410
 8534SOL    HW127435   6.438  10.065   7.356
 8534SOL    HW227436   6.541   9.994   7.441
 8535SOL     OW27437   0.271   4.938   6.967
 8535SOL    HW127438   0.306   4.992   6.895
 8535SOL    HW227439   0.269   4.849   6.930
 8536SOL     OW27440   0.515  11.139   6.850
 8536SOL    HW127441   0.526  11.045   6.868
 8536SOL    HW227442   0.539  11.149   6.758
 8537SOL     OW27443   3.519   4.505   1.528
 8537SOL    HW127444   3.611   4.498   1.553
 8537SOL    HW227445   3.486   4.580   1.578
 8538SOL     OW27446   5.815  12.580  11.643
 8538SOL    HW127447   5.732  12.594  11.688
 8538SOL    HW227448   5.802  12.616  11.556
 8539SOL     OW27449   4.552   6.448   8.975
 8539SOL    HW127450   4.628   6.502   8.996
 8539SOL    HW227451   4.489   6.466   9.045
 8540SOL     OW27452   6.844   2.708   8.282
 8540SOL    HW127453   6.761   2.753   8.300
 8540SOL    HW227454   6.830   2.619   8.315
 8541SOL     OW27455   6.780   3.324   6.637
 8541SOL    HW127456   6.792   3.247   6.580
 8541SOL    HW227457   6.844   3.311   6.707
 8542SOL     OW27458  14.641  13.540   9.884
 8542SOL    HW127459  14.578  13.583   9.941
 8542SOL    HW227460  14.629  13.581   9.799
 8543SOL     OW27461  13.551   7.779   7.416
 8543SOL    HW127462  13.562   7.702   7.361
 8543SOL    HW227463  13.611   7.765   7.489
 8544SOL     OW27464   3.957  10.712   8.791
 8544SOL    HW127465   3.993  10.639   8.843
 8544SOL    HW227466   3.922  10.772   8.856
 8545SOL     OW27467  11.340   1.834   4.947
 8545SOL    HW127468  11.319   1.847   4.855
 8545SOL    HW227469  11.436   1.838   4.951
 8546SOL     OW27470   1.149  10.680   1.814
 8546SOL    HW127471   1.205  10.705   1.887
 8546SOL    HW227472   1.089  10.754   1.803
 8547SOL     OW27473  11.054   4.903   7.692
 8547SOL    HW127474  11.076   4.839   7.625
 8547SOL    HW227475  10.958   4.904   7.693
 8548SOL     OW27476   8.838   8.156   3.060
 8548SOL    HW127477   8.804   8.216   2.993
 8548SOL    HW227478   8.776   8.162   3.132
 8549SOL     OW27479   7.493  10.255  10.560
 8549SOL    HW127480   7.417  10.223  10.512
 8549SOL    HW227481   7.534  10.320  10.502
 8550SOL     OW27482  12.261   1.335   6.537
 8550SOL    HW127483  12.191   1.360   6.597
 8550SOL    HW227484  12.333   1.308   6.594
 8551SOL     OW27485   6.500   0.850   4.985
 8551SOL    HW127486   6.452   0.774   5.017
 8551SOL    HW227487   6.433   0.909   4.952
 8552SOL     OW27488  11.732  13.628  10.215
 8552SOL    HW127489  11.668  13.637  10.286
 8552SOL    HW227490  11.743  13.533  10.206
 8553SOL     OW27491   9.925   0.437  14.804
 8553SOL    HW127492   9.977   0.514  14.782
 8553SOL    HW227493   9.951   0.415   0.020
 8554SOL     OW27494   6.886   0.241  11.325
 8554SOL    HW127495   6.978   0.214  11.326
 8554SOL    HW227496   6.837   0.159  11.323
 8555SOL     OW27497   0.045   9.315   5.640
 8555SOL    HW127498   0.060   9.228   5.679
 8555SOL    HW227499   0.061   9.376   5.712
 8556SOL     OW27500  13.794  13.623   0.187
 8556SOL    HW127501  13.816  13.654   0.099
 8556SOL    HW227502  13.711  13.665   0.207
 8557SOL     OW27503   3.400   9.111   4.940
 8557SOL    HW127504   3.398   9.163   4.859
 8557SOL    HW227505   3.402   9.020   4.909
 8558SOL     OW27506   7.260  14.102   9.568
 8558SOL    HW127507   7.275  14.176   9.509
 8558SOL    HW227508   7.172  14.117   9.603
 8559SOL     OW27509   5.591   2.833   0.030
 8559SOL    HW127510   5.686   2.824   0.040
 8559SOL    HW227511   5.576   2.822  14.809
 8560SOL     OW27512   0.277   9.256  13.560
 8560SOL    HW127513   0.281   9.209  13.477
 8560SOL    HW227514   0.194   9.230  13.599
 8561SOL     OW27515  13.502   6.120   7.869
 8561SOL    HW127516  13.571   6.172   7.827
 8561SOL    HW227517  13.540   6.094   7.953
 8562SOL     OW27518  13.839  13.671   9.491
 8562SOL    HW127519  13.814  13.739   9.428
 8562SOL    HW227520  13.773  13.603   9.480
 8563SOL     OW27521   4.857  14.267   8.138
 8563SOL    HW127522   4.864  14.188   8.086
 8563SOL    HW227523   4.781  14.313   8.102
 8564SOL     OW27524  10.109  14.291   3.298
 8564SOL    HW127525  10.112  14.208   3.252
 8564SOL    HW227526  10.164  14.277   3.375
 8565SOL     OW27527  14.332   5.182   2.977
 8565SOL    HW127528  14.277   5.258   2.997
 8565SOL    HW227529  14.388   5.172   3.054
 8566SOL     OW27530   4.955  11.845  14.810
 8566SOL    HW127531   4.859  11.843  14.803
 8566SOL    HW227532   4.981  11.753  14.810
 8567SOL     OW27533   2.666  12.181   0.331
 8567SOL    HW127534   2.652  12.146   0.419
 8567SOL    HW227535   2.588  12.154   0.282
 8568SOL     OW27536  12.553   4.889   6.615
 8568SOL    HW127537  12.472   4.938   6.601
 8568SOL    HW227538  12.527   4.815   6.669
 8569SOL     OW27539  14.030   9.740   6.296
 8569SOL    HW127540  13.986   9.791   6.229
 8569SOL    HW227541  14.050   9.657   6.254
 8570SOL     OW27542   0.207  10.952   4.454
 8570SOL    HW127543   0.267  10.943   4.528
 8570SOL    HW227544   0.144  11.019   4.482
 8571SOL     OW27545  14.681   6.039   1.779
 8571SOL    HW127546  14.713   6.003   1.697
 8571SOL    HW227547  14.756   6.085   1.816
 8572SOL     OW27548   1.430   9.761   5.963
 8572SOL    HW127549   1.336   9.779   5.972
 8572SOL    HW227550   1.443   9.677   6.006
 8573SOL     OW27551   6.184  10.554   2.764
 8573SOL    HW127552   6.127  10.560   2.687
 8573SOL    HW227553   6.246  10.626   2.754
 8574SOL     OW27554   0.389  11.271  11.001
 8574SOL    HW127555   0.298  11.290  10.978
 8574SOL    HW227556   0.421  11.217  10.929
 8575SOL     OW27557   2.488   1.904   6.211
 8575SOL    HW127558   2.540   1.980   6.187
 8575SOL    HW227559   2.427   1.893   6.138
 8576SOL     OW27560   6.640   1.236   0.333
 8576SOL    HW127561   6.675   1.306   0.389
 8576SOL    HW227562   6.717   1.201   0.288
 8577SOL     OW27563   3.290   6.631   8.546
 8577SOL    HW127564   3.322   6.542   8.529
 8577SOL    HW227565   3.284   6.671   8.460
 8578SOL     OW27566   5.947   5.678   0.724
 8578SOL    HW127567   5.941   5.647   0.815
 8578SOL    HW227568   5.857   5.682   0.694
 8579SOL     OW27569  14.851  11.428   0.959
 8579SOL    HW127570  14.869  11.492   0.890
 8579SOL    HW227571   0.004  11.473   1.040
 8580SOL     OW27572   7.109  14.263  12.374
 8580SOL    HW127573   7.028  14.288  12.420
 8580SOL    HW227574   7.094  14.173  12.346
 8581SOL     OW27575   6.039  14.473  12.498
 8581SOL    HW127576   6.119  14.422  12.511
 8581SOL    HW227577   6.019  14.463  12.405
 8582SOL     OW27578   2.135  10.204   3.072
 8582SOL    HW127579   2.111  10.135   3.010
 8582SOL    HW227580   2.063  10.268   3.065
 8583SOL     OW27581   1.278   7.256  10.075
 8583SOL    HW127582   1.185   7.255  10.052
 8583SOL    HW227583   1.322   7.218   9.999
 8584SOL     OW27584   7.716  12.521  10.181
 8584SOL    HW127585   7.645  12.472  10.223
 8584SOL    HW227586   7.744  12.465  10.108
 8585SOL     OW27587   1.875  13.899   3.477
 8585SOL    HW127588   1.919  13.815   3.475
 8585SOL    HW227589   1.828  13.904   3.393
 8586SOL     OW27590   2.193   1.338   3.987
 8586SOL    HW127591   2.183   1.295   3.902
 8586SOL    HW227592   2.117   1.396   3.993
 8587SOL     OW27593   1.498  14.777   4.264
 8587SOL    HW127594   1.538  14.844   4.319
 8587SOL    HW227595   1.526  14.799   4.175
 8588SOL     OW27596   5.633   3.328   4.239
 8588SOL    HW127597   5.626   3.408   4.291
 8588SOL    HW227598   5.543   3.302   4.222
 8589SOL     OW27599  12.381  12.847   4.482
 8589SOL    HW127600  12.415  12.758   4.485
 8589SOL    HW227601  12.341  12.856   4.396
 8590SOL     OW27602   9.029  14.325  10.929
 8590SOL    HW127603   8.940  14.349  10.903
 8590SOL    HW227604   9.019  14.281  11.013
 8591SOL     OW27605   9.680   2.479   3.131
 8591SOL    HW127606   9.586   2.481   3.108
 8591SOL    HW227607   9.703   2.571   3.145
 8592SOL     OW27608  11.069   9.503   3.912
 8592SOL    HW127609  11.071   9.436   3.844
 8592SOL    HW227610  11.034   9.581   3.869
 8593SOL     OW27611   5.662   8.639   7.317
 8593SOL    HW127612   5.624   8.625   7.404
 8593SOL    HW227613   5.748   8.597   7.321
 8594SOL     OW27614   8.380  13.717   9.056
 8594SOL    HW127615   8.414  13.753   8.974
 8594SOL    HW227616   8.401  13.624   9.053
 8595SOL     OW27617  10.541  12.134  11.232
 8595SOL    HW127618  10.471  12.198  11.216
 8595SOL    HW227619  10.547  12.128  11.327
 8596SOL     OW27620  10.849   1.677   9.910
 8596SOL    HW127621  10.894   1.607   9.958
 8596SOL    HW227622  10.785   1.631   9.856
 8597SOL     OW27623   0.313  12.138   0.606
 8597SOL    HW127624   0.296  12.062   0.661
 8597SOL    HW227625   0.261  12.124   0.528
 8598SOL     OW27626   8.930   8.440   1.983
 8598SOL    HW127627   8.990   8.370   2.010
 8598SOL    HW227628   8.850   8.423   2.033
 8599SOL     OW27629  12.180  13.202   8.631
 8599SOL    HW127630  12.151  13.234   8.546
 8599SOL    HW227631  12.110  13.145   8.662
 8600SOL     OW27632   9.932   8.020   0.378
 8600SOL    HW127633   9.953   7.932   0.408
 8600SOL    HW227634   9.863   8.050   0.437
 8601SOL     OW27635   9.399  11.051   0.887
 8601SOL    HW127636   9.327  11.110   0.866
 8601SOL    HW227637   9.424  11.012   0.803
 8602SOL     OW27638  11.217  13.771   9.807
 8602SOL    HW127639  11.206  13.813   9.721
 8602SOL    HW227640  11.149  13.810   9.862
 8603SOL     OW27641   7.121   8.675   8.410
 8603SOL    HW127642   7.172   8.741   8.457
 8603SOL    HW227643   7.030   8.693   8.436
 8604SOL     OW27644   8.738   7.383  13.637
 8604SOL    HW127645   8.676   7.342  13.576
 8604SOL    HW227646   8.767   7.311  13.693
 8605SOL     OW27647  13.288   9.710  13.152
 8605SOL    HW127648  13.248   9.793  13.126
 8605SOL    HW227649  13.365   9.735  13.203
 8606SOL     OW27650   1.845  12.174  13.495
 8606SOL    HW127651   1.846  12.098  13.553
 8606SOL    HW227652   1.860  12.138  13.407
 8607SOL     OW27653   4.611   6.869   9.823
 8607SOL    HW127654   4.577   6.897   9.738
 8607SOL    HW227655   4.548   6.804   9.854
 8608SOL     OW27656  11.738   8.036   9.131
 8608SOL    HW127657  11.780   8.056   9.215
 8608SOL    HW227658  11.768   8.105   9.072
 8609SOL     OW27659   3.236   7.558   6.796
 8609SOL    HW127660   3.312   7.510   6.763
 8609SOL    HW227661   3.209   7.509   6.874
 8610SOL     OW27662   0.100  13.069   1.291
 8610SOL    HW127663   0.174  13.013   1.268
 8610SOL    HW227664   0.099  13.136   1.223
 8611SOL     OW27665  14.662  11.134   0.814
 8611SOL    HW127666  14.578  11.111   0.854
 8611SOL    HW227667  14.728  11.097   0.873
 8612SOL     OW27668   8.182  12.378   7.620
 8612SOL    HW127669   8.233  12.451   7.655
 8612SOL    HW227670   8.141  12.339   7.698
 8613SOL     OW27671  14.621   1.194   3.485
 8613SOL    HW127672  14.655   1.231   3.566
 8613SOL    HW227673  14.664   1.108   3.478
 8614SOL     OW27674   9.499   1.194   0.413
 8614SOL    HW127675   9.445   1.273   0.413
 8614SOL    HW227676   9.572   1.215   0.354
 8615SOL     OW27677   9.924  10.473   9.442
 8615SOL    HW127678   9.876  10.500   9.364
 8615SOL    HW227679   9.956  10.555   9.480
 8616SOL     OW27680   9.889   4.964   5.332
 8616SOL    HW127681   9.867   4.961   5.239
 8616SOL    HW227682   9.937   5.046   5.343
 8617SOL     OW27683  13.604   3.666   6.793
 8617SOL    HW127684  13.654   3.681   6.713
 8617SOL    HW227685  13.601   3.752   6.836
 8618SOL     OW27686   8.272   9.313   6.093
 8618SOL    HW127687   8.331   9.239   6.107
 8618SOL    HW227688   8.322   9.390   6.120
 8619SOL     OW27689  12.821   7.702   8.332
 8619SOL    HW127690  12.886   7.632   8.343
 8619SOL    HW227691  12.849   7.771   8.392
 8620SOL     OW27692   5.524   1.698  11.338
 8620SOL    HW127693   5.548   1.624  11.284
 8620SOL    HW227694   5.585   1.694  11.412
 8621SOL     OW27695   0.880   6.386   2.356
 8621SOL    HW127696   0.901   6.294   2.372
 8621SOL    HW227697   0.860   6.422   2.442
 8622SOL     OW27698  13.248   7.657   8.695
 8622SOL    HW127699  13.222   7.651   8.602
 8622SOL    HW227700  13.328   7.605   8.701
 8623SOL     OW27701   3.101   5.801   1.132
 8623SOL    HW127702   3.137   5.884   1.163
 8623SOL    HW227703   3.132   5.794   1.041
 8624SOL     OW27704  10.137   4.695   8.784
 8624SOL    HW127705  10.059   4.681   8.837
 8624SOL    HW227706  10.205   4.721   8.846
 8625SOL     OW27707  10.879  12.313   7.232
 8625SOL    HW127708  10.938  12.274   7.296
 8625SOL    HW227709  10.937  12.354   7.168
 8626SOL     OW27710  12.427   7.371  10.612
 8626SOL    HW127711  12.459   7.296  10.563
 8626SOL    HW227712  12.453   7.353  10.702
 8627SOL     OW27713  11.763  10.353   8.407
 8627SOL    HW127714  11.777  10.347   8.312
 8627SOL    HW227715  11.687  10.411   8.415
 8628SOL     OW27716   3.104   7.416   6.408
 8628SOL    HW127717   3.195   7.415   6.440
 8628SOL    HW227718   3.060   7.479   6.465
 8629SOL     OW27719   7.996   5.379   7.997
 8629SOL    HW127720   7.982   5.473   8.014
 8629SOL    HW227721   8.091   5.370   7.988
 8630SOL     OW27722   5.938   7.811   7.118
 8630SOL    HW127723   5.863   7.789   7.064
 8630SOL    HW227724   5.963   7.899   7.090
 8631SOL     OW27725   2.037  10.221   4.348
 8631SOL    HW127726   2.123  10.203   4.310
 8631SOL    HW227727   2.051  10.298   4.403
 8632SOL     OW27728   8.907  11.885   4.523
 8632SOL    HW127729   8.866  11.965   4.491
 8632SOL    HW227730   8.995  11.886   4.487
 8633SOL     OW27731   1.806  12.054   6.433
 8633SOL    HW127732   1.751  11.977   6.449
 8633SOL    HW227733   1.758  12.104   6.366
 8634SOL     OW27734   0.029   0.740  10.079
 8634SOL    HW127735   0.116   0.726  10.116
 8634SOL    HW227736  14.864   0.652  10.074
 8635SOL     OW27737  12.734  12.316   5.906
 8635SOL    HW127738  12.785  12.286   5.831
 8635SOL    HW227739  12.659  12.257   5.910
 8636SOL     OW27740  10.657   3.801  12.362
 8636SOL    HW127741  10.692   3.887  12.386
 8636SOL    HW227742  10.585   3.786  12.422
 8637SOL     OW27743   4.388  12.971   7.995
 8637SOL    HW127744   4.310  12.915   7.990
 8637SOL    HW227745   4.364  13.049   7.945
 8638SOL     OW27746  14.218   5.136  13.340
 8638SOL    HW127747  14.181   5.092  13.416
 8638SOL    HW227748  14.186   5.086  13.265
 8639SOL     OW27749   8.930   9.900   2.083
 8639SOL    HW127750   8.911   9.970   2.021
 8639SOL    HW227751   9.001   9.851   2.043
 8640SOL     OW27752   7.816   9.968  12.989
 8640SOL    HW127753   7.796  10.055  13.025
 8640SOL    HW227754   7.868   9.925  13.056
 8641SOL     OW27755   8.406  12.082  10.525
 8641SOL    HW127756   8.396  12.171  10.558
 8641SOL    HW227757   8.371  12.027  10.596
 8642SOL     OW27758   1.831   1.014   2.457
 8642SOL    HW127759   1.873   1.064   2.527
 8642SOL    HW227760   1.740   1.044   2.459
 8643SOL     OW27761   9.701   5.097  10.651
 8643SOL    HW127762   9.768   5.049  10.602
 8643SOL    HW227763   9.728   5.189  10.645
 8644SOL     OW27764   7.254   1.589  13.908
 8644SOL    HW127765   7.159   1.590  13.905
 8644SOL    HW227766   7.275   1.557  13.996
 8645SOL     OW27767   7.548   5.755  10.873
 8645SOL    HW127768   7.627   5.787  10.916
 8645SOL    HW227769   7.491   5.832  10.867
 8646SOL     OW27770   6.972   0.923   6.967
 8646SOL    HW127771   7.020   0.986   6.913
 8646SOL    HW227772   6.929   0.865   6.904
 8647SOL     OW27773  11.949   2.802   1.317
 8647SOL    HW127774  11.969   2.868   1.383
 8647SOL    HW227775  11.939   2.852   1.236
 8648SOL     OW27776   5.357  13.790   7.434
 8648SOL    HW127777   5.421  13.777   7.364
 8648SOL    HW227778   5.410  13.807   7.512
 8649SOL     OW27779   8.322   3.938   0.144
 8649SOL    HW127780   8.406   3.950   0.187
 8649SOL    HW227781   8.257   3.947   0.215
 8650SOL     OW27782   5.280   6.297   1.387
 8650SOL    HW127783   5.220   6.258   1.451
 8650SOL    HW227784   5.349   6.232   1.377
 8651SOL     OW27785   3.049   8.459   8.928
 8651SOL    HW127786   3.067   8.405   9.005
 8651SOL    HW227787   3.004   8.400   8.868
 8652SOL     OW27788   4.539  10.872  13.541
 8652SOL    HW127789   4.503  10.949  13.585
 8652SOL    HW227790   4.511  10.879  13.450
 8653SOL     OW27791   2.399  11.040   3.961
 8653SOL    HW127792   2.307  11.027   3.937
 8653SOL    HW227793   2.445  10.966   3.921
 8654SOL     OW27794   3.221   8.183   7.027
 8654SOL    HW127795   3.272   8.247   7.076
 8654SOL    HW227796   3.177   8.131   7.095
 8655SOL     OW27797  10.299   0.818  11.192
 8655SOL    HW127798  10.287   0.868  11.273
 8655SOL    HW227799  10.225   0.757  11.190
 8656SOL     OW27800   0.754   3.910   0.831
 8656SOL    HW127801   0.844   3.924   0.862
 8656SOL    HW227802   0.753   3.948   0.743
 8657SOL     OW27803   0.396  14.652   6.555
 8657SOL    HW127804   0.399  14.566   6.512
 8657SOL    HW227805   0.374  14.632   6.646
 8658SOL     OW27806   1.598  14.039   6.257
 8658SOL    HW127807   1.584  13.964   6.314
 8658SOL    HW227808   1.555  14.015   6.175
 8659SOL     OW27809  14.822   6.982  13.502
 8659SOL    HW127810  14.781   7.002  13.418
 8659SOL    HW227811  14.771   6.909  13.537
 8660SOL     OW27812   8.937  12.844   2.232
 8660SOL    HW127813   8.865  12.891   2.275
 8660SOL    HW227814   8.991  12.812   2.304
 8661SOL     OW27815   0.634   8.382   8.559
 8661SOL    HW127816   0.586   8.460   8.586
 8661SOL    HW227817   0.568   8.312   8.555
 8662SOL     OW27818   7.257   8.333   8.626
 8662SOL    HW127819   7.189   8.295   8.681
 8662SOL    HW227820   7.218   8.341   8.539
 8663SOL     OW27821   1.622   1.405   1.723
 8663SOL    HW127822   1.618   1.324   1.774
 8663SOL    HW227823   1.708   1.402   1.681
 8664SOL     OW27824  10.517   5.741   5.443
 8664SOL    HW127825  10.607   5.740   5.476
 8664SOL    HW227826  10.520   5.687   5.364
 8665SOL     OW27827   4.862  14.815   1.987
 8665SOL    HW127828   4.849  14.754   2.060
 8665SOL    HW227829   4.813   0.020   2.012
 8666SOL     OW27830   1.260   8.386   8.576
 8666SOL    HW127831   1.321   8.385   8.503
 8666SOL    HW227832   1.174   8.394   8.536
 8667SOL     OW27833   5.103   1.365   9.100
 8667SOL    HW127834   5.012   1.342   9.119
 8667SOL    HW227835   5.152   1.325   9.171
 8668SOL     OW27836  13.992   8.170  12.391
 8668SOL    HW127837  13.967   8.112  12.462
 8668SOL    HW227838  13.939   8.249  12.405
 8669SOL     OW27839   0.054   0.795   7.099
 8669SOL    HW127840   0.144   0.795   7.133
 8669SOL    HW227841   0.056   0.734   7.026
 8670SOL     OW27842   2.744  11.969   5.853
 8670SOL    HW127843   2.765  11.991   5.943
 8670SOL    HW227844   2.655  11.934   5.856
 8671SOL     OW27845   9.403   6.332   2.890
 8671SOL    HW127846   9.410   6.251   2.941
 8671SOL    HW227847   9.314   6.330   2.853
 8672SOL     OW27848   2.345   9.944   5.025
 8672SOL    HW127849   2.353   9.946   4.929
 8672SOL    HW227850   2.364   9.853   5.048
 8673SOL     OW27851  10.103  14.679   3.635
 8673SOL    HW127852  10.055  14.738   3.694
 8673SOL    HW227853  10.081  14.591   3.667
 8674SOL     OW27854  14.444  10.866   1.141
 8674SOL    HW127855  14.373  10.894   1.199
 8674SOL    HW227856  14.437  10.770   1.139
 8675SOL     OW27857  12.330   2.398   8.183
 8675SOL    HW127858  12.346   2.323   8.125
 8675SOL    HW227859  12.416   2.440   8.192
 8676SOL     OW27860  13.524  12.861   0.781
 8676SOL    HW127861  13.573  12.780   0.768
 8676SOL    HW227862  13.476  12.848   0.863
 8677SOL     OW27863   6.518   3.458   1.362
 8677SOL    HW127864   6.565   3.375   1.361
 8677SOL    HW227865   6.538   3.498   1.277
 8678SOL     OW27866  13.732   5.794  10.752
 8678SOL    HW127867  13.775   5.800  10.837
 8678SOL    HW227868  13.719   5.700  10.738
 8679SOL     OW27869   1.471  12.336  10.055
 8679SOL    HW127870   1.387  12.294  10.034
 8679SOL    HW227871   1.519  12.270  10.104
 8680SOL     OW27872  10.603   8.860   1.378
 8680SOL    HW127873  10.644   8.858   1.291
 8680SOL    HW227874  10.592   8.768   1.401
 8681SOL     OW27875  14.272  12.539  10.235
 8681SOL    HW127876  14.266  12.446  10.212
 8681SOL    HW227877  14.309  12.540  10.323
 8682SOL     OW27878  14.719   9.069  13.047
 8682SOL    HW127879  14.766   9.140  13.092
 8682SOL    HW227880  14.631   9.072  13.084
 8683SOL     OW27881  10.612   7.091  12.758
 8683SOL    HW127882  10.695   7.123  12.722
 8683SOL    HW227883  10.549   7.161  12.739
 8684SOL     OW27884  13.448   5.292  11.077
 8684SOL    HW127885  13.536   5.293  11.114
 8684SOL    HW227886  13.438   5.204  11.041
 8685SOL     OW27887   6.699   6.457   7.970
 8685SOL    HW127888   6.659   6.477   8.054
 8685SOL    HW227889   6.633   6.483   7.905
 8686SOL     OW27890  14.242  12.321   6.724
 8686SOL    HW127891  14.150  12.314   6.697
 8686SOL    HW227892  14.262  12.238   6.766
 8687SOL     OW27893   3.853   8.405   7.960
 8687SOL    HW127894   3.796   8.365   7.895
 8687SOL    HW227895   3.840   8.353   8.040
 8688SOL     OW27896   0.123   4.170   5.705
 8688SOL    HW127897   0.121   4.264   5.718
 8688SOL    HW227898   0.070   4.155   5.626
 8689SOL     OW27899   8.253   2.210  13.851
 8689SOL    HW127900   8.242   2.303  13.871
 8689SOL    HW227901   8.170   2.185  13.809
 8690SOL     OW27902  10.544   3.828   1.551
 8690SOL    HW127903  10.632   3.797   1.570
 8690SOL    HW227904  10.555   3.919   1.525
 8691SOL     OW27905   0.249   3.433  12.959
 8691SOL    HW127906   0.332   3.401  12.923
 8691SOL    HW227907   0.192   3.441  12.883
 8692SOL     OW27908  10.343  12.501   7.294
 8692SOL    HW127909  10.357  12.572   7.357
 8692SOL    HW227910  10.340  12.422   7.347
 8693SOL     OW27911   5.537   6.015   1.210
 8693SOL    HW127912   5.480   5.999   1.285
 8693SOL    HW227913   5.477   6.027   1.136
 8694SOL     OW27914  11.828  12.496   4.558
 8694SOL    HW127915  11.888  12.423   4.541
 8694SOL    HW227916  11.761  12.459   4.616
 8695SOL     OW27917   6.868   2.619   9.339
 8695SOL    HW127918   6.785   2.635   9.294
 8695SOL    HW227919   6.929   2.680   9.298
 8696SOL     OW27920   2.234   7.712   9.898
 8696SOL    HW127921   2.174   7.714   9.823
 8696SOL    HW227922   2.200   7.641   9.953
 8697SOL     OW27923  10.949   6.879   7.765
 8697SOL    HW127924  11.041   6.897   7.785
 8697SOL    HW227925  10.945   6.784   7.755
 8698SOL     OW27926   4.243  11.676   0.998
 8698SOL    HW127927   4.312  11.742   0.996
 8698SOL    HW227928   4.287  11.595   1.024
 8699SOL     OW27929  14.589   3.964   9.253
 8699SOL    HW127930  14.628   3.880   9.278
 8699SOL    HW227931  14.565   3.953   9.161
 8700SOL     OW27932   8.861  10.766   5.604
 8700SOL    HW127933   8.836  10.858   5.604
 8700SOL    HW227934   8.777  10.718   5.606
 8701SOL     OW27935   2.748   7.345   5.969
 8701SOL    HW127936   2.724   7.351   6.061
 8701SOL    HW227937   2.719   7.259   5.941
 8702SOL     OW27938  11.977   5.435   2.147
 8702SOL    HW127939  11.908   5.378   2.113
 8702SOL    HW227940  11.960   5.439   2.242
 8703SOL     OW27941  10.258  13.921   6.980
 8703SOL    HW127942  10.183  13.924   6.922
 8703SOL    HW227943  10.231  13.972   7.057
 8704SOL     OW27944   1.122   2.277   7.138
 8704SOL    HW127945   1.169   2.359   7.121
 8704SOL    HW227946   1.171   2.235   7.209
 8705SOL     OW27947   2.216   4.451  11.349
 8705SOL    HW127948   2.121   4.459  11.342
 8705SOL    HW227949   2.239   4.509  11.422
 8706SOL     OW27950  13.661   4.008   0.728
 8706SOL    HW127951  13.670   4.001   0.633
 8706SOL    HW227952  13.591   3.947   0.750
 8707SOL     OW27953   3.260   9.437  11.169
 8707SOL    HW127954   3.211   9.358  11.195
 8707SOL    HW227955   3.220   9.508  11.219
 8708SOL     OW27956  11.053   0.854   5.200
 8708SOL    HW127957  10.991   0.820   5.265
 8708SOL    HW227958  10.999   0.904   5.139
 8709SOL     OW27959   9.632   2.184   9.614
 8709SOL    HW127960   9.552   2.221   9.575
 8709SOL    HW227961   9.704   2.228   9.569
 8710SOL     OW27962   2.112   6.794   5.406
 8710SOL    HW127963   2.072   6.720   5.361
 8710SOL    HW227964   2.129   6.763   5.495
 8711SOL     OW27965   2.280   0.477  13.383
 8711SOL    HW127966   2.188   0.481  13.407
 8711SOL    HW227967   2.283   0.420  13.306
 8712SOL     OW27968   8.408   2.311   5.930
 8712SOL    HW127969   8.327   2.358   5.913
 8712SOL    HW227970   8.397   2.228   5.884
 8713SOL     OW27971   1.900  14.252   4.542
 8713SOL    HW127972   1.926  14.328   4.594
 8713SOL    HW227973   1.825  14.282   4.492
 8714SOL     OW27974   2.493   5.639   4.405
 8714SOL    HW127975   2.420   5.699   4.426
 8714SOL    HW227976   2.524   5.668   4.319
 8715SOL     OW27977   9.074  14.736   9.377
 8715SOL    HW127978   9.088  14.764   9.467
 8715SOL    HW227979   8.979  14.732   9.367
 8716SOL     OW27980   6.735   8.315   9.599
 8716SOL    HW127981   6.687   8.299   9.518
 8716SOL    HW227982   6.699   8.397   9.633
 8717SOL     OW27983   0.941   4.890   1.395
 8717SOL    HW127984   0.913   4.956   1.458
 8717SOL    HW227985   0.859   4.850   1.364
 8718SOL     OW27986   3.773   8.162   7.079
 8718SOL    HW127987   3.817   8.078   7.066
 8718SOL    HW227988   3.714   8.147   7.153
 8719SOL     OW27989  14.388   5.233  14.062
 8719SOL    HW127990  14.475   5.239  14.103
 8719SOL    HW227991  14.399   5.170  13.991
 8720SOL     OW27992   0.547   9.934   8.862
 8720SOL    HW127993   0.518   9.843   8.868
 8720SOL    HW227994   0.544   9.955   8.769
 8721SOL     OW27995   6.326   7.671   5.373
 8721SOL    HW127996   6.402   7.649   5.320
 8721SOL    HW227997   6.251   7.653   5.316
 8722SOL     OW27998   1.054   8.976  12.109
 8722SOL    HW127999   1.061   9.040  12.038
 8722SOL    HW228000   0.964   8.944  12.104
 8723SOL     OW28001  13.393   0.238   2.852
 8723SOL    HW128002  13.440   0.304   2.801
 8723SOL    HW228003  13.360   0.285   2.929
 8724SOL     OW28004  10.495  14.068  10.683
 8724SOL    HW128005  10.496  14.141  10.744
 8724SOL    HW228006  10.413  14.078  10.634
 8725SOL     OW28007  11.964  12.768  12.105
 8725SOL    HW128008  11.929  12.710  12.038
 8725SOL    HW228009  11.997  12.709  12.173
 8726SOL     OW28010   9.575  10.011   1.566
 8726SOL    HW128011   9.536   9.924   1.578
 8726SOL    HW228012   9.514  10.056   1.508
 8727SOL     OW28013   7.037   8.828   3.605
 8727SOL    HW128014   7.086   8.910   3.616
 8727SOL    HW228015   6.978   8.846   3.532
 8728SOL     OW28016   2.823   6.862   8.956
 8728SOL    HW128017   2.884   6.800   8.996
 8728SOL    HW228018   2.872   6.943   8.949
 8729SOL     OW28019   0.023   0.234  14.723
 8729SOL    HW128020  14.835   0.180  14.673
 8729SOL    HW228021   0.038   0.310  14.668
 8730SOL     OW28022  12.097   4.727   0.288
 8730SOL    HW128023  12.057   4.721   0.374
 8730SOL    HW228024  12.024   4.733   0.227
 8731SOL     OW28025   0.190   2.724   1.473
 8731SOL    HW128026   0.242   2.651   1.507
 8731SOL    HW228027   0.233   2.802   1.508
 8732SOL     OW28028   1.188  12.824   1.743
 8732SOL    HW128029   1.101  12.851   1.713
 8732SOL    HW228030   1.236  12.805   1.662
 8733SOL     OW28031  10.556  14.444  12.508
 8733SOL    HW128032  10.524  14.488  12.587
 8733SOL    HW228033  10.536  14.505  12.437
 8734SOL     OW28034   6.541  12.054   5.240
 8734SOL    HW128035   6.589  11.985   5.285
 8734SOL    HW228036   6.537  12.126   5.304
 8735SOL     OW28037   9.546   5.816   1.960
 8735SOL    HW128038   9.598   5.765   2.022
 8735SOL    HW228039   9.533   5.757   1.886
 8736SOL     OW28040  13.760   1.620   6.234
 8736SOL    HW128041  13.760   1.666   6.150
 8736SOL    HW228042  13.670   1.587   6.243
 8737SOL     OW28043   1.700   2.671  10.487
 8737SOL    HW128044   1.663   2.701  10.570
 8737SOL    HW228045   1.641   2.707  10.420
 8738SOL     OW28046   4.429   9.051  11.888
 8738SOL    HW128047   4.478   9.109  11.830
 8738SOL    HW228048   4.439   8.964  11.849
 8739SOL     OW28049  11.240  11.490  13.965
 8739SOL    HW128050  11.334  11.503  13.954
 8739SOL    HW228051  11.216  11.545  14.040
 8740SOL     OW28052   2.593  12.717   4.496
 8740SOL    HW128053   2.674  12.677   4.464
 8740SOL    HW228054   2.621  12.778   4.564
 8741SOL     OW28055  12.104  13.987   3.000
 8741SOL    HW128056  12.165  13.916   3.019
 8741SOL    HW228057  12.087  14.028   3.085
 8742SOL     OW28058  12.633  12.058  12.485
 8742SOL    HW128059  12.672  12.114  12.417
 8742SOL    HW228060  12.680  12.082  12.565
 8743SOL     OW28061   7.779   2.204   6.435
 8743SOL    HW128062   7.702   2.260   6.423
 8743SOL    HW228063   7.840   2.259   6.485
 8744SOL     OW28064  12.468  11.196   3.814
 8744SOL    HW128065  12.438  11.183   3.904
 8744SOL    HW228066  12.483  11.291   3.808
 8745SOL     OW28067  10.715   4.051   8.895
 8745SOL    HW128068  10.806   4.030   8.915
 8745SOL    HW228069  10.697   4.002   8.814
 8746SOL     OW28070   0.245   1.301   2.487
 8746SOL    HW128071   0.244   1.215   2.529
 8746SOL    HW228072   0.156   1.314   2.455
 8747SOL     OW28073  13.147   3.927   0.094
 8747SOL    HW128074  13.219   3.912   0.155
 8747SOL    HW228075  13.181   3.993   0.033
 8748SOL     OW28076   2.556   6.842  11.506
 8748SOL    HW128077   2.497   6.897  11.557
 8748SOL    HW228078   2.503   6.810  11.433
 8749SOL     OW28079   8.191   0.221   9.299
 8749SOL    HW128080   8.180   0.265   9.383
 8749SOL    HW228081   8.169   0.130   9.316
 8750SOL     OW28082   5.354   8.910  11.760
 8750SOL    HW128083   5.409   8.973  11.714
 8750SOL    HW228084   5.355   8.938  11.852
 8751SOL     OW28085  11.674   3.278   6.086
 8751SOL    HW128086  11.690   3.210   6.021
 8751SOL    HW228087  11.748   3.339   6.076
 8752SOL     OW28088  14.569   6.093  10.435
 8752SOL    HW128089  14.551   6.180  10.401
 8752SOL    HW228090  14.595   6.042  10.357
 8753SOL     OW28091  10.183  14.422   2.698
 8753SOL    HW128092  10.134  14.460   2.770
 8753SOL    HW228093  10.132  14.443   2.620
 8754SOL     OW28094  14.644  14.368  11.804
 8754SOL    HW128095  14.595  14.287  11.815
 8754SOL    HW228096  14.611  14.426  11.873
 8755SOL     OW28097   5.994  11.280   2.417
 8755SOL    HW128098   6.045  11.262   2.338
 8755SOL    HW228099   5.946  11.199   2.433
 8756SOL     OW28100   6.706   0.854   7.700
 8756SOL    HW128101   6.799   0.860   7.721
 8756SOL    HW228102   6.669   0.795   7.765
 8757SOL     OW28103   4.298  13.985   0.092
 8757SOL    HW128104   4.302  13.892   0.072
 8757SOL    HW228105   4.321  14.029   0.010
 8758SOL     OW28106  12.616   8.867  13.128
 8758SOL    HW128107  12.693   8.811  13.136
 8758SOL    HW228108  12.543   8.812  13.155
 8759SOL     OW28109   4.826  13.020  13.620
 8759SOL    HW128110   4.887  13.090  13.645
 8759SOL    HW228111   4.780  12.999  13.700
 8760SOL     OW28112   6.450  11.218   6.249
 8760SOL    HW128113   6.374  11.171   6.215
 8760SOL    HW228114   6.430  11.310   6.232
 8761SOL     OW28115   5.791   8.880   7.439
 8761SOL    HW128116   5.710   8.931   7.433
 8761SOL    HW228117   5.795   8.831   7.357
 8762SOL     OW28118  11.762   0.899   6.204
 8762SOL    HW128119  11.765   0.804   6.201
 8762SOL    HW228120  11.707   0.925   6.130
 8763SOL     OW28121   8.963   1.241   4.181
 8763SOL    HW128122   8.871   1.224   4.204
 8763SOL    HW228123   8.982   1.327   4.218
 8764SOL     OW28124   1.231   6.515   4.484
 8764SOL    HW128125   1.168   6.584   4.464
 8764SOL    HW228126   1.300   6.558   4.534
 8765SOL     OW28127   1.494  13.620   3.481
 8765SOL    HW128128   1.551  13.577   3.418
 8765SOL    HW228129   1.478  13.707   3.444
 8766SOL     OW28130   9.100  13.374   0.035
 8766SOL    HW128131   9.065  13.424  14.834
 8766SOL    HW228132   9.094  13.283   0.007
 8767SOL     OW28133   1.048  10.320  14.015
 8767SOL    HW128134   0.955  10.338  14.003
 8767SOL    HW228135   1.082  10.394  14.065
 8768SOL     OW28136   1.777  11.343   1.935
 8768SOL    HW128137   1.788  11.248   1.938
 8768SOL    HW228138   1.695  11.359   1.983
 8769SOL     OW28139   0.606  12.575   5.500
 8769SOL    HW128140   0.515  12.545   5.491
 8769SOL    HW228141   0.649  12.505   5.549
 8770SOL     OW28142   9.332  14.677   2.808
 8770SOL    HW128143   9.390  14.746   2.840
 8770SOL    HW228144   9.386  14.627   2.746
 8771SOL     OW28145   4.703  14.690  10.297
 8771SOL    HW128146   4.762  14.764  10.298
 8771SOL    HW228147   4.754  14.617  10.333
 8772SOL     OW28148   1.467   1.820   9.074
 8772SOL    HW128149   1.486   1.729   9.052
 8772SOL    HW228150   1.432   1.857   8.992
 8773SOL     OW28151   9.001   1.772   5.422
 8773SOL    HW128152   8.991   1.850   5.476
 8773SOL    HW228153   9.071   1.722   5.464
 8774SOL     OW28154   0.328   5.444  13.719
 8774SOL    HW128155   0.406   5.394  13.743
 8774SOL    HW228156   0.270   5.435  13.794
 8775SOL     OW28157   6.210  13.284   2.321
 8775SOL    HW128158   6.257  13.207   2.290
 8775SOL    HW228159   6.253  13.358   2.278
 8776SOL     OW28160   4.648   1.974  13.120
 8776SOL    HW128161   4.668   1.882  13.104
 8776SOL    HW228162   4.562   1.987  13.080
 8777SOL     OW28163  14.636   8.027  11.632
 8777SOL    HW128164  14.558   8.077  11.609
 8777SOL    HW228165  14.696   8.091  11.669
 8778SOL     OW28166   2.047  10.396   1.904
 8778SOL    HW128167   1.997  10.364   1.829
 8778SOL    HW228168   2.128  10.431   1.866
 8779SOL     OW28169   9.126  10.019  11.086
 8779SOL    HW128170   9.057   9.971  11.040
 8779SOL    HW228171   9.148  10.091  11.027
 8780SOL     OW28172   9.452   6.248   9.955
 8780SOL    HW128173   9.466   6.334   9.915
 8780SOL    HW228174   9.397   6.266  10.031
 8781SOL     OW28175  14.372   1.922   9.349
 8781SOL    HW128176  14.378   2.016   9.332
 8781SOL    HW228177  14.311   1.915   9.422
 8782SOL     OW28178   8.717  14.185   3.492
 8782SOL    HW128179   8.646  14.249   3.485
 8782SOL    HW228180   8.721  14.144   3.405
 8783SOL     OW28181   6.816   8.435   6.695
 8783SOL    HW128182   6.911   8.424   6.700
 8783SOL    HW228183   6.781   8.349   6.720
 8784SOL     OW28184   7.050   0.228   8.566
 8784SOL    HW128185   7.017   0.300   8.621
 8784SOL    HW228186   7.141   0.217   8.594
 8785SOL     OW28187  12.730   8.213  12.072
 8785SOL    HW128188  12.641   8.177  12.072
 8785SOL    HW228189  12.767   8.187  11.988
 8786SOL     OW28190   4.659   2.361   3.651
 8786SOL    HW128191   4.676   2.267   3.652
 8786SOL    HW228192   4.667   2.386   3.559
 8787SOL     OW28193   4.551   9.464  12.586
 8787SOL    HW128194   4.625   9.520  12.565
 8787SOL    HW228195   4.474   9.517  12.565
 8788SOL     OW28196   0.208   1.741  10.351
 8788SOL    HW128197   0.191   1.831  10.379
 8788SOL    HW228198   0.214   1.692  10.433
 8789SOL     OW28199   5.301   4.004  11.303
 8789SOL    HW128200   5.242   4.079  11.295
 8789SOL    HW228201   5.331   4.007  11.394
 8790SOL     OW28202   3.984   4.335   1.911
 8790SOL    HW128203   4.058   4.285   1.946
 8790SOL    HW228204   4.014   4.366   1.826
 8791SOL     OW28205   0.130   0.236  10.904
 8791SOL    HW128206   0.036   0.243  10.921
 8791SOL    HW228207   0.152   0.146  10.928
 8792SOL     OW28208   2.462  10.576  11.440
 8792SOL    HW128209   2.413  10.637  11.496
 8792SOL    HW228210   2.425  10.491  11.460
 8793SOL     OW28211   4.080   1.181  12.672
 8793SOL    HW128212   4.056   1.255  12.616
 8793SOL    HW228213   4.086   1.107  12.612
 8794SOL     OW28214  14.500  10.838   4.454
 8794SOL    HW128215  14.427  10.876   4.504
 8794SOL    HW228216  14.560  10.804   4.521
 8795SOL     OW28217   3.978   8.483   9.085
 8795SOL    HW128218   4.028   8.403   9.100
 8795SOL    HW228219   3.979   8.495   8.990
 8796SOL     OW28220  11.839  14.814   6.785
 8796SOL    HW128221  11.758  14.859   6.807
 8796SOL    HW228222  11.909   0.001   6.812
 8797SOL     OW28223   5.448   3.331  10.606
 8797SOL    HW128224   5.423   3.395  10.672
 8797SOL    HW228225   5.448   3.247  10.653
 8798SOL     OW28226  14.697   3.405   5.101
 8798SOL    HW128227  14.732   3.485   5.061
 8798SOL    HW228228  14.604   3.423   5.114
 8799SOL     OW28229   7.556  12.405  14.476
 8799SOL    HW128230   7.618  12.332  14.476
 8799SOL    HW228231   7.487  12.378  14.536
 8800SOL     OW28232  10.135  11.837   0.857
 8800SOL    HW128233  10.084  11.863   0.934
 8800SOL    HW228234  10.226  11.842   0.885
 8801SOL     OW28235   3.529   5.074  10.060
 8801SOL    HW128236   3.508   5.157  10.017
 8801SOL    HW228237   3.612   5.090  10.104
 8802SOL     OW28238   2.532   9.549   8.914
 8802SOL    HW128239   2.447   9.506   8.924
 8802SOL    HW228240   2.559   9.570   9.003
 8803SOL     OW28241  10.669   3.562   2.514
 8803SOL    HW128242  10.725   3.619   2.461
 8803SOL    HW228243  10.592   3.546   2.460
 8804SOL     OW28244   5.122   5.895  10.149
 8804SOL    HW128245   5.050   5.948  10.114
 8804SOL    HW228246   5.170   5.954  10.207
 8805SOL     OW28247   6.623   3.400  14.790
 8805SOL    HW128248   6.544   3.348  14.805
 8805SOL    HW228249   6.658   3.368  14.707
 8806SOL     OW28250  12.688   3.642   0.361
 8806SOL    HW128251  12.702   3.728   0.400
 8806SOL    HW228252  12.593   3.628   0.369
 8807SOL     OW28253   2.481   1.250   2.280
 8807SOL    HW128254   2.552   1.189   2.299
 8807SOL    HW228255   2.444   1.218   2.197
 8808SOL     OW28256   7.321   5.687   2.593
 8808SOL    HW128257   7.331   5.769   2.640
 8808SOL    HW228258   7.294   5.712   2.505
 8809SOL     OW28259   4.405   0.547   3.953
 8809SOL    HW128260   4.375   0.575   4.040
 8809SOL    HW228261   4.378   0.617   3.894
 8810SOL     OW28262  12.695  12.099   7.188
 8810SOL    HW128263  12.714  12.187   7.157
 8810SOL    HW228264  12.644  12.111   7.268
 8811SOL     OW28265   4.739   5.057  12.148
 8811SOL    HW128266   4.789   5.015  12.218
 8811SOL    HW228267   4.661   5.091  12.191
 8812SOL     OW28268  14.299  11.975   0.245
 8812SOL    HW128269  14.232  11.915   0.278
 8812SOL    HW228270  14.377  11.956   0.297
 8813SOL     OW28271  11.955   8.370   9.398
 8813SOL    HW128272  11.893   8.428   9.355
 8813SOL    HW228273  11.940   8.383   9.492
 8814SOL     OW28274   7.569   5.228   2.606
 8814SOL    HW128275   7.546   5.142   2.571
 8814SOL    HW228276   7.579   5.214   2.700
 8815SOL     OW28277   4.624   5.333   7.094
 8815SOL    HW128278   4.563   5.315   7.022
 8815SOL    HW228279   4.701   5.370   7.051
 8816SOL     OW28280   0.721   7.995   5.246
 8816SOL    HW128281   0.765   7.913   5.266
 8816SOL    HW228282   0.718   7.998   5.150
 8817SOL     OW28283   1.428   0.325   5.172
 8817SOL    HW128284   1.466   0.271   5.241
 8817SOL    HW228285   1.334   0.318   5.185
 8818SOL     OW28286   1.774   5.179   5.357
 8818SOL    HW128287   1.758   5.255   5.301
 8818SOL    HW228288   1.752   5.103   5.302
 8819SOL     OW28289  10.943   3.561  14.296
 8819SOL    HW128290  10.867   3.602  14.254
 8819SOL    HW228291  10.912   3.475  14.323
 8820SOL     OW28292   1.226   6.514  13.645
 8820SOL    HW128293   1.234   6.533  13.552
 8820SOL    HW228294   1.266   6.427  13.656
 8821SOL     OW28295   8.886   1.072   1.928
 8821SOL    HW128296   8.821   1.017   1.885
 8821SOL    HW228297   8.835   1.139   1.974
 8822SOL     OW28298   9.221   9.426  10.798
 8822SOL    HW128299   9.179   9.479  10.731
 8822SOL    HW228300   9.181   9.456  10.881
 8823SOL     OW28301  13.344   9.333   6.843
 8823SOL    HW128302  13.257   9.330   6.882
 8823SOL    HW228303  13.330   9.369   6.755
 8824SOL     OW28304   5.067  14.680   2.615
 8824SOL    HW128305   4.987  14.690   2.666
 8824SOL    HW228306   5.083  14.766   2.578
 8825SOL     OW28307   2.815   4.005   3.822
 8825SOL    HW128308   2.802   3.911   3.830
 8825SOL    HW228309   2.785   4.026   3.734
 8826SOL     OW28310  11.373   0.350  13.467
 8826SOL    HW128311  11.454   0.396  13.446
 8826SOL    HW228312  11.348   0.307  13.386
 8827SOL     OW28313   2.517   9.630   7.575
 8827SOL    HW128314   2.551   9.562   7.634
 8827SOL    HW228315   2.454   9.678   7.629
 8828SOL     OW28316   4.790   8.461   3.695
 8828SOL    HW128317   4.727   8.447   3.766
 8828SOL    HW228318   4.789   8.380   3.646
 8829SOL     OW28319   8.666   0.931   6.540
 8829SOL    HW128320   8.656   0.904   6.632
 8829SOL    HW228321   8.722   1.009   6.544
 8830SOL     OW28322  12.266   7.466   6.406
 8830SOL    HW128323  12.171   7.469   6.403
 8830SOL    HW228324  12.295   7.496   6.319
 8831SOL     OW28325   4.750  11.119   3.932
 8831SOL    HW128326   4.656  11.141   3.933
 8831SOL    HW228327   4.765  11.074   4.015
 8832SOL     OW28328   8.542   4.006  14.037
 8832SOL    HW128329   8.510   4.050  13.958
 8832SOL    HW228330   8.499   3.921  14.036
 8833SOL     OW28331   9.361   1.044   1.599
 8833SOL    HW128332   9.324   1.121   1.556
 8833SOL    HW228333   9.417   1.079   1.667
 8834SOL     OW28334   3.418   3.228   1.088
 8834SOL    HW128335   3.498   3.265   1.126
 8834SOL    HW228336   3.350   3.293   1.108
 8835SOL     OW28337  14.312  14.805   9.712
 8835SOL    HW128338  14.406  14.799   9.726
 8835SOL    HW228339  14.290  14.725   9.663
 8836SOL     OW28340   9.316   6.958   9.487
 8836SOL    HW128341   9.372   6.881   9.491
 8836SOL    HW228342   9.248   6.943   9.552
 8837SOL     OW28343   6.266   9.817   5.040
 8837SOL    HW128344   6.254   9.796   4.947
 8837SOL    HW228345   6.230   9.741   5.086
 8838SOL     OW28346   6.735   3.727   6.640
 8838SOL    HW128347   6.746   3.763   6.552
 8838SOL    HW228348   6.685   3.646   6.627
 8839SOL     OW28349   2.946   5.613  10.087
 8839SOL    HW128350   2.872   5.640  10.141
 8839SOL    HW228351   3.023   5.642  10.136
 8840SOL     OW28352   6.909   1.291   1.512
 8840SOL    HW128353   6.836   1.318   1.568
 8840SOL    HW228354   6.953   1.372   1.488
 8841SOL     OW28355   7.099   6.644   4.848
 8841SOL    HW128356   7.171   6.689   4.803
 8841SOL    HW228357   7.054   6.595   4.779
 8842SOL     OW28358   3.785   2.553  12.625
 8842SOL    HW128359   3.745   2.585  12.544
 8842SOL    HW228360   3.747   2.466  12.637
 8843SOL     OW28361  12.985   0.613   5.827
 8843SOL    HW128362  13.072   0.635   5.793
 8843SOL    HW228363  12.925   0.667   5.775
 8844SOL     OW28364   7.746   7.433   9.916
 8844SOL    HW128365   7.695   7.443   9.996
 8844SOL    HW228366   7.695   7.477   9.849
 8845SOL     OW28367   0.067   4.466  12.394
 8845SOL    HW128368  14.848   4.488  12.377
 8845SOL    HW228369   0.115   4.543  12.365
 8846SOL     OW28370  12.082   3.087  12.751
 8846SOL    HW128371  12.123   3.001  12.751
 8846SOL    HW228372  12.114   3.129  12.671
 8847SOL     OW28373  10.026   2.097  11.168
 8847SOL    HW128374   9.935   2.088  11.141
 8847SOL    HW228375  10.040   2.026  11.230
 8848SOL     OW28376  11.634  10.190  10.206
 8848SOL    HW128377  11.674  10.247  10.272
 8848SOL    HW228378  11.583  10.127  10.258
 8849SOL     OW28379  12.941   1.082   6.563
 8849SOL    HW128380  12.930   1.050   6.474
 8849SOL    HW228381  12.852   1.083   6.599
 8850SOL     OW28382  12.838   8.576   6.882
 8850SOL    HW128383  12.894   8.654   6.881
 8850SOL    HW228384  12.784   8.585   6.804
 8851SOL     OW28385   1.148   1.963  11.986
 8851SOL    HW128386   1.135   2.047  12.030
 8851SOL    HW228387   1.222   1.977  11.928
 8852SOL     OW28388   5.314   7.572   9.594
 8852SOL    HW128389   5.345   7.482   9.591
 8852SOL    HW228390   5.220   7.565   9.612
 8853SOL     OW28391  10.791  11.263   6.484
 8853SOL    HW128392  10.870  11.286   6.434
 8853SOL    HW228393  10.764  11.179   6.448
 8854SOL     OW28394   3.460   0.542   9.944
 8854SOL    HW128395   3.448   0.489  10.023
 8854SOL    HW228396   3.513   0.617   9.973
 8855SOL     OW28397   9.450   4.033   8.353
 8855SOL    HW128398   9.391   3.958   8.366
 8855SOL    HW228399   9.533   3.993   8.326
 8856SOL     OW28400   5.539   0.966   9.760
 8856SOL    HW128401   5.568   1.019   9.685
 8856SOL    HW228402   5.474   1.021   9.804
 8857SOL     OW28403   2.984   8.107   1.874
 8857SOL    HW128404   2.974   8.028   1.927
 8857SOL    HW228405   3.079   8.117   1.864
 8858SOL     OW28406  13.748  10.234   8.948
 8858SOL    HW128407  13.751  10.138   8.953
 8858SOL    HW228408  13.704  10.260   9.029
 8859SOL     OW28409   9.797   2.499   6.747
 8859SOL    HW128410   9.881   2.475   6.708
 8859SOL    HW228411   9.748   2.541   6.677
 8860SOL     OW28412  14.725   2.121   1.485
 8860SOL    HW128413  14.651   2.160   1.438
 8860SOL    HW228414  14.801   2.169   1.454
 8861SOL     OW28415  11.354   9.930   9.284
 8861SOL    HW128416  11.321  10.020   9.285
 8861SOL    HW228417  11.364   9.910   9.191
 8862SOL     OW28418   6.055   9.041  12.466
 8862SOL    HW128419   5.978   9.040  12.522
 8862SOL    HW228420   6.077   9.134  12.457
 8863SOL     OW28421   5.888   3.108   9.875
 8863SOL    HW128422   5.900   3.014   9.861
 8863SOL    HW228423   5.881   3.145   9.787
 8864SOL     OW28424   2.447   4.471   3.054
 8864SOL    HW128425   2.406   4.385   3.046
 8864SOL    HW228426   2.452   4.487   3.148
 8865SOL     OW28427  12.601  13.904   3.303
 8865SOL    HW128428  12.605  13.904   3.398
 8865SOL    HW228429  12.691  13.917   3.275
 8866SOL     OW28430  10.738   8.201  13.186
 8866SOL    HW128431  10.724   8.121  13.237
 8866SOL    HW228432  10.680   8.265  13.226
 8867SOL     OW28433   2.095   8.352   0.181
 8867SOL    HW128434   2.184   8.365   0.213
 8867SOL    HW228435   2.089   8.405   0.102
 8868SOL     OW28436   5.472   9.044   5.341
 8868SOL    HW128437   5.437   9.132   5.353
 8868SOL    HW228438   5.563   9.050   5.371
 8869SOL     OW28439   4.031  10.128   9.662
 8869SOL    HW128440   4.046  10.036   9.682
 8869SOL    HW228441   3.936  10.138   9.668
 8870SOL     OW28442   9.887   5.635  11.984
 8870SOL    HW128443   9.932   5.603  11.906
 8870SOL    HW228444   9.802   5.666  11.952
 8871SOL     OW28445   7.208   7.773   8.188
 8871SOL    HW128446   7.151   7.826   8.133
 8871SOL    HW228447   7.221   7.826   8.267
 8872SOL     OW28448  11.935   4.582   5.579
 8872SOL    HW128449  11.940   4.581   5.483
 8872SOL    HW228450  12.024   4.558   5.607
 8873SOL     OW28451  12.048   2.073   1.875
 8873SOL    HW128452  12.126   2.129   1.871
 8873SOL    HW228453  12.070   1.997   1.822
 8874SOL     OW28454   4.028   7.405  11.999
 8874SOL    HW128455   4.023   7.496  12.027
 8874SOL    HW228456   4.001   7.355  12.076
 8875SOL     OW28457   7.834   4.637  12.389
 8875SOL    HW128458   7.768   4.695  12.352
 8875SOL    HW228459   7.847   4.668  12.478
 8876SOL     OW28460   4.839  13.062   5.564
 8876SOL    HW128461   4.839  12.974   5.601
 8876SOL    HW228462   4.922  13.100   5.594
 8877SOL     OW28463   4.977   1.615  14.054
 8877SOL    HW128464   4.902   1.570  14.091
 8877SOL    HW228465   4.951   1.707  14.049
 8878SOL     OW28466   7.812   2.842  10.528
 8878SOL    HW128467   7.773   2.864  10.443
 8878SOL    HW228468   7.906   2.842  10.512
 8879SOL     OW28469  11.234   8.475   0.574
 8879SOL    HW128470  11.152   8.476   0.524
 8879SOL    HW228471  11.216   8.420   0.650
 8880SOL     OW28472  13.755   4.600  13.048
 8880SOL    HW128473  13.736   4.693  13.065
 8880SOL    HW228474  13.723   4.585  12.959
 8881SOL     OW28475   8.091  13.119   0.053
 8881SOL    HW128476   8.026  13.108  14.856
 8881SOL    HW228477   8.135  13.034   0.058
 8882SOL     OW28478   7.448   4.869   5.399
 8882SOL    HW128479   7.394   4.947   5.409
 8882SOL    HW228480   7.413   4.807   5.463
 8883SOL     OW28481  12.003   4.602  13.805
 8883SOL    HW128482  11.982   4.689  13.838
 8883SOL    HW228483  11.998   4.611  13.709
 8884SOL     OW28484   2.314  12.197   0.586
 8884SOL    HW128485   2.336  12.290   0.582
 8884SOL    HW228486   2.325  12.173   0.678
 8885SOL     OW28487  13.738   0.447  13.788
 8885SOL    HW128488  13.731   0.364  13.835
 8885SOL    HW228489  13.810   0.493  13.831
 8886SOL     OW28490   6.458  13.538   4.450
 8886SOL    HW128491   6.377  13.524   4.401
 8886SOL    HW228492   6.459  13.632   4.469
 8887SOL     OW28493  13.894   7.898   1.727
 8887SOL    HW128494  13.968   7.843   1.752
 8887SOL    HW228495  13.817   7.842   1.740
 8888SOL     OW28496  13.330   7.152   8.155
 8888SOL    HW128497  13.358   7.233   8.112
 8888SOL    HW228498  13.252   7.125   8.108
 8889SOL     OW28499   8.354  12.643   8.488
 8889SOL    HW128500   8.264  12.611   8.476
 8889SOL    HW228501   8.408  12.564   8.483
 8890SOL     OW28502   1.894   8.266   5.820
 8890SOL    HW128503   1.871   8.357   5.843
 8890SOL    HW228504   1.933   8.231   5.900
 8891SOL     OW28505   5.307   2.287   2.986
 8891SOL    HW128506   5.261   2.284   3.070
 8891SOL    HW228507   5.241   2.317   2.923
 8892SOL     OW28508  11.706  14.604   1.704
 8892SOL    HW128509  11.712  14.562   1.618
 8892SOL    HW228510  11.795  14.632   1.724
 8893SOL     OW28511   7.789  10.364   1.005
 8893SOL    HW128512   7.711  10.325   1.044
 8893SOL    HW228513   7.762  10.451   0.977
 8894SOL     OW28514   5.649  12.790  14.737
 8894SOL    HW128515   5.652  12.841  14.656
 8894SOL    HW228516   5.730  12.812  14.783
 8895SOL     OW28517   7.983   8.676   6.785
 8895SOL    HW128518   8.065   8.687   6.737
 8895SOL    HW228519   7.996   8.725   6.866
 8896SOL     OW28520   6.872  11.493   4.841
 8896SOL    HW128521   6.811  11.460   4.774
 8896SOL    HW228522   6.917  11.565   4.797
 8897SOL     OW28523  14.204  10.071  12.892
 8897SOL    HW128524  14.166  10.133  12.829
 8897SOL    HW228525  14.236   9.999  12.838
 8898SOL     OW28526  10.821  13.075   8.863
 8898SOL    HW128527  10.773  13.046   8.785
 8898SOL    HW228528  10.780  13.028   8.935
 8899SOL     OW28529   4.897   7.388  10.396
 8899SOL    HW128530   4.964   7.385  10.465
 8899SOL    HW228531   4.898   7.479  10.367
 8900SOL     OW28532  10.266   7.104   3.006
 8900SOL    HW128533  10.254   7.081   2.914
 8900SOL    HW228534  10.177   7.104   3.043
 8901SOL     OW28535   7.394   6.770   9.905
 8901SOL    HW128536   7.397   6.752   9.999
 8901SOL    HW228537   7.355   6.691   9.867
 8902SOL     OW28538  13.021  14.736  11.037
 8902SOL    HW128539  12.989  14.826  11.051
 8902SOL    HW228540  12.942  14.683  11.032
 8903SOL     OW28541   3.440   9.521   0.946
 8903SOL    HW128542   3.508   9.585   0.924
 8903SOL    HW228543   3.441   9.459   0.873
 8904SOL     OW28544   3.933  13.335   3.431
 8904SOL    HW128545   4.015  13.292   3.405
 8904SOL    HW228546   3.953  13.428   3.429
 8905SOL     OW28547   9.925   0.464   0.878
 8905SOL    HW128548   9.998   0.507   0.922
 8905SOL    HW228549   9.878   0.535   0.834
 8906SOL     OW28550   2.594  12.832   7.277
 8906SOL    HW128551   2.600  12.757   7.218
 8906SOL    HW228552   2.501  12.840   7.296
 8907SOL     OW28553   5.571   9.369   2.213
 8907SOL    HW128554   5.569   9.303   2.282
 8907SOL    HW228555   5.512   9.335   2.145
 8908SOL     OW28556   9.102  11.171   4.120
 8908SOL    HW128557   9.100  11.122   4.202
 8908SOL    HW228558   9.107  11.263   4.148
 8909SOL     OW28559  12.375   8.045   3.981
 8909SOL    HW128560  12.368   8.098   4.060
 8909SOL    HW228561  12.302   7.983   3.988
 8910SOL     OW28562   9.937   0.536   5.282
 8910SOL    HW128563   9.964   0.628   5.277
 8910SOL    HW228564   9.965   0.507   5.368
 8911SOL     OW28565   3.372   6.100  11.880
 8911SOL    HW128566   3.347   6.031  11.820
 8911SOL    HW228567   3.433   6.155  11.831
 8912SOL     OW28568  14.627  11.989   0.372
 8912SOL    HW128569  14.589  12.077   0.379
 8912SOL    HW228570  14.552  11.930   0.384
 8913SOL     OW28571  10.153   2.341   1.872
 8913SOL    HW128572  10.226   2.311   1.925
 8913SOL    HW228573  10.189   2.411   1.817
 8914SOL     OW28574   2.289  13.078   3.160
 8914SOL    HW128575   2.312  13.165   3.191
 8914SOL    HW228576   2.317  13.076   3.069
 8915SOL     OW28577  13.839   4.172  13.630
 8915SOL    HW128578  13.755   4.149  13.668
 8915SOL    HW228579  13.868   4.093  13.585
 8916SOL     OW28580  11.036  10.761  14.008
 8916SOL    HW128581  10.999  10.754  13.920
 8916SOL    HW228582  10.977  10.821  14.054
 8917SOL     OW28583   5.545   2.671   6.446
 8917SOL    HW128584   5.597   2.739   6.489
 8917SOL    HW228585   5.602   2.638   6.376
 8918SOL     OW28586   8.641   0.130  13.308
 8918SOL    HW128587   8.644   0.217  13.267
 8918SOL    HW228588   8.552   0.098  13.290
 8919SOL     OW28589  13.261   6.868   5.099
 8919SOL    HW128590  13.348   6.897   5.125
 8919SOL    HW228591  13.201   6.917   5.156
 8920SOL     OW28592   9.236   5.466   5.261
 8920SOL    HW128593   9.282   5.475   5.345
 8920SOL    HW228594   9.193   5.381   5.266
 8921SOL     OW28595   0.648   8.468   6.045
 8921SOL    HW128596   0.593   8.512   6.110
 8921SOL    HW228597   0.635   8.518   5.965
 8922SOL     OW28598   3.279  11.325  12.726
 8922SOL    HW128599   3.275  11.280  12.642
 8922SOL    HW228600   3.362  11.373  12.724
 8923SOL     OW28601   5.344   9.716  11.321
 8923SOL    HW128602   5.313   9.663  11.248
 8923SOL    HW228603   5.417   9.767  11.285
 8924SOL     OW28604  14.715   3.206  11.709
 8924SOL    HW128605  14.622   3.188  11.692
 8924SOL    HW228606  14.755   3.209  11.622
 8925SOL     OW28607   1.257  11.510   3.262
 8925SOL    HW128608   1.222  11.448   3.325
 8925SOL    HW228609   1.345  11.477   3.241
 8926SOL     OW28610  14.606   6.596  14.461
 8926SOL    HW128611  14.619   6.615  14.554
 8926SOL    HW228612  14.550   6.519  14.459
 8927SOL     OW28613   9.930   2.894  11.646
 8927SOL    HW128614   9.999   2.927  11.704
 8927SOL    HW228615   9.975   2.832  11.588
 8928SOL     OW28616  12.176   4.604  12.642
 8928SOL    HW128617  12.269   4.609  12.621
 8928SOL    HW228618  12.132   4.632  12.561
 8929SOL     OW28619   4.403   4.668   0.352
 8929SOL    HW128620   4.441   4.728   0.288
 8929SOL    HW228621   4.309   4.686   0.348
 8930SOL     OW28622  14.467  14.679   8.189
 8930SOL    HW128623  14.506  14.761   8.220
 8930SOL    HW228624  14.541  14.620   8.180
 8931SOL     OW28625   2.179   8.017  12.956
 8931SOL    HW128626   2.204   7.952  13.022
 8931SOL    HW228627   2.213   8.099  12.990
 8932SOL     OW28628   9.034  10.384  13.299
 8932SOL    HW128629   8.955  10.405  13.249
 8932SOL    HW228630   9.016  10.298  13.337
 8933SOL     OW28631   5.281   7.024   2.942
 8933SOL    HW128632   5.247   6.942   2.979
 8933SOL    HW228633   5.207   7.085   2.947
 8934SOL     OW28634  10.824   4.664   7.908
 8934SOL    HW128635  10.892   4.622   7.855
 8934SOL    HW228636  10.862   4.671   7.995
 8935SOL     OW28637   0.582   4.798   3.048
 8935SOL    HW128638   0.518   4.799   3.120
 8935SOL    HW228639   0.629   4.715   3.059
 8936SOL     OW28640   0.171  12.946   5.618
 8936SOL    HW128641   0.083  12.929   5.650
 8936SOL    HW228642   0.212  12.860   5.615
 8937SOL     OW28643  14.774   7.212  11.146
 8937SOL    HW128644  14.832   7.289  11.149
 8937SOL    HW228645  14.793   7.171  11.062
 8938SOL     OW28646   6.063   4.416   1.872
 8938SOL    HW128647   6.155   4.435   1.858
 8938SOL    HW228648   6.035   4.476   1.941
 8939SOL     OW28649   9.469   6.906   7.661
 8939SOL    HW128650   9.498   6.856   7.585
 8939SOL    HW228651   9.376   6.921   7.646
 8940SOL     OW28652  14.054   6.103   9.437
 8940SOL    HW128653  14.115   6.095   9.511
 8940SOL    HW228654  14.023   6.193   9.441
 8941SOL     OW28655   1.944   8.073  12.826
 8941SOL    HW128656   2.030   8.064  12.866
 8941SOL    HW228657   1.884   8.083  12.900
 8942SOL     OW28658  11.573  10.652   5.064
 8942SOL    HW128659  11.569  10.748   5.063
 8942SOL    HW228660  11.489  10.625   5.028
 8943SOL     OW28661   2.885   9.870  11.430
 8943SOL    HW128662   2.802   9.900  11.465
 8943SOL    HW228663   2.950   9.901  11.493
 8944SOL     OW28664   2.595   5.106  12.856
 8944SOL    HW128665   2.513   5.055  12.858
 8944SOL    HW228666   2.605   5.139  12.945
 8945SOL     OW28667   3.225   6.872  14.841
 8945SOL    HW128668   3.171   6.848   0.043
 8945SOL    HW228669   3.233   6.791  14.790
 8946SOL     OW28670   2.698   7.011   1.538
 8946SOL    HW128671   2.617   6.996   1.489
 8946SOL    HW228672   2.742   7.081   1.490
 8947SOL     OW28673   3.135   9.845   1.457
 8947SOL    HW128674   3.227   9.821   1.446
 8947SOL    HW228675   3.126   9.863   1.551
 8948SOL     OW28676   2.417  12.953   3.349
 8948SOL    HW128677   2.379  13.007   3.280
 8948SOL    HW228678   2.499  12.997   3.371
 8949SOL     OW28679  11.661   0.653  13.185
 8949SOL    HW128680  11.604   0.646  13.262
 8949SOL    HW228681  11.645   0.741  13.152
 8950SOL     OW28682   7.292   5.587   7.621
 8950SOL    HW128683   7.218   5.631   7.579
 8950SOL    HW228684   7.369   5.617   7.572
 8951SOL     OW28685   6.952   6.596  10.576
 8951SOL    HW128686   6.891   6.631  10.511
 8951SOL    HW228687   6.980   6.672  10.627
 8952SOL     OW28688   7.805  12.152   2.088
 8952SOL    HW128689   7.856  12.140   2.008
 8952SOL    HW228690   7.738  12.083   2.084
 8953SOL     OW28691   2.142   0.284  12.545
 8953SOL    HW128692   2.049   0.264  12.557
 8953SOL    HW228693   2.178   0.205  12.505
 8954SOL     OW28694  13.022  12.476   9.494
 8954SOL    HW128695  12.956  12.450   9.559
 8954SOL    HW228696  13.046  12.565   9.519
 8955SOL     OW28697   6.480  11.386  12.660
 8955SOL    HW128698   6.436  11.301  12.662
 8955SOL    HW228699   6.570  11.368  12.689
 8956SOL     OW28700   5.512   6.913  10.720
 8956SOL    HW128701   5.467   6.993  10.749
 8956SOL    HW228702   5.563   6.941  10.643
 8957SOL     OW28703  11.997  10.674  13.211
 8957SOL    HW128704  12.027  10.751  13.259
 8957SOL    HW228705  11.904  10.666  13.234
 8958SOL     OW28706   0.271  10.528   1.950
 8958SOL    HW128707   0.347  10.501   2.002
 8958SOL    HW228708   0.287  10.620   1.930
 8959SOL     OW28709  14.246   0.008   9.043
 8959SOL    HW128710  14.322   0.007   8.986
 8959SOL    HW228711  14.198   0.086   9.018
 8960SOL     OW28712  10.427   5.062   1.304
 8960SOL    HW128713  10.489   5.002   1.346
 8960SOL    HW228714  10.403   5.019   1.222
 8961SOL     OW28715   6.422   3.498  12.027
 8961SOL    HW128716   6.457   3.492  11.938
 8961SOL    HW228717   6.356   3.567  12.022
 8962SOL     OW28718   1.074   7.589   0.831
 8962SOL    HW128719   1.015   7.626   0.896
 8962SOL    HW228720   1.150   7.647   0.832
 8963SOL     OW28721   0.763   7.212  12.376
 8963SOL    HW128722   0.744   7.288  12.321
 8963SOL    HW228723   0.734   7.238  12.464
 8964SOL     OW28724   1.387   7.930   0.821
 8964SOL    HW128725   1.324   7.997   0.795
 8964SOL    HW228726   1.473   7.968   0.800
 8965SOL     OW28727  14.300   6.573   5.894
 8965SOL    HW128728  14.296   6.616   5.980
 8965SOL    HW228729  14.316   6.644   5.832
 8966SOL     OW28730   9.418  11.477   7.623
 8966SOL    HW128731   9.434  11.540   7.553
 8966SOL    HW228732   9.439  11.525   7.703
 8967SOL     OW28733   4.743   9.500   1.456
 8967SOL    HW128734   4.726   9.439   1.384
 8967SOL    HW228735   4.824   9.544   1.431
 8968SOL     OW28736   6.348  12.908  12.355
 8968SOL    HW128737   6.280  12.888  12.290
 8968SOL    HW228738   6.404  12.831  12.356
 8969SOL     OW28739  11.975   2.394   2.490
 8969SOL    HW128740  12.018   2.479   2.488
 8969SOL    HW228741  11.893   2.407   2.442
 8970SOL     OW28742  13.430  12.577  13.602
 8970SOL    HW128743  13.519  12.556  13.630
 8970SOL    HW228744  13.418  12.529  13.520
 8971SOL     OW28745   2.547   7.592   9.712
 8971SOL    HW128746   2.455   7.567   9.705
 8971SOL    HW228747   2.544   7.685   9.738
 8972SOL     OW28748  11.879  11.384  11.862
 8972SOL    HW128749  11.967  11.417  11.846
 8972SOL    HW228750  11.864  11.320  11.792
 8973SOL     OW28751  12.083   9.197   6.071
 8973SOL    HW128752  12.117   9.108   6.060
 8973SOL    HW228753  12.039   9.195   6.156
 8974SOL     OW28754  11.428   7.894  14.371
 8974SOL    HW128755  11.366   7.843  14.318
 8974SOL    HW228756  11.373   7.946  14.429
 8975SOL     OW28757  10.903  11.948  10.786
 8975SOL    HW128758  10.970  11.975  10.849
 8975SOL    HW228759  10.927  11.993  10.705
 8976SOL     OW28760  10.406   3.161   6.409
 8976SOL    HW128761  10.448   3.174   6.324
 8976SOL    HW228762  10.358   3.079   6.400
 8977SOL     OW28763   5.707   3.867   3.417
 8977SOL    HW128764   5.775   3.838   3.478
 8977SOL    HW228765   5.754   3.883   3.335
 8978SOL     OW28766   7.772   5.271  11.248
 8978SOL    HW128767   7.752   5.182  11.220
 8978SOL    HW228768   7.714   5.326  11.195
 8979SOL     OW28769   8.525   7.916   1.774
 8979SOL    HW128770   8.475   7.940   1.851
 8979SOL    HW228771   8.521   7.993   1.718
 8980SOL     OW28772   7.594  11.710   3.220
 8980SOL    HW128773   7.539  11.702   3.142
 8980SOL    HW228774   7.539  11.677   3.291
 8981SOL     OW28775   1.547   7.916  14.398
 8981SOL    HW128776   1.570   7.847  14.337
 8981SOL    HW228777   1.621   7.922  14.458
 8982SOL     OW28778   5.933   1.381  14.509
 8982SOL    HW128779   5.936   1.392  14.604
 8982SOL    HW228780   5.973   1.296  14.493
 8983SOL     OW28781   9.051   5.807   6.374
 8983SOL    HW128782   8.994   5.802   6.450
 8983SOL    HW228783   9.104   5.728   6.379
 8984SOL     OW28784   4.426   2.547   7.556
 8984SOL    HW128785   4.389   2.514   7.474
 8984SOL    HW228786   4.516   2.571   7.534
 8985SOL     OW28787   2.767  12.156   4.360
 8985SOL    HW128788   2.821  12.138   4.437
 8985SOL    HW228789   2.699  12.216   4.392
 8986SOL     OW28790  11.339  14.864  12.748
 8986SOL    HW128791  11.396   0.043  12.806
 8986SOL    HW228792  11.268   0.051  12.725
 8987SOL     OW28793   1.555   2.049   7.050
 8987SOL    HW128794   1.563   1.985   6.979
 8987SOL    HW228795   1.485   2.108   7.021
 8988SOL     OW28796   7.471  12.861   9.370
 8988SOL    HW128797   7.543  12.822   9.320
 8988SOL    HW228798   7.425  12.916   9.306
 8989SOL     OW28799   1.936   9.302  11.521
 8989SOL    HW128800   1.936   9.207  11.531
 8989SOL    HW228801   1.983   9.334  11.598
 8990SOL     OW28802   8.518   0.097  10.818
 8990SOL    HW128803   8.574   0.156  10.767
 8990SOL    HW228804   8.504   0.022  10.760
 8991SOL     OW28805  10.439  10.989   0.257
 8991SOL    HW128806  10.512  10.947   0.301
 8991SOL    HW228807  10.387  10.916   0.223
 8992SOL     OW28808   2.317   1.644   3.291
 8992SOL    HW128809   2.411   1.629   3.288
 8992SOL    HW228810   2.305   1.708   3.361
 8993SOL     OW28811  10.857   2.248   0.208
 8993SOL    HW128812  10.874   2.285   0.295
 8993SOL    HW228813  10.874   2.155   0.218
 8994SOL     OW28814  14.029  12.122   2.819
 8994SOL    HW128815  14.022  12.032   2.789
 8994SOL    HW228816  14.050  12.115   2.912
 8995SOL     OW28817   0.731  13.089   8.048
 8995SOL    HW128818   0.798  13.094   7.981
 8995SOL    HW228819   0.650  13.113   8.003
 8996SOL     OW28820   2.763   3.834  10.967
 8996SOL    HW128821   2.786   3.868  10.880
 8996SOL    HW228822   2.785   3.905  11.027
 8997SOL     OW28823  13.823  10.727   0.233
 8997SOL    HW128824  13.776  10.806   0.206
 8997SOL    HW228825  13.914  10.756   0.242
 8998SOL     OW28826  12.850   7.842  13.321
 8998SOL    HW128827  12.879   7.800  13.240
 8998SOL    HW228828  12.926   7.837  13.379
 8999SOL     OW28829  14.061   5.482  11.494
 8999SOL    HW128830  14.055   5.469  11.399
 8999SOL    HW228831  14.143   5.441  11.519
 9000SOL     OW28832  11.017   2.691   6.267
 9000SOL    HW128833  11.064   2.702   6.350
 9000SOL    HW228834  11.018   2.778   6.227
 9001SOL     OW28835  10.191   5.218   3.852
 9001SOL    HW128836  10.203   5.196   3.944
 9001SOL    HW228837  10.144   5.301   3.853
 9002SOL     OW28838  13.102   6.382   9.925
 9002SOL    HW128839  13.123   6.355   9.835
 9002SOL    HW228840  13.114   6.302   9.976
 9003SOL     OW28841   2.184  13.163   7.821
 9003SOL    HW128842   2.247  13.230   7.796
 9003SOL    HW228843   2.168  13.113   7.741
 9004SOL     OW28844  10.856   6.767   6.450
 9004SOL    HW128845  10.841   6.829   6.379
 9004SOL    HW228846  10.794   6.696   6.435
 9005SOL     OW28847  11.485   1.319  11.911
 9005SOL    HW128848  11.486   1.355  11.999
 9005SOL    HW228849  11.393   1.298  11.894
 9006SOL     OW28850   0.540   4.796  10.999
 9006SOL    HW128851   0.590   4.793  11.080
 9006SOL    HW228852   0.460   4.844  11.021
 9007SOL     OW28853  10.005   8.077   4.347
 9007SOL    HW128854  10.049   8.097   4.264
 9007SOL    HW228855  10.068   8.105   4.414
 9008SOL     OW28856   6.210   1.133   4.556
 9008SOL    HW128857   6.122   1.103   4.580
 9008SOL    HW228858   6.217   1.112   4.463
 9009SOL     OW28859  10.647   8.044   8.644
 9009SOL    HW128860  10.709   8.054   8.572
 9009SOL    HW228861  10.672   8.113   8.706
 9010SOL     OW28862  11.212  13.640   2.385
 9010SOL    HW128863  11.165  13.603   2.460
 9010SOL    HW228864  11.244  13.724   2.416
 9011SOL     OW28865   0.872  14.550  14.579
 9011SOL    HW128866   0.927  14.471  14.582
 9011SOL    HW228867   0.835  14.556  14.667
 9012SOL     OW28868   4.042   9.213  13.083
 9012SOL    HW128869   4.115   9.253  13.129
 9012SOL    HW228870   4.055   9.236  12.991
 9013SOL     OW28871  13.628   3.436  11.610
 9013SOL    HW128872  13.611   3.353  11.565
 9013SOL    HW228873  13.550   3.450  11.664
 9014SOL     OW28874  12.188   5.051  12.731
 9014SOL    HW128875  12.103   5.087  12.755
 9014SOL    HW228876  12.197   4.972  12.785
 9015SOL     OW28877   9.211   2.132   4.202
 9015SOL    HW128878   9.158   2.211   4.197
 9015SOL    HW228879   9.297   2.159   4.169
 9016SOL     OW28880   4.956   6.957  14.297
 9016SOL    HW128881   4.882   6.964  14.357
 9016SOL    HW228882   5.027   6.921  14.349
 9017SOL     OW28883   7.022  10.540   9.395
 9017SOL    HW128884   7.044  10.540   9.488
 9017SOL    HW228885   7.060  10.621   9.361
 9018SOL     OW28886  14.786  10.256  12.409
 9018SOL    HW128887  14.785  10.162  12.396
 9018SOL    HW228888  14.763  10.268  12.502
 9019SOL     OW28889  14.152  11.344   7.189
 9019SOL    HW128890  14.172  11.381   7.103
 9019SOL    HW228891  14.083  11.279   7.172
 9020SOL     OW28892   0.673   3.908   1.249
 9020SOL    HW128893   0.633   3.958   1.178
 9020SOL    HW228894   0.631   3.942   1.328
 9021SOL     OW28895   0.243   9.925   9.640
 9021SOL    HW128896   0.264   9.988   9.572
 9021SOL    HW228897   0.328   9.887   9.664
 9022SOL     OW28898   0.176  11.882   4.954
 9022SOL    HW128899   0.251  11.926   4.994
 9022SOL    HW228900   0.165  11.802   5.005
 9023SOL     OW28901   5.405   7.911   5.474
 9023SOL    HW128902   5.325   7.961   5.461
 9023SOL    HW228903   5.441   7.900   5.386
 9024SOL     OW28904   2.052   5.622   1.072
 9024SOL    HW128905   2.089   5.559   1.011
 9024SOL    HW228906   2.080   5.592   1.158
 9025SOL     OW28907   7.744   0.951  11.100
 9025SOL    HW128908   7.660   0.913  11.072
 9025SOL    HW228909   7.780   0.887  11.161
 9026SOL     OW28910   6.872   1.080   7.897
 9026SOL    HW128911   6.926   1.011   7.859
 9026SOL    HW228912   6.874   1.064   7.992
 9027SOL     OW28913  12.918  11.057   4.953
 9027SOL    HW128914  12.898  11.143   4.989
 9027SOL    HW228915  13.012  11.059   4.935
 9028SOL     OW28916   8.407   5.916   9.198
 9028SOL    HW128917   8.330   5.868   9.230
 9028SOL    HW228918   8.467   5.917   9.273
 9029SOL     OW28919  14.777  10.619   0.390
 9029SOL    HW128920  14.794  10.688   0.326
 9029SOL    HW228921  14.686  10.595   0.375
 9030SOL     OW28922   4.183   4.230  12.172
 9030SOL    HW128923   4.275   4.230  12.144
 9030SOL    HW228924   4.166   4.139  12.199
 9031SOL     OW28925   2.613   4.696  10.500
 9031SOL    HW128926   2.707   4.704  10.512
 9031SOL    HW228927   2.592   4.607  10.528
 9032SOL     OW28928   7.911  13.801  10.392
 9032SOL    HW128929   7.866  13.839  10.467
 9032SOL    HW228930   7.968  13.870  10.360
 9033SOL     OW28931  10.969   6.994  11.706
 9033SOL    HW128932  10.915   6.924  11.668
 9033SOL    HW228933  10.991   7.050  11.632
 9034SOL     OW28934  10.617   9.529   6.391
 9034SOL    HW128935  10.655   9.612   6.419
 9034SOL    HW228936  10.609   9.478   6.471
 9035SOL     OW28937   2.625  10.399   5.647
 9035SOL    HW128938   2.628  10.447   5.730
 9035SOL    HW228939   2.678  10.321   5.662
 9036SOL     OW28940   7.509   8.930   3.498
 9036SOL    HW128941   7.446   8.977   3.444
 9036SOL    HW228942   7.459   8.900   3.574
 9037SOL     OW28943   3.394  13.496   5.731
 9037SOL    HW128944   3.432  13.427   5.676
 9037SOL    HW228945   3.325  13.534   5.676
 9038SOL     OW28946   1.735   9.083  10.790
 9038SOL    HW128947   1.824   9.054  10.771
 9038SOL    HW228948   1.731   9.174  10.759
 9039SOL     OW28949   4.709  13.115   6.091
 9039SOL    HW128950   4.673  13.189   6.041
 9039SOL    HW228951   4.674  13.127   6.179
 9040SOL     OW28952   3.145   1.309   5.046
 9040SOL    HW128953   3.238   1.310   5.065
 9040SOL    HW228954   3.119   1.401   5.048
 9041SOL     OW28955   1.461  14.846   8.071
 9041SOL    HW128956   1.488  14.825   7.982
 9041SOL    HW228957   1.513   0.051   8.094
 9042SOL     OW28958   8.971   5.899   0.424
 9042SOL    HW128959   9.016   5.933   0.346
 9042SOL    HW228960   8.879   5.894   0.399
 9043SOL     OW28961   1.875   3.086  10.822
 9043SOL    HW128962   1.875   3.164  10.767
 9043SOL    HW228963   1.860   3.118  10.911
 9044SOL     OW28964  14.711   9.477  10.117
 9044SOL    HW128965  14.697   9.501  10.026
 9044SOL    HW228966  14.639   9.519  10.165
 9045SOL     OW28967   1.816   6.814   9.152
 9045SOL    HW128968   1.883   6.793   9.086
 9045SOL    HW228969   1.820   6.909   9.160
 9046SOL     OW28970  13.009   6.562   5.329
 9046SOL    HW128971  13.073   6.551   5.399
 9046SOL    HW228972  12.927   6.527   5.364
 9047SOL     OW28973  11.345   1.875  10.891
 9047SOL    HW128974  11.383   1.954  10.852
 9047SOL    HW228975  11.420   1.822  10.917
 9048SOL     OW28976   8.671  10.325  10.048
 9048SOL    HW128977   8.669  10.420  10.060
 9048SOL    HW228978   8.605  10.308   9.981
 9049SOL     OW28979   1.554   7.719   1.332
 9049SOL    HW128980   1.513   7.805   1.336
 9049SOL    HW228981   1.648   7.736   1.337
 9050SOL     OW28982   3.953   6.106   6.239
 9050SOL    HW128983   4.038   6.085   6.200
 9050SOL    HW228984   3.975   6.147   6.323
 9051SOL     OW28985  13.971  13.944   2.478
 9051SOL    HW128986  13.937  14.007   2.542
 9051SOL    HW228987  13.932  13.861   2.502
 9052SOL     OW28988   0.575  14.159   9.603
 9052SOL    HW128989   0.491  14.202   9.624
 9052SOL    HW228990   0.637  14.195   9.666
 9053SOL     OW28991  12.086  10.771   8.287
 9053SOL    HW128992  12.178  10.794   8.272
 9053SOL    HW228993  12.057  10.734   8.204
 9054SOL     OW28994   4.057   0.456   5.942
 9054SOL    HW128995   4.089   0.396   5.876
 9054SOL    HW228996   4.052   0.404   6.022
 9055SOL     OW28997   1.577  14.615   2.808
 9055SOL    HW128998   1.603  14.688   2.752
 9055SOL    HW228999   1.481  14.622   2.813
 9056SOL     OW29000   6.299   4.039   4.735
 9056SOL    HW129001   6.385   4.047   4.777
 9056SOL    HW229002   6.265   4.128   4.733
 9057SOL     OW29003  11.645  10.782   3.779
 9057SOL    HW129004  11.720  10.835   3.804
 9057SOL    HW229005  11.646  10.781   3.684
 9058SOL     OW29006   6.297   3.145   9.329
 9058SOL    HW129007   6.363   3.177   9.391
 9058SOL    HW229008   6.331   3.060   9.301
 9059SOL     OW29009   0.541   9.591  12.571
 9059SOL    HW129010   0.579   9.611  12.657
 9059SOL    HW229011   0.616   9.592  12.512
 9060SOL     OW29012   9.212  11.930  12.038
 9060SOL    HW129013   9.177  11.841  12.027
 9060SOL    HW229014   9.307  11.919  12.036
 9061SOL     OW29015  11.779  11.673   8.680
 9061SOL    HW129016  11.806  11.708   8.596
 9061SOL    HW229017  11.767  11.579   8.665
 9062SOL     OW29018   6.689   6.624   0.102
 9062SOL    HW129019   6.688   6.528   0.099
 9062SOL    HW229020   6.765   6.644   0.157
 9063SOL     OW29021  13.685   6.088   8.723
 9063SOL    HW129022  13.762   6.045   8.761
 9063SOL    HW229023  13.720   6.147   8.657
 9064SOL     OW29024   7.173   9.078   0.068
 9064SOL    HW129025   7.112   9.144   0.035
 9064SOL    HW229026   7.248   9.081   0.008
 9065SOL     OW29027  12.283   7.134  11.759
 9065SOL    HW129028  12.357   7.085  11.723
 9065SOL    HW229029  12.262   7.198  11.691
 9066SOL     OW29030  12.072   4.180   5.903
 9066SOL    HW129031  12.081   4.200   5.810
 9066SOL    HW229032  11.997   4.232   5.931
 9067SOL     OW29033   4.617   0.858  11.463
 9067SOL    HW129034   4.544   0.866  11.402
 9067SOL    HW229035   4.624   0.943  11.505
 9068SOL     OW29036   1.230   6.305   5.589
 9068SOL    HW129037   1.253   6.228   5.537
 9068SOL    HW229038   1.271   6.379   5.542
 9069SOL     OW29039  12.535  12.825   8.013
 9069SOL    HW129040  12.479  12.748   8.013
 9069SOL    HW229041  12.594  12.813   7.938
 9070SOL     OW29042  13.406   8.165   9.744
 9070SOL    HW129043  13.443   8.076   9.749
 9070SOL    HW229044  13.324   8.154   9.695
 9071SOL     OW29045  10.129  11.672   9.004
 9071SOL    HW129046  10.109  11.686   8.912
 9071SOL    HW229047  10.179  11.749   9.030
 9072SOL     OW29048   4.647  12.297   5.323
 9072SOL    HW129049   4.700  12.353   5.380
 9072SOL    HW229050   4.562  12.294   5.366
 9073SOL     OW29051  10.227   4.145   3.969
 9073SOL    HW129052  10.233   4.178   4.059
 9073SOL    HW229053  10.226   4.050   3.978
 9074SOL     OW29054   3.451  13.137   8.239
 9074SOL    HW129055   3.461  13.212   8.297
 9074SOL    HW229056   3.486  13.063   8.289
 9075SOL     OW29057   6.149   9.704   5.904
 9075SOL    HW129058   6.214   9.659   5.849
 9075SOL    HW229059   6.202   9.759   5.963
 9076SOL     OW29060   2.025   7.657   1.163
 9076SOL    HW129061   1.943   7.629   1.122
 9076SOL    HW229062   1.997   7.709   1.239
 9077SOL     OW29063   2.281   4.602   9.151
 9077SOL    HW129064   2.269   4.586   9.057
 9077SOL    HW229065   2.343   4.534   9.179
 9078SOL     OW29066  11.457  13.662   9.879
 9078SOL    HW129067  11.375  13.672   9.831
 9078SOL    HW229068  11.431  13.651   9.970
 9079SOL     OW29069   7.872   3.805   9.651
 9079SOL    HW129070   7.903   3.892   9.676
 9079SOL    HW229071   7.890   3.750   9.727
 9080SOL     OW29072  12.711   5.183   7.718
 9080SOL    HW129073  12.729   5.097   7.680
 9080SOL    HW229074  12.626   5.174   7.760
 9081SOL     OW29075  10.660  14.822  11.259
 9081SOL    HW129076  10.593  14.843  11.324
 9081SOL    HW229077  10.743  14.841  11.303
 9082SOL     OW29078   7.619  11.094   5.407
 9082SOL    HW129079   7.593  11.185   5.416
 9082SOL    HW229080   7.658  11.071   5.491
 9083SOL     OW29081   3.774   9.211   4.998
 9083SOL    HW129082   3.701   9.156   5.025
 9083SOL    HW229083   3.740   9.300   5.004
 9084SOL     OW29084   7.377   2.669  13.486
 9084SOL    HW129085   7.372   2.702  13.576
 9084SOL    HW229086   7.429   2.589  13.492
 9085SOL     OW29087   1.593  10.242   6.713
 9085SOL    HW129088   1.666  10.232   6.651
 9085SOL    HW229089   1.537  10.166   6.697
 9086SOL     OW29090   8.887   7.321  11.737
 9086SOL    HW129091   8.793   7.329  11.719
 9086SOL    HW229092   8.896   7.346  11.829
 9087SOL     OW29093  11.965   8.392   3.155
 9087SOL    HW129094  11.947   8.413   3.246
 9087SOL    HW229095  11.891   8.339   3.127
 9088SOL     OW29096   4.110   7.871   3.176
 9088SOL    HW129097   4.016   7.890   3.179
 9088SOL    HW229098   4.133   7.873   3.084
 9089SOL     OW29099   2.914  11.242   8.767
 9089SOL    HW129100   2.825  11.261   8.738
 9089SOL    HW229101   2.904  11.168   8.827
 9090SOL     OW29102   8.042   9.086  13.057
 9090SOL    HW129103   8.051   9.050  12.969
 9090SOL    HW229104   7.949   9.077  13.078
 9091SOL     OW29105  14.404   3.905   1.612
 9091SOL    HW129106  14.452   3.981   1.579
 9091SOL    HW229107  14.317   3.940   1.634
 9092SOL     OW29108   7.039   5.647   3.436
 9092SOL    HW129109   7.084   5.631   3.353
 9092SOL    HW229110   7.103   5.623   3.503
 9093SOL     OW29111   7.563   9.996   5.789
 9093SOL    HW129112   7.632  10.012   5.854
 9093SOL    HW229113   7.597  10.037   5.709
 9094SOL     OW29114   6.185   1.693   1.494
 9094SOL    HW129115   6.151   1.737   1.572
 9094SOL    HW229116   6.115   1.634   1.468
 9095SOL     OW29117   4.448  11.169   4.890
 9095SOL    HW129118   4.393  11.198   4.817
 9095SOL    HW229119   4.528  11.220   4.881
 9096SOL     OW29120   6.595   8.676   1.342
 9096SOL    HW129121   6.568   8.643   1.428
 9096SOL    HW229122   6.641   8.602   1.301
 9097SOL     OW29123   6.976   7.491  10.581
 9097SOL    HW129124   6.936   7.407  10.604
 9097SOL    HW229125   7.026   7.515  10.659
 9098SOL     OW29126   6.040   4.253   7.470
 9098SOL    HW129127   6.124   4.300   7.469
 9098SOL    HW229128   5.976   4.317   7.440
 9099SOL     OW29129   9.258  13.168   9.878
 9099SOL    HW129130   9.231  13.131   9.962
 9099SOL    HW229131   9.294  13.093   9.830
 9100SOL     OW29132   2.240   1.046   1.811
 9100SOL    HW129133   2.264   1.040   1.719
 9100SOL    HW229134   2.263   1.136   1.836
 9101SOL     OW29135   9.472  13.962   3.452
 9101SOL    HW129136   9.458  13.940   3.544
 9101SOL    HW229137   9.391  13.934   3.408
 9102SOL     OW29138   9.262  14.197   7.395
 9102SOL    HW129139   9.239  14.154   7.312
 9102SOL    HW229140   9.191  14.260   7.408
 9103SOL     OW29141   9.669   6.944   8.850
 9103SOL    HW129142   9.683   7.003   8.775
 9103SOL    HW229143   9.753   6.901   8.864
 9104SOL     OW29144   0.296   7.539   1.826
 9104SOL    HW129145   0.282   7.522   1.733
 9104SOL    HW229146   0.374   7.594   1.829
 9105SOL     OW29147   5.241  13.518   3.430
 9105SOL    HW129148   5.270  13.540   3.519
 9105SOL    HW229149   5.147  13.539   3.431
 9106SOL     OW29150  14.136  12.424  10.922
 9106SOL    HW129151  14.142  12.328  10.915
 9106SOL    HW229152  14.080  12.450  10.849
 9107SOL     OW29153   8.601   7.162   2.886
 9107SOL    HW129154   8.570   7.080   2.849
 9107SOL    HW229155   8.527   7.222   2.879
 9108SOL     OW29156   9.846   5.704   3.843
 9108SOL    HW129157   9.810   5.639   3.783
 9108SOL    HW229158   9.772   5.762   3.863
 9109SOL     OW29159   8.560  12.277   4.318
 9109SOL    HW129160   8.607  12.274   4.234
 9109SOL    HW229161   8.565  12.369   4.345
 9110SOL     OW29162  13.618   2.647   1.823
 9110SOL    HW129163  13.652   2.730   1.789
 9110SOL    HW229164  13.560   2.615   1.754
 9111SOL     OW29165   5.233  14.159   4.928
 9111SOL    HW129166   5.208  14.229   4.867
 9111SOL    HW229167   5.280  14.203   4.998
 9112SOL     OW29168   5.877   5.616   5.335
 9112SOL    HW129169   5.893   5.651   5.247
 9112SOL    HW229170   5.959   5.631   5.382
 9113SOL     OW29171  10.272   6.986  12.206
 9113SOL    HW129172  10.207   6.939  12.257
 9113SOL    HW229173  10.235   7.073  12.192
 9114SOL     OW29174   9.207   8.496   7.260
 9114SOL    HW129175   9.178   8.514   7.171
 9114SOL    HW229176   9.262   8.571   7.283
 9115SOL     OW29177   5.004   1.917   4.949
 9115SOL    HW129178   5.015   2.011   4.937
 9115SOL    HW229179   4.979   1.885   4.863
 9116SOL     OW29180  14.070   0.411  14.071
 9116SOL    HW129181  13.993   0.397  14.127
 9116SOL    HW229182  14.049   0.489  14.020
 9117SOL     OW29183   0.277  11.804   8.304
 9117SOL    HW129184   0.320  11.754   8.373
 9117SOL    HW229185   0.200  11.842   8.346
 9118SOL     OW29186  14.348   7.949   6.194
 9118SOL    HW129187  14.342   8.000   6.113
 9118SOL    HW229188  14.352   7.858   6.165
 9119SOL     OW29189   5.425   7.720   3.986
 9119SOL    HW129190   5.350   7.752   4.036
 9119SOL    HW229191   5.388   7.677   3.909
 9120SOL     OW29192   9.774   7.808   5.262
 9120SOL    HW129193   9.859   7.853   5.263
 9120SOL    HW229194   9.715   7.868   5.307
 9121SOL     OW29195  14.201  12.709   0.730
 9121SOL    HW129196  14.162  12.662   0.656
 9121SOL    HW229197  14.149  12.682   0.805
 9122SOL     OW29198  13.987   3.010  10.973
 9122SOL    HW129199  13.901   2.970  10.958
 9122SOL    HW229200  14.041   2.977  10.901
 9123SOL     OW29201  13.368   2.901   6.899
 9123SOL    HW129202  13.409   2.958   6.964
 9123SOL    HW229203  13.369   2.953   6.818
 9124SOL     OW29204  10.357   7.842  11.158
 9124SOL    HW129205  10.337   7.817  11.068
 9124SOL    HW229206  10.304   7.783  11.211
 9125SOL     OW29207   8.908   6.897   6.727
 9125SOL    HW129208   8.855   6.976   6.727
 9125SOL    HW229209   8.919   6.875   6.634
 9126SOL     OW29210   6.086  14.699   1.546
 9126SOL    HW129211   6.019  14.704   1.615
 9126SOL    HW229212   6.094  14.789   1.514
 9127SOL     OW29213  14.651   9.933  14.351
 9127SOL    HW129214  14.660   9.862  14.287
 9127SOL    HW229215  14.728   9.987  14.338
 9128SOL     OW29216   0.489  13.160   7.926
 9128SOL    HW129217   0.416  13.206   7.968
 9128SOL    HW229218   0.496  13.200   7.840
 9129SOL     OW29219   1.732   2.119   9.806
 9129SOL    HW129220   1.685   2.045   9.844
 9129SOL    HW229221   1.804   2.079   9.757
 9130SOL     OW29222   5.146  12.407   1.580
 9130SOL    HW129223   5.069  12.454   1.612
 9130SOL    HW229224   5.143  12.323   1.624
 9131SOL     OW29225   4.298  12.138   0.755
 9131SOL    HW129226   4.336  12.051   0.768
 9131SOL    HW229227   4.265  12.163   0.841
 9132SOL     OW29228  11.296  13.824   2.563
 9132SOL    HW129229  11.380  13.868   2.577
 9132SOL    HW229230  11.246  13.840   2.644
 9133SOL     OW29231  12.073  10.863   8.568
 9133SOL    HW129232  11.985  10.861   8.608
 9133SOL    HW229233  12.062  10.818   8.485
 9134SOL     OW29234   6.572   3.771   6.081
 9134SOL    HW129235   6.525   3.851   6.059
 9134SOL    HW229236   6.527   3.736   6.158
 9135SOL     OW29237   8.084   3.150   8.421
 9135SOL    HW129238   8.005   3.158   8.367
 9135SOL    HW229239   8.150   3.199   8.373
 9136SOL     OW29240   1.351  13.926   3.879
 9136SOL    HW129241   1.385  13.855   3.933
 9136SOL    HW229242   1.315  13.989   3.942
 9137SOL     OW29243   5.757  14.545   7.986
 9137SOL    HW129244   5.775  14.500   8.068
 9137SOL    HW229245   5.837  14.593   7.966
 9138SOL     OW29246   0.151   3.102   9.144
 9138SOL    HW129247   0.098   3.062   9.213
 9138SOL    HW229248   0.217   3.153   9.191
 9139SOL     OW29249   3.490   5.833  14.220
 9139SOL    HW129250   3.522   5.903  14.162
 9139SOL    HW229251   3.414   5.797  14.174
 9140SOL     OW29252   8.705   7.488   9.278
 9140SOL    HW129253   8.658   7.483   9.195
 9140SOL    HW229254   8.645   7.449   9.342
 9141SOL     OW29255   4.664  12.848  12.596
 9141SOL    HW129256   4.574  12.871  12.621
 9141SOL    HW229257   4.719  12.891  12.662
 9142SOL     OW29258   9.798  11.903   7.453
 9142SOL    HW129259   9.887  11.881   7.480
 9142SOL    HW229260   9.744  11.830   7.482
 9143SOL     OW29261  13.816   1.498  12.939
 9143SOL    HW129262  13.784   1.440  12.871
 9143SOL    HW229263  13.877   1.444  12.990
 9144SOL     OW29264   1.473   3.892   7.362
 9144SOL    HW129265   1.388   3.934   7.356
 9144SOL    HW229266   1.454   3.799   7.350
 9145SOL     OW29267   7.247   9.229   5.889
 9145SOL    HW129268   7.304   9.232   5.812
 9145SOL    HW229269   7.196   9.149   5.879
 9146SOL     OW29270   7.576   5.936   9.852
 9146SOL    HW129271   7.643   5.874   9.821
 9146SOL    HW229272   7.544   5.898   9.934
 9147SOL     OW29273  10.587   8.107  11.296
 9147SOL    HW129274  10.508   8.092  11.347
 9147SOL    HW229275  10.555   8.124  11.207
 9148SOL     OW29276   2.572   9.351  10.810
 9148SOL    HW129277   2.661   9.384  10.811
 9148SOL    HW229278   2.517   9.429  10.818
 9149SOL     OW29279   7.764  10.686   3.209
 9149SOL    HW129280   7.736  10.759   3.154
 9149SOL    HW229281   7.852  10.711   3.237
 9150SOL     OW29282   9.163   8.092   8.324
 9150SOL    HW129283   9.090   8.154   8.317
 9150SOL    HW229284   9.205   8.095   8.238
 9151SOL     OW29285   6.041  12.277   5.872
 9151SOL    HW129286   5.965  12.220   5.861
 9151SOL    HW229287   6.110  12.220   5.905
 9152SOL     OW29288  14.381   1.142  11.902
 9152SOL    HW129289  14.437   1.086  11.955
 9152SOL    HW229290  14.396   1.113  11.812
 9153SOL     OW29291   5.120   8.936  12.647
 9153SOL    HW129292   5.169   9.014  12.623
 9153SOL    HW229293   5.041   8.939  12.593
 9154SOL     OW29294  10.335   1.450   6.621
 9154SOL    HW129295  10.255   1.498   6.601
 9154SOL    HW229296  10.305   1.369   6.662
 9155SOL     OW29297   7.404   4.536   2.543
 9155SOL    HW129298   7.495   4.506   2.542
 9155SOL    HW229299   7.397   4.594   2.467
 9156SOL     OW29300   5.028  12.626   5.544
 9156SOL    HW129301   5.089  12.592   5.479
 9156SOL    HW229302   4.972  12.687   5.495
 9157SOL     OW29303  13.046   5.452  14.840
 9157SOL    HW129304  12.993   5.373  14.831
 9157SOL    HW229305  13.132   5.419  14.868
 9158SOL     OW29306   1.618   5.742   9.294
 9158SOL    HW129307   1.682   5.709   9.357
 9158SOL    HW229308   1.533   5.723   9.333
 9159SOL     OW29309  11.303   3.607  11.309
 9159SOL    HW129310  11.394   3.614  11.279
 9159SOL    HW229311  11.307   3.621  11.403
 9160SOL     OW29312  11.991   2.500   1.824
 9160SOL    HW129313  11.956   2.564   1.886
 9160SOL    HW229314  11.927   2.429   1.824
 9161SOL     OW29315   1.789  14.368  12.172
 9161SOL    HW129316   1.874  14.324  12.181
 9161SOL    HW229317   1.803  14.433  12.104
 9162SOL     OW29318   2.066   4.925  14.722
 9162SOL    HW129319   2.044   4.974  14.643
 9162SOL    HW229320   2.141   4.972  14.759
 9163SOL     OW29321   4.143  11.901   2.040
 9163SOL    HW129322   4.138  11.813   2.076
 9163SOL    HW229323   4.071  11.949   2.082
 9164SOL     OW29324  11.771   3.061   3.151
 9164SOL    HW129325  11.835   3.132   3.140
 9164SOL    HW229326  11.782   3.034   3.242
 9165SOL     OW29327   1.725  12.252   5.913
 9165SOL    HW129328   1.704  12.176   5.858
 9165SOL    HW229329   1.807  12.229   5.956
 9166SOL     OW29330  10.081   1.827   9.333
 9166SOL    HW129331  10.069   1.922   9.329
 9166SOL    HW229332  10.088   1.801   9.241
 9167SOL     OW29333   7.402   1.388   6.591
 9167SOL    HW129334   7.343   1.375   6.666
 9167SOL    HW229335   7.345   1.383   6.514
 9168SOL     OW29336  11.200  10.774  13.076
 9168SOL    HW129337  11.174  10.794  13.166
 9168SOL    HW229338  11.211  10.679  13.074
 9169SOL     OW29339   6.421  11.815   0.649
 9169SOL    HW129340   6.346  11.768   0.686
 9169SOL    HW229341   6.438  11.771   0.566
 9170SOL     OW29342  13.574  13.965  14.694
 9170SOL    HW129343  13.609  13.876  14.702
 9170SOL    HW229344  13.528  13.979  14.777
 9171SOL     OW29345  12.686   3.786   4.558
 9171SOL    HW129346  12.759   3.843   4.581
 9171SOL    HW229347  12.727   3.712   4.512
 9172SOL     OW29348   5.915   8.760   6.171
 9172SOL    HW129349   5.885   8.709   6.246
 9172SOL    HW229350   6.002   8.791   6.196
 9173SOL     OW29351  10.645  12.224   3.663
 9173SOL    HW129352  10.600  12.308   3.672
 9173SOL    HW229353  10.634  12.200   3.571
 9174SOL     OW29354   7.303   6.730   5.512
 9174SOL    HW129355   7.391   6.725   5.551
 9174SOL    HW229356   7.316   6.777   5.429
 9175SOL     OW29357   9.745   6.246   8.954
 9175SOL    HW129358   9.788   6.279   8.875
 9175SOL    HW229359   9.762   6.152   8.954
 9176SOL     OW29360  12.160  13.712   3.961
 9176SOL    HW129361  12.180  13.681   4.049
 9176SOL    HW229362  12.071  13.679   3.944
 9177SOL     OW29363   4.213   9.729   2.830
 9177SOL    HW129364   4.168   9.647   2.853
 9177SOL    HW229365   4.212   9.731   2.734
 9178SOL     OW29366   4.122  14.596   9.560
 9178SOL    HW129367   4.147  14.503   9.562
 9178SOL    HW229368   4.115  14.622   9.651
 9179SOL     OW29369   9.132   0.371   0.028
 9179SOL    HW129370   9.152   0.421  14.821
 9179SOL    HW229371   9.121   0.281  14.871
 9180SOL     OW29372   2.866   4.871   8.711
 9180SOL    HW129373   2.933   4.889   8.777
 9180SOL    HW229374   2.886   4.932   8.639
 9181SOL     OW29375   6.848   0.695  10.034
 9181SOL    HW129376   6.795   0.764  10.073
 9181SOL    HW229377   6.796   0.615  10.048
 9182SOL     OW29378   5.733  11.106  13.965
 9182SOL    HW129379   5.721  11.200  13.959
 9182SOL    HW229380   5.743  11.077  13.874
 9183SOL     OW29381  14.077   2.911   8.322
 9183SOL    HW129382  14.120   2.876   8.400
 9183SOL    HW229383  13.990   2.938   8.353
 9184SOL     OW29384   8.617  10.029   5.629
 9184SOL    HW129385   8.587   9.985   5.708
 9184SOL    HW229386   8.594   9.969   5.557
 9185SOL     OW29387   4.824   6.369   1.653
 9185SOL    HW129388   4.823   6.332   1.564
 9185SOL    HW229389   4.758   6.438   1.651
 9186SOL     OW29390  11.264   4.767  12.169
 9186SOL    HW129391  11.316   4.705  12.219
 9186SOL    HW229392  11.173   4.739  12.183
 9187SOL     OW29393   9.061   3.808   9.844
 9187SOL    HW129394   8.974   3.823   9.809
 9187SOL    HW229395   9.118   3.801   9.766
 9188SOL     OW29396  11.384   7.180   9.530
 9188SOL    HW129397  11.431   7.101   9.557
 9188SOL    HW229398  11.295   7.168   9.565
 9189SOL     OW29399  11.585   0.359   0.939
 9189SOL    HW129400  11.594   0.368   0.844
 9189SOL    HW229401  11.541   0.439   0.967
 9190SOL     OW29402   6.168  13.719   3.927
 9190SOL    HW129403   6.205  13.712   3.839
 9190SOL    HW229404   6.171  13.629   3.960
 9191SOL     OW29405   7.012  11.002   7.396
 9191SOL    HW129406   7.071  10.999   7.471
 9191SOL    HW229407   6.925  11.016   7.434
 9192SOL     OW29408  14.611   6.204   9.790
 9192SOL    HW129409  14.578   6.281   9.837
 9192SOL    HW229410  14.612   6.231   9.698
 9193SOL     OW29411   7.952  14.337  11.266
 9193SOL    HW129412   8.009  14.399  11.221
 9193SOL    HW229413   8.010  14.288  11.323
 9194SOL     OW29414   5.298  11.029   2.209
 9194SOL    HW129415   5.234  10.987   2.267
 9194SOL    HW229416   5.377  10.976   2.218
 9195SOL     OW29417   8.332   9.117   9.488
 9195SOL    HW129418   8.252   9.170   9.492
 9195SOL    HW229419   8.403   9.180   9.484
 9196SOL     OW29420   7.735   7.279   5.530
 9196SOL    HW129421   7.775   7.318   5.608
 9196SOL    HW229422   7.641   7.295   5.540
 9197SOL     OW29423   5.587  13.959   5.430
 9197SOL    HW129424   5.679  13.934   5.441
 9197SOL    HW229425   5.570  14.021   5.501
 9198SOL     OW29426  12.024  12.325  12.007
 9198SOL    HW129427  12.063  12.410  12.027
 9198SOL    HW229428  12.048  12.270  12.081
 9199SOL     OW29429  11.205   4.351  10.484
 9199SOL    HW129430  11.119   4.317  10.506
 9199SOL    HW229431  11.256   4.274  10.458
 9200SOL     OW29432  12.248   4.750  12.283
 9200SOL    HW129433  12.236   4.845  12.291
 9200SOL    HW229434  12.246   4.734  12.189
 9201SOL     OW29435   4.675  12.428  14.434
 9201SOL    HW129436   4.587  12.456  14.459
 9201SOL    HW229437   4.733  12.495  14.470
 9202SOL     OW29438  12.001   2.432   4.740
 9202SOL    HW129439  12.090   2.403   4.718
 9202SOL    HW229440  11.951   2.421   4.659
 9203SOL     OW29441   0.217   3.540  14.702
 9203SOL    HW129442   0.165   3.476  14.652
 9203SOL    HW229443   0.308   3.513  14.689
 9204SOL     OW29444   7.008   7.224   6.857
 9204SOL    HW129445   6.948   7.198   6.927
 9204SOL    HW229446   6.951   7.240   6.782
 9205SOL     OW29447   4.908   3.299  12.904
 9205SOL    HW129448   4.867   3.373  12.948
 9205SOL    HW229449   4.942   3.335  12.822
 9206SOL     OW29450   1.991   9.889  11.017
 9206SOL    HW129451   2.042   9.811  11.037
 9206SOL    HW229452   2.018   9.913  10.928
 9207SOL     OW29453   4.042   0.189   4.853
 9207SOL    HW129454   4.059   0.101   4.885
 9207SOL    HW229455   4.007   0.236   4.929
 9208SOL     OW29456   7.836   0.136  12.844
 9208SOL    HW129457   7.867   0.046  12.857
 9208SOL    HW229458   7.767   0.128  12.778
 9209SOL     OW29459   4.388   9.713  13.323
 9209SOL    HW129460   4.468   9.678  13.284
 9209SOL    HW229461   4.359   9.780  13.262
 9210SOL     OW29462  14.074   5.446  11.210
 9210SOL    HW129463  14.122   5.374  11.169
 9210SOL    HW229464  14.073   5.516  11.145
 9211SOL     OW29465   8.684  13.320   9.662
 9211SOL    HW129466   8.714  13.233   9.636
 9211SOL    HW229467   8.713  13.378   9.592
 9212SOL     OW29468  12.113   7.472   7.158
 9212SOL    HW129469  12.112   7.497   7.250
 9212SOL    HW229470  12.143   7.382   7.157
 9213SOL     OW29471   2.744   8.266   0.423
 9213SOL    HW129472   2.796   8.273   0.503
 9213SOL    HW229473   2.660   8.230   0.452
 9214SOL     OW29474  10.203   7.378  14.628
 9214SOL    HW129475  10.235   7.464  14.654
 9214SOL    HW229476  10.276   7.319  14.648
 9215SOL     OW29477  14.188   3.833  10.197
 9215SOL    HW129478  14.121   3.764  10.200
 9215SOL    HW229479  14.140   3.914  10.216
 9216SOL     OW29480   6.553   2.085   5.886
 9216SOL    HW129481   6.616   2.094   5.957
 9216SOL    HW229482   6.529   2.174   5.863
 9217SOL     OW29483  13.011  10.539   2.271
 9217SOL    HW129484  12.949  10.565   2.340
 9217SOL    HW229485  13.061  10.467   2.309
 9218SOL     OW29486   3.639   1.042   1.628
 9218SOL    HW129487   3.656   1.133   1.652
 9218SOL    HW229488   3.555   1.044   1.582
 9219SOL     OW29489   0.030   6.666   5.711
 9219SOL    HW129490   0.082   6.587   5.696
 9219SOL    HW229491   0.091   6.727   5.752
 9220SOL     OW29492   3.996   2.961   5.721
 9220SOL    HW129493   4.024   3.003   5.640
 9220SOL    HW229494   3.957   2.878   5.693
 9221SOL     OW29495   1.712  13.047  13.688
 9221SOL    HW129496   1.779  13.100  13.730
 9221SOL    HW229497   1.736  12.957  13.708
 9222SOL     OW29498   0.100   4.743   7.593
 9222SOL    HW129499   0.006   4.747   7.573
 9222SOL    HW229500   0.143   4.752   7.508
 9223SOL     OW29501  14.582   7.082   7.376
 9223SOL    HW129502  14.642   7.028   7.324
 9223SOL    HW229503  14.545   7.020   7.440
 9224SOL     OW29504  10.493  14.823   9.587
 9224SOL    HW129505  10.452   0.008   9.522
 9224SOL    HW229506  10.436  14.746   9.591
 9225SOL     OW29507  10.023   6.963  11.597
 9225SOL    HW129508   9.951   6.995  11.543
 9225SOL    HW229509  10.096   7.021  11.576
 9226SOL     OW29510   3.657   1.598  13.629
 9226SOL    HW129511   3.704   1.564  13.553
 9226SOL    HW229512   3.717   1.660  13.669
 9227SOL     OW29513   1.555   8.756  12.738
 9227SOL    HW129514   1.623   8.692  12.755
 9227SOL    HW229515   1.588   8.807  12.663
 9228SOL     OW29516   3.458   8.351   1.799
 9228SOL    HW129517   3.510   8.379   1.875
 9228SOL    HW229518   3.467   8.424   1.737
 9229SOL     OW29519   6.053   3.552   8.931
 9229SOL    HW129520   6.019   3.578   9.017
 9229SOL    HW229521   6.143   3.585   8.930
 9230SOL     OW29522  10.856   5.899   3.565
 9230SOL    HW129523  10.802   5.978   3.566
 9230SOL    HW229524  10.803   5.833   3.609
 9231SOL     OW29525   3.365   3.570   4.742
 9231SOL    HW129526   3.399   3.655   4.715
 9231SOL    HW229527   3.318   3.587   4.824
 9232SOL     OW29528   2.830  12.854  10.483
 9232SOL    HW129529   2.899  12.919  10.488
 9232SOL    HW229530   2.760  12.898  10.434
 9233SOL     OW29531   5.084   2.636   8.995
 9233SOL    HW129532   5.122   2.706   8.943
 9233SOL    HW229533   4.992   2.635   8.971
 9234SOL     OW29534  10.367   2.068   0.444
 9234SOL    HW129535  10.288   2.055   0.498
 9234SOL    HW229536  10.351   2.151   0.398
 9235SOL     OW29537   6.120   1.373   4.454
 9235SOL    HW129538   6.164   1.393   4.537
 9235SOL    HW229539   6.181   1.315   4.408
 9236SOL     OW29540  14.142   3.748   9.582
 9236SOL    HW129541  14.083   3.732   9.656
 9236SOL    HW229542  14.223   3.779   9.622
 9237SOL     OW29543   8.483   9.541   0.027
 9237SOL    HW129544   8.416   9.538   0.095
 9237SOL    HW229545   8.564   9.521   0.073
 9238SOL     OW29546   7.549  14.172   2.011
 9238SOL    HW129547   7.627  14.205   2.055
 9238SOL    HW229548   7.516  14.104   2.069
 9239SOL     OW29549   7.698   6.330   5.980
 9239SOL    HW129550   7.616   6.299   5.942
 9239SOL    HW229551   7.681   6.333   6.074
 9240SOL     OW29552   5.823   9.737   5.275
 9240SOL    HW129553   5.834   9.788   5.355
 9240SOL    HW229554   5.894   9.673   5.276
 9241SOL     OW29555   4.339   2.707  13.240
 9241SOL    HW129556   4.353   2.671  13.152
 9241SOL    HW229557   4.407   2.773  13.250
 9242SOL     OW29558   8.111  11.004  11.319
 9242SOL    HW129559   8.161  11.057  11.381
 9242SOL    HW229560   8.045  10.960  11.373
 9243SOL     OW29561   9.584   1.153  10.251
 9243SOL    HW129562   9.581   1.060  10.273
 9243SOL    HW229563   9.634   1.158  10.170
 9244SOL     OW29564  10.354   1.701   6.158
 9244SOL    HW129565  10.421   1.768   6.172
 9244SOL    HW229566  10.385   1.652   6.082
 9245SOL     OW29567   3.548  11.217   9.207
 9245SOL    HW129568   3.465  11.172   9.226
 9245SOL    HW229569   3.523  11.291   9.153
 9246SOL     OW29570   3.186   2.421  11.927
 9246SOL    HW129571   3.162   2.335  11.960
 9246SOL    HW229572   3.122   2.440  11.859
 9247SOL     OW29573   9.146   7.611   7.087
 9247SOL    HW129574   9.161   7.703   7.068
 9247SOL    HW229575   9.090   7.611   7.165
 9248SOL     OW29576  13.986   6.744   3.850
 9248SOL    HW129577  13.961   6.828   3.810
 9248SOL    HW229578  13.910   6.721   3.904
 9249SOL     OW29579  14.473   3.747  14.089
 9249SOL    HW129580  14.528   3.696  14.148
 9249SOL    HW229581  14.412   3.682  14.052
 9250SOL     OW29582  14.456   8.892   5.902
 9250SOL    HW129583  14.430   8.804   5.930
 9250SOL    HW229584  14.442   8.947   5.978
 9251SOL     OW29585   9.960  13.970   2.910
 9251SOL    HW129586   9.971  14.035   2.842
 9251SOL    HW229587   9.902  14.011   2.974
 9252SOL     OW29588  13.394   1.783   6.697
 9252SOL    HW129589  13.451   1.835   6.641
 9252SOL    HW229590  13.428   1.694   6.690
 9253SOL     OW29591  12.486   1.700   2.007
 9253SOL    HW129592  12.578   1.719   2.025
 9253SOL    HW229593  12.459   1.769   1.947
 9254SOL     OW29594   8.030   6.262   3.021
 9254SOL    HW129595   8.027   6.277   3.115
 9254SOL    HW229596   7.940   6.243   2.996
 9255SOL     OW29597  11.569   9.768   9.731
 9255SOL    HW129598  11.531   9.831   9.670
 9255SOL    HW229599  11.639   9.817   9.774
 9256SOL     OW29600  12.141  13.003   3.797
 9256SOL    HW129601  12.084  12.931   3.823
 9256SOL    HW229602  12.129  13.010   3.702
 9257SOL     OW29603  13.505   5.748   3.652
 9257SOL    HW129604  13.517   5.663   3.611
 9257SOL    HW229605  13.582   5.757   3.710
 9258SOL     OW29606   7.875   6.648   3.201
 9258SOL    HW129607   7.791   6.666   3.244
 9258SOL    HW229608   7.910   6.734   3.180
 9259SOL     OW29609  12.524  10.414   3.241
 9259SOL    HW129610  12.496  10.323   3.226
 9259SOL    HW229611  12.559  10.414   3.330
 9260SOL     OW29612   2.874  14.847   6.223
 9260SOL    HW129613   2.878   0.068   6.242
 9260SOL    HW229614   2.802  14.815   6.278
 9261SOL     OW29615   0.123   6.627   7.910
 9261SOL    HW129616   0.116   6.538   7.945
 9261SOL    HW229617   0.165   6.616   7.825
 9262SOL     OW29618   2.436   5.404   6.335
 9262SOL    HW129619   2.438   5.330   6.276
 9262SOL    HW229620   2.508   5.460   6.307
 9263SOL     OW29621   0.098  11.423   7.275
 9263SOL    HW129622   0.101  11.349   7.214
 9263SOL    HW229623   0.020  11.472   7.248
 9264SOL     OW29624  14.772  13.481   4.278
 9264SOL    HW129625  14.795  13.418   4.210
 9264SOL    HW229626  14.831  13.555   4.262
 9265SOL     OW29627   2.318  14.705   4.365
 9265SOL    HW129628   2.314  14.798   4.343
 9265SOL    HW229629   2.251  14.664   4.310
 9266SOL     OW29630   1.484   1.078   7.605
 9266SOL    HW129631   1.565   1.031   7.627
 9266SOL    HW229632   1.487   1.088   7.510
 9267SOL     OW29633   2.017   9.017   3.213
 9267SOL    HW129634   2.002   9.104   3.250
 9267SOL    HW229635   2.068   8.971   3.280
 9268SOL     OW29636   0.930  12.603  10.155
 9268SOL    HW129637   0.871  12.604  10.080
 9268SOL    HW229638   0.963  12.693  10.160
 9269SOL     OW29639   6.439  11.744   6.423
 9269SOL    HW129640   6.490  11.797   6.362
 9269SOL    HW229641   6.493  11.666   6.439
 9270SOL     OW29642  13.298  10.108   9.768
 9270SOL    HW129643  13.216  10.088   9.813
 9270SOL    HW229644  13.273  10.166   9.696
 9271SOL     OW29645  13.516  13.364   2.792
 9271SOL    HW129646  13.567  13.288   2.821
 9271SOL    HW229647  13.581  13.433   2.783
 9272SOL     OW29648  13.281   7.174  12.270
 9272SOL    HW129649  13.224   7.245  12.301
 9272SOL    HW229650  13.233   7.135  12.197
 9273SOL     OW29651  11.895   1.216  10.650
 9273SOL    HW129652  11.894   1.125  10.680
 9273SOL    HW229653  11.863   1.211  10.560
 9274SOL     OW29654   4.367   9.853   1.457
 9274SOL    HW129655   4.460   9.866   1.439
 9274SOL    HW229656   4.355   9.758   1.455
 9275SOL     OW29657   1.464   7.136   4.550
 9275SOL    HW129658   1.395   7.141   4.616
 9275SOL    HW229659   1.533   7.083   4.591
 9276SOL     OW29660  12.152   6.027   6.933
 9276SOL    HW129661  12.131   6.117   6.906
 9276SOL    HW229662  12.084   6.005   6.996
 9277SOL     OW29663   6.506  12.977   3.154
 9277SOL    HW129664   6.464  13.054   3.117
 9277SOL    HW229665   6.442  12.907   3.143
 9278SOL     OW29666   8.294   4.594  12.766
 9278SOL    HW129667   8.379   4.621  12.801
 9278SOL    HW229668   8.292   4.630  12.677
 9279SOL     OW29669   0.075   4.208  10.543
 9279SOL    HW129670   0.103   4.128  10.498
 9279SOL    HW229671   0.125   4.209  10.624
 9280SOL     OW29672   8.795   6.109  13.311
 9280SOL    HW129673   8.714   6.156  13.333
 9280SOL    HW229674   8.862   6.177  13.305
 9281SOL     OW29675   8.897   5.904  13.485
 9281SOL    HW129676   8.821   5.853  13.511
 9281SOL    HW229677   8.861   5.984  13.448
 9282SOL     OW29678   2.025   4.546   5.715
 9282SOL    HW129679   1.964   4.474   5.730
 9282SOL    HW229680   2.067   4.560   5.800
 9283SOL     OW29681  12.057   8.915   9.091
 9283SOL    HW129682  12.081   8.859   9.165
 9283SOL    HW229683  12.139   8.957   9.065
 9284SOL     OW29684   1.708   5.229  10.226
 9284SOL    HW129685   1.690   5.139  10.197
 9284SOL    HW229686   1.789   5.252  10.182
 9285SOL     OW29687   9.818  14.144   3.578
 9285SOL    HW129688   9.843  14.198   3.653
 9285SOL    HW229689   9.845  14.056   3.602
 9286SOL     OW29690   2.583   1.217   3.953
 9286SOL    HW129691   2.542   1.267   3.882
 9286SOL    HW229692   2.664   1.265   3.972
 9287SOL     OW29693   1.787   1.581   1.042
 9287SOL    HW129694   1.843   1.513   1.006
 9287SOL    HW229695   1.715   1.534   1.083
 9288SOL     OW29696   1.094   4.906  10.440
 9288SOL    HW129697   1.062   4.854  10.514
 9288SOL    HW229698   1.093   4.996  10.473
 9289SOL     OW29699   0.242   6.772   1.351
 9289SOL    HW129700   0.270   6.852   1.395
 9289SOL    HW229701   0.229   6.709   1.422
 9290SOL     OW29702   8.454  12.339  12.661
 9290SOL    HW129703   8.497  12.284  12.595
 9290SOL    HW229704   8.379  12.377  12.615
 9291SOL     OW29705   9.087   3.591   7.869
 9291SOL    HW129706   9.117   3.500   7.861
 9291SOL    HW229707   8.994   3.583   7.890
 9292SOL     OW29708  13.084   2.250   7.005
 9292SOL    HW129709  13.044   2.188   7.065
 9292SOL    HW229710  13.154   2.201   6.962
 9293SOL     OW29711  11.761   6.154   4.321
 9293SOL    HW129712  11.695   6.195   4.377
 9293SOL    HW229713  11.791   6.079   4.371
 9294SOL     OW29714  10.486  11.819   3.855
 9294SOL    HW129715  10.393  11.809   3.874
 9294SOL    HW229716  10.519  11.729   3.848
 9295SOL     OW29717   9.765  11.532   5.142
 9295SOL    HW129718   9.741  11.555   5.232
 9295SOL    HW229719   9.775  11.616   5.098
 9296SOL     OW29720   7.674  14.313   6.427
 9296SOL    HW129721   7.701  14.248   6.492
 9296SOL    HW229722   7.700  14.275   6.343
 9297SOL     OW29723   5.437  12.527   4.468
 9297SOL    HW129724   5.526  12.560   4.476
 9297SOL    HW229725   5.444  12.434   4.491
 9298SOL     OW29726  12.660   5.850   2.773
 9298SOL    HW129727  12.645   5.756   2.782
 9298SOL    HW229728  12.752   5.857   2.748
 9299SOL     OW29729  10.776   5.958   4.781
 9299SOL    HW129730  10.780   6.012   4.860
 9299SOL    HW229731  10.840   5.888   4.797
 9300SOL     OW29732   5.972  11.621  14.793
 9300SOL    HW129733   6.000  11.668  14.715
 9300SOL    HW229734   5.888  11.581  14.767
 9301SOL     OW29735  14.385  10.179  10.424
 9301SOL    HW129736  14.361  10.168  10.516
 9301SOL    HW229737  14.472  10.220  10.427
 9302SOL     OW29738   0.933  13.175   0.118
 9302SOL    HW129739   0.983  13.172   0.199
 9302SOL    HW229740   0.931  13.268   0.094
 9303SOL     OW29741   3.206   7.548   3.908
 9303SOL    HW129742   3.158   7.626   3.933
 9303SOL    HW229743   3.139   7.486   3.879
 9304SOL     OW29744   6.301   6.422   6.865
 9304SOL    HW129745   6.218   6.448   6.824
 9304SOL    HW229746   6.276   6.393   6.953
 9305SOL     OW29747   1.245   2.457  11.117
 9305SOL    HW129748   1.203   2.418  11.194
 9305SOL    HW229749   1.256   2.549  11.140
 9306SOL     OW29750  10.634  11.525  12.728
 9306SOL    HW129751  10.706  11.477  12.769
 9306SOL    HW229752  10.555  11.479  12.758
 9307SOL     OW29753  12.223   0.172   0.061
 9307SOL    HW129754  12.228   0.258   0.019
 9307SOL    HW229755  12.243   0.190   0.153
 9308SOL     OW29756   7.119   3.409   5.680
 9308SOL    HW129757   7.059   3.339   5.655
 9308SOL    HW229758   7.205   3.367   5.683
 9309SOL     OW29759   7.290  11.090   1.623
 9309SOL    HW129760   7.285  11.024   1.692
 9309SOL    HW229761   7.378  11.081   1.587
 9310SOL     OW29762  11.724  13.458   0.880
 9310SOL    HW129763  11.669  13.421   0.811
 9310SOL    HW229764  11.662  13.503   0.937
 9311SOL     OW29765  12.645  11.384   3.534
 9311SOL    HW129766  12.562  11.431   3.531
 9311SOL    HW229767  12.621  11.294   3.557
 9312SOL     OW29768   0.721   2.056  11.681
 9312SOL    HW129769   0.790   2.009  11.728
 9312SOL    HW229770   0.705   2.135  11.732
 9313SOL     OW29771  13.726   7.347   3.928
 9313SOL    HW129772  13.791   7.277   3.922
 9313SOL    HW229773  13.760   7.407   3.995
 9314SOL     OW29774   5.438   5.583   4.548
 9314SOL    HW129775   5.510   5.609   4.491
 9314SOL    HW229776   5.369   5.648   4.532
 9315SOL     OW29777  10.817  13.884   6.801
 9315SOL    HW129778  10.893  13.827   6.801
 9315SOL    HW229779  10.794  13.895   6.709
 9316SOL     OW29780   2.697  10.061   4.279
 9316SOL    HW129781   2.663   9.984   4.232
 9316SOL    HW229782   2.763  10.097   4.220
 9317SOL     OW29783  10.575   7.384   5.983
 9317SOL    HW129784  10.556   7.346   5.897
 9317SOL    HW229785  10.657   7.343   6.010
 9318SOL     OW29786   3.422   5.560   7.230
 9318SOL    HW129787   3.424   5.656   7.227
 9318SOL    HW229788   3.428   5.533   7.138
 9319SOL     OW29789   8.519   8.568   9.136
 9319SOL    HW129790   8.441   8.520   9.108
 9319SOL    HW229791   8.509   8.579   9.230
 9320SOL     OW29792   7.468   8.996   6.269
 9320SOL    HW129793   7.492   9.085   6.242
 9320SOL    HW229794   7.459   8.948   6.186
 9321SOL     OW29795   5.588   1.001   7.299
 9321SOL    HW129796   5.672   0.964   7.327
 9321SOL    HW229797   5.596   1.011   7.204
 9322SOL     OW29798   2.478  12.580   2.264
 9322SOL    HW129799   2.536  12.562   2.191
 9322SOL    HW229800   2.471  12.497   2.311
 9323SOL     OW29801   5.981   1.481   9.994
 9323SOL    HW129802   6.051   1.455  10.053
 9323SOL    HW229803   5.904   1.433  10.025
 9324SOL     OW29804  13.069   4.787   9.860
 9324SOL    HW129805  13.154   4.806   9.900
 9324SOL    HW229806  13.055   4.694   9.877
 9325SOL     OW29807  12.252   0.565   7.361
 9325SOL    HW129808  12.285   0.547   7.274
 9325SOL    HW229809  12.209   0.650   7.353
 9326SOL     OW29810   5.271  13.668  11.831
 9326SOL    HW129811   5.334  13.596  11.825
 9326SOL    HW229812   5.211  13.655  11.757
 9327SOL     OW29813  10.347  14.474   9.358
 9327SOL    HW129814  10.355  14.422   9.278
 9327SOL    HW229815  10.253  14.481   9.373
 9328SOL     OW29816   8.983  14.268  10.521
 9328SOL    HW129817   9.010  14.234  10.436
 9328SOL    HW229818   9.040  14.224  10.584
 9329SOL     OW29819   0.665   1.335  10.168
 9329SOL    HW129820   0.720   1.321  10.091
 9329SOL    HW229821   0.651   1.248  10.204
 9330SOL     OW29822  13.555   9.563  12.316
 9330SOL    HW129823  13.512   9.639  12.355
 9330SOL    HW229824  13.649   9.585  12.320
 9331SOL     OW29825   0.849   4.485   7.271
 9331SOL    HW129826   0.844   4.555   7.207
 9331SOL    HW229827   0.941   4.485   7.300
 9332SOL     OW29828   8.630   1.512   0.425
 9332SOL    HW129829   8.682   1.537   0.348
 9332SOL    HW229830   8.553   1.469   0.389
 9333SOL     OW29831   5.762   0.342   7.110
 9333SOL    HW129832   5.822   0.302   7.173
 9333SOL    HW229833   5.817   0.404   7.061
 9334SOL     OW29834   8.552   4.405   2.872
 9334SOL    HW129835   8.638   4.379   2.905
 9334SOL    HW229836   8.569   4.433   2.782
 9335SOL     OW29837  13.791   1.557   9.904
 9335SOL    HW129838  13.820   1.577   9.993
 9335SOL    HW229839  13.767   1.642   9.867
 9336SOL     OW29840  14.397   9.347  11.889
 9336SOL    HW129841  14.396   9.268  11.944
 9336SOL    HW229842  14.322   9.336  11.830
 9337SOL     OW29843   9.484  14.362   8.896
 9337SOL    HW129844   9.562  14.413   8.916
 9337SOL    HW229845   9.507  14.272   8.919
 9338SOL     OW29846  10.823   2.752  13.736
 9338SOL    HW129847  10.800   2.741  13.644
 9338SOL    HW229848  10.816   2.847  13.751
 9339SOL     OW29849   7.558   4.638   2.329
 9339SOL    HW129850   7.538   4.727   2.300
 9339SOL    HW229851   7.647   4.644   2.364
 9340SOL     OW29852   7.063   8.191   3.455
 9340SOL    HW129853   7.009   8.256   3.411
 9340SOL    HW229854   7.001   8.131   3.496
 9341SOL     OW29855   6.597  14.290   1.937
 9341SOL    HW129856   6.612  14.335   2.020
 9341SOL    HW229857   6.654  14.214   1.939
 9342SOL     OW29858   3.152   9.747  10.230
 9342SOL    HW129859   3.143   9.837  10.199
 9342SOL    HW229860   3.156   9.755  10.325
 9343SOL     OW29861  12.578   4.489   3.933
 9343SOL    HW129862  12.491   4.473   3.896
 9343SOL    HW229863  12.560   4.530   4.018
 9344SOL     OW29864  10.331   8.283  13.623
 9344SOL    HW129865  10.361   8.333  13.699
 9344SOL    HW229866  10.407   8.230  13.598
 9345SOL     OW29867   7.052  13.602   4.577
 9345SOL    HW129868   7.102  13.662   4.633
 9345SOL    HW229869   6.990  13.660   4.532
 9346SOL     OW29870   5.867  12.396   3.115
 9346SOL    HW129871   5.862  12.395   3.211
 9346SOL    HW229872   5.825  12.314   3.089
 9347SOL     OW29873  13.877   6.514  10.196
 9347SOL    HW129874  13.782   6.514  10.202
 9347SOL    HW229875  13.904   6.594  10.241
 9348SOL     OW29876   0.830  10.870   2.115
 9348SOL    HW129877   0.795  10.955   2.143
 9348SOL    HW229878   0.850  10.824   2.196
 9349SOL     OW29879  10.518   6.193   5.445
 9349SOL    HW129880  10.558   6.218   5.529
 9349SOL    HW229881  10.429   6.165   5.469
 9350SOL     OW29882  11.288  14.696   7.672
 9350SOL    HW129883  11.345  14.632   7.630
 9350SOL    HW229884  11.213  14.704   7.613
 9351SOL     OW29885   6.915   7.999   3.591
 9351SOL    HW129886   6.904   7.915   3.545
 9351SOL    HW229887   6.832   8.012   3.636
 9352SOL     OW29888   7.116   3.652  10.438
 9352SOL    HW129889   7.125   3.579  10.499
 9352SOL    HW229890   7.182   3.635  10.370
 9353SOL     OW29891  13.363  10.311   7.011
 9353SOL    HW129892  13.389  10.289   6.921
 9353SOL    HW229893  13.353  10.226   7.054
 9354SOL     OW29894   2.194  10.050  13.212
 9354SOL    HW129895   2.100  10.059  13.198
 9354SOL    HW229896   2.203  10.039  13.306
 9355SOL     OW29897   8.301   0.967  14.457
 9355SOL    HW129898   8.232   0.934  14.400
 9355SOL    HW229899   8.332   1.046  14.414
 9356SOL     OW29900  11.094  12.899   8.782
 9356SOL    HW129901  11.014  12.873   8.827
 9356SOL    HW229902  11.068  12.973   8.727
 9357SOL     OW29903   3.063   5.655  11.781
 9357SOL    HW129904   3.091   5.613  11.863
 9357SOL    HW229905   2.977   5.691  11.800
 9358SOL     OW29906  11.908  13.558   4.348
 9358SOL    HW129907  11.893  13.612   4.270
 9358SOL    HW229908  11.820  13.543   4.384
 9359SOL     OW29909   4.806   3.060  13.354
 9359SOL    HW129910   4.851   3.014  13.425
 9359SOL    HW229911   4.737   3.110  13.398
 9360SOL     OW29912   3.127  12.244   9.033
 9360SOL    HW129913   3.033  12.242   9.018
 9360SOL    HW229914   3.138  12.214   9.123
 9361SOL     OW29915   4.664   9.816  14.158
 9361SOL    HW129916   4.605   9.791  14.086
 9361SOL    HW229917   4.660   9.743  14.219
 9362SOL     OW29918   1.316   0.020  14.600
 9362SOL    HW129919   1.315   0.099  14.653
 9362SOL    HW229920   1.324  14.821  14.664
 9363SOL     OW29921  11.819  14.093  11.799
 9363SOL    HW129922  11.850  14.009  11.764
 9363SOL    HW229923  11.896  14.134  11.837
 9364SOL     OW29924   5.219   5.652  10.201
 9364SOL    HW129925   5.180   5.739  10.190
 9364SOL    HW229926   5.157   5.605  10.258
 9365SOL     OW29927   1.209   6.142   8.879
 9365SOL    HW129928   1.183   6.114   8.792
 9365SOL    HW229929   1.261   6.070   8.913
 9366SOL     OW29930   5.570   2.351  14.602
 9366SOL    HW129931   5.485   2.322  14.635
 9366SOL    HW229932   5.571   2.322  14.511
 9367SOL     OW29933   5.483   8.626   8.733
 9367SOL    HW129934   5.390   8.640   8.754
 9367SOL    HW229935   5.530   8.679   8.797
 9368SOL     OW29936   2.915   7.488  11.845
 9368SOL    HW129937   2.952   7.551  11.907
 9368SOL    HW229938   2.974   7.492  11.769
 9369SOL     OW29939  10.596  12.343   4.058
 9369SOL    HW129940  10.598  12.252   4.029
 9369SOL    HW229941  10.577  12.393   3.979
 9370SOL     OW29942   0.322   7.373   8.876
 9370SOL    HW129943   0.360   7.317   8.944
 9370SOL    HW229944   0.391   7.437   8.856
 9371SOL     OW29945   5.123  11.767   2.219
 9371SOL    HW129946   5.145  11.710   2.146
 9371SOL    HW229947   5.032  11.792   2.204
 9372SOL     OW29948  14.618  11.855   5.931
 9372SOL    HW129949  14.589  11.858   5.839
 9372SOL    HW229950  14.677  11.780   5.935
 9373SOL     OW29951  13.370   9.371   6.572
 9373SOL    HW129952  13.385   9.363   6.478
 9373SOL    HW229953  13.420   9.300   6.611
 9374SOL     OW29954   5.775  14.400   2.377
 9374SOL    HW129955   5.743  14.345   2.448
 9374SOL    HW229956   5.853  14.442   2.412
 9375SOL     OW29957   8.131   5.875  13.600
 9375SOL    HW129958   8.137   5.895  13.693
 9375SOL    HW229959   8.194   5.935  13.558
 9376SOL     OW29960   9.796   5.603  10.276
 9376SOL    HW129961   9.749   5.686  10.275
 9376SOL    HW229962   9.768   5.559  10.196
 9377SOL     OW29963  11.563   6.503   6.814
 9377SOL    HW129964  11.653   6.520   6.786
 9377SOL    HW229965  11.533   6.431   6.758
 9378SOL     OW29966  14.433   3.270   7.685
 9378SOL    HW129967  14.452   3.237   7.597
 9378SOL    HW229968  14.437   3.192   7.741
 9379SOL     OW29969   7.390   8.491   6.623
 9379SOL    HW129970   7.415   8.554   6.691
 9379SOL    HW229971   7.455   8.421   6.630
 9380SOL     OW29972   5.822   3.458   7.981
 9380SOL    HW129973   5.871   3.376   7.984
 9380SOL    HW229974   5.730   3.432   7.982
 9381SOL     OW29975  13.722  11.589   3.966
 9381SOL    HW129976  13.705  11.569   4.058
 9381SOL    HW229977  13.675  11.671   3.951
 9382SOL     OW29978  10.529   3.517   0.794
 9382SOL    HW129979  10.518   3.556   0.707
 9382SOL    HW229980  10.470   3.442   0.794
 9383SOL     OW29981   4.826   2.359   8.221
 9383SOL    HW129982   4.916   2.329   8.211
 9383SOL    HW229983   4.773   2.290   8.183
 9384SOL     OW29984   3.584   6.700   7.810
 9384SOL    HW129985   3.573   6.688   7.904
 9384SOL    HW229986   3.599   6.612   7.776
 9385SOL     OW29987  12.768  11.104  14.422
 9385SOL    HW129988  12.773  11.157  14.342
 9385SOL    HW229989  12.751  11.015  14.390
 9386SOL     OW29990  12.401   7.908   3.199
 9386SOL    HW129991  12.374   7.866   3.118
 9386SOL    HW229992  12.350   7.864   3.267
 9387SOL     OW29993   2.022   4.621  12.624
 9387SOL    HW129994   2.116   4.622  12.643
 9387SOL    HW229995   2.017   4.615  12.529
 9388SOL     OW29996   1.305   3.231   8.622
 9388SOL    HW129997   1.275   3.283   8.547
 9388SOL    HW229998   1.389   3.194   8.594
 9389SOL     OW29999   3.192   5.337   6.477
 9389SOL    HW130000   3.199   5.373   6.388
 9389SOL    HW230001   3.194   5.414   6.534
 9390SOL     OW30002  10.137  11.112  12.532
 9390SOL    HW130003  10.046  11.139  12.519
 9390SOL    HW230004  10.150  11.115  12.626
 9391SOL     OW30005  11.499   1.377  12.167
 9391SOL    HW130006  11.594   1.386  12.162
 9391SOL    HW230007  11.482   1.348  12.257
 9392SOL     OW30008  11.331   9.252   0.102
 9392SOL    HW130009  11.427   9.248   0.103
 9392SOL    HW230010  11.303   9.161   0.098
 9393SOL     OW30011  14.589   3.042   9.560
 9393SOL    HW130012  14.522   3.038   9.628
 9393SOL    HW230013  14.648   2.969   9.579
 9394SOL     OW30014   4.698   2.583   9.802
 9394SOL    HW130015   4.643   2.661   9.796
 9394SOL    HW230016   4.666   2.538   9.881
 9395SOL     OW30017  10.020  12.541  12.654
 9395SOL    HW130018   9.932  12.543  12.616
 9395SOL    HW230019  10.077  12.577  12.585
 9396SOL     OW30020  10.919  13.775  13.935
 9396SOL    HW130021  10.986  13.803  13.998
 9396SOL    HW230022  10.938  13.825  13.856
 9397SOL     OW30023   2.417   3.391   2.033
 9397SOL    HW130024   2.390   3.342   1.955
 9397SOL    HW230025   2.465   3.327   2.086
 9398SOL     OW30026   5.835  11.494  11.434
 9398SOL    HW130027   5.902  11.534  11.380
 9398SOL    HW230028   5.859  11.401  11.438
 9399SOL     OW30029   7.955   5.956   9.470
 9399SOL    HW130030   7.984   5.996   9.388
 9399SOL    HW230031   7.965   5.862   9.457
 9400SOL     OW30032  10.507   8.489  10.819
 9400SOL    HW130033  10.435   8.427  10.814
 9400SOL    HW230034  10.476   8.559  10.876
 9401SOL     OW30035   0.997   5.871  11.897
 9401SOL    HW130036   1.030   5.912  11.977
 9401SOL    HW230037   0.932   5.933  11.863
 9402SOL     OW30038  14.809   1.539  12.248
 9402SOL    HW130039  14.719   1.567  12.230
 9402SOL    HW230040  14.800   1.469  12.312
 9403SOL     OW30041   6.379   1.138   9.652
 9403SOL    HW130042   6.333   1.222   9.647
 9403SOL    HW230043   6.437   1.147   9.728
 9404SOL     OW30044   9.514  12.304   9.075
 9404SOL    HW130045   9.476  12.368   9.135
 9404SOL    HW230046   9.443  12.281   9.016
 9405SOL     OW30047   6.717   3.961   9.668
 9405SOL    HW130048   6.726   4.004   9.582
 9405SOL    HW230049   6.785   4.001   9.722
 9406SOL     OW30050   9.747   4.896   4.481
 9406SOL    HW130051   9.714   4.829   4.541
 9406SOL    HW230052   9.724   4.979   4.523
 9407SOL     OW30053   3.814   0.566   6.115
 9407SOL    HW130054   3.743   0.513   6.082
 9407SOL    HW230055   3.891   0.536   6.067
 9408SOL     OW30056   4.737   7.757  13.934
 9408SOL    HW130057   4.699   7.693  13.994
 9408SOL    HW230058   4.830   7.759  13.956
 9409SOL     OW30059  14.519   6.553  12.607
 9409SOL    HW130060  14.597   6.585  12.652
 9409SOL    HW230061  14.507   6.614  12.534
 9410SOL     OW30062   3.466  11.115  11.086
 9410SOL    HW130063   3.520  11.074  11.154
 9410SOL    HW230064   3.376  11.100  11.115
 9411SOL     OW30065   7.412   3.143   7.845
 9411SOL    HW130066   7.380   3.150   7.935
 9411SOL    HW230067   7.379   3.223   7.802
 9412SOL     OW30068  10.393   5.881   9.437
 9412SOL    HW130069  10.337   5.849   9.507
 9412SOL    HW230070  10.468   5.920   9.481
 9413SOL     OW30071   0.483  14.419   9.839
 9413SOL    HW130072   0.567  14.450   9.804
 9413SOL    HW230073   0.501  14.405   9.932
 9414SOL     OW30074  14.344  14.383   3.620
 9414SOL    HW130075  14.324  14.301   3.576
 9414SOL    HW230076  14.383  14.357   3.703
 9415SOL     OW30077   0.767   0.099   9.329
 9415SOL    HW130078   0.841   0.153   9.301
 9415SOL    HW230079   0.752   0.039   9.256
 9416SOL     OW30080   3.090   1.584  11.492
 9416SOL    HW130081   3.124   1.498  11.519
 9416SOL    HW230082   3.078   1.576  11.397
 9417SOL     OW30083   7.081   0.617  13.138
 9417SOL    HW130084   7.067   0.656  13.224
 9417SOL    HW230085   7.024   0.668  13.080
 9418SOL     OW30086  14.403  12.295   8.186
 9418SOL    HW130087  14.471  12.356   8.156
 9418SOL    HW230088  14.443  12.209   8.179
 9419SOL     OW30089  11.767   6.901  12.031
 9419SOL    HW130090  11.798   6.853  12.108
 9419SOL    HW230091  11.739   6.832  11.971
 9420SOL     OW30092   2.495  12.423  14.533
 9420SOL    HW130093   2.514  12.347  14.588
 9420SOL    HW230094   2.405  12.410  14.504
 9421SOL     OW30095   8.954   5.386   7.907
 9421SOL    HW130096   9.007   5.450   7.860
 9421SOL    HW230097   8.867   5.392   7.868
 9422SOL     OW30098  11.476   9.489   6.373
 9422SOL    HW130099  11.545   9.474   6.439
 9422SOL    HW230100  11.508   9.444   6.295
 9423SOL     OW30101  14.866  11.942   5.267
 9423SOL    HW130102   0.085  11.966   5.258
 9423SOL    HW230103  14.824  11.975   5.187
 9424SOL     OW30104   2.832  11.630   0.789
 9424SOL    HW130105   2.746  11.597   0.814
 9424SOL    HW230106   2.882  11.551   0.767
 9425SOL     OW30107   4.747   2.165   2.100
 9425SOL    HW130108   4.772   2.204   2.184
 9425SOL    HW230109   4.825   2.119   2.070
 9426SOL     OW30110  12.691  10.812   4.415
 9426SOL    HW130111  12.640  10.741   4.374
 9426SOL    HW230112  12.771  10.769   4.446
 9427SOL     OW30113   3.459   3.283  12.647
 9427SOL    HW130114   3.518   3.351  12.614
 9427SOL    HW230115   3.393   3.331  12.697
 9428SOL     OW30116  13.939  14.262   6.983
 9428SOL    HW130117  13.922  14.331   6.919
 9428SOL    HW230118  13.888  14.288   7.060
 9429SOL     OW30119   1.599   5.870   7.778
 9429SOL    HW130120   1.607   5.840   7.868
 9429SOL    HW230121   1.506   5.864   7.758
 9430SOL     OW30122  12.712   8.998   4.617
 9430SOL    HW130123  12.743   8.987   4.527
 9430SOL    HW230124  12.743   9.085   4.643
 9431SOL     OW30125  12.830   3.009   0.526
 9431SOL    HW130126  12.923   3.008   0.507
 9431SOL    HW230127  12.800   2.920   0.510
 9432SOL     OW30128  14.739  12.658  14.029
 9432SOL    HW130129  14.660  12.608  14.006
 9432SOL    HW230130  14.788  12.663  13.948
 9433SOL     OW30131  10.126   8.432   3.302
 9433SOL    HW130132  10.099   8.495   3.236
 9433SOL    HW230133  10.168   8.361   3.252
 9434SOL     OW30134   0.894   0.599  13.890
 9434SOL    HW130135   0.977   0.551  13.897
 9434SOL    HW230136   0.884   0.616  13.797
 9435SOL     OW30137   4.864  14.593   4.087
 9435SOL    HW130138   4.944  14.645   4.098
 9435SOL    HW230139   4.827  14.588   4.175
 9436SOL     OW30140   2.783  10.119  14.165
 9436SOL    HW130141   2.806  10.036  14.206
 9436SOL    HW230142   2.765  10.096  14.074
 9437SOL     OW30143   0.190   1.533  12.185
 9437SOL    HW130144   0.099   1.557  12.202
 9437SOL    HW230145   0.198   1.444  12.217
 9438SOL     OW30146   3.835  12.166   5.840
 9438SOL    HW130147   3.862  12.214   5.919
 9438SOL    HW230148   3.841  12.074   5.866
 9439SOL     OW30149   1.372   7.348   1.413
 9439SOL    HW130150   1.416   7.264   1.425
 9439SOL    HW230151   1.332   7.342   1.326
 9440SOL     OW30152   4.060   4.690   0.871
 9440SOL    HW130153   4.092   4.767   0.824
 9440SOL    HW230154   4.136   4.632   0.877
 9441SOL     OW30155   4.107   2.816   6.870
 9441SOL    HW130156   4.085   2.908   6.852
 9441SOL    HW230157   4.200   2.818   6.892
 9442SOL     OW30158   5.406   0.326   6.052
 9442SOL    HW130159   5.413   0.304   6.145
 9442SOL    HW230160   5.315   0.308   6.030
 9443SOL     OW30161   1.288   3.830   0.946
 9443SOL    HW130162   1.238   3.773   0.887
 9443SOL    HW230163   1.295   3.781   1.027
 9444SOL     OW30164   1.405  12.032   1.903
 9444SOL    HW130165   1.428  11.972   1.974
 9444SOL    HW230166   1.458  12.003   1.829
 9445SOL     OW30167   6.878   8.167  10.783
 9445SOL    HW130168   6.964   8.184  10.820
 9445SOL    HW230169   6.817   8.207  10.845
 9446SOL     OW30170   9.847   9.967   6.050
 9446SOL    HW130171   9.830   9.952   5.957
 9446SOL    HW230172   9.852  10.062   6.058
 9447SOL     OW30173   4.148   3.568  11.832
 9447SOL    HW130174   4.095   3.489  11.838
 9447SOL    HW230175   4.220   3.555  11.894
 9448SOL     OW30176   7.206   1.204  12.441
 9448SOL    HW130177   7.167   1.188  12.355
 9448SOL    HW230178   7.291   1.243  12.422
 9449SOL     OW30179   1.474   7.129   7.703
 9449SOL    HW130180   1.475   7.036   7.682
 9449SOL    HW230181   1.387   7.144   7.739
 9450SOL     OW30182   3.731   3.507  13.405
 9450SOL    HW130183   3.649   3.460  13.388
 9450SOL    HW230184   3.709   3.569  13.474
 9451SOL     OW30185  12.205  11.026   9.134
 9451SOL    HW130186  12.189  11.014   9.041
 9451SOL    HW230187  12.267  11.099   9.138
 9452SOL     OW30188   9.395  13.344   6.398
 9452SOL    HW130189   9.458  13.414   6.417
 9452SOL    HW230190   9.387  13.344   6.303
 9453SOL     OW30191  10.687   3.881   8.051
 9453SOL    HW130192  10.663   3.843   8.136
 9453SOL    HW230193  10.781   3.895   8.056
 9454SOL     OW30194  11.737  11.838   0.783
 9454SOL    HW130195  11.775  11.751   0.780
 9454SOL    HW230196  11.809  11.897   0.763
 9455SOL     OW30197   2.336   3.229   5.995
 9455SOL    HW130198   2.245   3.233   5.967
 9455SOL    HW230199   2.351   3.311   6.041
 9456SOL     OW30200   5.344  12.372  14.542
 9456SOL    HW130201   5.390  12.450  14.572
 9456SOL    HW230202   5.411  12.320  14.499
 9457SOL     OW30203   2.099   2.429  10.919
 9457SOL    HW130204   2.151   2.436  10.839
 9457SOL    HW230205   2.046   2.508  10.920
 9458SOL     OW30206   7.166  10.361   0.107
 9458SOL    HW130207   7.077  10.327   0.104
 9458SOL    HW230208   7.221  10.283   0.111
 9459SOL     OW30209   7.109   4.835   1.946
 9459SOL    HW130210   7.155   4.913   1.975
 9459SOL    HW230211   7.176   4.766   1.943
 9460SOL     OW30212   2.258  13.665   1.806
 9460SOL    HW130213   2.313  13.590   1.832
 9460SOL    HW230214   2.289  13.689   1.719
 9461SOL     OW30215   7.871   7.402   0.503
 9461SOL    HW130216   7.781   7.406   0.535
 9461SOL    HW230217   7.864   7.371   0.413
 9462SOL     OW30218   6.493   5.793   9.902
 9462SOL    HW130219   6.485   5.722   9.966
 9462SOL    HW230220   6.528   5.866   9.952
 9463SOL     OW30221  13.007   9.845  12.583
 9463SOL    HW130222  12.994   9.907  12.655
 9463SOL    HW230223  12.929   9.789  12.586
 9464SOL     OW30224   1.583   1.849  13.715
 9464SOL    HW130225   1.648   1.873  13.781
 9464SOL    HW230226   1.520   1.922  13.716
 9465SOL     OW30227   3.763  14.771   1.482
 9465SOL    HW130228   3.721  14.705   1.537
 9465SOL    HW230229   3.812  14.825   1.544
 9466SOL     OW30230   7.548  13.139  14.422
 9466SOL    HW130231   7.625  13.087  14.445
 9466SOL    HW230232   7.482  13.113  14.486
 9467SOL     OW30233   9.580  11.043  12.023
 9467SOL    HW130234   9.626  10.959  12.021
 9467SOL    HW230235   9.506  11.033  11.964
 9468SOL     OW30236   1.762  12.796  13.852
 9468SOL    HW130237   1.691  12.734  13.835
 9468SOL    HW230238   1.801  12.766  13.934
 9469SOL     OW30239   5.790   4.114   3.572
 9469SOL    HW130240   5.762   4.025   3.553
 9469SOL    HW230241   5.714   4.155   3.615
 9470SOL     OW30242   4.245   6.538   1.296
 9470SOL    HW130243   4.284   6.625   1.294
 9470SOL    HW230244   4.152   6.554   1.314
 9471SOL     OW30245   2.647  10.065   4.761
 9471SOL    HW130246   2.721  10.120   4.735
 9471SOL    HW230247   2.631  10.087   4.852
 9472SOL     OW30248   2.045   1.641  12.096
 9472SOL    HW130249   1.974   1.678  12.044
 9472SOL    HW230250   2.124   1.658  12.045
 9473SOL     OW30251   9.863  11.328   4.448
 9473SOL    HW130252   9.933  11.331   4.512
 9473SOL    HW230253   9.810  11.252   4.473
 9474SOL     OW30254   0.815  14.378   8.205
 9474SOL    HW130255   0.808  14.300   8.149
 9474SOL    HW230256   0.734  14.426   8.189
 9475SOL     OW30257  11.312   8.500   6.527
 9475SOL    HW130258  11.321   8.595   6.523
 9475SOL    HW230259  11.352   8.476   6.611
 9476SOL     OW30260   0.815   0.326   7.105
 9476SOL    HW130261   0.796   0.405   7.055
 9476SOL    HW230262   0.822   0.256   7.040
 9477SOL     OW30263   5.227   3.044  12.564
 9477SOL    HW130264   5.258   3.102  12.495
 9477SOL    HW230265   5.279   2.964  12.553
 9478SOL     OW30266   8.176   3.432  11.810
 9478SOL    HW130267   8.247   3.496  11.817
 9478SOL    HW230268   8.161   3.403  11.900
 9479SOL     OW30269   5.554   7.066   4.739
 9479SOL    HW130270   5.614   7.083   4.666
 9479SOL    HW230271   5.481   7.020   4.698
 9480SOL     OW30272   0.177   0.439   1.711
 9480SOL    HW130273   0.157   0.453   1.803
 9480SOL    HW230274   0.092   0.417   1.671
 9481SOL     OW30275  14.639  10.700  10.576
 9481SOL    HW130276  14.697  10.662  10.510
 9481SOL    HW230277  14.687  10.691  10.658
 9482SOL     OW30278   6.621   7.176  10.236
 9482SOL    HW130279   6.591   7.194  10.147
 9482SOL    HW230280   6.575   7.096  10.261
 9483SOL     OW30281   1.845  12.837  14.833
 9483SOL    HW130282   1.904  12.855  14.760
 9483SOL    HW230283   1.761  12.874  14.806
 9484SOL     OW30284   5.493   8.964   0.061
 9484SOL    HW130285   5.526   8.977  14.845
 9484SOL    HW230286   5.500   8.870   0.076
 9485SOL     OW30287  11.543  12.852   5.208
 9485SOL    HW130288  11.508  12.890   5.128
 9485SOL    HW230289  11.540  12.757   5.193
 9486SOL     OW30290  11.655  13.832   7.552
 9486SOL    HW130291  11.675  13.748   7.509
 9486SOL    HW230292  11.740  13.868   7.575
 9487SOL     OW30293  12.142   8.548  12.065
 9487SOL    HW130294  12.232   8.570  12.040
 9487SOL    HW230295  12.152   8.489  12.140
 9488SOL     OW30296   7.902   6.715   7.290
 9488SOL    HW130297   7.968   6.752   7.232
 9488SOL    HW230298   7.834   6.683   7.230
 9489SOL     OW30299  10.239   7.343   8.740
 9489SOL    HW130300  10.302   7.404   8.776
 9489SOL    HW230301  10.259   7.259   8.782
 9490SOL     OW30302   1.883  10.135  13.318
 9490SOL    HW130303   1.884  10.043  13.346
 9490SOL    HW230304   1.801  10.144  13.268
 9491SOL     OW30305  11.379   3.385  12.004
 9491SOL    HW130306  11.426   3.466  12.024
 9491SOL    HW230307  11.441   3.315  12.029
 9492SOL     OW30308  14.279   6.471  13.018
 9492SOL    HW130309  14.231   6.545  12.981
 9492SOL    HW230310  14.211   6.408  13.041
 9493SOL     OW30311   5.975  12.229   8.519
 9493SOL    HW130312   6.021  12.216   8.602
 9493SOL    HW230313   5.905  12.165   8.520
 9494SOL     OW30314   9.815   0.096   9.018
 9494SOL    HW130315   9.818   0.061   9.107
 9494SOL    HW230316   9.824   0.019   8.962
 9495SOL     OW30317  11.446  11.485  13.667
 9495SOL    HW130318  11.358  11.448  13.652
 9495SOL    HW230319  11.445  11.568  13.621
 9496SOL     OW30320  14.122  13.051   6.291
 9496SOL    HW130321  14.138  12.974   6.345
 9496SOL    HW230322  14.055  13.100   6.338
 9497SOL     OW30323  11.455   6.113   5.539
 9497SOL    HW130324  11.478   6.058   5.613
 9497SOL    HW230325  11.376   6.074   5.503
 9498SOL     OW30326  10.972   7.035   1.144
 9498SOL    HW130327  10.986   7.110   1.201
 9498SOL    HW230328  10.906   6.982   1.190
 9499SOL     OW30329  12.666   9.699   2.715
 9499SOL    HW130330  12.612   9.773   2.743
 9499SOL    HW230331  12.739   9.699   2.777
 9500SOL     OW30332  11.136   5.032  12.300
 9500SOL    HW130333  11.090   4.979  12.365
 9500SOL    HW230334  11.110   4.995  12.216
 9501SOL     OW30335   8.657   1.299   5.873
 9501SOL    HW130336   8.569   1.287   5.908
 9501SOL    HW230337   8.679   1.390   5.893
 9502SOL     OW30338  13.150   7.087   0.308
 9502SOL    HW130339  13.064   7.127   0.319
 9502SOL    HW230340  13.131   6.996   0.285
 9503SOL     OW30341  10.715   7.044  11.019
 9503SOL    HW130342  10.711   7.075  10.929
 9503SOL    HW230343  10.623   7.034  11.045
 9504SOL     OW30344   0.853  10.520   6.061
 9504SOL    HW130345   0.872  10.441   6.010
 9504SOL    HW230346   0.784  10.565   6.012
 9505SOL     OW30347  10.327   1.287   3.145
 9505SOL    HW130348  10.234   1.268   3.134
 9505SOL    HW230349  10.331   1.381   3.164
 9506SOL     OW30350  12.955   1.511   6.388
 9506SOL    HW130351  13.003   1.442   6.343
 9506SOL    HW230352  13.014   1.585   6.389
 9507SOL     OW30353   3.445  13.861  11.881
 9507SOL    HW130354   3.424  13.948  11.915
 9507SOL    HW230355   3.486  13.878  11.796
 9508SOL     OW30356  14.332  13.089  11.628
 9508SOL    HW130357  14.281  13.026  11.678
 9508SOL    HW230358  14.351  13.045  11.545
 9509SOL     OW30359  13.161   7.189  11.328
 9509SOL    HW130360  13.148   7.103  11.368
 9509SOL    HW230361  13.251   7.187  11.295
 9510SOL     OW30362   5.006  13.160   0.461
 9510SOL    HW130363   5.023  13.181   0.553
 9510SOL    HW230364   5.084  13.192   0.414
 9511SOL     OW30365  12.997   5.021  10.980
 9511SOL    HW130366  12.983   4.972  10.899
 9511SOL    HW230367  13.048   5.098  10.953
 9512SOL     OW30368   6.326   1.111  12.586
 9512SOL    HW130369   6.331   1.157  12.670
 9512SOL    HW230370   6.414   1.073  12.574
 9513SOL     OW30371   2.756  10.957  10.701
 9513SOL    HW130372   2.732  10.944  10.792
 9513SOL    HW230373   2.744  11.051  10.685
 9514SOL     OW30374   0.101  10.103  11.840
 9514SOL    HW130375   0.049  10.022  11.842
 9514SOL    HW230376   0.058  10.160  11.904
 9515SOL     OW30377   7.089   0.353   4.576
 9515SOL    HW130378   7.089   0.259   4.562
 9515SOL    HW230379   7.156   0.368   4.643
 9516SOL     OW30380   4.734   1.663  14.368
 9516SOL    HW130381   4.757   1.634  14.280
 9516SOL    HW230382   4.638   1.664  14.368
 9517SOL     OW30383   3.511  10.060   6.208
 9517SOL    HW130384   3.507   9.996   6.138
 9517SOL    HW230385   3.570  10.021   6.273
 9518SOL     OW30386  13.257   1.145  13.294
 9518SOL    HW130387  13.241   1.081  13.364
 9518SOL    HW230388  13.270   1.092  13.216
 9519SOL     OW30389   6.695   9.886  12.354
 9519SOL    HW130390   6.695   9.981  12.369
 9519SOL    HW230391   6.605   9.859  12.374
 9520SOL     OW30392   4.915   4.663   6.941
 9520SOL    HW130393   5.001   4.634   6.971
 9520SOL    HW230394   4.853   4.627   7.004
 9521SOL     OW30395   2.991   0.109   0.038
 9521SOL    HW130396   2.905   0.070   0.021
 9521SOL    HW230397   3.010   0.160  14.832
 9522SOL     OW30398  10.439   5.399   3.841
 9522SOL    HW130399  10.431   5.494   3.833
 9522SOL    HW230400  10.403   5.365   3.759
 9523SOL     OW30401   6.129   1.882  13.353
 9523SOL    HW130402   6.101   1.933  13.429
 9523SOL    HW230403   6.220   1.859  13.372
 9524SOL     OW30404   4.284  14.472   3.017
 9524SOL    HW130405   4.345  14.451   2.946
 9524SOL    HW230406   4.249  14.386   3.044
 9525SOL     OW30407  12.279  11.481   4.430
 9525SOL    HW130408  12.263  11.575   4.419
 9525SOL    HW230409  12.296  11.449   4.341
 9526SOL     OW30410   1.927  13.747   0.110
 9526SOL    HW130411   1.975  13.688   0.052
 9526SOL    HW230412   1.991  13.814   0.134
 9527SOL     OW30413   3.322   4.931  11.147
 9527SOL    HW130414   3.318   4.840  11.174
 9527SOL    HW230415   3.230   4.956  11.135
 9528SOL     OW30416  14.869   5.808   4.311
 9528SOL    HW130417  14.802   5.826   4.245
 9528SOL    HW230418  14.843   5.862   4.386
 9529SOL     OW30419  13.123  11.833   6.885
 9529SOL    HW130420  13.092  11.793   6.966
 9529SOL    HW230421  13.218  11.827   6.890
 9530SOL     OW30422  13.879   5.239   2.157
 9530SOL    HW130423  13.807   5.295   2.129
 9530SOL    HW230424  13.916   5.205   2.076
 9531SOL     OW30425  12.501   9.313  14.617
 9531SOL    HW130426  12.487   9.244  14.551
 9531SOL    HW230427  12.476   9.272  14.700
 9532SOL     OW30428  10.966  11.926  12.849
 9532SOL    HW130429  10.880  11.893  12.824
 9532SOL    HW230430  10.982  11.888  12.936
 9533SOL     OW30431   7.440  11.790  10.579
 9533SOL    HW130432   7.447  11.819  10.488
 9533SOL    HW230433   7.348  11.806  10.602
 9534SOL     OW30434   3.972   6.088   3.205
 9534SOL    HW130435   3.945   6.012   3.257
 9534SOL    HW230436   3.890   6.128   3.175
 9535SOL     OW30437   0.870   9.373  13.361
 9535SOL    HW130438   0.957   9.336  13.350
 9535SOL    HW230439   0.883   9.451  13.415
 9536SOL     OW30440  10.875   9.199   8.453
 9536SOL    HW130441  10.808   9.255   8.494
 9536SOL    HW230442  10.837   9.175   8.368
 9537SOL     OW30443  13.516  12.802   7.686
 9537SOL    HW130444  13.567  12.869   7.732
 9537SOL    HW230445  13.425  12.831   7.695
 9538SOL     OW30446  13.343   6.466   6.456
 9538SOL    HW130447  13.322   6.545   6.506
 9538SOL    HW230448  13.420   6.429   6.501
 9539SOL     OW30449   5.638   3.192   1.765
 9539SOL    HW130450   5.681   3.244   1.698
 9539SOL    HW230451   5.611   3.256   1.832
 9540SOL     OW30452   4.029   4.961  11.873
 9540SOL    HW130453   3.963   4.896  11.850
 9540SOL    HW230454   4.033   5.019  11.798
 9541SOL     OW30455   1.316   4.886   6.248
 9541SOL    HW130456   1.396   4.929   6.279
 9541SOL    HW230457   1.245   4.931   6.293
 9542SOL     OW30458   7.213  10.603   2.692
 9542SOL    HW130459   7.193  10.536   2.627
 9542SOL    HW230460   7.278  10.563   2.749
 9543SOL     OW30461   9.386   4.279  12.229
 9543SOL    HW130462   9.433   4.266  12.147
 9543SOL    HW230463   9.448   4.252  12.297
 9544SOL     OW30464   0.838   8.304   7.096
 9544SOL    HW130465   0.890   8.324   7.174
 9544SOL    HW230466   0.878   8.356   7.026
 9545SOL     OW30467  10.300   1.134   5.096
 9545SOL    HW130468  10.248   1.139   5.016
 9545SOL    HW230469  10.242   1.167   5.164
 9546SOL     OW30470   1.368  11.799  11.548
 9546SOL    HW130471   1.323  11.857  11.609
 9546SOL    HW230472   1.440  11.762  11.599
 9547SOL     OW30473   0.933   2.476   9.279
 9547SOL    HW130474   1.022   2.465   9.313
 9547SOL    HW230475   0.944   2.478   9.184
 9548SOL     OW30476   1.307   6.505   7.146
 9548SOL    HW130477   1.278   6.432   7.199
 9548SOL    HW230478   1.377   6.469   7.091
 9549SOL     OW30479   2.319   7.492   9.627
 9549SOL    HW130480   2.297   7.399   9.618
 9549SOL    HW230481   2.268   7.535   9.558
 9550SOL     OW30482  14.165   8.133   2.667
 9550SOL    HW130483  14.107   8.129   2.590
 9550SOL    HW230484  14.217   8.053   2.662
 9551SOL     OW30485  11.681   3.555   9.891
 9551SOL    HW130486  11.749   3.541   9.957
 9551SOL    HW230487  11.691   3.482   9.830
 9552SOL     OW30488   3.113   7.544   8.748
 9552SOL    HW130489   3.151   7.457   8.739
 9552SOL    HW230490   3.165   7.600   8.691
 9553SOL     OW30491   3.149   2.627   8.079
 9553SOL    HW130492   3.058   2.637   8.051
 9553SOL    HW230493   3.151   2.661   8.168
 9554SOL     OW30494   4.192   7.151  10.003
 9554SOL    HW130495   4.150   7.207   9.938
 9554SOL    HW230496   4.179   7.062   9.970
 9555SOL     OW30497  10.747  12.640   0.462
 9555SOL    HW130498  10.680  12.582   0.500
 9555SOL    HW230499  10.724  12.645   0.369
 9556SOL     OW30500   5.023   8.972   4.579
 9556SOL    HW130501   4.959   9.021   4.528
 9556SOL    HW230502   5.090   9.037   4.602
 9557SOL     OW30503  12.705   7.321   7.363
 9557SOL    HW130504  12.709   7.379   7.439
 9557SOL    HW230505  12.724   7.234   7.398
 9558SOL     OW30506   0.144   3.290   6.431
 9558SOL    HW130507   0.238   3.277   6.441
 9558SOL    HW230508   0.118   3.224   6.367
 9559SOL     OW30509  11.341   3.650   0.326
 9559SOL    HW130510  11.393   3.730   0.322
 9559SOL    HW230511  11.307   3.648   0.415
 9560SOL     OW30512   8.282  12.635  10.501
 9560SOL    HW130513   8.255  12.643  10.409
 9560SOL    HW230514   8.362  12.583  10.497
 9561SOL     OW30515   9.885  10.487   7.420
 9561SOL    HW130516   9.817  10.421   7.402
 9561SOL    HW230517   9.867  10.515   7.510
 9562SOL     OW30518   1.003   4.605   5.296
 9562SOL    HW130519   1.047   4.550   5.231
 9562SOL    HW230520   1.046   4.690   5.290
 9563SOL     OW30521   5.059   8.561   3.769
 9563SOL    HW130522   4.972   8.525   3.784
 9563SOL    HW230523   5.052   8.606   3.684
 9564SOL     OW30524   3.612   7.691   4.689
 9564SOL    HW130525   3.624   7.620   4.627
 9564SOL    HW230526   3.547   7.659   4.751
 9565SOL     OW30527   8.969   9.037   2.998
 9565SOL    HW130528   8.903   8.971   3.019
 9565SOL    HW230529   9.045   9.014   3.053
 9566SOL     OW30530   9.316   4.900   3.985
 9566SOL    HW130531   9.403   4.896   3.946
 9566SOL    HW230532   9.314   4.986   4.028
 9567SOL     OW30533   4.818  14.251   0.522
 9567SOL    HW130534   4.879  14.222   0.590
 9567SOL    HW230535   4.732  14.246   0.563
 9568SOL     OW30536   3.762   4.047   6.079
 9568SOL    HW130537   3.784   4.030   5.987
 9568SOL    HW230538   3.836   4.098   6.112
 9569SOL     OW30539   5.259   9.923  12.387
 9569SOL    HW130540   5.344   9.943  12.426
 9569SOL    HW230541   5.278   9.908  12.294
 9570SOL     OW30542   9.315   0.112   1.345
 9570SOL    HW130543   9.283   0.047   1.408
 9570SOL    HW230544   9.409   0.116   1.359
 9571SOL     OW30545   7.082   5.091   4.605
 9571SOL    HW130546   7.033   5.098   4.522
 9571SOL    HW230547   7.117   5.002   4.604
 9572SOL     OW30548   5.077   7.696   3.982
 9572SOL    HW130549   5.101   7.786   3.960
 9572SOL    HW230550   4.986   7.688   3.954
 9573SOL     OW30551   2.575  14.064  14.599
 9573SOL    HW130552   2.539  14.031  14.681
 9573SOL    HW230553   2.670  14.063  14.612
 9574SOL     OW30554  11.318   8.519   4.294
 9574SOL    HW130555  11.269   8.556   4.221
 9574SOL    HW230556  11.256   8.460   4.337
 9575SOL     OW30557   6.062   6.210   7.535
 9575SOL    HW130558   6.121   6.248   7.469
 9575SOL    HW230559   6.116   6.203   7.614
 9576SOL     OW30560   9.607   8.495   6.299
 9576SOL    HW130561   9.681   8.449   6.260
 9576SOL    HW230562   9.647   8.555   6.362
 9577SOL     OW30563   3.450   6.422   8.421
 9577SOL    HW130564   3.457   6.369   8.342
 9577SOL    HW230565   3.461   6.359   8.493
 9578SOL     OW30566   0.020   5.722   1.040
 9578SOL    HW130567  14.866   5.718   0.949
 9578SOL    HW230568   0.116   5.715   1.037
 9579SOL     OW30569   9.781   7.960  11.514
 9579SOL    HW130570   9.782   7.955  11.610
 9579SOL    HW230571   9.871   7.980  11.490
 9580SOL     OW30572   2.394   3.468   4.171
 9580SOL    HW130573   2.342   3.547   4.154
 9580SOL    HW230574   2.351   3.428   4.247
 9581SOL     OW30575   1.975   2.951   5.803
 9581SOL    HW130576   2.039   2.989   5.863
 9581SOL    HW230577   2.002   2.981   5.717
 9582SOL     OW30578   1.063   6.265   9.814
 9582SOL    HW130579   1.085   6.237   9.725
 9582SOL    HW230580   1.144   6.252   9.863
 9583SOL     OW30581   7.874  10.032  13.864
 9583SOL    HW130582   7.795  10.002  13.910
 9583SOL    HW230583   7.880  10.125  13.886
 9584SOL     OW30584   8.070   1.123  10.875
 9584SOL    HW130585   7.990   1.075  10.859
 9584SOL    HW230586   8.082   1.119  10.970
 9585SOL     OW30587  14.539   0.373   3.079
 9585SOL    HW130588  14.570   0.411   3.161
 9585SOL    HW230589  14.463   0.427   3.055
 9586SOL     OW30590  14.432   5.265   7.232
 9586SOL    HW130591  14.348   5.310   7.236
 9586SOL    HW230592  14.417   5.182   7.278
 9587SOL     OW30593   5.289   1.410  14.772
 9587SOL    HW130594   5.317   1.495  14.806
 9587SOL    HW230595   5.338   1.346  14.824
 9588SOL     OW30596   0.509   0.412   3.704
 9588SOL    HW130597   0.533   0.427   3.612
 9588SOL    HW230598   0.513   0.499   3.744
 9589SOL     OW30599  11.713   1.277   7.813
 9589SOL    HW130600  11.799   1.256   7.777
 9589SOL    HW230601  11.706   1.372   7.802
 9590SOL     OW30602   9.921   3.893  10.543
 9590SOL    HW130603   9.950   3.911  10.632
 9590SOL    HW230604   9.881   3.806  10.548
 9591SOL     OW30605  10.265  12.963   0.902
 9591SOL    HW130606  10.215  12.890   0.867
 9591SOL    HW230607  10.255  13.033   0.837
 9592SOL     OW30608  12.684  10.978   9.557
 9592SOL    HW130609  12.656  10.963   9.466
 9592SOL    HW230610  12.753  10.913   9.572
 9593SOL     OW30611  13.763   6.467   9.574
 9593SOL    HW130612  13.759   6.512   9.659
 9593SOL    HW230613  13.677   6.426   9.565
 9594SOL     OW30614  10.740   4.085  10.094
 9594SOL    HW130615  10.755   4.047  10.007
 9594SOL    HW230616  10.740   4.009  10.153
 9595SOL     OW30617   6.233   9.240  13.689
 9595SOL    HW130618   6.252   9.230  13.783
 9595SOL    HW230619   6.138   9.234  13.683
 9596SOL     OW30620   7.883   7.686  12.592
 9596SOL    HW130621   7.940   7.761  12.576
 9596SOL    HW230622   7.895   7.667  12.685
 9597SOL     OW30623   7.404   7.071   1.659
 9597SOL    HW130624   7.398   6.981   1.625
 9597SOL    HW230625   7.325   7.082   1.712
 9598SOL     OW30626   9.354  12.729   3.040
 9598SOL    HW130627   9.271  12.743   2.994
 9598SOL    HW230628   9.329  12.696   3.126
 9599SOL     OW30629  13.058   2.842   2.548
 9599SOL    HW130630  12.967   2.867   2.565
 9599SOL    HW230631  13.103   2.856   2.631
 9600SOL     OW30632   2.328   4.973   6.045
 9600SOL    HW130633   2.250   4.960   5.990
 9600SOL    HW230634   2.343   4.888   6.085
 9601SOL     OW30635  10.398   9.361  10.879
 9601SOL    HW130636  10.338   9.366  10.805
 9601SOL    HW230637  10.477   9.320  10.843
 9602SOL     OW30638   3.406   8.931   5.883
 9602SOL    HW130639   3.315   8.960   5.874
 9602SOL    HW230640   3.426   8.888   5.800
 9603SOL     OW30641   1.067  11.865   0.830
 9603SOL    HW130642   1.078  11.941   0.774
 9603SOL    HW230643   1.108  11.793   0.781
 9604SOL     OW30644   8.786   9.700   1.852
 9604SOL    HW130645   8.809   9.793   1.842
 9604SOL    HW230646   8.830   9.673   1.932
 9605SOL     OW30647   7.538   3.944  12.254
 9605SOL    HW130648   7.614   3.967  12.308
 9605SOL    HW230649   7.565   3.866  12.206
 9606SOL     OW30650  11.584   0.813  11.199
 9606SOL    HW130651  11.538   0.737  11.164
 9606SOL    HW230652  11.518   0.858  11.253
 9607SOL     OW30653  10.532  14.443   2.281
 9607SOL    HW130654  10.582  14.481   2.209
 9607SOL    HW230655  10.596  14.429   2.351
 9608SOL     OW30656   0.959   8.642   9.910
 9608SOL    HW130657   0.897   8.579   9.874
 9608SOL    HW230658   1.045   8.605   9.890
 9609SOL     OW30659  14.270   0.729   6.484
 9609SOL    HW130660  14.311   0.813   6.460
 9609SOL    HW230661  14.282   0.723   6.579
 9610SOL     OW30662   3.717  12.547   1.689
 9610SOL    HW130663   3.727  12.457   1.656
 9610SOL    HW230664   3.750  12.543   1.779
 9611SOL     OW30665  10.273   2.577   6.635
 9611SOL    HW130666  10.342   2.641   6.615
 9611SOL    HW230667  10.310   2.493   6.610
 9612SOL     OW30668   4.456  14.334   7.132
 9612SOL    HW130669   4.487  14.399   7.069
 9612SOL    HW230670   4.396  14.278   7.083
 9613SOL     OW30671   8.205  10.575   5.460
 9613SOL    HW130672   8.122  10.552   5.419
 9613SOL    HW230673   8.224  10.502   5.519
 9614SOL     OW30674   5.509   3.729   0.218
 9614SOL    HW130675   5.540   3.662   0.279
 9614SOL    HW230676   5.415   3.711   0.209
 9615SOL     OW30677  12.863   9.083   2.821
 9615SOL    HW130678  12.942   9.118   2.778
 9615SOL    HW230679  12.804   9.061   2.749
 9616SOL     OW30680   2.484  14.658  11.151
 9616SOL    HW130681   2.449  14.689  11.067
 9616SOL    HW230682   2.409  14.617  11.194
 9617SOL     OW30683  12.295  13.936   2.548
 9617SOL    HW130684  12.381  13.922   2.510
 9617SOL    HW230685  12.307  14.009   2.608
 9618SOL     OW30686   7.246   7.153  10.295
 9618SOL    HW130687   7.241   7.153  10.390
 9618SOL    HW230688   7.170   7.204  10.266
 9619SOL     OW30689   3.174  11.722   4.186
 9619SOL    HW130690   3.231  11.708   4.111
 9619SOL    HW230691   3.211  11.667   4.255
 9620SOL     OW30692   4.920   3.357   0.761
 9620SOL    HW130693   5.015   3.351   0.770
 9620SOL    HW230694   4.906   3.430   0.701
 9621SOL     OW30695  10.738   1.801  14.532
 9621SOL    HW130696  10.727   1.771  14.622
 9621SOL    HW230697  10.782   1.886  14.540
 9622SOL     OW30698   8.152  11.021  14.755
 9622SOL    HW130699   8.114  11.100  14.793
 9622SOL    HW230700   8.202  10.981  14.826
 9623SOL     OW30701  11.787   7.041  10.753
 9623SOL    HW130702  11.773   7.132  10.779
 9623SOL    HW230703  11.823   7.046  10.665
 9624SOL     OW30704   3.947  14.225   1.772
 9624SOL    HW130705   4.037  14.206   1.746
 9624SOL    HW230706   3.947  14.217   1.868
 9625SOL     OW30707   6.782   9.366   6.737
 9625SOL    HW130708   6.730   9.286   6.746
 9625SOL    HW230709   6.719   9.432   6.707
 9626SOL     OW30710   3.925   5.827   2.926
 9626SOL    HW130711   3.926   5.734   2.951
 9626SOL    HW230712   3.839   5.858   2.954
 9627SOL     OW30713  14.216  12.002   0.897
 9627SOL    HW130714  14.286  12.056   0.932
 9627SOL    HW230715  14.182  11.953   0.972
 9628SOL     OW30716   2.668   8.880  12.262
 9628SOL    HW130717   2.731   8.821  12.302
 9628SOL    HW230718   2.721   8.948  12.221
 9629SOL     OW30719  12.208  12.287   5.418
 9629SOL    HW130720  12.281  12.255   5.471
 9629SOL    HW230721  12.216  12.383   5.421
 9630SOL     OW30722   0.167   9.537   5.833
 9630SOL    HW130723   0.100   9.605   5.840
 9630SOL    HW230724   0.132   9.464   5.884
 9631SOL     OW30725   9.877   3.497   4.163
 9631SOL    HW130726   9.814   3.468   4.229
 9631SOL    HW230727   9.953   3.527   4.213
 9632SOL     OW30728   7.131   9.347  14.852
 9632SOL    HW130729   7.161   9.430   0.016
 9632SOL    HW230730   7.185   9.334  14.774
 9633SOL     OW30731   6.453   3.262   1.676
 9633SOL    HW130732   6.441   3.343   1.725
 9633SOL    HW230733   6.530   3.221   1.716
 9634SOL     OW30734   5.500  12.909   8.303
 9634SOL    HW130735   5.551  12.828   8.306
 9634SOL    HW230736   5.410  12.880   8.290
 9635SOL     OW30737   4.846  12.461   0.893
 9635SOL    HW130738   4.843  12.485   0.986
 9635SOL    HW230739   4.759  12.483   0.859
 9636SOL     OW30740   7.394   3.943   7.847
 9636SOL    HW130741   7.298   3.946   7.844
 9636SOL    HW230742   7.414   3.859   7.890
 9637SOL     OW30743   2.347   3.679  13.581
 9637SOL    HW130744   2.347   3.768  13.617
 9637SOL    HW230745   2.382   3.689  13.493
 9638SOL     OW30746   8.491  10.195   9.067
 9638SOL    HW130747   8.446  10.180   9.150
 9638SOL    HW230748   8.440  10.264   9.024
 9639SOL     OW30749   6.082   7.200   2.505
 9639SOL    HW130750   6.133   7.281   2.505
 9639SOL    HW230751   6.136   7.137   2.458
 9640SOL     OW30752   3.281  10.670   6.639
 9640SOL    HW130753   3.305  10.742   6.698
 9640SOL    HW230754   3.280  10.709   6.552
 9641SOL     OW30755   3.554   8.174   4.237
 9641SOL    HW130756   3.625   8.163   4.174
 9641SOL    HW230757   3.524   8.264   4.224
 9642SOL     OW30758   3.283   5.767   2.787
 9642SOL    HW130759   3.355   5.798   2.733
 9642SOL    HW230760   3.249   5.845   2.830
 9643SOL     OW30761   6.773   1.784  12.524
 9643SOL    HW130762   6.861   1.820  12.510
 9643SOL    HW230763   6.718   1.831  12.462
 9644SOL     OW30764  11.556  13.175   8.570
 9644SOL    HW130765  11.554  13.262   8.531
 9644SOL    HW230766  11.637  13.173   8.620
 9645SOL     OW30767   4.011   8.051  13.485
 9645SOL    HW130768   3.922   8.033  13.455
 9645SOL    HW230769   4.065   8.039  13.407
 9646SOL     OW30770   1.277   4.362  10.829
 9646SOL    HW130771   1.279   4.354  10.733
 9646SOL    HW230772   1.367   4.342  10.856
 9647SOL     OW30773   1.086   5.420  10.270
 9647SOL    HW130774   0.994   5.446  10.273
 9647SOL    HW230775   1.129   5.488  10.219
 9648SOL     OW30776   8.660   8.083   7.051
 9648SOL    HW130777   8.565   8.074   7.050
 9648SOL    HW230778   8.687   8.065   6.960
 9649SOL     OW30779   0.975   0.114   6.949
 9649SOL    HW130780   1.050   0.068   6.911
 9649SOL    HW230781   0.947   0.175   6.880
 9650SOL     OW30782   9.261  14.415   8.272
 9650SOL    HW130783   9.305  14.433   8.189
 9650SOL    HW230784   9.293  14.484   8.331
 9651SOL     OW30785  14.444   9.019  13.081
 9651SOL    HW130786  14.375   8.963  13.046
 9651SOL    HW230787  14.398   9.095  13.116
 9652SOL     OW30788   0.075   2.333   1.475
 9652SOL    HW130789   0.120   2.375   1.402
 9652SOL    HW230790   0.126   2.253   1.491
 9653SOL     OW30791   4.596   6.789   2.189
 9653SOL    HW130792   4.511   6.747   2.203
 9653SOL    HW230793   4.617   6.830   2.274
 9654SOL     OW30794  12.475   8.889   1.657
 9654SOL    HW130795  12.425   8.935   1.725
 9654SOL    HW230796  12.566   8.902   1.682
 9655SOL     OW30797   1.466   2.419   7.552
 9655SOL    HW130798   1.519   2.499   7.560
 9655SOL    HW230799   1.453   2.410   7.457
 9656SOL     OW30800  11.238   4.513   8.590
 9656SOL    HW130801  11.279   4.509   8.676
 9656SOL    HW230802  11.257   4.428   8.551
 9657SOL     OW30803   4.139   3.582   0.876
 9657SOL    HW130804   4.049   3.596   0.845
 9657SOL    HW230805   4.178   3.526   0.809
 9658SOL     OW30806   1.043  12.209  13.117
 9658SOL    HW130807   1.058  12.237  13.207
 9658SOL    HW230808   1.115  12.248  13.067
 9659SOL     OW30809   2.857  12.786   6.379
 9659SOL    HW130810   2.915  12.822   6.312
 9659SOL    HW230811   2.914  12.775   6.456
 9660SOL     OW30812   0.272   9.955   0.005
 9660SOL    HW130813   0.228   9.893  14.819
 9660SOL    HW230814   0.201  10.001   0.049
 9661SOL     OW30815   7.205   6.334  14.314
 9661SOL    HW130816   7.185   6.240  14.318
 9661SOL    HW230817   7.234   6.356  14.403
 9662SOL     OW30818   1.854   1.915   0.605
 9662SOL    HW130819   1.844   1.954   0.692
 9662SOL    HW230820   1.895   1.984   0.553
 9663SOL     OW30821   5.774   8.935   1.982
 9663SOL    HW130822   5.859   8.894   1.994
 9663SOL    HW230823   5.781   8.982   1.899
 9664SOL     OW30824   0.727   4.563   2.463
 9664SOL    HW130825   0.636   4.538   2.474
 9664SOL    HW230826   0.757   4.513   2.387
 9665SOL     OW30827   0.589   8.993   7.302
 9665SOL    HW130828   0.608   8.907   7.340
 9665SOL    HW230829   0.559   9.046   7.375
 9666SOL     OW30830   4.345  13.455  11.804
 9666SOL    HW130831   4.398  13.383  11.839
 9666SOL    HW230832   4.263  13.451  11.853
 9667SOL     OW30833   3.550   9.688  10.481
 9667SOL    HW130834   3.633   9.649  10.511
 9667SOL    HW230835   3.513   9.622  10.423
 9668SOL     OW30836   2.797   0.659   0.974
 9668SOL    HW130837   2.880   0.676   0.929
 9668SOL    HW230838   2.730   0.679   0.908
 9669SOL     OW30839   6.553  12.143   3.039
 9669SOL    HW130840   6.620  12.075   3.029
 9669SOL    HW230841   6.480  12.112   2.986
 9670SOL     OW30842   1.920  12.607   9.049
 9670SOL    HW130843   1.994  12.583   8.993
 9670SOL    HW230844   1.866  12.528   9.052
 9671SOL     OW30845   1.873   4.701   2.979
 9671SOL    HW130846   1.930   4.773   3.004
 9671SOL    HW230847   1.846   4.721   2.889
 9672SOL     OW30848   0.769   6.346   4.944
 9672SOL    HW130849   0.824   6.298   4.882
 9672SOL    HW230850   0.831   6.398   4.995
 9673SOL     OW30851   0.346   3.654  12.281
 9673SOL    HW130852   0.388   3.583  12.329
 9673SOL    HW230853   0.253   3.644  12.300
 9674SOL     OW30854   7.190   6.275   5.507
 9674SOL    HW130855   7.114   6.325   5.537
 9674SOL    HW230856   7.226   6.236   5.586
 9675SOL     OW30857   9.582   9.778  12.819
 9675SOL    HW130858   9.673   9.792  12.842
 9675SOL    HW230859   9.581   9.776  12.723
 9676SOL     OW30860   7.835   6.937  11.584
 9676SOL    HW130861   7.846   7.023  11.625
 9676SOL    HW230862   7.802   6.957  11.496
 9677SOL     OW30863   1.427   6.483   1.314
 9677SOL    HW130864   1.438   6.503   1.407
 9677SOL    HW230865   1.506   6.518   1.273
 9678SOL     OW30866   1.545   4.736   1.789
 9678SOL    HW130867   1.456   4.760   1.763
 9678SOL    HW230868   1.589   4.713   1.707
 9679SOL     OW30869  14.571   5.282  12.187
 9679SOL    HW130870  14.640   5.346  12.203
 9679SOL    HW230871  14.493   5.335  12.169
 9680SOL     OW30872   2.411   5.501  13.710
 9680SOL    HW130873   2.326   5.539  13.690
 9680SOL    HW230874   2.415   5.421  13.658
 9681SOL     OW30875   7.205   8.064   7.627
 9681SOL    HW130876   7.201   7.977   7.587
 9681SOL    HW230877   7.296   8.072   7.657
 9682SOL     OW30878   8.987   6.006  14.102
 9682SOL    HW130879   9.057   6.071  14.089
 9682SOL    HW230880   8.986   5.955  14.022
 9683SOL     OW30881   0.627  10.414   8.282
 9683SOL    HW130882   0.538  10.398   8.252
 9683SOL    HW230883   0.629  10.381   8.371
 9684SOL     OW30884   2.397   8.973  10.048
 9684SOL    HW130885   2.440   8.898  10.007
 9684SOL    HW230886   2.433   8.977  10.136
 9685SOL     OW30887   9.195  12.423  13.131
 9685SOL    HW130888   9.136  12.354  13.100
 9685SOL    HW230889   9.192  12.490  13.063
 9686SOL     OW30890   2.187   8.784   5.773
 9686SOL    HW130891   2.148   8.757   5.857
 9686SOL    HW230892   2.114   8.780   5.711
 9687SOL     OW30893   8.956  12.171   4.263
 9687SOL    HW130894   8.919  12.254   4.292
 9687SOL    HW230895   8.880  12.115   4.246
 9688SOL     OW30896  13.066   2.579   2.466
 9688SOL    HW130897  13.127   2.578   2.392
 9688SOL    HW230898  13.061   2.672   2.491
 9689SOL     OW30899   4.143   3.884   1.220
 9689SOL    HW130900   4.088   3.836   1.158
 9689SOL    HW230901   4.099   3.872   1.305
 9690SOL     OW30902   4.925   7.971   1.232
 9690SOL    HW130903   4.998   7.909   1.239
 9690SOL    HW230904   4.961   8.046   1.186
 9691SOL     OW30905   7.777   6.181   8.535
 9691SOL    HW130906   7.786   6.268   8.572
 9691SOL    HW230907   7.793   6.121   8.608
 9692SOL     OW30908  11.792   3.998   1.521
 9692SOL    HW130909  11.846   4.046   1.457
 9692SOL    HW230910  11.712   4.049   1.527
 9693SOL     OW30911   0.925   3.766   6.132
 9693SOL    HW130912   0.998   3.828   6.124
 9693SOL    HW230913   0.850   3.821   6.153
 9694SOL     OW30914   8.743  12.575   0.491
 9694SOL    HW130915   8.674  12.640   0.485
 9694SOL    HW230916   8.742  12.547   0.582
 9695SOL     OW30917  14.102  12.651   0.993
 9695SOL    HW130918  14.086  12.745   0.999
 9695SOL    HW230919  14.065  12.615   1.073
 9696SOL     OW30920   2.946   0.408   3.722
 9696SOL    HW130921   2.854   0.398   3.699
 9696SOL    HW230922   2.990   0.337   3.675
 9697SOL     OW30923  14.473   3.598   7.420
 9697SOL    HW130924  14.438   3.687   7.418
 9697SOL    HW230925  14.426   3.555   7.492
 9698SOL     OW30926   2.389  12.303   6.565
 9698SOL    HW130927   2.372  12.348   6.647
 9698SOL    HW230928   2.445  12.364   6.516
 9699SOL     OW30929  13.579  10.903   5.577
 9699SOL    HW130930  13.578  10.998   5.580
 9699SOL    HW230931  13.488  10.877   5.590
 9700SOL     OW30932   4.324  12.672   3.707
 9700SOL    HW130933   4.231  12.682   3.688
 9700SOL    HW230934   4.353  12.761   3.728
 9701SOL     OW30935   1.971   2.828   5.232
 9701SOL    HW130936   1.928   2.819   5.146
 9701SOL    HW230937   2.058   2.861   5.211
 9702SOL     OW30938   1.906   9.642   7.895
 9702SOL    HW130939   1.826   9.643   7.947
 9702SOL    HW230940   1.915   9.731   7.862
 9703SOL     OW30941   4.783  12.608   1.898
 9703SOL    HW130942   4.825  12.688   1.866
 9703SOL    HW230943   4.692  12.617   1.872
 9704SOL     OW30944   9.739   8.589   0.181
 9704SOL    HW130945   9.715   8.537   0.104
 9704SOL    HW230946   9.697   8.673   0.166
 9705SOL     OW30947   8.296  14.833   0.618
 9705SOL    HW130948   8.304  14.764   0.553
 9705SOL    HW230949   8.202  14.852   0.623
 9706SOL     OW30950   6.392   1.391   8.171
 9706SOL    HW130951   6.328   1.422   8.108
 9706SOL    HW230952   6.347   1.397   8.256
 9707SOL     OW30953  11.209  14.099   0.495
 9707SOL    HW130954  11.298  14.130   0.512
 9707SOL    HW230955  11.221  14.026   0.434
 9708SOL     OW30956   7.929   9.617   1.155
 9708SOL    HW130957   7.935   9.632   1.249
 9708SOL    HW230958   7.875   9.539   1.146
 9709SOL     OW30959   5.844   5.247   5.727
 9709SOL    HW130960   5.939   5.240   5.741
 9709SOL    HW230961   5.813   5.157   5.727
 9710SOL     OW30962   9.090   8.217   0.226
 9710SOL    HW130963   9.041   8.255   0.153
 9710SOL    HW230964   9.080   8.280   0.298
 9711SOL     OW30965  10.983  14.767  14.076
 9711SOL    HW130966  10.898  14.726  14.058
 9711SOL    HW230967  11.036  14.748  13.998
 9712SOL     OW30968  14.742   1.068   5.373
 9712SOL    HW130969  14.675   1.086   5.439
 9712SOL    HW230970  14.755   0.973   5.378
 9713SOL     OW30971   7.318   2.179  10.890
 9713SOL    HW130972   7.355   2.202  10.975
 9713SOL    HW230973   7.228   2.212  10.894
 9714SOL     OW30974   5.767   4.124  13.836
 9714SOL    HW130975   5.774   4.036  13.872
 9714SOL    HW230976   5.674   4.146  13.844
 9715SOL     OW30977   2.077  12.229  14.743
 9715SOL    HW130978   2.068  12.324  14.731
 9715SOL    HW230979   2.009  12.207  14.807
 9716SOL     OW30980  10.187   3.498   2.797
 9716SOL    HW130981  10.242   3.571   2.771
 9716SOL    HW230982  10.211   3.479   2.888
 9717SOL     OW30983   4.262  10.745   6.387
 9717SOL    HW130984   4.357  10.756   6.396
 9717SOL    HW230985   4.224  10.803   6.452
 9718SOL     OW30986  12.323   4.224   7.473
 9718SOL    HW130987  12.383   4.203   7.545
 9718SOL    HW230988  12.238   4.191   7.501
 9719SOL     OW30989   5.005  14.759  11.155
 9719SOL    HW130990   4.910  14.768  11.165
 9719SOL    HW230991   5.022  14.666  11.171
 9720SOL     OW30992   8.103   6.520   5.340
 9720SOL    HW130993   8.167   6.571   5.290
 9720SOL    HW230994   8.146   6.502   5.424
 9721SOL     OW30995   1.573  14.608   9.337
 9721SOL    HW130996   1.569  14.513   9.323
 9721SOL    HW230997   1.627  14.617   9.416
 9722SOL     OW30998  11.920   0.478   4.897
 9722SOL    HW130999  11.961   0.414   4.841
 9722SOL    HW231000  11.993   0.526   4.938
 9723SOL     OW31001   6.966   7.467   8.795
 9723SOL    HW131002   6.988   7.475   8.703
 9723SOL    HW231003   7.039   7.507   8.841
 9724SOL     OW31004   4.976  12.169   7.285
 9724SOL    HW131005   4.895  12.160   7.235
 9724SOL    HW231006   5.039  12.114   7.237
 9725SOL     OW31007   1.422  11.703   0.699
 9725SOL    HW131008   1.460  11.697   0.787
 9725SOL    HW231009   1.334  11.668   0.708
 9726SOL     OW31010   4.433   9.299   4.988
 9726SOL    HW131011   4.341   9.302   4.962
 9726SOL    HW231012   4.432   9.272   5.080
 9727SOL     OW31013   3.844   2.419  12.163
 9727SOL    HW131014   3.897   2.347  12.130
 9727SOL    HW231015   3.782   2.437  12.093
 9728SOL     OW31016   5.326   6.544   4.308
 9728SOL    HW131017   5.243   6.495   4.301
 9728SOL    HW231018   5.300   6.629   4.342
 9729SOL     OW31019  12.372   6.793  10.672
 9729SOL    HW131020  12.290   6.836  10.697
 9729SOL    HW231021  12.417   6.777  10.755
 9730SOL     OW31022   4.209   1.740   4.811
 9730SOL    HW131023   4.251   1.780   4.736
 9730SOL    HW231024   4.187   1.813   4.869
 9731SOL     OW31025   6.669   7.469   8.790
 9731SOL    HW131026   6.762   7.462   8.811
 9731SOL    HW231027   6.652   7.396   8.730
 9732SOL     OW31028  10.225  13.428  12.133
 9732SOL    HW131029  10.172  13.494  12.087
 9732SOL    HW231030  10.218  13.452  12.225
 9733SOL     OW31031  12.191   6.645   0.336
 9733SOL    HW131032  12.167   6.689   0.417
 9733SOL    HW231033  12.270   6.689   0.307
 9734SOL     OW31034   7.046   9.127   9.859
 9734SOL    HW131035   7.110   9.167   9.798
 9734SOL    HW231036   7.039   9.036   9.830
 9735SOL     OW31037   8.411   4.423   9.851
 9735SOL    HW131038   8.381   4.442   9.939
 9735SOL    HW231039   8.434   4.509   9.814
 9736SOL     OW31040   3.430   1.253  11.867
 9736SOL    HW131041   3.525   1.260  11.875
 9736SOL    HW231042   3.402   1.340  11.839
 9737SOL     OW31043  13.459   4.569   9.451
 9737SOL    HW131044  13.443   4.608   9.536
 9737SOL    HW231045  13.548   4.533   9.456
 9738SOL     OW31046   1.536  11.549  11.437
 9738SOL    HW131047   1.574  11.463  11.416
 9738SOL    HW231048   1.465  11.530  11.499
 9739SOL     OW31049  12.762   4.048  14.370
 9739SOL    HW131050  12.668   4.067  14.372
 9739SOL    HW231051  12.788   4.047  14.462
 9740SOL     OW31052  12.585  11.246   2.127
 9740SOL    HW131053  12.680  11.248   2.117
 9740SOL    HW231054  12.554  11.209   2.044
 9741SOL     OW31055   7.468   3.060   6.801
 9741SOL    HW131056   7.516   3.085   6.722
 9741SOL    HW231057   7.528   3.003   6.849
 9742SOL     OW31058   3.948   3.018  10.758
 9742SOL    HW131059   3.963   2.973  10.841
 9742SOL    HW231060   4.036   3.039  10.726
 9743SOL     OW31061   3.598  13.561  13.109
 9743SOL    HW131062   3.521  13.505  13.098
 9743SOL    HW231063   3.658  13.532  13.040
 9744SOL     OW31064   7.935   0.057   9.503
 9744SOL    HW131065   7.959   0.148   9.520
 9744SOL    HW231066   7.972   0.037   9.418
 9745SOL     OW31067   5.677   0.040  12.917
 9745SOL    HW131068   5.637  14.861  12.847
 9745SOL    HW231069   5.751   0.083  12.875
 9746SOL     OW31070   7.971   3.155   0.160
 9746SOL    HW131071   7.954   3.103   0.082
 9746SOL    HW231072   7.913   3.118   0.227
 9747SOL     OW31073  11.890   1.508   8.864
 9747SOL    HW131074  11.983   1.489   8.855
 9747SOL    HW231075  11.883   1.602   8.851
 9748SOL     OW31076   1.259  10.153  10.308
 9748SOL    HW131077   1.299  10.117  10.388
 9748SOL    HW231078   1.198  10.220  10.340
 9749SOL     OW31079  12.119  10.445   8.303
 9749SOL    HW131080  12.056  10.516   8.287
 9749SOL    HW231081  12.195  10.489   8.341
 9750SOL     OW31082   6.622   9.692   1.424
 9750SOL    HW131083   6.581   9.776   1.401
 9750SOL    HW231084   6.659   9.660   1.342
 9751SOL     OW31085   6.322   9.200   2.779
 9751SOL    HW131086   6.339   9.175   2.687
 9751SOL    HW231087   6.245   9.256   2.775
 9752SOL     OW31088  11.467   1.838   5.293
 9752SOL    HW131089  11.375   1.861   5.304
 9752SOL    HW231090  11.515   1.913   5.327
 9753SOL     OW31091   3.129  14.791   7.491
 9753SOL    HW131092   3.134  14.871   7.440
 9753SOL    HW231093   3.187  14.730   7.445
 9754SOL     OW31094   4.305   5.193   6.429
 9754SOL    HW131095   4.313   5.288   6.435
 9754SOL    HW231096   4.292   5.177   6.335
 9755SOL     OW31097  11.468   1.680  12.256
 9755SOL    HW131098  11.524   1.606  12.231
 9755SOL    HW231099  11.512   1.720  12.331
 9756SOL     OW31100   5.959   3.726   3.213
 9756SOL    HW131101   5.969   3.657   3.279
 9756SOL    HW231102   5.995   3.804   3.255
 9757SOL     OW31103   2.429   3.334   0.667
 9757SOL    HW131104   2.390   3.401   0.611
 9757SOL    HW231105   2.372   3.330   0.743
 9758SOL     OW31106   4.453  13.939   5.413
 9758SOL    HW131107   4.402  14.006   5.368
 9758SOL    HW231108   4.501  13.986   5.481
 9759SOL     OW31109  12.458   7.452   9.040
 9759SOL    HW131110  12.550   7.428   9.025
 9759SOL    HW231111  12.460   7.546   9.053
 9760SOL     OW31112   1.178   1.750  14.438
 9760SOL    HW131113   1.248   1.688  14.418
 9760SOL    HW231114   1.099   1.697  14.439
 9761SOL     OW31115  11.636   1.406   9.657
 9761SOL    HW131116  11.659   1.499   9.662
 9761SOL    HW231117  11.569   1.402   9.589
 9762SOL     OW31118   1.218   4.071   1.994
 9762SOL    HW131119   1.236   3.990   2.041
 9762SOL    HW231120   1.187   4.042   1.908
 9763SOL     OW31121   2.496   1.466   1.857
 9763SOL    HW131122   2.539   1.546   1.887
 9763SOL    HW231123   2.407   1.494   1.834
 9764SOL     OW31124   0.512  11.094   3.955
 9764SOL    HW131125   0.529  11.071   3.863
 9764SOL    HW231126   0.430  11.144   3.953
 9765SOL     OW31127   5.519  12.489   0.654
 9765SOL    HW131128   5.461  12.425   0.695
 9765SOL    HW231129   5.460  12.558   0.624
 9766SOL     OW31130   8.452  10.254   4.185
 9766SOL    HW131131   8.478  10.178   4.134
 9766SOL    HW231132   8.368  10.230   4.224
 9767SOL     OW31133  12.283   4.998   7.719
 9767SOL    HW131134  12.271   4.937   7.647
 9767SOL    HW231135  12.340   5.066   7.683
 9768SOL     OW31136  11.762   0.540   9.384
 9768SOL    HW131137  11.736   0.451   9.409
 9768SOL    HW231138  11.845   0.554   9.429
 9769SOL     OW31139   0.894   8.792   0.711
 9769SOL    HW131140   0.897   8.708   0.665
 9769SOL    HW231141   0.934   8.854   0.650
 9770SOL     OW31142   3.301   0.217   0.412
 9770SOL    HW131143   3.337   0.141   0.458
 9770SOL    HW231144   3.287   0.187   0.322
 9771SOL     OW31145  11.491   1.243   3.833
 9771SOL    HW131146  11.556   1.221   3.900
 9771SOL    HW231147  11.487   1.339   3.835
 9772SOL     OW31148  13.219  14.684   6.773
 9772SOL    HW131149  13.263  14.671   6.690
 9772SOL    HW231150  13.279  14.740   6.823
 9773SOL     OW31151  14.212  10.659  14.080
 9773SOL    HW131152  14.273  10.731  14.063
 9773SOL    HW231153  14.153  10.692  14.148
 9774SOL     OW31154   4.493   2.488   1.561
 9774SOL    HW131155   4.566   2.427   1.558
 9774SOL    HW231156   4.534   2.573   1.576
 9775SOL     OW31157   6.661   7.267  11.462
 9775SOL    HW131158   6.646   7.354  11.499
 9775SOL    HW231159   6.599   7.210  11.507
 9776SOL     OW31160   1.487   6.430   5.830
 9776SOL    HW131161   1.488   6.400   5.921
 9776SOL    HW231162   1.503   6.351   5.778
 9777SOL     OW31163  13.881   7.492  14.176
 9777SOL    HW131164  13.806   7.478  14.118
 9777SOL    HW231165  13.911   7.404  14.199
 9778SOL     OW31166   5.457  11.963  10.551
 9778SOL    HW131167   5.509  11.898  10.503
 9778SOL    HW231168   5.514  11.990  10.623
 9779SOL     OW31169   4.431   9.910   1.877
 9779SOL    HW131170   4.415   9.982   1.938
 9779SOL    HW231171   4.518   9.878   1.901
 9780SOL     OW31172   3.712   3.768   9.036
 9780SOL    HW131173   3.745   3.692   8.988
 9780SOL    HW231174   3.695   3.735   9.125
 9781SOL     OW31175   0.705  12.680   9.135
 9781SOL    HW131176   0.637  12.728   9.183
 9781SOL    HW231177   0.782  12.736   9.142
 9782SOL     OW31178   0.683   9.246  10.053
 9782SOL    HW131179   0.638   9.329  10.040
 9782SOL    HW231180   0.639   9.185   9.994
 9783SOL     OW31181   8.743  11.755   2.768
 9783SOL    HW131182   8.802  11.817   2.811
 9783SOL    HW231183   8.801  11.689   2.730
 9784SOL     OW31184   7.429   0.338   7.793
 9784SOL    HW131185   7.444   0.338   7.888
 9784SOL    HW231186   7.459   0.425   7.765
 9785SOL     OW31187   5.047  10.292   0.229
 9785SOL    HW131188   5.021  10.381   0.207
 9785SOL    HW231189   5.143  10.294   0.229
 9786SOL     OW31190   0.459  13.679  13.789
 9786SOL    HW131191   0.520  13.656  13.719
 9786SOL    HW231192   0.498  13.642  13.868
 9787SOL     OW31193   8.045   7.382   4.849
 9787SOL    HW131194   7.987   7.445   4.891
 9787SOL    HW231195   8.131   7.424   4.850
 9788SOL     OW31196   2.570   3.893   8.009
 9788SOL    HW131197   2.617   3.859   7.933
 9788SOL    HW231198   2.637   3.904   8.076
 9789SOL     OW31199   7.892   5.631  14.216
 9789SOL    HW131200   7.807   5.643  14.173
 9789SOL    HW231201   7.951   5.605  14.145
 9790SOL     OW31202  10.342   5.323  13.169
 9790SOL    HW131203  10.412   5.279  13.120
 9790SOL    HW231204  10.310   5.257  13.230
 9791SOL     OW31205   1.295   3.100   3.972
 9791SOL    HW131206   1.254   3.105   4.058
 9791SOL    HW231207   1.222   3.101   3.911
 9792SOL     OW31208   7.691  14.738   0.509
 9792SOL    HW131209   7.709  14.830   0.527
 9792SOL    HW231210   7.699  14.694   0.594
 9793SOL     OW31211  13.257   1.128   2.994
 9793SOL    HW131212  13.246   1.036   2.970
 9793SOL    HW231213  13.168   1.163   2.994
 9794SOL     OW31214  10.465   6.241   7.879
 9794SOL    HW131215  10.533   6.284   7.932
 9794SOL    HW231216  10.492   6.149   7.874
 9795SOL     OW31217  13.373   1.576   1.971
 9795SOL    HW131218  13.457   1.595   2.013
 9795SOL    HW231219  13.311   1.567   2.044
 9796SOL     OW31220   8.423   7.029  10.425
 9796SOL    HW131221   8.454   7.015  10.515
 9796SOL    HW231222   8.334   7.062  10.434
 9797SOL     OW31223   2.400   9.329   1.658
 9797SOL    HW131224   2.477   9.358   1.708
 9797SOL    HW231225   2.424   9.345   1.567
 9798SOL     OW31226   1.859   7.826   9.091
 9798SOL    HW131227   1.901   7.824   9.178
 9798SOL    HW231228   1.931   7.839   9.030
 9799SOL     OW31229   6.496   1.210   6.084
 9799SOL    HW131230   6.427   1.273   6.109
 9799SOL    HW231231   6.458   1.159   6.013
 9800SOL     OW31232   2.259   9.740  10.189
 9800SOL    HW131233   2.168   9.717  10.167
 9800SOL    HW231234   2.303   9.656  10.199
 9801SOL     OW31235  10.122  11.426  10.760
 9801SOL    HW131236  10.084  11.485  10.824
 9801SOL    HW231237  10.115  11.473  10.677
 9802SOL     OW31238   7.066  13.832   7.726
 9802SOL    HW131239   7.157  13.805   7.719
 9802SOL    HW231240   7.024  13.764   7.778
 9803SOL     OW31241   8.805  14.478   7.509
 9803SOL    HW131242   8.858  14.556   7.528
 9803SOL    HW231243   8.715  14.506   7.524
 9804SOL     OW31244   9.076   0.370  13.507
 9804SOL    HW131245   9.168   0.397  13.498
 9804SOL    HW231246   9.033   0.410  13.431
 9805SOL     OW31247  14.064  14.821   7.486
 9805SOL    HW131248  14.029   0.021   7.536
 9805SOL    HW231249  14.157  14.840   7.477
 9806SOL     OW31250  14.702   7.604   8.819
 9806SOL    HW131251  14.635   7.536   8.809
 9806SOL    HW231252  14.757   7.594   8.741
 9807SOL     OW31253  12.061   3.659  10.333
 9807SOL    HW131254  12.076   3.745  10.373
 9807SOL    HW231255  12.060   3.677  10.239
 9808SOL     OW31256   0.360  12.852  14.470
 9808SOL    HW131257   0.345  12.843  14.376
 9808SOL    HW231258   0.318  12.775  14.509
 9809SOL     OW31259  14.213   4.275  13.411
 9809SOL    HW131260  14.174   4.318  13.487
 9809SOL    HW231261  14.170   4.190  13.406
 9810SOL     OW31262  14.534  10.506   1.823
 9810SOL    HW131263  14.523  10.542   1.735
 9810SOL    HW231264  14.554  10.413   1.808
 9811SOL     OW31265  14.120  11.947   8.676
 9811SOL    HW131266  14.031  11.914   8.688
 9811SOL    HW231267  14.136  12.002   8.753
 9812SOL     OW31268   1.773   9.882   6.717
 9812SOL    HW131269   1.767   9.795   6.678
 9812SOL    HW231270   1.866   9.900   6.722
 9813SOL     OW31271   6.786   0.043   0.066
 9813SOL    HW131272   6.757   0.127   0.031
 9813SOL    HW231273   6.860   0.064   0.123
 9814SOL     OW31274  13.313   1.589   4.465
 9814SOL    HW131275  13.339   1.573   4.374
 9814SOL    HW231276  13.306   1.684   4.471
 9815SOL     OW31277  13.996   1.533   9.727
 9815SOL    HW131278  13.929   1.559   9.790
 9815SOL    HW231279  14.048   1.613   9.714
 9816SOL     OW31280  10.166  12.832   6.289
 9816SOL    HW131281  10.155  12.822   6.384
 9816SOL    HW231282  10.259  12.815   6.274
 9817SOL     OW31283   9.024   6.776   7.593
 9817SOL    HW131284   8.998   6.799   7.504
 9817SOL    HW231285   9.085   6.844   7.619
 9818SOL     OW31286   8.555  14.688   3.969
 9818SOL    HW131287   8.519  14.772   3.997
 9818SOL    HW231288   8.633  14.677   4.024
 9819SOL     OW31289   2.227   7.334   0.625
 9819SOL    HW131290   2.254   7.391   0.553
 9819SOL    HW231291   2.188   7.258   0.581
 9820SOL     OW31292   4.924   3.090   6.318
 9820SOL    HW131293   4.927   3.002   6.281
 9820SOL    HW231294   4.850   3.088   6.380
 9821SOL     OW31295   0.542  10.510   4.710
 9821SOL    HW131296   0.626  10.536   4.671
 9821SOL    HW231297   0.476  10.558   4.660
 9822SOL     OW31298   6.735   4.304   0.200
 9822SOL    HW131299   6.736   4.268   0.111
 9822SOL    HW231300   6.708   4.395   0.188
 9823SOL     OW31301   0.669  14.383   8.747
 9823SOL    HW131302   0.701  14.316   8.808
 9823SOL    HW231303   0.580  14.356   8.727
 9824SOL     OW31304  10.135   6.805   8.481
 9824SOL    HW131305  10.073   6.868   8.518
 9824SOL    HW231306  10.215   6.857   8.466
 9825SOL     OW31307   7.130   3.630  10.048
 9825SOL    HW131308   7.154   3.592  10.133
 9825SOL    HW231309   7.187   3.707  10.039
 9826SOL     OW31310   2.138   9.675   8.391
 9826SOL    HW131311   2.131   9.701   8.299
 9826SOL    HW231312   2.085   9.595   8.398
 9827SOL     OW31313   7.608   9.473  10.920
 9827SOL    HW131314   7.598   9.392  10.870
 9827SOL    HW231315   7.634   9.444  11.007
 9828SOL     OW31316   8.213  10.756   9.394
 9828SOL    HW131317   8.251  10.713   9.317
 9828SOL    HW231318   8.132  10.708   9.409
 9829SOL     OW31319   4.396  12.008   2.047
 9829SOL    HW131320   4.474  11.952   2.047
 9829SOL    HW231321   4.324  11.948   2.025
 9830SOL     OW31322  12.334  12.576   9.980
 9830SOL    HW131323  12.268  12.553   9.915
 9830SOL    HW231324  12.344  12.497  10.033
 9831SOL     OW31325   8.716   8.671   5.224
 9831SOL    HW131326   8.714   8.734   5.152
 9831SOL    HW231327   8.770   8.599   5.192
 9832SOL     OW31328  10.155  14.150   8.421
 9832SOL    HW131329  10.250  14.161   8.411
 9832SOL    HW231330  10.130  14.091   8.351
 9833SOL     OW31331  14.834   9.566   0.890
 9833SOL    HW131332  14.817   9.499   0.824
 9833SOL    HW231333  14.835   9.648   0.841
 9834SOL     OW31334   8.873   7.293   6.596
 9834SOL    HW131335   8.816   7.230   6.642
 9834SOL    HW231336   8.961   7.271   6.625
 9835SOL     OW31337   5.984   9.276   5.038
 9835SOL    HW131338   5.937   9.198   5.067
 9835SOL    HW231339   6.053   9.243   4.981
 9836SOL     OW31340   5.467  10.537   6.129
 9836SOL    HW131341   5.392  10.592   6.107
 9836SOL    HW231342   5.533  10.560   6.063
 9837SOL     OW31343   8.790  13.033   7.886
 9837SOL    HW131344   8.884  13.020   7.894
 9837SOL    HW231345   8.756  12.947   7.863
 9838SOL     OW31346   2.258   6.562   2.283
 9838SOL    HW131347   2.209   6.485   2.310
 9838SOL    HW231348   2.330   6.527   2.230
 9839SOL     OW31349   8.305  14.516   7.154
 9839SOL    HW131350   8.217  14.479   7.151
 9839SOL    HW231351   8.292  14.609   7.169
 9840SOL     OW31352   3.904   6.398  12.288
 9840SOL    HW131353   3.896   6.367  12.378
 9840SOL    HW231354   3.940   6.487  12.296
 9841SOL     OW31355   6.302   0.301   7.861
 9841SOL    HW131356   6.343   0.376   7.904
 9841SOL    HW231357   6.371   0.235   7.857
 9842SOL     OW31358   7.554  13.497  13.975
 9842SOL    HW131359   7.473  13.446  13.983
 9842SOL    HW231360   7.593  13.492  14.062
 9843SOL     OW31361   5.723   1.463   8.335
 9843SOL    HW131362   5.781   1.457   8.411
 9843SOL    HW231363   5.711   1.373   8.306
 9844SOL     OW31364   1.934   0.267  10.879
 9844SOL    HW131365   1.975   0.220  10.807
 9844SOL    HW231366   1.970   0.228  10.958
 9845SOL     OW31367   5.067   6.303  11.818
 9845SOL    HW131368   5.024   6.329  11.899
 9845SOL    HW231369   5.007   6.330  11.749
 9846SOL     OW31370   7.105   0.042   9.746
 9846SOL    HW131371   7.057   0.112   9.791
 9846SOL    HW231372   7.037  14.860   9.706
 9847SOL     OW31373   2.268   3.662   4.647
 9847SOL    HW131374   2.352   3.708   4.635
 9847SOL    HW231375   2.211   3.701   4.581
 9848SOL     OW31376   2.420   5.889  12.450
 9848SOL    HW131377   2.407   5.867  12.358
 9848SOL    HW231378   2.364   5.966  12.464
 9849SOL     OW31379  13.662   8.780   0.831
 9849SOL    HW131380  13.743   8.733   0.855
 9849SOL    HW231381  13.683   8.872   0.844
 9850SOL     OW31382   1.166   7.377  11.778
 9850SOL    HW131383   1.090   7.369  11.720
 9850SOL    HW231384   1.220   7.444  11.737
 9851SOL     OW31385  12.371   9.838   3.440
 9851SOL    HW131386  12.452   9.788   3.432
 9851SOL    HW231387  12.303   9.772   3.450
 9852SOL     OW31388  13.736  13.304   7.403
 9852SOL    HW131389  13.764  13.290   7.313
 9852SOL    HW231390  13.737  13.399   7.414
 9853SOL     OW31391   7.212   3.483   2.111
 9853SOL    HW131392   7.307   3.477   2.109
 9853SOL    HW231393   7.183   3.432   2.035
 9854SOL     OW31394   2.240   6.040   5.803
 9854SOL    HW131395   2.209   5.950   5.804
 9854SOL    HW231396   2.246   6.065   5.895
 9855SOL     OW31397   8.383  12.152   3.729
 9855SOL    HW131398   8.408  12.244   3.719
 9855SOL    HW231399   8.467  12.105   3.733
 9856SOL     OW31400   9.324   1.717  13.333
 9856SOL    HW131401   9.236   1.681  13.328
 9856SOL    HW231402   9.316   1.806  13.299
 9857SOL     OW31403  10.316  10.881   4.075
 9857SOL    HW131404  10.262  10.837   4.009
 9857SOL    HW231405  10.261  10.951   4.109
 9858SOL     OW31406  10.536  13.602   2.273
 9858SOL    HW131407  10.493  13.611   2.358
 9858SOL    HW231408  10.588  13.522   2.281
 9859SOL     OW31409  10.297  12.062  11.554
 9859SOL    HW131410  10.263  12.149  11.573
 9859SOL    HW231411  10.388  12.064  11.584
 9860SOL     OW31412  13.419   4.351  12.557
 9860SOL    HW131413  13.367   4.387  12.630
 9860SOL    HW231414  13.506   4.338  12.594
 9861SOL     OW31415  13.753   7.127   6.458
 9861SOL    HW131416  13.753   7.132   6.554
 9861SOL    HW231417  13.828   7.071   6.437
 9862SOL     OW31418   6.176  14.829  11.572
 9862SOL    HW131419   6.170  14.751  11.516
 9862SOL    HW231420   6.117  14.809  11.645
 9863SOL     OW31421  11.194   0.288   4.707
 9863SOL    HW131422  11.163   0.198   4.702
 9863SOL    HW231423  11.224   0.299   4.797
 9864SOL     OW31424  13.484   9.459  12.078
 9864SOL    HW131425  13.572   9.463  12.041
 9864SOL    HW231426  13.495   9.478  12.171
 9865SOL     OW31427   6.597  12.649   7.530
 9865SOL    HW131428   6.562  12.612   7.611
 9865SOL    HW231429   6.546  12.729   7.516
 9866SOL     OW31430   6.659   8.717   4.200
 9866SOL    HW131431   6.736   8.768   4.224
 9866SOL    HW231432   6.656   8.721   4.104
 9867SOL     OW31433   7.284   2.215  13.936
 9867SOL    HW131434   7.344   2.219  14.012
 9867SOL    HW231435   7.217   2.281  13.955
 9868SOL     OW31436   2.112  13.068   7.063
 9868SOL    HW131437   2.035  13.016   7.087
 9868SOL    HW231438   2.171  13.059   7.138
 9869SOL     OW31439  10.048   9.836  13.582
 9869SOL    HW131440  10.005   9.918  13.560
 9869SOL    HW231441  10.046   9.784  13.502
 9870SOL     OW31442  14.118   7.119   0.690
 9870SOL    HW131443  14.087   7.052   0.630
 9870SOL    HW231444  14.040   7.149   0.736
 9871SOL     OW31445   1.188   5.422  12.692
 9871SOL    HW131446   1.249   5.491  12.717
 9871SOL    HW231447   1.102   5.454  12.720
 9872SOL     OW31448   3.071   4.280   5.305
 9872SOL    HW131449   3.077   4.345   5.235
 9872SOL    HW231450   2.988   4.300   5.349
 9873SOL     OW31451  10.556   9.580   1.581
 9873SOL    HW131452  10.547   9.668   1.618
 9873SOL    HW231453  10.489   9.529   1.626
 9874SOL     OW31454   8.377  13.865   1.328
 9874SOL    HW131455   8.430  13.881   1.406
 9874SOL    HW231456   8.439  13.873   1.255
 9875SOL     OW31457   4.438   9.169   1.180
 9875SOL    HW131458   4.362   9.194   1.128
 9875SOL    HW231459   4.433   9.073   1.184
 9876SOL     OW31460   3.940   4.972   0.346
 9876SOL    HW131461   3.872   4.922   0.299
 9876SOL    HW231462   3.892   5.042   0.389
 9877SOL     OW31463  10.054   4.489   2.603
 9877SOL    HW131464  10.017   4.511   2.517
 9877SOL    HW231465   9.992   4.427   2.641
 9878SOL     OW31466   2.261   4.261  14.866
 9878SOL    HW131467   2.204   4.187   0.016
 9878SOL    HW231468   2.203   4.324  14.824
 9879SOL     OW31469   4.384  13.913   5.767
 9879SOL    HW131470   4.349  13.824   5.769
 9879SOL    HW231471   4.388  13.939   5.859
 9880SOL     OW31472   5.456   6.706   3.214
 9880SOL    HW131473   5.492   6.629   3.170
 9880SOL    HW231474   5.485   6.697   3.305
 9881SOL     OW31475   6.989  11.934   1.803
 9881SOL    HW131476   6.959  11.848   1.833
 9881SOL    HW231477   7.044  11.914   1.727
 9882SOL     OW31478   0.509   3.617   7.567
 9882SOL    HW131479   0.507   3.550   7.636
 9882SOL    HW231480   0.598   3.610   7.530
 9883SOL     OW31481   2.529   2.982   8.222
 9883SOL    HW131482   2.565   3.050   8.165
 9883SOL    HW231483   2.537   2.901   8.171
 9884SOL     OW31484   6.640   0.475  13.059
 9884SOL    HW131485   6.658   0.407  12.994
 9884SOL    HW231486   6.548   0.497  13.046
 9885SOL     OW31487   1.721   4.996   2.222
 9885SOL    HW131488   1.703   5.084   2.255
 9885SOL    HW231489   1.691   4.999   2.131
 9886SOL     OW31490   7.696  12.252   8.278
 9886SOL    HW131491   7.668  12.251   8.186
 9886SOL    HW231492   7.711  12.344   8.298
 9887SOL     OW31493   6.078   3.121   9.122
 9887SOL    HW131494   6.117   3.138   9.208
 9887SOL    HW231495   6.081   3.026   9.112
 9888SOL     OW31496   0.976   1.265  14.584
 9888SOL    HW131497   1.032   1.288  14.659
 9888SOL    HW231498   0.898   1.319  14.596
 9889SOL     OW31499   2.795  13.513  13.477
 9889SOL    HW131500   2.712  13.478  13.510
 9889SOL    HW231501   2.798  13.484  13.386
 9890SOL     OW31502   5.142   6.498   8.743
 9890SOL    HW131503   5.164   6.588   8.722
 9890SOL    HW231504   5.181   6.446   8.672
 9891SOL     OW31505  13.972   2.753   8.123
 9891SOL    HW131506  13.923   2.806   8.061
 9891SOL    HW231507  14.013   2.816   8.182
 9892SOL     OW31508  11.639   6.665  12.201
 9892SOL    HW131509  11.687   6.591  12.163
 9892SOL    HW231510  11.559   6.671  12.148
 9893SOL     OW31511   5.160  13.765   9.190
 9893SOL    HW131512   5.120  13.679   9.181
 9893SOL    HW231513   5.093  13.827   9.160
 9894SOL     OW31514   2.987   1.041   2.754
 9894SOL    HW131515   2.900   1.078   2.741
 9894SOL    HW231516   2.996   0.977   2.683
 9895SOL     OW31517   7.437   2.231  14.147
 9895SOL    HW131518   7.457   2.161  14.209
 9895SOL    HW231519   7.480   2.308  14.184
 9896SOL     OW31520  10.716   4.054   1.505
 9896SOL    HW131521  10.736   4.085   1.417
 9896SOL    HW231522  10.678   4.130   1.550
 9897SOL     OW31523   5.434   1.995  13.573
 9897SOL    HW131524   5.482   2.064  13.528
 9897SOL    HW231525   5.398   1.942  13.502
 9898SOL     OW31526  14.620   0.406   4.871
 9898SOL    HW131527  14.593   0.399   4.780
 9898SOL    HW231528  14.595   0.322   4.910
 9899SOL     OW31529   6.112   0.740  10.339
 9899SOL    HW131530   6.115   0.828  10.378
 9899SOL    HW231531   6.194   0.699  10.367
 9900SOL     OW31532  11.412   1.412   3.359
 9900SOL    HW131533  11.338   1.452   3.313
 9900SOL    HW231534  11.485   1.416   3.298
 9901SOL     OW31535   3.273  13.304  13.369
 9901SOL    HW131536   3.281  13.348  13.454
 9901SOL    HW231537   3.348  13.244  13.366
 9902SOL     OW31538   7.383  12.910   0.374
 9902SOL    HW131539   7.416  12.882   0.288
 9902SOL    HW231540   7.448  12.878   0.436
 9903SOL     OW31541   2.139   7.478   0.861
 9903SOL    HW131542   2.132   7.461   0.955
 9903SOL    HW231543   2.130   7.392   0.820
 9904SOL     OW31544   7.222  14.408  14.263
 9904SOL    HW131545   7.130  14.419  14.240
 9904SOL    HW231546   7.227  14.431  14.356
 9905SOL     OW31547  13.174  10.547   6.015
 9905SOL    HW131548  13.167  10.591   6.100
 9905SOL    HW231549  13.191  10.618   5.954
 9906SOL     OW31550   7.240   0.083   3.502
 9906SOL    HW131551   7.155   0.041   3.512
 9906SOL    HW231552   7.221   0.177   3.513
 9907SOL     OW31553   0.001   3.292   0.295
 9907SOL    HW131554  14.804   3.226   0.298
 9907SOL    HW231555  14.856   3.350   0.369
 9908SOL     OW31556   0.638  11.787  11.567
 9908SOL    HW131557   0.634  11.810  11.474
 9908SOL    HW231558   0.729  11.763  11.582
 9909SOL     OW31559   3.994  13.855  13.521
 9909SOL    HW131560   3.968  13.943  13.494
 9909SOL    HW231561   3.924  13.826  13.580
 9910SOL     OW31562  14.119  11.122  11.639
 9910SOL    HW131563  14.174  11.051  11.606
 9910SOL    HW231564  14.067  11.082  11.708
 9911SOL     OW31565  12.176  12.696  10.231
 9911SOL    HW131566  12.224  12.635  10.174
 9911SOL    HW231567  12.100  12.645  10.261
 9912SOL     OW31568   6.731   6.129   0.861
 9912SOL    HW131569   6.810   6.170   0.826
 9912SOL    HW231570   6.762   6.076   0.934
 9913SOL     OW31571  13.106   3.987  13.339
 9913SOL    HW131572  13.070   3.970  13.426
 9913SOL    HW231573  13.087   3.908  13.288
 9914SOL     OW31574   3.053  12.679   1.871
 9914SOL    HW131575   3.085  12.753   1.819
 9914SOL    HW231576   3.078  12.601   1.822
 9915SOL     OW31577   5.987  13.252   0.873
 9915SOL    HW131578   5.986  13.204   0.956
 9915SOL    HW231579   5.988  13.344   0.899
 9916SOL     OW31580   1.852   8.857   5.900
 9916SOL    HW131581   1.765   8.818   5.908
 9916SOL    HW231582   1.839   8.935   5.846
 9917SOL     OW31583  12.781   2.670   4.591
 9917SOL    HW131584  12.856   2.684   4.649
 9917SOL    HW231585  12.787   2.578   4.566
 9918SOL     OW31586   8.924   4.281   6.702
 9918SOL    HW131587   8.859   4.222   6.664
 9918SOL    HW231588   8.875   4.335   6.764
 9919SOL     OW31589   9.216   8.025  11.922
 9919SOL    HW131590   9.211   8.120  11.917
 9919SOL    HW231591   9.126   7.995  11.908
 9920SOL     OW31592   5.193  12.215   2.735
 9920SOL    HW131593   5.202  12.304   2.767
 9920SOL    HW231594   5.238  12.214   2.651
 9921SOL     OW31595   4.167   1.376  12.870
 9921SOL    HW131596   4.126   1.301  12.825
 9921SOL    HW231597   4.192   1.341  12.956
 9922SOL     OW31598   4.488  10.608  14.097
 9922SOL    HW131599   4.413  10.630  14.152
 9922SOL    HW231600   4.469  10.648  14.013
 9923SOL     OW31601   5.616   5.976  11.654
 9923SOL    HW131602   5.682   6.006  11.717
 9923SOL    HW231603   5.560   6.052  11.640
 9924SOL     OW31604   1.219  12.097   2.516
 9924SOL    HW131605   1.198  12.164   2.581
 9924SOL    HW231606   1.146  12.099   2.454
 9925SOL     OW31607   4.672  14.271  10.949
 9925SOL    HW131608   4.740  14.306  11.007
 9925SOL    HW231609   4.616  14.346  10.929
 9926SOL     OW31610  14.615   7.179   5.251
 9926SOL    HW131611  14.623   7.226   5.168
 9926SOL    HW231612  14.637   7.244   5.318
 9927SOL     OW31613  10.970  14.812   4.083
 9927SOL    HW131614  11.052  14.842   4.123
 9927SOL    HW231615  10.905   0.003   4.110
 9928SOL     OW31616   6.972  12.564   4.071
 9928SOL    HW131617   6.927  12.583   4.153
 9928SOL    HW231618   7.065  12.568   4.093
 9929SOL     OW31619  14.742  13.914   0.170
 9929SOL    HW131620  14.730  13.845   0.104
 9929SOL    HW231621  14.779  13.868   0.246
 9930SOL     OW31622   5.391   1.379  11.812
 9930SOL    HW131623   5.467   1.351  11.863
 9930SOL    HW231624   5.363   1.460  11.855
 9931SOL     OW31625   4.532   0.911  10.549
 9931SOL    HW131626   4.535   0.968  10.472
 9931SOL    HW231627   4.623   0.907  10.579
 9932SOL     OW31628  10.143  12.274   1.698
 9932SOL    HW131629  10.194  12.214   1.752
 9932SOL    HW231630  10.052  12.255   1.719
 9933SOL     OW31631   7.953   1.355   0.829
 9933SOL    HW131632   7.896   1.430   0.848
 9933SOL    HW231633   7.896   1.292   0.785
 9934SOL     OW31634   6.032  13.479  14.276
 9934SOL    HW131635   5.965  13.482  14.208
 9934SOL    HW231636   6.031  13.567  14.314
 9935SOL     OW31637   7.546  10.060   9.549
 9935SOL    HW131638   7.636  10.084   9.571
 9935SOL    HW231639   7.524   9.990   9.609
 9936SOL     OW31640  12.520  13.397   8.535
 9936SOL    HW131641  12.598  13.425   8.487
 9936SOL    HW231642  12.458  13.470   8.526
 9937SOL     OW31643  12.090   5.085   6.252
 9937SOL    HW131644  12.118   5.169   6.218
 9937SOL    HW231645  12.170   5.033   6.257
 9938SOL     OW31646   9.248   5.066   4.963
 9938SOL    HW131647   9.157   5.052   4.988
 9938SOL    HW231648   9.298   5.011   5.023
 9939SOL     OW31649   6.341   5.649  12.785
 9939SOL    HW131650   6.379   5.589  12.850
 9939SOL    HW231651   6.261   5.606  12.757
 9940SOL     OW31652   0.498  10.158   8.422
 9940SOL    HW131653   0.533  10.233   8.471
 9940SOL    HW231654   0.414  10.190   8.389
 9941SOL     OW31655   7.461   2.413   1.073
 9941SOL    HW131656   7.369   2.420   1.047
 9941SOL    HW231657   7.510   2.412   0.990
 9942SOL     OW31658  12.702   8.933  12.731
 9942SOL    HW131659  12.779   8.892  12.692
 9942SOL    HW231660  12.668   8.866  12.791
 9943SOL     OW31661  10.603  10.198   9.657
 9943SOL    HW131662  10.678  10.238   9.701
 9943SOL    HW231663  10.547  10.168   9.729
 9944SOL     OW31664   4.766  12.529   9.218
 9944SOL    HW131665   4.779  12.450   9.165
 9944SOL    HW231666   4.781  12.500   9.308
 9945SOL     OW31667  11.377   7.373   1.683
 9945SOL    HW131668  11.418   7.289   1.665
 9945SOL    HW231669  11.395   7.389   1.776
 9946SOL     OW31670   6.990  14.111   9.622
 9946SOL    HW131671   6.978  14.027   9.578
 9946SOL    HW231672   6.985  14.176   9.551
 9947SOL     OW31673   9.639   8.674  10.639
 9947SOL    HW131674   9.553   8.632  10.643
 9947SOL    HW231675   9.630   8.752  10.693
 9948SOL     OW31676   4.837   6.901   3.290
 9948SOL    HW131677   4.805   6.815   3.262
 9948SOL    HW231678   4.800   6.913   3.377
 9949SOL     OW31679   5.470   6.079   4.020
 9949SOL    HW131680   5.489   5.987   4.006
 9949SOL    HW231681   5.392   6.080   4.075
 9950SOL     OW31682  11.555   6.797  10.962
 9950SOL    HW131683  11.482   6.834  11.011
 9950SOL    HW231684  11.515   6.736  10.901
 9951SOL     OW31685   9.446   8.093   6.671
 9951SOL    HW131686   9.421   8.099   6.579
 9951SOL    HW231687   9.415   8.175   6.710
 9952SOL     OW31688   9.762   1.166   1.466
 9952SOL    HW131689   9.694   1.202   1.409
 9952SOL    HW231690   9.791   1.087   1.421
 9953SOL     OW31691   1.907   0.488   8.242
 9953SOL    HW131692   1.880   0.579   8.227
 9953SOL    HW231693   1.998   0.494   8.270
 9954SOL     OW31694   7.723   5.601   7.400
 9954SOL    HW131695   7.761   5.686   7.423
 9954SOL    HW231696   7.765   5.539   7.459
 9955SOL     OW31697   8.432   3.995   8.384
 9955SOL    HW131698   8.429   3.946   8.465
 9955SOL    HW231699   8.398   3.935   8.318
 9956SOL     OW31700   0.755  11.892   8.610
 9956SOL    HW131701   0.681  11.901   8.669
 9956SOL    HW231702   0.717  11.902   8.522
 9957SOL     OW31703  11.846   1.129  10.391
 9957SOL    HW131704  11.914   1.068  10.362
 9957SOL    HW231705  11.795   1.146  10.312
 9958SOL     OW31706   9.119  10.310   8.697
 9958SOL    HW131707   9.163  10.242   8.747
 9958SOL    HW231708   9.096  10.269   8.614
 9959SOL     OW31709   0.904   6.814   9.114
 9959SOL    HW131710   0.941   6.795   9.201
 9959SOL    HW231711   0.973   6.789   9.053
 9960SOL     OW31712   6.965   9.750  11.166
 9960SOL    HW131713   6.925   9.834  11.189
 9960SOL    HW231714   6.892   9.688  11.165
 9961SOL     OW31715   8.818   3.451   1.216
 9961SOL    HW131716   8.723   3.438   1.211
 9961SOL    HW231717   8.839   3.499   1.136
 9962SOL     OW31718   5.270  12.704   2.185
 9962SOL    HW131719   5.239  12.643   2.117
 9962SOL    HW231720   5.241  12.663   2.267
 9963SOL     OW31721  12.559   4.460   7.101
 9963SOL    HW131722  12.622   4.433   7.168
 9963SOL    HW231723  12.572   4.398   7.030
 9964SOL     OW31724   4.832   9.282   1.819
 9964SOL    HW131725   4.789   9.271   1.735
 9964SOL    HW231726   4.795   9.214   1.875
 9965SOL     OW31727  10.002   3.562  11.369
 9965SOL    HW131728   9.984   3.542  11.461
 9965SOL    HW231729  10.036   3.481  11.332
 9966SOL     OW31730  12.455  13.692   2.708
 9966SOL    HW131731  12.389  13.726   2.768
 9966SOL    HW231732  12.415  13.613   2.670
 9967SOL     OW31733   2.791  10.030  10.851
 9967SOL    HW131734   2.871   9.992  10.816
 9967SOL    HW231735   2.783   9.993  10.939
 9968SOL     OW31736   1.007  13.040   8.785
 9968SOL    HW131737   0.985  13.127   8.818
 9968SOL    HW231738   0.981  12.980   8.854
 9969SOL     OW31739   8.171   1.996  14.771
 9969SOL    HW131740   8.082   2.024  14.753
 9969SOL    HW231741   8.226   2.063  14.732
 9970SOL     OW31742   5.297   0.569   5.512
 9970SOL    HW131743   5.389   0.570   5.486
 9970SOL    HW231744   5.287   0.488   5.563
 9971SOL     OW31745   5.982  11.391   8.410
 9971SOL    HW131746   6.030  11.322   8.456
 9971SOL    HW231747   5.992  11.370   8.317
 9972SOL     OW31748   5.786  13.800   6.616
 9972SOL    HW131749   5.762  13.845   6.535
 9972SOL    HW231750   5.711  13.743   6.634
 9973SOL     OW31751   5.726   0.932   4.738
 9973SOL    HW131752   5.693   0.858   4.686
 9973SOL    HW231753   5.663   0.940   4.810
 9974SOL     OW31754  11.168   3.472   8.625
 9974SOL    HW131755  11.263   3.470   8.634
 9974SOL    HW231756  11.135   3.458   8.714
 9975SOL     OW31757   7.659   8.762  14.506
 9975SOL    HW131758   7.708   8.681  14.523
 9975SOL    HW231759   7.590   8.736  14.446
 9976SOL     OW31760  10.407  12.870   3.748
 9976SOL    HW131761  10.433  12.959   3.770
 9976SOL    HW231762  10.366  12.836   3.828
 9977SOL     OW31763   9.791  11.101   6.612
 9977SOL    HW131764   9.696  11.094   6.615
 9977SOL    HW231765   9.821  11.013   6.589
 9978SOL     OW31766   6.757  14.065   1.983
 9978SOL    HW131767   6.763  13.987   1.928
 9978SOL    HW231768   6.840  14.067   2.031
 9979SOL     OW31769  11.549   4.795  10.520
 9979SOL    HW131770  11.470   4.741  10.524
 9979SOL    HW231771  11.620   4.732  10.506
 9980SOL     OW31772  14.728   9.481  10.830
 9980SOL    HW131773  14.742   9.575  10.817
 9980SOL    HW231774  14.667   9.476  10.903
 9981SOL     OW31775   1.880  10.799   9.453
 9981SOL    HW131776   1.973  10.801   9.428
 9981SOL    HW231777   1.881  10.780   9.547
 9982SOL     OW31778  12.710   2.244   8.694
 9982SOL    HW131779  12.755   2.200   8.622
 9982SOL    HW231780  12.775   2.250   8.763
 9983SOL     OW31781   7.882   7.718  11.526
 9983SOL    HW131782   7.895   7.632  11.486
 9983SOL    HW231783   7.928   7.778  11.468
 9984SOL     OW31784   7.707   8.929  12.293
 9984SOL    HW131785   7.660   8.890  12.366
 9984SOL    HW231786   7.746   8.855  12.246
 9985SOL     OW31787  12.837   0.252   0.572
 9985SOL    HW131788  12.886   0.173   0.594
 9985SOL    HW231789  12.834   0.302   0.653
 9986SOL     OW31790  11.293   2.379   9.291
 9986SOL    HW131791  11.214   2.367   9.345
 9986SOL    HW231792  11.340   2.296   9.299
 9987SOL     OW31793  10.068   1.603  11.513
 9987SOL    HW131794  10.074   1.549  11.434
 9987SOL    HW231795  10.128   1.676  11.497
 9988SOL     OW31796   9.414   6.769   7.975
 9988SOL    HW131797   9.426   6.711   7.900
 9988SOL    HW231798   9.493   6.758   8.027
 9989SOL     OW31799   0.891   5.443   3.757
 9989SOL    HW131800   0.846   5.359   3.744
 9989SOL    HW231801   0.871   5.467   3.847
 9990SOL     OW31802   6.924   1.242   8.733
 9990SOL    HW131803   6.947   1.208   8.820
 9990SOL    HW231804   6.829   1.248   8.734
 9991SOL     OW31805  11.277   1.479   1.061
 9991SOL    HW131806  11.255   1.432   1.142
 9991SOL    HW231807  11.366   1.452   1.040
 9992SOL     OW31808  12.287   7.044  12.382
 9992SOL    HW131809  12.368   7.085  12.413
 9992SOL    HW231810  12.242   7.114  12.335
 9993SOL     OW31811  10.186   8.767   9.623
 9993SOL    HW131812  10.102   8.736   9.656
 9993SOL    HW231813  10.165   8.849   9.577
 9994SOL     OW31814   2.739  11.073   6.129
 9994SOL    HW131815   2.833  11.081   6.116
 9994SOL    HW231816   2.728  11.057   6.223
 9995SOL     OW31817   6.085   8.716  14.860
 9995SOL    HW131818   6.045   8.791  14.818
 9995SOL    HW231819   6.082   8.736   0.081
 9996SOL     OW31820   5.706  11.966  11.642
 9996SOL    HW131821   5.783  12.012  11.608
 9996SOL    HW231822   5.734  11.930  11.726
 9997SOL     OW31823   2.340   2.444  10.452
 9997SOL    HW131824   2.282   2.368  10.449
 9997SOL    HW231825   2.413   2.421  10.394
 9998SOL     OW31826  13.411   0.487   2.714
 9998SOL    HW131827  13.334   0.531   2.678
 9998SOL    HW231828  13.447   0.438   2.641
 9999SOL     OW31829  12.654   2.308   5.356
 9999SOL    HW131830  12.709   2.255   5.299
 9999SOL    HW231831  12.632   2.249   5.429
10000SOL     OW31832   8.465  12.509  12.862
10000SOL    HW131833   8.476  12.440  12.796
10000SOL    HW231834   8.469  12.590  12.813
10001SOL     OW31835   0.069   9.326   5.956
10001SOL    HW131836   0.126   9.250   5.969
10001SOL    HW231837   0.024   9.337   6.039
10002SOL     OW31838  13.756  12.401   2.703
10002SOL    HW131839  13.691  12.338   2.673
10002SOL    HW231840  13.708  12.484   2.709
10003SOL     OW31841  10.993   5.153  13.784
10003SOL    HW131842  10.969   5.068  13.746
10003SOL    HW231843  11.086   5.144  13.805
10004SOL     OW31844  11.621   7.476  10.426
10004SOL    HW131845  11.624   7.518  10.512
10004SOL    HW231846  11.671   7.395  10.437
10005SOL     OW31847   8.470  12.391   3.641
10005SOL    HW131848   8.399  12.453   3.660
10005SOL    HW231849   8.535  12.409   3.708
10006SOL     OW31850   2.099   1.907  13.193
10006SOL    HW131851   2.021   1.886  13.141
10006SOL    HW231852   2.065   1.957  13.267
10007SOL     OW31853   0.351   0.246   2.009
10007SOL    HW131854   0.372   0.338   2.024
10007SOL    HW231855   0.436   0.203   2.004
10008SOL     OW31856   0.139   1.772  14.148
10008SOL    HW131857   0.125   1.851  14.201
10008SOL    HW231858   0.058   1.763  14.097
10009SOL     OW31859  10.545   4.263   8.458
10009SOL    HW131860  10.457   4.293   8.434
10009SOL    HW231861  10.587   4.241   8.375
10010SOL     OW31862  14.350   6.349  10.335
10010SOL    HW131863  14.437   6.363  10.374
10010SOL    HW231864  14.346   6.412  10.264
10011SOL     OW31865   2.946   5.513  12.843
10011SOL    HW131866   2.979   5.429  12.813
10011SOL    HW231867   2.972   5.517  12.935
10012SOL     OW31868   4.976   9.971   8.408
10012SOL    HW131869   5.041   9.901   8.412
10012SOL    HW231870   4.955   9.991   8.499
10013SOL     OW31871  12.338   2.129   8.084
10013SOL    HW131872  12.354   2.059   8.021
10013SOL    HW231873  12.403   2.116   8.152
10014SOL     OW31874  11.705   5.341   6.134
10014SOL    HW131875  11.650   5.263   6.148
10014SOL    HW231876  11.704   5.386   6.218
10015SOL     OW31877  14.486  12.251   0.384
10015SOL    HW131878  14.399  12.290   0.373
10015SOL    HW231879  14.529  12.261   0.300
10016SOL     OW31880  14.761   8.831   7.249
10016SOL    HW131881  14.689   8.884   7.282
10016SOL    HW231882  14.824   8.894   7.215
10017SOL     OW31883   1.628   3.154   5.104
10017SOL    HW131884   1.567   3.226   5.086
10017SOL    HW231885   1.573   3.083   5.135
10018SOL     OW31886   9.350   7.762   2.641
10018SOL    HW131887   9.415   7.735   2.577
10018SOL    HW231888   9.391   7.747   2.726
10019SOL     OW31889  13.748  12.892   1.439
10019SOL    HW131890  13.653  12.906   1.442
10019SOL    HW231891  13.769  12.856   1.525
10020SOL     OW31892   9.404  13.900   9.146
10020SOL    HW131893   9.357  13.817   9.155
10020SOL    HW231894   9.461  13.905   9.223
10021SOL     OW31895   6.767   0.421   1.058
10021SOL    HW131896   6.736   0.484   1.123
10021SOL    HW231897   6.782   0.341   1.108
10022SOL     OW31898   2.508   1.736  11.755
10022SOL    HW131899   2.528   1.763  11.665
10022SOL    HW231900   2.529   1.643  11.757
10023SOL     OW31901   3.655   7.407   6.997
10023SOL    HW131902   3.670   7.313   6.998
10023SOL    HW231903   3.741   7.445   6.983
10024SOL     OW31904  13.291   3.573  14.423
10024SOL    HW131905  13.225   3.614  14.367
10024SOL    HW231906  13.247   3.495  14.459
10025SOL     OW31907  14.374   9.186   8.759
10025SOL    HW131908  14.431   9.229   8.695
10025SOL    HW231909  14.411   9.210   8.844
10026SOL     OW31910   0.405   9.674  14.749
10026SOL    HW131911   0.474   9.652  14.812
10026SOL    HW231912   0.355   9.594  14.738
10027SOL     OW31913   5.322   1.584   0.985
10027SOL    HW131914   5.318   1.502   1.034
10027SOL    HW231915   5.236   1.625   0.998
10028SOL     OW31916   2.861  11.688   5.943
10028SOL    HW131917   2.796  11.635   5.898
10028SOL    HW231918   2.930  11.702   5.878
10029SOL     OW31919   9.145   7.343   2.343
10029SOL    HW131920   9.172   7.430   2.373
10029SOL    HW231921   9.156   7.287   2.420
10030SOL     OW31922   4.741  10.674   2.747
10030SOL    HW131923   4.718  10.593   2.792
10030SOL    HW231924   4.748  10.739   2.817
10031SOL     OW31925   0.796   3.623  13.391
10031SOL    HW131926   0.702   3.625  13.378
10031SOL    HW231927   0.809   3.666  13.476
10032SOL     OW31928   1.072   3.244  14.736
10032SOL    HW131929   1.067   3.184  14.809
10032SOL    HW231930   1.092   3.329  14.776
10033SOL     OW31931  14.251   4.148   1.752
10033SOL    HW131932  14.272   4.193   1.670
10033SOL    HW231933  14.218   4.217   1.810
10034SOL     OW31934   6.442   9.695   4.552
10034SOL    HW131935   6.358   9.665   4.516
10034SOL    HW231936   6.418   9.757   4.621
10035SOL     OW31937   4.401   7.623   4.141
10035SOL    HW131938   4.433   7.633   4.051
10035SOL    HW231939   4.430   7.535   4.167
10036SOL     OW31940  13.133   7.074  13.688
10036SOL    HW131941  13.165   7.098  13.601
10036SOL    HW231942  13.193   7.006  13.718
10037SOL     OW31943   1.924   9.649  14.306
10037SOL    HW131944   1.836   9.618  14.283
10037SOL    HW231945   1.915   9.683  14.395
10038SOL     OW31946  13.016  10.612   6.492
10038SOL    HW131947  13.014  10.688   6.550
10038SOL    HW231948  12.927  10.577   6.497
10039SOL     OW31949   8.323  14.644  10.741
10039SOL    HW131950   8.329  14.586  10.817
10039SOL    HW231951   8.375  14.600  10.673
10040SOL     OW31952   6.312  10.749   2.004
10040SOL    HW131953   6.253  10.688   2.050
10040SOL    HW231954   6.279  10.836   2.027
10041SOL     OW31955   4.696   6.182   3.519
10041SOL    HW131956   4.624   6.209   3.463
10041SOL    HW231957   4.660   6.110   3.571
10042SOL     OW31958   0.194   8.821   6.575
10042SOL    HW131959   0.286   8.830   6.597
10042SOL    HW231960   0.166   8.910   6.551
10043SOL     OW31961  10.579   0.222   0.720
10043SOL    HW131962  10.654   0.277   0.740
10043SOL    HW231963  10.582   0.211   0.625
10044SOL     OW31964   7.286   8.115  12.425
10044SOL    HW131965   7.343   8.184  12.460
10044SOL    HW231966   7.312   8.037  12.474
10045SOL     OW31967   2.214   3.443   6.749
10045SOL    HW131968   2.163   3.425   6.828
10045SOL    HW231969   2.293   3.488   6.780
10046SOL     OW31970   1.683  13.780   7.163
10046SOL    HW131971   1.712  13.786   7.072
10046SOL    HW231972   1.588  13.787   7.158
10047SOL     OW31973   8.415  13.679   2.489
10047SOL    HW131974   8.440  13.646   2.402
10047SOL    HW231975   8.348  13.745   2.471
10048SOL     OW31976   2.415   2.272   6.510
10048SOL    HW131977   2.499   2.238   6.479
10048SOL    HW231978   2.428   2.367   6.516
10049SOL     OW31979   7.223   9.235   4.755
10049SOL    HW131980   7.228   9.144   4.727
10049SOL    HW231981   7.209   9.284   4.674
10050SOL     OW31982   5.840   8.351   6.657
10050SOL    HW131983   5.804   8.395   6.734
10050SOL    HW231984   5.767   8.301   6.621
10051SOL     OW31985   2.705  13.628  10.059
10051SOL    HW131986   2.796  13.615  10.033
10051SOL    HW231987   2.701  13.717  10.093
10052SOL     OW31988   1.543  13.033   8.442
10052SOL    HW131989   1.526  13.117   8.398
10052SOL    HW231990   1.638  13.021   8.435
10053SOL     OW31991   6.498   5.555   8.886
10053SOL    HW131992   6.441   5.513   8.950
10053SOL    HW231993   6.444   5.622   8.844
10054SOL     OW31994   3.563  10.895  11.482
10054SOL    HW131995   3.559  10.979  11.527
10054SOL    HW231996   3.593  10.833  11.548
10055SOL     OW31997   2.241  11.353   8.871
10055SOL    HW131998   2.146  11.351   8.865
10055SOL    HW231999   2.262  11.443   8.895
10056SOL     OW32000   3.768   1.183  12.842
10056SOL    HW132001   3.707   1.256  12.852
10056SOL    HW232002   3.833   1.214  12.779
10057SOL     OW32003   5.167   8.534  12.853
10057SOL    HW132004   5.109   8.471  12.896
10057SOL    HW232005   5.176   8.605  12.916
10058SOL     OW32006  13.352   4.750   5.215
10058SOL    HW132007  13.384   4.724   5.302
10058SOL    HW232008  13.430   4.785   5.171
10059SOL     OW32009   1.209  14.710   9.319
10059SOL    HW132010   1.154  14.636   9.342
10059SOL    HW232011   1.193  14.774   9.389
10060SOL     OW32012   1.267   6.139  12.527
10060SOL    HW132013   1.244   6.111  12.438
10060SOL    HW232014   1.312   6.222  12.515
10061SOL     OW32015   2.421   9.041  14.479
10061SOL    HW132016   2.483   9.109  14.452
10061SOL    HW232017   2.364   9.084  14.542
10062SOL     OW32018   6.387   3.297   9.012
10062SOL    HW132019   6.352   3.336   9.093
10062SOL    HW232020   6.316   3.306   8.949
10063SOL     OW32021  11.844   2.883   6.882
10063SOL    HW132022  11.831   2.845   6.795
10063SOL    HW232023  11.900   2.960   6.866
10064SOL     OW32024  10.174  11.680  14.251
10064SOL    HW132025  10.258  11.635  14.248
10064SOL    HW232026  10.117  11.622  14.303
10065SOL     OW32027   8.336   6.179   9.435
10065SOL    HW132028   8.277   6.252   9.413
10065SOL    HW232029   8.292   6.134   9.507
10066SOL     OW32030   6.516   9.413   8.498
10066SOL    HW132031   6.533   9.495   8.544
10066SOL    HW232032   6.464   9.439   8.422
10067SOL     OW32033   3.419   5.532   1.655
10067SOL    HW132034   3.324   5.541   1.650
10067SOL    HW232035   3.434   5.478   1.733
10068SOL     OW32036   8.849   6.247   2.362
10068SOL    HW132037   8.883   6.161   2.338
10068SOL    HW232038   8.859   6.251   2.457
10069SOL     OW32039  12.752   4.824   6.048
10069SOL    HW132040  12.703   4.742   6.048
10069SOL    HW232041  12.737   4.861   5.961
10070SOL     OW32042   6.640   6.238   4.655
10070SOL    HW132043   6.701   6.283   4.713
10070SOL    HW232044   6.695   6.177   4.605
10071SOL     OW32045   5.646   7.040   0.360
10071SOL    HW132046   5.583   7.089   0.306
10071SOL    HW232047   5.685   6.977   0.300
10072SOL     OW32048   1.536   6.841   5.172
10072SOL    HW132049   1.446   6.875   5.177
10072SOL    HW232050   1.583   6.905   5.119
10073SOL     OW32051   5.799   6.076  14.474
10073SOL    HW132052   5.884   6.120  14.479
10073SOL    HW232053   5.760   6.107  14.393
10074SOL     OW32054   0.292  12.002   6.933
10074SOL    HW132055   0.242  12.026   6.855
10074SOL    HW232056   0.259  11.915   6.957
10075SOL     OW32057   9.697   8.223   8.140
10075SOL    HW132058   9.714   8.317   8.153
10075SOL    HW232059   9.672   8.192   8.227
10076SOL     OW32060   9.994   2.617   0.046
10076SOL    HW132061   9.977   2.526   0.023
10076SOL    HW232062  10.085   2.617   0.077
10077SOL     OW32063   1.659  13.149  10.784
10077SOL    HW132064   1.677  13.238  10.754
10077SOL    HW232065   1.594  13.116  10.721
10078SOL     OW32066  11.479  12.563   1.109
10078SOL    HW132067  11.397  12.514   1.099
10078SOL    HW232068  11.453  12.647   1.145
10079SOL     OW32069  12.475  14.675  14.552
10079SOL    HW132070  12.512  14.596  14.513
10079SOL    HW232071  12.550  14.727  14.580
10080SOL     OW32072   1.654   2.097   7.478
10080SOL    HW132073   1.674   2.140   7.395
10080SOL    HW232074   1.648   2.004   7.456
10081SOL     OW32075  10.391  14.615   9.796
10081SOL    HW132076  10.443  14.650   9.868
10081SOL    HW232077  10.455  14.576   9.737
10082SOL     OW32078  14.109  14.433  10.183
10082SOL    HW132079  14.019  14.456  10.159
10082SOL    HW232080  14.105  14.340  10.205
10083SOL     OW32081  14.693  13.167   8.532
10083SOL    HW132082  14.763  13.132   8.587
10083SOL    HW232083  14.650  13.089   8.495
10084SOL     OW32084   3.029  14.624   6.198
10084SOL    HW132085   2.988  14.563   6.259
10084SOL    HW232086   2.991  14.709   6.221
10085SOL     OW32087   7.930  14.847   6.726
10085SOL    HW132088   7.884  14.806   6.653
10085SOL    HW232089   8.019  14.810   6.722
10086SOL     OW32090   6.003  13.465   9.537
10086SOL    HW132091   5.979  13.480   9.445
10086SOL    HW232092   5.960  13.536   9.585
10087SOL     OW32093  11.641  12.456   1.394
10087SOL    HW132094  11.566  12.489   1.344
10087SOL    HW232095  11.603  12.396   1.457
10088SOL     OW32096   2.030   6.882   8.955
10088SOL    HW132097   2.033   6.868   8.860
10088SOL    HW232098   1.954   6.938   8.969
10089SOL     OW32099  14.318   7.431   1.819
10089SOL    HW132100  14.356   7.518   1.828
10089SOL    HW232101  14.283   7.410   1.906
10090SOL     OW32102   9.338   6.823   8.669
10090SOL    HW132103   9.318   6.731   8.652
10090SOL    HW232104   9.349   6.828   8.764
10091SOL     OW32105   4.533   9.722   0.515
10091SOL    HW132106   4.572   9.688   0.435
10091SOL    HW232107   4.438   9.714   0.501
10092SOL     OW32108   1.939   1.977   6.859
10092SOL    HW132109   1.927   1.936   6.945
10092SOL    HW232110   1.930   2.071   6.876
10093SOL     OW32111  14.607   9.450   9.412
10093SOL    HW132112  14.672   9.482   9.475
10093SOL    HW232113  14.633   9.488   9.329
10094SOL     OW32114   6.647  14.804   7.684
10094SOL    HW132115   6.590  14.797   7.606
10094SOL    HW232116   6.705   0.004   7.664
10095SOL     OW32117  14.547   9.104   7.492
10095SOL    HW132118  14.549   9.196   7.516
10095SOL    HW232119  14.532   9.104   7.398
10096SOL     OW32120   7.205   7.615  11.939
10096SOL    HW132121   7.207   7.603  11.844
10096SOL    HW232122   7.297   7.621  11.964
10097SOL     OW32123   1.357   3.396  12.735
10097SOL    HW132124   1.277   3.450  12.736
10097SOL    HW232125   1.428   3.460  12.733
10098SOL     OW32126  10.201   2.836   4.216
10098SOL    HW132127  10.254   2.866   4.290
10098SOL    HW232128  10.181   2.915   4.167
10099SOL     OW32129   0.354   4.837   5.512
10099SOL    HW132130   0.436   4.797   5.484
10099SOL    HW232131   0.286   4.786   5.467
10100SOL     OW32132   5.452   5.628   3.666
10100SOL    HW132133   5.461   5.678   3.584
10100SOL    HW232134   5.373   5.664   3.707
10101SOL     OW32135  14.862   6.447   4.104
10101SOL    HW132136   0.004   6.412   4.016
10101SOL    HW232137  14.855   6.542   4.091
10102SOL     OW32138   0.018   1.290   5.348
10102SOL    HW132139  14.830   1.216   5.347
10102SOL    HW232140   0.023   1.318   5.256
10103SOL     OW32141  13.819  10.996   0.971
10103SOL    HW132142  13.842  11.088   0.985
10103SOL    HW232143  13.728  10.989   1.002
10104SOL     OW32144   7.833   5.834   7.430
10104SOL    HW132145   7.791   5.919   7.438
10104SOL    HW232146   7.922   5.853   7.400
10105SOL     OW32147  11.546  11.067   4.224
10105SOL    HW132148  11.469  11.073   4.167
10105SOL    HW232149  11.524  10.998   4.287
10106SOL     OW32150  14.766   8.884   9.199
10106SOL    HW132151  14.858   8.870   9.220
10106SOL    HW232152  14.719   8.818   9.250
10107SOL     OW32153  13.299   7.194   7.594
10107SOL    HW132154  13.276   7.251   7.668
10107SOL    HW232155  13.215   7.173   7.554
10108SOL     OW32156  14.512   0.767   0.697
10108SOL    HW132157  14.432   0.819   0.692
10108SOL    HW232158  14.533   0.765   0.791
10109SOL     OW32159   7.692  10.930  14.446
10109SOL    HW132160   7.723  10.910  14.358
10109SOL    HW232161   7.769  10.965  14.491
10110SOL     OW32162   0.871   7.760   2.511
10110SOL    HW132163   0.923   7.781   2.433
10110SOL    HW232164   0.892   7.668   2.530
10111SOL     OW32165   7.453  13.982  11.205
10111SOL    HW132166   7.449  14.067  11.249
10111SOL    HW232167   7.488  13.922  11.270
10112SOL     OW32168  10.957  12.829  14.221
10112SOL    HW132169  10.974  12.742  14.183
10112SOL    HW232170  10.862  12.841  14.212
10113SOL     OW32171   2.520   0.682   1.119
10113SOL    HW132172   2.452   0.745   1.093
10113SOL    HW232173   2.581   0.734   1.172
10114SOL     OW32174   2.941   9.120  13.432
10114SOL    HW132175   3.020   9.086  13.388
10114SOL    HW232176   2.922   9.055  13.499
10115SOL     OW32177  12.005   2.033   8.834
10115SOL    HW132178  12.012   2.080   8.751
10115SOL    HW232179  11.915   1.999   8.835
10116SOL     OW32180   2.258   5.935   9.303
10116SOL    HW132181   2.193   5.891   9.358
10116SOL    HW232182   2.327   5.962   9.364
10117SOL     OW32183  12.942   7.743  10.069
10117SOL    HW132184  12.877   7.734  10.139
10117SOL    HW232185  12.996   7.665  10.076
10118SOL     OW32186   4.824  10.625  10.765
10118SOL    HW132187   4.903  10.673  10.742
10118SOL    HW232188   4.756  10.663  10.710
10119SOL     OW32189  11.310   8.104  14.666
10119SOL    HW132190  11.355   8.022  14.689
10119SOL    HW232191  11.319   8.158  14.745
10120SOL     OW32192   5.983   7.703  12.746
10120SOL    HW132193   6.004   7.796  12.750
10120SOL    HW232194   6.068   7.659  12.756
10121SOL     OW32195   0.927   4.183   7.413
10121SOL    HW132196   0.852   4.242   7.419
10121SOL    HW232197   0.946   4.178   7.320
10122SOL     OW32198   5.491  10.310   0.964
10122SOL    HW132199   5.429  10.383   0.968
10122SOL    HW232200   5.577  10.352   0.963
10123SOL     OW32201   2.666   4.665   5.993
10123SOL    HW132202   2.676   4.570   5.980
10123SOL    HW232203   2.572   4.677   6.009
10124SOL     OW32204  12.134  11.665  10.831
10124SOL    HW132205  12.125  11.675  10.736
10124SOL    HW232206  12.081  11.588  10.852
10125SOL     OW32207  11.519  12.840  12.207
10125SOL    HW132208  11.440  12.893  12.196
10125SOL    HW232209  11.530  12.832  12.302
10126SOL     OW32210   3.350   4.547   0.736
10126SOL    HW132211   3.435   4.544   0.693
10126SOL    HW232212   3.301   4.474   0.698
10127SOL     OW32213  13.811   0.442   2.901
10127SOL    HW132214  13.780   0.388   2.828
10127SOL    HW232215  13.771   0.528   2.886
10128SOL     OW32216   4.920  13.044   3.781
10128SOL    HW132217   4.915  13.139   3.794
10128SOL    HW232218   4.980  13.033   3.708
10129SOL     OW32219   3.083   4.300   0.402
10129SOL    HW132220   3.015   4.240   0.431
10129SOL    HW232221   3.114   4.263   0.319
10130SOL     OW32222  12.703   9.039   8.436
10130SOL    HW132223  12.752   9.077   8.363
10130SOL    HW232224  12.611   9.058   8.416
10131SOL     OW32225   0.619  11.276  10.203
10131SOL    HW132226   0.529  11.285  10.172
10131SOL    HW232227   0.668  11.341  10.153
10132SOL     OW32228   0.941   2.563  10.244
10132SOL    HW132229   0.990   2.627  10.192
10132SOL    HW232230   0.929   2.489  10.184
10133SOL     OW32231   6.065   5.718  12.038
10133SOL    HW132232   6.124   5.768  12.095
10133SOL    HW232233   6.031   5.782  11.976
10134SOL     OW32234   1.875  10.130  12.648
10134SOL    HW132235   1.786  10.156  12.623
10134SOL    HW232236   1.879  10.147  12.743
10135SOL     OW32237  10.728  10.831   2.644
10135SOL    HW132238  10.665  10.893   2.609
10135SOL    HW232239  10.813  10.859   2.609
10136SOL     OW32240   8.552   3.668  13.506
10136SOL    HW132241   8.456   3.674  13.503
10136SOL    HW232242   8.571   3.634  13.593
10137SOL     OW32243  11.867  10.660   0.945
10137SOL    HW132244  11.853  10.753   0.966
10137SOL    HW232245  11.795  10.615   0.990
10138SOL     OW32246   1.649   2.672   7.553
10138SOL    HW132247   1.575   2.684   7.493
10138SOL    HW232248   1.684   2.761   7.564
10139SOL     OW32249   0.645   5.211   6.892
10139SOL    HW132250   0.735   5.225   6.866
10139SOL    HW232251   0.622   5.287   6.945
10140SOL     OW32252   6.980   6.632  13.498
10140SOL    HW132253   6.896   6.649  13.540
10140SOL    HW232254   6.970   6.545  13.459
10141SOL     OW32255  12.269  12.573  14.819
10141SOL    HW132256  12.249  12.632  14.747
10141SOL    HW232257  12.365  12.570  14.822
10142SOL     OW32258   1.050  13.691   8.091
10142SOL    HW132259   0.959  13.682   8.119
10142SOL    HW232260   1.048  13.671   7.997
10143SOL     OW32261   7.853   8.872   8.438
10143SOL    HW132262   7.865   8.783   8.405
10143SOL    HW232263   7.905   8.875   8.518
10144SOL     OW32264  12.677   9.053   0.171
10144SOL    HW132265  12.618   9.103   0.227
10144SOL    HW232266  12.752   9.033   0.227
10145SOL     OW32267   1.442   1.453   7.247
10145SOL    HW132268   1.454   1.414   7.160
10145SOL    HW232269   1.397   1.536   7.230
10146SOL     OW32270   2.419   0.824  12.402
10146SOL    HW132271   2.395   0.900  12.349
10146SOL    HW232272   2.403   0.851  12.492
10147SOL     OW32273  14.853   3.204   3.468
10147SOL    HW132274  14.759   3.191   3.457
10147SOL    HW232275   0.020   3.142   3.407
10148SOL     OW32276   0.871   8.699   8.967
10148SOL    HW132277   0.912   8.686   9.053
10148SOL    HW232278   0.931   8.656   8.905
10149SOL     OW32279  12.991   0.550   8.973
10149SOL    HW132280  12.936   0.628   8.964
10149SOL    HW232281  13.077   0.578   8.943
10150SOL     OW32282   8.702  10.040  14.549
10150SOL    HW132283   8.632   9.978  14.568
10150SOL    HW232284   8.658  10.113  14.505
10151SOL     OW32285  14.872  14.529  10.148
10151SOL    HW132286  14.819  14.494  10.219
10151SOL    HW232287  14.817  14.595  10.106
10152SOL     OW32288   1.566   2.237  11.609
10152SOL    HW132289   1.553   2.175  11.537
10152SOL    HW232290   1.646   2.208  11.651
10153SOL     OW32291   6.682   8.439   2.198
10153SOL    HW132292   6.752   8.503   2.211
10153SOL    HW232293   6.716   8.358   2.235
10154SOL     OW32294   2.675   0.884   1.325
10154SOL    HW132295   2.737   0.912   1.393
10154SOL    HW232296   2.696   0.940   1.250
10155SOL     OW32297   6.249   7.968   1.584
10155SOL    HW132298   6.157   7.964   1.560
10155SOL    HW232299   6.262   7.896   1.645
10156SOL     OW32300   6.054   9.594   2.004
10156SOL    HW132301   5.974   9.545   1.984
10156SOL    HW232302   6.120   9.555   1.946
10157SOL     OW32303  13.257   1.264   3.689
10157SOL    HW132304  13.292   1.182   3.653
10157SOL    HW232305  13.193   1.235   3.754
10158SOL     OW32306  10.133   8.921   2.238
10158SOL    HW132307  10.190   8.849   2.265
10158SOL    HW232308  10.172   8.954   2.157
10159SOL     OW32309   8.315  10.570   7.353
10159SOL    HW132310   8.362  10.652   7.340
10159SOL    HW232311   8.368  10.504   7.309
10160SOL     OW32312  13.502   4.627   4.920
10160SOL    HW132313  13.545   4.629   5.005
10160SOL    HW232314  13.464   4.539   4.914
10161SOL     OW32315   6.031   0.993   1.732
10161SOL    HW132316   6.000   1.081   1.753
10161SOL    HW232317   6.058   0.956   1.816
10162SOL     OW32318  14.014   6.515   0.208
10162SOL    HW132319  14.064   6.454   0.152
10162SOL    HW232320  14.081   6.572   0.246
10163SOL     OW32321  13.894   9.782  13.178
10163SOL    HW132322  13.866   9.700  13.137
10163SOL    HW232323  13.928   9.834  13.106
10164SOL     OW32324   4.844   3.711   1.898
10164SOL    HW132325   4.805   3.641   1.950
10164SOL    HW232326   4.817   3.691   1.808
10165SOL     OW32327  14.864  11.797   7.093
10165SOL    HW132328  14.855  11.757   7.179
10165SOL    HW232329  14.783  11.775   7.047
10166SOL     OW32330  10.882   7.309  11.649
10166SOL    HW132331  10.815   7.353  11.596
10166SOL    HW232332  10.957   7.302  11.591
10167SOL     OW32333   5.271   3.166   1.987
10167SOL    HW132334   5.317   3.222   2.049
10167SOL    HW232335   5.186   3.209   1.974
10168SOL     OW32336  10.296  13.478   0.238
10168SOL    HW132337  10.391  13.478   0.251
10168SOL    HW232338  10.283  13.511   0.149
10169SOL     OW32339  11.756  12.700  12.544
10169SOL    HW132340  11.734  12.624  12.597
10169SOL    HW232341  11.824  12.745  12.594
10170SOL     OW32342  13.661  10.203   3.506
10170SOL    HW132343  13.598  10.267   3.538
10170SOL    HW232344  13.655  10.209   3.411
10171SOL     OW32345   2.076  14.133   4.220
10171SOL    HW132346   2.093  14.067   4.288
10171SOL    HW232347   2.065  14.215   4.268
10172SOL     OW32348   2.423   2.878  12.688
10172SOL    HW132349   2.513   2.897  12.714
10172SOL    HW232350   2.378   2.961  12.697
10173SOL     OW32351   4.831   6.375  11.245
10173SOL    HW132352   4.753   6.336  11.284
10173SOL    HW232353   4.812   6.379  11.151
10174SOL     OW32354   6.815  10.976   4.731
10174SOL    HW132355   6.887  10.926   4.771
10174SOL    HW232356   6.737  10.945   4.777
10175SOL     OW32357  12.349   1.646   8.897
10175SOL    HW132358  12.358   1.710   8.967
10175SOL    HW232359  12.428   1.592   8.903
10176SOL     OW32360   0.410   1.256   9.528
10176SOL    HW132361   0.388   1.191   9.594
10176SOL    HW232362   0.417   1.206   9.446
10177SOL     OW32363   3.977   9.741  12.082
10177SOL    HW132364   3.935   9.714  12.163
10177SOL    HW232365   4.071   9.733  12.100
10178SOL     OW32366  10.278   7.641   6.903
10178SOL    HW132367  10.258   7.692   6.982
10178SOL    HW232368  10.205   7.659   6.844
10179SOL     OW32369   2.756   2.539   0.067
10179SOL    HW132370   2.699   2.611   0.039
10179SOL    HW232371   2.780   2.495  14.859
10180SOL     OW32372   9.088  14.024   7.520
10180SOL    HW132373   9.105  13.937   7.483
10180SOL    HW232374   9.152  14.081   7.478
10181SOL     OW32375  14.377   1.212  10.642
10181SOL    HW132376  14.398   1.165  10.562
10181SOL    HW232377  14.420   1.163  10.712
10182SOL     OW32378   7.389   5.242   3.737
10182SOL    HW132379   7.426   5.275   3.656
10182SOL    HW232380   7.316   5.185   3.709
10183SOL     OW32381   3.730   3.217  11.179
10183SOL    HW132382   3.745   3.311  11.185
10183SOL    HW232383   3.811   3.177  11.210
10184SOL     OW32384   9.522  14.560   1.662
10184SOL    HW132385   9.581  14.630   1.690
10184SOL    HW232386   9.572  14.513   1.595
10185SOL     OW32387   8.529   6.281  10.606
10185SOL    HW132388   8.475   6.222  10.553
10185SOL    HW232389   8.468   6.347  10.639
10186SOL     OW32390   0.317   6.721  13.011
10186SOL    HW132391   0.323   6.629  13.038
10186SOL    HW232392   0.408   6.748  12.999
10187SOL     OW32393   1.940  10.160   9.697
10187SOL    HW132394   1.949  10.220   9.771
10187SOL    HW232395   1.869  10.198   9.644
10188SOL     OW32396   8.232   1.765  13.630
10188SOL    HW132397   8.148   1.766  13.584
10188SOL    HW232398   8.285   1.704  13.580
10189SOL     OW32399   2.411   5.892   2.718
10189SOL    HW132400   2.356   5.965   2.747
10189SOL    HW232401   2.356   5.814   2.730
10190SOL     OW32402   9.524   2.757   1.447
10190SOL    HW132403   9.579   2.679   1.451
10190SOL    HW232404   9.575   2.825   1.491
10191SOL     OW32405   0.054   7.625   4.317
10191SOL    HW132406   0.136   7.613   4.365
10191SOL    HW232407   0.078   7.674   4.239
10192SOL     OW32408   1.552  13.318  13.948
10192SOL    HW132409   1.464  13.347  13.971
10192SOL    HW232410   1.549  13.223  13.954
10193SOL     OW32411  12.917   5.741   3.765
10193SOL    HW132412  12.877   5.824   3.789
10193SOL    HW232413  13.011   5.755   3.775
10194SOL     OW32414   7.403  14.094   0.071
10194SOL    HW132415   7.312  14.066   0.079
10194SOL    HW232416   7.403  14.154  14.869
10195SOL     OW32417   2.076  11.427   4.019
10195SOL    HW132418   2.063  11.487   4.093
10195SOL    HW232419   1.998  11.439   3.965
10196SOL     OW32420  10.230   6.926  11.228
10196SOL    HW132421  10.311   6.876  11.239
10196SOL    HW232422  10.216   6.928  11.134
10197SOL     OW32423   0.253   9.728  12.928
10197SOL    HW132424   0.172   9.732  12.980
10197SOL    HW232425   0.304   9.804  12.957
10198SOL     OW32426   3.412   6.498  14.437
10198SOL    HW132427   3.443   6.589  14.431
10198SOL    HW232428   3.317   6.507  14.447
10199SOL     OW32429   5.779   7.571   6.679
10199SOL    HW132430   5.766   7.490   6.630
10199SOL    HW232431   5.738   7.638   6.624
10200SOL     OW32432  10.933   6.507   7.603
10200SOL    HW132433  11.023   6.538   7.591
10200SOL    HW232434  10.916   6.453   7.526
10201SOL     OW32435   5.526   5.195   1.952
10201SOL    HW132436   5.453   5.134   1.958
10201SOL    HW232437   5.503   5.267   2.011
10202SOL     OW32438  13.918   1.032   1.060
10202SOL    HW132439  13.824   1.050   1.065
10202SOL    HW232440  13.958   1.112   1.095
10203SOL     OW32441   4.537  14.847  13.705
10203SOL    HW132442   4.449   0.004  13.729
10203SOL    HW232443   4.554   0.015  13.620
10204SOL     OW32444   3.504   3.080   3.484
10204SOL    HW132445   3.474   3.099   3.395
10204SOL    HW232446   3.600   3.075   3.477
10205SOL     OW32447   8.498   6.220   0.520
10205SOL    HW132448   8.577   6.256   0.560
10205SOL    HW232449   8.491   6.132   0.556
10206SOL     OW32450  10.525   7.386   0.265
10206SOL    HW132451  10.597   7.330   0.236
10206SOL    HW232452  10.484   7.417   0.184
10207SOL     OW32453  14.609   9.590   9.867
10207SOL    HW132454  14.527   9.595   9.818
10207SOL    HW232455  14.631   9.681   9.887
10208SOL     OW32456  14.251  14.149   8.675
10208SOL    HW132457  14.297  14.208   8.736
10208SOL    HW232458  14.178  14.201   8.642
10209SOL     OW32459   2.237   2.198  10.552
10209SOL    HW132460   2.250   2.105  10.572
10209SOL    HW232461   2.181   2.230  10.623
10210SOL     OW32462  13.274  13.122  11.610
10210SOL    HW132463  13.336  13.185  11.574
10210SOL    HW232464  13.291  13.123  11.704
10211SOL     OW32465   1.338  11.358   5.163
10211SOL    HW132466   1.253  11.369   5.120
10211SOL    HW232467   1.338  11.267   5.193
10212SOL     OW32468   2.433   6.303  12.764
10212SOL    HW132469   2.518   6.267  12.789
10212SOL    HW232470   2.370   6.239  12.796
10213SOL     OW32471   3.624  13.856  11.665
10213SOL    HW132472   3.687  13.795  11.626
10213SOL    HW232473   3.556  13.866  11.598
10214SOL     OW32474   6.477   9.179   1.572
10214SOL    HW132475   6.555   9.206   1.522
10214SOL    HW232476   6.489   9.218   1.658
10215SOL     OW32477   9.779   5.257  12.224
10215SOL    HW132478   9.860   5.214  12.196
10215SOL    HW232479   9.732   5.190  12.274
10216SOL     OW32480   6.010   7.951   9.725
10216SOL    HW132481   5.920   7.921   9.734
10216SOL    HW232482   6.026   8.003   9.803
10217SOL     OW32483   4.746   9.796   7.830
10217SOL    HW132484   4.667   9.741   7.831
10217SOL    HW232485   4.817   9.737   7.853
10218SOL     OW32486   3.173   4.686   0.039
10218SOL    HW132487   3.080   4.678   0.020
10218SOL    HW232488   3.213   4.705  14.827
10219SOL     OW32489   1.884  12.217   2.046
10219SOL    HW132490   1.812  12.245   2.103
10219SOL    HW232491   1.859  12.129   2.017
10220SOL     OW32492  13.605   5.163   0.486
10220SOL    HW132493  13.665   5.235   0.505
10220SOL    HW232494  13.615   5.103   0.560
10221SOL     OW32495   6.873   7.203  12.639
10221SOL    HW132496   6.792   7.176  12.596
10221SOL    HW232497   6.878   7.297  12.623
10222SOL     OW32498   3.717  14.543  14.275
10222SOL    HW132499   3.650  14.475  14.271
10222SOL    HW232500   3.798  14.498  14.251
10223SOL     OW32501   2.149  13.585   8.460
10223SOL    HW132502   2.172  13.615   8.548
10223SOL    HW232503   2.110  13.661   8.418
10224SOL     OW32504  14.783   9.548   3.531
10224SOL    HW132505  14.797   9.638   3.501
10224SOL    HW232506  14.863   9.527   3.579
10225SOL     OW32507   1.273  10.066   3.539
10225SOL    HW132508   1.216  10.005   3.586
10225SOL    HW232509   1.343  10.086   3.601
10226SOL     OW32510  12.445   1.780   3.352
10226SOL    HW132511  12.521   1.787   3.409
10226SOL    HW232512  12.399   1.863   3.362
10227SOL     OW32513   2.016   2.364   4.836
10227SOL    HW132514   1.935   2.403   4.804
10227SOL    HW232515   2.022   2.390   4.928
10228SOL     OW32516   9.954   8.435   4.695
10228SOL    HW132517   9.866   8.470   4.705
10228SOL    HW232518   9.942   8.361   4.635
10229SOL     OW32519   1.354  13.607   7.169
10229SOL    HW132520   1.345  13.702   7.160
10229SOL    HW232521   1.349  13.591   7.263
10230SOL     OW32522   3.417  12.539   0.989
10230SOL    HW132523   3.492  12.498   1.032
10230SOL    HW232524   3.342  12.484   1.014
10231SOL     OW32525   6.542   7.632   1.093
10231SOL    HW132526   6.484   7.697   1.054
10231SOL    HW232527   6.604   7.611   1.023
10232SOL     OW32528   3.622   2.310   8.582
10232SOL    HW132529   3.570   2.243   8.626
10232SOL    HW232530   3.569   2.335   8.506
10233SOL     OW32531   1.440   0.194  10.953
10233SOL    HW132532   1.525   0.203  10.911
10233SOL    HW232533   1.391   0.133  10.897
10234SOL     OW32534  14.700   0.040   6.464
10234SOL    HW132535  14.706   0.125   6.420
10234SOL    HW232536  14.760   0.047   6.538
10235SOL     OW32537   9.437   7.284   7.198
10235SOL    HW132538   9.509   7.251   7.252
10235SOL    HW232539   9.418   7.371   7.234
10236SOL     OW32540  13.850   8.635   9.814
10236SOL    HW132541  13.873   8.631   9.907
10236SOL    HW232542  13.927   8.603   9.768
10237SOL     OW32543   8.601  11.657  10.014
10237SOL    HW132544   8.670  11.615   9.963
10237SOL    HW232545   8.639  11.668  10.101
10238SOL     OW32546   8.264   0.473   7.112
10238SOL    HW132547   8.274   0.378   7.123
10238SOL    HW232548   8.259   0.486   7.017
10239SOL     OW32549   9.727  10.821   7.812
10239SOL    HW132550   9.752  10.748   7.754
10239SOL    HW232551   9.758  10.899   7.766
10240SOL     OW32552  10.091   4.886   4.084
10240SOL    HW132553  10.021   4.837   4.041
10240SOL    HW232554  10.157   4.899   4.015
10241SOL     OW32555   7.206  11.049   9.721
10241SOL    HW132556   7.148  11.111   9.678
10241SOL    HW232557   7.194  11.065   9.815
10242SOL     OW32558  12.288   6.298  11.390
10242SOL    HW132559  12.341   6.220  11.404
10242SOL    HW232560  12.335   6.368  11.436
10243SOL     OW32561   4.319   3.088  10.232
10243SOL    HW132562   4.301   3.040  10.151
10243SOL    HW232563   4.414   3.098  10.233
10244SOL     OW32564  14.557   7.864   4.020
10244SOL    HW132565  14.556   7.777   4.061
10244SOL    HW232566  14.579   7.847   3.929
10245SOL     OW32567   6.195   7.449   2.522
10245SOL    HW132568   6.144   7.489   2.451
10245SOL    HW232569   6.225   7.524   2.574
10246SOL     OW32570   1.253   3.632  12.438
10246SOL    HW132571   1.239   3.685  12.360
10246SOL    HW232572   1.228   3.544  12.412
10247SOL     OW32573   1.822   1.572   1.400
10247SOL    HW132574   1.821   1.487   1.443
10247SOL    HW232575   1.893   1.620   1.442
10248SOL     OW32576  12.898   1.806   8.636
10248SOL    HW132577  12.811   1.836   8.660
10248SOL    HW232578  12.958   1.869   8.677
10249SOL     OW32579  14.316  12.146   5.706
10249SOL    HW132580  14.394  12.126   5.654
10249SOL    HW232581  14.276  12.221   5.663
10250SOL     OW32582   8.147   2.718   4.659
10250SOL    HW132583   8.094   2.706   4.738
10250SOL    HW232584   8.167   2.629   4.629
10251SOL     OW32585  10.618   9.322  13.080
10251SOL    HW132586  10.679   9.275  13.138
10251SOL    HW232587  10.631   9.281  12.994
10252SOL     OW32588   5.271   0.855   6.182
10252SOL    HW132589   5.280   0.942   6.221
10252SOL    HW232590   5.217   0.869   6.104
10253SOL     OW32591  10.677   2.069   9.918
10253SOL    HW132592  10.608   2.012   9.951
10253SOL    HW232593  10.758   2.023   9.939
10254SOL     OW32594  13.544  13.797   4.688
10254SOL    HW132595  13.564  13.706   4.666
10254SOL    HW232596  13.468  13.819   4.634
10255SOL     OW32597   1.018  11.447  14.802
10255SOL    HW132598   1.095  11.391  14.812
10255SOL    HW232599   0.955  11.414  14.867
10256SOL     OW32600   8.609   0.149  14.214
10256SOL    HW132601   8.579   0.119  14.129
10256SOL    HW232602   8.696   0.110  14.224
10257SOL     OW32603   3.584   9.125   0.803
10257SOL    HW132604   3.664   9.143   0.852
10257SOL    HW232605   3.615   9.095   0.717
10258SOL     OW32606   9.615   8.065   7.914
10258SOL    HW132607   9.560   8.115   7.854
10258SOL    HW232608   9.644   8.128   7.979
10259SOL     OW32609   5.951   0.442  13.418
10259SOL    HW132610   5.929   0.381  13.347
10259SOL    HW232611   6.047   0.443  13.419
10260SOL     OW32612   2.331   3.851   6.079
10260SOL    HW132613   2.385   3.783   6.117
10260SOL    HW232614   2.250   3.850   6.131
10261SOL     OW32615   5.005   3.898   5.960
10261SOL    HW132616   4.923   3.882   5.913
10261SOL    HW232617   5.065   3.831   5.927
10262SOL     OW32618   7.886   5.503   3.091
10262SOL    HW132619   7.958   5.530   3.035
10262SOL    HW232620   7.848   5.585   3.122
10263SOL     OW32621  12.956   8.403   5.536
10263SOL    HW132622  13.017   8.457   5.485
10263SOL    HW232623  12.983   8.313   5.518
10264SOL     OW32624   7.500   6.686   7.998
10264SOL    HW132625   7.508   6.781   7.992
10264SOL    HW232626   7.578   6.657   8.046
10265SOL     OW32627  13.884   5.690   0.150
10265SOL    HW132628  13.816   5.679   0.217
10265SOL    HW232629  13.966   5.684   0.199
10266SOL     OW32630  11.304   9.061   8.924
10266SOL    HW132631  11.256   9.142   8.946
10266SOL    HW232632  11.239   8.992   8.931
10267SOL     OW32633  13.903  13.358  13.076
10267SOL    HW132634  13.906  13.418  13.001
10267SOL    HW232635  13.956  13.402  13.143
10268SOL     OW32636  14.708   9.639  10.469
10268SOL    HW132637  14.771   9.572  10.496
10268SOL    HW232638  14.687   9.687  10.549
10269SOL     OW32639   9.998   2.188   7.947
10269SOL    HW132640   9.992   2.122   7.878
10269SOL    HW232641  10.089   2.186   7.975
10270SOL     OW32642  12.028   7.575   2.056
10270SOL    HW132643  11.940   7.601   2.083
10270SOL    HW232644  12.026   7.582   1.960
10271SOL     OW32645  14.508  11.301  11.167
10271SOL    HW132646  14.488  11.222  11.117
10271SOL    HW232647  14.569  11.349  11.113
10272SOL     OW32648   6.972  12.717  11.228
10272SOL    HW132649   7.005  12.653  11.165
10272SOL    HW232650   7.033  12.711  11.302
10273SOL     OW32651  11.225  10.409  11.701
10273SOL    HW132652  11.220  10.455  11.617
10273SOL    HW232653  11.305  10.357  11.695
10274SOL     OW32654   9.690   5.876   3.627
10274SOL    HW132655   9.638   5.846   3.702
10274SOL    HW232656   9.634   5.862   3.551
10275SOL     OW32657   0.377  10.852   0.633
10275SOL    HW132658   0.323  10.781   0.597
10275SOL    HW232659   0.446  10.807   0.682
10276SOL     OW32660   8.183   3.521   3.820
10276SOL    HW132661   8.157   3.572   3.897
10276SOL    HW232662   8.232   3.582   3.766
10277SOL     OW32663   0.865  10.358   2.530
10277SOL    HW132664   0.826  10.331   2.613
10277SOL    HW232665   0.953  10.386   2.552
10278SOL     OW32666  14.093   1.533   8.996
10278SOL    HW132667  14.036   1.609   8.993
10278SOL    HW232668  14.149   1.547   9.073
10279SOL     OW32669  10.519   0.465   7.086
10279SOL    HW132670  10.497   0.406   7.014
10279SOL    HW232671  10.442   0.521   7.096
10280SOL     OW32672   5.070  13.239   8.170
10280SOL    HW132673   5.126  13.316   8.175
10280SOL    HW232674   5.128  13.170   8.138
10281SOL     OW32675  13.776  13.452   8.244
10281SOL    HW132676  13.713  13.401   8.295
10281SOL    HW232677  13.806  13.520   8.304
10282SOL     OW32678   2.014   6.422   9.428
10282SOL    HW132679   2.002   6.501   9.375
10282SOL    HW232680   1.997   6.350   9.367
10283SOL     OW32681   2.259   0.842   9.136
10283SOL    HW132682   2.257   0.803   9.048
10283SOL    HW232683   2.337   0.804   9.176
10284SOL     OW32684   4.061  11.524   5.561
10284SOL    HW132685   4.139  11.524   5.615
10284SOL    HW232686   4.094  11.524   5.471
10285SOL     OW32687   9.591   3.817   0.754
10285SOL    HW132688   9.644   3.878   0.806
10285SOL    HW232689   9.518   3.794   0.811
10286SOL     OW32690   7.100   3.977  11.817
10286SOL    HW132691   7.040   4.031  11.766
10286SOL    HW232692   7.063   3.977  11.906
10287SOL     OW32693   9.325   0.673   9.908
10287SOL    HW132694   9.283   0.697   9.990
10287SOL    HW232695   9.309   0.748   9.850
10288SOL     OW32696  14.479   5.901   9.212
10288SOL    HW132697  14.413   5.969   9.225
10288SOL    HW232698  14.546   5.943   9.158
10289SOL     OW32699  14.507   9.653   6.438
10289SOL    HW132700  14.450   9.603   6.379
10289SOL    HW232701  14.593   9.649   6.397
10290SOL     OW32702  10.906   9.605   6.264
10290SOL    HW132703  10.899   9.598   6.169
10290SOL    HW232704  10.823   9.644   6.292
10291SOL     OW32705   5.891   5.860   1.498
10291SOL    HW132706   5.946   5.840   1.574
10291SOL    HW232707   5.949   5.850   1.423
10292SOL     OW32708   8.387  14.394   3.077
10292SOL    HW132709   8.374  14.388   3.172
10292SOL    HW232710   8.299  14.400   3.041
10293SOL     OW32711  12.968   5.729  13.607
10293SOL    HW132712  13.019   5.803  13.642
10293SOL    HW232713  12.981   5.735  13.512
10294SOL     OW32714   8.483  13.737   3.799
10294SOL    HW132715   8.508  13.645   3.810
10294SOL    HW232716   8.562  13.786   3.819
10295SOL     OW32717   5.644  11.752  12.233
10295SOL    HW132718   5.711  11.752  12.301
10295SOL    HW232719   5.661  11.673  12.181
10296SOL     OW32720   8.064  10.947   6.984
10296SOL    HW132721   8.065  10.880   7.053
10296SOL    HW232722   7.982  10.993   6.996
10297SOL     OW32723   6.051   1.209   3.390
10297SOL    HW132724   6.068   1.280   3.453
10297SOL    HW232725   6.106   1.137   3.421
10298SOL     OW32726   6.647   4.148  10.220
10298SOL    HW132727   6.720   4.099  10.258
10298SOL    HW232728   6.604   4.189  10.294
10299SOL     OW32729   3.100   9.943  11.593
10299SOL    HW132730   3.105   9.883  11.667
10299SOL    HW232731   3.188   9.945  11.558
10300SOL     OW32732  13.188   0.709   1.460
10300SOL    HW132733  13.118   0.758   1.504
10300SOL    HW232734  13.221   0.769   1.394
10301SOL     OW32735  13.371  13.038   3.389
10301SOL    HW132736  13.419  13.028   3.471
10301SOL    HW232737  13.433  13.009   3.322
10302SOL     OW32738   3.409   1.424   8.118
10302SOL    HW132739   3.375   1.340   8.150
10302SOL    HW232740   3.331   1.474   8.096
10303SOL     OW32741   7.441   7.547   5.693
10303SOL    HW132742   7.364   7.603   5.700
10303SOL    HW232743   7.506   7.588   5.751
10304SOL     OW32744  10.011   5.760  12.811
10304SOL    HW132745   9.946   5.711  12.762
10304SOL    HW232746   9.983   5.752  12.903
10305SOL     OW32747   4.767   7.917  14.198
10305SOL    HW132748   4.714   7.933  14.119
10305SOL    HW232749   4.703   7.915  14.269
10306SOL     OW32750   5.117   9.587  10.516
10306SOL    HW132751   5.079   9.651  10.455
10306SOL    HW232752   5.175   9.534  10.461
10307SOL     OW32753  11.301   8.941   7.545
10307SOL    HW132754  11.217   8.924   7.588
10307SOL    HW232755  11.358   8.970   7.615
10308SOL     OW32756  10.005   2.067  13.148
10308SOL    HW132757  10.045   1.988  13.111
10308SOL    HW232758   9.956   2.036  13.224
10309SOL     OW32759   9.206  11.107   2.166
10309SOL    HW132760   9.126  11.158   2.173
10309SOL    HW232761   9.196  11.036   2.230
10310SOL     OW32762   8.720   0.061   7.499
10310SOL    HW132763   8.663  14.858   7.481
10310SOL    HW232764   8.663   0.137   7.485
10311SOL     OW32765   4.898  13.449  13.176
10311SOL    HW132766   4.821  13.505  13.164
10311SOL    HW232767   4.950  13.462  13.097
10312SOL     OW32768   2.511   2.149  13.575
10312SOL    HW132769   2.512   2.053  13.573
10312SOL    HW232770   2.540   2.174  13.487
10313SOL     OW32771   4.174  10.349   9.525
10313SOL    HW132772   4.122  10.296   9.584
10313SOL    HW232773   4.110  10.399   9.473
10314SOL     OW32774   8.225   8.500  13.888
10314SOL    HW132775   8.154   8.530  13.830
10314SOL    HW232776   8.234   8.569  13.952
10315SOL     OW32777   1.062   4.859  11.353
10315SOL    HW132778   1.122   4.809  11.408
10315SOL    HW232779   0.977   4.818  11.368
10316SOL     OW32780  13.733  11.159  14.045
10316SOL    HW132781  13.647  11.158  14.003
10316SOL    HW232782  13.795  11.167  13.972
10317SOL     OW32783  11.947  12.965   4.044
10317SOL    HW132784  11.983  13.037   3.992
10317SOL    HW232785  11.916  12.902   3.979
10318SOL     OW32786   3.701  13.113   9.380
10318SOL    HW132787   3.795  13.094   9.384
10318SOL    HW232788   3.659  13.028   9.380
10319SOL     OW32789  11.956   0.555  14.166
10319SOL    HW132790  11.995   0.641  14.152
10319SOL    HW232791  11.945   0.520  14.077
10320SOL     OW32792   4.374   1.160  10.941
10320SOL    HW132793   4.402   1.083  10.893
10320SOL    HW232794   4.333   1.217  10.875
10321SOL     OW32795   3.556  10.905  14.489
10321SOL    HW132796   3.500  10.934  14.561
10321SOL    HW232797   3.618  10.978  14.477
10322SOL     OW32798   3.781  12.886   7.944
10322SOL    HW132799   3.743  12.946   8.009
10322SOL    HW232800   3.755  12.799   7.974
10323SOL     OW32801   8.238   1.711   9.139
10323SOL    HW132802   8.147   1.738   9.123
10323SOL    HW232803   8.281   1.725   9.054
10324SOL     OW32804   4.748   7.102   4.149
10324SOL    HW132805   4.748   7.192   4.180
10324SOL    HW232806   4.770   7.050   4.227
10325SOL     OW32807   8.241   5.622   3.289
10325SOL    HW132808   8.223   5.714   3.273
10325SOL    HW232809   8.277   5.619   3.377
10326SOL     OW32810   6.300   2.764  14.779
10326SOL    HW132811   6.283   2.773  14.685
10326SOL    HW232812   6.222   2.799  14.822
10327SOL     OW32813   1.739   1.876   6.493
10327SOL    HW132814   1.765   1.968   6.500
10327SOL    HW232815   1.815   1.827   6.521
10328SOL     OW32816   5.530  11.195  13.047
10328SOL    HW132817   5.526  11.280  13.089
10328SOL    HW232818   5.538  11.215  12.953
10329SOL     OW32819   8.466  14.047   3.323
10329SOL    HW132820   8.522  14.103   3.269
10329SOL    HW232821   8.401  14.013   3.262
10330SOL     OW32822   5.498   9.646   6.495
10330SOL    HW132823   5.431   9.663   6.561
10330SOL    HW232824   5.473   9.563   6.455
10331SOL     OW32825  13.591   3.216   0.751
10331SOL    HW132826  13.670   3.197   0.801
10331SOL    HW232827  13.614   3.291   0.697
10332SOL     OW32828  10.250  11.494  11.150
10332SOL    HW132829  10.216  11.570  11.103
10332SOL    HW232830  10.239  11.421  11.088
10333SOL     OW32831   4.926   1.006   3.463
10333SOL    HW132832   4.919   1.031   3.371
10333SOL    HW232833   4.882   1.076   3.511
10334SOL     OW32834   3.382   8.252   5.497
10334SOL    HW132835   3.449   8.304   5.542
10334SOL    HW232836   3.430   8.182   5.453
10335SOL     OW32837   7.084   2.947   2.788
10335SOL    HW132838   7.053   3.031   2.820
10335SOL    HW232839   7.005   2.900   2.763
10336SOL     OW32840   7.992   7.418  13.434
10336SOL    HW132841   8.080   7.420  13.397
10336SOL    HW232842   7.944   7.487  13.386
10337SOL     OW32843  11.301   4.586  10.825
10337SOL    HW132844  11.386   4.568  10.866
10337SOL    HW232845  11.249   4.508  10.843
10338SOL     OW32846   3.294   9.047   3.729
10338SOL    HW132847   3.372   9.078   3.683
10338SOL    HW232848   3.317   8.961   3.762
10339SOL     OW32849   8.235   7.623  13.433
10339SOL    HW132850   8.280   7.543  13.408
10339SOL    HW232851   8.240   7.679  13.356
10340SOL     OW32852   0.768   5.990   6.198
10340SOL    HW132853   0.693   5.930   6.205
10340SOL    HW232854   0.759   6.048   6.274
10341SOL     OW32855   3.902  14.306  13.316
10341SOL    HW132856   3.965  14.277  13.250
10341SOL    HW232857   3.857  14.380  13.275
10342SOL     OW32858  11.593   1.774   9.086
10342SOL    HW132859  11.519   1.719   9.110
10342SOL    HW232860  11.670   1.721   9.107
10343SOL     OW32861   6.930  11.521   0.093
10343SOL    HW132862   7.006  11.571   0.064
10343SOL    HW232863   6.878  11.583   0.144
10344SOL     OW32864   1.632   0.811   8.338
10344SOL    HW132865   1.639   0.904   8.357
10344SOL    HW232866   1.723   0.780   8.333
10345SOL     OW32867  13.724   4.393   1.905
10345SOL    HW132868  13.781   4.432   1.971
10345SOL    HW232869  13.705   4.306   1.938
10346SOL     OW32870   8.108   7.762  10.505
10346SOL    HW132871   8.158   7.688  10.540
10346SOL    HW232872   8.033   7.721  10.461
10347SOL     OW32873  14.660   2.697   7.192
10347SOL    HW132874  14.635   2.619   7.144
10347SOL    HW232875  14.668   2.765   7.125
10348SOL     OW32876   7.321   6.782   2.938
10348SOL    HW132877   7.309   6.873   2.965
10348SOL    HW232878   7.253   6.767   2.872
10349SOL     OW32879   2.472  10.847   5.231
10349SOL    HW132880   2.377  10.854   5.238
10349SOL    HW232881   2.487  10.753   5.217
10350SOL     OW32882   9.791   4.823   6.984
10350SOL    HW132883   9.703   4.851   6.958
10350SOL    HW232884   9.777   4.765   7.058
10351SOL     OW32885   9.880   9.090   7.059
10351SOL    HW132886   9.903   9.019   7.119
10351SOL    HW232887   9.955   9.149   7.060
10352SOL     OW32888   6.877   7.509  14.222
10352SOL    HW132889   6.875   7.449  14.296
10352SOL    HW232890   6.861   7.454  14.146
10353SOL     OW32891   7.073   2.711  11.041
10353SOL    HW132892   7.003   2.648  11.021
10353SOL    HW232893   7.050   2.745  11.127
10354SOL     OW32894  10.114  10.253   7.715
10354SOL    HW132895  10.097  10.256   7.621
10354SOL    HW232896  10.203  10.286   7.725
10355SOL     OW32897   0.120   3.950   6.575
10355SOL    HW132898   0.153   4.031   6.536
10355SOL    HW232899   0.066   3.979   6.648
10356SOL     OW32900   3.017  12.272   0.692
10356SOL    HW132901   2.969  12.201   0.733
10356SOL    HW232902   3.017  12.251   0.598
10357SOL     OW32903   0.375   6.377   0.142
10357SOL    HW132904   0.428   6.444   0.185
10357SOL    HW232905   0.437   6.307   0.122
10358SOL     OW32906   7.506   4.003   0.540
10358SOL    HW132907   7.514   3.908   0.532
10358SOL    HW232908   7.494   4.034   0.451
10359SOL     OW32909   7.821   8.675   3.235
10359SOL    HW132910   7.874   8.697   3.311
10359SOL    HW232911   7.868   8.713   3.161
10360SOL     OW32912   8.694   5.280   8.583
10360SOL    HW132913   8.685   5.346   8.651
10360SOL    HW232914   8.607   5.242   8.575
10361SOL     OW32915   7.153   6.511   2.727
10361SOL    HW132916   7.178   6.432   2.679
10361SOL    HW232917   7.128   6.478   2.814
10362SOL     OW32918   1.355   1.223  14.300
10362SOL    HW132919   1.376   1.174  14.380
10362SOL    HW232920   1.399   1.176  14.230
10363SOL     OW32921  12.685  13.855   1.831
10363SOL    HW132922  12.682  13.881   1.739
10363SOL    HW232923  12.604  13.891   1.868
10364SOL     OW32924   8.933  12.134   7.294
10364SOL    HW132925   8.866  12.187   7.251
10364SOL    HW232926   8.887  12.089   7.365
10365SOL     OW32927   6.132  13.113   6.927
10365SOL    HW132928   6.146  13.191   6.873
10365SOL    HW232929   6.210  13.059   6.912
10366SOL     OW32930   0.762  11.768   0.901
10366SOL    HW132931   0.787  11.682   0.935
10366SOL    HW232932   0.844  11.816   0.893
10367SOL     OW32933   8.134   0.758   3.397
10367SOL    HW132934   8.185   0.836   3.420
10367SOL    HW232935   8.170   0.729   3.313
10368SOL     OW32936   6.435   4.183  12.283
10368SOL    HW132937   6.377   4.129  12.230
10368SOL    HW232938   6.441   4.265  12.235
10369SOL     OW32939  11.247   1.421  12.061
10369SOL    HW132940  11.255   1.500  12.009
10369SOL    HW232941  11.324   1.421  12.117
10370SOL     OW32942   3.277   2.336   1.279
10370SOL    HW132943   3.304   2.385   1.356
10370SOL    HW232944   3.345   2.270   1.267
10371SOL     OW32945  12.331   0.301  10.174
10371SOL    HW132946  12.400   0.365  10.191
10371SOL    HW232947  12.280   0.340  10.103
10372SOL     OW32948  11.158   3.519  14.147
10372SOL    HW132949  11.227   3.580  14.173
10372SOL    HW232950  11.086   3.537  14.206
10373SOL     OW32951  11.040   2.774   2.355
10373SOL    HW132952  10.947   2.759   2.335
10373SOL    HW232953  11.057   2.717   2.430
10374SOL     OW32954   3.927   4.355  10.463
10374SOL    HW132955   4.020   4.350  10.441
10374SOL    HW232956   3.919   4.434  10.516
10375SOL     OW32957   4.677  14.249   2.810
10375SOL    HW132958   4.633  14.277   2.890
10375SOL    HW232959   4.742  14.317   2.793
10376SOL     OW32960   6.053   1.257   2.816
10376SOL    HW132961   6.095   1.342   2.803
10376SOL    HW232962   5.961   1.277   2.830
10377SOL     OW32963  11.716  10.259   3.413
10377SOL    HW132964  11.670  10.214   3.342
10377SOL    HW232965  11.679  10.347   3.414
10378SOL     OW32966   1.914   9.218   6.980
10378SOL    HW132967   1.948   9.263   7.057
10378SOL    HW232968   1.991   9.180   6.938
10379SOL     OW32969   5.480  13.571   2.322
10379SOL    HW132970   5.546  13.511   2.356
10379SOL    HW232971   5.399  13.544   2.365
10380SOL     OW32972   3.335   0.310   2.099
10380SOL    HW132973   3.329   0.346   2.187
10380SOL    HW232974   3.361   0.384   2.044
10381SOL     OW32975   4.340   2.251   3.640
10381SOL    HW132976   4.432   2.275   3.641
10381SOL    HW232977   4.335   2.170   3.690
10382SOL     OW32978   0.962   6.860  10.927
10382SOL    HW132979   0.972   6.837  10.834
10382SOL    HW232980   1.038   6.819  10.969
10383SOL     OW32981   8.843   6.904  10.157
10383SOL    HW132982   8.920   6.921  10.210
10383SOL    HW232983   8.779   6.969  10.185
10384SOL     OW32984  10.467   4.398   7.428
10384SOL    HW132985  10.545   4.374   7.478
10384SOL    HW232986  10.399   4.338   7.458
10385SOL     OW32987   7.008   5.838  10.849
10385SOL    HW132988   7.024   5.923  10.890
10385SOL    HW232989   7.040   5.775  10.914
10386SOL     OW32990   4.989   8.427   1.937
10386SOL    HW132991   5.020   8.508   1.897
10386SOL    HW232992   5.057   8.363   1.916
10387SOL     OW32993   7.876  11.613   8.120
10387SOL    HW132994   7.886  11.564   8.038
10387SOL    HW232995   7.839  11.697   8.093
10388SOL     OW32996  10.191   7.991   5.767
10388SOL    HW132997  10.264   8.016   5.824
10388SOL    HW232998  10.173   8.071   5.716
10389SOL     OW32999  12.368   7.596   9.316
10389SOL    HW133000  12.298   7.625   9.257
10389SOL    HW233001  12.348   7.639   9.399
10390SOL     OW33002   0.382   8.640   9.249
10390SOL    HW133003   0.456   8.634   9.189
10390SOL    HW233004   0.331   8.560   9.233
10391SOL     OW33005  13.209   4.134  10.117
10391SOL    HW133006  13.185   4.117  10.208
10391SOL    HW233007  13.255   4.218  10.119
10392SOL     OW33008  11.364  10.250   8.345
10392SOL    HW133009  11.273  10.261   8.319
10392SOL    HW233010  11.360  10.217   8.435
10393SOL     OW33011  14.735   8.781   6.179
10393SOL    HW133012  14.815   8.749   6.219
10393SOL    HW233013  14.710   8.712   6.117
10394SOL     OW33014  14.102  14.481  14.310
10394SOL    HW133015  14.050  14.426  14.251
10394SOL    HW233016  14.188  14.440  14.311
10395SOL     OW33017  11.674  11.059   9.821
10395SOL    HW133018  11.634  11.140   9.790
10395SOL    HW233019  11.622  11.035   9.898
10396SOL     OW33020   5.967   9.298   7.070
10396SOL    HW133021   6.020   9.218   7.080
10396SOL    HW233022   6.012   9.363   7.125
10397SOL     OW33023  10.072   7.504  12.966
10397SOL    HW133024  10.130   7.506  12.890
10397SOL    HW233025  10.002   7.565  12.944
10398SOL     OW33026  11.654   2.544   6.462
10398SOL    HW133027  11.742   2.581   6.470
10398SOL    HW233028  11.666   2.463   6.412
10399SOL     OW33029   0.283  14.049   6.204
10399SOL    HW133030   0.331  13.967   6.217
10399SOL    HW233031   0.228  14.033   6.128
10400SOL     OW33032   8.047   4.478   8.604
10400SOL    HW133033   7.957   4.471   8.570
10400SOL    HW233034   8.049   4.562   8.649
10401SOL     OW33035   8.786   4.041   9.681
10401SOL    HW133036   8.714   4.099   9.709
10401SOL    HW233037   8.816   4.080   9.599
10402SOL     OW33038  13.672   6.738   3.992
10402SOL    HW133039  13.736   6.809   4.004
10402SOL    HW233040  13.587   6.780   4.001
10403SOL     OW33041  12.125  10.528   2.739
10403SOL    HW133042  12.199  10.489   2.785
10403SOL    HW233043  12.116  10.615   2.777
10404SOL     OW33044   1.352   4.072   5.929
10404SOL    HW133045   1.350   4.118   6.012
10404SOL    HW233046   1.381   4.138   5.866
10405SOL     OW33047   5.284   8.876   8.423
10405SOL    HW133048   5.211   8.855   8.363
10405SOL    HW233049   5.347   8.805   8.410
10406SOL     OW33050   8.114   8.719  14.428
10406SOL    HW133051   8.142   8.739  14.518
10406SOL    HW233052   8.090   8.804  14.391
10407SOL     OW33053   7.806   2.613   9.906
10407SOL    HW133054   7.785   2.600   9.998
10407SOL    HW233055   7.888   2.661   9.906
10408SOL     OW33056   6.579   4.707   0.288
10408SOL    HW133057   6.554   4.795   0.258
10408SOL    HW233058   6.672   4.700   0.270
10409SOL     OW33059  14.373   6.406   6.355
10409SOL    HW133060  14.300   6.376   6.408
10409SOL    HW233061  14.437   6.438   6.418
10410SOL     OW33062   5.195  12.892   4.574
10410SOL    HW133063   5.136  12.885   4.649
10410SOL    HW233064   5.205  12.802   4.544
10411SOL     OW33065  13.510   3.997   3.504
10411SOL    HW133066  13.596   4.033   3.481
10411SOL    HW233067  13.498   4.021   3.595
10412SOL     OW33068   3.260   8.665   9.896
10412SOL    HW133069   3.315   8.702   9.827
10412SOL    HW233070   3.229   8.740   9.946
10413SOL     OW33071   9.662  11.470   0.599
10413SOL    HW133072   9.726  11.451   0.667
10413SOL    HW233073   9.684  11.558   0.569
10414SOL     OW33074  12.248  10.291  14.087
10414SOL    HW133075  12.172  10.257  14.039
10414SOL    HW233076  12.216  10.371  14.127
10415SOL     OW33077   3.589  14.496   0.889
10415SOL    HW133078   3.523  14.497   0.820
10415SOL    HW233079   3.538  14.504   0.970
10416SOL     OW33080   2.752   4.085  11.940
10416SOL    HW133081   2.775   4.025  11.869
10416SOL    HW233082   2.707   4.157  11.896
10417SOL     OW33083   2.579   3.765  12.214
10417SOL    HW133084   2.648   3.712  12.175
10417SOL    HW233085   2.520   3.702  12.257
10418SOL     OW33086   9.026   0.769   2.618
10418SOL    HW133087   9.009   0.853   2.575
10418SOL    HW233088   8.949   0.755   2.673
10419SOL     OW33089   0.089   6.075   5.064
10419SOL    HW133090   0.162   6.107   5.117
10419SOL    HW233091   0.016   6.132   5.086
10420SOL     OW33092   5.863   7.544   2.516
10420SOL    HW133093   5.773   7.548   2.484
10420SOL    HW233094   5.917   7.555   2.438
10421SOL     OW33095   7.874   1.099  10.592
10421SOL    HW133096   7.833   1.132  10.671
10421SOL    HW233097   7.815   1.031  10.560
10422SOL     OW33098  13.591   1.180  10.535
10422SOL    HW133099  13.519   1.225  10.579
10422SOL    HW233100  13.670   1.222  10.570
10423SOL     OW33101  14.691   9.313   8.485
10423SOL    HW133102  14.708   9.293   8.393
10423SOL    HW233103  14.598   9.333   8.489
10424SOL     OW33104   3.310   5.007   1.035
10424SOL    HW133105   3.354   4.923   1.051
10424SOL    HW233106   3.294   5.042   1.123
10425SOL     OW33107  13.921   4.028  11.956
10425SOL    HW133108  14.002   4.077  11.975
10425SOL    HW233109  13.939   3.983  11.874
10426SOL     OW33110   2.901  13.839   4.021
10426SOL    HW133111   2.886  13.836   4.115
10426SOL    HW233112   2.865  13.924   3.994
10427SOL     OW33113   3.710   3.674   8.583
10427SOL    HW133114   3.632   3.641   8.538
10427SOL    HW233115   3.779   3.611   8.561
10428SOL     OW33116   2.573   2.953  12.244
10428SOL    HW133117   2.510   2.891  12.205
10428SOL    HW233118   2.654   2.903  12.250
10429SOL     OW33119   1.254   8.714   1.386
10429SOL    HW133120   1.175   8.696   1.335
10429SOL    HW233121   1.223   8.729   1.475
10430SOL     OW33122   9.184  14.791   0.890
10430SOL    HW133123   9.277  14.766   0.891
10430SOL    HW233124   9.136  14.709   0.898
10431SOL     OW33125   4.664  10.619   3.819
10431SOL    HW133126   4.609  10.636   3.895
10431SOL    HW233127   4.606  10.630   3.744
10432SOL     OW33128   3.294   1.294   3.741
10432SOL    HW133129   3.252   1.307   3.656
10432SOL    HW233130   3.280   1.202   3.761
10433SOL     OW33131  10.889   7.285  12.490
10433SOL    HW133132  10.974   7.243  12.477
10433SOL    HW233133  10.834   7.250  12.421
10434SOL     OW33134   1.897  12.563   7.426
10434SOL    HW133135   1.966  12.628   7.417
10434SOL    HW233136   1.818  12.614   7.448
10435SOL     OW33137   1.627   8.774   3.774
10435SOL    HW133138   1.537   8.747   3.790
10435SOL    HW233139   1.640   8.761   3.680
10436SOL     OW33140   1.235   5.017   2.935
10436SOL    HW133141   1.207   4.932   2.971
10436SOL    HW233142   1.270   4.996   2.849
10437SOL     OW33143   5.468   5.531   6.169
10437SOL    HW133144   5.375   5.508   6.167
10437SOL    HW233145   5.511   5.450   6.199
10438SOL     OW33146   1.612   4.638   4.396
10438SOL    HW133147   1.527   4.599   4.415
10438SOL    HW233148   1.595   4.701   4.326
10439SOL     OW33149   0.636   2.139   4.777
10439SOL    HW133150   0.661   2.145   4.685
10439SOL    HW233151   0.645   2.228   4.811
10440SOL     OW33152   1.824  10.847  13.501
10440SOL    HW133153   1.771  10.913  13.547
10440SOL    HW233154   1.914  10.870  13.522
10441SOL     OW33155   7.580   8.202   4.437
10441SOL    HW133156   7.500   8.201   4.385
10441SOL    HW233157   7.553   8.240   4.521
10442SOL     OW33158   8.788  10.761   2.043
10442SOL    HW133159   8.767  10.819   1.970
10442SOL    HW233160   8.883  10.766   2.050
10443SOL     OW33161  14.772  12.417   8.406
10443SOL    HW133162  14.851  12.444   8.453
10443SOL    HW233163  14.800  12.342   8.353
10444SOL     OW33164   5.049   9.798   3.456
10444SOL    HW133165   5.069   9.754   3.373
10444SOL    HW233166   5.129   9.790   3.507
10445SOL     OW33167  13.363   4.220   9.763
10445SOL    HW133168  13.319   4.266   9.692
10445SOL    HW233169  13.368   4.283   9.835
10446SOL     OW33170  14.873  14.368   3.005
10446SOL    HW133171   0.003  14.281   3.046
10446SOL    HW233172   0.014  14.350   2.912
10447SOL     OW33173  10.186   0.259   4.202
10447SOL    HW133174  10.091   0.269   4.202
10447SOL    HW233175  10.219   0.346   4.223
10448SOL     OW33176   7.812  13.383  11.382
10448SOL    HW133177   7.850  13.468  11.359
10448SOL    HW233178   7.718  13.396  11.370
10449SOL     OW33179   1.832  14.429  12.918
10449SOL    HW133180   1.833  14.409  13.011
10449SOL    HW233181   1.914  14.477  12.902
10450SOL     OW33182   1.608   3.113  14.010
10450SOL    HW133183   1.578   3.025  13.988
10450SOL    HW233184   1.528   3.162  14.029
10451SOL     OW33185  13.099   9.783   7.724
10451SOL    HW133186  13.008   9.754   7.715
10451SOL    HW233187  13.095   9.878   7.716
10452SOL     OW33188   5.819  10.370   3.173
10452SOL    HW133189   5.809  10.279   3.200
10452SOL    HW233190   5.851  10.365   3.083
10453SOL     OW33191   8.947  11.746  12.309
10453SOL    HW133192   8.898  11.725  12.388
10453SOL    HW233193   9.035  11.713  12.326
10454SOL     OW33194  11.140  13.192   4.790
10454SOL    HW133195  11.047  13.170   4.797
10454SOL    HW233196  11.182  13.141   4.860
10455SOL     OW33197   9.142   9.495  13.893
10455SOL    HW133198   9.099   9.498  13.978
10455SOL    HW233199   9.080   9.537  13.833
10456SOL     OW33200   7.309   9.386  12.338
10456SOL    HW133201   7.329   9.344  12.421
10456SOL    HW233202   7.328   9.478  12.352
10457SOL     OW33203  10.292   5.828  12.464
10457SOL    HW133204  10.386   5.816  12.457
10457SOL    HW233205  10.273   5.815  12.558
10458SOL     OW33206  11.476   8.534   0.458
10458SOL    HW133207  11.404   8.499   0.510
10458SOL    HW233208  11.554   8.519   0.512
10459SOL     OW33209   1.118   6.173   1.507
10459SOL    HW133210   1.154   6.085   1.499
10459SOL    HW233211   1.148   6.219   1.429
10460SOL     OW33212   2.249   8.753   2.864
10460SOL    HW133213   2.324   8.781   2.917
10460SOL    HW233214   2.187   8.825   2.871
10461SOL     OW33215  11.515   0.420  14.168
10461SOL    HW133216  11.563   0.424  14.086
10461SOL    HW233217  11.568   0.363  14.224
10462SOL     OW33218  10.896   9.883  14.605
10462SOL    HW133219  10.839   9.809  14.582
10462SOL    HW233220  10.960   9.846  14.666
10463SOL     OW33221   8.533   3.852   4.992
10463SOL    HW133222   8.602   3.804   5.037
10463SOL    HW233223   8.482   3.893   5.062
10464SOL     OW33224   2.382   7.198  14.502
10464SOL    HW133225   2.399   7.185  14.409
10464SOL    HW233226   2.288   7.220  14.506
10465SOL     OW33227   9.516   3.799   0.483
10465SOL    HW133228   9.437   3.777   0.533
10465SOL    HW233229   9.587   3.756   0.531
10466SOL     OW33230   0.629   7.355   8.632
10466SOL    HW133231   0.635   7.284   8.697
10466SOL    HW233232   0.708   7.344   8.578
10467SOL     OW33233   5.688   6.718   8.728
10467SOL    HW133234   5.727   6.779   8.666
10467SOL    HW233235   5.627   6.772   8.780
10468SOL     OW33236  14.040   8.421   8.654
10468SOL    HW133237  13.974   8.357   8.682
10468SOL    HW233238  14.040   8.487   8.724
10469SOL     OW33239   7.815  11.449   0.528
10469SOL    HW133240   7.729  11.490   0.537
10469SOL    HW233241   7.796  11.358   0.504
10470SOL     OW33242   7.220  14.868   3.762
10470SOL    HW133243   7.150   0.059   3.773
10470SOL    HW233244   7.279   0.035   3.697
10471SOL     OW33245   6.797   2.966  13.926
10471SOL    HW133246   6.889   2.944  13.913
10471SOL    HW233247   6.799   3.054  13.962
10472SOL     OW33248   1.510   3.305   9.802
10472SOL    HW133249   1.425   3.330   9.765
10472SOL    HW233250   1.570   3.373   9.772
10473SOL     OW33251  14.459  11.966   7.149
10473SOL    HW133252  14.500  12.002   7.227
10473SOL    HW233253  14.375  11.931   7.179
10474SOL     OW33254   4.047   7.331   6.136
10474SOL    HW133255   3.996   7.312   6.057
10474SOL    HW233256   4.119   7.268   6.134
10475SOL     OW33257  12.872   3.002   7.498
10475SOL    HW133258  12.827   2.934   7.547
10475SOL    HW233259  12.937   3.037   7.559
10476SOL     OW33260   5.802   4.077   4.191
10476SOL    HW133261   5.781   4.098   4.282
10476SOL    HW233262   5.735   4.015   4.165
10477SOL     OW33263   2.983   7.996   7.820
10477SOL    HW133264   3.020   7.943   7.750
10477SOL    HW233265   2.911   7.943   7.855
10478SOL     OW33266  13.183  10.193   4.597
10478SOL    HW133267  13.134  10.111   4.609
10478SOL    HW233268  13.120  10.253   4.557
10479SOL     OW33269  13.484  10.440   9.826
10479SOL    HW133270  13.510  10.492   9.750
10479SOL    HW233271  13.392  10.463   9.841
10480SOL     OW33272   6.445  10.359  13.392
10480SOL    HW133273   6.502  10.435  13.399
10480SOL    HW233274   6.404  10.367  13.306
10481SOL     OW33275   1.938  12.103   9.084
10481SOL    HW133276   1.875  12.174   9.078
10481SOL    HW233277   1.998  12.130   9.154
10482SOL     OW33278  11.438   9.230  12.419
10482SOL    HW133279  11.390   9.189  12.347
10482SOL    HW233280  11.508   9.168  12.439
10483SOL     OW33281  14.143   0.837   9.513
10483SOL    HW133282  14.136   0.742   9.520
10483SOL    HW233283  14.053   0.866   9.497
10484SOL     OW33284  14.536  10.837   8.159
10484SOL    HW133285  14.539  10.773   8.231
10484SOL    HW233286  14.541  10.922   8.202
10485SOL     OW33287   9.968   7.031   4.082
10485SOL    HW133288  10.022   6.985   4.147
10485SOL    HW233289   9.905   7.080   4.134
10486SOL     OW33290   1.788  12.306   9.556
10486SOL    HW133291   1.805  12.351   9.473
10486SOL    HW233292   1.787  12.213   9.533
10487SOL     OW33293  13.135   9.680   6.030
10487SOL    HW133294  13.072   9.726   6.085
10487SOL    HW233295  13.081   9.632   5.967
10488SOL     OW33296   1.538  14.036   1.622
10488SOL    HW133297   1.582  14.096   1.683
10488SOL    HW233298   1.609  13.982   1.586
10489SOL     OW33299   0.824   1.741  13.156
10489SOL    HW133300   0.746   1.765  13.107
10489SOL    HW233301   0.817   1.791  13.238
10490SOL     OW33302   2.657   4.190  10.473
10490SOL    HW133303   2.652   4.264  10.412
10490SOL    HW233304   2.614   4.118  10.426
10491SOL     OW33305   2.602  13.558   6.287
10491SOL    HW133306   2.620  13.650   6.304
10491SOL    HW233307   2.509  13.547   6.308
10492SOL     OW33308  12.868  13.826  13.258
10492SOL    HW133309  12.912  13.902  13.295
10492SOL    HW233310  12.775  13.842  13.272
10493SOL     OW33311   4.122   6.998   2.455
10493SOL    HW133312   4.112   7.037   2.368
10493SOL    HW233313   4.216   6.976   2.460
10494SOL     OW33314   4.441   2.925   2.239
10494SOL    HW133315   4.448   3.015   2.271
10494SOL    HW233316   4.367   2.887   2.287
10495SOL     OW33317   6.300  14.562   1.012
10495SOL    HW133318   6.237  14.556   0.941
10495SOL    HW233319   6.285  14.482   1.063
10496SOL     OW33320   0.142   3.406   3.521
10496SOL    HW133321   0.075   3.338   3.527
10496SOL    HW233322   0.092   3.488   3.519
10497SOL     OW33323   1.378  12.892   7.535
10497SOL    HW133324   1.306  12.830   7.521
10497SOL    HW233325   1.379  12.907   7.629
10498SOL     OW33326   6.355  10.358  13.112
10498SOL    HW133327   6.269  10.376  13.075
10498SOL    HW233328   6.402  10.441  13.105
10499SOL     OW33329   2.642  13.886   7.710
10499SOL    HW133330   2.674  13.956   7.653
10499SOL    HW233331   2.662  13.915   7.799
10500SOL     OW33332   5.377   4.516   4.202
10500SOL    HW133333   5.292   4.542   4.239
10500SOL    HW233334   5.360   4.431   4.162
10501SOL     OW33335   3.166  13.651   3.282
10501SOL    HW133336   3.260  13.633   3.276
10501SOL    HW233337   3.151  13.663   3.376
10502SOL     OW33338   5.539  14.512   7.221
10502SOL    HW133339   5.608  14.551   7.273
10502SOL    HW233340   5.580  14.436   7.179
10503SOL     OW33341  13.833   2.825   5.964
10503SOL    HW133342  13.817   2.789   6.051
10503SOL    HW233343  13.814   2.752   5.904
10504SOL     OW33344   7.982  14.069   6.737
10504SOL    HW133345   7.953  14.076   6.647
10504SOL    HW233346   7.981  13.975   6.756
10505SOL     OW33347   6.281   6.344  13.121
10505SOL    HW133348   6.298   6.347  13.215
10505SOL    HW233349   6.328   6.420  13.086
10506SOL     OW33350   4.587  14.442   3.106
10506SOL    HW133351   4.666  14.412   3.150
10506SOL    HW233352   4.534  14.363   3.095
10507SOL     OW33353   3.078  14.418   8.963
10507SOL    HW133354   3.144  14.482   8.988
10507SOL    HW233355   2.995  14.460   8.982
10508SOL     OW33356   9.293  11.248   3.803
10508SOL    HW133357   9.286  11.307   3.878
10508SOL    HW233358   9.224  11.183   3.816
10509SOL     OW33359   2.308  13.910  11.512
10509SOL    HW133360   2.324  13.946  11.425
10509SOL    HW233361   2.317  13.815  11.501
10510SOL     OW33362  12.986   4.656   0.359
10510SOL    HW133363  12.976   4.750   0.369
10510SOL    HW233364  12.913   4.629   0.303
10511SOL     OW33365   2.975  13.197  12.943
10511SOL    HW133366   2.943  13.278  12.903
10511SOL    HW233367   2.929  13.127  12.897
10512SOL     OW33368  11.622   5.523   5.188
10512SOL    HW133369  11.644   5.611   5.157
10512SOL    HW233370  11.704   5.475   5.186
10513SOL     OW33371   4.450   6.271   4.672
10513SOL    HW133372   4.356   6.259   4.687
10513SOL    HW233373   4.468   6.360   4.702
10514SOL     OW33374   7.089  14.079  13.884
10514SOL    HW133375   7.160  14.021  13.912
10514SOL    HW233376   7.057  14.119  13.965
10515SOL     OW33377   0.332   6.995  10.347
10515SOL    HW133378   0.405   7.056  10.348
10515SOL    HW233379   0.275   7.025  10.418
10516SOL     OW33380   0.236  11.066   3.481
10516SOL    HW133381   0.221  11.019   3.400
10516SOL    HW233382   0.184  11.019   3.547
10517SOL     OW33383   5.357  14.521   2.374
10517SOL    HW133384   5.295  14.454   2.403
10517SOL    HW233385   5.418  14.475   2.317
10518SOL     OW33386   1.006   1.063   3.177
10518SOL    HW133387   1.016   1.154   3.150
10518SOL    HW233388   0.978   1.068   3.268
10519SOL     OW33389   3.852   9.246   1.840
10519SOL    HW133390   3.901   9.305   1.782
10519SOL    HW233391   3.761   9.258   1.816
10520SOL     OW33392   9.635   9.996   5.326
10520SOL    HW133393   9.568   9.995   5.395
10520SOL    HW233394   9.590  10.029   5.249
10521SOL     OW33395   7.053   6.384   9.942
10521SOL    HW133396   7.012   6.371   9.856
10521SOL    HW233397   7.017   6.467   9.973
10522SOL     OW33398  10.198  11.830  11.453
10522SOL    HW133399  10.226  11.918  11.479
10522SOL    HW233400  10.272  11.775  11.474
10523SOL     OW33401   8.427   5.184  11.569
10523SOL    HW133402   8.382   5.128  11.632
10523SOL    HW233403   8.414   5.139  11.485
10524SOL     OW33404   4.216   6.110  13.087
10524SOL    HW133405   4.221   6.180  13.021
10524SOL    HW233406   4.161   6.146  13.156
10525SOL     OW33407   6.954  10.235  13.349
10525SOL    HW133408   6.871  10.264  13.311
10525SOL    HW233409   7.008  10.213  13.274
10526SOL     OW33410   4.109   7.735   0.792
10526SOL    HW133411   4.168   7.663   0.815
10526SOL    HW233412   4.036   7.692   0.747
10527SOL     OW33413   0.250   6.990  11.480
10527SOL    HW133414   0.305   7.067  11.495
10527SOL    HW233415   0.169   7.025  11.441
10528SOL     OW33416   3.519  10.231  10.067
10528SOL    HW133417   3.478  10.147  10.048
10528SOL    HW233418   3.506  10.283   9.988
10529SOL     OW33419   6.749  14.637   2.819
10529SOL    HW133420   6.704  14.562   2.780
10529SOL    HW233421   6.729  14.631   2.912
10530SOL     OW33422  10.808   2.396   8.096
10530SOL    HW133423  10.819   2.430   8.185
10530SOL    HW233424  10.741   2.453   8.057
10531SOL     OW33425   5.682   9.691   1.579
10531SOL    HW133426   5.726   9.607   1.567
10531SOL    HW233427   5.600   9.681   1.532
10532SOL     OW33428   8.496   3.341   9.776
10532SOL    HW133429   8.409   3.320   9.811
10532SOL    HW233430   8.483   3.418   9.722
10533SOL     OW33431   5.407   4.845   6.466
10533SOL    HW133432   5.350   4.904   6.416
10533SOL    HW233433   5.392   4.869   6.557
10534SOL     OW33434   7.109  10.935  10.908
10534SOL    HW133435   7.096  10.923  10.814
10534SOL    HW233436   7.113  10.846  10.943
10535SOL     OW33437   2.703   0.509  12.248
10535SOL    HW133438   2.722   0.455  12.326
10535SOL    HW233439   2.787   0.518  12.203
10536SOL     OW33440  11.877   2.961  13.833
10536SOL    HW133441  11.852   2.874  13.803
10536SOL    HW233442  11.970   2.953  13.855
10537SOL     OW33443   6.847   8.492  10.450
10537SOL    HW133444   6.779   8.549  10.412
10537SOL    HW233445   6.929   8.538  10.432
10538SOL     OW33446  10.715  10.689   5.061
10538SOL    HW133447  10.699  10.780   5.038
10538SOL    HW233448  10.679  10.680   5.150
10539SOL     OW33449  13.582  12.794   5.113
10539SOL    HW133450  13.534  12.727   5.064
10539SOL    HW233451  13.621  12.747   5.187
10540SOL     OW33452   5.383  13.570   3.002
10540SOL    HW133453   5.361  13.607   2.917
10540SOL    HW233454   5.478  13.559   3.000
10541SOL     OW33455   3.452   3.033   2.672
10541SOL    HW133456   3.468   2.981   2.750
10541SOL    HW233457   3.538   3.045   2.632
10542SOL     OW33458   4.574   7.026   4.640
10542SOL    HW133459   4.545   7.056   4.726
10542SOL    HW233460   4.496   7.028   4.586
10543SOL     OW33461   7.254  12.200  11.072
10543SOL    HW133462   7.293  12.232  10.991
10543SOL    HW233463   7.283  12.262  11.139
10544SOL     OW33464  10.737  11.314   2.485
10544SOL    HW133465  10.721  11.379   2.416
10544SOL    HW233466  10.831  11.299   2.483
10545SOL     OW33467   2.554   0.167  12.129
10545SOL    HW133468   2.612   0.171  12.053
10545SOL    HW233469   2.604   0.118  12.195
10546SOL     OW33470  14.821  13.421  12.860
10546SOL    HW133471  14.808  13.493  12.922
10546SOL    HW233472  14.736  13.410  12.818
10547SOL     OW33473   0.950   9.301  13.687
10547SOL    HW133474   0.938   9.370  13.753
10547SOL    HW233475   0.868   9.300  13.638
10548SOL     OW33476   6.012  10.384   0.390
10548SOL    HW133477   6.044  10.359   0.303
10548SOL    HW233478   6.041  10.475   0.400
10549SOL     OW33479   7.566   3.343   1.205
10549SOL    HW133480   7.530   3.376   1.287
10549SOL    HW233481   7.511   3.267   1.184
10550SOL     OW33482   4.357  12.732   4.067
10550SOL    HW133483   4.448  12.723   4.094
10550SOL    HW233484   4.361  12.781   3.985
10551SOL     OW33485   4.325  10.767   9.299
10551SOL    HW133486   4.415  10.797   9.313
10551SOL    HW233487   4.310  10.701   9.366
10552SOL     OW33488  11.904   9.488   2.628
10552SOL    HW133489  11.848   9.458   2.556
10552SOL    HW233490  11.886   9.425   2.698
10553SOL     OW33491  10.006  14.279  12.907
10553SOL    HW133492  10.042  14.223  12.975
10553SOL    HW233493   9.940  14.332  12.951
10554SOL     OW33494   3.720   1.987   4.352
10554SOL    HW133495   3.786   2.056   4.341
10554SOL    HW233496   3.641   2.023   4.311
10555SOL     OW33497  10.810   1.376   7.635
10555SOL    HW133498  10.742   1.398   7.699
10555SOL    HW233499  10.841   1.289   7.662
10556SOL     OW33500   2.002   1.787   1.927
10556SOL    HW133501   1.995   1.880   1.905
10556SOL    HW233502   2.029   1.786   2.019
10557SOL     OW33503  11.040  13.558  13.657
10557SOL    HW133504  10.953  13.597  13.652
10557SOL    HW233505  11.025  13.464  13.651
10558SOL     OW33506   6.493  12.499   1.733
10558SOL    HW133507   6.443  12.544   1.801
10558SOL    HW233508   6.436  12.426   1.707
10559SOL     OW33509  13.482  10.502   2.435
10559SOL    HW133510  13.476  10.407   2.423
10559SOL    HW233511  13.555  10.529   2.378
10560SOL     OW33512  10.120   7.604  13.201
10560SOL    HW133513  10.201   7.574  13.242
10560SOL    HW233514  10.116   7.556  13.118
10561SOL     OW33515   3.283   1.532   1.833
10561SOL    HW133516   3.262   1.487   1.915
10561SOL    HW233517   3.251   1.621   1.846
10562SOL     OW33518   1.542   6.823   9.505
10562SOL    HW133519   1.590   6.756   9.457
10562SOL    HW233520   1.467   6.777   9.543
10563SOL     OW33521   0.124  10.739  10.286
10563SOL    HW133522   0.096  10.814  10.339
10563SOL    HW233523   0.156  10.778  10.205
10564SOL     OW33524   3.051   6.785  13.988
10564SOL    HW133525   3.134   6.811  13.948
10564SOL    HW233526   3.001   6.866  13.994
10565SOL     OW33527   6.237   2.551  13.263
10565SOL    HW133528   6.313   2.609  13.274
10565SOL    HW233529   6.195   2.583  13.183
10566SOL     OW33530   9.734   6.329  13.506
10566SOL    HW133531   9.642   6.302  13.511
10566SOL    HW233532   9.774   6.288  13.583
10567SOL     OW33533  11.507   9.983  11.721
10567SOL    HW133534  11.467   9.960  11.805
10567SOL    HW233535  11.529   9.899  11.681
10568SOL     OW33536   0.176   8.270   7.118
10568SOL    HW133537   0.252   8.218   7.143
10568SOL    HW233538   0.198   8.359   7.146
10569SOL     OW33539  13.721   7.791   8.180
10569SOL    HW133540  13.679   7.875   8.199
10569SOL    HW233541  13.809   7.799   8.216
10570SOL     OW33542   5.448  10.963  11.192
10570SOL    HW133543   5.518  10.967  11.127
10570SOL    HW233544   5.389  11.035  11.169
10571SOL     OW33545   9.848   2.806  13.364
10571SOL    HW133546   9.891   2.844  13.441
10571SOL    HW233547   9.756   2.798  13.389
10572SOL     OW33548   4.932  11.274   3.759
10572SOL    HW133549   4.978  11.226   3.690
10572SOL    HW233550   4.872  11.209   3.797
10573SOL     OW33551   3.614   0.918   9.746
10573SOL    HW133552   3.656   0.836   9.771
10573SOL    HW233553   3.645   0.981   9.811
10574SOL     OW33554   3.629  12.533  11.820
10574SOL    HW133555   3.579  12.540  11.901
10574SOL    HW233556   3.589  12.460  11.773
10575SOL     OW33557  10.411   2.623   8.705
10575SOL    HW133558  10.369   2.538   8.717
10575SOL    HW233559  10.482   2.624   8.770
10576SOL     OW33560   3.305  11.966  10.743
10576SOL    HW133561   3.286  11.902  10.674
10576SOL    HW233562   3.266  12.047  10.710
10577SOL     OW33563   0.321   8.478   6.519
10577SOL    HW133564   0.363   8.532   6.452
10577SOL    HW233565   0.388   8.416   6.546
10578SOL     OW33566   9.640   2.012   1.024
10578SOL    HW133567   9.668   2.069   0.952
10578SOL    HW233568   9.702   1.940   1.024
10579SOL     OW33569  13.000  13.689   9.226
10579SOL    HW133570  13.038  13.611   9.184
10579SOL    HW233571  12.997  13.754   9.155
10580SOL     OW33572   1.406   9.243  11.106
10580SOL    HW133573   1.442   9.302  11.173
10580SOL    HW233574   1.339   9.294  11.062
10581SOL     OW33575  12.142   0.192   9.851
10581SOL    HW133576  12.066   0.232   9.808
10581SOL    HW233577  12.182   0.264   9.899
10582SOL     OW33578  11.214  13.436   1.717
10582SOL    HW133579  11.296  13.473   1.750
10582SOL    HW233580  11.155  13.511   1.709
10583SOL     OW33581  13.570   8.565  10.271
10583SOL    HW133582  13.499   8.589  10.212
10583SOL    HW233583  13.545   8.605  10.355
10584SOL     OW33584  10.349   4.959   0.972
10584SOL    HW133585  10.284   4.954   1.043
10584SOL    HW233586  10.351   4.871   0.934
10585SOL     OW33587  14.642   1.113   0.792
10585SOL    HW133588  14.600   1.078   0.870
10585SOL    HW233589  14.724   1.065   0.784
10586SOL     OW33590  14.044   9.417   0.841
10586SOL    HW133591  14.076   9.338   0.797
10586SOL    HW233592  13.983   9.455   0.778
10587SOL     OW33593   4.077   9.759  12.859
10587SOL    HW133594   3.989   9.722  12.851
10587SOL    HW233595   4.122   9.699  12.918
10588SOL     OW33596   8.935   8.895   1.183
10588SOL    HW133597   8.931   8.984   1.147
10588SOL    HW233598   8.895   8.902   1.270
10589SOL     OW33599   5.030   6.602  12.293
10589SOL    HW133600   5.080   6.542  12.348
10589SOL    HW233601   5.053   6.689  12.326
10590SOL     OW33602   0.813   8.735   4.518
10590SOL    HW133603   0.854   8.821   4.532
10590SOL    HW233604   0.882   8.672   4.541
10591SOL     OW33605   0.819   6.082   5.929
10591SOL    HW133606   0.798   6.039   6.013
10591SOL    HW233607   0.857   6.166   5.954
10592SOL     OW33608   9.599  13.628  14.578
10592SOL    HW133609   9.631  13.641  14.489
10592SOL    HW233610   9.527  13.565  14.569
10593SOL     OW33611   3.026   2.539   8.580
10593SOL    HW133612   3.002   2.463   8.634
10593SOL    HW233613   2.974   2.611   8.616
10594SOL     OW33614  10.558   1.482  11.581
10594SOL    HW133615  10.648   1.450  11.573
10594SOL    HW233616  10.510   1.411  11.622
10595SOL     OW33617   4.287  13.439   1.117
10595SOL    HW133618   4.276  13.403   1.029
10595SOL    HW233619   4.344  13.516   1.105
10596SOL     OW33620   4.241  12.366   1.926
10596SOL    HW133621   4.261  12.366   1.832
10596SOL    HW233622   4.252  12.457   1.953
10597SOL     OW33623  13.901   6.404   3.351
10597SOL    HW133624  13.915   6.459   3.274
10597SOL    HW233625  13.846   6.457   3.408
10598SOL     OW33626  11.744   6.788  13.129
10598SOL    HW133627  11.738   6.883  13.140
10598SOL    HW233628  11.715   6.773  13.039
10599SOL     OW33629   2.806   7.307   6.213
10599SOL    HW133630   2.814   7.392   6.255
10599SOL    HW233631   2.896   7.275   6.205
10600SOL     OW33632  12.837   0.490   6.580
10600SOL    HW133633  12.743   0.500   6.573
10600SOL    HW233634  12.871   0.579   6.590
10601SOL     OW33635   4.395  13.242   3.327
10601SOL    HW133636   4.445  13.246   3.245
10601SOL    HW233637   4.395  13.149   3.351
10602SOL     OW33638   4.301  10.878   2.455
10602SOL    HW133639   4.386  10.881   2.498
10602SOL    HW233640   4.257  10.802   2.492
10603SOL     OW33641   4.001   9.900   5.517
10603SOL    HW133642   4.089   9.919   5.551
10603SOL    HW233643   3.987   9.808   5.537
10604SOL     OW33644   8.180   5.936   7.013
10604SOL    HW133645   8.188   5.846   6.981
10604SOL    HW233646   8.195   5.991   6.936
10605SOL     OW33647   6.424   1.652   7.979
10605SOL    HW133648   6.492   1.648   8.046
10605SOL    HW233649   6.424   1.744   7.950
10606SOL     OW33650  12.346   9.171   1.457
10606SOL    HW133651  12.306   9.165   1.370
10606SOL    HW233652  12.299   9.242   1.500
10607SOL     OW33653   8.963   2.445   2.532
10607SOL    HW133654   8.911   2.525   2.539
10607SOL    HW233655   9.001   2.433   2.620
10608SOL     OW33656   7.989  13.522   0.308
10608SOL    HW133657   8.020  13.435   0.285
10608SOL    HW233658   7.984  13.522   0.404
10609SOL     OW33659   1.977  11.659  14.144
10609SOL    HW133660   1.894  11.637  14.102
10609SOL    HW233661   2.039  11.594  14.110
10610SOL     OW33662  13.146   5.914   7.423
10610SOL    HW133663  13.116   5.979   7.360
10610SOL    HW233664  13.212   5.960   7.476
10611SOL     OW33665   1.219   2.380  12.188
10611SOL    HW133666   1.152   2.330  12.141
10611SOL    HW233667   1.196   2.370  12.280
10612SOL     OW33668  12.193   3.534   3.646
10612SOL    HW133669  12.189   3.447   3.607
10612SOL    HW233670  12.191   3.594   3.572
10613SOL     OW33671   6.407   8.178   9.048
10613SOL    HW133672   6.458   8.247   9.091
10613SOL    HW233673   6.368   8.222   8.972
10614SOL     OW33674   9.209   6.875   1.012
10614SOL    HW133675   9.303   6.875   1.026
10614SOL    HW233676   9.177   6.951   1.060
10615SOL     OW33677   1.225   1.153   1.304
10615SOL    HW133678   1.182   1.237   1.317
10615SOL    HW233679   1.289   1.147   1.375
10616SOL     OW33680   0.280   2.427   5.296
10616SOL    HW133681   0.229   2.496   5.254
10616SOL    HW233682   0.255   2.430   5.388
10617SOL     OW33683   7.262   1.816   9.620
10617SOL    HW133684   7.206   1.782   9.550
10617SOL    HW233685   7.201   1.856   9.682
10618SOL     OW33686   7.035   8.266  11.625
10618SOL    HW133687   7.118   8.308  11.601
10618SOL    HW233688   7.039   8.257  11.720
10619SOL     OW33689   7.669  10.944   2.391
10619SOL    HW133690   7.710  10.862   2.418
10619SOL    HW233691   7.741  11.006   2.382
10620SOL     OW33692   4.242   8.703   7.036
10620SOL    HW133693   4.188   8.779   7.058
10620SOL    HW233694   4.232   8.694   6.941
10621SOL     OW33695   8.370   2.517   0.683
10621SOL    HW133696   8.336   2.477   0.763
10621SOL    HW233697   8.299   2.573   0.652
10622SOL     OW33698  13.149   7.393   8.574
10622SOL    HW133699  13.190   7.343   8.646
10622SOL    HW233700  13.061   7.411   8.605
10623SOL     OW33701   5.185   4.099   3.741
10623SOL    HW133702   5.099   4.124   3.709
10623SOL    HW233703   5.245   4.160   3.697
10624SOL     OW33704   2.493  13.546   5.504
10624SOL    HW133705   2.532  13.459   5.505
10624SOL    HW233706   2.477  13.566   5.597
10625SOL     OW33707  11.428   4.983   4.873
10625SOL    HW133708  11.469   5.069   4.878
10625SOL    HW233709  11.483   4.927   4.928
10626SOL     OW33710  14.758   4.024  14.510
10626SOL    HW133711  14.833   4.010  14.568
10626SOL    HW233712  14.766   4.115  14.481
10627SOL     OW33713   3.335   2.401  10.905
10627SOL    HW133714   3.355   2.409  10.998
10627SOL    HW233715   3.242   2.377  10.903
10628SOL     OW33716  12.417  14.370  12.406
10628SOL    HW133717  12.410  14.433  12.477
10628SOL    HW233718  12.504  14.332  12.417
10629SOL     OW33719   2.256  11.502  14.574
10629SOL    HW133720   2.265  11.409  14.595
10629SOL    HW233721   2.180  11.530  14.625
10630SOL     OW33722   0.561   9.909  10.793
10630SOL    HW133723   0.473   9.879  10.769
10630SOL    HW233724   0.579   9.982  10.734
10631SOL     OW33725   7.737   6.445   3.080
10631SOL    HW133726   7.681   6.482   3.012
10631SOL    HW233727   7.795   6.516   3.106
10632SOL     OW33728   0.203   7.128  10.557
10632SOL    HW133729   0.226   7.209  10.603
10632SOL    HW233730   0.125   7.152  10.506
10633SOL     OW33731   9.286   1.416  11.017
10633SOL    HW133732   9.282   1.325  10.985
10633SOL    HW233733   9.356   1.456  10.965
10634SOL     OW33734   7.692   0.277  10.396
10634SOL    HW133735   7.609   0.289  10.349
10634SOL    HW233736   7.735   0.204  10.351
10635SOL     OW33737  11.888   0.691   2.755
10635SOL    HW133738  11.889   0.786   2.743
10635SOL    HW233739  11.808   0.662   2.710
10636SOL     OW33740   6.203   7.510   2.060
10636SOL    HW133741   6.216   7.604   2.043
10636SOL    HW233742   6.244   7.467   1.985
10637SOL     OW33743   6.653   1.256   8.816
10637SOL    HW133744   6.664   1.350   8.827
10637SOL    HW233745   6.641   1.222   8.905
10638SOL     OW33746   1.423  14.654  11.679
10638SOL    HW133747   1.510  14.626  11.708
10638SOL    HW233748   1.439  14.701  11.597
10639SOL     OW33749   8.137  13.114   3.310
10639SOL    HW133750   8.108  13.028   3.278
10639SOL    HW233751   8.101  13.119   3.398
10640SOL     OW33752  11.734   5.812   2.883
10640SOL    HW133753  11.748   5.897   2.841
10640SOL    HW233754  11.724   5.832   2.976
10641SOL     OW33755   9.787  11.122   0.788
10641SOL    HW133756   9.841  11.044   0.800
10641SOL    HW233757   9.842  11.193   0.822
10642SOL     OW33758   4.547   7.103   1.393
10642SOL    HW133759   4.614   7.037   1.381
10642SOL    HW233760   4.466   7.053   1.408
10643SOL     OW33761  14.431   2.222   7.080
10643SOL    HW133762  14.417   2.138   7.122
10643SOL    HW233763  14.343   2.251   7.054
10644SOL     OW33764   1.988   0.692  14.827
10644SOL    HW133765   1.924   0.636  14.783
10644SOL    HW233766   2.073   0.653  14.804
10645SOL     OW33767   7.628   7.270   7.319
10645SOL    HW133768   7.666   7.276   7.407
10645SOL    HW233769   7.586   7.184   7.317
10646SOL     OW33770  10.718   0.724  11.781
10646SOL    HW133771  10.654   0.678  11.837
10646SOL    HW233772  10.803   0.691  11.810
10647SOL     OW33773   8.405  11.518  11.344
10647SOL    HW133774   8.411  11.459  11.418
10647SOL    HW233775   8.353  11.470  11.279
10648SOL     OW33776   3.772  14.275  14.453
10648SOL    HW133777   3.833  14.275  14.379
10648SOL    HW233778   3.826  14.257  14.529
10649SOL     OW33779   7.072  14.104   1.079
10649SOL    HW133780   7.061  14.088   1.172
10649SOL    HW233781   7.082  14.017   1.041
10650SOL     OW33782   5.643   6.063   3.646
10650SOL    HW133783   5.714   6.004   3.618
10650SOL    HW233784   5.563   6.020   3.618
10651SOL     OW33785  12.535   0.635   8.515
10651SOL    HW133786  12.572   0.549   8.495
10651SOL    HW233787  12.562   0.652   8.605
10652SOL     OW33788  13.433  10.942  14.190
10652SOL    HW133789  13.484  10.889  14.251
10652SOL    HW233790  13.395  10.878  14.130
10653SOL     OW33791   7.514   7.362   9.050
10653SOL    HW133792   7.593   7.310   9.032
10653SOL    HW233793   7.479   7.325   9.131
10654SOL     OW33794  11.169  14.040   8.680
10654SOL    HW133795  11.126  14.024   8.597
10654SOL    HW233796  11.235  13.971   8.687
10655SOL     OW33797   9.788  14.452   6.333
10655SOL    HW133798   9.881  14.434   6.322
10655SOL    HW233799   9.777  14.467   6.427
10656SOL     OW33800  13.514   3.930  10.206
10656SOL    HW133801  13.477   3.965  10.287
10656SOL    HW233802  13.440   3.924  10.145
10657SOL     OW33803   1.979   3.186   6.680
10657SOL    HW133804   1.944   3.258   6.627
10657SOL    HW233805   1.933   3.108   6.648
10658SOL     OW33806  11.199   1.462   0.649
10658SOL    HW133807  11.260   1.523   0.691
10658SOL    HW233808  11.225   1.462   0.557
10659SOL     OW33809  11.367   1.553   5.869
10659SOL    HW133810  11.312   1.490   5.916
10659SOL    HW233811  11.369   1.630   5.926
10660SOL     OW33812   1.182  13.830   2.943
10660SOL    HW133813   1.101  13.790   2.911
10660SOL    HW233814   1.250  13.797   2.883
10661SOL     OW33815   6.222  13.952  14.653
10661SOL    HW133816   6.180  14.036  14.633
10661SOL    HW233817   6.256  13.922  14.569
10662SOL     OW33818   4.597   7.957   2.980
10662SOL    HW133819   4.659   7.989   3.046
10662SOL    HW233820   4.652   7.912   2.916
10663SOL     OW33821  12.904  10.134  11.169
10663SOL    HW133822  12.813  10.157  11.154
10663SOL    HW233823  12.909  10.041  11.150
10664SOL     OW33824  10.322   8.211  11.674
10664SOL    HW133825  10.241   8.211  11.725
10664SOL    HW233826  10.392   8.202  11.738
10665SOL     OW33827   1.822   1.659  11.911
10665SOL    HW133828   1.836   1.732  11.851
10665SOL    HW233829   1.839   1.581  11.859
10666SOL     OW33830  13.332  13.792   1.227
10666SOL    HW133831  13.317  13.878   1.190
10666SOL    HW233832  13.426  13.777   1.216
10667SOL     OW33833   9.063  13.020  14.373
10667SOL    HW133834   8.991  12.959  14.360
10667SOL    HW233835   9.132  12.969  14.415
10668SOL     OW33836   9.956   6.036  10.626
10668SOL    HW133837   9.916   6.044  10.713
10668SOL    HW233838   9.885   6.002  10.571
10669SOL     OW33839  11.228   2.798   9.655
10669SOL    HW133840  11.226   2.703   9.644
10669SOL    HW233841  11.317   2.823   9.631
10670SOL     OW33842  10.663  10.260  11.661
10670SOL    HW133843  10.672  10.170  11.690
10670SOL    HW233844  10.596  10.298  11.718
10671SOL     OW33845   5.169   0.707   6.894
10671SOL    HW133846   5.132   0.739   6.977
10671SOL    HW233847   5.244   0.765   6.878
10672SOL     OW33848   0.488  10.428  13.010
10672SOL    HW133849   0.446  10.344  12.992
10672SOL    HW233850   0.551  10.410  13.080
10673SOL     OW33851  12.423   7.003   6.981
10673SOL    HW133852  12.421   6.989   7.075
10673SOL    HW233853  12.333   6.987   6.952
10674SOL     OW33854  13.327   0.361  13.108
10674SOL    HW133855  13.304   0.385  13.019
10674SOL    HW233856  13.243   0.349  13.153
10675SOL     OW33857   7.273   1.553   0.755
10675SOL    HW133858   7.248   1.547   0.848
10675SOL    HW233859   7.259   1.645   0.733
10676SOL     OW33860  10.730  10.333   9.851
10676SOL    HW133861  10.712  10.399   9.918
10676SOL    HW233862  10.825  10.320   9.854
10677SOL     OW33863  14.410   1.985   9.649
10677SOL    HW133864  14.454   1.900   9.639
10677SOL    HW233865  14.390   1.991   9.743
10678SOL     OW33866   2.888  11.533  12.822
10678SOL    HW133867   2.815  11.592  12.840
10678SOL    HW233868   2.858  11.447  12.852
10679SOL     OW33869   6.382   9.235   3.839
10679SOL    HW133870   6.349   9.175   3.773
10679SOL    HW233871   6.470   9.204   3.858
10680SOL     OW33872   6.872   9.517   8.357
10680SOL    HW133873   6.965   9.537   8.353
10680SOL    HW233874   6.861   9.472   8.441
10681SOL     OW33875  11.530   6.522   5.239
10681SOL    HW133876  11.585   6.587   5.282
10681SOL    HW233877  11.533   6.446   5.298
10682SOL     OW33878  12.282  13.610  13.556
10682SOL    HW133879  12.243  13.591  13.471
10682SOL    HW233880  12.213  13.591  13.619
10683SOL     OW33881  13.565  12.282   7.314
10683SOL    HW133882  13.578  12.290   7.409
10683SOL    HW233883  13.555  12.372   7.284
10684SOL     OW33884  14.108   8.964   8.450
10684SOL    HW133885  14.025   8.919   8.437
10684SOL    HW233886  14.085   9.046   8.494
10685SOL     OW33887   5.350  10.242  11.459
10685SOL    HW133888   5.427  10.187  11.446
10685SOL    HW233889   5.366  10.319  11.405
10686SOL     OW33890  10.771  11.298   7.818
10686SOL    HW133891  10.846  11.265   7.869
10686SOL    HW233892  10.731  11.364   7.876
10687SOL     OW33893  13.255   5.967   2.966
10687SOL    HW133894  13.287   5.936   3.051
10687SOL    HW233895  13.162   5.981   2.979
10688SOL     OW33896  11.966  10.278  12.741
10688SOL    HW133897  12.025  10.251  12.670
10688SOL    HW233898  12.025  10.298  12.813
10689SOL     OW33899   8.797   1.705   6.479
10689SOL    HW133900   8.773   1.649   6.553
10689SOL    HW233901   8.878   1.666   6.446
10690SOL     OW33902   0.696   9.070  11.710
10690SOL    HW133903   0.650   9.153  11.720
10690SOL    HW233904   0.627   9.004  11.706
10691SOL     OW33905  12.533  10.888  14.764
10691SOL    HW133906  12.494  10.857  14.682
10691SOL    HW233907  12.460  10.889  14.826
10692SOL     OW33908  13.149   2.423  10.214
10692SOL    HW133909  13.148   2.397  10.122
10692SOL    HW233910  13.150   2.341  10.262
10693SOL     OW33911   2.904  10.425   7.690
10693SOL    HW133912   2.864  10.495   7.639
10693SOL    HW233913   2.836  10.358   7.696
10694SOL     OW33914   1.557   8.559   2.630
10694SOL    HW133915   1.618   8.518   2.569
10694SOL    HW233916   1.537   8.491   2.694
10695SOL     OW33917  11.445   2.022   0.487
10695SOL    HW133918  11.410   2.066   0.565
10695SOL    HW233919  11.449   1.930   0.510
10696SOL     OW33920   5.004   6.831  12.696
10696SOL    HW133921   4.940   6.801  12.760
10696SOL    HW233922   5.082   6.780  12.715
10697SOL     OW33923  12.550  11.886   5.128
10697SOL    HW133924  12.500  11.856   5.052
10697SOL    HW233925  12.586  11.806   5.166
10698SOL     OW33926  12.229  11.667   0.471
10698SOL    HW133927  12.324  11.667   0.456
10698SOL    HW233928  12.192  11.684   0.384
10699SOL     OW33929  14.251   8.868   7.965
10699SOL    HW133930  14.290   8.790   7.925
10699SOL    HW233931  14.318   8.900   8.025
10700SOL     OW33932   2.561   6.794  12.670
10700SOL    HW133933   2.556   6.703  12.640
10700SOL    HW233934   2.471   6.820  12.687
10701SOL     OW33935  13.105  11.265   1.329
10701SOL    HW133936  13.150  11.183   1.308
10701SOL    HW233937  13.015  11.239   1.347
10702SOL     OW33938  14.559   2.371   0.879
10702SOL    HW133939  14.545   2.282   0.846
10702SOL    HW233940  14.633   2.404   0.828
10703SOL     OW33941   7.600   6.503  10.093
10703SOL    HW133942   7.504   6.504  10.090
10703SOL    HW233943   7.626   6.477  10.005
10704SOL     OW33944  10.886   4.687  13.886
10704SOL    HW133945  10.949   4.621  13.857
10704SOL    HW233946  10.803   4.660  13.846
10705SOL     OW33947   4.263   3.956   6.605
10705SOL    HW133948   4.266   3.970   6.700
10705SOL    HW233949   4.174   3.980   6.580
10706SOL     OW33950   5.948   4.807  10.990
10706SOL    HW133951   5.979   4.741  10.928
10706SOL    HW233952   5.874   4.848  10.945
10707SOL     OW33953   2.530  12.518   1.978
10707SOL    HW133954   2.511  12.424   1.978
10707SOL    HW233955   2.623  12.524   1.960
10708SOL     OW33956   3.909   4.351  14.011
10708SOL    HW133957   3.866   4.331  13.928
10708SOL    HW233958   3.943   4.266  14.042
10709SOL     OW33959   7.686   5.047  11.134
10709SOL    HW133960   7.629   5.039  11.058
10709SOL    HW233961   7.637   5.003  11.204
10710SOL     OW33962   8.522   5.661   9.896
10710SOL    HW133963   8.513   5.653   9.801
10710SOL    HW233964   8.495   5.751   9.915
10711SOL     OW33965  10.157   6.730  14.151
10711SOL    HW133966  10.239   6.757  14.191
10711SOL    HW233967  10.184   6.679  14.073
10712SOL     OW33968  14.305   2.850   6.176
10712SOL    HW133969  14.345   2.763   6.170
10712SOL    HW233970  14.239   2.851   6.107
10713SOL     OW33971  12.704   9.630   5.946
10713SOL    HW133972  12.688   9.545   5.986
10713SOL    HW233973  12.792   9.622   5.907
10714SOL     OW33974   1.765  14.667   0.849
10714SOL    HW133975   1.745  14.714   0.768
10714SOL    HW233976   1.763  14.734   0.917
10715SOL     OW33977   4.672   7.866   2.051
10715SOL    HW133978   4.598   7.857   2.112
10715SOL    HW233979   4.684   7.778   2.015
10716SOL     OW33980   5.119   7.420  13.426
10716SOL    HW133981   5.203   7.373  13.428
10716SOL    HW233982   5.059   7.360  13.382
10717SOL     OW33983   0.747   6.186   8.312
10717SOL    HW133984   0.681   6.177   8.381
10717SOL    HW233985   0.828   6.154   8.352
10718SOL     OW33986  13.948  14.614  12.962
10718SOL    HW133987  14.009  14.653  13.024
10718SOL    HW233988  13.921  14.532  13.004
10719SOL     OW33989   0.659   6.488   3.697
10719SOL    HW133990   0.703   6.460   3.616
10719SOL    HW233991   0.676   6.418   3.759
10720SOL     OW33992   5.985  13.445   9.241
10720SOL    HW133993   6.060  13.410   9.194
10720SOL    HW233994   5.955  13.518   9.187
10721SOL     OW33995  11.565   3.674  10.668
10721SOL    HW133996  11.519   3.718  10.739
10721SOL    HW233997  11.518   3.702  10.588
10722SOL     OW33998  11.374  11.160  10.189
10722SOL    HW133999  11.322  11.100  10.243
10722SOL    HW234000  11.320  11.238  10.181
10723SOL     OW34001   2.045   4.726   9.565
10723SOL    HW134002   2.120   4.773   9.527
10723SOL    HW234003   2.008   4.677   9.491
10724SOL     OW34004   3.968   4.526   1.377
10724SOL    HW134005   3.988   4.610   1.418
10724SOL    HW234006   4.034   4.517   1.308
10725SOL     OW34007   7.751   4.696   0.606
10725SOL    HW134008   7.728   4.789   0.606
10725SOL    HW234009   7.691   4.656   0.669
10726SOL     OW34010   9.256   9.897   0.400
10726SOL    HW134011   9.298   9.893   0.314
10726SOL    HW234012   9.328   9.889   0.462
10727SOL     OW34013   0.666   9.401   2.700
10727SOL    HW134014   0.637   9.454   2.626
10727SOL    HW234015   0.699   9.464   2.764
10728SOL     OW34016  11.552   0.066   4.039
10728SOL    HW134017  11.584   0.118   4.113
10728SOL    HW234018  11.496   0.125   3.990
10729SOL     OW34019   1.685   2.533  11.004
10729SOL    HW134020   1.759   2.544  10.944
10729SOL    HW234021   1.695   2.603  11.068
10730SOL     OW34022  13.716   0.371   0.514
10730SOL    HW134023  13.655   0.298   0.505
10730SOL    HW234024  13.671   0.433   0.572
10731SOL     OW34025   3.290   6.974  10.912
10731SOL    HW134026   3.363   6.937  10.963
10731SOL    HW234027   3.301   6.937  10.825
10732SOL     OW34028  11.040  12.969   2.828
10732SOL    HW134029  11.065  13.061   2.835
10732SOL    HW234030  10.945  12.970   2.814
10733SOL     OW34031  14.558   5.173   7.003
10733SOL    HW134032  14.509   5.202   7.081
10733SOL    HW234033  14.522   5.086   6.984
10734SOL     OW34034   0.494   6.874  10.603
10734SOL    HW134035   0.515   6.967  10.599
10734SOL    HW234036   0.565   6.834  10.653
10735SOL     OW34037   0.180   5.950   1.769
10735SOL    HW134038   0.217   6.023   1.818
10735SOL    HW234039   0.247   5.927   1.705
10736SOL     OW34040  14.398   2.268   4.895
10736SOL    HW134041  14.412   2.238   4.985
10736SOL    HW234042  14.423   2.194   4.840
10737SOL     OW34043   8.062   4.169  10.591
10737SOL    HW134044   8.133   4.217  10.549
10737SOL    HW234045   8.035   4.224  10.664
10738SOL     OW34046   6.954   3.272   6.843
10738SOL    HW134047   6.906   3.207   6.893
10738SOL    HW234048   7.042   3.234   6.832
10739SOL     OW34049  10.954   3.569  10.550
10739SOL    HW134050  11.013   3.591  10.622
10739SOL    HW234051  11.011   3.558  10.475
10740SOL     OW34052  11.834   2.669  14.728
10740SOL    HW134053  11.855   2.617  14.806
10740SOL    HW234054  11.762   2.622  14.687
10741SOL     OW34055  12.308  10.151  10.395
10741SOL    HW134056  12.240  10.190  10.340
10741SOL    HW234057  12.353  10.090  10.337
10742SOL     OW34058  12.808  10.512  10.740
10742SOL    HW134059  12.867  10.549  10.806
10742SOL    HW234060  12.776  10.431  10.779
10743SOL     OW34061   1.835  13.390  13.932
10743SOL    HW134062   1.743  13.366  13.948
10743SOL    HW234063   1.885  13.331  13.987
10744SOL     OW34064   7.133   8.906   2.564
10744SOL    HW134065   7.075   8.885   2.637
10744SOL    HW234066   7.136   8.826   2.511
10745SOL     OW34067  13.199  13.744   8.045
10745SOL    HW134068  13.256  13.785   8.110
10745SOL    HW234069  13.194  13.653   8.072
10746SOL     OW34070   7.648  14.846   3.172
10746SOL    HW134071   7.647   0.053   3.226
10746SOL    HW234072   7.569  14.799   3.196
10747SOL     OW34073   1.594  14.163  14.800
10747SOL    HW134074   1.636  14.101  14.741
10747SOL    HW234075   1.520  14.197  14.750
10748SOL     OW34076   1.962  11.758  13.833
10748SOL    HW134077   2.034  11.750  13.895
10748SOL    HW234078   1.899  11.816  13.876
10749SOL     OW34079   1.373   0.631  13.861
10749SOL    HW134080   1.295   0.585  13.894
10749SOL    HW234081   1.351   0.651  13.770
10750SOL     OW34082  12.001  14.684   8.856
10750SOL    HW134083  11.916  14.704   8.896
10750SOL    HW234084  12.065  14.714   8.920
10751SOL     OW34085   0.022   2.716   5.611
10751SOL    HW134086   0.027   2.781   5.541
10751SOL    HW234087  14.818   2.663   5.588
10752SOL     OW34088  14.675  10.647  13.937
10752SOL    HW134089  14.764  10.650  13.901
10752SOL    HW234090  14.656  10.554  13.946
10753SOL     OW34091   0.716  13.771   8.791
10753SOL    HW134092   0.718  13.701   8.726
10753SOL    HW234093   0.808  13.798   8.800
10754SOL     OW34094   9.831  13.524  14.158
10754SOL    HW134095   9.797  13.542  14.070
10754SOL    HW234096   9.875  13.606  14.183
10755SOL     OW34097   0.436  10.432  12.592
10755SOL    HW134098   0.378  10.491  12.544
10755SOL    HW234099   0.488  10.489  12.648
10756SOL     OW34100   0.908   0.155  14.865
10756SOL    HW134101   0.927   0.083  14.806
10756SOL    HW234102   0.861   0.115   0.066
10757SOL     OW34103  13.669   0.027   3.481
10757SOL    HW134104  13.729   0.094   3.512
10757SOL    HW234105  13.594   0.031   3.541
10758SOL     OW34106  14.539   5.234   5.247
10758SOL    HW134107  14.620   5.252   5.197
10758SOL    HW234108  14.483   5.188   5.184
10759SOL     OW34109   9.650  11.258   7.634
10759SOL    HW134110   9.666  11.243   7.541
10759SOL    HW234111   9.649  11.353   7.644
10760SOL     OW34112   3.973  13.710  13.255
10760SOL    HW134113   3.955  13.747  13.341
10760SOL    HW234114   3.905  13.644  13.242
10761SOL     OW34115   5.336  14.630   8.927
10761SOL    HW134116   5.243  14.626   8.948
10761SOL    HW234117   5.371  14.698   8.984
10762SOL     OW34118   3.056   2.568  13.439
10762SOL    HW134119   3.086   2.490  13.486
10762SOL    HW234120   2.963   2.574  13.461
10763SOL     OW34121  12.750  10.020   8.580
10763SOL    HW134122  12.677  10.082   8.582
10763SOL    HW234123  12.734   9.968   8.501
10764SOL     OW34124   4.722   6.646   9.543
10764SOL    HW134125   4.785   6.685   9.603
10764SOL    HW234126   4.762   6.564   9.514
10765SOL     OW34127   6.271   9.943   7.086
10765SOL    HW134128   6.280   9.996   7.165
10765SOL    HW234129   6.228  10.000   7.023
10766SOL     OW34130  14.260   1.911  11.716
10766SOL    HW134131  14.229   1.857  11.643
10766SOL    HW234132  14.268   1.999  11.679
10767SOL     OW34133  12.470  11.106  13.920
10767SOL    HW134134  12.506  11.068  13.839
10767SOL    HW234135  12.430  11.031  13.965
10768SOL     OW34136   5.690   2.788   8.476
10768SOL    HW134137   5.647   2.873   8.464
10768SOL    HW234138   5.783   2.809   8.482
10769SOL     OW34139   6.959  11.551  11.824
10769SOL    HW134140   7.024  11.520  11.887
10769SOL    HW234141   7.005  11.616  11.771
10770SOL     OW34142   2.530   0.330   4.411
10770SOL    HW134143   2.554   0.240   4.390
10770SOL    HW234144   2.562   0.343   4.500
10771SOL     OW34145   9.626   3.527  13.204
10771SOL    HW134146   9.547   3.502  13.154
10771SOL    HW234147   9.649   3.613  13.170
10772SOL     OW34148  14.010  11.043  12.698
10772SOL    HW134149  13.971  11.130  12.697
10772SOL    HW234150  13.951  10.992  12.754
10773SOL     OW34151  10.278   8.543  12.931
10773SOL    HW134152  10.249   8.549  13.022
10773SOL    HW234153  10.295   8.634  12.905
10774SOL     OW34154  10.351  14.024   7.723
10774SOL    HW134155  10.281  14.075   7.682
10774SOL    HW234156  10.429  14.079   7.712
10775SOL     OW34157   1.392   6.388  14.786
10775SOL    HW134158   1.460   6.380  14.854
10775SOL    HW234159   1.441   6.414  14.707
10776SOL     OW34160   5.915  14.464  10.344
10776SOL    HW134161   5.977  14.434  10.410
10776SOL    HW234162   5.859  14.388  10.328
10777SOL     OW34163   7.198   4.593  10.654
10777SOL    HW134164   7.246   4.633  10.727
10777SOL    HW234165   7.263   4.539  10.610
10778SOL     OW34166  12.375   2.685   8.112
10778SOL    HW134167  12.363   2.770   8.154
10778SOL    HW234168  12.287   2.646   8.112
10779SOL     OW34169   7.365  11.970   8.235
10779SOL    HW134170   7.272  11.966   8.256
10779SOL    HW234171   7.383  11.890   8.185
10780SOL     OW34172   1.927   7.260   9.206
10780SOL    HW134173   1.991   7.311   9.157
10780SOL    HW234174   1.973   7.233   9.286
10781SOL     OW34175   1.815   9.888   3.312
10781SOL    HW134176   1.813   9.814   3.252
10781SOL    HW234177   1.820   9.848   3.399
10782SOL     OW34178  10.582   5.592  10.127
10782SOL    HW134179  10.621   5.566  10.043
10782SOL    HW234180  10.573   5.510  10.175
10783SOL     OW34181  14.827   5.754  11.990
10783SOL    HW134182   0.016   5.701  12.040
10783SOL    HW234183  14.860   5.844  12.000
10784SOL     OW34184   7.563  11.472   1.290
10784SOL    HW134185   7.566  11.440   1.380
10784SOL    HW234186   7.586  11.397   1.236
10785SOL     OW34187  13.671   0.315  11.663
10785SOL    HW134188  13.743   0.361  11.619
10785SOL    HW234189  13.635   0.257  11.596
10786SOL     OW34190   0.502   5.038  11.345
10786SOL    HW134191   0.436   4.990  11.395
10786SOL    HW234192   0.507   5.123  11.388
10787SOL     OW34193   0.336   7.148   3.228
10787SOL    HW134194   0.373   7.113   3.309
10787SOL    HW234195   0.410   7.191   3.185
10788SOL     OW34196   7.106   9.274   6.971
10788SOL    HW134197   7.032   9.230   6.927
10788SOL    HW234198   7.167   9.293   6.900
10789SOL     OW34199  12.749  10.963   1.738
10789SOL    HW134200  12.711  10.925   1.817
10789SOL    HW234201  12.826  11.011   1.768
10790SOL     OW34202   5.545  12.367   2.610
10790SOL    HW134203   5.563  12.371   2.704
10790SOL    HW234204   5.603  12.433   2.572
10791SOL     OW34205   8.049   5.945   1.741
10791SOL    HW134206   8.090   5.880   1.797
10791SOL    HW234207   7.958   5.916   1.732
10792SOL     OW34208   5.346   1.059   4.132
10792SOL    HW134209   5.337   1.100   4.218
10792SOL    HW234210   5.267   1.006   4.123
10793SOL     OW34211   6.302   8.240   1.584
10793SOL    HW134212   6.256   8.158   1.600
10793SOL    HW234213   6.373   8.216   1.525
10794SOL     OW34214   7.394  14.500   5.021
10794SOL    HW134215   7.413  14.412   4.989
10794SOL    HW234216   7.461  14.555   4.980
10795SOL     OW34217  12.145   2.950   9.505
10795SOL    HW134218  12.073   2.984   9.452
10795SOL    HW234219  12.192   2.891   9.447
10796SOL     OW34220  14.489   5.702  12.488
10796SOL    HW134221  14.539   5.651  12.424
10796SOL    HW234222  14.549   5.714  12.561
10797SOL     OW34223   2.193  11.746   7.668
10797SOL    HW134224   2.144  11.668   7.694
10797SOL    HW234225   2.128  11.806   7.635
10798SOL     OW34226   3.500  10.585   1.554
10798SOL    HW134227   3.500  10.628   1.468
10798SOL    HW234228   3.440  10.511   1.543
10799SOL     OW34229  11.171   3.979  13.724
10799SOL    HW134230  11.206   3.989  13.813
10799SOL    HW234231  11.077   3.962  13.737
10800SOL     OW34232   8.330   7.457   0.475
10800SOL    HW134233   8.246   7.501   0.489
10800SOL    HW234234   8.381   7.478   0.553
10801SOL     OW34235   9.366   4.863  12.878
10801SOL    HW134236   9.274   4.884  12.864
10801SOL    HW234237   9.398   4.932  12.936
10802SOL     OW34238   8.577   2.129  11.484
10802SOL    HW134239   8.668   2.100  11.487
10802SOL    HW234240   8.583   2.225  11.494
10803SOL     OW34241   8.478   6.842   6.754
10803SOL    HW134242   8.451   6.916   6.808
10803SOL    HW234243   8.540   6.794   6.809
10804SOL     OW34244   0.138   7.932   4.916
10804SOL    HW134245   0.085   8.003   4.953
10804SOL    HW234246   0.220   7.975   4.890
10805SOL     OW34247   2.874  14.337   3.948
10805SOL    HW134248   2.942  14.273   3.926
10805SOL    HW234249   2.822  14.345   3.868
10806SOL     OW34250  12.977   4.769   3.447
10806SOL    HW134251  12.992   4.753   3.540
10806SOL    HW234252  12.903   4.829   3.444
10807SOL     OW34253  14.195   7.478   6.134
10807SOL    HW134254  14.132   7.406   6.139
10807SOL    HW234255  14.278   7.435   6.112
10808SOL     OW34256   8.375   7.640  10.207
10808SOL    HW134257   8.395   7.653  10.299
10808SOL    HW234258   8.412   7.555  10.186
10809SOL     OW34259  11.430   7.977   0.722
10809SOL    HW134260  11.492   8.044   0.750
10809SOL    HW234261  11.480   7.896   0.721
10810SOL     OW34262   6.211  14.437   8.101
10810SOL    HW134263   6.229  14.522   8.059
10810SOL    HW234264   6.294  14.413   8.142
10811SOL     OW34265   9.357   4.273   0.409
10811SOL    HW134266   9.313   4.225   0.338
10811SOL    HW234267   9.388   4.205   0.468
10812SOL     OW34268   2.891   5.161   9.600
10812SOL    HW134269   2.933   5.212   9.670
10812SOL    HW234270   2.813   5.124   9.641
10813SOL     OW34271   2.691   0.076   5.807
10813SOL    HW134272   2.679  14.858   5.780
10813SOL    HW234273   2.764   0.073   5.869
10814SOL     OW34274  11.773  14.473  10.308
10814SOL    HW134275  11.795  14.542  10.245
10814SOL    HW234276  11.728  14.406  10.256
10815SOL     OW34277  14.206   3.857  11.748
10815SOL    HW134278  14.230   3.938  11.792
10815SOL    HW234279  14.124   3.877  11.703
10816SOL     OW34280  10.821   4.210   1.317
10816SOL    HW134281  10.893   4.151   1.293
10816SOL    HW234282  10.761   4.206   1.243
10817SOL     OW34283  14.570   2.058   7.719
10817SOL    HW134284  14.590   2.132   7.776
10817SOL    HW234285  14.501   2.090   7.661
10818SOL     OW34286  14.596   2.553   1.107
10818SOL    HW134287  14.690   2.572   1.100
10818SOL    HW234288  14.585   2.470   1.061
10819SOL     OW34289   3.875   6.112  12.895
10819SOL    HW134290   3.942   6.153  12.841
10819SOL    HW234291   3.798   6.167  12.883
10820SOL     OW34292  14.592  12.831  12.849
10820SOL    HW134293  14.641  12.749  12.841
10820SOL    HW234294  14.658  12.900  12.841
10821SOL     OW34295   9.829   4.664   0.040
10821SOL    HW134296   9.873   4.716  14.845
10821SOL    HW234297   9.860   4.575   0.025
10822SOL     OW34298   5.548  10.931  13.780
10822SOL    HW134299   5.629  10.950  13.732
10822SOL    HW234300   5.497  10.877  13.720
10823SOL     OW34301   4.455  13.850  12.575
10823SOL    HW134302   4.429  13.890  12.492
10823SOL    HW234303   4.378  13.801  12.603
10824SOL     OW34304   0.876   1.695   5.559
10824SOL    HW134305   0.857   1.604   5.582
10824SOL    HW234306   0.953   1.717   5.611
10825SOL     OW34307   0.928   2.108   6.296
10825SOL    HW134308   0.961   2.183   6.347
10825SOL    HW234309   0.862   2.145   6.239
10826SOL     OW34310  12.421   2.126   2.750
10826SOL    HW134311  12.388   2.130   2.660
10826SOL    HW234312  12.386   2.044   2.785
10827SOL     OW34313  14.793  14.721   5.899
10827SOL    HW134314  14.787  14.667   5.821
10827SOL    HW234315   0.015  14.734   5.911
10828SOL     OW34316  10.648   4.747   5.060
10828SOL    HW134317  10.600   4.792   5.130
10828SOL    HW234318  10.615   4.786   4.980
10829SOL     OW34319   6.925  12.896   7.061
10829SOL    HW134320   6.902  12.815   7.105
10829SOL    HW234321   6.996  12.933   7.114
10830SOL     OW34322  10.250  10.014   2.912
10830SOL    HW134323  10.343   9.991   2.910
10830SOL    HW234324  10.236  10.062   2.831
10831SOL     OW34325   4.068   0.822   1.382
10831SOL    HW134326   4.088   0.882   1.311
10831SOL    HW234327   4.102   0.738   1.353
10832SOL     OW34328   8.588   9.496   5.336
10832SOL    HW134329   8.498   9.509   5.367
10832SOL    HW234330   8.642   9.499   5.415
10833SOL     OW34331  14.312   0.441  14.631
10833SOL    HW134332  14.225   0.473  14.604
10833SOL    HW234333  14.294   0.359  14.677
10834SOL     OW34334   3.762   1.705  10.158
10834SOL    HW134335   3.709   1.665  10.227
10834SOL    HW234336   3.805   1.779  10.200
10835SOL     OW34337   8.643  11.725  14.413
10835SOL    HW134338   8.738  11.731  14.403
10835SOL    HW234339   8.609  11.788  14.349
10836SOL     OW34340   0.684   2.718   5.046
10836SOL    HW134341   0.603   2.667   5.056
10836SOL    HW234342   0.656   2.801   5.010
10837SOL     OW34343   2.994  10.417   0.832
10837SOL    HW134344   2.970  10.464   0.752
10837SOL    HW234345   2.952  10.468   0.902
10838SOL     OW34346  13.391   6.113   8.734
10838SOL    HW134347  13.484   6.109   8.710
10838SOL    HW234348  13.347   6.062   8.666
10839SOL     OW34349  14.001  14.031   6.834
10839SOL    HW134350  14.023  14.073   6.751
10839SOL    HW234351  13.996  14.104   6.896
10840SOL     OW34352  12.547   4.781   3.710
10840SOL    HW134353  12.494   4.808   3.635
10840SOL    HW234354  12.615   4.849   3.717
10841SOL     OW34355  12.708   7.380   0.683
10841SOL    HW134356  12.790   7.338   0.655
10841SOL    HW234357  12.735   7.466   0.713
10842SOL     OW34358   7.958   8.731   7.301
10842SOL    HW134359   8.003   8.814   7.282
10842SOL    HW234360   8.023   8.664   7.282
10843SOL     OW34361  13.898   7.439   1.306
10843SOL    HW134362  13.943   7.354   1.313
10843SOL    HW234363  13.927   7.487   1.384
10844SOL     OW34364   5.711  12.606   6.738
10844SOL    HW134365   5.805  12.615   6.724
10844SOL    HW234366   5.699  12.517   6.771
10845SOL     OW34367   7.379   5.429   8.319
10845SOL    HW134368   7.382   5.507   8.375
10845SOL    HW234369   7.291   5.430   8.282
10846SOL     OW34370  13.358  10.596  12.011
10846SOL    HW134371  13.279  10.583  11.959
10846SOL    HW234372  13.362  10.520  12.069
10847SOL     OW34373   5.153   0.832   0.536
10847SOL    HW134374   5.196   0.915   0.555
10847SOL    HW234375   5.219   0.766   0.557
10848SOL     OW34376   6.607  10.052   2.675
10848SOL    HW134377   6.589   9.962   2.648
10848SOL    HW234378   6.699  10.051   2.702
10849SOL     OW34379   3.449   5.413   1.910
10849SOL    HW134380   3.499   5.390   1.988
10849SOL    HW234381   3.361   5.432   1.943
10850SOL     OW34382   5.085   4.953   6.543
10850SOL    HW134383   5.164   4.925   6.590
10850SOL    HW234384   5.024   4.980   6.612
10851SOL     OW34385   9.887   6.355   1.380
10851SOL    HW134386   9.928   6.378   1.297
10851SOL    HW234387   9.793   6.363   1.363
10852SOL     OW34388  11.795   1.274  14.186
10852SOL    HW134389  11.701   1.276  14.171
10852SOL    HW234390  11.833   1.295  14.101
10853SOL     OW34391   5.277  13.488   6.762
10853SOL    HW134392   5.316  13.448   6.839
10853SOL    HW234393   5.206  13.542   6.796
10854SOL     OW34394   7.565  13.328   1.618
10854SOL    HW134395   7.547  13.350   1.709
10854SOL    HW234396   7.600  13.408   1.580
10855SOL     OW34397   5.210  13.957   5.137
10855SOL    HW134398   5.183  14.048   5.125
10855SOL    HW234399   5.264  13.959   5.216
10856SOL     OW34400   1.238  10.256   8.247
10856SOL    HW134401   1.200  10.198   8.312
10856SOL    HW234402   1.197  10.341   8.263
10857SOL     OW34403  13.230  10.993   6.647
10857SOL    HW134404  13.202  11.072   6.600
10857SOL    HW234405  13.151  10.964   6.692
10858SOL     OW34406  14.258  11.622   4.253
10858SOL    HW134407  14.284  11.706   4.214
10858SOL    HW234408  14.165  11.634   4.273
10859SOL     OW34409   0.487   3.631  13.384
10859SOL    HW134410   0.433   3.647  13.461
10859SOL    HW234411   0.428   3.592  13.320
10860SOL     OW34412   6.741   9.080   4.393
10860SOL    HW134413   6.737   9.165   4.437
10860SOL    HW234414   6.826   9.079   4.350
10861SOL     OW34415  10.953   3.394   3.858
10861SOL    HW134416  10.939   3.355   3.772
10861SOL    HW234417  10.976   3.485   3.841
10862SOL     OW34418   1.999  13.432   7.925
10862SOL    HW134419   1.982  13.427   7.831
10862SOL    HW234420   1.981  13.523   7.948
10863SOL     OW34421  11.013   0.159   0.090
10863SOL    HW134422  11.078   0.128   0.152
10863SOL    HW234423  11.065   0.197   0.018
10864SOL     OW34424   5.941  14.354   4.687
10864SOL    HW134425   5.853  14.382   4.711
10864SOL    HW234426   5.933  14.321   4.598
10865SOL     OW34427  12.252  11.542   9.148
10865SOL    HW134428  12.212  11.469   9.195
10865SOL    HW234429  12.217  11.621   9.190
10866SOL     OW34430  10.625   6.444   1.808
10866SOL    HW134431  10.597   6.405   1.891
10866SOL    HW234432  10.635   6.537   1.827
10867SOL     OW34433   2.952  13.438  12.841
10867SOL    HW134434   2.949  13.529  12.870
10867SOL    HW234435   2.982  13.442  12.750
10868SOL     OW34436   8.816  13.263   4.684
10868SOL    HW134437   8.888  13.234   4.740
10868SOL    HW234438   8.762  13.185   4.671
10869SOL     OW34439   4.889  14.515  14.264
10869SOL    HW134440   4.861  14.590  14.317
10869SOL    HW234441   4.984  14.528  14.254
10870SOL     OW34442  10.400   1.718  10.267
10870SOL    HW134443  10.430   1.723  10.358
10870SOL    HW234444  10.452   1.783  10.221
10871SOL     OW34445   0.009   7.314  13.838
10871SOL    HW134446  14.850   7.392  13.793
10871SOL    HW234447  14.808   7.253  13.835
10872SOL     OW34448  13.834  12.259  14.355
10872SOL    HW134449  13.926  12.281  14.366
10872SOL    HW234450  13.835  12.171  14.317
10873SOL     OW34451   1.542   8.007   1.371
10873SOL    HW134452   1.535   7.992   1.276
10873SOL    HW234453   1.529   8.101   1.381
10874SOL     OW34454  12.841   4.484   9.060
10874SOL    HW134455  12.761   4.433   9.065
10874SOL    HW234456  12.815   4.573   9.083
10875SOL     OW34457   0.100   5.225  12.695
10875SOL    HW134458   0.103   5.129  12.701
10875SOL    HW234459   0.010   5.247  12.721
10876SOL     OW34460   8.856   3.623   5.667
10876SOL    HW134461   8.877   3.570   5.744
10876SOL    HW234462   8.925   3.689   5.664
10877SOL     OW34463  11.182   5.558  10.917
10877SOL    HW134464  11.267   5.516  10.900
10877SOL    HW234465  11.204   5.642  10.956
10878SOL     OW34466  12.509   6.464   8.880
10878SOL    HW134467  12.534   6.433   8.793
10878SOL    HW234468  12.443   6.531   8.864
10879SOL     OW34469   0.564   7.457   5.010
10879SOL    HW134470   0.534   7.524   5.071
10879SOL    HW234471   0.635   7.499   4.961
10880SOL     OW34472   8.959  13.753   2.473
10880SOL    HW134473   9.033  13.800   2.436
10880SOL    HW234474   8.952  13.785   2.563
10881SOL     OW34475   7.002   7.668  11.405
10881SOL    HW134476   7.083   7.711  11.432
10881SOL    HW234477   7.030   7.582  11.375
10882SOL     OW34478   3.880   6.278   4.987
10882SOL    HW134479   3.958   6.333   4.980
10882SOL    HW234480   3.876   6.255   5.080
10883SOL     OW34481   3.232   3.150  13.369
10883SOL    HW134482   3.170   3.214  13.402
10883SOL    HW234483   3.277   3.117  13.447
10884SOL     OW34484   5.227   7.307   2.305
10884SOL    HW134485   5.199   7.313   2.214
10884SOL    HW234486   5.273   7.390   2.321
10885SOL     OW34487  12.894   1.179  10.635
10885SOL    HW134488  12.887   1.106  10.573
10885SOL    HW234489  12.905   1.256  10.580
10886SOL     OW34490   6.397  10.822  14.381
10886SOL    HW134491   6.394  10.758  14.452
10886SOL    HW234492   6.446  10.780  14.312
10887SOL     OW34493   3.399   3.477   0.151
10887SOL    HW134494   3.418   3.461   0.243
10887SOL    HW234495   3.422   3.569   0.138
10888SOL     OW34496   8.273   2.155   8.875
10888SOL    HW134497   8.277   2.233   8.930
10888SOL    HW234498   8.239   2.186   8.791
10889SOL     OW34499  12.245  14.652   7.540
10889SOL    HW134500  12.264  14.630   7.449
10889SOL    HW234501  12.150  14.644   7.548
10890SOL     OW34502   0.415   5.944   5.938
10890SOL    HW134503   0.390   5.910   6.024
10890SOL    HW234504   0.336   5.986   5.904
10891SOL     OW34505  13.645   0.783   8.776
10891SOL    HW134506  13.663   0.818   8.689
10891SOL    HW234507  13.559   0.819   8.799
10892SOL     OW34508  11.421   3.374   1.276
10892SOL    HW134509  11.471   3.293   1.288
10892SOL    HW234510  11.417   3.386   1.181
10893SOL     OW34511   6.974   8.026  13.858
10893SOL    HW134512   6.939   8.055  13.943
10893SOL    HW234513   7.039   7.959  13.880
10894SOL     OW34514   7.475   6.189   0.967
10894SOL    HW134515   7.498   6.112   1.020
10894SOL    HW234516   7.384   6.173   0.941
10895SOL     OW34517  13.672   3.886  11.095
10895SOL    HW134518  13.684   3.813  11.034
10895SOL    HW234519  13.598   3.935  11.059
10896SOL     OW34520  13.904  10.016   0.411
10896SOL    HW134521  13.860   9.983   0.333
10896SOL    HW234522  13.980  10.063   0.378
10897SOL     OW34523   9.759   8.297   7.340
10897SOL    HW134524   9.763   8.365   7.273
10897SOL    HW234525   9.742   8.216   7.292
10898SOL     OW34526  10.702   6.999  12.457
10898SOL    HW134527  10.688   6.930  12.522
10898SOL    HW234528  10.767   6.962  12.397
10899SOL     OW34529   3.746   3.763   3.842
10899SOL    HW134530   3.705   3.732   3.761
10899SOL    HW234531   3.829   3.716   3.847
10900SOL     OW34532  12.307   5.145  14.300
10900SOL    HW134533  12.372   5.215  14.291
10900SOL    HW234534  12.340   5.073  14.246
10901SOL     OW34535   9.879   5.632   4.378
10901SOL    HW134536   9.961   5.681   4.373
10901SOL    HW234537   9.850   5.626   4.287
10902SOL     OW34538   7.946   4.664   6.868
10902SOL    HW134539   7.855   4.639   6.881
10902SOL    HW234540   7.979   4.685   6.956
10903SOL     OW34541   9.297   4.646   5.274
10903SOL    HW134542   9.264   4.689   5.354
10903SOL    HW234543   9.372   4.700   5.248
10904SOL     OW34544  11.882   9.171   1.143
10904SOL    HW134545  11.928   9.242   1.188
10904SOL    HW234546  11.825   9.216   1.080
10905SOL     OW34547   9.086   0.893   6.693
10905SOL    HW134548   9.011   0.952   6.691
10905SOL    HW234549   9.096   0.865   6.602
10906SOL     OW34550  10.697   0.760   9.539
10906SOL    HW134551  10.767   0.806   9.585
10906SOL    HW234552  10.668   0.821   9.471
10907SOL     OW34553  11.924   1.242  14.836
10907SOL    HW134554  11.845   1.292  14.817
10907SOL    HW234555  11.926   1.236   0.059
10908SOL     OW34556   5.138   7.676   4.243
10908SOL    HW134557   5.192   7.598   4.256
10908SOL    HW234558   5.121   7.677   4.149
10909SOL     OW34559   3.096  12.815   5.776
10909SOL    HW134560   3.088  12.781   5.687
10909SOL    HW234561   3.036  12.889   5.779
10910SOL     OW34562   3.963   3.979   7.982
10910SOL    HW134563   3.908   4.049   8.017
10910SOL    HW234564   3.908   3.936   7.916
10911SOL     OW34565   8.836  13.618   1.601
10911SOL    HW134566   8.823  13.627   1.696
10911SOL    HW234567   8.834  13.524   1.585
10912SOL     OW34568   5.514   1.943  11.703
10912SOL    HW134569   5.455   1.943  11.627
10912SOL    HW234570   5.456   1.947  11.779
10913SOL     OW34571  13.997   9.950   5.325
10913SOL    HW134572  13.951   9.925   5.406
10913SOL    HW234573  14.043   9.871   5.298
10914SOL     OW34574   6.298   9.472   9.460
10914SOL    HW134575   6.238   9.499   9.391
10914SOL    HW234576   6.261   9.390   9.493
10915SOL     OW34577   8.458   7.293   6.416
10915SOL    HW134578   8.433   7.251   6.498
10915SOL    HW234579   8.502   7.224   6.366
10916SOL     OW34580  12.866   3.938  11.205
10916SOL    HW134581  12.842   3.935  11.113
10916SOL    HW234582  12.811   4.007  11.242
10917SOL     OW34583   5.661  10.719   0.801
10917SOL    HW134584   5.693  10.736   0.712
10917SOL    HW234585   5.601  10.791   0.819
10918SOL     OW34586   4.610   1.999   8.691
10918SOL    HW134587   4.539   2.054   8.656
10918SOL    HW234588   4.588   1.986   8.783
10919SOL     OW34589   1.542   3.987  12.100
10919SOL    HW134590   1.630   3.955  12.079
10919SOL    HW234591   1.541   3.994  12.196
10920SOL     OW34592   1.014   1.262   5.704
10920SOL    HW134593   0.972   1.211   5.773
10920SOL    HW234594   0.943   1.314   5.665
10921SOL     OW34595  10.424   8.750   9.422
10921SOL    HW134596  10.453   8.768   9.333
10921SOL    HW234597  10.336   8.788   9.428
10922SOL     OW34598  14.407   8.639   8.553
10922SOL    HW134599  14.427   8.722   8.597
10922SOL    HW234600  14.384   8.579   8.624
10923SOL     OW34601   6.721   4.822   1.274
10923SOL    HW134602   6.640   4.812   1.224
10923SOL    HW234603   6.747   4.913   1.259
10924SOL     OW34604   4.555   9.218   4.771
10924SOL    HW134605   4.502   9.264   4.836
10924SOL    HW234606   4.590   9.142   4.819
10925SOL     OW34607   9.036   6.306  10.128
10925SOL    HW134608   9.010   6.396  10.105
10925SOL    HW234609   9.115   6.317  10.181
10926SOL     OW34610   9.652   2.839   3.536
10926SOL    HW134611   9.725   2.845   3.598
10926SOL    HW234612   9.687   2.787   3.464
10927SOL     OW34613   6.415   4.670   7.953
10927SOL    HW134614   6.505   4.648   7.931
10927SOL    HW234615   6.373   4.585   7.969
10928SOL     OW34616   0.809   6.019   7.300
10928SOL    HW134617   0.793   5.925   7.291
10928SOL    HW234618   0.859   6.026   7.381
10929SOL     OW34619  11.312   5.206   8.529
10929SOL    HW134620  11.388   5.252   8.565
10929SOL    HW234621  11.347   5.124   8.496
10930SOL     OW34622   2.666   8.814  14.842
10930SOL    HW134623   2.643   8.836   0.060
10930SOL    HW234624   2.761   8.828  14.838
10931SOL     OW34625  14.675   3.202   6.609
10931SOL    HW134626  14.734   3.267   6.569
10931SOL    HW234627  14.605   3.254   6.648
10932SOL     OW34628   3.246  13.193   6.580
10932SOL    HW134629   3.258  13.282   6.546
10932SOL    HW234630   3.334  13.163   6.600
10933SOL     OW34631   0.101   1.579   4.183
10933SOL    HW134632   0.132   1.554   4.096
10933SOL    HW234633   0.157   1.652   4.209
10934SOL     OW34634  13.695  10.551   4.155
10934SOL    HW134635  13.755  10.523   4.224
10934SOL    HW234636  13.628  10.602   4.200
10935SOL     OW34637  10.782   8.061   0.063
10935SOL    HW134638  10.715   8.109   0.113
10935SOL    HW234639  10.829   8.010   0.129
10936SOL     OW34640   8.912  12.433   8.184
10936SOL    HW134641   8.972  12.477   8.123
10936SOL    HW234642   8.964  12.362   8.222
10937SOL     OW34643   1.779   7.782   1.821
10937SOL    HW134644   1.734   7.852   1.773
10937SOL    HW234645   1.806   7.720   1.753
10938SOL     OW34646  13.478  12.780  11.459
10938SOL    HW134647  13.548  12.728  11.421
10938SOL    HW234648  13.521  12.833  11.526
10939SOL     OW34649   9.025  14.710  13.316
10939SOL    HW134650   9.117  14.735  13.304
10939SOL    HW234651   8.982  14.790  13.345
10940SOL     OW34652   6.706   9.299  12.915
10940SOL    HW134653   6.662   9.217  12.936
10940SOL    HW234654   6.636   9.356  12.881
10941SOL     OW34655   0.726   3.160  10.998
10941SOL    HW134656   0.771   3.244  11.015
10941SOL    HW234657   0.766   3.128  10.917
10942SOL     OW34658   6.600   9.909  14.080
10942SOL    HW134659   6.689   9.903  14.115
10942SOL    HW234660   6.557   9.829  14.110
10943SOL     OW34661   4.625  13.668  14.581
10943SOL    HW134662   4.537  13.694  14.608
10943SOL    HW234663   4.611  13.617  14.501
10944SOL     OW34664   7.489  13.137   3.325
10944SOL    HW134665   7.572  13.134   3.277
10944SOL    HW234666   7.429  13.083   3.274
10945SOL     OW34667   5.719   3.783  14.177
10945SOL    HW134668   5.708   3.871  14.212
10945SOL    HW234669   5.678   3.726  14.242
10946SOL     OW34670   3.078   6.215   6.661
10946SOL    HW134671   3.115   6.271   6.593
10946SOL    HW234672   3.150   6.202   6.723
10947SOL     OW34673   6.155  13.810  10.788
10947SOL    HW134674   6.249  13.795  10.804
10947SOL    HW234675   6.112  13.735  10.829
10948SOL     OW34676   6.935   2.072   8.446
10948SOL    HW134677   6.867   2.139   8.443
10948SOL    HW234678   7.017   2.120   8.434
10949SOL     OW34679  14.824   6.793  11.799
10949SOL    HW134680  14.736   6.771  11.768
10949SOL    HW234681  14.814   6.805  11.893
10950SOL     OW34682   0.846   3.187   9.245
10950SOL    HW134683   0.923   3.240   9.225
10950SOL    HW234684   0.789   3.245   9.296
10951SOL     OW34685  14.145   0.056   3.896
10951SOL    HW134686  14.204   0.120   3.856
10951SOL    HW234687  14.118   0.097   3.978
10952SOL     OW34688  12.098   2.545  10.233
10952SOL    HW134689  12.153   2.568  10.158
10952SOL    HW234690  12.023   2.500  10.195
10953SOL     OW34691   8.467   5.499  14.115
10953SOL    HW134692   8.409   5.573  14.095
10953SOL    HW234693   8.410   5.432  14.151
10954SOL     OW34694  10.125   1.856  14.496
10954SOL    HW134695  10.197   1.905  14.536
10954SOL    HW234696  10.095   1.913  14.425
10955SOL     OW34697  14.614  12.010   2.740
10955SOL    HW134698  14.677  11.943   2.765
10955SOL    HW234699  14.547  12.006   2.809
10956SOL     OW34700  13.163   4.033   8.823
10956SOL    HW134701  13.155   4.080   8.906
10956SOL    HW234702  13.084   4.056   8.774
10957SOL     OW34703  13.859  14.395  13.124
10957SOL    HW134704  13.826  14.336  13.192
10957SOL    HW234705  13.913  14.340  13.068
10958SOL     OW34706   2.538   3.218  10.963
10958SOL    HW134707   2.552   3.282  10.893
10958SOL    HW234708   2.621   3.218  11.012
10959SOL     OW34709  10.482   7.771   3.839
10959SOL    HW134710  10.578   7.777   3.839
10959SOL    HW234711  10.455   7.819   3.917
10960SOL     OW34712   5.108   2.578   6.526
10960SOL    HW134713   5.187   2.582   6.473
10960SOL    HW234714   5.139   2.559   6.615
10961SOL     OW34715   3.535   1.710  13.903
10961SOL    HW134716   3.449   1.718  13.945
10961SOL    HW234717   3.533   1.773  13.832
10962SOL     OW34718  14.764   3.421   5.568
10962SOL    HW134719  14.810   3.406   5.485
10962SOL    HW234720  14.764   3.516   5.578
10963SOL     OW34721  13.875  10.903  13.218
10963SOL    HW134722  13.928  10.824  13.221
10963SOL    HW234723  13.864  10.929  13.310
10964SOL     OW34724   4.809   5.528   2.444
10964SOL    HW134725   4.831   5.484   2.526
10964SOL    HW234726   4.836   5.619   2.458
10965SOL     OW34727  10.960   6.190  14.066
10965SOL    HW134728  10.931   6.249  13.996
10965SOL    HW234729  11.014   6.125  14.021
10966SOL     OW34730   9.664  11.177  14.200
10966SOL    HW134731   9.664  11.090  14.161
10966SOL    HW234732   9.574  11.209  14.188
10967SOL     OW34733  13.975   2.919   1.781
10967SOL    HW134734  14.040   2.986   1.762
10967SOL    HW234735  13.980   2.908   1.876
10968SOL     OW34736  13.363   3.137  10.675
10968SOL    HW134737  13.281   3.174  10.708
10968SOL    HW234738  13.366   3.163  10.583
10969SOL     OW34739   3.405   7.223   0.740
10969SOL    HW134740   3.409   7.206   0.834
10969SOL    HW234741   3.497   7.227   0.712
10970SOL     OW34742  11.284   0.906   3.537
10970SOL    HW134743  11.191   0.884   3.532
10970SOL    HW234744  11.307   0.931   3.448
10971SOL     OW34745  14.395   8.171  11.600
10971SOL    HW134746  14.366   8.179  11.509
10971SOL    HW234747  14.379   8.257  11.639
10972SOL     OW34748   4.221  14.379  12.077
10972SOL    HW134749   4.160  14.317  12.038
10972SOL    HW234750   4.298  14.327  12.100
10973SOL     OW34751   2.439   8.476   6.865
10973SOL    HW134752   2.352   8.498   6.898
10973SOL    HW234753   2.499   8.513   6.929
10974SOL     OW34754   6.577   9.675   3.164
10974SOL    HW134755   6.493   9.672   3.119
10974SOL    HW234756   6.636   9.719   3.102
10975SOL     OW34757   8.416   1.266  12.460
10975SOL    HW134758   8.470   1.189  12.478
10975SOL    HW234759   8.328   1.241  12.488
10976SOL     OW34760  14.001   9.625  11.937
10976SOL    HW134761  13.974   9.534  11.953
10976SOL    HW234762  14.063   9.644  12.008
10977SOL     OW34763   2.717   4.552   7.923
10977SOL    HW134764   2.641   4.551   7.865
10977SOL    HW234765   2.765   4.473   7.900
10978SOL     OW34766   1.757  11.177  13.305
10978SOL    HW134767   1.823  11.221  13.251
10978SOL    HW234768   1.780  11.201  13.395
10979SOL     OW34769  10.578   0.556   2.322
10979SOL    HW134770  10.662   0.527   2.356
10979SOL    HW234771  10.590   0.561   2.228
10980SOL     OW34772  11.914  12.287  13.270
10980SOL    HW134773  11.818  12.283  13.270
10980SOL    HW234774  11.937  12.298  13.178
10981SOL     OW34775   6.370   6.128  10.562
10981SOL    HW134776   6.428   6.096  10.631
10981SOL    HW234777   6.428   6.138  10.486
10982SOL     OW34778   4.038   8.190   5.155
10982SOL    HW134779   4.091   8.146   5.221
10982SOL    HW234780   3.998   8.264   5.202
10983SOL     OW34781  11.348   1.678   2.573
10983SOL    HW134782  11.306   1.657   2.657
10983SOL    HW234783  11.418   1.613   2.565
10984SOL     OW34784  12.166   5.503   8.762
10984SOL    HW134785  12.150   5.568   8.830
10984SOL    HW234786  12.261   5.489   8.764
10985SOL     OW34787  14.861  10.505   3.917
10985SOL    HW134788   0.076  10.468   3.929
10985SOL    HW234789  14.833  10.527   4.006
10986SOL     OW34790   3.704  11.582   9.055
10986SOL    HW134791   3.692  11.579   8.960
10986SOL    HW234792   3.768  11.513   9.073
10987SOL     OW34793   7.216  11.538   2.539
10987SOL    HW134794   7.294  11.496   2.501
10987SOL    HW234795   7.176  11.584   2.466
10988SOL     OW34796  14.815  11.744  13.057
10988SOL    HW134797  14.767  11.662  13.043
10988SOL    HW234798   0.029  11.727  13.020
10989SOL     OW34799   0.119   9.055   5.079
10989SOL    HW134800   0.054   8.993   5.111
10989SOL    HW234801   0.187   9.055   5.146
10990SOL     OW34802   1.388   1.800   8.539
10990SOL    HW134803   1.472   1.821   8.500
10990SOL    HW234804   1.385   1.850   8.620
10991SOL     OW34805   4.062   7.005   6.697
10991SOL    HW134806   4.140   7.023   6.645
10991SOL    HW234807   4.030   6.921   6.664
10992SOL     OW34808  13.371   0.075   4.850
10992SOL    HW134809  13.320   0.156   4.857
10992SOL    HW234810  13.388   0.049   4.940
10993SOL     OW34811   2.734   1.863  11.925
10993SOL    HW134812   2.710   1.927  11.993
10993SOL    HW234813   2.663   1.870  11.861
10994SOL     OW34814   6.985  14.399   5.189
10994SOL    HW134815   7.014  14.319   5.146
10994SOL    HW234816   7.023  14.470   5.138
10995SOL     OW34817  12.626  11.889   7.851
10995SOL    HW134818  12.690  11.961   7.848
10995SOL    HW234819  12.669  11.821   7.903
10996SOL     OW34820  13.864   0.351  12.815
10996SOL    HW134821  13.902   0.319  12.896
10996SOL    HW234822  13.792   0.407  12.843
10997SOL     OW34823   0.850  12.128   0.758
10997SOL    HW134824   0.876  12.217   0.734
10997SOL    HW234825   0.904  12.071   0.702
10998SOL     OW34826  12.067   0.581   3.006
10998SOL    HW134827  12.044   0.654   2.947
10998SOL    HW234828  12.091   0.624   3.088
10999SOL     OW34829   3.449   9.013   1.645
10999SOL    HW134830   3.358   9.044   1.640
10999SOL    HW234831   3.448   8.944   1.711
11000SOL     OW34832  14.088   4.168   3.160
11000SOL    HW134833  14.027   4.236   3.186
11000SOL    HW234834  14.154   4.167   3.229
11001SOL     OW34835   8.451   5.214   3.863
11001SOL    HW134836   8.474   5.143   3.803
11001SOL    HW234837   8.357   5.202   3.879
11002SOL     OW34838  13.480   7.808  10.312
11002SOL    HW134839  13.492   7.796  10.406
11002SOL    HW234840  13.561   7.775  10.273
11003SOL     OW34841  10.118   5.684  11.762
11003SOL    HW134842  10.061   5.720  11.694
11003SOL    HW234843  10.173   5.758  11.790
11004SOL     OW34844   9.481   5.930   1.357
11004SOL    HW134845   9.509   5.885   1.277
11004SOL    HW234846   9.430   6.005   1.325
11005SOL     OW34847  11.479   2.022   8.981
11005SOL    HW134848  11.511   1.950   9.035
11005SOL    HW234849  11.414   1.982   8.923
11006SOL     OW34850  12.385   5.479   6.501
11006SOL    HW134851  12.438   5.545   6.546
11006SOL    HW234852  12.298   5.518   6.495
11007SOL     OW34853  11.240   8.662   3.594
11007SOL    HW134854  11.150   8.629   3.599
11007SOL    HW234855  11.286   8.619   3.666
11008SOL     OW34856   7.466   3.736   0.457
11008SOL    HW134857   7.421   3.749   0.373
11008SOL    HW234858   7.524   3.662   0.442
11009SOL     OW34859   8.453  12.233   7.965
11009SOL    HW134860   8.527  12.291   7.987
11009SOL    HW234861   8.494  12.150   7.940
11010SOL     OW34862  12.937  12.698  14.827
11010SOL    HW134863  12.916  12.744  14.746
11010SOL    HW234864  13.032  12.704  14.835
11011SOL     OW34865   7.863   8.582  10.525
11011SOL    HW134866   7.813   8.634  10.463
11011SOL    HW234867   7.898   8.645  10.588
11012SOL     OW34868  13.424   7.455   3.144
11012SOL    HW134869  13.430   7.371   3.098
11012SOL    HW234870  13.386   7.433   3.229
11013SOL     OW34871  12.558   3.782   1.535
11013SOL    HW134872  12.645   3.750   1.558
11013SOL    HW234873  12.567   3.815   1.445
11014SOL     OW34874   3.295   3.382   5.136
11014SOL    HW134875   3.358   3.439   5.180
11014SOL    HW234876   3.253   3.438   5.071
11015SOL     OW34877   6.135   4.768   8.956
11015SOL    HW134878   6.040   4.772   8.943
11015SOL    HW234879   6.168   4.847   8.913
11016SOL     OW34880   6.004  10.128   0.514
11016SOL    HW134881   6.036  10.106   0.602
11016SOL    HW234882   6.032  10.218   0.500
11017SOL     OW34883   2.854   0.216  13.131
11017SOL    HW134884   2.933   0.229  13.079
11017SOL    HW234885   2.818   0.304  13.143
11018SOL     OW34886  11.758  12.127  11.366
11018SOL    HW134887  11.826  12.190  11.341
11018SOL    HW234888  11.799  12.074  11.434
11019SOL     OW34889   3.809   4.177  11.190
11019SOL    HW134890   3.782   4.265  11.215
11019SOL    HW234891   3.899   4.187  11.158
11020SOL     OW34892  13.612   6.555  12.514
11020SOL    HW134893  13.685   6.545  12.575
11020SOL    HW234894  13.595   6.467  12.481
11021SOL     OW34895   6.999  12.057   7.566
11021SOL    HW134896   6.946  12.136   7.552
11021SOL    HW234897   6.935  11.987   7.578
11022SOL     OW34898   1.715  10.501   6.669
11022SOL    HW134899   1.806  10.507   6.697
11022SOL    HW234900   1.695  10.408   6.674
11023SOL     OW34901   1.452  13.878   7.436
11023SOL    HW134902   1.470  13.790   7.404
11023SOL    HW234903   1.470  13.874   7.530
11024SOL     OW34904   0.309   8.053  13.908
11024SOL    HW134905   0.239   8.081  13.968
11024SOL    HW234906   0.263   8.029  13.827
11025SOL     OW34907   6.697   1.379  13.083
11025SOL    HW134908   6.603   1.367  13.066
11025SOL    HW234909   6.705   1.472  13.106
11026SOL     OW34910   3.910   6.145   0.792
11026SOL    HW134911   3.835   6.086   0.779
11026SOL    HW234912   3.891   6.220   0.735
11027SOL     OW34913   9.809   0.731   9.528
11027SOL    HW134914   9.752   0.673   9.580
11027SOL    HW234915   9.813   0.689   9.442
11028SOL     OW34916   1.654   0.590   7.623
11028SOL    HW134917   1.679   0.610   7.533
11028SOL    HW234918   1.716   0.638   7.677
11029SOL     OW34919   4.904   9.371  11.195
11029SOL    HW134920   4.893   9.296  11.137
11029SOL    HW234921   4.998   9.384  11.200
11030SOL     OW34922   1.044  13.763   8.483
11030SOL    HW134923   0.953  13.737   8.470
11030SOL    HW234924   1.078  13.699   8.545
11031SOL     OW34925  10.354   2.136  11.847
11031SOL    HW134926  10.366   2.044  11.869
11031SOL    HW234927  10.438   2.163  11.810
11032SOL     OW34928  11.791   4.921   1.881
11032SOL    HW134929  11.768   4.953   1.793
11032SOL    HW234930  11.741   4.977   1.940
11033SOL     OW34931   1.573  12.026   9.587
11033SOL    HW134932   1.649  12.029   9.645
11033SOL    HW234933   1.544  11.934   9.591
11034SOL     OW34934  14.170  10.037   1.212
11034SOL    HW134935  14.162  10.088   1.132
11034SOL    HW234936  14.264  10.022   1.222
11035SOL     OW34937   3.633  11.433  14.582
11035SOL    HW134938   3.582  11.377  14.523
11035SOL    HW234939   3.628  11.389  14.667
11036SOL     OW34940   7.037   1.254   4.567
11036SOL    HW134941   7.121   1.210   4.555
11036SOL    HW234942   7.051   1.342   4.533
11037SOL     OW34943   3.880  12.550  11.359
11037SOL    HW134944   3.874  12.537  11.454
11037SOL    HW234945   3.966  12.516  11.336
11038SOL     OW34946  12.564   9.574   5.375
11038SOL    HW134947  12.476   9.613   5.382
11038SOL    HW234948  12.612   9.611   5.449
11039SOL     OW34949  13.146   1.453   8.116
11039SOL    HW134950  13.157   1.521   8.181
11039SOL    HW234951  13.234   1.436   8.083
11040SOL     OW34952   6.683   7.732   8.048
11040SOL    HW134953   6.664   7.708   7.958
11040SOL    HW234954   6.640   7.817   8.061
11041SOL     OW34955   3.863   0.252   6.749
11041SOL    HW134956   3.824   0.171   6.782
11041SOL    HW234957   3.852   0.315   6.820
11042SOL     OW34958  13.754   6.819   8.757
11042SOL    HW134959  13.710   6.812   8.672
11042SOL    HW234960  13.732   6.908   8.788
11043SOL     OW34961  12.458  14.251  14.132
11043SOL    HW134962  12.395  14.238  14.061
11043SOL    HW234963  12.506  14.169  14.137
11044SOL     OW34964   0.717   6.950   9.739
11044SOL    HW134965   0.680   7.038   9.737
11044SOL    HW234966   0.732   6.928   9.646
11045SOL     OW34967   3.044  10.228  11.638
11045SOL    HW134968   3.034  10.262  11.550
11045SOL    HW234969   3.056  10.133  11.626
11046SOL     OW34970   6.581   7.503   9.111
11046SOL    HW134971   6.546   7.514   9.022
11046SOL    HW234972   6.668   7.465   9.098
11047SOL     OW34973   1.955  10.556   4.234
11047SOL    HW134974   1.914  10.490   4.179
11047SOL    HW234975   2.038  10.517   4.261
11048SOL     OW34976   8.623  11.423   6.145
11048SOL    HW134977   8.554  11.357   6.154
11048SOL    HW234978   8.661  11.407   6.059
11049SOL     OW34979  10.692   7.296   8.117
11049SOL    HW134980  10.680   7.213   8.163
11049SOL    HW234981  10.776   7.329   8.147
11050SOL     OW34982   0.017  11.341  14.578
11050SOL    HW134983   0.031  11.339  14.673
11050SOL    HW234984   0.105  11.333  14.541
11051SOL     OW34985   6.122   4.045  10.374
11051SOL    HW134986   6.053   4.112  10.370
11051SOL    HW234987   6.120   4.004  10.288
11052SOL     OW34988   1.315   7.162   4.167
11052SOL    HW134989   1.291   7.090   4.225
11052SOL    HW234990   1.307   7.240   4.222
11053SOL     OW34991   2.143   2.782   1.443
11053SOL    HW134992   2.113   2.699   1.407
11053SOL    HW234993   2.235   2.787   1.418
11054SOL     OW34994   8.267   5.464   7.980
11054SOL    HW134995   8.315   5.505   8.052
11054SOL    HW234996   8.308   5.379   7.969
11055SOL     OW34997  12.997  10.088  10.157
11055SOL    HW134998  13.079  10.047  10.184
11055SOL    HW234999  12.934  10.016  10.155
11056SOL     OW35000   4.606  11.391   0.914
11056SOL    HW135001   4.565  11.310   0.883
11056SOL    HW235002   4.538  11.434   0.966
11057SOL     OW35003   7.502   1.405   7.389
11057SOL    HW135004   7.587   1.378   7.355
11057SOL    HW235005   7.484   1.488   7.346
11058SOL     OW35006   9.842   0.428   3.865
11058SOL    HW135007   9.838   0.519   3.835
11058SOL    HW235008   9.932   0.401   3.849
11059SOL     OW35009   8.598   3.578  12.398
11059SOL    HW135010   8.687   3.562  12.369
11059SOL    HW235011   8.604   3.584  12.494
11060SOL     OW35012   9.532   5.136   4.859
11060SOL    HW135013   9.571   5.149   4.946
11060SOL    HW235014   9.438   5.128   4.875
11061SOL     OW35015   2.345  11.587   1.732
11061SOL    HW135016   2.434  11.551   1.734
11061SOL    HW235017   2.296  11.533   1.794
11062SOL     OW35018   5.927   5.025   1.007
11062SOL    HW135019   5.836   5.009   1.035
11062SOL    HW235020   5.920   5.046   0.914
11063SOL     OW35021   3.470   3.835  14.479
11063SOL    HW135022   3.508   3.877  14.556
11063SOL    HW235023   3.427   3.907  14.431
11064SOL     OW35024  14.725   5.018   7.722
11064SOL    HW135025  14.660   5.072   7.766
11064SOL    HW235026  14.795   5.079   7.698
11065SOL     OW35027   7.372   5.132   9.205
11065SOL    HW135028   7.392   5.040   9.187
11065SOL    HW235029   7.278   5.138   9.195
11066SOL     OW35030   8.657  11.862  10.512
11066SOL    HW135031   8.703  11.946  10.520
11066SOL    HW235032   8.640  11.854  10.418
11067SOL     OW35033  11.380   7.466   4.619
11067SOL    HW135034  11.472   7.489   4.632
11067SOL    HW235035  11.373   7.375   4.648
11068SOL     OW35036  12.322   6.722  12.621
11068SOL    HW135037  12.379   6.798  12.637
11068SOL    HW235038  12.277   6.709  12.705
11069SOL     OW35039   4.180  12.065  13.102
11069SOL    HW135040   4.180  12.157  13.131
11069SOL    HW235041   4.152  12.016  13.180
11070SOL     OW35042   7.304   4.899   7.820
11070SOL    HW135043   7.359   4.954   7.875
11070SOL    HW235044   7.360   4.877   7.745
11071SOL     OW35045  10.993  11.812   3.621
11071SOL    HW135046  11.037  11.824   3.706
11071SOL    HW235047  10.910  11.770   3.643
11072SOL     OW35048   1.623  14.708   1.279
11072SOL    HW135049   1.714  14.701   1.307
11072SOL    HW235050   1.572  14.692   1.359
11073SOL     OW35051   2.084   8.762  10.845
11073SOL    HW135052   2.169   8.779  10.887
11073SOL    HW235053   2.103   8.696  10.778
11074SOL     OW35054   9.739   1.511   9.448
11074SOL    HW135055   9.792   1.587   9.427
11074SOL    HW235056   9.725   1.517   9.542
11075SOL     OW35057  12.832  10.627   5.596
11075SOL    HW135058  12.855  10.558   5.534
11075SOL    HW235059  12.819  10.582   5.679
11076SOL     OW35060   9.254  12.592  13.340
11076SOL    HW135061   9.273  12.525  13.275
11076SOL    HW235062   9.177  12.638  13.306
11077SOL     OW35063  12.175   9.466   7.980
11077SOL    HW135064  12.163   9.543   7.925
11077SOL    HW235065  12.216   9.402   7.923
11078SOL     OW35066  11.998   6.673   8.480
11078SOL    HW135067  11.929   6.610   8.498
11078SOL    HW235068  12.058   6.665   8.555
11079SOL     OW35069   8.224   2.311  11.732
11079SOL    HW135070   8.252   2.220  11.726
11079SOL    HW235071   8.129   2.307  11.735
11080SOL     OW35072   3.862  13.331  10.329
11080SOL    HW135073   3.943  13.312  10.282
11080SOL    HW235074   3.816  13.393  10.272
11081SOL     OW35075  14.489   3.691   1.286
11081SOL    HW135076  14.541   3.681   1.366
11081SOL    HW235077  14.425   3.759   1.307
11082SOL     OW35078   2.409  12.607  14.004
11082SOL    HW135079   2.429  12.559  13.924
11082SOL    HW235080   2.479  12.584  14.065
11083SOL     OW35081  10.020  10.689   5.290
11083SOL    HW135082  10.097  10.653   5.245
11083SOL    HW235083   9.958  10.617   5.295
11084SOL     OW35084  11.668   5.633   4.761
11084SOL    HW135085  11.700   5.595   4.680
11084SOL    HW235086  11.710   5.719   4.766
11085SOL     OW35087   3.634   9.906  10.338
11085SOL    HW135088   3.719   9.881  10.301
11085SOL    HW235089   3.611   9.834  10.396
11086SOL     OW35090   4.576  13.288  11.424
11086SOL    HW135091   4.484  13.267  11.441
11086SOL    HW235092   4.579  13.304  11.330
11087SOL     OW35093   5.801   2.356  13.799
11087SOL    HW135094   5.765   2.445  13.807
11087SOL    HW235095   5.844   2.356  13.713
11088SOL     OW35096  14.082  10.476  10.782
11088SOL    HW135097  14.085  10.527  10.863
11088SOL    HW235098  13.999  10.499  10.742
11089SOL     OW35099   7.300   4.443   8.454
11089SOL    HW135100   7.305   4.526   8.501
11089SOL    HW235101   7.245   4.387   8.510
11090SOL     OW35102  10.362   1.105   1.053
11090SOL    HW135103  10.377   1.141   0.966
11090SOL    HW235104  10.267   1.103   1.063
11091SOL     OW35105   2.718   7.583   2.735
11091SOL    HW135106   2.792   7.610   2.789
11091SOL    HW235107   2.646   7.568   2.797
11092SOL     OW35108  12.344  13.807  11.433
11092SOL    HW135109  12.319  13.740  11.497
11092SOL    HW235110  12.439  13.799  11.427
11093SOL     OW35111   9.292   7.083   3.125
11093SOL    HW135112   9.289   7.124   3.212
11093SOL    HW235113   9.385   7.080   3.103
11094SOL     OW35114   1.949   5.380   8.783
11094SOL    HW135115   1.975   5.351   8.695
11094SOL    HW235116   2.011   5.336   8.842
11095SOL     OW35117   1.988   9.864   4.114
11095SOL    HW135118   1.912   9.826   4.158
11095SOL    HW235119   1.990   9.819   4.029
11096SOL     OW35120  13.191   8.642   4.364
11096SOL    HW135121  13.098   8.667   4.369
11096SOL    HW235122  13.232   8.687   4.438
11097SOL     OW35123   0.769   8.109  12.517
11097SOL    HW135124   0.816   8.192  12.508
11097SOL    HW235125   0.716   8.121  12.596
11098SOL     OW35126   3.692  11.799   4.677
11098SOL    HW135127   3.682  11.725   4.738
11098SOL    HW235128   3.772  11.780   4.628
11099SOL     OW35129   5.739  14.047   4.868
11099SOL    HW135130   5.718  14.140   4.867
11099SOL    HW235131   5.668  14.005   4.820
11100SOL     OW35132   2.359   1.556   2.571
11100SOL    HW135133   2.297   1.581   2.502
11100SOL    HW235134   2.323   1.593   2.651
11101SOL     OW35135  12.453   5.746   5.756
11101SOL    HW135136  12.437   5.836   5.785
11101SOL    HW235137  12.518   5.754   5.687
11102SOL     OW35138   5.236   8.127   4.502
11102SOL    HW135139   5.140   8.136   4.503
11102SOL    HW235140   5.251   8.047   4.451
11103SOL     OW35141  12.792   4.047   7.748
11103SOL    HW135142  12.836   3.971   7.786
11103SOL    HW235143  12.762   4.016   7.663
11104SOL     OW35144   6.909   1.873  14.641
11104SOL    HW135145   6.991   1.872  14.591
11104SOL    HW235146   6.871   1.959  14.624
11105SOL     OW35147   6.572  10.188   6.343
11105SOL    HW135148   6.578  10.258   6.279
11105SOL    HW235149   6.644  10.129   6.322
11106SOL     OW35150   3.934   3.106   9.428
11106SOL    HW135151   3.857   3.139   9.382
11106SOL    HW235152   3.935   3.012   9.409
11107SOL     OW35153  14.717   9.370  12.360
11107SOL    HW135154  14.767   9.438  12.314
11107SOL    HW235155  14.784   9.316  12.402
11108SOL     OW35156   7.096   9.046   1.821
11108SOL    HW135157   7.069   9.087   1.903
11108SOL    HW235158   7.014   9.031   1.774
11109SOL     OW35159  11.553   7.350   5.013
11109SOL    HW135160  11.554   7.443   4.991
11109SOL    HW235161  11.618   7.340   5.082
11110SOL     OW35162   8.181  13.263  13.975
11110SOL    HW135163   8.165  13.178  13.935
11110SOL    HW235164   8.266  13.252  14.020
11111SOL     OW35165   9.446  10.827  12.675
11111SOL    HW135166   9.495  10.760  12.628
11111SOL    HW235167   9.513  10.885  12.711
11112SOL     OW35168   6.141  10.434   5.629
11112SOL    HW135169   6.179  10.472   5.550
11112SOL    HW235170   6.204  10.453   5.698
11113SOL     OW35171   1.095   1.657  12.795
11113SOL    HW135172   1.007   1.683  12.823
11113SOL    HW235173   1.095   1.672  12.700
11114SOL     OW35174  13.065   3.431   7.566
11114SOL    HW135175  13.077   3.389   7.651
11114SOL    HW235176  13.153   3.435   7.528
11115SOL     OW35177   8.275   9.853   2.742
11115SOL    HW135178   8.304   9.762   2.733
11115SOL    HW235179   8.281   9.871   2.836
11116SOL     OW35180   1.072   0.882   3.746
11116SOL    HW135181   1.157   0.914   3.777
11116SOL    HW235182   1.063   0.918   3.658
11117SOL     OW35183   1.511   0.134  11.473
11117SOL    HW135184   1.459   0.178  11.406
11117SOL    HW235185   1.501   0.041  11.454
11118SOL     OW35186  12.230  11.140   1.961
11118SOL    HW135187  12.185  11.082   2.023
11118SOL    HW235188  12.161  11.168   1.901
11119SOL     OW35189   6.375  14.273   3.739
11119SOL    HW135190   6.390  14.206   3.672
11119SOL    HW235191   6.462  14.290   3.775
11120SOL     OW35192   0.724  10.131   1.161
11120SOL    HW135193   0.678  10.062   1.208
11120SOL    HW235194   0.709  10.112   1.068
11121SOL     OW35195   5.572  13.883  13.660
11121SOL    HW135196   5.635  13.813  13.675
11121SOL    HW235197   5.496  13.839  13.621
11122SOL     OW35198   5.273  11.100   1.559
11122SOL    HW135199   5.329  11.158   1.611
11122SOL    HW235200   5.317  11.093   1.474
11123SOL     OW35201   3.201  11.677  10.943
11123SOL    HW135202   3.238  11.614  11.004
11123SOL    HW235203   3.196  11.630  10.860
11124SOL     OW35204   0.126   6.019   9.034
11124SOL    HW135205   0.205   5.965   9.025
11124SOL    HW235206   0.128   6.078   8.958
11125SOL     OW35207   2.707   1.850   9.131
11125SOL    HW135208   2.786   1.827   9.082
11125SOL    HW235209   2.704   1.786   9.202
11126SOL     OW35210   8.211   0.207   0.051
11126SOL    HW135211   8.242   0.168  14.842
11126SOL    HW235212   8.220   0.137   0.115
11127SOL     OW35213   4.003  13.995   4.365
11127SOL    HW135214   4.043  13.916   4.402
11127SOL    HW235215   4.065  14.022   4.297
11128SOL     OW35216  11.279   4.324  12.714
11128SOL    HW135217  11.254   4.301  12.803
11128SOL    HW235218  11.272   4.241  12.666
11129SOL     OW35219  10.353   5.423   9.984
11129SOL    HW135220  10.389   5.501  10.024
11129SOL    HW235221  10.271   5.407  10.030
11130SOL     OW35222   3.454   8.690   2.049
11130SOL    HW135223   3.515   8.622   2.076
11130SOL    HW235224   3.402   8.708   2.128
11131SOL     OW35225   6.642   5.622   1.158
11131SOL    HW135226   6.591   5.697   1.126
11131SOL    HW235227   6.642   5.631   1.253
11132SOL     OW35228   9.196  13.944   5.925
11132SOL    HW135229   9.152  13.927   5.842
11132SOL    HW235230   9.285  13.968   5.900
11133SOL     OW35231   5.038  10.017   3.721
11133SOL    HW135232   5.057   9.926   3.742
11133SOL    HW235233   5.089  10.067   3.786
11134SOL     OW35234  14.749   7.035  13.182
11134SOL    HW135235  14.790   6.964  13.133
11134SOL    HW235236  14.771   7.114  13.132
11135SOL     OW35237   6.158  10.432  14.459
11135SOL    HW135238   6.155  10.348  14.414
11135SOL    HW235239   6.189  10.410  14.547
11136SOL     OW35240   5.043   3.534   1.200
11136SOL    HW135241   5.121   3.574   1.160
11136SOL    HW235242   5.053   3.441   1.180
11137SOL     OW35243   8.988   5.875  14.725
11137SOL    HW135244   8.920   5.942  14.737
11137SOL    HW235245   8.939   5.795  14.704
11138SOL     OW35246   9.176   0.367  10.321
11138SOL    HW135247   9.167   0.326  10.407
11138SOL    HW235248   9.165   0.295  10.259
11139SOL     OW35249  11.686   6.973  13.953
11139SOL    HW135250  11.723   6.888  13.976
11139SOL    HW235251  11.599   6.953  13.918
11140SOL     OW35252  13.490  10.833   3.146
11140SOL    HW135253  13.450  10.804   3.064
11140SOL    HW235254  13.583  10.809   3.137
11141SOL     OW35255   7.108   2.980  13.930
11141SOL    HW135256   7.095   3.070  13.962
11141SOL    HW235257   7.184   2.986  13.872
11142SOL     OW35258   4.696   9.217  13.636
11142SOL    HW135259   4.749   9.215  13.715
11142SOL    HW235260   4.676   9.125  13.618
11143SOL     OW35261   5.759   0.920  12.453
11143SOL    HW135262   5.666   0.920  12.475
11143SOL    HW235263   5.803   0.931  12.537
11144SOL     OW35264   6.025   2.642  12.818
11144SOL    HW135265   6.098   2.632  12.758
11144SOL    HW235266   6.053   2.712  12.878
11145SOL     OW35267   3.221  12.456   4.216
11145SOL    HW135268   3.314  12.476   4.210
11145SOL    HW235269   3.177  12.536   4.189
11146SOL     OW35270  12.959   8.689   1.496
11146SOL    HW135271  12.955   8.618   1.432
11146SOL    HW235272  12.924   8.651   1.576
11147SOL     OW35273  10.456  12.269  12.090
11147SOL    HW135274  10.419  12.183  12.109
11147SOL    HW235275  10.438  12.321  12.168
11148SOL     OW35276   4.723  10.597  10.297
11148SOL    HW135277   4.710  10.672  10.240
11148SOL    HW235278   4.818  10.590  10.306
11149SOL     OW35279   9.687   3.122   7.666
11149SOL    HW135280   9.689   3.057   7.596
11149SOL    HW235281   9.779   3.148   7.677
11150SOL     OW35282   7.606   6.024   7.361
11150SOL    HW135283   7.541   6.075   7.409
11150SOL    HW235284   7.634   6.082   7.289
11151SOL     OW35285   9.334   0.656   6.621
11151SOL    HW135286   9.247   0.620   6.604
11151SOL    HW235287   9.347   0.643   6.715
11152SOL     OW35288   4.571   2.184   7.446
11152SOL    HW135289   4.515   2.137   7.384
11152SOL    HW235290   4.640   2.222   7.392
11153SOL     OW35291   2.838   0.607   7.982
11153SOL    HW135292   2.809   0.543   8.046
11153SOL    HW235293   2.762   0.665   7.970
11154SOL     OW35294   3.342   5.017  14.442
11154SOL    HW135295   3.329   5.053  14.354
11154SOL    HW235296   3.259   5.032  14.486
11155SOL     OW35297  14.785  12.797   5.637
11155SOL    HW135298  14.762  12.729   5.573
11155SOL    HW235299  14.769  12.880   5.592
11156SOL     OW35300   2.365  12.439   8.472
11156SOL    HW135301   2.356  12.530   8.500
11156SOL    HW235302   2.455  12.431   8.442
11157SOL     OW35303   3.161   6.654  14.431
11157SOL    HW135304   3.181   6.635  14.339
11157SOL    HW235305   3.095   6.723  14.428
11158SOL     OW35306   9.968  14.087   4.301
11158SOL    HW135307   9.929  14.097   4.388
11158SOL    HW235308  10.063  14.094   4.316
11159SOL     OW35309   9.323   7.834   0.350
11159SOL    HW135310   9.388   7.778   0.393
11159SOL    HW235311   9.286   7.778   0.282
11160SOL     OW35312  12.514   4.403   0.113
11160SOL    HW135313  12.524   4.338   0.183
11160SOL    HW235314  12.452   4.466   0.148
11161SOL     OW35315   7.494   6.290  13.981
11161SOL    HW135316   7.436   6.214  13.986
11161SOL    HW235317   7.439   6.363  14.012
11162SOL     OW35318  11.392   2.242   2.601
11162SOL    HW135319  11.478   2.216   2.634
11162SOL    HW235320  11.411   2.308   2.534
11163SOL     OW35321   8.597   9.317   0.788
11163SOL    HW135322   8.687   9.316   0.820
11163SOL    HW235323   8.570   9.225   0.790
11164SOL     OW35324   9.422  13.359   5.814
11164SOL    HW135325   9.458  13.291   5.757
11164SOL    HW235326   9.365  13.411   5.757
11165SOL     OW35327   9.501   6.285   8.762
11165SOL    HW135328   9.570   6.236   8.806
11165SOL    HW235329   9.522   6.377   8.779
11166SOL     OW35330  14.648   0.059   4.735
11166SOL    HW135331  14.700   0.135   4.707
11166SOL    HW235332  14.602   0.088   4.813
11167SOL     OW35333  14.770   6.489   6.131
11167SOL    HW135334  14.771   6.455   6.221
11167SOL    HW235335  14.680   6.475   6.102
11168SOL     OW35336   0.837   8.991  11.259
11168SOL    HW135337   0.927   9.020  11.271
11168SOL    HW235338   0.839   8.935  11.181
11169SOL     OW35339  12.295  11.743   2.507
11169SOL    HW135340  12.229  11.684   2.468
11169SOL    HW235341  12.365  11.684   2.535
11170SOL     OW35342   0.759  10.422   3.071
11170SOL    HW135343   0.738  10.511   3.098
11170SOL    HW235344   0.804  10.384   3.146
11171SOL     OW35345   3.596   7.884  10.849
11171SOL    HW135346   3.550   7.886  10.765
11171SOL    HW235347   3.688   7.872  10.825
11172SOL     OW35348  12.864  12.426   9.712
11172SOL    HW135349  12.877  12.509   9.759
11172SOL    HW235350  12.905  12.360   9.768
11173SOL     OW35351   5.057  12.927   1.195
11173SOL    HW135352   4.992  12.929   1.125
11173SOL    HW235353   5.011  12.964   1.271
11174SOL     OW35354   6.406   0.831   8.649
11174SOL    HW135355   6.418   0.926   8.642
11174SOL    HW235356   6.477   0.795   8.596
11175SOL     OW35357  14.542   2.119  13.304
11175SOL    HW135358  14.516   2.211  13.306
11175SOL    HW235359  14.547   2.098  13.211
11176SOL     OW35360  13.927   5.691   5.586
11176SOL    HW135361  14.017   5.720   5.603
11176SOL    HW235362  13.881   5.707   5.667
11177SOL     OW35363  11.451  12.562   7.070
11177SOL    HW135364  11.445  12.633   7.134
11177SOL    HW235365  11.429  12.602   6.986
11178SOL     OW35366  13.283  11.042   1.905
11178SOL    HW135367  13.335  10.964   1.922
11178SOL    HW235368  13.319  11.079   1.825
11179SOL     OW35369  14.796  13.763   1.813
11179SOL    HW135370  14.761  13.677   1.788
11179SOL    HW235371   0.001  13.743   1.866
11180SOL     OW35372   3.491   6.257   0.575
11180SOL    HW135373   3.413   6.231   0.527
11180SOL    HW235374   3.549   6.295   0.509
11181SOL     OW35375  13.015  10.699   0.501
11181SOL    HW135376  12.949  10.743   0.446
11181SOL    HW235377  13.088  10.761   0.503
11182SOL     OW35378   8.257   3.313   3.621
11182SOL    HW135379   8.229   3.355   3.702
11182SOL    HW235380   8.268   3.385   3.559
11183SOL     OW35381   9.728   5.794   8.199
11183SOL    HW135382   9.741   5.755   8.286
11183SOL    HW235383   9.651   5.850   8.209
11184SOL     OW35384  10.019   3.390  14.198
11184SOL    HW135385   9.965   3.406  14.275
11184SOL    HW235386   9.976   3.438  14.128
11185SOL     OW35387   6.726  13.927  12.625
11185SOL    HW135388   6.679  13.912  12.543
11185SOL    HW235389   6.658  13.927  12.692
11186SOL     OW35390   6.514  11.429  13.050
11186SOL    HW135391   6.599  11.454  13.087
11186SOL    HW235392   6.523  11.449  12.956
11187SOL     OW35393  13.762   7.281   1.096
11187SOL    HW135394  13.680   7.316   1.062
11187SOL    HW235395  13.745   7.263   1.188
11188SOL     OW35396   5.926  13.394   1.661
11188SOL    HW135397   5.836  13.427   1.669
11188SOL    HW235398   5.916  13.299   1.654
11189SOL     OW35399   8.922   5.877   4.287
11189SOL    HW135400   8.848   5.902   4.343
11189SOL    HW235401   8.888   5.883   4.198
11190SOL     OW35402   3.455   9.929   8.578
11190SOL    HW135403   3.423   9.840   8.590
11190SOL    HW235404   3.508   9.925   8.498
11191SOL     OW35405   3.912   0.527   2.585
11191SOL    HW135406   3.855   0.535   2.661
11191SOL    HW235407   3.916   0.616   2.549
11192SOL     OW35408   2.930   4.192   9.699
11192SOL    HW135409   2.842   4.184   9.737
11192SOL    HW235410   2.949   4.104   9.665
11193SOL     OW35411  14.542  13.129  11.976
11193SOL    HW135412  14.502  13.046  11.949
11193SOL    HW235413  14.604  13.104  12.044
11194SOL     OW35414   4.451   7.064  14.002
11194SOL    HW135415   4.466   7.026  13.915
11194SOL    HW235416   4.435   7.157  13.986
11195SOL     OW35417   2.350   4.843  14.546
11195SOL    HW135418   2.371   4.935  14.562
11195SOL    HW235419   2.432   4.797  14.562
11196SOL     OW35420   1.032   3.583   6.391
11196SOL    HW135421   0.989   3.553   6.311
11196SOL    HW235422   0.963   3.628   6.440
11197SOL     OW35423   9.384  10.370   6.678
11197SOL    HW135424   9.444  10.305   6.716
11197SOL    HW235425   9.439  10.423   6.621
11198SOL     OW35426   5.732   0.711   0.201
11198SOL    HW135427   5.814   0.735   0.159
11198SOL    HW235428   5.736   0.753   0.287
11199SOL     OW35429   4.107   2.754   0.823
11199SOL    HW135430   4.118   2.661   0.844
11199SOL    HW235431   4.038   2.784   0.883
11200SOL     OW35432   9.264  13.605   2.454
11200SOL    HW135433   9.321  13.535   2.487
11200SOL    HW235434   9.264  13.593   2.359
11201SOL     OW35435   4.050   3.603   8.794
11201SOL    HW135436   3.980   3.569   8.850
11201SOL    HW235437   4.077   3.527   8.742
11202SOL     OW35438   9.524  11.812   8.533
11202SOL    HW135439   9.482  11.894   8.507
11202SOL    HW235440   9.464  11.744   8.500
11203SOL     OW35441  14.791   7.847   1.725
11203SOL    HW135442  14.778   7.884   1.812
11203SOL    HW235443  14.868   7.892   1.692
11204SOL     OW35444   4.770   9.553  13.827
11204SOL    HW135445   4.794   9.642  13.801
11204SOL    HW235446   4.839   9.497  13.790
11205SOL     OW35447   5.927   6.810   7.579
11205SOL    HW135448   5.899   6.823   7.670
11205SOL    HW235449   5.866   6.863   7.528
11206SOL     OW35450  13.324  14.680   6.532
11206SOL    HW135451  13.398  14.639   6.487
11206SOL    HW235452  13.258  14.691   6.464
11207SOL     OW35453  14.545  10.128  13.948
11207SOL    HW135454  14.598  10.064  13.900
11207SOL    HW235455  14.604  10.202  13.962
11208SOL     OW35456   5.907  11.774   0.157
11208SOL    HW135457   5.924  11.727   0.075
11208SOL    HW235458   5.884  11.863   0.130
11209SOL     OW35459  14.412   6.135  13.813
11209SOL    HW135460  14.323   6.162  13.790
11209SOL    HW235461  14.404   6.041  13.834
11210SOL     OW35462  12.446  11.585  13.065
11210SOL    HW135463  12.354  11.575  13.089
11210SOL    HW235464  12.474  11.666  13.109
11211SOL     OW35465   3.968   3.896   5.560
11211SOL    HW135466   4.033   3.933   5.499
11211SOL    HW235467   3.893   3.876   5.506
11212SOL     OW35468  14.494  12.868  11.910
11212SOL    HW135469  14.494  12.782  11.868
11212SOL    HW235470  14.566  12.864  11.973
11213SOL     OW35471  11.796   8.758   8.574
11213SOL    HW135472  11.816   8.832   8.517
11213SOL    HW235473  11.736   8.793   8.640
11214SOL     OW35474  14.504  14.435  14.765
11214SOL    HW135475  14.469  14.498  14.703
11214SOL    HW235476  14.542  14.488  14.835
11215SOL     OW35477   4.869   1.604   4.069
11215SOL    HW135478   4.917   1.687   4.061
11215SOL    HW235479   4.852   1.577   3.979
11216SOL     OW35480  14.584   4.569  14.511
11216SOL    HW135481  14.640   4.514  14.566
11216SOL    HW235482  14.501   4.521  14.507
11217SOL     OW35483   7.690   0.441   8.556
11217SOL    HW135484   7.708   0.474   8.643
11217SOL    HW235485   7.597   0.457   8.543
11218SOL     OW35486   7.349   0.780  14.750
11218SOL    HW135487   7.350   0.856  14.807
11218SOL    HW235488   7.432   0.736  14.767
11219SOL     OW35489  10.837   1.246  12.486
11219SOL    HW135490  10.899   1.248  12.559
11219SOL    HW235491  10.883   1.291  12.415
11220SOL     OW35492   6.738   6.690   7.301
11220SOL    HW135493   6.748   6.700   7.396
11220SOL    HW235494   6.645   6.703   7.285
11221SOL     OW35495  10.974   1.886   8.279
11221SOL    HW135496  10.936   1.834   8.350
11221SOL    HW235497  11.032   1.826   8.233
11222SOL     OW35498   0.104   3.968  13.583
11222SOL    HW135499   0.168   3.937  13.519
11222SOL    HW235500   0.137   4.054  13.610
11223SOL     OW35501  13.344  10.709   9.890
11223SOL    HW135502  13.310  10.798   9.888
11223SOL    HW235503  13.390  10.700   9.807
11224SOL     OW35504   6.175   3.028  11.899
11224SOL    HW135505   6.108   2.985  11.952
11224SOL    HW235506   6.130   3.049  11.817
11225SOL     OW35507   1.219   1.939  14.619
11225SOL    HW135508   1.125   1.950  14.632
11225SOL    HW235509   1.226   1.864  14.560
11226SOL     OW35510  13.243   4.337   0.522
11226SOL    HW135511  13.216   4.291   0.443
11226SOL    HW235512  13.263   4.267   0.585
11227SOL     OW35513   0.245   1.644  11.267
11227SOL    HW135514   0.194   1.724  11.258
11227SOL    HW235515   0.230   1.616  11.357
11228SOL     OW35516   9.328  11.175  12.915
11228SOL    HW135517   9.325  11.167  12.819
11228SOL    HW235518   9.285  11.096  12.946
11229SOL     OW35519   5.664   1.940   5.563
11229SOL    HW135520   5.709   2.006   5.617
11229SOL    HW235521   5.571   1.952   5.583
11230SOL     OW35522   4.276   6.137  12.205
11230SOL    HW135523   4.229   6.088  12.138
11230SOL    HW235524   4.285   6.225  12.168
11231SOL     OW35525  12.525  10.250   0.626
11231SOL    HW135526  12.453  10.209   0.674
11231SOL    HW235527  12.505  10.344   0.627
11232SOL     OW35528  11.951   2.750   6.156
11232SOL    HW135529  12.027   2.774   6.209
11232SOL    HW235530  11.908   2.680   6.205
11233SOL     OW35531  14.657  11.080   8.219
11233SOL    HW135532  14.618  11.138   8.154
11233SOL    HW235533  14.628  11.115   8.303
11234SOL     OW35534  12.837  13.486  10.558
11234SOL    HW135535  12.926  13.481  10.593
11234SOL    HW235536  12.837  13.565  10.504
11235SOL     OW35537   1.480  14.573   0.886
11235SOL    HW135538   1.462  14.666   0.901
11235SOL    HW235539   1.492  14.566   0.791
11236SOL     OW35540   2.656   6.548   4.806
11236SOL    HW135541   2.612   6.471   4.771
11236SOL    HW235542   2.634   6.548   4.899
11237SOL     OW35543   1.603  10.420   9.885
11237SOL    HW135544   1.614  10.486   9.818
11237SOL    HW235545   1.546  10.461   9.951
11238SOL     OW35546   8.077  13.451  10.034
11238SOL    HW135547   8.040  13.527  10.079
11238SOL    HW235548   8.133  13.488   9.966
11239SOL     OW35549  12.851   7.249   7.679
11239SOL    HW135550  12.817   7.161   7.663
11239SOL    HW235551  12.824   7.269   7.769
11240SOL     OW35552  12.439   5.445   5.827
11240SOL    HW135553  12.351   5.452   5.790
11240SOL    HW235554  12.489   5.512   5.779
11241SOL     OW35555   8.438   5.963   3.545
11241SOL    HW135556   8.450   5.985   3.638
11241SOL    HW235557   8.487   5.882   3.534
11242SOL     OW35558   6.037   5.904   8.808
11242SOL    HW135559   6.102   5.876   8.745
11242SOL    HW235560   5.961   5.847   8.792
11243SOL     OW35561   1.437  14.259  10.978
11243SOL    HW135562   1.391  14.186  10.936
11243SOL    HW235563   1.378  14.334  10.969
11244SOL     OW35564  12.110  12.117  12.392
11244SOL    HW135565  12.089  12.129  12.485
11244SOL    HW235566  12.025  12.115  12.348
11245SOL     OW35567   7.587  10.741   9.765
11245SOL    HW135568   7.682  10.741   9.767
11245SOL    HW235569   7.562  10.831   9.788
11246SOL     OW35570   3.564  14.723   5.058
11246SOL    HW135571   3.510  14.654   5.098
11246SOL    HW235572   3.510  14.757   4.987
11247SOL     OW35573  11.707   0.978   2.145
11247SOL    HW135574  11.656   0.971   2.226
11247SOL    HW235575  11.798   0.987   2.175
11248SOL     OW35576  10.619  10.663  10.883
11248SOL    HW135577  10.544  10.628  10.835
11248SOL    HW235578  10.674  10.586  10.899
11249SOL     OW35579  13.877  13.168   1.376
11249SOL    HW135580  13.966  13.137   1.359
11249SOL    HW235581  13.836  13.098   1.426
11250SOL     OW35582  11.735  10.844   4.065
11250SOL    HW135583  11.709  10.828   4.156
11250SOL    HW235584  11.719  10.760   4.020
11251SOL     OW35585  12.241   2.434  12.073
11251SOL    HW135586  12.222   2.444  12.167
11251SOL    HW235587  12.171   2.378  12.040
11252SOL     OW35588  11.482  13.633  11.496
11252SOL    HW135589  11.452  13.543  11.509
11252SOL    HW235590  11.526  13.632  11.411
11253SOL     OW35591   1.244  13.735   4.718
11253SOL    HW135592   1.324  13.748   4.668
11253SOL    HW235593   1.273  13.729   4.809
11254SOL     OW35594   7.728   3.865   3.695
11254SOL    HW135595   7.652   3.815   3.664
11254SOL    HW235596   7.716   3.870   3.790
11255SOL     OW35597   6.235   5.808   0.159
11255SOL    HW135598   6.169   5.875   0.174
11255SOL    HW235599   6.244   5.763   0.243
11256SOL     OW35600   1.234   6.058   7.982
11256SOL    HW135601   1.257   6.049   7.890
11256SOL    HW235602   1.175   5.984   8.000
11257SOL     OW35603   2.458   5.790   1.159
11257SOL    HW135604   2.435   5.770   1.069
11257SOL    HW235605   2.473   5.885   1.160
11258SOL     OW35606   4.437   5.579   3.153
11258SOL    HW135607   4.435   5.542   3.241
11258SOL    HW235608   4.420   5.672   3.166
11259SOL     OW35609   2.347   7.645   0.394
11259SOL    HW135610   2.277   7.710   0.384
11259SOL    HW235611   2.380   7.661   0.483
11260SOL     OW35612   7.196   2.925   4.001
11260SOL    HW135613   7.155   2.982   3.936
11260SOL    HW235614   7.180   2.970   4.085
11261SOL     OW35615   8.865   0.697   1.230
11261SOL    HW135616   8.771   0.701   1.210
11261SOL    HW235617   8.868   0.689   1.325
11262SOL     OW35618   9.054   2.727   9.338
11262SOL    HW135619   9.119   2.685   9.393
11262SOL    HW235620   8.975   2.673   9.347
11263SOL     OW35621   1.562   6.330   3.889
11263SOL    HW135622   1.645   6.361   3.854
11263SOL    HW235623   1.579   6.315   3.982
11264SOL     OW35624  11.705   1.195  10.913
11264SOL    HW135625  11.682   1.134  10.983
11264SOL    HW235626  11.800   1.186  10.903
11265SOL     OW35627   7.355  11.870   1.442
11265SOL    HW135628   7.437  11.833   1.408
11265SOL    HW235629   7.330  11.936   1.378
11266SOL     OW35630  11.580   1.793   3.968
11266SOL    HW135631  11.605   1.837   3.887
11266SOL    HW235632  11.556   1.863   4.027
11267SOL     OW35633  11.871  11.472   2.460
11267SOL    HW135634  11.838  11.459   2.372
11267SOL    HW235635  11.818  11.543   2.496
11268SOL     OW35636   1.455   8.221   6.022
11268SOL    HW135637   1.518   8.150   6.037
11268SOL    HW235638   1.488   8.267   5.945
11269SOL     OW35639   8.007   6.177   1.884
11269SOL    HW135640   8.043   6.117   1.818
11269SOL    HW235641   8.027   6.264   1.851
11270SOL     OW35642   6.464   6.340   9.627
11270SOL    HW135643   6.393   6.281   9.603
11270SOL    HW235644   6.445   6.364   9.718
11271SOL     OW35645  12.068   1.232   7.282
11271SOL    HW135646  12.138   1.195   7.336
11271SOL    HW235647  12.019   1.289   7.342
11272SOL     OW35648   4.434   3.274   8.293
11272SOL    HW135649   4.522   3.283   8.330
11272SOL    HW235650   4.395   3.201   8.341
11273SOL     OW35651  11.789   9.661   4.134
11273SOL    HW135652  11.766   9.570   4.148
11273SOL    HW235653  11.710   9.710   4.158
11274SOL     OW35654   2.848   0.521   5.835
11274SOL    HW135655   2.785   0.530   5.907
11274SOL    HW235656   2.797   0.483   5.763
11275SOL     OW35657   2.155  13.096   6.043
11275SOL    HW135658   2.147  13.190   6.054
11275SOL    HW235659   2.076  13.070   5.996
11276SOL     OW35660   8.889   9.728  12.333
11276SOL    HW135661   8.903   9.635  12.315
11276SOL    HW235662   8.970   9.756  12.376
11277SOL     OW35663   1.451  11.920  11.301
11277SOL    HW135664   1.424  11.861  11.372
11277SOL    HW235665   1.392  11.899  11.228
11278SOL     OW35666   2.792  13.295   3.239
11278SOL    HW135667   2.882  13.299   3.208
11278SOL    HW235668   2.740  13.330   3.167
11279SOL     OW35669   0.161   3.109   2.206
11279SOL    HW135670   0.205   3.188   2.238
11279SOL    HW235671   0.189   3.040   2.266
11280SOL     OW35672  12.020   4.725   3.178
11280SOL    HW135673  12.031   4.673   3.098
11280SOL    HW235674  11.929   4.755   3.175
11281SOL     OW35675   0.964   4.053  14.578
11281SOL    HW135676   1.007   4.031  14.495
11281SOL    HW235677   0.953   3.969  14.622
11282SOL     OW35678   8.144  11.642   3.006
11282SOL    HW135679   8.118  11.585   3.078
11282SOL    HW235680   8.230  11.675   3.031
11283SOL     OW35681   5.056  10.981   7.053
11283SOL    HW135682   5.128  11.008   6.996
11283SOL    HW235683   5.001  11.059   7.059
11284SOL     OW35684   7.578   1.921   6.837
11284SOL    HW135685   7.670   1.896   6.830
11284SOL    HW235686   7.578   2.003   6.887
11285SOL     OW35687  11.157   4.701   3.078
11285SOL    HW135688  11.167   4.613   3.114
11285SOL    HW235689  11.240   4.745   3.097
11286SOL     OW35690  12.210   3.187   7.955
11286SOL    HW135691  12.284   3.231   7.997
11286SOL    HW235692  12.226   3.198   7.861
11287SOL     OW35693   0.153   8.624   1.863
11287SOL    HW135694   0.109   8.674   1.793
11287SOL    HW235695   0.101   8.642   1.941
11288SOL     OW35696  10.612   3.942   4.116
11288SOL    HW135697  10.541   3.948   4.179
11288SOL    HW235698  10.569   3.947   4.030
11289SOL     OW35699   1.859  13.602   3.185
11289SOL    HW135700   1.857  13.685   3.138
11289SOL    HW235701   1.878  13.537   3.117
11290SOL     OW35702   2.571   0.495   6.851
11290SOL    HW135703   2.478   0.485   6.828
11290SOL    HW235704   2.610   0.410   6.831
11291SOL     OW35705  12.910   2.894   4.023
11291SOL    HW135706  12.837   2.876   4.082
11291SOL    HW235707  12.968   2.818   4.031
11292SOL     OW35708   0.357   8.797   5.567
11292SOL    HW135709   0.393   8.807   5.656
11292SOL    HW235710   0.406   8.724   5.530
11293SOL     OW35711   5.810   1.014  13.461
11293SOL    HW135712   5.889   0.960  13.455
11293SOL    HW235713   5.799   1.050  13.372
11294SOL     OW35714   7.120  13.839   2.160
11294SOL    HW135715   7.147  13.857   2.250
11294SOL    HW235716   7.201  13.817   2.115
11295SOL     OW35717  10.652   0.455   8.740
11295SOL    HW135718  10.587   0.515   8.704
11295SOL    HW235719  10.719   0.449   8.673
11296SOL     OW35720  10.836   0.958   3.395
11296SOL    HW135721  10.816   0.871   3.431
11296SOL    HW235722  10.788   1.019   3.451
11297SOL     OW35723   6.931   8.997   0.755
11297SOL    HW135724   6.893   9.014   0.841
11297SOL    HW235725   6.883   8.921   0.722
11298SOL     OW35726   9.973  11.594   6.720
11298SOL    HW135727   9.973  11.598   6.816
11298SOL    HW235728   9.914  11.522   6.699
11299SOL     OW35729   2.758  10.019   2.618
11299SOL    HW135730   2.772   9.929   2.650
11299SOL    HW235731   2.676  10.015   2.569
11300SOL     OW35732  14.241  10.162  12.029
11300SOL    HW135733  14.202  10.129  11.948
11300SOL    HW235734  14.222  10.094  12.094
11301SOL     OW35735   8.688   0.794  11.031
11301SOL    HW135736   8.667   0.880  11.067
11301SOL    HW235737   8.630   0.785  10.955
11302SOL     OW35738   2.933   3.959  14.191
11302SOL    HW135739   2.844   3.979  14.162
11302SOL    HW235740   2.984   3.953  14.111
11303SOL     OW35741   2.797   1.728  12.986
11303SOL    HW135742   2.813   1.737  12.892
11303SOL    HW235743   2.871   1.773  13.026
11304SOL     OW35744   4.068   9.785   6.163
11304SOL    HW135745   4.135   9.717   6.175
11304SOL    HW235746   4.066   9.801   6.069
11305SOL     OW35747   4.024   9.322   0.933
11305SOL    HW135748   3.972   9.401   0.944
11305SOL    HW235749   4.113   9.348   0.957
11306SOL     OW35750   8.149   8.934   6.686
11306SOL    HW135751   8.087   8.939   6.613
11306SOL    HW235752   8.126   9.007   6.743
11307SOL     OW35753  12.128   2.777  12.000
11307SOL    HW135754  12.155   2.686  11.992
11307SOL    HW235755  12.197   2.818  12.053
11308SOL     OW35756  13.209   0.123   2.148
11308SOL    HW135757  13.166   0.165   2.073
11308SOL    HW235758  13.216   0.031   2.124
11309SOL     OW35759   2.772   0.755   4.579
11309SOL    HW135760   2.799   0.774   4.669
11309SOL    HW235761   2.682   0.787   4.573
11310SOL     OW35762  12.262  13.490   2.693
11310SOL    HW135763  12.262  13.491   2.597
11310SOL    HW235764  12.221  13.406   2.715
11311SOL     OW35765  10.901   8.482  10.952
11311SOL    HW135766  10.843   8.539  11.002
11311SOL    HW235767  10.908   8.403  11.004
11312SOL     OW35768   9.513   1.541   3.421
11312SOL    HW135769   9.599   1.557   3.383
11312SOL    HW235770   9.479   1.628   3.440
11313SOL     OW35771   8.403   0.108  14.381
11313SOL    HW135772   8.476   0.116  14.320
11313SOL    HW235773   8.443   0.110  14.468
11314SOL     OW35774   7.065  12.495   9.811
11314SOL    HW135775   7.041  12.423   9.868
11314SOL    HW235776   7.144  12.532   9.851
11315SOL     OW35777   7.045   3.348   4.466
11315SOL    HW135778   7.015   3.431   4.429
11315SOL    HW235779   7.127   3.370   4.511
11316SOL     OW35780   8.796   1.690  12.932
11316SOL    HW135781   8.789   1.665  13.024
11316SOL    HW235782   8.711   1.730  12.911
11317SOL     OW35783  11.800   3.285   9.097
11317SOL    HW135784  11.883   3.332   9.098
11317SOL    HW235785  11.748   3.326   9.167
11318SOL     OW35786   4.489   1.524   4.479
11318SOL    HW135787   4.398   1.548   4.461
11318SOL    HW235788   4.494   1.432   4.455
11319SOL     OW35789   0.799  14.236   8.540
11319SOL    HW135790   0.744  14.259   8.615
11319SOL    HW235791   0.833  14.320   8.509
11320SOL     OW35792  10.986   7.765   4.994
11320SOL    HW135793  10.987   7.861   4.989
11320SOL    HW235794  11.070   7.738   4.957
11321SOL     OW35795   4.461  14.735   8.861
11321SOL    HW135796   4.515  14.688   8.797
11321SOL    HW235797   4.497  14.823   8.863
11322SOL     OW35798   8.188   2.651  14.681
11322SOL    HW135799   8.187   2.705  14.760
11322SOL    HW235800   8.189   2.713  14.608
11323SOL     OW35801   4.520  14.864   9.943
11323SOL    HW135802   4.551  14.848  10.032
11323SOL    HW235803   4.586  14.824   9.887
11324SOL     OW35804   5.350   2.389  12.593
11324SOL    HW135805   5.333   2.430  12.509
11324SOL    HW235806   5.306   2.304  12.588
11325SOL     OW35807   2.425  13.717  12.159
11325SOL    HW135808   2.459  13.771  12.087
11325SOL    HW235809   2.410  13.631  12.120
11326SOL     OW35810   9.296   8.659   5.042
11326SOL    HW135811   9.211   8.686   5.077
11326SOL    HW235812   9.292   8.681   4.949
11327SOL     OW35813  10.423   9.218   9.918
11327SOL    HW135814  10.357   9.283   9.894
11327SOL    HW235815  10.387   9.135   9.889
11328SOL     OW35816   6.262  12.345   7.521
11328SOL    HW135817   6.187  12.289   7.503
11328SOL    HW235818   6.236  12.432   7.489
11329SOL     OW35819   8.628  12.378   5.674
11329SOL    HW135820   8.715  12.417   5.660
11329SOL    HW235821   8.590  12.374   5.586
11330SOL     OW35822   2.263  13.569   4.579
11330SOL    HW135823   2.169  13.564   4.593
11330SOL    HW235824   2.293  13.638   4.639
11331SOL     OW35825   8.502   5.322  13.457
11331SOL    HW135826   8.464   5.392  13.403
11331SOL    HW235827   8.594   5.320  13.429
11332SOL     OW35828   3.975  11.327  13.612
11332SOL    HW135829   3.966  11.399  13.675
11332SOL    HW235830   4.007  11.369  13.532
11333SOL     OW35831   3.855  13.332  14.152
11333SOL    HW135832   3.854  13.367  14.241
11333SOL    HW235833   3.901  13.399  14.101
11334SOL     OW35834   3.216   2.644  10.204
11334SOL    HW135835   3.283   2.601  10.257
11334SOL    HW235836   3.208   2.731  10.243
11335SOL     OW35837   3.745   7.542  11.853
11335SOL    HW135838   3.771   7.619  11.803
11335SOL    HW235839   3.679   7.499  11.800
11336SOL     OW35840   6.863   1.289  10.219
11336SOL    HW135841   6.837   1.212  10.169
11336SOL    HW235842   6.800   1.356  10.195
11337SOL     OW35843   4.874   3.518  13.301
11337SOL    HW135844   4.785   3.552  13.307
11337SOL    HW235845   4.877   3.446  13.364
11338SOL     OW35846   4.509  14.489  10.840
11338SOL    HW135847   4.482  14.569  10.884
11338SOL    HW235848   4.438  14.472  10.777
11339SOL     OW35849   7.154   9.186   9.562
11339SOL    HW135850   7.128   9.278   9.551
11339SOL    HW235851   7.249   9.188   9.569
11340SOL     OW35852   6.713   8.907  13.522
11340SOL    HW135853   6.685   8.988  13.479
11340SOL    HW235854   6.659   8.901  13.601
11341SOL     OW35855  11.100  10.565  12.709
11341SOL    HW135856  11.142  10.643  12.746
11341SOL    HW235857  11.174  10.510  12.682
11342SOL     OW35858   4.099  13.550   3.900
11342SOL    HW135859   4.034  13.480   3.898
11342SOL    HW235860   4.064  13.618   3.843
11343SOL     OW35861   8.080  12.938   1.422
11343SOL    HW135862   8.053  12.985   1.500
11343SOL    HW235863   8.155  12.885   1.450
11344SOL     OW35864  11.954  11.455  13.134
11344SOL    HW135865  11.883  11.446  13.071
11344SOL    HW235866  11.918  11.423  13.217
11345SOL     OW35867  12.889   4.136   5.656
11345SOL    HW135868  12.858   4.050   5.630
11345SOL    HW235869  12.904   4.129   5.751
11346SOL     OW35870   4.713  12.144   4.131
11346SOL    HW135871   4.708  12.134   4.036
11346SOL    HW235872   4.737  12.057   4.163
11347SOL     OW35873  13.060   3.156   3.009
11347SOL    HW135874  12.984   3.203   3.042
11347SOL    HW235875  13.035   3.128   2.921
11348SOL     OW35876   9.186   7.550   0.969
11348SOL    HW135877   9.270   7.507   0.985
11348SOL    HW235878   9.209   7.640   0.948
11349SOL     OW35879   4.389   9.334   7.073
11349SOL    HW135880   4.358   9.331   7.163
11349SOL    HW235881   4.421   9.245   7.056
11350SOL     OW35882  12.860  13.898  11.556
11350SOL    HW135883  12.950  13.920  11.531
11350SOL    HW235884  12.818  13.983  11.569
11351SOL     OW35885  10.790  12.046   4.768
11351SOL    HW135886  10.705  12.046   4.723
11351SOL    HW235887  10.820  12.136   4.763
11352SOL     OW35888  11.747   5.969   4.127
11352SOL    HW135889  11.656   5.951   4.100
11352SOL    HW235890  11.739   6.037   4.194
11353SOL     OW35891   1.226  12.815  14.413
11353SOL    HW135892   1.272  12.745  14.366
11353SOL    HW235893   1.203  12.777  14.497
11354SOL     OW35894  12.349   4.907   5.030
11354SOL    HW135895  12.259   4.876   5.040
11354SOL    HW235896  12.386   4.851   4.962
11355SOL     OW35897   0.380   7.415   4.162
11355SOL    HW135898   0.409   7.456   4.080
11355SOL    HW235899   0.360   7.325   4.138
11356SOL     OW35900  13.295   8.509   2.469
11356SOL    HW135901  13.293   8.436   2.407
11356SOL    HW235902  13.230   8.571   2.434
11357SOL     OW35903   5.136  13.763   6.322
11357SOL    HW135904   5.095  13.737   6.404
11357SOL    HW235905   5.091  13.712   6.255
11358SOL     OW35906   5.734   1.082   2.542
11358SOL    HW135907   5.816   1.123   2.514
11358SOL    HW235908   5.742   0.991   2.513
11359SOL     OW35909   6.501   9.431   0.067
11359SOL    HW135910   6.535   9.470  14.859
11359SOL    HW235911   6.479   9.341   0.042
11360SOL     OW35912   2.415   8.170  14.317
11360SOL    HW135913   2.346   8.237  14.313
11360SOL    HW235914   2.367   8.088  14.329
11361SOL     OW35915   0.993  12.385   1.335
11361SOL    HW135916   0.986  12.295   1.368
11361SOL    HW235917   1.030  12.435   1.408
11362SOL     OW35918   7.312   0.022   6.497
11362SOL    HW135919   7.347   0.057   6.579
11362SOL    HW235920   7.219   0.044   6.500
11363SOL     OW35921   5.800  14.251   6.227
11363SOL    HW135922   5.882  14.214   6.195
11363SOL    HW235923   5.764  14.299   6.152
11364SOL     OW35924  10.945   9.229  12.070
11364SOL    HW135925  10.877   9.161  12.075
11364SOL    HW235926  10.980   9.222  11.982
11365SOL     OW35927  11.509   3.765   8.662
11365SOL    HW135928  11.584   3.715   8.692
11365SOL    HW235929  11.540   3.810   8.583
11366SOL     OW35930   9.454   7.775   7.582
11366SOL    HW135931   9.495   7.763   7.496
11366SOL    HW235932   9.458   7.869   7.598
11367SOL     OW35933   9.084   0.778   9.364
11367SOL    HW135934   9.111   0.789   9.455
11367SOL    HW235935   9.001   0.825   9.358
11368SOL     OW35936  11.569  10.212  13.535
11368SOL    HW135937  11.625  10.290  13.536
11368SOL    HW235938  11.629  10.141  13.510
11369SOL     OW35939   4.278   9.681   2.033
11369SOL    HW135940   4.217   9.750   2.061
11369SOL    HW235941   4.365   9.715   2.056
11370SOL     OW35942   9.308  13.838  10.183
11370SOL    HW135943   9.213  13.840  10.197
11370SOL    HW235944   9.335  13.753  10.217
11371SOL     OW35945  13.981   9.758   3.379
11371SOL    HW135946  13.951   9.742   3.469
11371SOL    HW235947  14.022   9.676   3.353
11372SOL     OW35948   4.527  11.854   5.615
11372SOL    HW135949   4.586  11.875   5.543
11372SOL    HW235950   4.477  11.935   5.630
11373SOL     OW35951  14.271  11.570  10.175
11373SOL    HW135952  14.288  11.547  10.267
11373SOL    HW235953  14.311  11.656  10.165
11374SOL     OW35954  10.743   3.384   3.384
11374SOL    HW135955  10.701   3.301   3.361
11374SOL    HW235956  10.674   3.436   3.424
11375SOL     OW35957  13.262   1.824   2.839
11375SOL    HW135958  13.185   1.830   2.895
11375SOL    HW235959  13.235   1.769   2.766
11376SOL     OW35960   3.594   6.250   9.132
11376SOL    HW135961   3.503   6.221   9.130
11376SOL    HW235962   3.645   6.171   9.115
11377SOL     OW35963  10.495   8.747   9.126
11377SOL    HW135964  10.538   8.758   9.041
11377SOL    HW235965  10.507   8.654   9.147
11378SOL     OW35966   5.927   3.342  14.202
11378SOL    HW135967   5.988   3.372  14.134
11378SOL    HW235968   5.949   3.250  14.215
11379SOL     OW35969   9.038   0.282   6.835
11379SOL    HW135970   9.034   0.197   6.880
11379SOL    HW235971   9.103   0.269   6.766
11380SOL     OW35972  12.564   0.099   4.634
11380SOL    HW135973  12.478   0.070   4.664
11380SOL    HW235974  12.546   0.168   4.570
11381SOL     OW35975  13.959   1.185   5.693
11381SOL    HW135976  13.920   1.241   5.760
11381SOL    HW235977  13.944   1.232   5.611
11382SOL     OW35978   3.256   4.149   1.986
11382SOL    HW135979   3.180   4.135   2.044
11382SOL    HW235980   3.217   4.178   1.904
11383SOL     OW35981  12.948   7.263   6.064
11383SOL    HW135982  12.989   7.282   5.980
11383SOL    HW235983  12.901   7.181   6.050
11384SOL     OW35984  14.729  12.336  12.777
11384SOL    HW135985  14.814  12.293  12.786
11384SOL    HW235986  14.711  12.335  12.683
11385SOL     OW35987  10.420   6.372  11.530
11385SOL    HW135988  10.350   6.309  11.515
11385SOL    HW235989  10.377   6.445  11.575
11386SOL     OW35990  10.320   1.900   2.446
11386SOL    HW135991  10.231   1.933   2.459
11386SOL    HW235992  10.349   1.940   2.364
11387SOL     OW35993  11.156  13.768  10.968
11387SOL    HW135994  11.131  13.811  11.050
11387SOL    HW235995  11.189  13.682  10.995
11388SOL     OW35996   4.942   4.354   3.371
11388SOL    HW135997   4.854   4.341   3.335
11388SOL    HW235998   5.000   4.339   3.297
11389SOL     OW35999   8.632   4.297  12.075
11389SOL    HW136000   8.682   4.316  11.995
11389SOL    HW236001   8.683   4.230  12.120
11390SOL     OW36002   6.543   2.424   2.172
11390SOL    HW136003   6.460   2.449   2.214
11390SOL    HW236004   6.577   2.507   2.137
11391SOL     OW36005   2.337   9.803   3.944
11391SOL    HW136006   2.403   9.734   3.936
11391SOL    HW236007   2.278   9.788   3.871
11392SOL     OW36008  13.938   2.251   9.782
11392SOL    HW136009  13.944   2.286   9.692
11392SOL    HW236010  13.889   2.318   9.830
11393SOL     OW36011  10.931   0.466   3.167
11393SOL    HW136012  10.860   0.459   3.230
11393SOL    HW236013  10.988   0.535   3.202
11394SOL     OW36014   7.080   2.916   9.492
11394SOL    HW136015   6.984   2.920   9.497
11394SOL    HW236016   7.109   2.965   9.569
11395SOL     OW36017   2.112   4.511   8.926
11395SOL    HW136018   2.127   4.602   8.902
11395SOL    HW236019   2.018   4.506   8.944
11396SOL     OW36020  13.546   2.938   1.471
11396SOL    HW136021  13.632   2.905   1.447
11396SOL    HW236022  13.485   2.871   1.442
11397SOL     OW36023   9.656   1.617   9.709
11397SOL    HW136024   9.701   1.689   9.753
11397SOL    HW236025   9.691   1.538   9.751
11398SOL     OW36026   8.960   4.387   3.202
11398SOL    HW136027   9.041   4.426   3.235
11398SOL    HW236028   8.975   4.293   3.205
11399SOL     OW36029   3.443  10.680   1.222
11399SOL    HW136030   3.402  10.735   1.155
11399SOL    HW236031   3.498  10.741   1.271
11400SOL     OW36032   9.963   4.943   6.493
11400SOL    HW136033   9.923   4.944   6.406
11400SOL    HW236034   9.988   4.851   6.507
11401SOL     OW36035  12.344   7.127  10.822
11401SOL    HW136036  12.296   7.058  10.868
11401SOL    HW236037  12.436   7.110  10.842
11402SOL     OW36038   9.420   3.357   3.440
11402SOL    HW136039   9.421   3.339   3.346
11402SOL    HW236040   9.327   3.366   3.462
11403SOL     OW36041   0.980   6.242   6.246
11403SOL    HW136042   1.072   6.234   6.220
11403SOL    HW236043   0.982   6.233   6.341
11404SOL     OW36044   6.269   8.641  13.784
11404SOL    HW136045   6.200   8.627  13.849
11404SOL    HW236046   6.349   8.653  13.836
11405SOL     OW36047  11.104   5.250   4.238
11405SOL    HW136048  11.142   5.165   4.216
11405SOL    HW236049  11.078   5.242   4.330
11406SOL     OW36050   8.028  11.578   2.547
11406SOL    HW136051   8.006  11.664   2.511
11406SOL    HW236052   8.003  11.584   2.639
11407SOL     OW36053   7.485  11.471  13.198
11407SOL    HW136054   7.401  11.463  13.244
11407SOL    HW236055   7.466  11.439  13.109
11408SOL     OW36056   8.579   4.677  12.657
11408SOL    HW136057   8.512   4.630  12.608
11408SOL    HW236058   8.662   4.646  12.621
11409SOL     OW36059   1.551   0.332  10.137
11409SOL    HW136060   1.589   0.303  10.054
11409SOL    HW236061   1.561   0.427  10.136
11410SOL     OW36062  13.030  11.886   2.774
11410SOL    HW136063  13.099  11.927   2.826
11410SOL    HW236064  13.069  11.805   2.742
11411SOL     OW36065   2.478   8.202   0.469
11411SOL    HW136066   2.475   8.252   0.387
11411SOL    HW236067   2.399   8.149   0.468
11412SOL     OW36068  10.189   8.479   6.354
11412SOL    HW136069  10.161   8.465   6.444
11412SOL    HW236070  10.161   8.568   6.333
11413SOL     OW36071   4.764   0.339   1.224
11413SOL    HW136072   4.679   0.329   1.181
11413SOL    HW236073   4.825   0.290   1.169
11414SOL     OW36074  10.195   6.476   2.930
11414SOL    HW136075  10.208   6.569   2.912
11414SOL    HW236076  10.196   6.470   3.026
11415SOL     OW36077   6.905   1.143  12.022
11415SOL    HW136078   6.910   1.178  11.932
11415SOL    HW236079   6.825   1.090  12.022
11416SOL     OW36080   9.735  13.689   4.734
11416SOL    HW136081   9.734  13.671   4.828
11416SOL    HW236082   9.662  13.750   4.720
11417SOL     OW36083   2.609  12.176   7.756
11417SOL    HW136084   2.669  12.231   7.706
11417SOL    HW236085   2.592  12.101   7.699
11418SOL     OW36086  13.192   5.917   4.224
11418SOL    HW136087  13.217   5.832   4.260
11418SOL    HW236088  13.211   5.911   4.131
11419SOL     OW36089   0.112  12.406   5.410
11419SOL    HW136090   0.062  12.487   5.417
11419SOL    HW236091   0.048  12.337   5.431
11420SOL     OW36092   1.831   0.551  14.146
11420SOL    HW136093   1.893   0.624  14.146
11420SOL    HW236094   1.759   0.580  14.091
11421SOL     OW36095   2.644   8.899  13.898
11421SOL    HW136096   2.660   8.948  13.817
11421SOL    HW236097   2.662   8.808  13.874
11422SOL     OW36098  10.077   6.173   3.686
11422SOL    HW136099   9.994   6.139   3.651
11422SOL    HW236100  10.144   6.120   3.644
11423SOL     OW36101   8.349   6.065   2.472
11423SOL    HW136102   8.264   6.066   2.515
11423SOL    HW236103   8.349   5.986   2.418
11424SOL     OW36104  13.086  13.488   9.042
11424SOL    HW136105  13.171  13.529   9.037
11424SOL    HW236106  13.092  13.412   8.983
11425SOL     OW36107   4.079   1.047   6.187
11425SOL    HW136108   4.086   1.034   6.282
11425SOL    HW236109   3.984   1.048   6.171
11426SOL     OW36110  10.641   1.461  10.374
11426SOL    HW136111  10.557   1.423  10.350
11426SOL    HW236112  10.690   1.465  10.292
11427SOL     OW36113   8.771  11.683   5.438
11427SOL    HW136114   8.704  11.745   5.410
11427SOL    HW236115   8.757  11.674   5.532
11428SOL     OW36116   9.211  12.124   1.439
11428SOL    HW136117   9.173  12.039   1.417
11428SOL    HW236118   9.169  12.185   1.379
11429SOL     OW36119  10.747   5.951  11.724
11429SOL    HW136120  10.673   6.004  11.696
11429SOL    HW236121  10.754   5.965  11.818
11430SOL     OW36122   5.494   3.479  11.962
11430SOL    HW136123   5.450   3.404  11.923
11430SOL    HW236124   5.588   3.462  11.948
11431SOL     OW36125  12.005   4.820   8.320
11431SOL    HW136126  12.083   4.795   8.367
11431SOL    HW236127  11.949   4.743   8.323
11432SOL     OW36128   7.244  10.721   7.975
11432SOL    HW136129   7.188  10.645   7.961
11432SOL    HW236130   7.260  10.723   8.069
11433SOL     OW36131  11.573   3.266   3.412
11433SOL    HW136132  11.665   3.251   3.433
11433SOL    HW236133  11.575   3.302   3.323
11434SOL     OW36134   8.694  13.115  12.799
11434SOL    HW136135   8.689  13.021  12.816
11434SOL    HW236136   8.777  13.143  12.838
11435SOL     OW36137   9.669  10.199   3.995
11435SOL    HW136138   9.715  10.193   3.912
11435SOL    HW236139   9.629  10.113   4.007
11436SOL     OW36140   8.015  10.634   7.771
11436SOL    HW136141   8.015  10.635   7.866
11436SOL    HW236142   7.996  10.544   7.747
11437SOL     OW36143  13.202   5.047   0.164
11437SOL    HW136144  13.285   5.066   0.208
11437SOL    HW236145  13.227   5.012   0.079
11438SOL     OW36146  12.217   6.019  12.810
11438SOL    HW136147  12.275   6.095  12.808
11438SOL    HW236148  12.264   5.952  12.760
11439SOL     OW36149   6.492   9.884  11.077
11439SOL    HW136150   6.461   9.928  11.156
11439SOL    HW236151   6.443   9.925  11.006
11440SOL     OW36152   7.473   3.583   7.436
11440SOL    HW136153   7.441   3.624   7.517
11440SOL    HW236154   7.423   3.625   7.367
11441SOL     OW36155   4.575  10.497  11.446
11441SOL    HW136156   4.505  10.432  11.444
11441SOL    HW236157   4.544  10.568  11.390
11442SOL     OW36158  12.660   5.049   5.638
11442SOL    HW136159  12.712   5.076   5.563
11442SOL    HW236160  12.676   5.118   5.704
11443SOL     OW36161   7.826  13.059   6.727
11443SOL    HW136162   7.821  12.964   6.733
11443SOL    HW236163   7.918  13.078   6.709
11444SOL     OW36164   7.621   8.210   1.595
11444SOL    HW136165   7.623   8.131   1.541
11444SOL    HW236166   7.550   8.262   1.558
11445SOL     OW36167   1.916   6.018   0.787
11445SOL    HW136168   1.996   5.967   0.782
11445SOL    HW236169   1.846   5.954   0.777
11446SOL     OW36170   7.161   0.618  10.938
11446SOL    HW136171   7.142   0.709  10.963
11446SOL    HW236172   7.125   0.566  11.011
11447SOL     OW36173   7.505   9.609  12.373
11447SOL    HW136174   7.446   9.684  12.369
11447SOL    HW236175   7.558   9.616  12.293
11448SOL     OW36176   8.618   9.814  14.198
11448SOL    HW136177   8.641   9.721  14.206
11448SOL    HW236178   8.527   9.819  14.227
11449SOL     OW36179   2.479  13.985   4.150
11449SOL    HW136180   2.440  14.072   4.145
11449SOL    HW236181   2.413  13.930   4.191
11450SOL     OW36182   0.681   2.174   9.636
11450SOL    HW136183   0.721   2.168   9.549
11450SOL    HW236184   0.629   2.093   9.644
11451SOL     OW36185   0.814   4.100  12.429
11451SOL    HW136186   0.754   4.043  12.382
11451SOL    HW236187   0.857   4.151  12.361
11452SOL     OW36188  12.688  13.419  10.827
11452SOL    HW136189  12.722  13.451  10.743
11452SOL    HW236190  12.767  13.397  10.878
11453SOL     OW36191   9.517  12.904  11.830
11453SOL    HW136192   9.428  12.890  11.862
11453SOL    HW236193   9.568  12.921  11.909
11454SOL     OW36194   7.498   5.825  14.367
11454SOL    HW136195   7.583   5.786  14.385
11454SOL    HW236196   7.441   5.790  14.436
11455SOL     OW36197  11.294   0.783   1.994
11455SOL    HW136198  11.353   0.858   1.982
11455SOL    HW236199  11.284   0.776   2.089
11456SOL     OW36200  12.308  14.190  13.214
11456SOL    HW136201  12.362  14.206  13.292
11456SOL    HW236202  12.357  14.125  13.164
11457SOL     OW36203   6.070   7.976   6.303
11457SOL    HW136204   6.030   8.018   6.227
11457SOL    HW236205   6.053   7.883   6.291
11458SOL     OW36206   6.586  13.133  13.429
11458SOL    HW136207   6.566  13.112  13.521
11458SOL    HW236208   6.607  13.226  13.429
11459SOL     OW36209   0.734  13.728   3.575
11459SOL    HW136210   0.809  13.772   3.535
11459SOL    HW236211   0.674  13.799   3.598
11460SOL     OW36212  10.105   1.651  12.336
11460SOL    HW136213  10.067   1.591  12.400
11460SOL    HW236214  10.199   1.651  12.356
11461SOL     OW36215  12.574   0.994  11.526
11461SOL    HW136216  12.610   0.944  11.599
11461SOL    HW236217  12.649   1.007  11.467
11462SOL     OW36218   9.719   6.048  11.410
11462SOL    HW136219   9.692   6.030  11.320
11462SOL    HW236220   9.805   6.090  11.401
11463SOL     OW36221   7.056   3.271   1.107
11463SOL    HW136222   7.025   3.251   1.018
11463SOL    HW236223   6.977   3.299   1.153
11464SOL     OW36224   7.466   9.807  12.085
11464SOL    HW136225   7.465   9.820  12.179
11464SOL    HW236226   7.410   9.730  12.071
11465SOL     OW36227   9.795   1.156  12.013
11465SOL    HW136228   9.869   1.217  12.011
11465SOL    HW236229   9.720   1.208  11.983
11466SOL     OW36230  11.722   1.640   3.580
11466SOL    HW136231  11.628   1.632   3.560
11466SOL    HW236232  11.745   1.556   3.619
11467SOL     OW36233   7.739   6.048   2.660
11467SOL    HW136234   7.714   6.082   2.574
11467SOL    HW236235   7.655   6.031   2.704
11468SOL     OW36236   1.135  10.120  14.627
11468SOL    HW136237   1.134  10.187  14.558
11468SOL    HW236238   1.089  10.045  14.589
11469SOL     OW36239  11.822   0.296  14.097
11469SOL    HW136240  11.812   0.356  14.171
11469SOL    HW236241  11.860   0.217  14.136
11470SOL     OW36242  14.688   1.391  14.174
11470SOL    HW136243  14.719   1.304  14.151
11470SOL    HW236244  14.768   1.442  14.187
11471SOL     OW36245   6.728   7.829   4.974
11471SOL    HW136246   6.661   7.761   4.964
11471SOL    HW236247   6.714   7.887   4.899
11472SOL     OW36248  10.018  12.615   3.635
11472SOL    HW136249   9.937  12.596   3.682
11472SOL    HW236250  10.032  12.709   3.648
11473SOL     OW36251   8.670   6.073   6.544
11473SOL    HW136252   8.663   5.992   6.494
11473SOL    HW236253   8.755   6.067   6.588
11474SOL     OW36254  13.986   5.241  14.038
11474SOL    HW136255  13.956   5.189  14.113
11474SOL    HW236256  14.081   5.244  14.047
11475SOL     OW36257   1.520   8.463   8.299
11475SOL    HW136258   1.550   8.531   8.239
11475SOL    HW236259   1.429   8.449   8.275
11476SOL     OW36260   0.698   5.739   2.281
11476SOL    HW136261   0.763   5.799   2.246
11476SOL    HW236262   0.735   5.652   2.268
11477SOL     OW36263  12.402  11.621   1.334
11477SOL    HW136264  12.413  11.553   1.401
11477SOL    HW236265  12.307  11.633   1.328
11478SOL     OW36266   4.118   9.507  13.033
11478SOL    HW136267   4.066   9.483  12.956
11478SOL    HW236268   4.055   9.508  13.105
11479SOL     OW36269   4.670   7.860   1.219
11479SOL    HW136270   4.622   7.942   1.215
11479SOL    HW236271   4.762   7.886   1.224
11480SOL     OW36272   9.354   6.017   1.890
11480SOL    HW136273   9.426   5.968   1.930
11480SOL    HW236274   9.336   5.971   1.808
11481SOL     OW36275   2.414   6.565  10.829
11481SOL    HW136276   2.387   6.473  10.834
11481SOL    HW236277   2.359   6.603  10.761
11482SOL     OW36278   7.145   0.256  12.622
11482SOL    HW136279   7.187   0.202  12.688
11482SOL    HW236280   7.178   0.345  12.639
11483SOL     OW36281   5.779   6.455   8.203
11483SOL    HW136282   5.797   6.507   8.125
11483SOL    HW236283   5.846   6.482   8.266
11484SOL     OW36284  14.270   2.664   7.195
11484SOL    HW136285  14.212   2.740   7.196
11484SOL    HW236286  14.214   2.592   7.165
11485SOL     OW36287  12.128  14.070   0.298
11485SOL    HW136288  12.166  13.983   0.299
11485SOL    HW236289  12.147  14.106   0.385
11486SOL     OW36290   6.202   4.220   0.392
11486SOL    HW136291   6.118   4.247   0.356
11486SOL    HW236292   6.207   4.265   0.477
11487SOL     OW36293   4.126   5.997  14.607
11487SOL    HW136294   4.217   6.016  14.628
11487SOL    HW236295   4.120   6.009  14.512
11488SOL     OW36296  11.077  12.095   1.803
11488SOL    HW136297  11.075  12.178   1.756
11488SOL    HW236298  11.109  12.116   1.890
11489SOL     OW36299  10.422   3.335  13.592
11489SOL    HW136300  10.385   3.248  13.577
11489SOL    HW236301  10.364   3.395  13.544
11490SOL     OW36302  10.351   1.117   1.315
11490SOL    HW136303  10.293   1.045   1.340
11490SOL    HW236304  10.368   1.103   1.222
11491SOL     OW36305   8.432   2.593  13.730
11491SOL    HW136306   8.481   2.669  13.699
11491SOL    HW236307   8.432   2.532  13.656
11492SOL     OW36308   7.868   1.356   1.433
11492SOL    HW136309   7.915   1.281   1.469
11492SOL    HW236310   7.869   1.341   1.338
11493SOL     OW36311   3.826   9.638   4.854
11493SOL    HW136312   3.826   9.609   4.763
11493SOL    HW236313   3.837   9.733   4.849
11494SOL     OW36314  11.616   2.221  10.977
11494SOL    HW136315  11.692   2.271  11.006
11494SOL    HW236316  11.640   2.130  10.993
11495SOL     OW36317  13.197   3.749   8.917
11495SOL    HW136318  13.148   3.724   8.839
11495SOL    HW236319  13.144   3.817   8.958
11496SOL     OW36320   8.739   6.888   2.889
11496SOL    HW136321   8.798   6.885   2.964
11496SOL    HW236322   8.656   6.854   2.924
11497SOL     OW36323   0.673   2.202   3.803
11497SOL    HW136324   0.751   2.150   3.820
11497SOL    HW236325   0.695   2.290   3.835
11498SOL     OW36326  11.735   4.408  14.385
11498SOL    HW136327  11.786   4.374  14.312
11498SOL    HW236328  11.800   4.443  14.446
11499SOL     OW36329   4.483  11.743   6.826
11499SOL    HW136330   4.500  11.808   6.758
11499SOL    HW236331   4.488  11.659   6.781
11500SOL     OW36332   2.567   7.272  11.800
11500SOL    HW136333   2.546   7.362  11.773
11500SOL    HW236334   2.632   7.283  11.870
11501SOL     OW36335  14.321   6.582   4.612
11501SOL    HW136336  14.337   6.669   4.651
11501SOL    HW236337  14.361   6.521   4.673
11502SOL     OW36338  13.722  13.913   0.684
11502SOL    HW136339  13.644  13.874   0.723
11502SOL    HW236340  13.750  13.979   0.748
11503SOL     OW36341  11.742   9.872   0.747
11503SOL    HW136342  11.789   9.924   0.812
11503SOL    HW236343  11.802   9.802   0.723
11504SOL     OW36344  10.823  14.643   7.389
11504SOL    HW136345  10.844  14.643   7.295
11504SOL    HW236346  10.873  14.717   7.424
11505SOL     OW36347   8.243  11.209   2.290
11505SOL    HW136348   8.176  11.226   2.356
11505SOL    HW236349   8.314  11.270   2.312
11506SOL     OW36350  12.183  13.699   4.242
11506SOL    HW136351  12.117  13.632   4.256
11506SOL    HW236352  12.258  13.670   4.294
11507SOL     OW36353   3.319   1.203   6.079
11507SOL    HW136354   3.384   1.174   6.015
11507SOL    HW236355   3.235   1.175   6.042
11508SOL     OW36356   7.379  13.200   0.860
11508SOL    HW136357   7.448  13.248   0.813
11508SOL    HW236358   7.324  13.164   0.791
11509SOL     OW36359   7.002   2.195   0.449
11509SOL    HW136360   6.980   2.108   0.415
11509SOL    HW236361   6.955   2.255   0.391
11510SOL     OW36362   6.305   6.760   4.037
11510SOL    HW136363   6.385   6.809   4.055
11510SOL    HW236364   6.276   6.728   4.122
11511SOL     OW36365   9.446   8.316   2.940
11511SOL    HW136366   9.445   8.232   2.986
11511SOL    HW236367   9.359   8.322   2.900
11512SOL     OW36368   3.335   5.710   7.579
11512SOL    HW136369   3.350   5.798   7.613
11512SOL    HW236370   3.410   5.694   7.521
11513SOL     OW36371  10.049  10.121   9.459
11513SOL    HW136372  10.007  10.081   9.382
11513SOL    HW236373  10.133  10.153   9.426
11514SOL     OW36374   0.327   4.017   7.989
11514SOL    HW136375   0.248   3.966   8.007
11514SOL    HW236376   0.352   4.053   8.074
11515SOL     OW36377   7.417   6.953  13.240
11515SOL    HW136378   7.406   6.977  13.332
11515SOL    HW236379   7.369   7.020  13.192
11516SOL     OW36380   5.452   9.689   0.114
11516SOL    HW136381   5.482   9.778   0.131
11516SOL    HW236382   5.492   9.637   0.184
11517SOL     OW36383   9.801   3.387   1.945
11517SOL    HW136384   9.868   3.418   2.005
11517SOL    HW236385   9.749   3.326   1.998
11518SOL     OW36386   8.613  11.342   7.200
11518SOL    HW136387   8.542  11.309   7.254
11518SOL    HW236388   8.639  11.267   7.146
11519SOL     OW36389   8.129  14.069   2.891
11519SOL    HW136390   8.201  14.017   2.855
11519SOL    HW236391   8.091  14.013   2.959
11520SOL     OW36392  14.754   7.325   3.734
11520SOL    HW136393  14.709   7.252   3.778
11520SOL    HW236394  14.753   7.300   3.642
11521SOL     OW36395   5.973   5.121   2.491
11521SOL    HW136396   5.906   5.176   2.531
11521SOL    HW236397   5.999   5.168   2.412
11522SOL     OW36398   5.074  13.331  14.470
11522SOL    HW136399   5.014  13.258  14.452
11522SOL    HW236400   5.157  13.303  14.431
11523SOL     OW36401  14.146   6.100   3.372
11523SOL    HW136402  14.228   6.112   3.420
11523SOL    HW236403  14.167   6.126   3.282
11524SOL     OW36404   5.601   7.257  10.410
11524SOL    HW136405   5.573   7.300  10.329
11524SOL    HW236406   5.588   7.324  10.478
11525SOL     OW36407   4.872  11.226   7.486
11525SOL    HW136408   4.825  11.161   7.539
11525SOL    HW236409   4.839  11.311   7.517
11526SOL     OW36410  14.193  14.241   5.324
11526SOL    HW136411  14.105  14.209   5.346
11526SOL    HW236412  14.193  14.247   5.228
11527SOL     OW36413  10.999  14.409  11.765
11527SOL    HW136414  10.943  14.458  11.826
11527SOL    HW236415  10.939  14.348  11.721
11528SOL     OW36416   8.441   5.045  14.051
11528SOL    HW136417   8.504   5.078  14.115
11528SOL    HW236418   8.484   5.059  13.966
11529SOL     OW36419   2.262  11.679  10.965
11529SOL    HW136420   2.188  11.678  10.904
11529SOL    HW236421   2.238  11.748  11.028
11530SOL     OW36422   5.076   9.095   5.633
11530SOL    HW136423   5.004   9.055   5.583
11530SOL    HW236424   5.125   9.144   5.567
11531SOL     OW36425  13.095   3.733   7.106
11531SOL    HW136426  13.111   3.827   7.118
11531SOL    HW236427  13.022   3.713   7.165
11532SOL     OW36428   6.603   6.790   3.929
11532SOL    HW136429   6.694   6.820   3.938
11532SOL    HW236430   6.554   6.841   3.994
11533SOL     OW36431  14.718   4.303   3.870
11533SOL    HW136432  14.810   4.316   3.890
11533SOL    HW236433  14.716   4.291   3.775
11534SOL     OW36434   7.157   1.806   6.831
11534SOL    HW136435   7.197   1.725   6.799
11534SOL    HW236436   7.230   1.856   6.867
11535SOL     OW36437   2.367   1.568   3.739
11535SOL    HW136438   2.403   1.480   3.732
11535SOL    HW236439   2.272   1.556   3.732
11536SOL     OW36440   0.598   3.734  12.173
11536SOL    HW136441   0.511   3.711  12.204
11536SOL    HW236442   0.643   3.651  12.161
11537SOL     OW36443  14.367   3.981   1.220
11537SOL    HW136444  14.349   4.067   1.182
11537SOL    HW236445  14.294   3.966   1.280
11538SOL     OW36446  13.221  11.705  12.282
11538SOL    HW136447  13.285  11.695  12.353
11538SOL    HW236448  13.226  11.798  12.258
11539SOL     OW36449   2.784  14.606   2.931
11539SOL    HW136450   2.723  14.541   2.898
11539SOL    HW236451   2.870  14.566   2.921
11540SOL     OW36452  12.160   4.116   0.999
11540SOL    HW136453  12.098   4.053   0.964
11540SOL    HW236454  12.151   4.109   1.094
11541SOL     OW36455   7.831   4.523   6.070
11541SOL    HW136456   7.840   4.477   5.986
11541SOL    HW236457   7.887   4.600   6.061
11542SOL     OW36458  10.563   1.427  13.382
11542SOL    HW136459  10.631   1.439  13.316
11542SOL    HW236460  10.592   1.350  13.432
11543SOL     OW36461   4.911   8.541   2.322
11543SOL    HW136462   4.888   8.548   2.414
11543SOL    HW236463   4.875   8.456   2.295
11544SOL     OW36464   6.004  10.533   4.171
11544SOL    HW136465   5.945  10.566   4.239
11544SOL    HW236466   5.948  10.482   4.113
11545SOL     OW36467   8.957   1.141  14.326
11545SOL    HW136468   8.913   1.202  14.266
11545SOL    HW236469   9.046   1.177  14.336
11546SOL     OW36470   4.477   4.572   8.737
11546SOL    HW136471   4.492   4.503   8.672
11546SOL    HW236472   4.477   4.653   8.687
11547SOL     OW36473  11.851   3.697   7.959
11547SOL    HW136474  11.845   3.784   7.920
11547SOL    HW236475  11.868   3.712   8.051
11548SOL     OW36476   9.443   9.019   6.651
11548SOL    HW136477   9.404   9.101   6.618
11548SOL    HW236478   9.410   8.952   6.592
11549SOL     OW36479  12.541   4.042  12.939
11549SOL    HW136480  12.450   4.034  12.909
11549SOL    HW236481  12.575   4.119  12.894
11550SOL     OW36482   1.936   8.009  11.382
11550SOL    HW136483   1.940   8.015  11.287
11550SOL    HW236484   1.964   7.919  11.401
11551SOL     OW36485  10.063   4.006   3.571
11551SOL    HW136486   9.973   4.011   3.605
11551SOL    HW236487  10.062   3.930   3.513
11552SOL     OW36488   6.247   5.385   3.960
11552SOL    HW136489   6.157   5.362   3.981
11552SOL    HW236490   6.241   5.466   3.911
11553SOL     OW36491   0.350   8.887  13.747
11553SOL    HW136492   0.344   8.817  13.812
11553SOL    HW236493   0.404   8.850  13.677
11554SOL     OW36494  11.046  10.642   3.085
11554SOL    HW136495  11.016  10.702   3.154
11554SOL    HW236496  11.039  10.555   3.124
11555SOL     OW36497   4.566   6.207   0.643
11555SOL    HW136498   4.627   6.133   0.638
11555SOL    HW236499   4.487   6.170   0.684
11556SOL     OW36500   2.453  10.958   9.038
11556SOL    HW136501   2.422  10.997   8.956
11556SOL    HW236502   2.480  10.869   9.013
11557SOL     OW36503  12.981   8.453  10.970
11557SOL    HW136504  12.924   8.397  10.916
11557SOL    HW236505  12.920   8.499  11.028
11558SOL     OW36506   2.542   1.972  11.531
11558SOL    HW136507   2.567   1.890  11.490
11558SOL    HW236508   2.453   1.989  11.502
11559SOL     OW36509   5.774   8.708  13.258
11559SOL    HW136510   5.758   8.722  13.351
11559SOL    HW236511   5.706   8.646  13.231
11560SOL     OW36512   6.177   1.625   6.864
11560SOL    HW136513   6.227   1.696   6.823
11560SOL    HW236514   6.182   1.553   6.801
11561SOL     OW36515  14.334   6.997   0.412
11561SOL    HW136516  14.390   7.041   0.476
11561SOL    HW236517  14.307   6.916   0.455
11562SOL     OW36518   8.097   8.539   3.210
11562SOL    HW136519   8.182   8.498   3.197
11562SOL    HW236520   8.072   8.570   3.123
11563SOL     OW36521  13.363  13.302  12.367
11563SOL    HW136522  13.324  13.309  12.454
11563SOL    HW236523  13.311  13.234  12.323
11564SOL     OW36524   5.298   5.219   6.689
11564SOL    HW136525   5.329   5.240   6.601
11564SOL    HW236526   5.223   5.276   6.702
11565SOL     OW36527   3.853  11.564  11.339
11565SOL    HW136528   3.929  11.584  11.284
11565SOL    HW236529   3.799  11.506  11.285
11566SOL     OW36530  13.185   8.918   1.601
11566SOL    HW136531  13.140   8.859   1.540
11566SOL    HW236532  13.273   8.883   1.607
11567SOL     OW36533  10.349  13.863   1.111
11567SOL    HW136534  10.371  13.814   1.191
11567SOL    HW236535  10.427  13.915   1.093
11568SOL     OW36536  12.462   6.900  12.141
11568SOL    HW136537  12.494   6.888  12.230
11568SOL    HW236538  12.386   6.958  12.149
11569SOL     OW36539  14.756  10.127   0.058
11569SOL    HW136540  14.712  10.209   0.081
11569SOL    HW236541  14.757  10.126  14.835
11570SOL     OW36542   5.208   3.040   4.482
11570SOL    HW136543   5.214   3.135   4.491
11570SOL    HW236544   5.291   3.007   4.516
11571SOL     OW36545   9.353  10.617   5.198
11571SOL    HW136546   9.350  10.665   5.280
11571SOL    HW236547   9.403  10.673   5.139
11572SOL     OW36548   2.989   9.493  13.713
11572SOL    HW136549   2.970   9.586  13.702
11572SOL    HW236550   3.072   9.480  13.666
11573SOL     OW36551   8.023   5.987   0.943
11573SOL    HW136552   8.113   6.002   0.917
11573SOL    HW236553   8.010   5.892   0.933
11574SOL     OW36554   6.416   7.273  10.427
11574SOL    HW136555   6.415   7.177  10.428
11574SOL    HW236556   6.484   7.295  10.363
11575SOL     OW36557   3.639  10.451   2.468
11575SOL    HW136558   3.650  10.541   2.498
11575SOL    HW236559   3.727  10.422   2.445
11576SOL     OW36560   0.490  11.269   1.594
11576SOL    HW136561   0.444  11.348   1.567
11576SOL    HW236562   0.510  11.283   1.686
11577SOL     OW36563   5.183  13.455   2.389
11577SOL    HW136564   5.166  13.525   2.327
11577SOL    HW236565   5.152  13.376   2.345
11578SOL     OW36566   9.316   3.057   0.463
11578SOL    HW136567   9.247   3.103   0.416
11578SOL    HW236568   9.386   3.122   0.474
11579SOL     OW36569   8.096  11.542  13.008
11579SOL    HW136570   8.034  11.610  13.037
11579SOL    HW236571   8.041  11.473  12.972
11580SOL     OW36572   2.061  10.022   2.888
11580SOL    HW136573   2.079  10.065   2.804
11580SOL    HW236574   2.104   9.937   2.882
11581SOL     OW36575   3.654   5.778   0.178
11581SOL    HW136576   3.659   5.835   0.254
11581SOL    HW236577   3.562   5.753   0.171
11582SOL     OW36578  10.167   8.121  13.873
11582SOL    HW136579  10.236   8.146  13.935
11582SOL    HW236580  10.194   8.162  13.790
11583SOL     OW36581  11.785   8.918   2.274
11583SOL    HW136582  11.792   8.974   2.350
11583SOL    HW236583  11.794   8.977   2.199
11584SOL     OW36584  13.875  12.681   7.419
11584SOL    HW136585  13.903  12.677   7.328
11584SOL    HW236586  13.784  12.708   7.415
11585SOL     OW36587   5.472   2.637   4.938
11585SOL    HW136588   5.407   2.603   4.876
11585SOL    HW236589   5.473   2.732   4.922
11586SOL     OW36590  11.863  14.062   0.244
11586SOL    HW136591  11.870  14.005   0.167
11586SOL    HW236592  11.951  14.097   0.256
11587SOL     OW36593  13.280  12.055   9.774
11587SOL    HW136594  13.195  12.064   9.732
11587SOL    HW236595  13.327  11.992   9.719
11588SOL     OW36596   2.444  11.100   8.036
11588SOL    HW136597   2.391  11.023   8.012
11588SOL    HW236598   2.481  11.130   7.954
11589SOL     OW36599   0.173   7.812   3.008
11589SOL    HW136600   0.159   7.850   3.095
11589SOL    HW236601   0.262   7.838   2.984
11590SOL     OW36602   3.962  11.940   8.226
11590SOL    HW136603   4.034  11.878   8.227
11590SOL    HW236604   3.947  11.960   8.319
11591SOL     OW36605  10.092   3.324  12.324
11591SOL    HW136606  10.036   3.246  12.321
11591SOL    HW236607  10.180   3.291  12.305
11592SOL     OW36608   3.089  10.478   8.054
11592SOL    HW136609   3.032  10.545   8.018
11592SOL    HW236610   3.091  10.497   8.148
11593SOL     OW36611   4.106   7.776  10.135
11593SOL    HW136612   4.111   7.856  10.187
11593SOL    HW236613   4.179   7.783  10.073
11594SOL     OW36614   5.749  12.936   1.483
11594SOL    HW136615   5.819  12.911   1.544
11594SOL    HW236616   5.769  13.027   1.459
11595SOL     OW36617  11.055  12.411   8.028
11595SOL    HW136618  11.141  12.454   8.031
11595SOL    HW236619  11.065  12.343   7.962
11596SOL     OW36620  12.447  14.721   3.585
11596SOL    HW136621  12.441  14.811   3.617
11596SOL    HW236622  12.402  14.669   3.652
11597SOL     OW36623   5.764   4.909   8.541
11597SOL    HW136624   5.784   4.919   8.448
11597SOL    HW236625   5.822   4.839   8.571
11598SOL     OW36626  11.885  13.830  12.823
11598SOL    HW136627  11.843  13.750  12.789
11598SOL    HW236628  11.942  13.858  12.752
11599SOL     OW36629  12.588  10.020   1.195
11599SOL    HW136630  12.570  10.048   1.285
11599SOL    HW236631  12.614  10.100   1.149
11600SOL     OW36632   0.148   4.575   6.541
11600SOL    HW136633   0.217   4.576   6.474
11600SOL    HW236634   0.082   4.636   6.507
11601SOL     OW36635   2.649   7.624   4.024
11601SOL    HW136636   2.683   7.702   4.069
11601SOL    HW236637   2.707   7.553   4.052
11602SOL     OW36638   3.286   6.209   6.830
11602SOL    HW136639   3.264   6.260   6.909
11602SOL    HW236640   3.381   6.217   6.823
11603SOL     OW36641  10.880  14.301   3.032
11603SOL    HW136642  10.844  14.340   3.112
11603SOL    HW236643  10.831  14.343   2.961
11604SOL     OW36644  12.452   8.196   1.812
11604SOL    HW136645  12.535   8.196   1.765
11604SOL    HW236646  12.396   8.135   1.764
11605SOL     OW36647   8.185   8.958   3.019
11605SOL    HW136648   8.209   9.041   2.979
11605SOL    HW236649   8.254   8.897   2.991
11606SOL     OW36650  12.773  12.536   5.178
11606SOL    HW136651  12.680  12.533   5.157
11606SOL    HW236652  12.806  12.612   5.130
11607SOL     OW36653   8.427   6.304   3.224
11607SOL    HW136654   8.494   6.262   3.279
11607SOL    HW236655   8.445   6.272   3.136
11608SOL     OW36656   9.761   2.123   7.541
11608SOL    HW136657   9.848   2.088   7.521
11608SOL    HW236658   9.777   2.193   7.604
11609SOL     OW36659   1.698   6.647   9.352
11609SOL    HW136660   1.671   6.560   9.323
11609SOL    HW236661   1.739   6.686   9.275
11610SOL     OW36662  10.663   5.470   1.698
11610SOL    HW136663  10.578   5.511   1.683
11610SOL    HW236664  10.685   5.428   1.614
11611SOL     OW36665   5.452   0.889   5.595
11611SOL    HW136666   5.490   0.847   5.672
11611SOL    HW236667   5.513   0.959   5.572
11612SOL     OW36668   7.457   7.283   0.969
11612SOL    HW136669   7.491   7.229   1.040
11612SOL    HW236670   7.530   7.340   0.945
11613SOL     OW36671   5.902   3.450   0.368
11613SOL    HW136672   5.891   3.380   0.432
11613SOL    HW236673   5.937   3.524   0.419
11614SOL     OW36674   5.202   5.430  10.537
11614SOL    HW136675   5.165   5.440  10.449
11614SOL    HW236676   5.286   5.386  10.524
11615SOL     OW36677  14.284   0.299   3.261
11615SOL    HW136678  14.316   0.229   3.204
11615SOL    HW236679  14.334   0.289   3.341
11616SOL     OW36680   3.331  13.179   1.306
11616SOL    HW136681   3.306  13.240   1.236
11616SOL    HW236682   3.344  13.095   1.260
11617SOL     OW36683   3.171   6.345   7.862
11617SOL    HW136684   3.252   6.386   7.894
11617SOL    HW236685   3.147   6.396   7.785
11618SOL     OW36686   4.789  14.643  13.022
11618SOL    HW136687   4.856  14.711  13.026
11618SOL    HW236688   4.718  14.676  13.077
11619SOL     OW36689   0.934   7.044   8.473
11619SOL    HW136690   0.839   7.037   8.473
11619SOL    HW236691   0.964   6.962   8.513
11620SOL     OW36692   9.677   7.456   4.024
11620SOL    HW136693   9.765   7.431   4.053
11620SOL    HW236694   9.634   7.373   4.002
11621SOL     OW36695  11.077  12.942   6.862
11621SOL    HW136696  11.041  13.000   6.795
11621SOL    HW236697  11.019  12.952   6.937
11622SOL     OW36698  13.110   7.870  11.814
11622SOL    HW136699  13.068   7.906  11.737
11622SOL    HW236700  13.204   7.885  11.799
11623SOL     OW36701   0.049   8.346   2.820
11623SOL    HW136702   0.053   8.320   2.728
11623SOL    HW236703   0.026   8.265   2.866
11624SOL     OW36704  10.437   8.498  14.805
11624SOL    HW136705  10.366   8.449  14.846
11624SOL    HW236706  10.491   8.526   0.006
11625SOL     OW36707  11.643   8.439   8.688
11625SOL    HW136708  11.690   8.449   8.771
11625SOL    HW236709  11.623   8.345   8.684
11626SOL     OW36710  10.773   6.717   0.038
11626SOL    HW136711  10.758   6.809   0.014
11626SOL    HW236712  10.723   6.667  14.847
11627SOL     OW36713  11.851   1.551  14.208
11627SOL    HW136714  11.944   1.562  14.192
11627SOL    HW236715  11.840   1.458  14.228
11628SOL     OW36716   5.823   5.411   2.476
11628SOL    HW136717   5.742   5.373   2.509
11628SOL    HW236718   5.875   5.431   2.554
11629SOL     OW36719   6.578   3.450   6.424
11629SOL    HW136720   6.550   3.359   6.418
11629SOL    HW236721   6.563   3.473   6.516
11630SOL     OW36722  13.320   1.486   0.720
11630SOL    HW136723  13.258   1.544   0.764
11630SOL    HW236724  13.284   1.475   0.632
11631SOL     OW36725   4.092  10.113   4.547
11631SOL    HW136726   4.102  10.018   4.543
11631SOL    HW236727   4.045  10.136   4.467
11632SOL     OW36728  12.822   6.482   3.960
11632SOL    HW136729  12.867   6.565   3.941
11632SOL    HW236730  12.890   6.415   3.949
11633SOL     OW36731   7.929  14.804  11.194
11633SOL    HW136732   7.875  14.763  11.126
11633SOL    HW236733   7.874  14.803  11.272
11634SOL     OW36734   2.704   8.206   1.539
11634SOL    HW136735   2.734   8.210   1.630
11634SOL    HW236736   2.646   8.281   1.530
11635SOL     OW36737  13.846   9.238   8.453
11635SOL    HW136738  13.907   9.300   8.412
11635SOL    HW236739  13.787   9.212   8.382
11636SOL     OW36740   5.968   6.808  11.701
11636SOL    HW136741   5.981   6.722  11.742
11636SOL    HW236742   6.040   6.861  11.736
11637SOL     OW36743   8.129  13.669  13.322
11637SOL    HW136744   8.059  13.716  13.276
11637SOL    HW236745   8.208  13.718  13.303
11638SOL     OW36746   8.294   1.856  12.784
11638SOL    HW136747   8.212   1.888  12.823
11638SOL    HW236748   8.265   1.796  12.715
11639SOL     OW36749   2.756   4.676  11.346
11639SOL    HW136750   2.798   4.674  11.260
11639SOL    HW236751   2.663   4.662  11.327
11640SOL     OW36752   7.280   9.612  12.048
11640SOL    HW136753   7.309   9.538  11.994
11640SOL    HW236754   7.185   9.617  12.031
11641SOL     OW36755  13.574   6.941   7.939
11641SOL    HW136756  13.581   6.877   7.868
11641SOL    HW236757  13.551   7.023   7.895
11642SOL     OW36758   0.191   4.192  10.833
11642SOL    HW136759   0.158   4.108  10.800
11642SOL    HW236760   0.285   4.180  10.840
11643SOL     OW36761  11.638   9.716   6.158
11643SOL    HW136762  11.719   9.668   6.139
11643SOL    HW236763  11.568   9.652   6.147
11644SOL     OW36764   8.545  13.565   2.008
11644SOL    HW136765   8.629  13.525   2.033
11644SOL    HW236766   8.497  13.494   1.966
11645SOL     OW36767   7.026  14.731   2.183
11645SOL    HW136768   7.005  14.638   2.173
11645SOL    HW236769   7.122  14.734   2.177
11646SOL     OW36770  12.775   9.513   7.248
11646SOL    HW136771  12.732   9.444   7.298
11646SOL    HW236772  12.750   9.495   7.157
11647SOL     OW36773   6.615   0.210   0.408
11647SOL    HW136774   6.579   0.254   0.331
11647SOL    HW236775   6.539   0.192   0.463
11648SOL     OW36776   1.380   1.433   1.953
11648SOL    HW136777   1.330   1.357   1.980
11648SOL    HW236778   1.377   1.432   1.857
11649SOL     OW36779  12.403  13.302   9.424
11649SOL    HW136780  12.488  13.346   9.422
11649SOL    HW236781  12.340  13.373   9.442
11650SOL     OW36782   2.653   6.855   9.609
11650SOL    HW136783   2.608   6.781   9.569
11650SOL    HW236784   2.585   6.922   9.618
11651SOL     OW36785   1.796   4.563  10.806
11651SOL    HW136786   1.741   4.628  10.765
11651SOL    HW236787   1.769   4.480  10.767
11652SOL     OW36788   7.538  13.567   4.096
11652SOL    HW136789   7.611  13.629   4.101
11652SOL    HW236790   7.567  13.491   4.145
11653SOL     OW36791   7.500  11.086  12.562
11653SOL    HW136792   7.441  11.027  12.515
11653SOL    HW236793   7.444  11.126  12.629
11654SOL     OW36794   0.222   5.624  14.233
11654SOL    HW136795   0.215   5.581  14.148
11654SOL    HW236796   0.294   5.579  14.277
11655SOL     OW36797   6.478   9.996   5.004
11655SOL    HW136798   6.554   9.956   5.045
11655SOL    HW236799   6.404   9.941   5.032
11656SOL     OW36800   7.091   5.887   0.973
11656SOL    HW136801   7.122   5.961   0.921
11656SOL    HW236802   7.141   5.812   0.940
11657SOL     OW36803  12.753   3.824  10.298
11657SOL    HW136804  12.681   3.767  10.272
11657SOL    HW236805  12.824   3.804  10.237
11658SOL     OW36806   5.796   6.281   3.045
11658SOL    HW136807   5.819   6.341   2.974
11658SOL    HW236808   5.740   6.215   3.005
11659SOL     OW36809   2.634   6.090  12.462
11659SOL    HW136810   2.593   6.005  12.472
11659SOL    HW236811   2.724   6.071  12.436
11660SOL     OW36812  11.596  10.114   2.562
11660SOL    HW136813  11.667  10.057   2.591
11660SOL    HW236814  11.638  10.177   2.504
11661SOL     OW36815   9.915   4.957  14.593
11661SOL    HW136816   9.864   5.038  14.592
11661SOL    HW236817   9.948   4.951  14.683
11662SOL     OW36818   9.163  11.162   7.039
11662SOL    HW136819   9.142  11.178   7.131
11662SOL    HW236820   9.120  11.233   6.992
11663SOL     OW36821   1.126   0.145   6.525
11663SOL    HW136822   1.172   0.148   6.442
11663SOL    HW236823   1.149   0.060   6.563
11664SOL     OW36824   2.688   4.355   4.064
11664SOL    HW136825   2.768   4.313   4.032
11664SOL    HW236826   2.720   4.422   4.124
11665SOL     OW36827  13.075   7.583  13.956
11665SOL    HW136828  13.030   7.500  13.940
11665SOL    HW236829  13.131   7.566  14.032
11666SOL     OW36830   2.051  13.750   2.238
11666SOL    HW136831   2.052  13.663   2.196
11666SOL    HW236832   2.091  13.808   2.173
11667SOL     OW36833   1.426   0.314  12.603
11667SOL    HW136834   1.350   0.296  12.548
11667SOL    HW236835   1.390   0.354  12.682
11668SOL     OW36836  10.666   7.241   2.256
11668SOL    HW136837  10.718   7.182   2.201
11668SOL    HW236838  10.617   7.295   2.193
11669SOL     OW36839  10.549   3.776   6.055
11669SOL    HW136840  10.598   3.852   6.023
11669SOL    HW236841  10.504   3.809   6.133
11670SOL     OW36842  13.293   1.866   6.967
11670SOL    HW136843  13.348   1.848   7.044
11670SOL    HW236844  13.327   1.807   6.900
11671SOL     OW36845  12.302   0.104   5.474
11671SOL    HW136846  12.296   0.009   5.471
11671SOL    HW236847  12.223   0.132   5.520
11672SOL     OW36848   1.286   4.133   3.583
11672SOL    HW136849   1.352   4.065   3.575
11672SOL    HW236850   1.293   4.164   3.674
11673SOL     OW36851   4.454   0.095   9.165
11673SOL    HW136852   4.471   0.188   9.177
11673SOL    HW236853   4.386   0.075   9.229
11674SOL     OW36854  13.416   3.152   4.360
11674SOL    HW136855  13.397   3.145   4.267
11674SOL    HW236856  13.473   3.228   4.367
11675SOL     OW36857  14.832  12.318   1.871
11675SOL    HW136858  14.776  12.376   1.921
11675SOL    HW236859  14.782  12.237   1.862
11676SOL     OW36860  11.475   6.837  10.238
11676SOL    HW136861  11.516   6.777  10.176
11676SOL    HW236862  11.383   6.838  10.214
11677SOL     OW36863  12.623  10.624  10.515
11677SOL    HW136864  12.664  10.587  10.593
11677SOL    HW236865  12.556  10.560  10.491
11678SOL     OW36866   7.974  12.966   8.634
11678SOL    HW136867   8.000  12.887   8.681
11678SOL    HW236868   8.012  12.955   8.546
11679SOL     OW36869   5.588   5.587   3.142
11679SOL    HW136870   5.678   5.560   3.158
11679SOL    HW236871   5.593   5.646   3.067
11680SOL     OW36872  14.749   7.365   0.688
11680SOL    HW136873  14.703   7.350   0.606
11680SOL    HW236874  14.680   7.366   0.755
11681SOL     OW36875   9.130   5.896  13.675
11681SOL    HW136876   9.061   5.930  13.619
11681SOL    HW236877   9.172   5.974  13.712
11682SOL     OW36878   0.332   3.434   6.217
11682SOL    HW136879   0.290   3.372   6.157
11682SOL    HW236880   0.419   3.397   6.234
11683SOL     OW36881  12.086  11.401   1.361
11683SOL    HW136882  12.094  11.496   1.366
11683SOL    HW236883  12.153  11.368   1.420
11684SOL     OW36884   2.206  10.755   3.235
11684SOL    HW136885   2.174  10.749   3.145
11684SOL    HW236886   2.179  10.672   3.275
11685SOL     OW36887   9.914   3.095   4.199
11685SOL    HW136888   9.842   3.044   4.234
11685SOL    HW236889   9.872   3.159   4.141
11686SOL     OW36890  10.511   5.474  14.341
11686SOL    HW136891  10.596   5.465  14.383
11686SOL    HW236892  10.458   5.524  14.403
11687SOL     OW36893  14.594   7.426   8.607
11687SOL    HW136894  14.506   7.389   8.616
11687SOL    HW236895  14.642   7.361   8.556
11688SOL     OW36896   6.493   5.785  10.489
11688SOL    HW136897   6.552   5.724  10.533
11688SOL    HW236898   6.552   5.844  10.441
11689SOL     OW36899   8.151   9.915   5.868
11689SOL    HW136900   8.165   9.922   5.774
11689SOL    HW236901   8.130   9.822   5.881
11690SOL     OW36902   4.736   6.169  13.461
11690SOL    HW136903   4.709   6.161  13.369
11690SOL    HW236904   4.678   6.236  13.497
11691SOL     OW36905   9.782  11.141  10.757
11691SOL    HW136906   9.873  11.132  10.786
11691SOL    HW236907   9.786  11.200  10.681
11692SOL     OW36908  14.654  12.730   1.698
11692SOL    HW136909  14.695  12.752   1.781
11692SOL    HW236910  14.709  12.660   1.662
11693SOL     OW36911  11.770   9.512   4.597
11693SOL    HW136912  11.813   9.433   4.563
11693SOL    HW236913  11.677   9.490   4.595
11694SOL     OW36914  14.398   6.203   3.579
11694SOL    HW136915  14.438   6.241   3.501
11694SOL    HW236916  14.358   6.277   3.624
11695SOL     OW36917   3.477  11.358   7.104
11695SOL    HW136918   3.452  11.450   7.102
11695SOL    HW236919   3.573  11.359   7.110
11696SOL     OW36920   9.872   3.996  13.953
11696SOL    HW136921   9.819   3.950  14.018
11696SOL    HW236922   9.952   3.945  13.946
11697SOL     OW36923  11.765  12.218   8.913
11697SOL    HW136924  11.739  12.294   8.860
11697SOL    HW236925  11.780  12.254   9.000
11698SOL     OW36926  11.486   5.256   2.488
11698SOL    HW136927  11.560   5.218   2.535
11698SOL    HW236928  11.520   5.275   2.401
11699SOL     OW36929  12.966  14.489   6.465
11699SOL    HW136930  12.990  14.450   6.549
11699SOL    HW236931  12.906  14.426   6.426
11700SOL     OW36932   7.160  12.310  11.688
11700SOL    HW136933   7.141  12.242  11.623
11700SOL    HW236934   7.127  12.390  11.650
11701SOL     OW36935   3.775  11.350   3.907
11701SOL    HW136936   3.840  11.280   3.916
11701SOL    HW236937   3.694  11.311   3.940
11702SOL     OW36938   0.704  14.784   3.147
11702SOL    HW136939   0.764  14.726   3.101
11702SOL    HW236940   0.755  14.864   3.163
11703SOL     OW36941   6.711   1.774  13.382
11703SOL    HW136942   6.796   1.755  13.421
11703SOL    HW236943   6.702   1.869  13.390
11704SOL     OW36944   0.593   4.630   0.911
11704SOL    HW136945   0.628   4.711   0.948
11704SOL    HW236946   0.655   4.607   0.841
11705SOL     OW36947  14.284   3.686   3.738
11705SOL    HW136948  14.233   3.642   3.670
11705SOL    HW236949  14.367   3.708   3.696
11706SOL     OW36950   0.481   9.333   5.555
11706SOL    HW136951   0.419   9.291   5.615
11706SOL    HW236952   0.438   9.416   5.532
11707SOL     OW36953  13.490   5.588  11.081
11707SOL    HW136954  13.585   5.573  11.085
11707SOL    HW236955  13.455   5.506  11.047
11708SOL     OW36956   0.758  13.295  11.992
11708SOL    HW136957   0.685  13.249  11.951
11708SOL    HW236958   0.723  13.323  12.077
11709SOL     OW36959   1.491  12.297  13.024
11709SOL    HW136960   1.519  12.300  13.115
11709SOL    HW236961   1.570  12.271  12.976
11710SOL     OW36962   9.232  10.588   8.673
11710SOL    HW136963   9.229  10.508   8.620
11710SOL    HW236964   9.248  10.658   8.609
11711SOL     OW36965  14.636  14.204   7.370
11711SOL    HW136966  14.678  14.285   7.399
11711SOL    HW236967  14.693  14.135   7.404
11712SOL     OW36968  10.755   8.074   5.521
11712SOL    HW136969  10.807   8.043   5.594
11712SOL    HW236970  10.712   7.995   5.487
11713SOL     OW36971   5.189  11.633  11.248
11713SOL    HW136972   5.099  11.660  11.229
11713SOL    HW236973   5.240  11.713  11.238
11714SOL     OW36974  11.279   7.580   0.773
11714SOL    HW136975  11.245   7.584   0.862
11714SOL    HW236976  11.205   7.550   0.720
11715SOL     OW36977   3.915   1.451   5.432
11715SOL    HW136978   3.859   1.441   5.355
11715SOL    HW236979   3.857   1.489   5.498
11716SOL     OW36980  11.853  11.069  13.884
11716SOL    HW136981  11.921  11.123  13.924
11716SOL    HW236982  11.808  11.029  13.958
11717SOL     OW36983  13.425  13.252  11.147
11717SOL    HW136984  13.497  13.314  11.144
11717SOL    HW236985  13.466  13.168  11.167
11718SOL     OW36986  13.952  12.032   0.498
11718SOL    HW136987  13.866  12.000   0.470
11718SOL    HW236988  13.950  12.026   0.593
11719SOL     OW36989   1.281  14.671  10.210
11719SOL    HW136990   1.271  14.576  10.222
11719SOL    HW236991   1.191  14.705  10.214
11720SOL     OW36992   3.138   7.555   3.572
11720SOL    HW136993   3.131   7.485   3.638
11720SOL    HW236994   3.086   7.522   3.498
11721SOL     OW36995  14.587   6.781  10.588
11721SOL    HW136996  14.516   6.794  10.525
11721SOL    HW236997  14.667   6.789  10.536
11722SOL     OW36998   9.390   3.895  10.708
11722SOL    HW136999   9.384   3.804  10.679
11722SOL    HW237000   9.299   3.922  10.722
11723SOL     OW37001   5.445   3.655   5.062
11723SOL    HW137002   5.351   3.638   5.062
11723SOL    HW237003   5.485   3.570   5.044
11724SOL     OW37004   9.137  12.717   2.850
11724SOL    HW137005   9.115  12.742   2.760
11724SOL    HW237006   9.100  12.786   2.904
11725SOL     OW37007   9.133  13.154   0.399
11725SOL    HW137008   9.063  13.104   0.358
11725SOL    HW237009   9.188  13.183   0.326
11726SOL     OW37010  13.753  14.344   6.141
11726SOL    HW137011  13.675  14.377   6.186
11726SOL    HW237012  13.819  14.411   6.155
11727SOL     OW37013   8.959  11.496   0.728
11727SOL    HW137014   8.893  11.487   0.659
11727SOL    HW237015   8.909  11.500   0.809
11728SOL     OW37016   0.673   5.208  11.173
11728SOL    HW137017   0.608   5.277  11.189
11728SOL    HW237018   0.636   5.130  11.215
11729SOL     OW37019   6.872   5.562  12.248
11729SOL    HW137020   6.866   5.484  12.193
11729SOL    HW237021   6.811   5.624  12.208
11730SOL     OW37022  10.786   3.403   0.587
11730SOL    HW137023  10.703   3.369   0.622
11730SOL    HW237024  10.800   3.353   0.507
11731SOL     OW37025   5.758   1.592  11.107
11731SOL    HW137026   5.807   1.521  11.148
11731SOL    HW237027   5.769   1.667  11.166
11732SOL     OW37028  10.348   0.601  12.896
11732SOL    HW137029  10.344   0.653  12.976
11732SOL    HW237030  10.259   0.567  12.885
11733SOL     OW37031   5.848   4.821   0.677
11733SOL    HW137032   5.775   4.873   0.712
11733SOL    HW237033   5.817   4.730   0.683
11734SOL     OW37034  14.525   9.239   3.862
11734SOL    HW137035  14.557   9.294   3.791
11734SOL    HW237036  14.575   9.266   3.939
11735SOL     OW37037   3.129   7.461   7.747
11735SOL    HW137038   3.091   7.531   7.800
11735SOL    HW237039   3.139   7.388   7.807
11736SOL     OW37040  12.533   9.692  12.027
11736SOL    HW137041  12.439   9.700  12.014
11736SOL    HW237042  12.561   9.629  11.960
11737SOL     OW37043   8.784   3.156   9.531
11737SOL    HW137044   8.768   3.172   9.624
11737SOL    HW237045   8.869   3.111   9.529
11738SOL     OW37046  13.335   3.995   1.300
11738SOL    HW137047  13.274   4.068   1.315
11738SOL    HW237048  13.309   3.959   1.215
11739SOL     OW37049   2.102   4.407   6.473
11739SOL    HW137050   2.035   4.338   6.471
11739SOL    HW237051   2.165   4.377   6.538
11740SOL     OW37052  10.008   7.088  13.065
11740SOL    HW137053  10.018   7.132  13.150
11740SOL    HW237054  10.081   7.026  13.061
11741SOL     OW37055   3.695  13.746   3.902
11741SOL    HW137056   3.751  13.787   3.968
11741SOL    HW237057   3.617  13.801   3.900
11742SOL     OW37058   5.972   6.043  13.069
11742SOL    HW137059   6.049   6.079  13.025
11742SOL    HW237060   6.008   5.981  13.132
11743SOL     OW37061   1.771   7.677  13.441
11743SOL    HW137062   1.832   7.751  13.450
11743SOL    HW237063   1.815   7.618  13.381
11744SOL     OW37064   1.742  13.645   1.999
11744SOL    HW137065   1.734  13.555   1.965
11744SOL    HW237066   1.830  13.650   2.034
11745SOL     OW37067  14.732   8.659  12.564
11745SOL    HW137068  14.646   8.617  12.560
11745SOL    HW237069  14.768   8.632  12.648
11746SOL     OW37070  13.612   3.914   1.275
11746SOL    HW137071  13.656   3.946   1.353
11746SOL    HW237072  13.519   3.930   1.292
11747SOL     OW37073   9.164   1.073   7.830
11747SOL    HW137074   9.242   1.097   7.782
11747SOL    HW237075   9.167   1.127   7.909
11748SOL     OW37076  10.455   3.171   9.290
11748SOL    HW137077  10.391   3.170   9.360
11748SOL    HW237078  10.417   3.228   9.223
11749SOL     OW37079   1.920  12.581  10.668
11749SOL    HW137080   2.014  12.585  10.684
11749SOL    HW237081   1.892  12.673  10.665
11750SOL     OW37082   6.421   3.157   5.162
11750SOL    HW137083   6.405   3.215   5.237
11750SOL    HW237084   6.417   3.069   5.199
11751SOL     OW37085  10.366   8.763   4.248
11751SOL    HW137086  10.421   8.797   4.177
11751SOL    HW237087  10.310   8.836   4.272
11752SOL     OW37088   2.744   0.821   3.100
11752SOL    HW137089   2.672   0.848   3.043
11752SOL    HW237090   2.819   0.871   3.069
11753SOL     OW37091   4.604   4.955   2.049
11753SOL    HW137092   4.627   5.027   2.107
11753SOL    HW237093   4.617   4.876   2.101
11754SOL     OW37094   7.004   0.758   1.266
11754SOL    HW137095   6.943   0.815   1.220
11754SOL    HW237096   6.955   0.677   1.280
11755SOL     OW37097   7.839  10.295   2.042
11755SOL    HW137098   7.907  10.228   2.041
11755SOL    HW237099   7.764  10.253   2.084
11756SOL     OW37100   8.756  10.010   3.674
11756SOL    HW137101   8.776  10.103   3.686
11756SOL    HW237102   8.668   9.999   3.711
11757SOL     OW37103   0.263   7.722   7.813
11757SOL    HW137104   0.258   7.775   7.734
11757SOL    HW237105   0.284   7.785   7.882
11758SOL     OW37106   2.868   7.595   0.588
11758SOL    HW137107   2.808   7.537   0.635
11758SOL    HW237108   2.929   7.535   0.544
11759SOL     OW37109   5.336  13.851   5.365
11759SOL    HW137110   5.346  13.785   5.297
11759SOL    HW237111   5.423  13.887   5.377
11760SOL     OW37112   3.381   0.489  11.913
11760SOL    HW137113   3.450   0.460  11.973
11760SOL    HW237114   3.304   0.499  11.968
11761SOL     OW37115   4.953   6.834   0.655
11761SOL    HW137116   4.911   6.898   0.598
11761SOL    HW237117   4.880   6.787   0.696
11762SOL     OW37118   7.199   8.278   2.877
11762SOL    HW137119   7.236   8.190   2.883
11762SOL    HW237120   7.249   8.320   2.807
11763SOL     OW37121   5.259   3.368   0.416
11763SOL    HW137122   5.267   3.288   0.468
11763SOL    HW237123   5.342   3.375   0.370
11764SOL     OW37124   4.918   9.647  14.840
11764SOL    HW137125   4.866   9.594   0.027
11764SOL    HW237126   4.877   9.733  14.841
11765SOL     OW37127   4.850   6.121   1.795
11765SOL    HW137128   4.851   6.209   1.759
11765SOL    HW237129   4.836   6.133   1.889
11766SOL     OW37130  12.806   1.235   3.538
11766SOL    HW137131  12.889   1.267   3.572
11766SOL    HW237132  12.831   1.176   3.466
11767SOL     OW37133  13.341   1.166   9.012
11767SOL    HW137134  13.341   1.104   8.939
11767SOL    HW237135  13.396   1.239   8.982
11768SOL     OW37136   2.182  12.622  14.147
11768SOL    HW137137   2.269  12.633  14.109
11768SOL    HW237138   2.197  12.610  14.240
11769SOL     OW37139  11.424   3.955  12.989
11769SOL    HW137140  11.500   3.897  13.000
11769SOL    HW237141  11.461   4.043  12.993
11770SOL     OW37142   6.454  13.901   7.543
11770SOL    HW137143   6.400  13.869   7.615
11770SOL    HW237144   6.543  13.904   7.578
11771SOL     OW37145  12.906   4.061   3.373
11771SOL    HW137146  12.835   4.050   3.310
11771SOL    HW237147  12.961   3.984   3.361
11772SOL     OW37148  13.079   5.989   1.356
11772SOL    HW137149  13.081   5.974   1.262
11772SOL    HW237150  13.101   6.082   1.366
11773SOL     OW37151   1.866   6.747  11.388
11773SOL    HW137152   1.776   6.776  11.405
11773SOL    HW237153   1.876   6.754  11.293
11774SOL     OW37154  10.286   1.666   9.124
11774SOL    HW137155  10.278   1.591   9.184
11774SOL    HW237156  10.229   1.644   9.051
11775SOL     OW37157   8.151   9.268   7.148
11775SOL    HW137158   8.091   9.227   7.210
11775SOL    HW237159   8.224   9.207   7.142
11776SOL     OW37160   3.968  10.483   9.341
11776SOL    HW137161   3.937  10.538   9.269
11776SOL    HW237162   3.943  10.530   9.421
11777SOL     OW37163  11.406   5.963   2.619
11777SOL    HW137164  11.495   5.943   2.589
11777SOL    HW237165  11.395   5.908   2.697
11778SOL     OW37166  14.708   3.353   6.198
11778SOL    HW137167  14.794   3.326   6.230
11778SOL    HW237168  14.696   3.442   6.231
11779SOL     OW37169  10.485  14.110  11.570
11779SOL    HW137170  10.505  14.102  11.477
11779SOL    HW237171  10.545  14.049  11.613
11780SOL     OW37172   7.584   1.534   0.001
11780SOL    HW137173   7.495   1.516   0.033
11780SOL    HW237174   7.578   1.622  14.836
11781SOL     OW37175   5.610   1.818   7.861
11781SOL    HW137176   5.517   1.795   7.865
11781SOL    HW237177   5.655   1.734   7.855
11782SOL     OW37178   8.773   0.772   4.261
11782SOL    HW137179   8.709   0.702   4.269
11782SOL    HW237180   8.767   0.801   4.170
11783SOL     OW37181  13.287  10.658   2.507
11783SOL    HW137182  13.352  10.595   2.475
11783SOL    HW237183  13.208  10.605   2.519
11784SOL     OW37184   3.361  13.832  12.795
11784SOL    HW137185   3.373  13.741  12.824
11784SOL    HW237186   3.285  13.862  12.844
11785SOL     OW37187  11.382   5.473   0.675
11785SOL    HW137188  11.327   5.541   0.637
11785SOL    HW237189  11.457   5.466   0.615
11786SOL     OW37190   2.229   3.993   6.487
11786SOL    HW137191   2.289   4.057   6.449
11786SOL    HW237192   2.245   3.912   6.439
11787SOL     OW37193  14.490   0.892  12.008
11787SOL    HW137194  14.466   0.804  11.978
11787SOL    HW237195  14.580   0.903  11.979
11788SOL     OW37196   3.783   0.639   3.304
11788SOL    HW137197   3.859   0.680   3.344
11788SOL    HW237198   3.765   0.693   3.227
11789SOL     OW37199  11.790  11.996  14.832
11789SOL    HW137200  11.789  12.023   0.051
11789SOL    HW237201  11.804  12.077  14.783
11790SOL     OW37202  13.002   0.105   4.971
11790SOL    HW137203  13.004   0.041   4.901
11790SOL    HW237204  13.066   0.171   4.945
11791SOL     OW37205  11.383   4.481  13.653
11791SOL    HW137206  11.466   4.502  13.610
11791SOL    HW237207  11.360   4.560  13.701
11792SOL     OW37208  12.523   5.830   4.267
11792SOL    HW137209  12.576   5.902   4.233
11792SOL    HW237210  12.551   5.754   4.216
11793SOL     OW37211   1.137   2.230   3.143
11793SOL    HW137212   1.057   2.272   3.112
11793SOL    HW237213   1.128   2.228   3.238
11794SOL     OW37214  14.775  13.815   3.546
11794SOL    HW137215  14.740  13.846   3.463
11794SOL    HW237216  14.810  13.728   3.526
11795SOL     OW37217   4.632  12.191   7.986
11795SOL    HW137218   4.691  12.187   7.910
11795SOL    HW237219   4.689  12.214   8.059
11796SOL     OW37220  13.423   7.846   3.222
11796SOL    HW137221  13.497   7.786   3.215
11796SOL    HW237222  13.447   7.921   3.168
11797SOL     OW37223  11.873   3.257   7.651
11797SOL    HW137224  11.878   3.193   7.579
11797SOL    HW237225  11.946   3.317   7.634
11798SOL     OW37226   8.296   4.133   0.369
11798SOL    HW137227   8.295   4.229   0.375
11798SOL    HW237228   8.234   4.104   0.436
11799SOL     OW37229  14.429   7.796  14.307
11799SOL    HW137230  14.352   7.756  14.346
11799SOL    HW237231  14.463   7.855  14.375
11800SOL     OW37232  10.341  14.149  11.787
11800SOL    HW137233  10.363  14.142  11.694
11800SOL    HW237234  10.267  14.211  11.789
11801SOL     OW37235   0.597  14.125   6.106
11801SOL    HW137236   0.534  14.168   6.165
11801SOL    HW237237   0.598  14.033   6.134
11802SOL     OW37238   5.908   4.946  14.631
11802SOL    HW137239   5.956   5.024  14.606
11802SOL    HW237240   5.975   4.881  14.651
11803SOL     OW37241   2.545   5.112   9.372
11803SOL    HW137242   2.502   5.194   9.348
11803SOL    HW237243   2.607   5.096   9.302
11804SOL     OW37244  13.444  12.743  14.807
11804SOL    HW137245  13.507  12.739   0.007
11804SOL    HW237246  13.404  12.829  14.814
11805SOL     OW37247   3.715   2.722   8.161
11805SOL    HW137248   3.641   2.662   8.146
11805SOL    HW237249   3.773   2.708   8.086
11806SOL     OW37250   8.269  10.340   5.965
11806SOL    HW137251   8.238  10.362   6.053
11806SOL    HW237252   8.309  10.253   5.975
11807SOL     OW37253  10.451   2.083   9.681
11807SOL    HW137254  10.380   2.077   9.617
11807SOL    HW237255  10.468   1.993   9.707
11808SOL     OW37256  11.813  11.717   8.279
11808SOL    HW137257  11.773  11.769   8.350
11808SOL    HW237258  11.887  11.770   8.250
11809SOL     OW37259   5.565   0.708   8.840
11809SOL    HW137260   5.567   0.662   8.756
11809SOL    HW237261   5.637   0.669   8.891
11810SOL     OW37262   4.630   7.810   0.898
11810SOL    HW137263   4.607   7.902   0.887
11810SOL    HW237264   4.662   7.804   0.987
11811SOL     OW37265   0.041   8.970  13.411
11811SOL    HW137266   0.091   9.017  13.345
11811SOL    HW237267   0.070   9.006  13.495
11812SOL     OW37268  10.804   2.896   2.058
11812SOL    HW137269  10.888   2.943   2.061
11812SOL    HW237270  10.746   2.947   2.113
11813SOL     OW37271   6.452  13.686   0.695
11813SOL    HW137272   6.463  13.781   0.690
11813SOL    HW237273   6.534  13.650   0.660
11814SOL     OW37274   5.002   2.960   8.791
11814SOL    HW137275   4.960   3.011   8.860
11814SOL    HW237276   5.084   2.930   8.829
11815SOL     OW37277   2.784  10.385   2.542
11815SOL    HW137278   2.723  10.343   2.482
11815SOL    HW237279   2.871  10.363   2.507
11816SOL     OW37280  11.887   4.836  10.616
11816SOL    HW137281  11.880   4.850  10.710
11816SOL    HW237282  11.926   4.749  10.608
11817SOL     OW37283   1.785  12.354   0.158
11817SOL    HW137284   1.692  12.365   0.179
11817SOL    HW237285   1.814  12.442   0.131
11818SOL     OW37286  10.217   7.495   1.983
11818SOL    HW137287  10.213   7.548   2.063
11818SOL    HW237288  10.165   7.417   2.003
11819SOL     OW37289  11.430   3.402  10.395
11819SOL    HW137290  11.483   3.326  10.421
11819SOL    HW237291  11.342   3.382  10.429
11820SOL     OW37292   8.864   7.270  10.335
11820SOL    HW137293   8.814   7.224  10.268
11820SOL    HW237294   8.878   7.205  10.404
11821SOL     OW37295   8.737  12.582  13.761
11821SOL    HW137296   8.711  12.669  13.793
11821SOL    HW237297   8.708  12.581  13.669
11822SOL     OW37298   6.169   4.839   3.311
11822SOL    HW137299   6.234   4.863   3.376
11822SOL    HW237300   6.217   4.841   3.228
11823SOL     OW37301   3.807   2.168   7.512
11823SOL    HW137302   3.769   2.192   7.597
11823SOL    HW237303   3.808   2.250   7.462
11824SOL     OW37304   6.826   9.546   3.419
11824SOL    HW137305   6.896   9.519   3.478
11824SOL    HW237306   6.863   9.535   3.331
11825SOL     OW37307   8.278  13.046   5.890
11825SOL    HW137308   8.369  13.050   5.859
11825SOL    HW237309   8.236  13.122   5.850
11826SOL     OW37310  11.267   0.432   0.544
11826SOL    HW137311  11.352   0.407   0.508
11826SOL    HW237312  11.207   0.364   0.514
11827SOL     OW37313   0.869  12.694  11.936
11827SOL    HW137314   0.820  12.773  11.914
11827SOL    HW237315   0.917  12.718  12.015
11828SOL     OW37316   0.282  11.869   6.157
11828SOL    HW137317   0.203  11.825   6.125
11828SOL    HW237318   0.302  11.934   6.090
11829SOL     OW37319   7.966   4.338   5.289
11829SOL    HW137320   8.049   4.336   5.241
11829SOL    HW237321   7.938   4.429   5.284
11830SOL     OW37322   5.085   6.659   5.283
11830SOL    HW137323   4.989   6.656   5.274
11830SOL    HW237324   5.104   6.600   5.356
11831SOL     OW37325   3.181   0.823  12.249
11831SOL    HW137326   3.276   0.829  12.260
11831SOL    HW237327   3.146   0.884  12.314
11832SOL     OW37328   7.801   5.835   1.773
11832SOL    HW137329   7.796   5.785   1.854
11832SOL    HW237330   7.745   5.787   1.712
11833SOL     OW37331  10.738   3.172   7.378
11833SOL    HW137332  10.795   3.110   7.424
11833SOL    HW237333  10.664   3.185   7.437
11834SOL     OW37334   3.489   9.995   2.371
11834SOL    HW137335   3.570   9.993   2.422
11834SOL    HW237336   3.504   9.932   2.300
11835SOL     OW37337  14.779   9.440   3.074
11835SOL    HW137338  14.743   9.426   2.986
11835SOL    HW237339  14.730   9.381   3.130
11836SOL     OW37340   8.758  13.325   9.156
11836SOL    HW137341   8.699  13.387   9.199
11836SOL    HW237342   8.716  13.240   9.166
11837SOL     OW37343   5.817  14.208   0.029
11837SOL    HW137344   5.828  14.150  14.827
11837SOL    HW237345   5.816  14.150   0.105
11838SOL     OW37346   5.611   7.391   2.509
11838SOL    HW137347   5.654   7.333   2.571
11838SOL    HW237348   5.589   7.469   2.559
11839SOL     OW37349   3.174  12.105   6.576
11839SOL    HW137350   3.249  12.047   6.569
11839SOL    HW237351   3.210  12.188   6.606
11840SOL     OW37352   5.152   8.920   0.337
11840SOL    HW137353   5.153   8.914   0.241
11840SOL    HW237354   5.132   8.831   0.367
11841SOL     OW37355   1.365   4.094   2.632
11841SOL    HW137356   1.457   4.122   2.638
11841SOL    HW237357   1.338   4.120   2.543
11842SOL     OW37358  11.140   8.121  14.428
11842SOL    HW137359  11.046   8.111  14.440
11842SOL    HW237360  11.178   8.087  14.509
11843SOL     OW37361   4.602   8.362   9.008
11843SOL    HW137362   4.646   8.300   9.067
11843SOL    HW237363   4.666   8.432   8.995
11844SOL     OW37364   7.269   0.737   4.117
11844SOL    HW137365   7.278   0.707   4.208
11844SOL    HW237366   7.241   0.660   4.069
11845SOL     OW37367   4.886  13.544   7.486
11845SOL    HW137368   4.883  13.581   7.574
11845SOL    HW237369   4.979  13.534   7.467
11846SOL     OW37370   1.999  13.476   1.074
11846SOL    HW137371   1.918  13.475   1.126
11846SOL    HW237372   1.972  13.514   0.990
11847SOL     OW37373   7.452   5.398  14.063
11847SOL    HW137374   7.357   5.395  14.058
11847SOL    HW237375   7.481   5.382  13.973
11848SOL     OW37376   6.521   6.876  12.164
11848SOL    HW137377   6.483   6.805  12.113
11848SOL    HW237378   6.613   6.878  12.138
11849SOL     OW37379   5.391   1.957  11.120
11849SOL    HW137380   5.460   1.954  11.054
11849SOL    HW237381   5.368   1.866  11.135
11850SOL     OW37382  14.275   8.506   9.672
11850SOL    HW137383  14.338   8.436   9.657
11850SOL    HW237384  14.248   8.496   9.763
11851SOL     OW37385  12.897   0.269   8.873
11851SOL    HW137386  12.881   0.286   8.966
11851SOL    HW237387  12.966   0.331   8.850
11852SOL     OW37388  14.238  11.445  11.325
11852SOL    HW137389  14.184  11.486  11.256
11852SOL    HW237390  14.306  11.510  11.344
11853SOL     OW37391   4.636   7.652   7.974
11853SOL    HW137392   4.587   7.570   7.985
11853SOL    HW237393   4.719   7.637   8.021
11854SOL     OW37394   5.991   1.204   0.849
11854SOL    HW137395   6.080   1.179   0.870
11854SOL    HW237396   5.997   1.296   0.822
11855SOL     OW37397   4.598   5.561   4.377
11855SOL    HW137398   4.602   5.603   4.463
11855SOL    HW237399   4.591   5.634   4.316
11856SOL     OW37400  12.604   5.595  12.348
11856SOL    HW137401  12.663   5.624  12.417
11856SOL    HW237402  12.647   5.621  12.267
11857SOL     OW37403  11.221   5.663   8.745
11857SOL    HW137404  11.185   5.626   8.664
11857SOL    HW237405  11.283   5.597   8.776
11858SOL     OW37406   2.174   1.590  10.578
11858SOL    HW137407   2.181   1.574  10.484
11858SOL    HW237408   2.082   1.613  10.591
11859SOL     OW37409  10.109   7.892   9.891
11859SOL    HW137410  10.111   7.944   9.811
11859SOL    HW237411  10.036   7.832   9.878
11860SOL     OW37412  14.095   8.746  11.184
11860SOL    HW137413  14.187   8.743  11.160
11860SOL    HW237414  14.060   8.821  11.136
11861SOL     OW37415  10.740   0.629   1.702
11861SOL    HW137416  10.799   0.589   1.638
11861SOL    HW237417  10.685   0.556   1.732
11862SOL     OW37418  10.378   0.638   7.773
11862SOL    HW137419  10.336   0.643   7.687
11862SOL    HW237420  10.326   0.696   7.829
11863SOL     OW37421   6.405   6.884  11.181
11863SOL    HW137422   6.467   6.936  11.130
11863SOL    HW237423   6.428   6.793  11.161
11864SOL     OW37424   0.781   1.448   3.564
11864SOL    HW137425   0.822   1.361   3.569
11864SOL    HW237426   0.838   1.497   3.504
11865SOL     OW37427   9.032  14.578   0.853
11865SOL    HW137428   8.954  14.624   0.883
11865SOL    HW237429   9.001  14.488   0.836
11866SOL     OW37430  12.685   6.835   6.289
11866SOL    HW137431  12.639   6.796   6.363
11866SOL    HW237432  12.622   6.896   6.251
11867SOL     OW37433   0.295   1.695  13.537
11867SOL    HW137434   0.239   1.639  13.483
11867SOL    HW237435   0.240   1.716  13.613
11868SOL     OW37436   0.773   9.691   6.066
11868SOL    HW137437   0.810   9.771   6.103
11868SOL    HW237438   0.838   9.623   6.084
11869SOL     OW37439   4.179   0.336   0.000
11869SOL    HW137440   4.173   0.286   0.082
11869SOL    HW237441   4.110   0.402   0.007
11870SOL     OW37442  13.656   5.352  12.648
11870SOL    HW137443  13.573   5.348  12.601
11870SOL    HW237444  13.633   5.388  12.734
11871SOL     OW37445   8.263  14.272   7.508
11871SOL    HW137446   8.185  14.292   7.455
11871SOL    HW237447   8.270  14.177   7.505
11872SOL     OW37448  10.580   3.556   9.768
11872SOL    HW137449  10.550   3.521   9.684
11872SOL    HW237450  10.666   3.593   9.749
11873SOL     OW37451   2.718   9.850   8.733
11873SOL    HW137452   2.629   9.885   8.725
11873SOL    HW237453   2.726   9.788   8.662
11874SOL     OW37454   1.618   7.786   4.583
11874SOL    HW137455   1.572   7.857   4.629
11874SOL    HW237456   1.650   7.827   4.503
11875SOL     OW37457  11.999   4.063   3.945
11875SOL    HW137458  11.917   4.014   3.944
11875SOL    HW237459  12.050   4.022   4.014
11876SOL     OW37460   3.939   0.277   2.499
11876SOL    HW137461   3.923   0.366   2.530
11876SOL    HW237462   3.909   0.277   2.408
11877SOL     OW37463   3.187   2.685  12.790
11877SOL    HW137464   3.192   2.654  12.699
11877SOL    HW237465   3.277   2.703  12.815
11878SOL     OW37466   9.767  12.697   3.017
11878SOL    HW137467   9.809  12.760   2.959
11878SOL    HW237468   9.698  12.657   2.964
11879SOL     OW37469   3.160  11.882   2.055
11879SOL    HW137470   3.079  11.836   2.034
11879SOL    HW237471   3.169  11.948   1.986
11880SOL     OW37472   1.953   3.924   1.730
11880SOL    HW137473   1.870   3.890   1.764
11880SOL    HW237474   1.933   4.014   1.703
11881SOL     OW37475  13.305   7.847   2.819
11881SOL    HW137476  13.386   7.805   2.789
11881SOL    HW237477  13.237   7.813   2.761
11882SOL     OW37478   1.541  10.139   0.958
11882SOL    HW137479   1.469  10.077   0.973
11882SOL    HW237480   1.499  10.217   0.921
11883SOL     OW37481  12.377  14.082   4.730
11883SOL    HW137482  12.356  14.144   4.801
11883SOL    HW237483  12.441  14.128   4.676
11884SOL     OW37484   5.925  12.590   4.307
11884SOL    HW137485   5.841  12.627   4.334
11884SOL    HW237486   5.915  12.575   4.213
11885SOL     OW37487   6.424   4.249   1.119
11885SOL    HW137488   6.376   4.207   1.048
11885SOL    HW237489   6.371   4.325   1.143
11886SOL     OW37490   0.108   2.253  11.016
11886SOL    HW137491   0.192   2.209  11.015
11886SOL    HW237492   0.050   2.198  10.963
11887SOL     OW37493  11.719   5.691  12.038
11887SOL    HW137494  11.634   5.689  12.082
11887SOL    HW237495  11.712   5.762  11.975
11888SOL     OW37496   2.224   2.144   8.542
11888SOL    HW137497   2.157   2.209   8.517
11888SOL    HW237498   2.178   2.060   8.539
11889SOL     OW37499   2.005   4.237  14.399
11889SOL    HW137500   1.974   4.204  14.483
11889SOL    HW237501   2.057   4.315  14.421
11890SOL     OW37502  10.953   9.449   5.971
11890SOL    HW137503  10.913   9.516   5.915
11890SOL    HW237504  10.880   9.392   5.995
11891SOL     OW37505   7.218   4.206   8.182
11891SOL    HW137506   7.163   4.283   8.194
11891SOL    HW237507   7.286   4.233   8.120
11892SOL     OW37508   6.661   8.712   5.538
11892SOL    HW137509   6.744   8.758   5.536
11892SOL    HW237510   6.626   8.728   5.626
11893SOL     OW37511  11.217   6.448   9.363
11893SOL    HW137512  11.254   6.361   9.378
11893SOL    HW237513  11.290   6.499   9.327
11894SOL     OW37514  14.442   4.913   9.494
11894SOL    HW137515  14.461   4.951   9.580
11894SOL    HW237516  14.351   4.884   9.500
11895SOL     OW37517   5.623   2.803   9.319
11895SOL    HW137518   5.707   2.848   9.317
11895SOL    HW237519   5.586   2.825   9.405
11896SOL     OW37520   6.667   1.302  12.611
11896SOL    HW137521   6.578   1.292  12.576
11896SOL    HW237522   6.708   1.217  12.597
11897SOL     OW37523  11.511  12.082   7.795
11897SOL    HW137524  11.545  12.084   7.885
11897SOL    HW237525  11.588  12.096   7.740
11898SOL     OW37526  13.081   3.120  10.537
11898SOL    HW137527  13.093   3.205  10.580
11898SOL    HW237528  13.057   3.142  10.447
11899SOL     OW37529   5.026   7.846  11.558
11899SOL    HW137530   5.092   7.854  11.627
11899SOL    HW237531   4.960   7.787  11.595
11900SOL     OW37532   5.428   7.424   6.416
11900SOL    HW137533   5.344   7.396   6.379
11900SOL    HW237534   5.406   7.457   6.503
11901SOL     OW37535   8.914   1.100   5.098
11901SOL    HW137536   8.871   1.017   5.080
11901SOL    HW237537   8.991   1.101   5.041
11902SOL     OW37538   7.381  12.559  12.771
11902SOL    HW137539   7.311  12.547  12.706
11902SOL    HW237540   7.398  12.471  12.803
11903SOL     OW37541   0.025  14.694   6.721
11903SOL    HW137542   0.039  14.632   6.794
11903SOL    HW237543   0.068  14.774   6.750
11904SOL     OW37544   5.639   0.324  12.094
11904SOL    HW137545   5.594   0.241  12.109
11904SOL    HW237546   5.668   0.319  12.003
11905SOL     OW37547   8.469  11.795   2.868
11905SOL    HW137548   8.377  11.802   2.843
11905SOL    HW237549   8.468  11.784   2.963
11906SOL     OW37550  10.808  11.099  13.581
11906SOL    HW137551  10.777  11.051  13.657
11906SOL    HW237552  10.729  11.119  13.531
11907SOL     OW37553  13.161   0.169   7.302
11907SOL    HW137554  13.214   0.194   7.227
11907SOL    HW237555  13.090   0.116   7.266
11908SOL     OW37556   7.044   2.272  12.222
11908SOL    HW137557   7.034   2.342  12.287
11908SOL    HW237558   7.136   2.245  12.231
11909SOL     OW37559  14.616   9.978   5.976
11909SOL    HW137560  14.629  10.064   5.936
11909SOL    HW237561  14.630   9.916   5.905
11910SOL     OW37562   4.820  12.869  14.007
11910SOL    HW137563   4.741  12.818  14.028
11910SOL    HW237564   4.787  12.949  13.966
11911SOL     OW37565  12.504  13.305   6.213
11911SOL    HW137566  12.597  13.289   6.225
11911SOL    HW237567  12.494  13.400   6.228
11912SOL     OW37568  10.093   9.340  13.178
11912SOL    HW137569  10.187   9.356  13.183
11912SOL    HW237570  10.065   9.387  13.099
11913SOL     OW37571   5.599   1.988   8.522
11913SOL    HW137572   5.661   2.059   8.540
11913SOL    HW237573   5.585   1.991   8.427
11914SOL     OW37574  11.670   5.611  10.218
11914SOL    HW137575  11.721   5.641  10.143
11914SOL    HW237576  11.661   5.517  10.204
11915SOL     OW37577   3.826   1.663  12.882
11915SOL    HW137578   3.791   1.749  12.858
11915SOL    HW237579   3.778   1.639  12.961
11916SOL     OW37580  12.805  13.378   6.213
11916SOL    HW137581  12.799  13.385   6.308
11916SOL    HW237582  12.771  13.462   6.181
11917SOL     OW37583   9.285   8.733   7.902
11917SOL    HW137584   9.268   8.771   7.988
11917SOL    HW237585   9.199   8.704   7.872
11918SOL     OW37586   7.922   4.159   9.212
11918SOL    HW137587   7.961   4.247   9.217
11918SOL    HW237588   7.842   4.165   9.264
11919SOL     OW37589   2.324   3.501   0.481
11919SOL    HW137590   2.355   3.544   0.401
11919SOL    HW237591   2.272   3.569   0.525
11920SOL     OW37592   9.761  11.561   7.656
11920SOL    HW137593   9.762  11.583   7.749
11920SOL    HW237594   9.680  11.601   7.624
11921SOL     OW37595   8.981  14.154   9.069
11921SOL    HW137596   8.993  14.239   9.028
11921SOL    HW237597   9.066  14.135   9.110
11922SOL     OW37598   8.790  13.627   2.269
11922SOL    HW137599   8.830  13.671   2.344
11922SOL    HW237600   8.806  13.534   2.285
11923SOL     OW37601   0.425   9.968   3.778
11923SOL    HW137602   0.480  10.046   3.771
11923SOL    HW237603   0.344   9.999   3.818
11924SOL     OW37604   5.780  10.250  14.602
11924SOL    HW137605   5.706  10.255  14.542
11924SOL    HW237606   5.741  10.245  14.689
11925SOL     OW37607  14.536  14.364  13.546
11925SOL    HW137608  14.483  14.284  13.543
11925SOL    HW237609  14.473  14.435  13.543
11926SOL     OW37610  11.730   7.972   3.183
11926SOL    HW137611  11.781   8.036   3.133
11926SOL    HW237612  11.755   7.888   3.147
11927SOL     OW37613   2.780   8.632   9.531
11927SOL    HW137614   2.699   8.602   9.571
11927SOL    HW237615   2.798   8.716   9.572
11928SOL     OW37616   0.080  11.700   2.588
11928SOL    HW137617   0.126  11.673   2.509
11928SOL    HW237618   0.124  11.653   2.659
11929SOL     OW37619   0.925   2.853   0.707
11929SOL    HW137620   0.906   2.786   0.773
11929SOL    HW237621   0.908   2.809   0.623
11930SOL     OW37622   9.548   9.663   7.140
11930SOL    HW137623   9.462   9.673   7.181
11930SOL    HW237624   9.530   9.621   7.056
11931SOL     OW37625   4.216  10.948   3.192
11931SOL    HW137626   4.238  11.005   3.265
11931SOL    HW237627   4.123  10.928   3.203
11932SOL     OW37628   6.107  11.156  10.576
11932SOL    HW137629   6.123  11.129  10.485
11932SOL    HW237630   6.027  11.109  10.601
11933SOL     OW37631   2.087   3.813   1.507
11933SOL    HW137632   2.062   3.721   1.517
11933SOL    HW237633   2.056   3.855   1.587
11934SOL     OW37634   9.051   6.877  13.626
11934SOL    HW137635   9.106   6.828  13.687
11934SOL    HW237636   9.017   6.950  13.678
11935SOL     OW37637   7.197   2.125   5.649
11935SOL    HW137638   7.173   2.040   5.612
11935SOL    HW237639   7.292   2.131   5.635
11936SOL     OW37640  12.256   5.885   6.694
11936SOL    HW137641  12.211   5.935   6.763
11936SOL    HW237642  12.215   5.915   6.613
11937SOL     OW37643   5.143   4.791   8.065
11937SOL    HW137644   5.104   4.705   8.081
11937SOL    HW237645   5.154   4.795   7.970
11938SOL     OW37646   3.808   5.184   0.102
11938SOL    HW137647   3.835   5.152   0.016
11938SOL    HW237648   3.715   5.161   0.109
11939SOL     OW37649  13.134   9.017  12.582
11939SOL    HW137650  13.083   8.937  12.573
11939SOL    HW237651  13.160   9.039  12.493
11940SOL     OW37652  11.731   2.448   9.988
11940SOL    HW137653  11.668   2.399  10.042
11940SOL    HW237654  11.678   2.490   9.921
11941SOL     OW37655   9.334   7.812   6.337
11941SOL    HW137656   9.397   7.743   6.357
11941SOL    HW237657   9.255   7.788   6.385
11942SOL     OW37658   2.364  10.127   5.222
11942SOL    HW137659   2.442  10.121   5.276
11942SOL    HW237660   2.378  10.063   5.152
11943SOL     OW37661  12.354  10.763  10.736
11943SOL    HW137662  12.413  10.836  10.717
11943SOL    HW237663  12.319  10.782  10.823
11944SOL     OW37664   1.484   7.287   7.063
11944SOL    HW137665   1.481   7.228   6.988
11944SOL    HW237666   1.502   7.230   7.138
11945SOL     OW37667   6.533   5.151  10.390
11945SOL    HW137668   6.465   5.199  10.344
11945SOL    HW237669   6.616   5.186  10.356
11946SOL     OW37670   2.028   8.815   1.703
11946SOL    HW137671   1.993   8.727   1.710
11946SOL    HW237672   2.123   8.803   1.694
11947SOL     OW37673   2.851  14.340   5.740
11947SOL    HW137674   2.942  14.325   5.715
11947SOL    HW237675   2.822  14.412   5.684
11948SOL     OW37676   4.652  14.690   3.942
11948SOL    HW137677   4.677  14.779   3.919
11948SOL    HW237678   4.727  14.655   3.991
11949SOL     OW37679  13.429   5.352  10.121
11949SOL    HW137680  13.402   5.444  10.119
11949SOL    HW237681  13.501   5.347  10.057
11950SOL     OW37682  14.529   9.036   0.003
11950SOL    HW137683  14.433   9.029  14.872
11950SOL    HW237684  14.546   9.130  14.871
11951SOL     OW37685   7.042   8.863   1.087
11951SOL    HW137686   6.947   8.856   1.073
11951SOL    HW237687   7.060   8.957   1.087
11952SOL     OW37688  12.201  11.712   4.944
11952SOL    HW137689  12.296  11.708   4.955
11952SOL    HW237690  12.166  11.661   5.016
11953SOL     OW37691   2.073   4.334   4.546
11953SOL    HW137692   2.039   4.391   4.614
11953SOL    HW237693   2.159   4.370   4.524
11954SOL     OW37694   0.404   6.410  13.496
11954SOL    HW137695   0.453   6.491  13.481
11954SOL    HW237696   0.471   6.345  13.517
11955SOL     OW37697  11.441  13.711   9.483
11955SOL    HW137698  11.515  13.702   9.543
11955SOL    HW237699  11.473  13.765   9.411
11956SOL     OW37700   7.842   4.079  14.546
11956SOL    HW137701   7.937   4.086  14.549
11956SOL    HW237702   7.814   4.147  14.484
11957SOL     OW37703  11.109   3.184  13.764
11957SOL    HW137704  11.086   3.173  13.671
11957SOL    HW237705  11.201   3.157  13.769
11958SOL     OW37706   0.831   6.815  13.095
11958SOL    HW137707   0.738   6.818  13.072
11958SOL    HW237708   0.861   6.905  13.086
11959SOL     OW37709  13.186   3.110   5.250
11959SOL    HW137710  13.105   3.081   5.207
11959SOL    HW237711  13.245   3.035   5.242
11960SOL     OW37712   7.144  11.074   9.993
11960SOL    HW137713   7.216  11.065  10.055
11960SOL    HW237714   7.099  11.154  10.019
11961SOL     OW37715   8.070   0.749   5.473
11961SOL    HW137716   7.979   0.727   5.452
11961SOL    HW237717   8.074   0.844   5.461
11962SOL     OW37718   0.583   1.976   0.415
11962SOL    HW137719   0.493   2.002   0.433
11962SOL    HW237720   0.580   1.880   0.412
11963SOL     OW37721  12.425  10.071   6.268
11963SOL    HW137722  12.416   9.983   6.306
11963SOL    HW237723  12.476  10.057   6.188
11964SOL     OW37724  10.385  12.268  11.829
11964SOL    HW137725  10.409  12.277  11.922
11964SOL    HW237726  10.423  12.184  11.803
11965SOL     OW37727   9.364   7.570  12.099
11965SOL    HW137728   9.334   7.620  12.023
11965SOL    HW237729   9.451   7.539  12.073
11966SOL     OW37730   2.904   8.189   8.062
11966SOL    HW137731   2.951   8.127   8.118
11966SOL    HW237732   2.956   8.192   7.981
11967SOL     OW37733  13.741  10.793   8.041
11967SOL    HW137734  13.760  10.877   8.084
11967SOL    HW237735  13.734  10.730   8.113
11968SOL     OW37736  11.799   5.017   5.029
11968SOL    HW137737  11.714   4.990   5.063
11968SOL    HW237738  11.779   5.067   4.949
11969SOL     OW37739   7.137   9.666   8.673
11969SOL    HW137740   7.127   9.696   8.583
11969SOL    HW237741   7.076   9.593   8.681
11970SOL     OW37742   1.997   0.693   2.105
11970SOL    HW137743   1.910   0.657   2.087
11970SOL    HW237744   2.013   0.754   2.033
11971SOL     OW37745   1.331   6.147   9.316
11971SOL    HW137746   1.263   6.153   9.249
11971SOL    HW237747   1.404   6.103   9.272
11972SOL     OW37748   8.034  11.842   5.509
11972SOL    HW137749   8.041  11.747   5.500
11972SOL    HW237750   7.952  11.865   5.466
11973SOL     OW37751   7.855   3.344   2.259
11973SOL    HW137752   7.946   3.341   2.231
11973SOL    HW237753   7.837   3.256   2.293
11974SOL     OW37754   5.777  13.440   5.453
11974SOL    HW137755   5.771  13.534   5.436
11974SOL    HW237756   5.709  13.401   5.398
11975SOL     OW37757  12.946   6.314   1.749
11975SOL    HW137758  12.939   6.400   1.709
11975SOL    HW237759  13.013   6.324   1.816
11976SOL     OW37760  12.283   2.574   6.063
11976SOL    HW137761  12.211   2.511   6.057
11976SOL    HW237762  12.260   2.631   6.137
11977SOL     OW37763   6.006   1.164  10.568
11977SOL    HW137764   5.953   1.120  10.635
11977SOL    HW237765   5.942   1.210  10.514
11978SOL     OW37766  11.021   9.622   0.960
11978SOL    HW137767  11.113   9.601   0.944
11978SOL    HW237768  11.009   9.607   1.054
11979SOL     OW37769   0.592  12.252   4.467
11979SOL    HW137770   0.680  12.263   4.430
11979SOL    HW237771   0.534  12.251   4.392
11980SOL     OW37772   6.356   3.817  12.558
11980SOL    HW137773   6.335   3.728  12.532
11980SOL    HW237774   6.286   3.870  12.520
11981SOL     OW37775   7.286  13.122  10.060
11981SOL    HW137776   7.297  13.111  10.155
11981SOL    HW237777   7.321  13.042  10.022
11982SOL     OW37778   8.981  10.668  10.517
11982SOL    HW137779   9.031  10.741  10.480
11982SOL    HW237780   9.045  10.616  10.565
11983SOL     OW37781   3.964  11.687   6.557
11983SOL    HW137782   3.968  11.761   6.496
11983SOL    HW237783   3.882  11.699   6.604
11984SOL     OW37784   4.937  13.545   2.133
11984SOL    HW137785   4.888  13.475   2.173
11984SOL    HW237786   4.891  13.563   2.050
11985SOL     OW37787   4.180   0.804  10.811
11985SOL    HW137788   4.126   0.793  10.889
11985SOL    HW237789   4.238   0.727  10.810
11986SOL     OW37790   6.823  14.584   8.753
11986SOL    HW137791   6.837  14.500   8.798
11986SOL    HW237792   6.911  14.610   8.724
11987SOL     OW37793   8.239  13.463   7.767
11987SOL    HW137794   8.287  13.497   7.692
11987SOL    HW237795   8.204  13.379   7.737
11988SOL     OW37796  11.745  13.014  14.420
11988SOL    HW137797  11.814  12.948  14.418
11988SOL    HW237798  11.783  13.088  14.468
11989SOL     OW37799  10.250  10.377   0.290
11989SOL    HW137800  10.186  10.440   0.323
11989SOL    HW237801  10.252  10.308   0.356
11990SOL     OW37802   4.953  12.247  12.344
11990SOL    HW137803   4.997  12.327  12.373
11990SOL    HW237804   5.013  12.176  12.369
11991SOL     OW37805   8.025   6.689  13.504
11991SOL    HW137806   7.983   6.763  13.549
11991SOL    HW237807   8.114   6.688  13.538
11992SOL     OW37808  10.373   8.045   6.018
11992SOL    HW137809  10.420   8.121   6.053
11992SOL    HW237810  10.412   7.970   6.063
11993SOL     OW37811   3.202   8.597  12.672
11993SOL    HW137812   3.296   8.580  12.660
11993SOL    HW237813   3.165   8.512  12.697
11994SOL     OW37814  12.076  12.565   9.324
11994SOL    HW137815  12.103  12.652   9.295
11994SOL    HW237816  12.006  12.540   9.265
11995SOL     OW37817  14.085   8.502   8.214
11995SOL    HW137818  14.052   8.563   8.148
11995SOL    HW237819  14.129   8.558   8.278
11996SOL     OW37820  14.352   0.038   2.109
11996SOL    HW137821  14.346   0.109   2.173
11996SOL    HW237822  14.261   0.023   2.081
11997SOL     OW37823   1.892  11.843   8.525
11997SOL    HW137824   1.848  11.910   8.577
11997SOL    HW237825   1.827  11.817   8.460
11998SOL     OW37826  11.869   8.263   4.921
11998SOL    HW137827  11.859   8.168   4.919
11998SOL    HW237828  11.794   8.294   4.972
11999SOL     OW37829   2.313   7.645   6.436
11999SOL    HW137830   2.366   7.632   6.357
11999SOL    HW237831   2.331   7.568   6.490
12000SOL     OW37832   6.045   6.591   0.200
12000SOL    HW137833   6.039   6.683   0.224
12000SOL    HW237834   6.131   6.564   0.234
12001SOL     OW37835   4.135   3.011   5.994
12001SOL    HW137836   4.117   2.949   5.923
12001SOL    HW237837   4.182   3.083   5.951
12002SOL     OW37838   7.875   5.388   4.583
12002SOL    HW137839   7.830   5.473   4.576
12002SOL    HW237840   7.889   5.362   4.492
12003SOL     OW37841   0.662  12.902   4.154
12003SOL    HW137842   0.676  12.874   4.063
12003SOL    HW237843   0.570  12.925   4.158
12004SOL     OW37844   7.882  12.551   6.837
12004SOL    HW137845   7.898  12.642   6.815
12004SOL    HW237846   7.848  12.512   6.756
12005SOL     OW37847   8.271   6.233   9.050
12005SOL    HW137848   8.296   6.307   9.105
12005SOL    HW237849   8.354   6.189   9.029
12006SOL     OW37850  10.185   9.694   4.484
12006SOL    HW137851  10.181   9.749   4.406
12006SOL    HW237852  10.253   9.629   4.464
12007SOL     OW37853   3.174   1.792  10.009
12007SOL    HW137854   3.198   1.856  10.075
12007SOL    HW237855   3.241   1.724  10.016
12008SOL     OW37856   5.616   5.175  11.276
12008SOL    HW137857   5.696   5.123  11.261
12008SOL    HW237858   5.587   5.150  11.364
12009SOL     OW37859  11.630   5.841   4.352
12009SOL    HW137860  11.698   5.836   4.285
12009SOL    HW237861  11.557   5.790   4.316
12010SOL     OW37862   5.995   5.641   7.635
12010SOL    HW137863   5.981   5.586   7.558
12010SOL    HW237864   6.062   5.704   7.607
12011SOL     OW37865   9.690   4.792  13.361
12011SOL    HW137866   9.612   4.814  13.310
12011SOL    HW237867   9.659   4.732  13.428
12012SOL     OW37868   9.930  12.836  14.576
12012SOL    HW137869   9.909  12.881  14.659
12012SOL    HW237870   9.943  12.908  14.513
12013SOL     OW37871   0.278   9.160   5.954
12013SOL    HW137872   0.259   9.108   6.032
12013SOL    HW237873   0.276   9.097   5.882
12014SOL     OW37874   0.617  14.132  13.037
12014SOL    HW137875   0.548  14.077  13.073
12014SOL    HW237876   0.680  14.141  13.108
12015SOL     OW37877   4.784   2.104  12.140
12015SOL    HW137878   4.761   2.080  12.050
12015SOL    HW237879   4.795   2.199  12.137
12016SOL     OW37880   9.667   9.506  12.388
12016SOL    HW137881   9.599   9.500  12.322
12016SOL    HW237882   9.655   9.428  12.442
12017SOL     OW37883   0.266   6.823  12.747
12017SOL    HW137884   0.308   6.744  12.714
12017SOL    HW237885   0.245   6.804  12.838
12018SOL     OW37886  10.064  12.143  10.389
12018SOL    HW137887  10.055  12.197  10.311
12018SOL    HW237888  10.158  12.126  10.396
12019SOL     OW37889   7.978   0.274  13.655
12019SOL    HW137890   7.886   0.247  13.663
12019SOL    HW237891   8.016   0.211  13.593
12020SOL     OW37892   6.277  11.620   4.344
12020SOL    HW137893   6.311  11.539   4.308
12020SOL    HW237894   6.353  11.663   4.384
12021SOL     OW37895  12.898  13.028   3.014
12021SOL    HW137896  12.969  12.978   3.055
12021SOL    HW237897  12.883  12.984   2.930
12022SOL     OW37898   5.316   2.155   8.275
12022SOL    HW137899   5.259   2.145   8.199
12022SOL    HW237900   5.374   2.078   8.272
12023SOL     OW37901   8.446  10.907   6.169
12023SOL    HW137902   8.431  10.974   6.103
12023SOL    HW237903   8.478  10.831   6.119
12024SOL     OW37904  13.364   8.449   4.056
12024SOL    HW137905  13.290   8.407   4.012
12024SOL    HW237906  13.335   8.458   4.147
12025SOL     OW37907   7.174  11.472  12.743
12025SOL    HW137908   7.192  11.476  12.837
12025SOL    HW237909   7.105  11.537  12.729
12026SOL     OW37910   8.422   5.958  10.379
12026SOL    HW137911   8.353   5.902  10.343
12026SOL    HW237912   8.437   6.023  10.311
12027SOL     OW37913   1.357  12.656   0.653
12027SOL    HW137914   1.271  12.634   0.616
12027SOL    HW237915   1.361  12.751   0.648
12028SOL     OW37916   2.218   6.599   3.108
12028SOL    HW137917   2.179   6.547   3.038
12028SOL    HW237918   2.192   6.689   3.090
12029SOL     OW37919  13.455  10.526   7.136
12029SOL    HW137920  13.414  10.451   7.093
12029SOL    HW237921  13.384  10.569   7.182
12030SOL     OW37922   4.634   9.156   3.180
12030SOL    HW137923   4.626   9.061   3.194
12030SOL    HW237924   4.565   9.177   3.117
12031SOL     OW37925   6.246   3.348   9.980
12031SOL    HW137926   6.164   3.300   9.972
12031SOL    HW237927   6.257   3.392   9.896
12032SOL     OW37928   9.848   7.273   8.018
12032SOL    HW137929   9.913   7.242   7.955
12032SOL    HW237930   9.799   7.195   8.043
12033SOL     OW37931  10.527  12.241  14.439
12033SOL    HW137932  10.523  12.153  14.402
12033SOL    HW237933  10.576  12.231  14.521
12034SOL     OW37934  13.969   5.715   9.907
12034SOL    HW137935  14.039   5.723   9.842
12034SOL    HW237936  13.982   5.790   9.965
12035SOL     OW37937  10.973   7.346   8.704
12035SOL    HW137938  11.011   7.407   8.641
12035SOL    HW237939  10.884   7.377   8.717
12036SOL     OW37940   6.794  12.713  13.670
12036SOL    HW137941   6.737  12.783  13.638
12036SOL    HW237942   6.738  12.661  13.728
12037SOL     OW37943   5.123  12.928  11.733
12037SOL    HW137944   5.047  12.897  11.683
12037SOL    HW237945   5.177  12.974  11.668
12038SOL     OW37946  13.504   9.123   9.237
12038SOL    HW137947  13.564   9.063   9.194
12038SOL    HW237948  13.560   9.184   9.285
12039SOL     OW37949   7.819   6.824   0.379
12039SOL    HW137950   7.911   6.839   0.399
12039SOL    HW237951   7.778   6.807   0.463
12040SOL     OW37952   8.590  14.231   0.481
12040SOL    HW137953   8.673  14.268   0.451
12040SOL    HW237954   8.566  14.167   0.413
12041SOL     OW37955  14.234   5.169   4.338
12041SOL    HW137956  14.224   5.075   4.357
12041SOL    HW237957  14.198   5.213   4.415
12042SOL     OW37958  11.247  13.531  12.149
12042SOL    HW137959  11.160  13.519  12.186
12042SOL    HW237960  11.269  13.445  12.113
12043SOL     OW37961   4.399  12.415   2.473
12043SOL    HW137962   4.357  12.363   2.542
12043SOL    HW237963   4.387  12.506   2.501
12044SOL     OW37964   0.127   3.489   8.396
12044SOL    HW137965   0.175   3.563   8.433
12044SOL    HW237966   0.138   3.498   8.301
12045SOL     OW37967  10.649  11.218   1.949
12045SOL    HW137968  10.652  11.263   1.864
12045SOL    HW237969  10.739  11.223   1.981
12046SOL     OW37970   9.505  14.124   1.827
12046SOL    HW137971   9.417  14.150   1.856
12046SOL    HW237972   9.563  14.186   1.871
12047SOL     OW37973   5.894   6.653   8.972
12047SOL    HW137974   5.801   6.672   8.966
12047SOL    HW237975   5.905   6.611   9.057
12048SOL     OW37976  13.549   3.569  14.551
12048SOL    HW137977  13.468   3.566  14.501
12048SOL    HW237978  13.585   3.657  14.533
12049SOL     OW37979  12.181   4.128   5.067
12049SOL    HW137980  12.132   4.096   4.991
12049SOL    HW237981  12.230   4.204   5.034
12050SOL     OW37982   3.267   8.982   0.589
12050SOL    HW137983   3.242   8.954   0.677
12050SOL    HW237984   3.300   8.903   0.546
12051SOL     OW37985   8.984   9.002   1.659
12051SOL    HW137986   8.975   9.056   1.737
12051SOL    HW237987   9.070   8.960   1.668
12052SOL     OW37988   3.717   4.832   0.212
12052SOL    HW137989   3.649   4.893   0.241
12052SOL    HW237990   3.721   4.767   0.282
12053SOL     OW37991   8.375  12.525  10.022
12053SOL    HW137992   8.424  12.566  10.094
12053SOL    HW237993   8.390  12.581   9.947
12054SOL     OW37994   7.017   1.283   4.198
12054SOL    HW137995   7.100   1.317   4.166
12054SOL    HW237996   6.978   1.356   4.246
12055SOL     OW37997   5.767  14.481  12.770
12055SOL    HW137998   5.833  14.412  12.770
12055SOL    HW237999   5.694  14.445  12.719
12056SOL     OW38000   6.886   8.924  14.062
12056SOL    HW138001   6.895   9.008  14.018
12056SOL    HW238002   6.807   8.933  14.115
12057SOL     OW38003  11.913   4.897   4.045
12057SOL    HW138004  11.991   4.924   4.095
12057SOL    HW238005  11.930   4.806   4.023
12058SOL     OW38006   8.498  13.577  13.356
12058SOL    HW138007   8.494  13.488  13.390
12058SOL    HW238008   8.537  13.568  13.269
12059SOL     OW38009   9.581   8.560  11.292
12059SOL    HW138010   9.542   8.494  11.235
12059SOL    HW238011   9.544   8.542  11.378
12060SOL     OW38012  14.682  10.060   9.214
12060SOL    HW138013  14.590  10.051   9.241
12060SOL    HW238014  14.684  10.141   9.164
12061SOL     OW38015  10.200  11.311   5.204
12061SOL    HW138016  10.149  11.247   5.153
12061SOL    HW238017  10.165  11.304   5.293
12062SOL     OW38018   3.740   0.263   3.813
12062SOL    HW138019   3.667   0.231   3.867
12062SOL    HW238020   3.700   0.286   3.729
12063SOL     OW38021  11.040   0.824   1.009
12063SOL    HW138022  10.965   0.765   1.014
12063SOL    HW238023  11.020   0.882   0.936
12064SOL     OW38024  11.448   3.190  13.439
12064SOL    HW138025  11.480   3.190  13.530
12064SOL    HW238026  11.528   3.197  13.386
12065SOL     OW38027  11.894   4.349   3.347
12065SOL    HW138028  11.931   4.399   3.419
12065SOL    HW238029  11.810   4.316   3.381
12066SOL     OW38030   7.227  11.485   5.205
12066SOL    HW138031   7.286  11.410   5.196
12066SOL    HW238032   7.140  11.447   5.204
12067SOL     OW38033   0.519   2.851  13.672
12067SOL    HW138034   0.609   2.816  13.675
12067SOL    HW238035   0.485   2.835  13.760
12068SOL     OW38036   4.676  13.593   4.086
12068SOL    HW138037   4.645  13.505   4.063
12068SOL    HW238038   4.689  13.636   4.002
12069SOL     OW38039   3.695   0.065   5.851
12069SOL    HW138040   3.679   0.111   5.769
12069SOL    HW238041   3.713  14.847   5.826
12070SOL     OW38042   4.831   4.293   7.508
12070SOL    HW138043   4.795   4.206   7.492
12070SOL    HW238044   4.779   4.351   7.453
12071SOL     OW38045   0.467   4.478   2.452
12071SOL    HW138046   0.382   4.502   2.488
12071SOL    HW238047   0.462   4.502   2.360
12072SOL     OW38048   7.907   3.504   3.016
12072SOL    HW138049   7.867   3.486   3.101
12072SOL    HW238050   7.957   3.584   3.030
12073SOL     OW38051   3.638   6.784   1.543
12073SOL    HW138052   3.659   6.763   1.634
12073SOL    HW238053   3.718   6.768   1.495
12074SOL     OW38054  12.695  13.310   0.994
12074SOL    HW138055  12.701  13.405   1.004
12074SOL    HW238056  12.608  13.288   1.028
12075SOL     OW38057   3.250   1.748  13.398
12075SOL    HW138058   3.344   1.754  13.413
12075SOL    HW238059   3.213   1.726  13.484
12076SOL     OW38060   7.586   5.040   9.617
12076SOL    HW138061   7.619   5.086   9.694
12076SOL    HW238062   7.561   5.110   9.556
12077SOL     OW38063   3.900  10.653  12.902
12077SOL    HW138064   3.882  10.559  12.903
12077SOL    HW238065   3.930  10.671  12.813
12078SOL     OW38066  14.107  14.578  10.407
12078SOL    HW138067  14.125  14.533  10.324
12078SOL    HW238068  14.192  14.613  10.434
12079SOL     OW38069   2.377   4.087   0.288
12079SOL    HW138070   2.414   4.104   0.201
12079SOL    HW238071   2.341   4.171   0.316
12080SOL     OW38072  11.411   0.218   3.555
12080SOL    HW138073  11.453   0.268   3.485
12080SOL    HW238074  11.330   0.185   3.516
12081SOL     OW38075  14.491  12.515   7.567
12081SOL    HW138076  14.513  12.507   7.475
12081SOL    HW238077  14.443  12.597   7.573
12082SOL     OW38078   5.304   0.180   9.196
12082SOL    HW138079   5.347   0.262   9.220
12082SOL    HW238080   5.246   0.204   9.124
12083SOL     OW38081  10.077   8.344   6.596
12083SOL    HW138082  10.060   8.359   6.689
12083SOL    HW238083   9.993   8.317   6.559
12084SOL     OW38084  14.047   0.490   0.113
12084SOL    HW138085  14.063   0.546   0.037
12084SOL    HW238086  14.078   0.404   0.086
12085SOL     OW38087  10.246  11.087  13.285
12085SOL    HW138088  10.199  11.170  13.292
12085SOL    HW238089  10.197  11.038  13.219
12086SOL     OW38090   1.195  14.488   9.118
12086SOL    HW138091   1.232  14.564   9.163
12086SOL    HW238092   1.112  14.521   9.081
12087SOL     OW38093  12.676   2.560  13.122
12087SOL    HW138094  12.727   2.587  13.046
12087SOL    HW238095  12.738   2.511  13.176
12088SOL     OW38096   0.907   7.630   8.211
12088SOL    HW138097   0.980   7.680   8.247
12088SOL    HW238098   0.872   7.582   8.286
12089SOL     OW38099  13.562  14.701  10.279
12089SOL    HW138100  13.575  14.641  10.205
12089SOL    HW238101  13.619  14.667  10.348
12090SOL     OW38102   0.707   5.216   7.590
12090SOL    HW138103   0.782   5.197   7.646
12090SOL    HW238104   0.744   5.224   7.502
12091SOL     OW38105   0.268  11.959   6.452
12091SOL    HW138106   0.247  11.904   6.376
12091SOL    HW238107   0.274  11.897   6.525
12092SOL     OW38108   5.096  10.648   4.743
12092SOL    HW138109   5.162  10.683   4.683
12092SOL    HW238110   5.148  10.601   4.809
12093SOL     OW38111  12.529   3.604   9.646
12093SOL    HW138112  12.580   3.669   9.597
12093SOL    HW238113  12.492   3.546   9.578
12094SOL     OW38114   7.098   8.002  11.627
12094SOL    HW138115   7.159   7.973  11.695
12094SOL    HW238116   7.104   8.098  11.628
12095SOL     OW38117   4.616   3.473   7.214
12095SOL    HW138118   4.551   3.406   7.194
12095SOL    HW238119   4.659   3.442   7.293
12096SOL     OW38120   1.310   9.166   7.974
12096SOL    HW138121   1.331   9.098   7.910
12096SOL    HW238122   1.327   9.126   8.059
12097SOL     OW38123  14.089  10.649  10.987
12097SOL    HW138124  14.126  10.711  11.050
12097SOL    HW238125  13.996  10.646  11.009
12098SOL     OW38126   1.750  14.808   0.215
12098SOL    HW138127   1.691  14.832   0.143
12098SOL    HW238128   1.837  14.833   0.184
12099SOL     OW38129   9.658   3.903   8.206
12099SOL    HW138130   9.573   3.917   8.164
12099SOL    HW238131   9.639   3.843   8.279
12100SOL     OW38132   0.201   4.135   1.279
12100SOL    HW138133   0.127   4.190   1.251
12100SOL    HW238134   0.275   4.196   1.284
12101SOL     OW38135  14.560   1.705   9.331
12101SOL    HW138136  14.502   1.780   9.318
12101SOL    HW238137  14.560   1.690   9.425
12102SOL     OW38138   9.250   6.573   7.583
12102SOL    HW138139   9.159   6.591   7.605
12102SOL    HW238140   9.263   6.616   7.499
12103SOL     OW38141  13.018   5.921  10.234
12103SOL    HW138142  13.108   5.900  10.259
12103SOL    HW238143  12.980   5.958  10.313
12104SOL     OW38144   3.993   1.893   5.361
12104SOL    HW138145   4.016   1.876   5.270
12104SOL    HW238146   4.012   1.811   5.406
12105SOL     OW38147   4.272   8.739  13.993
12105SOL    HW138148   4.359   8.703  13.973
12105SOL    HW238149   4.213   8.697  13.931
12106SOL     OW38150  13.155   7.111   7.956
12106SOL    HW138151  13.195   7.181   7.904
12106SOL    HW238152  13.068   7.144   7.977
12107SOL     OW38153  10.550   2.165  10.259
12107SOL    HW138154  10.550   2.094  10.195
12107SOL    HW238155  10.555   2.120  10.344
12108SOL     OW38156   9.505   0.997  14.732
12108SOL    HW138157   9.509   1.083  14.775
12108SOL    HW238158   9.584   0.994  14.677
12109SOL     OW38159   9.608  12.658   9.008
12109SOL    HW138160   9.528  12.608   9.019
12109SOL    HW238161   9.578  12.743   8.975
12110SOL     OW38162   1.134  11.964  12.371
12110SOL    HW138163   1.040  11.984  12.373
12110SOL    HW238164   1.141  11.889  12.312
12111SOL     OW38165   3.834  11.568   0.066
12111SOL    HW138166   3.849  11.662   0.056
12111SOL    HW238167   3.893  11.541   0.136
12112SOL     OW38168  13.210  12.202  11.008
12112SOL    HW138169  13.301  12.228  10.997
12112SOL    HW238170  13.183  12.242  11.090
12113SOL     OW38171   3.476   3.758  11.188
12113SOL    HW138172   3.531   3.823  11.232
12113SOL    HW238173   3.523   3.675  11.199
12114SOL     OW38174   2.535   9.899   2.266
12114SOL    HW138175   2.449   9.861   2.249
12114SOL    HW238176   2.579   9.835   2.322
12115SOL     OW38177   7.258   2.528   3.247
12115SOL    HW138178   7.262   2.453   3.188
12115SOL    HW238179   7.347   2.538   3.280
12116SOL     OW38180   7.954   7.185   4.667
12116SOL    HW138181   7.955   7.269   4.712
12116SOL    HW238182   8.042   7.176   4.630
12117SOL     OW38183   5.124  13.371   5.280
12117SOL    HW138184   5.216  13.375   5.254
12117SOL    HW238185   5.120  13.425   5.359
12118SOL     OW38186  10.682   0.243  12.460
12118SOL    HW138187  10.775   0.220  12.449
12118SOL    HW238188  10.635   0.181  12.404
12119SOL     OW38189   0.534   7.461  13.022
12119SOL    HW138190   0.550   7.547  12.984
12119SOL    HW238191   0.618   7.436  13.061
12120SOL     OW38192   7.278   9.630   1.513
12120SOL    HW138193   7.268   9.562   1.580
12120SOL    HW238194   7.319   9.703   1.560
12121SOL     OW38195   4.186   4.105   2.862
12121SOL    HW138196   4.143   4.032   2.906
12121SOL    HW238197   4.115   4.149   2.814
12122SOL     OW38198  11.554   5.922   9.066
12122SOL    HW138199  11.505   5.997   9.099
12122SOL    HW238200  11.552   5.932   8.971
12123SOL     OW38201  13.029   1.671   4.184
12123SOL    HW138202  13.049   1.635   4.097
12123SOL    HW238203  13.002   1.762   4.167
12124SOL     OW38204   4.807   7.215   3.638
12124SOL    HW138205   4.745   7.287   3.648
12124SOL    HW238206   4.765   7.141   3.682
12125SOL     OW38207   1.185   4.856   0.738
12125SOL    HW138208   1.277   4.862   0.712
12125SOL    HW238209   1.162   4.764   0.723
12126SOL     OW38210   3.512   5.095   0.894
12126SOL    HW138211   3.454   5.116   0.967
12126SOL    HW238212   3.463   5.031   0.842
12127SOL     OW38213  10.024   2.310   0.677
12127SOL    HW138214  10.013   2.304   0.771
12127SOL    HW238215   9.980   2.232   0.642
12128SOL     OW38216  12.877   2.107   5.238
12128SOL    HW138217  12.971   2.127   5.242
12128SOL    HW238218  12.873   2.030   5.181
12129SOL     OW38219   8.430  13.234  11.582
12129SOL    HW138220   8.439  13.195  11.495
12129SOL    HW238221   8.506  13.292  11.590
12130SOL     OW38222   2.676   5.241  13.517
12130SOL    HW138223   2.707   5.164  13.565
12130SOL    HW238224   2.585   5.221  13.497
12131SOL     OW38225   9.551   1.884  11.328
12131SOL    HW138226   9.589   1.806  11.287
12131SOL    HW238227   9.494   1.850  11.397
12132SOL     OW38228   3.083  14.375  13.741
12132SOL    HW138229   3.028  14.329  13.678
12132SOL    HW238230   3.036  14.366  13.824
12133SOL     OW38231  13.031   1.756   8.987
12133SOL    HW138232  12.970   1.813   8.941
12133SOL    HW238233  13.095   1.730   8.921
12134SOL     OW38234  11.631   3.853  13.870
12134SOL    HW138235  11.540   3.829  13.886
12134SOL    HW238236  11.682   3.784  13.912
12135SOL     OW38237  12.184  14.318  12.017
12135SOL    HW138238  12.135  14.375  11.959
12135SOL    HW238239  12.121  14.252  12.047
12136SOL     OW38240   6.465  14.237   4.521
12136SOL    HW138241   6.441  14.316   4.473
12136SOL    HW238242   6.418  14.167   4.477
12137SOL     OW38243  12.243   1.717   9.891
12137SOL    HW138244  12.296   1.781   9.938
12137SOL    HW238245  12.154   1.753   9.894
12138SOL     OW38246   2.698  14.283   3.771
12138SOL    HW138247   2.686  14.206   3.715
12138SOL    HW238248   2.620  14.284   3.826
12139SOL     OW38249   8.239   4.246  12.998
12139SOL    HW138250   8.175   4.301  13.042
12139SOL    HW238251   8.232   4.161  13.042
12140SOL     OW38252   5.391   5.294   2.691
12140SOL    HW138253   5.314   5.305   2.635
12140SOL    HW238254   5.464   5.329   2.639
12141SOL     OW38255   3.103   6.451   9.604
12141SOL    HW138256   3.076   6.523   9.546
12141SOL    HW238257   3.109   6.492   9.691
12142SOL     OW38258   5.814   7.972  13.272
12142SOL    HW138259   5.828   8.042  13.208
12142SOL    HW238260   5.791   8.018  13.353
12143SOL     OW38261   3.787   0.197  14.414
12143SOL    HW138262   3.727   0.162  14.348
12143SOL    HW238263   3.733   0.255  14.467
12144SOL     OW38264  10.841  12.004   3.281
12144SOL    HW138265  10.832  12.061   3.205
12144SOL    HW238266  10.867  11.919   3.245
12145SOL     OW38267   2.668   8.192   9.596
12145SOL    HW138268   2.698   8.253   9.529
12145SOL    HW238269   2.706   8.108   9.572
12146SOL     OW38270   4.295  12.654   5.520
12146SOL    HW138271   4.312  12.714   5.593
12146SOL    HW238272   4.235  12.589   5.557
12147SOL     OW38273   7.741  11.758   2.897
12147SOL    HW138274   7.663  11.704   2.905
12147SOL    HW238275   7.711  11.837   2.852
12148SOL     OW38276  10.888  14.721   5.112
12148SOL    HW138277  10.876  14.660   5.039
12148SOL    HW238278  10.955  14.680   5.167
12149SOL     OW38279   5.658  11.609   7.106
12149SOL    HW138280   5.699  11.668   7.169
12149SOL    HW238281   5.729  11.586   7.046
12150SOL     OW38282   0.860   0.768   4.310
12150SOL    HW138283   0.835   0.819   4.386
12150SOL    HW238284   0.947   0.800   4.286
12151SOL     OW38285  13.772  12.349   4.659
12151SOL    HW138286  13.743  12.270   4.703
12151SOL    HW238287  13.834  12.318   4.593
12152SOL     OW38288  12.418   0.988  10.855
12152SOL    HW138289  12.463   1.002  10.938
12152SOL    HW238290  12.480   1.018  10.789
12153SOL     OW38291   9.853  12.115   6.995
12153SOL    HW138292   9.763  12.084   7.009
12153SOL    HW238293   9.896  12.100   7.079
12154SOL     OW38294   7.634   7.291   5.058
12154SOL    HW138295   7.645   7.285   4.963
12154SOL    HW238296   7.542   7.269   5.073
12155SOL     OW38297   3.906   4.446   9.042
12155SOL    HW138298   3.839   4.435   9.110
12155SOL    HW238299   3.901   4.365   8.991
12156SOL     OW38300   3.649   0.643  11.572
12156SOL    HW138301   3.676   0.698  11.499
12156SOL    HW238302   3.629   0.558  11.532
12157SOL     OW38303  14.166   4.468   0.212
12157SOL    HW138304  14.211   4.466   0.127
12157SOL    HW238305  14.235   4.452   0.276
12158SOL     OW38306   8.125  14.531   5.148
12158SOL    HW138307   8.160  14.470   5.212
12158SOL    HW238308   8.147  14.492   5.063
12159SOL     OW38309  14.651  14.550   9.667
12159SOL    HW138310  14.668  14.640   9.638
12159SOL    HW238311  14.591  14.559   9.741
12160SOL     OW38312   3.870   5.787   9.275
12160SOL    HW138313   3.958   5.750   9.282
12160SOL    HW238314   3.861   5.843   9.352
12161SOL     OW38315   2.021   5.082   5.091
12161SOL    HW138316   2.040   5.007   5.147
12161SOL    HW238317   2.086   5.148   5.116
12162SOL     OW38318   2.447   0.214   3.791
12162SOL    HW138319   2.526   0.163   3.811
12162SOL    HW238320   2.392   0.155   3.740
12163SOL     OW38321  10.417   3.978   2.045
12163SOL    HW138322  10.457   4.054   2.087
12163SOL    HW238323  10.431   3.993   1.951
12164SOL     OW38324   8.623  11.122  11.974
12164SOL    HW138325   8.539  11.154  11.941
12164SOL    HW238326   8.687  11.147  11.907
12165SOL     OW38327   0.193   7.436  10.191
12165SOL    HW138328   0.241   7.398  10.117
12165SOL    HW238329   0.110   7.387  10.194
12166SOL     OW38330   1.745   9.716  13.418
12166SOL    HW138331   1.833   9.721  13.456
12166SOL    HW238332   1.756   9.659  13.342
12167SOL     OW38333   0.897  10.000  12.333
12167SOL    HW138334   0.803   9.985  12.343
12167SOL    HW238335   0.913   9.992  12.239
12168SOL     OW38336   0.204   9.371   8.723
12168SOL    HW138337   0.184   9.405   8.636
12168SOL    HW238338   0.142   9.414   8.781
12169SOL     OW38339   3.221   4.342  12.462
12169SOL    HW138340   3.188   4.270  12.409
12169SOL    HW238341   3.317   4.336  12.453
12170SOL     OW38342   6.420  10.238   7.541
12170SOL    HW138343   6.447  10.153   7.578
12170SOL    HW238344   6.398  10.291   7.618
12171SOL     OW38345   3.135   3.439   6.257
12171SOL    HW138346   3.190   3.365   6.231
12171SOL    HW238347   3.196   3.511   6.272
12172SOL     OW38348   4.137   2.354  14.850
12172SOL    HW138349   4.072   2.371   0.045
12172SOL    HW238350   4.172   2.440  14.828
12173SOL     OW38351   5.056   3.001   6.560
12173SOL    HW138352   5.056   2.956   6.476
12173SOL    HW238353   5.117   3.073   6.549
12174SOL     OW38354  10.197   5.671   5.019
12174SOL    HW138355  10.110   5.710   5.009
12174SOL    HW238356  10.186   5.606   5.088
12175SOL     OW38357  12.089   3.222   2.287
12175SOL    HW138358  12.149   3.290   2.319
12175SOL    HW238359  12.002   3.261   2.296
12176SOL     OW38360   8.227   6.636  13.737
12176SOL    HW138361   8.290   6.565  13.744
12176SOL    HW238362   8.183   6.638  13.822
12177SOL     OW38363   5.560  11.319  12.020
12177SOL    HW138364   5.546  11.228  11.995
12177SOL    HW238365   5.478  11.363  11.998
12178SOL     OW38366   1.535   7.668   4.019
12178SOL    HW138367   1.465   7.609   3.992
12178SOL    HW238368   1.504   7.706   4.102
12179SOL     OW38369   0.777   4.285   8.007
12179SOL    HW138370   0.782   4.325   8.094
12179SOL    HW238371   0.684   4.273   7.991
12180SOL     OW38372   9.428   1.777   3.498
12180SOL    HW138373   9.436   1.854   3.441
12180SOL    HW238374   9.381   1.810   3.575
12181SOL     OW38375   6.631   1.367  14.551
12181SOL    HW138376   6.554   1.403  14.594
12181SOL    HW238377   6.679   1.443  14.519
12182SOL     OW38378  12.711   1.342  13.224
12182SOL    HW138379  12.806   1.347  13.235
12182SOL    HW238380  12.676   1.326  13.312
12183SOL     OW38381  10.338   6.816   3.495
12183SOL    HW138382  10.252   6.836   3.533
12183SOL    HW238383  10.368   6.898   3.456
12184SOL     OW38384   7.562  12.265   1.396
12184SOL    HW138385   7.595  12.179   1.420
12184SOL    HW238386   7.639  12.313   1.367
12185SOL     OW38387   2.304   7.543   1.414
12185SOL    HW138388   2.368   7.473   1.404
12185SOL    HW238389   2.349   7.611   1.464
12186SOL     OW38390   4.003   5.216   7.417
12186SOL    HW138391   4.040   5.147   7.361
12186SOL    HW238392   3.935   5.256   7.363
12187SOL     OW38393   2.345   3.760   3.635
12187SOL    HW138394   2.279   3.829   3.645
12187SOL    HW238395   2.295   3.680   3.618
12188SOL     OW38396   5.623  12.123   4.913
12188SOL    HW138397   5.612  12.051   4.851
12188SOL    HW238398   5.593  12.086   4.997
12189SOL     OW38399  10.572  11.755   6.539
12189SOL    HW138400  10.534  11.680   6.494
12189SOL    HW238401  10.664  11.756   6.513
12190SOL     OW38402   1.339   0.086   6.289
12190SOL    HW138403   1.364   0.007   6.243
12190SOL    HW238404   1.302   0.143   6.221
12191SOL     OW38405   5.418   3.971   3.384
12191SOL    HW138406   5.506   3.941   3.408
12191SOL    HW238407   5.432   4.026   3.307
12192SOL     OW38408  13.379   0.882  13.642
12192SOL    HW138409  13.383   0.837  13.726
12192SOL    HW238410  13.321   0.826  13.589
12193SOL     OW38411  12.479   1.008   7.393
12193SOL    HW138412  12.563   1.036   7.358
12193SOL    HW238413  12.442   0.951   7.325
12194SOL     OW38414   6.567   6.082  10.367
12194SOL    HW138415   6.572   6.177  10.353
12194SOL    HW238416   6.649   6.061  10.411
12195SOL     OW38417   8.022   5.945   6.602
12195SOL    HW138418   7.955   5.883   6.629
12195SOL    HW238419   8.023   5.940   6.507
12196SOL     OW38420  10.540   9.763   8.272
12196SOL    HW138421  10.463   9.705   8.266
12196SOL    HW238422  10.554   9.793   8.182
12197SOL     OW38423   0.157   9.990   5.617
12197SOL    HW138424   0.184  10.019   5.530
12197SOL    HW238425   0.239   9.980   5.665
12198SOL     OW38426   9.721   9.230  13.422
12198SOL    HW138427   9.686   9.228  13.333
12198SOL    HW238428   9.647   9.254  13.477
12199SOL     OW38429   7.859  14.585   6.215
12199SOL    HW138430   7.846  14.576   6.120
12199SOL    HW238431   7.892  14.674   6.226
12200SOL     OW38432   9.042   8.620   8.383
12200SOL    HW138433   9.130   8.657   8.373
12200SOL    HW238434   9.035   8.601   8.477
12201SOL     OW38435   4.329   3.835  12.432
12201SOL    HW138436   4.397   3.829  12.365
12201SOL    HW238437   4.358   3.906  12.489
12202SOL     OW38438  10.472   8.555   4.587
12202SOL    HW138439  10.533   8.482   4.582
12202SOL    HW238440  10.389   8.518   4.557
12203SOL     OW38441   5.264   2.619  12.952
12203SOL    HW138442   5.350   2.604  12.912
12203SOL    HW238443   5.202   2.602  12.881
12204SOL     OW38444   7.693   4.953   4.397
12204SOL    HW138445   7.782   4.922   4.378
12204SOL    HW238446   7.683   4.940   4.491
12205SOL     OW38447  13.342   0.918   5.663
12205SOL    HW138448  13.309   0.948   5.579
12205SOL    HW238449  13.437   0.931   5.658
12206SOL     OW38450  11.113  13.419   6.760
12206SOL    HW138451  11.039  13.462   6.716
12206SOL    HW238452  11.187  13.437   6.703
12207SOL     OW38453   1.623   4.737  13.598
12207SOL    HW138454   1.638   4.666  13.535
12207SOL    HW238455   1.681   4.717  13.671
12208SOL     OW38456   4.409   8.199   9.795
12208SOL    HW138457   4.351   8.231   9.726
12208SOL    HW238458   4.479   8.153   9.747
12209SOL     OW38459   9.039   9.530   0.179
12209SOL    HW138460   9.012   9.490   0.096
12209SOL    HW238461   9.025   9.624   0.167
12210SOL     OW38462   4.675   1.692  13.050
12210SOL    HW138463   4.623   1.643  13.114
12210SOL    HW238464   4.688   1.631  12.978
12211SOL     OW38465   3.982  14.034   1.490
12211SOL    HW138466   3.950  13.970   1.426
12211SOL    HW238467   4.009  13.981   1.565
12212SOL     OW38468   3.260   0.578   4.767
12212SOL    HW138469   3.177   0.535   4.744
12212SOL    HW238470   3.252   0.666   4.731
12213SOL     OW38471   8.073   5.985  14.784
12213SOL    HW138472   8.074   6.009   0.004
12213SOL    HW238473   8.014   5.910  14.779
12214SOL     OW38474  12.237   6.393  14.744
12214SOL    HW138475  12.176   6.346  14.800
12214SOL    HW238476  12.183   6.456  14.697
12215SOL     OW38477   8.375   0.671   5.419
12215SOL    HW138478   8.283   0.686   5.443
12215SOL    HW238479   8.381   0.703   5.329
12216SOL     OW38480   0.738  11.923   4.752
12216SOL    HW138481   0.653  11.964   4.772
12216SOL    HW238482   0.725  11.831   4.776
12217SOL     OW38483   5.155   3.397   3.187
12217SOL    HW138484   5.142   3.304   3.207
12217SOL    HW238485   5.075   3.422   3.140
12218SOL     OW38486   9.005   5.457  11.310
12218SOL    HW138487   9.085   5.504  11.331
12218SOL    HW238488   8.942   5.525  11.285
12219SOL     OW38489   8.533   3.264   7.023
12219SOL    HW138490   8.570   3.282   6.937
12219SOL    HW238491   8.552   3.171   7.038
12220SOL     OW38492   2.247   0.932   1.515
12220SOL    HW138493   2.168   0.975   1.549
12220SOL    HW238494   2.215   0.851   1.476
12221SOL     OW38495   0.817   6.196   9.844
12221SOL    HW138496   0.828   6.117   9.897
12221SOL    HW238497   0.907   6.225   9.825
12222SOL     OW38498  13.795   6.777   2.926
12222SOL    HW138499  13.874   6.768   2.873
12222SOL    HW238500  13.772   6.688   2.950
12223SOL     OW38501   9.830   8.308   7.585
12223SOL    HW138502   9.786   8.387   7.616
12223SOL    HW238503   9.808   8.304   7.492
12224SOL     OW38504   6.186  14.083  12.833
12224SOL    HW138505   6.107  14.110  12.880
12224SOL    HW238506   6.222  14.164  12.798
12225SOL     OW38507   6.138  12.975   8.910
12225SOL    HW138508   6.121  12.896   8.858
12225SOL    HW238509   6.224  12.959   8.949
12226SOL     OW38510  10.469   6.139   4.147
12226SOL    HW138511  10.532   6.211   4.153
12226SOL    HW238512  10.430   6.133   4.234
12227SOL     OW38513   5.665  13.063   0.533
12227SOL    HW138514   5.739  13.024   0.578
12227SOL    HW238515   5.589  13.014   0.564
12228SOL     OW38516   5.715   9.741   4.116
12228SOL    HW138517   5.782   9.705   4.057
12228SOL    HW238518   5.655   9.789   4.057
12229SOL     OW38519   6.891   4.373  13.563
12229SOL    HW138520   6.880   4.301  13.501
12229SOL    HW238521   6.975   4.354  13.606
12230SOL     OW38522   8.670   0.388   7.052
12230SOL    HW138523   8.748   0.374   7.105
12230SOL    HW238524   8.617   0.309   7.064
12231SOL     OW38525   3.109   9.025   8.889
12231SOL    HW138526   3.075   8.958   8.829
12231SOL    HW238527   3.031   9.076   8.913
12232SOL     OW38528   4.585   5.749   1.365
12232SOL    HW138529   4.587   5.820   1.429
12232SOL    HW238530   4.637   5.679   1.405
12233SOL     OW38531  13.447  12.410   5.494
12233SOL    HW138532  13.362  12.371   5.471
12233SOL    HW238533  13.452  12.489   5.440
12234SOL     OW38534  10.114  13.555  12.955
12234SOL    HW138535  10.020  13.551  12.935
12234SOL    HW238536  10.117  13.591  13.044
12235SOL     OW38537   2.501  12.939   2.522
12235SOL    HW138538   2.491  12.878   2.595
12235SOL    HW238539   2.489  12.885   2.444
12236SOL     OW38540  12.849   1.729   6.127
12236SOL    HW138541  12.808   1.777   6.199
12236SOL    HW238542  12.934   1.701   6.162
12237SOL     OW38543   7.368   4.241   8.842
12237SOL    HW138544   7.382   4.335   8.839
12237SOL    HW238545   7.406   4.214   8.926
12238SOL     OW38546  10.797  11.333   5.442
12238SOL    HW138547  10.709  11.315   5.410
12238SOL    HW238548  10.826  11.250   5.480
12239SOL     OW38549   8.187  13.801  13.829
12239SOL    HW138550   8.240  13.757  13.896
12239SOL    HW238551   8.193  13.745  13.752
12240SOL     OW38552   5.719   6.588   2.292
12240SOL    HW138553   5.815   6.583   2.301
12240SOL    HW238554   5.692   6.649   2.361
12241SOL     OW38555   1.914   7.743   5.734
12241SOL    HW138556   1.872   7.666   5.694
12241SOL    HW238557   1.970   7.706   5.802
12242SOL     OW38558   8.285   0.109   7.877
12242SOL    HW138559   8.229   0.185   7.861
12242SOL    HW238560   8.273   0.091   7.970
12243SOL     OW38561   7.668   8.861  11.182
12243SOL    HW138562   7.634   8.907  11.259
12243SOL    HW238563   7.749   8.821  11.213
12244SOL     OW38564  12.791   4.709   2.009
12244SOL    HW138565  12.796   4.730   1.916
12244SOL    HW238566  12.700   4.725   2.033
12245SOL     OW38567   1.531   7.343   4.929
12245SOL    HW138568   1.557   7.356   5.020
12245SOL    HW238569   1.595   7.393   4.878
12246SOL     OW38570   0.356   8.152   9.923
12246SOL    HW138571   0.393   8.197   9.998
12246SOL    HW238572   0.317   8.222   9.870
12247SOL     OW38573  10.561   8.751  12.043
12247SOL    HW138574  10.469   8.729  12.028
12247SOL    HW238575  10.603   8.738  11.959
12248SOL     OW38576  10.021   2.224   6.725
12248SOL    HW138577   9.981   2.137   6.725
12248SOL    HW238578  10.011   2.255   6.635
12249SOL     OW38579  13.210   2.226   6.329
12249SOL    HW138580  13.206   2.287   6.255
12249SOL    HW238581  13.143   2.257   6.390
12250SOL     OW38582   9.275   5.410   3.989
12250SOL    HW138583   9.264   5.488   4.043
12250SOL    HW238584   9.333   5.438   3.918
12251SOL     OW38585  10.563   5.465  11.564
12251SOL    HW138586  10.491   5.512  11.522
12251SOL    HW238587  10.640   5.487  11.510
12252SOL     OW38588   8.234   8.322   7.229
12252SOL    HW138589   8.157   8.350   7.181
12252SOL    HW238590   8.212   8.338   7.321
12253SOL     OW38591  13.789  13.269  14.321
12253SOL    HW138592  13.753  13.334  14.261
12253SOL    HW238593  13.883  13.289  14.325
12254SOL     OW38594   6.480  11.792   9.014
12254SOL    HW138595   6.490  11.784   9.109
12254SOL    HW238596   6.534  11.867   8.990
12255SOL     OW38597   0.423   4.319   8.834
12255SOL    HW138598   0.341   4.270   8.843
12255SOL    HW238599   0.488   4.265   8.880
12256SOL     OW38600   6.645  10.790  11.426
12256SOL    HW138601   6.577  10.758  11.485
12256SOL    HW238602   6.680  10.711  11.384
12257SOL     OW38603  11.230   6.322  13.685
12257SOL    HW138604  11.310   6.336  13.737
12257SOL    HW238605  11.235   6.388  13.616
12258SOL     OW38606  14.038   6.331   5.230
12258SOL    HW138607  14.016   6.272   5.302
12258SOL    HW238608  13.975   6.403   5.237
12259SOL     OW38609   9.039   6.596   6.549
12259SOL    HW138610   8.997   6.682   6.542
12259SOL    HW238611   9.060   6.588   6.643
12260SOL     OW38612   0.466   4.348  10.531
12260SOL    HW138613   0.521   4.380  10.461
12260SOL    HW238614   0.376   4.365  10.501
12261SOL     OW38615   0.561   1.365   7.722
12261SOL    HW138616   0.600   1.292   7.674
12261SOL    HW238617   0.633   1.428   7.731
12262SOL     OW38618  11.261   6.430   2.552
12262SOL    HW138619  11.250   6.386   2.637
12262SOL    HW238620  11.200   6.503   2.554
12263SOL     OW38621   4.944  14.260  13.649
12263SOL    HW138622   4.909  14.338  13.606
12263SOL    HW238623   4.918  14.187  13.592
12264SOL     OW38624   1.124   9.796  13.616
12264SOL    HW138625   1.125   9.807  13.521
12264SOL    HW238626   1.217   9.799  13.641
12265SOL     OW38627   0.726  10.598   4.252
12265SOL    HW138628   0.819  10.616   4.245
12265SOL    HW238629   0.685  10.685   4.252
12266SOL     OW38630   6.394  13.524  11.008
12266SOL    HW138631   6.390  13.618  11.025
12266SOL    HW238632   6.416  13.518  10.915
12267SOL     OW38633  14.799   0.795   3.051
12267SOL    HW138634  14.812   0.756   2.965
12267SOL    HW238635  14.830   0.728   3.112
12268SOL     OW38636   5.977   9.124  11.047
12268SOL    HW138637   6.050   9.066  11.023
12268SOL    HW238638   5.899   9.069  11.038
12269SOL     OW38639  12.639   6.027   7.109
12269SOL    HW138640  12.721   6.004   7.065
12269SOL    HW238641  12.666   6.063   7.193
12270SOL     OW38642   9.231   6.213  13.141
12270SOL    HW138643   9.159   6.212  13.078
12270SOL    HW238644   9.189   6.201  13.226
12271SOL     OW38645   8.661   9.062  10.839
12271SOL    HW138646   8.674   9.135  10.779
12271SOL    HW238647   8.582   9.018  10.807
12272SOL     OW38648   9.644   7.712   2.118
12272SOL    HW138649   9.721   7.770   2.118
12272SOL    HW238650   9.576   7.762   2.073
12273SOL     OW38651   3.710   6.803   5.432
12273SOL    HW138652   3.731   6.879   5.379
12273SOL    HW238653   3.703   6.837   5.521
12274SOL     OW38654   5.070  10.663   0.817
12274SOL    HW138655   5.121  10.692   0.892
12274SOL    HW238656   5.094  10.724   0.747
12275SOL     OW38657   5.089   1.484   8.574
12275SOL    HW138658   5.039   1.551   8.620
12275SOL    HW238659   5.094   1.516   8.484
12276SOL     OW38660   7.373   5.824  13.586
12276SOL    HW138661   7.457   5.777  13.585
12276SOL    HW238662   7.375   5.873  13.668
12277SOL     OW38663   5.031   4.178  10.955
12277SOL    HW138664   4.965   4.242  10.928
12277SOL    HW238665   5.060   4.209  11.041
12278SOL     OW38666  10.548   2.348   5.134
12278SOL    HW138667  10.476   2.303   5.178
12278SOL    HW238668  10.542   2.320   5.043
12279SOL     OW38669  12.910  10.537  10.475
12279SOL    HW138670  12.841  10.585  10.429
12279SOL    HW238671  12.868  10.506  10.556
12280SOL     OW38672   0.937   8.133   1.435
12280SOL    HW138673   0.891   8.155   1.516
12280SOL    HW238674   0.878   8.161   1.365
12281SOL     OW38675  12.675   9.394   3.215
12281SOL    HW138676  12.750   9.346   3.179
12281SOL    HW238677  12.612   9.325   3.239
12282SOL     OW38678  13.900   8.437   6.257
12282SOL    HW138679  13.823   8.483   6.223
12282SOL    HW238680  13.872   8.406   6.343
12283SOL     OW38681   1.798   9.014   6.245
12283SOL    HW138682   1.730   8.973   6.192
12283SOL    HW238683   1.880   8.988   6.204
12284SOL     OW38684   8.194   7.084   4.530
12284SOL    HW138685   8.140   7.006   4.529
12284SOL    HW238686   8.230   7.089   4.441
12285SOL     OW38687  12.860   5.193  14.811
12285SOL    HW138688  12.770   5.220  14.831
12285SOL    HW238689  12.865   5.198  14.716
12286SOL     OW38690   0.390   0.605   8.094
12286SOL    HW138691   0.310   0.617   8.042
12286SOL    HW238692   0.461   0.620   8.032
12287SOL     OW38693  14.280   2.263   1.594
12287SOL    HW138694  14.258   2.259   1.687
12287SOL    HW238695  14.201   2.296   1.552
12288SOL     OW38696  12.423  14.414   7.966
12288SOL    HW138697  12.332  14.419   7.995
12288SOL    HW238698  12.451  14.326   7.993
12289SOL     OW38699   8.855  10.644  12.657
12289SOL    HW138700   8.885  10.734  12.645
12289SOL    HW238701   8.856  10.630  12.752
12290SOL     OW38702   5.317  12.699  11.604
12290SOL    HW138703   5.398  12.651  11.592
12290SOL    HW238704   5.344  12.783  11.641
12291SOL     OW38705  10.576  13.181   5.721
12291SOL    HW138706  10.660  13.164   5.678
12291SOL    HW238707  10.571  13.277   5.726
12292SOL     OW38708   3.619   9.177   3.148
12292SOL    HW138709   3.528   9.165   3.122
12292SOL    HW238710   3.667   9.114   3.095
12293SOL     OW38711  12.119   5.909  14.277
12293SOL    HW138712  12.107   5.874  14.188
12293SOL    HW238713  12.035   5.951  14.297
12294SOL     OW38714   7.152   6.417   8.681
12294SOL    HW138715   7.233   6.370   8.666
12294SOL    HW238716   7.099   6.356   8.733
12295SOL     OW38717   0.133  10.156   4.452
12295SOL    HW138718   0.046  10.134   4.486
12295SOL    HW238719   0.176  10.071   4.439
12296SOL     OW38720   6.796   4.405   6.556
12296SOL    HW138721   6.767   4.370   6.640
12296SOL    HW238722   6.868   4.348   6.530
12297SOL     OW38723   5.114  10.783   5.394
12297SOL    HW138724   5.142  10.864   5.352
12297SOL    HW238725   5.051  10.745   5.333
12298SOL     OW38726   3.523   4.201  13.185
12298SOL    HW138727   3.516   4.127  13.125
12298SOL    HW238728   3.589   4.175  13.249
12299SOL     OW38729   1.111  14.191   0.203
12299SOL    HW138730   1.078  14.117   0.153
12299SOL    HW238731   1.205  14.176   0.210
12300SOL     OW38732   6.055  11.530   5.167
12300SOL    HW138733   6.074  11.502   5.078
12300SOL    HW238734   6.118  11.600   5.184
12301SOL     OW38735  14.152  11.788   1.964
12301SOL    HW138736  14.246  11.774   1.979
12301SOL    HW238737  14.112  11.704   1.983
12302SOL     OW38738   0.683   9.220  13.583
12302SOL    HW138739   0.682   9.174  13.667
12302SOL    HW238740   0.717   9.156  13.521
12303SOL     OW38741   5.631   2.206   8.039
12303SOL    HW138742   5.689   2.140   8.001
12303SOL    HW238743   5.565   2.221   7.971
12304SOL     OW38744   5.405  14.421   9.113
12304SOL    HW138745   5.437  14.370   9.039
12304SOL    HW238746   5.380  14.506   9.075
12305SOL     OW38747   0.402  10.288  10.433
12305SOL    HW138748   0.396  10.222  10.364
12305SOL    HW238749   0.361  10.366  10.395
12306SOL     OW38750   6.535   3.664   8.909
12306SOL    HW138751   6.584   3.640   8.831
12306SOL    HW238752   6.594   3.720   8.959
12307SOL     OW38753   7.964   6.287   2.709
12307SOL    HW138754   7.925   6.259   2.792
12307SOL    HW238755   7.969   6.383   2.716
12308SOL     OW38756   2.742  14.166   1.688
12308SOL    HW138757   2.758  14.179   1.781
12308SOL    HW238758   2.721  14.253   1.655
12309SOL     OW38759   4.023   9.344   4.941
12309SOL    HW138760   3.938   9.376   4.970
12309SOL    HW238761   4.086   9.407   4.977
12310SOL     OW38762   3.437   6.807  10.378
12310SOL    HW138763   3.426   6.868  10.451
12310SOL    HW238764   3.380   6.733  10.401
12311SOL     OW38765   7.358   0.082  12.677
12311SOL    HW138766   7.373   0.072  12.771
12311SOL    HW238767   7.442   0.060  12.637
12312SOL     OW38768   1.996  14.302   7.212
12312SOL    HW138769   2.075  14.335   7.169
12312SOL    HW238770   1.992  14.210   7.188
12313SOL     OW38771  12.343  11.526  12.440
12313SOL    HW138772  12.392  11.589  12.387
12313SOL    HW238773  12.375  11.441  12.412
12314SOL     OW38774   8.829   2.789   7.709
12314SOL    HW138775   8.789   2.703   7.694
12314SOL    HW238776   8.872   2.811   7.627
12315SOL     OW38777  13.155  11.641  11.787
12315SOL    HW138778  13.077  11.628  11.842
12315SOL    HW238779  13.210  11.564  11.805
12316SOL     OW38780   4.159   4.797   3.770
12316SOL    HW138781   4.176   4.888   3.796
12316SOL    HW238782   4.074   4.777   3.808
12317SOL     OW38783  13.233  14.154   5.948
12317SOL    HW138784  13.195  14.151   5.861
12317SOL    HW238785  13.182  14.220   5.995
12318SOL     OW38786   5.833  12.575   4.819
12318SOL    HW138787   5.760  12.524   4.785
12318SOL    HW238788   5.860  12.530   4.899
12319SOL     OW38789   8.989   1.876   6.739
12319SOL    HW138790   8.975   1.784   6.765
12319SOL    HW238791   9.080   1.879   6.711
12320SOL     OW38792   6.433  11.487  10.850
12320SOL    HW138793   6.420  11.419  10.916
12320SOL    HW238794   6.520  11.469  10.814
12321SOL     OW38795  11.249   0.302  13.058
12321SOL    HW138796  11.172   0.256  13.026
12321SOL    HW238797  11.267   0.264  13.143
12322SOL     OW38798   4.822  12.121   9.402
12322SOL    HW138799   4.889  12.132   9.470
12322SOL    HW238800   4.871  12.124   9.320
12323SOL     OW38801   5.753  12.787   1.842
12323SOL    HW138802   5.686  12.847   1.876
12323SOL    HW238803   5.825  12.793   1.905
12324SOL     OW38804   0.397  11.697   2.495
12324SOL    HW138805   0.418  11.636   2.565
12324SOL    HW238806   0.476  11.751   2.486
12325SOL     OW38807   6.680   9.943   8.990
12325SOL    HW138808   6.653   9.895   9.069
12325SOL    HW238809   6.744   9.886   8.948
12326SOL     OW38810   6.215   8.101   8.607
12326SOL    HW138811   6.157   8.153   8.550
12326SOL    HW238812   6.156   8.061   8.671
12327SOL     OW38813   2.838  12.129   2.277
12327SOL    HW138814   2.785  12.134   2.356
12327SOL    HW238815   2.866  12.219   2.261
12328SOL     OW38816   0.008   1.999   0.578
12328SOL    HW138817   0.092   2.000   0.531
12328SOL    HW238818   0.014   2.071   0.639
12329SOL     OW38819   2.502   4.597   5.630
12329SOL    HW138820   2.500   4.576   5.537
12329SOL    HW238821   2.581   4.649   5.642
12330SOL     OW38822   5.579   3.217  14.470
12330SOL    HW138823   5.671   3.191  14.478
12330SOL    HW238824   5.570   3.291  14.531
12331SOL     OW38825  13.763   4.252  11.003
12331SOL    HW138826  13.807   4.195  11.065
12331SOL    HW238827  13.685   4.283  11.049
12332SOL     OW38828  13.844   5.837   6.009
12332SOL    HW138829  13.877   5.924   6.033
12332SOL    HW238830  13.806   5.849   5.922
12333SOL     OW38831  12.870   2.967   6.850
12333SOL    HW138832  12.811   2.899   6.817
12333SOL    HW238833  12.957   2.926   6.849
12334SOL     OW38834  12.484   8.027   5.746
12334SOL    HW138835  12.455   7.935   5.742
12334SOL    HW238836  12.576   8.022   5.773
12335SOL     OW38837  12.424   8.645  13.122
12335SOL    HW138838  12.334   8.672  13.142
12335SOL    HW238839  12.417   8.551  13.106
12336SOL     OW38840   1.513  11.576   9.619
12336SOL    HW138841   1.547  11.558   9.706
12336SOL    HW238842   1.591  11.588   9.564
12337SOL     OW38843   0.423   2.091   3.854
12337SOL    HW138844   0.355   2.154   3.830
12337SOL    HW238845   0.505   2.133   3.827
12338SOL     OW38846   7.900   8.852   2.366
12338SOL    HW138847   7.864   8.938   2.385
12338SOL    HW238848   7.990   8.869   2.337
12339SOL     OW38849  11.702  13.464   4.488
12339SOL    HW138850  11.657  13.525   4.547
12339SOL    HW238851  11.677  13.378   4.521
12340SOL     OW38852   3.976   5.611   7.101
12340SOL    HW138853   3.903   5.577   7.152
12340SOL    HW238854   3.998   5.694   7.142
12341SOL     OW38855  12.454   0.572   1.266
12341SOL    HW138856  12.492   0.530   1.343
12341SOL    HW238857  12.410   0.650   1.301
12342SOL     OW38858  13.277   2.112   6.880
12342SOL    HW138859  13.268   2.022   6.912
12342SOL    HW238860  13.275   2.103   6.784
12343SOL     OW38861  11.553  13.479   2.900
12343SOL    HW138862  11.571  13.537   2.826
12343SOL    HW238863  11.562  13.391   2.865
12344SOL     OW38864   3.834  10.599  14.323
12344SOL    HW138865   3.793  10.623  14.406
12344SOL    HW238866   3.919  10.642  14.324
12345SOL     OW38867   5.279   6.990  12.627
12345SOL    HW138868   5.338   7.064  12.641
12345SOL    HW238869   5.319   6.918  12.676
12346SOL     OW38870   0.413  12.252   9.622
12346SOL    HW138871   0.356  12.292   9.556
12346SOL    HW238872   0.474  12.198   9.572
12347SOL     OW38873   7.511  11.759   2.578
12347SOL    HW138874   7.550  11.676   2.604
12347SOL    HW238875   7.419  11.738   2.562
12348SOL     OW38876   5.799  14.315   1.007
12348SOL    HW138877   5.850  14.243   0.969
12348SOL    HW238878   5.799  14.298   1.101
12349SOL     OW38879  14.088  11.976   5.677
12349SOL    HW138880  14.163  12.018   5.718
12349SOL    HW238881  14.012  12.017   5.718
12350SOL     OW38882   5.092  12.351   2.398
12350SOL    HW138883   5.086  12.441   2.430
12350SOL    HW238884   5.182  12.325   2.417
12351SOL     OW38885   4.818   9.507  11.501
12351SOL    HW138886   4.790   9.589  11.461
12351SOL    HW238887   4.881   9.470  11.439
12352SOL     OW38888   9.780   4.944   1.397
12352SOL    HW138889   9.784   5.039   1.402
12352SOL    HW238890   9.756   4.925   1.306
12353SOL     OW38891   7.145  14.513  10.493
12353SOL    HW138892   7.220  14.547  10.443
12353SOL    HW238893   7.070  14.530  10.437
12354SOL     OW38894   1.139  10.537   7.223
12354SOL    HW138895   1.099  10.550   7.137
12354SOL    HW238896   1.174  10.623   7.246
12355SOL     OW38897   2.539  11.925   7.040
12355SOL    HW138898   2.589  11.906   6.960
12355SOL    HW238899   2.458  11.876   7.029
12356SOL     OW38900   6.067   3.393  13.985
12356SOL    HW138901   6.058   3.301  13.958
12356SOL    HW238902   6.104   3.437  13.909
12357SOL     OW38903   5.553   3.625   5.410
12357SOL    HW138904   5.619   3.671   5.462
12357SOL    HW238905   5.489   3.692   5.388
12358SOL     OW38906   0.206   6.285  13.996
12358SOL    HW138907   0.154   6.309  14.072
12358SOL    HW238908   0.260   6.362  13.977
12359SOL     OW38909   6.567   2.684   3.807
12359SOL    HW138910   6.567   2.589   3.795
12359SOL    HW238911   6.653   2.703   3.845
12360SOL     OW38912  10.070   0.535  12.666
12360SOL    HW138913  10.073   0.442  12.689
12360SOL    HW238914  10.134   0.545  12.595
12361SOL     OW38915   3.927   2.640   9.188
12361SOL    HW138916   3.949   2.579   9.118
12361SOL    HW238917   3.837   2.667   9.169
12362SOL     OW38918  13.659   3.372   1.670
12362SOL    HW138919  13.677   3.414   1.754
12362SOL    HW238920  13.734   3.314   1.656
12363SOL     OW38921   1.537   9.947   5.794
12363SOL    HW138922   1.500   9.892   5.863
12363SOL    HW238923   1.627   9.963   5.822
12364SOL     OW38924  14.712  10.947   9.431
12364SOL    HW138925  14.655  10.990   9.495
12364SOL    HW238926  14.764  10.884   9.483
12365SOL     OW38927   3.497   5.196  13.334
12365SOL    HW138928   3.451   5.192  13.250
12365SOL    HW238929   3.584   5.162  13.315
12366SOL     OW38930  13.656   6.068   3.867
12366SOL    HW138931  13.664   6.112   3.782
12366SOL    HW238932  13.745   6.041   3.888
12367SOL     OW38933   4.878   7.888   8.040
12367SOL    HW138934   4.878   7.795   8.062
12367SOL    HW238935   4.953   7.899   7.982
12368SOL     OW38936   2.529   0.345   0.134
12368SOL    HW138937   2.555   0.277   0.197
12368SOL    HW238938   2.591   0.335   0.062
12369SOL     OW38939   7.331   2.736  10.217
12369SOL    HW138940   7.344   2.712  10.308
12369SOL    HW238941   7.246   2.780  10.215
12370SOL     OW38942  10.030   4.262   7.716
12370SOL    HW138943   9.985   4.192   7.764
12370SOL    HW238944  10.065   4.319   7.784
12371SOL     OW38945  12.834   2.677  14.584
12371SOL    HW138946  12.880   2.647  14.505
12371SOL    HW238947  12.759   2.617  14.592
12372SOL     OW38948   4.167   5.817  13.685
12372SOL    HW138949   4.090   5.860  13.723
12372SOL    HW238950   4.181   5.739  13.740
12373SOL     OW38951   4.838  13.742  11.730
12373SOL    HW138952   4.814  13.797  11.655
12373SOL    HW238953   4.847  13.803  11.803
12374SOL     OW38954  10.607  12.374   9.935
12374SOL    HW138955  10.580  12.466   9.932
12374SOL    HW238956  10.672  12.366   9.865
12375SOL     OW38957  13.039  10.657   1.530
12375SOL    HW138958  13.098  10.717   1.575
12375SOL    HW238959  13.046  10.575   1.579
12376SOL     OW38960   6.194   7.647   9.718
12376SOL    HW138961   6.190   7.648   9.622
12376SOL    HW238962   6.103   7.648   9.745
12377SOL     OW38963   4.712  11.770  11.176
12377SOL    HW138964   4.801  11.747  11.148
12377SOL    HW238965   4.720  11.790  11.269
12378SOL     OW38966   8.685  11.779  11.993
12378SOL    HW138967   8.713  11.850  12.050
12378SOL    HW238968   8.628  11.820  11.928
12379SOL     OW38969   3.663   7.206   0.441
12379SOL    HW138970   3.675   7.112   0.447
12379SOL    HW238971   3.572   7.217   0.415
12380SOL     OW38972  13.293  12.843   4.472
12380SOL    HW138973  13.311  12.826   4.564
12380SOL    HW238974  13.208  12.888   4.472
12381SOL     OW38975   5.419   6.052   0.962
12381SOL    HW138976   5.326   6.065   0.945
12381SOL    HW238977   5.441   5.971   0.915
12382SOL     OW38978  13.777   9.341   1.384
12382SOL    HW138979  13.736   9.324   1.299
12382SOL    HW238980  13.825   9.260   1.404
12383SOL     OW38981   4.101   2.188   3.922
12383SOL    HW138982   4.033   2.151   3.866
12383SOL    HW238983   4.183   2.148   3.891
12384SOL     OW38984   6.022  10.228   2.704
12384SOL    HW138985   6.098  10.188   2.745
12384SOL    HW238986   6.057  10.273   2.627
12385SOL     OW38987   9.570   8.315   4.174
12385SOL    HW138988   9.493   8.279   4.219
12385SOL    HW238989   9.616   8.239   4.140
12386SOL     OW38990   9.580   3.416  12.196
12386SOL    HW138991   9.580   3.333  12.147
12386SOL    HW238992   9.643   3.471  12.149
12387SOL     OW38993   1.674   2.986   6.367
12387SOL    HW138994   1.584   3.018   6.379
12387SOL    HW238995   1.664   2.892   6.350
12388SOL     OW38996   7.686  12.987   8.701
12388SOL    HW138997   7.774  12.970   8.668
12388SOL    HW238998   7.628  12.957   8.631
12389SOL     OW38999   2.147   5.484   5.893
12389SOL    HW139000   2.179   5.398   5.866
12389SOL    HW239001   2.052   5.478   5.886
12390SOL     OW39002   9.771   9.815   1.900
12390SOL    HW139003   9.829   9.826   1.825
12390SOL    HW239004   9.737   9.726   1.891
12391SOL     OW39005   7.047  14.741  13.221
12391SOL    HW139006   7.032  14.786  13.304
12391SOL    HW239007   6.964  14.698  13.202
12392SOL     OW39008  10.669   9.221  13.928
12392SOL    HW139009  10.581   9.258  13.920
12392SOL    HW239010  10.726   9.285  13.884
12393SOL     OW39011   9.618  13.404   0.699
12393SOL    HW139012   9.611  13.383   0.606
12393SOL    HW239013   9.531  13.382   0.735
12394SOL     OW39014   7.612   1.796   1.334
12394SOL    HW139015   7.570   1.770   1.252
12394SOL    HW239016   7.683   1.733   1.345
12395SOL     OW39017   3.536   0.504   6.002
12395SOL    HW139018   3.494   0.460   6.076
12395SOL    HW239019   3.503   0.594   6.005
12396SOL     OW39020   9.813  12.282   4.581
12396SOL    HW139021   9.743  12.216   4.574
12396SOL    HW239022   9.773  12.363   4.549
12397SOL     OW39023  13.246   0.342   2.303
12397SOL    HW139024  13.215   0.262   2.259
12397SOL    HW239025  13.316   0.312   2.361
12398SOL     OW39026   9.100  12.116   4.529
12398SOL    HW139027   9.104  12.085   4.438
12398SOL    HW239028   9.008  12.139   4.543
12399SOL     OW39029   1.917   6.213   6.279
12399SOL    HW139030   1.978   6.140   6.273
12399SOL    HW239031   1.919   6.238   6.372
12400SOL     OW39032  10.219   8.365  12.725
12400SOL    HW139033  10.249   8.426  12.792
12400SOL    HW239034  10.142   8.323  12.763
12401SOL     OW39035  12.445   3.431   6.108
12401SOL    HW139036  12.380   3.458   6.172
12401SOL    HW239037  12.529   3.443   6.151
12402SOL     OW39038  11.101  12.900   5.818
12402SOL    HW139039  11.130  12.841   5.749
12402SOL    HW239040  11.123  12.988   5.786
12403SOL     OW39041   6.459   8.286   0.387
12403SOL    HW139042   6.396   8.222   0.420
12403SOL    HW239043   6.463   8.269   0.292
12404SOL     OW39044   4.559  14.400  13.191
12404SOL    HW139045   4.563  14.495  13.183
12404SOL    HW239046   4.499  14.372  13.121
12405SOL     OW39047  14.123   2.392   6.335
12405SOL    HW139048  14.103   2.463   6.274
12405SOL    HW239049  14.207   2.416   6.373
12406SOL     OW39050  10.023  14.106  10.163
12406SOL    HW139051  10.042  14.153  10.244
12406SOL    HW239052   9.991  14.173  10.103
12407SOL     OW39053   3.616   4.737   6.040
12407SOL    HW139054   3.612   4.785   5.958
12407SOL    HW239055   3.693   4.682   6.032
12408SOL     OW39056   3.987  13.993   0.424
12408SOL    HW139057   3.975  14.033   0.338
12408SOL    HW239058   4.075  13.956   0.421
12409SOL     OW39059   2.514   5.823  13.507
12409SOL    HW139060   2.505   5.829  13.602
12409SOL    HW239061   2.464   5.746  13.482
12410SOL     OW39062   0.010  10.704  10.722
12410SOL    HW139063  14.872  10.669  10.811
12410SOL    HW239064   0.079  10.650  10.684
12411SOL     OW39065  12.402   3.878   0.422
12411SOL    HW139066  12.347   3.865   0.345
12411SOL    HW239067  12.451   3.958   0.404
12412SOL     OW39068   4.047   6.198  14.778
12412SOL    HW139069   3.963   6.158  14.800
12412SOL    HW239070   4.074   6.154  14.697
12413SOL     OW39071   2.877  12.218   1.222
12413SOL    HW139072   2.894  12.297   1.170
12413SOL    HW239073   2.783  12.219   1.238
12414SOL     OW39074   6.655   5.978   3.689
12414SOL    HW139075   6.668   5.922   3.766
12414SOL    HW239076   6.719   5.946   3.625
12415SOL     OW39077  10.158   3.798  12.017
12415SOL    HW139078  10.080   3.842  12.050
12415SOL    HW239079  10.171   3.835  11.930
12416SOL     OW39080  12.965   7.173   2.136
12416SOL    HW139081  12.973   7.093   2.084
12416SOL    HW239082  12.936   7.239   2.075
12417SOL     OW39083  11.133   4.149  10.723
12417SOL    HW139084  11.147   4.237  10.758
12417SOL    HW239085  11.039   4.135  10.730
12418SOL     OW39086  12.696  10.864  14.325
12418SOL    HW139087  12.677  10.770  14.330
12418SOL    HW239088  12.758  10.872  14.252
12419SOL     OW39089   6.662   2.921   8.330
12419SOL    HW139090   6.606   2.949   8.257
12419SOL    HW239091   6.702   3.002   8.360
12420SOL     OW39092   1.682  13.777   7.958
12420SOL    HW139093   1.684  13.815   8.046
12420SOL    HW239094   1.656  13.686   7.973
12421SOL     OW39095   6.557   1.703  12.882
12421SOL    HW139096   6.479   1.720  12.829
12421SOL    HW239097   6.595   1.790  12.897
12422SOL     OW39098  10.610  14.732   5.181
12422SOL    HW139099  10.603  14.824   5.157
12422SOL    HW239100  10.703  14.717   5.194
12423SOL     OW39101   8.842   6.120   5.161
12423SOL    HW139102   8.829   6.025   5.167
12423SOL    HW239103   8.835   6.139   5.068
12424SOL     OW39104   7.796   4.946   8.661
12424SOL    HW139105   7.720   4.967   8.716
12424SOL    HW239106   7.772   4.979   8.574
12425SOL     OW39107   8.908   0.174   6.463
12425SOL    HW139108   9.003   0.161   6.462
12425SOL    HW239109   8.896   0.268   6.471
12426SOL     OW39110   7.816   3.523  13.140
12426SOL    HW139111   7.817   3.567  13.055
12426SOL    HW239112   7.767   3.582  13.198
12427SOL     OW39113   6.837  10.669  12.363
12427SOL    HW139114   6.777  10.688  12.434
12427SOL    HW239115   6.805  10.721  12.289
12428SOL     OW39116  10.917  11.841   7.744
12428SOL    HW139117  10.948  11.841   7.834
12428SOL    HW239118  10.960  11.766   7.703
12429SOL     OW39119   2.316  12.754   0.889
12429SOL    HW139120   2.350  12.669   0.915
12429SOL    HW239121   2.393  12.803   0.860
12430SOL     OW39122  11.675   7.317   7.612
12430SOL    HW139123  11.672   7.375   7.536
12430SOL    HW239124  11.630   7.365   7.680
12431SOL     OW39125   4.229   9.000   3.335
12431SOL    HW139126   4.271   9.008   3.421
12431SOL    HW239127   4.301   8.982   3.275
12432SOL     OW39128  12.278   6.564   5.149
12432SOL    HW139129  12.332   6.593   5.076
12432SOL    HW239130  12.245   6.478   5.122
12433SOL     OW39131  10.351   4.965   4.015
12433SOL    HW139132  10.389   5.043   3.975
12433SOL    HW239133  10.296   4.999   4.086
12434SOL     OW39134  14.149   9.057   6.721
12434SOL    HW139135  14.084   8.989   6.700
12434SOL    HW239136  14.211   9.052   6.649
12435SOL     OW39137   9.040   5.179   4.368
12435SOL    HW139138   9.111   5.244   4.371
12435SOL    HW239139   8.960   5.231   4.367
12436SOL     OW39140   3.008  13.980  12.693
12436SOL    HW139141   2.950  14.054  12.678
12436SOL    HW239142   3.042  13.993  12.781
12437SOL     OW39143   4.932   0.254  10.416
12437SOL    HW139144   4.996   0.288  10.479
12437SOL    HW239145   4.902   0.332  10.368
12438SOL     OW39146  10.384   1.728   7.502
12438SOL    HW139147  10.469   1.695   7.530
12438SOL    HW239148  10.322   1.660   7.530
12439SOL     OW39149  12.907  14.677  13.521
12439SOL    HW139150  12.937  14.716  13.439
12439SOL    HW239151  12.899  14.583  13.501
12440SOL     OW39152  10.056  14.110   2.006
12440SOL    HW139153   9.998  14.110   1.930
12440SOL    HW239154  10.027  14.184   2.059
12441SOL     OW39155  10.319   3.272   2.943
12441SOL    HW139156  10.375   3.273   2.865
12441SOL    HW239157  10.374   3.306   3.013
12442SOL     OW39158   1.846  12.330   8.389
12442SOL    HW139159   1.888  12.275   8.455
12442SOL    HW239160   1.771  12.369   8.433
12443SOL     OW39161  12.480   6.950   6.131
12443SOL    HW139162  12.488   6.942   6.036
12443SOL    HW239163  12.386   6.956   6.148
12444SOL     OW39164  11.117   2.733   2.093
12444SOL    HW139165  11.102   2.731   2.187
12444SOL    HW239166  11.203   2.693   2.081
12445SOL     OW39167   1.075   8.641   7.208
12445SOL    HW139168   0.995   8.691   7.223
12445SOL    HW239169   1.118   8.685   7.134
12446SOL     OW39170   2.243   8.092   6.545
12446SOL    HW139171   2.148   8.085   6.538
12446SOL    HW239172   2.257   8.139   6.627
12447SOL     OW39173  14.261   3.731   6.016
12447SOL    HW139174  14.328   3.667   6.038
12447SOL    HW239175  14.309   3.813   6.002
12448SOL     OW39176   5.162   3.338   4.345
12448SOL    HW139177   5.161   3.313   4.438
12448SOL    HW239178   5.069   3.348   4.323
12449SOL     OW39179   1.025  13.013   2.784
12449SOL    HW139180   1.023  12.918   2.794
12449SOL    HW239181   0.932  13.039   2.777
12450SOL     OW39182   0.401  11.167  11.324
12450SOL    HW139183   0.445  11.243  11.362
12450SOL    HW239184   0.378  11.195  11.235
12451SOL     OW39185   4.630  10.627  12.036
12451SOL    HW139186   4.593  10.590  12.116
12451SOL    HW239187   4.555  10.638  11.978
12452SOL     OW39188   5.923   6.098   0.151
12452SOL    HW139189   5.900   6.190   0.165
12452SOL    HW239190   6.019   6.097   0.155
12453SOL     OW39191  10.706   0.944  14.774
12453SOL    HW139192  10.660   0.934  14.858
12453SOL    HW239193  10.747   0.860  14.758
12454SOL     OW39194  14.502   3.855   9.002
12454SOL    HW139195  14.569   3.788   9.012
12454SOL    HW239196  14.499   3.871   8.908
12455SOL     OW39197   4.878  14.184  14.136
12455SOL    HW139198   4.795  14.158  14.097
12455SOL    HW239199   4.916  14.246  14.074
12456SOL     OW39200   1.357   0.046  13.574
12456SOL    HW139201   1.283   0.038  13.513
12456SOL    HW239202   1.430   0.006  13.527
12457SOL     OW39203  13.097  11.057   8.232
12457SOL    HW139204  13.008  11.090   8.241
12457SOL    HW239205  13.106  11.036   8.139
12458SOL     OW39206   7.925   9.015   5.844
12458SOL    HW139207   8.005   8.980   5.885
12458SOL    HW239208   7.896   8.944   5.787
12459SOL     OW39209  13.834  11.838   6.323
12459SOL    HW139210  13.763  11.814   6.383
12459SOL    HW239211  13.882  11.906   6.370
12460SOL     OW39212   7.980   3.494  12.418
12460SOL    HW139213   8.045   3.564  12.422
12460SOL    HW239214   7.912   3.521  12.480
12461SOL     OW39215  11.225  10.101  11.215
12461SOL    HW139216  11.130  10.090  11.204
12461SOL    HW239217  11.256  10.129  11.129
12462SOL     OW39218  13.122   0.204   6.082
12462SOL    HW139219  13.132   0.261   6.158
12462SOL    HW239220  13.051   0.244   6.031
12463SOL     OW39221   7.651  13.670   5.327
12463SOL    HW139222   7.594  13.600   5.292
12463SOL    HW239223   7.608  13.698   5.407
12464SOL     OW39224  13.625  12.230   0.118
12464SOL    HW139225  13.574  12.236   0.037
12464SOL    HW239226  13.696  12.169   0.098
12465SOL     OW39227   9.742   5.858   9.287
12465SOL    HW139228   9.811   5.879   9.349
12465SOL    HW239229   9.729   5.763   9.297
12466SOL     OW39230   3.662   2.475  14.697
12466SOL    HW139231   3.735   2.414  14.703
12466SOL    HW239232   3.595   2.428  14.647
12467SOL     OW39233   3.606  13.273   7.659
12467SOL    HW139234   3.550  13.345   7.630
12467SOL    HW239235   3.633  13.297   7.748
12468SOL     OW39236   7.658   4.392   6.232
12468SOL    HW139237   7.576   4.418   6.191
12468SOL    HW239238   7.725   4.443   6.188
12469SOL     OW39239  11.771  10.522  12.467
12469SOL    HW139240  11.767  10.520  12.371
12469SOL    HW239241  11.695  10.471  12.495
12470SOL     OW39242   4.795   6.546  13.607
12470SOL    HW139243   4.751   6.478  13.555
12470SOL    HW239244   4.766   6.530  13.697
12471SOL     OW39245   2.782   2.295   6.872
12471SOL    HW139246   2.795   2.366   6.934
12471SOL    HW239247   2.687   2.287   6.864
12472SOL     OW39248   3.688   5.740   1.351
12472SOL    HW139249   3.626   5.703   1.288
12472SOL    HW239250   3.635   5.797   1.407
12473SOL     OW39251  10.410   8.693   7.522
12473SOL    HW139252  10.429   8.664   7.611
12473SOL    HW239253  10.333   8.643   7.496
12474SOL     OW39254  13.243  10.347  12.834
12474SOL    HW139255  13.323  10.297  12.818
12474SOL    HW239256  13.213  10.374  12.747
12475SOL     OW39257  13.437  13.583   1.848
12475SOL    HW139258  13.415  13.620   1.762
12475SOL    HW239259  13.455  13.660   1.902
12476SOL     OW39260  13.433  11.256  13.284
12476SOL    HW139261  13.404  11.347  13.278
12476SOL    HW239262  13.381  11.211  13.217
12477SOL     OW39263   8.847   4.491   0.148
12477SOL    HW139264   8.767   4.544   0.154
12477SOL    HW239265   8.876   4.503   0.058
12478SOL     OW39266  12.236   9.838   5.214
12478SOL    HW139267  12.311   9.852   5.156
12478SOL    HW239268  12.160   9.848   5.158
12479SOL     OW39269   9.384  14.511  13.376
12479SOL    HW139270   9.354  14.448  13.311
12479SOL    HW239271   9.477  14.523  13.357
12480SOL     OW39272   5.279   6.814   4.381
12480SOL    HW139273   5.275   6.863   4.463
12480SOL    HW239274   5.317   6.874   4.318
12481SOL     OW39275  12.010   6.204   8.639
12481SOL    HW139276  12.046   6.147   8.571
12481SOL    HW239277  11.941   6.254   8.596
12482SOL     OW39278   8.393   2.206   3.059
12482SOL    HW139279   8.304   2.243   3.054
12482SOL    HW239280   8.451   2.281   3.046
12483SOL     OW39281  11.511  14.555   7.528
12483SOL    HW139282  11.471  14.544   7.441
12483SOL    HW239283  11.473  14.485   7.581
12484SOL     OW39284   3.707  12.507   0.978
12484SOL    HW139285   3.752  12.553   1.049
12484SOL    HW239286   3.701  12.571   0.908
12485SOL     OW39287   5.534   5.147   4.361
12485SOL    HW139288   5.592   5.174   4.433
12485SOL    HW239289   5.449   5.183   4.384
12486SOL     OW39290   7.189   6.194  11.446
12486SOL    HW139291   7.228   6.217  11.530
12486SOL    HW239292   7.155   6.106  11.458
12487SOL     OW39293   8.631   4.736   6.558
12487SOL    HW139294   8.556   4.685   6.588
12487SOL    HW239295   8.681   4.676   6.502
12488SOL     OW39296   1.204   9.479  12.870
12488SOL    HW139297   1.174   9.423  12.942
12488SOL    HW239298   1.151   9.452  12.795
12489SOL     OW39299  12.448   1.915  14.044
12489SOL    HW139300  12.510   1.949  14.109
12489SOL    HW239301  12.454   1.820  14.052
12490SOL     OW39302   6.289   3.542   3.251
12490SOL    HW139303   6.286   3.603   3.177
12490SOL    HW239304   6.212   3.487   3.240
12491SOL     OW39305  14.360   5.955   9.517
12491SOL    HW139306  14.292   5.888   9.508
12491SOL    HW239307  14.315   6.030   9.556
12492SOL     OW39308   5.161   8.301  12.620
12492SOL    HW139309   5.148   8.390  12.588
12492SOL    HW239310   5.255   8.286  12.613
12493SOL     OW39311   6.104  14.129   9.092
12493SOL    HW139312   6.143  14.205   9.047
12493SOL    HW239313   6.015  14.157   9.112
12494SOL     OW39314  11.654   9.159   4.985
12494SOL    HW139315  11.580   9.218   4.967
12494SOL    HW239316  11.670   9.169   5.079
12495SOL     OW39317   5.650  13.484  10.713
12495SOL    HW139318   5.561  13.450  10.721
12495SOL    HW239319   5.671  13.473  10.620
12496SOL     OW39320  12.497   8.943  13.779
12496SOL    HW139321  12.555   8.882  13.733
12496SOL    HW239322  12.532   9.030  13.759
12497SOL     OW39323   6.256   5.481  13.614
12497SOL    HW139324   6.328   5.444  13.665
12497SOL    HW239325   6.296   5.554  13.566
12498SOL     OW39326  14.369   6.225  14.733
12498SOL    HW139327  14.370   6.198  14.641
12498SOL    HW239328  14.400   6.148  14.781
12499SOL     OW39329  13.813   7.667   7.217
12499SOL    HW139330  13.852   7.605   7.278
12499SOL    HW239331  13.831   7.753   7.256
12500SOL     OW39332   7.543   0.758  12.987
12500SOL    HW139333   7.527   0.852  12.991
12500SOL    HW239334   7.616   0.743  13.047
12501SOL     OW39335   6.303   2.238   1.291
12501SOL    HW139336   6.274   2.170   1.352
12501SOL    HW239337   6.374   2.282   1.338
12502SOL     OW39338  13.881   4.681   7.095
12502SOL    HW139339  13.910   4.770   7.074
12502SOL    HW239340  13.869   4.639   7.010
12503SOL     OW39341  13.466   8.779   1.944
12503SOL    HW139342  13.389   8.766   1.999
12503SOL    HW239343  13.522   8.704   1.963
12504SOL     OW39344   6.162   6.274   1.737
12504SOL    HW139345   6.157   6.367   1.759
12504SOL    HW239346   6.172   6.230   1.822
12505SOL     OW39347   2.349  13.688   7.334
12505SOL    HW139348   2.391  13.696   7.249
12505SOL    HW239349   2.420  13.697   7.397
12506SOL     OW39350  12.295   2.556  14.587
12506SOL    HW139351  12.265   2.578  14.499
12506SOL    HW239352  12.379   2.512  14.573
12507SOL     OW39353   7.780   3.766  10.543
12507SOL    HW139354   7.718   3.729  10.606
12507SOL    HW239355   7.787   3.700  10.474
12508SOL     OW39356   0.991   5.000  10.844
12508SOL    HW139357   1.026   4.992  10.933
12508SOL    HW239358   0.896   5.003  10.855
12509SOL     OW39359   2.012  11.260   0.230
12509SOL    HW139360   2.076  11.302   0.173
12509SOL    HW239361   1.964  11.201   0.172
12510SOL     OW39362   2.578   4.095   6.641
12510SOL    HW139363   2.658   4.058   6.602
12510SOL    HW239364   2.609   4.171   6.689
12511SOL     OW39365   4.691   5.009   0.075
12511SOL    HW139366   4.644   5.092   0.062
12511SOL    HW239367   4.782   5.030   0.057
12512SOL     OW39368   4.134   1.800   9.301
12512SOL    HW139369   4.226   1.774   9.310
12512SOL    HW239370   4.125   1.877   9.357
12513SOL     OW39371  13.113   4.816  10.249
12513SOL    HW139372  13.122   4.900  10.204
12513SOL    HW239373  13.155   4.830  10.335
12514SOL     OW39374   0.685  10.273  13.154
12514SOL    HW139375   0.657  10.207  13.091
12514SOL    HW239376   0.758  10.318  13.111
12515SOL     OW39377   2.516   5.865   2.422
12515SOL    HW139378   2.477   5.883   2.507
12515SOL    HW239379   2.610   5.869   2.437
12516SOL     OW39380   2.033  12.130  12.819
12516SOL    HW139381   2.035  12.146  12.725
12516SOL    HW239382   2.009  12.214  12.857
12517SOL     OW39383  11.494   4.672   5.205
12517SOL    HW139384  11.503   4.666   5.300
12517SOL    HW239385  11.405   4.643   5.188
12518SOL     OW39386   8.661   1.538  11.256
12518SOL    HW139387   8.617   1.622  11.245
12518SOL    HW239388   8.698   1.541  11.345
12519SOL     OW39389  10.765   9.584   2.576
12519SOL    HW139390  10.758   9.529   2.499
12519SOL    HW239391  10.856   9.614   2.577
12520SOL     OW39392  12.027  14.723   9.139
12520SOL    HW139393  12.043  14.765   9.223
12520SOL    HW239394  12.099  14.660   9.130
12521SOL     OW39395  12.546  12.784  12.466
12521SOL    HW139396  12.565  12.856  12.406
12521SOL    HW239397  12.626  12.731  12.466
12522SOL     OW39398  13.389  11.982  12.838
12522SOL    HW139399  13.453  12.033  12.788
12522SOL    HW239400  13.439  11.911  12.878
12523SOL     OW39401   3.133   3.906   2.420
12523SOL    HW139402   3.187   3.853   2.478
12523SOL    HW239403   3.067   3.945   2.478
12524SOL     OW39404   3.045  12.779   6.611
12524SOL    HW139405   3.071  12.867   6.638
12524SOL    HW239406   2.962  12.763   6.656
12525SOL     OW39407  10.901  10.203   0.514
12525SOL    HW139408  10.886  10.286   0.470
12525SOL    HW239409  10.826  10.192   0.573
12526SOL     OW39410   5.204  12.616   4.520
12526SOL    HW139411   5.289  12.581   4.493
12526SOL    HW239412   5.178  12.562   4.594
12527SOL     OW39413   7.462   3.229  10.651
12527SOL    HW139414   7.467   3.138  10.621
12527SOL    HW239415   7.440   3.279  10.573
12528SOL     OW39416   5.413   2.103   3.857
12528SOL    HW139417   5.425   2.046   3.933
12528SOL    HW239418   5.318   2.107   3.845
12529SOL     OW39419  11.230   6.230   2.730
12529SOL    HW139420  11.317   6.234   2.768
12529SOL    HW239421  11.230   6.148   2.679
12530SOL     OW39422   7.232   0.275   8.303
12530SOL    HW139423   7.167   0.280   8.374
12530SOL    HW239424   7.207   0.198   8.253
12531SOL     OW39425  12.571  12.577  13.515
12531SOL    HW139426  12.481  12.604  13.500
12531SOL    HW239427  12.571  12.542  13.604
12532SOL     OW39428  12.057   5.487   6.729
12532SOL    HW139429  12.131   5.479   6.669
12532SOL    HW239430  12.093   5.470   6.816
12533SOL     OW39431   9.074   3.660  14.728
12533SOL    HW139432   9.154   3.682  14.682
12533SOL    HW239433   9.029   3.743  14.739
12534SOL     OW39434   5.449   1.481   2.428
12534SOL    HW139435   5.361   1.452   2.404
12534SOL    HW239436   5.436   1.569   2.463
12535SOL     OW39437   1.730   2.506   0.556
12535SOL    HW139438   1.732   2.483   0.649
12535SOL    HW239439   1.674   2.584   0.552
12536SOL     OW39440  11.512  14.164   1.628
12536SOL    HW139441  11.463  14.228   1.576
12536SOL    HW239442  11.560  14.218   1.691
12537SOL     OW39443  10.328   5.097   3.641
12537SOL    HW139444  10.377   5.026   3.683
12537SOL    HW239445  10.283   5.140   3.713
12538SOL     OW39446   9.110  10.312   3.075
12538SOL    HW139447   9.181  10.248   3.075
12538SOL    HW239448   9.033  10.262   3.103
12539SOL     OW39449   3.053  14.320   1.871
12539SOL    HW139450   2.980  14.261   1.890
12539SOL    HW239451   3.053  14.383   1.944
12540SOL     OW39452   4.401   2.209  10.011
12540SOL    HW139453   4.385   2.133  10.068
12540SOL    HW239454   4.327   2.209   9.950
12541SOL     OW39455   8.799   8.133   5.878
12541SOL    HW139456   8.858   8.185   5.823
12541SOL    HW239457   8.720   8.186   5.885
12542SOL     OW39458   6.149   9.349   1.031
12542SOL    HW139459   6.124   9.279   1.092
12542SOL    HW239460   6.209   9.404   1.082
12543SOL     OW39461  13.145   9.332   1.023
12543SOL    HW139462  13.163   9.251   1.070
12543SOL    HW239463  13.115   9.393   1.091
12544SOL     OW39464  12.334   7.344   0.793
12544SOL    HW139465  12.353   7.355   0.886
12544SOL    HW239466  12.239   7.332   0.789
12545SOL     OW39467  10.217  13.152   0.711
12545SOL    HW139468  10.125  13.129   0.703
12545SOL    HW239469  10.233  13.213   0.639
12546SOL     OW39470   0.674   3.633   8.475
12546SOL    HW139471   0.596   3.591   8.439
12546SOL    HW239472   0.651   3.651   8.566
12547SOL     OW39473   1.106   7.561   6.867
12547SOL    HW139474   1.033   7.621   6.852
12547SOL    HW239475   1.162   7.606   6.930
12548SOL     OW39476   3.442   8.609   6.150
12548SOL    HW139477   3.457   8.580   6.240
12548SOL    HW239478   3.519   8.661   6.128
12549SOL     OW39479   1.310  12.700   1.953
12549SOL    HW139480   1.390  12.653   1.928
12549SOL    HW239481   1.263  12.713   1.870
12550SOL     OW39482   5.373   4.364  14.449
12550SOL    HW139483   5.291   4.324  14.420
12550SOL    HW239484   5.424   4.374  14.369
12551SOL     OW39485  14.191   9.121   6.038
12551SOL    HW139486  14.140   9.169   6.103
12551SOL    HW239487  14.177   9.029   6.060
12552SOL     OW39488   1.895   4.215   6.423
12552SOL    HW139489   1.935   4.151   6.363
12552SOL    HW239490   1.835   4.265   6.368
12553SOL     OW39491   6.026  13.080   3.323
12553SOL    HW139492   6.067  13.105   3.240
12553SOL    HW239493   5.940  13.048   3.298
12554SOL     OW39494   0.138   1.999   5.182
12554SOL    HW139495   0.058   2.046   5.156
12554SOL    HW239496   0.166   1.955   5.101
12555SOL     OW39497   2.293  12.368   5.888
12555SOL    HW139498   2.295  12.272   5.885
12555SOL    HW239499   2.384  12.393   5.907
12556SOL     OW39500   4.816   4.828   1.484
12556SOL    HW139501   4.827   4.739   1.451
12556SOL    HW239502   4.778   4.817   1.571
12557SOL     OW39503   1.531   4.480  13.049
12557SOL    HW139504   1.599   4.424  13.012
12557SOL    HW239505   1.575   4.562  13.069
12558SOL     OW39506   9.578   9.722   6.055
12558SOL    HW139507   9.603   9.660   5.987
12558SOL    HW239508   9.661   9.749   6.094
12559SOL     OW39509  11.226  10.947   1.657
12559SOL    HW139510  11.154  10.984   1.606
12559SOL    HW239511  11.193  10.943   1.747
12560SOL     OW39512   6.551  12.806  14.380
12560SOL    HW139513   6.505  12.870  14.327
12560SOL    HW239514   6.518  12.721  14.350
12561SOL     OW39515   2.927   1.940   5.100
12561SOL    HW139516   2.923   2.029   5.066
12561SOL    HW239517   2.836   1.918   5.120
12562SOL     OW39518   5.711   5.733   4.625
12562SOL    HW139519   5.740   5.694   4.543
12562SOL    HW239520   5.679   5.659   4.677
12563SOL     OW39521   0.146   7.659   1.485
12563SOL    HW139522   0.240   7.672   1.472
12563SOL    HW239523   0.139   7.571   1.523
12564SOL     OW39524   3.527   0.425   6.260
12564SOL    HW139525   3.453   0.438   6.319
12564SOL    HW239526   3.593   0.489   6.290
12565SOL     OW39527  14.019  14.447   3.738
12565SOL    HW139528  13.969  14.387   3.683
12565SOL    HW239529  14.085  14.484   3.680
12566SOL     OW39530   8.608   1.090  12.496
12566SOL    HW139531   8.703   1.076  12.497
12566SOL    HW239532   8.575   1.026  12.433
12567SOL     OW39533   7.715   3.840   3.978
12567SOL    HW139534   7.658   3.779   4.025
12567SOL    HW239535   7.799   3.836   4.025
12568SOL     OW39536  12.361   4.179   9.599
12568SOL    HW139537  12.377   4.178   9.505
12568SOL    HW239538  12.417   4.250   9.632
12569SOL     OW39539   2.422  13.472  14.666
12569SOL    HW139540   2.350  13.421  14.704
12569SOL    HW239541   2.423  13.446  14.574
12570SOL     OW39542  10.209   8.878  10.268
12570SOL    HW139543  10.268   8.807  10.294
12570SOL    HW239544  10.266   8.942  10.225
12571SOL     OW39545   6.633  12.103  12.709
12571SOL    HW139546   6.616  12.037  12.641
12571SOL    HW239547   6.574  12.175  12.688
12572SOL     OW39548   9.030   8.748   0.499
12572SOL    HW139549   9.098   8.681   0.489
12572SOL    HW239550   9.027   8.765   0.594
12573SOL     OW39551   2.930   7.869   0.708
12573SOL    HW139552   2.943   7.846   0.616
12573SOL    HW239553   2.835   7.864   0.720
12574SOL     OW39554   1.354   4.211  12.112
12574SOL    HW139555   1.406   4.133  12.093
12574SOL    HW239556   1.295   4.185  12.182
12575SOL     OW39557   0.475  13.512   9.057
12575SOL    HW139558   0.430  13.487   9.138
12575SOL    HW239559   0.447  13.602   9.041
12576SOL     OW39560  10.469   6.562   4.194
12576SOL    HW139561  10.447   6.655   4.185
12576SOL    HW239562  10.436   6.522   4.113
12577SOL     OW39563   5.593  11.261   9.303
12577SOL    HW139564   5.524  11.222   9.356
12577SOL    HW239565   5.640  11.319   9.363
12578SOL     OW39566   4.945   5.871   8.490
12578SOL    HW139567   4.964   5.834   8.403
12578SOL    HW239568   4.881   5.940   8.474
12579SOL     OW39569   3.793  11.494  14.254
12579SOL    HW139570   3.811  11.400  14.255
12579SOL    HW239571   3.876  11.535  14.280
12580SOL     OW39572   3.506   6.290   8.643
12580SOL    HW139573   3.534   6.297   8.735
12580SOL    HW239574   3.420   6.249   8.648
12581SOL     OW39575   8.441  12.866   9.124
12581SOL    HW139576   8.502  12.794   9.143
12581SOL    HW239577   8.439  12.917   9.205
12582SOL     OW39578  13.355   7.034  10.812
12582SOL    HW139579  13.274   6.987  10.793
12582SOL    HW239580  13.399   7.039  10.727
12583SOL     OW39581  10.452   7.758   4.559
12583SOL    HW139582  10.430   7.850   4.572
12583SOL    HW239583  10.383   7.709   4.604
12584SOL     OW39584   3.865   8.041  11.308
12584SOL    HW139585   3.833   8.114  11.360
12584SOL    HW239586   3.910   8.081  11.234
12585SOL     OW39587  12.271   3.363   6.965
12585SOL    HW139588  12.354   3.322   6.992
12585SOL    HW239589  12.297   3.446   6.925
12586SOL     OW39590   0.687  12.844   1.578
12586SOL    HW139591   0.776  12.809   1.585
12586SOL    HW239592   0.689  12.900   1.501
12587SOL     OW39593   1.210  10.050   0.489
12587SOL    HW139594   1.289  10.096   0.462
12587SOL    HW239595   1.142  10.117   0.491
12588SOL     OW39596   5.374   3.315   7.636
12588SOL    HW139597   5.441   3.271   7.584
12588SOL    HW239598   5.371   3.404   7.600
12589SOL     OW39599   7.181   3.298   2.731
12589SOL    HW139600   7.099   3.322   2.688
12589SOL    HW239601   7.155   3.239   2.802
12590SOL     OW39602   9.661   8.892   3.238
12590SOL    HW139603   9.668   8.857   3.327
12590SOL    HW239604   9.577   8.937   3.236
12591SOL     OW39605   5.604   9.985   9.499
12591SOL    HW139606   5.528   9.931   9.477
12591SOL    HW239607   5.636   9.948   9.582
12592SOL     OW39608  13.959   8.475   6.771
12592SOL    HW139609  13.998   8.490   6.857
12592SOL    HW239610  13.994   8.391   6.743
12593SOL     OW39611   2.774  12.447  11.063
12593SOL    HW139612   2.823  12.525  11.037
12593SOL    HW239613   2.839  12.391  11.105
12594SOL     OW39614   4.310   5.279   9.522
12594SOL    HW139615   4.274   5.311   9.440
12594SOL    HW239616   4.329   5.358   9.573
12595SOL     OW39617   4.249  11.247  12.620
12595SOL    HW139618   4.291  11.246  12.534
12595SOL    HW239619   4.310  11.200  12.677
12596SOL     OW39620  12.013   6.336   6.030
12596SOL    HW139621  11.991   6.272   5.961
12596SOL    HW239622  12.033   6.282   6.106
12597SOL     OW39623   4.587   5.901   8.615
12597SOL    HW139624   4.583   5.994   8.592
12597SOL    HW239625   4.528   5.859   8.553
12598SOL     OW39626   1.133   5.900   5.504
12598SOL    HW139627   1.113   5.931   5.416
12598SOL    HW239628   1.100   5.810   5.506
12599SOL     OW39629   4.331   6.221  14.774
12599SOL    HW139630   4.388   6.293  14.748
12599SOL    HW239631   4.248   6.263  14.796
12600SOL     OW39632   8.751  12.562   1.923
12600SOL    HW139633   8.663  12.536   1.896
12600SOL    HW239634   8.785  12.487   1.971
12601SOL     OW39635   2.782  12.909   7.458
12601SOL    HW139636   2.720  12.864   7.401
12601SOL    HW239637   2.741  12.908   7.544
12602SOL     OW39638   6.281  11.384   6.526
12602SOL    HW139639   6.352  11.448   6.519
12602SOL    HW239640   6.230  11.413   6.601
12603SOL     OW39641  13.173  14.675   4.607
12603SOL    HW139642  13.172  14.722   4.524
12603SOL    HW239643  13.265  14.674   4.633
12604SOL     OW39644   4.885  14.501   9.181
12604SOL    HW139645   4.825  14.529   9.113
12604SOL    HW239646   4.831  14.452   9.243
12605SOL     OW39647   9.331   3.018   1.550
12605SOL    HW139648   9.325   3.036   1.644
12605SOL    HW239649   9.329   2.922   1.544
12606SOL     OW39650  14.103   2.146   6.224
12606SOL    HW139651  14.089   2.239   6.242
12606SOL    HW239652  14.184   2.124   6.270
12607SOL     OW39653   5.262  12.160   1.738
12607SOL    HW139654   5.253  12.111   1.657
12607SOL    HW239655   5.262  12.093   1.807
12608SOL     OW39656   5.637   6.630  11.857
12608SOL    HW139657   5.556   6.579  11.854
12608SOL    HW239658   5.625   6.688  11.932
12609SOL     OW39659   2.333  11.796  11.854
12609SOL    HW139660   2.427  11.781  11.853
12609SOL    HW239661   2.295  11.715  11.820
12610SOL     OW39662   3.484  13.954   4.248
12610SOL    HW139663   3.492  13.864   4.278
12610SOL    HW239664   3.398  13.983   4.278
12611SOL     OW39665  11.964  12.083   6.519
12611SOL    HW139666  12.025  12.040   6.580
12611SOL    HW239667  11.881  12.085   6.567
12612SOL     OW39668  14.203   3.983   6.994
12612SOL    HW139669  14.234   4.033   6.919
12612SOL    HW239670  14.216   3.891   6.969
12613SOL     OW39671   8.989   1.307  12.720
12613SOL    HW139672   8.909   1.308  12.666
12613SOL    HW239673   9.000   1.398  12.749
12614SOL     OW39674   4.050   9.763   5.876
12614SOL    HW139675   4.020   9.789   5.789
12614SOL    HW239676   4.137   9.727   5.861
12615SOL     OW39677   2.965   7.947   4.719
12615SOL    HW139678   2.956   7.884   4.791
12615SOL    HW239679   3.056   7.975   4.724
12616SOL     OW39680  11.188   6.382  14.502
12616SOL    HW139681  11.092   6.375  14.495
12616SOL    HW239682  11.215   6.425  14.422
12617SOL     OW39683   8.156   0.706   2.676
12617SOL    HW139684   8.095   0.646   2.717
12617SOL    HW239685   8.229   0.713   2.738
12618SOL     OW39686   1.435   5.257   1.903
12618SOL    HW139687   1.486   5.330   1.938
12618SOL    HW239688   1.394   5.292   1.824
12619SOL     OW39689   3.287   6.937   3.336
12619SOL    HW139690   3.265   6.919   3.244
12619SOL    HW239691   3.208   6.917   3.385
12620SOL     OW39692   6.388   8.784   9.227
12620SOL    HW139693   6.476   8.796   9.192
12620SOL    HW239694   6.339   8.859   9.194
12621SOL     OW39695   8.909   4.750   5.111
12621SOL    HW139696   8.846   4.711   5.170
12621SOL    HW239697   8.860   4.767   5.030
12622SOL     OW39698  13.922   6.347   9.387
12622SOL    HW139699  13.902   6.401   9.463
12622SOL    HW239700  13.848   6.360   9.327
12623SOL     OW39701   2.174   5.070   9.069
12623SOL    HW139702   2.252   5.037   9.024
12623SOL    HW239703   2.146   4.997   9.124
12624SOL     OW39704   0.899   5.958  14.404
12624SOL    HW139705   0.973   5.970  14.346
12624SOL    HW239706   0.822   5.982  14.352
12625SOL     OW39707  10.049   4.192   8.047
12625SOL    HW139708  10.117   4.165   8.110
12625SOL    HW239709   9.972   4.208   8.101
12626SOL     OW39710   2.927  11.646   1.091
12626SOL    HW139711   3.018  11.668   1.071
12626SOL    HW239712   2.875  11.706   1.036
12627SOL     OW39713  11.427   9.300   3.727
12627SOL    HW139714  11.422   9.235   3.657
12627SOL    HW239715  11.339   9.337   3.731
12628SOL     OW39716  13.153   7.246  10.179
12628SOL    HW139717  13.205   7.195  10.117
12628SOL    HW239718  13.198   7.234  10.263
12629SOL     OW39719   8.065   8.725   1.507
12629SOL    HW139720   8.151   8.763   1.529
12629SOL    HW239721   8.086   8.644   1.461
12630SOL     OW39722   9.674   3.118   2.103
12630SOL    HW139723   9.579   3.121   2.091
12630SOL    HW239724   9.702   3.038   2.059
12631SOL     OW39725  11.575  14.104  10.902
12631SOL    HW139726  11.635  14.030  10.914
12631SOL    HW239727  11.506  14.089  10.968
12632SOL     OW39728   6.023   4.617   6.837
12632SOL    HW139729   6.081   4.612   6.761
12632SOL    HW239730   5.965   4.691   6.819
12633SOL     OW39731   3.426   8.727  10.639
12633SOL    HW139732   3.422   8.757  10.548
12633SOL    HW239733   3.407   8.633  10.634
12634SOL     OW39734   2.453   7.848   0.557
12634SOL    HW139735   2.446   7.805   0.642
12634SOL    HW239736   2.388   7.918   0.560
12635SOL     OW39737   0.913   5.250  12.247
12635SOL    HW139738   0.980   5.273  12.312
12635SOL    HW239739   0.963   5.236  12.166
12636SOL     OW39740   2.586  12.638   1.194
12636SOL    HW139741   2.550  12.668   1.277
12636SOL    HW239742   2.512  12.600   1.147
12637SOL     OW39743  13.479  10.214   5.120
12637SOL    HW139744  13.506  10.156   5.049
12637SOL    HW239745  13.558  10.261   5.144
12638SOL     OW39746  13.075   6.251  11.344
12638SOL    HW139747  13.109   6.161  11.349
12638SOL    HW239748  12.998   6.244  11.288
12639SOL     OW39749  13.612   9.152  12.984
12639SOL    HW139750  13.549   9.220  13.005
12639SOL    HW239751  13.564   9.070  12.997
12640SOL     OW39752   2.734  12.756   8.671
12640SOL    HW139753   2.760  12.836   8.625
12640SOL    HW239754   2.644  12.771   8.697
12641SOL     OW39755   8.714   8.400   1.782
12641SOL    HW139756   8.744   8.441   1.863
12641SOL    HW239757   8.659   8.327   1.811
12642SOL     OW39758  10.547   3.445  12.056
12642SOL    HW139759  10.521   3.437  12.147
12642SOL    HW239760  10.484   3.507  12.018
12643SOL     OW39761   6.521   0.390   5.379
12643SOL    HW139762   6.573   0.465   5.407
12643SOL    HW239763   6.585   0.324   5.353
12644SOL     OW39764  12.743   6.643  10.127
12644SOL    HW139765  12.767   6.591  10.050
12644SOL    HW239766  12.667   6.597  10.163
12645SOL     OW39767   0.804   8.961   0.012
12645SOL    HW139768   0.789   9.049   0.045
12645SOL    HW239769   0.873   8.926   0.069
12646SOL     OW39770  14.455  12.058   9.096
12646SOL    HW139771  14.403  11.981   9.071
12646SOL    HW239772  14.443  12.065   9.191
12647SOL     OW39773   8.751   9.787   7.141
12647SOL    HW139774   8.713   9.807   7.226
12647SOL    HW239775   8.795   9.868   7.114
12648SOL     OW39776   1.000   7.316   0.859
12648SOL    HW139777   1.075   7.257   0.860
12648SOL    HW239778   1.038   7.403   0.867
12649SOL     OW39779   5.514   1.268   3.984
12649SOL    HW139780   5.553   1.221   3.910
12649SOL    HW239781   5.496   1.201   4.049
12650SOL     OW39782  11.233   3.639   0.602
12650SOL    HW139783  11.250   3.658   0.695
12650SOL    HW239784  11.211   3.546   0.601
12651SOL     OW39785  10.117   3.968  14.785
12651SOL    HW139786  10.185   3.906  14.812
12651SOL    HW239787  10.103   4.023  14.861
12652SOL     OW39788   6.639   6.077  14.475
12652SOL    HW139789   6.615   5.984  14.473
12652SOL    HW239790   6.555   6.123  14.472
12653SOL     OW39791   5.674   7.537   3.974
12653SOL    HW139792   5.627   7.463   3.935
12653SOL    HW239793   5.610   7.577   4.033
12654SOL     OW39794   7.240  11.960   7.867
12654SOL    HW139795   7.236  12.056   7.862
12654SOL    HW239796   7.157  11.934   7.907
12655SOL     OW39797  12.934  13.303   3.094
12655SOL    HW139798  12.888  13.309   3.178
12655SOL    HW239799  12.923  13.212   3.067
12656SOL     OW39800   7.308   7.167   8.139
12656SOL    HW139801   7.230   7.112   8.131
12656SOL    HW239802   7.376   7.106   8.168
12657SOL     OW39803   2.571   7.757   4.780
12657SOL    HW139804   2.576   7.670   4.821
12657SOL    HW239805   2.613   7.745   4.694
12658SOL     OW39806   9.457   6.617   3.883
12658SOL    HW139807   9.426   6.689   3.827
12658SOL    HW239808   9.380   6.591   3.933
12659SOL     OW39809   8.580   5.098   4.205
12659SOL    HW139810   8.641   5.084   4.132
12659SOL    HW239811   8.612   5.041   4.275
12660SOL     OW39812   7.485   0.228   2.794
12660SOL    HW139813   7.451   0.212   2.706
12660SOL    HW239814   7.519   0.144   2.823
12661SOL     OW39815  11.787  14.646  11.830
12661SOL    HW139816  11.697  14.653  11.797
12661SOL    HW239817  11.796  14.720  11.890
12662SOL     OW39818   6.376  12.081  11.338
12662SOL    HW139819   6.370  12.172  11.309
12662SOL    HW239820   6.327  12.031  11.272
12663SOL     OW39821   1.063   5.226   1.160
12663SOL    HW139822   1.126   5.282   1.113
12663SOL    HW239823   0.999   5.201   1.094
12664SOL     OW39824   6.752   4.369   5.845
12664SOL    HW139825   6.726   4.461   5.853
12664SOL    HW239826   6.706   4.337   5.767
12665SOL     OW39827  11.399   4.409   7.631
12665SOL    HW139828  11.455   4.356   7.575
12665SOL    HW239829  11.315   4.364   7.630
12666SOL     OW39830   6.068   1.466   1.370
12666SOL    HW139831   6.044   1.387   1.419
12666SOL    HW239832   6.136   1.436   1.310
12667SOL     OW39833   8.971  11.256   6.511
12667SOL    HW139834   8.937  11.187   6.567
12667SOL    HW239835   9.064  11.235   6.502
12668SOL     OW39836   1.500   2.259  14.328
12668SOL    HW139837   1.543   2.261  14.243
12668SOL    HW239838   1.557   2.312  14.385
12669SOL     OW39839   4.442   2.628  12.999
12669SOL    HW139840   4.453   2.552  12.942
12669SOL    HW239841   4.487   2.699  12.954
12670SOL     OW39842  13.433   2.054  12.689
12670SOL    HW139843  13.455   1.969  12.651
12670SOL    HW239844  13.506   2.111  12.664
12671SOL     OW39845   3.187   9.739   6.042
12671SOL    HW139846   3.184   9.644   6.030
12671SOL    HW239847   3.131   9.756   6.118
12672SOL     OW39848  14.150   6.006  11.832
12672SOL    HW139849  14.211   6.064  11.787
12672SOL    HW239850  14.191   5.919  11.825
12673SOL     OW39851   7.739   9.461  11.208
12673SOL    HW139852   7.758   9.506  11.290
12673SOL    HW239853   7.789   9.379  11.214
12674SOL     OW39854  13.323  13.389  14.111
12674SOL    HW139855  13.326  13.479  14.076
12674SOL    HW239856  13.388  13.342  14.060
12675SOL     OW39857  13.652   3.400   7.203
12675SOL    HW139858  13.558   3.416   7.194
12675SOL    HW239859  13.693   3.465   7.146
12676SOL     OW39860   9.591   9.129   8.533
12676SOL    HW139861   9.554   9.208   8.493
12676SOL    HW239862   9.626   9.159   8.617
12677SOL     OW39863   6.135  10.440   3.236
12677SOL    HW139864   6.177  10.513   3.282
12677SOL    HW239865   6.092  10.481   3.161
12678SOL     OW39866   9.771  11.515   9.414
12678SOL    HW139867   9.865  11.522   9.403
12678SOL    HW239868   9.734  11.544   9.331
12679SOL     OW39869   2.532  11.720  10.935
12679SOL    HW139870   2.575  11.806  10.943
12679SOL    HW239871   2.439  11.738  10.948
12680SOL     OW39872  13.301   0.192   7.066
12680SOL    HW139873  13.382   0.235   7.093
12680SOL    HW239874  13.329   0.107   7.032
12681SOL     OW39875   8.167   2.046   6.709
12681SOL    HW139876   8.219   2.124   6.725
12681SOL    HW239877   8.092   2.054   6.768
12682SOL     OW39878   7.112   0.340   1.997
12682SOL    HW139879   7.052   0.352   2.071
12682SOL    HW239880   7.086   0.256   1.958
12683SOL     OW39881   2.508  10.130   1.349
12683SOL    HW139882   2.440  10.117   1.415
12683SOL    HW239883   2.484  10.072   1.277
12684SOL     OW39884  13.913   9.978   9.498
12684SOL    HW139885  13.981   9.988   9.431
12684SOL    HW239886  13.909  10.063   9.541
12685SOL     OW39887  12.959   0.504   1.762
12685SOL    HW139888  13.043   0.549   1.752
12685SOL    HW239889  12.968   0.455   1.844
12686SOL     OW39890   1.874   2.230  13.915
12686SOL    HW139891   1.915   2.292  13.856
12686SOL    HW239892   1.944   2.170  13.941
12687SOL     OW39893   2.897   8.873   9.663
12687SOL    HW139894   2.967   8.919   9.618
12687SOL    HW239895   2.829   8.939   9.675
12688SOL     OW39896   3.379   2.063   6.531
12688SOL    HW139897   3.459   2.030   6.570
12688SOL    HW239898   3.308   2.020   6.580
12689SOL     OW39899  10.662  13.192  11.842
12689SOL    HW139900  10.630  13.111  11.802
12689SOL    HW239901  10.583  13.245  11.854
12690SOL     OW39902   2.432   8.395   8.949
12690SOL    HW139903   2.525   8.399   8.930
12690SOL    HW239904   2.409   8.484   8.975
12691SOL     OW39905   4.777   4.398   8.015
12691SOL    HW139906   4.741   4.480   7.979
12691SOL    HW239907   4.807   4.422   8.103
12692SOL     OW39908   9.437   8.107   0.478
12692SOL    HW139909   9.443   8.030   0.421
12692SOL    HW239910   9.440   8.181   0.418
12693SOL     OW39911   6.075   5.660   6.206
12693SOL    HW139912   6.005   5.725   6.220
12693SOL    HW239913   6.078   5.650   6.110
12694SOL     OW39914   7.272  14.093  12.753
12694SOL    HW139915   7.291  14.009  12.797
12694SOL    HW239916   7.254  14.069  12.662
12695SOL     OW39917   0.454   3.276  11.543
12695SOL    HW139918   0.477   3.295  11.634
12695SOL    HW239919   0.358   3.281  11.541
12696SOL     OW39920   6.757   1.464   1.944
12696SOL    HW139921   6.726   1.548   1.977
12696SOL    HW239922   6.778   1.413   2.022
12697SOL     OW39923  10.264   8.804   5.428
12697SOL    HW139924  10.187   8.748   5.424
12697SOL    HW239925  10.238   8.875   5.487
12698SOL     OW39926  10.813   7.131   6.646
12698SOL    HW139927  10.866   7.206   6.619
12698SOL    HW239928  10.775   7.098   6.564
12699SOL     OW39929   4.250   6.880   9.996
12699SOL    HW139930   4.274   6.877  10.089
12699SOL    HW239931   4.312   6.819   9.954
12700SOL     OW39932  14.782  13.258   9.670
12700SOL    HW139933  14.766  13.319   9.598
12700SOL    HW239934  14.697  13.215   9.684
12701SOL     OW39935   1.054  13.541   7.481
12701SOL    HW139936   1.024  13.461   7.439
12701SOL    HW239937   0.976  13.576   7.524
12702SOL     OW39938   2.996   0.895   1.181
12702SOL    HW139939   2.966   0.904   1.090
12702SOL    HW239940   2.927   0.843   1.223
12703SOL     OW39941   3.897   2.687   7.944
12703SOL    HW139942   3.924   2.607   7.900
12703SOL    HW239943   3.975   2.742   7.945
12704SOL     OW39944  13.233  13.286   7.787
12704SOL    HW139945  13.295  13.255   7.852
12704SOL    HW239946  13.261  13.375   7.768
12705SOL     OW39947  13.049  13.276   2.027
12705SOL    HW139948  13.006  13.193   2.046
12705SOL    HW239949  13.120  13.252   1.967
12706SOL     OW39950  12.060  13.867   6.002
12706SOL    HW139951  11.982  13.915   5.975
12706SOL    HW239952  12.133  13.913   5.961
12707SOL     OW39953   1.172   4.266   1.474
12707SOL    HW139954   1.163   4.334   1.407
12707SOL    HW239955   1.254   4.222   1.451
12708SOL     OW39956   5.119  12.743  12.846
12708SOL    HW139957   5.105  12.732  12.940
12708SOL    HW239958   5.157  12.660  12.817
12709SOL     OW39959   8.208   2.173   1.063
12709SOL    HW139960   8.128   2.121   1.057
12709SOL    HW239961   8.258   2.132   1.134
12710SOL     OW39962   9.544  13.155   3.252
12710SOL    HW139963   9.501  13.072   3.232
12710SOL    HW239964   9.515  13.175   3.341
12711SOL     OW39965   6.221   0.234   3.046
12711SOL    HW139966   6.204   0.328   3.055
12711SOL    HW239967   6.300   0.218   3.097
12712SOL     OW39968  13.679  11.546  11.134
12712SOL    HW139969  13.649  11.456  11.139
12712SOL    HW239970  13.599  11.597  11.123
12713SOL     OW39971  10.409   5.891   1.308
12713SOL    HW139972  10.342   5.866   1.372
12713SOL    HW239973  10.361   5.899   1.225
12714SOL     OW39974   8.170   7.562  14.680
12714SOL    HW139975   8.106   7.491  14.692
12714SOL    HW239976   8.229   7.554  14.756
12715SOL     OW39977   6.731  11.126   2.277
12715SOL    HW139978   6.724  11.065   2.204
12715SOL    HW239979   6.763  11.207   2.238
12716SOL     OW39980  13.675   0.888  10.703
12716SOL    HW139981  13.678   0.862  10.795
12716SOL    HW239982  13.741   0.958  10.696
12717SOL     OW39983   8.764   0.636   3.485
12717SOL    HW139984   8.792   0.715   3.439
12717SOL    HW239985   8.780   0.565   3.422
12718SOL     OW39986   9.273  14.641   4.324
12718SOL    HW139987   9.365  14.659   4.306
12718SOL    HW239988   9.237  14.612   4.241
12719SOL     OW39989   9.748   9.559   1.771
12719SOL    HW139990   9.688   9.486   1.753
12719SOL    HW239991   9.763   9.599   1.686
12720SOL     OW39992  14.603   9.480   4.346
12720SOL    HW139993  14.644   9.556   4.304
12720SOL    HW239994  14.614   9.409   4.282
12721SOL     OW39995  11.252   8.796   6.706
12721SOL    HW139996  11.304   8.863   6.752
12721SOL    HW239997  11.285   8.798   6.617
12722SOL     OW39998   1.506   1.927   4.070
12722SOL    HW139999   1.456   1.901   3.993
12722SOL    HW240000   1.575   1.861   4.077
12723SOL     OW40001  12.480   1.988   6.378
12723SOL    HW140002  12.462   1.985   6.284
12723SOL    HW240003  12.575   1.990   6.384
12724SOL     OW40004   3.843  14.203   0.186
12724SOL    HW140005   3.917  14.148   0.161
12724SOL    HW240006   3.884  14.286   0.214
12725SOL     OW40007   3.186  13.976   3.178
12725SOL    HW140008   3.184  14.045   3.111
12725SOL    HW240009   3.241  13.907   3.140
12726SOL     OW40010   0.193  10.198  13.368
12726SOL    HW140011   0.223  10.111  13.395
12726SOL    HW240012   0.108  10.183  13.328
12727SOL     OW40013   3.257  11.768   4.550
12727SOL    HW140014   3.222  11.851   4.519
12727SOL    HW240015   3.279  11.719   4.470
12728SOL     OW40016  13.735  14.305  11.035
12728SOL    HW140017  13.653  14.268  11.068
12728SOL    HW240018  13.802  14.240  11.058
12729SOL     OW40019   6.916   5.609  14.432
12729SOL    HW140020   6.971   5.679  14.467
12729SOL    HW240021   6.884   5.644  14.349
12730SOL     OW40022   7.232   0.756   6.218
12730SOL    HW140023   7.222   0.732   6.126
12730SOL    HW240024   7.194   0.844   6.225
12731SOL     OW40025   3.293   5.998  11.239
12731SOL    HW140026   3.253   6.072  11.283
12731SOL    HW240027   3.380   6.029  11.214
12732SOL     OW40028   9.326   6.173   6.803
12732SOL    HW140029   9.326   6.222   6.886
12732SOL    HW240030   9.320   6.241   6.736
12733SOL     OW40031   8.330  11.389  10.105
12733SOL    HW140032   8.361  11.323  10.168
12733SOL    HW240033   8.281  11.338  10.040
12734SOL     OW40034   6.207   0.312   4.963
12734SOL    HW140035   6.180   0.221   4.945
12734SOL    HW240036   6.301   0.307   4.976
12735SOL     OW40037   5.180  12.327   7.368
12735SOL    HW140038   5.154  12.386   7.439
12735SOL    HW240039   5.097  12.294   7.333
12736SOL     OW40040  12.743   0.368   4.126
12736SOL    HW140041  12.763   0.280   4.157
12736SOL    HW240042  12.665   0.358   4.072
12737SOL     OW40043   4.690   6.454  10.030
12737SOL    HW140044   4.599   6.482  10.036
12737SOL    HW240045   4.739   6.535  10.017
12738SOL     OW40046   6.031   3.824   9.131
12738SOL    HW140047   5.976   3.885   9.080
12738SOL    HW240048   6.102   3.879   9.164
12739SOL     OW40049   3.445  13.530   6.750
12739SOL    HW140050   3.369  13.555   6.698
12739SOL    HW240051   3.509  13.599   6.735
12740SOL     OW40052   0.417   7.517  13.276
12740SOL    HW140053   0.466   7.599  13.283
12740SOL    HW240054   0.432   7.488  13.185
12741SOL     OW40055  14.051   9.999   7.277
12741SOL    HW140056  14.052   9.987   7.372
12741SOL    HW240057  14.073  10.091   7.265
12742SOL     OW40058   9.754  13.068   4.434
12742SOL    HW140059   9.726  13.119   4.510
12742SOL    HW240060   9.754  12.977   4.464
12743SOL     OW40061   6.119   6.766   8.588
12743SOL    HW140062   6.150   6.822   8.517
12743SOL    HW240063   6.115   6.823   8.664
12744SOL     OW40064   6.238   9.067   1.602
12744SOL    HW140065   6.325   9.105   1.588
12744SOL    HW240066   6.181   9.113   1.541
12745SOL     OW40067  10.485  13.846   5.598
12745SOL    HW140068  10.465  13.759   5.564
12745SOL    HW240069  10.413  13.865   5.658
12746SOL     OW40070   3.745   0.298   9.104
12746SOL    HW140071   3.788   0.269   9.184
12746SOL    HW240072   3.662   0.336   9.133
12747SOL     OW40073  11.668  12.784   1.340
12747SOL    HW140074  11.642  12.781   1.432
12747SOL    HW240075  11.728  12.710   1.330
12748SOL     OW40076  13.125   8.075  12.747
12748SOL    HW140077  13.106   8.109  12.660
12748SOL    HW240078  13.043   8.085  12.795
12749SOL     OW40079   2.434   9.247   2.671
12749SOL    HW140080   2.444   9.152   2.665
12749SOL    HW240081   2.355   9.260   2.725
12750SOL     OW40082   3.176  13.564   4.457
12750SOL    HW140083   3.107  13.570   4.524
12750SOL    HW240084   3.233  13.493   4.486
12751SOL     OW40085   5.395   8.892   4.084
12751SOL    HW140086   5.469   8.832   4.079
12751SOL    HW240087   5.320   8.836   4.103
12752SOL     OW40088   0.980  11.006  11.649
12752SOL    HW140089   1.074  11.005  11.671
12752SOL    HW240090   0.974  11.067  11.575
12753SOL     OW40091   0.907   5.948   0.398
12753SOL    HW140092   0.975   5.896   0.442
12753SOL    HW240093   0.906   6.031   0.446
12754SOL     OW40094   2.684  10.564   3.252
12754SOL    HW140095   2.780  10.565   3.248
12754SOL    HW240096   2.660  10.657   3.254
12755SOL     OW40097  14.449   1.198   3.271
12755SOL    HW140098  14.456   1.119   3.217
12755SOL    HW240099  14.506   1.180   3.346
12756SOL     OW40100   0.303  11.398   3.144
12756SOL    HW140101   0.229  11.368   3.091
12756SOL    HW240102   0.263  11.440   3.219
12757SOL     OW40103   0.817  13.141   0.867
12757SOL    HW140104   0.749  13.141   0.800
12757SOL    HW240105   0.895  13.172   0.821
12758SOL     OW40106   8.411   7.789  12.038
12758SOL    HW140107   8.381   7.876  12.012
12758SOL    HW240108   8.333   7.746  12.071
12759SOL     OW40109   7.841  13.439   2.813
12759SOL    HW140110   7.785  13.413   2.740
12759SOL    HW240111   7.782  13.446   2.888
12760SOL     OW40112   1.959   4.379  11.457
12760SOL    HW140113   1.885   4.398  11.398
12760SOL    HW240114   1.955   4.449  11.523
12761SOL     OW40115   7.080   6.506   9.378
12761SOL    HW140116   7.170   6.540   9.378
12761SOL    HW240117   7.039   6.548   9.302
12762SOL     OW40118  10.680   7.262  14.093
12762SOL    HW140119  10.657   7.205  14.019
12762SOL    HW240120  10.596   7.284  14.133
12763SOL     OW40121  11.092   2.513  13.323
12763SOL    HW140122  11.109   2.599  13.284
12763SOL    HW240123  11.170   2.496  13.377
12764SOL     OW40124  14.667   5.033   5.863
12764SOL    HW140125  14.694   5.094   5.931
12764SOL    HW240126  14.749   5.004   5.822
12765SOL     OW40127   3.922   9.487   4.450
12765SOL    HW140128   3.942   9.568   4.497
12765SOL    HW240129   3.898   9.425   4.519
12766SOL     OW40130  14.005   7.344   5.835
12766SOL    HW140131  14.014   7.419   5.894
12766SOL    HW240132  13.952   7.281   5.884
12767SOL     OW40133   9.192   8.941  10.986
12767SOL    HW140134   9.112   8.946  11.038
12767SOL    HW240135   9.233   8.859  11.010
12768SOL     OW40136   0.895   1.770  10.515
12768SOL    HW140137   0.965   1.787  10.452
12768SOL    HW240138   0.929   1.804  10.598
12769SOL     OW40139  10.786   9.661   4.026
12769SOL    HW140140  10.755   9.590   3.971
12769SOL    HW240141  10.708   9.714   4.043
12770SOL     OW40142   0.555   7.747  13.213
12770SOL    HW140143   0.548   7.838  13.244
12770SOL    HW240144   0.615   7.752  13.139
12771SOL     OW40145   5.267   1.994   7.244
12771SOL    HW140146   5.330   2.036   7.186
12771SOL    HW240147   5.241   2.062   7.306
12772SOL     OW40148   5.460  13.375   7.526
12772SOL    HW140149   5.431  13.446   7.583
12772SOL    HW240150   5.556  13.380   7.528
12773SOL     OW40151   8.685  13.266   2.141
12773SOL    HW140152   8.773  13.302   2.153
12773SOL    HW240153   8.643  13.274   2.227
12774SOL     OW40154   0.627   8.717  10.058
12774SOL    HW140155   0.675   8.759  10.129
12774SOL    HW240156   0.629   8.624  10.080
12775SOL     OW40157   5.013   4.608   2.736
12775SOL    HW140158   5.026   4.602   2.641
12775SOL    HW240159   4.955   4.683   2.748
12776SOL     OW40160   3.931   9.693  14.571
12776SOL    HW140161   3.992   9.675  14.500
12776SOL    HW240162   3.975   9.760  14.624
12777SOL     OW40163   6.145  13.153   3.106
12777SOL    HW140164   6.236  13.174   3.086
12777SOL    HW240165   6.099  13.237   3.100
12778SOL     OW40166  12.267   5.862  10.441
12778SOL    HW140167  12.206   5.791  10.420
12778SOL    HW240168  12.327   5.824  10.504
12779SOL     OW40169  11.604   6.125  13.974
12779SOL    HW140170  11.571   6.165  14.054
12779SOL    HW240171  11.614   6.198  13.912
12780SOL     OW40172   9.136   5.946   5.396
12780SOL    HW140173   9.118   6.038   5.379
12780SOL    HW240174   9.060   5.900   5.360
12781SOL     OW40175  12.153  14.079   6.770
12781SOL    HW140176  12.088  14.133   6.725
12781SOL    HW240177  12.224  14.140   6.791
12782SOL     OW40178   9.946   9.677  11.462
12782SOL    HW140179   9.997   9.726  11.527
12782SOL    HW240180   9.855   9.699  11.482
12783SOL     OW40181   6.771   6.289  10.317
12783SOL    HW140182   6.822   6.236  10.257
12783SOL    HW240183   6.831   6.307  10.390
12784SOL     OW40184  12.668   8.128  10.207
12784SOL    HW140185  12.749   8.179  10.213
12784SOL    HW240186  12.680   8.055  10.267
12785SOL     OW40187   8.360   6.656   8.590
12785SOL    HW140188   8.426   6.719   8.619
12785SOL    HW240189   8.365   6.585   8.654
12786SOL     OW40190   3.058   3.016   3.017
12786SOL    HW140191   2.967   3.004   3.043
12786SOL    HW240192   3.053   3.067   2.936
12787SOL     OW40193   4.197  13.346   6.595
12787SOL    HW140194   4.174  13.406   6.524
12787SOL    HW240195   4.163  13.389   6.674
12788SOL     OW40196   9.893  14.256  11.073
12788SOL    HW140197   9.904  14.339  11.120
12788SOL    HW240198   9.918  14.189  11.137
12789SOL     OW40199   5.849  10.106   0.202
12789SOL    HW140200   5.809  10.058   0.275
12789SOL    HW240201   5.893  10.039   0.150
12790SOL     OW40202   3.278  13.557   8.945
12790SOL    HW140203   3.305  13.587   8.858
12790SOL    HW240204   3.341  13.489   8.967
12791SOL     OW40205  14.504  13.151  14.251
12791SOL    HW140206  14.515  13.087  14.181
12791SOL    HW240207  14.545  13.231  14.218
12792SOL     OW40208   3.341  14.435  13.831
12792SOL    HW140209   3.354  14.351  13.874
12792SOL    HW240210   3.263  14.424  13.778
12793SOL     OW40211  14.599   0.932   4.687
12793SOL    HW140212  14.549   0.902   4.612
12793SOL    HW240213  14.646   0.854   4.717
12794SOL     OW40214  12.137   4.783   6.668
12794SOL    HW140215  12.059   4.817   6.711
12794SOL    HW240216  12.190   4.860   6.649
12795SOL     OW40217  12.340   7.956   0.289
12795SOL    HW140218  12.296   7.944   0.204
12795SOL    HW240219  12.379   7.871   0.307
12796SOL     OW40220  11.132   7.930   5.235
12796SOL    HW140221  11.059   7.992   5.232
12796SOL    HW240222  11.091   7.844   5.226
12797SOL     OW40223   8.902   1.104  10.500
12797SOL    HW140224   8.867   1.093  10.412
12797SOL    HW240225   8.825   1.102  10.557
12798SOL     OW40226  11.658   5.022  10.575
12798SOL    HW140227  11.626   4.932  10.562
12798SOL    HW240228  11.746   5.011  10.610
12799SOL     OW40229  10.606   8.310  11.032
12799SOL    HW140230  10.543   8.362  11.083
12799SOL    HW240231  10.581   8.324  10.941
12800SOL     OW40232   1.158   4.605   6.437
12800SOL    HW140233   1.176   4.637   6.349
12800SOL    HW240234   1.132   4.514   6.424
12801SOL     OW40235   6.499  11.874   3.953
12801SOL    HW140236   6.542  11.814   4.014
12801SOL    HW240237   6.561  11.884   3.881
12802SOL     OW40238  12.567  11.438   4.463
12802SOL    HW140239  12.616  11.520   4.450
12802SOL    HW240240  12.476  11.466   4.469
12803SOL     OW40241   5.717   1.911   1.498
12803SOL    HW140242   5.707   1.818   1.518
12803SOL    HW240243   5.677   1.956   1.573
12804SOL     OW40244  13.560   4.807   9.112
12804SOL    HW140245  13.467   4.830   9.106
12804SOL    HW240246  13.562   4.712   9.095
12805SOL     OW40247   3.995   3.562  13.545
12805SOL    HW140248   4.075   3.613  13.538
12805SOL    HW240249   4.011   3.484  13.492
12806SOL     OW40250  12.971   6.921   4.209
12806SOL    HW140251  12.966   7.009   4.172
12806SOL    HW240252  12.910   6.869   4.155
12807SOL     OW40253  10.928   0.467   0.733
12807SOL    HW140254  10.951   0.409   0.660
12807SOL    HW240255  10.927   0.410   0.809
12808SOL     OW40256  14.404   5.830   4.042
12808SOL    HW140257  14.389   5.812   4.135
12808SOL    HW240258  14.379   5.921   4.031
12809SOL     OW40259   5.636   0.952  14.727
12809SOL    HW140260   5.571   0.939  14.658
12809SOL    HW240261   5.701   0.883  14.712
12810SOL     OW40262   7.092  10.779  14.606
12810SOL    HW140263   7.095  10.721  14.682
12810SOL    HW240264   7.144  10.855  14.632
12811SOL     OW40265   4.490   8.606   7.083
12811SOL    HW140266   4.512   8.648   7.166
12811SOL    HW240267   4.397   8.623   7.072
12812SOL     OW40268   6.902   5.802  12.936
12812SOL    HW140269   6.981   5.752  12.956
12812SOL    HW240270   6.857   5.750  12.869
12813SOL     OW40271   4.297   2.028   6.349
12813SOL    HW140272   4.363   2.053   6.285
12813SOL    HW240273   4.290   2.103   6.408
12814SOL     OW40274   7.230   6.978   8.644
12814SOL    HW140275   7.165   7.047   8.655
12814SOL    HW240276   7.206   6.935   8.562
12815SOL     OW40277   4.506   7.246   9.489
12815SOL    HW140278   4.552   7.189   9.550
12815SOL    HW240279   4.547   7.229   9.404
12816SOL     OW40280   6.893  13.124   4.802
12816SOL    HW140281   6.802  13.101   4.823
12816SOL    HW240282   6.897  13.219   4.816
12817SOL     OW40283  14.378  10.683   7.632
12817SOL    HW140284  14.458  10.673   7.684
12817SOL    HW240285  14.354  10.775   7.643
12818SOL     OW40286  13.627   7.386   9.185
12818SOL    HW140287  13.584   7.369   9.269
12818SOL    HW240288  13.630   7.482   9.179
12819SOL     OW40289   7.673   5.247  11.881
12819SOL    HW140290   7.713   5.232  11.795
12819SOL    HW240291   7.711   5.330  11.911
12820SOL     OW40292   2.655   5.136   1.983
12820SOL    HW140293   2.609   5.074   2.040
12820SOL    HW240294   2.619   5.222   2.007
12821SOL     OW40295   2.785   1.241   1.517
12821SOL    HW140296   2.778   1.336   1.507
12821SOL    HW240297   2.698   1.214   1.548
12822SOL     OW40298   5.927   8.005   3.353
12822SOL    HW140299   6.018   8.027   3.337
12822SOL    HW240300   5.882   8.090   3.355
12823SOL     OW40301   1.964  11.477  12.305
12823SOL    HW140302   2.016  11.515  12.376
12823SOL    HW240303   1.984  11.384  12.308
12824SOL     OW40304   7.654  11.463  13.937
12824SOL    HW140305   7.711  11.455  13.861
12824SOL    HW240306   7.612  11.377  13.944
12825SOL     OW40307   7.545   4.385   1.601
12825SOL    HW140308   7.548   4.294   1.570
12825SOL    HW240309   7.611   4.430   1.549
12826SOL     OW40310   7.799   9.386   2.692
12826SOL    HW140311   7.757   9.308   2.728
12826SOL    HW240312   7.860   9.352   2.625
12827SOL     OW40313   0.112   4.451  14.446
12827SOL    HW140314   0.150   4.539  14.439
12827SOL    HW240315   0.152   4.402  14.375
12828SOL     OW40316   1.449   5.307  13.085
12828SOL    HW140317   1.459   5.355  13.167
12828SOL    HW240318   1.355   5.299  13.074
12829SOL     OW40319  14.171  14.228   3.260
12829SOL    HW140320  14.105  14.297   3.256
12829SOL    HW240321  14.233  14.250   3.190
12830SOL     OW40322   2.216   9.420  12.759
12830SOL    HW140323   2.124   9.404  12.779
12830SOL    HW240324   2.224   9.403  12.665
12831SOL     OW40325   2.592   7.619   9.465
12831SOL    HW140326   2.597   7.707   9.502
12831SOL    HW240327   2.579   7.562   9.540
12832SOL     OW40328  11.869   6.475  14.327
12832SOL    HW140329  11.886   6.563  14.295
12832SOL    HW240330  11.838   6.427  14.250
12833SOL     OW40331   4.600   5.663   6.383
12833SOL    HW140332   4.570   5.585   6.336
12833SOL    HW240333   4.687   5.639   6.416
12834SOL     OW40334   1.788  13.257  12.856
12834SOL    HW140335   1.719  13.319  12.880
12834SOL    HW240336   1.830  13.296  12.780
12835SOL     OW40337   4.232   1.681   7.667
12835SOL    HW140338   4.246   1.633   7.748
12835SOL    HW240339   4.203   1.615   7.604
12836SOL     OW40340   2.700   9.123   9.570
12836SOL    HW140341   2.758   9.078   9.509
12836SOL    HW240342   2.740   9.209   9.582
12837SOL     OW40343  11.647   0.315   7.489
12837SOL    HW140344  11.723   0.291   7.541
12837SOL    HW240345  11.681   0.323   7.400
12838SOL     OW40346  12.383   1.688   6.135
12838SOL    HW140347  12.359   1.634   6.211
12838SOL    HW240348  12.311   1.675   6.073
12839SOL     OW40349  13.400   3.692   3.068
12839SOL    HW140350  13.315   3.734   3.051
12839SOL    HW240351  13.453   3.715   2.992
12840SOL     OW40352  12.089  13.751  12.210
12840SOL    HW140353  12.027  13.690  12.249
12840SOL    HW240354  12.096  13.723  12.118
12841SOL     OW40355   9.877   9.247   4.877
12841SOL    HW140356   9.871   9.336   4.911
12841SOL    HW240357   9.792   9.231   4.836
12842SOL     OW40358   8.410   3.622   2.506
12842SOL    HW140359   8.457   3.673   2.573
12842SOL    HW240360   8.327   3.669   2.494
12843SOL     OW40361  11.149   4.797  11.039
12843SOL    HW140362  11.191   4.883  11.028
12843SOL    HW240363  11.106   4.781  10.955
12844SOL     OW40364  14.706   3.220   3.877
12844SOL    HW140365  14.759   3.286   3.831
12844SOL    HW240366  14.703   3.146   3.817
12845SOL     OW40367   9.261   9.980   9.189
12845SOL    HW140368   9.254  10.056   9.247
12845SOL    HW240369   9.330  10.004   9.127
12846SOL     OW40370   9.282  13.567  14.607
12846SOL    HW140371   9.186  13.567  14.612
12846SOL    HW240372   9.302  13.525  14.524
12847SOL     OW40373   8.761   7.370   8.075
12847SOL    HW140374   8.788   7.462   8.069
12847SOL    HW240375   8.826   7.323   8.023
12848SOL     OW40376   8.935  14.457  12.009
12848SOL    HW140377   8.950  14.518  11.937
12848SOL    HW240378   8.975  14.499  12.085
12849SOL     OW40379   1.586  12.970   6.558
12849SOL    HW140380   1.536  12.951   6.479
12849SOL    HW240381   1.520  12.979   6.627
12850SOL     OW40382   9.498  10.650   3.300
12850SOL    HW140383   9.514  10.565   3.260
12850SOL    HW240384   9.516  10.637   3.393
12851SOL     OW40385   1.111   8.340  12.839
12851SOL    HW140386   1.112   8.392  12.758
12851SOL    HW240387   1.138   8.253  12.812
12852SOL     OW40388  13.896   7.283  14.573
12852SOL    HW140389  13.945   7.216  14.525
12852SOL    HW240390  13.942   7.292  14.656
12853SOL     OW40391  12.641  13.462  13.417
12853SOL    HW140392  12.722  13.434  13.373
12853SOL    HW240393  12.601  13.524  13.356
12854SOL     OW40394   5.230   3.667   8.871
12854SOL    HW140395   5.184   3.699   8.793
12854SOL    HW240396   5.276   3.589   8.840
12855SOL     OW40397   0.908  10.633   6.459
12855SOL    HW140398   0.951  10.699   6.512
12855SOL    HW240399   0.883  10.679   6.379
12856SOL     OW40400   8.863  12.008   2.347
12856SOL    HW140401   8.828  12.019   2.436
12856SOL    HW240402   8.940  11.953   2.359
12857SOL     OW40403   3.516  13.368   4.007
12857SOL    HW140404   3.485  13.415   4.084
12857SOL    HW240405   3.566  13.294   4.043
12858SOL     OW40406   6.870   9.253  13.804
12858SOL    HW140407   6.850   9.247  13.710
12858SOL    HW240408   6.802   9.202  13.846
12859SOL     OW40409   6.447   1.185   4.688
12859SOL    HW140410   6.466   1.093   4.666
12859SOL    HW240411   6.375   1.209   4.629
12860SOL     OW40412   1.606   9.307   3.708
12860SOL    HW140413   1.641   9.222   3.735
12860SOL    HW240414   1.650   9.325   3.625
12861SOL     OW40415   4.322  10.034   9.502
12861SOL    HW140416   4.369   9.998   9.577
12861SOL    HW240417   4.245  10.077   9.540
12862SOL     OW40418  14.352   1.562   5.526
12862SOL    HW140419  14.433   1.511   5.536
12862SOL    HW240420  14.368   1.643   5.574
12863SOL     OW40421   3.941  12.507   0.681
12863SOL    HW140422   4.006  12.560   0.635
12863SOL    HW240423   3.868  12.567   0.697
12864SOL     OW40424   2.696   2.441  12.016
12864SOL    HW140425   2.621   2.473  12.065
12864SOL    HW240426   2.771   2.486  12.056
12865SOL     OW40427  14.518   9.159  12.389
12865SOL    HW140428  14.612   9.167  12.406
12865SOL    HW240429  14.488   9.094  12.452
12866SOL     OW40430  14.602   4.992   6.668
12866SOL    HW140431  14.591   4.908   6.713
12866SOL    HW240432  14.697   5.003   6.661
12867SOL     OW40433   7.253   8.728   2.754
12867SOL    HW140434   7.210   8.749   2.837
12867SOL    HW240435   7.185   8.685   2.702
12868SOL     OW40436  12.204  12.133   7.006
12868SOL    HW140437  12.138  12.189   6.964
12868SOL    HW240438  12.159  12.096   7.082
12869SOL     OW40439   5.746   6.787  13.333
12869SOL    HW140440   5.832   6.783  13.291
12869SOL    HW240441   5.745   6.711  13.391
12870SOL     OW40442  13.105   9.882  13.539
12870SOL    HW140443  13.194   9.912  13.558
12870SOL    HW240444  13.058   9.961  13.511
12871SOL     OW40445   1.430   4.393  11.304
12871SOL    HW140446   1.346   4.392  11.349
12871SOL    HW240447   1.462   4.303  11.311
12872SOL     OW40448   0.422   1.610   0.072
12872SOL    HW140449   0.462   1.529   0.040
12872SOL    HW240450   0.490   1.676   0.061
12873SOL     OW40451   1.341   0.041  10.550
12873SOL    HW140452   1.399  14.848  10.511
12873SOL    HW240453   1.359   0.037  10.644
12874SOL     OW40454  10.799   0.736  11.127
12874SOL    HW140455  10.782   0.642  11.123
12874SOL    HW240456  10.715   0.774  11.152
12875SOL     OW40457  13.107   6.445   2.773
12875SOL    HW140458  13.064   6.432   2.857
12875SOL    HW240459  13.036   6.448   2.709
12876SOL     OW40460   8.014   3.690   1.462
12876SOL    HW140461   8.029   3.722   1.551
12876SOL    HW240462   7.925   3.718   1.441
12877SOL     OW40463   4.825  14.313   9.437
12877SOL    HW140464   4.820  14.222   9.466
12877SOL    HW240465   4.745  14.326   9.386
12878SOL     OW40466  11.012   3.727   2.651
12878SOL    HW140467  11.020   3.662   2.720
12878SOL    HW240468  10.977   3.679   2.576
12879SOL     OW40469   9.690  14.379   5.204
12879SOL    HW140470   9.635  14.416   5.136
12879SOL    HW240471   9.639  14.306   5.240
12880SOL     OW40472  11.766   1.560   8.579
12880SOL    HW140473  11.715   1.512   8.514
12880SOL    HW240474  11.705   1.627   8.611
12881SOL     OW40475   2.692  13.152   7.792
12881SOL    HW140476   2.658  13.193   7.871
12881SOL    HW240477   2.718  13.225   7.736
12882SOL     OW40478  12.252   2.598   0.903
12882SOL    HW140479  12.282   2.524   0.956
12882SOL    HW240480  12.210   2.557   0.827
12883SOL     OW40481   8.645   4.403   0.468
12883SOL    HW140482   8.606   4.320   0.440
12883SOL    HW240483   8.731   4.379   0.501
12884SOL     OW40484   9.200   0.717   1.865
12884SOL    HW140485   9.195   0.804   1.904
12884SOL    HW240486   9.212   0.658   1.940
12885SOL     OW40487   7.917   2.697   9.419
12885SOL    HW140488   7.958   2.768   9.468
12885SOL    HW240489   7.990   2.647   9.384
12886SOL     OW40490  10.679   3.528  12.381
12886SOL    HW140491  10.662   3.617  12.351
12886SOL    HW240492  10.707   3.481  12.302
12887SOL     OW40493  14.311   1.306   1.002
12887SOL    HW140494  14.274   1.390   0.974
12887SOL    HW240495  14.342   1.265   0.922
12888SOL     OW40496  13.356  10.170  13.641
12888SOL    HW140497  13.373  10.077  13.625
12888SOL    HW240498  13.290  10.194  13.576
12889SOL     OW40499   8.842  10.946  11.408
12889SOL    HW140500   8.777  10.898  11.356
12889SOL    HW240501   8.844  10.900  11.493
12890SOL     OW40502   4.600   7.773   1.442
12890SOL    HW140503   4.685   7.742   1.471
12890SOL    HW240504   4.615   7.805   1.353
12891SOL     OW40505   8.062  10.608   1.150
12891SOL    HW140506   8.021  10.587   1.233
12891SOL    HW240507   8.040  10.534   1.093
12892SOL     OW40508   8.898   0.516   0.146
12892SOL    HW140509   8.983   0.497   0.105
12892SOL    HW240510   8.920   0.573   0.220
12893SOL     OW40511   4.063  14.839   6.200
12893SOL    HW140512   4.039   0.035   6.262
12893SOL    HW240513   4.101   0.013   6.125
12894SOL     OW40514   9.260   5.923  12.646
12894SOL    HW140515   9.334   5.892  12.699
12894SOL    HW240516   9.280   5.894  12.557
12895SOL     OW40517   9.635   4.681   0.936
12895SOL    HW140518   9.543   4.703   0.925
12895SOL    HW240519   9.674   4.695   0.850
12896SOL     OW40520  12.029   0.743   3.981
12896SOL    HW140521  11.935   0.741   3.966
12896SOL    HW240522  12.053   0.652   4.000
12897SOL     OW40523  13.647   7.524   2.219
12897SOL    HW140524  13.598   7.592   2.172
12897SOL    HW240525  13.582   7.457   2.239
12898SOL     OW40526   7.267   7.354   9.681
12898SOL    HW140527   7.208   7.280   9.691
12898SOL    HW240528   7.215   7.430   9.707
12899SOL     OW40529  11.058   3.718  12.272
12899SOL    HW140530  11.031   3.645  12.215
12899SOL    HW240531  11.016   3.794  12.233
12900SOL     OW40532   7.335   7.548   1.646
12900SOL    HW140533   7.274   7.487   1.605
12900SOL    HW240534   7.320   7.537   1.740
12901SOL     OW40535   9.384   1.994   6.319
12901SOL    HW140536   9.362   2.061   6.254
12901SOL    HW240537   9.473   2.017   6.348
12902SOL     OW40538  13.346   4.776   8.482
12902SOL    HW140539  13.272   4.716   8.471
12902SOL    HW240540  13.386   4.749   8.565
12903SOL     OW40541   2.417   1.862   5.041
12903SOL    HW140542   2.500   1.861   5.090
12903SOL    HW240543   2.353   1.828   5.102
12904SOL     OW40544  10.678  12.090  11.949
12904SOL    HW140545  10.600  12.126  11.992
12904SOL    HW240546  10.644  12.018  11.896
12905SOL     OW40547  10.571  14.745   7.472
12905SOL    HW140548  10.652  14.696   7.455
12905SOL    HW240549  10.537  14.707   7.553
12906SOL     OW40550  12.838  13.289  13.271
12906SOL    HW140551  12.911  13.268  13.213
12906SOL    HW240552  12.776  13.217  13.258
12907SOL     OW40553   7.326   0.960   8.245
12907SOL    HW140554   7.334   0.870   8.213
12907SOL    HW240555   7.312   1.013   8.166
12908SOL     OW40556  13.989   2.914   0.012
12908SOL    HW140557  14.007   2.994  14.835
12908SOL    HW240558  14.055   2.915   0.082
12909SOL     OW40559  13.265   4.903  10.876
12909SOL    HW140560  13.301   4.920  10.963
12909SOL    HW240561  13.235   4.813  10.879
12910SOL     OW40562  12.256   0.238   6.100
12910SOL    HW140563  12.175   0.191   6.080
12910SOL    HW240564  12.257   0.243   6.196
12911SOL     OW40565   7.101  10.941  10.354
12911SOL    HW140566   7.184  10.916  10.312
12911SOL    HW240567   7.044  10.966  10.281
12912SOL     OW40568   7.711   9.718  11.636
12912SOL    HW140569   7.667   9.764  11.565
12912SOL    HW240570   7.644   9.708  11.703
12913SOL     OW40571  11.620   5.646   1.168
12913SOL    HW140572  11.554   5.703   1.127
12913SOL    HW240573  11.625   5.677   1.258
12914SOL     OW40574  13.194  13.765   0.016
12914SOL    HW140575  13.274  13.726   0.051
12914SOL    HW240576  13.192  13.737  14.797
12915SOL     OW40577   3.618   9.661  12.408
12915SOL    HW140578   3.657   9.680  12.493
12915SOL    HW240579   3.626   9.566  12.398
12916SOL     OW40580  13.806  10.317   7.581
12916SOL    HW140581  13.747  10.277   7.644
12916SOL    HW240582  13.757  10.391   7.546
12917SOL     OW40583   3.708  10.968   9.457
12917SOL    HW140584   3.672  10.968   9.369
12917SOL    HW240585   3.769  10.894   9.458
12918SOL     OW40586  10.828  11.866  11.339
12918SOL    HW140587  10.915  11.884  11.303
12918SOL    HW240588  10.778  11.831  11.265
12919SOL     OW40589   4.057   8.585   4.446
12919SOL    HW140590   4.004   8.507   4.466
12919SOL    HW240591   4.136   8.550   4.404
12920SOL     OW40592  12.524   0.993   9.648
12920SOL    HW140593  12.554   1.071   9.695
12920SOL    HW240594  12.527   1.019   9.556
12921SOL     OW40595   9.064   8.681   2.113
12921SOL    HW140596   9.047   8.598   2.158
12921SOL    HW240597   9.034   8.666   2.023
12922SOL     OW40598   0.120   6.696   8.232
12922SOL    HW140599   0.110   6.785   8.267
12922SOL    HW240600   0.168   6.708   8.150
12923SOL     OW40601   8.833   6.649  14.085
12923SOL    HW140602   8.917   6.696  14.088
12923SOL    HW240603   8.789   6.684  14.007
12924SOL     OW40604   9.828  13.157   1.675
12924SOL    HW140605   9.827  13.251   1.657
12924SOL    HW240606   9.874  13.119   1.600
12925SOL     OW40607  13.386   3.361   4.614
12925SOL    HW140608  13.463   3.309   4.638
12925SOL    HW240609  13.418   3.420   4.545
12926SOL     OW40610   5.807   2.437   2.183
12926SOL    HW140611   5.865   2.380   2.233
12926SOL    HW240612   5.814   2.522   2.226
12927SOL     OW40613   5.310   7.464   4.630
12927SOL    HW140614   5.250   7.408   4.680
12927SOL    HW240615   5.329   7.537   4.689
12928SOL     OW40616   4.266   3.413   9.191
12928SOL    HW140617   4.262   3.353   9.117
12928SOL    HW240618   4.255   3.356   9.268
12929SOL     OW40619   5.600  11.845   5.994
12929SOL    HW140620   5.646  11.800   6.065
12929SOL    HW240621   5.670  11.885   5.942
12930SOL     OW40622  11.418  13.420   9.585
12930SOL    HW140623  11.361  13.496   9.572
12930SOL    HW240624  11.391  13.359   9.516
12931SOL     OW40625  14.709  10.997   9.026
12931SOL    HW140626  14.675  11.083   9.000
12931SOL    HW240627  14.635  10.953   9.068
12932SOL     OW40628   5.082  14.143  10.552
12932SOL    HW140629   5.130  14.226  10.549
12932SOL    HW240630   4.990  14.169  10.548
12933SOL     OW40631  12.771   8.002   3.649
12933SOL    HW140632  12.726   7.985   3.732
12933SOL    HW240633  12.703   8.038   3.592
12934SOL     OW40634   8.309   1.456   9.201
12934SOL    HW140635   8.275   1.458   9.291
12934SOL    HW240636   8.286   1.541   9.165
12935SOL     OW40637  14.787  10.083  11.540
12935SOL    HW140638  14.823  10.085  11.451
12935SOL    HW240639  14.842  10.144  11.589
12936SOL     OW40640  13.423   1.389   4.614
12936SOL    HW140641  13.488   1.436   4.667
12936SOL    HW240642  13.375   1.458   4.569
12937SOL     OW40643  12.517   6.983   8.048
12937SOL    HW140644  12.422   6.980   8.061
12937SOL    HW240645  12.528   7.030   7.965
12938SOL     OW40646   1.346   1.096   7.819
12938SOL    HW140647   1.405   1.074   7.747
12938SOL    HW240648   1.261   1.061   7.792
12939SOL     OW40649   6.048   5.454   8.334
12939SOL    HW140650   6.042   5.358   8.336
12939SOL    HW240651   6.105   5.472   8.259
12940SOL     OW40652   2.447  14.225  11.881
12940SOL    HW140653   2.516  14.266  11.830
12940SOL    HW240654   2.387  14.296  11.903
12941SOL     OW40655  12.954   6.561   8.497
12941SOL    HW140656  12.986   6.615   8.425
12941SOL    HW240657  12.888   6.614   8.540
12942SOL     OW40658  11.215   6.783  11.299
12942SOL    HW140659  11.215   6.688  11.307
12942SOL    HW240660  11.146   6.802  11.235
12943SOL     OW40661   9.827   4.186   8.238
12943SOL    HW140662   9.818   4.216   8.329
12943SOL    HW240663   9.799   4.095   8.241
12944SOL     OW40664   9.544   4.652   5.614
12944SOL    HW140665   9.474   4.587   5.615
12944SOL    HW240666   9.554   4.675   5.522
12945SOL     OW40667  14.641  10.642   6.000
12945SOL    HW140668  14.588  10.646   5.920
12945SOL    HW240669  14.719  10.593   5.975
12946SOL     OW40670   2.464   8.080   9.907
12946SOL    HW140671   2.522   8.150   9.937
12946SOL    HW240672   2.377   8.121   9.906
12947SOL     OW40673  11.885   2.267   3.215
12947SOL    HW140674  11.869   2.326   3.141
12947SOL    HW240675  11.981   2.260   3.219
12948SOL     OW40676  13.064  14.438  10.217
12948SOL    HW140677  12.986  14.446  10.271
12948SOL    HW240678  13.051  14.357  10.168
12949SOL     OW40679   2.023  10.381   2.368
12949SOL    HW140680   2.047  10.469   2.399
12949SOL    HW240681   2.085  10.363   2.297
12950SOL     OW40682  14.703   0.594   8.603
12950SOL    HW140683  14.688   0.657   8.674
12950SOL    HW240684  14.616   0.574   8.569
12951SOL     OW40685   7.320   0.617  11.651
12951SOL    HW140686   7.228   0.593  11.661
12951SOL    HW240687   7.327   0.705  11.688
12952SOL     OW40688   3.170   9.518   2.189
12952SOL    HW140689   3.077   9.501   2.169
12952SOL    HW240690   3.207   9.431   2.203
12953SOL     OW40691  13.728   1.217  11.326
12953SOL    HW140692  13.819   1.228  11.298
12953SOL    HW240693  13.731   1.145  11.390
12954SOL     OW40694  11.149  10.927   7.506
12954SOL    HW140695  11.128  10.943   7.598
12954SOL    HW240696  11.177  10.835   7.504
12955SOL     OW40697   5.818   0.643   2.911
12955SOL    HW140698   5.833   0.550   2.894
12955SOL    HW240699   5.728   0.646   2.944
12956SOL     OW40700   2.631   9.889  12.924
12956SOL    HW140701   2.572   9.902  12.999
12956SOL    HW240702   2.573   9.892  12.848
12957SOL     OW40703  14.521   6.361  12.915
12957SOL    HW140704  14.461   6.434  12.929
12957SOL    HW240705  14.538   6.327  13.002
12958SOL     OW40706  13.615  13.415   3.474
12958SOL    HW140707  13.677  13.477   3.436
12958SOL    HW240708  13.577  13.370   3.399
12959SOL     OW40709   5.159   6.111   4.824
12959SOL    HW140710   5.080   6.160   4.847
12959SOL    HW240711   5.222   6.135   4.892
12960SOL     OW40712   1.981  14.409   2.700
12960SOL    HW140713   1.926  14.337   2.731
12960SOL    HW240714   2.002  14.386   2.610
12961SOL     OW40715   9.511  13.855  14.695
12961SOL    HW140716   9.529  13.763  14.675
12961SOL    HW240717   9.497  13.896  14.610
12962SOL     OW40718   8.842  12.175  12.686
12962SOL    HW140719   8.938  12.170  12.692
12962SOL    HW240720   8.826  12.249  12.628
12963SOL     OW40721   4.422   0.856   7.619
12963SOL    HW140722   4.469   0.871   7.701
12963SOL    HW240723   4.450   0.929   7.563
12964SOL     OW40724   1.564  13.016  11.335
12964SOL    HW140725   1.579  13.103  11.297
12964SOL    HW240726   1.473  12.996  11.315
12965SOL     OW40727  11.743  12.104  10.174
12965SOL    HW140728  11.782  12.173  10.227
12965SOL    HW240729  11.689  12.151  10.110
12966SOL     OW40730  12.647   6.769   0.849
12966SOL    HW140731  12.727   6.820   0.858
12966SOL    HW240732  12.614   6.790   0.761
12967SOL     OW40733   6.726   0.531   2.980
12967SOL    HW140734   6.636   0.509   3.004
12967SOL    HW240735   6.724   0.538   2.884
12968SOL     OW40736   7.372  10.811   3.831
12968SOL    HW140737   7.458  10.817   3.871
12968SOL    HW240738   7.339  10.725   3.856
12969SOL     OW40739   7.331  13.148  13.306
12969SOL    HW140740   7.318  13.058  13.336
12969SOL    HW240741   7.426  13.159  13.300
12970SOL     OW40742   9.878   0.883  10.978
12970SOL    HW140743   9.928   0.846  10.905
12970SOL    HW240744   9.792   0.842  10.970
12971SOL     OW40745   0.297   4.452  13.195
12971SOL    HW140746   0.380   4.500  13.200
12971SOL    HW240747   0.322   4.364  13.169
12972SOL     OW40748   7.437   3.232   3.794
12972SOL    HW140749   7.453   3.142   3.823
12972SOL    HW240750   7.416   3.280   3.874
12973SOL     OW40751  11.568   3.670  10.103
12973SOL    HW140752  11.499   3.608  10.124
12973SOL    HW240753  11.595   3.647  10.014
12974SOL     OW40754   4.124   5.537   8.680
12974SOL    HW140755   4.197   5.598   8.670
12974SOL    HW240756   4.135   5.500   8.767
12975SOL     OW40757   8.446   2.472   4.280
12975SOL    HW140758   8.463   2.412   4.353
12975SOL    HW240759   8.441   2.415   4.203
12976SOL     OW40760   9.432   6.998   4.674
12976SOL    HW140761   9.517   6.960   4.653
12976SOL    HW240762   9.441   7.026   4.765
12977SOL     OW40763   3.452   1.003   0.556
12977SOL    HW140764   3.482   1.056   0.630
12977SOL    HW240765   3.489   0.916   0.572
12978SOL     OW40766   1.469  10.679   2.685
12978SOL    HW140767   1.487  10.727   2.604
12978SOL    HW240768   1.491  10.741   2.755
12979SOL     OW40769  11.121   1.189   7.925
12979SOL    HW140770  11.104   1.153   8.012
12979SOL    HW240771  11.208   1.156   7.902
12980SOL     OW40772   2.200  11.213   2.970
12980SOL    HW140773   2.279  11.159   2.965
12980SOL    HW240774   2.173  11.224   2.879
12981SOL     OW40775   3.333   2.133   1.068
12981SOL    HW140776   3.258   2.145   1.127
12981SOL    HW240777   3.303   2.068   1.004
12982SOL     OW40778   4.645   3.302  12.152
12982SOL    HW140779   4.586   3.378  12.156
12982SOL    HW240780   4.638   3.261  12.238
12983SOL     OW40781   3.245   5.019   9.711
12983SOL    HW140782   3.223   5.108   9.685
12983SOL    HW240783   3.170   4.989   9.762
12984SOL     OW40784   7.304   8.254   7.227
12984SOL    HW140785   7.379   8.195   7.229
12984SOL    HW240786   7.237   8.206   7.177
12985SOL     OW40787   7.478   2.336  11.312
12985SOL    HW140788   7.439   2.253  11.337
12985SOL    HW240789   7.513   2.372  11.393
12986SOL     OW40790   5.110   5.195   9.834
12986SOL    HW140791   5.099   5.289   9.821
12986SOL    HW240792   5.064   5.176   9.916
12987SOL     OW40793   0.780  10.427   9.775
12987SOL    HW140794   0.806  10.518   9.794
12987SOL    HW240795   0.768  10.425   9.680
12988SOL     OW40796   2.860   7.009  13.208
12988SOL    HW140797   2.837   7.082  13.150
12988SOL    HW240798   2.944   7.034  13.246
12989SOL     OW40799  12.595   9.430   6.314
12989SOL    HW140800  12.675   9.478   6.337
12989SOL    HW240801  12.549   9.418   6.397
12990SOL     OW40802   1.310  14.100  14.434
12990SOL    HW140803   1.242  14.075  14.370
12990SOL    HW240804   1.379  14.035  14.422
12991SOL     OW40805  13.874  11.601   8.589
12991SOL    HW140806  13.865  11.693   8.615
12991SOL    HW240807  13.944  11.568   8.645
12992SOL     OW40808   8.033   8.196  13.850
12992SOL    HW140809   8.049   8.108  13.883
12992SOL    HW240810   8.089   8.253  13.903
12993SOL     OW40811  14.159  10.280   7.312
12993SOL    HW140812  14.221  10.349   7.336
12993SOL    HW240813  14.080  10.327   7.284
12994SOL     OW40814  10.076   1.459  10.556
12994SOL    HW140815  10.149   1.423  10.606
12994SOL    HW240816  10.022   1.503  10.621
12995SOL     OW40817   6.824   2.885   1.854
12995SOL    HW140818   6.830   2.791   1.836
12995SOL    HW240819   6.779   2.891   1.938
12996SOL     OW40820   6.918   7.669  14.552
12996SOL    HW140821   6.990   7.607  14.547
12996SOL    HW240822   6.958   7.750  14.584
12997SOL     OW40823   0.923   3.822   5.566
12997SOL    HW140824   1.002   3.778   5.533
12997SOL    HW240825   0.853   3.758   5.554
12998SOL     OW40826   8.162   3.273   2.980
12998SOL    HW140827   8.126   3.336   3.043
12998SOL    HW240828   8.149   3.315   2.895
12999SOL     OW40829  12.086   1.277   9.111
12999SOL    HW140830  12.012   1.237   9.066
12999SOL    HW240831  12.112   1.349   9.053
13000SOL     OW40832   3.554   6.830   9.891
13000SOL    HW140833   3.570   6.748   9.937
13000SOL    HW240834   3.467   6.820   9.852
13001SOL     OW40835   9.699  14.346  12.956
13001SOL    HW140836   9.675  14.315  12.869
13001SOL    HW240837   9.622  14.328  13.010
13002SOL     OW40838  13.459  14.017   0.056
13002SOL    HW140839  13.499  14.075   0.121
13002SOL    HW240840  13.407  13.956   0.108
13003SOL     OW40841   2.275   7.933   8.630
13003SOL    HW140842   2.191   7.974   8.608
13003SOL    HW240843   2.317   7.918   8.545
13004SOL     OW40844  11.293   8.109  10.762
13004SOL    HW140845  11.328   8.196  10.777
13004SOL    HW240846  11.309   8.062  10.844
13005SOL     OW40847   7.157  12.118  12.792
13005SOL    HW140848   7.076  12.136  12.745
13005SOL    HW240849   7.134  12.049  12.854
13006SOL     OW40850   8.521   7.653  13.704
13006SOL    HW140851   8.577   7.663  13.781
13006SOL    HW240852   8.579   7.665  13.629
13007SOL     OW40853   6.518   8.823   8.789
13007SOL    HW140854   6.534   8.809   8.883
13007SOL    HW240855   6.425   8.843   8.784
13008SOL     OW40856   3.878   9.732  14.091
13008SOL    HW140857   3.808   9.702  14.033
13008SOL    HW240858   3.940   9.776  14.033
13009SOL     OW40859   9.816   0.890   1.959
13009SOL    HW140860   9.910   0.882   1.974
13009SOL    HW240861   9.792   0.810   1.913
13010SOL     OW40862  12.373  12.149  14.131
13010SOL    HW140863  12.381  12.235  14.090
13010SOL    HW240864  12.387  12.165  14.225
13011SOL     OW40865  11.107   4.581  12.905
13011SOL    HW140866  11.043   4.652  12.913
13011SOL    HW240867  11.191   4.624  12.922
13012SOL     OW40868  13.209  10.638   1.292
13012SOL    HW140869  13.133  10.640   1.351
13012SOL    HW240870  13.235  10.730   1.284
13013SOL     OW40871   3.064   1.405  12.011
13013SOL    HW140872   3.117   1.415  12.090
13013SOL    HW240873   3.031   1.493  11.993
13014SOL     OW40874  13.252   5.469  12.155
13014SOL    HW140875  13.217   5.382  12.133
13014SOL    HW240876  13.235   5.478  12.248
13015SOL     OW40877   3.096  12.820   0.739
13015SOL    HW140878   3.061  12.734   0.762
13015SOL    HW240879   3.050  12.881   0.797
13016SOL     OW40880  13.381   4.674   2.457
13016SOL    HW140881  13.323   4.623   2.400
13016SOL    HW240882  13.350   4.657   2.545
13017SOL     OW40883  13.273   6.235   3.146
13017SOL    HW140884  13.182   6.219   3.124
13017SOL    HW240885  13.317   6.241   3.061
13018SOL     OW40886   1.848  14.796   7.776
13018SOL    HW140887   1.845  14.797   7.872
13018SOL    HW240888   1.905  14.869   7.753
13019SOL     OW40889   3.487   6.615  12.290
13019SOL    HW140890   3.508   6.703  12.257
13019SOL    HW240891   3.507   6.557  12.217
13020SOL     OW40892  12.779  13.698   8.602
13020SOL    HW140893  12.689  13.721   8.623
13020SOL    HW240894  12.816  13.777   8.561
13021SOL     OW40895   0.349  11.356   0.584
13021SOL    HW140896   0.382  11.270   0.557
13021SOL    HW240897   0.354  11.353   0.680
13022SOL     OW40898   9.045   9.974   2.528
13022SOL    HW140899   9.073  10.051   2.479
13022SOL    HW240900   9.126   9.932   2.557
13023SOL     OW40901  14.604   2.132   7.294
13023SOL    HW140902  14.662   2.199   7.258
13023SOL    HW240903  14.602   2.064   7.226
13024SOL     OW40904   1.253   8.159  12.536
13024SOL    HW140905   1.203   8.086  12.500
13024SOL    HW240906   1.207   8.237  12.504
13025SOL     OW40907   1.376   4.579   0.001
13025SOL    HW140908   1.372   4.592  14.779
13025SOL    HW240909   1.373   4.667   0.038
13026SOL     OW40910  13.452   7.617   6.934
13026SOL    HW140911  13.369   7.576   6.910
13026SOL    HW240912  13.465   7.592   7.025
13027SOL     OW40913  11.588   2.472   1.404
13027SOL    HW140914  11.633   2.452   1.487
13027SOL    HW240915  11.540   2.392   1.382
13028SOL     OW40916  11.051   8.485   6.405
13028SOL    HW140917  11.008   8.493   6.490
13028SOL    HW240918  11.143   8.502   6.423
13029SOL     OW40919   0.164  12.026  13.692
13029SOL    HW140920   0.108  11.956  13.725
13029SOL    HW240921   0.195  11.994  13.608
13030SOL     OW40922  13.916   8.148  13.442
13030SOL    HW140923  13.991   8.101  13.407
13030SOL    HW240924  13.912   8.229  13.392
13031SOL     OW40925   4.314  10.593   4.932
13031SOL    HW140926   4.238  10.573   4.877
13031SOL    HW240927   4.313  10.689   4.939
13032SOL     OW40928   5.183   6.585   6.809
13032SOL    HW140929   5.098   6.573   6.850
13032SOL    HW240930   5.173   6.546   6.722
13033SOL     OW40931   6.562  14.325   2.385
13033SOL    HW140932   6.601  14.242   2.359
13033SOL    HW240933   6.468  14.309   2.385
13034SOL     OW40934   5.380   9.807  10.623
13034SOL    HW140935   5.351   9.887  10.578
13034SOL    HW240936   5.464   9.831  10.662
13035SOL     OW40937  13.533   1.258   4.220
13035SOL    HW140938  13.575   1.175   4.197
13035SOL    HW240939  13.604   1.321   4.220
13036SOL     OW40940   7.772  11.303   8.723
13036SOL    HW140941   7.683  11.279   8.749
13036SOL    HW240942   7.825  11.290   8.802
13037SOL     OW40943   2.596   5.189   9.619
13037SOL    HW140944   2.571   5.154   9.533
13037SOL    HW240945   2.617   5.281   9.602
13038SOL     OW40946   4.926   9.719   0.704
13038SOL    HW140947   4.892   9.641   0.660
13038SOL    HW240948   5.004   9.742   0.654
13039SOL     OW40949   6.308  12.286   8.548
13039SOL    HW140950   6.276  12.196   8.549
13039SOL    HW240951   6.327  12.306   8.639
13040SOL     OW40952  13.784  11.371   0.577
13040SOL    HW140953  13.692  11.398   0.576
13040SOL    HW240954  13.810  11.376   0.669
13041SOL     OW40955   0.691  11.069   4.548
13041SOL    HW140956   0.756  11.003   4.525
13041SOL    HW240957   0.697  11.078   4.643
13042SOL     OW40958  12.324   2.170  10.689
13042SOL    HW140959  12.326   2.250  10.741
13042SOL    HW240960  12.338   2.200  10.599
13043SOL     OW40961  13.619  11.459   8.132
13043SOL    HW140962  13.567  11.519   8.079
13043SOL    HW240963  13.708  11.467   8.097
13044SOL     OW40964   2.127   0.574   7.489
13044SOL    HW140965   2.077   0.625   7.425
13044SOL    HW240966   2.113   0.483   7.464
13045SOL     OW40967   4.872  12.153   0.804
13045SOL    HW140968   4.834  12.237   0.827
13045SOL    HW240969   4.870  12.102   0.885
13046SOL     OW40970   0.466   2.615   8.035
13046SOL    HW140971   0.427   2.564   8.106
13046SOL    HW240972   0.439   2.705   8.053
13047SOL     OW40973  10.311  10.984  11.889
13047SOL    HW140974  10.225  10.991  11.930
13047SOL    HW240975  10.370  11.030  11.949
13048SOL     OW40976   2.584   3.366   6.445
13048SOL    HW140977   2.597   3.457   6.471
13048SOL    HW240978   2.646   3.353   6.372
13049SOL     OW40979   6.298   1.673  10.911
13049SOL    HW140980   6.281   1.626  10.993
13049SOL    HW240981   6.293   1.765  10.934
13050SOL     OW40982  10.246   1.872   5.448
13050SOL    HW140983  10.186   1.808   5.485
13050SOL    HW240984  10.215   1.957   5.482
13051SOL     OW40985  13.880  13.654  12.248
13051SOL    HW140986  13.807  13.714  12.233
13051SOL    HW240987  13.924  13.648  12.163
13052SOL     OW40988   7.429   5.095  11.753
13052SOL    HW140989   7.477   5.111  11.834
13052SOL    HW240990   7.489   5.122  11.683
13053SOL     OW40991   8.221  12.368   9.599
13053SOL    HW140992   8.195  12.456   9.572
13053SOL    HW240993   8.244  12.376   9.691
13054SOL     OW40994   0.280   0.261   4.864
13054SOL    HW140995   0.260   0.219   4.947
13054SOL    HW240996   0.375   0.269   4.864
13055SOL     OW40997   6.795   5.699   9.098
13055SOL    HW140998   6.826   5.758   9.030
13055SOL    HW240999   6.854   5.714   9.172
13056SOL     OW41000   2.132  14.456   2.201
13056SOL    HW141001   2.182  14.460   2.282
13056SOL    HW241002   2.151  14.370   2.164
13057SOL     OW41003   4.133  11.876   3.615
13057SOL    HW141004   4.137  11.831   3.700
13057SOL    HW241005   4.043  11.910   3.611
13058SOL     OW41006  12.250   3.637  12.809
13058SOL    HW141007  12.231   3.545  12.794
13058SOL    HW241008  12.249   3.647  12.904
13059SOL     OW41009   0.092   0.938  11.289
13059SOL    HW141010   0.030   0.984  11.344
13059SOL    HW241011   0.177   0.978  11.308
13060SOL     OW41012   9.964   6.557   5.095
13060SOL    HW141013   9.982   6.617   5.023
13060SOL    HW241014  10.050   6.519   5.116
13061SOL     OW41015   3.268   7.911   3.929
13061SOL    HW141016   3.290   7.860   4.007
13061SOL    HW241017   3.193   7.965   3.956
13062SOL     OW41018  13.795   0.627  12.399
13062SOL    HW141019  13.781   0.533  12.382
13062SOL    HW241020  13.724   0.670  12.351
13063SOL     OW41021  11.245  13.029  14.581
13063SOL    HW141022  11.217  13.035  14.672
13063SOL    HW241023  11.267  12.937  14.568
13064SOL     OW41024   7.858  12.105   5.975
13064SOL    HW141025   7.922  12.082   6.042
13064SOL    HW241026   7.866  12.200   5.965
13065SOL     OW41027  11.281   7.405  10.471
13065SOL    HW141028  11.342   7.455  10.418
13065SOL    HW241029  11.323   7.400  10.557
13066SOL     OW41030   6.890   6.176   5.583
13066SOL    HW141031   6.874   6.096   5.633
13066SOL    HW241032   6.957   6.223   5.633
13067SOL     OW41033   1.570  12.613   6.748
13067SOL    HW141034   1.484  12.652   6.730
13067SOL    HW241035   1.623  12.634   6.671
13068SOL     OW41036   2.381  12.971  10.129
13068SOL    HW141037   2.433  12.972  10.049
13068SOL    HW241038   2.347  13.060  10.137
13069SOL     OW41039  12.287   4.990   2.306
13069SOL    HW141040  12.206   4.969   2.352
13069SOL    HW241041  12.354   4.938   2.351
13070SOL     OW41042  10.903  14.250  14.286
13070SOL    HW141043  10.925  14.226  14.196
13070SOL    HW241044  10.983  14.293  14.319
13071SOL     OW41045   8.849   0.717   6.491
13071SOL    HW141046   8.930   0.768   6.483
13071SOL    HW241047   8.779   0.782   6.489
13072SOL     OW41048  13.137  14.529   6.989
13072SOL    HW141049  13.174  14.598   6.934
13072SOL    HW241050  13.198  14.456   6.981
13073SOL     OW41051  13.504   2.448   4.129
13073SOL    HW141052  13.559   2.468   4.054
13073SOL    HW241053  13.556   2.477   4.205
13074SOL     OW41054   6.336   2.010  14.026
13074SOL    HW141055   6.302   1.962  14.101
13074SOL    HW241056   6.266   2.071  14.002
13075SOL     OW41057   5.154   9.684   7.053
13075SOL    HW141058   5.145   9.621   7.124
13075SOL    HW241059   5.243   9.718   7.063
13076SOL     OW41060  14.816  13.304   3.608
13076SOL    HW141061  14.740  13.325   3.663
13076SOL    HW241062  14.791  13.223   3.564
13077SOL     OW41063   2.984  12.539   0.815
13077SOL    HW141064   3.013  12.460   0.772
13077SOL    HW241065   2.888  12.530   0.820
13078SOL     OW41066   8.875   0.806   8.107
13078SOL    HW141067   8.814   0.765   8.045
13078SOL    HW241068   8.860   0.900   8.096
13079SOL     OW41069   1.254   6.957  12.834
13079SOL    HW141070   1.177   6.919  12.792
13079SOL    HW241071   1.325   6.895  12.814
13080SOL     OW41072   1.891   4.149   2.868
13080SOL    HW141073   1.869   4.110   2.783
13080SOL    HW241074   1.865   4.241   2.859
13081SOL     OW41075  12.705   2.730   7.389
13081SOL    HW141076  12.743   2.734   7.476
13081SOL    HW241077  12.746   2.802   7.341
13082SOL     OW41078   2.588   6.073  14.309
13082SOL    HW141079   2.666   6.122  14.286
13082SOL    HW241080   2.621   5.997  14.358
13083SOL     OW41081  14.333   1.535   6.219
13083SOL    HW141082  14.290   1.553   6.303
13083SOL    HW241083  14.415   1.583   6.224
13084SOL     OW41084   7.534   8.317   4.715
13084SOL    HW141085   7.500   8.241   4.762
13084SOL    HW241086   7.457   8.371   4.697
13085SOL     OW41087   4.552  12.972   9.772
13085SOL    HW141088   4.582  13.062   9.779
13085SOL    HW241089   4.574  12.945   9.683
13086SOL     OW41090  10.219   9.319   8.959
13086SOL    HW141091  10.212   9.230   8.926
13086SOL    HW241092  10.313   9.335   8.965
13087SOL     OW41093   3.393   2.466   1.528
13087SOL    HW141094   3.436   2.417   1.599
13087SOL    HW241095   3.300   2.459   1.548
13088SOL     OW41096   2.796   6.568  14.456
13088SOL    HW141097   2.831   6.652  14.426
13088SOL    HW241098   2.873   6.518  14.481
13089SOL     OW41099  13.829   5.585   1.827
13089SOL    HW141100  13.795   5.557   1.912
13089SOL    HW241101  13.753   5.625   1.784
13090SOL     OW41102  11.982   7.940  14.704
13090SOL    HW141103  12.008   8.018  14.655
13090SOL    HW241104  12.056   7.923  14.762
13091SOL     OW41105  14.153   4.358  13.906
13091SOL    HW141106  14.207   4.294  13.860
13091SOL    HW241107  14.154   4.435  13.851
13092SOL     OW41108  11.886   5.547   8.417
13092SOL    HW141109  11.935   5.584   8.491
13092SOL    HW241110  11.853   5.463   8.450
13093SOL     OW41111  13.108   4.982   6.756
13093SOL    HW141112  13.105   5.071   6.723
13093SOL    HW241113  13.034   4.976   6.817
13094SOL     OW41114  13.098  10.295  11.909
13094SOL    HW141115  13.092  10.268  11.818
13094SOL    HW241116  13.103  10.212  11.958
13095SOL     OW41117   7.944   3.978   6.680
13095SOL    HW141118   7.869   4.035   6.662
13095SOL    HW241119   8.007   4.034   6.725
13096SOL     OW41120   0.680  11.954  10.395
13096SOL    HW141121   0.682  12.050  10.398
13096SOL    HW241122   0.757  11.927  10.445
13097SOL     OW41123   5.624   3.408  14.677
13097SOL    HW141124   5.640   3.481  14.736
13097SOL    HW241125   5.686   3.421  14.605
13098SOL     OW41126   9.024   1.206   1.325
13098SOL    HW141127   8.956   1.245   1.381
13098SOL    HW241128   8.991   1.118   1.305
13099SOL     OW41129   6.821   9.987  14.250
13099SOL    HW141130   6.825   9.937  14.332
13099SOL    HW241131   6.780  10.070  14.275
13100SOL     OW41132   4.791   3.062  11.188
13100SOL    HW141133   4.709   3.108  11.207
13100SOL    HW241134   4.852   3.093  11.255
13101SOL     OW41135   8.229   3.344   8.293
13101SOL    HW141136   8.322   3.329   8.275
13101SOL    HW241137   8.194   3.381   8.211
13102SOL     OW41138   3.487   1.782  13.540
13102SOL    HW141139   3.523   1.712  13.595
13102SOL    HW241140   3.499   1.862  13.591
13103SOL     OW41141   0.061   1.290   6.285
13103SOL    HW141142   0.057   1.342   6.205
13103SOL    HW241143   0.155   1.276   6.299
13104SOL     OW41144  11.023   0.111   6.483
13104SOL    HW141145  10.978   0.043   6.533
13104SOL    HW241146  11.106   0.071   6.457
13105SOL     OW41147   3.956   9.826   6.832
13105SOL    HW141148   3.916   9.741   6.815
13105SOL    HW241149   4.050   9.806   6.841
13106SOL     OW41150   3.518   4.931   9.774
13106SOL    HW141151   3.509   5.005   9.834
13106SOL    HW241152   3.442   4.938   9.715
13107SOL     OW41153   1.176   3.020   4.787
13107SOL    HW141154   1.214   3.106   4.769
13107SOL    HW241155   1.192   2.969   4.707
13108SOL     OW41156  14.016   9.691   8.140
13108SOL    HW141157  14.059   9.684   8.225
13108SOL    HW241158  13.923   9.685   8.160
13109SOL     OW41159   3.721  13.419   2.563
13109SOL    HW141160   3.763  13.336   2.541
13109SOL    HW241161   3.628  13.404   2.546
13110SOL     OW41162   3.722   4.588   3.529
13110SOL    HW141163   3.774   4.510   3.513
13110SOL    HW241164   3.729   4.603   3.624
13111SOL     OW41165  11.798   9.296  13.961
13111SOL    HW141166  11.809   9.316  14.054
13111SOL    HW241167  11.782   9.381  13.920
13112SOL     OW41168   9.250   1.047   0.408
13112SOL    HW141169   9.232   1.134   0.375
13112SOL    HW241170   9.337   1.054   0.448
13113SOL     OW41171  11.737  11.143   6.698
13113SOL    HW141172  11.752  11.178   6.610
13113SOL    HW241173  11.756  11.217   6.757
13114SOL     OW41174   1.969   1.215  13.187
13114SOL    HW141175   2.000   1.170  13.265
13114SOL    HW241176   2.016   1.173  13.115
13115SOL     OW41177  12.040   9.976   5.073
13115SOL    HW141178  11.963   9.972   5.129
13115SOL    HW241179  12.005   9.980   4.984
13116SOL     OW41180  14.232   1.253   4.867
13116SOL    HW141181  14.190   1.338   4.880
13116SOL    HW241182  14.322   1.275   4.840
13117SOL     OW41183  13.965  12.303  13.786
13117SOL    HW141184  13.934  12.359  13.714
13117SOL    HW241185  13.899  12.315  13.854
13118SOL     OW41186   1.006   1.761   8.672
13118SOL    HW141187   1.013   1.818   8.596
13118SOL    HW241188   0.925   1.712   8.660
13119SOL     OW41189   0.460   9.682   1.756
13119SOL    HW141190   0.456   9.760   1.811
13119SOL    HW241191   0.369   9.663   1.733
13120SOL     OW41192  14.152  14.782   3.251
13120SOL    HW141193  14.186  14.869   3.270
13120SOL    HW241194  14.066  14.779   3.293
13121SOL     OW41195  13.212   9.823  12.185
13121SOL    HW141196  13.166   9.794  12.263
13121SOL    HW241197  13.210   9.747  12.126
13122SOL     OW41198   7.181  11.871  11.950
13122SOL    HW141199   7.171  11.796  11.891
13122SOL    HW241200   7.110  11.930  11.926
13123SOL     OW41201   8.212  10.648  10.485
13123SOL    HW141202   8.259  10.731  10.490
13123SOL    HW241203   8.222  10.620  10.394
13124SOL     OW41204   0.919   6.179   4.790
13124SOL    HW141205   1.008   6.153   4.767
13124SOL    HW241206   0.882   6.212   4.707
13125SOL     OW41207   1.946   4.480   0.204
13125SOL    HW141208   1.979   4.570   0.209
13125SOL    HW241209   1.878   4.476   0.272
13126SOL     OW41210  14.557   9.960  11.639
13126SOL    HW141211  14.548  10.019  11.715
13126SOL    HW241212  14.633   9.993  11.592
13127SOL     OW41213   7.105   3.325  12.645
13127SOL    HW141214   7.200   3.314  12.635
13127SOL    HW241215   7.068   3.246  12.605
13128SOL     OW41216   0.747  11.641   5.308
13128SOL    HW141217   0.699  11.562   5.282
13128SOL    HW241218   0.780  11.621   5.396
13129SOL     OW41219   2.541  12.134   7.445
13129SOL    HW141220   2.546  12.069   7.515
13129SOL    HW241221   2.452  12.126   7.411
13130SOL     OW41222  12.633   7.063   6.591
13130SOL    HW141223  12.564   7.106   6.539
13130SOL    HW241224  12.715   7.095   6.552
13131SOL     OW41225   0.197  11.918   7.617
13131SOL    HW141226   0.249  11.855   7.566
13131SOL    HW241227   0.188  11.877   7.704
13132SOL     OW41228  14.089   8.563   2.588
13132SOL    HW141229  14.020   8.532   2.530
13132SOL    HW241230  14.153   8.492   2.590
13133SOL     OW41231   6.519   1.411   3.529
13133SOL    HW141232   6.473   1.461   3.597
13133SOL    HW241233   6.608   1.400   3.563
13134SOL     OW41234  10.426  11.960  12.066
13134SOL    HW141235  10.477  11.934  12.143
13134SOL    HW241236  10.351  11.901  12.066
13135SOL     OW41237  12.209   2.956   2.397
13135SOL    HW141238  12.206   3.051   2.384
13135SOL    HW241239  12.117   2.931   2.410
13136SOL     OW41240   9.060  11.505   5.637
13136SOL    HW141241   9.053  11.600   5.648
13136SOL    HW241242   9.154  11.488   5.627
13137SOL     OW41243   9.254   5.030   2.659
13137SOL    HW141244   9.312   4.972   2.611
13137SOL    HW241245   9.311   5.098   2.694
13138SOL     OW41246   7.938   5.501   1.088
13138SOL    HW141247   7.969   5.437   1.025
13138SOL    HW241248   8.002   5.499   1.159
13139SOL     OW41249   0.279   7.468   2.115
13139SOL    HW141250   0.239   7.400   2.062
13139SOL    HW241251   0.294   7.541   2.054
13140SOL     OW41252   2.821   6.286   1.298
13140SOL    HW141253   2.827   6.371   1.254
13140SOL    HW241254   2.884   6.291   1.369
13141SOL     OW41255   2.321  14.256   6.472
13141SOL    HW141256   2.259  14.188   6.445
13141SOL    HW241257   2.350  14.228   6.558
13142SOL     OW41258  10.083   6.322  12.546
13142SOL    HW141259  10.001   6.316  12.496
13142SOL    HW241260  10.062   6.384  12.617
13143SOL     OW41261  11.885   9.607   7.633
13143SOL    HW141262  11.797   9.576   7.658
13143SOL    HW241263  11.916   9.541   7.571
13144SOL     OW41264   5.784   9.978   6.155
13144SOL    HW141265   5.726   9.934   6.217
13144SOL    HW241266   5.748   9.958   6.069
13145SOL     OW41267   0.760   2.718  13.672
13145SOL    HW141268   0.812   2.638  13.686
13145SOL    HW241269   0.781   2.743  13.582
13146SOL     OW41270  11.542  10.693   7.958
13146SOL    HW141271  11.492  10.676   8.039
13146SOL    HW241272  11.490  10.759   7.912
13147SOL     OW41273   1.738  12.092  11.930
13147SOL    HW141274   1.813  12.093  11.990
13147SOL    HW241275   1.668  12.136  11.978
13148SOL     OW41276  11.325  10.560   6.938
13148SOL    HW141277  11.339  10.579   7.031
13148SOL    HW241278  11.352  10.640   6.893
13149SOL     OW41279   9.872   5.328  10.636
13149SOL    HW141280   9.884   5.323  10.541
13149SOL    HW241281   9.856   5.420  10.654
13150SOL     OW41282  11.709  13.312   6.296
13150SOL    HW141283  11.719  13.405   6.312
13150SOL    HW241284  11.714  13.304   6.200
13151SOL     OW41285  13.105  14.632   4.209
13151SOL    HW141286  13.160  14.708   4.227
13151SOL    HW241287  13.167  14.561   4.195
13152SOL     OW41288  14.152  11.451  13.477
13152SOL    HW141289  14.091  11.486  13.413
13152SOL    HW241290  14.105  11.455  13.560
13153SOL     OW41291  12.043   0.457   7.144
13153SOL    HW141292  12.004   0.465   7.057
13153SOL    HW241293  12.100   0.381   7.138
13154SOL     OW41294   4.355   9.122   6.818
13154SOL    HW141295   4.395   9.192   6.869
13154SOL    HW241296   4.374   9.042   6.868
13155SOL     OW41297  13.156   7.802  10.490
13155SOL    HW141298  13.161   7.896  10.506
13155SOL    HW241299  13.062   7.782  10.494
13156SOL     OW41300   5.489   0.177   5.501
13156SOL    HW141301   5.513   0.099   5.551
13156SOL    HW241302   5.503   0.153   5.410
13157SOL     OW41303   4.037   4.171  11.036
13157SOL    HW141304   4.072   4.087  11.006
13157SOL    HW241305   4.078   4.236  10.978
13158SOL     OW41306   1.618   6.431   8.141
13158SOL    HW141307   1.584   6.453   8.054
13158SOL    HW241308   1.557   6.473   8.201
13159SOL     OW41309  13.340   6.920  14.737
13159SOL    HW141310  13.395   6.936  14.814
13159SOL    HW241311  13.403   6.904  14.666
13160SOL     OW41312   5.145  11.827  14.258
13160SOL    HW141313   5.217  11.880  14.293
13160SOL    HW241314   5.068  11.883  14.267
13161SOL     OW41315   0.069   7.910   5.602
13161SOL    HW141316  14.859   7.900   5.554
13161SOL    HW241317   0.043   7.946   5.687
13162SOL     OW41318   9.666  10.497   2.886
13162SOL    HW141319   9.695  10.566   2.945
13162SOL    HW241320   9.571  10.511   2.878
13163SOL     OW41321   3.867   1.487  11.796
13163SOL    HW141322   3.792   1.431  11.776
13163SOL    HW241323   3.927   1.475  11.722
13164SOL     OW41324   0.053   5.437   9.332
13164SOL    HW141325  14.839   5.455   9.369
13164SOL    HW241326   0.096   5.382   9.399
13165SOL     OW41327   0.073  12.854   7.668
13165SOL    HW141328   0.030  12.838   7.752
13165SOL    HW241329   0.025  12.800   7.606
13166SOL     OW41330   3.420   1.830   1.530
13166SOL    HW141331   3.496   1.871   1.571
13166SOL    HW241332   3.425   1.738   1.556
13167SOL     OW41333   3.910   4.607  10.612
13167SOL    HW141334   3.907   4.678  10.677
13167SOL    HW241335   4.004   4.587  10.604
13168SOL     OW41336   3.951   9.109  12.201
13168SOL    HW141337   4.041   9.134  12.220
13168SOL    HW241338   3.954   9.075  12.112
13169SOL     OW41339  14.583   8.484   0.599
13169SOL    HW141340  14.535   8.559   0.634
13169SOL    HW241341  14.542   8.468   0.514
13170SOL     OW41342   3.250   7.050  13.992
13170SOL    HW141343   3.285   7.115  13.932
13170SOL    HW241344   3.207   7.101  14.061
13171SOL     OW41345   3.665   1.734  11.802
13171SOL    HW141346   3.650   1.763  11.892
13171SOL    HW241347   3.734   1.669  11.809
13172SOL     OW41348   4.284  11.128   5.268
13172SOL    HW141349   4.323  11.136   5.181
13172SOL    HW241350   4.325  11.049   5.305
13173SOL     OW41351   7.294  11.646  13.360
13173SOL    HW141352   7.281  11.643  13.455
13173SOL    HW241353   7.262  11.733  13.335
13174SOL     OW41354  12.110   2.559   8.130
13174SOL    HW141355  12.182   2.501   8.155
13174SOL    HW241356  12.036   2.500   8.115
13175SOL     OW41357   1.615   4.204   2.656
13175SOL    HW141358   1.611   4.288   2.610
13175SOL    HW241359   1.707   4.178   2.651
13176SOL     OW41360   6.439   5.103   6.934
13176SOL    HW141361   6.470   5.144   7.015
13176SOL    HW241362   6.519   5.069   6.893
13177SOL     OW41363   2.042   1.508   2.650
13177SOL    HW141364   1.964   1.455   2.666
13177SOL    HW241365   2.073   1.531   2.738
13178SOL     OW41366   7.595   7.330   3.942
13178SOL    HW141367   7.517   7.335   3.887
13178SOL    HW241368   7.668   7.327   3.880
13179SOL     OW41369   1.981   4.441   1.668
13179SOL    HW141370   2.012   4.468   1.754
13179SOL    HW241371   1.943   4.354   1.682
13180SOL     OW41372  11.447   4.267  11.510
13180SOL    HW141373  11.408   4.184  11.535
13180SOL    HW241374  11.388   4.333  11.545
13181SOL     OW41375  13.665  12.731   8.723
13181SOL    HW141376  13.725  12.670   8.681
13181SOL    HW241377  13.721  12.801   8.758
13182SOL     OW41378   3.935  11.699   7.888
13182SOL    HW141379   3.973  11.747   7.961
13182SOL    HW241380   3.844  11.685   7.913
13183SOL     OW41381   4.052  10.077   6.902
13183SOL    HW141382   4.020   9.993   6.871
13183SOL    HW241383   3.974  10.131   6.912
13184SOL     OW41384  14.550   2.601  10.743
13184SOL    HW141385  14.618   2.537  10.727
13184SOL    HW241386  14.473   2.549  10.765
13185SOL     OW41387  10.533  10.666   0.026
13185SOL    HW141388  10.588  10.744   0.028
13185SOL    HW241389  10.448  10.695   0.059
13186SOL     OW41390   0.966  13.384   0.776
13186SOL    HW141391   1.025  13.359   0.705
13186SOL    HW241392   0.936  13.472   0.752
13187SOL     OW41393   1.773   7.637  12.914
13187SOL    HW141394   1.784   7.542  12.907
13187SOL    HW241395   1.749   7.664  12.825
13188SOL     OW41396  13.220   0.524  11.221
13188SOL    HW141397  13.284   0.477  11.274
13188SOL    HW241398  13.139   0.523  11.273
13189SOL     OW41399   0.553  10.981   7.330
13189SOL    HW141400   0.490  11.049   7.351
13189SOL    HW241401   0.522  10.943   7.248
13190SOL     OW41402   3.093  12.213   8.433
13190SOL    HW141403   3.042  12.194   8.354
13190SOL    HW241404   3.035  12.187   8.505
13191SOL     OW41405   5.275   4.242  10.266
13191SOL    HW141406   5.237   4.329  10.251
13191SOL    HW241407   5.210   4.181  10.233
13192SOL     OW41408   6.775  13.338  11.471
13192SOL    HW141409   6.799  13.288  11.549
13192SOL    HW241410   6.774  13.429  11.500
13193SOL     OW41411   1.182  10.718  10.624
13193SOL    HW141412   1.120  10.671  10.680
13193SOL    HW241413   1.191  10.662  10.547
13194SOL     OW41414  12.578   3.154  10.616
13194SOL    HW141415  12.555   3.245  10.599
13194SOL    HW241416  12.494   3.107  10.612
13195SOL     OW41417  10.249   8.689  10.527
13195SOL    HW141418  10.221   8.605  10.563
13195SOL    HW241419  10.308   8.725  10.593
13196SOL     OW41420  11.734   6.280   3.226
13196SOL    HW141421  11.803   6.217   3.207
13196SOL    HW241422  11.667   6.228   3.270
13197SOL     OW41423  13.155   0.725   4.981
13197SOL    HW141424  13.153   0.697   5.073
13197SOL    HW241425  13.238   0.689   4.947
13198SOL     OW41426   0.550   3.976   2.772
13198SOL    HW141427   0.591   3.983   2.858
13198SOL    HW241428   0.457   3.964   2.791
13199SOL     OW41429  10.336  11.213   9.424
13199SOL    HW141430  10.365  11.176   9.341
13199SOL    HW241431  10.347  11.142   9.487
13200SOL     OW41432  12.082   0.615   6.709
13200SOL    HW141433  12.018   0.682   6.730
13200SOL    HW241434  12.062   0.542   6.768
13201SOL     OW41435   8.323   9.969   9.413
13201SOL    HW141436   8.313  10.055   9.371
13201SOL    HW241437   8.259   9.914   9.369
13202SOL     OW41438  10.736  11.463   2.257
13202SOL    HW141439  10.822  11.439   2.223
13202SOL    HW241440  10.693  11.509   2.185
13203SOL     OW41441  12.483   4.216  11.006
13203SOL    HW141442  12.444   4.292  11.049
13203SOL    HW241443  12.435   4.141  11.041
13204SOL     OW41444  13.102   3.011   1.853
13204SOL    HW141445  13.132   3.101   1.841
13204SOL    HW241446  13.010   3.019   1.878
13205SOL     OW41447   0.021  12.508   5.671
13205SOL    HW141448   0.007  12.562   5.749
13205SOL    HW241449  14.807  12.502   5.631
13206SOL     OW41450  13.832  12.220   7.025
13206SOL    HW141451  13.837  12.227   7.120
13206SOL    HW241452  13.872  12.301   6.992
13207SOL     OW41453   5.412   0.986  14.871
13207SOL    HW141454   5.494   0.945  14.842
13207SOL    HW241455   5.344   0.939  14.824
13208SOL     OW41456   2.857   5.285  10.306
13208SOL    HW141457   2.764   5.272  10.325
13208SOL    HW241458   2.893   5.323  10.386
13209SOL     OW41459   4.175  10.268   1.796
13209SOL    HW141460   4.169  10.356   1.835
13209SOL    HW241461   4.086  10.250   1.766
13210SOL     OW41462   4.827   5.419   9.079
13210SOL    HW141463   4.883   5.434   9.003
13210SOL    HW241464   4.877   5.360   9.134
13211SOL     OW41465  14.206   4.417   8.392
13211SOL    HW141466  14.154   4.411   8.473
13211SOL    HW241467  14.184   4.503   8.356
13212SOL     OW41468   5.483  12.495   8.539
13212SOL    HW141469   5.535  12.424   8.576
13212SOL    HW241470   5.508  12.572   8.590
13213SOL     OW41471  13.740   9.744  11.663
13213SOL    HW141472  13.693   9.715  11.741
13213SOL    HW241473  13.694   9.702  11.591
13214SOL     OW41474   7.083   1.099   8.947
13214SOL    HW141475   7.103   1.089   9.040
13214SOL    HW241476   7.034   1.021   8.924
13215SOL     OW41477  13.031   3.326   0.973
13215SOL    HW141478  13.105   3.386   0.984
13215SOL    HW241479  13.065   3.241   0.999
13216SOL     OW41480  11.786  11.809   4.632
13216SOL    HW141481  11.869  11.815   4.584
13216SOL    HW241482  11.722  11.786   4.565
13217SOL     OW41483   7.672   5.522   5.104
13217SOL    HW141484   7.624   5.576   5.041
13217SOL    HW241485   7.653   5.562   5.189
13218SOL     OW41486   0.500   9.303   8.016
13218SOL    HW141487   0.528   9.386   7.976
13218SOL    HW241488   0.492   9.243   7.942
13219SOL     OW41489   0.693   2.283   3.322
13219SOL    HW141490   0.746   2.205   3.333
13219SOL    HW241491   0.633   2.283   3.396
13220SOL     OW41492   8.442  11.262   5.693
13220SOL    HW141493   8.473  11.333   5.637
13220SOL    HW241494   8.366  11.226   5.646
13221SOL     OW41495  11.422   3.839   9.384
13221SOL    HW141496  11.512   3.871   9.385
13221SOL    HW241497  11.370   3.911   9.348
13222SOL     OW41498   7.310  12.971   6.757
13222SOL    HW141499   7.394  13.012   6.738
13222SOL    HW241500   7.331  12.880   6.779
13223SOL     OW41501  13.852   2.932   6.638
13223SOL    HW141502  13.866   2.862   6.702
13223SOL    HW241503  13.941   2.955   6.609
13224SOL     OW41504   3.324   5.294  10.853
13224SOL    HW141505   3.249   5.321  10.799
13224SOL    HW241506   3.327   5.358  10.923
13225SOL     OW41507  13.266   3.323   8.225
13225SOL    HW141508  13.209   3.279   8.162
13225SOL    HW241509  13.211   3.336   8.302
13226SOL     OW41510   1.369   9.945  10.038
13226SOL    HW141511   1.317  10.008  10.088
13226SOL    HW241512   1.412   9.998   9.970
13227SOL     OW41513  12.865   9.033  11.158
13227SOL    HW141514  12.809   8.959  11.137
13227SOL    HW241515  12.873   9.082  11.076
13228SOL     OW41516  13.127  13.593   5.571
13228SOL    HW141517  13.136  13.598   5.476
13228SOL    HW241518  13.070  13.519   5.586
13229SOL     OW41519   2.748   2.757   9.988
13229SOL    HW141520   2.804   2.770  10.065
13229SOL    HW241521   2.668   2.806  10.009
13230SOL     OW41522   6.610  14.742  14.626
13230SOL    HW141523   6.533  14.696  14.658
13230SOL    HW241524   6.590  14.835  14.641
13231SOL     OW41525   8.479   4.860   8.026
13231SOL    HW141526   8.392   4.820   8.024
13231SOL    HW241527   8.507   4.851   8.117
13232SOL     OW41528   3.919  12.823  11.849
13232SOL    HW141529   3.857  12.859  11.785
13232SOL    HW241530   3.864  12.785  11.918
13233SOL     OW41531   1.375  14.782   6.069
13233SOL    HW141532   1.442  14.779   6.001
13233SOL    HW241533   1.297  14.817   6.025
13234SOL     OW41534  13.307   8.575   3.676
13234SOL    HW141535  13.385   8.539   3.634
13234SOL    HW241536  13.338   8.654   3.721
13235SOL     OW41537   8.436   4.507   9.500
13235SOL    HW141538   8.460   4.577   9.561
13235SOL    HW241539   8.369   4.547   9.444
13236SOL     OW41540   9.917  13.547   3.832
13236SOL    HW141541   9.833  13.504   3.817
13236SOL    HW241542   9.895  13.634   3.864
13237SOL     OW41543   0.542  12.985   7.474
13237SOL    HW141544   0.459  13.015   7.511
13237SOL    HW241545   0.529  12.988   7.379
13238SOL     OW41546   9.712   8.868  13.459
13238SOL    HW141547   9.664   8.946  13.486
13238SOL    HW241548   9.747   8.832  13.541
13239SOL     OW41549   1.060  13.387   6.993
13239SOL    HW141550   1.070  13.387   6.898
13239SOL    HW241551   1.119  13.318   7.024
13240SOL     OW41552   7.756   2.423  11.775
13240SOL    HW141553   7.675   2.461  11.809
13240SOL    HW241554   7.757   2.448  11.683
13241SOL     OW41555   4.330   7.635   0.344
13241SOL    HW141556   4.418   7.611   0.314
13241SOL    HW241557   4.345   7.682   0.426
13242SOL     OW41558   9.327   5.104  12.689
13242SOL    HW141559   9.262   5.061  12.634
13242SOL    HW241560   9.322   5.197  12.664
13243SOL     OW41561  14.566  13.809   8.925
13243SOL    HW141562  14.573  13.715   8.939
13243SOL    HW241563  14.591  13.821   8.833
13244SOL     OW41564   5.122   1.497   0.182
13244SOL    HW141565   5.106   1.456   0.097
13244SOL    HW241566   5.092   1.587   0.172
13245SOL     OW41567   8.619   6.994   3.176
13245SOL    HW141568   8.537   6.945   3.175
13245SOL    HW241569   8.634   7.019   3.085
13246SOL     OW41570   3.289   9.151  12.619
13246SOL    HW141571   3.198   9.138  12.592
13246SOL    HW241572   3.341   9.130  12.541
13247SOL     OW41573   6.552   3.676   4.749
13247SOL    HW141574   6.476   3.621   4.766
13247SOL    HW241575   6.612   3.657   4.822
13248SOL     OW41576  13.703   7.421   2.466
13248SOL    HW141577  13.709   7.474   2.386
13248SOL    HW241578  13.788   7.432   2.508
13249SOL     OW41579   5.682   9.311   7.044
13249SOL    HW141580   5.716   9.332   7.131
13249SOL    HW241581   5.749   9.255   7.005
13250SOL     OW41582  13.985   4.499  10.443
13250SOL    HW141583  13.965   4.533  10.356
13250SOL    HW241584  13.939   4.414  10.446
13251SOL     OW41585   6.463   1.415   4.854
13251SOL    HW141586   6.371   1.440   4.847
13251SOL    HW241587   6.471   1.336   4.801
13252SOL     OW41588   1.168  10.093   8.772
13252SOL    HW141589   1.194  10.034   8.843
13252SOL    HW241590   1.245  10.147   8.756
13253SOL     OW41591   8.358  13.209   2.990
13253SOL    HW141592   8.349  13.234   2.898
13253SOL    HW241593   8.286  13.148   3.005
13254SOL     OW41594  10.955   3.773  10.094
13254SOL    HW141595  10.867   3.799  10.121
13254SOL    HW241596  10.971   3.823  10.013
13255SOL     OW41597   5.411   8.102   9.944
13255SOL    HW141598   5.417   8.197   9.957
13255SOL    HW241599   5.474   8.065  10.005
13256SOL     OW41600   2.913  11.232  11.843
13256SOL    HW141601   2.923  11.178  11.922
13256SOL    HW241602   2.831  11.202  11.804
13257SOL     OW41603   4.503   5.363  11.717
13257SOL    HW141604   4.589   5.395  11.745
13257SOL    HW241605   4.495   5.391  11.626
13258SOL     OW41606   8.139   6.273   8.232
13258SOL    HW141607   8.160   6.239   8.145
13258SOL    HW241608   8.131   6.368   8.219
13259SOL     OW41609   4.864   9.863  13.338
13259SOL    HW141610   4.958   9.871  13.355
13259SOL    HW241611   4.827   9.830  13.419
13260SOL     OW41612   3.510   2.437   7.507
13260SOL    HW141613   3.449   2.505   7.536
13260SOL    HW241614   3.519   2.452   7.413
13261SOL     OW41615   1.150   3.082   2.620
13261SOL    HW141616   1.199   3.161   2.600
13261SOL    HW241617   1.060   3.112   2.633
13262SOL     OW41618   7.514   3.295   3.368
13262SOL    HW141619   7.453   3.231   3.331
13262SOL    HW241620   7.479   3.380   3.341
13263SOL     OW41621  10.596   8.062   9.439
13263SOL    HW141622  10.565   8.064   9.530
13263SOL    HW241623  10.641   8.145   9.427
13264SOL     OW41624   4.653   3.493  11.137
13264SOL    HW141625   4.575   3.501  11.082
13264SOL    HW241626   4.621   3.506  11.227
13265SOL     OW41627   9.844   8.942  13.225
13265SOL    HW141628   9.888   9.016  13.269
13265SOL    HW241629   9.800   8.895  13.296
13266SOL     OW41630   6.229   9.669  11.161
13266SOL    HW141631   6.305   9.719  11.190
13266SOL    HW241632   6.174   9.662  11.240
13267SOL     OW41633   9.331   6.471  12.495
13267SOL    HW141634   9.237   6.455  12.504
13267SOL    HW241635   9.365   6.470  12.584
13268SOL     OW41636  14.169   3.905   1.894
13268SOL    HW141637  14.076   3.894   1.874
13268SOL    HW241638  14.202   3.961   1.824
13269SOL     OW41639  13.806   9.008   3.005
13269SOL    HW141640  13.859   8.932   2.981
13269SOL    HW241641  13.773   9.041   2.922
13270SOL     OW41642   6.958   7.807   8.741
13270SOL    HW141643   6.904   7.796   8.819
13270SOL    HW241644   7.039   7.760   8.761
13271SOL     OW41645  12.292  11.276   6.121
13271SOL    HW141646  12.214  11.268   6.065
13271SOL    HW241647  12.293  11.195   6.172
13272SOL     OW41648   5.333   6.631  14.817
13272SOL    HW141649   5.360   6.695   0.010
13272SOL    HW241650   5.244   6.657  14.792
13273SOL     OW41651   3.039   7.435   4.647
13273SOL    HW141652   3.128   7.401   4.658
13273SOL    HW241653   2.985   7.377   4.700
13274SOL     OW41654  10.808   0.369   8.046
13274SOL    HW141655  10.738   0.421   8.086
13274SOL    HW241656  10.799   0.384   7.952
13275SOL     OW41657   0.414   1.048   3.885
13275SOL    HW141658   0.498   1.001   3.892
13275SOL    HW241659   0.422   1.119   3.948
13276SOL     OW41660   3.144   7.742  13.510
13276SOL    HW141661   3.070   7.687  13.485
13276SOL    HW241662   3.133   7.756  13.604
13277SOL     OW41663   2.711   1.613   2.677
13277SOL    HW141664   2.749   1.616   2.764
13277SOL    HW241665   2.680   1.523   2.666
13278SOL     OW41666  14.770   9.863   5.405
13278SOL    HW141667  14.699   9.909   5.451
13278SOL    HW241668  14.727   9.788   5.365
13279SOL     OW41669   0.508   3.970   9.582
13279SOL    HW141670   0.540   3.913   9.513
13279SOL    HW241671   0.485   3.911   9.654
13280SOL     OW41672   2.707   6.571   2.868
13280SOL    HW141673   2.769   6.541   2.801
13280SOL    HW241674   2.626   6.588   2.820
13281SOL     OW41675   6.159   1.558   6.441
13281SOL    HW141676   6.213   1.610   6.501
13281SOL    HW241677   6.080   1.538   6.491
13282SOL     OW41678   1.808   4.330   2.313
13282SOL    HW141679   1.852   4.357   2.232
13282SOL    HW241680   1.851   4.248   2.337
13283SOL     OW41681   9.323   7.524   4.705
13283SOL    HW141682   9.322   7.504   4.798
13283SOL    HW241683   9.368   7.450   4.664
13284SOL     OW41684   2.247   9.467  13.865
13284SOL    HW141685   2.242   9.429  13.953
13284SOL    HW241686   2.215   9.398  13.808
13285SOL     OW41687   4.840   1.061   8.038
13285SOL    HW141688   4.755   1.040   7.998
13285SOL    HW241689   4.882   0.976   8.051
13286SOL     OW41690   7.600  13.602  10.096
13286SOL    HW141691   7.654  13.555  10.160
13286SOL    HW241692   7.615  13.556  10.013
13287SOL     OW41693   5.677   3.337   8.268
13287SOL    HW141694   5.638   3.335   8.180
13287SOL    HW241695   5.633   3.266   8.315
13288SOL     OW41696   1.307   3.353   2.579
13288SOL    HW141697   1.399   3.328   2.570
13288SOL    HW241698   1.297   3.430   2.523
13289SOL     OW41699   3.829   8.260   5.441
13289SOL    HW141700   3.802   8.245   5.350
13289SOL    HW241701   3.788   8.189   5.491
13290SOL     OW41702  10.400  10.416   3.401
13290SOL    HW141703  10.351  10.496   3.420
13290SOL    HW241704  10.491  10.440   3.414
13291SOL     OW41705   9.236   2.594  12.134
13291SOL    HW141706   9.254   2.627  12.045
13291SOL    HW241707   9.304   2.632  12.188
13292SOL     OW41708   5.450  13.111  12.883
13292SOL    HW141709   5.511  13.129  12.812
13292SOL    HW241710   5.383  13.054  12.845
13293SOL     OW41711  14.529  13.708  13.655
13293SOL    HW141712  14.433  13.709  13.654
13293SOL    HW241713  14.553  13.746  13.570
13294SOL     OW41714   0.032  11.211  10.669
13294SOL    HW141715  14.844  11.155  10.622
13294SOL    HW241716   0.091  11.151  10.714
13295SOL     OW41717  11.823   7.247   3.785
13295SOL    HW141718  11.872   7.315   3.831
13295SOL    HW241719  11.827   7.272   3.693
13296SOL     OW41720   1.601  11.444   9.120
13296SOL    HW141721   1.600  11.355   9.156
13296SOL    HW241722   1.511  11.459   9.092
13297SOL     OW41723  12.018   4.715   8.791
13297SOL    HW141724  11.927   4.722   8.818
13297SOL    HW241725  12.020   4.640   8.731
13298SOL     OW41726  12.026   5.455  10.123
13298SOL    HW141727  11.995   5.400  10.195
13298SOL    HW241728  12.010   5.545  10.153
13299SOL     OW41729  14.550   3.668  13.567
13299SOL    HW141730  14.544   3.734  13.498
13299SOL    HW241731  14.571   3.718  13.646
13300SOL     OW41732   2.648  11.647   2.126
13300SOL    HW141733   2.688  11.710   2.188
13300SOL    HW241734   2.569  11.691   2.095
13301SOL     OW41735   1.220   2.255   5.077
13301SOL    HW141736   1.235   2.203   5.156
13301SOL    HW241737   1.132   2.233   5.049
13302SOL     OW41738   2.053   6.162   7.786
13302SOL    HW141739   2.127   6.104   7.806
13302SOL    HW241740   2.020   6.132   7.701
13303SOL     OW41741   5.241   8.110  11.746
13303SOL    HW141742   5.331   8.139  11.732
13303SOL    HW241743   5.247   8.014  11.749
13304SOL     OW41744   2.206  11.369   1.561
13304SOL    HW141745   2.252  11.444   1.597
13304SOL    HW241746   2.207  11.304   1.631
13305SOL     OW41747   2.967  10.336   5.541
13305SOL    HW141748   2.904  10.307   5.608
13305SOL    HW241749   3.050  10.342   5.588
13306SOL     OW41750  14.542   0.948   9.187
13306SOL    HW141751  14.524   0.945   9.281
13306SOL    HW241752  14.457   0.930   9.145
13307SOL     OW41753   3.020   5.528   3.386
13307SOL    HW141754   3.023   5.448   3.332
13307SOL    HW241755   3.103   5.528   3.433
13308SOL     OW41756  14.356  10.358  12.561
13308SOL    HW141757  14.405  10.290  12.515
13308SOL    HW241758  14.329  10.419  12.493
13309SOL     OW41759   7.485   1.161   6.897
13309SOL    HW141760   7.522   1.117   6.974
13309SOL    HW241761   7.528   1.247   6.895
13310SOL     OW41762   0.754   7.990   3.829
13310SOL    HW141763   0.731   7.997   3.921
13310SOL    HW241764   0.849   7.979   3.828
13311SOL     OW41765   7.877   2.739   8.072
13311SOL    HW141766   7.970   2.716   8.078
13311SOL    HW241767   7.870   2.790   7.992
13312SOL     OW41768  14.345   5.752  14.710
13312SOL    HW141769  14.327   5.717  14.797
13312SOL    HW241770  14.420   5.702  14.678
13313SOL     OW41771   1.891   0.022   3.279
13313SOL    HW141772   1.941   0.019   3.360
13313SOL    HW241773   1.952   0.057   3.214
13314SOL     OW41774  13.668   3.647   6.188
13314SOL    HW141775  13.623   3.563   6.189
13314SOL    HW241776  13.700   3.658   6.278
13315SOL     OW41777  13.730   2.091   7.450
13315SOL    HW141778  13.783   2.091   7.370
13315SOL    HW241779  13.782   2.138   7.514
13316SOL     OW41780   8.141   2.688  13.928
13316SOL    HW141781   8.090   2.710  13.850
13316SOL    HW241782   8.170   2.772  13.963
13317SOL     OW41783   6.836   6.877   7.876
13317SOL    HW141784   6.790   6.872   7.960
13317SOL    HW241785   6.771   6.849   7.811
13318SOL     OW41786  14.804   8.381   4.695
13318SOL    HW141787  14.731   8.420   4.742
13318SOL    HW241788   0.005   8.388   4.756
13319SOL     OW41789   6.607   4.755   3.336
13319SOL    HW141790   6.582   4.840   3.299
13319SOL    HW241791   6.619   4.699   3.259
13320SOL     OW41792  12.106   7.182   1.136
13320SOL    HW141793  12.067   7.146   1.216
13320SOL    HW241794  12.155   7.109   1.099
13321SOL     OW41795  13.867  13.535   5.267
13321SOL    HW141796  13.888  13.562   5.178
13321SOL    HW241797  13.777  13.506   5.263
13322SOL     OW41798   7.158  11.920   7.021
13322SOL    HW141799   7.246  11.956   7.032
13322SOL    HW241800   7.168  11.853   6.953
13323SOL     OW41801   1.844   0.927  14.551
13323SOL    HW141802   1.898   0.860  14.510
13323SOL    HW241803   1.790   0.879  14.614
13324SOL     OW41804  14.016   3.651  12.199
13324SOL    HW141805  14.051   3.607  12.121
13324SOL    HW241806  14.051   3.740  12.194
13325SOL     OW41807   3.774  11.406   9.642
13325SOL    HW141808   3.828  11.328   9.630
13325SOL    HW241809   3.685  11.371   9.657
13326SOL     OW41810  12.865  12.436   0.076
13326SOL    HW141811  12.887  12.445   0.169
13326SOL    HW241812  12.877  12.523   0.040
13327SOL     OW41813  10.890   3.240   1.063
13327SOL    HW141814  10.858   3.317   1.109
13327SOL    HW241815  10.942   3.193   1.128
13328SOL     OW41816   1.454   6.676   2.541
13328SOL    HW141817   1.452   6.601   2.600
13328SOL    HW241818   1.508   6.649   2.468
13329SOL     OW41819   0.830   9.089   1.101
13329SOL    HW141820   0.854   9.030   1.173
13329SOL    HW241821   0.798   9.030   1.032
13330SOL     OW41822   4.474  10.378   7.175
13330SOL    HW141823   4.441  10.375   7.265
13330SOL    HW241824   4.490  10.471   7.158
13331SOL     OW41825   4.319   2.447   7.319
13331SOL    HW141826   4.342   2.375   7.261
13331SOL    HW241827   4.265   2.407   7.387
13332SOL     OW41828  11.668   0.466   1.661
13332SOL    HW141829  11.594   0.422   1.704
13332SOL    HW241830  11.704   0.400   1.602
13333SOL     OW41831   5.288   6.430  13.392
13333SOL    HW141832   5.209   6.393  13.430
13333SOL    HW241833   5.263   6.455  13.303
13334SOL     OW41834   2.310  13.633  12.404
13334SOL    HW141835   2.322  13.552  12.354
13334SOL    HW241836   2.350  13.701  12.350
13335SOL     OW41837   4.520   2.485   6.259
13335SOL    HW141838   4.537   2.549   6.191
13335SOL    HW241839   4.560   2.522   6.338
13336SOL     OW41840   1.029   8.040   8.339
13336SOL    HW141841   0.955   8.093   8.310
13336SOL    HW241842   1.014   8.029   8.433
13337SOL     OW41843  10.348  10.558   1.264
13337SOL    HW141844  10.420  10.547   1.326
13337SOL    HW241845  10.378  10.627   1.204
13338SOL     OW41846   3.886   8.727   9.359
13338SOL    HW141847   3.956   8.787   9.386
13338SOL    HW241848   3.848   8.697   9.441
13339SOL     OW41849   6.806   4.599  11.810
13339SOL    HW141850   6.841   4.532  11.868
13339SOL    HW241851   6.814   4.680  11.859
13340SOL     OW41852   4.560   5.405   6.611
13340SOL    HW141853   4.586   5.488   6.650
13340SOL    HW241854   4.488   5.428   6.552
13341SOL     OW41855   2.080   8.217   2.382
13341SOL    HW141856   2.166   8.250   2.408
13341SOL    HW241857   2.029   8.217   2.463
13342SOL     OW41858   5.959   7.961   2.699
13342SOL    HW141859   5.899   7.890   2.720
13342SOL    HW241860   5.908   8.019   2.642
13343SOL     OW41861   5.994   0.729   2.667
13343SOL    HW141862   6.002   0.693   2.755
13343SOL    HW241863   6.054   0.678   2.614
13344SOL     OW41864  13.854   9.110  12.454
13344SOL    HW141865  13.927   9.053  12.427
13344SOL    HW241866  13.778   9.052  12.453
13345SOL     OW41867   0.327  10.837   6.588
13345SOL    HW141868   0.266  10.830   6.514
13345SOL    HW241869   0.278  10.888   6.653
13346SOL     OW41870  13.839   2.371   9.152
13346SOL    HW141871  13.796   2.288   9.174
13346SOL    HW241872  13.827   2.380   9.058
13347SOL     OW41873  14.752   3.232   1.151
13347SOL    HW141874  14.810   3.266   1.219
13347SOL    HW241875  14.704   3.309   1.120
13348SOL     OW41876   7.958   4.826  10.514
13348SOL    HW141877   8.003   4.756  10.561
13348SOL    HW241878   7.867   4.796  10.506
13349SOL     OW41879  10.844  10.863   4.379
13349SOL    HW141880  10.845  10.767   4.381
13349SOL    HW241881  10.797  10.888   4.458
13350SOL     OW41882  12.329   3.748   8.634
13350SOL    HW141883  12.339   3.791   8.719
13350SOL    HW241884  12.394   3.678   8.634
13351SOL     OW41885   7.106   6.721  14.641
13351SOL    HW141886   7.029   6.750  14.690
13351SOL    HW241887   7.075   6.715  14.550
13352SOL     OW41888   8.251   8.079  14.715
13352SOL    HW141889   8.183   8.012  14.722
13352SOL    HW241890   8.333   8.030  14.719
13353SOL     OW41891   3.676   0.615   8.441
13353SOL    HW141892   3.681   0.702   8.400
13353SOL    HW241893   3.726   0.623   8.522
13354SOL     OW41894   7.800   2.578   3.634
13354SOL    HW141895   7.772   2.636   3.563
13354SOL    HW241896   7.882   2.539   3.603
13355SOL     OW41897  13.236   2.850  12.546
13355SOL    HW141898  13.185   2.911  12.493
13355SOL    HW241899  13.280   2.794  12.482
13356SOL     OW41900   3.642   4.329   4.163
13356SOL    HW141901   3.667   4.314   4.072
13356SOL    HW241902   3.584   4.405   4.160
13357SOL     OW41903   6.303  12.324   6.214
13357SOL    HW141904   6.229  12.269   6.237
13357SOL    HW241905   6.311  12.316   6.119
13358SOL     OW41906   0.332  12.142   1.413
13358SOL    HW141907   0.352  12.126   1.505
13358SOL    HW241908   0.320  12.055   1.375
13359SOL     OW41909   8.306  12.624  14.354
13359SOL    HW141910   8.257  12.683  14.411
13359SOL    HW241911   8.356  12.683  14.297
13360SOL     OW41912   9.217   3.341   2.014
13360SOL    HW141913   9.200   3.434   2.005
13360SOL    HW241914   9.153   3.299   1.956
13361SOL     OW41915  13.423   4.186   0.818
13361SOL    HW141916  13.511   4.167   0.787
13361SOL    HW241917  13.366   4.133   0.763
13362SOL     OW41918   0.648  13.102   9.743
13362SOL    HW141919   0.694  13.147   9.813
13362SOL    HW241920   0.611  13.024   9.786
13363SOL     OW41921  10.325   1.419   2.858
13363SOL    HW141922  10.346   1.499   2.908
13363SOL    HW241923  10.243   1.440   2.813
13364SOL     OW41924  11.332  11.169   9.815
13364SOL    HW141925  11.260  11.231   9.833
13364SOL    HW241926  11.351  11.129   9.900
13365SOL     OW41927  13.831   8.206   3.411
13365SOL    HW141928  13.880   8.280   3.376
13365SOL    HW241929  13.801   8.235   3.497
13366SOL     OW41930   6.773  13.904   7.042
13366SOL    HW141931   6.828  13.941   6.973
13366SOL    HW241932   6.690  13.952   7.035
13367SOL     OW41933   0.981   8.122   1.120
13367SOL    HW141934   1.045   8.174   1.073
13367SOL    HW241935   0.942   8.065   1.053
13368SOL     OW41936   6.301   4.841   3.060
13368SOL    HW141937   6.394   4.861   3.050
13368SOL    HW241938   6.295   4.747   3.042
13369SOL     OW41939  14.870   9.480  13.765
13369SOL    HW141940   0.008   9.387  13.783
13369SOL    HW241941   0.065   9.500  13.701
13370SOL     OW41942   9.858   6.632   6.162
13370SOL    HW141943   9.941   6.588   6.181
13370SOL    HW241944   9.793   6.563   6.168
13371SOL     OW41945  11.388   4.610   1.355
13371SOL    HW141946  11.297   4.597   1.380
13371SOL    HW241947  11.437   4.599   1.436
13372SOL     OW41948  11.562  13.506  11.955
13372SOL    HW141949  11.489  13.484  11.897
13372SOL    HW241950  11.640  13.498  11.900
13373SOL     OW41951  12.935   0.197   1.242
13373SOL    HW141952  12.989   0.276   1.242
13373SOL    HW241953  12.853   0.223   1.285
13374SOL     OW41954   2.210   8.682   3.224
13374SOL    HW141955   2.195   8.752   3.288
13374SOL    HW241956   2.126   8.639   3.215
13375SOL     OW41957  14.129  10.116  11.498
13375SOL    HW141958  14.215  10.089  11.467
13375SOL    HW241959  14.072  10.041  11.478
13376SOL     OW41960   4.876  13.052  10.001
13376SOL    HW141961   4.953  13.099   9.969
13376SOL    HW241962   4.891  13.044  10.095
13377SOL     OW41963   3.177   4.742   7.387
13377SOL    HW141964   3.238   4.779   7.323
13377SOL    HW241965   3.152   4.816   7.442
13378SOL     OW41966   8.934  12.883   8.104
13378SOL    HW141967   8.954  12.918   8.018
13378SOL    HW241968   8.879  12.950   8.145
13379SOL     OW41969  11.191   3.535   2.059
13379SOL    HW141970  11.142   3.601   2.110
13379SOL    HW241971  11.186   3.456   2.113
13380SOL     OW41972  12.380  14.346   8.950
13380SOL    HW141973  12.300  14.347   9.002
13380SOL    HW241974  12.445  14.302   9.006
13381SOL     OW41975  11.517   5.880   6.376
13381SOL    HW141976  11.557   5.835   6.301
13381SOL    HW241977  11.501   5.810   6.440
13382SOL     OW41978  11.756   5.787   9.719
13382SOL    HW141979  11.701   5.865   9.719
13382SOL    HW241980  11.754   5.756   9.810
13383SOL     OW41981   6.148   4.289   2.352
13383SOL    HW141982   6.226   4.256   2.395
13383SOL    HW241983   6.168   4.283   2.258
13384SOL     OW41984   8.780   8.452  14.633
13384SOL    HW141985   8.732   8.487  14.708
13384SOL    HW241986   8.868   8.433  14.668
13385SOL     OW41987  10.020   2.315   4.409
13385SOL    HW141988  10.097   2.338   4.461
13385SOL    HW241989   9.990   2.232   4.446
13386SOL     OW41990  11.087   5.401  12.149
13386SOL    HW141991  11.116   5.479  12.196
13386SOL    HW241992  10.991   5.410  12.145
13387SOL     OW41993  11.896   2.519  12.693
13387SOL    HW141994  11.856   2.491  12.775
13387SOL    HW241995  11.904   2.614  12.701
13388SOL     OW41996   7.115   4.544   9.806
13388SOL    HW141997   7.134   4.629   9.767
13388SOL    HW241998   7.081   4.564   9.893
13389SOL     OW41999   2.733   6.008  13.397
13389SOL    HW142000   2.712   6.052  13.479
13389SOL    HW242001   2.674   5.932  13.396
13390SOL     OW42002   5.194   8.696   6.298
13390SOL    HW142003   5.262   8.658   6.242
13390SOL    HW242004   5.132   8.736   6.237
13391SOL     OW42005   4.926   8.940   4.847
13391SOL    HW142006   4.978   9.014   4.879
13391SOL    HW242007   4.953   8.929   4.756
13392SOL     OW42008   5.680   9.158   0.285
13392SOL    HW142009   5.697   9.153   0.379
13392SOL    HW242010   5.638   9.074   0.263
13393SOL     OW42011  11.043   3.591  10.283
13393SOL    HW142012  11.050   3.682  10.252
13393SOL    HW242013  10.949   3.572  10.279
13394SOL     OW42014   4.745   6.579   7.110
13394SOL    HW142015   4.657   6.559   7.077
13394SOL    HW242016   4.751   6.530   7.192
13395SOL     OW42017   7.236   3.313   7.445
13395SOL    HW142018   7.170   3.245   7.458
13395SOL    HW242019   7.196   3.374   7.383
13396SOL     OW42020  13.145   5.542  13.680
13396SOL    HW142021  13.078   5.609  13.664
13396SOL    HW242022  13.107   5.486  13.748
13397SOL     OW42023   7.239  13.139   6.971
13397SOL    HW142024   7.291  13.218   6.959
13397SOL    HW242025   7.263  13.082   6.898
13398SOL     OW42026  14.869   9.791   1.488
13398SOL    HW142027  14.862   9.797   1.392
13398SOL    HW242028  14.807   9.856   1.520
13399SOL     OW42029  13.134   9.338   4.986
13399SOL    HW142030  13.117   9.280   5.060
13399SOL    HW242031  13.228   9.330   4.970
13400SOL     OW42032  14.139  11.380   3.807
13400SOL    HW142033  14.157  11.432   3.886
13400SOL    HW242034  14.045  11.391   3.792
13401SOL     OW42035   2.820   0.182  13.663
13401SOL    HW142036   2.769   0.117  13.711
13401SOL    HW242037   2.827   0.146  13.575
13402SOL     OW42038  10.240   1.455   0.849
13402SOL    HW142039  10.182   1.409   0.911
13402SOL    HW242040  10.310   1.392   0.832
13403SOL     OW42041   5.067  13.206   0.056
13403SOL    HW142042   5.133  13.193   0.124
13403SOL    HW242043   5.052  13.119   0.019
13404SOL     OW42044   5.024   0.346   0.736
13404SOL    HW142045   4.992   0.433   0.759
13404SOL    HW242046   5.118   0.351   0.749
13405SOL     OW42047   7.830  11.680  11.988
13405SOL    HW142048   7.879  11.758  11.964
13405SOL    HW242049   7.814  11.689  12.082
13406SOL     OW42050   1.263   7.936   1.135
13406SOL    HW142051   1.353   7.962   1.116
13406SOL    HW242052   1.234   7.998   1.203
13407SOL     OW42053   0.142   9.147   0.181
13407SOL    HW142054   0.121   9.220   0.123
13407SOL    HW242055   0.084   9.076   0.153
13408SOL     OW42056   5.915   5.731  10.037
13408SOL    HW142057   5.872   5.745   9.953
13408SOL    HW242058   5.970   5.808  10.050
13409SOL     OW42059   8.965  11.263   6.844
13409SOL    HW142060   8.902  11.281   6.774
13409SOL    HW242061   8.929  11.307   6.921
13410SOL     OW42062   8.389   7.418  13.778
13410SOL    HW142063   8.429   7.496  13.741
13410SOL    HW242064   8.453   7.348  13.765
13411SOL     OW42065   3.961  12.183   5.182
13411SOL    HW142066   3.906  12.191   5.104
13411SOL    HW242067   3.927  12.105   5.227
13412SOL     OW42068   4.662  13.293  11.885
13412SOL    HW142069   4.742  13.243  11.898
13412SOL    HW242070   4.690  13.371  11.836
13413SOL     OW42071   8.692   0.025   5.079
13413SOL    HW142072   8.673  14.856   5.163
13413SOL    HW242073   8.781   0.060   5.089
13414SOL     OW42074  10.444  14.573   2.874
13414SOL    HW142075  10.386  14.511   2.829
13414SOL    HW242076  10.507  14.600   2.808
13415SOL     OW42077   4.588  10.324  13.865
13415SOL    HW142078   4.620  10.397  13.812
13415SOL    HW242079   4.494  10.321  13.847
13416SOL     OW42080  14.608  12.279   4.505
13416SOL    HW142081  14.532  12.327   4.536
13416SOL    HW242082  14.675  12.295   4.572
13417SOL     OW42083   6.939   1.792   0.109
13417SOL    HW142084   6.948   1.863   0.046
13417SOL    HW242085   7.028   1.764   0.128
13418SOL     OW42086  12.437   1.556   3.712
13418SOL    HW142087  12.381   1.514   3.777
13418SOL    HW242088  12.526   1.538   3.742
13419SOL     OW42089   1.051   2.468   2.758
13419SOL    HW142090   1.036   2.510   2.674
13419SOL    HW242091   0.985   2.399   2.763
13420SOL     OW42092   1.474  10.877  13.661
13420SOL    HW142093   1.423  10.957  13.644
13420SOL    HW242094   1.506  10.850  13.575
13421SOL     OW42095  14.404   0.531  11.963
13421SOL    HW142096  14.391   0.593  11.891
13421SOL    HW242097  14.439   0.452  11.920
13422SOL     OW42098  14.027  12.459   7.917
13422SOL    HW142099  14.053  12.408   7.841
13422SOL    HW242100  14.086  12.430   7.987
13423SOL     OW42101   7.236   4.609  13.270
13423SOL    HW142102   7.145   4.626  13.245
13423SOL    HW242103   7.231   4.585  13.363
13424SOL     OW42104  11.240  13.568   3.926
13424SOL    HW142105  11.200  13.481   3.920
13424SOL    HW242106  11.323  13.559   3.879
13425SOL     OW42107   2.100   6.687   1.470
13425SOL    HW142108   2.084   6.614   1.410
13425SOL    HW242109   2.184   6.667   1.511
13426SOL     OW42110   0.113   2.261   8.108
13426SOL    HW142111   0.172   2.313   8.163
13426SOL    HW242112   0.152   2.267   8.020
13427SOL     OW42113   0.977   0.092   0.911
13427SOL    HW142114   1.049   0.031   0.900
13427SOL    HW242115   0.902   0.048   0.873
13428SOL     OW42116  12.708   5.594  11.540
13428SOL    HW142117  12.765   5.667  11.563
13428SOL    HW242118  12.764   5.535  11.489
13429SOL     OW42119   0.983  13.362  11.168
13429SOL    HW142120   1.037  13.295  11.210
13429SOL    HW242121   1.035  13.393  11.094
13430SOL     OW42122   0.826   5.312  10.772
13430SOL    HW142123   0.811   5.246  10.839
13430SOL    HW242124   0.830   5.264  10.690
13431SOL     OW42125   5.893   8.389   6.058
13431SOL    HW142126   5.974   8.415   6.015
13431SOL    HW242127   5.920   8.322   6.122
13432SOL     OW42128   2.446   8.454  11.342
13432SOL    HW142129   2.452   8.465  11.437
13432SOL    HW242130   2.393   8.375  11.330
13433SOL     OW42131   7.873  12.479   4.329
13433SOL    HW142132   7.850  12.502   4.239
13433SOL    HW242133   7.823  12.399   4.346
13434SOL     OW42134   5.157  14.098   5.463
13434SOL    HW142135   5.159  14.007   5.494
13434SOL    HW242136   5.220  14.101   5.392
13435SOL     OW42137   9.842   4.966   5.056
13435SOL    HW142138   9.774   5.032   5.042
13435SOL    HW242139   9.820   4.895   4.996
13436SOL     OW42140   3.924   4.934   3.187
13436SOL    HW142141   3.865   4.890   3.248
13436SOL    HW242142   4.003   4.878   3.185
13437SOL     OW42143   1.758   8.494   4.365
13437SOL    HW142144   1.693   8.450   4.310
13437SOL    HW242145   1.741   8.459   4.453
13438SOL     OW42146   8.326   5.467   8.908
13438SOL    HW142147   8.329   5.543   8.849
13438SOL    HW242148   8.367   5.497   8.989
13439SOL     OW42149  14.218  12.985   2.100
13439SOL    HW142150  14.232  12.923   2.028
13439SOL    HW242151  14.249  13.069   2.067
13440SOL     OW42152  13.992   5.564  10.395
13440SOL    HW142153  13.914   5.615  10.374
13440SOL    HW242154  14.054   5.583  10.325
13441SOL     OW42155  11.512   7.252  11.711
13441SOL    HW142156  11.447   7.256  11.641
13441SOL    HW242157  11.555   7.337  11.709
13442SOL     OW42158   7.052   6.933  11.395
13442SOL    HW142159   7.046   6.842  11.425
13442SOL    HW242160   7.080   6.982  11.473
13443SOL     OW42161  11.883  13.292   5.145
13443SOL    HW142162  11.970  13.270   5.112
13443SOL    HW242163  11.825  13.277   5.070
13444SOL     OW42164   4.701   9.234   1.287
13444SOL    HW142165   4.610   9.235   1.257
13444SOL    HW242166   4.752   9.222   1.206
13445SOL     OW42167  10.620   2.077   2.718
13445SOL    HW142168  10.710   2.096   2.744
13445SOL    HW242169  10.628   2.002   2.659
13446SOL     OW42170   5.141  11.524  13.591
13446SOL    HW142171   5.118  11.519  13.684
13446SOL    HW242172   5.083  11.462  13.548
13447SOL     OW42173   9.891  10.795   4.387
13447SOL    HW142174   9.890  10.763   4.477
13447SOL    HW242175   9.820  10.748   4.344
13448SOL     OW42176   2.974   8.715   5.671
13448SOL    HW142177   3.007   8.761   5.594
13448SOL    HW242178   2.904   8.659   5.637
13449SOL     OW42179  14.158   7.635   4.853
13449SOL    HW142180  14.167   7.601   4.764
13449SOL    HW242181  14.138   7.558   4.907
13450SOL     OW42182  13.246   3.750   5.293
13450SOL    HW142183  13.278   3.712   5.374
13450SOL    HW242184  13.181   3.815   5.321
13451SOL     OW42185   7.496   7.652   7.574
13451SOL    HW142186   7.556   7.673   7.503
13451SOL    HW242187   7.541   7.682   7.654
13452SOL     OW42188   2.290  10.489   0.841
13452SOL    HW142189   2.354  10.489   0.912
13452SOL    HW242190   2.208  10.465   0.882
13453SOL     OW42191  14.193   7.065  14.208
13453SOL    HW142192  14.281   7.028  14.211
13453SOL    HW242193  14.140   7.000  14.162
13454SOL     OW42194   6.405   1.430  11.063
13454SOL    HW142195   6.382   1.338  11.080
13454SOL    HW242196   6.446   1.459  11.145
13455SOL     OW42197  13.837  11.279  12.349
13455SOL    HW142198  13.756  11.329  12.336
13455SOL    HW242199  13.807  11.191  12.374
13456SOL     OW42200   4.357   0.542   2.150
13456SOL    HW142201   4.339   0.624   2.104
13456SOL    HW242202   4.419   0.565   2.218
13457SOL     OW42203   2.868  10.323  10.251
13457SOL    HW142204   2.828  10.236  10.257
13457SOL    HW242205   2.952  10.314  10.296
13458SOL     OW42206   0.055   4.195   2.839
13458SOL    HW142207   0.077   4.125   2.901
13458SOL    HW242208  14.867   4.251   2.888
13459SOL     OW42209  10.944   9.600   1.222
13459SOL    HW142210  10.852   9.620   1.204
13459SOL    HW242211  10.942   9.522   1.277
13460SOL     OW42212   8.047   6.652  11.230
13460SOL    HW142213   8.062   6.678  11.321
13460SOL    HW242214   8.100   6.574  11.217
13461SOL     OW42215   7.185   6.374  13.461
13461SOL    HW142216   7.256   6.326  13.505
13461SOL    HW242217   7.231   6.431  13.399
13462SOL     OW42218  11.284  10.055   5.106
13462SOL    HW142219  11.270  10.115   5.033
13462SOL    HW242220  11.305   9.971   5.065
13463SOL     OW42221  11.240   2.408   0.385
13463SOL    HW142222  11.262   2.364   0.467
13463SOL    HW242223  11.156   2.451   0.403
13464SOL     OW42224   7.129  11.702   6.855
13464SOL    HW142225   7.151  11.626   6.909
13464SOL    HW242226   7.157  11.677   6.767
13465SOL     OW42227   6.965   8.620   8.870
13465SOL    HW142228   7.055   8.600   8.846
13465SOL    HW242229   6.913   8.594   8.794
13466SOL     OW42230  14.838  11.618  13.364
13466SOL    HW142231  14.846  11.646  13.456
13466SOL    HW242232  14.789  11.688  13.322
13467SOL     OW42233  13.650   0.316   4.080
13467SOL    HW142234  13.581   0.322   4.146
13467SOL    HW242235  13.649   0.224   4.053
13468SOL     OW42236   4.658   5.904   7.075
13468SOL    HW142237   4.672   5.999   7.064
13468SOL    HW242238   4.597   5.881   7.005
13469SOL     OW42239   7.305  11.673   9.345
13469SOL    HW142240   7.374  11.680   9.410
13469SOL    HW242241   7.301  11.580   9.323
13470SOL     OW42242  10.040   4.745  12.157
13470SOL    HW142243  10.076   4.695  12.083
13470SOL    HW242244  10.083   4.708  12.234
13471SOL     OW42245   2.596  11.732   9.804
13471SOL    HW142246   2.635  11.820   9.799
13471SOL    HW242247   2.592  11.714   9.898
13472SOL     OW42248   7.303   0.975   9.556
13472SOL    HW142249   7.378   0.960   9.613
13472SOL    HW242250   7.333   0.948   9.469
13473SOL     OW42251  10.862   0.175   7.212
13473SOL    HW142252  10.902   0.262   7.209
13473SOL    HW242253  10.900   0.135   7.291
13474SOL     OW42254  13.525   8.153   1.792
13474SOL    HW142255  13.456   8.194   1.843
13474SOL    HW242256  13.551   8.221   1.728
13475SOL     OW42257  14.771   3.145   4.140
13475SOL    HW142258  14.743   3.132   4.049
13475SOL    HW242259  14.805   3.060   4.167
13476SOL     OW42260   7.765   6.273   2.294
13476SOL    HW142261   7.691   6.308   2.244
13476SOL    HW242262   7.841   6.288   2.238
13477SOL     OW42263   1.016  10.094   0.825
13477SOL    HW142264   0.980  10.143   0.751
13477SOL    HW242265   1.049  10.161   0.884
13478SOL     OW42266  11.491   9.349  11.804
13478SOL    HW142267  11.429   9.393  11.745
13478SOL    HW242268  11.477   9.391  11.889
13479SOL     OW42269   1.245   9.334   1.868
13479SOL    HW142270   1.155   9.323   1.837
13479SOL    HW242271   1.288   9.252   1.846
13480SOL     OW42272   4.328   9.627   8.160
13480SOL    HW142273   4.286   9.553   8.116
13480SOL    HW242274   4.421   9.607   8.158
13481SOL     OW42275   9.903   9.679  10.338
13481SOL    HW142276   9.854   9.650  10.261
13481SOL    HW242277   9.988   9.636  10.330
13482SOL     OW42278   4.818  14.308  13.198
13482SOL    HW142279   4.728  14.335  13.215
13482SOL    HW242280   4.827  14.313  13.103
13483SOL     OW42281   4.110   0.232   1.653
13483SOL    HW142282   4.152   0.293   1.714
13483SOL    HW242283   4.181   0.176   1.622
13484SOL     OW42284   1.415  11.465   1.260
13484SOL    HW142285   1.370  11.408   1.198
13484SOL    HW242286   1.380  11.552   1.243
13485SOL     OW42287   2.986   6.899   2.670
13485SOL    HW142288   2.942   6.907   2.755
13485SOL    HW242289   2.995   6.989   2.640
13486SOL     OW42290  10.985   7.230   7.936
13486SOL    HW142291  10.941   7.287   7.999
13486SOL    HW242292  11.032   7.289   7.878
13487SOL     OW42293   1.309   8.299   1.142
13487SOL    HW142294   1.392   8.346   1.133
13487SOL    HW242295   1.324   8.237   1.214
13488SOL     OW42296  10.549  13.415   1.552
13488SOL    HW142297  10.623  13.360   1.527
13488SOL    HW242298  10.585  13.473   1.619
13489SOL     OW42299  13.700   0.307  11.224
13489SOL    HW142300  13.684   0.374  11.158
13489SOL    HW242301  13.737   0.355  11.299
13490SOL     OW42302   0.205  13.342   6.455
13490SOL    HW142303   0.172  13.422   6.496
13490SOL    HW242304   0.178  13.272   6.515
13491SOL     OW42305  14.079  13.801  11.767
13491SOL    HW142306  14.154  13.750  11.738
13491SOL    HW242307  14.057  13.857  11.692
13492SOL     OW42308  11.377  11.900  10.935
13492SOL    HW142309  11.442  11.830  10.938
13492SOL    HW242310  11.332  11.895  11.019
13493SOL     OW42311  10.350   9.585   8.169
13493SOL    HW142312  10.395   9.522   8.225
13493SOL    HW242313  10.394   9.579   8.085
13494SOL     OW42314   3.619   2.437  13.878
13494SOL    HW142315   3.684   2.484  13.930
13494SOL    HW242316   3.657   2.434  13.790
13495SOL     OW42317  13.119  11.493   3.434
13495SOL    HW142318  13.165  11.517   3.354
13495SOL    HW242319  13.070  11.414   3.411
13496SOL     OW42320  12.351  13.368   8.764
13496SOL    HW142321  12.405  13.405   8.694
13496SOL    HW242322  12.321  13.284   8.729
13497SOL     OW42323  11.047   9.106   6.256
13497SOL    HW142324  11.078   9.095   6.346
13497SOL    HW242325  10.958   9.141   6.267
13498SOL     OW42326   7.815   1.010   5.552
13498SOL    HW142327   7.755   1.079   5.524
13498SOL    HW242328   7.764   0.955   5.611
13499SOL     OW42329  10.632   7.578   2.638
13499SOL    HW142330  10.654   7.523   2.562
13499SOL    HW242331  10.558   7.535   2.679
13500SOL     OW42332   2.414   0.013   9.640
13500SOL    HW142333   2.391  14.829   9.714
13500SOL    HW242334   2.472  14.832   9.586
13501SOL     OW42335  12.356  14.220   9.793
13501SOL    HW142336  12.436  14.176   9.764
13501SOL    HW242337  12.286  14.178   9.742
13502SOL     OW42338   0.757  14.275   9.786
13502SOL    HW142339   0.773  14.235   9.871
13502SOL    HW242340   0.834  14.329   9.769
13503SOL     OW42341  10.566  12.642   5.918
13503SOL    HW142342  10.569  12.717   5.859
13503SOL    HW242343  10.474  12.634   5.942
13504SOL     OW42344   3.834  10.410  11.035
13504SOL    HW142345   3.835  10.316  11.048
13504SOL    HW242346   3.926  10.435  11.027
13505SOL     OW42347  14.458   9.202  12.137
13505SOL    HW142348  14.471   9.169  12.226
13505SOL    HW242349  14.546   9.202  12.099
13506SOL     OW42350  10.889   0.939   8.238
13506SOL    HW142351  10.848   0.901   8.160
13506SOL    HW242352  10.849   1.025   8.248
13507SOL     OW42353  10.066  10.901   5.467
13507SOL    HW142354  10.026  10.848   5.398
13507SOL    HW242355   9.993  10.922   5.526
13508SOL     OW42356   7.905   6.480   5.905
13508SOL    HW142357   7.832   6.429   5.940
13508SOL    HW242358   7.978   6.463   5.965
13509SOL     OW42359   3.118  11.884   7.722
13509SOL    HW142360   3.131  11.797   7.685
13509SOL    HW242361   3.026  11.885   7.749
13510SOL     OW42362   1.408   9.612  11.393
13510SOL    HW142363   1.347   9.575  11.456
13510SOL    HW242364   1.434   9.538  11.338
13511SOL     OW42365   2.476   0.500   4.870
13511SOL    HW142366   2.433   0.575   4.910
13511SOL    HW242367   2.438   0.424   4.914
13512SOL     OW42368   2.087  11.166   5.250
13512SOL    HW142369   2.106  11.200   5.338
13512SOL    HW242370   2.163  11.111   5.229
13513SOL     OW42371   1.675   2.740   8.160
13513SOL    HW142372   1.721   2.687   8.226
13513SOL    HW242373   1.607   2.785   8.210
13514SOL     OW42374  13.063  14.755   6.085
13514SOL    HW142375  12.980  14.714   6.061
13514SOL    HW242376  13.040  14.846   6.107
13515SOL     OW42377   6.213  11.027  14.407
13515SOL    HW142378   6.194  11.076  14.487
13515SOL    HW242379   6.291  10.976  14.428
13516SOL     OW42380   9.956   9.068   9.402
13516SOL    HW142381   9.902   9.048   9.326
13516SOL    HW242382   9.952   9.163   9.410
13517SOL     OW42383   3.807   2.200   6.526
13517SOL    HW142384   3.825   2.199   6.432
13517SOL    HW242385   3.889   2.172   6.566
13518SOL     OW42386  10.276  10.589   7.681
13518SOL    HW142387  10.269  10.611   7.774
13518SOL    HW242388  10.188  10.603   7.647
13519SOL     OW42389  13.766  10.383   1.614
13519SOL    HW142390  13.701  10.313   1.621
13519SOL    HW242391  13.786  10.388   1.520
13520SOL     OW42392  12.675   6.688   1.429
13520SOL    HW142393  12.694   6.681   1.522
13520SOL    HW242394  12.591   6.735   1.425
13521SOL     OW42395   5.061   0.784  13.254
13521SOL    HW142396   5.060   0.785  13.349
13521SOL    HW242397   5.144   0.742  13.231
13522SOL     OW42398   6.888  10.941   6.264
13522SOL    HW142399   6.918  11.025   6.228
13522SOL    HW242400   6.793  10.942   6.250
13523SOL     OW42401  13.744  10.832   9.708
13523SOL    HW142402  13.694  10.754   9.734
13523SOL    HW242403  13.698  10.905   9.748
13524SOL     OW42404  11.763   0.033   0.472
13524SOL    HW142405  11.688  14.858   0.436
13524SOL    HW242406  11.816  14.839   0.515
13525SOL     OW42407   4.627   9.698   1.569
13525SOL    HW142408   4.545   9.650   1.583
13525SOL    HW242409   4.688   9.632   1.535
13526SOL     OW42410  12.279  13.469   9.003
13526SOL    HW142411  12.190  13.504   8.997
13526SOL    HW242412  12.290  13.418   8.923
13527SOL     OW42413  12.208  11.056  12.546
13527SOL    HW142414  12.236  11.124  12.607
13527SOL    HW242415  12.156  10.995  12.599
13528SOL     OW42416   8.925  14.461   6.358
13528SOL    HW142417   8.886  14.438   6.442
13528SOL    HW242418   8.880  14.541   6.332
13529SOL     OW42419  14.031   5.547  14.401
13529SOL    HW142420  14.040   5.484  14.472
13529SOL    HW242421  14.075   5.626  14.434
13530SOL     OW42422   0.328  10.242  11.510
13530SOL    HW142423   0.234  10.254  11.527
13530SOL    HW242424   0.353  10.169  11.566
13531SOL     OW42425   6.323   9.245   9.776
13531SOL    HW142426   6.234   9.210   9.782
13531SOL    HW242427   6.355   9.215   9.691
13532SOL     OW42428   9.091   6.835   3.579
13532SOL    HW142429   9.057   6.905   3.524
13532SOL    HW242430   9.026   6.765   3.572
13533SOL     OW42431  14.580   0.819   6.007
13533SOL    HW142432  14.600   0.866   5.926
13533SOL    HW242433  14.639   0.743   6.006
13534SOL     OW42434   7.875   8.845   5.193
13534SOL    HW142435   7.917   8.930   5.182
13534SOL    HW242436   7.948   8.784   5.206
13535SOL     OW42437   2.179   5.917   5.443
13535SOL    HW142438   2.254   5.961   5.404
13535SOL    HW242439   2.161   5.966   5.523
13536SOL     OW42440  10.650  12.347   5.600
13536SOL    HW142441  10.683  12.288   5.668
13536SOL    HW242442  10.627  12.289   5.527
13537SOL     OW42443   4.704  11.212  11.653
13537SOL    HW142444   4.736  11.252  11.734
13537SOL    HW242445   4.673  11.286  11.600
13538SOL     OW42446  10.613  11.817   2.265
13538SOL    HW142447  10.532  11.866   2.250
13538SOL    HW242448  10.614  11.750   2.197
13539SOL     OW42449  14.582   4.507   7.403
13539SOL    HW142450  14.507   4.456   7.433
13539SOL    HW242451  14.561   4.597   7.426
13540SOL     OW42452  13.327  11.621   8.279
13540SOL    HW142453  13.287  11.591   8.198
13540SOL    HW242454  13.336  11.542   8.333
13541SOL     OW42455   1.758   6.180   8.077
13541SOL    HW142456   1.734   6.153   8.166
13541SOL    HW242457   1.682   6.229   8.045
13542SOL     OW42458   6.033   8.710   5.923
13542SOL    HW142459   5.989   8.691   6.006
13542SOL    HW242460   5.982   8.783   5.886
13543SOL     OW42461  11.989   3.422  12.402
13543SOL    HW142462  11.945   3.449  12.321
13543SOL    HW242463  12.066   3.480  12.407
13544SOL     OW42464   5.746   3.528   3.895
13544SOL    HW142465   5.828   3.576   3.907
13544SOL    HW242466   5.700   3.577   3.826
13545SOL     OW42467  14.642  12.933   3.534
13545SOL    HW142468  14.640  12.850   3.487
13545SOL    HW242469  14.687  12.993   3.475
13546SOL     OW42470   7.468  12.547  13.171
13546SOL    HW142471   7.486  12.561  13.264
13546SOL    HW242472   7.373  12.546  13.164
13547SOL     OW42473   7.187   6.935  12.990
13547SOL    HW142474   7.253   6.872  12.961
13547SOL    HW242475   7.162   6.983  12.911
13548SOL     OW42476   5.128   8.294  14.585
13548SOL    HW142477   5.200   8.296  14.521
13548SOL    HW242478   5.062   8.353  14.548
13549SOL     OW42479   7.426  13.908   6.882
13549SOL    HW142480   7.476  13.892   6.962
13549SOL    HW242481   7.359  13.971   6.907
13550SOL     OW42482   8.715   4.773  14.242
13550SOL    HW142483   8.669   4.706  14.192
13550SOL    HW242484   8.645   4.823  14.286
13551SOL     OW42485  10.323   3.578  11.900
13551SOL    HW142486  10.279   3.660  11.923
13551SOL    HW242487  10.320   3.575  11.805
13552SOL     OW42488  14.376   7.224   2.298
13552SOL    HW142489  14.332   7.263   2.373
13552SOL    HW242490  14.458   7.190   2.333
13553SOL     OW42491  10.188   2.237   3.807
13553SOL    HW142492  10.159   2.146   3.814
13553SOL    HW242493  10.280   2.235   3.834
13554SOL     OW42494   3.284  12.416   8.477
13554SOL    HW142495   3.256  12.435   8.566
13554SOL    HW242496   3.221  12.352   8.445
13555SOL     OW42497  12.902   5.730   2.681
13555SOL    HW142498  12.973   5.793   2.667
13555SOL    HW242499  12.923   5.657   2.622
13556SOL     OW42500   0.744   2.824   1.372
13556SOL    HW142501   0.807   2.770   1.419
13556SOL    HW242502   0.780   2.831   1.283
13557SOL     OW42503   2.259   3.757   3.157
13557SOL    HW142504   2.281   3.850   3.160
13557SOL    HW242505   2.338   3.712   3.187
13558SOL     OW42506   8.826   6.365   6.224
13558SOL    HW142507   8.875   6.403   6.152
13558SOL    HW242508   8.894   6.328   6.282
13559SOL     OW42509  14.310   6.376   5.079
13559SOL    HW142510  14.292   6.320   5.003
13559SOL    HW242511  14.234   6.364   5.136
13560SOL     OW42512   3.055   6.200   9.275
13560SOL    HW142513   3.148   6.200   9.300
13560SOL    HW242514   3.020   6.279   9.317
13561SOL     OW42515   6.279   4.933   3.525
13561SOL    HW142516   6.307   4.880   3.600
13561SOL    HW242517   6.193   4.965   3.550
13562SOL     OW42518  14.782   0.608  12.235
13562SOL    HW142519  14.698   0.650  12.250
13562SOL    HW242520  14.840   0.646  12.300
13563SOL     OW42521   5.296   3.988   2.858
13563SOL    HW142522   5.328   4.076   2.879
13563SOL    HW242523   5.375   3.937   2.840
13564SOL     OW42524  12.601  14.791   6.164
13564SOL    HW142525  12.567  14.713   6.209
13564SOL    HW242526  12.524  14.832   6.125
13565SOL     OW42527   8.328  14.452  10.932
13565SOL    HW142528   8.407  14.453  10.986
13565SOL    HW242529   8.267  14.396  10.980
13566SOL     OW42530   4.469   2.740   4.856
13566SOL    HW142531   4.563   2.721   4.852
13566SOL    HW242532   4.465   2.835   4.870
13567SOL     OW42533  12.947  14.379   7.422
13567SOL    HW142534  12.911  14.291   7.423
13567SOL    HW242535  13.013  14.379   7.491
13568SOL     OW42536  11.607   8.399   6.674
13568SOL    HW142537  11.550   8.457   6.726
13568SOL    HW242538  11.618   8.446   6.591
13569SOL     OW42539  14.198  14.573   5.151
13569SOL    HW142540  14.175  14.655   5.108
13569SOL    HW242541  14.273  14.540   5.102
13570SOL     OW42542  10.401   1.219   6.348
13570SOL    HW142543  10.340   1.272   6.296
13570SOL    HW242544  10.487   1.237   6.311
13571SOL     OW42545   9.379   8.136   0.162
13571SOL    HW142546   9.410   8.224   0.181
13571SOL    HW242547   9.294   8.131   0.205
13572SOL     OW42548  11.147   5.112  13.043
13572SOL    HW142549  11.084   5.055  12.999
13572SOL    HW242550  11.119   5.201  13.021
13573SOL     OW42551   5.818  13.461   2.578
13573SOL    HW142552   5.796  13.539   2.527
13573SOL    HW242553   5.759  13.393   2.543
13574SOL     OW42554   7.834   9.512  11.462
13574SOL    HW142555   7.864   9.596  11.495
13574SOL    HW242556   7.788   9.472  11.537
13575SOL     OW42557   6.728   1.613  14.442
13575SOL    HW142558   6.694   1.685  14.388
13575SOL    HW242559   6.792   1.655  14.500
13576SOL     OW42560   7.246   6.267   1.792
13576SOL    HW142561   7.240   6.359   1.767
13576SOL    HW242562   7.155   6.240   1.805
13577SOL     OW42563   3.858   3.988   8.939
13577SOL    HW142564   3.807   3.917   8.979
13577SOL    HW242565   3.869   3.960   8.848
13578SOL     OW42566   0.152  13.263   0.083
13578SOL    HW142567   0.238  13.244   0.120
13578SOL    HW242568   0.165  13.342   0.030
13579SOL     OW42569   1.571   3.722  13.514
13579SOL    HW142570   1.565   3.630  13.490
13579SOL    HW242571   1.494   3.763  13.476
13580SOL     OW42572  14.688  11.785  14.262
13580SOL    HW142573  14.741  11.799  14.341
13580SOL    HW242574  14.632  11.710  14.284
13581SOL     OW42575  12.620   1.027   4.610
13581SOL    HW142576  12.665   1.106   4.641
13581SOL    HW242577  12.687   0.977   4.564
13582SOL     OW42578  14.151   1.158   3.531
13582SOL    HW142579  14.114   1.233   3.578
13582SOL    HW242580  14.075   1.104   3.508
13583SOL     OW42581   8.105   9.959   8.795
13583SOL    HW142582   8.042  10.031   8.804
13583SOL    HW242583   8.152   9.958   8.878
13584SOL     OW42584   2.145   9.675   1.269
13584SOL    HW142585   2.121   9.716   1.186
13584SOL    HW242586   2.076   9.611   1.285
13585SOL     OW42587   1.141   0.875   2.067
13585SOL    HW142588   1.206   0.830   2.012
13585SOL    HW242589   1.163   0.848   2.157
13586SOL     OW42590   8.828   7.779  10.035
13586SOL    HW142591   8.877   7.768   9.954
13586SOL    HW242592   8.846   7.869  10.062
13587SOL     OW42593  13.231   7.837   3.648
13587SOL    HW142594  13.150   7.791   3.669
13587SOL    HW242595  13.211   7.886   3.569
13588SOL     OW42596   8.130   6.800   7.149
13588SOL    HW142597   8.134   6.861   7.222
13588SOL    HW242598   8.091   6.850   7.077
13589SOL     OW42599   1.677   8.343   6.571
13589SOL    HW142600   1.683   8.403   6.646
13589SOL    HW242601   1.658   8.258   6.610
13590SOL     OW42602  10.107   0.386   3.832
13590SOL    HW142603  10.139   0.314   3.886
13590SOL    HW242604  10.186   0.424   3.794
13591SOL     OW42605   1.732   3.527   3.265
13591SOL    HW142606   1.677   3.499   3.192
13591SOL    HW242607   1.804   3.575   3.225
13592SOL     OW42608   0.580   6.058  12.960
13592SOL    HW142609   0.643   6.044  12.890
13592SOL    HW242610   0.533   5.975  12.968
13593SOL     OW42611  14.705   4.597   7.938
13593SOL    HW142612  14.719   4.570   8.029
13593SOL    HW242613  14.722   4.691   7.939
13594SOL     OW42614  12.639   4.177   9.785
13594SOL    HW142615  12.721   4.128   9.798
13594SOL    HW242616  12.647   4.252   9.844
13595SOL     OW42617   6.745   8.616   3.421
13595SOL    HW142618   6.731   8.584   3.510
13595SOL    HW242619   6.776   8.705   3.432
13596SOL     OW42620  13.669   0.036  11.198
13596SOL    HW142621  13.580   0.007  11.175
13596SOL    HW242622  13.664   0.131  11.200
13597SOL     OW42623   7.067   9.888   5.967
13597SOL    HW142624   7.128   9.949   6.008
13597SOL    HW242625   7.079   9.903   5.873
13598SOL     OW42626   8.375   7.569  14.186
13598SOL    HW142627   8.392   7.581  14.280
13598SOL    HW242628   8.341   7.654  14.157
13599SOL     OW42629  11.766  11.318   1.333
13599SOL    HW142630  11.848  11.280   1.365
13599SOL    HW242631  11.782  11.412   1.335
13600SOL     OW42632   7.364   9.366   9.304
13600SOL    HW142633   7.407   9.318   9.374
13600SOL    HW242634   7.306   9.302   9.263
13601SOL     OW42635   5.915   7.644   9.929
13601SOL    HW142636   5.895   7.551   9.928
13601SOL    HW242637   5.849   7.684   9.873
13602SOL     OW42638   6.068   0.440   3.979
13602SOL    HW142639   6.011   0.363   3.976
13602SOL    HW242640   6.132   0.426   3.909
13603SOL     OW42641   6.276   6.916   5.598
13603SOL    HW142642   6.241   6.967   5.671
13603SOL    HW242643   6.281   6.978   5.525
13604SOL     OW42644   5.455   3.544   9.279
13604SOL    HW142645   5.517   3.617   9.285
13604SOL    HW242646   5.372   3.581   9.311
13605SOL     OW42647   2.738  11.767   6.182
13605SOL    HW142648   2.732  11.691   6.240
13605SOL    HW242649   2.807  11.745   6.120
13606SOL     OW42650  13.606   7.967  12.311
13606SOL    HW142651  13.676   7.912  12.346
13606SOL    HW242652  13.651   8.039  12.268
13607SOL     OW42653  12.222  13.623   4.782
13607SOL    HW142654  12.308  13.589   4.759
13607SOL    HW242655  12.240  13.692   4.846
13608SOL     OW42656   0.915   2.189   1.771
13608SOL    HW142657   0.874   2.119   1.821
13608SOL    HW242658   0.989   2.147   1.727
13609SOL     OW42659  12.262  14.016   5.910
13609SOL    HW142660  12.214  14.060   5.840
13609SOL    HW242661  12.328  13.963   5.864
13610SOL     OW42662  14.268  10.809   3.275
13610SOL    HW142663  14.263  10.884   3.216
13610SOL    HW242664  14.295  10.846   3.359
13611SOL     OW42665  13.181  11.962  10.201
13611SOL    HW142666  13.269  11.997  10.185
13611SOL    HW242667  13.177  11.951  10.296
13612SOL     OW42668  13.927   6.975   7.839
13612SOL    HW142669  13.856   7.019   7.887
13612SOL    HW242670  13.883   6.907   7.789
13613SOL     OW42671   2.468   2.776   9.308
13613SOL    HW142672   2.518   2.702   9.344
13613SOL    HW242673   2.506   2.853   9.350
13614SOL     OW42674  13.955   5.523  14.821
13614SOL    HW142675  13.906   5.569  14.753
13614SOL    HW242676  13.951   5.581   0.024
13615SOL     OW42677   7.645   7.599  11.347
13615SOL    HW142678   7.570   7.542  11.331
13615SOL    HW242679   7.656   7.597  11.442
13616SOL     OW42680   1.475   0.208   9.527
13616SOL    HW142681   1.466   0.140   9.593
13616SOL    HW242682   1.515   0.282   9.574
13617SOL     OW42683   1.467  10.023   1.454
13617SOL    HW142684   1.517   9.965   1.397
13617SOL    HW242685   1.415  10.077   1.394
13618SOL     OW42686   2.179   6.295   3.434
13618SOL    HW142687   2.210   6.265   3.519
13618SOL    HW242688   2.085   6.274   3.434
13619SOL     OW42689  14.223   7.059  10.184
13619SOL    HW142690  14.262   7.138  10.148
13619SOL    HW242691  14.143   7.046  10.133
13620SOL     OW42692  11.133   2.455   2.319
13620SOL    HW142693  11.138   2.482   2.411
13620SOL    HW242694  11.039   2.441   2.304
13621SOL     OW42695   1.230  11.985   4.023
13621SOL    HW142696   1.152  12.034   3.998
13621SOL    HW242697   1.284  12.048   4.071
13622SOL     OW42698   4.360   8.529  11.252
13622SOL    HW142699   4.375   8.443  11.292
13622SOL    HW242700   4.444   8.574  11.259
13623SOL     OW42701  10.961  14.782   3.348
13623SOL    HW142702  10.992  14.842   3.280
13623SOL    HW242703  10.928  14.839   3.418
13624SOL     OW42704   5.014   7.543   2.523
13624SOL    HW142705   5.023   7.620   2.578
13624SOL    HW242706   5.080   7.482   2.555
13625SOL     OW42707   1.166   6.669   4.185
13625SOL    HW142708   1.090   6.614   4.164
13625SOL    HW242709   1.240   6.624   4.144
13626SOL     OW42710   4.658   1.670  11.606
13626SOL    HW142711   4.601   1.743  11.629
13626SOL    HW242712   4.747   1.703  11.622
13627SOL     OW42713  10.784   1.716  11.106
13627SOL    HW142714  10.843   1.715  11.181
13627SOL    HW242715  10.776   1.624  11.080
13628SOL     OW42716   2.297   6.593   7.495
13628SOL    HW142717   2.307   6.669   7.438
13628SOL    HW242718   2.244   6.624   7.568
13629SOL     OW42719   9.067  12.249   8.579
13629SOL    HW142720   9.061  12.204   8.495
13629SOL    HW242721   9.087  12.340   8.556
13630SOL     OW42722   6.975   2.700   0.026
13630SOL    HW142723   6.982   2.783   0.074
13630SOL    HW242724   6.992   2.633   0.092
13631SOL     OW42725  11.340   7.260   7.198
13631SOL    HW142726  11.430   7.270   7.231
13631SOL    HW242727  11.340   7.175   7.155
13632SOL     OW42728   8.991  14.058   5.200
13632SOL    HW142729   8.935  14.004   5.145
13632SOL    HW242730   8.949  14.059   5.286
13633SOL     OW42731   4.012  10.332   7.219
13633SOL    HW142732   4.102  10.356   7.197
13633SOL    HW242733   3.966  10.416   7.222
13634SOL     OW42734  13.810   2.343  13.335
13634SOL    HW142735  13.748   2.275  13.359
13634SOL    HW242736  13.831   2.326  13.243
13635SOL     OW42737  12.857   0.077   6.972
13635SOL    HW142738  12.771   0.119   6.982
13635SOL    HW242739  12.850   0.028   6.890
13636SOL     OW42740   6.218   4.856   5.014
13636SOL    HW142741   6.192   4.904   4.936
13636SOL    HW242742   6.309   4.832   4.998
13637SOL     OW42743  11.770   9.377   1.008
13637SOL    HW142744  11.711   9.407   0.939
13637SOL    HW242745  11.842   9.440   1.007
13638SOL     OW42746  13.897   9.912  14.681
13638SOL    HW142747  13.920  10.005  14.676
13638SOL    HW242748  13.879   9.887  14.591
13639SOL     OW42749   9.138   5.896  10.959
13639SOL    HW142750   9.129   5.904  11.054
13639SOL    HW242751   9.060   5.941  10.925
13640SOL     OW42752   2.195   0.894   8.680
13640SOL    HW142753   2.142   0.950   8.738
13640SOL    HW242754   2.223   0.822   8.736
13641SOL     OW42755   0.063   6.717  12.277
13641SOL    HW142756   0.135   6.688  12.220
13641SOL    HW242757   0.026   6.794  12.233
13642SOL     OW42758   3.425   0.626   4.106
13642SOL    HW142759   3.394   0.695   4.047
13642SOL    HW242760   3.498   0.585   4.059
13643SOL     OW42761   0.845   2.063   8.814
13643SOL    HW142762   0.917   2.124   8.831
13643SOL    HW242763   0.874   2.012   8.738
13644SOL     OW42764  14.341   8.197   0.550
13644SOL    HW142765  14.378   8.185   0.637
13644SOL    HW242766  14.306   8.286   0.550
13645SOL     OW42767  10.917   9.165   2.721
13645SOL    HW142768  10.947   9.248   2.759
13645SOL    HW242769  10.955   9.164   2.633
13646SOL     OW42770   8.183  12.255  11.614
13646SOL    HW142771   8.095  12.230  11.587
13646SOL    HW242772   8.241  12.195  11.568
13647SOL     OW42773  12.930   4.292  14.795
13647SOL    HW142774  12.945   4.373  14.746
13647SOL    HW242775  13.014   4.273  14.836
13648SOL     OW42776   4.218   3.278   8.933
13648SOL    HW142777   4.149   3.217   8.958
13648SOL    HW242778   4.184   3.322   8.855
13649SOL     OW42779   5.490   3.886  10.730
13649SOL    HW142780   5.435   3.954  10.691
13649SOL    HW242781   5.446   3.863  10.812
13650SOL     OW42782   9.464   8.438   3.904
13650SOL    HW142783   9.474   8.414   3.996
13650SOL    HW242784   9.546   8.410   3.863
13651SOL     OW42785  13.393  13.783   8.574
13651SOL    HW142786  13.366  13.757   8.662
13651SOL    HW242787  13.417  13.700   8.531
13652SOL     OW42788   7.853   9.010  13.378
13652SOL    HW142789   7.921   9.077  13.373
13652SOL    HW242790   7.812   9.010  13.292
13653SOL     OW42791   7.041   3.492   2.351
13653SOL    HW142792   7.097   3.482   2.274
13653SOL    HW242793   7.099   3.475   2.425
13654SOL     OW42794  12.815  10.979   0.623
13654SOL    HW142795  12.849  11.061   0.589
13654SOL    HW242796  12.877  10.953   0.691
13655SOL     OW42797   9.312   9.605   7.498
13655SOL    HW142798   9.401   9.615   7.533
13655SOL    HW242799   9.295   9.686   7.452
13656SOL     OW42800   8.426   1.998  10.298
13656SOL    HW142801   8.377   2.064  10.346
13656SOL    HW242802   8.433   1.925  10.359
13657SOL     OW42803   5.125  14.089  13.972
13657SOL    HW142804   5.151  14.169  14.016
13657SOL    HW242805   5.124  14.023  14.041
13658SOL     OW42806   4.416   4.724   6.022
13658SOL    HW142807   4.452   4.801   5.979
13658SOL    HW242808   4.415   4.656   5.954
13659SOL     OW42809   2.084  13.092   2.895
13659SOL    HW142810   2.040  13.053   2.971
13659SOL    HW242811   2.177  13.074   2.910
13660SOL     OW42812  10.862  11.793   3.103
13660SOL    HW142813  10.849  11.830   3.015
13660SOL    HW242814  10.901  11.708   3.087
13661SOL     OW42815   2.169   7.306   4.855
13661SOL    HW142816   2.173   7.401   4.863
13661SOL    HW242817   2.220   7.273   4.929
13662SOL     OW42818  12.962   9.990   8.255
13662SOL    HW142819  12.970  10.066   8.313
13662SOL    HW242820  12.879   9.950   8.279
13663SOL     OW42821   2.332   3.936  10.166
13663SOL    HW142822   2.249   3.981  10.178
13663SOL    HW242823   2.308   3.844  10.157
13664SOL     OW42824   6.746   7.750   1.871
13664SOL    HW142825   6.797   7.713   1.943
13664SOL    HW242826   6.811   7.801   1.821
13665SOL     OW42827   2.638   4.150  10.981
13665SOL    HW142828   2.610   4.182  10.895
13665SOL    HW242829   2.667   4.228  11.027
13666SOL     OW42830   6.029   7.443   8.864
13666SOL    HW142831   6.102   7.504   8.871
13666SOL    HW242832   5.963   7.490   8.813
13667SOL     OW42833  11.894   2.489   2.192
13667SOL    HW142834  11.908   2.403   2.152
13667SOL    HW242835  11.803   2.486   2.222
13668SOL     OW42836   1.377   1.553  13.415
13668SOL    HW142837   1.349   1.632  13.367
13668SOL    HW242838   1.370   1.577  13.507
13669SOL     OW42839   1.305  14.258   4.625
13669SOL    HW142840   1.290  14.309   4.546
13669SOL    HW242841   1.277  14.315   4.697
13670SOL     OW42842  13.807  10.544   2.421
13670SOL    HW142843  13.765  10.550   2.507
13670SOL    HW242844  13.890  10.501   2.438
13671SOL     OW42845   5.253  13.295   3.264
13671SOL    HW142846   5.228  13.341   3.345
13671SOL    HW242847   5.210  13.344   3.195
13672SOL     OW42848   9.929   3.354   6.838
13672SOL    HW142849   9.859   3.311   6.789
13672SOL    HW242850   9.987   3.282   6.865
13673SOL     OW42851   2.140  10.950  13.482
13673SOL    HW142852   2.127  10.887  13.411
13673SOL    HW242853   2.233  10.941  13.504
13674SOL     OW42854  11.015  10.063   5.939
13674SOL    HW142855  11.078  10.114   5.888
13674SOL    HW242856  11.014  10.104   6.025
13675SOL     OW42857   3.554  14.126  11.673
13675SOL    HW142858   3.566  14.031  11.674
13675SOL    HW242859   3.459  14.139  11.677
13676SOL     OW42860   5.987   2.755  13.721
13676SOL    HW142861   6.021   2.671  13.750
13676SOL    HW242862   5.894   2.753  13.743
13677SOL     OW42863   6.129   3.607  11.291
13677SOL    HW142864   6.169   3.658  11.220
13677SOL    HW242865   6.036   3.630  11.288
13678SOL     OW42866   8.939   9.731   4.005
13678SOL    HW142867   8.910   9.647   4.040
13678SOL    HW242868   8.874   9.753   3.938
13679SOL     OW42869   2.589   9.677   6.830
13679SOL    HW142870   2.607   9.631   6.912
13679SOL    HW242871   2.601   9.611   6.763
13680SOL     OW42872  11.574  12.882   3.273
13680SOL    HW142873  11.531  12.801   3.299
13680SOL    HW242874  11.502  12.940   3.247
13681SOL     OW42875   8.258   4.937   1.698
13681SOL    HW142876   8.299   4.851   1.706
13681SOL    HW242877   8.183   4.922   1.640
13682SOL     OW42878  13.816   9.162  11.771
13682SOL    HW142879  13.885   9.202  11.824
13682SOL    HW242880  13.843   9.179  11.680
13683SOL     OW42881  13.077   5.359   7.464
13683SOL    HW142882  12.982   5.374   7.463
13683SOL    HW242883  13.086   5.264   7.468
13684SOL     OW42884   4.406   4.406   2.451
13684SOL    HW142885   4.364   4.327   2.484
13684SOL    HW242886   4.335   4.456   2.410
13685SOL     OW42887   0.713  12.769   7.992
13685SOL    HW142888   0.769  12.694   7.971
13685SOL    HW242889   0.686  12.804   7.908
13686SOL     OW42890   1.902   0.080   4.588
13686SOL    HW142891   1.864   0.124   4.664
13686SOL    HW242892   1.840   0.010   4.568
13687SOL     OW42893   9.835   6.191   3.331
13687SOL    HW142894   9.879   6.276   3.330
13687SOL    HW242895   9.817   6.174   3.423
13688SOL     OW42896   5.868   9.145  12.154
13688SOL    HW142897   5.929   9.210  12.191
13688SOL    HW242898   5.849   9.177  12.066
13689SOL     OW42899  14.634   3.480  13.378
13689SOL    HW142900  14.622   3.527  13.460
13689SOL    HW242901  14.651   3.548  13.313
13690SOL     OW42902   1.175   0.789   2.849
13690SOL    HW142903   1.188   0.834   2.932
13690SOL    HW242904   1.158   0.698   2.874
13691SOL     OW42905   0.693   3.715  11.414
13691SOL    HW142906   0.772   3.765  11.436
13691SOL    HW242907   0.646   3.770  11.351
13692SOL     OW42908   7.601  12.436   9.795
13692SOL    HW142909   7.674  12.424   9.857
13692SOL    HW242910   7.623  12.516   9.748
13693SOL     OW42911   2.228  12.133   5.668
13693SOL    HW142912   2.135  12.149   5.683
13693SOL    HW242913   2.240  12.040   5.690
13694SOL     OW42914   9.910   8.652  12.300
13694SOL    HW142915   9.959   8.621  12.224
13694SOL    HW242916   9.897   8.574  12.353
13695SOL     OW42917   5.733   9.939   8.449
13695SOL    HW142918   5.785   9.886   8.510
13695SOL    HW242919   5.798   9.989   8.399
13696SOL     OW42920   2.191  10.515  10.103
13696SOL    HW142921   2.109  10.467  10.116
13696SOL    HW242922   2.259  10.454  10.133
13697SOL     OW42923   6.594  14.667   8.891
13697SOL    HW142924   6.634  14.739   8.940
13697SOL    HW242925   6.667  14.624   8.848
13698SOL     OW42926   1.114   2.577   6.472
13698SOL    HW142927   1.171   2.568   6.549
13698SOL    HW242928   1.173   2.567   6.398
13699SOL     OW42929   3.307   4.074  14.365
13699SOL    HW142930   3.213   4.059  14.361
13699SOL    HW242931   3.336   4.072  14.274
13700SOL     OW42932   2.658   7.559  11.716
13700SOL    HW142933   2.744   7.520  11.732
13700SOL    HW242934   2.668   7.650  11.743
13701SOL     OW42935   1.185   5.654   2.988
13701SOL    HW142936   1.266   5.610   2.961
13701SOL    HW242937   1.115   5.594   2.963
13702SOL     OW42938   7.689   3.053  14.048
13702SOL    HW142939   7.728   2.998  14.116
13702SOL    HW242940   7.755   3.121  14.032
13703SOL     OW42941  13.352   0.745  14.366
13703SOL    HW142942  13.416   0.772  14.432
13703SOL    HW242943  13.285   0.698  14.414
13704SOL     OW42944   5.181   1.414  11.050
13704SOL    HW142945   5.189   1.406  11.145
13704SOL    HW242946   5.268   1.442  11.021
13705SOL     OW42947  11.109   4.323   2.862
13705SOL    HW142948  11.083   4.275   2.941
13705SOL    HW242949  11.028   4.341   2.816
13706SOL     OW42950   3.613   6.929   2.001
13706SOL    HW142951   3.565   7.008   1.977
13706SOL    HW242952   3.684   6.959   2.058
13707SOL     OW42953  11.026   0.189  14.419
13707SOL    HW142954  11.027   0.098  14.389
13707SOL    HW242955  10.934   0.214  14.420
13708SOL     OW42956  13.543  14.546  14.742
13708SOL    HW142957  13.587  14.532  14.826
13708SOL    HW242958  13.472  14.607  14.762
13709SOL     OW42959   5.888  13.957   6.322
13709SOL    HW142960   5.912  14.012   6.248
13709SOL    HW242961   5.793  13.951   6.318
13710SOL     OW42962  12.851   6.393   8.702
13710SOL    HW142963  12.904   6.424   8.629
13710SOL    HW242964  12.780   6.458   8.710
13711SOL     OW42965  13.646  13.258  10.478
13711SOL    HW142966  13.594  13.304  10.544
13711SOL    HW242967  13.625  13.303  10.396
13712SOL     OW42968  14.014   4.558   4.221
13712SOL    HW142969  13.942   4.553   4.284
13712SOL    HW242970  14.092   4.542   4.274
13713SOL     OW42971   8.415   4.093  10.271
13713SOL    HW142972   8.329   4.129  10.250
13713SOL    HW242973   8.476   4.165  10.255
13714SOL     OW42974   5.529   5.013   4.999
13714SOL    HW142975   5.448   4.976   4.964
13714SOL    HW242976   5.592   5.005   4.927
13715SOL     OW42977   8.318  11.533  13.443
13715SOL    HW142978   8.239  11.498  13.401
13715SOL    HW242979   8.286  11.579  13.520
13716SOL     OW42980  14.118   6.169   1.131
13716SOL    HW142981  14.038   6.147   1.179
13716SOL    HW242982  14.151   6.085   1.098
13717SOL     OW42983   3.821   1.161   8.973
13717SOL    HW142984   3.801   1.170   9.066
13717SOL    HW242985   3.906   1.117   8.971
13718SOL     OW42986   9.584   4.991  11.443
13718SOL    HW142987   9.658   4.933  11.423
13718SOL    HW242988   9.509   4.951  11.400
13719SOL     OW42989   1.679  11.267   7.553
13719SOL    HW142990   1.725  11.263   7.637
13719SOL    HW242991   1.658  11.176   7.532
13720SOL     OW42992  11.758   2.430   5.740
13720SOL    HW142993  11.675   2.432   5.788
13720SOL    HW242994  11.767   2.339   5.712
13721SOL     OW42995   9.888   9.341   4.089
13721SOL    HW142996   9.976   9.378   4.095
13721SOL    HW242997   9.901   9.251   4.060
13722SOL     OW42998  12.236   7.502  11.067
13722SOL    HW142999  12.212   7.424  11.116
13722SOL    HW243000  12.225   7.574  11.130
13723SOL     OW43001   6.372   0.064   2.278
13723SOL    HW143002   6.404   0.074   2.189
13723SOL    HW243003   6.358   0.154   2.309
13724SOL     OW43004   6.428   1.398   5.155
13724SOL    HW143005   6.339   1.430   5.147
13724SOL    HW243006   6.470   1.419   5.072
13725SOL     OW43007  14.329  10.489   7.148
13725SOL    HW143008  14.374  10.557   7.197
13725SOL    HW243009  14.395  10.455   7.087
13726SOL     OW43010  14.262  13.278   0.045
13726SOL    HW143011  14.187  13.290   0.103
13726SOL    HW243012  14.243  13.196  14.871
13727SOL     OW43013  14.050   7.001   2.307
13727SOL    HW143014  14.021   6.958   2.387
13727SOL    HW243015  14.143   6.981   2.301
13728SOL     OW43016   1.673  12.213  11.443
13728SOL    HW143017   1.672  12.119  11.461
13728SOL    HW243018   1.678  12.254  11.529
13729SOL     OW43019  14.604  11.407   3.316
13729SOL    HW143020  14.693  11.382   3.291
13729SOL    HW243021  14.581  11.346   3.386
13730SOL     OW43022   8.191   6.566  12.653
13730SOL    HW143023   8.215   6.477  12.628
13730SOL    HW243024   8.122   6.591  12.591
13731SOL     OW43025   9.537  14.599  12.249
13731SOL    HW143026   9.608  14.644  12.294
13731SOL    HW243027   9.580  14.531  12.198
13732SOL     OW43028  10.334   0.006   1.324
13732SOL    HW143029  10.357   0.050   1.242
13732SOL    HW243030  10.414  14.833   1.350
13733SOL     OW43031   4.553  14.285   7.871
13733SOL    HW143032   4.648  14.285   7.857
13733SOL    HW243033   4.523  14.366   7.830
13734SOL     OW43034   9.054   8.040   0.591
13734SOL    HW143035   8.987   8.063   0.655
13734SOL    HW243036   9.005   8.019   0.511
13735SOL     OW43037   3.920   7.934   6.797
13735SOL    HW143038   3.919   7.979   6.881
13735SOL    HW243039   4.000   7.881   6.799
13736SOL     OW43040   0.820   9.128   7.198
13736SOL    HW143041   0.734   9.097   7.227
13736SOL    HW243042   0.881   9.058   7.222
13737SOL     OW43043  13.900   4.181  14.616
13737SOL    HW143044  13.870   4.119  14.682
13737SOL    HW243045  13.974   4.226  14.657
13738SOL     OW43046   5.175  12.584  13.623
13738SOL    HW143047   5.172  12.551  13.713
13738SOL    HW243048   5.157  12.678  13.632
13739SOL     OW43049  14.403  12.316   5.441
13739SOL    HW143050  14.411  12.223   5.419
13739SOL    HW243051  14.461  12.361   5.380
13740SOL     OW43052  13.792   2.859  13.648
13740SOL    HW143053  13.826   2.772  13.669
13740SOL    HW243054  13.869   2.917  13.652
13741SOL     OW43055  10.318  14.734  11.054
13741SOL    HW143056  10.340  14.785  10.976
13741SOL    HW243057  10.223  14.722  11.050
13742SOL     OW43058   2.640   8.922  11.740
13742SOL    HW143059   2.591   8.853  11.696
13742SOL    HW243060   2.678   8.974  11.670
13743SOL     OW43061   8.507  14.596   8.549
13743SOL    HW143062   8.533  14.515   8.593
13743SOL    HW243063   8.588  14.646   8.540
13744SOL     OW43064   0.652  11.744   1.227
13744SOL    HW143065   0.626  11.701   1.145
13744SOL    HW243066   0.622  11.684   1.296
13745SOL     OW43067   7.164   7.039   1.861
13745SOL    HW143068   7.088   6.991   1.895
13745SOL    HW243069   7.222   7.050   1.937
13746SOL     OW43070  12.083  14.241  10.626
13746SOL    HW143071  12.061  14.270  10.538
13746SOL    HW243072  12.046  14.307  10.684
13747SOL     OW43073   2.741   6.625   1.522
13747SOL    HW143074   2.807   6.694   1.523
13747SOL    HW243075   2.781   6.552   1.570
13748SOL     OW43076   2.626  12.896   6.689
13748SOL    HW143077   2.676  12.947   6.626
13748SOL    HW243078   2.541  12.882   6.647
13749SOL     OW43079   4.594   6.445  12.680
13749SOL    HW143080   4.673   6.461  12.628
13749SOL    HW243081   4.614   6.364  12.728
13750SOL     OW43082   1.295   6.723   1.625
13750SOL    HW143083   1.283   6.812   1.659
13750SOL    HW243084   1.337   6.675   1.696
13751SOL     OW43085  11.521  12.329   7.545
13751SOL    HW143086  11.426  12.327   7.554
13751SOL    HW243087  11.545  12.239   7.524
13752SOL     OW43088   1.951  10.700   3.828
13752SOL    HW143089   1.974  10.656   3.746
13752SOL    HW243090   1.878  10.758   3.805
13753SOL     OW43091   5.617   6.009   9.530
13753SOL    HW143092   5.574   6.094   9.529
13753SOL    HW243093   5.555   5.950   9.486
13754SOL     OW43094  12.787  12.174  11.371
13754SOL    HW143095  12.858  12.151  11.312
13754SOL    HW243096  12.798  12.115  11.446
13755SOL     OW43097   2.828   6.731   1.990
13755SOL    HW143098   2.751   6.761   2.039
13755SOL    HW243099   2.900   6.733   2.054
13756SOL     OW43100   2.305   0.902  10.541
13756SOL    HW143101   2.368   0.915  10.612
13756SOL    HW243102   2.244   0.975  10.549
13757SOL     OW43103  11.814   3.727   2.426
13757SOL    HW143104  11.729   3.760   2.455
13757SOL    HW243105  11.832   3.775   2.346
13758SOL     OW43106  12.683   0.818   6.146
13758SOL    HW143107  12.651   0.764   6.073
13758SOL    HW243108  12.624   0.893   6.148
13759SOL     OW43109   2.629   6.677   8.990
13759SOL    HW143110   2.538   6.702   8.976
13759SOL    HW243111   2.678   6.728   8.927
13760SOL     OW43112   9.668   4.701  11.624
13760SOL    HW143113   9.630   4.764  11.686
13760SOL    HW243114   9.598   4.637  11.609
13761SOL     OW43115   7.071  12.649   8.624
13761SOL    HW143116   7.119  12.725   8.592
13761SOL    HW243117   6.979  12.669   8.607
13762SOL     OW43118   8.413   9.374   6.684
13762SOL    HW143119   8.365   9.331   6.755
13762SOL    HW243120   8.424   9.464   6.715
13763SOL     OW43121  11.043  11.533   4.352
13763SOL    HW143122  10.971  11.485   4.394
13763SOL    HW243123  11.065  11.481   4.275
13764SOL     OW43124   0.309   7.140   7.877
13764SOL    HW143125   0.311   7.047   7.900
13764SOL    HW243126   0.254   7.144   7.799
13765SOL     OW43127   0.941  14.790   3.818
13765SOL    HW143128   0.848  14.776   3.835
13765SOL    HW243129   0.985  14.731   3.879
13766SOL     OW43130   4.880   8.951  12.484
13766SOL    HW143131   4.824   9.005  12.429
13766SOL    HW243132   4.871   8.863  12.449
13767SOL     OW43133   1.071  12.529   1.783
13767SOL    HW143134   1.126  12.518   1.705
13767SOL    HW243135   1.122  12.490   1.854
13768SOL     OW43136  10.590   2.322  13.509
13768SOL    HW143137  10.670   2.286  13.548
13768SOL    HW243138  10.620   2.398  13.459
13769SOL     OW43139   4.637  13.835  13.430
13769SOL    HW143140   4.694  13.800  13.498
13769SOL    HW243141   4.555  13.856  13.476
13770SOL     OW43142   0.033  14.595   2.720
13770SOL    HW143143  14.838  14.529   2.699
13770SOL    HW243144   0.061  14.629   2.635
13771SOL     OW43145   0.599   9.895  14.727
13771SOL    HW143146   0.522   9.890  14.670
13771SOL    HW243147   0.625   9.804  14.741
13772SOL     OW43148  14.609   9.341  12.621
13772SOL    HW143149  14.652   9.268  12.664
13772SOL    HW243150  14.649   9.346  12.534
13773SOL     OW43151  11.027   7.736  11.234
13773SOL    HW143152  11.102   7.794  11.248
13773SOL    HW243153  10.997   7.756  11.146
13774SOL     OW43154   1.132  14.424  12.782
13774SOL    HW143155   1.128  14.489  12.712
13774SOL    HW243156   1.061  14.447  12.841
13775SOL     OW43157   8.386   4.750   3.354
13775SOL    HW143158   8.364   4.770   3.263
13775SOL    HW243159   8.480   4.769   3.360
13776SOL     OW43160   4.219  14.868  14.303
13776SOL    HW143161   4.270  14.815  14.364
13776SOL    HW243162   4.144   0.025  14.354
13777SOL     OW43163  12.417   5.473  14.403
13777SOL    HW143164  12.355   5.431  14.461
13777SOL    HW243165  12.407   5.567  14.420
13778SOL     OW43166   0.323   0.662  10.717
13778SOL    HW143167   0.391   0.595  10.725
13778SOL    HW243168   0.345   0.727  10.784
13779SOL     OW43169  10.594  10.431   0.238
13779SOL    HW143170  10.680  10.442   0.279
13779SOL    HW243171  10.607  10.458   0.147
13780SOL     OW43172   7.050   8.383  13.789
13780SOL    HW143173   7.000   8.352  13.713
13780SOL    HW243174   7.056   8.478  13.775
13781SOL     OW43175   0.576   4.335   3.291
13781SOL    HW143176   0.521   4.299   3.221
13781SOL    HW243177   0.563   4.274   3.364
13782SOL     OW43178  10.315   5.699   7.803
13782SOL    HW143179  10.325   5.678   7.896
13782SOL    HW243180  10.228   5.665   7.781
13783SOL     OW43181  14.046   0.636   9.868
13783SOL    HW143182  14.100   0.644   9.946
13783SOL    HW243183  13.956   0.632   9.901
13784SOL     OW43184  12.075  12.030   8.522
13784SOL    HW143185  12.156  12.081   8.528
13784SOL    HW243186  12.005  12.093   8.539
13785SOL     OW43187  10.640  10.128   2.286
13785SOL    HW143188  10.699  10.101   2.216
13785SOL    HW243189  10.699  10.148   2.359
13786SOL     OW43190   6.048  11.491  13.439
13786SOL    HW143191   6.106  11.554  13.482
13786SOL    HW243192   6.088  11.406  13.455
13787SOL     OW43193   7.589   9.246   2.773
13787SOL    HW143194   7.533   9.318   2.802
13787SOL    HW243195   7.531   9.170   2.774
13788SOL     OW43196   3.901   1.375   6.209
13788SOL    HW143197   3.877   1.342   6.122
13788SOL    HW243198   3.995   1.387   6.205
13789SOL     OW43199   3.762   8.593  12.872
13789SOL    HW143200   3.816   8.608  12.795
13789SOL    HW243201   3.777   8.501  12.895
13790SOL     OW43202  13.838  13.922   3.960
13790SOL    HW143203  13.848  13.996   4.021
13790SOL    HW243204  13.927  13.896   3.938
13791SOL     OW43205   9.992   5.504   7.323
13791SOL    HW143206   9.898   5.489   7.324
13791SOL    HW243207  10.029   5.434   7.377
13792SOL     OW43208   8.855   1.952  12.716
13792SOL    HW143209   8.771   1.915  12.744
13792SOL    HW243210   8.888   1.998  12.793
13793SOL     OW43211   8.573  11.475   5.595
13793SOL    HW143212   8.576  11.570   5.607
13793SOL    HW243213   8.664  11.447   5.601
13794SOL     OW43214   2.037   7.236   4.630
13794SOL    HW143215   2.040   7.325   4.594
13794SOL    HW243216   2.067   7.245   4.720
13795SOL     OW43217   1.909  14.670   2.658
13795SOL    HW143218   1.892  14.576   2.645
13795SOL    HW243219   1.991  14.673   2.707
13796SOL     OW43220  10.782   1.458   1.383
13796SOL    HW143221  10.701   1.407   1.392
13796SOL    HW243222  10.769   1.509   1.303
13797SOL     OW43223  13.323   0.530  14.603
13797SOL    HW143224  13.248   0.478  14.573
13797SOL    HW243225  13.298   0.558  14.691
13798SOL     OW43226   5.340   1.334   6.665
13798SOL    HW143227   5.260   1.311   6.713
13798SOL    HW243228   5.308   1.364   6.580
13799SOL     OW43229  14.069   8.922   6.389
13799SOL    HW143230  14.010   8.864   6.340
13799SOL    HW243231  14.031   8.925   6.477
13800SOL     OW43232  14.804  11.554   9.877
13800SOL    HW143233  14.855  11.475   9.897
13800SOL    HW243234  14.828  11.575   9.786
13801SOL     OW43235   2.423   8.408   9.735
13801SOL    HW143236   2.493   8.359   9.777
13801SOL    HW243237   2.381   8.345   9.676
13802SOL     OW43238   3.750  12.476  13.457
13802SOL    HW143239   3.786  12.534  13.523
13802SOL    HW243240   3.797  12.498  13.376
13803SOL     OW43241   8.229   3.518   0.093
13803SOL    HW143242   8.210   3.445   0.152
13803SOL    HW243243   8.161   3.582   0.112
13804SOL     OW43244  12.474   4.857  12.424
13804SOL    HW143245  12.407   4.833  12.359
13804SOL    HW243246  12.445   4.942  12.457
13805SOL     OW43247  10.076  11.957   4.769
13805SOL    HW143248  10.010  11.974   4.836
13805SOL    HW243249  10.099  11.865   4.780
13806SOL     OW43250  13.394   7.593   2.097
13806SOL    HW143251  13.343   7.519   2.064
13806SOL    HW243252  13.427   7.637   2.019
13807SOL     OW43253  11.890   3.765   9.222
13807SOL    HW143254  11.898   3.757   9.317
13807SOL    HW243255  11.911   3.857   9.204
13808SOL     OW43256   0.160   0.087   1.062
13808SOL    HW143257   0.116   0.068   0.979
13808SOL    HW243258   0.232   0.145   1.038
13809SOL     OW43259   1.364   9.578   5.711
13809SOL    HW143260   1.299   9.601   5.778
13809SOL    HW243261   1.434   9.643   5.722
13810SOL     OW43262   5.300  10.660   1.848
13810SOL    HW143263   5.391  10.682   1.867
13810SOL    HW243264   5.284  10.580   1.897
13811SOL     OW43265   9.668   8.004   0.659
13811SOL    HW143266   9.586   8.012   0.609
13811SOL    HW243267   9.707   7.922   0.628
13812SOL     OW43268   8.289   3.907   8.066
13812SOL    HW143269   8.325   3.818   8.062
13812SOL    HW243270   8.313   3.946   7.983
13813SOL     OW43271   0.123   1.890   1.736
13813SOL    HW143272   0.171   1.920   1.813
13813SOL    HW243273   0.063   1.823   1.770
13814SOL     OW43274   9.039  11.984   8.170
13814SOL    HW143275   8.993  11.912   8.127
13814SOL    HW243276   9.092  11.942   8.238
13815SOL     OW43277   5.715  14.583  12.091
13815SOL    HW143278   5.763  14.630  12.158
13815SOL    HW243279   5.640  14.639  12.072
13816SOL     OW43280   1.525   9.808   2.460
13816SOL    HW143281   1.580   9.785   2.535
13816SOL    HW243282   1.492   9.724   2.428
13817SOL     OW43283   4.762   6.651   2.666
13817SOL    HW143284   4.699   6.609   2.724
13817SOL    HW243285   4.838   6.593   2.665
13818SOL     OW43286   7.104   7.716   3.742
13818SOL    HW143287   7.109   7.672   3.657
13818SOL    HW243288   7.058   7.653   3.798
13819SOL     OW43289  10.413   6.633  14.441
13819SOL    HW143290  10.450   6.677  14.365
13819SOL    HW243291  10.457   6.673  14.516
13820SOL     OW43292   5.811  10.850  14.205
13820SOL    HW143293   5.742  10.872  14.142
13820SOL    HW243294   5.882  10.912  14.186
13821SOL     OW43295   5.961  12.431  12.903
13821SOL    HW143296   5.928  12.517  12.927
13821SOL    HW243297   5.891  12.391  12.853
13822SOL     OW43298   7.242   7.533   8.854
13822SOL    HW143299   7.302   7.479   8.803
13822SOL    HW243300   7.241   7.617   8.808
13823SOL     OW43301   7.730  11.472   6.968
13823SOL    HW143302   7.755  11.380   6.954
13823SOL    HW243303   7.638  11.476   6.942
13824SOL     OW43304   8.250  11.294   3.137
13824SOL    HW143305   8.306  11.297   3.060
13824SOL    HW243306   8.234  11.201   3.152
13825SOL     OW43307   9.646   5.202  11.711
13825SOL    HW143308   9.713   5.174  11.774
13825SOL    HW243309   9.696   5.227  11.633
13826SOL     OW43310   4.869   1.559   7.722
13826SOL    HW143311   4.857   1.492   7.654
13826SOL    HW243312   4.812   1.529   7.793
13827SOL     OW43313   9.986  13.698   5.185
13827SOL    HW143314   9.920  13.663   5.126
13827SOL    HW243315   9.936  13.734   5.259
13828SOL     OW43316  13.243   7.838  13.001
13828SOL    HW143317  13.194   7.859  12.921
13828SOL    HW243318  13.332   7.820  12.971
13829SOL     OW43319   0.472   5.330   7.432
13829SOL    HW143320   0.550   5.331   7.376
13829SOL    HW243321   0.501   5.287   7.513
13830SOL     OW43322   6.326  14.212  12.337
13830SOL    HW143323   6.314  14.145  12.270
13830SOL    HW243324   6.300  14.294  12.295
13831SOL     OW43325   4.967  10.758   5.632
13831SOL    HW143326   5.032  10.769   5.562
13831SOL    HW243327   4.972  10.665   5.654
13832SOL     OW43328   2.327   1.025   7.159
13832SOL    HW143329   2.341   1.108   7.205
13832SOL    HW243330   2.377   1.033   7.078
13833SOL     OW43331   0.487  14.155   0.102
13833SOL    HW143332   0.453  14.073   0.139
13833SOL    HW243333   0.569  14.129   0.059
13834SOL     OW43334   7.948   0.956   5.011
13834SOL    HW143335   7.855   0.976   4.997
13834SOL    HW243336   7.951   0.860   5.016
13835SOL     OW43337  10.594  13.019   2.269
13835SOL    HW143338  10.547  13.094   2.231
13835SOL    HW243339  10.527  12.950   2.274
13836SOL     OW43340  13.941  14.114  10.006
13836SOL    HW143341  13.940  14.142  10.098
13836SOL    HW243342  13.947  14.019  10.010
13837SOL     OW43343   1.404   5.289   7.446
13837SOL    HW143344   1.464   5.357   7.478
13837SOL    HW243345   1.435   5.270   7.357
13838SOL     OW43346   4.279   7.954   0.328
13838SOL    HW143347   4.272   7.972   0.422
13838SOL    HW243348   4.202   7.900   0.309
13839SOL     OW43349   1.787   5.786   2.735
13839SOL    HW143350   1.770   5.847   2.663
13839SOL    HW243351   1.881   5.768   2.730
13840SOL     OW43352   7.583   3.815   6.134
13840SOL    HW143353   7.559   3.895   6.087
13840SOL    HW243354   7.627   3.760   6.069
13841SOL     OW43355   7.704  13.182   2.042
13841SOL    HW143356   7.653  13.262   2.027
13841SOL    HW243357   7.742  13.162   1.957
13842SOL     OW43358  10.700   1.705   9.220
13842SOL    HW143359  10.782   1.715   9.171
13842SOL    HW243360  10.676   1.794   9.245
13843SOL     OW43361  14.479  12.271  11.535
13843SOL    HW143362  14.462  12.178  11.551
13843SOL    HW243363  14.475  12.279  11.440
13844SOL     OW43364  12.035  14.031   2.417
13844SOL    HW143365  12.020  14.101   2.480
13844SOL    HW243366  12.112  13.986   2.450
13845SOL     OW43367   1.685   3.179   1.192
13845SOL    HW143368   1.750   3.110   1.206
13845SOL    HW243369   1.694   3.203   1.100
13846SOL     OW43370  14.142   7.236   8.258
13846SOL    HW143371  14.116   7.179   8.331
13846SOL    HW243372  14.214   7.288   8.292
13847SOL     OW43373   8.996   3.308   0.663
13847SOL    HW143374   8.937   3.295   0.737
13847SOL    HW243375   9.072   3.252   0.682
13848SOL     OW43376   2.713   8.093   6.639
13848SOL    HW143377   2.743   8.033   6.571
13848SOL    HW243378   2.661   8.039   6.698
13849SOL     OW43379   8.735   3.635   9.932
13849SOL    HW143380   8.745   3.706   9.868
13849SOL    HW243381   8.769   3.558   9.886
13850SOL     OW43382   6.554   8.770  11.325
13850SOL    HW143383   6.538   8.690  11.376
13850SOL    HW243384   6.584   8.739  11.240
13851SOL     OW43385  14.581   1.921  12.506
13851SOL    HW143386  14.521   1.847  12.512
13851SOL    HW243387  14.623   1.911  12.420
13852SOL     OW43388   7.714   9.662  13.918
13852SOL    HW143389   7.641   9.617  13.875
13852SOL    HW243390   7.693   9.755  13.909
13853SOL     OW43391  13.219  11.655   1.631
13853SOL    HW143392  13.180  11.596   1.695
13853SOL    HW243393  13.302  11.683   1.670
13854SOL     OW43394  10.065   8.589  11.471
13854SOL    HW143395  10.033   8.617  11.557
13854SOL    HW243396  10.071   8.671  11.421
13855SOL     OW43397   9.593   8.180   8.369
13855SOL    HW143398   9.664   8.164   8.430
13855SOL    HW243399   9.533   8.238   8.417
13856SOL     OW43400  13.242  13.890  13.342
13856SOL    HW143401  13.321  13.895  13.396
13856SOL    HW243402  13.171  13.880  13.405
13857SOL     OW43403   3.557  13.688   7.196
13857SOL    HW143404   3.494  13.651   7.257
13857SOL    HW243405   3.599  13.611   7.156
13858SOL     OW43406  13.526   1.932  14.228
13858SOL    HW143407  13.533   1.932  14.133
13858SOL    HW243408  13.457   1.996  14.247
13859SOL     OW43409  14.399   5.484   2.540
13859SOL    HW143410  14.382   5.419   2.609
13859SOL    HW243411  14.434   5.560   2.587
13860SOL     OW43412  14.464   9.187   2.934
13860SOL    HW143413  14.458   9.107   2.883
13860SOL    HW243414  14.431   9.255   2.875
13861SOL     OW43415   9.492   1.555  10.902
13861SOL    HW143416   9.573   1.507  10.920
13861SOL    HW243417   9.482   1.552  10.807
13862SOL     OW43418  11.125   8.751   4.152
13862SOL    HW143419  11.127   8.820   4.219
13862SOL    HW243420  11.205   8.765   4.101
13863SOL     OW43421   1.004   0.442   8.439
13863SOL    HW143422   0.995   0.353   8.471
13863SOL    HW243423   1.004   0.496   8.519
13864SOL     OW43424   5.625  12.232   2.389
13864SOL    HW143425   5.613  12.253   2.481
13864SOL    HW243426   5.705  12.179   2.386
13865SOL     OW43427   3.595  14.373   3.961
13865SOL    HW143428   3.569  14.343   4.049
13865SOL    HW243429   3.602  14.292   3.910
13866SOL     OW43430   5.770   4.061   8.727
13866SOL    HW143431   5.690   4.113   8.740
13866SOL    HW243432   5.806   4.092   8.644
13867SOL     OW43433   8.129  10.446   3.960
13867SOL    HW143434   8.095  10.385   3.895
13867SOL    HW243435   8.090  10.530   3.937
13868SOL     OW43436   2.802   3.217   3.301
13868SOL    HW143437   2.732   3.189   3.359
13868SOL    HW243438   2.762   3.219   3.214
13869SOL     OW43439   7.937   2.829   9.081
13869SOL    HW143440   7.919   2.919   9.053
13869SOL    HW243441   7.858   2.803   9.129
13870SOL     OW43442  10.358   0.819   0.922
13870SOL    HW143443  10.430   0.846   0.864
13870SOL    HW243444  10.394   0.828   1.010
13871SOL     OW43445   1.801  10.855   0.120
13871SOL    HW143446   1.786  10.936   0.170
13871SOL    HW243447   1.893  10.835   0.134
13872SOL     OW43448  10.988   3.101   7.157
13872SOL    HW143449  10.918   3.126   7.217
13872SOL    HW243450  11.049   3.174   7.158
13873SOL     OW43451   5.705  14.738   5.413
13873SOL    HW143452   5.637  14.746   5.479
13873SOL    HW243453   5.657  14.728   5.330
13874SOL     OW43454   6.095   5.500   4.254
13874SOL    HW143455   6.122   5.410   4.235
13874SOL    HW243456   6.126   5.550   4.178
13875SOL     OW43457   2.746  11.012  14.686
13875SOL    HW143458   2.699  10.999  14.604
13875SOL    HW243459   2.816  11.073  14.664
13876SOL     OW43460  10.408   6.605   6.659
13876SOL    HW143461  10.498   6.575   6.672
13876SOL    HW243462  10.384   6.645   6.743
13877SOL     OW43463   7.447  12.978   6.349
13877SOL    HW143464   7.478  12.979   6.258
13877SOL    HW243465   7.466  12.890   6.380
13878SOL     OW43466   9.771  13.500   8.570
13878SOL    HW143467   9.862  13.477   8.552
13878SOL    HW243468   9.736  13.422   8.614
13879SOL     OW43469  11.117  11.696  11.684
13879SOL    HW143470  11.023  11.690  11.700
13879SOL    HW243471  11.131  11.785  11.652
13880SOL     OW43472   3.727  10.702   7.248
13880SOL    HW143473   3.730  10.668   7.159
13880SOL    HW243474   3.737  10.625   7.304
13881SOL     OW43475  13.378  12.658   1.199
13881SOL    HW143476  13.383  12.719   1.126
13881SOL    HW243477  13.334  12.707   1.269
13882SOL     OW43478   6.439   6.470   7.486
13882SOL    HW143479   6.414   6.396   7.431
13882SOL    HW243480   6.357   6.516   7.504
13883SOL     OW43481   3.298   8.168   8.644
13883SOL    HW143482   3.303   8.263   8.634
13883SOL    HW243483   3.305   8.153   8.738
13884SOL     OW43484  14.421   0.078  12.526
13884SOL    HW143485  14.426  14.871  12.472
13884SOL    HW243486  14.506   0.121  12.513
13885SOL     OW43487   9.243   2.597   1.114
13885SOL    HW143488   9.269   2.525   1.172
13885SOL    HW243489   9.322   2.617   1.064
13886SOL     OW43490   4.746   3.471   4.115
13886SOL    HW143491   4.761   3.538   4.049
13886SOL    HW243492   4.683   3.411   4.075
13887SOL     OW43493   8.055   2.961   8.600
13887SOL    HW143494   8.082   3.035   8.545
13887SOL    HW243495   8.137   2.926   8.634
13888SOL     OW43496  13.427  11.950   6.110
13888SOL    HW143497  13.470  11.871   6.076
13888SOL    HW243498  13.495  11.995   6.159
13889SOL     OW43499   0.836   8.348   1.055
13889SOL    HW143500   0.885   8.290   1.114
13889SOL    HW243501   0.814   8.292   0.980
13890SOL     OW43502   0.143  11.630  12.523
13890SOL    HW143503   0.077  11.592  12.464
13890SOL    HW243504   0.096  11.697  12.572
13891SOL     OW43505   2.116   9.839   8.149
13891SOL    HW143506   2.074   9.919   8.115
13891SOL    HW243507   2.192   9.827   8.092
13892SOL     OW43508  13.924   9.675   7.339
13892SOL    HW143509  13.926   9.723   7.256
13892SOL    HW243510  13.837   9.691   7.375
13893SOL     OW43511  12.289   1.898   1.474
13893SOL    HW143512  12.367   1.858   1.436
13893SOL    HW243513  12.308   1.991   1.478
13894SOL     OW43514   2.251   8.673   4.837
13894SOL    HW143515   2.270   8.763   4.810
13894SOL    HW243516   2.172   8.650   4.789
13895SOL     OW43517   2.282   4.671   1.238
13895SOL    HW143518   2.306   4.760   1.209
13895SOL    HW243519   2.350   4.615   1.200
13896SOL     OW43520   3.709   2.445  11.946
13896SOL    HW143521   3.619   2.413  11.937
13896SOL    HW243522   3.713   2.520  11.886
13897SOL     OW43523   9.185   7.996   2.491
13897SOL    HW143524   9.193   7.904   2.518
13897SOL    HW243525   9.141   8.038   2.565
13898SOL     OW43526  12.243  14.571   0.267
13898SOL    HW143527  12.231  14.663   0.245
13898SOL    HW243528  12.258  14.528   0.182
13899SOL     OW43529   9.656   0.812   7.960
13899SOL    HW143530   9.654   0.858   8.044
13899SOL    HW243531   9.728   0.749   7.968
13900SOL     OW43532   2.922   1.473   7.030
13900SOL    HW143533   2.974   1.552   7.017
13900SOL    HW243534   2.921   1.460   7.125
13901SOL     OW43535   8.358  11.489   0.985
13901SOL    HW143536   8.305  11.505   1.062
13901SOL    HW243537   8.332  11.557   0.923
13902SOL     OW43538   6.882  12.424   0.014
13902SOL    HW143539   6.819  12.381  14.828
13902SOL    HW243540   6.921  12.493  14.834
13903SOL     OW43541   6.616   1.647  12.022
13903SOL    HW143542   6.574   1.687  11.945
13903SOL    HW243543   6.707   1.674  12.016
13904SOL     OW43544   4.465   9.741   7.224
13904SOL    HW143545   4.528   9.725   7.293
13904SOL    HW243546   4.518   9.760   7.146
13905SOL     OW43547   0.654  10.118   6.936
13905SOL    HW143548   0.612  10.124   6.850
13905SOL    HW243549   0.745  10.098   6.916
13906SOL     OW43550   1.329   1.001   6.212
13906SOL    HW143551   1.378   1.078   6.239
13906SOL    HW243552   1.265   0.987   6.281
13907SOL     OW43553   6.257  11.538   2.371
13907SOL    HW143554   6.270  11.519   2.278
13907SOL    HW243555   6.275  11.632   2.380
13908SOL     OW43556  10.904   3.573  11.194
13908SOL    HW143557  10.911   3.588  11.288
13908SOL    HW243558  10.975   3.511  11.175
13909SOL     OW43559   8.603  11.224   0.675
13909SOL    HW143560   8.650  11.203   0.756
13909SOL    HW243561   8.668  11.270   0.622
13910SOL     OW43562   6.185  12.308   8.939
13910SOL    HW143563   6.268  12.269   8.912
13910SOL    HW243564   6.208  12.396   8.969
13911SOL     OW43565   1.065   2.450   3.405
13911SOL    HW143566   0.978   2.485   3.421
13911SOL    HW243567   1.108   2.514   3.349
13912SOL     OW43568   1.707   8.749   8.613
13912SOL    HW143569   1.698   8.735   8.708
13912SOL    HW243570   1.731   8.663   8.579
13913SOL     OW43571  10.904  12.571   7.457
13913SOL    HW143572  10.934  12.662   7.457
13913SOL    HW243573  10.885  12.553   7.365
13914SOL     OW43574   1.427  12.311   3.767
13914SOL    HW143575   1.499  12.248   3.772
13914SOL    HW243576   1.422  12.348   3.855
13915SOL     OW43577   8.780   5.404   0.973
13915SOL    HW143578   8.802   5.342   1.042
13915SOL    HW243579   8.710   5.457   1.010
13916SOL     OW43580   2.569  13.294   5.563
13916SOL    HW143581   2.560  13.210   5.519
13916SOL    HW243582   2.650  13.286   5.614
13917SOL     OW43583   2.813   4.047   9.489
13917SOL    HW143584   2.782   4.136   9.474
13917SOL    HW243585   2.751   3.991   9.442
13918SOL     OW43586  14.597   8.825  10.623
13918SOL    HW143587  14.523   8.784  10.668
13918SOL    HW243588  14.666   8.759  10.624
13919SOL     OW43589  14.233  11.378   9.325
13919SOL    HW143590  14.147  11.387   9.367
13919SOL    HW243591  14.236  11.451   9.262
13920SOL     OW43592  11.168   4.356  10.882
13920SOL    HW143593  11.083   4.393  10.908
13920SOL    HW243594  11.196   4.304  10.957
13921SOL     OW43595  14.599  13.842   4.251
13921SOL    HW143596  14.551  13.760   4.257
13921SOL    HW243597  14.674  13.821   4.194
13922SOL     OW43598   1.873   2.869   4.608
13922SOL    HW143599   1.896   2.813   4.682
13922SOL    HW243600   1.854   2.954   4.648
13923SOL     OW43601   7.330   8.304   5.082
13923SOL    HW143602   7.246   8.326   5.041
13923SOL    HW243603   7.354   8.383   5.131
13924SOL     OW43604  10.283   3.294   3.422
13924SOL    HW143605  10.291   3.243   3.503
13924SOL    HW243606  10.298   3.385   3.450
13925SOL     OW43607  14.606  10.344   6.191
13925SOL    HW143608  14.584  10.427   6.234
13925SOL    HW243609  14.700  10.350   6.176
13926SOL     OW43610  14.294   5.685   7.608
13926SOL    HW143611  14.308   5.732   7.690
13926SOL    HW243612  14.372   5.704   7.556
13927SOL     OW43613   7.047   8.665   8.093
13927SOL    HW143614   7.095   8.667   8.176
13927SOL    HW243615   7.114   8.647   8.028
13928SOL     OW43616   4.365   2.638   0.515
13928SOL    HW143617   4.417   2.561   0.492
13928SOL    HW243618   4.315   2.657   0.435
13929SOL     OW43619   4.781   5.703   7.399
13929SOL    HW143620   4.737   5.629   7.358
13929SOL    HW243621   4.873   5.694   7.374
13930SOL     OW43622   6.755   0.688  11.229
13930SOL    HW143623   6.671   0.698  11.275
13930SOL    HW243624   6.763   0.593  11.215
13931SOL     OW43625  10.214   8.851   4.532
13931SOL    HW143626  10.198   8.906   4.455
13931SOL    HW243627  10.145   8.784   4.527
13932SOL     OW43628   6.738   5.268  11.834
13932SOL    HW143629   6.658   5.253  11.884
13932SOL    HW243630   6.760   5.360  11.850
13933SOL     OW43631   5.027   7.804   9.387
13933SOL    HW143632   4.932   7.808   9.399
13933SOL    HW243633   5.039   7.798   9.292
13934SOL     OW43634   5.604  10.207   4.771
13934SOL    HW143635   5.538  10.144   4.798
13934SOL    HW243636   5.658  10.220   4.849
13935SOL     OW43637   6.497   7.101   4.592
13935SOL    HW143638   6.523   7.156   4.666
13935SOL    HW243639   6.403   7.117   4.582
13936SOL     OW43640   2.512   2.434   7.195
13936SOL    HW143641   2.576   2.436   7.123
13936SOL    HW243642   2.544   2.364   7.253
13937SOL     OW43643   3.886   6.917  12.101
13937SOL    HW143644   3.875   6.848  12.167
13937SOL    HW243645   3.919   6.992  12.149
13938SOL     OW43646   1.984  14.002  14.374
13938SOL    HW143647   2.029  14.077  14.413
13938SOL    HW243648   1.932  14.040  14.303
13939SOL     OW43649  10.905   5.774   7.389
13939SOL    HW143650  10.890   5.859   7.431
13939SOL    HW243651  10.959   5.725   7.451
13940SOL     OW43652   9.376   8.108  11.189
13940SOL    HW143653   9.322   8.168  11.240
13940SOL    HW243654   9.421   8.055  11.255
13941SOL     OW43655   8.831   0.926  11.724
13941SOL    HW143656   8.890   0.995  11.754
13941SOL    HW243657   8.768   0.916  11.796
13942SOL     OW43658  11.065   5.032   1.742
13942SOL    HW143659  11.024   5.016   1.827
13942SOL    HW243660  11.057   5.126   1.728
13943SOL     OW43661   9.244   0.742   1.294
13943SOL    HW143662   9.246   0.754   1.389
13943SOL    HW243663   9.326   0.780   1.263
13944SOL     OW43664   4.877   5.103  11.889
13944SOL    HW143665   4.907   5.189  11.919
13944SOL    HW243666   4.819   5.072  11.959
13945SOL     OW43667   3.341   5.929   7.096
13945SOL    HW143668   3.285   5.995   7.134
13945SOL    HW243669   3.424   5.936   7.144
13946SOL     OW43670  14.162   4.582  12.542
13946SOL    HW143671  14.253   4.586  12.512
13946SOL    HW243672  14.168   4.596  12.636
13947SOL     OW43673   4.149   8.595  13.793
13947SOL    HW143674   4.169   8.609  13.700
13947SOL    HW243675   4.214   8.530  13.821
13948SOL     OW43676   6.667   3.843   7.620
13948SOL    HW143677   6.586   3.836   7.569
13948SOL    HW243678   6.698   3.753   7.628
13949SOL     OW43679   5.609   9.253   6.464
13949SOL    HW143680   5.653   9.240   6.548
13949SOL    HW243681   5.596   9.165   6.429
13950SOL     OW43682   3.751   2.227  14.797
13950SOL    HW143683   3.737   2.307  14.848
13950SOL    HW243684   3.683   2.167  14.829
13951SOL     OW43685   1.914  13.467  10.213
13951SOL    HW143686   1.951  13.553  10.195
13951SOL    HW243687   1.859  13.448  10.137
13952SOL     OW43688   0.699   8.773   0.367
13952SOL    HW143689   0.723   8.705   0.305
13952SOL    HW243690   0.780   8.822   0.381
13953SOL     OW43691   4.665  10.955  12.761
13953SOL    HW143692   4.712  11.029  12.722
13953SOL    HW243693   4.580  10.992  12.784
13954SOL     OW43694  12.450   1.477   9.578
13954SOL    HW143695  12.411   1.401   9.621
13954SOL    HW243696  12.544   1.469   9.595
13955SOL     OW43697  13.953  10.077   6.363
13955SOL    HW143698  13.894  10.053   6.434
13955SOL    HW243699  13.901  10.132   6.306
13956SOL     OW43700   8.221   7.952  11.116
13956SOL    HW143701   8.204   8.033  11.067
13956SOL    HW243702   8.290   7.909  11.065
13957SOL     OW43703  13.379  12.330  10.761
13957SOL    HW143704  13.383  12.275  10.683
13957SOL    HW243705  13.297  12.379  10.752
13958SOL     OW43706   2.993   5.156   5.235
13958SOL    HW143707   3.059   5.166   5.167
13958SOL    HW243708   2.914   5.127   5.189
13959SOL     OW43709   7.048   9.238  11.725
13959SOL    HW143710   7.073   9.169  11.788
13959SOL    HW243711   6.968   9.205  11.684
13960SOL     OW43712  12.148  10.019   9.782
13960SOL    HW143713  12.078  10.076   9.814
13960SOL    HW243714  12.116   9.930   9.801
13961SOL     OW43715  13.501   4.748   8.717
13961SOL    HW143716  13.570   4.723   8.779
13961SOL    HW243717  13.486   4.841   8.735
13962SOL     OW43718  10.749  11.420  11.551
13962SOL    HW143719  10.755  11.513  11.527
13962SOL    HW243720  10.660  11.395  11.526
13963SOL     OW43721   9.499   7.771  12.434
13963SOL    HW143722   9.563   7.817  12.488
13963SOL    HW243723   9.414   7.802  12.465
13964SOL     OW43724   1.150   3.477   3.971
13964SOL    HW143725   1.242   3.503   3.963
13964SOL    HW243726   1.143   3.397   3.918
13965SOL     OW43727  11.328  14.555   1.943
13965SOL    HW143728  11.294  14.495   2.010
13965SOL    HW243729  11.251  14.588   1.898
13966SOL     OW43730   4.650   6.353  14.009
13966SOL    HW143731   4.731   6.352  14.059
13966SOL    HW243732   4.677   6.364  13.918
13967SOL     OW43733   2.079   6.152   6.741
13967SOL    HW143734   2.021   6.163   6.816
13967SOL    HW243735   2.158   6.112   6.778
13968SOL     OW43736  10.798   9.984  10.915
13968SOL    HW143737  10.730  10.050  10.927
13968SOL    HW243738  10.754   9.900  10.930
13969SOL     OW43739  10.781  14.658   9.148
13969SOL    HW143740  10.837  14.593   9.191
13969SOL    HW243741  10.694  14.642   9.185
13970SOL     OW43742  10.922   8.908   2.909
13970SOL    HW143743  10.939   8.976   2.844
13970SOL    HW243744  10.841   8.866   2.879
13971SOL     OW43745   1.352  13.752  13.838
13971SOL    HW143746   1.440  13.715  13.830
13971SOL    HW243747   1.307  13.726  13.758
13972SOL     OW43748   1.284  11.052   9.132
13972SOL    HW143749   1.196  11.086   9.118
13972SOL    HW243750   1.290  10.975   9.074
13973SOL     OW43751  12.069  14.203   7.073
13973SOL    HW143752  12.011  14.150   7.018
13973SOL    HW243753  12.135  14.236   7.012
13974SOL     OW43754   7.907  12.217  11.535
13974SOL    HW143755   7.879  12.309  11.543
13974SOL    HW243756   7.828  12.167  11.555
13975SOL     OW43757   3.117   0.253   8.637
13975SOL    HW143758   3.131   0.304   8.716
13975SOL    HW243759   3.182   0.286   8.575
13976SOL     OW43760   2.066   4.705  10.341
13976SOL    HW143761   2.133   4.767  10.314
13976SOL    HW243762   1.985   4.755  10.341
13977SOL     OW43763  13.194   1.675   2.402
13977SOL    HW143764  13.163   1.678   2.492
13977SOL    HW243765  13.124   1.716   2.351
13978SOL     OW43766   7.839   0.351   8.326
13978SOL    HW143767   7.776   0.387   8.389
13978SOL    HW243768   7.798   0.364   8.241
13979SOL     OW43769   6.721  12.161   8.368
13979SOL    HW143770   6.651  12.218   8.335
13979SOL    HW243771   6.682  12.115   8.442
13980SOL     OW43772  12.272   1.362  14.365
13980SOL    HW143773  12.280   1.316  14.282
13980SOL    HW243774  12.317   1.306  14.428
13981SOL     OW43775   5.122   6.831   5.517
13981SOL    HW143776   5.084   6.789   5.440
13981SOL    HW243777   5.100   6.773   5.590
13982SOL     OW43778  10.499   2.686  11.291
13982SOL    HW143779  10.495   2.591  11.277
13982SOL    HW243780  10.430   2.721  11.236
13983SOL     OW43781   5.396   8.208  13.636
13983SOL    HW143782   5.310   8.241  13.663
13983SOL    HW243783   5.420   8.262  13.561
13984SOL     OW43784   0.707   8.455   7.760
13984SOL    HW143785   0.742   8.542   7.777
13984SOL    HW243786   0.679   8.423   7.846
13985SOL     OW43787  11.118   7.264   8.347
13985SOL    HW143788  11.098   7.207   8.422
13985SOL    HW243789  11.147   7.346   8.386
13986SOL     OW43790   3.089   9.033   9.558
13986SOL    HW143791   3.165   9.047   9.502
13986SOL    HW243792   3.119   9.055   9.646
13987SOL     OW43793   3.160   2.303   0.892
13987SOL    HW143794   3.230   2.244   0.864
13987SOL    HW243795   3.098   2.246   0.938
13988SOL     OW43796  13.728   0.915  12.088
13988SOL    HW143797  13.796   0.979  12.109
13988SOL    HW243798  13.648   0.967  12.082
13989SOL     OW43799  11.664   7.622  12.598
13989SOL    HW143800  11.635   7.619  12.690
13989SOL    HW243801  11.604   7.682  12.555
13990SOL     OW43802   2.282   2.432   2.177
13990SOL    HW143803   2.327   2.436   2.262
13990SOL    HW243804   2.202   2.382   2.194
13991SOL     OW43805   9.537   5.715   7.588
13991SOL    HW143806   9.606   5.708   7.653
13991SOL    HW243807   9.491   5.631   7.592
13992SOL     OW43808   8.219   1.709  11.811
13992SOL    HW143809   8.134   1.746  11.833
13992SOL    HW243810   8.201   1.617  11.791
13993SOL     OW43811  10.532   9.869  11.563
13993SOL    HW143812  10.506   9.880  11.471
13993SOL    HW243813  10.449   9.870  11.611
13994SOL     OW43814  10.260   8.286  11.247
13994SOL    HW143815  10.331   8.348  11.226
13994SOL    HW243816  10.180   8.337  11.237
13995SOL     OW43817   8.919  13.100   8.314
13995SOL    HW143818   8.942  13.066   8.401
13995SOL    HW243819   8.975  13.176   8.302
13996SOL     OW43820   0.667  11.222   8.263
13996SOL    HW143821   0.634  11.133   8.273
13996SOL    HW243822   0.700  11.225   8.173
13997SOL     OW43823   7.134   7.157   4.900
13997SOL    HW143824   7.110   7.205   4.979
13997SOL    HW243825   7.173   7.223   4.843
13998SOL     OW43826   5.791   2.400   2.798
13998SOL    HW143827   5.788   2.329   2.862
13998SOL    HW243828   5.712   2.452   2.817
13999SOL     OW43829   0.832  12.009  10.793
13999SOL    HW143830   0.913  12.002  10.842
13999SOL    HW243831   0.811  11.919  10.768
14000SOL     OW43832   9.164   1.375   0.769
14000SOL    HW143833   9.109   1.312   0.815
14000SOL    HW243834   9.112   1.400   0.693
14001SOL     OW43835   0.974   9.041   4.013
14001SOL    HW143836   0.928   8.969   3.969
14001SOL    HW243837   0.907   9.081   4.069
14002SOL     OW43838   8.197  10.167   0.624
14002SOL    HW143839   8.101  10.167   0.620
14002SOL    HW243840   8.217  10.151   0.716
14003SOL     OW43841   3.742  14.146   9.582
14003SOL    HW143842   3.688  14.225   9.585
14003SOL    HW243843   3.791  14.147   9.664
14004SOL     OW43844   1.175   7.001   2.637
14004SOL    HW143845   1.254   6.978   2.588
14004SOL    HW243846   1.103   6.960   2.589
14005SOL     OW43847  14.707   0.014  13.485
14005SOL    HW143848  14.672   0.103  13.472
14005SOL    HW243849  14.768   0.023  13.557
14006SOL     OW43850   0.970  14.228   2.642
14006SOL    HW143851   0.952  14.163   2.710
14006SOL    HW243852   1.056  14.203   2.607
14007SOL     OW43853  12.381  11.976   3.825
14007SOL    HW143854  12.310  11.972   3.762
14007SOL    HW243855  12.456  11.937   3.780
14008SOL     OW43856   0.867  13.736   0.406
14008SOL    HW143857   0.937  13.802   0.409
14008SOL    HW243858   0.815  13.760   0.329
14009SOL     OW43859   7.943  11.863   4.409
14009SOL    HW143860   7.991  11.919   4.348
14009SOL    HW243861   8.007  11.798   4.438
14010SOL     OW43862   2.043  10.010   1.598
14010SOL    HW143863   2.124  10.039   1.639
14010SOL    HW243864   1.997  10.090   1.574
14011SOL     OW43865   6.802   4.677  11.463
14011SOL    HW143866   6.839   4.597  11.425
14011SOL    HW243867   6.750   4.646  11.537
14012SOL     OW43868   1.103   5.625   9.331
14012SOL    HW143869   1.080   5.557   9.268
14012SOL    HW243870   1.028   5.631   9.390
14013SOL     OW43871  11.161   2.782   8.892
14013SOL    HW143872  11.125   2.851   8.836
14013SOL    HW243873  11.253   2.804   8.902
14014SOL     OW43874   7.613   4.652   5.970
14014SOL    HW143875   7.574   4.566   5.984
14014SOL    HW243876   7.706   4.640   5.992
14015SOL     OW43877  13.248  11.090  13.873
14015SOL    HW143878  13.186  11.018  13.882
14015SOL    HW243879  13.278  11.107  13.962
14016SOL     OW43880   6.356   4.002  10.782
14016SOL    HW143881   6.444   3.970  10.764
14016SOL    HW243882   6.302   3.964  10.713
14017SOL     OW43883   5.409   6.431   9.222
14017SOL    HW143884   5.495   6.471   9.233
14017SOL    HW243885   5.367   6.483   9.154
14018SOL     OW43886   4.927   3.704   0.630
14018SOL    HW143887   4.841   3.669   0.606
14018SOL    HW243888   4.908   3.781   0.683
14019SOL     OW43889   8.222  10.034   9.034
14019SOL    HW143890   8.316  10.052   9.033
14019SOL    HW243891   8.181  10.120   9.043
14020SOL     OW43892  14.389  14.232  10.019
14020SOL    HW143893  14.349  14.245   9.933
14020SOL    HW243894  14.483  14.240  10.004
14021SOL     OW43895   1.262   9.104   7.653
14021SOL    HW143896   1.223   9.185   7.684
14021SOL    HW243897   1.197   9.067   7.593
14022SOL     OW43898   9.380   2.716   7.633
14022SOL    HW143899   9.352   2.779   7.700
14022SOL    HW243900   9.310   2.718   7.567
14023SOL     OW43901  14.024  11.628  12.960
14023SOL    HW143902  14.042  11.535  12.963
14023SOL    HW243903  14.105  11.667  12.926
14024SOL     OW43904  10.850   1.243   5.078
14024SOL    HW143905  10.876   1.159   5.041
14024SOL    HW243906  10.931   1.293   5.085
14025SOL     OW43907   8.046  13.041  10.660
14025SOL    HW143908   8.139  13.066  10.660
14025SOL    HW243909   8.018  13.051  10.751
14026SOL     OW43910  12.759  12.199   4.451
14026SOL    HW143911  12.778  12.156   4.367
14026SOL    HW243912  12.712  12.133   4.501
14027SOL     OW43913   6.151   6.020   3.021
14027SOL    HW143914   6.081   6.019   2.956
14027SOL    HW243915   6.108   5.994   3.102
14028SOL     OW43916   2.102  13.256   9.629
14028SOL    HW143917   2.040  13.268   9.700
14028SOL    HW243918   2.159  13.185   9.657
14029SOL     OW43919  13.434  11.900  13.794
14029SOL    HW143920  13.406  11.919  13.705
14029SOL    HW243921  13.357  11.920  13.848
14030SOL     OW43922  12.731   2.382   3.816
14030SOL    HW143923  12.788   2.307   3.802
14030SOL    HW243924  12.790   2.452   3.843
14031SOL     OW43925   5.688   9.012   8.028
14031SOL    HW143926   5.748   9.034   7.957
14031SOL    HW243927   5.704   8.919   8.045
14032SOL     OW43928  12.359   5.992  10.932
14032SOL    HW143929  12.366   5.982  11.027
14032SOL    HW243930  12.320   6.079  10.920
14033SOL     OW43931   9.895  11.761   5.516
14033SOL    HW143932   9.909  11.743   5.609
14033SOL    HW243933   9.917  11.854   5.506
14034SOL     OW43934   6.721  13.032   4.186
14034SOL    HW143935   6.673  12.997   4.262
14034SOL    HW243936   6.668  13.007   4.111
14035SOL     OW43937   8.103   9.281  10.491
14035SOL    HW143938   8.178   9.222  10.490
14035SOL    HW243939   8.099   9.317  10.403
14036SOL     OW43940   9.042   0.824  12.567
14036SOL    HW143941   9.080   0.877  12.637
14036SOL    HW243942   8.948   0.845  12.570
14037SOL     OW43943  14.773   6.394   0.626
14037SOL    HW143944  14.843   6.333   0.605
14037SOL    HW243945  14.814   6.461   0.680
14038SOL     OW43946  11.023  14.503   9.568
14038SOL    HW143947  11.042  14.580   9.620
14038SOL    HW243948  11.097  14.495   9.508
14039SOL     OW43949   2.951   8.091   0.362
14039SOL    HW143950   2.880   8.153   0.379
14039SOL    HW243951   2.924   8.011   0.408
14040SOL     OW43952   7.804   5.539  10.724
14040SOL    HW143953   7.713   5.529  10.749
14040SOL    HW243954   7.853   5.492  10.791
14041SOL     OW43955   4.626   8.254  13.044
14041SOL    HW143956   4.707   8.218  13.080
14041SOL    HW243957   4.648   8.277  12.954
14042SOL     OW43958   1.135   6.498   2.860
14042SOL    HW143959   1.134   6.413   2.904
14042SOL    HW243960   1.074   6.551   2.911
14043SOL     OW43961   9.498  13.851   2.150
14043SOL    HW143962   9.451  13.927   2.115
14043SOL    HW243963   9.591  13.872   2.136
14044SOL     OW43964  10.900   6.374   8.113
14044SOL    HW143965  10.978   6.398   8.163
14044SOL    HW243966  10.933   6.349   8.027
14045SOL     OW43967   2.406   6.838  13.484
14045SOL    HW143968   2.410   6.873  13.573
14045SOL    HW243969   2.466   6.763  13.485
14046SOL     OW43970  12.061   1.984   6.523
14046SOL    HW143971  12.029   2.074   6.533
14046SOL    HW243972  12.086   1.977   6.431
14047SOL     OW43973   6.486   5.512  13.876
14047SOL    HW143974   6.478   5.425  13.836
14047SOL    HW243975   6.534   5.496  13.957
14048SOL     OW43976  11.057  14.069  14.690
14048SOL    HW143977  11.117  14.039  14.758
14048SOL    HW243978  11.027  13.988  14.648
14049SOL     OW43979  10.789  11.831  11.853
14049SOL    HW143980  10.826  11.889  11.919
14049SOL    HW243981  10.814  11.871  11.769
14050SOL     OW43982   7.854   2.347   8.523
14050SOL    HW143983   7.783   2.343   8.458
14050SOL    HW243984   7.886   2.437   8.519
14051SOL     OW43985  10.324  12.140   4.804
14051SOL    HW143986  10.351  12.048   4.805
14051SOL    HW243987  10.240  12.140   4.852
14052SOL     OW43988   4.244  10.802   2.964
14052SOL    HW143989   4.228  10.843   3.049
14052SOL    HW243990   4.307  10.732   2.984
14053SOL     OW43991   2.620   0.472   8.091
14053SOL    HW143992   2.612   0.540   8.024
14053SOL    HW243993   2.542   0.418   8.080
14054SOL     OW43994   4.531  11.981   3.804
14054SOL    HW143995   4.493  12.066   3.781
14054SOL    HW243996   4.626  11.995   3.795
14055SOL     OW43997  10.972   4.299   9.512
14055SOL    HW143998  10.943   4.381   9.472
14055SOL    HW243999  10.897   4.269   9.563
14056SOL     OW44000   7.936   0.334   9.459
14056SOL    HW144001   7.873   0.366   9.524
14056SOL    HW244002   7.958   0.411   9.406
14057SOL     OW44003   2.950   2.491  12.117
14057SOL    HW144004   2.984   2.578  12.095
14057SOL    HW244005   2.994   2.432  12.056
14058SOL     OW44006  14.031  12.329   0.786
14058SOL    HW144007  14.091  12.319   0.860
14058SOL    HW244008  14.085  12.357   0.713
14059SOL     OW44009  14.727  11.085  11.442
14059SOL    HW144010  14.682  11.132  11.372
14059SOL    HW244011  14.820  11.096  11.423
14060SOL     OW44012   5.477  11.176   7.135
14060SOL    HW144013   5.524  11.096   7.111
14060SOL    HW244014   5.427  11.153   7.213
14061SOL     OW44015  13.789  14.526   7.381
14061SOL    HW144016  13.728  14.477   7.327
14061SOL    HW244017  13.735  14.567   7.448
14062SOL     OW44018   5.118  12.575  10.252
14062SOL    HW144019   5.117  12.553  10.345
14062SOL    HW244020   5.211  12.577  10.228
14063SOL     OW44021   1.676  12.380  13.357
14063SOL    HW144022   1.754  12.334  13.387
14063SOL    HW244023   1.709  12.463  13.322
14064SOL     OW44024   2.139   8.557   6.304
14064SOL    HW144025   2.055   8.517   6.326
14064SOL    HW244026   2.117   8.646   6.276
14065SOL     OW44027  14.715  12.015  13.043
14065SOL    HW144028  14.751  11.926  13.049
14065SOL    HW244029  14.791  12.071  13.027
14066SOL     OW44030  14.406   8.602  10.131
14066SOL    HW144031  14.457   8.594  10.212
14066SOL    HW244032  14.402   8.696  10.114
14067SOL     OW44033   3.673   1.003  14.180
14067SOL    HW144034   3.623   0.935  14.134
14067SOL    HW244035   3.623   1.020  14.260
14068SOL     OW44036   1.104   0.440   9.046
14068SOL    HW144037   1.172   0.408   8.986
14068SOL    HW244038   1.131   0.529   9.067
14069SOL     OW44039   4.210   6.882   4.464
14069SOL    HW144040   4.164   6.852   4.542
14069SOL    HW244041   4.142   6.922   4.410
14070SOL     OW44042  12.098   0.276   7.943
14070SOL    HW144043  12.039   0.250   7.873
14070SOL    HW244044  12.185   0.253   7.911
14071SOL     OW44045   4.956   2.941   1.542
14071SOL    HW144046   4.867   2.931   1.577
14071SOL    HW244047   4.943   2.971   1.452
14072SOL     OW44048  12.140   7.288   2.461
14072SOL    HW144049  12.203   7.244   2.403
14072SOL    HW244050  12.124   7.373   2.419
14073SOL     OW44051   9.077  13.092   4.488
14073SOL    HW144052   9.066  13.026   4.557
14073SOL    HW244053   9.036  13.052   4.411
14074SOL     OW44054  13.519   5.761   8.001
14074SOL    HW144055  13.513   5.673   8.038
14074SOL    HW244056  13.520   5.819   8.077
14075SOL     OW44057   8.239   1.021   9.277
14075SOL    HW144058   8.219   0.945   9.222
14075SOL    HW244059   8.204   1.096   9.229
14076SOL     OW44060   3.557  14.459  13.376
14076SOL    HW144061   3.612  14.478  13.453
14076SOL    HW244062   3.529  14.368  13.388
14077SOL     OW44063  12.542  11.385   5.171
14077SOL    HW144064  12.508  11.349   5.090
14077SOL    HW244065  12.519  11.321   5.238
14078SOL     OW44066  12.891   8.742  14.690
14078SOL    HW144067  12.866   8.834  14.682
14078SOL    HW244068  12.827   8.695  14.636
14079SOL     OW44069   5.504  13.645   6.583
14079SOL    HW144070   5.436  13.579   6.591
14079SOL    HW244071   5.457  13.727   6.568
14080SOL     OW44072   4.182  11.414  12.358
14080SOL    HW144073   4.163  11.470  12.282
14080SOL    HW244074   4.274  11.392  12.349
14081SOL     OW44075  10.566   7.686  10.922
14081SOL    HW144076  10.473   7.707  10.926
14081SOL    HW244077  10.592   7.672  11.013
14082SOL     OW44078  13.347   0.055   5.306
14082SOL    HW144079  13.434   0.096   5.308
14082SOL    HW244080  13.361  14.845   5.260
14083SOL     OW44081  10.897   0.627   6.968
14083SOL    HW144082  10.959   0.663   7.031
14083SOL    HW244083  10.845   0.565   7.018
14084SOL     OW44084  12.406  10.503   0.633
14084SOL    HW144085  12.423  10.588   0.674
14084SOL    HW244086  12.318  10.512   0.596
14085SOL     OW44087  10.026   0.823   4.031
14085SOL    HW144088  10.039   0.729   4.022
14085SOL    HW244089  10.097   0.851   4.089
14086SOL     OW44090   2.821   8.197  10.312
14086SOL    HW144091   2.820   8.162  10.223
14086SOL    HW244092   2.745   8.254  10.317
14087SOL     OW44093   5.268  12.967   9.687
14087SOL    HW144094   5.223  12.987   9.604
14087SOL    HW244095   5.304  12.879   9.674
14088SOL     OW44096   6.043   3.840  12.820
14088SOL    HW144097   5.987   3.868  12.747
14088SOL    HW244098   6.125   3.889  12.808
14089SOL     OW44099   0.671  12.150   2.999
14089SOL    HW144100   0.726  12.110   3.066
14089SOL    HW244101   0.620  12.077   2.964
14090SOL     OW44102  13.962   3.549  11.881
14090SOL    HW144103  14.032   3.608  11.910
14090SOL    HW244104  14.005   3.464  11.871
14091SOL     OW44105   7.576   1.387   1.419
14091SOL    HW144106   7.659   1.354   1.453
14091SOL    HW244107   7.599   1.435   1.340
14092SOL     OW44108   1.045   1.700  12.005
14092SOL    HW144109   1.038   1.675  11.912
14092SOL    HW244110   1.075   1.791  12.003
14093SOL     OW44111   3.538  10.324   3.806
14093SOL    HW144112   3.480  10.336   3.730
14093SOL    HW244113   3.620  10.365   3.781
14094SOL     OW44114  11.911   4.128   8.694
14094SOL    HW144115  11.848   4.138   8.623
14094SOL    HW244116  11.866   4.164   8.771
14095SOL     OW44117   9.459  10.929   2.777
14095SOL    HW144118   9.415  10.894   2.700
14095SOL    HW244119   9.525  10.863   2.800
14096SOL     OW44120   5.110  13.897   2.877
14096SOL    HW144121   5.083  13.987   2.859
14096SOL    HW244122   5.157  13.902   2.960
14097SOL     OW44123   1.106   6.691   9.528
14097SOL    HW144124   1.143   6.773   9.560
14097SOL    HW244125   1.176   6.650   9.478
14098SOL     OW44126  12.852  10.946  10.150
14098SOL    HW144127  12.876  10.928  10.241
14098SOL    HW244128  12.758  10.927  10.146
14099SOL     OW44129  14.373  11.456   3.657
14099SOL    HW144130  14.314  11.419   3.723
14099SOL    HW244131  14.324  11.530   3.620
14100SOL     OW44132   6.680  11.689  10.806
14100SOL    HW144133   6.688  11.609  10.858
14100SOL    HW244134   6.728  11.755  10.856
14101SOL     OW44135   9.468   9.526   5.775
14101SOL    HW144136   9.513   9.445   5.750
14101SOL    HW244137   9.443   9.511   5.867
14102SOL     OW44138   3.306   7.243  13.758
14102SOL    HW144139   3.241   7.232  13.689
14102SOL    HW244140   3.297   7.334  13.785
14103SOL     OW44141  13.331   4.139   2.242
14103SOL    HW144142  13.393   4.074   2.276
14103SOL    HW244143  13.279   4.165   2.318
14104SOL     OW44144   0.711  14.509   2.072
14104SOL    HW144145   0.762  14.442   2.027
14104SOL    HW244146   0.626  14.468   2.088
14105SOL     OW44147   6.457  12.881   4.906
14105SOL    HW144148   6.546  12.890   4.940
14105SOL    HW244149   6.448  12.788   4.887
14106SOL     OW44150   2.463   7.378   5.444
14106SOL    HW144151   2.455   7.469   5.472
14106SOL    HW244152   2.440   7.379   5.351
14107SOL     OW44153   7.090   0.737   7.154
14107SOL    HW144154   7.045   0.809   7.109
14107SOL    HW244155   7.026   0.703   7.216
14108SOL     OW44156  14.723   5.982  13.456
14108SOL    HW144157  14.769   5.937  13.527
14108SOL    HW244158  14.765   6.068  13.452
14109SOL     OW44159   0.003   0.911   5.846
14109SOL    HW144160   0.055   0.990   5.858
14109SOL    HW244161  14.795   0.941   5.807
14110SOL     OW44162  12.433   1.983   4.845
14110SOL    HW144163  12.369   2.054   4.835
14110SOL    HW244164  12.466   1.993   4.934
14111SOL     OW44165   2.464   9.440   8.481
14111SOL    HW144166   2.384   9.422   8.530
14111SOL    HW244167   2.434   9.456   8.391
14112SOL     OW44168   3.865   7.716   4.966
14112SOL    HW144169   3.916   7.650   4.918
14112SOL    HW244170   3.788   7.668   4.996
14113SOL     OW44171   8.965   6.918  12.767
14113SOL    HW144172   8.951   6.826  12.748
14113SOL    HW244173   8.898   6.941  12.831
14114SOL     OW44174   6.060   1.400   5.732
14114SOL    HW144175   6.036   1.492   5.738
14114SOL    HW244176   6.114   1.383   5.809
14115SOL     OW44177   1.784  10.427   1.264
14115SOL    HW144178   1.688  10.420   1.267
14115SOL    HW244179   1.804  10.504   1.317
14116SOL     OW44180   7.895   6.296  11.146
14116SOL    HW144181   7.936   6.372  11.188
14116SOL    HW244182   7.957   6.225  11.160
14117SOL     OW44183   0.864   0.378   1.960
14117SOL    HW144184   0.856   0.317   2.033
14117SOL    HW244185   0.941   0.430   1.980
14118SOL     OW44186   6.960   8.927  10.201
14118SOL    HW144187   7.008   8.913  10.282
14118SOL    HW244188   7.028   8.938  10.134
14119SOL     OW44189   9.857   5.327   5.236
14119SOL    HW144190   9.889   5.291   5.319
14119SOL    HW244191   9.935   5.332   5.181
14120SOL     OW44192   6.389  12.610   0.299
14120SOL    HW144193   6.451  12.620   0.227
14120SOL    HW244194   6.319  12.673   0.280
14121SOL     OW44195   6.089   2.708   1.411
14121SOL    HW144196   6.008   2.703   1.360
14121SOL    HW244197   6.115   2.617   1.423
14122SOL     OW44198   8.352   5.440   5.830
14122SOL    HW144199   8.366   5.475   5.918
14122SOL    HW244200   8.394   5.503   5.772
14123SOL     OW44201   6.610   7.533   8.478
14123SOL    HW144202   6.666   7.609   8.496
14123SOL    HW244203   6.650   7.492   8.401
14124SOL     OW44204  12.326  10.502   7.911
14124SOL    HW144205  12.272  10.515   7.833
14124SOL    HW244206  12.326  10.408   7.925
14125SOL     OW44207  13.576  11.714   3.688
14125SOL    HW144208  13.546  11.782   3.627
14125SOL    HW244209  13.516  11.642   3.674
14126SOL     OW44210   9.060  12.523   8.521
14126SOL    HW144211   9.038  12.562   8.437
14126SOL    HW244212   9.006  12.570   8.585
14127SOL     OW44213   5.275   2.196   0.080
14127SOL    HW144214   5.343   2.132   0.097
14127SOL    HW244215   5.201   2.167   0.134
14128SOL     OW44216  11.945   6.695  13.300
14128SOL    HW144217  11.877   6.726  13.241
14128SOL    HW244218  11.908   6.707  13.388
14129SOL     OW44219   5.082   2.730   0.622
14129SOL    HW144220   5.069   2.687   0.706
14129SOL    HW244221   4.994   2.746   0.589
14130SOL     OW44222  13.606   7.151   3.650
14130SOL    HW144223  13.585   7.205   3.574
14130SOL    HW244224  13.566   7.196   3.724
14131SOL     OW44225  12.224  13.828   3.413
14131SOL    HW144226  12.192  13.802   3.499
14131SOL    HW244227  12.306  13.875   3.432
14132SOL     OW44228  13.964   8.604   0.137
14132SOL    HW144229  13.907   8.566   0.070
14132SOL    HW244230  13.903   8.641   0.202
14133SOL     OW44231   5.575   5.002   5.481
14133SOL    HW144232   5.601   4.925   5.431
14133SOL    HW244233   5.527   5.056   5.418
14134SOL     OW44234  13.880   3.574  11.585
14134SOL    HW144235  13.799   3.522  11.582
14134SOL    HW244236  13.915   3.558  11.672
14135SOL     OW44237  10.034   2.050   2.498
14135SOL    HW144238  10.087   2.115   2.451
14135SOL    HW244239   9.996   1.996   2.429
14136SOL     OW44240   5.021   8.386   0.190
14136SOL    HW144241   5.112   8.402   0.218
14136SOL    HW244242   4.998   8.464   0.140
14137SOL     OW44243   6.961   1.323   3.271
14137SOL    HW144244   6.947   1.322   3.366
14137SOL    HW244245   6.963   1.231   3.246
14138SOL     OW44246   8.327   5.750   7.586
14138SOL    HW144247   8.395   5.801   7.543
14138SOL    HW244248   8.358   5.741   7.677
14139SOL     OW44249   6.541   7.952   8.020
14139SOL    HW144250   6.548   8.046   8.007
14139SOL    HW244251   6.457   7.928   7.980
14140SOL     OW44252  12.667  14.680   0.399
14140SOL    HW144253  12.657  14.617   0.329
14140SOL    HW244254  12.713  14.632   0.468
14141SOL     OW44255   0.887  14.052   0.838
14141SOL    HW144256   0.960  14.015   0.789
14141SOL    HW244257   0.809  14.012   0.799
14142SOL     OW44258  14.221   9.099   7.309
14142SOL    HW144259  14.153   9.035   7.334
14142SOL    HW244260  14.278   9.050   7.250
14143SOL     OW44261   9.325   4.914   7.954
14143SOL    HW144262   9.405   4.887   7.909
14143SOL    HW244263   9.340   5.005   7.978
14144SOL     OW44264   2.405   8.491   1.093
14144SOL    HW144265   2.442   8.578   1.108
14144SOL    HW244266   2.452   8.434   1.154
14145SOL     OW44267  13.223  11.805   8.892
14145SOL    HW144268  13.245  11.714   8.873
14145SOL    HW244269  13.263  11.822   8.977
14146SOL     OW44270   5.636  12.656  12.748
14146SOL    HW144271   5.648  12.745  12.716
14146SOL    HW244272   5.642  12.664  12.843
14147SOL     OW44273   4.204   3.494   5.424
14147SOL    HW144274   4.261   3.418   5.435
14147SOL    HW244275   4.259   3.569   5.447
14148SOL     OW44276   6.557   2.698   0.031
14148SOL    HW144277   6.624   2.708  14.836
14148SOL    HW244278   6.475   2.692  14.855
14149SOL     OW44279   5.346   7.758  11.392
14149SOL    HW144280   5.310   7.803  11.469
14149SOL    HW244281   5.303   7.799  11.317
14150SOL     OW44282  14.503  12.549   2.381
14150SOL    HW144283  14.494  12.496   2.303
14150SOL    HW244284  14.590  12.589   2.373
14151SOL     OW44285   8.098  10.452  13.817
14151SOL    HW144286   8.173  10.484  13.868
14151SOL    HW244287   8.133  10.379  13.766
14152SOL     OW44288   3.733   0.284   9.630
14152SOL    HW144289   3.763   0.294   9.721
14152SOL    HW244290   3.735   0.373   9.594
14153SOL     OW44291   3.518  13.379   8.712
14153SOL    HW144292   3.608  13.401   8.688
14153SOL    HW244293   3.472  13.463   8.709
14154SOL     OW44294  12.722  10.553  13.766
14154SOL    HW144295  12.747  10.593  13.683
14154SOL    HW244296  12.744  10.461  13.756
14155SOL     OW44297   9.861  13.425   6.508
14155SOL    HW144298   9.888  13.460   6.593
14155SOL    HW244299   9.860  13.330   6.520
14156SOL     OW44300   1.399  13.254  12.117
14156SOL    HW144301   1.305  13.256  12.135
14156SOL    HW244302   1.438  13.307  12.186
14157SOL     OW44303   1.354   8.039   7.794
14157SOL    HW144304   1.409   7.995   7.860
14157SOL    HW244305   1.309   8.108   7.842
14158SOL     OW44306   9.808  12.234   6.591
14158SOL    HW144307   9.841  12.267   6.674
14158SOL    HW244308   9.717  12.209   6.609
14159SOL     OW44309   8.667   0.641  10.183
14159SOL    HW144310   8.619   0.697  10.244
14159SOL    HW244311   8.728   0.592  10.237
14160SOL     OW44312   6.682  13.421   8.864
14160SOL    HW144313   6.731  13.354   8.815
14160SOL    HW244314   6.630  13.371   8.927
14161SOL     OW44315   6.792   7.813  11.847
14161SOL    HW144316   6.800   7.755  11.771
14161SOL    HW244317   6.879   7.811  11.888
14162SOL     OW44318   3.182   0.888   3.619
14162SOL    HW144319   3.234   0.936   3.683
14162SOL    HW244320   3.095   0.882   3.658
14163SOL     OW44321  13.813  11.196   6.047
14163SOL    HW144322  13.800  11.248   5.968
14163SOL    HW244323  13.763  11.242   6.114
14164SOL     OW44324   3.253   7.998  14.245
14164SOL    HW144325   3.300   8.037  14.171
14164SOL    HW244326   3.276   8.053  14.319
14165SOL     OW44327   0.419   0.158  12.546
14165SOL    HW144328   0.351   0.109  12.592
14165SOL    HW244329   0.496   0.100  12.548
14166SOL     OW44330   5.563   1.035   1.149
14166SOL    HW144331   5.522   1.117   1.176
14166SOL    HW244332   5.618   1.010   1.224
14167SOL     OW44333  13.450   6.279   4.706
14167SOL    HW144334  13.446   6.321   4.621
14167SOL    HW244335  13.452   6.351   4.769
14168SOL     OW44336   5.942   1.774   4.732
14168SOL    HW144337   5.877   1.839   4.704
14168SOL    HW244338   5.991   1.753   4.653
14169SOL     OW44339   7.601   2.862   4.293
14169SOL    HW144340   7.570   2.947   4.261
14169SOL    HW244341   7.525   2.822   4.335
14170SOL     OW44342   8.044   7.928   5.933
14170SOL    HW144343   8.012   7.849   5.978
14170SOL    HW244344   8.011   7.919   5.844
14171SOL     OW44345   6.467   5.844   8.957
14171SOL    HW144346   6.518   5.787   9.015
14171SOL    HW244347   6.388   5.794   8.938
14172SOL     OW44348   2.222   9.021   4.043
14172SOL    HW144349   2.238   8.960   3.971
14172SOL    HW244350   2.308   9.036   4.082
14173SOL     OW44351  11.897  12.393   7.790
14173SOL    HW144352  11.813  12.439   7.791
14173SOL    HW244353  11.938  12.415   7.874
14174SOL     OW44354   3.569  14.093   6.644
14174SOL    HW144355   3.622  14.091   6.723
14174SOL    HW244356   3.546  14.186   6.633
14175SOL     OW44357   9.923   6.426   7.526
14175SOL    HW144358   9.898   6.353   7.469
14175SOL    HW244359   9.853   6.431   7.591
14176SOL     OW44360   6.699   4.801   7.497
14176SOL    HW144361   6.622   4.745   7.509
14176SOL    HW244362   6.665   4.890   7.505
14177SOL     OW44363   9.471  10.916  11.033
14177SOL    HW144364   9.465  10.967  10.952
14177SOL    HW244365   9.561  10.930  11.063
14178SOL     OW44366  13.997   3.384   1.882
14178SOL    HW144367  13.908   3.418   1.892
14178SOL    HW244368  14.032   3.381   1.971
14179SOL     OW44369   8.335   2.446  10.994
14179SOL    HW144370   8.358   2.359  10.963
14179SOL    HW244371   8.329   2.437  11.090
14180SOL     OW44372   4.778   4.250   4.569
14180SOL    HW144373   4.749   4.167   4.605
14180SOL    HW244374   4.774   4.311   4.642
14181SOL     OW44375  11.373   1.861   9.399
14181SOL    HW144376  11.301   1.900   9.349
14181SOL    HW244377  11.380   1.916   9.477
14182SOL     OW44378   1.424  14.182   7.362
14182SOL    HW144379   1.345  14.154   7.317
14182SOL    HW244380   1.470  14.101   7.384
14183SOL     OW44381   2.751   8.612   5.149
14183SOL    HW144382   2.784   8.651   5.068
14183SOL    HW244383   2.661   8.587   5.128
14184SOL     OW44384   3.210   6.555   0.591
14184SOL    HW144385   3.189   6.647   0.576
14184SOL    HW244386   3.283   6.558   0.653
14185SOL     OW44387  12.060  12.589  11.726
14185SOL    HW144388  12.147  12.600  11.766
14185SOL    HW244389  12.051  12.664  11.668
14186SOL     OW44390   4.843   2.731   1.262
14186SOL    HW144391   4.880   2.675   1.331
14186SOL    HW244392   4.759   2.690   1.241
14187SOL     OW44393   3.344   5.563  13.418
14187SOL    HW144394   3.338   5.591  13.327
14187SOL    HW244395   3.267   5.601  13.460
14188SOL     OW44396   2.299   8.986   7.477
14188SOL    HW144397   2.367   8.951   7.420
14188SOL    HW244398   2.340   9.063   7.518
14189SOL     OW44399  12.186  13.592  12.836
14189SOL    HW144400  12.248  13.631  12.898
14189SOL    HW244401  12.132  13.665  12.808
14190SOL     OW44402   8.446   0.048   8.359
14190SOL    HW144403   8.501   0.078   8.287
14190SOL    HW244404   8.500   0.061   8.437
14191SOL     OW44405  10.199   5.846   2.099
14191SOL    HW144406  10.141   5.773   2.079
14191SOL    HW244407  10.166   5.883   2.180
14192SOL     OW44408   3.888   8.084   9.132
14192SOL    HW144409   3.969   8.032   9.140
14192SOL    HW244410   3.865   8.078   9.039
14193SOL     OW44411   2.426  12.040   6.575
14193SOL    HW144412   2.347  12.016   6.625
14193SOL    HW244413   2.426  12.135   6.574
14194SOL     OW44414  12.812   6.266   6.209
14194SOL    HW144415  12.736   6.255   6.266
14194SOL    HW244416  12.776   6.301   6.127
14195SOL     OW44417   1.214  14.796  11.206
14195SOL    HW144418   1.241   0.006  11.246
14195SOL    HW244419   1.294  14.764  11.164
14196SOL     OW44420  10.484  10.994   6.976
14196SOL    HW144421  10.423  11.029   6.911
14196SOL    HW244422  10.430  10.977   7.053
14197SOL     OW44423   8.961   2.128   3.188
14197SOL    HW144424   8.997   2.050   3.231
14197SOL    HW244425   8.974   2.198   3.252
14198SOL     OW44426   8.923   4.043   5.195
14198SOL    HW144427   8.914   3.959   5.239
14198SOL    HW244428   9.003   4.081   5.231
14199SOL     OW44429   7.544   0.373   5.661
14199SOL    HW144430   7.519   0.461   5.633
14199SOL    HW244431   7.478   0.349   5.726
14200SOL     OW44432   6.983   7.371  10.852
14200SOL    HW144433   6.968   7.363  10.946
14200SOL    HW244434   6.953   7.288  10.816
14201SOL     OW44435   6.968  11.808   6.039
14201SOL    HW144436   7.062  11.791   6.041
14201SOL    HW244437   6.928  11.722   6.025
14202SOL     OW44438  12.617   0.058   3.970
14202SOL    HW144439  12.607   0.151   3.947
14202SOL    HW244440  12.542   0.039   4.026
14203SOL     OW44441  12.354  13.598   5.193
14203SOL    HW144442  12.352  13.503   5.193
14203SOL    HW244443  12.307  13.623   5.113
14204SOL     OW44444   7.533  12.020   7.446
14204SOL    HW144445   7.498  12.055   7.364
14204SOL    HW244446   7.487  11.937   7.459
14205SOL     OW44447   1.379   6.732   9.700
14205SOL    HW144448   1.429   6.780   9.766
14205SOL    HW244449   1.288   6.741   9.727
14206SOL     OW44450   8.426   3.212  10.707
14206SOL    HW144451   8.391   3.205  10.796
14206SOL    HW244452   8.521   3.219  10.718
14207SOL     OW44453  13.909  13.802   9.708
14207SOL    HW144454  13.956  13.883   9.690
14207SOL    HW244455  13.909  13.754   9.625
14208SOL     OW44456   9.658  14.645   9.612
14208SOL    HW144457   9.591  14.709   9.586
14208SOL    HW244458   9.612  14.587   9.673
14209SOL     OW44459  14.138   4.643   3.981
14209SOL    HW144460  14.087   4.662   3.903
14209SOL    HW244461  14.074   4.636   4.051
14210SOL     OW44462   3.018   4.191  10.869
14210SOL    HW144463   3.072   4.122  10.905
14210SOL    HW244464   3.014   4.172  10.775
14211SOL     OW44465  11.884   3.604  12.633
14211SOL    HW144466  11.918   3.568  12.550
14211SOL    HW244467  11.789   3.594  12.627
14212SOL     OW44468   6.364   4.379   5.374
14212SOL    HW144469   6.426   4.419   5.435
14212SOL    HW244470   6.279   4.388   5.418
14213SOL     OW44471   2.063  12.182   6.899
14213SOL    HW144472   2.072  12.159   6.991
14213SOL    HW244473   1.985  12.237   6.895
14214SOL     OW44474   2.206   3.666   0.679
14214SOL    HW144475   2.151   3.729   0.632
14214SOL    HW244476   2.153   3.587   0.684
14215SOL     OW44477  11.630   8.902   9.456
14215SOL    HW144478  11.608   8.994   9.472
14215SOL    HW244479  11.654   8.899   9.364
14216SOL     OW44480   3.654  12.820   9.731
14216SOL    HW144481   3.741  12.830   9.768
14216SOL    HW244482   3.667  12.823   9.636
14217SOL     OW44483   8.758   5.579   9.953
14217SOL    HW144484   8.663   5.584   9.942
14217SOL    HW244485   8.794   5.629   9.879
14218SOL     OW44486   5.478   2.570   1.832
14218SOL    HW144487   5.400   2.602   1.877
14218SOL    HW244488   5.548   2.576   1.898
14219SOL     OW44489   3.665  14.112   8.650
14219SOL    HW144490   3.730  14.133   8.718
14219SOL    HW244491   3.651  14.018   8.659
14220SOL     OW44492   9.807  10.069   3.780
14220SOL    HW144493   9.748  10.003   3.743
14220SOL    HW244494   9.863  10.020   3.840
14221SOL     OW44495   4.539  12.981   0.151
14221SOL    HW144496   4.601  13.052   0.137
14221SOL    HW244497   4.575  12.931   0.224
14222SOL     OW44498   0.204  12.988  12.172
14222SOL    HW144499   0.282  12.950  12.212
14222SOL    HW244500   0.140  12.992  12.243
14223SOL     OW44501   2.502   4.085  14.366
14223SOL    HW144502   2.558   4.009  14.382
14223SOL    HW244503   2.484   4.120  14.453
14224SOL     OW44504   6.732   7.913  14.008
14224SOL    HW144505   6.686   7.884  14.087
14224SOL    HW244506   6.824   7.891  14.024
14225SOL     OW44507   1.304   0.954  10.023
14225SOL    HW144508   1.307   0.993   9.936
14225SOL    HW244509   1.306   0.860  10.007
14226SOL     OW44510  12.470   5.836   3.513
14226SOL    HW144511  12.420   5.905   3.556
14226SOL    HW244512  12.557   5.842   3.551
14227SOL     OW44513   2.658  10.128  11.793
14227SOL    HW144514   2.637  10.193  11.726
14227SOL    HW244515   2.724  10.170  11.847
14228SOL     OW44516   2.088   4.740  13.312
14228SOL    HW144517   2.019   4.729  13.378
14228SOL    HW244518   2.170   4.737  13.361
14229SOL     OW44519   6.860   1.683   6.451
14229SOL    HW144520   6.874   1.590   6.433
14229SOL    HW244521   6.858   1.688   6.547
14230SOL     OW44522   7.755   0.589  12.876
14230SOL    HW144523   7.744   0.545  12.792
14230SOL    HW244524   7.688   0.658  12.876
14231SOL     OW44525   4.231  13.982   2.389
14231SOL    HW144526   4.197  14.071   2.374
14231SOL    HW244527   4.262  13.954   2.303
14232SOL     OW44528   9.983   9.864   3.314
14232SOL    HW144529   9.900   9.911   3.305
14232SOL    HW244530  10.049   9.932   3.324
14233SOL     OW44531   2.441   8.935  10.322
14233SOL    HW144532   2.534   8.926  10.343
14233SOL    HW244533   2.397   8.935  10.407
14234SOL     OW44534   8.070  12.468  12.195
14234SOL    HW144535   8.125  12.492  12.120
14234SOL    HW244536   8.005  12.539  12.201
14235SOL     OW44537  10.362  10.498   9.011
14235SOL    HW144538  10.301  10.528   9.079
14235SOL    HW244539  10.361  10.569   8.946
14236SOL     OW44540  10.621   6.067   9.152
14236SOL    HW144541  10.650   6.082   9.061
14236SOL    HW244542  10.698   6.029   9.195
14237SOL     OW44543  10.944  11.820   2.857
14237SOL    HW144544  10.998  11.750   2.821
14237SOL    HW244545  10.988  11.901   2.832
14238SOL     OW44546   2.652   0.246  11.872
14238SOL    HW144547   2.609   0.236  11.787
14238SOL    HW244548   2.644   0.340  11.891
14239SOL     OW44549   2.455   2.644  10.104
14239SOL    HW144550   2.366   2.677  10.118
14239SOL    HW244551   2.444   2.549  10.099
14240SOL     OW44552  12.875   8.599   7.764
14240SOL    HW144553  12.946   8.592   7.828
14240SOL    HW244554  12.890   8.684   7.721
14241SOL     OW44555   9.792  10.634  10.845
14241SOL    HW144556   9.839  10.715  10.866
14241SOL    HW244557   9.827  10.570  10.908
14242SOL     OW44558   6.687  13.729  12.131
14242SOL    HW144559   6.638  13.659  12.087
14242SOL    HW244560   6.695  13.797  12.065
14243SOL     OW44561   9.013  14.603  11.546
14243SOL    HW144562   9.042  14.613  11.455
14243SOL    HW244563   8.927  14.646  11.549
14244SOL     OW44564   5.624  14.457   6.439
14244SOL    HW144565   5.567  14.518   6.486
14244SOL    HW244566   5.690  14.513   6.398
14245SOL     OW44567   5.663   5.968  13.372
14245SOL    HW144568   5.658   5.905  13.444
14245SOL    HW244569   5.627   6.049  13.409
14246SOL     OW44570   0.558   8.156  13.436
14246SOL    HW144571   0.478   8.122  13.395
14246SOL    HW244572   0.527   8.219  13.501
14247SOL     OW44573   5.235   1.405  12.393
14247SOL    HW144574   5.250   1.361  12.310
14247SOL    HW244575   5.320   1.403  12.437
14248SOL     OW44576   9.129  10.150   4.457
14248SOL    HW144577   9.120  10.207   4.532
14248SOL    HW244578   9.208  10.098   4.475
14249SOL     OW44579  13.520   2.040   8.684
14249SOL    HW144580  13.541   2.129   8.654
14249SOL    HW244581  13.484   1.997   8.607
14250SOL     OW44582  11.805   0.978  12.875
14250SOL    HW144583  11.890   0.982  12.918
14250SOL    HW244584  11.822   0.932  12.792
14251SOL     OW44585   4.513  12.146  12.586
14251SOL    HW144586   4.542  12.061  12.552
14251SOL    HW244587   4.593  12.199  12.588
14252SOL     OW44588  14.320   7.685   8.617
14252SOL    HW144589  14.311   7.772   8.655
14252SOL    HW244590  14.318   7.626   8.692
14253SOL     OW44591   8.740   5.857  13.816
14253SOL    HW144592   8.669   5.794  13.801
14253SOL    HW244593   8.717   5.899  13.899
14254SOL     OW44594  12.239   9.928   9.036
14254SOL    HW144595  12.247  10.001   8.974
14254SOL    HW244596  12.198   9.966   9.114
14255SOL     OW44597   3.257   5.918   9.008
14255SOL    HW144598   3.311   5.935   9.085
14255SOL    HW244599   3.226   5.828   9.020
14256SOL     OW44600   3.073  12.700   6.910
14256SOL    HW144601   3.000  12.732   6.857
14256SOL    HW244602   3.067  12.605   6.903
14257SOL     OW44603  14.630  11.066   7.563
14257SOL    HW144604  14.698  11.016   7.517
14257SOL    HW244605  14.659  11.066   7.654
14258SOL     OW44606  11.964   5.731  12.547
14258SOL    HW144607  11.937   5.822  12.559
14258SOL    HW244608  12.039   5.721  12.606
14259SOL     OW44609   2.521   2.661   6.985
14259SOL    HW144610   2.477   2.602   6.924
14259SOL    HW244611   2.580   2.713   6.930
14260SOL     OW44612   4.623   6.850   4.055
14260SOL    HW144613   4.626   6.818   4.145
14260SOL    HW244614   4.622   6.945   4.063
14261SOL     OW44615   2.521   5.163  12.103
14261SOL    HW144616   2.463   5.232  12.136
14261SOL    HW244617   2.609   5.199  12.114
14262SOL     OW44618   2.904   7.432  14.711
14262SOL    HW144619   2.821   7.434  14.663
14262SOL    HW244620   2.880   7.445  14.802
14263SOL     OW44621   7.225  11.898   2.558
14263SOL    HW144622   7.266  11.871   2.476
14263SOL    HW244623   7.202  11.990   2.544
14264SOL     OW44624  12.231   8.496  10.601
14264SOL    HW144625  12.239   8.462  10.511
14264SOL    HW244626  12.313   8.543  10.616
14265SOL     OW44627   6.633  10.391   8.011
14265SOL    HW144628   6.606  10.392   8.103
14265SOL    HW244629   6.648  10.483   7.990
14266SOL     OW44630   7.419   7.453  14.168
14266SOL    HW144631   7.385   7.368  14.139
14266SOL    HW244632   7.514   7.440  14.173
14267SOL     OW44633   3.939  13.193   5.618
14267SOL    HW144634   3.869  13.256   5.640
14267SOL    HW244635   3.956  13.207   5.525
14268SOL     OW44636   4.612   4.511  12.246
14268SOL    HW144637   4.557   4.467  12.182
14268SOL    HW244638   4.556   4.577  12.286
14269SOL     OW44639   9.871   4.094  14.481
14269SOL    HW144640   9.955   4.104  14.436
14269SOL    HW244641   9.817   4.165  14.447
14270SOL     OW44642  14.372   6.105   7.758
14270SOL    HW144643  14.374   6.153   7.675
14270SOL    HW244644  14.405   6.168   7.822
14271SOL     OW44645   6.787   3.595   3.721
14271SOL    HW144646   6.832   3.602   3.805
14271SOL    HW244647   6.713   3.655   3.728
14272SOL     OW44648  12.278   9.518  11.668
14272SOL    HW144649  12.244   9.453  11.730
14272SOL    HW244650  12.371   9.527  11.692
14273SOL     OW44651   9.284   4.982   6.276
14273SOL    HW144652   9.224   4.913   6.248
14273SOL    HW244653   9.233   5.062   6.271
14274SOL     OW44654   6.039   8.854  11.894
14274SOL    HW144655   6.028   8.765  11.928
14274SOL    HW244656   6.011   8.849  11.803
14275SOL     OW44657   9.295  13.348   3.183
14275SOL    HW144658   9.387  13.323   3.188
14275SOL    HW244659   9.286  13.421   3.244
14276SOL     OW44660   9.762   3.996   0.890
14276SOL    HW144661   9.751   4.032   0.978
14276SOL    HW244662   9.702   4.047   0.835
14277SOL     OW44663   0.358  13.053   3.407
14277SOL    HW144664   0.447  13.049   3.370
14277SOL    HW244665   0.345  12.967   3.447
14278SOL     OW44666  12.639  13.180   5.274
14278SOL    HW144667  12.600  13.143   5.194
14278SOL    HW244668  12.635  13.109   5.338
14279SOL     OW44669  12.262   4.051  12.870
14279SOL    HW144670  12.282   4.007  12.787
14279SOL    HW244671  12.193   3.997  12.909
14280SOL     OW44672   1.547   7.812  13.341
14280SOL    HW144673   1.623   7.763  13.373
14280SOL    HW244674   1.475   7.748  13.342
14281SOL     OW44675   1.119  10.618   9.514
14281SOL    HW144676   1.162  10.704   9.507
14281SOL    HW244677   1.167  10.573   9.584
14282SOL     OW44678   0.297  11.278   4.054
14282SOL    HW144679   0.301  11.258   4.148
14282SOL    HW244680   0.205  11.264   4.030
14283SOL     OW44681   6.493  13.092   2.407
14283SOL    HW144682   6.494  13.187   2.406
14283SOL    HW244683   6.581  13.067   2.438
14284SOL     OW44684   6.715   2.068   4.190
14284SOL    HW144685   6.759   2.103   4.113
14284SOL    HW244686   6.649   2.134   4.213
14285SOL     OW44687  12.331   7.020   2.727
14285SOL    HW144688  12.320   6.925   2.723
14285SOL    HW244689  12.332   7.039   2.821
14286SOL     OW44690   0.872   4.571   7.895
14286SOL    HW144691   0.846   4.495   7.948
14286SOL    HW244692   0.834   4.646   7.941
14287SOL     OW44693   0.955  12.300  10.631
14287SOL    HW144694   0.921  12.368  10.690
14287SOL    HW244695   1.031  12.339  10.589
14288SOL     OW44696   4.473   7.362   0.512
14288SOL    HW144697   4.516   7.446   0.525
14288SOL    HW244698   4.386   7.373   0.551
14289SOL     OW44699   1.738   1.999  12.381
14289SOL    HW144700   1.821   1.967  12.346
14289SOL    HW244701   1.697   1.922  12.421
14290SOL     OW44702   8.328   5.959   7.262
14290SOL    HW144703   8.334   5.929   7.171
14290SOL    HW244704   8.357   6.050   7.259
14291SOL     OW44705   6.348  12.404   3.361
14291SOL    HW144706   6.283  12.378   3.426
14291SOL    HW244707   6.298  12.445   3.291
14292SOL     OW44708   5.287   2.719   1.149
14292SOL    HW144709   5.361   2.670   1.113
14292SOL    HW244710   5.281   2.689   1.240
14293SOL     OW44711   1.019  11.296  10.984
14293SOL    HW144712   1.021  11.250  11.068
14293SOL    HW244713   1.073  11.243  10.926
14294SOL     OW44714  12.950   9.835   6.834
14294SOL    HW144715  12.920   9.923   6.857
14294SOL    HW244716  12.925   9.824   6.743
14295SOL     OW44717   1.496   6.512   7.509
14295SOL    HW144718   1.416   6.564   7.502
14295SOL    HW244719   1.540   6.524   7.425
14296SOL     OW44720   5.571   2.794   5.188
14296SOL    HW144721   5.500   2.853   5.212
14296SOL    HW244722   5.587   2.811   5.095
14297SOL     OW44723   0.339   7.352   2.542
14297SOL    HW144724   0.274   7.364   2.612
14297SOL    HW244725   0.294   7.382   2.463
14298SOL     OW44726  14.814  12.110   5.848
14298SOL    HW144727  14.755  12.054   5.898
14298SOL    HW244728  14.860  12.161   5.915
14299SOL     OW44729   4.444   6.455  14.657
14299SOL    HW144730   4.540   6.462  14.658
14299SOL    HW244731   4.414   6.529  14.709
14300SOL     OW44732   1.540   4.750   4.891
14300SOL    HW144733   1.453   4.787   4.877
14300SOL    HW244734   1.601   4.820   4.867
14301SOL     OW44735   9.394   0.033  11.364
14301SOL    HW144736   9.399   0.128  11.372
14301SOL    HW244737   9.348   0.004  11.443
14302SOL     OW44738   0.005  12.561  11.682
14302SOL    HW144739  14.794  12.522  11.660
14302SOL    HW244740  14.869  12.586  11.774
14303SOL     OW44741   0.655  11.707   4.105
14303SOL    HW144742   0.652  11.778   4.169
14303SOL    HW244743   0.603  11.637   4.144
14304SOL     OW44744   7.821   2.750  13.933
14304SOL    HW144745   7.763   2.825  13.922
14304SOL    HW244746   7.859   2.736  13.846
14305SOL     OW44747  12.942  13.956   3.995
14305SOL    HW144748  12.928  13.961   4.089
14305SOL    HW244749  13.016  14.016   3.978
14306SOL     OW44750  13.117  14.517  11.182
14306SOL    HW144751  13.207  14.499  11.211
14306SOL    HW244752  13.116  14.612  11.168
14307SOL     OW44753   3.642   6.360  14.584
14307SOL    HW144754   3.700   6.425  14.622
14307SOL    HW244755   3.568   6.411  14.549
14308SOL     OW44756   5.491   4.745   4.250
14308SOL    HW144757   5.416   4.799   4.275
14308SOL    HW244758   5.454   4.658   4.237
14309SOL     OW44759   7.870   1.374   5.304
14309SOL    HW144760   7.868   1.453   5.250
14309SOL    HW244761   7.963   1.363   5.326
14310SOL     OW44762   7.185   9.613  13.939
14310SOL    HW144763   7.153   9.607  13.849
14310SOL    HW244764   7.107   9.628  13.992
14311SOL     OW44765  12.108   1.576   3.984
14311SOL    HW144766  12.159   1.642   4.030
14311SOL    HW244767  12.107   1.501   4.043
14312SOL     OW44768   7.330   6.447   4.297
14312SOL    HW144769   7.326   6.444   4.202
14312SOL    HW244770   7.423   6.441   4.318
14313SOL     OW44771   9.525  10.596   6.377
14313SOL    HW144772   9.527  10.602   6.473
14313SOL    HW244773   9.437  10.626   6.353
14314SOL     OW44774  13.820   1.204   8.340
14314SOL    HW144775  13.736   1.191   8.384
14314SOL    HW244776  13.869   1.263   8.397
14315SOL     OW44777   9.266  10.280   0.564
14315SOL    HW144778   9.318  10.352   0.599
14315SOL    HW244779   9.178  10.317   0.552
14316SOL     OW44780   9.745   7.669   2.943
14316SOL    HW144781   9.671   7.673   2.882
14316SOL    HW244782   9.819   7.640   2.888
14317SOL     OW44783   8.169   6.938  13.054
14317SOL    HW144784   8.173   7.026  13.017
14317SOL    HW244785   8.152   6.881  12.980
14318SOL     OW44786   1.846   4.018  10.973
14318SOL    HW144787   1.909   3.954  11.009
14318SOL    HW244788   1.861   4.016  10.879
14319SOL     OW44789  13.630   6.806   0.595
14319SOL    HW144790  13.642   6.831   0.503
14319SOL    HW244791  13.594   6.717   0.591
14320SOL     OW44792   9.969  14.389  14.405
14320SOL    HW144793   9.892  14.361  14.455
14320SOL    HW244794  10.040  14.333  14.437
14321SOL     OW44795   7.389   3.368  10.414
14321SOL    HW144796   7.419   3.328  10.333
14321SOL    HW244797   7.445   3.445  10.425
14322SOL     OW44798   4.513   9.496   8.661
14322SOL    HW144799   4.424   9.484   8.694
14322SOL    HW244800   4.553   9.409   8.667
14323SOL     OW44801   2.610  11.876   4.338
14323SOL    HW144802   2.650  11.957   4.307
14323SOL    HW244803   2.516  11.891   4.329
14324SOL     OW44804   7.071   5.885   8.526
14324SOL    HW144805   7.121   5.807   8.550
14324SOL    HW244806   6.994   5.851   8.480
14325SOL     OW44807   6.844  11.999  12.369
14325SOL    HW144808   6.786  12.039  12.304
14325SOL    HW244809   6.916  11.962  12.317
14326SOL     OW44810   8.528  11.147  10.810
14326SOL    HW144811   8.595  11.193  10.761
14326SOL    HW244812   8.548  11.054  10.798
14327SOL     OW44813   3.615   5.039   5.363
14327SOL    HW144814   3.625   5.000   5.276
14327SOL    HW244815   3.522   5.064   5.367
14328SOL     OW44816   7.019   9.089   6.005
14328SOL    HW144817   7.002   9.024   6.074
14328SOL    HW244818   6.969   9.058   5.930
14329SOL     OW44819   1.046  14.359  10.194
14329SOL    HW144820   1.069  14.355  10.101
14329SOL    HW244821   0.988  14.435  10.201
14330SOL     OW44822  12.408   5.601   6.065
14330SOL    HW144823  12.318   5.612   6.034
14330SOL    HW244824  12.457   5.573   5.987
14331SOL     OW44825   5.316   2.993   1.052
14331SOL    HW144826   5.227   2.995   1.019
14331SOL    HW244827   5.325   2.909   1.096
14332SOL     OW44828   7.214   3.145   2.441
14332SOL    HW144829   7.259   3.229   2.438
14332SOL    HW244830   7.253   3.099   2.516
14333SOL     OW44831   8.403   1.065   2.809
14333SOL    HW144832   8.367   1.040   2.895
14333SOL    HW244833   8.330   1.052   2.748
14334SOL     OW44834   2.793   5.480   8.840
14334SOL    HW144835   2.882   5.513   8.833
14334SOL    HW244836   2.754   5.529   8.913
14335SOL     OW44837   8.402   7.177   5.197
14335SOL    HW144838   8.407   7.081   5.197
14335SOL    HW244839   8.310   7.196   5.217
14336SOL     OW44840   0.497  14.239  11.175
14336SOL    HW144841   0.514  14.181  11.101
14336SOL    HW244842   0.420  14.201  11.218
14337SOL     OW44843   9.754   7.777   0.541
14337SOL    HW144844   9.835   7.779   0.490
14337SOL    HW244845   9.777   7.737   0.624
14338SOL     OW44846   1.842   0.123   2.860
14338SOL    HW144847   1.930   0.088   2.843
14338SOL    HW244848   1.786   0.082   2.795
14339SOL     OW44849   3.548  12.025   5.413
14339SOL    HW144850   3.590  11.940   5.427
14339SOL    HW244851   3.546  12.066   5.500
14340SOL     OW44852  14.604   6.971  10.783
14340SOL    HW144853  14.529   7.022  10.750
14340SOL    HW244854  14.617   6.904  10.715
14341SOL     OW44855  14.220  12.396  11.478
14341SOL    HW144856  14.288  12.349  11.527
14341SOL    HW244857  14.266  12.434  11.403
14342SOL     OW44858   9.241   5.455   4.380
14342SOL    HW144859   9.181   5.496   4.318
14342SOL    HW244860   9.185   5.428   4.452
14343SOL     OW44861   5.446   4.656   8.344
14343SOL    HW144862   5.511   4.610   8.292
14343SOL    HW244863   5.494   4.690   8.419
14344SOL     OW44864   6.945   2.266   4.902
14344SOL    HW144865   6.983   2.236   4.820
14344SOL    HW244866   6.935   2.361   4.891
14345SOL     OW44867   8.065   5.187   7.531
14345SOL    HW144868   8.073   5.269   7.483
14345SOL    HW244869   8.006   5.206   7.603
14346SOL     OW44870  12.277   4.242   3.515
14346SOL    HW144871  12.235   4.247   3.429
14346SOL    HW244872  12.238   4.166   3.556
14347SOL     OW44873   8.489  13.361   7.001
14347SOL    HW144874   8.396  13.339   6.997
14347SOL    HW244875   8.495  13.445   6.955
14348SOL     OW44876  14.120   8.348  13.657
14348SOL    HW144877  14.145   8.435  13.625
14348SOL    HW244878  14.038   8.362  13.703
14349SOL     OW44879  14.522   7.580  13.357
14349SOL    HW144880  14.548   7.650  13.417
14349SOL    HW244881  14.431   7.561  13.381
14350SOL     OW44882   0.011  13.676   6.201
14350SOL    HW144883  14.841  13.690   6.285
14350SOL    HW244884  14.812  13.661   6.139
14351SOL     OW44885   6.249   1.391   9.881
14351SOL    HW144886   6.171   1.341   9.903
14351SOL    HW244887   6.271   1.362   9.792
14352SOL     OW44888  14.239   8.073   5.421
14352SOL    HW144889  14.215   8.134   5.351
14352SOL    HW244890  14.290   8.126   5.482
14353SOL     OW44891   6.356   9.701   4.184
14353SOL    HW144892   6.302   9.654   4.247
14353SOL    HW244893   6.331   9.793   4.195
14354SOL     OW44894  11.422   0.515   5.902
14354SOL    HW144895  11.480   0.548   5.834
14354SOL    HW244896  11.454   0.555   5.983
14355SOL     OW44897  14.754   4.899   7.251
14355SOL    HW144898  14.796   4.985   7.241
14355SOL    HW244899  14.746   4.887   7.346
14356SOL     OW44900   3.282   8.470  13.796
14356SOL    HW144901   3.363   8.483  13.844
14356SOL    HW244902   3.224   8.540  13.827
14357SOL     OW44903   2.886  12.988   4.028
14357SOL    HW144904   2.887  12.892   4.030
14357SOL    HW244905   2.924  13.014   4.112
14358SOL     OW44906  12.358   7.032   1.862
14358SOL    HW144907  12.285   6.988   1.819
14358SOL    HW244908  12.346   7.011   1.955
14359SOL     OW44909  10.479  14.377   9.122
14359SOL    HW144910  10.573  14.356   9.127
14359SOL    HW244911  10.470  14.431   9.043
14360SOL     OW44912   6.755  11.384   7.076
14360SOL    HW144913   6.769  11.301   7.029
14360SOL    HW244914   6.833  11.435   7.058
14361SOL     OW44915   8.536   2.565   1.305
14361SOL    HW144916   8.583   2.647   1.318
14361SOL    HW244917   8.605   2.498   1.303
14362SOL     OW44918   0.474  13.410   1.585
14362SOL    HW144919   0.567  13.428   1.598
14362SOL    HW244920   0.470  13.353   1.508
14363SOL     OW44921   1.712   8.183   5.157
14363SOL    HW144922   1.656   8.158   5.230
14363SOL    HW244923   1.760   8.259   5.189
14364SOL     OW44924   6.154   1.290   2.163
14364SOL    HW144925   6.076   1.237   2.181
14364SOL    HW244926   6.126   1.350   2.094
14365SOL     OW44927  12.836  10.150  12.140
14365SOL    HW144928  12.860  10.242  12.156
14365SOL    HW244929  12.838  10.110  12.227
14366SOL     OW44930  11.438   7.963   5.823
14366SOL    HW144931  11.501   7.916   5.767
14366SOL    HW244932  11.440   7.916   5.906
14367SOL     OW44933  11.372  14.029  13.350
14367SOL    HW144934  11.443  14.025  13.286
14367SOL    HW244935  11.372  14.120  13.381
14368SOL     OW44936  11.887  10.564  10.058
14368SOL    HW144937  11.924  10.652  10.061
14368SOL    HW244938  11.793  10.577  10.056
14369SOL     OW44939  14.011  13.135   3.735
14369SOL    HW144940  14.028  13.123   3.642
14369SOL    HW244941  13.948  13.208   3.738
14370SOL     OW44942   7.815   2.804   0.504
14370SOL    HW144943   7.757   2.734   0.534
14370SOL    HW244944   7.835   2.854   0.583
14371SOL     OW44945   0.841  12.153  11.761
14371SOL    HW144946   0.932  12.163  11.790
14371SOL    HW244947   0.844  12.166  11.666
14372SOL     OW44948   5.955  14.240   2.914
14372SOL    HW144949   5.892  14.183   2.869
14372SOL    HW244950   6.040  14.209   2.885
14373SOL     OW44951  12.391   6.700   7.941
14373SOL    HW144952  12.318   6.715   7.882
14373SOL    HW244953  12.457   6.765   7.915
14374SOL     OW44954  13.651   0.452   9.142
14374SOL    HW144955  13.581   0.481   9.084
14374SOL    HW244956  13.700   0.532   9.163
14375SOL     OW44957   4.114  14.393   1.962
14375SOL    HW144958   4.076  14.308   1.984
14375SOL    HW244959   4.091  14.407   1.871
14376SOL     OW44960   4.106   9.949  13.396
14376SOL    HW144961   4.076   9.916  13.312
14376SOL    HW244962   4.041   9.918  13.459
14377SOL     OW44963  13.657  10.980   0.163
14377SOL    HW144964  13.603  10.926   0.105
14377SOL    HW244965  13.595  11.042   0.202
14378SOL     OW44966   2.567   7.206   8.049
14378SOL    HW144967   2.496   7.208   7.985
14378SOL    HW244968   2.552   7.126   8.099
14379SOL     OW44969   9.443  11.566   3.576
14379SOL    HW144970   9.417  11.652   3.542
14379SOL    HW244971   9.443  11.576   3.671
14380SOL     OW44972   6.917   9.861  14.491
14380SOL    HW144973   6.950   9.911  14.566
14380SOL    HW244974   6.996   9.833  14.444
14381SOL     OW44975   3.460   3.609   3.962
14381SOL    HW144976   3.484   3.524   3.925
14381SOL    HW244977   3.447   3.666   3.886
14382SOL     OW44978  10.693   8.166   3.263
14382SOL    HW144979  10.763   8.228   3.243
14382SOL    HW244980  10.641   8.161   3.183
14383SOL     OW44981   4.949   8.494   2.587
14383SOL    HW144982   5.025   8.446   2.554
14383SOL    HW244983   4.959   8.493   2.682
14384SOL     OW44984  12.883   6.432   9.591
14384SOL    HW144985  12.967   6.388   9.604
14384SOL    HW244986  12.820   6.377   9.637
14385SOL     OW44987   4.709  10.041   5.823
14385SOL    HW144988   4.748   9.955   5.841
14385SOL    HW244989   4.753  10.071   5.744
14386SOL     OW44990   9.892   3.636   0.357
14386SOL    HW144991   9.854   3.721   0.381
14386SOL    HW244992   9.824   3.572   0.380
14387SOL     OW44993  13.201   2.202  12.670
14387SOL    HW144994  13.260   2.277  12.664
14387SOL    HW244995  13.256   2.131  12.704
14388SOL     OW44996  11.938   2.898  14.215
14388SOL    HW144997  11.993   2.866  14.143
14388SOL    HW244998  11.901   2.819  14.254
14389SOL     OW44999   2.898  14.166   2.614
14389SOL    HW145000   2.959  14.099   2.584
14389SOL    HW245001   2.828  14.117   2.656
14390SOL     OW45002   8.396   2.714   3.123
14390SOL    HW145003   8.447   2.744   3.199
14390SOL    HW245004   8.341   2.788   3.100
14391SOL     OW45005   5.109   8.378   6.301
14391SOL    HW145006   5.102   8.282   6.303
14391SOL    HW245007   5.044   8.408   6.365
14392SOL     OW45008   3.227   7.691   8.545
14392SOL    HW145009   3.189   7.659   8.464
14392SOL    HW245010   3.319   7.707   8.525
14393SOL     OW45011   2.568  13.916   8.646
14393SOL    HW145012   2.609  13.995   8.610
14393SOL    HW245013   2.633  13.847   8.634
14394SOL     OW45014   2.689  10.721   4.744
14394SOL    HW145015   2.676  10.815   4.731
14394SOL    HW245016   2.753  10.714   4.815
14395SOL     OW45017  11.263   3.142   1.824
14395SOL    HW145018  11.315   3.172   1.749
14395SOL    HW245019  11.285   3.050   1.833
14396SOL     OW45020   2.429   6.159   0.428
14396SOL    HW145021   2.345   6.116   0.409
14396SOL    HW245022   2.491   6.087   0.434
14397SOL     OW45023  14.422  13.027   4.231
14397SOL    HW145024  14.388  13.114   4.253
14397SOL    HW245025  14.480  13.043   4.156
14398SOL     OW45026   5.655  14.119   1.489
14398SOL    HW145027   5.723  14.053   1.504
14398SOL    HW245028   5.676  14.156   1.404
14399SOL     OW45029   7.101   2.094  11.323
14399SOL    HW145030   7.040   2.046  11.379
14399SOL    HW245031   7.077   2.186  11.334
14400SOL     OW45032   1.029   0.575   2.015
14400SOL    HW145033   1.106   0.523   2.035
14400SOL    HW245034   1.045   0.609   1.927
14401SOL     OW45035  11.069   9.131   5.238
14401SOL    HW145036  11.036   9.145   5.327
14401SOL    HW245037  11.035   9.204   5.188
14402SOL     OW45038   7.167   1.891   5.172
14402SOL    HW145039   7.145   1.958   5.107
14402SOL    HW245040   7.262   1.889   5.174
14403SOL     OW45041   1.951   6.091   5.029
14403SOL    HW145042   1.963   6.065   5.120
14403SOL    HW245043   1.974   6.012   4.979
14404SOL     OW45044   3.001   9.972   8.580
14404SOL    HW145045   2.956  10.029   8.517
14404SOL    HW245046   3.023  10.030   8.653
14405SOL     OW45047  12.895  11.676   9.380
14405SOL    HW145048  12.805  11.706   9.368
14405SOL    HW245049  12.935  11.686   9.294
14406SOL     OW45050   1.756   3.506  10.645
14406SOL    HW145051   1.784   3.571  10.579
14406SOL    HW245052   1.814   3.432  10.632
14407SOL     OW45053   2.745   7.563   3.037
14407SOL    HW145054   2.821   7.594   2.988
14407SOL    HW245055   2.737   7.625   3.110
14408SOL     OW45056   2.327   1.738   0.596
14408SOL    HW145057   2.356   1.814   0.546
14408SOL    HW245058   2.280   1.683   0.533
14409SOL     OW45059  14.367   8.728   1.337
14409SOL    HW145060  14.323   8.643   1.343
14409SOL    HW245061  14.298   8.789   1.311
14410SOL     OW45062   8.826  11.217  12.585
14410SOL    HW145063   8.793  11.285  12.644
14410SOL    HW245064   8.912  11.248  12.558
14411SOL     OW45065   0.188   6.210   8.843
14411SOL    HW145066   0.280   6.239   8.844
14411SOL    HW245067   0.138   6.290   8.827
14412SOL     OW45068   3.498  11.875   5.868
14412SOL    HW145069   3.465  11.815   5.801
14412SOL    HW245070   3.438  11.863   5.942
14413SOL     OW45071   8.781   0.820   5.685
14413SOL    HW145072   8.840   0.747   5.706
14413SOL    HW245073   8.785   0.827   5.590
14414SOL     OW45074  10.119   7.538   8.407
14414SOL    HW145075  10.078   7.475   8.347
14414SOL    HW245076  10.093   7.623   8.373
14415SOL     OW45077   1.004   6.963   5.162
14415SOL    HW145078   0.980   7.038   5.107
14415SOL    HW245079   1.014   6.999   5.250
14416SOL     OW45080  12.314   7.605  11.924
14416SOL    HW145081  12.359   7.532  11.882
14416SOL    HW245082  12.224   7.599  11.893
14417SOL     OW45083  14.239   7.864   9.274
14417SOL    HW145084  14.198   7.933   9.223
14417SOL    HW245085  14.332   7.868   9.250
14418SOL     OW45086   8.837   2.704  11.056
14418SOL    HW145087   8.878   2.789  11.072
14418SOL    HW245088   8.751   2.711  11.096
14419SOL     OW45089  13.760  10.494   0.085
14419SOL    HW145090  13.758  10.581   0.124
14419SOL    HW245091  13.695  10.444   0.135
14420SOL     OW45092   1.370   0.836   3.287
14420SOL    HW145093   1.304   0.774   3.318
14420SOL    HW245094   1.452   0.788   3.292
14421SOL     OW45095  11.186  14.839   1.581
14421SOL    HW145096  11.111   0.024   1.564
14421SOL    HW245097  11.194  14.786   1.502
14422SOL     OW45098   0.988   1.051   4.018
14422SOL    HW145099   0.940   1.118   3.969
14422SOL    HW245100   0.998   0.979   3.956
14423SOL     OW45101   3.989   3.962   2.477
14423SOL    HW145102   3.979   4.057   2.486
14423SOL    HW245103   3.993   3.931   2.568
14424SOL     OW45104   9.148  11.959   4.303
14424SOL    HW145105   9.121  12.043   4.268
14424SOL    HW245106   9.236  11.945   4.268
14425SOL     OW45107   8.268   9.082   5.246
14425SOL    HW145108   8.174   9.099   5.259
14425SOL    HW245109   8.272   9.030   5.165
14426SOL     OW45110   8.190   7.849   2.873
14426SOL    HW145111   8.263   7.906   2.850
14426SOL    HW245112   8.231   7.772   2.913
14427SOL     OW45113   4.103   6.949   9.722
14427SOL    HW145114   4.095   6.893   9.799
14427SOL    HW245115   4.088   7.038   9.756
14428SOL     OW45116   6.574  12.079  13.889
14428SOL    HW145117   6.662  12.095  13.855
14428SOL    HW245118   6.561  11.985  13.879
14429SOL     OW45119   4.843  14.724   1.739
14429SOL    HW145120   4.848  14.769   1.823
14429SOL    HW245121   4.815  14.792   1.678
14430SOL     OW45122  11.712  12.761   0.206
14430SOL    HW145123  11.783  12.697   0.201
14430SOL    HW245124  11.747  12.839   0.165
14431SOL     OW45125   1.141  13.186   0.320
14431SOL    HW145126   1.197  13.152   0.250
14431SOL    HW245127   1.202  13.213   0.389
14432SOL     OW45128  14.252   0.999   5.764
14432SOL    HW145129  14.273   1.058   5.691
14432SOL    HW245130  14.297   0.918   5.743
14433SOL     OW45131   9.555   0.182   9.746
14433SOL    HW145132   9.632   0.126   9.755
14433SOL    HW245133   9.576   0.260   9.797
14434SOL     OW45134   9.992   0.155   1.619
14434SOL    HW145135  10.049   0.110   1.681
14434SOL    HW245136  10.052   0.198   1.558
14435SOL     OW45137  10.581   5.380   1.934
14435SOL    HW145138  10.627   5.397   1.852
14435SOL    HW245139  10.651   5.377   2.000
14436SOL     OW45140   8.448   6.560   0.812
14436SOL    HW145141   8.402   6.476   0.816
14436SOL    HW245142   8.384   6.620   0.776
14437SOL     OW45143  11.473   3.228   2.782
14437SOL    HW145144  11.526   3.284   2.839
14437SOL    HW245145  11.481   3.268   2.695
14438SOL     OW45146   6.370   7.486   0.678
14438SOL    HW145147   6.349   7.579   0.692
14438SOL    HW245148   6.466   7.484   0.673
14439SOL     OW45149  12.923   7.645   1.365
14439SOL    HW145150  12.909   7.682   1.452
14439SOL    HW245151  12.836   7.641   1.326
14440SOL     OW45152  11.921   3.660  14.757
14440SOL    HW145153  11.832   3.688  14.734
14440SOL    HW245154  11.918   3.564  14.753
14441SOL     OW45155   4.583   5.406  12.410
14441SOL    HW145156   4.494   5.427  12.384
14441SOL    HW245157   4.632   5.404  12.327
14442SOL     OW45158   6.353   4.771   6.077
14442SOL    HW145159   6.434   4.820   6.085
14442SOL    HW245160   6.365   4.717   5.999
14443SOL     OW45161  12.010   3.808   0.612
14443SOL    HW145162  12.032   3.894   0.577
14443SOL    HW245163  12.062   3.747   0.560
14444SOL     OW45164   6.138  10.214   6.208
14444SOL    HW145165   6.178  10.271   6.274
14444SOL    HW245166   6.182  10.129   6.219
14445SOL     OW45167   5.796   3.867   0.964
14445SOL    HW145168   5.856   3.933   0.930
14445SOL    HW245169   5.726   3.917   1.007
14446SOL     OW45170   1.115   2.235   2.573
14446SOL    HW145171   1.023   2.213   2.558
14446SOL    HW245172   1.114   2.329   2.593
14447SOL     OW45173  12.117  10.169  13.380
14447SOL    HW145174  12.127  10.261  13.355
14447SOL    HW245175  12.066  10.131  13.308
14448SOL     OW45176   4.028  10.352   2.624
14448SOL    HW145177   4.061  10.278   2.674
14448SOL    HW245178   4.083  10.355   2.546
14449SOL     OW45179   1.491   8.714   4.243
14449SOL    HW145180   1.509   8.621   4.234
14449SOL    HW245181   1.414   8.730   4.189
14450SOL     OW45182   2.798   6.945   2.896
14450SOL    HW145183   2.723   6.887   2.901
14450SOL    HW245184   2.763   7.032   2.916
14451SOL     OW45185  14.741  11.089   7.802
14451SOL    HW145186  14.785  11.007   7.822
14451SOL    HW245187  14.668  11.092   7.864
14452SOL     OW45188  10.186   8.035   6.640
14452SOL    HW145189  10.177   8.068   6.729
14452SOL    HW245190  10.159   8.108   6.584
14453SOL     OW45191  12.350   8.920  10.875
14453SOL    HW145192  12.406   8.860  10.925
14453SOL    HW245193  12.261   8.898  10.902
14454SOL     OW45194   2.940   3.190  11.767
14454SOL    HW145195   2.979   3.256  11.710
14454SOL    HW245196   3.004   3.119  11.769
14455SOL     OW45197   5.194  10.959   8.145
14455SOL    HW145198   5.158  10.886   8.197
14455SOL    HW245199   5.174  11.037   8.197
14456SOL     OW45200  12.608  10.286   7.360
14456SOL    HW145201  12.568  10.263   7.276
14456SOL    HW245202  12.577  10.220   7.421
14457SOL     OW45203   9.357   9.667   3.741
14457SOL    HW145204   9.412   9.735   3.702
14457SOL    HW245205   9.419   9.598   3.767
14458SOL     OW45206   0.011   4.727   7.052
14458SOL    HW145207  14.861   4.778   7.130
14458SOL    HW245208   0.061   4.653   7.087
14459SOL     OW45209   5.756  12.864   2.252
14459SOL    HW145210   5.686  12.806   2.222
14459SOL    HW245211   5.824  12.856   2.185
14460SOL     OW45212  11.866   1.232   4.688
14460SOL    HW145213  11.947   1.238   4.739
14460SOL    HW245214  11.891   1.183   4.610
14461SOL     OW45215   7.124   5.409  14.447
14461SOL    HW145216   7.053   5.471  14.466
14461SOL    HW245217   7.079   5.326  14.430
14462SOL     OW45218  13.318   5.236   1.442
14462SOL    HW145219  13.406   5.272   1.430
14462SOL    HW245220  13.263   5.286   1.382
14463SOL     OW45221   9.820   5.860   3.196
14463SOL    HW145222   9.832   5.777   3.148
14463SOL    HW245223   9.883   5.920   3.156
14464SOL     OW45224   7.414  13.018   1.869
14464SOL    HW145225   7.323  12.990   1.865
14464SOL    HW245226   7.460  12.960   1.808
14465SOL     OW45227   2.590   2.996   7.288
14465SOL    HW145228   2.584   2.901   7.298
14465SOL    HW245229   2.554   3.031   7.369
14466SOL     OW45230   9.676   3.754  13.089
14466SOL    HW145231   9.644   3.794  13.008
14466SOL    HW245232   9.744   3.694  13.060
14467SOL     OW45233  13.273  11.552  14.751
14467SOL    HW145234  13.193  11.604  14.749
14467SOL    HW245235  13.325  11.590  14.823
14468SOL     OW45236  14.122  14.754   2.377
14468SOL    HW145237  14.216  14.745   2.387
14468SOL    HW245238  14.112  14.810   2.300
14469SOL     OW45239   0.138  10.355   7.979
14469SOL    HW145240   0.112  10.314   8.062
14469SOL    HW245241   0.068  10.331   7.918
14470SOL     OW45242  11.684  11.660   1.599
14470SOL    HW145243  11.601  11.612   1.605
14470SOL    HW245244  11.720  11.635   1.514
14471SOL     OW45245   3.042   8.414  14.397
14471SOL    HW145246   3.103   8.400  14.325
14471SOL    HW245247   3.031   8.509  14.401
14472SOL     OW45248   9.278  12.090   8.676
14472SOL    HW145249   9.335  12.077   8.600
14472SOL    HW245250   9.215  12.156   8.647
14473SOL     OW45251   0.333   7.126   6.981
14473SOL    HW145252   0.243   7.156   6.997
14473SOL    HW245253   0.375   7.200   6.938
14474SOL     OW45254   2.488   0.344   7.563
14474SOL    HW145255   2.480   0.396   7.644
14474SOL    HW245256   2.446   0.398   7.496
14475SOL     OW45257   7.548   3.295   8.359
14475SOL    HW145258   7.614   3.331   8.300
14475SOL    HW245259   7.532   3.207   8.326
14476SOL     OW45260   2.786   6.264  12.169
14476SOL    HW145261   2.820   6.189  12.119
14476SOL    HW245262   2.864   6.309  12.202
14477SOL     OW45263   0.627   5.942  13.878
14477SOL    HW145264   0.603   6.031  13.905
14477SOL    HW245265   0.589   5.933  13.790
14478SOL     OW45266   0.864   3.463  11.228
14478SOL    HW145267   0.861   3.535  11.291
14478SOL    HW245268   0.794   3.404  11.256
14479SOL     OW45269  14.330  13.132   1.885
14479SOL    HW145270  14.413  13.110   1.928
14479SOL    HW245271  14.301  13.050   1.845
14480SOL     OW45272   3.325   5.129   5.347
14480SOL    HW145273   3.285   5.127   5.260
14480SOL    HW245274   3.289   5.208   5.388
14481SOL     OW45275   3.778  13.507   3.052
14481SOL    HW145276   3.749  13.426   3.096
14481SOL    HW245277   3.782  13.572   3.122
14482SOL     OW45278   1.508  12.907   5.494
14482SOL    HW145279   1.589  12.946   5.529
14482SOL    HW245280   1.529  12.814   5.486
14483SOL     OW45281   3.821  11.004   6.700
14483SOL    HW145282   3.898  11.052   6.669
14483SOL    HW245283   3.846  10.971   6.786
14484SOL     OW45284   4.840   4.976   3.188
14484SOL    HW145285   4.845   4.895   3.139
14484SOL    HW245286   4.891   5.039   3.137
14485SOL     OW45287   2.980  13.557  13.777
14485SOL    HW145288   3.055  13.605  13.811
14485SOL    HW245289   3.003  13.536  13.687
14486SOL     OW45290   2.456   5.375  10.569
14486SOL    HW145291   2.519   5.422  10.623
14486SOL    HW245292   2.505   5.349  10.491
14487SOL     OW45293   8.117   3.549   8.405
14487SOL    HW145294   8.189   3.603   8.439
14487SOL    HW245295   8.158   3.466   8.382
14488SOL     OW45296   2.987   6.798  13.083
14488SOL    HW145297   2.952   6.791  12.995
14488SOL    HW245298   2.940   6.872  13.122
14489SOL     OW45299  11.947  11.865   6.348
14489SOL    HW145300  11.963  11.942   6.402
14489SOL    HW245301  11.874  11.889   6.291
14490SOL     OW45302   1.439   0.363  14.524
14490SOL    HW145303   1.392   0.405  14.452
14490SOL    HW245304   1.514   0.320  14.483
14491SOL     OW45305   8.462  11.677   5.873
14491SOL    HW145306   8.443  11.585   5.890
14491SOL    HW245307   8.450  11.688   5.779
14492SOL     OW45308   0.368   2.393  10.404
14492SOL    HW145309   0.325   2.467  10.448
14492SOL    HW245310   0.448   2.378  10.455
14493SOL     OW45311  11.798   3.943   7.353
14493SOL    HW145312  11.865   3.874   7.346
14493SOL    HW245313  11.754   3.944   7.268
14494SOL     OW45314  10.057   2.110   9.197
14494SOL    HW145315   9.986   2.165   9.166
14494SOL    HW245316  10.091   2.156   9.274
14495SOL     OW45317  10.071   0.154  14.697
14495SOL    HW145318  10.090   0.061  14.685
14495SOL    HW245319  10.139   0.185  14.757
14496SOL     OW45320  11.978   6.259  14.506
14496SOL    HW145321  11.935   6.210  14.436
14496SOL    HW245322  11.978   6.350  14.475
14497SOL     OW45323   8.786   0.150  10.629
14497SOL    HW145324   8.751   0.215  10.568
14497SOL    HW245325   8.835   0.089  10.574
14498SOL     OW45326   1.350   5.549   7.117
14498SOL    HW145327   1.299   5.587   7.046
14498SOL    HW245328   1.309   5.465   7.135
14499SOL     OW45329  12.488  14.461  10.790
14499SOL    HW145330  12.395  14.454  10.812
14499SOL    HW245331  12.533  14.417  10.862
14500SOL     OW45332  12.152  11.576   3.560
14500SOL    HW145333  12.231  11.629   3.574
14500SOL    HW245334  12.129  11.589   3.468
14501SOL     OW45335   3.010   5.585  12.046
14501SOL    HW145336   2.923   5.617  12.071
14501SOL    HW245337   3.071   5.646  12.088
14502SOL     OW45338   8.502  11.407   9.874
14502SOL    HW145339   8.467  11.394   9.962
14502SOL    HW245340   8.481  11.498   9.852
14503SOL     OW45341   1.313  14.129   8.672
14503SOL    HW145342   1.309  14.034   8.685
14503SOL    HW245343   1.221  14.157   8.668
14504SOL     OW45344   5.744   4.222   9.825
14504SOL    HW145345   5.725   4.163   9.752
14504SOL    HW245346   5.770   4.304   9.782
14505SOL     OW45347  12.359  14.200   6.887
14505SOL    HW145348  12.448  14.227   6.910
14505SOL    HW245349  12.346  14.118   6.934
14506SOL     OW45350   2.922   7.980   1.232
14506SOL    HW145351   2.977   7.901   1.235
14506SOL    HW245352   2.928   8.010   1.141
14507SOL     OW45353   7.916   4.970   8.001
14507SOL    HW145354   7.855   4.960   7.929
14507SOL    HW245355   7.894   5.055   8.039
14508SOL     OW45356   6.923  13.768   0.799
14508SOL    HW145357   6.867  13.841   0.772
14508SOL    HW245358   6.864  13.693   0.802
14509SOL     OW45359  11.238  11.385   8.477
14509SOL    HW145360  11.192  11.302   8.492
14509SOL    HW245361  11.184  11.429   8.411
14510SOL     OW45362  14.331   7.295   2.548
14510SOL    HW145363  14.354   7.377   2.592
14510SOL    HW245364  14.394   7.231   2.581
14511SOL     OW45365  12.464  11.947   8.402
14511SOL    HW145366  12.421  11.861   8.406
14511SOL    HW245367  12.458  11.980   8.492
14512SOL     OW45368   9.149  13.442   5.928
14512SOL    HW145369   9.185  13.490   6.002
14512SOL    HW245370   9.210  13.457   5.856
14513SOL     OW45371   0.851  13.426   7.885
14513SOL    HW145372   0.941  13.399   7.903
14513SOL    HW245373   0.803  13.410   7.966
14514SOL     OW45374   4.794   2.283   4.134
14514SOL    HW145375   4.865   2.330   4.178
14514SOL    HW245376   4.768   2.340   4.062
14515SOL     OW45377   6.622   6.703   5.767
14515SOL    HW145378   6.545   6.660   5.805
14515SOL    HW245379   6.613   6.795   5.792
14516SOL     OW45380   8.599   0.583   1.256
14516SOL    HW145381   8.584   0.520   1.326
14516SOL    HW245382   8.534   0.561   1.189
14517SOL     OW45383  12.555   4.544   4.195
14517SOL    HW145384  12.487   4.602   4.231
14517SOL    HW245385  12.634   4.598   4.193
14518SOL     OW45386  14.762   4.830   4.061
14518SOL    HW145387  14.697   4.888   4.021
14518SOL    HW245388  14.781   4.870   4.146
14519SOL     OW45389   9.391   1.430  12.251
14519SOL    HW145390   9.360   1.457  12.337
14519SOL    HW245391   9.323   1.461  12.191
14520SOL     OW45392  13.066   3.561   2.568
14520SOL    HW145393  13.102   3.571   2.480
14520SOL    HW245394  13.117   3.491   2.608
14521SOL     OW45395   3.865   0.586   5.082
14521SOL    HW145396   3.815   0.608   5.004
14521SOL    HW245397   3.919   0.663   5.098
14522SOL     OW45398   5.365   3.417   2.608
14522SOL    HW145399   5.459   3.426   2.624
14522SOL    HW245400   5.358   3.367   2.527
14523SOL     OW45401   4.774  12.296   8.179
14523SOL    HW145402   4.775  12.388   8.153
14523SOL    HW245403   4.857  12.282   8.223
14524SOL     OW45404  14.867   3.004   9.335
14524SOL    HW145405  14.811   3.081   9.339
14524SOL    HW245406  14.807   2.930   9.337
14525SOL     OW45407   6.687  13.074  11.677
14525SOL    HW145408   6.706  13.026  11.757
14525SOL    HW245409   6.605  13.036  11.644
14526SOL     OW45410  13.950   4.284   0.164
14526SOL    HW145411  13.987   4.271   0.077
14526SOL    HW245412  13.989   4.366   0.195
14527SOL     OW45413   1.243  12.541  12.727
14527SOL    HW145414   1.197  12.511  12.649
14527SOL    HW245415   1.188  12.611  12.763
14528SOL     OW45416   7.996   0.195  13.959
14528SOL    HW145417   7.962   0.106  13.952
14528SOL    HW245418   7.954   0.243  13.887
14529SOL     OW45419   5.621  12.770   6.535
14529SOL    HW145420   5.696  12.829   6.543
14529SOL    HW245421   5.646  12.694   6.587
14530SOL     OW45422   7.827   4.856   2.743
14530SOL    HW145423   7.905   4.911   2.748
14530SOL    HW245424   7.785   4.865   2.828
14531SOL     OW45425   4.182  12.895   3.502
14531SOL    HW145426   4.154  12.835   3.432
14531SOL    HW245427   4.268  12.925   3.474
14532SOL     OW45428  13.663   8.527  13.806
14532SOL    HW145429  13.579   8.503  13.845
14532SOL    HW245430  13.642   8.551  13.715
14533SOL     OW45431  11.272   7.826   4.030
14533SOL    HW145432  11.355   7.873   4.018
14533SOL    HW245433  11.214   7.892   4.069
14534SOL     OW45434   1.597   2.379  11.972
14534SOL    HW145435   1.647   2.442  12.025
14534SOL    HW245436   1.516   2.425  11.952
14535SOL     OW45437  14.158   9.214   4.346
14535SOL    HW145438  14.196   9.128   4.327
14535SOL    HW245439  14.160   9.260   4.262
14536SOL     OW45440   0.680  13.659   0.234
14536SOL    HW145441   0.638  13.729   0.184
14536SOL    HW245442   0.609  13.599   0.256
14537SOL     OW45443  14.221  11.410   4.098
14537SOL    HW145444  14.257  11.471   4.162
14537SOL    HW245445  14.133  11.390   4.130
14538SOL     OW45446  13.405   7.356  10.097
14538SOL    HW145447  13.387   7.273  10.052
14538SOL    HW245448  13.437   7.414  10.028
14539SOL     OW45449  11.428   0.203   9.492
14539SOL    HW145450  11.398   0.253   9.416
14539SOL    HW245451  11.522   0.194   9.480
14540SOL     OW45452   5.911  13.332  14.669
14540SOL    HW145453   5.829  13.345  14.621
14540SOL    HW245454   5.885  13.331  14.762
14541SOL     OW45455   0.701   9.390   3.970
14541SOL    HW145456   0.712   9.308   4.018
14541SOL    HW245457   0.634   9.438   4.019
14542SOL     OW45458   2.199  10.853   3.902
14542SOL    HW145459   2.117  10.812   3.932
14542SOL    HW245460   2.211  10.819   3.814
14543SOL     OW45461   0.127  11.168  12.341
14543SOL    HW145462   0.118  11.089  12.287
14543SOL    HW245463   0.221  11.182  12.347
14544SOL     OW45464   2.673   0.864  10.740
14544SOL    HW145465   2.604   0.930  10.749
14544SOL    HW245466   2.713   0.859  10.826
14545SOL     OW45467   4.572   3.405   9.767
14545SOL    HW145468   4.648   3.462   9.769
14545SOL    HW245469   4.523   3.427   9.846
14546SOL     OW45470  14.744   6.917   9.793
14546SOL    HW145471  14.674   6.910   9.857
14546SOL    HW245472  14.703   6.957   9.716
14547SOL     OW45473   1.051   6.619  12.765
14547SOL    HW145474   1.047   6.537  12.715
14547SOL    HW245475   0.978   6.613  12.827
14548SOL     OW45476  12.188   5.659   2.765
14548SOL    HW145477  12.208   5.749   2.741
14548SOL    HW245478  12.272   5.613   2.760
14549SOL     OW45479  14.728   4.837   1.280
14549SOL    HW145480  14.726   4.801   1.191
14549SOL    HW245481  14.769   4.768   1.333
14550SOL     OW45482   5.115   6.471   6.573
14550SOL    HW145483   5.113   6.480   6.478
14550SOL    HW245484   5.139   6.380   6.588
14551SOL     OW45485   9.179   4.183   8.607
14551SOL    HW145486   9.249   4.125   8.637
14551SOL    HW245487   9.099   4.135   8.625
14552SOL     OW45488  14.606   9.647  12.744
14552SOL    HW145489  14.562   9.564  12.761
14552SOL    HW245490  14.546   9.694  12.686
14553SOL     OW45491   7.868   6.952  14.505
14553SOL    HW145492   7.873   6.904  14.587
14553SOL    HW245493   7.775   6.949  14.481
14554SOL     OW45494   2.415   7.196   6.782
14554SOL    HW145495   2.395   7.121   6.839
14554SOL    HW245496   2.344   7.258   6.800
14555SOL     OW45497   1.607   6.599   1.108
14555SOL    HW145498   1.680   6.539   1.126
14555SOL    HW245499   1.556   6.553   1.041
14556SOL     OW45500  11.246   5.650   9.479
14556SOL    HW145501  11.300   5.673   9.555
14556SOL    HW245502  11.159   5.634   9.516
14557SOL     OW45503  11.953  10.811  14.872
14557SOL    HW145504  11.907  10.756  14.808
14557SOL    HW245505  11.914  10.787   0.083
14558SOL     OW45506   1.753  10.426   8.005
14558SOL    HW145507   1.805  10.486   7.951
14558SOL    HW245508   1.696  10.382   7.943
14559SOL     OW45509  11.573  10.355   0.343
14559SOL    HW145510  11.564  10.447   0.321
14559SOL    HW245511  11.581  10.310   0.259
14560SOL     OW45512   8.290   8.114   5.603
14560SOL    HW145513   8.343   8.192   5.585
14560SOL    HW245514   8.254   8.128   5.690
14561SOL     OW45515  10.404  11.941   9.570
14561SOL    HW145516  10.480  11.885   9.555
14561SOL    HW245517  10.385  11.931   9.663
14562SOL     OW45518   6.021  12.784  10.798
14562SOL    HW145519   6.056  12.697  10.775
14562SOL    HW245520   6.017  12.784  10.893
14563SOL     OW45521   3.425  10.592   8.946
14563SOL    HW145522   3.354  10.633   8.996
14563SOL    HW245523   3.442  10.510   8.992
14564SOL     OW45524  14.129   4.740   0.470
14564SOL    HW145525  14.206   4.691   0.500
14564SOL    HW245526  14.055   4.697   0.513
14565SOL     OW45527   1.049   9.124   5.802
14565SOL    HW145528   0.956   9.122   5.822
14565SOL    HW245529   1.063   9.211   5.764
14566SOL     OW45530  12.120   6.383   7.826
14566SOL    HW145531  12.214   6.366   7.819
14566SOL    HW245532  12.093   6.335   7.905
14567SOL     OW45533   5.652   8.185   3.422
14567SOL    HW145534   5.568   8.187   3.468
14567SOL    HW245535   5.631   8.209   3.332
14568SOL     OW45536   5.297  14.676   7.216
14568SOL    HW145537   5.338  14.592   7.238
14568SOL    HW245538   5.368  14.740   7.224
14569SOL     OW45539   4.913   6.155   1.061
14569SOL    HW145540   4.908   6.100   1.139
14569SOL    HW245541   4.865   6.235   1.085
14570SOL     OW45542   7.921   3.861  13.411
14570SOL    HW145543   7.968   3.864  13.494
14570SOL    HW245544   7.940   3.774  13.376
14571SOL     OW45545   2.622  13.466   1.717
14571SOL    HW145546   2.655  13.555   1.731
14571SOL    HW245547   2.627  13.453   1.622
14572SOL     OW45548   5.040   5.583   4.384
14572SOL    HW145549   5.086   5.666   4.370
14572SOL    HW245550   5.000   5.564   4.299
14573SOL     OW45551   4.456  12.981   2.864
14573SOL    HW145552   4.467  13.012   2.774
14573SOL    HW245553   4.534  12.927   2.880
14574SOL     OW45554  13.053  12.028  11.942
14574SOL    HW145555  13.094  11.986  11.867
14574SOL    HW245556  13.085  12.118  11.939
14575SOL     OW45557   8.958   4.216  13.492
14575SOL    HW145558   9.032   4.164  13.525
14575SOL    HW245559   8.923   4.259  13.570
14576SOL     OW45560   2.453   1.244  10.822
14576SOL    HW145561   2.436   1.311  10.757
14576SOL    HW245562   2.413   1.277  10.902
14577SOL     OW45563  14.868   6.870  11.097
14577SOL    HW145564  14.793   6.852  11.155
14577SOL    HW245565  14.853   6.959  11.065
14578SOL     OW45566   6.567   1.774   7.062
14578SOL    HW145567   6.562   1.803   7.153
14578SOL    HW245568   6.657   1.746   7.051
14579SOL     OW45569   9.062   8.575  14.035
14579SOL    HW145570   9.097   8.527  13.960
14579SOL    HW245571   8.980   8.531  14.056
14580SOL     OW45572   5.200   4.686   8.716
14580SOL    HW145573   5.219   4.724   8.801
14580SOL    HW245574   5.211   4.591   8.729
14581SOL     OW45575   1.675  14.541  11.018
14581SOL    HW145576   1.717  14.623  10.993
14581SOL    HW245577   1.632  14.511  10.938
14582SOL     OW45578  12.558  11.215  13.251
14582SOL    HW145579  12.483  11.230  13.194
14582SOL    HW245580  12.524  11.229  13.340
14583SOL     OW45581   5.415  12.642  13.422
14583SOL    HW145582   5.412  12.587  13.343
14583SOL    HW245583   5.372  12.590  13.490
14584SOL     OW45584  11.605  13.666  12.168
14584SOL    HW145585  11.647  13.731  12.112
14584SOL    HW245586  11.566  13.603  12.107
14585SOL     OW45587   5.818  14.808   0.663
14585SOL    HW145588   5.823   0.016   0.611
14585SOL    HW245589   5.859  14.742   0.608
14586SOL     OW45590   0.979   3.179   1.438
14586SOL    HW145591   0.916   3.198   1.508
14586SOL    HW245592   1.040   3.253   1.440
14587SOL     OW45593   8.736   7.654   3.744
14587SOL    HW145594   8.706   7.567   3.716
14587SOL    HW245595   8.689   7.715   3.688
14588SOL     OW45596   8.346  12.904  13.883
14588SOL    HW145597   8.325  12.928  13.973
14588SOL    HW245598   8.289  12.960  13.829
14589SOL     OW45599  14.356  14.836   7.375
14589SOL    HW145600  14.409   0.037   7.403
14589SOL    HW245601  14.413  14.786   7.316
14590SOL     OW45602  13.267  11.428   7.520
14590SOL    HW145603  13.186  11.379   7.511
14590SOL    HW245604  13.242  11.506   7.571
14591SOL     OW45605  10.192  12.687   0.738
14591SOL    HW145606  10.227  12.656   0.822
14591SOL    HW245607  10.101  12.659   0.738
14592SOL     OW45608  11.838   9.412  11.092
14592SOL    HW145609  11.929   9.440  11.098
14592SOL    HW245610  11.821   9.406  10.998
14593SOL     OW45611  12.878   4.208   6.876
14593SOL    HW145612  12.960   4.201   6.925
14593SOL    HW245613  12.898   4.169   6.791
14594SOL     OW45614   1.506   5.070   1.649
14594SOL    HW145615   1.511   4.975   1.650
14594SOL    HW245616   1.415   5.090   1.672
14595SOL     OW45617  14.139  11.091   0.861
14595SOL    HW145618  14.067  11.061   0.916
14595SOL    HW245619  14.216  11.090   0.918
14596SOL     OW45620  10.960   1.490  10.048
14596SOL    HW145621  10.914   1.413  10.084
14596SOL    HW245622  11.043   1.455  10.017
14597SOL     OW45623   0.619   6.019   9.188
14597SOL    HW145624   0.662   6.003   9.272
14597SOL    HW245625   0.677   5.980   9.123
14598SOL     OW45626   0.763  13.722   1.920
14598SOL    HW145627   0.785  13.794   1.979
14598SOL    HW245628   0.813  13.738   1.841
14599SOL     OW45629   9.235  11.756   7.247
14599SOL    HW145630   9.215  11.850   7.244
14599SOL    HW245631   9.184  11.718   7.175
14600SOL     OW45632   8.318   4.617   8.995
14600SOL    HW145633   8.253   4.561   9.037
14600SOL    HW245634   8.359   4.664   9.067
14601SOL     OW45635   0.305  10.666  12.524
14601SOL    HW145636   0.210  10.661  12.519
14601SOL    HW245637   0.323  10.708  12.608
14602SOL     OW45638   1.606   8.238  13.216
14602SOL    HW145639   1.572   8.189  13.291
14602SOL    HW245640   1.530   8.247  13.158
14603SOL     OW45641  14.218  12.381   3.904
14603SOL    HW145642  14.308  12.377   3.936
14603SOL    HW245643  14.183  12.462   3.941
14604SOL     OW45644  11.991   5.079   3.634
14604SOL    HW145645  11.918   5.047   3.582
14604SOL    HW245646  12.067   5.032   3.599
14605SOL     OW45647   0.732  12.642  14.680
14605SOL    HW145648   0.679  12.714  14.645
14605SOL    HW245649   0.673  12.567  14.681
14606SOL     OW45650  12.773   6.127  14.212
14606SOL    HW145651  12.722   6.180  14.150
14606SOL    HW245652  12.706   6.085  14.267
14607SOL     OW45653   2.050  13.317   8.431
14607SOL    HW145654   2.102  13.397   8.434
14607SOL    HW245655   2.106  13.253   8.387
14608SOL     OW45656   2.671   4.928  11.469
14608SOL    HW145657   2.696   4.841  11.501
14608SOL    HW245658   2.672   4.919  11.373
14609SOL     OW45659   1.797  13.058   4.809
14609SOL    HW145660   1.849  13.080   4.732
14609SOL    HW245661   1.836  12.977   4.842
14610SOL     OW45662   4.041  11.835  14.204
14610SOL    HW145663   4.038  11.754  14.255
14610SOL    HW245664   3.949  11.859  14.192
14611SOL     OW45665   0.236   1.611   8.308
14611SOL    HW145666   0.240   1.675   8.379
14611SOL    HW245667   0.245   1.663   8.228
14612SOL     OW45668  13.083   2.323   9.988
14612SOL    HW145669  13.083   2.412   9.952
14612SOL    HW245670  13.089   2.266   9.912
14613SOL     OW45671   4.749   9.668  12.967
14613SOL    HW145672   4.834   9.711  12.980
14613SOL    HW245673   4.725   9.636  13.053
14614SOL     OW45674   0.239   8.158   4.204
14614SOL    HW145675   0.175   8.133   4.271
14614SOL    HW245676   0.265   8.247   4.228
14615SOL     OW45677   0.571  12.127   9.150
14615SOL    HW145678   0.613  12.057   9.199
14615SOL    HW245679   0.635  12.151   9.082
14616SOL     OW45680  13.597   0.175   5.352
14616SOL    HW145681  13.647   0.255   5.371
14616SOL    HW245682  13.593   0.129   5.435
14617SOL     OW45683   5.759   9.121   7.313
14617SOL    HW145684   5.765   9.059   7.240
14617SOL    HW245685   5.666   9.125   7.333
14618SOL     OW45686   4.270   7.631  11.717
14618SOL    HW145687   4.359   7.629  11.751
14618SOL    HW245688   4.230   7.551  11.753
14619SOL     OW45689  12.604  11.870   6.761
14619SOL    HW145690  12.625  11.946   6.815
14619SOL    HW245691  12.666  11.802   6.788
14620SOL     OW45692   2.051  11.913   3.222
14620SOL    HW145693   2.056  12.007   3.206
14620SOL    HW245694   1.968  11.901   3.268
14621SOL     OW45695   9.367   2.302   7.854
14621SOL    HW145696   9.412   2.364   7.796
14621SOL    HW245697   9.328   2.238   7.794
14622SOL     OW45698  12.037   7.323   5.348
14622SOL    HW145699  11.991   7.399   5.312
14622SOL    HW245700  12.099   7.298   5.279
14623SOL     OW45701  13.972   9.059   8.062
14623SOL    HW145702  13.902   9.030   8.119
14623SOL    HW245703  14.052   9.036   8.109
14624SOL     OW45704   8.145   4.864  12.372
14624SOL    HW145705   8.122   4.859  12.280
14624SOL    HW245706   8.116   4.780  12.409
14625SOL     OW45707   8.948   6.650   9.087
14625SOL    HW145708   9.012   6.717   9.111
14625SOL    HW245709   8.980   6.615   9.004
14626SOL     OW45710   2.740   9.756  10.581
14626SOL    HW145711   2.825   9.719  10.558
14626SOL    HW245712   2.760   9.845  10.611
14627SOL     OW45713  13.093  11.783   0.682
14627SOL    HW145714  13.101  11.807   0.590
14627SOL    HW245715  13.091  11.867   0.729
14628SOL     OW45716   8.445  14.083  14.086
14628SOL    HW145717   8.446  14.143  14.160
14628SOL    HW245718   8.517  14.112  14.031
14629SOL     OW45719   2.285   3.459   3.829
14629SOL    HW145720   2.261   3.474   3.738
14629SOL    HW245721   2.202   3.434   3.872
14630SOL     OW45722  10.858   3.954   2.663
14630SOL    HW145723  10.894   4.033   2.624
14630SOL    HW245724  10.929   3.890   2.657
14631SOL     OW45725   4.300   8.374   6.245
14631SOL    HW145726   4.391   8.346   6.245
14631SOL    HW245727   4.270   8.358   6.335
14632SOL     OW45728   8.745   8.560   7.820
14632SOL    HW145729   8.686   8.486   7.808
14632SOL    HW245730   8.748   8.602   7.733
14633SOL     OW45731   2.483   0.478   2.958
14633SOL    HW145732   2.455   0.529   2.882
14633SOL    HW245733   2.519   0.398   2.921
14634SOL     OW45734   3.968   7.633   8.896
14634SOL    HW145735   4.054   7.667   8.919
14634SOL    HW245736   3.971   7.541   8.921
14635SOL     OW45737   5.591  13.281   4.316
14635SOL    HW145738   5.518  13.328   4.277
14635SOL    HW245739   5.591  13.307   4.408
14636SOL     OW45740   7.295   7.868  13.919
14636SOL    HW145741   7.367   7.835  13.972
14636SOL    HW245742   7.280   7.957  13.951
14637SOL     OW45743  14.247   3.580   7.942
14637SOL    HW145744  14.257   3.491   7.976
14637SOL    HW245745  14.321   3.628   7.978
14638SOL     OW45746  13.873   7.614  13.066
14638SOL    HW145747  13.941   7.562  13.022
14638SOL    HW245748  13.861   7.571  13.150
14639SOL     OW45749   6.878   6.633   9.216
14639SOL    HW145750   6.934   6.710   9.208
14639SOL    HW245751   6.872   6.598   9.127
14640SOL     OW45752   3.223   6.972   4.659
14640SOL    HW145753   3.263   6.906   4.716
14640SOL    HW245754   3.293   6.996   4.598
14641SOL     OW45755   0.780  10.280   2.835
14641SOL    HW145756   0.789  10.328   2.918
14641SOL    HW245757   0.833  10.201   2.847
14642SOL     OW45758   7.818   3.080   8.988
14642SOL    HW145759   7.866   3.026   8.924
14642SOL    HW245760   7.765   3.139   8.935
14643SOL     OW45761   9.775  10.833   8.364
14643SOL    HW145762   9.752  10.923   8.343
14643SOL    HW245763   9.751  10.782   8.286
14644SOL     OW45764  10.990   6.639   9.747
14644SOL    HW145765  10.900   6.643   9.777
14644SOL    HW245766  11.031   6.571   9.801
14645SOL     OW45767   8.581   6.598  14.492
14645SOL    HW145768   8.561   6.564  14.579
14645SOL    HW245769   8.676   6.586  14.482
14646SOL     OW45770   5.737   3.929   7.499
14646SOL    HW145771   5.817   3.973   7.472
14646SOL    HW245772   5.673   4.000   7.507
14647SOL     OW45773   3.583   0.023   0.177
14647SOL    HW145774   3.536  14.818   0.146
14647SOL    HW245775   3.651   0.037   0.111
14648SOL     OW45776   7.099   0.842  11.507
14648SOL    HW145777   7.053   0.890  11.576
14648SOL    HW245778   7.058   0.756  11.505
14649SOL     OW45779   9.080   4.663  11.480
14649SOL    HW145780   9.149   4.726  11.461
14649SOL    HW245781   9.055   4.627  11.395
14650SOL     OW45782  10.349   3.887  12.265
14650SOL    HW145783  10.303   3.885  12.181
14650SOL    HW245784  10.280   3.872  12.330
14651SOL     OW45785   6.392  14.115  14.825
14651SOL    HW145786   6.333  14.095   0.025
14651SOL    HW245787   6.356  14.067  14.751
14652SOL     OW45788  14.697   5.843   1.564
14652SOL    HW145789  14.615   5.814   1.524
14652SOL    HW245790  14.765   5.802   1.511
14653SOL     OW45791  11.212   5.372   3.043
14653SOL    HW145792  11.218   5.381   2.948
14653SOL    HW245793  11.240   5.282   3.061
14654SOL     OW45794   1.509   5.265   8.652
14654SOL    HW145795   1.568   5.312   8.593
14654SOL    HW245796   1.437   5.326   8.666
14655SOL     OW45797  12.576  14.485   2.793
14655SOL    HW145798  12.643  14.448   2.736
14655SOL    HW245799  12.609  14.572   2.815
14656SOL     OW45800  10.687  14.283   0.360
14656SOL    HW145801  10.660  14.194   0.384
14656SOL    HW245802  10.636  14.304   0.282
14657SOL     OW45803   9.685  10.793   1.443
14657SOL    HW145804   9.747  10.762   1.378
14657SOL    HW245805   9.715  10.755   1.525
14658SOL     OW45806  14.041   3.493   4.837
14658SOL    HW145807  14.090   3.498   4.920
14658SOL    HW245808  14.009   3.403   4.834
14659SOL     OW45809  11.901   8.033   6.723
14659SOL    HW145810  11.903   7.940   6.742
14659SOL    HW245811  11.856   8.040   6.639
14660SOL     OW45812   1.030   4.935   8.523
14660SOL    HW145813   0.959   4.942   8.586
14660SOL    HW245814   1.098   4.884   8.568
14661SOL     OW45815   8.658   0.524   4.827
14661SOL    HW145816   8.741   0.548   4.867
14661SOL    HW245817   8.682   0.482   4.744
14662SOL     OW45818  13.926   9.931   2.099
14662SOL    HW145819  13.874   9.861   2.057
14662SOL    HW245820  14.016   9.903   2.087
14663SOL     OW45821  14.163  11.424   7.566
14663SOL    HW145822  14.219  11.451   7.494
14663SOL    HW245823  14.142  11.332   7.548
14664SOL     OW45824  12.769   5.195  11.744
14664SOL    HW145825  12.734   5.200  11.833
14664SOL    HW245826  12.692   5.181  11.689
14665SOL     OW45827   3.110  12.041   6.917
14665SOL    HW145828   3.121  12.133   6.892
14665SOL    HW245829   3.021  12.020   6.889
14666SOL     OW45830   9.379   7.266   7.590
14666SOL    HW145831   9.456   7.305   7.631
14666SOL    HW245832   9.306   7.320   7.620
14667SOL     OW45833   1.491   1.694   2.695
14667SOL    HW145834   1.402   1.660   2.690
14667SOL    HW245835   1.546   1.625   2.658
14668SOL     OW45836   2.326   3.010  10.285
14668SOL    HW145837   2.399   2.979  10.339
14668SOL    HW245838   2.330   3.106  10.292
14669SOL     OW45839   3.104   5.450   0.695
14669SOL    HW145840   3.150   5.480   0.774
14669SOL    HW245841   3.143   5.365   0.676
14670SOL     OW45842   6.390  13.572  13.354
14670SOL    HW145843   6.460  13.572  13.289
14670SOL    HW245844   6.312  13.598  13.306
14671SOL     OW45845   3.618   9.589   8.801
14671SOL    HW145846   3.594   9.680   8.815
14671SOL    HW245847   3.538   9.540   8.818
14672SOL     OW45848   8.727   5.088  13.506
14672SOL    HW145849   8.748   5.147  13.434
14672SOL    HW245850   8.760   5.002  13.478
14673SOL     OW45851   3.013  10.006   9.797
14673SOL    HW145852   3.083   9.972   9.853
14673SOL    HW245853   2.937  10.014   9.855
14674SOL     OW45854   9.430   1.149   5.411
14674SOL    HW145855   9.449   1.070   5.462
14674SOL    HW245856   9.503   1.157   5.349
14675SOL     OW45857   5.258   7.890  11.073
14675SOL    HW145858   5.266   7.972  11.026
14675SOL    HW245859   5.171   7.894  11.114
14676SOL     OW45860   0.364   6.359   0.568
14676SOL    HW145861   0.421   6.296   0.612
14676SOL    HW245862   0.408   6.443   0.579
14677SOL     OW45863   1.299   7.053  11.359
14677SOL    HW145864   1.314   7.142  11.393
14677SOL    HW245865   1.289   6.999  11.437
14678SOL     OW45866  14.459   8.561   3.355
14678SOL    HW145867  14.471   8.511   3.274
14678SOL    HW245868  14.365   8.554   3.373
14679SOL     OW45869   5.829  14.382   3.097
14679SOL    HW145870   5.872  14.333   3.026
14679SOL    HW245871   5.746  14.337   3.110
14680SOL     OW45872  12.516   9.784   3.956
14680SOL    HW145873  12.604   9.758   3.983
14680SOL    HW245874  12.475   9.703   3.926
14681SOL     OW45875  12.904   0.749   6.648
14681SOL    HW145876  12.873   0.779   6.562
14681SOL    HW245877  12.849   0.794   6.711
14682SOL     OW45878  11.584   6.050  11.153
14682SOL    HW145879  11.585   6.145  11.141
14682SOL    HW245880  11.676   6.027  11.167
14683SOL     OW45881   5.769   2.652   5.309
14683SOL    HW145882   5.707   2.681   5.376
14683SOL    HW245883   5.733   2.686   5.227
14684SOL     OW45884   1.488  14.497   1.146
14684SOL    HW145885   1.491  14.519   1.053
14684SOL    HW245886   1.510  14.579   1.190
14685SOL     OW45887   1.179  12.882   5.787
14685SOL    HW145888   1.196  12.856   5.697
14685SOL    HW245889   1.264  12.874   5.831
14686SOL     OW45890   1.805  13.038   0.466
14686SOL    HW145891   1.853  12.974   0.414
14686SOL    HW245892   1.720  12.997   0.482
14687SOL     OW45893   3.272  14.740  11.046
14687SOL    HW145894   3.278  14.800  11.120
14687SOL    HW245895   3.182  14.751  11.013
14688SOL     OW45896   7.964   8.913   9.242
14688SOL    HW145897   8.000   8.858   9.312
14688SOL    HW245898   7.907   8.855   9.192
14689SOL     OW45899   0.456   5.444   3.665
14689SOL    HW145900   0.511   5.507   3.710
14689SOL    HW245901   0.514   5.402   3.601
14690SOL     OW45902   4.195   0.576  13.364
14690SOL    HW145903   4.180   0.614  13.277
14690SOL    HW245904   4.288   0.555  13.364
14691SOL     OW45905   6.998   8.612   4.167
14691SOL    HW145906   6.963   8.595   4.079
14691SOL    HW245907   6.944   8.557   4.224
14692SOL     OW45908   9.551  13.869   9.382
14692SOL    HW145909   9.535  13.789   9.432
14692SOL    HW245910   9.646  13.874   9.373
14693SOL     OW45911   5.563   9.327   4.427
14693SOL    HW145912   5.604   9.396   4.478
14693SOL    HW245913   5.554   9.364   4.339
14694SOL     OW45914   1.149   4.215  12.560
14694SOL    HW145915   1.066   4.255  12.533
14694SOL    HW245916   1.155   4.232  12.653
14695SOL     OW45917  11.772   7.792   6.467
14695SOL    HW145918  11.789   7.781   6.560
14695SOL    HW245919  11.770   7.886   6.453
14696SOL     OW45920   3.879   7.079  14.763
14696SOL    HW145921   3.966   7.080  14.723
14696SOL    HW245922   3.896   7.073  14.857
14697SOL     OW45923   1.286  11.795  14.711
14697SOL    HW145924   1.359  11.833  14.662
14697SOL    HW245925   1.324  11.719  14.756
14698SOL     OW45926   3.279   8.329   2.151
14698SOL    HW145927   3.194   8.321   2.196
14698SOL    HW245928   3.256   8.344   2.059
14699SOL     OW45929   2.406   9.651   4.253
14699SOL    HW145930   2.419   9.642   4.348
14699SOL    HW245931   2.423   9.564   4.218
14700SOL     OW45932  10.739   5.552   3.276
14700SOL    HW145933  10.726   5.492   3.350
14700SOL    HW245934  10.803   5.508   3.221
14701SOL     OW45935   9.725  12.445   3.559
14701SOL    HW145936   9.668  12.376   3.593
14701SOL    HW245937   9.770  12.478   3.636
14702SOL     OW45938   2.726  13.679   5.692
14702SOL    HW145939   2.773  13.630   5.759
14702SOL    HW245940   2.635  13.651   5.701
14703SOL     OW45941   7.274  13.233  13.799
14703SOL    HW145942   7.235  13.311  13.759
14703SOL    HW245943   7.212  13.163  13.781
14704SOL     OW45944   5.427   1.442   4.490
14704SOL    HW145945   5.516   1.427   4.519
14704SOL    HW245946   5.428   1.531   4.454
14705SOL     OW45947   7.624  11.734   9.890
14705SOL    HW145948   7.543  11.683   9.887
14705SOL    HW245949   7.595  11.825   9.883
14706SOL     OW45950   0.772   2.100  10.335
14706SOL    HW145951   0.706   2.159  10.298
14706SOL    HW245952   0.798   2.141  10.417
14707SOL     OW45953   8.473   3.970  11.995
14707SOL    HW145954   8.461   3.876  12.008
14707SOL    HW245955   8.562   3.978  11.961
14708SOL     OW45956   5.832  14.164   1.764
14708SOL    HW145957   5.764  14.138   1.702
14708SOL    HW245958   5.789  14.226   1.822
14709SOL     OW45959  10.578   5.039   5.104
14709SOL    HW145960  10.555   5.097   5.031
14709SOL    HW245961  10.494   5.005   5.135
14710SOL     OW45962   0.399   5.806  10.688
14710SOL    HW145963   0.396   5.714  10.714
14710SOL    HW245964   0.334   5.849  10.744
14711SOL     OW45965   7.202   7.959   3.432
14711SOL    HW145966   7.150   8.039   3.437
14711SOL    HW245967   7.263   7.966   3.506
14712SOL     OW45968   8.328   8.712   4.092
14712SOL    HW145969   8.387   8.768   4.042
14712SOL    HW245970   8.380   8.636   4.115
14713SOL     OW45971   6.955   1.519   4.324
14713SOL    HW145972   6.969   1.590   4.387
14713SOL    HW245973   6.880   1.547   4.273
14714SOL     OW45974   1.573   9.899   6.896
14714SOL    HW145975   1.571   9.987   6.934
14714SOL    HW245976   1.636   9.905   6.825
14715SOL     OW45977   8.772  10.363   9.177
14715SOL    HW145978   8.823  10.315   9.112
14715SOL    HW245979   8.730  10.295   9.230
14716SOL     OW45980  12.255  10.315   7.139
14716SOL    HW145981  12.182  10.371   7.163
14716SOL    HW245982  12.233  10.230   7.177
14717SOL     OW45983   1.891   9.653   4.380
14717SOL    HW145984   1.983   9.638   4.359
14717SOL    HW245985   1.891   9.734   4.432
14718SOL     OW45986  12.882   6.953  13.096
14718SOL    HW145987  12.970   6.944  13.134
14718SOL    HW245988  12.823   6.918  13.163
14719SOL     OW45989  14.745   2.610   1.495
14719SOL    HW145990  14.753   2.559   1.576
14719SOL    HW245991  14.812   2.574   1.438
14720SOL     OW45992  13.101  11.027  12.018
14720SOL    HW145993  13.063  10.977  12.091
14720SOL    HW245994  13.046  11.005  11.943
14721SOL     OW45995   8.829   5.635  12.006
14721SOL    HW145996   8.847   5.584  11.927
14721SOL    HW245997   8.736   5.657  11.999
14722SOL     OW45998   1.629  12.651   7.160
14722SOL    HW145999   1.575  12.576   7.135
14722SOL    HW246000   1.567  12.711   7.202
14723SOL     OW46001   5.794   6.318   7.812
14723SOL    HW146002   5.705   6.282   7.811
14723SOL    HW246003   5.834   6.280   7.890
14724SOL     OW46004  10.185  13.785  11.383
14724SOL    HW146005  10.116  13.719  11.395
14724SOL    HW246006  10.144  13.868  11.406
14725SOL     OW46007  14.797  13.769  10.654
14725SOL    HW146008  14.736  13.719  10.600
14725SOL    HW246009  14.869  13.792  10.595
14726SOL     OW46010   2.431   2.719  10.799
14726SOL    HW146011   2.398   2.765  10.722
14726SOL    HW246012   2.373   2.746  10.870
14727SOL     OW46013   9.356   8.076   3.106
14727SOL    HW146014   9.399   8.025   3.175
14727SOL    HW246015   9.277   8.111   3.149
14728SOL     OW46016   7.432   7.337   5.478
14728SOL    HW146017   7.420   7.417   5.529
14728SOL    HW246018   7.404   7.360   5.390
14729SOL     OW46019  12.512   0.617  10.891
14729SOL    HW146020  12.572   0.650  10.824
14729SOL    HW246021  12.550   0.644  10.974
14730SOL     OW46022   6.676   5.137   1.609
14730SOL    HW146023   6.636   5.051   1.600
14730SOL    HW246024   6.618   5.196   1.561
14731SOL     OW46025   1.784  12.117   0.012
14731SOL    HW146026   1.692  12.116  14.858
14731SOL    HW246027   1.790  12.185   0.078
14732SOL     OW46028  11.812   2.717   2.793
14732SOL    HW146029  11.836   2.798   2.839
14732SOL    HW246030  11.895   2.670   2.782
14733SOL     OW46031   0.177   7.499   7.018
14733SOL    HW146032   0.122   7.566   6.977
14733SOL    HW246033   0.145   7.417   6.981
14734SOL     OW46034   0.216  10.921  13.311
14734SOL    HW146035   0.188  10.854  13.249
14734SOL    HW246036   0.161  10.997  13.290
14735SOL     OW46037   0.007  14.605   7.185
14735SOL    HW146038  14.860  14.512   7.196
14735SOL    HW246039   0.029  14.636   7.273
14736SOL     OW46040   6.639   7.728   7.479
14736SOL    HW146041   6.701   7.666   7.517
14736SOL    HW246042   6.554   7.685   7.486
14737SOL     OW46043  13.539  12.541  10.733
14737SOL    HW146044  13.494  12.458  10.752
14737SOL    HW246045  13.584  12.525  10.650
14738SOL     OW46046  14.529  10.465   6.961
14738SOL    HW146047  14.617  10.497   6.944
14738SOL    HW246048  14.528  10.377   6.923
14739SOL     OW46049   2.204   6.700  11.709
14739SOL    HW146050   2.233   6.702  11.618
14739SOL    HW246051   2.280   6.729  11.759
14740SOL     OW46052  10.474   5.709   8.453
14740SOL    HW146053  10.542   5.767   8.487
14740SOL    HW246054  10.395   5.764   8.451
14741SOL     OW46055   6.142  10.508  12.831
14741SOL    HW146056   6.081  10.463  12.772
14741SOL    HW246057   6.215  10.533  12.775
14742SOL     OW46058   1.607   4.218   3.492
14742SOL    HW146059   1.521   4.206   3.451
14742SOL    HW246060   1.622   4.312   3.487
14743SOL     OW46061   7.238  13.891  14.012
14743SOL    HW146062   7.324  13.901  14.053
14743SOL    HW246063   7.204  13.809  14.045
14744SOL     OW46064   2.534   0.493   1.778
14744SOL    HW146065   2.509   0.401   1.775
14744SOL    HW246066   2.471   0.537   1.721
14745SOL     OW46067   7.016  13.402   4.140
14745SOL    HW146068   7.070  13.482   4.137
14745SOL    HW246069   6.953  13.413   4.069
14746SOL     OW46070   7.199  13.501   6.337
14746SOL    HW146071   7.222  13.555   6.261
14746SOL    HW246072   7.275  13.443   6.348
14747SOL     OW46073   5.076   7.413  10.580
14747SOL    HW146074   5.039   7.465  10.651
14747SOL    HW246075   5.165   7.394  10.608
14748SOL     OW46076  12.375  11.420   3.483
14748SOL    HW146077  12.289  11.463   3.476
14748SOL    HW246078  12.354  11.330   3.509
14749SOL     OW46079  10.112   5.155  14.508
14749SOL    HW146080  10.200   5.117  14.498
14749SOL    HW246081  10.056   5.082  14.532
14750SOL     OW46082  11.663   7.957   2.366
14750SOL    HW146083  11.748   7.927   2.398
14750SOL    HW246084  11.603   7.885   2.387
14751SOL     OW46085   2.456  13.139   1.140
14751SOL    HW146086   2.368  13.176   1.150
14751SOL    HW246087   2.513  13.216   1.136
14752SOL     OW46088   5.203   2.086   2.741
14752SOL    HW146089   5.217   2.028   2.815
14752SOL    HW246090   5.288   2.128   2.727
14753SOL     OW46091   9.875   0.884  12.040
14753SOL    HW146092   9.849   0.975  12.049
14753SOL    HW246093   9.965   0.880  12.073
14754SOL     OW46094   5.932   5.935   4.811
14754SOL    HW146095   5.951   5.849   4.847
14754SOL    HW246096   5.927   5.993   4.887
14755SOL     OW46097   6.133   4.169  11.863
14755SOL    HW146098   6.049   4.210  11.885
14755SOL    HW246099   6.159   4.210  11.780
14756SOL     OW46100   6.825   6.644  14.170
14756SOL    HW146101   6.754   6.691  14.126
14756SOL    HW246102   6.793   6.554  14.177
14757SOL     OW46103  10.452   1.363  14.322
14757SOL    HW146104  10.507   1.330  14.252
14757SOL    HW246105  10.485   1.452  14.339
14758SOL     OW46106  14.156   1.286   8.895
14758SOL    HW146107  14.200   1.244   8.969
14758SOL    HW246108  14.126   1.370   8.931
14759SOL     OW46109   8.196  14.600  10.380
14759SOL    HW146110   8.246  14.638  10.453
14759SOL    HW246111   8.127  14.549  10.422
14760SOL     OW46112  11.678  13.814   2.438
14760SOL    HW146113  11.716  13.796   2.524
14760SOL    HW246114  11.606  13.874   2.456
14761SOL     OW46115   7.679   2.592   3.155
14761SOL    HW146116   7.676   2.540   3.075
14761SOL    HW246117   7.772   2.592   3.179
14762SOL     OW46118   0.675  13.816   9.175
14762SOL    HW146119   0.618  13.804   9.099
14762SOL    HW246120   0.704  13.727   9.197
14763SOL     OW46121  14.590   8.415   0.915
14763SOL    HW146122  14.600   8.320   0.905
14763SOL    HW246123  14.627   8.434   1.001
14764SOL     OW46124   8.478  14.224  13.687
14764SOL    HW146125   8.444  14.310  13.712
14764SOL    HW246126   8.426  14.162  13.738
14765SOL     OW46127   0.600   4.879   1.521
14765SOL    HW146128   0.559   4.926   1.448
14765SOL    HW246129   0.552   4.797   1.526
14766SOL     OW46130   7.703   0.098   6.821
14766SOL    HW146131   7.708   0.192   6.839
14766SOL    HW246132   7.792   0.074   6.796
14767SOL     OW46133   3.210  11.230   3.983
14767SOL    HW146134   3.135  11.261   4.033
14767SOL    HW246135   3.178  11.153   3.937
14768SOL     OW46136  12.646   7.490   6.700
14768SOL    HW146137  12.635   7.471   6.607
14768SOL    HW246138  12.657   7.405   6.741
14769SOL     OW46139  13.201   5.090   8.822
14769SOL    HW146140  13.186   5.106   8.915
14769SOL    HW246141  13.135   5.025   8.797
14770SOL     OW46142  13.878   7.398  13.859
14770SOL    HW146143  13.955   7.398  13.916
14770SOL    HW246144  13.881   7.312  13.815
14771SOL     OW46145   2.816  10.338   2.991
14771SOL    HW146146   2.811  10.279   3.067
14771SOL    HW246147   2.761  10.296   2.925
14772SOL     OW46148   6.146   1.146   3.794
14772SOL    HW146149   6.215   1.166   3.731
14772SOL    HW246150   6.068   1.135   3.740
14773SOL     OW46151  13.321   0.654   2.492
14773SOL    HW146152  13.310   0.705   2.412
14773SOL    HW246153  13.366   0.574   2.464
14774SOL     OW46154  12.163   9.259   4.762
14774SOL    HW146155  12.068   9.254   4.767
14774SOL    HW246156  12.185   9.217   4.679
14775SOL     OW46157  13.332   2.223   1.274
14775SOL    HW146158  13.403   2.182   1.322
14775SOL    HW246159  13.252   2.187   1.311
14776SOL     OW46160   7.297  10.148   5.808
14776SOL    HW146161   7.326  10.159   5.899
14776SOL    HW246162   7.357  10.202   5.757
14777SOL     OW46163   9.869   5.757   0.696
14777SOL    HW146164   9.785   5.727   0.661
14777SOL    HW246165   9.928   5.683   0.684
14778SOL     OW46166  14.776   2.428  10.489
14778SOL    HW146167  14.810   2.374  10.418
14778SOL    HW246168  14.805   2.384  10.569
14779SOL     OW46169   5.592   7.791  10.064
14779SOL    HW146170   5.547   7.707  10.054
14779SOL    HW246171   5.634   7.786  10.150
14780SOL     OW46172   3.389  12.476  14.738
14780SOL    HW146173   3.354  12.564  14.723
14780SOL    HW246174   3.443  12.484  14.816
14781SOL     OW46175   5.110   3.917   7.619
14781SOL    HW146176   5.154   3.891   7.538
14781SOL    HW246177   5.074   3.836   7.654
14782SOL     OW46178   6.182   8.476   1.615
14782SOL    HW146179   6.260   8.516   1.654
14782SOL    HW246180   6.205   8.383   1.610
14783SOL     OW46181   8.852  10.687   9.882
14783SOL    HW146182   8.832  10.631   9.807
14783SOL    HW246183   8.798  10.765   9.869
14784SOL     OW46184   4.703  10.845   2.960
14784SOL    HW146185   4.621  10.888   2.987
14784SOL    HW246186   4.771  10.888   3.010
14785SOL     OW46187   9.466   3.269   4.984
14785SOL    HW146188   9.422   3.197   4.940
14785SOL    HW246189   9.397   3.314   5.032
14786SOL     OW46190   0.469  12.591   0.269
14786SOL    HW146191   0.453  12.593   0.363
14786SOL    HW246192   0.457  12.681   0.241
14787SOL     OW46193   1.783   1.199  12.968
14787SOL    HW146194   1.839   1.221  13.044
14787SOL    HW246195   1.715   1.142  13.004
14788SOL     OW46196   6.805  10.330   4.043
14788SOL    HW146197   6.723  10.378   4.030
14788SOL    HW246198   6.816  10.279   3.963
14789SOL     OW46199  10.814  11.925   6.574
14789SOL    HW146200  10.795  12.014   6.544
14789SOL    HW246201  10.754  11.911   6.647
14790SOL     OW46202   0.462   5.020   1.008
14790SOL    HW146203   0.430   4.957   0.944
14790SOL    HW246204   0.554   4.995   1.022
14791SOL     OW46205   3.544  10.590   8.006
14791SOL    HW146206   3.550  10.545   8.091
14791SOL    HW246207   3.634  10.590   7.973
14792SOL     OW46208  13.936   0.303  10.994
14792SOL    HW146209  13.859   0.248  11.010
14792SOL    HW246210  14.010   0.252  11.027
14793SOL     OW46211   1.007   8.700   2.266
14793SOL    HW146212   1.009   8.610   2.233
14793SOL    HW246213   0.913   8.720   2.274
14794SOL     OW46214  11.495   7.437  13.187
14794SOL    HW146215  11.431   7.446  13.257
14794SOL    HW246216  11.529   7.348  13.196
14795SOL     OW46217  10.236   1.532   7.061
14795SOL    HW146218  10.324   1.555   7.093
14795SOL    HW246219  10.177   1.590   7.110
14796SOL     OW46220  10.322  12.854   4.596
14796SOL    HW146221  10.241  12.904   4.609
14796SOL    HW246222  10.353  12.835   4.684
14797SOL     OW46223   4.447   2.389  12.028
14797SOL    HW146224   4.449   2.295  12.049
14797SOL    HW246225   4.379   2.397  11.961
14798SOL     OW46226   4.809  13.484   7.970
14798SOL    HW146227   4.901  13.484   7.943
14798SOL    HW246228   4.798  13.402   8.018
14799SOL     OW46229   8.546  14.229   8.905
14799SOL    HW146230   8.534  14.316   8.943
14799SOL    HW246231   8.623  14.194   8.950
14800SOL     OW46232  13.095  14.192   7.682
14800SOL    HW146233  13.042  14.132   7.629
14800SOL    HW246234  13.148  14.239   7.618
14801SOL     OW46235   6.334   2.059   5.649
14801SOL    HW146236   6.427   2.072   5.668
14801SOL    HW246237   6.294   2.144   5.668
14802SOL     OW46238   5.282  14.761  13.514
14802SOL    HW146239   5.297  14.773  13.608
14802SOL    HW246240   5.370  14.762  13.476
14803SOL     OW46241   4.311   8.195   1.179
14803SOL    HW146242   4.274   8.279   1.152
14803SOL    HW246243   4.238   8.150   1.223
14804SOL     OW46244   7.345   3.972  13.809
14804SOL    HW146245   7.277   4.004  13.869
14804SOL    HW246246   7.350   4.039  13.741
14805SOL     OW46247   0.152   2.672   9.345
14805SOL    HW146248   0.183   2.588   9.312
14805SOL    HW246249   0.134   2.656   9.438
14806SOL     OW46250   1.534   2.666  14.257
14806SOL    HW146251   1.542   2.698  14.347
14806SOL    HW246252   1.621   2.631  14.237
14807SOL     OW46253   3.836   5.354   3.207
14807SOL    HW146254   3.768   5.420   3.213
14807SOL    HW246255   3.916   5.399   3.233
14808SOL     OW46256   4.373   9.004  10.900
14808SOL    HW146257   4.287   9.043  10.884
14808SOL    HW246258   4.392   8.954  10.821
14809SOL     OW46259   0.132   9.248  14.543
14809SOL    HW146260   0.136   9.236  14.448
14809SOL    HW246261   0.071   9.180  14.574
14810SOL     OW46262   4.639  12.651  11.414
14810SOL    HW146263   4.624  12.572  11.362
14810SOL    HW246264   4.586  12.718  11.372
14811SOL     OW46265  12.641  13.582   1.749
14811SOL    HW146266  12.676  13.662   1.788
14811SOL    HW246267  12.619  13.526   1.823
14812SOL     OW46268  12.541   7.556  10.446
14812SOL    HW146269  12.490   7.503  10.507
14812SOL    HW246270  12.548   7.641  10.489
14813SOL     OW46271  10.071   1.939   3.266
14813SOL    HW146272  10.060   1.880   3.340
14813SOL    HW246273  10.131   2.006   3.298
14814SOL     OW46274   4.396   1.253  13.867
14814SOL    HW146275   4.361   1.230  13.953
14814SOL    HW246276   4.374   1.178  13.811
14815SOL     OW46277   3.962   8.091   9.538
14815SOL    HW146278   4.035   8.031   9.526
14815SOL    HW246279   3.961   8.143   9.457
14816SOL     OW46280  14.131   8.982   9.586
14816SOL    HW146281  14.043   8.950   9.567
14816SOL    HW246282  14.124   9.077   9.579
14817SOL     OW46283   2.011  14.226  12.221
14817SOL    HW146284   1.997  14.158  12.156
14817SOL    HW246285   2.026  14.179  12.303
14818SOL     OW46286   4.428   2.123   6.837
14818SOL    HW146287   4.482   2.178   6.894
14818SOL    HW246288   4.439   2.160   6.750
14819SOL     OW46289   6.631   1.569   8.401
14819SOL    HW146290   6.601   1.480   8.415
14819SOL    HW246291   6.579   1.622   8.463
14820SOL     OW46292   8.708   4.224  13.294
14820SOL    HW146293   8.777   4.210  13.360
14820SOL    HW246294   8.647   4.152  13.308
14821SOL     OW46295   9.591   5.487  12.861
14821SOL    HW146296   9.619   5.575  12.884
14821SOL    HW246297   9.593   5.484  12.766
14822SOL     OW46298   3.841  11.079   9.032
14822SOL    HW146299   3.790  11.025   8.972
14822SOL    HW246300   3.850  11.163   8.987
14823SOL     OW46301   9.934   3.106  12.386
14823SOL    HW146302   9.963   3.021  12.421
14823SOL    HW246303   9.880   3.142  12.456
14824SOL     OW46304   0.226   2.382  13.323
14824SOL    HW146305   0.310   2.429  13.320
14824SOL    HW246306   0.250   2.293  13.346
14825SOL     OW46307   3.451   7.563   4.052
14825SOL    HW146308   3.367   7.531   4.017
14825SOL    HW246309   3.447   7.658   4.041
14826SOL     OW46310   6.816   8.661  11.509
14826SOL    HW146311   6.830   8.575  11.469
14826SOL    HW246312   6.721   8.674  11.507
14827SOL     OW46313   5.403  13.839  12.438
14827SOL    HW146314   5.350  13.841  12.518
14827SOL    HW246315   5.340  13.854  12.368
14828SOL     OW46316   2.735   6.958  13.469
14828SOL    HW146317   2.676   6.885  13.449
14828SOL    HW246318   2.762   6.991  13.383
14829SOL     OW46319   0.262   5.552  12.118
14829SOL    HW146320   0.279   5.496  12.042
14829SOL    HW246321   0.332   5.529  12.180
14830SOL     OW46322   0.684   6.909   6.779
14830SOL    HW146323   0.650   6.833   6.732
14830SOL    HW246324   0.710   6.875   6.864
14831SOL     OW46325   8.914   0.662  11.826
14831SOL    HW146326   8.897   0.745  11.781
14831SOL    HW246327   8.896   0.595  11.760
14832SOL     OW46328   9.303  13.238  10.212
14832SOL    HW146329   9.361  13.287  10.270
14832SOL    HW246330   9.221  13.286  10.213
14833SOL     OW46331  14.495   4.131   7.420
14833SOL    HW146332  14.535   4.147   7.506
14833SOL    HW246333  14.426   4.198   7.414
14834SOL     OW46334  10.874   5.871   9.345
14834SOL    HW146335  10.921   5.788   9.339
14834SOL    HW246336  10.781   5.846   9.345
14835SOL     OW46337   8.253   6.387   6.492
14835SOL    HW146338   8.288   6.471   6.523
14835SOL    HW246339   8.186   6.365   6.556
14836SOL     OW46340   9.798  13.580   9.768
14836SOL    HW146341   9.766  13.496   9.800
14836SOL    HW246342   9.805  13.635   9.847
14837SOL     OW46343  14.394   5.235   0.053
14837SOL    HW146344  14.312   5.280   0.076
14837SOL    HW246345  14.373   5.142   0.059
14838SOL     OW46346   6.491  12.109  14.379
14838SOL    HW146347   6.458  12.042  14.320
14838SOL    HW246348   6.583  12.118  14.358
14839SOL     OW46349   3.662  13.449  12.156
14839SOL    HW146350   3.643  13.476  12.066
14839SOL    HW246351   3.625  13.361  12.162
14840SOL     OW46352  11.041   0.102   6.884
14840SOL    HW146353  10.960   0.153   6.873
14840SOL    HW246354  11.051   0.095   6.979
14841SOL     OW46355   3.058   3.816   6.889
14841SOL    HW146356   3.070   3.755   6.961
14841SOL    HW246357   2.988   3.777   6.836
14842SOL     OW46358  10.024  10.332   2.885
14842SOL    HW146359   9.933  10.302   2.891
14842SOL    HW246360  10.070  10.259   2.844
14843SOL     OW46361   5.836   2.176   7.156
14843SOL    HW146362   5.794   2.121   7.222
14843SOL    HW246363   5.923   2.193   7.191
14844SOL     OW46364   1.473  12.999  13.558
14844SOL    HW146365   1.550  13.038  13.600
14844SOL    HW246366   1.505  12.968  13.473
14845SOL     OW46367  10.731  10.421  11.044
14845SOL    HW146368  10.759  10.382  11.127
14845SOL    HW246369  10.635  10.423  11.050
14846SOL     OW46370   8.971  12.935   5.159
14846SOL    HW146371   9.055  12.949   5.116
14846SOL    HW246372   8.983  12.965   5.249
14847SOL     OW46373  13.244   9.209   5.533
14847SOL    HW146374  13.269   9.182   5.445
14847SOL    HW246375  13.310   9.170   5.590
14848SOL     OW46376   5.465   0.912   0.932
14848SOL    HW146377   5.383   0.874   0.964
14848SOL    HW246378   5.504   0.953   1.009
14849SOL     OW46379   4.004   4.815   9.200
14849SOL    HW146380   3.921   4.774   9.174
14849SOL    HW246381   4.014   4.791   9.292
14850SOL     OW46382   7.352   2.418   4.114
14850SOL    HW146383   7.277   2.464   4.152
14850SOL    HW246384   7.393   2.373   4.188
14851SOL     OW46385   5.884   7.534   2.795
14851SOL    HW146386   5.907   7.511   2.705
14851SOL    HW246387   5.904   7.456   2.846
14852SOL     OW46388  11.767   5.250   2.108
14852SOL    HW146389  11.710   5.256   2.185
14852SOL    HW246390  11.725   5.185   2.052
14853SOL     OW46391   5.876  13.867  10.630
14853SOL    HW146392   5.845  13.826  10.711
14853SOL    HW246393   5.971  13.860  10.635
14854SOL     OW46394   1.527   7.147   9.142
14854SOL    HW146395   1.547   7.090   9.216
14854SOL    HW246396   1.439   7.180   9.161
14855SOL     OW46397   2.212   3.964  10.779
14855SOL    HW146398   2.157   3.888  10.795
14855SOL    HW246399   2.206   4.016  10.859
14856SOL     OW46400   6.271   8.202   7.468
14856SOL    HW146401   6.347   8.190   7.524
14856SOL    HW246402   6.272   8.295   7.445
14857SOL     OW46403  10.114   9.225   0.199
14857SOL    HW146404  10.018   9.227   0.195
14857SOL    HW246405  10.140   9.317   0.207
14858SOL     OW46406   0.768   6.961   1.066
14858SOL    HW146407   0.692   6.967   1.007
14858SOL    HW246408   0.839   6.931   1.009
14859SOL     OW46409  14.125   2.882   5.971
14859SOL    HW146410  14.039   2.848   5.945
14859SOL    HW246411  14.168   2.903   5.888
14860SOL     OW46412   8.170   2.634   5.554
14860SOL    HW146413   8.229   2.560   5.560
14860SOL    HW246414   8.137   2.646   5.643
14861SOL     OW46415   5.361   7.581   5.985
14861SOL    HW146416   5.310   7.501   5.999
14861SOL    HW246417   5.441   7.568   6.035
14862SOL     OW46418   9.683   9.510   8.697
14862SOL    HW146419   9.670   9.415   8.695
14862SOL    HW246420   9.625   9.540   8.767
14863SOL     OW46421   4.505  12.353  12.937
14863SOL    HW146422   4.576  12.370  12.876
14863SOL    HW246423   4.537  12.385  13.021
14864SOL     OW46424   2.129   5.764  10.185
14864SOL    HW146425   2.105   5.723  10.268
14864SOL    HW246426   2.047   5.800  10.152
14865SOL     OW46427   1.518   3.063   1.958
14865SOL    HW146428   1.505   3.005   2.034
14865SOL    HW246429   1.563   3.008   1.894
14866SOL     OW46430   8.172  10.019   7.985
14866SOL    HW146431   8.114   9.973   7.925
14866SOL    HW246432   8.149   9.987   8.072
14867SOL     OW46433   1.213   0.238  12.421
14867SOL    HW146434   1.259   0.207  12.342
14867SOL    HW246435   1.160   0.164  12.449
14868SOL     OW46436   6.008  13.329   1.355
14868SOL    HW146437   6.052  13.353   1.274
14868SOL    HW246438   6.078  13.302   1.414
14869SOL     OW46439   6.448  10.002   2.903
14869SOL    HW146440   6.498  10.008   2.822
14869SOL    HW246441   6.511  10.024   2.972
14870SOL     OW46442   1.517   2.589   4.693
14870SOL    HW146443   1.492   2.638   4.771
14870SOL    HW246444   1.486   2.642   4.620
14871SOL     OW46445  11.472   7.575   0.008
14871SOL    HW146446  11.531   7.613   0.072
14871SOL    HW246447  11.498   7.483   0.001
14872SOL     OW46448  12.189  12.414  13.813
14872SOL    HW146449  12.154  12.465  13.740
14872SOL    HW246450  12.277  12.389  13.786
14873SOL     OW46451   8.739  14.560  11.334
14873SOL    HW146452   8.646  14.582  11.341
14873SOL    HW246453   8.784  14.641  11.358
14874SOL     OW46454  13.754   9.367   2.976
14874SOL    HW146455  13.779   9.368   3.068
14874SOL    HW246456  13.829   9.404   2.930
14875SOL     OW46457   6.249   7.339   4.724
14875SOL    HW146458   6.178   7.370   4.780
14875SOL    HW246459   6.216   7.257   4.686
14876SOL     OW46460  11.905  11.751   9.055
14876SOL    HW146461  11.842  11.789   9.116
14876SOL    HW246462  11.990  11.768   9.095
14877SOL     OW46463   4.598   1.097   3.542
14877SOL    HW146464   4.688   1.128   3.531
14877SOL    HW246465   4.588   1.028   3.477
14878SOL     OW46466   5.244  10.586   3.125
14878SOL    HW146467   5.263  10.540   3.206
14878SOL    HW246468   5.156  10.623   3.138
14879SOL     OW46469   5.590   3.891   9.861
14879SOL    HW146470   5.677   3.863   9.890
14879SOL    HW246471   5.557   3.819   9.807
14880SOL     OW46472   7.013  11.824  12.205
14880SOL    HW146473   7.077  11.878  12.158
14880SOL    HW246474   6.959  11.786  12.135
14881SOL     OW46475   7.487  10.508   1.524
14881SOL    HW146476   7.397  10.477   1.515
14881SOL    HW246477   7.529  10.442   1.579
14882SOL     OW46478   9.574   0.343   2.941
14882SOL    HW146479   9.517   0.418   2.921
14882SOL    HW246480   9.634   0.376   3.008
14883SOL     OW46481   7.483  14.419   6.903
14883SOL    HW146482   7.509  14.478   6.832
14883SOL    HW246483   7.484  14.332   6.864
14884SOL     OW46484   5.292   6.270   7.202
14884SOL    HW146485   5.204   6.308   7.203
14884SOL    HW246486   5.284   6.189   7.251
14885SOL     OW46487  13.090  10.353  14.230
14885SOL    HW146488  13.057  10.270  14.264
14885SOL    HW246489  13.013  10.397  14.194
14886SOL     OW46490  12.629  10.180   2.533
14886SOL    HW146491  12.717  10.199   2.565
14886SOL    HW246492  12.595  10.265   2.506
14887SOL     OW46493  11.301   4.862   9.133
14887SOL    HW146494  11.209   4.873   9.111
14887SOL    HW246495  11.335   4.952   9.137
14888SOL     OW46496  12.208   6.234   9.823
14888SOL    HW146497  12.200   6.286   9.743
14888SOL    HW246498  12.177   6.147   9.798
14889SOL     OW46499   1.274   2.892   6.969
14889SOL    HW146500   1.303   2.862   6.883
14889SOL    HW246501   1.353   2.893   7.022
14890SOL     OW46502   4.173   0.322  10.366
14890SOL    HW146503   4.177   0.415  10.388
14890SOL    HW246504   4.181   0.277  10.450
14891SOL     OW46505   8.069   4.009  13.887
14891SOL    HW146506   8.158   3.978  13.871
14891SOL    HW246507   8.059   4.005  13.982
14892SOL     OW46508  14.790   3.650  14.414
14892SOL    HW146509  14.822   3.565  14.444
14892SOL    HW246510  14.776   3.700  14.494
14893SOL     OW46511  10.806  13.984   4.369
14893SOL    HW146512  10.821  13.891   4.352
14893SOL    HW246513  10.813  14.025   4.283
14894SOL     OW46514  11.699  14.475   2.567
14894SOL    HW146515  11.653  14.480   2.484
14894SOL    HW246516  11.724  14.383   2.576
14895SOL     OW46517   7.321  10.521   8.944
14895SOL    HW146518   7.411  10.536   8.972
14895SOL    HW246519   7.270  10.522   9.026
14896SOL     OW46520   1.472   3.813   6.406
14896SOL    HW146521   1.539   3.762   6.451
14896SOL    HW246522   1.417   3.848   6.477
14897SOL     OW46523   5.805   8.210   7.287
14897SOL    HW146524   5.859   8.144   7.332
14897SOL    HW246525   5.721   8.167   7.272
14898SOL     OW46526  14.543   8.170   2.723
14898SOL    HW146527  14.475   8.159   2.656
14898SOL    HW246528  14.616   8.212   2.677
14899SOL     OW46529   9.380   4.118   1.035
14899SOL    HW146530   9.338   4.192   1.078
14899SOL    HW246531   9.335   4.041   1.069
14900SOL     OW46532   1.684   0.744   3.969
14900SOL    HW146533   1.660   0.653   3.952
14900SOL    HW246534   1.680   0.752   4.065
14901SOL     OW46535   7.440   4.520   8.837
14901SOL    HW146536   7.399   4.547   8.754
14901SOL    HW246537   7.516   4.578   8.846
14902SOL     OW46538  10.586   6.035   2.214
14902SOL    HW146539  10.522   6.093   2.254
14902SOL    HW246540  10.653   6.022   2.281
14903SOL     OW46541   7.948   3.322  14.279
14903SOL    HW146542   7.858   3.345  14.255
14903SOL    HW246543   7.952   3.335  14.373
14904SOL     OW46544   3.636   5.793  14.693
14904SOL    HW146545   3.623   5.816  14.785
14904SOL    HW246546   3.557   5.825  14.649
14905SOL     OW46547   6.182  14.275  11.448
14905SOL    HW146548   6.130  14.292  11.370
14905SOL    HW246549   6.118  14.246  11.514
14906SOL     OW46550   5.084   4.792  14.355
14906SOL    HW146551   5.007   4.848  14.345
14906SOL    HW246552   5.113   4.807  14.445
14907SOL     OW46553   0.282   1.426  11.076
14907SOL    HW146554   0.368   1.421  11.117
14907SOL    HW246555   0.246   1.510  11.104
14908SOL     OW46556   8.381  10.943   6.662
14908SOL    HW146557   8.377  10.874   6.728
14908SOL    HW246558   8.294  10.982   6.663
14909SOL     OW46559  13.900   9.113   3.769
14909SOL    HW146560  13.858   9.036   3.807
14909SOL    HW246561  13.994   9.097   3.781
14910SOL     OW46562   8.572  13.669  12.213
14910SOL    HW146563   8.488  13.627  12.230
14910SOL    HW246564   8.617  13.668  12.298
14911SOL     OW46565   5.355   1.087   1.454
14911SOL    HW146566   5.372   0.996   1.478
14911SOL    HW246567   5.304   1.080   1.373
14912SOL     OW46568   4.293   2.231   8.067
14912SOL    HW146569   4.270   2.187   7.985
14912SOL    HW246570   4.358   2.296   8.041
14913SOL     OW46571  12.413   1.001  10.439
14913SOL    HW146572  12.385   0.938  10.505
14913SOL    HW246573  12.474   1.059  10.485
14914SOL     OW46574  11.731   1.038   1.575
14914SOL    HW146575  11.696   0.959   1.617
14914SOL    HW246576  11.692   1.110   1.624
14915SOL     OW46577  10.014   2.829   5.839
14915SOL    HW146578   9.987   2.740   5.862
14915SOL    HW246579   9.990   2.882   5.915
14916SOL     OW46580   7.780   9.050  14.142
14916SOL    HW146581   7.754   8.958  14.150
14916SOL    HW246582   7.719   9.087  14.079
14917SOL     OW46583  10.445  12.765   0.613
14917SOL    HW146584  10.471  12.830   0.679
14917SOL    HW246585  10.358  12.736   0.640
14918SOL     OW46586  14.823  11.513  11.979
14918SOL    HW146587   0.029  11.566  11.991
14918SOL    HW246588  14.785  11.506  12.066
14919SOL     OW46589   5.655   3.862   0.722
14919SOL    HW146590   5.701   3.865   0.806
14919SOL    HW246591   5.610   3.777   0.723
14920SOL     OW46592  12.971   6.069  12.392
14920SOL    HW146593  12.876   6.080  12.405
14920SOL    HW246594  13.011   6.123  12.461
14921SOL     OW46595   9.360   6.111   2.290
14921SOL    HW146596   9.452   6.116   2.262
14921SOL    HW246597   9.357   6.162   2.371
14922SOL     OW46598  11.406  10.165  14.266
14922SOL    HW146599  11.376  10.211  14.187
14922SOL    HW246600  11.484  10.212  14.294
14923SOL     OW46601   4.777   6.535   5.773
14923SOL    HW146602   4.745   6.523   5.862
14923SOL    HW246603   4.699   6.553   5.721
14924SOL     OW46604  10.106   6.051  12.522
14924SOL    HW146605  10.105   6.143  12.549
14924SOL    HW246606  10.131   6.003  12.601
14925SOL     OW46607   3.105   1.419   3.304
14925SOL    HW146608   3.057   1.501   3.297
14925SOL    HW246609   3.040   1.354   3.330
14926SOL     OW46610   1.386   3.335   5.074
14926SOL    HW146611   1.343   3.365   5.154
14926SOL    HW246612   1.339   3.255   5.051
14927SOL     OW46613  14.193  11.061   4.888
14927SOL    HW146614  14.143  10.980   4.894
14927SOL    HW246615  14.169  11.111   4.966
14928SOL     OW46616   2.560   4.089   2.524
14928SOL    HW146617   2.541   4.114   2.614
14928SOL    HW246618   2.583   4.171   2.480
14929SOL     OW46619   4.991   0.252   1.047
14929SOL    HW146620   4.929   0.181   1.031
14929SOL    HW246621   5.051   0.248   0.972
14930SOL     OW46622  11.312  10.227  12.194
14930SOL    HW146623  11.268  10.225  12.109
14930SOL    HW246624  11.263  10.291  12.245
14931SOL     OW46625   5.063   6.288  13.451
14931SOL    HW146626   5.019   6.286  13.536
14931SOL    HW246627   5.061   6.197  13.421
14932SOL     OW46628   4.718   7.730  12.974
14932SOL    HW146629   4.769   7.674  12.916
14932SOL    HW246630   4.726   7.817  12.936
14933SOL     OW46631   8.107   7.467   6.156
14933SOL    HW146632   8.068   7.552   6.136
14933SOL    HW246633   8.135   7.473   6.247
14934SOL     OW46634   4.484  14.464   4.783
14934SOL    HW146635   4.456  14.516   4.859
14934SOL    HW246636   4.442  14.379   4.796
14935SOL     OW46637  13.343  11.577   3.247
14935SOL    HW146638  13.375  11.513   3.310
14935SOL    HW246639  13.356  11.536   3.161
14936SOL     OW46640   3.249   8.192   9.811
14936SOL    HW146641   3.252   8.277   9.856
14936SOL    HW246642   3.336   8.155   9.824
14937SOL     OW46643  13.381   7.050   7.170
14937SOL    HW146644  13.337   7.004   7.241
14937SOL    HW246645  13.401   7.136   7.206
14938SOL     OW46646   9.808   4.403   6.527
14938SOL    HW146647   9.837   4.314   6.546
14938SOL    HW246648   9.804   4.446   6.612
14939SOL     OW46649  12.367   5.472  11.552
14939SOL    HW146650  12.430   5.439  11.616
14939SOL    HW246651  12.292   5.413  11.559
14940SOL     OW46652   4.821   6.112   6.961
14940SOL    HW146653   4.861   6.136   7.044
14940SOL    HW246654   4.752   6.178   6.948
14941SOL     OW46655   0.286  14.765  12.581
14941SOL    HW146656   0.281  14.673  12.555
14941SOL    HW246657   0.337  14.764  12.662
14942SOL     OW46658   0.937  11.381  10.688
14942SOL    HW146659   0.859  11.423  10.724
14942SOL    HW246660   1.009  11.439  10.711
14943SOL     OW46661   0.540  14.012  12.653
14943SOL    HW146662   0.579  14.023  12.566
14943SOL    HW246663   0.447  13.999  12.635
14944SOL     OW46664  13.624   6.546   6.890
14944SOL    HW146665  13.674   6.496   6.826
14944SOL    HW246666  13.660   6.635   6.885
14945SOL     OW46667  11.333  11.662   7.508
14945SOL    HW146668  11.384  11.645   7.428
14945SOL    HW246669  11.255  11.607   7.499
14946SOL     OW46670  11.330   2.785   2.697
14946SOL    HW146671  11.319   2.823   2.784
14946SOL    HW246672  11.241   2.768   2.667
14947SOL     OW46673   3.075   7.247   8.342
14947SOL    HW146674   3.049   7.232   8.433
14947SOL    HW246675   3.156   7.196   8.332
14948SOL     OW46676   0.027  11.386   6.163
14948SOL    HW146677  14.827  11.431   6.121
14948SOL    HW246678   0.012  11.396   6.257
14949SOL     OW46679  11.182   3.436   8.894
14949SOL    HW146680  11.240   3.360   8.890
14949SOL    HW246681  11.109   3.407   8.948
14950SOL     OW46682  12.322   7.571   7.926
14950SOL    HW146683  12.339   7.566   7.832
14950SOL    HW246684  12.390   7.517   7.966
14951SOL     OW46685   4.482   9.238   5.965
14951SOL    HW146686   4.461   9.321   6.007
14951SOL    HW246687   4.557   9.205   6.013
14952SOL     OW46688   9.249  14.747   6.011
14952SOL    HW146689   9.207  14.661   6.008
14952SOL    HW246690   9.243  14.779   5.921
14953SOL     OW46691  12.006  13.861   5.538
14953SOL    HW146692  11.949  13.846   5.462
14953SOL    HW246693  11.973  13.799   5.604
14954SOL     OW46694   0.151   4.197   0.271
14954SOL    HW146695   0.225   4.210   0.213
14954SOL    HW246696   0.190   4.185   0.358
14955SOL     OW46697   5.453  11.668   2.230
14955SOL    HW146698   5.371  11.674   2.181
14955SOL    HW246699   5.431  11.615   2.307
14956SOL     OW46700  13.192   2.202   8.657
14956SOL    HW146701  13.234   2.282   8.688
14956SOL    HW246702  13.241   2.179   8.577
14957SOL     OW46703   3.948   5.585   3.653
14957SOL    HW146704   3.917   5.674   3.639
14957SOL    HW246705   3.900   5.532   3.589
14958SOL     OW46706  10.175   0.470   6.190
14958SOL    HW146707  10.265   0.494   6.172
14958SOL    HW246708  10.133   0.551   6.219
14959SOL     OW46709  11.271  10.305   6.845
14959SOL    HW146710  11.307  10.388   6.878
14959SOL    HW246711  11.347  10.257   6.814
14960SOL     OW46712  10.987   3.211   5.324
14960SOL    HW146713  11.037   3.162   5.389
14960SOL    HW246714  11.048   3.278   5.293
14961SOL     OW46715  11.228   0.693   4.067
14961SOL    HW146716  11.281   0.678   4.145
14961SOL    HW246717  11.275   0.762   4.020
14962SOL     OW46718   3.627  13.919  10.977
14962SOL    HW146719   3.669  13.979  10.916
14962SOL    HW246720   3.658  13.832  10.951
14963SOL     OW46721   3.973  13.286   5.353
14963SOL    HW146722   4.043  13.351   5.345
14963SOL    HW246723   3.924  13.293   5.272
14964SOL     OW46724  10.715   7.031  13.441
14964SOL    HW146725  10.634   7.007  13.485
14964SOL    HW246726  10.694   7.024  13.348
14965SOL     OW46727   9.894  11.790  10.532
14965SOL    HW146728   9.865  11.738  10.457
14965SOL    HW246729   9.817  11.793  10.589
14966SOL     OW46730   9.232   6.745  11.927
14966SOL    HW146731   9.188   6.808  11.984
14966SOL    HW246732   9.291   6.798  11.874
14967SOL     OW46733  11.540   6.587  10.133
14967SOL    HW146734  11.536   6.501  10.175
14967SOL    HW246735  11.468   6.587  10.070
14968SOL     OW46736  10.665   0.399   1.451
14968SOL    HW146737  10.743   0.387   1.504
14968SOL    HW246738  10.667   0.491   1.424
14969SOL     OW46739   7.070   2.868   8.227
14969SOL    HW146740   7.120   2.870   8.309
14969SOL    HW246741   6.996   2.809   8.246
14970SOL     OW46742   2.290  14.122   0.517
14970SOL    HW146743   2.222  14.091   0.577
14970SOL    HW246744   2.371  14.083   0.551
14971SOL     OW46745   1.225  12.863   2.176
14971SOL    HW146746   1.284  12.831   2.108
14971SOL    HW246747   1.207  12.786   2.231
14972SOL     OW46748  11.591  11.262   4.503
14972SOL    HW146749  11.566  11.175   4.473
14972SOL    HW246750  11.687  11.259   4.507
14973SOL     OW46751   0.575  10.600   1.480
14973SOL    HW146752   0.495  10.568   1.521
14973SOL    HW246753   0.645  10.567   1.536
14974SOL     OW46754   3.179   0.161   9.156
14974SOL    HW146755   3.259   0.119   9.189
14974SOL    HW246756   3.108   0.108   9.191
14975SOL     OW46757  13.909   4.587   6.549
14975SOL    HW146758  13.871   4.583   6.461
14975SOL    HW246759  13.869   4.664   6.589
14976SOL     OW46760   7.585   6.784   2.178
14976SOL    HW146761   7.652   6.716   2.187
14976SOL    HW246762   7.600   6.842   2.253
14977SOL     OW46763   7.913  11.628   0.333
14977SOL    HW146764   7.865  11.564   0.386
14977SOL    HW246765   7.916  11.589   0.246
14978SOL     OW46766   8.707   6.515   8.410
14978SOL    HW146767   8.701   6.597   8.459
14978SOL    HW246768   8.619   6.502   8.375
14979SOL     OW46769  13.597  12.502  10.453
14979SOL    HW146770  13.613  12.480  10.362
14979SOL    HW246771  13.632  12.590  10.464
14980SOL     OW46772  11.685   5.643  11.380
14980SOL    HW146773  11.775   5.667  11.397
14980SOL    HW246774  11.687   5.599  11.294
14981SOL     OW46775   2.503   3.240  13.407
14981SOL    HW146776   2.520   3.260  13.499
14981SOL    HW246777   2.427   3.181  13.408
14982SOL     OW46778   4.809   7.055   7.604
14982SOL    HW146779   4.883   7.003   7.638
14982SOL    HW246780   4.738   6.992   7.593
14983SOL     OW46781  13.035  12.083   7.051
14983SOL    HW146782  13.028  12.047   6.962
14983SOL    HW246783  13.039  12.178   7.039
14984SOL     OW46784   0.860  10.028   0.028
14984SOL    HW146785   0.827  10.015  14.812
14984SOL    HW246786   0.854   9.941   0.068
14985SOL     OW46787   2.792   5.157   5.779
14985SOL    HW146788   2.709   5.203   5.767
14985SOL    HW246789   2.837   5.168   5.695
14986SOL     OW46790   2.383   6.149   6.546
14986SOL    HW146791   2.469   6.109   6.535
14986SOL    HW246792   2.364   6.141   6.639
14987SOL     OW46793   2.446   4.171   5.359
14987SOL    HW146794   2.420   4.261   5.339
14987SOL    HW246795   2.457   4.170   5.454
14988SOL     OW46796  11.455  12.758   9.514
14988SOL    HW146797  11.452  12.831   9.452
14988SOL    HW246798  11.460  12.800   9.600
14989SOL     OW46799  13.334  13.803  12.714
14989SOL    HW146800  13.427  13.783  12.707
14989SOL    HW246801  13.306  13.820  12.624
14990SOL     OW46802  12.379  13.803  10.032
14990SOL    HW146803  12.373  13.727  10.089
14990SOL    HW246804  12.289  13.837  10.027
14991SOL     OW46805  13.738   6.891   2.503
14991SOL    HW146806  13.733   6.848   2.418
14991SOL    HW246807  13.830   6.915   2.513
14992SOL     OW46808   2.847   4.293   7.281
14992SOL    HW146809   2.787   4.231   7.323
14992SOL    HW246810   2.894   4.335   7.353
14993SOL     OW46811  10.140  14.486  12.796
14993SOL    HW146812  10.192  14.470  12.717
14993SOL    HW246813  10.131  14.400  12.836
14994SOL     OW46814   8.433   3.864   8.644
14994SOL    HW146815   8.517   3.867   8.690
14994SOL    HW246816   8.374   3.917   8.698
14995SOL     OW46817   9.194  13.239  14.447
14995SOL    HW146818   9.154  13.163  14.405
14995SOL    HW246819   9.142  13.313  14.419
14996SOL     OW46820  13.820   9.403  12.735
14996SOL    HW146821  13.808   9.496  12.750
14996SOL    HW246822  13.780   9.387  12.650
14997SOL     OW46823   2.023   5.806   0.265
14997SOL    HW146824   1.995   5.884   0.216
14997SOL    HW246825   2.019   5.834   0.356
14998SOL     OW46826   0.014   7.076   1.129
14998SOL    HW146827  14.823   7.028   1.182
14998SOL    HW246828   0.095   7.072   1.179
14999SOL     OW46829  12.564  14.345   3.906
14999SOL    HW146830  12.555  14.429   3.950
14999SOL    HW246831  12.477  14.306   3.910
15000SOL     OW46832   2.512   9.642   2.964
15000SOL    HW146833   2.516   9.729   3.005
15000SOL    HW246834   2.428   9.641   2.918
15001SOL     OW46835   8.410   4.298  13.752
15001SOL    HW146836   8.501   4.330  13.753
15001SOL    HW246837   8.386   4.297  13.659
15002SOL     OW46838   5.181   2.120   9.066
15002SOL    HW146839   5.259   2.132   9.119
15002SOL    HW246840   5.176   2.199   9.011
15003SOL     OW46841  10.030  12.478  10.965
15003SOL    HW146842   9.944  12.442  10.985
15003SOL    HW246843  10.087  12.442  11.032
15004SOL     OW46844   1.673   9.878   0.804
15004SOL    HW146845   1.624   9.856   0.883
15004SOL    HW246846   1.645   9.813   0.740
15005SOL     OW46847  13.912   9.419   7.459
15005SOL    HW146848  13.825   9.383   7.441
15005SOL    HW246849  13.918   9.496   7.401
15006SOL     OW46850   7.085   3.984   5.305
15006SOL    HW146851   7.174   3.993   5.270
15006SOL    HW246852   7.097   3.967   5.398
15007SOL     OW46853  12.305   4.287  12.371
15007SOL    HW146854  12.290   4.344  12.296
15007SOL    HW246855  12.363   4.338  12.428
15008SOL     OW46856  11.482   9.704   0.927
15008SOL    HW146857  11.503   9.630   0.870
15008SOL    HW246858  11.567   9.744   0.948
15009SOL     OW46859   7.767   2.229   5.998
15009SOL    HW146860   7.774   2.324   6.003
15009SOL    HW246861   7.857   2.198   5.990
15010SOL     OW46862   5.608   6.213  10.638
15010SOL    HW146863   5.532   6.184  10.689
15010SOL    HW246864   5.682   6.202  10.697
15011SOL     OW46865   1.082  12.407   4.902
15011SOL    HW146866   1.131  12.460   4.965
15011SOL    HW246867   1.055  12.469   4.834
15012SOL     OW46868   3.909  13.110   6.990
15012SOL    HW146869   3.918  13.049   6.917
15012SOL    HW246870   3.992  13.102   7.038
15013SOL     OW46871   2.058  13.849  11.954
15013SOL    HW146872   2.126  13.798  11.910
15013SOL    HW246873   1.976  13.812  11.921
15014SOL     OW46874   3.440   1.188   2.139
15014SOL    HW146875   3.390   1.265   2.111
15014SOL    HW246876   3.440   1.192   2.234
15015SOL     OW46877  11.597   6.823   4.930
15015SOL    HW146878  11.566   6.861   5.012
15015SOL    HW246879  11.574   6.730   4.936
15016SOL     OW46880   0.595   8.874  13.305
15016SOL    HW146881   0.640   8.956  13.285
15016SOL    HW246882   0.665   8.811  13.319
15017SOL     OW46883   2.682   2.823   6.839
15017SOL    HW146884   2.757   2.877   6.863
15017SOL    HW246885   2.620   2.884   6.798
15018SOL     OW46886   1.076   3.363  14.228
15018SOL    HW146887   1.160   3.405  14.246
15018SOL    HW246888   1.022   3.432  14.188
15019SOL     OW46889   1.816  11.776  14.634
15019SOL    HW146890   1.870  11.749  14.560
15019SOL    HW246891   1.829  11.708  14.700
15020SOL     OW46892   9.985   6.893   6.081
15020SOL    HW146893  10.074   6.914   6.052
15020SOL    HW246894   9.929   6.957   6.037
15021SOL     OW46895   2.733   3.608   9.743
15021SOL    HW146896   2.749   3.702   9.736
15021SOL    HW246897   2.658   3.591   9.685
15022SOL     OW46898   8.073  10.747  14.205
15022SOL    HW146899   8.055  10.769  14.296
15022SOL    HW246900   8.131  10.671  14.209
15023SOL     OW46901   8.058   5.631  12.980
15023SOL    HW146902   8.141   5.627  13.028
15023SOL    HW246903   8.002   5.687  13.032
15024SOL     OW46904   3.805   2.327  13.324
15024SOL    HW146905   3.738   2.390  13.350
15024SOL    HW246906   3.830   2.353  13.236
15025SOL     OW46907  10.675   3.170  14.811
15025SOL    HW146908  10.717   3.095  14.769
15025SOL    HW246909  10.748   3.219  14.850
15026SOL     OW46910  10.163   5.315  12.022
15026SOL    HW146911  10.114   5.317  11.940
15026SOL    HW246912  10.170   5.407  12.048
15027SOL     OW46913  10.440  12.957   8.275
15027SOL    HW146914  10.496  12.880   8.262
15027SOL    HW246915  10.412  12.950   8.366
15028SOL     OW46916   0.758   1.596   1.010
15028SOL    HW146917   0.682   1.551   1.047
15028SOL    HW246918   0.723   1.648   0.938
15029SOL     OW46919   4.164   3.325   6.074
15029SOL    HW146920   4.257   3.307   6.084
15029SOL    HW246921   4.156   3.367   5.988
15030SOL     OW46922   9.411   1.598  13.536
15030SOL    HW146923   9.382   1.648  13.460
15030SOL    HW246924   9.417   1.662  13.607
15031SOL     OW46925   5.152   4.987  11.286
15031SOL    HW146926   5.126   4.905  11.328
15031SOL    HW246927   5.072   5.018  11.243
15032SOL     OW46928   1.310   3.445   4.530
15032SOL    HW146929   1.239   3.505   4.551
15032SOL    HW246930   1.386   3.502   4.515
15033SOL     OW46931   0.938   9.180  10.976
15033SOL    HW146932   0.862   9.155  11.028
15033SOL    HW246933   0.990   9.099  10.968
15034SOL     OW46934   5.252  12.440   3.850
15034SOL    HW146935   5.209  12.511   3.897
15034SOL    HW246936   5.262  12.370   3.915
15035SOL     OW46937   2.255   9.832   2.350
15035SOL    HW146938   2.233   9.762   2.411
15035SOL    HW246939   2.179   9.840   2.293
15036SOL     OW46940   3.786  10.161   0.677
15036SOL    HW146941   3.796  10.121   0.764
15036SOL    HW246942   3.867  10.138   0.631
15037SOL     OW46943  12.167  14.448  11.215
15037SOL    HW146944  12.185  14.379  11.278
15037SOL    HW246945  12.077  14.432  11.185
15038SOL     OW46946   6.015   2.847  10.022
15038SOL    HW146947   6.019   2.780  10.091
15038SOL    HW246948   5.936   2.825   9.973
15039SOL     OW46949   3.463  12.342   1.821
15039SOL    HW146950   3.466  12.402   1.896
15039SOL    HW246951   3.476  12.399   1.745
15040SOL     OW46952  12.748  11.682   5.547
15040SOL    HW146953  12.815  11.675   5.615
15040SOL    HW246954  12.694  11.757   5.574
15041SOL     OW46955   2.903  14.281   4.525
15041SOL    HW146956   2.813  14.314   4.515
15041SOL    HW246957   2.896  14.187   4.510
15042SOL     OW46958   5.998   4.771   5.837
15042SOL    HW146959   5.935   4.702   5.860
15042SOL    HW246960   5.950   4.852   5.849
15043SOL     OW46961   9.058   8.089   9.429
15043SOL    HW146962   9.040   8.059   9.340
15043SOL    HW246963   9.038   8.182   9.427
15044SOL     OW46964   5.211   7.775  10.852
15044SOL    HW146965   5.121   7.809  10.854
15044SOL    HW246966   5.257   7.825  10.919
15045SOL     OW46967   1.805   9.307   5.464
15045SOL    HW146968   1.842   9.231   5.419
15045SOL    HW246969   1.860   9.380   5.435
15046SOL     OW46970  11.447   2.639   4.751
15046SOL    HW146971  11.404   2.691   4.818
15046SOL    HW246972  11.518   2.594   4.796
15047SOL     OW46973  14.517   5.489   1.652
15047SOL    HW146974  14.607   5.492   1.686
15047SOL    HW246975  14.523   5.431   1.576
15048SOL     OW46976   4.173   5.184   0.611
15048SOL    HW146977   4.095   5.225   0.649
15048SOL    HW246978   4.245   5.215   0.665
15049SOL     OW46979   4.732   8.242  10.888
15049SOL    HW146980   4.726   8.151  10.917
15049SOL    HW246981   4.784   8.239  10.808
15050SOL     OW46982   3.052  13.162   5.034
15050SOL    HW146983   2.963  13.126   5.036
15050SOL    HW246984   3.044  13.246   5.079
15051SOL     OW46985   2.691  12.545   1.604
15051SOL    HW146986   2.603  12.563   1.638
15051SOL    HW246987   2.718  12.464   1.648
15052SOL     OW46988  10.943  13.792  11.524
15052SOL    HW146989  10.969  13.705  11.555
15052SOL    HW246990  10.873  13.776  11.461
15053SOL     OW46991  10.611  12.700  13.114
15053SOL    HW146992  10.563  12.620  13.092
15053SOL    HW246993  10.546  12.770  13.107
15054SOL     OW46994   8.194   1.109  12.541
15054SOL    HW146995   8.162   1.019  12.552
15054SOL    HW246996   8.116   1.164  12.547
15055SOL     OW46997   2.985   6.753   1.764
15055SOL    HW146998   2.900   6.754   1.808
15055SOL    HW246999   2.967   6.787   1.676
15056SOL     OW47000  12.606   5.172   2.054
15056SOL    HW147001  12.665   5.245   2.039
15056SOL    HW247002  12.559   5.162   1.972
15057SOL     OW47003   8.002   0.916   4.167
15057SOL    HW147004   7.945   0.904   4.091
15057SOL    HW247005   8.029   1.008   4.162
15058SOL     OW47006   8.438   5.697   9.613
15058SOL    HW147007   8.405   5.778   9.574
15058SOL    HW247008   8.517   5.677   9.563
15059SOL     OW47009  10.790   5.511   6.467
15059SOL    HW147010  10.792   5.606   6.474
15059SOL    HW247011  10.701   5.488   6.493
15060SOL     OW47012  12.385   0.060  14.051
15060SOL    HW147013  12.355   0.100  14.133
15060SOL    HW247014  12.469   0.102  14.034
15061SOL     OW47015   2.990   5.258   7.747
15061SOL    HW147016   3.050   5.196   7.790
15061SOL    HW247017   3.035   5.342   7.754
15062SOL     OW47018   1.227  11.555   4.677
15062SOL    HW147019   1.279  11.591   4.606
15062SOL    HW247020   1.137  11.555   4.643
15063SOL     OW47021   3.708  14.556  12.441
15063SOL    HW147022   3.769  14.485  12.460
15063SOL    HW247023   3.690  14.596  12.526
15064SOL     OW47024  13.671   4.432   0.019
15064SOL    HW147025  13.580   4.463   0.021
15064SOL    HW247026  13.716   4.490   0.081
15065SOL     OW47027  13.414  11.972   1.446
15065SOL    HW147028  13.469  11.991   1.522
15065SOL    HW247029  13.326  11.961   1.482
15066SOL     OW47030   6.929  11.347   1.553
15066SOL    HW147031   6.909  11.439   1.569
15066SOL    HW247032   7.003  11.328   1.611
15067SOL     OW47033   4.578   7.362   1.354
15067SOL    HW147034   4.511   7.381   1.289
15067SOL    HW247035   4.559   7.272   1.381
15068SOL     OW47036   4.411   1.978   1.252
15068SOL    HW147037   4.482   1.920   1.279
15068SOL    HW247038   4.448   2.066   1.255
15069SOL     OW47039  12.468   3.413  13.482
15069SOL    HW147040  12.543   3.366  13.444
15069SOL    HW247041  12.508   3.480  13.537
15070SOL     OW47042  14.050   9.850   1.362
15070SOL    HW147043  14.088   9.926   1.318
15070SOL    HW247044  14.104   9.777   1.334
15071SOL     OW47045  11.152   4.500   4.303
15071SOL    HW147046  11.243   4.500   4.334
15071SOL    HW247047  11.124   4.409   4.311
15072SOL     OW47048  13.743   8.340   4.697
15072SOL    HW147049  13.787   8.401   4.756
15072SOL    HW247050  13.795   8.341   4.617
15073SOL     OW47051   8.266  12.221  11.264
15073SOL    HW147052   8.303  12.161  11.199
15073SOL    HW247053   8.318  12.301  11.255
15074SOL     OW47054  13.632   6.061   9.981
15074SOL    HW147055  13.544   6.095   9.970
15074SOL    HW247056  13.660   6.036   9.893
15075SOL     OW47057   5.893   4.370   5.725
15075SOL    HW147058   5.843   4.439   5.767
15075SOL    HW247059   5.827   4.313   5.685
15076SOL     OW47060   1.106   1.404  11.341
15076SOL    HW147061   1.163   1.443  11.408
15076SOL    HW247062   1.024   1.387  11.386
15077SOL     OW47063   9.764   2.320  13.261
15077SOL    HW147064   9.835   2.384  13.264
15077SOL    HW247065   9.798   2.250  13.205
15078SOL     OW47066  12.122  11.886  14.615
15078SOL    HW147067  12.094  11.959  14.560
15078SOL    HW247068  12.042  11.837  14.633
15079SOL     OW47069   9.994   5.499   9.115
15079SOL    HW147070   9.935   5.451   9.174
15079SOL    HW247071   9.935   5.543   9.054
15080SOL     OW47072   2.263  10.019  13.926
15080SOL    HW147073   2.210   9.991  13.851
15080SOL    HW247074   2.323   9.946  13.943
15081SOL     OW47075  10.999   1.409   3.256
15081SOL    HW147076  11.025   1.367   3.338
15081SOL    HW247077  11.022   1.345   3.188
15082SOL     OW47078  14.523  10.589   1.571
15082SOL    HW147079  14.455  10.541   1.524
15082SOL    HW247080  14.592  10.603   1.507
15083SOL     OW47081  14.146   2.156   3.005
15083SOL    HW147082  14.128   2.063   3.022
15083SOL    HW247083  14.199   2.184   3.079
15084SOL     OW47084   5.733   5.889   0.302
15084SOL    HW147085   5.760   5.976   0.332
15084SOL    HW247086   5.814   5.848   0.272
15085SOL     OW47087   1.258   0.736   5.038
15085SOL    HW147088   1.189   0.688   4.994
15085SOL    HW247089   1.265   0.697   5.124
15086SOL     OW47090   2.265   7.662  12.884
15086SOL    HW147091   2.332   7.620  12.830
15086SOL    HW247092   2.192   7.677  12.824
15087SOL     OW47093   8.684   4.168   8.763
15087SOL    HW147094   8.644   4.124   8.689
15087SOL    HW247095   8.649   4.257   8.761
15088SOL     OW47096   0.797   5.041   1.574
15088SOL    HW147097   0.730   4.985   1.536
15088SOL    HW247098   0.835   4.989   1.645
15089SOL     OW47099   2.519   6.134   3.343
15089SOL    HW147100   2.555   6.057   3.389
15089SOL    HW247101   2.584   6.202   3.356
15090SOL     OW47102  13.548   6.864   7.040
15090SOL    HW147103  13.496   6.927   7.090
15090SOL    HW247104  13.489   6.835   6.970
15091SOL     OW47105  12.964   6.301   8.921
15091SOL    HW147106  12.930   6.299   8.832
15091SOL    HW247107  12.929   6.222   8.962
15092SOL     OW47108  10.284   2.125  12.689
15092SOL    HW147109  10.327   2.210  12.675
15092SOL    HW247110  10.231   2.137  12.768
15093SOL     OW47111  10.064   3.663   5.703
15093SOL    HW147112  10.137   3.724   5.695
15093SOL    HW247113   9.988   3.712   5.670
15094SOL     OW47114   1.500   0.588   5.114
15094SOL    HW147115   1.455   0.607   5.032
15094SOL    HW247116   1.497   0.493   5.123
15095SOL     OW47117  12.003   9.427  13.358
15095SOL    HW147118  12.036   9.499  13.411
15095SOL    HW247119  12.081   9.389  13.317
15096SOL     OW47120   7.231   1.179  14.819
15096SOL    HW147121   7.171   1.229   0.002
15096SOL    HW247122   7.174   1.141  14.751
15097SOL     OW47123   0.483   1.045   0.930
15097SOL    HW147124   0.542   1.058   1.004
15097SOL    HW247125   0.409   1.102   0.947
15098SOL     OW47126   7.065   3.661   0.446
15098SOL    HW147127   6.997   3.689   0.385
15098SOL    HW247128   7.107   3.743   0.473
15099SOL     OW47129   8.432   2.197   5.436
15099SOL    HW147130   8.367   2.127   5.432
15099SOL    HW247131   8.516   2.153   5.422
15100SOL     OW47132   8.884  14.053   1.833
15100SOL    HW147133   8.924  14.122   1.886
15100SOL    HW247134   8.904  13.973   1.880
15101SOL     OW47135  10.609  11.148   4.635
15101SOL    HW147136  10.577  11.196   4.559
15101SOL    HW247137  10.663  11.211   4.682
15102SOL     OW47138   1.476  10.768   8.424
15102SOL    HW147139   1.427  10.725   8.355
15102SOL    HW247140   1.423  10.844   8.448
15103SOL     OW47141   2.180  14.605  12.603
15103SOL    HW147142   2.147  14.694  12.593
15103SOL    HW247143   2.273  14.612  12.583
15104SOL     OW47144   0.673   9.967   4.052
15104SOL    HW147145   0.578   9.977   4.045
15104SOL    HW247146   0.706  10.057   4.055
15105SOL     OW47147   9.845  14.145  12.297
15105SOL    HW147148   9.835  14.169  12.389
15105SOL    HW247149   9.927  14.186  12.271
15106SOL     OW47150   1.958   0.272   1.457
15106SOL    HW147151   2.005   0.252   1.537
15106SOL    HW247152   1.962   0.368   1.450
15107SOL     OW47153  12.320   9.362   6.072
15107SOL    HW147154  12.232   9.328   6.089
15107SOL    HW247155  12.347   9.319   5.991
15108SOL     OW47156  14.063   6.481  11.611
15108SOL    HW147157  14.053   6.430  11.692
15108SOL    HW247158  14.113   6.423  11.553
15109SOL     OW47159  13.508   9.566   6.334
15109SOL    HW147160  13.524   9.658   6.355
15109SOL    HW247161  13.413   9.560   6.325
15110SOL     OW47162   4.557  11.506  11.733
15110SOL    HW147163   4.630  11.553  11.774
15110SOL    HW247164   4.488  11.573  11.726
15111SOL     OW47165   7.001   7.089   9.990
15111SOL    HW147166   7.059   7.066   9.917
15111SOL    HW247167   7.044   7.164  10.032
15112SOL     OW47168  11.133   5.307   8.288
15112SOL    HW147169  11.087   5.323   8.370
15112SOL    HW247170  11.130   5.212   8.277
15113SOL     OW47171   1.741   7.485   5.693
15113SOL    HW147172   1.657   7.465   5.652
15113SOL    HW247173   1.781   7.399   5.709
15114SOL     OW47174   5.088  11.871  12.772
15114SOL    HW147175   5.025  11.929  12.729
15114SOL    HW247176   5.063  11.872  12.864
15115SOL     OW47177   7.611  13.325  12.277
15115SOL    HW147178   7.534  13.363  12.319
15115SOL    HW247179   7.664  13.400  12.252
15116SOL     OW47180   7.239  11.070   7.551
15116SOL    HW147181   7.317  11.110   7.512
15116SOL    HW247182   7.197  11.141   7.599
15117SOL     OW47183  14.408   1.650  12.851
15117SOL    HW147184  14.367   1.735  12.866
15117SOL    HW247185  14.338   1.587  12.867
15118SOL     OW47186  11.946   7.656   0.781
15118SOL    HW147187  12.022   7.656   0.840
15118SOL    HW247188  11.888   7.722   0.817
15119SOL     OW47189   1.191   9.757   1.835
15119SOL    HW147190   1.126   9.824   1.813
15119SOL    HW247191   1.147   9.698   1.895
15120SOL     OW47192  12.972  12.648   6.810
15120SOL    HW147193  12.889  12.604   6.826
15120SOL    HW247194  12.963  12.733   6.852
15121SOL     OW47195  14.661  12.442   0.461
15121SOL    HW147196  14.699  12.375   0.518
15121SOL    HW247197  14.578  12.405   0.433
15122SOL     OW47198   8.057   3.817   0.331
15122SOL    HW147199   8.087   3.817   0.422
15122SOL    HW247200   8.006   3.898   0.323
15123SOL     OW47201   5.022   6.649  11.572
15123SOL    HW147202   4.929   6.670  11.563
15123SOL    HW247203   5.064   6.698  11.502
15124SOL     OW47204   5.692   0.259   4.382
15124SOL    HW147205   5.650   0.174   4.396
15124SOL    HW247206   5.638   0.321   4.432
15125SOL     OW47207   0.930   4.106   8.542
15125SOL    HW147208   0.910   4.184   8.595
15125SOL    HW247209   0.933   4.138   8.452
15126SOL     OW47210  11.130  13.587   1.976
15126SOL    HW147211  11.195  13.521   2.000
15126SOL    HW247212  11.182  13.667   1.960
15127SOL     OW47213   0.367  14.751   7.274
15127SOL    HW147214   0.322  14.715   7.350
15127SOL    HW247215   0.380  14.676   7.216
15128SOL     OW47216   0.510  12.226   4.733
15128SOL    HW147217   0.530  12.223   4.640
15128SOL    HW247218   0.496  12.319   4.752
15129SOL     OW47219   9.881  13.579  12.144
15129SOL    HW147220   9.803  13.531  12.115
15129SOL    HW247221   9.865  13.669  12.116
15130SOL     OW47222   2.197   1.117   5.460
15130SOL    HW147223   2.131   1.145   5.397
15130SOL    HW247224   2.212   1.025   5.440
15131SOL     OW47225   3.892  11.753   8.532
15131SOL    HW147226   3.842  11.737   8.613
15131SOL    HW247227   3.909  11.847   8.533
15132SOL     OW47228  11.500   0.641  11.941
15132SOL    HW147229  11.407   0.637  11.920
15132SOL    HW247230  11.544   0.645  11.856
15133SOL     OW47231  13.836   7.964   9.893
15133SOL    HW147232  13.819   8.054   9.921
15133SOL    HW247233  13.925   7.945   9.923
15134SOL     OW47234   4.501   4.114   4.287
15134SOL    HW147235   4.520   4.036   4.234
15134SOL    HW247236   4.560   4.181   4.253
15135SOL     OW47237  11.104  13.895   2.208
15135SOL    HW147238  11.137  13.967   2.263
15135SOL    HW247239  11.144  13.816   2.245
15136SOL     OW47240  13.102  11.986  13.509
15136SOL    HW147241  13.107  11.912  13.448
15136SOL    HW247242  13.103  11.946  13.596
15137SOL     OW47243   9.533   3.506   1.907
15137SOL    HW147244   9.505   3.480   1.819
15137SOL    HW247245   9.624   3.479   1.913
15138SOL     OW47246   9.399   0.932  13.587
15138SOL    HW147247   9.427   0.840  13.591
15138SOL    HW247248   9.432   0.971  13.668
15139SOL     OW47249  11.974  10.092   0.431
15139SOL    HW147250  11.930  10.143   0.499
15139SOL    HW247251  12.064  10.126   0.429
15140SOL     OW47252   0.551  14.268  11.602
15140SOL    HW147253   0.513  14.341  11.650
15140SOL    HW247254   0.623  14.237  11.658
15141SOL     OW47255   1.361  11.666   7.710
15141SOL    HW147256   1.288  11.728   7.719
15141SOL    HW247257   1.353  11.633   7.621
15142SOL     OW47258  10.711   0.314  11.301
15142SOL    HW147259  10.771   0.294  11.373
15142SOL    HW247260  10.768   0.350  11.232
15143SOL     OW47261   6.981  14.645   7.687
15143SOL    HW147262   6.985  14.686   7.600
15143SOL    HW247263   6.888  14.637   7.706
15144SOL     OW47264  12.579  14.462   9.831
15144SOL    HW147265  12.633  14.540   9.844
15144SOL    HW247266  12.626  14.393   9.877
15145SOL     OW47267   8.100  14.335   1.361
15145SOL    HW147268   8.025  14.277   1.350
15145SOL    HW247269   8.139  14.309   1.444
15146SOL     OW47270   7.051   7.546   1.835
15146SOL    HW147271   7.043   7.602   1.758
15146SOL    HW247272   7.020   7.461   1.806
15147SOL     OW47273  13.068  12.993  11.485
15147SOL    HW147274  13.139  13.026  11.540
15147SOL    HW247275  12.998  12.969  11.547
15148SOL     OW47276   1.367   3.878   9.389
15148SOL    HW147277   1.311   3.840   9.321
15148SOL    HW247278   1.308   3.900   9.460
15149SOL     OW47279   0.148   8.261  11.376
15149SOL    HW147280   0.120   8.288  11.288
15149SOL    HW247281   0.221   8.320  11.397
15150SOL     OW47282   8.329   3.004   8.062
15150SOL    HW147283   8.240   3.037   8.055
15150SOL    HW247284   8.379   3.056   7.999
15151SOL     OW47285   6.233  14.288   1.643
15151SOL    HW147286   6.268  14.368   1.604
15151SOL    HW247287   6.243  14.301   1.737
15152SOL     OW47288   2.782  12.236  12.498
15152SOL    HW147289   2.832  12.296  12.442
15152SOL    HW247290   2.849  12.186  12.544
15153SOL     OW47291   9.687   6.222   6.829
15153SOL    HW147292   9.658   6.133   6.807
15153SOL    HW247293   9.769   6.233   6.782
15154SOL     OW47294  10.540  12.281   9.007
15154SOL    HW147295  10.571  12.370   8.992
15154SOL    HW247296  10.605  12.242   9.066
15155SOL     OW47297   4.737   7.833   0.317
15155SOL    HW147298   4.794   7.899   0.280
15155SOL    HW247299   4.786   7.751   0.308
15156SOL     OW47300  12.543  14.306   6.437
15156SOL    HW147301  12.525  14.371   6.505
15156SOL    HW247302  12.528  14.222   6.480
15157SOL     OW47303  13.594  11.139   4.778
15157SOL    HW147304  13.689  11.148   4.785
15157SOL    HW247305  13.567  11.210   4.720
15158SOL     OW47306  11.610  12.233  13.336
15158SOL    HW147307  11.593  12.140  13.329
15158SOL    HW247308  11.601  12.253  13.430
15159SOL     OW47309   2.023  10.371   6.549
15159SOL    HW147310   2.030  10.417   6.465
15159SOL    HW247311   2.112  10.342   6.568
15160SOL     OW47312  14.398  10.782   4.843
15160SOL    HW147313  14.339  10.825   4.781
15160SOL    HW247314  14.439  10.854   4.891
15161SOL     OW47315   1.342  11.791   6.611
15161SOL    HW147316   1.419  11.828   6.655
15161SOL    HW247317   1.334  11.842   6.530
15162SOL     OW47318  13.727   6.267   7.795
15162SOL    HW147319  13.708   6.309   7.711
15162SOL    HW247320  13.810   6.306   7.822
15163SOL     OW47321  12.909   8.618   3.921
15163SOL    HW147322  12.968   8.583   3.854
15163SOL    HW247323  12.945   8.587   4.004
15164SOL     OW47324   7.039   2.411   3.842
15164SOL    HW147325   7.111   2.474   3.846
15164SOL    HW247326   7.020   2.402   3.749
15165SOL     OW47327   7.807  14.596   5.146
15165SOL    HW147328   7.861  14.553   5.079
15165SOL    HW247329   7.855  14.676   5.168
15166SOL     OW47330  11.484  10.069   1.243
15166SOL    HW147331  11.562  10.123   1.230
15166SOL    HW247332  11.455  10.047   1.154
15167SOL     OW47333  10.109  14.607   4.360
15167SOL    HW147334  10.205  14.600   4.363
15167SOL    HW247335  10.091  14.697   4.387
15168SOL     OW47336   2.001   8.756   4.184
15168SOL    HW147337   2.043   8.718   4.107
15168SOL    HW247338   1.912   8.775   4.155
15169SOL     OW47339  13.155   1.714   6.366
15169SOL    HW147340  13.132   1.807   6.367
15169SOL    HW247341  13.240   1.711   6.322
15170SOL     OW47342   4.611   1.556  13.661
15170SOL    HW147343   4.634   1.469  13.630
15170SOL    HW247344   4.672   1.614  13.618
15171SOL     OW47345  11.908   8.313  11.134
15171SOL    HW147346  11.970   8.283  11.067
15171SOL    HW247347  11.914   8.409  11.131
15172SOL     OW47348  10.291   9.203   6.596
15172SOL    HW147349  10.365   9.159   6.554
15172SOL    HW247350  10.218   9.189   6.536
15173SOL     OW47351   8.687   4.112   7.173
15173SOL    HW147352   8.771   4.069   7.157
15173SOL    HW247353   8.662   4.149   7.088
15174SOL     OW47354   4.633   5.824  13.490
15174SOL    HW147355   4.679   5.819  13.406
15174SOL    HW247356   4.681   5.764  13.547
15175SOL     OW47357   0.829   0.098  10.775
15175SOL    HW147358   0.866   0.164  10.716
15175SOL    HW247359   0.784   0.148  10.843
15176SOL     OW47360   9.631  14.619   8.585
15176SOL    HW147361   9.718  14.581   8.574
15176SOL    HW247362   9.649  14.712   8.604
15177SOL     OW47363   0.582   2.773   4.002
15177SOL    HW147364   0.535   2.759   3.920
15177SOL    HW247365   0.579   2.867   4.016
15178SOL     OW47366   6.804  14.645  14.835
15178SOL    HW147367   6.778  14.736  14.852
15178SOL    HW247368   6.750  14.619  14.760
15179SOL     OW47369  13.501   7.363   9.412
15179SOL    HW147370  13.409   7.344   9.393
15179SOL    HW247371  13.535   7.282   9.450
15180SOL     OW47372   1.639   7.076  10.667
15180SOL    HW147373   1.642   7.042  10.578
15180SOL    HW247374   1.607   7.166  10.657
15181SOL     OW47375   9.118   4.626   1.361
15181SOL    HW147376   9.040   4.678   1.381
15181SOL    HW247377   9.097   4.539   1.393
15182SOL     OW47378  14.085  13.749  12.727
15182SOL    HW147379  14.055  13.743  12.637
15182SOL    HW247380  14.034  13.821  12.765
15183SOL     OW47381   8.311   6.585   3.268
15183SOL    HW147382   8.244   6.588   3.200
15183SOL    HW247383   8.343   6.495   3.266
15184SOL     OW47384  13.924   2.191   8.526
15184SOL    HW147385  13.981   2.232   8.591
15184SOL    HW247386  13.972   2.113   8.498
15185SOL     OW47387  14.798  11.046  12.494
15185SOL    HW147388  14.857  11.107  12.450
15185SOL    HW247389  14.741  11.101  12.547
15186SOL     OW47390   4.513  11.916   3.366
15186SOL    HW147391   4.604  11.887   3.371
15186SOL    HW247392   4.515  11.992   3.307
15187SOL     OW47393   9.856   6.277  12.353
15187SOL    HW147394   9.836   6.298  12.262
15187SOL    HW247395   9.778   6.303  12.402
15188SOL     OW47396   3.240   6.378   3.708
15188SOL    HW147397   3.210   6.404   3.795
15188SOL    HW247398   3.258   6.284   3.716
15189SOL     OW47399   4.690   1.903   2.867
15189SOL    HW147400   4.747   1.827   2.865
15189SOL    HW247401   4.615   1.876   2.919
15190SOL     OW47402   2.451  12.290   7.956
15190SOL    HW147403   2.374  12.253   7.999
15190SOL    HW247404   2.484  12.220   7.901
15191SOL     OW47405   5.410  14.437   3.273
15191SOL    HW147406   5.409  14.477   3.360
15191SOL    HW247407   5.384  14.508   3.213
15192SOL     OW47408   5.032   8.675   3.499
15192SOL    HW147409   5.091   8.734   3.453
15192SOL    HW247410   4.956   8.667   3.442
15193SOL     OW47411   6.426   8.539   3.652
15193SOL    HW147412   6.510   8.513   3.688
15193SOL    HW247413   6.372   8.557   3.729
15194SOL     OW47414   4.515   3.188   6.678
15194SOL    HW147415   4.531   3.275   6.715
15194SOL    HW247416   4.486   3.135   6.753
15195SOL     OW47417  12.200   1.411   2.440
15195SOL    HW147418  12.122   1.359   2.423
15195SOL    HW247419  12.211   1.463   2.360
15196SOL     OW47420  11.691   3.087   3.673
15196SOL    HW147421  11.681   3.036   3.754
15196SOL    HW247422  11.615   3.145   3.672
15197SOL     OW47423   4.209  12.965  13.226
15197SOL    HW147424   4.157  12.992  13.151
15197SOL    HW247425   4.296  12.948  13.190
15198SOL     OW47426  10.135  12.041   4.088
15198SOL    HW147427  10.101  11.995   4.165
15198SOL    HW247428  10.209  12.092   4.122
15199SOL     OW47429   6.717   6.267  11.097
15199SOL    HW147430   6.795   6.224  11.132
15199SOL    HW247431   6.698   6.336  11.160
15200SOL     OW47432  14.400  10.288   7.780
15200SOL    HW147433  14.352  10.206   7.786
15200SOL    HW247434  14.369  10.328   7.699
15201SOL     OW47435  11.786   9.512   7.031
15201SOL    HW147436  11.876   9.543   7.040
15201SOL    HW247437  11.778   9.440   7.094
15202SOL     OW47438  12.300   7.952   6.748
15202SOL    HW147439  12.226   7.892   6.735
15202SOL    HW247440  12.336   7.929   6.833
15203SOL     OW47441  12.933  14.619   3.983
15203SOL    HW147442  13.013  14.642   4.032
15203SOL    HW247443  12.906  14.536   4.022
15204SOL     OW47444   6.822   6.477   2.898
15204SOL    HW147445   6.736   6.448   2.868
15204SOL    HW247446   6.857   6.527   2.825
15205SOL     OW47447  12.251   4.323  12.904
15205SOL    HW147448  12.186   4.362  12.846
15205SOL    HW247449  12.279   4.243  12.860
15206SOL     OW47450  10.991   0.580  13.466
15206SOL    HW147451  10.966   0.500  13.419
15206SOL    HW247452  10.988   0.556  13.558
15207SOL     OW47453   0.134   3.782   4.683
15207SOL    HW147454   0.164   3.735   4.761
15207SOL    HW247455   0.112   3.712   4.621
15208SOL     OW47456   5.004  13.915  11.185
15208SOL    HW147457   4.955  13.837  11.160
15208SOL    HW247458   4.939  13.970  11.229
15209SOL     OW47459   2.827   1.897   7.736
15209SOL    HW147460   2.783   1.869   7.817
15209SOL    HW247461   2.756   1.904   7.672
15210SOL     OW47462   1.050   4.927   4.650
15210SOL    HW147463   1.043   5.008   4.600
15210SOL    HW247464   0.985   4.938   4.720
15211SOL     OW47465  11.106   2.615   2.575
15211SOL    HW147466  11.019   2.576   2.566
15211SOL    HW247467  11.144   2.571   2.651
15212SOL     OW47468   5.002   3.467   5.859
15212SOL    HW147469   5.028   3.483   5.950
15212SOL    HW247470   4.953   3.546   5.834
15213SOL     OW47471   0.050   7.282   4.844
15213SOL    HW147472   0.022   7.190   4.842
15213SOL    HW247473   0.145   7.278   4.848
15214SOL     OW47474  12.684   6.811   4.555
15214SOL    HW147475  12.734   6.890   4.532
15214SOL    HW247476  12.751   6.742   4.564
15215SOL     OW47477   5.092  11.663   2.626
15215SOL    HW147478   5.013  11.661   2.680
15215SOL    HW247479   5.072  11.607   2.552
15216SOL     OW47480   9.244   8.040  11.550
15216SOL    HW147481   9.180   8.110  11.536
15216SOL    HW247482   9.199   7.960  11.523
15217SOL     OW47483  12.505  10.407   9.829
15217SOL    HW147484  12.468  10.372   9.748
15217SOL    HW247485  12.437  10.393   9.894
15218SOL     OW47486  10.057   8.007   7.572
15218SOL    HW147487  10.099   8.092   7.560
15218SOL    HW247488  10.011   8.014   7.655
15219SOL     OW47489   0.586   1.643  11.467
15219SOL    HW147490   0.593   1.578  11.537
15219SOL    HW247491   0.564   1.724  11.512
15220SOL     OW47492  13.674  10.399  10.448
15220SOL    HW147493  13.706  10.420  10.536
15220SOL    HW247494  13.588  10.440  10.443
15221SOL     OW47495  11.078   5.616   1.080
15221SOL    HW147496  11.010   5.578   1.135
15221SOL    HW247497  11.043   5.701   1.052
15222SOL     OW47498   5.363   1.177   9.858
15222SOL    HW147499   5.352   1.272   9.862
15222SOL    HW247500   5.313   1.151   9.781
15223SOL     OW47501  13.650   2.086  10.907
15223SOL    HW147502  13.655   2.079  11.002
15223SOL    HW247503  13.579   2.148  10.890
15224SOL     OW47504  10.766   2.406   7.242
15224SOL    HW147505  10.770   2.499   7.219
15224SOL    HW247506  10.730   2.404   7.330
15225SOL     OW47507   1.198   4.643  10.850
15225SOL    HW147508   1.209   4.552  10.820
15225SOL    HW247509   1.270   4.657  10.912
15226SOL     OW47510   5.613   7.997  11.263
15226SOL    HW147511   5.653   8.074  11.222
15226SOL    HW247512   5.560   8.033  11.334
15227SOL     OW47513  14.265   1.135   5.543
15227SOL    HW147514  14.183   1.164   5.583
15227SOL    HW247515  14.239   1.064   5.484
15228SOL     OW47516  13.310   3.133  14.024
15228SOL    HW147517  13.389   3.155  14.073
15228SOL    HW247518  13.303   3.201  13.957
15229SOL     OW47519   5.176  11.222   4.529
15229SOL    HW147520   5.090  11.253   4.500
15229SOL    HW247521   5.235  11.295   4.510
15230SOL     OW47522   2.870   5.055   0.513
15230SOL    HW147523   2.775   5.067   0.519
15230SOL    HW247524   2.886   4.967   0.546
15231SOL     OW47525  11.312   0.558  10.049
15231SOL    HW147526  11.230   0.533  10.092
15231SOL    HW247527  11.379   0.544  10.116
15232SOL     OW47528   0.044   8.399  14.386
15232SOL    HW147529  14.867   8.474  14.417
15232SOL    HW247530   0.134   8.432  14.380
15233SOL     OW47531   0.692  11.921   5.361
15233SOL    HW147532   0.681  11.910   5.455
15233SOL    HW247533   0.715  11.834   5.328
15234SOL     OW47534   8.738   1.240  12.928
15234SOL    HW147535   8.736   1.243  12.832
15234SOL    HW247536   8.822   1.280  12.952
15235SOL     OW47537   0.683   1.053  12.707
15235SOL    HW147538   0.732   1.007  12.776
15235SOL    HW247539   0.593   1.056  12.740
15236SOL     OW47540   7.942  10.272  11.289
15236SOL    HW147541   7.880  10.277  11.217
15236SOL    HW247542   7.947  10.178  11.310
15237SOL     OW47543   9.701   9.231   8.757
15237SOL    HW147544   9.624   9.217   8.812
15237SOL    HW247545   9.762   9.279   8.813
15238SOL     OW47546  13.367  13.079   6.338
15238SOL    HW147547  13.307  13.131   6.284
15238SOL    HW247548  13.454  13.101   6.304
15239SOL     OW47549   9.590   3.227   4.566
15239SOL    HW147550   9.585   3.271   4.651
15239SOL    HW247551   9.531   3.278   4.509
15240SOL     OW47552   1.294  13.503  11.684
15240SOL    HW147553   1.211  13.473  11.648
15240SOL    HW247554   1.346  13.526  11.607
15241SOL     OW47555  12.911  10.949   6.112
15241SOL    HW147556  12.905  10.949   6.016
15241SOL    HW247557  12.970  10.877   6.132
15242SOL     OW47558  14.616   7.003  11.427
15242SOL    HW147559  14.616   6.908  11.413
15242SOL    HW247560  14.523   7.026  11.437
15243SOL     OW47561  14.507  10.683   5.752
15243SOL    HW147562  14.578  10.743   5.728
15243SOL    HW247563  14.522  10.606   5.697
15244SOL     OW47564  14.789  14.158  12.979
15244SOL    HW147565   0.004  14.139  12.944
15244SOL    HW247566  14.778  14.252  12.966
15245SOL     OW47567   9.524  12.599   6.496
15245SOL    HW147568   9.613  12.573   6.521
15245SOL    HW247569   9.480  12.617   6.579
15246SOL     OW47570  10.901  14.789   2.890
15246SOL    HW147571  10.972  14.726   2.876
15246SOL    HW247572  10.861  14.801   2.804
15247SOL     OW47573  13.757  13.732   1.911
15247SOL    HW147574  13.823  13.775   1.856
15247SOL    HW247575  13.801  13.653   1.944
15248SOL     OW47576   9.704   7.372   2.954
15248SOL    HW147577   9.691   7.420   2.873
15248SOL    HW247578   9.682   7.435   3.023
15249SOL     OW47579  10.658   9.585   3.250
15249SOL    HW147580  10.661   9.509   3.193
15249SOL    HW247581  10.576   9.629   3.227
15250SOL     OW47582  12.996   6.507  11.875
15250SOL    HW147583  12.921   6.481  11.820
15250SOL    HW247584  13.022   6.592  11.840
15251SOL     OW47585   4.459   1.992  10.755
15251SOL    HW147586   4.406   1.942  10.816
15251SOL    HW247587   4.495   2.064  10.807
15252SOL     OW47588   1.072   8.615   3.384
15252SOL    HW147589   1.154   8.579   3.420
15252SOL    HW247590   1.048   8.684   3.446
15253SOL     OW47591   1.517   0.328   7.467
15253SOL    HW147592   1.425   0.304   7.459
15253SOL    HW247593   1.526   0.408   7.416
15254SOL     OW47594  10.966  12.629   4.246
15254SOL    HW147595  10.877  12.631   4.210
15254SOL    HW247596  10.986  12.721   4.265
15255SOL     OW47597   3.467   8.907  14.142
15255SOL    HW147598   3.560   8.929  14.137
15255SOL    HW247599   3.432   8.931  14.056
15256SOL     OW47600   1.210   9.537   3.638
15256SOL    HW147601   1.195   9.450   3.601
15256SOL    HW247602   1.284   9.525   3.697
15257SOL     OW47603   5.983   7.783  14.026
15257SOL    HW147604   6.071   7.760  13.995
15257SOL    HW247605   5.926   7.717  13.985
15258SOL     OW47606   6.865   5.020  11.559
15258SOL    HW147607   6.897   4.934  11.532
15258SOL    HW247608   6.872   5.074  11.480
15259SOL     OW47609  10.124   3.499   1.418
15259SOL    HW147610  10.101   3.592   1.423
15259SOL    HW247611  10.219   3.497   1.406
15260SOL     OW47612   1.914  11.330  11.532
15260SOL    HW147613   1.916  11.327  11.628
15260SOL    HW247614   1.839  11.275  11.508
15261SOL     OW47615   4.214   9.406   9.419
15261SOL    HW147616   4.165   9.374   9.342
15261SOL    HW247617   4.174   9.360   9.493
15262SOL     OW47618   6.348   8.227   7.897
15262SOL    HW147619   6.267   8.185   7.868
15262SOL    HW247620   6.391   8.253   7.816
15263SOL     OW47621   4.927   2.513   5.940
15263SOL    HW147622   4.879   2.458   6.001
15263SOL    HW247623   5.011   2.469   5.929
15264SOL     OW47624   2.975  10.822  10.816
15264SOL    HW147625   2.989  10.813  10.722
15264SOL    HW247626   2.927  10.743  10.841
15265SOL     OW47627   3.987  13.591   5.316
15265SOL    HW147628   4.026  13.678   5.308
15265SOL    HW247629   3.927  13.585   5.241
15266SOL     OW47630   4.366  13.009   6.188
15266SOL    HW147631   4.425  13.083   6.177
15266SOL    HW247632   4.339  12.987   6.098
15267SOL     OW47633   7.029   5.547   2.528
15267SOL    HW147634   7.070   5.462   2.546
15267SOL    HW247635   7.005   5.581   2.614
15268SOL     OW47636  13.582   7.061   3.021
15268SOL    HW147637  13.520   7.128   2.992
15268SOL    HW247638  13.665   7.086   2.981
15269SOL     OW47639  11.596   9.559   3.116
15269SOL    HW147640  11.688   9.557   3.142
15269SOL    HW247641  11.567   9.468   3.121
15270SOL     OW47642   3.531   2.538   4.654
15270SOL    HW147643   3.457   2.523   4.713
15270SOL    HW247644   3.504   2.499   4.571
15271SOL     OW47645  14.307   3.417   2.876
15271SOL    HW147646  14.389   3.395   2.833
15271SOL    HW247647  14.244   3.428   2.805
15272SOL     OW47648   9.462  10.047   6.987
15272SOL    HW147649   9.369  10.037   7.009
15272SOL    HW247650   9.508  10.020   7.067
15273SOL     OW47651   2.759   2.144   3.599
15273SOL    HW147652   2.690   2.211   3.593
15273SOL    HW247653   2.746   2.104   3.685
15274SOL     OW47654   7.377  10.279   8.319
15274SOL    HW147655   7.403  10.327   8.398
15274SOL    HW247656   7.454  10.227   8.296
15275SOL     OW47657   9.167   1.523  10.291
15275SOL    HW147658   9.244   1.500  10.239
15275SOL    HW247659   9.191   1.499  10.380
15276SOL     OW47660   6.352   9.192   6.946
15276SOL    HW147661   6.298   9.168   7.022
15276SOL    HW247662   6.323   9.134   6.876
15277SOL     OW47663   0.783  11.992   4.476
15277SOL    HW147664   0.860  11.937   4.486
15277SOL    HW247665   0.747  12.000   4.564
15278SOL     OW47666  13.164   4.333   6.587
15278SOL    HW147667  13.247   4.339   6.634
15278SOL    HW247668  13.162   4.411   6.531
15279SOL     OW47669  12.251  12.141   5.188
15279SOL    HW147670  12.342  12.171   5.190
15279SOL    HW247671  12.210  12.187   5.261
15280SOL     OW47672   7.468  11.735   5.165
15280SOL    HW147673   7.559  11.726   5.138
15280SOL    HW247674   7.448  11.828   5.153
15281SOL     OW47675   4.715   3.389   3.376
15281SOL    HW147676   4.642   3.434   3.333
15281SOL    HW247677   4.752   3.455   3.435
15282SOL     OW47678   5.164  14.305   9.711
15282SOL    HW147679   5.220  14.228   9.710
15282SOL    HW247680   5.149  14.325   9.619
15283SOL     OW47681  14.619   2.859   5.477
15283SOL    HW147682  14.669   2.934   5.443
15283SOL    HW247683  14.622   2.869   5.572
15284SOL     OW47684   0.400  14.142   2.152
15284SOL    HW147685   0.465  14.075   2.132
15284SOL    HW247686   0.359  14.112   2.234
15285SOL     OW47687  14.191   9.938  10.594
15285SOL    HW147688  14.148  10.022  10.582
15285SOL    HW247689  14.229   9.942  10.682
15286SOL     OW47690   1.798  13.540   3.472
15286SOL    HW147691   1.812  13.592   3.393
15286SOL    HW247692   1.754  13.461   3.442
15287SOL     OW47693   2.280   6.995  11.450
15287SOL    HW147694   2.255   7.035  11.367
15287SOL    HW247695   2.299   7.069  11.508
15288SOL     OW47696   6.665   9.471  12.064
15288SOL    HW147697   6.724   9.429  12.001
15288SOL    HW247698   6.579   9.470  12.020
15289SOL     OW47699  13.623   1.266   7.001
15289SOL    HW147700  13.605   1.342   6.946
15289SOL    HW247701  13.713   1.242   6.979
15290SOL     OW47702  10.053   7.385   7.374
15290SOL    HW147703  10.057   7.400   7.279
15290SOL    HW247704   9.970   7.340   7.387
15291SOL     OW47705   9.441   9.796   2.821
15291SOL    HW147706   9.367   9.780   2.763
15291SOL    HW247707   9.420   9.878   2.865
15292SOL     OW47708  10.434   1.926   1.534
15292SOL    HW147709  10.347   1.888   1.535
15292SOL    HW247710  10.486   1.867   1.480
15293SOL     OW47711  10.779  14.081  10.565
15293SOL    HW147712  10.852  14.111  10.619
15293SOL    HW247713  10.706  14.071  10.627
15294SOL     OW47714   8.598   1.012  11.883
15294SOL    HW147715   8.516   0.969  11.906
15294SOL    HW247716   8.593   1.026  11.789
15295SOL     OW47717   4.903  12.612   5.843
15295SOL    HW147718   4.937  12.585   5.757
15295SOL    HW247719   4.958  12.565   5.906
15296SOL     OW47720  11.762   7.183   4.751
15296SOL    HW147721  11.712   7.237   4.812
15296SOL    HW247722  11.801   7.245   4.690
15297SOL     OW47723   3.031   1.469   7.291
15297SOL    HW147724   3.033   1.493   7.383
15297SOL    HW247725   3.120   1.484   7.260
15298SOL     OW47726   9.746   1.581  13.277
15298SOL    HW147727   9.746   1.663  13.226
15298SOL    HW247728   9.830   1.540  13.256
15299SOL     OW47729  12.693   3.391   1.391
15299SOL    HW147730  12.653   3.423   1.472
15299SOL    HW247731  12.632   3.325   1.359
15300SOL     OW47732   4.257   8.287  12.548
15300SOL    HW147733   4.334   8.255  12.500
15300SOL    HW247734   4.185   8.231  12.518
15301SOL     OW47735   5.773  14.776  14.338
15301SOL    HW147736   5.741  14.826  14.413
15301SOL    HW247737   5.813  14.842  14.281
15302SOL     OW47738   6.080   0.477   3.605
15302SOL    HW147739   6.099   0.384   3.596
15302SOL    HW247740   6.151   0.511   3.659
15303SOL     OW47741   3.552   3.562   6.073
15303SOL    HW147742   3.599   3.604   6.001
15303SOL    HW247743   3.620   3.521   6.126
15304SOL     OW47744   9.565   6.466  11.074
15304SOL    HW147745   9.579   6.538  11.012
15304SOL    HW247746   9.653   6.443  11.103
15305SOL     OW47747  11.865   9.587   0.007
15305SOL    HW147748  11.959   9.604   0.006
15305SOL    HW247749  11.841   9.594   0.100
15306SOL     OW47750   5.855   3.219  11.540
15306SOL    HW147751   5.894   3.294  11.585
15306SOL    HW247752   5.808   3.258  11.465
15307SOL     OW47753   1.161  10.223  11.176
15307SOL    HW147754   1.120  10.308  11.194
15307SOL    HW247755   1.091  10.159  11.193
15308SOL     OW47756   8.846   6.920  11.676
15308SOL    HW147757   8.820   6.866  11.751
15308SOL    HW247758   8.763   6.950  11.638
15309SOL     OW47759   7.245   1.480  14.157
15309SOL    HW147760   7.274   1.507  14.244
15309SOL    HW247761   7.237   1.384  14.163
15310SOL     OW47762   1.539  12.965   2.142
15310SOL    HW147763   1.533  12.999   2.231
15310SOL    HW247764   1.525  12.871   2.150
15311SOL     OW47765   8.847  12.515  12.532
15311SOL    HW147766   8.769  12.568  12.545
15311SOL    HW247767   8.816  12.437  12.485
15312SOL     OW47768  13.216   1.572   8.387
15312SOL    HW147769  13.128   1.570   8.422
15312SOL    HW247770  13.271   1.536   8.457
15313SOL     OW47771  13.949   3.125  12.731
15313SOL    HW147772  14.039   3.152  12.714
15313SOL    HW247773  13.897   3.204  12.716
15314SOL     OW47774  14.265   9.696  13.114
15314SOL    HW147775  14.344   9.745  13.093
15314SOL    HW247776  14.204   9.761  13.149
15315SOL     OW47777  11.715   7.411   7.058
15315SOL    HW147778  11.725   7.503   7.081
15315SOL    HW247779  11.627   7.404   7.020
15316SOL     OW47780   6.206   8.893   0.471
15316SOL    HW147781   6.277   8.951   0.498
15316SOL    HW247782   6.127   8.946   0.482
15317SOL     OW47783   1.696  12.002  11.211
15317SOL    HW147784   1.605  11.983  11.234
15317SOL    HW247785   1.690  12.052  11.130
15318SOL     OW47786   2.646   5.259  14.460
15318SOL    HW147787   2.686   5.228  14.542
15318SOL    HW247788   2.720   5.280  14.404
15319SOL     OW47789  13.071   3.014   9.940
15319SOL    HW147790  13.079   2.970  10.025
15319SOL    HW247791  12.978   3.034   9.931
15320SOL     OW47792   8.420   3.129   9.185
15320SOL    HW147793   8.385   3.135   9.274
15320SOL    HW247794   8.345   3.145   9.129
15321SOL     OW47795   2.127   7.386   9.064
15321SOL    HW147796   2.135   7.378   8.969
15321SOL    HW247797   2.214   7.412   9.094
15322SOL     OW47798  14.507  11.322   6.359
15322SOL    HW147799  14.533  11.335   6.450
15322SOL    HW247800  14.588  11.294   6.315
15323SOL     OW47801   6.361  11.082   4.839
15323SOL    HW147802   6.378  11.013   4.775
15323SOL    HW247803   6.360  11.163   4.787
15324SOL     OW47804   2.858   6.864   6.864
15324SOL    HW147805   2.873   6.790   6.806
15324SOL    HW247806   2.911   6.845   6.941
15325SOL     OW47807   5.501   0.848   9.358
15325SOL    HW147808   5.575   0.887   9.404
15325SOL    HW247809   5.436   0.831   9.427
15326SOL     OW47810   2.647  12.729  13.717
15326SOL    HW147811   2.574  12.776  13.677
15326SOL    HW247812   2.721  12.747  13.660
15327SOL     OW47813   8.492   8.752   9.753
15327SOL    HW147814   8.426   8.816   9.782
15327SOL    HW247815   8.523   8.785   9.669
15328SOL     OW47816  11.346   4.403  12.138
15328SOL    HW147817  11.419   4.341  12.133
15328SOL    HW247818  11.320   4.402  12.230
15329SOL     OW47819   9.213   5.168  11.524
15329SOL    HW147820   9.184   5.223  11.596
15329SOL    HW247821   9.147   5.179  11.456
15330SOL     OW47822   6.854   8.725  10.039
15330SOL    HW147823   6.856   8.799  10.100
15330SOL    HW247824   6.764   8.724  10.007
15331SOL     OW47825   7.419   1.667   8.687
15331SOL    HW147826   7.326   1.681   8.704
15331SOL    HW247827   7.458   1.754   8.695
15332SOL     OW47828   0.237   0.222   8.462
15332SOL    HW147829   0.171   0.197   8.527
15332SOL    HW247830   0.308   0.159   8.475
15333SOL     OW47831  10.461   1.843   9.822
15333SOL    HW147832  10.521   1.779   9.783
15333SOL    HW247833  10.375   1.803   9.815
15334SOL     OW47834   4.993   9.392  13.779
15334SOL    HW147835   4.989   9.341  13.698
15334SOL    HW247836   5.026   9.330  13.844
15335SOL     OW47837   0.001   3.393  12.804
15335SOL    HW147838  14.794   3.401  12.855
15335SOL    HW247839   0.016   3.299  12.796
15336SOL     OW47840   8.056  10.775   2.264
15336SOL    HW147841   7.986  10.735   2.212
15336SOL    HW247842   8.117  10.808   2.199
15337SOL     OW47843   5.271   3.543  12.713
15337SOL    HW147844   5.303   3.587  12.635
15337SOL    HW247845   5.256   3.452  12.685
15338SOL     OW47846   8.630   3.848   8.837
15338SOL    HW147847   8.625   3.883   8.926
15338SOL    HW247848   8.698   3.781   8.842
15339SOL     OW47849  14.655  10.461  13.260
15339SOL    HW147850  14.663  10.549  13.298
15339SOL    HW247851  14.566  10.435  13.279
15340SOL     OW47852   5.340   2.915   5.242
15340SOL    HW147853   5.320   2.984   5.306
15340SOL    HW247854   5.257   2.898   5.198
15341SOL     OW47855   1.730   7.517   8.047
15341SOL    HW147856   1.695   7.601   8.019
15341SOL    HW247857   1.697   7.455   7.982
15342SOL     OW47858  12.969   4.138   6.620
15342SOL    HW147859  12.952   4.117   6.528
15342SOL    HW247860  13.034   4.209   6.617
15343SOL     OW47861   9.731   6.911  14.748
15343SOL    HW147862   9.766   6.838  14.799
15343SOL    HW247863   9.639   6.890  14.737
15344SOL     OW47864  11.739   1.327   1.482
15344SOL    HW147865  11.662   1.276   1.456
15344SOL    HW247866  11.769   1.369   1.401
15345SOL     OW47867   7.912  14.847   5.220
15345SOL    HW147868   7.949   0.014   5.141
15345SOL    HW247869   7.985  14.844   5.282
15346SOL     OW47870  14.420   9.805  13.436
15346SOL    HW147871  14.404   9.727  13.488
15346SOL    HW247872  14.429   9.772  13.346
15347SOL     OW47873   8.730   5.844   7.171
15347SOL    HW147874   8.715   5.936   7.190
15347SOL    HW247875   8.817   5.825   7.205
15348SOL     OW47876  14.319   8.483   6.506
15348SOL    HW147877  14.348   8.412   6.563
15348SOL    HW247878  14.251   8.443   6.452
15349SOL     OW47879   2.052   6.410   1.963
15349SOL    HW147880   2.015   6.463   1.893
15349SOL    HW247881   2.147   6.415   1.950
15350SOL     OW47882  11.308   5.078   6.619
15350SOL    HW147883  11.312   4.985   6.643
15350SOL    HW247884  11.262   5.120   6.692
15351SOL     OW47885   7.130   2.404   5.133
15351SOL    HW147886   7.204   2.445   5.087
15351SOL    HW247887   7.077   2.365   5.064
15352SOL     OW47888   1.281   6.367   8.990
15352SOL    HW147889   1.280   6.413   8.906
15352SOL    HW247890   1.256   6.277   8.968
15353SOL     OW47891   6.989   1.586  14.804
15353SOL    HW147892   6.933   1.659  14.830
15353SOL    HW247893   7.077   1.624  14.798
15354SOL     OW47894  14.733  11.100   3.862
15354SOL    HW147895  14.706  11.173   3.806
15354SOL    HW247896  14.651  11.054   3.882
15355SOL     OW47897   1.638   0.130   8.187
15355SOL    HW147898   1.689   0.090   8.257
15355SOL    HW247899   1.659   0.223   8.193
15356SOL     OW47900   7.627   4.172  13.676
15356SOL    HW147901   7.682   4.221  13.615
15356SOL    HW247902   7.666   4.084  13.677
15357SOL     OW47903  13.187   9.091   9.597
15357SOL    HW147904  13.217   9.180   9.580
15357SOL    HW247905  13.149   9.061   9.514
15358SOL     OW47906  14.001   6.121   0.273
15358SOL    HW147907  13.966   6.033   0.289
15358SOL    HW247908  14.054   6.111   0.194
15359SOL     OW47909  13.225   4.206   0.025
15359SOL    HW147910  13.309   4.166   0.047
15359SOL    HW247911  13.204   4.262   0.099
15360SOL     OW47912   0.742   7.200  11.243
15360SOL    HW147913   0.779   7.286  11.223
15360SOL    HW247914   0.815   7.139  11.233
15361SOL     OW47915   0.700   3.432  10.154
15361SOL    HW147916   0.743   3.364  10.206
15361SOL    HW247917   0.766   3.501  10.145
15362SOL     OW47918  14.415   4.445  13.774
15362SOL    HW147919  14.366   4.528  13.770
15362SOL    HW247920  14.506   4.472  13.784
15363SOL     OW47921   6.571   5.677   0.429
15363SOL    HW147922   6.569   5.769   0.454
15363SOL    HW247923   6.619   5.676   0.346
15364SOL     OW47924   0.275  10.796  14.638
15364SOL    HW147925   0.185  10.815  14.610
15364SOL    HW247926   0.319  10.881  14.634
15365SOL     OW47927   9.474  12.632   9.356
15365SOL    HW147928   9.538  12.600   9.420
15365SOL    HW247929   9.492  12.726   9.350
15366SOL     OW47930   7.524   7.446   0.257
15366SOL    HW147931   7.451   7.386   0.275
15366SOL    HW247932   7.488   7.533   0.274
15367SOL     OW47933   9.821   1.205   1.942
15367SOL    HW147934   9.915   1.216   1.956
15367SOL    HW247935   9.805   1.113   1.961
15368SOL     OW47936   1.279   9.945  10.506
15368SOL    HW147937   1.366   9.966  10.540
15368SOL    HW247938   1.296   9.884  10.435
15369SOL     OW47939   7.081  10.209  14.725
15369SOL    HW147940   7.033  10.227  14.806
15369SOL    HW247941   7.099  10.115  14.729
15370SOL     OW47942  10.723  14.432   2.871
15370SOL    HW147943  10.675  14.386   2.802
15370SOL    HW247944  10.677  14.515   2.882
15371SOL     OW47945   9.198   5.395  14.490
15371SOL    HW147946   9.178   5.379  14.398
15371SOL    HW247947   9.241   5.481  14.490
15372SOL     OW47948  12.714   6.194   3.135
15372SOL    HW147949  12.736   6.142   3.058
15372SOL    HW247950  12.732   6.135   3.209
15373SOL     OW47951   3.592   4.121   9.634
15373SOL    HW147952   3.569   4.117   9.727
15373SOL    HW247953   3.688   4.128   9.634
15374SOL     OW47954   1.241   2.513   7.051
15374SOL    HW147955   1.325   2.545   7.018
15374SOL    HW247956   1.207   2.585   7.104
15375SOL     OW47957   9.672  10.927   2.968
15375SOL    HW147958   9.691  10.833   2.974
15375SOL    HW247959   9.640  10.951   3.055
15376SOL     OW47960   8.225   6.858   8.847
15376SOL    HW147961   8.166   6.790   8.881
15376SOL    HW247962   8.312   6.819   8.855
15377SOL     OW47963   8.559  10.577   8.215
15377SOL    HW147964   8.517  10.646   8.164
15377SOL    HW247965   8.651  10.601   8.217
15378SOL     OW47966  14.347   3.979   2.410
15378SOL    HW147967  14.260   3.975   2.449
15378SOL    HW247968  14.335   3.951   2.319
15379SOL     OW47969   2.701   5.831  11.412
15379SOL    HW147970   2.773   5.796  11.465
15379SOL    HW247971   2.721   5.802  11.323
15380SOL     OW47972   4.597   8.354   6.322
15380SOL    HW147973   4.683   8.313   6.318
15380SOL    HW247974   4.614   8.447   6.334
15381SOL     OW47975  14.353  10.559  11.699
15381SOL    HW147976  14.441  10.550  11.734
15381SOL    HW247977  14.312  10.474  11.712
15382SOL     OW47978  14.569   4.630   9.133
15382SOL    HW147979  14.512   4.554   9.130
15382SOL    HW247980  14.512   4.702   9.160
15383SOL     OW47981   7.163   5.316   0.846
15383SOL    HW147982   7.239   5.347   0.797
15383SOL    HW247983   7.108   5.393   0.857
15384SOL     OW47984   8.464  13.389  12.477
15384SOL    HW147985   8.518  13.317  12.445
15384SOL    HW247986   8.421  13.424  12.399
15385SOL     OW47987   7.570   5.314  10.312
15385SOL    HW147988   7.603   5.292  10.399
15385SOL    HW247989   7.614   5.396  10.289
15386SOL     OW47990   4.430   5.762   9.380
15386SOL    HW147991   4.448   5.695   9.314
15386SOL    HW247992   4.388   5.832   9.332
15387SOL     OW47993   4.925   1.275  14.429
15387SOL    HW147994   4.989   1.206  14.411
15387SOL    HW247995   4.859   1.233  14.484
15388SOL     OW47996   2.563   5.553   1.499
15388SOL    HW147997   2.643   5.570   1.549
15388SOL    HW247998   2.594   5.536   1.410
15389SOL     OW47999   1.321   5.736   7.984
15389SOL    HW148000   1.315   5.655   8.035
15389SOL    HW248001   1.409   5.769   8.003
15390SOL     OW48002  10.403   6.917   9.166
15390SOL    HW148003  10.375   6.966   9.243
15390SOL    HW248004  10.341   6.845   9.160
15391SOL     OW48005   7.495   5.826   8.098
15391SOL    HW148006   7.440   5.850   8.173
15391SOL    HW248007   7.437   5.836   8.022
15392SOL     OW48008   4.366   2.665   9.109
15392SOL    HW148009   4.449   2.621   9.126
15392SOL    HW248010   4.360   2.669   9.014
15393SOL     OW48011   7.857   5.950   1.171
15393SOL    HW148012   7.797   5.878   1.154
15393SOL    HW248013   7.889   5.976   1.084
15394SOL     OW48014  12.344  14.570   9.646
15394SOL    HW148015  12.340  14.659   9.682
15394SOL    HW248016  12.409  14.525   9.700
15395SOL     OW48017  12.683  11.831   0.753
15395SOL    HW148018  12.599  11.797   0.783
15395SOL    HW248019  12.702  11.905   0.810
15396SOL     OW48020   4.535   3.132   9.848
15396SOL    HW148021   4.451   3.132   9.801
15396SOL    HW248022   4.575   3.215   9.824
15397SOL     OW48023   4.004   0.818   7.491
15397SOL    HW148024   3.921   0.865   7.485
15397SOL    HW248025   4.053   0.844   7.413
15398SOL     OW48026  10.378  11.175   5.822
15398SOL    HW148027  10.365  11.255   5.874
15398SOL    HW248028  10.293  11.132   5.823
15399SOL     OW48029   6.280   5.741   3.052
15399SOL    HW148030   6.192   5.776   3.063
15399SOL    HW248031   6.310   5.779   2.969
15400SOL     OW48032   7.869  13.152  12.074
15400SOL    HW148033   7.892  13.180  12.162
15400SOL    HW248034   7.865  13.234  12.024
15401SOL     OW48035   9.664  13.844  12.642
15401SOL    HW148036   9.688  13.863  12.552
15401SOL    HW248037   9.582  13.891  12.656
15402SOL     OW48038   4.708   2.910   3.374
15402SOL    HW148039   4.641   2.854   3.412
15402SOL    HW248040   4.672   2.939   3.291
15403SOL     OW48041   4.061   7.462   3.916
15403SOL    HW148042   4.058   7.552   3.950
15403SOL    HW248043   3.994   7.460   3.847
15404SOL     OW48044  11.012  12.903  14.460
15404SOL    HW148045  11.014  12.881  14.367
15404SOL    HW248046  11.080  12.970  14.470
15405SOL     OW48047  13.543   4.632   9.759
15405SOL    HW148048  13.525   4.692   9.832
15405SOL    HW248049  13.623   4.586   9.786
15406SOL     OW48050  12.306   8.592  11.137
15406SOL    HW148051  12.216   8.562  11.130
15406SOL    HW248052  12.318   8.610  11.230
15407SOL     OW48053   4.335   8.510  12.200
15407SOL    HW148054   4.281   8.589  12.196
15407SOL    HW248055   4.326   8.470  12.114
15408SOL     OW48056   0.292   3.639  13.816
15408SOL    HW148057   0.343   3.645  13.897
15408SOL    HW248058   0.314   3.553  13.779
15409SOL     OW48059   3.871  12.848  12.295
15409SOL    HW148060   3.799  12.890  12.343
15409SOL    HW248061   3.911  12.789  12.360
15410SOL     OW48062  10.555  10.073   3.319
15410SOL    HW148063  10.644  10.108   3.327
15410SOL    HW248064  10.558   9.988   3.362
15411SOL     OW48065  11.020   9.407   4.778
15411SOL    HW148066  10.980   9.343   4.720
15411SOL    HW248067  10.948   9.439   4.833
15412SOL     OW48068   1.672   3.247   0.923
15412SOL    HW148069   1.737   3.315   0.904
15412SOL    HW248070   1.655   3.206   0.838
15413SOL     OW48071   5.533   6.999   9.405
15413SOL    HW148072   5.476   7.003   9.329
15413SOL    HW248073   5.611   7.048   9.380
15414SOL     OW48074   2.683   7.245   9.570
15414SOL    HW148075   2.699   7.291   9.653
15414SOL    HW248076   2.619   7.177   9.592
15415SOL     OW48077  13.248  10.053  14.268
15415SOL    HW148078  13.229   9.992  14.339
15415SOL    HW248079  13.166  10.101  14.256
15416SOL     OW48080   9.704   8.582  10.307
15416SOL    HW148081   9.711   8.509  10.246
15416SOL    HW248082   9.641   8.552  10.372
15417SOL     OW48083   7.948   0.551  11.848
15417SOL    HW148084   7.856   0.548  11.821
15417SOL    HW248085   7.986   0.622  11.796
15418SOL     OW48086  10.154   0.574  14.057
15418SOL    HW148087  10.245   0.545  14.059
15418SOL    HW248088  10.146   0.622  13.974
15419SOL     OW48089   7.282  10.559   3.547
15419SOL    HW148090   7.227  10.575   3.624
15419SOL    HW248091   7.348  10.628   3.550
15420SOL     OW48092  10.861   9.220  14.132
15420SOL    HW148093  10.846   9.142  14.185
15420SOL    HW248094  10.796   9.214  14.062
15421SOL     OW48095   4.145   1.776   7.024
15421SOL    HW148096   4.160   1.685   7.000
15421SOL    HW248097   4.147   1.824   6.942
15422SOL     OW48098   8.889   4.329   0.539
15422SOL    HW148099   8.909   4.235   0.538
15422SOL    HW248100   8.935   4.364   0.463
15423SOL     OW48101   8.838  10.135  10.161
15423SOL    HW148102   8.795  10.186  10.092
15423SOL    HW248103   8.798  10.165  10.242
15424SOL     OW48104   1.705  14.728  13.888
15424SOL    HW148105   1.691  14.804  13.944
15424SOL    HW248106   1.796  14.735  13.860
15425SOL     OW48107  11.181  12.922  11.108
15425SOL    HW148108  11.110  12.914  11.171
15425SOL    HW248109  11.256  12.953  11.159
15426SOL     OW48110   1.324  11.227   3.639
15426SOL    HW148111   1.349  11.264   3.724
15426SOL    HW248112   1.359  11.138   3.641
15427SOL     OW48113   5.941   3.230   6.371
15427SOL    HW148114   6.024   3.203   6.332
15427SOL    HW248115   5.905   3.150   6.408
15428SOL     OW48116   8.226   8.211  12.885
15428SOL    HW148117   8.242   8.237  12.795
15428SOL    HW248118   8.194   8.120  12.879
15429SOL     OW48119  10.807   3.730   2.366
15429SOL    HW148120  10.864   3.663   2.328
15429SOL    HW248121  10.777   3.781   2.292
15430SOL     OW48122  11.833   1.079   7.051
15430SOL    HW148123  11.831   1.162   7.098
15430SOL    HW248124  11.756   1.081   6.995
15431SOL     OW48125   4.926   4.591   0.329
15431SOL    HW148126   4.988   4.613   0.398
15431SOL    HW248127   4.844   4.574   0.375
15432SOL     OW48128   0.592   4.016  13.037
15432SOL    HW148129   0.531   4.037  12.966
15432SOL    HW248130   0.669   4.071  13.019
15433SOL     OW48131   4.746   5.606   8.405
15433SOL    HW148132   4.738   5.688   8.357
15433SOL    HW248133   4.839   5.585   8.402
15434SOL     OW48134  10.180   1.230   6.691
15434SOL    HW148135  10.176   1.174   6.614
15434SOL    HW248136  10.090   1.233   6.723
15435SOL     OW48137   4.864   0.695   2.224
15435SOL    HW148138   4.867   0.645   2.306
15435SOL    HW248139   4.902   0.780   2.247
15436SOL     OW48140   5.608   2.244   4.083
15436SOL    HW148141   5.669   2.292   4.026
15436SOL    HW248142   5.649   2.159   4.096
15437SOL     OW48143   5.310   9.413   0.276
15437SOL    HW148144   5.333   9.359   0.201
15437SOL    HW248145   5.380   9.396   0.340
15438SOL     OW48146   8.311  10.535   3.453
15438SOL    HW148147   8.401  10.525   3.423
15438SOL    HW248148   8.318  10.588   3.533
15439SOL     OW48149   5.601   8.251   6.556
15439SOL    HW148150   5.642   8.166   6.576
15439SOL    HW248151   5.526   8.228   6.501
15440SOL     OW48152  11.803  10.009  13.538
15440SOL    HW148153  11.853   9.932  13.511
15440SOL    HW248154  11.812  10.011  13.633
15441SOL     OW48155   9.693   7.035   4.043
15441SOL    HW148156   9.726   7.045   4.132
15441SOL    HW248157   9.768   7.001   3.994
15442SOL     OW48158  11.246   7.160   1.503
15442SOL    HW148159  11.289   7.245   1.492
15442SOL    HW248160  11.245   7.145   1.597
15443SOL     OW48161   6.559   3.904   6.960
15443SOL    HW148162   6.473   3.862   6.964
15443SOL    HW248163   6.607   3.866   7.034
15444SOL     OW48164  12.132   3.247   3.547
15444SOL    HW148165  12.098   3.194   3.475
15444SOL    HW248166  12.057   3.299   3.576
15445SOL     OW48167   1.653   1.203   1.906
15445SOL    HW148168   1.588   1.133   1.909
15445SOL    HW248169   1.730   1.166   1.948
15446SOL     OW48170  14.852  12.987   4.283
15446SOL    HW148171   0.043  12.917   4.271
15446SOL    HW248172  14.849  13.000   4.378
15447SOL     OW48173   4.697   2.882   0.054
15447SOL    HW148174   4.707   2.976   0.044
15447SOL    HW248175   4.614   2.871   0.101
15448SOL     OW48176   5.710   3.698  10.795
15448SOL    HW148177   5.773   3.752  10.841
15448SOL    HW248178   5.635   3.756  10.780
15449SOL     OW48179  10.870   8.504  11.585
15449SOL    HW148180  10.950   8.491  11.636
15449SOL    HW248181  10.868   8.597  11.566
15450SOL     OW48182  12.203   1.682  13.121
15450SOL    HW148183  12.271   1.642  13.175
15450SOL    HW248184  12.233   1.772  13.108
15451SOL     OW48185   6.566   5.504   1.631
15451SOL    HW148186   6.573   5.412   1.604
15451SOL    HW248187   6.473   5.523   1.626
15452SOL     OW48188   5.586   2.627   4.585
15452SOL    HW148189   5.678   2.653   4.593
15452SOL    HW248190   5.553   2.630   4.675
15453SOL     OW48191   5.181  11.970   6.727
15453SOL    HW148192   5.180  11.959   6.632
15453SOL    HW248193   5.141  11.889   6.760
15454SOL     OW48194   4.465   5.706   0.326
15454SOL    HW148195   4.491   5.704   0.234
15454SOL    HW248196   4.450   5.799   0.345
15455SOL     OW48197  10.754   7.546   1.784
15455SOL    HW148198  10.757   7.460   1.825
15455SOL    HW248199  10.660   7.565   1.776
15456SOL     OW48200   5.812  14.061   9.552
15456SOL    HW148201   5.789  13.992   9.489
15456SOL    HW248202   5.856  14.014   9.623
15457SOL     OW48203   1.501   1.657   7.799
15457SOL    HW148204   1.578   1.704   7.829
15457SOL    HW248205   1.494   1.582   7.858
15458SOL     OW48206   6.907   0.638   4.057
15458SOL    HW148207   6.979   0.579   4.033
15458SOL    HW248208   6.950   0.722   4.071
15459SOL     OW48209   9.292   6.324   6.432
15459SOL    HW148210   9.263   6.234   6.420
15459SOL    HW248211   9.368   6.317   6.490
15460SOL     OW48212   0.236   9.311  10.752
15460SOL    HW148213   0.317   9.270  10.780
15460SOL    HW248214   0.182   9.239  10.719
15461SOL     OW48215   5.763  11.116   0.219
15461SOL    HW148216   5.856  11.100   0.204
15461SOL    HW248217   5.722  11.104   0.133
15462SOL     OW48218   4.900  11.361  14.615
15462SOL    HW148219   4.848  11.312  14.550
15462SOL    HW248220   4.875  11.322  14.699
15463SOL     OW48221   1.935   3.134   8.157
15463SOL    HW148222   1.846   3.101   8.144
15463SOL    HW248223   1.991   3.062   8.130
15464SOL     OW48224  11.523  13.704  10.436
15464SOL    HW148225  11.469  13.757  10.495
15464SOL    HW248226  11.467  13.689  10.360
15465SOL     OW48227  10.807  10.466  11.743
15465SOL    HW148228  10.731  10.524  11.752
15465SOL    HW248229  10.770  10.381  11.720
15466SOL     OW48230   3.023   3.518   9.905
15466SOL    HW148231   2.944   3.536   9.854
15466SOL    HW248232   3.038   3.598   9.955
15467SOL     OW48233   7.377  10.701   8.234
15467SOL    HW148234   7.330  10.637   8.288
15467SOL    HW248235   7.348  10.786   8.268
15468SOL     OW48236  10.842   9.221  13.216
15468SOL    HW148237  10.869   9.312  13.231
15468SOL    HW248238  10.923   9.170  13.226
15469SOL     OW48239  10.595   9.580  13.584
15469SOL    HW148240  10.535   9.631  13.638
15469SOL    HW248241  10.591   9.621  13.498
15470SOL     OW48242   6.105   7.141   3.109
15470SOL    HW148243   6.196   7.137   3.080
15470SOL    HW248244   6.066   7.059   3.078
15471SOL     OW48245   4.339  13.155   9.721
15471SOL    HW148246   4.336  13.154   9.816
15471SOL    HW248247   4.344  13.248   9.697
15472SOL     OW48248   3.165  13.181  11.348
15472SOL    HW148249   3.229  13.120  11.383
15472SOL    HW248250   3.084  13.161  11.396
15473SOL     OW48251  10.162   9.133   6.383
15473SOL    HW148252  10.133   9.051   6.344
15473SOL    HW248253  10.114   9.201   6.335
15474SOL     OW48254   4.441  10.791   7.956
15474SOL    HW148255   4.536  10.786   7.959
15474SOL    HW248256   4.422  10.859   7.892
15475SOL     OW48257  10.676   3.744   4.291
15475SOL    HW148258  10.750   3.777   4.341
15475SOL    HW248259  10.659   3.810   4.224
15476SOL     OW48260   7.364  14.686   9.663
15476SOL    HW148261   7.361  14.765   9.717
15476SOL    HW248262   7.292  14.697   9.601
15477SOL     OW48263   7.970  14.349  12.417
15477SOL    HW148264   7.895  14.315  12.368
15477SOL    HW248265   8.043  14.293  12.390
15478SOL     OW48266   1.707   7.776   9.819
15478SOL    HW148267   1.754   7.831   9.757
15478SOL    HW248268   1.766   7.703   9.836
15479SOL     OW48269   3.856  11.391   0.820
15479SOL    HW148270   3.802  11.324   0.778
15479SOL    HW248271   3.941  11.384   0.775
15480SOL     OW48272   1.184   2.044   4.855
15480SOL    HW148273   1.187   2.021   4.762
15480SOL    HW248274   1.276   2.048   4.882
15481SOL     OW48275   6.226   1.822   9.500
15481SOL    HW148276   6.306   1.859   9.462
15481SOL    HW248277   6.232   1.844   9.593
15482SOL     OW48278   4.942  11.104   8.693
15482SOL    HW148279   4.923  11.098   8.600
15482SOL    HW248280   5.011  11.039   8.708
15483SOL     OW48281   9.373  14.368   5.565
15483SOL    HW148282   9.376  14.457   5.530
15483SOL    HW248283   9.395  14.378   5.658
15484SOL     OW48284   6.555  12.700  14.000
15484SOL    HW148285   6.475  12.666  14.039
15484SOL    HW248286   6.528  12.735  13.916
15485SOL     OW48287  12.464  13.349   1.924
15485SOL    HW148288  12.380  13.368   1.883
15485SOL    HW248289  12.490  13.264   1.889
15486SOL     OW48290   5.005   4.526   1.428
15486SOL    HW148291   5.078   4.466   1.414
15486SOL    HW248292   4.932   4.487   1.381
15487SOL     OW48293   3.770   7.669  13.033
15487SOL    HW148294   3.691   7.722  13.038
15487SOL    HW248295   3.739   7.579  13.030
15488SOL     OW48296   0.418  13.866   6.546
15488SOL    HW148297   0.480  13.882   6.617
15488SOL    HW248298   0.397  13.773   6.555
15489SOL     OW48299   0.146   3.968   9.111
15489SOL    HW148300   0.162   3.892   9.165
15489SOL    HW248301   0.063   3.950   9.067
15490SOL     OW48302   2.925   3.224  13.449
15490SOL    HW148303   2.938   3.257  13.538
15490SOL    HW248304   2.942   3.300  13.393
15491SOL     OW48305   6.962   4.576  13.325
15491SOL    HW148306   6.979   4.516  13.398
15491SOL    HW248307   6.889   4.537  13.278
15492SOL     OW48308   2.035  14.135  12.742
15492SOL    HW148309   1.951  14.181  12.733
15492SOL    HW248310   2.011  14.048  12.773
15493SOL     OW48311   9.094   2.072   0.240
15493SOL    HW148312   9.071   2.145   0.183
15493SOL    HW248313   9.132   2.007   0.182
15494SOL     OW48314   4.059   5.496  12.433
15494SOL    HW148315   4.029   5.586  12.426
15494SOL    HW248316   4.096   5.476  12.346
15495SOL     OW48317   8.553   1.630  12.759
15495SOL    HW148318   8.551   1.726  12.762
15495SOL    HW248319   8.537   1.609  12.667
15496SOL     OW48320   5.261   4.738  12.338
15496SOL    HW148321   5.290   4.819  12.381
15496SOL    HW248322   5.325   4.726  12.267
15497SOL     OW48323   2.108  13.015   9.152
15497SOL    HW148324   2.074  13.088   9.205
15497SOL    HW248325   2.190  13.048   9.117
15498SOL     OW48326   0.263   8.097   5.560
15498SOL    HW148327   0.210   8.025   5.596
15498SOL    HW248328   0.353   8.063   5.564
15499SOL     OW48329   6.078  12.883   3.519
15499SOL    HW148330   6.103  12.953   3.458
15499SOL    HW248331   6.147  12.882   3.584
15500SOL     OW48332  12.972   0.433   3.967
15500SOL    HW148333  12.893   0.427   4.020
15500SOL    HW248334  12.949   0.388   3.885
15501SOL     OW48335   7.244   9.161  11.049
15501SOL    HW148336   7.266   9.166  10.956
15501SOL    HW248337   7.197   9.242  11.067
15502SOL     OW48338  11.432  13.172   7.661
15502SOL    HW148339  11.373  13.209   7.727
15502SOL    HW248340  11.488  13.244   7.635
15503SOL     OW48341   3.569   4.700  13.232
15503SOL    HW148342   3.629   4.766  13.267
15503SOL    HW248343   3.607   4.616  13.260
15504SOL     OW48344   8.054  11.517   9.780
15504SOL    HW148345   8.125  11.581   9.778
15504SOL    HW248346   8.030  11.511   9.873
15505SOL     OW48347   3.721  14.031   1.700
15505SOL    HW148348   3.788  14.100   1.698
15505SOL    HW248349   3.639  14.077   1.718
15506SOL     OW48350   5.196  10.498   6.530
15506SOL    HW148351   5.292  10.506   6.532
15506SOL    HW248352   5.180  10.415   6.484
15507SOL     OW48353  13.931   8.534  13.794
15507SOL    HW148354  13.849   8.581  13.779
15507SOL    HW248355  13.997   8.603  13.799
15508SOL     OW48356   1.998  13.387   3.995
15508SOL    HW148357   1.954  13.414   3.915
15508SOL    HW248358   2.062  13.456   4.012
15509SOL     OW48359   7.080  13.876  11.297
15509SOL    HW148360   6.986  13.887  11.284
15509SOL    HW248361   7.101  13.794  11.253
15510SOL     OW48362  10.900   7.381   6.522
15510SOL    HW148363  10.938   7.428   6.596
15510SOL    HW248364  10.860   7.449   6.468
15511SOL     OW48365   8.612   7.660  12.159
15511SOL    HW148366   8.626   7.636  12.067
15511SOL    HW248367   8.526   7.700  12.161
15512SOL     OW48368   9.639  14.514   3.953
15512SOL    HW148369   9.622  14.521   3.859
15512SOL    HW248370   9.725  14.554   3.966
15513SOL     OW48371  12.072   2.157  13.954
15513SOL    HW148372  12.064   2.091  13.884
15513SOL    HW248373  12.112   2.232  13.911
15514SOL     OW48374   4.955   9.735   6.129
15514SOL    HW148375   4.945   9.671   6.200
15514SOL    HW248376   4.981   9.683   6.053
15515SOL     OW48377   2.862  14.568   4.651
15515SOL    HW148378   2.872  14.641   4.590
15515SOL    HW248379   2.774  14.578   4.686
15516SOL     OW48380   8.516  10.146   6.244
15516SOL    HW148381   8.444  10.207   6.235
15516SOL    HW248382   8.476  10.059   6.237
15517SOL     OW48383   5.970  12.767   2.050
15517SOL    HW148384   6.030  12.694   2.065
15517SOL    HW248385   6.025  12.835   2.010
15518SOL     OW48386   1.356   8.217   0.446
15518SOL    HW148387   1.391   8.247   0.362
15518SOL    HW248388   1.413   8.259   0.512
15519SOL     OW48389   7.066   4.088   2.227
15519SOL    HW148390   7.080   4.182   2.212
15519SOL    HW248391   7.081   4.048   2.141
15520SOL     OW48392  11.046   3.609   7.513
15520SOL    HW148393  11.079   3.528   7.476
15520SOL    HW248394  10.966   3.583   7.560
15521SOL     OW48395   9.732  12.022   5.479
15521SOL    HW148396   9.658  12.078   5.504
15521SOL    HW248397   9.699  11.933   5.491
15522SOL     OW48398   2.083   3.543   4.265
15522SOL    HW148399   1.990   3.546   4.242
15522SOL    HW248400   2.127   3.592   4.196
15523SOL     OW48401  10.766  10.860   8.558
15523SOL    HW148402  10.726  10.938   8.598
15523SOL    HW248403  10.843  10.842   8.612
15524SOL     OW48404   7.099   3.007   4.835
15524SOL    HW148405   7.102   3.086   4.889
15524SOL    HW248406   7.177   3.013   4.779
15525SOL     OW48407  13.002   6.512   3.014
15525SOL    HW148408  12.942   6.575   3.055
15525SOL    HW248409  12.974   6.427   3.050
15526SOL     OW48410   5.885  13.342  12.007
15526SOL    HW148411   5.862  13.321  12.098
15526SOL    HW248412   5.909  13.258  11.969
15527SOL     OW48413  11.582   5.638  13.889
15527SOL    HW148414  11.551   5.580  13.820
15527SOL    HW248415  11.523   5.713  13.887
15528SOL     OW48416  13.146  13.939  11.545
15528SOL    HW148417  13.167  14.032  11.539
15528SOL    HW248418  13.173  13.903  11.460
15529SOL     OW48419   0.172   8.920   1.726
15529SOL    HW148420   0.199   8.832   1.749
15529SOL    HW248421   0.138   8.957   1.807
15530SOL     OW48422  14.716   5.354  10.839
15530SOL    HW148423  14.730   5.443  10.807
15530SOL    HW248424  14.804   5.316  10.846
15531SOL     OW48425   4.392  12.423   5.161
15531SOL    HW148426   4.463  12.424   5.096
15531SOL    HW248427   4.405  12.341   5.209
15532SOL     OW48428   1.832  13.369   4.206
15532SOL    HW148429   1.908  13.356   4.149
15532SOL    HW248430   1.760  13.388   4.146
15533SOL     OW48431   2.478   5.112  13.351
15533SOL    HW148432   2.508   5.170  13.282
15533SOL    HW248433   2.395   5.151  13.381
15534SOL     OW48434   2.417  13.126   3.992
15534SOL    HW148435   2.489  13.090   3.940
15534SOL    HW248436   2.461  13.176   4.061
15535SOL     OW48437  12.847   3.141   6.350
15535SOL    HW148438  12.762   3.135   6.306
15535SOL    HW248439  12.828   3.182   6.434
15536SOL     OW48440   6.426  10.932   8.197
15536SOL    HW148441   6.471  10.892   8.272
15536SOL    HW248442   6.335  10.903   8.206
15537SOL     OW48443   9.027   4.760   2.021
15537SOL    HW148444   8.956   4.768   2.085
15537SOL    HW248445   9.022   4.840   1.968
15538SOL     OW48446   2.620   0.362   4.677
15538SOL    HW148447   2.673   0.317   4.744
15538SOL    HW248448   2.569   0.427   4.726
15539SOL     OW48449  12.809   3.021   9.884
15539SOL    HW148450  12.826   2.937   9.926
15539SOL    HW248451  12.732   3.005   9.828
15540SOL     OW48452   2.961   0.580   7.220
15540SOL    HW148453   2.882   0.620   7.184
15540SOL    HW248454   3.024   0.652   7.224
15541SOL     OW48455   7.684   6.609   8.551
15541SOL    HW148456   7.590   6.623   8.538
15541SOL    HW248457   7.718   6.589   8.464
15542SOL     OW48458  12.121  13.371   0.233
15542SOL    HW148459  12.096  13.389   0.324
15542SOL    HW248460  12.106  13.455   0.188
15543SOL     OW48461   5.893   2.871   3.466
15543SOL    HW148462   5.929   2.793   3.425
15543SOL    HW248463   5.899   2.852   3.560
15544SOL     OW48464   5.285  10.536   7.496
15544SOL    HW148465   5.229  10.582   7.434
15544SOL    HW248466   5.323  10.605   7.551
15545SOL     OW48467   7.776  12.941  13.992
15545SOL    HW148468   7.768  13.036  13.993
15545SOL    HW248469   7.704  12.911  14.048
15546SOL     OW48470   8.873   0.996  13.967
15546SOL    HW148471   8.827   0.913  13.981
15546SOL    HW248472   8.965   0.975  13.977
15547SOL     OW48473   4.598  12.354  11.937
15547SOL    HW148474   4.558  12.327  12.019
15547SOL    HW248475   4.639  12.275  11.902
15548SOL     OW48476   8.033   4.949  13.930
15548SOL    HW148477   8.094   4.875  13.937
15548SOL    HW248478   8.062   4.997  13.853
15549SOL     OW48479   4.465   2.072  11.996
15549SOL    HW148480   4.397   2.006  11.985
15549SOL    HW248481   4.483   2.072  12.090
15550SOL     OW48482   6.557   9.591   9.464
15550SOL    HW148483   6.560   9.663   9.526
15550SOL    HW248484   6.464   9.567   9.459
15551SOL     OW48485   9.037   9.258   2.816
15551SOL    HW148486   9.043   9.166   2.841
15551SOL    HW248487   8.959   9.290   2.861
15552SOL     OW48488   9.385   2.248   8.144
15552SOL    HW148489   9.370   2.271   8.052
15552SOL    HW248490   9.297   2.227   8.177
15553SOL     OW48491  14.696   3.970  13.552
15553SOL    HW148492  14.667   4.030  13.621
15553SOL    HW248493  14.790   3.961  13.566
15554SOL     OW48494   4.503  10.681   3.561
15554SOL    HW148495   4.460  10.765   3.540
15554SOL    HW248496   4.532  10.648   3.476
15555SOL     OW48497   0.723   4.503   5.298
15555SOL    HW148498   0.683   4.418   5.315
15555SOL    HW248499   0.817   4.485   5.293
15556SOL     OW48500   1.516  10.838   2.446
15556SOL    HW148501   1.574  10.885   2.386
15556SOL    HW248502   1.432  10.834   2.400
15557SOL     OW48503  12.819  14.202   8.382
15557SOL    HW148504  12.774  14.253   8.449
15557SOL    HW248505  12.749  14.171   8.324
15558SOL     OW48506   4.456   2.727   3.495
15558SOL    HW148507   4.490   2.665   3.560
15558SOL    HW248508   4.497   2.700   3.413
15559SOL     OW48509  11.603   8.392  11.013
15559SOL    HW148510  11.530   8.423  10.960
15559SOL    HW248511  11.679   8.438  10.978
15560SOL     OW48512  11.354  14.279  13.922
15560SOL    HW148513  11.270  14.304  13.961
15560SOL    HW248514  11.417  14.286  13.993
15561SOL     OW48515   4.106   9.710   8.686
15561SOL    HW148516   4.024   9.759   8.689
15561SOL    HW248517   4.109   9.671   8.599
15562SOL     OW48518  11.674   6.989   0.747
15562SOL    HW148519  11.665   7.082   0.766
15562SOL    HW248520  11.745   6.960   0.804
15563SOL     OW48521   5.481   9.423   1.252
15563SOL    HW148522   5.449   9.510   1.277
15563SOL    HW248523   5.418   9.392   1.187
15564SOL     OW48524  10.943  11.408  10.747
15564SOL    HW148525  10.986  11.491  10.769
15564SOL    HW248526  10.981  11.344  10.807
15565SOL     OW48527  13.440  14.538   1.740
15565SOL    HW148528  13.464  14.618   1.787
15565SOL    HW248529  13.477  14.550   1.653
15566SOL     OW48530   9.680   1.825   9.257
15566SOL    HW148531   9.700   1.823   9.351
15566SOL    HW248532   9.635   1.743   9.240
15567SOL     OW48533  14.491   0.659   5.155
15567SOL    HW148534  14.573   0.610   5.165
15567SOL    HW248535  14.435   0.600   5.104
15568SOL     OW48536  13.918  11.423  10.168
15568SOL    HW148537  13.976  11.423  10.092
15568SOL    HW248538  13.963  11.368  10.232
15569SOL     OW48539   3.909   6.615   1.800
15569SOL    HW148540   3.928   6.547   1.865
15569SOL    HW248541   3.971   6.685   1.820
15570SOL     OW48542   7.614   2.519   6.102
15570SOL    HW148543   7.590   2.427   6.091
15570SOL    HW248544   7.602   2.536   6.195
15571SOL     OW48545   3.394   6.578   5.173
15571SOL    HW148546   3.405   6.647   5.108
15571SOL    HW248547   3.394   6.623   5.257
15572SOL     OW48548   6.649   9.614  12.730
15572SOL    HW148549   6.568   9.570  12.753
15572SOL    HW248550   6.640   9.702  12.765
15573SOL     OW48551   8.584  13.489   3.703
15573SOL    HW148552   8.514  13.474   3.640
15573SOL    HW248553   8.649  13.422   3.683
15574SOL     OW48554  11.055   0.854   3.670
15574SOL    HW148555  11.104   0.851   3.752
15574SOL    HW248556  10.982   0.913   3.688
15575SOL     OW48557   5.053   6.470   9.640
15575SOL    HW148558   5.066   6.552   9.593
15575SOL    HW248559   5.009   6.413   9.578
15576SOL     OW48560   5.543  10.383   3.508
15576SOL    HW148561   5.618  10.336   3.543
15576SOL    HW248562   5.533  10.459   3.566
15577SOL     OW48563   6.135   1.883  13.048
15577SOL    HW148564   6.185   1.960  13.021
15577SOL    HW248565   6.111   1.900  13.139
15578SOL     OW48566  10.379   9.837  10.143
15578SOL    HW148567  10.404   9.832  10.051
15578SOL    HW248568  10.371   9.931  10.161
15579SOL     OW48569   4.948   2.362  12.313
15579SOL    HW148570   5.004   2.321  12.379
15579SOL    HW248571   4.864   2.376  12.357
15580SOL     OW48572   8.529   1.041  11.617
15580SOL    HW148573   8.472   1.087  11.556
15580SOL    HW248574   8.616   1.048  11.579
15581SOL     OW48575  13.878   3.950  12.421
15581SOL    HW148576  13.836   4.024  12.378
15581SOL    HW248577  13.953   3.929  12.366
15582SOL     OW48578  14.033   5.213   5.770
15582SOL    HW148579  14.021   5.135   5.824
15582SOL    HW248580  13.964   5.273   5.800
15583SOL     OW48581   3.337   2.845   6.138
15583SOL    HW148582   3.385   2.783   6.083
15583SOL    HW248583   3.405   2.903   6.173
15584SOL     OW48584  11.066   0.614   5.084
15584SOL    HW148585  11.069   0.687   5.146
15584SOL    HW248586  11.096   0.652   5.001
15585SOL     OW48587   8.327   8.213   7.944
15585SOL    HW148588   8.324   8.274   7.871
15585SOL    HW248589   8.421   8.195   7.957
15586SOL     OW48590   7.289   9.551  11.555
15586SOL    HW148591   7.270   9.467  11.513
15586SOL    HW248592   7.276   9.616  11.486
15587SOL     OW48593   3.466   6.456   9.823
15587SOL    HW148594   3.527   6.490   9.888
15587SOL    HW248595   3.439   6.371   9.858
15588SOL     OW48596   0.196   4.599   2.740
15588SOL    HW148597   0.125   4.600   2.675
15588SOL    HW248598   0.250   4.675   2.717
15589SOL     OW48599  13.780   7.884   5.894
15589SOL    HW148600  13.718   7.873   5.967
15589SOL    HW248601  13.793   7.796   5.860
15590SOL     OW48602   5.337   9.952   6.728
15590SOL    HW148603   5.315  10.007   6.653
15590SOL    HW248604   5.431   9.934   6.718
15591SOL     OW48605   2.071  10.018  13.706
15591SOL    HW148606   1.984   9.990  13.738
15591SOL    HW248607   2.070  10.113  13.714
15592SOL     OW48608  12.441  10.507  12.446
15592SOL    HW148609  12.442  10.439  12.514
15592SOL    HW248610  12.412  10.586  12.492
15593SOL     OW48611   5.379   8.200   6.736
15593SOL    HW148612   5.423   8.259   6.797
15593SOL    HW248613   5.447   8.174   6.674
15594SOL     OW48614   2.771   3.346   3.839
15594SOL    HW148615   2.794   3.288   3.911
15594SOL    HW248616   2.708   3.408   3.878
15595SOL     OW48617   3.207  12.946  13.490
15595SOL    HW148618   3.276  12.897  13.445
15595SOL    HW248619   3.253  13.019  13.532
15596SOL     OW48620   5.662   5.541   7.551
15596SOL    HW148621   5.702   5.505   7.630
15596SOL    HW248622   5.592   5.598   7.583
15597SOL     OW48623   3.619   7.059  13.432
15597SOL    HW148624   3.549   7.028  13.374
15597SOL    HW248625   3.578   7.062  13.518
15598SOL     OW48626  10.966  13.189   9.221
15598SOL    HW148627  10.997  13.152   9.304
15598SOL    HW248628  10.988  13.282   9.225
15599SOL     OW48629   8.591   9.676  12.427
15599SOL    HW148630   8.583   9.597  12.374
15599SOL    HW248631   8.682   9.675  12.457
15600SOL     OW48632   4.829  13.717   8.383
15600SOL    HW148633   4.914  13.710   8.340
15600SOL    HW248634   4.804  13.627   8.402
15601SOL     OW48635   3.030   5.521  13.108
15601SOL    HW148636   3.105   5.578  13.125
15601SOL    HW248637   3.047   5.442  13.158
15602SOL     OW48638   4.795  14.462   7.525
15602SOL    HW148639   4.745  14.492   7.448
15602SOL    HW248640   4.887  14.475   7.500
15603SOL     OW48641   9.067  14.219   7.816
15603SOL    HW148642   9.156  14.251   7.801
15603SOL    HW248643   9.074  14.161   7.892
15604SOL     OW48644   6.253  13.750   7.164
15604SOL    HW148645   6.348  13.765   7.165
15604SOL    HW248646   6.215  13.837   7.156
15605SOL     OW48647   6.200   4.950   8.750
15605SOL    HW148648   6.206   4.873   8.693
15605SOL    HW248649   6.234   5.022   8.697
15606SOL     OW48650  11.369   2.210  11.502
15606SOL    HW148651  11.443   2.265  11.476
15606SOL    HW248652  11.309   2.270  11.546
15607SOL     OW48653   9.088   6.733  14.200
15607SOL    HW148654   9.042   6.818  14.197
15607SOL    HW248655   9.161   6.748  14.260
15608SOL     OW48656   5.027   9.710   2.608
15608SOL    HW148657   5.071   9.696   2.524
15608SOL    HW248658   4.981   9.793   2.598
15609SOL     OW48659   7.041   2.761   5.943
15609SOL    HW148660   7.126   2.735   5.981
15609SOL    HW248661   6.977   2.712   5.994
15610SOL     OW48662  10.936  11.885   1.518
15610SOL    HW148663  10.851  11.926   1.535
15610SOL    HW248664  10.933  11.862   1.424
15611SOL     OW48665   9.322  10.982  13.990
15611SOL    HW148666   9.358  10.927  14.060
15611SOL    HW248667   9.236  11.010  14.023
15612SOL     OW48668   0.568  11.917   8.787
15612SOL    HW148669   0.487  11.880   8.823
15612SOL    HW248670   0.555  12.012   8.790
15613SOL     OW48671   7.897  13.001  12.689
15613SOL    HW148672   7.839  13.076  12.672
15613SOL    HW248673   7.851  12.949  12.754
15614SOL     OW48674   2.314   9.804   5.367
15614SOL    HW148675   2.387   9.840   5.317
15614SOL    HW248676   2.352   9.784   5.453
15615SOL     OW48677   6.941   4.628   6.648
15615SOL    HW148678   7.020   4.657   6.602
15615SOL    HW248679   6.924   4.541   6.613
15616SOL     OW48680   8.475   2.329   4.530
15616SOL    HW148681   8.508   2.242   4.509
15616SOL    HW248682   8.481   2.334   4.626
15617SOL     OW48683  12.940   6.280  14.775
15617SOL    HW148684  12.871   6.218  14.799
15617SOL    HW248685  12.893   6.362  14.758
15618SOL     OW48686   5.267   2.522   9.540
15618SOL    HW148687   5.332   2.536   9.471
15618SOL    HW248688   5.293   2.439   9.581
15619SOL     OW48689   2.125   9.339   9.649
15619SOL    HW148690   2.065   9.409   9.623
15619SOL    HW248691   2.175   9.376   9.722
15620SOL     OW48692  11.750   9.840   7.039
15620SOL    HW148693  11.808   9.781   7.086
15620SOL    HW248694  11.701   9.886   7.107
15621SOL     OW48695  12.791   2.744   9.296
15621SOL    HW148696  12.776   2.760   9.389
15621SOL    HW248697  12.881   2.771   9.281
15622SOL     OW48698   6.611   5.438   9.703
15622SOL    HW148699   6.534   5.494   9.695
15622SOL    HW248700   6.590   5.361   9.650
15623SOL     OW48701  11.154   9.316   0.297
15623SOL    HW148702  11.219   9.321   0.227
15623SOL    HW248703  11.155   9.404   0.336
15624SOL     OW48704  14.633  13.106   7.706
15624SOL    HW148705  14.566  13.173   7.705
15624SOL    HW248706  14.585  13.024   7.717
15625SOL     OW48707   4.532  11.334   1.312
15625SOL    HW148708   4.526  11.238   1.315
15625SOL    HW248709   4.600  11.356   1.375
15626SOL     OW48710   7.136  10.119   7.666
15626SOL    HW148711   7.064  10.181   7.679
15626SOL    HW248712   7.106  10.062   7.596
15627SOL     OW48713  12.936   8.703   3.467
15627SOL    HW148714  12.855   8.667   3.433
15627SOL    HW248715  12.968   8.637   3.529
15628SOL     OW48716  13.469   3.310   5.537
15628SOL    HW148717  13.547   3.255   5.535
15628SOL    HW248718  13.485   3.373   5.607
15629SOL     OW48719   0.674   7.782   2.973
15629SOL    HW148720   0.691   7.708   2.914
15629SOL    HW248721   0.602   7.751   3.029
15630SOL     OW48722   0.227   4.908  12.924
15630SOL    HW148723   0.244   5.000  12.942
15630SOL    HW248724   0.131   4.902  12.915
15631SOL     OW48725   4.393   2.997   7.097
15631SOL    HW148726   4.382   2.913   7.051
15631SOL    HW248727   4.384   3.063   7.028
15632SOL     OW48728  11.004   2.772   0.247
15632SOL    HW148729  11.042   2.736   0.166
15632SOL    HW248730  11.069   2.835   0.278
15633SOL     OW48731   8.670   5.656   1.539
15633SOL    HW148732   8.612   5.723   1.502
15633SOL    HW248733   8.628   5.631   1.622
15634SOL     OW48734   0.628   8.985  14.408
15634SOL    HW148735   0.548   8.992  14.355
15634SOL    HW248736   0.610   9.039  14.485
15635SOL     OW48737   0.229  12.635   9.579
15635SOL    HW148738   0.254  12.649   9.670
15635SOL    HW248739   0.199  12.544   9.575
15636SOL     OW48740  14.774   2.160   4.082
15636SOL    HW148741  14.753   2.170   3.990
15636SOL    HW248742  14.776   2.065   4.096
15637SOL     OW48743   9.253   7.140   0.489
15637SOL    HW148744   9.266   7.047   0.467
15637SOL    HW248745   9.235   7.140   0.583
15638SOL     OW48746   9.108   3.209   0.978
15638SOL    HW148747   9.061   3.151   1.038
15638SOL    HW248748   9.161   3.149   0.924
15639SOL     OW48749   6.087  12.216  13.477
15639SOL    HW148750   6.008  12.188  13.431
15639SOL    HW248751   6.144  12.139  13.478
15640SOL     OW48752   1.550   6.643   7.760
15640SOL    HW148753   1.534   6.734   7.737
15640SOL    HW248754   1.591   6.605   7.682
15641SOL     OW48755  11.517   6.249  14.193
15641SOL    HW148756  11.552   6.203  14.269
15641SOL    HW248757  11.536   6.341  14.209
15642SOL     OW48758  14.730   5.725  11.314
15642SOL    HW148759  14.693   5.813  11.311
15642SOL    HW248760  14.655   5.667  11.303
15643SOL     OW48761   4.726   3.706   3.434
15643SOL    HW148762   4.701   3.689   3.343
15643SOL    HW248763   4.818   3.678   3.439
15644SOL     OW48764  13.752   3.091   5.829
15644SOL    HW148765  13.753   3.021   5.894
15644SOL    HW248766  13.711   3.165   5.874
15645SOL     OW48767  11.450   7.966   0.115
15645SOL    HW148768  11.459   7.910   0.038
15645SOL    HW248769  11.528   8.021   0.113
15646SOL     OW48770   5.814   4.206   5.095
15646SOL    HW148771   5.783   4.150   5.167
15646SOL    HW248772   5.849   4.284   5.138
15647SOL     OW48773   8.028   5.210   2.567
15647SOL    HW148774   7.991   5.193   2.480
15647SOL    HW248775   7.957   5.253   2.615
15648SOL     OW48776  13.085   5.979  10.708
15648SOL    HW148777  13.157   5.941  10.658
15648SOL    HW248778  13.055   6.053  10.655
15649SOL     OW48779   8.321   6.664  11.349
15649SOL    HW148780   8.257   6.645  11.417
15649SOL    HW248781   8.394   6.604  11.367
15650SOL     OW48782   3.921  10.240   1.708
15650SOL    HW148783   3.883  10.162   1.749
15650SOL    HW248784   3.861  10.261   1.636
15651SOL     OW48785  10.946   9.071   4.085
15651SOL    HW148786  11.000   9.106   4.156
15651SOL    HW248787  10.865   9.122   4.089
15652SOL     OW48788   1.542   6.724   0.307
15652SOL    HW148789   1.493   6.798   0.271
15652SOL    HW248790   1.476   6.664   0.340
15653SOL     OW48791   2.967   3.257   3.569
15653SOL    HW148792   3.012   3.177   3.598
15653SOL    HW248793   2.891   3.263   3.627
15654SOL     OW48794  11.120   0.651   2.605
15654SOL    HW148795  11.079   0.721   2.555
15654SOL    HW248796  11.077   0.654   2.691
15655SOL     OW48797   5.396  13.635   8.172
15655SOL    HW148798   5.471  13.603   8.222
15655SOL    HW248799   5.430  13.712   8.125
15656SOL     OW48800   4.893   4.765   6.479
15656SOL    HW148801   4.892   4.841   6.537
15656SOL    HW248802   4.893   4.690   6.538
15657SOL     OW48803   9.377   9.857   0.153
15657SOL    HW148804   9.442   9.926   0.164
15657SOL    HW248805   9.341   9.871   0.065
15658SOL     OW48806   1.524   6.792   9.027
15658SOL    HW148807   1.598   6.806   8.968
15658SOL    HW248808   1.526   6.698   9.045
15659SOL     OW48809   2.600  13.824   4.729
15659SOL    HW148810   2.546  13.799   4.654
15659SOL    HW248811   2.577  13.762   4.797
15660SOL     OW48812   7.061   3.858  13.261
15660SOL    HW148813   7.131   3.804  13.296
15660SOL    HW248814   7.069   3.849  13.166
15661SOL     OW48815   2.241  13.282  12.961
15661SOL    HW148816   2.234  13.193  12.926
15661SOL    HW248817   2.239  13.339  12.885
15662SOL     OW48818  11.695  12.036   3.719
15662SOL    HW148819  11.689  12.016   3.625
15662SOL    HW248820  11.680  12.131   3.723
15663SOL     OW48821   8.693   5.589   9.217
15663SOL    HW148822   8.762   5.583   9.152
15663SOL    HW248823   8.697   5.680   9.248
15664SOL     OW48824   3.266   6.360   2.790
15664SOL    HW148825   3.282   6.381   2.882
15664SOL    HW248826   3.178   6.322   2.788
15665SOL     OW48827   1.129   5.998  14.231
15665SOL    HW148828   1.166   5.920  14.189
15665SOL    HW248829   1.195   6.024  14.295
15666SOL     OW48830   4.173   9.982   2.317
15666SOL    HW148831   4.156   9.948   2.405
15666SOL    HW248832   4.260   9.948   2.295
15667SOL     OW48833  10.808   3.489   6.512
15667SOL    HW148834  10.761   3.542   6.448
15667SOL    HW248835  10.757   3.408   6.518
15668SOL     OW48836   9.196   8.890   3.067
15668SOL    HW148837   9.265   8.881   3.134
15668SOL    HW248838   9.201   8.808   3.018
15669SOL     OW48839  10.396   5.925  11.539
15669SOL    HW148840  10.460   5.950  11.606
15669SOL    HW248841  10.315   5.910  11.588
15670SOL     OW48842   0.635   6.548   0.024
15670SOL    HW148843   0.662   6.458   0.009
15670SOL    HW248844   0.611   6.581  14.810
15671SOL     OW48845   8.722   8.716   8.785
15671SOL    HW148846   8.732   8.731   8.879
15671SOL    HW248847   8.755   8.628   8.770
15672SOL     OW48848   5.575   2.470  12.292
15672SOL    HW148849   5.482   2.468  12.316
15672SOL    HW248850   5.602   2.378  12.293
15673SOL     OW48851   4.857   7.629  12.759
15673SOL    HW148852   4.917   7.663  12.825
15673SOL    HW248853   4.904   7.558  12.717
15674SOL     OW48854   6.787  10.429  14.608
15674SOL    HW148855   6.738  10.505  14.577
15674SOL    HW248856   6.737  10.398  14.684
15675SOL     OW48857   3.050   8.132  12.977
15675SOL    HW148858   3.011   8.212  13.014
15675SOL    HW248859   3.018   8.062  13.034
15676SOL     OW48860   1.169   6.193   4.446
15676SOL    HW148861   1.159   6.288   4.451
15676SOL    HW248862   1.184   6.165   4.537
15677SOL     OW48863   0.056   7.879  11.581
15677SOL    HW148864   0.098   7.919  11.657
15677SOL    HW248865  14.850   7.933  11.567
15678SOL     OW48866  10.247  12.980   8.942
15678SOL    HW148867  10.302  12.905   8.965
15678SOL    HW248868  10.173  12.942   8.894
15679SOL     OW48869   4.826   1.653   8.404
15679SOL    HW148870   4.732   1.666   8.421
15679SOL    HW248871   4.842   1.697   8.321
15680SOL     OW48872  10.040   5.234  10.880
15680SOL    HW148873  10.080   5.310  10.922
15680SOL    HW248874  10.000   5.268  10.801
15681SOL     OW48875   0.345  10.275  10.113
15681SOL    HW148876   0.318  10.205  10.172
15681SOL    HW248877   0.380  10.229  10.036
15682SOL     OW48878  13.877  12.947   5.687
15682SOL    HW148879  13.919  12.917   5.767
15682SOL    HW248880  13.837  13.031   5.710
15683SOL     OW48881   9.453  11.738   3.964
15683SOL    HW148882   9.471  11.799   3.893
15683SOL    HW248883   9.357  11.732   3.967
15684SOL     OW48884   6.258   1.909   9.791
15684SOL    HW148885   6.295   1.989   9.754
15684SOL    HW248886   6.320   1.885   9.860
15685SOL     OW48887   3.801  14.735   2.259
15685SOL    HW148888   3.875  14.680   2.286
15685SOL    HW248889   3.786  14.793   2.334
15686SOL     OW48890   8.902   3.254  12.277
15686SOL    HW148891   8.987   3.209  12.272
15686SOL    HW248892   8.839   3.190  12.246
15687SOL     OW48893   1.447   2.848   3.862
15687SOL    HW148894   1.386   2.910   3.903
15687SOL    HW248895   1.473   2.790   3.934
15688SOL     OW48896   4.654  10.904   7.202
15688SOL    HW148897   4.748  10.917   7.205
15688SOL    HW248898   4.617  10.987   7.233
15689SOL     OW48899   5.892   3.531   8.261
15689SOL    HW148900   5.916   3.516   8.170
15689SOL    HW248901   5.807   3.488   8.272
15690SOL     OW48902   5.404   5.011  10.866
15690SOL    HW148903   5.309   4.997  10.861
15690SOL    HW248904   5.416   5.067  10.942
15691SOL     OW48905   5.801   9.000   8.426
15691SOL    HW148906   5.868   9.045   8.477
15691SOL    HW248907   5.817   8.907   8.443
15692SOL     OW48908   8.192  11.726  11.674
15692SOL    HW148909   8.180  11.807  11.723
15692SOL    HW248910   8.116  11.673  11.698
15693SOL     OW48911   1.443   2.705   3.428
15693SOL    HW148912   1.457   2.613   3.406
15693SOL    HW248913   1.393   2.703   3.510
15694SOL     OW48914   7.962  11.548   1.247
15694SOL    HW148915   7.963  11.473   1.188
15694SOL    HW248916   8.040  11.598   1.224
15695SOL     OW48917   7.203   6.158   0.928
15695SOL    HW148918   7.122   6.169   0.879
15695SOL    HW248919   7.192   6.212   1.007
15696SOL     OW48920   4.614   0.511   3.426
15696SOL    HW148921   4.546   0.462   3.473
15696SOL    HW248922   4.696   0.473   3.457
15697SOL     OW48923   7.308   6.511   1.952
15697SOL    HW148924   7.320   6.584   2.013
15697SOL    HW248925   7.330   6.434   2.004
15698SOL     OW48926   9.214  11.857   9.110
15698SOL    HW148927   9.295  11.908   9.108
15698SOL    HW248928   9.179  11.872   9.198
15699SOL     OW48929   0.746   9.534   1.351
15699SOL    HW148930   0.684   9.602   1.323
15699SOL    HW248931   0.828   9.558   1.308
15700SOL     OW48932   2.701   1.306  10.228
15700SOL    HW148933   2.785   1.293  10.184
15700SOL    HW248934   2.653   1.224  10.212
15701SOL     OW48935   5.685   4.903   4.092
15701SOL    HW148936   5.632   4.857   4.157
15701SOL    HW248937   5.653   4.994   4.095
15702SOL     OW48938   6.882   7.387   7.864
15702SOL    HW148939   6.889   7.476   7.829
15702SOL    HW248940   6.940   7.335   7.809
15703SOL     OW48941  14.589   1.985  12.782
15703SOL    HW148942  14.619   1.991  12.691
15703SOL    HW248943  14.497   1.960  12.776
15704SOL     OW48944  11.218  13.660   6.155
15704SOL    HW148945  11.132  13.686   6.187
15704SOL    HW248946  11.227  13.704   6.070
15705SOL     OW48947  10.359   8.368   1.852
15705SOL    HW148948  10.399   8.281   1.858
15705SOL    HW248949  10.334   8.389   1.942
15706SOL     OW48950   0.774  11.128   2.940
15706SOL    HW148951   0.782  11.050   2.995
15706SOL    HW248952   0.687  11.121   2.901
15707SOL     OW48953  12.824  11.693   5.262
15707SOL    HW148954  12.848  11.606   5.295
15707SOL    HW248955  12.798  11.741   5.341
15708SOL     OW48956   1.483  10.401   2.657
15708SOL    HW148957   1.518  10.362   2.737
15708SOL    HW248958   1.464  10.492   2.681
15709SOL     OW48959   0.348  14.442   1.814
15709SOL    HW148960   0.375  14.440   1.722
15709SOL    HW248961   0.269  14.496   1.815
15710SOL     OW48962   3.931  11.616   8.304
15710SOL    HW148963   4.024  11.637   8.293
15710SOL    HW248964   3.901  11.675   8.373
15711SOL     OW48965   9.544   1.629   1.624
15711SOL    HW148966   9.535   1.538   1.652
15711SOL    HW248967   9.462   1.647   1.576
15712SOL     OW48968   7.748  12.901  11.230
15712SOL    HW148969   7.803  12.846  11.175
15712SOL    HW248970   7.797  12.983  11.238
15713SOL     OW48971  12.054   3.272   9.710
15713SOL    HW148972  12.075   3.365   9.704
15713SOL    HW248973  12.129   3.233   9.756
15714SOL     OW48974   0.416  10.763   5.903
15714SOL    HW148975   0.400  10.680   5.857
15714SOL    HW248976   0.445  10.823   5.834
15715SOL     OW48977  13.101  12.110   4.664
15715SOL    HW148978  13.062  12.162   4.735
15715SOL    HW248979  13.083  12.160   4.585
15716SOL     OW48980   4.361   0.528  10.085
15716SOL    HW148981   4.399   0.559  10.167
15716SOL    HW248982   4.394   0.439  10.075
15717SOL     OW48983   1.738  10.544   2.736
15717SOL    HW148984   1.658  10.596   2.728
15717SOL    HW248985   1.783  10.556   2.652
15718SOL     OW48986   9.280   4.055  13.336
15718SOL    HW148987   9.336   3.980  13.320
15718SOL    HW248988   9.225   4.062  13.258
15719SOL     OW48989   0.553   8.781   7.758
15719SOL    HW148990   0.560   8.770   7.852
15719SOL    HW248991   0.644   8.777   7.727
15720SOL     OW48992   6.580   5.420  10.724
15720SOL    HW148993   6.608   5.502  10.764
15720SOL    HW248994   6.587   5.355  10.794
15721SOL     OW48995   0.192   1.659   3.760
15721SOL    HW148996   0.201   1.698   3.846
15721SOL    HW248997   0.182   1.565   3.777
15722SOL     OW48998  10.306   2.662   0.105
15722SOL    HW148999  10.304   2.758   0.100
15722SOL    HW249000  10.370   2.636   0.038
15723SOL     OW49001  13.289   9.250   3.567
15723SOL    HW149002  13.255   9.331   3.529
15723SOL    HW249003  13.211   9.199   3.588
15724SOL     OW49004   2.301   8.835  12.383
15724SOL    HW149005   2.339   8.909  12.334
15724SOL    HW249006   2.369   8.813  12.448
15725SOL     OW49007  13.122   0.897   9.788
15725SOL    HW149008  13.067   0.836   9.738
15725SOL    HW249009  13.172   0.840   9.847
15726SOL     OW49010  10.827   6.422   2.620
15726SOL    HW149011  10.821   6.443   2.713
15726SOL    HW249012  10.877   6.494   2.582
15727SOL     OW49013   3.733   0.061   7.436
15727SOL    HW149014   3.761   0.092   7.522
15727SOL    HW249015   3.737   0.138   7.379
15728SOL     OW49016   0.057  14.360   5.274
15728SOL    HW149017   0.008  14.329   5.350
15728SOL    HW249018   0.138  14.397   5.311
15729SOL     OW49019  11.118  14.267   0.865
15729SOL    HW149020  11.086  14.354   0.841
15729SOL    HW249021  11.038  14.215   0.876
15730SOL     OW49022   7.658   4.222   4.439
15730SOL    HW149023   7.684   4.306   4.401
15730SOL    HW249024   7.727   4.201   4.502
15731SOL     OW49025  13.898  10.421   9.335
15731SOL    HW149026  13.849  10.492   9.293
15731SOL    HW249027  13.831  10.359   9.364
15732SOL     OW49028   5.132   3.201   9.162
15732SOL    HW149029   5.071   3.183   9.234
15732SOL    HW249030   5.155   3.293   9.173
15733SOL     OW49031   3.421   4.920   0.665
15733SOL    HW149032   3.498   4.864   0.665
15733SOL    HW249033   3.353   4.868   0.623
15734SOL     OW49034  10.802   5.767  12.671
15734SOL    HW149035  10.789   5.695  12.733
15734SOL    HW249036  10.728   5.826  12.686
15735SOL     OW49037   7.619   5.586  13.768
15735SOL    HW149038   7.530   5.621  13.778
15735SOL    HW249039   7.672   5.662  13.746
15736SOL     OW49040   1.417   7.000   3.440
15736SOL    HW149041   1.381   7.013   3.528
15736SOL    HW249042   1.354   6.942   3.397
15737SOL     OW49043  11.501   0.066  10.386
15737SOL    HW149044  11.407   0.053  10.397
15737SOL    HW249045  11.519   0.034  10.298
15738SOL     OW49046  12.983   8.466  14.752
15738SOL    HW149047  12.970   8.561  14.764
15738SOL    HW249048  12.913   8.440  14.692
15739SOL     OW49049  13.183   9.963   0.529
15739SOL    HW149050  13.204  10.055   0.509
15739SOL    HW249051  13.090   9.955   0.508
15740SOL     OW49052   5.747   5.811   6.580
15740SOL    HW149053   5.726   5.769   6.497
15740SOL    HW249054   5.840   5.833   6.573
15741SOL     OW49055  10.171   5.406   8.483
15741SOL    HW149056  10.189   5.482   8.537
15741SOL    HW249057  10.236   5.341   8.509
15742SOL     OW49058   6.579  10.520   0.389
15742SOL    HW149059   6.573  10.543   0.296
15742SOL    HW249060   6.537  10.593   0.434
15743SOL     OW49061   5.114   9.082   3.245
15743SOL    HW149062   5.096   9.039   3.161
15743SOL    HW249063   5.198   9.044   3.273
15744SOL     OW49064   4.996  10.368  13.811
15744SOL    HW149065   5.068  10.344  13.870
15744SOL    HW249066   4.929  10.404  13.869
15745SOL     OW49067   0.914   8.193  12.153
15745SOL    HW149068   1.000   8.152  12.158
15745SOL    HW249069   0.920   8.271  12.208
15746SOL     OW49070   1.123   1.044   2.750
15746SOL    HW149071   1.136   0.961   2.796
15746SOL    HW249072   1.032   1.041   2.720
15747SOL     OW49073   4.523   1.915   6.061
15747SOL    HW149074   4.486   2.004   6.060
15747SOL    HW249075   4.448   1.859   6.042
15748SOL     OW49076  13.838   0.219   3.500
15748SOL    HW149077  13.859   0.255   3.414
15748SOL    HW249078  13.922   0.192   3.537
15749SOL     OW49079   0.522   8.017   5.671
15749SOL    HW149080   0.537   7.939   5.724
15749SOL    HW249081   0.547   8.090   5.728
15750SOL     OW49082   6.975   4.204   7.079
15750SOL    HW149083   7.036   4.211   7.152
15750SOL    HW249084   6.963   4.294   7.048
15751SOL     OW49085   3.221   0.278   5.430
15751SOL    HW149086   3.224   0.349   5.493
15751SOL    HW249087   3.179   0.206   5.476
15752SOL     OW49088   1.387   6.176   2.732
15752SOL    HW149089   1.476   6.151   2.756
15752SOL    HW249090   1.338   6.175   2.815
15753SOL     OW49091   9.205  11.539   0.588
15753SOL    HW149092   9.264  11.465   0.603
15753SOL    HW249093   9.120  11.508   0.621
15754SOL     OW49094  12.924   9.495   6.865
15754SOL    HW149095  12.852   9.522   6.922
15754SOL    HW249096  12.983   9.447   6.923
15755SOL     OW49097  11.848   3.116  14.681
15755SOL    HW149098  11.913   3.049  14.660
15755SOL    HW249099  11.792   3.120  14.603
15756SOL     OW49100  12.472   6.850   1.423
15756SOL    HW149101  12.377   6.840   1.424
15756SOL    HW249102  12.489   6.936   1.461
15757SOL     OW49103   7.754   2.237   9.296
15757SOL    HW149104   7.815   2.233   9.223
15757SOL    HW249105   7.742   2.145   9.321
15758SOL     OW49106  12.641  10.681   5.950
15758SOL    HW149107  12.650  10.777   5.943
15758SOL    HW249108  12.581  10.657   5.879
15759SOL     OW49109  11.163   5.477   5.677
15759SOL    HW149110  11.164   5.383   5.660
15759SOL    HW249111  11.189   5.485   5.768
15760SOL     OW49112   3.201   9.066   6.235
15760SOL    HW149113   3.272   9.109   6.187
15760SOL    HW249114   3.155   9.014   6.169
15761SOL     OW49115   6.999   4.220   5.507
15761SOL    HW149116   6.903   4.221   5.511
15761SOL    HW249117   7.024   4.312   5.510
15762SOL     OW49118   8.821   6.497   5.207
15762SOL    HW149119   8.840   6.421   5.263
15762SOL    HW249120   8.907   6.534   5.187
15763SOL     OW49121   7.774  13.307   7.441
15763SOL    HW149122   7.781  13.227   7.493
15763SOL    HW249123   7.758  13.376   7.506
15764SOL     OW49124   8.218  13.164  13.364
15764SOL    HW149125   8.299  13.113  13.354
15764SOL    HW249126   8.234  13.244  13.314
15765SOL     OW49127  10.762  14.339   9.125
15765SOL    HW149128  10.823  14.266   9.130
15765SOL    HW249129  10.815  14.413   9.093
15766SOL     OW49130   1.568  11.180   2.342
15766SOL    HW149131   1.580  11.228   2.424
15766SOL    HW249132   1.475  11.189   2.323
15767SOL     OW49133   0.615   9.937   1.323
15767SOL    HW149134   0.625   9.845   1.295
15767SOL    HW249135   0.533   9.938   1.373
15768SOL     OW49136  11.664   4.311   6.696
15768SOL    HW149137  11.595   4.262   6.742
15768SOL    HW249138  11.617   4.364   6.632
15769SOL     OW49139   8.862  14.513  13.229
15769SOL    HW149140   8.815  14.581  13.180
15769SOL    HW249141   8.933  14.560  13.273
15770SOL     OW49142   0.314   8.109   7.342
15770SOL    HW149143   0.392   8.097   7.288
15770SOL    HW249144   0.273   8.023   7.345
15771SOL     OW49145   1.272   5.828  11.820
15771SOL    HW149146   1.288   5.760  11.754
15771SOL    HW249147   1.182   5.813  11.848
15772SOL     OW49148   3.954   8.152   7.435
15772SOL    HW149149   3.887   8.135   7.501
15772SOL    HW249150   4.001   8.069   7.427
15773SOL     OW49151  13.365  11.204  11.692
15773SOL    HW149152  13.433  11.171  11.751
15773SOL    HW249153  13.324  11.125  11.656
15774SOL     OW49154   9.047   0.860  14.305
15774SOL    HW149155   8.991   0.922  14.352
15774SOL    HW249156   8.987   0.811  14.249
15775SOL     OW49157  12.973  14.851   8.267
15775SOL    HW149158  12.922   0.016   8.195
15775SOL    HW249159  12.981  14.758   8.244
15776SOL     OW49160   7.418   1.160  12.716
15776SOL    HW149161   7.374   1.217  12.778
15776SOL    HW249162   7.362   1.083  12.709
15777SOL     OW49163   0.664   7.945   6.376
15777SOL    HW149164   0.612   7.866   6.389
15777SOL    HW249165   0.612   7.999   6.317
15778SOL     OW49166   6.418   7.601   0.212
15778SOL    HW149167   6.451   7.516   0.183
15778SOL    HW249168   6.371   7.635   0.135
15779SOL     OW49169  13.670   0.082  12.982
15779SOL    HW149170  13.644  14.871  12.944
15779SOL    HW249171  13.611   0.146  12.942
15780SOL     OW49172   2.981   3.369   6.942
15780SOL    HW149173   2.925   3.384   6.866
15780SOL    HW249174   2.945   3.291   6.983
15781SOL     OW49175   7.265   3.574   2.761
15781SOL    HW149176   7.342   3.593   2.707
15781SOL    HW249177   7.260   3.479   2.763
15782SOL     OW49178   5.223   4.041   1.838
15782SOL    HW149179   5.242   4.135   1.842
15782SOL    HW249180   5.295   4.005   1.786
15783SOL     OW49181   5.326  10.338   5.966
15783SOL    HW149182   5.333  10.384   5.883
15783SOL    HW249183   5.395  10.375   6.021
15784SOL     OW49184  13.468   0.896  14.595
15784SOL    HW149185  13.449   0.979  14.552
15784SOL    HW249186  13.408   0.894  14.670
15785SOL     OW49187   2.007  13.039   1.199
15785SOL    HW149188   1.987  13.001   1.284
15785SOL    HW249189   2.082  12.989   1.167
15786SOL     OW49190  10.051   3.886   6.215
15786SOL    HW149191  10.092   3.800   6.229
15786SOL    HW249192  10.124   3.948   6.217
15787SOL     OW49193   5.296   3.233   3.868
15787SOL    HW149194   5.257   3.170   3.807
15787SOL    HW249195   5.361   3.279   3.816
15788SOL     OW49196   3.326  13.618  11.517
15788SOL    HW149197   3.391  13.689  11.513
15788SOL    HW249198   3.246  13.656  11.480
15789SOL     OW49199   5.045  14.032   8.440
15789SOL    HW149200   5.055  14.025   8.535
15789SOL    HW249201   5.017  14.123   8.426
15790SOL     OW49202   6.964   9.168   2.032
15790SOL    HW149203   6.978   9.107   2.104
15790SOL    HW249204   6.882   9.213   2.054
15791SOL     OW49205   5.444  11.008   7.704
15791SOL    HW149206   5.527  10.964   7.722
15791SOL    HW249207   5.452  11.040   7.614
15792SOL     OW49208   9.524   4.058   4.342
15792SOL    HW149209   9.605   4.096   4.309
15792SOL    HW249210   9.515   4.095   4.430
15793SOL     OW49211   8.170   1.796   5.339
15793SOL    HW149212   8.135   1.749   5.415
15793SOL    HW249213   8.138   1.886   5.349
15794SOL     OW49214   6.537  13.578  14.424
15794SOL    HW149215   6.613  13.524  14.404
15794SOL    HW249216   6.573  13.666  14.438
15795SOL     OW49217   7.324   9.135  13.262
15795SOL    HW149218   7.413   9.153  13.233
15795SOL    HW249219   7.282   9.221  13.267
15796SOL     OW49220   7.352   6.013  13.090
15796SOL    HW149221   7.327   5.965  13.011
15796SOL    HW249222   7.270   6.022  13.138
15797SOL     OW49223   8.332   8.909   9.917
15797SOL    HW149224   8.296   8.891  10.004
15797SOL    HW249225   8.375   8.994   9.927
15798SOL     OW49226  12.289   4.356   5.298
15798SOL    HW149227  12.290   4.378   5.205
15798SOL    HW249228  12.261   4.437   5.342
15799SOL     OW49229   3.079   1.083  10.954
15799SOL    HW149230   3.161   1.034  10.952
15799SOL    HW249231   3.089   1.150  10.886
15800SOL     OW49232   2.830   1.840   8.082
15800SOL    HW149233   2.745   1.874   8.053
15800SOL    HW249234   2.859   1.784   8.011
15801SOL     OW49235   2.763  12.061   5.547
15801SOL    HW149236   2.839  12.009   5.522
15801SOL    HW249237   2.766  12.063   5.643
15802SOL     OW49238   4.136  12.952   0.701
15802SOL    HW149239   4.107  12.920   0.786
15802SOL    HW249240   4.183  13.033   0.721
15803SOL     OW49241   0.676   2.666   5.812
15803SOL    HW149242   0.749   2.618   5.773
15803SOL    HW249243   0.714   2.710   5.887
15804SOL     OW49244   7.972   8.693   6.198
15804SOL    HW149245   7.893   8.667   6.246
15804SOL    HW249246   7.965   8.647   6.115
15805SOL     OW49247   3.403   5.674   0.119
15805SOL    HW149248   3.391   5.580   0.106
15805SOL    HW249249   3.355   5.715   0.048
15806SOL     OW49250   6.349   9.062  14.678
15806SOL    HW149251   6.344   8.967  14.694
15806SOL    HW249252   6.392   9.097  14.756
15807SOL     OW49253   5.150   8.857  11.600
15807SOL    HW149254   5.108   8.943  11.596
15807SOL    HW249255   5.223   8.868  11.660
15808SOL     OW49256   3.808  13.251  11.180
15808SOL    HW149257   3.849  13.273  11.264
15808SOL    HW249258   3.730  13.201  11.205
15809SOL     OW49259   9.213   1.754   0.562
15809SOL    HW149260   9.267   1.741   0.640
15809SOL    HW249261   9.129   1.786   0.595
15810SOL     OW49262   4.737   0.116   0.268
15810SOL    HW149263   4.736   0.043   0.207
15810SOL    HW249264   4.649   0.154   0.261
15811SOL     OW49265  10.043  13.568  12.629
15811SOL    HW149266  10.026  13.655  12.593
15811SOL    HW249267   9.992  13.565  12.710
15812SOL     OW49268   1.283   0.301  10.020
15812SOL    HW149269   1.252   0.391  10.015
15812SOL    HW249270   1.372   0.307  10.052
15813SOL     OW49271   7.540  10.761  13.385
15813SOL    HW149272   7.622  10.781  13.340
15813SOL    HW249273   7.555  10.790  13.476
15814SOL     OW49274   4.339   8.737   4.133
15814SOL    HW149275   4.302   8.651   4.112
15814SOL    HW249276   4.327   8.746   4.228
15815SOL     OW49277   1.410   5.328   5.135
15815SOL    HW149278   1.505   5.324   5.139
15815SOL    HW249279   1.382   5.347   5.225
15816SOL     OW49280   0.090  13.923  14.443
15816SOL    HW149281   0.039  13.934  14.363
15816SOL    HW249282   0.086  14.009  14.485
15817SOL     OW49283   1.783   3.566   3.876
15817SOL    HW149284   1.785   3.660   3.891
15817SOL    HW249285   1.793   3.556   3.781
15818SOL     OW49286  13.489   4.817   4.711
15818SOL    HW149287  13.524   4.754   4.774
15818SOL    HW249288  13.478   4.897   4.761
15819SOL     OW49289  11.101   5.538   0.596
15819SOL    HW149290  11.041   5.610   0.578
15819SOL    HW249291  11.048   5.459   0.581
15820SOL     OW49292  13.921  12.616  11.003
15820SOL    HW149293  13.890  12.685  11.061
15820SOL    HW249294  14.006  12.591  11.039
15821SOL     OW49295   9.781   5.558   5.990
15821SOL    HW149296   9.853   5.536   6.049
15821SOL    HW249297   9.742   5.637   6.027
15822SOL     OW49298   3.132  11.025   9.450
15822SOL    HW149299   3.050  11.035   9.499
15822SOL    HW249300   3.190  10.978   9.510
15823SOL     OW49301   7.469   0.221   6.670
15823SOL    HW149302   7.445   0.312   6.685
15823SOL    HW249303   7.456   0.178   6.754
15824SOL     OW49304   4.198   7.753   3.417
15824SOL    HW149305   4.109   7.731   3.445
15824SOL    HW249306   4.187   7.799   3.334
15825SOL     OW49307   1.564  12.795  10.811
15825SOL    HW149308   1.613  12.875  10.826
15825SOL    HW249309   1.479  12.825  10.779
15826SOL     OW49310  13.418  12.357   3.521
15826SOL    HW149311  13.492  12.399   3.477
15826SOL    HW249312  13.457  12.303   3.589
15827SOL     OW49313   3.759   7.863  12.127
15827SOL    HW149314   3.674   7.886  12.166
15827SOL    HW249315   3.745   7.873  12.032
15828SOL     OW49316  11.284   7.074   5.790
15828SOL    HW149317  11.379   7.083   5.782
15828SOL    HW249318  11.265   7.101   5.880
15829SOL     OW49319  13.083   4.162   7.445
15829SOL    HW149320  13.103   4.114   7.525
15829SOL    HW249321  12.989   4.148   7.432
15830SOL     OW49322   5.482  13.353  14.180
15830SOL    HW149323   5.464  13.411  14.107
15830SOL    HW249324   5.470  13.265  14.145
15831SOL     OW49325  10.868   7.115   1.778
15831SOL    HW149326  10.815   7.047   1.820
15831SOL    HW249327  10.915   7.157   1.851
15832SOL     OW49328   8.375   4.798   0.627
15832SOL    HW149329   8.305   4.803   0.562
15832SOL    HW249330   8.401   4.706   0.627
15833SOL     OW49331  10.305   7.942   1.259
15833SOL    HW149332  10.330   7.951   1.167
15833SOL    HW249333  10.213   7.914   1.256
15834SOL     OW49334  14.394  11.541  12.305
15834SOL    HW149335  14.334  11.606  12.342
15834SOL    HW249336  14.339  11.465  12.289
15835SOL     OW49337  10.196   5.921  10.633
15835SOL    HW149338  10.189   5.880  10.720
15835SOL    HW249339  10.120   5.977  10.627
15836SOL     OW49340  10.669  10.441   8.180
15836SOL    HW149341  10.688  10.354   8.216
15836SOL    HW249342  10.739  10.456   8.116
15837SOL     OW49343  13.097   7.924   6.939
15837SOL    HW149344  13.193   7.929   6.939
15837SOL    HW249345  13.077   7.853   7.000
15838SOL     OW49346  13.650  14.662  14.138
15838SOL    HW149347  13.559  14.642  14.158
15838SOL    HW249348  13.656  14.656  14.043
15839SOL     OW49349   6.753   1.558   2.718
15839SOL    HW149350   6.720   1.614   2.788
15839SOL    HW249351   6.803   1.617   2.662
15840SOL     OW49352  11.227   1.562  10.411
15840SOL    HW149353  11.211   1.497  10.479
15840SOL    HW249354  11.243   1.644  10.458
15841SOL     OW49355   7.601   2.715   5.892
15841SOL    HW149356   7.564   2.682   5.973
15841SOL    HW249357   7.646   2.640   5.854
15842SOL     OW49358  14.634   1.685  10.275
15842SOL    HW149359  14.669   1.664  10.361
15842SOL    HW249360  14.694   1.642  10.214
15843SOL     OW49361  10.494   9.049  10.404
15843SOL    HW149362  10.576   9.079  10.364
15843SOL    HW249363  10.435   9.035  10.331
15844SOL     OW49364  13.478   2.739   2.363
15844SOL    HW149365  13.441   2.804   2.423
15844SOL    HW249366  13.556   2.706   2.409
15845SOL     OW49367   2.654   9.572  13.533
15845SOL    HW149368   2.688   9.484  13.552
15845SOL    HW249369   2.671   9.621  13.614
15846SOL     OW49370  14.138   8.808   3.007
15846SOL    HW149371  14.165   8.724   3.045
15846SOL    HW249372  14.071   8.784   2.942
15847SOL     OW49373   5.515   8.234   8.560
15847SOL    HW149374   5.445   8.285   8.520
15847SOL    HW249375   5.529   8.161   8.500
15848SOL     OW49376   7.481   2.276  12.827
15848SOL    HW149377   7.412   2.245  12.767
15848SOL    HW249378   7.501   2.200  12.882
15849SOL     OW49379  12.167  10.457   4.039
15849SOL    HW149380  12.204  10.431   4.123
15849SOL    HW249381  12.087  10.405   4.030
15850SOL     OW49382  13.753   5.364  13.920
15850SOL    HW149383  13.732   5.450  13.955
15850SOL    HW249384  13.842   5.347  13.951
15851SOL     OW49385   5.479   3.180  11.640
15851SOL    HW149386   5.513   3.269  11.639
15851SOL    HW249387   5.540   3.130  11.586
15852SOL     OW49388   6.670   8.606   2.552
15852SOL    HW149389   6.699   8.667   2.621
15852SOL    HW249390   6.740   8.541   2.549
15853SOL     OW49391  11.056   0.144   8.814
15853SOL    HW149392  11.067   0.050   8.832
15853SOL    HW249393  11.104   0.187   8.885
15854SOL     OW49394  12.744  13.719  10.911
15854SOL    HW149395  12.765  13.726  10.818
15854SOL    HW249396  12.686  13.794  10.927
15855SOL     OW49397  10.600  13.717   4.712
15855SOL    HW149398  10.694  13.706   4.726
15855SOL    HW249399  10.560  13.700   4.797
15856SOL     OW49400  10.883  11.699  12.242
15856SOL    HW149401  10.978  11.691  12.236
15856SOL    HW249402  10.868  11.794  12.235
15857SOL     OW49403  12.661  12.007   4.619
15857SOL    HW149404  12.609  11.929   4.600
15857SOL    HW249405  12.741  11.974   4.659
15858SOL     OW49406  13.887   9.829   5.570
15858SOL    HW149407  13.875   9.734   5.564
15858SOL    HW249408  13.806   9.862   5.607
15859SOL     OW49409  11.850   1.054   4.949
15859SOL    HW149410  11.808   1.089   5.028
15859SOL    HW249411  11.816   1.108   4.878
15860SOL     OW49412   8.863   4.475   5.783
15860SOL    HW149413   8.804   4.549   5.767
15860SOL    HW249414   8.805   4.402   5.802
15861SOL     OW49415   4.561   2.837   0.432
15861SOL    HW149416   4.518   2.752   0.444
15861SOL    HW249417   4.587   2.863   0.520
15862SOL     OW49418   4.489   3.065   3.935
15862SOL    HW149419   4.533   2.980   3.938
15862SOL    HW249420   4.435   3.067   4.013
15863SOL     OW49421  10.883   1.545   6.004
15863SOL    HW149422  10.967   1.551   6.050
15863SOL    HW249423  10.881   1.457   5.968
15864SOL     OW49424   1.629   2.063   8.614
15864SOL    HW149425   1.637   2.066   8.519
15864SOL    HW249426   1.706   2.108   8.647
15865SOL     OW49427   6.428   3.442   9.474
15865SOL    HW149428   6.362   3.443   9.405
15865SOL    HW249429   6.464   3.353   9.472
15866SOL     OW49430  13.991  12.067   6.065
15866SOL    HW149431  13.996  12.062   6.160
15866SOL    HW249432  14.001  12.160   6.045
15867SOL     OW49433   1.008  13.227   9.229
15867SOL    HW149434   1.030  13.306   9.180
15867SOL    HW249435   1.079  13.217   9.292
15868SOL     OW49436   8.197  10.546  11.273
15868SOL    HW149437   8.215  10.509  11.186
15868SOL    HW249438   8.122  10.496  11.305
15869SOL     OW49439   4.653  14.852  14.371
15869SOL    HW149440   4.586   0.031  14.328
15869SOL    HW249441   4.724  14.846  14.306
15870SOL     OW49442   4.721   4.081  11.110
15870SOL    HW149443   4.712   4.163  11.061
15870SOL    HW249444   4.774   4.104  11.186
15871SOL     OW49445  14.689   5.885   3.782
15871SOL    HW149446  14.602   5.914   3.753
15871SOL    HW249447  14.729   5.847   3.704
15872SOL     OW49448  14.867  13.708  13.332
15872SOL    HW149449  14.840  13.747  13.415
15872SOL    HW249450   0.073  13.658  13.354
15873SOL     OW49451  10.569   4.268   1.567
15873SOL    HW149452  10.502   4.335   1.552
15873SOL    HW249453  10.597   4.282   1.658
15874SOL     OW49454   6.912   3.971   1.326
15874SOL    HW149455   6.855   3.932   1.259
15874SOL    HW249456   6.971   4.027   1.276
15875SOL     OW49457   4.749  13.155  13.378
15875SOL    HW149458   4.797  13.106  13.445
15875SOL    HW249459   4.768  13.109  13.296
15876SOL     OW49460  10.784  10.502   9.533
15876SOL    HW149461  10.704  10.492   9.483
15876SOL    HW249462  10.767  10.457   9.616
15877SOL     OW49463   7.174   8.269   6.402
15877SOL    HW149464   7.261   8.279   6.362
15877SOL    HW249465   7.132   8.354   6.389
15878SOL     OW49466   9.957   9.357   9.447
15878SOL    HW149467  10.044   9.343   9.409
15878SOL    HW249468   9.953   9.451   9.463
15879SOL     OW49469   8.162   3.748   4.065
15879SOL    HW149470   8.174   3.775   4.156
15879SOL    HW249471   8.124   3.825   4.022
15880SOL     OW49472   8.878   2.713   0.510
15880SOL    HW149473   8.826   2.793   0.507
15880SOL    HW249474   8.939   2.728   0.583
15881SOL     OW49475  14.051   0.655  12.508
15881SOL    HW149476  14.070   0.590  12.576
15881SOL    HW249477  13.961   0.638  12.482
15882SOL     OW49478   7.817  11.041   8.233
15882SOL    HW149479   7.817  11.112   8.297
15882SOL    HW249480   7.728  11.006   8.234
15883SOL     OW49481   1.413   5.548   2.877
15883SOL    HW149482   1.372   5.463   2.892
15883SOL    HW249483   1.473   5.534   2.804
15884SOL     OW49484   3.127   5.643   0.507
15884SOL    HW149485   3.055   5.705   0.516
15884SOL    HW249486   3.119   5.586   0.583
15885SOL     OW49487   7.513   4.907  13.017
15885SOL    HW149488   7.466   4.867  13.090
15885SOL    HW249489   7.478   4.996  13.012
15886SOL     OW49490   9.903   3.626   8.174
15886SOL    HW149491   9.922   3.576   8.254
15886SOL    HW249492   9.821   3.589   8.141
15887SOL     OW49493  13.051   0.604   5.225
15887SOL    HW149494  13.068   0.521   5.182
15887SOL    HW249495  12.965   0.593   5.267
15888SOL     OW49496   9.815  14.507   1.126
15888SOL    HW149497   9.876  14.573   1.159
15888SOL    HW249498   9.859  14.424   1.141
15889SOL     OW49499  10.451  13.247  11.563
15889SOL    HW149500  10.357  13.264  11.572
15889SOL    HW249501  10.465  13.164  11.609
15890SOL     OW49502   9.819   8.928   2.199
15890SOL    HW149503   9.914   8.929   2.187
15890SOL    HW249504   9.789   9.012   2.166
15891SOL     OW49505   1.720  13.502  11.905
15891SOL    HW149506   1.746  13.493  11.996
15891SOL    HW249507   1.629  13.475  11.902
15892SOL     OW49508  13.154   6.790  12.101
15892SOL    HW149509  13.084   6.836  12.055
15892SOL    HW249510  13.117   6.770  12.187
15893SOL     OW49511   0.330   9.292  13.131
15893SOL    HW149512   0.351   9.272  13.040
15893SOL    HW249513   0.410   9.332  13.166
15894SOL     OW49514   3.965   8.843   4.440
15894SOL    HW149515   3.936   8.853   4.530
15894SOL    HW249516   3.969   8.749   4.426
15895SOL     OW49517   1.092  12.306  13.371
15895SOL    HW149518   1.180  12.294  13.407
15895SOL    HW249519   1.043  12.350  13.440
15896SOL     OW49520   8.627   1.477   0.693
15896SOL    HW149521   8.626   1.446   0.602
15896SOL    HW249522   8.633   1.573   0.685
15897SOL     OW49523   9.392   3.965  10.151
15897SOL    HW149524   9.355   3.952  10.064
15897SOL    HW249525   9.374   4.057  10.172
15898SOL     OW49526   5.240   7.541  10.346
15898SOL    HW149527   5.170   7.538  10.411
15898SOL    HW249528   5.196   7.526  10.262
15899SOL     OW49529   7.808  13.442   6.950
15899SOL    HW149530   7.812  13.371   7.014
15899SOL    HW249531   7.726  13.487   6.971
15900SOL     OW49532   1.657   4.906   8.018
15900SOL    HW149533   1.697   4.910   8.104
15900SOL    HW249534   1.632   4.997   7.999
15901SOL     OW49535   8.731  12.208   8.920
15901SOL    HW149536   8.752  12.116   8.937
15901SOL    HW249537   8.642  12.219   8.953
15902SOL     OW49538  13.860  11.152   4.859
15902SOL    HW149539  13.890  11.066   4.887
15902SOL    HW249540  13.869  11.208   4.937
15903SOL     OW49541  14.677   0.295   2.328
15903SOL    HW149542  14.642   0.246   2.403
15903SOL    HW249543  14.663   0.238   2.253
15904SOL     OW49544   3.025   6.699   9.509
15904SOL    HW149545   3.082   6.680   9.434
15904SOL    HW249546   3.043   6.791   9.529
15905SOL     OW49547   2.779  14.415   0.554
15905SOL    HW149548   2.686  14.422   0.575
15905SOL    HW249549   2.803  14.326   0.581
15906SOL     OW49550   9.316   0.911  10.828
15906SOL    HW149551   9.325   0.830  10.879
15906SOL    HW249552   9.226   0.909  10.796
15907SOL     OW49553   1.066   9.527   4.240
15907SOL    HW149554   1.098   9.513   4.151
15907SOL    HW249555   0.979   9.486   4.242
15908SOL     OW49556   4.189   1.888   4.056
15908SOL    HW149557   4.198   1.883   3.961
15908SOL    HW249558   4.271   1.927   4.085
15909SOL     OW49559  14.255   6.568  13.518
15909SOL    HW149560  14.176   6.553  13.570
15909SOL    HW249561  14.227   6.625  13.446
15910SOL     OW49562  10.264   2.208   2.525
15910SOL    HW149563  10.344   2.259   2.536
15910SOL    HW249564  10.286   2.122   2.562
15911SOL     OW49565  14.470   3.574   3.041
15911SOL    HW149566  14.469   3.534   3.128
15911SOL    HW249567  14.410   3.520   2.989
15912SOL     OW49568  12.897   2.150   8.497
15912SOL    HW149569  12.967   2.108   8.547
15912SOL    HW249570  12.867   2.082   8.436
15913SOL     OW49571   7.088  14.667   2.515
15913SOL    HW149572   7.104  14.663   2.609
15913SOL    HW249573   7.013  14.608   2.501
15914SOL     OW49574  14.515   4.322   7.962
15914SOL    HW149575  14.575   4.385   7.922
15914SOL    HW249576  14.499   4.356   8.050
15915SOL     OW49577  13.106   6.684   9.284
15915SOL    HW149578  13.087   6.739   9.360
15915SOL    HW249579  13.081   6.738   9.209
15916SOL     OW49580  14.127   8.826   1.197
15916SOL    HW149581  14.132   8.905   1.143
15916SOL    HW249582  14.165   8.758   1.142
15917SOL     OW49583   1.433   2.318   4.368
15917SOL    HW149584   1.414   2.297   4.459
15917SOL    HW249585   1.448   2.412   4.367
15918SOL     OW49586   4.121   5.139   9.206
15918SOL    HW149587   4.135   5.045   9.216
15918SOL    HW249588   4.204   5.173   9.174
15919SOL     OW49589   5.271   1.703  11.142
15919SOL    HW149590   5.178   1.680  11.145
15919SOL    HW249591   5.299   1.682  11.053
15920SOL     OW49592   7.565   9.472  14.487
15920SOL    HW149593   7.620   9.394  14.485
15920SOL    HW249594   7.617   9.540  14.444
15921SOL     OW49595   6.724  11.213  14.852
15921SOL    HW149596   6.771  11.219   0.063
15921SOL    HW249597   6.670  11.292  14.849
15922SOL     OW49598  13.740   2.044   2.025
15922SOL    HW149599  13.801   2.035   2.098
15922SOL    HW249600  13.793   2.076   1.952
15923SOL     OW49601   1.434   2.377   4.968
15923SOL    HW149602   1.353   2.346   5.008
15923SOL    HW249603   1.494   2.389   5.042
15924SOL     OW49604  12.722   7.591  13.826
15924SOL    HW149605  12.645   7.542  13.795
15924SOL    HW249606  12.758   7.630  13.746
15925SOL     OW49607   6.388  11.241   7.897
15925SOL    HW149608   6.423  11.323   7.860
15925SOL    HW249609   6.433  11.232   7.981
15926SOL     OW49610   6.436  10.441  10.568
15926SOL    HW149611   6.375  10.456  10.496
15926SOL    HW249612   6.413  10.507  10.633
15927SOL     OW49613  14.183   8.539  13.492
15927SOL    HW149614  14.092   8.522  13.466
15927SOL    HW249615  14.235   8.516  13.415
15928SOL     OW49616   0.742  13.572   2.358
15928SOL    HW149617   0.743  13.662   2.392
15928SOL    HW249618   0.779  13.579   2.270
15929SOL     OW49619  12.088   7.360   9.109
15929SOL    HW149620  12.150   7.378   9.180
15929SOL    HW249621  12.094   7.437   9.052
15930SOL     OW49622   8.976   2.770   6.275
15930SOL    HW149623   8.929   2.813   6.346
15930SOL    HW249624   8.908   2.727   6.223
15931SOL     OW49625  12.948   7.388   6.362
15931SOL    HW149626  12.939   7.297   6.335
15931SOL    HW249627  12.859   7.422   6.362
15932SOL     OW49628   1.317  11.939   8.647
15932SOL    HW149629   1.394  11.962   8.596
15932SOL    HW249630   1.277  11.867   8.599
15933SOL     OW49631   4.222   5.681   2.235
15933SOL    HW149632   4.160   5.650   2.302
15933SOL    HW249633   4.291   5.724   2.285
15934SOL     OW49634   2.007  12.197   8.586
15934SOL    HW149635   2.090  12.189   8.633
15934SOL    HW249636   1.948  12.137   8.632
15935SOL     OW49637  11.607   1.681   3.292
15935SOL    HW149638  11.620   1.754   3.352
15935SOL    HW249639  11.529   1.704   3.242
15936SOL     OW49640   5.989  13.252   7.437
15936SOL    HW149641   5.968  13.318   7.372
15936SOL    HW249642   6.021  13.177   7.386
15937SOL     OW49643   4.142   1.476   6.112
15937SOL    HW149644   4.114   1.485   6.021
15937SOL    HW249645   4.235   1.455   6.106
15938SOL     OW49646  11.809   2.419  10.682
15938SOL    HW149647  11.879   2.433  10.619
15938SOL    HW249648  11.838   2.343  10.734
15939SOL     OW49649   5.696  12.729   7.677
15939SOL    HW149650   5.622  12.787   7.694
15939SOL    HW249651   5.661  12.663   7.617
15940SOL     OW49652  14.367   4.855  10.606
15940SOL    HW149653  14.404   4.803  10.676
15940SOL    HW249654  14.422   4.836  10.530
15941SOL     OW49655   6.654   8.153   4.587
15941SOL    HW149656   6.748   8.138   4.599
15941SOL    HW249657   6.643   8.152   4.492
15942SOL     OW49658   1.885   7.391   1.848
15942SOL    HW149659   1.889   7.310   1.798
15942SOL    HW249660   1.966   7.391   1.899
15943SOL     OW49661  12.721   9.329   7.471
15943SOL    HW149662  12.788   9.274   7.512
15943SOL    HW249663  12.670   9.268   7.417
15944SOL     OW49664   5.557  13.727   0.762
15944SOL    HW149665   5.519  13.797   0.709
15944SOL    HW249666   5.503  13.650   0.743
15945SOL     OW49667   9.377   9.932  10.524
15945SOL    HW149668   9.441   9.998  10.551
15945SOL    HW249669   9.422   9.881  10.457
15946SOL     OW49670   9.930  12.408  10.071
15946SOL    HW149671   9.937  12.462   9.992
15946SOL    HW249672   9.848  12.436  10.112
15947SOL     OW49673  12.324   0.241   2.866
15947SOL    HW149674  12.299   0.160   2.911
15947SOL    HW249675  12.378   0.212   2.792
15948SOL     OW49676   3.812  13.827   4.877
15948SOL    HW149677   3.862  13.854   4.954
15948SOL    HW249678   3.870  13.843   4.803
15949SOL     OW49679  11.751  10.241   7.241
15949SOL    HW149680  11.822  10.177   7.243
15949SOL    HW249681  11.767  10.293   7.162
15950SOL     OW49682   5.885  14.638   9.228
15950SOL    HW149683   5.827  14.646   9.304
15950SOL    HW249684   5.935  14.720   9.228
15951SOL     OW49685  10.521   7.986   3.553
15951SOL    HW149686  10.526   8.076   3.523
15951SOL    HW249687  10.582   7.981   3.626
15952SOL     OW49688   6.664   4.267   8.247
15952SOL    HW149689   6.624   4.342   8.203
15952SOL    HW249690   6.594   4.202   8.253
15953SOL     OW49691  12.473  12.560   5.110
15953SOL    HW149692  12.415  12.612   5.166
15953SOL    HW249693  12.415  12.522   5.044
15954SOL     OW49694   2.933  13.574  12.604
15954SOL    HW149695   2.857  13.573  12.546
15954SOL    HW249696   3.008  13.559  12.546
15955SOL     OW49697   1.472   4.513   7.512
15955SOL    HW149698   1.389   4.541   7.550
15955SOL    HW249699   1.539   4.553   7.567
15956SOL     OW49700   9.625   5.031   9.894
15956SOL    HW149701   9.535   5.020   9.862
15956SOL    HW249702   9.659   4.942   9.899
15957SOL     OW49703  13.111  14.584   8.739
15957SOL    HW149704  13.086  14.617   8.825
15957SOL    HW249705  13.206  14.594   8.736
15958SOL     OW49706   2.650   4.699  12.593
15958SOL    HW149707   2.641   4.649  12.512
15958SOL    HW249708   2.594   4.775  12.580
15959SOL     OW49709   5.578  13.133  10.755
15959SOL    HW149710   5.619  13.104  10.836
15959SOL    HW249711   5.488  13.155  10.780
15960SOL     OW49712   1.162  14.815   0.484
15960SOL    HW149713   1.229  14.868   0.527
15960SOL    HW249714   1.198  14.726   0.485
15961SOL     OW49715   9.475  11.715   1.249
15961SOL    HW149716   9.472  11.620   1.259
15961SOL    HW249717   9.541  11.744   1.313
15962SOL     OW49718   1.468   1.608   0.994
15962SOL    HW149719   1.496   1.590   1.084
15962SOL    HW249720   1.383   1.564   0.986
15963SOL     OW49721   8.262   1.406  12.182
15963SOL    HW149722   8.286   1.484  12.232
15963SOL    HW249723   8.346   1.368  12.156
15964SOL     OW49724  12.697   7.015   7.715
15964SOL    HW149725  12.627   7.066   7.755
15964SOL    HW249726  12.691   6.929   7.755
15965SOL     OW49727   9.560  13.132   5.019
15965SOL    HW149728   9.591  13.220   4.996
15965SOL    HW249729   9.555  13.132   5.114
15966SOL     OW49730   5.621   6.452   7.639
15966SOL    HW149731   5.690   6.401   7.680
15966SOL    HW249732   5.583   6.394   7.573
15967SOL     OW49733   2.718   5.935   8.781
15967SOL    HW149734   2.811   5.948   8.761
15967SOL    HW249735   2.704   5.983   8.862
15968SOL     OW49736   7.924  11.368   3.747
15968SOL    HW149737   7.961  11.295   3.696
15968SOL    HW249738   7.997  11.429   3.758
15969SOL     OW49739   0.571   1.767   2.621
15969SOL    HW149740   0.620   1.802   2.546
15969SOL    HW249741   0.491   1.732   2.581
15970SOL     OW49742  11.053   4.209   8.807
15970SOL    HW149743  11.085   4.187   8.719
15970SOL    HW249744  11.028   4.301   8.801
15971SOL     OW49745   7.223  12.817  10.372
15971SOL    HW149746   7.133  12.789  10.390
15971SOL    HW249747   7.220  12.854  10.284
15972SOL     OW49748   8.178   4.577   7.863
15972SOL    HW149749   8.245   4.548   7.925
15972SOL    HW249750   8.150   4.663   7.895
15973SOL     OW49751  11.857   4.708   0.918
15973SOL    HW149752  11.823   4.632   0.966
15973SOL    HW249753  11.791   4.776   0.930
15974SOL     OW49754   0.128  14.314   7.734
15974SOL    HW149755   0.169  14.293   7.818
15974SOL    HW249756   0.034  14.297   7.748
15975SOL     OW49757  12.145   4.777  12.891
15975SOL    HW149758  12.201   4.741  12.822
15975SOL    HW249759  12.205   4.809  12.958
15976SOL     OW49760  11.730   3.886   7.624
15976SOL    HW149761  11.670   3.816   7.601
15976SOL    HW249762  11.760   3.922   7.541
15977SOL     OW49763   8.432   2.224   2.340
15977SOL    HW149764   8.504   2.276   2.375
15977SOL    HW249765   8.368   2.288   2.308
15978SOL     OW49766   9.048   6.118   8.461
15978SOL    HW149767   8.993   6.076   8.395
15978SOL    HW249768   9.009   6.205   8.472
15979SOL     OW49769   2.628  12.154   7.061
15979SOL    HW149770   2.584  12.070   7.072
15979SOL    HW249771   2.707  12.148   7.115
15980SOL     OW49772   4.750  14.780   7.575
15980SOL    HW149773   4.732  14.709   7.637
15980SOL    HW249774   4.768  14.856   7.630
15981SOL     OW49775   9.036   8.862  13.297
15981SOL    HW149776   8.940   8.866  13.294
15981SOL    HW249777   9.055   8.768  13.300
15982SOL     OW49778   0.505   3.650  10.600
15982SOL    HW149779   0.562   3.686  10.668
15982SOL    HW249780   0.538   3.686  10.518
15983SOL     OW49781  14.289   7.472  13.759
15983SOL    HW149782  14.223   7.542  13.763
15983SOL    HW249783  14.358   7.501  13.819
15984SOL     OW49784   2.552   6.920  12.052
15984SOL    HW149785   2.472   6.960  12.087
15984SOL    HW249786   2.620   6.947  12.113
15985SOL     OW49787  13.645   9.000   4.477
15985SOL    HW149788  13.656   8.905   4.472
15985SOL    HW249789  13.614   9.016   4.566
15986SOL     OW49790   3.627   0.638  10.596
15986SOL    HW149791   3.610   0.544  10.605
15986SOL    HW249792   3.606   0.674  10.682
15987SOL     OW49793  12.823   3.451   7.804
15987SOL    HW149794  12.829   3.360   7.775
15987SOL    HW249795  12.913   3.483   7.801
15988SOL     OW49796   3.012  14.836  13.169
15988SOL    HW149797   3.088   0.015  13.142
15988SOL    HW249798   2.936   0.012  13.136
15989SOL     OW49799  10.216  11.025  11.272
15989SOL    HW149800  10.194  11.077  11.349
15989SOL    HW249801  10.217  10.935  11.303
15990SOL     OW49802   3.356  13.908   6.697
15990SOL    HW149803   3.277  13.962   6.699
15990SOL    HW249804   3.422  13.962   6.654
15991SOL     OW49805   7.025  10.482  13.767
15991SOL    HW149806   7.041  10.441  13.682
15991SOL    HW249807   7.082  10.435  13.828
15992SOL     OW49808  10.775  14.300  10.149
15992SOL    HW149809  10.776  14.341  10.063
15992SOL    HW249810  10.711  14.230  10.142
15993SOL     OW49811   4.581   7.339   4.565
15993SOL    HW149812   4.604   7.340   4.658
15993SOL    HW249813   4.505   7.282   4.560
15994SOL     OW49814  13.143  12.967  10.264
15994SOL    HW149815  13.129  12.942  10.355
15994SOL    HW249816  13.087  13.044  10.251
15995SOL     OW49817  12.751   4.127   2.331
15995SOL    HW149818  12.704   4.179   2.396
15995SOL    HW249819  12.815   4.188   2.293
15996SOL     OW49820   6.972   1.999   7.757
15996SOL    HW149821   7.047   1.964   7.806
15996SOL    HW249822   6.990   2.093   7.750
15997SOL     OW49823   7.353  12.285   9.054
15997SOL    HW149824   7.387  12.196   9.055
15997SOL    HW249825   7.327  12.302   9.144
15998SOL     OW49826   3.195  12.571  14.422
15998SOL    HW149827   3.131  12.505  14.396
15998SOL    HW249828   3.280  12.531  14.405
15999SOL     OW49829  14.228   4.492  14.814
15999SOL    HW149830  14.314   4.502  14.773
15999SOL    HW249831  14.177   4.566  14.781
16000SOL     OW49832   9.205  14.303   9.388
16000SOL    HW149833   9.283  14.326   9.437
16000SOL    HW249834   9.228  14.223   9.341
16001SOL     OW49835  11.012   9.767  11.555
16001SOL    HW149836  10.969   9.852  11.567
16001SOL    HW249837  11.070   9.779  11.481
16002SOL     OW49838  14.722  12.301   5.152
16002SOL    HW149839  14.738  12.283   5.245
16002SOL    HW249840  14.806  12.332   5.119
16003SOL     OW49841   5.134   0.760   1.528
16003SOL    HW149842   5.110   0.829   1.589
16003SOL    HW249843   5.052   0.713   1.511
16004SOL     OW49844   5.181  12.119   6.296
16004SOL    HW149845   5.175  12.052   6.364
16004SOL    HW249846   5.259  12.095   6.245
16005SOL     OW49847   0.026   9.845  13.607
16005SOL    HW149848   0.055   9.805  13.525
16005SOL    HW249849  14.811   9.878  13.587
16006SOL     OW49850   2.839   5.898   2.449
16006SOL    HW149851   2.875   5.819   2.409
16006SOL    HW249852   2.823   5.957   2.376
16007SOL     OW49853   0.319   5.613  10.460
16007SOL    HW149854   0.316   5.599  10.365
16007SOL    HW249855   0.347   5.704  10.470
16008SOL     OW49856  11.020  13.251   2.814
16008SOL    HW149857  11.074  13.329   2.821
16008SOL    HW249858  10.959  13.270   2.743
16009SOL     OW49859  13.357   4.975   3.683
16009SOL    HW149860  13.361   4.937   3.771
16009SOL    HW249861  13.442   4.955   3.644
16010SOL     OW49862  10.397  13.103   0.097
16010SOL    HW149863  10.367  13.075   0.010
16010SOL    HW249864  10.474  13.157   0.079
16011SOL     OW49865  11.079   2.573   1.083
16011SOL    HW149866  11.005   2.633   1.081
16011SOL    HW249867  11.045   2.495   1.128
16012SOL     OW49868  12.958   7.618   9.616
16012SOL    HW149869  12.911   7.539   9.587
16012SOL    HW249870  12.891   7.685   9.623
16013SOL     OW49871  10.947   0.746   7.571
16013SOL    HW149872  11.024   0.794   7.601
16013SOL    HW249873  10.879   0.766   7.635
16014SOL     OW49874   4.647   9.215   5.485
16014SOL    HW149875   4.569   9.217   5.541
16014SOL    HW249876   4.677   9.124   5.490
16015SOL     OW49877  11.267  14.807   9.110
16015SOL    HW149878  11.331  14.872   9.082
16015SOL    HW249879  11.267  14.813   9.205
16016SOL     OW49880   0.522   4.188   1.795
16016SOL    HW149881   0.582   4.263   1.789
16016SOL    HW249882   0.580   4.112   1.805
16017SOL     OW49883   8.178  11.104   6.401
16017SOL    HW149884   8.158  11.167   6.471
16017SOL    HW249885   8.093  11.086   6.361
16018SOL     OW49886   1.562   3.006  12.437
16018SOL    HW149887   1.506   3.039  12.367
16018SOL    HW249888   1.649   3.004  12.399
16019SOL     OW49889   2.849  14.647   3.461
16019SOL    HW149890   2.797  14.630   3.383
16019SOL    HW249891   2.912  14.714   3.433
16020SOL     OW49892   1.724   0.912   8.083
16020SOL    HW149893   1.733   0.829   8.130
16020SOL    HW249894   1.633   0.912   8.053
16021SOL     OW49895  10.179  11.123   9.089
16021SOL    HW149896  10.133  11.128   9.172
16021SOL    HW249897  10.153  11.202   9.042
16022SOL     OW49898   5.787   8.079   3.639
16022SOL    HW149899   5.757   8.014   3.703
16022SOL    HW249900   5.717   8.081   3.573
16023SOL     OW49901   7.202   1.329  12.055
16023SOL    HW149902   7.190   1.325  12.150
16023SOL    HW249903   7.248   1.412  12.040
16024SOL     OW49904  13.412  11.749   3.477
16024SOL    HW149905  13.380  11.835   3.502
16024SOL    HW249906  13.363  11.727   3.398
16025SOL     OW49907   9.277   9.600   9.755
16025SOL    HW149908   9.249   9.692   9.756
16025SOL    HW249909   9.220   9.557   9.818
16026SOL     OW49910  14.100   6.091   2.202
16026SOL    HW149911  14.180   6.079   2.252
16026SOL    HW249912  14.055   6.007   2.206
16027SOL     OW49913   1.633   2.489   8.373
16027SOL    HW149914   1.620   2.582   8.395
16027SOL    HW249915   1.557   2.467   8.319
16028SOL     OW49916   1.503   4.470  13.749
16028SOL    HW149917   1.532   4.543  13.804
16028SOL    HW249918   1.434   4.508  13.694
16029SOL     OW49919  11.790   6.879   3.201
16029SOL    HW149920  11.883   6.889   3.182
16029SOL    HW249921  11.774   6.785   3.195
16030SOL     OW49922  10.561   0.890   4.468
16030SOL    HW149923  10.541   0.970   4.419
16030SOL    HW249924  10.534   0.909   4.558
16031SOL     OW49925  10.623   6.649   9.978
16031SOL    HW149926  10.600   6.741   9.965
16031SOL    HW249927  10.631   6.613   9.889
16032SOL     OW49928  14.129   6.518   2.454
16032SOL    HW149929  14.197   6.555   2.509
16032SOL    HW249930  14.048   6.531   2.504
16033SOL     OW49931   9.035  10.888  11.201
16033SOL    HW149932   9.102  10.874  11.268
16033SOL    HW249933   8.965  10.936  11.245
16034SOL     OW49934   0.745  13.412   0.970
16034SOL    HW149935   0.668  13.368   0.935
16034SOL    HW249936   0.816  13.387   0.910
16035SOL     OW49937  11.176   3.420   1.806
16035SOL    HW149938  11.182   3.473   1.886
16035SOL    HW249939  11.156   3.332   1.838
16036SOL     OW49940  10.607   6.096   1.953
16036SOL    HW149941  10.653   6.088   2.036
16036SOL    HW249942  10.519   6.063   1.971
16037SOL     OW49943  10.452   9.603   7.598
16037SOL    HW149944  10.360   9.605   7.572
16037SOL    HW249945  10.455   9.540   7.671
16038SOL     OW49946  14.197   3.772   8.906
16038SOL    HW149947  14.218   3.678   8.906
16038SOL    HW249948  14.231   3.804   8.990
16039SOL     OW49949   6.829  10.358   4.535
16039SOL    HW149950   6.884  10.283   4.516
16039SOL    HW249951   6.742  10.333   4.503
16040SOL     OW49952  14.224  12.457   5.762
16040SOL    HW149953  14.143  12.469   5.811
16040SOL    HW249954  14.201  12.397   5.691
16041SOL     OW49955  13.033   2.113   9.663
16041SOL    HW149956  12.940   2.129   9.678
16041SOL    HW249957  13.041   2.103   9.568
16042SOL     OW49958   0.511   6.096  10.294
16042SOL    HW149959   0.462   6.146  10.228
16042SOL    HW249960   0.599   6.132  10.292
16043SOL     OW49961  13.759   1.554  14.093
16043SOL    HW149962  13.756   1.585  14.003
16043SOL    HW249963  13.689   1.488  14.099
16044SOL     OW49964  13.369  13.842  13.645
16044SOL    HW149965  13.274  13.851  13.640
16044SOL    HW249966  13.387  13.824  13.737
16045SOL     OW49967   8.054   1.201   4.146
16045SOL    HW149968   8.007   1.260   4.086
16045SOL    HW249969   8.124   1.255   4.182
16046SOL     OW49970  11.996   2.397   5.031
16046SOL    HW149971  12.006   2.390   4.936
16046SOL    HW249972  12.065   2.458   5.058
16047SOL     OW49973  12.582   5.389   9.535
16047SOL    HW149974  12.626   5.459   9.488
16047SOL    HW249975  12.535   5.433   9.606
16048SOL     OW49976   5.903   0.262  10.537
16048SOL    HW149977   5.953   0.318  10.595
16048SOL    HW249978   5.911   0.174  10.575
16049SOL     OW49979   3.738   1.980   2.055
16049SOL    HW149980   3.763   1.890   2.032
16049SOL    HW249981   3.785   2.035   1.991
16050SOL     OW49982   5.403   9.835   7.028
16050SOL    HW149983   5.456   9.848   7.106
16050SOL    HW249984   5.466   9.820   6.958
16051SOL     OW49985   7.008  14.355   0.501
16051SOL    HW149986   7.084  14.299   0.517
16051SOL    HW249987   7.026  14.397   0.417
16052SOL     OW49988   9.961  10.376  13.333
16052SOL    HW149989  10.025  10.412  13.394
16052SOL    HW249990  10.009  10.309  13.284
16053SOL     OW49991   4.863   5.839   5.564
16053SOL    HW149992   4.941   5.838   5.619
16053SOL    HW249993   4.796   5.883   5.618
16054SOL     OW49994   4.404   0.231  10.556
16054SOL    HW149995   4.318   0.194  10.574
16054SOL    HW249996   4.463   0.189  10.619
16055SOL     OW49997  12.383   8.948  10.053
16055SOL    HW149998  12.314   8.941   9.986
16055SOL    HW249999  12.442   8.876  10.035
16056SOL     OW50000   1.859   8.328   1.872
16056SOL    HW150001   1.868   8.270   1.796
16056SOL    HW250002   1.857   8.269   1.947
16057SOL     OW50003   3.398   3.538   9.307
16057SOL    HW150004   3.364   3.475   9.243
16057SOL    HW250005   3.368   3.506   9.391
16058SOL     OW50006  10.338  10.405   7.291
16058SOL    HW150007  10.249  10.440   7.280
16058SOL    HW250008  10.374  10.455   7.364
16059SOL     OW50009   4.628  11.617   4.796
16059SOL    HW150010   4.621  11.675   4.720
16059SOL    HW250011   4.662  11.673   4.865
16060SOL     OW50012   4.720  12.150   7.170
16060SOL    HW150013   4.671  12.129   7.091
16060SOL    HW250014   4.690  12.237   7.195
16061SOL     OW50015   8.380   8.750   8.156
16061SOL    HW150016   8.290   8.721   8.147
16061SOL    HW250017   8.431   8.689   8.103
16062SOL     OW50018   5.213  11.726   8.957
16062SOL    HW150019   5.149  11.796   8.955
16062SOL    HW250020   5.287  11.758   8.905
16063SOL     OW50021  10.983  10.736  12.295
16063SOL    HW150022  11.067  10.712  12.334
16063SOL    HW250023  10.998  10.729  12.201
16064SOL     OW50024   5.393   5.979   3.507
16064SOL    HW150025   5.337   6.054   3.527
16064SOL    HW250026   5.332   5.911   3.480
16065SOL     OW50027  12.398   2.528  13.054
16065SOL    HW150028  12.424   2.614  13.087
16065SOL    HW250029  12.408   2.469  13.129
16066SOL     OW50030   8.446   3.514  11.556
16066SOL    HW150031   8.407   3.458  11.489
16066SOL    HW250032   8.385   3.587  11.565
16067SOL     OW50033  12.366   5.025  11.013
16067SOL    HW150034  12.350   5.017  10.919
16067SOL    HW250035  12.291   5.074  11.046
16068SOL     OW50036  13.949  10.250   5.547
16068SOL    HW150037  13.996  10.251   5.630
16068SOL    HW250038  13.859  10.229   5.571
16069SOL     OW50039   1.990   6.029   9.689
16069SOL    HW150040   2.074   5.996   9.656
16069SOL    HW250041   1.936   5.950   9.697
16070SOL     OW50042  13.319  13.108   7.174
16070SOL    HW150043  13.406  13.093   7.211
16070SOL    HW250044  13.317  13.054   7.095
16071SOL     OW50045   2.083  13.903   1.632
16071SOL    HW150046   2.112  13.977   1.580
16071SOL    HW250047   2.126  13.915   1.717
16072SOL     OW50048   3.553   1.950  13.095
16072SOL    HW150049   3.523   1.897  13.021
16072SOL    HW250050   3.484   2.014  13.108
16073SOL     OW50051  10.922   8.316   1.605
16073SOL    HW150052  10.834   8.282   1.588
16073SOL    HW250053  10.961   8.324   1.518
16074SOL     OW50054   6.326   8.223   7.164
16074SOL    HW150055   6.303   8.293   7.225
16074SOL    HW250056   6.417   8.242   7.139
16075SOL     OW50057   1.054  12.078  14.532
16075SOL    HW150058   0.982  12.119  14.484
16075SOL    HW250059   1.103  12.029  14.466
16076SOL     OW50060  12.184  13.041  11.326
16076SOL    HW150061  12.237  13.023  11.248
16076SOL    HW250062  12.229  13.113  11.370
16077SOL     OW50063   6.972   0.578   8.904
16077SOL    HW150064   6.910   0.609   8.971
16077SOL    HW250065   6.963   0.483   8.906
16078SOL     OW50066   4.236  11.449  12.004
16078SOL    HW150067   4.330  11.431  11.994
16078SOL    HW250068   4.233  11.531  12.055
16079SOL     OW50069   5.294   9.772  13.271
16079SOL    HW150070   5.226   9.840  13.279
16079SOL    HW250071   5.375   9.821  13.262
16080SOL     OW50072  14.335   4.886  10.246
16080SOL    HW150073  14.296   4.927  10.169
16080SOL    HW250074  14.429   4.902  10.238
16081SOL     OW50075   2.336   8.542  13.045
16081SOL    HW150076   2.289   8.619  13.013
16081SOL    HW250077   2.429   8.564  13.032
16082SOL     OW50078   6.403  11.831   1.542
16082SOL    HW150079   6.357  11.913   1.519
16082SOL    HW250080   6.467  11.820   1.472
16083SOL     OW50081  10.710  13.337   7.072
16083SOL    HW150082  10.783  13.354   7.013
16083SOL    HW250083  10.634  13.378   7.030
16084SOL     OW50084  12.402   4.349   3.741
16084SOL    HW150085  12.325   4.404   3.730
16084SOL    HW250086  12.367   4.259   3.745
16085SOL     OW50087  14.128  13.329  11.008
16085SOL    HW150088  14.207  13.375  10.978
16085SOL    HW250089  14.157  13.239  11.023
16086SOL     OW50090   7.136   4.490   6.200
16086SOL    HW150091   7.080   4.454   6.132
16086SOL    HW250092   7.181   4.564   6.158
16087SOL     OW50093  12.045   5.928   6.040
16087SOL    HW150094  12.023   5.998   5.978
16087SOL    HW250095  11.960   5.891   6.065
16088SOL     OW50096   4.543  13.358   6.031
16088SOL    HW150097   4.462  13.314   6.004
16088SOL    HW250098   4.596  13.361   5.951
16089SOL     OW50099   1.147  14.431  14.285
16089SOL    HW150100   1.117  14.515  14.248
16089SOL    HW250101   1.209  14.398  14.220
16090SOL     OW50102   4.270   0.710   0.465
16090SOL    HW150103   4.357   0.711   0.425
16090SOL    HW250104   4.210   0.729   0.392
16091SOL     OW50105  11.247   9.607   0.419
16091SOL    HW150106  11.309   9.667   0.377
16091SOL    HW250107  11.302   9.546   0.468
16092SOL     OW50108  11.449   2.201   6.047
16092SOL    HW150109  11.358   2.185   6.074
16092SOL    HW250110  11.496   2.123   6.076
16093SOL     OW50111   6.029   6.871   8.828
16093SOL    HW150112   5.967   6.809   8.866
16093SOL    HW250113   6.042   6.937   8.896
16094SOL     OW50114   6.202   5.631   6.735
16094SOL    HW150115   6.266   5.699   6.711
16094SOL    HW250116   6.142   5.675   6.794
16095SOL     OW50117  14.562  12.897   8.943
16095SOL    HW150118  14.517  12.975   8.911
16095SOL    HW250119  14.504  12.825   8.919
16096SOL     OW50120  12.203  12.089  13.574
16096SOL    HW150121  12.146  12.139  13.632
16096SOL    HW250122  12.192  11.999  13.602
16097SOL     OW50123  13.802   0.274   0.082
16097SOL    HW150124  13.893   0.252   0.061
16097SOL    HW250125  13.794   0.367   0.059
16098SOL     OW50126   6.308   0.939   7.699
16098SOL    HW150127   6.241   0.871   7.709
16098SOL    HW250128   6.317   0.978   7.786
16099SOL     OW50129   5.851   5.097   3.325
16099SOL    HW150130   5.764   5.137   3.318
16099SOL    HW250131   5.908   5.169   3.352
16100SOL     OW50132   2.285  11.688   8.680
16100SOL    HW150133   2.227  11.677   8.756
16100SOL    HW250134   2.273  11.779   8.654
16101SOL     OW50135   9.870  14.397   3.414
16101SOL    HW150136   9.956  14.367   3.385
16101SOL    HW250137   9.827  14.319   3.448
16102SOL     OW50138   7.316   0.118   0.188
16102SOL    HW150139   7.410   0.135   0.184
16102SOL    HW250140   7.281   0.187   0.245
16103SOL     OW50141   8.823   8.476   0.876
16103SOL    HW150142   8.795   8.554   0.925
16103SOL    HW250143   8.890   8.436   0.930
16104SOL     OW50144   1.721   8.055  13.984
16104SOL    HW150145   1.694   8.003  13.908
16104SOL    HW250146   1.794   8.108  13.951
16105SOL     OW50147   6.089   3.863   7.045
16105SOL    HW150148   6.070   3.896   7.133
16105SOL    HW250149   6.174   3.821   7.052
16106SOL     OW50150  14.424  13.203   5.533
16106SOL    HW150151  14.449  13.154   5.612
16106SOL    HW250152  14.333  13.178   5.517
16107SOL     OW50153   8.470  13.326   0.425
16107SOL    HW150154   8.495  13.323   0.518
16107SOL    HW250155   8.482  13.235   0.395
16108SOL     OW50156  14.369  13.361   6.072
16108SOL    HW150157  14.365  13.268   6.097
16108SOL    HW250158  14.441  13.365   6.009
16109SOL     OW50159   0.775   7.568   7.465
16109SOL    HW150160   0.856   7.532   7.431
16109SOL    HW250161   0.763   7.525   7.550
16110SOL     OW50162   2.507   2.867   0.447
16110SOL    HW150163   2.494   2.952   0.490
16110SOL    HW250164   2.559   2.817   0.509
16111SOL     OW50165   7.471   5.984   2.718
16111SOL    HW150166   7.463   6.076   2.743
16111SOL    HW250167   7.435   5.936   2.792
16112SOL     OW50168   9.491  10.554   0.959
16112SOL    HW150169   9.545  10.542   1.037
16112SOL    HW250170   9.512  10.480   0.902
16113SOL     OW50171   9.242   8.997   4.649
16113SOL    HW150172   9.292   9.077   4.635
16113SOL    HW250173   9.151   9.023   4.643
16114SOL     OW50174   4.888   3.626  14.325
16114SOL    HW150175   4.820   3.631  14.392
16114SOL    HW250176   4.893   3.714  14.289
16115SOL     OW50177  12.811  10.182   5.306
16115SOL    HW150178  12.769  10.096   5.298
16115SOL    HW250179  12.821  10.212   5.216
16116SOL     OW50180   6.787   1.504   9.380
16116SOL    HW150181   6.882   1.511   9.370
16116SOL    HW250182   6.753   1.584   9.340
16117SOL     OW50183   9.120   9.024   7.395
16117SOL    HW150184   9.125   8.963   7.320
16117SOL    HW250185   9.136   9.110   7.356
16118SOL     OW50186  11.298   1.159   0.916
16118SOL    HW150187  11.311   1.250   0.890
16118SOL    HW250188  11.355   1.110   0.856
16119SOL     OW50189  10.337   2.434  12.836
16119SOL    HW150190  10.420   2.437  12.883
16119SOL    HW250191  10.285   2.505  12.874
16120SOL     OW50192  10.295   9.863   7.698
16120SOL    HW150193  10.215   9.891   7.653
16120SOL    HW250194  10.345   9.944   7.707
16121SOL     OW50195   3.774   4.694   6.722
16121SOL    HW150196   3.833   4.634   6.677
16121SOL    HW250197   3.742   4.643   6.798
16122SOL     OW50198   7.624   2.069  13.333
16122SOL    HW150199   7.583   1.999  13.384
16122SOL    HW250200   7.654   2.026  13.253
16123SOL     OW50201  11.979   6.928   9.279
16123SOL    HW150202  12.065   6.909   9.317
16123SOL    HW250203  11.978   7.023   9.267
16124SOL     OW50204   5.596   5.951  14.658
16124SOL    HW150205   5.587   5.976  14.750
16124SOL    HW250206   5.647   6.023  14.619
16125SOL     OW50207   3.203   6.584  14.125
16125SOL    HW150208   3.143   6.650  14.091
16125SOL    HW250209   3.273   6.579  14.060
16126SOL     OW50210   2.484   1.689   0.256
16126SOL    HW150211   2.531   1.669   0.175
16126SOL    HW250212   2.431   1.765   0.235
16127SOL     OW50213   0.856  12.623   8.872
16127SOL    HW150214   0.785  12.676   8.836
16127SOL    HW250215   0.879  12.562   8.802
16128SOL     OW50216  10.281   2.082   4.388
16128SOL    HW150217  10.318   1.995   4.381
16128SOL    HW250218  10.260   2.093   4.481
16129SOL     OW50219   0.230  13.229   8.910
16129SOL    HW150220   0.256  13.285   8.837
16129SOL    HW250221   0.162  13.279   8.955
16130SOL     OW50222   5.227   0.521  12.241
16130SOL    HW150223   5.167   0.516  12.167
16130SOL    HW250224   5.314   0.527  12.202
16131SOL     OW50225   5.132  13.913   4.712
16131SOL    HW150226   5.110  13.893   4.803
16131SOL    HW250227   5.120  14.008   4.706
16132SOL     OW50228   9.894  11.199   2.710
16132SOL    HW150229   9.809  11.174   2.674
16132SOL    HW250230   9.909  11.138   2.782
16133SOL     OW50231   2.735   0.772   5.090
16133SOL    HW150232   2.672   0.702   5.100
16133SOL    HW250233   2.688   0.851   5.115
16134SOL     OW50234  10.690   4.758   7.434
16134SOL    HW150235  10.707   4.801   7.518
16134SOL    HW250236  10.604   4.790   7.407
16135SOL     OW50237   8.948   7.810   2.645
16135SOL    HW150238   8.956   7.835   2.737
16135SOL    HW250239   8.921   7.719   2.647
16136SOL     OW50240  10.153   3.212   8.195
16136SOL    HW150241  10.102   3.282   8.153
16136SOL    HW250242  10.201   3.256   8.265
16137SOL     OW50243  14.217  11.370   8.753
16137SOL    HW150244  14.123  11.389   8.760
16137SOL    HW250245  14.221  11.280   8.722
16138SOL     OW50246   1.826   3.114   4.710
16138SOL    HW150247   1.851   3.146   4.797
16138SOL    HW250248   1.735   3.141   4.700
16139SOL     OW50249  14.344  13.682   4.073
16139SOL    HW150250  14.351  13.617   4.004
16139SOL    HW250251  14.404  13.651   4.141
16140SOL     OW50252   7.522   9.136  11.169
16140SOL    HW150253   7.444   9.164  11.122
16140SOL    HW250254   7.492   9.121  11.259
16141SOL     OW50255  14.076   7.931   2.093
16141SOL    HW150256  13.990   7.894   2.074
16141SOL    HW250257  14.076   8.016   2.048
16142SOL     OW50258  12.865   7.704  10.430
16142SOL    HW150259  12.876   7.640  10.360
16142SOL    HW250260  12.815   7.658  10.498
16143SOL     OW50261   3.846   2.991   5.450
16143SOL    HW150262   3.823   2.955   5.364
16143SOL    HW250263   3.785   2.950   5.511
16144SOL     OW50264   6.719  13.139   1.429
16144SOL    HW150265   6.694  13.226   1.458
16144SOL    HW250266   6.650  13.081   1.462
16145SOL     OW50267   0.615   9.125   1.691
16145SOL    HW150268   0.611   9.038   1.729
16145SOL    HW250269   0.611   9.110   1.596
16146SOL     OW50270  11.314   3.743   1.065
16146SOL    HW150271  11.242   3.716   1.008
16146SOL    HW250272  11.305   3.689   1.143
16147SOL     OW50273  10.247   3.872   5.636
16147SOL    HW150274  10.336   3.877   5.673
16147SOL    HW250275  10.260   3.879   5.542
16148SOL     OW50276  11.098  10.422   4.663
16148SOL    HW150277  11.068  10.494   4.718
16148SOL    HW250278  11.191  10.412   4.685
16149SOL     OW50279  11.955   8.362   5.693
16149SOL    HW150280  12.005   8.324   5.766
16149SOL    HW250281  11.865   8.338   5.711
16150SOL     OW50282   9.817  10.222   0.009
16150SOL    HW150283   9.770  10.262   0.083
16150SOL    HW250284   9.850  10.296  14.831
16151SOL     OW50285  12.791  11.753  14.089
16151SOL    HW150286  12.744  11.823  14.042
16151SOL    HW250287  12.785  11.779  14.181
16152SOL     OW50288  14.363   3.788  10.422
16152SOL    HW150289  14.330   3.698  10.425
16152SOL    HW250290  14.310   3.832  10.356
16153SOL     OW50291  10.543  11.530   8.990
16153SOL    HW150292  10.633  11.517   9.018
16153SOL    HW250293  10.526  11.623   9.006
16154SOL     OW50294   3.372   3.856  10.368
16154SOL    HW150295   3.407   3.772  10.396
16154SOL    HW250296   3.430   3.882  10.296
16155SOL     OW50297   9.316   3.010   0.770
16155SOL    HW150298   9.239   3.019   0.713
16155SOL    HW250299   9.312   2.919   0.800
16156SOL     OW50300   9.888   3.459   0.795
16156SOL    HW150301   9.921   3.370   0.810
16156SOL    HW250302   9.863   3.491   0.881
16157SOL     OW50303   7.406   0.019  10.543
16157SOL    HW150304   7.324  14.849  10.566
16157SOL    HW250305   7.430  14.855  10.459
16158SOL     OW50306   0.406   3.204   3.459
16158SOL    HW150307   0.429   3.146   3.532
16158SOL    HW250308   0.313   3.224   3.473
16159SOL     OW50309   2.844  14.065  11.099
16159SOL    HW150310   2.811  14.134  11.042
16159SOL    HW250311   2.765  14.024  11.135
16160SOL     OW50312   0.414   7.729   1.391
16160SOL    HW150313   0.463   7.699   1.467
16160SOL    HW250314   0.391   7.819   1.411
16161SOL     OW50315   5.168   5.972   2.534
16161SOL    HW150316   5.091   6.027   2.521
16161SOL    HW250317   5.143   5.887   2.497
16162SOL     OW50318  11.205   4.126  12.518
16162SOL    HW150319  11.198   4.044  12.469
16162SOL    HW250320  11.140   4.118  12.588
16163SOL     OW50321   5.757  13.085   2.084
16163SOL    HW150322   5.754  13.011   2.145
16163SOL    HW250323   5.820  13.145   2.122
16164SOL     OW50324   7.685   8.022   8.968
16164SOL    HW150325   7.756   7.988   9.022
16164SOL    HW250326   7.607   7.976   9.001
16165SOL     OW50327  12.234   7.724  10.470
16165SOL    HW150328  12.307   7.757  10.523
16165SOL    HW250329  12.260   7.742  10.379
16166SOL     OW50330   2.532  13.775   3.019
16166SOL    HW150331   2.458  13.771   2.959
16166SOL    HW250332   2.554  13.684   3.038
16167SOL     OW50333   9.490  11.055   0.188
16167SOL    HW150334   9.439  11.113   0.131
16167SOL    HW250335   9.435  10.977   0.197
16168SOL     OW50336   2.834  10.330  14.340
16168SOL    HW150337   2.816  10.277  14.263
16168SOL    HW250338   2.844  10.419  14.307
16169SOL     OW50339  13.987  11.600   2.263
16169SOL    HW150340  13.956  11.512   2.282
16169SOL    HW250341  14.070  11.587   2.218
16170SOL     OW50342   0.941  10.286   0.251
16170SOL    HW150343   0.941  10.373   0.290
16170SOL    HW250344   1.026  10.279   0.207
16171SOL     OW50345   1.154   3.318   3.737
16171SOL    HW150346   1.159   3.227   3.708
16171SOL    HW250347   1.197   3.368   3.668
16172SOL     OW50348  14.455   1.371   7.219
16172SOL    HW150349  14.482   1.350   7.130
16172SOL    HW250350  14.536   1.387   7.267
16173SOL     OW50351  12.526   1.758  10.102
16173SOL    HW150352  12.558   1.680  10.057
16173SOL    HW250353  12.555   1.747  10.192
16174SOL     OW50354   6.290   3.381  13.184
16174SOL    HW150355   6.328   3.349  13.102
16174SOL    HW250356   6.203   3.342  13.188
16175SOL     OW50357  11.464  12.924   8.618
16175SOL    HW150358  11.409  12.885   8.550
16175SOL    HW250359  11.491  13.008   8.582
16176SOL     OW50360   8.478   0.568   3.383
16176SOL    HW150361   8.435   0.640   3.337
16176SOL    HW250362   8.564   0.603   3.408
16177SOL     OW50363   0.953   2.285  14.720
16177SOL    HW150364   0.907   2.362  14.686
16177SOL    HW250365   0.947   2.221  14.650
16178SOL     OW50366  12.290  12.983   6.944
16178SOL    HW150367  12.254  13.055   6.892
16178SOL    HW250368  12.385  12.993   6.936
16179SOL     OW50369  12.025   2.556   3.375
16179SOL    HW150370  11.937   2.553   3.413
16179SOL    HW250371  12.055   2.646   3.391
16180SOL     OW50372  10.476   5.346   5.531
16180SOL    HW150373  10.426   5.279   5.579
16180SOL    HW250374  10.481   5.312   5.441
16181SOL     OW50375   8.153   1.857   2.891
16181SOL    HW150376   8.199   1.843   2.974
16181SOL    HW250377   8.220   1.848   2.824
16182SOL     OW50378   8.376   2.272   7.032
16182SOL    HW150379   8.283   2.287   7.016
16182SOL    HW250380   8.380   2.243   7.123
16183SOL     OW50381   3.290  11.878   7.056
16183SOL    HW150382   3.228  11.935   7.012
16183SOL    HW250383   3.276  11.894   7.149
16184SOL     OW50384   9.648  14.729  11.608
16184SOL    HW150385   9.733  14.763  11.580
16184SOL    HW250386   9.649  14.738  11.703
16185SOL     OW50387   6.453  13.862   9.687
16185SOL    HW150388   6.361  13.864   9.660
16185SOL    HW250389   6.467  13.772   9.717
16186SOL     OW50390  10.791  11.951  11.610
16186SOL    HW150391  10.881  11.983  11.614
16186SOL    HW250392  10.777  11.931  11.517
16187SOL     OW50393   9.017   0.410   3.119
16187SOL    HW150394   8.991   0.436   3.031
16187SOL    HW250395   9.083   0.475   3.145
16188SOL     OW50396   0.217  11.793   9.863
16188SOL    HW150397   0.140  11.786   9.806
16188SOL    HW250398   0.257  11.877   9.839
16189SOL     OW50399   6.383   9.052   8.120
16189SOL    HW150400   6.358   9.134   8.162
16189SOL    HW250401   6.427   9.078   8.040
16190SOL     OW50402  14.575   6.632   1.011
16190SOL    HW150403  14.662   6.655   1.041
16190SOL    HW250404  14.535   6.716   0.987
16191SOL     OW50405   1.501   7.123   8.563
16191SOL    HW150406   1.547   7.099   8.643
16191SOL    HW250407   1.500   7.219   8.563
16192SOL     OW50408  12.595   3.447   1.651
16192SOL    HW150409  12.565   3.520   1.705
16192SOL    HW250410  12.645   3.392   1.711
16193SOL     OW50411   8.630  12.015   2.940
16193SOL    HW150412   8.666  11.985   3.024
16193SOL    HW250413   8.586  11.938   2.904
16194SOL     OW50414   6.645   6.173   8.200
16194SOL    HW150415   6.564   6.202   8.242
16194SOL    HW250416   6.713   6.228   8.240
16195SOL     OW50417  14.002  13.100  13.008
16195SOL    HW150418  13.971  13.123  12.921
16195SOL    HW250419  13.969  13.169  13.065
16196SOL     OW50420   2.286  13.295  14.463
16196SOL    HW150421   2.274  13.324  14.373
16196SOL    HW250422   2.197  13.285  14.498
16197SOL     OW50423   0.312  11.759   6.642
16197SOL    HW150424   0.381  11.801   6.692
16197SOL    HW250425   0.236  11.761   6.701
16198SOL     OW50426   9.531   5.054   6.224
16198SOL    HW150427   9.476   4.998   6.278
16198SOL    HW250428   9.483   5.063   6.141
16199SOL     OW50429   1.302  10.060  12.106
16199SOL    HW150430   1.372  10.061  12.172
16199SOL    HW250431   1.264  10.147  12.110
16200SOL     OW50432   4.548  14.697   1.418
16200SOL    HW150433   4.518  14.635   1.351
16200SOL    HW250434   4.548  14.646   1.499
16201SOL     OW50435   5.695   7.635  14.285
16201SOL    HW150436   5.771   7.691  14.296
16201SOL    HW250437   5.720   7.575  14.214
16202SOL     OW50438   5.506   6.584   8.041
16202SOL    HW150439   5.491   6.594   7.946
16202SOL    HW250440   5.577   6.645   8.060
16203SOL     OW50441   8.285  14.398   8.075
16203SOL    HW150442   8.320  14.322   8.028
16203SOL    HW250443   8.287  14.372   8.167
16204SOL     OW50444   6.377   7.508   3.881
16204SOL    HW150445   6.443   7.538   3.818
16204SOL    HW250446   6.299   7.492   3.828
16205SOL     OW50447   3.188   9.896   4.019
16205SOL    HW150448   3.241   9.896   3.939
16205SOL    HW250449   3.241   9.848   4.083
16206SOL     OW50450   0.546   6.372   2.007
16206SOL    HW150451   0.631   6.333   2.028
16206SOL    HW250452   0.568   6.448   1.952
16207SOL     OW50453   9.873  11.394  10.010
16207SOL    HW150454   9.830  11.477  10.035
16207SOL    HW250455   9.904  11.409   9.921
16208SOL     OW50456   7.707   0.122   7.494
16208SOL    HW150457   7.779   0.078   7.447
16208SOL    HW250458   7.658   0.051   7.534
16209SOL     OW50459  10.101   4.390  11.969
16209SOL    HW150460  10.032   4.402  12.033
16209SOL    HW250461  10.177   4.361  12.020
16210SOL     OW50462   6.287   2.782   4.318
16210SOL    HW150463   6.353   2.812   4.255
16210SOL    HW250464   6.238   2.715   4.271
16211SOL     OW50465  13.599   7.749  14.336
16211SOL    HW150466  13.600   7.845  14.335
16211SOL    HW250467  13.640   7.725  14.419
16212SOL     OW50468  14.530  12.797   7.508
16212SOL    HW150469  14.576  12.806   7.424
16212SOL    HW250470  14.440  12.825   7.489
16213SOL     OW50471   3.242   4.539   6.841
16213SOL    HW150472   3.275   4.626   6.861
16213SOL    HW250473   3.162   4.531   6.893
16214SOL     OW50474   2.760  11.067   7.606
16214SOL    HW150475   2.818  11.143   7.597
16214SOL    HW250476   2.807  11.008   7.664
16215SOL     OW50477  12.306  10.356  10.012
16215SOL    HW150478  12.295  10.265  10.037
16215SOL    HW250479  12.219  10.385   9.984
16216SOL     OW50480   0.553  13.913   2.096
16216SOL    HW150481   0.501  13.837   2.123
16216SOL    HW250482   0.644  13.885   2.109
16217SOL     OW50483  13.948   3.974   9.249
16217SOL    HW150484  14.004   3.965   9.172
16217SOL    HW250485  13.860   3.980   9.214
16218SOL     OW50486  11.036   9.760  11.911
16218SOL    HW150487  11.127   9.765  11.883
16218SOL    HW250488  11.011   9.669  11.898
16219SOL     OW50489   6.903  13.391   4.436
16219SOL    HW150490   6.939  13.472   4.473
16219SOL    HW250491   6.942  13.385   4.349
16220SOL     OW50492   3.657   1.240  10.634
16220SOL    HW150493   3.564   1.261  10.640
16220SOL    HW250494   3.663   1.148  10.657
16221SOL     OW50495   4.392   2.772   8.863
16221SOL    HW150496   4.447   2.773   8.784
16221SOL    HW250497   4.303   2.758   8.830
16222SOL     OW50498   5.413   5.115   8.977
16222SOL    HW150499   5.332   5.069   9.000
16222SOL    HW250500   5.384   5.199   8.943
16223SOL     OW50501   3.274  12.073  12.007
16223SOL    HW150502   3.360  12.115  11.993
16223SOL    HW250503   3.237  12.067  11.919
16224SOL     OW50504   0.950   6.150  14.005
16224SOL    HW150505   0.902   6.218  14.053
16224SOL    HW250506   0.976   6.087  14.073
16225SOL     OW50507   0.774   6.099  12.737
16225SOL    HW150508   0.846   6.147  12.777
16225SOL    HW250509   0.802   6.008  12.737
16226SOL     OW50510  12.316  13.975   4.147
16226SOL    HW150511  12.239  13.994   4.201
16226SOL    HW250512  12.287  13.908   4.086
16227SOL     OW50513   6.157   0.393  14.499
16227SOL    HW150514   6.198   0.466  14.545
16227SOL    HW250515   6.198   0.393  14.412
16228SOL     OW50516   2.301  12.270   8.674
16228SOL    HW150517   2.325  12.316   8.594
16228SOL    HW250518   2.322  12.332   8.744
16229SOL     OW50519   7.854  10.949   3.440
16229SOL    HW150520   7.859  11.020   3.504
16229SOL    HW250521   7.924  10.889   3.466
16230SOL     OW50522   5.066   0.278   9.974
16230SOL    HW150523   5.039   0.285   9.883
16230SOL    HW250524   5.147   0.227   9.971
16231SOL     OW50525  14.564   0.990   8.136
16231SOL    HW150526  14.601   1.060   8.082
16231SOL    HW250527  14.481   0.968   8.094
16232SOL     OW50528  13.045  14.231  10.555
16232SOL    HW150529  13.100  14.210  10.479
16232SOL    HW250530  13.106  14.269  10.619
16233SOL     OW50531   1.202   0.977   4.851
16233SOL    HW150532   1.207   1.001   4.759
16233SOL    HW250533   1.194   0.882   4.851
16234SOL     OW50534  11.256   5.054   0.881
16234SOL    HW150535  11.285   5.095   0.962
16234SOL    HW250536  11.337   5.039   0.831
16235SOL     OW50537  13.947   5.339  14.582
16235SOL    HW150538  13.853   5.322  14.576
16235SOL    HW250539  13.955   5.395  14.659
16236SOL     OW50540   1.123   3.294  11.120
16236SOL    HW150541   1.097   3.233  11.050
16236SOL    HW250542   1.066   3.369  11.109
16237SOL     OW50543   9.523   1.708  10.390
16237SOL    HW150544   9.612   1.718  10.357
16237SOL    HW250545   9.494   1.623  10.356
16238SOL     OW50546   9.708  13.085  14.002
16238SOL    HW150547   9.672  13.021  14.063
16238SOL    HW250548   9.764  13.034  13.943
16239SOL     OW50549  14.007  10.458   3.769
16239SOL    HW150550  14.027  10.551   3.767
16239SOL    HW250551  13.928  10.449   3.717
16240SOL     OW50552   4.368   1.538  12.777
16240SOL    HW150553   4.346   1.623  12.817
16240SOL    HW250554   4.290   1.484  12.792
16241SOL     OW50555   4.453  12.906   0.819
16241SOL    HW150556   4.374  12.931   0.866
16241SOL    HW250557   4.434  12.930   0.728
16242SOL     OW50558  14.109  11.072   5.145
16242SOL    HW150559  14.058  10.991   5.155
16242SOL    HW250560  14.143  11.090   5.233
16243SOL     OW50561   4.838  11.340   0.621
16243SOL    HW150562   4.876  11.254   0.639
16243SOL    HW250563   4.882  11.369   0.541
16244SOL     OW50564   4.000  14.717   9.811
16244SOL    HW150565   4.018  14.768   9.890
16244SOL    HW250566   3.998  14.781   9.741
16245SOL     OW50567  12.757   7.278  10.223
16245SOL    HW150568  12.700   7.205  10.196
16245SOL    HW250569  12.804   7.245  10.299
16246SOL     OW50570   6.264   8.885   5.854
16246SOL    HW150571   6.204   8.819   5.890
16246SOL    HW250572   6.260   8.872   5.759
16247SOL     OW50573   0.734   8.312  11.950
16247SOL    HW150574   0.736   8.385  11.888
16247SOL    HW250575   0.809   8.327  12.007
16248SOL     OW50576  12.238  11.324  14.754
16248SOL    HW150577  12.227  11.380  14.831
16248SOL    HW250578  12.332  11.313  14.745
16249SOL     OW50579   8.606   4.552  10.030
16249SOL    HW150580   8.588   4.461  10.054
16249SOL    HW250581   8.583   4.603  10.107
16250SOL     OW50582   2.999  13.854  13.881
16250SOL    HW150583   2.988  13.888  13.792
16250SOL    HW250584   3.083  13.808  13.879
16251SOL     OW50585   3.267  13.458  14.299
16251SOL    HW150586   3.300  13.383  14.349
16251SOL    HW250587   3.313  13.534  14.335
16252SOL     OW50588   5.955   2.721  12.175
16252SOL    HW150589   5.867   2.752  12.193
16252SOL    HW250590   5.995   2.792  12.123
16253SOL     OW50591  14.023   1.747   3.388
16253SOL    HW150592  13.934   1.717   3.369
16253SOL    HW250593  14.075   1.667   3.394
16254SOL     OW50594  12.549   7.269   6.252
16254SOL    HW150595  12.493   7.231   6.320
16254SOL    HW250596  12.519   7.229   6.171
16255SOL     OW50597   5.623  10.015   0.038
16255SOL    HW150598   5.676  10.093   0.023
16255SOL    HW250599   5.588   9.993  14.824
16256SOL     OW50600   2.939   9.185   7.368
16256SOL    HW150601   2.988   9.139   7.437
16256SOL    HW250602   3.005   9.217   7.308
16257SOL     OW50603   1.765   4.932   9.319
16257SOL    HW150604   1.771   5.024   9.344
16257SOL    HW250605   1.739   4.934   9.226
16258SOL     OW50606   8.711  14.199   0.212
16258SOL    HW150607   8.630  14.210   0.162
16258SOL    HW250608   8.763  14.276   0.190
16259SOL     OW50609  10.404  14.186   3.232
16259SOL    HW150610  10.402  14.239   3.311
16259SOL    HW250611  10.486  14.137   3.236
16260SOL     OW50612   8.446   5.274   8.012
16260SOL    HW150613   8.520   5.280   7.952
16260SOL    HW250614   8.484   5.236   8.092
16261SOL     OW50615   7.519   6.921  11.725
16261SOL    HW150616   7.582   6.851  11.706
16261SOL    HW250617   7.521   6.977  11.648
16262SOL     OW50618   1.177   6.135   8.239
16262SOL    HW150619   1.201   6.129   8.146
16262SOL    HW250620   1.190   6.228   8.261
16263SOL     OW50621  11.538   5.892  11.717
16263SOL    HW150622  11.447   5.904  11.745
16263SOL    HW250623  11.590   5.915  11.794
16264SOL     OW50624  10.598   0.418   3.648
16264SOL    HW150625  10.594   0.512   3.631
16264SOL    HW250626  10.507   0.388   3.641
16265SOL     OW50627   1.330  14.589   7.307
16265SOL    HW150628   1.409  14.541   7.282
16265SOL    HW250629   1.297  14.543   7.384
16266SOL     OW50630   8.423   5.317   6.584
16266SOL    HW150631   8.506   5.272   6.570
16266SOL    HW250632   8.421   5.332   6.679
16267SOL     OW50633  10.987   7.562  12.256
16267SOL    HW150634  10.918   7.569  12.322
16267SOL    HW250635  10.990   7.648  12.215
16268SOL     OW50636   5.011   0.258  12.911
16268SOL    HW150637   5.089   0.201  12.908
16268SOL    HW250638   4.943   0.202  12.949
16269SOL     OW50639   7.518   0.305   9.980
16269SOL    HW150640   7.613   0.308   9.967
16269SOL    HW250641   7.482   0.345   9.901
16270SOL     OW50642   6.524   5.186   4.266
16270SOL    HW150643   6.511   5.271   4.224
16270SOL    HW250644   6.609   5.156   4.233
16271SOL     OW50645   6.851   7.360   9.013
16271SOL    HW150646   6.892   7.296   9.071
16271SOL    HW250647   6.911   7.368   8.939
16272SOL     OW50648   7.112   3.731   2.073
16272SOL    HW150649   7.022   3.702   2.084
16272SOL    HW250650   7.162   3.650   2.061
16273SOL     OW50651   0.765   4.905   5.523
16273SOL    HW150652   0.700   4.957   5.569
16273SOL    HW250653   0.793   4.839   5.587
16274SOL     OW50654  13.866  14.376   4.255
16274SOL    HW150655  13.809  14.344   4.185
16274SOL    HW250656  13.888  14.465   4.228
16275SOL     OW50657   9.563  10.488  10.862
16275SOL    HW150658   9.499  10.540  10.911
16275SOL    HW250659   9.643  10.542  10.862
16276SOL     OW50660   1.556  13.841  11.267
16276SOL    HW150661   1.610  13.914  11.294
16276SOL    HW250662   1.468  13.877  11.260
16277SOL     OW50663   1.713   4.539   3.738
16277SOL    HW150664   1.630   4.581   3.762
16277SOL    HW250665   1.751   4.512   3.822
16278SOL     OW50666   9.787   3.582   6.060
16278SOL    HW150667   9.868   3.596   6.011
16278SOL    HW250668   9.752   3.670   6.074
16279SOL     OW50669  13.011   7.481   7.763
16279SOL    HW150670  13.009   7.571   7.729
16279SOL    HW250671  12.958   7.431   7.702
16280SOL     OW50672   9.680   8.334  14.526
16280SOL    HW150673   9.728   8.275  14.468
16280SOL    HW250674   9.635   8.394  14.466
16281SOL     OW50675   2.846   3.161   7.028
16281SOL    HW150676   2.828   3.146   7.121
16281SOL    HW250677   2.898   3.085   7.001
16282SOL     OW50678   2.809   9.352   4.007
16282SOL    HW150679   2.769   9.267   3.988
16282SOL    HW250680   2.762   9.383   4.085
16283SOL     OW50681  12.564  13.603   8.808
16283SOL    HW150682  12.618  13.547   8.865
16283SOL    HW250683  12.512  13.655   8.869
16284SOL     OW50684   6.042   5.491   7.865
16284SOL    HW150685   5.949   5.468   7.872
16284SOL    HW250686   6.045   5.563   7.803
16285SOL     OW50687   4.241   8.409   7.379
16285SOL    HW150688   4.335   8.393   7.389
16285SOL    HW250689   4.200   8.359   7.449
16286SOL     OW50690  11.702   4.327   2.467
16286SOL    HW150691  11.758   4.266   2.516
16286SOL    HW250692  11.763   4.373   2.408
16287SOL     OW50693  11.144   7.813  13.455
16287SOL    HW150694  11.150   7.768  13.371
16287SOL    HW250695  11.219   7.872  13.456
16288SOL     OW50696   8.901  11.616   2.329
16288SOL    HW150697   8.972  11.555   2.348
16288SOL    HW250698   8.927  11.661   2.249
16289SOL     OW50699   9.193  13.496  12.546
16289SOL    HW150700   9.175  13.447  12.466
16289SOL    HW250701   9.221  13.582  12.515
16290SOL     OW50702   3.269   4.502  13.234
16290SOL    HW150703   3.194   4.453  13.199
16290SOL    HW250704   3.345   4.463  13.192
16291SOL     OW50705  12.387   8.129   4.634
16291SOL    HW150706  12.375   8.176   4.717
16291SOL    HW250707  12.481   8.116   4.627
16292SOL     OW50708   1.954   7.815   2.537
16292SOL    HW150709   1.965   7.773   2.622
16292SOL    HW250710   1.868   7.787   2.507
16293SOL     OW50711  14.596   2.528  11.774
16293SOL    HW150712  14.621   2.555  11.863
16293SOL    HW250713  14.665   2.467  11.747
16294SOL     OW50714   2.662   6.743  13.210
16294SOL    HW150715   2.745   6.777  13.177
16294SOL    HW250716   2.683   6.654  13.238
16295SOL     OW50717   8.087   8.061   5.450
16295SOL    HW150718   8.161   8.091   5.503
16295SOL    HW250719   8.023   8.030   5.515
16296SOL     OW50720   2.484   9.910  11.877
16296SOL    HW150721   2.416   9.951  11.822
16296SOL    HW250722   2.564   9.959  11.857
16297SOL     OW50723  12.089   0.108   3.199
16297SOL    HW150724  12.172   0.081   3.240
16297SOL    HW250725  12.022   0.061   3.248
16298SOL     OW50726   6.770   0.934  10.142
16298SOL    HW150727   6.846   0.959  10.090
16298SOL    HW250728   6.707   1.004  10.128
16299SOL     OW50729  12.585   6.185   6.851
16299SOL    HW150730  12.585   6.145   6.937
16299SOL    HW250731  12.627   6.270   6.864
16300SOL     OW50732   4.921   1.442  14.847
16300SOL    HW150733   4.957   1.368  14.797
16300SOL    HW250734   4.912   1.512  14.783
16301SOL     OW50735  12.663   7.808   1.837
16301SOL    HW150736  12.704   7.883   1.880
16301SOL    HW250737  12.583   7.793   1.886
16302SOL     OW50738   1.814  10.358  12.389
16302SOL    HW150739   1.841  10.426  12.328
16302SOL    HW250740   1.746  10.309  12.343
16303SOL     OW50741  14.799   1.057   2.913
16303SOL    HW150742  14.795   1.003   2.992
16303SOL    HW250743   0.016   1.046   2.881
16304SOL     OW50744   5.822   5.909  11.421
16304SOL    HW150745   5.774   5.935  11.343
16304SOL    HW250746   5.755   5.902  11.489
16305SOL     OW50747   1.469  12.217   0.587
16305SOL    HW150748   1.554  12.173   0.578
16305SOL    HW250749   1.405  12.148   0.571
16306SOL     OW50750  10.861  11.658   8.807
16306SOL    HW150751  10.944  11.685   8.768
16306SOL    HW250752  10.794  11.695   8.749
16307SOL     OW50753   8.005  14.580   4.010
16307SOL    HW150754   8.076  14.614   4.064
16307SOL    HW250755   7.961  14.515   4.065
16308SOL     OW50756  12.110   5.161  11.372
16308SOL    HW150757  12.112   5.086  11.313
16308SOL    HW250758  12.023   5.158  11.412
16309SOL     OW50759   5.551   3.986   6.361
16309SOL    HW150760   5.505   4.065   6.390
16309SOL    HW250761   5.598   4.013   6.282
16310SOL     OW50762   2.103   2.436  12.341
16310SOL    HW150763   2.080   2.521  12.378
16310SOL    HW250764   2.021   2.402  12.307
16311SOL     OW50765   5.287   1.096   7.749
16311SOL    HW150766   5.367   1.058   7.712
16311SOL    HW250767   5.236   1.124   7.673
16312SOL     OW50768  10.330   0.756   0.028
16312SOL    HW150769  10.419   0.731   0.053
16312SOL    HW250770  10.298   0.807   0.103
16313SOL     OW50771   7.144   7.395  13.371
16313SOL    HW150772   7.179   7.313  13.404
16313SOL    HW250773   7.135   7.451  13.448
16314SOL     OW50774  12.698   6.424   7.405
16314SOL    HW150775  12.692   6.329   7.396
16314SOL    HW250776  12.615   6.449   7.447
16315SOL     OW50777   5.948  13.718   7.909
16315SOL    HW150778   5.963  13.643   7.966
16315SOL    HW250779   6.009  13.785   7.939
16316SOL     OW50780   1.855   4.811   5.732
16316SOL    HW150781   1.812   4.788   5.649
16316SOL    HW250782   1.928   4.750   5.738
16317SOL     OW50783   4.566  11.133  13.256
16317SOL    HW150784   4.509  11.205  13.231
16317SOL    HW250785   4.655  11.166  13.238
16318SOL     OW50786   4.864   8.962  10.806
16318SOL    HW150787   4.945   8.923  10.773
16318SOL    HW250788   4.800   8.949  10.736
16319SOL     OW50789   0.723  14.165  14.267
16319SOL    HW150790   0.711  14.213  14.349
16319SOL    HW250791   0.715  14.231  14.198
16320SOL     OW50792   3.860   3.058   4.988
16320SOL    HW150793   3.853   3.134   5.045
16320SOL    HW250794   3.811   3.082   4.909
16321SOL     OW50795  12.039   3.470  13.561
16321SOL    HW150796  11.972   3.473  13.493
16321SOL    HW250797  12.105   3.410  13.527
16322SOL     OW50798  11.231   4.610   5.208
16322SOL    HW150799  11.194   4.588   5.293
16322SOL    HW250800  11.197   4.544   5.149
16323SOL     OW50801   6.778   6.894   1.659
16323SOL    HW150802   6.841   6.833   1.620
16323SOL    HW250803   6.831   6.954   1.711
16324SOL     OW50804  11.240  13.137   5.178
16324SOL    HW150805  11.237  13.107   5.269
16324SOL    HW250806  11.329  13.170   5.167
16325SOL     OW50807   1.022  11.988   9.517
16325SOL    HW150808   0.946  11.932   9.498
16325SOL    HW250809   1.003  12.071   9.473
16326SOL     OW50810   2.254  12.464   4.464
16326SOL    HW150811   2.279  12.380   4.426
16326SOL    HW250812   2.321  12.525   4.434
16327SOL     OW50813   8.709   0.302  10.441
16327SOL    HW150814   8.776   0.371  10.436
16327SOL    HW250815   8.704   0.269  10.351
16328SOL     OW50816   6.094   9.889   5.719
16328SOL    HW150817   6.184   9.922   5.724
16328SOL    HW250818   6.090   9.821   5.786
16329SOL     OW50819  10.951   2.929   4.479
16329SOL    HW150820  10.992   2.859   4.429
16329SOL    HW250821  11.023   2.987   4.505
16330SOL     OW50822   4.334   8.398   1.988
16330SOL    HW150823   4.323   8.449   2.068
16330SOL    HW250824   4.393   8.450   1.933
16331SOL     OW50825   2.550   4.993   2.513
16331SOL    HW150826   2.579   5.026   2.598
16331SOL    HW250827   2.535   4.899   2.528
16332SOL     OW50828   4.351   4.727  14.545
16332SOL    HW150829   4.396   4.643  14.554
16332SOL    HW250830   4.369   4.773  14.628
16333SOL     OW50831   5.201   0.648   4.344
16333SOL    HW150832   5.136   0.641   4.415
16333SOL    HW250833   5.151   0.632   4.264
16334SOL     OW50834   9.935   4.478   8.174
16334SOL    HW150835   9.884   4.414   8.124
16334SOL    HW250836   9.983   4.528   8.109
16335SOL     OW50837  12.184   8.127   0.738
16335SOL    HW150838  12.197   8.103   0.646
16335SOL    HW250839  12.262   8.095   0.782
16336SOL     OW50840   7.255  14.390   1.911
16336SOL    HW150841   7.342  14.360   1.885
16336SOL    HW250842   7.257  14.484   1.894
16337SOL     OW50843   2.573   0.030  11.674
16337SOL    HW150844   2.573  14.824  11.729
16337SOL    HW250845   2.665   0.044  11.651
16338SOL     OW50846   9.462  13.365   9.442
16338SOL    HW150847   9.443  13.290   9.498
16338SOL    HW250848   9.460  13.329   9.353
16339SOL     OW50849  10.951   3.634   6.164
16339SOL    HW150850  11.038   3.618   6.128
16339SOL    HW250851  10.954   3.725   6.194
16340SOL     OW50852   3.384  11.774   1.269
16340SOL    HW150853   3.405  11.693   1.314
16340SOL    HW250854   3.302  11.804   1.310
16341SOL     OW50855   5.248   1.598   1.672
16341SOL    HW150856   5.160   1.598   1.710
16341SOL    HW250857   5.233   1.584   1.578
16342SOL     OW50858   9.320  11.150  10.520
16342SOL    HW150859   9.399  11.132  10.470
16342SOL    HW250860   9.259  11.080  10.496
16343SOL     OW50861   6.791  11.842  13.520
16343SOL    HW150862   6.861  11.904  13.544
16343SOL    HW250863   6.834  11.781  13.460
16344SOL     OW50864   9.354  13.368   7.337
16344SOL    HW150865   9.374  13.450   7.383
16344SOL    HW250866   9.381  13.384   7.247
16345SOL     OW50867  14.705   1.510   6.066
16345SOL    HW150868  14.797   1.520   6.088
16345SOL    HW250869  14.697   1.421   6.033
16346SOL     OW50870  12.077   8.564   1.801
16346SOL    HW150871  12.059   8.642   1.749
16346SOL    HW250872  12.172   8.553   1.795
16347SOL     OW50873   6.531   3.988   1.716
16347SOL    HW150874   6.594   4.029   1.657
16347SOL    HW250875   6.519   4.052   1.786
16348SOL     OW50876   1.804  12.187  13.848
16348SOL    HW150877   1.886  12.228  13.819
16348SOL    HW250878   1.783  12.232  13.929
16349SOL     OW50879  11.617  13.825   9.698
16349SOL    HW150880  11.552  13.821   9.768
16349SOL    HW250881  11.632  13.734   9.674
16350SOL     OW50882  11.561   4.074   4.275
16350SOL    HW150883  11.541   4.082   4.368
16350SOL    HW250884  11.479   4.100   4.231
16351SOL     OW50885   5.412   8.640   2.240
16351SOL    HW150886   5.479   8.705   2.260
16351SOL    HW250887   5.340   8.660   2.300
16352SOL     OW50888   7.780  11.027   1.977
16352SOL    HW150889   7.790  10.940   1.938
16352SOL    HW250890   7.823  11.021   2.062
16353SOL     OW50891   7.026   9.477   5.669
16353SOL    HW150892   7.011   9.456   5.577
16353SOL    HW250893   6.950   9.530   5.694
16354SOL     OW50894  14.300   6.372  12.441
16354SOL    HW150895  14.367   6.324  12.392
16354SOL    HW250896  14.340   6.390  12.526
16355SOL     OW50897  11.279   3.781   2.564
16355SOL    HW150898  11.202   3.769   2.620
16355SOL    HW250899  11.255   3.853   2.506
16356SOL     OW50900   4.047  13.433  13.935
16356SOL    HW150901   3.988  13.497  13.895
16356SOL    HW250902   4.052  13.362  13.871
16357SOL     OW50903   8.951   5.748   7.290
16357SOL    HW150904   9.024   5.748   7.351
16357SOL    HW250905   8.900   5.670   7.315
16358SOL     OW50906  10.017   1.828   7.564
16358SOL    HW150907   9.970   1.748   7.586
16358SOL    HW250908   9.974   1.860   7.485
16359SOL     OW50909   0.341  10.025   7.143
16359SOL    HW150910   0.327   9.937   7.178
16359SOL    HW250911   0.273  10.079   7.183
16360SOL     OW50912  10.032  11.911   1.105
16360SOL    HW150913  10.069  11.889   1.190
16360SOL    HW250914  10.056  12.003   1.092
16361SOL     OW50915   3.398  11.856   7.871
16361SOL    HW150916   3.350  11.939   7.869
16361SOL    HW250917   3.399  11.831   7.963
16362SOL     OW50918   8.648   3.623   2.746
16362SOL    HW150919   8.650   3.719   2.739
16362SOL    HW250920   8.559   3.603   2.773
16363SOL     OW50921   0.201   6.830  10.616
16363SOL    HW150922   0.291   6.806  10.641
16363SOL    HW250923   0.204   6.925  10.604
16364SOL     OW50924  11.065   4.516   7.287
16364SOL    HW150925  11.114   4.435   7.299
16364SOL    HW250926  11.051   4.522   7.193
16365SOL     OW50927   4.513  13.756  12.277
16365SOL    HW150928   4.434  13.806  12.299
16365SOL    HW250929   4.481  13.671  12.248
16366SOL     OW50930   5.540  12.031  10.789
16366SOL    HW150931   5.629  11.996  10.783
16366SOL    HW250932   5.544  12.092  10.863
16367SOL     OW50933   5.906   7.110  10.208
16367SOL    HW150934   5.908   7.083  10.299
16367SOL    HW250935   5.858   7.040  10.163
16368SOL     OW50936  11.520   5.064  11.966
16368SOL    HW150937  11.595   5.065  11.906
16368SOL    HW250938  11.463   4.996  11.931
16369SOL     OW50939   7.431   1.292  10.403
16369SOL    HW150940   7.394   1.337  10.327
16369SOL    HW250941   7.497   1.233  10.366
16370SOL     OW50942  11.110   1.843   3.453
16370SOL    HW150943  11.023   1.810   3.430
16370SOL    HW250944  11.110   1.847   3.549
16371SOL     OW50945   4.001   5.515   3.382
16371SOL    HW150946   4.033   5.428   3.404
16371SOL    HW250947   3.906   5.508   3.390
16372SOL     OW50948  11.156  14.489  10.113
16372SOL    HW150949  11.079  14.535  10.080
16372SOL    HW250950  11.139  14.397  10.094
16373SOL     OW50951  13.053   5.276  12.088
16373SOL    HW150952  13.045   5.191  12.044
16373SOL    HW250953  13.030   5.257  12.179
16374SOL     OW50954  10.856   6.534   5.635
16374SOL    HW150955  10.782   6.575   5.589
16374SOL    HW250956  10.815   6.484   5.706
16375SOL     OW50957   8.576  14.806   2.602
16375SOL    HW150958   8.551  14.833   2.690
16375SOL    HW250959   8.658  14.853   2.584
16376SOL     OW50960   0.671   8.009   4.874
16376SOL    HW150961   0.765   8.025   4.878
16376SOL    HW250962   0.659   7.926   4.921
16377SOL     OW50963   0.566   6.386  11.148
16377SOL    HW150964   0.504   6.452  11.181
16377SOL    HW250965   0.518   6.303  11.155
16378SOL     OW50966  14.323   7.240  11.366
16378SOL    HW150967  14.307   7.305  11.435
16378SOL    HW250968  14.407   7.265  11.328
16379SOL     OW50969  14.621   8.100   9.344
16379SOL    HW150970  14.586   8.031   9.401
16379SOL    HW250971  14.556   8.108   9.274
16380SOL     OW50972  10.366   2.814  13.098
16380SOL    HW150973  10.394   2.891  13.049
16380SOL    HW250974  10.447   2.767  13.118
16381SOL     OW50975   9.697   8.558  13.534
16381SOL    HW150976   9.637   8.628  13.560
16381SOL    HW250977   9.659   8.478  13.570
16382SOL     OW50978   3.095   3.430   7.885
16382SOL    HW150979   3.068   3.496   7.950
16382SOL    HW250980   3.064   3.465   7.802
16383SOL     OW50981  10.125   7.220  12.138
16383SOL    HW150982  10.052   7.192  12.193
16383SOL    HW250983  10.095   7.203  12.049
16384SOL     OW50984   9.482   2.047   9.321
16384SOL    HW150985   9.569   2.011   9.338
16384SOL    HW250986   9.423   1.972   9.332
16385SOL     OW50987   2.716   6.299   7.565
16385SOL    HW150988   2.740   6.269   7.478
16385SOL    HW250989   2.797   6.289   7.617
16386SOL     OW50990   4.225  14.551   9.248
16386SOL    HW150991   4.145  14.501   9.262
16386SOL    HW250992   4.243  14.591   9.333
16387SOL     OW50993   1.479   5.787   9.710
16387SOL    HW150994   1.411   5.754   9.769
16387SOL    HW250995   1.436   5.857   9.661
16388SOL     OW50996  10.908   4.106   1.865
16388SOL    HW150997  10.866   4.019   1.864
16388SOL    HW250998  10.880   4.144   1.948
16389SOL     OW50999  10.209   0.289  12.657
16389SOL    HW151000  10.291   0.336  12.640
16389SOL    HW251001  10.237   0.203  12.690
16390SOL     OW51002  14.460  10.270   0.430
16390SOL    HW151003  14.385  10.267   0.371
16390SOL    HW251004  14.518  10.201   0.399
16391SOL     OW51005  13.016   9.013  12.276
16391SOL    HW151006  12.937   9.053  12.240
16391SOL    HW251007  13.017   8.924  12.240
16392SOL     OW51008  10.634   6.115   3.094
16392SOL    HW151009  10.599   6.155   3.015
16392SOL    HW251010  10.692   6.181   3.131
16393SOL     OW51011   3.197  12.204   2.617
16393SOL    HW151012   3.227  12.288   2.582
16393SOL    HW251013   3.244  12.139   2.564
16394SOL     OW51014   6.538   7.877  11.725
16394SOL    HW151015   6.502   7.955  11.768
16394SOL    HW251016   6.618   7.858  11.773
16395SOL     OW51017   9.276   7.744  10.883
16395SOL    HW151018   9.295   7.671  10.942
16395SOL    HW251019   9.354   7.751  10.828
16396SOL     OW51020   9.441   7.718   9.365
16396SOL    HW151021   9.518   7.755   9.409
16396SOL    HW251022   9.408   7.790   9.312
16397SOL     OW51023   2.624   8.023  10.980
16397SOL    HW151024   2.646   8.093  10.920
16397SOL    HW251025   2.529   8.026  10.987
16398SOL     OW51026   6.944   1.526  13.291
16398SOL    HW151027   6.948   1.608  13.339
16398SOL    HW251028   6.930   1.552  13.200
16399SOL     OW51029   5.025  11.620   8.785
16399SOL    HW151030   5.042  11.527   8.772
16399SOL    HW251031   5.055  11.637   8.875
16400SOL     OW51032   0.064   4.513   2.164
16400SOL    HW151033   0.102   4.496   2.078
16400SOL    HW251034   0.109   4.453   2.223
16401SOL     OW51035   1.448   4.537   5.789
16401SOL    HW151036   1.488   4.525   5.703
16401SOL    HW251037   1.457   4.631   5.806
16402SOL     OW51038   0.170   5.653  13.301
16402SOL    HW151039   0.118   5.612  13.232
16402SOL    HW251040   0.128   5.624  13.383
16403SOL     OW51041   8.962  14.425  12.596
16403SOL    HW151042   9.010  14.363  12.652
16403SOL    HW251043   8.893  14.372  12.557
16404SOL     OW51044   2.562  14.563   4.130
16404SOL    HW151045   2.468  14.555   4.114
16404SOL    HW251046   2.600  14.576   4.044
16405SOL     OW51047   9.969  11.365   4.864
16405SOL    HW151048   9.966  11.346   4.958
16405SOL    HW251049   9.936  11.454   4.856
16406SOL     OW51050   4.668   7.540  14.072
16406SOL    HW151051   4.694   7.448  14.066
16406SOL    HW251052   4.610   7.554  13.997
16407SOL     OW51053  14.525   9.143   1.898
16407SOL    HW151054  14.462   9.074   1.878
16407SOL    HW251055  14.490   9.221   1.856
16408SOL     OW51056   6.298   6.529   1.845
16408SOL    HW151057   6.347   6.598   1.890
16408SOL    HW251058   6.348   6.512   1.766
16409SOL     OW51059   8.000  11.090  14.373
16409SOL    HW151060   7.970  11.051  14.291
16409SOL    HW251061   8.045  11.170  14.346
16410SOL     OW51062   4.030  12.761  13.003
16410SOL    HW151063   4.120  12.731  13.014
16410SOL    HW251064   4.034  12.855  13.021
16411SOL     OW51065  11.104   3.128   0.168
16411SOL    HW151066  11.183   3.074   0.176
16411SOL    HW251067  11.126   3.208   0.215
16412SOL     OW51068  12.698  11.198  10.444
16412SOL    HW151069  12.618  11.230  10.485
16412SOL    HW251070  12.750  11.163  10.516
16413SOL     OW51071   8.704   5.813  11.706
16413SOL    HW151072   8.791   5.779  11.686
16413SOL    HW251073   8.719   5.904  11.733
16414SOL     OW51074   7.140  10.095  10.942
16414SOL    HW151075   7.231  10.124  10.945
16414SOL    HW251076   7.104  10.137  10.864
16415SOL     OW51077   8.129   5.885   3.281
16415SOL    HW151078   8.063   5.897   3.213
16415SOL    HW251079   8.178   5.968   3.282
16416SOL     OW51080   4.600   3.420  14.727
16416SOL    HW151081   4.663   3.414  14.799
16416SOL    HW251082   4.549   3.339  14.734
16417SOL     OW51083   5.102   8.548   4.297
16417SOL    HW151084   5.093   8.601   4.218
16417SOL    HW251085   5.111   8.612   4.367
16418SOL     OW51086  12.521  13.057   9.961
16418SOL    HW151087  12.580  12.997  10.007
16418SOL    HW251088  12.436  13.045  10.003
16419SOL     OW51089  14.000   4.570   8.805
16419SOL    HW151090  13.980   4.658   8.775
16419SOL    HW251091  14.017   4.580   8.899
16420SOL     OW51092  12.173   7.656   9.573
16420SOL    HW151093  12.142   7.575   9.532
16420SOL    HW251094  12.116   7.724   9.538
16421SOL     OW51095   8.432   9.060  11.246
16421SOL    HW151096   8.383   8.986  11.282
16421SOL    HW251097   8.496   9.082  11.315
16422SOL     OW51098   9.135   2.411   4.438
16422SOL    HW151099   9.147   2.447   4.350
16422SOL    HW251100   9.224   2.391   4.469
16423SOL     OW51101  12.105   7.542   5.081
16423SOL    HW151102  12.094   7.448   5.068
16423SOL    HW251103  12.192   7.550   5.120
16424SOL     OW51104   4.188   4.217  10.661
16424SOL    HW151105   4.147   4.153  10.602
16424SOL    HW251106   4.258   4.169  10.704
16425SOL     OW51107   4.343   1.002   0.984
16425SOL    HW151108   4.303   1.030   0.902
16425SOL    HW251109   4.396   0.926   0.961
16426SOL     OW51110   2.566   6.523   4.450
16426SOL    HW151111   2.656   6.554   4.437
16426SOL    HW251112   2.573   6.461   4.522
16427SOL     OW51113   6.510   8.348   3.354
16427SOL    HW151114   6.552   8.335   3.269
16427SOL    HW251115   6.582   8.358   3.416
16428SOL     OW51116   3.268   2.665  14.666
16428SOL    HW151117   3.301   2.608  14.736
16428SOL    HW251118   3.279   2.613  14.586
16429SOL     OW51119   9.622   0.365  13.755
16429SOL    HW151120   9.533   0.370  13.790
16429SOL    HW251121   9.625   0.432  13.687
16430SOL     OW51122  11.143  10.766   1.349
16430SOL    HW151123  11.106  10.689   1.392
16430SOL    HW251124  11.091  10.839   1.381
16431SOL     OW51125   1.627   0.406  11.770
16431SOL    HW151126   1.573   0.386  11.694
16431SOL    HW251127   1.633   0.501  11.771
16432SOL     OW51128   6.513  12.773   8.521
16432SOL    HW151129   6.495  12.700   8.580
16432SOL    HW251130   6.484  12.851   8.569
16433SOL     OW51131  13.787  11.718   0.861
16433SOL    HW151132  13.783  11.622   0.858
16433SOL    HW251133  13.862  11.740   0.806
16434SOL     OW51134   7.868   2.508   6.038
16434SOL    HW151135   7.777   2.536   6.049
16434SOL    HW251136   7.903   2.564   5.969
16435SOL     OW51137  10.076   2.320   3.035
16435SOL    HW151138  10.017   2.272   3.094
16435SOL    HW251139  10.159   2.274   3.041
16436SOL     OW51140  12.703   4.160   6.082
16436SOL    HW151141  12.733   4.117   6.163
16436SOL    HW251142  12.678   4.088   6.025
16437SOL     OW51143   2.904   8.150   4.215
16437SOL    HW151144   2.962   8.075   4.210
16437SOL    HW251145   2.911   8.180   4.306
16438SOL     OW51146   9.795   6.847   6.310
16438SOL    HW151147   9.789   6.932   6.268
16438SOL    HW251148   9.826   6.788   6.241
16439SOL     OW51149  14.664   1.115  12.786
16439SOL    HW151150  14.651   1.205  12.815
16439SOL    HW251151  14.754   1.114  12.754
16440SOL     OW51152   9.986  13.333   4.320
16440SOL    HW151153   9.901  13.303   4.352
16440SOL    HW251154   9.975  13.340   4.225
16441SOL     OW51155  13.275  14.232   5.267
16441SOL    HW151156  13.346  14.261   5.323
16441SOL    HW251157  13.318  14.183   5.197
16442SOL     OW51158   1.254   3.685  12.698
16442SOL    HW151159   1.165   3.707  12.727
16442SOL    HW251160   1.247   3.674  12.603
16443SOL     OW51161  10.972  11.482   2.680
16443SOL    HW151162  10.904  11.548   2.664
16443SOL    HW251163  10.989  11.444   2.594
16444SOL     OW51164   6.416   6.583   5.908
16444SOL    HW151165   6.326   6.605   5.931
16444SOL    HW251166   6.416   6.487   5.900
16445SOL     OW51167  13.195   0.302   5.302
16445SOL    HW151168  13.262   0.361   5.338
16445SOL    HW251169  13.232   0.214   5.312
16446SOL     OW51170  14.650   7.561  11.349
16446SOL    HW151171  14.624   7.469  11.351
16446SOL    HW251172  14.597   7.603  11.416
16447SOL     OW51173   8.611   9.624   6.956
16447SOL    HW151174   8.668   9.695   6.987
16447SOL    HW251175   8.529   9.635   7.005
16448SOL     OW51176   5.727  14.859  10.985
16448SOL    HW151177   5.811   0.012  11.023
16448SOL    HW251178   5.748  14.786  10.927
16449SOL     OW51179   6.670  12.127   9.569
16449SOL    HW151180   6.632  12.039   9.566
16449SOL    HW251181   6.696  12.144   9.478
16450SOL     OW51182   0.604   5.552   8.764
16450SOL    HW151183   0.563   5.593   8.688
16450SOL    HW251184   0.568   5.464   8.766
16451SOL     OW51185   4.800   2.807  11.312
16451SOL    HW151186   4.864   2.878  11.307
16451SOL    HW251187   4.744   2.819  11.235
16452SOL     OW51188   6.480   4.819   5.025
16452SOL    HW151189   6.574   4.804   5.011
16452SOL    HW251190   6.477   4.899   5.078
16453SOL     OW51191  13.121   2.253  10.620
16453SOL    HW151192  13.052   2.202  10.661
16453SOL    HW251193  13.099   2.344  10.641
16454SOL     OW51194   8.909   5.496  10.948
16454SOL    HW151195   8.841   5.470  10.886
16454SOL    HW251196   8.863   5.546  11.015
16455SOL     OW51197   2.641   1.720  11.501
16455SOL    HW151198   2.657   1.658  11.430
16455SOL    HW251199   2.728   1.735  11.539
16456SOL     OW51200   9.185  11.927  14.482
16456SOL    HW151201   9.244  11.872  14.534
16456SOL    HW251202   9.244  11.975  14.424
16457SOL     OW51203  13.152  12.406   8.601
16457SOL    HW151204  13.058  12.424   8.603
16457SOL    HW251205  13.177  12.417   8.510
16458SOL     OW51206   0.146  10.366  10.903
16458SOL    HW151207   0.215  10.319  10.856
16458SOL    HW251208   0.068  10.311  10.890
16459SOL     OW51209   2.999   3.867   5.926
16459SOL    HW151210   2.912   3.869   5.966
16459SOL    HW251211   3.024   3.960   5.918
16460SOL     OW51212   2.422   2.560   6.713
16460SOL    HW151213   2.480   2.560   6.637
16460SOL    HW251214   2.379   2.646   6.712
16461SOL     OW51215   4.730   9.267  12.180
16461SOL    HW151216   4.650   9.267  12.128
16461SOL    HW251217   4.727   9.185  12.229
16462SOL     OW51218   8.871   5.809   5.394
16462SOL    HW151219   8.837   5.845   5.476
16462SOL    HW251220   8.912   5.726   5.419
16463SOL     OW51221   8.882   7.081   8.172
16463SOL    HW151222   8.817   7.143   8.206
16463SOL    HW251223   8.864   7.000   8.219
16464SOL     OW51224  14.321   4.184  13.801
16464SOL    HW151225  14.375   4.260  13.780
16464SOL    HW251226  14.383   4.119  13.834
16465SOL     OW51227   6.774   0.138   9.328
16465SOL    HW151228   6.861   0.124   9.293
16465SOL    HW251229   6.788   0.176   9.415
16466SOL     OW51230  14.712  13.661  12.216
16466SOL    HW151231  14.695  13.639  12.124
16466SOL    HW251232  14.747  13.750  12.213
16467SOL     OW51233   0.486   9.506   2.237
16467SOL    HW151234   0.416   9.502   2.172
16467SOL    HW251235   0.539   9.427   2.220
16468SOL     OW51236   8.891  10.955   8.427
16468SOL    HW151237   8.900  11.050   8.422
16468SOL    HW251238   8.841  10.932   8.348
16469SOL     OW51239  14.800   7.960   9.187
16469SOL    HW151240  14.734   7.992   9.249
16469SOL    HW251241  14.835   8.039   9.146
16470SOL     OW51242   5.227  10.525  10.991
16470SOL    HW151243   5.180  10.597  10.949
16470SOL    HW251244   5.319  10.549  10.986
16471SOL     OW51245   4.930   4.877   2.072
16471SOL    HW151246   4.936   4.909   1.982
16471SOL    HW251247   4.900   4.786   2.064
16472SOL     OW51248   2.484   8.176  11.905
16472SOL    HW151249   2.514   8.154  11.816
16472SOL    HW251250   2.563   8.170  11.959
16473SOL     OW51251  12.574  14.722  11.336
16473SOL    HW151252  12.574  14.627  11.330
16473SOL    HW251253  12.587  14.741  11.429
16474SOL     OW51254   8.286  13.929  13.397
16474SOL    HW151255   8.344  13.874  13.449
16474SOL    HW251256   8.216  13.954  13.457
16475SOL     OW51257   3.587   3.414   0.923
16475SOL    HW151258   3.596   3.400   1.017
16475SOL    HW251259   3.495   3.394   0.905
16476SOL     OW51260   4.434   2.374  11.432
16476SOL    HW151261   4.389   2.377  11.516
16476SOL    HW251262   4.468   2.284  11.426
16477SOL     OW51263  11.395   5.742  14.325
16477SOL    HW151264  11.463   5.681  14.295
16477SOL    HW251265  11.317   5.717  14.274
16478SOL     OW51266  12.079  14.848  14.385
16478SOL    HW151267  12.089   0.028  14.465
16478SOL    HW251268  12.144  14.779  14.394
16479SOL     OW51269  10.208  11.738   1.430
16479SOL    HW151270  10.144  11.805   1.451
16479SOL    HW251271  10.183  11.708   1.342
16480SOL     OW51272   0.552  12.524   1.806
16480SOL    HW151273   0.634  12.528   1.757
16480SOL    HW251274   0.577  12.488   1.891
16481SOL     OW51275   9.552   5.254  14.236
16481SOL    HW151276   9.575   5.334  14.283
16481SOL    HW251277   9.491   5.284  14.168
16482SOL     OW51278   9.407   2.974   6.932
16482SOL    HW151279   9.463   2.900   6.956
16482SOL    HW251280   9.469   3.044   6.911
16483SOL     OW51281   6.217   1.718   8.363
16483SOL    HW151282   6.223   1.737   8.457
16483SOL    HW251283   6.291   1.765   8.324
16484SOL     OW51284   2.528  13.710  11.177
16484SOL    HW151285   2.445  13.682  11.217
16484SOL    HW251286   2.533  13.660  11.096
16485SOL     OW51287   6.118  11.505   7.065
16485SOL    HW151288   6.170  11.424   7.067
16485SOL    HW251289   6.088  11.510   6.974
16486SOL     OW51290   3.616   5.535   2.853
16486SOL    HW151291   3.700   5.513   2.894
16486SOL    HW251292   3.566   5.578   2.922
16487SOL     OW51293   8.997  12.386   0.279
16487SOL    HW151294   9.049  12.465   0.285
16487SOL    HW251295   9.016  12.338   0.360
16488SOL     OW51296   7.282   3.822   9.959
16488SOL    HW151297   7.293   3.844   9.867
16488SOL    HW251298   7.363   3.776   9.982
16489SOL     OW51299  12.750   9.722  11.540
16489SOL    HW151300  12.807   9.706  11.614
16489SOL    HW251301  12.695   9.644  11.535
16490SOL     OW51302   1.028   8.313   1.941
16490SOL    HW151303   1.106   8.259   1.925
16490SOL    HW251304   1.036   8.339   2.033
16491SOL     OW51305   9.830  11.387  14.269
16491SOL    HW151306   9.759  11.329  14.241
16491SOL    HW251307   9.790  11.442  14.337
16492SOL     OW51308   0.012   7.181  12.560
16492SOL    HW151309   0.079   7.199  12.495
16492SOL    HW251310   0.023   7.250  12.626
16493SOL     OW51311  10.531   7.339  10.042
16493SOL    HW151312  10.482   7.261  10.069
16493SOL    HW251313  10.623   7.314  10.052
16494SOL     OW51314  12.101   3.812   2.490
16494SOL    HW151315  12.014   3.773   2.492
16494SOL    HW251316  12.160   3.739   2.473
16495SOL     OW51317   0.818   1.851   5.959
16495SOL    HW151318   0.798   1.850   6.052
16495SOL    HW251319   0.798   1.939   5.930
16496SOL     OW51320  11.130   0.416   8.708
16496SOL    HW151321  11.085   0.477   8.766
16496SOL    HW251322  11.091   0.331   8.728
16497SOL     OW51323   9.036  12.649   8.874
16497SOL    HW151324   9.032  12.603   8.958
16497SOL    HW251325   8.946  12.678   8.858
16498SOL     OW51326   8.781  11.292  12.180
16498SOL    HW151327   8.781  11.264  12.089
16498SOL    HW251328   8.690  11.312  12.200
16499SOL     OW51329   6.533   4.401   7.429
16499SOL    HW151330   6.445   4.380   7.399
16499SOL    HW251331   6.522   4.475   7.488
16500SOL     OW51332  13.052   8.947   4.677
16500SOL    HW151333  13.002   9.009   4.731
16500SOL    HW251334  13.129   8.927   4.730
16501SOL     OW51335  14.755  12.667   2.405
16501SOL    HW151336  14.743  12.736   2.470
16501SOL    HW251337  14.850  12.660   2.396
16502SOL     OW51338  14.154   3.442   2.628
16502SOL    HW151339  14.146   3.506   2.558
16502SOL    HW251340  14.210   3.373   2.592
16503SOL     OW51341   4.499   8.228  12.698
16503SOL    HW151342   4.570   8.277  12.655
16503SOL    HW251343   4.514   8.137  12.674
16504SOL     OW51344   5.543   3.139  10.418
16504SOL    HW151345   5.582   3.142  10.330
16504SOL    HW251346   5.504   3.225  10.430
16505SOL     OW51347   1.948   1.834  12.267
16505SOL    HW151348   1.989   1.749  12.252
16505SOL    HW251349   2.018   1.898  12.253
16506SOL     OW51350   1.643  13.228   2.057
16506SOL    HW151351   1.618  13.136   2.069
16506SOL    HW251352   1.678  13.254   2.142
16507SOL     OW51353   2.643   6.941   9.319
16507SOL    HW151354   2.678   7.010   9.263
16507SOL    HW251355   2.671   6.966   9.407
16508SOL     OW51356  13.015   7.226   4.570
16508SOL    HW151357  12.974   7.162   4.512
16508SOL    HW251358  13.108   7.203   4.571
16509SOL     OW51359   8.545  12.083  12.133
16509SOL    HW151360   8.564  11.996  12.169
16509SOL    HW251361   8.630  12.129  12.134
16510SOL     OW51362  10.226   3.014  11.224
16510SOL    HW151363  10.284   2.939  11.211
16510SOL    HW251364  10.204   3.042  11.135
16511SOL     OW51365  12.904   5.004   9.830
16511SOL    HW151366  12.839   4.979   9.764
16511SOL    HW251367  12.966   4.931   9.831
16512SOL     OW51368   6.965   9.792   2.565
16512SOL    HW151369   6.929   9.847   2.495
16512SOL    HW251370   7.044   9.754   2.527
16513SOL     OW51371   2.330  12.519   5.546
16513SOL    HW151372   2.313  12.549   5.636
16513SOL    HW251373   2.256  12.463   5.525
16514SOL     OW51374   8.373  11.050   4.711
16514SOL    HW151375   8.395  10.981   4.648
16514SOL    HW251376   8.380  11.131   4.661
16515SOL     OW51377   5.948   4.913   5.185
16515SOL    HW151378   5.873   4.970   5.203
16515SOL    HW251379   5.981   4.889   5.271
16516SOL     OW51380   6.372  10.228   6.988
16516SOL    HW151381   6.408  10.154   6.941
16516SOL    HW251382   6.374  10.301   6.925
16517SOL     OW51383   7.958   6.366   8.886
16517SOL    HW151384   7.997   6.279   8.880
16517SOL    HW251385   7.881   6.361   8.829
16518SOL     OW51386   6.022  12.338  11.538
16518SOL    HW151387   5.972  12.394  11.597
16518SOL    HW251388   6.109  12.377  11.536
16519SOL     OW51389   2.002   8.986  14.844
16519SOL    HW151390   1.971   8.895  14.839
16519SOL    HW251391   1.932   9.032   0.017
16520SOL     OW51392  10.808   6.836   2.434
16520SOL    HW151393  10.757   6.813   2.512
16520SOL    HW251394  10.876   6.895   2.467
16521SOL     OW51395   7.606   2.605   2.039
16521SOL    HW151396   7.595   2.617   2.134
16521SOL    HW251397   7.517   2.604   2.005
16522SOL     OW51398  12.058  10.181   8.528
16522SOL    HW151399  11.984  10.143   8.576
16522SOL    HW251400  12.018  10.224   8.453
16523SOL     OW51401  11.930  13.588   7.076
16523SOL    HW151402  11.986  13.578   6.999
16523SOL    HW251403  11.849  13.542   7.054
16524SOL     OW51404   8.099   5.462   1.378
16524SOL    HW151405   8.188   5.480   1.347
16524SOL    HW251406   8.068   5.546   1.412
16525SOL     OW51407   0.834   0.093   8.030
16525SOL    HW151408   0.877   0.040   7.963
16525SOL    HW251409   0.897   0.162   8.051
16526SOL     OW51410   1.917  11.717   3.959
16526SOL    HW151411   1.932  11.743   4.050
16526SOL    HW251412   1.886  11.627   3.964
16527SOL     OW51413  10.596   6.005   9.533
16527SOL    HW151414  10.615   6.038   9.621
16527SOL    HW251415  10.682   5.987   9.495
16528SOL     OW51416   1.165  11.543  10.671
16528SOL    HW151417   1.259  11.525  10.680
16528SOL    HW251418   1.154  11.630  10.711
16529SOL     OW51419   5.718   1.333  13.886
16529SOL    HW151420   5.800   1.372  13.859
16529SOL    HW251421   5.686   1.390  13.957
16530SOL     OW51422  14.355   7.395  10.806
16530SOL    HW151423  14.260   7.399  10.799
16530SOL    HW251424  14.387   7.442  10.729
16531SOL     OW51425  14.800  12.581  13.129
16531SOL    HW151426  14.728  12.600  13.068
16531SOL    HW251427  14.790  12.488  13.150
16532SOL     OW51428  12.494   8.094  11.982
16532SOL    HW151429  12.524   8.128  11.898
16532SOL    HW251430  12.495   7.999  11.971
16533SOL     OW51431   6.490  13.336  12.580
16533SOL    HW151432   6.549  13.396  12.626
16533SOL    HW251433   6.547  13.280  12.528
16534SOL     OW51434  13.442   4.481   8.355
16534SOL    HW151435  13.401   4.566   8.340
16534SOL    HW251436  13.433   4.467   8.450
16535SOL     OW51437  11.084   9.712  14.359
16535SOL    HW151438  11.092   9.715  14.455
16535SOL    HW251439  11.030   9.789  14.338
16536SOL     OW51440   1.896   0.007   6.572
16536SOL    HW151441   1.962   0.055   6.622
16536SOL    HW251442   1.850  14.828   6.638
16537SOL     OW51443   5.060  11.049   6.425
16537SOL    HW151444   5.060  11.043   6.521
16537SOL    HW251445   4.974  11.086   6.403
16538SOL     OW51446   5.438   3.876   9.471
16538SOL    HW151447   5.534   3.871   9.473
16538SOL    HW251448   5.418   3.904   9.382
16539SOL     OW51449  10.868   7.891  12.337
16539SOL    HW151450  10.891   7.982  12.354
16539SOL    HW251451  10.896   7.875  12.247
16540SOL     OW51452   6.471   3.104   3.168
16540SOL    HW151453   6.521   3.057   3.234
16540SOL    HW251454   6.515   3.083   3.085
16541SOL     OW51455   5.912  10.013  14.476
16541SOL    HW151456   5.870  10.042  14.557
16541SOL    HW251457   5.843  10.018  14.410
16542SOL     OW51458   9.111   9.940   4.063
16542SOL    HW151459   9.141   9.995   3.991
16542SOL    HW251460   9.069   9.865   4.020
16543SOL     OW51461  11.866  14.332   6.814
16543SOL    HW151462  11.895  14.333   6.723
16543SOL    HW251463  11.857  14.239   6.835
16544SOL     OW51464  13.600   1.489  13.420
16544SOL    HW151465  13.613   1.513  13.328
16544SOL    HW251466  13.512   1.452  13.424
16545SOL     OW51467   4.928  12.791   9.751
16545SOL    HW151468   4.861  12.773   9.817
16545SOL    HW251469   4.878  12.808   9.671
16546SOL     OW51470   7.347   4.924   9.668
16546SOL    HW151471   7.412   4.967   9.612
16546SOL    HW251472   7.315   4.994   9.724
16547SOL     OW51473   0.370   6.441   5.929
16547SOL    HW151474   0.323   6.384   5.990
16547SOL    HW251475   0.450   6.393   5.908
16548SOL     OW51476   2.746   4.682   5.691
16548SOL    HW151477   2.833   4.717   5.675
16548SOL    HW251478   2.761   4.593   5.722
16549SOL     OW51479  11.143   9.013  10.929
16549SOL    HW151480  11.048   9.006  10.927
16549SOL    HW251481  11.160   9.108  10.929
16550SOL     OW51482   5.066   3.846  14.370
16550SOL    HW151483   5.048   3.895  14.291
16550SOL    HW251484   5.145   3.885  14.406
16551SOL     OW51485   5.668  10.629  12.367
16551SOL    HW151486   5.656  10.538  12.393
16551SOL    HW251487   5.620  10.637  12.285
16552SOL     OW51488  11.405   9.233  13.069
16552SOL    HW151489  11.473   9.166  13.068
16552SOL    HW251490  11.353   9.212  13.147
16553SOL     OW51491   1.646  11.720   8.366
16553SOL    HW151492   1.672  11.784   8.300
16553SOL    HW251493   1.561  11.689   8.337
16554SOL     OW51494   9.434   9.729  11.272
16554SOL    HW151495   9.388   9.790  11.330
16554SOL    HW251496   9.476   9.785  11.207
16555SOL     OW51497   5.404   5.624   1.660
16555SOL    HW151498   5.402   5.635   1.565
16555SOL    HW251499   5.456   5.698   1.691
16556SOL     OW51500  11.833   8.924   5.788
16556SOL    HW151501  11.906   8.906   5.728
16556SOL    HW251502  11.784   8.994   5.745
16557SOL     OW51503   1.915   9.263   5.947
16557SOL    HW151504   1.827   9.279   5.913
16557SOL    HW251505   1.962   9.225   5.872
16558SOL     OW51506  13.536   2.496  13.449
16558SOL    HW151507  13.557   2.447  13.370
16558SOL    HW251508  13.485   2.436  13.503
16559SOL     OW51509   8.485   9.043   0.799
16559SOL    HW151510   8.398   9.047   0.758
16559SOL    HW251511   8.471   8.992   0.879
16560SOL     OW51512   9.920   1.321   9.312
16560SOL    HW151513   9.869   1.254   9.265
16560SOL    HW251514   9.901   1.402   9.266
16561SOL     OW51515   9.049   7.587   9.663
16561SOL    HW151516   9.133   7.544   9.651
16561SOL    HW251517   9.026   7.620   9.576
16562SOL     OW51518   6.563   2.848   9.005
16562SOL    HW151519   6.469   2.831   9.001
16562SOL    HW251520   6.570   2.934   9.047
16563SOL     OW51521   6.206  10.192  10.456
16563SOL    HW151522   6.141  10.243  10.407
16563SOL    HW251523   6.168  10.105  10.462
16564SOL     OW51524   4.489  12.774   6.299
16564SOL    HW151525   4.469  12.681   6.299
16564SOL    HW251526   4.554  12.785   6.229
16565SOL     OW51527   2.958   6.790   8.017
16565SOL    HW151528   2.879   6.740   7.996
16565SOL    HW251529   2.933   6.845   8.091
16566SOL     OW51530   1.770  12.831  14.525
16566SOL    HW151531   1.851  12.876  14.550
16566SOL    HW251532   1.700  12.889  14.554
16567SOL     OW51533   3.055  10.181  13.972
16567SOL    HW151534   3.106  10.205  14.049
16567SOL    HW251535   3.120  10.157  13.906
16568SOL     OW51536   6.993  12.443   7.848
16568SOL    HW151537   6.984  12.442   7.944
16568SOL    HW251538   6.913  12.486   7.817
16569SOL     OW51539   5.315  10.897   6.574
16569SOL    HW151540   5.361  10.978   6.554
16569SOL    HW251541   5.307  10.852   6.490
16570SOL     OW51542   4.194  11.417   0.400
16570SOL    HW151543   4.231  11.391   0.484
16570SOL    HW251544   4.179  11.335   0.353
16571SOL     OW51545   5.732   9.660   0.557
16571SOL    HW151546   5.796   9.708   0.609
16571SOL    HW251547   5.784   9.602   0.502
16572SOL     OW51548   3.609   7.906   7.864
16572SOL    HW151549   3.533   7.852   7.845
16572SOL    HW251550   3.673   7.883   7.797
16573SOL     OW51551  12.526  10.238   7.084
16573SOL    HW151552  12.554  10.159   7.131
16573SOL    HW251553  12.433  10.248   7.108
16574SOL     OW51554   8.441   6.452   4.056
16574SOL    HW151555   8.425   6.500   4.138
16574SOL    HW251556   8.356   6.412   4.035
16575SOL     OW51557   5.898  10.148   6.335
16575SOL    HW151558   5.849  10.114   6.261
16575SOL    HW251559   5.985  10.167   6.300
16576SOL     OW51560   8.844   5.968  14.369
16576SOL    HW151561   8.885   5.960  14.282
16576SOL    HW251562   8.752   5.987  14.351
16577SOL     OW51563   7.314   7.120   2.345
16577SOL    HW151564   7.306   7.034   2.385
16577SOL    HW251565   7.404   7.147   2.363
16578SOL     OW51566   0.594   4.786   3.395
16578SOL    HW151567   0.522   4.754   3.340
16578SOL    HW251568   0.618   4.711   3.449
16579SOL     OW51569  14.188   1.490   4.961
16579SOL    HW151570  14.260   1.531   5.008
16579SOL    HW251571  14.112   1.545   4.980
16580SOL     OW51572  13.598   7.253   6.003
16580SOL    HW151573  13.666   7.206   5.954
16580SOL    HW251574  13.516   7.218   5.970
16581SOL     OW51575   5.232   7.047   1.266
16581SOL    HW151576   5.302   7.085   1.317
16581SOL    HW251577   5.247   7.078   1.177
16582SOL     OW51578  10.750   8.701  14.064
16582SOL    HW151579  10.784   8.790  14.056
16582SOL    HW251580  10.692   8.704  14.140
16583SOL     OW51581   7.147   2.032   2.926
16583SOL    HW151582   7.224   2.024   2.981
16583SOL    HW251583   7.133   1.945   2.889
16584SOL     OW51584   7.770  12.400   1.309
16584SOL    HW151585   7.847  12.347   1.286
16584SOL    HW251586   7.732  12.425   1.225
16585SOL     OW51587   2.591   0.328   3.220
16585SOL    HW151588   2.509   0.343   3.267
16585SOL    HW251589   2.615   0.238   3.243
16586SOL     OW51590   0.021   4.179   2.069
16586SOL    HW151591   0.031   4.118   2.142
16586SOL    HW251592   0.071   4.139   1.998
16587SOL     OW51593  12.962  11.387   7.863
16587SOL    HW151594  12.897  11.353   7.925
16587SOL    HW251595  13.007  11.309   7.831
16588SOL     OW51596   4.899  12.911   6.436
16588SOL    HW151597   4.924  12.898   6.344
16588SOL    HW251598   4.973  12.878   6.486
16589SOL     OW51599  12.281  11.784  12.590
16589SOL    HW151600  12.266  11.766  12.683
16589SOL    HW251601  12.238  11.712  12.545
16590SOL     OW51602  10.787   3.247  14.458
16590SOL    HW151603  10.777   3.192  14.381
16590SOL    HW251604  10.851   3.200  14.513
16591SOL     OW51605   2.623   1.293   9.837
16591SOL    HW151606   2.668   1.354   9.778
16591SOL    HW251607   2.579   1.350   9.901
16592SOL     OW51608   1.728   6.989  10.057
16592SOL    HW151609   1.709   6.901  10.027
16592SOL    HW251610   1.820   7.002  10.036
16593SOL     OW51611   9.907   7.163   9.711
16593SOL    HW151612   9.971   7.093   9.726
16593SOL    HW251613   9.823   7.123   9.733
16594SOL     OW51614  12.470   0.068  10.194
16594SOL    HW151615  12.535   0.131  10.227
16594SOL    HW251616  12.409   0.122  10.143
16595SOL     OW51617   9.080  11.908   2.508
16595SOL    HW151618   9.134  11.830   2.521
16595SOL    HW251619   9.142  11.980   2.502
16596SOL     OW51620  14.218  10.497   2.296
16596SOL    HW151621  14.281  10.458   2.236
16596SOL    HW251622  14.241  10.589   2.300
16597SOL     OW51623   5.568  14.365  10.706
16597SOL    HW151624   5.531  14.402  10.626
16597SOL    HW251625   5.546  14.272  10.701
16598SOL     OW51626   2.388   4.542  14.452
16598SOL    HW151627   2.430   4.461  14.423
16598SOL    HW251628   2.424   4.558  14.539
16599SOL     OW51629  12.788   0.627   9.684
16599SOL    HW151630  12.776   0.637   9.779
16599SOL    HW251631  12.707   0.660   9.646
16600SOL     OW51632   3.986  13.939   5.065
16600SOL    HW151633   4.048  14.011   5.076
16600SOL    HW251634   3.904  13.971   5.102
16601SOL     OW51635   3.137   4.452  10.752
16601SOL    HW151636   3.081   4.378  10.777
16601SOL    HW251637   3.211   4.411  10.706
16602SOL     OW51638   0.862   8.833   3.285
16602SOL    HW151639   0.903   8.757   3.245
16602SOL    HW251640   0.868   8.817   3.379
16603SOL     OW51641  11.734   9.649  13.663
16603SOL    HW151642  11.687   9.579  13.619
16603SOL    HW251643  11.672   9.685  13.726
16604SOL     OW51644  13.929  11.921  10.116
16604SOL    HW151645  13.926  11.839  10.166
16604SOL    HW251646  13.879  11.903  10.037
16605SOL     OW51647  10.782   5.779   7.083
16605SOL    HW151648  10.793   5.861   7.130
16605SOL    HW251649  10.823   5.795   6.998
16606SOL     OW51650  10.735  10.929   6.869
16606SOL    HW151651  10.646  10.946   6.900
16606SOL    HW251652  10.785  10.908   6.948
16607SOL     OW51653   8.078   6.296  10.533
16607SOL    HW151654   8.164   6.266  10.504
16607SOL    HW251655   8.097   6.364  10.598
16608SOL     OW51656  13.239   6.353   2.477
16608SOL    HW151657  13.238   6.438   2.521
16608SOL    HW251658  13.328   6.320   2.489
16609SOL     OW51659   4.414   2.277  10.296
16609SOL    HW151660   4.427   2.368  10.323
16609SOL    HW251661   4.375   2.283  10.209
16610SOL     OW51662  10.448   7.731  13.378
16610SOL    HW151663  10.520   7.687  13.331
16610SOL    HW251664  10.370   7.680  13.356
16611SOL     OW51665  11.923  13.953  11.454
16611SOL    HW151666  12.003  13.947  11.402
16611SOL    HW251667  11.888  13.864  11.454
16612SOL     OW51668  11.934   0.755   4.379
16612SOL    HW151669  11.974   0.798   4.454
16612SOL    HW251670  11.879   0.686   4.417
16613SOL     OW51671   7.610  11.574   4.296
16613SOL    HW151672   7.609  11.666   4.321
16613SOL    HW251673   7.594  11.527   4.378
16614SOL     OW51674   6.117   4.835   2.855
16614SOL    HW151675   6.177   4.857   2.926
16614SOL    HW251676   6.034   4.816   2.898
16615SOL     OW51677  10.841   6.857  11.507
16615SOL    HW151678  10.925   6.890  11.476
16615SOL    HW251679  10.777   6.890  11.444
16616SOL     OW51680  10.658   7.744  11.969
16616SOL    HW151681  10.682   7.667  12.022
16616SOL    HW251682  10.725   7.747  11.901
16617SOL     OW51683  12.828  11.797  14.699
16617SOL    HW151684  12.750  11.768  14.652
16617SOL    HW251685  12.794  11.832  14.782
16618SOL     OW51686  11.780   4.716   4.615
16618SOL    HW151687  11.790   4.719   4.520
16618SOL    HW251688  11.718   4.786   4.635
16619SOL     OW51689  14.152   2.133   4.855
16619SOL    HW151690  14.195   2.214   4.881
16619SOL    HW251691  14.177   2.122   4.763
16620SOL     OW51692   9.632  14.423   1.449
16620SOL    HW151693   9.580  14.381   1.381
16620SOL    HW251694   9.717  14.380   1.445
16621SOL     OW51695   8.624   7.564   8.358
16621SOL    HW151696   8.570   7.644   8.361
16621SOL    HW251697   8.709   7.593   8.325
16622SOL     OW51698   5.896   7.156   9.512
16622SOL    HW151699   5.926   7.067   9.495
16622SOL    HW251700   5.976   7.206   9.525
16623SOL     OW51701  10.083   5.688  10.190
16623SOL    HW151702  10.081   5.715  10.282
16623SOL    HW251703   9.991   5.677  10.166
16624SOL     OW51704   3.426   2.431  12.232
16624SOL    HW151705   3.347   2.391  12.193
16624SOL    HW251706   3.395   2.514  12.267
16625SOL     OW51707   8.862   7.730   9.276
16625SOL    HW151708   8.835   7.645   9.313
16625SOL    HW251709   8.781   7.766   9.239
16626SOL     OW51710   4.717   8.411  13.765
16626SOL    HW151711   4.674   8.368  13.839
16626SOL    HW251712   4.645   8.447  13.713
16627SOL     OW51713   9.359  10.017  14.314
16627SOL    HW151714   9.443  10.039  14.355
16627SOL    HW251715   9.380   9.943  14.256
16628SOL     OW51716   3.537   3.481   6.966
16628SOL    HW151717   3.543   3.518   6.878
16628SOL    HW251718   3.444   3.460   6.977
16629SOL     OW51719   1.673  13.524   0.349
16629SOL    HW151720   1.689  13.502   0.257
16629SOL    HW251721   1.687  13.618   0.355
16630SOL     OW51722   3.236  12.906   7.086
16630SOL    HW151723   3.286  12.969   7.035
16630SOL    HW251724   3.247  12.935   7.177
16631SOL     OW51725   2.189   7.499   6.732
16631SOL    HW151726   2.199   7.453   6.815
16631SOL    HW251727   2.276   7.498   6.693
16632SOL     OW51728   7.220   7.972   2.853
16632SOL    HW151729   7.291   7.916   2.823
16632SOL    HW251730   7.245   7.997   2.942
16633SOL     OW51731   6.070   2.047   3.306
16633SOL    HW151732   6.148   2.021   3.258
16633SOL    HW251733   5.998   2.000   3.264
16634SOL     OW51734   8.768   5.142   7.637
16634SOL    HW151735   8.838   5.150   7.572
16634SOL    HW251736   8.748   5.048   7.638
16635SOL     OW51737   3.627   0.694   8.140
16635SOL    HW151738   3.545   0.664   8.180
16635SOL    HW251739   3.660   0.761   8.200
16636SOL     OW51740   8.172   2.217   4.210
16636SOL    HW151741   8.266   2.233   4.208
16636SOL    HW251742   8.133   2.300   4.182
16637SOL     OW51743  10.935  11.155   4.125
16637SOL    HW151744  10.981  11.152   4.209
16637SOL    HW251745  10.853  11.200   4.145
16638SOL     OW51746   8.956   3.697  11.053
16638SOL    HW151747   8.913   3.710  10.968
16638SOL    HW251748   8.992   3.609  11.048
16639SOL     OW51749   7.841   3.494   6.523
16639SOL    HW151750   7.914   3.553   6.541
16639SOL    HW251751   7.785   3.544   6.463
16640SOL     OW51752   0.180   6.647  14.519
16640SOL    HW151753   0.206   6.693  14.440
16640SOL    HW251754   0.109   6.700  14.555
16641SOL     OW51755   5.661   7.064   3.382
16641SOL    HW151756   5.598   7.044   3.450
16641SOL    HW251757   5.617   7.039   3.300
16642SOL     OW51758  13.452   4.498   4.298
16642SOL    HW151759  13.511   4.479   4.225
16642SOL    HW251760  13.388   4.427   4.296
16643SOL     OW51761   8.907   3.903  14.355
16643SOL    HW151762   8.873   3.965  14.419
16643SOL    HW251763   8.830   3.863  14.316
16644SOL     OW51764  14.416  12.620  13.711
16644SOL    HW151765  14.364  12.666  13.645
16644SOL    HW251766  14.362  12.545  13.735
16645SOL     OW51767  11.375  11.173   1.933
16645SOL    HW151768  11.361  11.239   1.866
16645SOL    HW251769  11.432  11.216   1.997
16646SOL     OW51770  11.569   0.655  13.945
16646SOL    HW151771  11.517   0.596  13.891
16646SOL    HW251772  11.505   0.701  14.000
16647SOL     OW51773   6.784  10.600  13.579
16647SOL    HW151774   6.719  10.657  13.621
16647SOL    HW251775   6.821  10.548  13.651
16648SOL     OW51776   3.716   9.497   8.076
16648SOL    HW151777   3.747   9.436   8.143
16648SOL    HW251778   3.794   9.519   8.026
16649SOL     OW51779   4.813   2.122   2.782
16649SOL    HW151780   4.768   2.041   2.804
16649SOL    HW251781   4.785   2.142   2.693
16650SOL     OW51782   8.671   1.240   1.292
16650SOL    HW151783   8.709   1.198   1.369
16650SOL    HW251784   8.576   1.228   1.302
16651SOL     OW51785  11.894   3.164   2.719
16651SOL    HW151786  11.944   3.096   2.764
16651SOL    HW251787  11.935   3.246   2.745
16652SOL     OW51788   1.720  12.967   6.254
16652SOL    HW151789   1.755  12.891   6.207
16652SOL    HW251790   1.776  12.975   6.332
16653SOL     OW51791  12.500  13.508  13.657
16653SOL    HW151792  12.541  13.494  13.571
16653SOL    HW251793  12.410  13.535  13.636
16654SOL     OW51794   6.317   8.749   7.920
16654SOL    HW151795   6.365   8.667   7.929
16654SOL    HW251796   6.230   8.723   7.891
16655SOL     OW51797   6.705  12.850   4.799
16655SOL    HW151798   6.709  12.935   4.756
16655SOL    HW251799   6.776  12.852   4.864
16656SOL     OW51800   9.758   6.010   6.513
16656SOL    HW151801   9.738   6.068   6.440
16656SOL    HW251802   9.693   5.940   6.508
16657SOL     OW51803   6.154  11.541   1.424
16657SOL    HW151804   6.113  11.595   1.491
16657SOL    HW251805   6.099  11.555   1.346
16658SOL     OW51806   0.430   2.780   9.702
16658SOL    HW151807   0.482   2.700   9.701
16658SOL    HW251808   0.347   2.754   9.741
16659SOL     OW51809   0.597   0.695   6.229
16659SOL    HW151810   0.681   0.652   6.243
16659SOL    HW251811   0.618   0.788   6.222
16660SOL     OW51812  14.416   4.999   5.764
16660SOL    HW151813  14.386   4.973   5.851
16660SOL    HW251814  14.511   5.006   5.772
16661SOL     OW51815   7.682   9.426   7.343
16661SOL    HW151816   7.642   9.396   7.424
16661SOL    HW251817   7.647   9.515   7.330
16662SOL     OW51818  12.569   0.536   6.538
16662SOL    HW151819  12.493   0.499   6.582
16662SOL    HW251820  12.557   0.631   6.545
16663SOL     OW51821  10.588   3.038   5.744
16663SOL    HW151822  10.624   3.101   5.806
16663SOL    HW251823  10.663   2.987   5.714
16664SOL     OW51824   7.942   3.565  11.573
16664SOL    HW151825   7.919   3.474  11.554
16664SOL    HW251826   7.920   3.576  11.665
16665SOL     OW51827   0.938   3.867   1.224
16665SOL    HW151828   0.974   3.924   1.291
16665SOL    HW251829   0.843   3.878   1.232
16666SOL     OW51830  11.027   3.340   6.236
16666SOL    HW151831  10.983   3.424   6.231
16666SOL    HW251832  10.971   3.287   6.293
16667SOL     OW51833   9.231  14.434  11.627
16667SOL    HW151834   9.147  14.478  11.631
16667SOL    HW251835   9.228  14.383  11.546
16668SOL     OW51836  13.957  13.223   4.580
16668SOL    HW151837  14.001  13.211   4.664
16668SOL    HW251838  13.864  13.232   4.603
16669SOL     OW51839  14.870  13.539   3.501
16669SOL    HW151840   0.093  13.540   3.506
16669SOL    HW251841  14.845  13.455   3.540
16670SOL     OW51842   4.210   7.326  11.823
16670SOL    HW151843   4.162   7.294  11.746
16670SOL    HW251844   4.141   7.354  11.883
16671SOL     OW51845  10.794   3.437   9.306
16671SOL    HW151846  10.855   3.469   9.372
16671SOL    HW251847  10.789   3.507   9.241
16672SOL     OW51848   6.756  12.663   7.794
16672SOL    HW151849   6.718  12.637   7.878
16672SOL    HW251850   6.753  12.758   7.794
16673SOL     OW51851   7.410  10.231  14.729
16673SOL    HW151852   7.427  10.156  14.673
16673SOL    HW251853   7.338  10.277  14.687
16674SOL     OW51854   4.042   2.016   2.206
16674SOL    HW151855   3.968   2.018   2.266
16674SOL    HW251856   4.115   2.051   2.257
16675SOL     OW51857   4.483   1.089   7.485
16675SOL    HW151858   4.564   1.140   7.481
16675SOL    HW251859   4.450   1.090   7.395
16676SOL     OW51860   8.113   9.250   9.531
16676SOL    HW151861   8.149   9.336   9.508
16676SOL    HW251862   8.058   9.226   9.457
16677SOL     OW51863  12.568   8.659   1.562
16677SOL    HW151864  12.544   8.750   1.582
16677SOL    HW251865  12.508   8.633   1.493
16678SOL     OW51866   6.962   6.855  12.180
16678SOL    HW151867   6.952   6.770  12.223
16678SOL    HW251868   7.052   6.854  12.147
16679SOL     OW51869   6.460  10.483   7.383
16679SOL    HW151870   6.453  10.413   7.449
16679SOL    HW251871   6.549  10.475   7.348
16680SOL     OW51872   5.900  13.073  11.939
16680SOL    HW151873   5.953  13.026  11.875
16680SOL    HW251874   5.816  13.087  11.895
16681SOL     OW51875  11.372   7.617   1.528
16681SOL    HW151876  11.356   7.535   1.575
16681SOL    HW251877  11.443   7.659   1.577
16682SOL     OW51878  13.752   6.439   9.164
16682SOL    HW151879  13.771   6.370   9.100
16682SOL    HW251880  13.675   6.483   9.129
16683SOL     OW51881   8.358  10.483  11.638
16683SOL    HW151882   8.331  10.412  11.696
16683SOL    HW251883   8.413  10.441  11.572
16684SOL     OW51884   9.827   5.049   6.033
16684SOL    HW151885   9.803   5.014   6.119
16684SOL    HW251886   9.759   5.114   6.013
16685SOL     OW51887   4.892   9.488   0.572
16685SOL    HW151888   4.933   9.525   0.494
16685SOL    HW251889   4.845   9.411   0.540
16686SOL     OW51890  12.771   9.679   5.140
16686SOL    HW151891  12.744   9.593   5.173
16686SOL    HW251892  12.712   9.741   5.184
16687SOL     OW51893  10.494   1.125   6.585
16687SOL    HW151894  10.583   1.119   6.551
16687SOL    HW251895  10.439   1.109   6.508
16688SOL     OW51896   6.929   6.288   7.984
16688SOL    HW151897   6.844   6.331   7.994
16688SOL    HW251898   6.944   6.288   7.890
16689SOL     OW51899   0.581  14.101   6.996
16689SOL    HW151900   0.563  14.193   6.974
16689SOL    HW251901   0.619  14.104   7.083
16690SOL     OW51902   2.330   4.169  12.289
16690SOL    HW151903   2.406   4.118  12.262
16690SOL    HW251904   2.313   4.227  12.215
16691SOL     OW51905   6.996  14.276  13.221
16691SOL    HW151906   7.066  14.227  13.264
16691SOL    HW251907   7.035  14.361  13.201
16692SOL     OW51908  13.486   4.481  11.683
16692SOL    HW151909  13.539   4.529  11.747
16692SOL    HW251910  13.520   4.508  11.598
16693SOL     OW51911   3.203   0.071   4.977
16693SOL    HW151912   3.287   0.041   4.941
16693SOL    HW251913   3.216   0.164   4.995
16694SOL     OW51914  10.283   6.206   9.482
16694SOL    HW151915  10.331   6.189   9.401
16694SOL    HW251916  10.209   6.259   9.455
16695SOL     OW51917   8.056   6.954   0.397
16695SOL    HW151918   8.142   6.941   0.357
16695SOL    HW251919   8.064   7.035   0.447
16696SOL     OW51920   1.557   5.451  10.229
16696SOL    HW151921   1.621   5.381  10.234
16696SOL    HW251922   1.477   5.413  10.266
16697SOL     OW51923  11.119  14.192  12.591
16697SOL    HW151924  11.147  14.283  12.583
16697SOL    HW251925  11.037  14.196  12.640
16698SOL     OW51926  13.167  12.025   0.783
16698SOL    HW151927  13.112  12.071   0.846
16698SOL    HW251928  13.236  12.087   0.760
16699SOL     OW51929   9.995  12.506  14.198
16699SOL    HW151930  10.043  12.570  14.250
16699SOL    HW251931   9.970  12.555  14.119
16700SOL     OW51932   5.409   0.691   4.837
16700SOL    HW151933   5.397   0.784   4.856
16700SOL    HW251934   5.345   0.647   4.893
16701SOL     OW51935   7.635   3.517  13.379
16701SOL    HW151936   7.607   3.601  13.342
16701SOL    HW251937   7.655   3.537  13.471
16702SOL     OW51938  11.046   5.625   7.554
16702SOL    HW151939  11.003   5.542   7.531
16702SOL    HW251940  11.065   5.617   7.648
16703SOL     OW51941  14.058   9.241   1.928
16703SOL    HW151942  13.994   9.174   1.902
16703SOL    HW251943  14.076   9.223   2.020
16704SOL     OW51944   0.039   1.568   3.014
16704SOL    HW151945   0.029   1.574   3.109
16704SOL    HW251946   0.100   1.638   2.992
16705SOL     OW51947   8.159   7.338  10.180
16705SOL    HW151948   8.083   7.303  10.134
16705SOL    HW251949   8.211   7.260  10.201
16706SOL     OW51950  10.586   6.834   7.865
16706SOL    HW151951  10.678   6.811   7.851
16706SOL    HW251952  10.546   6.754   7.899
16707SOL     OW51953   7.752   1.419   9.238
16707SOL    HW151954   7.740   1.504   9.278
16707SOL    HW251955   7.667   1.376   9.244
16708SOL     OW51956   7.507  12.806   5.308
16708SOL    HW151957   7.552  12.785   5.226
16708SOL    HW251958   7.440  12.870   5.283
16709SOL     OW51959  14.659   2.597  14.158
16709SOL    HW151960  14.701   2.540  14.093
16709SOL    HW251961  14.695   2.684  14.140
16710SOL     OW51962   5.093  12.880   2.438
16710SOL    HW151963   5.030  12.887   2.365
16710SOL    HW251964   5.170  12.927   2.407
16711SOL     OW51965   3.284   1.565   9.535
16711SOL    HW151966   3.220   1.573   9.606
16711SOL    HW251967   3.331   1.648   9.535
16712SOL     OW51968   7.881  13.582   8.811
16712SOL    HW151969   7.830  13.554   8.735
16712SOL    HW251970   7.848  13.669   8.832
16713SOL     OW51971   9.242   5.285   0.176
16713SOL    HW151972   9.247   5.314   0.267
16713SOL    HW251973   9.181   5.347   0.135
16714SOL     OW51974   0.920  10.187   7.738
16714SOL    HW151975   0.935  10.116   7.801
16714SOL    HW251976   0.934  10.267   7.790
16715SOL     OW51977   6.772  11.229  13.709
16715SOL    HW151978   6.799  11.265  13.624
16715SOL    HW251979   6.769  11.135  13.694
16716SOL     OW51980   4.714   3.438   4.756
16716SOL    HW151981   4.737   3.397   4.839
16716SOL    HW251982   4.700   3.530   4.778
16717SOL     OW51983  14.662   3.438  12.988
16717SOL    HW151984  14.588   3.478  12.942
16717SOL    HW251985  14.622   3.370  13.042
16718SOL     OW51986   4.268   5.414   7.401
16718SOL    HW151987   4.320   5.484   7.440
16718SOL    HW251988   4.211   5.384   7.471
16719SOL     OW51989   4.744   3.731  14.042
16719SOL    HW151990   4.689   3.802  14.008
16719SOL    HW251991   4.831   3.749  14.004
16720SOL     OW51992   3.069   5.326   3.211
16720SOL    HW151993   3.070   5.302   3.118
16720SOL    HW251994   3.158   5.305   3.242
16721SOL     OW51995  13.858   0.414  11.495
16721SOL    HW151996  13.909   0.342  11.533
16721SOL    HW251997  13.920   0.486  11.489
16722SOL     OW51998  10.860   8.926  14.076
16722SOL    HW151999  10.944   8.961  14.107
16722SOL    HW252000  10.864   8.936  13.981
16723SOL     OW52001   8.399  11.424   5.902
16723SOL    HW152002   8.328  11.376   5.945
16723SOL    HW252003   8.427  11.365   5.831
16724SOL     OW52004  11.394  13.625  10.217
16724SOL    HW152005  11.418  13.537  10.187
16724SOL    HW252006  11.302  13.634  10.193
16725SOL     OW52007   6.553   3.734   1.857
16725SOL    HW152008   6.551   3.811   1.801
16725SOL    HW252009   6.624   3.680   1.822
16726SOL     OW52010  12.336   4.535   8.615
16726SOL    HW152011  12.428   4.525   8.639
16726SOL    HW252012  12.301   4.446   8.618
16727SOL     OW52013  10.597   5.025   9.957
16727SOL    HW152014  10.680   5.072   9.956
16727SOL    HW252015  10.607   4.960  10.027
16728SOL     OW52016  12.214   3.504   7.324
16728SOL    HW152017  12.226   3.410   7.314
16728SOL    HW252018  12.244   3.541   7.241
16729SOL     OW52019  11.972   5.701   4.540
16729SOL    HW152020  11.937   5.790   4.543
16729SOL    HW252021  11.894   5.645   4.528
16730SOL     OW52022   8.835   3.636   7.971
16730SOL    HW152023   8.868   3.725   7.987
16730SOL    HW252024   8.763   3.648   7.910
16731SOL     OW52025   8.583   4.461   8.789
16731SOL    HW152026   8.551   4.437   8.702
16731SOL    HW252027   8.517   4.427   8.850
16732SOL     OW52028   3.956   7.037  12.344
16732SOL    HW152029   3.987   7.069  12.429
16732SOL    HW252030   3.864   7.016  12.360
16733SOL     OW52031  12.744   8.235   6.747
16733SOL    HW152032  12.756   8.236   6.652
16733SOL    HW252033  12.823   8.195   6.781
16734SOL     OW52034   3.855  13.444   4.191
16734SOL    HW152035   3.807  13.427   4.272
16734SOL    HW252036   3.800  13.508   4.144
16735SOL     OW52037   1.737   6.693  11.912
16735SOL    HW152038   1.763   6.782  11.889
16735SOL    HW252039   1.743   6.689  12.007
16736SOL     OW52040   4.958   0.095   0.410
16736SOL    HW152041   4.994   0.007   0.401
16736SOL    HW252042   4.884   0.097   0.349
16737SOL     OW52043   5.060  11.456   1.874
16737SOL    HW152044   4.976  11.499   1.858
16737SOL    HW252045   5.059  11.379   1.816
16738SOL     OW52046   4.424  10.609   2.928
16738SOL    HW152047   4.503  10.639   2.972
16738SOL    HW252048   4.434  10.638   2.837
16739SOL     OW52049   3.396   0.225   1.404
16739SOL    HW152050   3.343   0.181   1.337
16739SOL    HW252051   3.486   0.204   1.381
16740SOL     OW52052  10.169  10.927   6.982
16740SOL    HW152053  10.211  11.013   6.987
16740SOL    HW252054  10.093  10.941   6.925
16741SOL     OW52055   1.026  10.651   3.942
16741SOL    HW152056   1.014  10.676   4.034
16741SOL    HW252057   0.951  10.688   3.897
16742SOL     OW52058  14.279   0.543   1.931
16742SOL    HW152059  14.358   0.489   1.929
16742SOL    HW252060  14.208   0.480   1.944
16743SOL     OW52061   9.805  11.918   2.620
16743SOL    HW152062   9.896  11.939   2.599
16743SOL    HW252063   9.775  11.866   2.545
16744SOL     OW52064  11.144   9.628   1.538
16744SOL    HW152065  11.225   9.677   1.556
16744SOL    HW252066  11.144   9.616   1.443
16745SOL     OW52067   7.412  13.703   1.835
16745SOL    HW152068   7.421  13.747   1.920
16745SOL    HW252069   7.488  13.734   1.785
16746SOL     OW52070   6.993   0.830   7.805
16746SOL    HW152071   7.005   0.785   7.889
16746SOL    HW252072   7.077   0.873   7.789
16747SOL     OW52073   1.468  11.540  13.956
16747SOL    HW152074   1.424  11.465  13.995
16747SOL    HW252075   1.465  11.522  13.861
16748SOL     OW52076   3.352  11.578   6.770
16748SOL    HW152077   3.303  11.563   6.690
16748SOL    HW252078   3.336  11.670   6.792
16749SOL     OW52079  13.467   2.538  14.657
16749SOL    HW152080  13.506   2.626  14.659
16749SOL    HW252081  13.429   2.527  14.745
16750SOL     OW52082  14.727   7.055   0.372
16750SOL    HW152083  14.818   7.075   0.393
16750SOL    HW252084  14.714   6.965   0.403
16751SOL     OW52085   4.374   4.190   8.747
16751SOL    HW152086   4.386   4.103   8.710
16751SOL    HW252087   4.372   4.248   8.670
16752SOL     OW52088  11.888   1.787  13.152
16752SOL    HW152089  11.956   1.794  13.219
16752SOL    HW252090  11.861   1.695  13.153
16753SOL     OW52091   2.249   7.943   9.036
16753SOL    HW152092   2.207   7.990   9.108
16753SOL    HW252093   2.342   7.955   9.051
16754SOL     OW52094  12.678   6.740   4.885
16754SOL    HW152095  12.704   6.768   4.797
16754SOL    HW252096  12.650   6.649   4.874
16755SOL     OW52097   8.731  13.687   1.850
16755SOL    HW152098   8.691  13.767   1.816
16755SOL    HW252099   8.667  13.654   1.914
16756SOL     OW52100   4.173  14.380  12.439
16756SOL    HW152101   4.102  14.370  12.376
16756SOL    HW252102   4.240  14.429  12.392
16757SOL     OW52103   3.462  10.866  14.221
16757SOL    HW152104   3.473  10.771  14.216
16757SOL    HW252105   3.484  10.888  14.311
16758SOL     OW52106   7.583   2.653  10.987
16758SOL    HW152107   7.487   2.653  10.989
16758SOL    HW252108   7.607   2.718  11.053
16759SOL     OW52109   1.041   9.215   7.048
16759SOL    HW152110   1.043   9.308   7.028
16759SOL    HW252111   0.952   9.199   7.080
16760SOL     OW52112   3.750   1.871  10.557
16760SOL    HW152113   3.777   1.814  10.486
16760SOL    HW252114   3.797   1.838  10.634
16761SOL     OW52115  12.614  10.089   6.667
16761SOL    HW152116  12.703  10.102   6.635
16761SOL    HW252117  12.591  10.001   6.637
16762SOL     OW52118  13.536   4.791  11.337
16762SOL    HW152119  13.519   4.769  11.246
16762SOL    HW252120  13.465   4.852  11.361
16763SOL     OW52121  12.070  11.846  11.874
16763SOL    HW152122  12.146  11.789  11.880
16763SOL    HW252123  12.042  11.858  11.965
16764SOL     OW52124  14.647  11.328   8.010
16764SOL    HW152125  14.663  11.238   7.981
16764SOL    HW252126  14.591  11.366   7.942
16765SOL     OW52127   5.613   8.175   1.568
16765SOL    HW152128   5.567   8.259   1.577
16765SOL    HW252129   5.599   8.150   1.477
16766SOL     OW52130  12.768   1.540   4.608
16766SOL    HW152131  12.809   1.494   4.681
16766SOL    HW252132  12.734   1.470   4.552
16767SOL     OW52133  11.717  12.030   0.218
16767SOL    HW152134  11.765  12.022   0.300
16767SOL    HW252135  11.665  11.949   0.212
16768SOL     OW52136   8.037   2.003  12.883
16768SOL    HW152137   8.002   2.069  12.943
16768SOL    HW252138   8.022   2.039  12.796
16769SOL     OW52139  13.546   8.854  11.037
16769SOL    HW152140  13.637   8.872  11.012
16769SOL    HW252141  13.496   8.872  10.957
16770SOL     OW52142   5.524   6.647   3.703
16770SOL    HW152143   5.476   6.717   3.749
16770SOL    HW252144   5.582   6.694   3.643
16771SOL     OW52145  14.299  10.892   3.528
16771SOL    HW152146  14.377  10.860   3.572
16771SOL    HW252147  14.305  10.988   3.535
16772SOL     OW52148   4.487   5.159   3.216
16772SOL    HW152149   4.434   5.184   3.291
16772SOL    HW252150   4.531   5.079   3.243
16773SOL     OW52151   4.204  14.807  10.613
16773SOL    HW152152   4.154  14.780  10.690
16773SOL    HW252153   4.168   0.020  10.590
16774SOL     OW52154   8.419   8.456   6.039
16774SOL    HW152155   8.338   8.430   5.994
16774SOL    HW252156   8.446   8.377   6.086
16775SOL     OW52157   9.834  14.319  11.674
16775SOL    HW152158   9.865  14.369  11.599
16775SOL    HW252159   9.905  14.326  11.738
16776SOL     OW52160   9.789  12.151  13.041
16776SOL    HW152161   9.819  12.186  12.957
16776SOL    HW252162   9.760  12.062  13.021
16777SOL     OW52163   4.026   0.012  14.503
16777SOL    HW152164   3.968  14.809  14.494
16777SOL    HW252165   3.968   0.088  14.495
16778SOL     OW52166  12.465   0.850   0.713
16778SOL    HW152167  12.420   0.778   0.758
16778SOL    HW252168  12.528   0.806   0.656
16779SOL     OW52169   4.837   9.461  12.788
16779SOL    HW152170   4.892   9.523  12.739
16779SOL    HW252171   4.782   9.517  12.843
16780SOL     OW52172   9.110  10.686  11.054
16780SOL    HW152173   9.090  10.765  11.104
16780SOL    HW252174   9.128  10.717  10.965
16781SOL     OW52175  12.373   7.864   5.020
16781SOL    HW152176  12.388   7.791   5.080
16781SOL    HW252177  12.300   7.912   5.060
16782SOL     OW52178  13.891   9.251   9.558
16782SOL    HW152179  13.909   9.336   9.598
16782SOL    HW252180  13.796   9.249   9.546
16783SOL     OW52181   9.279   3.836  13.648
16783SOL    HW152182   9.223   3.787  13.709
16783SOL    HW252183   9.231   3.916  13.630
16784SOL     OW52184  10.304   0.803   7.965
16784SOL    HW152185  10.364   0.849   8.023
16784SOL    HW252186  10.228   0.860   7.958
16785SOL     OW52187   7.204   1.596  13.542
16785SOL    HW152188   7.258   1.666  13.579
16785SOL    HW252189   7.267   1.528  13.518
16786SOL     OW52190  13.028  12.259  14.849
16786SOL    HW152191  13.096  12.250   0.043
16786SOL    HW252192  12.976  12.333   0.006
16787SOL     OW52193  13.477   2.988   3.174
16787SOL    HW152194  13.434   3.068   3.143
16787SOL    HW252195  13.408   2.939   3.218
16788SOL     OW52196  13.735   0.950   7.144
16788SOL    HW152197  13.649   0.966   7.184
16788SOL    HW252198  13.776   0.887   7.203
16789SOL     OW52199  14.296  10.790   2.279
16789SOL    HW152200  14.384  10.752   2.284
16789SOL    HW252201  14.270  10.802   2.370
16790SOL     OW52202  13.452   5.015  12.663
16790SOL    HW152203  13.383   4.969  12.614
16790SOL    HW252204  13.528   4.957  12.656
16791SOL     OW52205  10.784   5.456  13.115
16791SOL    HW152206  10.749   5.525  13.171
16791SOL    HW252207  10.727   5.381  13.132
16792SOL     OW52208   2.901  14.518   1.604
16792SOL    HW152209   2.892  14.508   1.509
16792SOL    HW252210   2.963  14.450   1.629
16793SOL     OW52211  12.218   8.231   7.629
16793SOL    HW152212  12.228   8.220   7.534
16793SOL    HW252213  12.177   8.150   7.658
16794SOL     OW52214   5.456  12.684   3.765
16794SOL    HW152215   5.524  12.655   3.704
16794SOL    HW252216   5.394  12.612   3.769
16795SOL     OW52217   1.421   5.399   1.003
16795SOL    HW152218   1.453   5.484   0.975
16795SOL    HW252219   1.336   5.389   0.960
16796SOL     OW52220  14.383  13.831  12.418
16796SOL    HW152221  14.432  13.839  12.335
16796SOL    HW252222  14.304  13.783  12.394
16797SOL     OW52223  13.054  13.838  12.788
16797SOL    HW152224  13.140  13.799  12.776
16797SOL    HW252225  13.016  13.791  12.863
16798SOL     OW52226   8.536   5.657   4.557
16798SOL    HW152227   8.610   5.619   4.510
16798SOL    HW252228   8.479   5.583   4.575
16799SOL     OW52229   7.430   6.144   4.476
16799SOL    HW152230   7.346   6.189   4.462
16799SOL    HW252231   7.433   6.078   4.406
16800SOL     OW52232   8.475   2.973  12.304
16800SOL    HW152233   8.488   2.999  12.395
16800SOL    HW252234   8.390   3.009  12.280
16801SOL     OW52235   8.695  12.061   1.951
16801SOL    HW152236   8.785  12.089   1.932
16801SOL    HW252237   8.698  12.031   2.042
16802SOL     OW52238  11.093   0.185   7.495
16802SOL    HW152239  11.165   0.196   7.558
16802SOL    HW252240  11.061   0.273   7.480
16803SOL     OW52241  14.322   0.902  11.071
16803SOL    HW152242  14.280   0.823  11.106
16803SOL    HW252243  14.416   0.884  11.078
16804SOL     OW52244  12.949  12.536   7.422
16804SOL    HW152245  12.894  12.613   7.435
16804SOL    HW252246  12.893  12.472   7.378
16805SOL     OW52247   2.991   8.495   5.324
16805SOL    HW152248   3.041   8.479   5.404
16805SOL    HW252249   3.051   8.542   5.266
16806SOL     OW52250   1.863  11.583   8.578
16806SOL    HW152251   1.790  11.588   8.640
16806SOL    HW252252   1.884  11.674   8.558
16807SOL     OW52253   3.109   2.233   4.919
16807SOL    HW152254   3.161   2.178   4.861
16807SOL    HW252255   3.167   2.306   4.942
16808SOL     OW52256   8.293   4.388   8.081
16808SOL    HW152257   8.361   4.356   8.022
16808SOL    HW252258   8.211   4.356   8.043
16809SOL     OW52259  13.335   1.140  13.634
16809SOL    HW152260  13.348   1.045  13.625
16809SOL    HW252261  13.240   1.151  13.626
16810SOL     OW52262   9.651  14.754  10.628
16810SOL    HW152263   9.561  14.774  10.654
16810SOL    HW252264   9.652  14.767  10.533
16811SOL     OW52265   5.620   0.640   9.736
16811SOL    HW152266   5.601   0.733   9.748
16811SOL    HW252267   5.539   0.596   9.764
16812SOL     OW52268  12.747  12.776  13.389
16812SOL    HW152269  12.842  12.773  13.389
16812SOL    HW252270  12.719  12.692  13.424
16813SOL     OW52271   6.908   9.751  12.443
16813SOL    HW152272   6.977   9.762  12.379
16813SOL    HW252273   6.837   9.808  12.413
16814SOL     OW52274   3.839   2.944   6.828
16814SOL    HW152275   3.822   3.031   6.863
16814SOL    HW252276   3.826   2.953   6.733
16815SOL     OW52277  10.264   8.406  12.435
16815SOL    HW152278  10.334   8.343  12.421
16815SOL    HW252279  10.229   8.384  12.522
16816SOL     OW52280   4.830   9.281  12.479
16816SOL    HW152281   4.886   9.346  12.438
16816SOL    HW252282   4.747   9.287  12.431
16817SOL     OW52283  13.720   4.033  12.670
16817SOL    HW152284  13.626   4.052  12.668
16817SOL    HW252285  13.749   4.048  12.580
16818SOL     OW52286  11.299   0.817   0.896
16818SOL    HW152287  11.209   0.836   0.924
16818SOL    HW252288  11.290   0.789   0.804
16819SOL     OW52289  12.100   3.541   1.757
16819SOL    HW152290  12.069   3.624   1.721
16819SOL    HW252291  12.035   3.476   1.729
16820SOL     OW52292   0.190   5.077  13.662
16820SOL    HW152293   0.279   5.113  13.660
16820SOL    HW252294   0.195   4.998  13.609
16821SOL     OW52295   8.359   7.717   8.134
16821SOL    HW152296   8.325   7.629   8.119
16821SOL    HW252297   8.386   7.716   8.226
16822SOL     OW52298   0.297   6.968   0.700
16822SOL    HW152299   0.281   7.057   0.733
16822SOL    HW252300   0.214   6.942   0.660
16823SOL     OW52301   5.735   4.405  11.332
16823SOL    HW152302   5.707   4.341  11.266
16823SOL    HW252303   5.661   4.410  11.393
16824SOL     OW52304   3.720  12.087  14.374
16824SOL    HW152305   3.672  12.147  14.430
16824SOL    HW252306   3.789  12.051  14.430
16825SOL     OW52307   2.429  13.626  14.400
16825SOL    HW152308   2.467  13.648  14.486
16825SOL    HW252309   2.342  13.665  14.402
16826SOL     OW52310  13.321   3.901  10.021
16826SOL    HW152311  13.263   3.835  10.059
16826SOL    HW252312  13.274   3.984  10.033
16827SOL     OW52313   7.142   8.069   0.986
16827SOL    HW152314   7.049   8.062   1.010
16827SOL    HW252315   7.175   7.979   0.997
16828SOL     OW52316   2.282  14.528   3.389
16828SOL    HW152317   2.335  14.516   3.467
16828SOL    HW252318   2.342  14.513   3.316
16829SOL     OW52319   7.555  14.118   9.229
16829SOL    HW152320   7.476  14.064   9.220
16829SOL    HW252321   7.621  14.073   9.176
16830SOL     OW52322  12.523  12.119  13.356
16830SOL    HW152323  12.565  12.204  13.370
16830SOL    HW252324  12.429  12.138  13.357
16831SOL     OW52325   1.029   9.462  14.605
16831SOL    HW152326   1.048   9.458  14.511
16831SOL    HW252327   1.115   9.453  14.646
16832SOL     OW52328   0.442   2.941   2.997
16832SOL    HW152329   0.440   2.972   2.907
16832SOL    HW252330   0.508   2.995   3.040
16833SOL     OW52331   9.516  13.176   5.278
16833SOL    HW152332   9.460  13.253   5.269
16833SOL    HW252333   9.579  13.200   5.347
16834SOL     OW52334  14.504   2.168   6.805
16834SOL    HW152335  14.440   2.223   6.852
16834SOL    HW252336  14.576   2.227   6.785
16835SOL     OW52337  10.224  14.659   8.857
16835SOL    HW152338  10.314  14.664   8.824
16835SOL    HW252339  10.216  14.570   8.892
16836SOL     OW52340   4.541   2.982  11.467
16836SOL    HW152341   4.474   3.047  11.446
16836SOL    HW252342   4.525   2.910  11.407
16837SOL     OW52343  12.578   0.454  12.956
16837SOL    HW152344  12.666   0.490  12.951
16837SOL    HW252345  12.542   0.466  12.868
16838SOL     OW52346  10.109   5.543  12.145
16838SOL    HW152347  10.061   5.616  12.106
16838SOL    HW252348  10.073   5.534  12.233
16839SOL     OW52349   4.235   1.857  11.927
16839SOL    HW152350   4.223   1.765  11.951
16839SOL    HW252351   4.218   1.859  11.833
16840SOL     OW52352   4.151   2.135   7.805
16840SOL    HW152353   4.181   2.220   7.774
16840SOL    HW252354   4.165   2.076   7.731
16841SOL     OW52355   6.897  11.217  13.475
16841SOL    HW152356   6.858  11.141  13.433
16841SOL    HW252357   6.977  11.183  13.515
16842SOL     OW52358   1.058   3.281  11.728
16842SOL    HW152359   1.051   3.186  11.738
16842SOL    HW252360   1.072   3.295  11.634
16843SOL     OW52361   2.581  13.512  12.715
16843SOL    HW152362   2.497  13.492  12.673
16843SOL    HW252363   2.559  13.524  12.807
16844SOL     OW52364  13.258  11.843   6.292
16844SOL    HW152365  13.275  11.878   6.204
16844SOL    HW252366  13.326  11.777   6.304
16845SOL     OW52367   4.281   4.201   2.604
16845SOL    HW152368   4.190   4.221   2.584
16845SOL    HW252369   4.277   4.148   2.683
16846SOL     OW52370  13.773   8.668   6.713
16846SOL    HW152371  13.709   8.649   6.782
16846SOL    HW252372  13.842   8.602   6.726
16847SOL     OW52373   8.177   3.027  14.057
16847SOL    HW152374   8.233   2.970  14.110
16847SOL    HW252375   8.196   3.115  14.087
16848SOL     OW52376   2.125   5.027  13.220
16848SOL    HW152377   2.117   4.933  13.237
16848SOL    HW252378   2.066   5.068  13.284
16849SOL     OW52379  11.876  12.986   2.489
16849SOL    HW152380  11.901  13.069   2.530
16849SOL    HW252381  11.818  12.944   2.553
16850SOL     OW52382   1.782   7.440   0.321
16850SOL    HW152383   1.694   7.442   0.359
16850SOL    HW252384   1.769   7.400   0.235
16851SOL     OW52385   0.049  11.200  14.853
16851SOL    HW152386  14.842  11.211   0.032
16851SOL    HW252387   0.023  11.140  14.783
16852SOL     OW52388   1.629   0.120   4.406
16852SOL    HW152389   1.703   0.179   4.423
16852SOL    HW252390   1.594   0.100   4.493
16853SOL     OW52391   4.649   9.683  11.871
16853SOL    HW152392   4.706   9.759  11.862
16853SOL    HW252393   4.626   9.658  11.782
16854SOL     OW52394   3.244   1.271   9.564
16854SOL    HW152395   3.271   1.360   9.538
16854SOL    HW252396   3.157   1.260   9.524
16855SOL     OW52397   2.280  13.546   2.680
16855SOL    HW152398   2.298  13.640   2.675
16855SOL    HW252399   2.264  13.520   2.589
16856SOL     OW52400  11.590  12.807   7.581
16856SOL    HW152401  11.502  12.844   7.581
16856SOL    HW252402  11.625  12.826   7.494
16857SOL     OW52403  10.583   5.310   5.265
16857SOL    HW152404  10.530   5.294   5.187
16857SOL    HW252405  10.654   5.247   5.259
16858SOL     OW52406   6.901   3.654   3.962
16858SOL    HW152407   6.901   3.750   3.952
16858SOL    HW252408   6.855   3.638   4.044
16859SOL     OW52409  10.880   1.532  12.732
16859SOL    HW152410  10.806   1.472  12.721
16859SOL    HW252411  10.943   1.504  12.666
16860SOL     OW52412   8.762   5.544   5.669
16860SOL    HW152413   8.740   5.539   5.762
16860SOL    HW252414   8.833   5.608   5.665
16861SOL     OW52415   6.148   1.991   6.329
16861SOL    HW152416   6.099   1.935   6.389
16861SOL    HW252417   6.132   1.954   6.242
16862SOL     OW52418   3.651   5.081   7.954
16862SOL    HW152419   3.745   5.101   7.950
16862SOL    HW252420   3.614   5.150   8.009
16863SOL     OW52421   7.225   2.726   7.015
16863SOL    HW152422   7.134   2.753   7.009
16863SOL    HW252423   7.230   2.647   6.960
16864SOL     OW52424   8.796  10.506  14.794
16864SOL    HW152425   8.791  10.447  14.869
16864SOL    HW252426   8.884  10.492  14.758
16865SOL     OW52427   4.505   2.240   1.283
16865SOL    HW152428   4.599   2.256   1.286
16865SOL    HW252429   4.466   2.325   1.263
16866SOL     OW52430  14.462   1.749   7.952
16866SOL    HW152431  14.490   1.835   7.985
16866SOL    HW252432  14.512   1.737   7.871
16867SOL     OW52433   1.936  13.990   7.921
16867SOL    HW152434   1.841  13.989   7.931
16867SOL    HW252435   1.954  14.068   7.868
16868SOL     OW52436   7.896  13.905   3.374
16868SOL    HW152437   7.902  13.898   3.279
16868SOL    HW252438   7.815  13.859   3.396
16869SOL     OW52439   2.786  12.480  13.093
16869SOL    HW152440   2.754  12.500  13.181
16869SOL    HW252441   2.710  12.447  13.046
16870SOL     OW52442   9.808  11.090   4.830
16870SOL    HW152443   9.774  11.050   4.910
16870SOL    HW252444   9.866  11.159   4.861
16871SOL     OW52445   5.851   0.985   3.698
16871SOL    HW152446   5.938   0.949   3.717
16871SOL    HW252447   5.803   0.911   3.660
16872SOL     OW52448  11.277   6.929  10.485
16872SOL    HW152449  11.245   7.006  10.439
16872SOL    HW252450  11.320   6.964  10.563
16873SOL     OW52451   0.659   3.006   5.961
16873SOL    HW152452   0.564   2.992   5.963
16873SOL    HW252453   0.696   2.922   5.989
16874SOL     OW52454   1.406   6.578   3.843
16874SOL    HW152455   1.316   6.596   3.872
16874SOL    HW252456   1.428   6.494   3.883
16875SOL     OW52457  10.570  12.380  12.358
16875SOL    HW152458  10.591  12.405  12.448
16875SOL    HW252459  10.653  12.390  12.311
16876SOL     OW52460   9.421  12.211  11.559
16876SOL    HW152461   9.384  12.175  11.640
16876SOL    HW252462   9.447  12.300  11.582
16877SOL     OW52463   3.352   8.251  13.161
16877SOL    HW152464   3.307   8.316  13.107
16877SOL    HW252465   3.313   8.167  13.135
16878SOL     OW52466  13.181   9.965   5.451
16878SOL    HW152467  13.116  10.029   5.478
16878SOL    HW252468  13.222  10.003   5.373
16879SOL     OW52469  10.970   3.882  14.130
16879SOL    HW152470  10.916   3.941  14.077
16879SOL    HW252471  11.033   3.846  14.068
16880SOL     OW52472   1.747  12.806   2.329
16880SOL    HW152473   1.668  12.758   2.302
16880SOL    HW252474   1.714  12.877   2.384
16881SOL     OW52475   6.480  13.009   6.209
16881SOL    HW152476   6.480  12.923   6.166
16881SOL    HW252477   6.490  12.989   6.302
16882SOL     OW52478   4.113  12.428   9.687
16882SOL    HW152479   4.056  12.495   9.724
16882SOL    HW252480   4.171  12.475   9.627
16883SOL     OW52481   2.599   8.980   9.797
16883SOL    HW152482   2.630   9.053   9.850
16883SOL    HW252483   2.618   9.006   9.707
16884SOL     OW52484  12.997   0.343   8.026
16884SOL    HW152485  13.041   0.288   7.961
16884SOL    HW252486  12.929   0.389   7.976
16885SOL     OW52487   5.403   1.872   6.533
16885SOL    HW152488   5.401   1.787   6.577
16885SOL    HW252489   5.326   1.873   6.477
16886SOL     OW52490   0.750  11.457  14.714
16886SOL    HW152491   0.845  11.467  14.717
16886SOL    HW252492   0.733  11.406  14.635
16887SOL     OW52493  13.994   7.969   8.660
16887SOL    HW152494  14.030   7.893   8.708
16887SOL    HW252495  14.062   8.036   8.668
16888SOL     OW52496  11.758  13.107  12.576
16888SOL    HW152497  11.839  13.098  12.525
16888SOL    HW252498  11.727  13.017  12.588
16889SOL     OW52499   7.386   8.961   5.765
16889SOL    HW152500   7.466   8.944   5.815
16889SOL    HW252501   7.417   8.997   5.682
16890SOL     OW52502   7.333  10.677   5.051
16890SOL    HW152503   7.314  10.637   4.966
16890SOL    HW252504   7.325  10.606   5.114
16891SOL     OW52505  13.601   9.810   6.415
16891SOL    HW152506  13.674   9.872   6.413
16891SOL    HW252507  13.562   9.821   6.501
16892SOL     OW52508   0.188   6.262  12.292
16892SOL    HW152509   0.239   6.255  12.212
16892SOL    HW252510   0.234   6.206  12.355
16893SOL     OW52511   0.973   9.493   7.046
16893SOL    HW152512   1.064   9.498   7.075
16893SOL    HW252513   0.955   9.579   7.008
16894SOL     OW52514   7.778   4.269   3.102
16894SOL    HW152515   7.767   4.246   3.194
16894SOL    HW252516   7.866   4.305   3.096
16895SOL     OW52517   1.541  13.290   1.045
16895SOL    HW152518   1.490  13.237   1.107
16895SOL    HW252519   1.476  13.349   1.006
16896SOL     OW52520   4.096  12.199  10.563
16896SOL    HW152521   4.138  12.253  10.495
16896SOL    HW252522   4.046  12.261  10.616
16897SOL     OW52523   4.142  11.234  13.106
16897SOL    HW152524   4.102  11.147  13.101
16897SOL    HW252525   4.099  11.284  13.036
16898SOL     OW52526   4.744  11.918   7.313
16898SOL    HW152527   4.719  12.000   7.269
16898SOL    HW252528   4.672  11.902   7.375
16899SOL     OW52529  14.834   5.018  13.775
16899SOL    HW152530   0.040   5.050  13.732
16899SOL    HW252531  14.776   4.992  13.703
16900SOL     OW52532   9.604   4.703   8.194
16900SOL    HW152533   9.603   4.608   8.194
16900SOL    HW252534   9.670   4.727   8.129
16901SOL     OW52535   1.394   1.951   7.821
16901SOL    HW152536   1.359   1.866   7.797
16901SOL    HW252537   1.478   1.932   7.863
16902SOL     OW52538   4.769   3.059  11.614
16902SOL    HW152539   4.733   3.145  11.639
16902SOL    HW252540   4.702   3.021  11.556
16903SOL     OW52541   7.280  14.427   4.699
16903SOL    HW152542   7.362  14.434   4.747
16903SOL    HW252543   7.212  14.442   4.765
16904SOL     OW52544   2.198   0.674   8.145
16904SOL    HW152545   2.183   0.753   8.093
16904SOL    HW252546   2.257   0.702   8.215
16905SOL     OW52547   1.700   5.985   7.543
16905SOL    HW152548   1.786   6.028   7.544
16905SOL    HW252549   1.680   5.969   7.635
16906SOL     OW52550  12.336   5.751  14.457
16906SOL    HW152551  12.380   5.796  14.530
16906SOL    HW252552  12.288   5.821  14.412
16907SOL     OW52553   4.678   4.541   3.513
16907SOL    HW152554   4.666   4.556   3.420
16907SOL    HW252555   4.671   4.446   3.523
16908SOL     OW52556   1.994   4.312   6.844
16908SOL    HW152557   2.032   4.264   6.770
16908SOL    HW252558   2.020   4.261   6.921
16909SOL     OW52559   3.939   0.241   7.081
16909SOL    HW152560   3.975   0.323   7.115
16909SOL    HW252561   4.010   0.201   7.032
16910SOL     OW52562  14.265   7.352   4.181
16910SOL    HW152563  14.285   7.299   4.104
16910SOL    HW252564  14.328   7.424   4.178
16911SOL     OW52565   1.052  14.758  10.780
16911SOL    HW152566   1.018  14.846  10.765
16911SOL    HW252567   0.975  14.706  10.802
16912SOL     OW52568  13.257   7.992  14.684
16912SOL    HW152569  13.283   7.969  14.595
16912SOL    HW252570  13.339   8.019  14.727
16913SOL     OW52571  13.100  12.530   8.943
16913SOL    HW152572  13.162  12.544   9.014
16913SOL    HW252573  13.117  12.440   8.913
16914SOL     OW52574   4.402   5.597  12.030
16914SOL    HW152575   4.441   5.683  12.015
16914SOL    HW252576   4.332   5.591  11.965
16915SOL     OW52577  12.266  12.228   8.578
16915SOL    HW152578  12.334  12.268   8.524
16915SOL    HW252579  12.200  12.296   8.587
16916SOL     OW52580  13.873  11.239  13.230
16916SOL    HW152581  13.829  11.324  13.224
16916SOL    HW252582  13.814  11.178  13.186
16917SOL     OW52583   7.176  12.682  11.399
16917SOL    HW152584   7.187  12.746  11.470
16917SOL    HW252585   7.232  12.715  11.329
16918SOL     OW52586   7.728  13.749   4.151
16918SOL    HW152587   7.719  13.812   4.223
16918SOL    HW252588   7.820  13.723   4.153
16919SOL     OW52589   7.640  12.678   6.169
16919SOL    HW152590   7.550  12.659   6.142
16919SOL    HW252591   7.692  12.609   6.128
16920SOL     OW52592   2.235   8.960   4.815
16920SOL    HW152593   2.169   8.976   4.748
16920SOL    HW252594   2.261   9.047   4.845
16921SOL     OW52595   8.988   9.830   8.596
16921SOL    HW152596   8.952   9.885   8.666
16921SOL    HW252597   9.045   9.768   8.641
16922SOL     OW52598   1.972   7.692   2.785
16922SOL    HW152599   2.062   7.664   2.766
16922SOL    HW252600   1.948   7.643   2.863
16923SOL     OW52601   6.906  13.654   1.671
16923SOL    HW152602   6.890  13.688   1.583
16923SOL    HW252603   6.932  13.562   1.657
16924SOL     OW52604  13.173   2.201   4.324
16924SOL    HW152605  13.121   2.240   4.393
16924SOL    HW252606  13.173   2.107   4.344
16925SOL     OW52607  13.332   2.754   7.218
16925SOL    HW152608  13.273   2.679   7.227
16925SOL    HW252609  13.324   2.801   7.301
16926SOL     OW52610   4.317  11.727   9.695
16926SOL    HW152611   4.245  11.787   9.713
16926SOL    HW252612   4.393  11.766   9.739
16927SOL     OW52613   2.377  10.000   4.745
16927SOL    HW152614   2.472  10.011   4.739
16927SOL    HW252615   2.353   9.954   4.665
16928SOL     OW52616  12.023   9.311   4.134
16928SOL    HW152617  12.002   9.222   4.108
16928SOL    HW252618  12.086   9.301   4.205
16929SOL     OW52619   7.143   8.494   6.218
16929SOL    HW152620   7.148   8.589   6.214
16929SOL    HW252621   7.049   8.475   6.219
16930SOL     OW52622  10.426   0.498   7.411
16930SOL    HW152623  10.491   0.450   7.360
16930SOL    HW252624  10.450   0.590   7.399
16931SOL     OW52625  14.038   9.820   7.060
16931SOL    HW152626  14.040   9.874   7.139
16931SOL    HW252627  14.094   9.867   6.998
16932SOL     OW52628   0.872  12.888   3.038
16932SOL    HW152629   0.957  12.926   3.060
16932SOL    HW252630   0.869  12.806   3.088
16933SOL     OW52631   8.273   5.238  12.337
16933SOL    HW152632   8.283   5.181  12.260
16933SOL    HW252633   8.363   5.253  12.366
16934SOL     OW52634   7.001   7.810   7.829
16934SOL    HW152635   6.994   7.738   7.766
16934SOL    HW252636   7.064   7.779   7.894
16935SOL     OW52637   3.138   9.437  14.792
16935SOL    HW152638   3.146   9.353  14.836
16935SOL    HW252639   3.136   9.416  14.699
16936SOL     OW52640   1.100   5.201  14.193
16936SOL    HW152641   1.086   5.247  14.110
16936SOL    HW252642   1.012   5.190  14.230
16937SOL     OW52643   9.456   0.344   6.392
16937SOL    HW152644   9.373   0.393   6.389
16937SOL    HW252645   9.502   0.379   6.468
16938SOL     OW52646   2.313   7.265   2.121
16938SOL    HW152647   2.400   7.295   2.146
16938SOL    HW252648   2.298   7.186   2.173
16939SOL     OW52649  14.338  11.018  11.345
16939SOL    HW152650  14.397  11.077  11.393
16939SOL    HW252651  14.281  10.982  11.413
16940SOL     OW52652  12.491  13.128   8.516
16940SOL    HW152653  12.524  13.216   8.537
16940SOL    HW252654  12.426  13.110   8.584
16941SOL     OW52655  10.126   4.114   1.421
16941SOL    HW152656  10.208   4.136   1.377
16941SOL    HW252657  10.065   4.182   1.391
16942SOL     OW52658   1.368   8.840   7.138
16942SOL    HW152659   1.413   8.925   7.134
16942SOL    HW252660   1.276   8.860   7.118
16943SOL     OW52661  10.191   8.678  11.962
16943SOL    HW152662  10.198   8.752  11.901
16943SOL    HW252663  10.097   8.665  11.973
16944SOL     OW52664   0.979  14.794   2.352
16944SOL    HW152665   1.020  14.804   2.437
16944SOL    HW252666   0.890  14.826   2.364
16945SOL     OW52667   5.024   9.408   0.273
16945SOL    HW152668   5.118   9.426   0.273
16945SOL    HW252669   5.015   9.326   0.322
16946SOL     OW52670   6.210   3.381   4.482
16946SOL    HW152671   6.201   3.450   4.548
16946SOL    HW252672   6.181   3.422   4.400
16947SOL     OW52673  12.423   3.893   4.510
16947SOL    HW152674  12.486   3.822   4.524
16947SOL    HW252675  12.458   3.966   4.562
16948SOL     OW52676   3.849   4.191   9.698
16948SOL    HW152677   3.893   4.164   9.778
16948SOL    HW252678   3.894   4.142   9.628
16949SOL     OW52679   0.346   8.329   5.927
16949SOL    HW152680   0.417   8.340   5.864
16949SOL    HW252681   0.266   8.345   5.876
16950SOL     OW52682  11.751  14.346   0.195
16950SOL    HW152683  11.766  14.252   0.184
16950SOL    HW252684  11.775  14.384   0.110
16951SOL     OW52685  11.679   6.797  10.677
16951SOL    HW152686  11.665   6.787  10.583
16951SOL    HW252687  11.729   6.878  10.686
16952SOL     OW52688   4.982   0.261   9.416
16952SOL    HW152689   5.033   0.341   9.430
16952SOL    HW252690   4.904   0.271   9.471
16953SOL     OW52691   9.753  10.937   3.277
16953SOL    HW152692   9.668  10.981   3.269
16953SOL    HW252693   9.763  10.924   3.372
16954SOL     OW52694  10.773   0.879  10.241
16954SOL    HW152695  10.743   0.789  10.239
16954SOL    HW252696  10.868   0.873  10.255
16955SOL     OW52697   3.934   5.318   6.938
16955SOL    HW152698   3.847   5.353   6.921
16955SOL    HW252699   3.941   5.242   6.881
16956SOL     OW52700   1.649   9.577   4.255
16956SOL    HW152701   1.729   9.550   4.300
16956SOL    HW252702   1.607   9.494   4.232
16957SOL     OW52703   9.426  10.628  11.032
16957SOL    HW152704   9.331  10.639  11.019
16957SOL    HW252705   9.459  10.717  11.041
16958SOL     OW52706   7.447  12.402   0.355
16958SOL    HW152707   7.402  12.464   0.412
16958SOL    HW252708   7.540  12.426   0.364
16959SOL     OW52709   3.006   0.393  12.628
16959SOL    HW152710   3.007   0.298  12.639
16959SOL    HW252711   3.055   0.426  12.704
16960SOL     OW52712   3.967   3.343  11.854
16960SOL    HW152713   3.915   3.420  11.831
16960SOL    HW252714   3.916   3.269  11.824
16961SOL     OW52715   1.193   6.884   8.609
16961SOL    HW152716   1.152   6.811   8.563
16961SOL    HW252717   1.276   6.849   8.641
16962SOL     OW52718   6.777   9.546   5.307
16962SOL    HW152719   6.780   9.637   5.338
16962SOL    HW252720   6.769   9.554   5.211
16963SOL     OW52721   3.994   6.908  10.903
16963SOL    HW152722   4.059   6.855  10.950
16963SOL    HW252723   3.928   6.929  10.969
16964SOL     OW52724  12.960   3.723   0.535
16964SOL    HW152725  12.893   3.775   0.492
16964SOL    HW252726  12.949   3.741   0.628
16965SOL     OW52727   8.270   2.764   9.737
16965SOL    HW152728   8.318   2.814   9.672
16965SOL    HW252729   8.320   2.683   9.747
16966SOL     OW52730   1.876   4.693   4.250
16966SOL    HW152731   1.960   4.729   4.278
16966SOL    HW252732   1.815   4.718   4.320
16967SOL     OW52733   7.142   8.500   3.049
16967SOL    HW152734   7.220   8.536   3.093
16967SOL    HW252735   7.177   8.432   2.992
16968SOL     OW52736   2.162   8.830   6.942
16968SOL    HW152737   2.088   8.770   6.941
16968SOL    HW252738   2.124   8.917   6.949
16969SOL     OW52739   1.362   5.782   2.215
16969SOL    HW152740   1.336   5.758   2.303
16969SOL    HW252741   1.353   5.702   2.164
16970SOL     OW52742   6.183   7.260   7.332
16970SOL    HW152743   6.272   7.244   7.299
16970SOL    HW252744   6.191   7.254   7.427
16971SOL     OW52745   9.701   9.761  11.552
16971SOL    HW152746   9.685   9.853  11.531
16971SOL    HW252747   9.697   9.757  11.647
16972SOL     OW52748  14.872   6.141  10.231
16972SOL    HW152749   0.073   6.196  10.204
16972SOL    HW252750  14.827   6.118  10.150
16973SOL     OW52751  12.806  13.419  11.576
16973SOL    HW152752  12.881  13.423  11.636
16973SOL    HW252753  12.828  13.481  11.507
16974SOL     OW52754  11.520  14.009  13.104
16974SOL    HW152755  11.582  13.944  13.070
16974SOL    HW252756  11.434  13.968  13.094
16975SOL     OW52757   5.734   0.698  14.645
16975SOL    HW152758   5.803   0.650  14.689
16975SOL    HW252759   5.748   0.680  14.552
16976SOL     OW52760   6.769   7.340   2.400
16976SOL    HW152761   6.815   7.416   2.364
16976SOL    HW252762   6.700   7.377   2.455
16977SOL     OW52763   7.993  12.237   6.243
16977SOL    HW152764   8.061  12.183   6.202
16977SOL    HW252765   8.038  12.319   6.265
16978SOL     OW52766   0.558   6.205  13.895
16978SOL    HW152767   0.620   6.277  13.904
16978SOL    HW252768   0.499   6.215  13.970
16979SOL     OW52769   9.700  14.301   9.887
16979SOL    HW152770   9.634  14.237   9.914
16979SOL    HW252771   9.726  14.273   9.800
16980SOL     OW52772   5.396   8.608   0.271
16980SOL    HW152773   5.448   8.548   0.325
16980SOL    HW252774   5.361   8.672   0.333
16981SOL     OW52775  11.713  14.110   2.042
16981SOL    HW152776  11.739  14.162   1.966
16981SOL    HW252777  11.777  14.039   2.044
16982SOL     OW52778  10.591   8.536  12.550
16982SOL    HW152779  10.644   8.554  12.627
16982SOL    HW252780  10.655   8.519  12.480
16983SOL     OW52781   0.112   9.254   7.582
16983SOL    HW152782   0.109   9.280   7.489
16983SOL    HW252783   0.049   9.312   7.625
16984SOL     OW52784   3.518   8.782   8.940
16984SOL    HW152785   3.518   8.713   9.006
16984SOL    HW252786   3.535   8.735   8.858
16985SOL     OW52787  13.306   5.979  11.559
16985SOL    HW152788  13.393   5.940  11.568
16985SOL    HW252789  13.250   5.923  11.612
16986SOL     OW52790  11.067   2.559  10.192
16986SOL    HW152791  11.047   2.587  10.282
16986SOL    HW252792  11.151   2.601  10.172
16987SOL     OW52793   4.659  13.838   9.267
16987SOL    HW152794   4.665  13.933   9.252
16987SOL    HW252795   4.675  13.799   9.181
16988SOL     OW52796   4.001  14.233   3.606
16988SOL    HW152797   4.000  14.192   3.692
16988SOL    HW252798   4.036  14.321   3.621
16989SOL     OW52799   2.289   9.736   6.994
16989SOL    HW152800   2.211   9.680   6.998
16989SOL    HW252801   2.353   9.684   6.945
16990SOL     OW52802  12.485   6.033   7.647
16990SOL    HW152803  12.570   6.057   7.683
16990SOL    HW252804  12.504   5.966   7.581
16991SOL     OW52805   0.737  12.638   9.976
16991SOL    HW152806   0.792  12.681   9.911
16991SOL    HW252807   0.719  12.551   9.939
16992SOL     OW52808  12.222  10.374  10.932
16992SOL    HW152809  12.140  10.327  10.914
16992SOL    HW252810  12.236  10.428  10.854
16993SOL     OW52811   3.164  12.186   1.916
16993SOL    HW152812   3.156  12.214   2.007
16993SOL    HW252813   3.176  12.267   1.867
16994SOL     OW52814   6.579   6.729  14.019
16994SOL    HW152815   6.553   6.820  14.002
16994SOL    HW252816   6.504   6.677  13.991
16995SOL     OW52817   9.118   4.255   2.139
16995SOL    HW152818   9.155   4.319   2.078
16995SOL    HW252819   9.164   4.174   2.119
16996SOL     OW52820   5.644  14.596   1.307
16996SOL    HW152821   5.558  14.630   1.334
16996SOL    HW252822   5.706  14.635   1.368
16997SOL     OW52823   0.604   6.163   2.730
16997SOL    HW152824   0.578   6.217   2.656
16997SOL    HW252825   0.672   6.106   2.696
16998SOL     OW52826   1.095   9.690  11.788
16998SOL    HW152827   1.034   9.738  11.731
16998SOL    HW252828   1.176   9.741  11.785
16999SOL     OW52829   8.885  13.967   1.416
16999SOL    HW152830   8.817  13.989   1.480
16999SOL    HW252831   8.898  14.048   1.367
17000SOL     OW52832   9.403  11.159  12.201
17000SOL    HW152833   9.440  11.184  12.285
17000SOL    HW252834   9.475  11.119  12.153
17001SOL     OW52835  13.056  12.591   5.941
17001SOL    HW152836  13.140  12.632   5.919
17001SOL    HW252837  13.055  12.510   5.891
17002SOL     OW52838  11.902   8.060   3.682
17002SOL    HW152839  11.807   8.076   3.686
17002SOL    HW252840  11.912   7.988   3.619
17003SOL     OW52841   3.625   5.910  12.084
17003SOL    HW152842   3.549   5.965  12.098
17003SOL    HW252843   3.650   5.880  12.172
17004SOL     OW52844   2.707   9.267  11.342
17004SOL    HW152845   2.787   9.217  11.324
17004SOL    HW252846   2.716   9.346  11.288
17005SOL     OW52847  10.904  11.894   7.480
17005SOL    HW152848  10.889  11.857   7.567
17005SOL    HW252849  10.862  11.832   7.421
17006SOL     OW52850  11.462  11.153   2.670
17006SOL    HW152851  11.410  11.077   2.695
17006SOL    HW252852  11.534  11.155   2.733
17007SOL     OW52853   0.442   9.400  10.501
17007SOL    HW152854   0.430   9.305  10.499
17007SOL    HW252855   0.508   9.415  10.568
17008SOL     OW52856  11.602   6.060   9.514
17008SOL    HW152857  11.572   6.151   9.511
17008SOL    HW252858  11.561   6.023   9.592
17009SOL     OW52859   3.480   7.896   6.800
17009SOL    HW152860   3.423   7.827   6.765
17009SOL    HW252861   3.506   7.946   6.722
17010SOL     OW52862  10.263   6.415  10.072
17010SOL    HW152863  10.245   6.406   9.978
17010SOL    HW252864  10.234   6.333  10.110
17011SOL     OW52865   3.692  14.349   7.801
17011SOL    HW152866   3.636  14.360   7.723
17011SOL    HW252867   3.634  14.308   7.865
17012SOL     OW52868   1.152   1.743   8.917
17012SOL    HW152869   1.123   1.662   8.960
17012SOL    HW252870   1.139   1.727   8.824
17013SOL     OW52871   4.932   0.925   7.650
17013SOL    HW152872   5.014   0.975   7.648
17013SOL    HW252873   4.896   0.937   7.562
17014SOL     OW52874  10.424   8.480   5.684
17014SOL    HW152875  10.341   8.518   5.713
17014SOL    HW252876  10.490   8.519   5.742
17015SOL     OW52877   7.201   8.217   0.396
17015SOL    HW152878   7.143   8.244   0.324
17015SOL    HW252879   7.276   8.276   0.391
17016SOL     OW52880   1.104   8.844   8.820
17016SOL    HW152881   1.189   8.878   8.846
17016SOL    HW252882   1.044   8.877   8.886
17017SOL     OW52883  13.164   8.201  13.775
17017SOL    HW152884  13.085   8.214  13.724
17017SOL    HW252885  13.233   8.186  13.710
17018SOL     OW52886   9.517  10.330   0.807
17018SOL    HW152887   9.552  10.243   0.823
17018SOL    HW252888   9.503  10.333   0.712
17019SOL     OW52889  11.179   3.533   4.434
17019SOL    HW152890  11.086   3.541   4.455
17019SOL    HW252891  11.186   3.448   4.390
17020SOL     OW52892  10.187  14.545  13.285
17020SOL    HW152893  10.167  14.550  13.379
17020SOL    HW252894  10.267  14.493  13.281
17021SOL     OW52895   8.234   2.986   3.210
17021SOL    HW152896   8.222   2.985   3.115
17021SOL    HW252897   8.199   2.901   3.239
17022SOL     OW52898   7.603   9.537  10.234
17022SOL    HW152899   7.609   9.461  10.292
17022SOL    HW252900   7.589   9.611  10.293
17023SOL     OW52901  11.005   4.440  14.515
17023SOL    HW152902  11.038   4.512  14.569
17023SOL    HW252903  11.017   4.362  14.569
17024SOL     OW52904  12.930  14.364  11.096
17024SOL    HW152905  12.997  14.418  11.137
17024SOL    HW252906  12.894  14.420  11.027
17025SOL     OW52907   9.540  13.226   2.961
17025SOL    HW152908   9.506  13.137   2.954
17025SOL    HW252909   9.584  13.228   3.047
17026SOL     OW52910   4.749   4.006   8.442
17026SOL    HW152911   4.738   4.045   8.529
17026SOL    HW252912   4.708   3.920   8.449
17027SOL     OW52913   0.240  14.045  13.561
17027SOL    HW152914   0.217  14.074  13.650
17027SOL    HW252915   0.319  13.992  13.572
17028SOL     OW52916   2.638   9.972  11.563
17028SOL    HW152917   2.662  10.028  11.637
17028SOL    HW252918   2.577  10.025  11.512
17029SOL     OW52919   2.838   4.430   5.036
17029SOL    HW152920   2.770   4.419   5.102
17029SOL    HW252921   2.917   4.453   5.086
17030SOL     OW52922   4.398   3.211   4.747
17030SOL    HW152923   4.352   3.219   4.663
17030SOL    HW252924   4.485   3.179   4.724
17031SOL     OW52925   5.734  11.481   6.282
17031SOL    HW152926   5.676  11.411   6.253
17031SOL    HW252927   5.749  11.463   6.375
17032SOL     OW52928  14.734   8.684  14.176
17032SOL    HW152929  14.762   8.601  14.139
17032SOL    HW252930  14.680   8.660  14.252
17033SOL     OW52931   9.942   2.154   7.160
17033SOL    HW152932  10.037   2.164   7.150
17033SOL    HW252933   9.905   2.213   7.095
17034SOL     OW52934   3.630   3.106  13.577
17034SOL    HW152935   3.690   3.132  13.647
17034SOL    HW252936   3.687   3.066  13.510
17035SOL     OW52937   6.963   3.622  13.588
17035SOL    HW152938   6.963   3.575  13.505
17035SOL    HW252939   6.911   3.701  13.571
17036SOL     OW52940   1.416  13.453   6.932
17036SOL    HW152941   1.370  13.369   6.925
17036SOL    HW252942   1.366  13.502   6.997
17037SOL     OW52943   6.029   1.435   0.725
17037SOL    HW152944   6.035   1.526   0.696
17037SOL    HW252945   5.935   1.415   0.720
17038SOL     OW52946  11.805   0.341   6.041
17038SOL    HW152947  11.854   0.335   6.122
17038SOL    HW252948  11.713   0.336   6.068
17039SOL     OW52949   0.734   6.006   0.697
17039SOL    HW152950   0.727   5.980   0.789
17039SOL    HW252951   0.828   6.017   0.683
17040SOL     OW52952  12.157   8.697   9.569
17040SOL    HW152953  12.154   8.639   9.492
17040SOL    HW252954  12.082   8.756   9.557
17041SOL     OW52955   8.916   3.116  10.861
17041SOL    HW152956   8.845   3.063  10.827
17041SOL    HW252957   8.935   3.179  10.791
17042SOL     OW52958   8.687   0.276   7.846
17042SOL    HW152959   8.743   0.345   7.810
17042SOL    HW252960   8.630   0.321   7.907
17043SOL     OW52961   1.078   9.136   5.401
17043SOL    HW152962   1.099   9.159   5.310
17043SOL    HW252963   0.986   9.158   5.411
17044SOL     OW52964   1.828   0.615   2.772
17044SOL    HW152965   1.913   0.658   2.770
17044SOL    HW252966   1.847   0.524   2.794
17045SOL     OW52967   3.267   7.402  10.519
17045SOL    HW152968   3.328   7.407  10.445
17045SOL    HW252969   3.242   7.309  10.523
17046SOL     OW52970   3.132   3.599  14.661
17046SOL    HW152971   3.066   3.530  14.655
17046SOL    HW252972   3.210   3.554  14.693
17047SOL     OW52973   7.611   1.394   5.694
17047SOL    HW152974   7.538   1.407   5.633
17047SOL    HW252975   7.666   1.329   5.652
17048SOL     OW52976  12.047   7.211  10.554
17048SOL    HW152977  12.115   7.279  10.555
17048SOL    HW252978  11.965   7.259  10.550
17049SOL     OW52979  11.807  14.016  10.528
17049SOL    HW152980  11.798  13.928  10.565
17049SOL    HW252981  11.729  14.062  10.557
17050SOL     OW52982   2.306   0.208   0.637
17050SOL    HW152983   2.219   0.248   0.637
17050SOL    HW252984   2.313   0.169   0.724
17051SOL     OW52985  11.954   4.560  14.107
17051SOL    HW152986  12.030   4.560  14.047
17051SOL    HW252987  11.964   4.641  14.157
17052SOL     OW52988   6.336  14.349   6.340
17052SOL    HW152989   6.250  14.378   6.312
17052SOL    HW252990   6.342  14.375   6.432
17053SOL     OW52991   5.975  14.380  13.602
17053SOL    HW152992   5.956  14.353  13.692
17053SOL    HW252993   5.948  14.305  13.548
17054SOL     OW52994   5.232  10.920  12.648
17054SOL    HW152995   5.216  10.939  12.555
17054SOL    HW252996   5.145  10.921  12.687
17055SOL     OW52997   1.360   6.152   3.104
17055SOL    HW152998   1.389   6.232   3.148
17055SOL    HW252999   1.348   6.089   3.175
17056SOL     OW53000  13.504   8.926   7.683
17056SOL    HW153001  13.577   8.936   7.744
17056SOL    HW253002  13.481   8.833   7.688
17057SOL     OW53003   8.799   6.373  12.676
17057SOL    HW153004   8.792   6.279  12.695
17057SOL    HW253005   8.885   6.383  12.635
17058SOL     OW53006   1.607   3.144  11.232
17058SOL    HW153007   1.666   3.197  11.286
17058SOL    HW253008   1.657   3.125  11.153
17059SOL     OW53009  10.340  14.471  14.425
17059SOL    HW153010  10.247  14.465  14.446
17059SOL    HW253011  10.372  14.381  14.430
17060SOL     OW53012   0.523   1.875  13.517
17060SOL    HW153013   0.468   1.938  13.564
17060SOL    HW253014   0.463   1.803  13.495
17061SOL     OW53015   2.334  14.222   9.896
17061SOL    HW153016   2.415  14.224   9.946
17061SOL    HW253017   2.337  14.301   9.843
17062SOL     OW53018   3.008   3.943   3.189
17062SOL    HW153019   3.096   3.980   3.181
17062SOL    HW253020   2.969   3.960   3.103
17063SOL     OW53021  10.779  10.126  13.604
17063SOL    HW153022  10.742  10.213  13.623
17063SOL    HW253023  10.872  10.134  13.627
17064SOL     OW53024  12.424   3.561   0.359
17064SOL    HW153025  12.388   3.581   0.445
17064SOL    HW253026  12.370   3.612   0.298
17065SOL     OW53027  13.551   7.686   2.724
17065SOL    HW153028  13.518   7.616   2.668
17065SOL    HW253029  13.598   7.640   2.794
17066SOL     OW53030   7.110  12.816   3.111
17066SOL    HW153031   7.199  12.788   3.091
17066SOL    HW253032   7.095  12.785   3.201
17067SOL     OW53033   5.043  14.305  14.553
17067SOL    HW153034   5.112  14.365  14.525
17067SOL    HW253035   5.037  14.241  14.482
17068SOL     OW53036   5.130  10.319   0.605
17068SOL    HW153037   5.061  10.317   0.671
17068SOL    HW253038   5.085  10.331   0.522
17069SOL     OW53039  14.658   7.590  14.758
17069SOL    HW153040  14.670   7.502  14.721
17069SOL    HW253041  14.601   7.635  14.697
17070SOL     OW53042  14.564   3.136  12.772
17070SOL    HW153043  14.568   3.069  12.703
17070SOL    HW253044  14.551   3.218  12.725
17071SOL     OW53045  10.494  14.318  12.830
17071SOL    HW153046  10.585  14.324  12.803
17071SOL    HW253047  10.454  14.399  12.797
17072SOL     OW53048  14.055  10.367   6.298
17072SOL    HW153049  14.106  10.326   6.368
17072SOL    HW253050  14.087  10.457   6.294
17073SOL     OW53051  12.112  13.418   4.932
17073SOL    HW153052  12.156  13.473   4.867
17073SOL    HW253053  12.181  13.393   4.993
17074SOL     OW53054   8.966   8.365   0.019
17074SOL    HW153055   8.961   8.460   0.020
17074SOL    HW253056   9.004   8.344  14.806
17075SOL     OW53057   1.591   3.118   0.679
17075SOL    HW153058   1.510   3.145   0.635
17075SOL    HW253059   1.659   3.129   0.612
17076SOL     OW53060  10.349   8.734   6.603
17076SOL    HW153061  10.379   8.821   6.629
17076SOL    HW253062  10.353   8.682   6.684
17077SOL     OW53063   8.578  14.805  10.606
17077SOL    HW153064   8.673  14.796  10.610
17077SOL    HW253065   8.546  14.717  10.590
17078SOL     OW53066   2.264   2.196  13.692
17078SOL    HW153067   2.191   2.143  13.661
17078SOL    HW253068   2.336   2.174  13.632
17079SOL     OW53069   4.007   4.800   8.527
17079SOL    HW153070   4.068   4.774   8.458
17079SOL    HW253071   4.046   4.878   8.566
17080SOL     OW53072   4.881   0.501  11.586
17080SOL    HW153073   4.844   0.436  11.645
17080SOL    HW253074   4.932   0.450  11.523
17081SOL     OW53075   7.979  14.827  14.201
17081SOL    HW153076   7.945  14.739  14.182
17081SOL    HW253077   8.074  14.814  14.211
17082SOL     OW53078   9.491   8.017  14.814
17082SOL    HW153079   9.560   8.083  14.800
17082SOL    HW253080   9.434   8.055   0.007
17083SOL     OW53081  12.868   3.871   6.910
17083SOL    HW153082  12.832   3.810   6.974
17083SOL    HW253083  12.960   3.881   6.935
17084SOL     OW53084   8.015   3.235   9.463
17084SOL    HW153085   7.938   3.197   9.420
17084SOL    HW253086   8.009   3.206   9.553
17085SOL     OW53087  14.822   7.055  10.896
17085SOL    HW153088  14.753   6.995  10.868
17085SOL    HW253089  14.866   7.082  10.815
17086SOL     OW53090   7.437   2.838   4.524
17086SOL    HW153091   7.460   2.798   4.608
17086SOL    HW253092   7.344   2.819   4.513
17087SOL     OW53093   6.712   1.142  14.399
17087SOL    HW153094   6.679   1.217  14.448
17087SOL    HW253095   6.787   1.110  14.450
17088SOL     OW53096   5.869   4.197   6.154
17088SOL    HW153097   5.784   4.212   6.114
17088SOL    HW253098   5.869   4.103   6.175
17089SOL     OW53099  11.826   2.003   1.608
17089SOL    HW153100  11.776   1.947   1.668
17089SOL    HW253101  11.892   1.946   1.570
17090SOL     OW53102  14.801   2.773   1.727
17090SOL    HW153103  14.747   2.852   1.718
17090SOL    HW253104  14.794   2.729   1.642
17091SOL     OW53105   3.926   3.931  13.154
17091SOL    HW153106   3.887   3.888  13.230
17091SOL    HW253107   3.971   3.860  13.107
17092SOL     OW53108   4.069   6.048  14.344
17092SOL    HW153109   4.106   6.127  14.305
17092SOL    HW253110   4.021   6.007  14.272
17093SOL     OW53111   3.440   5.442  14.808
17093SOL    HW153112   3.470   5.367  14.858
17093SOL    HW253113   3.518   5.473  14.762
17094SOL     OW53114   5.054  13.706   2.722
17094SOL    HW153115   4.992  13.657   2.776
17094SOL    HW253116   5.076  13.783   2.774
17095SOL     OW53117  10.435  14.806   2.112
17095SOL    HW153118  10.529  14.807   2.092
17095SOL    HW253119  10.398  14.744   2.050
17096SOL     OW53120   7.890   9.182   4.414
17096SOL    HW153121   7.817   9.171   4.353
17096SOL    HW253122   7.967   9.191   4.359
17097SOL     OW53123   2.426   7.775   0.819
17097SOL    HW153124   2.382   7.770   0.903
17097SOL    HW253125   2.505   7.722   0.830
17098SOL     OW53126  14.294   0.336   0.838
17098SOL    HW153127  14.366   0.371   0.786
17098SOL    HW253128  14.324   0.341   0.928
17099SOL     OW53129  11.073   5.907   2.574
17099SOL    HW153130  11.092   5.826   2.622
17099SOL    HW253131  10.997   5.944   2.618
17100SOL     OW53132   2.180   2.648  13.527
17100SOL    HW153133   2.207   2.729  13.485
17100SOL    HW253134   2.143   2.675  13.611
17101SOL     OW53135   6.645   4.879  11.354
17101SOL    HW153136   6.669   4.801  11.404
17101SOL    HW253137   6.576   4.920  11.407
17102SOL     OW53138   0.093   6.674   6.120
17102SOL    HW153139   0.152   6.661   6.194
17102SOL    HW253140   0.035   6.598   6.122
17103SOL     OW53141   9.406   7.991   4.057
17103SOL    HW153142   9.331   8.015   4.002
17103SOL    HW253143   9.374   8.002   4.147
17104SOL     OW53144   4.316   0.254   7.729
17104SOL    HW153145   4.377   0.183   7.711
17104SOL    HW253146   4.331   0.317   7.658
17105SOL     OW53147   0.184   3.303  13.538
17105SOL    HW153148   0.171   3.382  13.486
17105SOL    HW253149   0.239   3.247  13.483
17106SOL     OW53150   9.576   6.387   3.865
17106SOL    HW153151   9.529   6.470   3.872
17106SOL    HW253152   9.666   6.408   3.891
17107SOL     OW53153   3.519   1.621  14.481
17107SOL    HW153154   3.486   1.614  14.391
17107SOL    HW253155   3.608   1.588  14.476
17108SOL     OW53156   1.683   2.659   8.760
17108SOL    HW153157   1.625   2.734   8.747
17108SOL    HW253158   1.758   2.694   8.808
17109SOL     OW53159   5.283  14.262   5.706
17109SOL    HW153160   5.204  14.240   5.757
17109SOL    HW253161   5.329  14.178   5.698
17110SOL     OW53162   8.319   1.944  10.560
17110SOL    HW153163   8.304   2.015  10.622
17110SOL    HW253164   8.256   1.876  10.586
17111SOL     OW53165   0.162   1.640   2.242
17111SOL    HW153166   0.236   1.583   2.262
17111SOL    HW253167   0.191   1.692   2.167
17112SOL     OW53168   9.074   9.176  14.213
17112SOL    HW153169   9.013   9.234  14.258
17112SOL    HW253170   9.051   9.185  14.120
17113SOL     OW53171  10.809   7.205   3.777
17113SOL    HW153172  10.775   7.274   3.721
17113SOL    HW253173  10.749   7.132   3.765
17114SOL     OW53174  10.594  12.040   6.210
17114SOL    HW153175  10.576  11.947   6.227
17114SOL    HW253176  10.518  12.086   6.246
17115SOL     OW53177   0.663  13.035   0.503
17115SOL    HW153178   0.732  12.982   0.464
17115SOL    HW253179   0.590  12.974   0.515
17116SOL     OW53180   3.392   7.020   9.020
17116SOL    HW153181   3.431   6.945   9.064
17116SOL    HW253182   3.430   7.096   9.065
17117SOL     OW53183   1.201  11.390   6.924
17117SOL    HW153184   1.266  11.450   6.889
17117SOL    HW253185   1.251  11.320   6.965
17118SOL     OW53186   6.173   1.164   4.056
17118SOL    HW153187   6.172   1.180   3.961
17118SOL    HW253188   6.085   1.130   4.075
17119SOL     OW53189  14.052   6.714   0.740
17119SOL    HW153190  14.099   6.746   0.817
17119SOL    HW253191  14.112   6.650   0.701
17120SOL     OW53192   7.499  14.114   4.819
17120SOL    HW153193   7.556  14.065   4.760
17120SOL    HW253194   7.500  14.203   4.785
17121SOL     OW53195  12.759   9.306   9.249
17121SOL    HW153196  12.758   9.226   9.301
17121SOL    HW253197  12.821   9.363   9.295
17122SOL     OW53198   5.069   3.302   1.898
17122SOL    HW153199   4.984   3.258   1.905
17122SOL    HW253200   5.088   3.304   1.805
17123SOL     OW53201   5.202   6.066   8.835
17123SOL    HW153202   5.237   6.155   8.828
17123SOL    HW253203   5.116   6.070   8.793
17124SOL     OW53204  10.617   7.330   3.615
17124SOL    HW153205  10.610   7.387   3.538
17124SOL    HW253206  10.581   7.383   3.686
17125SOL     OW53207  14.422   4.578   9.434
17125SOL    HW153208  14.416   4.483   9.426
17125SOL    HW253209  14.415   4.594   9.529
17126SOL     OW53210   8.655   4.312   6.973
17126SOL    HW153211   8.740   4.354   6.982
17126SOL    HW253212   8.612   4.360   6.902
17127SOL     OW53213   5.396   4.884  13.008
17127SOL    HW153214   5.447   4.842  13.077
17127SOL    HW253215   5.436   4.853  12.927
17128SOL     OW53216   4.688  10.327   6.547
17128SOL    HW153217   4.712  10.305   6.638
17128SOL    HW253218   4.672  10.242   6.506
17129SOL     OW53219   6.374  13.247   0.054
17129SOL    HW153220   6.286  13.285   0.051
17129SOL    HW253221   6.377  13.201   0.138
17130SOL     OW53222   1.188  14.461  14.788
17130SOL    HW153223   1.258  14.399  14.806
17130SOL    HW253224   1.150  14.431  14.706
17131SOL     OW53225  11.763   3.790   5.419
17131SOL    HW153226  11.742   3.816   5.329
17131SOL    HW253227  11.859   3.786   5.420
17132SOL     OW53228   1.077  14.064   6.315
17132SOL    HW153229   1.069  14.046   6.409
17132SOL    HW253230   1.154  14.119   6.307
17133SOL     OW53231   5.468  13.888   8.099
17133SOL    HW153232   5.556  13.856   8.077
17133SOL    HW253233   5.479  13.982   8.112
17134SOL     OW53234  11.977  14.714  14.773
17134SOL    HW153235  12.038  14.688  14.704
17134SOL    HW253236  11.892  14.715  14.730
17135SOL     OW53237  12.459   3.854  11.853
17135SOL    HW153238  12.466   3.759  11.866
17135SOL    HW253239  12.519   3.892  11.918
17136SOL     OW53240  10.811  12.269   5.014
17136SOL    HW153241  10.845  12.312   4.935
17136SOL    HW253242  10.733  12.319   5.036
17137SOL     OW53243  12.950  12.888   7.032
17137SOL    HW153244  12.975  12.970   6.990
17137SOL    HW253245  12.957  12.904   7.126
17138SOL     OW53246   1.333   6.938  11.103
17138SOL    HW153247   1.320   6.957  11.196
17138SOL    HW253248   1.254   6.891  11.077
17139SOL     OW53249  14.386   0.784   3.884
17139SOL    HW153250  14.455   0.841   3.851
17139SOL    HW253251  14.430   0.700   3.900
17140SOL     OW53252  13.958   1.904   0.227
17140SOL    HW153253  13.975   1.997   0.242
17140SOL    HW253254  13.878   1.902   0.175
17141SOL     OW53255   4.757  12.299  12.545
17141SOL    HW153256   4.832  12.269  12.494
17141SOL    HW253257   4.736  12.385  12.508
17142SOL     OW53258  13.681   0.149  10.642
17142SOL    HW153259  13.679   0.245  10.644
17142SOL    HW253260  13.593   0.123  10.617
17143SOL     OW53261  11.130   6.976  12.737
17143SOL    HW153262  11.219   6.976  12.770
17143SOL    HW253263  11.139   6.978  12.642
17144SOL     OW53264   5.314  11.134  11.026
17144SOL    HW153265   5.264  11.151  10.946
17144SOL    HW253266   5.400  11.172  11.008
17145SOL     OW53267  14.705  13.422  14.439
17145SOL    HW153268  14.724  13.359  14.369
17145SOL    HW253269  14.764  13.397  14.510
17146SOL     OW53270   9.909   4.387  12.219
17146SOL    HW153271   9.823   4.428  12.218
17146SOL    HW253272   9.897   4.305  12.266
17147SOL     OW53273   7.921  10.186   6.174
17147SOL    HW153274   8.004  10.141   6.156
17147SOL    HW253275   7.931  10.272   6.133
17148SOL     OW53276  14.585   7.928   9.564
17148SOL    HW153277  14.515   7.943   9.627
17148SOL    HW253278  14.663   7.914   9.617
17149SOL     OW53279   9.028   8.447  10.412
17149SOL    HW153280   9.011   8.540  10.426
17149SOL    HW253281   9.122   8.437  10.424
17150SOL     OW53282  11.828   3.810   8.511
17150SOL    HW153283  11.912   3.787   8.551
17150SOL    HW253284  11.845   3.814   8.417
17151SOL     OW53285   3.146   1.619  13.654
17151SOL    HW153286   3.159   1.566  13.733
17151SOL    HW253287   3.053   1.607  13.633
17152SOL     OW53288  12.192  12.549  11.410
17152SOL    HW153289  12.106  12.588  11.394
17152SOL    HW253290  12.223  12.523  11.323
17153SOL     OW53291   6.228   8.324   3.209
17153SOL    HW153292   6.253   8.344   3.299
17153SOL    HW253293   6.202   8.232   3.211
17154SOL     OW53294   2.886   9.479   2.115
17154SOL    HW153295   2.807   9.527   2.141
17154SOL    HW253296   2.855   9.416   2.049
17155SOL     OW53297   1.667  14.529   6.152
17155SOL    HW153298   1.738  14.559   6.209
17155SOL    HW253299   1.656  14.599   6.088
17156SOL     OW53300   3.523  11.284   2.264
17156SOL    HW153301   3.554  11.211   2.210
17156SOL    HW253302   3.570  11.360   2.229
17157SOL     OW53303   1.908   1.824   7.079
17157SOL    HW153304   1.957   1.823   7.162
17157SOL    HW253305   1.835   1.764   7.095
17158SOL     OW53306   8.821  12.171   4.553
17158SOL    HW153307   8.739  12.154   4.599
17158SOL    HW253308   8.797  12.233   4.484
17159SOL     OW53309  10.327  14.149   8.993
17159SOL    HW153310  10.394  14.082   9.003
17159SOL    HW253311  10.361  14.225   9.041
17160SOL     OW53312   0.325   0.583   0.965
17160SOL    HW153313   0.337   0.628   1.049
17160SOL    HW253314   0.389   0.623   0.907
17161SOL     OW53315   1.426   2.674   7.377
17161SOL    HW153316   1.474   2.609   7.326
17161SOL    HW253317   1.345   2.688   7.329
17162SOL     OW53318  14.730   7.295   4.579
17162SOL    HW153319  14.813   7.248   4.575
17162SOL    HW253320  14.747   7.368   4.639
17163SOL     OW53321   2.098  10.140  10.197
17163SOL    HW153322   2.187  10.111  10.176
17163SOL    HW253323   2.044  10.063  10.182
17164SOL     OW53324   7.276  14.113   7.508
17164SOL    HW153325   7.307  14.096   7.419
17164SOL    HW253326   7.308  14.039   7.560
17165SOL     OW53327   8.974   0.085   3.192
17165SOL    HW153328   9.004   0.018   3.130
17165SOL    HW253329   8.964   0.164   3.139
17166SOL     OW53330  10.679  10.324   4.719
17166SOL    HW153331  10.694  10.243   4.768
17166SOL    HW253332  10.743  10.386   4.754
17167SOL     OW53333   2.647   1.484   7.034
17167SOL    HW153334   2.645   1.574   7.002
17167SOL    HW253335   2.735   1.453   7.013
17168SOL     OW53336   8.897   5.393   6.446
17168SOL    HW153337   8.865   5.350   6.366
17168SOL    HW253338   8.819   5.437   6.482
17169SOL     OW53339   5.119   1.460   2.070
17169SOL    HW153340   5.034   1.451   2.113
17169SOL    HW253341   5.151   1.546   2.097
17170SOL     OW53342  11.860  12.757   4.519
17170SOL    HW153343  11.887  12.780   4.609
17170SOL    HW253344  11.840  12.663   4.524
17171SOL     OW53345   5.946   4.420   5.186
17171SOL    HW153346   5.893   4.451   5.259
17171SOL    HW253347   6.004   4.494   5.167
17172SOL     OW53348   3.542  12.898   9.350
17172SOL    HW153349   3.465  12.894   9.406
17172SOL    HW253350   3.604  12.837   9.391
17173SOL     OW53351  14.404   3.797   8.727
17173SOL    HW153352  14.415   3.719   8.673
17173SOL    HW253353  14.330   3.777   8.784
17174SOL     OW53354   8.074   2.439   4.111
17174SOL    HW153355   8.106   2.512   4.164
17174SOL    HW253356   7.983   2.460   4.094
17175SOL     OW53357   6.973   8.272   9.029
17175SOL    HW153358   6.928   8.236   9.105
17175SOL    HW253359   7.051   8.315   9.065
17176SOL     OW53360  10.662  10.331   2.646
17176SOL    HW153361  10.672  10.418   2.606
17176SOL    HW253362  10.722  10.275   2.597
17177SOL     OW53363   5.059  14.113   5.790
17177SOL    HW153364   5.045  14.055   5.715
17177SOL    HW253365   5.053  14.056   5.866
17178SOL     OW53366  13.350   3.922   6.060
17178SOL    HW153367  13.388   3.901   6.145
17178SOL    HW253368  13.263   3.883   6.062
17179SOL     OW53369   9.045   2.337  10.882
17179SOL    HW153370   9.113   2.405  10.874
17179SOL    HW253371   9.053   2.306  10.972
17180SOL     OW53372  13.471   4.713   5.926
17180SOL    HW153373  13.439   4.721   6.016
17180SOL    HW253374  13.562   4.742   5.930
17181SOL     OW53375   2.474  12.305   3.061
17181SOL    HW153376   2.568  12.319   3.070
17181SOL    HW253377   2.436  12.347   3.138
17182SOL     OW53378  10.590   9.271   2.707
17182SOL    HW153379  10.675   9.229   2.719
17182SOL    HW253380  10.595   9.350   2.760
17183SOL     OW53381   0.226   9.232   2.178
17183SOL    HW153382   0.231   9.159   2.240
17183SOL    HW253383   0.286   9.208   2.108
17184SOL     OW53384  12.156  12.679   7.599
17184SOL    HW153385  12.092  12.736   7.642
17184SOL    HW253386  12.109  12.597   7.586
17185SOL     OW53387  13.584   8.235  11.716
17185SOL    HW153388  13.591   8.173  11.643
17185SOL    HW253389  13.650   8.205  11.779
17186SOL     OW53390   8.644  10.387   1.210
17186SOL    HW153391   8.699  10.365   1.135
17186SOL    HW253392   8.702  10.381   1.285
17187SOL     OW53393   8.531   4.339   2.343
17187SOL    HW153394   8.610   4.380   2.308
17187SOL    HW253395   8.470   4.336   2.269
17188SOL     OW53396   0.202  13.165  13.268
17188SOL    HW153397   0.190  13.219  13.190
17188SOL    HW253398   0.183  13.224  13.341
17189SOL     OW53399  14.297   0.099   1.349
17189SOL    HW153400  14.275   0.044   1.424
17189SOL    HW253401  14.383   0.068   1.322
17190SOL     OW53402  10.033   8.217   0.174
17190SOL    HW153403   9.984   8.214   0.092
17190SOL    HW253404  10.018   8.132   0.214
17191SOL     OW53405   4.343  11.293   2.822
17191SOL    HW153406   4.295  11.213   2.844
17191SOL    HW253407   4.278  11.363   2.835
17192SOL     OW53408   4.582  14.574  13.658
17192SOL    HW153409   4.503  14.566  13.604
17192SOL    HW253410   4.586  14.667  13.682
17193SOL     OW53411   9.880  14.091  13.518
17193SOL    HW153412   9.879  14.185  13.503
17193SOL    HW253413   9.910  14.081  13.608
17194SOL     OW53414   1.665   0.085  12.430
17194SOL    HW153415   1.580   0.120  12.456
17194SOL    HW253416   1.645   0.025  12.358
17195SOL     OW53417   9.707   9.017  12.997
17195SOL    HW153418   9.736   8.962  13.069
17195SOL    HW253419   9.787   9.060  12.966
17196SOL     OW53420   9.337   9.848   5.745
17196SOL    HW153421   9.300   9.799   5.818
17196SOL    HW253422   9.430   9.826   5.746
17197SOL     OW53423   5.397  11.883   7.494
17197SOL    HW153424   5.442  11.798   7.498
17197SOL    HW253425   5.349  11.881   7.411
17198SOL     OW53426   2.289   8.510   8.248
17198SOL    HW153427   2.277   8.454   8.325
17198SOL    HW253428   2.225   8.580   8.259
17199SOL     OW53429   4.908   8.588   9.709
17199SOL    HW153430   4.824   8.552   9.738
17199SOL    HW253431   4.886   8.673   9.670
17200SOL     OW53432   8.403   0.860   1.036
17200SOL    HW153433   8.435   0.863   0.946
17200SOL    HW253434   8.366   0.947   1.052
17201SOL     OW53435   2.810  11.375   3.480
17201SOL    HW153436   2.818  11.341   3.569
17201SOL    HW253437   2.800  11.469   3.491
17202SOL     OW53438   3.823   0.052   4.006
17202SOL    HW153439   3.788   0.135   4.039
17202SOL    HW253440   3.849   0.071   3.916
17203SOL     OW53441  14.554   8.488   9.267
17203SOL    HW153442  14.602   8.424   9.214
17203SOL    HW253443  14.467   8.492   9.226
17204SOL     OW53444  12.136  12.878   0.985
17204SOL    HW153445  12.207  12.928   1.027
17204SOL    HW253446  12.128  12.799   1.038
17205SOL     OW53447   1.436   6.613   1.827
17205SOL    HW153448   1.435   6.695   1.877
17205SOL    HW253449   1.525   6.581   1.836
17206SOL     OW53450   0.736   8.462   4.668
17206SOL    HW153451   0.828   8.478   4.649
17206SOL    HW253452   0.696   8.447   4.583
17207SOL     OW53453   5.919   4.031   2.031
17207SOL    HW153454   5.865   4.100   1.995
17207SOL    HW253455   5.859   3.957   2.043
17208SOL     OW53456  12.082   2.035  10.165
17208SOL    HW153457  12.130   2.113  10.191
17208SOL    HW253458  12.065   1.989  10.248
17209SOL     OW53459   9.687   3.173  10.799
17209SOL    HW153460   9.666   3.249  10.853
17209SOL    HW253461   9.711   3.209  10.714
17210SOL     OW53462  14.101   8.819  10.587
17210SOL    HW153463  14.100   8.723  10.585
17210SOL    HW253464  14.168   8.844  10.523
17211SOL     OW53465   1.710  10.338  11.818
17211SOL    HW153466   1.721  10.286  11.739
17211SOL    HW253467   1.619  10.321  11.845
17212SOL     OW53468   1.500   7.068  10.204
17212SOL    HW153469   1.515   7.158  10.233
17212SOL    HW253470   1.566   7.053  10.136
17213SOL     OW53471   3.370  14.857  13.799
17213SOL    HW153472   3.353   0.025  13.883
17213SOL    HW253473   3.285  14.857  13.754
17214SOL     OW53474   9.476   6.342   4.666
17214SOL    HW153475   9.402   6.283   4.650
17214SOL    HW253476   9.515   6.309   4.747
17215SOL     OW53477   1.902   6.264   6.554
17215SOL    HW153478   1.814   6.264   6.591
17215SOL    HW253479   1.957   6.232   6.626
17216SOL     OW53480   9.080   4.664   3.931
17216SOL    HW153481   9.098   4.672   4.024
17216SOL    HW253482   9.166   4.653   3.890
17217SOL     OW53483  10.172   5.976   5.970
17217SOL    HW153484  10.200   5.932   6.050
17217SOL    HW253485  10.138   6.060   5.999
17218SOL     OW53486   1.511  11.088  10.889
17218SOL    HW153487   1.591  11.134  10.915
17218SOL    HW253488   1.495  11.026  10.960
17219SOL     OW53489   6.969  13.121   4.228
17219SOL    HW153490   6.879  13.088   4.225
17219SOL    HW253491   6.964  13.207   4.185
17220SOL     OW53492  10.034   9.276   5.708
17220SOL    HW153493  10.051   9.326   5.788
17220SOL    HW253494  10.063   9.334   5.637
17221SOL     OW53495   0.772   4.899   6.866
17221SOL    HW153496   0.710   4.831   6.895
17221SOL    HW253497   0.855   4.853   6.858
17222SOL     OW53498   4.930   0.343   1.701
17222SOL    HW153499   4.881   0.328   1.620
17222SOL    HW253500   4.948   0.437   1.702
17223SOL     OW53501  12.986  10.142   1.132
17223SOL    HW153502  12.928  10.120   1.058
17223SOL    HW253503  13.010  10.233   1.116
17224SOL     OW53504   5.771   9.383   1.558
17224SOL    HW153505   5.827   9.335   1.497
17224SOL    HW253506   5.832   9.427   1.618
17225SOL     OW53507  10.346   3.899   8.153
17225SOL    HW153508  10.285   3.831   8.126
17225SOL    HW253509  10.385   3.867   8.234
17226SOL     OW53510  11.186  14.765   7.935
17226SOL    HW153511  11.211  14.753   7.844
17226SOL    HW253512  11.146  14.682   7.960
17227SOL     OW53513   8.240   6.371  10.124
17227SOL    HW153514   8.293   6.372  10.044
17227SOL    HW253515   8.150   6.378  10.094
17228SOL     OW53516   5.497  12.609   5.096
17228SOL    HW153517   5.555  12.535   5.079
17228SOL    HW253518   5.473  12.641   5.009
17229SOL     OW53519  11.434   3.299   4.309
17229SOL    HW153520  11.450   3.317   4.402
17229SOL    HW253521  11.521   3.283   4.273
17230SOL     OW53522   4.459   2.798  11.290
17230SOL    HW153523   4.482   2.706  11.278
17230SOL    HW253524   4.487   2.840  11.209
17231SOL     OW53525   1.248   6.162   4.117
17231SOL    HW153526   1.271   6.127   4.203
17231SOL    HW253527   1.293   6.105   4.055
17232SOL     OW53528  14.045   1.727  10.397
17232SOL    HW153529  14.140   1.725  10.389
17232SOL    HW253530  14.028   1.710  10.490
17233SOL     OW53531   9.597   5.438  13.627
17233SOL    HW153532   9.605   5.387  13.707
17233SOL    HW253533   9.579   5.527  13.657
17234SOL     OW53534  10.381   7.148  13.733
17234SOL    HW153535  10.355   7.228  13.779
17234SOL    HW253536  10.432   7.098  13.797
17235SOL     OW53537   3.937  12.040   1.292
17235SOL    HW153538   4.000  12.090   1.240
17235SOL    HW253539   3.904  11.973   1.233
17236SOL     OW53540  13.850  13.159   5.312
17236SOL    HW153541  13.939  13.155   5.278
17236SOL    HW253542  13.849  13.098   5.386
17237SOL     OW53543   9.643  14.114   1.334
17237SOL    HW153544   9.600  14.030   1.351
17237SOL    HW253545   9.579  14.164   1.285
17238SOL     OW53546  14.474   8.833   1.071
17238SOL    HW153547  14.562   8.819   1.107
17238SOL    HW253548  14.422   8.760   1.104
17239SOL     OW53549   1.773  11.894   8.200
17239SOL    HW153550   1.862  11.895   8.164
17239SOL    HW253551   1.755  11.985   8.222
17240SOL     OW53552   1.644   9.598  13.650
17240SOL    HW153553   1.702   9.645  13.590
17240SOL    HW253554   1.696   9.590  13.731
17241SOL     OW53555   3.287  13.479   2.703
17241SOL    HW153556   3.327  13.510   2.785
17241SOL    HW253557   3.199  13.452   2.728
17242SOL     OW53558   6.189   6.747  13.515
17242SOL    HW153559   6.224   6.831  13.546
17242SOL    HW253560   6.238   6.728  13.435
17243SOL     OW53561   1.539   8.139  11.227
17243SOL    HW153562   1.590   8.093  11.293
17243SOL    HW253563   1.527   8.226  11.263
17244SOL     OW53564  11.690   6.465  12.935
17244SOL    HW153565  11.607   6.494  12.973
17244SOL    HW253566  11.704   6.378  12.973
17245SOL     OW53567  12.113  14.449   8.862
17245SOL    HW153568  12.061  14.529   8.865
17245SOL    HW253569  12.204  14.479   8.867
17246SOL     OW53570   7.757   3.889   4.402
17246SOL    HW153571   7.812   3.813   4.385
17246SOL    HW253572   7.808   3.963   4.369
17247SOL     OW53573  12.685   7.562   1.621
17247SOL    HW153574  12.752   7.603   1.676
17247SOL    HW253575  12.607   7.558   1.676
17248SOL     OW53576  10.090  12.934   1.233
17248SOL    HW153577  10.038  12.882   1.294
17248SOL    HW253578  10.174  12.946   1.278
17249SOL     OW53579  14.113   0.947  12.570
17249SOL    HW153580  14.164   0.932  12.649
17249SOL    HW253581  14.118   1.041  12.555
17250SOL     OW53582   2.333   1.559   0.819
17250SOL    HW153583   2.294   1.623   0.760
17250SOL    HW253584   2.428   1.571   0.808
17251SOL     OW53585   9.473   2.025  13.747
17251SOL    HW153586   9.413   2.096  13.722
17251SOL    HW253587   9.550   2.039  13.692
17252SOL     OW53588  12.905   2.184  10.800
17252SOL    HW153589  12.824   2.229  10.778
17252SOL    HW253590  12.892   2.094  10.769
17253SOL     OW53591   1.795   1.653   7.960
17253SOL    HW153592   1.881   1.685   7.985
17253SOL    HW253593   1.783   1.574   8.011
17254SOL     OW53594  12.369  14.015  12.235
17254SOL    HW153595  12.333  14.006  12.147
17254SOL    HW253596  12.314  14.082  12.277
17255SOL     OW53597  11.852  13.510   5.306
17255SOL    HW153598  11.860  13.428   5.256
17255SOL    HW253599  11.921  13.504   5.373
17256SOL     OW53600   7.267  11.432   1.956
17256SOL    HW153601   7.335  11.369   1.935
17256SOL    HW253602   7.196  11.380   1.992
17257SOL     OW53603   6.559   6.141   3.121
17257SOL    HW153604   6.583   6.084   3.194
17257SOL    HW253605   6.478   6.184   3.150
17258SOL     OW53606   1.101   9.078  14.477
17258SOL    HW153607   1.047   9.106  14.403
17258SOL    HW253608   1.170   9.025  14.438
17259SOL     OW53609   7.053  12.465   7.169
17259SOL    HW153610   7.026  12.373   7.170
17259SOL    HW253611   7.106  12.475   7.248
17260SOL     OW53612  13.374   7.334   7.152
17260SOL    HW153613  13.464   7.359   7.174
17260SOL    HW253614  13.380   7.303   7.062
17261SOL     OW53615  14.605   7.808   4.898
17261SOL    HW153616  14.581   7.880   4.957
17261SOL    HW253617  14.617   7.732   4.956
17262SOL     OW53618   8.276   9.630   6.518
17262SOL    HW153619   8.335   9.658   6.588
17262SOL    HW253620   8.232   9.552   6.554
17263SOL     OW53621  10.051   6.053   1.678
17263SOL    HW153622   9.955   6.054   1.675
17263SOL    HW253623  10.074   5.960   1.676
17264SOL     OW53624   3.107   1.417  10.575
17264SOL    HW153625   3.151   1.423  10.490
17264SOL    HW253626   3.044   1.346  10.564
17265SOL     OW53627  11.410  10.313   6.104
17265SOL    HW153628  11.341  10.355   6.156
17265SOL    HW253629  11.382  10.221   6.099
17266SOL     OW53630   0.609   9.409   6.207
17266SOL    HW153631   0.698   9.401   6.172
17266SOL    HW253632   0.599   9.331   6.262
17267SOL     OW53633   5.857  13.764   4.586
17267SOL    HW153634   5.932  13.819   4.565
17267SOL    HW253635   5.853  13.765   4.682
17268SOL     OW53636   2.935  11.033   9.643
17268SOL    HW153637   2.883  11.102   9.683
17268SOL    HW253638   2.949  10.970   9.714
17269SOL     OW53639   8.736   6.760   8.061
17269SOL    HW153640   8.790   6.762   7.982
17269SOL    HW253641   8.647   6.743   8.030
17270SOL     OW53642   6.412   0.044  11.712
17270SOL    HW153643   6.359   0.103  11.765
17270SOL    HW253644   6.350   0.007  11.648
17271SOL     OW53645  13.081   6.088  14.096
17271SOL    HW153646  13.022   6.019  14.126
17271SOL    HW253647  13.027   6.144  14.041
17272SOL     OW53648   6.415  10.303   4.567
17272SOL    HW153649   6.341  10.244   4.576
17272SOL    HW253650   6.418  10.351   4.650
17273SOL     OW53651   5.106   4.718  13.698
17273SOL    HW153652   5.069   4.753  13.780
17273SOL    HW253653   5.030   4.681  13.652
17274SOL     OW53654   1.904  14.023   8.859
17274SOL    HW153655   1.839  14.086   8.889
17274SOL    HW253656   1.966  14.075   8.808
17275SOL     OW53657  11.418   9.697  11.508
17275SOL    HW153658  11.498   9.748  11.500
17275SOL    HW253659  11.407   9.683  11.602
17276SOL     OW53660   9.550  10.646  13.734
17276SOL    HW153661   9.462  10.625  13.766
17276SOL    HW253662   9.605  10.575  13.767
17277SOL     OW53663  13.248   5.146  10.751
17277SOL    HW153664  13.244   5.057  10.785
17277SOL    HW253665  13.334   5.152  10.709
17278SOL     OW53666   7.193   2.005   2.539
17278SOL    HW153667   7.155   2.082   2.582
17278SOL    HW253668   7.165   2.011   2.448
17279SOL     OW53669   7.486   7.318  11.676
17279SOL    HW153670   7.469   7.389  11.614
17279SOL    HW253671   7.471   7.358  11.762
17280SOL     OW53672   6.639   0.524  10.115
17280SOL    HW153673   6.666   0.480  10.196
17280SOL    HW253674   6.557   0.482  10.091
17281SOL     OW53675   6.927   4.501   3.515
17281SOL    HW153676   6.955   4.453   3.593
17281SOL    HW253677   7.009   4.520   3.469
17282SOL     OW53678  12.823   7.627   3.041
17282SOL    HW153679  12.863   7.613   2.955
17282SOL    HW253680  12.861   7.709   3.072
17283SOL     OW53681   2.432  13.831  11.923
17283SOL    HW153682   2.409  13.757  11.868
17283SOL    HW253683   2.466  13.897  11.862
17284SOL     OW53684   9.471   9.085   1.632
17284SOL    HW153685   9.460   9.005   1.684
17284SOL    HW253686   9.444   9.155   1.690
17285SOL     OW53687  11.665   7.111  13.548
17285SOL    HW153688  11.630   7.022  13.544
17285SOL    HW253689  11.730   7.114  13.477
17286SOL     OW53690  13.306   5.948   7.754
17286SOL    HW153691  13.288   5.859   7.783
17286SOL    HW253692  13.389   5.971   7.795
17287SOL     OW53693   0.701   3.491  12.114
17287SOL    HW153694   0.745   3.419  12.068
17287SOL    HW253695   0.608   3.479  12.095
17288SOL     OW53696   8.239   6.336  14.410
17288SOL    HW153697   8.224   6.321  14.316
17288SOL    HW253698   8.189   6.415  14.430
17289SOL     OW53699   5.390  14.368   1.400
17289SOL    HW153700   5.327  14.438   1.420
17289SOL    HW253701   5.337  14.289   1.394
17290SOL     OW53702  12.808   5.463   6.931
17290SOL    HW153703  12.883   5.408   6.954
17290SOL    HW253704  12.798   5.522   7.006
17291SOL     OW53705  10.080  10.108   0.278
17291SOL    HW153706  10.003  10.156   0.309
17291SOL    HW253707  10.098  10.043   0.346
17292SOL     OW53708  10.326  13.381   6.002
17292SOL    HW153709  10.239  13.343   5.994
17292SOL    HW253710  10.381  13.310   6.036
17293SOL     OW53711   6.815  12.342  10.707
17293SOL    HW153712   6.826  12.315  10.797
17293SOL    HW253713   6.720  12.342  10.693
17294SOL     OW53714   1.607   4.948   7.031
17294SOL    HW153715   1.563   4.941   6.946
17294SOL    HW253716   1.677   5.012   7.016
17295SOL     OW53717  12.846  14.178   5.474
17295SOL    HW153718  12.900  14.218   5.406
17295SOL    HW253719  12.897  14.189   5.555
17296SOL     OW53720   4.585   0.612   3.138
17296SOL    HW153721   4.490   0.612   3.155
17296SOL    HW253722   4.624   0.596   3.224
17297SOL     OW53723   2.827   7.920   5.502
17297SOL    HW153724   2.748   7.873   5.474
17297SOL    HW253725   2.899   7.861   5.479
17298SOL     OW53726   1.723   7.383  10.795
17298SOL    HW153727   1.686   7.321  10.858
17298SOL    HW253728   1.690   7.354  10.710
17299SOL     OW53729   2.362   2.791   6.385
17299SOL    HW153730   2.349   2.794   6.480
17299SOL    HW253731   2.320   2.871   6.353
17300SOL     OW53732  10.063   1.274   6.331
17300SOL    HW153733   9.980   1.288   6.376
17300SOL    HW253734  10.075   1.353   6.278
17301SOL     OW53735  13.095   3.352   8.463
17301SOL    HW153736  13.013   3.320   8.502
17301SOL    HW253737  13.099   3.444   8.489
17302SOL     OW53738   7.988   4.460  12.673
17302SOL    HW153739   8.072   4.418  12.692
17302SOL    HW253740   8.001   4.504  12.589
17303SOL     OW53741  13.808  12.781   0.826
17303SOL    HW153742  13.898  12.781   0.858
17303SOL    HW253743  13.810  12.835   0.747
17304SOL     OW53744   3.249   0.541   2.613
17304SOL    HW153745   3.284   0.513   2.698
17304SOL    HW253746   3.250   0.636   2.617
17305SOL     OW53747   9.022   0.803   3.648
17305SOL    HW153748   9.071   0.867   3.597
17305SOL    HW253749   8.945   0.784   3.595
17306SOL     OW53750   4.836   5.356  14.258
17306SOL    HW153751   4.837   5.345  14.353
17306SOL    HW253752   4.745   5.376  14.238
17307SOL     OW53753   1.116  13.240  12.120
17307SOL    HW153754   1.089  13.209  12.207
17307SOL    HW253755   1.046  13.209  12.061
17308SOL     OW53756   0.148   3.028   3.985
17308SOL    HW153757   0.124   3.116   4.014
17308SOL    HW253758   0.065   2.982   3.977
17309SOL     OW53759   3.951   0.715  13.508
17309SOL    HW153760   4.046   0.711  13.497
17309SOL    HW253761   3.938   0.776  13.581
17310SOL     OW53762  10.795   4.956   2.633
17310SOL    HW153763  10.766   5.047   2.629
17310SOL    HW253764  10.814   4.940   2.725
17311SOL     OW53765  10.711   4.580   0.546
17311SOL    HW153766  10.630   4.564   0.498
17311SOL    HW253767  10.706   4.673   0.571
17312SOL     OW53768   7.281  11.944  14.203
17312SOL    HW153769   7.334  11.875  14.243
17312SOL    HW253770   7.312  11.948  14.112
17313SOL     OW53771   6.522   5.304   1.441
17313SOL    HW153772   6.432   5.274   1.450
17313SOL    HW253773   6.539   5.299   1.347
17314SOL     OW53774   0.202   6.279   1.117
17314SOL    HW153775   0.167   6.259   1.030
17314SOL    HW253776   0.124   6.281   1.174
17315SOL     OW53777  10.673   3.406   7.838
17315SOL    HW153778  10.691   3.333   7.897
17315SOL    HW253779  10.633   3.364   7.761
17316SOL     OW53780   6.813   2.859  11.576
17316SOL    HW153781   6.766   2.904  11.646
17316SOL    HW253782   6.898   2.903  11.573
17317SOL     OW53783  12.848   0.486   7.300
17317SOL    HW153784  12.818   0.396   7.294
17317SOL    HW253785  12.930   0.488   7.252
17318SOL     OW53786   9.402   9.101   3.596
17318SOL    HW153787   9.345   9.105   3.673
17318SOL    HW253788   9.393   9.188   3.556
17319SOL     OW53789  14.328  13.456   5.274
17319SOL    HW153790  14.316  13.522   5.207
17319SOL    HW253791  14.303  13.499   5.356
17320SOL     OW53792   5.066   5.188   1.650
17320SOL    HW153793   5.154   5.173   1.618
17320SOL    HW253794   5.033   5.261   1.598
17321SOL     OW53795  14.056   4.611   9.074
17321SOL    HW153796  14.052   4.528   9.123
17321SOL    HW253797  14.009   4.673   9.130
17322SOL     OW53798   9.010   8.963   3.996
17322SOL    HW153799   9.013   9.053   3.964
17322SOL    HW253800   8.983   8.971   4.087
17323SOL     OW53801   5.407   6.034   6.073
17323SOL    HW153802   5.332   5.983   6.041
17323SOL    HW253803   5.478   5.970   6.078
17324SOL     OW53804  14.584  10.235   5.938
17324SOL    HW153805  14.635  10.256   6.016
17324SOL    HW253806  14.495  10.262   5.959
17325SOL     OW53807   1.222   8.545   9.885
17325SOL    HW153808   1.311   8.578   9.899
17325SOL    HW253809   1.229   8.451   9.905
17326SOL     OW53810  11.030  12.529   2.668
17326SOL    HW153811  11.079  12.447   2.671
17326SOL    HW253812  11.093  12.596   2.695
17327SOL     OW53813   8.910  13.122  13.972
17327SOL    HW153814   8.987  13.165  13.936
17327SOL    HW253815   8.857  13.193  14.008
17328SOL     OW53816   7.983   8.151   6.563
17328SOL    HW153817   8.010   8.077   6.509
17328SOL    HW253818   7.923   8.200   6.507
17329SOL     OW53819   1.801   4.509   6.907
17329SOL    HW153820   1.775   4.456   6.982
17329SOL    HW253821   1.883   4.469   6.877
17330SOL     OW53822   0.941   5.138  14.525
17330SOL    HW153823   1.001   5.087  14.579
17330SOL    HW253824   0.912   5.209  14.581
17331SOL     OW53825  11.718   9.187   3.630
17331SOL    HW153826  11.763   9.227   3.704
17331SOL    HW253827  11.787   9.146   3.578
17332SOL     OW53828  11.698  14.848   3.009
17332SOL    HW153829  11.686  14.783   2.940
17332SOL    HW253830  11.649   0.052   2.979
17333SOL     OW53831  10.269   5.923  11.819
17333SOL    HW153832  10.248   6.009  11.855
17333SOL    HW253833  10.338   5.890  11.876
17334SOL     OW53834  14.863   5.514  12.564
17334SOL    HW153835  14.833   5.423  12.562
17334SOL    HW253836   0.077   5.512  12.522
17335SOL     OW53837   0.894   7.089   4.620
17335SOL    HW153838   0.830   7.150   4.657
17335SOL    HW253839   0.933   7.046   4.696
17336SOL     OW53840   6.026   5.549  11.045
17336SOL    HW153841   6.064   5.636  11.039
17336SOL    HW253842   5.982   5.535  10.962
17337SOL     OW53843  12.346  13.546   3.713
17337SOL    HW153844  12.356  13.594   3.795
17337SOL    HW253845  12.434  13.539   3.677
17338SOL     OW53846  14.284   1.616  13.664
17338SOL    HW153847  14.355   1.666  13.624
17338SOL    HW253848  14.234   1.680  13.714
17339SOL     OW53849   4.937   0.109  13.306
17339SOL    HW153850   5.032   0.107  13.316
17339SOL    HW253851   4.907   0.027  13.343
17340SOL     OW53852   0.395   4.360   1.272
17340SOL    HW153853   0.341   4.426   1.227
17340SOL    HW253854   0.443   4.410   1.338
17341SOL     OW53855  12.338   5.905  13.780
17341SOL    HW153856  12.359   5.813  13.765
17341SOL    HW253857  12.245   5.905  13.799
17342SOL     OW53858  14.085   5.053   8.733
17342SOL    HW153859  14.030   5.080   8.806
17342SOL    HW253860  14.096   5.132   8.680
17343SOL     OW53861  14.754   8.116   6.092
17343SOL    HW153862  14.708   8.054   6.149
17343SOL    HW253863  14.766   8.194   6.146
17344SOL     OW53864   5.184  11.414  12.233
17344SOL    HW153865   5.247  11.485  12.215
17344SOL    HW253866   5.220  11.338  12.188
17345SOL     OW53867   0.181   1.335  11.595
17345SOL    HW153868   0.086   1.326  11.588
17345SOL    HW253869   0.197   1.336  11.689
17346SOL     OW53870   5.634   8.602   4.250
17346SOL    HW153871   5.670   8.520   4.216
17346SOL    HW253872   5.543   8.602   4.220
17347SOL     OW53873  11.523   0.707   9.674
17347SOL    HW153874  11.429   0.707   9.691
17347SOL    HW253875  11.555   0.629   9.718
17348SOL     OW53876   7.691   4.155  14.156
17348SOL    HW153877   7.674   4.196  14.071
17348SOL    HW253878   7.702   4.062  14.137
17349SOL     OW53879   1.741   6.788   1.639
17349SOL    HW153880   1.677   6.859   1.644
17349SOL    HW253881   1.727   6.749   1.554
17350SOL     OW53882  10.281   5.318  14.299
17350SOL    HW153883  10.288   5.223  14.301
17350SOL    HW253884  10.369   5.349  14.324
17351SOL     OW53885  13.488   0.148  13.661
17351SOL    HW153886  13.477   0.186  13.749
17351SOL    HW253887  13.422   0.079  13.657
17352SOL     OW53888   7.191   2.426   1.601
17352SOL    HW153889   7.155   2.343   1.632
17352SOL    HW253890   7.282   2.425   1.631
17353SOL     OW53891   3.093   8.362   4.070
17353SOL    HW153892   3.121   8.451   4.093
17353SOL    HW253893   3.021   8.344   4.130
17354SOL     OW53894   1.504   2.275   5.976
17354SOL    HW153895   1.515   2.228   6.058
17354SOL    HW253896   1.568   2.236   5.916
17355SOL     OW53897  11.849   2.006   4.809
17355SOL    HW153898  11.781   1.979   4.747
17355SOL    HW253899  11.808   2.075   4.861
17356SOL     OW53900  13.543   5.411   7.203
17356SOL    HW153901  13.480   5.339   7.207
17356SOL    HW253902  13.625   5.373   7.235
17357SOL     OW53903   5.907   7.602   7.455
17357SOL    HW153904   5.842   7.546   7.413
17357SOL    HW253905   5.879   7.607   7.546
17358SOL     OW53906   0.075  12.662   5.287
17358SOL    HW153907   0.148  12.724   5.294
17358SOL    HW253908   0.022  12.695   5.214
17359SOL     OW53909  13.206   9.844   2.761
17359SOL    HW153910  13.279   9.804   2.714
17359SOL    HW253911  13.140   9.858   2.694
17360SOL     OW53912   3.863  11.852  14.556
17360SOL    HW153913   3.910  11.842  14.474
17360SOL    HW253914   3.776  11.816  14.538
17361SOL     OW53915   7.155   2.079  12.671
17361SOL    HW153916   7.107   2.125  12.602
17361SOL    HW253917   7.086   2.043  12.727
17362SOL     OW53918   9.642   8.140   3.102
17362SOL    HW153919   9.705   8.196   3.057
17362SOL    HW253920   9.603   8.196   3.169
17363SOL     OW53921   7.296  12.752  14.089
17363SOL    HW153922   7.341  12.704  14.019
17363SOL    HW253923   7.275  12.687  14.155
17364SOL     OW53924   0.868   1.582   5.933
17364SOL    HW153925   0.876   1.562   6.027
17364SOL    HW253926   0.869   1.677   5.928
17365SOL     OW53927   2.950  14.325  11.150
17365SOL    HW153928   2.868  14.351  11.194
17365SOL    HW253929   2.951  14.229  11.159
17366SOL     OW53930   1.833   6.901   8.733
17366SOL    HW153931   1.781   6.828   8.700
17366SOL    HW253932   1.902   6.913   8.668
17367SOL     OW53933   8.966   9.553   7.960
17367SOL    HW153934   8.899   9.504   8.008
17367SOL    HW253935   8.919   9.590   7.885
17368SOL     OW53936   0.346  13.909   7.730
17368SOL    HW153937   0.351  13.966   7.806
17368SOL    HW253938   0.343  13.820   7.767
17369SOL     OW53939   2.852  14.578   5.612
17369SOL    HW153940   2.802  14.660   5.622
17369SOL    HW253941   2.936  14.596   5.653
17370SOL     OW53942  10.163   6.044   6.802
17370SOL    HW153943  10.194   5.997   6.879
17370SOL    HW253944  10.204   6.130   6.808
17371SOL     OW53945   2.248   6.756   9.053
17371SOL    HW153946   2.162   6.792   9.031
17371SOL    HW253947   2.254   6.765   9.148
17372SOL     OW53948  14.330   9.393  10.609
17372SOL    HW153949  14.284   9.450  10.547
17372SOL    HW253950  14.263   9.364  10.670
17373SOL     OW53951  14.663   8.973  11.434
17373SOL    HW153952  14.617   9.004  11.512
17373SOL    HW253953  14.748   8.945  11.467
17374SOL     OW53954  10.942   8.223  13.592
17374SOL    HW153955  10.886   8.229  13.670
17374SOL    HW253956  10.928   8.134  13.559
17375SOL     OW53957  12.256  14.708   2.231
17375SOL    HW153958  12.228  14.616   2.239
17375SOL    HW253959  12.174  14.756   2.221
17376SOL     OW53960   6.721   6.576   5.522
17376SOL    HW153961   6.679   6.490   5.529
17376SOL    HW253962   6.709   6.616   5.608
17377SOL     OW53963   4.745   5.460  10.216
17377SOL    HW153964   4.787   5.543  10.192
17377SOL    HW253965   4.660   5.486  10.252
17378SOL     OW53966   4.999  13.608  12.855
17378SOL    HW153967   5.061  13.592  12.784
17378SOL    HW253968   4.913  13.601  12.814
17379SOL     OW53969   6.843  11.715   9.747
17379SOL    HW153970   6.835  11.624   9.775
17379SOL    HW253971   6.850  11.711   9.652
17380SOL     OW53972   1.091  10.609   3.447
17380SOL    HW153973   1.113  10.519   3.421
17380SOL    HW253974   1.125  10.617   3.536
17381SOL     OW53975  11.415   9.429   0.542
17381SOL    HW153976  11.468   9.350   0.529
17381SOL    HW253977  11.369   9.413   0.625
17382SOL     OW53978  13.936   0.886   3.621
17382SOL    HW153979  14.002   0.847   3.564
17382SOL    HW253980  13.986   0.928   3.691
17383SOL     OW53981   1.531   1.100   2.654
17383SOL    HW153982   1.571   1.018   2.681
17383SOL    HW253983   1.500   1.140   2.735
17384SOL     OW53984   4.795   9.671  11.083
17384SOL    HW153985   4.861   9.740  11.071
17384SOL    HW253986   4.825   9.599  11.027
17385SOL     OW53987   5.727  10.279   7.600
17385SOL    HW153988   5.761  10.294   7.688
17385SOL    HW253989   5.674  10.357   7.581
17386SOL     OW53990   4.212  13.900   2.632
17386SOL    HW153991   4.243  13.810   2.644
17386SOL    HW253992   4.218  13.915   2.537
17387SOL     OW53993   7.249   5.858   4.103
17387SOL    HW153994   7.253   5.765   4.125
17387SOL    HW253995   7.159   5.872   4.072
17388SOL     OW53996  14.641  13.290  13.623
17388SOL    HW153997  14.558  13.251  13.651
17388SOL    HW253998  14.650  13.262  13.532
17389SOL     OW53999  10.394   8.704   8.531
17389SOL    HW154000  10.303   8.731   8.526
17389SOL    HW254001  10.434   8.763   8.594
17390SOL     OW54002  13.400  11.933  14.596
17390SOL    HW154003  13.482  11.967  14.561
17390SOL    HW254004  13.347  11.912  14.519
17391SOL     OW54005   2.725   0.679  12.739
17391SOL    HW154006   2.702   0.590  12.714
17391SOL    HW254007   2.760   0.718  12.660
17392SOL     OW54008   5.081   2.335  14.632
17392SOL    HW154009   5.022   2.292  14.694
17392SOL    HW254010   5.036   2.416  14.607
17393SOL     OW54011   5.152   0.383   6.030
17393SOL    HW154012   5.069   0.369   5.984
17393SOL    HW254013   5.199   0.447   5.976
17394SOL     OW54014  11.969  11.593   7.568
17394SOL    HW154015  12.046  11.637   7.605
17394SOL    HW254016  11.975  11.503   7.602
17395SOL     OW54017   7.100  14.646  12.486
17395SOL    HW154018   7.189  14.615  12.470
17395SOL    HW254019   7.105  14.741  12.472
17396SOL     OW54020  13.562   1.122   1.911
17396SOL    HW154021  13.490   1.182   1.928
17396SOL    HW254022  13.544   1.047   1.968
17397SOL     OW54023  14.286   2.963  12.362
17397SOL    HW154024  14.272   3.028  12.292
17397SOL    HW254025  14.377   2.977  12.389
17398SOL     OW54026   7.965  14.850  14.660
17398SOL    HW154027   7.977  14.832  14.753
17398SOL    HW254028   8.006  14.777  14.615
17399SOL     OW54029  11.374   3.468   6.866
17399SOL    HW154030  11.311   3.493   6.934
17399SOL    HW254031  11.454   3.448   6.914
17400SOL     OW54032  14.502   7.522  10.588
17400SOL    HW154033  14.425   7.579  10.586
17400SOL    HW254034  14.573   7.579  10.617
17401SOL     OW54035   2.646  14.400  13.224
17401SOL    HW154036   2.608  14.328  13.274
17401SOL    HW254037   2.598  14.400  13.141
17402SOL     OW54038   8.407   3.511   1.036
17402SOL    HW154039   8.437   3.495   1.126
17402SOL    HW254040   8.346   3.584   1.043
17403SOL     OW54041  10.493  14.042   4.434
17403SOL    HW154042  10.491  13.980   4.361
17403SOL    HW254043  10.542  13.997   4.502
17404SOL     OW54044   1.314  14.499  11.991
17404SOL    HW154045   1.402  14.466  11.971
17404SOL    HW254046   1.317  14.592  11.967
17405SOL     OW54047  12.704   6.158   7.405
17405SOL    HW154048  12.678   6.068   7.422
17405SOL    HW254049  12.789   6.168   7.449
17406SOL     OW54050   8.220   5.412   4.305
17406SOL    HW154051   8.241   5.322   4.281
17406SOL    HW254052   8.143   5.434   4.253
17407SOL     OW54053   6.625   7.985   8.336
17407SOL    HW154054   6.655   7.894   8.347
17407SOL    HW254055   6.706   8.037   8.341
17408SOL     OW54056   7.857   5.568   9.387
17408SOL    HW154057   7.940   5.613   9.402
17408SOL    HW254058   7.874   5.476   9.408
17409SOL     OW54059  14.652   0.387   3.331
17409SOL    HW154060  14.737   0.430   3.324
17409SOL    HW254061  14.662   0.326   3.405
17410SOL     OW54062  11.262  10.335   7.489
17410SOL    HW154063  11.195  10.381   7.541
17410SOL    HW254064  11.229  10.246   7.482
17411SOL     OW54065   3.512   8.110   9.779
17411SOL    HW154066   3.566   8.031   9.773
17411SOL    HW254067   3.483   8.126   9.689
17412SOL     OW54068  11.464  12.276   3.934
17412SOL    HW154069  11.504  12.341   3.877
17412SOL    HW254070  11.464  12.317   4.021
17413SOL     OW54071  12.013   3.253   6.063
17413SOL    HW154072  12.075   3.234   5.992
17413SOL    HW254073  12.002   3.348   6.059
17414SOL     OW54074   8.922  13.973   6.172
17414SOL    HW154075   8.840  13.932   6.143
17414SOL    HW254076   8.960  14.010   6.093
17415SOL     OW54077   5.066   3.354   3.879
17415SOL    HW154078   5.061   3.449   3.895
17415SOL    HW254079   5.156   3.330   3.903
17416SOL     OW54080   4.818   6.059  13.879
17416SOL    HW154081   4.793   5.979  13.925
17416SOL    HW254082   4.748   6.073  13.815
17417SOL     OW54083   5.135   2.494   7.000
17417SOL    HW154084   5.058   2.451   7.038
17417SOL    HW254085   5.147   2.450   6.916
17418SOL     OW54086   5.586   1.853   1.856
17418SOL    HW154087   5.564   1.768   1.819
17418SOL    HW254088   5.559   1.916   1.789
17419SOL     OW54089   2.126   0.113  10.708
17419SOL    HW154090   2.148   0.201  10.677
17419SOL    HW254091   2.079   0.073  10.635
17420SOL     OW54092   0.963   3.625  10.121
17420SOL    HW154093   1.001   3.679  10.052
17420SOL    HW254094   0.954   3.684  10.196
17421SOL     OW54095   8.335   1.897  14.279
17421SOL    HW154096   8.413   1.850  14.249
17421SOL    HW254097   8.369   1.978  14.318
17422SOL     OW54098  12.286   2.769   1.884
17422SOL    HW154099  12.355   2.704   1.897
17422SOL    HW254100  12.313   2.843   1.939
17423SOL     OW54101   1.125   7.243   5.844
17423SOL    HW154102   1.114   7.201   5.929
17423SOL    HW254103   1.194   7.192   5.801
17424SOL     OW54104   0.600  14.732   2.177
17424SOL    HW154105   0.507  14.711   2.166
17424SOL    HW254106   0.645  14.659   2.134
17425SOL     OW54107   3.298  12.380   9.755
17425SOL    HW154108   3.381  12.343   9.787
17425SOL    HW254109   3.321  12.468   9.725
17426SOL     OW54110   8.730  14.248   3.747
17426SOL    HW154111   8.713  14.343   3.748
17426SOL    HW254112   8.727  14.225   3.654
17427SOL     OW54113  12.619  12.786   4.800
17427SOL    HW154114  12.687  12.800   4.734
17427SOL    HW254115  12.609  12.690   4.804
17428SOL     OW54116  13.543   7.084   2.442
17428SOL    HW154117  13.555   7.176   2.464
17428SOL    HW254118  13.619   7.040   2.481
17429SOL     OW54119  12.704   8.241  13.254
17429SOL    HW154120  12.714   8.178  13.183
17429SOL    HW254121  12.710   8.189  13.334
17430SOL     OW54122  13.851   7.912   0.686
17430SOL    HW154123  13.816   7.873   0.766
17430SOL    HW254124  13.906   7.984   0.716
17431SOL     OW54125  13.959  11.367   1.971
17431SOL    HW154126  13.989  11.369   2.062
17431SOL    HW254127  13.973  11.276   1.944
17432SOL     OW54128  13.532   2.056  13.683
17432SOL    HW154129  13.527   2.065  13.778
17432SOL    HW254130  13.601   1.990  13.669
17433SOL     OW54131  11.897   8.318  13.715
17433SOL    HW154132  11.841   8.396  13.710
17433SOL    HW254133  11.976   8.342  13.667
17434SOL     OW54134  11.568   5.106   6.199
17434SOL    HW154135  11.499   5.060   6.245
17434SOL    HW254136  11.640   5.043   6.193
17435SOL     OW54137  13.149   9.669   6.924
17435SOL    HW154138  13.087   9.732   6.888
17435SOL    HW254139  13.102   9.585   6.920
17436SOL     OW54140   9.111  10.820  11.762
17436SOL    HW154141   9.196  10.788  11.793
17436SOL    HW254142   9.047  10.777  11.819
17437SOL     OW54143   0.558   5.408  14.107
17437SOL    HW154144   0.650   5.399  14.132
17437SOL    HW254145   0.524   5.474  14.168
17438SOL     OW54146  12.591  10.374   2.299
17438SOL    HW154147  12.513  10.417   2.332
17438SOL    HW254148  12.563  10.332   2.218
17439SOL     OW54149   1.472   0.744  12.918
17439SOL    HW154150   1.523   0.663  12.926
17439SOL    HW254151   1.393   0.728  12.970
17440SOL     OW54152   9.787  12.769   7.164
17440SOL    HW154153   9.827  12.853   7.142
17440SOL    HW254154   9.815  12.752   7.254
17441SOL     OW54155  11.588   4.905   4.642
17441SOL    HW154156  11.552   4.840   4.582
17441SOL    HW254157  11.515   4.926   4.700
17442SOL     OW54158   1.533   9.339   2.675
17442SOL    HW154159   1.548   9.354   2.768
17442SOL    HW254160   1.591   9.266   2.652
17443SOL     OW54161  12.681   5.559   2.751
17443SOL    HW154162  12.770   5.588   2.736
17443SOL    HW254163  12.688   5.497   2.824
17444SOL     OW54164   0.446   7.226   2.240
17444SOL    HW154165   0.452   7.320   2.222
17444SOL    HW254166   0.482   7.184   2.162
17445SOL     OW54167  11.630   7.255   3.119
17445SOL    HW154168  11.722   7.277   3.104
17445SOL    HW254169  11.622   7.165   3.089
17446SOL     OW54170  13.854  10.842   5.315
17446SOL    HW154171  13.942  10.823   5.283
17446SOL    HW254172  13.855  10.815   5.407
17447SOL     OW54173   9.660   1.663   6.648
17447SOL    HW154174   9.729   1.688   6.587
17447SOL    HW254175   9.695   1.684   6.734
17448SOL     OW54176  12.525  10.821   1.604
17448SOL    HW154177  12.601  10.866   1.642
17448SOL    HW254178  12.549  10.806   1.513
17449SOL     OW54179  14.022   8.210   6.057
17449SOL    HW154180  14.107   8.172   6.080
17449SOL    HW254181  13.965   8.187   6.130
17450SOL     OW54182  10.142   5.864   1.425
17450SOL    HW154183  10.049   5.882   1.444
17450SOL    HW254184  10.148   5.867   1.330
17451SOL     OW54185   7.627   1.810   2.565
17451SOL    HW154186   7.545   1.835   2.607
17451SOL    HW254187   7.680   1.889   2.565
17452SOL     OW54188   9.750   8.505   9.266
17452SOL    HW154189   9.679   8.505   9.330
17452SOL    HW254190   9.793   8.420   9.277
17453SOL     OW54191  13.644   3.738   2.302
17453SOL    HW154192  13.601   3.661   2.264
17453SOL    HW254193  13.686   3.706   2.382
17454SOL     OW54194  12.826  12.771   4.986
17454SOL    HW154195  12.864  12.851   5.021
17454SOL    HW254196  12.751  12.800   4.934
17455SOL     OW54197  10.138   3.483   8.375
17455SOL    HW154198  10.096   3.538   8.442
17455SOL    HW254199  10.143   3.396   8.415
17456SOL     OW54200   9.690   5.550   9.284
17456SOL    HW154201   9.645   5.561   9.368
17456SOL    HW254202   9.704   5.456   9.276
17457SOL     OW54203   0.727   2.148   0.256
17457SOL    HW154204   0.667   2.104   0.316
17457SOL    HW254205   0.763   2.220   0.308
17458SOL     OW54206   3.601   3.901   1.251
17458SOL    HW154207   3.601   3.862   1.164
17458SOL    HW254208   3.642   3.987   1.238
17459SOL     OW54209  14.203   5.779   5.191
17459SOL    HW154210  14.159   5.708   5.239
17459SOL    HW254211  14.288   5.786   5.234
17460SOL     OW54212   5.134   0.221   4.796
17460SOL    HW154213   5.157   0.167   4.871
17460SOL    HW254214   5.216   0.263   4.771
17461SOL     OW54215   3.042   7.167   3.084
17461SOL    HW154216   2.995   7.092   3.120
17461SOL    HW254217   3.101   7.194   3.154
17462SOL     OW54218   8.988   3.694  14.041
17462SOL    HW154219   9.029   3.725  14.122
17462SOL    HW254220   8.961   3.604  14.061
17463SOL     OW54221   7.212   3.345   0.733
17463SOL    HW154222   7.124   3.357   0.769
17463SOL    HW254223   7.202   3.363   0.640
17464SOL     OW54224   6.096  12.318   1.591
17464SOL    HW154225   6.172  12.263   1.610
17464SOL    HW254226   6.107  12.394   1.649
17465SOL     OW54227   9.198  13.963  12.405
17465SOL    HW154228   9.121  13.997  12.450
17465SOL    HW254229   9.242  14.041  12.371
17466SOL     OW54230  13.989  12.123   9.158
17466SOL    HW154231  13.935  12.114   9.237
17466SOL    HW254232  14.068  12.072   9.177
17467SOL     OW54233  10.743  14.850  11.544
17467SOL    HW154234  10.682  14.861  11.617
17467SOL    HW254235  10.803   0.052  11.551
17468SOL     OW54236   2.741   0.978   3.952
17468SOL    HW154237   2.676   1.041   3.981
17468SOL    HW254238   2.692   0.896   3.941
17469SOL     OW54239   4.531   5.280  13.518
17469SOL    HW154240   4.507   5.208  13.459
17469SOL    HW254241   4.473   5.269  13.593
17470SOL     OW54242  13.154   1.360   6.274
17470SOL    HW154243  13.231   1.332   6.323
17470SOL    HW254244  13.189   1.400   6.195
17471SOL     OW54245  14.139   9.540   8.663
17471SOL    HW154246  14.160   9.452   8.630
17471SOL    HW254247  14.087   9.524   8.742
17472SOL     OW54248   8.259   9.504   7.674
17472SOL    HW154249   8.267   9.460   7.759
17472SOL    HW254250   8.167   9.529   7.668
17473SOL     OW54251   4.149   9.487   7.026
17473SOL    HW154252   4.233   9.442   7.038
17473SOL    HW254253   4.093   9.450   7.095
17474SOL     OW54254   1.188   7.809  10.331
17474SOL    HW154255   1.237   7.885  10.362
17474SOL    HW254256   1.165   7.762  10.410
17475SOL     OW54257  13.285   7.296  13.831
17475SOL    HW154258  13.357   7.244  13.867
17475SOL    HW254259  13.210   7.274  13.886
17476SOL     OW54260  10.620  10.134  14.793
17476SOL    HW154261  10.695  10.095  14.837
17476SOL    HW254262  10.547  10.124  14.854
17477SOL     OW54263   4.259   6.451   9.056
17477SOL    HW154264   4.288   6.523   9.000
17477SOL    HW254265   4.172   6.429   9.024
17478SOL     OW54266  11.476  11.228   9.592
17478SOL    HW154267  11.456  11.151   9.539
17478SOL    HW254268  11.425  11.215   9.672
17479SOL     OW54269   9.697  13.227  13.468
17479SOL    HW154270   9.782  13.260  13.441
17479SOL    HW254271   9.654  13.201  13.386
17480SOL     OW54272   0.361  12.776   2.004
17480SOL    HW154273   0.402  12.808   1.923
17480SOL    HW254274   0.435  12.749   2.058
17481SOL     OW54275  12.758   9.883  11.334
17481SOL    HW154276  12.680   9.936  11.347
17481SOL    HW254277  12.777   9.845  11.420
17482SOL     OW54278   4.631   4.461  13.434
17482SOL    HW154279   4.596   4.426  13.352
17482SOL    HW254280   4.704   4.402  13.455
17483SOL     OW54281  10.217   9.288  14.511
17483SOL    HW154282  10.243   9.197  14.495
17483SOL    HW254283  10.153   9.306  14.442
17484SOL     OW54284  14.175  12.740   5.486
17484SOL    HW154285  14.261  12.719   5.524
17484SOL    HW254286  14.147  12.819   5.533
17485SOL     OW54287  14.109   3.624  10.592
17485SOL    HW154288  14.032   3.571  10.611
17485SOL    HW254289  14.078   3.714  10.599
17486SOL     OW54290   3.065   9.933  12.771
17486SOL    HW154291   2.995   9.867  12.773
17486SOL    HW254292   3.023  10.013  12.803
17487SOL     OW54293  12.820   7.006   4.429
17487SOL    HW154294  12.762   7.075   4.397
17487SOL    HW254295  12.861   6.971   4.350
17488SOL     OW54296  11.351  12.468  11.573
17488SOL    HW154297  11.268  12.436  11.609
17488SOL    HW254298  11.407  12.482  11.650
17489SOL     OW54299   9.059   8.945  12.323
17489SOL    HW154300   9.108   8.890  12.384
17489SOL    HW254301   9.007   8.884  12.271
17490SOL     OW54302   4.250   2.671  13.808
17490SOL    HW154303   4.306   2.672  13.886
17490SOL    HW254304   4.293   2.732  13.747
17491SOL     OW54305  10.462   3.214   1.223
17491SOL    HW154306  10.452   3.297   1.175
17491SOL    HW254307  10.545   3.223   1.269
17492SOL     OW54308   9.122  14.572  12.169
17492SOL    HW154309   9.184  14.620  12.223
17492SOL    HW254310   9.176  14.529  12.103
17493SOL     OW54311  11.802  13.423   8.620
17493SOL    HW154312  11.808  13.469   8.703
17493SOL    HW254313  11.722  13.456   8.580
17494SOL     OW54314   2.347   5.568  13.976
17494SOL    HW154315   2.265   5.614  13.957
17494SOL    HW254316   2.402   5.587  13.900
17495SOL     OW54317   6.537   3.161   6.393
17495SOL    HW154318   6.600   3.096   6.423
17495SOL    HW254319   6.515   3.134   6.304
17496SOL     OW54320  10.088   7.353   7.835
17496SOL    HW154321  10.058   7.439   7.807
17496SOL    HW254322  10.072   7.296   7.759
17497SOL     OW54323   0.034  10.836  14.514
17497SOL    HW154324  14.845  10.796  14.452
17497SOL    HW254325  14.855  10.901  14.561
17498SOL     OW54326  10.008   4.696  14.715
17498SOL    HW154327   9.998   4.692  14.620
17498SOL    HW254328  10.075   4.631  14.735
17499SOL     OW54329  11.877   3.721  14.028
17499SOL    HW154330  11.922   3.659  13.971
17499SOL    HW254331  11.924   3.716  14.111
17500SOL     OW54332  11.346   2.402   0.672
17500SOL    HW154333  11.296   2.479   0.696
17500SOL    HW254334  11.289   2.328   0.692
17501SOL     OW54335  10.568  14.139  14.178
17501SOL    HW154336  10.557  14.104  14.266
17501SOL    HW254337  10.659  14.166  14.174
17502SOL     OW54338  13.374   6.107   9.693
17502SOL    HW154339  13.438   6.036   9.697
17502SOL    HW254340  13.289   6.063   9.704
17503SOL     OW54341   7.110   6.198   7.326
17503SOL    HW154342   7.054   6.272   7.348
17503SOL    HW254343   7.132   6.159   7.411
17504SOL     OW54344  10.494   2.371  14.262
17504SOL    HW154345  10.527   2.423  14.335
17504SOL    HW254346  10.468   2.437  14.197
17505SOL     OW54347  14.639  10.371   5.364
17505SOL    HW154348  14.693  10.449   5.351
17505SOL    HW254349  14.686  10.321   5.432
17506SOL     OW54350   7.412   5.493   3.105
17506SOL    HW154351   7.364   5.460   3.029
17506SOL    HW254352   7.448   5.415   3.147
17507SOL     OW54353   0.280  12.650   3.427
17507SOL    HW154354   0.329  12.652   3.345
17507SOL    HW254355   0.214  12.582   3.415
17508SOL     OW54356  10.563   6.812   0.446
17508SOL    HW154357  10.594   6.737   0.395
17508SOL    HW254358  10.551   6.777   0.535
17509SOL     OW54359   6.706   9.016  14.259
17509SOL    HW154360   6.618   8.987  14.236
17509SOL    HW254361   6.728   8.967  14.339
17510SOL     OW54362   9.956  13.670   9.541
17510SOL    HW154363  10.044  13.697   9.568
17510SOL    HW254364   9.912  13.645   9.622
17511SOL     OW54365  13.603  13.211   9.957
17511SOL    HW154366  13.664  13.146   9.992
17511SOL    HW254367  13.516  13.177   9.980
17512SOL     OW54368   9.040   0.948   4.851
17512SOL    HW154369   8.956   0.950   4.805
17512SOL    HW254370   9.058   0.855   4.866
17513SOL     OW54371   1.653  12.298  12.656
17513SOL    HW154372   1.658  12.255  12.741
17513SOL    HW254373   1.618  12.385  12.676
17514SOL     OW54374   3.524   0.989  13.911
17514SOL    HW154375   3.588   0.997  13.841
17514SOL    HW254376   3.514   0.894  13.923
17515SOL     OW54377   8.411   0.411   8.772
17515SOL    HW154378   8.343   0.392   8.836
17515SOL    HW254379   8.364   0.422   8.689
17516SOL     OW54380   0.903   8.111   7.661
17516SOL    HW154381   0.810   8.134   7.672
17516SOL    HW254382   0.907   8.067   7.576
17517SOL     OW54383   3.794   9.685   4.240
17517SOL    HW154384   3.820   9.602   4.280
17517SOL    HW254385   3.830   9.681   4.151
17518SOL     OW54386  10.223   0.222   6.305
17518SOL    HW154387  10.190   0.311   6.303
17518SOL    HW254388  10.238   0.203   6.398
17519SOL     OW54389   0.728   6.470   8.070
17519SOL    HW154390   0.757   6.548   8.023
17519SOL    HW254391   0.797   6.405   8.052
17520SOL     OW54392  11.146   3.748  12.907
17520SOL    HW154393  11.058   3.785  12.915
17520SOL    HW254394  11.170   3.724  12.997
17521SOL     OW54395   3.022   0.727   5.173
17521SOL    HW154396   3.063   0.783   5.239
17521SOL    HW254397   2.944   0.775   5.145
17522SOL     OW54398   9.041   2.980   1.149
17522SOL    HW154399   9.116   3.023   1.191
17522SOL    HW254400   9.009   2.918   1.214
17523SOL     OW54401  10.660   7.131   3.447
17523SOL    HW154402  10.647   7.191   3.521
17523SOL    HW254403  10.744   7.157   3.410
17524SOL     OW54404   7.974   8.619  12.669
17524SOL    HW154405   7.935   8.539  12.633
17524SOL    HW254406   8.019   8.660  12.595
17525SOL     OW54407   7.067  10.604   3.761
17525SOL    HW154408   6.989  10.561   3.796
17525SOL    HW254409   7.131  10.598   3.832
17526SOL     OW54410   2.600   2.838   4.409
17526SOL    HW154411   2.562   2.824   4.322
17526SOL    HW254412   2.567   2.923   4.436
17527SOL     OW54413   6.758   7.878   0.268
17527SOL    HW154414   6.719   7.899   0.183
17527SOL    HW254415   6.839   7.929   0.271
17528SOL     OW54416   3.747   6.856  10.595
17528SOL    HW154417   3.773   6.870  10.504
17528SOL    HW254418   3.655   6.882  10.598
17529SOL     OW54419   7.428  13.385   5.398
17529SOL    HW154420   7.397  13.463   5.443
17529SOL    HW254421   7.430  13.409   5.305
17530SOL     OW54422   5.305  10.183  14.807
17530SOL    HW154423   5.315  10.220   0.022
17530SOL    HW254424   5.251  10.105  14.820
17531SOL     OW54425  12.242   4.734   0.551
17531SOL    HW154426  12.286   4.802   0.602
17531SOL    HW254427  12.154   4.728   0.588
17532SOL     OW54428  10.748  10.463   4.099
17532SOL    HW154429  10.673  10.420   4.059
17532SOL    HW254430  10.781  10.521   4.031
17533SOL     OW54431  10.176   2.529   1.239
17533SOL    HW154432  10.263   2.513   1.202
17533SOL    HW254433  10.169   2.624   1.245
17534SOL     OW54434   0.780   6.648   8.570
17534SOL    HW154435   0.757   6.558   8.546
17534SOL    HW254436   0.707   6.701   8.539
17535SOL     OW54437  11.580   6.998   1.920
17535SOL    HW154438  11.634   7.024   1.994
17535SOL    HW254439  11.530   6.923   1.951
17536SOL     OW54440  13.086  13.915   0.428
17536SOL    HW154441  13.107  13.827   0.397
17536SOL    HW254442  13.137  13.973   0.372
17537SOL     OW54443   9.757   8.319   9.659
17537SOL    HW154444   9.779   8.259   9.731
17537SOL    HW254445   9.814   8.394   9.672
17538SOL     OW54446  13.919  11.755   5.538
17538SOL    HW154447  13.984  11.814   5.578
17538SOL    HW254448  13.851  11.746   5.604
17539SOL     OW54449   0.014   7.948   2.775
17539SOL    HW154450   0.022   7.866   2.825
17539SOL    HW254451  14.866   7.920   2.686
17540SOL     OW54452   5.599   9.726   6.086
17540SOL    HW154453   5.626   9.741   5.995
17540SOL    HW254454   5.573   9.634   6.088
17541SOL     OW54455   1.705   0.320  12.072
17541SOL    HW154456   1.625   0.367  12.048
17541SOL    HW254457   1.679   0.228  12.073
17542SOL     OW54458   3.902   6.199   3.653
17542SOL    HW154459   3.932   6.286   3.679
17542SOL    HW254460   3.818   6.188   3.697
17543SOL     OW54461   0.782   3.309   0.934
17543SOL    HW154462   0.866   3.300   0.979
17543SOL    HW254463   0.765   3.222   0.898
17544SOL     OW54464   5.457   4.947  14.519
17544SOL    HW154465   5.481   4.959  14.611
17544SOL    HW254466   5.529   4.989  14.471
17545SOL     OW54467   7.480  11.153  10.052
17545SOL    HW154468   7.431  11.173  10.132
17545SOL    HW254469   7.498  11.238  10.013
17546SOL     OW54470   8.586   5.226  11.178
17546SOL    HW154471   8.525   5.286  11.219
17546SOL    HW254472   8.577   5.145  11.229
17547SOL     OW54473  13.708   2.015  11.149
17547SOL    HW154474  13.689   1.999  11.241
17547SOL    HW254475  13.795   1.978  11.135
17548SOL     OW54476  13.163  11.718  14.424
17548SOL    HW154477  13.115  11.635  14.429
17548SOL    HW254478  13.182  11.728  14.331
17549SOL     OW54479   5.243  11.128  12.166
17549SOL    HW154480   5.190  11.088  12.097
17549SOL    HW254481   5.262  11.056  12.227
17550SOL     OW54482   2.499  13.681   7.041
17550SOL    HW154483   2.562  13.619   7.004
17550SOL    HW254484   2.419  13.668   6.990
17551SOL     OW54485  14.379   8.484   8.183
17551SOL    HW154486  14.371   8.486   8.087
17551SOL    HW254487  14.291   8.466   8.214
17552SOL     OW54488  11.878   4.133  14.534
17552SOL    HW154489  11.948   4.125  14.598
17552SOL    HW254490  11.914   4.096  14.453
17553SOL     OW54491  13.275  13.928   6.655
17553SOL    HW154492  13.290  14.021   6.638
17553SOL    HW254493  13.313  13.884   6.579
17554SOL     OW54494   2.200   3.115  13.563
17554SOL    HW154495   2.233   3.203  13.584
17554SOL    HW254496   2.139   3.130  13.490
17555SOL     OW54497  13.649   3.372   0.539
17555SOL    HW154498  13.719   3.326   0.493
17555SOL    HW254499  13.586   3.395   0.470
17556SOL     OW54500   5.920  14.537   3.320
17556SOL    HW154501   6.002  14.570   3.283
17556SOL    HW254502   5.885  14.480   3.251
17557SOL     OW54503  12.558  13.757   5.955
17557SOL    HW154504  12.578  13.850   5.953
17557SOL    HW254505  12.597  13.721   5.875
17558SOL     OW54506   7.352   1.621  14.380
17558SOL    HW154507   7.400   1.567  14.443
17558SOL    HW254508   7.318   1.694  14.431
17559SOL     OW54509   3.432   8.345   7.094
17559SOL    HW154510   3.496   8.365   7.026
17559SOL    HW254511   3.483   8.348   7.176
17560SOL     OW54512  10.698   3.119   5.280
17560SOL    HW154513  10.792   3.132   5.278
17560SOL    HW254514  10.663   3.202   5.312
17561SOL     OW54515   8.800   4.211   7.923
17561SOL    HW154516   8.774   4.225   7.832
17561SOL    HW254517   8.804   4.299   7.961
17562SOL     OW54518  13.811   9.614  12.365
17562SOL    HW154519  13.808   9.534  12.418
17562SOL    HW254520  13.888   9.661  12.398
17563SOL     OW54521   7.794  12.361   1.747
17563SOL    HW154522   7.760  12.280   1.710
17563SOL    HW254523   7.717  12.418   1.753
17564SOL     OW54524   0.005   4.578   8.916
17564SOL    HW154525   0.024   4.637   8.844
17564SOL    HW254526   0.090   4.544   8.943
17565SOL     OW54527   8.992  11.692   2.084
17565SOL    HW154528   9.081  11.714   2.056
17565SOL    HW254529   8.937  11.758   2.042
17566SOL     OW54530  12.890  11.301   1.579
17566SOL    HW154531  12.828  11.348   1.635
17566SOL    HW254532  12.965  11.283   1.636
17567SOL     OW54533  11.269  14.050   2.354
17567SOL    HW154534  11.269  14.138   2.391
17567SOL    HW254535  11.302  13.994   2.425
17568SOL     OW54536   6.533  11.900  12.545
17568SOL    HW154537   6.584  11.856  12.477
17568SOL    HW254538   6.482  11.831  12.585
17569SOL     OW54539  14.279   0.803   1.713
17569SOL    HW154540  14.288   0.754   1.631
17569SOL    HW254541  14.266   0.735   1.780
17570SOL     OW54542   7.615   3.931  12.791
17570SOL    HW154543   7.561   3.922  12.713
17570SOL    HW254544   7.685   3.992  12.765
17571SOL     OW54545  10.291   1.088   9.927
17571SOL    HW154546  10.362   1.151   9.913
17571SOL    HW254547  10.334   1.010   9.963
17572SOL     OW54548   8.882   2.510  13.438
17572SOL    HW154549   8.921   2.438  13.389
17572SOL    HW254550   8.884   2.585  13.379
17573SOL     OW54551   8.001   5.413  13.297
17573SOL    HW154552   8.013   5.447  13.208
17573SOL    HW254553   7.933   5.347  13.289
17574SOL     OW54554  11.885  14.422   0.736
17574SOL    HW154555  11.920  14.387   0.818
17574SOL    HW254556  11.918  14.362   0.669
17575SOL     OW54557  13.816  13.865   7.306
17575SOL    HW154558  13.723  13.845   7.320
17575SOL    HW254559  13.825  13.873   7.211
17576SOL     OW54560  10.117   3.912  13.836
17576SOL    HW154561  10.159   3.830  13.809
17576SOL    HW254562  10.106   3.961  13.755
17577SOL     OW54563   2.698   2.015   1.044
17577SOL    HW154564   2.673   1.978   1.129
17577SOL    HW254565   2.630   1.983   0.984
17578SOL     OW54566  14.361  13.647  10.512
17578SOL    HW154567  14.301  13.583  10.473
17578SOL    HW254568  14.339  13.730  10.469
17579SOL     OW54569   1.052  10.870   7.519
17579SOL    HW154570   1.022  10.932   7.585
17579SOL    HW254571   1.023  10.784   7.552
17580SOL     OW54572  11.215   9.465   9.339
17580SOL    HW154573  11.125   9.472   9.308
17580SOL    HW254574  11.231   9.547   9.386
17581SOL     OW54575  12.045  11.080  10.051
17581SOL    HW154576  12.110  11.102   9.984
17581SOL    HW254577  11.984  11.154  10.051
17582SOL     OW54578   5.208   9.594   5.625
17582SOL    HW154579   5.152   9.665   5.594
17582SOL    HW254580   5.239   9.623   5.711
17583SOL     OW54581   8.538   2.660   5.822
17583SOL    HW154582   8.546   2.650   5.917
17583SOL    HW254583   8.455   2.619   5.800
17584SOL     OW54584  10.827   3.125   7.674
17584SOL    HW154585  10.785   3.042   7.652
17584SOL    HW254586  10.817   3.133   7.769
17585SOL     OW54587  14.815   2.281   1.167
17585SOL    HW154588   0.032   2.314   1.175
17585SOL    HW254589  14.826   2.193   1.130
17586SOL     OW54590   5.611  14.835   6.309
17586SOL    HW154591   5.695  14.862   6.345
17586SOL    HW254592   5.565  14.796   6.383
17587SOL     OW54593  13.784   0.548   8.817
17587SOL    HW154594  13.722   0.621   8.817
17587SOL    HW254595  13.823   0.550   8.904
17588SOL     OW54596   1.387   4.993   1.941
17588SOL    HW154597   1.482   4.981   1.934
17588SOL    HW254598   1.375   5.088   1.940
17589SOL     OW54599  13.849  10.633  11.146
17589SOL    HW154600  13.757  10.621  11.172
17589SOL    HW254601  13.894  10.658  11.227
17590SOL     OW54602   3.187  13.579   8.484
17590SOL    HW154603   3.151  13.490   8.484
17590SOL    HW254604   3.122  13.630   8.533
17591SOL     OW54605   7.422   1.070   5.574
17591SOL    HW154606   7.391   1.137   5.514
17591SOL    HW254607   7.514   1.090   5.589
17592SOL     OW54608  14.561   4.066  10.625
17592SOL    HW154609  14.487   4.127  10.622
17592SOL    HW254610  14.607   4.081  10.542
17593SOL     OW54611  11.790  10.916   8.655
17593SOL    HW154612  11.776  11.006   8.624
17593SOL    HW254613  11.703  10.884   8.676
17594SOL     OW54614  11.755  11.768  14.074
17594SOL    HW154615  11.804  11.691  14.043
17594SOL    HW254616  11.733  11.816  13.995
17595SOL     OW54617  12.621   6.812   8.551
17595SOL    HW154618  12.537   6.857   8.553
17595SOL    HW254619  12.628   6.778   8.462
17596SOL     OW54620   3.825   4.779   0.920
17596SOL    HW154621   3.791   4.765   1.009
17596SOL    HW254622   3.914   4.745   0.922
17597SOL     OW54623  13.054  10.549  13.669
17597SOL    HW154624  13.141  10.588  13.671
17597SOL    HW254625  13.008  10.597  13.600
17598SOL     OW54626   0.750   1.924   4.931
17598SOL    HW154627   0.702   1.970   4.863
17598SOL    HW254628   0.733   1.831   4.914
17599SOL     OW54629   1.047  10.675  11.028
17599SOL    HW154630   1.039  10.644  10.938
17599SOL    HW254631   1.068  10.768  11.020
17600SOL     OW54632   5.772  12.890   3.487
17600SOL    HW154633   5.742  12.979   3.500
17600SOL    HW254634   5.866  12.898   3.470
17601SOL     OW54635   6.248  14.263  13.593
17601SOL    HW154636   6.179  14.329  13.589
17601SOL    HW254637   6.205  14.184  13.627
17602SOL     OW54638   7.227   3.840   6.336
17602SOL    HW154639   7.203   3.794   6.416
17602SOL    HW254640   7.291   3.906   6.364
17603SOL     OW54641   4.793   1.063  10.818
17603SOL    HW154642   4.886   1.085  10.806
17603SOL    HW254643   4.793   0.970  10.841
17604SOL     OW54644   5.910   1.642  14.034
17604SOL    HW154645   5.975   1.677  14.095
17604SOL    HW254646   5.912   1.702  13.960
17605SOL     OW54647   5.097   0.545  10.883
17605SOL    HW154648   5.156   0.611  10.847
17605SOL    HW254649   5.135   0.523  10.968
17606SOL     OW54650  11.306  13.768   7.374
17606SOL    HW154651  11.337  13.744   7.461
17606SOL    HW254652  11.277  13.686   7.335
17607SOL     OW54653   2.156   1.604   1.762
17607SOL    HW154654   2.112   1.640   1.838
17607SOL    HW254655   2.197   1.680   1.720
17608SOL     OW54656  13.413   3.957   9.781
17608SOL    HW154657  13.411   4.052   9.772
17608SOL    HW254658  13.393   3.941   9.873
17609SOL     OW54659  13.607   0.028   4.352
17609SOL    HW154660  13.637  14.852   4.428
17609SOL    HW254661  13.528   0.073   4.382
17610SOL     OW54662   6.969   4.209   7.697
17610SOL    HW154663   6.982   4.253   7.781
17610SOL    HW254664   6.932   4.277   7.641
17611SOL     OW54665  12.449   6.875   4.630
17611SOL    HW154666  12.473   6.967   4.638
17611SOL    HW254667  12.527   6.832   4.597
17612SOL     OW54668   1.406   2.721  12.804
17612SOL    HW154669   1.416   2.786  12.733
17612SOL    HW254670   1.312   2.721  12.823
17613SOL     OW54671   1.021   1.771   4.923
17613SOL    HW154672   0.974   1.703   4.972
17613SOL    HW254673   0.960   1.844   4.918
17614SOL     OW54674  10.584  10.535  14.232
17614SOL    HW154675  10.630  10.486  14.164
17614SOL    HW254676  10.643  10.531  14.307
17615SOL     OW54677  11.207   3.957   5.398
17615SOL    HW154678  11.276   3.893   5.384
17615SOL    HW254679  11.167   3.933   5.481
17616SOL     OW54680   0.578  10.119   0.866
17616SOL    HW154681   0.541  10.097   0.780
17616SOL    HW254682   0.543  10.051   0.924
17617SOL     OW54683  11.361   3.185   8.233
17617SOL    HW154684  11.377   3.183   8.327
17617SOL    HW254685  11.272   3.218   8.224
17618SOL     OW54686   4.255   7.809   7.865
17618SOL    HW154687   4.333   7.843   7.821
17618SOL    HW254688   4.203   7.770   7.794
17619SOL     OW54689   4.775  13.678  12.212
17619SOL    HW154690   4.695  13.693  12.262
17619SOL    HW254691   4.746  13.625  12.137
17620SOL     OW54692  10.418  11.294  14.771
17620SOL    HW154693  10.410  11.224  14.835
17620SOL    HW254694  10.490  11.267  14.714
17621SOL     OW54695   8.597   2.050  13.998
17621SOL    HW154696   8.572   2.108  14.070
17621SOL    HW254697   8.555   1.967  14.019
17622SOL     OW54698  14.486  12.649   8.027
17622SOL    HW154699  14.512  12.592   8.100
17622SOL    HW254700  14.477  12.735   8.067
17623SOL     OW54701  13.439   8.499   8.075
17623SOL    HW154702  13.413   8.439   8.005
17623SOL    HW254703  13.526   8.530   8.049
17624SOL     OW54704  11.067  10.355   4.065
17624SOL    HW154705  11.109  10.279   4.026
17624SOL    HW254706  10.980  10.358   4.024
17625SOL     OW54707  13.073   9.774   9.983
17625SOL    HW154708  12.987   9.806  10.010
17625SOL    HW254709  13.134   9.815  10.043
17626SOL     OW54710   9.022   4.561   6.376
17626SOL    HW154711   9.016   4.635   6.435
17626SOL    HW254712   8.941   4.512   6.390
17627SOL     OW54713  14.254  12.507  13.381
17627SOL    HW154714  14.200  12.529  13.305
17627SOL    HW254715  14.192  12.502  13.453
17628SOL     OW54716   1.974   6.545   4.735
17628SOL    HW154717   2.021   6.465   4.711
17628SOL    HW254718   2.035   6.591   4.793
17629SOL     OW54719   9.337  12.257   8.284
17629SOL    HW154720   9.352  12.343   8.323
17629SOL    HW254721   9.387  12.257   8.203
17630SOL     OW54722  10.267   7.761   7.271
17630SOL    HW154723  10.303   7.839   7.313
17630SOL    HW254724  10.244   7.789   7.183
17631SOL     OW54725  12.607  11.630  10.229
17631SOL    HW154726  12.526  11.626  10.279
17631SOL    HW254727  12.657  11.553  10.257
17632SOL     OW54728   2.791  12.244  11.801
17632SOL    HW154729   2.845  12.284  11.869
17632SOL    HW254730   2.854  12.214  11.736
17633SOL     OW54731   0.499   7.839  11.793
17633SOL    HW154732   0.482   7.913  11.734
17633SOL    HW254733   0.437   7.851  11.865
17634SOL     OW54734   3.383   0.171  11.499
17634SOL    HW154735   3.374   0.132  11.413
17634SOL    HW254736   3.296   0.202  11.521
17635SOL     OW54737   8.924   9.776   4.679
17635SOL    HW154738   8.904   9.711   4.612
17635SOL    HW254739   8.936   9.726   4.759
17636SOL     OW54740   1.197  14.095   3.018
17636SOL    HW154741   1.179  14.007   2.986
17636SOL    HW254742   1.256  14.081   3.092
17637SOL     OW54743   6.884  11.159  14.614
17637SOL    HW154744   6.951  11.202  14.667
17637SOL    HW254745   6.806  11.157  14.669
17638SOL     OW54746   3.404  11.220  11.769
17638SOL    HW154747   3.431  11.312  11.768
17638SOL    HW254748   3.309  11.222  11.756
17639SOL     OW54749  14.003   2.385  12.387
17639SOL    HW154750  14.095   2.371  12.407
17639SOL    HW254751  13.964   2.413  12.470
17640SOL     OW54752   1.624   9.906   2.223
17640SOL    HW154753   1.620   9.876   2.314
17640SOL    HW254754   1.691   9.851   2.182
17641SOL     OW54755  14.177   5.767   9.163
17641SOL    HW154756  14.197   5.843   9.217
17641SOL    HW254757  14.085   5.779   9.138
17642SOL     OW54758   4.162   1.219   8.260
17642SOL    HW154759   4.156   1.125   8.276
17642SOL    HW254760   4.145   1.259   8.345
17643SOL     OW54761  11.269   9.993   0.862
17643SOL    HW154762  11.277   9.906   0.901
17643SOL    HW254763  11.355  10.009   0.822
17644SOL     OW54764   6.815   1.275   0.784
17644SOL    HW154765   6.824   1.313   0.871
17644SOL    HW254766   6.721   1.279   0.765
17645SOL     OW54767   2.105  12.906   5.422
17645SOL    HW154768   2.021  12.884   5.383
17645SOL    HW254769   2.169  12.853   5.373
17646SOL     OW54770   4.315  12.325   8.380
17646SOL    HW154771   4.407  12.304   8.369
17646SOL    HW254772   4.270  12.271   8.314
17647SOL     OW54773   3.298   5.532  10.682
17647SOL    HW154774   3.269   5.598  10.618
17647SOL    HW254775   3.374   5.491  10.641
17648SOL     OW54776  11.035   9.002   1.375
17648SOL    HW154777  11.019   9.057   1.451
17648SOL    HW254778  10.990   8.920   1.394
17649SOL     OW54779   8.607   2.584  13.196
17649SOL    HW154780   8.696   2.617  13.208
17649SOL    HW254781   8.552   2.644  13.246
17650SOL     OW54782  11.554   2.659  13.197
17650SOL    HW154783  11.509   2.719  13.138
17650SOL    HW254784  11.520   2.679  13.284
17651SOL     OW54785   5.953   9.506   3.553
17651SOL    HW154786   6.003   9.506   3.472
17651SOL    HW254787   5.996   9.572   3.608
17652SOL     OW54788   0.227  12.423   9.796
17652SOL    HW154789   0.317  12.404   9.769
17652SOL    HW254790   0.230  12.425   9.892
17653SOL     OW54791   1.755   9.517   7.424
17653SOL    HW154792   1.822   9.586   7.419
17653SOL    HW254793   1.789   9.456   7.489
17654SOL     OW54794   3.971  12.252   8.594
17654SOL    HW154795   3.898  12.280   8.650
17654SOL    HW254796   4.043  12.310   8.619
17655SOL     OW54797   5.942   0.864  10.113
17655SOL    HW154798   6.023   0.817  10.094
17655SOL    HW254799   5.971   0.950  10.146
17656SOL     OW54800   3.432  12.720  11.084
17656SOL    HW154801   3.339  12.721  11.109
17656SOL    HW254802   3.447  12.633  11.049
17657SOL     OW54803  11.058  14.226   9.208
17657SOL    HW154804  11.103  14.305   9.177
17657SOL    HW254805  11.127  14.173   9.246
17658SOL     OW54806   9.186  10.509   2.710
17658SOL    HW154807   9.238  10.445   2.662
17658SOL    HW254808   9.145  10.562   2.642
17659SOL     OW54809   3.703   7.340  14.479
17659SOL    HW154810   3.696   7.245  14.467
17659SOL    HW254811   3.796   7.356  14.496
17660SOL     OW54812   0.953   4.143   3.228
17660SOL    HW154813   0.935   4.077   3.295
17660SOL    HW254814   1.049   4.148   3.225
17661SOL     OW54815  11.249   2.505   9.598
17661SOL    HW154816  11.182   2.444   9.566
17661SOL    HW254817  11.295   2.455   9.666
17662SOL     OW54818   8.002   6.605   2.629
17662SOL    HW154819   8.009   6.656   2.710
17662SOL    HW254820   8.083   6.624   2.582
17663SOL     OW54821   0.438   8.871   6.864
17663SOL    HW154822   0.476   8.889   6.778
17663SOL    HW254823   0.388   8.950   6.885
17664SOL     OW54824  10.521   3.890   3.865
17664SOL    HW154825  10.555   3.818   3.810
17664SOL    HW254826  10.426   3.887   3.852
17665SOL     OW54827   0.721  10.830   2.894
17665SOL    HW154828   0.789  10.779   2.849
17665SOL    HW254829   0.691  10.772   2.964
17666SOL     OW54830   4.269  10.939   1.327
17666SOL    HW154831   4.331  10.874   1.362
17666SOL    HW254832   4.286  10.940   1.233
17667SOL     OW54833   0.292  13.058  11.117
17667SOL    HW154834   0.278  13.104  11.035
17667SOL    HW254835   0.247  13.111  11.183
17668SOL     OW54836   7.646   3.281   8.873
17668SOL    HW154837   7.597   3.249   8.798
17668SOL    HW254838   7.580   3.319   8.931
17669SOL     OW54839   6.752  13.337   5.215
17669SOL    HW154840   6.823  13.363   5.273
17669SOL    HW254841   6.736  13.245   5.237
17670SOL     OW54842   4.363   2.932  10.996
17670SOL    HW154843   4.393   2.958  10.909
17670SOL    HW254844   4.441   2.935  11.051
17671SOL     OW54845   2.542   9.126  14.812
17671SOL    HW154846   2.464   9.173  14.783
17671SOL    HW254847   2.543   9.046  14.760
17672SOL     OW54848   9.037  11.577   6.862
17672SOL    HW154849   9.109  11.522   6.834
17672SOL    HW254850   9.017  11.548   6.951
17673SOL     OW54851   3.649   1.999   6.648
17673SOL    HW154852   3.704   2.040   6.581
17673SOL    HW254853   3.706   1.995   6.725
17674SOL     OW54854  14.347   5.771   4.322
17674SOL    HW154855  14.258   5.807   4.330
17674SOL    HW254856  14.380   5.770   4.412
17675SOL     OW54857  14.274   7.700   0.669
17675SOL    HW154858  14.299   7.609   0.688
17675SOL    HW254859  14.257   7.700   0.575
17676SOL     OW54860   3.519   8.515   5.365
17676SOL    HW154861   3.442   8.559   5.400
17676SOL    HW254862   3.560   8.474   5.442
17677SOL     OW54863   5.830   9.310  13.274
17677SOL    HW154864   5.874   9.353  13.347
17677SOL    HW254865   5.806   9.224  13.308
17678SOL     OW54866  13.860  12.818   3.552
17678SOL    HW154867  13.791  12.797   3.489
17678SOL    HW254868  13.938  12.832   3.498
17679SOL     OW54869  12.809   7.283   9.388
17679SOL    HW154870  12.746   7.353   9.405
17679SOL    HW254871  12.840   7.257   9.475
17680SOL     OW54872   8.417  14.226   0.999
17680SOL    HW154873   8.445  14.143   0.961
17680SOL    HW254874   8.498  14.274   1.013
17681SOL     OW54875   1.534  11.199   0.081
17681SOL    HW154876   1.496  11.114   0.058
17681SOL    HW254877   1.617  11.177   0.125
17682SOL     OW54878   7.888   1.912   0.160
17682SOL    HW154879   7.850   1.844   0.105
17682SOL    HW254880   7.969   1.873   0.193
17683SOL     OW54881  12.523   6.757  10.909
17683SOL    HW154882  12.604   6.806  10.922
17683SOL    HW254883  12.538   6.673  10.953
17684SOL     OW54884   7.407   0.394  12.597
17684SOL    HW154885   7.496   0.414  12.567
17684SOL    HW254886   7.396   0.301  12.581
17685SOL     OW54887   1.859  13.746  10.453
17685SOL    HW154888   1.843  13.837  10.482
17685SOL    HW254889   1.832  13.745  10.361
17686SOL     OW54890  12.221   0.897   2.219
17686SOL    HW154891  12.224   0.848   2.137
17686SOL    HW254892  12.287   0.966   2.208
17687SOL     OW54893  10.290   8.941   5.156
17687SOL    HW154894  10.201   8.924   5.126
17687SOL    HW254895  10.283   8.943   5.252
17688SOL     OW54896  10.539   5.888   3.491
17688SOL    HW154897  10.495   5.830   3.554
17688SOL    HW254898  10.516   5.852   3.406
17689SOL     OW54899   8.155  13.948  12.588
17689SOL    HW154900   8.238  13.996  12.585
17689SOL    HW254901   8.102  13.987  12.519
17690SOL     OW54902   0.098  11.964   0.755
17690SOL    HW154903   0.165  11.896   0.755
17690SOL    HW254904   0.026  11.928   0.704
17691SOL     OW54905   4.580   1.760  14.117
17691SOL    HW154906   4.569   1.716  14.032
17691SOL    HW254907   4.636   1.835  14.098
17692SOL     OW54908  10.367   0.619  14.349
17692SOL    HW154909  10.412   0.556  14.293
17692SOL    HW254910  10.291   0.572  14.382
17693SOL     OW54911   9.894   2.944   0.420
17693SOL    HW154912   9.882   3.010   0.352
17693SOL    HW254913   9.982   2.910   0.405
17694SOL     OW54914  14.157   3.011   5.497
17694SOL    HW154915  14.078   2.970   5.532
17694SOL    HW254916  14.128   3.094   5.461
17695SOL     OW54917   5.261   9.062   1.402
17695SOL    HW154918   5.207   8.984   1.415
17695SOL    HW254919   5.240   9.120   1.475
17696SOL     OW54920   9.833   7.690   1.669
17696SOL    HW154921   9.809   7.609   1.623
17696SOL    HW254922   9.898   7.662   1.734
17697SOL     OW54923  11.432   8.439   8.030
17697SOL    HW154924  11.495   8.440   7.958
17697SOL    HW254925  11.486   8.431   8.109
17698SOL     OW54926   5.000   4.590   2.458
17698SOL    HW154927   5.044   4.505   2.453
17698SOL    HW254928   4.912   4.573   2.424
17699SOL     OW54929  12.028   1.623   4.664
17699SOL    HW154930  12.097   1.636   4.729
17699SOL    HW254931  12.028   1.704   4.613
17700SOL     OW54932   4.305   5.240   0.076
17700SOL    HW154933   4.294   5.329   0.109
17700SOL    HW254934   4.251   5.186   0.134
17701SOL     OW54935   3.589   8.166  10.701
17701SOL    HW154936   3.559   8.170  10.792
17701SOL    HW254937   3.646   8.090  10.697
17702SOL     OW54938  13.469   1.793   7.190
17702SOL    HW154939  13.458   1.876   7.235
17702SOL    HW254940  13.553   1.759   7.222
17703SOL     OW54941   0.903  13.948   3.117
17703SOL    HW154942   0.928  13.867   3.072
17703SOL    HW254943   0.813  13.965   3.089
17704SOL     OW54944   5.451  11.686   8.610
17704SOL    HW154945   5.456  11.766   8.662
17704SOL    HW254946   5.492  11.619   8.665
17705SOL     OW54947   5.501   8.496   3.156
17705SOL    HW154948   5.454   8.497   3.239
17705SOL    HW254949   5.582   8.543   3.174
17706SOL     OW54950   7.901  11.482  11.321
17706SOL    HW154951   7.954  11.538  11.378
17706SOL    HW254952   7.812  11.514  11.332
17707SOL     OW54953   8.235  14.770   7.274
17707SOL    HW154954   8.161  14.808   7.228
17707SOL    HW254955   8.204  14.754   7.363
17708SOL     OW54956  14.483  11.015   3.887
17708SOL    HW154957  14.421  10.945   3.862
17708SOL    HW254958  14.429  11.078   3.935
17709SOL     OW54959  14.200   6.760   9.447
17709SOL    HW154960  14.165   6.675   9.419
17709SOL    HW254961  14.191   6.758   9.542
17710SOL     OW54962   1.960  10.402   3.178
17710SOL    HW154963   1.962  10.333   3.245
17710SOL    HW254964   2.026  10.465   3.206
17711SOL     OW54965   6.201   5.344   9.771
17711SOL    HW154966   6.163   5.307   9.691
17711SOL    HW254967   6.135   5.328   9.838
17712SOL     OW54968  10.195  11.207   5.498
17712SOL    HW154969  10.215  11.119   5.467
17712SOL    HW254970  10.184  11.197   5.593
17713SOL     OW54971  12.352  12.630   8.245
17713SOL    HW154972  12.399  12.596   8.169
17713SOL    HW254973  12.399  12.709   8.270
17714SOL     OW54974   4.887   9.775   6.999
17714SOL    HW154975   4.969   9.741   7.034
17714SOL    HW254976   4.913   9.849   6.944
17715SOL     OW54977   8.497  12.899   7.521
17715SOL    HW154978   8.590  12.920   7.515
17715SOL    HW254979   8.459  12.972   7.570
17716SOL     OW54980  10.888   2.953   8.853
17716SOL    HW154981  10.970   2.990   8.822
17716SOL    HW254982  10.878   2.872   8.804
17717SOL     OW54983   8.988  13.246  11.989
17717SOL    HW154984   8.901  13.279  11.965
17717SOL    HW254985   8.983  13.230  12.083
17718SOL     OW54986   8.196  11.587  13.734
17718SOL    HW154987   8.172  11.563  13.823
17718SOL    HW254988   8.186  11.682  13.731
17719SOL     OW54989  10.355   8.111   7.678
17719SOL    HW154990  10.424   8.111   7.744
17719SOL    HW254991  10.291   8.047   7.710
17720SOL     OW54992   5.305  13.989   3.434
17720SOL    HW154993   5.390  13.969   3.396
17720SOL    HW254994   5.281  14.074   3.397
17721SOL     OW54995   0.815   0.707  13.106
17721SOL    HW154996   0.816   0.645  13.179
17721SOL    HW254997   0.907   0.726  13.089
17722SOL     OW54998   3.803   1.894   0.289
17722SOL    HW154999   3.819   1.815   0.341
17722SOL    HW255000   3.890   1.925   0.265
17723SOL     OW55001   8.638  12.328   8.131
17723SOL    HW155002   8.651  12.278   8.212
17723SOL    HW255003   8.726  12.357   8.106
17724SOL     OW55004   7.849   9.196   6.075
17724SOL    HW155005   7.878   9.125   6.131
17724SOL    HW255006   7.854   9.161   5.986
17725SOL     OW55007   7.507   1.691  14.129
17725SOL    HW155008   7.434   1.649  14.174
17725SOL    HW255009   7.583   1.636  14.150
17726SOL     OW55010   9.625   7.411   9.835
17726SOL    HW155011   9.626   7.386   9.743
17726SOL    HW255012   9.569   7.346   9.877
17727SOL     OW55013   8.814   7.735  12.615
17727SOL    HW155014   8.879   7.732  12.544
17727SOL    HW255015   8.811   7.828  12.639
17728SOL     OW55016   3.655   3.895   2.667
17728SOL    HW155017   3.689   3.935   2.747
17728SOL    HW255018   3.582   3.840   2.696
17729SOL     OW55019   8.448   2.674   3.750
17729SOL    HW155020   8.437   2.603   3.813
17729SOL    HW255021   8.400   2.748   3.789
17730SOL     OW55022   8.840  12.765   0.944
17730SOL    HW155023   8.752  12.754   0.979
17730SOL    HW255024   8.880  12.831   1.000
17731SOL     OW55025  13.672   7.215  10.653
17731SOL    HW155026  13.630   7.291  10.695
17731SOL    HW255027  13.599   7.158  10.629
17732SOL     OW55028   2.433   6.438   3.701
17732SOL    HW155029   2.423   6.499   3.775
17732SOL    HW255030   2.524   6.410   3.705
17733SOL     OW55031   6.345   4.896   1.375
17733SOL    HW155032   6.396   4.835   1.322
17733SOL    HW255033   6.396   4.906   1.455
17734SOL     OW55034   6.414   8.217   4.688
17734SOL    HW155035   6.491   8.227   4.632
17734SOL    HW255036   6.448   8.175   4.767
17735SOL     OW55037   7.390   1.364   2.908
17735SOL    HW155038   7.438   1.348   2.827
17735SOL    HW255039   7.325   1.294   2.912
17736SOL     OW55040   6.619   8.441   5.688
17736SOL    HW155041   6.618   8.502   5.614
17736SOL    HW255042   6.712   8.425   5.704
17737SOL     OW55043   5.821   5.624   5.861
17737SOL    HW155044   5.865   5.552   5.906
17737SOL    HW255045   5.728   5.604   5.869
17738SOL     OW55046  14.704   5.835   4.074
17738SOL    HW155047  14.726   5.830   3.981
17738SOL    HW255048  14.617   5.796   4.080
17739SOL     OW55049  13.267   8.382   4.323
17739SOL    HW155050  13.244   8.472   4.345
17739SOL    HW255051  13.184   8.340   4.302
17740SOL     OW55052   2.961   7.371  10.329
17740SOL    HW155053   3.007   7.454  10.320
17740SOL    HW255054   2.983   7.341  10.417
17741SOL     OW55055   8.161   9.453  14.028
17741SOL    HW155056   8.124   9.541  14.029
17741SOL    HW255057   8.096   9.400  14.075
17742SOL     OW55058   9.896  11.919   5.013
17742SOL    HW155059   9.838  11.952   5.082
17742SOL    HW255060   9.945  11.848   5.055
17743SOL     OW55061  12.934  12.069   2.996
17743SOL    HW155062  12.923  12.104   3.085
17743SOL    HW255063  13.023  12.095   2.971
17744SOL     OW55064   6.831  12.525   8.950
17744SOL    HW155065   6.793  12.612   8.936
17744SOL    HW255066   6.898  12.540   9.017
17745SOL     OW55067   2.666  13.149   8.239
17745SOL    HW155068   2.631  13.144   8.328
17745SOL    HW255069   2.755  13.183   8.250
17746SOL     OW55070   6.754   8.689   6.840
17746SOL    HW155071   6.753   8.605   6.795
17746SOL    HW255072   6.713   8.750   6.779
17747SOL     OW55073   3.963  13.464  12.275
17747SOL    HW155074   3.891  13.511  12.318
17747SOL    HW255075   3.991  13.399  12.339
17748SOL     OW55076   6.726   6.385  14.194
17748SOL    HW155077   6.763   6.297  14.200
17748SOL    HW255078   6.632   6.372  14.207
17749SOL     OW55079   6.417   9.420   7.132
17749SOL    HW155080   6.421   9.358   7.059
17749SOL    HW255081   6.507   9.421   7.166
17750SOL     OW55082   7.987   0.115   4.983
17750SOL    HW155083   7.978   0.210   4.970
17750SOL    HW255084   8.081   0.099   4.978
17751SOL     OW55085  12.712  13.383  12.577
17751SOL    HW155086  12.692  13.441  12.651
17751SOL    HW255087  12.799  13.410  12.549
17752SOL     OW55088  10.440  10.700   5.885
17752SOL    HW155089  10.367  10.749   5.923
17752SOL    HW255090  10.481  10.762   5.824
17753SOL     OW55091  12.006   7.530   7.469
17753SOL    HW155092  11.960   7.532   7.552
17753SOL    HW255093  11.949   7.480   7.410
17754SOL     OW55094  13.985   4.991   4.000
17754SOL    HW155095  13.961   4.995   4.092
17754SOL    HW255096  14.058   5.052   3.991
17755SOL     OW55097   1.696   8.778   5.097
17755SOL    HW155098   1.685   8.683   5.106
17755SOL    HW255099   1.609   8.814   5.113
17756SOL     OW55100   8.000   1.932  10.594
17756SOL    HW155101   8.045   1.848  10.589
17756SOL    HW255102   8.019   1.964  10.682
17757SOL     OW55103   6.718   8.483   0.114
17757SOL    HW155104   6.777   8.547   0.155
17757SOL    HW255105   6.630   8.518   0.130
17758SOL     OW55106   5.343   5.136   3.626
17758SOL    HW155107   5.408   5.160   3.693
17758SOL    HW255108   5.286   5.213   3.620
17759SOL     OW55109   5.595   7.246   6.878
17759SOL    HW155110   5.678   7.293   6.871
17759SOL    HW255111   5.618   7.162   6.917
17760SOL     OW55112   3.544   1.424   5.518
17760SOL    HW155113   3.491   1.480   5.462
17760SOL    HW255114   3.587   1.484   5.578
17761SOL     OW55115  10.021  14.659   2.071
17761SOL    HW155116  10.036  14.669   2.165
17761SOL    HW255117  10.107  14.634   2.036
17762SOL     OW55118   1.033   1.119   9.629
17762SOL    HW155119   1.112   1.113   9.683
17762SOL    HW255120   1.025   1.032   9.590
17763SOL     OW55121   0.572  12.546   2.442
17763SOL    HW155122   0.589  12.622   2.498
17763SOL    HW255123   0.607  12.570   2.357
17764SOL     OW55124  13.086  11.293  13.060
17764SOL    HW155125  13.108  11.218  13.114
17764SOL    HW255126  13.101  11.264  12.970
17765SOL     OW55127  14.804   2.906  11.275
17765SOL    HW155128   0.023   2.906  11.246
17765SOL    HW255129  14.765   2.981  11.230
17766SOL     OW55130   0.069   5.220   8.773
17766SOL    HW155131   0.094   5.181   8.857
17766SOL    HW255132  14.846   5.221   8.775
17767SOL     OW55133  10.346   2.445   0.961
17767SOL    HW155134  10.345   2.389   0.883
17767SOL    HW255135  10.341   2.385   1.035
17768SOL     OW55136  10.550   0.827   7.612
17768SOL    HW155137  10.577   0.790   7.528
17768SOL    HW255138  10.567   0.756   7.675
17769SOL     OW55139   3.033   4.183   9.145
17769SOL    HW155140   3.065   4.180   9.235
17769SOL    HW255141   3.042   4.093   9.114
17770SOL     OW55142  11.038   6.402   8.818
17770SOL    HW155143  11.103   6.392   8.888
17770SOL    HW255144  11.050   6.493   8.788
17771SOL     OW55145   9.722  12.829   4.874
17771SOL    HW155146   9.729  12.737   4.899
17771SOL    HW255147   9.676  12.870   4.948
17772SOL     OW55148  11.978  10.789  12.944
17772SOL    HW155149  11.888  10.761  12.926
17772SOL    HW255150  11.992  10.769  13.036
17773SOL     OW55151   6.149   7.085   5.813
17773SOL    HW155152   6.170   7.173   5.782
17773SOL    HW255153   6.116   7.098   5.902
17774SOL     OW55154  14.345  14.847   3.513
17774SOL    HW155155  14.399  14.866   3.437
17774SOL    HW255156  14.365  14.756   3.535
17775SOL     OW55157   2.648  12.196   5.049
17775SOL    HW155158   2.607  12.233   4.971
17775SOL    HW255159   2.587  12.130   5.081
17776SOL     OW55160   6.116   0.884   8.717
17776SOL    HW155161   6.043   0.857   8.661
17776SOL    HW255162   6.157   0.802   8.744
17777SOL     OW55163   7.652  10.903   3.063
17777SOL    HW155164   7.656  10.969   3.132
17777SOL    HW255165   7.575  10.926   3.012
17778SOL     OW55166   3.320  12.872   4.774
17778SOL    HW155167   3.353  12.818   4.846
17778SOL    HW255168   3.340  12.822   4.695
17779SOL     OW55169  11.447  10.981   7.809
17779SOL    HW155170  11.398  10.983   7.726
17779SOL    HW255171  11.446  11.071   7.840
17780SOL     OW55172   6.828   9.370   9.456
17780SOL    HW155173   6.857   9.452   9.494
17780SOL    HW255174   6.818   9.311   9.531
17781SOL     OW55175   0.123   1.223   3.832
17781SOL    HW155176   0.200   1.254   3.784
17781SOL    HW255177   0.060   1.201   3.764
17782SOL     OW55178   6.615   6.943   2.264
17782SOL    HW155179   6.634   7.006   2.195
17782SOL    HW255180   6.700   6.902   2.283
17783SOL     OW55181   0.478  13.240   9.287
17783SOL    HW155182   0.444  13.195   9.210
17783SOL    HW255183   0.571  13.217   9.289
17784SOL     OW55184   2.985   9.885   3.733
17784SOL    HW155185   3.004   9.864   3.824
17784SOL    HW255186   3.064   9.859   3.686
17785SOL     OW55187   0.726  14.208   3.298
17785SOL    HW155188   0.649  14.180   3.248
17785SOL    HW255189   0.729  14.303   3.284
17786SOL     OW55190   6.480   5.151   3.556
17786SOL    HW155191   6.544   5.082   3.577
17786SOL    HW255192   6.425   5.158   3.634
17787SOL     OW55193   3.258  10.482   8.490
17787SOL    HW155194   3.305  10.422   8.547
17787SOL    HW255195   3.259  10.566   8.537
17788SOL     OW55196   2.339   8.828  11.000
17788SOL    HW155197   2.347   8.922  11.012
17788SOL    HW255198   2.396   8.790  11.067
17789SOL     OW55199  10.196   2.480   6.904
17789SOL    HW155200  10.229   2.535   6.833
17789SOL    HW255201  10.247   2.399   6.897
17790SOL     OW55202   5.546  11.649   7.587
17790SOL    HW155203   5.625  11.604   7.617
17790SOL    HW255204   5.513  11.595   7.514
17791SOL     OW55205   8.799  14.230   5.652
17791SOL    HW155206   8.840  14.301   5.602
17791SOL    HW255207   8.817  14.151   5.600
17792SOL     OW55208   6.020   5.951   8.319
17792SOL    HW155209   5.991   6.035   8.283
17792SOL    HW255210   5.939   5.899   8.327
17793SOL     OW55211   0.926  14.567   2.228
17793SOL    HW155212   0.923  14.654   2.268
17793SOL    HW255213   0.869  14.574   2.151
17794SOL     OW55214   9.329   9.535  13.695
17794SOL    HW155215   9.272   9.550  13.770
17794SOL    HW255216   9.413   9.573  13.720
17795SOL     OW55217   1.602   2.592   0.014
17795SOL    HW155218   1.670   2.571   0.079
17795SOL    HW255219   1.569   2.506  14.859
17796SOL     OW55220   4.463  13.789   7.262
17796SOL    HW155221   4.531  13.768   7.326
17796SOL    HW255222   4.412  13.709   7.255
17797SOL     OW55223   7.483  10.281   5.663
17797SOL    HW155224   7.565  10.237   5.640
17797SOL    HW255225   7.495  10.371   5.634
17798SOL     OW55226   0.374   2.469  11.952
17798SOL    HW155227   0.363   2.489  11.859
17798SOL    HW255228   0.398   2.377  11.954
17799SOL     OW55229   6.030  12.528  14.285
17799SOL    HW155230   6.115  12.563  14.311
17799SOL    HW255231   5.974  12.605  14.277
17800SOL     OW55232   1.943  14.037   2.868
17800SOL    HW155233   1.882  14.108   2.849
17800SOL    HW255234   1.978  14.013   2.783
17801SOL     OW55235   2.636   3.281   6.900
17801SOL    HW155236   2.690   3.317   6.830
17801SOL    HW255237   2.698   3.240   6.960
17802SOL     OW55238  10.426   5.221  12.678
17802SOL    HW155239  10.498   5.284  12.672
17802SOL    HW255240  10.353   5.264  12.634
17803SOL     OW55241   5.601   8.678  10.070
17803SOL    HW155242   5.670   8.733  10.107
17803SOL    HW255243   5.521   8.707  10.115
17804SOL     OW55244   7.012   1.572   2.100
17804SOL    HW155245   6.978   1.660   2.118
17804SOL    HW255246   6.946   1.531   2.044
17805SOL     OW55247   7.976   3.892   4.640
17805SOL    HW155248   7.969   3.952   4.566
17805SOL    HW255249   7.995   3.807   4.600
17806SOL     OW55250   3.817   5.668   3.219
17806SOL    HW155251   3.782   5.745   3.175
17806SOL    HW255252   3.740   5.613   3.237
17807SOL     OW55253   1.230   9.202   3.725
17807SOL    HW155254   1.242   9.279   3.669
17807SOL    HW255255   1.168   9.230   3.792
17808SOL     OW55256   3.361  11.462   3.131
17808SOL    HW155257   3.336  11.371   3.117
17808SOL    HW255258   3.440  11.456   3.184
17809SOL     OW55259   1.402   6.098  10.363
17809SOL    HW155260   1.327   6.139  10.320
17809SOL    HW255261   1.435   6.165  10.423
17810SOL     OW55262   4.036  12.075  14.031
17810SOL    HW155263   4.007  11.992  14.067
17810SOL    HW255264   4.113  12.054  13.979
17811SOL     OW55265   1.951  11.767   6.624
17811SOL    HW155266   2.012  11.719   6.680
17811SOL    HW255267   2.000  11.787   6.545
17812SOL     OW55268  11.067   1.609  12.513
17812SOL    HW155269  11.124   1.658  12.454
17812SOL    HW255270  11.051   1.669  12.586
17813SOL     OW55271   6.704   3.147   1.761
17813SOL    HW155272   6.778   3.208   1.752
17813SOL    HW255273   6.713   3.088   1.686
17814SOL     OW55274   0.052   6.240   4.289
17814SOL    HW155275   0.058   6.231   4.384
17814SOL    HW255276  14.869   6.317   4.275
17815SOL     OW55277   3.594  12.643   6.360
17815SOL    HW155278   3.625  12.655   6.270
17815SOL    HW255279   3.569  12.551   6.364
17816SOL     OW55280  14.067   0.432   4.230
17816SOL    HW155281  14.110   0.515   4.249
17816SOL    HW255282  13.973   0.453   4.229
17817SOL     OW55283   5.597   9.867   0.926
17817SOL    HW155284   5.659   9.918   0.875
17817SOL    HW255285   5.517   9.919   0.927
17818SOL     OW55286   9.711   8.513  10.952
17818SOL    HW155287   9.787   8.528  10.896
17818SOL    HW255288   9.668   8.598  10.957
17819SOL     OW55289  11.703   0.765   1.682
17819SOL    HW155290  11.689   0.674   1.656
17819SOL    HW255291  11.676   0.768   1.774
17820SOL     OW55292   3.942  12.706   5.787
17820SOL    HW155293   3.945  12.626   5.735
17820SOL    HW255294   3.910  12.772   5.725
17821SOL     OW55295   0.005   2.369  12.010
17821SOL    HW155296   0.001   2.435  11.941
17821SOL    HW255297   0.035   2.289  11.965
17822SOL     OW55298   1.118  13.406  10.888
17822SOL    HW155299   1.209  13.378  10.903
17822SOL    HW255300   1.109  13.406  10.793
17823SOL     OW55301   5.963  10.405  14.777
17823SOL    HW155302   5.944  10.493  14.810
17823SOL    HW255303   6.047  10.414  14.732
17824SOL     OW55304  14.376   1.920  13.414
17824SOL    HW155305  14.392   1.934  13.508
17824SOL    HW255306  14.423   1.991  13.371
17825SOL     OW55307   4.825   4.832  12.965
17825SOL    HW155308   4.831   4.784  13.048
17825SOL    HW255309   4.887   4.788  12.907
17826SOL     OW55310   5.094  12.481  11.751
17826SOL    HW155311   5.154  12.538  11.703
17826SOL    HW255312   5.009  12.494  11.707
17827SOL     OW55313   6.796  13.435   8.413
17827SOL    HW155314   6.889  13.414   8.402
17827SOL    HW255315   6.781  13.427   8.507
17828SOL     OW55316   1.253   3.941  12.780
17828SOL    HW155317   1.278   3.852  12.758
17828SOL    HW255318   1.172   3.932  12.829
17829SOL     OW55319   6.429   8.007   5.408
17829SOL    HW155320   6.408   8.078   5.347
17829SOL    HW255321   6.462   8.052   5.487
17830SOL     OW55322   1.781  11.652   0.318
17830SOL    HW155323   1.788  11.741   0.281
17830SOL    HW255324   1.691  11.647   0.350
17831SOL     OW55325  12.956   5.983   5.262
17831SOL    HW155326  13.025   5.979   5.195
17831SOL    HW255327  12.984   5.921   5.329
17832SOL     OW55328   7.665   0.257   1.764
17832SOL    HW155329   7.657   0.224   1.675
17832SOL    HW255330   7.690   0.181   1.816
17833SOL     OW55331   7.276   1.708   1.764
17833SOL    HW155332   7.220   1.778   1.796
17833SOL    HW255333   7.362   1.727   1.801
17834SOL     OW55334  13.330  10.701  10.877
17834SOL    HW155335  13.334  10.794  10.898
17834SOL    HW255336  13.422  10.674  10.869
17835SOL     OW55337   2.951   5.962   1.517
17835SOL    HW155338   3.024   5.902   1.533
17835SOL    HW255339   2.916   5.935   1.432
17836SOL     OW55340   7.926   3.359  10.924
17836SOL    HW155341   7.943   3.451  10.943
17836SOL    HW255342   7.833   3.347  10.943
17837SOL     OW55343   7.388  10.904   4.866
17837SOL    HW155344   7.468  10.886   4.915
17837SOL    HW255345   7.329  10.833   4.889
17838SOL     OW55346   9.142   6.214   2.824
17838SOL    HW155347   9.085   6.205   2.748
17838SOL    HW255348   9.137   6.129   2.868
17839SOL     OW55349   0.050   9.415   9.536
17839SOL    HW155350   0.005   9.499   9.528
17839SOL    HW255351   0.058   9.401   9.630
17840SOL     OW55352  13.375   8.966   7.123
17840SOL    HW155353  13.281   8.985   7.112
17840SOL    HW255354  13.414   9.049   7.148
17841SOL     OW55355   5.626  14.403   0.764
17841SOL    HW155356   5.654  14.372   0.678
17841SOL    HW255357   5.684  14.357   0.825
17842SOL     OW55358   1.526   9.563   6.694
17842SOL    HW155359   1.456   9.500   6.675
17842SOL    HW255360   1.496   9.610   6.771
17843SOL     OW55361  10.663   1.244   4.201
17843SOL    HW155362  10.749   1.215   4.170
17843SOL    HW255363  10.682   1.314   4.264
17844SOL     OW55364  11.956   5.736   7.754
17844SOL    HW155365  12.046   5.732   7.785
17844SOL    HW255366  11.924   5.822   7.783
17845SOL     OW55367   8.461  14.765   5.208
17845SOL    HW155368   8.442  14.859   5.205
17845SOL    HW255369   8.497  14.745   5.121
17846SOL     OW55370  10.961   3.906   6.263
17846SOL    HW155371  11.031   3.891   6.327
17846SOL    HW255372  10.979   3.993   6.227
17847SOL     OW55373   2.659   8.665   6.775
17847SOL    HW155374   2.717   8.675   6.700
17847SOL    HW255375   2.584   8.722   6.755
17848SOL     OW55376   2.090  13.303   0.187
17848SOL    HW155377   2.032  13.290   0.262
17848SOL    HW255378   2.178  13.306   0.225
17849SOL     OW55379  10.938   1.892   5.717
17849SOL    HW155380  11.005   1.886   5.785
17849SOL    HW255381  10.888   1.970   5.739
17850SOL     OW55382  12.597  13.654  13.183
17850SOL    HW155383  12.527  13.664  13.119
17850SOL    HW255384  12.605  13.740  13.224
17851SOL     OW55385   0.325  14.141   0.771
17851SOL    HW155386   0.343  14.220   0.821
17851SOL    HW255387   0.354  14.162   0.682
17852SOL     OW55388   1.940  10.483   4.995
17852SOL    HW155389   1.846  10.474   4.980
17852SOL    HW255390   1.949  10.559   5.052
17853SOL     OW55391  14.842   9.751   3.108
17853SOL    HW155392  14.845   9.655   3.108
17853SOL    HW255393  14.779   9.773   3.040
17854SOL     OW55394   9.369   4.155   7.762
17854SOL    HW155395   9.456   4.148   7.802
17854SOL    HW255396   9.373   4.096   7.687
17855SOL     OW55397   6.152  12.280   5.490
17855SOL    HW155398   6.222  12.237   5.539
17855SOL    HW255399   6.190  12.295   5.403
17856SOL     OW55400  12.569  12.041   3.566
17856SOL    HW155401  12.588  11.969   3.506
17856SOL    HW255402  12.529  12.109   3.511
17857SOL     OW55403  14.631   1.035   6.192
17857SOL    HW155404  14.726   1.031   6.179
17857SOL    HW255405  14.597   0.961   6.142
17858SOL     OW55406   5.789   5.050  10.931
17858SOL    HW155407   5.746   4.992  10.868
17858SOL    HW255408   5.823   5.122  10.878
17859SOL     OW55409  13.090   8.628  10.170
17859SOL    HW155410  13.011   8.663  10.210
17859SOL    HW255411  13.124   8.565  10.234
17860SOL     OW55412   3.351   2.986  12.474
17860SOL    HW155413   3.263   3.024  12.479
17860SOL    HW255414   3.394   3.013  12.555
17861SOL     OW55415   6.834   7.702   9.813
17861SOL    HW155416   6.800   7.636   9.873
17861SOL    HW255417   6.860   7.775   9.869
17862SOL     OW55418   1.997   2.387   1.756
17862SOL    HW155419   1.909   2.351   1.740
17862SOL    HW255420   2.056   2.316   1.731
17863SOL     OW55421  13.614   3.990   5.422
17863SOL    HW155422  13.650   3.935   5.492
17863SOL    HW255423  13.691   4.037   5.388
17864SOL     OW55424   1.765   9.739   5.744
17864SOL    HW155425   1.709   9.775   5.675
17864SOL    HW255426   1.708   9.682   5.795
17865SOL     OW55427   4.741  14.651   4.348
17865SOL    HW155428   4.703  14.738   4.338
17865SOL    HW255429   4.821  14.665   4.398
17866SOL     OW55430  10.503   3.176   2.757
17866SOL    HW155431  10.558   3.253   2.739
17866SOL    HW255432  10.499   3.130   2.673
17867SOL     OW55433  13.397  11.482   3.678
17867SOL    HW155434  13.347  11.423   3.735
17867SOL    HW255435  13.344  11.489   3.599
17868SOL     OW55436   3.369   7.584   4.780
17868SOL    HW155437   3.348   7.609   4.870
17868SOL    HW255438   3.380   7.489   4.784
17869SOL     OW55439  11.907   6.279   2.615
17869SOL    HW155440  11.954   6.208   2.572
17869SOL    HW255441  11.935   6.358   2.569
17870SOL     OW55442   9.140  12.284  12.843
17870SOL    HW155443   9.107  12.223  12.909
17870SOL    HW255444   9.224  12.248  12.816
17871SOL     OW55445   6.280   8.586  12.693
17871SOL    HW155446   6.283   8.664  12.638
17871SOL    HW255447   6.309   8.616  12.779
17872SOL     OW55448   1.925  10.007  12.316
17872SOL    HW155449   1.933   9.935  12.378
17872SOL    HW255450   1.975  10.079  12.356
17873SOL     OW55451   9.459   2.846   9.516
17873SOL    HW155452   9.485   2.938   9.511
17873SOL    HW255453   9.538   2.797   9.493
17874SOL     OW55454   0.342   3.396   1.786
17874SOL    HW155455   0.392   3.469   1.822
17874SOL    HW255456   0.259   3.397   1.835
17875SOL     OW55457  10.327  13.487  10.165
17875SOL    HW155458  10.370  13.533  10.237
17875SOL    HW255459  10.354  13.396  10.175
17876SOL     OW55460   5.115   4.077   0.641
17876SOL    HW155461   5.141   4.146   0.581
17876SOL    HW255462   5.197   4.044   0.677
17877SOL     OW55463  14.143  13.566   2.437
17877SOL    HW155464  14.224  13.521   2.463
17877SOL    HW255465  14.079  13.539   2.502
17878SOL     OW55466  14.304   7.297   7.712
17878SOL    HW155467  14.257   7.380   7.719
17878SOL    HW255468  14.313   7.267   7.802
17879SOL     OW55469   0.707   0.292  12.322
17879SOL    HW155470   0.631   0.275  12.267
17879SOL    HW255471   0.736   0.205  12.351
17880SOL     OW55472   1.900  10.747  13.804
17880SOL    HW155473   1.890  10.840  13.785
17880SOL    HW255474   1.989  10.739  13.839
17881SOL     OW55475   8.511   6.430   6.802
17881SOL    HW155476   8.591   6.412   6.753
17881SOL    HW255477   8.488   6.346   6.842
17882SOL     OW55478   0.433   0.218   7.598
17882SOL    HW155479   0.396   0.271   7.669
17882SOL    HW255480   0.523   0.249   7.588
17883SOL     OW55481  13.298   1.584   7.066
17883SOL    HW155482  13.332   1.668   7.095
17883SOL    HW255483  13.287   1.533   7.146
17884SOL     OW55484  13.466   5.394   7.623
17884SOL    HW155485  13.404   5.322   7.612
17884SOL    HW255486  13.452   5.425   7.712
17885SOL     OW55487  12.060   0.344   4.174
17885SOL    HW155488  12.004   0.419   4.154
17885SOL    HW255489  12.014   0.298   4.245
17886SOL     OW55490   8.870  10.029   9.514
17886SOL    HW155491   8.941  10.028   9.449
17886SOL    HW255492   8.847   9.937   9.526
17887SOL     OW55493   7.499  12.472  11.537
17887SOL    HW155494   7.488  12.399  11.597
17887SOL    HW255495   7.453  12.545  11.578
17888SOL     OW55496  10.276  12.176   9.111
17888SOL    HW155497  10.318  12.143   9.190
17888SOL    HW255498  10.344  12.225   9.065
17889SOL     OW55499   4.916   5.592  14.093
17889SOL    HW155500   4.893   5.499  14.101
17889SOL    HW255501   4.968   5.597  14.014
17890SOL     OW55502   2.016   0.760  14.431
17890SOL    HW155503   2.103   0.796  14.445
17890SOL    HW255504   2.021   0.671  14.465
17891SOL     OW55505  13.721   9.815   4.535
17891SOL    HW155506  13.758   9.818   4.623
17891SOL    HW255507  13.795   9.834   4.477
17892SOL     OW55508  11.821  14.693  10.130
17892SOL    HW155509  11.844  14.674  10.039
17892SOL    HW255510  11.903  14.722  10.170
17893SOL     OW55511   6.041   6.708   4.710
17893SOL    HW155512   6.046   6.620   4.673
17893SOL    HW255513   6.003   6.761   4.640
17894SOL     OW55514  10.649   3.252  11.367
17894SOL    HW155515  10.660   3.176  11.423
17894SOL    HW255516  10.562   3.243  11.329
17895SOL     OW55517   8.801  12.504   4.086
17895SOL    HW155518   8.770  12.413   4.085
17895SOL    HW255519   8.728  12.554   4.121
17896SOL     OW55520   9.960   9.485  12.273
17896SOL    HW155521  10.038   9.470  12.326
17896SOL    HW255522   9.892   9.508  12.337
17897SOL     OW55523   3.301  11.195   3.236
17897SOL    HW155524   3.345  11.129   3.184
17897SOL    HW255525   3.306  11.162   3.326
17898SOL     OW55526   0.403   7.928   3.944
17898SOL    HW155527   0.335   7.992   3.965
17898SOL    HW255528   0.422   7.885   4.027
17899SOL     OW55529   3.097   6.140  12.931
17899SOL    HW155530   3.161   6.079  12.967
17899SOL    HW255531   3.075   6.198  13.004
17900SOL     OW55532   1.044   3.022   0.099
17900SOL    HW155533   0.962   2.983   0.130
17900SOL    HW255534   1.056   3.099   0.154
17901SOL     OW55535   2.300   8.669   6.538
17901SOL    HW155536   2.282   8.584   6.579
17901SOL    HW255537   2.257   8.664   6.452
17902SOL     OW55538   1.766   4.197   9.511
17902SOL    HW155539   1.826   4.253   9.560
17902SOL    HW255540   1.689   4.190   9.566
17903SOL     OW55541  13.205   1.699  14.269
17903SOL    HW155542  13.255   1.732  14.344
17903SOL    HW255543  13.179   1.778  14.221
17904SOL     OW55544  11.919   8.816   7.978
17904SOL    HW155545  11.927   8.908   8.003
17904SOL    HW255546  11.984   8.804   7.908
17905SOL     OW55547   7.156  11.825   1.648
17905SOL    HW155548   7.214  11.758   1.685
17905SOL    HW255549   7.201  11.854   1.569
17906SOL     OW55550   6.303   5.090   5.570
17906SOL    HW155551   6.261   5.039   5.502
17906SOL    HW255552   6.231   5.137   5.613
17907SOL     OW55553  11.850   3.164  10.519
17907SOL    HW155554  11.889   3.219  10.586
17907SOL    HW255555  11.879   3.075  10.542
17908SOL     OW55556   8.839  13.209   5.284
17908SOL    HW155557   8.829  13.252   5.369
17908SOL    HW255558   8.774  13.139   5.284
17909SOL     OW55559   1.768   2.911  11.443
17909SOL    HW155560   1.689   2.964  11.433
17909SOL    HW255561   1.769   2.888  11.536
17910SOL     OW55562  12.453  12.323   0.670
17910SOL    HW155563  12.374  12.271   0.656
17910SOL    HW255564  12.473  12.310   0.763
17911SOL     OW55565   7.307   5.480   6.457
17911SOL    HW155566   7.321   5.491   6.551
17911SOL    HW255567   7.360   5.403   6.434
17912SOL     OW55568   4.347   9.506  12.868
17912SOL    HW155569   4.287   9.488  12.941
17912SOL    HW255570   4.385   9.421  12.847
17913SOL     OW55571   6.496   2.727   4.142
17913SOL    HW155572   6.504   2.645   4.093
17913SOL    HW255573   6.528   2.794   4.082
17914SOL     OW55574   9.881   0.451   9.621
17914SOL    HW155575   9.927   0.449   9.705
17914SOL    HW255576   9.789   0.461   9.644
17915SOL     OW55577   1.683   5.207  10.845
17915SOL    HW155578   1.597   5.249  10.834
17915SOL    HW255579   1.725   5.218  10.760
17916SOL     OW55580   1.418   2.605   9.895
17916SOL    HW155581   1.382   2.594   9.807
17916SOL    HW255582   1.417   2.518   9.933
17917SOL     OW55583  13.905   9.710   1.561
17917SOL    HW155584  13.845   9.660   1.505
17917SOL    HW255585  13.968   9.748   1.499
17918SOL     OW55586  14.626   9.720   1.014
17918SOL    HW155587  14.554   9.672   1.055
17918SOL    HW255588  14.678   9.653   0.970
17919SOL     OW55589   0.621   9.417  14.554
17919SOL    HW155590   0.676   9.343  14.529
17919SOL    HW255591   0.544   9.377  14.596
17920SOL     OW55592   3.166  11.714   5.332
17920SOL    HW155593   3.104  11.700   5.260
17920SOL    HW255594   3.168  11.631   5.379
17921SOL     OW55595   6.700   7.032   9.241
17921SOL    HW155596   6.720   6.944   9.275
17921SOL    HW255597   6.773   7.086   9.270
17922SOL     OW55598   6.658  13.158   0.351
17922SOL    HW155599   6.751  13.180   0.342
17922SOL    HW255600   6.652  13.107   0.432
17923SOL     OW55601  10.601   9.828  11.973
17923SOL    HW155602  10.628   9.743  12.008
17923SOL    HW255603  10.584   9.881  12.051
17924SOL     OW55604   7.163   9.466   9.670
17924SOL    HW155605   7.243   9.503   9.634
17924SOL    HW255606   7.092   9.509   9.623
17925SOL     OW55607  10.008   2.169   0.257
17925SOL    HW155608   9.990   2.261   0.274
17925SOL    HW255609  10.103   2.162   0.262
17926SOL     OW55610   1.320   8.854  11.652
17926SOL    HW155611   1.245   8.795  11.659
17926SOL    HW255612   1.331   8.889  11.740
17927SOL     OW55613  12.199   3.760   8.068
17927SOL    HW155614  12.218   3.844   8.111
17927SOL    HW255615  12.145   3.713   8.131
17928SOL     OW55616   4.662  12.889   7.788
17928SOL    HW155617   4.631  12.807   7.826
17928SOL    HW255618   4.743  12.909   7.836
17929SOL     OW55619   4.540  12.292   0.866
17929SOL    HW155620   4.571  12.376   0.900
17929SOL    HW255621   4.456  12.312   0.825
17930SOL     OW55622  14.058   8.140   5.755
17930SOL    HW155623  14.129   8.199   5.731
17930SOL    HW255624  14.046   8.152   5.849
17931SOL     OW55625   6.651   5.500   5.689
17931SOL    HW155626   6.635   5.546   5.607
17931SOL    HW255627   6.617   5.412   5.674
17932SOL     OW55628   5.776  10.589   1.979
17932SOL    HW155629   5.795  10.523   1.913
17932SOL    HW255630   5.704  10.551   2.030
17933SOL     OW55631   9.891   3.924   9.676
17933SOL    HW155632   9.932   4.009   9.689
17933SOL    HW255633   9.921   3.896   9.589
17934SOL     OW55634   1.918   0.364   3.722
17934SOL    HW155635   1.985   0.297   3.713
17934SOL    HW255636   1.966   0.447   3.714
17935SOL     OW55637   4.728   9.828   3.563
17935SOL    HW155638   4.737   9.923   3.570
17935SOL    HW255639   4.734   9.811   3.469
17936SOL     OW55640   3.933  12.315   3.575
17936SOL    HW155641   3.942  12.285   3.485
17936SOL    HW255642   4.022  12.319   3.609
17937SOL     OW55643  11.943   5.063  10.449
17937SOL    HW155644  11.942   4.988  10.508
17937SOL    HW255645  12.026   5.055  10.401
17938SOL     OW55646  14.339   3.493  13.956
17938SOL    HW155647  14.279   3.426  13.923
17938SOL    HW255648  14.314   3.573  13.911
17939SOL     OW55649   5.115  11.679   3.039
17939SOL    HW155650   5.023  11.705   3.031
17939SOL    HW255651   5.146  11.672   2.949
17940SOL     OW55652  14.042  14.848  13.084
17940SOL    HW155653  14.118  14.830  13.139
17940SOL    HW255654  13.968  14.845  13.145
17941SOL     OW55655   3.866   8.365   7.307
17941SOL    HW155656   3.894   8.294   7.366
17941SOL    HW255657   3.930   8.364   7.236
17942SOL     OW55658   4.656   8.454   5.432
17942SOL    HW155659   4.624   8.363   5.437
17942SOL    HW255660   4.620   8.488   5.350
17943SOL     OW55661  12.160  13.206  10.951
17943SOL    HW155662  12.124  13.269  10.889
17943SOL    HW255663  12.138  13.242  11.037
17944SOL     OW55664  14.471  12.261   6.307
17944SOL    HW155665  14.384  12.259   6.346
17944SOL    HW255666  14.487  12.172   6.278
17945SOL     OW55667   8.610  10.582  12.052
17945SOL    HW155668   8.611  10.571  11.957
17945SOL    HW255669   8.541  10.525  12.083
17946SOL     OW55670   8.823   4.049  12.580
17946SOL    HW155671   8.806   3.969  12.630
17946SOL    HW255672   8.737   4.086  12.563
17947SOL     OW55673  13.564   5.613  14.804
17947SOL    HW155674  13.487   5.669  14.817
17947SOL    HW255675  13.624   5.666  14.753
17948SOL     OW55676   0.689   6.901   2.990
17948SOL    HW155677   0.654   6.812   2.986
17948SOL    HW255678   0.691   6.923   3.083
17949SOL     OW55679   6.215   3.491  13.690
17949SOL    HW155680   6.245   3.409  13.651
17949SOL    HW255681   6.192   3.546  13.615
17950SOL     OW55682   9.519  11.713  10.674
17950SOL    HW155683   9.573  11.750  10.604
17950SOL    HW255684   9.469  11.787  10.708
17951SOL     OW55685  11.407  13.022   3.801
17951SOL    HW155686  11.329  13.014   3.856
17951SOL    HW255687  11.402  13.111   3.766
17952SOL     OW55688  10.671   6.764   3.241
17952SOL    HW155689  10.636   6.803   3.161
17952SOL    HW255690  10.599   6.710   3.275
17953SOL     OW55691   4.123   5.259  10.895
17953SOL    HW155692   4.177   5.246  10.817
17953SOL    HW255693   4.176   5.225  10.967
17954SOL     OW55694   9.510   2.454  12.293
17954SOL    HW155695   9.471   2.541  12.292
17954SOL    HW255696   9.601   2.468  12.320
17955SOL     OW55697  11.813   3.578  12.247
17955SOL    HW155698  11.842   3.658  12.290
17955SOL    HW255699  11.798   3.604  12.156
17956SOL     OW55700  10.523   2.075   5.879
17956SOL    HW155701  10.498   2.073   5.786
17956SOL    HW255702  10.616   2.055   5.879
17957SOL     OW55703   4.595   6.755  10.809
17957SOL    HW155704   4.592   6.851  10.809
17957SOL    HW255705   4.681   6.735  10.772
17958SOL     OW55706   4.659  11.703  10.235
17958SOL    HW155707   4.639  11.610  10.245
17958SOL    HW255708   4.576  11.747  10.253
17959SOL     OW55709  12.149   6.532   5.858
17959SOL    HW155710  12.109   6.469   5.917
17959SOL    HW255711  12.146   6.489   5.772
17960SOL     OW55712  12.103   0.956   6.066
17960SOL    HW155713  12.190   0.989   6.044
17960SOL    HW255714  12.047   0.988   5.995
17961SOL     OW55715  13.510   2.044  11.556
17961SOL    HW155716  13.453   2.062  11.481
17961SOL    HW255717  13.597   2.037  11.519
17962SOL     OW55718  14.695   4.291   5.146
17962SOL    HW155719  14.688   4.198   5.167
17962SOL    HW255720  14.661   4.335   5.224
17963SOL     OW55721  10.236   8.142   5.051
17963SOL    HW155722  10.151   8.103   5.074
17963SOL    HW255723  10.277   8.162   5.136
17964SOL     OW55724   6.392   7.085   0.230
17964SOL    HW155725   6.321   7.025   0.205
17964SOL    HW255726   6.439   7.038   0.298
17965SOL     OW55727  13.447   0.953   8.492
17965SOL    HW155728  13.413   0.914   8.412
17965SOL    HW255729  13.477   1.040   8.466
17966SOL     OW55730  10.481   8.405   6.435
17966SOL    HW155731  10.418   8.418   6.364
17966SOL    HW255732  10.429   8.406   6.515
17967SOL     OW55733   2.294   0.934   6.475
17967SOL    HW155734   2.346   0.893   6.406
17967SOL    HW255735   2.358   0.979   6.530
17968SOL     OW55736   5.102   7.309   3.131
17968SOL    HW155737   5.096   7.219   3.162
17968SOL    HW255738   5.013   7.329   3.100
17969SOL     OW55739   7.420   7.539  11.526
17969SOL    HW155740   7.420   7.625  11.567
17969SOL    HW255741   7.344   7.540  11.467
17970SOL     OW55742   9.917   2.097  13.832
17970SOL    HW155743   9.846   2.054  13.879
17970SOL    HW255744   9.884   2.105  13.742
17971SOL     OW55745   7.567   0.862   4.023
17971SOL    HW155746   7.562   0.846   4.117
17971SOL    HW255747   7.520   0.788   3.984
17972SOL     OW55748   1.505  14.507   2.171
17972SOL    HW155749   1.473  14.425   2.209
17972SOL    HW255750   1.429  14.565   2.171
17973SOL     OW55751  10.303   3.968   2.957
17973SOL    HW155752  10.250   4.036   2.915
17973SOL    HW255753  10.371   4.017   3.004
17974SOL     OW55754   4.054   0.524  12.156
17974SOL    HW155755   4.076   0.451  12.098
17974SOL    HW255756   3.964   0.507  12.183
17975SOL     OW55757   5.517  11.319   8.213
17975SOL    HW155758   5.576  11.372   8.158
17975SOL    HW255759   5.499  11.375   8.288
17976SOL     OW55760   8.074   0.020   7.067
17976SOL    HW155761   7.998  14.838   7.048
17976SOL    HW255762   8.120   0.027   6.983
17977SOL     OW55763   5.501  10.415   4.611
17977SOL    HW155764   5.565  10.357   4.655
17977SOL    HW255765   5.429  10.357   4.588
17978SOL     OW55766   6.600   9.070   3.919
17978SOL    HW155767   6.580   8.981   3.946
17978SOL    HW255768   6.694   9.080   3.933
17979SOL     OW55769   2.861   7.445   8.625
17979SOL    HW155770   2.945   7.467   8.667
17979SOL    HW255771   2.799   7.441   8.698
17980SOL     OW55772  12.746  11.942   2.410
17980SOL    HW155773  12.696  11.920   2.488
17980SOL    HW255774  12.805  11.868   2.397
17981SOL     OW55775   9.405   4.757  13.206
17981SOL    HW155776   9.456   4.746  13.125
17981SOL    HW255777   9.367   4.671  13.222
17982SOL     OW55778   7.707  11.918   8.392
17982SOL    HW155779   7.653  11.997   8.383
17982SOL    HW255780   7.730  11.894   8.302
17983SOL     OW55781   2.764  11.188   9.778
17983SOL    HW155782   2.722  11.200   9.693
17983SOL    HW255783   2.697  11.145   9.832
17984SOL     OW55784   2.066   6.947  14.438
17984SOL    HW155785   2.035   6.922  14.525
17984SOL    HW255786   2.000   7.010  14.407
17985SOL     OW55787   5.181   2.191   9.407
17985SOL    HW155788   5.229   2.238   9.475
17985SOL    HW255789   5.127   2.259   9.365
17986SOL     OW55790   3.693   9.749  13.881
17986SOL    HW155791   3.655   9.828  13.917
17986SOL    HW255792   3.621   9.705  13.836
17987SOL     OW55793  11.901   3.882   2.809
17987SOL    HW155794  11.814   3.881   2.769
17987SOL    HW255795  11.902   3.961   2.863
17988SOL     OW55796   5.653   4.228  14.695
17988SOL    HW155797   5.611   4.282  14.628
17988SOL    HW255798   5.746   4.229  14.672
17989SOL     OW55799   5.140   2.707   6.131
17989SOL    HW155800   5.143   2.750   6.045
17989SOL    HW255801   5.155   2.614   6.112
17990SOL     OW55802  11.340   4.976   7.772
17990SOL    HW155803  11.290   4.917   7.716
17990SOL    HW255804  11.394   5.026   7.712
17991SOL     OW55805  13.183   8.852   5.959
17991SOL    HW155806  13.181   8.768   5.913
17991SOL    HW255807  13.235   8.836   6.037
17992SOL     OW55808   7.069   7.769  12.290
17992SOL    HW155809   7.012   7.718  12.348
17992SOL    HW255810   7.153   7.724  12.293
17993SOL     OW55811   7.079   2.573  10.395
17993SOL    HW155812   7.013   2.517  10.436
17993SOL    HW255813   7.041   2.661  10.398
17994SOL     OW55814  11.231  13.766   4.115
17994SOL    HW155815  11.229  13.704   4.042
17994SOL    HW255816  11.324  13.779   4.133
17995SOL     OW55817  11.397   2.651   6.355
17995SOL    HW155818  11.398   2.745   6.373
17995SOL    HW255819  11.488   2.623   6.366
17996SOL     OW55820  12.900   3.827   1.962
17996SOL    HW155821  12.925   3.739   1.932
17996SOL    HW255822  12.879   3.816   2.055
17997SOL     OW55823   6.208  13.672   5.208
17997SOL    HW155824   6.182  13.637   5.123
17997SOL    HW255825   6.227  13.765   5.191
17998SOL     OW55826  13.294   6.289  12.642
17998SOL    HW155827  13.346   6.273  12.721
17998SOL    HW255828  13.358   6.293  12.571
17999SOL     OW55829   3.179   1.571  13.956
17999SOL    HW155830   3.195   1.663  13.977
17999SOL    HW255831   3.264   1.528  13.969
18000SOL     OW55832  11.901  10.736   6.219
18000SOL    HW155833  11.996  10.749   6.225
18000SOL    HW255834  11.864  10.822   6.239
18001SOL     OW55835  10.836   1.060   7.457
18001SOL    HW155836  10.905   0.995   7.441
18001SOL    HW255837  10.832   1.068   7.552
18002SOL     OW55838   4.321   7.179   2.707
18002SOL    HW155839   4.403   7.197   2.754
18002SOL    HW255840   4.314   7.084   2.706
18003SOL     OW55841   1.192   9.689  14.380
18003SOL    HW155842   1.260   9.689  14.448
18003SOL    HW255843   1.175   9.596  14.364
18004SOL     OW55844  10.058   1.952   2.009
18004SOL    HW155845  10.005   2.013   1.957
18004SOL    HW255846  10.147   1.987   2.004
18005SOL     OW55847   1.186   9.641   6.873
18005SOL    HW155848   1.220   9.562   6.915
18005SOL    HW255849   1.241   9.712   6.907
18006SOL     OW55850   0.199   1.048  12.090
18006SOL    HW155851   0.278   1.055  12.037
18006SOL    HW255852   0.177   0.955  12.088
18007SOL     OW55853   4.702   7.698   4.716
18007SOL    HW155854   4.738   7.663   4.797
18007SOL    HW255855   4.768   7.678   4.650
18008SOL     OW55856   8.760   3.728  11.675
18008SOL    HW155857   8.761   3.662  11.606
18008SOL    HW255858   8.746   3.811  11.628
18009SOL     OW55859   0.478  10.544   3.721
18009SOL    HW155860   0.430  10.484   3.664
18009SOL    HW255861   0.445  10.630   3.699
18010SOL     OW55862  13.671  12.499  13.896
18010SOL    HW155863  13.721  12.481  13.975
18010SOL    HW255864  13.604  12.561  13.924
18011SOL     OW55865   4.040   1.259   4.802
18011SOL    HW155866   3.983   1.251   4.726
18011SOL    HW255867   4.078   1.347   4.793
18012SOL     OW55868   3.635   8.471  11.486
18012SOL    HW155869   3.685   8.418  11.425
18012SOL    HW255870   3.584   8.531  11.431
18013SOL     OW55871   9.833   1.274   3.862
18013SOL    HW155872   9.764   1.252   3.925
18013SOL    HW255873   9.879   1.192   3.847
18014SOL     OW55874   5.495   0.860  12.557
18014SOL    HW155875   5.403   0.834  12.554
18014SOL    HW255876   5.526   0.829  12.642
18015SOL     OW55877  12.870   6.714   5.667
18015SOL    HW155878  12.917   6.631   5.658
18015SOL    HW255879  12.778   6.689   5.671
18016SOL     OW55880  11.303   8.673   6.189
18016SOL    HW155881  11.300   8.753   6.137
18016SOL    HW255882  11.257   8.608   6.136
18017SOL     OW55883  10.682  12.279   0.233
18017SOL    HW155884  10.771  12.310   0.215
18017SOL    HW255885  10.693  12.186   0.255
18018SOL     OW55886   7.709   5.704  14.489
18018SOL    HW155887   7.801   5.712  14.514
18018SOL    HW255888   7.684   5.618  14.522
18019SOL     OW55889   6.563   5.225   2.444
18019SOL    HW155890   6.522   5.181   2.519
18019SOL    HW255891   6.574   5.155   2.379
18020SOL     OW55892   9.648   5.020  10.364
18020SOL    HW155893   9.740   5.045  10.361
18020SOL    HW255894   9.647   4.930  10.396
18021SOL     OW55895   7.676  13.284   4.715
18021SOL    HW155896   7.733  13.225   4.666
18021SOL    HW255897   7.676  13.365   4.663
18022SOL     OW55898   3.927   6.765  13.482
18022SOL    HW155899   3.972   6.799  13.560
18022SOL    HW255900   3.852   6.717  13.517
18023SOL     OW55901  13.493   0.305  10.320
18023SOL    HW155902  13.549   0.265  10.254
18023SOL    HW255903  13.463   0.232  10.373
18024SOL     OW55904   9.472  14.496   6.130
18024SOL    HW155905   9.479  14.463   6.220
18024SOL    HW255906   9.382  14.476   6.104
18025SOL     OW55907  12.948   0.863   8.167
18025SOL    HW155908  12.871   0.896   8.213
18025SOL    HW255909  12.914   0.796   8.108
18026SOL     OW55910   7.326  11.740   5.779
18026SOL    HW155911   7.278  11.739   5.861
18026SOL    HW255912   7.275  11.685   5.720
18027SOL     OW55913  11.831   8.172   3.011
18027SOL    HW155914  11.884   8.181   2.931
18027SOL    HW255915  11.744   8.203   2.985
18028SOL     OW55916   4.493   4.962  13.135
18028SOL    HW155917   4.484   4.878  13.089
18028SOL    HW255918   4.412   5.009  13.116
18029SOL     OW55919   3.635   3.462   1.738
18029SOL    HW155920   3.627   3.544   1.787
18029SOL    HW255921   3.548   3.448   1.701
18030SOL     OW55922   1.760   1.922   5.973
18030SOL    HW155923   1.798   1.837   5.953
18030SOL    HW255924   1.748   1.963   5.887
18031SOL     OW55925   0.355   0.082  14.324
18031SOL    HW155926   0.347   0.168  14.283
18031SOL    HW255927   0.446   0.057  14.309
18032SOL     OW55928  12.910   6.318  12.851
18032SOL    HW155929  12.975   6.277  12.906
18032SOL    HW255930  12.880   6.394  12.901
18033SOL     OW55931   3.447   2.650   9.145
18033SOL    HW155932   3.524   2.706   9.139
18033SOL    HW255933   3.399   2.683   9.221
18034SOL     OW55934   8.063   1.510  13.343
18034SOL    HW155935   8.041   1.452  13.271
18034SOL    HW255936   8.154   1.534  13.328
18035SOL     OW55937   3.395  13.133   5.513
18035SOL    HW155938   3.351  13.139   5.428
18035SOL    HW255939   3.482  13.098   5.493
18036SOL     OW55940  12.781   9.455   7.872
18036SOL    HW155941  12.692   9.480   7.850
18036SOL    HW255942  12.789   9.365   7.841
18037SOL     OW55943  12.133  11.961   3.671
18037SOL    HW155944  12.078  11.940   3.747
18037SOL    HW255945  12.091  12.039   3.633
18038SOL     OW55946  13.418  13.257  14.768
18038SOL    HW155947  13.398  13.164  14.757
18038SOL    HW255948  13.339  13.294  14.807
18039SOL     OW55949   2.392  14.854   0.135
18039SOL    HW155950   2.365  14.762   0.128
18039SOL    HW255951   2.338   0.017   0.205
18040SOL     OW55952  12.166   4.261  14.157
18040SOL    HW155953  12.226   4.208  14.103
18040SOL    HW255954  12.097   4.288  14.097
18041SOL     OW55955   5.818   6.534  13.560
18041SOL    HW155956   5.883   6.601  13.581
18041SOL    HW255957   5.809   6.482  13.640
18042SOL     OW55958   8.473  12.539   7.965
18042SOL    HW155959   8.411  12.467   7.955
18042SOL    HW255960   8.545  12.517   7.904
18043SOL     OW55961   1.653   8.736  12.075
18043SOL    HW155962   1.633   8.702  11.988
18043SOL    HW255963   1.590   8.692  12.132
18044SOL     OW55964  10.510  13.500   7.729
18044SOL    HW155965  10.472  13.436   7.790
18044SOL    HW255966  10.482  13.470   7.642
18045SOL     OW55967  13.404  11.590  14.266
18045SOL    HW155968  13.363  11.595  14.353
18045SOL    HW255969  13.437  11.501  14.261
18046SOL     OW55970   6.096  12.340   0.706
18046SOL    HW155971   6.075  12.420   0.658
18046SOL    HW255972   6.021  12.282   0.689
18047SOL     OW55973   7.063  13.369   8.322
18047SOL    HW155974   7.155  13.363   8.348
18047SOL    HW255975   7.056  13.453   8.277
18048SOL     OW55976   3.745   0.325   7.363
18048SOL    HW155977   3.666   0.331   7.309
18048SOL    HW255978   3.809   0.381   7.319
18049SOL     OW55979   4.815   2.452   7.856
18049SOL    HW155980   4.754   2.515   7.818
18049SOL    HW255981   4.839   2.490   7.941
18050SOL     OW55982  12.639   3.346  14.328
18050SOL    HW155983  12.561   3.315  14.374
18050SOL    HW255984  12.684   3.267  14.299
18051SOL     OW55985  14.644  12.862   0.227
18051SOL    HW155986  14.691  12.781   0.207
18051SOL    HW255987  14.567  12.833   0.277
18052SOL     OW55988   4.609  14.789   1.880
18052SOL    HW155989   4.636  14.845   1.807
18052SOL    HW255990   4.542  14.841   1.925
18053SOL     OW55991  12.601  14.022  14.089
18053SOL    HW155992  12.646  14.044  14.007
18053SOL    HW255993  12.553  13.942  14.069
18054SOL     OW55994   9.461   4.551   9.849
18054SOL    HW155995   9.461   4.623   9.787
18054SOL    HW255996   9.417   4.585   9.927
18055SOL     OW55997   4.488   2.305   7.682
18055SOL    HW155998   4.528   2.279   7.599
18055SOL    HW255999   4.461   2.396   7.668
18056SOL     OW56000   3.397  11.163  14.376
18056SOL    HW156001   3.325  11.131  14.430
18056SOL    HW256002   3.475  11.118  14.410
18057SOL     OW56003  11.085   5.314   4.928
18057SOL    HW156004  11.137   5.336   5.006
18057SOL    HW256005  11.052   5.226   4.945
18058SOL     OW56006  10.478   4.456   1.247
18058SOL    HW156007  10.472   4.508   1.327
18058SOL    HW256008  10.568   4.471   1.216
18059SOL     OW56009   1.091  13.504   9.460
18059SOL    HW156010   1.098  13.586   9.510
18059SOL    HW256011   0.999  13.481   9.464
18060SOL     OW56012   8.768   6.755   1.312
18060SOL    HW156013   8.729   6.827   1.362
18060SOL    HW256014   8.805   6.796   1.234
18061SOL     OW56015   3.274  13.148   5.269
18061SOL    HW156016   3.229  13.064   5.267
18061SOL    HW256017   3.224  13.203   5.209
18062SOL     OW56018  13.409  12.368   8.973
18062SOL    HW156019  13.423  12.310   9.047
18062SOL    HW256020  13.425  12.456   9.008
18063SOL     OW56021   1.626  12.563   3.589
18063SOL    HW156022   1.540  12.523   3.582
18063SOL    HW256023   1.617  12.627   3.660
18064SOL     OW56024   9.592   1.136   8.562
18064SOL    HW156025   9.600   1.230   8.578
18064SOL    HW256026   9.674   1.112   8.519
18065SOL     OW56027   0.141  10.727  11.893
18065SOL    HW156028   0.153  10.730  11.988
18065SOL    HW256029   0.225  10.756  11.857
18066SOL     OW56030  10.417   0.853   5.065
18066SOL    HW156031  10.411   0.945   5.090
18066SOL    HW256032  10.350   0.809   5.117
18067SOL     OW56033  11.208   4.032   8.126
18067SOL    HW156034  11.235   4.052   8.037
18067SOL    HW256035  11.126   4.081   8.138
18068SOL     OW56036   3.639   4.998   2.098
18068SOL    HW156037   3.699   4.928   2.121
18068SOL    HW256038   3.610   4.976   2.009
18069SOL     OW56039   7.047   3.263  12.294
18069SOL    HW156040   7.008   3.346  12.320
18069SOL    HW256041   7.024   3.203  12.365
18070SOL     OW56042   6.218  14.761   2.369
18070SOL    HW156043   6.291  14.808   2.328
18070SOL    HW256044   6.174  14.827   2.422
18071SOL     OW56045   4.686   3.986   3.990
18071SOL    HW156046   4.672   4.081   3.991
18071SOL    HW256047   4.781   3.976   3.996
18072SOL     OW56048   1.737   2.486   6.373
18072SOL    HW156049   1.729   2.412   6.433
18072SOL    HW256050   1.779   2.449   6.295
18073SOL     OW56051   2.047   9.638   0.988
18073SOL    HW156052   2.040   9.631   0.893
18073SOL    HW256053   2.002   9.720   1.010
18074SOL     OW56054   0.810  10.264   0.764
18074SOL    HW156055   0.736  10.206   0.781
18074SOL    HW256056   0.782  10.349   0.798
18075SOL     OW56057  13.996   8.378  11.608
18075SOL    HW156058  13.977   8.348  11.696
18075SOL    HW256059  13.993   8.298  11.555
18076SOL     OW56060   4.294   2.595  14.075
18076SOL    HW156061   4.289   2.546  13.993
18076SOL    HW256062   4.342   2.536  14.134
18077SOL     OW56063   3.428  10.284   1.862
18077SOL    HW156064   3.435  10.218   1.931
18077SOL    HW256065   3.345  10.264   1.819
18078SOL     OW56066   9.126   5.780   0.590
18078SOL    HW156067   9.074   5.820   0.520
18078SOL    HW256068   9.215   5.775   0.554
18079SOL     OW56069   7.170   2.701   9.858
18079SOL    HW156070   7.190   2.612   9.886
18079SOL    HW256071   7.248   2.751   9.881
18080SOL     OW56072  14.352   3.441   3.866
18080SOL    HW156073  14.326   3.533   3.873
18080SOL    HW256074  14.293   3.395   3.925
18081SOL     OW56075   5.816  13.906  12.111
18081SOL    HW156076   5.765  13.961  12.051
18081SOL    HW256077   5.860  13.842  12.054
18082SOL     OW56078   4.898   2.028   1.090
18082SOL    HW156079   4.891   1.958   1.025
18082SOL    HW256080   4.968   2.000   1.148
18083SOL     OW56081   2.190  10.224  12.889
18083SOL    HW156082   2.246  10.247  12.815
18083SOL    HW256083   2.185  10.129  12.888
18084SOL     OW56084   0.564   7.951  10.344
18084SOL    HW156085   0.556   7.860  10.373
18084SOL    HW256086   0.492   7.963  10.282
18085SOL     OW56087   5.960  10.251  13.187
18085SOL    HW156088   5.998  10.228  13.102
18085SOL    HW256089   6.036  10.260  13.245
18086SOL     OW56090   5.863   4.517   0.653
18086SOL    HW156091   5.774   4.514   0.687
18086SOL    HW256092   5.918   4.499   0.729
18087SOL     OW56093   6.489   7.561   1.791
18087SOL    HW156094   6.531   7.647   1.797
18087SOL    HW256095   6.555   7.500   1.824
18088SOL     OW56096   8.405   3.562  10.224
18088SOL    HW156097   8.344   3.595  10.290
18088SOL    HW256098   8.370   3.476  10.200
18089SOL     OW56099  10.349   1.192   3.936
18089SOL    HW156100  10.350   1.105   3.976
18089SOL    HW256101  10.436   1.202   3.898
18090SOL     OW56102  14.165   6.324  12.771
18090SOL    HW156103  14.126   6.295  12.853
18090SOL    HW256104  14.119   6.406  12.751
18091SOL     OW56105   1.238   9.254   9.951
18091SOL    HW156106   1.232   9.184  10.016
18091SOL    HW256107   1.291   9.322   9.994
18092SOL     OW56108   6.262   6.287   4.913
18092SOL    HW156109   6.316   6.352   4.868
18092SOL    HW256110   6.320   6.252   4.982
18093SOL     OW56111   4.800  13.919   4.130
18093SOL    HW156112   4.753  13.880   4.056
18093SOL    HW256113   4.817  13.845   4.189
18094SOL     OW56114  10.484   9.344  14.407
18094SOL    HW156115  10.399   9.333  14.449
18094SOL    HW256116  10.464   9.364  14.316
18095SOL     OW56117   0.480   1.693   3.427
18095SOL    HW156118   0.564   1.695   3.380
18095SOL    HW256119   0.478   1.606   3.466
18096SOL     OW56120   2.489   6.718   0.384
18096SOL    HW156121   2.462   6.729   0.475
18096SOL    HW256122   2.481   6.806   0.346
18097SOL     OW56123   9.325  14.597   7.231
18097SOL    HW156124   9.324  14.501   7.235
18097SOL    HW256125   9.413  14.621   7.260
18098SOL     OW56126   8.701   8.921   5.052
18098SOL    HW156127   8.622   8.942   5.101
18098SOL    HW256128   8.757   8.998   5.063
18099SOL     OW56129  14.338   8.503   5.157
18099SOL    HW156130  14.261   8.548   5.190
18099SOL    HW256131  14.400   8.504   5.230
18100SOL     OW56132   8.273  12.278   4.220
18100SOL    HW156133   8.218  12.345   4.261
18100SOL    HW256134   8.362  12.298   4.250
18101SOL     OW56135  14.596   9.082   9.100
18101SOL    HW156136  14.602   9.008   9.041
18101SOL    HW256137  14.649   9.057   9.176
18102SOL     OW56138  14.013   6.381   0.940
18102SOL    HW156139  14.050   6.329   1.011
18102SOL    HW256140  13.928   6.409   0.972
18103SOL     OW56141   0.333  14.318   6.811
18103SOL    HW156142   0.399  14.345   6.875
18103SOL    HW256143   0.256  14.297   6.863
18104SOL     OW56144   4.759   9.189   1.576
18104SOL    HW156145   4.698   9.120   1.602
18104SOL    HW256146   4.737   9.207   1.485
18105SOL     OW56147   1.905   7.194  10.363
18105SOL    HW156148   1.989   7.158  10.393
18105SOL    HW256149   1.914   7.288  10.375
18106SOL     OW56150  10.905  11.112   5.589
18106SOL    HW156151  10.853  11.035   5.569
18106SOL    HW256152  10.996  11.082   5.581
18107SOL     OW56153   9.641  11.327   0.030
18107SOL    HW156154   9.639  11.366   0.117
18107SOL    HW256155   9.555  11.287   0.020
18108SOL     OW56156   0.946  10.716   2.723
18108SOL    HW156157   1.031  10.698   2.763
18108SOL    HW256158   0.949  10.810   2.703
18109SOL     OW56159   3.546   7.810   9.498
18109SOL    HW156160   3.616   7.795   9.435
18109SOL    HW256161   3.504   7.891   9.469
18110SOL     OW56162   6.796   6.204  12.475
18110SOL    HW156163   6.744   6.271  12.518
18110SOL    HW256164   6.737   6.130  12.465
18111SOL     OW56165   0.361  10.346   9.567
18111SOL    HW156166   0.307  10.421   9.592
18111SOL    HW256167   0.302  10.290   9.517
18112SOL     OW56168  10.641  13.843  10.717
18112SOL    HW156169  10.582  13.769  10.710
18112SOL    HW256170  10.587  13.919  10.693
18113SOL     OW56171   2.721   8.177   1.795
18113SOL    HW156172   2.771   8.095   1.794
18113SOL    HW256173   2.658   8.165   1.866
18114SOL     OW56174   7.677   2.626   2.556
18114SOL    HW156175   7.705   2.621   2.647
18114SOL    HW256176   7.644   2.715   2.545
18115SOL     OW56177   7.157   0.514  10.222
18115SOL    HW156178   7.181   0.439  10.276
18115SOL    HW256179   7.088   0.558  10.272
18116SOL     OW56180   9.207   2.086   7.254
18116SOL    HW156181   9.273   2.139   7.209
18116SOL    HW256182   9.184   2.018   7.191
18117SOL     OW56183   3.592   6.328   1.103
18117SOL    HW156184   3.565   6.307   1.192
18117SOL    HW256185   3.523   6.293   1.047
18118SOL     OW56186   1.064   0.349  10.834
18118SOL    HW156187   1.095   0.301  10.756
18118SOL    HW256188   1.144   0.387  10.871
18119SOL     OW56189  10.934   9.712   8.233
18119SOL    HW156190  10.955   9.631   8.279
18119SOL    HW256191  10.975   9.702   8.147
18120SOL     OW56192  14.570  11.163  13.406
18120SOL    HW156193  14.577  11.258  13.401
18120SOL    HW256194  14.478  11.144  13.387
18121SOL     OW56195  10.943   0.870   7.889
18121SOL    HW156196  11.013   0.847   7.950
18121SOL    HW256197  10.986   0.875   7.804
18122SOL     OW56198  11.209   5.029   0.065
18122SOL    HW156199  11.299   5.002   0.078
18122SOL    HW256200  11.186   5.079   0.143
18123SOL     OW56201  12.466   0.478  12.723
18123SOL    HW156202  12.382   0.508  12.689
18123SOL    HW256203  12.468   0.384  12.703
18124SOL     OW56204   0.787  11.793  10.181
18124SOL    HW156205   0.879  11.782  10.207
18124SOL    HW256206   0.742  11.814  10.263
18125SOL     OW56207   0.386  14.212   8.246
18125SOL    HW156208   0.421  14.123   8.243
18125SOL    HW256209   0.292  14.200   8.256
18126SOL     OW56210   4.560   7.519  13.154
18126SOL    HW156211   4.635   7.573  13.129
18126SOL    HW256212   4.598   7.434  13.177
18127SOL     OW56213  11.884  13.758   2.948
18127SOL    HW156214  11.972  13.775   2.980
18127SOL    HW256215  11.854  13.681   2.996
18128SOL     OW56216   6.144  12.116   3.267
18128SOL    HW156217   6.203  12.091   3.196
18128SOL    HW256218   6.097  12.192   3.233
18129SOL     OW56219  13.979   0.814  11.931
18129SOL    HW156220  14.024   0.777  12.007
18129SOL    HW256221  13.890   0.830  11.961
18130SOL     OW56222   3.549  12.925  12.324
18130SOL    HW156223   3.460  12.958  12.312
18130SOL    HW256224   3.544  12.872  12.404
18131SOL     OW56225   3.869   8.868   5.200
18131SOL    HW156226   3.943   8.907   5.153
18131SOL    HW256227   3.901   8.858   5.290
18132SOL     OW56228  13.320  10.837   2.915
18132SOL    HW156229  13.300  10.858   2.824
18132SOL    HW256230  13.267  10.760   2.934
18133SOL     OW56231   9.510  11.067   3.712
18133SOL    HW156232   9.455  11.140   3.744
18133SOL    HW256233   9.450  10.993   3.707
18134SOL     OW56234   4.026   6.679  10.230
18134SOL    HW156235   3.963   6.735  10.276
18134SOL    HW256236   4.111   6.721  10.245
18135SOL     OW56237   2.928   5.524  10.748
18135SOL    HW156238   2.931   5.438  10.790
18135SOL    HW256239   3.009   5.567  10.775
18136SOL     OW56240   4.023   9.766  12.554
18136SOL    HW156241   4.003   9.745  12.646
18136SOL    HW256242   4.106   9.812  12.558
18137SOL     OW56243  11.137   3.703  11.663
18137SOL    HW156244  11.055   3.667  11.696
18137SOL    HW256245  11.157   3.775  11.724
18138SOL     OW56246  13.732   6.910   6.039
18138SOL    HW156247  13.777   6.991   6.015
18138SOL    HW256248  13.644   6.920   6.003
18139SOL     OW56249   5.497  12.192  12.976
18139SOL    HW156250   5.488  12.184  13.071
18139SOL    HW256251   5.481  12.103  12.944
18140SOL     OW56252  14.415   4.684  10.804
18140SOL    HW156253  14.359   4.606  10.811
18140SOL    HW256254  14.479   4.673  10.874
18141SOL     OW56255  13.415   7.345  13.352
18141SOL    HW156256  13.481   7.408  13.325
18141SOL    HW256257  13.442   7.319  13.440
18142SOL     OW56258  11.837   4.967   6.258
18142SOL    HW156259  11.920   5.014   6.257
18142SOL    HW256260  11.854   4.887   6.307
18143SOL     OW56261   9.191  11.047  13.745
18143SOL    HW156262   9.243  11.031  13.823
18143SOL    HW256263   9.219  10.980  13.683
18144SOL     OW56264   1.654   8.377   4.597
18144SOL    HW156265   1.686   8.287   4.598
18144SOL    HW256266   1.564   8.371   4.566
18145SOL     OW56267   3.641  13.666   5.735
18145SOL    HW156268   3.633  13.762   5.739
18145SOL    HW256269   3.551  13.634   5.742
18146SOL     OW56270   2.666   3.287  13.999
18146SOL    HW156271   2.603   3.279  14.071
18146SOL    HW256272   2.726   3.356  14.027
18147SOL     OW56273   3.947  10.503  13.908
18147SOL    HW156274   3.853  10.516  13.903
18147SOL    HW256275   3.981  10.542  13.828
18148SOL     OW56276   2.544   7.672   3.647
18148SOL    HW156277   2.486   7.646   3.718
18148SOL    HW256278   2.498   7.645   3.567
18149SOL     OW56279  10.821  11.708   3.961
18149SOL    HW156280  10.744  11.669   4.003
18149SOL    HW256281  10.887  11.709   4.030
18150SOL     OW56282   2.713   8.647  13.322
18150SOL    HW156283   2.695   8.573  13.380
18150SOL    HW256284   2.803   8.632  13.291
18151SOL     OW56285   8.691   0.934   1.796
18151SOL    HW156286   8.598   0.912   1.802
18151SOL    HW256287   8.706   0.950   1.703
18152SOL     OW56288  14.357   1.597  13.372
18152SOL    HW156289  14.297   1.543  13.425
18152SOL    HW256290  14.417   1.635  13.436
18153SOL     OW56291   0.430   9.779   0.207
18153SOL    HW156292   0.388   9.842   0.267
18153SOL    HW256293   0.396   9.803   0.121
18154SOL     OW56294  11.267   7.336  11.573
18154SOL    HW156295  11.265   7.418  11.524
18154SOL    HW256296  11.223   7.356  11.655
18155SOL     OW56297  13.242   5.587   7.071
18155SOL    HW156298  13.181   5.607   7.142
18155SOL    HW256299  13.255   5.493   7.076
18156SOL     OW56300  10.573  10.125  11.019
18156SOL    HW156301  10.552  10.059  11.085
18156SOL    HW256302  10.491  10.171  11.004
18157SOL     OW56303   6.311  13.267  10.493
18157SOL    HW156304   6.352  13.240  10.575
18157SOL    HW256305   6.356  13.214  10.426
18158SOL     OW56306   1.011   0.525   3.195
18158SOL    HW156307   1.096   0.539   3.236
18158SOL    HW256308   0.963   0.470   3.257
18159SOL     OW56309   3.243   6.836  11.885
18159SOL    HW156310   3.241   6.798  11.798
18159SOL    HW256311   3.186   6.779  11.937
18160SOL     OW56312   7.243   4.296   9.851
18160SOL    HW156313   7.211   4.386   9.844
18160SOL    HW256314   7.207   4.263   9.934
18161SOL     OW56315  12.540   2.635  11.217
18161SOL    HW156316  12.461   2.689  11.208
18161SOL    HW256317  12.510   2.546  11.202
18162SOL     OW56318   1.325   0.414   3.153
18162SOL    HW156319   1.266   0.350   3.114
18162SOL    HW256320   1.412   0.376   3.145
18163SOL     OW56321  14.811  12.096   8.755
18163SOL    HW156322  14.794  12.190   8.762
18163SOL    HW256323  14.745  12.064   8.693
18164SOL     OW56324   5.239   1.301   3.811
18164SOL    HW156325   5.235   1.225   3.754
18164SOL    HW256326   5.309   1.280   3.873
18165SOL     OW56327   1.309   3.587  10.213
18165SOL    HW156328   1.380   3.535  10.250
18165SOL    HW256329   1.296   3.552  10.125
18166SOL     OW56330   9.110  10.304   7.396
18166SOL    HW156331   9.130  10.288   7.489
18166SOL    HW256332   9.050  10.379   7.398
18167SOL     OW56333   8.783   4.796   0.003
18167SOL    HW156334   8.746   4.812  14.789
18167SOL    HW256335   8.869   4.840  14.873
18168SOL     OW56336   2.900   4.297  11.765
18168SOL    HW156337   2.836   4.226  11.763
18168SOL    HW256338   2.904   4.328  11.674
18169SOL     OW56339   6.133   0.109   5.367
18169SOL    HW156340   6.211   0.062   5.336
18169SOL    HW256341   6.083   0.126   5.287
18170SOL     OW56342   5.624  11.337  14.676
18170SOL    HW156343   5.663  11.353  14.590
18170SOL    HW256344   5.670  11.396  14.735
18171SOL     OW56345   0.862   7.372   5.165
18171SOL    HW156346   0.922   7.442   5.187
18171SOL    HW256347   0.798   7.412   5.106
18172SOL     OW56348   2.619  11.316  12.549
18172SOL    HW156349   2.563  11.262  12.493
18172SOL    HW256350   2.691  11.343  12.492
18173SOL     OW56351  14.797   3.925   4.774
18173SOL    HW156352   0.001   3.889   4.729
18173SOL    HW256353  14.761   3.988   4.711
18174SOL     OW56354   9.970   4.907  14.317
18174SOL    HW156355   9.937   4.882  14.403
18174SOL    HW256356   9.894   4.944  14.271
18175SOL     OW56357   8.757   8.975   2.494
18175SOL    HW156358   8.663   8.967   2.476
18175SOL    HW256359   8.776   8.902   2.554
18176SOL     OW56360  13.428  14.669   4.690
18176SOL    HW156361  13.491  14.740   4.697
18176SOL    HW256362  13.463  14.600   4.746
18177SOL     OW56363   8.114  10.814   8.857
18177SOL    HW156364   8.037  10.831   8.911
18177SOL    HW256365   8.142  10.900   8.828
18178SOL     OW56366  14.648  13.211  14.848
18178SOL    HW156367  14.704  13.173   0.043
18178SOL    HW256368  14.617  13.137  14.797
18179SOL     OW56369   2.593   6.204  11.259
18179SOL    HW156370   2.599   6.182  11.166
18179SOL    HW256371   2.611   6.298  11.263
18180SOL     OW56372  13.115  13.304   9.751
18180SOL    HW156373  13.163  13.259   9.681
18180SOL    HW256374  13.043  13.349   9.705
18181SOL     OW56375   9.322   4.761   8.189
18181SOL    HW156376   9.289   4.789   8.104
18181SOL    HW256377   9.417   4.765   8.180
18182SOL     OW56378  12.622   8.165  10.581
18182SOL    HW156379  12.706   8.213  10.577
18182SOL    HW256380  12.558   8.228  10.549
18183SOL     OW56381  13.775  13.580   7.425
18183SOL    HW156382  13.823  13.592   7.343
18183SOL    HW256383  13.812  13.645   7.485
18184SOL     OW56384  11.088  11.805  14.400
18184SOL    HW156385  11.121  11.889  14.432
18184SOL    HW256386  11.022  11.779  14.465
18185SOL     OW56387  11.185   5.606   8.267
18185SOL    HW156388  11.131   5.601   8.346
18185SOL    HW256389  11.178   5.520   8.227
18186SOL     OW56390   1.857   7.288   4.925
18186SOL    HW156391   1.931   7.347   4.938
18186SOL    HW256392   1.808   7.327   4.853
18187SOL     OW56393   9.449   8.956   9.975
18187SOL    HW156394   9.360   8.987   9.956
18187SOL    HW256395   9.463   8.885   9.913
18188SOL     OW56396   7.926  11.028  11.129
18188SOL    HW156397   7.932  10.933  11.116
18188SOL    HW256398   8.008  11.052  11.170
18189SOL     OW56399   8.142   1.652   4.796
18189SOL    HW156400   8.146   1.557   4.789
18189SOL    HW256401   8.131   1.669   4.889
18190SOL     OW56402   6.520  14.496  11.909
18190SOL    HW156403   6.584  14.566  11.920
18190SOL    HW256404   6.566  14.430  11.856
18191SOL     OW56405   8.665   9.171  11.084
18191SOL    HW156406   8.725   9.143  11.015
18191SOL    HW256407   8.578   9.158  11.046
18192SOL     OW56408   8.112   4.722  14.528
18192SOL    HW156409   8.138   4.807  14.493
18192SOL    HW256410   8.016   4.724  14.525
18193SOL     OW56411   6.871   7.936  13.349
18193SOL    HW156412   6.928   7.944  13.272
18193SOL    HW256413   6.905   8.001  13.410
18194SOL     OW56414  13.679   7.732  13.524
18194SOL    HW156415  13.769   7.704  13.507
18194SOL    HW256416  13.686   7.826  13.539
18195SOL     OW56417   4.836  11.194  12.129
18195SOL    HW156418   4.870  11.183  12.218
18195SOL    HW256419   4.858  11.112  12.085
18196SOL     OW56420  11.099   6.442   0.491
18196SOL    HW156421  11.187   6.467   0.462
18196SOL    HW256422  11.114   6.387   0.568
18197SOL     OW56423   3.542  10.602  14.238
18197SOL    HW156424   3.524  10.517  14.199
18197SOL    HW256425   3.633  10.597  14.266
18198SOL     OW56426   6.202  13.002  10.895
18198SOL    HW156427   6.264  12.951  10.947
18198SOL    HW256428   6.148  12.937  10.851
18199SOL     OW56429  12.597   8.448   0.208
18199SOL    HW156430  12.508   8.481   0.222
18199SOL    HW256431  12.593   8.403   0.124
18200SOL     OW56432   6.175   1.592   6.168
18200SOL    HW156433   6.108   1.530   6.138
18200SOL    HW256434   6.172   1.586   6.264
18201SOL     OW56435  10.176  11.295   4.329
18201SOL    HW156436  10.112  11.322   4.394
18201SOL    HW256437  10.136  11.219   4.286
18202SOL     OW56438  13.595   0.544  10.178
18202SOL    HW156439  13.587   0.475  10.244
18202SOL    HW256440  13.643   0.614  10.222
18203SOL     OW56441   4.238   9.129   5.621
18203SOL    HW156442   4.326   9.100   5.647
18203SOL    HW256443   4.179   9.082   5.680
18204SOL     OW56444  13.888   1.895   6.498
18204SOL    HW156445  13.918   1.878   6.587
18204SOL    HW256446  13.852   1.983   6.500
18205SOL     OW56447  13.659   5.891  13.903
18205SOL    HW156448  13.707   5.901  13.985
18205SOL    HW256449  13.700   5.815  13.860
18206SOL     OW56450  11.169  11.435  13.707
18206SOL    HW156451  11.186  11.455  13.799
18206SOL    HW256452  11.101  11.367  13.709
18207SOL     OW56453   0.412   6.287   8.430
18207SOL    HW156454   0.329   6.316   8.468
18207SOL    HW256455   0.417   6.194   8.451
18208SOL     OW56456   3.926  11.426   9.889
18208SOL    HW156457   3.858  11.421   9.822
18208SOL    HW256458   4.008  11.408   9.842
18209SOL     OW56459  11.221   9.868  12.714
18209SOL    HW156460  11.240   9.782  12.750
18209SOL    HW256461  11.291   9.924  12.749
18210SOL     OW56462   7.597   2.005   9.817
18210SOL    HW156463   7.531   2.021   9.750
18210SOL    HW256464   7.601   1.909   9.824
18211SOL     OW56465   8.338   9.085   6.439
18211SOL    HW156466   8.291   9.152   6.389
18211SOL    HW256467   8.285   9.072   6.518
18212SOL     OW56468   7.557   6.228   5.565
18212SOL    HW156469   7.605   6.179   5.498
18212SOL    HW256470   7.610   6.307   5.579
18213SOL     OW56471  13.480   4.282   2.734
18213SOL    HW156472  13.438   4.347   2.791
18213SOL    HW256473  13.564   4.323   2.709
18214SOL     OW56474   7.563   9.388   0.471
18214SOL    HW156475   7.483   9.376   0.523
18214SOL    HW256476   7.532   9.396   0.381
18215SOL     OW56477  10.156   8.126   7.947
18215SOL    HW156478  10.146   8.221   7.943
18215SOL    HW256479  10.071   8.093   7.976
18216SOL     OW56480   2.781   7.594   5.526
18216SOL    HW156481   2.812   7.504   5.511
18216SOL    HW256482   2.796   7.609   5.619
18217SOL     OW56483  12.553   0.289   6.042
18217SOL    HW156484  12.487   0.324   6.101
18217SOL    HW256485  12.629   0.271   6.097
18218SOL     OW56486  10.539   6.360  12.670
18218SOL    HW156487  10.546   6.425  12.740
18218SOL    HW256488  10.460   6.386  12.621
18219SOL     OW56489  13.267   2.773  14.642
18219SOL    HW156490  13.360   2.790  14.655
18219SOL    HW256491  13.227   2.795  14.726
18220SOL     OW56492   4.253   0.199  13.337
18220SOL    HW156493   4.231   0.137  13.406
18220SOL    HW256494   4.191   0.271  13.348
18221SOL     OW56495   8.587   1.345  12.131
18221SOL    HW156496   8.605   1.382  12.044
18221SOL    HW256497   8.640   1.266  12.135
18222SOL     OW56498   9.105   7.444   7.359
18222SOL    HW156499   9.195   7.470   7.337
18222SOL    HW256500   9.056   7.526   7.359
18223SOL     OW56501  13.457   3.802   6.301
18223SOL    HW156502  13.526   3.861   6.271
18223SOL    HW256503  13.498   3.715   6.299
18224SOL     OW56504   3.648   9.933   6.565
18224SOL    HW156505   3.576   9.994   6.549
18224SOL    HW256506   3.669   9.897   6.479
18225SOL     OW56507   3.672   9.633   0.394
18225SOL    HW156508   3.760   9.604   0.419
18225SOL    HW256509   3.619   9.619   0.473
18226SOL     OW56510   4.852   6.628   3.657
18226SOL    HW156511   4.806   6.572   3.720
18226SOL    HW256512   4.943   6.598   3.662
18227SOL     OW56513  11.352  14.252   9.761
18227SOL    HW156514  11.359  14.346   9.746
18227SOL    HW256515  11.443  14.223   9.773
18228SOL     OW56516   4.415  12.019   8.865
18228SOL    HW156517   4.377  12.042   8.779
18228SOL    HW256518   4.506  11.996   8.846
18229SOL     OW56519  10.892   9.252   1.025
18229SOL    HW156520  10.886   9.275   0.933
18229SOL    HW256521  10.802   9.242   1.054
18230SOL     OW56522   8.712   2.280   8.078
18230SOL    HW156523   8.802   2.312   8.065
18230SOL    HW256524   8.659   2.359   8.082
18231SOL     OW56525   7.869   6.712  12.253
18231SOL    HW156526   7.886   6.791  12.304
18231SOL    HW256527   7.777   6.719  12.228
18232SOL     OW56528   1.263   6.092  11.738
18232SOL    HW156529   1.256   6.104  11.643
18232SOL    HW256530   1.258   5.997  11.750
18233SOL     OW56531   8.969  12.185   0.511
18233SOL    HW156532   8.984  12.102   0.465
18233SOL    HW256533   8.900  12.166   0.573
18234SOL     OW56534   7.358   0.648   5.016
18234SOL    HW156535   7.430   0.712   5.023
18234SOL    HW256536   7.401   0.563   5.019
18235SOL     OW56537   8.867   4.660   0.538
18235SOL    HW156538   8.930   4.728   0.562
18235SOL    HW256539   8.916   4.597   0.486
18236SOL     OW56540   0.376   5.595   9.140
18236SOL    HW156541   0.300   5.587   9.197
18236SOL    HW256542   0.340   5.597   9.051
18237SOL     OW56543  13.848   6.692   0.334
18237SOL    HW156544  13.860   6.673   0.427
18237SOL    HW256545  13.893   6.621   0.289
18238SOL     OW56546   2.960   7.722   7.195
18238SOL    HW156547   2.996   7.644   7.237
18238SOL    HW256548   2.965   7.702   7.101
18239SOL     OW56549  14.059  11.845  10.429
18239SOL    HW156550  14.010  11.832  10.348
18239SOL    HW256551  14.104  11.762  10.443
18240SOL     OW56552  12.052   8.586  11.275
18240SOL    HW156553  12.015   8.670  11.248
18240SOL    HW256554  12.051   8.589  11.371
18241SOL     OW56555   5.330   5.742   1.945
18241SOL    HW156556   5.413   5.741   1.896
18241SOL    HW256557   5.314   5.650   1.966
18242SOL     OW56558   7.642   5.544   9.628
18242SOL    HW156559   7.688   5.544   9.544
18242SOL    HW256560   7.597   5.459   9.630
18243SOL     OW56561   0.191   9.708   5.400
18243SOL    HW156562   0.148   9.775   5.347
18243SOL    HW256563   0.276   9.695   5.358
18244SOL     OW56564   1.072   7.573   0.239
18244SOL    HW156565   1.022   7.653   0.256
18244SOL    HW256566   1.061   7.558   0.145
18245SOL     OW56567   2.467  10.076  14.201
18245SOL    HW156568   2.389  10.028  14.228
18245SOL    HW256569   2.482  10.051  14.110
18246SOL     OW56570  12.930   4.388   3.143
18246SOL    HW156571  12.910   4.409   3.234
18246SOL    HW256572  13.009   4.333   3.148
18247SOL     OW56573  11.148  11.168   1.149
18247SOL    HW156574  11.230  11.202   1.185
18247SOL    HW256575  11.173  11.097   1.091
18248SOL     OW56576  13.302   5.720   6.110
18248SOL    HW156577  13.227   5.780   6.104
18248SOL    HW256578  13.362   5.762   6.172
18249SOL     OW56579   4.654   6.389   5.354
18249SOL    HW156580   4.565   6.398   5.388
18249SOL    HW256581   4.697   6.329   5.415
18250SOL     OW56582   4.869   1.752   7.150
18250SOL    HW156583   4.848   1.701   7.071
18250SOL    HW256584   4.815   1.712   7.218
18251SOL     OW56585   6.604   1.925   9.074
18251SOL    HW156586   6.696   1.947   9.082
18251SOL    HW256587   6.563   2.006   9.042
18252SOL     OW56588  11.511  13.202   5.697
18252SOL    HW156589  11.607  13.207   5.701
18252SOL    HW256590  11.493  13.182   5.605
18253SOL     OW56591   4.337   0.382  12.316
18253SOL    HW156592   4.383   0.455  12.356
18253SOL    HW256593   4.245   0.398  12.335
18254SOL     OW56594   5.389  12.356  11.923
18254SOL    HW156595   5.476  12.317  11.927
18254SOL    HW256596   5.382  12.391  11.834
18255SOL     OW56597   9.144   7.670  10.212
18255SOL    HW156598   9.189   7.687  10.128
18255SOL    HW256599   9.086   7.745  10.223
18256SOL     OW56600  12.791   4.406   0.166
18256SOL    HW156601  12.715   4.453   0.134
18256SOL    HW256602  12.756   4.328   0.209
18257SOL     OW56603   2.121  12.564   1.364
18257SOL    HW156604   2.213  12.590   1.362
18257SOL    HW256605   2.087  12.606   1.444
18258SOL     OW56606   1.993  10.647   0.477
18258SOL    HW156607   1.981  10.582   0.547
18258SOL    HW256608   2.037  10.721   0.520
18259SOL     OW56609   8.635   1.807   8.080
18259SOL    HW156610   8.638   1.897   8.111
18259SOL    HW256611   8.557   1.770   8.122
18260SOL     OW56612   8.502   4.424   7.512
18260SOL    HW156613   8.437   4.419   7.442
18260SOL    HW256614   8.559   4.497   7.487
18261SOL     OW56615   8.045   7.118   6.677
18261SOL    HW156616   8.088   7.109   6.592
18261SOL    HW256617   8.019   7.210   6.680
18262SOL     OW56618   1.429   2.065  13.687
18262SOL    HW156619   1.342   2.100  13.702
18262SOL    HW256620   1.489   2.127  13.728
18263SOL     OW56621   4.620   1.097  13.021
18263SOL    HW156622   4.711   1.083  13.049
18263SOL    HW256623   4.568   1.051  13.087
18264SOL     OW56624   8.710   0.528   6.820
18264SOL    HW156625   8.688   0.473   6.895
18264SOL    HW256626   8.777   0.587   6.853
18265SOL     OW56627   4.796  10.351   1.005
18265SOL    HW156628   4.764  10.388   1.087
18265SOL    HW256629   4.763  10.261   1.004
18266SOL     OW56630   1.600   5.415  12.850
18266SOL    HW156631   1.565   5.355  12.784
18266SOL    HW256632   1.553   5.394  12.930
18267SOL     OW56633   3.982  13.434   2.887
18267SOL    HW156634   3.893  13.449   2.920
18267SOL    HW256635   4.029  13.399   2.963
18268SOL     OW56636   6.259  12.920   1.688
18268SOL    HW156637   6.195  12.892   1.622
18268SOL    HW256638   6.278  12.841   1.738
18269SOL     OW56639   0.369  11.572   1.850
18269SOL    HW156640   0.440  11.525   1.894
18269SOL    HW256641   0.289  11.539   1.890
18270SOL     OW56642  14.202   6.097  12.201
18270SOL    HW156643  14.261   6.147  12.146
18270SOL    HW256644  14.220   6.005  12.178
18271SOL     OW56645   3.257  10.396   6.697
18271SOL    HW156646   3.260  10.491   6.688
18271SOL    HW256647   3.202  10.366   6.625
18272SOL     OW56648  10.934  10.723   2.855
18272SOL    HW156649  10.968  10.686   2.936
18272SOL    HW256650  10.906  10.647   2.804
18273SOL     OW56651  10.143   6.349   4.875
18273SOL    HW156652  10.148   6.253   4.880
18273SOL    HW256653  10.229   6.376   4.844
18274SOL     OW56654   2.505   8.375   1.489
18274SOL    HW156655   2.496   8.406   1.579
18274SOL    HW256656   2.415   8.364   1.458
18275SOL     OW56657   3.991  11.783   0.661
18275SOL    HW156658   3.929  11.711   0.651
18275SOL    HW256659   3.937  11.862   0.656
18276SOL     OW56660  14.319  11.160   4.060
18276SOL    HW156661  14.288  11.251   4.066
18276SOL    HW256662  14.382  11.152   4.131
18277SOL     OW56663   5.156  12.233  10.017
18277SOL    HW156664   5.188  12.228   9.926
18277SOL    HW256665   5.213  12.174  10.065
18278SOL     OW56666   2.979  10.565   8.918
18278SOL    HW156667   3.019  10.483   8.888
18278SOL    HW256668   2.885  10.552   8.908
18279SOL     OW56669   4.642   9.996   4.914
18279SOL    HW156670   4.603   9.971   4.831
18279SOL    HW256671   4.583   9.959   4.980
18280SOL     OW56672  10.156  12.580   7.600
18280SOL    HW156673  10.096  12.622   7.662
18280SOL    HW256674  10.200  12.653   7.556
18281SOL     OW56675   3.269   7.516  13.806
18281SOL    HW156676   3.355   7.548  13.834
18281SOL    HW256677   3.217   7.596  13.795
18282SOL     OW56678   4.289   2.830  10.625
18282SOL    HW156679   4.296   2.766  10.696
18282SOL    HW256680   4.379   2.844  10.597
18283SOL     OW56681  11.303   5.354   3.813
18283SOL    HW156682  11.307   5.330   3.906
18283SOL    HW256683  11.213   5.382   3.799
18284SOL     OW56684   5.005   3.577  12.379
18284SOL    HW156685   4.966   3.625  12.305
18284SOL    HW256686   4.969   3.488  12.371
18285SOL     OW56687   7.362   0.862   9.306
18285SOL    HW156688   7.278   0.847   9.262
18285SOL    HW256689   7.428   0.838   9.241
18286SOL     OW56690  11.316   9.830   1.097
18286SOL    HW156691  11.367   9.760   1.057
18286SOL    HW256692  11.303   9.801   1.188
18287SOL     OW56693   1.854   1.666   9.194
18287SOL    HW156694   1.787   1.645   9.259
18287SOL    HW256695   1.860   1.762   9.195
18288SOL     OW56696  14.774  10.840  11.275
18288SOL    HW156697  14.766  10.749  11.307
18288SOL    HW256698  14.731  10.892  11.342
18289SOL     OW56699  10.581   1.571   7.058
18289SOL    HW156700  10.530   1.509   7.005
18289SOL    HW256701  10.655   1.520   7.090
18290SOL     OW56702   7.726   1.524   2.136
18290SOL    HW156703   7.684   1.578   2.203
18290SOL    HW256704   7.818   1.551   2.138
18291SOL     OW56705  11.423   5.572   3.993
18291SOL    HW156706  11.429   5.599   4.084
18291SOL    HW256707  11.397   5.480   3.996
18292SOL     OW56708  11.597   9.452   4.109
18292SOL    HW156709  11.615   9.439   4.016
18292SOL    HW256710  11.501   9.452   4.116
18293SOL     OW56711   5.506   6.871   7.153
18293SOL    HW156712   5.562   6.815   7.207
18293SOL    HW256713   5.443   6.810   7.113
18294SOL     OW56714  14.745  10.755   8.385
18294SOL    HW156715  14.787  10.818   8.327
18294SOL    HW256716  14.818  10.703   8.420
18295SOL     OW56717   3.585  13.103   1.027
18295SOL    HW156718   3.611  13.164   1.096
18295SOL    HW256719   3.650  13.033   1.032
18296SOL     OW56720   3.123   8.782  11.394
18296SOL    HW156721   3.029   8.788  11.408
18296SOL    HW256722   3.139   8.831  11.313
18297SOL     OW56723  12.682   0.272   1.326
18297SOL    HW156724  12.657   0.269   1.234
18297SOL    HW256725  12.615   0.220   1.371
18298SOL     OW56726  11.253   9.183  13.295
18298SOL    HW156727  11.166   9.143  13.289
18298SOL    HW256728  11.241   9.259  13.352
18299SOL     OW56729   0.729  14.605   7.043
18299SOL    HW156730   0.769  14.691   7.056
18299SOL    HW256731   0.802  14.547   7.022
18300SOL     OW56732   1.749   9.116   2.596
18300SOL    HW156733   1.761   9.022   2.607
18300SOL    HW256734   1.754   9.130   2.502
18301SOL     OW56735   3.289   0.256   6.599
18301SOL    HW156736   3.230   0.323   6.564
18301SOL    HW256737   3.338   0.301   6.668
18302SOL     OW56738   3.172   1.738   3.080
18302SOL    HW156739   3.260   1.738   3.119
18302SOL    HW256740   3.155   1.646   3.060
18303SOL     OW56741   0.733  12.010   7.124
18303SOL    HW156742   0.681  11.931   7.107
18303SOL    HW256743   0.672  12.082   7.111
18304SOL     OW56744   8.274   5.169  12.083
18304SOL    HW156745   8.340   5.173  12.013
18304SOL    HW256746   8.194   5.200  12.042
18305SOL     OW56747   1.343  10.868  10.814
18305SOL    HW156748   1.368  10.953  10.777
18305SOL    HW256749   1.298  10.823  10.743
18306SOL     OW56750   2.089   5.026   2.561
18306SOL    HW156751   2.129   5.089   2.621
18306SOL    HW256752   2.027   4.978   2.615
18307SOL     OW56753   9.341  13.289   0.710
18307SOL    HW156754   9.329  13.194   0.706
18307SOL    HW256755   9.268  13.325   0.660
18308SOL     OW56756  12.136   6.939  10.688
18308SOL    HW156757  12.045   6.927  10.716
18308SOL    HW256758  12.152   7.033  10.697
18309SOL     OW56759   4.375   3.585   0.232
18309SOL    HW156760   4.312   3.644   0.273
18309SOL    HW256761   4.460   3.623   0.252
18310SOL     OW56762  11.865  14.374   8.958
18310SOL    HW156763  11.812  14.385   8.879
18310SOL    HW256764  11.955  14.388   8.928
18311SOL     OW56765   3.408   2.682  11.479
18311SOL    HW156766   3.366   2.682  11.393
18311SOL    HW256767   3.489   2.731  11.466
18312SOL     OW56768   0.529  13.766   4.233
18312SOL    HW156769   0.540  13.671   4.237
18312SOL    HW256770   0.597  13.801   4.291
18313SOL     OW56771   0.294  10.543   8.526
18313SOL    HW156772   0.349  10.603   8.577
18313SOL    HW256773   0.208  10.586   8.524
18314SOL     OW56774   3.151   1.879   0.564
18314SOL    HW156775   3.132   1.830   0.484
18314SOL    HW256776   3.097   1.836   0.631
18315SOL     OW56777   6.801  14.512   6.021
18315SOL    HW156778   6.754  14.429   6.023
18315SOL    HW256779   6.738  14.574   5.985
18316SOL     OW56780   1.699  12.831   7.817
18316SOL    HW156781   1.723  12.920   7.791
18316SOL    HW256782   1.744  12.774   7.755
18317SOL     OW56783   0.008   3.494  13.637
18317SOL    HW156784  14.873   3.508  13.731
18317SOL    HW256785  14.868   3.399  13.626
18318SOL     OW56786   3.604   6.337  11.236
18318SOL    HW156787   3.654   6.389  11.173
18318SOL    HW256788   3.595   6.251  11.194
18319SOL     OW56789   7.090   6.415  10.819
18319SOL    HW156790   7.078   6.509  10.806
18319SOL    HW256791   7.118   6.407  10.910
18320SOL     OW56792   7.225   3.899  14.859
18320SOL    HW156793   7.155   3.942  14.809
18320SOL    HW256794   7.247   3.821  14.807
18321SOL     OW56795   1.014   9.255   1.722
18321SOL    HW156796   1.054   9.303   1.649
18321SOL    HW256797   0.931   9.300   1.737
18322SOL     OW56798   4.654   8.086   9.708
18322SOL    HW156799   4.729   8.034   9.734
18322SOL    HW256800   4.586   8.022   9.688
18323SOL     OW56801  10.666  13.785   3.666
18323SOL    HW156802  10.700  13.728   3.597
18323SOL    HW256803  10.610  13.848   3.620
18324SOL     OW56804   9.552   0.157  13.413
18324SOL    HW156805   9.602   0.119  13.485
18324SOL    HW256806   9.564   0.251  13.423
18325SOL     OW56807   3.670   0.952  10.410
18325SOL    HW156808   3.728   0.877  10.426
18325SOL    HW256809   3.658   0.990  10.497
18326SOL     OW56810  14.798   5.455  14.547
18326SOL    HW156811  14.742   5.401  14.603
18326SOL    HW256812  14.851   5.506  14.608
18327SOL     OW56813  14.730   0.158   5.035
18327SOL    HW156814  14.823   0.139   5.025
18327SOL    HW256815  14.726   0.225   5.104
18328SOL     OW56816   3.660   4.658  14.803
18328SOL    HW156817   3.710   4.693   0.004
18328SOL    HW256818   3.706   4.690  14.726
18329SOL     OW56819   6.098  12.511   5.658
18329SOL    HW156820   6.140  12.430   5.628
18329SOL    HW256821   6.004  12.495   5.644
18330SOL     OW56822   4.361   4.364   7.659
18330SOL    HW156823   4.445   4.330   7.688
18330SOL    HW256824   4.326   4.296   7.602
18331SOL     OW56825  14.455   7.889  10.342
18331SOL    HW156826  14.388   7.911  10.277
18331SOL    HW256827  14.487   7.803  10.315
18332SOL     OW56828   1.337   3.500  11.184
18332SOL    HW156829   1.347   3.484  11.278
18332SOL    HW256830   1.266   3.443  11.157
18333SOL     OW56831  13.309  13.627  12.183
18333SOL    HW156832  13.249  13.661  12.249
18333SOL    HW256833  13.289  13.677  12.104
18334SOL     OW56834  14.112  10.700  11.741
18334SOL    HW156835  14.187  10.645  11.766
18334SOL    HW256836  14.044  10.678  11.804
18335SOL     OW56837   3.778  12.008   9.811
18335SOL    HW156838   3.827  12.085   9.782
18335SOL    HW256839   3.746  11.968   9.729
18336SOL     OW56840   0.414   8.258  10.637
18336SOL    HW156841   0.441   8.339  10.681
18336SOL    HW256842   0.479   8.247  10.567
18337SOL     OW56843  11.008   6.263  12.172
18337SOL    HW156844  10.928   6.230  12.132
18337SOL    HW256845  11.019   6.351  12.137
18338SOL     OW56846   5.110   6.551   3.696
18338SOL    HW156847   5.164   6.472   3.707
18338SOL    HW256848   5.155   6.600   3.626
18339SOL     OW56849   5.612  10.904   8.490
18339SOL    HW156850   5.538  10.890   8.431
18339SOL    HW256851   5.666  10.969   8.445
18340SOL     OW56852   7.896  14.666   7.072
18340SOL    HW156853   7.832  14.650   7.141
18340SOL    HW256854   7.844  14.673   6.992
18341SOL     OW56855   1.699   6.629  14.870
18341SOL    HW156856   1.660   6.563   0.055
18341SOL    HW256857   1.790   6.634   0.026
18342SOL     OW56858  10.509   9.618  12.238
18342SOL    HW156859  10.428   9.582  12.202
18342SOL    HW256860  10.578   9.583  12.181
18343SOL     OW56861  11.312   9.975  12.289
18343SOL    HW156862  11.304  10.068  12.265
18343SOL    HW256863  11.402   9.967  12.320
18344SOL     OW56864   7.423   2.994  11.337
18344SOL    HW156865   7.422   2.934  11.262
18344SOL    HW256866   7.375   2.946  11.405
18345SOL     OW56867   4.758   4.641   7.883
18345SOL    HW156868   4.820   4.712   7.867
18345SOL    HW256869   4.726   4.616   7.796
18346SOL     OW56870   0.808   0.308  13.044
18346SOL    HW156871   0.852   0.380  13.090
18346SOL    HW256872   0.771   0.348  12.966
18347SOL     OW56873  14.057  10.722   1.043
18347SOL    HW156874  13.978  10.691   1.087
18347SOL    HW256875  14.086  10.796   1.096
18348SOL     OW56876   6.491   8.183  14.207
18348SOL    HW156877   6.482   8.108  14.266
18348SOL    HW256878   6.453   8.256  14.255
18349SOL     OW56879   4.671   1.682   5.206
18349SOL    HW156880   4.677   1.725   5.121
18349SOL    HW256881   4.577   1.668   5.219
18350SOL     OW56882   8.738  11.754  13.234
18350SOL    HW156883   8.651  11.789  13.213
18350SOL    HW256884   8.731  11.726  13.325
18351SOL     OW56885  11.220  10.174   7.827
18351SOL    HW156886  11.236  10.252   7.879
18351SOL    HW256887  11.285  10.179   7.756
18352SOL     OW56888  14.402  13.703   2.475
18352SOL    HW156889  14.323  13.757   2.486
18352SOL    HW256890  14.425  13.713   2.383
18353SOL     OW56891  10.849  10.585   4.365
18353SOL    HW156892  10.808  10.507   4.402
18353SOL    HW256893  10.820  10.587   4.274
18354SOL     OW56894   5.871   7.811   8.178
18354SOL    HW156895   5.792   7.787   8.226
18354SOL    HW256896   5.878   7.906   8.188
18355SOL     OW56897  12.457   6.751   0.308
18355SOL    HW156898  12.497   6.683   0.254
18355SOL    HW256899  12.499   6.833   0.279
18356SOL     OW56900   3.715  13.634   7.642
18356SOL    HW156901   3.669  13.607   7.562
18356SOL    HW256902   3.714  13.729   7.639
18357SOL     OW56903   6.556   7.411  14.056
18357SOL    HW156904   6.558   7.372  13.969
18357SOL    HW256905   6.573   7.337  14.115
18358SOL     OW56906   0.547  12.191   7.550
18358SOL    HW156907   0.567  12.097   7.554
18358SOL    HW256908   0.473  12.198   7.489
18359SOL     OW56909  11.825   9.523   5.383
18359SOL    HW156910  11.851   9.615   5.390
18359SOL    HW256911  11.848   9.498   5.293
18360SOL     OW56912  11.181   4.965  14.372
18360SOL    HW156913  11.162   4.975  14.466
18360SOL    HW256914  11.111   4.908  14.340
18361SOL     OW56915  11.981  10.531   0.344
18361SOL    HW156916  11.902  10.585   0.349
18361SOL    HW256917  11.997  10.521   0.250
18362SOL     OW56918   8.246   5.483   9.606
18362SOL    HW156919   8.317   5.544   9.587
18362SOL    HW256920   8.235   5.488   9.701
18363SOL     OW56921   1.755  11.333   7.149
18363SOL    HW156922   1.764  11.242   7.119
18363SOL    HW256923   1.727  11.324   7.240
18364SOL     OW56924  10.161   0.720   9.892
18364SOL    HW156925  10.104   0.796   9.888
18364SOL    HW256926  10.134   0.666   9.817
18365SOL     OW56927   5.635   6.776  12.078
18365SOL    HW156928   5.663   6.864  12.104
18365SOL    HW256929   5.625   6.729  12.160
18366SOL     OW56930  10.058   3.075   1.038
18366SOL    HW156931  10.059   3.169   1.057
18366SOL    HW256932  10.143   3.057   0.999
18367SOL     OW56933   8.470   6.390   9.196
18367SOL    HW156934   8.499   6.324   9.259
18367SOL    HW256935   8.551   6.422   9.157
18368SOL     OW56936  10.690  10.371   6.414
18368SOL    HW156937  10.783  10.389   6.406
18368SOL    HW256938  10.685  10.293   6.468
18369SOL     OW56939   4.632   2.096   9.792
18369SOL    HW156940   4.567   2.051   9.738
18369SOL    HW256941   4.588   2.111   9.876
18370SOL     OW56942   9.952  10.561   5.770
18370SOL    HW156943   9.878  10.501   5.770
18370SOL    HW256944   9.965  10.584   5.678
18371SOL     OW56945   8.502  12.480   9.623
18371SOL    HW156946   8.436  12.426   9.667
18371SOL    HW256947   8.586  12.447   9.656
18372SOL     OW56948  12.401   2.040   6.919
18372SOL    HW156949  12.421   2.029   6.826
18372SOL    HW256950  12.454   2.115   6.947
18373SOL     OW56951   4.292   4.724  10.749
18373SOL    HW156952   4.320   4.652  10.693
18373SOL    HW256953   4.202   4.742  10.722
18374SOL     OW56954   6.166   4.632  14.103
18374SOL    HW156955   6.166   4.713  14.154
18374SOL    HW256956   6.243   4.639  14.047
18375SOL     OW56957  10.215   9.048   8.859
18375SOL    HW156958  10.206   8.985   8.930
18375SOL    HW256959  10.183   9.002   8.782
18376SOL     OW56960  14.576   1.829   3.811
18376SOL    HW156961  14.511   1.826   3.881
18376SOL    HW256962  14.614   1.742   3.809
18377SOL     OW56963  12.826   0.262   4.561
18377SOL    HW156964  12.826   0.169   4.539
18377SOL    HW256965  12.876   0.303   4.490
18378SOL     OW56966   4.427  10.683   2.639
18378SOL    HW156967   4.426  10.778   2.650
18378SOL    HW256968   4.335  10.660   2.621
18379SOL     OW56969   8.618   4.487   1.078
18379SOL    HW156970   8.650   4.473   1.168
18379SOL    HW256971   8.598   4.400   1.046
18380SOL     OW56972   0.610   2.171   8.336
18380SOL    HW156973   0.524   2.146   8.370
18380SOL    HW256974   0.601   2.263   8.312
18381SOL     OW56975   8.975   0.906   2.166
18381SOL    HW156976   8.924   0.946   2.096
18381SOL    HW256977   9.031   0.977   2.199
18382SOL     OW56978   5.273  11.942   4.789
18382SOL    HW156979   5.284  11.854   4.754
18382SOL    HW256980   5.197  11.977   4.743
18383SOL     OW56981   6.114   6.408   3.977
18383SOL    HW156982   6.161   6.432   3.898
18383SOL    HW256983   6.169   6.439   4.049
18384SOL     OW56984   5.637   1.413   5.515
18384SOL    HW156985   5.721   1.393   5.556
18384SOL    HW256986   5.584   1.450   5.586
18385SOL     OW56987  12.604  11.552   3.002
18385SOL    HW156988  12.549  11.626   2.975
18385SOL    HW256989  12.573  11.530   3.090
18386SOL     OW56990   6.368   5.491   3.022
18386SOL    HW156991   6.335   5.465   2.937
18386SOL    HW256992   6.333   5.578   3.037
18387SOL     OW56993   0.670  14.414   1.529
18387SOL    HW156994   0.674  14.430   1.624
18387SOL    HW256995   0.753  14.450   1.496
18388SOL     OW56996   3.339  11.884   5.189
18388SOL    HW156997   3.275  11.955   5.179
18388SOL    HW256998   3.293  11.818   5.241
18389SOL     OW56999   1.773   6.858  12.994
18389SOL    HW157000   1.824   6.917  12.939
18389SOL    HW257001   1.783   6.893  13.082
18390SOL     OW57002   5.840   6.774   1.254
18390SOL    HW157003   5.787   6.702   1.288
18390SOL    HW257004   5.777   6.840   1.226
18391SOL     OW57005   0.968  11.471   1.809
18391SOL    HW157006   1.030  11.535   1.773
18391SOL    HW257007   1.018  11.389   1.813
18392SOL     OW57008  11.289   7.817   2.092
18392SOL    HW157009  11.202   7.814   2.051
18392SOL    HW257010  11.275   7.865   2.174
18393SOL     OW57011  13.476   9.886   0.159
18393SOL    HW157012  13.453   9.838   0.079
18393SOL    HW257013  13.515   9.968   0.127
18394SOL     OW57014   9.236   8.346   2.767
18394SOL    HW157015   9.165   8.286   2.745
18394SOL    HW257016   9.299   8.335   2.696
18395SOL     OW57017  12.643   7.503   8.243
18395SOL    HW157018  12.689   7.583   8.267
18395SOL    HW257019  12.602   7.473   8.324
18396SOL     OW57020  13.973   4.428   5.561
18396SOL    HW157021  13.933   4.515   5.560
18396SOL    HW257022  14.035   4.431   5.635
18397SOL     OW57023   3.760   6.759   5.003
18397SOL    HW157024   3.699   6.705   4.953
18397SOL    HW257025   3.790   6.702   5.074
18398SOL     OW57026   2.953   4.207  13.675
18398SOL    HW157027   2.944   4.249  13.590
18398SOL    HW257028   2.898   4.259  13.734
18399SOL     OW57029   1.323   0.082   3.134
18399SOL    HW157030   1.371   0.135   3.198
18399SOL    HW257031   1.392   0.031   3.090
18400SOL     OW57032   6.919   7.761  10.101
18400SOL    HW157033   6.958   7.842  10.134
18400SOL    HW257034   6.871   7.726  10.176
18401SOL     OW57035   0.118   9.463  10.949
18401SOL    HW157036   0.033   9.441  10.912
18401SOL    HW257037   0.158   9.378  10.969
18402SOL     OW57038   7.570   7.537   8.387
18402SOL    HW157039   7.543   7.446   8.393
18402SOL    HW257040   7.656   7.540   8.429
18403SOL     OW57041  10.855  11.267  12.543
18403SOL    HW157042  10.876  11.210  12.469
18403SOL    HW257043  10.940  11.300  12.573
18404SOL     OW57044   6.989  10.705  13.443
18404SOL    HW157045   7.063  10.685  13.501
18404SOL    HW257046   6.914  10.660  13.482
18405SOL     OW57047  12.578   6.976   0.204
18405SOL    HW157048  12.490   6.991   0.169
18405SOL    HW257049  12.629   7.051   0.172
18406SOL     OW57050   2.255   2.648   2.019
18406SOL    HW157051   2.270   2.561   2.057
18406SOL    HW257052   2.282   2.639   1.928
18407SOL     OW57053   1.922  10.198  14.332
18407SOL    HW157054   2.007  10.228  14.298
18407SOL    HW257055   1.870  10.277  14.341
18408SOL     OW57056   8.720   8.428   6.045
18408SOL    HW157057   8.632   8.461   6.031
18408SOL    HW257058   8.714   8.377   6.126
18409SOL     OW57059   3.054  11.791   6.452
18409SOL    HW157060   3.078  11.831   6.368
18409SOL    HW257061   2.960  11.774   6.443
18410SOL     OW57062   4.245   5.021   4.778
18410SOL    HW157063   4.276   5.057   4.695
18410SOL    HW257064   4.263   5.090   4.842
18411SOL     OW57065  11.869  14.651  14.436
18411SOL    HW157066  11.918  14.727  14.404
18411SOL    HW257067  11.888  14.582  14.373
18412SOL     OW57068  11.733   4.199   0.805
18412SOL    HW157069  11.689   4.155   0.732
18412SOL    HW257070  11.738   4.133   0.873
18413SOL     OW57071   3.892  14.014  11.841
18413SOL    HW157072   3.875  13.991  11.750
18413SOL    HW257073   3.806  14.027  11.879
18414SOL     OW57074  13.165  11.770   6.579
18414SOL    HW157075  13.173  11.768   6.484
18414SOL    HW257076  13.124  11.687   6.602
18415SOL     OW57077  13.747   9.652   8.056
18415SOL    HW157078  13.660   9.613   8.066
18415SOL    HW257079  13.731   9.734   8.009
18416SOL     OW57080  10.886   6.474   1.159
18416SOL    HW157081  10.979   6.458   1.175
18416SOL    HW257082  10.873   6.446   1.068
18417SOL     OW57083   4.472   8.969   1.939
18417SOL    HW157084   4.446   8.880   1.916
18417SOL    HW257085   4.389   9.014   1.958
18418SOL     OW57086   3.248   1.033   3.861
18418SOL    HW157087   3.209   0.962   3.912
18418SOL    HW257088   3.245   1.109   3.920
18419SOL     OW57089  11.018   1.892   2.171
18419SOL    HW157090  11.050   1.829   2.235
18419SOL    HW257091  10.923   1.885   2.176
18420SOL     OW57092  10.698  11.224  10.230
18420SOL    HW157093  10.724  11.176  10.308
18420SOL    HW257094  10.666  11.308  10.263
18421SOL     OW57095  10.183   4.191   3.339
18421SOL    HW157096  10.201   4.097   3.339
18421SOL    HW257097  10.179   4.215   3.432
18422SOL     OW57098  10.937  14.133   4.931
18422SOL    HW157099  11.018  14.176   4.904
18422SOL    HW257100  10.902  14.189   5.000
18423SOL     OW57101   4.789   2.238   1.249
18423SOL    HW157102   4.861   2.254   1.310
18423SOL    HW257103   4.824   2.174   1.187
18424SOL     OW57104   1.748   8.001   7.577
18424SOL    HW157105   1.656   8.026   7.571
18424SOL    HW257106   1.749   7.908   7.555
18425SOL     OW57107   2.213   9.803  11.958
18425SOL    HW157108   2.294   9.827  11.913
18425SOL    HW257109   2.241   9.784  12.048
18426SOL     OW57110   7.569   8.988   1.667
18426SOL    HW157111   7.559   8.915   1.728
18426SOL    HW257112   7.489   9.040   1.677
18427SOL     OW57113   6.208  13.133   3.531
18427SOL    HW157114   6.207  13.127   3.435
18427SOL    HW257115   6.299  13.150   3.553
18428SOL     OW57116  13.655  14.750  14.449
18428SOL    HW157117  13.708  14.749  14.369
18428SOL    HW257118  13.672  14.666  14.490
18429SOL     OW57119  11.332  14.500   1.068
18429SOL    HW157120  11.282  14.527   0.991
18429SOL    HW257121  11.380  14.422   1.040
18430SOL     OW57122   9.488   5.248  11.460
18430SOL    HW157123   9.531   5.163  11.473
18430SOL    HW257124   9.397   5.233  11.487
18431SOL     OW57125   1.020  12.419  11.650
18431SOL    HW157126   0.958  12.491  11.635
18431SOL    HW257127   1.048  12.431  11.741
18432SOL     OW57128   2.662   4.120   7.402
18432SOL    HW157129   2.595   4.061   7.437
18432SOL    HW257130   2.623   4.208   7.409
18433SOL     OW57131   9.060   2.365   5.337
18433SOL    HW157132   9.133   2.406   5.290
18433SOL    HW257133   9.080   2.379   5.430
18434SOL     OW57134   5.150  12.814  11.991
18434SOL    HW157135   5.159  12.859  11.907
18434SOL    HW257136   5.057  12.790  11.995
18435SOL     OW57137   1.656   8.381  12.049
18435SOL    HW157138   1.717   8.432  11.996
18435SOL    HW257139   1.575   8.381  11.999
18436SOL     OW57140  12.035   7.909  13.042
18436SOL    HW157141  11.989   7.980  12.997
18436SOL    HW257142  11.966   7.857  13.082
18437SOL     OW57143   2.341  12.865  13.984
18437SOL    HW157144   2.381  12.914  13.913
18437SOL    HW257145   2.375  12.776  13.973
18438SOL     OW57146   1.078   3.404  10.000
18438SOL    HW157147   1.033   3.389   9.917
18438SOL    HW257148   1.020   3.461  10.050
18439SOL     OW57149   4.061   1.022   8.420
18439SOL    HW157150   3.981   1.026   8.473
18439SOL    HW257151   4.132   1.024   8.484
18440SOL     OW57152   9.787   4.347  11.241
18440SOL    HW157153   9.816   4.404  11.170
18440SOL    HW257154   9.868   4.308  11.275
18441SOL     OW57155   8.688  11.886  12.263
18441SOL    HW157156   8.684  11.898  12.358
18441SOL    HW257157   8.778  11.861  12.246
18442SOL     OW57158   5.869  14.105  10.518
18442SOL    HW157159   5.932  14.096  10.447
18442SOL    HW257160   5.878  14.025  10.569
18443SOL     OW57161   0.424   0.657   8.361
18443SOL    HW157162   0.383   0.584   8.409
18443SOL    HW257163   0.429   0.626   8.271
18444SOL     OW57164   9.709  10.339  13.415
18444SOL    HW157165   9.692  10.425  13.454
18444SOL    HW257166   9.799  10.344  13.383
18445SOL     OW57167   5.387  13.471   0.227
18445SOL    HW157168   5.477  13.473   0.195
18445SOL    HW257169   5.334  13.495   0.151
18446SOL     OW57170   9.463  11.472  13.203
18446SOL    HW157171   9.405  11.397  13.214
18446SOL    HW257172   9.452  11.523  13.283
18447SOL     OW57173  11.275   9.143   3.535
18447SOL    HW157174  11.221   9.072   3.567
18447SOL    HW257175  11.345   9.100   3.485
18448SOL     OW57176   6.631   6.184  13.532
18448SOL    HW157177   6.588   6.178  13.618
18448SOL    HW257178   6.725   6.183  13.552
18449SOL     OW57179   3.659   0.042  11.181
18449SOL    HW157180   3.730   0.015  11.123
18449SOL    HW257181   3.669   0.137  11.187
18450SOL     OW57182  14.117  13.144   4.773
18450SOL    HW157183  14.120  13.059   4.817
18450SOL    HW257184  14.119  13.208   4.844
18451SOL     OW57185  12.608  12.836   9.711
18451SOL    HW157186  12.542  12.896   9.746
18451SOL    HW257187  12.559  12.757   9.687
18452SOL     OW57188   9.903   0.520   9.355
18452SOL    HW157189   9.991   0.557   9.360
18452SOL    HW257190   9.884   0.492   9.445
18453SOL     OW57191  13.672   6.873   4.630
18453SOL    HW157192  13.757   6.877   4.672
18453SOL    HW257193  13.611   6.850   4.701
18454SOL     OW57194   7.266  10.056   6.950
18454SOL    HW157195   7.305  10.120   6.890
18454SOL    HW257196   7.329   9.984   6.951
18455SOL     OW57197   3.060   0.583   6.053
18455SOL    HW157198   3.104   0.639   5.989
18455SOL    HW257199   2.976   0.626   6.069
18456SOL     OW57200   0.161   2.273  14.736
18456SOL    HW157201   0.186   2.191  14.779
18456SOL    HW257202   0.071   2.289  14.763
18457SOL     OW57203   5.314   2.564  11.795
18457SOL    HW157204   5.350   2.597  11.877
18457SOL    HW257205   5.311   2.640  11.737
18458SOL     OW57206  11.411   9.153  14.188
18458SOL    HW157207  11.400   9.230  14.132
18458SOL    HW257208  11.498   9.119  14.165
18459SOL     OW57209   4.098   2.867   4.227
18459SOL    HW157210   4.041   2.875   4.150
18459SOL    HW257211   4.105   2.956   4.262
18460SOL     OW57212   3.067   1.097  13.334
18460SOL    HW157213   3.142   1.147  13.367
18460SOL    HW257214   3.000   1.163  13.316
18461SOL     OW57215  11.995   9.541   8.752
18461SOL    HW157216  11.992   9.601   8.677
18461SOL    HW257217  12.036   9.592   8.822
18462SOL     OW57218   6.259   2.637  12.695
18462SOL    HW157219   6.216   2.640  12.610
18462SOL    HW257220   6.331   2.700  12.688
18463SOL     OW57221   0.843  12.731  13.661
18463SOL    HW157222   0.934  12.715  13.634
18463SOL    HW257223   0.845  12.725  13.756
18464SOL     OW57224  12.516  13.180   0.252
18464SOL    HW157225  12.436  13.167   0.303
18464SOL    HW257226  12.581  13.126   0.296
18465SOL     OW57227  10.940   9.807   4.981
18465SOL    HW157228  10.969   9.891   4.946
18465SOL    HW257229  11.002   9.787   5.051
18466SOL     OW57230   1.731  10.967  10.162
18466SOL    HW157231   1.789  10.891  10.151
18466SOL    HW257232   1.650  10.942  10.117
18467SOL     OW57233  10.699  13.091  13.569
18467SOL    HW157234  10.742  13.036  13.635
18467SOL    HW257235  10.685  13.175  13.613
18468SOL     OW57236  14.077  14.206  12.731
18468SOL    HW157237  14.127  14.204  12.649
18468SOL    HW257238  13.986  14.192  12.704
18469SOL     OW57239   5.954   7.598  11.040
18469SOL    HW157240   6.016   7.526  11.040
18469SOL    HW257241   5.958   7.634  10.951
18470SOL     OW57242   6.629   4.793   6.394
18470SOL    HW157243   6.679   4.829   6.468
18470SOL    HW257244   6.549   4.845   6.393
18471SOL     OW57245   5.661   6.642   4.571
18471SOL    HW157246   5.738   6.699   4.566
18471SOL    HW257247   5.693   6.555   4.546
18472SOL     OW57248  13.375   5.080   3.315
18472SOL    HW157249  13.323   5.000   3.305
18472SOL    HW257250  13.332   5.128   3.386
18473SOL     OW57251   9.200   4.789   9.840
18473SOL    HW157252   9.115   4.832   9.840
18473SOL    HW257253   9.262   4.859   9.860
18474SOL     OW57254   1.812   3.744  10.146
18474SOL    HW157255   1.734   3.779  10.102
18474SOL    HW257256   1.811   3.651  10.126
18475SOL     OW57257   7.657   3.392  12.549
18475SOL    HW157258   7.695   3.421  12.631
18475SOL    HW257259   7.721   3.331  12.513
18476SOL     OW57260   5.665   7.175  11.905
18476SOL    HW157261   5.714   7.095  11.886
18476SOL    HW257262   5.700   7.240  11.844
18477SOL     OW57263   4.261   5.255  11.781
18477SOL    HW157264   4.263   5.228  11.873
18477SOL    HW257265   4.338   5.311  11.771
18478SOL     OW57266   3.047  14.135   0.502
18478SOL    HW157267   3.134  14.106   0.529
18478SOL    HW257268   3.031  14.089   0.419
18479SOL     OW57269  10.891   6.586   1.712
18479SOL    HW157270  10.801   6.553   1.706
18479SOL    HW257271  10.890   6.645   1.787
18480SOL     OW57272   5.950   6.898   1.946
18480SOL    HW157273   5.906   6.898   1.861
18480SOL    HW257274   6.039   6.867   1.928
18481SOL     OW57275  10.598   6.965   0.666
18481SOL    HW157276  10.580   6.939   0.576
18481SOL    HW257277  10.589   6.885   0.716
18482SOL     OW57278   9.254   9.184   8.515
18482SOL    HW157279   9.274   9.242   8.442
18482SOL    HW257280   9.172   9.141   8.490
18483SOL     OW57281  11.509   7.297  14.747
18483SOL    HW157282  11.520   7.272  14.656
18483SOL    HW257283  11.415   7.289  14.763
18484SOL     OW57284   5.504   2.122  10.810
18484SOL    HW157285   5.579   2.173  10.840
18484SOL    HW257286   5.433   2.148  10.869
18485SOL     OW57287   3.773  14.810   5.197
18485SOL    HW157288   3.767   0.032   5.191
18485SOL    HW257289   3.719  14.778   5.125
18486SOL     OW57290   3.066   7.117   3.599
18486SOL    HW157291   3.031   7.028   3.605
18486SOL    HW257292   2.997   7.172   3.636
18487SOL     OW57293  13.840  13.631  11.694
18487SOL    HW157294  13.922  13.679  11.701
18487SOL    HW257295  13.858  13.562  11.630
18488SOL     OW57296   6.040  11.571   3.442
18488SOL    HW157297   6.014  11.556   3.351
18488SOL    HW257298   6.124  11.616   3.436
18489SOL     OW57299  11.185  14.468   0.310
18489SOL    HW157300  11.095  14.436   0.320
18489SOL    HW257301  11.223  14.412   0.243
18490SOL     OW57302   3.790   8.925  10.935
18490SOL    HW157303   3.830   8.891  10.855
18490SOL    HW257304   3.706   8.879  10.940
18491SOL     OW57305  10.791   9.533  12.669
18491SOL    HW157306  10.862   9.538  12.733
18491SOL    HW257307  10.836   9.515  12.586
18492SOL     OW57308   7.760   3.798  11.560
18492SOL    HW157309   7.831   3.741  11.589
18492SOL    HW257310   7.682   3.744  11.567
18493SOL     OW57311  13.394   4.243   8.832
18493SOL    HW157312  13.351   4.184   8.770
18493SOL    HW257313  13.474   4.197   8.858
18494SOL     OW57314   7.483  10.863  10.968
18494SOL    HW157315   7.433  10.872  10.886
18494SOL    HW257316   7.514  10.951  10.987
18495SOL     OW57317   7.018   8.735  14.861
18495SOL    HW157318   7.093   8.761   0.041
18495SOL    HW257319   7.021   8.793  14.785
18496SOL     OW57320   0.522   1.242   9.810
18496SOL    HW157321   0.588   1.192   9.763
18496SOL    HW257322   0.570   1.313   9.852
18497SOL     OW57323   7.153  14.197   5.827
18497SOL    HW157324   7.126  14.266   5.887
18497SOL    HW257325   7.226  14.236   5.778
18498SOL     OW57326   0.847   3.262   0.617
18498SOL    HW157327   0.840   3.177   0.573
18498SOL    HW257328   0.842   3.241   0.711
18499SOL     OW57329   5.675   5.607   9.374
18499SOL    HW157330   5.768   5.625   9.361
18499SOL    HW257331   5.647   5.562   9.295
18500SOL     OW57332  10.219   5.438   0.600
18500SOL    HW157333  10.302   5.420   0.555
18500SOL    HW257334  10.154   5.395   0.545
18501SOL     OW57335   0.463  10.728   5.066
18501SOL    HW157336   0.427  10.643   5.092
18501SOL    HW257337   0.536  10.742   5.127
18502SOL     OW57338   3.666   0.514   4.067
18502SOL    HW157339   3.708   0.543   3.985
18502SOL    HW257340   3.675   0.589   4.126
18503SOL     OW57341   6.902   8.707  13.468
18503SOL    HW157342   6.838   8.776  13.486
18503SOL    HW257343   6.880   8.636  13.528
18504SOL     OW57344   6.056   0.356  12.336
18504SOL    HW157345   5.980   0.412  12.326
18504SOL    HW257346   6.021   0.271  12.361
18505SOL     OW57347   5.254  14.315   0.176
18505SOL    HW157348   5.236  14.260   0.253
18505SOL    HW257349   5.179  14.302   0.119
18506SOL     OW57350   5.738  11.832   7.245
18506SOL    HW157351   5.814  11.890   7.242
18506SOL    HW257352   5.672  11.882   7.294
18507SOL     OW57353   4.353   7.167   0.919
18507SOL    HW157354   4.339   7.205   1.006
18507SOL    HW257355   4.443   7.192   0.896
18508SOL     OW57356   3.005   7.162   6.517
18508SOL    HW157357   2.998   7.168   6.612
18508SOL    HW257358   3.023   7.251   6.488
18509SOL     OW57359   6.534   7.064   5.545
18509SOL    HW157360   6.593   7.084   5.617
18509SOL    HW257361   6.485   6.987   5.575
18510SOL     OW57362   1.396   2.359   8.171
18510SOL    HW157363   1.328   2.372   8.237
18510SOL    HW257364   1.414   2.265   8.174
18511SOL     OW57365   9.437   4.940  12.093
18511SOL    HW157366   9.389   4.879  12.149
18511SOL    HW257367   9.430   4.902  12.005
18512SOL     OW57368  10.683  10.238   9.163
18512SOL    HW157369  10.641  10.200   9.241
18512SOL    HW257370  10.659  10.178   9.092
18513SOL     OW57371   5.968   1.970   2.633
18513SOL    HW157372   5.999   2.055   2.600
18513SOL    HW257373   5.878   1.986   2.661
18514SOL     OW57374  13.811  14.277   9.826
18514SOL    HW157375  13.726  14.278   9.871
18514SOL    HW257376  13.870  14.237   9.890
18515SOL     OW57377  12.034  12.537  10.495
18515SOL    HW157378  12.086  12.594  10.552
18515SOL    HW257379  11.945  12.544  10.529
18516SOL     OW57380   5.494   1.576   9.333
18516SOL    HW157381   5.402   1.565   9.356
18516SOL    HW257382   5.493   1.592   9.238
18517SOL     OW57383   9.583   0.539   6.533
18517SOL    HW157384   9.510   0.593   6.563
18517SOL    HW257385   9.637   0.599   6.481
18518SOL     OW57386   6.459  11.599   6.764
18518SOL    HW157387   6.473  11.691   6.741
18518SOL    HW257388   6.542  11.557   6.743
18519SOL     OW57389  13.908   7.445   9.383
18519SOL    HW157390  13.958   7.396   9.448
18519SOL    HW257391  13.968   7.455   9.309
18520SOL     OW57392  11.308   3.553   1.602
18520SOL    HW157393  11.395   3.579   1.630
18520SOL    HW257394  11.266   3.520   1.681
18521SOL     OW57395   6.381   3.400   5.407
18521SOL    HW157396   6.343   3.433   5.326
18521SOL    HW257397   6.307   3.392   5.467
18522SOL     OW57398   3.313   7.601  10.227
18522SOL    HW157399   3.229   7.582  10.268
18522SOL    HW257400   3.317   7.697  10.223
18523SOL     OW57401   8.548   9.425   2.057
18523SOL    HW157402   8.609   9.434   2.129
18523SOL    HW257403   8.593   9.369   1.994
18524SOL     OW57404   3.269   6.432   1.201
18524SOL    HW157405   3.200   6.486   1.238
18524SOL    HW257406   3.351   6.476   1.226
18525SOL     OW57407  14.120   3.685   8.486
18525SOL    HW157408  14.077   3.768   8.464
18525SOL    HW257409  14.104   3.629   8.410
18526SOL     OW57410   4.522   8.591   6.074
18526SOL    HW157411   4.520   8.496   6.059
18526SOL    HW257412   4.431   8.618   6.068
18527SOL     OW57413   3.492   0.662   1.267
18527SOL    HW157414   3.584   0.676   1.245
18527SOL    HW257415   3.446   0.662   1.183
18528SOL     OW57416   1.568  14.455  12.835
18528SOL    HW157417   1.576  14.502  12.752
18528SOL    HW257418   1.653  14.469  12.878
18529SOL     OW57419   6.673   3.579   1.662
18529SOL    HW157420   6.616   3.525   1.607
18529SOL    HW257421   6.708   3.645   1.602
18530SOL     OW57422   5.153   5.092   2.377
18530SOL    HW157423   5.189   5.005   2.360
18530SOL    HW257424   5.156   5.137   2.293
18531SOL     OW57425  10.388   6.534   2.154
18531SOL    HW157426  10.304   6.489   2.151
18531SOL    HW257427  10.452   6.467   2.133
18532SOL     OW57428  13.480   5.249  13.283
18532SOL    HW157429  13.556   5.233  13.338
18532SOL    HW257430  13.516   5.268  13.197
18533SOL     OW57431  14.623   6.735  11.589
18533SOL    HW157432  14.530   6.712  11.588
18533SOL    HW257433  14.669   6.652  11.574
18534SOL     OW57434   4.227  12.067  11.817
18534SOL    HW157435   4.146  12.116  11.806
18534SOL    HW257436   4.263  12.097  11.900
18535SOL     OW57437   6.517   0.393   3.730
18535SOL    HW157438   6.549   0.303   3.732
18535SOL    HW257439   6.589   0.444   3.768
18536SOL     OW57440   3.083  11.512   1.914
18536SOL    HW157441   3.010  11.571   1.935
18536SOL    HW257442   3.133  11.507   1.995
18537SOL     OW57443   9.607   2.833   2.330
18537SOL    HW157444   9.541   2.884   2.378
18537SOL    HW257445   9.632   2.764   2.391
18538SOL     OW57446   5.208  13.464   1.862
18538SOL    HW157447   5.185  13.515   1.785
18538SOL    HW257448   5.128  13.464   1.915
18539SOL     OW57449   8.897   9.502   6.651
18539SOL    HW157450   8.886   9.488   6.745
18539SOL    HW257451   8.825   9.453   6.611
18540SOL     OW57452  14.582  13.187   4.719
18540SOL    HW157453  14.506  13.173   4.663
18540SOL    HW257454  14.643  13.238   4.666
18541SOL     OW57455   8.459  12.116   4.045
18541SOL    HW157456   8.376  12.159   4.065
18541SOL    HW257457   8.467  12.047   4.111
18542SOL     OW57458  11.330   9.342   8.712
18542SOL    HW157459  11.397   9.274   8.702
18542SOL    HW257460  11.363   9.397   8.783
18543SOL     OW57461   4.432   5.778  11.555
18543SOL    HW157462   4.462   5.833  11.482
18543SOL    HW257463   4.483   5.809  11.630
18544SOL     OW57464   4.574   2.253   5.344
18544SOL    HW157465   4.552   2.211   5.427
18544SOL    HW257466   4.513   2.214   5.281
18545SOL     OW57467  14.447   4.773  12.820
18545SOL    HW157468  14.543   4.766  12.821
18545SOL    HW257469  14.430   4.858  12.780
18546SOL     OW57470   2.688   6.768  14.720
18546SOL    HW157471   2.689   6.757  14.815
18546SOL    HW257472   2.595   6.764  14.697
18547SOL     OW57473   9.968  11.700   8.397
18547SOL    HW157474   9.931  11.627   8.447
18547SOL    HW257475   9.894  11.758   8.379
18548SOL     OW57476  11.072   0.065   3.177
18548SOL    HW157477  11.095   0.152   3.147
18548SOL    HW257478  11.129   0.006   3.128
18549SOL     OW57479   5.720   9.882   1.783
18549SOL    HW157480   5.684   9.811   1.730
18549SOL    HW257481   5.649   9.946   1.791
18550SOL     OW57482   2.635   9.149  13.025
18550SOL    HW157483   2.580   9.223  12.998
18550SOL    HW257484   2.681   9.124  12.945
18551SOL     OW57485   6.281  11.717  14.859
18551SOL    HW157486   6.217  11.786   0.007
18551SOL    HW257487   6.229  11.636  14.859
18552SOL     OW57488  14.822   4.356   0.336
18552SOL    HW157489   0.023   4.302   0.308
18552SOL    HW257490  14.745   4.309   0.302
18553SOL     OW57491   8.826  13.361   1.505
18553SOL    HW157492   8.776  13.330   1.429
18553SOL    HW257493   8.826  13.287   1.566
18554SOL     OW57494  13.579  11.225   0.922
18554SOL    HW157495  13.570  11.130   0.926
18554SOL    HW257496  13.509  11.258   0.979
18555SOL     OW57497  10.236   8.301   0.807
18555SOL    HW157498  10.246   8.207   0.824
18555SOL    HW257499  10.232   8.340   0.894
18556SOL     OW57500   1.207   1.539   3.627
18556SOL    HW157501   1.167   1.462   3.668
18556SOL    HW257502   1.226   1.598   3.700
18557SOL     OW57503   6.558   0.251   2.758
18557SOL    HW157504   6.593   0.338   2.742
18557SOL    HW257505   6.468   0.255   2.725
18558SOL     OW57506   1.494   9.220  12.583
18558SOL    HW157507   1.511   9.139  12.534
18558SOL    HW257508   1.399   9.225  12.590
18559SOL     OW57509  13.258  14.111  11.190
18559SOL    HW157510  13.281  14.021  11.213
18559SOL    HW257511  13.189  14.135  11.251
18560SOL     OW57512  14.642  12.100  11.808
18560SOL    HW157513  14.574  12.069  11.748
18560SOL    HW257514  14.723  12.095  11.757
18561SOL     OW57515   6.042   5.831  11.030
18561SOL    HW157516   5.966   5.817  11.087
18561SOL    HW257517   6.093   5.899  11.074
18562SOL     OW57518  14.525  14.279   1.633
18562SOL    HW157519  14.530  14.184   1.620
18562SOL    HW257520  14.589  14.314   1.571
18563SOL     OW57521   3.214  14.437   9.348
18563SOL    HW157522   3.201  14.496   9.274
18563SOL    HW257523   3.161  14.475   9.418
18564SOL     OW57524   1.229   2.736   1.497
18564SOL    HW157525   1.173   2.813   1.505
18564SOL    HW257526   1.279   2.734   1.578
18565SOL     OW57527   7.236  12.715   3.627
18565SOL    HW157528   7.172  12.776   3.664
18565SOL    HW257529   7.217  12.632   3.670
18566SOL     OW57530   4.394   7.934  10.646
18566SOL    HW157531   4.341   7.876  10.700
18566SOL    HW257532   4.389   7.896  10.558
18567SOL     OW57533  13.439   1.426   3.843
18567SOL    HW157534  13.415   1.360   3.777
18567SOL    HW257535  13.358   1.441   3.892
18568SOL     OW57536   8.083   8.789  14.052
18568SOL    HW157537   8.044   8.826  14.131
18568SOL    HW257538   8.177   8.802  14.062
18569SOL     OW57539   8.396   2.098   1.850
18569SOL    HW157540   8.328   2.115   1.784
18569SOL    HW257541   8.364   2.141   1.929
18570SOL     OW57542  11.655   2.678   9.719
18570SOL    HW157543  11.741   2.642   9.695
18570SOL    HW257544  11.593   2.633   9.662
18571SOL     OW57545   5.774  12.482   9.232
18571SOL    HW157546   5.794  12.564   9.277
18571SOL    HW257547   5.844  12.422   9.260
18572SOL     OW57548  11.953   4.737  12.373
18572SOL    HW157549  12.030   4.687  12.346
18572SOL    HW257550  11.926   4.785  12.295
18573SOL     OW57551   5.185  14.858   1.546
18573SOL    HW157552   5.196   0.053   1.480
18573SOL    HW257553   5.091  14.849   1.557
18574SOL     OW57554   4.026  13.165   6.264
18574SOL    HW157555   4.109  13.163   6.313
18574SOL    HW257556   3.975  13.093   6.300
18575SOL     OW57557  11.908   7.137  13.866
18575SOL    HW157558  11.859   7.217  13.850
18575SOL    HW257559  11.844   7.076  13.902
18576SOL     OW57560  12.380   0.726  14.491
18576SOL    HW157561  12.456   0.668  14.502
18576SOL    HW257562  12.349   0.743  14.580
18577SOL     OW57563   7.994   2.079   7.710
18577SOL    HW157564   8.039   2.013   7.657
18577SOL    HW257565   8.042   2.080   7.793
18578SOL     OW57566  14.138   9.627  12.174
18578SOL    HW157567  14.088   9.612  12.254
18578SOL    HW257568  14.212   9.566  12.180
18579SOL     OW57569   5.207  14.219   3.350
18579SOL    HW157570   5.136  14.206   3.287
18579SOL    HW257571   5.260  14.289   3.312
18580SOL     OW57572   8.051   6.762   1.222
18580SOL    HW157573   8.066   6.774   1.129
18580SOL    HW257574   8.109   6.825   1.264
18581SOL     OW57575  12.878  11.457   7.414
18581SOL    HW157576  12.885  11.489   7.504
18581SOL    HW257577  12.842  11.531   7.365
18582SOL     OW57578   2.766   9.994   2.168
18582SOL    HW157579   2.701   9.942   2.215
18582SOL    HW257580   2.728  10.007   2.081
18583SOL     OW57581   4.950   1.799   3.408
18583SOL    HW157582   4.910   1.798   3.321
18583SOL    HW257583   4.930   1.886   3.443
18584SOL     OW57584   2.629  11.631  12.839
18584SOL    HW157585   2.558  11.696  12.833
18584SOL    HW257586   2.586  11.547  12.823
18585SOL     OW57587   9.621   4.256  10.994
18585SOL    HW157588   9.552   4.197  11.023
18585SOL    HW257589   9.671   4.276  11.073
18586SOL     OW57590   2.558   2.409   6.211
18586SOL    HW157591   2.539   2.452   6.127
18586SOL    HW257592   2.581   2.319   6.187
18587SOL     OW57593  10.705   6.280   4.240
18587SOL    HW157594  10.764   6.277   4.164
18587SOL    HW257595  10.731   6.358   4.288
18588SOL     OW57596   8.186   9.310   1.243
18588SOL    HW157597   8.253   9.374   1.221
18588SOL    HW257598   8.181   9.252   1.167
18589SOL     OW57599  12.329   9.555   0.187
18589SOL    HW157600  12.338   9.564   0.092
18589SOL    HW257601  12.252   9.608   0.208
18590SOL     OW57602  12.749   5.666   3.279
18590SOL    HW157603  12.736   5.627   3.366
18590SOL    HW257604  12.661   5.693   3.252
18591SOL     OW57605   9.223   1.820   2.320
18591SOL    HW157606   9.267   1.746   2.278
18591SOL    HW257607   9.142   1.830   2.271
18592SOL     OW57608   8.144  14.088   4.117
18592SOL    HW157609   8.221  14.054   4.162
18592SOL    HW257610   8.163  14.077   4.024
18593SOL     OW57611   4.544   0.314   3.223
18593SOL    HW157612   4.556   0.367   3.144
18593SOL    HW257613   4.544   0.377   3.295
18594SOL     OW57614  14.851  12.137   7.000
18594SOL    HW157615   0.045  12.152   6.933
18594SOL    HW257616   0.024  12.146   7.083
18595SOL     OW57617   5.419   9.258   5.773
18595SOL    HW157618   5.346   9.269   5.834
18595SOL    HW257619   5.379   9.217   5.696
18596SOL     OW57620   3.075  13.458  10.313
18596SOL    HW157621   3.124  13.378  10.295
18596SOL    HW257622   2.986  13.439  10.282
18597SOL     OW57623   3.470   4.198  12.429
18597SOL    HW157624   3.548   4.174  12.478
18597SOL    HW257625   3.503   4.230  12.345
18598SOL     OW57626  14.058   3.290  11.790
18598SOL    HW157627  14.023   3.219  11.736
18598SOL    HW257628  14.129   3.248  11.840
18599SOL     OW57629  14.444   8.108   5.657
18599SOL    HW157630  14.396   8.183   5.693
18599SOL    HW257631  14.438   8.041   5.725
18600SOL     OW57632   6.074  14.229  11.047
18600SOL    HW157633   6.135  14.303  11.054
18600SOL    HW257634   6.114  14.170  10.983
18601SOL     OW57635   4.553   9.889   0.779
18601SOL    HW157636   4.459   9.899   0.793
18601SOL    HW257637   4.560   9.851   0.691
18602SOL     OW57638   1.985   9.975   6.315
18602SOL    HW157639   1.995   9.949   6.223
18602SOL    HW257640   1.891   9.966   6.331
18603SOL     OW57641   2.060   0.128   6.739
18603SOL    HW157642   2.069   0.107   6.832
18603SOL    HW257643   2.150   0.141   6.709
18604SOL     OW57644   8.496   1.337   9.032
18604SOL    HW157645   8.442   1.394   9.087
18604SOL    HW257646   8.437   1.308   8.963
18605SOL     OW57647  10.979   9.392   0.703
18605SOL    HW157648  10.981   9.474   0.655
18605SOL    HW257649  11.057   9.396   0.759
18606SOL     OW57650   6.223   2.664   8.690
18606SOL    HW157651   6.186   2.649   8.603
18606SOL    HW257652   6.210   2.758   8.706
18607SOL     OW57653  13.433  14.833   4.072
18607SOL    HW157654  13.398   0.041   4.108
18607SOL    HW257655  13.510  14.859   4.022
18608SOL     OW57656   4.360   4.419   0.844
18608SOL    HW157657   4.372   4.358   0.770
18608SOL    HW257658   4.289   4.380   0.895
18609SOL     OW57659   9.758   8.615  14.174
18609SOL    HW157660   9.748   8.658  14.259
18609SOL    HW257661   9.715   8.530  14.186
18610SOL     OW57662   6.239   9.826  13.443
18610SOL    HW157663   6.220   9.740  13.480
18610SOL    HW257664   6.158   9.875  13.454
18611SOL     OW57665   7.673   6.953   0.795
18611SOL    HW157666   7.585   6.928   0.824
18611SOL    HW257667   7.690   6.897   0.719
18612SOL     OW57668  12.664   6.497   2.445
18612SOL    HW157669  12.584   6.542   2.472
18612SOL    HW257670  12.703   6.556   2.381
18613SOL     OW57671   1.367   2.914  12.628
18613SOL    HW157672   1.368   2.999  12.674
18613SOL    HW257673   1.432   2.924  12.559
18614SOL     OW57674  10.086   9.787   5.155
18614SOL    HW157675  10.151   9.845   5.115
18614SOL    HW257676  10.115   9.699   5.129
18615SOL     OW57677   6.314   2.270   6.961
18615SOL    HW157678   6.346   2.247   7.048
18615SOL    HW257679   6.329   2.364   6.954
18616SOL     OW57680   6.314   8.908   0.919
18616SOL    HW157681   6.246   8.965   0.884
18616SOL    HW257682   6.272   8.862   0.991
18617SOL     OW57683   9.700   2.385   4.130
18617SOL    HW157684   9.675   2.475   4.147
18617SOL    HW257685   9.795   2.387   4.122
18618SOL     OW57686   3.422   7.437   0.992
18618SOL    HW157687   3.396   7.345   0.979
18618SOL    HW257688   3.371   7.485   0.926
18619SOL     OW57689   6.858   4.902   2.592
18619SOL    HW157690   6.857   4.995   2.568
18619SOL    HW257691   6.912   4.860   2.525
18620SOL     OW57692   7.000   9.037  11.145
18620SOL    HW157693   7.084   9.060  11.107
18620SOL    HW257694   7.017   8.958  11.196
18621SOL     OW57695  14.365   8.068   3.471
18621SOL    HW157696  14.356   8.081   3.566
18621SOL    HW257697  14.299   8.004   3.449
18622SOL     OW57698   9.802  11.960   2.939
18622SOL    HW157699   9.727  11.956   2.999
18622SOL    HW257700   9.805  12.052   2.913
18623SOL     OW57701   6.339   4.364   6.165
18623SOL    HW157702   6.403   4.327   6.225
18623SOL    HW257703   6.257   4.319   6.187
18624SOL     OW57704   9.488   9.194   4.062
18624SOL    HW157705   9.526   9.180   3.975
18624SOL    HW257706   9.408   9.243   4.046
18625SOL     OW57707   1.749   2.480   4.792
18625SOL    HW157708   1.745   2.522   4.878
18625SOL    HW257709   1.677   2.519   4.743
18626SOL     OW57710  10.067   7.771   1.131
18626SOL    HW157711  10.016   7.832   1.184
18626SOL    HW257712  10.049   7.685   1.170
18627SOL     OW57713   1.122   4.830  12.796
18627SOL    HW157714   1.212   4.796  12.794
18627SOL    HW257715   1.067   4.752  12.794
18628SOL     OW57716  11.626   8.914   9.859
18628SOL    HW157717  11.698   8.854   9.880
18628SOL    HW257718  11.554   8.857   9.832
18629SOL     OW57719   9.091   3.705  12.778
18629SOL    HW157720   9.058   3.715  12.689
18629SOL    HW257721   9.167   3.648  12.769
18630SOL     OW57722  10.326   7.583   2.997
18630SOL    HW157723  10.365   7.496   2.991
18630SOL    HW257724  10.232   7.566   3.009
18631SOL     OW57725   5.127  10.586  13.629
18631SOL    HW157726   5.051  10.571  13.686
18631SOL    HW257727   5.192  10.522  13.659
18632SOL     OW57728  10.811   2.762   9.832
18632SOL    HW157729  10.840   2.808   9.753
18632SOL    HW257730  10.820   2.669   9.810
18633SOL     OW57731  12.244   1.561   5.678
18633SOL    HW157732  12.302   1.563   5.754
18633SOL    HW257733  12.232   1.467   5.660
18634SOL     OW57734  13.174   7.808  13.827
18634SOL    HW157735  13.258   7.770  13.799
18634SOL    HW257736  13.148   7.754  13.902
18635SOL     OW57737   0.893   7.052  13.434
18635SOL    HW157738   0.911   7.064  13.340
18635SOL    HW257739   0.964   7.099  13.478
18636SOL     OW57740  13.135   0.452   1.042
18636SOL    HW157741  13.131   0.437   1.136
18636SOL    HW257742  13.107   0.543   1.031
18637SOL     OW57743   9.520   1.696   0.121
18637SOL    HW157744   9.475   1.719   0.203
18637SOL    HW257745   9.566   1.615   0.141
18638SOL     OW57746   2.863  12.070   2.965
18638SOL    HW157747   2.947  12.025   2.981
18638SOL    HW257748   2.872  12.106   2.876
18639SOL     OW57749  12.689   5.148  12.481
18639SOL    HW157750  12.691   5.208  12.556
18639SOL    HW257751  12.781   5.132  12.461
18640SOL     OW57752  13.421  11.745   2.335
18640SOL    HW157753  13.384  11.819   2.287
18640SOL    HW257754  13.460  11.785   2.413
18641SOL     OW57755  12.207  14.069  14.026
18641SOL    HW157756  12.124  14.029  14.000
18641SOL    HW257757  12.273  14.002  14.009
18642SOL     OW57758  10.930   5.537   6.712
18642SOL    HW157759  10.888   5.540   6.626
18642SOL    HW257760  11.020   5.564   6.696
18643SOL     OW57761   7.986   7.839   2.142
18643SOL    HW157762   7.956   7.925   2.113
18643SOL    HW257763   7.930   7.819   2.218
18644SOL     OW57764  10.291  12.126   1.155
18644SOL    HW157765  10.331  12.167   1.078
18644SOL    HW257766  10.334  12.168   1.229
18645SOL     OW57767   0.930   6.117   2.432
18645SOL    HW157768   0.909   6.024   2.425
18645SOL    HW257769   1.025   6.119   2.446
18646SOL     OW57770   7.146   8.353   9.506
18646SOL    HW157771   7.157   8.258   9.514
18646SOL    HW257772   7.229   8.384   9.471
18647SOL     OW57773  14.161   6.484   2.185
18647SOL    HW157774  14.235   6.423   2.181
18647SOL    HW257775  14.155   6.508   2.278
18648SOL     OW57776   7.450   7.115  14.466
18648SOL    HW157777   7.474   7.121  14.374
18648SOL    HW257778   7.507   7.046  14.501
18649SOL     OW57779   2.500   1.651  12.499
18649SOL    HW157780   2.424   1.704  12.523
18649SOL    HW257781   2.575   1.699  12.534
18650SOL     OW57782   3.155   9.762   4.563
18650SOL    HW157783   3.113   9.786   4.646
18650SOL    HW257784   3.152   9.842   4.510
18651SOL     OW57785   3.425   3.346  13.709
18651SOL    HW157786   3.472   3.334  13.792
18651SOL    HW257787   3.338   3.311  13.725
18652SOL     OW57788  10.672   7.393  11.501
18652SOL    HW157789  10.655   7.480  11.463
18652SOL    HW257790  10.586   7.351  11.503
18653SOL     OW57791  10.017   4.701   1.066
18653SOL    HW157792   9.945   4.658   1.112
18653SOL    HW257793  10.089   4.638   1.071
18654SOL     OW57794   1.455  13.597   9.901
18654SOL    HW157795   1.455  13.622   9.993
18654SOL    HW257796   1.378  13.641   9.864
18655SOL     OW57797   6.580  10.923   5.495
18655SOL    HW157798   6.626  10.966   5.567
18655SOL    HW257799   6.646  10.866   5.455
18656SOL     OW57800   7.083   7.425   7.176
18656SOL    HW157801   7.092   7.483   7.101
18656SOL    HW257802   6.994   7.390   7.168
18657SOL     OW57803   6.312   8.162   9.350
18657SOL    HW157804   6.298   8.117   9.266
18657SOL    HW257805   6.235   8.142   9.402
18658SOL     OW57806   8.816  12.025  13.321
18658SOL    HW157807   8.887  12.052  13.379
18658SOL    HW257808   8.826  11.930  13.314
18659SOL     OW57809  12.588   0.422   9.297
18659SOL    HW157810  12.671   0.386   9.327
18659SOL    HW257811  12.614   0.494   9.238
18660SOL     OW57812   9.423   8.723   0.585
18660SOL    HW157813   9.346   8.730   0.640
18660SOL    HW257814   9.497   8.728   0.646
18661SOL     OW57815  11.619   7.939  11.501
18661SOL    HW157816  11.556   7.880  11.541
18661SOL    HW257817  11.683   7.956  11.571
18662SOL     OW57818   2.528   3.996  10.340
18662SOL    HW157819   2.513   3.917  10.392
18662SOL    HW257820   2.474   3.984  10.262
18663SOL     OW57821   6.720  13.720   0.111
18663SOL    HW157822   6.671  13.638   0.106
18663SOL    HW257823   6.804  13.699   0.070
18664SOL     OW57824  14.318   1.322   8.107
18664SOL    HW157825  14.323   1.274   8.024
18664SOL    HW257826  14.233   1.366   8.103
18665SOL     OW57827   0.817   6.741  14.487
18665SOL    HW157828   0.739   6.796  14.482
18665SOL    HW257829   0.837   6.719  14.396
18666SOL     OW57830   4.668   9.961   8.085
18666SOL    HW157831   4.669   9.908   8.005
18666SOL    HW257832   4.737   9.923   8.140
18667SOL     OW57833   2.749   8.962  12.841
18667SOL    HW157834   2.727   8.889  12.899
18667SOL    HW257835   2.839   8.984  12.864
18668SOL     OW57836   0.788  14.217   8.985
18668SOL    HW157837   0.749  14.151   8.929
18668SOL    HW257838   0.713  14.264   9.023
18669SOL     OW57839  14.629   9.684   9.194
18669SOL    HW157840  14.605   9.742   9.265
18669SOL    HW257841  14.724   9.674   9.202
18670SOL     OW57842   8.313  13.690   6.959
18670SOL    HW157843   8.364  13.684   7.040
18670SOL    HW257844   8.359  13.756   6.907
18671SOL     OW57845  13.397  13.509   8.489
18671SOL    HW157846  13.376  13.433   8.436
18671SOL    HW257847  13.360  13.491   8.575
18672SOL     OW57848   8.134   0.078   3.046
18672SOL    HW157849   8.119   0.102   2.955
18672SOL    HW257850   8.225   0.103   3.063
18673SOL     OW57851  14.143   4.771   4.492
18673SOL    HW157852  14.168   4.744   4.580
18673SOL    HW257853  14.119   4.863   4.502
18674SOL     OW57854  12.574   3.439   7.234
18674SOL    HW157855  12.664   3.471   7.234
18674SOL    HW257856  12.539   3.468   7.150
18675SOL     OW57857   5.644   4.487   4.036
18675SOL    HW157858   5.566   4.523   4.078
18675SOL    HW257859   5.629   4.501   3.942
18676SOL     OW57860   3.507   9.643   7.593
18676SOL    HW157861   3.563   9.712   7.629
18676SOL    HW257862   3.545   9.562   7.626
18677SOL     OW57863  14.545  14.800   1.747
18677SOL    HW157864  14.534  14.776   1.839
18677SOL    HW257865  14.507  14.726   1.699
18678SOL     OW57866   1.809  14.792   1.922
18678SOL    HW157867   1.777  14.749   2.001
18678SOL    HW257868   1.817   0.011   1.945
18679SOL     OW57869  13.346   5.350   4.810
18679SOL    HW157870  13.319   5.270   4.767
18679SOL    HW257871  13.266   5.388   4.846
18680SOL     OW57872   7.339   3.362  12.013
18680SOL    HW157873   7.343   3.312  12.094
18680SOL    HW257874   7.264   3.420  12.023
18681SOL     OW57875   3.242   9.331   1.008
18681SOL    HW157876   3.313   9.342   0.945
18681SOL    HW257877   3.176   9.396   0.982
18682SOL     OW57878   8.340  12.054   9.873
18682SOL    HW157879   8.356  12.039   9.966
18682SOL    HW257880   8.254  12.015   9.856
18683SOL     OW57881   0.614   4.278   0.825
18683SOL    HW157882   0.527   4.266   0.863
18683SOL    HW257883   0.618   4.370   0.802
18684SOL     OW57884  10.765   5.762   5.524
18684SOL    HW157885  10.817   5.686   5.498
18684SOL    HW257886  10.828   5.834   5.525
18685SOL     OW57887   0.897  12.253  12.466
18685SOL    HW157888   0.894  12.266  12.371
18685SOL    HW257889   0.848  12.326  12.502
18686SOL     OW57890   3.680   6.075   1.665
18686SOL    HW157891   3.742   6.056   1.735
18686SOL    HW257892   3.628   6.147   1.698
18687SOL     OW57893  13.440   3.705  11.823
18687SOL    HW157894  13.418   3.613  11.808
18687SOL    HW257895  13.526   3.703  11.865
18688SOL     OW57896   8.181   7.303  10.943
18688SOL    HW157897   8.156   7.375  10.886
18688SOL    HW257898   8.104   7.287  10.997
18689SOL     OW57899   3.162   1.762  11.218
18689SOL    HW157900   3.105   1.832  11.252
18689SOL    HW257901   3.249   1.801  11.216
18690SOL     OW57902   3.324  12.047  11.554
18690SOL    HW157903   3.408  12.056  11.598
18690SOL    HW257904   3.333  12.099  11.474
18691SOL     OW57905  10.028  11.552   5.347
18691SOL    HW157906  10.001  11.605   5.422
18691SOL    HW257907  10.011  11.462   5.375
18692SOL     OW57908  14.342   5.498   6.077
18692SOL    HW157909  14.387   5.424   6.117
18692SOL    HW257910  14.408   5.539   6.021
18693SOL     OW57911   1.711   4.776   4.629
18693SOL    HW157912   1.697   4.750   4.538
18693SOL    HW257913   1.673   4.864   4.635
18694SOL     OW57914   0.874   8.660  14.861
18694SOL    HW157915   0.936   8.588  14.855
18694SOL    HW257916   0.872   8.699  14.774
18695SOL     OW57917  11.212  14.386  11.010
18695SOL    HW157918  11.123  14.423  11.009
18695SOL    HW257919  11.199  14.292  11.017
18696SOL     OW57920   7.464   0.649  12.290
18696SOL    HW157921   7.438   0.715  12.353
18696SOL    HW257922   7.505   0.580  12.342
18697SOL     OW57923   1.054   3.813  14.308
18697SOL    HW157924   1.077   3.902  14.281
18697SOL    HW257925   1.136   3.764  14.299
18698SOL     OW57926  12.749  14.275   4.904
18698SOL    HW157927  12.781  14.327   4.978
18698SOL    HW257928  12.789  14.189   4.916
18699SOL     OW57929  13.135   5.783  14.438
18699SOL    HW157930  13.203   5.849  14.444
18699SOL    HW257931  13.079   5.812  14.366
18700SOL     OW57932   0.384  12.658   8.640
18700SOL    HW157933   0.381  12.621   8.728
18700SOL    HW257934   0.465  12.709   8.637
18701SOL     OW57935   1.181  13.024   4.723
18701SOL    HW157936   1.249  13.069   4.672
18701SOL    HW257937   1.099  13.049   4.680
18702SOL     OW57938   8.725   6.212   7.686
18702SOL    HW157939   8.646   6.235   7.637
18702SOL    HW257940   8.737   6.118   7.671
18703SOL     OW57941   1.781  10.897   0.626
18703SOL    HW157942   1.832  10.851   0.693
18703SOL    HW257943   1.713  10.943   0.676
18704SOL     OW57944   8.963   1.927   1.498
18704SOL    HW157945   8.920   1.967   1.423
18704SOL    HW257946   9.056   1.929   1.476
18705SOL     OW57947   6.516   6.633   9.297
18705SOL    HW157948   6.565   6.565   9.345
18705SOL    HW257949   6.561   6.639   9.213
18706SOL     OW57950   6.936   6.193  10.108
18706SOL    HW157951   7.005   6.241  10.062
18706SOL    HW257952   6.902   6.132  10.043
18707SOL     OW57953   2.655   7.634   9.081
18707SOL    HW157954   2.686   7.611   8.993
18707SOL    HW257955   2.733   7.625   9.137
18708SOL     OW57956   2.815  10.056   6.234
18708SOL    HW157957   2.855  10.007   6.305
18708SOL    HW257958   2.741  10.002   6.206
18709SOL     OW57959  11.849   2.779  12.691
18709SOL    HW157960  11.771   2.824  12.659
18709SOL    HW257961  11.850   2.796  12.785
18710SOL     OW57962   7.083   8.972   7.094
18710SOL    HW157963   7.032   8.984   7.174
18710SOL    HW257964   7.050   9.039   7.034
18711SOL     OW57965   2.705  12.384   5.450
18711SOL    HW157966   2.647  12.318   5.489
18711SOL    HW257967   2.760  12.334   5.390
18712SOL     OW57968   5.978  10.991  14.735
18712SOL    HW157969   5.891  10.952  14.723
18712SOL    HW257970   6.008  11.009  14.646
18713SOL     OW57971   4.569   5.864  10.687
18713SOL    HW157972   4.489   5.878  10.637
18713SOL    HW257973   4.638   5.861  10.620
18714SOL     OW57974   8.272   9.967  14.738
18714SOL    HW157975   8.274  10.054  14.776
18714SOL    HW257976   8.179   9.942  14.740
18715SOL     OW57977   4.066   0.296   9.412
18715SOL    HW157978   4.118   0.356   9.465
18715SOL    HW257979   4.103   0.304   9.324
18716SOL     OW57980  14.390  14.209   0.026
18716SOL    HW157981  14.315  14.174  14.851
18716SOL    HW257982  14.436  14.264  14.836
18717SOL     OW57983  13.775   0.841  10.016
18717SOL    HW157984  13.844   0.895   9.978
18717SOL    HW257985  13.714   0.904  10.056
18718SOL     OW57986  12.387  12.495   3.404
18718SOL    HW157987  12.300  12.505   3.444
18718SOL    HW257988  12.406  12.402   3.413
18719SOL     OW57989   2.007   4.491   6.209
18719SOL    HW157990   2.042   4.478   6.297
18719SOL    HW257991   2.031   4.411   6.162
18720SOL     OW57992   2.347   8.613  10.452
18720SOL    HW157993   2.280   8.544  10.457
18720SOL    HW257994   2.350   8.635  10.359
18721SOL     OW57995   5.046   8.045   5.029
18721SOL    HW157996   5.048   8.016   4.938
18721SOL    HW257997   4.956   8.028   5.058
18722SOL     OW57998   2.763  11.861  13.069
18722SOL    HW157999   2.857  11.842  13.061
18722SOL    HW258000   2.720  11.787  13.027
18723SOL     OW58001   0.260  11.020   6.872
18723SOL    HW158002   0.195  11.091   6.869
18723SOL    HW258003   0.344  11.065   6.865
18724SOL     OW58004   5.793   5.546   9.059
18724SOL    HW158005   5.716   5.493   9.077
18724SOL    HW258006   5.864   5.483   9.049
18725SOL     OW58007   0.862   4.411   0.062
18725SOL    HW158008   0.858   4.354  14.858
18725SOL    HW258009   0.950   4.397   0.098
18726SOL     OW58010   1.965   9.311  11.235
18726SOL    HW158011   1.930   9.384  11.183
18726SOL    HW258012   1.939   9.331  11.325
18727SOL     OW58013   5.151  11.130  10.770
18727SOL    HW158014   5.189  11.046  10.743
18727SOL    HW258015   5.197  11.195  10.717
18728SOL     OW58016  14.039   0.959   7.931
18728SOL    HW158017  14.033   0.982   8.024
18728SOL    HW258018  13.951   0.929   7.909
18729SOL     OW58019  14.277   4.982  10.949
18729SOL    HW158020  14.301   4.967  11.040
18729SOL    HW258021  14.349   4.944  10.899
18730SOL     OW58022  10.822   1.527  10.785
18730SOL    HW158023  10.761   1.499  10.717
18730SOL    HW258024  10.879   1.591  10.742
18731SOL     OW58025  11.279  14.684   7.020
18731SOL    HW158026  11.253  14.773   7.046
18731SOL    HW258027  11.367  14.674   7.056
18732SOL     OW58028  12.782  14.306   1.449
18732SOL    HW158029  12.862  14.338   1.491
18732SOL    HW258030  12.807  14.292   1.358
18733SOL     OW58031   8.331   5.144   1.909
18733SOL    HW158032   8.320   5.082   1.836
18733SOL    HW258033   8.388   5.098   1.970
18734SOL     OW58034  11.343   8.218   0.291
18734SOL    HW158035  11.310   8.152   0.350
18734SOL    HW258036  11.428   8.243   0.328
18735SOL     OW58037   9.534  10.292   2.469
18735SOL    HW158038   9.606  10.247   2.425
18735SOL    HW258039   9.572  10.374   2.499
18736SOL     OW58040   5.922  10.285  13.731
18736SOL    HW158041   5.979  10.214  13.759
18736SOL    HW258042   5.974  10.336  13.669
18737SOL     OW58043  13.757  12.480   5.658
18737SOL    HW158044  13.832  12.505   5.604
18737SOL    HW258045  13.695  12.440   5.596
18738SOL     OW58046   5.173  13.227   8.617
18738SOL    HW158047   5.084  13.205   8.590
18738SOL    HW258048   5.201  13.153   8.670
18739SOL     OW58049   8.148   9.869   5.213
18739SOL    HW158050   8.105   9.814   5.148
18739SOL    HW258051   8.079   9.928   5.243
18740SOL     OW58052   8.362   9.069   7.680
18740SOL    HW158053   8.288   9.030   7.633
18740SOL    HW258054   8.411   8.993   7.714
18741SOL     OW58055   1.753   1.171  10.682
18741SOL    HW158056   1.778   1.257  10.647
18741SOL    HW258057   1.772   1.178  10.776
18742SOL     OW58058  13.907   9.371   6.129
18742SOL    HW158059  13.900   9.295   6.072
18742SOL    HW258060  13.922   9.334   6.216
18743SOL     OW58061   4.050   7.656  13.009
18743SOL    HW158062   4.072   7.576  12.962
18743SOL    HW258063   3.954   7.656  13.012
18744SOL     OW58064   2.450   1.098   5.539
18744SOL    HW158065   2.436   1.003   5.540
18744SOL    HW258066   2.366   1.135   5.515
18745SOL     OW58067   6.136   6.047   9.841
18745SOL    HW158068   6.156   6.133   9.880
18745SOL    HW258069   6.125   5.989   9.917
18746SOL     OW58070   1.801   0.586  11.225
18746SOL    HW158071   1.782   0.615  11.314
18746SOL    HW258072   1.881   0.534  11.233
18747SOL     OW58073  11.806  13.320   2.991
18747SOL    HW158074  11.720  13.346   3.024
18747SOL    HW258075  11.868  13.367   3.048
18748SOL     OW58076   0.402   9.041  12.183
18748SOL    HW158077   0.457   9.112  12.216
18748SOL    HW258078   0.402   9.053  12.088
18749SOL     OW58079   4.779   8.300  10.053
18749SOL    HW158080   4.831   8.375  10.081
18749SOL    HW258081   4.842   8.228  10.047
18750SOL     OW58082   3.502   8.767  14.567
18750SOL    HW158083   3.537   8.823  14.637
18750SOL    HW258084   3.449   8.827  14.514
18751SOL     OW58085   5.238   8.509  11.413
18751SOL    HW158086   5.162   8.451  11.415
18751SOL    HW258087   5.275   8.504  11.502
18752SOL     OW58088   6.080   9.030   5.445
18752SOL    HW158089   6.134   8.973   5.499
18752SOL    HW258090   6.075   8.985   5.360
18753SOL     OW58091  12.398   2.829  12.622
18753SOL    HW158092  12.303   2.837  12.632
18753SOL    HW258093  12.411   2.817  12.528
18754SOL     OW58094   1.697  10.163   7.931
18754SOL    HW158095   1.677  10.178   8.023
18754SOL    HW258096   1.675  10.071   7.917
18755SOL     OW58097  12.884   0.683  10.242
18755SOL    HW158098  12.906   0.611  10.302
18755SOL    HW258099  12.968   0.722  10.219
18756SOL     OW58100   0.926  10.056   2.826
18756SOL    HW158101   1.021  10.067   2.820
18756SOL    HW258102   0.912   9.962   2.811
18757SOL     OW58103   7.968   5.709  14.760
18757SOL    HW158104   7.888   5.661  14.781
18757SOL    HW258105   7.974   5.703  14.665
18758SOL     OW58106   3.167   2.572   3.914
18758SOL    HW158107   3.211   2.510   3.856
18758SOL    HW258108   3.132   2.517   3.985
18759SOL     OW58109   3.215  10.634  13.094
18759SOL    HW158110   3.222  10.538  13.097
18759SOL    HW258111   3.126  10.650  13.064
18760SOL     OW58112   3.359   0.551   3.167
18760SOL    HW158113   3.287   0.610   3.191
18760SOL    HW258114   3.381   0.505   3.247
18761SOL     OW58115   3.379   3.860   1.406
18761SOL    HW158116   3.342   3.948   1.421
18761SOL    HW258117   3.459   3.876   1.355
18762SOL     OW58118   7.564   0.867  14.463
18762SOL    HW158119   7.514   0.936  14.506
18762SOL    HW258120   7.526   0.786  14.497
18763SOL     OW58121   8.739   9.817   5.251
18763SOL    HW158122   8.748   9.911   5.240
18763SOL    HW258123   8.829   9.785   5.256
18764SOL     OW58124   1.870   7.089   4.201
18764SOL    HW158125   1.821   7.052   4.127
18764SOL    HW258126   1.954   7.043   4.199
18765SOL     OW58127   7.146  13.024   4.625
18765SOL    HW158128   7.155  13.097   4.564
18765SOL    HW258129   7.052  13.016   4.640
18766SOL     OW58130   3.912   9.433   7.677
18766SOL    HW158131   3.913   9.343   7.644
18766SOL    HW258132   3.993   9.472   7.644
18767SOL     OW58133   2.474  12.441   9.020
18767SOL    HW158134   2.540  12.423   8.953
18767SOL    HW258135   2.491  12.378   9.089
18768SOL     OW58136  12.566   8.649   4.559
18768SOL    HW158137  12.513   8.660   4.638
18768SOL    HW258138  12.655   8.668   4.587
18769SOL     OW58139   4.374   4.713   1.674
18769SOL    HW158140   4.422   4.632   1.658
18769SOL    HW258141   4.366   4.753   1.588
18770SOL     OW58142  12.382  10.961   5.728
18770SOL    HW158143  12.313  10.930   5.787
18770SOL    HW258144  12.444  11.006   5.785
18771SOL     OW58145   7.873   2.908   8.775
18771SOL    HW158146   7.902   2.826   8.814
18771SOL    HW258147   7.943   2.930   8.713
18772SOL     OW58148  13.253  10.954   4.149
18772SOL    HW158149  13.252  10.884   4.084
18772SOL    HW258150  13.337  10.998   4.136
18773SOL     OW58151   1.333   1.143  10.842
18773SOL    HW158152   1.289   1.188  10.769
18773SOL    HW258153   1.269   1.145  10.913
18774SOL     OW58154   6.628   8.902   3.245
18774SOL    HW158155   6.646   8.982   3.196
18774SOL    HW258156   6.533   8.900   3.256
18775SOL     OW58157   9.117  11.679   3.481
18775SOL    HW158158   9.129  11.697   3.387
18775SOL    HW258159   9.050  11.611   3.484
18776SOL     OW58160  14.592  13.481   2.218
18776SOL    HW158161  14.639  13.481   2.301
18776SOL    HW258162  14.637  13.415   2.165
18777SOL     OW58163   7.153   7.566   9.178
18777SOL    HW158164   7.179   7.476   9.160
18777SOL    HW258165   7.116   7.563   9.267
18778SOL     OW58166   5.203   8.670   0.735
18778SOL    HW158167   5.225   8.732   0.805
18778SOL    HW258168   5.268   8.601   0.743
18779SOL     OW58169   4.102   6.209  12.744
18779SOL    HW158170   4.109   6.305  12.741
18779SOL    HW258171   4.099   6.183  12.652
18780SOL     OW58172   6.911  12.078  12.647
18780SOL    HW158173   6.906  12.052  12.555
18780SOL    HW258174   6.819  12.082  12.675
18781SOL     OW58175  11.304   2.489   0.107
18781SOL    HW158176  11.254   2.494   0.189
18781SOL    HW258177  11.276   2.407   0.067
18782SOL     OW58178   3.912   3.886   7.473
18782SOL    HW158179   3.942   3.849   7.557
18782SOL    HW258180   3.970   3.847   7.408
18783SOL     OW58181   8.058  10.305   5.785
18783SOL    HW158182   8.039  10.392   5.751
18783SOL    HW258183   8.134  10.317   5.841
18784SOL     OW58184   4.486  10.677   1.149
18784SOL    HW158185   4.408  10.627   1.127
18784SOL    HW258186   4.559  10.618   1.130
18785SOL     OW58187   1.510   7.207   6.490
18785SOL    HW158188   1.596   7.213   6.448
18785SOL    HW258189   1.518   7.261   6.568
18786SOL     OW58190  13.791  13.295   1.153
18786SOL    HW158191  13.836  13.250   1.081
18786SOL    HW258192  13.822  13.250   1.232
18787SOL     OW58193  11.502   6.181   9.946
18787SOL    HW158194  11.465   6.263   9.914
18787SOL    HW258195  11.515   6.196  10.040
18788SOL     OW58196   8.777  14.703   8.543
18788SOL    HW158197   8.851  14.724   8.600
18788SOL    HW258198   8.816  14.691   8.456
18789SOL     OW58199   1.376   9.484  12.548
18789SOL    HW158200   1.433   9.545  12.500
18789SOL    HW258201   1.431   9.407  12.562
18790SOL     OW58202  13.162   2.381  11.157
18790SOL    HW158203  13.079   2.423  11.135
18790SOL    HW258204  13.165   2.302  11.104
18791SOL     OW58205   9.430  12.916   5.267
18791SOL    HW158206   9.515  12.879   5.244
18791SOL    HW258207   9.445  13.010   5.272
18792SOL     OW58208   2.357  13.449   8.320
18792SOL    HW158209   2.300  13.501   8.377
18792SOL    HW258210   2.331  13.474   8.231
18793SOL     OW58211   8.191   9.797  11.058
18793SOL    HW158212   8.269   9.798  11.004
18793SOL    HW258213   8.118   9.798  10.996
18794SOL     OW58214   8.573  12.833  10.875
18794SOL    HW158215   8.525  12.888  10.938
18794SOL    HW258216   8.648  12.800  10.924
18795SOL     OW58217  12.220   8.717   0.839
18795SOL    HW158218  12.209   8.789   0.901
18795SOL    HW258219  12.285   8.660   0.879
18796SOL     OW58220   6.419   9.189   6.458
18796SOL    HW158221   6.476   9.264   6.441
18796SOL    HW258222   6.371   9.176   6.376
18797SOL     OW58223   1.569   0.740   9.107
18797SOL    HW158224   1.640   0.676   9.103
18797SOL    HW258225   1.613   0.825   9.097
18798SOL     OW58226  13.061  10.260   8.725
18798SOL    HW158227  13.088  10.298   8.809
18798SOL    HW258228  12.969  10.236   8.738
18799SOL     OW58229  11.807   1.771   8.848
18799SOL    HW158230  11.760   1.736   8.772
18799SOL    HW258231  11.755   1.847   8.875
18800SOL     OW58232   2.374   0.600   1.585
18800SOL    HW158233   2.298   0.565   1.538
18800SOL    HW258234   2.416   0.658   1.522
18801SOL     OW58235  12.769   8.348   5.960
18801SOL    HW158236  12.743   8.390   6.041
18801SOL    HW258237  12.755   8.254   5.976
18802SOL     OW58238   4.686   6.015   5.680
18802SOL    HW158239   4.699   6.092   5.625
18802SOL    HW258240   4.656   6.050   5.764
18803SOL     OW58241   6.976  13.782   3.305
18803SOL    HW158242   6.906  13.847   3.315
18803SOL    HW258243   7.056  13.830   3.327
18804SOL     OW58244   3.792   2.465   7.583
18804SOL    HW158245   3.815   2.558   7.572
18804SOL    HW258246   3.716   2.453   7.526
18805SOL     OW58247  12.086   3.552   9.743
18805SOL    HW158248  12.124   3.640   9.749
18805SOL    HW258249  12.125   3.505   9.817
18806SOL     OW58250   2.804  13.211   2.792
18806SOL    HW158251   2.740  13.226   2.722
18806SOL    HW258252   2.807  13.115   2.801
18807SOL     OW58253  14.019   1.701  13.031
18807SOL    HW158254  14.036   1.659  13.115
18807SOL    HW258255  13.973   1.634  12.980
18808SOL     OW58256   5.734  11.983  13.754
18808SOL    HW158257   5.748  11.911  13.692
18808SOL    HW258258   5.822  12.002  13.788
18809SOL     OW58259   9.858   0.023  12.194
18809SOL    HW158260   9.944  14.854  12.192
18809SOL    HW258261   9.834   0.032  12.102
18810SOL     OW58262  14.847  11.896  14.727
18810SOL    HW158263   0.037  11.856  14.668
18810SOL    HW258264   0.019  11.974  14.759
18811SOL     OW58265  11.514  13.776   6.060
18811SOL    HW158266  11.518  13.713   6.132
18811SOL    HW258267  11.475  13.727   5.987
18812SOL     OW58268   6.643   1.616   3.114
18812SOL    HW158269   6.659   1.523   3.103
18812SOL    HW258270   6.563   1.620   3.168
18813SOL     OW58271  10.997  11.602   1.877
18813SOL    HW158272  11.026  11.513   1.893
18813SOL    HW258273  11.070  11.644   1.832
18814SOL     OW58274  11.012   7.449  14.857
18814SOL    HW158275  10.966   7.510  14.799
18814SOL    HW258276  11.067   7.398  14.799
18815SOL     OW58277   5.379  13.449  10.696
18815SOL    HW158278   5.323  13.459  10.773
18815SOL    HW258279   5.354  13.364  10.659
18816SOL     OW58280  11.535   5.749   3.539
18816SOL    HW158281  11.493   5.715   3.618
18816SOL    HW258282  11.554   5.841   3.559
18817SOL     OW58283  10.712   2.921  10.886
18817SOL    HW158284  10.770   2.878  10.949
18817SOL    HW258285  10.626   2.920  10.928
18818SOL     OW58286   3.160   3.907   6.197
18818SOL    HW158287   3.189   3.998   6.204
18818SOL    HW258288   3.160   3.889   6.103
18819SOL     OW58289   9.578   0.314   8.280
18819SOL    HW158290   9.531   0.272   8.352
18819SOL    HW258291   9.528   0.394   8.262
18820SOL     OW58292   7.743   2.419  14.794
18820SOL    HW158293   7.802   2.429  14.720
18820SOL    HW258294   7.683   2.349  14.768
18821SOL     OW58295   2.048   2.857   2.917
18821SOL    HW158296   2.105   2.787   2.947
18821SOL    HW258297   1.961   2.817   2.912
18822SOL     OW58298   7.437   8.244   6.325
18822SOL    HW158299   7.465   8.324   6.281
18822SOL    HW258300   7.459   8.173   6.264
18823SOL     OW58301   3.695  10.829   0.423
18823SOL    HW158302   3.744  10.881   0.360
18823SOL    HW258303   3.752  10.755   0.442
18824SOL     OW58304   6.307  13.832   2.373
18824SOL    HW158305   6.324  13.886   2.296
18824SOL    HW258306   6.265  13.891   2.435
18825SOL     OW58307  12.639   3.861  10.581
18825SOL    HW158308  12.599   3.850  10.494
18825SOL    HW258309  12.576   3.914  10.630
18826SOL     OW58310   8.986  11.239   1.306
18826SOL    HW158311   8.903  11.271   1.342
18826SOL    HW258312   9.000  11.155   1.349
18827SOL     OW58313   1.105  13.740  14.373
18827SOL    HW158314   1.085  13.801  14.301
18827SOL    HW258315   1.088  13.791  14.452
18828SOL     OW58316  13.527   1.474   9.826
18828SOL    HW158317  13.499   1.552   9.779
18828SOL    HW258318  13.615   1.495   9.859
18829SOL     OW58319  13.279  12.955   5.353
18829SOL    HW158320  13.225  12.881   5.378
18829SOL    HW258321  13.333  12.973   5.430
18830SOL     OW58322  12.294  11.724   0.852
18830SOL    HW158323  12.318  11.792   0.914
18830SOL    HW258324  12.231  11.669   0.899
18831SOL     OW58325   2.040  11.951   0.210
18831SOL    HW158326   1.992  12.024   0.252
18831SOL    HW258327   2.124  11.989   0.185
18832SOL     OW58328  14.514  11.296   7.485
18832SOL    HW158329  14.447  11.270   7.421
18832SOL    HW258330  14.549  11.213   7.517
18833SOL     OW58331   4.778   3.070  10.660
18833SOL    HW158332   4.868   3.040  10.663
18833SOL    HW258333   4.784   3.161  10.631
18834SOL     OW58334   3.765   7.716   6.690
18834SOL    HW158335   3.783   7.639   6.744
18834SOL    HW258336   3.806   7.789   6.736
18835SOL     OW58337   1.638  10.956   6.330
18835SOL    HW158338   1.713  10.902   6.357
18835SOL    HW258339   1.563  10.897   6.334
18836SOL     OW58340   1.174   5.084   2.258
18836SOL    HW158341   1.185   5.126   2.173
18836SOL    HW258342   1.213   5.145   2.320
18837SOL     OW58343  14.447   3.514   9.685
18837SOL    HW158344  14.394   3.434   9.692
18837SOL    HW258345  14.402   3.566   9.619
18838SOL     OW58346   9.723  11.637   8.691
18838SOL    HW158347   9.652  11.701   8.679
18838SOL    HW258348   9.684  11.568   8.743
18839SOL     OW58349  13.210   1.334   2.148
18839SOL    HW158350  13.287   1.344   2.204
18839SOL    HW258351  13.229   1.258   2.094
18840SOL     OW58352   2.477   6.715  12.281
18840SOL    HW158353   2.568   6.702  12.257
18840SOL    HW258354   2.432   6.729  12.198
18841SOL     OW58355   7.101   6.759  10.000
18841SOL    HW158356   7.185   6.758  10.046
18841SOL    HW258357   7.113   6.822   9.928
18842SOL     OW58358  12.255  10.498  10.682
18842SOL    HW158359  12.196  10.504  10.607
18842SOL    HW258360  12.297  10.584  10.686
18843SOL     OW58361  10.414  13.340   2.489
18843SOL    HW158362  10.475  13.395   2.537
18843SOL    HW258363  10.446  13.251   2.503
18844SOL     OW58364   8.984  11.499   1.850
18844SOL    HW158365   9.022  11.438   1.913
18844SOL    HW258366   8.959  11.576   1.902
18845SOL     OW58367   7.046  14.244   6.652
18845SOL    HW158368   7.084  14.326   6.681
18845SOL    HW258369   7.004  14.265   6.568
18846SOL     OW58370   6.200  11.739   6.570
18846SOL    HW158371   6.285  11.752   6.527
18846SOL    HW258372   6.137  11.776   6.509
18847SOL     OW58373  13.432   9.939  12.659
18847SOL    HW158374  13.350   9.988  12.661
18847SOL    HW258375  13.499  10.005  12.644
18848SOL     OW58376   6.168   9.059  12.019
18848SOL    HW158377   6.136   8.977  11.980
18848SOL    HW258378   6.123   9.064  12.103
18849SOL     OW58379  10.557   2.079  12.212
18849SOL    HW158380  10.616   2.140  12.167
18849SOL    HW258381  10.470   2.119  12.201
18850SOL     OW58382   1.312   0.722  14.834
18850SOL    HW158383   1.218   0.708  14.821
18850SOL    HW258384   1.326   0.707   0.055
18851SOL     OW58385   2.797   4.791  10.062
18851SOL    HW158386   2.801   4.740   9.981
18851SOL    HW258387   2.885   4.826  10.073
18852SOL     OW58388   2.539  11.772  13.395
18852SOL    HW158389   2.448  11.761  13.423
18852SOL    HW258390   2.539  11.853  13.344
18853SOL     OW58391  10.917   1.749  13.978
18853SOL    HW158392  10.835   1.792  13.953
18853SOL    HW258393  10.925   1.766  14.072
18854SOL     OW58394  14.173   3.765   7.749
18854SOL    HW158395  14.214   3.836   7.699
18854SOL    HW258396  14.244   3.704   7.767
18855SOL     OW58397   5.911   3.085   8.338
18855SOL    HW158398   5.915   2.997   8.376
18855SOL    HW258399   5.915   3.071   8.244
18856SOL     OW58400   7.205  13.296  14.774
18856SOL    HW158401   7.235  13.366  14.832
18856SOL    HW258402   7.221  13.328  14.686
18857SOL     OW58403   3.369  12.977  14.204
18857SOL    HW158404   3.316  12.918  14.259
18857SOL    HW258405   3.314  12.992  14.127
18858SOL     OW58406  10.907   9.062  10.365
18858SOL    HW158407  10.952   8.981  10.388
18858SOL    HW258408  10.975   9.117  10.326
18859SOL     OW58409  14.743  11.275   9.305
18859SOL    HW158410  14.662  11.292   9.353
18859SOL    HW258411  14.748  11.180   9.298
18860SOL     OW58412   1.943   8.964   2.126
18860SOL    HW158413   2.009   8.959   2.057
18860SOL    HW258414   1.993   8.984   2.205
18861SOL     OW58415   2.222   8.065   6.258
18861SOL    HW158416   2.310   8.073   6.222
18861SOL    HW258417   2.225   8.114   6.340
18862SOL     OW58418   2.172  12.420  10.857
18862SOL    HW158419   2.239  12.354  10.872
18862SOL    HW258420   2.130  12.432  10.943
18863SOL     OW58421   7.194   5.420   2.919
18863SOL    HW158422   7.143   5.340   2.910
18863SOL    HW258423   7.263   5.412   2.853
18864SOL     OW58424  10.988   1.659   5.310
18864SOL    HW158425  10.893   1.647   5.312
18864SOL    HW258426  11.002   1.729   5.246
18865SOL     OW58427  10.426   0.926   4.722
18865SOL    HW158428  10.347   0.969   4.688
18865SOL    HW258429  10.400   0.834   4.732
18866SOL     OW58430   9.136  14.303   8.610
18866SOL    HW158431   9.231  14.291   8.607
18866SOL    HW258432   9.120  14.373   8.547
18867SOL     OW58433   7.002   2.984   7.983
18867SOL    HW158434   6.910   2.991   8.008
18867SOL    HW258435   7.043   2.932   8.052
18868SOL     OW58436   8.884   2.079  10.499
18868SOL    HW158437   8.933   2.161  10.504
18868SOL    HW258438   8.846   2.069  10.586
18869SOL     OW58439  14.670   0.746  10.343
18869SOL    HW158440  14.691   0.835  10.315
18869SOL    HW258441  14.628   0.756  10.428
18870SOL     OW58442   6.649   0.320  12.836
18870SOL    HW158443   6.666   0.226  12.846
18870SOL    HW258444   6.669   0.339  12.744
18871SOL     OW58445  10.431   8.350   7.774
18871SOL    HW158446  10.522   8.326   7.757
18871SOL    HW258447  10.380   8.279   7.735
18872SOL     OW58448  14.371  12.003   3.690
18872SOL    HW158449  14.339  12.063   3.623
18872SOL    HW258450  14.466  12.001   3.677
18873SOL     OW58451   6.717   0.666   3.522
18873SOL    HW158452   6.683   0.741   3.472
18873SOL    HW258453   6.759   0.611   3.456
18874SOL     OW58454  12.199   3.615   2.035
18874SOL    HW158455  12.264   3.686   2.036
18874SOL    HW258456  12.177   3.605   1.943
18875SOL     OW58457   9.199   5.024  13.604
18875SOL    HW158458   9.198   4.972  13.524
18875SOL    HW258459   9.116   5.002  13.647
18876SOL     OW58460   6.081  14.198  12.592
18876SOL    HW158461   6.067  14.169  12.502
18876SOL    HW258462   6.084  14.117  12.643
18877SOL     OW58463   8.453  11.379   6.674
18877SOL    HW158464   8.489  11.363   6.587
18877SOL    HW258465   8.434  11.292   6.709
18878SOL     OW58466   8.134  10.162   4.078
18878SOL    HW158467   8.051  10.140   4.120
18878SOL    HW258468   8.116  10.244   4.031
18879SOL     OW58469  11.209   5.832  12.561
18879SOL    HW158470  11.273   5.879  12.509
18879SOL    HW258471  11.133   5.890  12.565
18880SOL     OW58472  11.233   7.140   5.013
18880SOL    HW158473  11.161   7.084   4.983
18880SOL    HW258474  11.275   7.170   4.932
18881SOL     OW58475   7.990  14.609   1.936
18881SOL    HW158476   8.070  14.650   1.903
18881SOL    HW258477   7.992  14.521   1.898
18882SOL     OW58478   3.711   1.536   4.734
18882SOL    HW158479   3.789   1.587   4.711
18882SOL    HW258480   3.660   1.532   4.653
18883SOL     OW58481  14.225  14.370   6.154
18883SOL    HW158482  14.214  14.403   6.244
18883SOL    HW258483  14.291  14.427   6.116
18884SOL     OW58484   3.218   2.325   2.514
18884SOL    HW158485   3.212   2.229   2.514
18884SOL    HW258486   3.286   2.344   2.578
18885SOL     OW58487   5.146   6.910   5.915
18885SOL    HW158488   5.066   6.906   5.863
18885SOL    HW258489   5.200   6.976   5.872
18886SOL     OW58490   7.357   4.849  11.547
18886SOL    HW158491   7.282   4.863  11.489
18886SOL    HW258492   7.342   4.908  11.620
18887SOL     OW58493  10.857  11.189   8.536
18887SOL    HW158494  10.826  11.172   8.624
18887SOL    HW258495  10.950  11.169   8.538
18888SOL     OW58496   1.926   3.417  13.311
18888SOL    HW158497   1.956   3.378  13.229
18888SOL    HW258498   1.989   3.486  13.329
18889SOL     OW58499   6.454   9.284   2.187
18889SOL    HW158500   6.414   9.365   2.156
18889SOL    HW258501   6.548   9.294   2.169
18890SOL     OW58502   3.974   8.636   9.809
18890SOL    HW158503   3.977   8.547   9.773
18890SOL    HW258504   4.060   8.672   9.789
18891SOL     OW58505  11.253   1.492   8.364
18891SOL    HW158506  11.275   1.489   8.271
18891SOL    HW258507  11.169   1.445   8.370
18892SOL     OW58508   7.820   1.626   2.758
18892SOL    HW158509   7.909   1.595   2.777
18892SOL    HW258510   7.795   1.676   2.835
18893SOL     OW58511   9.311   8.584   6.515
18893SOL    HW158512   9.241   8.541   6.565
18893SOL    HW258513   9.349   8.513   6.463
18894SOL     OW58514   5.308   8.473  11.130
18894SOL    HW158515   5.334   8.381  11.137
18894SOL    HW258516   5.290   8.499  11.220
18895SOL     OW58517   6.495  11.681  11.545
18895SOL    HW158518   6.447  11.745  11.493
18895SOL    HW258519   6.560  11.645  11.484
18896SOL     OW58520   7.648  12.677  13.835
18896SOL    HW158521   7.626  12.634  13.917
18896SOL    HW258522   7.682  12.607  13.779
18897SOL     OW58523   1.025   1.354   9.245
18897SOL    HW158524   1.015   1.420   9.312
18897SOL    HW258525   1.098   1.300   9.275
18898SOL     OW58526  13.406  14.056   3.857
18898SOL    HW158527  13.414  14.035   3.950
18898SOL    HW258528  13.385  13.972   3.815
18899SOL     OW58529  14.512   1.375  12.828
18899SOL    HW158530  14.583   1.375  12.891
18899SOL    HW258531  14.457   1.449  12.853
18900SOL     OW58532   3.039   2.313   8.331
18900SOL    HW158533   3.022   2.339   8.422
18900SOL    HW258534   3.027   2.218   8.330
18901SOL     OW58535  13.385   6.827   8.587
18901SOL    HW158536  13.349   6.750   8.631
18901SOL    HW258537  13.319   6.852   8.522
18902SOL     OW58538  13.190   3.574   0.570
18902SOL    HW158539  13.159   3.571   0.660
18902SOL    HW258540  13.116   3.611   0.521
18903SOL     OW58541  13.999   0.703  12.184
18903SOL    HW158542  13.936   0.688  12.255
18903SOL    HW258543  14.066   0.636  12.198
18904SOL     OW58544  13.170   9.398   9.550
18904SOL    HW158545  13.215   9.479   9.523
18904SOL    HW258546  13.161   9.406   9.644
18905SOL     OW58547   6.517   6.116  11.751
18905SOL    HW158548   6.561   6.170  11.817
18905SOL    HW258549   6.587   6.075  11.701
18906SOL     OW58550   3.072  14.833   4.752
18906SOL    HW158551   3.126   0.001   4.684
18906SOL    HW258552   3.129  14.831   4.829
18907SOL     OW58553   3.098   4.990   0.850
18907SOL    HW158554   3.128   4.914   0.800
18907SOL    HW258555   3.170   5.008   0.911
18908SOL     OW58556   1.652   0.312   9.072
18908SOL    HW158557   1.681   0.282   9.158
18908SOL    HW258558   1.563   0.279   9.063
18909SOL     OW58559   1.269   8.017   3.949
18909SOL    HW158560   1.293   7.928   3.923
18909SOL    HW258561   1.227   8.006   4.034
18910SOL     OW58562   3.628   0.814   2.693
18910SOL    HW158563   3.710   0.853   2.724
18910SOL    HW258564   3.630   0.724   2.726
18911SOL     OW58565   4.948  11.130   7.897
18911SOL    HW158566   4.966  11.223   7.892
18911SOL    HW258567   4.874  11.116   7.838
18912SOL     OW58568   6.117   0.987  12.451
18912SOL    HW158569   6.167   1.024  12.524
18912SOL    HW258570   6.176   0.993  12.376
18913SOL     OW58571  12.282  10.425   0.958
18913SOL    HW158572  12.271  10.499   0.897
18913SOL    HW258573  12.193  10.405   0.987
18914SOL     OW58574  12.113  12.775  13.810
18914SOL    HW158575  12.085  12.816  13.727
18914SOL    HW258576  12.196  12.817  13.830
18915SOL     OW58577   7.170  10.167   3.888
18915SOL    HW158578   7.244  10.106   3.897
18915SOL    HW258579   7.123  10.136   3.811
18916SOL     OW58580   0.557  10.869   6.906
18916SOL    HW158581   0.527  10.808   6.839
18916SOL    HW258582   0.552  10.819   6.988
18917SOL     OW58583  11.868  12.612  11.920
18917SOL    HW158584  11.816  12.532  11.915
18917SOL    HW258585  11.940  12.597  11.858
18918SOL     OW58586   1.782   5.490  13.149
18918SOL    HW158587   1.705   5.548  13.145
18918SOL    HW258588   1.838   5.521  13.078
18919SOL     OW58589  13.155   7.670   8.430
18919SOL    HW158590  13.079   7.617   8.405
18919SOL    HW258591  13.230   7.620   8.398
18920SOL     OW58592   6.789  10.299  12.111
18920SOL    HW158593   6.712  10.323  12.058
18920SOL    HW258594   6.860  10.352  12.074
18921SOL     OW58595   6.439  10.407   9.760
18921SOL    HW158596   6.509  10.370   9.812
18921SOL    HW258597   6.453  10.502   9.764
18922SOL     OW58598   4.234  11.839   6.527
18922SOL    HW158599   4.230  11.910   6.463
18922SOL    HW258600   4.224  11.759   6.476
18923SOL     OW58601   1.992   4.900   3.093
18923SOL    HW158602   1.930   4.927   3.161
18923SOL    HW258603   2.078   4.906   3.134
18924SOL     OW58604  10.081   6.973   4.808
18924SOL    HW158605  10.085   6.925   4.725
18924SOL    HW258606  10.121   6.913   4.872
18925SOL     OW58607  10.495   7.442   4.774
18925SOL    HW158608  10.416   7.494   4.760
18925SOL    HW258609  10.466   7.351   4.763
18926SOL     OW58610   8.880   9.126   7.991
18926SOL    HW158611   8.932   9.193   7.947
18926SOL    HW258612   8.794   9.131   7.950
18927SOL     OW58613   7.161  14.211   8.376
18927SOL    HW158614   7.069  14.232   8.357
18927SOL    HW258615   7.159  14.120   8.405
18928SOL     OW58616   1.864   1.551  11.558
18928SOL    HW158617   1.928   1.485  11.584
18928SOL    HW258618   1.781   1.519  11.594
18929SOL     OW58619   4.500  12.267  10.988
18929SOL    HW158620   4.521  12.174  10.988
18929SOL    HW258621   4.586  12.311  10.985
18930SOL     OW58622   2.435   6.815  10.649
18930SOL    HW158623   2.439   6.730  10.604
18930SOL    HW258624   2.342   6.839  10.648
18931SOL     OW58625  12.366   9.005   2.313
18931SOL    HW158626  12.325   8.936   2.365
18931SOL    HW258627  12.377   9.077   2.374
18932SOL     OW58628   3.532  14.013   0.684
18932SOL    HW158629   3.611  14.047   0.642
18932SOL    HW258630   3.552  13.922   0.705
18933SOL     OW58631   7.134  11.483   5.889
18933SOL    HW158632   7.158  11.504   5.799
18933SOL    HW258633   7.192  11.411   5.914
18934SOL     OW58634   5.965  13.007   1.708
18934SOL    HW158635   6.002  12.946   1.771
18934SOL    HW258636   5.993  13.094   1.738
18935SOL     OW58637  10.724   4.587  12.036
18935SOL    HW158638  10.747   4.641  12.111
18935SOL    HW258639  10.718   4.498  12.070
18936SOL     OW58640   6.449   4.214   0.078
18936SOL    HW158641   6.467   4.302   0.111
18936SOL    HW258642   6.423   4.164   0.155
18937SOL     OW58643   3.481   0.549   7.814
18937SOL    HW158644   3.525   0.631   7.837
18937SOL    HW258645   3.548   0.498   7.769
18938SOL     OW58646   6.902   1.404   6.400
18938SOL    HW158647   6.903   1.329   6.342
18938SOL    HW258648   6.860   1.373   6.480
18939SOL     OW58649   0.065   5.002   5.811
18939SOL    HW158650   0.033   5.063   5.745
18939SOL    HW258651   0.160   5.006   5.804
18940SOL     OW58652   8.182  13.786  14.863
18940SOL    HW158653   8.249  13.853   0.006
18940SOL    HW258654   8.211  13.742  14.783
18941SOL     OW58655   9.799  12.030   5.821
18941SOL    HW158656   9.821  12.117   5.852
18941SOL    HW258657   9.786  12.040   5.727
18942SOL     OW58658   1.380   5.888   5.095
18942SOL    HW158659   1.392   5.804   5.138
18942SOL    HW258660   1.303   5.875   5.039
18943SOL     OW58661   9.469   8.205  14.352
18943SOL    HW158662   9.400   8.154  14.310
18943SOL    HW258663   9.436   8.223  14.439
18944SOL     OW58664  14.829   1.279   8.307
18944SOL    HW158665   0.026   1.266   8.243
18944SOL    HW258666  14.840   1.208   8.370
18945SOL     OW58667   2.543   8.140   0.181
18945SOL    HW158668   2.556   8.059   0.231
18945SOL    HW258669   2.448   8.144   0.166
18946SOL     OW58670   3.235   7.286   8.703
18946SOL    HW158671   3.274   7.316   8.621
18946SOL    HW258672   3.263   7.195   8.711
18947SOL     OW58673   3.792  11.503  10.842
18947SOL    HW158674   3.762  11.581  10.797
18947SOL    HW258675   3.778  11.432  10.779
18948SOL     OW58676   0.838   3.798   8.297
18948SOL    HW158677   0.763   3.850   8.267
18948SOL    HW258678   0.807   3.757   8.378
18949SOL     OW58679   4.998   0.001  13.932
18949SOL    HW158680   5.089  14.850  13.945
18949SOL    HW258681   4.999   0.063  13.859
18950SOL     OW58682   8.345   1.898   3.246
18950SOL    HW158683   8.324   1.823   3.190
18950SOL    HW258684   8.395   1.957   3.189
18951SOL     OW58685   0.196   3.167   0.709
18951SOL    HW158686   0.212   3.079   0.740
18951SOL    HW258687   0.271   3.187   0.653
18952SOL     OW58688   3.281   3.335  11.967
18952SOL    HW158689   3.292   3.331  11.872
18952SOL    HW258690   3.242   3.250  11.990
18953SOL     OW58691   9.505   0.134   7.902
18953SOL    HW158692   9.433   0.196   7.911
18953SOL    HW258693   9.536   0.148   7.812
18954SOL     OW58694   1.519   4.458   4.154
18954SOL    HW158695   1.502   4.548   4.181
18954SOL    HW258696   1.436   4.428   4.116
18955SOL     OW58697   4.292   6.078   9.850
18955SOL    HW158698   4.295   6.063   9.756
18955SOL    HW258699   4.383   6.088   9.876
18956SOL     OW58700  12.255   5.882   2.632
18956SOL    HW158701  12.202   5.950   2.590
18956SOL    HW258702  12.344   5.915   2.627
18957SOL     OW58703  14.531   4.474   4.743
18957SOL    HW158704  14.558   4.564   4.725
18957SOL    HW258705  14.575   4.422   4.675
18958SOL     OW58706   0.892   5.660   3.287
18958SOL    HW158707   0.983   5.630   3.288
18958SOL    HW258708   0.881   5.700   3.201
18959SOL     OW58709   9.626   0.800   1.455
18959SOL    HW158710   9.645   0.860   1.528
18959SOL    HW258711   9.699   0.738   1.457
18960SOL     OW58712   7.089  14.121   1.770
18960SOL    HW158713   7.068  14.085   1.857
18960SOL    HW258714   7.062  14.213   1.775
18961SOL     OW58715  13.088   1.636   1.792
18961SOL    HW158716  13.065   1.729   1.797
18961SOL    HW258717  13.167   1.629   1.846
18962SOL     OW58718  10.459   5.576  10.470
18962SOL    HW158719  10.438   5.657  10.424
18962SOL    HW258720  10.475   5.603  10.561
18963SOL     OW58721   5.531   2.357  10.123
18963SOL    HW158722   5.526   2.265  10.151
18963SOL    HW258723   5.453   2.369  10.069
18964SOL     OW58724  11.457  11.945   1.475
18964SOL    HW158725  11.376  11.982   1.510
18964SOL    HW258726  11.438  11.930   1.382
18965SOL     OW58727   1.349   3.137  14.154
18965SOL    HW158728   1.294   3.192  14.098
18965SOL    HW258729   1.329   3.166  14.243
18966SOL     OW58730  11.482   1.517   0.814
18966SOL    HW158731  11.506   1.609   0.809
18966SOL    HW258732  11.530   1.484   0.890
18967SOL     OW58733   5.251   3.167   8.658
18967SOL    HW158734   5.166   3.130   8.635
18967SOL    HW258735   5.299   3.094   8.697
18968SOL     OW58736   2.094  14.781   9.878
18968SOL    HW158737   2.054  14.830   9.806
18968SOL    HW258738   2.040  14.702   9.885
18969SOL     OW58739   1.009  14.603   3.594
18969SOL    HW158740   1.041  14.654   3.668
18969SOL    HW258741   1.074  14.534   3.582
18970SOL     OW58742  11.854   9.613   3.220
18970SOL    HW158743  11.911   9.660   3.281
18970SOL    HW258744  11.903   9.534   3.197
18971SOL     OW58745  13.798   4.877  11.336
18971SOL    HW158746  13.706   4.883  11.360
18971SOL    HW258747  13.844   4.871  11.420
18972SOL     OW58748   9.862   0.151   3.077
18972SOL    HW158749   9.809   0.080   3.041
18972SOL    HW258750   9.923   0.107   3.136
18973SOL     OW58751  10.548  13.000   0.715
18973SOL    HW158752  10.495  13.053   0.656
18973SOL    HW258753  10.551  13.050   0.796
18974SOL     OW58754   3.081   3.800   7.185
18974SOL    HW158755   3.117   3.885   7.212
18974SOL    HW258756   3.091   3.745   7.262
18975SOL     OW58757   8.818   4.433  10.219
18975SOL    HW158758   8.743   4.465  10.268
18975SOL    HW258759   8.887   4.422  10.285
18976SOL     OW58760   9.258   9.485   9.513
18976SOL    HW158761   9.291   9.417   9.571
18976SOL    HW258762   9.281   9.567   9.556
18977SOL     OW58763  11.995   7.623   9.889
18977SOL    HW158764  12.069   7.609   9.948
18977SOL    HW258765  11.988   7.541   9.839
18978SOL     OW58766   0.112  10.083   0.202
18978SOL    HW158767   0.113  10.127   0.288
18978SOL    HW258768   0.019  10.081   0.178
18979SOL     OW58769   1.210  11.409   0.197
18979SOL    HW158770   1.176  11.395   0.286
18979SOL    HW258771   1.298  11.445   0.211
18980SOL     OW58772  12.272   2.659   7.162
18980SOL    HW158773  12.240   2.658   7.252
18980SOL    HW258774  12.359   2.699   7.168
18981SOL     OW58775   3.954  13.870   4.640
18981SOL    HW158776   4.041  13.851   4.675
18981SOL    HW258777   3.960  13.845   4.548
18982SOL     OW58778   3.997   0.903  12.254
18982SOL    HW158779   4.063   0.962  12.290
18982SOL    HW258780   3.938   0.960  12.204
18983SOL     OW58781  11.172   8.897   4.630
18983SOL    HW158782  11.153   8.986   4.659
18983SOL    HW258783  11.256   8.876   4.672
18984SOL     OW58784   6.842   5.357   7.709
18984SOL    HW158785   6.823   5.378   7.800
18984SOL    HW258786   6.856   5.262   7.708
18985SOL     OW58787   6.152   0.404   0.954
18985SOL    HW158788   6.125   0.380   0.866
18985SOL    HW258789   6.155   0.321   1.002
18986SOL     OW58790   1.888   6.466   8.188
18986SOL    HW158791   1.794   6.477   8.178
18986SOL    HW258792   1.906   6.378   8.153
18987SOL     OW58793  13.562   7.942  13.207
18987SOL    HW158794  13.623   7.872  13.233
18987SOL    HW258795  13.612   7.995  13.146
18988SOL     OW58796  14.783   2.864   6.383
18988SOL    HW158797  14.709   2.918   6.412
18988SOL    HW258798  14.747   2.776   6.376
18989SOL     OW58799  10.035  10.210   5.972
18989SOL    HW158800  10.112  10.255   5.937
18989SOL    HW258801  10.038  10.123   5.931
18990SOL     OW58802   9.393   2.697   8.781
18990SOL    HW158803   9.321   2.693   8.718
18990SOL    HW258804   9.388   2.784   8.819
18991SOL     OW58805   9.779   7.543  12.277
18991SOL    HW158806   9.758   7.506  12.363
18991SOL    HW258807   9.749   7.634  12.283
18992SOL     OW58808   8.572  11.084   1.305
18992SOL    HW158809   8.509  11.151   1.275
18992SOL    HW258810   8.643  11.089   1.242
18993SOL     OW58811   1.350   4.697   7.828
18993SOL    HW158812   1.389   4.735   7.750
18993SOL    HW258813   1.271   4.749   7.843
18994SOL     OW58814   1.581   7.953  10.423
18994SOL    HW158815   1.489   7.939  10.401
18994SOL    HW258816   1.579   8.010  10.500
18995SOL     OW58817   7.386   0.589   4.643
18995SOL    HW158818   7.474   0.600   4.607
18995SOL    HW258819   7.390   0.507   4.690
18996SOL     OW58820  14.172   5.115   1.158
18996SOL    HW158821  14.267   5.118   1.161
18996SOL    HW258822  14.145   5.076   1.241
18997SOL     OW58823  13.394  12.977   8.908
18997SOL    HW158824  13.343  13.043   8.860
18997SOL    HW258825  13.415  13.019   8.991
18998SOL     OW58826   5.634   8.850  10.823
18998SOL    HW158827   5.547   8.869  10.788
18998SOL    HW258828   5.694   8.883  10.757
18999SOL     OW58829   3.788   6.372   1.386
18999SOL    HW158830   3.819   6.290   1.349
18999SOL    HW258831   3.809   6.365   1.480
19000SOL     OW58832   2.114   1.227   9.385
19000SOL    HW158833   2.059   1.219   9.307
19000SOL    HW258834   2.188   1.279   9.356
19001SOL     OW58835  10.297   7.594   6.087
19001SOL    HW158836  10.388   7.625   6.086
19001SOL    HW258837  10.264   7.614   5.999
19002SOL     OW58838  13.589   5.564  12.838
19002SOL    HW158839  13.505   5.592  12.874
19002SOL    HW258840  13.652   5.582  12.907
19003SOL     OW58841   4.082  14.136  11.961
19003SOL    HW158842   4.164  14.088  11.946
19003SOL    HW258843   4.019  14.096  11.901
19004SOL     OW58844   6.272  10.331   2.087
19004SOL    HW158845   6.305  10.257   2.036
19004SOL    HW258846   6.331  10.403   2.066
19005SOL     OW58847   6.489   3.393  11.182
19005SOL    HW158848   6.455   3.462  11.126
19005SOL    HW258849   6.504   3.319  11.123
19006SOL     OW58850   0.050   6.152   0.069
19006SOL    HW158851   0.060   6.091  14.868
19006SOL    HW258852   0.086   6.105   0.144
19007SOL     OW58853  12.993   9.717  11.386
19007SOL    HW158854  12.924   9.780  11.364
19007SOL    HW258855  12.948   9.633  11.394
19008SOL     OW58856   3.615   0.695  14.118
19008SOL    HW158857   3.573   0.696  14.032
19008SOL    HW258858   3.666   0.614  14.119
19009SOL     OW58859   6.358  11.180   4.027
19009SOL    HW158860   6.333  11.102   3.978
19009SOL    HW258861   6.353  11.154   4.119
19010SOL     OW58862   2.209   3.717   7.769
19010SOL    HW158863   2.287   3.766   7.743
19010SOL    HW258864   2.235   3.672   7.849
19011SOL     OW58865   7.708  10.892   1.347
19011SOL    HW158866   7.792  10.898   1.392
19011SOL    HW258867   7.680  10.801   1.360
19012SOL     OW58868   8.934  10.426   1.750
19012SOL    HW158869   8.992  10.425   1.826
19012SOL    HW258870   8.924  10.519   1.729
19013SOL     OW58871   9.907   3.392  11.590
19013SOL    HW158872   9.952   3.367  11.672
19013SOL    HW258873   9.818   3.359  11.601
19014SOL     OW58874  14.624   7.260  11.559
19014SOL    HW158875  14.597   7.260  11.467
19014SOL    HW258876  14.568   7.195  11.600
19015SOL     OW58877  10.309   9.752  12.046
19015SOL    HW158878  10.316   9.656  12.050
19015SOL    HW258879  10.399   9.782  12.057
19016SOL     OW58880   9.402   7.064   2.288
19016SOL    HW158881   9.387   7.044   2.380
19016SOL    HW258882   9.355   6.996   2.240
19017SOL     OW58883  13.549   3.530   7.971
19017SOL    HW158884  13.617   3.595   7.958
19017SOL    HW258885  13.546   3.517   8.066
19018SOL     OW58886  11.473   6.532  14.084
19018SOL    HW158887  11.554   6.509  14.038
19018SOL    HW258888  11.407   6.474  14.046
19019SOL     OW58889  10.758   1.698   5.834
19019SOL    HW158890  10.793   1.658   5.914
19019SOL    HW258891  10.830   1.752   5.801
19020SOL     OW58892  10.688   0.702  10.666
19020SOL    HW158893  10.597   0.692  10.695
19020SOL    HW258894  10.733   0.740  10.741
19021SOL     OW58895   2.790   2.429  11.473
19021SOL    HW158896   2.710   2.386  11.503
19021SOL    HW258897   2.804   2.395  11.385
19022SOL     OW58898  13.852  14.634  10.396
19022SOL    HW158899  13.831  14.595  10.311
19022SOL    HW258900  13.947  14.621  10.405
19023SOL     OW58901   5.655   8.134   5.514
19023SOL    HW158902   5.624   8.222   5.490
19023SOL    HW258903   5.634   8.127   5.608
19024SOL     OW58904  13.332  14.012   8.780
19024SOL    HW158905  13.326  13.935   8.836
19024SOL    HW258906  13.347  13.977   8.692
19025SOL     OW58907   6.612   2.239  10.755
19025SOL    HW158908   6.588   2.158  10.710
19025SOL    HW258909   6.609   2.306  10.686
19026SOL     OW58910   7.524  11.157   8.343
19026SOL    HW158911   7.514  11.094   8.415
19026SOL    HW258912   7.613  11.192   8.354
19027SOL     OW58913   9.453   6.607   6.814
19027SOL    HW158914   9.488   6.534   6.866
19027SOL    HW258915   9.410   6.663   6.878
19028SOL     OW58916   1.825   2.110  14.723
19028SOL    HW158917   1.758   2.140  14.661
19028SOL    HW258918   1.801   2.019  14.742
19029SOL     OW58919   2.078   1.081  13.400
19029SOL    HW158920   2.154   1.107  13.453
19029SOL    HW258921   2.110   1.010  13.345
19030SOL     OW58922   5.141   4.944  10.791
19030SOL    HW158923   5.160   4.878  10.725
19030SOL    HW258924   5.052   4.974  10.771
19031SOL     OW58925   8.900   7.549   6.180
19031SOL    HW158926   8.823   7.550   6.238
19031SOL    HW258927   8.886   7.472   6.124
19032SOL     OW58928  11.334   3.727  13.111
19032SOL    HW158929  11.394   3.666  13.068
19032SOL    HW258930  11.354   3.811  13.071
19033SOL     OW58931   5.596   6.448  14.415
19033SOL    HW158932   5.603   6.527  14.363
19033SOL    HW258933   5.510   6.411  14.392
19034SOL     OW58934   4.762   2.593  11.491
19034SOL    HW158935   4.774   2.661  11.424
19034SOL    HW258936   4.683   2.620  11.539
19035SOL     OW58937   3.124   6.382   2.204
19035SOL    HW158938   3.135   6.477   2.205
19035SOL    HW258939   3.157   6.353   2.289
19036SOL     OW58940   7.702  12.368   2.914
19036SOL    HW158941   7.723  12.366   2.821
19036SOL    HW258942   7.761  12.434   2.951
19037SOL     OW58943   8.318   4.472   3.207
19037SOL    HW158944   8.325   4.390   3.255
19037SOL    HW258945   8.340   4.540   3.271
19038SOL     OW58946   8.102   9.568   8.127
19038SOL    HW158947   8.095   9.553   8.033
19038SOL    HW258948   8.086   9.483   8.166
19039SOL     OW58949   1.135   3.651  13.280
19039SOL    HW158950   1.155   3.561  13.256
19039SOL    HW258951   1.135   3.652  13.375
19040SOL     OW58952   8.846   3.518   7.505
19040SOL    HW158953   8.853   3.564   7.421
19040SOL    HW258954   8.925   3.545   7.553
19041SOL     OW58955   7.384   1.692  12.262
19041SOL    HW158956   7.313   1.638  12.227
19041SOL    HW258957   7.363   1.704  12.354
19042SOL     OW58958   1.753  13.268  11.560
19042SOL    HW158959   1.719  13.215  11.632
19042SOL    HW258960   1.799  13.206  11.503
19043SOL     OW58961   8.038   0.564  12.107
19043SOL    HW158962   8.015   0.537  12.018
19043SOL    HW258963   8.001   0.651  12.116
19044SOL     OW58964   3.450   8.812   1.079
19044SOL    HW158965   3.404   8.849   1.155
19044SOL    HW258966   3.422   8.866   1.006
19045SOL     OW58967   8.912   2.929   6.481
19045SOL    HW158968   8.826   2.960   6.509
19045SOL    HW258969   8.954   3.006   6.442
19046SOL     OW58970  10.970   0.553  12.130
19046SOL    HW158971  11.049   0.517  12.168
19046SOL    HW258972  10.901   0.534  12.194
19047SOL     OW58973   9.687  14.046   7.182
19047SOL    HW158974   9.680  14.056   7.087
19047SOL    HW258975   9.691  14.135   7.216
19048SOL     OW58976   0.540   7.095  12.764
19048SOL    HW158977   0.562   7.019  12.709
19048SOL    HW258978   0.559   7.171  12.708
19049SOL     OW58979   2.144  10.720   9.556
19049SOL    HW158980   2.229  10.741   9.596
19049SOL    HW258981   2.166  10.692   9.467
19050SOL     OW58982  11.759  12.468   7.530
19050SOL    HW158983  11.682  12.415   7.513
19050SOL    HW258984  11.745  12.502   7.618
19051SOL     OW58985  11.865   1.493  12.657
19051SOL    HW158986  11.939   1.506  12.597
19051SOL    HW258987  11.827   1.580  12.667
19052SOL     OW58988   6.761  10.392   4.853
19052SOL    HW158989   6.771  10.297   4.853
19052SOL    HW258990   6.723  10.412   4.768
19053SOL     OW58991  11.603  12.895  12.472
19053SOL    HW158992  11.670  12.834  12.503
19053SOL    HW258993  11.528  12.880  12.530
19054SOL     OW58994  10.514  14.301   3.914
19054SOL    HW158995  10.583  14.356   3.877
19054SOL    HW258996  10.453  14.287   3.841
19055SOL     OW58997   1.575   5.833   3.970
19055SOL    HW158998   1.662   5.793   3.964
19055SOL    HW258999   1.520   5.763   4.005
19056SOL     OW59000   7.215   4.219   3.313
19056SOL    HW159001   7.287   4.254   3.366
19056SOL    HW259002   7.137   4.234   3.366
19057SOL     OW59003  14.385   3.460  14.688
19057SOL    HW159004  14.433   3.377  14.679
19057SOL    HW259005  14.426   3.518  14.624
19058SOL     OW59006   7.139   3.070   9.712
19058SOL    HW159007   7.115   3.047   9.801
19058SOL    HW259008   7.071   3.131   9.684
19059SOL     OW59009   3.659   5.196   8.528
19059SOL    HW159010   3.752   5.188   8.507
19059SOL    HW259011   3.642   5.290   8.528
19060SOL     OW59012   7.082  13.441  12.295
19060SOL    HW159013   7.127  13.468  12.216
19060SOL    HW259014   7.152  13.422  12.357
19061SOL     OW59015  10.954  12.623  10.813
19061SOL    HW159016  10.877  12.660  10.856
19061SOL    HW259017  10.956  12.667  10.727
19062SOL     OW59018   2.977   8.505  11.236
19062SOL    HW159019   2.935   8.472  11.315
19062SOL    HW259020   3.034   8.433  11.207
19063SOL     OW59021   1.168  14.777   1.099
19063SOL    HW159022   1.212  14.751   1.181
19063SOL    HW259023   1.081  14.739   1.106
19064SOL     OW59024  14.625   1.688   5.376
19064SOL    HW159025  14.539   1.704   5.336
19064SOL    HW259026  14.685   1.680   5.302
19065SOL     OW59027   9.415  10.239   1.111
19065SOL    HW159028   9.320  10.230   1.103
19065SOL    HW259029   9.449  10.214   1.025
19066SOL     OW59030   4.474   8.630  13.080
19066SOL    HW159031   4.399   8.689  13.089
19066SOL    HW259032   4.523   8.664  13.006
19067SOL     OW59033  10.437   1.694  14.182
19067SOL    HW159034  10.499   1.625  14.159
19067SOL    HW259035  10.369   1.690  14.114
19068SOL     OW59036   2.025   4.637  11.615
19068SOL    HW159037   1.946   4.667  11.661
19068SOL    HW259038   2.062   4.717  11.578
19069SOL     OW59039   1.153   8.046   0.035
19069SOL    HW159040   1.058   8.038   0.021
19069SOL    HW259041   1.170   7.990   0.111
19070SOL     OW59042  12.093   9.147   3.814
19070SOL    HW159043  12.173   9.199   3.823
19070SOL    HW259044  12.097   9.084   3.885
19071SOL     OW59045   4.699   7.642  11.400
19071SOL    HW159046   4.716   7.725  11.355
19071SOL    HW259047   4.777   7.589  11.382
19072SOL     OW59048   5.176   3.778   6.437
19072SOL    HW159049   5.182   3.824   6.353
19072SOL    HW259050   5.207   3.689   6.417
19073SOL     OW59051   0.434  11.262  13.031
19073SOL    HW159052   0.500  11.223  12.974
19073SOL    HW259053   0.447  11.219  13.116
19074SOL     OW59054   3.920  10.766   0.786
19074SOL    HW159055   3.975  10.803   0.855
19074SOL    HW259056   3.870  10.697   0.829
19075SOL     OW59057  10.629   9.064  12.263
19075SOL    HW159058  10.544   9.024  12.281
19075SOL    HW259059  10.632   9.142  12.319
19076SOL     OW59060   4.429   8.887   1.084
19076SOL    HW159061   4.391   8.851   1.004
19076SOL    HW259062   4.417   8.818   1.150
19077SOL     OW59063  11.121   0.144  12.704
19077SOL    HW159064  11.080   0.197  12.772
19077SOL    HW259065  11.053   0.134  12.637
19078SOL     OW59066   9.484   2.489   7.725
19078SOL    HW159067   9.563   2.519   7.769
19078SOL    HW259068   9.447   2.568   7.685
19079SOL     OW59069   2.931  13.346  10.689
19079SOL    HW159070   2.958  13.434  10.665
19079SOL    HW259071   2.853  13.330  10.636
19080SOL     OW59072   3.299   6.994   7.256
19080SOL    HW159073   3.294   6.958   7.345
19080SOL    HW259074   3.307   6.917   7.200
19081SOL     OW59075   1.441   3.613   7.729
19081SOL    HW159076   1.532   3.631   7.706
19081SOL    HW259077   1.391   3.635   7.650
19082SOL     OW59078   8.689  13.347   7.493
19082SOL    HW159079   8.662  13.326   7.404
19082SOL    HW259080   8.628  13.297   7.548
19083SOL     OW59081   7.601   8.514  10.328
19083SOL    HW159082   7.675   8.510  10.267
19083SOL    HW259083   7.542   8.445  10.299
19084SOL     OW59084   9.982  13.647   6.969
19084SOL    HW159085   9.932  13.724   6.998
19084SOL    HW259086  10.050  13.636   7.035
19085SOL     OW59087   5.231   4.313   6.511
19085SOL    HW159088   5.262   4.330   6.600
19085SOL    HW259089   5.220   4.400   6.473
19086SOL     OW59090   0.382   1.219  11.973
19086SOL    HW159091   0.432   1.300  11.964
19086SOL    HW259092   0.419   1.161  11.907
19087SOL     OW59093   3.494   6.897   3.551
19087SOL    HW159094   3.425   6.922   3.491
19087SOL    HW259095   3.573   6.937   3.515
19088SOL     OW59096   9.290  12.070   6.374
19088SOL    HW159097   9.328  11.998   6.424
19088SOL    HW259098   9.307  12.148   6.426
19089SOL     OW59099  10.374  11.472   5.349
19089SOL    HW159100  10.306  11.509   5.406
19089SOL    HW259101  10.327  11.414   5.290
19090SOL     OW59102   0.972  10.634   9.033
19090SOL    HW159103   1.054  10.677   9.006
19090SOL    HW259104   0.991  10.600   9.120
19091SOL     OW59105   7.672   0.672  14.156
19091SOL    HW159106   7.744   0.728  14.184
19091SOL    HW259107   7.701   0.638  14.071
19092SOL     OW59108   3.185   0.631   0.277
19092SOL    HW159109   3.178   0.713   0.325
19092SOL    HW259110   3.279   0.620   0.261
19093SOL     OW59111   8.968   7.996   0.346
19093SOL    HW159112   9.005   7.932   0.285
19093SOL    HW259113   8.989   8.081   0.306
19094SOL     OW59114   1.752  11.294   9.941
19094SOL    HW159115   1.755  11.293   9.845
19094SOL    HW259116   1.660  11.310   9.962
19095SOL     OW59117  11.844   0.722  10.221
19095SOL    HW159118  11.920   0.776  10.245
19095SOL    HW259119  11.870   0.632  10.242
19096SOL     OW59120   3.423   8.401  14.810
19096SOL    HW159121   3.507   8.383  14.852
19096SOL    HW259122   3.372   8.446   0.005
19097SOL     OW59123  12.132  12.595   1.662
19097SOL    HW159124  12.106  12.611   1.752
19097SOL    HW259125  12.053  12.614   1.611
19098SOL     OW59126   0.505   1.359   7.187
19098SOL    HW159127   0.567   1.359   7.115
19098SOL    HW259128   0.486   1.267   7.204
19099SOL     OW59129  13.126   8.044   0.918
19099SOL    HW159130  13.121   8.046   0.822
19099SOL    HW259131  13.189   8.112   0.939
19100SOL     OW59132   4.447   7.326   6.028
19100SOL    HW159133   4.360   7.292   6.045
19100SOL    HW259134   4.467   7.380   6.104
19101SOL     OW59135  11.198  10.649   8.677
19101SOL    HW159136  11.193  10.690   8.591
19101SOL    HW259137  11.221  10.721   8.736
19102SOL     OW59138   8.488   6.098   4.318
19102SOL    HW159139   8.447   6.026   4.367
19102SOL    HW259140   8.442   6.098   4.234
19103SOL     OW59141   9.873  13.222   3.101
19103SOL    HW159142   9.879  13.177   3.185
19103SOL    HW259143   9.962  13.218   3.065
19104SOL     OW59144   5.066   9.702   8.179
19104SOL    HW159145   5.087   9.793   8.155
19104SOL    HW259146   5.149   9.665   8.208
19105SOL     OW59147   2.355  10.852   7.852
19105SOL    HW159148   2.378  10.761   7.832
19105SOL    HW259149   2.370  10.899   7.770
19106SOL     OW59150   9.368   4.718  11.938
19106SOL    HW159151   9.347   4.753  11.852
19106SOL    HW259152   9.308   4.645  11.950
19107SOL     OW59153   1.636   1.252  12.323
19107SOL    HW159154   1.596   1.302  12.395
19107SOL    HW259155   1.669   1.320  12.263
19108SOL     OW59156   1.522  11.561   1.582
19108SOL    HW159157   1.513  11.518   1.497
19108SOL    HW259158   1.482  11.647   1.569
19109SOL     OW59159   1.822  14.297   7.724
19109SOL    HW159160   1.892  14.282   7.660
19109SOL    HW259161   1.757  14.349   7.676
19110SOL     OW59162   5.209   2.060   5.749
19110SOL    HW159163   5.197   2.155   5.755
19110SOL    HW259164   5.212   2.029   5.839
19111SOL     OW59165   5.059  10.373   1.023
19111SOL    HW159166   5.046  10.420   1.106
19111SOL    HW259167   4.970  10.348   0.996
19112SOL     OW59168   1.733  10.156   6.303
19112SOL    HW159169   1.664  10.145   6.237
19112SOL    HW259170   1.773  10.240   6.280
19113SOL     OW59171   0.237  10.505   3.550
19113SOL    HW159172   0.256  10.485   3.458
19113SOL    HW259173   0.165  10.447   3.573
19114SOL     OW59174   4.384  10.405   9.169
19114SOL    HW159175   4.424  10.343   9.230
19114SOL    HW259176   4.372  10.485   9.220
19115SOL     OW59177   1.834   5.343   1.717
19115SOL    HW159178   1.805   5.273   1.657
19115SOL    HW259179   1.919   5.313   1.750
19116SOL     OW59180   9.615   9.222   9.303
19116SOL    HW159181   9.563   9.159   9.255
19116SOL    HW259182   9.662   9.271   9.236
19117SOL     OW59183   8.146   6.784   0.956
19117SOL    HW159184   8.163   6.860   0.902
19117SOL    HW259185   8.219   6.725   0.939
19118SOL     OW59186   8.038   4.276  10.241
19118SOL    HW159187   7.956   4.237  10.270
19118SOL    HW259188   8.045   4.252  10.149
19119SOL     OW59189   3.736   8.766  14.075
19119SOL    HW159190   3.803   8.751  14.009
19119SOL    HW259191   3.749   8.857  14.102
19120SOL     OW59192  11.315   4.323   3.516
19120SOL    HW159193  11.344   4.232   3.519
19120SOL    HW259194  11.393   4.372   3.492
19121SOL     OW59195   7.853  13.500  11.024
19121SOL    HW159196   7.861  13.583  11.071
19121SOL    HW259197   7.827  13.525  10.936
19122SOL     OW59198  11.105  13.880   7.873
19122SOL    HW159199  11.184  13.931   7.859
19122SOL    HW259200  11.033  13.940   7.853
19123SOL     OW59201   3.349   8.422   8.995
19123SOL    HW159202   3.327   8.423   8.902
19123SOL    HW259203   3.273   8.380   9.037
19124SOL     OW59204   2.624   0.731   0.776
19124SOL    HW159205   2.569   0.805   0.803
19124SOL    HW259206   2.593   0.709   0.687
19125SOL     OW59207   7.299  13.369  14.021
19125SOL    HW159208   7.296  13.308  13.947
19125SOL    HW259209   7.207  13.382  14.044
19126SOL     OW59210  13.219   3.347   3.693
19126SOL    HW159211  13.214   3.356   3.598
19126SOL    HW259212  13.282   3.277   3.707
19127SOL     OW59213  14.676   5.588   6.621
19127SOL    HW159214  14.662   5.523   6.690
19127SOL    HW259215  14.674   5.537   6.540
19128SOL     OW59216   4.116   1.481  10.261
19128SOL    HW159217   4.106   1.556  10.320
19128SOL    HW259218   4.130   1.519  10.175
19129SOL     OW59219   2.387   9.076   0.700
19129SOL    HW159220   2.305   9.076   0.650
19129SOL    HW259221   2.452   9.043   0.639
19130SOL     OW59222   7.355   9.612   1.241
19130SOL    HW159223   7.450   9.599   1.242
19130SOL    HW259224   7.327   9.595   1.331
19131SOL     OW59225   5.061   1.915  10.889
19131SOL    HW159226   5.069   1.829  10.847
19131SOL    HW259227   5.003   1.965  10.830
19132SOL     OW59228   7.610  11.016   9.509
19132SOL    HW159229   7.528  10.973   9.484
19132SOL    HW259230   7.582  11.091   9.563
19133SOL     OW59231   8.055   6.840   4.810
19133SOL    HW159232   8.098   6.758   4.787
19133SOL    HW259233   8.117   6.909   4.785
19134SOL     OW59234  12.937   3.539   2.981
19134SOL    HW159235  12.873   3.610   2.975
19134SOL    HW259236  13.011   3.577   3.027
19135SOL     OW59237  11.831  11.582   3.170
19135SOL    HW159238  11.826  11.676   3.155
19135SOL    HW259239  11.909  11.555   3.121
19136SOL     OW59240  11.413  10.308   3.262
19136SOL    HW159241  11.375  10.220   3.260
19136SOL    HW259242  11.356  10.361   3.207
19137SOL     OW59243   7.681   8.316  14.619
19137SOL    HW159244   7.727   8.400  14.613
19137SOL    HW259245   7.714   8.265  14.545
19138SOL     OW59246   5.868   5.314  13.459
19138SOL    HW159247   5.888   5.315  13.365
19138SOL    HW259248   5.783   5.271  13.465
19139SOL     OW59249   7.893   6.989   0.985
19139SOL    HW159250   7.826   6.969   0.920
19139SOL    HW259251   7.967   6.933   0.961
19140SOL     OW59252   3.696   9.650   3.437
19140SOL    HW159253   3.746   9.576   3.473
19140SOL    HW259254   3.654   9.689   3.514
19141SOL     OW59255   0.038   9.670  12.445
19141SOL    HW159256  14.856   9.663  12.523
19141SOL    HW259257   0.126   9.691  12.479
19142SOL     OW59258   2.757   5.739  12.139
19142SOL    HW159259   2.778   5.713  12.229
19142SOL    HW259260   2.676   5.789  12.147
19143SOL     OW59261   4.201  10.079   8.832
19143SOL    HW159262   4.252  10.010   8.789
19143SOL    HW259263   4.254  10.103   8.909
19144SOL     OW59264   5.526  10.487   5.686
19144SOL    HW159265   5.523  10.391   5.677
19144SOL    HW259266   5.435  10.515   5.681
19145SOL     OW59267   3.833   1.934  13.669
19145SOL    HW159268   3.870   1.856  13.627
19145SOL    HW259269   3.867   2.008  13.619
19146SOL     OW59270   3.806   9.936   5.708
19146SOL    HW159271   3.879   9.939   5.647
19146SOL    HW259272   3.814  10.016   5.760
19147SOL     OW59273  13.717   9.223   7.983
19147SOL    HW159274  13.633   9.189   7.953
19147SOL    HW259275  13.726   9.308   7.938
19148SOL     OW59276  13.748   8.595   7.517
19148SOL    HW159277  13.788   8.638   7.593
19148SOL    HW259278  13.803   8.519   7.500
19149SOL     OW59279   4.277   3.537  10.753
19149SOL    HW159280   4.354   3.587  10.728
19149SOL    HW259281   4.297   3.506  10.841
19150SOL     OW59282  13.691  11.238  11.335
19150SOL    HW159283  13.782  11.266  11.328
19150SOL    HW259284  13.653  11.255  11.249
19151SOL     OW59285   8.294  12.608   1.765
19151SOL    HW159286   8.362  12.641   1.706
19151SOL    HW259287   8.331  12.526   1.800
19152SOL     OW59288   6.688   7.126  12.403
19152SOL    HW159289   6.728   7.105  12.318
19152SOL    HW259290   6.671   7.040  12.442
19153SOL     OW59291  11.411   4.790  12.555
19153SOL    HW159292  11.342   4.724  12.555
19153SOL    HW259293  11.487   4.746  12.592
19154SOL     OW59294   0.462  10.872   9.147
19154SOL    HW159295   0.517  10.946   9.173
19154SOL    HW259296   0.376  10.892   9.184
19155SOL     OW59297   1.594   3.623  14.406
19155SOL    HW159298   1.618   3.537  14.374
19155SOL    HW259299   1.505   3.612  14.441
19156SOL     OW59300  10.917   8.276   4.828
19156SOL    HW159301  10.980   8.335   4.869
19156SOL    HW259302  10.835   8.326   4.827
19157SOL     OW59303   7.352  12.353   6.309
19157SOL    HW159304   7.286  12.301   6.354
19157SOL    HW259305   7.322  12.356   6.218
19158SOL     OW59306   6.317   9.625   2.616
19158SOL    HW159307   6.244   9.646   2.674
19158SOL    HW259308   6.278   9.571   2.547
19159SOL     OW59309   0.903  10.104   6.913
19159SOL    HW159310   0.953  10.083   6.992
19159SOL    HW259311   0.947  10.056   6.843
19160SOL     OW59312   6.530   9.000   7.353
19160SOL    HW159313   6.555   9.019   7.262
19160SOL    HW259314   6.477   9.074   7.380
19161SOL     OW59315   6.858   8.812   2.487
19161SOL    HW159316   6.834   8.720   2.489
19161SOL    HW259317   6.775   8.859   2.481
19162SOL     OW59318   6.489   6.637  11.127
19162SOL    HW159319   6.573   6.603  11.157
19162SOL    HW259320   6.477   6.598  11.041
19163SOL     OW59321  10.583  10.485  12.690
19163SOL    HW159322  10.677  10.465  12.695
19163SOL    HW259323  10.580  10.575  12.657
19164SOL     OW59324  12.129   8.989  12.980
19164SOL    HW159325  12.102   8.897  12.973
19164SOL    HW259326  12.191   9.002  12.908
19165SOL     OW59327   6.979   4.314   4.652
19165SOL    HW159328   7.005   4.317   4.560
19165SOL    HW259329   6.955   4.404   4.674
19166SOL     OW59330   9.421   0.220  13.026
19166SOL    HW159331   9.371   0.214  13.108
19166SOL    HW259332   9.427   0.130  12.994
19167SOL     OW59333  10.482   9.191   8.029
19167SOL    HW159334  10.476   9.237   7.945
19167SOL    HW259335  10.525   9.108   8.008
19168SOL     OW59336   4.688  10.223   1.711
19168SOL    HW159337   4.696  10.129   1.699
19168SOL    HW259338   4.668  10.258   1.624
19169SOL     OW59339   4.874   6.322  14.497
19169SOL    HW159340   4.804   6.381  14.523
19169SOL    HW259341   4.854   6.240  14.542
19170SOL     OW59342  10.679   2.205   9.679
19170SOL    HW159343  10.590   2.176   9.658
19170SOL    HW259344  10.692   2.179   9.770
19171SOL     OW59345   6.846  12.222   9.907
19171SOL    HW159346   6.842  12.161   9.981
19171SOL    HW259347   6.755  12.240   9.887
19172SOL     OW59348   6.666   0.358   9.064
19172SOL    HW159349   6.616   0.280   9.037
19172SOL    HW259350   6.609   0.403   9.125
19173SOL     OW59351   2.327   3.111  12.763
19173SOL    HW159352   2.390   3.149  12.824
19173SOL    HW259353   2.289   3.186  12.718
19174SOL     OW59354   8.754   7.571  10.204
19174SOL    HW159355   8.700   7.512  10.150
19174SOL    HW259356   8.763   7.650  10.150
19175SOL     OW59357   1.859  12.615   1.283
19175SOL    HW159358   1.946  12.611   1.322
19175SOL    HW259359   1.828  12.525   1.280
19176SOL     OW59360   8.232  12.979   7.225
19176SOL    HW159361   8.286  13.055   7.245
19176SOL    HW259362   8.280  12.905   7.263
19177SOL     OW59363   1.918  14.377   5.786
19177SOL    HW159364   1.889  14.361   5.876
19177SOL    HW259365   1.965  14.460   5.790
19178SOL     OW59366   7.612   9.691   7.281
19178SOL    HW159367   7.540   9.719   7.337
19178SOL    HW259368   7.662   9.771   7.262
19179SOL     OW59369  14.343   6.004   0.850
19179SOL    HW159370  14.392   6.039   0.775
19179SOL    HW259371  14.390   6.035   0.927
19180SOL     OW59372   6.232   7.499   9.216
19180SOL    HW159373   6.232   7.545   9.132
19180SOL    HW259374   6.294   7.549   9.270
19181SOL     OW59375   8.569   8.169   7.967
19181SOL    HW159376   8.636   8.124   8.018
19181SOL    HW259377   8.613   8.196   7.887
19182SOL     OW59378  10.778   3.643   9.117
19182SOL    HW159379  10.701   3.642   9.060
19182SOL    HW259380  10.847   3.604   9.065
19183SOL     OW59381  14.443   3.096  10.524
19183SOL    HW159382  14.432   3.002  10.536
19183SOL    HW259383  14.474   3.105  10.434
19184SOL     OW59384   5.426   8.278  12.910
19184SOL    HW159385   5.412   8.241  12.823
19184SOL    HW259386   5.498   8.225  12.947
19185SOL     OW59387   5.630  11.918   1.512
19185SOL    HW159388   5.590  11.995   1.553
19185SOL    HW259389   5.660  11.864   1.586
19186SOL     OW59390   1.415   9.998   8.602
19186SOL    HW159391   1.335   9.947   8.597
19186SOL    HW259392   1.474   9.957   8.537
19187SOL     OW59393   8.654  10.368  12.511
19187SOL    HW159394   8.592  10.340  12.578
19187SOL    HW259395   8.648  10.463  12.510
19188SOL     OW59396  12.606  12.781   0.477
19188SOL    HW159397  12.679  12.746   0.528
19188SOL    HW259398  12.582  12.710   0.418
19189SOL     OW59399  10.929  10.028  11.560
19189SOL    HW159400  10.926  10.039  11.465
19189SOL    HW259401  10.924  10.117  11.595
19190SOL     OW59402   0.989   5.315  13.253
19190SOL    HW159403   0.908   5.282  13.291
19190SOL    HW259404   0.962   5.388  13.197
19191SOL     OW59405   8.984   1.225   9.794
19191SOL    HW159406   9.045   1.213   9.721
19191SOL    HW259407   9.006   1.154   9.855
19192SOL     OW59408  12.013   2.603   1.572
19192SOL    HW159409  11.997   2.697   1.559
19192SOL    HW259410  12.010   2.591   1.666
19193SOL     OW59411   3.006   8.060   2.463
19193SOL    HW159412   3.032   8.058   2.556
19193SOL    HW259413   2.919   8.021   2.462
19194SOL     OW59414   9.497   6.412   3.581
19194SOL    HW159415   9.559   6.410   3.508
19194SOL    HW259416   9.549   6.444   3.655
19195SOL     OW59417   6.647   8.051   1.525
19195SOL    HW159418   6.740   8.029   1.538
19195SOL    HW259419   6.600   7.972   1.551
19196SOL     OW59420   5.681   4.134   9.585
19196SOL    HW159421   5.649   4.220   9.559
19196SOL    HW259422   5.626   4.072   9.538
19197SOL     OW59423  13.239   9.700  10.376
19197SOL    HW159424  13.259   9.753  10.453
19197SOL    HW259425  13.257   9.610  10.403
19198SOL     OW59426   3.772   0.267  13.016
19198SOL    HW159427   3.727   0.334  13.066
19198SOL    HW259428   3.821   0.217  13.081
19199SOL     OW59429   2.730   4.432  12.207
19199SOL    HW159430   2.763   4.453  12.119
19199SOL    HW259431   2.808   4.428  12.262
19200SOL     OW59432  14.220   2.165   8.721
19200SOL    HW159433  14.244   2.083   8.679
19200SOL    HW259434  14.298   2.220   8.711
19201SOL     OW59435   8.297  13.596  11.473
19201SOL    HW159436   8.227  13.655  11.501
19201SOL    HW259437   8.375  13.628  11.519
19202SOL     OW59438   9.619   9.103   4.483
19202SOL    HW159439   9.688   9.153   4.437
19202SOL    HW259440   9.640   9.012   4.465
19203SOL     OW59441   4.770   5.209  12.649
19203SOL    HW159442   4.725   5.141  12.598
19203SOL    HW259443   4.770   5.176  12.739
19204SOL     OW59444  10.441   5.923  14.075
19204SOL    HW159445  10.409   5.972  13.998
19204SOL    HW259446  10.536   5.921  14.065
19205SOL     OW59447  10.663  10.476   3.391
19205SOL    HW159448  10.686  10.523   3.311
19205SOL    HW259449  10.703  10.390   3.381
19206SOL     OW59450  11.203   0.178  11.239
19206SOL    HW159451  11.156   0.095  11.237
19206SOL    HW259452  11.295   0.155  11.225
19207SOL     OW59453   4.644   4.336   1.030
19207SOL    HW159454   4.639   4.263   0.968
19207SOL    HW259455   4.596   4.407   0.988
19208SOL     OW59456   8.637   0.426  12.286
19208SOL    HW159457   8.730   0.422  12.266
19208SOL    HW259458   8.595   0.451  12.203
19209SOL     OW59459   4.345   2.190   1.006
19209SOL    HW159460   4.437   2.179   1.029
19209SOL    HW259461   4.335   2.282   0.984
19210SOL     OW59462  12.208   1.575   0.932
19210SOL    HW159463  12.286   1.568   0.876
19210SOL    HW259464  12.229   1.644   0.995
19211SOL     OW59465   4.256   2.967   5.406
19211SOL    HW159466   4.265   2.894   5.344
19211SOL    HW259467   4.177   3.012   5.378
19212SOL     OW59468   8.182   6.132   2.688
19212SOL    HW159469   8.227   6.193   2.746
19212SOL    HW259470   8.099   6.174   2.668
19213SOL     OW59471  10.194   2.582   4.113
19213SOL    HW159472  10.186   2.668   4.155
19213SOL    HW259473  10.279   2.550   4.142
19214SOL     OW59474   1.129   2.910  11.960
19214SOL    HW159475   1.159   2.852  12.030
19214SOL    HW259476   1.208   2.954  11.930
19215SOL     OW59477   8.870   6.842  13.222
19215SOL    HW159478   8.819   6.922  13.225
19215SOL    HW259479   8.945   6.863  13.166
19216SOL     OW59480   0.116   0.398   4.446
19216SOL    HW159481   0.184   0.463   4.464
19216SOL    HW259482   0.165   0.317   4.426
19217SOL     OW59483   9.627  10.024   1.935
19217SOL    HW159484   9.542   9.993   1.966
19217SOL    HW259485   9.678   9.944   1.919
19218SOL     OW59486   8.164  14.396   5.952
19218SOL    HW159487   8.150  14.474   6.005
19218SOL    HW259488   8.252  14.367   5.977
19219SOL     OW59489  12.763  12.116  14.032
19219SOL    HW159490  12.805  12.052  13.974
19219SOL    HW259491  12.835  12.167  14.069
19220SOL     OW59492  12.854  11.236   9.569
19220SOL    HW159493  12.817  11.159   9.612
19220SOL    HW259494  12.812  11.238   9.483
19221SOL     OW59495  11.643   6.140   0.199
19221SOL    HW159496  11.638   6.235   0.204
19221SOL    HW259497  11.555   6.112   0.176
19222SOL     OW59498   0.474  11.986   4.907
19222SOL    HW159499   0.462  12.079   4.886
19222SOL    HW259500   0.529  11.987   4.985
19223SOL     OW59501   3.574   3.467   1.435
19223SOL    HW159502   3.522   3.520   1.374
19223SOL    HW259503   3.522   3.466   1.515
19224SOL     OW59504  14.242   7.646   4.386
19224SOL    HW159505  14.332   7.674   4.371
19224SOL    HW259506  14.200   7.655   4.300
19225SOL     OW59507   9.374   1.571   3.754
19225SOL    HW159508   9.348   1.479   3.764
19225SOL    HW259509   9.469   1.569   3.766
19226SOL     OW59510  14.230   4.623   0.923
19226SOL    HW159511  14.259   4.705   0.883
19226SOL    HW259512  14.137   4.636   0.938
19227SOL     OW59513   6.547  12.156  11.971
19227SOL    HW159514   6.495  12.085  11.933
19227SOL    HW259515   6.556  12.220  11.900
19228SOL     OW59516   3.500   0.788   2.451
19228SOL    HW159517   3.543   0.817   2.532
19228SOL    HW259518   3.416   0.751   2.481
19229SOL     OW59519   2.579  13.409  13.123
19229SOL    HW159520   2.500  13.383  13.169
19229SOL    HW259521   2.550  13.476  13.060
19230SOL     OW59522   8.839   2.674   0.243
19230SOL    HW159523   8.857   2.687   0.336
19230SOL    HW259524   8.876   2.588   0.224
19231SOL     OW59525   2.447   1.515   7.489
19231SOL    HW159526   2.530   1.466   7.487
19231SOL    HW259527   2.379   1.448   7.480
19232SOL     OW59528   6.293   8.446  11.426
19232SOL    HW159529   6.222   8.393  11.391
19232SOL    HW259530   6.262   8.537  11.418
19233SOL     OW59531   4.329   3.012   9.703
19233SOL    HW159532   4.270   2.966   9.643
19233SOL    HW259533   4.353   2.947   9.768
19234SOL     OW59534  13.921   5.245   9.473
19234SOL    HW159535  13.996   5.264   9.416
19234SOL    HW259536  13.896   5.156   9.451
19235SOL     OW59537   6.555  14.310  12.438
19235SOL    HW159538   6.528  14.399  12.415
19235SOL    HW259539   6.482  14.255  12.410
19236SOL     OW59540   6.536  12.459   8.822
19236SOL    HW159541   6.561  12.472   8.913
19236SOL    HW259542   6.615  12.426   8.779
19237SOL     OW59543  10.698  14.469   0.971
19237SOL    HW159544  10.692  14.457   0.876
19237SOL    HW259545  10.791  14.488   0.986
19238SOL     OW59546   6.942   7.309   9.351
19238SOL    HW159547   6.902   7.296   9.437
19238SOL    HW259548   6.890   7.378   9.310
19239SOL     OW59549   6.648   4.600   0.934
19239SOL    HW159550   6.655   4.694   0.918
19239SOL    HW259551   6.555   4.585   0.950
19240SOL     OW59552  10.519   0.916   0.739
19240SOL    HW159553  10.486   1.001   0.712
19240SOL    HW259554  10.520   0.864   0.658
19241SOL     OW59555   4.592   6.397  13.380
19241SOL    HW159556   4.630   6.445  13.307
19241SOL    HW259557   4.503   6.431  13.389
19242SOL     OW59558  12.842  12.891   1.476
19242SOL    HW159559  12.795  12.876   1.559
19242SOL    HW259560  12.865  12.984   1.479
19243SOL     OW59561   6.015  10.824   6.293
19243SOL    HW159562   6.047  10.881   6.223
19243SOL    HW259563   5.922  10.813   6.275
19244SOL     OW59564  11.529   3.628  11.979
19244SOL    HW159565  11.532   3.714  11.937
19244SOL    HW259566  11.459   3.634  12.044
19245SOL     OW59567   7.190   5.747  13.396
19245SOL    HW159568   7.121   5.814  13.391
19245SOL    HW259569   7.258   5.787  13.450
19246SOL     OW59570  13.537   8.020  14.641
19246SOL    HW159571  13.545   8.013  14.546
19246SOL    HW259572  13.623   7.996  14.675
19247SOL     OW59573  10.681  13.927   5.390
19247SOL    HW159574  10.634  13.996   5.343
19247SOL    HW259575  10.623  13.902   5.461
19248SOL     OW59576   4.093   8.267   8.340
19248SOL    HW159577   4.130   8.184   8.369
19248SOL    HW259578   4.038   8.244   8.265
19249SOL     OW59579   7.219   5.977   1.458
19249SOL    HW159580   7.152   6.026   1.506
19249SOL    HW259581   7.170   5.910   1.411
19250SOL     OW59582   5.524  12.994  10.049
19250SOL    HW159583   5.528  12.902  10.074
19250SOL    HW259584   5.559  13.041  10.124
19251SOL     OW59585   1.270   6.425   0.930
19251SOL    HW159586   1.359   6.440   0.899
19251SOL    HW259587   1.257   6.489   1.000
19252SOL     OW59588   3.248   4.708   1.879
19252SOL    HW159589   3.264   4.768   1.953
19252SOL    HW259590   3.329   4.658   1.871
19253SOL     OW59591   3.497   3.377   3.448
19253SOL    HW159592   3.469   3.297   3.403
19253SOL    HW259593   3.588   3.359   3.473
19254SOL     OW59594   2.233   5.703   6.085
19254SOL    HW159595   2.253   5.765   6.014
19254SOL    HW259596   2.272   5.621   6.057
19255SOL     OW59597   0.070   2.493  14.236
19255SOL    HW159598  14.851   2.518  14.232
19255SOL    HW259599   0.103   2.532  14.317
19256SOL     OW59600   0.976  13.118   4.539
19256SOL    HW159601   0.942  13.055   4.475
19256SOL    HW259602   0.982  13.200   4.490
19257SOL     OW59603  11.516  14.163   2.772
19257SOL    HW159604  11.428  14.177   2.806
19257SOL    HW259605  11.546  14.083   2.814
19258SOL     OW59606   5.498   3.384   1.914
19258SOL    HW159607   5.556   3.434   1.972
19258SOL    HW259608   5.428   3.353   1.970
19259SOL     OW59609   6.203   0.570   9.906
19259SOL    HW159610   6.123   0.594   9.860
19259SOL    HW259611   6.241   0.653   9.936
19260SOL     OW59612   4.322  10.555   0.557
19260SOL    HW159613   4.269  10.498   0.501
19260SOL    HW259614   4.288  10.541   0.645
19261SOL     OW59615   1.646  10.993  12.617
19261SOL    HW159616   1.577  10.972  12.554
19261SOL    HW259617   1.601  11.040  12.687
19262SOL     OW59618   9.742   4.743  12.381
19262SOL    HW159619   9.836   4.721  12.384
19262SOL    HW259620   9.736   4.811  12.314
19263SOL     OW59621   6.175   9.462   7.702
19263SOL    HW159622   6.156   9.413   7.782
19263SOL    HW259623   6.123   9.542   7.709
19264SOL     OW59624   9.456   9.197   2.486
19264SOL    HW159625   9.456   9.165   2.396
19264SOL    HW259626   9.432   9.120   2.538
19265SOL     OW59627   6.004   6.228   9.058
19265SOL    HW159628   5.937   6.168   9.025
19265SOL    HW259629   5.955   6.300   9.097
19266SOL     OW59630   7.977   7.817   3.935
19266SOL    HW159631   7.989   7.906   3.904
19266SOL    HW259632   7.918   7.825   4.010
19267SOL     OW59633  11.571   9.894  12.721
19267SOL    HW159634  11.542   9.809  12.755
19267SOL    HW259635  11.621   9.873  12.642
19268SOL     OW59636   7.070   3.863  10.286
19268SOL    HW159637   7.072   3.785  10.342
19268SOL    HW259638   7.155   3.904  10.299
19269SOL     OW59639  11.957   4.535  14.461
19269SOL    HW159640  12.036   4.502  14.418
19269SOL    HW259641  11.983   4.551  14.552
19270SOL     OW59642   0.560  10.406   8.527
19270SOL    HW159643   0.596  10.410   8.615
19270SOL    HW259644   0.472  10.443   8.536
19271SOL     OW59645   5.296   5.371   9.240
19271SOL    HW159646   5.264   5.451   9.281
19271SOL    HW259647   5.229   5.348   9.176
19272SOL     OW59648   6.149   5.219   3.185
19272SOL    HW159649   6.206   5.235   3.110
19272SOL    HW259650   6.075   5.169   3.150
19273SOL     OW59651  10.216   6.272  12.894
19273SOL    HW159652  10.150   6.219  12.938
19273SOL    HW259653  10.291   6.214  12.884
19274SOL     OW59654   0.769  13.702   1.187
19274SOL    HW159655   0.679  13.726   1.207
19274SOL    HW259656   0.762  13.638   1.117
19275SOL     OW59657   3.634  13.320  13.473
19275SOL    HW159658   3.724  13.332  13.503
19275SOL    HW259659   3.581  13.367  13.539
19276SOL     OW59660   6.548   0.717   7.883
19276SOL    HW159661   6.511   0.790   7.932
19276SOL    HW259662   6.541   0.641   7.942
19277SOL     OW59663   3.300   7.525  13.483
19277SOL    HW159664   3.281   7.459  13.549
19277SOL    HW259665   3.231   7.590  13.493
19278SOL     OW59666  10.578  10.150   1.549
19278SOL    HW159667  10.487  10.120   1.545
19278SOL    HW259668  10.630  10.072   1.535
19279SOL     OW59669   7.579   8.778  10.170
19279SOL    HW159670   7.504   8.751  10.117
19279SOL    HW259671   7.649   8.717  10.145
19280SOL     OW59672  13.441  14.423  14.529
19280SOL    HW159673  13.412  14.506  14.493
19280SOL    HW259674  13.449  14.439  14.623
19281SOL     OW59675   1.739   3.288   5.923
19281SOL    HW159676   1.732   3.287   6.019
19281SOL    HW259677   1.697   3.370   5.897
19282SOL     OW59678  14.509  11.552  14.800
19282SOL    HW159679  14.564  11.614  14.848
19282SOL    HW259680  14.429  11.601  14.780
19283SOL     OW59681   7.882   6.934  12.410
19283SOL    HW159682   7.953   6.996  12.396
19283SOL    HW259683   7.855   6.949  12.500
19284SOL     OW59684  10.264   6.634   1.295
19284SOL    HW159685  10.262   6.589   1.210
19284SOL    HW259686  10.355   6.660   1.306
19285SOL     OW59687  12.704   6.193   1.222
19285SOL    HW159688  12.777   6.236   1.177
19285SOL    HW259689  12.654   6.265   1.261
19286SOL     OW59690  11.810   6.541   4.169
19286SOL    HW159691  11.840   6.626   4.136
19286SOL    HW259692  11.726   6.526   4.125
19287SOL     OW59693   5.799   7.537   1.498
19287SOL    HW159694   5.818   7.445   1.480
19287SOL    HW259695   5.723   7.535   1.556
19288SOL     OW59696   6.832   4.853   3.876
19288SOL    HW159697   6.881   4.771   3.888
19288SOL    HW259698   6.759   4.829   3.818
19289SOL     OW59699   6.965  10.821   9.626
19289SOL    HW159700   6.951  10.814   9.721
19289SOL    HW259701   7.053  10.786   9.612
19290SOL     OW59702   1.175   0.396   7.719
19290SOL    HW159703   1.217   0.334   7.779
19290SOL    HW259704   1.238   0.468   7.712
19291SOL     OW59705   7.065   2.868  10.258
19291SOL    HW159706   7.086   2.934  10.324
19291SOL    HW259707   6.976   2.890  10.229
19292SOL     OW59708   5.091   2.016   7.587
19292SOL    HW159709   5.017   2.014   7.648
19292SOL    HW259710   5.050   2.025   7.501
19293SOL     OW59711  11.932   5.384  14.542
19293SOL    HW159712  11.846   5.417  14.571
19293SOL    HW259713  11.993   5.416  14.608
19294SOL     OW59714   2.503  11.618   2.368
19294SOL    HW159715   2.575  11.573   2.323
19294SOL    HW259716   2.505  11.583   2.457
19295SOL     OW59717   7.770   8.038  11.385
19295SOL    HW159718   7.711   8.113  11.386
19295SOL    HW259719   7.736   7.982  11.314
19296SOL     OW59720   3.997   9.696   7.227
19296SOL    HW159721   3.924   9.755   7.245
19296SOL    HW259722   3.973   9.652   7.145
19297SOL     OW59723   3.796  14.629  12.891
19297SOL    HW159724   3.727  14.652  12.829
19297SOL    HW259725   3.761  14.652  12.976
19298SOL     OW59726  13.604   4.833  13.326
19298SOL    HW159727  13.642   4.877  13.250
19298SOL    HW259728  13.525   4.885  13.346
19299SOL     OW59729   5.115   2.484   4.844
19299SOL    HW159730   5.150   2.551   4.784
19299SOL    HW259731   5.103   2.530   4.927
19300SOL     OW59732   2.442   8.666  14.747
19300SOL    HW159733   2.374   8.732  14.762
19300SOL    HW259734   2.524   8.713  14.762
19301SOL     OW59735   3.031   0.284  14.699
19301SOL    HW159736   3.002   0.221  14.633
19301SOL    HW259737   3.096   0.338  14.653
19302SOL     OW59738  14.304   0.893  12.790
19302SOL    HW159739  14.327   0.800  12.801
19302SOL    HW259740  14.388   0.938  12.792
19303SOL     OW59741   0.240   6.575   2.321
19303SOL    HW159742   0.161   6.523   2.331
19303SOL    HW259743   0.263   6.602   2.411
19304SOL     OW59744  13.275   0.661   9.652
19304SOL    HW159745  13.283   0.735   9.713
19304SOL    HW259746  13.191   0.621   9.675
19305SOL     OW59747   2.683   2.962  14.302
19305SOL    HW159748   2.745   3.008  14.358
19305SOL    HW259749   2.695   3.003  14.216
19306SOL     OW59750  13.800  13.440   8.935
19306SOL    HW159751  13.727  13.470   8.990
19306SOL    HW259752  13.868  13.506   8.948
19307SOL     OW59753   4.137   0.473  13.818
19307SOL    HW159754   4.048   0.508  13.819
19307SOL    HW259755   4.187   0.534  13.872
19308SOL     OW59756   4.619   0.060   6.283
19308SOL    HW159757   4.638   0.065   6.377
19308SOL    HW259758   4.550  14.867   6.276
19309SOL     OW59759  14.631  10.527   7.475
19309SOL    HW159760  14.710  10.549   7.424
19309SOL    HW259761  14.654  10.445   7.519
19310SOL     OW59762   1.216  13.767   9.841
19310SOL    HW159763   1.157  13.713   9.788
19310SOL    HW259764   1.175  13.853   9.843
19311SOL     OW59765  13.001   0.357  12.746
19311SOL    HW159766  13.011   0.287  12.810
19311SOL    HW259767  13.016   0.315  12.661
19312SOL     OW59768  11.182   5.003  13.356
19312SOL    HW159769  11.246   5.054  13.307
19312SOL    HW259770  11.232   4.928  13.389
19313SOL     OW59771   0.794   5.259   5.782
19313SOL    HW159772   0.848   5.180   5.787
19313SOL    HW259773   0.786   5.276   5.688
19314SOL     OW59774   6.472  10.185  12.631
19314SOL    HW159775   6.556  10.223  12.654
19314SOL    HW259776   6.433  10.247  12.570
19315SOL     OW59777   2.956  11.458  10.908
19315SOL    HW159778   3.043  11.492  10.929
19315SOL    HW259779   2.961  11.365  10.929
19316SOL     OW59780  14.335   1.236   0.082
19316SOL    HW159781  14.312   1.144   0.100
19316SOL    HW259782  14.317   1.281   0.165
19317SOL     OW59783  12.901  13.414   9.616
19317SOL    HW159784  12.867  13.483   9.559
19317SOL    HW259785  12.827  13.389   9.670
19318SOL     OW59786   8.010   7.243   1.519
19318SOL    HW159787   8.075   7.175   1.537
19318SOL    HW259788   8.021   7.306   1.590
19319SOL     OW59789   0.585  12.478  14.298
19319SOL    HW159790   0.577  12.464  14.393
19319SOL    HW259791   0.498  12.458  14.264
19320SOL     OW59792  10.225   2.414   4.549
19320SOL    HW159793  10.276   2.367   4.615
19320SOL    HW259794  10.248   2.506   4.562
19321SOL     OW59795  11.837   5.355   0.381
19321SOL    HW159796  11.925   5.317   0.376
19321SOL    HW259797  11.852   5.449   0.371
19322SOL     OW59798   7.708   2.359   4.920
19322SOL    HW159799   7.761   2.435   4.896
19322SOL    HW259800   7.729   2.344   5.012
19323SOL     OW59801   3.727   3.232   9.283
19323SOL    HW159802   3.786   3.254   9.212
19323SOL    HW259803   3.720   3.313   9.334
19324SOL     OW59804   4.604   8.177  11.546
19324SOL    HW159805   4.678   8.129  11.509
19324SOL    HW259806   4.612   8.166  11.641
19325SOL     OW59807  11.909   7.233   4.989
19325SOL    HW159808  11.881   7.149   4.954
19325SOL    HW259809  11.852   7.248   5.065
19326SOL     OW59810   0.976  10.413   6.580
19326SOL    HW159811   0.931  10.475   6.523
19326SOL    HW259812   1.050  10.463   6.617
19327SOL     OW59813   6.822  14.086  11.423
19327SOL    HW159814   6.794  14.019  11.486
19327SOL    HW259815   6.815  14.044  11.338
19328SOL     OW59816   2.319   0.990   9.488
19328SOL    HW159817   2.377   1.051   9.533
19328SOL    HW259818   2.247   1.045   9.456
19329SOL     OW59819   1.397  14.022  13.382
19329SOL    HW159820   1.358  14.110  13.374
19329SOL    HW259821   1.489  14.038  13.400
19330SOL     OW59822  13.416  12.698   9.648
19330SOL    HW159823  13.326  12.709   9.677
19330SOL    HW259824  13.425  12.604   9.634
19331SOL     OW59825   8.374  10.250   7.413
19331SOL    HW159826   8.423  10.314   7.361
19331SOL    HW259827   8.440  10.189   7.446
19332SOL     OW59828  13.192   7.438   9.519
19332SOL    HW159829  13.216   7.521   9.561
19332SOL    HW259830  13.155   7.465   9.434
19333SOL     OW59831   9.140   4.178   5.317
19333SOL    HW159832   9.223   4.138   5.291
19333SOL    HW259833   9.162   4.271   5.330
19334SOL     OW59834   1.277   0.617   0.571
19334SOL    HW159835   1.281   0.573   0.486
19334SOL    HW259836   1.208   0.571   0.619
19335SOL     OW59837   3.326   2.616   7.586
19335SOL    HW159838   3.298   2.620   7.678
19335SOL    HW259839   3.244   2.620   7.536
19336SOL     OW59840  11.315   7.282   1.202
19336SOL    HW159841  11.248   7.232   1.248
19336SOL    HW259842  11.390   7.283   1.262
19337SOL     OW59843  13.483   5.066   8.740
19337SOL    HW159844  13.455   5.106   8.822
19337SOL    HW259845  13.402   5.052   8.690
19338SOL     OW59846   4.161  14.041   6.210
19338SOL    HW159847   4.190  14.115   6.262
19338SOL    HW259848   4.099  13.994   6.267
19339SOL     OW59849   8.693   6.532   0.907
19339SOL    HW159850   8.737   6.583   0.839
19339SOL    HW259851   8.600   6.547   0.892
19340SOL     OW59852  12.273  14.383   5.454
19340SOL    HW159853  12.180  14.401   5.469
19340SOL    HW259854  12.277  14.351   5.364
19341SOL     OW59855   5.847   4.880   2.418
19341SOL    HW159856   5.792   4.915   2.348
19341SOL    HW259857   5.890   4.958   2.456
19342SOL     OW59858  14.350   9.623   2.680
19342SOL    HW159859  14.319   9.618   2.770
19342SOL    HW259860  14.417   9.691   2.682
19343SOL     OW59861   8.680   5.446   1.873
19343SOL    HW159862   8.663   5.421   1.964
19343SOL    HW259863   8.599   5.485   1.843
19344SOL     OW59864  10.534  12.562  11.254
19344SOL    HW159865  10.511  12.531  11.342
19344SOL    HW259866  10.495  12.496  11.195
19345SOL     OW59867   5.113  12.258  14.398
19345SOL    HW159868   5.202  12.290  14.410
19345SOL    HW259869   5.058  12.337  14.403
19346SOL     OW59870   2.643   0.051   3.253
19346SOL    HW159871   2.685   0.068   3.337
19346SOL    HW259872   2.713   0.060   3.188
19347SOL     OW59873  11.629  10.513   3.848
19347SOL    HW159874  11.713  10.517   3.893
19347SOL    HW259875  11.615  10.601   3.815
19348SOL     OW59876   7.109   5.115  14.168
19348SOL    HW159877   7.186   5.144  14.217
19348SOL    HW259878   7.136   5.122  14.076
19349SOL     OW59879   1.459   1.401  11.504
19349SOL    HW159880   1.513   1.461  11.556
19349SOL    HW259881   1.370   1.419  11.533
19350SOL     OW59882   0.635   5.086  14.132
19350SOL    HW159883   0.563   5.135  14.172
19350SOL    HW259884   0.596   5.045  14.055
19351SOL     OW59885  13.297   7.689   0.044
19351SOL    HW159886  13.304   7.655   0.133
19351SOL    HW259887  13.380   7.735   0.030
19352SOL     OW59888   3.422  12.556  13.134
19352SOL    HW159889   3.328  12.570  13.145
19352SOL    HW259890   3.435  12.550  13.039
19353SOL     OW59891   7.608   5.850   8.994
19353SOL    HW159892   7.590   5.941   8.972
19353SOL    HW259893   7.553   5.832   9.070
19354SOL     OW59894   1.394  12.188   0.283
19354SOL    HW159895   1.313  12.217   0.323
19354SOL    HW259896   1.433  12.129   0.347
19355SOL     OW59897   9.704  11.164   0.348
19355SOL    HW159898   9.636  11.133   0.288
19355SOL    HW259899   9.662  11.165   0.434
19356SOL     OW59900  13.529  12.528   9.439
19356SOL    HW159901  13.469  12.460   9.471
19356SOL    HW259902  13.616  12.493   9.456
19357SOL     OW59903   1.464   7.976  14.098
19357SOL    HW159904   1.550   8.014  14.076
19357SOL    HW259905   1.456   7.989  14.193
19358SOL     OW59906  13.381  12.740  13.065
19358SOL    HW159907  13.465  12.725  13.108
19358SOL    HW259908  13.315  12.720  13.132
19359SOL     OW59909   0.677   3.837   9.419
19359SOL    HW159910   0.679   3.766   9.482
19359SOL    HW259911   0.770   3.858   9.404
19360SOL     OW59912   1.514   0.853   1.321
19360SOL    HW159913   1.503   0.855   1.416
19360SOL    HW259914   1.435   0.896   1.287
19361SOL     OW59915  14.382  13.345  14.652
19361SOL    HW159916  14.429  13.318  14.731
19361SOL    HW259917  14.373  13.265  14.601
19362SOL     OW59918  11.136   2.210  10.839
19362SOL    HW159919  11.137   2.199  10.934
19362SOL    HW259920  11.065   2.152  10.809
19363SOL     OW59921   9.430   7.659   6.714
19363SOL    HW159922   9.412   7.658   6.808
19363SOL    HW259923   9.378   7.588   6.678
19364SOL     OW59924   2.084   6.387   4.041
19364SOL    HW159925   2.168   6.347   4.066
19364SOL    HW259926   2.047   6.416   4.124
19365SOL     OW59927   2.930   5.029  11.816
19365SOL    HW159928   2.891   5.073  11.741
19365SOL    HW259929   2.937   5.097  11.883
19366SOL     OW59930  11.059   8.184   7.380
19366SOL    HW159931  11.031   8.245   7.448
19366SOL    HW259932  11.138   8.224   7.343
19367SOL     OW59933  12.849   4.918  13.945
19367SOL    HW159934  12.836   4.922  14.040
19367SOL    HW259935  12.843   4.825  13.924
19368SOL     OW59936   7.843  11.404  10.574
19368SOL    HW159937   7.935  11.425  10.584
19368SOL    HW259938   7.839  11.308  10.573
19369SOL     OW59939   9.839   1.360   2.405
19369SOL    HW159940   9.933   1.349   2.391
19369SOL    HW259941   9.802   1.370   2.317
19370SOL     OW59942  10.814   7.869   2.602
19370SOL    HW159943  10.892   7.920   2.624
19370SOL    HW259944  10.787   7.829   2.685
19371SOL     OW59945   1.063  10.494   1.545
19371SOL    HW159946   1.078  10.530   1.632
19371SOL    HW259947   0.999  10.424   1.559
19372SOL     OW59948   1.288  13.620   1.968
19372SOL    HW159949   1.257  13.554   1.906
19372SOL    HW259950   1.335  13.684   1.914
19373SOL     OW59951  11.462   6.134   6.078
19373SOL    HW159952  11.460   6.125   6.174
19373SOL    HW259953  11.373   6.159   6.055
19374SOL     OW59954   7.766  10.165   9.119
19374SOL    HW159955   7.693  10.224   9.098
19374SOL    HW259956   7.726  10.078   9.124
19375SOL     OW59957   0.981   8.803   3.550
19375SOL    HW159958   1.034   8.826   3.626
19375SOL    HW259959   0.897   8.777   3.586
19376SOL     OW59960  11.708  13.567  14.167
19376SOL    HW159961  11.747  13.651  14.193
19376SOL    HW259962  11.768  13.501  14.200
19377SOL     OW59963   7.368   9.726   2.202
19377SOL    HW159964   7.357   9.679   2.120
19377SOL    HW259965   7.359   9.818   2.179
19378SOL     OW59966  10.869  13.706   0.611
19378SOL    HW159967  10.907  13.794   0.618
19378SOL    HW259968  10.944  13.647   0.614
19379SOL     OW59969   5.505  14.488   1.598
19379SOL    HW159970   5.469  14.577   1.593
19379SOL    HW259971   5.481  14.448   1.515
19380SOL     OW59972   5.139  13.848  12.324
19380SOL    HW159973   5.110  13.789  12.255
19380SOL    HW259974   5.086  13.824  12.400
19381SOL     OW59975   5.731   3.036   5.385
19381SOL    HW159976   5.671   3.026   5.459
19381SOL    HW259977   5.683   2.999   5.310
19382SOL     OW59978   8.481   4.344   4.919
19382SOL    HW159979   8.481   4.297   4.836
19382SOL    HW259980   8.520   4.283   4.982
19383SOL     OW59981  13.403   4.600  13.461
19383SOL    HW159982  13.416   4.566  13.372
19383SOL    HW259983  13.484   4.578  13.507
19384SOL     OW59984  12.148   2.478   9.163
19384SOL    HW159985  12.228   2.530   9.170
19384SOL    HW259986  12.138   2.462   9.069
19385SOL     OW59987  13.679  14.584   5.980
19385SOL    HW159988  13.633  14.581   5.896
19385SOL    HW259989  13.699  14.493   6.001
19386SOL     OW59990   6.911   9.218   3.762
19386SOL    HW159991   6.952   9.218   3.849
19386SOL    HW259992   6.882   9.128   3.748
19387SOL     OW59993  13.600   9.749  11.948
19387SOL    HW159994  13.515   9.742  11.906
19387SOL    HW259995  13.587   9.807  12.022
19388SOL     OW59996  13.087   5.004   3.778
19388SOL    HW159997  13.150   5.038   3.714
19388SOL    HW259998  13.141   4.961   3.844
19389SOL     OW59999   2.628   9.311   3.729
19389SOL    HW160000   2.616   9.289   3.822
19389SOL    HW260001   2.723   9.315   3.718
19390SOL     OW60002   7.690  11.022  10.189
19390SOL    HW160003   7.726  11.096  10.237
19390SOL    HW260004   7.616  11.058  10.141
19391SOL     OW60005   7.808  14.288   4.703
19391SOL    HW160006   7.790  14.368   4.655
19391SOL    HW260007   7.903  14.278   4.699
19392SOL     OW60008   3.896   9.628   5.552
19392SOL    HW160009   3.829   9.663   5.493
19392SOL    HW260010   3.932   9.552   5.505
19393SOL     OW60011  12.554  13.501   4.309
19393SOL    HW160012  12.500  13.569   4.350
19393SOL    HW260013  12.593  13.454   4.382
19394SOL     OW60014   8.504   5.513  12.689
19394SOL    HW160015   8.583   5.462  12.705
19394SOL    HW260016   8.458   5.512  12.773
19395SOL     OW60017  12.216   2.987   1.191
19395SOL    HW160018  12.229   2.894   1.172
19395SOL    HW260019  12.252   2.999   1.279
19396SOL     OW60020  10.123   9.109  11.273
19396SOL    HW160021  10.190   9.152  11.220
19396SOL    HW260022  10.056   9.177  11.287
19397SOL     OW60023   0.991  14.643  13.219
19397SOL    HW160024   1.080  14.626  13.248
19397SOL    HW260025   0.940  14.572  13.258
19398SOL     OW60026   6.323  13.817   3.329
19398SOL    HW160027   6.321  13.826   3.233
19398SOL    HW260028   6.375  13.739   3.345
19399SOL     OW60029  14.225  12.499   7.349
19399SOL    HW160030  14.144  12.467   7.309
19399SOL    HW260031  14.196  12.545   7.428
19400SOL     OW60032   4.398   4.842  10.473
19400SOL    HW160033   4.360   4.910  10.528
19400SOL    HW260034   4.324   4.806  10.424
19401SOL     OW60035   5.465  12.485   6.404
19401SOL    HW160036   5.423  12.548   6.461
19401SOL    HW260037   5.397  12.459   6.342
19402SOL     OW60038  14.150   1.686   2.856
19402SOL    HW160039  14.183   1.644   2.935
19402SOL    HW260040  14.152   1.617   2.789
19403SOL     OW60041  14.291   3.733  14.735
19403SOL    HW160042  14.287   3.638  14.728
19403SOL    HW260043  14.261   3.752  14.823
19404SOL     OW60044   5.947   2.325   8.717
19404SOL    HW160045   5.923   2.395   8.655
19404SOL    HW260046   6.042   2.317   8.709
19405SOL     OW60047  10.054   2.264   1.532
19405SOL    HW160048  10.089   2.183   1.569
19405SOL    HW260049  10.116   2.332   1.560
19406SOL     OW60050   3.033  10.891   3.389
19406SOL    HW160051   2.954  10.836   3.383
19406SOL    HW260052   3.000  10.980   3.390
19407SOL     OW60053   0.745   7.315  12.096
19407SOL    HW160054   0.769   7.369  12.021
19407SOL    HW260055   0.810   7.245  12.097
19408SOL     OW60056   0.731   3.402   4.368
19408SOL    HW160057   0.639   3.419   4.347
19408SOL    HW260058   0.778   3.477   4.330
19409SOL     OW60059  13.768   3.623   8.206
19409SOL    HW160060  13.677   3.592   8.207
19409SOL    HW260061  13.775   3.674   8.125
19410SOL     OW60062   1.108   4.560   2.324
19410SOL    HW160063   1.127   4.632   2.384
19410SOL    HW260064   1.141   4.590   2.239
19411SOL     OW60065   0.031  10.509  11.793
19411SOL    HW160066   0.034  10.472  11.881
19411SOL    HW260067   0.085  10.589  11.799
19412SOL     OW60068   6.959  11.843   2.634
19412SOL    HW160069   7.049  11.856   2.602
19412SOL    HW260070   6.937  11.754   2.606
19413SOL     OW60071   0.823   9.238   5.434
19413SOL    HW160072   0.796   9.319   5.390
19413SOL    HW260073   0.791   9.248   5.524
19414SOL     OW60074  10.309   3.637  10.381
19414SOL    HW160075  10.363   3.707  10.344
19414SOL    HW260076  10.358   3.557  10.362
19415SOL     OW60077   8.653   6.720   8.567
19415SOL    HW160078   8.689   6.667   8.638
19415SOL    HW260079   8.683   6.808   8.586
19416SOL     OW60080  12.998  13.108   4.100
19416SOL    HW160081  12.992  13.033   4.041
19416SOL    HW260082  12.964  13.182   4.049
19417SOL     OW60083   0.875   9.308   3.088
19417SOL    HW160084   0.849   9.227   3.045
19417SOL    HW260085   0.800   9.366   3.077
19418SOL     OW60086   4.702   3.163  14.572
19418SOL    HW160087   4.720   3.247  14.530
19418SOL    HW260088   4.606   3.161  14.580
19419SOL     OW60089  13.475   7.113  11.777
19419SOL    HW160090  13.415   7.127  11.704
19419SOL    HW260091  13.453   7.026  11.810
19420SOL     OW60092  11.563   3.431   3.987
19420SOL    HW160093  11.634   3.399   4.043
19420SOL    HW260094  11.588   3.403   3.899
19421SOL     OW60095  12.372  14.864   7.992
19421SOL    HW160096  12.377  14.800   7.922
19421SOL    HW260097  12.393   0.075   7.950
19422SOL     OW60098  10.390   5.101   8.931
19422SOL    HW160099  10.420   5.058   8.851
19422SOL    HW260100  10.471   5.125   8.977
19423SOL     OW60101   9.075   9.492   8.594
19423SOL    HW160102   9.163   9.527   8.579
19423SOL    HW260103   9.059   9.508   8.687
19424SOL     OW60104   5.089   4.402   1.161
19424SOL    HW160105   5.034   4.463   1.111
19424SOL    HW260106   5.029   4.361   1.223
19425SOL     OW60107   0.980   3.206   8.544
19425SOL    HW160108   1.009   3.260   8.617
19425SOL    HW260109   0.940   3.268   8.483
19426SOL     OW60110   0.599   9.613   0.045
19426SOL    HW160111   0.690   9.637   0.027
19426SOL    HW260112   0.567   9.683   0.102
19427SOL     OW60113   8.798   4.387   4.713
19427SOL    HW160114   8.765   4.413   4.799
19427SOL    HW260115   8.723   4.397   4.654
19428SOL     OW60116   7.980  12.204  14.278
19428SOL    HW160117   8.046  12.266  14.309
19428SOL    HW260118   8.030  12.128  14.250
19429SOL     OW60119   1.791   3.080  12.640
19429SOL    HW160120   1.759   3.170  12.643
19429SOL    HW260121   1.794   3.058  12.547
19430SOL     OW60122  14.181   0.370  14.344
19430SOL    HW160123  14.163   0.396  14.254
19430SOL    HW260124  14.114   0.415  14.396
19431SOL     OW60125   8.800   8.312   6.779
19431SOL    HW160126   8.751   8.299   6.698
19431SOL    HW260127   8.739   8.283   6.848
19432SOL     OW60128   7.156  10.018  11.572
19432SOL    HW160129   7.080   9.968  11.542
19432SOL    HW260130   7.179  10.074  11.498
19433SOL     OW60131   0.118   8.935   3.291
19433SOL    HW160132   0.069   8.996   3.346
19433SOL    HW260133   0.100   8.848   3.328
19434SOL     OW60134  13.279   0.264   1.585
19434SOL    HW160135  13.336   0.237   1.657
19434SOL    HW260136  13.233   0.183   1.559
19435SOL     OW60137  12.663   0.200  12.370
19435SOL    HW160138  12.713   0.260  12.425
19435SOL    HW260139  12.721   0.181  12.297
19436SOL     OW60140  10.049  12.230  10.635
19436SOL    HW160141  10.065  12.159  10.573
19436SOL    HW260142  10.115  12.218  10.703
19437SOL     OW60143   3.201  13.858  14.341
19437SOL    HW160144   3.144  13.840  14.266
19437SOL    HW260145   3.142  13.867  14.415
19438SOL     OW60146   2.231   3.359  13.289
19438SOL    HW160147   2.263   3.372  13.379
19438SOL    HW260148   2.164   3.292  13.297
19439SOL     OW60149  10.365   1.915  10.523
19439SOL    HW160150  10.315   1.842  10.561
19439SOL    HW260151  10.301   1.962  10.470
19440SOL     OW60152   3.291   8.964  14.750
19440SOL    HW160153   3.277   8.870  14.759
19440SOL    HW260154   3.267   8.983  14.659
19441SOL     OW60155   9.136  13.687   9.455
19441SOL    HW160156   9.094  13.606   9.481
19441SOL    HW260157   9.065  13.743   9.424
19442SOL     OW60158   0.973  11.991   2.427
19442SOL    HW160159   0.909  12.042   2.378
19442SOL    HW260160   0.951  12.007   2.519
19443SOL     OW60161   0.795  12.354  12.763
19443SOL    HW160162   0.724  12.298  12.795
19443SOL    HW260163   0.807  12.420  12.831
19444SOL     OW60164   8.596   2.442  12.296
19444SOL    HW160165   8.681   2.397  12.300
19444SOL    HW260166   8.619   2.535  12.295
19445SOL     OW60167  12.512  13.125   3.177
19445SOL    HW160168  12.506  13.186   3.103
19445SOL    HW260169  12.554  13.175   3.246
19446SOL     OW60170   1.238  10.771   7.334
19446SOL    HW160171   1.226  10.845   7.275
19446SOL    HW260172   1.170  10.782   7.401
19447SOL     OW60173  14.524  11.863   5.675
19447SOL    HW160174  14.492  11.789   5.624
19447SOL    HW260175  14.584  11.909   5.616
19448SOL     OW60176   3.458  12.578  12.475
19448SOL    HW160177   3.441  12.499  12.527
19448SOL    HW260178   3.372  12.620  12.467
19449SOL     OW60179   0.551  12.760   9.747
19449SOL    HW160180   0.643  12.736   9.734
19449SOL    HW260181   0.510  12.745   9.662
19450SOL     OW60182  10.845   8.973   7.784
19450SOL    HW160183  10.899   9.051   7.795
19450SOL    HW260184  10.908   8.901   7.780
19451SOL     OW60185   6.032   9.190   1.960
19451SOL    HW160186   6.082   9.140   2.024
19451SOL    HW260187   5.959   9.226   2.010
19452SOL     OW60188   6.753  12.405  11.287
19452SOL    HW160189   6.659  12.422  11.280
19452SOL    HW260190   6.785  12.473  11.346
19453SOL     OW60191   0.586   6.423   4.567
19453SOL    HW160192   0.602   6.509   4.606
19453SOL    HW260193   0.494   6.404   4.588
19454SOL     OW60194   0.851   7.505   9.197
19454SOL    HW160195   0.768   7.495   9.244
19454SOL    HW260196   0.894   7.419   9.206
19455SOL     OW60197   1.748   6.319  11.011
19455SOL    HW160198   1.729   6.226  11.027
19455SOL    HW260199   1.823   6.338  11.067
19456SOL     OW60200   6.322   4.343   5.891
19456SOL    HW160201   6.273   4.403   5.946
19456SOL    HW260202   6.279   4.258   5.903
19457SOL     OW60203   5.666   2.458   1.461
19457SOL    HW160204   5.724   2.508   1.519
19457SOL    HW260205   5.722   2.389   1.425
19458SOL     OW60206   6.684   3.353   3.072
19458SOL    HW160207   6.753   3.400   3.119
19458SOL    HW260208   6.616   3.338   3.137
19459SOL     OW60209   7.203   9.290  12.950
19459SOL    HW160210   7.160   9.355  12.895
19459SOL    HW260211   7.132   9.237  12.986
19460SOL     OW60212  10.840  14.861  13.272
19460SOL    HW160213  10.918  14.807  13.276
19460SOL    HW260214  10.835   0.031  13.357
19461SOL     OW60215   8.692   7.335   1.820
19461SOL    HW160216   8.683   7.322   1.726
19461SOL    HW260217   8.604   7.354   1.851
19462SOL     OW60218   1.137   8.066  10.740
19462SOL    HW160219   1.053   8.027  10.720
19462SOL    HW260220   1.144   8.061  10.835
19463SOL     OW60221   0.797   1.818  11.325
19463SOL    HW160222   0.839   1.829  11.410
19463SOL    HW260223   0.742   1.740  11.335
19464SOL     OW60224   7.496   0.596   5.480
19464SOL    HW160225   7.495   0.663   5.412
19464SOL    HW260226   7.445   0.523   5.444
19465SOL     OW60227   6.329   2.235   0.673
19465SOL    HW160228   6.254   2.185   0.641
19465SOL    HW260229   6.404   2.199   0.627
19466SOL     OW60230  11.670   1.702   2.698
19466SOL    HW160231  11.747   1.759   2.702
19466SOL    HW260232  11.596   1.762   2.685
19467SOL     OW60233  10.710   0.358  10.973
19467SOL    HW160234  10.626   0.401  10.988
19467SOL    HW260235  10.700   0.314  10.889
19468SOL     OW60236  10.745   3.881   1.857
19468SOL    HW160237  10.812   3.817   1.882
19468SOL    HW260238  10.683   3.881   1.929
19469SOL     OW60239  10.003   3.555   3.636
19469SOL    HW160240  10.003   3.470   3.593
19469SOL    HW260241   9.912   3.569   3.661
19470SOL     OW60242   6.770   5.513  11.911
19470SOL    HW160243   6.785   5.592  11.858
19470SOL    HW260244   6.714   5.543  11.983
19471SOL     OW60245   4.417   5.135   5.694
19471SOL    HW160246   4.473   5.211   5.708
19471SOL    HW260247   4.392   5.140   5.602
19472SOL     OW60248  10.744   1.452   4.877
19472SOL    HW160249  10.742   1.399   4.957
19472SOL    HW260250  10.689   1.404   4.815
19473SOL     OW60251   9.637   9.574   9.495
19473SOL    HW160252   9.592   9.594   9.577
19473SOL    HW260253   9.640   9.478   9.492
19474SOL     OW60254   3.757   3.131   8.321
19474SOL    HW160255   3.833   3.162   8.271
19474SOL    HW260256   3.681   3.167   8.274
19475SOL     OW60257   4.847   0.490   3.806
19475SOL    HW160258   4.773   0.491   3.867
19475SOL    HW260259   4.892   0.407   3.824
19476SOL     OW60260   9.187   3.141   3.343
19476SOL    HW160261   9.190   3.140   3.439
19476SOL    HW260262   9.154   3.229   3.321
19477SOL     OW60263   9.221   1.489   0.086
19477SOL    HW160264   9.130   1.498   0.058
19477SOL    HW260265   9.268   1.556   0.035
19478SOL     OW60266  12.759   5.290   8.608
19478SOL    HW160267  12.795   5.222   8.665
19478SOL    HW260268  12.837   5.334   8.572
19479SOL     OW60269   6.917   7.758   4.040
19479SOL    HW160270   6.941   7.698   3.969
19479SOL    HW260271   6.882   7.702   4.109
19480SOL     OW60272  13.762   3.994   1.564
19480SOL    HW160273  13.829   4.037   1.617
19480SOL    HW260274  13.684   3.995   1.620
19481SOL     OW60275  11.602   2.797  11.020
19481SOL    HW160276  11.570   2.885  11.000
19481SOL    HW260277  11.543   2.739  10.972
19482SOL     OW60278   1.390   8.042   1.602
19482SOL    HW160279   1.309   7.993   1.589
19482SOL    HW260280   1.435   8.038   1.517
19483SOL     OW60281  13.224   3.402   4.261
19483SOL    HW160282  13.298   3.401   4.321
19483SOL    HW260283  13.192   3.493   4.263
19484SOL     OW60284  10.152   3.242   8.487
19484SOL    HW160285  10.238   3.218   8.520
19484SOL    HW260286  10.119   3.162   8.446
19485SOL     OW60287   7.369   3.211   1.479
19485SOL    HW160288   7.348   3.221   1.386
19485SOL    HW260289   7.429   3.137   1.482
19486SOL     OW60290   8.570   2.767  12.144
19486SOL    HW160291   8.523   2.705  12.088
19486SOL    HW260292   8.527   2.851  12.127
19487SOL     OW60293  10.951  13.372   1.031
19487SOL    HW160294  10.893  13.447   1.016
19487SOL    HW260295  11.039  13.408   1.023
19488SOL     OW60296   6.198  10.947   2.212
19488SOL    HW160297   6.119  10.906   2.177
19488SOL    HW260298   6.201  10.918   2.303
19489SOL     OW60299   5.492   2.959   8.112
19489SOL    HW160300   5.431   2.959   8.039
19489SOL    HW260301   5.442   2.922   8.185
19490SOL     OW60302   4.853   9.850   1.673
19490SOL    HW160303   4.883   9.763   1.698
19490SOL    HW260304   4.758   9.848   1.686
19491SOL     OW60305  12.198  10.738   6.260
19491SOL    HW160306  12.289  10.724   6.287
19491SOL    HW260307  12.189  10.690   6.178
19492SOL     OW60308   5.257  12.951  10.025
19492SOL    HW160309   5.350  12.966  10.043
19492SOL    HW260310   5.253  12.860   9.995
19493SOL     OW60311  12.163  11.611   4.053
19493SOL    HW160312  12.176  11.572   3.967
19493SOL    HW260313  12.078  11.578   4.082
19494SOL     OW60314  13.992  10.888   7.791
19494SOL    HW160315  13.929  10.816   7.795
19494SOL    HW260316  13.952  10.959   7.841
19495SOL     OW60317   3.209   1.925   7.082
19495SOL    HW160318   3.139   1.900   7.143
19495SOL    HW260319   3.285   1.941   7.137
19496SOL     OW60320   0.106   0.668   0.037
19496SOL    HW160321   0.012   0.668   0.023
19496SOL    HW260322   0.123   0.589   0.088
19497SOL     OW60323   1.305  14.700  14.800
19497SOL    HW160324   1.278  14.609  14.789
19497SOL    HW260325   1.331  14.705   0.020
19498SOL     OW60326   9.903  10.434   5.401
19498SOL    HW160327   9.829  10.418   5.459
19498SOL    HW260328   9.892  10.371   5.330
19499SOL     OW60329  13.962   5.857   2.075
19499SOL    HW160330  13.930   5.805   2.149
19499SOL    HW260331  13.984   5.793   2.008
19500SOL     OW60332   5.748  11.026   6.605
19500SOL    HW160333   5.659  11.038   6.572
19500SOL    HW260334   5.805  11.058   6.534
19501SOL     OW60335   3.545  12.133  11.681
19501SOL    HW160336   3.565  12.085  11.761
19501SOL    HW260337   3.520  12.221  11.711
19502SOL     OW60338   6.534   1.629  14.032
19502SOL    HW160339   6.553   1.581  13.951
19502SOL    HW260340   6.541   1.563  14.100
19503SOL     OW60341  11.287   2.648   7.582
19503SOL    HW160342  11.238   2.630   7.502
19503SOL    HW260343  11.232   2.614   7.652
19504SOL     OW60344   6.089   6.440   5.787
19504SOL    HW160345   6.176   6.412   5.815
19504SOL    HW260346   6.061   6.501   5.855
19505SOL     OW60347  12.148   0.331  10.664
19505SOL    HW160348  12.072   0.285  10.700
19505SOL    HW260349  12.163   0.288  10.579
19506SOL     OW60350   7.235   0.021   1.256
19506SOL    HW160351   7.189  14.855   1.181
19506SOL    HW260352   7.218   0.115   1.248
19507SOL     OW60353  12.929  10.181   1.400
19507SOL    HW160354  12.945  10.157   1.309
19507SOL    HW260355  12.919  10.097   1.445
19508SOL     OW60356   8.620   4.889   9.677
19508SOL    HW160357   8.612   4.865   9.584
19508SOL    HW260358   8.583   4.977   9.683
19509SOL     OW60359  10.997   0.751   1.403
19509SOL    HW160360  11.013   0.799   1.484
19509SOL    HW260361  11.075   0.767   1.349
19510SOL     OW60362  12.902  14.288   3.790
19510SOL    HW160363  12.915  14.288   3.885
19510SOL    HW260364  12.976  14.236   3.757
19511SOL     OW60365  14.211   5.736  11.877
19511SOL    HW160366  14.238   5.645  11.866
19511SOL    HW260367  14.210   5.750  11.972
19512SOL     OW60368  13.183   6.078   6.653
19512SOL    HW160369  13.204   6.138   6.581
19512SOL    HW260370  13.088   6.073   6.653
19513SOL     OW60371   5.948  10.079   1.318
19513SOL    HW160372   5.923  10.103   1.407
19513SOL    HW260373   5.866  10.083   1.268
19514SOL     OW60374   0.035   5.009   1.526
19514SOL    HW160375  14.820   5.035   1.501
19514SOL    HW260376   0.092   5.055   1.464
19515SOL     OW60377   8.513   2.102  11.867
19515SOL    HW160378   8.478   2.039  11.931
19515SOL    HW260379   8.450   2.099  11.795
19516SOL     OW60380   9.145   0.081   1.148
19516SOL    HW160381   9.210   0.095   1.217
19516SOL    HW260382   9.193   0.036   1.079
19517SOL     OW60383  14.228   5.928   9.901
19517SOL    HW160384  14.290   5.858   9.879
19517SOL    HW260385  14.280   5.992   9.949
19518SOL     OW60386  10.858   4.769   6.794
19518SOL    HW160387  10.828   4.678   6.805
19518SOL    HW260388  10.873   4.800   6.884
19519SOL     OW60389  13.607   8.445   7.197
19519SOL    HW160390  13.554   8.426   7.275
19519SOL    HW260391  13.691   8.474   7.232
19520SOL     OW60392   4.939  14.747   2.334
19520SOL    HW160393   4.845  14.740   2.317
19520SOL    HW260394   4.981  14.718   2.253
19521SOL     OW60395   5.301  12.195   3.970
19521SOL    HW160396   5.355  12.249   4.027
19521SOL    HW260397   5.349  12.113   3.963
19522SOL     OW60398   2.685  12.473   2.699
19522SOL    HW160399   2.727  12.387   2.693
19522SOL    HW260400   2.750  12.528   2.743
19523SOL     OW60401   1.152   1.249  13.947
19523SOL    HW160402   1.113   1.173  13.903
19523SOL    HW260403   1.237   1.218  13.977
19524SOL     OW60404   2.840   0.414  10.929
19524SOL    HW160405   2.860   0.329  10.890
19524SOL    HW260406   2.746   0.409  10.948
19525SOL     OW60407   8.427   5.376   5.495
19525SOL    HW160408   8.360   5.365   5.562
19525SOL    HW260409   8.379   5.365   5.412
19526SOL     OW60410   4.158   2.417   5.711
19526SOL    HW160411   4.176   2.491   5.653
19526SOL    HW260412   4.088   2.369   5.667
19527SOL     OW60413   2.470  14.180  10.423
19527SOL    HW160414   2.441  14.094  10.453
19527SOL    HW260415   2.560  14.188  10.454
19528SOL     OW60416  10.391   8.375   6.933
19528SOL    HW160417  10.422   8.300   6.882
19528SOL    HW260418  10.468   8.404   6.982
19529SOL     OW60419  13.165   9.237  13.289
19529SOL    HW160420  13.170   9.302  13.218
19529SOL    HW260421  13.166   9.289  13.369
19530SOL     OW60422   4.956  11.970  14.009
19530SOL    HW160423   5.049  11.994  14.003
19530SOL    HW260424   4.931  11.995  14.098
19531SOL     OW60425   4.491   5.509  11.468
19531SOL    HW160426   4.454   5.594  11.493
19531SOL    HW260427   4.419   5.462  11.426
19532SOL     OW60428   5.219   8.745   3.264
19532SOL    HW160429   5.161   8.762   3.190
19532SOL    HW260430   5.284   8.816   3.260
19533SOL     OW60431   8.467  13.308   1.604
19533SOL    HW160432   8.538  13.279   1.663
19533SOL    HW260433   8.391  13.257   1.631
19534SOL     OW60434   6.046   1.287   8.719
19534SOL    HW160435   6.125   1.243   8.753
19534SOL    HW260436   5.997   1.313   8.797
19535SOL     OW60437   4.018   8.929   3.138
19535SOL    HW160438   4.078   8.930   3.063
19535SOL    HW260439   4.075   8.942   3.213
19536SOL     OW60440  14.232  13.422   8.449
19536SOL    HW160441  14.289  13.353   8.481
19536SOL    HW260442  14.143  13.392   8.470
19537SOL     OW60443   8.636  11.216  11.139
19537SOL    HW160444   8.544  11.212  11.113
19537SOL    HW260445   8.678  11.145  11.091
19538SOL     OW60446   6.243   0.022   6.315
19538SOL    HW160447   6.249  14.872   6.408
19538SOL    HW260448   6.191   0.102   6.314
19539SOL     OW60449   0.497   8.018   0.659
19539SOL    HW160450   0.451   7.962   0.597
19539SOL    HW260451   0.481   7.977   0.744
19540SOL     OW60452   7.498   8.528   4.507
19540SOL    HW160453   7.419   8.573   4.476
19540SOL    HW260454   7.487   8.523   4.602
19541SOL     OW60455   3.674   3.022  11.932
19541SOL    HW160456   3.651   3.045  12.022
19541SOL    HW260457   3.595   2.981  11.897
19542SOL     OW60458   5.758   2.949   8.068
19542SOL    HW160459   5.684   2.962   8.128
19542SOL    HW260460   5.732   2.875   8.013
19543SOL     OW60461  12.705   0.034   8.469
19543SOL    HW160462  12.722  14.825   8.422
19543SOL    HW260463  12.783   0.048   8.523
19544SOL     OW60464  11.206   0.147  10.024
19544SOL    HW160465  11.171   0.074   9.972
19544SOL    HW260466  11.190   0.225   9.971
19545SOL     OW60467   8.154  11.814   8.671
19545SOL    HW160468   8.135  11.744   8.608
19545SOL    HW260469   8.248  11.811   8.682
19546SOL     OW60470   9.313   3.605   4.315
19546SOL    HW160471   9.249   3.626   4.247
19546SOL    HW260472   9.322   3.686   4.366
19547SOL     OW60473   6.608   5.974  11.299
19547SOL    HW160474   6.539   5.944  11.358
19547SOL    HW260475   6.562   6.024  11.232
19548SOL     OW60476  11.468  12.642   4.117
19548SOL    HW160477  11.458  12.655   4.212
19548SOL    HW260478  11.378  12.639   4.085
19549SOL     OW60479   8.545   9.120   8.322
19549SOL    HW160480   8.516   9.088   8.408
19549SOL    HW260481   8.629   9.077   8.307
19550SOL     OW60482  11.083  13.835  14.183
19550SOL    HW160483  11.157  13.880  14.224
19550SOL    HW260484  11.103  13.742  14.194
19551SOL     OW60485   2.017   6.744  13.485
19551SOL    HW160486   1.939   6.689  13.491
19551SOL    HW260487   1.995   6.810  13.420
19552SOL     OW60488   9.531   8.612  12.206
19552SOL    HW160489   9.535   8.530  12.255
19552SOL    HW260490   9.449   8.606  12.158
19553SOL     OW60491   2.225   8.144   8.802
19553SOL    HW160492   2.306   8.098   8.779
19553SOL    HW260493   2.232   8.158   8.897
19554SOL     OW60494  10.345   2.864   8.328
19554SOL    HW160495  10.406   2.848   8.401
19554SOL    HW260496  10.335   2.779   8.286
19555SOL     OW60497   8.560  14.529  14.137
19555SOL    HW160498   8.644  14.514  14.181
19555SOL    HW260499   8.581  14.528  14.043
19556SOL     OW60500  12.725  11.015  12.450
19556SOL    HW160501  12.808  11.048  12.414
19556SOL    HW260502  12.662  11.027  12.379
19557SOL     OW60503   8.780   4.465  10.644
19557SOL    HW160504   8.722   4.485  10.718
19557SOL    HW260505   8.813   4.551  10.617
19558SOL     OW60506   1.663   4.521  13.451
19558SOL    HW160507   1.619   4.523  13.365
19558SOL    HW260508   1.642   4.434  13.486
19559SOL     OW60509   0.236   1.990   4.842
19559SOL    HW160510   0.277   2.065   4.885
19559SOL    HW260511   0.296   1.917   4.857
19560SOL     OW60512   6.914   6.954  13.335
19560SOL    HW160513   6.897   7.046  13.313
19560SOL    HW260514   6.902   6.950  13.430
19561SOL     OW60515   0.819   3.116   7.046
19561SOL    HW160516   0.729   3.141   7.025
19561SOL    HW260517   0.854   3.190   7.095
19562SOL     OW60518   5.504  12.911   7.712
19562SOL    HW160519   5.415  12.938   7.687
19562SOL    HW260520   5.558  12.989   7.697
19563SOL     OW60521   9.386  10.749  12.102
19563SOL    HW160522   9.329  10.687  12.148
19563SOL    HW260523   9.333  10.828  12.093
19564SOL     OW60524  11.717   1.000  14.545
19564SOL    HW160525  11.715   0.967  14.635
19564SOL    HW260526  11.747   0.926  14.493
19565SOL     OW60527  11.318   7.159  11.904
19565SOL    HW160528  11.255   7.227  11.879
19565SOL    HW260529  11.394   7.174  11.847
19566SOL     OW60530  10.921  12.445  14.392
19566SOL    HW160531  10.950  12.391  14.465
19566SOL    HW260532  10.904  12.531  14.431
19567SOL     OW60533   4.453   8.896  10.656
19567SOL    HW160534   4.491   8.809  10.646
19567SOL    HW260535   4.496   8.949  10.589
19568SOL     OW60536   4.375   7.773   9.855
19568SOL    HW160537   4.404   7.777   9.764
19568SOL    HW260538   4.310   7.842   9.863
19569SOL     OW60539   3.860   9.065   6.284
19569SOL    HW160540   3.801   9.084   6.211
19569SOL    HW260541   3.943   9.042   6.242
19570SOL     OW60542   1.231   3.644   1.179
19570SOL    HW160543   1.177   3.571   1.210
19570SOL    HW260544   1.266   3.683   1.258
19571SOL     OW60545   0.904  12.827  13.217
19571SOL    HW160546   0.829  12.815  13.275
19571SOL    HW260547   0.873  12.884  13.147
19572SOL     OW60548  12.880   1.272   7.559
19572SOL    HW160549  12.786   1.258   7.550
19572SOL    HW260550  12.889   1.368   7.564
19573SOL     OW60551  14.194  14.138   0.911
19573SOL    HW160552  14.268  14.083   0.936
19573SOL    HW260553  14.234  14.213   0.867
19574SOL     OW60554  13.190   3.929  12.426
19574SOL    HW160555  13.221   4.007  12.380
19574SOL    HW260556  13.110   3.904  12.380
19575SOL     OW60557   5.414   1.984   8.748
19575SOL    HW160558   5.458   2.020   8.825
19575SOL    HW260559   5.485   1.965   8.686
19576SOL     OW60560   7.982   7.365   4.191
19576SOL    HW160561   7.978   7.397   4.281
19576SOL    HW260562   8.074   7.347   4.175
19577SOL     OW60563   7.894   6.623   0.733
19577SOL    HW160564   7.940   6.673   0.665
19577SOL    HW260565   7.896   6.532   0.702
19578SOL     OW60566  11.409  13.809   5.241
19578SOL    HW160567  11.374  13.822   5.329
19578SOL    HW260568  11.336  13.772   5.191
19579SOL     OW60569  13.978   3.730   3.541
19579SOL    HW160570  13.998   3.799   3.604
19579SOL    HW260571  13.890   3.751   3.509
19580SOL     OW60572  14.420  12.930  13.018
19580SOL    HW160573  14.437  13.021  13.041
19580SOL    HW260574  14.483  12.910  12.949
19581SOL     OW60575   4.583  10.799   9.668
19581SOL    HW160576   4.662  10.792   9.721
19581SOL    HW260577   4.534  10.719   9.688
19582SOL     OW60578   4.292   1.800   5.398
19582SOL    HW160579   4.374   1.846   5.379
19582SOL    HW260580   4.244   1.803   5.315
19583SOL     OW60581  13.433   7.045  13.323
19583SOL    HW160582  13.431   7.139  13.339
19583SOL    HW260583  13.351   7.012  13.359
19584SOL     OW60584   0.044  10.507   1.138
19584SOL    HW160585   0.086  10.453   1.205
19584SOL    HW260586   0.026  10.446   1.067
19585SOL     OW60587   3.890   3.369   2.890
19585SOL    HW160588   3.829   3.384   2.962
19585SOL    HW260589   3.903   3.274   2.889
19586SOL     OW60590  14.624  14.516   3.959
19586SOL    HW160591  14.592  14.470   3.882
19586SOL    HW260592  14.545  14.535   4.010
19587SOL     OW60593   0.754   7.397   5.687
19587SOL    HW160594   0.756   7.376   5.594
19587SOL    HW260595   0.777   7.316   5.732
19588SOL     OW60596  14.093   0.349   1.988
19588SOL    HW160597  14.047   0.286   1.934
19588SOL    HW260598  14.100   0.308   2.074
19589SOL     OW60599   7.323   7.008  11.887
19589SOL    HW160600   7.399   6.968  11.844
19589SOL    HW260601   7.273   7.048  11.817
19590SOL     OW60602  12.764   6.749   6.655
19590SOL    HW160603  12.798   6.831   6.618
19590SOL    HW260604  12.682   6.734   6.609
19591SOL     OW60605  11.077   2.262  13.641
19591SOL    HW160606  11.044   2.255  13.552
19591SOL    HW260607  11.170   2.244  13.635
19592SOL     OW60608   8.347  12.523   1.117
19592SOL    HW160609   8.378  12.509   1.027
19592SOL    HW260610   8.252  12.511   1.110
19593SOL     OW60611  11.219   3.788   4.021
19593SOL    HW160612  11.135   3.788   4.067
19593SOL    HW260613  11.284   3.777   4.090
19594SOL     OW60614  13.492   3.013   1.741
19594SOL    HW160615  13.572   2.986   1.696
19594SOL    HW260616  13.444   2.932   1.756
19595SOL     OW60617  12.984  11.181   5.883
19595SOL    HW160618  12.952  11.091   5.894
19595SOL    HW260619  12.918  11.224   5.829
19596SOL     OW60620   0.671   8.345   9.137
19596SOL    HW160621   0.665   8.290   9.059
19596SOL    HW260622   0.725   8.294   9.198
19597SOL     OW60623   7.673  12.584  14.284
19597SOL    HW160624   7.617  12.652  14.322
19597SOL    HW260625   7.644  12.503  14.326
19598SOL     OW60626  13.565  13.538   2.272
19598SOL    HW160627  13.609  13.614   2.233
19598SOL    HW260628  13.528  13.490   2.198
19599SOL     OW60629   5.829  14.077   3.764
19599SOL    HW160630   5.907  14.086   3.708
19599SOL    HW260631   5.762  14.043   3.705
19600SOL     OW60632   1.282  13.358   4.776
19600SOL    HW160633   1.320  13.426   4.831
19600SOL    HW260634   1.289  13.278   4.829
19601SOL     OW60635   0.320  11.711   7.056
19601SOL    HW160636   0.250  11.717   7.122
19601SOL    HW260637   0.274  11.693   6.974
19602SOL     OW60638   9.072  14.824  14.011
19602SOL    HW160639   9.007  14.773  14.060
19602SOL    HW260640   9.037   0.040  14.010
19603SOL     OW60641  11.236  14.318   2.418
19603SOL    HW160642  11.267  14.359   2.499
19603SOL    HW260643  11.143  14.341   2.414
19604SOL     OW60644   2.005  14.351   0.971
19604SOL    HW160645   1.971  14.337   1.059
19604SOL    HW260646   1.938  14.402   0.926
19605SOL     OW60647   6.462   1.546  11.721
19605SOL    HW160648   6.413   1.506  11.793
19605SOL    HW260649   6.449   1.640  11.733
19606SOL     OW60650   5.434  12.656   6.809
19606SOL    HW160651   5.360  12.678   6.753
19606SOL    HW260652   5.511  12.662   6.751
19607SOL     OW60653  10.529  14.757   7.124
19607SOL    HW160654  10.500  14.841   7.158
19607SOL    HW260655  10.489  14.693   7.182
19608SOL     OW60656  13.285   6.908   2.751
19608SOL    HW160657  13.297   6.922   2.657
19608SOL    HW260658  13.372   6.884   2.784
19609SOL     OW60659   6.325   2.763  11.330
19609SOL    HW160660   6.401   2.816  11.355
19609SOL    HW260661   6.342   2.737  11.240
19610SOL     OW60662   5.500   7.929   0.821
19610SOL    HW160663   5.528   8.020   0.831
19610SOL    HW260664   5.405   7.932   0.820
19611SOL     OW60665  10.261   0.419   4.918
19611SOL    HW160666  10.304   0.503   4.900
19611SOL    HW260667  10.199   0.407   4.846
19612SOL     OW60668   9.937   6.885  10.073
19612SOL    HW160669   9.862   6.905  10.128
19612SOL    HW260670   9.907   6.811  10.019
19613SOL     OW60671   0.438   8.995   7.552
19613SOL    HW160672   0.448   9.053   7.628
19613SOL    HW260673   0.458   8.908   7.587
19614SOL     OW60674  13.622   4.364  12.034
19614SOL    HW160675  13.626   4.311  11.954
19614SOL    HW260676  13.567   4.438  12.010
19615SOL     OW60677   7.119  13.768   6.774
19615SOL    HW160678   7.029  13.737   6.763
19615SOL    HW260679   7.171  13.707   6.722
19616SOL     OW60680   4.621  11.910   9.307
19616SOL    HW160681   4.661  11.840   9.361
19616SOL    HW260682   4.668  11.989   9.333
19617SOL     OW60683   0.435   9.272   2.779
19617SOL    HW160684   0.451   9.183   2.749
19617SOL    HW260685   0.519   9.317   2.767
19618SOL     OW60686   9.929   0.303   6.386
19618SOL    HW160687   9.863   0.274   6.449
19618SOL    HW260688   9.894   0.275   6.301
19619SOL     OW60689   3.544   4.539  12.635
19619SOL    HW160690   3.624   4.592  12.626
19619SOL    HW260691   3.542   4.516  12.728
19620SOL     OW60692  10.796  11.825   7.013
19620SOL    HW160693  10.718  11.782   7.048
19620SOL    HW260694  10.765  11.869   6.933
19621SOL     OW60695   6.549   8.889   7.911
19621SOL    HW160696   6.550   8.967   7.855
19621SOL    HW260697   6.457   8.865   7.917
19622SOL     OW60698   7.338   9.955   1.633
19622SOL    HW160699   7.267   9.932   1.693
19622SOL    HW260700   7.311  10.040   1.596
19623SOL     OW60701   2.700  11.526   0.223
19623SOL    HW160702   2.723  11.601   0.277
19623SOL    HW260703   2.656  11.465   0.282
19624SOL     OW60704  12.354   2.815   4.053
19624SOL    HW160705  12.312   2.767   3.982
19624SOL    HW260706  12.388   2.748   4.111
19625SOL     OW60707   1.563   1.127   3.833
19625SOL    HW160708   1.488   1.067   3.835
19625SOL    HW260709   1.582   1.144   3.925
19626SOL     OW60710  11.246  11.686   8.094
19626SOL    HW160711  11.297  11.631   8.035
19626SOL    HW260712  11.297  11.766   8.102
19627SOL     OW60713   8.077   0.828  10.886
19627SOL    HW160714   7.990   0.820  10.847
19627SOL    HW260715   8.061   0.858  10.976
19628SOL     OW60716   3.886   8.441   0.701
19628SOL    HW160717   3.887   8.534   0.680
19628SOL    HW260718   3.888   8.398   0.615
19629SOL     OW60719   9.452   7.569   1.852
19629SOL    HW160720   9.484   7.547   1.764
19629SOL    HW260721   9.474   7.661   1.863
19630SOL     OW60722   8.453   6.048  12.138
19630SOL    HW160723   8.384   6.008  12.191
19630SOL    HW260724   8.502   6.103  12.199
19631SOL     OW60725   7.966   9.534   2.849
19631SOL    HW160726   7.906   9.477   2.801
19631SOL    HW260727   7.920   9.618   2.852
19632SOL     OW60728  12.115  12.043  11.689
19632SOL    HW160729  12.096  11.966  11.742
19632SOL    HW260730  12.029  12.080  11.667
19633SOL     OW60731   2.793   9.483   1.341
19633SOL    HW160732   2.854   9.554   1.359
19633SOL    HW260733   2.812   9.418   1.409
19634SOL     OW60734  14.571   7.132   8.251
19634SOL    HW160735  14.619   7.079   8.187
19634SOL    HW260736  14.583   7.222   8.221
19635SOL     OW60737  10.193  10.067   4.154
19635SOL    HW160738  10.157  10.151   4.183
19635SOL    HW260739  10.262  10.092   4.092
19636SOL     OW60740  11.699   3.327   7.848
19636SOL    HW160741  11.720   3.277   7.926
19636SOL    HW260742  11.760   3.295   7.781
19637SOL     OW60743   6.204  11.077   7.541
19637SOL    HW160744   6.176  10.991   7.507
19637SOL    HW260745   6.272  11.056   7.605
19638SOL     OW60746   4.774  11.778   4.997
19638SOL    HW160747   4.731  11.864   4.994
19638SOL    HW260748   4.769  11.753   5.090
19639SOL     OW60749   2.988  10.854  11.707
19639SOL    HW160750   2.922  10.799  11.750
19639SOL    HW260751   2.948  10.879  11.624
19640SOL     OW60752   1.930   5.717   5.271
19640SOL    HW160753   1.986   5.784   5.310
19640SOL    HW260754   1.975   5.690   5.191
19641SOL     OW60755   5.647  13.184   4.044
19641SOL    HW160756   5.617  13.227   4.124
19641SOL    HW260757   5.742  13.191   4.047
19642SOL     OW60758  12.780   6.647  10.609
19642SOL    HW160759  12.689   6.619  10.610
19642SOL    HW260760  12.781   6.727  10.556
19643SOL     OW60761  13.794   5.387  10.512
19643SOL    HW160762  13.824   5.302  10.545
19643SOL    HW260763  13.856   5.409  10.442
19644SOL     OW60764   2.849   3.948  12.164
19644SOL    HW160765   2.857   3.859  12.131
19644SOL    HW260766   2.797   3.994  12.098
19645SOL     OW60767  13.539   4.933  10.387
19645SOL    HW160768  13.583   4.950  10.470
19645SOL    HW260769  13.541   5.017  10.341
19646SOL     OW60770   0.707  14.590  11.313
19646SOL    HW160771   0.713  14.635  11.229
19646SOL    HW260772   0.685  14.500  11.291
19647SOL     OW60773  11.389   9.049   6.361
19647SOL    HW160774  11.327   9.028   6.291
19647SOL    HW260775  11.458   9.099   6.317
19648SOL     OW60776  11.286   5.709   3.383
19648SOL    HW160777  11.293   5.629   3.331
19648SOL    HW260778  11.364   5.708   3.439
19649SOL     OW60779   6.584  12.243   9.855
19649SOL    HW160780   6.527  12.301   9.906
19649SOL    HW260781   6.523  12.184   9.810
19650SOL     OW60782   2.608  12.372   0.686
19650SOL    HW160783   2.698  12.375   0.652
19650SOL    HW260784   2.558  12.431   0.630
19651SOL     OW60785  12.462   7.456   5.916
19651SOL    HW160786  12.471   7.486   5.826
19651SOL    HW260787  12.516   7.376   5.919
19652SOL     OW60788  10.524  10.346   2.147
19652SOL    HW160789  10.577  10.423   2.165
19652SOL    HW260790  10.551  10.281   2.212
19653SOL     OW60791   8.688   9.627   8.628
19653SOL    HW160792   8.731   9.568   8.691
19653SOL    HW260793   8.595   9.622   8.650
19654SOL     OW60794   2.722   1.436  10.994
19654SOL    HW160795   2.776   1.477  10.926
19654SOL    HW260796   2.657   1.503  11.017
19655SOL     OW60797   9.426   6.114  11.787
19655SOL    HW160798   9.433   6.169  11.865
19655SOL    HW260799   9.479   6.159  11.721
19656SOL     OW60800   0.117   7.147   5.267
19656SOL    HW160801   0.192   7.121   5.319
19656SOL    HW260802   0.047   7.162   5.331
19657SOL     OW60803   6.395   0.821   3.519
19657SOL    HW160804   6.477   0.826   3.469
19657SOL    HW260805   6.375   0.727   3.522
19658SOL     OW60806   8.760   6.514   5.756
19658SOL    HW160807   8.737   6.422   5.767
19658SOL    HW260808   8.825   6.531   5.825
19659SOL     OW60809   2.952   1.319   8.473
19659SOL    HW160810   2.898   1.295   8.549
19659SOL    HW260811   3.026   1.260   8.476
19660SOL     OW60812   6.046   5.462   7.308
19660SOL    HW160813   6.046   5.388   7.369
19660SOL    HW260814   6.069   5.423   7.223
19661SOL     OW60815   5.595   4.497  11.772
19661SOL    HW160816   5.612   4.467  11.683
19661SOL    HW260817   5.591   4.593  11.765
19662SOL     OW60818   1.548   0.753   3.611
19662SOL    HW160819   1.634   0.771   3.650
19662SOL    HW260820   1.534   0.824   3.549
19663SOL     OW60821   7.739   5.664   1.976
19663SOL    HW160822   7.809   5.677   2.040
19663SOL    HW260823   7.735   5.569   1.964
19664SOL     OW60824   3.878  12.843  13.977
19664SOL    HW160825   3.880  12.813  14.068
19664SOL    HW260826   3.865  12.937  13.983
19665SOL     OW60827  12.174   0.537   8.033
19665SOL    HW160828  12.123   0.598   8.085
19665SOL    HW260829  12.134   0.452   8.049
19666SOL     OW60830   5.514   6.646  10.602
19666SOL    HW160831   5.550   6.723  10.646
19666SOL    HW260832   5.491   6.586  10.674
19667SOL     OW60833   6.189   9.037   3.138
19667SOL    HW160834   6.195   8.960   3.082
19667SOL    HW260835   6.103   9.030   3.181
19668SOL     OW60836   2.187  11.658  11.675
19668SOL    HW160837   2.122  11.702  11.621
19668SOL    HW260838   2.269  11.668  11.628
19669SOL     OW60839   1.161   0.385   3.503
19669SOL    HW160840   1.096   0.383   3.573
19669SOL    HW260841   1.131   0.319   3.441
19670SOL     OW60842  10.781   5.455   5.853
19670SOL    HW160843  10.773   5.550   5.855
19670SOL    HW260844  10.700   5.424   5.813
19671SOL     OW60845   7.226  14.038   6.649
19671SOL    HW160846   7.167  14.112   6.659
19671SOL    HW260847   7.188  13.969   6.704
19672SOL     OW60848   7.108   5.329  10.766
19672SOL    HW160849   7.018   5.303  10.746
19672SOL    HW260850   7.136   5.267  10.833
19673SOL     OW60851   2.148  11.076   9.104
19673SOL    HW160852   2.103  11.130   9.168
19673SOL    HW260853   2.231  11.121   9.087
19674SOL     OW60854   7.198  11.067   8.958
19674SOL    HW160855   7.118  11.105   8.995
19674SOL    HW260856   7.166  11.000   8.898
19675SOL     OW60857  11.633   9.754   2.389
19675SOL    HW160858  11.545   9.772   2.421
19675SOL    HW260859  11.690   9.798   2.452
19676SOL     OW60860   3.418  13.177  14.746
19676SOL    HW160861   3.412  13.162  14.841
19676SOL    HW260862   3.355  13.246  14.729
19677SOL     OW60863   6.053  14.239   2.419
19677SOL    HW160864   5.979  14.217   2.363
19677SOL    HW260865   6.018  14.302   2.482
19678SOL     OW60866   8.999   5.020   1.138
19678SOL    HW160867   9.070   5.083   1.125
19678SOL    HW260868   9.023   4.946   1.083
19679SOL     OW60869   3.301  10.729   2.329
19679SOL    HW160870   3.335  10.802   2.380
19679SOL    HW260871   3.312  10.653   2.385
19680SOL     OW60872   1.574  10.975   4.362
19680SOL    HW160873   1.531  10.935   4.437
19680SOL    HW260874   1.643  10.913   4.337
19681SOL     OW60875   6.911  11.327  13.038
19681SOL    HW160876   6.893  11.270  13.112
19681SOL    HW260877   6.975  11.279  12.986
19682SOL     OW60878   8.948   2.320   0.518
19682SOL    HW160879   8.853   2.315   0.529
19682SOL    HW260880   8.963   2.296   0.426
19683SOL     OW60881  13.104   6.731  11.570
19683SOL    HW160882  13.068   6.642  11.577
19683SOL    HW260883  13.059   6.781  11.638
19684SOL     OW60884   0.797   9.754  11.091
19684SOL    HW160885   0.826   9.677  11.141
19684SOL    HW260886   0.778   9.719  11.003
19685SOL     OW60887  11.369   1.306  10.299
19685SOL    HW160888  11.435   1.374  10.313
19685SOL    HW260889  11.387   1.273  10.211
19686SOL     OW60890   1.977   5.175   1.188
19686SOL    HW160891   2.014   5.243   1.245
19686SOL    HW260892   2.051   5.144   1.137
19687SOL     OW60893   4.233   2.722  11.402
19687SOL    HW160894   4.315   2.767  11.382
19687SOL    HW260895   4.165   2.786  11.381
19688SOL     OW60896   9.098   3.751   2.103
19688SOL    HW160897   9.073   3.711   2.186
19688SOL    HW260898   9.034   3.718   2.040
19689SOL     OW60899  13.166   7.408  13.286
19689SOL    HW160900  13.150   7.502  13.298
19689SOL    HW260901  13.250   7.392  13.329
19690SOL     OW60902   8.671   5.078   3.562
19690SOL    HW160903   8.753   5.031   3.547
19690SOL    HW260904   8.607   5.009   3.577
19691SOL     OW60905   4.643   8.673  13.408
19691SOL    HW160906   4.728   8.665  13.452
19691SOL    HW260907   4.653   8.621  13.327
19692SOL     OW60908  14.102   3.178   1.752
19692SOL    HW160909  14.194   3.175   1.778
19692SOL    HW260910  14.061   3.237   1.816
19693SOL     OW60911  10.012   0.692   6.274
19693SOL    HW160912   9.979   0.667   6.188
19693SOL    HW260913   9.934   0.696   6.330
19694SOL     OW60914   4.534   2.440   0.436
19694SOL    HW160915   4.563   2.433   0.345
19694SOL    HW260916   4.592   2.380   0.483
19695SOL     OW60917   8.380   9.910  11.377
19695SOL    HW160918   8.469   9.938  11.356
19695SOL    HW260919   8.392   9.832  11.432
19696SOL     OW60920  10.785  10.152  13.179
19696SOL    HW160921  10.788  10.245  13.156
19696SOL    HW260922  10.865  10.115  13.142
19697SOL     OW60923  14.735  11.164   6.028
19697SOL    HW160924  14.658  11.214   6.000
19697SOL    HW260925  14.780  11.222   6.089
19698SOL     OW60926   1.619   8.471  13.416
19698SOL    HW160927   1.598   8.510  13.331
19698SOL    HW260928   1.603   8.378  13.404
19699SOL     OW60929   3.452   5.280   6.382
19699SOL    HW160930   3.428   5.314   6.296
19699SOL    HW260931   3.394   5.326   6.443
19700SOL     OW60932   0.094  10.169   4.851
19700SOL    HW160933   0.044  10.128   4.781
19700SOL    HW260934   0.127  10.250   4.813
19701SOL     OW60935   2.763  12.469   8.129
19701SOL    HW160936   2.750  12.544   8.072
19701SOL    HW260937   2.809  12.405   8.075
19702SOL     OW60938  11.148   7.139  12.231
19702SOL    HW160939  11.097   7.209  12.191
19702SOL    HW260940  11.240   7.163  12.215
19703SOL     OW60941   8.507   4.872  14.390
19703SOL    HW160942   8.425   4.827  14.369
19703SOL    HW260943   8.483   4.939  14.453
19704SOL     OW60944   3.248  13.348   0.460
19704SOL    HW160945   3.211  13.432   0.489
19704SOL    HW260946   3.247  13.293   0.538
19705SOL     OW60947   2.923  13.852   5.734
19705SOL    HW160948   2.844  13.799   5.723
19705SOL    HW260949   2.892  13.943   5.730
19706SOL     OW60950  10.032   7.990   5.990
19706SOL    HW160951  10.046   8.078   6.026
19706SOL    HW260952  10.096   7.982   5.920
19707SOL     OW60953   5.033  12.975  11.135
19707SOL    HW160954   5.052  12.939  11.221
19707SOL    HW260955   5.039  12.900  11.075
19708SOL     OW60956  10.006   7.352   6.831
19708SOL    HW160957  10.083   7.375   6.779
19708SOL    HW260958   9.973   7.272   6.791
19709SOL     OW60959   0.220   8.570   7.489
19709SOL    HW160960   0.140   8.547   7.537
19709SOL    HW260961   0.281   8.598   7.557
19710SOL     OW60962   1.064   2.337   9.644
19710SOL    HW160963   1.159   2.349   9.633
19710SOL    HW260964   1.056   2.279   9.719
19711SOL     OW60965   3.635  13.367   4.405
19711SOL    HW160966   3.617  13.328   4.491
19711SOL    HW260967   3.562  13.337   4.350
19712SOL     OW60968  11.106  12.629  14.788
19712SOL    HW160969  11.036  12.693  14.773
19712SOL    HW260970  11.171  12.677  14.840
19713SOL     OW60971   8.608  10.120   2.057
19713SOL    HW160972   8.689  10.164   2.029
19713SOL    HW260973   8.545  10.141   1.989
19714SOL     OW60974   6.990   6.873   8.372
19714SOL    HW160975   6.946   6.823   8.440
19714SOL    HW260976   7.083   6.867   8.394
19715SOL     OW60977   9.193   2.108  12.406
19715SOL    HW160978   9.258   2.157  12.356
19715SOL    HW260979   9.234   2.022  12.420
19716SOL     OW60980   4.647   6.119  14.634
19716SOL    HW160981   4.639   6.117  14.539
19716SOL    HW260982   4.700   6.041  14.655
19717SOL     OW60983  12.170  13.114   9.368
19717SOL    HW160984  12.226  13.171   9.316
19717SOL    HW260985  12.185  13.140   9.459
19718SOL     OW60986   6.275   2.786   5.940
19718SOL    HW160987   6.274   2.831   6.024
19718SOL    HW260988   6.221   2.840   5.882
19719SOL     OW60989  12.329   2.642  10.880
19719SOL    HW160990  12.408   2.693  10.899
19719SOL    HW260991  12.259   2.690  10.923
19720SOL     OW60992   2.191   3.362   2.668
19720SOL    HW160993   2.185   3.289   2.730
19720SOL    HW260994   2.104   3.368   2.630
19721SOL     OW60995  11.481   3.408   7.697
19721SOL    HW160996  11.426   3.382   7.771
19721SOL    HW260997  11.570   3.405   7.731
19722SOL     OW60998   8.336   7.987   2.512
19722SOL    HW160999   8.344   8.049   2.585
19722SOL    HW261000   8.357   7.902   2.551
19723SOL     OW61001  12.566   9.399   1.012
19723SOL    HW161002  12.655   9.413   0.981
19723SOL    HW261003  12.576   9.357   1.098
19724SOL     OW61004   5.953  13.644   7.086
19724SOL    HW161005   6.021  13.585   7.120
19724SOL    HW261006   6.001  13.721   7.055
19725SOL     OW61007   9.611   2.156  13.054
19725SOL    HW161008   9.694   2.170  13.008
19725SOL    HW261009   9.560   2.236  13.037
19726SOL     OW61010   2.961   7.898   7.412
19726SOL    HW161011   3.011   7.852   7.479
19726SOL    HW261012   2.956   7.835   7.339
19727SOL     OW61013   6.660   6.600   4.239
19727SOL    HW161014   6.686   6.553   4.318
19727SOL    HW261015   6.625   6.683   4.271
19728SOL     OW61016   7.597   9.069   3.081
19728SOL    HW161017   7.520   9.014   3.097
19728SOL    HW261018   7.559   9.153   3.052
19729SOL     OW61019   8.005  13.609   7.158
19729SOL    HW161020   8.001  13.697   7.197
19729SOL    HW261021   7.965  13.552   7.223
19730SOL     OW61022   2.474   0.748   8.633
19730SOL    HW161023   2.569   0.762   8.638
19730SOL    HW261024   2.440   0.781   8.716
19731SOL     OW61025   5.410   0.291  14.421
19731SOL    HW161026   5.457   0.261  14.343
19731SOL    HW261027   5.418   0.218  14.482
19732SOL     OW61028   3.075  12.770   8.863
19732SOL    HW161029   3.140  12.718   8.910
19732SOL    HW261030   3.100  12.764   8.771
19733SOL     OW61031   4.435  14.434  14.519
19733SOL    HW161032   4.397  14.399  14.438
19733SOL    HW261033   4.527  14.408  14.516
19734SOL     OW61034   0.767   9.324   1.796
19734SOL    HW161035   0.697   9.263   1.772
19734SOL    HW261036   0.750   9.401   1.741
19735SOL     OW61037   6.078   8.686   9.755
19735SOL    HW161038   6.110   8.682   9.665
19735SOL    HW261039   6.132   8.623   9.802
19736SOL     OW61040   4.431  14.537   8.267
19736SOL    HW161041   4.441  14.605   8.200
19736SOL    HW261042   4.504  14.477   8.252
19737SOL     OW61043   3.229  14.190  13.428
19737SOL    HW161044   3.240  14.115  13.487
19737SOL    HW261045   3.184  14.256  13.481
19738SOL     OW61046   6.053  13.410  11.367
19738SOL    HW161047   6.013  13.496  11.359
19738SOL    HW261048   6.071  13.383  11.277
19739SOL     OW61049  11.040  12.399  14.140
19739SOL    HW161050  11.018  12.434  14.226
19739SOL    HW261051  11.090  12.320  14.158
19740SOL     OW61052  10.016   2.783   9.268
19740SOL    HW161053  10.000   2.811   9.178
19740SOL    HW261054  10.083   2.843   9.300
19741SOL     OW61055   7.500   3.098  13.657
19741SOL    HW161056   7.584   3.117  13.614
19741SOL    HW261057   7.468   3.184  13.685
19742SOL     OW61058   7.867   2.991  11.268
19742SOL    HW161059   7.832   2.993  11.357
19742SOL    HW261060   7.878   2.898  11.249
19743SOL     OW61061   9.550  12.957   3.619
19743SOL    HW161062   9.502  12.896   3.563
19743SOL    HW261063   9.609  13.003   3.559
19744SOL     OW61064   8.188   5.165   3.909
19744SOL    HW161065   8.114   5.200   3.859
19744SOL    HW261066   8.195   5.074   3.880
19745SOL     OW61067   6.810   8.167   5.529
19745SOL    HW161068   6.884   8.107   5.515
19745SOL    HW261069   6.765   8.169   5.444
19746SOL     OW61070   4.924   5.584   2.095
19746SOL    HW161071   4.870   5.596   2.173
19746SOL    HW261072   4.983   5.659   2.094
19747SOL     OW61073   8.491   1.338   1.984
19747SOL    HW161074   8.446   1.421   1.965
19747SOL    HW261075   8.421   1.276   2.002
19748SOL     OW61076   3.269   1.662  14.637
19748SOL    HW161077   3.275   1.752  14.605
19748SOL    HW261078   3.348   1.619  14.604
19749SOL     OW61079   4.237   9.412   8.025
19749SOL    HW161080   4.154   9.427   7.979
19749SOL    HW261081   4.231   9.321   8.054
19750SOL     OW61082   0.103   5.856   9.931
19750SOL    HW161083   0.127   5.784   9.872
19750SOL    HW261084   0.160   5.929   9.903
19751SOL     OW61085   3.410  14.565   8.436
19751SOL    HW161086   3.495  14.554   8.478
19751SOL    HW261087   3.347  14.532   8.500
19752SOL     OW61088   4.622   4.318   7.749
19752SOL    HW161089   4.647   4.374   7.676
19752SOL    HW261090   4.684   4.341   7.819
19753SOL     OW61091   9.503   9.949   5.550
19753SOL    HW161092   9.527   9.857   5.545
19753SOL    HW261093   9.433   9.952   5.615
19754SOL     OW61094   4.458   0.809   9.622
19754SOL    HW161095   4.436   0.747   9.552
19754SOL    HW261096   4.416   0.891   9.594
19755SOL     OW61097   3.065  14.064  11.986
19755SOL    HW161098   2.974  14.034  11.983
19755SOL    HW261099   3.059  14.159  11.992
19756SOL     OW61100   5.352   1.304  12.921
19756SOL    HW161101   5.318   1.378  12.870
19756SOL    HW261102   5.276   1.248  12.935
19757SOL     OW61103   2.485   8.655   8.097
19757SOL    HW161104   2.397   8.622   8.114
19757SOL    HW261105   2.538   8.577   8.081
19758SOL     OW61106   4.120   2.091  13.049
19758SOL    HW161107   4.115   2.179  13.088
19758SOL    HW261108   4.031   2.057  13.055
19759SOL     OW61109   9.263  11.896   5.867
19759SOL    HW161110   9.261  11.880   5.772
19759SOL    HW261111   9.356  11.905   5.887
19760SOL     OW61112  10.604   5.868   4.191
19760SOL    HW161113  10.524   5.823   4.164
19760SOL    HW261114  10.581   5.961   4.192
19761SOL     OW61115  12.728  11.665   4.397
19761SOL    HW161116  12.756  11.628   4.313
19761SOL    HW261117  12.802  11.720   4.425
19762SOL     OW61118  10.069   4.103   3.105
19762SOL    HW161119  10.122   4.099   3.026
19762SOL    HW261120  10.127   4.141   3.171
19763SOL     OW61121   8.165  12.384  14.354
19763SOL    HW161122   8.216  12.308  14.382
19763SOL    HW261123   8.228  12.455  14.352
19764SOL     OW61124   1.860  10.415   6.209
19764SOL    HW161125   1.933  10.454   6.257
19764SOL    HW261126   1.900  10.379   6.130
19765SOL     OW61127  13.701  10.180   5.613
19765SOL    HW161128  13.614  10.217   5.628
19765SOL    HW261129  13.743  10.182   5.700
19766SOL     OW61130  11.756   5.891   2.217
19766SOL    HW161131  11.786   5.843   2.140
19766SOL    HW261132  11.769   5.831   2.290
19767SOL     OW61133  12.079  12.101  14.454
19767SOL    HW161134  11.986  12.082  14.456
19767SOL    HW261135  12.087  12.178  14.398
19768SOL     OW61136  13.825  12.010   1.972
19768SOL    HW161137  13.803  12.082   1.913
19768SOL    HW261138  13.745  11.959   1.978
19769SOL     OW61139  14.289   5.381   5.294
19769SOL    HW161140  14.247   5.360   5.378
19769SOL    HW261141  14.382   5.369   5.311
19770SOL     OW61142   8.404   7.039   9.560
19770SOL    HW161143   8.400   7.097   9.484
19770SOL    HW261144   8.334   6.975   9.545
19771SOL     OW61145  11.273  14.460  11.726
19771SOL    HW161146  11.182  14.459  11.754
19771SOL    HW261147  11.311  14.381  11.763
19772SOL     OW61148   2.590   1.309   5.596
19772SOL    HW161149   2.683   1.286   5.595
19772SOL    HW261150   2.544   1.225   5.586
19773SOL     OW61151   4.132   0.524  11.468
19773SOL    HW161152   4.063   0.476  11.421
19773SOL    HW261153   4.212   0.473  11.452
19774SOL     OW61154   8.439   9.539  14.114
19774SOL    HW161155   8.459   9.549  14.207
19774SOL    HW261156   8.344   9.534  14.110
19775SOL     OW61157   4.488   5.244   7.328
19775SOL    HW161158   4.405   5.289   7.342
19775SOL    HW261159   4.538   5.302   7.271
19776SOL     OW61160   6.856  10.025  10.254
19776SOL    HW161161   6.800  10.102  10.257
19776SOL    HW261162   6.849   9.993  10.164
19777SOL     OW61163   1.631  14.565   3.096
19777SOL    HW161164   1.632  14.581   3.002
19777SOL    HW261165   1.611  14.651   3.135
19778SOL     OW61166  14.039   7.500   5.616
19778SOL    HW161167  14.030   7.440   5.689
19778SOL    HW261168  14.046   7.587   5.657
19779SOL     OW61169   3.547   8.458   9.727
19779SOL    HW161170   3.625   8.404   9.716
19779SOL    HW261171   3.504   8.422   9.804
19780SOL     OW61172   1.978   6.538   1.703
19780SOL    HW161173   2.040   6.585   1.648
19780SOL    HW261174   1.917   6.497   1.642
19781SOL     OW61175   7.451   0.159   6.932
19781SOL    HW161176   7.535   0.121   6.907
19781SOL    HW261177   7.438   0.131   7.023
19782SOL     OW61178   0.774   4.690  10.539
19782SOL    HW161179   0.701   4.673  10.599
19782SOL    HW261180   0.737   4.743  10.469
19783SOL     OW61181  12.696   2.756   0.008
19783SOL    HW161182  12.708   2.837  14.831
19783SOL    HW261183  12.716   2.686  14.819
19784SOL     OW61184  14.750   6.515   8.880
19784SOL    HW161185  14.737   6.534   8.973
19784SOL    HW261186  14.753   6.420   8.875
19785SOL     OW61187  11.696   4.756  13.746
19785SOL    HW161188  11.783   4.797  13.745
19785SOL    HW261189  11.687   4.721  13.834
19786SOL     OW61190   9.342  13.977   9.867
19786SOL    HW161191   9.308  13.892   9.895
19786SOL    HW261192   9.267  14.019   9.824
19787SOL     OW61193   1.828   8.236   1.373
19787SOL    HW161194   1.838   8.298   1.300
19787SOL    HW261195   1.743   8.195   1.359
19788SOL     OW61196   7.147  10.957  11.511
19788SOL    HW161197   7.090  10.904  11.456
19788SOL    HW261198   7.229  10.908  11.517
19789SOL     OW61199   0.292  14.235   6.554
19789SOL    HW161200   0.290  14.143   6.581
19789SOL    HW261201   0.294  14.285   6.635
19790SOL     OW61202   0.959   7.469  10.702
19790SOL    HW161203   0.893   7.537  10.715
19790SOL    HW261204   0.969   7.428  10.788
19791SOL     OW61205   3.665   0.887   8.311
19791SOL    HW161206   3.742   0.926   8.352
19791SOL    HW261207   3.592   0.914   8.366
19792SOL     OW61208  11.494   3.309   3.731
19792SOL    HW161209  11.433   3.380   3.711
19792SOL    HW261210  11.439   3.230   3.733
19793SOL     OW61211   4.567   7.558   5.176
19793SOL    HW161212   4.514   7.635   5.198
19793SOL    HW261213   4.514   7.484   5.205
19794SOL     OW61214   7.585   8.079   1.188
19794SOL    HW161215   7.627   8.056   1.105
19794SOL    HW261216   7.597   8.173   1.195
19795SOL     OW61217   6.740   2.214   1.651
19795SOL    HW161218   6.684   2.161   1.595
19795SOL    HW261219   6.827   2.175   1.644
19796SOL     OW61220   5.621   8.428   6.157
19796SOL    HW161221   5.611   8.464   6.245
19796SOL    HW261222   5.712   8.448   6.133
19797SOL     OW61223   8.024   6.263  14.687
19797SOL    HW161224   8.061   6.187  14.732
19797SOL    HW261225   7.960   6.226  14.626
19798SOL     OW61226  10.071   0.319  14.318
19798SOL    HW161227  10.107   0.375  14.387
19798SOL    HW261228   9.977   0.334  14.322
19799SOL     OW61229   3.667   2.658   6.513
19799SOL    HW161230   3.737   2.627   6.456
19799SOL    HW261231   3.708   2.666   6.599
19800SOL     OW61232  10.307  13.362   4.188
19800SOL    HW161233  10.250  13.395   4.257
19800SOL    HW261234  10.393  13.398   4.209
19801SOL     OW61235   6.434   0.210   1.674
19801SOL    HW161236   6.398   0.124   1.652
19801SOL    HW261237   6.451   0.206   1.768
19802SOL     OW61238   5.832   8.052   7.782
19802SOL    HW161239   5.870   8.100   7.708
19802SOL    HW261240   5.826   8.117   7.852
19803SOL     OW61241  14.844   8.061  10.126
19803SOL    HW161242   0.015   8.033  10.046
19803SOL    HW261243  14.806   7.981  10.162
19804SOL     OW61244  10.067  11.015  11.977
19804SOL    HW161245  10.072  11.074  12.053
19804SOL    HW261246   9.996  11.051  11.924
19805SOL     OW61247   1.544  12.241   8.378
19805SOL    HW161248   1.468  12.289   8.410
19805SOL    HW261249   1.531  12.235   8.284
19806SOL     OW61250  12.970  14.093  13.389
19806SOL    HW161251  13.028  14.075  13.463
19806SOL    HW261252  13.027  14.129  13.322
19807SOL     OW61253  11.292   2.526  14.304
19807SOL    HW161254  11.372   2.579  14.301
19807SOL    HW261255  11.316   2.445  14.258
19808SOL     OW61256   4.127   1.842   9.678
19808SOL    HW161257   4.096   1.874   9.763
19808SOL    HW261258   4.148   1.749   9.693
19809SOL     OW61259  11.820   8.076   0.510
19809SOL    HW161260  11.910   8.084   0.479
19809SOL    HW261261  11.829   8.049   0.602
19810SOL     OW61262  13.300   3.908  14.238
19810SOL    HW161263  13.312   3.932  14.146
19810SOL    HW261264  13.236   3.837  14.237
19811SOL     OW61265   8.913   3.968   4.817
19811SOL    HW161266   8.831   4.016   4.818
19811SOL    HW261267   8.906   3.911   4.740
19812SOL     OW61268  11.008   6.540   2.834
19812SOL    HW161269  11.060   6.601   2.782
19812SOL    HW261270  11.073   6.480   2.872
19813SOL     OW61271   1.819   3.289   7.141
19813SOL    HW161272   1.735   3.332   7.155
19813SOL    HW261273   1.833   3.238   7.221
19814SOL     OW61274   1.486  13.487   3.104
19814SOL    HW161275   1.536  13.560   3.068
19814SOL    HW261276   1.426  13.528   3.167
19815SOL     OW61277   3.837   6.378   2.248
19815SOL    HW161278   3.788   6.450   2.209
19815SOL    HW261279   3.803   6.299   2.205
19816SOL     OW61280   5.090   9.906   1.281
19816SOL    HW161281   5.133   9.991   1.290
19816SOL    HW261282   5.093   9.888   1.187
19817SOL     OW61283   5.652   6.825   1.570
19817SOL    HW161284   5.557   6.826   1.567
19817SOL    HW261285   5.677   6.736   1.547
19818SOL     OW61286   6.944  14.794  12.707
19818SOL    HW161287   7.015  14.743  12.746
19818SOL    HW261288   6.960   0.011  12.736
19819SOL     OW61289   1.388   1.716   3.471
19819SOL    HW161290   1.326   1.659   3.516
19819SOL    HW261291   1.369   1.803   3.506
19820SOL     OW61292   0.637   3.372   9.907
19820SOL    HW161293   0.651   3.410   9.994
19820SOL    HW261294   0.705   3.305   9.899
19821SOL     OW61295  10.600  13.189   8.299
19821SOL    HW161296  10.555  13.105   8.296
19821SOL    HW261297  10.533  13.253   8.277
19822SOL     OW61298  13.109   0.822  10.210
19822SOL    HW161299  13.203   0.809  10.217
19822SOL    HW261300  13.099   0.915  10.189
19823SOL     OW61301   1.396   2.394   2.117
19823SOL    HW161302   1.429   2.336   2.049
19823SOL    HW261303   1.338   2.455   2.072
19824SOL     OW61304   2.813  14.624   5.069
19824SOL    HW161305   2.763  14.551   5.034
19824SOL    HW261306   2.830  14.681   4.994
19825SOL     OW61307   9.165   8.558  10.039
19825SOL    HW161308   9.222   8.481  10.044
19825SOL    HW261309   9.093   8.532   9.982
19826SOL     OW61310   0.757  12.683   1.242
19826SOL    HW161311   0.666  12.709   1.226
19826SOL    HW261312   0.777  12.621   1.173
19827SOL     OW61313  14.323   4.915  11.733
19827SOL    HW161314  14.232   4.947  11.733
19827SOL    HW261315  14.355   4.934  11.822
19828SOL     OW61316  13.152  10.364   3.284
19828SOL    HW161317  13.098  10.314   3.345
19828SOL    HW261318  13.174  10.444   3.332
19829SOL     OW61319  11.394   5.474   3.249
19829SOL    HW161320  11.328   5.449   3.184
19829SOL    HW261321  11.476   5.437   3.216
19830SOL     OW61322  14.416   0.314  13.775
19830SOL    HW161323  14.397   0.253  13.846
19830SOL    HW261324  14.334   0.321  13.726
19831SOL     OW61325   7.468   0.124  10.790
19831SOL    HW161326   7.525   0.188  10.747
19831SOL    HW261327   7.429   0.074  10.718
19832SOL     OW61328   5.637   7.898   2.622
19832SOL    HW161329   5.641   7.884   2.716
19832SOL    HW261330   5.703   7.966   2.605
19833SOL     OW61331   1.617   0.032   4.017
19833SOL    HW161332   1.527   0.043   3.986
19833SOL    HW261333   1.669   0.088   3.959
19834SOL     OW61334   9.687   4.979   8.437
19834SOL    HW161335   9.776   4.959   8.465
19834SOL    HW261336   9.680   5.074   8.445
19835SOL     OW61337   0.310   7.006   9.413
19835SOL    HW161338   0.262   6.965   9.485
19835SOL    HW261339   0.400   7.015   9.446
19836SOL     OW61340  14.794   7.294   2.854
19836SOL    HW161341  14.873   7.275   2.802
19836SOL    HW261342  14.786   7.389   2.851
19837SOL     OW61343  14.384   0.091   8.104
19837SOL    HW161344  14.458   0.062   8.049
19837SOL    HW261345  14.328   0.014   8.111
19838SOL     OW61346   8.451   4.611   6.341
19838SOL    HW161347   8.501   4.529   6.350
19838SOL    HW261348   8.363   4.588   6.369
19839SOL     OW61349   4.588  11.097   5.256
19839SOL    HW161350   4.595  11.053   5.172
19839SOL    HW261351   4.639  11.044   5.317
19840SOL     OW61352   6.130  11.809   1.135
19840SOL    HW161353   6.222  11.825   1.156
19840SOL    HW261354   6.082  11.836   1.213
19841SOL     OW61355   3.780   4.808   3.371
19841SOL    HW161356   3.756   4.720   3.401
19841SOL    HW261357   3.753   4.866   3.442
19842SOL     OW61358   1.742   7.540   9.999
19842SOL    HW161359   1.833   7.553   9.974
19842SOL    HW261360   1.724   7.448   9.977
19843SOL     OW61361   5.334   8.373   2.997
19843SOL    HW161362   5.389   8.414   3.064
19843SOL    HW261363   5.385   8.381   2.916
19844SOL     OW61364   9.562  10.231   6.830
19844SOL    HW161365   9.520  10.185   6.903
19844SOL    HW261366   9.587  10.161   6.770
19845SOL     OW61367   0.812  14.262   2.017
19845SOL    HW161368   0.908  14.260   2.015
19845SOL    HW261369   0.790  14.259   2.110
19846SOL     OW61370  13.340   8.266   0.876
19846SOL    HW161371  13.321   8.285   0.785
19846SOL    HW261372  13.283   8.325   0.926
19847SOL     OW61373   6.365   7.865   1.276
19847SOL    HW161374   6.391   7.810   1.350
19847SOL    HW261375   6.355   7.953   1.313
19848SOL     OW61376   8.636   5.434   8.808
19848SOL    HW161377   8.583   5.513   8.817
19848SOL    HW261378   8.587   5.366   8.852
19849SOL     OW61379  13.712  14.097   5.446
19849SOL    HW161380  13.644  14.031   5.464
19849SOL    HW261381  13.749  14.070   5.362
19850SOL     OW61382  10.578   4.070   2.570
19850SOL    HW161383  10.551   3.982   2.546
19850SOL    HW261384  10.672   4.074   2.549
19851SOL     OW61385   7.233   2.646  11.677
19851SOL    HW161386   7.275   2.720  11.634
19851SOL    HW261387   7.187   2.685  11.752
19852SOL     OW61388   9.619   3.552   4.115
19852SOL    HW161389   9.713   3.555   4.132
19852SOL    HW261390   9.585   3.632   4.155
19853SOL     OW61391  10.898   5.163   8.212
19853SOL    HW161392  10.901   5.127   8.124
19853SOL    HW261393  10.831   5.232   8.208
19854SOL     OW61394   4.008  12.573   8.255
19854SOL    HW161395   4.022  12.525   8.174
19854SOL    HW261396   3.932  12.531   8.296
19855SOL     OW61397   0.629  12.351   3.735
19855SOL    HW161398   0.562  12.383   3.675
19855SOL    HW261399   0.686  12.426   3.749
19856SOL     OW61400   1.772  13.724  13.666
19856SOL    HW161401   1.814  13.639  13.657
19856SOL    HW261402   1.840  13.787  13.643
19857SOL     OW61403   2.673   1.755  13.476
19857SOL    HW161404   2.711   1.795  13.398
19857SOL    HW261405   2.578   1.769  13.466
19858SOL     OW61406   8.777   9.504   8.855
19858SOL    HW161407   8.871   9.523   8.860
19858SOL    HW261408   8.745   9.516   8.944
19859SOL     OW61409   5.396   5.769   7.035
19859SOL    HW161410   5.479   5.720   7.030
19859SOL    HW261411   5.351   5.731   7.110
19860SOL     OW61412  14.050   2.661   8.572
19860SOL    HW161413  13.995   2.613   8.510
19860SOL    HW261414  14.139   2.632   8.554
19861SOL     OW61415   9.376   1.674  14.764
19861SOL    HW161416   9.404   1.730  14.691
19861SOL    HW261417   9.435   1.697  14.835
19862SOL     OW61418   7.027   7.760  13.483
19862SOL    HW161419   6.967   7.802  13.422
19862SOL    HW261420   7.048   7.829  13.546
19863SOL     OW61421  14.063   1.849   3.685
19863SOL    HW161422  14.011   1.927   3.668
19863SOL    HW261423  14.061   1.800   3.603
19864SOL     OW61424   3.156   5.603  10.894
19864SOL    HW161425   3.176   5.695  10.907
19864SOL    HW261426   3.211   5.576  10.820
19865SOL     OW61427   4.117  10.000  12.952
19865SOL    HW161428   4.068   9.919  12.932
19865SOL    HW261429   4.178  10.009  12.879
19866SOL     OW61430   4.244   4.042  14.032
19866SOL    HW161431   4.255   3.962  14.084
19866SOL    HW261432   4.331   4.082  14.031
19867SOL     OW61433   1.441   2.766   5.953
19867SOL    HW161434   1.365   2.708   5.951
19867SOL    HW261435   1.456   2.788   5.861
19868SOL     OW61436   4.000   9.823   0.518
19868SOL    HW161437   3.936   9.831   0.447
19868SOL    HW261438   3.998   9.730   0.541
19869SOL     OW61439   6.189   2.446  11.055
19869SOL    HW161440   6.250   2.383  11.017
19869SOL    HW261441   6.209   2.447  11.148
19870SOL     OW61442   7.832   1.675   3.672
19870SOL    HW161443   7.837   1.625   3.591
19870SOL    HW261444   7.744   1.658   3.706
19871SOL     OW61445   1.493   5.503   9.902
19871SOL    HW161446   1.418   5.556   9.875
19871SOL    HW261447   1.501   5.520   9.996
19872SOL     OW61448   4.637   4.265   3.499
19872SOL    HW161449   4.644   4.275   3.405
19872SOL    HW261450   4.655   4.173   3.516
19873SOL     OW61451   3.160  12.091  11.765
19873SOL    HW161452   3.232  12.100  11.702
19873SOL    HW261453   3.081  12.100  11.712
19874SOL     OW61454  12.164  10.740   5.035
19874SOL    HW161455  12.108  10.667   5.060
19874SOL    HW261456  12.206  10.767   5.117
19875SOL     OW61457   7.679  10.606  11.644
19875SOL    HW161458   7.659  10.544  11.575
19875SOL    HW261459   7.773  10.595  11.660
19876SOL     OW61460   5.764   2.159  10.377
19876SOL    HW161461   5.838   2.173  10.318
19876SOL    HW261462   5.802   2.157  10.464
19877SOL     OW61463   0.285  13.667   4.838
19877SOL    HW161464   0.259  13.746   4.792
19877SOL    HW261465   0.237  13.596   4.794
19878SOL     OW61466   4.874   0.708   1.160
19878SOL    HW161467   4.959   0.751   1.169
19878SOL    HW261468   4.812   0.780   1.147
19879SOL     OW61469  10.632  13.318   0.900
19879SOL    HW161470  10.715  13.364   0.906
19879SOL    HW261471  10.577  13.373   0.845
19880SOL     OW61472   0.599   6.913  14.456
19880SOL    HW161473   0.619   7.006  14.451
19880SOL    HW261474   0.525   6.901  14.397
19881SOL     OW61475   4.345  13.180   5.908
19881SOL    HW161476   4.307  13.225   5.983
19881SOL    HW261477   4.300  13.096   5.905
19882SOL     OW61478   1.091   9.326  11.266
19882SOL    HW161479   1.093   9.230  11.268
19882SOL    HW261480   1.135   9.349  11.184
19883SOL     OW61481   9.190   7.094   0.785
19883SOL    HW161482   9.257   7.103   0.853
19883SOL    HW261483   9.120   7.154   0.813
19884SOL     OW61484   6.454   6.629   6.743
19884SOL    HW161485   6.438   6.708   6.794
19884SOL    HW261486   6.392   6.565   6.778
19885SOL     OW61487   1.289   7.960   7.193
19885SOL    HW161488   1.331   7.906   7.260
19885SOL    HW261489   1.249   8.032   7.241
19886SOL     OW61490   5.039  11.210  11.627
19886SOL    HW161491   5.038  11.271  11.553
19886SOL    HW261492   4.964  11.237  11.681
19887SOL     OW61493   5.633   3.432   6.991
19887SOL    HW161494   5.711   3.458   6.943
19887SOL    HW261495   5.591   3.366   6.936
19888SOL     OW61496   9.587   3.709  10.947
19888SOL    HW161497   9.553   3.760  10.873
19888SOL    HW261498   9.669   3.752  10.970
19889SOL     OW61499   5.588   3.097   2.211
19889SOL    HW161500   5.621   3.173   2.163
19889SOL    HW261501   5.575   3.030   2.144
19890SOL     OW61502   1.777   6.405   1.209
19890SOL    HW161503   1.777   6.325   1.261
19890SOL    HW261504   1.853   6.396   1.152
19891SOL     OW61505  10.708   8.029   1.702
19891SOL    HW161506  10.771   8.057   1.636
19891SOL    HW261507  10.749   7.955   1.746
19892SOL     OW61508  14.668   2.628  12.462
19892SOL    HW161509  14.755   2.643  12.500
19892SOL    HW261510  14.657   2.699  12.399
19893SOL     OW61511  13.822   2.965   8.382
19893SOL    HW161512  13.752   2.906   8.354
19893SOL    HW261513  13.786   3.053   8.368
19894SOL     OW61514   5.074  14.404   9.462
19894SOL    HW161515   4.987  14.372   9.439
19894SOL    HW261516   5.088  14.478   9.403
19895SOL     OW61517   4.619   6.826  14.050
19895SOL    HW161518   4.624   6.755  14.113
19895SOL    HW261519   4.548   6.882  14.082
19896SOL     OW61520  13.867  14.864  11.416
19896SOL    HW161521  13.814  14.833  11.342
19896SOL    HW261522  13.943  14.806  11.416
19897SOL     OW61523  13.005   5.245   6.944
19897SOL    HW161524  13.004   5.239   6.848
19897SOL    HW261525  12.918   5.214   6.971
19898SOL     OW61526  12.348  12.432  14.067
19898SOL    HW161527  12.389  12.474  13.992
19898SOL    HW261528  12.256  12.459  14.062
19899SOL     OW61529   2.046   5.409   4.946
19899SOL    HW161530   1.974   5.444   4.894
19899SOL    HW261531   2.052   5.317   4.919
19900SOL     OW61532  13.655  10.254   0.828
19900SOL    HW161533  13.593  10.184   0.851
19900SOL    HW261534  13.682  10.234   0.738
19901SOL     OW61535  14.150  12.149  12.359
19901SOL    HW161536  14.195  12.232  12.374
19901SOL    HW261537  14.086  12.143  12.431
19902SOL     OW61538   2.391   6.778   1.202
19902SOL    HW161539   2.393   6.855   1.145
19902SOL    HW261540   2.321   6.724   1.167
19903SOL     OW61541  10.305  13.175  14.009
19903SOL    HW161542  10.279  13.089  13.976
19903SOL    HW261543  10.265  13.181  14.095
19904SOL     OW61544   2.996  13.802  11.705
19904SOL    HW161545   2.902  13.809  11.685
19904SOL    HW261546   3.034  13.762  11.628
19905SOL     OW61547   2.367   0.141   3.519
19905SOL    HW161548   2.333   0.089   3.447
19905SOL    HW261549   2.448   0.097   3.545
19906SOL     OW61550   4.646  10.065   7.229
19906SOL    HW161551   4.721  10.019   7.267
19906SOL    HW261552   4.586  10.077   7.303
19907SOL     OW61553   0.991   0.926   6.997
19907SOL    HW161554   0.927   0.966   7.055
19907SOL    HW261555   1.065   0.986   6.997
19908SOL     OW61556   7.022   7.381   2.789
19908SOL    HW161557   7.036   7.386   2.884
19908SOL    HW261558   7.017   7.473   2.761
19909SOL     OW61559   7.583   2.901   2.429
19909SOL    HW161560   7.536   2.862   2.355
19909SOL    HW261561   7.513   2.934   2.487
19910SOL     OW61562  13.080  14.250   4.940
19910SOL    HW161563  13.032  14.275   5.019
19910SOL    HW261564  13.098  14.332   4.896
19911SOL     OW61565   8.389   6.148  10.168
19911SOL    HW161566   8.323   6.217  10.159
19911SOL    HW261567   8.468   6.186  10.128
19912SOL     OW61568  10.411   4.675   5.942
19912SOL    HW161569  10.493   4.710   5.907
19912SOL    HW261570  10.357   4.659   5.864
19913SOL     OW61571  11.834   4.637   1.530
19913SOL    HW161572  11.888   4.559   1.516
19913SOL    HW261573  11.865   4.674   1.612
19914SOL     OW61574  13.738   4.553   9.217
19914SOL    HW161575  13.766   4.467   9.185
19914SOL    HW261576  13.643   4.552   9.208
19915SOL     OW61577   6.128   6.238   4.689
19915SOL    HW161578   6.143   6.240   4.783
19915SOL    HW261579   6.201   6.187   4.654
19916SOL     OW61580   4.953   8.112   9.928
19916SOL    HW161581   4.923   8.024   9.904
19916SOL    HW261582   5.043   8.116   9.896
19917SOL     OW61583   2.245   6.349  12.562
19917SOL    HW161584   2.302   6.340  12.639
19917SOL    HW261585   2.285   6.419  12.511
19918SOL     OW61586   6.424   8.471  10.227
19918SOL    HW161587   6.412   8.393  10.173
19918SOL    HW261588   6.340   8.518  10.221
19919SOL     OW61589  10.239  11.916   0.296
19919SOL    HW161590  10.159  11.964   0.315
19919SOL    HW261591  10.263  11.943   0.208
19920SOL     OW61592  13.174  13.342   0.046
19920SOL    HW161593  13.116  13.416   0.067
19920SOL    HW261594  13.139  13.270   0.098
19921SOL     OW61595   8.056   2.005  12.397
19921SOL    HW161596   8.141   2.043  12.416
19921SOL    HW261597   8.060   1.984  12.304
19922SOL     OW61598   9.917   6.646   1.621
19922SOL    HW161599   9.966   6.591   1.559
19922SOL    HW261600   9.843   6.591   1.648
19923SOL     OW61601  11.277   1.748   3.845
19923SOL    HW161602  11.189   1.730   3.810
19923SOL    HW261603  11.335   1.695   3.790
19924SOL     OW61604   6.177  11.894  13.106
19924SOL    HW161605   6.107  11.958  13.092
19924SOL    HW261606   6.131  11.813  13.129
19925SOL     OW61607   4.124   1.597   6.539
19925SOL    HW161608   4.125   1.645   6.456
19925SOL    HW261609   4.206   1.620   6.582
19926SOL     OW61610   2.840  10.074   9.087
19926SOL    HW161611   2.836   9.984   9.056
19926SOL    HW261612   2.895  10.071   9.165
19927SOL     OW61613   0.028   9.617   9.258
19927SOL    HW161614   0.096   9.672   9.220
19927SOL    HW261615   0.054   9.527   9.237
19928SOL     OW61616   2.660  11.290   4.644
19928SOL    HW161617   2.741  11.327   4.679
19928SOL    HW261618   2.660  11.315   4.552
19929SOL     OW61619   7.400   4.455  10.538
19929SOL    HW161620   7.460   4.445  10.612
19929SOL    HW261621   7.447   4.417  10.464
19930SOL     OW61622  12.864   7.514  10.250
19930SOL    HW161623  12.933   7.471  10.198
19930SOL    HW261624  12.799   7.446  10.265
19931SOL     OW61625  10.051   8.581  14.312
19931SOL    HW161626  10.135   8.576  14.266
19931SOL    HW261627  10.043   8.672  14.339
19932SOL     OW61628  12.335   6.323  10.716
19932SOL    HW161629  12.264   6.351  10.658
19932SOL    HW261630  12.294   6.313  10.801
19933SOL     OW61631   7.888  13.566   0.051
19933SOL    HW161632   7.948  13.511   0.101
19933SOL    HW261633   7.943  13.636   0.015
19934SOL     OW61634  10.831   4.303   6.712
19934SOL    HW161635  10.926   4.292   6.723
19934SOL    HW261636  10.812   4.261   6.629
19935SOL     OW61637   2.863  10.557  14.194
19935SOL    HW161638   2.841  10.646  14.166
19935SOL    HW261639   2.907  10.518  14.119
19936SOL     OW61640   6.816   2.621   5.989
19936SOL    HW161641   6.787   2.643   5.900
19936SOL    HW261642   6.810   2.526   5.993
19937SOL     OW61643  14.280  13.521  13.672
19937SOL    HW161644  14.325  13.510  13.589
19937SOL    HW261645  14.288  13.437  13.716
19938SOL     OW61646  13.491   9.043  12.056
19938SOL    HW161647  13.543   8.980  12.007
19938SOL    HW261648  13.556   9.105  12.091
19939SOL     OW61649   6.971  10.623   7.216
19939SOL    HW161650   7.012  10.636   7.301
19939SOL    HW261651   6.900  10.688   7.214
19940SOL     OW61652  14.720   1.989  14.726
19940SOL    HW161653  14.721   1.973  14.632
19940SOL    HW261654  14.706   1.902  14.765
19941SOL     OW61655   3.757  10.612  10.900
19941SOL    HW161656   3.827  10.628  10.837
19941SOL    HW261657   3.792  10.543  10.957
19942SOL     OW61658   8.947   3.403  13.989
19942SOL    HW161659   8.858   3.421  13.957
19942SOL    HW261660   8.963   3.312  13.966
19943SOL     OW61661   2.961  11.870   0.270
19943SOL    HW161662   2.956  11.792   0.326
19943SOL    HW261663   2.891  11.857   0.205
19944SOL     OW61664   4.207   2.979   8.040
19944SOL    HW161665   4.118   3.008   8.018
19944SOL    HW261666   4.206   2.884   8.025
19945SOL     OW61667   5.141   8.855   6.756
19945SOL    HW161668   5.179   8.909   6.687
19945SOL    HW261669   5.145   8.766   6.722
19946SOL     OW61670  11.791  14.056   4.955
19946SOL    HW161671  11.800  14.121   4.885
19946SOL    HW261672  11.715  14.085   5.005
19947SOL     OW61673   9.497  10.528  12.287
19947SOL    HW161674   9.548  10.518  12.206
19947SOL    HW261675   9.410  10.495  12.264
19948SOL     OW61676  14.012   6.544   1.954
19948SOL    HW161677  14.075   6.566   2.023
19948SOL    HW261678  14.052   6.472   1.906
19949SOL     OW61679   8.323  10.989  11.974
19949SOL    HW161680   8.328  11.082  11.954
19949SOL    HW261681   8.386  10.976  12.045
19950SOL     OW61682  10.438  11.408   4.773
19950SOL    HW161683  10.455  11.479   4.834
19950SOL    HW261684  10.419  11.451   4.690
19951SOL     OW61685   7.718   8.561   1.616
19951SOL    HW161686   7.659   8.539   1.688
19951SOL    HW261687   7.782   8.620   1.656
19952SOL     OW61688  12.293   5.496   7.094
19952SOL    HW161689  12.305   5.487   6.999
19952SOL    HW261690  12.200   5.517   7.105
19953SOL     OW61691   2.426   9.146   5.887
19953SOL    HW161692   2.435   9.053   5.865
19953SOL    HW261693   2.385   9.185   5.810
19954SOL     OW61694   5.410  14.622   4.417
19954SOL    HW161695   5.350  14.657   4.482
19954SOL    HW261696   5.412  14.527   4.434
19955SOL     OW61697  12.640   6.266  10.364
19955SOL    HW161698  12.558   6.310  10.342
19955SOL    HW261699  12.698   6.287  10.291
19956SOL     OW61700   2.335  12.882  10.862
19956SOL    HW161701   2.383  12.939  10.922
19956SOL    HW261702   2.271  12.940  10.820
19957SOL     OW61703   3.203   4.898  11.770
19957SOL    HW161704   3.226   4.860  11.855
19957SOL    HW261705   3.114   4.932  11.782
19958SOL     OW61706   3.335   8.865   4.436
19958SOL    HW161707   3.393   8.941   4.429
19958SOL    HW261708   3.288   8.864   4.352
19959SOL     OW61709   9.850   4.549   6.761
19959SOL    HW161710   9.756   4.565   6.758
19959SOL    HW261711   9.876   4.574   6.850
19960SOL     OW61712   7.544   4.663   2.896
19960SOL    HW161713   7.465   4.650   2.843
19960SOL    HW261714   7.603   4.592   2.869
19961SOL     OW61715   7.364   5.870  10.067
19961SOL    HW161716   7.431   5.914  10.119
19961SOL    HW261717   7.354   5.784  10.107
19962SOL     OW61718   0.388   6.727   6.491
19962SOL    HW161719   0.379   6.677   6.410
19962SOL    HW261720   0.424   6.811   6.463
19963SOL     OW61721  11.020  12.428   9.445
19963SOL    HW161722  11.081  12.489   9.487
19963SOL    HW261723  11.069  12.346   9.440
19964SOL     OW61724   8.890   4.211  12.257
19964SOL    HW161725   8.860   4.274  12.322
19964SOL    HW261726   8.846   4.129  12.280
19965SOL     OW61727   4.516  11.665   3.033
19965SOL    HW161728   4.551  11.754   3.038
19965SOL    HW261729   4.460  11.656   3.110
19966SOL     OW61730   5.187  11.127   9.143
19966SOL    HW161731   5.202  11.202   9.200
19966SOL    HW261732   5.096  11.101   9.160
19967SOL     OW61733   6.146   6.153   8.831
19967SOL    HW161734   6.119   6.061   8.824
19967SOL    HW261735   6.120   6.179   8.920
19968SOL     OW61736   7.777  10.949   0.188
19968SOL    HW161737   7.864  10.977   0.217
19968SOL    HW261738   7.722  10.956   0.266
19969SOL     OW61739   3.038  12.285  10.576
19969SOL    HW161740   3.001  12.373  10.565
19969SOL    HW261741   2.970  12.226  10.544
19970SOL     OW61742   9.231  14.146   9.163
19970SOL    HW161743   9.245  14.174   9.072
19970SOL    HW261744   9.282  14.065   9.170
19971SOL     OW61745  12.238   3.453  10.591
19971SOL    HW161746  12.257   3.520  10.658
19971SOL    HW261747  12.309   3.463  10.527
19972SOL     OW61748  13.416   4.379   7.035
19972SOL    HW161749  13.401   4.355   7.127
19972SOL    HW261750  13.399   4.473   7.031
19973SOL     OW61751   6.487   5.698   7.882
19973SOL    HW161752   6.549   5.639   7.925
19973SOL    HW261753   6.538   5.778   7.866
19974SOL     OW61754  13.713   1.808   5.420
19974SOL    HW161755  13.777   1.852   5.365
19974SOL    HW261756  13.721   1.851   5.505
19975SOL     OW61757  10.427  10.424   2.438
19975SOL    HW161758  10.400  10.335   2.458
19975SOL    HW261759  10.517  10.430   2.469
19976SOL     OW61760   6.387   7.734   2.404
19976SOL    HW161761   6.440   7.797   2.453
19976SOL    HW261762   6.440   7.712   2.328
19977SOL     OW61763  13.196   0.359   7.768
19977SOL    HW161764  13.161   0.448   7.765
19977SOL    HW261765  13.270   0.360   7.707
19978SOL     OW61766   8.805   0.660   0.718
19978SOL    HW161767   8.863   0.712   0.772
19978SOL    HW261768   8.808   0.702   0.632
19979SOL     OW61769  12.170   0.875   8.252
19979SOL    HW161770  12.128   0.826   8.323
19979SOL    HW261771  12.252   0.829   8.236
19980SOL     OW61772   8.622   4.057   6.340
19980SOL    HW161773   8.529   4.066   6.358
19980SOL    HW261774   8.627   3.988   6.274
19981SOL     OW61775  10.621   8.940   3.736
19981SOL    HW161776  10.600   8.900   3.652
19981SOL    HW261777  10.547   8.998   3.754
19982SOL     OW61778  13.324   6.588  12.440
19982SOL    HW161779  13.265   6.524  12.400
19982SOL    HW261780  13.410   6.567  12.403
19983SOL     OW61781   5.823   4.928  13.933
19983SOL    HW161782   5.900   4.984  13.939
19983SOL    HW261783   5.855   4.847  13.894
19984SOL     OW61784   3.083  14.193  14.866
19984SOL    HW161785   3.092  14.287  14.855
19984SOL    HW261786   3.167  14.157  14.835
19985SOL     OW61787  12.024   3.370  10.301
19985SOL    HW161788  12.039   3.463  10.316
19985SOL    HW261789  11.945   3.350  10.351
19986SOL     OW61790  11.430  10.484   8.715
19986SOL    HW161791  11.402  10.475   8.806
19986SOL    HW261792  11.357  10.529   8.672
19987SOL     OW61793   0.710  11.013   5.623
19987SOL    HW161794   0.789  10.998   5.674
19987SOL    HW261795   0.644  10.957   5.663
19988SOL     OW61796   7.119  11.071   3.668
19988SOL    HW161797   7.111  11.070   3.763
19988SOL    HW261798   7.066  11.147   3.641
19989SOL     OW61799  13.675   8.725   4.473
19989SOL    HW161800  13.709   8.650   4.425
19989SOL    HW261801  13.635   8.688   4.551
19990SOL     OW61802  12.399   7.530  12.593
19990SOL    HW161803  12.310   7.564  12.586
19990SOL    HW261804  12.400   7.454  12.535
19991SOL     OW61805  11.726  13.769   1.810
19991SOL    HW161806  11.797  13.814   1.856
19991SOL    HW261807  11.697  13.831   1.744
19992SOL     OW61808  14.108  12.309   4.587
19992SOL    HW161809  14.128  12.393   4.546
19992SOL    HW261810  14.035  12.275   4.536
19993SOL     OW61811   8.765  13.123   0.286
19993SOL    HW161812   8.675  13.113   0.254
19993SOL    HW261813   8.786  13.040   0.328
19994SOL     OW61814   2.032   3.544   1.540
19994SOL    HW161815   1.987   3.526   1.622
19994SOL    HW261816   1.972   3.512   1.472
19995SOL     OW61817   5.854   0.764  10.499
19995SOL    HW161818   5.818   0.677  10.482
19995SOL    HW261819   5.934   0.768  10.447
19996SOL     OW61820   5.959   0.195   9.584
19996SOL    HW161821   5.900   0.254   9.537
19996SOL    HW261822   5.940   0.210   9.676
19997SOL     OW61823  14.707  14.679   7.600
19997SOL    HW161824  14.697  14.772   7.578
19997SOL    HW261825  14.675  14.673   7.690
19998SOL     OW61826   8.000  13.770   4.237
19998SOL    HW161827   8.059  13.830   4.283
19998SOL    HW261828   7.997  13.804   4.147
19999SOL     OW61829   3.665  10.434  12.437
19999SOL    HW161830   3.623  10.512  12.401
19999SOL    HW261831   3.685  10.457  12.527
20000SOL     OW61832   6.795   1.504   7.330
20000SOL    HW161833   6.707   1.523   7.362
20000SOL    HW261834   6.851   1.509   7.407
20001SOL     OW61835   0.418   5.977   9.566
20001SOL    HW161836   0.346   5.967   9.628
20001SOL    HW261837   0.377   6.016   9.488
20002SOL     OW61838   1.598   5.552   8.119
20002SOL    HW161839   1.517   5.521   8.160
20002SOL    HW261840   1.606   5.500   8.039
20003SOL     OW61841   9.881  13.390   2.139
20003SOL    HW161842   9.972  13.421   2.141
20003SOL    HW261843   9.840  13.434   2.214
20004SOL     OW61844   6.512   1.677  13.521
20004SOL    HW161845   6.496   1.596  13.473
20004SOL    HW261846   6.583   1.719  13.473
20005SOL     OW61847  14.361   6.240   8.836
20005SOL    HW161848  14.404   6.155   8.833
20005SOL    HW261849  14.402   6.292   8.767
20006SOL     OW61850   7.444   1.863   5.160
20006SOL    HW161851   7.510   1.824   5.218
20006SOL    HW261852   7.483   1.856   5.072
20007SOL     OW61853  14.343  10.749  12.198
20007SOL    HW161854  14.434  10.751  12.230
20007SOL    HW261855  14.337  10.825  12.141
20008SOL     OW61856   8.878  14.179  10.066
20008SOL    HW161857   8.846  14.124  10.138
20008SOL    HW261858   8.961  14.140  10.041
20009SOL     OW61859   0.449  11.756   4.716
20009SOL    HW161860   0.451  11.686   4.782
20009SOL    HW261861   0.450  11.837   4.766
20010SOL     OW61862  14.526   4.085   3.283
20010SOL    HW161863  14.571   4.069   3.365
20010SOL    HW261864  14.596   4.096   3.218
20011SOL     OW61865   8.600   0.476  14.412
20011SOL    HW161866   8.573   0.481  14.321
20011SOL    HW261867   8.519   0.480  14.462
20012SOL     OW61868   4.113  12.126   4.203
20012SOL    HW161869   4.199  12.143   4.242
20012SOL    HW261870   4.131  12.110   4.111
20013SOL     OW61871   0.565  13.533   1.855
20013SOL    HW161872   0.581  13.618   1.895
20013SOL    HW261873   0.652  13.497   1.839
20014SOL     OW61874  12.562  13.269   3.541
20014SOL    HW161875  12.544  13.355   3.579
20014SOL    HW261876  12.522  13.207   3.602
20015SOL     OW61877  12.267   5.518   3.568
20015SOL    HW161878  12.217   5.468   3.632
20015SOL    HW261879  12.340   5.555   3.618
20016SOL     OW61880  11.975   2.568   5.390
20016SOL    HW161881  11.972   2.573   5.294
20016SOL    HW261882  12.007   2.655   5.417
20017SOL     OW61883  14.264  13.129   5.881
20017SOL    HW161884  14.347  13.127   5.832
20017SOL    HW261885  14.289  13.103   5.970
20018SOL     OW61886   0.918   2.436  13.723
20018SOL    HW161887   0.939   2.442  13.816
20018SOL    HW261888   0.835   2.388  13.721
20019SOL     OW61889  14.070   0.305   2.626
20019SOL    HW161890  14.016   0.266   2.694
20019SOL    HW261891  14.083   0.396   2.653
20020SOL     OW61892   1.425   4.785   4.205
20020SOL    HW161893   1.509   4.798   4.161
20020SOL    HW261894   1.367   4.850   4.164
20021SOL     OW61895   6.705  14.421   4.284
20021SOL    HW161896   6.760  14.396   4.358
20021SOL    HW261897   6.630  14.467   4.324
20022SOL     OW61898   1.713   1.793   5.459
20022SOL    HW161899   1.764   1.850   5.400
20022SOL    HW261900   1.752   1.706   5.448
20023SOL     OW61901  14.370   3.366  10.929
20023SOL    HW161902  14.284   3.327  10.948
20023SOL    HW261903  14.405   3.312  10.858
20024SOL     OW61904  13.688   5.931   2.450
20024SOL    HW161905  13.634   5.905   2.525
20024SOL    HW261906  13.629   5.981   2.394
20025SOL     OW61907   9.239   2.966   7.816
20025SOL    HW161908   9.312   3.001   7.766
20025SOL    HW261909   9.160   2.996   7.770
20026SOL     OW61910   8.046   9.716  13.444
20026SOL    HW161911   8.093   9.646  13.489
20026SOL    HW261912   8.015   9.773  13.514
20027SOL     OW61913   9.872   1.566   8.815
20027SOL    HW161914   9.822   1.641   8.782
20027SOL    HW261915   9.807   1.496   8.823
20028SOL     OW61916  12.671  14.676   4.418
20028SOL    HW161917  12.604  14.619   4.380
20028SOL    HW261918  12.754  14.640   4.384
20029SOL     OW61919   6.962   5.428   9.185
20029SOL    HW161920   6.886   5.451   9.239
20029SOL    HW261921   7.001   5.512   9.162
20030SOL     OW61922  13.649   3.104   3.379
20030SOL    HW161923  13.591   3.109   3.303
20030SOL    HW261924  13.650   3.193   3.414
20031SOL     OW61925  13.957   9.401   1.602
20031SOL    HW161926  13.864   9.381   1.616
20031SOL    HW261927  13.957   9.485   1.555
20032SOL     OW61928   9.690   7.028   9.794
20032SOL    HW161929   9.604   7.039   9.836
20032SOL    HW261930   9.688   6.939   9.758
20033SOL     OW61931   4.739  13.100   6.884
20033SOL    HW161932   4.780  13.186   6.885
20033SOL    HW261933   4.797  13.047   6.830
20034SOL     OW61934   8.598   8.491   4.453
20034SOL    HW161935   8.505   8.505   4.471
20034SOL    HW261936   8.638   8.485   4.539
20035SOL     OW61937  13.094   0.713   6.266
20035SOL    HW161938  13.140   0.781   6.217
20035SOL    HW261939  13.129   0.719   6.355
20036SOL     OW61940  13.247   4.632   5.791
20036SOL    HW161941  13.325   4.673   5.829
20036SOL    HW261942  13.176   4.692   5.812
20037SOL     OW61943   7.720   7.592   4.061
20037SOL    HW161944   7.784   7.522   4.051
20037SOL    HW261945   7.771   7.669   4.085
20038SOL     OW61946   7.484   6.280   1.923
20038SOL    HW161947   7.405   6.265   1.871
20038SOL    HW261948   7.540   6.205   1.901
20039SOL     OW61949   1.993   2.811   2.363
20039SOL    HW161950   2.088   2.810   2.370
20039SOL    HW261951   1.966   2.720   2.379
20040SOL     OW61952  13.543   7.334  11.973
20040SOL    HW161953  13.531   7.261  11.913
20040SOL    HW261954  13.632   7.323  12.007
20041SOL     OW61955   1.132   4.351  11.797
20041SOL    HW161956   1.050   4.370  11.843
20041SOL    HW261957   1.167   4.437  11.773
20042SOL     OW61958  12.769   2.449   0.550
20042SOL    HW161959  12.862   2.468   0.561
20042SOL    HW261960  12.726   2.502   0.616
20043SOL     OW61961   4.149  13.397  14.669
20043SOL    HW161962   4.227  13.345  14.651
20043SOL    HW261963   4.166  13.481  14.627
20044SOL     OW61964  10.309  13.187   1.523
20044SOL    HW161965  10.389  13.140   1.498
20044SOL    HW261966  10.302  13.258   1.459
20045SOL     OW61967   1.765   5.191  13.096
20045SOL    HW161968   1.838   5.162  13.041
20045SOL    HW261969   1.772   5.286  13.097
20046SOL     OW61970   6.221   7.962   4.366
20046SOL    HW161971   6.129   7.941   4.348
20046SOL    HW261972   6.271   7.894   4.320
20047SOL     OW61973  14.843   7.040  14.374
20047SOL    HW161974  14.866   6.953  14.341
20047SOL    HW261975  14.868   7.038  14.466
20048SOL     OW61976   2.354   8.540  13.934
20048SOL    HW161977   2.325   8.486  13.861
20048SOL    HW261978   2.351   8.630  13.901
20049SOL     OW61979   1.786   4.557  14.820
20049SOL    HW161980   1.849   4.598  14.761
20049SOL    HW261981   1.828   4.561   0.033
20050SOL     OW61982  11.397   1.104   7.934
20050SOL    HW161983  11.407   1.059   7.850
20050SOL    HW261984  11.456   1.058   7.993
20051SOL     OW61985   6.636   7.020   0.675
20051SOL    HW161986   6.683   7.071   0.741
20051SOL    HW261987   6.694   7.019   0.599
20052SOL     OW61988  11.969   3.315   8.353
20052SOL    HW161989  11.891   3.368   8.341
20052SOL    HW261990  11.968   3.253   8.280
20053SOL     OW61991  13.568   4.910   0.046
20053SOL    HW161992  13.564   4.915   0.142
20053SOL    HW261993  13.478   4.893   0.019
20054SOL     OW61994   6.518  13.108  12.176
20054SOL    HW161995   6.443  13.114  12.117
20054SOL    HW261996   6.484  13.065  12.254
20055SOL     OW61997  12.622  10.414  11.171
20055SOL    HW161998  12.550  10.474  11.151
20055SOL    HW261999  12.596  10.331  11.131
20056SOL     OW62000   9.078  14.019   3.871
20056SOL    HW162001   9.023  14.043   3.796
20056SOL    HW262002   9.058  13.926   3.887
20057SOL     OW62003   8.030  13.177   1.291
20057SOL    HW162004   8.047  13.110   1.357
20057SOL    HW262005   7.936  13.196   1.301
20058SOL     OW62006   0.768  12.464  13.463
20058SOL    HW162007   0.809  12.524  13.400
20058SOL    HW262008   0.821  12.473  13.542
20059SOL     OW62009   0.784   2.246   1.325
20059SOL    HW162010   0.702   2.235   1.276
20059SOL    HW262011   0.846   2.187   1.281
20060SOL     OW62012   3.743  13.039  10.256
20060SOL    HW162013   3.838  13.030  10.253
20060SOL    HW262014   3.724  13.111  10.195
20061SOL     OW62015  10.511  12.641   9.915
20061SOL    HW162016  10.602  12.641   9.946
20061SOL    HW262017  10.489  12.733   9.903
20062SOL     OW62018   9.524   0.860   2.624
20062SOL    HW162019   9.577   0.884   2.548
20062SOL    HW262020   9.484   0.776   2.600
20063SOL     OW62021   6.016   4.006   7.546
20063SOL    HW162022   6.039   4.098   7.534
20063SOL    HW262023   5.970   4.003   7.630
20064SOL     OW62024   3.408   9.028   8.972
20064SOL    HW162025   3.321   9.004   8.939
20064SOL    HW262026   3.460   8.948   8.963
20065SOL     OW62027   6.510  13.045  11.060
20065SOL    HW162028   6.583  13.020  11.003
20065SOL    HW262029   6.534  13.131  11.093
20066SOL     OW62030   7.110   9.186   3.479
20066SOL    HW162031   7.070   9.185   3.392
20066SOL    HW262032   7.102   9.277   3.508
20067SOL     OW62033  13.122  14.164   8.889
20067SOL    HW162034  13.112  14.168   8.793
20067SOL    HW262035  13.210  14.127   8.901
20068SOL     OW62036  11.335  14.812   3.357
20068SOL    HW162037  11.391  14.741   3.325
20068SOL    HW262038  11.296  14.778   3.437
20069SOL     OW62039   6.948   0.877   0.523
20069SOL    HW162040   7.033   0.912   0.497
20069SOL    HW262041   6.935   0.909   0.612
20070SOL     OW62042   2.560  14.713  13.007
20070SOL    HW162043   2.648  14.698  12.972
20070SOL    HW262044   2.571  14.706  13.102
20071SOL     OW62045   9.233   9.770   2.638
20071SOL    HW162046   9.149   9.745   2.677
20071SOL    HW262047   9.258   9.694   2.586
20072SOL     OW62048  10.789  14.448  11.434
20072SOL    HW162049  10.693  14.447  11.443
20072SOL    HW262050  10.818  14.375  11.488
20073SOL     OW62051  10.191   0.562   0.966
20073SOL    HW162052  10.227   0.648   0.949
20073SOL    HW262053  10.231   0.535   1.049
20074SOL     OW62054   9.823  12.325  14.504
20074SOL    HW162055   9.915  12.298  14.511
20074SOL    HW262056   9.783  12.296  14.586
20075SOL     OW62057   8.181   5.599   6.640
20075SOL    HW162058   8.116   5.529   6.653
20075SOL    HW262059   8.227   5.574   6.560
20076SOL     OW62060   1.425   9.372   0.776
20076SOL    HW162061   1.358   9.367   0.708
20076SOL    HW262062   1.399   9.447   0.830
20077SOL     OW62063   5.271   3.688  12.264
20077SOL    HW162064   5.216   3.609  12.261
20077SOL    HW262065   5.236   3.744  12.194
20078SOL     OW62066   1.901   1.677  10.578
20078SOL    HW162067   1.888   1.756  10.525
20078SOL    HW262068   1.869   1.701  10.665
20079SOL     OW62069   1.062   8.196  11.140
20079SOL    HW162070   1.061   8.115  11.089
20079SOL    HW262071   1.140   8.243  11.110
20080SOL     OW62072   6.443   1.913   5.021
20080SOL    HW162073   6.491   1.955   5.092
20080SOL    HW262074   6.352   1.912   5.051
20081SOL     OW62075   2.953   9.132   1.405
20081SOL    HW162076   2.923   9.064   1.345
20081SOL    HW262077   3.023   9.177   1.357
20082SOL     OW62078  11.733   6.929   6.876
20082SOL    HW162079  11.741   6.836   6.894
20082SOL    HW262080  11.775   6.972   6.950
20083SOL     OW62081  11.179   8.117   9.846
20083SOL    HW162082  11.125   8.165   9.909
20083SOL    HW262083  11.118   8.089   9.779
20084SOL     OW62084  13.470   2.095   6.328
20084SOL    HW162085  13.385   2.136   6.320
20084SOL    HW262086  13.487   2.059   6.241
20085SOL     OW62087  13.411   6.387   8.692
20085SOL    HW162088  13.392   6.300   8.727
20085SOL    HW262089  13.500   6.406   8.722
20086SOL     OW62090   1.066  11.611   8.679
20086SOL    HW162091   1.043  11.692   8.634
20086SOL    HW262092   1.045  11.628   8.771
20087SOL     OW62093   1.054   1.461   7.589
20087SOL    HW162094   1.025   1.516   7.662
20087SOL    HW262095   1.138   1.499   7.562
20088SOL     OW62096  10.158   3.326   0.614
20088SOL    HW162097  10.089   3.281   0.565
20088SOL    HW262098  10.165   3.412   0.574
20089SOL     OW62099  11.550   6.738   9.063
20089SOL    HW162100  11.597   6.781   8.992
20089SOL    HW262101  11.583   6.780   9.142
20090SOL     OW62102   3.742   2.981   7.490
20090SOL    HW162103   3.818   3.016   7.442
20090SOL    HW262104   3.732   3.040   7.565
20091SOL     OW62105  11.291  10.140  11.474
20091SOL    HW162106  11.239  10.066  11.503
20091SOL    HW262107  11.283  10.140  11.379
20092SOL     OW62108   3.538   3.124   3.744
20092SOL    HW162109   3.525   3.091   3.655
20092SOL    HW262110   3.525   3.048   3.801
20093SOL     OW62111  13.635   5.111  12.343
20093SOL    HW162112  13.603   5.051  12.410
20093SOL    HW262113  13.688   5.057  12.284
20094SOL     OW62114   2.308   2.562   3.659
20094SOL    HW162115   2.275   2.649   3.682
20094SOL    HW262116   2.308   2.514   3.742
20095SOL     OW62117  12.224  12.514   8.443
20095SOL    HW162118  12.283  12.547   8.376
20095SOL    HW262119  12.137  12.541   8.414
20096SOL     OW62120   1.825  11.857   9.348
20096SOL    HW162121   1.784  11.775   9.318
20096SOL    HW262122   1.879  11.885   9.274
20097SOL     OW62123   1.829   9.287   6.727
20097SOL    HW162124   1.734   9.287   6.727
20097SOL    HW262125   1.853   9.284   6.819
20098SOL     OW62126   3.250   6.299   0.917
20098SOL    HW162127   3.258   6.330   1.007
20098SOL    HW262128   3.254   6.378   0.863
20099SOL     OW62129   2.631   8.403   6.646
20099SOL    HW162130   2.665   8.325   6.689
20099SOL    HW262131   2.620   8.466   6.717
20100SOL     OW62132   3.090   5.418  10.491
20100SOL    HW162133   3.096   5.505  10.530
20100SOL    HW262134   3.168   5.412  10.435
20101SOL     OW62135   6.251   9.106   2.139
20101SOL    HW162136   6.310   9.180   2.156
20101SOL    HW262137   6.237   9.066   2.225
20102SOL     OW62138   2.486   4.720   2.444
20102SOL    HW162139   2.478   4.654   2.375
20102SOL    HW262140   2.552   4.685   2.503
20103SOL     OW62141  14.118   3.485  12.839
20103SOL    HW162142  14.083   3.403  12.874
20103SOL    HW262143  14.076   3.495  12.754
20104SOL     OW62144   7.457   5.796  12.557
20104SOL    HW162145   7.546   5.806  12.523
20104SOL    HW262146   7.433   5.884  12.586
20105SOL     OW62147  11.373   2.214  11.988
20105SOL    HW162148  11.362   2.119  11.979
20105SOL    HW262149  11.467   2.227  11.987
20106SOL     OW62150   5.778   7.612   6.178
20106SOL    HW162151   5.737   7.556   6.111
20106SOL    HW262152   5.706   7.636   6.236
20107SOL     OW62153   3.640   5.294   5.466
20107SOL    HW162154   3.663   5.202   5.452
20107SOL    HW262155   3.638   5.331   5.378
20108SOL     OW62156   1.979  12.606  11.523
20108SOL    HW162157   1.903  12.596  11.465
20108SOL    HW262158   1.941  12.621  11.609
20109SOL     OW62159  12.095   2.942   5.115
20109SOL    HW162160  12.027   3.001   5.147
20109SOL    HW262161  12.142   2.992   5.049
20110SOL     OW62162   9.124   2.410   6.396
20110SOL    HW162163   9.220   2.411   6.391
20110SOL    HW262164   9.096   2.391   6.306
20111SOL     OW62165   5.446   8.205   3.615
20111SOL    HW162166   5.358   8.238   3.637
20111SOL    HW262167   5.504   8.280   3.630
20112SOL     OW62168  11.148   8.155   8.714
20112SOL    HW162169  11.215   8.195   8.658
20112SOL    HW262170  11.088   8.227   8.733
20113SOL     OW62171   7.047   1.058   3.495
20113SOL    HW162172   6.983   1.090   3.432
20113SOL    HW262173   7.126   1.108   3.476
20114SOL     OW62174   3.632   9.029   5.478
20114SOL    HW162175   3.712   9.079   5.496
20114SOL    HW262176   3.662   8.939   5.465
20115SOL     OW62177  12.803  11.362   6.184
20115SOL    HW162178  12.842  11.436   6.140
20115SOL    HW262179  12.721  11.347   6.138
20116SOL     OW62180  13.619  14.174   0.226
20116SOL    HW162181  13.700  14.189   0.178
20116SOL    HW262182  13.638  14.205   0.315
20117SOL     OW62183  13.725   5.154   1.334
20117SOL    HW162184  13.729   5.084   1.269
20117SOL    HW262185  13.812   5.156   1.373
20118SOL     OW62186  13.341   3.180   8.507
20118SOL    HW162187  13.279   3.107   8.521
20118SOL    HW262188  13.286   3.258   8.510
20119SOL     OW62189   8.085   4.097  11.296
20119SOL    HW162190   8.172   4.118  11.330
20119SOL    HW262191   8.031   4.087  11.374
20120SOL     OW62192  12.686  11.487  13.284
20120SOL    HW162193  12.621  11.423  13.255
20120SOL    HW262194  12.759  11.476  13.223
20121SOL     OW62195   7.045   8.790   1.984
20121SOL    HW162196   7.041   8.782   1.889
20121SOL    HW262197   7.106   8.720   2.011
20122SOL     OW62198  10.329  11.645  12.990
20122SOL    HW162199  10.339  11.724  12.937
20122SOL    HW262200  10.235  11.638  13.005
20123SOL     OW62201  10.915  11.510   3.062
20123SOL    HW162202  10.961  11.426   3.070
20123SOL    HW262203  10.859  11.500   2.985
20124SOL     OW62204  10.474   3.253  12.773
20124SOL    HW162205  10.480   3.245  12.678
20124SOL    HW262206  10.467   3.347  12.789
20125SOL     OW62207  14.520  11.781   4.761
20125SOL    HW162208  14.554  11.850   4.704
20125SOL    HW262209  14.588  11.766   4.826
20126SOL     OW62210  12.147  11.357   4.647
20126SOL    HW162211  12.198  11.391   4.573
20126SOL    HW262212  12.146  11.262   4.633
20127SOL     OW62213   0.942   2.831  12.579
20127SOL    HW162214   0.917   2.896  12.644
20127SOL    HW262215   0.863   2.820  12.525
20128SOL     OW62216   7.507   0.883   1.663
20128SOL    HW162217   7.438   0.946   1.682
20128SOL    HW262218   7.503   0.871   1.568
20129SOL     OW62219   8.234  14.406   6.563
20129SOL    HW162220   8.179  14.455   6.501
20129SOL    HW262221   8.323  14.420   6.532
20130SOL     OW62222   4.866  11.085  10.809
20130SOL    HW162223   4.957  11.086  10.780
20130SOL    HW262224   4.819  11.136  10.743
20131SOL     OW62225  11.996   2.561   3.956
20131SOL    HW162226  12.084   2.526   3.966
20131SOL    HW262227  11.939   2.492   3.990
20132SOL     OW62228  14.740  13.177  12.185
20132SOL    HW162229  14.680  13.247  12.213
20132SOL    HW262230  14.789  13.155  12.264
20133SOL     OW62231   0.370   4.372   4.379
20133SOL    HW162232   0.388   4.392   4.287
20133SOL    HW262233   0.362   4.277   4.382
20134SOL     OW62234   1.395   1.805   4.953
20134SOL    HW162235   1.397   1.795   4.858
20134SOL    HW262236   1.417   1.897   4.967
20135SOL     OW62237  11.838  13.446   4.861
20135SOL    HW162238  11.847  13.490   4.777
20135SOL    HW262239  11.927  13.434   4.892
20136SOL     OW62240   6.380   6.787   1.983
20136SOL    HW162241   6.467   6.820   1.962
20136SOL    HW262242   6.321   6.834   1.924
20137SOL     OW62243   5.175   3.142  13.890
20137SOL    HW162244   5.250   3.089  13.864
20137SOL    HW262245   5.207   3.197  13.961
20138SOL     OW62246  14.534   3.175   2.412
20138SOL    HW162247  14.625   3.196   2.435
20138SOL    HW262248  14.521   3.217   2.327
20139SOL     OW62249   6.577   7.017   8.969
20139SOL    HW162250   6.606   7.040   9.057
20139SOL    HW262251   6.551   7.100   8.929
20140SOL     OW62252   5.502   3.560   0.576
20140SOL    HW162253   5.499   3.476   0.621
20140SOL    HW262254   5.527   3.538   0.486
20141SOL     OW62255  11.321   5.445  10.146
20141SOL    HW162256  11.264   5.369  10.132
20141SOL    HW262257  11.387   5.414  10.208
20142SOL     OW62258  10.010   1.797   0.020
20142SOL    HW162259  10.018   1.728  14.827
20142SOL    HW262260  10.067   1.768   0.092
20143SOL     OW62261   0.989  10.477   6.988
20143SOL    HW162262   0.929  10.468   6.914
20143SOL    HW262263   1.050  10.404   6.979
20144SOL     OW62264   7.103   6.800   3.181
20144SOL    HW162265   7.182   6.748   3.195
20144SOL    HW262266   7.052   6.750   3.117
20145SOL     OW62267   7.783   5.228  11.629
20145SOL    HW162268   7.712   5.192  11.576
20145SOL    HW262269   7.805   5.311  11.587
20146SOL     OW62270   6.750  14.230  14.034
20146SOL    HW162271   6.825  14.286  14.015
20146SOL    HW262272   6.761  14.204  14.125
20147SOL     OW62273   8.784  13.676  10.458
20147SOL    HW162274   8.738  13.598  10.427
20147SOL    HW262275   8.842  13.643  10.527
20148SOL     OW62276  11.944   7.807   5.866
20148SOL    HW162277  11.880   7.817   5.796
20148SOL    HW262278  11.897   7.830   5.946
20149SOL     OW62279   3.783   2.795  13.230
20149SOL    HW162280   3.875   2.817  13.214
20149SOL    HW262281   3.736   2.835  13.157
20150SOL     OW62282   0.164   8.073  12.338
20150SOL    HW162283   0.093   8.048  12.280
20150SOL    HW262284   0.207   7.991  12.361
20151SOL     OW62285   0.828  13.799   6.479
20151SOL    HW162286   0.738  13.766   6.484
20151SOL    HW262287   0.843  13.812   6.385
20152SOL     OW62288  12.538   8.170   2.774
20152SOL    HW162289  12.572   8.152   2.686
20152SOL    HW262290  12.534   8.084   2.816
20153SOL     OW62291   6.436   0.793  14.652
20153SOL    HW162292   6.419   0.812  14.559
20153SOL    HW262293   6.514   0.844  14.672
20154SOL     OW62294  12.859  14.259  10.818
20154SOL    HW162295  12.920  14.271  10.745
20154SOL    HW262296  12.786  14.210  10.781
20155SOL     OW62297   6.063   2.932   7.289
20155SOL    HW162298   6.156   2.954   7.282
20155SOL    HW262299   6.052   2.855   7.233
20156SOL     OW62300   9.992  10.664  13.655
20156SOL    HW162301  10.046  10.647  13.732
20156SOL    HW262302  10.022  10.600  13.590
20157SOL     OW62303   4.010  10.416  11.469
20157SOL    HW162304   4.037  10.411  11.377
20157SOL    HW262305   3.915  10.400  11.467
20158SOL     OW62306  10.733  11.254   9.327
20158SOL    HW162307  10.692  11.310   9.394
20158SOL    HW262308  10.662  11.198   9.296
20159SOL     OW62309   0.181   5.979   8.672
20159SOL    HW162310   0.253   6.001   8.613
20159SOL    HW262311   0.173   6.056   8.729
20160SOL     OW62312  10.001   2.866   9.688
20160SOL    HW162313   9.927   2.927   9.679
20160SOL    HW262314   9.980   2.814   9.765
20161SOL     OW62315  10.023   4.241   9.597
20161SOL    HW162316  10.018   4.204   9.509
20161SOL    HW262317   9.964   4.316   9.596
20162SOL     OW62318   9.068   7.840   7.572
20162SOL    HW162319   9.022   7.834   7.656
20162SOL    HW262320   9.002   7.873   7.511
20163SOL     OW62321  12.108   4.952   9.830
20163SOL    HW162322  12.067   4.903   9.901
20163SOL    HW262323  12.103   5.043   9.856
20164SOL     OW62324  14.146   2.563   4.940
20164SOL    HW162325  14.077   2.515   4.895
20164SOL    HW262326  14.100   2.624   4.997
20165SOL     OW62327   7.503   7.421   8.088
20165SOL    HW162328   7.487   7.514   8.103
20165SOL    HW262329   7.435   7.377   8.139
20166SOL     OW62330  12.700   4.268   2.572
20166SOL    HW162331  12.650   4.192   2.603
20166SOL    HW262332  12.736   4.307   2.651
20167SOL     OW62333   1.843   7.913   6.105
20167SOL    HW162334   1.844   7.818   6.117
20167SOL    HW262335   1.783   7.927   6.032
20168SOL     OW62336  10.220   6.239   7.760
20168SOL    HW162337  10.303   6.257   7.803
20168SOL    HW262338  10.204   6.316   7.706
20169SOL     OW62339   8.417  13.436   9.800
20169SOL    HW162340   8.500  13.428   9.754
20169SOL    HW262341   8.384  13.523   9.776
20170SOL     OW62342  10.330   7.634   2.608
20170SOL    HW162343  10.258   7.681   2.566
20170SOL    HW262344  10.335   7.551   2.561
20171SOL     OW62345   4.452   0.272   6.437
20171SOL    HW162346   4.383   0.338   6.441
20171SOL    HW262347   4.505   0.297   6.361
20172SOL     OW62348   8.730  11.910   3.195
20172SOL    HW162349   8.663  11.910   3.263
20172SOL    HW262350   8.755  11.818   3.185
20173SOL     OW62351   2.787  13.647   1.915
20173SOL    HW162352   2.816  13.570   1.963
20173SOL    HW262353   2.844  13.651   1.838
20174SOL     OW62354   6.783  13.223   8.652
20174SOL    HW162355   6.878  13.216   8.636
20174SOL    HW262356   6.743  13.170   8.583
20175SOL     OW62357   2.689  14.376  11.800
20175SOL    HW162358   2.693  14.444  11.732
20175SOL    HW262359   2.767  14.323  11.786
20176SOL     OW62360   8.484   5.928   9.945
20176SOL    HW162361   8.454   5.962  10.029
20176SOL    HW262362   8.409   5.937   9.887
20177SOL     OW62363   1.443  14.308   9.059
20177SOL    HW162364   1.520  14.362   9.072
20177SOL    HW262365   1.369  14.367   9.072
20178SOL     OW62366   6.059  14.051  11.925
20178SOL    HW162367   6.100  14.026  12.008
20178SOL    HW262368   5.968  14.021  11.933
20179SOL     OW62369   6.234   7.115   1.069
20179SOL    HW162370   6.154   7.068   1.090
20179SOL    HW262371   6.224   7.141   0.977
20180SOL     OW62372   2.421   5.695  11.956
20180SOL    HW162373   2.410   5.600  11.960
20180SOL    HW262374   2.350   5.725  11.898
20181SOL     OW62375   1.202   7.257  13.309
20181SOL    HW162376   1.132   7.212  13.261
20181SOL    HW262377   1.282   7.232  13.264
20182SOL     OW62378   8.547   9.000  12.860
20182SOL    HW162379   8.561   9.094  12.844
20182SOL    HW262380   8.634   8.961  12.849
20183SOL     OW62381   9.674   2.579  13.172
20183SOL    HW162382   9.646   2.497  13.131
20183SOL    HW262383   9.754   2.603  13.126
20184SOL     OW62384  13.310   8.945   6.673
20184SOL    HW162385  13.313   8.917   6.582
20184SOL    HW262386  13.359   8.879   6.721
20185SOL     OW62387  11.120   4.939  14.670
20185SOL    HW162388  11.152   4.999  14.737
20185SOL    HW262389  11.025   4.947  14.674
20186SOL     OW62390   3.663   9.395  14.390
20186SOL    HW162391   3.705   9.393  14.304
20186SOL    HW262392   3.633   9.305  14.405
20187SOL     OW62393   8.341   1.767  13.863
20187SOL    HW162394   8.298   1.755  13.778
20187SOL    HW262395   8.286   1.831  13.908
20188SOL     OW62396   5.476  14.817  14.589
20188SOL    HW162397   5.456  14.780  14.503
20188SOL    HW262398   5.417  14.771  14.649
20189SOL     OW62399   2.927   2.796   2.219
20189SOL    HW162400   2.876   2.780   2.299
20189SOL    HW262401   2.899   2.728   2.158
20190SOL     OW62402   1.201  12.509   9.857
20190SOL    HW162403   1.241  12.565   9.789
20190SOL    HW262404   1.242  12.538   9.938
20191SOL     OW62405  13.686   5.033   2.274
20191SOL    HW162406  13.619   5.024   2.206
20191SOL    HW262407  13.758   5.078   2.231
20192SOL     OW62408   2.406   7.738  10.427
20192SOL    HW162409   2.490   7.694  10.439
20192SOL    HW262410   2.429   7.825  10.394
20193SOL     OW62411  14.745   0.373  14.421
20193SOL    HW162412  14.673   0.418  14.464
20193SOL    HW262413  14.824   0.418  14.451
20194SOL     OW62414   5.229   1.978   6.000
20194SOL    HW162415   5.311   2.007   6.042
20194SOL    HW262416   5.241   1.884   5.989
20195SOL     OW62417   8.014   4.496   8.882
20195SOL    HW162418   8.083   4.450   8.833
20195SOL    HW262419   8.032   4.474   8.974
20196SOL     OW62420  10.686   5.434   6.843
20196SOL    HW162421  10.770   5.480   6.839
20196SOL    HW262422  10.680   5.389   6.758
20197SOL     OW62423   1.900  12.817   3.523
20197SOL    HW162424   1.964  12.884   3.500
20197SOL    HW262425   1.952  12.743   3.554
20198SOL     OW62426   3.303   6.131  14.384
20198SOL    HW162427   3.385   6.145  14.337
20198SOL    HW262428   3.238   6.114  14.315
20199SOL     OW62429   0.180   3.036   3.037
20199SOL    HW162430   0.219   3.118   3.067
20199SOL    HW262431   0.256   2.980   3.018
20200SOL     OW62432   7.894  13.160  11.227
20200SOL    HW162433   7.852  13.225  11.283
20200SOL    HW262434   7.982  13.149  11.264
20201SOL     OW62435   9.624   4.896   9.099
20201SOL    HW162436   9.536   4.905   9.063
20201SOL    HW262437   9.668   4.833   9.041
20202SOL     OW62438  11.641   1.404  13.599
20202SOL    HW162439  11.554   1.422  13.565
20202SOL    HW262440  11.669   1.324  13.553
20203SOL     OW62441  13.727   3.336  10.800
20203SOL    HW162442  13.661   3.385  10.752
20203SOL    HW262443  13.799   3.326  10.739
20204SOL     OW62444  13.009   2.911   6.323
20204SOL    HW162445  12.962   2.989   6.353
20204SOL    HW262446  12.942   2.858   6.280
20205SOL     OW62447   8.764   2.077  10.742
20205SOL    HW162448   8.823   2.046  10.812
20205SOL    HW262449   8.701   2.005  10.731
20206SOL     OW62450  13.744   6.449  13.713
20206SOL    HW162451  13.776   6.406  13.633
20206SOL    HW262452  13.729   6.540  13.687
20207SOL     OW62453  11.677   2.332   2.056
20207SOL    HW162454  11.720   2.275   1.992
20207SOL    HW262455  11.676   2.418   2.014
20208SOL     OW62456   7.373  14.759   3.319
20208SOL    HW162457   7.293  14.732   3.275
20208SOL    HW262458   7.345  14.826   3.382
20209SOL     OW62459  12.416   8.006   7.797
20209SOL    HW162460  12.329   8.023   7.760
20209SOL    HW262461  12.413   8.045   7.884
20210SOL     OW62462   7.052   0.324  10.553
20210SOL    HW162463   7.051   0.397  10.615
20210SOL    HW262464   6.960   0.304  10.539
20211SOL     OW62465  13.839  13.770  10.939
20211SOL    HW162466  13.818  13.724  10.858
20211SOL    HW262467  13.912  13.827  10.915
20212SOL     OW62468  11.100   7.683  10.304
20212SOL    HW162469  11.015   7.690  10.260
20212SOL    HW262470  11.083   7.711  10.394
20213SOL     OW62471   1.343  12.665   0.952
20213SOL    HW162472   1.355  12.691   0.861
20213SOL    HW262473   1.269  12.604   0.950
20214SOL     OW62474   5.228  10.075   4.307
20214SOL    HW162475   5.159  10.111   4.250
20214SOL    HW262476   5.264  10.002   4.257
20215SOL     OW62477  10.262  13.782   3.940
20215SOL    HW162478  10.318  13.794   3.864
20215SOL    HW262479  10.245  13.688   3.943
20216SOL     OW62480   7.146  13.034   5.872
20216SOL    HW162481   7.177  12.995   5.791
20216SOL    HW262482   7.167  12.970   5.940
20217SOL     OW62483   2.862   0.501   1.190
20217SOL    HW162484   2.860   0.565   1.261
20217SOL    HW262485   2.825   0.547   1.115
20218SOL     OW62486   7.468  10.807   1.088
20218SOL    HW162487   7.400  10.755   1.133
20218SOL    HW262488   7.473  10.888   1.139
20219SOL     OW62489  14.605  11.560  12.504
20219SOL    HW162490  14.546  11.534  12.433
20219SOL    HW262491  14.678  11.603  12.460
20220SOL     OW62492  12.334  10.202   0.810
20220SOL    HW162493  12.327  10.134   0.877
20220SOL    HW262494  12.327  10.284   0.859
20221SOL     OW62495   2.357   7.958   3.478
20221SOL    HW162496   2.279   8.002   3.446
20221SOL    HW262497   2.426   7.985   3.417
20222SOL     OW62498  14.809   6.552  13.428
20222SOL    HW162499  14.838   6.462  13.417
20222SOL    HW262500  14.722   6.544  13.467
20223SOL     OW62501   9.768   5.020  12.501
20223SOL    HW162502   9.711   5.020  12.579
20223SOL    HW262503   9.852   4.989  12.534
20224SOL     OW62504   9.455   0.082   2.872
20224SOL    HW162505   9.526   0.024   2.901
20224SOL    HW262506   9.490   0.170   2.886
20225SOL     OW62507   5.382  11.361   5.949
20225SOL    HW162508   5.376  11.272   5.984
20225SOL    HW262509   5.399  11.416   6.025
20226SOL     OW62510  14.822   1.660   7.869
20226SOL    HW162511  14.752   1.692   7.813
20226SOL    HW262512  14.823   1.720   7.944
20227SOL     OW62513   5.780  12.027   8.484
20227SOL    HW162514   5.729  11.999   8.407
20227SOL    HW262515   5.810  11.945   8.522
20228SOL     OW62516  14.764   7.149  14.839
20228SOL    HW162517  14.791   7.216   0.029
20228SOL    HW262518  14.812   7.071  14.865
20229SOL     OW62519   2.861   5.461   3.053
20229SOL    HW162520   2.820   5.515   3.121
20229SOL    HW262521   2.952   5.451   3.081
20230SOL     OW62522  11.326   8.238  13.177
20230SOL    HW162523  11.270   8.165  13.149
20230SOL    HW262524  11.384   8.254  13.102
20231SOL     OW62525   0.022   3.756   1.366
20231SOL    HW162526  14.846   3.677   1.347
20231SOL    HW262527  14.829   3.825   1.374
20232SOL     OW62528  11.929   6.068   1.439
20232SOL    HW162529  11.990   6.044   1.369
20232SOL    HW262530  11.845   6.078   1.396
20233SOL     OW62531   5.736  11.702   4.655
20233SOL    HW162532   5.781  11.660   4.582
20233SOL    HW262533   5.766  11.655   4.732
20234SOL     OW62534   2.204   0.414   2.982
20234SOL    HW162535   2.281   0.471   2.981
20234SOL    HW262536   2.132   0.470   3.011
20235SOL     OW62537  10.694   4.034  13.167
20235SOL    HW162538  10.662   4.060  13.253
20235SOL    HW262539  10.730   3.946  13.180
20236SOL     OW62540   2.332   6.713   6.119
20236SOL    HW162541   2.365   6.770   6.188
20236SOL    HW262542   2.375   6.745   6.039
20237SOL     OW62543  12.706  10.182   3.059
20237SOL    HW162544  12.664  10.268   3.068
20237SOL    HW262545  12.633  10.122   3.043
20238SOL     OW62546   1.070  12.004  13.532
20238SOL    HW162547   1.060  12.011  13.438
20238SOL    HW262548   1.074  12.094  13.563
20239SOL     OW62549   6.505   6.566  12.514
20239SOL    HW162550   6.521   6.483  12.560
20239SOL    HW262551   6.452   6.617  12.575
20240SOL     OW62552   8.750   0.071   4.272
20240SOL    HW162553   8.684   0.013   4.311
20240SOL    HW262554   8.699   0.131   4.219
20241SOL     OW62555  12.710   4.873   5.370
20241SOL    HW162556  12.741   4.940   5.431
20241SOL    HW262557  12.747   4.899   5.285
20242SOL     OW62558   7.131   6.335  12.530
20242SOL    HW162559   7.134   6.240  12.528
20242SOL    HW262560   7.204   6.364  12.476
20243SOL     OW62561   7.636  14.473  10.003
20243SOL    HW162562   7.683  14.530   9.943
20243SOL    HW262563   7.566  14.527  10.039
20244SOL     OW62564  10.866   2.909   6.554
20244SOL    HW162565  10.825   2.828   6.522
20244SOL    HW262566  10.960   2.896   6.539
20245SOL     OW62567   7.802  13.756   1.857
20245SOL    HW162568   7.783  13.666   1.830
20245SOL    HW262569   7.718  13.801   1.851
20246SOL     OW62570   7.576   2.450  14.236
20246SOL    HW162571   7.548   2.497  14.315
20246SOL    HW262572   7.646   2.504  14.200
20247SOL     OW62573   3.212  14.122   1.737
20247SOL    HW162574   3.129  14.101   1.693
20247SOL    HW262575   3.205  14.215   1.759
20248SOL     OW62576  14.683   8.183   0.649
20248SOL    HW162577  14.770   8.222   0.640
20248SOL    HW262578  14.625   8.258   0.666
20249SOL     OW62579   1.544   6.169   9.967
20249SOL    HW162580   1.518   6.077   9.962
20249SOL    HW262581   1.639   6.167   9.977
20250SOL     OW62582   7.840  11.398  12.735
20250SOL    HW162583   7.775  11.372  12.670
20250SOL    HW262584   7.807  11.480  12.770
20251SOL     OW62585   2.385   7.809   6.798
20251SOL    HW162586   2.434   7.891   6.800
20251SOL    HW262587   2.331   7.816   6.719
20252SOL     OW62588   7.835  10.322   3.518
20252SOL    HW162589   7.833  10.229   3.496
20252SOL    HW262590   7.913  10.356   3.475
20253SOL     OW62591   1.258   0.634   4.386
20253SOL    HW162592   1.295   0.701   4.445
20253SOL    HW262593   1.168   0.623   4.417
20254SOL     OW62594   4.514   8.513  12.765
20254SOL    HW162595   4.433   8.555  12.737
20254SOL    HW262596   4.490   8.421  12.778
20255SOL     OW62597   3.931   7.151   9.255
20255SOL    HW162598   3.858   7.213   9.261
20255SOL    HW262599   3.951   7.146   9.161
20256SOL     OW62600   9.808  11.170   1.392
20256SOL    HW162601   9.746  11.127   1.452
20256SOL    HW262602   9.859  11.229   1.449
20257SOL     OW62603  12.097  11.834   8.862
20257SOL    HW162604  12.092  11.773   8.789
20257SOL    HW262605  12.029  11.804   8.923
20258SOL     OW62606   2.269   5.075   9.799
20258SOL    HW162607   2.334   5.016   9.760
20258SOL    HW262608   2.187   5.027   9.794
20259SOL     OW62609   2.505   4.671   1.797
20259SOL    HW162610   2.541   4.617   1.728
20259SOL    HW262611   2.573   4.737   1.814
20260SOL     OW62612   6.326   6.778   4.544
20260SOL    HW162613   6.351   6.725   4.619
20260SOL    HW262614   6.305   6.864   4.582
20261SOL     OW62615  12.128   8.622   3.529
20261SOL    HW162616  12.204   8.681   3.530
20261SOL    HW262617  12.131   8.578   3.614
20262SOL     OW62618   9.072   1.711   5.175
20262SOL    HW162619   9.167   1.710   5.161
20262SOL    HW262620   9.061   1.760   5.256
20263SOL     OW62621   5.383   6.229   8.670
20263SOL    HW162622   5.395   6.152   8.614
20263SOL    HW262623   5.369   6.301   8.609
20264SOL     OW62624   4.635  13.050  10.876
20264SOL    HW162625   4.552  13.094  10.895
20264SOL    HW262626   4.615  12.992  10.803
20265SOL     OW62627   3.315   5.976   9.274
20265SOL    HW162628   3.394   5.985   9.328
20265SOL    HW262629   3.245   5.959   9.337
20266SOL     OW62630  11.787  10.455   7.675
20266SOL    HW162631  11.796  10.375   7.727
20266SOL    HW262632  11.734  10.429   7.599
20267SOL     OW62633   0.695   7.653   8.490
20267SOL    HW162634   0.739   7.574   8.524
20267SOL    HW262635   0.698   7.715   8.563
20268SOL     OW62636  11.698   5.244   1.309
20268SOL    HW162637  11.692   5.162   1.261
20268SOL    HW262638  11.749   5.302   1.252
20269SOL     OW62639   5.562   2.188  12.884
20269SOL    HW162640   5.521   2.268  12.850
20269SOL    HW262641   5.594   2.142  12.807
20270SOL     OW62642  13.194   5.934   1.847
20270SOL    HW162643  13.139   6.000   1.889
20270SOL    HW262644  13.136   5.891   1.784
20271SOL     OW62645   8.502  10.578   9.787
20271SOL    HW162646   8.510  10.594   9.881
20271SOL    HW262647   8.450  10.498   9.781
20272SOL     OW62648  13.859   9.717   0.869
20272SOL    HW162649  13.925   9.778   0.900
20272SOL    HW262650  13.778   9.767   0.868
20273SOL     OW62651  14.744  14.072   6.389
20273SOL    HW162652  14.684  14.123   6.444
20273SOL    HW262653  14.813  14.134   6.365
20274SOL     OW62654   5.272   6.064  14.687
20274SOL    HW162655   5.311   6.143  14.724
20274SOL    HW262656   5.295   5.994  14.749
20275SOL     OW62657   4.501   2.984   4.378
20275SOL    HW162658   4.435   2.951   4.317
20275SOL    HW262659   4.504   3.079   4.361
20276SOL     OW62660   5.791   5.755  13.496
20276SOL    HW162661   5.860   5.735  13.433
20276SOL    HW262662   5.800   5.688  13.564
20277SOL     OW62663  11.327  14.853   1.272
20277SOL    HW162664  11.390   0.005   1.340
20277SOL    HW262665  11.365   0.016   1.191
20278SOL     OW62666   9.718   6.740   3.836
20278SOL    HW162667   9.691   6.690   3.913
20278SOL    HW262668   9.705   6.680   3.762
20279SOL     OW62669   8.300   5.588   2.013
20279SOL    HW162670   8.243   5.643   1.959
20279SOL    HW262671   8.262   5.501   2.006
20280SOL     OW62672   8.488   2.573   4.820
20280SOL    HW162673   8.449   2.574   4.907
20280SOL    HW262674   8.495   2.480   4.798
20281SOL     OW62675   6.178  14.060  10.879
20281SOL    HW162676   6.154  13.977  10.838
20281SOL    HW262677   6.263  14.043  10.918
20282SOL     OW62678  13.582   8.130   4.479
20282SOL    HW162679  13.611   8.040   4.498
20282SOL    HW262680  13.663   8.177   4.460
20283SOL     OW62681   8.366   6.510  14.045
20283SOL    HW162682   8.434   6.503  14.112
20283SOL    HW262683   8.405   6.563  13.976
20284SOL     OW62684  14.044  12.645   4.890
20284SOL    HW162685  13.955  12.657   4.856
20284SOL    HW262686  14.035  12.581   4.961
20285SOL     OW62687   4.198   0.801  13.689
20285SOL    HW162688   4.141   0.854  13.745
20285SOL    HW262689   4.283   0.802  13.734
20286SOL     OW62690   6.538   5.354  11.463
20286SOL    HW162691   6.454   5.379  11.425
20286SOL    HW262692   6.568   5.281  11.409
20287SOL     OW62693   4.238   5.808  10.767
20287SOL    HW162694   4.184   5.831  10.691
20287SOL    HW262695   4.239   5.887  10.820
20288SOL     OW62696   7.859  12.044   6.389
20288SOL    HW162697   7.766  12.068   6.379
20288SOL    HW262698   7.905  12.099   6.325
20289SOL     OW62699   6.095   8.699  10.853
20289SOL    HW162700   6.185   8.700  10.884
20289SOL    HW262701   6.087   8.778  10.798
20290SOL     OW62702   6.003   3.461  10.241
20290SOL    HW162703   6.044   3.375  10.251
20290SOL    HW262704   6.066   3.522  10.278
20291SOL     OW62705   0.275   7.191  12.411
20291SOL    HW162706   0.284   7.191  12.316
20291SOL    HW262707   0.297   7.102  12.437
20292SOL     OW62708  13.427  11.571   3.956
20292SOL    HW162709  13.348  11.617   3.927
20292SOL    HW262710  13.465  11.536   3.875
20293SOL     OW62711   5.169  12.301  13.142
20293SOL    HW162712   5.146  12.373  13.202
20293SOL    HW262713   5.264  12.300  13.142
20294SOL     OW62714   0.487   5.511   6.842
20294SOL    HW162715   0.427   5.487   6.913
20294SOL    HW262716   0.559   5.557   6.886
20295SOL     OW62717   8.523   5.217   8.924
20295SOL    HW162718   8.547   5.182   9.010
20295SOL    HW262719   8.481   5.144   8.879
20296SOL     OW62720   7.249  14.141   3.829
20296SOL    HW162721   7.182  14.138   3.897
20296SOL    HW262722   7.209  14.189   3.758
20297SOL     OW62723   3.029   7.947   8.195
20297SOL    HW162724   3.108   7.959   8.142
20297SOL    HW262725   3.003   7.857   8.179
20298SOL     OW62726  13.726  13.773   4.457
20298SOL    HW162727  13.703  13.833   4.529
20298SOL    HW262728  13.799  13.816   4.412
20299SOL     OW62729   3.817   5.207   9.895
20299SOL    HW162730   3.863   5.122   9.894
20299SOL    HW262731   3.835   5.245   9.809
20300SOL     OW62732  12.171   6.901   8.774
20300SOL    HW162733  12.135   6.989   8.759
20300SOL    HW262734  12.124   6.869   8.851
20301SOL     OW62735  10.292   5.614  13.221
20301SOL    HW162736  10.296   5.520  13.204
20301SOL    HW262737  10.207   5.627  13.264
20302SOL     OW62738   0.081   8.365  11.132
20302SOL    HW162739   0.136   8.295  11.095
20302SOL    HW262740   0.008   8.372  11.071
20303SOL     OW62741   5.714  11.362   1.812
20303SOL    HW162742   5.663  11.430   1.768
20303SOL    HW262743   5.648  11.307   1.855
20304SOL     OW62744   7.421  11.307   5.451
20304SOL    HW162745   7.425  11.403   5.446
20304SOL    HW262746   7.400  11.279   5.362
20305SOL     OW62747   8.208   4.532   5.639
20305SOL    HW162748   8.264   4.578   5.576
20305SOL    HW262749   8.186   4.450   5.596
20306SOL     OW62750   6.467   6.162  11.144
20306SOL    HW162751   6.550   6.207  11.128
20306SOL    HW262752   6.401   6.215  11.099
20307SOL     OW62753   4.224  11.932  13.876
20307SOL    HW162754   4.317  11.942  13.853
20307SOL    HW262755   4.213  11.837  13.887
20308SOL     OW62756   9.442   3.504   8.706
20308SOL    HW162757   9.519   3.515   8.649
20308SOL    HW262758   9.477   3.511   8.795
20309SOL     OW62759   0.729  13.552   9.182
20309SOL    HW162760   0.642  13.534   9.146
20309SOL    HW262761   0.730  13.507   9.266
20310SOL     OW62762   0.908   7.956  10.689
20310SOL    HW162763   0.867   7.872  10.670
20310SOL    HW262764   0.843   8.004  10.740
20311SOL     OW62765  11.946   9.876  12.762
20311SOL    HW162766  11.888   9.803  12.784
20311SOL    HW262767  11.926   9.942  12.828
20312SOL     OW62768  10.936   3.749   4.047
20312SOL    HW162769  10.856   3.715   4.087
20312SOL    HW262770  10.909   3.775   3.958
20313SOL     OW62771   8.861   2.418  14.448
20313SOL    HW162772   8.815   2.406  14.365
20313SOL    HW262773   8.890   2.330  14.472
20314SOL     OW62774  10.274   3.153  12.596
20314SOL    HW162775  10.293   3.070  12.552
20314SOL    HW262776  10.301   3.140  12.687
20315SOL     OW62777  13.889   6.326   4.117
20315SOL    HW162778  13.850   6.374   4.044
20315SOL    HW262779  13.817   6.312   4.179
20316SOL     OW62780   3.067   5.670   6.271
20316SOL    HW162781   3.010   5.593   6.282
20316SOL    HW262782   3.150   5.634   6.239
20317SOL     OW62783  13.177  12.292   1.276
20317SOL    HW162784  13.201  12.211   1.231
20317SOL    HW262785  13.098  12.271   1.325
20318SOL     OW62786   3.376   4.746  10.534
20318SOL    HW162787   3.362   4.836  10.504
20318SOL    HW262788   3.412   4.755  10.622
20319SOL     OW62789   9.711  10.555   7.708
20319SOL    HW162790   9.686  10.474   7.753
20319SOL    HW262791   9.661  10.553   7.626
20320SOL     OW62792   2.701   7.695   1.389
20320SOL    HW162793   2.692   7.765   1.324
20320SOL    HW262794   2.620   7.700   1.441
20321SOL     OW62795   1.006   8.750   8.092
20321SOL    HW162796   1.057   8.784   8.165
20321SOL    HW262797   1.045   8.790   8.014
20322SOL     OW62798   2.299  10.846  10.454
20322SOL    HW162799   2.319  10.803  10.538
20322SOL    HW262800   2.286  10.774  10.393
20323SOL     OW62801  11.380  13.198   8.174
20323SOL    HW162802  11.337  13.284   8.169
20323SOL    HW262803  11.415  13.184   8.086
20324SOL     OW62804   2.883   1.780   3.803
20324SOL    HW162805   2.967   1.737   3.787
20324SOL    HW262806   2.846   1.794   3.715
20325SOL     OW62807  10.212   0.642   5.192
20325SOL    HW162808  10.252   0.572   5.243
20325SOL    HW262809  10.180   0.705   5.257
20326SOL     OW62810  10.786   5.710   1.461
20326SOL    HW162811  10.810   5.617   1.465
20326SOL    HW262812  10.869   5.756   1.459
20327SOL     OW62813   6.718   7.583   0.872
20327SOL    HW162814   6.793   7.630   0.834
20327SOL    HW262815   6.729   7.493   0.842
20328SOL     OW62816   9.440   6.951   7.280
20328SOL    HW162817   9.469   7.024   7.334
20328SOL    HW262818   9.480   6.874   7.321
20329SOL     OW62819  14.138  13.005   2.378
20329SOL    HW162820  14.113  12.914   2.390
20329SOL    HW262821  14.169  13.010   2.288
20330SOL     OW62822   0.875   2.779   7.618
20330SOL    HW162823   0.948   2.718   7.627
20330SOL    HW262824   0.799   2.732   7.653
20331SOL     OW62825  11.616  13.872   9.254
20331SOL    HW162826  11.549  13.866   9.187
20331SOL    HW262827  11.698  13.854   9.208
20332SOL     OW62828   5.915   2.422  12.930
20332SOL    HW162829   5.830   2.437  12.888
20332SOL    HW262830   5.967   2.498  12.906
20333SOL     OW62831   1.537   4.156   2.917
20333SOL    HW162832   1.480   4.232   2.934
20333SOL    HW262833   1.571   4.172   2.829
20334SOL     OW62834  12.826   4.828   8.255
20334SOL    HW162835  12.758   4.876   8.303
20334SOL    HW262836  12.875   4.895   8.208
20335SOL     OW62837   8.440   4.850  12.308
20335SOL    HW162838   8.371   4.904  12.346
20335SOL    HW262839   8.417   4.760  12.332
20336SOL     OW62840  11.020   3.931   0.737
20336SOL    HW162841  11.005   3.856   0.795
20336SOL    HW262842  10.941   3.936   0.683
20337SOL     OW62843   0.964   4.808  12.453
20337SOL    HW162844   0.935   4.851  12.373
20337SOL    HW262845   1.051   4.775  12.432
20338SOL     OW62846  13.093  12.779  11.026
20338SOL    HW162847  13.104  12.790  11.121
20338SOL    HW262848  13.003  12.808  11.010
20339SOL     OW62849   4.527  13.512   1.506
20339SOL    HW162850   4.475  13.542   1.432
20339SOL    HW262851   4.483  13.432   1.535
20340SOL     OW62852  13.993   2.523   3.049
20340SOL    HW162853  13.937   2.563   3.115
20340SOL    HW262854  13.935   2.469   2.996
20341SOL     OW62855   9.336   6.333  10.563
20341SOL    HW162856   9.411   6.282  10.534
20341SOL    HW262857   9.305   6.288  10.642
20342SOL     OW62858  10.915   9.264   7.195
20342SOL    HW162859  10.884   9.289   7.282
20342SOL    HW262860  10.859   9.314   7.135
20343SOL     OW62861   3.435   9.841   9.517
20343SOL    HW162862   3.510   9.799   9.476
20343SOL    HW262863   3.408   9.909   9.455
20344SOL     OW62864  11.485  14.000   8.809
20344SOL    HW162865  11.527  13.999   8.723
20344SOL    HW262866  11.507  14.087   8.845
20345SOL     OW62867   5.900   4.619   7.090
20345SOL    HW162868   5.936   4.600   7.004
20345SOL    HW262869   5.904   4.714   7.098
20346SOL     OW62870  14.391   1.079   2.966
20346SOL    HW162871  14.339   1.050   3.041
20346SOL    HW262872  14.435   1.000   2.935
20347SOL     OW62873   9.785  10.798   7.426
20347SOL    HW162874   9.789  10.703   7.438
20347SOL    HW262875   9.692  10.818   7.419
20348SOL     OW62876   7.279   2.144   7.267
20348SOL    HW162877   7.371   2.117   7.254
20348SOL    HW262878   7.261   2.121   7.358
20349SOL     OW62879  12.261   6.333   4.056
20349SOL    HW162880  12.173   6.326   4.093
20349SOL    HW262881  12.319   6.302   4.125
20350SOL     OW62882   3.727   2.956  12.738
20350SOL    HW162883   3.735   2.970  12.644
20350SOL    HW262884   3.794   3.012  12.777
20351SOL     OW62885   1.052  14.472   9.413
20351SOL    HW162886   1.045  14.379   9.388
20351SOL    HW262887   0.963  14.505   9.406
20352SOL     OW62888   2.860   6.092   9.901
20352SOL    HW162889   2.933   6.032   9.884
20352SOL    HW262890   2.845   6.136   9.817
20353SOL     OW62891  10.801  10.140   8.701
20353SOL    HW162892  10.835  10.066   8.751
20353SOL    HW262893  10.871  10.163   8.640
20354SOL     OW62894  14.792   7.590   5.022
20354SOL    HW162895   0.009   7.561   5.038
20354SOL    HW262896  14.762   7.623   5.106
20355SOL     OW62897  10.268   6.971   2.729
20355SOL    HW162898  10.356   7.008   2.733
20355SOL    HW262899  10.232   7.004   2.646
20356SOL     OW62900  13.351   9.560   0.380
20356SOL    HW162901  13.406   9.636   0.365
20356SOL    HW262902  13.328   9.528   0.292
20357SOL     OW62903   1.317   2.219   0.865
20357SOL    HW162904   1.360   2.136   0.846
20357SOL    HW262905   1.242   2.222   0.806
20358SOL     OW62906  11.247   4.206   5.255
20358SOL    HW162907  11.167   4.258   5.249
20358SOL    HW262908  11.224   4.131   5.309
20359SOL     OW62909   2.496  12.118   6.256
20359SOL    HW162910   2.588  12.140   6.274
20359SOL    HW262911   2.490  12.024   6.270
20360SOL     OW62912  11.459  13.884   0.137
20360SOL    HW162913  11.517  13.923   0.203
20360SOL    HW262914  11.519  13.835   0.080
20361SOL     OW62915   1.076  14.492   2.610
20361SOL    HW162916   1.018  14.420   2.635
20361SOL    HW262917   1.084  14.483   2.515
20362SOL     OW62918  13.093   9.199   2.704
20362SOL    HW162919  13.187   9.193   2.720
20362SOL    HW262920  13.075   9.292   2.695
20363SOL     OW62921  10.508   8.744  10.709
20363SOL    HW162922  10.517   8.759  10.803
20363SOL    HW262923  10.537   8.654  10.696
20364SOL     OW62924  11.408  11.854   3.110
20364SOL    HW162925  11.422  11.949   3.105
20364SOL    HW262926  11.324  11.845   3.155
20365SOL     OW62927  10.240   3.475  13.472
20365SOL    HW162928  10.149   3.458  13.496
20365SOL    HW262929  10.237   3.556  13.422
20366SOL     OW62930   3.732   8.287   7.721
20366SOL    HW162931   3.657   8.264   7.667
20366SOL    HW262932   3.790   8.211   7.716
20367SOL     OW62933   5.715   7.047   1.105
20367SOL    HW162934   5.655   7.118   1.127
20367SOL    HW262935   5.680   7.009   1.025
20368SOL     OW62936   9.204   3.761   9.580
20368SOL    HW162937   9.273   3.747   9.515
20368SOL    HW262938   9.203   3.855   9.595
20369SOL     OW62939  10.794  14.144  10.919
20369SOL    HW162940  10.812  14.219  10.862
20369SOL    HW262941  10.739  14.180  10.988
20370SOL     OW62942  14.177  13.811  10.355
20370SOL    HW162943  14.119  13.843  10.425
20370SOL    HW262944  14.118  13.788  10.284
20371SOL     OW62945  12.144   8.354  13.926
20371SOL    HW162946  12.137   8.372  14.019
20371SOL    HW262947  12.108   8.432  13.884
20372SOL     OW62948   2.205   9.994  14.276
20372SOL    HW162949   2.218   9.899  14.279
20372SOL    HW262950   2.124  10.005  14.225
20373SOL     OW62951   4.052   4.744  14.489
20373SOL    HW162952   4.137   4.737  14.534
20373SOL    HW262953   4.015   4.826  14.521
20374SOL     OW62954   1.415   6.138   5.244
20374SOL    HW162955   1.327   6.139   5.281
20374SOL    HW262956   1.416   6.059   5.189
20375SOL     OW62957  12.862   3.176   1.311
20375SOL    HW162958  12.833   3.168   1.220
20375SOL    HW262959  12.800   3.238   1.350
20376SOL     OW62960   8.972  11.028   5.929
20376SOL    HW162961   9.014  11.043   6.013
20376SOL    HW262962   9.013  11.091   5.870
20377SOL     OW62963   7.590   1.315  11.842
20377SOL    HW162964   7.664   1.353  11.794
20377SOL    HW262965   7.523   1.301  11.775
20378SOL     OW62966   2.939   6.148  11.963
20378SOL    HW162967   2.867   6.123  11.905
20378SOL    HW262968   3.001   6.075  11.957
20379SOL     OW62969  13.095   7.378  14.589
20379SOL    HW162970  13.156   7.409  14.656
20379SOL    HW262971  13.106   7.283  14.590
20380SOL     OW62972   0.638   5.465  11.629
20380SOL    HW162973   0.579   5.486  11.701
20380SOL    HW262974   0.693   5.543  11.620
20381SOL     OW62975   5.318  10.437   2.478
20381SOL    HW162976   5.388  10.423   2.541
20381SOL    HW262977   5.245  10.471   2.530
20382SOL     OW62978   4.199   7.934   9.428
20382SOL    HW162979   4.175   7.841   9.430
20382SOL    HW262980   4.272   7.938   9.366
20383SOL     OW62981   6.423   7.033   9.288
20383SOL    HW162982   6.514   7.061   9.300
20383SOL    HW262983   6.385   7.100   9.230
20384SOL     OW62984   1.888  10.274  10.967
20384SOL    HW162985   1.922  10.204  11.022
20384SOL    HW262986   1.925  10.257  10.880
20385SOL     OW62987   7.685  12.307   4.413
20385SOL    HW162988   7.658  12.251   4.340
20385SOL    HW262989   7.746  12.253   4.463
20386SOL     OW62990   3.224  13.366   1.144
20386SOL    HW162991   3.142  13.325   1.117
20386SOL    HW262992   3.257  13.408   1.066
20387SOL     OW62993  14.734   9.678   7.383
20387SOL    HW162994  14.667   9.691   7.316
20387SOL    HW262995  14.713   9.743   7.451
20388SOL     OW62996  12.645   3.702   3.467
20388SOL    HW162997  12.629   3.793   3.492
20388SOL    HW262998  12.569   3.654   3.501
20389SOL     OW62999   0.780   7.310  12.865
20389SOL    HW163000   0.838   7.385  12.876
20389SOL    HW263001   0.704   7.345  12.818
20390SOL     OW63002   4.430   8.884  13.378
20390SOL    HW163003   4.376   8.827  13.322
20390SOL    HW263004   4.517   8.845  13.375
20391SOL     OW63005   0.081   1.650   7.288
20391SOL    HW163006   0.000   1.678   7.246
20391SOL    HW263007   0.127   1.599   7.221
20392SOL     OW63008  10.310   9.948  11.771
20392SOL    HW163009  10.341   9.887  11.838
20392SOL    HW263010  10.359  10.028  11.787
20393SOL     OW63011   1.787   2.272  10.052
20393SOL    HW163012   1.719   2.214  10.086
20393SOL    HW263013   1.808   2.237   9.966
20394SOL     OW63014  11.075  13.410   0.084
20394SOL    HW163015  11.151  13.353   0.097
20394SOL    HW263016  11.020  13.363   0.022
20395SOL     OW63017   2.708  12.355   7.385
20395SOL    HW163018   2.662  12.427   7.429
20395SOL    HW263019   2.641  12.288   7.373
20396SOL     OW63020   3.085  11.837   6.144
20396SOL    HW163021   3.031  11.814   6.068
20396SOL    HW263022   3.172  11.802   6.124
20397SOL     OW63023   5.917   6.755   4.069
20397SOL    HW163024   5.840   6.772   4.014
20397SOL    HW263025   5.917   6.827   4.132
20398SOL     OW63026   5.507   2.717   6.974
20398SOL    HW163027   5.453   2.756   6.905
20398SOL    HW263028   5.595   2.749   6.956
20399SOL     OW63029   9.939  11.828   3.778
20399SOL    HW163030   9.972  11.842   3.689
20399SOL    HW263031   9.847  11.806   3.766
20400SOL     OW63032   1.738   0.130  10.545
20400SOL    HW163033   1.693   0.110  10.463
20400SOL    HW263034   1.827   0.096  10.533
20401SOL     OW63035   8.373   9.428  10.235
20401SOL    HW163036   8.373   9.523  10.229
20401SOL    HW263037   8.366   9.398  10.144
20402SOL     OW63038   1.246  14.203  12.646
20402SOL    HW163039   1.309  14.191  12.717
20402SOL    HW263040   1.190  14.275  12.676
20403SOL     OW63041   4.952   9.817   6.528
20403SOL    HW163042   5.005   9.740   6.509
20403SOL    HW263043   4.866   9.782   6.550
20404SOL     OW63044  12.866   2.006   9.228
20404SOL    HW163045  12.924   1.944   9.184
20404SOL    HW263046  12.781   1.994   9.185
20405SOL     OW63047   7.784   9.925   4.546
20405SOL    HW163048   7.790   9.968   4.630
20405SOL    HW263049   7.819   9.837   4.561
20406SOL     OW63050   4.906   0.156  12.632
20406SOL    HW163051   4.994   0.189  12.615
20406SOL    HW263052   4.920   0.073  12.677
20407SOL     OW63053   8.597   0.437  14.137
20407SOL    HW163054   8.658   0.431  14.063
20407SOL    HW263055   8.581   0.346  14.163
20408SOL     OW63056  11.171   0.740   7.984
20408SOL    HW163057  11.207   0.809   8.040
20408SOL    HW263058  11.143   0.672   8.045
20409SOL     OW63059   2.129   0.765  13.446
20409SOL    HW163060   2.113   0.755  13.539
20409SOL    HW263061   2.055   0.721  13.404
20410SOL     OW63062  13.088   3.698  14.255
20410SOL    HW163063  13.025   3.748  14.203
20410SOL    HW263064  13.130   3.639  14.192
20411SOL     OW63065   8.098   2.764   7.739
20411SOL    HW163066   8.038   2.715   7.683
20411SOL    HW263067   8.073   2.740   7.828
20412SOL     OW63068   5.345  11.144   8.677
20412SOL    HW163069   5.437  11.139   8.701
20412SOL    HW263070   5.312  11.055   8.688
20413SOL     OW63071  14.351  14.815   5.493
20413SOL    HW163072  14.406   0.021   5.500
20413SOL    HW263073  14.386  14.756   5.559
20414SOL     OW63074   4.220   2.405   7.749
20414SOL    HW163075   4.222   2.405   7.653
20414SOL    HW263076   4.312   2.407   7.775
20415SOL     OW63077  12.369   8.797   4.057
20415SOL    HW163078  12.396   8.862   4.122
20415SOL    HW263079  12.449   8.748   4.038
20416SOL     OW63080  14.270   4.259   8.873
20416SOL    HW163081  14.296   4.350   8.855
20416SOL    HW263082  14.304   4.209   8.799
20417SOL     OW63083   3.772   2.434   9.013
20417SOL    HW163084   3.853   2.390   9.039
20417SOL    HW263085   3.790   2.466   8.925
20418SOL     OW63086   5.363  11.075   0.318
20418SOL    HW163087   5.271  11.053   0.306
20418SOL    HW263088   5.375  11.156   0.267
20419SOL     OW63089  10.061   6.550   9.774
20419SOL    HW163090  10.020   6.463   9.773
20419SOL    HW263091  10.149   6.534   9.807
20420SOL     OW63092  14.096   0.960  12.211
20420SOL    HW163093  14.071   0.871  12.233
20420SOL    HW263094  14.014   1.003  12.186
20421SOL     OW63095   9.915   0.487  12.124
20421SOL    HW163096   9.861   0.438  12.187
20421SOL    HW263097   9.871   0.571  12.115
20422SOL     OW63098   0.648  11.184   5.432
20422SOL    HW163099   0.706  11.167   5.358
20422SOL    HW263100   0.670  11.116   5.497
20423SOL     OW63101  13.027   8.300   3.558
20423SOL    HW163102  12.965   8.329   3.491
20423SOL    HW263103  13.006   8.208   3.572
20424SOL     OW63104   8.136  12.353   1.792
20424SOL    HW163105   8.111  12.402   1.714
20424SOL    HW263106   8.207  12.296   1.762
20425SOL     OW63107  14.195   1.553   3.465
20425SOL    HW163108  14.152   1.501   3.532
20425SOL    HW263109  14.215   1.490   3.395
20426SOL     OW63110  12.214   0.131   0.884
20426SOL    HW163111  12.131   0.084   0.875
20426SOL    HW263112  12.279   0.062   0.899
20427SOL     OW63113   3.806   7.511  14.076
20427SOL    HW163114   3.723   7.480  14.111
20427SOL    HW263115   3.853   7.548  14.151
20428SOL     OW63116  11.205   2.206   7.023
20428SOL    HW163117  11.250   2.165   7.097
20428SOL    HW263118  11.162   2.134   6.978
20429SOL     OW63119   4.355   0.179  12.671
20429SOL    HW163120   4.340   0.094  12.630
20429SOL    HW263121   4.273   0.226  12.659
20430SOL     OW63122  11.070  10.589   0.449
20430SOL    HW163123  11.130  10.516   0.462
20430SOL    HW263124  11.128  10.665   0.434
20431SOL     OW63125   3.523   4.186  10.918
20431SOL    HW163126   3.527   4.199  10.823
20431SOL    HW263127   3.568   4.103  10.932
20432SOL     OW63128   3.795  13.130  12.665
20432SOL    HW163129   3.760  13.176  12.588
20432SOL    HW263130   3.719  13.118  12.722
20433SOL     OW63131  12.778   5.291   8.039
20433SOL    HW163132  12.800   5.199   8.026
20433SOL    HW263133  12.683   5.295   8.023
20434SOL     OW63134   8.419   1.541  11.927
20434SOL    HW163135   8.378   1.599  11.862
20434SOL    HW263136   8.383   1.570  12.011
20435SOL     OW63137  13.794   4.818  14.778
20435SOL    HW163138  13.765   4.779  14.695
20435SOL    HW263139  13.722   4.876  14.803
20436SOL     OW63140   8.662   7.023   4.179
20436SOL    HW163141   8.600   7.005   4.250
20436SOL    HW263142   8.686   7.114   4.191
20437SOL     OW63143  12.464   7.775   7.419
20437SOL    HW163144  12.479   7.776   7.514
20437SOL    HW263145  12.544   7.739   7.382
20438SOL     OW63146   7.111   2.117   3.819
20438SOL    HW163147   7.127   2.041   3.876
20438SOL    HW263148   7.174   2.183   3.849
20439SOL     OW63149   6.870   4.535   8.729
20439SOL    HW163150   6.842   4.467   8.791
20439SOL    HW263151   6.951   4.569   8.766
20440SOL     OW63152   6.553   4.000   6.454
20440SOL    HW163153   6.569   4.095   6.459
20440SOL    HW263154   6.491   3.982   6.524
20441SOL     OW63155   1.695   8.012   9.311
20441SOL    HW163156   1.719   7.923   9.337
20441SOL    HW263157   1.599   8.012   9.314
20442SOL     OW63158   2.014   2.933   1.608
20442SOL    HW163159   2.044   2.875   1.538
20442SOL    HW263160   2.041   2.890   1.689
20443SOL     OW63161  12.155   8.991   2.622
20443SOL    HW163162  12.121   8.931   2.556
20443SOL    HW263163  12.237   8.952   2.652
20444SOL     OW63164   4.790   2.086   8.497
20444SOL    HW163165   4.874   2.042   8.500
20444SOL    HW263166   4.734   2.036   8.557
20445SOL     OW63167   4.424   5.429  14.728
20445SOL    HW163168   4.347   5.376  14.708
20445SOL    HW263169   4.393   5.519  14.726
20446SOL     OW63170  11.253   0.765   5.705
20446SOL    HW163171  11.271   0.859   5.700
20446SOL    HW263172  11.231   0.749   5.796
20447SOL     OW63173  13.114   9.358   7.002
20447SOL    HW163174  13.078   9.282   7.046
20447SOL    HW263175  13.168   9.401   7.068
20448SOL     OW63176  13.641  10.840  12.030
20448SOL    HW163177  13.550  10.828  12.003
20448SOL    HW263178  13.689  10.775  11.979
20449SOL     OW63179   3.000   9.173   1.005
20449SOL    HW163180   2.921   9.218   0.975
20449SOL    HW263181   3.064   9.189   0.936
20450SOL     OW63182   5.648   5.296   7.384
20450SOL    HW163183   5.595   5.219   7.404
20450SOL    HW263184   5.598   5.370   7.418
20451SOL     OW63185   4.593  13.555   2.189
20451SOL    HW163186   4.655  13.488   2.219
20451SOL    HW263187   4.612  13.631   2.243
20452SOL     OW63188   4.080   8.282   9.881
20452SOL    HW163189   4.036   8.353   9.928
20452SOL    HW263190   4.151   8.325   9.833
20453SOL     OW63191   0.649   6.801   5.082
20453SOL    HW163192   0.645   6.732   5.016
20453SOL    HW263193   0.558   6.825   5.098
20454SOL     OW63194  11.967   2.218  12.986
20454SOL    HW163195  12.032   2.273  13.030
20454SOL    HW263196  12.009   2.195  12.903
20455SOL     OW63197  13.672  12.323  10.214
20455SOL    HW163198  13.742  12.266  10.246
20455SOL    HW263199  13.718  12.389  10.161
20456SOL     OW63200  12.397   2.870  11.247
20456SOL    HW163201  12.317   2.921  11.257
20456SOL    HW263202  12.423   2.849  11.337
20457SOL     OW63203   0.788   6.566  12.272
20457SOL    HW163204   0.747   6.548  12.187
20457SOL    HW263205   0.866   6.509  12.273
20458SOL     OW63206   3.106   1.091   6.529
20458SOL    HW163207   3.182   1.147   6.545
20458SOL    HW263208   3.106   1.030   6.603
20459SOL     OW63209   1.155   7.104   0.595
20459SOL    HW163210   1.146   7.176   0.658
20459SOL    HW263211   1.164   7.026   0.649
20460SOL     OW63212   2.243   9.996  13.478
20460SOL    HW163213   2.181  10.007  13.549
20460SOL    HW263214   2.313   9.942  13.515
20461SOL     OW63215  14.351  10.082   1.463
20461SOL    HW163216  14.395  10.026   1.399
20461SOL    HW263217  14.285  10.025   1.504
20462SOL     OW63218  10.886  10.560   0.741
20462SOL    HW163219  10.961  10.502   0.747
20462SOL    HW263220  10.916  10.643   0.778
20463SOL     OW63221  14.658  13.506   0.979
20463SOL    HW163222  14.680  13.439   0.915
20463SOL    HW263223  14.675  13.465   1.064
20464SOL     OW63224   7.270   4.442   6.425
20464SOL    HW163225   7.225   4.451   6.340
20464SOL    HW263226   7.355   4.403   6.403
20465SOL     OW63227   4.121   1.568   3.774
20465SOL    HW163228   4.102   1.581   3.867
20465SOL    HW263229   4.123   1.656   3.737
20466SOL     OW63230  14.032   9.929   7.559
20466SOL    HW163231  13.988   9.846   7.540
20466SOL    HW263232  13.972   9.976   7.617
20467SOL     OW63233   4.466  11.014   3.119
20467SOL    HW163234   4.527  11.012   3.193
20467SOL    HW263235   4.383  10.981   3.155
20468SOL     OW63236  12.292   8.631   6.049
20468SOL    HW163237  12.254   8.672   5.972
20468SOL    HW263238  12.233   8.655   6.121
20469SOL     OW63239  14.508   7.682   4.668
20469SOL    HW163240  14.567   7.678   4.593
20469SOL    HW263241  14.562   7.716   4.739
20470SOL     OW63242  14.374  14.648   2.961
20470SOL    HW163243  14.345  14.648   3.052
20470SOL    HW263244  14.458  14.602   2.963
20471SOL     OW63245   4.573   4.058   0.964
20471SOL    HW163246   4.568   3.962   0.966
20471SOL    HW263247   4.485   4.087   0.984
20472SOL     OW63248  11.280   7.005   7.406
20472SOL    HW163249  11.354   7.065   7.420
20472SOL    HW263250  11.236   7.003   7.491
20473SOL     OW63251  13.991   0.023  10.739
20473SOL    HW163252  14.069   0.009  10.687
20473SOL    HW263253  13.970   0.116  10.727
20474SOL     OW63254   4.187   2.464  12.353
20474SOL    HW163255   4.099   2.500  12.362
20474SOL    HW263256   4.226   2.514  12.281
20475SOL     OW63257   1.733   0.147   7.281
20475SOL    HW163258   1.769   0.095   7.353
20475SOL    HW263259   1.743   0.238   7.310
20476SOL     OW63260   2.770   8.658  13.899
20476SOL    HW163261   2.806   8.637  13.812
20476SOL    HW263262   2.723   8.578  13.924
20477SOL     OW63263  10.031  13.231   8.842
20477SOL    HW163264   9.971  13.300   8.870
20477SOL    HW263265   9.995  13.200   8.759
20478SOL     OW63266  13.050   4.811   1.262
20478SOL    HW163267  13.108   4.762   1.320
20478SOL    HW263268  12.987   4.746   1.230
20479SOL     OW63269   1.453  12.793   5.922
20479SOL    HW163270   1.411  12.748   5.996
20479SOL    HW263271   1.494  12.722   5.872
20480SOL     OW63272  10.875   7.509  14.403
20480SOL    HW163273  10.835   7.538  14.322
20480SOL    HW263274  10.877   7.413  14.396
20481SOL     OW63275   5.783   9.929   9.276
20481SOL    HW163276   5.775   9.835   9.258
20481SOL    HW263277   5.721   9.944   9.347
20482SOL     OW63278   5.927   1.153  12.039
20482SOL    HW163279   5.882   1.068  12.045
20482SOL    HW263280   5.999   1.137  11.979
20483SOL     OW63281   0.865   6.101  11.795
20483SOL    HW163282   0.815   6.112  11.875
20483SOL    HW263283   0.886   6.190  11.767
20484SOL     OW63284  14.028  10.974  10.998
20484SOL    HW163285  13.949  10.974  11.052
20484SOL    HW263286  14.099  10.953  11.059
20485SOL     OW63287   2.551   0.039  13.906
20485SOL    HW163288   2.580  14.831  13.949
20485SOL    HW263289   2.546   0.016  13.813
20486SOL     OW63290  11.588   7.908   8.054
20486SOL    HW163291  11.657   7.945   7.998
20486SOL    HW263292  11.512   7.900   7.997
20487SOL     OW63293   4.475   6.853   4.387
20487SOL    HW163294   4.394   6.860   4.438
20487SOL    HW263295   4.496   6.759   4.389
20488SOL     OW63296   7.260  14.489   2.300
20488SOL    HW163297   7.302  14.547   2.236
20488SOL    HW263298   7.221  14.549   2.364
20489SOL     OW63299   5.552   3.187   1.226
20489SOL    HW163300   5.587   3.100   1.246
20489SOL    HW263301   5.457   3.179   1.239
20490SOL     OW63302   2.606   7.044   8.259
20490SOL    HW163303   2.608   7.129   8.304
20490SOL    HW263304   2.572   6.983   8.325
20491SOL     OW63305   3.059   3.226   2.417
20491SOL    HW163306   3.058   3.305   2.364
20491SOL    HW263307   3.067   3.155   2.354
20492SOL     OW63308   5.191   3.802   4.449
20492SOL    HW163309   5.168   3.821   4.540
20492SOL    HW263310   5.286   3.810   4.446
20493SOL     OW63311   8.291   3.819   4.623
20493SOL    HW163312   8.381   3.795   4.648
20493SOL    HW263313   8.240   3.741   4.644
20494SOL     OW63314  12.904  11.753   9.639
20494SOL    HW163315  12.931  11.674   9.686
20494SOL    HW263316  12.875  11.722   9.554
20495SOL     OW63317   3.113   9.207   8.643
20495SOL    HW163318   3.043   9.181   8.583
20495SOL    HW263319   3.097   9.155   8.722
20496SOL     OW63320   8.744   7.331   1.514
20496SOL    HW163321   8.666   7.387   1.519
20496SOL    HW263322   8.802   7.377   1.454
20497SOL     OW63323   2.097  12.225   9.268
20497SOL    HW163324   2.138  12.312   9.265
20497SOL    HW263325   2.147  12.177   9.333
20498SOL     OW63326   6.472   4.159  14.331
20498SOL    HW163327   6.506   4.213  14.403
20498SOL    HW263328   6.379   4.149  14.350
20499SOL     OW63329   9.788  10.654   3.591
20499SOL    HW163330   9.824  10.650   3.679
20499SOL    HW263331   9.780  10.748   3.573
20500SOL     OW63332   9.437  13.539   6.758
20500SOL    HW163333   9.347  13.547   6.725
20500SOL    HW263334   9.475  13.626   6.747
20501SOL     OW63335   5.999   0.381   2.030
20501SOL    HW163336   6.041   0.319   1.970
20501SOL    HW263337   5.954   0.443   1.972
20502SOL     OW63338  14.750   3.881  11.571
20502SOL    HW163339  14.707   3.837  11.645
20502SOL    HW263340  14.744   3.818  11.499
20503SOL     OW63341  13.507   2.140  10.273
20503SOL    HW163342  13.415   2.152  10.295
20503SOL    HW263343  13.549   2.223  10.297
20504SOL     OW63344  12.507   9.879  10.381
20504SOL    HW163345  12.556   9.870  10.463
20504SOL    HW263346  12.561   9.937  10.328
20505SOL     OW63347  10.585   4.203   2.114
20505SOL    HW163348  10.586   4.271   2.046
20505SOL    HW263349  10.543   4.245   2.189
20506SOL     OW63350  11.545  13.490  14.512
20506SOL    HW163351  11.561  13.423  14.446
20506SOL    HW263352  11.575  13.572  14.472
20507SOL     OW63353   6.423  14.657  10.027
20507SOL    HW163354   6.447  14.690  10.114
20507SOL    HW263355   6.345  14.603  10.043
20508SOL     OW63356  13.496   8.950   0.371
20508SOL    HW163357  13.449   8.886   0.317
20508SOL    HW263358  13.455   8.943   0.457
20509SOL     OW63359  11.761   4.857   5.494
20509SOL    HW163360  11.817   4.826   5.422
20509SOL    HW263361  11.822   4.897   5.556
20510SOL     OW63362   6.895   5.875   3.553
20510SOL    HW163363   6.941   5.837   3.478
20510SOL    HW263364   6.947   5.848   3.629
20511SOL     OW63365   4.996   0.635   2.494
20511SOL    HW163366   5.018   0.728   2.498
20511SOL    HW263367   4.910   0.628   2.535
20512SOL     OW63368  12.699  12.026  11.739
20512SOL    HW163369  12.618  11.985  11.709
20512SOL    HW263370  12.729  11.971  11.812
20513SOL     OW63371  10.359   6.307  13.539
20513SOL    HW163372  10.385   6.394  13.568
20513SOL    HW263373  10.272   6.293  13.577
20514SOL     OW63374   9.741   7.351   4.712
20514SOL    HW163375   9.702   7.336   4.798
20514SOL    HW263376   9.818   7.294   4.710
20515SOL     OW63377   9.053  12.790   7.171
20515SOL    HW163378   9.081  12.858   7.233
20515SOL    HW263379   8.970  12.759   7.206
20516SOL     OW63380   0.211   5.326   1.716
20516SOL    HW163381   0.261   5.317   1.636
20516SOL    HW263382   0.237   5.411   1.752
20517SOL     OW63383   6.779   3.063  12.841
20517SOL    HW163384   6.777   3.111  12.759
20517SOL    HW263385   6.870   3.032  12.849
20518SOL     OW63386   2.678  12.407   9.859
20518SOL    HW163387   2.604  12.394   9.800
20518SOL    HW263388   2.755  12.402   9.803
20519SOL     OW63389   1.186   4.980   6.536
20519SOL    HW163390   1.124   4.987   6.463
20519SOL    HW263391   1.239   5.059   6.529
20520SOL     OW63392   4.851   0.731  11.443
20520SOL    HW163393   4.768   0.777  11.454
20520SOL    HW263394   4.840   0.649  11.492
20521SOL     OW63395  12.276   6.889  10.981
20521SOL    HW163396  12.196   6.836  10.983
20521SOL    HW263397  12.344   6.828  10.950
20522SOL     OW63398  10.504   7.580   8.822
20522SOL    HW163399  10.553   7.636   8.762
20522SOL    HW263400  10.456   7.641   8.877
20523SOL     OW63401  13.390   9.826   6.881
20523SOL    HW163402  13.301   9.794   6.892
20523SOL    HW263403  13.442   9.776   6.943
20524SOL     OW63404  14.656   0.037   0.718
20524SOL    HW163405  14.681  14.831   0.765
20524SOL    HW263406  14.739   0.083   0.702
20525SOL     OW63407   0.843   7.381   9.601
20525SOL    HW163408   0.775   7.443   9.627
20525SOL    HW263409   0.894   7.428   9.535
20526SOL     OW63410  11.829   8.375   3.862
20526SOL    HW163411  11.914   8.331   3.864
20526SOL    HW263412  11.766   8.305   3.845
20527SOL     OW63413  14.787   0.115   7.605
20527SOL    HW163414  14.749   0.202   7.616
20527SOL    HW263415  14.823   0.116   7.516
20528SOL     OW63416  10.310   6.246   2.918
20528SOL    HW163417  10.271   6.333   2.924
20528SOL    HW263418  10.394   6.261   2.875
20529SOL     OW63419   4.133   0.288   6.731
20529SOL    HW163420   4.038   0.293   6.744
20529SOL    HW263421   4.159   0.207   6.775
20530SOL     OW63422  10.501  11.798  14.610
20530SOL    HW163423  10.414  11.768  14.634
20530SOL    HW263424  10.554  11.718  14.610
20531SOL     OW63425   5.000   8.073  14.246
20531SOL    HW163426   5.028   8.054  14.336
20531SOL    HW263427   4.918   8.024  14.235
20532SOL     OW63428  11.634   7.603  11.239
20532SOL    HW163429  11.631   7.695  11.213
20532SOL    HW263430  11.673   7.604  11.326
20533SOL     OW63431   3.929   7.166   6.885
20533SOL    HW163432   3.916   7.107   6.959
20533SOL    HW263433   3.964   7.111   6.815
20534SOL     OW63434   0.527   0.232   4.136
20534SOL    HW163435   0.488   0.247   4.050
20534SOL    HW263436   0.622   0.230   4.119
20535SOL     OW63437   7.989  11.397   5.287
20535SOL    HW163438   8.018  11.371   5.200
20535SOL    HW263439   7.895  11.379   5.288
20536SOL     OW63440   2.831  10.034   0.824
20536SOL    HW163441   2.765  10.096   0.855
20536SOL    HW263442   2.848   9.977   0.899
20537SOL     OW63443  11.501  11.312   6.019
20537SOL    HW163444  11.450  11.340   5.943
20537SOL    HW263445  11.518  11.219   6.003
20538SOL     OW63446  11.119   8.517  11.738
20538SOL    HW163447  11.127   8.474  11.824
20538SOL    HW263448  11.158   8.456  11.677
20539SOL     OW63449   8.003   9.747   9.616
20539SOL    HW163450   7.986   9.759   9.709
20539SOL    HW263451   7.966   9.661   9.595
20540SOL     OW63452   0.919   2.432   8.128
20540SOL    HW163453   0.930   2.337   8.118
20540SOL    HW263454   0.871   2.441   8.211
20541SOL     OW63455   7.681   3.383  14.214
20541SOL    HW163456   7.684   3.471  14.177
20541SOL    HW263457   7.593   3.351  14.192
20542SOL     OW63458   0.879   5.290  10.021
20542SOL    HW163459   0.873   5.319  10.113
20542SOL    HW263460   0.848   5.365   9.971
20543SOL     OW63461   8.688  12.639   9.075
20543SOL    HW163462   8.683  12.687   8.992
20543SOL    HW263463   8.724  12.554   9.051
20544SOL     OW63464  10.635   3.696   3.155
20544SOL    HW163465  10.624   3.759   3.084
20544SOL    HW263466  10.724   3.663   3.145
20545SOL     OW63467  13.211   7.433   4.824
20545SOL    HW163468  13.154   7.468   4.756
20545SOL    HW263469  13.279   7.386   4.777
20546SOL     OW63470   4.233  13.317  10.418
20546SOL    HW163471   4.287  13.297  10.342
20546SOL    HW263472   4.194  13.232  10.442
20547SOL     OW63473  14.544   8.369   5.423
20547SOL    HW163474  14.551   8.377   5.518
20547SOL    HW263475  14.453   8.342   5.408
20548SOL     OW63476   4.375   3.407  10.972
20548SOL    HW163477   4.339   3.476  11.028
20548SOL    HW263478   4.345   3.326  11.012
20549SOL     OW63479   2.316   2.438  14.708
20549SOL    HW163480   2.372   2.423  14.785
20549SOL    HW263481   2.301   2.532  14.706
20550SOL     OW63482   7.852  10.630  13.493
20550SOL    HW163483   7.844  10.721  13.465
20550SOL    HW263484   7.943  10.608  13.477
20551SOL     OW63485   3.302  11.850   8.413
20551SOL    HW163486   3.375  11.874   8.470
20551SOL    HW263487   3.341  11.792   8.347
20552SOL     OW63488   8.629   1.504   3.760
20552SOL    HW163489   8.677   1.558   3.822
20552SOL    HW263490   8.641   1.548   3.676
20553SOL     OW63491   4.950  13.169   3.192
20553SOL    HW163492   4.931  13.260   3.215
20553SOL    HW263493   5.043  13.158   3.210
20554SOL     OW63494   0.411   0.771   1.138
20554SOL    HW163495   0.483   0.834   1.145
20554SOL    HW263496   0.354   0.793   1.211
20555SOL     OW63497   9.487   8.442   9.624
20555SOL    HW163498   9.420   8.373   9.623
20555SOL    HW263499   9.563   8.400   9.664
20556SOL     OW63500  12.061  14.037   1.337
20556SOL    HW163501  12.022  13.974   1.397
20556SOL    HW263502  12.040  14.003   1.250
20557SOL     OW63503   3.438   1.190   7.152
20557SOL    HW163504   3.518   1.235   7.125
20557SOL    HW263505   3.430   1.210   7.245
20558SOL     OW63506  14.654  12.361   5.647
20558SOL    HW163507  14.567  12.344   5.609
20558SOL    HW263508  14.638  12.369   5.741
20559SOL     OW63509   1.178   5.882  12.439
20559SOL    HW163510   1.145   5.934  12.365
20559SOL    HW263511   1.204   5.948  12.504
20560SOL     OW63512   1.875  14.503  10.635
20560SOL    HW163513   1.844  14.441  10.702
20560SOL    HW263514   1.799  14.517  10.579
20561SOL     OW63515   9.650   0.752  11.373
20561SOL    HW163516   9.621   0.831  11.328
20561SOL    HW263517   9.591   0.743  11.448
20562SOL     OW63518   4.267   8.043   6.060
20562SOL    HW163519   4.344   8.090   6.090
20562SOL    HW263520   4.237   8.091   5.983
20563SOL     OW63521   1.880   2.781   8.845
20563SOL    HW163522   1.966   2.741   8.839
20563SOL    HW263523   1.892   2.869   8.811
20564SOL     OW63524   4.146   9.663   9.317
20564SOL    HW163525   4.179   9.579   9.347
20564SOL    HW263526   4.222   9.708   9.281
20565SOL     OW63527   2.437  12.904  11.293
20565SOL    HW163528   2.353  12.885  11.335
20565SOL    HW263529   2.423  12.985  11.245
20566SOL     OW63530   9.687  14.817   2.983
20566SOL    HW163531   9.669  14.763   3.060
20566SOL    HW263532   9.693  14.755   2.911
20567SOL     OW63533  14.770   6.342   7.295
20567SOL    HW163534  14.680   6.375   7.302
20567SOL    HW263535  14.776   6.273   7.361
20568SOL     OW63536  14.046   8.719   8.038
20568SOL    HW163537  14.064   8.685   7.951
20568SOL    HW263538  14.102   8.797   8.045
20569SOL     OW63539   7.633   8.659   4.893
20569SOL    HW163540   7.545   8.642   4.859
20569SOL    HW263541   7.640   8.600   4.969
20570SOL     OW63542  14.512   8.967   2.597
20570SOL    HW163543  14.575   8.905   2.634
20570SOL    HW263544  14.445   8.976   2.665
20571SOL     OW63545   3.199  10.836  10.184
20571SOL    HW163546   3.235  10.892  10.254
20571SOL    HW263547   3.105  10.853  10.185
20572SOL     OW63548  14.251   2.039  11.121
20572SOL    HW163549  14.305   1.973  11.077
20572SOL    HW263550  14.308   2.115  11.130
20573SOL     OW63551   9.090   7.410   1.609
20573SOL    HW163552   9.007   7.434   1.649
20573SOL    HW263553   9.145   7.487   1.618
20574SOL     OW63554   3.465  14.814   7.495
20574SOL    HW163555   3.557  14.840   7.485
20574SOL    HW263556   3.420   0.023   7.520
20575SOL     OW63557   4.336  14.223   5.946
20575SOL    HW163558   4.347  14.133   5.976
20575SOL    HW263559   4.256  14.221   5.894
20576SOL     OW63560  12.463  14.330   5.674
20576SOL    HW163561  12.420  14.373   5.748
20576SOL    HW263562  12.398  14.330   5.605
20577SOL     OW63563   1.574   6.832   6.372
20577SOL    HW163564   1.651   6.888   6.374
20577SOL    HW263565   1.502   6.888   6.397
20578SOL     OW63566   7.323   3.222   5.662
20578SOL    HW163567   7.242   3.176   5.640
20578SOL    HW263568   7.346   3.270   5.583
20579SOL     OW63569   6.289   9.116   6.209
20579SOL    HW163570   6.265   9.024   6.221
20579SOL    HW263571   6.208   9.158   6.178
20580SOL     OW63572  13.594   2.527   4.382
20580SOL    HW163573  13.582   2.622   4.383
20580SOL    HW263574  13.515   2.493   4.424
20581SOL     OW63575   0.694   4.495  11.285
20581SOL    HW163576   0.627   4.472  11.221
20581SOL    HW263577   0.652   4.561  11.340
20582SOL     OW63578   1.291   9.983   6.937
20582SOL    HW163579   1.206   9.955   6.901
20582SOL    HW263580   1.341  10.011   6.860
20583SOL     OW63581   2.814  11.301   2.824
20583SOL    HW163582   2.842  11.263   2.907
20583SOL    HW263583   2.853  11.245   2.758
20584SOL     OW63584   2.065   8.550  13.847
20584SOL    HW163585   2.039   8.512  13.763
20584SOL    HW263586   2.149   8.592  13.829
20585SOL     OW63587   5.512   1.181  14.031
20585SOL    HW163588   5.513   1.222  14.118
20585SOL    HW263589   5.560   1.243  13.975
20586SOL     OW63590  13.064   5.296   8.233
20586SOL    HW163591  12.991   5.239   8.206
20586SOL    HW263592  13.050   5.308   8.327
20587SOL     OW63593   7.853   4.309  14.325
20587SOL    HW163594   7.940   4.332  14.292
20587SOL    HW263595   7.810   4.266  14.251
20588SOL     OW63596  14.635   1.660  11.858
20588SOL    HW163597  14.693   1.585  11.869
20588SOL    HW263598  14.630   1.700  11.945
20589SOL     OW63599  11.607  14.561   0.413
20589SOL    HW163600  11.578  14.647   0.386
20589SOL    HW263601  11.608  14.509   0.333
20590SOL     OW63602  14.719   5.719   8.969
20590SOL    HW163603  14.711   5.642   9.025
20590SOL    HW263604  14.737   5.791   9.030
20591SOL     OW63605  10.051  14.485   0.312
20591SOL    HW163606  10.045  14.400   0.354
20591SOL    HW263607   9.981  14.537   0.352
20592SOL     OW63608   8.070  12.136   2.513
20592SOL    HW163609   8.111  12.050   2.516
20592SOL    HW263610   8.132  12.190   2.464
20593SOL     OW63611  12.307   9.135   9.525
20593SOL    HW163612  12.347   9.052   9.496
20593SOL    HW263613  12.356   9.159   9.603
20594SOL     OW63614   4.991  12.277   3.710
20594SOL    HW163615   5.076  12.258   3.669
20594SOL    HW263616   4.987  12.373   3.713
20595SOL     OW63617   1.548   0.692   9.545
20595SOL    HW163618   1.641   0.707   9.526
20595SOL    HW263619   1.526   0.761   9.608
20596SOL     OW63620   9.648   3.495   3.541
20596SOL    HW163621   9.561   3.463   3.516
20596SOL    HW263622   9.707   3.459   3.476
20597SOL     OW63623   1.703   3.952   7.725
20597SOL    HW163624   1.733   4.039   7.697
20597SOL    HW263625   1.784   3.903   7.739
20598SOL     OW63626   8.028  13.039   0.937
20598SOL    HW163627   7.970  13.115   0.946
20598SOL    HW263628   8.099  13.055   1.000
20599SOL     OW63629   1.809   6.425   1.526
20599SOL    HW163630   1.730   6.371   1.529
20599SOL    HW263631   1.869   6.377   1.469
20600SOL     OW63632   7.152   3.371  11.197
20600SOL    HW163633   7.143   3.320  11.117
20600SOL    HW263634   7.103   3.452  11.179
20601SOL     OW63635  11.675   8.428  14.475
20601SOL    HW163636  11.617   8.401  14.546
20601SOL    HW263637  11.619   8.475  14.414
20602SOL     OW63638   2.041  12.460   1.878
20602SOL    HW163639   2.011  12.388   1.822
20602SOL    HW263640   2.126  12.430   1.912
20603SOL     OW63641   5.702   1.217   0.302
20603SOL    HW163642   5.709   1.312   0.295
20603SOL    HW263643   5.638   1.203   0.372
20604SOL     OW63644   8.051   4.341  13.202
20604SOL    HW163645   8.061   4.259  13.250
20604SOL    HW263646   7.985   4.390  13.253
20605SOL     OW63647   5.904   2.203   4.100
20605SOL    HW163648   5.856   2.121   4.087
20605SOL    HW263649   5.926   2.233   4.012
20606SOL     OW63650  12.799  13.509   0.431
20606SOL    HW163651  12.880  13.542   0.472
20606SOL    HW263652  12.729  13.541   0.488
20607SOL     OW63653   0.308   8.715   5.048
20607SOL    HW163654   0.271   8.649   5.107
20607SOL    HW263655   0.329   8.667   4.968
20608SOL     OW63656   7.781  14.546   4.620
20608SOL    HW163657   7.811  14.636   4.633
20608SOL    HW263658   7.763  14.541   4.526
20609SOL     OW63659   7.601   5.844   0.407
20609SOL    HW163660   7.552   5.869   0.486
20609SOL    HW263661   7.540   5.790   0.357
20610SOL     OW63662   0.100   0.454  14.582
20610SOL    HW163663   0.185   0.439  14.539
20610SOL    HW263664   0.117   0.527  14.642
20611SOL     OW63665   9.412   6.150   7.380
20611SOL    HW163666   9.371   6.209   7.443
20611SOL    HW263667   9.359   6.070   7.385
20612SOL     OW63668  11.691  10.577   7.101
20612SOL    HW163669  11.723  10.662   7.130
20612SOL    HW263670  11.712  10.573   7.008
20613SOL     OW63671   5.643   7.449   5.093
20613SOL    HW163672   5.686   7.406   5.019
20613SOL    HW263673   5.652   7.387   5.165
20614SOL     OW63674   4.047   0.315   1.394
20614SOL    HW163675   3.956   0.342   1.400
20614SOL    HW263676   4.069   0.282   1.481
20615SOL     OW63677   8.971   3.489   5.872
20615SOL    HW163678   9.050   3.532   5.905
20615SOL    HW263679   8.987   3.396   5.887
20616SOL     OW63680   7.009   7.279   6.382
20616SOL    HW163681   6.958   7.211   6.426
20616SOL    HW263682   6.950   7.353   6.375
20617SOL     OW63683   6.657   5.679   7.253
20617SOL    HW163684   6.625   5.589   7.264
20617SOL    HW263685   6.751   5.674   7.272
20618SOL     OW63686  14.817  12.530   7.363
20618SOL    HW163687  14.732  12.505   7.326
20618SOL    HW263688  14.859  12.447   7.384
20619SOL     OW63689   8.595   9.309   5.739
20619SOL    HW163690   8.593   9.277   5.648
20619SOL    HW263691   8.593   9.230   5.792
20620SOL     OW63692  13.564   6.621   5.567
20620SOL    HW163693  13.482   6.608   5.614
20620SOL    HW263694  13.630   6.581   5.624
20621SOL     OW63695   7.967   3.827   1.720
20621SOL    HW163696   7.945   3.735   1.739
20621SOL    HW263697   7.972   3.869   1.805
20622SOL     OW63698   4.328   1.312   9.359
20622SOL    HW163699   4.258   1.246   9.358
20622SOL    HW263700   4.300   1.376   9.294
20623SOL     OW63701  14.124   2.663   8.840
20623SOL    HW163702  14.083   2.650   8.754
20623SOL    HW263703  14.218   2.663   8.822
20624SOL     OW63704  12.037  12.812   0.098
20624SOL    HW163705  12.074  12.746   0.157
20624SOL    HW263706  12.097  12.886   0.105
20625SOL     OW63707   9.170   1.023   1.090
20625SOL    HW163708   9.214   1.074   1.159
20625SOL    HW263709   9.120   0.957   1.138
20626SOL     OW63710   4.835  11.224  10.549
20626SOL    HW163711   4.840  11.275  10.630
20626SOL    HW263712   4.897  11.265  10.490
20627SOL     OW63713   5.194  12.047  14.553
20627SOL    HW163714   5.282  12.062  14.590
20627SOL    HW263715   5.169  12.131  14.516
20628SOL     OW63716   0.879  14.252   6.556
20628SOL    HW163717   0.845  14.197   6.486
20628SOL    HW263718   0.918  14.327   6.511
20629SOL     OW63719   1.824   5.419  14.148
20629SOL    HW163720   1.894   5.484  14.161
20629SOL    HW263721   1.825   5.401  14.054
20630SOL     OW63722  11.801   0.495   6.442
20630SOL    HW163723  11.746   0.560   6.485
20630SOL    HW263724  11.888   0.508   6.480
20631SOL     OW63725  10.116  11.887   2.407
20631SOL    HW163726  10.130  11.943   2.484
20631SOL    HW263727  10.079  11.806   2.443
20632SOL     OW63728   7.230  10.606   4.812
20632SOL    HW163729   7.145  10.609   4.768
20632SOL    HW263730   7.287  10.559   4.751
20633SOL     OW63731   6.251   8.677   2.404
20633SOL    HW163732   6.338   8.640   2.391
20633SOL    HW263733   6.237   8.671   2.499
20634SOL     OW63734   0.651   1.873   5.546
20634SOL    HW163735   0.580   1.841   5.490
20634SOL    HW263736   0.731   1.839   5.504
20635SOL     OW63737   2.689  10.793  14.125
20635SOL    HW163738   2.613  10.817  14.071
20635SOL    HW263739   2.760  10.848  14.093
20636SOL     OW63740   1.309   2.670   1.234
20636SOL    HW163741   1.391   2.717   1.216
20636SOL    HW263742   1.294   2.682   1.327
20637SOL     OW63743  11.136   7.289   4.627
20637SOL    HW163744  11.225   7.257   4.644
20637SOL    HW263745  11.126   7.281   4.532
20638SOL     OW63746   9.805  10.812   6.591
20638SOL    HW163747   9.774  10.786   6.677
20638SOL    HW263748   9.740  10.779   6.530
20639SOL     OW63749   4.011   3.320   8.011
20639SOL    HW163750   3.941   3.326   8.076
20639SOL    HW263751   4.092   3.327   8.061
20640SOL     OW63752   9.283   2.380  13.424
20640SOL    HW163753   9.233   2.421  13.494
20640SOL    HW263754   9.374   2.388  13.452
20641SOL     OW63755   7.103   6.163   7.047
20641SOL    HW163756   7.084   6.179   7.139
20641SOL    HW263757   7.176   6.220   7.027
20642SOL     OW63758   6.706   4.984   3.623
20642SOL    HW163759   6.783   5.007   3.675
20642SOL    HW263760   6.726   4.897   3.588
20643SOL     OW63761  14.199   6.399   8.247
20643SOL    HW163762  14.233   6.349   8.173
20643SOL    HW263763  14.104   6.399   8.235
20644SOL     OW63764  10.006   9.482   4.483
20644SOL    HW163765  10.052   9.413   4.532
20644SOL    HW263766  10.065   9.557   4.485
20645SOL     OW63767   3.249  11.572   3.480
20645SOL    HW163768   3.321  11.513   3.501
20645SOL    HW263769   3.194  11.523   3.419
20646SOL     OW63770  13.148   5.235  14.056
20646SOL    HW163771  13.219   5.295  14.031
20646SOL    HW263772  13.122   5.194  13.973
20647SOL     OW63773   3.571   6.990   4.254
20647SOL    HW163774   3.628   7.055   4.296
20647SOL    HW263775   3.629   6.945   4.192
20648SOL     OW63776  13.152   3.837   6.330
20648SOL    HW163777  13.198   3.795   6.402
20648SOL    HW263778  13.120   3.765   6.276
20649SOL     OW63779  11.677   3.141   5.847
20649SOL    HW163780  11.647   3.052   5.865
20649SOL    HW263781  11.750   3.130   5.786
20650SOL     OW63782   8.187   8.826  10.997
20650SOL    HW163783   8.111   8.883  10.990
20650SOL    HW263784   8.205   8.797  10.907
20651SOL     OW63785   4.927   1.454  11.401
20651SOL    HW163786   4.885   1.387  11.347
20651SOL    HW263787   4.854   1.495  11.448
20652SOL     OW63788   5.836   5.960  10.470
20652SOL    HW163789   5.762   5.978  10.527
20652SOL    HW263790   5.797   5.934  10.387
20653SOL     OW63791  12.333   2.359  10.913
20653SOL    HW163792  12.370   2.354  11.001
20653SOL    HW263793  12.354   2.447  10.883
20654SOL     OW63794   8.118   6.167   8.815
20654SOL    HW163795   8.158   6.158   8.902
20654SOL    HW263796   8.166   6.104   8.761
20655SOL     OW63797   6.499  13.090   5.429
20655SOL    HW163798   6.587  13.104   5.462
20655SOL    HW263799   6.450  13.168   5.457
20656SOL     OW63800   7.853   1.254   6.393
20656SOL    HW163801   7.822   1.163   6.394
20656SOL    HW263802   7.947   1.246   6.373
20657SOL     OW63803   2.602   1.964   8.013
20657SOL    HW163804   2.541   2.036   7.995
20657SOL    HW263805   2.551   1.901   8.064
20658SOL     OW63806   4.283  14.438   6.297
20658SOL    HW163807   4.272  14.365   6.358
20658SOL    HW263808   4.207  14.494   6.312
20659SOL     OW63809   1.838   9.342   1.826
20659SOL    HW163810   1.831   9.405   1.897
20659SOL    HW263811   1.906   9.378   1.769
20660SOL     OW63812  10.220   2.805   5.645
20660SOL    HW163813  10.296   2.782   5.699
20660SOL    HW263814  10.149   2.816   5.707
20661SOL     OW63815  11.676   8.664   8.231
20661SOL    HW163816  11.615   8.596   8.261
20661SOL    HW263817  11.757   8.647   8.279
20662SOL     OW63818  12.745   7.855   2.844
20662SOL    HW163819  12.773   7.789   2.780
20662SOL    HW263820  12.691   7.806   2.907
20663SOL     OW63821  11.646  14.283   8.143
20663SOL    HW163822  11.646  14.355   8.205
20663SOL    HW263823  11.703  14.217   8.183
20664SOL     OW63824   2.555   5.483   9.707
20664SOL    HW163825   2.510   5.554   9.753
20664SOL    HW263826   2.488   5.417   9.692
20665SOL     OW63827   4.093   3.542   4.501
20665SOL    HW163828   4.121   3.484   4.572
20665SOL    HW263829   4.007   3.574   4.529
20666SOL     OW63830   3.881  10.906  10.988
20666SOL    HW163831   3.858  10.902  10.896
20666SOL    HW263832   3.916  10.994  11.001
20667SOL     OW63833   5.786   0.315  14.199
20667SOL    HW163834   5.786   0.318  14.104
20667SOL    HW263835   5.856   0.253  14.222
20668SOL     OW63836   7.450   0.781   6.658
20668SOL    HW163837   7.434   0.731   6.578
20668SOL    HW263838   7.430   0.871   6.635
20669SOL     OW63839  13.696   6.758   0.105
20669SOL    HW163840  13.754   6.719   0.039
20669SOL    HW263841  13.720   6.716   0.187
20670SOL     OW63842   1.052   7.933   5.805
20670SOL    HW163843   0.983   7.944   5.871
20670SOL    HW263844   1.012   7.963   5.724
20671SOL     OW63845  12.528   4.409   9.605
20671SOL    HW163846  12.587   4.414   9.680
20671SOL    HW263847  12.461   4.475   9.622
20672SOL     OW63848  11.617   7.044   9.087
20672SOL    HW163849  11.578   7.025   9.172
20672SOL    HW263850  11.669   7.124   9.102
20673SOL     OW63851   8.400   4.187   7.306
20673SOL    HW163852   8.380   4.276   7.278
20673SOL    HW263853   8.432   4.144   7.227
20674SOL     OW63854  11.175  11.429  13.160
20674SOL    HW163855  11.259  11.473  13.145
20674SOL    HW263856  11.186  11.386  13.245
20675SOL     OW63857  10.464   5.150  12.980
20675SOL    HW163858  10.472   5.055  12.989
20675SOL    HW263859  10.472   5.166  12.886
20676SOL     OW63860   3.035   9.101   5.476
20676SOL    HW163861   2.973   9.090   5.548
20676SOL    HW263862   3.117   9.126   5.520
20677SOL     OW63863  10.510   1.195   8.058
20677SOL    HW163864  10.417   1.202   8.036
20677SOL    HW263865  10.553   1.258   8.001
20678SOL     OW63866  14.177  13.729   7.124
20678SOL    HW163867  14.182  13.731   7.028
20678SOL    HW263868  14.254  13.679   7.151
20679SOL     OW63869   7.782   1.503   0.271
20679SOL    HW163870   7.873   1.514   0.297
20679SOL    HW263871   7.775   1.411   0.244
20680SOL     OW63872   7.722  10.065   6.323
20680SOL    HW163873   7.766  10.095   6.243
20680SOL    HW263874   7.647  10.124   6.333
20681SOL     OW63875   9.078  11.411   2.576
20681SOL    HW163876   9.039  11.348   2.636
20681SOL    HW263877   9.117  11.477   2.633
20682SOL     OW63878  10.154  11.983  12.438
20682SOL    HW163879  10.214  12.048  12.473
20682SOL    HW263880  10.068  12.025  12.443
20683SOL     OW63881   2.296  13.681   8.675
20683SOL    HW163882   2.374  13.637   8.707
20683SOL    HW263883   2.284  13.756   8.734
20684SOL     OW63884  13.194   5.579   2.323
20684SOL    HW163885  13.222   5.645   2.259
20684SOL    HW263886  13.261   5.584   2.392
20685SOL     OW63887   6.346  10.655  14.613
20685SOL    HW163888   6.326  10.590  14.680
20685SOL    HW263889   6.264  10.703  14.601
20686SOL     OW63890   7.100  10.472   8.005
20686SOL    HW163891   7.052  10.522   8.071
20686SOL    HW263892   7.089  10.381   8.030
20687SOL     OW63893   3.100   0.201  11.270
20687SOL    HW163894   3.134   0.269  11.328
20687SOL    HW263895   3.158   0.126  11.283
20688SOL     OW63896   2.109   7.824   4.819
20688SOL    HW163897   2.202   7.835   4.799
20688SOL    HW263898   2.075   7.914   4.820
20689SOL     OW63899   1.324   5.248  14.389
20689SOL    HW163900   1.374   5.170  14.416
20689SOL    HW263901   1.237   5.215  14.367
20690SOL     OW63902  11.895   4.153  11.712
20690SOL    HW163903  11.947   4.072  11.708
20690SOL    HW263904  11.808   4.126  11.680
20691SOL     OW63905  13.264   0.779   7.081
20691SOL    HW163906  13.238   0.870   7.088
20691SOL    HW263907  13.194   0.738   7.029
20692SOL     OW63908  12.443   8.263   6.268
20692SOL    HW163909  12.378   8.212   6.316
20692SOL    HW263910  12.456   8.215   6.186
20693SOL     OW63911   2.562   3.140  11.453
20693SOL    HW163912   2.522   3.080  11.516
20693SOL    HW263913   2.599   3.083  11.385
20694SOL     OW63914  14.452   3.779   4.208
20694SOL    HW163915  14.481   3.688   4.215
20694SOL    HW263916  14.454   3.812   4.298
20695SOL     OW63917   1.764  10.382   4.087
20695SOL    HW163918   1.803  10.296   4.076
20695SOL    HW263919   1.718  10.398   4.005
20696SOL     OW63920  13.285   5.043   8.385
20696SOL    HW163921  13.296   4.948   8.377
20696SOL    HW263922  13.202   5.054   8.431
20697SOL     OW63923  12.133   7.093   6.247
20697SOL    HW163924  12.209   7.111   6.190
20697SOL    HW263925  12.060   7.134   6.202
20698SOL     OW63926   2.729  14.034  10.455
20698SOL    HW163927   2.820  14.004  10.450
20698SOL    HW263928   2.679  13.955  10.474
20699SOL     OW63929   6.564  11.812  13.926
20699SOL    HW163930   6.532  11.820  14.015
20699SOL    HW263931   6.575  11.717  13.914
20700SOL     OW63932   5.908   9.677  13.043
20700SOL    HW163933   5.898   9.613  12.973
20700SOL    HW263934   5.820   9.685  13.080
20701SOL     OW63935   6.269  10.349   1.645
20701SOL    HW163936   6.208  10.304   1.703
20701SOL    HW263937   6.243  10.320   1.557
20702SOL     OW63938   7.314   7.794  11.456
20702SOL    HW163939   7.337   7.802  11.548
20702SOL    HW263940   7.328   7.882  11.420
20703SOL     OW63941   1.691   4.783   6.286
20703SOL    HW163942   1.734   4.756   6.205
20703SOL    HW263943   1.648   4.703   6.318
20704SOL     OW63944   9.682   3.764  12.518
20704SOL    HW163945   9.720   3.676  12.516
20704SOL    HW263946   9.588   3.749  12.512
20705SOL     OW63947   6.552   5.956   0.316
20705SOL    HW163948   6.478   5.897   0.302
20705SOL    HW263949   6.596   5.961   0.232
20706SOL     OW63950  12.354   6.219   4.703
20706SOL    HW163951  12.394   6.253   4.622
20706SOL    HW263952  12.400   6.265   4.773
20707SOL     OW63953   8.586  10.069   1.374
20707SOL    HW163954   8.641  10.007   1.326
20707SOL    HW263955   8.585  10.037   1.464
20708SOL     OW63956  13.120   8.181  13.371
20708SOL    HW163957  13.175   8.116  13.329
20708SOL    HW263958  13.063   8.130  13.429
20709SOL     OW63959   6.328   0.056   4.565
20709SOL    HW163960   6.422   0.040   4.570
20709SOL    HW263961   6.298   0.001   4.492
20710SOL     OW63962   2.249   8.048   0.450
20710SOL    HW163963   2.177   8.107   0.472
20710SOL    HW263964   2.215   7.961   0.470
20711SOL     OW63965   8.281   8.188   8.974
20711SOL    HW163966   8.336   8.185   9.052
20711SOL    HW263967   8.275   8.280   8.951
20712SOL     OW63968   2.966   2.749  12.068
20712SOL    HW163969   3.041   2.806  12.085
20712SOL    HW263970   2.952   2.755  11.974
20713SOL     OW63971  13.035  13.962   8.102
20713SOL    HW163972  13.084  13.898   8.050
20713SOL    HW263973  12.989  13.909   8.168
20714SOL     OW63974  12.152  11.549  11.541
20714SOL    HW163975  12.081  11.538  11.477
20714SOL    HW263976  12.232  11.530  11.492
20715SOL     OW63977   0.785   2.699  10.421
20715SOL    HW163978   0.826   2.636  10.362
20715SOL    HW263979   0.855   2.761  10.441
20716SOL     OW63980  10.124  10.223  11.608
20716SOL    HW163981  10.193  10.201  11.671
20716SOL    HW263982  10.125  10.150  11.546
20717SOL     OW63983  11.693   6.738   0.978
20717SOL    HW163984  11.651   6.780   1.053
20717SOL    HW263985  11.709   6.648   1.006
20718SOL     OW63986   6.283  12.332   8.072
20718SOL    HW163987   6.337  12.254   8.086
20718SOL    HW263988   6.220  12.331   8.144
20719SOL     OW63989   8.969  11.844   7.482
20719SOL    HW163990   8.897  11.840   7.545
20719SOL    HW263991   9.044  11.873   7.534
20720SOL     OW63992  13.022   9.839   8.792
20720SOL    HW163993  13.044   9.761   8.845
20720SOL    HW263994  13.090   9.902   8.814
20721SOL     OW63995  11.625   7.401  12.191
20721SOL    HW163996  11.559   7.340  12.224
20721SOL    HW263997  11.691   7.346  12.149
20722SOL     OW63998  13.586   1.311   9.498
20722SOL    HW163999  13.573   1.226   9.454
20722SOL    HW264000  13.581   1.291   9.591
20723SOL     OW64001  13.453   9.551  11.248
20723SOL    HW164002  13.521   9.535  11.184
20723SOL    HW264003  13.375   9.573  11.197
20724SOL     OW64004   9.785   8.293   1.376
20724SOL    HW164005   9.806   8.321   1.465
20724SOL    HW264006   9.691   8.277   1.377
20725SOL     OW64007  11.416   7.660   7.521
20725SOL    HW164008  11.353   7.729   7.501
20725SOL    HW264009  11.413   7.602   7.444
20726SOL     OW64010   9.704   6.192   7.155
20726SOL    HW164011   9.714   6.284   7.180
20726SOL    HW264012   9.613   6.186   7.126
20727SOL     OW64013   3.789  12.083   4.518
20727SOL    HW164014   3.871  12.038   4.537
20727SOL    HW264015   3.728  12.051   4.585
20728SOL     OW64016   4.292   1.726   2.668
20728SOL    HW164017   4.321   1.640   2.639
20728SOL    HW264018   4.249   1.764   2.592
20729SOL     OW64019   8.243   3.914  11.135
20729SOL    HW164020   8.164   3.964  11.155
20729SOL    HW264021   8.253   3.855  11.209
20730SOL     OW64022   0.739  10.829   0.699
20730SOL    HW164023   0.709  10.741   0.676
20730SOL    HW264024   0.717  10.839   0.791
20731SOL     OW64025   1.984   0.563  10.624
20731SOL    HW164026   1.968   0.520  10.541
20731SOL    HW264027   1.899   0.598  10.650
20732SOL     OW64028   0.548   5.019   9.227
20732SOL    HW164029   0.497   4.940   9.245
20732SOL    HW264030   0.525   5.080   9.297
20733SOL     OW64031  11.253  11.652  10.297
20733SOL    HW164032  11.295  11.734  10.324
20733SOL    HW264033  11.253  11.598  10.376
20734SOL     OW64034   1.838  11.328   3.093
20734SOL    HW164035   1.801  11.240   3.103
20734SOL    HW264036   1.924  11.323   3.135
20735SOL     OW64037  14.580   3.334  12.414
20735SOL    HW164038  14.671   3.308  12.430
20735SOL    HW264039  14.547   3.359  12.500
20736SOL     OW64040   4.802  13.692   4.651
20736SOL    HW164041   4.796  13.600   4.626
20736SOL    HW264042   4.837  13.691   4.740
20737SOL     OW64043   9.221   1.154  11.460
20737SOL    HW164044   9.139   1.133  11.416
20737SOL    HW264045   9.251   1.235  11.417
20738SOL     OW64046   2.235  14.539   1.365
20738SOL    HW164047   2.200  14.475   1.427
20738SOL    HW264048   2.330  14.533   1.377
20739SOL     OW64049  10.064   7.633   6.239
20739SOL    HW164050  10.012   7.554   6.224
20739SOL    HW264051  10.134   7.628   6.173
20740SOL     OW64052   1.176  12.190   1.158
20740SOL    HW164053   1.085  12.170   1.179
20740SOL    HW264054   1.187  12.159   1.068
20741SOL     OW64055   1.925   2.039   9.647
20741SOL    HW164056   1.887   1.997   9.569
20741SOL    HW264057   2.003   2.084   9.614
20742SOL     OW64058   2.141   5.123  11.536
20742SOL    HW164059   2.107   5.166  11.457
20742SOL    HW264060   2.111   5.179  11.608
20743SOL     OW64061   0.040  14.321   8.612
20743SOL    HW164062   0.113  14.378   8.590
20743SOL    HW264063  14.866  14.368   8.682
20744SOL     OW64064  13.705   5.924   4.723
20744SOL    HW164065  13.776   5.971   4.767
20744SOL    HW264066  13.633   5.987   4.720
20745SOL     OW64067   8.405  13.870   1.794
20745SOL    HW164068   8.434  13.785   1.826
20745SOL    HW264069   8.443  13.933   1.855
20746SOL     OW64070   3.535  14.623   8.190
20746SOL    HW164071   3.520  14.576   8.272
20746SOL    HW264072   3.489  14.706   8.202
20747SOL     OW64073   1.806   5.681  13.408
20747SOL    HW164074   1.838   5.598  13.373
20747SOL    HW264075   1.711   5.672  13.407
20748SOL     OW64076   8.678   0.217   3.525
20748SOL    HW164077   8.773   0.211   3.515
20748SOL    HW264078   8.643   0.202   3.437
20749SOL     OW64079   6.142   3.334   7.961
20749SOL    HW164080   6.070   3.304   8.017
20749SOL    HW264081   6.217   3.338   8.020
20750SOL     OW64082  14.302   5.837  12.172
20750SOL    HW164083  14.381   5.835  12.118
20750SOL    HW264084  14.334   5.853  12.261
20751SOL     OW64085  13.228  13.337   9.447
20751SOL    HW164086  13.311  13.300   9.416
20751SOL    HW264087  13.245  13.430   9.456
20752SOL     OW64088   2.545   8.953   2.649
20752SOL    HW164089   2.570   8.861   2.638
20752SOL    HW264090   2.512   8.958   2.739
20753SOL     OW64091   9.966  10.055  13.036
20753SOL    HW164092   9.955  10.150  13.034
20753SOL    HW264093  10.061  10.042  13.037
20754SOL     OW64094  13.511  14.407   7.363
20754SOL    HW164095  13.443  14.473   7.350
20754SOL    HW264096  13.465  14.324   7.351
20755SOL     OW64097  12.355  10.186   5.954
20755SOL    HW164098  12.311  10.156   5.875
20755SOL    HW264099  12.286  10.193   6.020
20756SOL     OW64100   8.980   0.420   0.711
20756SOL    HW164101   8.971   0.402   0.618
20756SOL    HW264102   8.932   0.502   0.724
20757SOL     OW64103   5.164   8.650   2.378
20757SOL    HW164104   5.102   8.579   2.360
20757SOL    HW264105   5.157   8.707   2.302
20758SOL     OW64106  13.455   9.714   1.714
20758SOL    HW164107  13.424   9.664   1.638
20758SOL    HW264108  13.388   9.781   1.728
20759SOL     OW64109   7.814   1.577  10.831
20759SOL    HW164110   7.748   1.547  10.894
20759SOL    HW264111   7.764   1.604  10.755
20760SOL     OW64112  14.063  13.240  10.643
20760SOL    HW164113  14.110  13.158  10.661
20760SOL    HW264114  14.099  13.303  10.705
20761SOL     OW64115   3.280  10.774   4.510
20761SOL    HW164116   3.292  10.853   4.563
20761SOL    HW264117   3.358  10.770   4.455
20762SOL     OW64118   2.103   2.635   8.813
20762SOL    HW164119   2.180   2.584   8.838
20762SOL    HW264120   2.087   2.610   8.721
20763SOL     OW64121   7.225  10.929   6.666
20763SOL    HW164122   7.255  10.846   6.703
20763SOL    HW264123   7.158  10.904   6.602
20764SOL     OW64124  10.167  14.122   1.730
20764SOL    HW164125  10.075  14.124   1.756
20764SOL    HW264126  10.193  14.030   1.743
20765SOL     OW64127   4.810   2.756   6.027
20765SOL    HW164128   4.859   2.682   5.992
20765SOL    HW264129   4.722   2.723   6.040
20766SOL     OW64130   0.036  10.973  12.161
20766SOL    HW164131   0.107  10.957  12.099
20766SOL    HW264132  14.831  10.979  12.106
20767SOL     OW64133   0.750   9.981   3.164
20767SOL    HW164134   0.703   9.918   3.219
20767SOL    HW264135   0.839   9.980   3.199
20768SOL     OW64136  11.534   0.178   7.783
20768SOL    HW164137  11.528   0.142   7.695
20768SOL    HW264138  11.603   0.126   7.825
20769SOL     OW64139   9.204  14.634   6.454
20769SOL    HW164140   9.206  14.721   6.414
20769SOL    HW264141   9.185  14.575   6.381
20770SOL     OW64142   5.511   9.753   4.937
20770SOL    HW164143   5.575   9.698   4.984
20770SOL    HW264144   5.447   9.691   4.903
20771SOL     OW64145   0.919   7.807   9.912
20771SOL    HW164146   1.013   7.802   9.930
20771SOL    HW264147   0.879   7.758   9.984
20772SOL     OW64148  13.088   7.487   5.083
20772SOL    HW164149  13.126   7.482   4.995
20772SOL    HW264150  12.995   7.500   5.068
20773SOL     OW64151   7.817  14.593  14.200
20773SOL    HW164152   7.780  14.546  14.125
20773SOL    HW264153   7.892  14.541  14.227
20774SOL     OW64154   1.365   7.049   6.901
20774SOL    HW164155   1.427   6.999   6.847
20774SOL    HW264156   1.385   7.023   6.991
20775SOL     OW64157   8.010   4.683  11.457
20775SOL    HW164158   8.086   4.739  11.439
20775SOL    HW264159   8.045   4.611  11.508
20776SOL     OW64160  13.749  11.522   1.917
20776SOL    HW164161  13.730  11.545   2.008
20776SOL    HW264162  13.833  11.476   1.921
20777SOL     OW64163   8.511   6.580   3.011
20777SOL    HW164164   8.426   6.537   3.024
20777SOL    HW264165   8.571   6.508   2.991
20778SOL     OW64166   6.742  14.179   1.262
20778SOL    HW164167   6.734  14.119   1.188
20778SOL    HW264168   6.802  14.135   1.322
20779SOL     OW64169   4.143   9.237   3.775
20779SOL    HW164170   4.225   9.198   3.805
20779SOL    HW264171   4.150   9.330   3.798
20780SOL     OW64172  12.671   8.057   4.600
20780SOL    HW164173  12.664   7.990   4.532
20780SOL    HW264174  12.725   8.125   4.560
20781SOL     OW64175   8.821   2.914  14.288
20781SOL    HW164176   8.882   2.975  14.247
20781SOL    HW264177   8.788   2.961  14.365
20782SOL     OW64178  10.371   4.707   0.895
20782SOL    HW164179  10.405   4.756   0.820
20782SOL    HW264180  10.347   4.622   0.860
20783SOL     OW64181  13.349  14.059  12.812
20783SOL    HW164182  13.308  13.992  12.758
20783SOL    HW264183  13.335  14.030  12.902
20784SOL     OW64184  12.678   3.911   5.969
20784SOL    HW164185  12.754   3.866   6.006
20784SOL    HW264186  12.616   3.841   5.948
20785SOL     OW64187  14.437  13.226  12.735
20785SOL    HW164188  14.377  13.236  12.809
20785SOL    HW264189  14.523  13.246  12.772
20786SOL     OW64190   4.683   0.646  12.280
20786SOL    HW164191   4.618   0.646  12.351
20786SOL    HW264192   4.641   0.697  12.210
20787SOL     OW64193  13.242   5.155   8.082
20787SOL    HW164194  13.193   5.235   8.101
20787SOL    HW264195  13.276   5.127   8.167
20788SOL     OW64196   0.493  14.044   3.176
20788SOL    HW164197   0.485  14.086   3.091
20788SOL    HW264198   0.405  14.045   3.213
20789SOL     OW64199  10.423  12.906  10.712
20789SOL    HW164200  10.403  12.865  10.796
20789SOL    HW264201  10.378  12.851  10.647
20790SOL     OW64202   3.005   3.033  13.244
20790SOL    HW164203   3.092   3.073  13.252
20790SOL    HW264204   2.947   3.092  13.292
20791SOL     OW64205   4.752  13.046   8.883
20791SOL    HW164206   4.838  13.021   8.915
20791SOL    HW264207   4.693  12.978   8.915
20792SOL     OW64208   3.955   1.809   2.644
20792SOL    HW164209   3.871   1.816   2.688
20792SOL    HW264210   3.956   1.720   2.607
20793SOL     OW64211  12.495  10.037   3.683
20793SOL    HW164212  12.439  10.056   3.608
20793SOL    HW264213  12.496   9.941   3.688
20794SOL     OW64214   9.092  13.520   6.787
20794SOL    HW164215   9.037  13.456   6.832
20794SOL    HW264216   9.066  13.513   6.695
20795SOL     OW64217  12.875  13.879   5.909
20795SOL    HW164218  12.913  13.803   5.865
20795SOL    HW264219  12.908  13.874   5.999
20796SOL     OW64220   8.689  14.754  13.747
20796SOL    HW164221   8.641  14.776  13.667
20796SOL    HW264222   8.760  14.696  13.717
20797SOL     OW64223  10.102   1.241   0.021
20797SOL    HW164224  10.059   1.292   0.090
20797SOL    HW264225  10.138   1.307  14.834
20798SOL     OW64226   0.168   8.842  14.752
20798SOL    HW164227   0.243   8.900  14.765
20798SOL    HW264228   0.116   8.886  14.685
20799SOL     OW64229  11.813   5.689   6.662
20799SOL    HW164230  11.888   5.633   6.681
20799SOL    HW264231  11.840   5.776   6.693
20800SOL     OW64232   3.818   6.273  12.503
20800SOL    HW164233   3.845   6.313  12.585
20800SOL    HW264234   3.723   6.287  12.500
20801SOL     OW64235   5.668   0.813   8.421
20801SOL    HW164236   5.698   0.839   8.508
20801SOL    HW264237   5.624   0.891   8.387
20802SOL     OW64238   8.572   7.814  10.108
20802SOL    HW164239   8.659   7.782  10.084
20802SOL    HW264240   8.517   7.736  10.106
20803SOL     OW64241   0.899   1.639   7.785
20803SOL    HW164242   0.844   1.671   7.714
20803SOL    HW264243   0.845   1.574   7.830
20804SOL     OW64244   4.710   8.289   6.892
20804SOL    HW164245   4.654   8.212   6.879
20804SOL    HW264246   4.653   8.363   6.873
20805SOL     OW64247   4.863  12.549  11.602
20805SOL    HW164248   4.796  12.481  11.607
20805SOL    HW264249   4.815  12.628  11.577
20806SOL     OW64250  11.844   2.287   8.343
20806SOL    HW164251  11.832   2.200   8.381
20806SOL    HW264252  11.933   2.287   8.309
20807SOL     OW64253   5.094   7.159  11.497
20807SOL    HW164254   5.068   7.251  11.485
20807SOL    HW264255   5.048   7.112  11.427
20808SOL     OW64256   9.392   8.296   7.346
20808SOL    HW164257   9.343   8.368   7.308
20808SOL    HW264258   9.427   8.331   7.428
20809SOL     OW64259   8.130   5.143   1.084
20809SOL    HW164260   8.070   5.133   1.011
20809SOL    HW264261   8.189   5.214   1.058
20810SOL     OW64262   0.022  14.053  11.730
20810SOL    HW164263   0.105  14.091  11.702
20810SOL    HW264264  14.833  14.077  11.661
20811SOL     OW64265   4.047  14.724  10.829
20811SOL    HW164266   4.055  14.678  10.912
20811SOL    HW264267   3.953  14.726  10.812
20812SOL     OW64268   8.605   7.715   1.160
20812SOL    HW164269   8.564   7.711   1.247
20812SOL    HW264270   8.582   7.631   1.119
20813SOL     OW64271   9.800  14.354   6.988
20813SOL    HW164272   9.801  14.322   7.079
20813SOL    HW264273   9.748  14.434   6.991
20814SOL     OW64274   0.217   4.069   4.678
20814SOL    HW164275   0.168   3.994   4.711
20814SOL    HW264276   0.282   4.032   4.619
20815SOL     OW64277   2.712  11.447  10.494
20815SOL    HW164278   2.706  11.444  10.589
20815SOL    HW264279   2.763  11.369  10.471
20816SOL     OW64280   9.747   9.133   0.530
20816SOL    HW164281   9.837   9.145   0.562
20816SOL    HW264282   9.736   9.038   0.526
20817SOL     OW64283  14.549   0.923   0.094
20817SOL    HW164284  14.456   0.916   0.073
20817SOL    HW264285  14.581   0.833   0.092
20818SOL     OW64286   8.143   4.059  14.532
20818SOL    HW164287   8.170   4.144  14.567
20818SOL    HW264288   8.216   4.032  14.476
20819SOL     OW64289   5.729   8.446   5.838
20819SOL    HW164290   5.783   8.412   5.767
20819SOL    HW264291   5.778   8.425   5.918
20820SOL     OW64292  10.478   1.141   1.686
20820SOL    HW164293  10.409   1.199   1.719
20820SOL    HW264294  10.537   1.129   1.760
20821SOL     OW64295   6.712   4.807  14.535
20821SOL    HW164296   6.775   4.878  14.544
20821SOL    HW264297   6.765   4.731  14.512
20822SOL     OW64298   0.238   5.436   3.467
20822SOL    HW164299   0.327   5.461   3.491
20822SOL    HW264300   0.234   5.342   3.481
20823SOL     OW64301   3.778   5.104  14.390
20823SOL    HW164302   3.740   5.019  14.366
20823SOL    HW264303   3.829   5.130  14.313
20824SOL     OW64304   5.202  10.272   7.446
20824SOL    HW164305   5.223  10.365   7.449
20824SOL    HW264306   5.285  10.228   7.468
20825SOL     OW64307   5.942   6.127   7.960
20825SOL    HW164308   5.928   6.161   8.048
20825SOL    HW264309   5.918   6.035   7.966
20826SOL     OW64310   7.643   0.006   8.484
20826SOL    HW164311   7.669   0.095   8.507
20826SOL    HW264312   7.605   0.014   8.396
20827SOL     OW64313   5.739   4.963  11.593
20827SOL    HW164314   5.818   4.975  11.540
20827SOL    HW264315   5.690   5.044  11.581
20828SOL     OW64316   5.764   2.249   6.912
20828SOL    HW164317   5.677   2.285   6.928
20828SOL    HW264318   5.782   2.194   6.988
20829SOL     OW64319  11.683   6.554   7.192
20829SOL    HW164320  11.730   6.637   7.185
20829SOL    HW264321  11.726   6.509   7.265
20830SOL     OW64322   4.175  12.588   9.178
20830SOL    HW164323   4.205  12.646   9.249
20830SOL    HW264324   4.256  12.550   9.143
20831SOL     OW64325   0.182   0.763   5.674
20831SOL    HW164326   0.267   0.751   5.715
20831SOL    HW264327   0.128   0.805   5.741
20832SOL     OW64328   8.339   5.716   2.743
20832SOL    HW164329   8.331   5.662   2.664
20832SOL    HW264330   8.265   5.777   2.738
20833SOL     OW64331   4.427  12.190  10.600
20833SOL    HW164332   4.375  12.168  10.523
20833SOL    HW264333   4.497  12.125  10.602
20834SOL     OW64334  12.976   0.306   9.340
20834SOL    HW164335  13.063   0.289   9.376
20834SOL    HW264336  12.927   0.344   9.413
20835SOL     OW64337  11.032   3.641  10.901
20835SOL    HW164338  11.023   3.552  10.934
20835SOL    HW264339  10.966   3.649  10.833
20836SOL     OW64340  10.472  13.760   0.011
20836SOL    HW164341  10.478  13.762   0.106
20836SOL    HW264342  10.404  13.695  14.866
20837SOL     OW64343   2.269   0.840  14.408
20837SOL    HW164344   2.288   0.911  14.347
20837SOL    HW264345   2.320   0.861  14.486
20838SOL     OW64346  12.795   9.882  13.321
20838SOL    HW164347  12.863   9.820  13.349
20838SOL    HW264348  12.715   9.830  13.320
20839SOL     OW64349   1.116  13.775   6.536
20839SOL    HW164350   1.127  13.838   6.606
20839SOL    HW264351   1.024  13.783   6.510
20840SOL     OW64352   1.779   2.843  12.048
20840SOL    HW164353   1.725   2.900  11.992
20840SOL    HW264354   1.864   2.839  12.004
20841SOL     OW64355   4.550  10.866   1.638
20841SOL    HW164356   4.562  10.913   1.721
20841SOL    HW264357   4.620  10.800   1.638
20842SOL     OW64358   2.575   5.517   7.044
20842SOL    HW164359   2.639   5.533   6.975
20842SOL    HW264360   2.495   5.493   6.997
20843SOL     OW64361  12.990   0.472   3.310
20843SOL    HW164362  12.934   0.397   3.290
20843SOL    HW264363  13.066   0.433   3.355
20844SOL     OW64364   0.931  10.087  11.806
20844SOL    HW164365   1.008  10.050  11.764
20844SOL    HW264366   0.886  10.135  11.736
20845SOL     OW64367   2.129   2.461   6.765
20845SOL    HW164368   2.216   2.443   6.728
20845SOL    HW264369   2.147   2.513   6.843
20846SOL     OW64370   1.572  14.112   8.610
20846SOL    HW164371   1.480  14.118   8.635
20846SOL    HW264372   1.588  14.019   8.599
20847SOL     OW64373   2.729   1.443  12.043
20847SOL    HW164374   2.709   1.354  12.073
20847SOL    HW264375   2.674   1.456  11.966
20848SOL     OW64376   7.648  12.445   1.980
20848SOL    HW164377   7.727  12.407   1.939
20848SOL    HW264378   7.670  12.537   1.993
20849SOL     OW64379  13.105  11.840   1.133
20849SOL    HW164380  13.092  11.791   1.052
20849SOL    HW264381  13.156  11.781   1.189
20850SOL     OW64382  14.527   9.952  12.604
20850SOL    HW164383  14.487  10.017  12.546
20850SOL    HW264384  14.615   9.940  12.570
20851SOL     OW64385   7.327  14.344  12.513
20851SOL    HW164386   7.391  14.334  12.443
20851SOL    HW264387   7.243  14.323  12.472
20852SOL     OW64388  11.685  14.202  12.727
20852SOL    HW164389  11.644  14.229  12.809
20852SOL    HW264390  11.737  14.125  12.750
20853SOL     OW64391   4.835   1.215   1.466
20853SOL    HW164392   4.810   1.201   1.557
20853SOL    HW264393   4.891   1.293   1.467
20854SOL     OW64394   4.174  10.227   1.495
20854SOL    HW164395   4.174  10.223   1.591
20854SOL    HW264396   4.081  10.228   1.471
20855SOL     OW64397   3.977   9.210   2.776
20855SOL    HW164398   3.997   9.298   2.809
20855SOL    HW264399   4.058   9.161   2.791
20856SOL     OW64400   0.561   1.098   3.138
20856SOL    HW164401   0.585   1.100   3.045
20856SOL    HW264402   0.466   1.110   3.139
20857SOL     OW64403   9.921  11.486  12.801
20857SOL    HW164404   9.848  11.515  12.747
20857SOL    HW264405   9.983  11.449  12.739
20858SOL     OW64406   4.687  13.220   5.402
20858SOL    HW164407   4.744  13.162   5.452
20858SOL    HW264408   4.702  13.307   5.439
20859SOL     OW64409   0.099   9.483   6.409
20859SOL    HW164410   0.117   9.573   6.437
20859SOL    HW264411   0.090   9.435   6.491
20860SOL     OW64412   8.682   9.863  10.337
20860SOL    HW164413   8.592   9.863  10.303
20860SOL    HW264414   8.736   9.837  10.262
20861SOL     OW64415  11.136   1.349  13.354
20861SOL    HW164416  11.099   1.417  13.298
20861SOL    HW264417  11.066   1.284  13.361
20862SOL     OW64418  12.647  13.680   6.834
20862SOL    HW164419  12.621  13.688   6.742
20862SOL    HW264420  12.704  13.755   6.850
20863SOL     OW64421   3.227   5.339   8.130
20863SOL    HW164422   3.288   5.267   8.112
20863SOL    HW264423   3.149   5.317   8.078
20864SOL     OW64424  14.171   9.367   7.304
20864SOL    HW164425  14.179   9.272   7.297
20864SOL    HW264426  14.104   9.380   7.371
20865SOL     OW64427   3.110   9.276   1.709
20865SOL    HW164428   3.128   9.226   1.788
20865SOL    HW264429   3.188   9.330   1.696
20866SOL     OW64430   7.428  10.097   4.215
20866SOL    HW164431   7.455  10.101   4.123
20866SOL    HW264432   7.475  10.021   4.250
20867SOL     OW64433   8.750  12.208   7.612
20867SOL    HW164434   8.770  12.148   7.684
20867SOL    HW264435   8.827  12.264   7.605
20868SOL     OW64436   7.913   8.912  10.966
20868SOL    HW164437   7.888   8.820  10.953
20868SOL    HW264438   7.830   8.956  10.987
20869SOL     OW64439   2.268  14.121   3.984
20869SOL    HW164440   2.191  14.114   4.041
20869SOL    HW264441   2.242  14.076   3.904
20870SOL     OW64442  13.001   4.785  13.081
20870SOL    HW164443  12.977   4.698  13.049
20870SOL    HW264444  12.953   4.795  13.163
20871SOL     OW64445   6.354  14.664   1.300
20871SOL    HW164446   6.408  14.618   1.236
20871SOL    HW264447   6.264  14.643   1.276
20872SOL     OW64448   6.076  14.173  14.628
20872SOL    HW164449   6.006  14.111  14.652
20872SOL    HW264450   6.032  14.237  14.572
20873SOL     OW64451  11.151   8.479  10.135
20873SOL    HW164452  11.148   8.553  10.074
20873SOL    HW264453  11.130   8.403  10.082
20874SOL     OW64454  11.712   7.718  13.387
20874SOL    HW164455  11.644   7.661  13.423
20874SOL    HW264456  11.708   7.797  13.441
20875SOL     OW64457  11.501   6.389  13.627
20875SOL    HW164458  11.536   6.402  13.539
20875SOL    HW264459  11.497   6.477  13.665
20876SOL     OW64460   9.079   9.649  13.276
20876SOL    HW164461   9.090   9.663  13.182
20876SOL    HW264462   9.062   9.555  13.284
20877SOL     OW64463  13.666  11.293  11.056
20877SOL    HW164464  13.723  11.355  11.010
20877SOL    HW264465  13.693  11.207  11.025
20878SOL     OW64466   6.898  14.568   6.263
20878SOL    HW164467   6.954  14.646   6.251
20878SOL    HW264468   6.865  14.549   6.175
20879SOL     OW64469  13.299   8.491  11.686
20879SOL    HW164470  13.216   8.517  11.726
20879SOL    HW264471  13.336   8.428  11.748
20880SOL     OW64472   9.094   0.133   4.145
20880SOL    HW164473   9.184   0.110   4.122
20880SOL    HW264474   9.048   0.137   4.062
20881SOL     OW64475  10.783   4.289  13.642
20881SOL    HW164476  10.827   4.307  13.559
20881SOL    HW264477  10.848   4.310  13.709
20882SOL     OW64478   0.540   5.191   8.202
20882SOL    HW164479   0.462   5.136   8.205
20882SOL    HW264480   0.516   5.271   8.248
20883SOL     OW64481   5.055  11.712   6.810
20883SOL    HW164482   5.065  11.671   6.896
20883SOL    HW264483   4.963  11.698   6.787
20884SOL     OW64484  12.758  10.152   9.087
20884SOL    HW164485  12.735  10.076   9.034
20884SOL    HW264486  12.687  10.215   9.073
20885SOL     OW64487  13.641   8.568  13.530
20885SOL    HW164488  13.617   8.488  13.483
20885SOL    HW264489  13.649   8.635  13.462
20886SOL     OW64490  13.063   5.826   8.583
20886SOL    HW164491  13.111   5.792   8.508
20886SOL    HW264492  12.977   5.849   8.548
20887SOL     OW64493  11.018  13.417  12.262
20887SOL    HW164494  10.976  13.497  12.230
20887SOL    HW264495  10.946  13.354  12.269
20888SOL     OW64496   6.001   0.026  13.100
20888SOL    HW164497   5.925  14.866  13.053
20888SOL    HW264498   6.001  14.849  13.182
20889SOL     OW64499   5.844   0.483   2.446
20889SOL    HW164500   5.933   0.454   2.461
20889SOL    HW264501   5.791   0.404   2.457
20890SOL     OW64502   7.189  13.009   3.549
20890SOL    HW164503   7.125  12.979   3.614
20890SOL    HW264504   7.273  12.974   3.579
20891SOL     OW64505  12.600   4.839   9.709
20891SOL    HW164506  12.581   4.932   9.690
20891SOL    HW264507  12.530   4.812   9.768
20892SOL     OW64508   9.104   0.573  11.460
20892SOL    HW164509   9.133   0.664  11.448
20892SOL    HW264510   9.098   0.538  11.372
20893SOL     OW64511   7.094   2.445  11.899
20893SOL    HW164512   7.169   2.488  11.941
20893SOL    HW264513   7.132   2.397  11.826
20894SOL     OW64514   3.677  12.832   7.648
20894SOL    HW164515   3.591  12.831   7.688
20894SOL    HW264516   3.738  12.830   7.722
20895SOL     OW64517   1.005   5.481   7.836
20895SOL    HW164518   0.941   5.498   7.767
20895SOL    HW264519   0.955   5.489   7.917
20896SOL     OW64520  13.752  12.443   8.530
20896SOL    HW164521  13.785  12.370   8.582
20896SOL    HW264522  13.671  12.470   8.574
20897SOL     OW64523   3.857   3.476   5.749
20897SOL    HW164524   3.870   3.397   5.800
20897SOL    HW264525   3.888   3.454   5.661
20898SOL     OW64526  11.002  10.067   4.894
20898SOL    HW164527  10.948  10.102   4.965
20898SOL    HW264528  11.075  10.129   4.887
20899SOL     OW64529  12.646   4.270   2.898
20899SOL    HW164530  12.598   4.187   2.902
20899SOL    HW264531  12.644   4.304   2.987
20900SOL     OW64532   1.129  14.573   8.083
20900SOL    HW164533   1.188  14.515   8.131
20900SOL    HW264534   1.081  14.514   8.023
20901SOL     OW64535  14.053   5.023  13.557
20901SOL    HW164536  14.059   4.993  13.648
20901SOL    HW264537  13.972   4.984  13.525
20902SOL     OW64538  10.243   4.210  13.694
20902SOL    HW164539  10.172   4.271  13.674
20902SOL    HW264540  10.211   4.125  13.664
20903SOL     OW64541   1.129   5.820   0.502
20903SOL    HW164542   1.152   5.734   0.467
20903SOL    HW264543   1.195   5.837   0.568
20904SOL     OW64544  11.804  10.345  14.865
20904SOL    HW164545  11.758  10.293   0.057
20904SOL    HW264546  11.759  10.430  14.866
20905SOL     OW64547   8.454   9.643   2.997
20905SOL    HW164548   8.419   9.728   3.024
20905SOL    HW264549   8.377   9.594   2.967
20906SOL     OW64550  13.335  13.686   8.822
20906SOL    HW164551  13.329  13.697   8.917
20906SOL    HW264552  13.377  13.601   8.811
20907SOL     OW64553  10.020  12.493   7.067
20907SOL    HW164554  10.099  12.544   7.051
20907SOL    HW264555  10.036  12.449   7.150
20908SOL     OW64556   9.089   5.282  12.806
20908SOL    HW164557   9.172   5.307  12.847
20908SOL    HW264558   9.038   5.244  12.878
20909SOL     OW64559   5.751   2.939  12.259
20909SOL    HW164560   5.822   2.955  12.197
20909SOL    HW264561   5.685   3.004  12.237
20910SOL     OW64562  12.146   8.124   7.347
20910SOL    HW164563  12.219   8.115   7.286
20910SOL    HW264564  12.122   8.216   7.344
20911SOL     OW64565   8.587  12.757   6.926
20911SOL    HW164566   8.558  12.681   6.976
20911SOL    HW264567   8.609  12.823   6.993
20912SOL     OW64568   7.511   8.747   0.697
20912SOL    HW164569   7.498   8.660   0.736
20912SOL    HW264570   7.488   8.808   0.767
20913SOL     OW64571   4.153  13.786   1.186
20913SOL    HW164572   4.148  13.832   1.102
20913SOL    HW264573   4.069  13.805   1.228
20914SOL     OW64574  14.356   4.372   7.528
20914SOL    HW164575  14.365   4.439   7.596
20914SOL    HW264576  14.263   4.371   7.507
20915SOL     OW64577   0.758   9.865   4.996
20915SOL    HW164578   0.774   9.877   4.903
20915SOL    HW264579   0.699   9.936   5.020
20916SOL     OW64580  14.180   8.011   6.886
20916SOL    HW164581  14.093   7.973   6.891
20916SOL    HW264582  14.173   8.077   6.817
20917SOL     OW64583   4.553   8.418   4.580
20917SOL    HW164584   4.537   8.326   4.604
20917SOL    HW264585   4.467   8.452   4.559
20918SOL     OW64586   0.746   1.323   9.183
20918SOL    HW164587   0.747   1.356   9.094
20918SOL    HW264588   0.838   1.327   9.211
20919SOL     OW64589  13.783   3.135  14.756
20919SOL    HW164590  13.747   3.208  14.707
20919SOL    HW264591  13.707   3.084  14.783
20920SOL     OW64592   2.496   0.239  12.429
20920SOL    HW164593   2.587   0.268  12.418
20920SOL    HW264594   2.446   0.320  12.434
20921SOL     OW64595  14.222  12.732  12.716
20921SOL    HW164596  14.229  12.827  12.713
20921SOL    HW264597  14.278  12.702  12.645
20922SOL     OW64598   5.481  12.019   8.397
20922SOL    HW164599   5.466  11.938   8.348
20922SOL    HW264600   5.419  12.014   8.470
20923SOL     OW64601   0.060   1.599   5.522
20923SOL    HW164602   0.118   1.584   5.446
20923SOL    HW264603   0.006   1.673   5.496
20924SOL     OW64604   4.025   2.599   6.682
20924SOL    HW164605   4.066   2.643   6.757
20924SOL    HW264606   4.052   2.651   6.606
20925SOL     OW64607   3.193  10.787  13.331
20925SOL    HW164608   3.207  10.715  13.270
20925SOL    HW264609   3.101  10.813  13.317
20926SOL     OW64610   3.899  11.520   4.886
20926SOL    HW164611   3.825  11.468   4.854
20926SOL    HW264612   3.859  11.597   4.927
20927SOL     OW64613   0.323  12.952  10.057
20927SOL    HW164614   0.353  12.865  10.029
20927SOL    HW264615   0.388  12.980  10.121
20928SOL     OW64616   0.773  12.195   1.488
20928SOL    HW164617   0.742  12.275   1.446
20928SOL    HW264618   0.846  12.224   1.543
20929SOL     OW64619   2.112   6.075   8.593
20929SOL    HW164620   2.028   6.087   8.638
20929SOL    HW264621   2.153   6.001   8.638
20930SOL     OW64622   8.332  13.504  12.208
20930SOL    HW164623   8.239  13.484  12.202
20930SOL    HW264624   8.370  13.472  12.126
20931SOL     OW64625   5.695  13.821  13.180
20931SOL    HW164626   5.658  13.865  13.257
20931SOL    HW264627   5.654  13.735  13.180
20932SOL     OW64628   5.397   5.698   2.747
20932SOL    HW164629   5.427   5.732   2.831
20932SOL    HW264630   5.313   5.656   2.766
20933SOL     OW64631  10.751   9.480   7.125
20933SOL    HW164632  10.691   9.521   7.188
20933SOL    HW264633  10.797   9.553   7.084
20934SOL     OW64634   5.798  13.169   5.819
20934SOL    HW164635   5.846  13.147   5.739
20934SOL    HW264636   5.798  13.087   5.869
20935SOL     OW64637  11.986   5.983  12.961
20935SOL    HW164638  12.021   5.955  13.045
20935SOL    HW264639  12.064   6.005  12.909
20936SOL     OW64640   1.567   5.176   2.886
20936SOL    HW164641   1.492   5.235   2.877
20936SOL    HW264642   1.603   5.169   2.798
20937SOL     OW64643  10.492   5.267  10.851
20937SOL    HW164644  10.575   5.307  10.823
20937SOL    HW264645  10.444   5.252  10.769
20938SOL     OW64646   7.845  10.500   9.615
20938SOL    HW164647   7.911  10.465   9.556
20938SOL    HW264648   7.773  10.438   9.610
20939SOL     OW64649  10.496   5.722   6.187
20939SOL    HW164650  10.462   5.709   6.276
20939SOL    HW264651  10.436   5.673   6.131
20940SOL     OW64652  14.002   2.669   7.535
20940SOL    HW164653  13.977   2.671   7.627
20940SOL    HW264654  13.970   2.584   7.504
20941SOL     OW64655   4.240   7.681  14.163
20941SOL    HW164656   4.167   7.628  14.195
20941SOL    HW264657   4.220   7.770  14.192
20942SOL     OW64658   5.174  14.165   1.007
20942SOL    HW164659   5.252  14.206   0.970
20942SOL    HW264660   5.202  14.076   1.029
20943SOL     OW64661   0.474   7.521   8.124
20943SOL    HW164662   0.399   7.473   8.090
20943SOL    HW264663   0.474   7.604   8.076
20944SOL     OW64664   9.662   4.246   3.997
20944SOL    HW164665   9.656   4.243   4.092
20944SOL    HW264666   9.755   4.231   3.978
20945SOL     OW64667  11.632  10.613   5.659
20945SOL    HW164668  11.665  10.656   5.580
20945SOL    HW264669  11.577  10.679   5.701
20946SOL     OW64670   6.588   0.822   1.423
20946SOL    HW164671   6.614   0.768   1.497
20946SOL    HW264672   6.660   0.814   1.361
20947SOL     OW64673  13.065   5.870   6.116
20947SOL    HW164674  13.082   5.962   6.100
20947SOL    HW264675  12.986   5.851   6.064
20948SOL     OW64676   3.606   2.657   5.248
20948SOL    HW164677   3.546   2.727   5.222
20948SOL    HW264678   3.671   2.653   5.178
20949SOL     OW64679  13.077   4.375   8.579
20949SOL    HW164680  13.049   4.395   8.669
20949SOL    HW264681  13.052   4.284   8.566
20950SOL     OW64682   4.860   9.587   3.178
20950SOL    HW164683   4.908   9.505   3.196
20950SOL    HW264684   4.920   9.638   3.124
20951SOL     OW64685  12.267  11.419  10.537
20951SOL    HW164686  12.291  11.491  10.596
20951SOL    HW264687  12.175  11.402  10.558
20952SOL     OW64688  10.156   7.517  13.686
20952SOL    HW164689  10.175   7.501  13.778
20952SOL    HW264690  10.217   7.586  13.660
20953SOL     OW64691   4.761  11.779  10.795
20953SOL    HW164692   4.788  11.731  10.716
20953SOL    HW264693   4.844  11.810  10.833
20954SOL     OW64694   7.641  13.459   2.045
20954SOL    HW164695   7.558  13.419   2.021
20954SOL    HW264696   7.619  13.519   2.116
20955SOL     OW64697   7.445   1.128  11.094
20955SOL    HW164698   7.533   1.116  11.130
20955SOL    HW264699   7.435   1.057  11.031
20956SOL     OW64700   3.975   0.932   5.620
20956SOL    HW164701   4.037   0.998   5.590
20956SOL    HW264702   4.004   0.851   5.578
20957SOL     OW64703   7.017   5.284   6.136
20957SOL    HW164704   6.931   5.327   6.129
20957SOL    HW264705   7.043   5.299   6.227
20958SOL     OW64706   2.492   7.492  12.815
20958SOL    HW164707   2.484   7.439  12.895
20958SOL    HW264708   2.585   7.484  12.791
20959SOL     OW64709  14.713   3.212  13.498
20959SOL    HW164710  14.793   3.198  13.448
20959SOL    HW264711  14.675   3.291  13.460
20960SOL     OW64712   1.996   1.616  13.459
20960SOL    HW164713   2.023   1.533  13.500
20960SOL    HW264714   2.060   1.629  13.388
20961SOL     OW64715   0.151  12.795   0.762
20961SOL    HW164716   0.107  12.716   0.794
20961SOL    HW264717   0.086  12.837   0.706
20962SOL     OW64718  11.414  12.495  12.117
20962SOL    HW164719  11.367  12.419  12.083
20962SOL    HW264720  11.505  12.480  12.091
20963SOL     OW64721   2.968   1.438  12.684
20963SOL    HW164722   2.917   1.519  12.674
20963SOL    HW264723   2.972   1.423  12.778
20964SOL     OW64724   2.569   2.704   7.298
20964SOL    HW164725   2.524   2.681   7.217
20964SOL    HW264726   2.508   2.679   7.367
20965SOL     OW64727  12.324   1.989   8.534
20965SOL    HW164728  12.293   1.899   8.542
20965SOL    HW264729  12.277   2.037   8.601
20966SOL     OW64730   1.901  13.457  14.648
20966SOL    HW164731   1.953  13.379  14.629
20966SOL    HW264732   1.965  13.527  14.655
20967SOL     OW64733   5.829   4.655  10.239
20967SOL    HW164734   5.831   4.581  10.299
20967SOL    HW264735   5.780   4.624  10.163
20968SOL     OW64736   8.797   4.581   9.468
20968SOL    HW164737   8.826   4.648   9.530
20968SOL    HW264738   8.779   4.504   9.522
20969SOL     OW64739   1.038   2.627   9.851
20969SOL    HW164740   1.058   2.571   9.926
20969SOL    HW264741   0.977   2.575   9.798
20970SOL     OW64742   2.978   6.851  10.976
20970SOL    HW164743   3.014   6.769  10.942
20970SOL    HW264744   2.891   6.828  11.009
20971SOL     OW64745  11.487   2.713   0.404
20971SOL    HW164746  11.565   2.728   0.351
20971SOL    HW264747  11.499   2.768   0.481
20972SOL     OW64748  11.686   0.540   2.610
20972SOL    HW164749  11.723   0.550   2.522
20972SOL    HW264750  11.595   0.567   2.601
20973SOL     OW64751  10.639  14.530   4.317
20973SOL    HW164752  10.715  14.505   4.264
20973SOL    HW264753  10.565  14.488   4.273
20974SOL     OW64754   9.721   5.483  10.007
20974SOL    HW164755   9.625   5.481  10.004
20974SOL    HW264756   9.747   5.391   9.996
20975SOL     OW64757   3.589  11.979   1.225
20975SOL    HW164758   3.526  11.928   1.277
20975SOL    HW264759   3.661  11.919   1.209
20976SOL     OW64760   2.761   9.060   9.300
20976SOL    HW164761   2.810   8.989   9.258
20976SOL    HW264762   2.678   9.063   9.252
20977SOL     OW64763   7.106   8.236   0.146
20977SOL    HW164764   7.090   8.176   0.074
20977SOL    HW264765   7.076   8.321   0.115
20978SOL     OW64766   2.617   7.998  12.862
20978SOL    HW164767   2.625   8.093  12.850
20978SOL    HW264768   2.558   7.970  12.791
20979SOL     OW64769   4.992   0.630  13.744
20979SOL    HW164770   5.037   0.557  13.702
20979SOL    HW264771   4.961   0.594  13.827
20980SOL     OW64772  12.316  14.078  11.705
20980SOL    HW164773  12.394  14.089  11.650
20980SOL    HW264774  12.295  13.984  11.698
20981SOL     OW64775   7.762   3.212   3.270
20981SOL    HW164776   7.805   3.293   3.296
20981SOL    HW264777   7.668   3.229   3.281
20982SOL     OW64778   9.947   9.447  10.609
20982SOL    HW164779   9.923   9.381  10.674
20982SOL    HW264780   9.920   9.409  10.526
20983SOL     OW64781   2.642  12.955   3.075
20983SOL    HW164782   2.694  12.948   3.155
20983SOL    HW264783   2.606  12.868   3.062
20984SOL     OW64784  10.752   2.008   8.642
20984SOL    HW164785  10.767   2.049   8.557
20984SOL    HW264786  10.717   1.921   8.621
20985SOL     OW64787   6.082   5.758   6.923
20985SOL    HW164788   6.068   5.730   7.013
20985SOL    HW264789   6.067   5.853   6.924
20986SOL     OW64790   2.349  10.554   8.408
20986SOL    HW164791   2.425  10.604   8.436
20986SOL    HW264792   2.275  10.597   8.452
20987SOL     OW64793   5.307   0.655  13.169
20987SOL    HW164794   5.402   0.656  13.170
20987SOL    HW264795   5.283   0.659  13.076
20988SOL     OW64796   5.325   9.587   2.591
20988SOL    HW164797   5.356   9.674   2.567
20988SOL    HW264798   5.385   9.560   2.662
20989SOL     OW64799  13.870   7.266   3.252
20989SOL    HW164800  13.818   7.307   3.322
20989SOL    HW264801  13.823   7.288   3.172
20990SOL     OW64802  13.793   5.337   8.743
20990SOL    HW164803  13.723   5.347   8.807
20990SOL    HW264804  13.831   5.424   8.735
20991SOL     OW64805   9.261  14.151  12.985
20991SOL    HW164806   9.354  14.154  13.007
20991SOL    HW264807   9.258  14.173  12.892
20992SOL     OW64808  13.917   5.877  10.969
20992SOL    HW164809  13.966   5.929  11.033
20992SOL    HW264810  13.828   5.876  11.003
20993SOL     OW64811   0.589  11.460   2.073
20993SOL    HW164812   0.657  11.516   2.036
20993SOL    HW264813   0.577  11.391   2.007
20994SOL     OW64814  11.076  14.049   3.045
20994SOL    HW164815  11.008  14.098   3.092
20994SOL    HW264816  11.099  13.977   3.105
20995SOL     OW64817   9.644   6.355  14.087
20995SOL    HW164818   9.648   6.391  13.999
20995SOL    HW264819   9.719   6.392  14.132
20996SOL     OW64820   5.268   5.202   4.794
20996SOL    HW164821   5.297   5.111   4.798
20996SOL    HW264822   5.323   5.242   4.727
20997SOL     OW64823   5.344  12.825   9.342
20997SOL    HW164824   5.318  12.880   9.268
20997SOL    HW264825   5.419  12.870   9.380
20998SOL     OW64826   2.221   9.558   7.459
20998SOL    HW164827   2.297   9.568   7.517
20998SOL    HW264828   2.244   9.608   7.381
20999SOL     OW64829   6.129   8.999   8.000
20999SOL    HW164830   6.202   9.061   7.999
20999SOL    HW264831   6.116   8.978   8.093
21000SOL     OW64832  13.893   2.872   8.652
21000SOL    HW164833  13.967   2.812   8.647
21000SOL    HW264834  13.852   2.867   8.566
21001SOL     OW64835  10.730   6.681  14.519
21001SOL    HW164836  10.666   6.741  14.558
21001SOL    HW264837  10.717   6.598  14.566
21002SOL     OW64838  12.178   3.853  11.474
21002SOL    HW164839  12.232   3.777  11.494
21002SOL    HW264840  12.240   3.917  11.436
21003SOL     OW64841   2.108  12.119   3.972
21003SOL    HW164842   2.178  12.054   3.983
21003SOL    HW264843   2.108  12.169   4.053
21004SOL     OW64844   7.513   3.230   9.949
21004SOL    HW164845   7.566   3.152   9.932
21004SOL    HW264846   7.431   3.214   9.902
21005SOL     OW64847   6.562  13.308   2.873
21005SOL    HW164848   6.622  13.380   2.890
21005SOL    HW264849   6.608  13.230   2.905
21006SOL     OW64850   6.313  13.996   1.788
21006SOL    HW164851   6.326  14.083   1.827
21006SOL    HW264852   6.218  13.990   1.774
21007SOL     OW64853  10.119   2.940   5.057
21007SOL    HW164854  10.074   2.893   5.127
21007SOL    HW264855  10.053   3.001   5.023
21008SOL     OW64856   4.677   4.022   7.649
21008SOL    HW164857   4.708   3.933   7.635
21008SOL    HW264858   4.631   4.018   7.733
21009SOL     OW64859  10.705  10.679   6.739
21009SOL    HW164860  10.734  10.618   6.807
21009SOL    HW264861  10.732  10.765   6.771
21010SOL     OW64862  13.991   0.524  10.603
21010SOL    HW164863  14.076   0.509  10.644
21010SOL    HW264864  13.930   0.537  10.676
21011SOL     OW64865   4.926   0.183   7.577
21011SOL    HW164866   4.973   0.102   7.599
21011SOL    HW264867   4.989   0.253   7.594
21012SOL     OW64868  11.533   9.387  14.501
21012SOL    HW164869  11.529   9.419  14.411
21012SOL    HW264870  11.504   9.296  14.496
21013SOL     OW64871   3.895   2.830   4.646
21013SOL    HW164872   3.960   2.898   4.636
21013SOL    HW264873   3.814   2.868   4.612
21014SOL     OW64874   3.560   7.286   6.179
21014SOL    HW164875   3.577   7.260   6.270
21014SOL    HW264876   3.471   7.254   6.162
21015SOL     OW64877   7.939  10.469   8.858
21015SOL    HW164878   7.850  10.435   8.848
21015SOL    HW264879   7.928  10.564   8.853
21016SOL     OW64880   4.753   5.463  11.763
21016SOL    HW164881   4.822   5.406  11.730
21016SOL    HW264882   4.789   5.500  11.844
21017SOL     OW64883  14.466  12.463   3.065
21017SOL    HW164884  14.455  12.390   3.004
21017SOL    HW264885  14.416  12.535   3.026
21018SOL     OW64886   6.396   3.102   1.454
21018SOL    HW164887   6.368   3.016   1.483
21018SOL    HW264888   6.402   3.154   1.534
21019SOL     OW64889   4.768   6.320  10.283
21019SOL    HW164890   4.709   6.369  10.226
21019SOL    HW264891   4.851   6.367  10.278
21020SOL     OW64892   6.945  10.734   4.946
21020SOL    HW164893   6.947  10.670   4.875
21020SOL    HW264894   7.026  10.784   4.934
21021SOL     OW64895   5.389   7.251   8.753
21021SOL    HW164896   5.345   7.284   8.676
21021SOL    HW264897   5.381   7.321   8.818
21022SOL     OW64898   9.630   6.526   9.226
21022SOL    HW164899   9.688   6.472   9.280
21022SOL    HW264900   9.542   6.510   9.261
21023SOL     OW64901   1.276  13.494  12.835
21023SOL    HW164902   1.182  13.475  12.831
21023SOL    HW264903   1.318  13.412  12.811
21024SOL     OW64904  12.941  14.074   7.460
21024SOL    HW164905  13.005  14.058   7.391
21024SOL    HW264906  12.897  13.990   7.472
21025SOL     OW64907   6.464  14.490  11.280
21025SOL    HW164908   6.445  14.422  11.217
21025SOL    HW264909   6.553  14.471  11.309
21026SOL     OW64910   2.798  14.860  12.771
21026SOL    HW164911   2.834  14.777  12.802
21026SOL    HW264912   2.872   0.031  12.729
21027SOL     OW64913  10.515   7.649   9.334
21027SOL    HW164914  10.580   7.614   9.273
21027SOL    HW264915  10.566   7.699   9.398
21028SOL     OW64916   0.945   7.537  14.863
21028SOL    HW164917   0.995   7.500  14.791
21028SOL    HW264918   0.862   7.489  14.862
21029SOL     OW64919   0.302   8.986  11.134
21029SOL    HW164920   0.322   9.057  11.073
21029SOL    HW264921   0.211   9.002  11.160
21030SOL     OW64922  11.278   7.402  13.834
21030SOL    HW164923  11.369   7.412  13.864
21030SOL    HW264924  11.266   7.472  13.770
21031SOL     OW64925  11.421  10.656   3.311
21031SOL    HW164926  11.390  10.685   3.225
21031SOL    HW264927  11.345  10.666   3.368
21032SOL     OW64928   1.262   8.447   4.298
21032SOL    HW164929   1.169   8.454   4.322
21032SOL    HW264930   1.262   8.396   4.217
21033SOL     OW64931  13.480   4.849   0.769
21033SOL    HW164932  13.474   4.771   0.714
21033SOL    HW264933  13.399   4.848   0.820
21034SOL     OW64934  10.881   3.541   3.152
21034SOL    HW164935  10.856   3.490   3.230
21034SOL    HW264936  10.958   3.496   3.118
21035SOL     OW64937   6.427   5.841   1.609
21035SOL    HW164938   6.518   5.838   1.639
21035SOL    HW264939   6.414   5.760   1.561
21036SOL     OW64940   1.950   4.167  11.614
21036SOL    HW164941   1.973   4.238  11.554
21036SOL    HW264942   1.855   4.172  11.622
21037SOL     OW64943   1.683   3.068  11.901
21037SOL    HW164944   1.741   3.097  11.830
21037SOL    HW264945   1.680   3.142  11.962
21038SOL     OW64946   0.889   8.606   1.119
21038SOL    HW164947   0.855   8.611   1.209
21038SOL    HW264948   0.864   8.519   1.089
21039SOL     OW64949   6.131   2.095  11.243
21039SOL    HW164950   6.062   2.152  11.207
21039SOL    HW264951   6.090   2.052  11.317
21040SOL     OW64952   9.272  13.688   1.414
21040SOL    HW164953   9.210  13.698   1.487
21040SOL    HW264954   9.217  13.676   1.337
21041SOL     OW64955   7.123   7.482  14.612
21041SOL    HW164956   7.175   7.405  14.588
21041SOL    HW264957   7.131   7.487  14.707
21042SOL     OW64958   8.493   4.955   5.158
21042SOL    HW164959   8.413   4.938   5.209
21042SOL    HW264960   8.555   4.889   5.188
21043SOL     OW64961  14.780   7.902   1.982
21043SOL    HW164962  14.788   7.818   2.027
21043SOL    HW264963  14.816   7.966   2.043
21044SOL     OW64964   4.529   9.725  11.156
21044SOL    HW164965   4.624   9.717  11.150
21044SOL    HW264966   4.497   9.635  11.158
21045SOL     OW64967  14.472   3.391   3.282
21045SOL    HW164968  14.543   3.334   3.310
21045SOL    HW264969  14.394   3.335   3.285
21046SOL     OW64970   3.192   3.446   2.768
21046SOL    HW164971   3.129   3.512   2.738
21046SOL    HW264972   3.220   3.401   2.688
21047SOL     OW64973   2.712   9.828   8.363
21047SOL    HW164974   2.712   9.921   8.342
21047SOL    HW264975   2.797   9.796   8.335
21048SOL     OW64976   8.508   4.281   0.816
21048SOL    HW164977   8.570   4.345   0.849
21048SOL    HW264978   8.423   4.325   0.822
21049SOL     OW64979   5.612  12.261   9.291
21049SOL    HW164980   5.560  12.248   9.211
21049SOL    HW264981   5.679  12.325   9.266
21050SOL     OW64982   1.362   7.900  10.971
21050SOL    HW164983   1.384   7.808  10.987
21050SOL    HW264984   1.446   7.943  10.957
21051SOL     OW64985   7.705   6.557   4.087
21051SOL    HW164986   7.791   6.596   4.101
21051SOL    HW264987   7.719   6.496   4.014
21052SOL     OW64988  11.248   7.739   2.746
21052SOL    HW164989  11.336   7.701   2.755
21052SOL    HW264990  11.198   7.671   2.700
21053SOL     OW64991   6.589   3.633   0.057
21053SOL    HW164992   6.606   3.553   0.008
21053SOL    HW264993   6.545   3.691  14.867
21054SOL     OW64994  13.733   8.298  11.388
21054SOL    HW164995  13.675   8.229  11.422
21054SOL    HW264996  13.821   8.269  11.412
21055SOL     OW64997  13.757   2.443   9.906
21055SOL    HW164998  13.793   2.487   9.984
21055SOL    HW264999  13.662   2.451   9.916
21056SOL     OW65000   1.449  11.342  11.942
21056SOL    HW165001   1.392  11.357  11.867
21056SOL    HW265002   1.447  11.247  11.955
21057SOL     OW65003  12.710  13.309   3.325
21057SOL    HW165004  12.766  13.386   3.331
21057SOL    HW265005  12.655  13.313   3.404
21058SOL     OW65006   4.856  12.622   1.535
21058SOL    HW165007   4.784  12.680   1.511
21058SOL    HW265008   4.859  12.557   1.465
21059SOL     OW65009  10.041  12.154   6.475
21059SOL    HW165010  10.031  12.064   6.505
21059SOL    HW265011   9.960  12.198   6.503
21060SOL     OW65012  13.908   7.223   9.878
21060SOL    HW165013  13.996   7.251   9.855
21060SOL    HW265014  13.860   7.304   9.895
21061SOL     OW65015  11.964  10.064  13.164
21061SOL    HW165016  11.947   9.971  13.178
21061SOL    HW265017  11.914  10.086  13.086
21062SOL     OW65018   6.166   2.461   1.391
21062SOL    HW165019   6.182   2.424   1.304
21062SOL    HW265020   6.239   2.429   1.444
21063SOL     OW65021   8.240   7.889  12.328
21063SOL    HW165022   8.261   7.973  12.287
21063SOL    HW265023   8.208   7.835  12.257
21064SOL     OW65024   4.910   3.697   3.091
21064SOL    HW165025   4.997   3.729   3.114
21064SOL    HW265026   4.910   3.605   3.118
21065SOL     OW65027   3.494  11.693   7.679
21065SOL    HW165028   3.582  11.713   7.647
21065SOL    HW265029   3.477  11.757   7.748
21066SOL     OW65030  10.177   6.657  12.536
21066SOL    HW165031  10.139   6.611  12.461
21066SOL    HW265032  10.233   6.593  12.579
21067SOL     OW65033   2.410   0.947   5.070
21067SOL    HW165034   2.437   1.030   5.110
21067SOL    HW265035   2.320   0.963   5.041
21068SOL     OW65036   7.001  13.405  14.102
21068SOL    HW165037   6.932  13.468  14.081
21068SOL    HW265038   6.968  13.358  14.179
21069SOL     OW65039  10.865   8.219   0.868
21069SOL    HW165040  10.791   8.182   0.917
21069SOL    HW265041  10.919   8.262   0.934
21070SOL     OW65042   1.166   8.657  13.901
21070SOL    HW165043   1.107   8.693  13.834
21070SOL    HW265044   1.148   8.563  13.900
21071SOL     OW65045  12.071   4.791   2.065
21071SOL    HW165046  12.020   4.862   2.025
21071SOL    HW265047  12.013   4.755   2.132
21072SOL     OW65048   2.603  12.509  11.762
21072SOL    HW165049   2.522  12.490  11.716
21072SOL    HW265050   2.651  12.427  11.764
21073SOL     OW65051   9.975   5.376   8.705
21073SOL    HW165052   9.939   5.464   8.714
21073SOL    HW265053  10.032   5.364   8.781
21074SOL     OW65054   1.510   9.484   0.447
21074SOL    HW165055   1.520   9.397   0.408
21074SOL    HW265056   1.418   9.489   0.474
21075SOL     OW65057   4.401  14.016  10.370
21075SOL    HW165058   4.351  14.092  10.398
21075SOL    HW265059   4.489  14.051  10.353
21076SOL     OW65060   4.352   7.387  10.237
21076SOL    HW165061   4.391   7.448  10.173
21076SOL    HW265062   4.274   7.433  10.269
21077SOL     OW65063   6.973   6.472  12.343
21077SOL    HW165064   6.965   6.564  12.368
21077SOL    HW265065   7.019   6.431  12.416
21078SOL     OW65066  13.434   5.423   8.146
21078SOL    HW165067  13.376   5.463   8.211
21078SOL    HW265068  13.487   5.361   8.197
21079SOL     OW65069   7.729   5.630   6.382
21079SOL    HW165070   7.671   5.674   6.319
21079SOL    HW265071   7.669   5.592   6.446
21080SOL     OW65072  13.285   8.445   5.498
21080SOL    HW165073  13.260   8.530   5.463
21080SOL    HW265074  13.269   8.384   5.426
21081SOL     OW65075  14.733  13.035   7.977
21081SOL    HW165076  14.653  13.042   8.030
21081SOL    HW265077  14.707  13.071   7.892
21082SOL     OW65078  11.585   8.801   0.489
21082SOL    HW165079  11.549   8.865   0.427
21082SOL    HW265080  11.592   8.720   0.439
21083SOL     OW65081   0.249  12.259  13.908
21083SOL    HW165082   0.297  12.339  13.929
21083SOL    HW265083   0.189  12.285  13.838
21084SOL     OW65084  14.815   6.313   3.000
21084SOL    HW165085   0.030   6.278   2.988
21084SOL    HW265086  14.766   6.281   2.924
21085SOL     OW65087   7.680   4.902   9.030
21085SOL    HW165088   7.714   4.818   9.000
21085SOL    HW265089   7.758   4.955   9.045
21086SOL     OW65090   7.106   8.642  13.749
21086SOL    HW165091   7.064   8.682  13.672
21086SOL    HW265092   7.172   8.706  13.776
21087SOL     OW65093  11.822   3.101   9.953
21087SOL    HW165094  11.882   3.109  10.027
21087SOL    HW265095  11.780   3.016   9.966
21088SOL     OW65096  12.515   6.256  14.383
21088SOL    HW165097  12.455   6.263  14.457
21088SOL    HW265098  12.542   6.164  14.381
21089SOL     OW65099  10.545  13.995  14.417
21089SOL    HW165100  10.626  13.969  14.461
21089SOL    HW265101  10.480  13.931  14.447
21090SOL     OW65102   4.520   4.069   4.580
21090SOL    HW165103   4.530   4.083   4.486
21090SOL    HW265104   4.604   4.030   4.606
21091SOL     OW65105   8.739   6.970  13.597
21091SOL    HW165106   8.714   6.915  13.671
21091SOL    HW265107   8.818   7.016  13.626
21092SOL     OW65108  13.000   6.774   3.688
21092SOL    HW165109  13.061   6.840   3.655
21092SOL    HW265110  13.054   6.695   3.698
21093SOL     OW65111   3.140   1.072   0.697
21093SOL    HW165112   3.217   1.016   0.685
21093SOL    HW265113   3.160   1.123   0.776
21094SOL     OW65114   6.447  10.354   1.417
21094SOL    HW165115   6.379  10.400   1.466
21094SOL    HW265116   6.511  10.329   1.484
21095SOL     OW65117   9.547   9.137   0.121
21095SOL    HW165118   9.515   9.175   0.039
21095SOL    HW265119   9.511   9.195   0.189
21096SOL     OW65120   5.283   8.466   5.318
21096SOL    HW165121   5.213   8.477   5.383
21096SOL    HW265122   5.245   8.494   5.236
21097SOL     OW65123   2.971  13.235  14.263
21097SOL    HW165124   2.932  13.150  14.285
21097SOL    HW265125   2.961  13.242  14.168
21098SOL     OW65126  10.332  11.891   4.537
21098SOL    HW165127  10.249  11.888   4.584
21098SOL    HW265128  10.315  11.845   4.455
21099SOL     OW65129   0.124   7.146   0.391
21099SOL    HW165130   0.207   7.112   0.357
21099SOL    HW265131   0.147   7.232   0.427
21100SOL     OW65132   2.080  11.830   2.282
21100SOL    HW165133   2.047  11.741   2.268
21100SOL    HW265134   2.145  11.820   2.351
21101SOL     OW65135   1.455  11.215  12.726
21101SOL    HW165136   1.472  11.308  12.742
21101SOL    HW265137   1.427  11.181  12.811
21102SOL     OW65138   9.714  10.268  12.672
21102SOL    HW165139   9.647  10.240  12.610
21102SOL    HW265140   9.670  10.264  12.757
21103SOL     OW65141  12.211  14.270  13.683
21103SOL    HW165142  12.291  14.256  13.733
21103SOL    HW265143  12.218  14.360  13.651
21104SOL     OW65144   3.707  11.021   2.349
21104SOL    HW165145   3.657  11.096   2.319
21104SOL    HW265146   3.693  10.954   2.281
21105SOL     OW65147  14.597  10.866  12.380
21105SOL    HW165148  14.536  10.874  12.454
21105SOL    HW265149  14.674  10.915  12.408
21106SOL     OW65150   0.829   0.888   3.037
21106SOL    HW165151   0.772   0.963   3.019
21106SOL    HW265152   0.903   0.925   3.086
21107SOL     OW65153   4.640   2.056   3.278
21107SOL    HW165154   4.713   2.077   3.220
21107SOL    HW265155   4.600   1.978   3.240
21108SOL     OW65156   8.976  12.637  10.362
21108SOL    HW165157   9.001  12.545  10.373
21108SOL    HW265158   8.985  12.653  10.268
21109SOL     OW65159   2.727  11.437  10.757
21109SOL    HW165160   2.789  11.458  10.827
21109SOL    HW265161   2.642  11.435  10.800
21110SOL     OW65162  13.167  11.175   4.280
21110SOL    HW165163  13.183  11.087   4.248
21110SOL    HW265164  13.156  11.228   4.201
21111SOL     OW65165  12.287  14.197   1.236
21111SOL    HW165166  12.251  14.284   1.217
21111SOL    HW265167  12.243  14.170   1.317
21112SOL     OW65168  14.307   9.548   1.461
21112SOL    HW165169  14.272   9.578   1.377
21112SOL    HW265170  14.360   9.472   1.439
21113SOL     OW65171   5.647  10.607  11.434
21113SOL    HW165172   5.556  10.592  11.409
21113SOL    HW265173   5.687  10.520  11.433
21114SOL     OW65174   3.784   2.098  11.149
21114SOL    HW165175   3.728   2.041  11.203
21114SOL    HW265176   3.742   2.184  11.153
21115SOL     OW65177  11.570   2.304   7.529
21115SOL    HW165178  11.561   2.336   7.439
21115SOL    HW265179  11.481   2.281   7.555
21116SOL     OW65180  10.464  11.049   9.625
21116SOL    HW165181  10.520  10.982   9.665
21116SOL    HW265182  10.492  11.131   9.665
21117SOL     OW65183  13.014   0.890   9.197
21117SOL    HW165184  13.028   0.906   9.291
21117SOL    HW265185  12.924   0.916   9.181
21118SOL     OW65186  10.781   9.604   5.844
21118SOL    HW165187  10.788   9.700   5.847
21118SOL    HW265188  10.697   9.585   5.886
21119SOL     OW65189   8.051  10.849   4.407
21119SOL    HW165190   8.052  10.829   4.501
21119SOL    HW265191   7.961  10.834   4.380
21120SOL     OW65192  12.189   9.190   8.916
21120SOL    HW165193  12.100   9.222   8.900
21120SOL    HW265194  12.236   9.210   8.835
21121SOL     OW65195   1.643   9.744   5.516
21121SOL    HW165196   1.650   9.745   5.421
21121SOL    HW265197   1.705   9.676   5.544
21122SOL     OW65198  12.838  10.795   8.965
21122SOL    HW165199  12.769  10.861   8.962
21122SOL    HW265200  12.835  10.753   8.879
21123SOL     OW65201   4.066   9.049   0.029
21123SOL    HW165202   4.146   9.089   0.065
21123SOL    HW265203   3.997   9.112   0.050
21124SOL     OW65204   7.960   1.073   8.398
21124SOL    HW165205   8.014   0.995   8.410
21124SOL    HW265206   7.967   1.092   8.304
21125SOL     OW65207   4.768  13.518  10.769
21125SOL    HW165208   4.805  13.465  10.698
21125SOL    HW265209   4.826  13.595  10.774
21126SOL     OW65210  12.369  13.004   3.501
21126SOL    HW165211  12.275  12.984   3.506
21126SOL    HW265212  12.396  12.968   3.416
21127SOL     OW65213   3.735   6.959   0.931
21127SOL    HW165214   3.704   7.014   1.003
21127SOL    HW265215   3.797   7.015   0.884
21128SOL     OW65216   7.738   6.671  11.297
21128SOL    HW165217   7.832   6.661  11.306
21128SOL    HW265218   7.726   6.718  11.214
21129SOL     OW65219  11.799   4.578  13.164
21129SOL    HW165220  11.874   4.530  13.199
21129SOL    HW265221  11.793   4.552  13.073
21130SOL     OW65222  10.191   5.334  12.538
21130SOL    HW165223  10.123   5.355  12.602
21130SOL    HW265224  10.144   5.327  12.455
21131SOL     OW65225   4.745   7.322   0.997
21131SOL    HW165226   4.817   7.385   0.994
21131SOL    HW265227   4.748   7.287   1.086
21132SOL     OW65228   3.903   9.207   7.187
21132SOL    HW165229   3.956   9.275   7.230
21132SOL    HW265230   3.888   9.241   7.099
21133SOL     OW65231  10.894   5.467   9.195
21133SOL    HW165232  10.920   5.375   9.190
21133SOL    HW265233  10.799   5.465   9.211
21134SOL     OW65234   3.149   7.837   1.813
21134SOL    HW165235   3.076   7.858   1.754
21134SOL    HW265236   3.121   7.757   1.858
21135SOL     OW65237  12.018   5.344   3.643
21135SOL    HW165238  12.013   5.249   3.654
21135SOL    HW265239  11.992   5.359   3.552
21136SOL     OW65240   1.575   4.216   1.838
21136SOL    HW165241   1.530   4.136   1.808
21136SOL    HW265242   1.504   4.274   1.865
21137SOL     OW65243  10.757  14.342   5.346
21137SOL    HW165244  10.767  14.261   5.296
21137SOL    HW265245  10.698  14.396   5.293
21138SOL     OW65246   3.162   6.645   2.225
21138SOL    HW165247   3.245   6.671   2.265
21138SOL    HW265248   3.152   6.703   2.150
21139SOL     OW65249   8.989  12.067   3.155
21139SOL    HW165250   9.012  12.120   3.079
21139SOL    HW265251   8.895  12.049   3.145
21140SOL     OW65252   6.956   6.353   4.304
21140SOL    HW165253   6.987   6.439   4.331
21140SOL    HW265254   6.940   6.362   4.210
21141SOL     OW65255  13.346   7.617  14.543
21141SOL    HW165256  13.381   7.702  14.567
21141SOL    HW265257  13.324   7.575  14.626
21142SOL     OW65258   6.718   9.364  13.193
21142SOL    HW165259   6.797   9.418  13.199
21142SOL    HW265260   6.706   9.350  13.099
21143SOL     OW65261  14.545  13.827   7.763
21143SOL    HW165262  14.628  13.780   7.762
21143SOL    HW265263  14.495  13.786   7.834
21144SOL     OW65264  10.212  13.269   6.542
21144SOL    HW165265  10.172  13.215   6.610
21144SOL    HW265266  10.211  13.214   6.464
21145SOL     OW65267  11.343   5.226  12.545
21145SOL    HW165268  11.248   5.234  12.533
21145SOL    HW265269  11.378   5.215  12.456
21146SOL     OW65270   8.970   6.762  10.456
21146SOL    HW165271   8.911   6.689  10.474
21146SOL    HW265272   8.984   6.804  10.541
21147SOL     OW65273   4.062   6.123   4.036
21147SOL    HW165274   4.000   6.118   4.108
21147SOL    HW265275   4.131   6.182   4.066
21148SOL     OW65276   0.894   8.794   1.968
21148SOL    HW165277   0.988   8.809   1.985
21148SOL    HW265278   0.892   8.712   1.920
21149SOL     OW65279   2.147   5.831   4.790
21149SOL    HW165280   2.066   5.781   4.787
21149SOL    HW265281   2.130   5.909   4.737
21150SOL     OW65282   4.486  14.688   6.730
21150SOL    HW165283   4.443  14.725   6.652
21150SOL    HW265284   4.422  14.626   6.766
21151SOL     OW65285   7.466   7.083   2.594
21151SOL    HW165286   7.498   7.122   2.675
21151SOL    HW265287   7.428   6.999   2.621
21152SOL     OW65288   9.500   8.257  11.945
21152SOL    HW165289   9.470   8.189  11.884
21152SOL    HW265290   9.546   8.319  11.889
21153SOL     OW65291   8.917   8.556   2.609
21153SOL    HW165292   8.965   8.622   2.559
21153SOL    HW265293   8.825   8.582   2.600
21154SOL     OW65294   7.128   5.813  14.529
21154SOL    HW165295   7.104   5.859  14.609
21154SOL    HW265296   7.207   5.765  14.551
21155SOL     OW65297  10.049  10.309   6.257
21155SOL    HW165298   9.995  10.261   6.320
21155SOL    HW265299  10.058  10.249   6.183
21156SOL     OW65300   5.336  13.473   6.333
21156SOL    HW165301   5.430  13.492   6.334
21156SOL    HW265302   5.305  13.514   6.252
21157SOL     OW65303   9.598   2.493  11.625
21157SOL    HW165304   9.510   2.458  11.627
21157SOL    HW265305   9.616   2.511  11.533
21158SOL     OW65306   9.384  14.747  10.698
21158SOL    HW165307   9.413  14.656  10.691
21158SOL    HW265308   9.323  14.746  10.772
21159SOL     OW65309   4.227   3.756   5.037
21159SOL    HW165310   4.213   3.851   5.034
21159SOL    HW265311   4.166   3.721   4.973
21160SOL     OW65312   2.346   9.688   9.729
21160SOL    HW165313   2.365   9.599   9.757
21160SOL    HW265314   2.372   9.690   9.637
21161SOL     OW65315   4.465   3.612   2.137
21161SOL    HW165316   4.507   3.697   2.146
21161SOL    HW265317   4.373   3.633   2.121
21162SOL     OW65318  10.524  12.974  11.642
21162SOL    HW165319  10.480  12.935  11.718
21162SOL    HW265320  10.538  12.900  11.583
21163SOL     OW65321   6.632   1.877  12.298
21163SOL    HW165322   6.548   1.850  12.260
21163SOL    HW265323   6.686   1.901  12.223
21164SOL     OW65324   4.706  12.995   4.022
21164SOL    HW165325   4.783  13.051   4.033
21164SOL    HW265326   4.632  13.056   4.017
21165SOL     OW65327   4.762   9.543   8.742
21165SOL    HW165328   4.724   9.566   8.826
21165SOL    HW265329   4.687   9.531   8.684
21166SOL     OW65330   0.692   1.162  12.375
21166SOL    HW165331   0.621   1.226  12.375
21166SOL    HW265332   0.741   1.181  12.295
21167SOL     OW65333  14.118   9.299   9.947
21167SOL    HW165334  14.054   9.369   9.960
21167SOL    HW265335  14.073   9.220   9.975
21168SOL     OW65336   7.682   6.497   1.880
21168SOL    HW165337   7.592   6.466   1.866
21168SOL    HW265338   7.729   6.470   1.802
21169SOL     OW65339   8.744   2.210   1.063
21169SOL    HW165340   8.822   2.213   1.008
21169SOL    HW265341   8.722   2.302   1.079
21170SOL     OW65342   1.307  13.468   2.702
21170SOL    HW165343   1.339  13.555   2.726
21170SOL    HW265344   1.213  13.472   2.718
21171SOL     OW65345   4.682   4.754   0.213
21171SOL    HW165346   4.623   4.820   0.175
21171SOL    HW265347   4.761   4.803   0.236
21172SOL     OW65348   0.217   4.312   2.270
21172SOL    HW165349   0.214   4.233   2.323
21172SOL    HW265350   0.283   4.294   2.202
21173SOL     OW65351   2.684   8.825   8.208
21173SOL    HW165352   2.615   8.780   8.160
21173SOL    HW265353   2.765   8.798   8.164
21174SOL     OW65354   5.136   3.918   9.975
21174SOL    HW165355   5.155   3.936   9.883
21174SOL    HW265356   5.200   3.850   9.999
21175SOL     OW65357   5.984   6.488   0.896
21175SOL    HW165358   6.015   6.520   0.811
21175SOL    HW265359   6.004   6.559   0.957
21176SOL     OW65360  12.778   2.053  11.898
21176SOL    HW165361  12.759   2.143  11.873
21176SOL    HW265362  12.803   2.010  11.815
21177SOL     OW65363   1.869  14.396  11.321
21177SOL    HW165364   1.839  14.324  11.377
21177SOL    HW265365   1.964  14.393  11.328
21178SOL     OW65366   3.217   9.930   0.323
21178SOL    HW165367   3.210   9.970   0.237
21178SOL    HW265368   3.301   9.884   0.322
21179SOL     OW65369  11.717  10.772   5.437
21179SOL    HW165370  11.648  10.826   5.398
21179SOL    HW265371  11.761  10.830   5.499
21180SOL     OW65372   8.699  13.351   1.269
21180SOL    HW165373   8.620  13.320   1.225
21180SOL    HW265374   8.700  13.446   1.255
21181SOL     OW65375   9.481  13.235   3.490
21181SOL    HW165376   9.549  13.266   3.550
21181SOL    HW265377   9.402  13.230   3.543
21182SOL     OW65378   2.590   5.245  13.130
21182SOL    HW165379   2.504   5.284  13.140
21182SOL    HW265380   2.651   5.319  13.130
21183SOL     OW65381   9.740  13.280   1.931
21183SOL    HW165382   9.786  13.315   1.855
21183SOL    HW265383   9.796  13.305   2.005
21184SOL     OW65384   5.774   9.310   8.207
21184SOL    HW165385   5.803   9.371   8.139
21184SOL    HW265386   5.723   9.244   8.159
21185SOL     OW65387  12.383   4.824  14.495
21185SOL    HW165388  12.382   4.778  14.579
21185SOL    HW265389  12.353   4.913  14.515
21186SOL     OW65390   3.777   6.434  13.175
21186SOL    HW165391   3.719   6.507  13.153
21186SOL    HW265392   3.727   6.381  13.235
21187SOL     OW65393   5.165   0.559  14.140
21187SOL    HW165394   5.102   0.488  14.153
21187SOL    HW265395   5.114   0.627  14.094
21188SOL     OW65396   0.761   9.054   2.959
21188SOL    HW165397   0.680   9.015   2.993
21188SOL    HW265398   0.816   8.979   2.936
21189SOL     OW65399  12.532   8.285  14.857
21189SOL    HW165400  12.438   8.300  14.851
21189SOL    HW265401  12.541   8.200   0.026
21190SOL     OW65402  13.252  13.729   4.930
21190SOL    HW165403  13.203  13.690   5.002
21190SOL    HW265404  13.185  13.767   4.873
21191SOL     OW65405   6.788  10.581   0.659
21191SOL    HW165406   6.724  10.513   0.676
21191SOL    HW265407   6.796  10.585   0.564
21192SOL     OW65408   5.692   1.966   7.625
21192SOL    HW165409   5.724   1.885   7.584
21192SOL    HW265410   5.639   1.935   7.699
21193SOL     OW65411   3.322   3.384  10.249
21193SOL    HW165412   3.349   3.475  10.237
21193SOL    HW265413   3.290   3.380  10.339
21194SOL     OW65414   9.282  11.323   3.538
21194SOL    HW165415   9.310  11.414   3.535
21194SOL    HW265416   9.305  11.293   3.626
21195SOL     OW65417   3.542   2.887   1.074
21195SOL    HW165418   3.591   2.838   1.139
21195SOL    HW265419   3.569   2.978   1.087
21196SOL     OW65420   3.784   3.423  10.816
21196SOL    HW165421   3.825   3.483  10.754
21196SOL    HW265422   3.772   3.475  10.895
21197SOL     OW65423   0.294  10.163   1.656
21197SOL    HW165424   0.337  10.130   1.577
21197SOL    HW265425   0.276  10.085   1.708
21198SOL     OW65426   4.920   2.523   4.038
21198SOL    HW165427   4.883   2.609   4.015
21198SOL    HW265428   4.924   2.524   4.134
21199SOL     OW65429   5.874   4.143  11.121
21199SOL    HW165430   5.885   4.138  11.026
21199SOL    HW265431   5.779   4.145  11.134
21200SOL     OW65432   2.274   7.553   5.678
21200SOL    HW165433   2.335   7.624   5.660
21200SOL    HW265434   2.329   7.482   5.711
21201SOL     OW65435  14.169   4.689   5.382
21201SOL    HW165436  14.134   4.734   5.460
21201SOL    HW265437  14.170   4.757   5.315
21202SOL     OW65438  13.158   8.060   7.883
21202SOL    HW165439  13.153   8.152   7.910
21202SOL    HW265440  13.074   8.022   7.911
21203SOL     OW65441   3.761   2.443   0.982
21203SOL    HW165442   3.702   2.368   0.985
21203SOL    HW265443   3.785   2.459   1.073
21204SOL     OW65444   8.697   1.860   2.262
21204SOL    HW165445   8.792   1.846   2.257
21204SOL    HW265446   8.667   1.795   2.324
21205SOL     OW65447   7.172   0.741  11.934
21205SOL    HW165448   7.086   0.701  11.945
21205SOL    HW265449   7.233   0.667  11.936
21206SOL     OW65450   6.375   4.745  13.296
21206SOL    HW165451   6.360   4.713  13.385
21206SOL    HW265452   6.470   4.753  13.288
21207SOL     OW65453   2.813   4.757  13.454
21207SOL    HW165454   2.894   4.715  13.426
21207SOL    HW265455   2.773   4.788  13.372
21208SOL     OW65456   3.244   1.939   6.148
21208SOL    HW165457   3.336   1.956   6.166
21208SOL    HW265458   3.198   2.014   6.186
21209SOL     OW65459   8.387   9.289   8.144
21209SOL    HW165460   8.441   9.216   8.175
21209SOL    HW265461   8.387   9.352   8.216
21210SOL     OW65462   2.408  12.706  10.136
21210SOL    HW165463   2.405  12.685  10.043
21210SOL    HW265464   2.401  12.802  10.139
21211SOL     OW65465   5.861   8.267   6.341
21211SOL    HW165466   5.786   8.264   6.400
21211SOL    HW265467   5.935   8.236   6.393
21212SOL     OW65468   9.796   1.709   6.866
21212SOL    HW165469   9.735   1.783   6.876
21212SOL    HW265470   9.878   1.740   6.905
21213SOL     OW65471   2.516   8.673  14.174
21213SOL    HW165472   2.505   8.686  14.080
21213SOL    HW265473   2.460   8.739  14.214
21214SOL     OW65474   0.512   7.972   2.470
21214SOL    HW165475   0.589   8.002   2.517
21214SOL    HW265476   0.445   7.960   2.538
21215SOL     OW65477   1.862   5.797   0.999
21215SOL    HW165478   1.808   5.793   1.078
21215SOL    HW265479   1.938   5.742   1.019
21216SOL     OW65480  12.101  11.992   6.738
21216SOL    HW165481  12.189  12.010   6.704
21216SOL    HW265482  12.085  12.063   6.801
21217SOL     OW65483  12.047   0.533   1.903
21217SOL    HW165484  12.026   0.454   1.953
21217SOL    HW265485  12.005   0.604   1.951
21218SOL     OW65486  10.268   8.655   5.016
21218SOL    HW165487  10.219   8.737   5.026
21218SOL    HW265488  10.233   8.599   5.085
21219SOL     OW65489   5.119   0.100  13.621
21219SOL    HW165490   5.187   0.076  13.557
21219SOL    HW265491   5.163   0.159  13.682
21220SOL     OW65492  12.536   8.893   0.717
21220SOL    HW165493  12.493   8.894   0.802
21220SOL    HW265494  12.630   8.885   0.738
21221SOL     OW65495  11.771   6.904   2.817
21221SOL    HW165496  11.711   6.893   2.891
21221SOL    HW265497  11.857   6.879   2.851
21222SOL     OW65498   4.923  13.129  14.351
21222SOL    HW165499   4.847  13.169  14.309
21222SOL    HW265500   4.910  13.035  14.341
21223SOL     OW65501   9.163  11.699  13.421
21223SOL    HW165502   9.221  11.774  13.431
21223SOL    HW265503   9.100  11.709  13.492
21224SOL     OW65504  11.088  12.384   3.137
21224SOL    HW165505  11.117  12.293   3.148
21224SOL    HW265506  11.118  12.428   3.216
21225SOL     OW65507   6.065   3.261   3.857
21225SOL    HW165508   6.108   3.181   3.829
21225SOL    HW265509   6.018   3.292   3.779
21226SOL     OW65510   9.533  10.219   9.184
21226SOL    HW165511   9.573  10.240   9.268
21226SOL    HW265512   9.598  10.164   9.139
21227SOL     OW65513  13.056   4.175   4.186
21227SOL    HW165514  13.060   4.219   4.102
21227SOL    HW265515  13.017   4.090   4.166
21228SOL     OW65516   4.781   3.958   6.331
21228SOL    HW165517   4.703   3.923   6.288
21228SOL    HW265518   4.813   4.025   6.271
21229SOL     OW65519   9.579   7.418   6.881
21229SOL    HW165520   9.629   7.387   6.957
21229SOL    HW265521   9.523   7.487   6.916
21230SOL     OW65522  12.740   7.415  10.866
21230SOL    HW165523  12.698   7.409  10.952
21230SOL    HW265524  12.783   7.330  10.854
21231SOL     OW65525   1.532   6.460   0.138
21231SOL    HW165526   1.460   6.523   0.143
21231SOL    HW265527   1.547   6.434   0.229
21232SOL     OW65528  12.305  11.824   7.148
21232SOL    HW165529  12.221  11.866   7.166
21232SOL    HW265530  12.309  11.819   7.053
21233SOL     OW65531   2.077  12.270  10.652
21233SOL    HW165532   2.079  12.342  10.589
21233SOL    HW265533   2.110  12.309  10.733
21234SOL     OW65534   0.446  12.701   9.992
21234SOL    HW165535   0.471  12.701   9.900
21234SOL    HW265536   0.525  12.671  10.038
21235SOL     OW65537   6.759   4.342  10.044
21235SOL    HW165538   6.733   4.276  10.109
21235SOL    HW265539   6.751   4.425  10.089
21236SOL     OW65540   6.377  12.168   8.805
21236SOL    HW165541   6.362  12.110   8.730
21236SOL    HW265542   6.459  12.137   8.844
21237SOL     OW65543   5.765   5.959   0.865
21237SOL    HW165544   5.774   5.925   0.954
21237SOL    HW265545   5.680   5.925   0.835
21238SOL     OW65546   3.132   5.293  13.212
21238SOL    HW165547   3.190   5.250  13.274
21238SOL    HW265548   3.055   5.237  13.209
21239SOL     OW65549  10.670  12.247  10.266
21239SOL    HW165550  10.713  12.231  10.350
21239SOL    HW265551  10.741  12.246  10.202
21240SOL     OW65552  10.337  12.568  12.881
21240SOL    HW165553  10.326  12.623  12.958
21240SOL    HW265554  10.278  12.494  12.896
21241SOL     OW65555   7.585   8.885  12.538
21241SOL    HW165556   7.664   8.866  12.590
21241SOL    HW265557   7.514   8.881  12.602
21242SOL     OW65558  13.865   1.306   6.773
21242SOL    HW165559  13.947   1.290   6.820
21242SOL    HW265560  13.871   1.253   6.694
21243SOL     OW65561  14.847   6.014   6.900
21243SOL    HW165562  14.808   5.984   6.983
21243SOL    HW265563  14.819   6.105   6.892
21244SOL     OW65564   0.149   7.178   7.653
21244SOL    HW165565   0.139   7.090   7.617
21244SOL    HW265566   0.126   7.236   7.581
21245SOL     OW65567  10.184   2.657  12.968
21245SOL    HW165568  10.244   2.726  12.997
21245SOL    HW265569  10.199   2.586  13.030
21246SOL     OW65570  12.577   4.912  10.760
21246SOL    HW165571  12.646   4.925  10.824
21246SOL    HW265572  12.559   5.000  10.725
21247SOL     OW65573  14.005  10.377   3.211
21247SOL    HW165574  14.007  10.466   3.246
21247SOL    HW265575  14.052  10.384   3.127
21248SOL     OW65576   6.825   0.072   6.232
21248SOL    HW165577   6.763   0.110   6.169
21248SOL    HW265578   6.881   0.015   6.180
21249SOL     OW65579   2.267  12.624  11.511
21249SOL    HW165580   2.305  12.542  11.545
21249SOL    HW265581   2.173  12.612  11.520
21250SOL     OW65582  12.106   4.533   2.708
21250SOL    HW165583  12.182   4.591   2.706
21250SOL    HW265584  12.081   4.523   2.616
21251SOL     OW65585   5.855   9.677   9.608
21251SOL    HW165586   5.898   9.682   9.523
21251SOL    HW265587   5.822   9.766   9.623
21252SOL     OW65588  13.872   5.577  11.696
21252SOL    HW165589  13.809   5.528  11.642
21252SOL    HW265590  13.950   5.584  11.640
21253SOL     OW65591  11.735   2.981   3.406
21253SOL    HW165592  11.641   2.969   3.394
21253SOL    HW265593  11.743   3.035   3.485
21254SOL     OW65594  11.369  14.416   4.038
21254SOL    HW165595  11.433  14.397   3.970
21254SOL    HW265596  11.291  14.444   3.990
21255SOL     OW65597   9.817  13.297   6.024
21255SOL    HW165598   9.786  13.223   5.971
21255SOL    HW265599   9.739  13.325   6.072
21256SOL     OW65600   6.256   4.339   0.677
21256SOL    HW165601   6.178   4.343   0.733
21256SOL    HW265602   6.312   4.274   0.718
21257SOL     OW65603   5.315  10.643  12.274
21257SOL    HW165604   5.280  10.630  12.362
21257SOL    HW265605   5.360  10.561  12.254
21258SOL     OW65606   0.341   2.180   3.141
21258SOL    HW165607   0.416   2.225   3.101
21258SOL    HW265608   0.362   2.087   3.133
21259SOL     OW65609   9.237   5.007  10.178
21259SOL    HW165610   9.228   5.078  10.114
21259SOL    HW265611   9.186   4.935  10.139
21260SOL     OW65612  10.994  10.919  10.397
21260SOL    HW165613  10.968  10.827  10.401
21260SOL    HW265614  10.913  10.967  10.409
21261SOL     OW65615  12.540   6.766   0.573
21261SOL    HW165616  12.474   6.828   0.606
21261SOL    HW265617  12.512   6.745   0.485
21262SOL     OW65618   6.034   7.002   5.459
21262SOL    HW165619   6.123   6.968   5.449
21262SOL    HW265620   5.979   6.923   5.464
21263SOL     OW65621   2.399   1.564  13.974
21263SOL    HW165622   2.371   1.650  14.004
21263SOL    HW265623   2.492   1.573  13.956
21264SOL     OW65624   7.823   8.371   9.598
21264SOL    HW165625   7.763   8.328   9.659
21264SOL    HW265626   7.784   8.357   9.512
21265SOL     OW65627   3.862   9.613  11.857
21265SOL    HW165628   3.905   9.685  11.812
21265SOL    HW265629   3.893   9.618  11.947
21266SOL     OW65630   8.988   2.917   9.839
21266SOL    HW165631   8.900   2.911   9.802
21266SOL    HW265632   9.013   2.825   9.854
21267SOL     OW65633   1.627  12.295  14.701
21267SOL    HW165634   1.551  12.354  14.711
21267SOL    HW265635   1.600  12.233  14.634
21268SOL     OW65636   1.860  13.052  10.409
21268SOL    HW165637   1.776  13.090  10.386
21268SOL    HW265638   1.844  12.958  10.415
21269SOL     OW65639   2.266   2.012   3.123
21269SOL    HW165640   2.330   2.080   3.141
21269SOL    HW265641   2.210   2.010   3.201
21270SOL     OW65642  13.559  14.200   9.887
21270SOL    HW165643  13.480  14.188   9.834
21270SOL    HW265644  13.535  14.168   9.974
21271SOL     OW65645   0.812   5.668  11.587
21271SOL    HW165646   0.866   5.738  11.551
21271SOL    HW265647   0.779   5.704  11.670
21272SOL     OW65648  12.613   8.074   0.189
21272SOL    HW165649  12.554   8.006   0.157
21272SOL    HW265650  12.680   8.080   0.121
21273SOL     OW65651   0.160  12.823   9.795
21273SOL    HW165652   0.113  12.786   9.871
21273SOL    HW265653   0.203  12.901   9.829
21274SOL     OW65654  10.084   7.352  11.747
21274SOL    HW165655  10.068   7.349  11.653
21274SOL    HW265656  10.034   7.427  11.778
21275SOL     OW65657  10.426   8.359   5.424
21275SOL    HW165658  10.485   8.397   5.360
21275SOL    HW265659  10.430   8.419   5.499
21276SOL     OW65660   8.175  13.552   3.172
21276SOL    HW165661   8.091  13.517   3.203
21276SOL    HW265662   8.187  13.633   3.222
21277SOL     OW65663   7.057   4.017   6.647
21277SOL    HW165664   7.009   4.030   6.729
21277SOL    HW265665   7.039   3.926   6.623
21278SOL     OW65666   4.291  13.946  12.303
21278SOL    HW165667   4.223  13.940  12.236
21278SOL    HW265668   4.250  13.996  12.374
21279SOL     OW65669  14.487   3.372   9.230
21279SOL    HW165670  14.394   3.351   9.222
21279SOL    HW265671  14.489   3.452   9.283
21280SOL     OW65672  13.294   2.188   5.415
21280SOL    HW165673  13.268   2.278   5.437
21280SOL    HW265674  13.389   2.189   5.420
21281SOL     OW65675  11.933  10.937  10.695
21281SOL    HW165676  11.963  10.849  10.673
21281SOL    HW265677  11.960  10.991  10.621
21282SOL     OW65678   0.578  10.378   0.421
21282SOL    HW165679   0.612  10.289   0.435
21282SOL    HW265680   0.503  10.366   0.363
21283SOL     OW65681   1.381   2.584  10.301
21283SOL    HW165682   1.432   2.552  10.376
21283SOL    HW265683   1.444   2.636  10.250
21284SOL     OW65684   8.889   2.080   9.795
21284SOL    HW165685   8.920   1.990   9.780
21284SOL    HW265686   8.812   2.070   9.851
21285SOL     OW65687   3.499   3.163   0.499
21285SOL    HW165688   3.490   3.249   0.457
21285SOL    HW265689   3.409   3.133   0.509
21286SOL     OW65690  10.623   4.986   7.135
21286SOL    HW165691  10.615   4.892   7.149
21286SOL    HW265692  10.559   5.025   7.194
21287SOL     OW65693   8.770   5.403   7.046
21287SOL    HW165694   8.752   5.348   7.122
21287SOL    HW265695   8.858   5.436   7.061
21288SOL     OW65696   4.139   8.983  14.075
21288SOL    HW165697   4.071   8.953  14.137
21288SOL    HW265698   4.210   8.920  14.087
21289SOL     OW65699   2.446   8.990   4.456
21289SOL    HW165700   2.421   8.898   4.463
21289SOL    HW265701   2.373   9.038   4.495
21290SOL     OW65702  10.794   6.384   0.924
21290SOL    HW165703  10.857   6.446   0.888
21290SOL    HW265704  10.740   6.359   0.849
21291SOL     OW65705  12.303  14.638   4.563
21291SOL    HW165706  12.308  14.633   4.658
21291SOL    HW265707  12.389  14.672   4.536
21292SOL     OW65708   6.580   3.254  11.625
21292SOL    HW165709   6.543   3.325  11.678
21292SOL    HW265710   6.588   3.180  11.685
21293SOL     OW65711  11.783   0.413  10.775
21293SOL    HW165712  11.734   0.335  10.747
21293SOL    HW265713  11.839   0.382  10.846
21294SOL     OW65714  14.380   0.937  13.782
21294SOL    HW165715  14.293   0.900  13.767
21294SOL    HW265716  14.408   0.969  13.696
21295SOL     OW65717  10.729   7.736   3.391
21295SOL    HW165718  10.774   7.808   3.434
21295SOL    HW265719  10.794   7.666   3.386
21296SOL     OW65720   9.968   8.514   8.486
21296SOL    HW165721   9.964   8.437   8.430
21296SOL    HW265722  10.002   8.481   8.570
21297SOL     OW65723   5.431   1.382   8.465
21297SOL    HW165724   5.461   1.346   8.382
21297SOL    HW265725   5.433   1.477   8.453
21298SOL     OW65726   4.540   5.834   4.337
21298SOL    HW165727   4.525   5.876   4.422
21298SOL    HW265728   4.636   5.828   4.330
21299SOL     OW65729   0.160   9.924  12.165
21299SOL    HW165730   0.211   9.887  12.237
21299SOL    HW265731   0.211   9.903  12.087
21300SOL     OW65732   6.602  10.755  12.960
21300SOL    HW165733   6.589  10.848  12.943
21300SOL    HW265734   6.687  10.735  12.921
21301SOL     OW65735   4.139   8.072  10.216
21301SOL    HW165736   4.228   8.060  10.247
21301SOL    HW265737   4.118   8.163  10.237
21302SOL     OW65738  10.534   6.012  13.167
21302SOL    HW165739  10.528   6.027  13.261
21302SOL    HW265740  10.458   5.957  13.146
21303SOL     OW65741   5.140   1.620   3.517
21303SOL    HW165742   5.085   1.682   3.470
21303SOL    HW265743   5.176   1.670   3.591
21304SOL     OW65744   3.444   0.421   6.780
21304SOL    HW165745   3.512   0.449   6.717
21304SOL    HW265746   3.419   0.502   6.824
21305SOL     OW65747  13.642  12.946   7.089
21305SOL    HW165748  13.657  13.015   7.153
21305SOL    HW265749  13.627  12.991   7.006
21306SOL     OW65750  11.597   8.284   2.917
21306SOL    HW165751  11.557   8.284   3.003
21306SOL    HW265752  11.533   8.241   2.860
21307SOL     OW65753   9.540  13.883   2.490
21307SOL    HW165754   9.625  13.850   2.460
21307SOL    HW265755   9.539  13.865   2.584
21308SOL     OW65756   1.173   2.259   6.679
21308SOL    HW165757   1.081   2.280   6.695
21308SOL    HW265758   1.218   2.344   6.687
21309SOL     OW65759   6.890  13.384  10.218
21309SOL    HW165760   6.899  13.293  10.246
21309SOL    HW265761   6.973  13.403  10.173
21310SOL     OW65762   9.864  10.736  13.419
21310SOL    HW165763   9.912  10.729  13.502
21310SOL    HW265764   9.783  10.688  13.434
21311SOL     OW65765   2.462   5.758   1.696
21311SOL    HW165766   2.472   5.773   1.602
21311SOL    HW265767   2.389   5.814   1.722
21312SOL     OW65768   0.097   4.883   0.237
21312SOL    HW165769   0.097   4.916   0.327
21312SOL    HW265770   0.145   4.800   0.242
21313SOL     OW65771   2.673   2.054   5.478
21313SOL    HW165772   2.716   1.994   5.540
21313SOL    HW265773   2.649   2.129   5.532
21314SOL     OW65774   2.130   4.755   1.653
21314SOL    HW165775   2.062   4.822   1.648
21314SOL    HW265776   2.097   4.691   1.715
21315SOL     OW65777   2.869  14.733   4.438
21315SOL    HW165778   2.856  14.827   4.448
21315SOL    HW265779   2.780  14.697   4.431
21316SOL     OW65780  14.621   1.205  13.267
21316SOL    HW165781  14.635   1.184  13.175
21316SOL    HW265782  14.590   1.295  13.266
21317SOL     OW65783   4.080   7.818   1.289
21317SOL    HW165784   4.000   7.816   1.341
21317SOL    HW265785   4.111   7.909   1.296
21318SOL     OW65786   4.109  10.095   5.284
21318SOL    HW165787   4.192  10.072   5.242
21318SOL    HW265788   4.108  10.044   5.365
21319SOL     OW65789   6.679  11.429   7.952
21319SOL    HW165790   6.694  11.462   8.040
21319SOL    HW265791   6.693  11.335   7.958
21320SOL     OW65792   7.848  14.667   3.300
21320SOL    HW165793   7.764  14.698   3.266
21320SOL    HW265794   7.902  14.745   3.307
21321SOL     OW65795   0.114  12.942   0.297
21321SOL    HW165796   0.205  12.970   0.294
21321SOL    HW265797   0.115  12.854   0.261
21322SOL     OW65798   6.676   1.082   1.770
21322SOL    HW165799   6.598   1.032   1.746
21322SOL    HW265800   6.672   1.088   1.865
21323SOL     OW65801   9.820  13.721   7.905
21323SOL    HW165802   9.756  13.690   7.970
21323SOL    HW265803   9.870  13.643   7.883
21324SOL     OW65804   1.175  10.109   2.053
21324SOL    HW165805   1.193  10.182   1.993
21324SOL    HW265806   1.224  10.035   2.016
21325SOL     OW65807   4.516  13.300   4.375
21325SOL    HW165808   4.475  13.386   4.383
21325SOL    HW265809   4.508  13.262   4.462
21326SOL     OW65810   7.448   9.161  14.781
21326SOL    HW165811   7.517   9.207  14.827
21326SOL    HW265812   7.492   9.088  14.738
21327SOL     OW65813   4.114   4.932  13.593
21327SOL    HW165814   4.155   5.019  13.597
21327SOL    HW265815   4.174   4.880  13.539
21328SOL     OW65816   4.688   3.998   2.993
21328SOL    HW165817   4.622   4.063   2.968
21328SOL    HW265818   4.713   4.022   3.082
21329SOL     OW65819  14.728  11.062   9.693
21329SOL    HW165820  14.813  11.031   9.662
21329SOL    HW265821  14.746  11.148   9.731
21330SOL     OW65822   5.217  11.409  11.086
21330SOL    HW165823   5.179  11.442  11.005
21330SOL    HW265824   5.220  11.486  11.143
21331SOL     OW65825  10.067   5.700   5.348
21331SOL    HW165826  10.097   5.789   5.365
21331SOL    HW265827  10.146   5.654   5.319
21332SOL     OW65828   3.513   2.272  14.501
21332SOL    HW165829   3.535   2.203  14.439
21332SOL    HW265830   3.418   2.268  14.508
21333SOL     OW65831   3.467   2.651   4.015
21333SOL    HW165832   3.392   2.665   4.073
21333SOL    HW265833   3.542   2.681   4.066
21334SOL     OW65834   2.007   7.750  11.718
21334SOL    HW165835   2.052   7.679  11.763
21334SOL    HW265836   2.075   7.793  11.666
21335SOL     OW65837   0.204   1.878   0.906
21335SOL    HW165838   0.123   1.880   0.856
21335SOL    HW265839   0.264   1.824   0.854
21336SOL     OW65840  11.763  11.104   3.695
21336SOL    HW165841  11.703  11.091   3.769
21336SOL    HW265842  11.719  11.169   3.640
21337SOL     OW65843  13.728   7.028   1.851
21337SOL    HW165844  13.815   7.004   1.883
21337SOL    HW265845  13.716   7.118   1.879
21338SOL     OW65846   3.609   1.974   6.151
21338SOL    HW165847   3.635   1.926   6.230
21338SOL    HW265848   3.653   1.929   6.079
21339SOL     OW65849  13.417  13.247   4.767
21339SOL    HW165850  13.326  13.276   4.777
21339SOL    HW265851  13.416  13.157   4.800
21340SOL     OW65852  11.502   3.725   7.157
21340SOL    HW165853  11.560   3.670   7.210
21340SOL    HW265854  11.558   3.798   7.129
21341SOL     OW65855   4.973   3.597   3.430
21341SOL    HW165856   5.017   3.517   3.460
21341SOL    HW265857   5.039   3.641   3.376
21342SOL     OW65858   8.900   8.356  12.630
21342SOL    HW165859   8.808   8.356  12.603
21342SOL    HW265860   8.935   8.273  12.596
21343SOL     OW65861   2.356  13.750   9.368
21343SOL    HW165862   2.374  13.749   9.462
21343SOL    HW265863   2.437  13.718   9.328
21344SOL     OW65864  12.067   5.638  11.161
21344SOL    HW165865  12.149   5.611  11.203
21344SOL    HW265866  12.092   5.656  11.070
21345SOL     OW65867   1.785   3.392   9.111
21345SOL    HW165868   1.701   3.434   9.093
21345SOL    HW265869   1.763   3.320   9.171
21346SOL     OW65870   7.681  10.044   0.713
21346SOL    HW165871   7.723   9.972   0.760
21346SOL    HW265872   7.598  10.056   0.758
21347SOL     OW65873  13.916   1.019   2.168
21347SOL    HW165874  13.877   1.058   2.089
21347SOL    HW265875  13.852   1.033   2.237
21348SOL     OW65876  14.037   0.059   2.177
21348SOL    HW165877  13.950   0.039   2.142
21348SOL    HW265878  14.028   0.146   2.216
21349SOL     OW65879  11.227  13.668   5.509
21349SOL    HW165880  11.165  13.603   5.476
21349SOL    HW265881  11.299  13.616   5.544
21350SOL     OW65882   8.920  12.372   7.002
21350SOL    HW165883   8.963  12.322   6.933
21350SOL    HW265884   8.947  12.462   6.987
21351SOL     OW65885   7.136  11.249   9.565
21351SOL    HW165886   7.170  11.323   9.616
21351SOL    HW265887   7.074  11.288   9.505
21352SOL     OW65888   0.577   3.101  14.823
21352SOL    HW165889   0.515   3.029  14.828
21352SOL    HW265890   0.651   3.066  14.774
21353SOL     OW65891   2.489   1.083   8.351
21353SOL    HW165892   2.533   1.164   8.324
21353SOL    HW265893   2.560   1.025   8.377
21354SOL     OW65894   9.253  12.847  14.872
21354SOL    HW165895   9.182  12.871  14.813
21354SOL    HW265896   9.212  12.788   0.063
21355SOL     OW65897   7.419  10.904   5.412
21355SOL    HW165898   7.339  10.955   5.426
21355SOL    HW265899   7.489  10.970   5.414
21356SOL     OW65900  14.070  10.010   3.735
21356SOL    HW165901  13.993  10.055   3.702
21356SOL    HW265902  14.115   9.977   3.657
21357SOL     OW65903   9.589  14.431   3.049
21357SOL    HW165904   9.518  14.408   2.988
21357SOL    HW265905   9.550  14.421   3.136
21358SOL     OW65906   5.048   6.574  12.984
21358SOL    HW165907   5.097   6.622  12.918
21358SOL    HW265908   5.113   6.517  13.026
21359SOL     OW65909  10.398   8.296   0.577
21359SOL    HW165910  10.346   8.220   0.549
21359SOL    HW265911  10.344   8.338   0.644
21360SOL     OW65912  14.531   9.266   6.302
21360SOL    HW165913  14.485   9.334   6.253
21360SOL    HW265914  14.490   9.184   6.273
21361SOL     OW65915   0.828   2.673   3.118
21361SOL    HW165916   0.851   2.688   3.210
21361SOL    HW265917   0.857   2.752   3.073
21362SOL     OW65918   4.486   0.098   9.647
21362SOL    HW165919   4.438   0.168   9.603
21362SOL    HW265920   4.569   0.138   9.674
21363SOL     OW65921  12.267   3.754   6.573
21363SOL    HW165922  12.254   3.690   6.502
21363SOL    HW265923  12.191   3.812   6.568
21364SOL     OW65924   0.460   2.558   9.077
21364SOL    HW165925   0.377   2.511   9.077
21364SOL    HW265926   0.525   2.490   9.098
21365SOL     OW65927   7.894  11.619   0.894
21365SOL    HW165928   7.948  11.593   0.820
21365SOL    HW265929   7.821  11.667   0.855
21366SOL     OW65930   4.797   2.380   2.980
21366SOL    HW165931   4.885   2.416   2.989
21366SOL    HW265932   4.776   2.391   2.888
21367SOL     OW65933   7.415   5.102   5.639
21367SOL    HW165934   7.461   5.127   5.558
21367SOL    HW265935   7.405   5.184   5.688
21368SOL     OW65936  12.128  14.634   2.778
21368SOL    HW165937  12.058  14.692   2.809
21368SOL    HW265938  12.086  14.579   2.712
21369SOL     OW65939   5.673   7.858  12.928
21369SOL    HW165940   5.634   7.796  12.990
21369SOL    HW265941   5.627   7.842  12.846
21370SOL     OW65942   4.085   2.377   4.698
21370SOL    HW165943   4.140   2.447   4.733
21370SOL    HW265944   4.022   2.422   4.642
21371SOL     OW65945  10.189   3.723  13.371
21371SOL    HW165946  10.116   3.741  13.312
21371SOL    HW265947  10.247   3.798  13.361
21372SOL     OW65948   1.054   1.987  12.256
21372SOL    HW165949   0.993   2.055  12.229
21372SOL    HW265950   1.001   1.908  12.263
21373SOL     OW65951   2.271   0.197   5.967
21373SOL    HW165952   2.330   0.194   6.042
21373SOL    HW265953   2.328   0.185   5.891
21374SOL     OW65954  11.945   6.510   3.097
21374SOL    HW165955  11.907   6.495   3.010
21374SOL    HW265956  11.873   6.547   3.148
21375SOL     OW65957   8.398   3.832   4.007
21375SOL    HW165958   8.312   3.790   4.016
21375SOL    HW265959   8.460   3.760   4.000
21376SOL     OW65960   8.778   7.917   0.659
21376SOL    HW165961   8.771   7.968   0.739
21376SOL    HW265962   8.730   7.968   0.594
21377SOL     OW65963  14.211   3.214   5.143
21377SOL    HW165964  14.283   3.157   5.171
21377SOL    HW265965  14.248   3.267   5.073
21378SOL     OW65966   9.931   9.215   9.739
21378SOL    HW165967   9.941   9.303   9.776
21378SOL    HW265968   9.846   9.185   9.770
21379SOL     OW65969  14.639   0.329   0.772
21379SOL    HW165970  14.626   0.246   0.726
21379SOL    HW265971  14.565   0.383   0.745
21380SOL     OW65972   2.821  14.824   2.752
21380SOL    HW165973   2.814  14.753   2.816
21380SOL    HW265974   2.896   0.003   2.783
21381SOL     OW65975   9.511   0.656  13.002
21381SOL    HW165976   9.473   0.617  12.923
21381SOL    HW265977   9.551   0.737  12.972
21382SOL     OW65978  14.264  11.860   6.921
21382SOL    HW165979  14.328  11.853   6.991
21382SOL    HW265980  14.193  11.913   6.958
21383SOL     OW65981  12.063  13.632  11.605
21383SOL    HW165982  12.048  13.666  11.517
21383SOL    HW265983  12.084  13.539  11.592
21384SOL     OW65984   0.642   7.050   0.600
21384SOL    HW165985   0.591   7.126   0.569
21384SOL    HW265986   0.581   6.977   0.593
21385SOL     OW65987   7.587   0.568   7.307
21385SOL    HW165988   7.671   0.525   7.288
21385SOL    HW265989   7.545   0.510   7.370
21386SOL     OW65990   7.868  12.908  11.958
21386SOL    HW165991   7.778  12.891  11.929
21386SOL    HW265992   7.860  12.986  12.013
21387SOL     OW65993  12.206   1.286   6.063
21387SOL    HW165994  12.155   1.363   6.087
21387SOL    HW265995  12.158   1.247   5.990
21388SOL     OW65996  11.348  14.372  12.282
21388SOL    HW165997  11.418  14.307  12.283
21388SOL    HW265998  11.345  14.406  12.372
21389SOL     OW65999  12.079  10.033  14.145
21389SOL    HW166000  12.070  10.001  14.235
21389SOL    HW266001  12.139   9.972  14.103
21390SOL     OW66002   8.101   3.128   8.836
21390SOL    HW166003   8.143   3.195   8.783
21390SOL    HW266004   8.013   3.121   8.799
21391SOL     OW66005  12.332   8.419   2.989
21391SOL    HW166006  12.421   8.401   3.019
21391SOL    HW266007  12.276   8.385   3.060
21392SOL     OW66008   8.134  12.762   0.299
21392SOL    HW166009   8.127  12.815   0.219
21392SOL    HW266010   8.125  12.672   0.269
21393SOL     OW66011   8.005   8.039   7.301
21393SOL    HW166012   8.095   8.011   7.285
21393SOL    HW266013   7.956   8.010   7.224
21394SOL     OW66014  14.005   4.939  14.441
21394SOL    HW166015  13.915   4.906  14.431
21394SOL    HW266016  14.050   4.869  14.490
21395SOL     OW66017   6.693   9.087   3.080
21395SOL    HW166018   6.694   9.178   3.112
21395SOL    HW266019   6.648   9.092   2.996
21396SOL     OW66020  14.495   3.920  14.469
21396SOL    HW166021  14.496   3.891  14.560
21396SOL    HW266022  14.578   3.966  14.457
21397SOL     OW66023   4.352  13.043   8.286
21397SOL    HW166024   4.268  13.036   8.241
21397SOL    HW266025   4.377  12.952   8.304
21398SOL     OW66026   7.876   0.211   1.970
21398SOL    HW166027   7.870   0.254   2.055
21398SOL    HW266028   7.899   0.120   1.991
21399SOL     OW66029   1.641  13.188   6.718
21399SOL    HW166030   1.652  13.167   6.810
21399SOL    HW266031   1.660  13.106   6.672
21400SOL     OW66032   7.310  11.406   0.075
21400SOL    HW166033   7.249  11.478   0.055
21400SOL    HW266034   7.318  11.358  14.865
21401SOL     OW66035  11.091   4.539   5.447
21401SOL    HW166036  11.025   4.529   5.515
21401SOL    HW266037  11.173   4.510   5.489
21402SOL     OW66038   8.405   9.415   9.238
21402SOL    HW166039   8.453   9.372   9.167
21402SOL    HW266040   8.316   9.380   9.230
21403SOL     OW66041  12.932   2.752   2.810
21403SOL    HW166042  12.882   2.673   2.831
21403SOL    HW266043  13.014   2.719   2.774
21404SOL     OW66044   0.867   2.290   7.025
21404SOL    HW166045   0.948   2.279   7.073
21404SOL    HW266046   0.799   2.295   7.093
21405SOL     OW66047   5.431  12.943  13.873
21405SOL    HW166048   5.463  12.853  13.873
21405SOL    HW266049   5.389  12.953  13.788
21406SOL     OW66050  13.814   2.006   2.290
21406SOL    HW166051  13.721   2.012   2.312
21406SOL    HW266052  13.859   2.055   2.359
21407SOL     OW66053  10.650  10.718   8.186
21407SOL    HW166054  10.668  10.626   8.207
21407SOL    HW266055  10.622  10.756   8.269
21408SOL     OW66056   1.922   1.071   5.202
21408SOL    HW166057   1.985   1.140   5.180
21408SOL    HW266058   1.893   1.092   5.290
21409SOL     OW66059  10.299   5.225   6.964
21409SOL    HW166060  10.257   5.253   7.046
21409SOL    HW266061  10.391   5.249   6.974
21410SOL     OW66062   3.628   0.114   1.347
21410SOL    HW166063   3.652   0.042   1.288
21410SOL    HW266064   3.653   0.083   1.434
21411SOL     OW66065  12.627   3.068   6.632
21411SOL    HW166066  12.559   3.039   6.572
21411SOL    HW266067  12.673   2.988   6.658
21412SOL     OW66068  13.624   8.029   1.097
21412SOL    HW166069  13.586   8.093   1.158
21412SOL    HW266070  13.629   8.076   1.014
21413SOL     OW66071   8.004   2.138  12.033
21413SOL    HW166072   7.910   2.123  12.034
21413SOL    HW266073   8.018   2.203  12.102
21414SOL     OW66074   0.014   9.316   3.855
21414SOL    HW166075   0.105   9.288   3.865
21414SOL    HW266076   0.019   9.411   3.853
21415SOL     OW66077   1.875   1.500   6.980
21415SOL    HW166078   1.832   1.549   7.050
21415SOL    HW266079   1.894   1.414   7.019
21416SOL     OW66080   2.120  12.487  12.558
21416SOL    HW166081   2.038  12.442  12.537
21416SOL    HW266082   2.093  12.573  12.589
21417SOL     OW66083   0.362   3.786  12.648
21417SOL    HW166084   0.287   3.746  12.693
21417SOL    HW266085   0.353   3.880  12.664
21418SOL     OW66086   4.733   0.941   8.806
21418SOL    HW166087   4.683   0.865   8.776
21418SOL    HW266088   4.792   0.960   8.733
21419SOL     OW66089  11.524   2.541  10.915
21419SOL    HW166090  11.563   2.465  10.958
21419SOL    HW266091  11.432   2.518  10.903
21420SOL     OW66092   6.094   0.846   4.463
21420SOL    HW166093   6.015   0.895   4.483
21420SOL    HW266094   6.129   0.820   4.548
21421SOL     OW66095   9.523  14.237   5.390
21421SOL    HW166096   9.455  14.273   5.447
21421SOL    HW266097   9.559  14.163   5.439
21422SOL     OW66098   5.460   0.167   7.596
21422SOL    HW166099   5.439   0.142   7.686
21422SOL    HW266100   5.381   0.211   7.564
21423SOL     OW66101   7.078  12.203   1.106
21423SOL    HW166102   7.155  12.233   1.154
21423SOL    HW266103   7.097  12.111   1.087
21424SOL     OW66104   9.971   6.176   7.831
21424SOL    HW166105  10.055   6.185   7.785
21424SOL    HW266106   9.937   6.092   7.801
21425SOL     OW66107   6.490   4.583   5.517
21425SOL    HW166108   6.405   4.617   5.489
21425SOL    HW266109   6.543   4.661   5.532
21426SOL     OW66110   5.674   4.595   3.105
21426SOL    HW166111   5.635   4.629   3.185
21426SOL    HW266112   5.617   4.627   3.035
21427SOL     OW66113  13.293  13.183   8.776
21427SOL    HW166114  13.208  13.189   8.733
21427SOL    HW266115  13.304  13.267   8.821
21428SOL     OW66116   5.303   0.634   8.696
21428SOL    HW166117   5.346   0.707   8.740
21428SOL    HW266118   5.367   0.603   8.632
21429SOL     OW66119  10.897   8.106   8.305
21429SOL    HW166120  10.802   8.119   8.305
21429SOL    HW266121  10.912   8.036   8.369
21430SOL     OW66122   7.423   1.846   3.447
21430SOL    HW166123   7.511   1.876   3.424
21430SOL    HW266124   7.402   1.890   3.529
21431SOL     OW66125  14.059  14.010   9.631
21431SOL    HW166126  14.132  14.021   9.691
21431SOL    HW266127  14.073  14.075   9.562
21432SOL     OW66128   0.777   5.275   5.507
21432SOL    HW166129   0.825   5.215   5.451
21432SOL    HW266130   0.809   5.362   5.482
21433SOL     OW66131  13.744  14.000   4.633
21433SOL    HW166132  13.727  14.082   4.678
21433SOL    HW266133  13.694  13.935   4.682
21434SOL     OW66134  11.479  10.014   2.981
21434SOL    HW166135  11.553  10.011   3.043
21434SOL    HW266136  11.462   9.923   2.959
21435SOL     OW66137   2.652  10.735   6.099
21435SOL    HW166138   2.668  10.739   6.004
21435SOL    HW266139   2.604  10.815   6.118
21436SOL     OW66140  12.472   2.431   0.412
21436SOL    HW166141  12.390   2.396   0.378
21436SOL    HW266142  12.521   2.353   0.441
21437SOL     OW66143  10.829   9.948   8.329
21437SOL    HW166144  10.881   9.996   8.265
21437SOL    HW266145  10.862   9.858   8.324
21438SOL     OW66146   4.593  12.635   8.254
21438SOL    HW166147   4.660  12.704   8.251
21438SOL    HW266148   4.510  12.682   8.252
21439SOL     OW66149  10.486   6.624   0.976
21439SOL    HW166150  10.569   6.662   1.005
21439SOL    HW266151  10.470   6.552   1.037
21440SOL     OW66152   9.937   2.401   2.388
21440SOL    HW166153   9.988   2.382   2.467
21440SOL    HW266154   9.883   2.323   2.374
21441SOL     OW66155   7.286   7.959   0.431
21441SOL    HW166156   7.275   8.053   0.412
21441SOL    HW266157   7.278   7.954   0.527
21442SOL     OW66158   8.428   4.599   6.689
21442SOL    HW166159   8.369   4.674   6.682
21442SOL    HW266160   8.400   4.553   6.768
21443SOL     OW66161  13.263   9.925   4.222
21443SOL    HW166162  13.328   9.983   4.263
21443SOL    HW266163  13.190   9.924   4.284
21444SOL     OW66164   8.128  13.858  10.065
21444SOL    HW166165   8.129  13.947  10.031
21444SOL    HW266166   8.190  13.859  10.138
21445SOL     OW66167  10.209  10.392   8.409
21445SOL    HW166168  10.242  10.335   8.340
21445SOL    HW266169  10.286  10.440   8.440
21446SOL     OW66170   5.099   1.255  14.677
21446SOL    HW166171   5.068   1.291  14.594
21446SOL    HW266172   5.161   1.320  14.710
21447SOL     OW66173   7.215   2.659   9.572
21447SOL    HW166174   7.179   2.727   9.514
21447SOL    HW266175   7.211   2.697   9.659
21448SOL     OW66176   2.227  13.431   4.341
21448SOL    HW166177   2.271  13.501   4.391
21448SOL    HW266178   2.241  13.455   4.249
21449SOL     OW66179  12.093  12.157   9.690
21449SOL    HW166180  12.067  12.066   9.696
21449SOL    HW266181  12.018  12.206   9.723
21450SOL     OW66182  13.320   2.655   5.531
21450SOL    HW166183  13.372   2.735   5.541
21450SOL    HW266184  13.230   2.682   5.548
21451SOL     OW66185   8.771   8.329   6.289
21451SOL    HW166186   8.813   8.243   6.288
21451SOL    HW266187   8.833   8.386   6.334
21452SOL     OW66188   9.134  10.252   6.984
21452SOL    HW166189   9.209  10.276   7.038
21452SOL    HW266190   9.146  10.302   6.903
21453SOL     OW66191   8.817   1.645   9.371
21453SOL    HW166192   8.811   1.565   9.424
21453SOL    HW266193   8.750   1.633   9.303
21454SOL     OW66194   4.492   4.846   8.486
21454SOL    HW166195   4.556   4.846   8.414
21454SOL    HW266196   4.546   4.841   8.565
21455SOL     OW66197   5.825  13.796   1.681
21455SOL    HW166198   5.898  13.734   1.677
21455SOL    HW266199   5.826  13.841   1.597
21456SOL     OW66200   0.646   4.006  10.354
21456SOL    HW166201   0.707   3.932  10.350
21456SOL    HW266202   0.606   4.000  10.441
21457SOL     OW66203   9.599   0.319  14.190
21457SOL    HW166204   9.537   0.257  14.228
21457SOL    HW266205   9.665   0.265  14.148
21458SOL     OW66206  14.690   6.924   1.238
21458SOL    HW166207  14.617   6.865   1.259
21458SOL    HW266208  14.648   6.998   1.194
21459SOL     OW66209   9.402   2.277   2.549
21459SOL    HW166210   9.487   2.251   2.514
21459SOL    HW266211   9.342   2.209   2.519
21460SOL     OW66212   7.700   4.703  13.541
21460SOL    HW166213   7.712   4.730  13.450
21460SOL    HW266214   7.754   4.764  13.591
21461SOL     OW66215   5.003  13.495  13.425
21461SOL    HW166216   5.083  13.445  13.441
21461SOL    HW266217   4.992  13.494  13.330
21462SOL     OW66218  14.039   6.773  11.112
21462SOL    HW166219  14.054   6.708  11.044
21462SOL    HW266220  13.943   6.780  11.117
21463SOL     OW66221   3.041   4.052  14.417
21463SOL    HW166222   2.986   4.063  14.495
21463SOL    HW266223   2.981   4.019  14.350
21464SOL     OW66224   3.422   3.616  10.106
21464SOL    HW166225   3.492   3.651  10.162
21464SOL    HW266226   3.377   3.694  10.073
21465SOL     OW66227   7.780   9.074   2.382
21465SOL    HW166228   7.788   9.082   2.287
21465SOL    HW266229   7.707   9.133   2.405
21466SOL     OW66230   5.857   1.433  11.731
21466SOL    HW166231   5.768   1.428  11.765
21466SOL    HW266232   5.874   1.346  11.693
21467SOL     OW66233  11.155  14.293   4.839
21467SOL    HW166234  11.227  14.256   4.789
21467SOL    HW266235  11.095  14.328   4.773
21468SOL     OW66236  11.310   5.786   9.737
21468SOL    HW166237  11.316   5.729   9.813
21468SOL    HW266238  11.233   5.841   9.755
21469SOL     OW66239   8.032   3.409   9.952
21469SOL    HW166240   8.073   3.330   9.986
21469SOL    HW266241   8.100   3.476   9.959
21470SOL     OW66242   1.112  12.696   0.179
21470SOL    HW166243   1.113  12.604   0.207
21470SOL    HW266244   1.157  12.743   0.248
21471SOL     OW66245  10.621  11.697   8.185
21471SOL    HW166246  10.535  11.730   8.160
21471SOL    HW266247  10.609  11.665   8.275
21472SOL     OW66248   0.938   4.146  10.393
21472SOL    HW166249   0.847   4.174  10.402
21472SOL    HW266250   0.958   4.102  10.476
21473SOL     OW66251  14.172   4.024   7.321
21473SOL    HW166252  14.171   4.093   7.255
21473SOL    HW266253  14.081   3.999   7.332
21474SOL     OW66254   9.634  13.891   1.099
21474SOL    HW166255   9.542  13.917   1.088
21474SOL    HW266256   9.639  13.855   1.187
21475SOL     OW66257  14.227   9.721  14.480
21475SOL    HW166258  14.232   9.670  14.399
21475SOL    HW266259  14.161   9.789  14.461
21476SOL     OW66260  12.887   7.887   9.309
21476SOL    HW166261  12.823   7.826   9.273
21476SOL    HW266262  12.942   7.911   9.234
21477SOL     OW66263  12.080   0.405   5.275
21477SOL    HW166264  12.084   0.445   5.188
21477SOL    HW266265  12.171   0.407   5.306
21478SOL     OW66266   5.900  12.694   7.400
21478SOL    HW166267   5.983  12.666   7.363
21478SOL    HW266268   5.874  12.621   7.457
21479SOL     OW66269   2.580   9.299   4.489
21479SOL    HW166270   2.540   9.218   4.521
21479SOL    HW266271   2.651   9.270   4.432
21480SOL     OW66272   4.845  13.739   3.029
21480SOL    HW166273   4.905  13.675   3.068
21480SOL    HW266274   4.901  13.810   2.998
21481SOL     OW66275  11.854   6.720   7.862
21481SOL    HW166276  11.768   6.761   7.850
21481SOL    HW266277  11.906   6.787   7.908
21482SOL     OW66278   5.958   4.154  12.875
21482SOL    HW166279   6.017   4.114  12.812
21482SOL    HW266280   5.871   4.124  12.850
21483SOL     OW66281   3.616  13.235  11.387
21483SOL    HW166282   3.658  13.214  11.470
21483SOL    HW266283   3.558  13.309  11.407
21484SOL     OW66284   9.314   6.027   9.851
21484SOL    HW166285   9.360   6.109   9.868
21484SOL    HW266286   9.379   5.959   9.870
21485SOL     OW66287   3.968  12.198   4.780
21485SOL    HW166288   4.009  12.126   4.732
21485SOL    HW266289   4.037  12.231   4.838
21486SOL     OW66290   8.091   1.291   2.990
21486SOL    HW166291   8.061   1.282   2.900
21486SOL    HW266292   8.104   1.201   3.021
21487SOL     OW66293  14.823  13.638  10.876
21487SOL    HW166294  14.805  13.704  10.810
21487SOL    HW266295   0.033  13.665  10.915
21488SOL     OW66296  12.237   5.711   1.597
21488SOL    HW166297  12.281   5.653   1.659
21488SOL    HW266298  12.227   5.794   1.644
21489SOL     OW66299   2.779   8.761   7.546
21489SOL    HW166300   2.770   8.687   7.486
21489SOL    HW266301   2.725   8.737   7.621
21490SOL     OW66302  13.896  13.436  10.853
21490SOL    HW166303  13.885  13.342  10.862
21490SOL    HW266304  13.962  13.460  10.917
21491SOL     OW66305  14.499   3.782   0.178
21491SOL    HW166306  14.506   3.687   0.178
21491SOL    HW266307  14.421   3.800   0.230
21492SOL     OW66308  10.592   0.155  14.210
21492SOL    HW166309  10.601   0.070  14.252
21492SOL    HW266310  10.569   0.136  14.120
21493SOL     OW66311   0.618  12.256  12.019
21493SOL    HW166312   0.622  12.214  11.933
21493SOL    HW266313   0.541  12.216  12.061
21494SOL     OW66314   2.464   6.411  14.012
21494SOL    HW166315   2.399   6.461  13.962
21494SOL    HW266316   2.535   6.474  14.028
21495SOL     OW66317   9.176  14.486  10.539
21495SOL    HW166318   9.115  14.552  10.569
21495SOL    HW266319   9.134  14.403  10.562
21496SOL     OW66320   1.157   3.225  12.893
21496SOL    HW166321   1.118   3.312  12.898
21496SOL    HW266322   1.090   3.166  12.929
21497SOL     OW66323   3.624   7.347   5.284
21497SOL    HW166324   3.695   7.393   5.329
21497SOL    HW266325   3.545   7.391   5.315
21498SOL     OW66326  10.281   1.955   8.853
21498SOL    HW166327  10.354   1.905   8.888
21498SOL    HW266328  10.321   2.034   8.816
21499SOL     OW66329   7.172   4.472   7.136
21499SOL    HW166330   7.218   4.555   7.140
21499SOL    HW266331   7.232   4.409   7.175
21500SOL     OW66332   9.704   1.196   9.166
21500SOL    HW166333   9.707   1.107   9.200
21500SOL    HW266334   9.611   1.214   9.155
21501SOL     OW66335  11.589   8.466   4.310
21501SOL    HW166336  11.494   8.478   4.305
21501SOL    HW266337  11.617   8.527   4.379
21502SOL     OW66338  12.866   7.899   6.524
21502SOL    HW166339  12.922   7.956   6.470
21502SOL    HW266340  12.877   7.812   6.486
21503SOL     OW66341   2.627   2.506   0.372
21503SOL    HW166342   2.544   2.464   0.349
21503SOL    HW266343   2.635   2.578   0.309
21504SOL     OW66344  10.353   3.505   8.220
21504SOL    HW166345  10.289   3.485   8.288
21504SOL    HW266346  10.306   3.561   8.158
21505SOL     OW66347  10.312   9.976   5.578
21505SOL    HW166348  10.344   9.943   5.495
21505SOL    HW266349  10.376  10.043   5.604
21506SOL     OW66350  12.257   9.601   3.926
21506SOL    HW166351  12.260   9.651   4.007
21506SOL    HW266352  12.199   9.527   3.946
21507SOL     OW66353   0.122   9.225  14.251
21507SOL    HW166354   0.128   9.293  14.184
21507SOL    HW266355   0.045   9.173  14.226
21508SOL     OW66356  11.171   6.806  13.808
21508SOL    HW166357  11.232   6.779  13.739
21508SOL    HW266358  11.091   6.756  13.790
21509SOL     OW66359   8.364  13.622   5.571
21509SOL    HW166360   8.308  13.700   5.570
21509SOL    HW266361   8.313  13.557   5.619
21510SOL     OW66362  10.486   0.367   1.120
21510SOL    HW166363  10.561   0.319   1.154
21510SOL    HW266364  10.523   0.421   1.050
21511SOL     OW66365   7.682   4.938   4.664
21511SOL    HW166366   7.693   5.030   4.689
21511SOL    HW266367   7.673   4.891   4.746
21512SOL     OW66368   1.424   3.503  14.142
21512SOL    HW166369   1.458   3.491  14.053
21512SOL    HW266370   1.473   3.441  14.195
21513SOL     OW66371  14.184  14.661   1.917
21513SOL    HW166372  14.124  14.682   1.988
21513SOL    HW266373  14.212  14.571   1.936
21514SOL     OW66374   0.374   0.846   2.850
21514SOL    HW166375   0.305   0.911   2.866
21514SOL    HW266376   0.358   0.816   2.761
21515SOL     OW66377   6.637   4.088  11.196
21515SOL    HW166378   6.691   4.153  11.240
21515SOL    HW266379   6.606   4.132  11.117
21516SOL     OW66380   1.659   2.691   7.147
21516SOL    HW166381   1.714   2.741   7.207
21516SOL    HW266382   1.607   2.756   7.100
21517SOL     OW66383   0.637   0.205   4.684
21517SOL    HW166384   0.603   0.285   4.643
21517SOL    HW266385   0.604   0.208   4.774
21518SOL     OW66386  10.317  13.670   9.384
21518SOL    HW166387  10.349  13.746   9.433
21518SOL    HW266388  10.259  13.708   9.318
21519SOL     OW66389   0.787   8.011  11.487
21519SOL    HW166390   0.871   8.002  11.443
21519SOL    HW266391   0.723   8.016  11.416
21520SOL     OW66392   3.803  10.689   1.149
21520SOL    HW166393   3.863  10.648   1.087
21520SOL    HW266394   3.774  10.769   1.104
21521SOL     OW66395   0.776   0.999   5.154
21521SOL    HW166396   0.865   1.004   5.119
21521SOL    HW266397   0.784   0.940   5.229
21522SOL     OW66398   9.461   6.583   7.782
21522SOL    HW166399   9.405   6.613   7.710
21522SOL    HW266400   9.449   6.488   7.783
21523SOL     OW66401   1.155   9.282  13.046
21523SOL    HW166402   1.135   9.288  13.140
21523SOL    HW266403   1.120   9.198  13.019
21524SOL     OW66404   2.102  10.519   2.701
21524SOL    HW166405   2.060  10.465   2.768
21524SOL    HW266406   2.031  10.542   2.641
21525SOL     OW66407  12.293   4.723   4.608
21525SOL    HW166408  12.199   4.706   4.608
21525SOL    HW266409  12.299   4.819   4.604
21526SOL     OW66410   6.128  14.430  14.040
21526SOL    HW166411   6.221  14.439  14.017
21526SOL    HW266412   6.093  14.518  14.031
21527SOL     OW66413   3.929   8.649   7.916
21527SOL    HW166414   3.910   8.556   7.930
21527SOL    HW266415   3.860   8.695   7.964
21528SOL     OW66416   0.534   2.214  11.096
21528SOL    HW166417   0.498   2.285  11.042
21528SOL    HW266418   0.627   2.214  11.077
21529SOL     OW66419  13.183  13.697  14.271
21529SOL    HW166420  13.141  13.763  14.216
21529SOL    HW266421  13.169  13.614  14.225
21530SOL     OW66422   6.991   5.119   9.450
21530SOL    HW166423   6.921   5.064   9.487
21530SOL    HW266424   6.973   5.207   9.484
21531SOL     OW66425   0.908   7.131  14.383
21531SOL    HW166426   0.942   7.218  14.363
21531SOL    HW266427   0.963   7.099  14.454
21532SOL     OW66428   1.927  14.709   2.352
21532SOL    HW166429   1.920  14.618   2.324
21532SOL    HW266430   1.928  14.704   2.448
21533SOL     OW66431   8.951   8.838  11.911
21533SOL    HW166432   8.886   8.836  11.840
21533SOL    HW266433   9.031   8.803  11.871
21534SOL     OW66434   3.351   9.781  13.916
21534SOL    HW166435   3.274   9.827  13.948
21534SOL    HW266436   3.375   9.722  13.987
21535SOL     OW66437   6.146   2.621   8.446
21535SOL    HW166438   6.226   2.649   8.401
21535SOL    HW266439   6.087   2.593   8.376
21536SOL     OW66440   9.523   7.819   1.829
21536SOL    HW166441   9.617   7.829   1.816
21536SOL    HW266442   9.485   7.834   1.743
21537SOL     OW66443  10.078   5.007   5.807
21537SOL    HW166444  10.093   4.991   5.900
21537SOL    HW266445  10.037   5.093   5.804
21538SOL     OW66446  10.924  11.919   5.777
21538SOL    HW166447  10.902  11.983   5.710
21538SOL    HW266448  10.961  11.970   5.848
21539SOL     OW66449  11.763   9.704  10.049
21539SOL    HW166450  11.747   9.735   9.959
21539SOL    HW266451  11.850   9.738  10.071
21540SOL     OW66452   9.701   1.220   2.607
21540SOL    HW166453   9.759   1.254   2.539
21540SOL    HW266454   9.752   1.152   2.650
21541SOL     OW66455   0.318  11.154   7.244
21541SOL    HW166456   0.307  11.063   7.215
21541SOL    HW266457   0.284  11.156   7.333
21542SOL     OW66458  13.462   1.306   8.783
21542SOL    HW166459  13.375   1.322   8.747
21542SOL    HW266460  13.498   1.393   8.799
21543SOL     OW66461   2.053   4.773   4.448
21543SOL    HW166462   2.045   4.829   4.524
21543SOL    HW266463   2.119   4.708   4.472
21544SOL     OW66464   4.777   6.433   0.788
21544SOL    HW166465   4.729   6.510   0.758
21544SOL    HW266466   4.713   6.362   0.785
21545SOL     OW66467   7.185   1.149   2.493
21545SOL    HW166468   7.271   1.131   2.531
21545SOL    HW266469   7.203   1.161   2.400
21546SOL     OW66470   3.941  11.268   8.544
21546SOL    HW166471   4.031  11.242   8.561
21546SOL    HW266472   3.942  11.301   8.454
21547SOL     OW66473   1.686   9.374   6.969
21547SOL    HW166474   1.660   9.424   7.046
21547SOL    HW266475   1.778   9.352   6.984
21548SOL     OW66476   9.052   0.508   3.426
21548SOL    HW166477   9.033   0.490   3.334
21548SOL    HW266478   9.116   0.580   3.424
21549SOL     OW66479  13.166  14.423   0.376
21549SOL    HW166480  13.104  14.458   0.439
21549SOL    HW266481  13.135  14.454   0.291
21550SOL     OW66482  10.522   9.383  10.188
21550SOL    HW166483  10.448   9.342  10.145
21550SOL    HW266484  10.513   9.476  10.168
21551SOL     OW66485   8.804   8.419  10.920
21551SOL    HW166486   8.840   8.438  11.007
21551SOL    HW266487   8.827   8.327  10.905
21552SOL     OW66488   6.447   3.165   9.834
21552SOL    HW166489   6.365   3.116   9.838
21552SOL    HW266490   6.421   3.257   9.831
21553SOL     OW66491   3.118   9.014   7.547
21553SOL    HW166492   3.088   8.968   7.625
21553SOL    HW266493   3.207   9.043   7.570
21554SOL     OW66494  13.406   7.381   5.237
21554SOL    HW166495  13.483   7.377   5.180
21554SOL    HW266496  13.424   7.455   5.295
21555SOL     OW66497  11.774  12.587   5.550
21555SOL    HW166498  11.821  12.504   5.563
21555SOL    HW266499  11.685  12.569   5.577
21556SOL     OW66500   2.927   2.809  12.478
21556SOL    HW166501   2.957   2.723  12.507
21556SOL    HW266502   2.871   2.841  12.550
21557SOL     OW66503  11.875   9.310   1.466
21557SOL    HW166504  11.820   9.243   1.427
21557SOL    HW266505  11.897   9.276   1.553
21558SOL     OW66506   4.723   8.162   1.054
21558SOL    HW166507   4.801   8.207   1.086
21558SOL    HW266508   4.652   8.193   1.111
21559SOL     OW66509   4.438   8.604  14.714
21559SOL    HW166510   4.355   8.575  14.752
21559SOL    HW266511   4.413   8.673  14.653
21560SOL     OW66512  13.373  14.254  14.782
21560SOL    HW166513  13.311  14.181  14.783
21560SOL    HW266514  13.452  14.220  14.824
21561SOL     OW66515   1.636   6.159   4.801
21561SOL    HW166516   1.627   6.254   4.787
21561SOL    HW266517   1.607   6.145   4.891
21562SOL     OW66518   4.487   3.518  13.093
21562SOL    HW166519   4.527   3.587  13.040
21562SOL    HW266520   4.532   3.524  13.177
21563SOL     OW66521   1.140   2.777  10.230
21563SOL    HW166522   1.178   2.697  10.268
21563SOL    HW266523   1.213   2.817  10.182
21564SOL     OW66524   4.798  12.817   5.693
21564SOL    HW166525   4.829  12.749   5.753
21564SOL    HW266526   4.788  12.771   5.609
21565SOL     OW66527  11.209  11.917   3.288
21565SOL    HW166528  11.136  11.856   3.286
21565SOL    HW266529  11.251  11.902   3.373
21566SOL     OW66530   7.924   4.973   3.262
21566SOL    HW166531   7.929   4.879   3.282
21566SOL    HW266532   8.015   5.000   3.252
21567SOL     OW66533   5.915   3.898  10.605
21567SOL    HW166534   5.833   3.904  10.557
21567SOL    HW266535   5.910   3.968  10.670
21568SOL     OW66536  12.066  14.744   3.860
21568SOL    HW166537  12.014  14.754   3.780
21568SOL    HW266538  12.072  14.833   3.896
21569SOL     OW66539   7.123   9.616   8.216
21569SOL    HW166540   7.177   9.537   8.220
21569SOL    HW266541   7.051   9.593   8.157
21570SOL     OW66542   3.817   9.255   4.214
21570SOL    HW166543   3.890   9.294   4.165
21570SOL    HW266544   3.800   9.316   4.285
21571SOL     OW66545   7.579   7.022   5.713
21571SOL    HW166546   7.610   7.004   5.802
21571SOL    HW266547   7.504   7.079   5.725
21572SOL     OW66548   9.326   9.338   8.982
21572SOL    HW166549   9.363   9.340   9.070
21572SOL    HW266550   9.339   9.428   8.949
21573SOL     OW66551  11.779  14.010  12.490
21573SOL    HW166552  11.800  14.100  12.517
21573SOL    HW266553  11.865  13.971  12.471
21574SOL     OW66554  14.656   1.897   4.135
21574SOL    HW166555  14.662   1.802   4.126
21574SOL    HW266556  14.574   1.920   4.090
21575SOL     OW66557  14.702   2.088  10.267
21575SOL    HW166558  14.723   2.102  10.175
21575SOL    HW266559  14.639   2.015  10.268
21576SOL     OW66560   8.116   3.529   4.251
21576SOL    HW166561   8.207   3.535   4.279
21576SOL    HW266562   8.113   3.576   4.168
21577SOL     OW66563   6.576   4.384   8.747
21577SOL    HW166564   6.607   4.336   8.824
21577SOL    HW266565   6.600   4.327   8.673
21578SOL     OW66566   7.464   1.195  12.084
21578SOL    HW166567   7.389   1.245  12.115
21578SOL    HW266568   7.486   1.234  11.999
21579SOL     OW66569   8.664   5.883   0.767
21579SOL    HW166570   8.689   5.972   0.741
21579SOL    HW266571   8.747   5.834   0.766
21580SOL     OW66572   6.669  11.841   4.755
21580SOL    HW166573   6.703  11.882   4.835
21580SOL    HW266574   6.591  11.892   4.734
21581SOL     OW66575  10.786  13.472   0.078
21581SOL    HW166576  10.849  13.532   0.117
21581SOL    HW266577  10.724  13.453   0.148
21582SOL     OW66578   7.045  11.683   4.714
21582SOL    HW166579   7.030  11.775   4.692
21582SOL    HW266580   7.093  11.686   4.796
21583SOL     OW66581   5.469  12.157  13.759
21583SOL    HW166582   5.488  12.083  13.817
21583SOL    HW266583   5.399  12.205  13.803
21584SOL     OW66584   6.510  14.000   0.549
21584SOL    HW166585   6.529  14.093   0.533
21584SOL    HW266586   6.421  13.988   0.516
21585SOL     OW66587   7.216   1.526   2.717
21585SOL    HW166588   7.302   1.493   2.742
21585SOL    HW266589   7.167   1.448   2.692
21586SOL     OW66590   2.614   1.390  13.678
21586SOL    HW166591   2.585   1.477  13.707
21586SOL    HW266592   2.709   1.397  13.671
21587SOL     OW66593  11.542   0.918   0.971
21587SOL    HW166594  11.577   0.831   0.988
21587SOL    HW266595  11.462   0.902   0.920
21588SOL     OW66596  13.687   4.885  14.113
21588SOL    HW166597  13.714   4.884  14.021
21588SOL    HW266598  13.665   4.977  14.130
21589SOL     OW66599   8.706  13.499   9.947
21589SOL    HW166600   8.800  13.483   9.946
21589SOL    HW266601   8.668  13.416   9.975
21590SOL     OW66602   1.582   1.656   0.473
21590SOL    HW166603   1.532   1.575   0.469
21590SOL    HW266604   1.519   1.724   0.448
21591SOL     OW66605   6.370   7.020   3.863
21591SOL    HW166606   6.347   7.067   3.943
21591SOL    HW266607   6.338   6.931   3.877
21592SOL     OW66608   5.795  12.248   3.610
21592SOL    HW166609   5.742  12.223   3.686
21592SOL    HW266610   5.870  12.189   3.612
21593SOL     OW66611   7.129   3.231   6.490
21593SOL    HW166612   7.040   3.195   6.488
21593SOL    HW266613   7.118   3.324   6.475
21594SOL     OW66614   2.378  10.278   8.462
21594SOL    HW166615   2.378  10.357   8.408
21594SOL    HW266616   2.336  10.211   8.408
21595SOL     OW66617   9.546   1.742  12.159
21595SOL    HW166618   9.565   1.754  12.252
21595SOL    HW266619   9.595   1.664  12.134
21596SOL     OW66620  13.394   9.554   1.491
21596SOL    HW166621  13.346   9.480   1.527
21596SOL    HW266622  13.331   9.601   1.437
21597SOL     OW66623   3.633   6.200   8.239
21597SOL    HW166624   3.667   6.155   8.316
21597SOL    HW266625   3.681   6.283   8.236
21598SOL     OW66626   8.913   2.999  13.864
21598SOL    HW166627   8.990   2.944  13.845
21598SOL    HW266628   8.844   2.964  13.808
21599SOL     OW66629   4.066   2.880   7.176
21599SOL    HW166630   4.125   2.874   7.101
21599SOL    HW266631   4.085   2.801   7.228
21600SOL     OW66632   2.220   7.351  13.636
21600SOL    HW166633   2.287   7.418  13.628
21600SOL    HW266634   2.222   7.304  13.552
21601SOL     OW66635   9.511   7.643   2.427
21601SOL    HW166636   9.535   7.551   2.418
21601SOL    HW266637   9.585   7.683   2.474
21602SOL     OW66638  11.994   0.957   7.657
21602SOL    HW166639  11.965   0.972   7.567
21602SOL    HW266640  11.990   0.862   7.668
21603SOL     OW66641  11.246   4.129   6.058
21603SOL    HW166642  11.272   4.220   6.075
21603SOL    HW266643  11.164   4.119   6.106
21604SOL     OW66644   0.380   4.836   3.909
21604SOL    HW166645   0.434   4.914   3.894
21604SOL    HW266646   0.442   4.763   3.903
21605SOL     OW66647   2.026   6.962   8.525
21605SOL    HW166648   2.097   6.900   8.541
21605SOL    HW266649   1.995   6.941   8.437
21606SOL     OW66650  11.505  10.961   5.389
21606SOL    HW166651  11.542  11.049   5.400
21606SOL    HW266652  11.481  10.957   5.297
21607SOL     OW66653   8.299  13.032   9.603
21607SOL    HW166654   8.373  12.976   9.627
21607SOL    HW266655   8.283  13.085   9.681
21608SOL     OW66656   6.161   7.204  13.024
21608SOL    HW166657   6.231   7.138  13.024
21608SOL    HW266658   6.086   7.158  13.063
21609SOL     OW66659  14.563   4.568  12.178
21609SOL    HW166660  14.598   4.648  12.137
21609SOL    HW266661  14.633   4.539  12.236
21610SOL     OW66662   4.671  13.192  12.159
21610SOL    HW166663   4.717  13.114  12.129
21610SOL    HW266664   4.645  13.237  12.078
21611SOL     OW66665   8.480  14.112   9.307
21611SOL    HW166666   8.530  14.034   9.330
21611SOL    HW266667   8.524  14.147   9.229
21612SOL     OW66668  13.719   4.125   3.900
21612SOL    HW166669  13.736   4.031   3.898
21612SOL    HW266670  13.745   4.153   3.988
21613SOL     OW66671  11.513  11.510   9.893
21613SOL    HW166672  11.525  11.582   9.956
21613SOL    HW266673  11.598  11.501   9.851
21614SOL     OW66674   2.008   5.276   6.379
21614SOL    HW166675   2.034   5.202   6.324
21614SOL    HW266676   2.027   5.247   6.468
21615SOL     OW66677   5.051  14.477   8.768
21615SOL    HW166678   5.062  14.526   8.686
21615SOL    HW266679   4.988  14.408   8.746
21616SOL     OW66680  13.412   7.918   4.875
21616SOL    HW166681  13.484   7.972   4.843
21616SOL    HW266682  13.454   7.841   4.913
21617SOL     OW66683  12.686   9.724   9.050
21617SOL    HW166684  12.694   9.815   9.022
21617SOL    HW266685  12.593   9.713   9.069
21618SOL     OW66686  13.780   8.482  14.856
21618SOL    HW166687  13.685   8.479  14.864
21618SOL    HW266688  13.808   8.391  14.865
21619SOL     OW66689  14.453   5.581   0.992
21619SOL    HW166690  14.448   5.629   0.910
21619SOL    HW266691  14.362   5.577   1.023
21620SOL     OW66692   0.449   1.842   6.619
21620SOL    HW166693   0.380   1.781   6.594
21620SOL    HW266694   0.438   1.916   6.559
21621SOL     OW66695   9.589   5.774  10.295
21621SOL    HW166696   9.540   5.839  10.244
21621SOL    HW266697   9.522   5.719  10.334
21622SOL     OW66698   2.217  10.315   3.871
21622SOL    HW166699   2.251  10.228   3.891
21622SOL    HW266700   2.243  10.369   3.945
21623SOL     OW66701   3.145  13.589   9.683
21623SOL    HW166702   3.237  13.614   9.673
21623SOL    HW266703   3.141  13.500   9.647
21624SOL     OW66704  10.219   5.002   4.457
21624SOL    HW166705  10.191   5.093   4.451
21624SOL    HW266706  10.138   4.951   4.462
21625SOL     OW66707  11.868  13.080   2.899
21625SOL    HW166708  11.813  13.010   2.934
21625SOL    HW266709  11.851  13.155   2.956
21626SOL     OW66710  12.004   6.682  11.700
21626SOL    HW166711  11.946   6.619  11.657
21626SOL    HW266712  12.007   6.757  11.640
21627SOL     OW66713   9.710  12.102  13.536
21627SOL    HW166714   9.769  12.106  13.460
21627SOL    HW266715   9.636  12.158  13.511
21628SOL     OW66716   2.000   7.909  13.924
21628SOL    HW166717   2.037   7.824  13.946
21628SOL    HW266718   2.037   7.969  13.989
21629SOL     OW66719  12.380  10.383  13.094
21629SOL    HW166720  12.393  10.372  13.188
21629SOL    HW266721  12.432  10.460  13.071
21630SOL     OW66722   2.353  13.289  10.565
21630SOL    HW166723   2.374  13.334  10.483
21630SOL    HW266724   2.321  13.203  10.537
21631SOL     OW66725   6.717   3.259   2.251
21631SOL    HW166726   6.811   3.249   2.236
21631SOL    HW266727   6.702   3.354   2.246
21632SOL     OW66728  13.670   3.086  13.089
21632SOL    HW166729  13.584   3.103  13.126
21632SOL    HW266730  13.653   3.059  12.999
21633SOL     OW66731   1.302  13.254   4.036
21633SOL    HW166732   1.355  13.318   4.085
21633SOL    HW266733   1.350  13.172   4.045
21634SOL     OW66734   6.755   4.423   0.774
21634SOL    HW166735   6.714   4.485   0.835
21634SOL    HW266736   6.681   4.384   0.727
21635SOL     OW66737  11.820   4.632   7.921
21635SOL    HW166738  11.814   4.726   7.937
21635SOL    HW266739  11.746   4.612   7.863
21636SOL     OW66740   4.396   6.092   1.207
21636SOL    HW166741   4.432   6.066   1.122
21636SOL    HW266742   4.369   6.183   1.195
21637SOL     OW66743   5.895   1.835   3.616
21637SOL    HW166744   5.971   1.820   3.560
21637SOL    HW266745   5.932   1.869   3.698
21638SOL     OW66746   8.593   1.636   9.202
21638SOL    HW166747   8.519   1.640   9.263
21638SOL    HW266748   8.556   1.665   9.119
21639SOL     OW66749   5.344   5.301   8.252
21639SOL    HW166750   5.394   5.223   8.278
21639SOL    HW266751   5.253   5.279   8.276
21640SOL     OW66752  14.441  14.325   2.328
21640SOL    HW166753  14.400  14.241   2.305
21640SOL    HW266754  14.535  14.307   2.325
21641SOL     OW66755   0.804   8.194  14.145
21641SOL    HW166756   0.846   8.109  14.162
21641SOL    HW266757   0.712   8.173  14.135
21642SOL     OW66758  11.363   6.672   6.819
21642SOL    HW166759  11.427   6.601   6.814
21642SOL    HW266760  11.366   6.700   6.910
21643SOL     OW66761   2.448   0.854   8.120
21643SOL    HW166762   2.413   0.878   8.035
21643SOL    HW266763   2.440   0.933   8.173
21644SOL     OW66764  10.523   7.691   2.031
21644SOL    HW166765  10.492   7.649   1.951
21644SOL    HW266766  10.492   7.781   2.025
21645SOL     OW66767   8.689  10.137   3.095
21645SOL    HW166768   8.713  10.083   3.170
21645SOL    HW266769   8.686  10.226   3.129
21646SOL     OW66770   2.588  12.256  13.434
21646SOL    HW166771   2.496  12.232  13.442
21646SOL    HW266772   2.634  12.171  13.429
21647SOL     OW66773   6.214   2.700   3.423
21647SOL    HW166774   6.292   2.723   3.473
21647SOL    HW266775   6.167   2.639   3.479
21648SOL     OW66776  11.740   4.571  10.493
21648SOL    HW166777  11.831   4.593  10.474
21648SOL    HW266778  11.733   4.580  10.588
21649SOL     OW66779   2.107   6.437   1.359
21649SOL    HW166780   2.080   6.380   1.287
21649SOL    HW266781   2.202   6.426   1.363
21650SOL     OW66782   0.848   6.802  11.550
21650SOL    HW166783   0.850   6.714  11.589
21650SOL    HW266784   0.759   6.833  11.566
21651SOL     OW66785  12.284   7.751   9.796
21651SOL    HW166786  12.225   7.726   9.725
21651SOL    HW266787  12.370   7.723   9.766
21652SOL     OW66788   8.762   2.262  13.803
21652SOL    HW166789   8.679   2.220  13.827
21652SOL    HW266790   8.736   2.330  13.741
21653SOL     OW66791   3.050   0.310   8.226
21653SOL    HW166792   2.963   0.348   8.238
21653SOL    HW266793   3.044   0.261   8.144
21654SOL     OW66794   4.198  12.591   5.090
21654SOL    HW166795   4.144  12.594   5.169
21654SOL    HW266796   4.247  12.509   5.097
21655SOL     OW66797   3.633   0.563   7.057
21655SOL    HW166798   3.571   0.625   7.019
21655SOL    HW266799   3.587   0.527   7.133
21656SOL     OW66800   7.883   4.814  11.775
21656SOL    HW166801   7.821   4.759  11.727
21656SOL    HW266802   7.968   4.772  11.761
21657SOL     OW66803   0.356   9.213   4.363
21657SOL    HW166804   0.275   9.172   4.393
21657SOL    HW266805   0.422   9.183   4.426
21658SOL     OW66806   3.618   9.956   0.401
21658SOL    HW166807   3.551   9.899   0.363
21658SOL    HW266808   3.622   9.930   0.493
21659SOL     OW66809  11.164  11.105  14.089
21659SOL    HW166810  11.112  11.185  14.096
21659SOL    HW266811  11.146  11.058  14.170
21660SOL     OW66812  11.342  12.935   7.546
21660SOL    HW166813  11.390  13.011   7.581
21660SOL    HW266814  11.252  12.966   7.535
21661SOL     OW66815  14.303  12.354   2.452
21661SOL    HW166816  14.342  12.286   2.508
21661SOL    HW266817  14.376  12.414   2.433
21662SOL     OW66818   5.524   7.963  14.279
21662SOL    HW166819   5.459   7.899  14.249
21662SOL    HW266820   5.578   7.980  14.201
21663SOL     OW66821   3.832   3.478  14.294
21663SOL    HW166822   3.786   3.548  14.341
21663SOL    HW266823   3.848   3.411  14.361
21664SOL     OW66824   3.282   8.543   0.167
21664SOL    HW166825   3.234   8.483   0.224
21664SOL    HW266826   3.359   8.568   0.218
21665SOL     OW66827  11.365   5.926   4.767
21665SOL    HW166828  11.406   5.949   4.850
21665SOL    HW266829  11.433   5.938   4.702
21666SOL     OW66830   8.690  13.280  13.757
21666SOL    HW166831   8.620  13.283  13.822
21666SOL    HW266832   8.671  13.203  13.704
21667SOL     OW66833   8.446  10.059   7.883
21667SOL    HW166834   8.358  10.067   7.919
21667SOL    HW266835   8.448   9.972   7.843
21668SOL     OW66836   1.282   5.782   6.973
21668SOL    HW166837   1.358   5.838   6.960
21668SOL    HW266838   1.212   5.842   6.998
21669SOL     OW66839  13.579   5.053   7.415
21669SOL    HW166840  13.610   4.997   7.344
21669SOL    HW266841  13.647   5.120   7.424
21670SOL     OW66842  14.424   6.666  11.005
21670SOL    HW166843  14.480   6.651  10.928
21670SOL    HW266844  14.455   6.602  11.069
21671SOL     OW66845   3.650   7.893  11.119
21671SOL    HW166846   3.635   7.883  11.025
21671SOL    HW266847   3.745   7.898  11.129
21672SOL     OW66848   3.112   7.148  14.219
21672SOL    HW166849   3.158   7.191  14.290
21672SOL    HW266850   3.038   7.206  14.200
21673SOL     OW66851   0.848   6.355   6.612
21673SOL    HW166852   0.943   6.344   6.610
21673SOL    HW266853   0.814   6.265   6.612
21674SOL     OW66854  11.842   8.023   7.137
21674SOL    HW166855  11.850   8.030   7.232
21674SOL    HW266856  11.916   7.969   7.111
21675SOL     OW66857   8.192   8.236  10.663
21675SOL    HW166858   8.188   8.143  10.687
21675SOL    HW266859   8.155   8.282  10.738
21676SOL     OW66860  12.014  12.157   3.017
21676SOL    HW166861  11.945  12.202   2.968
21676SOL    HW266862  12.088  12.153   2.957
21677SOL     OW66863  10.220   7.185  14.148
21677SOL    HW166864  10.191   7.273  14.172
21677SOL    HW266865  10.139   7.134  14.143
21678SOL     OW66866   5.261   2.864  14.623
21678SOL    HW166867   5.350   2.877  14.654
21678SOL    HW266868   5.233   2.781  14.661
21679SOL     OW66869   9.654   0.668   4.635
21679SOL    HW166870   9.610   0.605   4.691
21679SOL    HW266871   9.747   0.645   4.640
21680SOL     OW66872   1.479  13.192   9.034
21680SOL    HW166873   1.527  13.174   8.953
21680SOL    HW266874   1.541  13.174   9.104
21681SOL     OW66875  14.229   9.074   7.768
21681SOL    HW166876  14.301   9.137   7.760
21681SOL    HW266877  14.239   9.038   7.856
21682SOL     OW66878   4.335  11.783  11.107
21682SOL    HW166879   4.243  11.809  11.104
21682SOL    HW266880   4.374  11.839  11.173
21683SOL     OW66881  12.333   1.280   8.713
21683SOL    HW166882  12.297   1.265   8.626
21683SOL    HW266883  12.427   1.292   8.699
21684SOL     OW66884  10.646  14.011   0.441
21684SOL    HW166885  10.563  13.968   0.463
21684SOL    HW266886  10.705  13.940   0.417
21685SOL     OW66887   9.815   0.994   9.478
21685SOL    HW166888   9.907   1.019   9.486
21685SOL    HW266889   9.811   0.904   9.511
21686SOL     OW66890   9.747   3.269  14.846
21686SOL    HW166891   9.698   3.222   0.040
21686SOL    HW266892   9.788   3.200  14.794
21687SOL     OW66893   4.440   0.396   9.613
21687SOL    HW166894   4.480   0.483   9.605
21687SOL    HW266895   4.513   0.338   9.637
21688SOL     OW66896   3.657   7.914  13.809
21688SOL    HW166897   3.586   7.927  13.746
21688SOL    HW266898   3.613   7.908  13.894
21689SOL     OW66899  11.954  11.534   5.090
21689SOL    HW166900  11.888  11.465   5.087
21689SOL    HW266901  11.919  11.604   5.035
21690SOL     OW66902  10.311   6.537  13.193
21690SOL    HW166903  10.260   6.583  13.126
21690SOL    HW266904  10.393   6.587  13.198
21691SOL     OW66905   7.650   5.505   3.563
21691SOL    HW166906   7.600   5.579   3.598
21691SOL    HW266907   7.584   5.445   3.529
21692SOL     OW66908  11.319   9.857  10.610
21692SOL    HW166909  11.376   9.797  10.563
21692SOL    HW266910  11.231   9.840  10.575
21693SOL     OW66911   6.289   9.751   7.413
21693SOL    HW166912   6.272   9.775   7.504
21693SOL    HW266913   6.359   9.810   7.385
21694SOL     OW66914   8.473  14.545  10.516
21694SOL    HW166915   8.461  14.450  10.515
21694SOL    HW266916   8.479  14.570  10.424
21695SOL     OW66917   2.600  12.962  10.324
21695SOL    HW166918   2.531  12.961  10.258
21695SOL    HW266919   2.563  12.910  10.396
21696SOL     OW66920   5.971   8.366   9.355
21696SOL    HW166921   5.989   8.317   9.275
21696SOL    HW266922   6.043   8.428   9.363
21697SOL     OW66923  12.767  13.501   8.971
21697SOL    HW166924  12.727  13.414   8.964
21697SOL    HW266925  12.861  13.485   8.964
21698SOL     OW66926  11.593   3.648   4.564
21698SOL    HW166927  11.567   3.561   4.534
21698SOL    HW266928  11.511   3.696   4.574
21699SOL     OW66929   9.109   4.510   1.082
21699SOL    HW166930   9.048   4.537   1.013
21699SOL    HW266931   9.072   4.547   1.162
21700SOL     OW66932   5.925   0.056   0.897
21700SOL    HW166933   5.885   0.000   0.830
21700SOL    HW266934   6.015   0.069   0.866
21701SOL     OW66935  12.991   8.432   5.038
21701SOL    HW166936  12.942   8.462   5.115
21701SOL    HW266937  12.930   8.444   4.965
21702SOL     OW66938  11.612  12.508   9.727
21702SOL    HW166939  11.630  12.486   9.818
21702SOL    HW266940  11.556  12.437   9.696
21703SOL     OW66941  11.714   8.637   2.659
21703SOL    HW166942  11.701   8.676   2.573
21703SOL    HW266943  11.682   8.704   2.720
21704SOL     OW66944   1.413   7.320   8.111
21704SOL    HW166945   1.502   7.291   8.089
21704SOL    HW266946   1.371   7.334   8.026
21705SOL     OW66947   4.800   9.990  11.264
21705SOL    HW166948   4.710   9.995  11.233
21705SOL    HW266949   4.853   9.985  11.184
21706SOL     OW66950  10.820   3.582  14.639
21706SOL    HW166951  10.896   3.524  14.641
21706SOL    HW266952  10.746   3.524  14.617
21707SOL     OW66953   8.496  12.682   8.758
21707SOL    HW166954   8.570  12.622   8.746
21707SOL    HW266955   8.455  12.687   8.672
21708SOL     OW66956   1.419   9.529   2.486
21708SOL    HW166957   1.331   9.537   2.521
21708SOL    HW266958   1.471   9.496   2.559
21709SOL     OW66959   9.361   7.507  14.236
21709SOL    HW166960   9.406   7.564  14.298
21709SOL    HW266961   9.268   7.518  14.255
21710SOL     OW66962   3.364  12.903   6.210
21710SOL    HW166963   3.378  12.986   6.164
21710SOL    HW266964   3.284  12.917   6.260
21711SOL     OW66965   7.656  13.428   0.031
21711SOL    HW166966   7.732  13.487   0.037
21711SOL    HW266967   7.584  13.485   0.005
21712SOL     OW66968   7.760  13.965   5.676
21712SOL    HW166969   7.840  14.018   5.667
21712SOL    HW266970   7.721  13.967   5.589
21713SOL     OW66971   3.118  13.210   3.495
21713SOL    HW166972   3.040  13.264   3.505
21713SOL    HW266973   3.188  13.260   3.537
21714SOL     OW66974   8.543  11.775   7.576
21714SOL    HW166975   8.542  11.867   7.550
21714SOL    HW266976   8.478  11.734   7.519
21715SOL     OW66977   8.583   1.965   6.897
21715SOL    HW166978   8.555   2.053   6.871
21715SOL    HW266979   8.517   1.937   6.962
21716SOL     OW66980   7.632   7.842  13.015
21716SOL    HW166981   7.571   7.782  13.058
21716SOL    HW266982   7.577   7.896  12.958
21717SOL     OW66983   9.121   4.749   4.191
21717SOL    HW166984   9.050   4.746   4.254
21717SOL    HW266985   9.129   4.842   4.168
21718SOL     OW66986   2.368  13.664   8.978
21718SOL    HW166987   2.430  13.622   9.037
21718SOL    HW266988   2.385  13.758   8.989
21719SOL     OW66989   3.932  11.129   3.949
21719SOL    HW166990   3.893  11.074   4.018
21719SOL    HW266991   3.900  11.091   3.867
21720SOL     OW66992  12.965   2.322  14.682
21720SOL    HW166993  12.996   2.387  14.744
21720SOL    HW266994  12.870   2.326  14.688
21721SOL     OW66995  13.172   9.579   1.687
21721SOL    HW166996  13.168   9.572   1.782
21721SOL    HW266997  13.175   9.674   1.671
21722SOL     OW66998  13.022   9.988   4.346
21722SOL    HW166999  12.936   9.948   4.335
21722SOL    HW267000  13.014  10.074   4.303
21723SOL     OW67001   5.032  12.989   9.502
21723SOL    HW167002   5.046  12.912   9.448
21723SOL    HW267003   5.075  13.060   9.454
21724SOL     OW67004   0.958   7.505   3.464
21724SOL    HW167005   1.008   7.584   3.488
21724SOL    HW267006   0.870   7.537   3.447
21725SOL     OW67007  10.903  14.662   0.981
21725SOL    HW167008  10.934  14.718   0.910
21725SOL    HW267009  10.844  14.717   1.032
21726SOL     OW67010   3.252   5.001   9.024
21726SOL    HW167011   3.250   5.084   9.073
21726SOL    HW267012   3.330   5.007   8.970
21727SOL     OW67013  11.778  12.512  10.613
21727SOL    HW167014  11.708  12.576  10.602
21727SOL    HW267015  11.762  12.473  10.699
21728SOL     OW67016  11.354  14.503   5.292
21728SOL    HW167017  11.326  14.431   5.235
21728SOL    HW267018  11.299  14.577   5.265
21729SOL     OW67019  11.811  13.833   1.362
21729SOL    HW167020  11.717  13.845   1.348
21729SOL    HW267021  11.824  13.845   1.456
21730SOL     OW67022   6.327  11.339   1.434
21730SOL    HW167023   6.291  11.283   1.366
21730SOL    HW267024   6.271  11.417   1.433
21731SOL     OW67025   6.811   3.440   5.075
21731SOL    HW167026   6.866   3.470   5.147
21731SOL    HW267027   6.771   3.360   5.107
21732SOL     OW67028  10.126   9.217   4.586
21732SOL    HW167029  10.197   9.158   4.613
21732SOL    HW267030  10.079   9.168   4.519
21733SOL     OW67031   0.325   3.668   0.052
21733SOL    HW167032   0.365   3.755   0.050
21733SOL    HW267033   0.285   3.658  14.839
21734SOL     OW67034   3.016   4.944   9.833
21734SOL    HW167035   2.957   4.875   9.803
21734SOL    HW267036   2.964   5.024   9.831
21735SOL     OW67037   1.556  10.467  13.051
21735SOL    HW167038   1.480  10.522  13.033
21735SOL    HW267039   1.577  10.428  12.966
21736SOL     OW67040   9.272   4.316   1.185
21736SOL    HW167041   9.217   4.391   1.161
21736SOL    HW267042   9.260   4.307   1.279
21737SOL     OW67043   3.629  13.739   6.717
21737SOL    HW167044   3.712  13.764   6.757
21737SOL    HW267045   3.588  13.822   6.693
21738SOL     OW67046   7.781   9.949  12.710
21738SOL    HW167047   7.738  10.033  12.698
21738SOL    HW267048   7.786   9.937  12.805
21739SOL     OW67049  13.897   3.616   8.741
21739SOL    HW167050  13.928   3.599   8.652
21739SOL    HW267051  13.807   3.583   8.742
21740SOL     OW67052  10.725  13.371  13.640
21740SOL    HW167053  10.676  13.405  13.565
21740SOL    HW267054  10.695  13.423  13.714
21741SOL     OW67055   2.346  13.281  10.033
21741SOL    HW167056   2.394  13.279   9.950
21741SOL    HW267057   2.259  13.312  10.009
21742SOL     OW67058   9.420   0.950   5.611
21742SOL    HW167059   9.448   0.859   5.612
21742SOL    HW267060   9.473   0.993   5.678
21743SOL     OW67061   0.663  14.133   7.825
21743SOL    HW167062   0.703  14.146   7.910
21743SOL    HW267063   0.735  14.108   7.768
21744SOL     OW67064   5.466   3.879   2.442
21744SOL    HW167065   5.505   3.932   2.373
21744SOL    HW267066   5.403   3.823   2.397
21745SOL     OW67067   0.757   6.593   9.365
21745SOL    HW167068   0.662   6.598   9.360
21745SOL    HW267069   0.777   6.500   9.364
21746SOL     OW67070   2.027  13.086   7.542
21746SOL    HW167071   2.036  13.180   7.560
21746SOL    HW267072   2.092  13.068   7.474
21747SOL     OW67073   3.414   1.631  10.512
21747SOL    HW167074   3.449   1.710  10.553
21747SOL    HW267075   3.329   1.657  10.477
21748SOL     OW67076   4.149   5.399  12.187
21748SOL    HW167077   4.190   5.374  12.104
21748SOL    HW267078   4.124   5.315  12.227
21749SOL     OW67079  10.417   1.658   0.584
21749SOL    HW167080  10.380   1.716   0.651
21749SOL    HW267081  10.499   1.626   0.622
21750SOL     OW67082  14.662  11.205   1.728
21750SOL    HW167083  14.647  11.154   1.649
21750SOL    HW267084  14.646  11.296   1.701
21751SOL     OW67085   1.861   6.861   5.073
21751SOL    HW167086   1.949   6.822   5.070
21751SOL    HW267087   1.810   6.809   5.012
21752SOL     OW67088   5.523   3.898  14.002
21752SOL    HW167089   5.600   3.853  14.035
21752SOL    HW267090   5.462   3.899  14.076
21753SOL     OW67091  10.506   4.868   0.697
21753SOL    HW167092  10.490   4.961   0.678
21753SOL    HW267093  10.576   4.843   0.637
21754SOL     OW67094  11.965  13.246   4.729
21754SOL    HW167095  11.909  13.298   4.786
21754SOL    HW267096  12.030  13.207   4.787
21755SOL     OW67097   1.995   0.477  14.476
21755SOL    HW167098   2.076   0.429  14.455
21755SOL    HW267099   1.946   0.416  14.532
21756SOL     OW67100   5.689   2.151   0.895
21756SOL    HW167101   5.665   2.221   0.835
21756SOL    HW267102   5.606   2.107   0.915
21757SOL     OW67103   7.622   0.428  14.258
21757SOL    HW167104   7.648   0.516  14.230
21757SOL    HW267105   7.674   0.410  14.336
21758SOL     OW67106   1.476  10.108  12.319
21758SOL    HW167107   1.569  10.124  12.303
21758SOL    HW267108   1.471  10.086  12.412
21759SOL     OW67109   1.061  10.501  10.099
21759SOL    HW167110   0.968  10.506  10.122
21759SOL    HW267111   1.065  10.439  10.026
21760SOL     OW67112   9.876   1.414  10.177
21760SOL    HW167113   9.851   1.327  10.146
21760SOL    HW267114   9.854   1.473  10.104
21761SOL     OW67115   3.954   7.078  13.785
21761SOL    HW167116   3.912   7.127  13.715
21761SOL    HW267117   3.990   7.145  13.843
21762SOL     OW67118   4.665   2.585  13.223
21762SOL    HW167119   4.582   2.631  13.216
21762SOL    HW267120   4.672   2.535  13.141
21763SOL     OW67121   8.405   4.295   8.892
21763SOL    HW167122   8.398   4.213   8.842
21763SOL    HW267123   8.324   4.300   8.942
21764SOL     OW67124   1.588   4.828  11.341
21764SOL    HW167125   1.663   4.869  11.299
21764SOL    HW267126   1.512   4.862  11.292
21765SOL     OW67127   1.238   8.781   4.477
21765SOL    HW167128   1.251   8.750   4.388
21765SOL    HW267129   1.152   8.748   4.502
21766SOL     OW67130   5.248   2.018   0.458
21766SOL    HW167131   5.176   2.064   0.416
21766SOL    HW267132   5.282   1.959   0.391
21767SOL     OW67133  14.622  13.667  11.354
21767SOL    HW167134  14.708  13.670  11.313
21767SOL    HW267135  14.585  13.583  11.326
21768SOL     OW67136  11.697   1.977  11.021
21768SOL    HW167137  11.665   1.891  10.993
21768SOL    HW267138  11.764   1.958  11.086
21769SOL     OW67139   9.289   0.971   9.012
21769SOL    HW167140   9.345   0.936   8.943
21769SOL    HW267141   9.267   1.059   8.982
21770SOL     OW67142   2.925   7.822   0.433
21770SOL    HW167143   2.919   7.739   0.481
21770SOL    HW267144   2.905   7.799   0.342
21771SOL     OW67145   7.807   1.707   7.974
21771SOL    HW167146   7.854   1.780   8.013
21771SOL    HW267147   7.737   1.687   8.036
21772SOL     OW67148  10.267   8.344   9.640
21772SOL    HW167149  10.234   8.422   9.684
21772SOL    HW267150  10.283   8.281   9.710
21773SOL     OW67151   3.174  12.755  12.881
21773SOL    HW167152   3.170  12.795  12.968
21773SOL    HW267153   3.267  12.758  12.857
21774SOL     OW67154  14.331   0.371  11.545
21774SOL    HW167155  14.324   0.352  11.451
21774SOL    HW267156  14.255   0.426  11.563
21775SOL     OW67157   6.365  10.483   0.600
21775SOL    HW167158   6.387  10.575   0.585
21775SOL    HW267159   6.400  10.437   0.523
21776SOL     OW67160  12.412   4.730   4.842
21776SOL    HW167161  12.372   4.724   4.756
21776SOL    HW267162  12.503   4.752   4.825
21777SOL     OW67163   9.488   7.923   1.205
21777SOL    HW167164   9.496   7.949   1.113
21777SOL    HW267165   9.399   7.947   1.228
21778SOL     OW67166   2.675   8.024   7.414
21778SOL    HW167167   2.688   8.080   7.338
21778SOL    HW267168   2.761   7.984   7.429
21779SOL     OW67169   5.392   4.866   8.127
21779SOL    HW167170   5.305   4.875   8.088
21779SOL    HW267171   5.380   4.803   8.198
21780SOL     OW67172   5.762   1.151  13.222
21780SOL    HW167173   5.693   1.211  13.251
21780SOL    HW267174   5.715   1.074  13.190
21781SOL     OW67175   8.237   8.823   0.421
21781SOL    HW167176   8.185   8.821   0.501
21781SOL    HW267177   8.222   8.910   0.385
21782SOL     OW67178   0.732   3.122  13.726
21782SOL    HW167179   0.684   3.045  13.757
21782SOL    HW267180   0.801   3.087  13.670
21783SOL     OW67181  10.329   6.713   2.359
21783SOL    HW167182  10.393   6.692   2.427
21783SOL    HW267183  10.332   6.638   2.299
21784SOL     OW67184   6.500   6.578   3.095
21784SOL    HW167185   6.531   6.604   3.181
21784SOL    HW267186   6.428   6.516   3.112
21785SOL     OW67187   9.183  13.558   8.007
21785SOL    HW167188   9.142  13.633   8.050
21785SOL    HW267189   9.175  13.487   8.070
21786SOL     OW67190   6.352   3.043   7.268
21786SOL    HW167191   6.380   3.130   7.297
21786SOL    HW267192   6.328   3.055   7.175
21787SOL     OW67193   1.135  13.109  14.781
21787SOL    HW167194   1.143  13.169  14.706
21787SOL    HW267195   1.076  13.155  14.841
21788SOL     OW67196   0.150   5.172  13.022
21788SOL    HW167197   0.062   5.208  13.019
21788SOL    HW267198   0.208   5.248  13.017
21789SOL     OW67199   1.072   4.885   0.063
21789SOL    HW167200   1.131   4.951   0.100
21789SOL    HW267201   0.989   4.931   0.050
21790SOL     OW67202   5.667   9.282   4.811
21790SOL    HW167203   5.679   9.187   4.815
21790SOL    HW267204   5.721   9.310   4.737
21791SOL     OW67205  13.136   1.618  10.387
21791SOL    HW167206  13.172   1.561  10.319
21791SOL    HW267207  13.208   1.677  10.409
21792SOL     OW67208  13.655   5.220   3.515
21792SOL    HW167209  13.604   5.301   3.518
21792SOL    HW267210  13.641   5.187   3.426
21793SOL     OW67211   3.722   7.935   8.144
21793SOL    HW167212   3.705   7.903   8.056
21793SOL    HW267213   3.803   7.891   8.171
21794SOL     OW67214   9.061  11.747  11.435
21794SOL    HW167215   9.099  11.720  11.352
21794SOL    HW267216   9.026  11.666  11.473
21795SOL     OW67217   6.847   0.924   2.953
21795SOL    HW167218   6.771   0.957   2.905
21795SOL    HW267219   6.818   0.841   2.990
21796SOL     OW67220   2.880   9.111   5.685
21796SOL    HW167221   2.826   9.190   5.680
21796SOL    HW267222   2.957   9.138   5.736
21797SOL     OW67223  12.606   4.817  14.327
21797SOL    HW167224  12.534   4.823  14.389
21797SOL    HW267225  12.590   4.735  14.279
21798SOL     OW67226   2.993   5.040   6.913
21798SOL    HW167227   3.075   5.039   6.964
21798SOL    HW267228   3.016   5.086   6.832
21799SOL     OW67229   1.282   8.285   9.203
21799SOL    HW167230   1.218   8.267   9.134
21799SOL    HW267231   1.288   8.380   9.207
21800SOL     OW67232   7.397   3.911   1.597
21800SOL    HW167233   7.479   3.861   1.594
21800SOL    HW267234   7.332   3.853   1.557
21801SOL     OW67235   5.630   0.697   1.275
21801SOL    HW167236   5.651   0.633   1.342
21801SOL    HW267237   5.704   0.693   1.214
21802SOL     OW67238  10.614   6.247   5.200
21802SOL    HW167239  10.661   6.329   5.214
21802SOL    HW267240  10.574   6.227   5.284
21803SOL     OW67241  14.281   5.529  14.871
21803SOL    HW167242  14.192   5.524  14.836
21803SOL    HW267243  14.333   5.474  14.813
21804SOL     OW67244   9.354   9.011   5.008
21804SOL    HW167245   9.404   8.966   4.939
21804SOL    HW267246   9.302   8.941   5.049
21805SOL     OW67247   4.760  10.353   9.767
21805SOL    HW167248   4.688  10.354   9.704
21805SOL    HW267249   4.718  10.365   9.852
21806SOL     OW67250   2.027   8.115  10.691
21806SOL    HW167251   2.116   8.136  10.718
21806SOL    HW267252   1.971   8.165  10.751
21807SOL     OW67253   9.635  14.703  10.342
21807SOL    HW167254   9.552  14.687  10.298
21807SOL    HW267255   9.680  14.767  10.287
21808SOL     OW67256   8.178   5.821  12.019
21808SOL    HW167257   8.192   5.857  12.107
21808SOL    HW267258   8.241   5.750  12.012
21809SOL     OW67259   8.937  10.172   9.016
21809SOL    HW167260   9.013  10.118   8.995
21809SOL    HW267261   8.863  10.111   9.014
21810SOL     OW67262   7.337  11.636   8.410
21810SOL    HW167263   7.345  11.558   8.355
21810SOL    HW267264   7.426  11.650   8.444
21811SOL     OW67265  13.661   9.922  13.157
21811SOL    HW167266  13.660   9.930  13.062
21811SOL    HW267267  13.750   9.891  13.177
21812SOL     OW67268   6.427  12.663  10.732
21812SOL    HW167269   6.522  12.675  10.733
21812SOL    HW267270   6.396  12.727  10.667
21813SOL     OW67271  12.932   7.830   0.959
21813SOL    HW167272  12.962   7.920   0.945
21813SOL    HW267273  13.000   7.776   0.918
21814SOL     OW67274  10.849   2.894  10.363
21814SOL    HW167275  10.826   2.929  10.450
21814SOL    HW267276  10.765   2.863  10.328
21815SOL     OW67277   1.511   5.936  13.029
21815SOL    HW167278   1.527   5.847  13.060
21815SOL    HW267279   1.502   5.988  13.109
21816SOL     OW67280   5.072  12.293   0.630
21816SOL    HW167281   4.986  12.285   0.672
21816SOL    HW267282   5.100  12.383   0.649
21817SOL     OW67283  10.006  13.224   6.213
21817SOL    HW167284   9.945  13.261   6.150
21817SOL    HW267285   9.950  13.187   6.282
21818SOL     OW67286   4.971   0.371   4.981
21818SOL    HW167287   5.047   0.346   5.034
21818SOL    HW267288   4.972   0.308   4.908
21819SOL     OW67289  13.254   9.152   4.712
21819SOL    HW167290  13.270   9.242   4.683
21819SOL    HW267291  13.341   9.111   4.712
21820SOL     OW67292   8.543   4.350   6.286
21820SOL    HW167293   8.470   4.299   6.251
21820SOL    HW267294   8.621   4.302   6.257
21821SOL     OW67295   9.791   6.148   9.907
21821SOL    HW167296   9.824   6.090   9.975
21821SOL    HW267297   9.775   6.091   9.832
21822SOL     OW67298   8.382   4.564  12.494
21822SOL    HW167299   8.424   4.535  12.413
21822SOL    HW267300   8.288   4.557  12.475
21823SOL     OW67301  11.446   1.041   7.247
21823SOL    HW167302  11.457   1.084   7.332
21823SOL    HW267303  11.354   1.015   7.245
21824SOL     OW67304   3.243   4.502   7.595
21824SOL    HW167305   3.270   4.578   7.543
21824SOL    HW267306   3.154   4.522   7.623
21825SOL     OW67307   5.406   2.073  10.192
21825SOL    HW167308   5.316   2.059  10.222
21825SOL    HW267309   5.434   1.988  10.160
21826SOL     OW67310   9.158  13.217   3.819
21826SOL    HW167311   9.234  13.224   3.876
21826SOL    HW267312   9.188  13.165   3.745
21827SOL     OW67313   3.538   0.742   9.508
21827SOL    HW167314   3.530   0.765   9.415
21827SOL    HW267315   3.555   0.825   9.552
21828SOL     OW67316   6.960   3.267  13.423
21828SOL    HW167317   6.912   3.278  13.505
21828SOL    HW267318   6.971   3.356  13.390
21829SOL     OW67319   4.925   7.143  11.101
21829SOL    HW167320   4.959   7.172  11.016
21829SOL    HW267321   4.875   7.064  11.081
21830SOL     OW67322  12.364   8.868   0.510
21830SOL    HW167323  12.393   8.827   0.429
21830SOL    HW267324  12.445   8.880   0.561
21831SOL     OW67325   5.934   3.484   2.496
21831SOL    HW167326   5.878   3.535   2.554
21831SOL    HW267327   5.933   3.533   2.413
21832SOL     OW67328   0.738  14.218   4.378
21832SOL    HW167329   0.731  14.224   4.283
21832SOL    HW267330   0.710  14.129   4.399
21833SOL     OW67331   4.245  11.006   6.787
21833SOL    HW167332   4.296  11.052   6.720
21833SOL    HW267333   4.157  11.043   6.779
21834SOL     OW67334   3.095   7.338   9.794
21834SOL    HW167335   3.116   7.372   9.707
21834SOL    HW267336   3.102   7.414   9.851
21835SOL     OW67337   6.722   9.703   0.958
21835SOL    HW167338   6.773   9.648   0.899
21835SOL    HW267339   6.648   9.732   0.905
21836SOL     OW67340   9.681   0.927   7.006
21836SOL    HW167341   9.712   1.009   6.969
21836SOL    HW267342   9.604   0.904   6.953
21837SOL     OW67343   8.894   5.488  11.782
21837SOL    HW167344   8.841   5.439  11.720
21837SOL    HW267345   8.977   5.442  11.784
21838SOL     OW67346   7.981   8.082   4.996
21838SOL    HW167347   7.990   8.007   5.055
21838SOL    HW267348   8.063   8.083   4.946
21839SOL     OW67349  13.833   2.218   5.136
21839SOL    HW167350  13.917   2.234   5.181
21839SOL    HW267351  13.780   2.294   5.159
21840SOL     OW67352  13.708   7.923  10.495
21840SOL    HW167353  13.686   7.972  10.416
21840SOL    HW267354  13.663   7.970  10.566
21841SOL     OW67355  14.472  10.770   3.036
21841SOL    HW167356  14.526  10.695   3.012
21841SOL    HW267357  14.412  10.781   2.962
21842SOL     OW67358  11.685  12.389   6.482
21842SOL    HW167359  11.780  12.377   6.487
21842SOL    HW267360  11.672  12.481   6.501
21843SOL     OW67361  11.870   1.868   3.887
21843SOL    HW167362  11.948   1.846   3.835
21843SOL    HW267363  11.812   1.792   3.876
21844SOL     OW67364   2.509   9.966  10.881
21844SOL    HW167365   2.601   9.970  10.856
21844SOL    HW267366   2.499   9.881  10.923
21845SOL     OW67367   9.547  10.556  14.656
21845SOL    HW167368   9.632  10.535  14.616
21845SOL    HW267369   9.503  10.610  14.591
21846SOL     OW67370   0.848   1.738   2.946
21846SOL    HW167371   0.921   1.677   2.934
21846SOL    HW267372   0.859   1.803   2.876
21847SOL     OW67373   7.110  14.848   6.744
21847SOL    HW167374   7.044  14.788   6.777
21847SOL    HW267375   7.134   0.029   6.819
21848SOL     OW67376   3.070   1.356  13.428
21848SOL    HW167377   3.003   1.378  13.492
21848SOL    HW267378   3.026   1.364  13.343
21849SOL     OW67379  11.155   5.783   8.024
21849SOL    HW167380  11.110   5.708   7.985
21849SOL    HW267381  11.171   5.757   8.115
21850SOL     OW67382   5.424   9.435   7.031
21850SOL    HW167383   5.513   9.399   7.032
21850SOL    HW267384   5.372   9.367   6.988
21851SOL     OW67385  11.555   3.512  13.055
21851SOL    HW167386  11.595   3.499  13.141
21851SOL    HW267387  11.629   3.533  12.998
21852SOL     OW67388   9.991   8.084   8.381
21852SOL    HW167389   9.952   8.089   8.468
21852SOL    HW267390   9.940   8.016   8.336
21853SOL     OW67391   6.386  12.814   8.125
21853SOL    HW167392   6.322  12.772   8.067
21853SOL    HW267393   6.380  12.907   8.105
21854SOL     OW67394   8.361   2.546   5.071
21854SOL    HW167395   8.312   2.621   5.105
21854SOL    HW267396   8.381   2.493   5.149
21855SOL     OW67397   3.029  13.221   2.161
21855SOL    HW167398   3.073  13.161   2.101
21855SOL    HW267399   3.021  13.172   2.243
21856SOL     OW67400   1.965   6.370   9.692
21856SOL    HW167401   1.977   6.373   9.598
21856SOL    HW267402   2.029   6.307   9.723
21857SOL     OW67403   8.134  13.493  11.291
21857SOL    HW167404   8.204  13.511  11.354
21857SOL    HW267405   8.151  13.403  11.262
21858SOL     OW67406   3.091   3.826   9.633
21858SOL    HW167407   3.155   3.755   9.639
21858SOL    HW267408   3.141   3.906   9.647
21859SOL     OW67409  12.392   6.816   3.113
21859SOL    HW167410  12.372   6.802   3.020
21859SOL    HW267411  12.356   6.903   3.133
21860SOL     OW67412   0.523   3.346   1.579
21860SOL    HW167413   0.481   3.306   1.503
21860SOL    HW267414   0.452   3.393   1.623
21861SOL     OW67415   1.542   8.480  12.437
21861SOL    HW167416   1.570   8.417  12.370
21861SOL    HW267417   1.523   8.560  12.389
21862SOL     OW67418   6.746  13.586   0.880
21862SOL    HW167419   6.721  13.524   0.948
21862SOL    HW267420   6.711  13.550   0.799
21863SOL     OW67421   4.109  10.648   4.511
21863SOL    HW167422   4.068  10.591   4.446
21863SOL    HW267423   4.203  10.632   4.501
21864SOL     OW67424   4.758  13.964  11.886
21864SOL    HW167425   4.687  13.923  11.935
21864SOL    HW267426   4.808  14.012  11.953
21865SOL     OW67427   5.850  10.092   7.140
21865SOL    HW167428   5.768  10.106   7.092
21865SOL    HW267429   5.822  10.084   7.231
21866SOL     OW67430   4.613  11.659   2.762
21866SOL    HW167431   4.578  11.647   2.850
21866SOL    HW267432   4.539  11.640   2.704
21867SOL     OW67433   5.877   3.302   4.334
21867SOL    HW167434   5.783   3.307   4.313
21867SOL    HW267435   5.891   3.210   4.358
21868SOL     OW67436   0.344  12.729  10.536
21868SOL    HW167437   0.395  12.750  10.614
21868SOL    HW267438   0.338  12.634  10.535
21869SOL     OW67439   3.215   0.453   4.065
21869SOL    HW167440   3.242   0.369   4.029
21869SOL    HW267441   3.293   0.509   4.058
21870SOL     OW67442  13.710   7.635   5.799
21870SOL    HW167443  13.623   7.615   5.833
21870SOL    HW267444  13.732   7.561   5.742
21871SOL     OW67445   3.945   3.461   2.646
21871SOL    HW167446   3.935   3.426   2.734
21871SOL    HW267447   3.886   3.408   2.592
21872SOL     OW67448   1.100   5.897  13.716
21872SOL    HW167449   1.023   5.843  13.698
21872SOL    HW267450   1.070   5.987  13.702
21873SOL     OW67451   3.404   4.395   4.923
21873SOL    HW167452   3.333   4.460   4.919
21873SOL    HW267453   3.472   4.430   4.865
21874SOL     OW67454   5.023   9.983   7.145
21874SOL    HW167455   5.078   9.994   7.067
21874SOL    HW267456   5.031  10.066   7.192
21875SOL     OW67457   5.716  13.387   9.560
21875SOL    HW167458   5.809  13.382   9.580
21875SOL    HW267459   5.674  13.400   9.645
21876SOL     OW67460  12.813   8.487  13.037
21876SOL    HW167461  12.852   8.406  13.072
21876SOL    HW267462  12.882   8.553  13.047
21877SOL     OW67463   3.904   0.610  11.686
21877SOL    HW167464   3.913   0.515  11.685
21877SOL    HW267465   3.817   0.626  11.650
21878SOL     OW67466  14.638   0.696   7.495
21878SOL    HW167467  14.727   0.670   7.469
21878SOL    HW267468  14.650   0.736   7.581
21879SOL     OW67469   6.531   7.893   2.574
21879SOL    HW167470   6.465   7.938   2.627
21879SOL    HW267471   6.614   7.931   2.603
21880SOL     OW67472   2.419   1.885  13.537
21880SOL    HW167473   2.377   1.807  13.501
21880SOL    HW267474   2.406   1.878  13.631
21881SOL     OW67475   2.571   8.678   2.632
21881SOL    HW167476   2.658   8.641   2.623
21881SOL    HW267477   2.514   8.619   2.582
21882SOL     OW67478   4.014   0.982   5.298
21882SOL    HW167479   4.106   0.990   5.324
21882SOL    HW267480   3.984   1.073   5.292
21883SOL     OW67481   6.229  13.855   9.549
21883SOL    HW167482   6.223  13.948   9.527
21883SOL    HW267483   6.144  13.819   9.526
21884SOL     OW67484  13.224   0.022   2.888
21884SOL    HW167485  13.286   0.092   2.869
21884SOL    HW267486  13.248  14.865   2.976
21885SOL     OW67487   7.682   7.748   7.812
21885SOL    HW167488   7.776   7.733   7.822
21885SOL    HW267489   7.641   7.683   7.869
21886SOL     OW67490   4.238   1.847   0.691
21886SOL    HW167491   4.285   1.765   0.707
21886SOL    HW267492   4.301   1.915   0.713
21887SOL     OW67493  13.519  14.860   5.826
21887SOL    HW167494  13.466   0.030   5.894
21887SOL    HW267495  13.601   0.035   5.826
21888SOL     OW67496   0.023   2.603  12.954
21888SOL    HW167497   0.066   2.675  13.001
21888SOL    HW267498  14.835   2.566  13.018
21889SOL     OW67499   5.066   7.796  12.005
21889SOL    HW167500   5.029   7.857  11.941
21889SOL    HW267501   5.110   7.730  11.952
21890SOL     OW67502   8.173  14.640  12.216
21890SOL    HW167503   8.153  14.711  12.277
21890SOL    HW267504   8.239  14.678  12.157
21891SOL     OW67505  13.523   4.167   7.709
21891SOL    HW167506  13.544   4.260   7.702
21891SOL    HW267507  13.508   4.153   7.802
21892SOL     OW67508   4.968  11.483   6.390
21892SOL    HW167509   4.968  11.395   6.353
21892SOL    HW267510   5.034  11.530   6.339
21893SOL     OW67511   9.218  13.151   5.877
21893SOL    HW167512   9.125  13.170   5.888
21893SOL    HW267513   9.264  13.229   5.909
21894SOL     OW67514  14.410   9.370   3.427
21894SOL    HW167515  14.463   9.330   3.358
21894SOL    HW267516  14.334   9.312   3.436
21895SOL     OW67517   3.784   8.745   8.164
21895SOL    HW167518   3.801   8.736   8.258
21895SOL    HW267519   3.718   8.814   8.158
21896SOL     OW67520   7.995   8.052   2.812
21896SOL    HW167521   7.946   8.017   2.738
21896SOL    HW267522   8.057   7.982   2.834
21897SOL     OW67523   7.933  13.683   5.370
21897SOL    HW167524   7.899  13.738   5.299
21897SOL    HW267525   7.862  13.622   5.388
21898SOL     OW67526  14.734   3.106   5.384
21898SOL    HW167527  14.825   3.106   5.413
21898SOL    HW267528  14.710   3.199   5.380
21899SOL     OW67529   3.713   3.234  12.470
21899SOL    HW167530   3.681   3.324  12.463
21899SOL    HW267531   3.657   3.193  12.535
21900SOL     OW67532   4.402   1.878   7.907
21900SOL    HW167533   4.326   1.861   7.850
21900SOL    HW267534   4.364   1.910   7.989
21901SOL     OW67535   7.408   4.916  13.382
21901SOL    HW167536   7.386   5.004  13.349
21901SOL    HW267537   7.355   4.906  13.461
21902SOL     OW67538  12.488  12.054   6.120
21902SOL    HW167539  12.518  11.969   6.151
21902SOL    HW267540  12.394  12.056   6.140
21903SOL     OW67541  13.588  11.972   3.572
21903SOL    HW167542  13.665  11.955   3.626
21903SOL    HW267543  13.614  12.042   3.513
21904SOL     OW67544   4.009   2.860   8.753
21904SOL    HW167545   4.057   2.779   8.771
21904SOL    HW267546   3.927   2.832   8.713
21905SOL     OW67547  11.452   0.985   1.226
21905SOL    HW167548  11.460   0.952   1.136
21905SOL    HW267549  11.523   0.941   1.274
21906SOL     OW67550   8.088   2.905   0.907
21906SOL    HW167551   8.097   2.816   0.942
21906SOL    HW267552   8.176   2.941   0.912
21907SOL     OW67553  14.857   8.977   6.877
21907SOL    HW167554  14.812   8.893   6.871
21907SOL    HW267555   0.072   8.954   6.910
21908SOL     OW67556   0.914  11.446  10.284
21908SOL    HW167557   0.858  11.370  10.267
21908SOL    HW267558   0.957  11.462  10.200
21909SOL     OW67559  10.688   6.121   8.894
21909SOL    HW167560  10.759   6.084   8.842
21909SOL    HW267561  10.610   6.114   8.838
21910SOL     OW67562   2.628   8.411  12.482
21910SOL    HW167563   2.700   8.400  12.544
21910SOL    HW267564   2.573   8.333  12.494
21911SOL     OW67565   7.431   5.005  14.686
21911SOL    HW167566   7.384   4.974  14.609
21911SOL    HW267567   7.505   4.944  14.696
21912SOL     OW67568  12.653   3.272  13.371
21912SOL    HW167569  12.581   3.223  13.332
21912SOL    HW267570  12.710   3.205  13.409
21913SOL     OW67571   1.556  12.512   0.168
21913SOL    HW167572   1.493  12.506   0.096
21913SOL    HW267573   1.511  12.472   0.242
21914SOL     OW67574  11.819   1.978   7.032
21914SOL    HW167575  11.842   1.967   6.939
21914SOL    HW267576  11.903   1.985   7.076
21915SOL     OW67577   4.184   4.727  12.598
21915SOL    HW167578   4.092   4.723  12.624
21915SOL    HW267579   4.233   4.727  12.680
21916SOL     OW67580   6.385   7.583   7.379
21916SOL    HW167581   6.341   7.564   7.296
21916SOL    HW267582   6.333   7.651   7.420
21917SOL     OW67583   5.738   4.715   9.733
21917SOL    HW167584   5.660   4.755   9.695
21917SOL    HW267585   5.802   4.787   9.737
21918SOL     OW67586   4.849   1.359   7.529
21918SOL    HW167587   4.775   1.363   7.469
21918SOL    HW267588   4.830   1.284   7.586
21919SOL     OW67589  13.057  12.286   5.125
21919SOL    HW167590  13.075  12.245   5.210
21919SOL    HW267591  12.984  12.346   5.143
21920SOL     OW67592  12.794   3.058   0.791
21920SOL    HW167593  12.700   3.076   0.785
21920SOL    HW267594  12.824   3.057   0.700
21921SOL     OW67595  11.287   3.194   9.884
21921SOL    HW167596  11.270   3.196   9.978
21921SOL    HW267597  11.229   3.262   9.847
21922SOL     OW67598   2.767   0.967   9.814
21922SOL    HW167599   2.672   0.962   9.807
21922SOL    HW267600   2.784   1.046   9.865
21923SOL     OW67601   0.422   3.906   5.639
21923SOL    HW167602   0.491   3.970   5.625
21923SOL    HW267603   0.466   3.821   5.636
21924SOL     OW67604   6.180  10.306   9.741
21924SOL    HW167605   6.165  10.399   9.755
21924SOL    HW267606   6.275  10.299   9.726
21925SOL     OW67607   8.126  13.562   9.515
21925SOL    HW167608   8.115  13.657   9.503
21925SOL    HW267609   8.210  13.554   9.561
21926SOL     OW67610   8.257   6.369   0.875
21926SOL    HW167611   8.210   6.286   0.873
21926SOL    HW267612   8.264   6.391   0.968
21927SOL     OW67613   8.387   6.375  13.466
21927SOL    HW167614   8.314   6.328  13.426
21927SOL    HW267615   8.463   6.319  13.453
21928SOL     OW67616   5.857   7.304   0.251
21928SOL    HW167617   5.861   7.236   0.318
21928SOL    HW267618   5.787   7.276   0.192
21929SOL     OW67619  12.536  10.131   0.170
21929SOL    HW167620  12.537  10.115   0.076
21929SOL    HW267621  12.454  10.094   0.200
21930SOL     OW67622   4.590   7.833   3.976
21930SOL    HW167623   4.659   7.767   3.981
21930SOL    HW267624   4.631   7.907   3.930
21931SOL     OW67625   1.560   2.046  11.426
21931SOL    HW167626   1.536   2.044  11.333
21931SOL    HW267627   1.655   2.038  11.427
21932SOL     OW67628   6.638   8.479   7.595
21932SOL    HW167629   6.701   8.428   7.645
21932SOL    HW267630   6.692   8.528   7.533
21933SOL     OW67631   0.950   9.488   7.840
21933SOL    HW167632   1.015   9.421   7.818
21933SOL    HW267633   0.972   9.513   7.930
21934SOL     OW67634   7.042   9.364   6.652
21934SOL    HW167635   7.060   9.308   6.577
21934SOL    HW267636   6.958   9.332   6.686
21935SOL     OW67637   4.434   7.853  13.418
21935SOL    HW167638   4.494   7.861  13.344
21935SOL    HW267639   4.485   7.808  13.485
21936SOL     OW67640  14.324   0.729   2.594
21936SOL    HW167641  14.369   0.653   2.555
21936SOL    HW267642  14.364   0.738   2.681
21937SOL     OW67643   2.397   7.221  11.604
21937SOL    HW167644   2.391   7.312  11.574
21937SOL    HW267645   2.458   7.224  11.677
21938SOL     OW67646  11.346   5.956   3.853
21938SOL    HW167647  11.414   5.997   3.799
21938SOL    HW267648  11.276   5.935   3.791
21939SOL     OW67649  12.683   3.003  13.073
21939SOL    HW167650  12.638   3.005  12.989
21939SOL    HW267651  12.624   3.047  13.134
21940SOL     OW67652   6.835   4.873   5.415
21940SOL    HW167653   6.758   4.845   5.463
21940SOL    HW267654   6.907   4.862   5.476
21941SOL     OW67655   7.669   1.351  12.275
21941SOL    HW167656   7.702   1.268  12.240
21941SOL    HW267657   7.725   1.418  12.237
21942SOL     OW67658   8.560  14.075   7.210
21942SOL    HW167659   8.550  14.088   7.116
21942SOL    HW267660   8.526  14.155   7.249
21943SOL     OW67661   6.655  11.789  11.181
21943SOL    HW167662   6.570  11.819  11.147
21943SOL    HW267663   6.633  11.726  11.249
21944SOL     OW67664   5.393   4.007  10.480
21944SOL    HW167665   5.300   4.025  10.493
21944SOL    HW267666   5.414   4.048  10.396
21945SOL     OW67667  10.990   7.502  13.564
21945SOL    HW167668  10.990   7.443  13.639
21945SOL    HW267669  10.962   7.586  13.599
21946SOL     OW67670   6.952  13.178   3.825
21946SOL    HW167671   7.042  13.150   3.841
21946SOL    HW267672   6.920  13.208   3.910
21947SOL     OW67673  13.823  14.531   0.828
21947SOL    HW167674  13.882  14.606   0.836
21947SOL    HW267675  13.880  14.457   0.810
21948SOL     OW67676   0.383   4.281   0.103
21948SOL    HW167677   0.426   4.338   0.039
21948SOL    HW267678   0.438   4.203   0.106
21949SOL     OW67679  11.991   4.434   1.467
21949SOL    HW167680  11.928   4.374   1.507
21949SOL    HW267681  12.052   4.377   1.420
21950SOL     OW67682   7.710   0.372   6.848
21950SOL    HW167683   7.773   0.418   6.903
21950SOL    HW267684   7.625   0.408   6.873
21951SOL     OW67685   6.377  12.623   0.889
21951SOL    HW167686   6.467  12.593   0.904
21951SOL    HW267687   6.332  12.605   0.972
21952SOL     OW67688  11.699   2.800   2.512
21952SOL    HW167689  11.648   2.860   2.567
21952SOL    HW267690  11.705   2.719   2.564
21953SOL     OW67691   7.479   6.417   1.425
21953SOL    HW167692   7.438   6.434   1.509
21953SOL    HW267693   7.417   6.359   1.379
21954SOL     OW67694   1.279   1.559  10.554
21954SOL    HW167695   1.226   1.498  10.605
21954SOL    HW267696   1.232   1.643  10.561
21955SOL     OW67697   9.638  10.904  12.354
21955SOL    HW167698   9.568  10.855  12.397
21955SOL    HW267699   9.639  10.870  12.264
21956SOL     OW67700   5.863   3.601   0.929
21956SOL    HW167701   5.839   3.589   0.837
21956SOL    HW267702   5.854   3.695   0.944
21957SOL     OW67703   3.156   3.598   3.667
21957SOL    HW167704   3.148   3.503   3.660
21957SOL    HW267705   3.080   3.624   3.720
21958SOL     OW67706   8.341   5.277   2.670
21958SOL    HW167707   8.352   5.302   2.762
21958SOL    HW267708   8.340   5.181   2.671
21959SOL     OW67709  12.719  14.870   0.793
21959SOL    HW167710  12.661   0.067   0.763
21959SOL    HW267711  12.781   0.041   0.851
21960SOL     OW67712   5.230   2.170   3.466
21960SOL    HW167713   5.320   2.150   3.493
21960SOL    HW267714   5.178   2.098   3.501
21961SOL     OW67715   7.705   6.382  11.979
21961SOL    HW167716   7.622   6.367  11.933
21961SOL    HW267717   7.771   6.342  11.922
21962SOL     OW67718  12.617   0.846   7.877
21962SOL    HW167719  12.591   0.763   7.840
21962SOL    HW267720  12.580   0.912   7.819
21963SOL     OW67721   7.327   2.646   6.021
21963SOL    HW167722   7.364   2.703   5.953
21963SOL    HW267723   7.303   2.566   5.975
21964SOL     OW67724   8.993  11.575   7.544
21964SOL    HW167725   9.016  11.661   7.508
21964SOL    HW267726   8.897  11.572   7.536
21965SOL     OW67727   0.256   8.981   2.269
21965SOL    HW167728   0.313   8.922   2.220
21965SOL    HW267729   0.278   8.965   2.361
21966SOL     OW67730  13.445   3.365  12.659
21966SOL    HW167731  13.356   3.333  12.675
21966SOL    HW267732  13.494   3.287  12.633
21967SOL     OW67733   4.586   5.018   2.427
21967SOL    HW167734   4.592   5.072   2.506
21967SOL    HW267735   4.661   5.045   2.374
21968SOL     OW67736   3.846  13.848   3.120
21968SOL    HW167737   3.913  13.807   3.065
21968SOL    HW267738   3.851  13.941   3.097
21969SOL     OW67739   2.879   8.455   8.704
21969SOL    HW167740   2.908   8.407   8.626
21969SOL    HW267741   2.836   8.534   8.669
21970SOL     OW67742   7.314  11.121  13.245
21970SOL    HW167743   7.260  11.187  13.288
21970SOL    HW267744   7.329  11.055  13.314
21971SOL     OW67745   5.213   2.145  11.224
21971SOL    HW167746   5.281   2.089  11.185
21971SOL    HW267747   5.146   2.083  11.255
21972SOL     OW67748   3.523   6.967  12.967
21972SOL    HW167749   3.497   6.913  12.893
21972SOL    HW267750   3.527   7.056  12.933
21973SOL     OW67751   0.308   0.244   5.669
21973SOL    HW167752   0.293   0.169   5.726
21973SOL    HW267753   0.229   0.250   5.615
21974SOL     OW67754  12.825   3.634   3.766
21974SOL    HW167755  12.875   3.713   3.744
21974SOL    HW267756  12.735   3.665   3.774
21975SOL     OW67757   5.249  14.493   6.365
21975SOL    HW167758   5.281  14.583   6.354
21975SOL    HW267759   5.220  14.490   6.456
21976SOL     OW67760   0.702   1.499   7.930
21976SOL    HW167761   0.628   1.450   7.894
21976SOL    HW267762   0.664   1.581   7.962
21977SOL     OW67763  11.010  10.977  10.082
21977SOL    HW167764  11.025  11.065  10.115
21977SOL    HW267765  10.966  10.932  10.154
21978SOL     OW67766   0.969   2.014  11.258
21978SOL    HW167767   0.918   1.933  11.261
21978SOL    HW267768   1.044   1.997  11.314
21979SOL     OW67769  12.153   1.750  10.902
21979SOL    HW167770  12.168   1.734  10.809
21979SOL    HW267771  12.219   1.696  10.947
21980SOL     OW67772   3.572   4.790   7.870
21980SOL    HW167773   3.577   4.885   7.871
21980SOL    HW267774   3.480   4.771   7.852
21981SOL     OW67775   4.536   6.588   3.633
21981SOL    HW167776   4.455   6.536   3.639
21981SOL    HW267777   4.559   6.586   3.540
21982SOL     OW67778  14.331   4.469   6.686
21982SOL    HW167779  14.425   4.449   6.686
21982SOL    HW267780  14.324   4.547   6.742
21983SOL     OW67781  11.200   1.820   7.243
21983SOL    HW167782  11.281   1.809   7.193
21983SOL    HW267783  11.218   1.779   7.327
21984SOL     OW67784   3.923   8.362  13.967
21984SOL    HW167785   3.879   8.278  13.976
21984SOL    HW267786   3.962   8.360  13.880
21985SOL     OW67787   4.315   8.738   5.936
21985SOL    HW167788   4.404   8.759   5.908
21985SOL    HW267789   4.264   8.816   5.917
21986SOL     OW67790   2.336   0.873   1.016
21986SOL    HW167791   2.343   0.922   1.097
21986SOL    HW267792   2.334   0.940   0.947
21987SOL     OW67793   7.554   4.596   4.970
21987SOL    HW167794   7.477   4.612   5.025
21987SOL    HW267795   7.534   4.515   4.924
21988SOL     OW67796   6.090   8.427  10.508
21988SOL    HW167797   6.093   8.522  10.501
21988SOL    HW267798   6.010   8.409  10.558
21989SOL     OW67799   3.090   4.421   2.010
21989SOL    HW167800   3.083   4.514   2.028
21989SOL    HW267801   3.178   4.397   2.042
21990SOL     OW67802  11.807  14.037   7.649
21990SOL    HW167803  11.783  13.992   7.730
21990SOL    HW267804  11.787  14.129   7.665
21991SOL     OW67805   7.952   1.230  12.616
21991SOL    HW167806   7.921   1.306  12.566
21991SOL    HW267807   7.885   1.163  12.600
21992SOL     OW67808  11.174   0.458   6.653
21992SOL    HW167809  11.264   0.480   6.629
21992SOL    HW267810  11.139   0.413   6.576
21993SOL     OW67811   2.558   0.779   3.572
21993SOL    HW167812   2.543   0.867   3.607
21993SOL    HW267813   2.470   0.742   3.564
21994SOL     OW67814   9.136  12.081  14.706
21994SOL    HW167815   9.163  12.037  14.626
21994SOL    HW267816   9.041  12.087  14.701
21995SOL     OW67817   2.746  10.361   4.002
21995SOL    HW167818   2.801  10.283   3.998
21995SOL    HW267819   2.665  10.332   4.045
21996SOL     OW67820  12.726   0.999   0.785
21996SOL    HW167821  12.634   0.975   0.779
21996SOL    HW267822  12.772   0.916   0.799
21997SOL     OW67823  11.245  12.747   2.067
21997SOL    HW167824  11.323  12.799   2.083
21997SOL    HW267825  11.219  12.768   1.978
21998SOL     OW67826   1.009  13.481   9.091
21998SOL    HW167827   1.046  13.568   9.075
21998SOL    HW267828   0.925  13.499   9.134
21999SOL     OW67829   8.476  11.336  13.537
21999SOL    HW167830   8.530  11.357  13.461
21999SOL    HW267831   8.400  11.394  13.530
22000SOL     OW67832  12.162   9.840   4.633
22000SOL    HW167833  12.133   9.870   4.547
22000SOL    HW267834  12.258   9.851   4.631
22001SOL     OW67835   5.280   4.757   4.606
22001SOL    HW167836   5.276   4.850   4.586
22001SOL    HW267837   5.189   4.732   4.624
22002SOL     OW67838  14.364  12.871  12.334
22002SOL    HW167839  14.341  12.953  12.288
22002SOL    HW267840  14.368  12.896  12.426
22003SOL     OW67841   0.859  10.900  12.625
22003SOL    HW167842   0.917  10.962  12.580
22003SOL    HW267843   0.906  10.817  12.625
22004SOL     OW67844  13.598   9.382   9.274
22004SOL    HW167845  13.548   9.413   9.349
22004SOL    HW267846  13.688   9.374   9.307
22005SOL     OW67847  12.593  11.051  11.914
22005SOL    HW167848  12.638  10.967  11.911
22005SOL    HW267849  12.603  11.086  11.825
22006SOL     OW67850   7.234   0.734   4.775
22006SOL    HW167851   7.294   0.700   4.709
22006SOL    HW267852   7.249   0.679   4.852
22007SOL     OW67853   0.628   3.624   1.275
22007SOL    HW167854   0.573   3.570   1.219
22007SOL    HW267855   0.622   3.712   1.236
22008SOL     OW67856   2.467   7.036   1.384
22008SOL    HW167857   2.404   6.976   1.423
22008SOL    HW267858   2.450   7.031   1.290
22009SOL     OW67859  11.238   2.282  14.841
22009SOL    HW167860  11.243   2.311  14.750
22009SOL    HW267861  11.305   2.214  14.848
22010SOL     OW67862  12.341  10.485   1.448
22010SOL    HW167863  12.270  10.485   1.511
22010SOL    HW267864  12.302  10.518   1.367
22011SOL     OW67865  13.927   1.257  11.685
22011SOL    HW167866  13.931   1.162  11.687
22011SOL    HW267867  13.837   1.277  11.659
22012SOL     OW67868   1.744   0.846   6.561
22012SOL    HW167869   1.776   0.833   6.471
22012SOL    HW267870   1.649   0.842   6.553
22013SOL     OW67871   9.572   8.011  12.067
22013SOL    HW167872   9.567   7.951  11.992
22013SOL    HW267873   9.612   8.090  12.031
22014SOL     OW67874  11.326   2.043   3.595
22014SOL    HW167875  11.243   1.998   3.611
22014SOL    HW267876  11.313   2.130   3.632
22015SOL     OW67877   0.925   4.532   6.191
22015SOL    HW167878   0.920   4.444   6.155
22015SOL    HW267879   1.018   4.554   6.187
22016SOL     OW67880   7.400  10.099   0.611
22016SOL    HW167881   7.433  10.184   0.641
22016SOL    HW267882   7.310  10.096   0.643
22017SOL     OW67883   8.320   9.970   6.895
22017SOL    HW167884   8.408   9.990   6.862
22017SOL    HW267885   8.321   9.876   6.909
22018SOL     OW67886   4.341  14.170   0.647
22018SOL    HW167887   4.268  14.181   0.585
22018SOL    HW267888   4.338  14.078   0.671
22019SOL     OW67889   7.235   3.472   8.075
22019SOL    HW167890   7.171   3.425   8.023
22019SOL    HW267891   7.225   3.438   8.164
22020SOL     OW67892  11.275   2.131   7.304
22020SOL    HW167893  11.273   2.184   7.384
22020SOL    HW267894  11.303   2.045   7.333
22021SOL     OW67895  12.427   0.870   1.987
22021SOL    HW167896  12.343   0.887   1.944
22021SOL    HW267897  12.447   0.951   2.034
22022SOL     OW67898  10.844  14.066   5.642
22022SOL    HW167899  10.783  14.134   5.611
22022SOL    HW267900  10.792  14.015   5.703
22023SOL     OW67901  10.005   3.584  14.456
22023SOL    HW167902  10.056   3.648  14.406
22023SOL    HW267903  10.071   3.526  14.493
22024SOL     OW67904   8.013   2.979   7.587
22024SOL    HW167905   8.020   2.914   7.657
22024SOL    HW267906   7.921   3.003   7.585
22025SOL     OW67907   9.542  11.024   6.596
22025SOL    HW167908   9.535  10.999   6.504
22025SOL    HW267909   9.504  10.950   6.643
22026SOL     OW67910  11.472   9.413  12.637
22026SOL    HW167911  11.461   9.377  12.549
22026SOL    HW267912  11.533   9.352  12.680
22027SOL     OW67913   0.808   4.364   3.164
22027SOL    HW167914   0.873   4.297   3.187
22027SOL    HW267915   0.740   4.354   3.230
22028SOL     OW67916   0.282  12.649   6.283
22028SOL    HW167917   0.362  12.599   6.269
22028SOL    HW267918   0.312  12.730   6.325
22029SOL     OW67919  13.485   7.277   3.848
22029SOL    HW167920  13.430   7.291   3.925
22029SOL    HW267921  13.571   7.309   3.874
22030SOL     OW67922   5.786   2.769  13.090
22030SOL    HW167923   5.785   2.783  12.996
22030SOL    HW267924   5.707   2.813  13.121
22031SOL     OW67925   9.150   6.821   9.018
22031SOL    HW167926   9.143   6.895   9.080
22031SOL    HW267927   9.241   6.825   8.987
22032SOL     OW67928   9.743  11.121  14.735
22032SOL    HW167929   9.731  11.206  14.777
22032SOL    HW267930   9.654  11.091  14.716
22033SOL     OW67931   6.112   8.173   6.487
22033SOL    HW167932   6.116   8.127   6.404
22033SOL    HW267933   6.107   8.104   6.553
22034SOL     OW67934   3.140  14.250   6.059
22034SOL    HW167935   3.214  14.220   6.112
22034SOL    HW267936   3.179  14.275   5.975
22035SOL     OW67937  13.450   2.527   5.278
22035SOL    HW167938  13.418   2.597   5.220
22035SOL    HW267939  13.377   2.511   5.337
22036SOL     OW67940   6.459  10.425   7.756
22036SOL    HW167941   6.393  10.385   7.812
22036SOL    HW267942   6.530  10.448   7.815
22037SOL     OW67943   9.154   3.643  13.827
22037SOL    HW167944   9.074   3.643  13.774
22037SOL    HW267945   9.124   3.648  13.917
22038SOL     OW67946   9.547  13.980   0.458
22038SOL    HW167947   9.466  14.004   0.414
22038SOL    HW267948   9.563  13.889   0.433
22039SOL     OW67949   3.411   7.287   7.395
22039SOL    HW167950   3.460   7.346   7.337
22039SOL    HW267951   3.447   7.305   7.482
22040SOL     OW67952  14.271  12.033   6.255
22040SOL    HW167953  14.272  12.063   6.164
22040SOL    HW267954  14.250  11.940   6.248
22041SOL     OW67955   0.109   8.885   1.358
22041SOL    HW167956   0.147   8.942   1.425
22041SOL    HW267957   0.160   8.804   1.364
22042SOL     OW67958   9.481  14.196  13.146
22042SOL    HW167959   9.469  14.118  13.200
22042SOL    HW267960   9.538  14.253  13.197
22043SOL     OW67961   3.961   2.376   5.530
22043SOL    HW167962   3.882   2.429   5.517
22043SOL    HW267963   3.966   2.322   5.452
22044SOL     OW67964   9.602   6.928   5.947
22044SOL    HW167965   9.651   6.961   5.872
22044SOL    HW267966   9.551   7.004   5.977
22045SOL     OW67967   2.646  10.560   2.930
22045SOL    HW167968   2.576  10.500   2.903
22045SOL    HW267969   2.719  10.502   2.954
22046SOL     OW67970  12.119  13.266  12.095
22046SOL    HW167971  12.092  13.175  12.110
22046SOL    HW267972  12.147  13.297  12.182
22047SOL     OW67973   9.119   6.923   5.199
22047SOL    HW167974   9.045   6.923   5.259
22047SOL    HW267975   9.193   6.892   5.252
22048SOL     OW67976   0.999   5.615   5.227
22048SOL    HW167977   1.071   5.585   5.171
22048SOL    HW267978   0.967   5.694   5.185
22049SOL     OW67979   6.033  14.147   4.841
22049SOL    HW167980   6.009  14.226   4.794
22049SOL    HW267981   5.949  14.111   4.872
22050SOL     OW67982  11.817   1.564  14.802
22050SOL    HW167983  11.856   1.571  14.715
22050SOL    HW267984  11.745   1.501  14.792
22051SOL     OW67985   4.375   3.276  13.933
22051SOL    HW167986   4.315   3.347  13.957
22051SOL    HW267987   4.321   3.216  13.881
22052SOL     OW67988   4.216   0.361   2.828
22052SOL    HW167989   4.218   0.322   2.740
22052SOL    HW267990   4.201   0.454   2.813
22053SOL     OW67991  11.404   8.563   5.311
22053SOL    HW167992  11.482   8.507   5.321
22053SOL    HW267993  11.331   8.502   5.313
22054SOL     OW67994   4.156  11.520  12.664
22054SOL    HW167995   4.222  11.451  12.665
22054SOL    HW267996   4.170  11.566  12.582
22055SOL     OW67997  12.034  14.539   2.538
22055SOL    HW167998  11.956  14.539   2.483
22055SOL    HW267999  12.106  14.519   2.478
22056SOL     OW68000   5.905   1.963   0.287
22056SOL    HW168001   5.899   1.896   0.355
22056SOL    HW268002   5.999   1.979   0.277
22057SOL     OW68003  12.168   9.880   8.242
22057SOL    HW168004  12.097   9.941   8.262
22057SOL    HW268005  12.235   9.898   8.308
22058SOL     OW68006  13.377   6.853   3.714
22058SOL    HW168007  13.442   6.889   3.654
22058SOL    HW268008  13.296   6.901   3.694
22059SOL     OW68009   2.154  11.845  13.191
22059SOL    HW168010   2.120  11.758  13.168
22059SOL    HW268011   2.202  11.831  13.272
22060SOL     OW68012   2.954   7.182   5.667
22060SOL    HW168013   2.991   7.211   5.751
22060SOL    HW268014   2.884   7.122   5.691
22061SOL     OW68015   5.377   6.233   3.239
22061SOL    HW168016   5.444   6.164   3.248
22061SOL    HW268017   5.303   6.201   3.290
22062SOL     OW68018  10.403   2.078   2.248
22062SOL    HW168019  10.475   2.067   2.185
22062SOL    HW268020  10.424   2.159   2.294
22063SOL     OW68021   4.695  11.335   8.495
22063SOL    HW168022   4.675  11.341   8.402
22063SOL    HW268023   4.623  11.283   8.532
22064SOL     OW68024  10.934   0.054   9.230
22064SOL    HW168025  10.987   0.112   9.284
22064SOL    HW268026  10.978  14.842   9.233
22065SOL     OW68027   8.382   2.983   1.060
22065SOL    HW168028   8.355   2.905   1.109
22065SOL    HW268029   8.447   3.025   1.116
22066SOL     OW68030   4.601   3.256   5.820
22066SOL    HW168031   4.674   3.279   5.877
22066SOL    HW268032   4.622   3.169   5.786
22067SOL     OW68033   4.922  12.133  10.683
22067SOL    HW168034   4.838  12.113  10.641
22067SOL    HW268035   4.988  12.116  10.617
22068SOL     OW68036  12.369   4.073  11.315
22068SOL    HW168037  12.459   4.043  11.300
22068SOL    HW268038  12.376   4.138  11.385
22069SOL     OW68039   1.960  11.367   1.157
22069SOL    HW168040   2.021  11.434   1.188
22069SOL    HW268041   1.953  11.305   1.230
22070SOL     OW68042   0.836  11.520   0.960
22070SOL    HW168043   0.914  11.544   1.009
22070SOL    HW268044   0.851  11.430   0.933
22071SOL     OW68045   2.158   6.578   0.341
22071SOL    HW168046   2.194   6.666   0.327
22071SOL    HW268047   2.228   6.531   0.386
22072SOL     OW68048  10.861  13.466   2.080
22072SOL    HW168049  10.874  13.542   2.136
22072SOL    HW268050  10.950  13.439   2.055
22073SOL     OW68051  12.707  14.714   9.765
22073SOL    HW168052  12.783  14.717   9.823
22073SOL    HW268053  12.743  14.687   9.680
22074SOL     OW68054   9.166   7.205   5.072
22074SOL    HW168055   9.175   7.133   5.134
22074SOL    HW268056   9.083   7.188   5.028
22075SOL     OW68057   0.514   3.074  14.252
22075SOL    HW168058   0.498   2.980  14.241
22075SOL    HW268059   0.590   3.091  14.196
22076SOL     OW68060   3.074   8.194  10.408
22076SOL    HW168061   2.984   8.187  10.378
22076SOL    HW268062   3.073   8.266  10.471
22077SOL     OW68063   8.270   4.061  12.157
22077SOL    HW168064   8.295   4.102  12.239
22077SOL    HW268065   8.354   4.039  12.115
22078SOL     OW68066   3.644  10.464   6.043
22078SOL    HW168067   3.622  10.402   5.973
22078SOL    HW268068   3.685  10.537   5.998
22079SOL     OW68069  11.693  13.998   1.034
22079SOL    HW168070  11.788  13.990   1.048
22079SOL    HW268071  11.655  13.969   1.117
22080SOL     OW68072   2.308   0.051   7.316
22080SOL    HW168073   2.337   0.026   7.229
22080SOL    HW268074   2.267  14.845   7.351
22081SOL     OW68075   8.233   6.005   6.749
22081SOL    HW168076   8.302   5.962   6.699
22081SOL    HW268077   8.153   5.988   6.699
22082SOL     OW68078   2.208   0.070  10.275
22082SOL    HW168079   2.236   0.147  10.325
22082SOL    HW268080   2.162   0.105  10.199
22083SOL     OW68081   5.244   6.338   9.904
22083SOL    HW168082   5.332   6.368   9.882
22083SOL    HW268083   5.201   6.326   9.819
22084SOL     OW68084   0.728  12.465   0.299
22084SOL    HW168085   0.766  12.473   0.212
22084SOL    HW268086   0.651  12.523   0.298
22085SOL     OW68087   9.985   6.736   1.859
22085SOL    HW168088  10.033   6.663   1.900
22085SOL    HW268089   9.949   6.699   1.779
22086SOL     OW68090   1.616   2.100   8.962
22086SOL    HW168091   1.701   2.142   8.955
22086SOL    HW268092   1.622   2.046   9.041
22087SOL     OW68093   5.178   8.313   1.271
22087SOL    HW168094   5.238   8.383   1.296
22087SOL    HW268095   5.228   8.232   1.282
22088SOL     OW68096  10.361   4.499  11.092
22088SOL    HW168097  10.415   4.485  11.170
22088SOL    HW268098  10.370   4.592  11.073
22089SOL     OW68099   8.100  10.150  12.877
22089SOL    HW168100   8.004  10.153  12.872
22089SOL    HW268101   8.121  10.058  12.888
22090SOL     OW68102   5.154  12.785   5.735
22090SOL    HW168103   5.099  12.736   5.674
22090SOL    HW268104   5.241  12.785   5.694
22091SOL     OW68105   1.453   5.618  14.252
22091SOL    HW168106   1.445   5.555  14.324
22091SOL    HW268107   1.470   5.701  14.295
22092SOL     OW68108   4.983   3.448   8.827
22092SOL    HW168109   4.943   3.362   8.839
22092SOL    HW268110   5.075   3.429   8.811
22093SOL     OW68111   6.745   5.119   1.206
22093SOL    HW168112   6.773   5.124   1.297
22093SOL    HW268113   6.678   5.187   1.197
22094SOL     OW68114   1.569   2.397   7.942
22094SOL    HW168115   1.526   2.352   8.015
22094SOL    HW268116   1.513   2.379   7.867
22095SOL     OW68117   0.167   8.564   2.421
22095SOL    HW168118   0.089   8.617   2.405
22095SOL    HW268119   0.208   8.603   2.498
22096SOL     OW68120  14.212   5.294  11.022
22096SOL    HW168121  14.278   5.357  10.994
22096SOL    HW268122  14.212   5.227  10.953
22097SOL     OW68123   5.173   6.746   0.525
22097SOL    HW168124   5.098   6.768   0.580
22097SOL    HW268125   5.149   6.662   0.485
22098SOL     OW68126   0.850   1.554   7.018
22098SOL    HW168127   0.869   1.560   7.112
22098SOL    HW268128   0.865   1.642   6.985
22099SOL     OW68129  10.585   6.183   4.928
22099SOL    HW168130  10.615   6.225   5.009
22099SOL    HW268131  10.597   6.250   4.861
22100SOL     OW68132   3.602   6.722  14.219
22100SOL    HW168133   3.569   6.722  14.309
22100SOL    HW268134   3.550   6.789  14.175
22101SOL     OW68135   4.063  12.648  11.720
22101SOL    HW168136   3.995  12.586  11.693
22101SOL    HW268137   4.022  12.701  11.787
22102SOL     OW68138   6.129   8.102   7.752
22102SOL    HW168139   6.044   8.146   7.745
22102SOL    HW268140   6.174   8.124   7.670
22103SOL     OW68141   1.182   3.939  11.121
22103SOL    HW168142   1.234   3.883  11.063
22103SOL    HW268143   1.127   3.878  11.170
22104SOL     OW68144  13.558   2.533  11.288
22104SOL    HW168145  13.528   2.515  11.199
22104SOL    HW268146  13.635   2.477  11.300
22105SOL     OW68147   2.543  14.647   8.585
22105SOL    HW168148   2.513  14.733   8.614
22105SOL    HW268149   2.616  14.666   8.525
22106SOL     OW68150   3.103  13.448  11.357
22106SOL    HW168151   3.147  13.486  11.282
22106SOL    HW268152   3.117  13.353  11.347
22107SOL     OW68153   2.295  14.672  10.343
22107SOL    HW168154   2.261  14.600  10.290
22107SOL    HW268155   2.285  14.750  10.288
22108SOL     OW68156   7.813   4.931   5.707
22108SOL    HW168157   7.907   4.936   5.691
22108SOL    HW268158   7.789   4.841   5.684
22109SOL     OW68159   1.849   2.170  12.083
22109SOL    HW168160   1.840   2.253  12.129
22109SOL    HW268161   1.931   2.132  12.116
22110SOL     OW68162  12.018   3.009   4.022
22110SOL    HW168163  12.035   2.945   3.953
22110SOL    HW268164  12.012   2.957   4.102
22111SOL     OW68165   1.071  13.072  12.364
22111SOL    HW168166   1.131  13.097  12.434
22111SOL    HW268167   1.121  13.010  12.311
22112SOL     OW68168   5.013   5.458   8.469
22112SOL    HW168169   5.015   5.404   8.548
22112SOL    HW268170   5.034   5.398   8.398
22113SOL     OW68171  10.138   1.864  13.994
22113SOL    HW168172  10.189   1.904  14.064
22113SOL    HW268173  10.093   1.938  13.953
22114SOL     OW68174  10.991   7.550   3.014
22114SOL    HW168175  11.075   7.585   2.985
22114SOL    HW268176  10.929   7.575   2.946
22115SOL     OW68177  11.573  13.466   6.676
22115SOL    HW168178  11.540  13.470   6.766
22115SOL    HW268179  11.506  13.416   6.629
22116SOL     OW68180  11.684   3.750  14.470
22116SOL    HW168181  11.629   3.816  14.426
22116SOL    HW268182  11.717   3.795  14.548
22117SOL     OW68183  10.034   9.517   8.930
22117SOL    HW168184  10.040   9.547   8.839
22117SOL    HW268185  10.090   9.440   8.933
22118SOL     OW68186   8.331   6.466   7.573
22118SOL    HW168187   8.276   6.513   7.510
22118SOL    HW268188   8.274   6.452   7.648
22119SOL     OW68189   7.176  11.709  11.737
22119SOL    HW168190   7.222  11.789  11.710
22119SOL    HW268191   7.225  11.639  11.695
22120SOL     OW68192   7.137  14.630  10.003
22120SOL    HW168193   7.102  14.631   9.914
22120SOL    HW268194   7.089  14.560  10.047
22121SOL     OW68195  11.389   0.431   8.782
22121SOL    HW168196  11.428   0.358   8.733
22121SOL    HW268197  11.300   0.438   8.746
22122SOL     OW68198  12.822   2.691   9.932
22122SOL    HW168199  12.880   2.732   9.867
22122SOL    HW268200  12.809   2.602   9.899
22123SOL     OW68201   2.533   3.483  12.309
22123SOL    HW168202   2.628   3.497  12.312
22123SOL    HW268203   2.522   3.388  12.311
22124SOL     OW68204   5.178  10.386   2.750
22124SOL    HW168205   5.236  10.462   2.760
22124SOL    HW268206   5.232  10.321   2.704
22125SOL     OW68207   2.426  12.248   1.963
22125SOL    HW168208   2.509  12.203   1.976
22125SOL    HW268209   2.397  12.221   1.875
22126SOL     OW68210   7.877  11.214   8.962
22126SOL    HW168211   7.959  11.227   8.915
22126SOL    HW268212   7.901  11.216   9.055
22127SOL     OW68213   4.976  10.901  11.074
22127SOL    HW168214   4.990  10.996  11.074
22127SOL    HW268215   4.970  10.877  11.166
22128SOL     OW68216  12.036   9.697   2.779
22128SOL    HW168217  11.985   9.646   2.716
22128SOL    HW268218  12.119   9.713   2.735
22129SOL     OW68219   1.285   0.982   2.560
22129SOL    HW168220   1.216   1.004   2.622
22129SOL    HW268221   1.364   1.018   2.599
22130SOL     OW68222  12.878   6.997   1.573
22130SOL    HW168223  12.934   7.049   1.630
22130SOL    HW268224  12.937   6.936   1.529
22131SOL     OW68225  13.787   3.328   9.132
22131SOL    HW168226  13.842   3.370   9.066
22131SOL    HW268227  13.707   3.381   9.133
22132SOL     OW68228   0.228   1.637  13.201
22132SOL    HW168229   0.302   1.581  13.222
22132SOL    HW268230   0.247   1.670  13.113
22133SOL     OW68231   6.226   0.283   9.454
22133SOL    HW168232   6.135   0.255   9.460
22133SOL    HW268233   6.228   0.366   9.502
22134SOL     OW68234   7.671   1.806   8.472
22134SOL    HW168235   7.764   1.819   8.490
22134SOL    HW268236   7.627   1.843   8.549
22135SOL     OW68237   2.932  11.635   0.414
22135SOL    HW168238   3.022  11.619   0.386
22135SOL    HW268239   2.914  11.566   0.478
22136SOL     OW68240   0.699  12.370   6.209
22136SOL    HW168241   0.706  12.288   6.160
22136SOL    HW268242   0.715  12.346   6.300
22137SOL     OW68243   9.876   6.982   9.368
22137SOL    HW168244   9.943   6.968   9.435
22137SOL    HW268245   9.815   6.909   9.379
22138SOL     OW68246  11.857  14.182  13.501
22138SOL    HW168247  11.788  14.195  13.436
22138SOL    HW268248  11.914  14.116  13.461
22139SOL     OW68249   1.845  12.373   5.069
22139SOL    HW168250   1.919  12.314   5.058
22139SOL    HW268251   1.884  12.458   5.089
22140SOL     OW68252   8.262  14.627   0.424
22140SOL    HW168253   8.277  14.568   0.350
22140SOL    HW268254   8.327  14.600   0.490
22141SOL     OW68255   1.956  12.101   7.348
22141SOL    HW168256   1.887  12.168   7.349
22141SOL    HW268257   1.920  12.030   7.295
22142SOL     OW68258  12.012  13.359   8.804
22142SOL    HW168259  12.105  13.340   8.797
22142SOL    HW268260  11.980  13.358   8.714
22143SOL     OW68261   5.975  14.122  11.603
22143SOL    HW168262   6.039  14.080  11.659
22143SOL    HW268263   5.919  14.051  11.572
22144SOL     OW68264   7.843  10.522   7.359
22144SOL    HW168265   7.924  10.471   7.365
22144SOL    HW268266   7.778  10.469   7.405
22145SOL     OW68267   3.124  11.087  13.279
22145SOL    HW168268   3.079  11.008  13.250
22145SOL    HW268269   3.131  11.078  13.374
22146SOL     OW68270  11.576   7.310   5.955
22146SOL    HW168271  11.543   7.382   6.009
22146SOL    HW268272  11.548   7.231   6.002
22147SOL     OW68273  12.844   9.008   7.296
22147SOL    HW168274  12.865   8.955   7.374
22147SOL    HW268275  12.775   9.067   7.325
22148SOL     OW68276  14.730   5.505   9.571
22148SOL    HW168277  14.682   5.453   9.507
22148SOL    HW268278  14.707   5.595   9.552
22149SOL     OW68279   2.775   4.533   7.157
22149SOL    HW168280   2.832   4.540   7.080
22149SOL    HW268281   2.806   4.455   7.202
22150SOL     OW68282   0.330  13.724  14.206
22150SOL    HW168283   0.386  13.668  14.153
22150SOL    HW268284   0.277  13.771  14.142
22151SOL     OW68285   3.814   8.036   6.585
22151SOL    HW168286   3.812   8.121   6.628
22151SOL    HW268287   3.858   7.979   6.647
22152SOL     OW68288   7.021  10.244  10.751
22152SOL    HW168289   6.926  10.244  10.736
22152SOL    HW268290   7.035  10.314  10.815
22153SOL     OW68291   7.671   8.476   1.949
22153SOL    HW168292   7.728   8.403   1.926
22153SOL    HW268293   7.730   8.545   1.979
22154SOL     OW68294  11.350  12.923  11.620
22154SOL    HW168295  11.291  12.869  11.567
22154SOL    HW268296  11.438  12.901  11.587
22155SOL     OW68297   6.658   5.130   9.988
22155SOL    HW168298   6.619   5.045   9.972
22155SOL    HW268299   6.587   5.193   9.976
22156SOL     OW68300   4.957   6.698   8.838
22156SOL    HW168301   5.047   6.727   8.823
22156SOL    HW268302   4.914   6.705   8.753
22157SOL     OW68303  10.567  11.459   9.758
22157SOL    HW168304  10.590  11.502   9.840
22157SOL    HW268305  10.567  11.365   9.779
22158SOL     OW68306  12.089   9.806   0.975
22158SOL    HW168307  12.183   9.794   0.963
22158SOL    HW268308  12.067   9.884   0.924
22159SOL     OW68309   7.374   6.472   7.875
22159SOL    HW168310   7.435   6.542   7.897
22159SOL    HW268311   7.319   6.462   7.952
22160SOL     OW68312  10.560   4.402   7.011
22160SOL    HW168313  10.556   4.311   6.983
22160SOL    HW268314  10.470   4.423   7.039
22161SOL     OW68315   7.437   4.079   0.798
22161SOL    HW168316   7.468   4.072   0.708
22161SOL    HW268317   7.508   4.122   0.845
22162SOL     OW68318  13.513  12.201  10.974
22162SOL    HW168319  13.501  12.133  10.908
22162SOL    HW268320  13.501  12.283  10.927
22163SOL     OW68321   9.999   9.836   6.933
22163SOL    HW168322   9.934   9.906   6.944
22163SOL    HW268323   9.957   9.774   6.874
22164SOL     OW68324  13.287  10.881  12.791
22164SOL    HW168325  13.299  10.789  12.815
22164SOL    HW268326  13.356  10.898  12.727
22165SOL     OW68327   3.163   6.986  11.566
22165SOL    HW168328   3.199   7.065  11.607
22165SOL    HW268329   3.156   7.008  11.473
22166SOL     OW68330  10.260   0.831  14.472
22166SOL    HW168331  10.172   0.802  14.447
22166SOL    HW268332  10.319   0.779  14.418
22167SOL     OW68333   0.853   3.363   6.866
22167SOL    HW168334   0.841   3.458   6.862
22167SOL    HW268335   0.915   3.349   6.937
22168SOL     OW68336   5.700   3.923   1.352
22168SOL    HW168337   5.661   3.923   1.439
22168SOL    HW268338   5.775   3.983   1.360
22169SOL     OW68339   9.769  11.111   1.785
22169SOL    HW168340   9.695  11.073   1.739
22169SOL    HW268341   9.774  11.201   1.753
22170SOL     OW68342   8.099  10.681   6.510
22170SOL    HW168343   8.018  10.714   6.548
22170SOL    HW268344   8.133  10.754   6.458
22171SOL     OW68345   0.278  14.645   8.160
22171SOL    HW168346   0.265  14.551   8.172
22171SOL    HW268347   0.191  14.681   8.144
22172SOL     OW68348   4.953  13.247   8.414
22172SOL    HW168349   4.872  13.200   8.398
22172SOL    HW268350   4.990  13.261   8.327
22173SOL     OW68351  11.338  12.480   7.373
22173SOL    HW168352  11.428  12.453   7.391
22173SOL    HW268353  11.346  12.556   7.316
22174SOL     OW68354   2.852   4.684   8.205
22174SOL    HW168355   2.915   4.712   8.271
22174SOL    HW268356   2.895   4.609   8.163
22175SOL     OW68357   4.386  11.805  10.221
22175SOL    HW168358   4.390  11.743  10.148
22175SOL    HW268359   4.341  11.881  10.185
22176SOL     OW68360   8.734  14.681   9.714
22176SOL    HW168361   8.684  14.733   9.651
22176SOL    HW268362   8.667  14.636   9.766
22177SOL     OW68363  11.852  13.772   5.311
22177SOL    HW168364  11.885  13.805   5.227
22177SOL    HW268365  11.822  13.683   5.292
22178SOL     OW68366   4.962   9.503   6.332
22178SOL    HW168367   5.025   9.526   6.401
22178SOL    HW268368   4.997   9.423   6.293
22179SOL     OW68369  14.823   7.838   8.575
22179SOL    HW168370  14.825   7.933   8.583
22179SOL    HW268371  14.736   7.817   8.542
22180SOL     OW68372   4.527   6.039  12.339
22180SOL    HW168373   4.499   6.040  12.431
22180SOL    HW268374   4.450   6.065  12.290
22181SOL     OW68375   1.230   0.411   1.727
22181SOL    HW168376   1.229   0.349   1.800
22181SOL    HW268377   1.161   0.474   1.747
22182SOL     OW68378   7.937   3.527   7.080
22182SOL    HW168379   8.014   3.529   7.136
22182SOL    HW268380   7.863   3.528   7.140
22183SOL     OW68381   9.609   6.188   6.347
22183SOL    HW168382   9.655   6.204   6.265
22183SOL    HW268383   9.535   6.248   6.345
22184SOL     OW68384  12.134  13.405  10.201
22184SOL    HW168385  12.107  13.496  10.192
22184SOL    HW268386  12.100  13.362  10.122
22185SOL     OW68387   5.267   1.618   7.139
22185SOL    HW168388   5.188   1.580   7.103
22185SOL    HW268389   5.240   1.655   7.223
22186SOL     OW68390   5.980  11.794   7.439
22186SOL    HW168391   5.950  11.763   7.354
22186SOL    HW268392   5.915  11.859   7.466
22187SOL     OW68393  10.453   6.641   3.709
22187SOL    HW168394  10.366   6.642   3.749
22187SOL    HW268395  10.444   6.695   3.631
22188SOL     OW68396  10.013  14.299   0.084
22188SOL    HW168397   9.981  14.279   0.172
22188SOL    HW268398  10.049  14.388   0.091
22189SOL     OW68399  11.854   8.966   8.400
22189SOL    HW168400  11.806   8.943   8.320
22189SOL    HW268401  11.842   9.061   8.407
22190SOL     OW68402   7.377  13.666  10.978
22190SOL    HW168403   7.342  13.713  10.901
22190SOL    HW268404   7.438  13.728  11.018
22191SOL     OW68405   6.770   5.988   8.061
22191SOL    HW168406   6.728   6.052   8.118
22191SOL    HW268407   6.841   6.036   8.020
22192SOL     OW68408   5.368   3.186   1.628
22192SOL    HW168409   5.346   3.093   1.622
22192SOL    HW268410   5.461   3.188   1.651
22193SOL     OW68411   4.678  11.349   0.265
22193SOL    HW168412   4.658  11.320   0.176
22193SOL    HW268413   4.673  11.445   0.261
22194SOL     OW68414   2.780  11.855   4.701
22194SOL    HW168415   2.708  11.797   4.677
22194SOL    HW268416   2.780  11.856   4.796
22195SOL     OW68417   4.408  12.906   5.707
22195SOL    HW168418   4.481  12.940   5.758
22195SOL    HW268419   4.401  12.965   5.632
22196SOL     OW68420   4.644   9.886   7.583
22196SOL    HW168421   4.695   9.863   7.506
22196SOL    HW268422   4.701   9.864   7.657
22197SOL     OW68423   8.657   5.511   9.490
22197SOL    HW168424   8.622   5.508   9.401
22197SOL    HW268425   8.674   5.419   9.512
22198SOL     OW68426   1.801  10.275  14.789
22198SOL    HW168427   1.882  10.311  14.824
22198SOL    HW268428   1.820  10.182  14.777
22199SOL     OW68429   2.875   8.000   8.480
22199SOL    HW168430   2.865   7.973   8.388
22199SOL    HW268431   2.893   7.918   8.526
22200SOL     OW68432   1.387   3.877   4.226
22200SOL    HW168433   1.400   3.972   4.234
22200SOL    HW268434   1.473   3.839   4.241
22201SOL     OW68435   0.760  14.795   9.140
22201SOL    HW168436   0.820  14.800   9.065
22201SOL    HW268437   0.695  14.730   9.114
22202SOL     OW68438   3.010   0.369  13.623
22202SOL    HW168439   2.979   0.459  13.631
22202SOL    HW268440   2.931   0.316  13.626
22203SOL     OW68441  12.800   3.844  12.006
22203SOL    HW168442  12.744   3.922  12.001
22203SOL    HW268443  12.822   3.837  12.098
22204SOL     OW68444   4.302   0.326   8.945
22204SOL    HW168445   4.366   0.334   8.874
22204SOL    HW268446   4.220   0.356   8.907
22205SOL     OW68447   0.362   0.938   6.988
22205SOL    HW168448   0.302   0.924   6.915
22205SOL    HW268449   0.398   0.851   7.006
22206SOL     OW68450  12.926   9.487  12.532
22206SOL    HW168451  12.840   9.496  12.573
22206SOL    HW268452  12.912   9.425  12.460
22207SOL     OW68453  11.245   9.722   8.408
22207SOL    HW168454  11.180   9.692   8.344
22207SOL    HW268455  11.329   9.690   8.374
22208SOL     OW68456   7.632  13.743   2.659
22208SOL    HW168457   7.709  13.798   2.675
22208SOL    HW268458   7.661  13.678   2.596
22209SOL     OW68459   7.342  11.396   2.831
22209SOL    HW168460   7.359  11.419   2.740
22209SOL    HW268461   7.428  11.374   2.867
22210SOL     OW68462  13.100   9.905   0.906
22210SOL    HW168463  13.147   9.870   0.981
22210SOL    HW268464  13.123   9.998   0.903
22211SOL     OW68465  14.608   0.897   4.117
22211SOL    HW168466  14.677   0.963   4.121
22211SOL    HW268467  14.532   0.944   4.084
22212SOL     OW68468   8.027   2.887   5.055
22212SOL    HW168469   8.072   2.852   5.132
22212SOL    HW268470   8.093   2.939   5.010
22213SOL     OW68471  14.195   0.215   4.129
22213SOL    HW168472  14.144   0.289   4.163
22213SOL    HW268473  14.284   0.248   4.120
22214SOL     OW68474   5.228   8.231   0.747
22214SOL    HW168475   5.180   8.241   0.664
22214SOL    HW268476   5.159   8.217   0.812
22215SOL     OW68477  11.863   0.456  10.280
22215SOL    HW168478  11.831   0.468  10.369
22215SOL    HW268479  11.944   0.406  10.290
22216SOL     OW68480   3.293  11.459  11.071
22216SOL    HW168481   3.352  11.457  10.996
22216SOL    HW268482   3.323  11.385  11.126
22217SOL     OW68483   6.868  11.146   9.732
22217SOL    HW168484   6.796  11.136   9.794
22217SOL    HW268485   6.847  11.086   9.661
22218SOL     OW68486   1.960  10.098   2.070
22218SOL    HW168487   1.883  10.061   2.027
22218SOL    HW268488   1.948  10.193   2.062
22219SOL     OW68489  12.640  11.562  10.538
22219SOL    HW168490  12.566  11.503  10.521
22219SOL    HW268491  12.611  11.616  10.611
22220SOL     OW68492  14.009   2.877   9.178
22220SOL    HW168493  14.022   2.891   9.272
22220SOL    HW268494  14.084   2.920   9.137
22221SOL     OW68495  11.276   1.048  13.573
22221SOL    HW168496  11.248   1.124  13.623
22221SOL    HW268497  11.198   0.991  13.571
22222SOL     OW68498   8.542  13.376   4.139
22222SOL    HW168499   8.589  13.428   4.074
22222SOL    HW268500   8.559  13.285   4.114
22223SOL     OW68501   9.522  12.286  10.043
22223SOL    HW168502   9.601  12.267   9.991
22223SOL    HW268503   9.556  12.328  10.123
22224SOL     OW68504   8.441   0.937   2.237
22224SOL    HW168505   8.473   0.891   2.315
22224SOL    HW268506   8.501   1.011   2.227
22225SOL     OW68507  10.487   9.769  13.778
22225SOL    HW168508  10.443   9.854  13.773
22225SOL    HW268509  10.446   9.724  13.852
22226SOL     OW68510  10.780   9.226   6.319
22226SOL    HW168511  10.821   9.276   6.389
22226SOL    HW268512  10.746   9.292   6.258
22227SOL     OW68513   5.367   1.880   2.912
22227SOL    HW168514   5.294   1.835   2.954
22227SOL    HW268515   5.363   1.853   2.820
22228SOL     OW68516  12.328   2.269   4.833
22228SOL    HW168517  12.380   2.293   4.909
22228SOL    HW268518  12.300   2.353   4.796
22229SOL     OW68519  12.566   6.611   2.016
22229SOL    HW168520  12.503   6.631   1.947
22229SOL    HW268521  12.611   6.533   1.985
22230SOL     OW68522  11.904  11.643   5.482
22230SOL    HW168523  11.972  11.661   5.548
22230SOL    HW268524  11.828  11.692   5.513
22231SOL     OW68525   1.461   9.534   6.284
22231SOL    HW168526   1.538   9.504   6.333
22231SOL    HW268527   1.462   9.629   6.293
22232SOL     OW68528  13.408  10.399   4.212
22232SOL    HW168529  13.414  10.305   4.195
22232SOL    HW268530  13.450  10.440   4.136
22233SOL     OW68531   3.638   3.220   1.934
22233SOL    HW168532   3.642   3.304   1.980
22233SOL    HW268533   3.579   3.236   1.861
22234SOL     OW68534  11.501  13.939   4.831
22234SOL    HW168535  11.441  13.967   4.763
22234SOL    HW268536  11.588  13.958   4.795
22235SOL     OW68537  11.934   7.796  10.486
22235SOL    HW168538  11.926   7.769  10.577
22235SOL    HW268539  12.028   7.811  10.473
22236SOL     OW68540  12.869   0.928   7.607
22236SOL    HW168541  12.856   0.995   7.675
22236SOL    HW268542  12.786   0.881   7.605
22237SOL     OW68543  14.168   4.396   5.749
22237SOL    HW168544  14.125   4.349   5.820
22237SOL    HW268545  14.196   4.478   5.788
22238SOL     OW68546   0.975   3.713  12.679
22238SOL    HW168547   0.944   3.802  12.661
22238SOL    HW268548   0.916   3.680  12.747
22239SOL     OW68549   7.607  13.734   3.761
22239SOL    HW168550   7.651  13.650   3.777
22239SOL    HW268551   7.676  13.791   3.726
22240SOL     OW68552   8.940  12.600  11.324
22240SOL    HW168553   8.998  12.559  11.259
22240SOL    HW268554   8.991  12.675  11.356
22241SOL     OW68555  13.414  10.011  13.896
22241SOL    HW168556  13.472   9.935  13.900
22241SOL    HW268557  13.387  10.024  13.987
22242SOL     OW68558  12.283   8.051  12.739
22242SOL    HW168559  12.213   8.104  12.778
22242SOL    HW268560  12.266   7.962  12.768
22243SOL     OW68561   0.342   4.893   7.225
22243SOL    HW168562   0.434   4.917   7.215
22243SOL    HW268563   0.301   4.921   7.144
22244SOL     OW68564  12.236  12.888  13.428
22244SOL    HW168565  12.155  12.884  13.480
22244SOL    HW268566  12.285  12.961  13.465
22245SOL     OW68567  13.778  12.539   0.507
22245SOL    HW168568  13.797  12.551   0.414
22245SOL    HW268569  13.702  12.594   0.524
22246SOL     OW68570   1.858   7.572   8.604
22246SOL    HW168571   1.933   7.528   8.564
22246SOL    HW268572   1.812   7.503   8.651
22247SOL     OW68573   2.108   1.399   7.466
22247SOL    HW168574   2.033   1.342   7.484
22247SOL    HW268575   2.069   1.486   7.455
22248SOL     OW68576   6.821   5.737  13.416
22248SOL    HW168577   6.839   5.738  13.510
22248SOL    HW268578   6.732   5.703  13.408
22249SOL     OW68579   7.081  13.849   1.011
22249SOL    HW168580   7.030  13.802   0.945
22249SOL    HW268581   7.172  13.822   0.996
22250SOL     OW68582   1.712  12.309   7.697
22250SOL    HW168583   1.696  12.342   7.608
22250SOL    HW268584   1.649  12.239   7.709
22251SOL     OW68585  14.283   9.299   1.201
22251SOL    HW168586  14.327   9.222   1.164
22251SOL    HW268587  14.228   9.263   1.270
22252SOL     OW68588  10.217   8.617   8.015
22252SOL    HW168589  10.243   8.709   8.019
22252SOL    HW268590  10.218   8.588   8.107
22253SOL     OW68591   9.397  12.153   9.484
22253SOL    HW168592   9.455  12.079   9.502
22253SOL    HW268593   9.314  12.112   9.456
22254SOL     OW68594   8.044  14.168   2.389
22254SOL    HW168595   7.977  14.110   2.352
22254SOL    HW268596   7.999  14.212   2.461
22255SOL     OW68597  13.943   0.946   4.356
22255SOL    HW168598  14.013   0.986   4.306
22255SOL    HW268599  13.974   0.857   4.374
22256SOL     OW68600   8.494   1.057  14.134
22256SOL    HW168601   8.515   0.976  14.182
22256SOL    HW268602   8.453   1.113  14.200
22257SOL     OW68603  11.719   5.586   5.460
22257SOL    HW168604  11.660   5.550   5.394
22257SOL    HW268605  11.730   5.516   5.524
22258SOL     OW68606   2.768  14.224   1.943
22258SOL    HW168607   2.728  14.294   1.994
22258SOL    HW268608   2.724  14.144   1.973
22259SOL     OW68609   4.950  14.174  12.906
22259SOL    HW168610   5.033  14.178  12.859
22259SOL    HW268611   4.896  14.242  12.867
22260SOL     OW68612   8.458   3.938  14.617
22260SOL    HW168613   8.510   3.964  14.694
22260SOL    HW268614   8.369   3.966  14.637
22261SOL     OW68615   7.223   4.622   4.135
22261SOL    HW168616   7.211   4.650   4.045
22261SOL    HW268617   7.239   4.528   4.129
22262SOL     OW68618   9.429   3.435   1.650
22262SOL    HW168619   9.388   3.420   1.565
22262SOL    HW268620   9.515   3.392   1.644
22263SOL     OW68621   5.832   0.748   1.047
22263SOL    HW168622   5.848   0.823   0.989
22263SOL    HW268623   5.916   0.733   1.091
22264SOL     OW68624  13.761   1.753   1.988
22264SOL    HW168625  13.750   1.728   1.897
22264SOL    HW268626  13.744   1.847   1.990
22265SOL     OW68627  13.093   1.973   7.696
22265SOL    HW168628  13.186   1.986   7.712
22265SOL    HW268629  13.085   1.880   7.677
22266SOL     OW68630  10.023  13.948  13.308
22266SOL    HW168631   9.980  13.983  13.386
22266SOL    HW268632   9.959  13.957  13.238
22267SOL     OW68633   0.577   0.076  10.552
22267SOL    HW168634   0.572   0.108  10.642
22267SOL    HW268635   0.637   0.137  10.508
22268SOL     OW68636   7.711  11.202   0.445
22268SOL    HW168637   7.693  11.128   0.503
22268SOL    HW268638   7.639  11.201   0.382
22269SOL     OW68639   6.129   8.313   4.452
22269SOL    HW168640   6.108   8.230   4.494
22269SOL    HW268641   6.194   8.290   4.386
22270SOL     OW68642  12.465  11.733   8.711
22270SOL    HW168643  12.404  11.782   8.656
22270SOL    HW268644  12.492  11.796   8.777
22271SOL     OW68645  12.601  14.292   6.965
22271SOL    HW168646  12.655  14.282   6.886
22271SOL    HW268647  12.604  14.385   6.984
22272SOL     OW68648   7.400   0.428   8.488
22272SOL    HW168649   7.357   0.513   8.500
22272SOL    HW268650   7.377   0.402   8.398
22273SOL     OW68651   9.625   8.635   2.494
22273SOL    HW168652   9.650   8.728   2.486
22273SOL    HW268653   9.674   8.592   2.424
22274SOL     OW68654  14.625   6.008   9.431
22274SOL    HW168655  14.613   6.093   9.475
22274SOL    HW268656  14.537   5.972   9.425
22275SOL     OW68657  14.442   6.547   5.270
22275SOL    HW168658  14.377   6.602   5.315
22275SOL    HW268659  14.391   6.476   5.232
22276SOL     OW68660   7.300  12.737  11.169
22276SOL    HW168661   7.386  12.772  11.144
22276SOL    HW268662   7.241  12.767  11.100
22277SOL     OW68663   3.106   3.238   9.662
22277SOL    HW168664   3.052   3.166   9.629
22277SOL    HW268665   3.091   3.238   9.756
22278SOL     OW68666   6.844   8.325   1.425
22278SOL    HW168667   6.842   8.409   1.379
22278SOL    HW268668   6.888   8.265   1.365
22279SOL     OW68669  12.728   7.626   0.828
22279SOL    HW168670  12.795   7.692   0.847
22279SOL    HW268671  12.646   7.675   0.825
22280SOL     OW68672  14.505   9.563   3.567
22280SOL    HW168673  14.600   9.548   3.568
22280SOL    HW268674  14.469   9.486   3.523
22281SOL     OW68675   8.614  13.444   5.622
22281SOL    HW168676   8.703  13.418   5.596
22281SOL    HW268677   8.557  13.397   5.561
22282SOL     OW68678  13.220   2.964   9.720
22282SOL    HW168679  13.167   2.982   9.798
22282SOL    HW268680  13.287   3.032   9.719
22283SOL     OW68681   0.535   3.369   5.216
22283SOL    HW168682   0.561   3.309   5.145
22283SOL    HW268683   0.600   3.439   5.213
22284SOL     OW68684  10.687   4.885  12.486
22284SOL    HW168685  10.653   4.917  12.569
22284SOL    HW268686  10.615   4.896  12.424
22285SOL     OW68687  14.666   6.944   4.732
22285SOL    HW168688  14.698   7.025   4.693
22285SOL    HW268689  14.671   6.880   4.661
22286SOL     OW68690  14.118   2.088  13.143
22286SOL    HW168691  14.120   2.030  13.220
22286SOL    HW268692  14.160   2.169  13.173
22287SOL     OW68693  13.500   2.882   9.404
22287SOL    HW168694  13.410   2.877   9.436
22287SOL    HW268695  13.530   2.792   9.402
22288SOL     OW68696   1.001   8.542  11.756
22288SOL    HW168697   1.047   8.460  11.735
22288SOL    HW268698   1.069   8.599  11.790
22289SOL     OW68699  12.655   1.931  12.098
22289SOL    HW168700  12.588   1.994  12.126
22289SOL    HW268701  12.701   1.976  12.027
22290SOL     OW68702   1.333  12.601   2.712
22290SOL    HW168703   1.274  12.594   2.637
22290SOL    HW268704   1.322  12.519   2.759
22291SOL     OW68705   9.051  10.471   8.052
22291SOL    HW168706   9.090  10.477   8.139
22291SOL    HW268707   9.077  10.553   8.009
22292SOL     OW68708   8.498   0.198   1.204
22292SOL    HW168709   8.540   0.112   1.211
22292SOL    HW268710   8.491   0.214   1.110
22293SOL     OW68711   3.236  12.125   0.837
22293SOL    HW168712   3.223  12.202   0.781
22293SOL    HW268713   3.159  12.122   0.893
22294SOL     OW68714   1.399  10.602   2.138
22294SOL    HW168715   1.464  10.610   2.207
22294SOL    HW268716   1.384  10.508   2.130
22295SOL     OW68717   3.415   9.626  11.872
22295SOL    HW168718   3.481   9.560  11.892
22295SOL    HW268719   3.465   9.704  11.847
22296SOL     OW68720   5.670   1.324   5.020
22296SOL    HW168721   5.687   1.418   5.009
22296SOL    HW268722   5.586   1.320   5.064
22297SOL     OW68723   2.894   7.439   8.331
22297SOL    HW168724   2.880   7.431   8.426
22297SOL    HW268725   2.972   7.387   8.314
22298SOL     OW68726   6.181   5.830   7.585
22298SOL    HW168727   6.250   5.775   7.549
22298SOL    HW268728   6.201   5.834   7.679
22299SOL     OW68729   6.108  13.159   5.023
22299SOL    HW168730   6.148  13.189   5.105
22299SOL    HW268731   6.041  13.225   5.003
22300SOL     OW68732   1.310  13.767   5.130
22300SOL    HW168733   1.231  13.739   5.177
22300SOL    HW268734   1.380  13.759   5.194
22301SOL     OW68735   6.004   3.220   7.312
22301SOL    HW168736   5.916   3.245   7.285
22301SOL    HW268737   6.021   3.139   7.264
22302SOL     OW68738   7.611   6.908   3.748
22302SOL    HW168739   7.550   6.838   3.726
22302SOL    HW268740   7.625   6.899   3.842
22303SOL     OW68741   3.391   8.209   4.952
22303SOL    HW168742   3.429   8.279   4.899
22303SOL    HW268743   3.390   8.244   5.041
22304SOL     OW68744   9.870   8.155   4.902
22304SOL    HW168745   9.889   8.065   4.925
22304SOL    HW268746   9.882   8.159   4.807
22305SOL     OW68747  13.598   7.074  10.328
22305SOL    HW168748  13.612   7.143  10.263
22305SOL    HW268749  13.677   7.020  10.322
22306SOL     OW68750   1.790  11.171   8.393
22306SOL    HW168751   1.742  11.178   8.475
22306SOL    HW268752   1.842  11.091   8.403
22307SOL     OW68753   1.366   4.328   4.602
22307SOL    HW168754   1.307   4.254   4.618
22307SOL    HW268755   1.447   4.288   4.571
22308SOL     OW68756   1.162   8.037   0.642
22308SOL    HW168757   1.102   8.091   0.694
22308SOL    HW268758   1.204   8.098   0.582
22309SOL     OW68759   7.645  12.803   7.952
22309SOL    HW168760   7.659  12.797   7.858
22309SOL    HW268761   7.603  12.720   7.975
22310SOL     OW68762   2.890   2.371   3.883
22310SOL    HW168763   2.891   2.405   3.794
22310SOL    HW268764   2.801   2.338   3.896
22311SOL     OW68765  12.470   6.307   9.842
22311SOL    HW168766  12.455   6.369   9.771
22311SOL    HW268767  12.391   6.253   9.845
22312SOL     OW68768   2.712   2.552   7.952
22312SOL    HW168769   2.773   2.624   7.970
22312SOL    HW268770   2.734   2.486   8.017
22313SOL     OW68771  10.099   7.308   1.115
22313SOL    HW168772  10.083   7.309   1.021
22313SOL    HW268773  10.189   7.278   1.124
22314SOL     OW68774  11.378   9.144  11.976
22314SOL    HW168775  11.468   9.153  12.006
22314SOL    HW268776  11.379   9.171  11.884
22315SOL     OW68777   6.437   2.145  11.741
22315SOL    HW168778   6.363   2.084  11.746
22315SOL    HW268779   6.487   2.115  11.666
22316SOL     OW68780   7.066   2.499   5.551
22316SOL    HW168781   7.028   2.523   5.466
22316SOL    HW268782   7.154   2.536   5.549
22317SOL     OW68783   3.655  12.794  10.907
22317SOL    HW168784   3.618  12.732  10.970
22317SOL    HW268785   3.634  12.880  10.943
22318SOL     OW68786   2.321   5.416   6.901
22318SOL    HW168787   2.252   5.412   6.835
22318SOL    HW268788   2.371   5.336   6.888
22319SOL     OW68789   9.441   0.950   8.413
22319SOL    HW168790   9.445   0.882   8.480
22319SOL    HW268791   9.481   1.027   8.454
22320SOL     OW68792   9.295   7.740   2.299
22320SOL    HW168793   9.387   7.718   2.316
22320SOL    HW268794   9.245   7.682   2.356
22321SOL     OW68795   3.928   9.569   6.264
22321SOL    HW168796   3.991   9.587   6.334
22321SOL    HW268797   3.962   9.617   6.188
22322SOL     OW68798   5.137  14.657   3.776
22322SOL    HW168799   5.174  14.681   3.691
22322SOL    HW268800   5.067  14.721   3.791
22323SOL     OW68801   9.715   5.559   2.317
22323SOL    HW168802   9.660   5.499   2.367
22323SOL    HW268803   9.663   5.581   2.239
22324SOL     OW68804   9.666   6.455   6.134
22324SOL    HW168805   9.596   6.491   6.189
22324SOL    HW268806   9.620   6.422   6.056
22325SOL     OW68807   8.534  14.332  13.422
22325SOL    HW168808   8.556  14.420  13.452
22325SOL    HW268809   8.499  14.288  13.499
22326SOL     OW68810   1.587   5.577   9.572
22326SOL    HW168811   1.562   5.653   9.625
22326SOL    HW268812   1.504   5.532   9.555
22327SOL     OW68813   3.724   3.047   8.809
22327SOL    HW168814   3.684   3.127   8.842
22327SOL    HW268815   3.662   2.978   8.833
22328SOL     OW68816  14.088  12.651   6.868
22328SOL    HW168817  14.139  12.680   6.944
22328SOL    HW268818  14.152  12.644   6.798
22329SOL     OW68819   4.966  13.047   0.970
22329SOL    HW168820   5.035  13.028   0.906
22329SOL    HW268821   4.945  13.139   0.955
22330SOL     OW68822  14.831   9.843   3.932
22330SOL    HW168823  14.845   9.852   3.838
22330SOL    HW268824  14.736   9.838   3.943
22331SOL     OW68825   5.072  14.563  13.564
22331SOL    HW168826   5.017  14.550  13.487
22331SOL    HW268827   5.012  14.597  13.631
22332SOL     OW68828   6.852   7.751   3.475
22332SOL    HW168829   6.919   7.683   3.463
22332SOL    HW268830   6.769   7.707   3.454
22333SOL     OW68831   5.978  12.662  13.478
22333SOL    HW168832   6.013  12.707  13.401
22333SOL    HW268833   6.047  12.670  13.544
22334SOL     OW68834  12.077   9.013   0.700
22334SOL    HW168835  12.143   8.960   0.655
22334SOL    HW268836  12.120   9.040   0.781
22335SOL     OW68837   4.582  14.036   2.404
22335SOL    HW168838   4.521  14.109   2.396
22335SOL    HW268839   4.539  13.975   2.465
22336SOL     OW68840   1.739   1.827  14.814
22336SOL    HW168841   1.740   1.822   0.037
22336SOL    HW268842   1.662   1.777  14.788
22337SOL     OW68843  11.587   5.061   3.822
22337SOL    HW168844  11.665   5.097   3.864
22337SOL    HW268845  11.520   5.064   3.890
22338SOL     OW68846  13.009  11.116   6.930
22338SOL    HW168847  12.991  11.154   7.017
22338SOL    HW268848  13.102  11.130   6.917
22339SOL     OW68849  10.033   5.699   4.058
22339SOL    HW168850   9.999   5.693   3.969
22339SOL    HW268851  10.056   5.792   4.069
22340SOL     OW68852   2.972   6.550   4.688
22340SOL    HW168853   2.955   6.489   4.760
22340SOL    HW268854   2.993   6.493   4.614
22341SOL     OW68855   7.013   4.419   3.757
22341SOL    HW168856   6.939   4.361   3.777
22341SOL    HW268857   7.087   4.359   3.745
22342SOL     OW68858   6.090   9.140  10.350
22342SOL    HW168859   6.138   9.210  10.305
22342SOL    HW268860   6.082   9.170  10.440
22343SOL     OW68861   0.715  12.508   4.588
22343SOL    HW168862   0.665  12.443   4.538
22343SOL    HW268863   0.681  12.593   4.559
22344SOL     OW68864  12.429   9.867   0.496
22344SOL    HW168865  12.492   9.877   0.568
22344SOL    HW268866  12.364   9.805   0.530
22345SOL     OW68867  12.157   1.031   4.805
22345SOL    HW168868  12.121   1.120   4.806
22345SOL    HW268869  12.118   0.989   4.882
22346SOL     OW68870   4.287   6.886  13.411
22346SOL    HW168871   4.362   6.942  13.429
22346SOL    HW268872   4.213   6.947  13.406
22347SOL     OW68873   2.933   8.890   7.361
22347SOL    HW168874   2.875   8.838   7.417
22347SOL    HW268875   3.005   8.917   7.419
22348SOL     OW68876   8.899   7.070   3.210
22348SOL    HW168877   8.803   7.072   3.214
22348SOL    HW268878   8.918   6.994   3.155
22349SOL     OW68879  10.286  12.607   0.215
22349SOL    HW168880  10.294  12.511   0.212
22349SOL    HW268881  10.320  12.636   0.130
22350SOL     OW68882  11.829  11.072  13.070
22350SOL    HW168883  11.887  11.033  13.004
22350SOL    HW268884  11.757  11.010  13.079
22351SOL     OW68885   1.450  11.777  13.599
22351SOL    HW168886   1.359  11.782  13.630
22351SOL    HW268887   1.442  11.755  13.506
22352SOL     OW68888   7.548   5.126   7.848
22352SOL    HW168889   7.496   5.141   7.769
22352SOL    HW268890   7.518   5.192   7.910
22353SOL     OW68891  10.946  13.357  13.053
22353SOL    HW168892  11.025  13.324  13.095
22353SOL    HW268893  10.970  13.365  12.961
22354SOL     OW68894  14.280   6.439   2.974
22354SOL    HW168895  14.208   6.377   2.960
22354SOL    HW268896  14.343   6.419   2.904
22355SOL     OW68897   9.535   9.392   8.428
22355SOL    HW168898   9.447   9.361   8.407
22355SOL    HW268899   9.527   9.487   8.435
22356SOL     OW68900   8.335   7.172   8.911
22356SOL    HW168901   8.377   7.091   8.880
22356SOL    HW268902   8.382   7.242   8.866
22357SOL     OW68903   3.537   3.098  11.410
22357SOL    HW168904   3.474   3.158  11.369
22357SOL    HW268905   3.591   3.067  11.337
22358SOL     OW68906  11.748   1.430   6.828
22358SOL    HW168907  11.759   1.467   6.741
22358SOL    HW268908  11.673   1.371   6.820
22359SOL     OW68909   5.830   1.515   7.693
22359SOL    HW168910   5.926   1.513   7.685
22359SOL    HW268911   5.814   1.522   7.787
22360SOL     OW68912   2.622   4.118   0.649
22360SOL    HW168913   2.688   4.050   0.660
22360SOL    HW268914   2.658   4.176   0.582
22361SOL     OW68915   6.227   6.912   7.270
22361SOL    HW168916   6.223   6.969   7.347
22361SOL    HW268917   6.157   6.849   7.283
22362SOL     OW68918   0.131  10.053   6.642
22362SOL    HW168919   0.219  10.062   6.679
22362SOL    HW268920   0.077  10.108   6.697
22363SOL     OW68921  14.537   3.278   5.641
22363SOL    HW168922  14.465   3.278   5.578
22363SOL    HW268923  14.592   3.352   5.613
22364SOL     OW68924   6.750   0.151   1.870
22364SOL    HW168925   6.801   0.131   1.949
22364SOL    HW268926   6.809   0.131   1.798
22365SOL     OW68927   7.207   9.773  11.409
22365SOL    HW168928   7.248   9.780  11.322
22365SOL    HW268929   7.187   9.864  11.433
22366SOL     OW68930  14.478  13.631   9.304
22366SOL    HW168931  14.408  13.609   9.242
22366SOL    HW268932  14.508  13.717   9.275
22367SOL     OW68933   1.974   7.126  13.622
22367SOL    HW168934   2.064   7.159  13.623
22367SOL    HW268935   1.927   7.185  13.562
22368SOL     OW68936   3.225  12.423   8.744
22368SOL    HW168937   3.177  12.499   8.778
22368SOL    HW268938   3.190  12.349   8.794
22369SOL     OW68939   9.759  13.532   4.973
22369SOL    HW168940   9.775  13.484   5.055
22369SOL    HW268941   9.668  13.511   4.951
22370SOL     OW68942   1.404   7.814   7.385
22370SOL    HW168943   1.473   7.750   7.366
22370SOL    HW268944   1.448   7.881   7.439
22371SOL     OW68945   3.948  12.132  14.786
22371SOL    HW168946   4.011  12.161  14.720
22371SOL    HW268947   3.864  12.169  14.757
22372SOL     OW68948   9.225   6.998   1.770
22372SOL    HW168949   9.193   7.088   1.763
22372SOL    HW268950   9.319   7.005   1.758
22373SOL     OW68951   7.485   2.188  10.665
22373SOL    HW168952   7.408   2.184  10.722
22373SOL    HW268953   7.557   2.211  10.724
22374SOL     OW68954   9.192   2.196   9.686
22374SOL    HW168955   9.271   2.217   9.635
22374SOL    HW268956   9.120   2.236   9.637
22375SOL     OW68957   4.918   9.239   8.302
22375SOL    HW168958   4.847   9.206   8.246
22375SOL    HW268959   4.873   9.287   8.371
22376SOL     OW68960   6.503   6.860   2.978
22376SOL    HW168961   6.494   6.788   3.040
22376SOL    HW268962   6.554   6.824   2.905
22377SOL     OW68963   3.596  11.493  11.128
22377SOL    HW168964   3.535  11.431  11.167
22377SOL    HW268965   3.586  11.480  11.034
22378SOL     OW68966   3.633   4.847  10.225
22378SOL    HW168967   3.553   4.871  10.178
22378SOL    HW268968   3.635   4.751  10.222
22379SOL     OW68969   1.064   6.167  11.314
22379SOL    HW168970   1.108   6.251  11.305
22379SOL    HW268971   0.976   6.182  11.279
22380SOL     OW68972  10.237  11.941  14.380
22380SOL    HW168973  10.190  11.862  14.354
22380SOL    HW268974  10.212  11.954  14.472
22381SOL     OW68975   1.687  11.606   7.106
22381SOL    HW168976   1.707  11.513   7.119
22381SOL    HW268977   1.658  11.637   7.192
22382SOL     OW68978  12.260   6.802   2.520
22382SOL    HW168979  12.248   6.897   2.515
22382SOL    HW268980  12.178   6.770   2.557
22383SOL     OW68981  12.647   5.529  11.835
22383SOL    HW168982  12.582   5.468  11.800
22383SOL    HW268983  12.695   5.560  11.758
22384SOL     OW68984  10.684   8.178  12.456
22384SOL    HW168985  10.687   8.122  12.534
22384SOL    HW268986  10.710   8.264  12.487
22385SOL     OW68987   7.526   4.974   6.972
22385SOL    HW168988   7.507   4.996   7.063
22385SOL    HW268989   7.512   5.056   6.924
22386SOL     OW68990   9.977   1.909   5.764
22386SOL    HW168991  10.030   1.953   5.697
22386SOL    HW268992   9.986   1.964   5.842
22387SOL     OW68993   3.575   1.206   8.316
22387SOL    HW168994   3.666   1.231   8.331
22387SOL    HW268995   3.575   1.167   8.228
22388SOL     OW68996   5.118   5.567  11.164
22388SOL    HW168997   5.182   5.591  11.231
22388SOL    HW268998   5.066   5.497  11.205
22389SOL     OW68999   4.963   4.787  13.944
22389SOL    HW169000   4.896   4.762  14.008
22389SOL    HW269001   5.004   4.865  13.981
22390SOL     OW69002  13.937  14.435  12.472
22390SOL    HW169003  14.013  14.456  12.417
22390SOL    HW269004  13.911  14.347  12.445
22391SOL     OW69005   6.609  14.632   5.710
22391SOL    HW169006   6.611  14.704   5.647
22391SOL    HW269007   6.610  14.675   5.796
22392SOL     OW69008  11.539   4.587  12.025
22392SOL    HW169009  11.468   4.529  12.050
22392SOL    HW269010  11.585   4.606  12.107
22393SOL     OW69011   2.088  10.491   7.068
22393SOL    HW169012   2.037  10.567   7.041
22393SOL    HW269013   2.081  10.430   6.995
22394SOL     OW69014   6.150   9.910  12.586
22394SOL    HW169015   6.170   9.833  12.532
22394SOL    HW269016   6.199   9.897  12.667
22395SOL     OW69017  12.096   3.763   6.168
22395SOL    HW169018  12.010   3.774   6.208
22395SOL    HW269019  12.085   3.691   6.106
22396SOL     OW69020  13.216   6.031   6.943
22396SOL    HW169021  13.250   6.119   6.929
22396SOL    HW269022  13.149   6.021   6.875
22397SOL     OW69023   3.639  13.026   5.448
22397SOL    HW169024   3.696  12.966   5.496
22397SOL    HW269025   3.648  12.998   5.356
22398SOL     OW69026   3.344   9.745  12.402
22398SOL    HW169027   3.375   9.787  12.322
22398SOL    HW269028   3.420   9.746  12.460
22399SOL     OW69029   6.966   5.144   6.600
22399SOL    HW169030   6.996   5.173   6.687
22399SOL    HW269031   7.040   5.097   6.563
22400SOL     OW69032   5.615  13.064   4.561
22400SOL    HW169033   5.634  13.061   4.467
22400SOL    HW269034   5.701  13.056   4.602
22401SOL     OW69035   6.745   9.744   0.010
22401SOL    HW169036   6.766   9.651   0.011
22401SOL    HW269037   6.653   9.748  14.857
22402SOL     OW69038   6.260   3.192  10.625
22402SOL    HW169039   6.212   3.251  10.683
22402SOL    HW269040   6.214   3.108  10.633
22403SOL     OW69041   8.716  13.599   5.288
22403SOL    HW169042   8.645  13.654   5.254
22403SOL    HW269043   8.745  13.549   5.212
22404SOL     OW69044   7.671  10.350   9.454
22404SOL    HW169045   7.698  10.275   9.507
22404SOL    HW269046   7.751  10.380   9.412
22405SOL     OW69047   8.383   8.528  14.617
22405SOL    HW169048   8.378   8.560  14.707
22405SOL    HW269049   8.302   8.478  14.604
22406SOL     OW69050   2.104  14.647  10.846
22406SOL    HW169051   2.010  14.652  10.832
22406SOL    HW269052   2.139  14.618  10.762
22407SOL     OW69053  12.317   0.533   1.808
22407SOL    HW169054  12.225   0.557   1.816
22407SOL    HW269055  12.352   0.539   1.897
22408SOL     OW69056   6.351   3.444   9.750
22408SOL    HW169057   6.412   3.510   9.783
22408SOL    HW269058   6.371   3.436   9.657
22409SOL     OW69059  10.297   7.217  12.716
22409SOL    HW169060  10.210   7.189  12.687
22409SOL    HW269061  10.353   7.202  12.640
22410SOL     OW69062   1.838   6.118   1.718
22410SOL    HW169063   1.871   6.067   1.645
22410SOL    HW269064   1.749   6.143   1.693
22411SOL     OW69065   3.299   5.449   0.376
22411SOL    HW169066   3.272   5.531   0.418
22411SOL    HW269067   3.358   5.408   0.439
22412SOL     OW69068   6.116   6.341  10.041
22412SOL    HW169069   6.171   6.317  10.116
22412SOL    HW269070   6.027   6.314  10.067
22413SOL     OW69071  14.197  11.356   2.764
22413SOL    HW169072  14.161  11.396   2.843
22413SOL    HW269073  14.257  11.289   2.796
22414SOL     OW69074   2.911   5.427   6.290
22414SOL    HW169075   2.899   5.429   6.385
22414SOL    HW269076   2.925   5.334   6.270
22415SOL     OW69077   2.605   9.453   7.748
22415SOL    HW169078   2.530   9.394   7.752
22415SOL    HW269079   2.660   9.429   7.823
22416SOL     OW69080   1.270   6.744   3.545
22416SOL    HW169081   1.218   6.674   3.583
22416SOL    HW269082   1.333   6.700   3.489
22417SOL     OW69083   3.256   3.549  13.400
22417SOL    HW169084   3.328   3.555  13.462
22417SOL    HW269085   3.185   3.601  13.439
22418SOL     OW69086   1.929   7.017   3.551
22418SOL    HW169087   1.894   6.958   3.619
22418SOL    HW269088   1.889   7.102   3.570
22419SOL     OW69089  11.113  11.962  13.597
22419SOL    HW169090  11.077  11.921  13.518
22419SOL    HW269091  11.036  11.981  13.651
22420SOL     OW69092   3.937   9.617   1.212
22420SOL    HW169093   4.032   9.622   1.207
22420SOL    HW269094   3.919   9.558   1.285
22421SOL     OW69095  11.666   9.542   3.603
22421SOL    HW169096  11.586   9.576   3.564
22421SOL    HW269097  11.636   9.480   3.669
22422SOL     OW69098   1.363   3.567   3.142
22422SOL    HW169099   1.409   3.486   3.120
22422SOL    HW269100   1.406   3.599   3.222
22423SOL     OW69101   9.285   2.539  10.268
22423SOL    HW169102   9.271   2.539  10.362
22423SOL    HW269103   9.282   2.446  10.243
22424SOL     OW69104  14.834   4.826   3.064
22424SOL    HW169105  14.798   4.844   3.152
22424SOL    HW269106  14.757   4.827   3.007
22425SOL     OW69107   6.664  10.164  13.028
22425SOL    HW169108   6.713  10.101  12.974
22425SOL    HW269109   6.585  10.117  13.054
22426SOL     OW69110  10.849  13.262  11.646
22426SOL    HW169111  10.797  13.238  11.723
22426SOL    HW269112  10.793  13.240  11.571
22427SOL     OW69113   3.649   1.506   0.050
22427SOL    HW169114   3.711   1.433   0.041
22427SOL    HW269115   3.689   1.577   0.000
22428SOL     OW69116   8.700  12.809  11.798
22428SOL    HW169117   8.713  12.791  11.891
22428SOL    HW269118   8.646  12.736  11.767
22429SOL     OW69119   8.475   3.823  10.369
22429SOL    HW169120   8.443   3.909  10.340
22429SOL    HW269121   8.438   3.813  10.457
22430SOL     OW69122   0.347  11.212   6.318
22430SOL    HW169123   0.335  11.303   6.345
22430SOL    HW269124   0.432  11.187   6.355
22431SOL     OW69125   0.397   1.699  12.079
22431SOL    HW169126   0.325   1.646  12.114
22431SOL    HW269127   0.383   1.786  12.115
22432SOL     OW69128   9.572   4.551   1.438
22432SOL    HW169129   9.554   4.645   1.443
22432SOL    HW269130   9.503   4.510   1.490
22433SOL     OW69131   7.846   9.188  12.687
22433SOL    HW169132   7.940   9.198  12.673
22433SOL    HW269133   7.819   9.270  12.727
22434SOL     OW69134   8.225   1.989  13.986
22434SOL    HW169135   8.228   2.065  13.928
22434SOL    HW269136   8.226   2.027  14.074
22435SOL     OW69137   5.276   0.971   9.271
22435SOL    HW169138   5.295   1.062   9.249
22435SOL    HW269139   5.362   0.930   9.280
22436SOL     OW69140   7.501   4.259   4.182
22436SOL    HW169141   7.464   4.280   4.267
22436SOL    HW269142   7.557   4.183   4.198
22437SOL     OW69143   6.762   4.939   8.520
22437SOL    HW169144   6.821   4.867   8.498
22437SOL    HW269145   6.735   4.922   8.610
22438SOL     OW69146   4.839  11.106   9.779
22438SOL    HW169147   4.768  11.159   9.742
22438SOL    HW269148   4.919  11.145   9.742
22439SOL     OW69149  13.106   4.384  13.184
22439SOL    HW169150  13.139   4.350  13.267
22439SOL    HW269151  13.175   4.361  13.121
22440SOL     OW69152   2.456   1.821   4.370
22440SOL    HW169153   2.508   1.765   4.428
22440SOL    HW269154   2.468   1.909   4.405
22441SOL     OW69155   8.536  13.652  11.600
22441SOL    HW169156   8.609  13.706  11.572
22441SOL    HW269157   8.545  13.648  11.696
22442SOL     OW69158   8.428  13.662  13.908
22442SOL    HW169159   8.372  13.609  13.852
22442SOL    HW269160   8.490  13.704  13.848
22443SOL     OW69161   9.179   3.322   8.906
22443SOL    HW169162   9.246   3.287   8.965
22443SOL    HW269163   9.172   3.415   8.930
22444SOL     OW69164  13.525  13.499  12.836
22444SOL    HW169165  13.533  13.566  12.904
22444SOL    HW269166  13.482  13.426  12.880
22445SOL     OW69167  12.093  11.350  12.496
22445SOL    HW169168  12.153  11.404  12.548
22445SOL    HW269169  12.149  11.312  12.428
22446SOL     OW69170  12.867   8.778  10.865
22446SOL    HW169171  12.777   8.747  10.866
22446SOL    HW269172  12.890   8.787  10.957
22447SOL     OW69173   5.900   7.059  12.595
22447SOL    HW169174   5.808   7.047  12.571
22447SOL    HW269175   5.924   7.143  12.555
22448SOL     OW69176   2.475   7.449   5.845
22448SOL    HW169177   2.556   7.496   5.829
22448SOL    HW269178   2.500   7.378   5.905
22449SOL     OW69179  13.824   9.748   9.597
22449SOL    HW169180  13.864   9.815   9.541
22449SOL    HW269181  13.735   9.739   9.564
22450SOL     OW69182   9.875   8.545   2.722
22450SOL    HW169183   9.824   8.621   2.748
22450SOL    HW269184   9.844   8.524   2.634
22451SOL     OW69185  12.110   0.804   6.478
22451SOL    HW169186  12.054   0.775   6.550
22451SOL    HW269187  12.067   0.881   6.442
22452SOL     OW69188   9.262   9.725   9.261
22452SOL    HW169189   9.252   9.726   9.356
22452SOL    HW269190   9.268   9.818   9.236
22453SOL     OW69191   7.417   8.565  11.561
22453SOL    HW169192   7.507   8.586  11.536
22453SOL    HW269193   7.377   8.650  11.580
22454SOL     OW69194  14.516   9.265  10.757
22454SOL    HW169195  14.452   9.297  10.694
22454SOL    HW269196  14.585   9.332  10.759
22455SOL     OW69197   3.576   8.955   8.118
22455SOL    HW169198   3.527   9.033   8.091
22455SOL    HW269199   3.532   8.882   8.074
22456SOL     OW69200   5.717   9.599   6.918
22456SOL    HW169201   5.640   9.603   6.973
22456SOL    HW269202   5.776   9.665   6.953
22457SOL     OW69203   8.093  11.870   9.769
22457SOL    HW169204   8.047  11.851   9.851
22457SOL    HW269205   8.159  11.800   9.763
22458SOL     OW69206   6.328   0.641   7.482
22458SOL    HW169207   6.314   0.732   7.507
22458SOL    HW269208   6.391   0.608   7.547
22459SOL     OW69209   4.710   5.214  11.064
22459SOL    HW169210   4.773   5.266  11.015
22459SOL    HW269211   4.704   5.256  11.150
22460SOL     OW69212  13.303  10.367   5.831
22460SOL    HW169213  13.228  10.390   5.777
22460SOL    HW269214  13.304  10.432   5.901
22461SOL     OW69215   9.286   9.768   1.659
22461SOL    HW169216   9.251   9.681   1.640
22461SOL    HW269217   9.376   9.765   1.628
22462SOL     OW69218   3.160   3.555  12.215
22462SOL    HW169219   3.213   3.513  12.147
22462SOL    HW269220   3.081   3.501  12.221
22463SOL     OW69221  12.888   2.635   3.753
22463SOL    HW169222  12.839   2.597   3.680
22463SOL    HW269223  12.909   2.724   3.725
22464SOL     OW69224   8.486  13.160   1.119
22464SOL    HW169225   8.509  13.229   1.056
22464SOL    HW269226   8.562  13.102   1.120
22465SOL     OW69227  10.724   9.943   7.228
22465SOL    HW169228  10.643   9.896   7.208
22465SOL    HW269229  10.715  10.026   7.181
22466SOL     OW69230   9.915   7.559   0.293
22466SOL    HW169231   9.966   7.585   0.370
22466SOL    HW269232   9.905   7.640   0.243
22467SOL     OW69233   9.860   2.267   3.238
22467SOL    HW169234   9.790   2.322   3.205
22467SOL    HW269235   9.835   2.247   3.329
22468SOL     OW69236   1.310   8.935   3.368
22468SOL    HW169237   1.325   8.848   3.330
22468SOL    HW269238   1.262   8.982   3.300
22469SOL     OW69239  13.291   4.913  10.000
22469SOL    HW169240  13.385   4.921   9.982
22469SOL    HW269241  13.255   4.999   9.976
22470SOL     OW69242   3.704   6.354   5.308
22470SOL    HW169243   3.775   6.292   5.297
22470SOL    HW269244   3.637   6.306   5.357
22471SOL     OW69245   1.845   5.574  10.016
22471SOL    HW169246   1.828   5.653  10.066
22471SOL    HW269247   1.760   5.530  10.012
22472SOL     OW69248  10.857   8.323  12.665
22472SOL    HW169249  10.913   8.395  12.695
22472SOL    HW269250  10.918   8.253  12.642
22473SOL     OW69251   5.715   5.662   5.616
22473SOL    HW169252   5.732   5.669   5.710
22473SOL    HW269253   5.801   5.652   5.576
22474SOL     OW69254  12.788   8.987   4.325
22474SOL    HW169255  12.784   8.938   4.243
22474SOL    HW269256  12.836   9.067   4.303
22475SOL     OW69257   1.992   6.304   9.191
22475SOL    HW169258   1.999   6.281   9.098
22475SOL    HW269259   2.061   6.369   9.205
22476SOL     OW69260  12.302   9.074   6.487
22476SOL    HW169261  12.234   9.035   6.432
22476SOL    HW269262  12.380   9.073   6.432
22477SOL     OW69263  13.477   7.818  13.836
22477SOL    HW169264  13.533   7.835  13.760
22477SOL    HW269265  13.475   7.902  13.882
22478SOL     OW69266   5.160   2.721   7.662
22478SOL    HW169267   5.205   2.795   7.622
22478SOL    HW269268   5.227   2.677   7.714
22479SOL     OW69269  12.999   0.880  14.767
22479SOL    HW169270  12.993   0.940  14.841
22479SOL    HW269271  13.089   0.889  14.736
22480SOL     OW69272   1.677   7.234   2.568
22480SOL    HW169273   1.630   7.182   2.633
22480SOL    HW269274   1.609   7.272   2.513
22481SOL     OW69275   7.102  13.348  11.053
22481SOL    HW169276   7.018  13.352  11.098
22481SOL    HW269277   7.080  13.333  10.961
22482SOL     OW69278   5.614   9.970  10.702
22482SOL    HW169279   5.693  10.024  10.713
22482SOL    HW269280   5.547  10.016  10.752
22483SOL     OW69281   5.942   7.447   0.522
22483SOL    HW169282   5.894   7.521   0.485
22483SOL    HW269283   5.883   7.372   0.510
22484SOL     OW69284   5.244   9.708  12.617
22484SOL    HW169285   5.328   9.702  12.663
22484SOL    HW269286   5.263   9.762  12.540
22485SOL     OW69287   2.470  11.073   7.712
22485SOL    HW169288   2.417  11.094   7.635
22485SOL    HW269289   2.560  11.090   7.684
22486SOL     OW69290  14.203   3.695   4.071
22486SOL    HW169291  14.219   3.664   4.160
22486SOL    HW269292  14.204   3.790   4.077
22487SOL     OW69293   4.530   2.552  11.219
22487SOL    HW169294   4.504   2.492  11.289
22487SOL    HW269295   4.595   2.504  11.168
22488SOL     OW69296   5.357   7.994   0.438
22488SOL    HW169297   5.290   8.056   0.466
22488SOL    HW269298   5.307   7.918   0.406
22489SOL     OW69299   1.076  11.597   7.160
22489SOL    HW169300   1.135  11.534   7.118
22489SOL    HW269301   0.991  11.581   7.121
22490SOL     OW69302  12.743   9.007   2.583
22490SOL    HW169303  12.750   9.055   2.500
22490SOL    HW269304  12.678   8.939   2.565
22491SOL     OW69305   4.012  13.524   8.176
22491SOL    HW169306   4.049  13.606   8.142
22491SOL    HW269307   4.074  13.457   8.147
22492SOL     OW69308  12.545  10.882   5.451
22492SOL    HW169309  12.581  10.809   5.402
22492SOL    HW269310  12.479  10.842   5.508
22493SOL     OW69311  10.191   2.740   7.832
22493SOL    HW169312  10.191   2.694   7.748
22493SOL    HW269313  10.276   2.783   7.836
22494SOL     OW69314   4.615   2.145   0.979
22494SOL    HW169315   4.649   2.109   0.897
22494SOL    HW269316   4.677   2.115   1.046
22495SOL     OW69317  13.646   8.798   0.561
22495SOL    HW169318  13.568   8.850   0.542
22495SOL    HW269319  13.652   8.800   0.657
22496SOL     OW69320   5.226   5.401   7.404
22496SOL    HW169321   5.258   5.491   7.399
22496SOL    HW269322   5.223   5.372   7.313
22497SOL     OW69323  11.336   8.344   7.695
22497SOL    HW169324  11.413   8.307   7.737
22497SOL    HW269325  11.369   8.381   7.613
22498SOL     OW69326   9.484   7.022   8.529
22498SOL    HW169327   9.443   7.045   8.445
22498SOL    HW269328   9.436   6.944   8.558
22499SOL     OW69329   1.452   2.692   1.665
22499SOL    HW169330   1.492   2.716   1.749
22499SOL    HW269331   1.486   2.756   1.603
22500SOL     OW69332   9.702  11.674  10.306
22500SOL    HW169333   9.622  11.650  10.260
22500SOL    HW269334   9.724  11.597  10.359
22501SOL     OW69335  14.832   8.227   1.943
22501SOL    HW169336   0.000   8.174   1.875
22501SOL    HW269337  14.857   8.185   2.025
22502SOL     OW69338   5.355   6.050   6.959
22502SOL    HW169339   5.407   6.022   7.034
22502SOL    HW269340   5.384   6.140   6.942
22503SOL     OW69341   7.140   1.292   0.667
22503SOL    HW169342   7.189   1.371   0.689
22503SOL    HW269343   7.176   1.225   0.724
22504SOL     OW69344  10.963  10.928   8.400
22504SOL    HW169345  10.947  11.022   8.395
22504SOL    HW269346  10.882  10.892   8.436
22505SOL     OW69347  11.580  10.295  11.900
22505SOL    HW169348  11.562  10.309  11.807
22505SOL    HW269349  11.558  10.379  11.942
22506SOL     OW69350   4.182   0.712   1.766
22506SOL    HW169351   4.185   0.792   1.713
22506SOL    HW269352   4.089   0.691   1.771
22507SOL     OW69353   2.204   3.906   5.212
22507SOL    HW169354   2.243   3.956   5.284
22507SOL    HW269355   2.277   3.890   5.152
22508SOL     OW69356   4.120   2.174   3.396
22508SOL    HW169357   4.195   2.219   3.434
22508SOL    HW269358   4.148   2.083   3.387
22509SOL     OW69359   5.882  13.679   5.326
22509SOL    HW169360   5.932  13.698   5.405
22509SOL    HW269361   5.934  13.612   5.281
22510SOL     OW69362   6.068   5.641   4.535
22510SOL    HW169363   6.072   5.701   4.461
22510SOL    HW269364   6.051   5.555   4.497
22511SOL     OW69365  14.784  10.701   3.723
22511SOL    HW169366  14.785  10.639   3.797
22511SOL    HW269367  14.754  10.648   3.649
22512SOL     OW69368  12.408   6.508  11.519
22512SOL    HW169369  12.490   6.476  11.558
22512SOL    HW269370  12.389   6.588  11.567
22513SOL     OW69371  10.599  11.731  12.550
22513SOL    HW169372  10.694  11.722  12.557
22513SOL    HW269373  10.564  11.669  12.614
22514SOL     OW69374  11.930  13.554   3.152
22514SOL    HW169375  11.924  13.592   3.240
22514SOL    HW269376  12.020  13.521   3.147
22515SOL     OW69377   7.596  13.345   7.805
22515SOL    HW169378   7.588  13.253   7.782
22515SOL    HW269379   7.552  13.352   7.890
22516SOL     OW69380  13.753   0.141  14.201
22516SOL    HW169381  13.798   0.057  14.197
22516SOL    HW269382  13.812   0.198  14.251
22517SOL     OW69383   8.045   5.172   6.234
22517SOL    HW169384   7.983   5.244   6.221
22517SOL    HW269385   8.029   5.143   6.324
22518SOL     OW69386   0.275   4.143   1.854
22518SOL    HW169387   0.281   4.105   1.942
22518SOL    HW269388   0.365   4.170   1.834
22519SOL     OW69389  13.412  11.602  10.678
22519SOL    HW169390  13.451  11.648  10.604
22519SOL    HW269391  13.325  11.577  10.647
22520SOL     OW69392   5.250   6.915   6.187
22520SOL    HW169393   5.192   6.975   6.234
22520SOL    HW269394   5.220   6.918   6.096
22521SOL     OW69395   0.359  10.188  11.912
22521SOL    HW169396   0.275  10.160  11.875
22521SOL    HW269397   0.391  10.254  11.850
22522SOL     OW69398  13.348   9.526   5.302
22522SOL    HW169399  13.265   9.505   5.259
22522SOL    HW269400  13.343   9.619   5.321
22523SOL     OW69401  14.844  13.352  14.661
22523SOL    HW169402  14.872  13.389  14.744
22523SOL    HW269403  14.779  13.285  14.686
22524SOL     OW69404   3.411   7.199  11.069
22524SOL    HW169405   3.470   7.273  11.053
22524SOL    HW269406   3.378   7.176  10.982
22525SOL     OW69407  11.755   0.808  11.428
22525SOL    HW169408  11.713   0.792  11.343
22525SOL    HW269409  11.796   0.894  11.418
22526SOL     OW69410   1.819   9.939  13.820
22526SOL    HW169411   1.824   9.884  13.897
22526SOL    HW269412   1.733   9.981  13.826
22527SOL     OW69413   8.629  10.678  12.477
22527SOL    HW169414   8.639  10.761  12.430
22527SOL    HW269415   8.708  10.672  12.532
22528SOL     OW69416  13.466   9.919  11.513
22528SOL    HW169417  13.526   9.851  11.481
22528SOL    HW269418  13.509  10.001  11.489
22529SOL     OW69419   9.994   0.420   1.183
22529SOL    HW169420  10.083   0.417   1.218
22529SOL    HW269421  10.004   0.393   1.092
22530SOL     OW69422   0.182  12.571   7.609
22530SOL    HW169423   0.207  12.608   7.694
22530SOL    HW269424   0.199  12.641   7.546
22531SOL     OW69425   3.744   2.337   4.459
22531SOL    HW169426   3.678   2.377   4.402
22531SOL    HW269427   3.816   2.400   4.460
22532SOL     OW69428   3.078   3.213   0.957
22532SOL    HW169429   3.148   3.148   0.962
22532SOL    HW269430   3.099   3.277   1.025
22533SOL     OW69431  12.277  11.594  14.115
22533SOL    HW169432  12.319  11.509  14.128
22533SOL    HW269433  12.209  11.597  14.183
22534SOL     OW69434  13.845   4.652   4.973
22534SOL    HW169435  13.773   4.680   5.029
22534SOL    HW269436  13.817   4.568   4.936
22535SOL     OW69437  10.898   6.432   6.551
22535SOL    HW169438  10.815   6.479   6.539
22535SOL    HW269439  10.879   6.343   6.522
22536SOL     OW69440   6.891   1.435  13.796
22536SOL    HW169441   6.881   1.447  13.702
22536SOL    HW269442   6.927   1.517  13.827
22537SOL     OW69443   7.551  13.854   7.132
22537SOL    HW169444   7.585  13.936   7.166
22537SOL    HW269445   7.556  13.793   7.207
22538SOL     OW69446   2.285  14.566  14.687
22538SOL    HW169447   2.342  14.538  14.616
22538SOL    HW269448   2.279  14.490  14.745
22539SOL     OW69449   3.185  14.296  10.548
22539SOL    HW169450   3.259  14.331  10.497
22539SOL    HW269451   3.195  14.201  10.541
22540SOL     OW69452   2.786   1.832   0.826
22540SOL    HW169453   2.866   1.789   0.797
22540SOL    HW269454   2.814   1.889   0.898
22541SOL     OW69455  13.801   2.271  13.064
22541SOL    HW169456  13.812   2.176  13.067
22541SOL    HW269457  13.838   2.296  12.979
22542SOL     OW69458  13.474   4.601   3.536
22542SOL    HW169459  13.481   4.612   3.441
22542SOL    HW269460  13.385   4.629   3.557
22543SOL     OW69461   4.995   1.057   3.181
22543SOL    HW169462   5.047   1.127   3.220
22543SOL    HW269463   5.059   1.001   3.137
22544SOL     OW69464  12.513  10.086  14.781
22544SOL    HW169465  12.500   9.993  14.797
22544SOL    HW269466  12.562  10.090  14.699
22545SOL     OW69467   0.386   2.407   4.480
22545SOL    HW169468   0.307   2.457   4.461
22545SOL    HW269469   0.454   2.473   4.492
22546SOL     OW69470  14.430  12.834  10.840
22546SOL    HW169471  14.410  12.746  10.871
22546SOL    HW269472  14.452  12.883  10.920
22547SOL     OW69473   1.487  11.019   7.200
22547SOL    HW169474   1.478  10.931   7.163
22547SOL    HW269475   1.581  11.032   7.208
22548SOL     OW69476  12.287   0.083   7.289
22548SOL    HW169477  12.382   0.089   7.284
22548SOL    HW269478  12.268   0.078   7.383
22549SOL     OW69479  11.442   3.082   3.118
22549SOL    HW169480  11.497   3.160   3.126
22549SOL    HW269481  11.434   3.068   3.024
22550SOL     OW69482  13.422  12.607   5.015
22550SOL    HW169483  13.470  12.595   4.933
22550SOL    HW269484  13.357  12.538   5.015
22551SOL     OW69485   1.460   1.615   5.449
22551SOL    HW169486   1.492   1.544   5.505
22551SOL    HW269487   1.505   1.602   5.366
22552SOL     OW69488   9.295   2.574   3.350
22552SOL    HW169489   9.351   2.561   3.274
22552SOL    HW269490   9.208   2.593   3.313
22553SOL     OW69491   1.001  10.298   4.206
22553SOL    HW169492   0.905  10.304   4.204
22553SOL    HW269493   1.021  10.221   4.153
22554SOL     OW69494  12.123  13.271   2.564
22554SOL    HW169495  12.039  13.317   2.560
22554SOL    HW269496  12.104  13.191   2.612
22555SOL     OW69497   5.924   1.278   0.008
22555SOL    HW169498   5.859   1.209   0.020
22555SOL    HW269499   5.976   1.276   0.089
22556SOL     OW69500  12.518   4.169   4.079
22556SOL    HW169501  12.452   4.132   4.137
22556SOL    HW269502  12.474   4.240   4.034
22557SOL     OW69503  12.577   1.869  10.982
22557SOL    HW169504  12.642   1.920  11.031
22557SOL    HW269505  12.526   1.933  10.934
22558SOL     OW69506   4.105   1.983  12.674
22558SOL    HW169507   4.110   1.961  12.581
22558SOL    HW269508   4.012   1.977  12.695
22559SOL     OW69509   0.330   4.202   9.529
22559SOL    HW169510   0.358   4.111   9.538
22559SOL    HW269511   0.250   4.208   9.581
22560SOL     OW69512   5.167   7.332  12.909
22560SOL    HW169513   5.147   7.406  12.967
22560SOL    HW269514   5.109   7.262  12.939
22561SOL     OW69515   8.961   3.789  13.558
22561SOL    HW169516   8.980   3.862  13.617
22561SOL    HW269517   8.874   3.808  13.523
22562SOL     OW69518   5.832  12.246   0.678
22562SOL    HW169519   5.761  12.247   0.614
22562SOL    HW269520   5.887  12.172   0.652
22563SOL     OW69521   0.941   9.522   3.421
22563SOL    HW169522   0.947   9.500   3.514
22563SOL    HW269523   0.957   9.439   3.375
22564SOL     OW69524  12.679   3.595   5.954
22564SOL    HW169525  12.733   3.588   5.876
22564SOL    HW269526  12.710   3.524   6.011
22565SOL     OW69527  10.726   4.449  14.402
22565SOL    HW169528  10.820   4.448  14.418
22565SOL    HW269529  10.717   4.488  14.315
22566SOL     OW69530  12.534   7.343   1.412
22566SOL    HW169531  12.558   7.417   1.467
22566SOL    HW269532  12.598   7.345   1.340
22567SOL     OW69533   1.399   3.472  13.518
22567SOL    HW169534   1.418   3.485  13.424
22567SOL    HW269535   1.310   3.506  13.529
22568SOL     OW69536   8.965  13.817  11.419
22568SOL    HW169537   9.029  13.756  11.383
22568SOL    HW269538   8.927  13.861  11.343
22569SOL     OW69539   2.792  10.945   3.910
22569SOL    HW169540   2.799  10.963   3.817
22569SOL    HW269541   2.756  11.026   3.948
22570SOL     OW69542  12.409   4.329  13.929
22570SOL    HW169543  12.460   4.268  13.875
22570SOL    HW269544  12.324   4.334  13.885
22571SOL     OW69545   7.651   1.407  11.356
22571SOL    HW169546   7.652   1.317  11.325
22571SOL    HW269547   7.606   1.456  11.287
22572SOL     OW69548  10.531  10.915  12.314
22572SOL    HW169549  10.609  10.955  12.277
22572SOL    HW269550  10.562  10.834  12.355
22573SOL     OW69551   8.202   5.275   2.285
22573SOL    HW169552   8.183   5.293   2.193
22573SOL    HW269553   8.119   5.244   2.322
22574SOL     OW69554   4.943   1.385  13.084
22574SOL    HW169555   5.006   1.324  13.045
22574SOL    HW269556   4.996   1.440  13.142
22575SOL     OW69557   1.714   7.713  10.945
22575SOL    HW169558   1.700   7.774  11.018
22575SOL    HW269559   1.779   7.651  10.979
22576SOL     OW69560   0.146   8.598   2.839
22576SOL    HW169561   0.088   8.522   2.832
22576SOL    HW269562   0.208   8.575   2.908
22577SOL     OW69563   6.063   8.321  11.316
22577SOL    HW169564   6.065   8.230  11.286
22577SOL    HW269565   5.999   8.364  11.259
22578SOL     OW69566  13.818   7.003  12.696
22578SOL    HW169567  13.751   7.042  12.752
22578SOL    HW269568  13.776   6.925  12.659
22579SOL     OW69569  10.008   5.193   5.443
22579SOL    HW169570  10.089   5.143   5.436
22579SOL    HW269571  10.033   5.273   5.488
22580SOL     OW69572  14.430   5.997   1.317
22580SOL    HW169573  14.364   6.037   1.372
22580SOL    HW269574  14.447   6.061   1.248
22581SOL     OW69575   2.483   7.727   2.380
22581SOL    HW169576   2.496   7.801   2.321
22581SOL    HW269577   2.410   7.753   2.436
22582SOL     OW69578  12.167   1.227   8.491
22582SOL    HW169579  12.095   1.281   8.522
22582SOL    HW269580  12.160   1.145   8.540
22583SOL     OW69581  10.733   1.681  14.819
22583SOL    HW169582  10.746   1.769  14.857
22583SOL    HW269583  10.647   1.655  14.850
22584SOL     OW69584   1.934   3.962  13.907
22584SOL    HW169585   1.978   4.009  13.978
22584SOL    HW269586   1.913   3.876  13.943
22585SOL     OW69587  13.566   4.996  10.010
22585SOL    HW169588  13.587   5.035   9.925
22585SOL    HW269589  13.631   5.033  10.070
22586SOL     OW69590  11.006   6.960   2.533
22586SOL    HW169591  11.095   6.927   2.544
22586SOL    HW269592  11.002   7.040   2.586
22587SOL     OW69593   5.514  10.325   4.236
22587SOL    HW169594   5.505  10.369   4.321
22587SOL    HW269595   5.445  10.258   4.237
22588SOL     OW69596  11.036   9.132   0.518
22588SOL    HW169597  11.069   9.201   0.461
22588SOL    HW269598  11.038   9.170   0.606
22589SOL     OW69599  12.843   6.291  10.124
22589SOL    HW169600  12.905   6.224  10.097
22589SOL    HW269601  12.835   6.349  10.048
22590SOL     OW69602   6.321  11.909   4.990
22590SOL    HW169603   6.374  11.960   4.930
22590SOL    HW269604   6.315  11.963   5.069
22591SOL     OW69605   2.350  14.036  11.285
22591SOL    HW169606   2.355  14.129  11.266
22591SOL    HW269607   2.423  13.997  11.237
22592SOL     OW69608   4.600  12.097   0.666
22592SOL    HW169609   4.572  12.005   0.669
22592SOL    HW269610   4.595  12.127   0.757
22593SOL     OW69611  13.225   6.965   7.359
22593SOL    HW169612  13.191   6.910   7.430
22593SOL    HW269613  13.167   7.041   7.357
22594SOL     OW69614  12.579   9.912   9.735
22594SOL    HW169615  12.553   9.821   9.727
22594SOL    HW269616  12.673   9.913   9.717
22595SOL     OW69617   7.681   0.643  10.258
22595SOL    HW169618   7.703   0.689  10.177
22595SOL    HW269619   7.585   0.646  10.261
22596SOL     OW69620   6.753   5.769   3.920
22596SOL    HW169621   6.830   5.819   3.949
22596SOL    HW269622   6.774   5.679   3.946
22597SOL     OW69623   1.776   4.047   8.026
22597SOL    HW169624   1.807   4.008   7.945
22597SOL    HW269625   1.837   4.014   8.093
22598SOL     OW69626   8.163   3.330   1.670
22598SOL    HW169627   8.134   3.291   1.752
22598SOL    HW269628   8.147   3.262   1.604
22599SOL     OW69629   0.478   8.833  10.382
22599SOL    HW169630   0.565   8.861  10.357
22599SOL    HW269631   0.471   8.742  10.351
22600SOL     OW69632   8.974  10.737   9.277
22600SOL    HW169633   8.994  10.822   9.317
22600SOL    HW269634   8.920  10.759   9.201
22601SOL     OW69635   4.695   1.151   6.730
22601SOL    HW169636   4.636   1.109   6.794
22601SOL    HW269637   4.662   1.122   6.645
22602SOL     OW69638   4.595  12.837  10.618
22602SOL    HW169639   4.555  12.757  10.584
22602SOL    HW269640   4.520  12.890  10.647
22603SOL     OW69641   8.043  12.578   9.501
22603SOL    HW169642   8.103  12.629   9.446
22603SOL    HW269643   7.973  12.639   9.523
22604SOL     OW69644   8.520  10.276   7.710
22604SOL    HW169645   8.590  10.326   7.751
22604SOL    HW269646   8.524  10.190   7.754
22605SOL     OW69647   3.564   2.855  10.410
22605SOL    HW169648   3.609   2.850  10.495
22605SOL    HW269649   3.506   2.779  10.410
22606SOL     OW69650   3.652   0.946  12.306
22606SOL    HW169651   3.628   0.865  12.259
22606SOL    HW269652   3.702   0.996  12.242
22607SOL     OW69653   5.329   7.029  11.547
22607SOL    HW169654   5.344   6.991  11.460
22607SOL    HW269655   5.243   7.071  11.541
22608SOL     OW69656  11.759   7.816  14.171
22608SOL    HW169657  11.775   7.832  14.264
22608SOL    HW269658  11.744   7.721  14.166
22609SOL     OW69659  13.784   9.304  12.195
22609SOL    HW169660  13.805   9.239  12.263
22609SOL    HW269661  13.735   9.372  12.241
22610SOL     OW69662   2.834   3.277   8.325
22610SOL    HW169663   2.814   3.238   8.240
22610SOL    HW269664   2.922   3.314   8.314
22611SOL     OW69665  11.826  14.598   0.971
22611SOL    HW169666  11.915  14.575   0.943
22611SOL    HW269667  11.837  14.675   1.026
22612SOL     OW69668  12.465   7.827  13.274
22612SOL    HW169669  12.377   7.799  13.297
22612SOL    HW269670  12.507   7.845  13.359
22613SOL     OW69671   7.141   2.587  14.688
22613SOL    HW169672   7.074   2.542  14.638
22613SOL    HW269673   7.102   2.600  14.775
22614SOL     OW69674  13.315   0.964  13.059
22614SOL    HW169675  13.405   0.940  13.036
22614SOL    HW269676  13.268   0.881  13.060
22615SOL     OW69677   5.218   3.260   6.560
22615SOL    HW169678   5.151   3.315   6.519
22615SOL    HW269679   5.285   3.250   6.492
22616SOL     OW69680   5.710  10.667   8.012
22616SOL    HW169681   5.797  10.672   8.052
22616SOL    HW269682   5.650  10.657   8.086
22617SOL     OW69683   0.260   7.626  12.168
22617SOL    HW169684   0.329   7.576  12.209
22617SOL    HW269685   0.237   7.576  12.090
22618SOL     OW69686  12.694   4.658   0.246
22618SOL    HW169687  12.654   4.662   0.160
22618SOL    HW269688  12.687   4.747   0.280
22619SOL     OW69689  14.297   7.497  13.479
22619SOL    HW169690  14.288   7.469  13.570
22619SOL    HW269691  14.210   7.528  13.455
22620SOL     OW69692   7.429   5.369   0.491
22620SOL    HW169693   7.430   5.359   0.396
22620SOL    HW269694   7.467   5.287   0.524
22621SOL     OW69695  11.309   8.943  13.821
22621SOL    HW169696  11.224   8.939  13.866
22621SOL    HW269697  11.341   8.853  13.824
22622SOL     OW69698  11.476   9.459   7.249
22622SOL    HW169699  11.460   9.552   7.233
22622SOL    HW269700  11.458   9.416   7.165
22623SOL     OW69701  14.847   5.848  10.655
22623SOL    HW169702  14.777   5.815  10.600
22623SOL    HW269703  14.870   5.933  10.617
22624SOL     OW69704   5.838  13.076  11.317
22624SOL    HW169705   5.820  12.995  11.270
22624SOL    HW269706   5.896  13.126  11.259
22625SOL     OW69707   0.666  14.306  11.364
22625SOL    HW169708   0.620  14.291  11.447
22625SOL    HW269709   0.612  14.262  11.299
22626SOL     OW69710   9.604  13.550   6.435
22626SOL    HW169711   9.618  13.614   6.366
22626SOL    HW269712   9.683  13.496   6.435
22627SOL     OW69713  10.400   9.786   3.190
22627SOL    HW169714  10.376   9.694   3.194
22627SOL    HW269715  10.324   9.829   3.150
22628SOL     OW69716   8.498  14.740  11.096
22628SOL    HW169717   8.413  14.782  11.084
22628SOL    HW269718   8.557  14.787  11.038
22629SOL     OW69719   6.446   4.017   3.645
22629SOL    HW169720   6.370   3.975   3.685
22629SOL    HW269721   6.453   4.101   3.689
22630SOL     OW69722  14.248  12.787   1.246
22630SOL    HW169723  14.175  12.727   1.230
22630SOL    HW269724  14.309  12.769   1.174
22631SOL     OW69725   8.171   1.457  13.959
22631SOL    HW169726   8.264   1.448  13.937
22631SOL    HW269727   8.134   1.503  13.883
22632SOL     OW69728   6.357   4.555   3.102
22632SOL    HW169729   6.270   4.561   3.143
22632SOL    HW269730   6.366   4.463   3.079
22633SOL     OW69731  14.080   3.780   0.750
22633SOL    HW169732  14.025   3.790   0.673
22633SOL    HW269733  14.091   3.869   0.783
22634SOL     OW69734   0.475  13.273   2.017
22634SOL    HW169735   0.535  13.312   2.079
22634SOL    HW269736   0.449  13.345   1.959
22635SOL     OW69737  10.389   7.725  11.885
22635SOL    HW169738  10.472   7.736  11.931
22635SOL    HW269739  10.402   7.768  11.800
22636SOL     OW69740  11.189   7.730  14.343
22636SOL    HW169741  11.186   7.740  14.438
22636SOL    HW269742  11.118   7.786  14.311
22637SOL     OW69743   5.866  12.634   6.367
22637SOL    HW169744   5.806  12.690   6.317
22637SOL    HW269745   5.824  12.548   6.368
22638SOL     OW69746   1.328   7.435   7.304
22638SOL    HW169747   1.416   7.421   7.270
22638SOL    HW269748   1.272   7.383   7.246
22639SOL     OW69749   1.661  11.708   2.996
22639SOL    HW169750   1.662  11.651   3.073
22639SOL    HW269751   1.675  11.796   3.032
22640SOL     OW69752   8.769   0.529   9.439
22640SOL    HW169753   8.828   0.551   9.367
22640SOL    HW269754   8.820   0.547   9.518
22641SOL     OW69755  10.117  11.204   2.544
22641SOL    HW169756  10.105  11.126   2.489
22641SOL    HW269757  10.042  11.203   2.603
22642SOL     OW69758  14.237   2.110  14.356
22642SOL    HW169759  14.317   2.137  14.402
22642SOL    HW269760  14.168   2.114  14.423
22643SOL     OW69761   1.313   1.183  13.471
22643SOL    HW169762   1.345   1.213  13.386
22643SOL    HW269763   1.392   1.165  13.522
22644SOL     OW69764  11.467  13.588   8.748
22644SOL    HW169765  11.506  13.571   8.662
22644SOL    HW269766  11.542  13.591   8.808
22645SOL     OW69767   0.827   3.255  13.943
22645SOL    HW169768   0.805   3.208  13.863
22645SOL    HW269769   0.901   3.311  13.919
22646SOL     OW69770   9.973   7.205   4.703
22646SOL    HW169771  10.009   7.131   4.751
22646SOL    HW269772   9.998   7.188   4.612
22647SOL     OW69773   4.378   8.293   9.543
22647SOL    HW169774   4.367   8.372   9.490
22647SOL    HW269775   4.419   8.230   9.483
22648SOL     OW69776  13.941   3.985   6.979
22648SOL    HW169777  13.916   4.036   6.902
22648SOL    HW269778  14.036   3.975   6.971
22649SOL     OW69779   4.884  12.112   3.197
22649SOL    HW169780   4.791  12.134   3.189
22649SOL    HW269781   4.927  12.195   3.216
22650SOL     OW69782   1.688  12.216   2.275
22650SOL    HW169783   1.763  12.250   2.323
22650SOL    HW269784   1.683  12.123   2.299
22651SOL     OW69785  12.892  14.611   7.348
22651SOL    HW169786  12.884  14.598   7.254
22651SOL    HW269787  12.911  14.524   7.384
22652SOL     OW69788   4.619   2.517   6.510
22652SOL    HW169789   4.691   2.578   6.519
22652SOL    HW269790   4.584   2.507   6.598
22653SOL     OW69791   2.821   4.100   2.342
22653SOL    HW169792   2.746   4.093   2.402
22653SOL    HW269793   2.839   4.010   2.315
22654SOL     OW69794   1.601   8.676   7.660
22654SOL    HW169795   1.588   8.581   7.665
22654SOL    HW269796   1.539   8.705   7.593
22655SOL     OW69797   8.577  10.208   0.855
22655SOL    HW169798   8.546  10.259   0.780
22655SOL    HW269799   8.614  10.274   0.915
22656SOL     OW69800   1.262   2.010   6.627
22656SOL    HW169801   1.349   2.048   6.637
22656SOL    HW269802   1.202   2.083   6.637
22657SOL     OW69803   2.778   7.453   7.814
22657SOL    HW169804   2.857   7.507   7.818
22657SOL    HW269805   2.735   7.466   7.898
22658SOL     OW69806  10.493   1.674   5.069
22658SOL    HW169807  10.452   1.587   5.074
22658SOL    HW269808  10.564   1.663   5.006
22659SOL     OW69809   0.930   4.134   7.731
22659SOL    HW169810   0.948   4.190   7.807
22659SOL    HW269811   0.949   4.189   7.655
22660SOL     OW69812  14.716  14.397  10.359
22660SOL    HW169813  14.791  14.360  10.405
22660SOL    HW269814  14.640  14.362  10.405
22661SOL     OW69815   7.174  10.552  14.116
22661SOL    HW169816   7.128  10.469  14.098
22661SOL    HW269817   7.230  10.532  14.191
22662SOL     OW69818   3.505   6.834   8.654
22662SOL    HW169819   3.448   6.760   8.632
22662SOL    HW269820   3.584   6.794   8.692
22663SOL     OW69821  12.132   9.730  14.827
22663SOL    HW169822  12.167   9.736   0.043
22663SOL    HW269823  12.148   9.640  14.800
22664SOL     OW69824   2.013  13.809   4.330
22664SOL    HW169825   1.984  13.729   4.374
22664SOL    HW269826   2.031  13.870   4.402
22665SOL     OW69827   2.983   1.173  14.304
22665SOL    HW169828   3.056   1.143  14.359
22665SOL    HW269829   2.947   1.093  14.266
22666SOL     OW69830  12.372   7.188   4.111
22666SOL    HW169831  12.458   7.152   4.091
22666SOL    HW269832  12.311   7.130   4.067
22667SOL     OW69833   1.299   6.090  14.437
22667SOL    HW169834   1.287   6.185  14.435
22667SOL    HW269835   1.291   6.067  14.529
22668SOL     OW69836   1.354  12.815  10.520
22668SOL    HW169837   1.311  12.762  10.453
22668SOL    HW269838   1.306  12.797  10.600
22669SOL     OW69839  13.438   0.378   0.852
22669SOL    HW169840  13.506   0.429   0.808
22669SOL    HW269841  13.486   0.324   0.915
22670SOL     OW69842   5.001   9.540   4.704
22670SOL    HW169843   5.079   9.491   4.728
22670SOL    HW269844   4.991   9.524   4.610
22671SOL     OW69845  13.070   2.198   8.114
22671SOL    HW169846  13.042   2.288   8.131
22671SOL    HW269847  13.007   2.145   8.162
22672SOL     OW69848   0.582   6.941   8.160
22672SOL    HW169849   0.563   7.018   8.214
22672SOL    HW269850   0.578   6.867   8.221
22673SOL     OW69851   4.696  12.705   2.158
22673SOL    HW169852   4.739  12.658   2.086
22673SOL    HW269853   4.654  12.636   2.210
22674SOL     OW69854   0.555  12.663  12.121
22674SOL    HW169855   0.545  12.575  12.157
22674SOL    HW269856   0.545  12.653  12.027
22675SOL     OW69857   0.932  11.026   5.947
22675SOL    HW169858   0.981  10.965   6.003
22675SOL    HW269859   0.944  10.993   5.858
22676SOL     OW69860  14.443   1.845   1.134
22676SOL    HW169861  14.414   1.805   1.052
22676SOL    HW269862  14.530   1.807   1.150
22677SOL     OW69863   9.665   8.808  14.340
22677SOL    HW169864   9.694   8.864  14.412
22677SOL    HW269865   9.591   8.759  14.376
22678SOL     OW69866   9.643  10.137  13.201
22678SOL    HW169867   9.573  10.149  13.266
22678SOL    HW269868   9.697  10.067  13.236
22679SOL     OW69869   0.709   6.618  13.302
22679SOL    HW169870   0.781   6.670  13.338
22679SOL    HW269871   0.631   6.674  13.311
22680SOL     OW69872  13.919   5.795  11.854
22680SOL    HW169873  13.903   5.712  11.809
22680SOL    HW269874  14.015   5.802  11.856
22681SOL     OW69875   2.016   8.148   6.046
22681SOL    HW169876   2.091   8.123   6.099
22681SOL    HW269877   1.969   8.066   6.030
22682SOL     OW69878  13.171  13.250   5.914
22682SOL    HW169879  13.122  13.209   5.986
22682SOL    HW269880  13.252  13.200   5.908
22683SOL     OW69881   2.390  14.790   5.023
22683SOL    HW169882   2.393  14.727   4.951
22683SOL    HW269883   2.420  14.742   5.099
22684SOL     OW69884   4.017   3.055  14.638
22684SOL    HW169885   4.026   3.089  14.727
22684SOL    HW269886   3.925   3.031  14.630
22685SOL     OW69887  12.111   1.395  11.799
22685SOL    HW169888  12.043   1.403  11.732
22685SOL    HW269889  12.069   1.346  11.869
22686SOL     OW69890  12.148  11.529   0.958
22686SOL    HW169891  12.078  11.588   0.985
22686SOL    HW269892  12.134  11.449   1.009
22687SOL     OW69893   4.488   6.447  11.098
22687SOL    HW169894   4.421   6.510  11.070
22687SOL    HW269895   4.568   6.475  11.053
22688SOL     OW69896   9.716   6.797   7.115
22688SOL    HW169897   9.700   6.836   7.030
22688SOL    HW269898   9.669   6.713   7.113
22689SOL     OW69899   2.794   3.778   7.868
22689SOL    HW169900   2.886   3.766   7.893
22689SOL    HW269901   2.775   3.702   7.813
22690SOL     OW69902   6.722  11.357  12.734
22690SOL    HW169903   6.774  11.364  12.815
22690SOL    HW269904   6.788  11.349  12.665
22691SOL     OW69905   5.611   5.944  12.090
22691SOL    HW169906   5.594   5.862  12.136
22691SOL    HW269907   5.634   6.006  12.159
22692SOL     OW69908   1.971  13.871   5.340
22692SOL    HW169909   1.980  13.958   5.378
22692SOL    HW269910   1.888  13.873   5.294
22693SOL     OW69911   7.093  11.636   0.878
22693SOL    HW169912   7.065  11.707   0.936
22693SOL    HW269913   7.063  11.662   0.791
22694SOL     OW69914   0.682   4.186   9.398
22694SOL    HW169915   0.751   4.181   9.464
22694SOL    HW269916   0.608   4.139   9.436
22695SOL     OW69917   9.114   2.311  10.151
22695SOL    HW169918   9.146   2.271  10.232
22695SOL    HW269919   9.144   2.252  10.082
22696SOL     OW69920  14.865   8.131   8.561
22696SOL    HW169921   0.003   8.120   8.466
22696SOL    HW269922   0.035   8.215   8.579
22697SOL     OW69923   5.324  14.368   5.108
22697SOL    HW169924   5.267  14.408   5.175
22697SOL    HW269925   5.388  14.436   5.088
22698SOL     OW69926  14.070   9.150   5.794
22698SOL    HW169927  14.142   9.152   5.857
22698SOL    HW269928  14.027   9.066   5.808
22699SOL     OW69929   4.436  12.154   4.053
22699SOL    HW169930   4.473  12.184   3.970
22699SOL    HW269931   4.499  12.182   4.119
22700SOL     OW69932   8.570  10.051   1.651
22700SOL    HW169933   8.474  10.050   1.651
22700SOL    HW269934   8.594  10.114   1.719
22701SOL     OW69935  11.227  10.561  13.524
22701SOL    HW169936  11.224  10.532  13.615
22701SOL    HW269937  11.218  10.481  13.473
22702SOL     OW69938   5.311   0.561  14.386
22702SOL    HW169939   5.264   0.571  14.303
22702SOL    HW269940   5.322   0.466  14.395
22703SOL     OW69941   4.588   2.238  10.783
22703SOL    HW169942   4.677   2.217  10.753
22703SOL    HW269943   4.601   2.300  10.855
22704SOL     OW69944   7.471   7.403   3.408
22704SOL    HW169945   7.508   7.487   3.380
22704SOL    HW269946   7.436   7.364   3.328
22705SOL     OW69947   2.181   1.334  10.343
22705SOL    HW169948   2.239   1.310  10.415
22705SOL    HW269949   2.189   1.429  10.336
22706SOL     OW69950   4.810  13.584   1.893
22706SOL    HW169951   4.787  13.568   1.802
22706SOL    HW269952   4.789  13.677   1.907
22707SOL     OW69953  13.001  10.499   4.703
22707SOL    HW169954  13.012  10.567   4.770
22707SOL    HW269955  13.006  10.417   4.752
22708SOL     OW69956   7.229   4.990  14.866
22708SOL    HW169957   7.190   4.907  14.839
22708SOL    HW269958   7.311   4.996  14.817
22709SOL     OW69959  11.660   6.253   3.701
22709SOL    HW169960  11.738   6.199   3.686
22709SOL    HW269961  11.694   6.342   3.711
22710SOL     OW69962  14.328   4.934   9.783
22710SOL    HW169963  14.404   4.955   9.836
22710SOL    HW269964  14.294   4.853   9.821
22711SOL     OW69965  10.241   4.414   6.207
22711SOL    HW169966  10.186   4.399   6.283
22711SOL    HW269967  10.188   4.386   6.133
22712SOL     OW69968   4.101   9.658   1.777
22712SOL    HW169969   4.158   9.725   1.815
22712SOL    HW269970   4.037   9.639   1.846
22713SOL     OW69971   9.455  11.384   1.719
22713SOL    HW169972   9.374  11.413   1.761
22713SOL    HW269973   9.519  11.381   1.790
22714SOL     OW69974   9.534   5.860   9.890
22714SOL    HW169975   9.498   5.795   9.950
22714SOL    HW269976   9.623   5.829   9.871
22715SOL     OW69977   3.005   8.704  12.835
22715SOL    HW169978   3.091   8.677  12.805
22715SOL    HW269979   2.994   8.793  12.801
22716SOL     OW69980   6.857   0.112  14.256
22716SOL    HW169981   6.808   0.030  14.253
22716SOL    HW269982   6.948   0.085  14.267
22717SOL     OW69983  11.249  11.027  13.468
22717SOL    HW169984  11.174  11.052  13.413
22717SOL    HW269985  11.226  10.941  13.503
22718SOL     OW69986  10.473  14.679   9.200
22718SOL    HW169987  10.404  14.740   9.225
22718SOL    HW269988  10.435  14.592   9.213
22719SOL     OW69989   9.397   3.615  10.607
22719SOL    HW169990   9.455   3.539  10.603
22719SOL    HW269991   9.408   3.659  10.522
22720SOL     OW69992   2.772  10.713  13.265
22720SOL    HW169993   2.712  10.784  13.286
22720SOL    HW269994   2.780  10.664  13.347
22721SOL     OW69995   9.630   4.214   9.644
22721SOL    HW169996   9.692   4.286   9.655
22721SOL    HW269997   9.548   4.248   9.679
22722SOL     OW69998  14.260  13.055  10.190
22722SOL    HW169999  14.333  13.075  10.133
22722SOL    HW270000  14.287  12.975  10.237
22723SOL     OW70001   5.227   3.822  14.148
22723SOL    HW170002   5.286   3.772  14.206
22723SOL    HW270003   5.203   3.899  14.200
22724SOL     OW70004  13.320   3.631  13.002
22724SOL    HW170005  13.259   3.701  12.979
22724SOL    HW270006  13.401   3.676  13.026
22725SOL     OW70007   6.902  10.599   5.568
22725SOL    HW170008   6.862  10.677   5.604
22725SOL    HW270009   6.930  10.548   5.644
22726SOL     OW70010   6.641   0.663   8.467
22726SOL    HW170011   6.638   0.571   8.492
22726SOL    HW270012   6.721   0.696   8.507
22727SOL     OW70013   9.879   8.812   9.826
22727SOL    HW170014   9.830   8.866   9.887
22727SOL    HW270015   9.854   8.844   9.739
22728SOL     OW70016  14.843  10.207  10.243
22728SOL    HW170017  14.775  10.171  10.185
22728SOL    HW270018  14.796  10.244  10.317
22729SOL     OW70019  11.057   6.990   3.929
22729SOL    HW170020  11.103   6.922   3.979
22729SOL    HW270021  11.076   6.970   3.838
22730SOL     OW70022  10.256   6.625   5.684
22730SOL    HW170023  10.188   6.593   5.743
22730SOL    HW270024  10.239   6.719   5.677
22731SOL     OW70025  13.750   1.436   8.629
22731SOL    HW170026  13.828   1.400   8.587
22731SOL    HW270027  13.768   1.429   8.723
22732SOL     OW70028   1.423  11.849  13.318
22732SOL    HW170029   1.392  11.763  13.288
22732SOL    HW270030   1.444  11.896  13.237
22733SOL     OW70031   1.999   8.803   6.251
22733SOL    HW170032   2.011   8.878   6.193
22733SOL    HW270033   2.012   8.839   6.339
22734SOL     OW70034  12.284   2.746   9.678
22734SOL    HW170035  12.365   2.721   9.635
22734SOL    HW270036  12.240   2.803   9.615
22735SOL     OW70037  12.552   0.375  14.630
22735SOL    HW170038  12.471   0.361  14.581
22735SOL    HW270039  12.525   0.376  14.722
22736SOL     OW70040  13.051   2.446   4.168
22736SOL    HW170041  12.975   2.396   4.136
22736SOL    HW270042  13.126   2.405   4.124
22737SOL     OW70043   1.787   5.705   0.502
22737SOL    HW170044   1.866   5.651   0.495
22737SOL    HW270045   1.737   5.685   0.423
22738SOL     OW70046  14.050   0.725   5.050
22738SOL    HW170047  14.085   0.814   5.050
22738SOL    HW270048  13.957   0.736   5.073
22739SOL     OW70049  13.319   7.219   1.697
22739SOL    HW170050  13.402   7.227   1.651
22739SOL    HW270051  13.257   7.193   1.629
22740SOL     OW70052   6.780   5.162   4.164
22740SOL    HW170053   6.716   5.132   4.099
22740SOL    HW270054   6.853   5.195   4.112
22741SOL     OW70055  14.007   2.212  11.287
22741SOL    HW170056  14.003   2.117  11.290
22741SOL    HW270057  14.021   2.233  11.195
22742SOL     OW70058   8.422   5.628  14.392
22742SOL    HW170059   8.454   5.718  14.403
22742SOL    HW270060   8.362   5.634  14.317
22743SOL     OW70061   9.659   7.997   5.405
22743SOL    HW170062   9.672   8.058   5.478
22743SOL    HW270063   9.644   8.053   5.329
22744SOL     OW70064   2.130   5.538   3.305
22744SOL    HW170065   2.113   5.628   3.334
22744SOL    HW270066   2.125   5.543   3.209
22745SOL     OW70067   1.193  12.178   8.647
22745SOL    HW170068   1.240  12.094   8.647
22745SOL    HW270069   1.101  12.153   8.633
22746SOL     OW70070   3.571   6.703  10.965
22746SOL    HW170071   3.566   6.797  10.983
22746SOL    HW270072   3.500   6.665  11.017
22747SOL     OW70073  14.592  10.328   5.650
22747SOL    HW170074  14.575  10.299   5.740
22747SOL    HW270075  14.683  10.359   5.652
22748SOL     OW70076   2.621   7.797  10.735
22748SOL    HW170077   2.673   7.756  10.666
22748SOL    HW270078   2.666   7.878  10.755
22749SOL     OW70079  13.486  11.644  10.141
22749SOL    HW170080  13.498  11.725  10.093
22749SOL    HW270081  13.403  11.609  10.109
22750SOL     OW70082   9.647   2.457   5.222
22750SOL    HW170083   9.728   2.406   5.220
22750SOL    HW270084   9.618   2.459   5.131
22751SOL     OW70085   9.040   9.967  13.282
22751SOL    HW170086   9.118  10.015  13.253
22751SOL    HW270087   9.074   9.886  13.319
22752SOL     OW70088   7.670   4.608   1.951
22752SOL    HW170089   7.758   4.574   1.934
22752SOL    HW270090   7.685   4.695   1.988
22753SOL     OW70091   6.481   1.748   9.636
22753SOL    HW170092   6.474   1.717   9.546
22753SOL    HW270093   6.465   1.842   9.630
22754SOL     OW70094   5.660   8.052  14.058
22754SOL    HW170095   5.609   8.015  13.986
22754SOL    HW270096   5.749   8.058  14.024
22755SOL     OW70097   2.850   8.217   0.675
22755SOL    HW170098   2.887   8.300   0.704
22755SOL    HW270099   2.921   8.153   0.685
22756SOL     OW70100   4.707   3.843  13.659
22756SOL    HW170101   4.765   3.813  13.589
22756SOL    HW270102   4.739   3.931  13.681
22757SOL     OW70103   8.463  13.919   6.329
22757SOL    HW170104   8.417  14.000   6.353
22757SOL    HW270105   8.405  13.849   6.361
22758SOL     OW70106  13.054   1.375   9.660
22758SOL    HW170107  13.015   1.426   9.589
22758SOL    HW270108  13.148   1.380   9.644
22759SOL     OW70109   5.129  13.362   4.919
22759SOL    HW170110   5.044  13.347   4.961
22759SOL    HW270111   5.128  13.307   4.841
22760SOL     OW70112   1.151   6.878   0.725
22760SOL    HW170113   1.090   6.804   0.722
22760SOL    HW270114   1.135   6.919   0.810
22761SOL     OW70115   8.946   5.235  13.223
22761SOL    HW170116   8.905   5.162  13.178
22761SOL    HW270117   9.040   5.224  13.207
22762SOL     OW70118  13.126   8.386  12.157
22762SOL    HW170119  13.189   8.442  12.111
22762SOL    HW270120  13.180   8.324  12.206
22763SOL     OW70121  13.354   8.113   5.084
22763SOL    HW170122  13.382   8.061   5.008
22763SOL    HW270123  13.303   8.051   5.137
22764SOL     OW70124   1.690  12.202  12.906
22764SOL    HW170125   1.748  12.237  12.974
22764SOL    HW270126   1.727  12.117  12.885
22765SOL     OW70127   5.554  10.607  12.086
22765SOL    HW170128   5.548  10.648  12.000
22765SOL    HW270129   5.529  10.516  12.072
22766SOL     OW70130   1.905   0.942  11.044
22766SOL    HW170131   1.831   0.909  11.095
22766SOL    HW270132   1.971   0.872  11.052
22767SOL     OW70133   8.221   0.658   5.072
22767SOL    HW170134   8.222   0.598   4.997
22767SOL    HW270135   8.292   0.720   5.053
22768SOL     OW70136   1.337  13.189  11.575
22768SOL    HW170137   1.364  13.281  11.570
22768SOL    HW270138   1.290  13.183  11.657
22769SOL     OW70139   3.165  14.578   0.906
22769SOL    HW170140   3.164  14.486   0.933
22769SOL    HW270141   3.084  14.589   0.856
22770SOL     OW70142   1.671   8.041  11.508
22770SOL    HW170143   1.765   8.031  11.491
22770SOL    HW270144   1.656   7.990  11.587
22771SOL     OW70145   1.591  12.580   1.039
22771SOL    HW170146   1.615  12.638   1.112
22771SOL    HW270147   1.499  12.600   1.022
22772SOL     OW70148  13.796   2.237  12.279
22772SOL    HW170149  13.832   2.148  12.273
22772SOL    HW270150  13.872   2.292  12.297
22773SOL     OW70151  10.704   7.337  14.782
22773SOL    HW170152  10.759   7.291  14.719
22773SOL    HW270153  10.757   7.411  14.810
22774SOL     OW70154   6.669   6.415  12.278
22774SOL    HW170155   6.667   6.493  12.222
22774SOL    HW270156   6.756   6.416  12.317
22775SOL     OW70157   3.410   7.902   8.129
22775SOL    HW170158   3.471   7.896   8.056
22775SOL    HW270159   3.347   7.832   8.114
22776SOL     OW70160   6.537   1.539   7.442
22776SOL    HW170161   6.515   1.454   7.404
22776SOL    HW270162   6.468   1.554   7.507
22777SOL     OW70163  14.365   7.413   0.447
22777SOL    HW170164  14.438   7.352   0.440
22777SOL    HW270165  14.398   7.495   0.409
22778SOL     OW70166   1.137   6.248   5.875
22778SOL    HW170167   1.145   6.276   5.784
22778SOL    HW270168   1.102   6.324   5.920
22779SOL     OW70169  13.197  11.536   8.816
22779SOL    HW170170  13.214  11.496   8.731
22779SOL    HW270171  13.161  11.465   8.869
22780SOL     OW70172   7.123   2.190   2.693
22780SOL    HW170173   7.126   2.146   2.777
22780SOL    HW270174   7.039   2.238   2.693
22781SOL     OW70175  11.216   9.891   0.562
22781SOL    HW170176  11.308   9.874   0.542
22781SOL    HW270177  11.218   9.951   0.637
22782SOL     OW70178   7.129   2.030   2.268
22782SOL    HW170179   7.175   1.980   2.200
22782SOL    HW270180   7.142   2.121   2.243
22783SOL     OW70181  12.528  14.286  14.723
22783SOL    HW170182  12.568  14.356  14.672
22783SOL    HW270183  12.485  14.330  14.796
22784SOL     OW70184   4.728  12.211   2.511
22784SOL    HW170185   4.780  12.290   2.528
22784SOL    HW270186   4.793  12.147   2.482
22785SOL     OW70187   1.348   8.461  10.855
22785SOL    HW170188   1.282   8.429  10.795
22785SOL    HW270189   1.351   8.556  10.840
22786SOL     OW70190   4.110   3.731   5.763
22786SOL    HW170191   4.033   3.720   5.819
22786SOL    HW270192   4.074   3.765   5.681
22787SOL     OW70193  11.984   1.864   4.370
22787SOL    HW170194  11.930   1.785   4.366
22787SOL    HW270195  12.002   1.885   4.278
22788SOL     OW70196   7.493   0.562  10.467
22788SOL    HW170197   7.424   0.517  10.515
22788SOL    HW270198   7.540   0.493  10.421
22789SOL     OW70199   5.683   0.898   6.110
22789SOL    HW170200   5.632   0.938   6.181
22789SOL    HW270201   5.689   0.966   6.043
22790SOL     OW70202   8.892  11.192   7.562
22790SOL    HW170203   8.801  11.189   7.594
22790SOL    HW270204   8.889  11.143   7.480
22791SOL     OW70205   3.021   0.134   6.705
22791SOL    HW170206   3.086   0.119   6.773
22791SOL    HW270207   3.036   0.063   6.642
22792SOL     OW70208   8.949   4.066   0.805
22792SOL    HW170209   8.978   3.982   0.769
22792SOL    HW270210   8.960   4.055   0.900
22793SOL     OW70211   7.692   8.820   3.898
22793SOL    HW170212   7.625   8.879   3.932
22793SOL    HW270213   7.664   8.733   3.927
22794SOL     OW70214   1.388   8.147   9.890
22794SOL    HW170215   1.465   8.101   9.925
22794SOL    HW270216   1.322   8.078   9.879
22795SOL     OW70217   8.081   3.258   7.646
22795SOL    HW170218   8.095   3.165   7.624
22795SOL    HW270219   8.131   3.271   7.726
22796SOL     OW70220  11.303  14.314   5.111
22796SOL    HW170221  11.298  14.329   5.017
22796SOL    HW270222  11.284  14.221   5.122
22797SOL     OW70223  13.146   2.552   7.208
22797SOL    HW170224  13.091   2.618   7.167
22797SOL    HW270225  13.137   2.475   7.152
22798SOL     OW70226   3.780  12.288   2.626
22798SOL    HW170227   3.769  12.241   2.543
22798SOL    HW270228   3.701  12.267   2.675
22799SOL     OW70229   5.294   9.983   2.040
22799SOL    HW170230   5.209  10.027   2.043
22799SOL    HW270231   5.299   9.936   2.123
22800SOL     OW70232   5.931   8.500   8.652
22800SOL    HW170233   5.845   8.466   8.677
22800SOL    HW270234   5.960   8.550   8.729
22801SOL     OW70235   9.632   9.054  14.616
22801SOL    HW170236   9.538   9.060  14.599
22801SOL    HW270237   9.673   9.090  14.538
22802SOL     OW70238   4.330   0.948  13.422
22802SOL    HW170239   4.314   0.884  13.492
22802SOL    HW270240   4.247   0.995  13.412
22803SOL     OW70241   6.282   2.540   4.071
22803SOL    HW170242   6.301   2.614   4.013
22803SOL    HW270243   6.198   2.562   4.112
22804SOL     OW70244   9.544   0.036   8.922
22804SOL    HW170245   9.515  14.851   8.993
22804SOL    HW270246   9.508   0.122   8.945
22805SOL     OW70247  13.222  12.981  10.883
22805SOL    HW170248  13.277  12.921  10.834
22805SOL    HW270249  13.181  12.927  10.950
22806SOL     OW70250   8.772  10.533  10.403
22806SOL    HW170251   8.847  10.581  10.437
22806SOL    HW270252   8.792  10.521  10.310
22807SOL     OW70253   8.302   4.239   8.350
22807SOL    HW170254   8.367   4.169   8.346
22807SOL    HW270255   8.329   4.300   8.280
22808SOL     OW70256   1.120  11.757   2.016
22808SOL    HW170257   1.178  11.822   2.056
22808SOL    HW270258   1.063  11.729   2.087
22809SOL     OW70259  12.629   6.954   6.828
22809SOL    HW170260  12.538   6.958   6.855
22809SOL    HW270261  12.628   6.976   6.735
22810SOL     OW70262   4.081   7.334  10.652
22810SOL    HW170263   4.029   7.385  10.591
22810SOL    HW270264   4.050   7.244  10.641
22811SOL     OW70265   8.081   1.952  14.395
22811SOL    HW170266   8.131   2.018  14.442
22811SOL    HW270267   8.137   1.875  14.394
22812SOL     OW70268   2.615   4.504   8.652
22812SOL    HW170269   2.553   4.577   8.662
22812SOL    HW270270   2.689   4.542   8.604
22813SOL     OW70271   0.127   2.262  10.664
22813SOL    HW170272   0.126   2.234  10.573
22813SOL    HW270273   0.219   2.286  10.680
22814SOL     OW70274   9.284   5.910  11.966
22814SOL    HW170275   9.317   5.917  11.876
22814SOL    HW270276   9.311   5.991  12.008
22815SOL     OW70277   9.471  14.623   3.429
22815SOL    HW170278   9.380  14.649   3.411
22815SOL    HW270279   9.481  14.540   3.383
22816SOL     OW70280   8.290   6.756   0.703
22816SOL    HW170281   8.210   6.755   0.650
22816SOL    HW270282   8.301   6.847   0.728
22817SOL     OW70283   0.625   9.958  12.420
22817SOL    HW170284   0.557  10.024  12.428
22817SOL    HW270285   0.581   9.884  12.376
22818SOL     OW70286   4.586  10.100  14.653
22818SOL    HW170287   4.662  10.158  14.660
22818SOL    HW270288   4.599  10.053  14.570
22819SOL     OW70289  11.228   3.075   9.217
22819SOL    HW170290  11.246   3.111   9.130
22819SOL    HW270291  11.133   3.070   9.222
22820SOL     OW70292   0.584  13.783   1.591
22820SOL    HW170293   0.615  13.813   1.677
22820SOL    HW270294   0.651  13.813   1.529
22821SOL     OW70295   1.621  11.859  14.853
22821SOL    HW170296   1.581  11.944  14.871
22821SOL    HW270297   1.616  11.850  14.758
22822SOL     OW70298   5.120   3.207   7.588
22822SOL    HW170299   5.208   3.243   7.603
22822SOL    HW270300   5.128   3.115   7.609
22823SOL     OW70301   0.639   3.806   5.368
22823SOL    HW170302   0.710   3.796   5.305
22823SOL    HW270303   0.642   3.725   5.420
22824SOL     OW70304  14.225  11.170   8.487
22824SOL    HW170305  14.182  11.116   8.554
22824SOL    HW270306  14.162  11.241   8.470
22825SOL     OW70307   7.939   8.771   2.609
22825SOL    HW170308   7.892   8.790   2.528
22825SOL    HW270309   7.877   8.790   2.679
22826SOL     OW70310   7.015   9.517   1.308
22826SOL    HW170311   6.966   9.490   1.386
22826SOL    HW270312   7.078   9.581   1.340
22827SOL     OW70313  11.788  13.761  10.585
22827SOL    HW170314  11.793  13.707  10.663
22827SOL    HW270315  11.710  13.729  10.538
22828SOL     OW70316  14.068   7.338   1.730
22828SOL    HW170317  14.148   7.381   1.762
22828SOL    HW270318  14.100   7.260   1.684
22829SOL     OW70319   1.900   8.424   3.246
22829SOL    HW170320   1.981   8.376   3.261
22829SOL    HW270321   1.880   8.411   3.154
22830SOL     OW70322   0.768   2.586   4.798
22830SOL    HW170323   0.796   2.654   4.735
22830SOL    HW270324   0.748   2.634   4.878
22831SOL     OW70325   8.706   3.028   0.571
22831SOL    HW170326   8.742   3.045   0.658
22831SOL    HW270327   8.620   3.071   0.572
22832SOL     OW70328   4.621  10.118   8.962
22832SOL    HW170329   4.607  10.211   8.977
22832SOL    HW270330   4.625  10.080   9.049
22833SOL     OW70331   4.544  13.014   1.434
22833SOL    HW170332   4.499  13.066   1.368
22833SOL    HW270333   4.496  13.032   1.515
22834SOL     OW70334   9.000   4.803   6.965
22834SOL    HW170335   9.037   4.826   7.050
22834SOL    HW270336   9.016   4.710   6.956
22835SOL     OW70337   2.003   6.444   4.306
22835SOL    HW170338   2.042   6.428   4.392
22835SOL    HW270339   1.909   6.435   4.320
22836SOL     OW70340   2.709   7.405   9.791
22836SOL    HW170341   2.775   7.453   9.841
22836SOL    HW270342   2.644   7.471   9.767
22837SOL     OW70343   7.566   3.222  11.273
22837SOL    HW170344   7.536   3.279  11.344
22837SOL    HW270345   7.509   3.146  11.277
22838SOL     OW70346  13.977   7.819   9.709
22838SOL    HW170347  13.921   7.745   9.689
22838SOL    HW270348  13.923   7.875   9.765
22839SOL     OW70349   2.144  14.350   8.113
22839SOL    HW170350   2.099  14.420   8.161
22839SOL    HW270351   2.104  14.269   8.144
22840SOL     OW70352   6.708  12.420   1.382
22840SOL    HW170353   6.728  12.471   1.460
22840SOL    HW270354   6.749  12.335   1.397
22841SOL     OW70355   4.141  14.733   2.613
22841SOL    HW170356   4.100  14.683   2.684
22841SOL    HW270357   4.121  14.824   2.633
22842SOL     OW70358  14.388   7.296   7.995
22842SOL    HW170359  14.320   7.287   8.062
22842SOL    HW270360  14.461   7.338   8.041
22843SOL     OW70361   3.570   6.431   0.391
22843SOL    HW170362   3.644   6.475   0.432
22843SOL    HW270363   3.540   6.493   0.324
22844SOL     OW70364  13.583   4.823   7.244
22844SOL    HW170365  13.617   4.860   7.162
22844SOL    HW270366  13.488   4.833   7.237
22845SOL     OW70367   9.730   3.896  12.852
22845SOL    HW170368   9.805   3.952  12.834
22845SOL    HW270369   9.749   3.814  12.807
22846SOL     OW70370   7.768   6.425  12.226
22846SOL    HW170371   7.724   6.406  12.143
22846SOL    HW270372   7.771   6.520  12.230
22847SOL     OW70373  11.753   1.364   1.775
22847SOL    HW170374  11.753   1.274   1.809
22847SOL    HW270375  11.763   1.354   1.680
22848SOL     OW70376  13.668  14.291  13.346
22848SOL    HW170377  13.744  14.271  13.400
22848SOL    HW270378  13.594  14.249  13.390
22849SOL     OW70379   5.615   4.552   6.494
22849SOL    HW170380   5.612   4.648   6.501
22849SOL    HW270381   5.707   4.530   6.508
22850SOL     OW70382  14.820   9.830   8.654
22850SOL    HW170383  14.777   9.916   8.652
22850SOL    HW270384   0.016   9.836   8.587
22851SOL     OW70385  12.095   5.379  13.420
22851SOL    HW170386  12.071   5.286  13.422
22851SOL    HW270387  12.033   5.418  13.358
22852SOL     OW70388  14.781   7.617   8.180
22852SOL    HW170389  14.692   7.635   8.149
22852SOL    HW270390  14.824   7.575   8.105
22853SOL     OW70391   2.880   8.689   3.345
22853SOL    HW170392   2.866   8.595   3.356
22853SOL    HW270393   2.795   8.729   3.364
22854SOL     OW70394   3.543   2.860   0.807
22854SOL    HW170395   3.633   2.825   0.811
22854SOL    HW270396   3.514   2.861   0.898
22855SOL     OW70397   4.945   6.136   0.480
22855SOL    HW170398   4.979   6.050   0.506
22855SOL    HW270399   4.956   6.191   0.557
22856SOL     OW70400  10.844  11.433   8.192
22856SOL    HW170401  10.773  11.485   8.155
22856SOL    HW270402  10.836  11.348   8.149
22857SOL     OW70403  12.666  12.858  11.939
22857SOL    HW170404  12.686  12.858  12.033
22857SOL    HW270405  12.622  12.942  11.924
22858SOL     OW70406  14.073   2.066   4.549
22858SOL    HW170407  14.042   2.077   4.460
22858SOL    HW270408  14.123   2.146   4.567
22859SOL     OW70409   4.265  10.882   7.034
22859SOL    HW170410   4.282  10.926   6.951
22859SOL    HW270411   4.221  10.948   7.088
22860SOL     OW70412  13.190  11.969   2.480
22860SOL    HW170413  13.147  11.962   2.566
22860SOL    HW270414  13.237  12.052   2.483
22861SOL     OW70415  14.269   8.766  12.292
22861SOL    HW170416  14.225   8.683  12.276
22861SOL    HW270417  14.345   8.766  12.233
22862SOL     OW70418  12.635  13.085   3.993
22862SOL    HW170419  12.607  13.148   4.059
22862SOL    HW270420  12.554  13.049   3.957
22863SOL     OW70421   9.532   8.624   7.979
22863SOL    HW170422   9.449   8.670   7.971
22863SOL    HW270423   9.518   8.541   7.933
22864SOL     OW70424   6.122  11.878  11.450
22864SOL    HW170425   6.107  11.907  11.360
22864SOL    HW270426   6.062  11.931  11.503
22865SOL     OW70427  12.475   5.335  11.783
22865SOL    HW170428  12.461   5.243  11.803
22865SOL    HW270429  12.411   5.382  11.837
22866SOL     OW70430   1.736   3.767   6.876
22866SOL    HW170431   1.821   3.810   6.890
22866SOL    HW270432   1.736   3.694   6.938
22867SOL     OW70433   5.432   5.405  13.847
22867SOL    HW170434   5.454   5.319  13.809
22867SOL    HW270435   5.466   5.400  13.937
22868SOL     OW70436  10.314  12.280  14.740
22868SOL    HW170437  10.329  12.343  14.669
22868SOL    HW270438  10.248  12.220  14.704
22869SOL     OW70439  10.034   1.890  11.314
22869SOL    HW170440   9.954   1.884  11.365
22869SOL    HW270441  10.095   1.830  11.357
22870SOL     OW70442  11.501   3.041   7.046
22870SOL    HW170443  11.526   2.961   6.999
22870SOL    HW270444  11.508   3.018   7.138
22871SOL     OW70445  11.783   6.468   0.399
22871SOL    HW170446  11.723   6.486   0.327
22871SOL    HW270447  11.730   6.484   0.478
22872SOL     OW70448  10.021  13.374  14.628
22872SOL    HW170449   9.958  13.308  14.600
22872SOL    HW270450  10.055  13.412  14.547
22873SOL     OW70451   5.300   9.107   8.199
22873SOL    HW170452   5.218   9.156   8.195
22873SOL    HW270453   5.365   9.165   8.158
22874SOL     OW70454   9.255   3.306  12.906
22874SOL    HW170455   9.242   3.220  12.945
22874SOL    HW270456   9.166   3.337  12.887
22875SOL     OW70457   7.203   4.774   0.217
22875SOL    HW170458   7.140   4.812   0.279
22875SOL    HW270459   7.157   4.775   0.133
22876SOL     OW70460  14.737  12.814   6.272
22876SOL    HW170461  14.750  12.736   6.327
22876SOL    HW270462  14.825  12.839   6.245
22877SOL     OW70463   6.814  10.536   1.185
22877SOL    HW170464   6.726  10.553   1.219
22877SOL    HW270465   6.800  10.472   1.115
22878SOL     OW70466  11.085   8.289   8.192
22878SOL    HW170467  11.020   8.248   8.249
22878SOL    HW270468  11.043   8.368   8.160
22879SOL     OW70469   9.159   1.206  10.559
22879SOL    HW170470   9.065   1.216  10.540
22879SOL    HW270471   9.177   1.114  10.541
22880SOL     OW70472   3.248  13.552  12.290
22880SOL    HW170473   3.267  13.631  12.341
22880SOL    HW270474   3.265  13.578  12.199
22881SOL     OW70475  13.835   1.041   1.883
22881SOL    HW170476  13.818   0.947   1.876
22881SOL    HW270477  13.749   1.082   1.883
22882SOL     OW70478   8.001   4.529  12.027
22882SOL    HW170479   8.065   4.469  11.989
22882SOL    HW270480   7.924   4.520  11.972
22883SOL     OW70481   5.266   2.075  13.811
22883SOL    HW170482   5.194   2.108  13.758
22883SOL    HW270483   5.313   2.015  13.753
22884SOL     OW70484   1.856   4.319  13.267
22884SOL    HW170485   1.919   4.258  13.303
22884SOL    HW270486   1.771   4.282  13.290
22885SOL     OW70487   7.252   9.883  10.120
22885SOL    HW170488   7.209   9.867  10.204
22885SOL    HW270489   7.193   9.943  10.074
22886SOL     OW70490   2.366  10.702   1.835
22886SOL    HW170491   2.397  10.706   1.926
22886SOL    HW270492   2.346  10.610   1.821
22887SOL     OW70493   5.335   0.643   0.657
22887SOL    HW170494   5.299   0.623   0.744
22887SOL    HW270495   5.351   0.558   0.617
22888SOL     OW70496  12.569   0.846  12.920
22888SOL    HW170497  12.519   0.773  12.886
22888SOL    HW270498  12.533   0.923  12.876
22889SOL     OW70499  13.039   5.075   8.490
22889SOL    HW170500  12.949   5.042   8.489
22889SOL    HW270501  13.034   5.155   8.542
22890SOL     OW70502   5.470   2.275   1.132
22890SOL    HW170503   5.559   2.305   1.114
22890SOL    HW270504   5.481   2.203   1.195
22891SOL     OW70505   5.494   4.747  14.830
22891SOL    HW170506   5.544   4.712  14.756
22891SOL    HW270507   5.550   4.815  14.867
22892SOL     OW70508   9.312   8.366  12.434
22892SOL    HW170509   9.320   8.301  12.364
22892SOL    HW270510   9.219   8.384  12.440
22893SOL     OW70511   4.308  12.221   4.687
22893SOL    HW170512   4.283  12.304   4.727
22893SOL    HW270513   4.256  12.155   4.733
22894SOL     OW70514   5.450   3.616   8.605
22894SOL    HW170515   5.429   3.692   8.551
22894SOL    HW270516   5.371   3.562   8.603
22895SOL     OW70517   0.189   9.844   2.183
22895SOL    HW170518   0.243   9.851   2.262
22895SOL    HW270519   0.238   9.891   2.116
22896SOL     OW70520   4.006   7.399   6.386
22896SOL    HW170521   3.915   7.425   6.402
22896SOL    HW270522   4.020   7.414   6.293
22897SOL     OW70523   1.857  14.671   5.019
22897SOL    HW170524   1.794  14.600   5.011
22897SOL    HW270525   1.938  14.635   4.982
22898SOL     OW70526  10.200   2.453   2.201
22898SOL    HW170527  10.105   2.449   2.191
22898SOL    HW270528  10.213   2.506   2.279
22899SOL     OW70529  13.417   4.015  12.535
22899SOL    HW170530  13.355   3.942  12.525
22899SOL    HW270531  13.387   4.081  12.473
22900SOL     OW70532   4.408   5.960  14.707
22900SOL    HW170533   4.419   6.053  14.688
22900SOL    HW270534   4.485   5.918  14.669
22901SOL     OW70535   1.792   3.589   2.800
22901SOL    HW170536   1.867   3.547   2.842
22901SOL    HW270537   1.761   3.653   2.864
22902SOL     OW70538   8.056   8.510  13.660
22902SOL    HW170539   8.099   8.555  13.587
22902SOL    HW270540   8.045   8.420  13.630
22903SOL     OW70541   2.021   3.358   8.807
22903SOL    HW170542   2.052   3.449   8.805
22903SOL    HW270543   2.063   3.317   8.731
22904SOL     OW70544  12.793  10.496   3.725
22904SOL    HW170545  12.872  10.443   3.733
22904SOL    HW270546  12.728  10.439   3.684
22905SOL     OW70547   7.114   0.027  12.389
22905SOL    HW170548   7.041   0.074  12.350
22905SOL    HW270549   7.164   0.094  12.436
22906SOL     OW70550   4.875   5.204   6.900
22906SOL    HW170551   4.875   5.296   6.928
22906SOL    HW270552   4.874   5.208   6.805
22907SOL     OW70553   6.779   7.803   6.830
22907SOL    HW170554   6.697   7.818   6.876
22907SOL    HW270555   6.830   7.747   6.888
22908SOL     OW70556  12.324   7.861  10.237
22908SOL    HW170557  12.409   7.898  10.261
22908SOL    HW270558  12.324   7.863  10.141
22909SOL     OW70559  11.230   6.062   1.885
22909SOL    HW170560  11.148   6.018   1.862
22909SOL    HW270561  11.223   6.080   1.979
22910SOL     OW70562   7.230   8.515   3.422
22910SOL    HW170563   7.270   8.589   3.467
22910SOL    HW270564   7.156   8.490   3.477
22911SOL     OW70565  14.399   8.848   0.385
22911SOL    HW170566  14.424   8.939   0.370
22911SOL    HW270567  14.456   8.798   0.326
22912SOL     OW70568  11.870   6.874  13.563
22912SOL    HW170569  11.959   6.906  13.576
22912SOL    HW270570  11.862   6.800  13.623
22913SOL     OW70571   8.990  10.553   2.915
22913SOL    HW170572   9.045  10.538   2.838
22913SOL    HW270573   9.015  10.483   2.976
22914SOL     OW70574  12.124   5.204  12.022
22914SOL    HW170575  12.190   5.263  11.986
22914SOL    HW270576  12.045   5.257  12.031
22915SOL     OW70577   7.324  14.509  11.404
22915SOL    HW170578   7.243  14.460  11.393
22915SOL    HW270579   7.297  14.601  11.404
22916SOL     OW70580   9.528   0.982  13.803
22916SOL    HW170581   9.623   0.993  13.802
22916SOL    HW270582   9.512   0.912  13.866
22917SOL     OW70583  13.422   3.016   7.199
22917SOL    HW170584  13.366   3.093   7.208
22917SOL    HW270585  13.362   2.943   7.184
22918SOL     OW70586  10.480   2.807  11.572
22918SOL    HW170587  10.484   2.784  11.480
22918SOL    HW270588  10.434   2.734  11.613
22919SOL     OW70589   3.728   4.180   2.078
22919SOL    HW170590   3.771   4.108   2.124
22919SOL    HW270591   3.643   4.190   2.121
22920SOL     OW70592   7.555   6.618   4.690
22920SOL    HW170593   7.618   6.689   4.703
22920SOL    HW270594   7.609   6.542   4.667
22921SOL     OW70595   8.632  14.368   4.787
22921SOL    HW170596   8.582  14.327   4.717
22921SOL    HW270597   8.697  14.422   4.742
22922SOL     OW70598   8.775  11.372   4.273
22922SOL    HW170599   8.751  11.410   4.358
22922SOL    HW270600   8.738  11.432   4.209
22923SOL     OW70601   2.774   2.149   8.752
22923SOL    HW170602   2.767   2.055   8.769
22923SOL    HW270603   2.751   2.190   8.835
22924SOL     OW70604   2.938  10.261   9.643
22924SOL    HW170605   2.863  10.215   9.604
22924SOL    HW270606   2.990  10.192   9.683
22925SOL     OW70607  10.679   3.765  11.518
22925SOL    HW170608  10.650   3.702  11.453
22925SOL    HW270609  10.658   3.724  11.602
22926SOL     OW70610   5.450   6.706   9.514
22926SOL    HW170611   5.364   6.664   9.502
22926SOL    HW270612   5.482   6.721   9.425
22927SOL     OW70613  11.693   4.448   4.333
22927SOL    HW170614  11.774   4.459   4.382
22927SOL    HW270615  11.706   4.367   4.283
22928SOL     OW70616  11.572   0.565   7.844
22928SOL    HW170617  11.560   0.590   7.753
22928SOL    HW270618  11.666   0.566   7.857
22929SOL     OW70619   7.439  10.595  13.984
22929SOL    HW170620   7.356  10.553  13.960
22929SOL    HW270621   7.414  10.685  14.008
22930SOL     OW70622  12.682   2.590  12.543
22930SOL    HW170623  12.762   2.544  12.570
22930SOL    HW270624  12.637   2.610  12.625
22931SOL     OW70625   5.076   7.752  13.682
22931SOL    HW170626   5.121   7.830  13.715
22931SOL    HW270627   5.038   7.780  13.599
22932SOL     OW70628   6.239  12.565  11.678
22932SOL    HW170629   6.147  12.557  11.702
22932SOL    HW270630   6.266  12.649  11.715
22933SOL     OW70631  13.976   4.879   4.262
22933SOL    HW170632  13.939   4.919   4.340
22933SOL    HW270633  13.911   4.815   4.235
22934SOL     OW70634   5.311  14.272  10.921
22934SOL    HW170635   5.370  14.213  10.875
22934SOL    HW270636   5.345  14.277  11.010
22935SOL     OW70637  11.055   1.773   4.796
22935SOL    HW170638  11.021   1.857   4.828
22935SOL    HW270639  11.050   1.780   4.701
22936SOL     OW70640   0.599  13.962   3.960
22936SOL    HW170641   0.630  13.873   3.940
22936SOL    HW270642   0.515  13.948   4.004
22937SOL     OW70643   4.750  13.615  12.536
22937SOL    HW170644   4.712  13.587  12.619
22937SOL    HW270645   4.684  13.593  12.470
22938SOL     OW70646   1.271   7.228  10.796
22938SOL    HW170647   1.295   7.249  10.706
22938SOL    HW270648   1.182   7.192  10.789
22939SOL     OW70649  13.989   2.083  14.560
22939SOL    HW170650  13.974   2.173  14.589
22939SOL    HW270651  13.902   2.049  14.541
22940SOL     OW70652   6.253   4.697   5.787
22940SOL    HW170653   6.159   4.714   5.796
22940SOL    HW270654   6.258   4.622   5.729
22941SOL     OW70655  10.916   5.570   7.212
22941SOL    HW170656  10.921   5.623   7.291
22941SOL    HW270657  10.855   5.617   7.155
22942SOL     OW70658   1.794   5.402   4.381
22942SOL    HW170659   1.799   5.389   4.286
22942SOL    HW270660   1.859   5.470   4.399
22943SOL     OW70661  12.082   2.250   3.571
22943SOL    HW170662  11.994   2.241   3.534
22943SOL    HW270663  12.100   2.165   3.611
22944SOL     OW70664   6.750   9.755   8.248
22944SOL    HW170665   6.767   9.671   8.291
22944SOL    HW270666   6.707   9.731   8.166
22945SOL     OW70667   0.791   1.050  10.477
22945SOL    HW170668   0.882   1.033  10.454
22945SOL    HW270669   0.789   1.050  10.573
22946SOL     OW70670   2.789  12.939   2.767
22946SOL    HW170671   2.802  12.861   2.713
22946SOL    HW270672   2.822  12.914   2.853
22947SOL     OW70673   6.669  14.179  12.906
22947SOL    HW170674   6.655  14.085  12.918
22947SOL    HW270675   6.759  14.194  12.935
22948SOL     OW70676   4.574   3.510  13.347
22948SOL    HW170677   4.565   3.605  13.361
22948SOL    HW270678   4.549   3.471  13.430
22949SOL     OW70679   5.953  12.077  14.160
22949SOL    HW170680   5.876  12.131  14.143
22949SOL    HW270681   6.001  12.126  14.227
22950SOL     OW70682  12.732   2.821   6.277
22950SOL    HW170683  12.668   2.883   6.244
22950SOL    HW270684  12.693   2.735   6.261
22951SOL     OW70685  13.579  10.639  10.819
22951SOL    HW170686  13.645  10.592  10.870
22951SOL    HW270687  13.617  10.646  10.732
22952SOL     OW70688   0.941  12.988   3.720
22952SOL    HW170689   0.946  12.958   3.630
22952SOL    HW270690   0.849  13.009   3.733
22953SOL     OW70691   7.392  12.075   2.810
22953SOL    HW170692   7.340  11.998   2.789
22953SOL    HW270693   7.350  12.147   2.763
22954SOL     OW70694   0.571  13.101   8.714
22954SOL    HW170695   0.599  13.170   8.775
22954SOL    HW270696   0.524  13.038   8.769
22955SOL     OW70697   8.550  10.248   0.204
22955SOL    HW170698   8.544  10.195   0.124
22955SOL    HW270699   8.639  10.282   0.203
22956SOL     OW70700  12.682   1.574   5.984
22956SOL    HW170701  12.743   1.628   6.035
22956SOL    HW270702  12.725   1.561   5.900
22957SOL     OW70703   6.700   6.283   4.359
22957SOL    HW170704   6.794   6.297   4.350
22957SOL    HW270705   6.668   6.359   4.409
22958SOL     OW70706  14.539  11.821  12.179
22958SOL    HW170707  14.462  11.878  12.188
22958SOL    HW270708  14.503  11.737  12.152
22959SOL     OW70709   8.904  10.639   2.327
22959SOL    HW170710   8.962  10.616   2.254
22959SOL    HW270711   8.818  10.604   2.301
22960SOL     OW70712  13.487  10.350  11.395
22960SOL    HW170713  13.531  10.301  11.464
22960SOL    HW270714  13.477  10.287  11.323
22961SOL     OW70715  11.080   1.233  14.393
22961SOL    HW170716  11.089   1.308  14.333
22961SOL    HW270717  10.987   1.231  14.415
22962SOL     OW70718   1.500  12.228   8.114
22962SOL    HW170719   1.496  12.132   8.107
22962SOL    HW270720   1.442  12.259   8.045
22963SOL     OW70721   2.224   9.228   6.593
22963SOL    HW170722   2.144   9.261   6.551
22963SOL    HW270723   2.293   9.248   6.530
22964SOL     OW70724   4.142  10.206  13.388
22964SOL    HW170725   4.135  10.224  13.481
22964SOL    HW270726   4.143  10.110  13.382
22965SOL     OW70727   5.164  14.542   1.458
22965SOL    HW170728   5.132  14.586   1.536
22965SOL    HW270729   5.166  14.610   1.391
22966SOL     OW70730   0.370   5.826  12.973
22966SOL    HW170731   0.331   5.887  13.035
22966SOL    HW270732   0.360   5.740  13.014
22967SOL     OW70733  14.091  10.354  14.460
22967SOL    HW170734  14.079  10.449  14.466
22967SOL    HW270735  14.026  10.326  14.396
22968SOL     OW70736   2.375  14.594  13.383
22968SOL    HW170737   2.352  14.647  13.460
22968SOL    HW270738   2.351  14.649  13.308
22969SOL     OW70739   6.131  13.792  12.492
22969SOL    HW170740   6.085  13.869  12.459
22969SOL    HW270741   6.097  13.719  12.440
22970SOL     OW70742   7.144  11.518  13.018
22970SOL    HW170743   7.086  11.446  13.043
22970SOL    HW270744   7.097  11.597  13.044
22971SOL     OW70745  11.790   5.720   2.456
22971SOL    HW170746  11.698   5.695   2.456
22971SOL    HW270747  11.827   5.676   2.532
22972SOL     OW70748   8.495   9.983  13.152
22972SOL    HW170749   8.532  10.020  13.072
22972SOL    HW270750   8.401   9.976  13.135
22973SOL     OW70751   6.850  12.111   5.629
22973SOL    HW170752   6.845  12.196   5.672
22973SOL    HW270753   6.912  12.061   5.682
22974SOL     OW70754   7.150   0.524   3.970
22974SOL    HW170755   7.122   0.543   3.880
22974SOL    HW270756   7.224   0.465   3.959
22975SOL     OW70757  10.725  13.903   9.724
22975SOL    HW170758  10.694  13.984   9.682
22975SOL    HW270759  10.708  13.916   9.817
22976SOL     OW70760   9.223   8.945   9.583
22976SOL    HW170761   9.233   8.852   9.598
22976SOL    HW270762   9.311   8.981   9.589
22977SOL     OW70763   6.934  11.625   7.939
22977SOL    HW170764   6.884  11.547   7.961
22977SOL    HW270765   6.867  11.693   7.925
22978SOL     OW70766   8.821  13.876   0.554
22978SOL    HW170767   8.788  13.787   0.541
22978SOL    HW270768   8.757  13.916   0.613
22979SOL     OW70769  11.719   3.513  14.226
22979SOL    HW170770  11.758   3.600  14.221
22979SOL    HW270771  11.725   3.489  14.318
22980SOL     OW70772   7.642   9.274   0.057
22980SOL    HW170773   7.698   9.328   0.000
22980SOL    HW270774   7.703   9.237   0.121
22981SOL     OW70775   6.615   8.323  11.956
22981SOL    HW170776   6.651   8.407  11.927
22981SOL    HW270777   6.683   8.285  12.011
22982SOL     OW70778  14.855   3.374  11.098
22982SOL    HW170779   0.042   3.429  11.047
22982SOL    HW270780   0.033   3.350  11.176
22983SOL     OW70781   2.319   9.364   6.018
22983SOL    HW170782   2.358   9.285   5.980
22983SOL    HW270783   2.278   9.334   6.098
22984SOL     OW70784   8.988   0.253   2.352
22984SOL    HW170785   9.010   0.291   2.267
22984SOL    HW270786   8.923   0.313   2.390
22985SOL     OW70787   0.640   8.441  10.018
22985SOL    HW170788   0.548   8.436   9.994
22985SOL    HW270789   0.686   8.454   9.934
22986SOL     OW70790  12.791   5.172   9.475
22986SOL    HW170791  12.805   5.077   9.471
22986SOL    HW270792  12.715   5.187   9.418
22987SOL     OW70793   7.927   0.724  12.385
22987SOL    HW170794   7.941   0.785  12.313
22987SOL    HW270795   7.858   0.764  12.439
22988SOL     OW70796   3.069   2.166   2.277
22988SOL    HW170797   3.006   2.221   2.323
22988SOL    HW270798   3.140   2.153   2.340
22989SOL     OW70799  13.875   6.813   5.792
22989SOL    HW170800  13.793   6.792   5.837
22989SOL    HW270801  13.941   6.818   5.861
22990SOL     OW70802   2.313   2.896  13.469
22990SOL    HW170803   2.298   2.911  13.376
22990SOL    HW270804   2.303   2.983  13.508
22991SOL     OW70805   3.118  11.308   3.630
22991SOL    HW170806   3.102  11.350   3.546
22991SOL    HW270807   3.034  11.316   3.677
22992SOL     OW70808  12.528  12.269  12.718
22992SOL    HW170809  12.611  12.223  12.710
22992SOL    HW270810  12.461  12.203  12.701
22993SOL     OW70811  11.337  10.563   4.990
22993SOL    HW170812  11.259  10.570   4.934
22993SOL    HW270813  11.304  10.526   5.072
22994SOL     OW70814   6.457   7.331   3.025
22994SOL    HW170815   6.438   7.238   3.036
22994SOL    HW270816   6.457   7.343   2.930
22995SOL     OW70817   3.587  12.210   3.039
22995SOL    HW170818   3.664  12.238   3.089
22995SOL    HW270819   3.597  12.115   3.031
22996SOL     OW70820   7.360  11.568   0.934
22996SOL    HW170821   7.272  11.582   0.899
22996SOL    HW270822   7.353  11.596   1.026
22997SOL     OW70823  12.566   3.026   5.764
22997SOL    HW170824  12.489   2.978   5.735
22997SOL    HW270825  12.532   3.089   5.828
22998SOL     OW70826  12.764   5.289   0.445
22998SOL    HW170827  12.825   5.262   0.377
22998SOL    HW270828  12.820   5.318   0.517
22999SOL     OW70829   9.198  10.625   8.936
22999SOL    HW170830   9.219  10.598   8.846
22999SOL    HW270831   9.160  10.547   8.975
23000SOL     OW70832   1.378   0.179   2.565
23000SOL    HW170833   1.439   0.181   2.639
23000SOL    HW270834   1.292   0.169   2.606
23001SOL     OW70835   0.697  13.916  12.425
23001SOL    HW170836   0.713  13.841  12.482
23001SOL    HW270837   0.756  13.984  12.458
23002SOL     OW70838   6.378   0.570  11.012
23002SOL    HW170839   6.300   0.621  10.989
23002SOL    HW270840   6.343   0.483  11.033
23003SOL     OW70841  10.251   6.979   6.022
23003SOL    HW170842  10.343   6.952   6.016
23003SOL    HW270843  10.246   7.060   5.971
23004SOL     OW70844   0.970   5.866   1.737
23004SOL    HW170845   1.038   5.856   1.805
23004SOL    HW270846   0.902   5.804   1.764
23005SOL     OW70847   6.764   5.152   3.363
23005SOL    HW170848   6.764   5.234   3.314
23005SOL    HW270849   6.705   5.168   3.437
23006SOL     OW70850  13.957  13.924   6.350
23006SOL    HW170851  13.868  13.952   6.369
23006SOL    HW270852  14.004  13.932   6.433
23007SOL     OW70853   4.139  11.500   3.972
23007SOL    HW170854   4.190  11.484   3.893
23007SOL    HW270855   4.156  11.424   4.028
23008SOL     OW70856   7.605   8.161  10.278
23008SOL    HW170857   7.653   8.079  10.270
23008SOL    HW270858   7.566   8.157  10.365
23009SOL     OW70859   6.231  10.605   0.085
23009SOL    HW170860   6.251  10.695   0.058
23009SOL    HW270861   6.136  10.600   0.082
23010SOL     OW70862   9.274  13.817   3.022
23010SOL    HW170863   9.214  13.831   2.949
23010SOL    HW270864   9.312  13.903   3.038
23011SOL     OW70865   7.712   3.377   9.361
23011SOL    HW170866   7.730   3.435   9.287
23011SOL    HW270867   7.763   3.298   9.344
23012SOL     OW70868   7.046   2.521   4.866
23012SOL    HW170869   7.139   2.505   4.876
23012SOL    HW270870   7.033   2.610   4.900
23013SOL     OW70871  10.364   3.551   6.327
23013SOL    HW170872  10.418   3.630   6.323
23013SOL    HW270873  10.276   3.582   6.346
23014SOL     OW70874   8.836   9.822   0.274
23014SOL    HW170875   8.746   9.822   0.306
23014SOL    HW270876   8.890   9.828   0.353
23015SOL     OW70877  14.797  13.965   5.174
23015SOL    HW170878  14.755  14.016   5.243
23015SOL    HW270879  14.760  14.001   5.093
23016SOL     OW70880  10.006   0.695   7.360
23016SOL    HW170881   9.929   0.731   7.316
23016SOL    HW270882  10.068   0.768   7.365
23017SOL     OW70883   0.391   3.229   1.369
23017SOL    HW170884   0.375   3.276   1.288
23017SOL    HW270885   0.352   3.143   1.355
23018SOL     OW70886   5.198  11.071   9.773
23018SOL    HW170887   5.286  11.103   9.756
23018SOL    HW270888   5.141  11.143   9.746
23019SOL     OW70889   2.380   4.112  10.622
23019SOL    HW170890   2.346   4.054  10.554
23019SOL    HW270891   2.329   4.091  10.700
23020SOL     OW70892   9.141  11.642   6.281
23020SOL    HW170893   9.050  11.613   6.272
23020SOL    HW270894   9.162  11.627   6.373
23021SOL     OW70895   6.230   8.267   1.244
23021SOL    HW170896   6.296   8.262   1.313
23021SOL    HW270897   6.147   8.248   1.289
23022SOL     OW70898  12.562   1.952   5.077
23022SOL    HW170899  12.546   1.868   5.118
23022SOL    HW270900  12.658   1.961   5.076
23023SOL     OW70901  11.586  12.379   7.210
23023SOL    HW170902  11.679  12.400   7.221
23023SOL    HW270903  11.551  12.451   7.157
23024SOL     OW70904   5.560  11.279  12.755
23024SOL    HW170905   5.640  11.250  12.712
23024SOL    HW270906   5.491  11.266  12.691
23025SOL     OW70907  10.575   3.971  10.537
23025SOL    HW170908  10.570   4.042  10.601
23025SOL    HW270909  10.659   3.930  10.553
23026SOL     OW70910   7.114   1.224  10.948
23026SOL    HW170911   7.064   1.299  10.977
23026SOL    HW270912   7.144   1.248  10.860
23027SOL     OW70913   5.084   2.595  12.641
23027SOL    HW170914   5.167   2.601  12.593
23027SOL    HW270915   5.098   2.648  12.719
23028SOL     OW70916   0.435   2.263  10.691
23028SOL    HW170917   0.517   2.299  10.658
23028SOL    HW270918   0.437   2.171  10.665
23029SOL     OW70919  11.040   6.236  12.600
23029SOL    HW170920  11.040   6.141  12.600
23029SOL    HW270921  10.950   6.260  12.578
23030SOL     OW70922  14.105  12.571  13.149
23030SOL    HW170923  14.062  12.635  13.092
23030SOL    HW270924  14.166  12.526  13.091
23031SOL     OW70925   5.736   3.851   2.158
23031SOL    HW170926   5.782   3.794   2.220
23031SOL    HW270927   5.726   3.934   2.205
23032SOL     OW70928   8.334   8.414   6.486
23032SOL    HW170929   8.300   8.342   6.539
23032SOL    HW270930   8.289   8.492   6.519
23033SOL     OW70931  10.899   2.126  10.437
23033SOL    HW170932  10.934   2.047  10.397
23033SOL    HW270933  10.804   2.110  10.441
23034SOL     OW70934   3.675   9.042  10.084
23034SOL    HW170935   3.692   9.135  10.098
23034SOL    HW270936   3.735   9.018  10.013
23035SOL     OW70937   5.779  12.157   0.291
23035SOL    HW170938   5.865  12.198   0.304
23035SOL    HW270939   5.722  12.200   0.356
23036SOL     OW70940   2.091   2.493   5.104
23036SOL    HW170941   2.049   2.523   5.185
23036SOL    HW270942   2.172   2.452   5.134
23037SOL     OW70943  13.217   5.519  10.944
23037SOL    HW170944  13.124   5.531  10.923
23037SOL    HW270945  13.217   5.467  11.024
23038SOL     OW70946   2.088   7.506   4.610
23038SOL    HW170947   2.058   7.590   4.576
23038SOL    HW270948   2.102   7.522   4.703
23039SOL     OW70949   4.050   5.866   6.589
23039SOL    HW170950   4.018   5.836   6.674
23039SOL    HW270951   3.979   5.845   6.528
23040SOL     OW70952   8.735   7.378   0.648
23040SOL    HW170953   8.813   7.327   0.627
23040SOL    HW270954   8.715   7.426   0.567
23041SOL     OW70955   8.436   1.918  10.038
23041SOL    HW170956   8.512   1.869  10.068
23041SOL    HW270957   8.406   1.966  10.115
23042SOL     OW70958  13.640   4.188   1.215
23042SOL    HW170959  13.727   4.224   1.227
23042SOL    HW270960  13.655   4.098   1.186
23043SOL     OW70961   8.058  10.706   3.898
23043SOL    HW170962   8.096  10.727   3.812
23043SOL    HW270963   8.121  10.742   3.961
23044SOL     OW70964   5.165   3.665   4.238
23044SOL    HW170965   5.141   3.698   4.325
23044SOL    HW270966   5.102   3.595   4.221
23045SOL     OW70967   3.259   8.886   4.162
23045SOL    HW170968   3.337   8.860   4.111
23045SOL    HW270969   3.232   8.969   4.123
23046SOL     OW70970  12.536  11.313  14.730
23046SOL    HW170971  12.518  11.407  14.726
23046SOL    HW270972  12.573  11.292  14.644
23047SOL     OW70973   0.158   9.954   1.810
23047SOL    HW170974   0.223   9.946   1.881
23047SOL    HW270975   0.141   9.864   1.784
23048SOL     OW70976   3.869   8.296   1.879
23048SOL    HW170977   3.960   8.277   1.859
23048SOL    HW270978   3.821   8.217   1.850
23049SOL     OW70979   4.471   2.788   6.713
23049SOL    HW170980   4.534   2.716   6.707
23049SOL    HW270981   4.418   2.780   6.634
23050SOL     OW70982   2.137   1.134   6.071
23050SOL    HW170983   2.175   1.053   6.037
23050SOL    HW270984   2.147   1.128   6.166
23051SOL     OW70985   1.665   8.112  11.993
23051SOL    HW170986   1.667   8.205  12.015
23051SOL    HW270987   1.756   8.084  11.997
23052SOL     OW70988  13.625  14.860   5.555
23052SOL    HW170989  13.586  14.826   5.635
23052SOL    HW270990  13.675  14.786   5.520
23053SOL     OW70991  14.435  10.597   1.168
23053SOL    HW170992  14.496  10.554   1.227
23053SOL    HW270993  14.357  10.541   1.168
23054SOL     OW70994  10.701   2.188  14.361
23054SOL    HW170995  10.626   2.160  14.309
23054SOL    HW270996  10.677   2.275  14.391
23055SOL     OW70997   5.557   4.733   4.554
23055SOL    HW170998   5.527   4.760   4.467
23055SOL    HW270999   5.479   4.737   4.609
23056SOL     OW71000   7.559   2.723  10.690
23056SOL    HW171001   7.654   2.714  10.697
23056SOL    HW271002   7.532   2.757  10.775
23057SOL     OW71003  14.526   6.237  14.095
23057SOL    HW171004  14.617   6.235  14.064
23057SOL    HW271005  14.504   6.145  14.108
23058SOL     OW71006   6.778  10.711  10.343
23058SOL    HW171007   6.773  10.644  10.275
23058SOL    HW271008   6.871  10.734  10.347
23059SOL     OW71009   1.369   5.185   5.536
23059SOL    HW171010   1.435   5.253   5.552
23059SOL    HW271011   1.391   5.151   5.449
23060SOL     OW71012  13.209   4.047  10.934
23060SOL    HW171013  13.189   3.992  11.010
23060SOL    HW271014  13.171   4.000  10.860
23061SOL     OW71015   9.785  10.140   9.071
23061SOL    HW171016   9.786  10.113   8.979
23061SOL    HW271017   9.839  10.219   9.073
23062SOL     OW71018   5.875   3.200   6.797
23062SOL    HW171019   5.902   3.277   6.846
23062SOL    HW271020   5.944   3.187   6.732
23063SOL     OW71021   8.537   6.059   1.476
23063SOL    HW171022   8.457   6.006   1.479
23063SOL    HW271023   8.511   6.137   1.427
23064SOL     OW71024   5.589  14.470  11.529
23064SOL    HW171025   5.659  14.487  11.465
23064SOL    HW271026   5.635  14.436  11.606
23065SOL     OW71027   2.893   8.905   8.768
23065SOL    HW171028   2.895   8.868   8.680
23065SOL    HW271029   2.819   8.966   8.767
23066SOL     OW71030  13.169   9.429  13.497
23066SOL    HW171031  13.249   9.473  13.469
23066SOL    HW271032  13.100   9.495  13.484
23067SOL     OW71033   9.046   5.615   6.840
23067SOL    HW171034   9.096   5.692   6.868
23067SOL    HW271035   9.021   5.571   6.921
23068SOL     OW71036   3.622   2.769  10.080
23068SOL    HW171037   3.528   2.786  10.071
23068SOL    HW271038   3.664   2.832  10.022
23069SOL     OW71039   9.989   9.923   0.970
23069SOL    HW171040   9.899   9.911   0.998
23069SOL    HW271041  10.041   9.906   1.048
23070SOL     OW71042  11.312  10.688   6.559
23070SOL    HW171043  11.313  10.625   6.487
23070SOL    HW271044  11.385  10.747   6.541
23071SOL     OW71045   4.667   5.503   4.873
23071SOL    HW171046   4.745   5.507   4.930
23071SOL    HW271047   4.648   5.594   4.852
23072SOL     OW71048   0.353   2.238   4.966
23072SOL    HW171049   0.353   2.214   5.059
23072SOL    HW271050   0.439   2.277   4.952
23073SOL     OW71051   0.914   4.244   0.844
23073SOL    HW171052   0.907   4.199   0.928
23073SOL    HW271053   0.824   4.258   0.816
23074SOL     OW71054   0.988  11.864  11.163
23074SOL    HW171055   0.899  11.830  11.170
23074SOL    HW271056   1.023  11.857  11.252
23075SOL     OW71057  13.055  13.091   3.672
23075SOL    HW171058  13.016  13.144   3.742
23075SOL    HW271059  13.019  13.003   3.686
23076SOL     OW71060   9.678   8.448  11.811
23076SOL    HW171061   9.724   8.531  11.800
23076SOL    HW271062   9.705   8.395  11.736
23077SOL     OW71063  10.352  10.270  14.192
23077SOL    HW171064  10.343  10.192  14.246
23077SOL    HW271065  10.278  10.326  14.217
23078SOL     OW71066   3.514  14.112  13.155
23078SOL    HW171067   3.551  14.026  13.133
23078SOL    HW271068   3.537  14.168  13.081
23079SOL     OW71069   2.184  11.627   8.958
23079SOL    HW171070   2.172  11.639   9.052
23079SOL    HW271071   2.115  11.681   8.918
23080SOL     OW71072   8.597  10.858   2.250
23080SOL    HW171073   8.606  10.817   2.336
23080SOL    HW271074   8.650  10.804   2.192
23081SOL     OW71075  10.717   6.042   7.256
23081SOL    HW171076  10.802   6.080   7.231
23081SOL    HW271077  10.656   6.116   7.253
23082SOL     OW71078   6.603   5.170   0.309
23082SOL    HW171079   6.679   5.227   0.319
23082SOL    HW271080   6.533   5.228   0.279
23083SOL     OW71081   8.064  12.761   1.693
23083SOL    HW171082   8.006  12.726   1.626
23083SOL    HW271083   8.129  12.692   1.707
23084SOL     OW71084   5.451   3.293  12.418
23084SOL    HW171085   5.366   3.338  12.416
23084SOL    HW271086   5.515   3.362  12.404
23085SOL     OW71087   2.834  12.893   8.994
23085SOL    HW171088   2.895  12.933   9.056
23085SOL    HW271089   2.889  12.848   8.931
23086SOL     OW71090  11.204  13.534   8.843
23086SOL    HW171091  11.208  13.442   8.867
23086SOL    HW271092  11.286  13.550   8.795
23087SOL     OW71093  12.731   7.819   6.748
23087SOL    HW171094  12.642   7.809   6.716
23087SOL    HW271095  12.782   7.848   6.673
23088SOL     OW71096   6.697   9.154   2.229
23088SOL    HW171097   6.751   9.078   2.252
23088SOL    HW271098   6.608   9.126   2.248
23089SOL     OW71099   1.020   9.750   5.347
23089SOL    HW171100   1.092   9.743   5.410
23089SOL    HW271101   1.002   9.843   5.340
23090SOL     OW71102  13.226   2.779   3.684
23090SOL    HW171103  13.248   2.799   3.775
23090SOL    HW271104  13.179   2.856   3.653
23091SOL     OW71105  12.804  13.628   4.239
23091SOL    HW171106  12.822  13.721   4.252
23091SOL    HW271107  12.713  13.617   4.268
23092SOL     OW71108  12.660   2.743  13.893
23092SOL    HW171109  12.654   2.834  13.921
23092SOL    HW271110  12.753   2.727  13.882
23093SOL     OW71111  13.562   6.091   6.202
23093SOL    HW171112  13.515   6.110   6.284
23093SOL    HW271113  13.646   6.135   6.213
23094SOL     OW71114  13.347  13.232  10.881
23094SOL    HW171115  13.299  13.150  10.871
23094SOL    HW271116  13.371  13.235  10.974
23095SOL     OW71117  13.196   8.570   5.821
23095SOL    HW171118  13.247   8.503   5.775
23095SOL    HW271119  13.107   8.535   5.822
23096SOL     OW71120  11.011   8.444   2.299
23096SOL    HW171121  11.076   8.374   2.300
23096SOL    HW271122  11.010   8.474   2.208
23097SOL     OW71123   1.707   5.272   7.409
23097SOL    HW171124   1.726   5.178   7.401
23097SOL    HW271125   1.777   5.306   7.465
23098SOL     OW71126  10.235  12.789   7.271
23098SOL    HW171127  10.242  12.857   7.204
23098SOL    HW271128  10.252  12.707   7.224
23099SOL     OW71129   1.096  13.069   6.222
23099SOL    HW171130   1.151  13.113   6.285
23099SOL    HW271131   1.156  13.016   6.169
23100SOL     OW71132  13.052   0.932   0.698
23100SOL    HW171133  13.001   0.877   0.758
23100SOL    HW271134  12.990   0.956   0.629
23101SOL     OW71135  13.670  11.494   4.843
23101SOL    HW171136  13.600  11.531   4.897
23101SOL    HW271137  13.713  11.430   4.900
23102SOL     OW71138   4.548   8.553  11.934
23102SOL    HW171139   4.482   8.484  11.938
23102SOL    HW271140   4.604   8.538  12.009
23103SOL     OW71141   4.262   2.164   2.324
23103SOL    HW171142   4.256   2.214   2.406
23103SOL    HW271143   4.354   2.170   2.298
23104SOL     OW71144  12.587   9.087  12.327
23104SOL    HW171145  12.644   9.114  12.254
23104SOL    HW271146  12.542   9.009  12.295
23105SOL     OW71147   3.326   7.616  14.786
23105SOL    HW171148   3.376   7.557  14.842
23105SOL    HW271149   3.245   7.569  14.767
23106SOL     OW71150   3.872   4.656   6.288
23106SOL    HW171151   3.779   4.668   6.308
23106SOL    HW271152   3.913   4.738   6.316
23107SOL     OW71153  11.473   9.335   5.856
23107SOL    HW171154  11.492   9.249   5.819
23107SOL    HW271155  11.502   9.397   5.788
23108SOL     OW71156   0.509  14.365  12.891
23108SOL    HW171157   0.414  14.381  12.894
23108SOL    HW271158   0.519  14.276  12.924
23109SOL     OW71159  12.027   2.275   2.060
23109SOL    HW171160  12.122   2.270   2.061
23109SOL    HW271161  11.998   2.193   2.020
23110SOL     OW71162   5.173   9.983   0.132
23110SOL    HW171163   5.260   9.943   0.137
23110SOL    HW271164   5.160  10.022   0.219
23111SOL     OW71165   3.022   2.468   4.672
23111SOL    HW171166   3.054   2.522   4.744
23111SOL    HW271167   3.098   2.454   4.617
23112SOL     OW71168  12.477  11.487   3.768
23112SOL    HW171169  12.523  11.559   3.724
23112SOL    HW271170  12.384  11.506   3.751
23113SOL     OW71171   9.267   9.274  11.370
23113SOL    HW171172   9.307   9.221  11.301
23113SOL    HW271173   9.255   9.360  11.330
23114SOL     OW71174   7.850  13.544  10.511
23114SOL    HW171175   7.943  13.566  10.517
23114SOL    HW271176   7.811  13.620  10.468
23115SOL     OW71177  10.052  11.486   9.354
23115SOL    HW171178  10.103  11.495   9.435
23115SOL    HW271179  10.116  11.496   9.284
23116SOL     OW71180   4.377   5.050   6.655
23116SOL    HW171181   4.472   5.064   6.654
23116SOL    HW271182   4.355   5.025   6.566
23117SOL     OW71183   9.709   7.523   8.026
23117SOL    HW171184   9.707   7.541   7.933
23117SOL    HW271185   9.763   7.444   8.034
23118SOL     OW71186  12.304   7.306   8.843
23118SOL    HW171187  12.255   7.356   8.778
23118SOL    HW271188  12.317   7.367   8.916
23119SOL     OW71189  14.577   5.653   8.738
23119SOL    HW171190  14.631   5.656   8.817
23119SOL    HW271191  14.514   5.583   8.755
23120SOL     OW71192   0.586  11.240  13.907
23120SOL    HW171193   0.491  11.232  13.919
23120SOL    HW271194   0.607  11.175  13.840
23121SOL     OW71195  10.046  10.449   4.772
23121SOL    HW171196  10.040  10.393   4.849
23121SOL    HW271197  10.084  10.531   4.804
23122SOL     OW71198  12.419  10.636   7.439
23122SOL    HW171199  12.380  10.679   7.515
23122SOL    HW271200  12.379  10.679   7.364
23123SOL     OW71201  13.820   2.691   3.227
23123SOL    HW171202  13.783   2.637   3.296
23123SOL    HW271203  13.744   2.739   3.191
23124SOL     OW71204  13.348  10.057   7.098
23124SOL    HW171205  13.336   9.976   7.049
23124SOL    HW271206  13.301  10.042   7.180
23125SOL     OW71207   5.950  12.646   3.076
23125SOL    HW171208   5.883  12.707   3.109
23125SOL    HW271209   5.913  12.559   3.094
23126SOL     OW71210  10.673   8.086   7.404
23126SOL    HW171211  10.642   8.167   7.444
23126SOL    HW271212  10.702   8.112   7.317
23127SOL     OW71213  10.180   4.918   8.476
23127SOL    HW171214  10.157   4.826   8.483
23127SOL    HW271215  10.262   4.918   8.427
23128SOL     OW71216  10.635   8.694  14.295
23128SOL    HW171217  10.572   8.764  14.278
23128SOL    HW271218  10.659   8.707  14.387
23129SOL     OW71219  14.846   3.993   8.869
23129SOL    HW171220  14.762   3.951   8.849
23129SOL    HW271221  14.822   4.075   8.912
23130SOL     OW71222   8.503   1.201   5.389
23130SOL    HW171223   8.521   1.134   5.455
23130SOL    HW271224   8.568   1.186   5.320
23131SOL     OW71225  10.367   9.622   6.300
23131SOL    HW171226  10.443   9.568   6.320
23131SOL    HW271227  10.400   9.712   6.299
23132SOL     OW71228   9.814   2.542   3.713
23132SOL    HW171229   9.856   2.479   3.773
23132SOL    HW271230   9.752   2.489   3.663
23133SOL     OW71231   2.431   3.616  10.385
23133SOL    HW171232   2.476   3.678  10.442
23133SOL    HW271233   2.363   3.667  10.343
23134SOL     OW71234   7.059   7.147  13.115
23134SOL    HW171235   7.083   7.071  13.061
23134SOL    HW271236   7.114   7.218  13.082
23135SOL     OW71237   3.306   7.338   5.108
23135SOL    HW171238   3.305   7.387   5.190
23135SOL    HW271239   3.230   7.370   5.059
23136SOL     OW71240  12.270   0.838  13.487
23136SOL    HW171241  12.233   0.770  13.544
23136SOL    HW271242  12.194   0.876  13.443
23137SOL     OW71243   3.002  10.325  11.384
23137SOL    HW171244   2.920  10.277  11.367
23137SOL    HW271245   3.024  10.364  11.299
23138SOL     OW71246  13.440   5.054   2.595
23138SOL    HW171247  13.507   5.111   2.557
23138SOL    HW271248  13.381   5.035   2.521
23139SOL     OW71249   0.897   0.939   2.611
23139SOL    HW171250   0.805   0.916   2.619
23139SOL    HW271251   0.943   0.855   2.608
23140SOL     OW71252   0.571   3.681   8.918
23140SOL    HW171253   0.652   3.728   8.897
23140SOL    HW271254   0.508   3.749   8.939
23141SOL     OW71255   1.677  12.569   0.605
23141SOL    HW171256   1.741  12.601   0.668
23141SOL    HW271257   1.595  12.565   0.654
23142SOL     OW71258   1.990   1.939   1.339
23142SOL    HW171259   1.896   1.948   1.330
23142SOL    HW271260   2.014   1.871   1.275
23143SOL     OW71261   2.568  14.479   2.331
23143SOL    HW171262   2.602  14.560   2.292
23143SOL    HW271263   2.585  14.411   2.266
23144SOL     OW71264   7.266   0.957   7.844
23144SOL    HW171265   7.354   0.942   7.808
23144SOL    HW271266   7.250   1.051   7.830
23145SOL     OW71267   3.091   2.859   8.964
23145SOL    HW171268   3.146   2.781   8.954
23145SOL    HW271269   3.052   2.849   9.051
23146SOL     OW71270  10.142  13.783   2.991
23146SOL    HW171271  10.222  13.799   2.940
23146SOL    HW271272  10.081  13.850   2.961
23147SOL     OW71273   5.989   3.165  12.711
23147SOL    HW171274   6.024   3.245  12.672
23147SOL    HW271275   5.960   3.112  12.636
23148SOL     OW71276   0.511   3.524   9.708
23148SOL    HW171277   0.586   3.571   9.672
23148SOL    HW271278   0.550   3.450   9.755
23149SOL     OW71279   3.768   0.377   1.311
23149SOL    HW171280   3.763   0.282   1.308
23149SOL    HW271281   3.696   0.407   1.255
23150SOL     OW71282   6.971   4.889   1.709
23150SOL    HW171283   6.889   4.929   1.738
23150SOL    HW271284   7.021   4.876   1.789
23151SOL     OW71285  13.843   0.398  14.245
23151SOL    HW171286  13.777   0.447  14.196
23151SOL    HW271287  13.802   0.381  14.330
23152SOL     OW71288   4.317   8.036  11.400
23152SOL    HW171289   4.354   7.967  11.456
23152SOL    HW271290   4.224   8.015  11.395
23153SOL     OW71291   4.260   1.457   8.833
23153SOL    HW171292   4.243   1.544   8.796
23153SOL    HW271293   4.173   1.422   8.851
23154SOL     OW71294  14.614   8.006   7.243
23154SOL    HW171295  14.568   7.975   7.321
23154SOL    HW271296  14.703   8.022   7.272
23155SOL     OW71297   0.951   4.505  11.194
23155SOL    HW171298   0.948   4.415  11.164
23155SOL    HW271299   0.863   4.522  11.227
23156SOL     OW71300  12.515   9.408  14.120
23156SOL    HW171301  12.516   9.359  14.038
23156SOL    HW271302  12.438   9.377  14.166
23157SOL     OW71303  10.742  10.443  13.595
23157SOL    HW171304  10.673  10.483  13.649
23157SOL    HW271305  10.715  10.462  13.505
23158SOL     OW71306  13.714   9.529   8.635
23158SOL    HW171307  13.689   9.522   8.727
23158SOL    HW271308  13.695   9.443   8.599
23159SOL     OW71309   2.289   4.750  14.254
23159SOL    HW171310   2.292   4.809  14.330
23159SOL    HW271311   2.322   4.667  14.288
23160SOL     OW71312   1.666   0.982  13.799
23160SOL    HW171313   1.702   0.994  13.887
23160SOL    HW271314   1.628   1.067  13.776
23161SOL     OW71315  11.927  10.352   4.831
23161SOL    HW171316  11.889  10.433   4.866
23161SOL    HW271317  11.858  10.287   4.842
23162SOL     OW71318   0.943  10.898   5.255
23162SOL    HW171319   1.009  10.831   5.234
23162SOL    HW271320   0.971  10.932   5.340
23163SOL     OW71321  11.163   2.854   6.766
23163SOL    HW171322  11.222   2.922   6.798
23163SOL    HW271323  11.075   2.889   6.784
23164SOL     OW71324   1.051  11.884   4.498
23164SOL    HW171325   1.100  11.950   4.548
23164SOL    HW271326   1.119  11.834   4.452
23165SOL     OW71327  12.349   6.133   2.337
23165SOL    HW171328  12.365   6.040   2.322
23165SOL    HW271329  12.435   6.169   2.359
23166SOL     OW71330  11.420   6.564   1.103
23166SOL    HW171331  11.457   6.616   1.175
23166SOL    HW271332  11.491   6.505   1.077
23167SOL     OW71333   1.927  10.341   6.808
23167SOL    HW171334   1.984  10.280   6.855
23167SOL    HW271335   1.956  10.334   6.717
23168SOL     OW71336   1.131  11.195   4.940
23168SOL    HW171337   1.206  11.136   4.936
23168SOL    HW271338   1.164  11.280   4.912
23169SOL     OW71339   4.727   0.929   1.174
23169SOL    HW171340   4.718   1.017   1.138
23169SOL    HW271341   4.648   0.916   1.227
23170SOL     OW71342   9.013   8.840  13.807
23170SOL    HW171343   9.042   8.775  13.871
23170SOL    HW271344   9.021   8.795  13.723
23171SOL     OW71345   6.209   1.882  14.217
23171SOL    HW171346   6.129   1.935  14.224
23171SOL    HW271347   6.178   1.794  14.194
23172SOL     OW71348  14.781   1.944  13.132
23172SOL    HW171349  14.839   1.913  13.202
23172SOL    HW271350  14.700   1.893  13.144
23173SOL     OW71351   1.218  10.607   2.790
23173SOL    HW171352   1.293  10.612   2.731
23173SOL    HW271353   1.245  10.544   2.857
23174SOL     OW71354   5.943  10.565   8.985
23174SOL    HW171355   5.874  10.573   9.051
23174SOL    HW271356   6.013  10.622   9.016
23175SOL     OW71357   5.326   1.032   0.274
23175SOL    HW171358   5.380   0.999   0.202
23175SOL    HW271359   5.236   1.028   0.240
23176SOL     OW71360  14.292  10.856   5.783
23176SOL    HW171361  14.341  10.776   5.802
23176SOL    HW271362  14.213  10.849   5.836
23177SOL     OW71363   6.738   2.114   9.666
23177SOL    HW171364   6.691   2.072   9.594
23177SOL    HW271365   6.764   2.199   9.631
23178SOL     OW71366   1.022   0.635   4.908
23178SOL    HW171367   0.947   0.598   4.862
23178SOL    HW271368   1.073   0.680   4.840
23179SOL     OW71369   8.930  13.468  13.792
23179SOL    HW171370   8.943  13.476  13.886
23179SOL    HW271371   8.855  13.409  13.783
23180SOL     OW71372   6.254   9.503  13.001
23180SOL    HW171373   6.219   9.415  13.017
23180SOL    HW271374   6.258   9.543  13.088
23181SOL     OW71375  11.938   9.295  11.531
23181SOL    HW171376  11.851   9.313  11.495
23181SOL    HW271377  11.989   9.373  11.512
23182SOL     OW71378   1.840   2.922   4.991
23182SOL    HW171379   1.878   2.875   4.917
23182SOL    HW271380   1.879   3.009   4.986
23183SOL     OW71381   8.376  10.739  11.671
23183SOL    HW171382   8.391  10.646  11.654
23183SOL    HW271383   8.285  10.743  11.700
23184SOL     OW71384   3.710  13.765   4.325
23184SOL    HW171385   3.734  13.690   4.379
23184SOL    HW271386   3.673  13.829   4.387
23185SOL     OW71387   6.372   1.797  13.709
23185SOL    HW171388   6.418   1.755  13.636
23185SOL    HW271389   6.440   1.816  13.773
23186SOL     OW71390  11.829   6.145   7.677
23186SOL    HW171391  11.796   6.223   7.722
23186SOL    HW271392  11.767   6.132   7.604
23187SOL     OW71393  11.464   1.143   6.546
23187SOL    HW171394  11.463   1.231   6.510
23187SOL    HW271395  11.376   1.131   6.583
23188SOL     OW71396   3.299  13.734  12.543
23188SOL    HW171397   3.312  13.717  12.636
23188SOL    HW271398   3.387  13.749  12.508
23189SOL     OW71399  11.857   1.403   5.704
23189SOL    HW171400  11.803   1.334   5.664
23189SOL    HW271401  11.796   1.454   5.756
23190SOL     OW71402  12.000   6.562   7.662
23190SOL    HW171403  12.027   6.488   7.717
23190SOL    HW271404  11.952   6.619   7.721
23191SOL     OW71405   9.215   3.256   4.656
23191SOL    HW171406   9.129   3.273   4.620
23191SOL    HW271407   9.205   3.267   4.750
23192SOL     OW71408  10.367   6.903  13.608
23192SOL    HW171409  10.451   6.857  13.606
23192SOL    HW271410  10.387   6.988  13.647
23193SOL     OW71411   7.285   1.271   7.165
23193SOL    HW171412   7.292   1.357   7.123
23193SOL    HW271413   7.328   1.211   7.104
23194SOL     OW71414  10.492   0.831  10.338
23194SOL    HW171415  10.546   0.782  10.401
23194SOL    HW271416  10.408   0.787  10.339
23195SOL     OW71417  10.569  12.941   1.707
23195SOL    HW171418  10.654  12.914   1.673
23195SOL    HW271419  10.587  13.019   1.759
23196SOL     OW71420  13.387   6.017  10.846
23196SOL    HW171421  13.335   5.973  10.914
23196SOL    HW271422  13.461   6.055  10.894
23197SOL     OW71423   6.674  12.950  11.945
23197SOL    HW171424   6.701  13.031  11.989
23197SOL    HW271425   6.608  12.912  12.003
23198SOL     OW71426   0.758  12.115   3.620
23198SOL    HW171427   0.701  12.152   3.687
23198SOL    HW271428   0.812  12.051   3.666
23199SOL     OW71429   7.952   1.715   4.528
23199SOL    HW171430   7.942   1.776   4.601
23199SOL    HW271431   7.870   1.665   4.527
23200SOL     OW71432   7.258   9.124   8.582
23200SOL    HW171433   7.174   9.080   8.581
23200SOL    HW271434   7.316   9.064   8.629
23201SOL     OW71435   4.850   4.049   4.906
23201SOL    HW171436   4.891   4.094   4.979
23201SOL    HW271437   4.758   4.076   4.909
23202SOL     OW71438   1.063   0.563  13.479
23202SOL    HW171439   1.120   0.530  13.548
23202SOL    HW271440   1.122   0.610  13.420
23203SOL     OW71441   6.596   6.052   4.441
23203SOL    HW171442   6.637   6.137   4.428
23203SOL    HW271443   6.628   5.998   4.368
23204SOL     OW71444   2.453  11.061   8.552
23204SOL    HW171445   2.361  11.037   8.540
23204SOL    HW271446   2.493  11.046   8.466
23205SOL     OW71447   0.830   6.401  13.613
23205SOL    HW171448   0.846   6.481  13.663
23205SOL    HW271449   0.751   6.364  13.652
23206SOL     OW71450   3.776  11.689   3.404
23206SOL    HW171451   3.779  11.709   3.498
23206SOL    HW271452   3.692  11.726   3.375
23207SOL     OW71453  12.536  10.634  13.950
23207SOL    HW171454  12.601  10.595  14.008
23207SOL    HW271455  12.580  10.641  13.866
23208SOL     OW71456   5.942   5.481  10.804
23208SOL    HW171457   5.892   5.551  10.763
23208SOL    HW271458   5.898   5.401  10.775
23209SOL     OW71459   3.027  13.148  13.443
23209SOL    HW171460   3.088  13.078  13.422
23209SOL    HW271461   3.058  13.223  13.392
23210SOL     OW71462   6.284   2.692   9.020
23210SOL    HW171463   6.322   2.679   8.933
23210SOL    HW271464   6.317   2.619   9.072
23211SOL     OW71465  12.180  14.722  11.209
23211SOL    HW171466  12.197  14.725  11.115
23211SOL    HW271467  12.191  14.630  11.232
23212SOL     OW71468   5.759   1.157   8.025
23212SOL    HW171469   5.744   1.067   8.054
23212SOL    HW271470   5.676   1.184   7.986
23213SOL     OW71471   5.233   8.329   4.249
23213SOL    HW171472   5.168   8.397   4.266
23213SOL    HW271473   5.233   8.276   4.329
23214SOL     OW71474   9.657   1.266   3.285
23214SOL    HW171475   9.621   1.312   3.209
23214SOL    HW271476   9.594   1.285   3.356
23215SOL     OW71477   1.843   4.268  14.691
23215SOL    HW171478   1.910   4.320  14.737
23215SOL    HW271479   1.791   4.333  14.643
23216SOL     OW71480   9.995  12.278   0.823
23216SOL    HW171481   9.966  12.367   0.807
23216SOL    HW271482  10.010  12.241   0.736
23217SOL     OW71483   8.887   7.069  10.515
23217SOL    HW171484   8.913   7.038  10.601
23217SOL    HW271485   8.838   6.997  10.476
23218SOL     OW71486   3.363   3.926   5.096
23218SOL    HW171487   3.272   3.924   5.065
23218SOL    HW271488   3.362   3.871   5.174
23219SOL     OW71489  14.430   9.042  11.264
23219SOL    HW171490  14.464   9.066  11.178
23219SOL    HW271491  14.508   9.022  11.316
23220SOL     OW71492  11.888   1.527   3.803
23220SOL    HW171493  11.828   1.481   3.861
23220SOL    HW271494  11.953   1.566   3.861
23221SOL     OW71495   3.034   1.258   1.185
23221SOL    HW171496   3.048   1.351   1.206
23221SOL    HW271497   2.949   1.237   1.223
23222SOL     OW71498   4.084   7.121   2.076
23222SOL    HW171499   4.056   7.209   2.051
23222SOL    HW271500   4.161   7.135   2.132
23223SOL     OW71501  13.195   3.204  11.886
23223SOL    HW171502  13.286   3.220  11.863
23223SOL    HW271503  13.147   3.278  11.847
23224SOL     OW71504   3.409  14.314   0.521
23224SOL    HW171505   3.403  14.382   0.588
23224SOL    HW271506   3.429  14.234   0.569
23225SOL     OW71507  12.498  11.551  13.478
23225SOL    HW171508  12.554  11.573  13.403
23225SOL    HW271509  12.494  11.631  13.529
23226SOL     OW71510   5.104   5.317   2.511
23226SOL    HW171511   5.095   5.385   2.445
23226SOL    HW271512   5.142   5.243   2.465
23227SOL     OW71513   1.719   3.727   3.559
23227SOL    HW171514   1.710   3.812   3.516
23227SOL    HW271515   1.663   3.668   3.507
23228SOL     OW71516   4.766  10.886   6.791
23228SOL    HW171517   4.783  10.815   6.853
23228SOL    HW271518   4.850  10.931   6.782
23229SOL     OW71519   2.038  13.968   5.905
23229SOL    HW171520   2.028  14.005   5.817
23229SOL    HW271521   2.072  14.040   5.958
23230SOL     OW71522  14.786   9.115  12.476
23230SOL    HW171523  14.837   9.091  12.398
23230SOL    HW271524  14.829   9.068  12.548
23231SOL     OW71525   7.217  14.659  11.747
23231SOL    HW171526   7.152  14.700  11.691
23231SOL    HW271527   7.199  14.565  11.740
23232SOL     OW71528   0.832   6.809  10.082
23232SOL    HW171529   0.799   6.759  10.156
23232SOL    HW271530   0.797   6.897  10.095
23233SOL     OW71531   0.440   8.760   5.827
23233SOL    HW171532   0.459   8.800   5.911
23233SOL    HW271533   0.511   8.698   5.813
23234SOL     OW71534   1.961   4.950   6.047
23234SOL    HW171535   1.913   4.868   6.057
23234SOL    HW271536   1.970   4.984   6.136
23235SOL     OW71537   0.277   6.434   4.498
23235SOL    HW171538   0.201   6.455   4.552
23235SOL    HW271539   0.272   6.339   4.485
23236SOL     OW71540   3.504   5.761   6.709
23236SOL    HW171541   3.530   5.673   6.681
23236SOL    HW271542   3.410   5.766   6.689
23237SOL     OW71543  13.016  12.343   7.028
23237SOL    HW171544  12.943  12.392   6.990
23237SOL    HW271545  13.085  12.408   7.040
23238SOL     OW71546   3.654   3.659   9.276
23238SOL    HW171547   3.562   3.642   9.259
23238SOL    HW271548   3.675   3.606   9.353
23239SOL     OW71549   9.945   1.714   4.211
23239SOL    HW171550   9.890   1.722   4.132
23239SOL    HW271551  10.021   1.769   4.192
23240SOL     OW71552   3.551  11.356  13.199
23240SOL    HW171553   3.498  11.301  13.257
23240SOL    HW271554   3.636  11.361  13.242
23241SOL     OW71555  12.518  12.530   1.745
23241SOL    HW171556  12.457  12.585   1.793
23241SOL    HW271557  12.537  12.457   1.804
23242SOL     OW71558   9.622   4.879  10.824
23242SOL    HW171559   9.703   4.924  10.848
23242SOL    HW271560   9.570   4.945  10.778
23243SOL     OW71561   1.828  13.859   1.654
23243SOL    HW171562   1.806  13.783   1.600
23243SOL    HW271563   1.922  13.869   1.644
23244SOL     OW71564  11.329  12.774   6.067
23244SOL    HW171565  11.320  12.700   6.007
23244SOL    HW271566  11.390  12.833   6.023
23245SOL     OW71567   0.142   9.342  12.394
23245SOL    HW171568   0.202   9.401  12.347
23245SOL    HW271569   0.141   9.376  12.483
23246SOL     OW71570   7.997   4.301   0.200
23246SOL    HW171571   7.954   4.223   0.164
23246SOL    HW271572   8.083   4.302   0.157
23247SOL     OW71573  10.438   0.870   3.498
23247SOL    HW171574  10.362   0.815   3.480
23247SOL    HW271575  10.483   0.879   3.414
23248SOL     OW71576   4.882   4.958  13.650
23248SOL    HW171577   4.947   5.013  13.608
23248SOL    HW271578   4.867   4.999  13.735
23249SOL     OW71579  10.685   1.304   8.836
23249SOL    HW171580  10.597   1.307   8.875
23249SOL    HW271581  10.713   1.395   8.832
23250SOL     OW71582   4.086   1.123  10.992
23250SOL    HW171583   4.105   1.109  10.899
23250SOL    HW271584   4.158   1.178  11.022
23251SOL     OW71585   7.488   1.248  14.292
23251SOL    HW171586   7.511   1.292  14.210
23251SOL    HW271587   7.485   1.155  14.270
23252SOL     OW71588   3.509  12.911   8.405
23252SOL    HW171589   3.604  12.910   8.418
23252SOL    HW271590   3.475  12.948   8.487
23253SOL     OW71591   4.280   2.305   0.433
23253SOL    HW171592   4.361   2.353   0.451
23253SOL    HW271593   4.216   2.344   0.492
23254SOL     OW71594  10.610   3.016   6.553
23254SOL    HW171595  10.614   3.100   6.507
23254SOL    HW271596  10.702   2.990   6.562
23255SOL     OW71597   8.216   1.959   1.619
23255SOL    HW171598   8.140   1.924   1.573
23255SOL    HW271599   8.261   1.882   1.653
23256SOL     OW71600  14.865   6.432   2.360
23256SOL    HW171601  14.840   6.399   2.446
23256SOL    HW271602  14.783   6.460   2.319
23257SOL     OW71603   2.820  12.334   7.680
23257SOL    HW171604   2.915  12.342   7.688
23257SOL    HW271605   2.804  12.327   7.586
23258SOL     OW71606  10.167   6.725  13.668
23258SOL    HW171607  10.227   6.800  13.667
23258SOL    HW271608  10.095   6.752  13.610
23259SOL     OW71609  11.297  14.790   5.262
23259SOL    HW171610  11.202  14.784   5.273
23259SOL    HW271611  11.310  14.865   5.204
23260SOL     OW71612   9.730   6.536  10.383
23260SOL    HW171613   9.823   6.511  10.383
23260SOL    HW271614   9.711   6.554  10.291
23261SOL     OW71615  11.142   4.564  13.517
23261SOL    HW171616  11.211   4.513  13.560
23261SOL    HW271617  11.164   4.563  13.424
23262SOL     OW71618  12.978  10.240   2.969
23262SOL    HW171619  13.028  10.158   2.973
23262SOL    HW271620  12.890  10.215   2.998
23263SOL     OW71621  13.393  11.869  13.465
23263SOL    HW171622  13.375  11.894  13.375
23263SOL    HW271623  13.323  11.809  13.489
23264SOL     OW71624  11.161  14.340  13.420
23264SOL    HW171625  11.136  14.424  13.459
23264SOL    HW271626  11.251  14.354  13.390
23265SOL     OW71627   5.650   9.514   5.396
23265SOL    HW171628   5.689   9.596   5.428
23265SOL    HW271629   5.637   9.462   5.475
23266SOL     OW71630   6.748   8.837   7.489
23266SOL    HW171631   6.698   8.832   7.407
23266SOL    HW271632   6.806   8.761   7.487
23267SOL     OW71633  13.363  11.181   2.976
23267SOL    HW171634  13.413  11.156   3.054
23267SOL    HW271635  13.304  11.107   2.960
23268SOL     OW71636   7.991   2.391   5.662
23268SOL    HW171637   8.053   2.401   5.589
23268SOL    HW271638   7.986   2.297   5.676
23269SOL     OW71639   5.600  13.296   1.280
23269SOL    HW171640   5.515  13.253   1.287
23269SOL    HW271641   5.613  13.308   1.186
23270SOL     OW71642   3.666   2.713   9.618
23270SOL    HW171643   3.707   2.683   9.537
23270SOL    HW271644   3.623   2.634   9.653
23271SOL     OW71645   4.047   5.210  10.603
23271SOL    HW171646   4.087   5.124  10.591
23271SOL    HW271647   4.092   5.266  10.539
23272SOL     OW71648   8.480   2.917   2.146
23272SOL    HW171649   8.541   2.844   2.153
23272SOL    HW271650   8.409   2.894   2.207
23273SOL     OW71651   1.048  10.918  10.076
23273SOL    HW171652   1.026  11.003  10.038
23273SOL    HW271653   1.118  10.884  10.020
23274SOL     OW71654   1.421   0.692  12.522
23274SOL    HW171655   1.346   0.668  12.577
23274SOL    HW271656   1.454   0.609  12.489
23275SOL     OW71657  14.125   9.245   1.430
23275SOL    HW171658  14.062   9.181   1.397
23275SOL    HW271659  14.072   9.306   1.482
23276SOL     OW71660   8.332   7.944   4.539
23276SOL    HW171661   8.307   7.984   4.455
23276SOL    HW271662   8.339   8.018   4.600
23277SOL     OW71663  13.190   5.807   6.416
23277SOL    HW171664  13.158   5.783   6.329
23277SOL    HW271665  13.112   5.811   6.470
23278SOL     OW71666   1.068   2.551  14.245
23278SOL    HW171667   1.058   2.565  14.339
23278SOL    HW271668   1.034   2.631  14.204
23279SOL     OW71669   6.468  13.335   2.009
23279SOL    HW171670   6.544  13.320   2.065
23279SOL    HW271671   6.504  13.347   1.921
23280SOL     OW71672   8.392   7.055   8.230
23280SOL    HW171673   8.335   7.063   8.306
23280SOL    HW271674   8.457   6.990   8.255
23281SOL     OW71675   3.162  11.080  11.749
23281SOL    HW171676   3.093  11.146  11.754
23281SOL    HW271677   3.114  10.998  11.731
23282SOL     OW71678   9.420  11.732  11.614
23282SOL    HW171679   9.459  11.658  11.660
23282SOL    HW271680   9.345  11.758  11.669
23283SOL     OW71681  13.957   0.059   2.534
23283SOL    HW171682  14.017  14.866   2.499
23283SOL    HW271683  14.014   0.128   2.569
23284SOL     OW71684  12.838   4.462  13.529
23284SOL    HW171685  12.835   4.527  13.459
23284SOL    HW271686  12.776   4.494  13.594
23285SOL     OW71687  10.491   3.843  10.314
23285SOL    HW171688  10.478   3.899  10.390
23285SOL    HW271689  10.579   3.863  10.284
23286SOL     OW71690   4.682   5.181  10.781
23286SOL    HW171691   4.680   5.277  10.777
23286SOL    HW271692   4.664   5.161  10.873
23287SOL     OW71693   3.392  14.556  12.305
23287SOL    HW171694   3.409  14.649  12.319
23287SOL    HW271695   3.477  14.514  12.318
23288SOL     OW71696   6.790  10.493   6.953
23288SOL    HW171697   6.823  10.578   6.981
23288SOL    HW271698   6.706  10.513   6.912
23289SOL     OW71699  10.282  11.395   0.745
23289SOL    HW171700  10.343  11.465   0.768
23289SOL    HW271701  10.315  11.318   0.792
23290SOL     OW71702  13.716   7.240  12.168
23290SOL    HW171703  13.655   7.234  12.242
23290SOL    HW271704  13.795   7.195  12.199
23291SOL     OW71705  11.902   4.092   2.965
23291SOL    HW171706  11.960   4.043   3.023
23291SOL    HW271707  11.952   4.170   2.942
23292SOL     OW71708  12.904  11.669   9.092
23292SOL    HW171709  12.897  11.732   9.021
23292SOL    HW271710  12.816  11.632   9.101
23293SOL     OW71711   2.703  10.841  11.690
23293SOL    HW171712   2.731  10.756  11.658
23293SOL    HW271713   2.610  10.845  11.667
23294SOL     OW71714   9.979   9.701   3.823
23294SOL    HW171715   9.951   9.756   3.749
23294SOL    HW271716   9.994   9.764   3.894
23295SOL     OW71717  10.515   7.753  13.035
23295SOL    HW171718  10.439   7.789  12.990
23295SOL    HW271719  10.565   7.830  13.063
23296SOL     OW71720   3.029  10.470  14.654
23296SOL    HW171721   3.062  10.493  14.567
23296SOL    HW271722   2.957  10.531  14.669
23297SOL     OW71723  14.220  11.446   8.100
23297SOL    HW171724  14.224  11.367   8.046
23297SOL    HW271725  14.289  11.434   8.166
23298SOL     OW71726   4.520   1.666   7.560
23298SOL    HW171727   4.430   1.680   7.589
23298SOL    HW271728   4.573   1.689   7.636
23299SOL     OW71729   5.042  10.666  12.093
23299SOL    HW171730   4.998  10.750  12.104
23299SOL    HW271731   5.085  10.650  12.176
23300SOL     OW71732   3.496   0.288   0.203
23300SOL    HW171733   3.412   0.244   0.207
23300SOL    HW271734   3.561   0.218   0.204
23301SOL     OW71735   5.729   9.486   1.213
23301SOL    HW171736   5.643   9.448   1.227
23301SOL    HW271737   5.723   9.530   1.128
23302SOL     OW71738   6.492   2.250   7.862
23302SOL    HW171739   6.505   2.343   7.845
23302SOL    HW271740   6.559   2.206   7.809
23303SOL     OW71741   4.008   5.526  11.637
23303SOL    HW171742   4.041   5.544  11.549
23303SOL    HW271743   3.922   5.487  11.623
23304SOL     OW71744   0.839   2.056  12.607
23304SOL    HW171745   0.820   2.084  12.697
23304SOL    HW271746   0.869   1.965  12.616
23305SOL     OW71747  12.199   8.019  12.272
23305SOL    HW171748  12.193   7.974  12.357
23305SOL    HW271749  12.173   7.953  12.208
23306SOL     OW71750   0.026  14.863   9.162
23306SOL    HW171751   0.095  14.873   9.228
23306SOL    HW271752   0.070   0.005   9.078
23307SOL     OW71753   3.705   7.148  11.599
23307SOL    HW171754   3.707   7.214  11.531
23307SOL    HW271755   3.755   7.185  11.671
23308SOL     OW71756  14.008   7.982  14.232
23308SOL    HW171757  13.968   7.898  14.257
23308SOL    HW271758  13.953   8.013  14.160
23309SOL     OW71759   8.240   0.006   6.815
23309SOL    HW171760   8.329   0.042   6.811
23309SOL    HW271761   8.251  14.786   6.798
23310SOL     OW71762   0.112   9.477   5.282
23310SOL    HW171763   0.151   9.558   5.316
23310SOL    HW271764   0.104   9.492   5.188
23311SOL     OW71765  14.464   7.690   9.522
23311SOL    HW171766  14.515   7.770   9.531
23311SOL    HW271767  14.375   7.716   9.548
23312SOL     OW71768  12.062  12.544  14.106
23312SOL    HW171769  12.075  12.507  14.018
23312SOL    HW271770  12.004  12.619  14.092
23313SOL     OW71771   7.685  13.155   0.058
23313SOL    HW171772   7.682  13.250   0.043
23313SOL    HW271773   7.699  13.145   0.152
23314SOL     OW71774   5.973   7.095   7.273
23314SOL    HW171775   6.042   7.159   7.293
23314SOL    HW271776   5.892   7.142   7.290
23315SOL     OW71777  14.526   3.877  14.786
23315SOL    HW171778  14.452   3.823  14.758
23315SOL    HW271779  14.558   3.834  14.866
23316SOL     OW71780  12.550  12.200   7.400
23316SOL    HW171781  12.567  12.139   7.472
23316SOL    HW271782  12.462  12.176   7.369
23317SOL     OW71783  14.300  12.423  12.588
23317SOL    HW171784  14.321  12.514  12.566
23317SOL    HW271785  14.354  12.371  12.528
23318SOL     OW71786   6.443  14.067   8.827
23318SOL    HW171787   6.471  14.134   8.889
23318SOL    HW271788   6.378  14.110   8.773
23319SOL     OW71789   1.306   4.069  11.322
23319SOL    HW171790   1.280   4.027  11.240
23319SOL    HW271791   1.265   4.156  11.318
23320SOL     OW71792  10.456  12.920  11.002
23320SOL    HW171793  10.445  13.009  10.968
23320SOL    HW271794  10.528  12.927  11.065
23321SOL     OW71795  10.644   2.146   2.029
23321SOL    HW171796  10.718   2.206   2.035
23321SOL    HW271797  10.601   2.169   1.947
23322SOL     OW71798  13.591  10.832   8.630
23322SOL    HW171799  13.610  10.896   8.561
23322SOL    HW271800  13.673  10.824   8.679
23323SOL     OW71801  13.559   1.574  12.368
23323SOL    HW171802  13.480   1.598  12.417
23323SOL    HW271803  13.553   1.479  12.358
23324SOL     OW71804  10.709   9.005   4.444
23324SOL    HW171805  10.637   8.949   4.471
23324SOL    HW271806  10.783   8.977   4.498
23325SOL     OW71807   6.223   8.090   3.962
23325SOL    HW171808   6.157   8.021   3.950
23325SOL    HW271809   6.299   8.044   3.997
23326SOL     OW71810   8.992   0.207   5.866
23326SOL    HW171811   8.910   0.168   5.894
23326SOL    HW271812   9.032   0.140   5.810
23327SOL     OW71813  12.467   5.554  13.273
23327SOL    HW171814  12.561   5.537  13.268
23327SOL    HW271815  12.438   5.551  13.182
23328SOL     OW71816   0.183   4.876  11.851
23328SOL    HW171817   0.201   4.938  11.921
23328SOL    HW271818   0.138   4.803  11.893
23329SOL     OW71819   9.260  12.134  11.310
23329SOL    HW171820   9.330  12.138  11.376
23329SOL    HW271821   9.305  12.120  11.227
23330SOL     OW71822   0.665   6.456  13.934
23330SOL    HW171823   0.655   6.551  13.927
23330SOL    HW271824   0.738   6.443  13.994
23331SOL     OW71825  13.831   9.083   1.926
23331SOL    HW171826  13.738   9.078   1.948
23331SOL    HW271827  13.842   9.024   1.851
23332SOL     OW71828  11.270   1.281  12.614
23332SOL    HW171829  11.314   1.241  12.690
23332SOL    HW271830  11.339   1.292  12.549
23333SOL     OW71831   9.646  11.238  13.389
23333SOL    HW171832   9.580  11.221  13.457
23333SOL    HW271833   9.650  11.334  13.383
23334SOL     OW71834   2.171  14.441  13.236
23334SOL    HW171835   2.220  14.478  13.309
23334SOL    HW271836   2.217  14.359  13.215
23335SOL     OW71837   0.202   9.226  11.058
23335SOL    HW171838   0.132   9.210  11.121
23335SOL    HW271839   0.260   9.288  11.103
23336SOL     OW71840   3.445  12.822   7.808
23336SOL    HW171841   3.442  12.909   7.849
23336SOL    HW271842   3.451  12.761   7.882
23337SOL     OW71843   5.182   6.986   7.558
23337SOL    HW171844   5.103   7.033   7.535
23337SOL    HW271845   5.214   7.027   7.638
23338SOL     OW71846   6.150   6.686   3.150
23338SOL    HW171847   6.212   6.677   3.223
23338SOL    HW271848   6.078   6.627   3.173
23339SOL     OW71849   6.042   3.789   1.150
23339SOL    HW171850   6.087   3.760   1.071
23339SOL    HW271851   5.986   3.861   1.120
23340SOL     OW71852   6.351  10.118  13.866
23340SOL    HW171853   6.427  10.144  13.813
23340SOL    HW271854   6.385  10.115  13.955
23341SOL     OW71855   1.805  14.108  14.191
23341SOL    HW171856   1.738  14.048  14.160
23341SOL    HW271857   1.760  14.193  14.199
23342SOL     OW71858  10.704  14.792   1.118
23342SOL    HW171859  10.644  14.865   1.101
23342SOL    HW271860  10.647  14.723   1.153
23343SOL     OW71861  12.824   4.803   1.760
23343SOL    HW171862  12.876   4.727   1.737
23343SOL    HW271863  12.880   4.878   1.741
23344SOL     OW71864   2.932  10.518   2.758
23344SOL    HW171865   2.858  10.468   2.724
23344SOL    HW271866   2.992  10.527   2.684
23345SOL     OW71867   4.336   4.677   7.196
23345SOL    HW171868   4.302   4.754   7.152
23345SOL    HW271869   4.359   4.616   7.125
23346SOL     OW71870   8.821  13.957   7.615
23346SOL    HW171871   8.912  13.964   7.585
23346SOL    HW271872   8.807  14.037   7.666
23347SOL     OW71873   3.858   0.555   7.232
23347SOL    HW171874   3.925   0.529   7.169
23347SOL    HW271875   3.797   0.608   7.181
23348SOL     OW71876  10.482   0.806   8.440
23348SOL    HW171877  10.566   0.796   8.395
23348SOL    HW271878  10.428   0.856   8.379
23349SOL     OW71879  12.140   2.639   6.665
23349SOL    HW171880  12.181   2.717   6.627
23349SOL    HW271881  12.214   2.581   6.684
23350SOL     OW71882   0.746   5.333  14.637
23350SOL    HW171883   0.758   5.422  14.604
23350SOL    HW271884   0.737   5.344  14.732
23351SOL     OW71885   1.165  12.111   2.895
23351SOL    HW171886   1.196  12.025   2.923
23351SOL    HW271887   1.082  12.094   2.850
23352SOL     OW71888   8.575   0.694   9.722
23352SOL    HW171889   8.595   0.626   9.786
23352SOL    HW271890   8.658   0.710   9.677
23353SOL     OW71891   7.257   7.269   7.323
23353SOL    HW171892   7.265   7.317   7.405
23353SOL    HW271893   7.197   7.322   7.271
23354SOL     OW71894   3.332  11.186   6.924
23354SOL    HW171895   3.392  11.213   6.994
23354SOL    HW271896   3.390  11.155   6.855
23355SOL     OW71897   1.953  13.276  13.461
23355SOL    HW171898   1.876  13.233  13.424
23355SOL    HW271899   2.007  13.205  13.494
23356SOL     OW71900   1.684   8.691   8.875
23356SOL    HW171901   1.632   8.740   8.938
23356SOL    HW271902   1.734   8.629   8.928
23357SOL     OW71903   3.424   9.812   5.345
23357SOL    HW171904   3.351   9.873   5.349
23357SOL    HW271905   3.384   9.726   5.336
23358SOL     OW71906   6.466   2.454   9.889
23358SOL    HW171907   6.472   2.497   9.975
23358SOL    HW271908   6.528   2.382   9.895
23359SOL     OW71909  13.620   8.664   8.854
23359SOL    HW171910  13.530   8.641   8.878
23359SOL    HW271911  13.613   8.699   8.765
23360SOL     OW71912   8.031   1.054  11.770
23360SOL    HW171913   7.987   1.119  11.716
23360SOL    HW271914   8.036   1.094  11.857
23361SOL     OW71915   5.393   4.794  11.621
23361SOL    HW171916   5.432   4.864  11.673
23361SOL    HW271917   5.300   4.797  11.643
23362SOL     OW71918   4.552  14.028  13.019
23362SOL    HW171919   4.489  13.959  12.998
23362SOL    HW271920   4.536  14.096  12.953
23363SOL     OW71921   1.733   9.996   1.954
23363SOL    HW171922   1.750   9.932   1.885
23363SOL    HW271923   1.646   9.973   1.987
23364SOL     OW71924  12.933  11.284   6.715
23364SOL    HW171925  12.912  11.207   6.768
23364SOL    HW271926  12.881  11.354   6.753
23365SOL     OW71927   9.321  11.084  12.659
23365SOL    HW171928   9.364  11.116  12.579
23365SOL    HW271929   9.365  11.000  12.677
23366SOL     OW71930   2.457   3.158   4.177
23366SOL    HW171931   2.511   3.087   4.145
23366SOL    HW271932   2.518   3.232   4.188
23367SOL     OW71933   8.755   0.130   1.672
23367SOL    HW171934   8.774   0.085   1.754
23367SOL    HW271935   8.672   0.092   1.642
23368SOL     OW71936  13.425   0.251   1.825
23368SOL    HW171937  13.386   0.295   1.901
23368SOL    HW271938  13.462   0.170   1.860
23369SOL     OW71939  10.648   3.691   6.944
23369SOL    HW171940  10.609   3.616   6.900
23369SOL    HW271941  10.677   3.658   7.029
23370SOL     OW71942   0.655   4.672  10.770
23370SOL    HW171943   0.740   4.631  10.788
23370SOL    HW271944   0.625   4.703  10.856
23371SOL     OW71945  13.889  12.664  13.818
23371SOL    HW171946  13.848  12.746  13.845
23371SOL    HW271947  13.819  12.599  13.824
23372SOL     OW71948   6.973   5.902  14.770
23372SOL    HW171949   6.943   5.993  14.766
23372SOL    HW271950   7.068   5.908  14.768
23373SOL     OW71951   6.292   3.663   1.209
23373SOL    HW171952   6.277   3.570   1.226
23373SOL    HW271953   6.212   3.706   1.239
23374SOL     OW71954  13.523   2.561   9.471
23374SOL    HW171955  13.532   2.568   9.376
23374SOL    HW271956  13.612   2.544   9.502
23375SOL     OW71957   5.650   3.163  14.820
23375SOL    HW171958   5.639   3.254  14.793
23375SOL    HW271959   5.671   3.116  14.739
23376SOL     OW71960   4.955  14.578   4.847
23376SOL    HW171961   4.905  14.564   4.767
23376SOL    HW271962   4.891  14.609   4.911
23377SOL     OW71963   4.103  11.353   9.691
23377SOL    HW171964   4.046  11.283   9.661
23377SOL    HW271965   4.099  11.420   9.623
23378SOL     OW71966   2.479   9.007   2.901
23378SOL    HW171967   2.414   9.067   2.937
23378SOL    HW271968   2.477   8.931   2.959
23379SOL     OW71969   7.671   9.587   5.069
23379SOL    HW171970   7.581   9.615   5.090
23379SOL    HW271971   7.672   9.494   5.090
23380SOL     OW71972   0.938   5.209   8.131
23380SOL    HW171973   0.924   5.132   8.186
23380SOL    HW271974   0.874   5.200   8.061
23381SOL     OW71975  14.793   9.421   9.819
23381SOL    HW171976  14.740   9.341   9.809
23381SOL    HW271977  14.729   9.490   9.833
23382SOL     OW71978   5.431  13.841   9.162
23382SOL    HW171979   5.343  13.810   9.140
23382SOL    HW271980   5.427  13.857   9.256
23383SOL     OW71981  10.428   7.288  10.778
23383SOL    HW171982  10.447   7.320  10.867
23383SOL    HW271983  10.495   7.223  10.761
23384SOL     OW71984  13.663  10.228   9.829
23384SOL    HW171985  13.587  10.286   9.838
23384SOL    HW271986  13.710  10.235   9.911
23385SOL     OW71987   1.746   2.905   9.083
23385SOL    HW171988   1.655   2.933   9.072
23385SOL    HW271989   1.767   2.857   9.003
23386SOL     OW71990  13.810   3.242   6.967
23386SOL    HW171991  13.879   3.283   7.018
23386SOL    HW271992  13.763   3.186   7.029
23387SOL     OW71993  11.848   0.822   3.159
23387SOL    HW171994  11.856   0.918   3.156
23387SOL    HW271995  11.938   0.790   3.151
23388SOL     OW71996  10.081   2.315   9.989
23388SOL    HW171997  10.026   2.375  10.039
23388SOL    HW271998  10.037   2.307   9.905
23389SOL     OW71999   4.741  14.777  11.041
23389SOL    HW172000   4.754  14.820  10.956
23389SOL    HW272001   4.664  14.723  11.028
23390SOL     OW72002   7.440   7.986   6.237
23390SOL    HW172003   7.350   8.018   6.237
23390SOL    HW272004   7.457   7.964   6.329
23391SOL     OW72005  14.401   7.300   7.445
23391SOL    HW172006  14.399   7.291   7.540
23391SOL    HW272007  14.462   7.232   7.416
23392SOL     OW72008  14.321   8.016   5.096
23392SOL    HW172009  14.291   8.106   5.101
23392SOL    HW272010  14.271   7.978   5.024
23393SOL     OW72011   5.851   4.123   6.775
23393SOL    HW172012   5.812   4.063   6.711
23393SOL    HW272013   5.826   4.087   6.860
23394SOL     OW72014   2.030   9.342  14.657
23394SOL    HW172015   2.057   9.343  14.749
23394SOL    HW272016   1.937   9.361  14.658
23395SOL     OW72017   4.099   5.780   8.948
23395SOL    HW172018   4.018   5.832   8.943
23395SOL    HW272019   4.163   5.831   8.899
23396SOL     OW72020   1.823   0.631  11.508
23396SOL    HW172021   1.751   0.667  11.560
23396SOL    HW272022   1.902   0.656  11.556
23397SOL     OW72023   8.572   6.083  14.356
23397SOL    HW172024   8.519   6.110  14.431
23397SOL    HW272025   8.609   6.165  14.322
23398SOL     OW72026  11.280  12.845  10.849
23398SOL    HW172027  11.357  12.803  10.888
23398SOL    HW272028  11.258  12.915  10.911
23399SOL     OW72029   7.060   4.841   5.552
23399SOL    HW172030   7.146   4.808   5.580
23399SOL    HW272031   7.040   4.910   5.614
23400SOL     OW72032   0.627   6.743   9.053
23400SOL    HW172033   0.708   6.749   9.103
23400SOL    HW272034   0.623   6.651   9.024
23401SOL     OW72035  11.972  13.978   4.133
23401SOL    HW172036  12.029  13.971   4.209
23401SOL    HW272037  11.909  14.046   4.156
23402SOL     OW72038   6.304   8.313   8.829
23402SOL    HW172039   6.273   8.396   8.793
23402SOL    HW272040   6.265   8.246   8.773
23403SOL     OW72041   3.569   6.640  13.130
23403SOL    HW172042   3.550   6.644  13.036
23403SOL    HW272043   3.600   6.728  13.151
23404SOL     OW72044   8.572   9.563   3.317
23404SOL    HW172045   8.505   9.520   3.369
23404SOL    HW272046   8.540   9.556   3.227
23405SOL     OW72047  13.827   7.944  14.703
23405SOL    HW172048  13.843   8.021  14.649
23405SOL    HW272049  13.892   7.949  14.772
23406SOL     OW72050  11.299  11.654  12.399
23406SOL    HW172051  11.392  11.660  12.421
23406SOL    HW272052  11.262  11.738  12.426
23407SOL     OW72053  13.627  14.643   3.384
23407SOL    HW172054  13.635  14.738   3.395
23407SOL    HW272055  13.565  14.617   3.453
23408SOL     OW72056   9.324   8.717  14.090
23408SOL    HW172057   9.262   8.655  14.051
23408SOL    HW272058   9.297   8.722  14.182
23409SOL     OW72059   4.016   3.580  12.180
23409SOL    HW172060   3.979   3.658  12.139
23409SOL    HW272061   3.995   3.509  12.119
23410SOL     OW72062  11.207   4.289   7.308
23410SOL    HW172063  11.286   4.256   7.265
23410SOL    HW272064  11.137   4.232   7.275
23411SOL     OW72065   8.986   1.985  12.970
23411SOL    HW172066   8.909   2.022  13.013
23411SOL    HW272067   8.991   1.895  13.003
23412SOL     OW72068   8.505  14.659  12.815
23412SOL    HW172069   8.582  14.628  12.768
23412SOL    HW272070   8.438  14.668  12.747
23413SOL     OW72071   9.783  11.856   9.932
23413SOL    HW172072   9.724  11.896   9.997
23413SOL    HW272073   9.754  11.766   9.925
23414SOL     OW72074   0.052  12.106  12.746
23414SOL    HW172075   0.135  12.136  12.709
23414SOL    HW272076   0.048  12.147  12.832
23415SOL     OW72077   3.705   7.757   3.825
23415SOL    HW172078   3.646   7.808   3.880
23415SOL    HW272079   3.767   7.822   3.791
23416SOL     OW72080  14.519   6.736  10.157
23416SOL    HW172081  14.481   6.804  10.212
23416SOL    HW272082  14.614   6.744  10.170
23417SOL     OW72083   1.561  11.262  14.613
23417SOL    HW172084   1.565  11.187  14.673
23417SOL    HW272085   1.593  11.227  14.530
23418SOL     OW72086  10.659  13.383   4.558
23418SOL    HW172087  10.655  13.320   4.629
23418SOL    HW272088  10.578  13.433   4.565
23419SOL     OW72089   3.970   9.857   9.362
23419SOL    HW172090   3.901   9.863   9.296
23419SOL    HW272091   4.014   9.774   9.343
23420SOL     OW72092   1.247   7.824   8.083
23420SOL    HW172093   1.236   7.919   8.083
23420SOL    HW272094   1.203   7.795   8.163
23421SOL     OW72095  11.554   3.085   4.961
23421SOL    HW172096  11.619   3.095   4.892
23421SOL    HW272097  11.472   3.069   4.914
23422SOL     OW72098  11.778   8.361   0.815
23422SOL    HW172099  11.863   8.398   0.790
23422SOL    HW272100  11.742   8.424   0.877
23423SOL     OW72101   9.688   1.694  13.497
23423SOL    HW172102   9.598   1.661  13.503
23423SOL    HW272103   9.726   1.646  13.424
23424SOL     OW72104  11.899   9.290   7.297
23424SOL    HW172105  11.929   9.357   7.359
23424SOL    HW272106  11.976   9.237   7.280
23425SOL     OW72107   3.648   1.646  10.798
23425SOL    HW172108   3.710   1.574  10.807
23425SOL    HW272109   3.702   1.725  10.808
23426SOL     OW72110   4.808   0.950  13.777
23426SOL    HW172111   4.798   1.042  13.799
23426SOL    HW272112   4.888   0.946  13.725
23427SOL     OW72113  11.481  10.765  10.647
23427SOL    HW172114  11.465  10.787  10.555
23427SOL    HW272115  11.396  10.735  10.679
23428SOL     OW72116   7.780   6.379  12.666
23428SOL    HW172117   7.829   6.449  12.623
23428SOL    HW272118   7.697   6.420  12.691
23429SOL     OW72119   1.880   0.804   4.961
23429SOL    HW172120   1.803   0.829   5.012
23429SOL    HW272121   1.852   0.812   4.869
23430SOL     OW72122  13.934   8.467   3.352
23430SOL    HW172123  13.841   8.487   3.364
23430SOL    HW272124  13.976   8.552   3.342
23431SOL     OW72125   7.256  11.353   4.839
23431SOL    HW172126   7.305  11.434   4.824
23431SOL    HW272127   7.165  11.382   4.845
23432SOL     OW72128  12.707  11.858   0.073
23432SOL    HW172129  12.683  11.930   0.132
23432SOL    HW272130  12.780  11.814   0.117
23433SOL     OW72131   3.294  10.373   0.338
23433SOL    HW172132   3.354  10.310   0.378
23433SOL    HW272133   3.330  10.388   0.250
23434SOL     OW72134   5.210  14.011   6.429
23434SOL    HW172135   5.137  14.050   6.477
23434SOL    HW272136   5.174  13.929   6.395
23435SOL     OW72137  10.049   0.757   3.256
23435SOL    HW172138   9.996   0.824   3.299
23435SOL    HW272139   9.987   0.703   3.208
23436SOL     OW72140   8.136   3.664   7.485
23436SOL    HW172141   8.194   3.614   7.542
23436SOL    HW272142   8.096   3.598   7.428
23437SOL     OW72143   9.037  11.296   9.851
23437SOL    HW172144   8.962  11.252   9.811
23437SOL    HW272145   9.113  11.260   9.804
23438SOL     OW72146  12.916   0.348   0.873
23438SOL    HW172147  13.002   0.376   0.903
23438SOL    HW272148  12.901   0.264   0.915
23439SOL     OW72149  10.732  10.750  11.691
23439SOL    HW172150  10.743  10.775  11.783
23439SOL    HW272151  10.690  10.826  11.651
23440SOL     OW72152   0.168  11.011   2.496
23440SOL    HW172153   0.105  11.034   2.428
23440SOL    HW272154   0.167  10.915   2.499
23441SOL     OW72155   6.257   4.970  14.572
23441SOL    HW172156   6.187   5.034  14.582
23441SOL    HW272157   6.249   4.913  14.648
23442SOL     OW72158  12.607  12.065   5.872
23442SOL    HW172159  12.557  11.989   5.843
23442SOL    HW272160  12.601  12.063   5.968
23443SOL     OW72161   1.052   9.419   9.864
23443SOL    HW172162   1.006   9.359   9.805
23443SOL    HW272163   1.114   9.363   9.911
23444SOL     OW72164   0.539   8.980   9.593
23444SOL    HW172165   0.444   8.986   9.596
23444SOL    HW272166   0.557   8.896   9.552
23445SOL     OW72167   6.767   8.663   0.440
23445SOL    HW172168   6.833   8.597   0.463
23445SOL    HW272169   6.768   8.666   0.344
23446SOL     OW72170   2.395  10.376   1.481
23446SOL    HW172171   2.398  10.348   1.389
23446SOL    HW272172   2.476  10.342   1.519
23447SOL     OW72173   1.263   1.517   2.669
23447SOL    HW172174   1.246   1.469   2.750
23447SOL    HW272175   1.247   1.454   2.599
23448SOL     OW72176   8.403  12.878  14.642
23448SOL    HW172177   8.427  12.787  14.662
23448SOL    HW272178   8.347  12.872  14.564
23449SOL     OW72179   7.159   3.073   3.156
23449SOL    HW172180   7.136   3.131   3.228
23449SOL    HW272181   7.239   3.029   3.186
23450SOL     OW72182  10.339   7.963   4.878
23450SOL    HW172183  10.303   8.030   4.936
23450SOL    HW272184  10.329   7.882   4.926
23451SOL     OW72185  10.660   8.377   9.498
23451SOL    HW172186  10.744   8.348   9.535
23451SOL    HW272187  10.683   8.414   9.412
23452SOL     OW72188   0.656   2.732  11.277
23452SOL    HW172189   0.720   2.666  11.249
23452SOL    HW272190   0.694   2.815  11.248
23453SOL     OW72191   7.114   3.240   7.114
23453SOL    HW172192   7.020   3.229   7.127
23453SOL    HW272193   7.123   3.329   7.080
23454SOL     OW72194   7.122  14.713   5.900
23454SOL    HW172195   7.060  14.778   5.934
23454SOL    HW272196   7.195  14.765   5.866
23455SOL     OW72197   2.864   0.286  14.128
23455SOL    HW172198   2.799   0.293  14.058
23455SOL    HW272199   2.836   0.352  14.192
23456SOL     OW72200   4.301   8.547   8.765
23456SOL    HW172201   4.359   8.543   8.689
23456SOL    HW272202   4.259   8.633   8.759
23457SOL     OW72203   8.870  14.696   8.281
23457SOL    HW172204   8.811  14.721   8.210
23457SOL    HW272205   8.953  14.739   8.259
23458SOL     OW72206   2.121   4.882   2.320
23458SOL    HW172207   2.075   4.799   2.334
23458SOL    HW272208   2.105   4.932   2.400
23459SOL     OW72209   3.929   9.813   2.059
23459SOL    HW172210   4.001   9.848   2.007
23459SOL    HW272211   3.902   9.885   2.116
23460SOL     OW72212  12.309   7.195   6.060
23460SOL    HW172213  12.303   7.287   6.087
23460SOL    HW272214  12.352   7.198   5.974
23461SOL     OW72215   0.105   4.543  13.912
23461SOL    HW172216   0.076   4.632  13.934
23461SOL    HW272217   0.075   4.489  13.985
23462SOL     OW72218   9.391   2.707  11.926
23462SOL    HW172219   9.486   2.717  11.918
23462SOL    HW272220   9.356   2.790  11.893
23463SOL     OW72221   9.470   5.612   8.541
23463SOL    HW172222   9.419   5.613   8.460
23463SOL    HW272223   9.417   5.560   8.601
23464SOL     OW72224  13.520  10.376  14.029
23464SOL    HW172225  13.439  10.353  13.985
23464SOL    HW272226  13.527  10.313  14.101
23465SOL     OW72227   8.898  13.873   9.086
23465SOL    HW172228   8.870  13.853   8.996
23465SOL    HW272229   8.933  13.962   9.081
23466SOL     OW72230   1.782   5.610  10.683
23466SOL    HW172231   1.696   5.574  10.705
23466SOL    HW272232   1.842   5.537  10.695
23467SOL     OW72233   5.363  10.204   9.541
23467SOL    HW172234   5.270  10.229   9.540
23467SOL    HW272235   5.362  10.112   9.569
23468SOL     OW72236   0.205  10.717   2.430
23468SOL    HW172237   0.212  10.639   2.485
23468SOL    HW272238   0.122  10.708   2.384
23469SOL     OW72239   1.868   3.467   0.877
23469SOL    HW172240   1.880   3.562   0.886
23469SOL    HW272241   1.897   3.447   0.788
23470SOL     OW72242   2.212  14.444  12.217
23470SOL    HW172243   2.169  14.530  12.219
23470SOL    HW272244   2.140  14.381  12.227
23471SOL     OW72245   7.410  14.270  13.943
23471SOL    HW172246   7.410  14.266  14.039
23471SOL    HW272247   7.318  14.287  13.920
23472SOL     OW72248  12.211   6.719  12.884
23472SOL    HW172249  12.183   6.800  12.928
23472SOL    HW272250  12.136   6.661  12.893
23473SOL     OW72251   4.274  13.197  12.844
23473SOL    HW172252   4.198  13.194  12.787
23473SOL    HW272253   4.314  13.282  12.827
23474SOL     OW72254  13.444   0.261   3.761
23474SOL    HW172255  13.522   0.214   3.789
23474SOL    HW272256  13.462   0.352   3.782
23475SOL     OW72257   7.690   8.016   0.345
23475SOL    HW172258   7.640   8.096   0.325
23475SOL    HW272259   7.625   7.954   0.377
23476SOL     OW72260   4.380  14.449   0.687
23476SOL    HW172261   4.436  14.437   0.764
23476SOL    HW272262   4.346  14.361   0.668
23477SOL     OW72263  14.689  14.079  14.486
23477SOL    HW172264  14.697  14.161  14.436
23477SOL    HW272265  14.700  14.106  14.577
23478SOL     OW72266   8.258   4.507   1.126
23478SOL    HW172267   8.233   4.594   1.157
23478SOL    HW272268   8.178   4.455   1.133
23479SOL     OW72269  12.226   9.214   1.209
23479SOL    HW172270  12.152   9.275   1.202
23479SOL    HW272271  12.267   9.217   1.123
23480SOL     OW72272   9.693   3.181   6.145
23480SOL    HW172273   9.728   3.120   6.210
23480SOL    HW272274   9.760   3.185   6.077
23481SOL     OW72275   1.356   9.937  13.095
23481SOL    HW172276   1.439   9.925  13.050
23481SOL    HW272277   1.309   9.855  13.081
23482SOL     OW72278   0.691   7.906  12.993
23482SOL    HW172279   0.770   7.924  12.943
23482SOL    HW272280   0.646   7.990  12.998
23483SOL     OW72281   2.567  12.606   5.367
23483SOL    HW172282   2.597  12.515   5.371
23483SOL    HW272283   2.480  12.604   5.408
23484SOL     OW72284  14.515   2.611   7.855
23484SOL    HW172285  14.439   2.628   7.799
23484SOL    HW272286  14.482   2.623   7.944
23485SOL     OW72287   2.196   4.557   5.964
23485SOL    HW172288   2.239   4.598   5.888
23485SOL    HW272289   2.232   4.469   5.968
23486SOL     OW72290   2.683  14.692  13.257
23486SOL    HW172291   2.682  14.722  13.348
23486SOL    HW272292   2.677  14.596  13.264
23487SOL     OW72293   5.974   2.207   6.748
23487SOL    HW172294   5.982   2.290   6.702
23487SOL    HW272295   5.905   2.221   6.813
23488SOL     OW72296   6.258   0.195   1.093
23488SOL    HW172297   6.323   0.223   1.157
23488SOL    HW272298   6.279   0.103   1.077
23489SOL     OW72299  10.641  12.691   5.027
23489SOL    HW172300  10.596  12.709   5.110
23489SOL    HW272301  10.727  12.733   5.037
23490SOL     OW72302  10.727   4.846   7.694
23490SOL    HW172303  10.740   4.796   7.774
23490SOL    HW272304  10.637   4.876   7.699
23491SOL     OW72305   8.152   8.503   2.893
23491SOL    HW172306   8.132   8.418   2.852
23491SOL    HW272307   8.076   8.521   2.948
23492SOL     OW72308   2.177   0.128  13.910
23492SOL    HW172309   2.111   0.196  13.921
23492SOL    HW272310   2.230   0.159  13.836
23493SOL     OW72311   4.352   2.841   9.944
23493SOL    HW172312   4.262   2.811   9.929
23493SOL    HW272313   4.388   2.778  10.007
23494SOL     OW72314   0.915   3.424   8.385
23494SOL    HW172315   0.924   3.502   8.331
23494SOL    HW272316   0.830   3.388   8.363
23495SOL     OW72317  14.727   7.754   2.269
23495SOL    HW172318  14.804   7.775   2.321
23495SOL    HW272319  14.760   7.699   2.198
23496SOL     OW72320   6.409   3.190  10.181
23496SOL    HW172321   6.391   3.097  10.195
23496SOL    HW272322   6.341   3.219  10.120
23497SOL     OW72323  14.228  11.866   0.663
23497SOL    HW172324  14.254  11.936   0.604
23497SOL    HW272325  14.226  11.907   0.750
23498SOL     OW72326  14.077   3.084   9.994
23498SOL    HW172327  13.983   3.073  10.009
23498SOL    HW272328  14.115   3.087  10.082
23499SOL     OW72329   1.846   5.001  13.282
23499SOL    HW172330   1.843   4.923  13.227
23499SOL    HW272331   1.818   5.072  13.225
23500SOL     OW72332   1.120   3.182   4.170
23500SOL    HW172333   1.090   3.099   4.208
23500SOL    HW272334   1.054   3.204   4.105
23501SOL     OW72335   5.151   3.892   3.079
23501SOL    HW172336   5.183   3.943   3.005
23501SOL    HW272337   5.229   3.875   3.132
23502SOL     OW72338  13.032   5.801  13.989
23502SOL    HW172339  12.948   5.792  14.034
23502SOL    HW272340  13.089   5.737  14.033
23503SOL     OW72341   6.440   5.937   4.648
23503SOL    HW172342   6.352   5.942   4.612
23503SOL    HW272343   6.496   5.969   4.577
23504SOL     OW72344   0.619   4.198   2.625
23504SOL    HW172345   0.577   4.119   2.661
23504SOL    HW272346   0.645   4.248   2.702
23505SOL     OW72347   3.508   9.426   0.248
23505SOL    HW172348   3.452   9.415   0.326
23505SOL    HW272349   3.560   9.504   0.267
23506SOL     OW72350  13.957   2.223   5.932
23506SOL    HW172351  13.975   2.251   6.022
23506SOL    HW272352  14.011   2.281   5.878
23507SOL     OW72353   6.576  14.581   4.603
23507SOL    HW172354   6.505  14.519   4.588
23507SOL    HW272355   6.571  14.602   4.696
23508SOL     OW72356   3.533   7.309   2.154
23508SOL    HW172357   3.454   7.351   2.189
23508SOL    HW272358   3.522   7.217   2.175
23509SOL     OW72359   8.001   1.294  13.805
23509SOL    HW172360   8.056   1.301  13.883
23509SOL    HW272361   8.053   1.335  13.735
23510SOL     OW72362   7.773   1.703  11.246
23510SOL    HW172363   7.817   1.637  11.193
23510SOL    HW272364   7.681   1.675  11.249
23511SOL     OW72365   9.858   7.714  14.296
23511SOL    HW172366   9.909   7.746  14.222
23511SOL    HW272367   9.865   7.783  14.362
23512SOL     OW72368   6.610   3.426   7.407
23512SOL    HW172369   6.656   3.371   7.470
23512SOL    HW272370   6.626   3.515   7.437
23513SOL     OW72371   1.675   3.524   5.783
23513SOL    HW172372   1.634   3.597   5.737
23513SOL    HW272373   1.755   3.506   5.734
23514SOL     OW72374  12.813   4.692  12.805
23514SOL    HW172375  12.782   4.764  12.750
23514SOL    HW272376  12.772   4.708  12.890
23515SOL     OW72377   1.986  10.587  14.479
23515SOL    HW172378   2.068  10.552  14.513
23515SOL    HW272379   1.963  10.529  14.406
23516SOL     OW72380   8.676   8.183   4.301
23516SOL    HW172381   8.702   8.192   4.393
23516SOL    HW272382   8.657   8.090   4.290
23517SOL     OW72383   5.825   4.454   9.691
23517SOL    HW172384   5.848   4.451   9.598
23517SOL    HW272385   5.792   4.543   9.704
23518SOL     OW72386   6.526   4.944   0.479
23518SOL    HW172387   6.453   4.958   0.418
23518SOL    HW272388   6.595   5.003   0.446
23519SOL     OW72389   5.542  12.012   9.383
23519SOL    HW172390   5.575  12.099   9.360
23519SOL    HW272391   5.468  12.029   9.440
23520SOL     OW72392   2.192  11.592   6.647
23520SOL    HW172393   2.254  11.580   6.718
23520SOL    HW272394   2.125  11.525   6.660
23521SOL     OW72395   1.730   5.892   4.728
23521SOL    HW172396   1.713   5.911   4.821
23521SOL    HW272397   1.662   5.829   4.705
23522SOL     OW72398   0.752   7.326  11.628
23522SOL    HW172399   0.771   7.375  11.708
23522SOL    HW272400   0.834   7.326  11.579
23523SOL     OW72401   4.158   2.700   7.910
23523SOL    HW172402   4.181   2.724   7.820
23523SOL    HW272403   4.230   2.646   7.940
23524SOL     OW72404   5.480  11.217   1.903
23524SOL    HW172405   5.430  11.258   1.974
23524SOL    HW272406   5.437  11.133   1.888
23525SOL     OW72407   7.631   5.600   4.390
23525SOL    HW172408   7.605   5.520   4.436
23525SOL    HW272409   7.712   5.628   4.434
23526SOL     OW72410   8.270  13.342   0.026
23526SOL    HW172411   8.314  13.277  14.844
23526SOL    HW272412   8.193  13.297   0.059
23527SOL     OW72413   8.455  13.905   6.750
23527SOL    HW172414   8.432  13.840   6.684
23527SOL    HW272415   8.402  13.982   6.729
23528SOL     OW72416  11.375  11.460  10.786
23528SOL    HW172417  11.329  11.434  10.866
23528SOL    HW272418  11.463  11.424  10.795
23529SOL     OW72419   4.664   4.292   3.839
23529SOL    HW172420   4.586   4.257   3.795
23529SOL    HW272421   4.638   4.380   3.867
23530SOL     OW72422   1.549  12.021   8.540
23530SOL    HW172423   1.541  12.091   8.475
23530SOL    HW272424   1.634  12.036   8.581
23531SOL     OW72425   2.245  11.406   0.801
23531SOL    HW172426   2.159  11.381   0.834
23531SOL    HW272427   2.296  11.326   0.805
23532SOL     OW72428   3.394   6.542   9.067
23532SOL    HW172429   3.367   6.450   9.064
23532SOL    HW272430   3.401   6.561   9.161
23533SOL     OW72431   5.905  12.808   3.747
23533SOL    HW172432   5.998  12.829   3.736
23533SOL    HW272433   5.879  12.768   3.664
23534SOL     OW72434  14.760  13.311  13.348
23534SOL    HW172435  14.841  13.360  13.364
23534SOL    HW272436  14.696  13.379  13.327
23535SOL     OW72437  12.168  11.088   3.257
23535SOL    HW172438  12.184  11.147   3.330
23535SOL    HW272439  12.214  11.128   3.183
23536SOL     OW72440   8.998   6.795   2.155
23536SOL    HW172441   9.029   6.873   2.200
23536SOL    HW272442   9.007   6.725   2.219
23537SOL     OW72443   1.174  12.808  11.914
23537SOL    HW172444   1.148  12.883  11.860
23537SOL    HW272445   1.100  12.749  11.910
23538SOL     OW72446  14.273   3.983  13.600
23538SOL    HW172447  14.273   4.041  13.676
23538SOL    HW272448  14.199   4.012  13.547
23539SOL     OW72449   5.362   1.600   3.344
23539SOL    HW172450   5.395   1.511   3.355
23539SOL    HW272451   5.293   1.609   3.409
23540SOL     OW72452  11.798   2.158  11.732
23540SOL    HW172453  11.714   2.179  11.692
23540SOL    HW272454  11.852   2.235  11.717
23541SOL     OW72455   4.266  13.662   1.389
23541SOL    HW172456   4.210  13.584   1.392
23541SOL    HW272457   4.231  13.714   1.317
23542SOL     OW72458   6.909   3.016  11.233
23542SOL    HW172459   6.872   3.074  11.299
23542SOL    HW272460   6.928   2.935  11.280
23543SOL     OW72461   0.914   5.928   1.220
23543SOL    HW172462   0.958   5.906   1.302
23543SOL    HW272463   0.848   5.859   1.209
23544SOL     OW72464  10.424   3.405  10.296
23544SOL    HW172465  10.517   3.382  10.300
23544SOL    HW272466  10.393   3.365  10.214
23545SOL     OW72467   7.823   8.662  13.759
23545SOL    HW172468   7.764   8.648  13.685
23545SOL    HW272469   7.910   8.643  13.724
23546SOL     OW72470   3.079  13.792   4.323
23546SOL    HW172471   3.148  13.726   4.326
23546SOL    HW272472   2.998  13.742   4.314
23547SOL     OW72473  11.628   4.000  11.576
23547SOL    HW172474  11.581   4.084  11.572
23547SOL    HW272475  11.613   3.961  11.490
23548SOL     OW72476  13.355   2.481   4.536
23548SOL    HW172477  13.285   2.516   4.481
23548SOL    HW272478  13.333   2.511   4.624
23549SOL     OW72479   1.310   9.597   8.040
23549SOL    HW172480   1.231   9.558   8.077
23549SOL    HW272481   1.306   9.576   7.947
23550SOL     OW72482  13.407   9.773  11.765
23550SOL    HW172483  13.412   9.820  11.682
23550SOL    HW272484  13.343   9.703  11.750
23551SOL     OW72485   5.589   5.266  14.771
23551SOL    HW172486   5.500   5.234  14.756
23551SOL    HW272487   5.646   5.197  14.738
23552SOL     OW72488   6.922   5.513   1.598
23552SOL    HW172489   7.013   5.539   1.583
23552SOL    HW272490   6.927   5.424   1.631
23553SOL     OW72491   1.984  12.268   3.648
23553SOL    HW172492   1.991  12.175   3.626
23553SOL    HW272493   2.052  12.281   3.714
23554SOL     OW72494   7.113  14.009  11.822
23554SOL    HW172495   7.036  13.965  11.859
23554SOL    HW272496   7.077  14.074  11.762
23555SOL     OW72497   6.244   3.678   7.839
23555SOL    HW172498   6.169   3.646   7.889
23555SOL    HW272499   6.232   3.773   7.837
23556SOL     OW72500   8.117   9.681  11.896
23556SOL    HW172501   8.047   9.625  11.862
23556SOL    HW272502   8.176   9.622  11.942
23557SOL     OW72503   7.294   0.657   4.375
23557SOL    HW172504   7.244   0.577   4.361
23557SOL    HW272505   7.304   0.662   4.471
23558SOL     OW72506   0.919   4.891   9.381
23558SOL    HW172507   0.982   4.820   9.377
23558SOL    HW272508   0.926   4.924   9.471
23559SOL     OW72509   3.247   3.187   3.308
23559SOL    HW172510   3.171   3.237   3.279
23559SOL    HW272511   3.298   3.170   3.229
23560SOL     OW72512  11.806  13.963   6.703
23560SOL    HW172513  11.734  13.901   6.718
23560SOL    HW272514  11.772  14.022   6.636
23561SOL     OW72515   3.049  13.375  11.637
23561SOL    HW172516   3.090  13.454  11.601
23561SOL    HW272517   3.000  13.339  11.563
23562SOL     OW72518   2.807   6.505   0.929
23562SOL    HW172519   2.790   6.411   0.922
23562SOL    HW272520   2.724   6.547   0.904
23563SOL     OW72521  14.247   1.574   9.236
23563SOL    HW172522  14.279   1.664   9.230
23563SOL    HW272523  14.154   1.582   9.257
23564SOL     OW72524  13.466   3.484   9.761
23564SOL    HW172525  13.387   3.436   9.787
23564SOL    HW272526  13.537   3.422   9.775
23565SOL     OW72527   0.556   0.512   3.456
23565SOL    HW172528   0.606   0.578   3.408
23565SOL    HW272529   0.470   0.511   3.414
23566SOL     OW72530  10.967   5.562   2.596
23566SOL    HW172531  10.971   5.473   2.632
23566SOL    HW272532  11.051   5.601   2.622
23567SOL     OW72533   7.000   0.755  14.866
23567SOL    HW172534   6.940   0.681  14.857
23567SOL    HW272535   7.036   0.768  14.779
23568SOL     OW72536   3.785  12.812   2.853
23568SOL    HW172537   3.878  12.827   2.832
23568SOL    HW272538   3.765  12.727   2.812
23569SOL     OW72539   0.008  14.149   4.813
23569SOL    HW172540   0.048  14.165   4.898
23569SOL    HW272541  14.858  14.056   4.814
23570SOL     OW72542   1.716   9.975   3.807
23570SOL    HW172543   1.716   9.908   3.874
23570SOL    HW272544   1.785  10.036   3.834
23571SOL     OW72545  11.804   2.010   0.625
23571SOL    HW172546  11.762   2.066   0.690
23571SOL    HW272547  11.889   2.051   0.609
23572SOL     OW72548   3.560   4.082   2.966
23572SOL    HW172549   3.586   4.146   2.899
23572SOL    HW272550   3.502   4.130   3.024
23573SOL     OW72551  12.870  10.399   0.451
23573SOL    HW172552  12.914  10.362   0.528
23573SOL    HW272553  12.803  10.334   0.429
23574SOL     OW72554   2.176   6.833   2.979
23574SOL    HW172555   2.251   6.811   2.923
23574SOL    HW272556   2.194   6.922   3.009
23575SOL     OW72557   7.860   4.052   8.323
23575SOL    HW172558   7.938   4.081   8.276
23575SOL    HW272559   7.797   4.029   8.254
23576SOL     OW72560   0.438   6.777   2.772
23576SOL    HW172561   0.392   6.847   2.820
23576SOL    HW272562   0.495   6.824   2.710
23577SOL     OW72563   0.550   2.497   5.171
23577SOL    HW172564   0.603   2.464   5.243
23577SOL    HW272565   0.461   2.502   5.207
23578SOL     OW72566   3.264   1.690   1.183
23578SOL    HW172567   3.291   1.605   1.217
23578SOL    HW272568   3.191   1.716   1.240
23579SOL     OW72569   6.125   4.639   2.037
23579SOL    HW172570   6.141   4.667   2.128
23579SOL    HW272571   6.179   4.697   1.985
23580SOL     OW72572   9.103   6.659   7.090
23580SOL    HW172573   9.080   6.664   6.997
23580SOL    HW272574   9.178   6.600   7.094
23581SOL     OW72575  14.080   8.905   9.283
23581SOL    HW172576  14.126   8.913   9.367
23581SOL    HW272577  14.128   8.964   9.224
23582SOL     OW72578  11.293   4.046  11.590
23582SOL    HW172579  11.252   3.976  11.538
23582SOL    HW272580  11.224   4.112  11.600
23583SOL     OW72581   9.395   7.935  10.239
23583SOL    HW172582   9.362   7.942  10.328
23583SOL    HW272583   9.386   7.843  10.216
23584SOL     OW72584   3.893   1.407   8.608
23584SOL    HW172585   3.884   1.464   8.532
23584SOL    HW272586   3.803   1.381   8.629
23585SOL     OW72587   0.974   0.483   1.568
23585SOL    HW172588   0.896   0.435   1.599
23585SOL    HW272589   1.021   0.419   1.514
23586SOL     OW72590  11.739   1.282   8.771
23586SOL    HW172591  11.777   1.364   8.804
23586SOL    HW272592  11.644   1.297   8.776
23587SOL     OW72593   0.724  11.329  14.137
23587SOL    HW172594   0.718  11.292  14.049
23587SOL    HW272595   0.781  11.405  14.128
23588SOL     OW72596  11.282  13.787  12.057
23588SOL    HW172597  11.275  13.697  12.091
23588SOL    HW272598  11.263  13.779  11.964
23589SOL     OW72599   8.536  11.969  10.842
23589SOL    HW172600   8.492  11.900  10.891
23589SOL    HW272601   8.611  11.926  10.801
23590SOL     OW72602   0.338  10.714   8.024
23590SOL    HW172603   0.287  10.633   8.028
23590SOL    HW272604   0.339  10.746   8.115
23591SOL     OW72605   6.381   4.545   2.301
23591SOL    HW172606   6.435   4.517   2.375
23591SOL    HW272607   6.298   4.572   2.342
23592SOL     OW72608   1.537   8.121   5.367
23592SOL    HW172609   1.447   8.088   5.368
23592SOL    HW272610   1.578   8.081   5.444
23593SOL     OW72611  10.512   5.788  14.568
23593SOL    HW172612  10.529   5.866  14.515
23593SOL    HW272613  10.458   5.732  14.512
23594SOL     OW72614  13.529  12.394  14.654
23594SOL    HW172615  13.557  12.410  14.563
23594SOL    HW272616  13.598  12.433  14.707
23595SOL     OW72617   1.827  14.867   3.751
23595SOL    HW172618   1.783   0.074   3.779
23595SOL    HW272619   1.836  14.815   3.830
23596SOL     OW72620   9.782   0.283   2.807
23596SOL    HW172621   9.752   0.216   2.747
23596SOL    HW272622   9.703   0.312   2.853
23597SOL     OW72623   4.739  14.108   5.927
23597SOL    HW172624   4.714  14.139   5.840
23597SOL    HW272625   4.710  14.177   5.987
23598SOL     OW72626   9.628  11.472  11.370
23598SOL    HW172627   9.597  11.454  11.459
23598SOL    HW272628   9.625  11.387  11.326
23599SOL     OW72629   7.131   3.959   7.737
23599SOL    HW172630   7.052   3.934   7.786
23599SOL    HW272631   7.113   4.048   7.707
23600SOL     OW72632  13.481  13.133   7.807
23600SOL    HW172633  13.535  13.154   7.730
23600SOL    HW272634  13.539  13.149   7.882
23601SOL     OW72635   9.703  12.611   5.574
23601SOL    HW172636   9.677  12.689   5.525
23601SOL    HW272637   9.780  12.639   5.624
23602SOL     OW72638   0.455   9.581   2.898
23602SOL    HW172639   0.394   9.509   2.885
23602SOL    HW272640   0.485   9.571   2.989
23603SOL     OW72641  13.119   9.120   7.918
23603SOL    HW172642  13.171   9.133   7.839
23603SOL    HW272643  13.094   9.208   7.946
23604SOL     OW72644   5.114  12.458   4.328
23604SOL    HW172645   5.022  12.482   4.335
23604SOL    HW272646   5.158  12.509   4.396
23605SOL     OW72647  13.140   6.855   4.421
23605SOL    HW172648  13.073   6.824   4.359
23605SOL    HW272649  13.181   6.929   4.376
23606SOL     OW72650   7.868   8.401  12.587
23606SOL    HW172651   7.797   8.370  12.644
23606SOL    HW272652   7.939   8.339  12.601
23607SOL     OW72653   2.720   4.251  14.273
23607SOL    HW172654   2.633   4.225  14.305
23607SOL    HW272655   2.712   4.344  14.253
23608SOL     OW72656   7.625  12.319   9.462
23608SOL    HW172657   7.596  12.351   9.548
23608SOL    HW272658   7.721  12.320   9.467
23609SOL     OW72659  14.235   3.247  10.624
23609SOL    HW172660  14.277   3.325  10.662
23609SOL    HW272661  14.309   3.194  10.592
23610SOL     OW72662  12.172   6.386   8.756
23610SOL    HW172663  12.203   6.352   8.839
23610SOL    HW272664  12.115   6.318   8.721
23611SOL     OW72665  10.952   3.037  14.575
23611SOL    HW172666  10.934   3.000  14.661
23611SOL    HW272667  11.040   3.074  14.583
23612SOL     OW72668  13.414   9.314  12.466
23612SOL    HW172669  13.364   9.238  12.435
23612SOL    HW272670  13.392   9.383  12.404
23613SOL     OW72671   5.949  12.447   6.948
23613SOL    HW172672   5.876  12.411   6.898
23613SOL    HW272673   6.002  12.371   6.971
23614SOL     OW72674  11.107   6.138   4.404
23614SOL    HW172675  11.032   6.139   4.344
23614SOL    HW272676  11.071   6.107   4.487
23615SOL     OW72677  10.478   9.579   9.918
23615SOL    HW172678  10.415   9.524   9.964
23615SOL    HW272679  10.446   9.584   9.828
23616SOL     OW72680   9.262   0.736   0.713
23616SOL    HW172681   9.287   0.768   0.800
23616SOL    HW272682   9.181   0.783   0.693
23617SOL     OW72683   3.586   0.747   0.537
23617SOL    HW172684   3.597   0.698   0.456
23617SOL    HW272685   3.610   0.684   0.606
23618SOL     OW72686   1.141  10.606   3.699
23618SOL    HW172687   1.173  10.516   3.691
23618SOL    HW272688   1.124  10.618   3.792
23619SOL     OW72689   0.009   5.783  14.348
23619SOL    HW172690   0.072   5.761  14.280
23619SOL    HW272691  14.815   5.835  14.303
23620SOL     OW72692   3.288   6.217  13.349
23620SOL    HW172693   3.327   6.295  13.310
23620SOL    HW272694   3.201   6.212  13.310
23621SOL     OW72695   2.943  11.233  10.285
23621SOL    HW172696   2.948  11.234  10.189
23621SOL    HW272697   2.977  11.318  10.312
23622SOL     OW72698  13.804  13.141  13.275
23622SOL    HW172699  13.775  13.202  13.208
23622SOL    HW272700  13.725  13.120  13.325
23623SOL     OW72701   7.998   9.769   6.848
23623SOL    HW172702   7.966   9.679   6.855
23623SOL    HW272703   8.032   9.789   6.935
23624SOL     OW72704  13.405   1.075   6.585
23624SOL    HW172705  13.368   1.062   6.497
23624SOL    HW272706  13.418   1.169   6.591
23625SOL     OW72707   7.012   2.586  13.827
23625SOL    HW172708   6.951   2.518  13.798
23625SOL    HW272709   7.002   2.656  13.763
23626SOL     OW72710   3.426   0.866  10.268
23626SOL    HW172711   3.394   0.807  10.337
23626SOL    HW272712   3.509   0.899  10.302
23627SOL     OW72713   2.606   7.657   8.001
23627SOL    HW172714   2.512   7.657   7.984
23627SOL    HW272715   2.619   7.582   8.060
23628SOL     OW72716  10.224   6.797   7.559
23628SOL    HW172717  10.240   6.800   7.653
23628SOL    HW272718  10.211   6.704   7.539
23629SOL     OW72719   6.797   4.004   5.064
23629SOL    HW172720   6.841   4.075   5.112
23629SOL    HW272721   6.826   3.924   5.108
23630SOL     OW72722   9.415   4.330  10.369
23630SOL    HW172723   9.509   4.330  10.352
23630SOL    HW272724   9.406   4.295  10.458
23631SOL     OW72725   0.177  12.009   0.337
23631SOL    HW172726   0.181  11.913   0.335
23631SOL    HW272727   0.088  12.029   0.309
23632SOL     OW72728   3.444   0.904   2.998
23632SOL    HW172729   3.432   0.891   3.092
23632SOL    HW272730   3.378   0.848   2.957
23633SOL     OW72731   9.195  11.844  14.159
23633SOL    HW172732   9.179  11.751  14.139
23633SOL    HW272733   9.112  11.875  14.195
23634SOL     OW72734   0.738   8.759  11.484
23634SOL    HW172735   0.814   8.736  11.431
23634SOL    HW272736   0.729   8.854  11.475
23635SOL     OW72737   1.133   2.079   6.934
23635SOL    HW172738   1.152   2.124   6.852
23635SOL    HW272739   1.095   2.147   6.990
23636SOL     OW72740   6.732   3.484  10.896
23636SOL    HW172741   6.811   3.432  10.904
23636SOL    HW272742   6.742   3.531  10.813
23637SOL     OW72743   6.583   6.017   7.156
23637SOL    HW172744   6.510   6.049   7.103
23637SOL    HW272745   6.545   5.947   7.209
23638SOL     OW72746   4.933   5.483   4.150
23638SOL    HW172747   4.984   5.443   4.079
23638SOL    HW272748   4.876   5.413   4.180
23639SOL     OW72749  13.534   5.639   0.881
23639SOL    HW172750  13.616   5.609   0.921
23639SOL    HW272751  13.560   5.668   0.794
23640SOL     OW72752   0.489  13.747   7.281
23640SOL    HW172753   0.543  13.688   7.229
23640SOL    HW272754   0.550  13.811   7.317
23641SOL     OW72755   7.568   0.549   7.718
23641SOL    HW172756   7.552   0.616   7.652
23641SOL    HW272757   7.657   0.518   7.698
23642SOL     OW72758   5.104   5.106   7.694
23642SOL    HW172759   5.026   5.063   7.727
23642SOL    HW272760   5.071   5.171   7.632
23643SOL     OW72761   6.571   1.460   7.027
23643SOL    HW172762   6.660   1.486   7.000
23643SOL    HW272763   6.573   1.465   7.123
23644SOL     OW72764   9.765   9.938  14.008
23644SOL    HW172765   9.843   9.991  14.028
23644SOL    HW272766   9.759   9.940  13.912
23645SOL     OW72767   0.946   3.055  11.838
23645SOL    HW172768   1.003   2.993  11.883
23645SOL    HW272769   0.867   3.004  11.818
23646SOL     OW72770   8.521   0.158   3.793
23646SOL    HW172771   8.597   0.199   3.835
23646SOL    HW272772   8.531   0.179   3.700
23647SOL     OW72773   6.521   5.165   8.697
23647SOL    HW172774   6.593   5.125   8.746
23647SOL    HW272775   6.457   5.189   8.763
23648SOL     OW72776   6.446   4.934  11.532
23648SOL    HW172777   6.382   5.005  11.542
23648SOL    HW272778   6.501   4.941  11.610
23649SOL     OW72779   5.612   4.815   3.327
23649SOL    HW172780   5.580   4.905   3.332
23649SOL    HW272781   5.707   4.824   3.324
23650SOL     OW72782   8.733   1.974   3.454
23650SOL    HW172783   8.702   2.057   3.490
23650SOL    HW272784   8.816   1.958   3.498
23651SOL     OW72785   8.955  10.019   1.357
23651SOL    HW172786   8.967   9.935   1.401
23651SOL    HW272787   8.893  10.067   1.412
23652SOL     OW72788  13.447  12.362   7.026
23652SOL    HW172789  13.516  12.317   7.074
23652SOL    HW272790  13.420  12.433   7.084
23653SOL     OW72791  14.590   9.204   0.276
23653SOL    HW172792  14.671   9.156   0.259
23653SOL    HW272793  14.609   9.294   0.252
23654SOL     OW72794  13.759  14.749   1.050
23654SOL    HW172795  13.830  14.745   0.987
23654SOL    HW272796  13.691  14.801   1.007
23655SOL     OW72797   9.777  10.666   5.999
23655SOL    HW172798   9.838  10.663   5.924
23655SOL    HW272799   9.700  10.618   5.970
23656SOL     OW72800   9.912  10.003  11.293
23656SOL    HW172801   9.840  10.066  11.287
23656SOL    HW272802   9.878   9.922  11.255
23657SOL     OW72803   1.319   6.479   9.526
23657SOL    HW172804   1.354   6.553   9.576
23657SOL    HW272805   1.392   6.417   9.521
23658SOL     OW72806   2.832   0.120   4.391
23658SOL    HW172807   2.819   0.206   4.432
23658SOL    HW272808   2.901   0.135   4.327
23659SOL     OW72809   3.651  14.125  11.928
23659SOL    HW172810   3.653  14.152  11.836
23659SOL    HW272811   3.578  14.175  11.966
23660SOL     OW72812   5.181  13.856  12.910
23660SOL    HW172813   5.230  13.780  12.943
23660SOL    HW272814   5.099  13.855  12.959
23661SOL     OW72815   9.040   0.675  10.661
23661SOL    HW172816   9.025   0.663  10.754
23661SOL    HW272817   8.964   0.633  10.619
23662SOL     OW72818  11.834   5.121   3.899
23662SOL    HW172819  11.874   5.134   3.813
23662SOL    HW272820  11.862   5.033   3.925
23663SOL     OW72821   1.467  14.577   3.741
23663SOL    HW172822   1.513  14.558   3.822
23663SOL    HW272823   1.533  14.568   3.672
23664SOL     OW72824   4.896   6.550   1.930
23664SOL    HW172825   4.906   6.592   2.015
23664SOL    HW272826   4.854   6.616   1.875
23665SOL     OW72827   1.713   3.177   9.292
23665SOL    HW172828   1.709   3.090   9.251
23665SOL    HW272829   1.691   3.161   9.383
23666SOL     OW72830   6.067   5.748   3.283
23666SOL    HW172831   6.087   5.726   3.375
23666SOL    HW272832   5.976   5.723   3.272
23667SOL     OW72833   8.455   6.557   0.297
23667SOL    HW172834   8.455   6.608   0.379
23667SOL    HW272835   8.429   6.621   0.230
23668SOL     OW72836   1.484   3.170   6.823
23668SOL    HW172837   1.560   3.118   6.848
23668SOL    HW272838   1.439   3.188   6.906
23669SOL     OW72839   9.988   8.953   6.270
23669SOL    HW172840   9.899   8.924   6.291
23669SOL    HW272841  10.026   8.878   6.224
23670SOL     OW72842  10.215   3.595   4.002
23670SOL    HW172843  10.161   3.529   3.957
23670SOL    HW272844  10.286   3.545   4.042
23671SOL     OW72845  14.511  14.707  12.791
23671SOL    HW172846  14.474  14.779  12.843
23671SOL    HW272847  14.593  14.686  12.835
23672SOL     OW72848  14.516   4.243  13.346
23672SOL    HW172849  14.530   4.331  13.381
23672SOL    HW272850  14.423   4.226  13.359
23673SOL     OW72851   4.153   3.920  10.993
23673SOL    HW172852   4.128   3.900  11.083
23673SOL    HW272853   4.248   3.910  10.991
23674SOL     OW72854   8.077   5.685   3.800
23674SOL    HW172855   8.075   5.744   3.724
23674SOL    HW272856   8.019   5.613   3.776
23675SOL     OW72857   6.692  12.589  10.531
23675SOL    HW172858   6.715  12.634  10.612
23675SOL    HW272859   6.753  12.515  10.527
23676SOL     OW72860  12.009   8.221   0.123
23676SOL    HW172861  11.980   8.298   0.171
23676SOL    HW272862  11.929   8.171   0.108
23677SOL     OW72863  10.239   7.381   8.093
23677SOL    HW172864  10.173   7.395   8.025
23677SOL    HW272865  10.218   7.296   8.130
23678SOL     OW72866   6.617  11.009   8.461
23678SOL    HW172867   6.523  11.005   8.473
23678SOL    HW272868   6.649  10.923   8.489
23679SOL     OW72869   2.590   9.087   1.874
23679SOL    HW172870   2.543   9.033   1.938
23679SOL    HW272871   2.549   9.066   1.791
23680SOL     OW72872  11.797  14.679   4.747
23680SOL    HW172873  11.835  14.680   4.659
23680SOL    HW272874  11.828  14.760   4.787
23681SOL     OW72875   4.760   6.665  13.929
23681SOL    HW172876   4.813   6.710  13.862
23681SOL    HW272877   4.708   6.734  13.969
23682SOL     OW72878   4.642  12.011   8.306
23682SOL    HW172879   4.556  11.999   8.344
23682SOL    HW272880   4.697  12.040   8.378
23683SOL     OW72881  12.471   3.320  10.331
23683SOL    HW172882  12.395   3.303  10.275
23683SOL    HW272883  12.542   3.270  10.292
23684SOL     OW72884   8.519  10.249   2.754
23684SOL    HW172885   8.451  10.194   2.714
23684SOL    HW272886   8.513  10.231   2.848
23685SOL     OW72887   4.579  11.098   2.831
23685SOL    HW172888   4.543  11.076   2.918
23685SOL    HW272889   4.538  11.182   2.810
23686SOL     OW72890  13.753   6.058   5.732
23686SOL    HW172891  13.690   6.130   5.729
23686SOL    HW272892  13.723   5.996   5.666
23687SOL     OW72893   0.850  10.742  14.432
23687SOL    HW172894   0.857  10.696  14.516
23687SOL    HW272895   0.935  10.785  14.422
23688SOL     OW72896   8.895   3.988  10.712
23688SOL    HW172897   8.935   4.020  10.632
23688SOL    HW272898   8.901   4.062  10.773
23689SOL     OW72899   6.897   1.874  10.548
23689SOL    HW172900   6.926   1.796  10.596
23689SOL    HW272901   6.897   1.944  10.614
23690SOL     OW72902   7.181   4.348   4.190
23690SOL    HW172903   7.267   4.318   4.218
23690SOL    HW272904   7.133   4.268   4.170
23691SOL     OW72905   7.618   7.007   2.358
23691SOL    HW172906   7.709   7.028   2.338
23691SOL    HW272907   7.586   7.082   2.408
23692SOL     OW72908   8.040   5.008   2.741
23692SOL    HW172909   8.034   5.069   2.667
23692SOL    HW272910   8.090   5.056   2.806
23693SOL     OW72911   2.821   3.998   1.975
23693SOL    HW172912   2.770   3.917   1.967
23693SOL    HW272913   2.758   4.064   2.004
23694SOL     OW72914  11.782   2.554   3.469
23694SOL    HW172915  11.689   2.535   3.474
23694SOL    HW272916  11.804   2.589   3.555
23695SOL     OW72917   5.088   7.050   0.752
23695SOL    HW172918   5.065   6.968   0.796
23695SOL    HW272919   5.082   7.029   0.659
23696SOL     OW72920   0.355  11.479   1.505
23696SOL    HW172921   0.280  11.431   1.542
23696SOL    HW272922   0.317  11.532   1.435
23697SOL     OW72923   9.397  14.329   0.977
23697SOL    HW172924   9.441  14.390   0.918
23697SOL    HW272925   9.459  14.256   0.987
23698SOL     OW72926   9.748  13.937  11.587
23698SOL    HW172927   9.823  13.986  11.621
23698SOL    HW272928   9.724  13.878  11.659
23699SOL     OW72929  11.603  12.925   6.706
23699SOL    HW172930  11.677  12.878   6.743
23699SOL    HW272931  11.554  12.957   6.781
23700SOL     OW72932  12.128   4.738  11.175
23700SOL    HW172933  12.208   4.712  11.221
23700SOL    HW272934  12.068   4.664  11.187
23701SOL     OW72935  10.822  10.713  10.427
23701SOL    HW172936  10.807  10.680  10.339
23701SOL    HW272937  10.743  10.763  10.448
23702SOL     OW72938   8.049  14.178   0.194
23702SOL    HW172939   7.981  14.157   0.258
23702SOL    HW272940   8.130  14.183   0.246
23703SOL     OW72941  10.509   1.533   6.419
23703SOL    HW172942  10.444   1.511   6.486
23703SOL    HW272943  10.462   1.591   6.359
23704SOL     OW72944  12.255   6.321   9.062
23704SOL    HW172945  12.345   6.296   9.080
23704SOL    HW272946  12.252   6.416   9.078
23705SOL     OW72947  10.683  10.979   2.166
23705SOL    HW172948  10.640  10.910   2.116
23705SOL    HW272949  10.616  11.047   2.175
23706SOL     OW72950   0.144   3.114   7.110
23706SOL    HW172951   0.214   3.052   7.130
23706SOL    HW272952   0.170   3.154   7.027
23707SOL     OW72953   9.354  12.770   0.269
23707SOL    HW172954   9.376  12.782   0.176
23707SOL    HW272955   9.265  12.802   0.277
23708SOL     OW72956   3.004   7.780   3.995
23708SOL    HW172957   2.991   7.771   3.901
23708SOL    HW272958   3.023   7.873   4.009
23709SOL     OW72959  14.588   2.116  11.133
23709SOL    HW172960  14.580   2.132  11.227
23709SOL    HW272961  14.566   2.200  11.092
23710SOL     OW72962   1.980   5.281   0.939
23710SOL    HW172963   1.925   5.247   1.010
23710SOL    HW272964   2.055   5.221   0.937
23711SOL     OW72965  12.109   6.495  13.489
23711SOL    HW172966  12.190   6.530  13.452
23711SOL    HW272967  12.055   6.475  13.412
23712SOL     OW72968   4.383   7.248   3.034
23712SOL    HW172969   4.434   7.296   3.099
23712SOL    HW272970   4.309   7.306   3.014
23713SOL     OW72971  11.038  10.134  13.732
23713SOL    HW172972  11.101  10.106  13.667
23713SOL    HW272973  11.035  10.063  13.796
23714SOL     OW72974   6.750   3.179  14.084
23714SOL    HW172975   6.663   3.163  14.121
23714SOL    HW272976   6.756   3.274  14.078
23715SOL     OW72977  14.674   9.065   5.049
23715SOL    HW172978  14.695   9.026   5.134
23715SOL    HW272979  14.626   9.146   5.071
23716SOL     OW72980   4.620   9.519  10.651
23716SOL    HW172981   4.581   9.448  10.702
23716SOL    HW272982   4.554   9.588  10.650
23717SOL     OW72983  11.475   8.601   4.044
23717SOL    HW172984  11.490   8.566   4.132
23717SOL    HW272985  11.434   8.529   3.996
23718SOL     OW72986  11.247   2.638   5.998
23718SOL    HW172987  11.315   2.676   6.054
23718SOL    HW272988  11.180   2.706   5.993
23719SOL     OW72989   5.636   1.606  10.847
23719SOL    HW172990   5.707   1.580  10.788
23719SOL    HW272991   5.677   1.609  10.934
23720SOL     OW72992   1.482   0.936  13.607
23720SOL    HW172993   1.515   1.021  13.579
23720SOL    HW272994   1.540   0.911  13.679
23721SOL     OW72995  10.869   0.466   5.235
23721SOL    HW172996  10.823   0.529   5.290
23721SOL    HW272997  10.943   0.514   5.199
23722SOL     OW72998   1.803   4.828   1.867
23722SOL    HW172999   1.723   4.790   1.831
23722SOL    HW273000   1.777   4.915   1.897
23723SOL     OW73001  12.109  12.811   0.696
23723SOL    HW173002  12.119  12.875   0.766
23723SOL    HW273003  12.165  12.738   0.721
23724SOL     OW73004   1.789   6.522   6.285
23724SOL    HW173005   1.792   6.458   6.214
23724SOL    HW273006   1.783   6.606   6.240
23725SOL     OW73007  14.470   7.469  13.960
23725SOL    HW173008  14.527   7.515  14.022
23725SOL    HW273009  14.492   7.376  13.972
23726SOL     OW73010  11.505   5.075   0.726
23726SOL    HW173011  11.551   5.023   0.660
23726SOL    HW273012  11.574   5.113   0.779
23727SOL     OW73013  11.145   3.633   0.857
23727SOL    HW173014  11.050   3.640   0.843
23727SOL    HW273015  11.158   3.542   0.885
23728SOL     OW73016   6.697  10.175   8.361
23728SOL    HW173017   6.638  10.147   8.431
23728SOL    HW273018   6.778  10.200   8.407
23729SOL     OW73019   8.277  14.762   4.512
23729SOL    HW173020   8.228  14.682   4.499
23729SOL    HW273021   8.352  14.736   4.565
23730SOL     OW73022   4.563   8.411   1.648
23730SOL    HW173023   4.653   8.379   1.656
23730SOL    HW273024   4.554   8.477   1.716
23731SOL     OW73025  11.296  10.459   2.414
23731SOL    HW173026  11.317  10.403   2.489
23731SOL    HW273027  11.218  10.508   2.442
23732SOL     OW73028   5.507   7.712   9.500
23732SOL    HW173029   5.563   7.635   9.499
23732SOL    HW273030   5.421   7.680   9.526
23733SOL     OW73031  12.524   2.345  10.256
23733SOL    HW173032  12.462   2.313  10.190
23733SOL    HW273033  12.610   2.329  10.219
23734SOL     OW73034   5.272  12.807   6.381
23734SOL    HW173035   5.243  12.897   6.391
23734SOL    HW273036   5.210  12.756   6.433
23735SOL     OW73037   2.031   4.342   3.295
23735SOL    HW173038   1.948   4.327   3.341
23735SOL    HW273039   2.007   4.396   3.219
23736SOL     OW73040  13.567  14.307   9.044
23736SOL    HW173041  13.631  14.265   9.101
23736SOL    HW273042  13.579  14.266   8.959
23737SOL     OW73043  11.916   4.296   7.626
23737SOL    HW173044  11.942   4.248   7.547
23737SOL    HW273045  11.972   4.373   7.627
23738SOL     OW73046   3.032   3.685   7.985
23738SOL    HW173047   2.980   3.677   8.065
23738SOL    HW273048   3.117   3.719   8.014
23739SOL     OW73049   2.530  10.859  10.027
23739SOL    HW173050   2.459  10.818  10.075
23739SOL    HW273051   2.609  10.830  10.072
23740SOL     OW73052   9.885  12.346   6.854
23740SOL    HW173053   9.851  12.263   6.887
23740SOL    HW273054   9.943  12.378   6.923
23741SOL     OW73055   4.200   0.060   5.933
23741SOL    HW173056   4.281   0.073   5.983
23741SOL    HW273057   4.194   0.138   5.878
23742SOL     OW73058   3.171   9.211   2.807
23742SOL    HW173059   3.096   9.252   2.766
23742SOL    HW273060   3.217   9.282   2.852
23743SOL     OW73061   3.185   7.257   3.334
23743SOL    HW173062   3.266   7.307   3.332
23743SOL    HW273063   3.204   7.182   3.391
23744SOL     OW73064  12.909   6.823  14.263
23744SOL    HW173065  12.925   6.743  14.214
23744SOL    HW273066  12.874   6.794  14.347
23745SOL     OW73067   1.554   9.984   8.233
23745SOL    HW173068   1.512   9.908   8.192
23745SOL    HW273069   1.517  10.060   8.186
23746SOL     OW73070  10.504   9.096   6.880
23746SOL    HW173071  10.546   9.052   6.953
23746SOL    HW273072  10.564   9.085   6.806
23747SOL     OW73073   0.161  11.405   4.949
23747SOL    HW173074   0.237  11.348   4.932
23747SOL    HW273075   0.093  11.346   4.981
23748SOL     OW73076   9.332   9.133   6.887
23748SOL    HW173077   9.357   9.099   6.801
23748SOL    HW273078   9.411   9.124   6.940
23749SOL     OW73079   1.567  12.158  10.975
23749SOL    HW173080   1.582  12.251  10.963
23749SOL    HW273081   1.617  12.116  10.905
23750SOL     OW73082   0.750  13.687  10.127
23750SOL    HW173083   0.812  13.760  10.128
23750SOL    HW273084   0.753  13.652  10.216
23751SOL     OW73085  12.629   6.842  13.194
23751SOL    HW173086  12.598   6.913  13.249
23751SOL    HW273087  12.637   6.767  13.253
23752SOL     OW73088   3.502   1.856  14.190
23752SOL    HW173089   3.534   1.766  14.199
23752SOL    HW273090   3.417   1.847  14.146
23753SOL     OW73091  14.408   4.572   2.484
23753SOL    HW173092  14.334   4.623   2.452
23753SOL    HW273093  14.372   4.484   2.497
23754SOL     OW73094   7.671  10.189  11.546
23754SOL    HW173095   7.603  10.122  11.534
23754SOL    HW273096   7.739  10.166  11.483
23755SOL     OW73097  11.560   4.323   2.754
23755SOL    HW173098  11.474   4.363   2.740
23755SOL    HW273099  11.605   4.333   2.670
23756SOL     OW73100   3.989   6.427   1.996
23756SOL    HW173101   3.944   6.377   2.064
23756SOL    HW273102   4.067   6.462   2.040
23757SOL     OW73103  10.097  11.510  13.971
23757SOL    HW173104  10.003  11.514  13.987
23757SOL    HW273105  10.105  11.494  13.877
23758SOL     OW73106  13.898   0.802   3.117
23758SOL    HW173107  13.862   0.741   3.053
23758SOL    HW273108  13.822   0.851   3.149
23759SOL     OW73109   2.377   5.312   2.299
23759SOL    HW173110   2.347   5.372   2.368
23759SOL    HW273111   2.326   5.232   2.313
23760SOL     OW73112   9.989  10.076  14.109
23760SOL    HW173113  10.059  10.069  14.044
23760SOL    HW273114   9.983  10.169  14.128
23761SOL     OW73115   4.088  10.024   3.042
23761SOL    HW173116   4.052   9.938   3.064
23761SOL    HW273117   4.022  10.086   3.072
23762SOL     OW73118   2.702   0.291  14.432
23762SOL    HW173119   2.636   0.237  14.388
23762SOL    HW273120   2.697   0.375  14.386
23763SOL     OW73121   8.406   7.458   4.685
23763SOL    HW173122   8.440   7.373   4.655
23763SOL    HW273123   8.381   7.503   4.604
23764SOL     OW73124  12.225   4.071   6.448
23764SOL    HW173125  12.316   4.082   6.476
23764SOL    HW273126  12.231   4.022   6.366
23765SOL     OW73127  13.697  11.073  10.767
23765SOL    HW173128  13.727  11.012  10.699
23765SOL    HW273129  13.738  11.156  10.743
23766SOL     OW73130   0.735   6.100   2.038
23766SOL    HW173131   0.674   6.063   1.974
23766SOL    HW273132   0.701   6.070   2.123
23767SOL     OW73133   9.283   2.061   7.749
23767SOL    HW173134   9.306   1.985   7.801
23767SOL    HW273135   9.188   2.070   7.760
23768SOL     OW73136  14.786   9.348   0.704
23768SOL    HW173137  14.808   9.347   0.611
23768SOL    HW273138  14.710   9.289   0.711
23769SOL     OW73139   5.548   5.515   7.864
23769SOL    HW173140   5.459   5.517   7.899
23769SOL    HW273141   5.583   5.602   7.881
23770SOL     OW73142  12.863   8.359  10.518
23770SOL    HW173143  12.944   8.398  10.551
23770SOL    HW273144  12.886   8.325  10.431
23771SOL     OW73145   1.808   9.119  12.707
23771SOL    HW173146   1.748   9.121  12.782
23771SOL    HW273147   1.800   9.030  12.673
23772SOL     OW73148   2.174   8.472   5.593
23772SOL    HW173149   2.166   8.498   5.501
23772SOL    HW273150   2.236   8.535   5.630
23773SOL     OW73151   6.025   9.256   3.043
23773SOL    HW173152   5.976   9.184   3.083
23773SOL    HW273153   6.105   9.215   3.011
23774SOL     OW73154  14.357   9.760   1.751
23774SOL    HW173155  14.349   9.799   1.664
23774SOL    HW273156  14.295   9.687   1.749
23775SOL     OW73157  10.136   3.392   7.081
23775SOL    HW173158  10.201   3.343   7.132
23775SOL    HW273159  10.090   3.325   7.030
23776SOL     OW73160   3.258   7.962   2.279
23776SOL    HW173161   3.169   7.989   2.301
23776SOL    HW273162   3.266   7.979   2.185
23777SOL     OW73163  14.560   3.354   2.724
23777SOL    HW173164  14.614   3.409   2.781
23777SOL    HW273165  14.570   3.392   2.637
23778SOL     OW73166  14.771   8.602  12.830
23778SOL    HW173167  14.864   8.604  12.852
23778SOL    HW273168  14.735   8.531  12.883
23779SOL     OW73169  10.337   7.399  12.126
23779SOL    HW173170  10.385   7.394  12.209
23779SOL    HW273171  10.258   7.348  12.141
23780SOL     OW73172   0.236   7.445   7.427
23780SOL    HW173173   0.317   7.492   7.444
23780SOL    HW273174   0.166   7.505   7.455
23781SOL     OW73175   9.604   5.632   2.693
23781SOL    HW173176   9.695   5.661   2.684
23781SOL    HW273177   9.604   5.577   2.771
23782SOL     OW73178   1.959   8.770   7.677
23782SOL    HW173179   1.876   8.726   7.697
23782SOL    HW273180   1.983   8.813   7.759
23783SOL     OW73181   2.017  14.224   1.996
23783SOL    HW173182   1.980  14.157   1.938
23783SOL    HW273183   1.987  14.307   1.959
23784SOL     OW73184   4.776   7.416   9.273
23784SOL    HW173185   4.849   7.379   9.323
23784SOL    HW273186   4.716   7.343   9.259
23785SOL     OW73187  11.757  13.907  14.014
23785SOL    HW173188  11.755  13.908  14.110
23785SOL    HW273189  11.683  13.851  13.989
23786SOL     OW73190  14.311   8.711   6.655
23786SOL    HW173191  14.304   8.626   6.611
23786SOL    HW273192  14.378   8.759   6.604
23787SOL     OW73193   0.620   6.210   7.410
23787SOL    HW173194   0.630   6.283   7.348
23787SOL    HW273195   0.649   6.134   7.360
23788SOL     OW73196   7.503   8.893   7.269
23788SOL    HW173197   7.474   8.963   7.327
23788SOL    HW273198   7.422   8.853   7.238
23789SOL     OW73199  11.132  13.182  11.318
23789SOL    HW173200  11.058  13.126  11.341
23789SOL    HW273201  11.140  13.242  11.391
23790SOL     OW73202  13.775   6.328  13.463
23790SOL    HW173203  13.725   6.348  13.384
23790SOL    HW273204  13.866   6.348  13.441
23791SOL     OW73205   9.419   3.027  10.380
23791SOL    HW173206   9.390   3.052  10.468
23791SOL    HW273207   9.468   3.103  10.349
23792SOL     OW73208   2.250  13.126   3.734
23792SOL    HW173209   2.291  13.174   3.661
23792SOL    HW273210   2.301  13.151   3.811
23793SOL     OW73211   8.549   8.348   8.632
23793SOL    HW173212   8.532   8.255   8.649
23793SOL    HW273213   8.614   8.373   8.698
23794SOL     OW73214  11.139   5.163  11.230
23794SOL    HW173215  11.103   5.240  11.185
23794SOL    HW273216  11.182   5.112  11.161
23795SOL     OW73217   3.760  10.862   2.112
23795SOL    HW173218   3.844  10.881   2.154
23795SOL    HW273219   3.722  10.792   2.166
23796SOL     OW73220  14.376   3.101   9.745
23796SOL    HW173221  14.344   3.190   9.727
23796SOL    HW273222  14.423   3.109   9.828
23797SOL     OW73223   9.099  11.843  13.204
23797SOL    HW173224   9.020  11.799  13.172
23797SOL    HW273225   9.128  11.788  13.277
23798SOL     OW73226   6.771  10.482   9.876
23798SOL    HW173227   6.732  10.565   9.847
23798SOL    HW273228   6.702  10.417   9.863
23799SOL     OW73229   3.294  10.496   3.718
23799SOL    HW173230   3.362  10.540   3.768
23799SOL    HW273231   3.217  10.499   3.775
23800SOL     OW73232  14.453   0.625   2.840
23800SOL    HW173233  14.516   0.558   2.815
23800SOL    HW273234  14.372   0.576   2.856
23801SOL     OW73235  10.463   9.520  11.521
23801SOL    HW173236  10.526   9.592  11.531
23801SOL    HW273237  10.409   9.525  11.600
23802SOL     OW73238  10.250   7.854   8.092
23802SOL    HW173239  10.225   7.899   8.011
23802SOL    HW273240  10.345   7.843   8.084
23803SOL     OW73241   7.869  12.798   0.121
23803SOL    HW173242   7.871  12.830   0.211
23803SOL    HW273243   7.846  12.705   0.129
23804SOL     OW73244   9.181   5.183   9.627
23804SOL    HW173245   9.166   5.270   9.589
23804SOL    HW273246   9.114   5.127   9.588
23805SOL     OW73247  13.362   1.630  12.763
23805SOL    HW173248  13.366   1.534  12.764
23805SOL    HW273249  13.373   1.655  12.855
23806SOL     OW73250   3.672   4.478  13.305
23806SOL    HW173251   3.636   4.398  13.343
23806SOL    HW273252   3.724   4.447  13.231
23807SOL     OW73253   0.790   1.516   1.669
23807SOL    HW173254   0.771   1.454   1.738
23807SOL    HW273255   0.736   1.488   1.595
23808SOL     OW73256   8.993   2.428   1.116
23808SOL    HW173257   9.066   2.489   1.106
23808SOL    HW273258   9.015   2.355   1.057
23809SOL     OW73259   8.710   5.280   5.528
23809SOL    HW173260   8.734   5.358   5.578
23809SOL    HW273261   8.615   5.277   5.533
23810SOL     OW73262  11.877   0.951  13.667
23810SOL    HW173263  11.945   0.884  13.675
23810SOL    HW273264  11.819   0.935  13.741
23811SOL     OW73265   6.755  10.201  12.635
23811SOL    HW173266   6.725  10.202  12.544
23811SOL    HW273267   6.777  10.109  12.651
23812SOL     OW73268   2.181   8.615  11.640
23812SOL    HW173269   2.208   8.644  11.553
23812SOL    HW273270   2.244   8.654  11.700
23813SOL     OW73271   2.703  13.244   2.541
23813SOL    HW173272   2.641  13.174   2.521
23813SOL    HW273273   2.657  13.325   2.518
23814SOL     OW73274   6.700  13.110   2.981
23814SOL    HW173275   6.683  13.017   2.995
23814SOL    HW273276   6.792  13.114   2.956
23815SOL     OW73277   9.886   2.349   5.898
23815SOL    HW173278   9.854   2.342   5.808
23815SOL    HW273279   9.971   2.305   5.896
23816SOL     OW73280   5.099   9.007  14.285
23816SOL    HW173281   5.152   8.959  14.348
23816SOL    HW273282   5.024   9.039  14.336
23817SOL     OW73283  13.996  10.742   2.012
23817SOL    HW173284  13.910  10.738   2.054
23817SOL    HW273285  14.016  10.650   1.993
23818SOL     OW73286  10.784   2.207   4.853
23818SOL    HW173287  10.734   2.290   4.856
23818SOL    HW273288  10.737   2.150   4.913
23819SOL     OW73289  14.782   9.040   0.097
23819SOL    HW173290  14.805   9.122   0.054
23819SOL    HW273291  14.699   9.014   0.057
23820SOL     OW73292   0.517   7.452   3.315
23820SOL    HW173293   0.445   7.460   3.378
23820SOL    HW273294   0.563   7.372   3.341
23821SOL     OW73295   1.022  11.942   5.595
23821SOL    HW173296   0.986  12.002   5.660
23821SOL    HW273297   1.107  11.915   5.632
23822SOL     OW73298   4.697   0.789  13.986
23822SOL    HW173299   4.719   0.830  13.903
23822SOL    HW273300   4.701   0.860  14.050
23823SOL     OW73301   9.093   3.189  11.365
23823SOL    HW173302   9.096   3.189  11.461
23823SOL    HW273303   9.007   3.228  11.344
23824SOL     OW73304   5.990   7.887   6.593
23824SOL    HW173305   5.940   7.928   6.522
23824SOL    HW273306   6.029   7.961   6.640
23825SOL     OW73307   0.218   4.688   3.680
23825SOL    HW173308   0.181   4.716   3.596
23825SOL    HW273309   0.144   4.690   3.741
23826SOL     OW73310  11.620   3.495   0.905
23826SOL    HW173311  11.566   3.418   0.884
23826SOL    HW273312  11.577   3.567   0.860
23827SOL     OW73313   6.458   3.359   4.004
23827SOL    HW173314   6.500   3.419   4.065
23827SOL    HW273315   6.379   3.330   4.049
23828SOL     OW73316   9.845   5.115   7.805
23828SOL    HW173317   9.792   5.089   7.730
23828SOL    HW273318   9.781   5.139   7.872
23829SOL     OW73319   3.725  12.489   8.284
23829SOL    HW173320   3.756  12.554   8.220
23829SOL    HW273321   3.643  12.526   8.317
23830SOL     OW73322   0.511  10.859   0.939
23830SOL    HW173323   0.605  10.842   0.944
23830SOL    HW273324   0.472  10.804   1.007
23831SOL     OW73325  10.482   6.928   7.588
23831SOL    HW173326  10.500   6.973   7.506
23831SOL    HW273327  10.394   6.892   7.577
23832SOL     OW73328  12.888  10.586   9.312
23832SOL    HW173329  12.864  10.494   9.319
23832SOL    HW273330  12.808  10.630   9.281
23833SOL     OW73331   0.422   3.731   8.349
23833SOL    HW173332   0.412   3.666   8.279
23833SOL    HW273333   0.476   3.800   8.311
23834SOL     OW73334   5.018   1.642  11.222
23834SOL    HW173335   4.971   1.630  11.139
23834SOL    HW273336   4.998   1.563  11.272
23835SOL     OW73337   4.932   2.250  12.800
23835SOL    HW173338   4.918   2.343  12.782
23835SOL    HW273339   4.886   2.235  12.883
23836SOL     OW73340  11.961   9.583   2.189
23836SOL    HW173341  11.957   9.661   2.244
23836SOL    HW273342  12.020   9.524   2.236
23837SOL     OW73343   9.506  11.373  11.653
23837SOL    HW173344   9.512  11.344  11.744
23837SOL    HW273345   9.412  11.375  11.635
23838SOL     OW73346   8.748   3.964  11.253
23838SOL    HW173347   8.680   3.901  11.230
23838SOL    HW273348   8.802   3.972  11.174
23839SOL     OW73349   5.902  11.475  10.690
23839SOL    HW173350   5.896  11.428  10.773
23839SOL    HW273351   5.854  11.421  10.628
23840SOL     OW73352   6.191   5.591   8.128
23840SOL    HW173353   6.281   5.572   8.152
23840SOL    HW273354   6.197   5.636   8.044
23841SOL     OW73355  11.891   0.150   4.353
23841SOL    HW173356  11.915   0.065   4.317
23841SOL    HW273357  11.810   0.174   4.309
23842SOL     OW73358   7.982  14.709   2.969
23842SOL    HW173359   7.956  14.661   3.048
23842SOL    HW273360   8.058  14.761   2.997
23843SOL     OW73361   6.448   2.498   7.367
23843SOL    HW173362   6.525   2.490   7.424
23843SOL    HW273363   6.374   2.496   7.428
23844SOL     OW73364   8.449   0.397   5.354
23844SOL    HW173365   8.415   0.344   5.425
23844SOL    HW273366   8.426   0.487   5.378
23845SOL     OW73367   8.874   1.016   0.096
23845SOL    HW173368   8.815   0.977   0.033
23845SOL    HW273369   8.939   0.948   0.115
23846SOL     OW73370  10.687  11.557   7.980
23846SOL    HW173371  10.676  11.613   8.056
23846SOL    HW273372  10.627  11.592   7.914
23847SOL     OW73373   5.350   3.294   6.322
23847SOL    HW173374   5.438   3.266   6.298
23847SOL    HW273375   5.301   3.293   6.240
23848SOL     OW73376   4.732   8.707  14.764
23848SOL    HW173377   4.734   8.801  14.746
23848SOL    HW273378   4.709   8.667  14.680
23849SOL     OW73379  11.592   1.283   2.303
23849SOL    HW173380  11.567   1.308   2.392
23849SOL    HW273381  11.674   1.330   2.287
23850SOL     OW73382  11.441   6.826   0.237
23850SOL    HW173383  11.445   6.899   0.300
23850SOL    HW273384  11.366   6.774   0.266
23851SOL     OW73385   4.797  14.033   9.493
23851SOL    HW173386   4.892  14.018   9.500
23851SOL    HW273387   4.760  13.945   9.484
23852SOL     OW73388   3.403   9.744  12.120
23852SOL    HW173389   3.495   9.769  12.110
23852SOL    HW273390   3.386   9.685  12.047
23853SOL     OW73391   1.678   5.241   8.302
23853SOL    HW173392   1.711   5.259   8.214
23853SOL    HW273393   1.673   5.327   8.343
23854SOL     OW73394   3.861   7.283  10.859
23854SOL    HW173395   3.859   7.201  10.810
23854SOL    HW273396   3.902   7.346  10.800
23855SOL     OW73397   3.637   1.621   8.162
23855SOL    HW173398   3.611   1.712   8.149
23855SOL    HW273399   3.555   1.575   8.179
23856SOL     OW73400   1.757   4.853   8.481
23856SOL    HW173401   1.749   4.814   8.394
23856SOL    HW273402   1.822   4.922   8.471
23857SOL     OW73403   9.602  10.421   5.872
23857SOL    HW173404   9.587  10.336   5.914
23857SOL    HW273405   9.545  10.482   5.920
23858SOL     OW73406   6.919  12.982  12.532
23858SOL    HW173407   6.998  12.931  12.550
23858SOL    HW273408   6.862  12.921  12.485
23859SOL     OW73409  12.420   2.213  12.802
23859SOL    HW173410  12.490   2.160  12.763
23859SOL    HW273411  12.462   2.295  12.825
23860SOL     OW73412   8.958  10.403  14.536
23860SOL    HW173413   8.871  10.441  14.534
23860SOL    HW273414   8.959  10.340  14.464
23861SOL     OW73415   5.201  12.776  10.497
23861SOL    HW173416   5.195  12.837  10.424
23861SOL    HW273417   5.269  12.812  10.553
23862SOL     OW73418   9.392   2.129  12.730
23862SOL    HW173419   9.335   2.149  12.803
23862SOL    HW273420   9.372   2.197  12.665
23863SOL     OW73421  13.518   8.290  10.158
23863SOL    HW173422  13.455   8.239  10.107
23863SOL    HW273423  13.490   8.381  10.145
23864SOL     OW73424  11.438  14.166   8.026
23864SOL    HW173425  11.364  14.216   8.060
23864SOL    HW273426  11.515  14.216   8.053
23865SOL     OW73427   7.516   6.558   2.919
23865SOL    HW173428   7.538   6.539   2.827
23865SOL    HW273429   7.496   6.651   2.920
23866SOL     OW73430  10.400  12.688   3.321
23866SOL    HW173431  10.361  12.721   3.240
23866SOL    HW273432  10.354  12.734   3.391
23867SOL     OW73433   8.111   0.455   1.917
23867SOL    HW173434   8.102   0.450   2.013
23867SOL    HW273435   8.093   0.547   1.896
23868SOL     OW73436   8.913   7.120   5.830
23868SOL    HW173437   8.827   7.107   5.790
23868SOL    HW273438   8.945   7.032   5.849
23869SOL     OW73439   3.878  10.840   7.766
23869SOL    HW173440   3.955  10.877   7.722
23869SOL    HW273441   3.887  10.745   7.754
23870SOL     OW73442   0.914  14.417  10.930
23870SOL    HW173443   0.888  14.507  10.910
23870SOL    HW273444   0.945  14.420  11.021
23871SOL     OW73445  10.094   1.595   0.663
23871SOL    HW173446  10.167   1.560   0.714
23871SOL    HW273447  10.069   1.524   0.604
23872SOL     OW73448  11.260   9.396  14.627
23872SOL    HW173449  11.196   9.402  14.556
23872SOL    HW273450  11.343   9.422  14.586
23873SOL     OW73451  11.052   4.101   1.174
23873SOL    HW173452  11.017   4.065   1.092
23873SOL    HW273453  11.114   4.168   1.145
23874SOL     OW73454   6.536  14.198   6.822
23874SOL    HW173455   6.443  14.216   6.813
23874SOL    HW273456   6.570  14.205   6.732
23875SOL     OW73457   9.755   6.026   1.193
23875SOL    HW173458   9.684   5.966   1.171
23875SOL    HW273459   9.761   6.085   1.118
23876SOL     OW73460   6.607   6.654  11.685
23876SOL    HW173461   6.632   6.714  11.756
23876SOL    HW273462   6.523   6.618  11.713
23877SOL     OW73463   7.519   8.236   2.267
23877SOL    HW173464   7.485   8.313   2.221
23877SOL    HW273465   7.491   8.247   2.358
23878SOL     OW73466   1.579  11.330   5.280
23878SOL    HW173467   1.492  11.370   5.277
23878SOL    HW273468   1.579  11.269   5.206
23879SOL     OW73469   3.868   3.864  11.123
23879SOL    HW173470   3.835   3.908  11.045
23879SOL    HW273471   3.858   3.929  11.193
23880SOL     OW73472   7.418   8.910   8.673
23880SOL    HW173473   7.443   8.818   8.660
23880SOL    HW273474   7.501   8.953   8.695
23881SOL     OW73475  13.740  12.638   6.756
23881SOL    HW173476  13.818  12.610   6.805
23881SOL    HW273477  13.678  12.566   6.766
23882SOL     OW73478   5.462   1.850  13.819
23882SOL    HW173479   5.479   1.899  13.739
23882SOL    HW273480   5.411   1.774  13.791
23883SOL     OW73481   7.099   8.948   4.006
23883SOL    HW173482   7.041   8.937   3.931
23883SOL    HW273483   7.125   9.040   4.004
23884SOL     OW73484   7.052   8.025  13.613
23884SOL    HW173485   7.060   8.114  13.580
23884SOL    HW273486   7.010   8.034  13.699
23885SOL     OW73487  12.265  13.783   4.989
23885SOL    HW173488  12.191  13.840   4.968
23885SOL    HW273489  12.302  13.821   5.069
23886SOL     OW73490  12.942   5.775  11.079
23886SOL    HW173491  12.847   5.777  11.075
23886SOL    HW273492  12.962   5.738  11.165
23887SOL     OW73493   7.960  10.928  10.301
23887SOL    HW173494   7.878  10.939  10.252
23887SOL    HW273495   8.015  10.875  10.243
23888SOL     OW73496   2.384  12.346  11.670
23888SOL    HW173497   2.419  12.281  11.731
23888SOL    HW273498   2.290  12.327  11.666
23889SOL     OW73499   2.957  11.487  11.880
23889SOL    HW173500   2.950  11.392  11.881
23889SOL    HW273501   3.050  11.505  11.862
23890SOL     OW73502  10.151   9.619   7.568
23890SOL    HW173503  10.072   9.604   7.516
23890SOL    HW273504  10.166   9.713   7.561
23891SOL     OW73505   1.822   8.741   0.569
23891SOL    HW173506   1.817   8.762   0.476
23891SOL    HW273507   1.906   8.697   0.579
23892SOL     OW73508   6.315   7.841   3.594
23892SOL    HW173509   6.357   7.918   3.556
23892SOL    HW273510   6.287   7.789   3.519
23893SOL     OW73511   6.799   1.455  11.424
23893SOL    HW173512   6.767   1.435  11.512
23893SOL    HW273513   6.722   1.448  11.368
23894SOL     OW73514   7.773   0.490   9.082
23894SOL    HW173515   7.768   0.459   8.991
23894SOL    HW273516   7.847   0.551   9.083
23895SOL     OW73517   6.130  14.610   3.185
23895SOL    HW173518   6.215  14.630   3.223
23895SOL    HW273519   6.106  14.689   3.136
23896SOL     OW73520   2.957   8.406  12.342
23896SOL    HW173521   3.051   8.409  12.323
23896SOL    HW273522   2.942   8.477  12.403
23897SOL     OW73523   8.868  12.019  14.588
23897SOL    HW173524   8.875  11.950  14.523
23897SOL    HW273525   8.779  12.013  14.621
23898SOL     OW73526  12.660  11.125   9.060
23898SOL    HW173527  12.593  11.089   9.000
23898SOL    HW273528  12.720  11.171   9.002
23899SOL     OW73529  12.869   3.662   8.424
23899SOL    HW173530  12.897   3.752   8.405
23899SOL    HW273531  12.890   3.613   8.345
23900SOL     OW73532  14.754   7.968   0.790
23900SOL    HW173533  14.679   7.910   0.786
23900SOL    HW273534  14.728   8.045   0.739
23901SOL     OW73535   4.333   4.579   9.671
23901SOL    HW173536   4.303   4.667   9.696
23901SOL    HW273537   4.423   4.592   9.641
23902SOL     OW73538   2.614   5.774   8.318
23902SOL    HW173539   2.669   5.822   8.256
23902SOL    HW273540   2.548   5.838   8.345
23903SOL     OW73541   6.894   7.881  10.871
23903SOL    HW173542   6.918   7.876  10.964
23903SOL    HW273543   6.903   7.973  10.849
23904SOL     OW73544   2.341  14.773   3.813
23904SOL    HW173545   2.427  14.734   3.802
23904SOL    HW273546   2.291  14.744   3.737
23905SOL     OW73547   2.141   3.998  12.406
23905SOL    HW173548   2.210   4.059  12.380
23905SOL    HW273549   2.063   4.029  12.361
23906SOL     OW73550   3.052  10.175   7.445
23906SOL    HW173551   2.967  10.216   7.426
23906SOL    HW273552   3.030  10.097   7.495
23907SOL     OW73553  12.156   0.106  13.844
23907SOL    HW173554  12.107   0.184  13.818
23907SOL    HW273555  12.233   0.139  13.890
23908SOL     OW73556   8.547  13.041   2.720
23908SOL    HW173557   8.536  13.136   2.725
23908SOL    HW273558   8.573  13.025   2.629
23909SOL     OW73559   1.453  10.797  14.267
23909SOL    HW173560   1.419  10.734  14.203
23909SOL    HW273561   1.391  10.870  14.262
23910SOL     OW73562  10.001  10.017   0.017
23910SOL    HW173563   9.930  10.081   0.025
23910SOL    HW273564  10.043  10.016   0.103
23911SOL     OW73565  14.701  12.885   5.903
23911SOL    HW173566  14.655  12.809   5.939
23911SOL    HW273567  14.726  12.859   5.815
23912SOL     OW73568  12.892   8.256   4.436
23912SOL    HW173569  12.966   8.222   4.486
23912SOL    HW273570  12.836   8.298   4.502
23913SOL     OW73571   8.040  11.566   0.650
23913SOL    HW173572   8.046  11.631   0.581
23913SOL    HW273573   7.987  11.496   0.613
23914SOL     OW73574  14.100   4.993   1.397
23914SOL    HW173575  14.113   4.977   1.491
23914SOL    HW273576  14.046   5.072   1.394
23915SOL     OW73577   8.712   5.844   9.157
23915SOL    HW173578   8.762   5.822   9.079
23915SOL    HW273579   8.724   5.938   9.168
23916SOL     OW73580   0.079   4.598   1.040
23916SOL    HW173581   0.088   4.687   1.004
23916SOL    HW273582   0.165   4.559   1.025
23917SOL     OW73583   5.066   1.032   3.893
23917SOL    HW173584   5.115   0.965   3.940
23917SOL    HW273585   5.108   1.037   3.807
23918SOL     OW73586   2.715  11.973   9.786
23918SOL    HW173587   2.792  11.959   9.731
23918SOL    HW273588   2.744  12.036   9.852
23919SOL     OW73589   6.505   0.028  12.369
23919SOL    HW173590   6.584   0.054  12.416
23919SOL    HW273591   6.498   0.091  12.297
23920SOL     OW73592   0.121  11.826  10.164
23920SOL    HW173593   0.142  11.857  10.076
23920SOL    HW273594   0.026  11.832  10.170
23921SOL     OW73595   6.194   2.926   5.436
23921SOL    HW173596   6.283   2.935   5.401
23921SOL    HW273597   6.151   3.009   5.413
23922SOL     OW73598  14.043   7.945   2.881
23922SOL    HW173599  13.998   7.868   2.849
23922SOL    HW273600  14.123   7.951   2.828
23923SOL     OW73601  13.305   5.963  12.304
23923SOL    HW173602  13.235   6.010  12.259
23923SOL    HW273603  13.375   6.027  12.314
23924SOL     OW73604   9.471   4.474   9.271
23924SOL    HW173605   9.419   4.462   9.192
23924SOL    HW273606   9.450   4.399   9.326
23925SOL     OW73607  14.136  12.567   3.597
23925SOL    HW173608  14.133  12.508   3.672
23925SOL    HW273609  14.227  12.595   3.591
23926SOL     OW73610   1.137  13.611   4.514
23926SOL    HW173611   1.138  13.682   4.450
23926SOL    HW273612   1.162  13.653   4.597
23927SOL     OW73613   1.152   7.688  14.186
23927SOL    HW173614   1.117   7.633  14.116
23927SOL    HW273615   1.247   7.686  14.173
23928SOL     OW73616   2.594  11.532   3.185
23928SOL    HW173617   2.529  11.482   3.135
23928SOL    HW273618   2.553  11.546   3.271
23929SOL     OW73619   6.949   5.544   4.388
23929SOL    HW173620   6.917   5.506   4.470
23929SOL    HW273621   7.033   5.583   4.410
23930SOL     OW73622   4.768   2.053  12.399
23930SOL    HW173623   4.759   2.054  12.303
23930SOL    HW273624   4.858   2.023  12.413
23931SOL     OW73625  12.512  12.621   9.113
23931SOL    HW173626  12.597  12.610   9.157
23931SOL    HW273627  12.448  12.590   9.177
23932SOL     OW73628   6.203   4.341  12.709
23932SOL    HW173629   6.215   4.248  12.691
23932SOL    HW273630   6.276   4.363  12.767
23933SOL     OW73631  13.565   5.838   9.228
23933SOL    HW173632  13.529   5.884   9.152
23933SOL    HW273633  13.519   5.876   9.303
23934SOL     OW73634   1.782   3.132   5.517
23934SOL    HW173635   1.729   3.209   5.495
23934SOL    HW273636   1.833   3.114   5.438
23935SOL     OW73637   6.994   2.870   6.989
23935SOL    HW173638   6.913   2.869   6.937
23935SOL    HW273639   7.030   2.958   6.975
23936SOL     OW73640   0.684   8.628   6.878
23936SOL    HW173641   0.678   8.606   6.785
23936SOL    HW273642   0.630   8.563   6.923
23937SOL     OW73643   4.606  11.585   7.090
23937SOL    HW173644   4.641  11.547   7.010
23937SOL    HW273645   4.667  11.655   7.112
23938SOL     OW73646   2.504   2.932   0.162
23938SOL    HW173647   2.593   2.967   0.163
23938SOL    HW273648   2.481   2.923   0.255
23939SOL     OW73649   0.305   0.143  13.284
23939SOL    HW173650   0.371   0.186  13.338
23939SOL    HW273651   0.279   0.066  13.334
23940SOL     OW73652   7.401  13.530  12.836
23940SOL    HW173653   7.308  13.547  12.829
23940SOL    HW273654   7.417  13.457  12.776
23941SOL     OW73655   8.286   6.912   0.293
23941SOL    HW173656   8.333   6.902   0.211
23941SOL    HW273657   8.354   6.904   0.360
23942SOL     OW73658   1.590  14.259   4.648
23942SOL    HW173659   1.600  14.221   4.561
23942SOL    HW273660   1.496  14.251   4.667
23943SOL     OW73661  10.074   7.756   7.467
23943SOL    HW173662  10.061   7.846   7.498
23943SOL    HW273663  10.153   7.760   7.413
23944SOL     OW73664  10.209   9.024   8.238
23944SOL    HW173665  10.114   9.020   8.254
23944SOL    HW273666  10.233   9.114   8.258
23945SOL     OW73667   4.567  11.074   1.359
23945SOL    HW173668   4.630  11.056   1.429
23945SOL    HW273669   4.580  11.004   1.296
23946SOL     OW73670  10.435   5.572   7.378
23946SOL    HW173671  10.456   5.644   7.437
23946SOL    HW273672  10.433   5.611   7.291
23947SOL     OW73673   0.128  11.944   2.188
23947SOL    HW173674   0.085  12.007   2.130
23947SOL    HW273675   0.215  11.933   2.151
23948SOL     OW73676   3.405  12.214   3.516
23948SOL    HW173677   3.344  12.284   3.493
23948SOL    HW273678   3.491  12.250   3.495
23949SOL     OW73679   3.818  13.472   8.576
23949SOL    HW173680   3.796  13.484   8.483
23949SOL    HW273681   3.912  13.489   8.581
23950SOL     OW73682   4.222   1.490  14.836
23950SOL    HW173683   4.146   1.547  14.851
23950SOL    HW273684   4.257   1.518  14.751
23951SOL     OW73685   6.142  13.095   9.925
23951SOL    HW173686   6.106  13.135   9.845
23951SOL    HW273687   6.236  13.092   9.910
23952SOL     OW73688   8.822   1.587   3.948
23952SOL    HW173689   8.844   1.666   3.998
23952SOL    HW273690   8.907   1.547   3.929
23953SOL     OW73691   0.742  14.720  13.938
23953SOL    HW173692   0.782  14.783  13.878
23953SOL    HW273693   0.801  14.717  14.013
23954SOL     OW73694   8.030   1.490   8.872
23954SOL    HW173695   7.971   1.554   8.833
23954SOL    HW273696   7.974   1.416   8.893
23955SOL     OW73697   7.854   3.631   5.173
23955SOL    HW173698   7.858   3.714   5.125
23955SOL    HW273699   7.767   3.632   5.214
23956SOL     OW73700   9.408   5.421   3.532
23956SOL    HW173701   9.449   5.403   3.447
23956SOL    HW273702   9.390   5.515   3.530
23957SOL     OW73703   1.923   9.709  13.660
23957SOL    HW173704   2.013   9.736  13.682
23957SOL    HW273705   1.868   9.776  13.699
23958SOL     OW73706   9.511  12.056   9.798
23958SOL    HW173707   9.528  12.148   9.774
23958SOL    HW273708   9.539  12.051   9.890
23959SOL     OW73709  10.266   8.933  11.504
23959SOL    HW173710  10.303   8.876  11.571
23959SOL    HW273711  10.240   8.874  11.433
23960SOL     OW73712   1.057   5.626   3.600
23960SOL    HW173713   1.015   5.566   3.662
23960SOL    HW273714   0.985   5.673   3.559
23961SOL     OW73715   6.888  12.489   0.769
23961SOL    HW173716   6.908  12.582   0.780
23961SOL    HW273717   6.921  12.467   0.681
23962SOL     OW73718   8.690   5.168   7.888
23962SOL    HW173719   8.719   5.083   7.922
23962SOL    HW273720   8.687   5.155   7.793
23963SOL     OW73721   1.120   8.139  13.183
23963SOL    HW173722   1.062   8.065  13.199
23963SOL    HW273723   1.207   8.108  13.209
23964SOL     OW73724  12.793  11.496   4.208
23964SOL    HW173725  12.783  11.442   4.130
23964SOL    HW273726  12.826  11.436   4.275
23965SOL     OW73727   1.134   6.324  14.646
23965SOL    HW173728   1.100   6.258  14.706
23965SOL    HW273729   1.213   6.357  14.688
23966SOL     OW73730   4.464   3.844   5.690
23966SOL    HW173731   4.487   3.776   5.753
23966SOL    HW273732   4.459   3.925   5.742
23967SOL     OW73733   9.246  10.321  13.749
23967SOL    HW173734   9.214  10.246  13.801
23967SOL    HW273735   9.332  10.293  13.718
23968SOL     OW73736   2.765   8.197   2.139
23968SOL    HW173737   2.722   8.262   2.194
23968SOL    HW273738   2.704   8.184   2.066
23969SOL     OW73739  11.468   2.716   0.043
23969SOL    HW173740  11.563   2.703   0.047
23969SOL    HW273741  11.431   2.630   0.062
23970SOL     OW73742  12.000   4.038  14.300
23970SOL    HW173743  12.060   4.110  14.279
23970SOL    HW273744  12.043   3.960  14.265
23971SOL     OW73745   3.310  11.092  11.440
23971SOL    HW173746   3.271  11.005  11.436
23971SOL    HW273747   3.264  11.136  11.511
23972SOL     OW73748  14.762  11.022   3.157
23972SOL    HW173749  14.851  11.037   3.190
23972SOL    HW273750  14.706  11.063   3.222
23973SOL     OW73751   2.247  11.433   4.807
23973SOL    HW173752   2.254  11.500   4.738
23973SOL    HW273753   2.153  11.416   4.814
23974SOL     OW73754   7.954   8.395   0.181
23974SOL    HW173755   7.956   8.300   0.163
23974SOL    HW273756   7.932   8.401   0.273
23975SOL     OW73757   2.259  13.749   7.767
23975SOL    HW173758   2.297  13.768   7.852
23975SOL    HW273759   2.165  13.749   7.782
23976SOL     OW73760   3.549  10.396   5.783
23976SOL    HW173761   3.537  10.426   5.693
23976SOL    HW273762   3.483  10.327   5.794
23977SOL     OW73763   7.740  12.096   1.710
23977SOL    HW173764   7.826  12.082   1.748
23977SOL    HW273765   7.698  12.009   1.713
23978SOL     OW73766  10.510  10.987  12.766
23978SOL    HW173767  10.564  10.948  12.834
23978SOL    HW273768  10.565  11.056  12.728
23979SOL     OW73769   7.667  12.746  12.248
23979SOL    HW173770   7.707  12.683  12.308
23979SOL    HW273771   7.729  12.819  12.244
23980SOL     OW73772  12.227   8.294  12.493
23980SOL    HW173773  12.237   8.199  12.494
23980SOL    HW273774  12.157   8.312  12.555
23981SOL     OW73775  10.689   2.536  13.379
23981SOL    HW173776  10.680   2.590  13.300
23981SOL    HW273777  10.647   2.588  13.448
23982SOL     OW73778   0.784  10.221   7.459
23982SOL    HW173779   0.749  10.227   7.370
23982SOL    HW273780   0.879  10.222   7.448
23983SOL     OW73781   3.794   7.103   5.405
23983SOL    HW173782   3.879   7.110   5.361
23983SOL    HW273783   3.739   7.168   5.361
23984SOL     OW73784   0.150  11.260   5.959
23984SOL    HW173785   0.097  11.319   6.013
23984SOL    HW273786   0.100  11.248   5.879
23985SOL     OW73787   8.100   6.915  11.117
23985SOL    HW173788   8.104   6.856  11.042
23985SOL    HW273789   8.078   6.858  11.191
23986SOL     OW73790  11.851   7.982   4.947
23986SOL    HW173791  11.882   7.915   5.008
23986SOL    HW273792  11.779   8.025   4.993
23987SOL     OW73793  13.079   0.722   7.389
23987SOL    HW173794  13.079   0.651   7.326
23987SOL    HW273795  13.012   0.783   7.358
23988SOL     OW73796  11.687  12.345   9.962
23988SOL    HW173797  11.607  12.294   9.959
23988SOL    HW273798  11.664  12.423  10.014
23989SOL     OW73799   3.216   5.481   0.983
23989SOL    HW173800   3.312   5.483   0.978
23989SOL    HW273801   3.197   5.437   1.066
23990SOL     OW73802  13.092  10.875   2.121
23990SOL    HW173803  13.171  10.824   2.139
23990SOL    HW273804  13.122  10.965   2.117
23991SOL     OW73805   1.354  13.953   1.001
23991SOL    HW173806   1.324  13.891   0.936
23991SOL    HW273807   1.274  13.997   1.032
23992SOL     OW73808  10.157  13.269  14.259
23992SOL    HW173809  10.077  13.254  14.208
23992SOL    HW273810  10.145  13.356  14.297
23993SOL     OW73811  11.180   5.890   4.289
23993SOL    HW173812  11.206   5.834   4.362
23993SOL    HW273813  11.188   5.979   4.322
23994SOL     OW73814   8.416  12.329  14.076
23994SOL    HW173815   8.416  12.329  13.980
23994SOL    HW273816   8.378  12.245  14.100
23995SOL     OW73817  10.923   9.733  12.167
23995SOL    HW173818  10.956   9.736  12.077
23995SOL    HW273819  10.970   9.803  12.212
23996SOL     OW73820   9.011   0.197  13.159
23996SOL    HW173821   9.035   0.231  13.073
23996SOL    HW273822   9.095   0.175  13.200
23997SOL     OW73823   3.475   7.983  13.609
23997SOL    HW173824   3.453   7.950  13.521
23997SOL    HW273825   3.530   8.060  13.592
23998SOL     OW73826  12.860  10.096   4.768
23998SOL    HW173827  12.928  10.162   4.781
23998SOL    HW273828  12.909  10.016   4.748
23999SOL     OW73829   3.885  13.988  13.778
23999SOL    HW173830   3.806  13.933  13.783
23999SOL    HW273831   3.893  14.010  13.685
24000SOL     OW73832   3.783  14.310  10.463
24000SOL    HW173833   3.776  14.368  10.387
24000SOL    HW273834   3.716  14.341  10.524
24001SOL     OW73835   5.501   2.587   0.813
24001SOL    HW173836   5.486   2.675   0.780
24001SOL    HW273837   5.550   2.600   0.894
24002SOL     OW73838   7.900   7.197   7.095
24002SOL    HW173839   7.809   7.198   7.065
24002SOL    HW273840   7.894   7.202   7.191
24003SOL     OW73841  10.182   8.536  10.062
24003SOL    HW173842  10.141   8.531  10.148
24003SOL    HW273843  10.276   8.527  10.079
24004SOL     OW73844   1.015   8.354   3.701
24004SOL    HW173845   1.098   8.354   3.748
24004SOL    HW273846   0.948   8.354   3.770
24005SOL     OW73847  12.094   4.559   6.413
24005SOL    HW173848  12.185   4.583   6.431
24005SOL    HW273849  12.071   4.610   6.335
24006SOL     OW73850   3.690  13.706   9.776
24006SOL    HW173851   3.645  13.790   9.769
24006SOL    HW273852   3.758  13.710   9.708
24007SOL     OW73853   0.568  14.308   9.080
24007SOL    HW173854   0.541  14.224   9.117
24007SOL    HW273855   0.487  14.346   9.046
24008SOL     OW73856   0.202   5.837   6.244
24008SOL    HW173857   0.273   5.848   6.308
24008SOL    HW273858   0.127   5.809   6.295
24009SOL     OW73859   3.201   0.630  13.826
24009SOL    HW173860   3.235   0.562  13.767
24009SOL    HW273861   3.145   0.582  13.887
24010SOL     OW73862  11.868  13.996   7.212
24010SOL    HW173863  11.900  13.986   7.123
24010SOL    HW273864  11.891  13.914   7.255
24011SOL     OW73865  11.025   7.785   2.395
24011SOL    HW173866  10.999   7.702   2.355
24011SOL    HW273867  10.954   7.804   2.457
24012SOL     OW73868  11.627   9.156   8.531
24012SOL    HW173869  11.580   9.076   8.553
24012SOL    HW273870  11.670   9.182   8.613
24013SOL     OW73871   4.768   3.752   7.600
24013SOL    HW173872   4.853   3.726   7.634
24013SOL    HW273873   4.783   3.769   7.507
24014SOL     OW73874   1.698   8.410  10.299
24014SOL    HW173875   1.625   8.409  10.237
24014SOL    HW273876   1.750   8.333  10.277
24015SOL     OW73877   7.697   2.613   7.038
24015SOL    HW173878   7.792   2.607   7.034
24015SOL    HW273879   7.669   2.530   7.076
24016SOL     OW73880   6.343   7.381   9.529
24016SOL    HW173881   6.339   7.324   9.606
24016SOL    HW273882   6.257   7.372   9.489
24017SOL     OW73883   7.356   6.826  11.478
24017SOL    HW173884   7.383   6.810  11.387
24017SOL    HW273885   7.399   6.909  11.501
24018SOL     OW73886   3.198   3.305   8.499
24018SOL    HW173887   3.125   3.325   8.558
24018SOL    HW273888   3.188   3.368   8.428
24019SOL     OW73889   1.361   5.443   5.367
24019SOL    HW173890   1.284   5.492   5.396
24019SOL    HW273891   1.422   5.451   5.441
24020SOL     OW73892   9.763   6.278   4.136
24020SOL    HW173893   9.844   6.267   4.186
24020SOL    HW273894   9.718   6.351   4.178
24021SOL     OW73895   6.377   4.577   0.889
24021SOL    HW173896   6.408   4.519   0.819
24021SOL    HW273897   6.327   4.645   0.844
24022SOL     OW73898   7.124  12.510   7.445
24022SOL    HW173899   7.148  12.425   7.482
24022SOL    HW273900   7.052  12.541   7.502
24023SOL     OW73901  10.200   8.847   3.479
24023SOL    HW173902  10.232   8.916   3.420
24023SOL    HW273903  10.117   8.881   3.512
24024SOL     OW73904   5.921  11.927   5.963
24024SOL    HW173905   5.930  11.832   5.956
24024SOL    HW273906   6.007  11.958   5.993
24025SOL     OW73907   3.217   8.861   8.231
24025SOL    HW173908   3.274   8.938   8.236
24025SOL    HW273909   3.272   8.789   8.262
24026SOL     OW73910   8.004  11.280   4.160
24026SOL    HW173911   8.030  11.189   4.172
24026SOL    HW273912   7.950  11.299   4.237
24027SOL     OW73913   7.771   8.841   0.178
24027SOL    HW173914   7.860   8.806   0.186
24027SOL    HW273915   7.738   8.804   0.096
24028SOL     OW73916   1.973  12.616   5.131
24028SOL    HW173917   2.003  12.685   5.191
24028SOL    HW273918   2.043  12.550   5.133
24029SOL     OW73919  12.663   4.547   1.239
24029SOL    HW173920  12.630   4.586   1.319
24029SOL    HW273921  12.602   4.475   1.220
24030SOL     OW73922   8.952   1.530   4.971
24030SOL    HW173923   8.996   1.591   5.030
24030SOL    HW273924   8.861   1.560   4.968
24031SOL     OW73925  11.664   5.008   1.178
24031SOL    HW173926  11.663   4.937   1.242
24031SOL    HW273927  11.675   4.964   1.093
24032SOL     OW73928   5.225   1.055  13.227
24032SOL    HW173929   5.266   1.134  13.260
24032SOL    HW273930   5.247   0.987  13.291
24033SOL     OW73931  10.647  11.152   5.887
24033SOL    HW173932  10.551  11.154   5.885
24033SOL    HW273933  10.672  11.242   5.907
24034SOL     OW73934  12.691   6.445   8.301
24034SOL    HW173935  12.785   6.435   8.318
24034SOL    HW273936  12.650   6.376   8.355
24035SOL     OW73937   9.239   2.672  13.770
24035SOL    HW173938   9.262   2.710  13.855
24035SOL    HW273939   9.322   2.639  13.736
24036SOL     OW73940   6.264  11.171   0.130
24036SOL    HW173941   6.320  11.210   0.196
24036SOL    HW273942   6.322  11.156   0.055
24037SOL     OW73943   9.386   6.299   1.928
24037SOL    HW173944   9.329   6.325   2.001
24037SOL    HW273945   9.383   6.203   1.928
24038SOL     OW73946  11.870   1.441   0.377
24038SOL    HW173947  11.950   1.437   0.429
24038SOL    HW273948  11.893   1.495   0.302
24039SOL     OW73949  12.579   5.633   1.199
24039SOL    HW173950  12.571   5.710   1.143
24039SOL    HW273951  12.510   5.643   1.265
24040SOL     OW73952   0.771   6.713   6.138
24040SOL    HW173953   0.717   6.634   6.146
24040SOL    HW273954   0.856   6.687   6.173
24041SOL     OW73955   7.997  13.718   4.836
24041SOL    HW173956   7.938  13.720   4.911
24041SOL    HW273957   8.004  13.625   4.814
24042SOL     OW73958   0.513   0.877  13.582
24042SOL    HW173959   0.548   0.958  13.618
24042SOL    HW273960   0.589   0.826  13.556
24043SOL     OW73961  14.017   5.720  13.512
24043SOL    HW173962  14.065   5.803  13.507
24043SOL    HW273963  14.022   5.695  13.604
24044SOL     OW73964  13.937   2.769   4.957
24044SOL    HW173965  13.911   2.784   4.867
24044SOL    HW273966  13.961   2.855   4.991
24045SOL     OW73967   7.782  11.937   7.590
24045SOL    HW173968   7.712  11.966   7.532
24045SOL    HW273969   7.843  11.890   7.534
24046SOL     OW73970  14.283   7.358  10.211
24046SOL    HW173971  14.191   7.366  10.185
24046SOL    HW273972  14.284   7.384  10.303
24047SOL     OW73973  11.769   9.245  10.271
24047SOL    HW173974  11.789   9.238  10.177
24047SOL    HW273975  11.673   9.249  10.274
24048SOL     OW73976   2.116   2.923   8.157
24048SOL    HW173977   2.067   2.860   8.210
24048SOL    HW273978   2.185   2.955   8.216
24049SOL     OW73979   0.276   7.265  11.630
24049SOL    HW173980   0.187   7.237  11.650
24049SOL    HW273981   0.267   7.326  11.557
24050SOL     OW73982   7.858   8.245   6.355
24050SOL    HW173983   7.821   8.203   6.277
24050SOL    HW273984   7.842   8.339   6.342
24051SOL     OW73985  10.486   7.145   1.908
24051SOL    HW173986  10.445   7.209   1.967
24051SOL    HW273987  10.458   7.060   1.942
24052SOL     OW73988   4.849   7.205   1.624
24052SOL    HW173989   4.884   7.144   1.558
24052SOL    HW273990   4.924   7.260   1.646
24053SOL     OW73991   5.770   0.001   7.286
24053SOL    HW173992   5.732   0.043   7.363
24053SOL    HW273993   5.842   0.058   7.260
24054SOL     OW73994   3.407  12.934   8.934
24054SOL    HW173995   3.470  12.997   8.900
24054SOL    HW273996   3.333  12.987   8.963
24055SOL     OW73997   5.837   0.609  13.093
24055SOL    HW173998   5.894   0.588  13.019
24055SOL    HW273999   5.891   0.665  13.149
24056SOL     OW74000   8.164   6.591   7.387
24056SOL    HW174001   8.190   6.571   7.297
24056SOL    HW274002   8.098   6.659   7.378
24057SOL     OW74003  11.002  13.890   1.001
24057SOL    HW174004  11.071  13.882   0.935
24057SOL    HW274005  11.026  13.825   1.068
24058SOL     OW74006  12.120  10.950   6.812
24058SOL    HW174007  12.065  10.938   6.734
24058SOL    HW274008  12.207  10.920   6.785
24059SOL     OW74009   9.286  14.598   5.467
24059SOL    HW174010   9.203  14.615   5.423
24059SOL    HW274011   9.347  14.660   5.428
24060SOL     OW74012  10.048  11.652   3.526
24060SOL    HW174013  10.094  11.736   3.516
24060SOL    HW274014   9.994  11.645   3.448
24061SOL     OW74015   7.675   4.822  10.859
24061SOL    HW174016   7.726   4.814  10.939
24061SOL    HW274017   7.715   4.893  10.811
24062SOL     OW74018  10.479   5.750   0.713
24062SOL    HW174019  10.566   5.722   0.743
24062SOL    HW274020  10.481   5.846   0.718
24063SOL     OW74021  14.049  12.326   7.632
24063SOL    HW174022  14.110  12.252   7.635
24063SOL    HW274023  14.103  12.401   7.608
24064SOL     OW74024   9.244   5.774   8.674
24064SOL    HW174025   9.310   5.796   8.740
24064SOL    HW274026   9.177   5.725   8.722
24065SOL     OW74027   3.086   7.183  13.276
24065SOL    HW174028   3.152   7.248  13.252
24065SOL    HW274029   3.004   7.232  13.283
24066SOL     OW74030   7.908  10.301  13.945
24066SOL    HW174031   7.837  10.348  13.988
24066SOL    HW274032   7.931  10.357  13.870
24067SOL     OW74033  12.790  10.538   8.161
24067SOL    HW174034  12.860  10.584   8.114
24067SOL    HW274035  12.725  10.607   8.180
24068SOL     OW74036   4.471  14.284  11.929
24068SOL    HW174037   4.437  14.237  12.005
24068SOL    HW274038   4.502  14.216  11.871
24069SOL     OW74039   9.721  12.497   7.113
24069SOL    HW174040   9.742  12.588   7.134
24069SOL    HW274041   9.806  12.455   7.102
24070SOL     OW74042  13.872   9.535   0.668
24070SOL    HW174043  13.872   9.607   0.732
24070SOL    HW274044  13.798   9.553   0.611
24071SOL     OW74045   4.959  10.357   2.180
24071SOL    HW174046   5.020  10.430   2.168
24071SOL    HW274047   4.881  10.397   2.219
24072SOL     OW74048   7.804   9.535   3.502
24072SOL    HW174049   7.791   9.459   3.558
24072SOL    HW274050   7.766   9.510   3.418
24073SOL     OW74051   1.354   1.870  10.072
24073SOL    HW174052   1.305   1.931  10.126
24073SOL    HW274053   1.333   1.896   9.982
24074SOL     OW74054   5.290   6.626   9.029
24074SOL    HW174055   5.343   6.702   9.054
24074SOL    HW274056   5.248   6.653   8.948
24075SOL     OW74057  13.698  13.740   3.767
24075SOL    HW174058  13.623  13.689   3.799
24075SOL    HW274059  13.728  13.789   3.843
24076SOL     OW74060  13.562   8.769   8.001
24076SOL    HW174061  13.601   8.749   8.086
24076SOL    HW274062  13.619   8.837   7.964
24077SOL     OW74063   4.859  11.611  14.288
24077SOL    HW174064   4.919  11.582  14.219
24077SOL    HW274065   4.915  11.619  14.366
24078SOL     OW74066   1.993   7.188  10.686
24078SOL    HW174067   1.922   7.250  10.698
24078SOL    HW274068   2.037   7.185  10.771
24079SOL     OW74069   3.177   2.149  10.893
24079SOL    HW174070   3.109   2.117  10.834
24079SOL    HW274071   3.253   2.093  10.875
24080SOL     OW74072   8.746  12.530   2.511
24080SOL    HW174073   8.751  12.467   2.583
24080SOL    HW274074   8.775  12.613   2.549
24081SOL     OW74075   3.181  12.694  12.467
24081SOL    HW174076   3.121  12.624  12.495
24081SOL    HW274077   3.164  12.703  12.373
24082SOL     OW74078  13.210   7.718  11.329
24082SOL    HW174079  13.127   7.707  11.375
24082SOL    HW274080  13.185   7.726  11.237
24083SOL     OW74081  12.162   3.595   0.438
24083SOL    HW174082  12.104   3.596   0.362
24083SOL    HW274083  12.143   3.512   0.481
24084SOL     OW74084   3.910   8.878  13.689
24084SOL    HW174085   4.003   8.865  13.670
24084SOL    HW274086   3.892   8.817  13.761
24085SOL     OW74087   6.132  11.160   6.421
24085SOL    HW174088   6.195  11.222   6.459
24085SOL    HW274089   6.177  11.121   6.347
24086SOL     OW74090   8.197   0.152   3.474
24086SOL    HW174091   8.133   0.136   3.405
24086SOL    HW274092   8.223   0.065   3.504
24087SOL     OW74093   9.101  14.480  13.807
24087SOL    HW174094   9.067  14.433  13.731
24087SOL    HW274095   9.115  14.569  13.775
24088SOL     OW74096  11.961   1.246   9.848
24088SOL    HW174097  12.030   1.202   9.799
24088SOL    HW274098  11.978   1.222   9.940
24089SOL     OW74099   1.519   2.435   6.601
24089SOL    HW174100   1.495   2.343   6.605
24089SOL    HW274101   1.602   2.441   6.648
24090SOL     OW74102   7.738   9.885  13.417
24090SOL    HW174103   7.687   9.835  13.354
24090SOL    HW274104   7.783   9.951  13.364
24091SOL     OW74105   8.658   3.288   6.789
24091SOL    HW174106   8.684   3.379   6.776
24091SOL    HW274107   8.620   3.262   6.705
24092SOL     OW74108  10.089  13.529   9.079
24092SOL    HW174109  10.072  13.598   9.143
24092SOL    HW274110  10.024  13.545   9.010
24093SOL     OW74111  11.823   0.861  12.624
24093SOL    HW174112  11.739   0.818  12.609
24093SOL    HW274113  11.875   0.841  12.545
24094SOL     OW74114   1.915   8.028  11.996
24094SOL    HW174115   1.976   7.954  12.001
24094SOL    HW274116   1.955   8.094  12.052
24095SOL     OW74117  12.963   9.013   5.851
24095SOL    HW174118  13.017   8.979   5.921
24095SOL    HW274119  12.876   9.025   5.890
24096SOL     OW74120  12.308   5.752   9.855
24096SOL    HW174121  12.273   5.687   9.916
24096SOL    HW274122  12.233   5.774   9.798
24097SOL     OW74123   8.645  13.248  10.036
24097SOL    HW174124   8.681  13.242  10.124
24097SOL    HW274125   8.570  13.189  10.037
24098SOL     OW74126  10.605  11.350   8.515
24098SOL    HW174127  10.691  11.309   8.505
24098SOL    HW274128  10.587  11.348   8.609
24099SOL     OW74129   8.213   3.915   4.299
24099SOL    HW174130   8.273   3.847   4.332
24099SOL    HW274131   8.271   3.987   4.273
24100SOL     OW74132   5.046   9.504   8.647
24100SOL    HW174133   4.972   9.546   8.692
24100SOL    HW274134   5.119   9.513   8.709
24101SOL     OW74135   4.531   6.795   8.956
24101SOL    HW174136   4.536   6.885   8.987
24101SOL    HW274137   4.579   6.744   9.022
24102SOL     OW74138  11.613   7.832   4.614
24102SOL    HW174139  11.557   7.811   4.689
24102SOL    HW274140  11.551   7.842   4.541
24103SOL     OW74141   1.744   9.048   0.092
24103SOL    HW174142   1.669   9.014   0.043
24103SOL    HW274143   1.710   9.123   0.140
24104SOL     OW74144   8.476  11.739   5.592
24104SOL    HW174145   8.483  11.751   5.498
24104SOL    HW274146   8.434  11.818   5.624
24105SOL     OW74147   3.309  12.669   5.047
24105SOL    HW174148   3.222  12.668   5.006
24105SOL    HW274149   3.292  12.690   5.139
24106SOL     OW74150   2.704   6.346   3.014
24106SOL    HW174151   2.689   6.417   2.952
24106SOL    HW274152   2.727   6.389   3.096
24107SOL     OW74153  10.791   0.497   6.632
24107SOL    HW174154  10.762   0.434   6.697
24107SOL    HW274155  10.875   0.463   6.601
24108SOL     OW74156  10.694   6.031  14.049
24108SOL    HW174157  10.774   5.980  14.040
24108SOL    HW274158  10.723   6.121  14.060
24109SOL     OW74159   7.915   3.518  14.828
24109SOL    HW174160   7.866   3.436  14.835
24109SOL    HW274161   7.916   3.552   0.045
24110SOL     OW74162  12.339   2.179   6.193
24110SOL    HW174163  12.342   2.093   6.152
24110SOL    HW274164  12.427   2.215   6.179
24111SOL     OW74165  13.714   4.726   5.782
24111SOL    HW174166  13.657   4.668   5.733
24111SOL    HW274167  13.785   4.671   5.813
24112SOL     OW74168  10.440   2.663  12.349
24112SOL    HW174169  10.504   2.683  12.418
24112SOL    HW274170  10.419   2.747  12.310
24113SOL     OW74171  12.447   8.273  13.773
24113SOL    HW174172  12.445   8.321  13.689
24113SOL    HW274173  12.537   8.283  13.803
24114SOL     OW74174   9.626   0.057   7.230
24114SOL    HW174175   9.663   0.126   7.284
24114SOL    HW274176   9.631  14.851   7.285
24115SOL     OW74177  13.556   1.395  10.925
24115SOL    HW174178  13.483   1.385  10.987
24115SOL    HW274179  13.567   1.308  10.887
24116SOL     OW74180   8.641  10.805  11.247
24116SOL    HW174181   8.602  10.891  11.263
24116SOL    HW274182   8.589  10.767  11.177
24117SOL     OW74183  12.039   7.360   3.308
24117SOL    HW174184  11.991   7.394   3.384
24117SOL    HW274185  11.995   7.278   3.286
24118SOL     OW74186  12.647   0.908   5.143
24118SOL    HW174187  12.580   0.899   5.075
24118SOL    HW274188  12.614   0.856   5.216
24119SOL     OW74189  12.340   9.884   6.023
24119SOL    HW174190  12.429   9.885   5.990
24119SOL    HW274191  12.322   9.791   6.040
24120SOL     OW74192   2.466   5.149   9.036
24120SOL    HW174193   2.441   5.185   9.121
24120SOL    HW274194   2.438   5.057   9.040
24121SOL     OW74195  12.858   0.816   4.067
24121SOL    HW174196  12.774   0.776   4.047
24121SOL    HW274197  12.860   0.896   4.014
24122SOL     OW74198   2.781  11.136  13.468
24122SOL    HW174199   2.827  11.094  13.540
24122SOL    HW274200   2.809  11.228  13.472
24123SOL     OW74201  12.652  13.632   0.221
24123SOL    HW174202  12.611  13.695   0.280
24123SOL    HW274203  12.723  13.593   0.272
24124SOL     OW74204   9.000   6.268  12.960
24124SOL    HW174205   9.061   6.284  12.889
24124SOL    HW274206   8.995   6.351  13.008
24125SOL     OW74207   5.706   5.589  10.999
24125SOL    HW174208   5.705   5.683  10.982
24125SOL    HW274209   5.798   5.564  10.989
24126SOL     OW74210   9.888  10.285  10.522
24126SOL    HW174211   9.906  10.286  10.616
24126SOL    HW274212   9.895  10.193  10.498
24127SOL     OW74213   9.036  14.383   6.647
24127SOL    HW174214   8.944  14.375   6.625
24127SOL    HW274215   9.076  14.304   6.611
24128SOL     OW74216   3.580   5.238   1.456
24128SOL    HW174217   3.611   5.328   1.463
24128SOL    HW274218   3.648   5.194   1.405
24129SOL     OW74219   3.214   0.027  12.829
24129SOL    HW174220   3.227   0.004  12.921
24129SOL    HW274221   3.281  14.850  12.782
24130SOL     OW74222   4.631  12.784   7.304
24130SOL    HW174223   4.553  12.730   7.314
24130SOL    HW274224   4.624  12.850   7.372
24131SOL     OW74225   5.798   5.761   9.761
24131SOL    HW174226   5.732   5.694   9.781
24131SOL    HW274227   5.763   5.842   9.798
24132SOL     OW74228   4.275  14.479  10.700
24132SOL    HW174229   4.199  14.536  10.689
24132SOL    HW274230   4.316  14.478  10.613
24133SOL     OW74231   6.493  14.635  13.385
24133SOL    HW174232   6.465  14.562  13.441
24133SOL    HW274233   6.435  14.707  13.409
24134SOL     OW74234  10.476   6.245   5.746
24134SOL    HW174235  10.468   6.154   5.773
24134SOL    HW274236  10.421   6.294   5.807
24135SOL     OW74237  10.898   5.956   8.769
24135SOL    HW174238  10.887   5.931   8.861
24135SOL    HW274239  10.993   5.951   8.754
24136SOL     OW74240  11.841  12.483   4.246
24136SOL    HW174241  11.869  12.500   4.336
24136SOL    HW274242  11.917  12.508   4.192
24137SOL     OW74243  13.451   4.092  12.801
24137SOL    HW174244  13.417   4.044  12.726
24137SOL    HW274245  13.477   4.177  12.766
24138SOL     OW74246  11.361   7.845   8.233
24138SOL    HW174247  11.412   7.855   8.152
24138SOL    HW274248  11.279   7.804   8.205
24139SOL     OW74249   1.076  13.640  11.531
24139SOL    HW174250   1.032  13.623  11.614
24139SOL    HW274251   1.024  13.592  11.466
24140SOL     OW74252   6.656   4.529  14.731
24140SOL    HW174253   6.671   4.596  14.665
24140SOL    HW274254   6.743   4.490  14.746
24141SOL     OW74255   3.026   7.739   3.743
24141SOL    HW174256   3.039   7.670   3.679
24141SOL    HW274257   3.100   7.798   3.732
24142SOL     OW74258   0.524   8.489   3.733
24142SOL    HW174259   0.433   8.491   3.762
24142SOL    HW274260   0.541   8.397   3.712
24143SOL     OW74261  14.289   4.148   7.968
24143SOL    HW174262  14.308   4.092   7.893
24143SOL    HW274263  14.368   4.201   7.980
24144SOL     OW74264   4.267   3.808   1.876
24144SOL    HW174265   4.226   3.770   1.953
24144SOL    HW274266   4.332   3.742   1.849
24145SOL     OW74267   9.890   7.526  11.868
24145SOL    HW174268   9.814   7.469  11.883
24145SOL    HW274269   9.933   7.530  11.953
24146SOL     OW74270  11.837   2.670   3.695
24146SOL    HW174271  11.799   2.724   3.764
24146SOL    HW274272  11.925   2.649   3.728
24147SOL     OW74273   3.897  14.046   7.156
24147SOL    HW174274   3.813  14.048   7.111
24147SOL    HW274275   3.962  14.060   7.087
24148SOL     OW74276   0.672   7.634   6.590
24148SOL    HW174277   0.749   7.612   6.538
24148SOL    HW274278   0.700   7.708   6.645
24149SOL     OW74279   0.514   4.152   4.139
24149SOL    HW174280   0.443   4.092   4.118
24149SOL    HW274281   0.473   4.238   4.144
24150SOL     OW74282  12.299   0.169   3.932
24150SOL    HW174283  12.247   0.250   3.933
24150SOL    HW274284  12.330   0.159   4.022
24151SOL     OW74285  13.712  13.263   7.689
24151SOL    HW174286  13.722  13.358   7.700
24151SOL    HW274287  13.720  13.248   7.595
24152SOL     OW74288  13.528   6.319   1.217
24152SOL    HW174289  13.510   6.352   1.305
24152SOL    HW274290  13.545   6.225   1.229
24153SOL     OW74291   4.238  13.696  12.657
24153SOL    HW174292   4.190  13.628  12.705
24153SOL    HW274293   4.188  13.708  12.577
24154SOL     OW74294   9.593   8.506   8.500
24154SOL    HW174295   9.571   8.529   8.590
24154SOL    HW274296   9.663   8.566   8.475
24155SOL     OW74297  14.709   9.977   7.735
24155SOL    HW174298  14.738   9.962   7.645
24155SOL    HW274299  14.736  10.067   7.754
24156SOL     OW74300  11.920   1.030  11.313
24156SOL    HW174301  11.986   1.007  11.248
24156SOL    HW274302  11.961   1.101  11.364
24157SOL     OW74303  10.062  11.419  13.691
24157SOL    HW174304  10.013  11.501  13.686
24157SOL    HW274305  10.007  11.356  13.644
24158SOL     OW74306   2.580   2.558   9.456
24158SOL    HW174307   2.624   2.481   9.491
24158SOL    HW274308   2.588   2.624   9.524
24159SOL     OW74309   5.130  10.003   3.084
24159SOL    HW174310   5.176  10.008   3.000
24159SOL    HW274311   5.075   9.925   3.076
24160SOL     OW74312   3.530  11.680   1.658
24160SOL    HW174313   3.442  11.658   1.687
24160SOL    HW274314   3.528  11.665   1.563
24161SOL     OW74315   8.398   8.367   2.976
24161SOL    HW174316   8.458   8.388   2.905
24161SOL    HW274317   8.316   8.410   2.952
24162SOL     OW74318   3.269   2.095   1.485
24162SOL    HW174319   3.297   2.009   1.516
24162SOL    HW274320   3.195   2.117   1.542
24163SOL     OW74321  14.359  14.063   2.334
24163SOL    HW174322  14.446  14.023   2.338
24163SOL    HW274323  14.306  14.013   2.396
24164SOL     OW74324  11.241   0.524   8.425
24164SOL    HW174325  11.239   0.480   8.510
24164SOL    HW274326  11.248   0.453   8.361
24165SOL     OW74327  11.160   4.186   4.896
24165SOL    HW174328  11.065   4.191   4.888
24165SOL    HW274329  11.186   4.270   4.933
24166SOL     OW74330  13.461  11.738   1.721
24166SOL    HW174331  13.551  11.723   1.749
24166SOL    HW274332  13.451  11.834   1.723
24167SOL     OW74333   4.331   1.387   4.968
24167SOL    HW174334   4.282   1.311   4.998
24167SOL    HW274335   4.421   1.355   4.957
24168SOL     OW74336   2.338   8.214   9.165
24168SOL    HW174337   2.394   8.165   9.225
24168SOL    HW274338   2.399   8.263   9.110
24169SOL     OW74339   3.368   2.969  11.565
24169SOL    HW174340   3.437   3.000  11.506
24169SOL    HW274341   3.300   2.936  11.507
24170SOL     OW74342  11.021   1.062   4.659
24170SOL    HW174343  11.108   1.097   4.641
24170SOL    HW274344  10.961   1.124   4.616
24171SOL     OW74345  13.240   4.172   4.555
24171SOL    HW174346  13.244   4.076   4.557
24171SOL    HW274347  13.305   4.199   4.620
24172SOL     OW74348   8.135   2.625   7.989
24172SOL    HW174349   8.223   2.652   7.962
24172SOL    HW274350   8.125   2.537   7.954
24173SOL     OW74351   9.086   8.804   7.193
24173SOL    HW174352   9.075   8.794   7.098
24173SOL    HW274353   9.179   8.786   7.207
24174SOL     OW74354   2.573   8.442   2.850
24174SOL    HW174355   2.578   8.514   2.913
24174SOL    HW274356   2.597   8.482   2.766
24175SOL     OW74357   0.108   0.007   2.386
24175SOL    HW174358   0.070  14.837   2.309
24175SOL    HW274359   0.186  14.828   2.405
24176SOL     OW74360   8.516  10.790   8.981
24176SOL    HW174361   8.568  10.804   8.902
24176SOL    HW274362   8.441  10.737   8.952
24177SOL     OW74363   6.105   4.586   8.173
24177SOL    HW174364   6.165   4.522   8.134
24177SOL    HW274365   6.145   4.671   8.154
24178SOL     OW74366   3.448  11.159  12.169
24178SOL    HW174367   3.492  11.078  12.193
24178SOL    HW274368   3.371  11.131  12.120
24179SOL     OW74369  10.057   0.937  12.731
24179SOL    HW174370  10.039   0.878  12.804
24179SOL    HW274371  10.033   0.888  12.653
24180SOL     OW74372   6.096  14.840  12.714
24180SOL    HW174373   6.155  14.842  12.639
24180SOL    HW274374   6.150  14.813  12.787
24181SOL     OW74375   3.036   3.845  11.867
24181SOL    HW174376   3.077   3.928  11.841
24181SOL    HW274377   3.084   3.818  11.945
24182SOL     OW74378   4.519   4.914   5.082
24182SOL    HW174379   4.563   4.971   5.019
24182SOL    HW274380   4.444   4.965   5.113
24183SOL     OW74381   9.261   6.743   9.829
24183SOL    HW174382   9.237   6.799   9.756
24183SOL    HW274383   9.190   6.753   9.892
24184SOL     OW74384   9.789   5.255  13.273
24184SOL    HW174385   9.810   5.177  13.324
24184SOL    HW274386   9.696   5.271  13.292
24185SOL     OW74387  12.277  10.578   5.441
24185SOL    HW174388  12.191  10.556   5.476
24185SOL    HW274389  12.331  10.501   5.458
24186SOL     OW74390  11.244  13.099   6.601
24186SOL    HW174391  11.163  13.064   6.564
24186SOL    HW274392  11.309  13.032   6.581
24187SOL     OW74393   5.552   7.248  11.368
24187SOL    HW174394   5.570   7.154  11.370
24187SOL    HW274395   5.531   7.267  11.277
24188SOL     OW74396   4.862   4.882   5.074
24188SOL    HW174397   4.879   4.974   5.058
24188SOL    HW274398   4.922   4.858   5.145
24189SOL     OW74399   0.199   0.078   6.939
24189SOL    HW174400   0.222   0.117   7.023
24189SOL    HW274401   0.113   0.037   6.955
24190SOL     OW74402   8.116   8.194   5.788
24190SOL    HW174403   8.129   8.285   5.813
24190SOL    HW274404   8.032   8.192   5.744
24191SOL     OW74405   9.782   4.824  11.365
24191SOL    HW174406   9.859   4.771  11.343
24191SOL    HW274407   9.729   4.767  11.420
24192SOL     OW74408   2.126   3.845   6.250
24192SOL    HW174409   2.133   3.750   6.239
24192SOL    HW274410   2.045   3.858   6.300
24193SOL     OW74411   3.370  13.604   2.322
24193SOL    HW174412   3.421  13.683   2.303
24193SOL    HW274413   3.328  13.582   2.238
24194SOL     OW74414   7.609   5.880   4.523
24194SOL    HW174415   7.697   5.899   4.490
24194SOL    HW274416   7.579   5.807   4.469
24195SOL     OW74417  11.188  13.015  13.206
24195SOL    HW174418  11.097  12.992  13.225
24195SOL    HW274419  11.235  12.932  13.206
24196SOL     OW74420   0.547  10.897   7.992
24196SOL    HW174421   0.580  10.927   8.077
24196SOL    HW274422   0.492  10.822   8.013
24197SOL     OW74423   4.371   8.072   8.817
24197SOL    HW174424   4.459   8.079   8.781
24197SOL    HW274425   4.371   8.131   8.892
24198SOL     OW74426   4.142   5.758  11.191
24198SOL    HW174427   4.228   5.755  11.149
24198SOL    HW274428   4.079   5.761  11.119
24199SOL     OW74429  11.462   2.127   6.660
24199SOL    HW174430  11.512   2.208   6.669
24199SOL    HW274431  11.371   2.156   6.653
24200SOL     OW74432   3.975  11.177   0.602
24200SOL    HW174433   3.901  11.123   0.633
24200SOL    HW274434   4.051  11.121   0.613
24201SOL     OW74435   3.268   7.089   9.759
24201SOL    HW174436   3.211   7.165   9.773
24201SOL    HW274437   3.347   7.108   9.809
24202SOL     OW74438   9.499   6.028  10.172
24202SOL    HW174439   9.484   5.998  10.083
24202SOL    HW274440   9.522   6.120  10.163
24203SOL     OW74441   0.745   8.768   5.054
24203SOL    HW174442   0.670   8.790   5.108
24203SOL    HW274443   0.720   8.686   5.010
24204SOL     OW74444   9.716   4.977   0.719
24204SOL    HW174445   9.792   4.968   0.777
24204SOL    HW274446   9.717   4.898   0.666
24205SOL     OW74447  11.794   3.830   4.506
24205SOL    HW174448  11.718   3.774   4.520
24205SOL    HW274449  11.783   3.901   4.569
24206SOL     OW74450   6.645   0.032   0.860
24206SOL    HW174451   6.608  14.855   0.933
24206SOL    HW274452   6.669  14.839   0.795
24207SOL     OW74453   8.474   2.607  11.939
24207SOL    HW174454   8.498   2.559  11.860
24207SOL    HW274455   8.402   2.557  11.976
24208SOL     OW74456  13.505   7.972   7.726
24208SOL    HW174457  13.552   7.894   7.697
24208SOL    HW274458  13.541   7.990   7.813
24209SOL     OW74459  14.636   2.438   3.983
24209SOL    HW174460  14.588   2.393   4.052
24209SOL    HW274461  14.589   2.417   3.902
24210SOL     OW74462   5.789  14.609   3.804
24210SOL    HW174463   5.796  14.574   3.893
24210SOL    HW274464   5.876  14.643   3.784
24211SOL     OW74465   3.620   2.297   6.726
24211SOL    HW174466   3.677   2.273   6.653
24211SOL    HW274467   3.671   2.278   6.804
24212SOL     OW74468   9.268   9.670   2.272
24212SOL    HW174469   9.275   9.583   2.310
24212SOL    HW274470   9.174   9.687   2.266
24213SOL     OW74471   9.301   0.511   9.289
24213SOL    HW174472   9.280   0.442   9.226
24213SOL    HW274473   9.262   0.590   9.252
24214SOL     OW74474   3.403   1.885  11.230
24214SOL    HW174475   3.491   1.899  11.267
24214SOL    HW274476   3.371   1.974  11.211
24215SOL     OW74477  11.129  10.941   0.945
24215SOL    HW174478  11.050  10.982   0.911
24215SOL    HW274479  11.167  10.896   0.869
24216SOL     OW74480   2.672   7.235  11.469
24216SOL    HW174481   2.756   7.191  11.478
24216SOL    HW274482   2.633   7.230  11.556
24217SOL     OW74483   7.280   5.159  12.176
24217SOL    HW174484   7.251   5.166  12.085
24217SOL    HW274485   7.375   5.162  12.172
24218SOL     OW74486  13.280   3.310  11.278
24218SOL    HW174487  13.278   3.233  11.336
24218SOL    HW274488  13.273   3.273  11.190
24219SOL     OW74489   7.446   2.077   8.954
24219SOL    HW174490   7.400   2.085   9.038
24219SOL    HW274491   7.538   2.078   8.978
24220SOL     OW74492  14.136  11.464   5.637
24220SOL    HW174493  14.165  11.511   5.559
24220SOL    HW274494  14.103  11.532   5.695
24221SOL     OW74495   4.547   6.364   9.343
24221SOL    HW174496   4.517   6.452   9.365
24221SOL    HW274497   4.466   6.315   9.325
24222SOL     OW74498   7.681   4.226   7.075
24222SOL    HW174499   7.629   4.302   7.050
24222SOL    HW274500   7.753   4.224   7.011
24223SOL     OW74501  10.462   1.019  11.703
24223SOL    HW174502  10.510   0.936  11.704
24223SOL    HW274503  10.370   0.994  11.693
24224SOL     OW74504   2.788   3.478   8.077
24224SOL    HW174505   2.714   3.422   8.102
24224SOL    HW274506   2.758   3.526   8.000
24225SOL     OW74507   9.664   1.154   9.927
24225SOL    HW174508   9.671   1.159   9.832
24225SOL    HW274509   9.581   1.108   9.943
24226SOL     OW74510   8.713   4.145   4.428
24226SOL    HW174511   8.668   4.228   4.414
24226SOL    HW274512   8.734   4.113   4.340
24227SOL     OW74513   5.499   2.135  12.309
24227SOL    HW174514   5.425   2.077  12.322
24227SOL    HW274515   5.524   2.164  12.397
24228SOL     OW74516   0.314   8.655   2.629
24228SOL    HW174517   0.331   8.747   2.651
24228SOL    HW274518   0.259   8.623   2.700
24229SOL     OW74519  10.620   4.273  10.416
24229SOL    HW174520  10.676   4.196  10.428
24229SOL    HW274521  10.556   4.268  10.487
24230SOL     OW74522  12.941  12.159   4.898
24230SOL    HW174523  12.862  12.203   4.868
24230SOL    HW274524  12.978  12.216   4.965
24231SOL     OW74525  12.612   1.775   4.226
24231SOL    HW174526  12.530   1.825   4.222
24231SOL    HW274527  12.653   1.805   4.308
24232SOL     OW74528  13.294   6.128   8.283
24232SOL    HW174529  13.363   6.189   8.257
24232SOL    HW274530  13.218   6.184   8.303
24233SOL     OW74531   1.330   3.236  13.308
24233SOL    HW174532   1.417   3.215  13.342
24233SOL    HW274533   1.342   3.244  13.214
24234SOL     OW74534   4.989  13.613   3.958
24234SOL    HW174535   4.895  13.599   3.946
24234SOL    HW274536   5.006  13.696   3.915
24235SOL     OW74537   9.567   6.546   1.423
24235SOL    HW174538   9.613   6.530   1.341
24235SOL    HW274539   9.486   6.590   1.397
24236SOL     OW74540   4.166   0.272   9.175
24236SOL    HW174541   4.115   0.220   9.113
24236SOL    HW274542   4.248   0.289   9.129
24237SOL     OW74543  10.847   9.649   8.707
24237SOL    HW174544  10.800   9.684   8.632
24237SOL    HW274545  10.939   9.673   8.691
24238SOL     OW74546  14.773  11.991   6.211
24238SOL    HW174547  14.704  12.044   6.170
24238SOL    HW274548  14.801  11.931   6.142
24239SOL     OW74549   9.854   9.340   7.970
24239SOL    HW174550   9.782   9.381   8.016
24239SOL    HW274551   9.896   9.284   8.035
24240SOL     OW74552   6.259   9.864   9.453
24240SOL    HW174553   6.341   9.873   9.502
24240SOL    HW274554   6.202   9.814   9.511
24241SOL     OW74555   0.270   3.239   0.249
24241SOL    HW174556   0.309   3.325   0.237
24241SOL    HW274557   0.176   3.255   0.242
24242SOL     OW74558   6.172   5.398   2.263
24242SOL    HW174559   6.229   5.374   2.336
24242SOL    HW274560   6.115   5.322   2.251
24243SOL     OW74561   7.485   2.964   5.669
24243SOL    HW174562   7.559   2.996   5.721
24243SOL    HW274563   7.417   3.029   5.683
24244SOL     OW74564  13.310   7.226  11.565
24244SOL    HW174565  13.237   7.229  11.502
24244SOL    HW274566  13.326   7.318  11.587
24245SOL     OW74567   9.776  12.605  14.476
24245SOL    HW174568   9.827  12.523  14.476
24245SOL    HW274569   9.842  12.673  14.488
24246SOL     OW74570   4.363   8.472  13.295
24246SOL    HW174571   4.428   8.414  13.335
24246SOL    HW274572   4.413   8.523  13.231
24247SOL     OW74573   7.059   7.220   7.763
24247SOL    HW174574   7.139   7.231   7.814
24247SOL    HW274575   7.062   7.129   7.733
24248SOL     OW74576   3.150   6.686   2.679
24248SOL    HW174577   3.100   6.614   2.718
24248SOL    HW274578   3.102   6.765   2.706
24249SOL     OW74579  11.453   3.931   0.389
24249SOL    HW174580  11.435   3.984   0.311
24249SOL    HW274581  11.408   3.977   0.460
24250SOL     OW74582   8.765  14.080   6.815
24250SOL    HW174583   8.784  14.142   6.744
24250SOL    HW274584   8.766  13.995   6.772
24251SOL     OW74585   4.734  11.382  10.796
24251SOL    HW174586   4.733  11.422  10.709
24251SOL    HW274587   4.643  11.390  10.827
24252SOL     OW74588  11.032   0.887   4.230
24252SOL    HW174589  11.026   0.915   4.321
24252SOL    HW274590  11.106   0.825   4.230
24253SOL     OW74591   6.926  10.560  11.524
24253SOL    HW174592   6.888  10.472  11.526
24253SOL    HW274593   6.891  10.599  11.443
24254SOL     OW74594  11.491   9.128   9.261
24254SOL    HW174595  11.406   9.157   9.295
24254SOL    HW274596  11.484   9.033   9.256
24255SOL     OW74597  12.561   9.730  13.325
24255SOL    HW174598  12.591   9.696  13.409
24255SOL    HW274599  12.569   9.657  13.264
24256SOL     OW74600   3.500   6.254  10.050
24256SOL    HW174601   3.493   6.200  10.128
24256SOL    HW274602   3.488   6.344  10.082
24257SOL     OW74603   2.553   5.453   4.858
24257SOL    HW174604   2.614   5.408   4.916
24257SOL    HW274605   2.471   5.456   4.908
24258SOL     OW74606   8.066   7.337   3.202
24258SOL    HW174607   8.088   7.254   3.244
24258SOL    HW274608   8.041   7.395   3.274
24259SOL     OW74609   2.416  10.452  14.061
24259SOL    HW174610   2.488  10.427  14.118
24259SOL    HW274611   2.337  10.432  14.112
24260SOL     OW74612  14.475  14.606   3.518
24260SOL    HW174613  14.430  14.536   3.566
24260SOL    HW274614  14.568  14.589   3.531
24261SOL     OW74615   6.354  14.338   9.312
24261SOL    HW174616   6.296  14.370   9.243
24261SOL    HW274617   6.353  14.406   9.379
24262SOL     OW74618   6.533   9.194  11.791
24262SOL    HW174619   6.479   9.167  11.865
24262SOL    HW274620   6.519   9.288  11.783
24263SOL     OW74621  10.198   9.344   3.043
24263SOL    HW174622  10.115   9.350   2.995
24263SOL    HW274623  10.265   9.348   2.975
24264SOL     OW74624  11.755   5.726   8.938
24264SOL    HW174625  11.760   5.660   9.007
24264SOL    HW274626  11.687   5.787   8.968
24265SOL     OW74627   3.605   3.582   8.189
24265SOL    HW174628   3.650   3.552   8.109
24265SOL    HW274629   3.640   3.669   8.205
24266SOL     OW74630  11.583  12.538   5.811
24266SOL    HW174631  11.576  12.624   5.769
24266SOL    HW274632  11.493  12.513   5.830
24267SOL     OW74633   8.310  10.828   1.245
24267SOL    HW174634   8.233  10.774   1.264
24267SOL    HW274635   8.382  10.767   1.238
24268SOL     OW74636  10.481   4.473   4.245
24268SOL    HW174637  10.539   4.411   4.288
24268SOL    HW274638  10.525   4.493   4.162
24269SOL     OW74639   8.529   1.766   6.329
24269SOL    HW174640   8.610   1.758   6.381
24269SOL    HW274641   8.479   1.834   6.374
24270SOL     OW74642   7.061   5.172   2.905
24270SOL    HW174643   6.993   5.154   2.970
24270SOL    HW274644   7.126   5.103   2.919
24271SOL     OW74645  12.300  13.404   6.850
24271SOL    HW174646  12.390  13.401   6.883
24271SOL    HW274647  12.295  13.331   6.789
24272SOL     OW74648   9.698   7.776   3.565
24272SOL    HW174649   9.750   7.796   3.487
24272SOL    HW274650   9.757   7.730   3.623
24273SOL     OW74651   9.874   7.617   2.311
24273SOL    HW174652   9.782   7.603   2.288
24273SOL    HW274653   9.898   7.699   2.267
24274SOL     OW74654  11.476   5.006   9.410
24274SOL    HW174655  11.466   4.916   9.439
24274SOL    HW274656  11.570   5.017   9.396
24275SOL     OW74657  12.644  12.608   6.399
24275SOL    HW174658  12.717  12.572   6.350
24275SOL    HW274659  12.663  12.701   6.407
24276SOL     OW74660   1.258  11.304   6.119
24276SOL    HW174661   1.171  11.290   6.157
24276SOL    HW274662   1.318  11.266   6.183
24277SOL     OW74663  11.855  11.871  13.289
24277SOL    HW174664  11.920  11.800  13.292
24277SOL    HW274665  11.905  11.949  13.314
24278SOL     OW74666  12.579   7.375  13.767
24278SOL    HW174667  12.503   7.345  13.717
24278SOL    HW274668  12.568   7.336  13.854
24279SOL     OW74669  13.947   6.440   6.914
24279SOL    HW174670  14.026   6.406   6.872
24279SOL    HW274671  13.950   6.534   6.896
24280SOL     OW74672   2.343   7.932  13.336
24280SOL    HW174673   2.333   8.027  13.329
24280SOL    HW274674   2.382   7.906  13.252
24281SOL     OW74675   3.623  11.263   9.861
24281SOL    HW174676   3.643  11.179   9.820
24281SOL    HW274677   3.698  11.282   9.917
24282SOL     OW74678  14.383   8.073   3.753
24282SOL    HW174679  14.306   8.065   3.809
24282SOL    HW274680  14.423   7.986   3.754
24283SOL     OW74681   3.296   4.930   2.132
24283SOL    HW174682   3.385   4.960   2.147
24283SOL    HW274683   3.247   5.009   2.108
24284SOL     OW74684   4.658   4.252   7.150
24284SOL    HW174685   4.578   4.245   7.202
24284SOL    HW274686   4.714   4.182   7.182
24285SOL     OW74687   8.044  13.380  12.983
24285SOL    HW174688   8.051  13.289  12.954
24285SOL    HW274689   8.096  13.429  12.919
24286SOL     OW74690   8.596   8.287  10.544
24286SOL    HW174691   8.529   8.354  10.530
24286SOL    HW274692   8.580   8.222  10.476
24287SOL     OW74693  13.614  12.593   0.829
24287SOL    HW174694  13.695  12.640   0.847
24287SOL    HW274695  13.638  12.500   0.832
24288SOL     OW74696   2.921  11.006   1.053
24288SOL    HW174697   3.008  10.992   1.090
24288SOL    HW274698   2.869  10.932   1.084
24289SOL     OW74699   7.339   9.917   9.083
24289SOL    HW174700   7.268   9.859   9.056
24289SOL    HW274701   7.329   9.995   9.029
24290SOL     OW74702  12.124   7.789   8.837
24290SOL    HW174703  12.037   7.801   8.800
24290SOL    HW274704  12.132   7.857   8.904
24291SOL     OW74705   0.497   1.370  12.350
24291SOL    HW174706   0.432   1.312  12.311
24291SOL    HW274707   0.456   1.400  12.431
24292SOL     OW74708   7.219  11.696   6.031
24292SOL    HW174709   7.188  11.616   5.988
24292SOL    HW274710   7.302  11.672   6.071
24293SOL     OW74711   6.894  12.907   6.412
24293SOL    HW174712   6.959  12.872   6.473
24293SOL    HW274713   6.926  12.994   6.389
24294SOL     OW74714   9.621   2.952   7.443
24294SOL    HW174715   9.568   2.938   7.365
24294SOL    HW274716   9.656   2.866   7.465
24295SOL     OW74717   7.610  12.618  10.884
24295SOL    HW174718   7.662  12.693  10.856
24295SOL    HW274719   7.604  12.627  10.979
24296SOL     OW74720  14.317   1.783   5.687
24296SOL    HW174721  14.324   1.873   5.717
24296SOL    HW274722  14.302   1.732   5.767
24297SOL     OW74723  13.417   2.353   6.027
24297SOL    HW174724  13.382   2.337   5.939
24297SOL    HW274725  13.341   2.378   6.079
24298SOL     OW74726   9.151   4.671   3.132
24298SOL    HW174727   9.156   4.754   3.085
24298SOL    HW274728   9.100   4.614   3.073
24299SOL     OW74729   1.796  10.938   4.099
24299SOL    HW174730   1.863  10.871   4.094
24299SOL    HW274731   1.844  11.021   4.098
24300SOL     OW74732   2.563   5.110  13.812
24300SOL    HW174733   2.631   5.070  13.759
24300SOL    HW274734   2.609   5.147  13.887
24301SOL     OW74735   5.043  11.095  10.258
24301SOL    HW174736   5.038  11.014  10.309
24301SOL    HW274737   4.993  11.076  10.179
24302SOL     OW74738  10.166   3.851   3.941
24302SOL    HW174739  10.180   3.759   3.964
24302SOL    HW274740  10.077   3.855   3.907
24303SOL     OW74741  13.025  14.081   9.265
24303SOL    HW174742  13.070  13.998   9.280
24303SOL    HW274743  12.964  14.062   9.194
24304SOL     OW74744  10.008   7.339   5.511
24304SOL    HW174745   9.963   7.330   5.427
24304SOL    HW274746   9.964   7.412   5.554
24305SOL     OW74747   2.081   8.371  11.984
24305SOL    HW174748   1.997   8.409  11.961
24305SOL    HW274749   2.061   8.304  12.049
24306SOL     OW74750   7.720   8.346  10.119
24306SOL    HW174751   7.780   8.296  10.063
24306SOL    HW274752   7.671   8.279  10.166
24307SOL     OW74753  10.034  14.272  11.328
24307SOL    HW174754  10.114  14.308  11.290
24307SOL    HW274755   9.994  14.347  11.374
24308SOL     OW74756   3.878   8.437   3.820
24308SOL    HW174757   3.785   8.450   3.837
24308SOL    HW274758   3.915   8.525   3.823
24309SOL     OW74759   1.384   6.615   8.806
24309SOL    HW174760   1.391   6.660   8.722
24309SOL    HW274761   1.333   6.674   8.861
24310SOL     OW74762   4.548   0.355   6.717
24310SOL    HW174763   4.532   0.449   6.728
24310SOL    HW274764   4.517   0.335   6.628
24311SOL     OW74765   6.918  14.084  12.983
24311SOL    HW174766   6.980  14.147  13.020
24311SOL    HW274767   6.967  14.041  12.913
24312SOL     OW74768   9.343   1.824   0.794
24312SOL    HW174769   9.319   1.892   0.857
24312SOL    HW274770   9.424   1.856   0.754
24313SOL     OW74771   6.368  14.465   4.447
24313SOL    HW174772   6.311  14.476   4.371
24313SOL    HW274773   6.309  14.461   4.522
24314SOL     OW74774   5.693   5.609   0.575
24314SOL    HW174775   5.715   5.564   0.656
24314SOL    HW274776   5.624   5.556   0.535
24315SOL     OW74777   8.808   5.511  13.850
24315SOL    HW174778   8.741   5.565  13.891
24315SOL    HW274779   8.881   5.514  13.911
24316SOL     OW74780   7.454  14.153   6.743
24316SOL    HW174781   7.372  14.164   6.694
24316SOL    HW274782   7.437  14.078   6.800
24317SOL     OW74783   5.149   8.897   5.323
24317SOL    HW174784   5.105   8.850   5.253
24317SOL    HW274785   5.230   8.849   5.339
24318SOL     OW74786   7.768   3.814   4.791
24318SOL    HW174787   7.852   3.836   4.751
24318SOL    HW274788   7.778   3.722   4.817
24319SOL     OW74789   8.307  11.724  10.101
24319SOL    HW174790   8.321  11.791  10.168
24319SOL    HW274791   8.394  11.689  10.084
24320SOL     OW74792  10.583  12.057   3.979
24320SOL    HW174793  10.678  12.065   3.968
24320SOL    HW274794  10.563  11.968   3.953
24321SOL     OW74795   9.923   1.245   1.667
24321SOL    HW174796   9.882   1.258   1.753
24321SOL    HW274797   9.854   1.209   1.612
24322SOL     OW74798   3.881  14.667  13.728
24322SOL    HW174799   3.964  14.652  13.682
24322SOL    HW274800   3.880  14.760  13.747
24323SOL     OW74801   6.401   6.389   0.911
24323SOL    HW174802   6.371   6.451   0.977
24323SOL    HW274803   6.324   6.336   0.891
24324SOL     OW74804   6.763  10.035   8.681
24324SOL    HW174805   6.779   9.955   8.631
24324SOL    HW274806   6.808  10.104   8.631
24325SOL     OW74807  13.782  13.860   2.883
24325SOL    HW174808  13.738  13.849   2.799
24325SOL    HW274809  13.711  13.870   2.946
24326SOL     OW74810   2.083   1.168   0.114
24326SOL    HW174811   2.042   1.252   0.091
24326SOL    HW274812   2.049   1.107   0.049
24327SOL     OW74813   5.851  13.886   5.998
24327SOL    HW174814   5.881  13.796   6.006
24327SOL    HW274815   5.766  13.880   5.954
24328SOL     OW74816   2.548  13.039  10.986
24328SOL    HW174817   2.549  13.132  11.010
24328SOL    HW274818   2.640  13.012  10.993
24329SOL     OW74819   6.514   6.105   9.078
24329SOL    HW174820   6.457   6.038   9.040
24329SOL    HW274821   6.454   6.165   9.123
24330SOL     OW74822   6.851  14.355   0.870
24330SOL    HW174823   6.762  14.324   0.887
24330SOL    HW274824   6.843  14.408   0.791
24331SOL     OW74825  10.954   8.604   3.595
24331SOL    HW174826  10.882   8.565   3.644
24331SOL    HW274827  10.988   8.533   3.540
24332SOL     OW74828   5.733   1.810   9.777
24332SOL    HW174829   5.698   1.737   9.726
24332SOL    HW274830   5.778   1.865   9.713
24333SOL     OW74831   3.450   9.527   5.914
24333SOL    HW174832   3.497   9.602   5.950
24333SOL    HW274833   3.507   9.495   5.844
24334SOL     OW74834   4.203   8.138   7.123
24334SOL    HW174835   4.273   8.076   7.145
24334SOL    HW274836   4.218   8.212   7.181
24335SOL     OW74837  11.790   8.764   4.824
24335SOL    HW174838  11.792   8.701   4.896
24335SOL    HW274839  11.831   8.717   4.750
24336SOL     OW74840   7.677  12.314  12.107
24336SOL    HW174841   7.684  12.235  12.161
24336SOL    HW274842   7.607  12.365  12.149
24337SOL     OW74843   9.745   0.254  10.777
24337SOL    HW174844   9.806   0.183  10.794
24337SOL    HW274845   9.695   0.262  10.859
24338SOL     OW74846   9.178  11.465  14.241
24338SOL    HW174847   9.099  11.482  14.293
24338SOL    HW274848   9.148  11.405  14.173
24339SOL     OW74849  11.755   7.876  13.603
24339SOL    HW174850  11.778   7.804  13.661
24339SOL    HW274851  11.721   7.944  13.661
24340SOL     OW74852   6.752   2.827  13.103
24340SOL    HW174853   6.842   2.859  13.115
24340SOL    HW274854   6.702   2.905  13.080
24341SOL     OW74855   4.162  11.489   2.869
24341SOL    HW174856   4.076  11.485   2.909
24341SOL    HW274857   4.167  11.577   2.830
24342SOL     OW74858  10.689   6.559   8.393
24342SOL    HW174859  10.770   6.512   8.412
24342SOL    HW274860  10.661   6.594   8.478
24343SOL     OW74861   1.921   2.646   6.167
24343SOL    HW174862   2.001   2.600   6.143
24343SOL    HW274863   1.850   2.585   6.145
24344SOL     OW74864  14.262  11.325   9.759
24344SOL    HW174865  14.275  11.240   9.718
24344SOL    HW274866  14.349  11.353   9.786
24345SOL     OW74867  10.038  14.594   3.132
24345SOL    HW174868  10.038  14.616   3.039
24345SOL    HW274869  10.035  14.678   3.177
24346SOL     OW74870   8.431  10.235  11.524
24346SOL    HW174871   8.337  10.223  11.512
24346SOL    HW274872   8.472  10.170  11.468
24347SOL     OW74873   3.469  10.273   9.564
24347SOL    HW174874   3.521  10.283   9.485
24347SOL    HW274875   3.466  10.361   9.603
24348SOL     OW74876   7.687   7.055  11.339
24348SOL    HW174877   7.687   7.149  11.323
24348SOL    HW274878   7.685   7.015  11.252
24349SOL     OW74879   2.805   3.296   4.262
24349SOL    HW174880   2.892   3.267   4.234
24349SOL    HW274881   2.822   3.367   4.324
24350SOL     OW74882  12.835   2.380  11.988
24350SOL    HW174883  12.926   2.410  11.997
24350SOL    HW274884  12.796   2.442  11.927
24351SOL     OW74885  14.665   4.154   3.002
24351SOL    HW174886  14.654   4.137   2.908
24351SOL    HW274887  14.710   4.239   3.005
24352SOL     OW74888  12.018   7.141   1.411
24352SOL    HW174889  12.062   7.226   1.418
24352SOL    HW274890  12.079   7.079   1.450
24353SOL     OW74891   2.046   6.442   8.761
24353SOL    HW174892   1.999   6.420   8.681
24353SOL    HW274893   2.138   6.427   8.739
24354SOL     OW74894   3.308   0.001   6.663
24354SOL    HW174895   3.281   0.087   6.634
24354SOL    HW274896   3.395  14.861   6.625
24355SOL     OW74897  12.321   4.064   1.985
24355SOL    HW174898  12.260   4.071   1.912
24355SOL    HW274899  12.367   4.148   1.986
24356SOL     OW74900   3.936  10.685   6.232
24356SOL    HW174901   3.841  10.690   6.245
24356SOL    HW274902   3.973  10.691   6.320
24357SOL     OW74903  12.529   1.020  11.113
24357SOL    HW174904  12.608   0.972  11.087
24357SOL    HW274905  12.464   0.951  11.130
24358SOL     OW74906   6.911   9.905  11.530
24358SOL    HW174907   6.878   9.865  11.610
24358SOL    HW274908   6.834   9.941  11.487
24359SOL     OW74909   1.222   2.249  14.333
24359SOL    HW174910   1.189   2.339  14.325
24359SOL    HW274911   1.317   2.258  14.323
24360SOL     OW74912   2.773   0.142   8.497
24360SOL    HW174913   2.833   0.081   8.454
24360SOL    HW274914   2.740   0.197   8.426
24361SOL     OW74915  14.479   0.736   4.502
24361SOL    HW174916  14.475   0.733   4.406
24361SOL    HW274917  14.424   0.664   4.531
24362SOL     OW74918  13.438   0.667  14.119
24362SOL    HW174919  13.528   0.632  14.121
24362SOL    HW274920  13.424   0.702  14.206
24363SOL     OW74921   5.633   3.744  13.106
24363SOL    HW174922   5.585   3.724  13.186
24363SOL    HW274923   5.605   3.678  13.043
24364SOL     OW74924   3.995   2.355   1.921
24364SOL    HW174925   4.029   2.363   2.010
24364SOL    HW274926   4.072   2.364   1.864
24365SOL     OW74927   9.577  11.876  13.617
24365SOL    HW174928   9.576  11.901  13.710
24365SOL    HW274929   9.647  11.930  13.579
24366SOL     OW74930  10.833   7.218   1.513
24366SOL    HW174931  10.878   7.190   1.593
24366SOL    HW274932  10.742   7.192   1.526
24367SOL     OW74933   7.962  13.358   3.180
24367SOL    HW174934   7.910  13.408   3.243
24367SOL    HW274935   7.987  13.279   3.227
24368SOL     OW74936   7.836   6.906  13.133
24368SOL    HW174937   7.824   6.980  13.192
24368SOL    HW274938   7.928   6.881  13.144
24369SOL     OW74939   8.877   8.517   9.284
24369SOL    HW174940   8.877   8.609   9.260
24369SOL    HW274941   8.800   8.507   9.341
24370SOL     OW74942   9.189  10.321  12.379
24370SOL    HW174943   9.187  10.414  12.359
24370SOL    HW274944   9.124  10.309  12.448
24371SOL     OW74945   0.974   4.676  10.965
24371SOL    HW174946   1.056   4.660  10.918
24371SOL    HW274947   0.977   4.616  11.039
24372SOL     OW74948  10.588   4.163   8.211
24372SOL    HW174949  10.584   4.070   8.190
24372SOL    HW274950  10.656   4.198   8.152
24373SOL     OW74951   7.343  10.366  12.693
24373SOL    HW174952   7.373  10.357  12.603
24373SOL    HW274953   7.250  10.387  12.685
24374SOL     OW74954   3.506  12.397   0.662
24374SOL    HW174955   3.433  12.448   0.697
24374SOL    HW274956   3.550  12.362   0.740
24375SOL     OW74957   8.721  13.485  10.271
24375SOL    HW174958   8.775  13.430  10.214
24375SOL    HW274959   8.687  13.426  10.338
24376SOL     OW74960   6.105   8.438   5.914
24376SOL    HW174961   6.081   8.530   5.898
24376SOL    HW274962   6.186   8.426   5.863
24377SOL     OW74963  10.119   2.711  11.534
24377SOL    HW174964  10.114   2.655  11.457
24377SOL    HW274965  10.156   2.655  11.602
24378SOL     OW74966   0.956  11.364   1.203
24378SOL    HW174967   0.878  11.311   1.183
24378SOL    HW274968   1.025  11.300   1.219
24379SOL     OW74969   2.972   6.270   7.422
24379SOL    HW174970   2.962   6.176   7.436
24379SOL    HW274971   2.909   6.291   7.353
24380SOL     OW74972   4.714   1.598   1.945
24380SOL    HW174973   4.691   1.505   1.950
24380SOL    HW274974   4.698   1.622   1.854
24381SOL     OW74975  14.454  11.205   5.421
24381SOL    HW174976  14.416  11.126   5.383
24381SOL    HW274977  14.485  11.178   5.507
24382SOL     OW74978   3.007  10.130   9.286
24382SOL    HW174979   3.000  10.120   9.381
24382SOL    HW274980   2.994  10.224   9.271
24383SOL     OW74981   2.925   9.588   7.986
24383SOL    HW174982   2.881   9.673   7.980
24383SOL    HW274983   2.876   9.531   7.927
24384SOL     OW74984  14.424   0.523   6.366
24384SOL    HW174985  14.506   0.561   6.399
24384SOL    HW274986  14.358   0.590   6.382
24385SOL     OW74987  11.704   8.662  14.234
24385SOL    HW174988  11.658   8.713  14.300
24385SOL    HW274989  11.670   8.695  14.150
24386SOL     OW74990   9.166   4.570   6.921
24386SOL    HW174991   9.221   4.496   6.949
24386SOL    HW274992   9.210   4.647   6.957
24387SOL     OW74993   6.269   7.064   3.574
24387SOL    HW174994   6.348   7.057   3.628
24387SOL    HW274995   6.207   7.003   3.616
24388SOL     OW74996  13.043  11.157  10.138
24388SOL    HW174997  12.998  11.074  10.156
24388SOL    HW274998  13.033  11.207  10.219
24389SOL     OW74999  10.642   3.275  10.616
24389SOL    HW175000  10.722   3.236  10.650
24389SOL    HW275001  10.673   3.345  10.558
24390SOL     OW75002  13.849   6.809  12.979
24390SOL    HW175003  13.770   6.812  12.926
24390SOL    HW275004  13.881   6.899  12.980
24391SOL     OW75005   4.694   0.573   6.508
24391SOL    HW175006   4.716   0.662   6.535
24391SOL    HW275007   4.777   0.526   6.512
24392SOL     OW75008   9.540   7.227   3.129
24392SOL    HW175009   9.531   7.316   3.163
24392SOL    HW275010   9.612   7.232   3.066
24393SOL     OW75011   4.190   6.408   2.178
24393SOL    HW175012   4.156   6.322   2.154
24393SOL    HW275013   4.271   6.389   2.226
24394SOL     OW75014   1.341  10.123   1.741
24394SOL    HW175015   1.298  10.163   1.665
24394SOL    HW275016   1.434  10.141   1.728
24395SOL     OW75017  13.619   0.606   7.638
24395SOL    HW175018  13.668   0.687   7.620
24395SOL    HW275019  13.585   0.619   7.727
24396SOL     OW75020   5.208  14.384  10.524
24396SOL    HW175021   5.291  14.354  10.487
24396SOL    HW275022   5.233  14.439  10.598
24397SOL     OW75023  13.455  11.138   3.601
24397SOL    HW175024  13.532  11.152   3.545
24397SOL    HW275025  13.487  11.152   3.690
24398SOL     OW75026  14.437   2.009   5.832
24398SOL    HW175027  14.488   2.045   5.759
24398SOL    HW275028  14.478   2.047   5.910
24399SOL     OW75029   8.041   8.164   6.081
24399SOL    HW175030   8.072   8.252   6.059
24399SOL    HW275031   8.080   8.107   6.015
24400SOL     OW75032   1.367   3.595   8.454
24400SOL    HW175033   1.367   3.689   8.474
24400SOL    HW275034   1.458   3.568   8.465
24401SOL     OW75035  11.367   3.677  13.804
24401SOL    HW175036  11.419   3.608  13.763
24401SOL    HW275037  11.382   3.755  13.750
24402SOL     OW75038   1.125   6.288   3.033
24402SOL    HW175039   1.140   6.343   3.109
24402SOL    HW275040   1.198   6.227   3.032
24403SOL     OW75041   0.765   1.906   0.594
24403SOL    HW175042   0.701   1.958   0.544
24403SOL    HW275043   0.831   1.970   0.622
24404SOL     OW75044   8.793   0.697   8.611
24404SOL    HW175045   8.816   0.713   8.703
24404SOL    HW275046   8.863   0.639   8.579
24405SOL     OW75047   6.153   2.242   9.978
24405SOL    HW175048   6.138   2.221   9.886
24405SOL    HW275049   6.246   2.222   9.992
24406SOL     OW75050   8.293  11.234   8.079
24406SOL    HW175051   8.340  11.293   8.019
24406SOL    HW275052   8.357  11.167   8.101
24407SOL     OW75053   2.160   0.891  12.678
24407SOL    HW175054   2.254   0.909  12.679
24407SOL    HW275055   2.120   0.975  12.700
24408SOL     OW75056   5.553   2.823  14.650
24408SOL    HW175057   5.610   2.898  14.636
24408SOL    HW275058   5.578   2.761  14.582
24409SOL     OW75059  12.165   6.956  11.928
24409SOL    HW175060  12.199   6.876  11.888
24409SOL    HW275061  12.211   7.026  11.883
24410SOL     OW75062  13.674   4.559  13.835
24410SOL    HW175063  13.632   4.607  13.906
24410SOL    HW275064  13.749   4.516  13.876
24411SOL     OW75065   0.824   8.215   3.563
24411SOL    HW175066   0.898   8.270   3.590
24411SOL    HW275067   0.793   8.174   3.644
24412SOL     OW75068   2.551  13.724   3.716
24412SOL    HW175069   2.483  13.658   3.702
24412SOL    HW275070   2.555  13.735   3.811
24413SOL     OW75071   2.866   1.491   8.948
24413SOL    HW175072   2.834   1.581   8.959
24413SOL    HW275073   2.878   1.482   8.853
24414SOL     OW75074  11.704  13.867  10.960
24414SOL    HW175075  11.679  13.789  10.910
24414SOL    HW275076  11.667  13.853  11.047
24415SOL     OW75077   4.287   8.162  12.896
24415SOL    HW175078   4.352   8.171  12.827
24415SOL    HW275079   4.253   8.073  12.886
24416SOL     OW75080   6.217  11.517   9.286
24416SOL    HW175081   6.257  11.519   9.199
24416SOL    HW275082   6.291  11.501   9.346
24417SOL     OW75083   0.233  12.957   1.718
24417SOL    HW175084   0.319  12.916   1.728
24417SOL    HW275085   0.204  12.974   1.808
24418SOL     OW75086  13.442   7.273   0.701
24418SOL    HW175087  13.472   7.182   0.700
24418SOL    HW275088  13.382   7.280   0.626
24419SOL     OW75089  11.948   7.341   7.691
24419SOL    HW175090  11.944   7.313   7.782
24419SOL    HW275091  11.856   7.352   7.666
24420SOL     OW75092   0.187   3.870   6.239
24420SOL    HW175093   0.240   3.945   6.268
24420SOL    HW275094   0.205   3.802   6.305
24421SOL     OW75095   3.989   8.470   8.480
24421SOL    HW175096   4.037   8.435   8.405
24421SOL    HW275097   4.008   8.408   8.551
24422SOL     OW75098   3.358  14.616   6.751
24422SOL    HW175099   3.324  14.699   6.716
24422SOL    HW275100   3.328  14.549   6.690
24423SOL     OW75101  12.742   3.460   4.960
24423SOL    HW175102  12.825   3.448   4.914
24423SOL    HW275103  12.758   3.534   5.019
24424SOL     OW75104   2.962   8.641   7.871
24424SOL    HW175105   2.932   8.723   7.832
24424SOL    HW275106   3.055   8.637   7.848
24425SOL     OW75107  11.427  11.121   1.558
24425SOL    HW175108  11.352  11.062   1.568
24425SOL    HW275109  11.493  11.086   1.617
24426SOL     OW75110   7.755   3.463  10.039
24426SOL    HW175111   7.693   3.486   9.969
24426SOL    HW275112   7.837   3.445   9.992
24427SOL     OW75113   8.175   7.505   0.790
24427SOL    HW175114   8.265   7.492   0.761
24427SOL    HW275115   8.127   7.524   0.710
24428SOL     OW75116  13.196   6.810   2.226
24428SOL    HW175117  13.249   6.839   2.300
24428SOL    HW275118  13.246   6.737   2.189
24429SOL     OW75119   9.079  14.716   7.340
24429SOL    HW175120   9.031  14.718   7.258
24429SOL    HW275121   9.154  14.658   7.324
24430SOL     OW75122   3.731  13.391  14.392
24430SOL    HW175123   3.713  13.413  14.483
24430SOL    HW275124   3.757  13.474  14.352
24431SOL     OW75125   9.900   1.604  13.677
24431SOL    HW175126   9.879   1.522  13.633
24431SOL    HW275127   9.826   1.661  13.659
24432SOL     OW75128   2.026   6.939   7.543
24432SOL    HW175129   2.019   7.027   7.580
24432SOL    HW275130   2.024   6.953   7.448
24433SOL     OW75131   4.186   5.351   1.558
24433SOL    HW175132   4.170   5.346   1.652
24433SOL    HW275133   4.256   5.416   1.549
24434SOL     OW75134  14.786   8.444   6.462
24434SOL    HW175135  14.780   8.537   6.485
24434SOL    HW275136  14.832   8.404   6.536
24435SOL     OW75137   9.542  14.680   7.363
24435SOL    HW175138   9.628  14.638   7.367
24435SOL    HW275139   9.524  14.706   7.454
24436SOL     OW75140  14.693   3.482   2.912
24436SOL    HW175141  14.624   3.492   2.978
24436SOL    HW275142  14.764   3.437   2.959
24437SOL     OW75143   5.591  10.786   1.864
24437SOL    HW175144   5.636  10.735   1.931
24437SOL    HW275145   5.636  10.871   1.866
24438SOL     OW75146   2.440  14.079   5.730
24438SOL    HW175147   2.433  14.139   5.804
24438SOL    HW275148   2.420  13.993   5.767
24439SOL     OW75149   9.548   6.589   2.965
24439SOL    HW175150   9.459   6.572   2.934
24439SOL    HW275151   9.600   6.596   2.885
24440SOL     OW75152  11.110  11.030   6.345
24440SOL    HW175153  11.052  10.971   6.297
24440SOL    HW275154  11.107  11.112   6.295
24441SOL     OW75155  11.562   0.819   8.028
24441SOL    HW175156  11.506   0.798   8.102
24441SOL    HW275157  11.559   0.741   7.973
24442SOL     OW75158  14.323   0.289   2.490
24442SOL    HW175159  14.391   0.242   2.539
24442SOL    HW275160  14.244   0.277   2.542
24443SOL     OW75161  10.236   5.316   6.690
24443SOL    HW175162  10.245   5.291   6.782
24443SOL    HW275163  10.176   5.390   6.691
24444SOL     OW75164   9.743  14.763  12.408
24444SOL    HW175165   9.804  14.797  12.343
24444SOL    HW275166   9.736  14.832  12.474
24445SOL     OW75167   7.211   4.280  12.711
24445SOL    HW175168   7.177   4.191  12.699
24445SOL    HW275169   7.302   4.274  12.682
24446SOL     OW75170   8.392   0.772   2.890
24446SOL    HW175171   8.470   0.719   2.911
24446SOL    HW275172   8.418   0.822   2.813
24447SOL     OW75173   3.461   4.583   4.407
24447SOL    HW175174   3.417   4.506   4.444
24447SOL    HW275175   3.513   4.617   4.480
24448SOL     OW75176   3.117   8.242   5.189
24448SOL    HW175177   3.092   8.316   5.244
24448SOL    HW275178   3.071   8.256   5.106
24449SOL     OW75179   0.095  10.671   6.705
24449SOL    HW175180   0.164  10.652   6.642
24449SOL    HW275181   0.124  10.628   6.786
24450SOL     OW75182  11.768   0.959   2.731
24450SOL    HW175183  11.801   1.041   2.695
24450SOL    HW275184  11.700   0.986   2.792
24451SOL     OW75185   4.162   4.774  13.795
24451SOL    HW175186   4.155   4.840  13.725
24451SOL    HW275187   4.076   4.774  13.837
24452SOL     OW75188  12.148  13.472   5.871
24452SOL    HW175189  12.210  13.511   5.932
24452SOL    HW275190  12.065  13.516   5.889
24453SOL     OW75191   3.517   2.409  10.021
24453SOL    HW175192   3.433   2.376  10.053
24453SOL    HW275193   3.548   2.468  10.090
24454SOL     OW75194   0.190   5.105   0.444
24454SOL    HW175195   0.175   5.177   0.383
24454SOL    HW275196   0.103   5.070   0.462
24455SOL     OW75197   7.955   3.691   4.427
24455SOL    HW175198   8.032   3.665   4.378
24455SOL    HW275199   7.903   3.610   4.434
24456SOL     OW75200   9.376  12.675   4.014
24456SOL    HW175201   9.374  12.758   3.966
24456SOL    HW275202   9.296  12.629   3.986
24457SOL     OW75203   7.403  12.905   3.167
24457SOL    HW175204   7.450  12.903   3.084
24457SOL    HW275205   7.430  12.825   3.213
24458SOL     OW75206   1.635   4.061   3.946
24458SOL    HW175207   1.663   3.974   3.918
24458SOL    HW275208   1.717   4.109   3.960
24459SOL     OW75209  10.880   2.509   2.616
24459SOL    HW175210  10.895   2.422   2.580
24459SOL    HW275211  10.882   2.497   2.711
24460SOL     OW75212   6.124   1.237   7.183
24460SOL    HW175213   6.188   1.223   7.253
24460SOL    HW275214   6.141   1.166   7.121
24461SOL     OW75215   2.173  11.267   5.488
24461SOL    HW175216   2.200  11.184   5.528
24461SOL    HW275217   2.216  11.334   5.540
24462SOL     OW75218  14.534   8.696   9.810
24462SOL    HW175219  14.493   8.634   9.870
24462SOL    HW275220  14.577   8.641   9.744
24463SOL     OW75221   6.591   1.615   3.884
24463SOL    HW175222   6.504   1.611   3.843
24463SOL    HW275223   6.639   1.544   3.842
24464SOL     OW75224   4.246  13.861   0.393
24464SOL    HW175225   4.340  13.880   0.389
24464SOL    HW275226   4.237  13.776   0.351
24465SOL     OW75227   4.596   7.200   2.846
24465SOL    HW175228   4.540   7.221   2.920
24465SOL    HW275229   4.635   7.116   2.868
24466SOL     OW75230   9.021  12.895   3.015
24466SOL    HW175231   8.941  12.929   2.976
24466SOL    HW275232   9.066  12.972   3.050
24467SOL     OW75233  12.718  13.318  13.781
24467SOL    HW175234  12.680  13.396  13.738
24467SOL    HW275235  12.711  13.337  13.874
24468SOL     OW75236  12.561   0.920   3.185
24468SOL    HW175237  12.534   0.960   3.102
24468SOL    HW275238  12.628   0.856   3.160
24469SOL     OW75239   1.036   3.295   1.872
24469SOL    HW175240   0.949   3.255   1.867
24469SOL    HW275241   1.088   3.233   1.923
24470SOL     OW75242  12.843   2.343   3.138
24470SOL    HW175243  12.857   2.437   3.149
24470SOL    HW275244  12.807   2.315   3.222
24471SOL     OW75245   0.514   3.868   2.146
24471SOL    HW175246   0.602   3.836   2.165
24471SOL    HW275247   0.527   3.951   2.101
24472SOL     OW75248   9.324  11.790   1.648
24472SOL    HW175249   9.282  11.714   1.688
24472SOL    HW275250   9.326  11.771   1.554
24473SOL     OW75251  13.645   6.668   2.017
24473SOL    HW175252  13.652   6.655   1.922
24473SOL    HW275253  13.702   6.602   2.055
24474SOL     OW75254   2.581   7.279  10.043
24474SOL    HW175255   2.652   7.220  10.020
24474SOL    HW275256   2.534   7.293   9.960
24475SOL     OW75257   6.906   9.561  10.669
24475SOL    HW175258   6.960   9.529  10.742
24475SOL    HW275259   6.855   9.633  10.707
24476SOL     OW75260   1.110  12.897   4.042
24476SOL    HW175261   1.074  12.922   4.127
24476SOL    HW275262   1.070  12.813   4.022
24477SOL     OW75263   3.640  10.912   3.101
24477SOL    HW175264   3.660  11.001   3.130
24477SOL    HW275265   3.545  10.903   3.113
24478SOL     OW75266   9.403   5.884   4.165
24478SOL    HW175267   9.392   5.968   4.119
24478SOL    HW275268   9.357   5.896   4.248
24479SOL     OW75269   4.385   8.962  10.353
24479SOL    HW175270   4.362   9.033  10.293
24479SOL    HW275271   4.469   8.988  10.390
24480SOL     OW75272   4.061  12.712   1.163
24480SOL    HW175273   4.028  12.647   1.224
24480SOL    HW275274   4.048  12.674   1.076
24481SOL     OW75275   9.065   6.599   9.513
24481SOL    HW175276   9.001   6.588   9.583
24481SOL    HW275277   9.113   6.679   9.536
24482SOL     OW75278   7.649   4.293  10.098
24482SOL    HW175279   7.694   4.220  10.057
24482SOL    HW275280   7.691   4.371  10.062
24483SOL     OW75281   8.124  13.916   6.456
24483SOL    HW175282   8.193  13.857   6.485
24483SOL    HW275283   8.047  13.860   6.444
24484SOL     OW75284   2.332  14.853  14.724
24484SOL    HW175285   2.293  14.766  14.731
24484SOL    HW275286   2.384  14.862  14.804
24485SOL     OW75287  11.610  11.118  11.960
24485SOL    HW175288  11.554  11.054  12.003
24485SOL    HW275289  11.656  11.162  12.032
24486SOL     OW75290  14.572   4.119   1.573
24486SOL    HW175291  14.542   4.199   1.530
24486SOL    HW275292  14.624   4.149   1.647
24487SOL     OW75293   4.899  10.740   4.311
24487SOL    HW175294   4.941  10.825   4.302
24487SOL    HW275295   4.887  10.729   4.405
24488SOL     OW75296   3.283   8.180  14.716
24488SOL    HW175297   3.324   8.258  14.754
24488SOL    HW275298   3.322   8.107  14.764
24489SOL     OW75299  12.202  14.332  14.492
24489SOL    HW175300  12.201  14.247  14.535
24489SOL    HW275301  12.123  14.332  14.438
24490SOL     OW75302  14.245  13.442  11.952
24490SOL    HW175303  14.196  13.368  11.918
24490SOL    HW275304  14.280  13.485  11.874
24491SOL     OW75305   8.764   3.614   1.646
24491SOL    HW175306   8.755   3.571   1.732
24491SOL    HW275307   8.769   3.541   1.584
24492SOL     OW75308   0.688   1.479  12.201
24492SOL    HW175309   0.668   1.558  12.251
24492SOL    HW275310   0.643   1.409  12.247
24493SOL     OW75311   2.465   4.991  10.512
24493SOL    HW175312   2.430   4.903  10.529
24493SOL    HW275313   2.558   4.984  10.530
24494SOL     OW75314   8.166   6.652   0.139
24494SOL    HW175315   8.139   6.743   0.141
24494SOL    HW275316   8.144   6.618   0.226
24495SOL     OW75317  14.173   4.887  14.154
24495SOL    HW175318  14.113   4.959  14.175
24495SOL    HW275319  14.116   4.816  14.125
24496SOL     OW75320   5.224  11.121   5.701
24496SOL    HW175321   5.250  11.055   5.765
24496SOL    HW275322   5.270  11.096   5.621
24497SOL     OW75323   1.675   4.986   5.169
24497SOL    HW175324   1.712   4.915   5.115
24497SOL    HW275325   1.677   5.063   5.112
24498SOL     OW75326  13.132   0.163  10.362
24498SOL    HW175327  13.179   0.244  10.384
24498SOL    HW275328  13.198   0.106  10.324
24499SOL     OW75329  13.410   5.104  13.664
24499SOL    HW175330  13.423   5.009  13.656
24499SOL    HW275331  13.386   5.117  13.755
24500SOL     OW75332  10.794  14.325   6.033
24500SOL    HW175333  10.750  14.367   6.107
24500SOL    HW275334  10.734  14.339   5.960
24501SOL     OW75335   0.497  11.762   0.473
24501SOL    HW175336   0.571  11.721   0.428
24501SOL    HW275337   0.515  11.856   0.470
24502SOL     OW75338   5.924   2.944   5.815
24502SOL    HW175339   5.870   2.974   5.741
24502SOL    HW275340   6.014   2.962   5.788
24503SOL     OW75341  14.716  13.634   0.363
24503SOL    HW175342  14.623  13.645   0.341
24503SOL    HW275343  14.715  13.599   0.452
24504SOL     OW75344  10.890  14.391  12.107
24504SOL    HW175345  10.979  14.422  12.123
24504SOL    HW275346  10.836  14.444  12.165
24505SOL     OW75347  13.039   1.718  12.270
24505SOL    HW175348  13.048   1.724  12.365
24505SOL    HW275349  12.945   1.722  12.255
24506SOL     OW75350  11.924   0.221   9.603
24506SOL    HW175351  11.935   0.300   9.655
24506SOL    HW275352  11.971   0.238   9.522
24507SOL     OW75353  14.416  11.573   7.647
24507SOL    HW175354  14.376  11.564   7.734
24507SOL    HW275355  14.415  11.667   7.630
24508SOL     OW75356   9.342  11.115   1.800
24508SOL    HW175357   9.371  11.170   1.873
24508SOL    HW275358   9.414  11.053   1.787
24509SOL     OW75359  10.690   8.900   7.567
24509SOL    HW175360  10.760   8.934   7.622
24509SOL    HW275361  10.619   8.879   7.628
24510SOL     OW75362   1.277  14.734   3.414
24510SOL    HW175363   1.323  14.654   3.389
24510SOL    HW275364   1.186  14.718   3.391
24511SOL     OW75365  13.713   3.822   5.619
24511SOL    HW175366  13.788   3.881   5.611
24511SOL    HW275367  13.725   3.780   5.704
24512SOL     OW75368   0.747   1.101  11.487
24512SOL    HW175369   0.715   1.167  11.425
24512SOL    HW275370   0.825   1.065  11.445
24513SOL     OW75371   0.076  10.113   7.253
24513SOL    HW175372   0.085  10.173   7.179
24513SOL    HW275373   0.021  10.160   7.316
24514SOL     OW75374  12.783  12.819   8.217
24514SOL    HW175375  12.718  12.856   8.158
24514SOL    HW275376  12.826  12.894   8.256
24515SOL     OW75377   5.185   4.578   9.395
24515SOL    HW175378   5.197   4.613   9.483
24515SOL    HW275379   5.181   4.483   9.408
24516SOL     OW75380   4.307   2.186   4.151
24516SOL    HW175381   4.213   2.202   4.152
24516SOL    HW275382   4.333   2.190   4.243
24517SOL     OW75383  11.433   4.898  14.719
24517SOL    HW175384  11.354   4.850  14.744
24517SOL    HW275385  11.489   4.834  14.676
24518SOL     OW75386   9.346   8.823   2.100
24518SOL    HW175387   9.256   8.793   2.087
24518SOL    HW275388   9.337   8.908   2.142
24519SOL     OW75389  10.359   4.831   1.688
24519SOL    HW175390  10.276   4.878   1.681
24519SOL    HW275391  10.421   4.895   1.723
24520SOL     OW75392   5.832   4.887  12.737
24520SOL    HW175393   5.853   4.852  12.823
24520SOL    HW275394   5.875   4.828  12.675
24521SOL     OW75395  14.378   4.411   2.925
24521SOL    HW175396  14.397   4.505   2.935
24521SOL    HW275397  14.398   4.373   3.010
24522SOL     OW75398   4.063  13.082   8.502
24522SOL    HW175399   4.041  13.094   8.409
24522SOL    HW275400   4.153  13.050   8.502
24523SOL     OW75401   8.832   5.532   7.394
24523SOL    HW175402   8.911   5.488   7.426
24523SOL    HW275403   8.779   5.461   7.356
24524SOL     OW75404  12.611   5.401  13.035
24524SOL    HW175405  12.664   5.478  13.016
24524SOL    HW275406  12.672   5.337  13.072
24525SOL     OW75407  12.028   1.120  12.177
24525SOL    HW175408  11.974   1.041  12.175
24525SOL    HW275409  11.986   1.175  12.244
24526SOL     OW75410  14.254   9.926   3.534
24526SOL    HW175411  14.220   9.962   3.452
24526SOL    HW275412  14.339   9.889   3.511
24527SOL     OW75413   6.143   0.673   6.372
24527SOL    HW175414   6.189   0.591   6.392
24527SOL    HW275415   6.187   0.739   6.426
24528SOL     OW75416   1.577   0.384   4.649
24528SOL    HW175417   1.486   0.406   4.629
24528SOL    HW275418   1.572   0.300   4.694
24529SOL     OW75419   4.490   3.257   4.363
24529SOL    HW175420   4.473   3.331   4.305
24529SOL    HW275421   4.557   3.288   4.423
24530SOL     OW75422  14.838  13.065   0.091
24530SOL    HW175423  14.858  13.004   0.162
24530SOL    HW275424   0.046  13.115   0.080
24531SOL     OW75425   3.668   1.997   8.309
24531SOL    HW175426   3.711   1.935   8.367
24531SOL    HW275427   3.600   2.037   8.364
24532SOL     OW75428   4.278  14.464   8.646
24532SOL    HW175429   4.247  14.418   8.568
24532SOL    HW275430   4.338  14.531   8.612
24533SOL     OW75431   5.567  13.515  13.945
24533SOL    HW175432   5.650  13.475  13.971
24533SOL    HW275433   5.560  13.593  14.000
24534SOL     OW75434   8.419   1.564   8.196
24534SOL    HW175435   8.438   1.538   8.286
24534SOL    HW275436   8.382   1.652   8.204
24535SOL     OW75437   4.182  10.396   4.325
24535SOL    HW175438   4.240  10.403   4.250
24535SOL    HW275439   4.152  10.305   4.324
24536SOL     OW75440   6.340   6.867  12.392
24536SOL    HW175441   6.387   6.870  12.309
24536SOL    HW275442   6.310   6.776  12.399
24537SOL     OW75443  14.350  10.251  10.713
24537SOL    HW175444  14.262  10.240  10.679
24537SOL    HW275445  14.358  10.345  10.730
24538SOL     OW75446   0.398   4.244   9.855
24538SOL    HW175447   0.321   4.191   9.874
24538SOL    HW275448   0.392   4.262   9.761
24539SOL     OW75449   7.298  11.028  14.756
24539SOL    HW175450   7.336  11.003  14.672
24539SOL    HW275451   7.289  11.123  14.751
24540SOL     OW75452   2.041   2.912  14.189
24540SOL    HW175453   2.026   2.859  14.111
24540SOL    HW275454   2.023   3.002  14.161
24541SOL     OW75455   6.379  14.632  14.673
24541SOL    HW175456   6.319  14.652  14.745
24541SOL    HW275457   6.349  14.548  14.639
24542SOL     OW75458   3.587   6.886   9.408
24542SOL    HW175459   3.638   6.964   9.430
24542SOL    HW275460   3.530   6.872   9.483
24543SOL     OW75461  14.512   9.937   7.914
24543SOL    HW175462  14.425   9.949   7.878
24543SOL    HW275463  14.571   9.941   7.839
24544SOL     OW75464   6.705   9.417   9.996
24544SOL    HW175465   6.633   9.356   9.980
24544SOL    HW275466   6.742   9.434   9.909
24545SOL     OW75467   4.740   1.125   8.571
24545SOL    HW175468   4.702   1.065   8.507
24545SOL    HW275469   4.747   1.208   8.524
24546SOL     OW75470   2.736   9.527  12.300
24546SOL    HW175471   2.758   9.461  12.234
24546SOL    HW275472   2.645   9.509  12.323
24547SOL     OW75473   2.384  11.158   6.659
24547SOL    HW175474   2.303  11.109   6.643
24547SOL    HW275475   2.358  11.229   6.718
24548SOL     OW75476   0.769   5.760  10.835
24548SOL    HW175477   0.724   5.844  10.821
24548SOL    HW275478   0.748   5.708  10.757
24549SOL     OW75479  12.696  11.001   5.638
24549SOL    HW175480  12.641  11.066   5.683
24549SOL    HW275481  12.643  10.973   5.563
24550SOL     OW75482   7.099   0.542  13.843
24550SOL    HW175483   7.163   0.471  13.844
24550SOL    HW275484   7.145   0.615  13.801
24551SOL     OW75485   0.245   8.356   3.526
24551SOL    HW175486   0.261   8.281   3.584
24551SOL    HW275487   0.288   8.333   3.444
24552SOL     OW75488  12.385  11.748  13.923
24552SOL    HW175489  12.434  11.814  13.972
24552SOL    HW275490  12.335  11.700  13.989
24553SOL     OW75491  10.926   0.143  11.802
24553SOL    HW175492  10.967   0.117  11.885
24553SOL    HW275493  10.939   0.068  11.744
24554SOL     OW75494   8.945   3.102  13.141
24554SOL    HW175495   8.933   3.184  13.189
24554SOL    HW275496   8.995   3.127  13.063
24555SOL     OW75497   3.304   1.356  14.508
24555SOL    HW175498   3.268   1.340  14.421
24555SOL    HW275499   3.229   1.378  14.563
24556SOL     OW75500  11.527  10.159  11.052
24556SOL    HW175501  11.474  10.156  10.973
24556SOL    HW275502  11.519  10.071  11.089
24557SOL     OW75503  12.025  14.355   0.258
24557SOL    HW175504  11.949  14.386   0.208
24557SOL    HW275505  12.078  14.434   0.271
24558SOL     OW75506   0.212  12.859   4.903
24558SOL    HW175507   0.206  12.917   4.979
24558SOL    HW275508   0.289  12.805   4.919
24559SOL     OW75509  11.841   8.558   2.167
24559SOL    HW175510  11.758   8.606   2.158
24559SOL    HW275511  11.816   8.476   2.209
24560SOL     OW75512   5.818   2.087   8.385
24560SOL    HW175513   5.844   2.172   8.352
24560SOL    HW275514   5.894   2.031   8.371
24561SOL     OW75515   8.285   6.691   4.250
24561SOL    HW175516   8.313   6.758   4.187
24561SOL    HW275517   8.350   6.694   4.320
24562SOL     OW75518  12.842  11.378   1.308
24562SOL    HW175519  12.844  11.353   1.401
24562SOL    HW275520  12.770  11.441   1.302
24563SOL     OW75521  11.863   7.438   1.564
24563SOL    HW175522  11.779   7.477   1.540
24563SOL    HW275523  11.894   7.399   1.483
24564SOL     OW75524   7.401   6.120   6.837
24564SOL    HW175525   7.420   6.149   6.748
24564SOL    HW275526   7.345   6.043   6.826
24565SOL     OW75527   1.243   9.680   5.477
24565SOL    HW175528   1.281   9.605   5.431
24565SOL    HW275529   1.293   9.685   5.559
24566SOL     OW75530   9.956   9.459  12.572
24566SOL    HW175531   9.950   9.549  12.604
24566SOL    HW275532   9.870   9.422  12.591
24567SOL     OW75533   4.315  13.403   0.854
24567SOL    HW175534   4.410  13.397   0.866
24567SOL    HW275535   4.302  13.485   0.808
24568SOL     OW75536   8.489   1.983   8.865
24568SOL    HW175537   8.516   1.987   8.957
24568SOL    HW275538   8.411   2.039   8.861
24569SOL     OW75539   4.744   9.696   6.654
24569SOL    HW175540   4.765   9.695   6.748
24569SOL    HW275541   4.768   9.609   6.623
24570SOL     OW75542   8.762  11.903   6.929
24570SOL    HW175543   8.711  11.984   6.934
24570SOL    HW275544   8.796  11.890   7.018
24571SOL     OW75545   2.487  12.091   9.258
24571SOL    HW175546   2.447  12.177   9.267
24571SOL    HW275547   2.492  12.077   9.163
24572SOL     OW75548   0.942   9.412  11.949
24572SOL    HW175549   1.025   9.448  11.980
24572SOL    HW275550   0.967   9.338  11.894
24573SOL     OW75551  13.538   8.319   1.561
24573SOL    HW175552  13.561   8.227   1.547
24573SOL    HW275553  13.536   8.356   1.472
24574SOL     OW75554   2.628   3.180   9.650
24574SOL    HW175555   2.675   3.234   9.586
24574SOL    HW275556   2.695   3.151   9.711
24575SOL     OW75557   1.812   9.173  13.532
24575SOL    HW175558   1.864   9.134  13.462
24575SOL    HW275559   1.854   9.257  13.550
24576SOL     OW75560  11.212   0.906  14.872
24576SOL    HW175561  11.236   0.815   0.015
24576SOL    HW275562  11.141   0.901  14.808
24577SOL     OW75563   3.822   9.758  10.181
24577SOL    HW175564   3.863   9.697  10.241
24577SOL    HW275565   3.746   9.711  10.147
24578SOL     OW75566  13.042   5.652  11.298
24578SOL    HW175567  13.068   5.572  11.344
24578SOL    HW275568  13.125   5.686  11.262
24579SOL     OW75569   8.272   7.566   4.299
24579SOL    HW175570   8.254   7.615   4.219
24579SOL    HW275571   8.366   7.579   4.314
24580SOL     OW75572   3.990   2.805   6.149
24580SOL    HW175573   4.003   2.887   6.100
24580SOL    HW275574   4.069   2.754   6.130
24581SOL     OW75575   9.732   1.242   1.117
24581SOL    HW175576   9.713   1.149   1.104
24581SOL    HW275577   9.798   1.262   1.051
24582SOL     OW75578  10.623  12.108  13.054
24582SOL    HW175579  10.542  12.059  13.040
24582SOL    HW275580  10.690  12.040  13.064
24583SOL     OW75581   5.706  12.264  14.092
24583SOL    HW175582   5.662  12.273  14.008
24583SOL    HW275583   5.790  12.309  14.080
24584SOL     OW75584  14.116   0.762   5.988
24584SOL    HW175585  14.076   0.843   6.022
24584SOL    HW275586  14.044   0.699   5.985
24585SOL     OW75587   0.988  13.954   0.155
24585SOL    HW175588   1.026  13.940   0.241
24585SOL    HW275589   0.999  13.871   0.109
24586SOL     OW75590   4.248   7.736  11.103
24586SOL    HW175591   4.313   7.754  11.171
24586SOL    HW275592   4.167   7.721  11.151
24587SOL     OW75593  13.423  11.586   7.991
24587SOL    HW175594  13.343  11.622   7.952
24587SOL    HW275595  13.403  11.494   8.007
24588SOL     OW75596  14.818   0.742  11.152
24588SOL    HW175597  14.870   0.678  11.105
24588SOL    HW275598   0.009   0.805  11.187
24589SOL     OW75599   4.152  13.016   4.707
24589SOL    HW175600   4.093  12.965   4.763
24589SOL    HW275601   4.102  13.094   4.683
24590SOL     OW75602   4.181   3.043   6.278
24590SOL    HW175603   4.154   3.016   6.189
24590SOL    HW275604   4.276   3.052   6.272
24591SOL     OW75605   4.815   3.960   9.817
24591SOL    HW175606   4.852   3.881   9.778
24591SOL    HW275607   4.721   3.955   9.797
24592SOL     OW75608   8.261   4.044   8.771
24592SOL    HW175609   8.174   4.014   8.796
24592SOL    HW275610   8.246   4.126   8.723
24593SOL     OW75611   0.209   8.836  14.059
24593SOL    HW175612   0.124   8.877  14.074
24593SOL    HW275613   0.269   8.909  14.046
24594SOL     OW75614   8.926   5.520  13.161
24594SOL    HW175615   8.903   5.517  13.068
24594SOL    HW275616   8.975   5.439  13.176
24595SOL     OW75617   5.464   4.783  10.537
24595SOL    HW175618   5.369   4.787  10.539
24595SOL    HW275619   5.485   4.741  10.453
24596SOL     OW75620   3.441  10.870  13.211
24596SOL    HW175621   3.374  10.848  13.276
24596SOL    HW275622   3.449  10.792  13.156
24597SOL     OW75623   1.415  13.648   0.131
24597SOL    HW175624   1.381  13.571   0.084
24597SOL    HW275625   1.484  13.682   0.074
24598SOL     OW75626   7.288   2.433   5.869
24598SOL    HW175627   7.218   2.371   5.889
24598SOL    HW275628   7.367   2.378   5.863
24599SOL     OW75629   8.945   8.165   5.405
24599SOL    HW175630   8.933   8.071   5.397
24599SOL    HW275631   8.860   8.198   5.433
24600SOL     OW75632  10.241   8.888   3.111
24600SOL    HW175633  10.334   8.907   3.121
24600SOL    HW275634  10.197   8.972   3.125
24601SOL     OW75635  11.597   1.235   5.001
24601SOL    HW175636  11.520   1.276   4.961
24601SOL    HW275637  11.566   1.205   5.087
24602SOL     OW75638  12.193   9.114  11.332
24602SOL    HW175639  12.196   9.198  11.286
24602SOL    HW275640  12.190   9.138  11.425
24603SOL     OW75641   1.365  10.954   3.703
24603SOL    HW175642   1.433  11.002   3.751
24603SOL    HW275643   1.306  10.923   3.771
24604SOL     OW75644   5.448  11.232  12.477
24604SOL    HW175645   5.461  11.138  12.495
24604SOL    HW275646   5.516  11.253  12.413
24605SOL     OW75647   6.188   6.121  12.918
24605SOL    HW175648   6.225   6.181  12.983
24605SOL    HW275649   6.193   6.170  12.836
24606SOL     OW75650   3.026   8.436   8.271
24606SOL    HW175651   3.073   8.507   8.228
24606SOL    HW275652   2.988   8.386   8.199
24607SOL     OW75653   8.114   6.381   6.956
24607SOL    HW175654   8.087   6.466   6.923
24607SOL    HW275655   8.058   6.318   6.911
24608SOL     OW75656   3.889   2.881   7.727
24608SOL    HW175657   3.911   2.831   7.649
24608SOL    HW275658   3.803   2.847   7.754
24609SOL     OW75659   8.326  13.832  14.131
24609SOL    HW175660   8.387  13.904  14.149
24609SOL    HW275661   8.370  13.779  14.064
24610SOL     OW75662   7.237   6.266   3.425
24610SOL    HW175663   7.160   6.235   3.473
24610SOL    HW275664   7.307   6.264   3.490
24611SOL     OW75665   2.684   6.348   3.393
24611SOL    HW175666   2.713   6.439   3.390
24611SOL    HW275667   2.661   6.332   3.484
24612SOL     OW75668   7.688   6.213   4.502
24612SOL    HW175669   7.594   6.195   4.505
24612SOL    HW275670   7.729   6.137   4.541
24613SOL     OW75671  12.419   8.933   9.206
24613SOL    HW175672  12.390   8.879   9.132
24613SOL    HW275673  12.411   9.023   9.174
24614SOL     OW75674   7.968   5.852   2.494
24614SOL    HW175675   7.892   5.877   2.441
24614SOL    HW275676   7.961   5.757   2.501
24615SOL     OW75677  12.982   2.512   8.775
24615SOL    HW175678  13.053   2.458   8.740
24615SOL    HW275679  12.969   2.580   8.709
24616SOL     OW75680  10.354  14.849   2.870
24616SOL    HW175681  10.308   0.017   2.944
24616SOL    HW275682  10.406  14.780   2.910
24617SOL     OW75683   7.124   2.770   8.504
24617SOL    HW175684   7.210   2.731   8.518
24617SOL    HW275685   7.073   2.743   8.580
24618SOL     OW75686   1.799  10.561  13.451
24618SOL    HW175687   1.821  10.652  13.431
24618SOL    HW275688   1.712  10.549  13.412
24619SOL     OW75689   6.421   0.755   3.076
24619SOL    HW175690   6.473   0.795   3.007
24619SOL    HW275691   6.460   0.669   3.090
24620SOL     OW75692   2.876   1.719  12.692
24620SOL    HW175693   2.849   1.731  12.601
24620SOL    HW275694   2.971   1.717  12.689
24621SOL     OW75695   5.401  13.880   8.378
24621SOL    HW175696   5.480  13.917   8.416
24621SOL    HW275697   5.422  13.868   8.285
24622SOL     OW75698   1.681  11.118   3.099
24622SOL    HW175699   1.626  11.154   3.030
24622SOL    HW275700   1.621  11.099   3.171
24623SOL     OW75701  12.315  14.139   7.723
24623SOL    HW175702  12.378  14.167   7.657
24623SOL    HW275703  12.234  14.184   7.700
24624SOL     OW75704   0.948  10.111  13.306
24624SOL    HW175705   1.044  10.119  13.304
24624SOL    HW275706   0.931  10.019  13.290
24625SOL     OW75707  10.046  11.726  10.786
24625SOL    HW175708  10.067  11.809  10.831
24625SOL    HW275709  10.023  11.752  10.697
24626SOL     OW75710   1.641   6.889  13.414
24626SOL    HW175711   1.605   6.942  13.486
24626SOL    HW275712   1.572   6.889  13.348
24627SOL     OW75713  10.878  12.665  14.519
24627SOL    HW175714  10.832  12.689  14.599
24627SOL    HW275715  10.903  12.748  14.479
24628SOL     OW75716   4.443   7.664   1.664
24628SOL    HW175717   4.522   7.612   1.674
24628SOL    HW275718   4.454   7.710   1.580
24629SOL     OW75719   1.013   5.940   5.801
24629SOL    HW175720   0.952   6.005   5.835
24629SOL    HW275721   1.022   5.961   5.708
24630SOL     OW75722   8.820  13.617   9.691
24630SOL    HW175723   8.782  13.535   9.723
24630SOL    HW275724   8.787  13.626   9.602
24631SOL     OW75725   4.868  11.747   9.800
24631SOL    HW175726   4.907  11.674   9.848
24631SOL    HW275727   4.777  11.750   9.831
24632SOL     OW75728  14.807   9.611   5.527
24632SOL    HW175729  14.809   9.668   5.604
24632SOL    HW275730   0.019   9.622   5.486
24633SOL     OW75731  12.179  14.626   0.536
24633SOL    HW175732  12.243  14.695   0.552
24633SOL    HW275733  12.173  14.621   0.440
24634SOL     OW75734   3.398   1.656   5.410
24634SOL    HW175735   3.307   1.686   5.411
24634SOL    HW275736   3.443   1.720   5.355
24635SOL     OW75737   1.643   8.168   8.951
24635SOL    HW175738   1.629   8.260   8.970
24635SOL    HW275739   1.559   8.126   8.971
24636SOL     OW75740   3.346   9.901  13.641
24636SOL    HW175741   3.351   9.838  13.713
24636SOL    HW275742   3.427   9.889  13.592
24637SOL     OW75743   6.562   3.087   1.981
24637SOL    HW175744   6.608   3.106   1.899
24637SOL    HW275745   6.631   3.083   2.047
24638SOL     OW75746   9.721   7.505   8.823
24638SOL    HW175747   9.799   7.450   8.825
24638SOL    HW275748   9.648   7.444   8.831
24639SOL     OW75749   6.469   5.284  13.745
24639SOL    HW175750   6.475   5.210  13.685
24639SOL    HW275751   6.383   5.276  13.786
24640SOL     OW75752   0.581   9.017   9.867
24640SOL    HW175753   0.659   8.962   9.877
24640SOL    HW275754   0.567   9.020   9.773
24641SOL     OW75755   2.934  12.465   6.933
24641SOL    HW175756   2.919  12.503   7.019
24641SOL    HW275757   2.853  12.479   6.885
24642SOL     OW75758   2.137   1.953   3.366
24642SOL    HW175759   2.044   1.937   3.376
24642SOL    HW275760   2.179   1.876   3.404
24643SOL     OW75761   9.764   2.185   2.596
24643SOL    HW175762   9.755   2.089   2.594
24643SOL    HW275763   9.717   2.215   2.518
24644SOL     OW75764  12.718   0.544   0.812
24644SOL    HW175765  12.782   0.473   0.820
24644SOL    HW275766  12.650   0.522   0.875
24645SOL     OW75767   2.843   5.416   0.243
24645SOL    HW175768   2.920   5.454   0.199
24645SOL    HW275769   2.880   5.370   0.318
24646SOL     OW75770   7.322  13.081  10.337
24646SOL    HW175771   7.371  13.136  10.399
24646SOL    HW275772   7.330  12.993  10.373
24647SOL     OW75773   0.848   0.626   6.315
24647SOL    HW175774   0.893   0.558   6.366
24647SOL    HW275775   0.881   0.708   6.350
24648SOL     OW75776   3.214   2.745   1.060
24648SOL    HW175777   3.305   2.718   1.074
24648SOL    HW275778   3.191   2.707   0.975
24649SOL     OW75779   2.110   9.999   9.839
24649SOL    HW175780   2.057  10.048   9.775
24649SOL    HW275781   2.199  10.004   9.805
24650SOL     OW75782  12.554  14.479  10.515
24650SOL    HW175783  12.569  14.478  10.610
24650SOL    HW275784  12.643  14.480  10.478
24651SOL     OW75785   8.586   8.550   5.470
24651SOL    HW175786   8.653   8.548   5.538
24651SOL    HW275787   8.623   8.606   5.402
24652SOL     OW75788   6.776   2.423  10.200
24652SOL    HW175789   6.774   2.494  10.136
24652SOL    HW275790   6.853   2.372  10.177
24653SOL     OW75791   1.404   6.333   6.452
24653SOL    HW175792   1.462   6.344   6.527
24653SOL    HW275793   1.433   6.252   6.410
24654SOL     OW75794  11.910   0.861   8.954
24654SOL    HW175795  11.975   0.802   8.916
24654SOL    HW275796  11.878   0.816   9.032
24655SOL     OW75797  12.909  14.419  14.786
24655SOL    HW175798  12.884  14.365  14.711
24655SOL    HW275799  12.873  14.373  14.862
24656SOL     OW75800   7.019  11.774  14.685
24656SOL    HW175801   7.018  11.720  14.606
24656SOL    HW275802   6.933  11.816  14.686
24657SOL     OW75803   6.487   6.667   3.706
24657SOL    HW175804   6.527   6.722   3.774
24657SOL    HW275805   6.552   6.666   3.635
24658SOL     OW75806   4.731   5.329   4.265
24658SOL    HW175807   4.712   5.278   4.344
24658SOL    HW275808   4.677   5.407   4.273
24659SOL     OW75809  10.503   7.042   8.046
24659SOL    HW175810  10.516   7.115   8.106
24659SOL    HW275811  10.494   6.965   8.102
24660SOL     OW75812   4.854   5.618  11.957
24660SOL    HW175813   4.853   5.708  11.922
24660SOL    HW275814   4.874   5.629  12.050
24661SOL     OW75815   3.433   7.547   0.208
24661SOL    HW175816   3.520   7.511   0.192
24661SOL    HW275817   3.434   7.632   0.164
24662SOL     OW75818  14.389   1.878   7.523
24662SOL    HW175819  14.343   1.846   7.601
24662SOL    HW275820  14.389   1.973   7.532
24663SOL     OW75821   5.909   6.859   1.640
24663SOL    HW175822   5.823   6.839   1.605
24663SOL    HW275823   5.961   6.780   1.622
24664SOL     OW75824   3.919  12.082  10.895
24664SOL    HW175825   3.987  12.014  10.904
24664SOL    HW275826   3.967  12.165  10.901
24665SOL     OW75827  12.258  10.448   5.771
24665SOL    HW175828  12.260  10.356   5.798
24665SOL    HW275829  12.182  10.455   5.713
24666SOL     OW75830  11.029   5.636   3.565
24666SOL    HW175831  11.096   5.686   3.611
24666SOL    HW275832  10.969   5.703   3.531
24667SOL     OW75833   2.462  10.176  13.311
24667SOL    HW175834   2.397  10.173  13.382
24667SOL    HW275835   2.409  10.185  13.232
24668SOL     OW75836   3.303  13.984   2.620
24668SOL    HW175837   3.289  13.893   2.647
24668SOL    HW275838   3.352  13.977   2.538
24669SOL     OW75839  11.648  10.540   9.916
24669SOL    HW175840  11.641  10.611   9.852
24669SOL    HW275841  11.649  10.460   9.864
24670SOL     OW75842   1.918   2.790   6.976
24670SOL    HW175843   2.007   2.771   6.945
24670SOL    HW275844   1.873   2.706   6.973
24671SOL     OW75845   5.357   4.220   6.954
24671SOL    HW175846   5.265   4.200   6.936
24671SOL    HW275847   5.405   4.142   6.925
24672SOL     OW75848   1.964   2.076   1.697
24672SOL    HW175849   2.030   2.098   1.632
24672SOL    HW275850   1.881   2.099   1.655
24673SOL     OW75851   9.963   5.631   2.414
24673SOL    HW175852  10.014   5.551   2.423
24673SOL    HW275853   9.881   5.603   2.372
24674SOL     OW75854  14.174  14.466   2.759
24674SOL    HW175855  14.238  14.508   2.815
24674SOL    HW275856  14.213  14.466   2.672
24675SOL     OW75857  12.976   4.477   3.406
24675SOL    HW175858  12.973   4.567   3.376
24675SOL    HW275859  12.927   4.478   3.488
24676SOL     OW75860   1.603   9.797   1.291
24676SOL    HW175861   1.667   9.855   1.249
24676SOL    HW275862   1.547   9.767   1.219
24677SOL     OW75863   6.430   8.475   2.038
24677SOL    HW175864   6.507   8.427   2.070
24677SOL    HW275865   6.355   8.428   2.076
24678SOL     OW75866   9.918  14.815  13.393
24678SOL    HW175867   9.976   0.017  13.413
24678SOL    HW275868   9.832  14.855  13.381
24679SOL     OW75869  14.871  11.684   7.346
24679SOL    HW175870  14.815  11.659   7.420
24679SOL    HW275871   0.084  11.648   7.368
24680SOL     OW75872  13.254   1.256  11.536
24680SOL    HW175873  13.177   1.280  11.486
24680SOL    HW275874  13.321   1.239  11.470
24681SOL     OW75875  12.599   6.637   4.363
24681SOL    HW175876  12.627   6.709   4.421
24681SOL    HW275877  12.665   6.569   4.377
24682SOL     OW75878   3.402   5.514   4.472
24682SOL    HW175879   3.313   5.550   4.475
24682SOL    HW275880   3.399   5.450   4.401
24683SOL     OW75881  12.012   6.709  10.385
24683SOL    HW175882  12.100   6.675  10.370
24683SOL    HW275883  11.966   6.694  10.303
24684SOL     OW75884  13.086  12.711  10.729
24684SOL    HW175885  13.092  12.615  10.720
24684SOL    HW275886  13.056  12.725  10.818
24685SOL     OW75887  10.540   5.583   1.331
24685SOL    HW175888  10.597   5.644   1.284
24685SOL    HW275889  10.479   5.551   1.265
24686SOL     OW75890   0.243  10.909   0.962
24686SOL    HW175891   0.206  10.832   0.919
24686SOL    HW275892   0.336  10.908   0.937
24687SOL     OW75893   6.460   4.815   4.205
24687SOL    HW175894   6.434   4.830   4.114
24687SOL    HW275895   6.556   4.805   4.201
24688SOL     OW75896   3.203   7.044  12.994
24688SOL    HW175897   3.147   7.099  13.048
24688SOL    HW275898   3.282   7.096  12.981
24689SOL     OW75899  13.075   8.698   3.221
24689SOL    HW175900  13.039   8.680   3.307
24689SOL    HW275901  13.148   8.637   3.211
24690SOL     OW75902   0.421   3.200   6.413
24690SOL    HW175903   0.486   3.249   6.362
24690SOL    HW275904   0.431   3.110   6.383
24691SOL     OW75905   4.810  10.429  14.004
24691SOL    HW175906   4.774  10.515  14.027
24691SOL    HW275907   4.733  10.376  13.983
24692SOL     OW75908   1.784   7.941  10.191
24692SOL    HW175909   1.819   7.856  10.165
24692SOL    HW275910   1.746   7.926  10.278
24693SOL     OW75911   9.148   0.431   5.849
24693SOL    HW175912   9.200   0.417   5.928
24693SOL    HW275913   9.091   0.354   5.844
24694SOL     OW75914   9.069   7.487   6.829
24694SOL    HW175915   9.137   7.487   6.761
24694SOL    HW275916   9.103   7.429   6.897
24695SOL     OW75917   9.966   0.883  14.861
24695SOL    HW175918   9.880   0.869   0.027
24695SOL    HW275919  10.019   0.809   0.018
24696SOL     OW75920   6.250   4.207   7.761
24696SOL    HW175921   6.220   4.279   7.704
24696SOL    HW275922   6.345   4.204   7.747
24697SOL     OW75923  14.393   4.336  10.744
24697SOL    HW175924  14.363   4.391  10.816
24697SOL    HW275925  14.488   4.350  10.741
24698SOL     OW75926  13.329   1.977   1.644
24698SOL    HW175927  13.394   2.044   1.625
24698SOL    HW275928  13.295   1.952   1.558
24699SOL     OW75929   5.380   6.444  10.760
24699SOL    HW175930   5.380   6.349  10.766
24699SOL    HW275931   5.289   6.469  10.778
24700SOL     OW75932  11.922  14.277   4.820
24700SOL    HW175933  12.017  14.286   4.807
24700SOL    HW275934  11.899  14.352   4.875
24701SOL     OW75935   5.278   8.936   5.782
24701SOL    HW175936   5.324   8.897   5.708
24701SOL    HW275937   5.226   9.006   5.744
24702SOL     OW75938   6.984   1.694   1.229
24702SOL    HW175939   6.983   1.627   1.298
24702SOL    HW275940   6.893   1.723   1.223
24703SOL     OW75941  13.736  11.590   7.088
24703SOL    HW175942  13.772  11.501   7.087
24703SOL    HW275943  13.806  11.644   7.051
24704SOL     OW75944   2.948  11.384   1.172
24704SOL    HW175945   3.041  11.372   1.152
24704SOL    HW275946   2.925  11.466   1.128
24705SOL     OW75947   6.721   7.713  12.789
24705SOL    HW175948   6.736   7.645  12.854
24705SOL    HW275949   6.741   7.795  12.834
24706SOL     OW75950   2.707  12.517   6.776
24706SOL    HW175951   2.638  12.455   6.800
24706SOL    HW275952   2.737  12.487   6.690
24707SOL     OW75953   1.084   3.464   4.280
24707SOL    HW175954   1.097   3.369   4.271
24707SOL    HW275955   1.072   3.495   4.190
24708SOL     OW75956   2.759   0.224   4.936
24708SOL    HW175957   2.718   0.221   5.022
24708SOL    HW275958   2.794   0.136   4.923
24709SOL     OW75959  11.735   7.351  12.551
24709SOL    HW175960  11.697   7.439  12.557
24709SOL    HW275961  11.673   7.303  12.496
24710SOL     OW75962   6.551   4.915   9.317
24710SOL    HW175963   6.532   4.829   9.354
24710SOL    HW275964   6.615   4.898   9.248
24711SOL     OW75965  10.550   0.118   0.124
24711SOL    HW175966  10.637   0.126   0.165
24711SOL    HW275967  10.493   0.088   0.195
24712SOL     OW75968   7.382  12.330   8.236
24712SOL    HW175969   7.362  12.236   8.241
24712SOL    HW275970   7.453  12.336   8.171
24713SOL     OW75971  14.679   9.603   8.310
24713SOL    HW175972  14.765   9.641   8.329
24713SOL    HW275973  14.678   9.593   8.215
24714SOL     OW75974   5.733   7.249  10.689
24714SOL    HW175975   5.714   7.341  10.704
24714SOL    HW275976   5.670   7.222  10.621
24715SOL     OW75977   1.208   8.543  11.505
24715SOL    HW175978   1.216   8.464  11.557
24715SOL    HW275979   1.157   8.517  11.428
24716SOL     OW75980   0.133  11.318   3.458
24716SOL    HW175981   0.191  11.242   3.461
24716SOL    HW275982   0.154  11.367   3.538
24717SOL     OW75983   2.590   0.889  12.855
24717SOL    HW175984   2.599   0.859  12.945
24717SOL    HW275985   2.629   0.819  12.802
24718SOL     OW75986   8.978   4.740  13.892
24718SOL    HW175987   8.948   4.797  13.963
24718SOL    HW275988   8.898   4.719  13.843
24719SOL     OW75989  13.325   8.437   6.503
24719SOL    HW175990  13.338   8.467   6.593
24719SOL    HW275991  13.316   8.342   6.511
24720SOL     OW75992  10.379   9.604   9.656
24720SOL    HW175993  10.301   9.658   9.650
24720SOL    HW275994  10.354   9.521   9.617
24721SOL     OW75995  11.489   8.457   6.132
24721SOL    HW175996  11.501   8.521   6.062
24721SOL    HW275997  11.463   8.510   6.208
24722SOL     OW75998   7.402   7.587  13.759
24722SOL    HW175999   7.486   7.630  13.749
24722SOL    HW276000   7.377   7.602  13.851
24723SOL     OW76001   2.844   1.282   5.652
24723SOL    HW176002   2.853   1.344   5.724
24723SOL    HW276003   2.934   1.259   5.629
24724SOL     OW76004   4.979   6.009  13.418
24724SOL    HW176005   4.989   5.949  13.492
24724SOL    HW276006   4.897   6.056  13.436
24725SOL     OW76007   5.304   0.738  13.830
24725SOL    HW176008   5.277   0.827  13.804
24725SOL    HW276009   5.363   0.752  13.904
24726SOL     OW76010   2.807  10.651  12.817
24726SOL    HW176011   2.834  10.572  12.771
24726SOL    HW276012   2.862  10.720  12.780
24727SOL     OW76013   3.376  13.471   7.640
24727SOL    HW176014   3.384  13.503   7.551
24727SOL    HW276015   3.309  13.526   7.680
24728SOL     OW76016   5.079  13.763   2.222
24728SOL    HW176017   5.029  13.688   2.189
24728SOL    HW276018   5.168  13.748   2.191
24729SOL     OW76019   4.445  13.156   7.614
24729SOL    HW176020   4.458  13.250   7.599
24729SOL    HW276021   4.392  13.127   7.540
24730SOL     OW76022  13.842  12.868   9.022
24730SOL    HW176023  13.788  12.830   9.091
24730SOL    HW276024  13.925  12.822   9.029
24731SOL     OW76025  14.336  10.997   4.647
24731SOL    HW176026  14.404  11.065   4.647
24731SOL    HW276027  14.261  11.037   4.691
24732SOL     OW76028   3.471   2.880  12.132
24732SOL    HW176029   3.529   2.804  12.123
24732SOL    HW276030   3.529   2.952  12.157
24733SOL     OW76031   0.195  11.933  10.508
24733SOL    HW176032   0.234  12.014  10.540
24733SOL    HW276033   0.213  11.933  10.414
24734SOL     OW76034   4.833  11.286   5.808
24734SOL    HW176035   4.851  11.194   5.787
24734SOL    HW276036   4.849  11.333   5.726
24735SOL     OW76037  12.879   7.071  13.753
24735SOL    HW176038  12.972   7.060  13.733
24735SOL    HW276039  12.864   7.014  13.828
24736SOL     OW76040   2.349  12.765   5.738
24736SOL    HW176041   2.290  12.695   5.765
24736SOL    HW276042   2.291  12.836   5.711
24737SOL     OW76043   7.343  11.330   3.686
24737SOL    HW176044   7.357  11.251   3.738
24737SOL    HW276045   7.363  11.403   3.746
24738SOL     OW76046   5.459   8.674   5.378
24738SOL    HW176047   5.416   8.588   5.381
24738SOL    HW276048   5.546   8.655   5.342
24739SOL     OW76049   6.381   4.589   8.416
24739SOL    HW176050   6.315   4.523   8.397
24739SOL    HW276051   6.450   4.573   8.352
24740SOL     OW76052  12.560   8.570  10.314
24740SOL    HW176053  12.541   8.639  10.251
24740SOL    HW276054  12.529   8.490  10.272
24741SOL     OW76055   4.466  11.172   3.868
24741SOL    HW176056   4.389  11.119   3.849
24741SOL    HW276057   4.451  11.205   3.957
24742SOL     OW76058  13.473   4.092   3.744
24742SOL    HW176059  13.548   4.106   3.802
24742SOL    HW276060  13.453   4.179   3.709
24743SOL     OW76061   5.291  13.763  12.094
24743SOL    HW176062   5.278  13.675  12.129
24743SOL    HW276063   5.284  13.752  11.999
24744SOL     OW76064   5.548   8.479   0.464
24744SOL    HW176065   5.568   8.386   0.449
24744SOL    HW276066   5.585   8.497   0.550
24745SOL     OW76067   5.534   7.072   0.608
24745SOL    HW176068   5.561   7.030   0.526
24745SOL    HW276069   5.554   7.164   0.595
24746SOL     OW76070   9.285  11.341   4.502
24746SOL    HW176071   9.304  11.306   4.590
24746SOL    HW276072   9.334  11.284   4.443
24747SOL     OW76073   0.321   7.082   1.144
24747SOL    HW176074   0.345   7.134   1.067
24747SOL    HW276075   0.371   7.001   1.134
24748SOL     OW76076  13.792   0.708  13.132
24748SOL    HW176077  13.854   0.723  13.061
24748SOL    HW276078  13.715   0.759  13.108
24749SOL     OW76079   2.295   4.591  12.008
24749SOL    HW176080   2.257   4.580  11.921
24749SOL    HW276081   2.380   4.632  11.992
24750SOL     OW76082   2.760  10.310  10.830
24750SOL    HW176083   2.741  10.349  10.915
24750SOL    HW276084   2.752  10.215  10.845
24751SOL     OW76085  12.774   1.201   2.087
24751SOL    HW176086  12.842   1.250   2.133
24751SOL    HW276087  12.748   1.132   2.148
24752SOL     OW76088   0.786   1.097  14.287
24752SOL    HW176089   0.877   1.110  14.314
24752SOL    HW276090   0.790   1.078  14.194
24753SOL     OW76091   6.907  13.894  10.181
24753SOL    HW176092   6.997  13.894  10.149
24753SOL    HW276093   6.915  13.915  10.274
24754SOL     OW76094  10.978   8.776   6.617
24754SOL    HW176095  10.937   8.690   6.611
24754SOL    HW276096  11.063   8.760   6.659
24755SOL     OW76097   7.048  13.403   8.710
24755SOL    HW176098   7.078  13.323   8.667
24755SOL    HW276099   7.040  13.378   8.803
24756SOL     OW76100   6.752   4.793   4.538
24756SOL    HW176101   6.708   4.768   4.619
24756SOL    HW276102   6.684   4.834   4.485
24757SOL     OW76103   8.443  12.689  11.464
24757SOL    HW176104   8.514  12.735  11.419
24757SOL    HW276105   8.372  12.687  11.400
24758SOL     OW76106   3.938  11.233  11.724
24758SOL    HW176107   3.929  11.245  11.818
24758SOL    HW276108   3.878  11.297  11.686
24759SOL     OW76109   5.438  14.712  11.490
24759SOL    HW176110   5.365  14.701  11.429
24759SOL    HW276111   5.477  14.625  11.497
24760SOL     OW76112   3.714   9.442   6.155
24760SOL    HW176113   3.787   9.475   6.208
24760SOL    HW276114   3.648   9.416   6.219
24761SOL     OW76115  10.888   2.346   0.471
24761SOL    HW176116  10.809   2.383   0.509
24761SOL    HW276117  10.942   2.422   0.448
24762SOL     OW76118   3.342   7.471   5.329
24762SOL    HW176119   3.351   7.566   5.335
24762SOL    HW276120   3.295   7.445   5.408
24763SOL     OW76121  11.806   3.971  14.136
24763SOL    HW176122  11.882   3.981  14.194
24763SOL    HW276123  11.833   3.903  14.074
24764SOL     OW76124   2.812  14.442  14.724
24764SOL    HW176125   2.770  14.420  14.640
24764SOL    HW276126   2.896  14.479  14.699
24765SOL     OW76127   9.723  12.128   9.185
24765SOL    HW176128   9.732  12.134   9.280
24765SOL    HW276129   9.673  12.206   9.160
24766SOL     OW76130   3.957   9.152   3.603
24766SOL    HW176131   3.958   9.059   3.627
24766SOL    HW276132   4.030   9.190   3.653
24767SOL     OW76133   8.193  11.153  13.383
24767SOL    HW176134   8.098  11.145  13.389
24767SOL    HW276135   8.222  11.162  13.474
24768SOL     OW76136   8.489   9.665   9.864
24768SOL    HW176137   8.565   9.606   9.866
24768SOL    HW276138   8.429   9.630   9.929
24769SOL     OW76139   2.996   9.950   7.626
24769SOL    HW176140   3.084   9.956   7.663
24769SOL    HW276141   2.970   9.859   7.639
24770SOL     OW76142  14.119   6.636   6.467
24770SOL    HW176143  14.130   6.663   6.558
24770SOL    HW276144  14.160   6.707   6.417
24771SOL     OW76145   9.647   5.772   7.839
24771SOL    HW176146   9.577   5.829   7.872
24771SOL    HW276147   9.669   5.715   7.912
24772SOL     OW76148  11.168   9.019   8.322
24772SOL    HW176149  11.247   9.052   8.365
24772SOL    HW276150  11.099   9.030   8.387
24773SOL     OW76151   2.916   1.605   9.288
24773SOL    HW176152   2.873   1.527   9.324
24773SOL    HW276153   2.894   1.675   9.350
24774SOL     OW76154  12.100  11.090   7.949
24774SOL    HW176155  12.029  11.102   7.886
24774SOL    HW276156  12.082  11.154   8.018
24775SOL     OW76157   4.793   5.202   9.829
24775SOL    HW176158   4.835   5.281   9.795
24775SOL    HW276159   4.700   5.215   9.815
24776SOL     OW76160   2.352  11.679  10.514
24776SOL    HW176161   2.391  11.763  10.539
24776SOL    HW276162   2.401  11.652  10.436
24777SOL     OW76163  11.294   4.001   3.489
24777SOL    HW176164  11.228   3.978   3.554
24777SOL    HW276165  11.300   3.925   3.432
24778SOL     OW76166  11.253   2.599   4.571
24778SOL    HW176167  11.232   2.674   4.515
24778SOL    HW276168  11.313   2.635   4.636
24779SOL     OW76169   1.225   1.044   0.225
24779SOL    HW176170   1.213   1.139   0.224
24779SOL    HW276171   1.267   1.026   0.310
24780SOL     OW76172  10.463  11.040  14.870
24780SOL    HW176173  10.552  11.005  14.871
24780SOL    HW276174  10.445  11.062   0.088
24781SOL     OW76175   4.167   1.077   1.994
24781SOL    HW176176   4.082   1.076   1.949
24781SOL    HW276177   4.231   1.078   1.924
24782SOL     OW76178   1.646  11.498   3.166
24782SOL    HW176179   1.726  11.451   3.146
24782SOL    HW276180   1.576  11.435   3.150
24783SOL     OW76181   7.541   1.810   4.918
24783SOL    HW176182   7.628   1.776   4.900
24783SOL    HW276183   7.529   1.882   4.857
24784SOL     OW76184   2.007   3.497   2.944
24784SOL    HW176185   2.026   3.540   3.028
24784SOL    HW276186   2.043   3.409   2.954
24785SOL     OW76187   5.516   2.860   3.588
24785SOL    HW176188   5.506   2.769   3.559
24785SOL    HW276189   5.534   2.853   3.682
24786SOL     OW76190   4.863  10.476  13.225
24786SOL    HW176191   4.872  10.442  13.314
24786SOL    HW276192   4.867  10.398  13.169
24787SOL     OW76193   1.778  12.629   8.438
24787SOL    HW176194   1.692  12.621   8.397
24787SOL    HW276195   1.778  12.563   8.508
24788SOL     OW76196   4.916  13.149  11.910
24788SOL    HW176197   4.928  13.057  11.932
24788SOL    HW276198   4.946  13.157  11.820
24789SOL     OW76199   5.192   2.563   8.071
24789SOL    HW176200   5.099   2.585   8.068
24789SOL    HW276201   5.219   2.586   8.160
24790SOL     OW76202  13.504  13.588   7.507
24790SOL    HW176203  13.595  13.599   7.477
24790SOL    HW276204  13.478  13.676   7.535
24791SOL     OW76205  14.435   2.279  13.795
24791SOL    HW176206  14.458   2.370  13.815
24791SOL    HW276207  14.479   2.228  13.863
24792SOL     OW76208   8.737  13.300   7.946
24792SOL    HW176209   8.673  13.333   7.883
24792SOL    HW276210   8.753  13.209   7.920
24793SOL     OW76211   0.463   5.082   4.267
24793SOL    HW176212   0.484   5.059   4.357
24793SOL    HW276213   0.398   5.017   4.240
24794SOL     OW76214   7.221  12.170  10.607
24794SOL    HW176215   7.301  12.119  10.592
24794SOL    HW276216   7.165  12.113  10.659
24795SOL     OW76217  11.511   2.932  12.077
24795SOL    HW176218  11.591   2.890  12.107
24795SOL    HW276219  11.463   2.862  12.033
24796SOL     OW76220   4.065   9.078   9.601
24796SOL    HW176221   4.029   9.166   9.591
24796SOL    HW276222   4.084   9.070   9.694
24797SOL     OW76223   8.219  12.285   4.749
24797SOL    HW176224   8.243  12.353   4.812
24797SOL    HW276225   8.302  12.262   4.707
24798SOL     OW76226  11.931  13.337   3.623
24798SOL    HW176227  11.993  13.339   3.550
24798SOL    HW276228  11.860  13.396   3.595
24799SOL     OW76229   0.434   6.580  12.628
24799SOL    HW176230   0.394   6.545  12.549
24799SOL    HW276231   0.453   6.503  12.682
24800SOL     OW76232  13.324   3.005   5.893
24800SOL    HW176233  13.310   2.918   5.854
24800SOL    HW276234  13.252   3.014   5.955
24801SOL     OW76235  10.338   5.743  11.121
24801SOL    HW176236  10.384   5.662  11.140
24801SOL    HW276237  10.299   5.769  11.204
24802SOL     OW76238  12.369   7.231  12.004
24802SOL    HW176239  12.355   7.160  11.941
24802SOL    HW276240  12.281   7.255  12.033
24803SOL     OW76241   1.019  13.391  12.778
24803SOL    HW176242   0.967  13.447  12.835
24803SOL    HW276243   1.015  13.305  12.819
24804SOL     OW76244  13.825   2.832  11.814
24804SOL    HW176245  13.731   2.848  11.806
24804SOL    HW276246  13.832   2.737  11.829
24805SOL     OW76247   4.014   7.448   1.221
24805SOL    HW176248   3.949   7.507   1.259
24805SOL    HW276249   4.075   7.505   1.174
24806SOL     OW76250   5.262   4.487  13.707
24806SOL    HW176251   5.329   4.515  13.769
24806SOL    HW276252   5.212   4.566  13.689
24807SOL     OW76253   5.728   0.394   4.127
24807SOL    HW176254   5.733   0.357   4.215
24807SOL    HW276255   5.722   0.489   4.141
24808SOL     OW76256  14.394   1.025   2.632
24808SOL    HW176257  14.319   1.015   2.691
24808SOL    HW276258  14.397   0.943   2.583
24809SOL     OW76259   9.969   0.450  11.134
24809SOL    HW176260  10.016   0.367  11.140
24809SOL    HW276261   9.925   0.447  11.049
24810SOL     OW76262   5.005   1.241  10.967
24810SOL    HW176263   4.928   1.287  11.002
24810SOL    HW276264   5.079   1.294  10.994
24811SOL     OW76265   9.834   4.180  12.372
24811SOL    HW176266   9.884   4.128  12.435
24811SOL    HW276267   9.743   4.166  12.397
24812SOL     OW76268  10.886   2.778   1.739
24812SOL    HW176269  10.806   2.826   1.760
24812SOL    HW276270  10.950   2.809   1.803
24813SOL     OW76271   5.515   6.378   5.312
24813SOL    HW176272   5.421   6.380   5.298
24813SOL    HW276273   5.540   6.470   5.321
24814SOL     OW76274   8.263   1.962  11.366
24814SOL    HW176275   8.328   2.021  11.328
24814SOL    HW276276   8.206   1.938  11.293
24815SOL     OW76277   3.217  13.766   0.986
24815SOL    HW176278   3.179  13.850   1.012
24815SOL    HW276279   3.311  13.785   0.978
24816SOL     OW76280   8.369   8.917   3.789
24816SOL    HW176281   8.440   8.869   3.831
24816SOL    HW276282   8.400   8.936   3.701
24817SOL     OW76283   7.954  10.428   8.574
24817SOL    HW176284   7.938  10.414   8.667
24817SOL    HW276285   7.962  10.340   8.538
24818SOL     OW76286   2.036   4.119   6.640
24818SOL    HW176287   2.086   4.069   6.575
24818SOL    HW276288   1.956   4.143   6.595
24819SOL     OW76289  14.641   0.935   2.077
24819SOL    HW176290  14.617   0.965   1.989
24819SOL    HW276291  14.584   0.984   2.135
24820SOL     OW76292   6.862   6.323   7.720
24820SOL    HW176293   6.772   6.319   7.753
24820SOL    HW276294   6.854   6.356   7.631
24821SOL     OW76295   0.837   2.411  12.084
24821SOL    HW176296   0.894   2.479  12.120
24821SOL    HW276297   0.750   2.449  12.084
24822SOL     OW76298   2.439  14.210   2.204
24822SOL    HW176299   2.426  14.304   2.191
24822SOL    HW276300   2.410  14.169   2.122
24823SOL     OW76301   8.800  14.652   4.100
24823SOL    HW176302   8.840  14.709   4.166
24823SOL    HW276303   8.850  14.571   4.106
24824SOL     OW76304   0.974   4.606  12.875
24824SOL    HW176305   0.881   4.620  12.894
24824SOL    HW276306   0.975   4.529  12.817
24825SOL     OW76307   1.561   1.388   5.578
24825SOL    HW176308   1.656   1.397   5.578
24825SOL    HW276309   1.538   1.378   5.670
24826SOL     OW76310  10.567   6.158   2.785
24826SOL    HW176311  10.578   6.086   2.723
24826SOL    HW276312  10.646   6.211   2.775
24827SOL     OW76313   2.490   5.337  11.378
24827SOL    HW176314   2.459   5.246  11.379
24827SOL    HW276315   2.581   5.331  11.351
24828SOL     OW76316  11.640  10.952   6.866
24828SOL    HW176317  11.683  10.940   6.951
24828SOL    HW276318  11.683  11.029   6.828
24829SOL     OW76319   8.012   8.239  14.272
24829SOL    HW176320   7.944   8.269  14.212
24829SOL    HW276321   7.964   8.213  14.351
24830SOL     OW76322   9.729   6.569   3.623
24830SOL    HW176323   9.724   6.614   3.539
24830SOL    HW276324   9.811   6.521   3.620
24831SOL     OW76325  11.036   7.707   9.716
24831SOL    HW176326  11.018   7.684   9.625
24831SOL    HW276327  11.032   7.623   9.762
24832SOL     OW76328   4.173  13.311   8.151
24832SOL    HW176329   4.151  13.256   8.226
24832SOL    HW276330   4.187  13.250   8.080
24833SOL     OW76331  10.149   2.788   0.981
24833SOL    HW176332  10.059   2.756   0.972
24833SOL    HW276333  10.149   2.836   1.064
24834SOL     OW76334   1.622   8.066   0.746
24834SOL    HW176335   1.599   8.114   0.826
24834SOL    HW276336   1.624   8.132   0.678
24835SOL     OW76337   6.384   9.478   5.549
24835SOL    HW176338   6.391   9.509   5.639
24835SOL    HW276339   6.335   9.397   5.555
24836SOL     OW76340   3.990   4.088   9.166
24836SOL    HW176341   4.031   4.013   9.124
24836SOL    HW276342   3.914   4.107   9.112
24837SOL     OW76343   2.828   4.751  11.860
24837SOL    HW176344   2.734   4.769  11.856
24837SOL    HW276345   2.869   4.837  11.869
24838SOL     OW76346   0.515   9.193   9.107
24838SOL    HW176347   0.433   9.192   9.158
24838SOL    HW276348   0.564   9.118   9.140
24839SOL     OW76349  10.455   6.392  14.285
24839SOL    HW176350  10.543   6.424  14.301
24839SOL    HW276351  10.398   6.460  14.320
24840SOL     OW76352   0.470   1.808   4.606
24840SOL    HW176353   0.390   1.778   4.647
24840SOL    HW276354   0.489   1.892   4.647
24841SOL     OW76355   6.252   5.764   0.436
24841SOL    HW176356   6.326   5.787   0.492
24841SOL    HW276357   6.180   5.820   0.467
24842SOL     OW76358   8.646  13.804  13.461
24842SOL    HW176359   8.663  13.714  13.431
24842SOL    HW276360   8.653  13.798  13.556
24843SOL     OW76361   2.380  13.246   3.528
24843SOL    HW176362   2.474  13.263   3.522
24843SOL    HW276363   2.339  13.332   3.519
24844SOL     OW76364   6.327  11.049   1.491
24844SOL    HW176365   6.235  11.030   1.476
24844SOL    HW276366   6.330  11.143   1.509
24845SOL     OW76367   8.341   9.335   8.550
24845SOL    HW176368   8.371   9.298   8.633
24845SOL    HW276369   8.309   9.260   8.501
24846SOL     OW76370   4.933   3.115  13.782
24846SOL    HW176371   4.872   3.081  13.847
24846SOL    HW276372   5.018   3.117  13.827
24847SOL     OW76373  13.428   7.433  10.960
24847SOL    HW176374  13.343   7.401  10.989
24847SOL    HW276375  13.488   7.360  10.976
24848SOL     OW76376   8.765   4.870  14.623
24848SOL    HW176377   8.759   4.965  14.608
24848SOL    HW276378   8.830   4.840  14.560
24849SOL     OW76379  11.860  14.607   2.007
24849SOL    HW176380  11.772  14.579   1.981
24849SOL    HW276381  11.860  14.603   2.102
24850SOL     OW76382   5.408   3.581   7.136
24850SOL    HW176383   5.334   3.534   7.098
24850SOL    HW276384   5.485   3.543   7.094
24851SOL     OW76385   8.962   8.355   1.098
24851SOL    HW176386   9.043   8.370   1.148
24851SOL    HW276387   8.896   8.407   1.144
24852SOL     OW76388   5.873   6.133   4.996
24852SOL    HW176389   5.918   6.216   5.006
24852SOL    HW276390   5.789   6.145   5.042
24853SOL     OW76391   2.933   2.554   6.225
24853SOL    HW176392   2.917   2.618   6.156
24853SOL    HW276393   2.953   2.472   6.179
24854SOL     OW76394   5.441   5.169   2.239
24854SOL    HW176395   5.347   5.160   2.226
24854SOL    HW276396   5.452   5.258   2.270
24855SOL     OW76397   6.153  13.711  11.481
24855SOL    HW176398   6.215  13.641  11.457
24855SOL    HW276399   6.104  13.728  11.400
24856SOL     OW76400   6.106   2.879  11.170
24856SOL    HW176401   6.024   2.868  11.219
24856SOL    HW276402   6.173   2.838  11.225
24857SOL     OW76403   8.325  14.051  13.817
24857SOL    HW176404   8.281  13.967  13.829
24857SOL    HW276405   8.355  14.075  13.905
24858SOL     OW76406   3.523   1.690  12.659
24858SOL    HW176407   3.455   1.655  12.602
24858SOL    HW276408   3.600   1.698  12.602
24859SOL     OW76409  10.411   8.366  14.115
24859SOL    HW176410  10.481   8.350  14.178
24859SOL    HW276411  10.375   8.451  14.142
24860SOL     OW76412  12.970   9.424   9.362
24860SOL    HW176413  13.010   9.415   9.449
24860SOL    HW276414  13.037   9.390   9.302
24861SOL     OW76415   8.287   4.071   4.561
24861SOL    HW176416   8.271   3.978   4.577
24861SOL    HW276417   8.330   4.074   4.475
24862SOL     OW76418   9.836   6.797   0.687
24862SOL    HW176419   9.855   6.856   0.614
24862SOL    HW276420   9.860   6.846   0.765
24863SOL     OW76421  12.899   0.609  11.819
24863SOL    HW176422  12.887   0.592  11.912
24863SOL    HW276423  12.814   0.640  11.789
24864SOL     OW76424   6.991  12.428   5.288
24864SOL    HW176425   7.043  12.439   5.209
24864SOL    HW276426   6.921  12.493   5.281
24865SOL     OW76427   7.615   5.204   2.872
24865SOL    HW176428   7.602   5.292   2.906
24865SOL    HW276429   7.703   5.179   2.902
24866SOL     OW76430   7.614  12.847   0.556
24866SOL    HW176431   7.648  12.848   0.645
24866SOL    HW276432   7.673  12.904   0.507
24867SOL     OW76433   5.581   6.682  10.216
24867SOL    HW176434   5.640   6.666  10.290
24867SOL    HW276435   5.523   6.606  10.213
24868SOL     OW76436  12.683   5.880   8.001
24868SOL    HW176437  12.657   5.790   8.016
24868SOL    HW276438  12.634   5.931   8.066
24869SOL     OW76439   8.527   5.648   0.816
24869SOL    HW176440   8.559   5.614   0.900
24869SOL    HW276441   8.574   5.731   0.805
24870SOL     OW76442   1.080   5.451   2.192
24870SOL    HW176443   1.048   5.447   2.282
24870SOL    HW276444   1.129   5.533   2.188
24871SOL     OW76445   6.402   3.226   0.683
24871SOL    HW176446   6.318   3.270   0.667
24871SOL    HW276447   6.465   3.279   0.634
24872SOL     OW76448   1.671   0.649   1.937
24872SOL    HW176449   1.699   0.572   1.887
24872SOL    HW276450   1.667   0.619   2.027
24873SOL     OW76451   7.290   5.873   8.271
24873SOL    HW176452   7.198   5.848   8.271
24873SOL    HW276453   7.331   5.812   8.333
24874SOL     OW76454   1.286   0.240  14.294
24874SOL    HW176455   1.352   0.218  14.359
24874SOL    HW276456   1.336   0.277  14.221
24875SOL     OW76457   4.745   3.099   7.045
24875SOL    HW176458   4.769   3.040   6.973
24875SOL    HW276459   4.810   3.169   7.041
24876SOL     OW76460   4.626   0.273  12.922
24876SOL    HW176461   4.587   0.208  12.864
24876SOL    HW276462   4.552   0.319  12.961
24877SOL     OW76463   7.825   8.986  14.523
24877SOL    HW176464   7.762   8.917  14.499
24877SOL    HW276465   7.861   8.957  14.606
24878SOL     OW76466  12.730   9.061   3.963
24878SOL    HW176467  12.780   9.032   3.887
24878SOL    HW276468  12.774   9.019   4.037
24879SOL     OW76469  12.767   6.177  11.945
24879SOL    HW176470  12.744   6.225  12.025
24879SOL    HW276471  12.798   6.245  11.885
24880SOL     OW76472   7.282   9.312  12.600
24880SOL    HW176473   7.325   9.232  12.632
24880SOL    HW276474   7.240   9.348  12.678
24881SOL     OW76475  11.850   3.521   6.000
24881SOL    HW176476  11.864   3.588   6.067
24881SOL    HW276477  11.818   3.570   5.924
24882SOL     OW76478   7.258   6.981   9.525
24882SOL    HW176479   7.303   7.063   9.506
24882SOL    HW276480   7.280   6.924   9.451
24883SOL     OW76481   3.078  13.284  12.622
24883SOL    HW176482   3.087  13.324  12.535
24883SOL    HW276483   2.985  13.296  12.644
24884SOL     OW76484   6.107  13.176  12.953
24884SOL    HW176485   6.028  13.219  12.921
24884SOL    HW276486   6.176  13.204  12.893
24885SOL     OW76487   6.023   5.914   2.420
24885SOL    HW176488   5.951   5.971   2.393
24885SOL    HW276489   6.092   5.973   2.447
24886SOL     OW76490   2.373  12.712  13.204
24886SOL    HW176491   2.339  12.744  13.287
24886SOL    HW276492   2.392  12.791  13.153
24887SOL     OW76493   9.141   9.650   1.317
24887SOL    HW176494   9.223   9.611   1.287
24887SOL    HW276495   9.114   9.708   1.246
24888SOL     OW76496   9.301  10.874   3.692
24888SOL    HW176497   9.229  10.887   3.753
24888SOL    HW276498   9.284  10.789   3.653
24889SOL     OW76499   4.600  13.132   1.043
24889SOL    HW176500   4.673  13.116   1.102
24889SOL    HW276501   4.634  13.114   0.955
24890SOL     OW76502   8.280  12.723   5.024
24890SOL    HW176503   8.266  12.791   5.090
24890SOL    HW276504   8.373  12.728   5.003
24891SOL     OW76505   2.982  13.843  13.417
24891SOL    HW176506   3.064  13.869  13.375
24891SOL    HW276507   2.921  13.830  13.344
24892SOL     OW76508   6.566   0.460   9.617
24892SOL    HW176509   6.503   0.468   9.689
24892SOL    HW276510   6.529   0.514   9.548
24893SOL     OW76511  14.650  14.138   2.950
24893SOL    HW176512  14.741  14.155   2.971
24893SOL    HW276513  14.652  14.057   2.898
24894SOL     OW76514  13.236   8.452  14.839
24894SOL    HW176515  13.242   8.448   0.062
24894SOL    HW276516  13.147   8.424  14.819
24895SOL     OW76517   3.868   0.745   8.938
24895SOL    HW176518   3.899   0.684   9.005
24895SOL    HW276519   3.857   0.692   8.860
24896SOL     OW76520  13.604   3.883   4.176
24896SOL    HW176521  13.692   3.846   4.177
24896SOL    HW276522  13.584   3.901   4.268
24897SOL     OW76523   6.745   8.153   4.873
24897SOL    HW176524   6.675   8.216   4.887
24897SOL    HW276525   6.803   8.163   4.948
24898SOL     OW76526  10.523   7.728   1.061
24898SOL    HW176527  10.576   7.655   1.029
24898SOL    HW276528  10.559   7.748   1.148
24899SOL     OW76529   6.368   1.833   6.887
24899SOL    HW176530   6.413   1.898   6.832
24899SOL    HW276531   6.437   1.799   6.944
24900SOL     OW76532   2.289  10.169   4.251
24900SOL    HW176533   2.316  10.078   4.237
24900SOL    HW276534   2.355  10.204   4.310
24901SOL     OW76535   2.631   3.780  14.370
24901SOL    HW176536   2.721   3.781  14.404
24901SOL    HW276537   2.585   3.717  14.424
24902SOL     OW76538  10.594  11.642   7.636
24902SOL    HW176539  10.562  11.689   7.713
24902SOL    HW276540  10.519  11.638   7.577
24903SOL     OW76541   1.652   1.764  14.142
24903SOL    HW176542   1.674   1.738  14.231
24903SOL    HW276543   1.586   1.833  14.152
24904SOL     OW76544  10.664  14.251   9.392
24904SOL    HW176545  10.685  14.180   9.332
24904SOL    HW276546  10.704  14.329   9.352
24905SOL     OW76547   8.592   4.377  10.462
24905SOL    HW176548   8.552   4.297  10.498
24905SOL    HW276549   8.655   4.404  10.529
24906SOL     OW76550  14.047   3.187   0.213
24906SOL    HW176551  14.096   3.170   0.293
24906SOL    HW276552  14.106   3.239   0.159
24907SOL     OW76553   7.222   7.804   1.022
24907SOL    HW176554   7.172   7.740   1.071
24907SOL    HW276555   7.292   7.753   0.981
24908SOL     OW76556   2.731   5.202   7.777
24908SOL    HW176557   2.825   5.216   7.763
24908SOL    HW276558   2.699   5.286   7.810
24909SOL     OW76559   7.369  11.137   1.132
24909SOL    HW176560   7.326  11.160   1.215
24909SOL    HW276561   7.297  11.130   1.070
24910SOL     OW76562   5.038  12.222   8.906
24910SOL    HW176563   4.966  12.224   8.843
24910SOL    HW276564   5.113  12.258   8.858
24911SOL     OW76565  10.392   1.857   9.337
24911SOL    HW176566  10.363   1.828   9.423
24911SOL    HW276567  10.335   1.810   9.276
24912SOL     OW76568   3.639   4.655  13.803
24912SOL    HW176569   3.699   4.658  13.730
24912SOL    HW276570   3.568   4.598  13.773
24913SOL     OW76571   9.753  12.373   1.405
24913SOL    HW176572   9.764  12.458   1.363
24913SOL    HW276573   9.660  12.353   1.394
24914SOL     OW76574   3.695  11.506   1.018
24914SOL    HW176575   3.764  11.463   0.967
24914SOL    HW276576   3.701  11.598   0.992
24915SOL     OW76577   4.199   0.311   9.699
24915SOL    HW176578   4.279   0.348   9.664
24915SOL    HW276579   4.226   0.266   9.779
24916SOL     OW76580   0.272  11.890  12.354
24916SOL    HW176581   0.313  11.976  12.359
24916SOL    HW276582   0.323  11.836  12.414
24917SOL     OW76583  13.025   9.922   4.619
24917SOL    HW176584  13.001   9.958   4.533
24917SOL    HW276585  13.110   9.882   4.605
24918SOL     OW76586   2.616  13.996   3.708
24918SOL    HW176587   2.594  13.903   3.700
24918SOL    HW276588   2.710  13.999   3.689
24919SOL     OW76589   9.059   4.522   4.738
24919SOL    HW176590   8.966   4.499   4.739
24919SOL    HW276591   9.064   4.603   4.790
24920SOL     OW76592   7.644   9.230   4.661
24920SOL    HW176593   7.611   9.201   4.746
24920SOL    HW276594   7.569   9.222   4.602
24921SOL     OW76595   4.892   6.579   4.431
24921SOL    HW176596   4.902   6.662   4.478
24921SOL    HW276597   4.957   6.583   4.361
24922SOL     OW76598   8.141   4.467  11.083
24922SOL    HW176599   8.046   4.463  11.093
24922SOL    HW276600   8.169   4.376  11.076
24923SOL     OW76601   5.593  12.978  10.539
24923SOL    HW176602   5.584  13.044  10.607
24923SOL    HW276603   5.681  12.942  10.551
24924SOL     OW76604  13.715   2.782   7.576
24924SOL    HW176605  13.800   2.771   7.533
24924SOL    HW276606  13.681   2.864   7.541
24925SOL     OW76607   6.827  12.508  10.011
24925SOL    HW176608   6.846  12.414  10.000
24925SOL    HW276609   6.794  12.535   9.925
24926SOL     OW76610  14.611  13.627   2.901
24926SOL    HW176611  14.672  13.677   2.954
24926SOL    HW276612  14.530  13.626   2.951
24927SOL     OW76613  13.066  13.356  12.734
24927SOL    HW176614  13.157  13.383  12.722
24927SOL    HW276615  13.034  13.335  12.646
24928SOL     OW76616   5.625   4.987   6.344
24928SOL    HW176617   5.663   5.039   6.414
24928SOL    HW276618   5.564   4.928   6.389
24929SOL     OW76619   8.383  12.649  14.833
24929SOL    HW176620   8.386  12.558  14.862
24929SOL    HW276621   8.446  12.695   0.016
24930SOL     OW76622  14.776   1.851   1.536
24930SOL    HW176623  14.758   1.927   1.482
24930SOL    HW276624  14.833   1.883   1.606
24931SOL     OW76625   1.729   6.811   8.056
24931SOL    HW176626   1.729   6.872   8.129
24931SOL    HW276627   1.649   6.831   8.007
24932SOL     OW76628  13.193   6.303   9.677
24932SOL    HW176629  13.207   6.339   9.589
24932SOL    HW276630  13.270   6.249   9.693
24933SOL     OW76631   9.521  12.828   7.171
24933SOL    HW176632   9.508  12.907   7.223
24933SOL    HW276633   9.607  12.795   7.198
24934SOL     OW76634   7.917   0.876  14.041
24934SOL    HW176635   7.879   0.901  14.126
24934SOL    HW276636   8.000   0.923  14.038
24935SOL     OW76637   5.246  13.523   7.954
24935SOL    HW176638   5.251  13.554   8.044
24935SOL    HW276639   5.330  13.481   7.938
24936SOL     OW76640  13.172  11.097   3.562
24936SOL    HW176641  13.210  11.023   3.516
24936SOL    HW276642  13.243  11.131   3.617
24937SOL     OW76643   8.126   3.833   0.605
24937SOL    HW176644   8.111   3.927   0.617
24937SOL    HW276645   8.204   3.815   0.658
24938SOL     OW76646  12.643  12.957   1.214
24938SOL    HW176647  12.565  12.991   1.259
24938SOL    HW276648  12.690  12.909   1.282
24939SOL     OW76649   1.512   9.518   7.606
24939SOL    HW176650   1.542   9.458   7.538
24939SOL    HW276651   1.511   9.604   7.564
24940SOL     OW76652  10.590   7.836   7.395
24940SOL    HW176653  10.636   7.919   7.401
24940SOL    HW276654  10.503   7.859   7.362
24941SOL     OW76655   9.251  12.507   8.748
24941SOL    HW176656   9.225  12.480   8.660
24941SOL    HW276657   9.180  12.564   8.778
24942SOL     OW76658   1.131   6.717  11.081
24942SOL    HW176659   1.151   6.626  11.061
24942SOL    HW276660   1.107   6.717  11.173
24943SOL     OW76661   1.534   3.885   8.030
24943SOL    HW176662   1.621   3.925   8.036
24943SOL    HW276663   1.479   3.937   8.089
24944SOL     OW76664   4.309  13.345  12.502
24944SOL    HW176665   4.274  13.256  12.495
24944SOL    HW276666   4.400  13.337  12.474
24945SOL     OW76667  12.399   3.457   1.467
24945SOL    HW176668  12.318   3.437   1.513
24945SOL    HW276669  12.466   3.456   1.535
24946SOL     OW76670   1.621  10.682   9.498
24946SOL    HW176671   1.545  10.695   9.440
24946SOL    HW276672   1.696  10.685   9.440
24947SOL     OW76673   3.170   1.856  10.738
24947SOL    HW176674   3.241   1.804  10.776
24947SOL    HW276675   3.090   1.815  10.772
24948SOL     OW76676  14.594   7.663   2.628
24948SOL    HW176677  14.528   7.712   2.579
24948SOL    HW276678  14.605   7.713   2.709
24949SOL     OW76679   8.932  13.337   8.137
24949SOL    HW176680   8.922  13.429   8.159
24949SOL    HW276681   8.859  13.319   8.077
24950SOL     OW76682  11.537   7.242  12.857
24950SOL    HW176683  11.507   7.173  12.797
24950SOL    HW276684  11.632   7.244  12.847
24951SOL     OW76685  10.660   2.958   3.979
24951SOL    HW176686  10.637   2.944   3.887
24951SOL    HW276687  10.754   2.977   3.978
24952SOL     OW76688  12.669  13.140  10.819
24952SOL    HW176689  12.682  13.234  10.807
24952SOL    HW276690  12.652  13.130  10.913
24953SOL     OW76691   2.984  13.000  12.587
24953SOL    HW176692   3.077  13.005  12.564
24953SOL    HW276693   2.955  13.091  12.589
24954SOL     OW76694  10.624   6.488  11.027
24954SOL    HW176695  10.626   6.517  10.936
24954SOL    HW276696  10.547   6.430  11.032
24955SOL     OW76697   9.480   5.150  12.281
24955SOL    HW176698   9.403   5.188  12.323
24955SOL    HW276699   9.444   5.077  12.229
24956SOL     OW76700   4.472   5.096   0.395
24956SOL    HW176701   4.452   5.185   0.367
24956SOL    HW276702   4.539   5.107   0.464
24957SOL     OW76703   7.402   8.185  12.060
24957SOL    HW176704   7.444   8.270  12.072
24957SOL    HW276705   7.308   8.204  12.066
24958SOL     OW76706   5.191   3.642   2.908
24958SOL    HW176707   5.169   3.713   2.969
24958SOL    HW276708   5.284   3.625   2.925
24959SOL     OW76709  10.250   2.082  12.977
24959SOL    HW176710  10.180   2.125  13.026
24959SOL    HW276711  10.228   1.989  12.980
24960SOL     OW76712   8.501  14.648  14.433
24960SOL    HW176713   8.527  14.567  14.478
24960SOL    HW276714   8.518  14.631  14.340
24961SOL     OW76715  11.942  13.611   4.678
24961SOL    HW176716  12.025  13.610   4.727
24961SOL    HW276717  11.962  13.562   4.597
24962SOL     OW76718   0.520  13.736  14.651
24962SOL    HW176719   0.495  13.777  14.568
24962SOL    HW276720   0.475  13.651  14.649
24963SOL     OW76721  12.481   8.821  12.330
24963SOL    HW176722  12.388   8.830  12.350
24963SOL    HW276723  12.519   8.780  12.408
24964SOL     OW76724   0.102   1.600   8.900
24964SOL    HW176725   0.119   1.506   8.893
24964SOL    HW276726   0.037   1.618   8.832
24965SOL     OW76727   0.688   6.247   1.210
24965SOL    HW176728   0.753   6.279   1.148
24965SOL    HW276729   0.666   6.323   1.264
24966SOL     OW76730   1.267   1.456   6.497
24966SOL    HW176731   1.200   1.524   6.502
24966SOL    HW276732   1.296   1.445   6.587
24967SOL     OW76733   8.009   0.182   5.775
24967SOL    HW176734   7.922   0.172   5.813
24967SOL    HW276735   8.017   0.276   5.757
24968SOL     OW76736   4.142   2.770  11.718
24968SOL    HW176737   4.191   2.754  11.799
24968SOL    HW276738   4.160   2.862  11.697
24969SOL     OW76739   3.666  10.076   3.897
24969SOL    HW176740   3.745  10.080   3.843
24969SOL    HW276741   3.615  10.152   3.871
24970SOL     OW76742   9.802   6.779   7.539
24970SOL    HW176743   9.890   6.747   7.521
24970SOL    HW276744   9.794   6.776   7.634
24971SOL     OW76745  10.809   3.556  12.873
24971SOL    HW176746  10.838   3.564  12.963
24971SOL    HW276747  10.886   3.524  12.826
24972SOL     OW76748   5.449   0.489   2.835
24972SOL    HW176749   5.481   0.513   2.749
24972SOL    HW276750   5.485   0.556   2.894
24973SOL     OW76751   7.644   4.543   6.467
24973SOL    HW176752   7.663   4.624   6.419
24973SOL    HW276753   7.642   4.475   6.399
24974SOL     OW76754   5.890  11.114   9.286
24974SOL    HW176755   5.805  11.135   9.248
24974SOL    HW276756   5.941  11.194   9.277
24975SOL     OW76757  13.123   7.431  13.616
24975SOL    HW176758  13.089   7.367  13.553
24975SOL    HW276759  13.178   7.380  13.675
24976SOL     OW76760   3.998   0.869   8.746
24976SOL    HW176761   3.951   0.857   8.829
24976SOL    HW276762   4.056   0.793   8.740
24977SOL     OW76763  10.772   0.007   7.028
24977SOL    HW176764  10.804   0.068   7.094
24977SOL    HW276765  10.696  14.838   7.068
24978SOL     OW76766   4.043   4.216  14.774
24978SOL    HW176767   3.968   4.276  14.774
24978SOL    HW276768   4.004   4.129  14.766
24979SOL     OW76769   2.545   4.874  13.467
24979SOL    HW176770   2.597   4.834  13.398
24979SOL    HW276771   2.507   4.952  13.427
24980SOL     OW76772  10.798   0.997  13.535
24980SOL    HW176773  10.888   0.966  13.544
24980SOL    HW276774  10.747   0.918  13.518
24981SOL     OW76775  12.440   7.684   2.281
24981SOL    HW176776  12.387   7.640   2.348
24981SOL    HW276777  12.378   7.710   2.214
24982SOL     OW76778   6.076   3.123   1.201
24982SOL    HW176779   6.001   3.094   1.151
24982SOL    HW276780   6.132   3.045   1.209
24983SOL     OW76781  12.246   7.293   5.178
24983SOL    HW176782  12.236   7.205   5.212
24983SOL    HW276783  12.294   7.282   5.095
24984SOL     OW76784   6.025  12.226   0.414
24984SOL    HW176785   6.073  12.292   0.365
24984SOL    HW276786   6.083  12.150   0.415
24985SOL     OW76787   9.346  10.404   2.240
24985SOL    HW176788   9.329  10.416   2.333
24985SOL    HW276789   9.440  10.421   2.230
24986SOL     OW76790   7.545   4.085   3.270
24986SOL    HW176791   7.479   4.102   3.203
24986SOL    HW276792   7.537   3.991   3.287
24987SOL     OW76793  14.049  13.628  12.008
24987SOL    HW176794  14.116  13.564  11.987
24987SOL    HW276795  14.039  13.679  11.928
24988SOL     OW76796   1.857  10.200   5.688
24988SOL    HW176797   1.863  10.144   5.610
24988SOL    HW276798   1.831  10.140   5.758
24989SOL     OW76799   5.305   0.675   9.758
24989SOL    HW176800   5.223   0.682   9.805
24989SOL    HW276801   5.299   0.740   9.687
24990SOL     OW76802   2.027   2.775  11.923
24990SOL    HW176803   2.058   2.698  11.876
24990SOL    HW276804   2.105   2.809  11.968
24991SOL     OW76805  10.853  12.600  10.425
24991SOL    HW176806  10.780  12.587  10.485
24991SOL    HW276807  10.819  12.659  10.358
24992SOL     OW76808  10.834   1.227  10.766
24992SOL    HW176809  10.880   1.310  10.765
24992SOL    HW276810  10.822   1.206  10.673
24993SOL     OW76811   2.829   2.212   2.457
24993SOL    HW176812   2.806   2.270   2.529
24993SOL    HW276813   2.783   2.130   2.475
24994SOL     OW76814   0.502   8.439   6.941
24994SOL    HW176815   0.500   8.389   7.023
24994SOL    HW276816   0.555   8.385   6.882
24995SOL     OW76817  11.580   6.573   4.033
24995SOL    HW176818  11.525   6.545   4.106
24995SOL    HW276819  11.561   6.510   3.963
24996SOL     OW76820   7.850   1.087   9.991
24996SOL    HW176821   7.932   1.089   9.941
24996SOL    HW276822   7.843   1.175  10.029
24997SOL     OW76823   0.573  11.394   9.268
24997SOL    HW176824   0.493  11.439   9.242
24997SOL    HW276825   0.555  11.359   9.355
24998SOL     OW76826   9.058  13.839   6.807
24998SOL    HW176827   9.037  13.747   6.789
24998SOL    HW276828   9.071  13.843   6.902
24999SOL     OW76829   7.745  11.054   5.655
24999SOL    HW176830   7.774  11.145   5.651
24999SOL    HW276831   7.813  11.011   5.708
25000SOL     OW76832   1.729   0.448   6.162
25000SOL    HW176833   1.703   0.454   6.254
25000SOL    HW276834   1.726   0.354   6.143
25001SOL     OW76835  14.616   9.042   5.431
25001SOL    HW176836  14.586   9.108   5.493
25001SOL    HW276837  14.694   9.080   5.390
25002SOL     OW76838   0.731   7.657   5.516
25002SOL    HW176839   0.754   7.589   5.580
25002SOL    HW276840   0.668   7.712   5.562
25003SOL     OW76841  10.496   3.390   5.192
25003SOL    HW176842  10.412   3.394   5.146
25003SOL    HW276843  10.504   3.299   5.220
25004SOL     OW76844   3.306   0.855  13.115
25004SOL    HW176845   3.278   0.766  13.095
25004SOL    HW276846   3.344   0.887  13.033
25005SOL     OW76847  13.049  11.326   5.479
25005SOL    HW176848  12.990  11.255   5.454
25005SOL    HW276849  12.995  11.385   5.532
25006SOL     OW76850   0.703   6.387  13.163
25006SOL    HW176851   0.703   6.467  13.216
25006SOL    HW276852   0.739   6.320  13.220
25007SOL     OW76853  11.823   8.343   7.663
25007SOL    HW176854  11.781   8.372   7.582
25007SOL    HW276855  11.831   8.248   7.653
25008SOL     OW76856   1.667   9.804   2.692
25008SOL    HW176857   1.733   9.757   2.742
25008SOL    HW276858   1.707   9.889   2.672
25009SOL     OW76859   5.048   4.080   6.812
25009SOL    HW176860   4.976   4.059   6.751
25009SOL    HW276861   5.057   4.175   6.806
25010SOL     OW76862  12.820   3.468  10.719
25010SOL    HW176863  12.736   3.441  10.755
25010SOL    HW276864  12.878   3.474  10.795
25011SOL     OW76865   1.326   4.227   6.709
25011SOL    HW176866   1.325   4.155   6.772
25011SOL    HW276867   1.376   4.296   6.752
25012SOL     OW76868   7.747   1.127  10.264
25012SOL    HW176869   7.743   1.050  10.321
25012SOL    HW276870   7.820   1.179  10.299
25013SOL     OW76871   4.164  13.937   9.591
25013SOL    HW176872   4.075  13.946   9.556
25013SOL    HW276873   4.221  13.963   9.518
25014SOL     OW76874   3.969  10.396   6.591
25014SOL    HW176875   4.040  10.439   6.639
25014SOL    HW276876   3.951  10.454   6.517
25015SOL     OW76877   9.982   9.758   0.147
25015SOL    HW176878   9.960   9.844   0.113
25015SOL    HW276879   9.898   9.715   0.162
25016SOL     OW76880   8.048  14.007   1.169
25016SOL    HW176881   8.001  14.086   1.145
25016SOL    HW276882   8.003  13.976   1.249
25017SOL     OW76883   0.873   9.834  10.065
25017SOL    HW176884   0.892   9.742  10.047
25017SOL    HW276885   0.778   9.838  10.068
25018SOL     OW76886  12.567  12.571   0.290
25018SOL    HW176887  12.590  12.490   0.336
25018SOL    HW276888  12.479  12.554   0.255
25019SOL     OW76889   6.443  14.314   9.750
25019SOL    HW176890   6.529  14.278   9.773
25019SOL    HW276891   6.459  14.407   9.734
25020SOL     OW76892  10.588   6.976   4.674
25020SOL    HW176893  10.681   6.995   4.682
25020SOL    HW276894  10.555   6.983   4.764
25021SOL     OW76895   9.310  12.649   0.985
25021SOL    HW176896   9.220  12.626   0.961
25021SOL    HW276897   9.304  12.675   1.077
25022SOL     OW76898   9.132  14.731   3.857
25022SOL    HW176899   9.041  14.757   3.841
25022SOL    HW276900   9.127  14.675   3.935
25023SOL     OW76901   1.464   2.574   6.899
25023SOL    HW176902   1.552   2.568   6.934
25023SOL    HW276903   1.463   2.657   6.850
25024SOL     OW76904   8.730   6.034   9.847
25024SOL    HW176905   8.649   5.986   9.862
25024SOL    HW276906   8.799   5.977   9.884
25025SOL     OW76907   0.511   4.424  10.034
25025SOL    HW176908   0.524   4.494   9.969
25025SOL    HW276909   0.494   4.346   9.981
25026SOL     OW76910  14.759   1.955   2.982
25026SOL    HW176911  14.789   1.871   2.947
25026SOL    HW276912  14.824   1.978   3.048
25027SOL     OW76913  11.557  11.613  11.393
25027SOL    HW176914  11.594  11.560  11.464
25027SOL    HW276915  11.617  11.686  11.382
25028SOL     OW76916  11.106   9.346  14.129
25028SOL    HW176917  11.081   9.431  14.094
25028SOL    HW276918  11.024   9.297  14.132
25029SOL     OW76919   1.894   7.512   9.408
25029SOL    HW176920   1.831   7.460   9.458
25029SOL    HW276921   1.892   7.474   9.320
25030SOL     OW76922   1.512   2.908   3.274
25030SOL    HW176923   1.602   2.882   3.256
25030SOL    HW276924   1.478   2.840   3.332
25031SOL     OW76925   9.724  12.896   2.036
25031SOL    HW176926   9.799  12.900   2.096
25031SOL    HW276927   9.681  12.981   2.045
25032SOL     OW76928   5.636  11.346   4.722
25032SOL    HW176929   5.642  11.387   4.636
25032SOL    HW276930   5.626  11.252   4.703
25033SOL     OW76931   5.518  11.974   4.381
25033SOL    HW176932   5.430  11.961   4.345
25033SOL    HW276933   5.551  11.885   4.397
25034SOL     OW76934   6.241  12.649  14.647
25034SOL    HW176935   6.192  12.567  14.640
25034SOL    HW276936   6.293  12.640  14.726
25035SOL     OW76937   3.653   1.837  13.329
25035SOL    HW176938   3.594   1.826  13.403
25035SOL    HW276939   3.601   1.886  13.264
25036SOL     OW76940   6.373   1.124   0.507
25036SOL    HW176941   6.390   1.213   0.476
25036SOL    HW276942   6.282   1.125   0.535
25037SOL     OW76943  14.183   3.575  12.394
25037SOL    HW176944  14.122   3.602  12.325
25037SOL    HW276945  14.136   3.595  12.475
25038SOL     OW76946   1.029  13.703   4.995
25038SOL    HW176947   1.040  13.796   4.978
25038SOL    HW276948   1.035  13.661   4.909
25039SOL     OW76949   0.106   8.021   9.872
25039SOL    HW176950   0.146   8.108   9.878
25039SOL    HW276951   0.173   7.967   9.830
25040SOL     OW76952  13.932  12.626   6.499
25040SOL    HW176953  13.884  12.637   6.581
25040SOL    HW276954  13.869  12.647   6.431
25041SOL     OW76955  12.746   1.791   0.249
25041SOL    HW176956  12.823   1.838   0.277
25041SOL    HW276957  12.691   1.856   0.205
25042SOL     OW76958  11.858   5.268  13.729
25042SOL    HW176959  11.831   5.212  13.803
25042SOL    HW276960  11.878   5.352  13.769
25043SOL     OW76961   9.364  11.938  10.745
25043SOL    HW176962   9.449  11.971  10.775
25043SOL    HW276963   9.300  11.987  10.796
25044SOL     OW76964  14.565   8.433   5.698
25044SOL    HW176965  14.578   8.343   5.726
25044SOL    HW276966  14.638   8.481   5.737
25045SOL     OW76967   1.087   4.650  13.477
25045SOL    HW176968   1.049   4.723  13.526
25045SOL    HW276969   1.054   4.662  13.388
25046SOL     OW76970   0.681  13.075   3.900
25046SOL    HW176971   0.701  12.984   3.920
25046SOL    HW276972   0.605  13.071   3.841
25047SOL     OW76973  13.593   0.759  12.291
25047SOL    HW176974  13.644   0.825  12.244
25047SOL    HW276975  13.510   0.754  12.243
25048SOL     OW76976   2.421   5.589   3.176
25048SOL    HW176977   2.491   5.655   3.178
25048SOL    HW276978   2.351   5.630   3.125
25049SOL     OW76979  10.403   3.451   4.495
25049SOL    HW176980  10.465   3.505   4.544
25049SOL    HW276981  10.437   3.452   4.405
25050SOL     OW76982   7.960  13.942   4.638
25050SOL    HW176983   8.016  13.921   4.563
25050SOL    HW276984   7.953  13.860   4.687
25051SOL     OW76985   4.378   3.237   5.169
25051SOL    HW176986   4.386   3.174   5.098
25051SOL    HW276987   4.295   3.282   5.152
25052SOL     OW76988  14.715   4.932   3.684
25052SOL    HW176989  14.766   5.012   3.679
25052SOL    HW276990  14.637   4.957   3.735
25053SOL     OW76991  13.861  12.795  11.195
25053SOL    HW176992  13.886  12.824  11.282
25053SOL    HW276993  13.766  12.805  11.192
25054SOL     OW76994  12.404   6.170  14.641
25054SOL    HW176995  12.339   6.149  14.574
25054SOL    HW276996  12.361   6.236  14.696
25055SOL     OW76997   6.306   4.864  10.465
25055SOL    HW176998   6.268   4.776  10.471
25055SOL    HW276999   6.232   4.920  10.441
25056SOL     OW77000  14.006   3.144   2.704
25056SOL    HW177001  14.092   3.130   2.744
25056SOL    HW277002  14.005   3.085   2.628
25057SOL     OW77003  13.827  10.428  12.118
25057SOL    HW177004  13.821  10.335  12.098
25057SOL    HW277005  13.919  10.442  12.140
25058SOL     OW77006  12.053   6.845   7.991
25058SOL    HW177007  12.102   6.919   8.027
25058SOL    HW277008  12.045   6.784   8.064
25059SOL     OW77009  13.100   3.668  13.679
25059SOL    HW177010  13.161   3.664  13.606
25059SOL    HW277011  13.063   3.757  13.675
25060SOL     OW77012   8.441   1.096  13.863
25060SOL    HW177013   8.408   1.185  13.868
25060SOL    HW277014   8.467   1.074  13.952
25061SOL     OW77015   1.735   7.204  11.911
25061SOL    HW177016   1.690   7.278  11.952
25061SOL    HW277017   1.707   7.128  11.961
25062SOL     OW77018   8.832   8.065   6.320
25062SOL    HW177019   8.848   8.015   6.240
25062SOL    HW277020   8.740   8.050   6.340
25063SOL     OW77021   0.126  11.552   5.670
25063SOL    HW177022   0.088  11.586   5.751
25063SOL    HW277023   0.065  11.579   5.602
25064SOL     OW77024   0.708  10.204  13.734
25064SOL    HW177025   0.668  10.291  13.737
25064SOL    HW277026   0.699  10.176  13.643
25065SOL     OW77027  14.032   0.175   5.240
25065SOL    HW177028  14.086   0.242   5.198
25065SOL    HW277029  13.942   0.200   5.220
25066SOL     OW77030   1.522   2.428   5.209
25066SOL    HW177031   1.542   2.495   5.274
25066SOL    HW277032   1.543   2.345   5.252
25067SOL     OW77033  13.312  11.948   3.729
25067SOL    HW177034  13.380  12.011   3.705
25067SOL    HW277035  13.257  11.996   3.792
25068SOL     OW77036  13.054   2.449  12.209
25068SOL    HW177037  13.074   2.386  12.278
25068SOL    HW277038  13.116   2.429  12.139
25069SOL     OW77039  10.537   6.293   4.481
25069SOL    HW177040  10.508   6.384   4.482
25069SOL    HW277041  10.596   6.287   4.406
25070SOL     OW77042   7.834  11.997   2.349
25070SOL    HW177043   7.873  12.085   2.355
25070SOL    HW277044   7.756  12.002   2.403
25071SOL     OW77045   2.242   6.876   3.643
25071SOL    HW177046   2.213   6.950   3.590
25071SOL    HW277047   2.188   6.881   3.722
25072SOL     OW77048   4.639  13.242  12.697
25072SOL    HW177049   4.575  13.311  12.714
25072SOL    HW277050   4.616  13.208  12.611
25073SOL     OW77051   1.348   4.855  14.267
25073SOL    HW177052   1.352   4.925  14.201
25073SOL    HW277053   1.427   4.867  14.319
25074SOL     OW77054   9.452   4.337  11.819
25074SOL    HW177055   9.468   4.375  11.733
25074SOL    HW277056   9.380   4.389  11.856
25075SOL     OW77057   1.882   3.351   1.393
25075SOL    HW177058   1.862   3.298   1.316
25075SOL    HW277059   1.944   3.298   1.443
25076SOL     OW77060   2.942   5.696   9.368
25076SOL    HW177061   2.888   5.650   9.432
25076SOL    HW277062   2.931   5.647   9.287
25077SOL     OW77063  13.054   7.665   7.080
25077SOL    HW177064  13.002   7.611   7.140
25077SOL    HW277065  13.134   7.683   7.130
25078SOL     OW77066   7.571  13.861  13.145
25078SOL    HW177067   7.654  13.877  13.100
25078SOL    HW277068   7.594  13.805  13.219
25079SOL     OW77069   4.479   2.499   2.144
25079SOL    HW177070   4.459   2.559   2.072
25079SOL    HW277071   4.431   2.533   2.219
25080SOL     OW77072   1.554   6.008   9.203
25080SOL    HW177073   1.639   6.044   9.230
25080SOL    HW277074   1.564   5.913   9.214
25081SOL     OW77075   2.796  11.050  10.412
25081SOL    HW177076   2.840  11.106  10.348
25081SOL    HW277077   2.795  11.102  10.492
25082SOL     OW77078   5.566   5.440   9.183
25082SOL    HW177079   5.471   5.428   9.179
25082SOL    HW277080   5.601   5.353   9.201
25083SOL     OW77081  10.097   9.422   3.385
25083SOL    HW177082  10.002   9.431   3.387
25083SOL    HW277083  10.131   9.496   3.434
25084SOL     OW77084   8.674   5.706   8.657
25084SOL    HW177085   8.752   5.663   8.692
25084SOL    HW277086   8.662   5.783   8.713
25085SOL     OW77087   1.005  12.412  13.652
25085SOL    HW177088   0.924  12.403  13.702
25085SOL    HW277089   1.060  12.339  13.682
25086SOL     OW77090   3.066   2.784   7.506
25086SOL    HW177091   2.986   2.835   7.495
25086SOL    HW277092   3.051   2.705   7.453
25087SOL     OW77093  12.216  11.689   7.657
25087SOL    HW177094  12.168  11.766   7.687
25087SOL    HW277095  12.266  11.720   7.582
25088SOL     OW77096  12.776  11.430   9.765
25088SOL    HW177097  12.869  11.413   9.776
25088SOL    HW277098  12.755  11.390   9.680
25089SOL     OW77099   3.794   7.054   8.137
25089SOL    HW177100   3.734   7.028   8.067
25089SOL    HW277101   3.739   7.060   8.215
25090SOL     OW77102   9.931  12.854   9.776
25090SOL    HW177103   9.957  12.864   9.868
25090SOL    HW277104  10.009  12.876   9.726
25091SOL     OW77105   0.217   4.744   4.967
25091SOL    HW177106   0.303   4.719   4.932
25091SOL    HW277107   0.199   4.677   5.034
25092SOL     OW77108   9.593  11.607   2.051
25092SOL    HW177109   9.601  11.542   2.120
25092SOL    HW277110   9.682  11.617   2.017
25093SOL     OW77111   1.578   5.407   2.117
25093SOL    HW177112   1.618   5.383   2.200
25093SOL    HW277113   1.652   5.430   2.061
25094SOL     OW77114   8.763  11.569   7.218
25094SOL    HW177115   8.743  11.601   7.307
25094SOL    HW277116   8.710  11.491   7.208
25095SOL     OW77117  10.399   4.878   8.336
25095SOL    HW177118  10.477   4.934   8.329
25095SOL    HW277119  10.358   4.883   8.250
25096SOL     OW77120  12.053   5.898  10.051
25096SOL    HW177121  12.053   5.860   9.963
25096SOL    HW277122  11.973   5.951  10.054
25097SOL     OW77123  10.380   4.317  12.477
25097SOL    HW177124  10.376   4.292  12.569
25097SOL    HW277125  10.337   4.402  12.473
25098SOL     OW77126   8.249   8.205   3.968
25098SOL    HW177127   8.239   8.285   4.019
25098SOL    HW277128   8.175   8.205   3.908
25099SOL     OW77129   0.079  12.168  12.100
25099SOL    HW177130   0.048  12.258  12.087
25099SOL    HW277131   0.004  12.114  12.076
25100SOL     OW77132  10.834   7.393  11.907
25100SOL    HW177133  10.823   7.348  11.823
25100SOL    HW277134  10.870   7.478  11.884
25101SOL     OW77135   1.099  11.712  11.768
25101SOL    HW177136   1.020  11.751  11.805
25101SOL    HW277137   1.103  11.624  11.806
25102SOL     OW77138  10.944   2.239  11.674
25102SOL    HW177139  10.946   2.301  11.602
25102SOL    HW277140  10.957   2.292  11.752
25103SOL     OW77141   9.791   4.449  12.799
25103SOL    HW177142   9.793   4.544  12.809
25103SOL    HW277143   9.777   4.416  12.888
25104SOL     OW77144  13.397  11.925  12.158
25104SOL    HW177145  13.441  11.841  12.144
25104SOL    HW277146  13.467  11.985  12.183
25105SOL     OW77147   9.309  12.836  12.011
25105SOL    HW177148   9.259  12.917  12.006
25105SOL    HW277149   9.244  12.769  12.035
25106SOL     OW77150   4.769   1.260   1.762
25106SOL    HW177151   4.840   1.259   1.826
25106SOL    HW277152   4.696   1.302   1.808
25107SOL     OW77153   6.446   5.115  13.274
25107SOL    HW177154   6.535   5.089  13.250
25107SOL    HW277155   6.408   5.150  13.194
25108SOL     OW77156   6.631   1.378  13.512
25108SOL    HW177157   6.595   1.310  13.569
25108SOL    HW277158   6.561   1.396  13.450
25109SOL     OW77159   1.660   0.588   5.832
25109SOL    HW177160   1.740   0.592   5.778
25109SOL    HW277161   1.645   0.678   5.858
25110SOL     OW77162  12.360  14.571  13.991
25110SOL    HW177163  12.309  14.652  14.004
25110SOL    HW277164  12.298  14.501  14.011
25111SOL     OW77165   1.963   9.155   5.292
25111SOL    HW177166   1.949   9.064   5.264
25111SOL    HW277167   2.058   9.165   5.292
25112SOL     OW77168   9.207   2.425   7.253
25112SOL    HW177169   9.129   2.378   7.224
25112SOL    HW277170   9.280   2.372   7.221
25113SOL     OW77171   8.183   8.895   9.643
25113SOL    HW177172   8.230   8.948   9.578
25113SOL    HW277173   8.242   8.890   9.718
25114SOL     OW77174  10.716   4.936   3.399
25114SOL    HW177175  10.729   4.849   3.437
25114SOL    HW277176  10.655   4.921   3.326
25115SOL     OW77177  13.407   9.051   8.466
25115SOL    HW177178  13.416   9.139   8.502
25115SOL    HW277179  13.317   9.046   8.434
25116SOL     OW77180   4.285  10.525   7.598
25116SOL    HW177181   4.301  10.526   7.692
25116SOL    HW277182   4.195  10.494   7.589
25117SOL     OW77183  14.539  13.571   6.187
25117SOL    HW177184  14.494  13.519   6.120
25117SOL    HW277185  14.472  13.631   6.220
25118SOL     OW77186   8.838   6.335   2.736
25118SOL    HW177187   8.861   6.346   2.828
25118SOL    HW277188   8.742   6.331   2.736
25119SOL     OW77189   9.453  10.797   6.827
25119SOL    HW177190   9.380  10.736   6.826
25119SOL    HW277191   9.415  10.880   6.856
25120SOL     OW77192  14.446   1.567   0.524
25120SOL    HW177193  14.514   1.584   0.589
25120SOL    HW277194  14.491   1.572   0.440
25121SOL     OW77195   7.128  10.645   6.999
25121SOL    HW177196   7.077  10.643   7.080
25121SOL    HW277197   7.147  10.738   6.985
25122SOL     OW77198   8.654  14.653   5.373
25122SOL    HW177199   8.580  14.672   5.316
25122SOL    HW277200   8.661  14.557   5.371
25123SOL     OW77201  11.529  11.752  13.049
25123SOL    HW177202  11.436  11.761  13.071
25123SOL    HW277203  11.546  11.658  13.054
25124SOL     OW77204  11.654   3.388   2.118
25124SOL    HW177205  11.571   3.425   2.149
25124SOL    HW277206  11.708   3.382   2.197
25125SOL     OW77207   5.174   5.691  10.670
25125SOL    HW177208   5.158   5.653  10.756
25125SOL    HW277209   5.143   5.624  10.608
25126SOL     OW77210  12.556   8.787   5.788
25126SOL    HW177211  12.626   8.776   5.853
25126SOL    HW277212  12.542   8.699   5.754
25127SOL     OW77213  11.721  11.877   5.584
25127SOL    HW177214  11.753  11.942   5.646
25127SOL    HW277215  11.677  11.928   5.516
25128SOL     OW77216   6.889   2.847   5.282
25128SOL    HW177217   6.839   2.891   5.350
25128SOL    HW277218   6.947   2.914   5.247
25129SOL     OW77219   1.938   9.750  12.421
25129SOL    HW177220   1.970   9.673  12.373
25129SOL    HW277221   1.895   9.714  12.499
25130SOL     OW77222  12.279   4.330   4.014
25130SOL    HW177223  12.232   4.327   4.098
25130SOL    HW277224  12.248   4.411   3.973
25131SOL     OW77225  11.264   8.769  11.634
25131SOL    HW177226  11.246   8.833  11.703
25131SOL    HW277227  11.202   8.698  11.651
25132SOL     OW77228   5.665   6.670  13.051
25132SOL    HW177229   5.598   6.736  13.031
25132SOL    HW277230   5.708   6.703  13.130
25133SOL     OW77231   9.529  12.607   2.855
25133SOL    HW177232   9.457  12.619   2.917
25133SOL    HW277233   9.505  12.661   2.780
25134SOL     OW77234   2.690   3.546   6.011
25134SOL    HW177235   2.700   3.451   6.003
25134SOL    HW277236   2.776   3.577   6.041
25135SOL     OW77237   8.251   4.876  11.947
25135SOL    HW177238   8.268   4.933  11.871
25135SOL    HW277239   8.327   4.888  12.003
25136SOL     OW77240  14.582   2.701   3.203
25136SOL    HW177241  14.639   2.778   3.201
25136SOL    HW277242  14.516   2.718   3.135
25137SOL     OW77243  12.060   8.862   5.608
25137SOL    HW177244  12.072   8.773   5.641
25137SOL    HW277245  12.013   8.850   5.525
25138SOL     OW77246  11.042  10.025   2.786
25138SOL    HW177247  11.082  10.006   2.872
25138SOL    HW277248  10.961   9.974   2.786
25139SOL     OW77249   0.131   8.179   6.396
25139SOL    HW177250   0.166   8.244   6.335
25139SOL    HW277251   0.044   8.212   6.419
25140SOL     OW77252   4.868  13.869   7.539
25140SOL    HW177253   4.830  13.821   7.613
25140SOL    HW277254   4.793  13.909   7.495
25141SOL     OW77255   7.577   3.505   5.142
25141SOL    HW177256   7.515   3.564   5.186
25141SOL    HW277257   7.586   3.431   5.202
25142SOL     OW77258  14.200   8.490  12.244
25142SOL    HW177259  14.198   8.426  12.173
25142SOL    HW277260  14.293   8.503  12.261
25143SOL     OW77261   6.701   9.338   7.138
25143SOL    HW177262   6.737   9.396   7.071
25143SOL    HW277263   6.725   9.380   7.221
25144SOL     OW77264   9.108  14.211  11.978
25144SOL    HW177265   9.056  14.283  12.013
25144SOL    HW277266   9.075  14.133  12.023
25145SOL     OW77267   4.731  10.672   1.554
25145SOL    HW177268   4.761  10.604   1.615
25145SOL    HW277269   4.805  10.732   1.547
25146SOL     OW77270   1.360   5.338  10.353
25146SOL    HW177271   1.334   5.366  10.441
25146SOL    HW277272   1.277   5.331  10.305
25147SOL     OW77273   8.375   2.960   0.800
25147SOL    HW177274   8.391   2.955   0.894
25147SOL    HW277275   8.391   2.872   0.768
25148SOL     OW77276   9.790  11.994  12.117
25148SOL    HW177277   9.875  12.038  12.122
25148SOL    HW277278   9.727  12.058  12.149
25149SOL     OW77279   3.317  10.067   8.839
25149SOL    HW177280   3.233  10.021   8.832
25149SOL    HW277281   3.318  10.101   8.928
25150SOL     OW77282   1.888   1.652   5.961
25150SOL    HW177283   1.919   1.602   5.886
25150SOL    HW277284   1.965   1.699   5.993
25151SOL     OW77285   1.580  12.865   3.171
25151SOL    HW177286   1.484  12.873   3.171
25151SOL    HW277287   1.600  12.808   3.245
25152SOL     OW77288   8.477  11.601  12.027
25152SOL    HW177289   8.476  11.546  12.105
25152SOL    HW277290   8.558  11.652  12.035
25153SOL     OW77291   2.497   6.595  10.504
25153SOL    HW177292   2.474   6.503  10.490
25153SOL    HW277293   2.498   6.633  10.417
25154SOL     OW77294   9.667   0.476  13.471
25154SOL    HW177295   9.746   0.527  13.490
25154SOL    HW277296   9.652   0.490  13.377
25155SOL     OW77297   1.457  13.922   8.363
25155SOL    HW177298   1.376  13.877   8.343
25155SOL    HW277299   1.465  13.917   8.458
25156SOL     OW77300  12.317   3.873  12.691
25156SOL    HW177301  12.412   3.869  12.679
25156SOL    HW277302  12.293   3.785  12.721
25157SOL     OW77303  12.787   8.917   5.119
25157SOL    HW177304  12.875   8.925   5.082
25157SOL    HW277305  12.767   8.824   5.113
25158SOL     OW77306  13.596   5.187  10.324
25158SOL    HW177307  13.526   5.222  10.268
25158SOL    HW277308  13.675   5.230  10.292
25159SOL     OW77309   9.521  12.413  10.638
25159SOL    HW177310   9.588  12.456  10.692
25159SOL    HW277311   9.451  12.478  10.629
25160SOL     OW77312  14.477  10.180   7.409
25160SOL    HW177313  14.389  10.160   7.376
25160SOL    HW277314  14.465  10.256   7.466
25161SOL     OW77315   7.458   8.463   2.163
25161SOL    HW177316   7.543   8.485   2.125
25161SOL    HW277317   7.394   8.496   2.099
25162SOL     OW77318   1.686  10.410   4.937
25162SOL    HW177319   1.652  10.430   4.850
25162SOL    HW277320   1.655  10.321   4.955
25163SOL     OW77321  13.289  12.021   6.510
25163SOL    HW177322  13.246  11.965   6.574
25163SOL    HW277323  13.276  11.977   6.426
25164SOL     OW77324   9.567  11.676   1.665
25164SOL    HW177325   9.542  11.591   1.701
25164SOL    HW277326   9.498  11.736   1.695
25165SOL     OW77327  10.298   5.647   4.688
25165SOL    HW177328  10.255   5.730   4.712
25165SOL    HW277329  10.348   5.668   4.610
25166SOL     OW77330   3.431   4.583   2.890
25166SOL    HW177331   3.354   4.625   2.930
25166SOL    HW277332   3.484   4.655   2.857
25167SOL     OW77333   3.261  10.875   7.930
25167SOL    HW177334   3.327  10.890   7.998
25167SOL    HW277335   3.235  10.783   7.942
25168SOL     OW77336   4.089  13.979  14.338
25168SOL    HW177337   4.044  13.916  14.393
25168SOL    HW277338   4.176  13.943  14.325
25169SOL     OW77339   1.229   5.748  14.125
25169SOL    HW177340   1.170   5.673  14.131
25169SOL    HW277341   1.310   5.718  14.166
25170SOL     OW77342   8.440  10.698  14.092
25170SOL    HW177343   8.416  10.765  14.156
25170SOL    HW277344   8.532  10.717  14.071
25171SOL     OW77345  11.507  11.306   8.487
25171SOL    HW177346  11.564  11.369   8.445
25171SOL    HW277347  11.422  11.350   8.493
25172SOL     OW77348   8.162   6.071  10.766
25172SOL    HW177349   8.104   6.046  10.694
25172SOL    HW277350   8.117   6.143  10.810
25173SOL     OW77351  12.573   2.920   4.930
25173SOL    HW177352  12.564   2.929   4.835
25173SOL    HW277353  12.598   3.007   4.960
25174SOL     OW77354  11.277   5.694   1.245
25174SOL    HW177355  11.222   5.638   1.190
25174SOL    HW277356  11.337   5.737   1.185
25175SOL     OW77357   1.068   4.255   2.155
25175SOL    HW177358   1.099   4.184   2.099
25175SOL    HW277359   1.054   4.328   2.094
25176SOL     OW77360   9.804  13.600  13.900
25176SOL    HW177361   9.805  13.537  13.828
25176SOL    HW277362   9.853  13.675  13.868
25177SOL     OW77363   7.654  11.731   0.912
25177SOL    HW177364   7.566  11.699   0.930
25177SOL    HW277365   7.704  11.710   0.992
25178SOL     OW77366   4.338   8.892  13.762
25178SOL    HW177367   4.303   8.970  13.805
25178SOL    HW277368   4.303   8.819  13.813
25179SOL     OW77369   0.026   4.256   8.602
25179SOL    HW177370  14.807   4.230   8.610
25179SOL    HW277371   0.023   4.348   8.575
25180SOL     OW77372   6.713  11.007  11.796
25180SOL    HW177373   6.660  11.081  11.825
25180SOL    HW277374   6.788  11.048  11.753
25181SOL     OW77375   7.413   1.470  12.590
25181SOL    HW177376   7.362   1.432  12.662
25181SOL    HW277377   7.500   1.484  12.628
25182SOL     OW77378  13.943   6.980   3.718
25182SOL    HW177379  13.941   7.033   3.639
25182SOL    HW277380  14.011   7.020   3.773
25183SOL     OW77381   9.528   0.234   5.782
25183SOL    HW177382   9.597   0.264   5.842
25183SOL    HW277383   9.519   0.141   5.803
25184SOL     OW77384   7.416   8.301  14.557
25184SOL    HW177385   7.498   8.262  14.585
25184SOL    HW277386   7.402   8.374  14.617
25185SOL     OW77387  14.805  11.974   4.318
25185SOL    HW177388  14.822  12.040   4.251
25185SOL    HW277389  14.807  11.890   4.271
25186SOL     OW77390   3.961   4.371  13.659
25186SOL    HW177391   3.924   4.283  13.666
25186SOL    HW277392   4.043   4.359  13.611
25187SOL     OW77393  12.687   4.909   5.048
25187SOL    HW177394  12.657   4.998   5.066
25187SOL    HW277395  12.749   4.919   4.976
25188SOL     OW77396  12.002   9.558   0.920
25188SOL    HW177397  12.041   9.638   0.956
25188SOL    HW277398  12.063   9.488   0.942
25189SOL     OW77399   9.515  11.018   1.144
25189SOL    HW177400   9.471  11.049   1.065
25189SOL    HW277401   9.608  11.034   1.128
25190SOL     OW77402  10.253  10.621   9.221
25190SOL    HW177403  10.270  10.564   9.296
25190SOL    HW277404  10.268  10.710   9.254
25191SOL     OW77405  14.064  13.822   9.924
25191SOL    HW177406  13.990  13.816   9.864
25191SOL    HW277407  14.126  13.755   9.893
25192SOL     OW77408   7.439  13.028   4.611
25192SOL    HW177409   7.503  13.075   4.557
25192SOL    HW277410   7.359  13.079   4.604
25193SOL     OW77411   5.491   1.251  11.439
25193SOL    HW177412   5.499   1.334  11.485
25193SOL    HW277413   5.404   1.218  11.463
25194SOL     OW77414  14.648   5.217   9.888
25194SOL    HW177415  14.616   5.128   9.904
25194SOL    HW277416  14.587   5.274   9.936
25195SOL     OW77417   2.004   7.297   9.913
25195SOL    HW177418   1.939   7.315   9.845
25195SOL    HW277419   1.953   7.256   9.984
25196SOL     OW77420   3.382   0.344   8.521
25196SOL    HW177421   3.363   0.375   8.433
25196SOL    HW277422   3.448   0.276   8.510
25197SOL     OW77423   6.317  11.976   8.615
25197SOL    HW177424   6.327  11.902   8.555
25197SOL    HW277425   6.224  11.975   8.639
25198SOL     OW77426  14.650   0.308  12.320
25198SOL    HW177427  14.715   0.368  12.285
25198SOL    HW277428  14.573   0.319  12.263
25199SOL     OW77429   0.673  12.363   9.895
25199SOL    HW177430   0.712  12.302   9.958
25199SOL    HW277431   0.578  12.353   9.910
25200SOL     OW77432   8.947   7.511   5.640
25200SOL    HW177433   8.853   7.511   5.622
25200SOL    HW277434   8.973   7.603   5.636
25201SOL     OW77435   6.221   6.461   0.415
25201SOL    HW177436   6.294   6.438   0.358
25201SOL    HW277437   6.256   6.530   0.471
25202SOL     OW77438  10.831   3.826   5.523
25202SOL    HW177439  10.911   3.876   5.538
25202SOL    HW277440  10.858   3.735   5.531
25203SOL     OW77441   7.861   4.411   8.396
25203SOL    HW177442   7.881   4.318   8.390
25203SOL    HW277443   7.831   4.435   8.308
25204SOL     OW77444   9.130   6.327   2.018
25204SOL    HW177445   9.081   6.402   1.983
25204SOL    HW277446   9.083   6.250   1.984
25205SOL     OW77447  13.074   0.551  11.610
25205SOL    HW177448  13.086   0.645  11.620
25205SOL    HW277449  13.021   0.525  11.685
25206SOL     OW77450  14.769  10.016  12.792
25206SOL    HW177451  14.782   9.943  12.733
25206SOL    HW277452  14.790  10.094  12.740
25207SOL     OW77453  10.209  13.328   9.885
25207SOL    HW177454  10.284  13.387   9.883
25207SOL    HW277455  10.239  13.250   9.839
25208SOL     OW77456  14.566   4.421   5.352
25208SOL    HW177457  14.628   4.430   5.424
25208SOL    HW277458  14.485   4.460   5.386
25209SOL     OW77459   7.201   3.031   3.495
25209SOL    HW177460   7.220   3.093   3.565
25209SOL    HW277461   7.150   3.081   3.431
25210SOL     OW77462  13.826  11.612   8.038
25210SOL    HW177463  13.794  11.642   8.123
25210SOL    HW277464  13.893  11.677   8.014
25211SOL     OW77465   8.344   8.049   7.303
25211SOL    HW177466   8.383   7.969   7.269
25211SOL    HW277467   8.325   8.101   7.225
25212SOL     OW77468   2.003   2.267   9.272
25212SOL    HW177469   2.009   2.300   9.182
25212SOL    HW277470   1.910   2.246   9.283
25213SOL     OW77471   3.554   7.229  12.174
25213SOL    HW177472   3.499   7.278  12.235
25213SOL    HW277473   3.573   7.291  12.104
25214SOL     OW77474  11.011  12.015  10.514
25214SOL    HW177475  11.022  11.943  10.452
25214SOL    HW277476  11.066  12.085  10.480
25215SOL     OW77477  14.859   8.129   2.968
25215SOL    HW177478   0.008   8.082   3.048
25215SOL    HW277479  14.862   8.063   2.899
25216SOL     OW77480   8.809   5.196  12.878
25216SOL    HW177481   8.835   5.114  12.921
25216SOL    HW277482   8.780   5.252  12.950
25217SOL     OW77483  13.332  10.715   9.114
25217SOL    HW177484  13.238  10.712   9.095
25217SOL    HW277485  13.372  10.741   9.031
25218SOL     OW77486  11.721  12.442   8.684
25218SOL    HW177487  11.745  12.485   8.602
25218SOL    HW277488  11.637  12.399   8.665
25219SOL     OW77489  13.754   9.013   7.510
25219SOL    HW177490  13.831   9.026   7.565
25219SOL    HW277491  13.680   9.017   7.572
25220SOL     OW77492  13.453   6.587   8.085
25220SOL    HW177493  13.477   6.509   8.135
25220SOL    HW277494  13.499   6.577   8.002
25221SOL     OW77495   4.084   7.488   5.542
25221SOL    HW177496   4.089   7.495   5.637
25221SOL    HW277497   4.163   7.439   5.517
25222SOL     OW77498   6.006   8.233  11.625
25222SOL    HW177499   6.036   8.276  11.545
25222SOL    HW277500   5.944   8.295  11.664
25223SOL     OW77501  11.183  10.257  14.556
25223SOL    HW177502  11.153  10.262  14.466
25223SOL    HW277503  11.118  10.203  14.601
25224SOL     OW77504   5.399   7.896  12.574
25224SOL    HW177505   5.484   7.862  12.605
25224SOL    HW277506   5.401   7.884  12.479
25225SOL     OW77507   3.527   4.618  10.998
25225SOL    HW177508   3.499   4.678  10.928
25225SOL    HW277509   3.563   4.543  10.951
25226SOL     OW77510  10.293   8.516  13.449
25226SOL    HW177511  10.338   8.572  13.512
25226SOL    HW277512  10.287   8.431  13.491
25227SOL     OW77513  13.563   7.664  14.761
25227SOL    HW177514  13.553   7.672  14.855
25227SOL    HW277515  13.594   7.574  14.747
25228SOL     OW77516   5.947   4.838   4.047
25228SOL    HW177517   5.858   4.839   4.083
25228SOL    HW277518   5.997   4.782   4.105
25229SOL     OW77519   4.136   4.541   7.605
25229SOL    HW177520   4.119   4.495   7.522
25229SOL    HW277521   4.214   4.498   7.641
25230SOL     OW77522   1.949   7.623   7.243
25230SOL    HW177523   1.939   7.536   7.280
25230SOL    HW277524   1.987   7.609   7.157
25231SOL     OW77525   4.514   2.138   0.549
25231SOL    HW177526   4.435   2.169   0.505
25231SOL    HW277527   4.579   2.129   0.479
25232SOL     OW77528  14.817   6.519   6.647
25232SOL    HW177529  14.739   6.529   6.701
25232SOL    HW277530  14.833   6.607   6.612
25233SOL     OW77531   3.563   1.189   0.749
25233SOL    HW177532   3.650   1.182   0.709
25233SOL    HW277533   3.568   1.267   0.805
25234SOL     OW77534  10.023  11.058   4.275
25234SOL    HW177535  10.005  11.046   4.182
25234SOL    HW277536   9.989  10.979   4.317
25235SOL     OW77537   6.821   7.898   7.629
25235SOL    HW177538   6.868   7.833   7.680
25235SOL    HW277539   6.768   7.847   7.568
25236SOL     OW77540   4.627  10.582   9.197
25236SOL    HW177541   4.663  10.518   9.258
25236SOL    HW277542   4.603  10.657   9.252
25237SOL     OW77543   1.652  12.927   0.745
25237SOL    HW177544   1.699  13.001   0.783
25237SOL    HW277545   1.710  12.852   0.761
25238SOL     OW77546   3.556   3.314   5.366
25238SOL    HW177547   3.592   3.347   5.448
25238SOL    HW277548   3.503   3.386   5.333
25239SOL     OW77549   6.360   9.400  14.533
25239SOL    HW177550   6.386   9.443  14.451
25239SOL    HW277551   6.403   9.314  14.529
25240SOL     OW77552   2.834  12.422   2.213
25240SOL    HW177553   2.846  12.474   2.133
25240SOL    HW277554   2.871  12.476   2.283
25241SOL     OW77555  11.058   6.599   7.935
25241SOL    HW177556  11.080   6.558   7.851
25241SOL    HW277557  11.109   6.552   8.000
25242SOL     OW77558   1.110   8.527  13.463
25242SOL    HW177559   1.092   8.519  13.370
25242SOL    HW277560   1.205   8.537  13.468
25243SOL     OW77561   8.949  13.012  10.085
25243SOL    HW177562   8.966  13.058  10.167
25243SOL    HW277563   9.007  12.935  10.089
25244SOL     OW77564  10.262  10.612   6.884
25244SOL    HW177565  10.218  10.556   6.948
25244SOL    HW277566  10.192  10.664   6.846
25245SOL     OW77567   5.996   2.793   2.968
25245SOL    HW177568   5.965   2.753   3.049
25245SOL    HW277569   6.087   2.816   2.985
25246SOL     OW77570   6.696  14.762  14.229
25246SOL    HW177571   6.685  14.762  14.134
25246SOL    HW277572   6.609  14.740  14.263
25247SOL     OW77573   8.065  10.453   3.412
25247SOL    HW177574   8.067  10.414   3.324
25247SOL    HW277575   8.157  10.461   3.436
25248SOL     OW77576   6.268   5.776   6.034
25248SOL    HW177577   6.361   5.756   6.028
25248SOL    HW277578   6.246   5.762   6.126
25249SOL     OW77579   6.740   9.375  12.342
25249SOL    HW177580   6.713   9.284  12.339
25249SOL    HW277581   6.753   9.400  12.251
25250SOL     OW77582   0.636   1.083   5.951
25250SOL    HW177583   0.664   1.172   5.932
25250SOL    HW277584   0.708   1.028   5.919
25251SOL     OW77585   0.282   5.151  11.204
25251SOL    HW177586   0.196   5.124  11.237
25251SOL    HW277587   0.344   5.110  11.264
25252SOL     OW77588  10.793   8.709   4.315
25252SOL    HW177589  10.743   8.761   4.253
25252SOL    HW277590  10.877   8.693   4.271
25253SOL     OW77591   6.406  12.246  12.620
25253SOL    HW177592   6.364  12.181  12.676
25253SOL    HW277593   6.338  12.312  12.606
25254SOL     OW77594  12.795  12.428  14.293
25254SOL    HW177595  12.878  12.395  14.329
25254SOL    HW277596  12.818  12.461  14.206
25255SOL     OW77597   8.470   9.434  13.449
25255SOL    HW177598   8.467   9.374  13.374
25255SOL    HW277599   8.425   9.512  13.418
25256SOL     OW77600  13.694   6.163   0.790
25256SOL    HW177601  13.610   6.200   0.818
25256SOL    HW277602  13.737   6.235   0.744
25257SOL     OW77603   9.528  12.815  13.425
25257SOL    HW177604   9.549  12.849  13.337
25257SOL    HW277605   9.448  12.861  13.449
25258SOL     OW77606   5.310   0.883  11.345
25258SOL    HW177607   5.291   0.952  11.409
25258SOL    HW277608   5.230   0.830  11.343
25259SOL     OW77609  12.739   2.460   7.384
25259SOL    HW177610  12.827   2.462   7.421
25259SOL    HW277611  12.703   2.547   7.402
25260SOL     OW77612   8.829  12.019  12.935
25260SOL    HW177613   8.819  12.072  12.856
25260SOL    HW277614   8.779  12.066  13.002
25261SOL     OW77615  12.691  12.584  11.905
25261SOL    HW177616  12.777  12.552  11.878
25261SOL    HW277617  12.705  12.676  11.925
25262SOL     OW77618   3.157   8.613   0.919
25262SOL    HW177619   3.140   8.690   0.865
25262SOL    HW277620   3.142   8.643   1.008
25263SOL     OW77621   9.256   2.499  13.000
25263SOL    HW177622   9.228   2.504  12.909
25263SOL    HW277623   9.205   2.426  13.037
25264SOL     OW77624   6.604   7.450   5.563
25264SOL    HW177625   6.552   7.490   5.632
25264SOL    HW277626   6.677   7.510   5.549
25265SOL     OW77627   7.415   3.351   6.625
25265SOL    HW177628   7.483   3.410   6.658
25265SOL    HW277629   7.383   3.394   6.546
25266SOL     OW77630   5.981  13.429   5.272
25266SOL    HW177631   6.056  13.369   5.272
25266SOL    HW277632   5.931  13.405   5.350
25267SOL     OW77633   5.605   2.816   7.638
25267SOL    HW177634   5.679   2.858   7.595
25267SOL    HW277635   5.536   2.816   7.571
25268SOL     OW77636   6.125   1.227   1.155
25268SOL    HW177637   6.163   1.192   1.075
25268SOL    HW277638   6.040   1.185   1.162
25269SOL     OW77639   7.810   1.618   1.747
25269SOL    HW177640   7.741   1.664   1.700
25269SOL    HW277641   7.817   1.665   1.831
25270SOL     OW77642   7.183   5.126   3.626
25270SOL    HW177643   7.154   5.212   3.596
25270SOL    HW277644   7.103   5.082   3.655
25271SOL     OW77645  14.106   9.199   0.109
25271SOL    HW177646  14.122   9.234   0.021
25271SOL    HW277647  14.155   9.258   0.167
25272SOL     OW77648  14.001   9.799  10.196
25272SOL    HW177649  14.064   9.756  10.253
25272SOL    HW277650  14.054   9.833  10.124
25273SOL     OW77651   4.662   6.920  12.126
25273SOL    HW177652   4.735   6.970  12.163
25273SOL    HW277653   4.696   6.890  12.041
25274SOL     OW77654   8.997   9.207   2.218
25274SOL    HW177655   8.967   9.121   2.190
25274SOL    HW277656   8.932   9.234   2.283
25275SOL     OW77657  12.729  14.374  12.727
25275SOL    HW177658  12.722  14.318  12.650
25275SOL    HW277659  12.712  14.462  12.693
25276SOL     OW77660   8.688  11.515  12.986
25276SOL    HW177661   8.593  11.517  12.999
25276SOL    HW277662   8.713  11.607  12.980
25277SOL     OW77663   1.917  10.928   8.442
25277SOL    HW177664   1.973  10.863   8.399
25277SOL    HW277665   1.834  10.883   8.455
25278SOL     OW77666  10.084   7.447  14.125
25278SOL    HW177667  10.013   7.459  14.061
25278SOL    HW277668  10.103   7.536  14.155
25279SOL     OW77669   8.342   9.219   6.914
25279SOL    HW177670   8.356   9.124   6.913
25279SOL    HW277671   8.415   9.253   6.966
25280SOL     OW77672   5.956  11.151  11.925
25280SOL    HW177673   6.031  11.204  11.955
25280SOL    HW277674   5.902  11.212  11.875
25281SOL     OW77675   3.561  11.359   0.574
25281SOL    HW177676   3.588  11.304   0.647
25281SOL    HW277677   3.485  11.406   0.606
25282SOL     OW77678   1.071   9.631   8.630
25282SOL    HW177679   1.116   9.563   8.581
25282SOL    HW277680   0.992   9.589   8.664
25283SOL     OW77681  14.643  14.746   2.514
25283SOL    HW177682  14.687  14.762   2.431
25283SOL    HW277683  14.714  14.738   2.578
25284SOL     OW77684   1.049   1.202  10.957
25284SOL    HW177685   1.087   1.212  11.044
25284SOL    HW277686   0.977   1.266  10.955
25285SOL     OW77687   8.379   5.792   1.585
25285SOL    HW177688   8.335   5.877   1.595
25285SOL    HW277689   8.354   5.763   1.498
25286SOL     OW77690   6.765   2.235  14.755
25286SOL    HW177691   6.816   2.161  14.787
25286SOL    HW277692   6.723   2.203  14.675
25287SOL     OW77693  11.607   5.460  11.581
25287SOL    HW177694  11.645   5.518  11.515
25287SOL    HW277695  11.627   5.372  11.550
25288SOL     OW77696   2.257  10.214  12.211
25288SOL    HW177697   2.188  10.253  12.265
25288SOL    HW277698   2.227  10.226  12.121
25289SOL     OW77699   2.571  11.675   8.314
25289SOL    HW177700   2.495  11.719   8.352
25289SOL    HW277701   2.557  11.582   8.331
25290SOL     OW77702   1.915   6.229   3.506
25290SOL    HW177703   1.906   6.235   3.602
25290SOL    HW277704   1.830   6.197   3.477
25291SOL     OW77705  10.071   8.387   7.930
25291SOL    HW177706   9.980   8.411   7.949
25291SOL    HW277707  10.120   8.468   7.945
25292SOL     OW77708   4.122   5.243   4.564
25292SOL    HW177709   4.043   5.260   4.616
25292SOL    HW277710   4.094   5.176   4.501
25293SOL     OW77711   9.450   7.111   6.035
25293SOL    HW177712   9.461   7.158   6.117
25293SOL    HW277713   9.396   7.169   5.981
25294SOL     OW77714   4.889   6.548  14.787
25294SOL    HW177715   4.943   6.474  14.814
25294SOL    HW277716   4.949   6.622  14.780
25295SOL     OW77717   4.165   7.685  14.522
25295SOL    HW177718   4.248   7.713  14.484
25295SOL    HW277719   4.146   7.601  14.480
25296SOL     OW77720   3.849  13.654  13.830
25296SOL    HW177721   3.873  13.666  13.738
25296SOL    HW277722   3.753  13.648  13.829
25297SOL     OW77723  10.643   6.547  12.365
25297SOL    HW177724  10.605   6.459  12.370
25297SOL    HW277725  10.599   6.587  12.290
25298SOL     OW77726   2.692  12.898  12.058
25298SOL    HW177727   2.631  12.932  12.124
25298SOL    HW277728   2.657  12.812  12.035
25299SOL     OW77729  14.334  10.439   5.595
25299SOL    HW177730  14.425  10.409   5.594
25299SOL    HW277731  14.283  10.360   5.617
25300SOL     OW77732  10.645  14.222   5.583
25300SOL    HW177733  10.680  14.261   5.503
25300SOL    HW277734  10.626  14.297   5.639
25301SOL     OW77735   1.768   5.204  14.615
25301SOL    HW177736   1.858   5.177  14.599
25301SOL    HW277737   1.715   5.136  14.573
25302SOL     OW77738  11.120   6.231  14.732
25302SOL    HW177739  11.197   6.224  14.675
25302SOL    HW277740  11.047   6.245  14.672
25303SOL     OW77741   1.542   1.472   4.066
25303SOL    HW177742   1.616   1.533   4.074
25303SOL    HW277743   1.581   1.386   4.080
25304SOL     OW77744  14.125   3.132   8.138
25304SOL    HW177745  14.057   3.185   8.179
25304SOL    HW277746  14.111   3.044   8.174
25305SOL     OW77747  10.338   5.125  12.108
25305SOL    HW177748  10.394   5.187  12.154
25305SOL    HW277749  10.265   5.179  12.075
25306SOL     OW77750   0.614  10.641  12.004
25306SOL    HW177751   0.697  10.688  11.991
25306SOL    HW277752   0.638  10.549  12.012
25307SOL     OW77753  12.796   3.165  11.063
25307SOL    HW177754  12.747   3.084  11.050
25307SOL    HW277755  12.753   3.229  11.006
25308SOL     OW77756   0.708  11.403   7.689
25308SOL    HW177757   0.794  11.383   7.727
25308SOL    HW277758   0.698  11.341   7.617
25309SOL     OW77759  14.279   1.340   0.332
25309SOL    HW177760  14.328   1.343   0.414
25309SOL    HW277761  14.205   1.398   0.347
25310SOL     OW77762   9.220   0.217   7.282
25310SOL    HW177763   9.241   0.145   7.341
25310SOL    HW277764   9.177   0.282   7.338
25311SOL     OW77765  10.246   7.598   8.963
25311SOL    HW177766  10.310   7.637   9.023
25311SOL    HW277767  10.217   7.671   8.908
25312SOL     OW77768  13.894  11.374   3.536
25312SOL    HW177769  13.879  11.375   3.630
25312SOL    HW277770  13.939  11.292   3.519
25313SOL     OW77771  10.768   8.980  13.815
25313SOL    HW177772  10.723   8.974  13.731
25313SOL    HW277773  10.737   9.062  13.853
25314SOL     OW77774   4.363   1.189   6.152
25314SOL    HW177775   4.278   1.149   6.133
25314SOL    HW277776   4.419   1.164   6.078
25315SOL     OW77777   2.092  13.019   4.956
25315SOL    HW177778   2.046  12.935   4.961
25315SOL    HW277779   2.072  13.062   5.039
25316SOL     OW77780   0.894   8.730   5.700
25316SOL    HW177781   0.980   8.733   5.657
25316SOL    HW277782   0.909   8.772   5.785
25317SOL     OW77783   7.801   7.793   1.280
25317SOL    HW177784   7.708   7.775   1.293
25317SOL    HW277785   7.844   7.709   1.300
25318SOL     OW77786  11.437   0.040  11.764
25318SOL    HW177787  11.382  14.843  11.729
25318SOL    HW277788  11.409   0.118  11.718
25319SOL     OW77789   2.118   6.365   2.368
25319SOL    HW177790   2.107   6.274   2.396
25319SOL    HW277791   2.031   6.392   2.337
25320SOL     OW77792  13.554   7.211   1.579
25320SOL    HW177793  13.604   7.284   1.617
25320SOL    HW277794  13.621   7.150   1.548
25321SOL     OW77795   8.355   8.262  11.021
25321SOL    HW177796   8.280   8.310  10.987
25321SOL    HW277797   8.423   8.274  10.954
25322SOL     OW77798  11.188   6.357   6.218
25322SOL    HW177799  11.211   6.327   6.130
25322SOL    HW277800  11.262   6.411   6.245
25323SOL     OW77801   6.181   4.725   6.269
25323SOL    HW177802   6.208   4.637   6.294
25323SOL    HW277803   6.246   4.753   6.205
25324SOL     OW77804   7.699   8.517   7.766
25324SOL    HW177805   7.642   8.461   7.714
25324SOL    HW277806   7.646   8.544   7.841
25325SOL     OW77807  14.760   7.042   8.685
25325SOL    HW177808  14.770   6.951   8.657
25325SOL    HW277809  14.752   7.092   8.604
25326SOL     OW77810   1.357   6.920   7.144
25326SOL    HW177811   1.355   6.992   7.206
25326SOL    HW277812   1.449   6.896   7.137
25327SOL     OW77813   6.198   0.770   4.720
25327SOL    HW177814   6.107   0.757   4.747
25327SOL    HW277815   6.229   0.840   4.777
25328SOL     OW77816   2.700   9.070   3.357
25328SOL    HW177817   2.685   9.025   3.440
25328SOL    HW277818   2.681   9.005   3.290
25329SOL     OW77819   1.009   8.959  11.665
25329SOL    HW177820   0.915   8.976  11.669
25329SOL    HW277821   1.017   8.878  11.614
25330SOL     OW77822   9.769   1.660   9.972
25330SOL    HW177823   9.806   1.726  10.030
25330SOL    HW277824   9.843   1.631   9.919
25331SOL     OW77825   1.002  10.327   9.890
25331SOL    HW177826   0.972  10.236   9.893
25331SOL    HW277827   0.928  10.375   9.852
25332SOL     OW77828  13.786   3.141   9.964
25332SOL    HW177829  13.740   3.185   9.892
25332SOL    HW277830  13.764   3.194  10.041
25333SOL     OW77831   4.602  14.847   6.913
25333SOL    HW177832   4.584  14.821   6.823
25333SOL    HW277833   4.672   0.040   6.906
25334SOL     OW77834   2.871   5.389  12.371
25334SOL    HW177835   2.797   5.428  12.324
25334SOL    HW277836   2.894   5.312  12.320
25335SOL     OW77837  14.124   5.944   5.437
25335SOL    HW177838  14.213   5.971   5.416
25335SOL    HW277839  14.130   5.907   5.525
25336SOL     OW77840   5.007  13.467  11.903
25336SOL    HW177841   4.969  13.380  11.889
25336SOL    HW277842   5.052  13.487  11.820
25337SOL     OW77843   2.024   3.593  10.978
25337SOL    HW177844   2.051   3.507  11.011
25337SOL    HW277845   2.026   3.649  11.056
25338SOL     OW77846   1.807  11.488  12.003
25338SOL    HW177847   1.791  11.558  12.066
25338SOL    HW277848   1.870  11.525  11.942
25339SOL     OW77849  10.992  13.531   3.689
25339SOL    HW177850  10.921  13.548   3.627
25339SOL    HW277851  11.064  13.499   3.634
25340SOL     OW77852  13.352   7.567   1.041
25340SOL    HW177853  13.358   7.642   0.982
25340SOL    HW277854  13.260   7.562   1.065
25341SOL     OW77855   0.831   5.641  12.548
25341SOL    HW177856   0.859   5.622  12.459
25341SOL    HW277857   0.820   5.555  12.589
25342SOL     OW77858   3.758   1.041  12.529
25342SOL    HW177859   3.731   0.993  12.451
25342SOL    HW277860   3.787   0.974  12.591
25343SOL     OW77861   9.629  10.606   7.972
25343SOL    HW177862   9.676  10.670   7.919
25343SOL    HW277863   9.543  10.598   7.930
25344SOL     OW77864   9.407   9.941  12.956
25344SOL    HW177865   9.397   9.932  13.050
25344SOL    HW277866   9.480   9.884  12.933
25345SOL     OW77867   8.768  10.545  11.310
25345SOL    HW177868   8.730  10.630  11.289
25345SOL    HW277869   8.693  10.486  11.318
25346SOL     OW77870   3.971   3.125   0.739
25346SOL    HW177871   3.944   3.044   0.782
25346SOL    HW277872   3.889   3.173   0.726
25347SOL     OW77873   6.854   2.499  11.099
25347SOL    HW177874   6.893   2.492  11.186
25347SOL    HW277875   6.774   2.447  11.103
25348SOL     OW77876   8.186   2.215  13.203
25348SOL    HW177877   8.261   2.212  13.145
25348SOL    HW277878   8.197   2.139  13.260
25349SOL     OW77879   7.604   2.354  12.525
25349SOL    HW177880   7.691   2.374  12.560
25349SOL    HW277881   7.589   2.262  12.547
25350SOL     OW77882   0.307  11.594  10.307
25350SOL    HW177883   0.372  11.639  10.360
25350SOL    HW277884   0.232  11.583  10.365
25351SOL     OW77885   9.264   3.308  13.518
25351SOL    HW177886   9.194   3.323  13.454
25351SOL    HW277887   9.247   3.221  13.552
25352SOL     OW77888  13.330   8.216  12.368
25352SOL    HW177889  13.381   8.204  12.289
25352SOL    HW277890  13.376   8.283  12.418
25353SOL     OW77891   2.969  12.045   4.575
25353SOL    HW177892   2.890  12.005   4.611
25353SOL    HW277893   2.987  11.994   4.496
25354SOL     OW77894  13.894   5.988  12.399
25354SOL    HW177895  13.963   6.054  12.408
25354SOL    HW277896  13.928   5.927  12.334
25355SOL     OW77897  14.767  12.960   4.589
25355SOL    HW177898  14.690  12.917   4.627
25355SOL    HW277899  14.812  12.999   4.663
25356SOL     OW77900   2.530  13.306  13.806
25356SOL    HW177901   2.570  13.272  13.885
25356SOL    HW277902   2.594  13.369  13.772
25357SOL     OW77903   9.463   3.962   6.556
25357SOL    HW177904   9.473   3.974   6.462
25357SOL    HW277905   9.501   3.876   6.574
25358SOL     OW77906  14.354   1.106   2.025
25358SOL    HW177907  14.348   1.018   2.064
25358SOL    HW277908  14.277   1.113   1.969
25359SOL     OW77909   9.710   6.495  13.859
25359SOL    HW177910   9.787   6.476  13.805
25359SOL    HW277911   9.721   6.586  13.887
25360SOL     OW77912   0.613   8.885   2.191
25360SOL    HW177913   0.668   8.935   2.131
25360SOL    HW277914   0.551   8.839   2.134
25361SOL     OW77915   7.754   0.964  12.019
25361SOL    HW177916   7.767   1.053  12.052
25361SOL    HW277917   7.673   0.933  12.060
25362SOL     OW77918   3.387   7.359   4.472
25362SOL    HW177919   3.339   7.309   4.538
25362SOL    HW277920   3.318   7.396   4.416
25363SOL     OW77921   0.738   3.037  11.249
25363SOL    HW177922   0.744   3.097  11.174
25363SOL    HW277923   0.644   3.022  11.260
25364SOL     OW77924  10.491   9.137  11.544
25364SOL    HW177925  10.457   9.051  11.521
25364SOL    HW277926  10.417   9.182  11.586
25365SOL     OW77927   9.160   0.415   9.513
25365SOL    HW177928   9.195   0.433   9.425
25365SOL    HW277929   9.232   0.434   9.572
25366SOL     OW77930  13.211  14.154   7.952
25366SOL    HW177931  13.140  14.100   7.986
25366SOL    HW277932  13.193  14.161   7.858
25367SOL     OW77933  14.389   0.156  12.078
25367SOL    HW177934  14.334   0.079  12.062
25367SOL    HW277935  14.346   0.200  12.151
25368SOL     OW77936  11.898  13.784   9.499
25368SOL    HW177937  11.922  13.870   9.533
25368SOL    HW277938  11.919  13.723   9.570
25369SOL     OW77939  11.260   3.850  14.745
25369SOL    HW177940  11.189   3.805  14.790
25369SOL    HW277941  11.296   3.785  14.685
25370SOL     OW77942  12.717   5.413   0.138
25370SOL    HW177943  12.651   5.479   0.116
25370SOL    HW277944  12.771   5.455   0.205
25371SOL     OW77945  14.497  11.280   9.430
25371SOL    HW177946  14.408  11.309   9.411
25371SOL    HW277947  14.494  11.185   9.419
25372SOL     OW77948   1.051  10.927   8.804
25372SOL    HW177949   0.987  10.889   8.864
25372SOL    HW277950   1.136  10.910   8.845
25373SOL     OW77951  13.112   8.193   5.467
25373SOL    HW177952  13.111   8.170   5.374
25373SOL    HW277953  13.174   8.131   5.506
25374SOL     OW77954  12.496  12.849   2.071
25374SOL    HW177955  12.471  12.940   2.091
25374SOL    HW277956  12.591  12.852   2.059
25375SOL     OW77957   6.367   2.575   5.686
25375SOL    HW177958   6.292   2.633   5.701
25375SOL    HW277959   6.441   2.622   5.723
25376SOL     OW77960   8.550  14.699   9.509
25376SOL    HW177961   8.464  14.734   9.534
25376SOL    HW277962   8.582  14.758   9.441
25377SOL     OW77963  12.263   9.208   2.733
25377SOL    HW177964  12.330   9.158   2.780
25377SOL    HW277965  12.208   9.142   2.692
25378SOL     OW77966   1.294   9.994  14.806
25378SOL    HW177967   1.255   9.994   0.021
25378SOL    HW277968   1.219   9.997  14.747
25379SOL     OW77969  11.527   2.289  10.152
25379SOL    HW177970  11.446   2.243  10.129
25379SOL    HW277971  11.508   2.333  10.234
25380SOL     OW77972   1.247   3.919   1.587
25380SOL    HW177973   1.264   3.968   1.507
25380SOL    HW277974   1.268   3.829   1.565
25381SOL     OW77975   9.192   7.500  13.676
25381SOL    HW177976   9.181   7.542  13.590
25381SOL    HW277977   9.238   7.565  13.728
25382SOL     OW77978  13.078  13.261  12.241
25382SOL    HW177979  13.031  13.217  12.169
25382SOL    HW277980  13.110  13.342  12.202
25383SOL     OW77981   1.973  13.748   8.267
25383SOL    HW177982   1.891  13.794   8.283
25383SOL    HW277983   1.949  13.675   8.209
25384SOL     OW77984  11.761  11.149  12.194
25384SOL    HW177985  11.768  11.060  12.228
25384SOL    HW277986  11.752  11.204  12.272
25385SOL     OW77987  10.423   0.542   6.098
25385SOL    HW177988  10.512   0.577   6.105
25385SOL    HW277989  10.391   0.573   6.013
25386SOL     OW77990   6.545   9.096  13.000
25386SOL    HW177991   6.456   9.101  13.035
25386SOL    HW277992   6.582   9.017  13.041
25387SOL     OW77993   9.948   5.399  14.436
25387SOL    HW177994   9.951   5.464  14.507
25387SOL    HW277995  10.015   5.335  14.459
25388SOL     OW77996  10.379   7.254   7.832
25388SOL    HW177997  10.298   7.298   7.807
25388SOL    HW277998  10.406   7.297   7.913
25389SOL     OW77999   5.881   5.570   0.982
25389SOL    HW178000   5.816   5.617   1.035
25389SOL    HW278001   5.934   5.523   1.047
25390SOL     OW78002   5.459  11.417   6.324
25390SOL    HW178003   5.476  11.487   6.387
25390SOL    HW278004   5.366  11.396   6.335
25391SOL     OW78005   9.337  10.324   6.109
25391SOL    HW178006   9.316  10.322   6.202
25391SOL    HW278007   9.273  10.265   6.069
25392SOL     OW78008   9.695  10.488   4.887
25392SOL    HW178009   9.618  10.465   4.835
25392SOL    HW278010   9.736  10.404   4.907
25393SOL     OW78011   4.795   4.808  14.523
25393SOL    HW178012   4.703   4.801  14.499
25393SOL    HW278013   4.795   4.800  14.619
25394SOL     OW78014  11.707   3.246   2.480
25394SOL    HW178015  11.753   3.208   2.555
25394SOL    HW278016  11.753   3.328   2.463
25395SOL     OW78017   9.168   1.827   1.186
25395SOL    HW178018   9.203   1.744   1.217
25395SOL    HW278019   9.212   1.893   1.239
25396SOL     OW78020   0.053  11.118  13.259
25396SOL    HW178021   0.061  11.121  13.163
25396SOL    HW278022   0.085  11.203  13.288
25397SOL     OW78023   6.528   2.651   9.656
25397SOL    HW178024   6.536   2.556   9.662
25397SOL    HW278025   6.472   2.675   9.730
25398SOL     OW78026  13.585   2.718  12.863
25398SOL    HW178027  13.608   2.652  12.929
25398SOL    HW278028  13.659   2.718  12.802
25399SOL     OW78029   5.995  12.382   6.125
25399SOL    HW178030   5.923  12.322   6.145
25399SOL    HW278031   6.034  12.346   6.045
25400SOL     OW78032  11.548  12.989   2.927
25400SOL    HW178033  11.518  13.029   3.008
25400SOL    HW278034  11.493  12.912   2.915
25401SOL     OW78035  13.921   0.654  11.236
25401SOL    HW178036  13.870   0.652  11.316
25401SOL    HW278037  13.863   0.619  11.169
25402SOL     OW78038   4.676   5.447  12.807
25402SOL    HW178039   4.701   5.515  12.745
25402SOL    HW278040   4.703   5.365  12.766
25403SOL     OW78041  14.572   7.062  10.267
25403SOL    HW178042  14.647   7.089  10.320
25403SOL    HW278043  14.594   7.092  10.179
25404SOL     OW78044   5.164   0.751  11.107
25404SOL    HW178045   5.123   0.731  11.191
25404SOL    HW278046   5.159   0.846  11.100
25405SOL     OW78047   3.190   4.625   4.050
25405SOL    HW178048   3.136   4.649   3.975
25405SOL    HW278049   3.131   4.577   4.109
25406SOL     OW78050   2.638  11.296   5.693
25406SOL    HW178051   2.619  11.293   5.599
25406SOL    HW278052   2.658  11.206   5.717
25407SOL     OW78053   1.504   0.080   1.697
25407SOL    HW178054   1.598   0.097   1.686
25407SOL    HW278055   1.463   0.126   1.623
25408SOL     OW78056   5.376   8.583   6.128
25408SOL    HW178057   5.464   8.593   6.092
25408SOL    HW278058   5.344   8.501   6.091
25409SOL     OW78059  12.452   2.618   2.276
25409SOL    HW178060  12.539   2.586   2.298
25409SOL    HW278061  12.423   2.664   2.355
25410SOL     OW78062   3.988  10.059  14.393
25410SOL    HW178063   3.895  10.075  14.378
25410SOL    HW278064   4.023  10.144  14.421
25411SOL     OW78065   9.515   4.383  10.788
25411SOL    HW178066   9.485   4.315  10.728
25411SOL    HW278067   9.561   4.336  10.858
25412SOL     OW78068   6.303   0.661   5.667
25412SOL    HW178069   6.322   0.631   5.578
25412SOL    HW278070   6.376   0.628   5.720
25413SOL     OW78071   8.804   9.500  11.504
25413SOL    HW178072   8.823   9.422  11.451
25413SOL    HW278073   8.804   9.572  11.442
25414SOL     OW78074   8.004  12.678   8.986
25414SOL    HW178075   7.994  12.699   8.893
25414SOL    HW278076   8.098  12.679   9.001
25415SOL     OW78077   8.279   3.970  14.333
25415SOL    HW178078   8.278   3.874  14.327
25415SOL    HW278079   8.368   3.994  14.308
25416SOL     OW78080   9.601   3.849   2.250
25416SOL    HW178081   9.537   3.847   2.321
25416SOL    HW278082   9.553   3.821   2.172
25417SOL     OW78083  14.667   0.460  12.026
25417SOL    HW178084  14.735   0.507  12.076
25417SOL    HW278085  14.585   0.501  12.052
25418SOL     OW78086   9.920   0.453   5.568
25418SOL    HW178087   9.838   0.421   5.530
25418SOL    HW278088   9.954   0.378   5.618
25419SOL     OW78089   0.063   0.974  14.666
25419SOL    HW178090   0.146   1.017  14.646
25419SOL    HW278091   0.068   0.953  14.759
25420SOL     OW78092  11.792   4.336  12.635
25420SOL    HW178093  11.764   4.245  12.646
25420SOL    HW278094  11.744   4.367  12.558
25421SOL     OW78095  13.713   4.036   2.581
25421SOL    HW178096  13.800   4.012   2.612
25421SOL    HW278097  13.656   4.026   2.658
25422SOL     OW78098  11.677   2.606   1.190
25422SOL    HW178099  11.619   2.584   1.117
25422SOL    HW278100  11.638   2.565   1.266
25423SOL     OW78101   9.153  14.771  14.547
25423SOL    HW178102   9.217  14.772  14.618
25423SOL    HW278103   9.133  14.864  14.533
25424SOL     OW78104  14.706   4.423   6.022
25424SOL    HW178105  14.784   4.371   6.003
25424SOL    HW278106  14.694   4.478   5.945
25425SOL     OW78107  13.537   8.481   2.173
25425SOL    HW178108  13.620   8.456   2.132
25425SOL    HW278109  13.547   8.456   2.265
25426SOL     OW78110   2.584   0.154  13.066
25426SOL    HW178111   2.653   0.220  13.080
25426SOL    HW278112   2.622   0.073  13.099
25427SOL     OW78113   6.932   9.074   9.476
25427SOL    HW178114   7.009   9.121   9.508
25427SOL    HW278115   6.868   9.083   9.546
25428SOL     OW78116  14.662   1.259   4.955
25428SOL    HW178117  14.665   1.351   4.981
25428SOL    HW278118  14.650   1.261   4.860
25429SOL     OW78119   7.965   8.826   9.768
25429SOL    HW178120   7.973   8.839   9.863
25429SOL    HW278121   8.047   8.859   9.732
25430SOL     OW78122  12.139  14.578   6.560
25430SOL    HW178123  12.060  14.538   6.523
25430SOL    HW278124  12.211  14.532   6.518
25431SOL     OW78125   6.024   4.998  10.046
25431SOL    HW178126   6.097   5.032  10.098
25431SOL    HW278127   6.066   4.954   9.971
25432SOL     OW78128   7.841   9.026   1.045
25432SOL    HW178129   7.801   9.101   1.088
25432SOL    HW278130   7.791   9.015   0.965
25433SOL     OW78131  11.719   4.639  12.462
25433SOL    HW178132  11.801   4.679  12.433
25433SOL    HW278133  11.713   4.660  12.555
25434SOL     OW78134   5.590   2.018  12.666
25434SOL    HW178135   5.608   1.927  12.687
25434SOL    HW278136   5.494   2.023  12.662
25435SOL     OW78137   8.233  12.922   3.636
25435SOL    HW178138   8.140  12.939   3.619
25435SOL    HW278139   8.270  12.902   3.551
25436SOL     OW78140   6.687   6.785  10.567
25436SOL    HW178141   6.731   6.784  10.482
25436SOL    HW278142   6.705   6.872  10.603
25437SOL     OW78143   9.499   9.047   9.640
25437SOL    HW178144   9.562   9.111   9.607
25437SOL    HW278145   9.512   8.970   9.586
25438SOL     OW78146   5.574   0.033  11.700
25438SOL    HW178147   5.584  14.865  11.614
25438SOL    HW278148   5.631   0.110  11.696
25439SOL     OW78149   2.702   9.088   5.107
25439SOL    HW178150   2.730   9.002   5.075
25439SOL    HW278151   2.781   9.126   5.145
25440SOL     OW78152   1.394   4.838   7.575
25440SOL    HW178153   1.460   4.881   7.521
25440SOL    HW278154   1.343   4.785   7.514
25441SOL     OW78155  11.458   7.663  11.799
25441SOL    HW178156  11.421   7.629  11.880
25441SOL    HW278157  11.537   7.709  11.826
25442SOL     OW78158   3.259   2.299   4.126
25442SOL    HW178159   3.166   2.312   4.143
25442SOL    HW278160   3.267   2.303   4.030
25443SOL     OW78161   1.476   7.667  11.067
25443SOL    HW178162   1.560   7.673  11.023
25443SOL    HW278163   1.461   7.573  11.079
25444SOL     OW78164  10.646   6.001  13.640
25444SOL    HW178165  10.626   5.907  13.636
25444SOL    HW278166  10.742   6.005  13.645
25445SOL     OW78167   6.492   5.957   0.589
25445SOL    HW178168   6.507   5.965   0.495
25445SOL    HW278169   6.475   6.047   0.618
25446SOL     OW78170   5.427   6.277   6.850
25446SOL    HW178171   5.457   6.362   6.817
25446SOL    HW278172   5.432   6.219   6.775
25447SOL     OW78173   4.105   7.347   6.654
25447SOL    HW178174   4.014   7.329   6.630
25447SOL    HW278175   4.115   7.441   6.640
25448SOL     OW78176   8.197   9.113   2.763
25448SOL    HW178177   8.192   9.032   2.712
25448SOL    HW278178   8.108   9.148   2.762
25449SOL     OW78179   3.763   0.085   7.723
25449SOL    HW178180   3.726   0.086   7.811
25449SOL    HW278181   3.823   0.010   7.723
25450SOL     OW78182  11.910   1.954  11.560
25450SOL    HW178183  11.906   2.009  11.638
25450SOL    HW278184  11.964   1.880  11.585
25451SOL     OW78185   0.535   4.484   2.179
25451SOL    HW178186   0.623   4.445   2.186
25451SOL    HW278187   0.551   4.576   2.158
25452SOL     OW78188  11.283   7.024  11.604
25452SOL    HW178189  11.226   7.046  11.678
25452SOL    HW278190  11.337   6.952  11.636
25453SOL     OW78191   8.018   2.539   4.404
25453SOL    HW178192   8.076   2.491   4.464
25453SOL    HW278193   8.077   2.596   4.355
25454SOL     OW78194   8.667   6.051   9.518
25454SOL    HW178195   8.726   6.104   9.572
25454SOL    HW278196   8.711   5.967   9.509
25455SOL     OW78197   0.859   2.218   2.520
25455SOL    HW178198   0.800   2.237   2.593
25455SOL    HW278199   0.812   2.247   2.442
25456SOL     OW78200  12.294  12.086   6.582
25456SOL    HW178201  12.289  12.043   6.497
25456SOL    HW278202  12.388  12.100   6.596
25457SOL     OW78203  11.014   8.212  10.081
25457SOL    HW178204  11.012   8.123  10.118
25457SOL    HW278205  10.995   8.269  10.156
25458SOL     OW78206   0.213   1.047   2.874
25458SOL    HW178207   0.248   1.090   2.796
25458SOL    HW278208   0.198   1.117   2.937
25459SOL     OW78209  12.989  11.030   1.896
25459SOL    HW178210  13.041  10.958   1.931
25459SOL    HW278211  13.054  11.092   1.862
25460SOL     OW78212  10.515   6.218  13.736
25460SOL    HW178213  10.564   6.149  13.692
25460SOL    HW278214  10.469   6.264  13.665
25461SOL     OW78215   1.034   5.009  11.108
25461SOL    HW178216   0.988   5.090  11.129
25461SOL    HW278217   1.045   4.965  11.192
25462SOL     OW78218  13.452   6.286  13.503
25462SOL    HW178219  13.500   6.348  13.448
25462SOL    HW278220  13.511   6.212  13.512
25463SOL     OW78221  10.116   4.873   5.599
25463SOL    HW178222  10.032   4.828   5.593
25463SOL    HW278223  10.108   4.931   5.674
25464SOL     OW78224   6.381  12.950  14.244
25464SOL    HW178225   6.349  13.034  14.278
25464SOL    HW278226   6.386  12.963  14.149
25465SOL     OW78227   3.216  13.402   0.146
25465SOL    HW178228   3.293  13.429   0.096
25465SOL    HW278229   3.230  13.439   0.234
25466SOL     OW78230   0.308   5.629   7.422
25466SOL    HW178231   0.367   5.559   7.452
25466SOL    HW278232   0.286   5.605   7.331
25467SOL     OW78233  11.929   4.599  10.145
25467SOL    HW178234  11.999   4.536  10.156
25467SOL    HW278235  11.849   4.546  10.140
25468SOL     OW78236  11.050   5.376  13.003
25468SOL    HW178237  10.962   5.394  13.036
25468SOL    HW278238  11.108   5.411  13.070
25469SOL     OW78239   1.190   2.600   3.213
25469SOL    HW178240   1.266   2.656   3.228
25469SOL    HW278241   1.199   2.571   3.123
25470SOL     OW78242  12.796  14.316   6.359
25470SOL    HW178243  12.832  14.230   6.381
25470SOL    HW278244  12.702  14.307   6.370
25471SOL     OW78245  10.621  13.657   7.350
25471SOL    HW178246  10.603  13.723   7.417
25471SOL    HW278247  10.633  13.707   7.269
25472SOL     OW78248   2.208  13.622  14.119
25472SOL    HW178249   2.157  13.701  14.099
25472SOL    HW278250   2.275  13.619  14.051
25473SOL     OW78251   1.074   6.835  11.360
25473SOL    HW178252   1.151   6.826  11.415
25473SOL    HW278253   1.000   6.819  11.419
25474SOL     OW78254   4.784   8.400  12.835
25474SOL    HW178255   4.704   8.440  12.800
25474SOL    HW278256   4.836   8.379  12.758
25475SOL     OW78257   4.845  10.963   0.257
25475SOL    HW178258   4.786  10.943   0.185
25475SOL    HW278259   4.856  10.880   0.304
25476SOL     OW78260   9.097   6.823  10.048
25476SOL    HW178261   9.069   6.739  10.084
25476SOL    HW278262   9.095   6.883  10.123
25477SOL     OW78263   0.180  14.382  12.732
25477SOL    HW178264   0.188  14.425  12.817
25477SOL    HW278265   0.199  14.451  12.668
25478SOL     OW78266   3.099   3.375  11.627
25478SOL    HW178267   3.183   3.340  11.656
25478SOL    HW278268   3.104   3.469  11.646
25479SOL     OW78269   8.186  12.813   0.038
25479SOL    HW178270   8.267  12.764   0.024
25479SOL    HW278271   8.150  12.824  14.823
25480SOL     OW78272  12.665   5.739   6.383
25480SOL    HW178273  12.624   5.715   6.466
25480SOL    HW278274  12.732   5.673   6.369
25481SOL     OW78275   9.215   7.911   7.137
25481SOL    HW178276   9.164   7.982   7.176
25481SOL    HW278277   9.213   7.929   7.043
25482SOL     OW78278   4.758   1.695   5.546
25482SOL    HW178279   4.784   1.614   5.501
25482SOL    HW278280   4.692   1.666   5.609
25483SOL     OW78281   4.353  12.051  14.480
25483SOL    HW178282   4.364  11.985  14.549
25483SOL    HW278283   4.442  12.069  14.451
25484SOL     OW78284   0.418   5.657   6.399
25484SOL    HW178285   0.388   5.737   6.443
25484SOL    HW278286   0.359   5.588   6.431
25485SOL     OW78287   5.702   0.217   1.744
25485SOL    HW178288   5.719   0.281   1.814
25485SOL    HW278289   5.750   0.251   1.668
25486SOL     OW78290  14.439  11.179   6.981
25486SOL    HW178291  14.531  11.167   6.957
25486SOL    HW278292  14.414  11.261   6.939
25487SOL     OW78293   7.236   3.326   8.754
25487SOL    HW178294   7.240   3.353   8.846
25487SOL    HW278295   7.252   3.232   8.756
25488SOL     OW78296   2.037   0.153   3.944
25488SOL    HW178297   2.084   0.150   3.861
25488SOL    HW278298   2.086   0.216   3.997
25489SOL     OW78299   0.626   5.858   4.470
25489SOL    HW178300   0.532   5.879   4.469
25489SOL    HW278301   0.640   5.808   4.390
25490SOL     OW78302   9.929   2.957   7.541
25490SOL    HW178303   9.982   3.008   7.602
25490SOL    HW278304   9.916   2.873   7.587
25491SOL     OW78305  14.735  11.274   2.863
25491SOL    HW178306  14.667  11.320   2.912
25491SOL    HW278307  14.738  11.318   2.778
25492SOL     OW78308   1.764  11.493   8.904
25492SOL    HW178309   1.704  11.473   8.976
25492SOL    HW278310   1.830  11.424   8.908
25493SOL     OW78311   8.961   7.327   8.943
25493SOL    HW178312   8.996   7.286   9.022
25493SOL    HW278313   8.873   7.288   8.934
25494SOL     OW78314   0.987   5.992   7.549
25494SOL    HW178315   0.968   6.082   7.576
25494SOL    HW278316   1.050   6.001   7.477
25495SOL     OW78317  12.509   3.637   7.700
25495SOL    HW178318  12.493   3.585   7.622
25495SOL    HW278319  12.425   3.678   7.720
25496SOL     OW78320  10.502   9.567   3.482
25496SOL    HW178321  10.482   9.520   3.563
25496SOL    HW278322  10.478   9.505   3.413
25497SOL     OW78323   4.468   0.623  12.427
25497SOL    HW178324   4.419   0.640  12.347
25497SOL    HW278325   4.417   0.667  12.496
25498SOL     OW78326  13.698  13.390   4.402
25498SOL    HW178327  13.703  13.439   4.484
25498SOL    HW278328  13.677  13.456   4.336
25499SOL     OW78329   7.290   5.614   5.786
25499SOL    HW178330   7.304   5.709   5.784
25499SOL    HW278331   7.206   5.602   5.742
25500SOL     OW78332   4.628   2.828  14.347
25500SOL    HW178333   4.559   2.894  14.348
25500SOL    HW278334   4.584   2.747  14.373
25501SOL     OW78335  11.807   5.122  14.614
25501SOL    HW178336  11.846   5.207  14.592
25501SOL    HW278337  11.719   5.144  14.646
25502SOL     OW78338   5.101   3.812   4.997
25502SOL    HW178339   5.136   3.900   5.008
25502SOL    HW278340   5.033   3.804   5.064
25503SOL     OW78341   3.297  10.593   4.983
25503SOL    HW178342   3.277  10.537   4.908
25503SOL    HW278343   3.298  10.682   4.948
25504SOL     OW78344   0.211   4.477  10.827
25504SOL    HW178345   0.290   4.514  10.789
25504SOL    HW278346   0.233   4.385  10.843
25505SOL     OW78347   2.372  10.134   9.874
25505SOL    HW178348   2.322  10.084   9.938
25505SOL    HW278349   2.385  10.219   9.916
25506SOL     OW78350   3.306   9.127   8.250
25506SOL    HW178351   3.329   9.179   8.327
25506SOL    HW278352   3.294   9.191   8.180
25507SOL     OW78353   5.196  12.559   3.625
25507SOL    HW178354   5.164  12.639   3.666
25507SOL    HW278355   5.235  12.510   3.697
25508SOL     OW78356   4.156   6.734   3.592
25508SOL    HW178357   4.117   6.822   3.591
25508SOL    HW278358   4.236   6.744   3.642
25509SOL     OW78359  10.271  11.467   3.009
25509SOL    HW178360  10.230  11.405   3.069
25509SOL    HW278361  10.323  11.525   3.066
25510SOL     OW78362  12.183  11.489   3.802
25510SOL    HW178363  12.172  11.529   3.715
25510SOL    HW278364  12.133  11.408   3.797
25511SOL     OW78365   7.318   7.314   4.747
25511SOL    HW178366   7.323   7.403   4.712
25511SOL    HW278367   7.409   7.290   4.762
25512SOL     OW78368  13.888  14.695  13.785
25512SOL    HW178369  13.969  14.721  13.828
25512SOL    HW278370  13.902  14.603  13.760
25513SOL     OW78371  10.180   9.242   1.700
25513SOL    HW178372  10.184   9.147   1.711
25513SOL    HW278373  10.203   9.256   1.608
25514SOL     OW78374   5.581  11.147   4.328
25514SOL    HW178375   5.612  11.137   4.418
25514SOL    HW278376   5.502  11.092   4.324
25515SOL     OW78377   4.704   0.397   9.983
25515SOL    HW178378   4.746   0.327  10.034
25515SOL    HW278379   4.655   0.447  10.048
25516SOL     OW78380  11.143   1.104  12.115
25516SOL    HW178381  11.067   1.162  12.121
25516SOL    HW278382  11.185   1.109  12.201
25517SOL     OW78383   6.097  10.520   7.475
25517SOL    HW178384   6.181  10.542   7.435
25517SOL    HW278385   6.051  10.468   7.409
25518SOL     OW78386   8.037   8.527  13.186
25518SOL    HW178387   8.094   8.539  13.261
25518SOL    HW278388   7.953   8.565  13.213
25519SOL     OW78389   1.120  11.026  14.291
25519SOL    HW178390   1.031  11.062  14.296
25519SOL    HW278391   1.113  10.939  14.330
25520SOL     OW78392  12.410   3.372   1.979
25520SOL    HW178393  12.415   3.460   1.941
25520SOL    HW278394  12.447   3.381   2.066
25521SOL     OW78395   2.794   1.369   0.694
25521SOL    HW178396   2.845   1.291   0.670
25521SOL    HW278397   2.819   1.435   0.629
25522SOL     OW78398   7.339  14.577  10.302
25522SOL    HW178399   7.416  14.535  10.340
25522SOL    HW278400   7.363  14.596  10.211
25523SOL     OW78401   5.094   3.375   3.532
25523SOL    HW178402   5.025   3.349   3.593
25523SOL    HW278403   5.100   3.302   3.470
25524SOL     OW78404  13.816   9.431  13.303
25524SOL    HW178405  13.724   9.410  13.293
25524SOL    HW278406  13.845   9.456  13.215
25525SOL     OW78407  14.504   4.038  13.933
25525SOL    HW178408  14.524   3.954  13.892
25525SOL    HW278409  14.481   4.016  14.023
25526SOL     OW78410   6.049   2.099   9.743
25526SOL    HW178411   6.103   2.041   9.798
25526SOL    HW278412   5.995   2.040   9.691
25527SOL     OW78413   2.738   4.140   9.130
25527SOL    HW178414   2.783   4.224   9.137
25527SOL    HW278415   2.683   4.148   9.053
25528SOL     OW78416   0.951   6.329   3.741
25528SOL    HW178417   0.868   6.322   3.788
25528SOL    HW278418   0.939   6.272   3.664
25529SOL     OW78419   9.405   2.199  12.255
25529SOL    HW178420   9.435   2.288  12.238
25529SOL    HW278421   9.482   2.153  12.288
25530SOL     OW78422   7.161   7.555  10.776
25530SOL    HW178423   7.114   7.490  10.828
25530SOL    HW278424   7.253   7.538  10.793
25531SOL     OW78425   9.991   0.256   3.341
25531SOL    HW178426   9.943   0.336   3.322
25531SOL    HW278427   9.983   0.245   3.435
25532SOL     OW78428   5.779   0.274  11.804
25532SOL    HW178429   5.873   0.292  11.808
25532SOL    HW278430   5.741   0.349  11.759
25533SOL     OW78431   7.969   4.451   3.757
25533SOL    HW178432   7.899   4.487   3.703
25533SOL    HW278433   8.040   4.515   3.750
25534SOL     OW78434   6.414  13.505   1.730
25534SOL    HW178435   6.341  13.444   1.734
25534SOL    HW278436   6.492  13.450   1.738
25535SOL     OW78437  14.529   0.397  10.630
25535SOL    HW178438  14.590   0.398  10.556
25535SOL    HW278439  14.574   0.445  10.700
25536SOL     OW78440   4.078  11.273   2.605
25536SOL    HW178441   4.023  11.255   2.682
25536SOL    HW278442   4.047  11.358   2.573
25537SOL     OW78443   3.142   2.878  14.271
25537SOL    HW178444   3.107   2.850  14.187
25537SOL    HW278445   3.236   2.885  14.257
25538SOL     OW78446   1.204   1.810   5.464
25538SOL    HW178447   1.222   1.763   5.382
25538SOL    HW278448   1.290   1.827   5.501
25539SOL     OW78449   9.422  11.276  14.138
25539SOL    HW178450   9.339  11.252  14.097
25539SOL    HW278451   9.397  11.337  14.208
25540SOL     OW78452   9.225   2.113   8.625
25540SOL    HW178453   9.212   2.072   8.711
25540SOL    HW278454   9.186   2.051   8.563
25541SOL     OW78455   1.799  13.677   6.209
25541SOL    HW178456   1.731  13.689   6.142
25541SOL    HW278457   1.768  13.730   6.283
25542SOL     OW78458   8.794   2.648   6.091
25542SOL    HW178459   8.814   2.698   6.011
25542SOL    HW278460   8.802   2.557   6.065
25543SOL     OW78461  10.469   3.789   7.597
25543SOL    HW178462  10.538   3.819   7.656
25543SOL    HW278463  10.492   3.827   7.512
25544SOL     OW78464   7.131  14.807   8.404
25544SOL    HW178465   7.049  14.833   8.362
25544SOL    HW278466   7.158   0.012   8.453
25545SOL     OW78467  13.400   8.076  10.387
25545SOL    HW178468  13.489   8.111  10.393
25545SOL    HW278469  13.410   7.988  10.352
25546SOL     OW78470  10.468   7.423   3.873
25546SOL    HW178471  10.494   7.407   3.964
25546SOL    HW278472  10.455   7.517   3.868
25547SOL     OW78473  13.311   2.867   5.160
25547SOL    HW178474  13.246   2.831   5.222
25547SOL    HW278475  13.292   2.822   5.078
25548SOL     OW78476   1.396   2.338   4.661
25548SOL    HW178477   1.441   2.422   4.668
25548SOL    HW278478   1.384   2.310   4.752
25549SOL     OW78479   3.536   5.270   8.102
25549SOL    HW178480   3.455   5.220   8.104
25549SOL    HW278481   3.547   5.300   8.193
25550SOL     OW78482   7.970   5.917   4.782
25550SOL    HW178483   8.042   5.884   4.729
25550SOL    HW278484   7.914   5.841   4.797
25551SOL     OW78485  11.958  11.084   7.694
25551SOL    HW178486  11.866  11.057   7.688
25551SOL    HW278487  12.006  11.009   7.658
25552SOL     OW78488  12.291   7.264   8.027
25552SOL    HW178489  12.267   7.284   7.936
25552SOL    HW278490  12.364   7.323   8.045
25553SOL     OW78491  14.412  14.304   7.803
25553SOL    HW178492  14.323  14.329   7.828
25553SOL    HW278493  14.408  14.288   7.709
25554SOL     OW78494   4.159   3.387   5.109
25554SOL    HW178495   4.132   3.461   5.164
25554SOL    HW278496   4.079   3.360   5.064
25555SOL     OW78497   5.318  10.859  13.657
25555SOL    HW178498   5.286  10.769  13.647
25555SOL    HW278499   5.247  10.904  13.704
25556SOL     OW78500   1.987   0.933   3.014
25556SOL    HW178501   1.937   0.883   3.079
25556SOL    HW278502   2.052   0.981   3.066
25557SOL     OW78503  11.565   5.544   2.695
25557SOL    HW178504  11.546   5.565   2.786
25557SOL    HW278505  11.619   5.465   2.700
25558SOL     OW78506   4.179  11.653   4.863
25558SOL    HW178507   4.136  11.586   4.810
25558SOL    HW278508   4.116  11.725   4.864
25559SOL     OW78509   0.748  14.566   5.526
25559SOL    HW178510   0.712  14.499   5.586
25559SOL    HW278511   0.841  14.545   5.521
25560SOL     OW78512   6.842   9.268   9.717
25560SOL    HW178513   6.916   9.220   9.752
25560SOL    HW278514   6.766   9.233   9.763
25561SOL     OW78515   2.565   6.694  12.923
25561SOL    HW178516   2.614   6.734  12.995
25561SOL    HW278517   2.607   6.727  12.844
25562SOL     OW78518   9.645  14.581   7.032
25562SOL    HW178519   9.567  14.631   7.005
25562SOL    HW278520   9.705  14.647   7.066
25563SOL     OW78521   9.921  14.866   1.972
25563SOL    HW178522   9.972  14.789   1.999
25563SOL    HW278523   9.915  14.859   1.877
25564SOL     OW78524   4.879  11.714   7.676
25564SOL    HW178525   4.909  11.689   7.589
25564SOL    HW278526   4.960  11.722   7.727
25565SOL     OW78527   6.164  13.880   8.082
25565SOL    HW178528   6.195  13.964   8.115
25565SOL    HW278529   6.217  13.815   8.128
25566SOL     OW78530   3.086   7.542   5.740
25566SOL    HW178531   3.139   7.515   5.816
25566SOL    HW278532   3.130   7.502   5.665
25567SOL     OW78533  14.829   9.975  14.115
25567SOL    HW178534   0.038  10.026  14.120
25567SOL    HW278535  14.790  10.000  14.031
25568SOL     OW78536  10.894   7.891  13.547
25568SOL    HW178537  10.894   7.837  13.626
25568SOL    HW278538  10.984   7.886  13.514
25569SOL     OW78539   9.041  11.260  12.020
25569SOL    HW178540   9.067  11.185  12.073
25569SOL    HW278541   9.001  11.320  12.083
25570SOL     OW78542  13.303   2.506   9.645
25570SOL    HW178543  13.355   2.444   9.695
25570SOL    HW278544  13.359   2.529   9.570
25571SOL     OW78545   6.622   6.311   8.923
25571SOL    HW178546   6.592   6.391   8.966
25571SOL    HW278547   6.613   6.243   8.990
25572SOL     OW78548   7.962  14.421   0.485
25572SOL    HW178549   7.971  14.326   0.495
25572SOL    HW278550   7.871  14.434   0.459
25573SOL     OW78551   3.850   2.399  10.944
25573SOL    HW178552   3.806   2.381  11.027
25573SOL    HW278553   3.787   2.450  10.893
25574SOL     OW78554   5.619   2.378   5.375
25574SOL    HW178555   5.543   2.427   5.406
25574SOL    HW278556   5.646   2.425   5.296
25575SOL     OW78557   8.811  12.165  14.257
25575SOL    HW178558   8.854  12.103  14.316
25575SOL    HW278559   8.846  12.251  14.282
25576SOL     OW78560   7.825  13.278  10.602
25576SOL    HW178561   7.877  13.280  10.683
25576SOL    HW278562   7.844  13.361  10.560
25577SOL     OW78563   6.518   1.703   8.914
25577SOL    HW178564   6.555   1.786   8.943
25577SOL    HW278565   6.426   1.723   8.896
25578SOL     OW78566   7.411   3.672   5.321
25578SOL    HW178567   7.340   3.612   5.342
25578SOL    HW278568   7.451   3.694   5.405
25579SOL     OW78569  12.972   9.003   8.121
25579SOL    HW178570  12.918   8.931   8.091
25579SOL    HW278571  13.030   9.023   8.048
25580SOL     OW78572   9.908   1.448   0.439
25580SOL    HW178573   9.983   1.391   0.425
25580SOL    HW278574   9.859   1.407   0.510
25581SOL     OW78575   2.471   3.110   7.057
25581SOL    HW178576   2.515   3.089   7.139
25581SOL    HW278577   2.532   3.169   7.012
25582SOL     OW78578   7.679  14.260   7.543
25582SOL    HW178579   7.732  14.317   7.599
25582SOL    HW278580   7.589  14.281   7.566
25583SOL     OW78581   8.224   4.841  11.426
25583SOL    HW178582   8.178   4.918  11.391
25583SOL    HW278583   8.283   4.815  11.355
25584SOL     OW78584   8.995   4.478   5.050
25584SOL    HW178585   8.942   4.544   5.005
25584SOL    HW278586   9.076   4.474   4.999
25585SOL     OW78587   8.249   4.252  13.953
25585SOL    HW178588   8.302   4.263  13.873
25585SOL    HW278589   8.186   4.184  13.930
25586SOL     OW78590  13.647   8.136   6.047
25586SOL    HW178591  13.619   8.044   6.048
25586SOL    HW278592  13.693   8.146   5.964
25587SOL     OW78593   8.231   1.006   1.404
25587SOL    HW178594   8.218   1.039   1.315
25587SOL    HW278595   8.302   1.059   1.439
25588SOL     OW78596   4.953   5.441   8.848
25588SOL    HW178597   4.995   5.513   8.802
25588SOL    HW278598   4.982   5.363   8.801
25589SOL     OW78599  13.629   8.733   1.108
25589SOL    HW178600  13.624   8.642   1.079
25589SOL    HW278601  13.538   8.764   1.103
25590SOL     OW78602   0.244  11.142  12.768
25590SOL    HW178603   0.279  11.100  12.689
25590SOL    HW278604   0.319  11.188  12.806
25591SOL     OW78605   4.305  11.067  13.389
25591SOL    HW178606   4.394  11.098  13.406
25591SOL    HW278607   4.254  11.099  13.463
25592SOL     OW78608   8.536  10.449  11.030
25592SOL    HW178609   8.551  10.521  11.090
25592SOL    HW278610   8.624  10.418  11.007
25593SOL     OW78611   5.382   6.085   6.620
25593SOL    HW178612   5.476   6.068   6.618
25593SOL    HW278613   5.363   6.128   6.537
25594SOL     OW78614  14.161   6.328  10.524
25594SOL    HW178615  14.089   6.319  10.461
25594SOL    HW278616  14.239   6.329  10.470
25595SOL     OW78617   2.361  13.710   6.650
25595SOL    HW178618   2.297  13.706   6.720
25595SOL    HW278619   2.365  13.803   6.626
25596SOL     OW78620   6.599   0.032   4.527
25596SOL    HW178621   6.654  14.826   4.529
25596SOL    HW278622   6.597   0.059   4.436
25597SOL     OW78623  10.951   1.409  11.233
25597SOL    HW178624  10.973   1.501  11.252
25597SOL    HW278625  10.881   1.414  11.168
25598SOL     OW78626  12.211   0.586  10.310
25598SOL    HW178627  12.299   0.606  10.279
25598SOL    HW278628  12.157   0.586  10.231
25599SOL     OW78629   7.596   6.667   6.135
25599SOL    HW178630   7.569   6.584   6.095
25599SOL    HW278631   7.519   6.697   6.182
25600SOL     OW78632   1.993  11.603  11.856
25600SOL    HW178633   1.941  11.681  11.833
25600SOL    HW278634   2.074  11.612  11.806
25601SOL     OW78635  12.583   4.142  14.597
25601SOL    HW178636  12.667   4.120  14.639
25601SOL    HW278637  12.567   4.233  14.622
25602SOL     OW78638   1.497   6.207   8.358
25602SOL    HW178639   1.579   6.160   8.375
25602SOL    HW278640   1.486   6.201   8.263
25603SOL     OW78641  13.221  12.212  12.629
25603SOL    HW178642  13.155  12.195  12.562
25603SOL    HW278643  13.295  12.249  12.581
25604SOL     OW78644   9.962  13.971   7.449
25604SOL    HW178645   9.939  14.055   7.489
25604SOL    HW278646  10.024  13.931   7.510
25605SOL     OW78647   0.331  13.903  11.756
25605SOL    HW178648   0.425  13.915  11.764
25605SOL    HW278649   0.298  13.985  11.720
25606SOL     OW78650   2.259   2.434   3.914
25606SOL    HW178651   2.311   2.444   3.993
25606SOL    HW278652   2.254   2.339   3.901
25607SOL     OW78653   2.060  11.659   7.233
25607SOL    HW178654   2.137  11.605   7.250
25607SOL    HW278655   2.028  11.684   7.320
25608SOL     OW78656   2.813   1.637  10.358
25608SOL    HW178657   2.854   1.624  10.272
25608SOL    HW278658   2.884   1.669  10.414
25609SOL     OW78659   7.859   3.101  11.541
25609SOL    HW178660   7.949   3.100  11.575
25609SOL    HW278661   7.845   3.192  11.515
25610SOL     OW78662   3.240   9.041  13.355
25610SOL    HW178663   3.251   9.125  13.309
25610SOL    HW278664   3.328   9.003  13.356
25611SOL     OW78665   2.319   0.629   1.971
25611SOL    HW178666   2.392   0.625   1.909
25611SOL    HW278667   2.277   0.543   1.964
25612SOL     OW78668   3.978  12.367   1.754
25612SOL    HW178669   3.975  12.331   1.843
25612SOL    HW278670   3.907  12.322   1.708
25613SOL     OW78671   3.192  13.159   2.548
25613SOL    HW178672   3.214  13.073   2.582
25613SOL    HW278673   3.205  13.219   2.621
25614SOL     OW78674  14.058   6.943   8.177
25614SOL    HW178675  14.103   7.027   8.164
25614SOL    HW278676  13.967   6.961   8.156
25615SOL     OW78677   4.698   4.402   0.144
25615SOL    HW178678   4.621   4.366   0.187
25615SOL    HW278679   4.706   4.490   0.179
25616SOL     OW78680   3.401   8.945  13.876
25616SOL    HW178681   3.412   8.857  13.839
25616SOL    HW278682   3.308   8.964  13.865
25617SOL     OW78683   8.276  14.354   3.706
25617SOL    HW178684   8.322  14.414   3.766
25617SOL    HW278685   8.184  14.365   3.727
25618SOL     OW78686  13.535  14.435  10.155
25618SOL    HW178687  13.519  14.343  10.132
25618SOL    HW278688  13.472  14.453  10.225
25619SOL     OW78689   2.229   0.767   9.580
25619SOL    HW178690   2.280   0.842   9.552
25619SOL    HW278691   2.143   0.779   9.540
25620SOL     OW78692  13.456   7.099   6.322
25620SOL    HW178693  13.541   7.112   6.366
25620SOL    HW278694  13.454   7.167   6.255
25621SOL     OW78695   9.358   4.478   6.582
25621SOL    HW178696   9.341   4.396   6.630
25621SOL    HW278697   9.271   4.513   6.563
25622SOL     OW78698  10.279   4.267   4.220
25622SOL    HW178699  10.334   4.336   4.258
25622SOL    HW278700  10.296   4.190   4.275
25623SOL     OW78701   6.621   9.558  14.709
25623SOL    HW178702   6.567   9.501  14.654
25623SOL    HW278703   6.699   9.575  14.657
25624SOL     OW78704  13.801  14.564   6.644
25624SOL    HW178705  13.794  14.580   6.550
25624SOL    HW278706  13.770  14.474   6.655
25625SOL     OW78707  14.473   7.343   0.125
25625SOL    HW178708  14.505   7.342   0.034
25625SOL    HW278709  14.457   7.251   0.146
25626SOL     OW78710   7.915  12.945   2.851
25626SOL    HW178711   7.875  13.005   2.914
25626SOL    HW278712   8.003  12.979   2.836
25627SOL     OW78713  11.902  10.847   0.414
25627SOL    HW178714  11.983  10.893   0.389
25627SOL    HW278715  11.921  10.813   0.502
25628SOL     OW78716  14.118  11.453   9.967
25628SOL    HW178717  14.167  11.422   9.891
25628SOL    HW278718  14.185  11.489  10.025
25629SOL     OW78719   9.236   8.835   6.572
25629SOL    HW178720   9.144   8.824   6.596
25629SOL    HW278721   9.272   8.746   6.575
25630SOL     OW78722   8.541   3.160   5.471
25630SOL    HW178723   8.575   3.249   5.470
25630SOL    HW278724   8.449   3.169   5.497
25631SOL     OW78725  13.258   6.021   9.202
25631SOL    HW178726  13.189   5.964   9.168
25631SOL    HW278727  13.218   6.107   9.207
25632SOL     OW78728  13.129  12.301   0.413
25632SOL    HW178729  13.045  12.259   0.433
25632SOL    HW278730  13.184  12.281   0.489
25633SOL     OW78731   8.677   9.358   6.530
25633SOL    HW178732   8.693   9.324   6.442
25633SOL    HW278733   8.582   9.347   6.543
25634SOL     OW78734   9.138  13.284   7.754
25634SOL    HW178735   9.189  13.344   7.699
25634SOL    HW278736   9.050  13.320   7.754
25635SOL     OW78737   6.769   9.729   4.771
25635SOL    HW178738   6.737   9.813   4.738
25635SOL    HW278739   6.817   9.751   4.851
25636SOL     OW78740   3.698  11.476   1.341
25636SOL    HW178741   3.726  11.492   1.251
25636SOL    HW278742   3.771  11.429   1.381
25637SOL     OW78743  13.269  10.158  12.589
25637SOL    HW178744  13.286  10.120  12.503
25637SOL    HW278745  13.245  10.248  12.572
25638SOL     OW78746   0.166   1.105   5.098
25638SOL    HW178747   0.137   1.057   5.020
25638SOL    HW278748   0.196   1.036   5.158
25639SOL     OW78749   5.832   9.712   1.342
25639SOL    HW178750   5.797   9.640   1.290
25639SOL    HW278751   5.761   9.735   1.402
25640SOL     OW78752   5.009   4.763  11.373
25640SOL    HW178753   4.996   4.710  11.452
25640SOL    HW278754   4.944   4.729  11.311
25641SOL     OW78755   9.248   4.619  13.825
25641SOL    HW178756   9.181   4.675  13.862
25641SOL    HW278757   9.228   4.616  13.731
25642SOL     OW78758   7.425   5.991  10.826
25642SOL    HW178759   7.408   6.033  10.910
25642SOL    HW278760   7.352   6.016  10.770
25643SOL     OW78761   2.567   9.691  12.686
25643SOL    HW178762   2.648   9.735  12.659
25643SOL    HW278763   2.498   9.754  12.668
25644SOL     OW78764   7.293   2.641  12.834
25644SOL    HW178765   7.204   2.674  12.848
25644SOL    HW278766   7.301   2.568  12.895
25645SOL     OW78767   1.883   1.417   4.302
25645SOL    HW178768   1.806   1.379   4.345
25645SOL    HW278769   1.944   1.344   4.294
25646SOL     OW78770  11.408   3.697   6.118
25646SOL    HW178771  11.452   3.630   6.065
25646SOL    HW278772  11.338   3.651   6.163
25647SOL     OW78773   5.762  10.651   0.220
25647SOL    HW178774   5.737  10.562   0.245
25647SOL    HW278775   5.692  10.706   0.254
25648SOL     OW78776  14.746  10.679  13.460
25648SOL    HW178777  14.732  10.766  13.425
25648SOL    HW278778  14.825  10.648  13.417
25649SOL     OW78779  13.645   6.817   9.497
25649SOL    HW178780  13.678   6.756   9.431
25649SOL    HW278781  13.717   6.825   9.560
25650SOL     OW78782  10.774  14.368   4.114
25650SOL    HW178783  10.865  14.388   4.135
25650SOL    HW278784  10.759  14.407   4.028
25651SOL     OW78785   4.965   4.944   5.837
25651SOL    HW178786   4.887   4.999   5.843
25651SOL    HW278787   4.997   4.959   5.748
25652SOL     OW78788   8.937   5.701  10.694
25652SOL    HW178789   8.894   5.620  10.667
25652SOL    HW278790   9.030   5.686  10.677
25653SOL     OW78791   9.896  12.624  11.434
25653SOL    HW178792   9.977  12.583  11.463
25653SOL    HW278793   9.919  12.715  11.416
25654SOL     OW78794  12.844   3.304   3.100
25654SOL    HW178795  12.761   3.286   3.055
25654SOL    HW278796  12.869   3.391   3.069
25655SOL     OW78797   0.524   8.267   0.122
25655SOL    HW178798   0.471   8.347   0.125
25655SOL    HW278799   0.462   8.197   0.141
25656SOL     OW78800  11.116  10.143   7.008
25656SOL    HW178801  11.037  10.197   7.019
25656SOL    HW278802  11.167  10.189   6.942
25657SOL     OW78803  10.638  11.097   2.625
25657SOL    HW178804  10.664  11.178   2.580
25657SOL    HW278805  10.656  11.114   2.717
25658SOL     OW78806  11.643   4.505   7.342
25658SOL    HW178807  11.707   4.549   7.286
25658SOL    HW278808  11.564   4.559   7.335
25659SOL     OW78809   0.773  14.101  12.815
25659SOL    HW178810   0.703  14.071  12.756
25659SOL    HW278811   0.728  14.115  12.899
25660SOL     OW78812   1.270   9.249   4.876
25660SOL    HW178813   1.328   9.175   4.857
25660SOL    HW278814   1.243   9.281   4.790
25661SOL     OW78815   8.967   0.491   9.886
25661SOL    HW178816   9.016   0.524   9.961
25661SOL    HW278817   8.881   0.469   9.921
25662SOL     OW78818   7.743   9.864   7.643
25662SOL    HW178819   7.662   9.846   7.691
25662SOL    HW278820   7.715   9.903   7.561
25663SOL     OW78821   4.934   5.303   7.995
25663SOL    HW178822   5.025   5.300   7.967
25663SOL    HW278823   4.911   5.396   7.993
25664SOL     OW78824  10.716   2.563  10.296
25664SOL    HW178825  10.645   2.500  10.285
25664SOL    HW278826  10.743   2.584  10.207
25665SOL     OW78827   2.816  13.006   3.292
25665SOL    HW178828   2.841  13.098   3.279
25665SOL    HW278829   2.765  13.005   3.373
25666SOL     OW78830   5.498   8.448  11.993
25666SOL    HW178831   5.407   8.426  12.014
25666SOL    HW278832   5.518   8.522  12.050
25667SOL     OW78833   0.567   4.899   2.802
25667SOL    HW178834   0.556   4.839   2.875
25667SOL    HW278835   0.651   4.876   2.764
25668SOL     OW78836  13.301  11.450   1.446
25668SOL    HW178837  13.226  11.390   1.444
25668SOL    HW278838  13.262  11.536   1.466
25669SOL     OW78839   9.689   9.248   1.637
25669SOL    HW178840   9.622   9.181   1.628
25669SOL    HW278841   9.689   9.293   1.553
25670SOL     OW78842  10.968   2.648  11.315
25670SOL    HW178843  10.976   2.637  11.409
25670SOL    HW278844  11.058   2.643  11.282
25671SOL     OW78845  13.587  11.451   6.831
25671SOL    HW178846  13.620  11.391   6.764
25671SOL    HW278847  13.517  11.403   6.874
25672SOL     OW78848   9.465  11.100   8.366
25672SOL    HW178849   9.409  11.042   8.417
25672SOL    HW278850   9.408  11.132   8.295
25673SOL     OW78851  13.938   3.833  10.591
25673SOL    HW178852  13.854   3.819  10.547
25673SOL    HW278853  13.914   3.851  10.682
25674SOL     OW78854  12.788  10.946  13.678
25674SOL    HW178855  12.878  10.949  13.647
25674SOL    HW278856  12.795  10.947  13.774
25675SOL     OW78857   5.251   9.079  13.908
25675SOL    HW178858   5.232   9.102  13.817
25675SOL    HW278859   5.322   9.138  13.933
25676SOL     OW78860   1.379  13.046  10.217
25676SOL    HW178861   1.313  13.015  10.154
25676SOL    HW278862   1.363  13.140  10.224
25677SOL     OW78863   6.171   8.145   0.432
25677SOL    HW178864   6.132   8.082   0.493
25677SOL    HW278865   6.172   8.100   0.348
25678SOL     OW78866   1.222  12.542   8.230
25678SOL    HW178867   1.302  12.595   8.229
25678SOL    HW278868   1.185  12.552   8.143
25679SOL     OW78869   6.698  13.544   5.959
25679SOL    HW178870   6.782  13.505   5.983
25679SOL    HW278871   6.662  13.485   5.894
25680SOL     OW78872   1.858  11.953   7.773
25680SOL    HW178873   1.868  11.977   7.866
25680SOL    HW278874   1.913  12.017   7.726
25681SOL     OW78875  12.364   2.327   8.887
25681SOL    HW178876  12.435   2.333   8.951
25681SOL    HW278877  12.367   2.236   8.857
25682SOL     OW78878   8.908  11.264   6.202
25682SOL    HW178879   8.907  11.297   6.292
25682SOL    HW278880   8.820  11.282   6.168
25683SOL     OW78881   9.046   4.333  10.398
25683SOL    HW178882   9.139   4.312  10.398
25683SOL    HW278883   9.031   4.377  10.482
25684SOL     OW78884   2.382   2.411   5.786
25684SOL    HW178885   2.335   2.493   5.770
25684SOL    HW278886   2.440   2.430   5.860
25685SOL     OW78887   1.277   1.699   8.059
25685SOL    HW178888   1.347   1.749   8.103
25685SOL    HW278889   1.197   1.727   8.103
25686SOL     OW78890  10.493   6.769   8.557
25686SOL    HW178891  10.444   6.797   8.634
25686SOL    HW278892  10.585   6.772   8.583
25687SOL     OW78893  13.530   4.469   5.355
25687SOL    HW178894  13.541   4.515   5.439
25687SOL    HW278895  13.456   4.410   5.370
25688SOL     OW78896   4.577   4.082   4.932
25688SOL    HW178897   4.513   4.030   4.883
25688SOL    HW278898   4.524   4.135   4.992
25689SOL     OW78899   0.532  13.818  11.403
25689SOL    HW178900   0.619  13.853  11.380
25689SOL    HW278901   0.549  13.729  11.434
25690SOL     OW78902   1.657   7.264   5.902
25690SOL    HW178903   1.750   7.254   5.923
25690SOL    HW278904   1.623   7.175   5.900
25691SOL     OW78905   6.725   4.964   7.122
25691SOL    HW178906   6.799   4.941   7.178
25691SOL    HW278907   6.671   4.886   7.120
25692SOL     OW78908   8.847   5.409   5.156
25692SOL    HW178909   8.885   5.383   5.073
25692SOL    HW278910   8.778   5.344   5.172
25693SOL     OW78911   5.756  13.028   3.796
25693SOL    HW178912   5.837  13.069   3.828
25693SOL    HW278913   5.779  12.935   3.788
25694SOL     OW78914   5.857   6.458   3.519
25694SOL    HW178915   5.806   6.393   3.470
25694SOL    HW278916   5.791   6.506   3.570
25695SOL     OW78917   9.487  12.626   5.849
25695SOL    HW178918   9.576  12.590   5.842
25695SOL    HW278919   9.468  12.657   5.760
25696SOL     OW78920   3.068   0.958   8.742
25696SOL    HW178921   3.063   0.923   8.831
25696SOL    HW278922   3.091   0.882   8.688
25697SOL     OW78923  13.773  11.558   2.933
25697SOL    HW178924  13.762  11.509   2.852
25697SOL    HW278925  13.722  11.509   2.998
25698SOL     OW78926  10.531   7.660   5.671
25698SOL    HW178927  10.604   7.667   5.733
25698SOL    HW278928  10.507   7.751   5.652
25699SOL     OW78929  10.631   7.433   5.083
25699SOL    HW178930  10.698   7.365   5.090
25699SOL    HW278931  10.671   7.500   5.028
25700SOL     OW78932   5.913  14.786   1.127
25700SOL    HW178933   5.889  14.710   1.074
25700SOL    HW278934   5.953  14.847   1.064
25701SOL     OW78935   0.374   2.272   5.922
25701SOL    HW178936   0.378   2.177   5.932
25701SOL    HW278937   0.460   2.303   5.949
25702SOL     OW78938   5.283   4.344   9.160
25702SOL    HW178939   5.251   4.287   9.091
25702SOL    HW278940   5.239   4.314   9.239
25703SOL     OW78941  13.211   5.796   9.769
25703SOL    HW178942  13.205   5.712   9.724
25703SOL    HW278943  13.126   5.807   9.811
25704SOL     OW78944   1.803  13.768   2.736
25704SOL    HW178945   1.802  13.688   2.684
25704SOL    HW278946   1.851  13.744   2.816
25705SOL     OW78947  12.413   5.502  10.661
25705SOL    HW178948  12.390   5.594  10.655
25705SOL    HW278949  12.508   5.500  10.671
25706SOL     OW78950  11.910   2.743  13.329
25706SOL    HW178951  11.843   2.729  13.396
25706SOL    HW278952  11.898   2.834  13.302
25707SOL     OW78953   4.491   4.138   2.856
25707SOL    HW178954   4.534   4.221   2.837
25707SOL    HW278955   4.407   4.144   2.811
25708SOL     OW78956  14.569   2.258   1.295
25708SOL    HW178957  14.648   2.307   1.273
25708SOL    HW278958  14.557   2.197   1.221
25709SOL     OW78959   8.680  10.383   4.264
25709SOL    HW178960   8.744  10.347   4.203
25709SOL    HW278961   8.601  10.331   4.251
25710SOL     OW78962   1.238   9.713   8.863
25710SOL    HW178963   1.278   9.795   8.893
25710SOL    HW278964   1.197   9.735   8.780
25711SOL     OW78965   3.680  10.687   2.589
25711SOL    HW178966   3.709  10.630   2.660
25711SOL    HW278967   3.742  10.760   2.590
25712SOL     OW78968  14.806   2.580   3.822
25712SOL    HW178969  14.749   2.553   3.894
25712SOL    HW278970  14.753   2.566   3.743
25713SOL     OW78971   9.508  10.927   7.901
25713SOL    HW178972   9.532  10.968   7.984
25713SOL    HW278973   9.592  10.902   7.862
25714SOL     OW78974   3.133  11.537  14.110
25714SOL    HW178975   3.149  11.513  14.019
25714SOL    HW278976   3.201  11.490  14.159
25715SOL     OW78977  10.238   1.468  14.108
25715SOL    HW178978  10.165   1.413  14.077
25715SOL    HW278979  10.197   1.528  14.171
25716SOL     OW78980  11.618   9.284   3.140
25716SOL    HW178981  11.692   9.260   3.195
25716SOL    HW278982  11.567   9.204   3.132
25717SOL     OW78983   9.417   0.735   4.907
25717SOL    HW178984   9.344   0.680   4.936
25717SOL    HW278985   9.463   0.680   4.843
25718SOL     OW78986  13.713  13.819   2.548
25718SOL    HW178987  13.695  13.725   2.557
25718SOL    HW278988  13.751  13.828   2.460
25719SOL     OW78989   5.145   9.423  14.481
25719SOL    HW178990   5.072   9.413  14.542
25719SOL    HW278991   5.107   9.405  14.395
25720SOL     OW78992   1.513  11.797  12.801
25720SOL    HW178993   1.430  11.768  12.763
25720SOL    HW278994   1.519  11.889  12.777
25721SOL     OW78995   0.759   1.411   0.596
25721SOL    HW178996   0.713   1.351   0.538
25721SOL    HW278997   0.754   1.369   0.683
25722SOL     OW78998  10.591  14.652   2.668
25722SOL    HW178999  10.666  14.711   2.670
25722SOL    HW279000  10.540  14.681   2.593
25723SOL     OW79001   3.454  13.380  12.416
25723SOL    HW179002   3.468  13.344  12.329
25723SOL    HW279003   3.389  13.449  12.404
25724SOL     OW79004   6.681  13.064   8.453
25724SOL    HW179005   6.650  12.983   8.412
25724SOL    HW279006   6.684  13.128   8.382
25725SOL     OW79007   0.527   0.948   5.060
25725SOL    HW179008   0.618   0.939   5.088
25725SOL    HW279009   0.478   0.891   5.119
25726SOL     OW79010  13.553  11.805   8.021
25726SOL    HW179011  13.505  11.878   7.982
25726SOL    HW279012  13.498  11.728   8.004
25727SOL     OW79013  12.280  10.854  13.703
25727SOL    HW179014  12.356  10.911  13.701
25727SOL    HW279015  12.259  10.838  13.611
25728SOL     OW79016  12.279  10.325   4.246
25728SOL    HW179017  12.233  10.255   4.292
25728SOL    HW279018  12.356  10.343   4.299
25729SOL     OW79019  12.983   5.997  11.821
25729SOL    HW179020  12.909   6.017  11.877
25729SOL    HW279021  13.038   5.938  11.874
25730SOL     OW79022   9.407   7.023  13.426
25730SOL    HW179023   9.415   7.083  13.501
25730SOL    HW279024   9.335   7.060  13.374
25731SOL     OW79025   0.960   7.074   2.033
25731SOL    HW179026   0.935   6.993   1.987
25731SOL    HW279027   0.954   7.142   1.965
25732SOL     OW79028   3.916   2.609   0.602
25732SOL    HW179029   3.994   2.559   0.580
25732SOL    HW279030   3.930   2.695   0.562
25733SOL     OW79031  12.480   5.166  12.305
25733SOL    HW179032  12.408   5.203  12.356
25733SOL    HW279033  12.550   5.153  12.369
25734SOL     OW79034   4.769   9.270   2.165
25734SOL    HW179035   4.679   9.289   2.191
25734SOL    HW279036   4.761   9.208   2.093
25735SOL     OW79037  12.985   6.621  12.587
25735SOL    HW179038  12.978   6.704  12.633
25735SOL    HW279039  13.050   6.571  12.637
25736SOL     OW79040   0.614   8.779   9.427
25736SOL    HW179041   0.672   8.704   9.414
25736SOL    HW279042   0.624   8.830   9.346
25737SOL     OW79043  12.655  14.006   5.854
25737SOL    HW179044  12.664  14.012   5.759
25737SOL    HW279045  12.736  13.964   5.883
25738SOL     OW79046  14.615   7.195   1.379
25738SOL    HW179047  14.610   7.285   1.347
25738SOL    HW279048  14.627   7.143   1.300
25739SOL     OW79049  11.270   4.533   5.814
25739SOL    HW179050  11.215   4.461   5.844
25739SOL    HW279051  11.296   4.508   5.725
25740SOL     OW79052   9.689   8.906   5.740
25740SOL    HW179053   9.708   8.813   5.750
25740SOL    HW279054   9.773   8.949   5.754
25741SOL     OW79055   6.984  12.717  13.883
25741SOL    HW179056   6.937  12.716  13.799
25741SOL    HW279057   6.933  12.659  13.940
25742SOL     OW79058  10.568   5.044  13.475
25742SOL    HW179059  10.481   5.032  13.437
25742SOL    HW279060  10.628   5.014  13.408
25743SOL     OW79061   7.780   4.030   1.430
25743SOL    HW179062   7.836   3.992   1.362
25743SOL    HW279063   7.841   4.066   1.494
25744SOL     OW79064   9.528   2.390  14.554
25744SOL    HW179065   9.586   2.453  14.512
25744SOL    HW279066   9.445   2.436  14.564
25745SOL     OW79067  14.158  11.161   6.022
25745SOL    HW179068  14.171  11.201   6.108
25745SOL    HW279069  14.064  11.171   6.004
25746SOL     OW79070   6.214   2.798  14.496
25746SOL    HW179071   6.283   2.745  14.456
25746SOL    HW279072   6.206   2.874  14.437
25747SOL     OW79073   7.216   2.127  13.185
25747SOL    HW179074   7.138   2.074  13.203
25747SOL    HW279075   7.181   2.212  13.160
25748SOL     OW79076   4.178   2.842   9.250
25748SOL    HW179077   4.225   2.832   9.168
25748SOL    HW279078   4.184   2.756   9.292
25749SOL     OW79079   3.297   3.807   0.633
25749SOL    HW179080   3.338   3.843   0.554
25749SOL    HW279081   3.209   3.783   0.604
25750SOL     OW79082   1.926   8.885   3.594
25750SOL    HW179083   1.884   8.954   3.543
25750SOL    HW279084   2.012   8.873   3.553
25751SOL     OW79085   9.852   7.643   6.927
25751SOL    HW179086   9.828   7.722   6.975
25751SOL    HW279087   9.912   7.673   6.859
25752SOL     OW79088   9.991  11.107   6.841
25752SOL    HW179089  10.056  11.172   6.815
25752SOL    HW279090   9.913  11.129   6.790
25753SOL     OW79091   4.156   7.232   3.791
25753SOL    HW179092   4.142   7.303   3.728
25753SOL    HW279093   4.140   7.272   3.876
25754SOL     OW79094  11.844  11.108  14.464
25754SOL    HW179095  11.887  11.029  14.496
25754SOL    HW279096  11.904  11.143  14.397
25755SOL     OW79097   0.555  12.326   4.175
25755SOL    HW179098   0.498  12.255   4.203
25755SOL    HW279099   0.495  12.393   4.143
25756SOL     OW79100   3.339  14.702  14.385
25756SOL    HW179101   3.385  14.786  14.390
25756SOL    HW279102   3.246  14.725  14.389
25757SOL     OW79103   0.327  11.130  10.298
25757SOL    HW179104   0.316  11.165  10.387
25757SOL    HW279105   0.408  11.080  10.302
25758SOL     OW79106   5.320  10.911   9.447
25758SOL    HW179107   5.288  10.875   9.529
25758SOL    HW279108   5.330  10.835   9.390
25759SOL     OW79109  12.955  13.466  14.645
25759SOL    HW179110  13.001  13.529  14.589
25759SOL    HW279111  12.989  13.482  14.733
25760SOL     OW79112   6.983   5.232   1.434
25760SOL    HW179113   7.033   5.152   1.450
25760SOL    HW279114   6.930   5.244   1.513
25761SOL     OW79115   1.174  12.322   3.391
25761SOL    HW179116   1.083  12.296   3.380
25761SOL    HW279117   1.214  12.311   3.305
25762SOL     OW79118   4.931   6.532   3.400
25762SOL    HW179119   4.869   6.578   3.456
25762SOL    HW279120   4.949   6.451   3.447
25763SOL     OW79121  10.453   4.176   3.048
25763SOL    HW179122  10.453   4.237   3.122
25763SOL    HW279123  10.531   4.199   2.997
25764SOL     OW79124  11.848   3.137   5.593
25764SOL    HW179125  11.822   3.046   5.580
25764SOL    HW279126  11.770   3.188   5.570
25765SOL     OW79127   5.762  10.376   1.817
25765SOL    HW179128   5.752  10.431   1.740
25765SOL    HW279129   5.718  10.294   1.794
25766SOL     OW79130   5.124   4.680   4.969
25766SOL    HW179131   5.196   4.620   4.949
25766SOL    HW279132   5.046   4.624   4.970
25767SOL     OW79133  11.113   9.828   6.960
25767SOL    HW179134  11.172   9.763   6.923
25767SOL    HW279135  11.159   9.911   6.949
25768SOL     OW79136  10.491  14.666  13.347
25768SOL    HW179137  10.466  14.746  13.301
25768SOL    HW279138  10.469  14.595  13.286
25769SOL     OW79139   4.421  12.821  13.094
25769SOL    HW179140   4.442  12.898  13.042
25769SOL    HW279141   4.405  12.752  13.030
25770SOL     OW79142  13.637   0.315   1.697
25770SOL    HW179143  13.559   0.266   1.723
25770SOL    HW279144  13.685   0.329   1.779
25771SOL     OW79145  13.191  13.081  12.834
25771SOL    HW179146  13.097  13.062  12.828
25771SOL    HW279147  13.233  12.996  12.828
25772SOL     OW79148  14.176  11.566   3.504
25772SOL    HW179149  14.160  11.473   3.522
25772SOL    HW279150  14.106  11.592   3.445
25773SOL     OW79151   4.880   4.614   2.117
25773SOL    HW179152   4.951   4.549   2.118
25773SOL    HW279153   4.811   4.572   2.065
25774SOL     OW79154   4.253  10.838   3.824
25774SOL    HW179155   4.319  10.827   3.892
25774SOL    HW279156   4.216  10.925   3.841
25775SOL     OW79157  14.184   2.287   0.203
25775SOL    HW179158  14.226   2.277   0.289
25775SOL    HW279159  14.252   2.323   0.147
25776SOL     OW79160   2.212  10.096   2.423
25776SOL    HW179161   2.198  10.154   2.348
25776SOL    HW279162   2.222  10.009   2.384
25777SOL     OW79163   5.942   8.724   7.197
25777SOL    HW179164   5.998   8.710   7.121
25777SOL    HW279165   5.933   8.637   7.236
25778SOL     OW79166   9.030   4.657   7.413
25778SOL    HW179167   9.062   4.671   7.503
25778SOL    HW279168   8.951   4.604   7.424
25779SOL     OW79169   7.545   2.109   7.382
25779SOL    HW179170   7.609   2.063   7.436
25779SOL    HW279171   7.509   2.176   7.440
25780SOL     OW79172   4.470   9.367   7.850
25780SOL    HW179173   4.382   9.385   7.881
25780SOL    HW279174   4.458   9.336   7.760
25781SOL     OW79175   9.109   1.915   9.604
25781SOL    HW179176   9.147   2.001   9.620
25781SOL    HW279177   9.060   1.926   9.522
25782SOL     OW79178   7.756  13.247   0.337
25782SOL    HW179179   7.736  13.246   0.431
25782SOL    HW279180   7.852  13.245   0.334
25783SOL     OW79181  11.145   0.247  14.118
25783SOL    HW179182  11.056   0.225  14.146
25783SOL    HW279183  11.194   0.257  14.199
25784SOL     OW79184  14.368   0.927  10.179
25784SOL    HW179185  14.400   0.933  10.269
25784SOL    HW279186  14.407   0.847  10.145
25785SOL     OW79187   4.920   4.935   7.095
25785SOL    HW179188   4.836   4.915   7.137
25785SOL    HW279189   4.943   4.855   7.047
25786SOL     OW79190   5.966  10.281   8.923
25786SOL    HW179191   6.025  10.276   8.997
25786SOL    HW279192   5.964  10.374   8.899
25787SOL     OW79193   1.360   0.087   3.868
25787SOL    HW179194   1.342   0.004   3.824
25787SOL    HW279195   1.351   0.153   3.800
25788SOL     OW79196   0.524  11.579   1.013
25788SOL    HW179197   0.560  11.570   0.925
25788SOL    HW279198   0.494  11.491   1.035
25789SOL     OW79199   3.902  13.453   4.490
25789SOL    HW179200   3.879  13.509   4.564
25789SOL    HW279201   3.819  13.430   4.449
25790SOL     OW79202   8.391   8.308   5.256
25790SOL    HW179203   8.325   8.310   5.325
25790SOL    HW279204   8.341   8.318   5.175
25791SOL     OW79205   9.188   2.383   0.267
25791SOL    HW179206   9.216   2.347   0.351
25791SOL    HW279207   9.094   2.400   0.278
25792SOL     OW79208   2.865   2.788  10.932
25792SOL    HW179209   2.954   2.815  10.909
25792SOL    HW279210   2.832   2.745  10.853
25793SOL     OW79211   7.712   8.242   8.831
25793SOL    HW179212   7.618   8.260   8.822
25793SOL    HW279213   7.716   8.157   8.874
25794SOL     OW79214   9.772   5.199  14.522
25794SOL    HW179215   9.706   5.259  14.556
25794SOL    HW279216   9.833   5.255  14.473
25795SOL     OW79217  14.577   8.204   7.922
25795SOL    HW179218  14.580   8.230   8.014
25795SOL    HW279219  14.592   8.110   7.923
25796SOL     OW79220   9.102   6.666   6.805
25796SOL    HW179221   9.183   6.717   6.804
25796SOL    HW279222   9.033   6.731   6.789
25797SOL     OW79223   1.504   7.321   1.782
25797SOL    HW179224   1.505   7.402   1.833
25797SOL    HW279225   1.531   7.349   1.694
25798SOL     OW79226  11.779  10.986  14.132
25798SOL    HW179227  11.723  11.052  14.173
25798SOL    HW279228  11.718  10.931  14.082
25799SOL     OW79229  12.705   8.259   3.887
25799SOL    HW179230  12.719   8.165   3.883
25799SOL    HW279231  12.703   8.280   3.980
25800SOL     OW79232  14.563   2.473   5.121
25800SOL    HW179233  14.582   2.554   5.168
25800SOL    HW279234  14.467   2.471   5.116
25801SOL     OW79235   6.675   9.028   7.670
25801SOL    HW179236   6.707   8.950   7.623
25801SOL    HW279237   6.602   9.060   7.617
25802SOL     OW79238  14.415   5.275   9.161
25802SOL    HW179239  14.434   5.191   9.119
25802SOL    HW279240  14.355   5.320   9.102
25803SOL     OW79241   6.118  10.610   5.975
25803SOL    HW179242   6.057  10.543   6.005
25803SOL    HW279243   6.148  10.579   5.890
25804SOL     OW79244  11.063   3.445  14.693
25804SOL    HW179245  11.130   3.498  14.736
25804SOL    HW279246  11.110   3.395  14.627
25805SOL     OW79247   8.896  12.872   3.378
25805SOL    HW179248   8.850  12.797   3.416
25805SOL    HW279249   8.854  12.948   3.418
25806SOL     OW79250   9.791  14.712   7.739
25806SOL    HW179251   9.810  14.619   7.753
25806SOL    HW279252   9.859  14.757   7.789
25807SOL     OW79253   1.553   9.226  13.119
25807SOL    HW179254   1.541   9.272  13.036
25807SOL    HW279255   1.503   9.277  13.182
25808SOL     OW79256   7.375   1.753  13.715
25808SOL    HW179257   7.334   1.699  13.783
25808SOL    HW279258   7.350   1.843  13.737
25809SOL     OW79259   2.832   1.283   5.317
25809SOL    HW179260   2.837   1.315   5.407
25809SOL    HW279261   2.866   1.193   5.323
25810SOL     OW79262  12.584  12.331   4.206
25810SOL    HW179263  12.619  12.322   4.117
25810SOL    HW279264  12.642  12.394   4.248
25811SOL     OW79265   8.542  11.944   0.286
25811SOL    HW179266   8.543  11.883   0.359
25811SOL    HW279267   8.451  11.975   0.283
25812SOL     OW79268   3.124   1.507   7.543
25812SOL    HW179269   3.060   1.572   7.569
25812SOL    HW279270   3.161   1.474   7.625
25813SOL     OW79271   3.164   4.642   0.298
25813SOL    HW179272   3.173   4.647   0.203
25813SOL    HW279273   3.249   4.613   0.329
25814SOL     OW79274  13.329  10.636   4.372
25814SOL    HW179275  13.264  10.706   4.372
25814SOL    HW279276  13.299  10.576   4.302
25815SOL     OW79277   3.278   1.036   9.359
25815SOL    HW179278   3.361   1.057   9.315
25815SOL    HW279279   3.212   1.083   9.308
25816SOL     OW79280   9.720   7.101   6.219
25816SOL    HW179281   9.762   7.111   6.134
25816SOL    HW279282   9.649   7.165   6.219
25817SOL     OW79283   7.233   6.168   9.904
25817SOL    HW179284   7.178   6.246   9.901
25817SOL    HW279285   7.240   6.148   9.998
25818SOL     OW79286   7.556  14.074   5.880
25818SOL    HW179287   7.572  14.154   5.929
25818SOL    HW279288   7.603  14.086   5.798
25819SOL     OW79289   0.796   9.576   2.872
25819SOL    HW179290   0.862   9.507   2.878
25819SOL    HW279291   0.725   9.545   2.928
25820SOL     OW79292   9.669   3.270   8.945
25820SOL    HW179293   9.624   3.206   8.890
25820SOL    HW279294   9.636   3.252   9.033
25821SOL     OW79295   5.123   9.231  14.125
25821SOL    HW179296   5.191   9.200  14.065
25821SOL    HW279297   5.084   9.151  14.159
25822SOL     OW79298  10.271   0.339   7.541
25822SOL    HW179299  10.312   0.411   7.494
25822SOL    HW279300  10.204   0.380   7.595
25823SOL     OW79301   9.942   1.981   2.752
25823SOL    HW179302  10.006   2.027   2.807
25823SOL    HW279303   9.968   2.002   2.662
25824SOL     OW79304   9.236  12.120   3.290
25824SOL    HW179305   9.197  12.097   3.374
25824SOL    HW279306   9.165  12.110   3.226
25825SOL     OW79307   6.510   3.888  12.174
25825SOL    HW179308   6.561   3.885  12.255
25825SOL    HW279309   6.514   3.981  12.148
25826SOL     OW79310   1.975   4.659   9.817
25826SOL    HW179311   2.028   4.668   9.737
25826SOL    HW279312   2.035   4.682   9.888
25827SOL     OW79313   8.718   8.410   2.141
25827SOL    HW179314   8.691   8.330   2.186
25827SOL    HW279315   8.656   8.476   2.171
25828SOL     OW79316   2.985   6.435  12.305
25828SOL    HW179317   3.009   6.353  12.347
25828SOL    HW279318   3.064   6.462  12.259
25829SOL     OW79319   5.805  10.542   6.621
25829SOL    HW179320   5.832  10.632   6.602
25829SOL    HW279321   5.790  10.541   6.716
25830SOL     OW79322  10.223  11.692   0.456
25830SOL    HW179323  10.224  11.769   0.399
25830SOL    HW279324  10.150  11.707   0.516
25831SOL     OW79325   9.468   5.469  13.899
25831SOL    HW179326   9.532   5.505  13.961
25831SOL    HW279327   9.407   5.541  13.883
25832SOL     OW79328   4.624  12.913  14.643
25832SOL    HW179329   4.661  12.841  14.694
25832SOL    HW279330   4.539  12.931  14.684
25833SOL     OW79331   4.335   1.767   5.664
25833SOL    HW179332   4.336   1.797   5.573
25833SOL    HW279333   4.287   1.685   5.661
25834SOL     OW79334   4.794   6.855   4.968
25834SOL    HW179335   4.819   6.762   4.974
25834SOL    HW279336   4.859   6.893   4.909
25835SOL     OW79337   7.994  13.242   2.918
25835SOL    HW179338   7.937  13.311   2.886
25835SOL    HW279339   8.006  13.261   3.011
25836SOL     OW79340  13.795   7.197   8.416
25836SOL    HW179341  13.854   7.167   8.347
25836SOL    HW279342  13.708   7.170   8.387
25837SOL     OW79343   6.731   6.962   2.561
25837SOL    HW179344   6.781   7.028   2.611
25837SOL    HW279345   6.657   7.010   2.526
25838SOL     OW79346   5.526  13.307   6.643
25838SOL    HW179347   5.541  13.389   6.690
25838SOL    HW279348   5.521  13.333   6.551
25839SOL     OW79349   6.749   9.205  10.789
25839SOL    HW179350   6.753   9.152  10.709
25839SOL    HW279351   6.713   9.289  10.759
25840SOL     OW79352   0.589  12.576  13.035
25840SOL    HW179353   0.580  12.629  13.114
25840SOL    HW279354   0.630  12.495  13.064
25841SOL     OW79355  13.496   1.661   3.231
25841SOL    HW179356  13.505   1.726   3.301
25841SOL    HW279357  13.402   1.644   3.225
25842SOL     OW79358  10.907  14.615   8.706
25842SOL    HW179359  10.892  14.590   8.798
25842SOL    HW279360  10.998  14.642   8.703
25843SOL     OW79361   6.465  11.669  14.461
25843SOL    HW179362   6.470  11.578  14.491
25843SOL    HW279363   6.439  11.663  14.369
25844SOL     OW79364   2.046   2.670   5.781
25844SOL    HW179365   1.957   2.634   5.789
25844SOL    HW279366   2.042   2.753   5.827
25845SOL     OW79367   6.958   5.777   9.939
25845SOL    HW179368   6.929   5.868   9.936
25845SOL    HW279369   7.050   5.779   9.914
25846SOL     OW79370   1.905  13.069   5.917
25846SOL    HW179371   1.828  13.067   5.860
25846SOL    HW279372   1.873  13.105   6.000
25847SOL     OW79373   4.371   3.614  11.672
25847SOL    HW179374   4.292   3.604  11.725
25847SOL    HW279375   4.397   3.705  11.686
25848SOL     OW79376   8.844   6.198   9.670
25848SOL    HW179377   8.803   6.157   9.746
25848SOL    HW279378   8.937   6.204   9.694
25849SOL     OW79379  13.829   6.412   7.154
25849SOL    HW179380  13.802   6.411   7.062
25849SOL    HW279381  13.776   6.343   7.195
25850SOL     OW79382   4.275   1.100  14.235
25850SOL    HW179383   4.198   1.151  14.208
25850SOL    HW279384   4.319   1.077  14.153
25851SOL     OW79385   4.293   8.727   6.273
25851SOL    HW179386   4.282   8.745   6.367
25851SOL    HW279387   4.376   8.681   6.268
25852SOL     OW79388   6.667  10.427   7.217
25852SOL    HW179389   6.708  10.510   7.193
25852SOL    HW279390   6.675  10.373   7.138
25853SOL     OW79391   6.648   6.017   8.783
25853SOL    HW179392   6.604   6.077   8.722
25853SOL    HW279393   6.585   5.947   8.797
25854SOL     OW79394   2.041   5.622  10.409
25854SOL    HW179395   1.949   5.597  10.414
25854SOL    HW279396   2.082   5.554  10.356
25855SOL     OW79397   2.591   3.949   6.254
25855SOL    HW179398   2.511   3.978   6.297
25855SOL    HW279399   2.613   3.866   6.295
25856SOL     OW79400   2.178   0.151   6.396
25856SOL    HW179401   2.119   0.213   6.438
25856SOL    HW279402   2.133   0.125   6.316
25857SOL     OW79403  10.753   0.866   0.901
25857SOL    HW179404  10.739   0.796   0.964
25857SOL    HW279405  10.665   0.887   0.869
25858SOL     OW79406   4.833   6.069   2.831
25858SOL    HW179407   4.787   6.153   2.818
25858SOL    HW279408   4.879   6.080   2.914
25859SOL     OW79409   2.836   5.941  13.002
25859SOL    HW179410   2.833   6.020  13.057
25859SOL    HW279411   2.929   5.927  12.986
25860SOL     OW79412   6.539  11.356  11.624
25860SOL    HW179413   6.620  11.316  11.656
25860SOL    HW279414   6.568  11.428  11.568
25861SOL     OW79415   9.280   6.695   7.338
25861SOL    HW179416   9.208   6.738   7.291
25861SOL    HW279417   9.347   6.763   7.347
25862SOL     OW79418   8.971   7.267   0.590
25862SOL    HW179419   8.986   7.236   0.679
25862SOL    HW279420   9.024   7.347   0.583
25863SOL     OW79421   5.483   8.336  10.341
25863SOL    HW179422   5.428   8.280  10.396
25863SOL    HW279423   5.428   8.360  10.267
25864SOL     OW79424   8.115  13.759   8.146
25864SOL    HW179425   8.198  13.720   8.170
25864SOL    HW279426   8.138  13.844   8.109
25865SOL     OW79427   5.094   7.080   3.304
25865SOL    HW179428   5.011   7.042   3.334
25865SOL    HW279429   5.144   7.005   3.272
25866SOL     OW79430   1.099  11.140  10.756
25866SOL    HW179431   1.031  11.205  10.736
25866SOL    HW279432   1.181  11.182  10.728
25867SOL     OW79433   4.417   6.777   0.178
25867SOL    HW179434   4.325   6.753   0.175
25867SOL    HW279435   4.464   6.694   0.169
25868SOL     OW79436  13.144  11.268   9.586
25868SOL    HW179437  13.166  11.331   9.517
25868SOL    HW279438  13.057  11.235   9.562
25869SOL     OW79439   7.610  13.501   4.595
25869SOL    HW179440   7.555  13.579   4.600
25869SOL    HW279441   7.683  13.526   4.538
25870SOL     OW79442  13.247  10.455   6.668
25870SOL    HW179443  13.327  10.487   6.625
25870SOL    HW279444  13.177  10.475   6.606
25871SOL     OW79445   7.844  12.475  11.660
25871SOL    HW179446   7.760  12.518  11.676
25871SOL    HW279447   7.878  12.455  11.747
25872SOL     OW79448   6.614   4.754   9.025
25872SOL    HW179449   6.525   4.725   9.046
25872SOL    HW279450   6.669   4.709   9.089
25873SOL     OW79451   5.867  13.646   9.670
25873SOL    HW179452   5.884  13.735   9.702
25873SOL    HW279453   5.808  13.608   9.734
25874SOL     OW79454   0.928  10.645   2.310
25874SOL    HW179455   0.875  10.580   2.355
25874SOL    HW279456   0.918  10.725   2.361
25875SOL     OW79457   9.033   8.279   3.832
25875SOL    HW179458   9.045   8.336   3.908
25875SOL    HW279459   9.003   8.196   3.868
25876SOL     OW79460   2.401   3.775   9.562
25876SOL    HW179461   2.454   3.718   9.508
25876SOL    HW279462   2.325   3.722   9.586
25877SOL     OW79463   6.356   4.158   7.288
25877SOL    HW179464   6.380   4.140   7.379
25877SOL    HW279465   6.273   4.112   7.275
25878SOL     OW79466   5.107   4.281  14.382
25878SOL    HW179467   5.037   4.236  14.429
25878SOL    HW279468   5.071   4.367  14.361
25879SOL     OW79469   5.543   7.635   2.635
25879SOL    HW179470   5.586   7.717   2.661
25879SOL    HW279471   5.519   7.594   2.718
25880SOL     OW79472   9.844  11.060   5.952
25880SOL    HW179473   9.751  11.078   5.942
25880SOL    HW279474   9.866  11.096   6.038
25881SOL     OW79475  11.413  11.282  14.751
25881SOL    HW179476  11.399  11.369  14.715
25881SOL    HW279477  11.477  11.241  14.693
25882SOL     OW79478   0.479  13.877  10.247
25882SOL    HW179479   0.442  13.900  10.332
25882SOL    HW279480   0.557  13.825  10.268
25883SOL     OW79481   6.365   8.484  13.253
25883SOL    HW179482   6.383   8.518  13.166
25883SOL    HW279483   6.451   8.484  13.296
25884SOL     OW79484   9.013   9.929   9.289
25884SOL    HW179485   9.109   9.936   9.283
25884SOL    HW279486   8.990   9.868   9.219
25885SOL     OW79487  12.807   6.469   9.921
25885SOL    HW179488  12.778   6.423   9.842
25885SOL    HW279489  12.901   6.483   9.908
25886SOL     OW79490  10.584  10.162  13.954
25886SOL    HW179491  10.525  10.144  14.027
25886SOL    HW279492  10.528  10.204  13.889
25887SOL     OW79493   5.126   1.558  13.234
25887SOL    HW179494   5.166   1.618  13.171
25887SOL    HW279495   5.199   1.523  13.284
25888SOL     OW79496   2.449   8.725   0.265
25888SOL    HW179497   2.538   8.691   0.255
25888SOL    HW279498   2.453   8.780   0.344
25889SOL     OW79499   7.385  10.739   6.765
25889SOL    HW179500   7.402  10.744   6.671
25889SOL    HW279501   7.402  10.647   6.787
25890SOL     OW79502   5.634   7.112   1.753
25890SOL    HW179503   5.666   7.192   1.794
25890SOL    HW279504   5.648   7.044   1.819
25891SOL     OW79505   5.002  10.601  11.388
25891SOL    HW179506   4.930  10.651  11.427
25891SOL    HW279507   5.013  10.525  11.446
25892SOL     OW79508   3.962   3.584   7.274
25892SOL    HW179509   4.010   3.567   7.355
25892SOL    HW279510   4.000   3.665   7.240
25893SOL     OW79511  10.802   0.742   4.539
25893SOL    HW179512  10.721   0.785   4.511
25893SOL    HW279513  10.841   0.709   4.458
25894SOL     OW79514  11.881   0.512   0.871
25894SOL    HW179515  11.786   0.507   0.859
25894SOL    HW279516  11.894   0.574   0.942
25895SOL     OW79517   3.330   9.867   9.770
25895SOL    HW179518   3.356   9.794   9.826
25895SOL    HW279519   3.359   9.842   9.683
25896SOL     OW79520   9.283  11.969   1.836
25896SOL    HW179521   9.283  11.902   1.768
25896SOL    HW279522   9.374  11.996   1.845
25897SOL     OW79523  11.467   3.952  12.148
25897SOL    HW179524  11.447   3.872  12.196
25897SOL    HW279525  11.431   3.938  12.060
25898SOL     OW79526   4.054   1.658  11.092
25898SOL    HW179527   4.037   1.752  11.087
25898SOL    HW279528   4.149   1.650  11.078
25899SOL     OW79529   9.620   6.604   5.720
25899SOL    HW179530   9.587   6.624   5.808
25899SOL    HW279531   9.549   6.555   5.678
25900SOL     OW79532   1.392  10.261   3.280
25900SOL    HW179533   1.425  10.172   3.266
25900SOL    HW279534   1.467  10.309   3.315
25901SOL     OW79535   9.986   0.721  14.490
25901SOL    HW179536   9.982   0.700  14.397
25901SOL    HW279537   9.895   0.712  14.521
25902SOL     OW79538   8.337   6.279  11.999
25902SOL    HW179539   8.365   6.206  12.054
25902SOL    HW279540   8.413   6.299  11.945
25903SOL     OW79541   0.325  10.136  14.520
25903SOL    HW179542   0.353  10.046  14.532
25903SOL    HW279543   0.402  10.189  14.541
25904SOL     OW79544  10.211   7.953   5.459
25904SOL    HW179545  10.277   7.999   5.406
25904SOL    HW279546  10.260   7.910   5.528
25905SOL     OW79547   6.699  14.218   6.507
25905SOL    HW179548   6.762  14.287   6.485
25905SOL    HW279549   6.665  14.188   6.423
25906SOL     OW79550   3.076  10.611   5.924
25906SOL    HW179551   3.079  10.684   5.987
25906SOL    HW279552   3.015  10.640   5.857
25907SOL     OW79553  10.151   4.463  11.650
25907SOL    HW179554  10.149   4.424  11.737
25907SOL    HW279555  10.079   4.526  11.650
25908SOL     OW79556   5.754   9.307  11.371
25908SOL    HW179557   5.833   9.254  11.367
25908SOL    HW279558   5.682   9.245  11.360
25909SOL     OW79559  12.936   0.207   9.843
25909SOL    HW179560  12.992   0.129   9.852
25909SOL    HW279561  12.901   0.222   9.931
25910SOL     OW79562  12.990   8.048   6.275
25910SOL    HW179563  12.902   8.030   6.243
25910SOL    HW279564  13.004   8.141   6.256
25911SOL     OW79565   7.660   0.905   2.873
25911SOL    HW179566   7.711   0.851   2.934
25911SOL    HW279567   7.614   0.842   2.818
25912SOL     OW79568  14.569   2.111   1.716
25912SOL    HW179569  14.564   2.201   1.749
25912SOL    HW279570  14.618   2.118   1.635
25913SOL     OW79571   6.188   4.874   1.874
25913SOL    HW179572   6.275   4.908   1.853
25913SOL    HW279573   6.133   4.901   1.800
25914SOL     OW79574   8.055   4.304   4.882
25914SOL    HW179575   8.062   4.391   4.920
25914SOL    HW279576   8.113   4.250   4.936
25915SOL     OW79577  11.384  12.040   9.283
25915SOL    HW179578  11.425  12.122   9.309
25915SOL    HW279579  11.426  12.017   9.200
25916SOL     OW79580  11.878  11.080   1.889
25916SOL    HW179581  11.813  11.070   1.959
25916SOL    HW279582  11.940  11.009   1.903
25917SOL     OW79583  11.188   8.384   4.502
25917SOL    HW179584  11.161   8.453   4.562
25917SOL    HW279585  11.115   8.373   4.442
25918SOL     OW79586   3.914   0.003   6.827
25918SOL    HW179587   3.958  14.830   6.898
25918SOL    HW279588   3.976  14.870   6.754
25919SOL     OW79589   2.178   1.767   9.454
25919SOL    HW179590   2.235   1.843   9.443
25919SOL    HW279591   2.172   1.728   9.367
25920SOL     OW79592  10.176   7.249   1.747
25920SOL    HW179593  10.187   7.267   1.841
25920SOL    HW279594  10.172   7.335   1.706
25921SOL     OW79595  14.558  14.195   6.535
25921SOL    HW179596  14.486  14.185   6.473
25921SOL    HW279597  14.533  14.269   6.590
25922SOL     OW79598   8.975  13.429   3.908
25922SOL    HW179599   9.045  13.375   3.871
25922SOL    HW279600   9.005  13.449   3.997
25923SOL     OW79601   5.917   2.792  11.360
25923SOL    HW179602   5.902   2.697  11.355
25923SOL    HW279603   5.929   2.810  11.453
25924SOL     OW79604   8.428   1.583  10.915
25924SOL    HW179605   8.502   1.643  10.906
25924SOL    HW279606   8.401   1.565  10.825
25925SOL     OW79607   2.923  12.944   0.891
25925SOL    HW179608   2.925  12.956   0.986
25925SOL    HW279609   2.845  12.891   0.875
25926SOL     OW79610  13.519   2.234   7.662
25926SOL    HW179611  13.523   2.268   7.572
25926SOL    HW279612  13.607   2.246   7.697
25927SOL     OW79613   9.138   0.903   0.139
25927SOL    HW179614   9.173   0.913   0.050
25927SOL    HW279615   9.174   0.977   0.188
25928SOL     OW79616  12.269  12.371   6.198
25928SOL    HW179617  12.267  12.341   6.107
25928SOL    HW279618  12.240  12.462   6.195
25929SOL     OW79619  11.252  14.870   5.915
25929SOL    HW179620  11.315   0.005   5.843
25929SOL    HW279621  11.199   0.077   5.908
25930SOL     OW79622   3.454   9.794   0.274
25930SOL    HW179623   3.428   9.789   0.182
25930SOL    HW279624   3.503   9.713   0.289
25931SOL     OW79625   1.881  12.893   2.664
25931SOL    HW179626   1.855  12.801   2.653
25931SOL    HW279627   1.859  12.914   2.755
25932SOL     OW79628  12.187  14.287   7.547
25932SOL    HW179629  12.093  14.302   7.539
25932SOL    HW279630  12.223  14.311   7.462
25933SOL     OW79631   3.572   7.637   9.927
25933SOL    HW179632   3.648   7.579   9.920
25933SOL    HW279633   3.497   7.581   9.909
25934SOL     OW79634   1.572   5.960   1.558
25934SOL    HW179635   1.580   5.949   1.653
25934SOL    HW279636   1.574   6.055   1.544
25935SOL     OW79637   6.680   0.383   3.298
25935SOL    HW179638   6.776   0.388   3.299
25935SOL    HW279639   6.660   0.304   3.350
25936SOL     OW79640   6.221   8.006   0.202
25936SOL    HW179641   6.132   8.029   0.177
25936SOL    HW279642   6.259   7.967   0.124
25937SOL     OW79643   1.871   1.401   1.632
25937SOL    HW179644   1.942   1.458   1.661
25937SOL    HW279645   1.905   1.312   1.644
25938SOL     OW79646   5.543  13.312  14.441
25938SOL    HW179647   5.514  13.336  14.353
25938SOL    HW279648   5.621  13.365  14.456
25939SOL     OW79649   9.976   2.586   5.979
25939SOL    HW179650   9.935   2.505   5.950
25939SOL    HW279651  10.070   2.570   5.968
25940SOL     OW79652   6.742  11.105  12.235
25940SOL    HW179653   6.812  11.167  12.253
25940SOL    HW279654   6.662  11.153  12.256
25941SOL     OW79655  13.467  14.683  11.817
25941SOL    HW179656  13.549  14.641  11.793
25941SOL    HW279657  13.452  14.748  11.748
25942SOL     OW79658   3.264   7.896  13.130
25942SOL    HW179659   3.178   7.910  13.170
25942SOL    HW279660   3.256   7.811  13.086
25943SOL     OW79661   1.139  13.892   5.654
25943SOL    HW179662   1.195  13.819   5.626
25943SOL    HW279663   1.139  13.887   5.750
25944SOL     OW79664   8.065   7.089   5.039
25944SOL    HW179665   8.067   7.130   5.125
25944SOL    HW279666   8.053   7.162   4.978
25945SOL     OW79667   9.027   4.530  10.056
25945SOL    HW179668   8.960   4.584  10.014
25945SOL    HW279669   8.984   4.494  10.134
25946SOL     OW79670  14.101   2.619  10.710
25946SOL    HW179671  14.112   2.568  10.629
25946SOL    HW279672  14.091   2.709  10.680
25947SOL     OW79673   8.335   9.937   3.797
25947SOL    HW179674   8.400   9.992   3.754
25947SOL    HW279675   8.369   9.848   3.786
25948SOL     OW79676   0.113  13.519   8.966
25948SOL    HW179677   0.036  13.467   8.988
25948SOL    HW279678   0.155  13.536   9.050
25949SOL     OW79679   5.411  12.319   0.877
25949SOL    HW179680   5.469  12.267   0.932
25949SOL    HW279681   5.393  12.398   0.929
25950SOL     OW79682   7.656  12.304   9.000
25950SOL    HW179683   7.574  12.339   8.965
25950SOL    HW279684   7.677  12.230   8.943
25951SOL     OW79685  11.182  14.386  11.406
25951SOL    HW179686  11.233  14.387  11.487
25951SOL    HW279687  11.217  14.459  11.355
25952SOL     OW79688   9.873  13.012   0.204
25952SOL    HW179689   9.920  12.983   0.282
25952SOL    HW279690   9.928  13.079   0.165
25953SOL     OW79691  14.754  10.189  11.153
25953SOL    HW179692  14.813  10.152  11.219
25953SOL    HW279693  14.780  10.280  11.146
25954SOL     OW79694   7.545   1.187   5.185
25954SOL    HW179695   7.462   1.175   5.139
25954SOL    HW279696   7.578   1.099   5.201
25955SOL     OW79697  12.873   4.044   9.838
25955SOL    HW179698  12.941   4.111   9.843
25955SOL    HW279699  12.877   3.999   9.922
25956SOL     OW79700  11.323  13.181   2.596
25956SOL    HW179701  11.347  13.089   2.610
25956SOL    HW279702  11.312  13.189   2.501
25957SOL     OW79703   7.633   7.385   2.956
25957SOL    HW179704   7.661   7.448   3.023
25957SOL    HW279705   7.646   7.430   2.873
25958SOL     OW79706  14.195   3.451   5.621
25958SOL    HW179707  14.251   3.513   5.666
25958SOL    HW279708  14.150   3.403   5.690
25959SOL     OW79709  12.683   0.543  11.402
25959SOL    HW179710  12.708   0.588  11.322
25959SOL    HW279711  12.588   0.552  11.407
25960SOL     OW79712   4.674   2.296   8.738
25960SOL    HW179713   4.699   2.364   8.676
25960SOL    HW279714   4.755   2.247   8.754
25961SOL     OW79715   8.198   2.791  12.203
25961SOL    HW179716   8.124   2.759  12.151
25961SOL    HW279717   8.188   2.886  12.202
25962SOL     OW79718   9.276  11.431   7.879
25962SOL    HW179719   9.364  11.460   7.903
25962SOL    HW279720   9.291  11.356   7.821
25963SOL     OW79721   4.694   9.025   0.779
25963SOL    HW179722   4.768   8.965   0.768
25963SOL    HW279723   4.668   9.047   0.689
25964SOL     OW79724  11.367  13.878   2.854
25964SOL    HW179725  11.458  13.848   2.864
25964SOL    HW279726  11.314  13.802   2.874
25965SOL     OW79727   0.992   0.902  13.259
25965SOL    HW179728   1.011   0.995  13.273
25965SOL    HW279729   0.897   0.896  13.269
25966SOL     OW79730  13.744  11.554   7.787
25966SOL    HW179731  13.766  11.558   7.881
25966SOL    HW279732  13.666  11.609   7.779
25967SOL     OW79733  10.860   4.290   4.604
25967SOL    HW179734  10.871   4.311   4.697
25967SOL    HW279735  10.847   4.375   4.562
25968SOL     OW79736  13.171   7.989   5.890
25968SOL    HW179737  13.122   8.065   5.921
25968SOL    HW279738  13.210   7.951   5.969
25969SOL     OW79739   7.166   9.949   5.010
25969SOL    HW179740   7.142   9.857   5.005
25969SOL    HW279741   7.107   9.986   5.076
25970SOL     OW79742   3.120  12.137   9.276
25970SOL    HW179743   3.213  12.127   9.298
25970SOL    HW279744   3.075  12.071   9.329
25971SOL     OW79745  14.549   5.078  14.727
25971SOL    HW179746  14.504   5.128  14.795
25971SOL    HW279747  14.479   5.045  14.671
25972SOL     OW79748   8.535   0.594   5.932
25972SOL    HW179749   8.622   0.559   5.951
25972SOL    HW279750   8.533   0.602   5.837
25973SOL     OW79751   8.260   1.444   6.216
25973SOL    HW179752   8.348   1.460   6.249
25973SOL    HW279753   8.270   1.434   6.122
25974SOL     OW79754   4.348   8.185   8.005
25974SOL    HW179755   4.428   8.157   8.050
25974SOL    HW279756   4.308   8.248   8.065
25975SOL     OW79757   2.539   5.395   2.031
25975SOL    HW179758   2.517   5.433   2.117
25975SOL    HW279759   2.468   5.424   1.974
25976SOL     OW79760   4.397  13.822   9.347
25976SOL    HW179761   4.476  13.806   9.295
25976SOL    HW279762   4.427  13.820   9.438
25977SOL     OW79763   1.104   5.612   0.133
25977SOL    HW179764   1.158   5.690   0.126
25977SOL    HW279765   1.029   5.630   0.076
25978SOL     OW79766  12.509   7.999   0.589
25978SOL    HW179767  12.590   8.044   0.612
25978SOL    HW279768  12.480   8.040   0.508
25979SOL     OW79769   8.047   8.685   5.856
25979SOL    HW179770   7.957   8.672   5.826
25979SOL    HW279771   8.086   8.743   5.790
25980SOL     OW79772   8.081   9.109   6.884
25980SOL    HW179773   8.155   9.167   6.905
25980SOL    HW279774   8.005   9.154   6.921
25981SOL     OW79775  10.590  13.729   4.052
25981SOL    HW179776  10.664  13.709   3.995
25981SOL    HW279777  10.519  13.674   4.020
25982SOL     OW79778   4.886   4.964   7.525
25982SOL    HW179779   4.799   4.962   7.566
25982SOL    HW279780   4.868   4.959   7.431
25983SOL     OW79781   8.085   2.371   2.271
25983SOL    HW179782   7.997   2.336   2.255
25983SOL    HW279783   8.091   2.378   2.367
25984SOL     OW79784  14.545   7.640   0.480
25984SOL    HW179785  14.572   7.732   0.482
25984SOL    HW279786  14.608   7.598   0.421
25985SOL     OW79787   8.395   3.758   9.812
25985SOL    HW179788   8.470   3.764   9.871
25985SOL    HW279789   8.421   3.694   9.746
25986SOL     OW79790  10.172  10.897   7.887
25986SOL    HW179791  10.213  10.925   7.969
25986SOL    HW279792  10.152  10.804   7.901
25987SOL     OW79793   2.855   1.958  14.597
25987SOL    HW179794   2.878   1.953  14.690
25987SOL    HW279795   2.776   1.904  14.589
25988SOL     OW79796   0.391   4.099   7.130
25988SOL    HW179797   0.327   4.071   7.065
25988SOL    HW279798   0.458   4.030   7.128
25989SOL     OW79799   5.770   6.684  10.801
25989SOL    HW179800   5.826   6.607  10.813
25989SOL    HW279801   5.832   6.756  10.785
25990SOL     OW79802   4.963  10.070  14.540
25990SOL    HW179803   4.983  10.010  14.613
25990SOL    HW279804   4.969  10.157  14.579
25991SOL     OW79805  10.930   6.341   2.001
25991SOL    HW179806  10.968   6.259   1.969
25991SOL    HW279807  10.885   6.317   2.082
25992SOL     OW79808   1.670  11.447   6.830
25992SOL    HW179809   1.628  11.509   6.889
25992SOL    HW279810   1.641  11.475   6.743
25993SOL     OW79811   2.433   1.729  10.063
25993SOL    HW179812   2.467   1.805  10.111
25993SOL    HW279813   2.339   1.729  10.081
25994SOL     OW79814  14.594   3.746   9.587
25994SOL    HW179815  14.658   3.746   9.658
25994SOL    HW279816  14.647   3.750   9.507
25995SOL     OW79817   9.201  10.181   3.954
25995SOL    HW179818   9.232  10.230   4.030
25995SOL    HW279819   9.164  10.248   3.896
25996SOL     OW79820   1.491   6.961   4.065
25996SOL    HW179821   1.446   7.029   4.115
25996SOL    HW279822   1.502   6.889   4.128
25997SOL     OW79823  13.249   6.779   4.112
25997SOL    HW179824  13.268   6.861   4.066
25997SOL    HW279825  13.164   6.796   4.154
25998SOL     OW79826   4.553   4.484  12.966
25998SOL    HW179827   4.607   4.407  12.947
25998SOL    HW279828   4.558   4.494  13.061
25999SOL     OW79829   8.912   1.973   2.786
25999SOL    HW179830   8.948   1.945   2.870
25999SOL    HW279831   8.847   1.906   2.764
26000SOL     OW79832   9.239   6.273  10.838
26000SOL    HW179833   9.263   6.286  10.930
26000SOL    HW279834   9.160   6.326  10.827
26001SOL     OW79835   2.142  13.752   7.172
26001SOL    HW179836   2.056  13.726   7.204
26001SOL    HW279837   2.202  13.732   7.245
26002SOL     OW79838   8.308   0.111   4.358
26002SOL    HW179839   8.247   0.176   4.393
26002SOL    HW279840   8.298   0.035   4.415
26003SOL     OW79841  12.575   8.627   3.951
26003SOL    HW179842  12.636   8.604   3.881
26003SOL    HW279843  12.616   8.593   4.030
26004SOL     OW79844   2.371  10.472  12.083
26004SOL    HW179845   2.401  10.522  12.160
26004SOL    HW279846   2.417  10.388  12.089
26005SOL     OW79847   9.487   5.409   3.269
26005SOL    HW179848   9.580   5.429   3.268
26005SOL    HW279849   9.452   5.452   3.191
26006SOL     OW79850  11.485   1.712  13.228
26006SOL    HW179851  11.446   1.629  13.201
26006SOL    HW279852  11.463   1.773  13.157
26007SOL     OW79853   1.900  12.520   5.725
26007SOL    HW179854   1.814  12.479   5.718
26007SOL    HW279855   1.889  12.588   5.791
26008SOL     OW79856   1.118   0.168   1.880
26008SOL    HW179857   1.058   0.148   1.952
26008SOL    HW279858   1.061   0.193   1.808
26009SOL     OW79859   5.174   8.527   7.039
26009SOL    HW179860   5.120   8.451   7.017
26009SOL    HW279861   5.261   8.504   7.009
26010SOL     OW79862   9.970   6.346   1.642
26010SOL    HW179863  10.019   6.264   1.646
26010SOL    HW279864   9.941   6.353   1.551
26011SOL     OW79865   3.289   6.558  12.468
26011SOL    HW179866   3.343   6.565  12.389
26011SOL    HW279867   3.227   6.630  12.461
26012SOL     OW79868  14.091  12.005   5.361
26012SOL    HW179869  14.005  12.048   5.359
26012SOL    HW279870  14.106  11.987   5.453
26013SOL     OW79871   5.551  11.741  12.593
26013SOL    HW179872   5.591  11.662  12.558
26013SOL    HW279873   5.572  11.740  12.686
26014SOL     OW79874   3.107   0.819   7.253
26014SOL    HW179875   3.191   0.858   7.227
26014SOL    HW279876   3.105   0.827   7.348
26015SOL     OW79877   2.852   7.840  11.291
26015SOL    HW179878   2.876   7.789  11.368
26015SOL    HW279879   2.802   7.779  11.237
26016SOL     OW79880   7.486  11.015   8.822
26016SOL    HW179881   7.436  10.934   8.834
26016SOL    HW279882   7.557  11.008   8.886
26017SOL     OW79883   6.747   4.327   2.100
26017SOL    HW179884   6.811   4.343   2.030
26017SOL    HW279885   6.736   4.232   2.102
26018SOL     OW79886   2.969   1.316   3.008
26018SOL    HW179887   2.991   1.227   2.981
26018SOL    HW279888   2.900   1.305   3.073
26019SOL     OW79889  10.568   6.130   1.432
26019SOL    HW179890  10.589   6.072   1.505
26019SOL    HW279891  10.540   6.212   1.474
26020SOL     OW79892  10.267  12.848   6.560
26020SOL    HW179893  10.241  12.913   6.626
26020SOL    HW279894  10.336  12.797   6.603
26021SOL     OW79895  12.396   1.258   4.242
26021SOL    HW179896  12.474   1.203   4.240
26021SOL    HW279897  12.331   1.206   4.290
26022SOL     OW79898  13.814   1.073   6.599
26022SOL    HW179899  13.766   1.063   6.680
26022SOL    HW279900  13.760   1.030   6.533
26023SOL     OW79901   0.423  14.812   7.692
26023SOL    HW179902   0.454  14.834   7.780
26023SOL    HW279903   0.406   0.024   7.650
26024SOL     OW79904  12.890   5.836   9.342
26024SOL    HW179905  12.940   5.863   9.419
26024SOL    HW279906  12.956   5.806   9.280
26025SOL     OW79907  11.555   2.129   1.739
26025SOL    HW179908  11.493   2.136   1.812
26025SOL    HW279909  11.598   2.044   1.752
26026SOL     OW79910  12.915  13.629  13.515
26026SOL    HW179911  12.936  13.535  13.511
26026SOL    HW279912  12.847  13.641  13.448
26027SOL     OW79913   2.650  12.074   9.031
26027SOL    HW179914   2.698  12.146   8.991
26027SOL    HW279915   2.717  12.018   9.070
26028SOL     OW79916   3.955   5.068   7.155
26028SOL    HW179917   3.992   5.139   7.102
26028SOL    HW279918   4.022   5.000   7.156
26029SOL     OW79919   3.310   4.936   5.847
26029SOL    HW179920   3.402   4.919   5.825
26029SOL    HW279921   3.280   4.993   5.776
26030SOL     OW79922   9.380  14.301   0.501
26030SOL    HW179923   9.468  14.326   0.473
26030SOL    HW279924   9.366  14.348   0.583
26031SOL     OW79925  12.929   1.271   5.270
26031SOL    HW179926  12.897   1.361   5.268
26031SOL    HW279927  12.970   1.258   5.185
26032SOL     OW79928   0.184   6.589   1.126
26032SOL    HW179929   0.243   6.617   1.196
26032SOL    HW279930   0.179   6.493   1.136
26033SOL     OW79931   9.055   8.342   6.911
26033SOL    HW179932   9.023   8.320   6.999
26033SOL    HW279933   8.977   8.342   6.857
26034SOL     OW79934   7.017  14.072   2.062
26034SOL    HW179935   7.063  14.148   2.096
26034SOL    HW279936   7.067  13.997   2.094
26035SOL     OW79937  10.061   3.247   4.953
26035SOL    HW179938   9.986   3.306   4.948
26035SOL    HW279939  10.122   3.278   4.887
26036SOL     OW79940  13.526   6.144   4.075
26036SOL    HW179941  13.585   6.131   4.001
26036SOL    HW279942  13.504   6.055   4.104
26037SOL     OW79943  14.683  11.424  12.254
26037SOL    HW179944  14.589  11.443  12.259
26037SOL    HW279945  14.691  11.363  12.181
26038SOL     OW79946   3.674   5.383  10.022
26038SOL    HW179947   3.590   5.344   9.999
26038SOL    HW279948   3.739   5.320   9.989
26039SOL     OW79949  10.095   4.959   3.466
26039SOL    HW179950  10.139   4.949   3.382
26039SOL    HW279951  10.159   5.002   3.522
26040SOL     OW79952  11.248  10.424   5.211
26040SOL    HW179953  11.188  10.440   5.284
26040SOL    HW279954  11.317  10.369   5.248
26041SOL     OW79955  14.841   5.049   5.301
26041SOL    HW179956  14.762   5.067   5.353
26041SOL    HW279957  14.827   4.961   5.267
26042SOL     OW79958   1.264   0.056   9.142
26042SOL    HW179959   1.274   0.123   9.210
26042SOL    HW279960   1.235  14.851   9.189
26043SOL     OW79961   2.041  13.604  13.182
26043SOL    HW179962   2.064  13.608  13.089
26043SOL    HW279963   2.065  13.516  13.209
26044SOL     OW79964   5.119  10.949  11.974
26044SOL    HW179965   5.143  10.961  11.882
26044SOL    HW279966   5.199  10.913  12.014
26045SOL     OW79967   5.548   0.727   7.475
26045SOL    HW179968   5.498   0.783   7.534
26045SOL    HW279969   5.531   0.763   7.388
26046SOL     OW79970   4.889   7.302  14.706
26046SOL    HW179971   4.873   7.212  14.734
26046SOL    HW279972   4.833   7.314  14.629
26047SOL     OW79973   6.066  14.419  10.576
26047SOL    HW179974   6.140  14.361  10.594
26047SOL    HW279975   5.998  14.392  10.638
26048SOL     OW79976  11.010   8.564  12.732
26048SOL    HW179977  11.028   8.565  12.825
26048SOL    HW279978  11.078   8.619  12.694
26049SOL     OW79979  11.513   2.203   2.219
26049SOL    HW179980  11.438   2.262   2.228
26049SOL    HW279981  11.567   2.243   2.151
26050SOL     OW79982  14.528   7.446   6.236
26050SOL    HW179983  14.549   7.355   6.214
26050SOL    HW279984  14.609   7.494   6.219
26051SOL     OW79985   0.914  12.173   6.968
26051SOL    HW179986   0.865  12.104   7.013
26051SOL    HW279987   0.979  12.202   7.032
26052SOL     OW79988   4.092   2.132   9.312
26052SOL    HW179989   4.153   2.100   9.378
26052SOL    HW279990   4.022   2.067   9.311
26053SOL     OW79991   2.172   0.093  14.240
26053SOL    HW179992   2.223   0.035  14.184
26053SOL    HW279993   2.085   0.095  14.200
26054SOL     OW79994   9.174   4.503   0.596
26054SOL    HW179995   9.243   4.442   0.623
26054SOL    HW279996   9.122   4.454   0.532
26055SOL     OW79997   1.464   4.022   7.802
26055SOL    HW179998   1.552   4.003   7.769
26055SOL    HW279999   1.462   3.981   7.888
26056SOL     OW80000  13.189   4.339   3.486
26056SOL    HW180001  13.137   4.388   3.423
26056SOL    HW280002  13.125   4.286   3.534
26057SOL     OW80003  10.017  14.707   1.231
26057SOL    HW180004  10.103  14.734   1.264
26057SOL    HW280005   9.955  14.762   1.279
26058SOL     OW80006   8.339  11.293   0.589
26058SOL    HW180007   8.358  11.386   0.577
26058SOL    HW280008   8.411  11.260   0.643
26059SOL     OW80009  12.808   2.349   9.397
26059SOL    HW180010  12.826   2.255   9.395
26059SOL    HW280011  12.879   2.386   9.449
26060SOL     OW80012  13.763   0.127   5.856
26060SOL    HW180013  13.799   0.092   5.774
26060SOL    HW280014  13.803   0.074   5.925
26061SOL     OW80015   8.131   9.824   4.293
26061SOL    HW180016   8.086   9.908   4.305
26061SOL    HW280017   8.203   9.826   4.357
26062SOL     OW80018  13.809   0.399   6.309
26062SOL    HW180019  13.828   0.314   6.269
26062SOL    HW280020  13.895   0.435   6.331
26063SOL     OW80021   1.704   9.112  12.295
26063SOL    HW180022   1.760   9.167  12.350
26063SOL    HW280023   1.638   9.078  12.355
26064SOL     OW80024   8.269   3.915   7.735
26064SOL    HW180025   8.286   3.823   7.714
26064SOL    HW280026   8.355   3.950   7.756
26065SOL     OW80027   4.285   0.044   1.568
26065SOL    HW180028   4.259   0.023   1.658
26065SOL    HW280029   4.257  14.841   1.516
26066SOL     OW80030  12.242   7.760   1.778
26066SOL    HW180031  12.148   7.750   1.792
26066SOL    HW280032  12.274   7.798   1.859
26067SOL     OW80033   0.256   6.667   8.926
26067SOL    HW180034   0.339   6.644   8.885
26067SOL    HW280035   0.191   6.657   8.857
26068SOL     OW80036   4.772   1.310   8.168
26068SOL    HW180037   4.822   1.384   8.135
26068SOL    HW280038   4.802   1.236   8.115
26069SOL     OW80039   9.151   2.078   9.920
26069SOL    HW180040   9.170   2.103   9.830
26069SOL    HW280041   9.059   2.053   9.919
26070SOL     OW80042   1.076   3.940   9.509
26070SOL    HW180043   1.138   3.931   9.582
26070SOL    HW280044   1.005   3.993   9.545
26071SOL     OW80045   1.983   7.066   6.254
26071SOL    HW180046   2.014   7.156   6.246
26071SOL    HW280047   2.038   7.016   6.194
26072SOL     OW80048   5.421   1.303   8.189
26072SOL    HW180049   5.347   1.255   8.153
26072SOL    HW280050   5.451   1.359   8.118
26073SOL     OW80051  12.921   4.279   4.400
26073SOL    HW180052  12.965   4.253   4.319
26073SOL    HW280053  12.830   4.250   4.388
26074SOL     OW80054  12.293  11.284   2.216
26074SOL    HW180055  12.366  11.222   2.205
26074SOL    HW280056  12.248  11.281   2.132
26075SOL     OW80057   9.099   4.574   2.877
26075SOL    HW180058   9.021   4.558   2.823
26075SOL    HW280059   9.159   4.503   2.854
26076SOL     OW80060   3.828  14.543  11.626
26076SOL    HW180061   3.744  14.588  11.622
26076SOL    HW280062   3.874  14.568  11.546
26077SOL     OW80063   4.817   2.778   4.018
26077SOL    HW180064   4.723   2.787   4.032
26077SOL    HW280065   4.830   2.801   3.926
26078SOL     OW80066  10.986  11.540   5.380
26078SOL    HW180067  10.920  11.475   5.408
26078SOL    HW280068  10.965  11.618   5.431
26079SOL     OW80069   5.263   1.056   6.841
26079SOL    HW180070   5.209   1.042   6.764
26079SOL    HW280071   5.320   0.979   6.844
26080SOL     OW80072   5.414   9.831   8.060
26080SOL    HW180073   5.329   9.872   8.047
26080SOL    HW280074   5.419   9.764   7.991
26081SOL     OW80075   2.175   0.328   4.868
26081SOL    HW180076   2.119   0.269   4.818
26081SOL    HW280077   2.227   0.270   4.924
26082SOL     OW80078   1.284  11.187   2.220
26082SOL    HW180079   1.227  11.111   2.211
26082SOL    HW280080   1.251  11.234   2.297
26083SOL     OW80081   1.779   8.624   4.770
26083SOL    HW180082   1.741   8.581   4.846
26083SOL    HW280083   1.704   8.652   4.718
26084SOL     OW80084   9.622   4.091   9.282
26084SOL    HW180085   9.648   4.160   9.342
26084SOL    HW280086   9.549   4.128   9.233
26085SOL     OW80087   3.679  11.239  11.406
26085SOL    HW180088   3.764  11.202  11.381
26085SOL    HW280089   3.646  11.181  11.475
26086SOL     OW80090   5.722   2.441   7.126
26086SOL    HW180091   5.675   2.463   7.207
26086SOL    HW280092   5.753   2.352   7.141
26087SOL     OW80093   1.149   2.554  11.568
26087SOL    HW180094   1.236   2.530  11.599
26087SOL    HW280095   1.145   2.517  11.480
26088SOL     OW80096   6.901   3.074  14.293
26088SOL    HW180097   6.848   2.995  14.306
26088SOL    HW280098   6.863   3.115  14.215
26089SOL     OW80099   5.681   8.118  14.439
26089SOL    HW180100   5.628   8.074  14.372
26089SOL    HW280101   5.770   8.117  14.402
26090SOL     OW80102   2.853   4.450  14.045
26090SOL    HW180103   2.931   4.504  14.042
26090SOL    HW280104   2.856   4.407  14.130
26091SOL     OW80105   5.024   1.496   7.028
26091SOL    HW180106   4.996   1.433   7.094
26091SOL    HW280107   5.095   1.453   6.982
26092SOL     OW80108  13.963   8.202   2.959
26092SOL    HW180109  13.992   8.125   2.909
26092SOL    HW280110  13.869   8.208   2.943
26093SOL     OW80111   3.165   5.813   7.955
26093SOL    HW180112   3.247   5.764   7.967
26093SOL    HW280113   3.192   5.904   7.959
26094SOL     OW80114   7.703   9.437  13.326
26094SOL    HW180115   7.756   9.493  13.269
26094SOL    HW280116   7.721   9.468  13.414
26095SOL     OW80117   3.363   4.525   6.271
26095SOL    HW180118   3.304   4.525   6.347
26095SOL    HW280119   3.311   4.485   6.201
26096SOL     OW80120   6.561   4.267   6.349
26096SOL    HW180121   6.642   4.237   6.309
26096SOL    HW280122   6.562   4.362   6.337
26097SOL     OW80123  11.615   2.551   4.941
26097SOL    HW180124  11.612   2.631   4.994
26097SOL    HW280125  11.594   2.481   5.003
26098SOL     OW80126   6.295   5.743  13.869
26098SOL    HW180127   6.236   5.742  13.794
26098SOL    HW280128   6.336   5.656  13.869
26099SOL     OW80129   4.268   9.981   4.903
26099SOL    HW180130   4.293   9.933   4.824
26099SOL    HW280131   4.183  10.020   4.881
26100SOL     OW80132   6.939   6.586  13.082
26100SOL    HW180133   6.956   6.513  13.142
26100SOL    HW280134   6.981   6.661  13.124
26101SOL     OW80135   4.965   5.255   4.873
26101SOL    HW180136   5.037   5.220   4.821
26101SOL    HW280137   4.886   5.227   4.826
26102SOL     OW80138   4.644   4.150   5.678
26102SOL    HW180139   4.561   4.179   5.641
26102SOL    HW280140   4.661   4.211   5.750
26103SOL     OW80141  13.742   6.027  11.781
26103SOL    HW180142  13.767   5.935  11.786
26103SOL    HW280143  13.653   6.029  11.816
26104SOL     OW80144   8.679   7.892   2.897
26104SOL    HW180145   8.771   7.916   2.895
26104SOL    HW280146   8.679   7.797   2.907
26105SOL     OW80147   3.299   3.997   7.713
26105SOL    HW180148   3.338   4.039   7.790
26105SOL    HW280149   3.272   3.910   7.744
26106SOL     OW80150   2.870  11.835  11.135
26106SOL    HW180151   2.868  11.747  11.172
26106SOL    HW280152   2.925  11.828  11.057
26107SOL     OW80153  10.912  11.791  13.475
26107SOL    HW180154  10.986  11.734  13.455
26107SOL    HW280155  10.848  11.772  13.407
26108SOL     OW80156   7.712   5.994   7.839
26108SOL    HW180157   7.654   6.062   7.873
26108SOL    HW280158   7.744   5.948   7.916
26109SOL     OW80159   8.960   8.188   2.099
26109SOL    HW180160   8.941   8.099   2.128
26109SOL    HW280161   9.053   8.186   2.075
26110SOL     OW80162  10.295  11.677  12.064
26110SOL    HW180163  10.352  11.667  11.988
26110SOL    HW280164  10.329  11.614  12.127
26111SOL     OW80165   6.073   6.317   2.485
26111SOL    HW180166   6.008   6.298   2.552
26111SOL    HW280167   6.039   6.393   2.439
26112SOL     OW80168  14.551  12.490   5.270
26112SOL    HW180169  14.588  12.419   5.217
26112SOL    HW280170  14.515  12.552   5.206
26113SOL     OW80171  12.819  12.572   9.280
26113SOL    HW180172  12.858  12.607   9.200
26113SOL    HW280173  12.878  12.502   9.307
26114SOL     OW80174   2.202   3.580   5.856
26114SOL    HW180175   2.246   3.635   5.921
26114SOL    HW280176   2.262   3.577   5.782
26115SOL     OW80177   5.019   7.092   1.418
26115SOL    HW180178   5.104   7.069   1.381
26115SOL    HW280179   4.986   7.161   1.360
26116SOL     OW80180   4.009  11.044   8.130
26116SOL    HW180181   4.010  11.010   8.220
26116SOL    HW280182   4.008  11.139   8.140
26117SOL     OW80183   7.676  14.626  12.505
26117SOL    HW180184   7.762  14.644  12.542
26117SOL    HW280185   7.652  14.705  12.458
26118SOL     OW80186  13.720   7.624   1.671
26118SOL    HW180187  13.697   7.558   1.736
26118SOL    HW280188  13.810   7.601   1.645
26119SOL     OW80189  10.188  13.655  13.220
26119SOL    HW180190  10.115  13.715  13.206
26119SOL    HW280191  10.163  13.604  13.297
26120SOL     OW80192  10.465   5.626   4.138
26120SOL    HW180193  10.537   5.563   4.149
26120SOL    HW280194  10.387   5.572   4.128
26121SOL     OW80195   0.604  11.039   1.801
26121SOL    HW180196   0.661  11.016   1.728
26121SOL    HW280197   0.601  10.960   1.856
26122SOL     OW80198   2.398   4.366   0.196
26122SOL    HW180199   2.357   4.318   0.124
26122SOL    HW280200   2.345   4.344   0.273
26123SOL     OW80201  14.174   4.610  13.792
26123SOL    HW180202  14.099   4.619  13.733
26123SOL    HW280203  14.201   4.700  13.809
26124SOL     OW80204  14.018   2.907  13.355
26124SOL    HW180205  13.926   2.914  13.328
26124SOL    HW280206  14.029   2.816  13.379
26125SOL     OW80207   4.414   4.643   2.651
26125SOL    HW180208   4.446   4.554   2.663
26125SOL    HW280209   4.372   4.642   2.565
26126SOL     OW80210   6.797  13.414  14.694
26126SOL    HW180211   6.702  13.421  14.703
26126SOL    HW280212   6.817  13.322  14.716
26127SOL     OW80213  10.804  13.502  13.935
26127SOL    HW180214  10.868  13.516  14.004
26127SOL    HW280215  10.738  13.445  13.974
26128SOL     OW80216   5.190  10.128   3.495
26128SOL    HW180217   5.202  10.052   3.552
26128SOL    HW280218   5.117  10.176   3.535
26129SOL     OW80219  13.916  10.228   8.114
26129SOL    HW180220  13.944  10.228   8.205
26129SOL    HW280221  13.930  10.138   8.084
26130SOL     OW80222   3.616  13.892   4.582
26130SOL    HW180223   3.540  13.949   4.565
26130SOL    HW280224   3.635  13.905   4.674
26131SOL     OW80225   1.174  12.465   5.872
26131SOL    HW180226   1.100  12.498   5.821
26131SOL    HW280227   1.247  12.464   5.810
26132SOL     OW80228   2.604   8.058   8.897
26132SOL    HW180229   2.638   8.086   8.812
26132SOL    HW280230   2.600   8.138   8.950
26133SOL     OW80231  13.615  13.932   1.469
26133SOL    HW180232  13.597  14.022   1.494
26133SOL    HW280233  13.692  13.938   1.413
26134SOL     OW80234   0.803   0.779   8.283
26134SOL    HW180235   0.776   0.698   8.240
26134SOL    HW280236   0.836   0.834   8.211
26135SOL     OW80237  14.109   1.481   4.196
26135SOL    HW180238  14.100   1.407   4.256
26135SOL    HW280239  14.072   1.555   4.244
26136SOL     OW80240   0.851  12.428   8.660
26136SOL    HW180241   0.908  12.404   8.587
26136SOL    HW280242   0.762  12.411   8.628
26137SOL     OW80243  10.526   3.528   4.266
26137SOL    HW180244  10.574   3.609   4.283
26137SOL    HW280245  10.593   3.459   4.273
26138SOL     OW80246  11.328   9.277   7.983
26138SOL    HW180247  11.341   9.236   8.069
26138SOL    HW280248  11.414   9.310   7.959
26139SOL     OW80249  12.279   3.041   6.133
26139SOL    HW180250  12.214   3.101   6.170
26139SOL    HW280251  12.241   3.013   6.050
26140SOL     OW80252   2.986   2.403  10.716
26140SOL    HW180253   3.007   2.324  10.766
26140SOL    HW280254   2.950   2.370  10.633
26141SOL     OW80255  10.397   3.385  12.316
26141SOL    HW180256  10.417   3.426  12.401
26141SOL    HW280257  10.342   3.449  12.271
26142SOL     OW80258   8.754   8.478   1.222
26142SOL    HW180259   8.674   8.441   1.257
26142SOL    HW280260   8.814   8.481   1.297
26143SOL     OW80261   5.091   9.664   1.655
26143SOL    HW180262   5.109   9.688   1.746
26143SOL    HW280263   5.165   9.608   1.631
26144SOL     OW80264   4.472  13.691   4.973
26144SOL    HW180265   4.459  13.596   4.976
26144SOL    HW280266   4.520  13.712   5.053
26145SOL     OW80267  10.781  12.959   5.870
26145SOL    HW180268  10.812  13.030   5.925
26145SOL    HW280269  10.859  12.904   5.856
26146SOL     OW80270  10.144   3.059   9.144
26146SOL    HW180271  10.191   3.106   9.213
26146SOL    HW280272  10.065   3.111   9.130
26147SOL     OW80273   2.230   4.604   2.963
26147SOL    HW180274   2.310   4.569   3.000
26147SOL    HW280275   2.248   4.697   2.950
26148SOL     OW80276   4.802  14.414  12.883
26148SOL    HW180277   4.817  14.496  12.930
26148SOL    HW280278   4.733  14.434  12.820
26149SOL     OW80279  14.746  11.285   9.810
26149SOL    HW180280  14.701  11.369   9.822
26149SOL    HW280281  14.825  11.292   9.864
26150SOL     OW80282   8.444   7.582  14.853
26150SOL    HW180283   8.534   7.599  14.825
26150SOL    HW280284   8.453   7.548   0.070
26151SOL     OW80285   0.797  11.147   5.221
26151SOL    HW180286   0.830  11.060   5.246
26151SOL    HW280287   0.875  11.194   5.191
26152SOL     OW80288  13.113   7.488  10.104
26152SOL    HW180289  13.124   7.400  10.141
26152SOL    HW280290  13.199   7.528  10.113
26153SOL     OW80291   5.444   7.527   6.699
26153SOL    HW180292   5.494   7.552   6.777
26153SOL    HW280293   5.428   7.434   6.710
26154SOL     OW80294  13.590   1.177   3.783
26154SOL    HW180295  13.530   1.122   3.833
26154SOL    HW280296  13.624   1.240   3.847
26155SOL     OW80297   7.562  13.320  13.457
26155SOL    HW180298   7.471  13.343  13.478
26155SOL    HW280299   7.601  13.300  13.542
26156SOL     OW80300  13.366  11.987  12.553
26156SOL    HW180301  13.326  12.032  12.628
26156SOL    HW280302  13.401  12.057  12.499
26157SOL     OW80303  12.386   7.305   6.850
26157SOL    HW180304  12.479   7.283   6.852
26157SOL    HW280305  12.363   7.318   6.942
26158SOL     OW80306  10.297   0.951   1.845
26158SOL    HW180307  10.345   0.916   1.770
26158SOL    HW280308  10.244   1.022   1.808
26159SOL     OW80309   0.385  12.619  12.496
26159SOL    HW180310   0.360  12.712  12.502
26159SOL    HW280311   0.303  12.573  12.481
26160SOL     OW80312  11.498   8.173   6.809
26160SOL    HW180313  11.511   8.267   6.796
26160SOL    HW280314  11.523   8.134   6.725
26161SOL     OW80315  11.880   5.702  13.630
26161SOL    HW180316  11.840   5.714  13.544
26161SOL    HW280317  11.805   5.689  13.689
26162SOL     OW80318   0.912  13.963   8.722
26162SOL    HW180319   0.961  13.902   8.666
26162SOL    HW280320   0.959  14.046   8.712
26163SOL     OW80321  14.826   5.057   6.437
26163SOL    HW180322  14.808   5.019   6.351
26163SOL    HW280323   0.007   5.134   6.419
26164SOL     OW80324   1.747   4.636   2.674
26164SOL    HW180325   1.664   4.675   2.645
26164SOL    HW280326   1.812   4.672   2.615
26165SOL     OW80327   0.022   9.722   1.219
26165SOL    HW180328  14.860   9.772   1.146
26165SOL    HW280329   0.006   9.630   1.195
26166SOL     OW80330   8.782   8.743   1.615
26166SOL    HW180331   8.782   8.777   1.526
26166SOL    HW280332   8.818   8.814   1.668
26167SOL     OW80333  14.833   4.874  11.132
26167SOL    HW180334  14.786   4.837  11.207
26167SOL    HW280335   0.043   4.828  11.129
26168SOL     OW80336   0.229  10.169   9.122
26168SOL    HW180337   0.287  10.187   9.047
26168SOL    HW280338   0.190  10.254   9.143
26169SOL     OW80339  11.973  11.884  12.600
26169SOL    HW180340  12.007  11.797  12.617
26169SOL    HW280341  11.993  11.933  12.680
26170SOL     OW80342   8.753   6.242  10.445
26170SOL    HW180343   8.723   6.286  10.366
26170SOL    HW280344   8.679   6.248  10.505
26171SOL     OW80345   6.786   3.866  13.496
26171SOL    HW180346   6.822   3.950  13.468
26171SOL    HW280347   6.794   3.867  13.591
26172SOL     OW80348   3.062   7.787   0.943
26172SOL    HW180349   3.138   7.796   0.885
26172SOL    HW280350   2.987   7.813   0.889
26173SOL     OW80351   3.298   8.665  13.154
26173SOL    HW180352   3.294   8.596  13.087
26173SOL    HW280353   3.235   8.730  13.124
26174SOL     OW80354   6.217   6.344   8.496
26174SOL    HW180355   6.248   6.325   8.584
26174SOL    HW280356   6.221   6.440   8.489
26175SOL     OW80357   7.344   0.418   9.744
26175SOL    HW180358   7.256   0.412   9.706
26175SOL    HW280359   7.402   0.383   9.677
26176SOL     OW80360   2.066  14.603  11.887
26176SOL    HW180361   2.057  14.692  11.921
26176SOL    HW280362   2.045  14.610  11.794
26177SOL     OW80363  10.424   7.156   2.485
26177SOL    HW180364  10.512   7.120   2.497
26177SOL    HW280365  10.426   7.241   2.528
26178SOL     OW80366   6.501  14.248  11.501
26178SOL    HW180367   6.426  14.303  11.475
26178SOL    HW280368   6.471  14.159  11.487
26179SOL     OW80369   5.763  13.986   8.181
26179SOL    HW180370   5.762  13.891   8.178
26179SOL    HW280371   5.812  14.007   8.261
26180SOL     OW80372  11.923   2.561   1.145
26180SOL    HW180373  11.954   2.609   1.222
26180SOL    HW280374  11.830   2.580   1.141
26181SOL     OW80375   2.133   7.184   9.394
26181SOL    HW180376   2.112   7.092   9.381
26181SOL    HW280377   2.197   7.204   9.326
26182SOL     OW80378  10.151   6.752   7.112
26182SOL    HW180379  10.204   6.780   7.187
26182SOL    HW280380  10.113   6.668   7.139
26183SOL     OW80381   5.553   4.852  10.045
26183SOL    HW180382   5.641   4.856  10.084
26183SOL    HW280383   5.542   4.938  10.004
26184SOL     OW80384   7.349  14.650  11.098
26184SOL    HW180385   7.382  14.598  11.171
26184SOL    HW280386   7.373  14.740  11.120
26185SOL     OW80387  10.245  14.259   1.448
26185SOL    HW180388  10.196  14.294   1.374
26185SOL    HW280389  10.190  14.190   1.483
26186SOL     OW80390   7.694   6.786   3.327
26186SOL    HW180391   7.717   6.863   3.378
26186SOL    HW280392   7.618   6.749   3.371
26187SOL     OW80393   8.670  13.688   3.449
26187SOL    HW180394   8.709  13.601   3.448
26187SOL    HW280395   8.594  13.682   3.392
26188SOL     OW80396   1.415   1.458  12.519
26188SOL    HW180397   1.360   1.536  12.525
26188SOL    HW280398   1.452   1.448  12.606
26189SOL     OW80399   6.623   5.493  12.631
26189SOL    HW180400   6.566   5.420  12.657
26189SOL    HW280401   6.563   5.565  12.613
26190SOL     OW80402  13.249   1.859  14.484
26190SOL    HW180403  13.156   1.881  14.481
26190SOL    HW280404  13.260   1.809  14.565
26191SOL     OW80405   8.624   1.793  12.005
26191SOL    HW180406   8.650   1.857  12.071
26191SOL    HW280407   8.583   1.723  12.056
26192SOL     OW80408   8.185   5.012   3.243
26192SOL    HW180409   8.193   5.086   3.183
26192SOL    HW280410   8.217   4.937   3.193
26193SOL     OW80411   8.312   9.852  12.144
26193SOL    HW180412   8.393   9.803  12.157
26193SOL    HW280413   8.275   9.861  12.232
26194SOL     OW80414   0.470  11.254   4.472
26194SOL    HW180415   0.458  11.205   4.391
26194SOL    HW280416   0.555  11.224   4.506
26195SOL     OW80417   8.512  12.698   1.608
26195SOL    HW180418   8.556  12.742   1.680
26195SOL    HW280419   8.580  12.642   1.569
26196SOL     OW80420   8.498   7.400   1.613
26196SOL    HW180421   8.407   7.380   1.632
26196SOL    HW280422   8.508   7.492   1.638
26197SOL     OW80423   2.496  14.061   9.416
26197SOL    HW180424   2.576  14.062   9.365
26197SOL    HW280425   2.482  13.969   9.438
26198SOL     OW80426   9.568   9.043   7.053
26198SOL    HW180427   9.623   9.104   7.004
26198SOL    HW280428   9.629   8.997   7.110
26199SOL     OW80429   1.074   7.257   9.807
26199SOL    HW180430   1.011   7.295   9.746
26199SOL    HW280431   1.036   7.172   9.831
26200SOL     OW80432   4.212   8.724   9.709
26200SOL    HW180433   4.181   8.778   9.637
26200SOL    HW280434   4.263   8.785   9.763
26201SOL     OW80435   6.694   8.135   9.923
26201SOL    HW180436   6.747   8.085   9.860
26201SOL    HW280437   6.723   8.225   9.911
26202SOL     OW80438  14.639   1.551  14.834
26202SOL    HW180439  14.544   1.554  14.828
26202SOL    HW280440  14.657   1.479   0.022
26203SOL     OW80441   9.234   4.276   4.692
26203SOL    HW180442   9.144   4.245   4.705
26203SOL    HW280443   9.243   4.351   4.752
26204SOL     OW80444  13.113   3.342   7.824
26204SOL    HW180445  13.170   3.419   7.835
26204SOL    HW280446  13.082   3.323   7.913
26205SOL     OW80447  13.589   2.650   7.362
26205SOL    HW180448  13.506   2.678   7.324
26205SOL    HW280449  13.598   2.701   7.442
26206SOL     OW80450   7.779   4.097   3.609
26206SOL    HW180451   7.689   4.123   3.593
26206SOL    HW280452   7.774   4.004   3.632
26207SOL     OW80453   0.339   1.751  11.717
26207SOL    HW180454   0.413   1.727  11.772
26207SOL    HW280455   0.357   1.840  11.689
26208SOL     OW80456  13.412   1.408   8.042
26208SOL    HW180457  13.438   1.317   8.059
26208SOL    HW280458  13.481   1.442   7.986
26209SOL     OW80459  11.212   7.490   8.075
26209SOL    HW180460  11.157   7.567   8.082
26209SOL    HW280461  11.182   7.445   7.996
26210SOL     OW80462  14.525  11.750   7.950
26210SOL    HW180463  14.488  11.838   7.941
26210SOL    HW280464  14.450  11.691   7.942
26211SOL     OW80465   4.191   1.914  14.650
26211SOL    HW180466   4.151   1.972  14.714
26211SOL    HW280467   4.145   1.830  14.662
26212SOL     OW80468  10.121   8.831   9.032
26212SOL    HW180469  10.135   8.747   9.077
26212SOL    HW280470  10.056   8.811   8.964
26213SOL     OW80471   0.194   4.971   3.325
26213SOL    HW180472   0.204   4.975   3.420
26213SOL    HW280473   0.265   5.026   3.292
26214SOL     OW80474   4.419   7.796   6.060
26214SOL    HW180475   4.511   7.824   6.063
26214SOL    HW280476   4.370   7.875   6.081
26215SOL     OW80477   1.283   7.657   1.373
26215SOL    HW180478   1.376   7.651   1.349
26215SOL    HW280479   1.261   7.570   1.406
26216SOL     OW80480  14.642   2.507   5.828
26216SOL    HW180481  14.590   2.532   5.905
26216SOL    HW280482  14.633   2.581   5.768
26217SOL     OW80483  12.323   2.727   1.167
26217SOL    HW180484  12.370   2.651   1.203
26217SOL    HW280485  12.274   2.691   1.093
26218SOL     OW80486   8.824  12.451   3.654
26218SOL    HW180487   8.754  12.489   3.707
26218SOL    HW280488   8.854  12.375   3.705
26219SOL     OW80489  11.173   1.981  10.582
26219SOL    HW180490  11.089   1.973  10.626
26219SOL    HW280491  11.220   2.048  10.632
26220SOL     OW80492   3.557  13.904   6.298
26220SOL    HW180493   3.497  13.830   6.307
26220SOL    HW280494   3.614  13.879   6.225
26221SOL     OW80495   5.139  10.217   8.736
26221SOL    HW180496   5.053  10.210   8.780
26221SOL    HW280497   5.201  10.182   8.800
26222SOL     OW80498   3.009   8.624  13.265
26222SOL    HW180499   3.018   8.718  13.249
26222SOL    HW280500   3.071   8.605  13.335
26223SOL     OW80501   7.229  13.481  14.300
26223SOL    HW180502   7.158  13.429  14.338
26223SOL    HW280503   7.256  13.432  14.222
26224SOL     OW80504  10.023   6.943   7.768
26224SOL    HW180505  10.119   6.944   7.763
26224SOL    HW280506  10.002   6.864   7.817
26225SOL     OW80507   7.252   1.058  10.156
26225SOL    HW180508   7.242   1.059  10.252
26225SOL    HW280509   7.317   0.990  10.140
26226SOL     OW80510   2.167   8.850   5.063
26226SOL    HW180511   2.197   8.868   4.975
26226SOL    HW280512   2.080   8.812   5.052
26227SOL     OW80513   2.367   1.316  13.744
26227SOL    HW180514   2.386   1.406  13.770
26227SOL    HW280515   2.448   1.286  13.701
26228SOL     OW80516   2.001   8.628   7.051
26228SOL    HW180517   1.994   8.675   7.134
26228SOL    HW280518   1.971   8.540   7.070
26229SOL     OW80519   1.733   7.835  12.359
26229SOL    HW180520   1.683   7.770  12.309
26229SOL    HW280521   1.669   7.904  12.378
26230SOL     OW80522   1.617   8.342   4.874
26230SOL    HW180523   1.618   8.373   4.784
26230SOL    HW280524   1.646   8.251   4.868
26231SOL     OW80525  10.818   2.867  12.871
26231SOL    HW180526  10.872   2.871  12.792
26231SOL    HW280527  10.771   2.784  12.864
26232SOL     OW80528   6.237   1.002   5.126
26232SOL    HW180529   6.242   1.028   5.034
26232SOL    HW280530   6.199   1.078   5.170
26233SOL     OW80531   4.624   3.716   9.669
26233SOL    HW180532   4.552   3.657   9.647
26233SOL    HW280533   4.581   3.799   9.689
26234SOL     OW80534  11.717   3.481  14.513
26234SOL    HW180535  11.719   3.476  14.608
26234SOL    HW280536  11.692   3.572  14.495
26235SOL     OW80537  10.057  14.088   6.145
26235SOL    HW180538  10.016  14.005   6.171
26235SOL    HW280539  10.086  14.127   6.227
26236SOL     OW80540   9.567  11.273  10.818
26236SOL    HW180541   9.649  11.224  10.825
26236SOL    HW280542   9.594  11.364  10.807
26237SOL     OW80543   0.128   7.471   5.125
26237SOL    HW180544   0.191   7.435   5.063
26237SOL    HW280545   0.096   7.394   5.172
26238SOL     OW80546  13.934   1.970  10.385
26238SOL    HW180547  13.855   1.975  10.332
26238SOL    HW280548  13.965   1.880  10.374
26239SOL     OW80549  12.810   2.278  10.191
26239SOL    HW180550  12.888   2.270  10.136
26239SOL    HW280551  12.824   2.213  10.261
26240SOL     OW80552   7.097  14.548   3.570
26240SOL    HW180553   7.072  14.584   3.485
26240SOL    HW280554   7.085  14.453   3.561
26241SOL     OW80555   4.750  14.576   7.881
26241SOL    HW180556   4.825  14.634   7.895
26241SOL    HW280557   4.788  14.489   7.869
26242SOL     OW80558  10.939   7.807   7.659
26242SOL    HW180559  10.895   7.891   7.646
26242SOL    HW280560  10.929   7.762   7.575
26243SOL     OW80561  14.125   3.265   8.888
26243SOL    HW180562  14.125   3.273   8.792
26243SOL    HW280563  14.093   3.350   8.919
26244SOL     OW80564   2.971   1.971   9.294
26244SOL    HW180565   2.995   2.051   9.249
26244SOL    HW280566   3.018   1.975   9.377
26245SOL     OW80567   6.852  12.772   5.038
26245SOL    HW180568   6.884  12.856   5.072
26245SOL    HW280569   6.779  12.749   5.095
26246SOL     OW80570   7.164   8.826   5.851
26246SOL    HW180571   7.235   8.887   5.834
26246SOL    HW280572   7.084   8.876   5.835
26247SOL     OW80573  14.009  10.963   1.157
26247SOL    HW180574  13.942  10.922   1.212
26247SOL    HW280575  13.959  11.001   1.084
26248SOL     OW80576   8.329   6.796   3.731
26248SOL    HW180577   8.289   6.710   3.725
26248SOL    HW280578   8.423   6.779   3.724
26249SOL     OW80579  12.848  13.728  14.233
26249SOL    HW180580  12.864  13.764  14.320
26249SOL    HW280581  12.852  13.803  14.175
26250SOL     OW80582   9.215  12.711   6.668
26250SOL    HW180583   9.210  12.792   6.719
26250SOL    HW280584   9.241  12.645   6.731
26251SOL     OW80585   1.106   4.186   5.265
26251SOL    HW180586   1.164   4.126   5.218
26251SOL    HW280587   1.121   4.271   5.224
26252SOL     OW80588  13.496   9.175   7.842
26252SOL    HW180589  13.462   9.117   7.774
26252SOL    HW280590  13.493   9.262   7.804
26253SOL     OW80591  11.912   7.772  11.642
26253SOL    HW180592  11.991   7.720  11.656
26253SOL    HW280593  11.850   7.739  11.708
26254SOL     OW80594   3.628   0.992  10.687
26254SOL    HW180595   3.547   0.946  10.707
26254SOL    HW280596   3.692   0.957  10.749
26255SOL     OW80597   5.550   3.946   1.133
26255SOL    HW180598   5.562   4.041   1.139
26255SOL    HW280599   5.590   3.911   1.213
26256SOL     OW80600   5.518  14.381   1.089
26256SOL    HW180601   5.523  14.405   1.182
26256SOL    HW280602   5.548  14.290   1.086
26257SOL     OW80603   6.105  10.440   4.448
26257SOL    HW180604   6.019  10.410   4.477
26257SOL    HW280605   6.144  10.481   4.525
26258SOL     OW80606   7.011   4.659   5.787
26258SOL    HW180607   6.969   4.689   5.868
26258SOL    HW280608   6.963   4.703   5.717
26259SOL     OW80609   4.445   3.395   2.297
26259SOL    HW180610   4.535   3.381   2.324
26259SOL    HW280611   4.444   3.483   2.258
26260SOL     OW80612   2.006   0.115   8.408
26260SOL    HW180613   1.988   0.209   8.407
26260SOL    HW280614   1.965   0.083   8.488
26261SOL     OW80615   6.936  11.894   1.278
26261SOL    HW180616   6.921  11.951   1.203
26261SOL    HW280617   7.014  11.843   1.254
26262SOL     OW80618   2.094   0.134  10.045
26262SOL    HW180619   2.048   0.060  10.005
26262SOL    HW280620   2.162   0.157   9.983
26263SOL     OW80621   4.933  10.186   6.782
26263SOL    HW180622   4.848  10.219   6.752
26263SOL    HW280623   4.923  10.177   6.877
26264SOL     OW80624  14.569  12.539   9.219
26264SOL    HW180625  14.506  12.467   9.217
26264SOL    HW280626  14.550  12.584   9.301
26265SOL     OW80627  14.022  12.901   0.999
26265SOL    HW180628  13.992  12.890   1.089
26265SOL    HW280629  13.995  12.989   0.975
26266SOL     OW80630  12.569   5.845   1.013
26266SOL    HW180631  12.520   5.928   1.017
26266SOL    HW280632  12.661   5.871   1.015
26267SOL     OW80633  10.030   4.842   6.861
26267SOL    HW180634   9.942   4.825   6.894
26267SOL    HW280635  10.033   4.937   6.851
26268SOL     OW80636   7.942   4.564  13.742
26268SOL    HW180637   7.988   4.481  13.726
26268SOL    HW280638   7.968   4.620  13.669
26269SOL     OW80639  11.886  14.821   5.729
26269SOL    HW180640  11.931  14.737   5.724
26269SOL    HW280641  11.836  14.827   5.647
26270SOL     OW80642   8.038  13.941   7.899
26270SOL    HW180643   8.068  13.858   7.860
26270SOL    HW280644   7.953  13.920   7.938
26271SOL     OW80645   9.274   6.970   6.708
26271SOL    HW180646   9.317   7.009   6.632
26271SOL    HW280647   9.330   6.993   6.782
26272SOL     OW80648   4.876   6.339  14.214
26272SOL    HW180649   4.898   6.432  14.216
26272SOL    HW280650   4.865   6.316  14.306
26273SOL     OW80651  10.634   6.702  12.596
26273SOL    HW180652  10.547   6.739  12.614
26273SOL    HW280653  10.621   6.644  12.521
26274SOL     OW80654   5.977   2.660  14.517
26274SOL    HW180655   6.049   2.721  14.505
26274SOL    HW280656   6.016   2.585  14.562
26275SOL     OW80657   6.833   5.271  13.293
26275SOL    HW180658   6.899   5.340  13.297
26275SOL    HW280659   6.836   5.239  13.203
26276SOL     OW80660   0.472  10.923  13.614
26276SOL    HW180661   0.558  10.890  13.640
26276SOL    HW280662   0.431  10.850  13.568
26277SOL     OW80663   1.340   9.991  13.522
26277SOL    HW180664   1.424   9.982  13.476
26277SOL    HW280665   1.275   9.992  13.453
26278SOL     OW80666   2.471   9.984   2.569
26278SOL    HW180667   2.427   9.913   2.522
26278SOL    HW280668   2.403  10.051   2.580
26279SOL     OW80669   1.067   6.059  11.051
26279SOL    HW180670   1.019   6.022  11.125
26279SOL    HW280671   1.143   6.102  11.090
26280SOL     OW80672   0.490  14.300   4.252
26280SOL    HW180673   0.533  14.215   4.263
26280SOL    HW280674   0.480  14.334   4.341
26281SOL     OW80675  12.511  12.726   4.108
26281SOL    HW180676  12.519  12.650   4.050
26281SOL    HW280677  12.445  12.781   4.066
26282SOL     OW80678  14.648  10.909   0.587
26282SOL    HW180679  14.726  10.964   0.573
26282SOL    HW280680  14.602  10.911   0.503
26283SOL     OW80681   6.003   5.138  13.944
26283SOL    HW180682   6.066   5.198  13.904
26283SOL    HW280683   5.956   5.191  14.008
26284SOL     OW80684   6.282  13.220   6.649
26284SOL    HW180685   6.273  13.176   6.564
26284SOL    HW280686   6.260  13.311   6.631
26285SOL     OW80687   3.585   4.312   8.809
26285SOL    HW180688   3.673   4.335   8.841
26285SOL    HW280689   3.535   4.293   8.889
26286SOL     OW80690   1.911   6.103  11.744
26286SOL    HW180691   1.999   6.141  11.745
26286SOL    HW280692   1.924   6.012  11.716
26287SOL     OW80693  12.315   4.725   9.339
26287SOL    HW180694  12.239   4.779   9.318
26287SOL    HW280695  12.279   4.649   9.386
26288SOL     OW80696   9.025  11.157   1.859
26288SOL    HW180697   9.055  11.165   1.768
26288SOL    HW280698   9.051  11.240   1.900
26289SOL     OW80699   1.228  11.031   2.606
26289SOL    HW180700   1.170  11.069   2.673
26289SOL    HW280701   1.208  11.081   2.527
26290SOL     OW80702   8.322  11.342   5.024
26290SOL    HW180703   8.394  11.306   4.972
26290SOL    HW280704   8.348  11.326   5.115
26291SOL     OW80705  10.145  14.537  13.603
26291SOL    HW180706  10.153  14.585  13.685
26291SOL    HW280707  10.220  14.478  13.603
26292SOL     OW80708   4.695   6.490  14.613
26292SOL    HW180709   4.732   6.543  14.542
26292SOL    HW280710   4.755   6.504  14.686
26293SOL     OW80711   6.321   5.001  11.039
26293SOL    HW180712   6.263   5.077  11.031
26293SOL    HW280713   6.325   4.965  10.951
26294SOL     OW80714   2.414   1.186  14.421
26294SOL    HW180715   2.326   1.204  14.455
26294SOL    HW280716   2.400   1.120  14.353
26295SOL     OW80717  12.444  13.689   7.013
26295SOL    HW180718  12.507  13.665   6.946
26295SOL    HW280719  12.374  13.623   7.006
26296SOL     OW80720   9.943  12.948   5.046
26296SOL    HW180721   9.957  12.869   5.098
26296SOL    HW280722   9.862  12.932   4.998
26297SOL     OW80723  10.138  11.446  14.429
26297SOL    HW180724  10.161  11.389  14.356
26297SOL    HW280725  10.070  11.398  14.476
26298SOL     OW80726   0.760   4.461  13.622
26298SOL    HW180727   0.669   4.483  13.643
26298SOL    HW280728   0.811   4.536  13.653
26299SOL     OW80729  13.801   6.317   8.635
26299SOL    HW180730  13.896   6.310   8.629
26299SOL    HW280731  13.786   6.396   8.688
26300SOL     OW80732   6.349   8.724   2.971
26300SOL    HW180733   6.284   8.694   3.034
26300SOL    HW280734   6.311   8.706   2.885
26301SOL     OW80735   9.546   3.868  13.953
26301SOL    HW180736   9.466   3.867  14.005
26301SOL    HW280737   9.616   3.869  14.017
26302SOL     OW80738   6.210  14.216   7.004
26302SOL    HW180739   6.264  14.229   7.082
26302SOL    HW280740   6.139  14.159   7.033
26303SOL     OW80741   2.511   4.252   4.793
26303SOL    HW180742   2.582   4.317   4.789
26303SOL    HW280743   2.451   4.287   4.859
26304SOL     OW80744   4.986  12.761   8.222
26304SOL    HW180745   4.913  12.809   8.263
26304SOL    HW280746   4.952  12.673   8.209
26305SOL     OW80747   2.975   8.653   9.317
26305SOL    HW180748   2.912   8.614   9.256
26305SOL    HW280749   2.927   8.658   9.400
26306SOL     OW80750   9.994   5.220   1.300
26306SOL    HW180751   9.967   5.171   1.222
26306SOL    HW280752   9.964   5.309   1.283
26307SOL     OW80753  13.764   2.631  10.645
26307SOL    HW180754  13.732   2.671  10.564
26307SOL    HW280755  13.786   2.705  10.701
26308SOL     OW80756  11.185  13.206  10.431
26308SOL    HW180757  11.217  13.152  10.503
26308SOL    HW280758  11.228  13.290  10.443
26309SOL     OW80759  14.748  12.577  11.001
26309SOL    HW180760  14.696  12.542  10.927
26309SOL    HW280761  14.809  12.638  10.960
26310SOL     OW80762   6.691   5.700  13.825
26310SOL    HW180763   6.760   5.708  13.759
26310SOL    HW280764   6.635   5.629  13.793
26311SOL     OW80765  12.229   4.429  12.149
26311SOL    HW180766  12.206   4.338  12.131
26311SOL    HW280767  12.154   4.463  12.198
26312SOL     OW80768   6.678  13.296  13.096
26312SOL    HW180769   6.670  13.350  13.018
26312SOL    HW280770   6.769  13.307  13.124
26313SOL     OW80771  13.026   1.674   7.687
26313SOL    HW180772  12.990   1.618   7.755
26313SOL    HW280773  12.975   1.653   7.608
26314SOL     OW80774   8.083   3.097  12.634
26314SOL    HW180775   8.086   3.077  12.727
26314SOL    HW280776   8.001   3.144  12.621
26315SOL     OW80777   5.175   6.686   3.448
26315SOL    HW180778   5.080   6.681   3.444
26315SOL    HW280779   5.201   6.725   3.365
26316SOL     OW80780   9.645   0.222   2.302
26316SOL    HW180781   9.707   0.274   2.353
26316SOL    HW280782   9.692   0.142   2.280
26317SOL     OW80783   3.171  11.374   4.515
26317SOL    HW180784   3.152  11.433   4.588
26317SOL    HW280785   3.085  11.343   4.486
26318SOL     OW80786   5.774  10.495   6.149
26318SOL    HW180787   5.726  10.415   6.128
26318SOL    HW280788   5.768  10.549   6.070
26319SOL     OW80789  13.323  11.664  12.541
26319SOL    HW180790  13.343  11.755  12.520
26319SOL    HW280791  13.234  11.667  12.579
26320SOL     OW80792   2.721   2.347  11.772
26320SOL    HW180793   2.671   2.366  11.851
26320SOL    HW280794   2.800   2.401  11.779
26321SOL     OW80795   8.933  12.462   3.152
26321SOL    HW180796   8.968  12.499   3.071
26321SOL    HW280797   9.004  12.472   3.216
26322SOL     OW80798  12.309  13.255   9.184
26322SOL    HW180799  12.346  13.301   9.259
26322SOL    HW280800  12.327  13.311   9.109
26323SOL     OW80801   4.870  10.648   6.890
26323SOL    HW180802   4.926  10.676   6.962
26323SOL    HW280803   4.925  10.590   6.838
26324SOL     OW80804   7.555   5.692   4.894
26324SOL    HW180805   7.475   5.680   4.945
26324SOL    HW280806   7.555   5.785   4.871
26325SOL     OW80807   3.310   8.301   8.220
26325SOL    HW180808   3.391   8.250   8.224
26325SOL    HW280809   3.249   8.254   8.276
26326SOL     OW80810   2.730   8.535   8.003
26326SOL    HW180811   2.807   8.586   7.978
26326SOL    HW280812   2.757   8.487   8.081
26327SOL     OW80813   8.694  13.522   3.951
26327SOL    HW180814   8.782  13.501   3.919
26327SOL    HW280815   8.638  13.514   3.874
26328SOL     OW80816  12.885  11.978   9.155
26328SOL    HW180817  12.938  12.035   9.210
26328SOL    HW280818  12.807  11.959   9.207
26329SOL     OW80819  10.656   1.648   0.880
26329SOL    HW180820  10.582   1.684   0.929
26329SOL    HW280821  10.733   1.691   0.917
26330SOL     OW80822  14.353   7.903  13.361
26330SOL    HW180823  14.406   7.978  13.388
26330SOL    HW280824  14.322   7.865  13.443
26331SOL     OW80825  14.748   7.953  12.870
26331SOL    HW180826  14.751   7.941  12.965
26331SOL    HW280827  14.837   7.977  12.846
26332SOL     OW80828   1.746   2.268  12.506
26332SOL    HW180829   1.792   2.253  12.589
26332SOL    HW280830   1.748   2.183  12.462
26333SOL     OW80831   6.909  11.699   4.054
26333SOL    HW180832   6.938  11.776   4.005
26333SOL    HW280833   6.923  11.626   3.994
26334SOL     OW80834   9.958  10.918   2.555
26334SOL    HW180835  10.007  10.876   2.625
26334SOL    HW280836   9.901  10.981   2.599
26335SOL     OW80837   0.297   3.094   5.852
26335SOL    HW180838   0.311   3.045   5.933
26335SOL    HW280839   0.329   3.182   5.872
26336SOL     OW80840  11.623  12.353   1.080
26336SOL    HW180841  11.599  12.313   0.996
26336SOL    HW280842  11.589  12.442   1.075
26337SOL     OW80843   0.054   8.066   6.849
26337SOL    HW180844  14.855   8.117   6.887
26337SOL    HW280845   0.078   8.113   6.769
26338SOL     OW80846   1.295   7.281   6.313
26338SOL    HW180847   1.381   7.314   6.338
26338SOL    HW280848   1.312   7.217   6.244
26339SOL     OW80849  10.843   6.390   0.417
26339SOL    HW180850  10.870   6.321   0.355
26339SOL    HW280851  10.925   6.431   0.444
26340SOL     OW80852  13.160  14.442  14.492
26340SOL    HW180853  13.192  14.528  14.521
26340SOL    HW280854  13.230  14.381  14.516
26341SOL     OW80855  10.036   8.363   3.549
26341SOL    HW180856  10.104   8.404   3.602
26341SOL    HW280857  10.068   8.369   3.459
26342SOL     OW80858   0.613  13.584  12.061
26342SOL    HW180859   0.707  13.593  12.079
26342SOL    HW280860   0.572  13.649  12.118
26343SOL     OW80861  11.555   9.918   7.230
26343SOL    HW180862  11.486   9.984   7.233
26343SOL    HW280863  11.585   9.911   7.320
26344SOL     OW80864  12.097  10.158   3.247
26344SOL    HW180865  12.181  10.119   3.224
26344SOL    HW280866  12.039  10.084   3.261
26345SOL     OW80867   7.001   0.167  10.181
26345SOL    HW180868   7.065   0.159  10.251
26345SOL    HW280869   7.048   0.206  10.108
26346SOL     OW80870   8.995   0.224   7.754
26346SOL    HW180871   8.940   0.254   7.826
26346SOL    HW280872   8.979   0.130   7.749
26347SOL     OW80873   3.164   5.337  12.561
26347SOL    HW180874   3.252   5.341  12.523
26347SOL    HW280875   3.111   5.393  12.504
26348SOL     OW80876   3.375   4.418   8.652
26348SOL    HW180877   3.447   4.385   8.706
26348SOL    HW280878   3.417   4.458   8.577
26349SOL     OW80879   8.687  13.171  10.301
26349SOL    HW180880   8.648  13.084  10.298
26349SOL    HW280881   8.698  13.189  10.394
26350SOL     OW80882   5.443   9.293  13.959
26350SOL    HW180883   5.510   9.279  13.892
26350SOL    HW280884   5.408   9.380  13.941
26351SOL     OW80885   0.383   9.515   9.751
26351SOL    HW180886   0.333   9.435   9.743
26351SOL    HW280887   0.381   9.554   9.663
26352SOL     OW80888   5.927  13.894   9.764
26352SOL    HW180889   6.014  13.884   9.803
26352SOL    HW280890   5.888  13.968   9.810
26353SOL     OW80891  14.125  11.833   5.977
26353SOL    HW180892  14.219  11.828   5.993
26353SOL    HW280893  14.100  11.920   6.008
26354SOL     OW80894  14.188   0.993   6.290
26354SOL    HW180895  14.261   0.941   6.323
26354SOL    HW280896  14.217   1.084   6.300
26355SOL     OW80897  11.502   7.219   6.338
26355SOL    HW180898  11.515   7.303   6.293
26355SOL    HW280899  11.577   7.212   6.397
26356SOL     OW80900   7.067   8.587  10.024
26356SOL    HW180901   7.064   8.534   9.944
26356SOL    HW280902   6.978   8.620  10.034
26357SOL     OW80903   8.560   0.996   4.603
26357SOL    HW180904   8.568   1.019   4.696
26357SOL    HW280905   8.570   1.080   4.557
26358SOL     OW80906   8.140   1.296  10.685
26358SOL    HW180907   8.118   1.240  10.760
26358SOL    HW280908   8.215   1.251  10.644
26359SOL     OW80909   5.298   0.833   7.960
26359SOL    HW180910   5.248   0.801   7.885
26359SOL    HW280911   5.374   0.774   7.965
26360SOL     OW80912   7.105   3.960   0.293
26360SOL    HW180913   7.090   3.931   0.383
26360SOL    HW280914   7.191   3.926   0.270
26361SOL     OW80915   7.477   5.936   1.401
26361SOL    HW180916   7.494   5.861   1.457
26361SOL    HW280917   7.401   5.979   1.440
26362SOL     OW80918   2.468   6.201   1.087
26362SOL    HW180919   2.421   6.227   1.166
26362SOL    HW280920   2.400   6.179   1.024
26363SOL     OW80921  11.295  10.703   3.039
26363SOL    HW180922  11.203  10.711   3.062
26363SOL    HW280923  11.308  10.766   2.969
26364SOL     OW80924   1.570   8.945   4.680
26364SOL    HW180925   1.581   8.892   4.601
26364SOL    HW280926   1.642   9.007   4.677
26365SOL     OW80927   5.297  12.116   0.700
26365SOL    HW180928   5.221  12.148   0.651
26365SOL    HW280929   5.319  12.189   0.759
26366SOL     OW80930  14.061  10.201   9.003
26366SOL    HW180931  14.089  10.139   8.936
26366SOL    HW280932  13.988  10.249   8.963
26367SOL     OW80933   5.854   8.882   2.388
26367SOL    HW180934   5.830   8.974   2.384
26367SOL    HW280935   5.931   8.876   2.331
26368SOL     OW80936  12.826   8.717  14.050
26368SOL    HW180937  12.740   8.747  14.077
26368SOL    HW280938  12.843   8.764  13.968
26369SOL     OW80939   0.851   9.763  11.567
26369SOL    HW180940   0.820   9.695  11.507
26369SOL    HW280941   0.914   9.813  11.515
26370SOL     OW80942   5.632  13.555   0.109
26370SOL    HW180943   5.634  13.490   0.038
26370SOL    HW280944   5.662  13.636   0.068
26371SOL     OW80945  11.784   8.930   9.203
26371SOL    HW180946  11.859   8.883   9.167
26371SOL    HW280947  11.708   8.897   9.155
26372SOL     OW80948  13.335  13.848   8.278
26372SOL    HW180949  13.353  13.942   8.272
26372SOL    HW280950  13.420  13.806   8.269
26373SOL     OW80951  12.466   5.514   0.109
26373SOL    HW180952  12.431   5.553   0.029
26373SOL    HW280953  12.397   5.456   0.140
26374SOL     OW80954  14.732   2.191  13.895
26374SOL    HW180955  14.807   2.194  13.836
26374SOL    HW280956  14.741   2.108  13.941
26375SOL     OW80957   4.319   8.557   4.664
26375SOL    HW180958   4.229   8.590   4.665
26375SOL    HW280959   4.374   8.635   4.678
26376SOL     OW80960   2.089  10.404   4.563
26376SOL    HW180961   2.127  10.466   4.625
26376SOL    HW280962   2.018  10.363   4.612
26377SOL     OW80963   0.016   3.139   9.960
26377SOL    HW180964  14.834   3.172   9.889
26377SOL    HW280965   0.097   3.111   9.917
26378SOL     OW80966   9.889   5.705   9.962
26378SOL    HW180967   9.965   5.672   9.914
26378SOL    HW280968   9.824   5.635   9.954
26379SOL     OW80969   6.911   4.785  11.105
26379SOL    HW180970   6.831   4.742  11.135
26379SOL    HW280971   6.977   4.716  11.105
26380SOL     OW80972   6.248   7.140  14.352
26380SOL    HW180973   6.164   7.123  14.394
26380SOL    HW280974   6.262   7.234  14.361
26381SOL     OW80975   3.249   8.910   7.119
26381SOL    HW180976   3.202   8.838   7.162
26381SOL    HW280977   3.289   8.959   7.191
26382SOL     OW80978  13.175   5.171   6.093
26382SOL    HW180979  13.112   5.143   6.160
26382SOL    HW280980  13.245   5.105   6.097
26383SOL     OW80981   8.562   3.060  10.390
26383SOL    HW180982   8.535   3.134  10.336
26383SOL    HW280983   8.648   3.086  10.424
26384SOL     OW80984  11.744  10.566   2.641
26384SOL    HW180985  11.745  10.515   2.722
26384SOL    HW280986  11.652  10.588   2.628
26385SOL     OW80987   8.550   8.302   7.494
26385SOL    HW180988   8.455   8.303   7.480
26385SOL    HW280989   8.581   8.385   7.457
26386SOL     OW80990  11.768   6.858   3.630
26386SOL    HW180991  11.773   6.894   3.718
26386SOL    HW280992  11.696   6.905   3.588
26387SOL     OW80993   8.608   5.945   1.050
26387SOL    HW180994   8.688   5.981   1.088
26387SOL    HW280995   8.631   5.921   0.961
26388SOL     OW80996   0.559   3.062   2.795
26388SOL    HW180997   0.603   3.126   2.851
26388SOL    HW280998   0.575   3.091   2.706
26389SOL     OW80999  11.103   1.485   4.905
26389SOL    HW181000  11.115   1.576   4.878
26389SOL    HW281001  11.102   1.435   4.824
26390SOL     OW81002  10.566  12.142   8.598
26390SOL    HW181003  10.527  12.071   8.547
26390SOL    HW281004  10.656  12.113   8.614
26391SOL     OW81005  12.952   6.954  12.005
26391SOL    HW181006  13.012   6.980  11.935
26391SOL    HW281007  12.884   7.021  12.006
26392SOL     OW81008   7.663  12.652  14.582
26392SOL    HW181009   7.613  12.687  14.508
26392SOL    HW281010   7.636  12.561  14.589
26393SOL     OW81011   2.772   4.617   2.199
26393SOL    HW181012   2.863   4.606   2.223
26393SOL    HW281013   2.745   4.531   2.166
26394SOL     OW81014   5.182  14.758  10.646
26394SOL    HW181015   5.276  14.753  10.662
26394SOL    HW281016   5.154  14.837  10.692
26395SOL     OW81017   7.133  10.402   4.273
26395SOL    HW181018   7.120  10.428   4.181
26395SOL    HW281019   7.072  10.456   4.322
26396SOL     OW81020   2.091   4.297   9.151
26396SOL    HW181021   2.046   4.222   9.113
26396SOL    HW281022   2.128   4.343   9.075
26397SOL     OW81023   3.089   3.109   4.657
26397SOL    HW181024   3.100   3.113   4.562
26397SOL    HW281025   3.117   3.196   4.688
26398SOL     OW81026   7.103   8.323  13.270
26398SOL    HW181027   7.120   8.251  13.210
26398SOL    HW281028   7.102   8.401  13.215
26399SOL     OW81029  12.075   3.939  10.428
26399SOL    HW181030  12.167   3.919  10.414
26399SOL    HW281031  12.058   4.015  10.372
26400SOL     OW81032  10.760   3.972   8.460
26400SOL    HW181033  10.785   3.882   8.436
26400SOL    HW281034  10.844   4.019   8.467
26401SOL     OW81035   0.395  12.344   6.925
26401SOL    HW181036   0.421  12.418   6.869
26401SOL    HW281037   0.302  12.331   6.905
26402SOL     OW81038   1.043   1.296   5.071
26402SOL    HW181039   0.989   1.331   5.000
26402SOL    HW281040   1.049   1.367   5.134
26403SOL     OW81041  13.494  13.766  13.890
26403SOL    HW181042  13.544  13.823  13.950
26403SOL    HW281043  13.559  13.735  13.827
26404SOL     OW81044   0.638   7.815   8.250
26404SOL    HW181045   0.619   7.738   8.304
26404SOL    HW281046   0.727   7.800   8.217
26405SOL     OW81047  14.850   0.243   4.673
26405SOL    HW181048  14.868   0.327   4.630
26405SOL    HW281049   0.030   0.246   4.753
26406SOL     OW81050   0.431   3.143   4.620
26406SOL    HW181051   0.416   3.144   4.714
26406SOL    HW281052   0.502   3.080   4.608
26407SOL     OW81053   7.082   0.021  11.306
26407SOL    HW181054   7.055  14.829  11.241
26407SOL    HW281055   7.133   0.085  11.256
26408SOL     OW81056   9.048   5.413  12.550
26408SOL    HW181057   9.046   5.360  12.630
26408SOL    HW281058   9.126   5.468  12.560
26409SOL     OW81059   6.495   4.271  13.666
26409SOL    HW181060   6.459   4.245  13.581
26409SOL    HW281061   6.463   4.205  13.727
26410SOL     OW81062  12.301   0.723   8.787
26410SOL    HW181063  12.349   0.676   8.718
26410SOL    HW281064  12.234   0.772   8.740
26411SOL     OW81065   1.671   7.157   6.803
26411SOL    HW181066   1.647   7.068   6.778
26411SOL    HW281067   1.730   7.146   6.877
26412SOL     OW81068   8.297   0.600   2.348
26412SOL    HW181069   8.213   0.556   2.331
26412SOL    HW281070   8.321   0.638   2.263
26413SOL     OW81071   2.726   1.172  10.837
26413SOL    HW181072   2.767   1.251  10.801
26413SOL    HW281073   2.634   1.197  10.848
26414SOL     OW81074   2.211   5.297   2.065
26414SOL    HW181075   2.227   5.212   2.026
26414SOL    HW281076   2.290   5.316   2.115
26415SOL     OW81077   6.538   2.280   4.236
26415SOL    HW181078   6.472   2.280   4.167
26415SOL    HW281079   6.539   2.370   4.268
26416SOL     OW81080   1.373   7.252   3.288
26416SOL    HW181081   1.398   7.164   3.318
26416SOL    HW281082   1.439   7.310   3.327
26417SOL     OW81083   1.691  14.176   5.139
26417SOL    HW181084   1.635  14.253   5.125
26417SOL    HW281085   1.777  14.213   5.158
26418SOL     OW81086  11.777   4.631   9.655
26418SOL    HW181087  11.699   4.577   9.642
26418SOL    HW281088  11.756   4.688   9.729
26419SOL     OW81089   1.214   1.372   3.308
26419SOL    HW181090   1.119   1.375   3.321
26419SOL    HW281091   1.237   1.280   3.321
26420SOL     OW81092   8.021   2.159   4.750
26420SOL    HW181093   8.060   2.246   4.763
26420SOL    HW281094   8.018   2.148   4.655
26421SOL     OW81095   2.574   4.569  12.366
26421SOL    HW181096   2.596   4.481  12.396
26421SOL    HW281097   2.632   4.585  12.292
26422SOL     OW81098   0.903   1.443  10.998
26422SOL    HW181099   0.831   1.505  10.993
26422SOL    HW281100   0.977   1.495  11.029
26423SOL     OW81101  11.976   5.823   3.360
26423SOL    HW181102  12.020   5.878   3.297
26423SOL    HW281103  12.042   5.758   3.386
26424SOL     OW81104   8.063   7.162  12.329
26424SOL    HW181105   8.135   7.138  12.270
26424SOL    HW281106   8.100   7.229  12.387
26425SOL     OW81107  13.548   6.074  12.647
26425SOL    HW181108  13.576   6.036  12.564
26425SOL    HW281109  13.459   6.041  12.660
26426SOL     OW81110   1.980   9.433   0.497
26426SOL    HW181111   1.901   9.401   0.541
26426SOL    HW281112   2.048   9.428   0.565
26427SOL     OW81113   5.536   0.066   9.822
26427SOL    HW181114   5.521   0.130   9.892
26427SOL    HW281115   5.494  14.859   9.853
26428SOL     OW81116  10.882   8.608  13.301
26428SOL    HW181117  10.885   8.652  13.385
26428SOL    HW281118  10.886   8.678  13.236
26429SOL     OW81119  10.196   2.032   0.039
26429SOL    HW181120  10.129   1.965   0.045
26429SOL    HW281121  10.168   2.089  14.840
26430SOL     OW81122   1.876  10.636   2.528
26430SOL    HW181123   1.861  10.658   2.436
26430SOL    HW281124   1.912  10.716   2.567
26431SOL     OW81125   5.085  11.513   9.076
26431SOL    HW181126   5.125  11.587   9.030
26431SOL    HW281127   5.145  11.440   9.060
26432SOL     OW81128   8.103   4.102   2.042
26432SOL    HW181129   8.176   4.041   2.041
26432SOL    HW281130   8.025   4.047   2.034
26433SOL     OW81131   8.062  10.876   8.246
26433SOL    HW181132   8.107  10.909   8.324
26433SOL    HW281133   7.999  10.945   8.225
26434SOL     OW81134   7.190   8.804   0.846
26434SOL    HW181135   7.127   8.821   0.916
26434SOL    HW281136   7.146   8.743   0.787
26435SOL     OW81137  11.408   8.989  11.289
26435SOL    HW181138  11.424   9.082  11.274
26435SOL    HW281139  11.355   8.961  11.213
26436SOL     OW81140   7.490  12.228   7.620
26436SOL    HW181141   7.541  12.303   7.589
26436SOL    HW281142   7.519  12.155   7.566
26437SOL     OW81143   9.474   6.773  13.981
26437SOL    HW181144   9.415   6.823  14.037
26437SOL    HW281145   9.547   6.750  14.038
26438SOL     OW81146  10.112   1.303   2.695
26438SOL    HW181147  10.107   1.377   2.635
26438SOL    HW281148  10.039   1.316   2.756
26439SOL     OW81149  10.612   4.359   2.646
26439SOL    HW181150  10.580   4.312   2.569
26439SOL    HW281151  10.583   4.449   2.632
26440SOL     OW81152  11.083   9.305   3.378
26440SOL    HW181153  11.152   9.244   3.404
26440SOL    HW281154  11.107   9.388   3.419
26441SOL     OW81155  10.699   1.062   6.004
26441SOL    HW181156  10.690   1.006   6.081
26441SOL    HW281157  10.622   1.042   5.951
26442SOL     OW81158   0.563  14.481   8.095
26442SOL    HW181159   0.499  14.420   8.133
26442SOL    HW281160   0.511  14.559   8.073
26443SOL     OW81161   5.582  10.059  13.450
26443SOL    HW181162   5.647  10.126  13.473
26443SOL    HW281163   5.503  10.109  13.430
26444SOL     OW81164   9.546   2.184   8.839
26444SOL    HW181165   9.500   2.171   8.922
26444SOL    HW281166   9.635   2.208   8.865
26445SOL     OW81167   1.819  11.041   5.094
26445SOL    HW181168   1.850  11.097   5.165
26445SOL    HW281169   1.758  11.095   5.044
26446SOL     OW81170   8.159   0.392   0.234
26446SOL    HW181171   8.121   0.335   0.301
26446SOL    HW281172   8.175   0.334   0.160
26447SOL     OW81173  13.643  12.937  14.229
26447SOL    HW181174  13.693  12.984  14.162
26447SOL    HW281175  13.701  12.865  14.256
26448SOL     OW81176   0.209  12.983  10.494
26448SOL    HW181177   0.234  13.016  10.580
26448SOL    HW281178   0.272  12.913  10.475
26449SOL     OW81179   3.255   2.105  11.158
26449SOL    HW181180   3.244   2.131  11.067
26449SOL    HW281181   3.173   2.129  11.201
26450SOL     OW81182   5.575   7.382   0.456
26450SOL    HW181183   5.607   7.355   0.542
26450SOL    HW281184   5.640   7.445   0.424
26451SOL     OW81185  13.828   6.793   1.106
26451SOL    HW181186  13.811   6.788   1.012
26451SOL    HW281187  13.872   6.710   1.126
26452SOL     OW81188  11.150   1.184   5.277
26452SOL    HW181189  11.081   1.152   5.335
26452SOL    HW281190  11.108   1.254   5.226
26453SOL     OW81191  14.033   0.697   4.408
26453SOL    HW181192  14.008   0.631   4.473
26453SOL    HW281193  14.125   0.676   4.388
26454SOL     OW81194   4.815  13.409   6.300
26454SOL    HW181195   4.724  13.391   6.324
26454SOL    HW281196   4.847  13.466   6.370
26455SOL     OW81197  11.450   4.838   1.633
26455SOL    HW181198  11.425   4.819   1.723
26455SOL    HW281199  11.368   4.843   1.585
26456SOL     OW81200   8.985   6.464   8.861
26456SOL    HW181201   9.057   6.413   8.898
26456SOL    HW281202   8.920   6.399   8.835
26457SOL     OW81203   4.379   3.028   4.946
26457SOL    HW181204   4.298   2.979   4.935
26457SOL    HW281205   4.386   3.081   4.866
26458SOL     OW81206   9.823  12.873  13.849
26458SOL    HW181207   9.820  12.800  13.912
26458SOL    HW281208   9.795  12.834  13.766
26459SOL     OW81209  10.335  10.870  14.701
26459SOL    HW181210  10.382  10.941  14.745
26459SOL    HW281211  10.249  10.869  14.743
26460SOL     OW81212   4.065  13.495   2.255
26460SOL    HW181213   4.138  13.468   2.201
26460SOL    HW281214   4.105  13.530   2.335
26461SOL     OW81215   3.322   4.732  14.672
26461SOL    HW181216   3.412   4.763  14.667
26461SOL    HW281217   3.297   4.715  14.581
26462SOL     OW81218   9.900   1.071   8.915
26462SOL    HW181219   9.805   1.069   8.911
26462SOL    HW281220   9.920   1.102   9.003
26463SOL     OW81221  14.374   4.945  12.005
26463SOL    HW181222  14.356   4.893  12.084
26463SOL    HW281223  14.451   4.997  12.028
26464SOL     OW81224   6.531   5.046   7.474
26464SOL    HW181225   6.528   5.131   7.430
26464SOL    HW281226   6.441   5.029   7.498
26465SOL     OW81227  12.252   6.888  14.515
26465SOL    HW181228  12.253   6.880  14.420
26465SOL    HW281229  12.266   6.799  14.547
26466SOL     OW81230  12.793   5.992   2.976
26466SOL    HW181231  12.831   6.003   2.889
26466SOL    HW281232  12.732   5.918   2.967
26467SOL     OW81233   9.044   4.976   2.354
26467SOL    HW181234   9.077   5.062   2.329
26467SOL    HW281235   9.023   4.984   2.447
26468SOL     OW81236  11.166   1.647   8.938
26468SOL    HW181237  11.080   1.619   8.970
26468SOL    HW281238  11.227   1.584   8.977
26469SOL     OW81239  12.411   0.844   4.319
26469SOL    HW181240  12.382   0.883   4.401
26469SOL    HW281241  12.485   0.900   4.292
26470SOL     OW81242   6.298   1.008   5.591
26470SOL    HW181243   6.345   0.958   5.524
26470SOL    HW281244   6.212   1.025   5.551
26471SOL     OW81245   1.410   7.193  12.852
26471SOL    HW181246   1.340   7.131  12.830
26471SOL    HW281247   1.482   7.169  12.793
26472SOL     OW81248  10.608   5.171   9.097
26472SOL    HW181249  10.586   5.086   9.135
26472SOL    HW281250  10.691   5.195   9.139
26473SOL     OW81251   6.760   0.202   1.200
26473SOL    HW181252   6.783   0.205   1.293
26473SOL    HW281253   6.689   0.138   1.195
26474SOL     OW81254   1.489   6.534   6.271
26474SOL    HW181255   1.444   6.519   6.354
26474SOL    HW281256   1.580   6.508   6.288
26475SOL     OW81257  13.410   3.400   9.296
26475SOL    HW181258  13.394   3.475   9.354
26475SOL    HW281259  13.448   3.439   9.217
26476SOL     OW81260   0.181   5.999   2.811
26476SOL    HW181261   0.208   5.972   2.898
26476SOL    HW281262   0.260   5.995   2.758
26477SOL     OW81263   2.179   4.071   1.986
26477SOL    HW181264   2.243   4.091   1.918
26477SOL    HW281265   2.203   3.983   2.017
26478SOL     OW81266   4.767   1.964   7.461
26478SOL    HW181267   4.682   1.987   7.498
26478SOL    HW281268   4.754   1.969   7.366
26479SOL     OW81269   9.357   7.428   2.642
26479SOL    HW181270   9.272   7.453   2.607
26479SOL    HW281271   9.353   7.454   2.734
26480SOL     OW81272   6.628   9.125   9.304
26480SOL    HW181273   6.542   9.160   9.279
26480SOL    HW281274   6.638   9.149   9.396
26481SOL     OW81275  10.148   6.219   2.425
26481SOL    HW181276  10.132   6.237   2.518
26481SOL    HW281277  10.072   6.255   2.380
26482SOL     OW81278  12.107  10.464   1.587
26482SOL    HW181279  12.032  10.515   1.557
26482SOL    HW281280  12.086  10.441   1.678
26483SOL     OW81281   7.335   9.322   1.416
26483SOL    HW181282   7.424   9.356   1.416
26483SOL    HW281283   7.293   9.365   1.491
26484SOL     OW81284  12.529   0.478   9.564
26484SOL    HW181285  12.545   0.476   9.469
26484SOL    HW281286  12.521   0.571   9.584
26485SOL     OW81287  11.612   5.803   1.419
26485SOL    HW181288  11.697   5.778   1.456
26485SOL    HW281289  11.600   5.894   1.446
26486SOL     OW81290  11.531  14.684   0.674
26486SOL    HW181291  11.599  14.634   0.629
26486SOL    HW281292  11.454  14.676   0.618
26487SOL     OW81293   6.292   1.558   0.890
26487SOL    HW181294   6.197   1.564   0.876
26487SOL    HW281295   6.304   1.579   0.983
26488SOL     OW81296   0.202   2.018  10.805
26488SOL    HW181297   0.262   1.993  10.735
26488SOL    HW281298   0.160   2.098  10.772
26489SOL     OW81299   0.021  14.787  14.680
26489SOL    HW181300  14.830  14.836  14.628
26489SOL    HW281301   0.102  14.836  14.672
26490SOL     OW81302  14.862   3.963   9.697
26490SOL    HW181303  14.834   3.922   9.778
26490SOL    HW281304  14.782   4.002   9.661
26491SOL     OW81305   0.475   1.450   1.965
26491SOL    HW181306   0.451   1.526   1.912
26491SOL    HW281307   0.391   1.410   1.988
26492SOL     OW81308   3.400  11.710  12.434
26492SOL    HW181309   3.433  11.793  12.400
26492SOL    HW281310   3.468  11.647  12.412
26493SOL     OW81311  13.729  11.380   2.706
26493SOL    HW181312  13.649  11.343   2.669
26493SOL    HW281313  13.783  11.305   2.727
26494SOL     OW81314   0.203   3.579  10.309
26494SOL    HW181315   0.218   3.503  10.253
26494SOL    HW281316   0.289   3.599  10.346
26495SOL     OW81317   7.725   3.007   7.508
26495SOL    HW181318   7.726   3.095   7.545
26495SOL    HW281319   7.633   2.985   7.499
26496SOL     OW81320  12.661   0.686  11.656
26496SOL    HW181321  12.687   0.655  11.568
26496SOL    HW281322  12.594   0.624  11.684
26497SOL     OW81323  10.115  13.111  12.486
26497SOL    HW181324  10.040  13.122  12.545
26497SOL    HW281325  10.157  13.197  12.484
26498SOL     OW81326  11.837  12.223   1.254
26498SOL    HW181327  11.779  12.289   1.217
26498SOL    HW281328  11.886  12.269   1.322
26499SOL     OW81329   0.443  10.964  13.927
26499SOL    HW181330   0.404  11.042  13.966
26499SOL    HW281331   0.407  10.961  13.839
26500SOL     OW81332   6.837   0.358   0.601
26500SOL    HW181333   6.872   0.439   0.564
26500SOL    HW281334   6.782   0.322   0.532
26501SOL     OW81335   7.248  11.364   9.339
26501SOL    HW181336   7.265  11.414   9.259
26501SOL    HW281337   7.160  11.391   9.365
26502SOL     OW81338   3.102   0.622  10.018
26502SOL    HW181339   3.092   0.700   9.963
26502SOL    HW281340   3.119   0.551   9.956
26503SOL     OW81341   9.887   2.477  10.132
26503SOL    HW181342   9.910   2.570  10.139
26503SOL    HW281343   9.801   2.471  10.175
26504SOL     OW81344   2.550   5.388   7.560
26504SOL    HW181345   2.522   5.300   7.537
26504SOL    HW281346   2.518   5.402   7.649
26505SOL     OW81347   7.341   5.462   6.762
26505SOL    HW181348   7.313   5.378   6.797
26505SOL    HW281349   7.412   5.489   6.821
26506SOL     OW81350  13.977   1.359   8.520
26506SOL    HW181351  14.044   1.291   8.531
26506SOL    HW281352  14.027   1.438   8.497
26507SOL     OW81353  14.567   8.161  10.149
26507SOL    HW181354  14.543   8.160  10.242
26507SOL    HW281355  14.659   8.135  10.148
26508SOL     OW81356  11.681  11.685  13.412
26508SOL    HW181357  11.754  11.741  13.385
26508SOL    HW281358  11.710  11.597  13.390
26509SOL     OW81359   8.342   0.078  13.673
26509SOL    HW181360   8.317   0.170  13.686
26509SOL    HW281361   8.370   0.049  13.760
26510SOL     OW81362  10.800   5.773   6.570
26510SOL    HW181363  10.883   5.810   6.600
26510SOL    HW281364  10.738   5.796   6.639
26511SOL     OW81365   0.191  14.860   5.374
26511SOL    HW181366   0.150  14.786   5.330
26511SOL    HW281367   0.285  14.849   5.358
26512SOL     OW81368  12.766   1.798   4.476
26512SOL    HW181369  12.766   1.710   4.512
26512SOL    HW281370  12.766   1.856   4.552
26513SOL     OW81371   0.668   0.049   9.603
26513SOL    HW181372   0.713   0.084   9.526
26513SOL    HW281373   0.659   0.125   9.661
26514SOL     OW81374   4.637   4.466   6.624
26514SOL    HW181375   4.626   4.430   6.535
26514SOL    HW281376   4.548   4.486   6.652
26515SOL     OW81377   5.814   2.691  14.146
26515SOL    HW181378   5.725   2.697  14.181
26515SOL    HW281379   5.801   2.680  14.052
26516SOL     OW81380   8.758   5.757   9.462
26516SOL    HW181381   8.844   5.744   9.420
26516SOL    HW281382   8.719   5.670   9.463
26517SOL     OW81383   9.694   9.023   6.721
26517SOL    HW181384   9.708   8.943   6.771
26517SOL    HW281385   9.602   9.018   6.693
26518SOL     OW81386  10.114  10.173   8.927
26518SOL    HW181387  10.055  10.243   8.955
26518SOL    HW281388  10.105  10.170   8.832
26519SOL     OW81389   5.815  12.727   7.054
26519SOL    HW181390   5.799  12.712   7.147
26519SOL    HW281391   5.779  12.650   7.011
26520SOL     OW81392   9.218   2.512  10.566
26520SOL    HW181393   9.206   2.605  10.584
26520SOL    HW281394   9.307   2.492  10.597
26521SOL     OW81395   0.067  11.589  14.206
26521SOL    HW181396  14.872  11.653  14.183
26521SOL    HW281397   0.051  11.567  14.297
26522SOL     OW81398  13.641  10.045   1.083
26522SOL    HW181399  13.672   9.993   1.158
26522SOL    HW281400  13.632   9.982   1.012
26523SOL     OW81401  12.808  13.733  11.182
26523SOL    HW181402  12.779  13.715  11.092
26523SOL    HW281403  12.849  13.819  11.177
26524SOL     OW81404   4.587   3.482  14.197
26524SOL    HW181405   4.669   3.523  14.223
26524SOL    HW281406   4.519   3.541  14.231
26525SOL     OW81407  12.500  11.584   2.574
26525SOL    HW181408  12.511  11.507   2.631
26525SOL    HW281409  12.515  11.550   2.486
26526SOL     OW81410   5.809   0.044   5.739
26526SOL    HW181411   5.869   0.095   5.794
26526SOL    HW281412   5.867  14.865   5.682
26527SOL     OW81413   5.571   6.254   7.480
26527SOL    HW181414   5.527   6.174   7.452
26527SOL    HW281415   5.664   6.235   7.469
26528SOL     OW81416  13.879   7.266   5.472
26528SOL    HW181417  13.943   7.302   5.411
26528SOL    HW281418  13.927   7.200   5.522
26529SOL     OW81419   3.731   9.959   6.816
26529SOL    HW181420   3.805   9.903   6.841
26529SOL    HW281421   3.724   9.947   6.721
26530SOL     OW81422  10.668   9.882  14.345
26530SOL    HW181423  10.763   9.892  14.356
26530SOL    HW281424  10.635   9.972  14.338
26531SOL     OW81425   7.074   3.685   3.655
26531SOL    HW181426   7.160   3.669   3.616
26531SOL    HW281427   7.091   3.749   3.725
26532SOL     OW81428  10.592   1.595  14.402
26532SOL    HW181429  10.647   1.635  14.469
26532SOL    HW281430  10.563   1.669  14.348
26533SOL     OW81431   5.300   9.094   6.270
26533SOL    HW181432   5.275   9.165   6.329
26533SOL    HW281433   5.231   9.092   6.204
26534SOL     OW81434   4.840   6.801   8.616
26534SOL    HW181435   4.819   6.890   8.646
26534SOL    HW281436   4.814   6.801   8.524
26535SOL     OW81437   8.011  13.978  13.923
26535SOL    HW181438   7.960  13.989  13.843
26535SOL    HW281439   8.089  13.930  13.896
26536SOL     OW81440   3.961   9.202  14.292
26536SOL    HW181441   3.998   9.116  14.314
26536SOL    HW281442   4.022   9.238  14.227
26537SOL     OW81443  11.480   2.872  13.953
26537SOL    HW181444  11.500   2.779  13.964
26537SOL    HW281445  11.399   2.885  14.002
26538SOL     OW81446   7.058   1.343  10.422
26538SOL    HW181447   6.992   1.352  10.354
26538SOL    HW281448   7.118   1.277  10.388
26539SOL     OW81449   6.791   2.213  10.950
26539SOL    HW181450   6.741   2.240  10.873
26539SOL    HW281451   6.742   2.249  11.025
26540SOL     OW81452   4.711   4.142  10.705
26540SOL    HW181453   4.783   4.168  10.647
26540SOL    HW281454   4.730   4.185  10.788
26541SOL     OW81455  13.608   1.355   3.593
26541SOL    HW181456  13.559   1.319   3.520
26541SOL    HW281457  13.610   1.285   3.658
26542SOL     OW81458   1.994  13.965   9.866
26542SOL    HW181459   2.066  13.954   9.805
26542SOL    HW281460   1.918  13.985   9.811
26543SOL     OW81461   5.351   3.290  11.849
26543SOL    HW181462   5.274   3.247  11.885
26543SOL    HW281463   5.386   3.226  11.786
26544SOL     OW81464   6.350  14.327   1.183
26544SOL    HW181465   6.431  14.360   1.221
26544SOL    HW281466   6.376  14.250   1.132
26545SOL     OW81467   4.902   8.054   9.468
26545SOL    HW181468   4.874   7.963   9.456
26545SOL    HW281469   4.825   8.098   9.503
26546SOL     OW81470  10.996  11.524  11.033
26546SOL    HW181471  10.935  11.523  11.106
26546SOL    HW281472  10.953  11.579  10.966
26547SOL     OW81473   8.295   7.705   1.866
26547SOL    HW181474   8.314   7.639   1.800
26547SOL    HW281475   8.288   7.657   1.948
26548SOL     OW81476  13.197  14.617   4.982
26548SOL    HW181477  13.124  14.629   5.043
26548SOL    HW281478  13.157  14.583   4.903
26549SOL     OW81479   2.643  14.279  13.700
26549SOL    HW181480   2.575  14.286  13.767
26549SOL    HW281481   2.605  14.319  13.623
26550SOL     OW81482   9.813  10.833   6.872
26550SOL    HW181483   9.731  10.874   6.844
26550SOL    HW281484   9.808  10.832   6.967
26551SOL     OW81485  14.222   1.185   7.233
26551SOL    HW181486  14.292   1.249   7.219
26551SOL    HW281487  14.238   1.117   7.167
26552SOL     OW81488  12.216  13.411  11.884
26552SOL    HW181489  12.189  13.351  11.954
26552SOL    HW281490  12.185  13.370  11.803
26553SOL     OW81491   9.963   1.314   5.393
26553SOL    HW181492   9.875   1.351   5.380
26553SOL    HW281493   9.978   1.321   5.487
26554SOL     OW81494   3.423   5.311   9.929
26554SOL    HW181495   3.348   5.366   9.951
26554SOL    HW281496   3.443   5.333   9.838
26555SOL     OW81497  12.416  11.240   6.680
26555SOL    HW181498  12.335  11.223   6.632
26555SOL    HW281499  12.457  11.313   6.633
26556SOL     OW81500   3.495  10.342   2.694
26556SOL    HW181501   3.552  10.370   2.623
26556SOL    HW281502   3.452  10.263   2.661
26557SOL     OW81503   7.734   1.541  12.973
26557SOL    HW181504   7.798   1.609  12.994
26557SOL    HW281505   7.649   1.581  12.988
26558SOL     OW81506   1.759   0.375  13.726
26558SOL    HW181507   1.751   0.332  13.812
26558SOL    HW281508   1.740   0.467  13.744
26559SOL     OW81509  10.593   9.069  11.903
26559SOL    HW181510  10.641   9.005  11.956
26559SOL    HW281511  10.647   9.082  11.825
26560SOL     OW81512  13.111   7.991   3.419
26560SOL    HW181513  13.092   7.992   3.325
26560SOL    HW281514  13.160   8.071   3.435
26561SOL     OW81515   7.880  10.355   6.634
26561SOL    HW181516   7.899  10.263   6.618
26561SOL    HW281517   7.953  10.385   6.689
26562SOL     OW81518   8.232  10.699  13.945
26562SOL    HW181519   8.185  10.739  14.018
26562SOL    HW281520   8.316  10.672  13.983
26563SOL     OW81521   1.934   4.362   9.690
26563SOL    HW181522   1.922   4.450   9.656
26563SOL    HW281523   1.942   4.373   9.785
26564SOL     OW81524  11.296   8.160   7.952
26564SOL    HW181525  11.256   8.114   8.025
26564SOL    HW281526  11.229   8.223   7.924
26565SOL     OW81527  10.265  14.548   2.263
26565SOL    HW181528  10.353  14.526   2.293
26565SOL    HW281529  10.278  14.582   2.174
26566SOL     OW81530  13.977   9.520   1.073
26566SOL    HW181531  14.025   9.454   1.023
26566SOL    HW281532  13.942   9.580   1.007
26567SOL     OW81533  12.307   3.820   2.666
26567SOL    HW181534  12.317   3.843   2.574
26567SOL    HW281535  12.222   3.776   2.671
26568SOL     OW81536   4.247   9.564   4.857
26568SOL    HW181537   4.213   9.484   4.815
26568SOL    HW281538   4.168   9.614   4.879
26569SOL     OW81539  11.044   6.586  13.268
26569SOL    HW181540  10.981   6.649  13.303
26569SOL    HW281541  10.993   6.529  13.211
26570SOL     OW81542   7.840   9.579   5.658
26570SOL    HW181543   7.855   9.489   5.629
26570SOL    HW281544   7.751   9.579   5.693
26571SOL     OW81545   4.445   3.847  14.783
26571SOL    HW181546   4.530   3.886  14.805
26571SOL    HW281547   4.389   3.870  14.856
26572SOL     OW81548  12.310   8.252   8.710
26572SOL    HW181549  12.377   8.288   8.653
26572SOL    HW281550  12.244   8.321   8.716
26573SOL     OW81551   5.300   6.335   3.912
26573SOL    HW181552   5.327   6.378   3.831
26573SOL    HW281553   5.380   6.297   3.947
26574SOL     OW81554   7.967   6.341   7.594
26574SOL    HW181555   7.968   6.436   7.603
26574SOL    HW281556   7.916   6.324   7.515
26575SOL     OW81557  12.246   2.329  14.153
26575SOL    HW181558  12.214   2.248  14.193
26575SOL    HW281559  12.273   2.382  14.228
26576SOL     OW81560   4.044  13.524   0.530
26576SOL    HW181561   4.007  13.492   0.447
26576SOL    HW281562   4.129  13.481   0.537
26577SOL     OW81563   0.704   2.277  13.767
26577SOL    HW181564   0.621   2.278  13.719
26577SOL    HW281565   0.681   2.302  13.856
26578SOL     OW81566  10.464  11.578  11.312
26578SOL    HW181567  10.504  11.494  11.331
26578SOL    HW281568  10.394  11.558  11.250
26579SOL     OW81569  12.423   0.102   3.693
26579SOL    HW181570  12.497   0.160   3.674
26579SOL    HW281571  12.388   0.135   3.777
26580SOL     OW81572  11.006   7.969  10.230
26580SOL    HW181573  11.032   7.904  10.165
26580SOL    HW281574  10.960   7.919  10.298
26581SOL     OW81575   7.837   3.048  10.942
26581SOL    HW181576   7.915   3.029  10.889
26581SOL    HW281577   7.828   2.972  10.999
26582SOL     OW81578   9.041   0.616   5.685
26582SOL    HW181579   9.083   0.555   5.747
26582SOL    HW281580   9.094   0.695   5.690
26583SOL     OW81581   4.672   4.557  13.720
26583SOL    HW181582   4.606   4.529  13.656
26583SOL    HW281583   4.686   4.479  13.775
26584SOL     OW81584   6.068   0.508   6.686
26584SOL    HW181585   6.001   0.576   6.678
26584SOL    HW281586   6.037   0.437   6.631
26585SOL     OW81587   2.281   2.783   1.066
26585SOL    HW181588   2.353   2.844   1.055
26585SOL    HW281589   2.304   2.732   1.144
26586SOL     OW81590   2.901   2.868   4.090
26586SOL    HW181591   2.885   2.801   4.024
26586SOL    HW281592   2.991   2.851   4.119
26587SOL     OW81593   5.270  12.254   9.685
26587SOL    HW181594   5.328  12.291   9.619
26587SOL    HW281595   5.220  12.329   9.717
26588SOL     OW81596  13.140   0.322  14.588
26588SOL    HW181597  13.174   0.277  14.665
26588SOL    HW281598  13.057   0.360  14.618
26589SOL     OW81599   8.264  14.761   1.149
26589SOL    HW181600   8.347  14.730   1.185
26589SOL    HW281601   8.286  14.793   1.062
26590SOL     OW81602   3.512   0.798   5.548
26590SOL    HW181603   3.550   0.710   5.551
26590SOL    HW281604   3.581   0.853   5.511
26591SOL     OW81605   1.211   1.162   5.338
26591SOL    HW181606   1.136   1.223   5.337
26591SOL    HW281607   1.288   1.219   5.342
26592SOL     OW81608   5.046   6.541   1.591
26592SOL    HW181609   5.015   6.565   1.678
26592SOL    HW281610   5.011   6.453   1.577
26593SOL     OW81611   8.420   1.022   3.693
26593SOL    HW181612   8.372   1.000   3.613
26593SOL    HW281613   8.353   1.051   3.754
26594SOL     OW81614   3.728   3.413   6.243
26594SOL    HW181615   3.811   3.404   6.290
26594SOL    HW281616   3.672   3.344   6.279
26595SOL     OW81617   3.057   1.902   2.173
26595SOL    HW181618   2.979   1.917   2.121
26595SOL    HW281619   3.075   1.986   2.215
26596SOL     OW81620   3.129  14.617  12.195
26596SOL    HW181621   3.070  14.542  12.194
26596SOL    HW281622   3.213  14.581  12.224
26597SOL     OW81623  13.282   6.865  11.151
26597SOL    HW181624  13.229   6.838  11.076
26597SOL    HW281625  13.220   6.871  11.224
26598SOL     OW81626   9.241  12.450   4.240
26598SOL    HW181627   9.334  12.472   4.231
26598SOL    HW281628   9.233  12.410   4.326
26599SOL     OW81629   6.854   5.759  10.299
26599SOL    HW181630   6.923   5.825  10.291
26599SOL    HW281631   6.890   5.680  10.259
26600SOL     OW81632   9.555   9.468   4.681
26600SOL    HW181633   9.571   9.389   4.732
26600SOL    HW281634   9.636   9.519   4.689
26601SOL     OW81635   0.860   7.090   7.048
26601SOL    HW181636   0.866   7.020   6.983
26601SOL    HW281637   0.799   7.153   7.010
26602SOL     OW81638   2.889   5.276  10.847
26602SOL    HW181639   2.937   5.235  10.775
26602SOL    HW281640   2.814   5.218  10.861
26603SOL     OW81641  11.618  12.314   5.554
26603SOL    HW181642  11.669  12.350   5.627
26603SOL    HW281643  11.562  12.248   5.595
26604SOL     OW81644   0.947  12.560  11.218
26604SOL    HW181645   1.012  12.612  11.265
26604SOL    HW281646   0.954  12.590  11.127
26605SOL     OW81647   0.729  12.988   5.759
26605SOL    HW181648   0.666  13.059   5.771
26605SOL    HW281649   0.739  12.981   5.664
26606SOL     OW81650  13.778   5.613   4.329
26606SOL    HW181651  13.863   5.576   4.307
26606SOL    HW281652  13.731   5.541   4.371
26607SOL     OW81653   2.084   9.041   0.828
26607SOL    HW181654   2.005   9.089   0.853
26607SOL    HW281655   2.080   9.037   0.733
26608SOL     OW81656   7.925  10.600   8.032
26608SOL    HW181657   7.918  10.695   8.042
26608SOL    HW281658   7.843  10.566   8.070
26609SOL     OW81659  14.287   9.473  13.260
26609SOL    HW181660  14.256   9.554  13.220
26609SOL    HW281661  14.382   9.475  13.248
26610SOL     OW81662   1.669  14.561  13.189
26610SOL    HW181663   1.761  14.549  13.212
26610SOL    HW281664   1.665  14.650  13.154
26611SOL     OW81665  12.776  12.182  10.074
26611SOL    HW181666  12.827  12.102  10.061
26611SOL    HW281667  12.823  12.249  10.025
26612SOL     OW81668   1.906  12.834   8.252
26612SOL    HW181669   1.978  12.772   8.243
26612SOL    HW281670   1.839  12.786   8.300
26613SOL     OW81671   9.548   5.157   2.458
26613SOL    HW181672   9.506   5.213   2.523
26613SOL    HW281673   9.575   5.217   2.389
26614SOL     OW81674   1.352   0.941  10.320
26614SOL    HW181675   1.333   0.954  10.227
26614SOL    HW281676   1.341   1.028  10.359
26615SOL     OW81677   4.277   6.901   2.689
26615SOL    HW181678   4.350   6.874   2.633
26615SOL    HW281679   4.264   6.828   2.749
26616SOL     OW81680  13.668   0.651  10.511
26616SOL    HW181681  13.688   0.697  10.429
26616SOL    HW281682  13.706   0.706  10.579
26617SOL     OW81683   0.385  12.349   6.564
26617SOL    HW181684   0.355  12.299   6.488
26617SOL    HW281685   0.418  12.431   6.528
26618SOL     OW81686   2.930   1.951  13.740
26618SOL    HW181687   2.885   1.956  13.824
26618SOL    HW281688   2.877   2.005  13.681
26619SOL     OW81689   1.251   8.675   0.596
26619SOL    HW181690   1.182   8.739   0.580
26619SOL    HW281691   1.228   8.600   0.541
26620SOL     OW81692   5.697   2.312  10.846
26620SOL    HW181693   5.634   2.379  10.871
26620SOL    HW281694   5.781   2.343  10.879
26621SOL     OW81695   1.073   3.528   5.251
26621SOL    HW181696   1.163   3.497   5.257
26621SOL    HW281697   1.060   3.545   5.158
26622SOL     OW81698   0.944  10.390  11.216
26622SOL    HW181699   0.891  10.428  11.146
26622SOL    HW281700   0.902  10.419  11.297
26623SOL     OW81701   9.110   4.736  10.232
26623SOL    HW181702   9.083   4.680  10.159
26623SOL    HW281703   9.181   4.688  10.274
26624SOL     OW81704  13.086  12.891  12.333
26624SOL    HW181705  13.084  12.861  12.424
26624SOL    HW281706  13.023  12.963  12.330
26625SOL     OW81707   6.657   8.668  10.665
26625SOL    HW181708   6.672   8.671  10.570
26625SOL    HW281709   6.562   8.674  10.674
26626SOL     OW81710   3.980   2.497  14.368
26626SOL    HW181711   3.970   2.434  14.440
26626SOL    HW281712   3.923   2.462  14.299
26627SOL     OW81713  14.148  10.062  14.120
26627SOL    HW181714  14.160   9.968  14.123
26627SOL    HW281715  14.214  10.097  14.179
26628SOL     OW81716   6.092   7.437   0.253
26628SOL    HW181717   6.122   7.428   0.343
26628SOL    HW281718   6.001   7.407   0.255
26629SOL     OW81719  10.206   9.826   4.270
26629SOL    HW181720  10.273   9.803   4.206
26629SOL    HW281721  10.192   9.920   4.258
26630SOL     OW81722   4.932   5.017   2.557
26630SOL    HW181723   4.868   5.023   2.486
26630SOL    HW281724   4.981   5.099   2.552
26631SOL     OW81725   3.677   4.366   3.874
26631SOL    HW181726   3.766   4.331   3.875
26631SOL    HW281727   3.644   4.343   3.788
26632SOL     OW81728   0.105  12.115   7.264
26632SOL    HW181729   0.191  12.140   7.296
26632SOL    HW281730   0.050  12.113   7.342
26633SOL     OW81731  10.846   5.385  12.476
26633SOL    HW181732  10.810   5.315  12.422
26633SOL    HW281733  10.843   5.463  12.420
26634SOL     OW81734  12.386   6.293  14.115
26634SOL    HW181735  12.427   6.307  14.201
26634SOL    HW281736  12.371   6.198  14.112
26635SOL     OW81737   8.006  10.086  14.377
26635SOL    HW181738   7.922  10.132  14.374
26635SOL    HW281739   7.982   9.994  14.389
26636SOL     OW81740   5.410  14.006  10.230
26636SOL    HW181741   5.497  13.973  10.210
26636SOL    HW281742   5.419  14.050  10.315
26637SOL     OW81743  14.595   7.584   4.232
26637SOL    HW181744  14.582   7.506   4.286
26637SOL    HW281745  14.574   7.657   4.291
26638SOL     OW81746   3.207   1.214   0.967
26638SOL    HW181747   3.157   1.211   1.048
26638SOL    HW281748   3.298   1.221   0.996
26639SOL     OW81749   2.158  14.619  13.693
26639SOL    HW181750   2.155  14.589  13.784
26639SOL    HW281751   2.106  14.555  13.644
26640SOL     OW81752   5.119  14.606   9.244
26640SOL    HW181753   5.101  14.694   9.276
26640SOL    HW281754   5.033  14.569   9.226
26641SOL     OW81755  14.310   2.677   7.652
26641SOL    HW181756  14.337   2.615   7.585
26641SOL    HW281757  14.217   2.657   7.668
26642SOL     OW81758  10.389   0.819   6.432
26642SOL    HW181759  10.409   0.725   6.429
26642SOL    HW281760  10.336   0.829   6.511
26643SOL     OW81761   1.636  12.464   3.296
26643SOL    HW181762   1.643  12.370   3.278
26643SOL    HW281763   1.725  12.490   3.321
26644SOL     OW81764  14.001   8.851   8.782
26644SOL    HW181765  13.910   8.879   8.791
26644SOL    HW281766  14.052   8.919   8.826
26645SOL     OW81767   9.652   1.934   5.096
26645SOL    HW181768   9.598   1.860   5.067
26645SOL    HW281769   9.704   1.958   5.020
26646SOL     OW81770   6.714   2.210   6.586
26646SOL    HW181771   6.764   2.249   6.657
26646SOL    HW281772   6.773   2.145   6.548
26647SOL     OW81773   2.026   7.787  12.665
26647SOL    HW181774   1.941   7.743  12.669
26647SOL    HW281775   2.008   7.878  12.688
26648SOL     OW81776   4.375   2.288   2.609
26648SOL    HW181777   4.280   2.285   2.597
26648SOL    HW281778   4.387   2.332   2.694
26649SOL     OW81779   3.183   6.870   3.082
26649SOL    HW181780   3.096   6.853   3.117
26649SOL    HW281781   3.172   6.866   2.987
26650SOL     OW81782   3.668  12.675   6.625
26650SOL    HW181783   3.595  12.616   6.641
26650SOL    HW281784   3.678  12.677   6.530
26651SOL     OW81785  10.014  13.160  11.953
26651SOL    HW181786   9.991  13.238  12.004
26651SOL    HW281787  10.107  13.146  11.972
26652SOL     OW81788   4.953   1.075   7.082
26652SOL    HW181789   5.004   1.130   7.023
26652SOL    HW281790   4.913   1.136   7.144
26653SOL     OW81791   5.367  10.839   4.021
26653SOL    HW181792   5.357  10.788   4.101
26653SOL    HW281793   5.278  10.847   3.986
26654SOL     OW81794   3.357  11.306   9.901
26654SOL    HW181795   3.447  11.287   9.873
26654SOL    HW281796   3.344  11.398   9.878
26655SOL     OW81797   4.781   5.897   1.673
26655SOL    HW181798   4.690   5.886   1.702
26655SOL    HW281799   4.801   5.989   1.691
26656SOL     OW81800   1.885   5.477   9.212
26656SOL    HW181801   1.913   5.397   9.167
26656SOL    HW281802   1.956   5.540   9.195
26657SOL     OW81803   3.141  12.738  14.111
26657SOL    HW181804   3.183  12.750  14.196
26657SOL    HW281805   3.159  12.819  14.063
26658SOL     OW81806  13.250   8.225  10.795
26658SOL    HW181807  13.298   8.300  10.831
26658SOL    HW281808  13.219   8.178  10.872
26659SOL     OW81809   4.823   4.521  12.849
26659SOL    HW181810   4.774   4.534  12.768
26659SOL    HW281811   4.885   4.451  12.827
26660SOL     OW81812   9.650   7.786   4.474
26660SOL    HW181813   9.715   7.723   4.506
26660SOL    HW281814   9.604   7.740   4.404
26661SOL     OW81815   7.196   4.307  12.381
26661SOL    HW181816   7.180   4.393  12.420
26661SOL    HW281817   7.262   4.323  12.314
26662SOL     OW81818  14.749   9.152  12.778
26662SOL    HW181819  14.724   9.129  12.867
26662SOL    HW281820  14.801   9.079  12.747
26663SOL     OW81821  13.765   1.670   4.902
26663SOL    HW181822  13.844   1.670   4.956
26663SOL    HW281823  13.693   1.657   4.965
26664SOL     OW81824  10.613   4.671   8.074
26664SOL    HW181825  10.664   4.678   7.993
26664SOL    HW281826  10.630   4.752   8.121
26665SOL     OW81827  10.074   0.847   2.005
26665SOL    HW181828  10.153   0.867   1.955
26665SOL    HW281829  10.100   0.776   2.064
26666SOL     OW81830   2.235  14.462   9.414
26666SOL    HW181831   2.207  14.388   9.361
26666SOL    HW281832   2.294  14.424   9.480
26667SOL     OW81833   8.297  10.890   2.636
26667SOL    HW181834   8.205  10.862   2.640
26667SOL    HW281835   8.313  10.905   2.543
26668SOL     OW81836  10.797   6.647   9.247
26668SOL    HW181837  10.802   6.742   9.253
26668SOL    HW281838  10.869   6.615   9.301
26669SOL     OW81839   4.218  13.606   0.305
26669SOL    HW181840   4.137  13.554   0.306
26669SOL    HW281841   4.284  13.547   0.268
26670SOL     OW81842   2.227   5.590  12.555
26670SOL    HW181843   2.218   5.650  12.629
26670SOL    HW281844   2.320   5.592  12.534
26671SOL     OW81845   0.999   9.642   0.575
26671SOL    HW181846   1.028   9.732   0.592
26671SOL    HW281847   0.905   9.650   0.562
26672SOL     OW81848  10.587  14.379   8.708
26672SOL    HW181849  10.667  14.393   8.658
26672SOL    HW281850  10.608  14.308   8.769
26673SOL     OW81851  10.363  10.218   2.617
26673SOL    HW181852  10.410  10.283   2.670
26673SOL    HW281853  10.418  10.140   2.619
26674SOL     OW81854   7.395  12.333   9.334
26674SOL    HW181855   7.486  12.329   9.362
26674SOL    HW281856   7.345  12.330   9.415
26675SOL     OW81857   9.773  14.825   6.996
26675SOL    HW181858   9.728  14.869   6.924
26675SOL    HW281859   9.725  14.851   7.074
26676SOL     OW81860   8.767   0.065   8.940
26676SOL    HW181861   8.801   0.073   9.029
26676SOL    HW281862   8.765   0.154   8.906
26677SOL     OW81863   2.754  13.550  12.397
26677SOL    HW181864   2.711  13.476  12.356
26677SOL    HW281865   2.796  13.597  12.325
26678SOL     OW81866   1.967  12.002   9.555
26678SOL    HW181867   1.895  12.022   9.615
26678SOL    HW281868   1.931  11.938   9.494
26679SOL     OW81869  10.757   5.929   7.799
26679SOL    HW181870  10.691   5.961   7.737
26679SOL    HW281871  10.749   5.833   7.795
26680SOL     OW81872  11.031   4.818  13.503
26680SOL    HW181873  11.092   4.747  13.520
26680SOL    HW281874  11.070   4.867  13.430
26681SOL     OW81875   3.063  11.911  13.272
26681SOL    HW181876   3.145  11.943  13.310
26681SOL    HW281877   3.017  11.990  13.244
26682SOL     OW81878  10.381   1.713  12.329
26682SOL    HW181879  10.367   1.713  12.424
26682SOL    HW281880  10.320   1.779  12.296
26683SOL     OW81881   5.447  13.003   6.604
26683SOL    HW181882   5.502  12.925   6.604
26683SOL    HW281883   5.474  13.051   6.525
26684SOL     OW81884  12.423  12.965  12.206
26684SOL    HW181885  12.374  12.925  12.134
26684SOL    HW281886  12.363  12.963  12.280
26685SOL     OW81887   3.697   3.251  10.608
26685SOL    HW181888   3.765   3.192  10.640
26685SOL    HW281889   3.706   3.330  10.661
26686SOL     OW81890   1.301  12.978   4.386
26686SOL    HW181891   1.375  12.921   4.407
26686SOL    HW281892   1.318  13.059   4.433
26687SOL     OW81893   2.116   7.423   2.527
26687SOL    HW181894   2.188   7.470   2.485
26687SOL    HW281895   2.142   7.416   2.619
26688SOL     OW81896   2.260   9.624   5.167
26688SOL    HW181897   2.275   9.542   5.213
26688SOL    HW281898   2.293   9.692   5.226
26689SOL     OW81899   3.442  13.425   5.039
26689SOL    HW181900   3.366  13.391   5.086
26689SOL    HW281901   3.413  13.510   5.006
26690SOL     OW81902  14.537   6.890   4.429
26690SOL    HW181903  14.517   6.827   4.360
26690SOL    HW281904  14.616   6.856   4.471
26691SOL     OW81905   5.770  14.654   2.112
26691SOL    HW181906   5.788  14.663   2.019
26691SOL    HW281907   5.857  14.656   2.153
26692SOL     OW81908   6.682  12.274  14.774
26692SOL    HW181909   6.633  12.208  14.726
26692SOL    HW281910   6.638  12.356  14.756
26693SOL     OW81911  12.620  14.808  11.574
26693SOL    HW181912  12.578   0.010  11.616
26693SOL    HW281913  12.690  14.782  11.634
26694SOL     OW81914   4.833   5.659  12.274
26694SOL    HW181915   4.905   5.722  12.275
26694SOL    HW281916   4.754   5.713  12.261
26695SOL     OW81917   6.872   5.758  11.677
26695SOL    HW181918   6.948   5.750  11.619
26695SOL    HW281919   6.798   5.733  11.623
26696SOL     OW81920  10.182   8.566   5.740
26696SOL    HW181921  10.120   8.540   5.672
26696SOL    HW281922  10.148   8.650   5.772
26697SOL     OW81923  11.361  14.149   1.199
26697SOL    HW181924  11.334  14.132   1.109
26697SOL    HW281925  11.352  14.064   1.242
26698SOL     OW81926   2.397   3.426  14.707
26698SOL    HW181927   2.460   3.377  14.759
26698SOL    HW281928   2.347   3.358  14.660
26699SOL     OW81929   0.247   0.773   2.318
26699SOL    HW181930   0.198   0.767   2.236
26699SOL    HW281931   0.275   0.864   2.323
26700SOL     OW81932   8.344   6.298  13.097
26700SOL    HW181933   8.315   6.389  13.099
26700SOL    HW281934   8.437   6.302  13.123
26701SOL     OW81935   8.531   2.032  14.625
26701SOL    HW181936   8.619   2.067  14.615
26701SOL    HW281937   8.480   2.074  14.555
26702SOL     OW81938   5.589  10.831   9.647
26702SOL    HW181939   5.567  10.779   9.724
26702SOL    HW281940   5.518  10.812   9.585
26703SOL     OW81941  12.955  13.495   0.092
26703SOL    HW181942  12.882  13.444   0.057
26703SOL    HW281943  12.960  13.468   0.184
26704SOL     OW81944   4.198  10.898  12.684
26704SOL    HW181945   4.244  10.814  12.688
26704SOL    HW281946   4.213  10.930  12.595
26705SOL     OW81947   6.354  12.293   1.903
26705SOL    HW181948   6.433  12.267   1.950
26705SOL    HW281949   6.375  12.279   1.811
26706SOL     OW81950   2.395   5.881   0.899
26706SOL    HW181951   2.486   5.911   0.903
26706SOL    HW281952   2.344   5.961   0.885
26707SOL     OW81953   4.060   7.911  11.434
26707SOL    HW181954   4.029   7.828  11.471
26707SOL    HW281955   3.984   7.948  11.391
26708SOL     OW81956   7.330   4.380   1.313
26708SOL    HW181957   7.364   4.293   1.335
26708SOL    HW281958   7.334   4.385   1.218
26709SOL     OW81959  13.892   5.554   0.773
26709SOL    HW181960  13.980   5.519   0.789
26709SOL    HW281961  13.859   5.575   0.861
26710SOL     OW81962   6.460   3.143   3.848
26710SOL    HW181963   6.377   3.100   3.872
26710SOL    HW281964   6.460   3.225   3.897
26711SOL     OW81965  12.881   9.609  11.764
26711SOL    HW181966  12.965   9.565  11.756
26711SOL    HW281967  12.875   9.635  11.856
26712SOL     OW81968   3.737   7.022  14.143
26712SOL    HW181969   3.712   7.038  14.234
26712SOL    HW281970   3.676   6.955  14.113
26713SOL     OW81971  14.171   8.810   3.578
26713SOL    HW181972  14.217   8.889   3.550
26713SOL    HW281973  14.235   8.764   3.633
26714SOL     OW81974   0.249   3.886  13.009
26714SOL    HW181975   0.234   3.885  13.104
26714SOL    HW281976   0.164   3.907  12.972
26715SOL     OW81977   4.167   1.046   1.185
26715SOL    HW181978   4.128   1.126   1.150
26715SOL    HW281979   4.240   1.028   1.126
26716SOL     OW81980   4.003  12.038   1.755
26716SOL    HW181981   3.988  12.095   1.830
26716SOL    HW281982   4.098  12.033   1.745
26717SOL     OW81983   2.677   2.819   5.829
26717SOL    HW181984   2.755   2.809   5.774
26717SOL    HW281985   2.711   2.854   5.911
26718SOL     OW81986  12.164   7.041   4.005
26718SOL    HW181987  12.113   7.118   3.980
26718SOL    HW281988  12.149   6.978   3.935
26719SOL     OW81989  12.330   4.554   1.771
26719SOL    HW181990  12.295   4.561   1.683
26719SOL    HW281991  12.425   4.548   1.759
26720SOL     OW81992   1.883   7.638  13.950
26720SOL    HW181993   1.889   7.627  13.855
26720SOL    HW281994   1.970   7.615  13.982
26721SOL     OW81995   7.742  10.036   5.190
26721SOL    HW181996   7.760  10.012   5.099
26721SOL    HW281997   7.827  10.064   5.224
26722SOL     OW81998   2.695   2.592  13.956
26722SOL    HW181999   2.675   2.586  13.862
26722SOL    HW282000   2.737   2.677  13.966
26723SOL     OW82001   6.725  11.601   7.709
26723SOL    HW182002   6.817  11.578   7.699
26723SOL    HW282003   6.693  11.541   7.777
26724SOL     OW82004  13.511   6.587   3.768
26724SOL    HW182005  13.530   6.678   3.747
26724SOL    HW282006  13.485   6.588   3.860
26725SOL     OW82007   7.881  10.841   4.155
26725SOL    HW182008   7.931  10.852   4.074
26725SOL    HW282009   7.874  10.746   4.166
26726SOL     OW82010   2.155   4.944   8.104
26726SOL    HW182011   2.196   4.962   8.020
26726SOL    HW282012   2.211   4.878   8.144
26727SOL     OW82013  11.883   4.857   6.776
26727SOL    HW182014  11.827   4.845   6.699
26727SOL    HW282015  11.824   4.894   6.842
26728SOL     OW82016  12.757  13.474   1.542
26728SOL    HW182017  12.852  13.480   1.554
26728SOL    HW282018  12.720  13.518   1.618
26729SOL     OW82019   9.557   6.827   1.558
26729SOL    HW182020   9.599   6.759   1.505
26729SOL    HW282021   9.526   6.781   1.636
26730SOL     OW82022  12.055   8.183   6.268
26730SOL    HW182023  12.033   8.247   6.335
26730SOL    HW282024  12.142   8.151   6.294
26731SOL     OW82025   7.165  13.641   5.251
26731SOL    HW182026   7.214  13.643   5.169
26731SOL    HW282027   7.101  13.712   5.242
26732SOL     OW82028   8.789   2.099  14.750
26732SOL    HW182029   8.796   2.071  14.841
26732SOL    HW282030   8.761   2.190  14.755
26733SOL     OW82031  12.068   2.578   8.837
26733SOL    HW182032  12.047   2.488   8.812
26733SOL    HW282033  11.991   2.629   8.812
26734SOL     OW82034  11.145   0.262   5.874
26734SOL    HW182035  11.056   0.294   5.862
26734SOL    HW282036  11.198   0.313   5.812
26735SOL     OW82037  12.502   1.283  11.567
26735SOL    HW182038  12.502   1.203  11.620
26735SOL    HW282039  12.571   1.337  11.605
26736SOL     OW82040   6.645  11.486   1.299
26736SOL    HW182041   6.677  11.502   1.210
26736SOL    HW282042   6.586  11.411   1.290
26737SOL     OW82043  12.870   7.599  10.733
26737SOL    HW182044  12.948   7.544  10.727
26737SOL    HW282045  12.804   7.545  10.776
26738SOL     OW82046  10.909   9.827   6.018
26738SOL    HW182047  10.945   9.907   5.979
26738SOL    HW282048  10.824   9.853   6.053
26739SOL     OW82049   8.589   6.534   5.357
26739SOL    HW182050   8.647   6.533   5.280
26739SOL    HW282051   8.641   6.578   5.425
26740SOL     OW82052  11.985   0.980   9.980
26740SOL    HW182053  11.967   0.936  10.063
26740SOL    HW282054  11.898   0.997   9.943
26741SOL     OW82055  13.364   2.703  12.363
26741SOL    HW182056  13.371   2.608  12.357
26741SOL    HW282057  13.345   2.732  12.274
26742SOL     OW82058   5.620   5.801   2.917
26742SOL    HW182059   5.636   5.786   2.824
26742SOL    HW282060   5.703   5.834   2.952
26743SOL     OW82061   2.102   1.921   2.186
26743SOL    HW182062   2.073   1.860   2.253
26743SOL    HW282063   2.197   1.925   2.195
26744SOL     OW82064  14.576   0.215   6.103
26744SOL    HW182065  14.582   0.120   6.098
26744SOL    HW282066  14.548   0.234   6.192
26745SOL     OW82067   6.632  11.520   2.339
26745SOL    HW182068   6.573  11.450   2.313
26745SOL    HW282069   6.657  11.499   2.430
26746SOL     OW82070   2.805  10.490   5.860
26746SOL    HW182071   2.838  10.564   5.809
26746SOL    HW282072   2.868  10.420   5.843
26747SOL     OW82073  14.119   6.656  13.302
26747SOL    HW182074  14.122   6.637  13.208
26747SOL    HW282075  14.025   6.661  13.322
26748SOL     OW82076   1.615   6.802  11.633
26748SOL    HW182077   1.583   6.868  11.694
26748SOL    HW282078   1.684   6.756  11.682
26749SOL     OW82079   9.793  12.509   6.527
26749SOL    HW182080   9.860  12.534   6.464
26749SOL    HW282081   9.806  12.415   6.540
26750SOL     OW82082   4.241   2.775  10.353
26750SOL    HW182083   4.249   2.800  10.445
26750SOL    HW282084   4.276   2.850  10.305
26751SOL     OW82085   2.518   2.992   9.977
26751SOL    HW182086   2.446   3.037  10.022
26751SOL    HW282087   2.595   3.045   9.996
26752SOL     OW82088   1.046  13.206   3.948
26752SOL    HW182089   1.141  13.206   3.963
26752SOL    HW282090   1.022  13.114   3.947
26753SOL     OW82091  12.729   6.018   7.738
26753SOL    HW182092  12.732   6.052   7.828
26753SOL    HW282093  12.797   5.950   7.736
26754SOL     OW82094   7.651   7.288   6.818
26754SOL    HW182095   7.608   7.349   6.879
26754SOL    HW282096   7.580   7.247   6.770
26755SOL     OW82097  10.389  11.641  13.418
26755SOL    HW182098  10.400  11.718  13.362
26755SOL    HW282099  10.446  11.656  13.492
26756SOL     OW82100   0.067   3.452   7.493
26756SOL    HW182101   0.005   3.525   7.490
26756SOL    HW282102   0.058   3.409   7.408
26757SOL     OW82103   0.344   9.506   1.993
26757SOL    HW182104   0.282   9.579   1.994
26757SOL    HW282105   0.294   9.433   1.956
26758SOL     OW82106   3.788  14.659   7.747
26758SOL    HW182107   3.800  14.682   7.839
26758SOL    HW282108   3.708  14.606   7.746
26759SOL     OW82109  13.049   7.704   5.472
26759SOL    HW182110  13.064   7.757   5.551
26759SOL    HW282111  13.065   7.764   5.400
26760SOL     OW82112  10.938   4.115   3.439
26760SOL    HW182113  10.843   4.110   3.440
26760SOL    HW282114  10.966   4.036   3.392
26761SOL     OW82115   5.014   3.672   2.243
26761SOL    HW182116   5.037   3.630   2.160
26761SOL    HW282117   5.081   3.642   2.305
26762SOL     OW82118   9.173   9.616   8.335
26762SOL    HW182119   9.215   9.680   8.392
26762SOL    HW282120   9.085   9.650   8.320
26763SOL     OW82121   8.111   3.271   6.791
26763SOL    HW182122   8.177   3.239   6.853
26763SOL    HW282123   8.029   3.232   6.821
26764SOL     OW82124   8.827  12.785   2.666
26764SOL    HW182125   8.802  12.824   2.749
26764SOL    HW282126   8.812  12.855   2.602
26765SOL     OW82127   0.509  12.437  12.302
26765SOL    HW182128   0.448  12.504  12.332
26765SOL    HW282129   0.553  12.407  12.382
26766SOL     OW82130   4.473  14.525   9.608
26766SOL    HW182131   4.554  14.564   9.575
26766SOL    HW282132   4.415  14.599   9.624
26767SOL     OW82133  14.721   0.235  12.877
26767SOL    HW182134  14.660   0.166  12.852
26767SOL    HW282135  14.691   0.263  12.963
26768SOL     OW82136   4.999  10.455   9.688
26768SOL    HW182137   5.037  10.387   9.633
26768SOL    HW282138   4.914  10.420   9.714
26769SOL     OW82139   8.732   9.333   3.517
26769SOL    HW182140   8.824   9.332   3.491
26769SOL    HW282141   8.684   9.313   3.436
26770SOL     OW82142   9.769   6.830   5.619
26770SOL    HW182143   9.729   6.743   5.623
26770SOL    HW282144   9.853   6.816   5.575
26771SOL     OW82145   2.484  10.239   7.117
26771SOL    HW182146   2.545  10.170   7.090
26771SOL    HW282147   2.412  10.192   7.158
26772SOL     OW82148   6.750   2.662  11.382
26772SOL    HW182149   6.703   2.718  11.321
26772SOL    HW282150   6.753   2.712  11.464
26773SOL     OW82151  12.716  12.221   1.415
26773SOL    HW182152  12.696  12.242   1.506
26773SOL    HW282153  12.715  12.125   1.412
26774SOL     OW82154   6.159  14.807  14.471
26774SOL    HW182155   6.174  14.782  14.562
26774SOL    HW282156   6.095   0.006  14.477
26775SOL     OW82157   0.287   8.691   4.545
26775SOL    HW182158   0.319   8.603   4.528
26775SOL    HW282159   0.195   8.678   4.570
26776SOL     OW82160  11.621  11.775   6.495
26776SOL    HW182161  11.546  11.828   6.519
26776SOL    HW282162  11.697  11.833   6.507
26777SOL     OW82163   7.567   3.060   1.387
26777SOL    HW182164   7.564   2.968   1.359
26777SOL    HW282165   7.658   3.074   1.412
26778SOL     OW82166  13.858   3.382   6.288
26778SOL    HW182167  13.787   3.378   6.352
26778SOL    HW282168  13.932   3.417   6.338
26779SOL     OW82169  13.288   1.895   1.378
26779SOL    HW182170  13.348   1.838   1.427
26779SOL    HW282171  13.280   1.853   1.292
26780SOL     OW82172   2.104   2.901  12.156
26780SOL    HW182173   2.037   2.842  12.120
26780SOL    HW282174   2.058   2.984  12.170
26781SOL     OW82175   3.548   4.009   5.654
26781SOL    HW182176   3.622   4.068   5.667
26781SOL    HW282177   3.507   4.039   5.573
26782SOL     OW82178   0.105   5.845   8.313
26782SOL    HW182179   0.031   5.788   8.292
26782SOL    HW282180   0.067   5.915   8.366
26783SOL     OW82181  13.945  13.927   0.292
26783SOL    HW182182  13.897  13.940   0.211
26783SOL    HW282183  14.010  13.860   0.272
26784SOL     OW82184  13.237   2.477  11.976
26784SOL    HW182185  13.322   2.497  12.015
26784SOL    HW282186  13.257   2.419  11.903
26785SOL     OW82187   6.343   3.704   3.028
26785SOL    HW182188   6.399   3.778   3.054
26785SOL    HW282189   6.389   3.665   2.954
26786SOL     OW82190  11.893   1.648   7.434
26786SOL    HW182191  11.888   1.632   7.340
26786SOL    HW282192  11.858   1.737   7.444
26787SOL     OW82193   0.517   0.182   9.224
26787SOL    HW182194   0.595   0.146   9.267
26787SOL    HW282195   0.458   0.107   9.216
26788SOL     OW82196  13.543  13.813   7.273
26788SOL    HW182197  13.480  13.789   7.341
26788SOL    HW282198  13.497  13.796   7.190
26789SOL     OW82199   2.021   5.064   4.305
26789SOL    HW182200   2.045   5.086   4.395
26789SOL    HW282201   1.990   4.973   4.310
26790SOL     OW82202   0.012   6.463   8.253
26790SOL    HW182203   0.050   6.550   8.262
26790SOL    HW282204   0.060   6.423   8.181
26791SOL     OW82205   8.855  14.688  10.236
26791SOL    HW182206   8.829  14.722  10.151
26791SOL    HW282207   8.809  14.604  10.243
26792SOL     OW82208   6.122   4.386   6.957
26792SOL    HW182209   6.076   4.468   6.937
26792SOL    HW282210   6.208   4.413   6.988
26793SOL     OW82211   3.398   3.948  10.703
26793SOL    HW182212   3.304   3.966  10.713
26793SOL    HW282213   3.415   3.961  10.610
26794SOL     OW82214   5.283   2.365  14.399
26794SOL    HW182215   5.231   2.345  14.477
26794SOL    HW282216   5.314   2.279  14.369
26795SOL     OW82217  12.125  12.434   2.535
26795SOL    HW182218  12.095  12.523   2.519
26795SOL    HW282219  12.044  12.384   2.550
26796SOL     OW82220   2.219   3.270   3.024
26796SOL    HW182221   2.248   3.236   3.109
26796SOL    HW282222   2.290   3.325   2.994
26797SOL     OW82223  13.917  12.071   5.057
26797SOL    HW182224  13.991  12.130   5.045
26797SOL    HW282225  13.945  11.989   5.017
26798SOL     OW82226  14.627   9.577   5.821
26798SOL    HW182227  14.623   9.662   5.778
26798SOL    HW282228  14.659   9.595   5.909
26799SOL     OW82229  13.368   1.450   7.306
26799SOL    HW182230  13.345   1.390   7.377
26799SOL    HW282231  13.389   1.532   7.349
26800SOL     OW82232   6.355   8.745   5.309
26800SOL    HW182233   6.357   8.710   5.220
26800SOL    HW282234   6.432   8.709   5.351
26801SOL     OW82235  10.268   0.250   8.359
26801SOL    HW182236  10.189   0.305   8.359
26801SOL    HW282237  10.298   0.253   8.450
26802SOL     OW82238   3.957   1.113  13.113
26802SOL    HW182239   3.895   1.070  13.173
26802SOL    HW282240   3.904   1.133  13.036
26803SOL     OW82241   3.039   0.508  13.987
26803SOL    HW182242   3.005   0.577  14.043
26803SOL    HW282243   2.972   0.440  13.988
26804SOL     OW82244  14.552  10.415   4.523
26804SOL    HW182245  14.598  10.489   4.563
26804SOL    HW282246  14.474  10.403   4.576
26805SOL     OW82247  13.972  13.576  10.626
26805SOL    HW182248  13.934  13.533  10.703
26805SOL    HW282249  13.975  13.508  10.559
26806SOL     OW82250   4.181   7.442   3.368
26806SOL    HW182251   4.251   7.474   3.310
26806SOL    HW282252   4.110   7.506   3.357
26807SOL     OW82253   3.595   1.432   8.690
26807SOL    HW182254   3.573   1.482   8.768
26807SOL    HW282255   3.613   1.343   8.722
26808SOL     OW82256   1.956  12.378  14.382
26808SOL    HW182257   1.876  12.429  14.377
26808SOL    HW282258   1.927  12.287  14.377
26809SOL     OW82259   6.777  10.233  11.303
26809SOL    HW182260   6.702  10.291  11.289
26809SOL    HW282261   6.838  10.256  11.233
26810SOL     OW82262  13.449   8.276   3.122
26810SOL    HW182263  13.404   8.359   3.107
26810SOL    HW282264  13.419   8.219   3.051
26811SOL     OW82265   6.952  13.170   8.159
26811SOL    HW182266   6.987  13.239   8.215
26811SOL    HW282267   6.871  13.142   8.202
26812SOL     OW82268  13.617   3.225   8.520
26812SOL    HW182269  13.616   3.205   8.426
26812SOL    HW282270  13.526   3.245   8.541
26813SOL     OW82271   0.888   1.618  13.892
26813SOL    HW182272   0.830   1.544  13.872
26813SOL    HW282273   0.856   1.650  13.977
26814SOL     OW82274   8.373  13.961   5.287
26814SOL    HW182275   8.364  14.012   5.206
26814SOL    HW282276   8.285  13.959   5.324
26815SOL     OW82277   8.590   6.282  11.868
26815SOL    HW182278   8.685   6.293  11.872
26815SOL    HW282279   8.568   6.298  11.776
26816SOL     OW82280  13.183   5.721   7.899
26816SOL    HW182281  13.211   5.753   7.985
26816SOL    HW282282  13.094   5.755   7.889
26817SOL     OW82283  11.242   6.035   0.573
26817SOL    HW182284  11.283   6.102   0.518
26817SOL    HW282285  11.311   5.970   0.586
26818SOL     OW82286   2.524   2.982   1.054
26818SOL    HW182287   2.471   3.059   1.032
26818SOL    HW282288   2.597   3.016   1.105
26819SOL     OW82289  12.845   2.827  10.381
26819SOL    HW182290  12.871   2.736  10.366
26819SOL    HW282291  12.795   2.825  10.463
26820SOL     OW82292   7.839   2.543   4.775
26820SOL    HW182293   7.815   2.603   4.704
26820SOL    HW282294   7.888   2.597   4.837
26821SOL     OW82295  13.272   2.140   8.403
26821SOL    HW182296  13.224   2.076   8.349
26821SOL    HW282297  13.304   2.205   8.340
26822SOL     OW82298  10.647   5.895   1.633
26822SOL    HW182299  10.706   5.935   1.697
26822SOL    HW282300  10.703   5.834   1.584
26823SOL     OW82301   5.531  12.812   6.302
26823SOL    HW182302   5.438  12.809   6.322
26823SOL    HW282303   5.574  12.782   6.382
26824SOL     OW82304  14.439   0.204   4.865
26824SOL    HW182305  14.364   0.201   4.806
26824SOL    HW282306  14.400   0.217   4.952
26825SOL     OW82307  14.543  14.759   7.918
26825SOL    HW182308  14.563  14.710   7.998
26825SOL    HW282309  14.617  14.818   7.907
26826SOL     OW82310   2.828   6.341  12.711
26826SOL    HW182311   2.802   6.383  12.793
26826SOL    HW282312   2.828   6.413  12.647
26827SOL     OW82313   8.873   4.812  13.518
26827SOL    HW182314   8.923   4.811  13.436
26827SOL    HW282315   8.798   4.756  13.501
26828SOL     OW82316   3.694   7.923  11.857
26828SOL    HW182317   3.718   8.008  11.819
26828SOL    HW282318   3.709   7.860  11.787
26829SOL     OW82319   5.366  12.740   0.035
26829SOL    HW182320   5.424  12.763  14.835
26829SOL    HW282321   5.425  12.704   0.102
26830SOL     OW82322   2.214   7.079   1.900
26830SOL    HW182323   2.245   7.165   1.929
26830SOL    HW282324   2.146   7.055   1.963
26831SOL     OW82325  10.314  11.665  13.829
26831SOL    HW182326  10.275  11.578  13.820
26831SOL    HW282327  10.373  11.673  13.754
26832SOL     OW82328   9.894   9.922   7.762
26832SOL    HW182329   9.878   9.910   7.669
26832SOL    HW282330   9.826   9.984   7.790
26833SOL     OW82331   8.868   0.309   4.878
26833SOL    HW182332   8.794   0.326   4.820
26833SOL    HW282333   8.936   0.273   4.821
26834SOL     OW82334   5.908   5.443   5.085
26834SOL    HW182335   5.828   5.441   5.137
26834SOL    HW282336   5.965   5.504   5.132
26835SOL     OW82337  12.949   3.004   5.120
26835SOL    HW182338  12.935   3.052   5.038
26835SOL    HW282339  12.939   2.912   5.096
26836SOL     OW82340   4.698   1.307  13.560
26836SOL    HW182341   4.767   1.300  13.494
26836SOL    HW282342   4.646   1.227  13.550
26837SOL     OW82343  12.659   1.875   1.589
26837SOL    HW182344  12.705   1.810   1.536
26837SOL    HW282345  12.727   1.938   1.613
26838SOL     OW82346  12.648  14.351   9.536
26838SOL    HW182347  12.618  14.388   9.619
26838SOL    HW282348  12.728  14.303   9.557
26839SOL     OW82349   3.657   1.626   4.085
26839SOL    HW182350   3.662   1.673   4.168
26839SOL    HW282351   3.636   1.536   4.109
26840SOL     OW82352  13.700   8.456  13.183
26840SOL    HW182353  13.694   8.548  13.209
26840SOL    HW282354  13.780   8.452  13.130
26841SOL     OW82355   2.706   7.403  13.600
26841SOL    HW182356   2.736   7.365  13.683
26841SOL    HW282357   2.708   7.330  13.538
26842SOL     OW82358  12.256   1.046  13.168
26842SOL    HW182359  12.253   1.111  13.238
26842SOL    HW282360  12.253   1.097  13.087
26843SOL     OW82361   8.622  12.135   6.922
26843SOL    HW182362   8.628  12.229   6.905
26843SOL    HW282363   8.529  12.118   6.931
26844SOL     OW82364   9.171  12.035   0.948
26844SOL    HW182365   9.231  11.982   1.001
26844SOL    HW282366   9.167  12.119   0.992
26845SOL     OW82367  11.714   5.594   0.082
26845SOL    HW182368  11.627   5.560   0.106
26845SOL    HW282369  11.740   5.541   0.006
26846SOL     OW82370   2.524  14.848  13.644
26846SOL    HW182371   2.564  14.792  13.577
26846SOL    HW282372   2.467   0.034  13.595
26847SOL     OW82373   3.386  11.229   5.698
26847SOL    HW182374   3.396  11.264   5.786
26847SOL    HW282375   3.398  11.135   5.709
26848SOL     OW82376   8.151   7.764   4.609
26848SOL    HW182377   8.181   7.736   4.695
26848SOL    HW282378   8.223   7.819   4.576
26849SOL     OW82379   2.875   3.477  10.533
26849SOL    HW182380   2.842   3.517  10.452
26849SOL    HW282381   2.810   3.411  10.555
26850SOL     OW82382   3.945  12.315   7.978
26850SOL    HW182383   3.889  12.388   7.951
26850SOL    HW282384   3.887  12.239   7.980
26851SOL     OW82385   0.435   8.828   1.970
26851SOL    HW182386   0.362   8.779   2.009
26851SOL    HW282387   0.475   8.765   1.909
26852SOL     OW82388  11.193   0.841  13.855
26852SOL    HW182389  11.116   0.797  13.891
26852SOL    HW282390  11.264   0.817  13.914
26853SOL     OW82391   1.997   4.287  12.305
26853SOL    HW182392   1.934   4.358  12.289
26853SOL    HW282393   2.082   4.331  12.314
26854SOL     OW82394   0.885   0.525  11.851
26854SOL    HW182395   0.851   0.502  11.937
26854SOL    HW282396   0.954   0.590  11.869
26855SOL     OW82397  12.562   5.067   3.425
26855SOL    HW182398  12.530   5.019   3.349
26855SOL    HW282399  12.535   5.158   3.409
26856SOL     OW82400   2.488   6.744   1.749
26856SOL    HW182401   2.485   6.793   1.832
26856SOL    HW282402   2.580   6.722   1.738
26857SOL     OW82403   4.275   9.508  11.104
26857SOL    HW182404   4.369   9.509  11.086
26857SOL    HW282405   4.249   9.600  11.102
26858SOL     OW82406  10.234  11.699   0.050
26858SOL    HW182407  10.140  11.715   0.047
26858SOL    HW282408  10.274  11.779   0.015
26859SOL     OW82409  14.246   7.338  14.297
26859SOL    HW182410  14.238   7.269  14.231
26859SOL    HW282411  14.225   7.419  14.250
26860SOL     OW82412  14.683   1.054   9.829
26860SOL    HW182413  14.620   1.109   9.875
26860SOL    HW282414  14.681   0.971   9.877
26861SOL     OW82415   3.464   6.092  10.268
26861SOL    HW182416   3.480   6.009  10.223
26861SOL    HW282417   3.380   6.079  10.313
26862SOL     OW82418   4.059   6.173  13.917
26862SOL    HW182419   3.995   6.104  13.937
26862SOL    HW282420   4.143   6.134  13.939
26863SOL     OW82421   4.238   3.027  13.871
26863SOL    HW182422   4.278   2.978  13.799
26863SOL    HW282423   4.246   2.968  13.947
26864SOL     OW82424  12.638   8.551   0.504
26864SOL    HW182425  12.600   8.638   0.495
26864SOL    HW282426  12.684   8.536   0.422
26865SOL     OW82427  11.122   2.919  11.522
26865SOL    HW182428  11.031   2.931  11.549
26865SOL    HW282429  11.123   2.942  11.429
26866SOL     OW82430  13.632   1.017   1.027
26866SOL    HW182431  13.610   0.929   1.060
26866SOL    HW282432  13.599   1.017   0.937
26867SOL     OW82433   9.958  10.155   1.316
26867SOL    HW182434  10.024  10.222   1.337
26867SOL    HW282435  10.008  10.081   1.282
26868SOL     OW82436   8.887  14.144   7.055
26868SOL    HW182437   8.863  14.138   6.962
26868SOL    HW282438   8.917  14.056   7.078
26869SOL     OW82439  13.991   8.648  12.725
26869SOL    HW182440  13.922   8.649  12.791
26869SOL    HW282441  14.028   8.560  12.730
26870SOL     OW82442   3.374   9.790   0.009
26870SOL    HW182443   3.291   9.757  14.848
26870SOL    HW282444   3.438   9.723  14.857
26871SOL     OW82445  14.870   1.031   7.879
26871SOL    HW182446  14.797   0.993   7.830
26871SOL    HW282447  14.854   1.007   7.970
26872SOL     OW82448   0.949   1.929   7.258
26872SOL    HW182449   0.885   1.859   7.270
26872SOL    HW282450   0.897   2.009   7.260
26873SOL     OW82451   2.667   6.669   2.362
26873SOL    HW182452   2.628   6.583   2.378
26873SOL    HW282453   2.728   6.682   2.435
26874SOL     OW82454   9.122  10.391   2.038
26874SOL    HW182455   9.172  10.353   2.110
26874SOL    HW282456   9.092  10.476   2.072
26875SOL     OW82457   1.672  13.071   6.966
26875SOL    HW182458   1.606  13.001   6.963
26875SOL    HW282459   1.636  13.135   7.028
26876SOL     OW82460   6.796   4.068   9.431
26876SOL    HW182461   6.878   4.048   9.385
26876SOL    HW282462   6.801   4.162   9.449
26877SOL     OW82463   0.022   3.026   1.008
26877SOL    HW182464   0.116   3.038   1.010
26877SOL    HW282465  14.860   3.102   1.055
26878SOL     OW82466  10.360   1.679  11.689
26878SOL    HW182467  10.294   1.624  11.730
26878SOL    HW282468  10.420   1.617  11.647
26879SOL     OW82469  10.383  10.602  10.754
26879SOL    HW182470  10.306  10.556  10.721
26879SOL    HW282471  10.353  10.643  10.835
26880SOL     OW82472   3.577  12.194   0.229
26880SOL    HW182473   3.551  12.113   0.186
26880SOL    HW282474   3.531  12.192   0.313
26881SOL     OW82475  12.055   0.303  11.452
26881SOL    HW182476  12.034   0.386  11.409
26881SOL    HW282477  12.082   0.246  11.380
26882SOL     OW82478   4.423   3.907   1.531
26882SOL    HW182479   4.330   3.911   1.553
26882SOL    HW282480   4.440   3.989   1.485
26883SOL     OW82481  10.357   7.470   0.739
26883SOL    HW182482  10.377   7.556   0.704
26883SOL    HW282483  10.427   7.413   0.705
26884SOL     OW82484   8.740   6.785   6.032
26884SOL    HW182485   8.673   6.717   6.044
26884SOL    HW282486   8.694   6.867   6.050
26885SOL     OW82487  12.813  12.536   8.939
26885SOL    HW182488  12.781  12.448   8.918
26885SOL    HW282489  12.908  12.526   8.944
26886SOL     OW82490  13.774   0.101   9.336
26886SOL    HW182491  13.725   0.133   9.412
26886SOL    HW282492  13.838   0.040   9.372
26887SOL     OW82493   2.039  14.542   3.521
26887SOL    HW182494   2.127  14.536   3.484
26887SOL    HW282495   1.981  14.551   3.445
26888SOL     OW82496   1.079   8.792   9.483
26888SOL    HW182497   1.141   8.745   9.538
26888SOL    HW282498   1.133   8.835   9.417
26889SOL     OW82499  12.625   8.585  11.373
26889SOL    HW182500  12.618   8.609  11.466
26889SOL    HW282501  12.569   8.508  11.364
26890SOL     OW82502  12.306   5.761   8.768
26890SOL    HW182503  12.281   5.731   8.856
26890SOL    HW282504  12.236   5.821   8.742
26891SOL     OW82505   9.305   9.144   8.784
26891SOL    HW182506   9.308   9.163   8.691
26891SOL    HW282507   9.296   9.229   8.826
26892SOL     OW82508  14.808  13.614   6.936
26892SOL    HW182509  14.782  13.618   7.028
26892SOL    HW282510  14.728  13.591   6.889
26893SOL     OW82511  12.458   7.159  10.282
26893SOL    HW182512  12.380   7.141  10.229
26893SOL    HW282513  12.529   7.116  10.234
26894SOL     OW82514   3.729   7.015   8.908
26894SOL    HW182515   3.802   7.066   8.945
26894SOL    HW282516   3.696   6.965   8.983
26895SOL     OW82517   9.616   0.298  12.404
26895SOL    HW182518   9.656   0.311  12.490
26895SOL    HW282519   9.686   0.258  12.352
26896SOL     OW82520   8.885   5.021  13.070
26896SOL    HW182521   8.968   4.980  13.046
26896SOL    HW282522   8.824   4.948  13.080
26897SOL     OW82523  13.162   1.336   7.462
26897SOL    HW182524  13.112   1.254   7.465
26897SOL    HW282525  13.138   1.376   7.379
26898SOL     OW82526  12.998   9.874   2.573
26898SOL    HW182527  12.961   9.835   2.494
26898SOL    HW282528  13.058   9.942   2.541
26899SOL     OW82529  12.552  10.522   4.724
26899SOL    HW182530  12.490  10.501   4.794
26899SOL    HW282531  12.603  10.595   4.758
26900SOL     OW82532   5.220  10.915   0.882
26900SOL    HW182533   5.191  11.006   0.877
26900SOL    HW282534   5.315  10.920   0.882
26901SOL     OW82535   2.709   5.506   5.137
26901SOL    HW182536   2.800   5.497   5.108
26901SOL    HW282537   2.713   5.572   5.207
26902SOL     OW82538   3.873   3.119  13.730
26902SOL    HW182539   3.892   3.204  13.769
26902SOL    HW282540   3.935   3.110  13.658
26903SOL     OW82541   6.674  11.254  10.779
26903SOL    HW182542   6.630  11.240  10.863
26903SOL    HW282543   6.689  11.166  10.745
26904SOL     OW82544  14.523   8.435  13.860
26904SOL    HW182545  14.551   8.525  13.845
26904SOL    HW282546  14.547   8.388  13.780
26905SOL     OW82547  13.330   8.587   6.066
26905SOL    HW182548  13.275   8.578   5.988
26905SOL    HW282549  13.384   8.508   6.066
26906SOL     OW82550   5.588   0.439   0.769
26906SOL    HW182551   5.596   0.532   0.793
26906SOL    HW282552   5.662   0.396   0.811
26907SOL     OW82553   7.633   8.806   6.379
26907SOL    HW182554   7.555   8.845   6.341
26907SOL    HW282555   7.611   8.793   6.471
26908SOL     OW82556   7.429   4.372  11.146
26908SOL    HW182557   7.475   4.396  11.226
26908SOL    HW282558   7.436   4.450  11.090
26909SOL     OW82559   6.513   9.682  14.239
26909SOL    HW182560   6.585   9.620  14.247
26909SOL    HW282561   6.436   9.627  14.224
26910SOL     OW82562   5.885   1.553   3.623
26910SOL    HW182563   5.840   1.555   3.539
26910SOL    HW282564   5.885   1.644   3.653
26911SOL     OW82565  11.790   5.849   1.014
26911SOL    HW182566  11.757   5.764   1.044
26911SOL    HW282567  11.844   5.829   0.938
26912SOL     OW82568   0.313   0.874   9.206
26912SOL    HW182569   0.258   0.949   9.184
26912SOL    HW282570   0.322   0.825   9.124
26913SOL     OW82571   1.301   8.815  14.595
26913SOL    HW182572   1.210   8.793  14.577
26913SOL    HW282573   1.336   8.842  14.510
26914SOL     OW82574   3.294   3.643   9.639
26914SOL    HW182575   3.328   3.561   9.605
26914SOL    HW282576   3.285   3.629   9.733
26915SOL     OW82577   0.268   3.562  13.187
26915SOL    HW182578   0.250   3.536  13.097
26915SOL    HW282579   0.198   3.520  13.238
26916SOL     OW82580  13.902  12.482   0.271
26916SOL    HW182581  13.892  12.431   0.191
26916SOL    HW282582  13.966  12.434   0.323
26917SOL     OW82583   0.356   4.628   5.717
26917SOL    HW182584   0.326   4.658   5.803
26917SOL    HW282585   0.366   4.708   5.666
26918SOL     OW82586   0.768  10.500   0.017
26918SOL    HW182587   0.739  10.465  14.805
26918SOL    HW282588   0.806  10.424   0.062
26919SOL     OW82589   2.648  10.321   5.177
26919SOL    HW182590   2.715  10.387   5.163
26919SOL    HW282591   2.579  10.343   5.114
26920SOL     OW82592   7.356   3.791   6.891
26920SOL    HW182593   7.396   3.716   6.936
26920SOL    HW282594   7.262   3.777   6.902
26921SOL     OW82595  14.535  10.588   8.916
26921SOL    HW182596  14.470  10.543   8.863
26921SOL    HW282597  14.485  10.655   8.964
26922SOL     OW82598   6.645   5.083  14.351
26922SOL    HW182599   6.712   5.018  14.329
26922SOL    HW282600   6.648   5.089  14.447
26923SOL     OW82601   0.286  11.495   7.449
26923SOL    HW182602   0.357  11.534   7.398
26923SOL    HW282603   0.219  11.474   7.384
26924SOL     OW82604   2.138   5.094  13.773
26924SOL    HW182605   2.075   5.165  13.761
26924SOL    HW282606   2.180   5.114  13.856
26925SOL     OW82607   1.814   2.586  13.467
26925SOL    HW182608   1.800   2.677  13.490
26925SOL    HW282609   1.772   2.536  13.537
26926SOL     OW82610   7.790   4.021   2.315
26926SOL    HW182611   7.824   3.931   2.319
26926SOL    HW282612   7.745   4.026   2.231
26927SOL     OW82613  12.342   0.442   3.543
26927SOL    HW182614  12.431   0.451   3.509
26927SOL    HW282615  12.338   0.501   3.618
26928SOL     OW82616   3.112   7.213   1.163
26928SOL    HW182617   3.130   7.257   1.246
26928SOL    HW282618   3.027   7.172   1.175
26929SOL     OW82619   5.093   0.718   6.381
26929SOL    HW182620   5.132   0.791   6.333
26929SOL    HW282621   5.072   0.754   6.467
26930SOL     OW82622  13.065   0.822   8.827
26930SOL    HW182623  13.144   0.798   8.778
26930SOL    HW282624  13.006   0.859   8.761
26931SOL     OW82625   3.042   1.152   9.236
26931SOL    HW182626   3.045   1.213   9.162
26931SOL    HW282627   3.018   1.207   9.311
26932SOL     OW82628  11.361   4.034   8.706
26932SOL    HW182629  11.421   4.005   8.638
26932SOL    HW282630  11.392   3.991   8.786
26933SOL     OW82631   4.557  11.332   2.223
26933SOL    HW182632   4.487  11.295   2.169
26933SOL    HW282633   4.635  11.328   2.168
26934SOL     OW82634   4.221   7.572   4.620
26934SOL    HW182635   4.144   7.515   4.624
26934SOL    HW282636   4.290   7.524   4.666
26935SOL     OW82637  12.790   6.920   8.145
26935SOL    HW182638  12.699   6.944   8.127
26935SOL    HW282639  12.835   7.004   8.160
26936SOL     OW82640   3.956   8.857   3.615
26936SOL    HW182641   3.893   8.810   3.561
26936SOL    HW282642   3.972   8.799   3.690
26937SOL     OW82643   0.400   9.506  10.249
26937SOL    HW182644   0.332   9.571  10.267
26937SOL    HW282645   0.429   9.476  10.335
26938SOL     OW82646   0.515   5.627   6.019
26938SOL    HW182647   0.543   5.545   5.978
26938SOL    HW282648   0.496   5.684   5.945
26939SOL     OW82649   0.519  14.690  12.363
26939SOL    HW182650   0.613  14.673  12.353
26939SOL    HW282651   0.507  14.705  12.457
26940SOL     OW82652  14.446   5.571  11.633
26940SOL    HW182653  14.399   5.532  11.707
26940SOL    HW282654  14.518   5.619  11.674
26941SOL     OW82655   0.822   9.203   4.163
26941SOL    HW182656   0.793   9.140   4.229
26941SOL    HW282657   0.833   9.285   4.211
26942SOL     OW82658   0.733  11.026   0.488
26942SOL    HW182659   0.743  10.961   0.558
26942SOL    HW282660   0.706  10.975   0.411
26943SOL     OW82661  10.060   8.984  14.085
26943SOL    HW182662  10.083   8.940  14.003
26943SOL    HW282663  10.085   9.075  14.070
26944SOL     OW82664   7.025   4.579  10.097
26944SOL    HW182665   6.971   4.571  10.175
26944SOL    HW282666   7.009   4.668  10.065
26945SOL     OW82667   4.220  10.243   9.883
26945SOL    HW182668   4.165  10.170   9.853
26945SOL    HW282669   4.306  10.224   9.846
26946SOL     OW82670  14.061  12.651   5.252
26946SOL    HW182671  14.018  12.712   5.192
26946SOL    HW282672  14.097  12.706   5.321
26947SOL     OW82673   1.820  12.354   6.885
26947SOL    HW182674   1.728  12.354   6.912
26947SOL    HW282675   1.848  12.445   6.895
26948SOL     OW82676   4.940   3.732  12.591
26948SOL    HW182677   4.978   3.692  12.513
26948SOL    HW282678   4.849   3.703  12.590
26949SOL     OW82679   8.394   5.650   7.815
26949SOL    HW182680   8.432   5.712   7.878
26949SOL    HW282681   8.335   5.596   7.868
26950SOL     OW82682   9.911   3.646  12.725
26950SOL    HW182683   9.981   3.675  12.666
26950SOL    HW282684   9.907   3.551  12.711
26951SOL     OW82685  10.753  14.231   1.101
26951SOL    HW182686  10.785  14.177   1.028
26951SOL    HW282687  10.738  14.317   1.062
26952SOL     OW82688   7.936   4.058   0.390
26952SOL    HW182689   7.934   4.154   0.387
26952SOL    HW282690   7.844   4.033   0.399
26953SOL     OW82691   3.478  11.433  11.895
26953SOL    HW182692   3.566  11.399  11.910
26953SOL    HW282693   3.479  11.521  11.933
26954SOL     OW82694  14.798   3.494  13.927
26954SOL    HW182695   0.003   3.537  13.961
26954SOL    HW282696  14.742   3.481  14.004
26955SOL     OW82697  14.512   2.486   3.021
26955SOL    HW182698  14.511   2.533   3.104
26955SOL    HW282699  14.426   2.443   3.016
26956SOL     OW82700   3.740   4.598  14.491
26956SOL    HW182701   3.821   4.551  14.513
26956SOL    HW282702   3.768   4.689  14.479
26957SOL     OW82703   4.403  10.370   5.085
26957SOL    HW182704   4.402  10.404   5.175
26957SOL    HW282705   4.359  10.437   5.034
26958SOL     OW82706   0.652   8.485  13.430
26958SOL    HW182707   0.588   8.442  13.485
26958SOL    HW282708   0.686   8.557  13.484
26959SOL     OW82709   2.187   5.796  10.611
26959SOL    HW182710   2.141   5.851  10.674
26959SOL    HW282711   2.117   5.749  10.565
26960SOL     OW82712   3.881   8.774   8.656
26960SOL    HW182713   3.969   8.743   8.678
26960SOL    HW282714   3.887   8.869   8.664
26961SOL     OW82715  11.015  10.297  12.162
26961SOL    HW182716  11.077  10.281  12.090
26961SOL    HW282717  10.929  10.298  12.119
26962SOL     OW82718  14.619   8.105   3.350
26962SOL    HW182719  14.671   8.154   3.414
26962SOL    HW282720  14.537   8.085   3.396
26963SOL     OW82721   0.362  10.576   0.788
26963SOL    HW182722   0.280  10.606   0.826
26963SOL    HW282723   0.388  10.502   0.842
26964SOL     OW82724   3.405  10.883   7.313
26964SOL    HW182725   3.399  10.974   7.284
26964SOL    HW282726   3.339  10.837   7.260
26965SOL     OW82727   7.125  11.301   1.722
26965SOL    HW182728   7.129  11.335   1.812
26965SOL    HW282729   7.193  11.234   1.719
26966SOL     OW82730  10.637  13.585  14.464
26966SOL    HW182731  10.665  13.495  14.481
26966SOL    HW282732  10.613  13.585  14.371
26967SOL     OW82733  12.683  11.466   5.859
26967SOL    HW182734  12.753  11.517   5.900
26967SOL    HW282735  12.609  11.527   5.854
26968SOL     OW82736   9.283   8.701   3.530
26968SOL    HW182737   9.261   8.761   3.601
26968SOL    HW282738   9.276   8.614   3.569
26969SOL     OW82739   5.802  12.090   3.089
26969SOL    HW182740   5.896  12.105   3.089
26969SOL    HW282741   5.792  12.000   3.056
26970SOL     OW82742   8.703   2.406   2.201
26970SOL    HW182743   8.685   2.344   2.272
26970SOL    HW282744   8.684   2.357   2.121
26971SOL     OW82745   1.728   9.551   4.995
26971SOL    HW182746   1.750   9.511   4.911
26971SOL    HW282747   1.669   9.623   4.973
26972SOL     OW82748   6.547   5.885  13.420
26972SOL    HW182749   6.460   5.896  13.383
26972SOL    HW282750   6.581   5.973  13.430
26973SOL     OW82751   9.599   1.519  13.797
26973SOL    HW182752   9.550   1.600  13.792
26973SOL    HW282753   9.559   1.461  13.732
26974SOL     OW82754   0.915   3.497   5.648
26974SOL    HW182755   0.929   3.408   5.680
26974SOL    HW282756   0.999   3.522   5.610
26975SOL     OW82757  13.487   3.648   7.052
26975SOL    HW182758  13.559   3.658   6.989
26975SOL    HW282759  13.409   3.648   6.997
26976SOL     OW82760   7.027   9.413   3.606
26976SOL    HW182761   7.107   9.436   3.654
26976SOL    HW282762   6.981   9.351   3.662
26977SOL     OW82763   1.989   2.123   0.348
26977SOL    HW182764   1.952   2.211   0.357
26977SOL    HW282765   2.059   2.120   0.412
26978SOL     OW82766   0.571   0.490   4.571
26978SOL    HW182767   0.504   0.465   4.508
26978SOL    HW282768   0.526   0.546   4.634
26979SOL     OW82769   7.277  14.073   6.170
26979SOL    HW182770   7.366  14.041   6.185
26979SOL    HW282771   7.243  14.016   6.101
26980SOL     OW82772  13.255   9.668   5.022
26980SOL    HW182773  13.343   9.664   5.059
26980SOL    HW282774  13.257   9.744   4.964
26981SOL     OW82775   4.425  14.844   7.861
26981SOL    HW182776   4.486  14.871   7.792
26981SOL    HW282777   4.344  14.824   7.814
26982SOL     OW82778  13.975   1.687   2.154
26982SOL    HW182779  13.895   1.702   2.105
26982SOL    HW282780  14.015   1.611   2.112
26983SOL     OW82781   1.320  11.746   2.593
26983SOL    HW182782   1.384  11.676   2.608
26983SOL    HW282783   1.249  11.704   2.546
26984SOL     OW82784  13.347   1.740  10.198
26984SOL    HW182785  13.265   1.742  10.148
26984SOL    HW282786  13.330   1.796  10.274
26985SOL     OW82787  13.326  14.588  10.929
26985SOL    HW182788  13.417  14.613  10.914
26985SOL    HW282789  13.324  14.554  11.018
26986SOL     OW82790   4.979   5.661   3.387
26986SOL    HW182791   5.007   5.674   3.297
26986SOL    HW282792   4.973   5.566   3.397
26987SOL     OW82793   7.940  13.131  14.288
26987SOL    HW182794   7.993  13.055  14.263
26987SOL    HW282795   7.889  13.152  14.210
26988SOL     OW82796   3.655   4.306   2.808
26988SOL    HW182797   3.660   4.390   2.762
26988SOL    HW282798   3.744   4.288   2.836
26989SOL     OW82799   1.653   4.803   7.270
26989SOL    HW182800   1.675   4.839   7.184
26989SOL    HW282801   1.620   4.879   7.319
26990SOL     OW82802   7.537  14.652   4.842
26990SOL    HW182803   7.493  14.730   4.877
26990SOL    HW282804   7.592  14.686   4.771
26991SOL     OW82805   8.471   6.525   1.470
26991SOL    HW182806   8.531   6.596   1.491
26991SOL    HW282807   8.459   6.478   1.552
26992SOL     OW82808  12.994  13.089   8.369
26992SOL    HW182809  12.965  13.078   8.278
26992SOL    HW282810  12.926  13.048   8.422
26993SOL     OW82811   6.145   1.539   0.376
26993SOL    HW182812   6.215   1.523   0.439
26993SOL    HW282813   6.154   1.468   0.312
26994SOL     OW82814   6.516   6.361   5.007
26994SOL    HW182815   6.600   6.397   4.977
26994SOL    HW282816   6.533   6.332   5.096
26995SOL     OW82817  10.045   1.481  12.545
26995SOL    HW182818   9.977   1.465  12.611
26995SOL    HW282819  10.107   1.410  12.557
26996SOL     OW82820   7.447   7.488  14.485
26996SOL    HW182821   7.528   7.526  14.450
26996SOL    HW282822   7.377   7.536  14.440
26997SOL     OW82823   8.330   5.361   0.396
26997SOL    HW182824   8.412   5.384   0.353
26997SOL    HW282825   8.355   5.332   0.483
26998SOL     OW82826   0.812  10.760   0.019
26998SOL    HW182827   0.812  10.665   0.007
26998SOL    HW282828   0.866  10.793  14.820
26999SOL     OW82829   0.535   1.561   0.650
26999SOL    HW182830   0.603   1.500   0.623
26999SOL    HW282831   0.484   1.514   0.715
27000SOL     OW82832   6.083  13.270  10.829
27000SOL    HW182833   6.132  13.188  10.817
27000SOL    HW282834   5.998  13.253  10.788
27001SOL     OW82835   9.743   0.098   1.695
27001SOL    HW182836   9.833   0.131   1.685
27001SOL    HW282837   9.689   0.166   1.655
27002SOL     OW82838  10.609   1.680   9.634
27002SOL    HW182839  10.531   1.658   9.582
27002SOL    HW282840  10.637   1.765   9.600
27003SOL     OW82841  14.130   3.132   6.493
27003SOL    HW182842  14.124   3.114   6.587
27003SOL    HW282843  14.046   3.104   6.457
27004SOL     OW82844   3.373   8.374   1.452
27004SOL    HW182845   3.419   8.429   1.515
27004SOL    HW282846   3.439   8.351   1.387
27005SOL     OW82847   0.421  12.611  11.328
27005SOL    HW182848   0.485  12.547  11.298
27005SOL    HW282849   0.354  12.611  11.261
27006SOL     OW82850   4.245   2.118   1.466
27006SOL    HW182851   4.264   2.125   1.373
27006SOL    HW282852   4.306   2.051   1.498
27007SOL     OW82853   8.630  13.972   1.949
27007SOL    HW182854   8.624  13.930   2.034
27007SOL    HW282855   8.696  14.041   1.961
27008SOL     OW82856   7.542  12.702   7.175
27008SOL    HW182857   7.527  12.627   7.232
27008SOL    HW282858   7.591  12.666   7.101
27009SOL     OW82859  11.915   9.776   8.612
27009SOL    HW182860  11.891   9.864   8.641
27009SOL    HW282861  11.890   9.774   8.520
27010SOL     OW82862  12.635  11.511   1.213
27010SOL    HW182863  12.654  11.602   1.190
27010SOL    HW282864  12.547  11.513   1.251
27011SOL     OW82865   8.675  12.809  14.690
27011SOL    HW182866   8.622  12.889  14.684
27011SOL    HW282867   8.637  12.760  14.763
27012SOL     OW82868  13.457   2.066   1.041
27012SOL    HW182869  13.368   2.096   1.021
27012SOL    HW282870  13.454   2.041   1.133
27013SOL     OW82871   8.744   2.653  14.263
27013SOL    HW182872   8.652   2.657  14.286
27013SOL    HW282873   8.777   2.742  14.280
27014SOL     OW82874   1.562   9.406  12.181
27014SOL    HW182875   1.514   9.455  12.114
27014SOL    HW282876   1.575   9.319  12.143
27015SOL     OW82877   7.120   3.770  11.063
27015SOL    HW182878   7.183   3.764  11.134
27015SOL    HW282879   7.157   3.834  11.003
27016SOL     OW82880   9.181   7.346  10.881
27016SOL    HW182881   9.207   7.290  10.808
27016SOL    HW282882   9.255   7.343  10.942
27017SOL     OW82883   5.260   6.973  13.301
27017SOL    HW182884   5.212   7.022  13.368
27017SOL    HW282885   5.302   6.902  13.349
27018SOL     OW82886  12.486   2.012   3.049
27018SOL    HW182887  12.536   1.931   3.039
27018SOL    HW282888  12.439   2.001   3.131
27019SOL     OW82889  13.048  10.986  11.731
27019SOL    HW182890  13.135  11.001  11.693
27019SOL    HW282891  13.015  10.909  11.686
27020SOL     OW82892   3.740  13.728  10.783
27020SOL    HW182893   3.812  13.763  10.731
27020SOL    HW282894   3.783  13.683  10.856
27021SOL     OW82895   9.031  10.845   0.005
27021SOL    HW182896   9.112  10.809  14.841
27021SOL    HW282897   8.986  10.769   0.042
27022SOL     OW82898   2.341  14.045  10.720
27022SOL    HW182899   2.258  14.067  10.679
27022SOL    HW282900   2.346  13.950  10.716
27023SOL     OW82901   6.930   3.715  11.999
27023SOL    HW182902   6.834   3.715  12.006
27023SOL    HW282903   6.954   3.808  12.001
27024SOL     OW82904   1.681   2.404  11.420
27024SOL    HW182905   1.681   2.366  11.332
27024SOL    HW282906   1.628   2.344  11.471
27025SOL     OW82907   1.621   5.481  12.288
27025SOL    HW182908   1.547   5.451  12.342
27025SOL    HW282909   1.698   5.448  12.333
27026SOL     OW82910   8.771   3.391   3.257
27026SOL    HW182911   8.677   3.403   3.246
27026SOL    HW282912   8.803   3.366   3.170
27027SOL     OW82913   8.750   0.614   7.915
27027SOL    HW182914   8.753   0.643   7.824
27027SOL    HW282915   8.657   0.609   7.937
27028SOL     OW82916  10.348   4.700   6.513
27028SOL    HW182917  10.351   4.710   6.608
27028SOL    HW282918  10.318   4.785   6.482
27029SOL     OW82919  12.692   5.786   9.685
27029SOL    HW182920  12.765   5.735   9.648
27029SOL    HW282921  12.615   5.731   9.671
27030SOL     OW82922   1.557  12.561   6.343
27030SOL    HW182923   1.625  12.609   6.391
27030SOL    HW282924   1.519  12.503   6.409
27031SOL     OW82925   5.425   7.888  13.921
27031SOL    HW182926   5.427   7.804  13.875
27031SOL    HW282927   5.494   7.939  13.880
27032SOL     OW82928  11.011   4.048   9.410
27032SOL    HW182929  11.007   4.144   9.418
27032SOL    HW282930  11.019   4.017   9.500
27033SOL     OW82931   8.195   2.500  12.877
27033SOL    HW182932   8.250   2.432  12.837
27033SOL    HW282933   8.195   2.571  12.813
27034SOL     OW82934  13.414   6.316   0.148
27034SOL    HW182935  13.440   6.371   0.073
27034SOL    HW282936  13.319   6.324   0.151
27035SOL     OW82937   4.952  10.918  13.292
27035SOL    HW182938   5.032  10.963  13.321
27035SOL    HW282939   4.958  10.831  13.330
27036SOL     OW82940   7.021   0.051   9.205
27036SOL    HW182941   7.079   0.020   9.135
27036SOL    HW282942   6.991  14.844   9.248
27037SOL     OW82943  14.569   6.197   0.604
27037SOL    HW182944  14.494   6.257   0.606
27037SOL    HW282945  14.645   6.253   0.615
27038SOL     OW82946  14.221   6.652   5.021
27038SOL    HW182947  14.287   6.718   5.040
27038SOL    HW282948  14.266   6.568   5.033
27039SOL     OW82949   8.009   9.403   7.904
27039SOL    HW182950   7.920   9.437   7.897
27039SOL    HW282951   8.055   9.441   7.829
27040SOL     OW82952   6.928  13.581   3.897
27040SOL    HW182953   6.837  13.609   3.898
27040SOL    HW282954   6.945  13.556   3.806
27041SOL     OW82955   4.481   0.087   7.597
27041SOL    HW182956   4.553   0.122   7.546
27041SOL    HW282957   4.447   0.015   7.543
27042SOL     OW82958   7.158  10.409   5.730
27042SOL    HW182959   7.104  10.377   5.658
27042SOL    HW282960   7.209  10.333   5.758
27043SOL     OW82961  14.159   1.100  10.964
27043SOL    HW182962  14.214   1.168  10.925
27043SOL    HW282963  14.220   1.046  11.014
27044SOL     OW82964   3.223   9.091   9.803
27044SOL    HW182965   3.181   9.054   9.881
27044SOL    HW282966   3.296   9.031   9.786
27045SOL     OW82967   0.363   3.628   4.487
27045SOL    HW182968   0.375   3.714   4.447
27045SOL    HW282969   0.270   3.609   4.475
27046SOL     OW82970  14.826   3.670  13.009
27046SOL    HW182971  14.795   3.587  12.972
27046SOL    HW282972   0.022   3.698  12.948
27047SOL     OW82973   0.091   0.371  13.582
27047SOL    HW182974   0.044   0.288  13.590
27047SOL    HW282975   0.138   0.380  13.665
27048SOL     OW82976   4.103   8.396  12.974
27048SOL    HW182977   4.079   8.359  13.059
27048SOL    HW282978   4.178   8.344  12.945
27049SOL     OW82979  12.607   4.925   7.962
27049SOL    HW182980  12.564   5.006   7.990
27049SOL    HW282981  12.544   4.884   7.903
27050SOL     OW82982   5.815   9.140   3.192
27050SOL    HW182983   5.809   9.054   3.233
27050SOL    HW282984   5.826   9.201   3.265
27051SOL     OW82985  13.369   1.928   9.466
27051SOL    HW182986  13.278   1.957   9.464
27051SOL    HW282987  13.378   1.873   9.389
27052SOL     OW82988   4.270   8.013   5.730
27052SOL    HW182989   4.351   7.962   5.735
27052SOL    HW282990   4.203   7.958   5.769
27053SOL     OW82991  11.172   6.460   1.191
27053SOL    HW182992  11.248   6.511   1.161
27053SOL    HW282993  11.209   6.395   1.251
27054SOL     OW82994   5.286  10.485   0.958
27054SOL    HW182995   5.195  10.457   0.968
27054SOL    HW282996   5.291  10.566   1.009
27055SOL     OW82997   2.028  13.222  14.522
27055SOL    HW182998   1.940  13.185  14.534
27055SOL    HW282999   2.073  13.159  14.466
27056SOL     OW83000  13.131   1.433  14.580
27056SOL    HW183001  13.172   1.419  14.494
27056SOL    HW283002  13.066   1.502  14.564
27057SOL     OW83003   6.910  10.539   4.349
27057SOL    HW183004   6.861  10.484   4.410
27057SOL    HW283005   6.843  10.578   4.293
27058SOL     OW83006   6.448   9.833   1.179
27058SOL    HW183007   6.464   9.762   1.117
27058SOL    HW283008   6.379   9.885   1.140
27059SOL     OW83009   5.714   2.501  13.179
27059SOL    HW183010   5.733   2.571  13.116
27059SOL    HW283011   5.774   2.518  13.252
27060SOL     OW83012   1.081   5.556   0.413
27060SOL    HW183013   1.094   5.580   0.321
27060SOL    HW283014   0.986   5.541   0.421
27061SOL     OW83015   1.475   3.369  13.004
27061SOL    HW183016   1.427   3.448  13.027
27061SOL    HW283017   1.423   3.328  12.934
27062SOL     OW83018  10.605  14.490  11.811
27062SOL    HW183019  10.634  14.405  11.844
27062SOL    HW283020  10.596  14.477  11.716
27063SOL     OW83021   6.620   6.132   2.529
27063SOL    HW183022   6.603   6.038   2.532
27063SOL    HW283023   6.673   6.149   2.607
27064SOL     OW83024  13.882   7.917   3.630
27064SOL    HW183025  13.884   7.840   3.686
27064SOL    HW283026  13.842   7.887   3.548
27065SOL     OW83027   0.704  14.207  13.322
27065SOL    HW183028   0.726  14.119  13.292
27065SOL    HW283029   0.738  14.211  13.411
27066SOL     OW83030   3.919   4.773  12.620
27066SOL    HW183031   3.888   4.745  12.706
27066SOL    HW283032   3.879   4.858  12.606
27067SOL     OW83033   0.555   0.081   7.907
27067SOL    HW183034   0.638   0.128   7.919
27067SOL    HW283035   0.490   0.135   7.953
27068SOL     OW83036   4.517   9.087   7.173
27068SOL    HW183037   4.604   9.049   7.184
27068SOL    HW283038   4.460   9.034   7.228
27069SOL     OW83039  13.087   0.166   8.486
27069SOL    HW183040  13.154   0.211   8.435
27069SOL    HW283041  13.062   0.091   8.432
27070SOL     OW83042  14.222   9.543   6.728
27070SOL    HW183043  14.193   9.572   6.814
27070SOL    HW283044  14.185   9.455   6.719
27071SOL     OW83045   0.382   5.857  11.239
27071SOL    HW183046   0.451   5.867  11.305
27071SOL    HW283047   0.315   5.920  11.265
27072SOL     OW83048   8.784   8.831  13.448
27072SOL    HW183049   8.729   8.796  13.377
27072SOL    HW283050   8.754   8.785  13.526
27073SOL     OW83051   7.145   7.928   9.302
27073SOL    HW183052   7.103   7.843   9.292
27073SOL    HW283053   7.163   7.957   9.212
27074SOL     OW83054   5.564   8.533   1.032
27074SOL    HW183055   5.569   8.442   1.063
27074SOL    HW283056   5.504   8.529   0.957
27075SOL     OW83057   7.889   0.789  11.307
27075SOL    HW183058   7.938   0.708  11.323
27075SOL    HW283059   7.863   0.818  11.395
27076SOL     OW83060   1.656   8.990   8.085
27076SOL    HW183061   1.628   8.986   7.993
27076SOL    HW283062   1.650   8.899   8.115
27077SOL     OW83063   1.275   0.265   6.097
27077SOL    HW183064   1.340   0.281   6.029
27077SOL    HW283065   1.210   0.207   6.055
27078SOL     OW83066  11.880   5.636   2.705
27078SOL    HW183067  11.964   5.669   2.736
27078SOL    HW283068  11.815   5.674   2.764
27079SOL     OW83069   7.716  13.774   0.517
27079SOL    HW183070   7.783  13.818   0.570
27079SOL    HW283071   7.764  13.744   0.439
27080SOL     OW83072   1.824  10.129   4.142
27080SOL    HW183073   1.877  10.189   4.194
27080SOL    HW283074   1.860  10.042   4.161
27081SOL     OW83075  12.777   2.734   3.172
27081SOL    HW183076  12.855   2.692   3.136
27081SOL    HW283077  12.773   2.819   3.128
27082SOL     OW83078   2.334   5.936   3.395
27082SOL    HW183079   2.365   6.025   3.384
27082SOL    HW283080   2.397   5.882   3.346
27083SOL     OW83081   3.080  11.216   0.207
27083SOL    HW183082   3.029  11.190   0.283
27083SOL    HW283083   3.136  11.140   0.188
27084SOL     OW83084   8.818  14.293  11.335
27084SOL    HW183085   8.796  14.381  11.307
27084SOL    HW283086   8.874  14.305  11.412
27085SOL     OW83087   2.697  12.060   2.509
27085SOL    HW183088   2.623  12.048   2.568
27085SOL    HW283089   2.726  11.972   2.487
27086SOL     OW83090   3.111   8.481   9.687
27086SOL    HW183091   3.160   8.509   9.609
27086SOL    HW283092   3.151   8.531   9.758
27087SOL     OW83093   4.184   4.450   2.294
27087SOL    HW183094   4.136   4.484   2.219
27087SOL    HW283095   4.178   4.355   2.285
27088SOL     OW83096   6.097   4.848   9.820
27088SOL    HW183097   6.099   4.762   9.778
27088SOL    HW283098   6.008   4.879   9.806
27089SOL     OW83099   4.774   6.836  12.527
27089SOL    HW183100   4.856   6.859  12.570
27089SOL    HW283101   4.779   6.877  12.441
27090SOL     OW83102   4.878  14.105  14.708
27090SOL    HW183103   4.894  14.020  14.666
27090SOL    HW283104   4.928  14.167  14.655
27091SOL     OW83105  14.725  11.459   0.370
27091SOL    HW183106  14.791  11.470   0.438
27091SOL    HW283107  14.767  11.493   0.291
27092SOL     OW83108  12.929  11.940  10.630
27092SOL    HW183109  13.005  11.950  10.573
27092SOL    HW283110  12.883  12.024  10.622
27093SOL     OW83111   3.693  14.809   1.835
27093SOL    HW183112   3.767  14.825   1.776
27093SOL    HW283113   3.712  14.863   1.912
27094SOL     OW83114   6.501  12.012  10.696
27094SOL    HW183115   6.457  11.932  10.726
27094SOL    HW283116   6.447  12.043  10.623
27095SOL     OW83117   8.197   1.514   9.484
27095SOL    HW183118   8.270   1.576   9.482
27095SOL    HW283119   8.163   1.519   9.573
27096SOL     OW83120  12.220   2.949   5.895
27096SOL    HW183121  12.277   2.951   5.818
27096SOL    HW283122  12.135   2.921   5.861
27097SOL     OW83123   3.579   1.661   4.950
27097SOL    HW183124   3.640   1.639   4.879
27097SOL    HW283125   3.492   1.651   4.910
27098SOL     OW83126   1.455  13.418  11.883
27098SOL    HW183127   1.414  13.342  11.925
27098SOL    HW283128   1.387  13.454  11.828
27099SOL     OW83129  12.606  12.015   4.126
27099SOL    HW183130  12.689  12.037   4.168
27099SOL    HW283131  12.592  12.086   4.063
27100SOL     OW83132   4.959   6.509  10.272
27100SOL    HW183133   5.042   6.503  10.226
27100SOL    HW283134   4.908   6.574  10.223
27101SOL     OW83135  12.867  11.953  11.535
27101SOL    HW183136  12.937  12.018  11.545
27101SOL    HW283137  12.812  11.965  11.612
27102SOL     OW83138   5.492  14.799  11.965
27102SOL    HW183139   5.490  14.848  12.047
27102SOL    HW283140   5.523  14.862  11.899
27103SOL     OW83141   4.809   7.484   5.365
27103SOL    HW183142   4.769   7.399   5.342
27103SOL    HW283143   4.747   7.549   5.333
27104SOL     OW83144   9.613  13.066   0.598
27104SOL    HW183145   9.534  13.027   0.561
27104SOL    HW283146   9.633  13.140   0.540
27105SOL     OW83147  13.241  13.809   5.806
27105SOL    HW183148  13.219  13.718   5.824
27105SOL    HW283149  13.186  13.834   5.732
27106SOL     OW83150   9.122   3.623   0.135
27106SOL    HW183151   9.125   3.623   0.039
27106SOL    HW283152   9.087   3.709   0.159
27107SOL     OW83153   3.487  13.174  11.886
27107SOL    HW183154   3.404  13.210  11.916
27107SOL    HW283155   3.463  13.112  11.817
27108SOL     OW83156  11.207  13.572  10.715
27108SOL    HW183157  11.118  13.536  10.714
27108SOL    HW283158  11.238  13.555  10.804
27109SOL     OW83159   7.182   3.478   1.494
27109SOL    HW183160   7.166   3.384   1.506
27109SOL    HW283161   7.100   3.512   1.457
27110SOL     OW83162  11.732   3.032   8.346
27110SOL    HW183163  11.786   3.069   8.416
27110SOL    HW283164  11.767   2.944   8.333
27111SOL     OW83165   4.980  11.495   1.209
27111SOL    HW183166   4.952  11.407   1.231
27111SOL    HW283167   5.076  11.490   1.207
27112SOL     OW83168  11.667   7.507  11.691
27112SOL    HW183169  11.590   7.549  11.730
27112SOL    HW283170  11.708   7.576  11.639
27113SOL     OW83171   9.249   0.306   5.425
27113SOL    HW183172   9.279   0.232   5.478
27113SOL    HW283173   9.250   0.381   5.485
27114SOL     OW83174   3.394   8.107  14.051
27114SOL    HW183175   3.464   8.171  14.034
27114SOL    HW283176   3.354   8.092  13.966
27115SOL     OW83177   4.445   2.749   7.310
27115SOL    HW183178   4.437   2.834   7.352
27115SOL    HW283179   4.476   2.768   7.221
27116SOL     OW83180   4.122   5.533   6.292
27116SOL    HW183181   4.046   5.588   6.309
27116SOL    HW283182   4.085   5.451   6.259
27117SOL     OW83183  13.794   1.224  14.227
27117SOL    HW183184  13.786   1.293  14.293
27117SOL    HW283185  13.877   1.242  14.183
27118SOL     OW83186  11.483  11.696   0.876
27118SOL    HW183187  11.549  11.764   0.861
27118SOL    HW283188  11.407  11.744   0.909
27119SOL     OW83189   0.280  13.404  12.525
27119SOL    HW183190   0.250  13.487  12.488
27119SOL    HW283191   0.372  13.419  12.547
27120SOL     OW83192   8.742   5.203  13.751
27120SOL    HW183193   8.727   5.187  13.658
27120SOL    HW283194   8.777   5.292  13.755
27121SOL     OW83195   0.260   2.132   2.128
27121SOL    HW183196   0.353   2.156   2.127
27121SOL    HW283197   0.223   2.186   2.198
27122SOL     OW83198   0.584   9.935  12.751
27122SOL    HW183199   0.672   9.934  12.790
27122SOL    HW283200   0.600   9.957  12.659
27123SOL     OW83201   5.704  11.220   2.998
27123SOL    HW183202   5.747  11.227   3.083
27123SOL    HW283203   5.687  11.310   2.972
27124SOL     OW83204   2.801  13.196   0.222
27124SOL    HW183205   2.848  13.150   0.291
27124SOL    HW283206   2.711  13.163   0.228
27125SOL     OW83207   2.610   7.103  11.222
27125SOL    HW183208   2.649   7.145  11.299
27125SOL    HW283209   2.519   7.131  11.223
27126SOL     OW83210   6.151  14.080   1.472
27126SOL    HW183211   6.193  14.137   1.536
27126SOL    HW283212   6.169  13.992   1.503
27127SOL     OW83213   4.493  11.275   0.072
27127SOL    HW183214   4.419  11.284   0.132
27127SOL    HW283215   4.455  11.292  14.858
27128SOL     OW83216   4.872   2.783  10.784
27128SOL    HW183217   4.911   2.836  10.854
27128SOL    HW283218   4.895   2.829  10.704
27129SOL     OW83219   5.521   6.763  13.628
27129SOL    HW183220   5.453   6.781  13.563
27129SOL    HW283221   5.534   6.669  13.624
27130SOL     OW83222   5.967   0.406   2.883
27130SOL    HW183223   6.033   0.442   2.944
27130SOL    HW283224   6.009   0.410   2.797
27131SOL     OW83225   2.670   1.495  11.373
27131SOL    HW183226   2.630   1.434  11.311
27131SOL    HW283227   2.732   1.441  11.423
27132SOL     OW83228  10.989  10.396   3.190
27132SOL    HW183229  11.003  10.388   3.284
27132SOL    HW283230  11.075  10.379   3.151
27133SOL     OW83231  12.967  12.653   1.474
27133SOL    HW183232  12.900  12.607   1.524
27133SOL    HW283233  12.931  12.740   1.460
27134SOL     OW83234   7.487  10.091  12.286
27134SOL    HW183235   7.431  10.051  12.353
27134SOL    HW283236   7.427  10.142  12.232
27135SOL     OW83237   6.711   1.411  11.716
27135SOL    HW183238   6.764   1.431  11.793
27135SOL    HW283239   6.628   1.455  11.732
27136SOL     OW83240  10.578  13.588   3.432
27136SOL    HW183241  10.513  13.561   3.498
27136SOL    HW283242  10.619  13.507   3.403
27137SOL     OW83243   9.940   7.359  12.582
27137SOL    HW183244   9.960   7.326  12.670
27137SOL    HW283245   9.897   7.286  12.538
27138SOL     OW83246   9.946   7.472   4.015
27138SOL    HW183247   9.999   7.405   3.973
27138SOL    HW283248  10.000   7.504   4.087
27139SOL     OW83249   5.083  13.068   7.261
27139SOL    HW183250   5.120  13.155   7.248
27139SOL    HW283251   4.991  13.077   7.239
27140SOL     OW83252   0.612  12.447   3.277
27140SOL    HW183253   0.616  12.541   3.260
27140SOL    HW283254   0.611  12.406   3.191
27141SOL     OW83255   3.815   7.733  12.640
27141SOL    HW183256   3.902   7.702  12.666
27141SOL    HW283257   3.829   7.773  12.554
27142SOL     OW83258   1.585   1.312   5.132
27142SOL    HW183259   1.509   1.294   5.077
27142SOL    HW283260   1.560   1.282   5.219
27143SOL     OW83261   8.233  11.032   2.994
27143SOL    HW183262   8.293  11.032   2.919
27143SOL    HW283263   8.162  11.090   2.967
27144SOL     OW83264  14.430   2.897  12.015
27144SOL    HW183265  14.398   2.986  12.000
27144SOL    HW283266  14.481   2.875  11.937
27145SOL     OW83267   3.105   0.683   9.415
27145SOL    HW183268   3.170   0.622   9.450
27145SOL    HW283269   3.095   0.749   9.483
27146SOL     OW83270  13.018   3.367   5.593
27146SOL    HW183271  12.998   3.343   5.503
27146SOL    HW283272  13.065   3.292   5.629
27147SOL     OW83273   0.355   5.710   9.537
27147SOL    HW183274   0.299   5.715   9.459
27147SOL    HW283275   0.386   5.799   9.550
27148SOL     OW83276   9.335  11.240   9.309
27148SOL    HW183277   9.252  11.234   9.355
27148SOL    HW283278   9.330  11.171   9.242
27149SOL     OW83279  10.681   9.817   6.271
27149SOL    HW183280  10.657   9.759   6.199
27149SOL    HW283281  10.597   9.843   6.309
27150SOL     OW83282   5.021  12.960   9.010
27150SOL    HW183283   4.971  12.897   9.062
27150SOL    HW283284   5.112  12.942   9.032
27151SOL     OW83285   6.353  10.729   9.229
27151SOL    HW183286   6.339  10.733   9.323
27151SOL    HW283287   6.287  10.667   9.197
27152SOL     OW83288   1.817   4.971  11.189
27152SOL    HW183289   1.775   5.030  11.126
27152SOL    HW283290   1.885   4.927  11.139
27153SOL     OW83291   4.966  12.932   7.972
27153SOL    HW183292   4.967  13.027   7.976
27153SOL    HW283293   4.913  12.905   8.048
27154SOL     OW83294   5.198   5.547  13.422
27154SOL    HW183295   5.256   5.600  13.368
27154SOL    HW283296   5.210   5.581  13.510
27155SOL     OW83297   2.708   7.103   4.683
27155SOL    HW183298   2.627   7.152   4.697
27155SOL    HW283299   2.776   7.156   4.723
27156SOL     OW83300   5.380   5.822   6.334
27156SOL    HW183301   5.375   5.748   6.395
27156SOL    HW283302   5.305   5.811   6.276
27157SOL     OW83303   9.744   3.873   0.307
27157SOL    HW183304   9.773   3.955   0.267
27157SOL    HW283305   9.676   3.900   0.369
27158SOL     OW83306   4.443  14.262   9.549
27158SOL    HW183307   4.453  14.352   9.580
27158SOL    HW283308   4.503  14.211   9.604
27159SOL     OW83309   5.407   1.476  13.951
27159SOL    HW183310   5.482   1.511  13.998
27159SOL    HW283311   5.356   1.430  14.018
27160SOL     OW83312   2.535   3.894  11.337
27160SOL    HW183313   2.477   3.936  11.273
27160SOL    HW283314   2.492   3.910  11.421
27161SOL     OW83315   0.754   1.526  14.746
27161SOL    HW183316   0.688   1.460  14.765
27161SOL    HW283317   0.754   1.534  14.651
27162SOL     OW83318  13.327   6.225  13.731
27162SOL    HW183319  13.388   6.257  13.664
27162SOL    HW283320  13.351   6.133  13.744
27163SOL     OW83321  12.759   1.197   1.238
27163SOL    HW183322  12.755   1.201   1.333
27163SOL    HW283323  12.778   1.106   1.218
27164SOL     OW83324   6.593   0.103   3.779
27164SOL    HW183325   6.623   0.013   3.768
27164SOL    HW283326   6.507   0.095   3.821
27165SOL     OW83327   3.177   4.613   6.533
27165SOL    HW183328   3.246   4.670   6.567
27165SOL    HW283329   3.126   4.588   6.610
27166SOL     OW83330  14.801  14.099   1.379
27166SOL    HW183331  14.838  14.066   1.461
27166SOL    HW283332  14.756  14.024   1.341
27167SOL     OW83333   5.314   5.395   1.422
27167SOL    HW183334   5.356   5.358   1.500
27167SOL    HW283335   5.356   5.480   1.411
27168SOL     OW83336   1.680   7.840   2.475
27168SOL    HW183337   1.613   7.773   2.467
27168SOL    HW283338   1.634   7.915   2.513
27169SOL     OW83339   8.445   7.957   9.871
27169SOL    HW183340   8.354   7.982   9.889
27169SOL    HW283341   8.471   7.904   9.947
27170SOL     OW83342   5.931   9.204   7.572
27170SOL    HW183343   5.837   9.190   7.574
27170SOL    HW283344   5.941   9.293   7.539
27171SOL     OW83345   3.382   3.512   9.864
27171SOL    HW183346   3.311   3.450   9.886
27171SOL    HW283347   3.424   3.530   9.948
27172SOL     OW83348  14.455  13.298  11.779
27172SOL    HW183349  14.468  13.237  11.707
27172SOL    HW283350  14.471  13.246  11.858
27173SOL     OW83351   6.931  10.976   5.897
27173SOL    HW183352   6.941  11.036   5.971
27173SOL    HW283353   7.020  10.947   5.878
27174SOL     OW83354   7.291  12.587   6.553
27174SOL    HW183355   7.250  12.512   6.508
27174SOL    HW283356   7.238  12.599   6.632
27175SOL     OW83357   7.464   3.302   1.738
27175SOL    HW183358   7.449   3.210   1.758
27175SOL    HW283359   7.406   3.320   1.664
27176SOL     OW83360   4.307   0.411   6.918
27176SOL    HW183361   4.225   0.414   6.868
27176SOL    HW283362   4.340   0.322   6.904
27177SOL     OW83363   2.515   7.892   9.134
27177SOL    HW183364   2.557   7.947   9.068
27177SOL    HW283365   2.569   7.813   9.138
27178SOL     OW83366   4.445  14.397  14.777
27178SOL    HW183367   4.507  14.326  14.760
27178SOL    HW283368   4.412  14.422  14.690
27179SOL     OW83369   2.565   7.581   8.545
27179SOL    HW183370   2.515   7.611   8.469
27179SOL    HW283371   2.648   7.551   8.508
27180SOL     OW83372  11.256   6.874   3.437
27180SOL    HW183373  11.298   6.788   3.429
27180SOL    HW283374  11.313   6.933   3.388
27181SOL     OW83375   3.454   3.014  12.737
27181SOL    HW183376   3.460   3.109  12.722
27181SOL    HW283377   3.544   2.984  12.735
27182SOL     OW83378   7.066  12.416  10.764
27182SOL    HW183379   6.998  12.359  10.729
27182SOL    HW283380   7.073  12.487  10.700
27183SOL     OW83381   8.061   7.649   3.736
27183SOL    HW183382   7.983   7.625   3.685
27183SOL    HW283383   8.026   7.685   3.817
27184SOL     OW83384   5.729  10.979   4.826
27184SOL    HW183385   5.680  11.043   4.878
27184SOL    HW283386   5.777  10.927   4.891
27185SOL     OW83387   7.479   7.789  14.279
27185SOL    HW183388   7.456   7.762  14.190
27185SOL    HW283389   7.411   7.752  14.334
27186SOL     OW83390  12.501   4.999   0.076
27186SOL    HW183391  12.516   5.075   0.133
27186SOL    HW283392  12.472   4.930   0.136
27187SOL     OW83393   0.984   8.051   4.873
27187SOL    HW183394   1.047   8.000   4.924
27187SOL    HW283395   1.009   8.037   4.782
27188SOL     OW83396   3.462   2.776   6.395
27188SOL    HW183397   3.387   2.724   6.423
27188SOL    HW283398   3.538   2.729   6.429
27189SOL     OW83399  13.455   0.310   4.288
27189SOL    HW183400  13.376   0.260   4.267
27189SOL    HW283401  13.450   0.325   4.382
27190SOL     OW83402   5.862   7.322   0.881
27190SOL    HW183403   5.845   7.416   0.878
27190SOL    HW283404   5.878   7.303   0.974
27191SOL     OW83405  12.220   4.884   9.076
27191SOL    HW183406  12.300   4.936   9.069
27191SOL    HW283407  12.193   4.871   8.985
27192SOL     OW83408   9.576   6.576  13.246
27192SOL    HW183409   9.510   6.528  13.195
27192SOL    HW283410   9.548   6.568  13.337
27193SOL     OW83411  13.092   0.492  12.964
27193SOL    HW183412  13.063   0.462  12.878
27193SOL    HW283413  13.069   0.420  13.023
27194SOL     OW83414  10.791  13.264  12.115
27194SOL    HW183415  10.837  13.180  12.116
27194SOL    HW283416  10.750  13.269  12.029
27195SOL     OW83417   2.194   4.512   3.636
27195SOL    HW183418   2.127   4.580   3.626
27195SOL    HW283419   2.274   4.561   3.656
27196SOL     OW83420  14.666   3.010   3.691
27196SOL    HW183421  14.644   3.061   3.613
27196SOL    HW283422  14.595   2.947   3.699
27197SOL     OW83423  13.492   0.952  11.925
27197SOL    HW183424  13.449   0.899  11.858
27197SOL    HW283425  13.430   0.952  11.998
27198SOL     OW83426   4.049  11.885  11.070
27198SOL    HW183427   4.012  11.828  11.002
27198SOL    HW283428   3.987  11.878  11.143
27199SOL     OW83429  13.840   4.073   0.929
27199SOL    HW183430  13.930   4.053   0.904
27199SOL    HW283431  13.788   4.052   0.852
27200SOL     OW83432   9.471   2.244   6.463
27200SOL    HW183433   9.432   2.304   6.398
27200SOL    HW283434   9.538   2.196   6.414
27201SOL     OW83435   1.079  11.755   1.451
27201SOL    HW183436   1.036  11.763   1.366
27201SOL    HW283437   1.042  11.825   1.503
27202SOL     OW83438   3.081  14.048   9.902
27202SOL    HW183439   3.147  14.117   9.900
27202SOL    HW283440   3.072  14.026   9.994
27203SOL     OW83441   9.862   3.980   1.493
27203SOL    HW183442   9.894   3.904   1.542
27203SOL    HW283443   9.936   4.005   1.438
27204SOL     OW83444   9.031  12.349   5.860
27204SOL    HW183445   9.101  12.381   5.804
27204SOL    HW283446   8.988  12.428   5.893
27205SOL     OW83447   5.053   1.378  11.791
27205SOL    HW183448   5.132   1.344  11.833
27205SOL    HW283449   5.077   1.388  11.699
27206SOL     OW83450   9.326  10.330  13.013
27206SOL    HW183451   9.288  10.417  13.000
27206SOL    HW283452   9.398  10.326  12.950
27207SOL     OW83453   3.153   4.467  12.079
27207SOL    HW183454   3.060   4.461  12.055
27207SOL    HW283455   3.190   4.529  12.017
27208SOL     OW83456  12.783  12.825  12.191
27208SOL    HW183457  12.806  12.900  12.245
27208SOL    HW283458  12.761  12.756  12.254
27209SOL     OW83459   5.302  11.417   4.444
27209SOL    HW183460   5.356  11.463   4.509
27209SOL    HW283461   5.254  11.487   4.400
27210SOL     OW83462   4.341   6.316  14.437
27210SOL    HW183463   4.399   6.240  14.429
27210SOL    HW283464   4.372   6.363  14.514
27211SOL     OW83465   5.768  11.910   2.529
27211SOL    HW183466   5.696  11.878   2.474
27211SOL    HW283467   5.845  11.863   2.499
27212SOL     OW83468   2.929  10.610  13.069
27212SOL    HW183469   2.864  10.641  13.133
27212SOL    HW283470   2.881  10.605  12.986
27213SOL     OW83471  10.913   0.905  14.406
27213SOL    HW183472  10.995   0.950  14.388
27213SOL    HW283473  10.858   0.924  14.330
27214SOL     OW83474  14.544   2.329  10.981
27214SOL    HW183475  14.478   2.394  11.004
27214SOL    HW283476  14.609   2.378  10.931
27215SOL     OW83477   5.365   0.586   4.057
27215SOL    HW183478   5.395   0.499   4.086
27215SOL    HW283479   5.278   0.595   4.094
27216SOL     OW83480   6.882   5.112   1.962
27216SOL    HW183481   6.822   5.038   1.970
27216SOL    HW283482   6.910   5.131   2.052
27217SOL     OW83483  13.525   4.690  14.206
27217SOL    HW183484  13.580   4.616  14.233
27217SOL    HW283485  13.585   4.748  14.159
27218SOL     OW83486  11.579   7.290   4.158
27218SOL    HW183487  11.488   7.287   4.129
27218SOL    HW283488  11.630   7.275   4.078
27219SOL     OW83489  14.567  12.188   1.217
27219SOL    HW183490  14.645  12.147   1.257
27219SOL    HW283491  14.579  12.282   1.232
27220SOL     OW83492  14.353   3.113   1.839
27220SOL    HW183493  14.351   3.065   1.756
27220SOL    HW283494  14.376   3.047   1.904
27221SOL     OW83495   3.530   4.823   3.722
27221SOL    HW183496   3.465   4.753   3.722
27221SOL    HW283497   3.602   4.790   3.776
27222SOL     OW83498   7.583   2.096  11.554
27222SOL    HW183499   7.515   2.033  11.578
27222SOL    HW283500   7.665   2.050  11.572
27223SOL     OW83501   4.605   0.147  13.950
27223SOL    HW183502   4.543   0.116  13.884
27223SOL    HW283503   4.660   0.211  13.903
27224SOL     OW83504   4.653  13.016   8.071
27224SOL    HW183505   4.573  12.967   8.092
27224SOL    HW283506   4.641  13.045   7.981
27225SOL     OW83507   1.546   3.857   8.634
27225SOL    HW183508   1.549   3.801   8.712
27225SOL    HW283509   1.638   3.870   8.610
27226SOL     OW83510  14.410   9.332  10.323
27226SOL    HW183511  14.335   9.280  10.293
27226SOL    HW283512  14.403   9.330  10.419
27227SOL     OW83513  10.735   8.147   2.359
27227SOL    HW183514  10.680   8.134   2.282
27227SOL    HW283515  10.808   8.200   2.327
27228SOL     OW83516   3.929  12.825   3.159
27228SOL    HW183517   3.914  12.823   3.253
27228SOL    HW283518   3.996  12.759   3.143
27229SOL     OW83519   6.946   6.295   2.522
27229SOL    HW183520   6.896   6.239   2.463
27229SOL    HW283521   6.907   6.278   2.608
27230SOL     OW83522  13.359   6.892   9.752
27230SOL    HW183523  13.358   6.831   9.826
27230SOL    HW283524  13.291   6.956   9.774
27231SOL     OW83525   2.101   6.715   7.068
27231SOL    HW183526   2.158   6.743   6.996
27231SOL    HW283527   2.013   6.728   7.034
27232SOL     OW83528  11.404   1.460  13.154
27232SOL    HW183529  11.324   1.424  13.193
27232SOL    HW283530  11.465   1.387  13.153
27233SOL     OW83531  10.677  13.151   1.842
27233SOL    HW183532  10.625  13.224   1.807
27233SOL    HW283533  10.767  13.170   1.816
27234SOL     OW83534   6.003   2.742   2.544
27234SOL    HW183535   6.095   2.740   2.517
27234SOL    HW283536   5.999   2.683   2.619
27235SOL     OW83537  11.088   3.346   9.765
27235SOL    HW183538  11.048   3.329   9.851
27235SOL    HW283539  11.068   3.437   9.747
27236SOL     OW83540   5.024  11.953  13.385
27236SOL    HW183541   5.023  11.977  13.478
27236SOL    HW283542   5.063  11.865  13.384
27237SOL     OW83543   1.577  11.642   8.622
27237SOL    HW183544   1.530  11.560   8.611
27237SOL    HW283545   1.592  11.673   8.533
27238SOL     OW83546   1.322   9.776  10.291
27238SOL    HW183547   1.375   9.789  10.212
27238SOL    HW283548   1.238   9.816  10.270
27239SOL     OW83549   4.171  10.938   4.257
27239SOL    HW183550   4.094  10.961   4.204
27239SOL    HW283551   4.146  10.960   4.347
27240SOL     OW83552   8.279  14.122   8.949
27240SOL    HW183553   8.296  14.136   8.856
27240SOL    HW283554   8.366  14.128   8.990
27241SOL     OW83555  14.084   8.657   7.446
27241SOL    HW183556  14.073   8.697   7.533
27241SOL    HW283557  14.159   8.598   7.457
27242SOL     OW83558   1.510   7.332   0.086
27242SOL    HW183559   1.518   7.283   0.004
27242SOL    HW283560   1.470   7.415   0.060
27243SOL     OW83561   9.177  11.854   5.121
27243SOL    HW183562   9.141  11.942   5.115
27243SOL    HW283563   9.117  11.808   5.180
27244SOL     OW83564   3.570  14.222   0.978
27244SOL    HW183565   3.628  14.153   0.944
27244SOL    HW283566   3.590  14.226   1.071
27245SOL     OW83567   9.890   3.092   7.312
27245SOL    HW183568   9.856   3.025   7.371
27245SOL    HW283569   9.973   3.120   7.351
27246SOL     OW83570   4.960   1.436   1.563
27246SOL    HW183571   4.934   1.451   1.654
27246SOL    HW283572   4.933   1.516   1.517
27247SOL     OW83573   4.628  12.044   5.216
27247SOL    HW183574   4.680  12.038   5.136
27247SOL    HW283575   4.631  12.137   5.240
27248SOL     OW83576  10.622   3.870   6.720
27248SOL    HW183577  10.709   3.861   6.681
27248SOL    HW283578  10.627   3.819   6.801
27249SOL     OW83579   5.344  11.789   5.781
27249SOL    HW183580   5.341  11.820   5.691
27249SOL    HW283581   5.420  11.731   5.784
27250SOL     OW83582  13.572  11.544  12.590
27250SOL    HW183583  13.535  11.456  12.595
27250SOL    HW283584  13.498  11.602  12.605
27251SOL     OW83585   4.856   0.021  13.562
27251SOL    HW183586   4.945   0.056  13.570
27251SOL    HW283587   4.848  14.832  13.635
27252SOL     OW83588  14.080   7.506   8.212
27252SOL    HW183589  14.067   7.412   8.224
27252SOL    HW283590  14.056   7.545   8.296
27253SOL     OW83591   9.490   3.039  11.249
27253SOL    HW183592   9.519   3.130  11.258
27253SOL    HW283593   9.553   2.989  11.301
27254SOL     OW83594   6.502  13.878  11.221
27254SOL    HW183595   6.417  13.867  11.177
27254SOL    HW283596   6.502  13.968  11.252
27255SOL     OW83597   1.264   9.244   4.569
27255SOL    HW183598   1.289   9.152   4.566
27255SOL    HW283599   1.171   9.244   4.546
27256SOL     OW83600   3.240  11.034  14.570
27256SOL    HW183601   3.210  10.979  14.643
27256SOL    HW283602   3.179  11.015  14.499
27257SOL     OW83603  13.500   4.741   4.407
27257SOL    HW183604  13.462   4.661   4.370
27257SOL    HW283605  13.519   4.718   4.498
27258SOL     OW83606   5.197  12.001   2.042
27258SOL    HW183607   5.134  11.932   2.021
27258SOL    HW283608   5.144  12.073   2.077
27259SOL     OW83609   0.569   2.534   9.664
27259SOL    HW183610   0.655   2.560   9.697
27259SOL    HW283611   0.588   2.486   9.583
27260SOL     OW83612   3.535   0.541   2.250
27260SOL    HW183613   3.493   0.600   2.312
27260SOL    HW283614   3.514   0.453   2.282
27261SOL     OW83615   1.942  11.889  11.208
27261SOL    HW183616   1.857  11.930  11.222
27261SOL    HW283617   1.921  11.801  11.175
27262SOL     OW83618   1.916  12.906   4.090
27262SOL    HW183619   1.860  12.918   4.013
27262SOL    HW283620   1.959  12.990   4.102
27263SOL     OW83621   7.162  14.227   3.274
27263SOL    HW183622   7.101  14.294   3.243
27263SOL    HW283623   7.248  14.268   3.265
27264SOL     OW83624   1.701   1.126  10.985
27264SOL    HW183625   1.755   1.048  10.976
27264SOL    HW283626   1.612   1.095  10.969
27265SOL     OW83627  11.343  13.416  10.452
27265SOL    HW183628  11.310  13.496  10.492
27265SOL    HW283629  11.408  13.384  10.514
27266SOL     OW83630   3.553   7.148  13.705
27266SOL    HW183631   3.464   7.169  13.732
27266SOL    HW283632   3.607   7.171  13.781
27267SOL     OW83633   9.313  12.987   2.017
27267SOL    HW183634   9.389  13.043   2.029
27267SOL    HW283635   9.332  12.937   1.937
27268SOL     OW83636  13.508   9.757   5.128
27268SOL    HW183637  13.501   9.812   5.205
27268SOL    HW283638  13.559   9.809   5.066
27269SOL     OW83639   7.888   6.008   4.484
27269SOL    HW183640   7.955   6.022   4.417
27269SOL    HW283641   7.938   6.001   4.566
27270SOL     OW83642   0.945   9.506   0.933
27270SOL    HW183643   0.863   9.528   0.889
27270SOL    HW283644   0.969   9.420   0.898
27271SOL     OW83645   9.406  12.550   4.898
27271SOL    HW183646   9.377  12.608   4.969
27271SOL    HW283647   9.445  12.475   4.943
27272SOL     OW83648   9.799  11.871   9.633
27272SOL    HW183649   9.872  11.928   9.610
27272SOL    HW283650   9.811  11.855   9.727
27273SOL     OW83651   4.340   4.554  12.775
27273SOL    HW183652   4.368   4.538  12.685
27273SOL    HW283653   4.409   4.514  12.829
27274SOL     OW83654  14.851   1.299   1.419
27274SOL    HW183655  14.836   1.256   1.503
27274SOL    HW283656  14.861   1.391   1.440
27275SOL     OW83657  14.199   9.642   1.217
27275SOL    HW183658  14.149   9.577   1.168
27275SOL    HW283659  14.237   9.699   1.149
27276SOL     OW83660  12.315  10.505   2.945
27276SOL    HW183661  12.270  10.511   3.029
27276SOL    HW283662  12.387  10.568   2.952
27277SOL     OW83663   8.050  13.259   0.264
27277SOL    HW183664   8.058  13.194   0.194
27277SOL    HW283665   8.094  13.219   0.339
27278SOL     OW83666   7.651   2.476  13.162
27278SOL    HW183667   7.684   2.457  13.074
27278SOL    HW283668   7.684   2.404  13.216
27279SOL     OW83669   9.644   6.391   1.905
27279SOL    HW183670   9.692   6.312   1.930
27279SOL    HW283671   9.554   6.376   1.935
27280SOL     OW83672  13.356   1.759  10.954
27280SOL    HW183673  13.308   1.727  10.878
27280SOL    HW283674  13.391   1.843  10.926
27281SOL     OW83675   7.426  10.380  12.442
27281SOL    HW183676   7.509  10.366  12.396
27281SOL    HW283677   7.365  10.408  12.374
27282SOL     OW83678  14.848   9.497   8.583
27282SOL    HW183679  14.826   9.412   8.545
27282SOL    HW283680  14.781   9.557   8.551
27283SOL     OW83681   3.142   6.233  10.039
27283SOL    HW183682   3.170   6.177   9.967
27283SOL    HW283683   3.111   6.313   9.996
27284SOL     OW83684  12.327   0.692   3.995
27284SOL    HW183685  12.291   0.764   3.944
27284SOL    HW283686  12.269   0.684   4.071
27285SOL     OW83687  13.454   5.225   0.232
27285SOL    HW183688  13.517   5.272   0.178
27285SOL    HW283689  13.505   5.194   0.307
27286SOL     OW83690  14.529   4.557   0.704
27286SOL    HW183691  14.563   4.468   0.717
27286SOL    HW283692  14.521   4.593   0.792
27287SOL     OW83693   5.405   2.359   0.328
27287SOL    HW183694   5.340   2.389   0.391
27287SOL    HW283695   5.415   2.432   0.268
27288SOL     OW83696   4.297   4.680  11.009
27288SOL    HW183697   4.274   4.588  10.999
27288SOL    HW283698   4.296   4.715  10.920
27289SOL     OW83699   2.576   2.124  14.602
27289SOL    HW183700   2.595   2.036  14.634
27289SOL    HW283701   2.482   2.135  14.617
27290SOL     OW83702   0.774   9.757  14.031
27290SOL    HW183703   0.831   9.751  14.109
27290SOL    HW283704   0.832   9.790  13.962
27291SOL     OW83705   7.776   0.514   1.799
27291SOL    HW183706   7.757   0.424   1.826
27291SOL    HW283707   7.826   0.551   1.872
27292SOL     OW83708   9.855   5.795  14.688
27292SOL    HW183709   9.927   5.751  14.734
27292SOL    HW283710   9.873   5.888  14.698
27293SOL     OW83711   8.636   4.519  10.855
27293SOL    HW183712   8.555   4.543  10.899
27293SOL    HW283713   8.683   4.464  10.918
27294SOL     OW83714   0.335   9.703   9.947
27294SOL    HW183715   0.248   9.667   9.965
27294SOL    HW283716   0.375   9.640   9.887
27295SOL     OW83717  10.629   9.308   0.299
27295SOL    HW183718  10.706   9.263   0.266
27295SOL    HW283719  10.572   9.238   0.332
27296SOL     OW83720   1.873   1.988  12.649
27296SOL    HW183721   1.869   1.898  12.617
27296SOL    HW283722   1.789   2.001  12.693
27297SOL     OW83723  13.291   2.236  13.342
27297SOL    HW183724  13.293   2.150  13.382
27297SOL    HW283725  13.334   2.293  13.405
27298SOL     OW83726   2.364   0.000   3.287
27298SOL    HW183727   2.444   0.029   3.243
27298SOL    HW283728   2.370  14.778   3.288
27299SOL     OW83729  14.275   2.400   8.189
27299SOL    HW183730  14.324   2.392   8.271
27299SOL    HW283731  14.198   2.451   8.213
27300SOL     OW83732  11.052  12.650   6.275
27300SOL    HW183733  11.086  12.562   6.256
27300SOL    HW283734  11.054  12.696   6.192
27301SOL     OW83735   8.362   1.818   4.968
27301SOL    HW183736   8.446   1.843   5.006
27301SOL    HW283737   8.339   1.736   5.014
27302SOL     OW83738  14.386   1.785  11.135
27302SOL    HW183739  14.382   1.849  11.206
27302SOL    HW283740  14.475   1.793  11.100
27303SOL     OW83741   7.134   4.035  14.425
27303SOL    HW183742   7.175   4.117  14.451
27303SOL    HW283743   7.040   4.055  14.421
27304SOL     OW83744  11.242  11.438   9.819
27304SOL    HW183745  11.329  11.454   9.855
27304SOL    HW283746  11.253  11.447   9.724
27305SOL     OW83747   9.281   3.857   4.799
27305SOL    HW183748   9.241   3.909   4.730
27305SOL    HW283749   9.310   3.777   4.756
27306SOL     OW83750   5.364   3.752  10.058
27306SOL    HW183751   5.440   3.713  10.015
27306SOL    HW283752   5.341   3.690  10.126
27307SOL     OW83753  12.856   3.196  14.290
27307SOL    HW183754  12.918   3.205  14.218
27307SOL    HW283755  12.893   3.127  14.345
27308SOL     OW83756   1.876  10.430  10.503
27308SOL    HW183757   1.853  10.512  10.460
27308SOL    HW283758   1.844  10.362  10.444
27309SOL     OW83759  10.512   1.608   7.896
27309SOL    HW183760  10.439   1.659   7.862
27309SOL    HW283761  10.482   1.576   7.981
27310SOL     OW83762   2.836   8.239   9.080
27310SOL    HW183763   2.820   8.211   9.170
27310SOL    HW283764   2.906   8.182   9.049
27311SOL     OW83765   9.084   0.400   1.601
27311SOL    HW183766   9.084   0.325   1.660
27311SOL    HW283767   9.044   0.367   1.521
27312SOL     OW83768  10.368   0.822   3.917
27312SOL    HW183769  10.343   0.837   4.009
27312SOL    HW283770  10.444   0.764   3.922
27313SOL     OW83771   3.578   7.473   9.574
27313SOL    HW183772   3.619   7.534   9.636
27313SOL    HW283773   3.651   7.425   9.536
27314SOL     OW83774  11.945   7.153   8.619
27314SOL    HW183775  11.914   7.125   8.705
27314SOL    HW283776  11.900   7.095   8.558
27315SOL     OW83777   9.820   6.096   3.591
27315SOL    HW183778   9.788   6.006   3.589
27315SOL    HW283779   9.797   6.128   3.678
27316SOL     OW83780  10.726   8.423  13.988
27316SOL    HW183781  10.757   8.359  14.052
27316SOL    HW283782  10.734   8.507  14.032
27317SOL     OW83783   2.566   4.790   9.106
27317SOL    HW183784   2.615   4.712   9.131
27317SOL    HW283785   2.634   4.854   9.084
27318SOL     OW83786   9.986   7.515   1.267
27318SOL    HW183787   9.988   7.498   1.362
27318SOL    HW283788  10.021   7.435   1.228
27319SOL     OW83789  14.030  11.848   2.781
27319SOL    HW183790  14.015  11.839   2.687
27319SOL    HW283791  14.065  11.764   2.808
27320SOL     OW83792  13.639   5.011   6.297
27320SOL    HW183793  13.622   5.056   6.380
27320SOL    HW283794  13.645   5.082   6.232
27321SOL     OW83795  11.511   0.091   5.077
27321SOL    HW183796  11.569   0.124   5.147
27321SOL    HW283797  11.516  14.869   5.085
27322SOL     OW83798   0.637  13.953   5.422
27322SOL    HW183799   0.646  13.977   5.330
27322SOL    HW283800   0.701  13.883   5.434
27323SOL     OW83801   4.602  12.731   1.475
27323SOL    HW183802   4.521  12.686   1.497
27323SOL    HW283803   4.608  12.803   1.537
27324SOL     OW83804   6.598   1.082   9.029
27324SOL    HW183805   6.534   1.138   9.072
27324SOL    HW283806   6.560   0.994   9.034
27325SOL     OW83807   7.407   2.787  11.157
27325SOL    HW183808   7.350   2.712  11.175
27325SOL    HW283809   7.389   2.811  11.067
27326SOL     OW83810  10.958  14.327   2.658
27326SOL    HW183811  10.941  14.397   2.595
27326SOL    HW283812  10.994  14.372   2.735
27327SOL     OW83813   7.469  11.969   1.681
27327SOL    HW183814   7.460  12.064   1.691
27327SOL    HW283815   7.443  11.953   1.590
27328SOL     OW83816   8.506  13.659   7.147
27328SOL    HW183817   8.537  13.647   7.237
27328SOL    HW283818   8.574  13.712   7.105
27329SOL     OW83819   9.637   9.304   8.161
27329SOL    HW183820   9.626   9.395   8.188
27329SOL    HW283821   9.617   9.253   8.239
27330SOL     OW83822  12.557  10.010   9.252
27330SOL    HW183823  12.472   9.988   9.289
27330SOL    HW283824  12.536  10.058   9.172
27331SOL     OW83825  11.804  13.246   2.684
27331SOL    HW183826  11.842  13.214   2.766
27331SOL    HW283827  11.711  13.257   2.703
27332SOL     OW83828  14.650  11.897  13.683
27332SOL    HW183829  14.562  11.934  13.674
27332SOL    HW283830  14.643  11.836  13.756
27333SOL     OW83831   8.659   9.924   6.086
27333SOL    HW183832   8.621   9.884   6.008
27333SOL    HW283833   8.593   9.912   6.154
27334SOL     OW83834  11.267   1.076  12.389
27334SOL    HW183835  11.345   1.069  12.444
27334SOL    HW283836  11.199   1.030  12.438
27335SOL     OW83837   0.249   9.341   7.829
27335SOL    HW183838   0.197   9.342   7.748
27335SOL    HW283839   0.240   9.251   7.861
27336SOL     OW83840   0.180   7.890   0.053
27336SOL    HW183841   0.092   7.913   0.081
27336SOL    HW283842   0.170   7.805   0.010
27337SOL     OW83843  12.702   6.635  12.485
27337SOL    HW183844  12.784   6.647  12.533
27337SOL    HW283845  12.664   6.555  12.522
27338SOL     OW83846   1.041   3.339  11.436
27338SOL    HW183847   1.132   3.361  11.458
27338SOL    HW283848   1.033   3.361  11.343
27339SOL     OW83849   8.416  12.988   6.889
27339SOL    HW183850   8.449  12.900   6.906
27339SOL    HW283851   8.446  13.040   6.963
27340SOL     OW83852  13.232   6.052   0.021
27340SOL    HW183853  13.224   6.133  14.843
27340SOL    HW283854  13.261   5.987  14.830
27341SOL     OW83855   8.495   5.324   2.964
27341SOL    HW183856   8.445   5.246   2.988
27341SOL    HW283857   8.577   5.290   2.927
27342SOL     OW83858   2.980  11.129   4.652
27342SOL    HW183859   2.963  11.210   4.700
27342SOL    HW283860   2.992  11.158   4.561
27343SOL     OW83861   1.116   3.520  14.849
27343SOL    HW183862   1.186   3.584  14.852
27343SOL    HW283863   1.056   3.553  14.782
27344SOL     OW83864   4.342   5.832   3.169
27344SOL    HW183865   4.287   5.800   3.098
27344SOL    HW283866   4.294   5.906   3.206
27345SOL     OW83867  11.392   2.854   1.803
27345SOL    HW183868  11.487   2.839   1.806
27345SOL    HW283869  11.360   2.791   1.738
27346SOL     OW83870  13.053  14.571   3.047
27346SOL    HW183871  13.078  14.479   3.049
27346SOL    HW283872  13.050  14.593   2.954
27347SOL     OW83873   6.429  10.409   2.377
27347SOL    HW183874   6.393  10.383   2.462
27347SOL    HW283875   6.413  10.333   2.321
27348SOL     OW83876   6.027   3.769   8.676
27348SOL    HW183877   6.083   3.816   8.614
27348SOL    HW283878   6.071   3.779   8.760
27349SOL     OW83879   6.684  11.560  11.382
27349SOL    HW183880   6.688  11.473  11.344
27349SOL    HW283881   6.764  11.568  11.434
27350SOL     OW83882  10.989   4.128   3.839
27350SOL    HW183883  10.942   4.206   3.812
27350SOL    HW283884  10.956   4.109   3.927
27351SOL     OW83885   6.268   4.815  10.143
27351SOL    HW183886   6.361   4.794  10.139
27351SOL    HW283887   6.265   4.910  10.153
27352SOL     OW83888  10.765  14.203   4.705
27352SOL    HW183889  10.803  14.165   4.784
27352SOL    HW283890  10.736  14.128   4.653
27353SOL     OW83891   9.726   8.854  10.239
27353SOL    HW183892   9.727   8.776  10.294
27353SOL    HW283893   9.636   8.858  10.206
27354SOL     OW83894   5.977  11.403   1.728
27354SOL    HW183895   5.885  11.406   1.757
27354SOL    HW283896   6.004  11.494   1.727
27355SOL     OW83897   6.823   5.632   4.175
27355SOL    HW183898   6.872   5.578   4.112
27355SOL    HW283899   6.866   5.615   4.259
27356SOL     OW83900   7.515  12.235   1.097
27356SOL    HW183901   7.472  12.234   1.183
27356SOL    HW283902   7.454  12.283   1.041
27357SOL     OW83903  10.157   2.440  13.703
27357SOL    HW183904  10.206   2.395  13.635
27357SOL    HW283905  10.156   2.380  13.777
27358SOL     OW83906   6.890   4.593   5.363
27358SOL    HW183907   6.869   4.682   5.391
27358SOL    HW283908   6.953   4.561   5.429
27359SOL     OW83909   1.161  11.096   1.726
27359SOL    HW183910   1.104  11.021   1.744
27359SOL    HW283911   1.114  11.147   1.661
27360SOL     OW83912   6.124  12.018  10.303
27360SOL    HW183913   6.051  11.968  10.266
27360SOL    HW283914   6.113  12.106  10.266
27361SOL     OW83915   4.935   8.245   7.752
27361SOL    HW183916   4.937   8.221   7.659
27361SOL    HW283917   5.027   8.262   7.774
27362SOL     OW83918   1.338  13.410   0.382
27362SOL    HW183919   1.413  13.352   0.396
27362SOL    HW283920   1.376  13.497   0.376
27363SOL     OW83921   9.852   8.622   1.273
27363SOL    HW183922   9.864   8.711   1.239
27363SOL    HW283923   9.833   8.569   1.196
27364SOL     OW83924   2.872  12.379   9.655
27364SOL    HW183925   2.858  12.289   9.624
27364SOL    HW283926   2.957  12.376   9.699
27365SOL     OW83927   3.774  12.804  13.330
27365SOL    HW183928   3.733  12.774  13.411
27365SOL    HW283929   3.754  12.735  13.266
27366SOL     OW83930  10.358  11.574  12.533
27366SOL    HW183931  10.426  11.637  12.510
27366SOL    HW283932  10.407  11.496  12.561
27367SOL     OW83933   7.873   0.551   7.768
27367SOL    HW183934   7.868   0.476   7.826
27367SOL    HW283935   7.918   0.618   7.819
27368SOL     OW83936   8.242   4.151   9.816
27368SOL    HW183937   8.282   4.235   9.838
27368SOL    HW283938   8.149   4.161   9.836
27369SOL     OW83939  12.115   9.133   7.256
27369SOL    HW183940  12.099   9.045   7.222
27369SOL    HW283941  12.187   9.122   7.318
27370SOL     OW83942  10.267  14.239   2.317
27370SOL    HW183943  10.241  14.220   2.407
27370SOL    HW283944  10.345  14.294   2.325
27371SOL     OW83945   7.540   2.327   5.813
27371SOL    HW183946   7.621   2.376   5.801
27371SOL    HW283947   7.556   2.274   5.891
27372SOL     OW83948   1.181   7.825   7.807
27372SOL    HW183949   1.170   7.831   7.902
27372SOL    HW283950   1.248   7.890   7.786
27373SOL     OW83951  12.947   7.146   1.278
27373SOL    HW183952  12.865   7.138   1.327
27373SOL    HW283953  12.920   7.159   1.187
27374SOL     OW83954   7.815   7.881   9.951
27374SOL    HW183955   7.871   7.849  10.021
27374SOL    HW283956   7.868   7.947   9.905
27375SOL     OW83957   9.016  11.381   8.018
27375SOL    HW183958   9.106  11.365   7.987
27375SOL    HW283959   8.965  11.394   7.938
27376SOL     OW83960  12.691   9.315  12.463
27376SOL    HW183961  12.659   9.232  12.426
27376SOL    HW283962  12.719   9.292  12.552
27377SOL     OW83963   7.215   6.007   9.475
27377SOL    HW183964   7.219   5.994   9.380
27377SOL    HW283965   7.273   6.082   9.491
27378SOL     OW83966  11.114   2.914  11.952
27378SOL    HW183967  11.197   2.945  11.914
27378SOL    HW283968  11.074   2.994  11.988
27379SOL     OW83969   7.218   0.204   8.879
27379SOL    HW183970   7.199   0.259   8.956
27379SOL    HW283971   7.218   0.266   8.806
27380SOL     OW83972   3.369   2.923   4.331
27380SOL    HW183973   3.430   2.982   4.375
27380SOL    HW283974   3.317   2.980   4.274
27381SOL     OW83975  10.058   8.672   2.427
27381SOL    HW183976  10.037   8.751   2.477
27381SOL    HW283977  10.143   8.644   2.461
27382SOL     OW83978  11.260   1.972  14.143
27382SOL    HW183979  11.292   1.923  14.220
27382SOL    HW283980  11.180   1.925  14.117
27383SOL     OW83981   5.755   5.397   9.576
27383SOL    HW183982   5.727   5.444   9.498
27383SOL    HW283983   5.683   5.411   9.639
27384SOL     OW83984  13.644   2.152   2.902
27384SOL    HW183985  13.592   2.188   2.830
27384SOL    HW283986  13.729   2.132   2.862
27385SOL     OW83987   3.577  13.788   9.437
27385SOL    HW183988   3.579  13.881   9.461
27385SOL    HW283989   3.511  13.783   9.368
27386SOL     OW83990  10.517   3.722  11.134
27386SOL    HW183991  10.607   3.729  11.103
27386SOL    HW283992  10.478   3.651  11.083
27387SOL     OW83993  10.355   8.207   3.708
27387SOL    HW183994  10.410   8.201   3.786
27387SOL    HW283995  10.416   8.219   3.635
27388SOL     OW83996   7.950   8.258  14.765
27388SOL    HW183997   7.945   8.173  14.809
27388SOL    HW283998   7.893   8.315  14.816
27389SOL     OW83999   7.219   6.107   8.507
27389SOL    HW184000   7.205   6.154   8.425
27389SOL    HW284001   7.166   6.027   8.498
27390SOL     OW84002   5.745   6.577   1.787
27390SOL    HW184003   5.739   6.670   1.808
27390SOL    HW284004   5.806   6.573   1.713
27391SOL     OW84005   4.820   1.230  11.681
27391SOL    HW184006   4.861   1.313  11.706
27391SOL    HW284007   4.726   1.244  11.697
27392SOL     OW84008   4.464   5.429   2.314
27392SOL    HW184009   4.395   5.368   2.286
27392SOL    HW284010   4.545   5.386   2.288
27393SOL     OW84011  13.135  11.886  13.797
27393SOL    HW184012  13.085  11.823  13.849
27393SOL    HW284013  13.127  11.969  13.844
27394SOL     OW84014   0.777   0.120  11.985
27394SOL    HW184015   0.695   0.125  12.035
27394SOL    HW284016   0.759   0.168  11.904
27395SOL     OW84017   6.390  13.195   5.748
27395SOL    HW184018   6.381  13.141   5.827
27395SOL    HW284019   6.332  13.154   5.684
27396SOL     OW84020   2.176   1.119   3.148
27396SOL    HW184021   2.176   1.182   3.076
27396SOL    HW284022   2.268   1.106   3.169
27397SOL     OW84023   4.930   8.368   6.753
27397SOL    HW184024   4.865   8.355   6.821
27397SOL    HW284025   4.883   8.357   6.671
27398SOL     OW84026   1.022  14.231  11.773
27398SOL    HW184027   1.092  14.202  11.831
27398SOL    HW284028   1.035  14.325  11.764
27399SOL     OW84029   5.911   1.906   5.097
27399SOL    HW184030   5.936   1.982   5.044
27399SOL    HW284031   5.816   1.900   5.088
27400SOL     OW84032  10.894   9.262   0.164
27400SOL    HW184033  10.977   9.279   0.209
27400SOL    HW284034  10.888   9.331   0.098
27401SOL     OW84035   1.127  10.871   0.095
27401SOL    HW184036   1.201  10.907   0.145
27401SOL    HW284037   1.128  10.777   0.115
27402SOL     OW84038   9.151   7.482   0.562
27402SOL    HW184039   9.129   7.568   0.598
27402SOL    HW284040   9.152   7.495   0.467
27403SOL     OW84041   1.387   7.832   2.487
27403SOL    HW184042   1.352   7.744   2.482
27403SOL    HW284043   1.339   7.874   2.559
27404SOL     OW84044   8.470   5.194  11.878
27404SOL    HW184045   8.483   5.233  11.791
27404SOL    HW284046   8.554   5.152  11.899
27405SOL     OW84047   3.863   7.779   4.610
27405SOL    HW184048   3.861   7.722   4.533
27405SOL    HW284049   3.774   7.775   4.644
27406SOL     OW84050   9.592  14.829  14.790
27406SOL    HW184051   9.588  14.757  14.852
27406SOL    HW284052   9.673   0.003  14.813
27407SOL     OW84053   8.056   5.977  13.210
27407SOL    HW184054   8.125   5.986  13.145
27407SOL    HW284055   8.035   5.884  13.212
27408SOL     OW84056   3.464   9.229   0.436
27408SOL    HW184057   3.380   9.271   0.451
27408SOL    HW284058   3.484   9.246   0.344
27409SOL     OW84059  12.696  12.824   7.150
27409SOL    HW184060  12.625  12.876   7.189
27409SOL    HW284061  12.751  12.888   7.106
27410SOL     OW84062   5.890   2.619  10.160
27410SOL    HW184063   5.794   2.621  10.162
27410SOL    HW284064   5.912   2.600  10.069
27411SOL     OW84065  13.912  11.684  10.241
27411SOL    HW184066  13.930  11.595  10.211
27411SOL    HW284067  13.842  11.674  10.305
27412SOL     OW84068   0.982   9.912   4.452
27412SOL    HW184069   1.028   9.926   4.369
27412SOL    HW284070   0.895   9.883   4.426
27413SOL     OW84071   3.207   4.303   6.996
27413SOL    HW184072   3.145   4.331   7.064
27413SOL    HW284073   3.174   4.344   6.915
27414SOL     OW84074   0.188  10.797   5.688
27414SOL    HW184075   0.128  10.757   5.751
27414SOL    HW284076   0.155  10.887   5.677
27415SOL     OW84077  12.474  10.964   7.005
27415SOL    HW184078  12.458  10.899   6.937
27415SOL    HW284079  12.555  11.008   6.977
27416SOL     OW84080   7.683   1.727   4.224
27416SOL    HW184081   7.745   1.797   4.243
27416SOL    HW284082   7.608   1.746   4.281
27417SOL     OW84083   1.119  11.693  14.449
27417SOL    HW184084   1.154  11.606  14.467
27417SOL    HW284085   1.158  11.748  14.517
27418SOL     OW84086   9.378  13.596  10.280
27418SOL    HW184087   9.399  13.508  10.311
27418SOL    HW284088   9.421  13.602  10.194
27419SOL     OW84089   7.318   8.242   3.308
27419SOL    HW184090   7.334   8.320   3.361
27419SOL    HW284091   7.237   8.205   3.345
27420SOL     OW84092   9.123   9.014   0.370
27420SOL    HW184093   9.210   8.983   0.397
27420SOL    HW284094   9.062   8.962   0.421
27421SOL     OW84095  12.966   6.163  10.545
27421SOL    HW184096  12.921   6.228  10.599
27421SOL    HW284097  12.899   6.099  10.522
27422SOL     OW84098   9.973  10.509   3.126
27422SOL    HW184099   9.947  10.453   3.200
27422SOL    HW284100   9.991  10.447   3.055
27423SOL     OW84101  14.283  11.834   8.896
27423SOL    HW184102  14.254  11.837   8.804
27423SOL    HW284103  14.212  11.790   8.942
27424SOL     OW84104   1.349   0.354   3.972
27424SOL    HW184105   1.307   0.350   4.058
27424SOL    HW284106   1.377   0.265   3.954
27425SOL     OW84107  14.041   5.584  12.410
27425SOL    HW184108  14.069   5.610  12.497
27425SOL    HW284109  14.119   5.545  12.370
27426SOL     OW84110   3.954   9.741   7.830
27426SOL    HW184111   4.047   9.722   7.816
27426SOL    HW284112   3.947   9.761   7.923
27427SOL     OW84113   4.472  12.479   6.276
27427SOL    HW184114   4.387  12.452   6.242
27427SOL    HW284115   4.535  12.441   6.214
27428SOL     OW84116   9.785  14.434  14.668
27428SOL    HW184117   9.759  14.460  14.756
27428SOL    HW284118   9.743  14.349  14.654
27429SOL     OW84119   0.255   8.343  12.403
27429SOL    HW184120   0.210   8.414  12.357
27429SOL    HW284121   0.238   8.265  12.349
27430SOL     OW84122  13.093   1.955   2.079
27430SOL    HW184123  13.044   1.897   2.138
27430SOL    HW284124  13.121   2.027   2.135
27431SOL     OW84125   2.139  11.944  11.997
27431SOL    HW184126   2.161  11.889  12.072
27431SOL    HW284127   2.196  11.914  11.927
27432SOL     OW84128   6.907   8.979   2.879
27432SOL    HW184129   6.946   9.059   2.845
27432SOL    HW284130   6.829   9.008   2.927
27433SOL     OW84131  11.105   0.043  10.960
27433SOL    HW184132  11.193   0.005  10.963
27433SOL    HW284133  11.077   0.043  11.052
27434SOL     OW84134   3.107   4.280  13.154
27434SOL    HW184135   3.132   4.218  13.223
27434SOL    HW284136   3.017   4.303  13.174
27435SOL     OW84137   2.349   4.303  10.341
27435SOL    HW184138   2.339   4.352  10.423
27435SOL    HW284139   2.332   4.212  10.365
27436SOL     OW84140   1.461   4.138  12.758
27436SOL    HW184141   1.509   4.135  12.840
27436SOL    HW284142   1.381   4.087  12.774
27437SOL     OW84143   5.386   8.132   4.162
27437SOL    HW184144   5.327   8.063   4.194
27437SOL    HW284145   5.337   8.213   4.174
27438SOL     OW84146   0.832  14.718  11.507
27438SOL    HW184147   0.875  14.644  11.550
27438SOL    HW284148   0.784  14.678  11.434
27439SOL     OW84149   2.847  13.882  10.195
27439SOL    HW184150   2.931  13.845  10.169
27439SOL    HW284151   2.868  13.969  10.229
27440SOL     OW84152  11.374  10.494   9.949
27440SOL    HW184153  11.464  10.476   9.921
27440SOL    HW284154  11.342  10.410   9.981
27441SOL     OW84155   6.188  11.367   0.630
27441SOL    HW184156   6.144  11.451   0.639
27441SOL    HW284157   6.117  11.303   0.624
27442SOL     OW84158  11.245   1.201   9.385
27442SOL    HW184159  11.278   1.194   9.296
27442SOL    HW284160  11.155   1.234   9.375
27443SOL     OW84161  13.394   4.352   3.665
27443SOL    HW184162  13.455   4.418   3.631
27443SOL    HW284163  13.310   4.375   3.627
27444SOL     OW84164   8.991   1.073   3.127
27444SOL    HW184165   8.940   1.130   3.071
27444SOL    HW284166   9.071   1.122   3.146
27445SOL     OW84167  12.657   2.325  12.459
27445SOL    HW184168  12.585   2.321  12.397
27445SOL    HW284169  12.668   2.419  12.478
27446SOL     OW84170   0.532   4.558  12.245
27446SOL    HW184171   0.606   4.510  12.281
27446SOL    HW284172   0.529   4.639  12.296
27447SOL     OW84173   9.519   9.175   5.123
27447SOL    HW184174   9.544   9.134   5.206
27447SOL    HW284175   9.459   9.113   5.082
27448SOL     OW84176   0.817   2.964   6.299
27448SOL    HW184177   0.903   3.001   6.318
27448SOL    HW284178   0.826   2.870   6.318
27449SOL     OW84179  11.105   6.989   3.092
27449SOL    HW184180  11.083   7.077   3.063
27449SOL    HW284181  11.024   6.955   3.130
27450SOL     OW84182   5.917   4.466  11.786
27450SOL    HW184183   5.917   4.420  11.702
27450SOL    HW284184   5.890   4.555  11.765
27451SOL     OW84185   3.961  13.576  11.246
27451SOL    HW184186   3.987  13.655  11.198
27451SOL    HW284187   3.869  13.564  11.224
27452SOL     OW84188   1.759   9.388   5.741
27452SOL    HW184189   1.706   9.308   5.739
27452SOL    HW284190   1.812   9.383   5.662
27453SOL     OW84191  13.039   6.755   8.299
27453SOL    HW184192  13.024   6.733   8.207
27453SOL    HW284193  13.134   6.751   8.310
27454SOL     OW84194   2.261  14.580   7.135
27454SOL    HW184195   2.176  14.558   7.099
27454SOL    HW284196   2.242  14.641   7.206
27455SOL     OW84197   4.831   2.111   3.091
27455SOL    HW184198   4.819   2.202   3.063
27455SOL    HW284199   4.827   2.060   3.010
27456SOL     OW84200   9.936   4.919   9.989
27456SOL    HW184201   9.859   4.871   9.959
27456SOL    HW284202   9.991   4.928   9.912
27457SOL     OW84203  10.669  14.278   8.259
27457SOL    HW184204  10.663  14.324   8.342
27457SOL    HW284205  10.717  14.198   8.279
27458SOL     OW84206   7.068   2.163   4.658
27458SOL    HW184207   6.986   2.116   4.673
27458SOL    HW284208   7.046   2.231   4.595
27459SOL     OW84209   8.842   4.603  12.691
27459SOL    HW184210   8.875   4.573  12.776
27459SOL    HW284211   8.916   4.592  12.631
27460SOL     OW84212   8.826   2.238  11.218
27460SOL    HW184213   8.816   2.192  11.301
27460SOL    HW284214   8.828   2.330  11.242
27461SOL     OW84215  11.507  11.520   4.974
27461SOL    HW184216  11.531  11.610   4.996
27461SOL    HW284217  11.432  11.529   4.915
27462SOL     OW84218   0.365   3.206  14.684
27462SOL    HW184219   0.422   3.172  14.754
27462SOL    HW284220   0.387   3.299  14.679
27463SOL     OW84221   4.220   2.294  13.934
27463SOL    HW184222   4.313   2.301  13.910
27463SOL    HW284223   4.220   2.239  14.012
27464SOL     OW84224   5.469  10.718  11.819
27464SOL    HW184225   5.418  10.685  11.744
27464SOL    HW284226   5.522  10.788  11.782
27465SOL     OW84227  13.548  10.714  10.119
27465SOL    HW184228  13.474  10.702  10.058
27465SOL    HW284229  13.583  10.626  10.132
27466SOL     OW84230   8.623   5.507  10.847
27466SOL    HW184231   8.569   5.452  10.903
27466SOL    HW284232   8.585   5.498  10.760
27467SOL     OW84233   0.591  10.329   4.876
27467SOL    HW184234   0.557  10.385   4.806
27467SOL    HW284235   0.606  10.389   4.949
27468SOL     OW84236   3.442  14.805   8.682
27468SOL    HW184237   3.497  14.729   8.661
27468SOL    HW284238   3.357  14.785   8.643
27469SOL     OW84239  13.208   8.458  10.342
27469SOL    HW184240  13.246   8.484  10.425
27469SOL    HW284241  13.201   8.362  10.347
27470SOL     OW84242   6.974   5.349   5.487
27470SOL    HW184243   6.918   5.334   5.411
27470SOL    HW284244   7.054   5.301   5.467
27471SOL     OW84245  12.801   9.926   5.679
27471SOL    HW184246  12.883   9.938   5.728
27471SOL    HW284247  12.777  10.014   5.652
27472SOL     OW84248   4.104  14.020  10.845
27472SOL    HW184249   4.135  14.110  10.835
27472SOL    HW284250   4.174  13.966  10.808
27473SOL     OW84251   1.217   6.394  11.353
27473SOL    HW184252   1.220   6.418  11.260
27473SOL    HW284253   1.150   6.451  11.390
27474SOL     OW84254   3.738   8.922  10.325
27474SOL    HW184255   3.708   8.964  10.245
27474SOL    HW284256   3.828   8.897  10.306
27475SOL     OW84257   8.783   7.115   8.926
27475SOL    HW184258   8.837   7.039   8.905
27475SOL    HW284259   8.748   7.096   9.013
27476SOL     OW84260   2.028   9.065  13.741
27476SOL    HW184261   1.960   9.037  13.802
27476SOL    HW284262   1.991   9.046  13.654
27477SOL     OW84263   2.835  14.441   1.071
27477SOL    HW184264   2.879  14.479   0.995
27477SOL    HW284265   2.783  14.369   1.035
27478SOL     OW84266  11.891   7.998  10.960
27478SOL    HW184267  11.973   8.046  10.971
27478SOL    HW284268  11.918   7.908  10.943
27479SOL     OW84269   8.693   1.358   7.786
27479SOL    HW184270   8.734   1.271   7.793
27479SOL    HW284271   8.602   1.339   7.764
27480SOL     OW84272   6.605   7.982   1.172
27480SOL    HW184273   6.685   7.957   1.219
27480SOL    HW284274   6.555   7.901   1.165
27481SOL     OW84275   7.843  14.146   3.840
27481SOL    HW184276   7.830  14.122   3.748
27481SOL    HW284277   7.937  14.136   3.854
27482SOL     OW84278  14.391  11.873  12.951
27482SOL    HW184279  14.409  11.906  13.039
27482SOL    HW284280  14.404  11.779  12.957
27483SOL     OW84281  10.169   9.204  11.528
27483SOL    HW184282  10.220   9.265  11.475
27483SOL    HW284283  10.193   9.117  11.497
27484SOL     OW84284  12.575   8.785   2.537
27484SOL    HW184285  12.582   8.701   2.582
27484SOL    HW284286  12.589   8.765   2.445
27485SOL     OW84287  14.796   7.824  10.233
27485SOL    HW184288  14.871   7.785  10.277
27485SOL    HW284289  14.724   7.763  10.248
27486SOL     OW84290  14.169   3.191  14.102
27486SOL    HW184291  14.141   3.102  14.122
27486SOL    HW284292  14.159   3.199  14.007
27487SOL     OW84293   4.873  11.164   1.855
27487SOL    HW184294   4.946  11.136   1.910
27487SOL    HW284295   4.836  11.240   1.901
27488SOL     OW84296   5.980  13.470  10.527
27488SOL    HW184297   5.975  13.484  10.432
27488SOL    HW284298   5.896  13.432  10.550
27489SOL     OW84299  13.179   4.943   5.297
27489SOL    HW184300  13.093   4.943   5.254
27489SOL    HW284301  13.216   4.857   5.277
27490SOL     OW84302   3.904  13.807   3.552
27490SOL    HW184303   3.816  13.841   3.568
27490SOL    HW284304   3.902  13.718   3.589
27491SOL     OW84305   8.091   1.202  11.410
27491SOL    HW184306   8.158   1.269  11.398
27491SOL    HW284307   8.015   1.250  11.443
27492SOL     OW84308   9.245   1.351   9.998
27492SOL    HW184309   9.332   1.373   9.965
27492SOL    HW284310   9.186   1.408   9.949
27493SOL     OW84311   3.364   0.426   7.484
27493SOL    HW184312   3.425   0.468   7.544
27493SOL    HW284313   3.372   0.476   7.402
27494SOL     OW84314  14.859   9.352  12.926
27494SOL    HW184315   0.027   9.420  12.872
27494SOL    HW284316  14.852   9.276  12.869
27495SOL     OW84317   9.999   6.812   8.008
27495SOL    HW184318  10.082   6.812   8.056
27495SOL    HW284319   9.969   6.903   8.013
27496SOL     OW84320   4.595  10.788   9.408
27496SOL    HW184321   4.575  10.796   9.501
27496SOL    HW284322   4.644  10.868   9.387
27497SOL     OW84323   6.393   3.478  10.600
27497SOL    HW184324   6.382   3.426  10.520
27497SOL    HW284325   6.330   3.440  10.662
27498SOL     OW84326   2.034   5.202  12.265
27498SOL    HW184327   1.990   5.153  12.196
27498SOL    HW284328   2.092   5.263  12.219
27499SOL     OW84329   2.438  10.719   5.813
27499SOL    HW184330   2.510  10.779   5.830
27499SOL    HW284331   2.427  10.719   5.718
27500SOL     OW84332  11.135  10.349   6.202
27500SOL    HW184333  11.117  10.411   6.131
27500SOL    HW284334  11.072  10.278   6.188
27501SOL     OW84335   7.369   6.890   5.294
27501SOL    HW184336   7.323   6.915   5.214
27501SOL    HW284337   7.356   6.963   5.354
27502SOL     OW84338  13.457   4.734  11.062
27502SOL    HW184339  13.386   4.673  11.079
27502SOL    HW284340  13.509   4.694  10.993
27503SOL     OW84341   3.062  10.976   2.418
27503SOL    HW184342   3.041  11.022   2.337
27503SOL    HW284343   3.157  10.986   2.427
27504SOL     OW84344   2.544  11.176   4.278
27504SOL    HW184345   2.552  11.081   4.264
27504SOL    HW284346   2.457  11.188   4.315
27505SOL     OW84347  10.717   9.084   1.189
27505SOL    HW184348  10.752   9.002   1.154
27505SOL    HW284349  10.788   9.120   1.242
27506SOL     OW84350  11.449  10.031   8.189
27506SOL    HW184351  11.371  10.019   8.134
27506SOL    HW284352  11.436  10.116   8.231
27507SOL     OW84353   4.724   5.966   3.804
27507SOL    HW184354   4.724   5.928   3.716
27507SOL    HW284355   4.812   5.947   3.837
27508SOL     OW84356   6.855   1.469  12.486
27508SOL    HW184357   6.816   1.386  12.456
27508SOL    HW284358   6.816   1.485  12.572
27509SOL     OW84359   0.441   8.441   2.865
27509SOL    HW184360   0.459   8.522   2.913
27509SOL    HW284361   0.527   8.402   2.851
27510SOL     OW84362   6.284   3.772   5.440
27510SOL    HW184363   6.334   3.806   5.366
27510SOL    HW284364   6.340   3.787   5.516
27511SOL     OW84365   6.706  13.797  14.545
27511SOL    HW184366   6.793  13.758  14.554
27511SOL    HW284367   6.677  13.813  14.635
27512SOL     OW84368  13.154   4.725   9.189
27512SOL    HW184369  13.191   4.795   9.244
27512SOL    HW284370  13.194   4.739   9.103
27513SOL     OW84371   0.683  11.926   9.296
27513SOL    HW184372   0.767  11.889   9.269
27513SOL    HW284373   0.636  11.853   9.336
27514SOL     OW84374   2.648   6.982   7.228
27514SOL    HW184375   2.723   7.037   7.205
27514SOL    HW284376   2.688   6.897   7.251
27515SOL     OW84377  13.588   6.103  11.005
27515SOL    HW184378  13.595   6.143  11.092
27515SOL    HW284379  13.628   6.016  11.015
27516SOL     OW84380   2.424   3.401   4.774
27516SOL    HW184381   2.328   3.394   4.772
27516SOL    HW284382   2.442   3.491   4.749
27517SOL     OW84383   5.729   8.419   4.597
27517SOL    HW184384   5.662   8.350   4.598
27517SOL    HW284385   5.699   8.481   4.530
27518SOL     OW84386   1.481   9.056   4.904
27518SOL    HW184387   1.518   9.003   4.834
27518SOL    HW284388   1.551   9.116   4.929
27519SOL     OW84389   7.129   0.267  13.420
27519SOL    HW184390   7.100   0.176  13.420
27519SOL    HW284391   7.065   0.313  13.474
27520SOL     OW84392  11.145   8.848   0.583
27520SOL    HW184393  11.115   8.922   0.531
27520SOL    HW284394  11.104   8.861   0.669
27521SOL     OW84395  12.636  11.696  10.768
27521SOL    HW184396  12.727  11.725  10.783
27521SOL    HW284397  12.583  11.772  10.791
27522SOL     OW84398   1.282  11.942   3.253
27522SOL    HW184399   1.292  11.887   3.330
27522SOL    HW284400   1.308  12.029   3.282
27523SOL     OW84401   8.725  13.315  11.963
27523SOL    HW184402   8.634  13.331  11.939
27523SOL    HW284403   8.761  13.402  11.982
27524SOL     OW84404  14.051   9.570   4.340
27524SOL    HW184405  14.145   9.557   4.330
27524SOL    HW284406  14.016   9.564   4.252
27525SOL     OW84407   2.389   2.275   2.872
27525SOL    HW184408   2.325   2.267   2.944
27525SOL    HW284409   2.427   2.362   2.884
27526SOL     OW84410   5.735   0.267  11.028
27526SOL    HW184411   5.805   0.299  10.972
27526SOL    HW284412   5.731   0.173  11.012
27527SOL     OW84413  13.694   8.581   2.856
27527SOL    HW184414  13.655   8.639   2.921
27527SOL    HW284415  13.628   8.575   2.786
27528SOL     OW84416  13.350  12.176   6.831
27528SOL    HW184417  13.256  12.169   6.846
27528SOL    HW284418  13.375  12.257   6.876
27529SOL     OW84419  13.122   4.024   5.205
27529SOL    HW184420  13.099   4.013   5.297
27529SOL    HW284421  13.049   3.986   5.157
27530SOL     OW84422   5.216   1.094  14.088
27530SOL    HW184423   5.252   1.180  14.110
27530SOL    HW284424   5.290   1.035  14.096
27531SOL     OW84425   8.854  14.398   5.928
27531SOL    HW184426   8.888  14.367   5.844
27531SOL    HW284427   8.851  14.494   5.918
27532SOL     OW84428   1.906   7.655   0.469
27532SOL    HW184429   1.874   7.594   0.403
27532SOL    HW284430   1.896   7.608   0.552
27533SOL     OW84431   3.529   9.338   6.333
27533SOL    HW184432   3.522   9.244   6.346
27533SOL    HW284433   3.458   9.375   6.386
27534SOL     OW84434   9.155  14.136   9.769
27534SOL    HW184435   9.170  14.094   9.684
27534SOL    HW284436   9.096  14.208   9.751
27535SOL     OW84437   4.141   0.935   7.302
27535SOL    HW184438   4.158   0.880   7.225
27535SOL    HW284439   4.206   1.005   7.296
27536SOL     OW84440   6.371   7.942  11.062
27536SOL    HW184441   6.312   7.876  11.101
27536SOL    HW284442   6.430   7.966  11.132
27537SOL     OW84443  11.689   7.786  11.838
27537SOL    HW184444  11.684   7.878  11.810
27537SOL    HW284445  11.745   7.787  11.915
27538SOL     OW84446   9.541   2.437  10.577
27538SOL    HW184447   9.491   2.385  10.515
27538SOL    HW284448   9.528   2.394  10.661
27539SOL     OW84449  10.670  11.217  12.720
27539SOL    HW184450  10.720  11.252  12.794
27539SOL    HW284451  10.730  11.223  12.646
27540SOL     OW84452   7.686  12.764   4.470
27540SOL    HW184453   7.609  12.746   4.523
27540SOL    HW284454   7.753  12.703   4.502
27541SOL     OW84455  13.768   3.527   1.323
27541SOL    HW184456  13.847   3.571   1.292
27541SOL    HW284457  13.793   3.435   1.330
27542SOL     OW84458   6.907   8.886   5.815
27542SOL    HW184459   6.882   8.893   5.723
27542SOL    HW284460   6.884   8.797   5.840
27543SOL     OW84461  12.018   8.154  14.514
27543SOL    HW184462  12.009   8.230  14.572
27543SOL    HW284463  11.970   8.179  14.435
27544SOL     OW84464  13.772   4.544  14.655
27544SOL    HW184465  13.760   4.464  14.604
27544SOL    HW284466  13.725   4.526  14.737
27545SOL     OW84467  14.006  14.085  13.747
27545SOL    HW184468  14.010  14.018  13.815
27545SOL    HW284469  14.097  14.101  13.723
27546SOL     OW84470   5.018  11.269  12.730
27546SOL    HW184471   5.100  11.253  12.683
27546SOL    HW284472   4.980  11.345  12.687
27547SOL     OW84473   4.641   4.814   8.702
27547SOL    HW184474   4.727   4.772   8.699
27547SOL    HW284475   4.609   4.797   8.790
27548SOL     OW84476  10.697  11.407   5.948
27548SOL    HW184477  10.772  11.424   6.005
27548SOL    HW284478  10.694  11.483   5.890
27549SOL     OW84479   2.209   2.875   3.979
27549SOL    HW184480   2.249   2.933   4.044
27549SOL    HW284481   2.139   2.830   4.027
27550SOL     OW84482   2.071   9.478   6.702
27550SOL    HW184483   2.026   9.502   6.782
27550SOL    HW284484   2.158   9.448   6.731
27551SOL     OW84485   3.208  12.054   6.264
27551SOL    HW184486   3.174  12.031   6.351
27551SOL    HW284487   3.154  12.003   6.203
27552SOL     OW84488   0.508   8.855   5.146
27552SOL    HW184489   0.478   8.872   5.235
27552SOL    HW284490   0.431   8.823   5.100
27553SOL     OW84491   8.188  14.790  11.297
27553SOL    HW184492   8.097  14.800  11.269
27553SOL    HW284493   8.210   0.001  11.338
27554SOL     OW84494   8.857   5.716   9.748
27554SOL    HW184495   8.830   5.749   9.662
27554SOL    HW284496   8.927   5.776   9.776
27555SOL     OW84497  10.947  13.132   6.010
27555SOL    HW184498  10.922  13.209   6.062
27555SOL    HW284499  11.035  13.152   5.978
27556SOL     OW84500  14.690  13.020   4.087
27556SOL    HW184501  14.739  13.073   4.024
27556SOL    HW284502  14.750  13.010   4.161
27557SOL     OW84503  14.326  13.255   2.148
27557SOL    HW184504  14.384  13.326   2.120
27557SOL    HW284505  14.253  13.300   2.191
27558SOL     OW84506   7.467  13.325   9.979
27558SOL    HW184507   7.455  13.366   9.894
27558SOL    HW284508   7.404  13.252   9.980
27559SOL     OW84509  13.576  12.811   6.082
27559SOL    HW184510  13.545  12.754   6.012
27559SOL    HW284511  13.649  12.763   6.121
27560SOL     OW84512   4.467   0.008   7.157
27560SOL    HW184513   4.465   0.102   7.170
27560SOL    HW284514   4.538  14.866   7.095
27561SOL     OW84515   7.219  14.715   4.663
27561SOL    HW184516   7.157  14.707   4.736
27561SOL    HW284517   7.297  14.754   4.702
27562SOL     OW84518  14.057  10.128   9.263
27562SOL    HW184519  14.060  10.143   9.169
27562SOL    HW284520  14.000  10.198   9.296
27563SOL     OW84521   7.570   9.238  13.203
27563SOL    HW184522   7.615   9.155  13.187
27563SOL    HW284523   7.633   9.290  13.253
27564SOL     OW84524   9.257  10.050  12.537
27564SOL    HW184525   9.187  10.108  12.565
27564SOL    HW284526   9.333  10.108  12.526
27565SOL     OW84527   0.971   1.190   7.646
27565SOL    HW184528   0.959   1.178   7.741
27565SOL    HW284529   1.009   1.278   7.638
27566SOL     OW84530  10.463   7.910  12.333
27566SOL    HW184531  10.425   7.822  12.338
27566SOL    HW284532  10.524   7.914  12.407
27567SOL     OW84533   6.200  13.876   2.766
27567SOL    HW184534   6.168  13.936   2.699
27567SOL    HW284535   6.121  13.839   2.806
27568SOL     OW84536   8.772   5.599   0.057
27568SOL    HW184537   8.702   5.621   0.118
27568SOL    HW284538   8.824   5.532   0.102
27569SOL     OW84539   7.987   6.347   0.664
27569SOL    HW184540   8.068   6.385   0.632
27569SOL    HW284541   7.955   6.294   0.591
27570SOL     OW84542   6.701   0.890   9.747
27570SOL    HW184543   6.788   0.918   9.776
27570SOL    HW284544   6.714   0.802   9.713
27571SOL     OW84545   8.437  11.542   7.066
27571SOL    HW184546   8.531  11.554   7.079
27571SOL    HW284547   8.418  11.458   7.108
27572SOL     OW84548   5.891   9.652   7.494
27572SOL    HW184549   5.925   9.573   7.452
27572SOL    HW284550   5.964   9.686   7.544
27573SOL     OW84551   2.817   6.115  11.468
27573SOL    HW184552   2.793   6.208  11.472
27573SOL    HW284553   2.742   6.073  11.426
27574SOL     OW84554   4.699  14.542   1.882
27574SOL    HW184555   4.794  14.539   1.874
27574SOL    HW284556   4.679  14.634   1.900
27575SOL     OW84557   5.524  14.629   3.775
27575SOL    HW184558   5.616  14.654   3.764
27575SOL    HW284559   5.527  14.547   3.825
27576SOL     OW84560   2.525   2.293  12.333
27576SOL    HW184561   2.448   2.289  12.391
27576SOL    HW284562   2.571   2.372  12.361
27577SOL     OW84563   8.751   6.834   4.486
27577SOL    HW184564   8.747   6.831   4.582
27577SOL    HW284565   8.665   6.863   4.458
27578SOL     OW84566  14.392  10.631   6.204
27578SOL    HW184567  14.436  10.589   6.278
27578SOL    HW284568  14.460  10.639   6.137
27579SOL     OW84569  12.901  12.575   6.178
27579SOL    HW184570  12.931  12.559   6.089
27579SOL    HW284571  12.958  12.520   6.233
27580SOL     OW84572  12.587   7.682   9.646
27580SOL    HW184573  12.570   7.588   9.654
27580SOL    HW284574  12.657   7.699   9.709
27581SOL     OW84575  12.650   1.342   0.817
27581SOL    HW184576  12.738   1.305   0.823
27581SOL    HW284577  12.596   1.287   0.873
27582SOL     OW84578   2.459  13.970   0.912
27582SOL    HW184579   2.494  14.053   0.882
27582SOL    HW284580   2.390  13.994   0.974
27583SOL     OW84581   8.933  10.361  11.862
27583SOL    HW184582   9.005  10.386  11.805
27583SOL    HW284583   8.902  10.277  11.828
27584SOL     OW84584  10.121  14.108  14.358
27584SOL    HW184585  10.175  14.126  14.281
27584SOL    HW284586  10.183  14.081  14.426
27585SOL     OW84587   7.298  13.649   0.434
27585SOL    HW184588   7.264  13.706   0.503
27585SOL    HW284589   7.315  13.707   0.360
27586SOL     OW84590   3.627   1.381   1.227
27586SOL    HW184591   3.678   1.300   1.235
27586SOL    HW284592   3.637   1.423   1.313
27587SOL     OW84593   9.883   2.624   1.701
27587SOL    HW184594   9.871   2.657   1.790
27587SOL    HW284595   9.974   2.641   1.680
27588SOL     OW84596  11.000  10.753   6.292
27588SOL    HW184597  10.994  10.692   6.366
27588SOL    HW284598  10.910  10.767   6.265
27589SOL     OW84599   9.670  12.489   4.490
27589SOL    HW184600   9.605  12.503   4.421
27589SOL    HW284601   9.640  12.544   4.563
27590SOL     OW84602  13.882  12.220  11.013
27590SOL    HW184603  13.827  12.294  11.039
27590SOL    HW284604  13.857  12.201  10.923
27591SOL     OW84605   5.052   7.494  13.132
27591SOL    HW184606   5.119   7.493  13.200
27591SOL    HW284607   4.970   7.481  13.180
27592SOL     OW84608   0.903  14.250   3.912
27592SOL    HW184609   0.994  14.256   3.941
27592SOL    HW284610   0.901  14.172   3.856
27593SOL     OW84611   3.556   9.701   6.706
27593SOL    HW184612   3.479   9.694   6.650
27593SOL    HW284613   3.590   9.789   6.690
27594SOL     OW84614   0.122   8.453   6.212
27594SOL    HW184615   0.033   8.421   6.223
27594SOL    HW284616   0.118   8.545   6.241
27595SOL     OW84617   2.538   8.454  12.785
27595SOL    HW184618   2.470   8.457  12.719
27595SOL    HW284619   2.565   8.546  12.796
27596SOL     OW84620   5.921   3.934   7.823
27596SOL    HW184621   5.904   3.940   7.917
27596SOL    HW284622   5.852   3.876   7.790
27597SOL     OW84623   7.597   7.047   6.969
27597SOL    HW184624   7.520   7.035   6.914
27597SOL    HW284625   7.599   7.141   6.988
27598SOL     OW84626   2.772  14.818   7.320
27598SOL    HW184627   2.709   0.001   7.366
27598SOL    HW284628   2.749  14.729   7.347
27599SOL     OW84629   5.137  13.933   7.571
27599SOL    HW184630   5.047  13.922   7.541
27599SOL    HW284631   5.190  13.890   7.503
27600SOL     OW84632   1.250   5.094  13.778
27600SOL    HW184633   1.184   5.031  13.807
27600SOL    HW284634   1.228   5.175  13.823
27601SOL     OW84635  10.206   1.691  10.066
27601SOL    HW184636  10.263   1.714  10.139
27601SOL    HW284637  10.125   1.662  10.107
27602SOL     OW84638   6.629  12.852   8.278
27602SOL    HW184639   6.555  12.876   8.221
27602SOL    HW284640   6.589  12.802   8.349
27603SOL     OW84641  14.650   7.179   5.878
27603SOL    HW184642  14.715   7.239   5.841
27603SOL    HW284643  14.566   7.213   5.847
27604SOL     OW84644  10.194   2.633   3.021
27604SOL    HW184645  10.234   2.615   3.106
27604SOL    HW284646  10.213   2.555   2.969
27605SOL     OW84647  11.682   7.096   1.191
27605SOL    HW184648  11.624   7.123   1.120
27605SOL    HW284649  11.662   7.156   1.263
27606SOL     OW84650   0.663  10.677  14.251
27606SOL    HW184651   0.721  10.690  14.327
27606SOL    HW284652   0.672  10.757  14.200
27607SOL     OW84653   0.324  14.677   2.530
27607SOL    HW184654   0.375  14.702   2.607
27607SOL    HW284655   0.375  14.607   2.489
27608SOL     OW84656   7.948   7.934   1.472
27608SOL    HW184657   7.941   7.857   1.529
27608SOL    HW284658   7.898   7.910   1.394
27609SOL     OW84659   3.548   5.757   3.997
27609SOL    HW184660   3.500   5.813   3.936
27609SOL    HW284661   3.640   5.777   3.981
27610SOL     OW84662  14.178   2.017   6.561
27610SOL    HW184663  14.110   2.011   6.627
27610SOL    HW284664  14.162   2.100   6.516
27611SOL     OW84665   1.207  13.568  10.186
27611SOL    HW184666   1.274  13.634  10.169
27611SOL    HW284667   1.187  13.531  10.100
27612SOL     OW84668  12.954  11.760  10.810
27612SOL    HW184669  12.920  11.820  10.744
27612SOL    HW284670  13.046  11.747  10.787
27613SOL     OW84671   7.383   7.549  14.851
27613SOL    HW184672   7.441   7.475  14.869
27613SOL    HW284673   7.437   7.612  14.804
27614SOL     OW84674  10.479   6.205   7.216
27614SOL    HW184675  10.473   6.268   7.288
27614SOL    HW284676  10.428   6.130   7.246
27615SOL     OW84677   6.824   1.832   3.532
27615SOL    HW184678   6.908   1.875   3.545
27615SOL    HW284679   6.828   1.797   3.443
27616SOL     OW84680   2.555   6.361  12.412
27616SOL    HW184681   2.568   6.267  12.417
27616SOL    HW284682   2.501   6.374  12.334
27617SOL     OW84683   5.286   5.779  14.508
27617SOL    HW184684   5.361   5.805  14.562
27617SOL    HW284685   5.301   5.686  14.490
27618SOL     OW84686  12.179  14.607   7.276
27618SOL    HW184687  12.186  14.678   7.212
27618SOL    HW284688  12.085  14.596   7.289
27619SOL     OW84689   8.065   1.510  14.394
27619SOL    HW184690   8.121   1.573  14.347
27619SOL    HW284691   8.004   1.564  14.444
27620SOL     OW84692  14.200  11.986  11.379
27620SOL    HW184693  14.269  11.962  11.441
27620SOL    HW284694  14.247  12.016  11.301
27621SOL     OW84695  11.805   9.185   3.947
27621SOL    HW184696  11.852   9.123   3.891
27621SOL    HW284697  11.780   9.134   4.024
27622SOL     OW84698   2.148   4.604   2.398
27622SOL    HW184699   2.222   4.664   2.392
27622SOL    HW284700   2.187   4.517   2.410
27623SOL     OW84701   3.681   6.031   4.865
27623SOL    HW184702   3.694   5.961   4.800
27623SOL    HW284703   3.699   6.112   4.817
27624SOL     OW84704   4.528  10.370  10.268
27624SOL    HW184705   4.587  10.442  10.291
27624SOL    HW284706   4.550  10.301  10.330
27625SOL     OW84707  14.614  10.060  10.130
27625SOL    HW184708  14.643  10.003  10.202
27625SOL    HW284709  14.522  10.037  10.116
27626SOL     OW84710  11.098   8.625   4.703
27626SOL    HW184711  11.146   8.689   4.652
27626SOL    HW284712  11.063   8.674   4.777
27627SOL     OW84713   5.766  10.151   4.092
27627SOL    HW184714   5.729  10.236   4.072
27627SOL    HW284715   5.739  10.133   4.182
27628SOL     OW84716   5.395  14.680  12.251
27628SOL    HW184717   5.300  14.687  12.242
27628SOL    HW284718   5.417  14.597  12.209
27629SOL     OW84719   8.546   8.928   0.302
27629SOL    HW184720   8.566   8.861   0.367
27629SOL    HW284721   8.450   8.929   0.298
27630SOL     OW84722  11.321   6.290   4.366
27630SOL    HW184723  11.243   6.238   4.386
27630SOL    HW284724  11.335   6.278   4.272
27631SOL     OW84725   9.276   3.530  10.244
27631SOL    HW184726   9.209   3.481  10.291
27631SOL    HW284727   9.350   3.470  10.237
27632SOL     OW84728  14.298  13.653   9.954
27632SOL    HW184729  14.294  13.678  10.047
27632SOL    HW284730  14.379  13.692   9.922
27633SOL     OW84731   5.026  10.647   9.483
27633SOL    HW184732   4.978  10.728   9.504
27633SOL    HW284733   5.002  10.586   9.553
27634SOL     OW84734  10.962  11.224  11.403
27634SOL    HW184735  10.953  11.319  11.415
27634SOL    HW284736  10.877  11.197  11.367
27635SOL     OW84737   4.672   4.616   9.613
27635SOL    HW184738   4.694   4.648   9.700
27635SOL    HW284739   4.736   4.656   9.555
27636SOL     OW84740   3.914   5.281   9.113
27636SOL    HW184741   3.983   5.249   9.171
27636SOL    HW284742   3.895   5.370   9.145
27637SOL     OW84743   9.351   5.087   0.423
27637SOL    HW184744   9.379   5.068   0.512
27637SOL    HW284745   9.300   5.168   0.430
27638SOL     OW84746   4.132  13.837  11.649
27638SOL    HW184747   4.063  13.900  11.627
27638SOL    HW284748   4.190  13.884  11.708
27639SOL     OW84749   5.213  12.688  14.138
27639SOL    HW184750   5.286  12.717  14.193
27639SOL    HW284751   5.147  12.657  14.199
27640SOL     OW84752  11.559  11.569  12.364
27640SOL    HW184753  11.556  11.491  12.419
27640SOL    HW284754  11.653  11.587  12.354
27641SOL     OW84755   1.302  10.991  14.603
27641SOL    HW184756   1.252  10.914  14.577
27641SOL    HW284757   1.251  11.065  14.571
27642SOL     OW84758  13.893  12.609   9.716
27642SOL    HW184759  13.944  12.574   9.643
27642SOL    HW284760  13.812  12.557   9.715
27643SOL     OW84761   8.336   1.370  11.088
27643SOL    HW184762   8.375   1.441  11.038
27643SOL    HW284763   8.286   1.320  11.024
27644SOL     OW84764   0.577   2.557   1.425
27644SOL    HW184765   0.658   2.522   1.461
27644SOL    HW284766   0.595   2.649   1.409
27645SOL     OW84767   0.190  11.061  13.714
27645SOL    HW184768   0.095  11.066  13.711
27645SOL    HW284769   0.212  10.980  13.668
27646SOL     OW84770  14.763  10.686   2.414
27646SOL    HW184771  14.782  10.593   2.408
27646SOL    HW284772  14.778  10.708   2.506
27647SOL     OW84773   3.063   6.602   9.815
27647SOL    HW184774   2.996   6.588   9.882
27647SOL    HW284775   3.035   6.681   9.768
27648SOL     OW84776   0.553   1.668   0.394
27648SOL    HW184777   0.569   1.650   0.487
27648SOL    HW284778   0.465   1.636   0.378
27649SOL     OW84779   9.376   2.360  12.552
27649SOL    HW184780   9.379   2.393  12.462
27649SOL    HW284781   9.303   2.408  12.592
27650SOL     OW84782   8.079   2.950   4.129
27650SOL    HW184783   8.010   2.968   4.065
27650SOL    HW284784   8.077   3.026   4.188
27651SOL     OW84785   4.954  10.965   3.828
27651SOL    HW184786   4.932  10.911   3.753
27651SOL    HW284787   4.873  11.010   3.850
27652SOL     OW84788  10.399  10.784  14.019
27652SOL    HW184789  10.341  10.754  13.950
27652SOL    HW284790  10.364  10.743  14.099
27653SOL     OW84791  13.427   6.712  12.693
27653SOL    HW184792  13.477   6.675  12.620
27653SOL    HW284793  13.355   6.651  12.706
27654SOL     OW84794  13.305   0.388   2.026
27654SOL    HW184795  13.210   0.388   2.025
27654SOL    HW284796  13.329   0.343   2.106
27655SOL     OW84797   6.701   8.511  14.172
27655SOL    HW184798   6.739   8.579  14.116
27655SOL    HW284799   6.753   8.433  14.153
27656SOL     OW84800  10.737   4.249   9.668
27656SOL    HW184801  10.689   4.166   9.674
27656SOL    HW284802  10.746   4.277   9.759
27657SOL     OW84803   6.415  10.987   9.188
27657SOL    HW184804   6.452  10.995   9.276
27657SOL    HW284805   6.414  10.892   9.171
27658SOL     OW84806   2.470  13.276   0.180
27658SOL    HW184807   2.440  13.338   0.247
27658SOL    HW284808   2.464  13.190   0.222
27659SOL     OW84809  10.229  10.259   0.590
27659SOL    HW184810  10.188  10.345   0.590
27659SOL    HW284811  10.160  10.200   0.557
27660SOL     OW84812   2.950   8.573   2.192
27660SOL    HW184813   2.904   8.656   2.180
27660SOL    HW284814   2.916   8.516   2.123
27661SOL     OW84815   5.998   6.190  13.814
27661SOL    HW184816   6.011   6.229  13.727
27661SOL    HW284817   5.903   6.188  13.826
27662SOL     OW84818   1.437   8.516   1.271
27662SOL    HW184819   1.394   8.582   1.325
27662SOL    HW284820   1.499   8.566   1.218
27663SOL     OW84821  13.236  10.186   0.818
27663SOL    HW184822  13.259  10.130   0.744
27663SOL    HW284823  13.253  10.275   0.787
27664SOL     OW84824  14.546  11.327  14.034
27664SOL    HW184825  14.504  11.283  14.107
27664SOL    HW284826  14.475  11.370  13.986
27665SOL     OW84827   9.386  14.353   9.789
27665SOL    HW184828   9.407  14.345   9.882
27665SOL    HW284829   9.311  14.295   9.777
27666SOL     OW84830   4.059  10.647   8.025
27666SOL    HW184831   3.986  10.660   7.964
27666SOL    HW284832   4.023  10.592   8.095
27667SOL     OW84833   4.126  11.900  13.315
27667SOL    HW184834   4.129  11.804  13.319
27667SOL    HW284835   4.057  11.924  13.377
27668SOL     OW84836  10.525  10.514   9.422
27668SOL    HW184837  10.494  10.567   9.349
27668SOL    HW284838  10.462  10.531   9.492
27669SOL     OW84839   1.658   4.652  13.921
27669SOL    HW184840   1.656   4.628  14.014
27669SOL    HW284841   1.636   4.745  13.920
27670SOL     OW84842   2.948   2.055  10.154
27670SOL    HW184843   2.975   2.094  10.071
27670SOL    HW284844   3.025   2.006  10.183
27671SOL     OW84845  12.895   9.659  14.735
27671SOL    HW184846  12.927   9.578  14.775
27671SOL    HW284847  12.849   9.629  14.656
27672SOL     OW84848  13.892   4.859   2.519
27672SOL    HW184849  13.941   4.932   2.481
27672SOL    HW284850  13.812   4.899   2.552
27673SOL     OW84851  12.480  10.591   5.726
27673SOL    HW184852  12.504  10.554   5.641
27673SOL    HW284853  12.393  10.554   5.745
27674SOL     OW84854   7.385   7.702   9.070
27674SOL    HW184855   7.303   7.670   9.106
27674SOL    HW284856   7.388   7.667   8.981
27675SOL     OW84857  10.647   1.156  14.634
27675SOL    HW184858  10.586   1.183  14.703
27675SOL    HW284859  10.692   1.081  14.671
27676SOL     OW84860   3.984   3.270   2.362
27676SOL    HW184861   4.046   3.323   2.412
27676SOL    HW284862   3.898   3.293   2.398
27677SOL     OW84863  12.940   4.506  11.597
27677SOL    HW184864  12.952   4.412  11.591
27677SOL    HW284865  13.006   4.535  11.660
27678SOL     OW84866   6.008  12.947  14.272
27678SOL    HW184867   6.099  12.940  14.299
27678SOL    HW284868   6.011  12.951  14.177
27679SOL     OW84869   8.754   5.764  10.877
27679SOL    HW184870   8.706   5.685  10.855
27679SOL    HW284871   8.830   5.764  10.818
27680SOL     OW84872  13.790   0.739   1.863
27680SOL    HW184873  13.878   0.702   1.853
27680SOL    HW284874  13.735   0.686   1.805
27681SOL     OW84875   4.218  14.731   9.032
27681SOL    HW184876   4.298  14.730   8.979
27681SOL    HW284877   4.228  14.658   9.093
27682SOL     OW84878  10.956  11.603   9.475
27682SOL    HW184879  10.885  11.669   9.472
27682SOL    HW284880  10.971  11.589   9.568
27683SOL     OW84881  10.784  14.786  12.454
27683SOL    HW184882  10.841  14.860  12.472
27683SOL    HW284883  10.707  14.801  12.508
27684SOL     OW84884   4.146   4.445  10.988
27684SOL    HW184885   4.064   4.493  10.977
27684SOL    HW284886   4.152   4.428  11.082
27685SOL     OW84887  14.084   9.641   7.888
27685SOL    HW184888  14.038   9.559   7.866
27685SOL    HW284889  14.056   9.661   7.977
27686SOL     OW84890   9.077  12.698   9.438
27686SOL    HW184891   9.071  12.655   9.523
27686SOL    HW284892   9.046  12.787   9.454
27687SOL     OW84893  10.310   3.474   6.082
27687SOL    HW184894  10.342   3.503   6.168
27687SOL    HW284895  10.378   3.415   6.050
27688SOL     OW84896  11.820   0.686  10.727
27688SOL    HW184897  11.735   0.727  10.710
27688SOL    HW284898  11.798   0.599  10.760
27689SOL     OW84899   5.308   4.623   7.444
27689SOL    HW184900   5.316   4.648   7.536
27689SOL    HW284901   5.355   4.539   7.437
27690SOL     OW84902   6.604  12.393   8.184
27690SOL    HW184903   6.520  12.437   8.193
27690SOL    HW284904   6.581  12.301   8.167
27691SOL     OW84905   8.078   5.617  11.859
27691SOL    HW184906   8.037   5.659  11.783
27691SOL    HW284907   8.019   5.638  11.932
27692SOL     OW84908   2.927  10.160   1.465
27692SOL    HW184909   2.924  10.065   1.454
27692SOL    HW284910   2.951  10.193   1.378
27693SOL     OW84911  13.955  12.482   5.859
27693SOL    HW184912  13.928  12.538   5.932
27693SOL    HW284913  13.873  12.451   5.822
27694SOL     OW84914  10.013  12.078   4.534
27694SOL    HW184915   9.966  12.154   4.569
27694SOL    HW284916  10.038  12.027   4.612
27695SOL     OW84917   0.636  12.423   2.036
27695SOL    HW184918   0.643  12.343   1.984
27695SOL    HW284919   0.704  12.415   2.102
27696SOL     OW84920   1.102   9.971  10.707
27696SOL    HW184921   1.178   9.986  10.764
27696SOL    HW284922   1.139   9.966  10.619
27697SOL     OW84923   3.738  13.525   0.442
27697SOL    HW184924   3.712  13.502   0.531
27697SOL    HW284925   3.677  13.476   0.386
27698SOL     OW84926  13.155   0.362   8.775
27698SOL    HW184927  13.109   0.439   8.741
27698SOL    HW284928  13.187   0.317   8.697
27699SOL     OW84929   4.668   1.352   2.006
27699SOL    HW184930   4.749   1.333   2.052
27699SOL    HW284931   4.620   1.269   2.006
27700SOL     OW84932   8.755   0.816   3.963
27700SOL    HW184933   8.752   0.908   3.938
27700SOL    HW284934   8.679   0.777   3.920
27701SOL     OW84935   8.375   6.201   8.559
27701SOL    HW184936   8.322   6.277   8.585
27701SOL    HW284937   8.312   6.141   8.518
27702SOL     OW84938  13.049   8.560  14.183
27702SOL    HW184939  13.053   8.468  14.157
27702SOL    HW284940  13.015   8.605  14.106
27703SOL     OW84941   2.768   6.810  12.482
27703SOL    HW184942   2.704   6.845  12.543
27703SOL    HW284943   2.762   6.715  12.493
27704SOL     OW84944   6.691   8.881   9.057
27704SOL    HW184945   6.751   8.895   9.130
27704SOL    HW284946   6.654   8.968   9.039
27705SOL     OW84947   1.395   3.625   2.797
27705SOL    HW184948   1.458   3.685   2.838
27705SOL    HW284949   1.450   3.563   2.748
27706SOL     OW84950  11.160   2.052   8.580
27706SOL    HW184951  11.136   2.105   8.505
27706SOL    HW284952  11.194   1.971   8.543
27707SOL     OW84953   5.477  12.971   6.982
27707SOL    HW184954   5.548  12.925   7.027
27707SOL    HW284955   5.400  12.955   7.037
27708SOL     OW84956   9.463   7.176   9.474
27708SOL    HW184957   9.452   7.196   9.381
27708SOL    HW284958   9.421   7.090   9.485
27709SOL     OW84959   6.673   9.190   8.266
27709SOL    HW184960   6.685   9.132   8.192
27709SOL    HW284961   6.608   9.146   8.321
27710SOL     OW84962  11.430  14.652   3.014
27710SOL    HW184963  11.486  14.689   3.083
27710SOL    HW284964  11.417  14.561   3.039
27711SOL     OW84965   8.721   9.354   0.405
27711SOL    HW184966   8.774   9.282   0.370
27711SOL    HW284967   8.780   9.399   0.467
27712SOL     OW84968   3.397  14.779   5.671
27712SOL    HW184969   3.415   0.001   5.667
27712SOL    HW284970   3.417  14.756   5.762
27713SOL     OW84971  11.601   0.842   8.346
27713SOL    HW184972  11.610   0.766   8.288
27713SOL    HW284973  11.537   0.816   8.412
27714SOL     OW84974  13.609  11.087   2.092
27714SOL    HW184975  13.598  11.182   2.082
27714SOL    HW284976  13.633  11.056   2.005
27715SOL     OW84977   4.860  14.026  10.790
27715SOL    HW184978   4.800  14.029  10.864
27715SOL    HW284979   4.938  14.072  10.821
27716SOL     OW84980   6.784   1.345   9.751
27716SOL    HW184981   6.792   1.440   9.744
27716SOL    HW284982   6.715   1.332   9.817
27717SOL     OW84983   5.885   8.251   1.047
27717SOL    HW184984   5.931   8.333   1.064
27717SOL    HW284985   5.798   8.278   1.017
27718SOL     OW84986   2.689   6.778   0.125
27718SOL    HW184987   2.674   6.866   0.158
27718SOL    HW284988   2.773   6.752   0.163
27719SOL     OW84989  13.350  13.191   5.113
27719SOL    HW184990  13.364  13.124   5.047
27719SOL    HW284991  13.256  13.186   5.132
27720SOL     OW84992  10.011   8.171   5.451
27720SOL    HW184993  10.090   8.167   5.505
27720SOL    HW284994   9.945   8.125   5.503
27721SOL     OW84995  14.338   7.848  12.345
27721SOL    HW184996  14.337   7.940  12.368
27721SOL    HW284997  14.426   7.817  12.368
27722SOL     OW84998   1.545   2.436  13.290
27722SOL    HW184999   1.580   2.509  13.341
27722SOL    HW285000   1.567   2.358  13.340
27723SOL     OW85001   4.824   5.145   0.778
27723SOL    HW185002   4.841   5.178   0.866
27723SOL    HW285003   4.902   5.169   0.728
27724SOL     OW85004   3.856   9.025  13.435
27724SOL    HW185005   3.766   9.012  13.463
27724SOL    HW285006   3.885   8.939  13.406
27725SOL     OW85007   4.530   9.852  12.957
27725SOL    HW185008   4.467   9.820  12.893
27725SOL    HW285009   4.596   9.783  12.964
27726SOL     OW85010   7.387   9.529   2.593
27726SOL    HW185011   7.466   9.584   2.583
27726SOL    HW285012   7.316   9.584   2.562
27727SOL     OW85013   7.373   9.680  11.111
27727SOL    HW185014   7.435   9.753  11.119
27727SOL    HW285015   7.334   9.692  11.025
27728SOL     OW85016  14.129   5.727   2.388
27728SOL    HW185017  14.206   5.732   2.445
27728SOL    HW285018  14.161   5.687   2.307
27729SOL     OW85019   5.053   5.753   5.055
27729SOL    HW185020   5.086   5.665   5.068
27729SOL    HW285021   4.985   5.744   4.988
27730SOL     OW85022   2.883  11.765   5.658
27730SOL    HW185023   2.863  11.743   5.567
27730SOL    HW285024   2.804  11.809   5.690
27731SOL     OW85025   4.530   8.973  12.760
27731SOL    HW185026   4.583   9.040  12.718
27731SOL    HW285027   4.592   8.906  12.786
27732SOL     OW85028   0.767  10.778   0.979
27732SOL    HW185029   0.841  10.837   0.992
27732SOL    HW285030   0.737  10.757   1.067
27733SOL     OW85031   7.377  14.618  12.604
27733SOL    HW185032   7.469  14.641  12.595
27733SOL    HW285033   7.374  14.523  12.587
27734SOL     OW85034   0.518  14.716  13.079
27734SOL    HW185035   0.451  14.784  13.073
27734SOL    HW285036   0.598  14.759  13.049
27735SOL     OW85037   2.393  11.833   5.464
27735SOL    HW185038   2.421  11.803   5.551
27735SOL    HW285039   2.448  11.910   5.447
27736SOL     OW85040   3.134   9.776  13.522
27736SOL    HW185041   3.215   9.827  13.526
27736SOL    HW285042   3.064   9.841  13.529
27737SOL     OW85043   9.107  10.846   7.714
27737SOL    HW185044   9.119  10.941   7.707
27737SOL    HW285045   9.012  10.835   7.718
27738SOL     OW85046   2.775   9.115  12.173
27738SOL    HW185047   2.704   9.178  12.163
27738SOL    HW285048   2.810   9.131  12.261
27739SOL     OW85049  13.237  10.302   2.276
27739SOL    HW185050  13.327  10.280   2.298
27739SOL    HW285051  13.243  10.386   2.231
27740SOL     OW85052   6.073   2.227   6.152
27740SOL    HW185053   6.144   2.191   6.205
27740SOL    HW285054   5.997   2.173   6.175
27741SOL     OW85055   6.782  13.175   5.561
27741SOL    HW185056   6.760  13.268   5.564
27741SOL    HW285057   6.831  13.159   5.641
27742SOL     OW85058  13.496   5.602   5.107
27742SOL    HW185059  13.443   5.603   5.027
27742SOL    HW285060  13.567   5.663   5.089
27743SOL     OW85061   9.968   9.408   5.949
27743SOL    HW185062   9.978   9.336   6.012
27743SOL    HW285063  10.050   9.457   5.957
27744SOL     OW85064  14.559   0.563  11.566
27744SOL    HW185065  14.579   0.600  11.480
27744SOL    HW285066  14.492   0.497  11.549
27745SOL     OW85067   8.609   9.928  13.807
27745SOL    HW185068   8.650   9.977  13.878
27745SOL    HW285069   8.525   9.901  13.842
27746SOL     OW85070   0.139  12.985  13.902
27746SOL    HW185071   0.217  13.040  13.906
27746SOL    HW285072   0.089  13.021  13.829
27747SOL     OW85073   8.660  11.423  13.337
27747SOL    HW185074   8.738  11.382  13.374
27747SOL    HW285075   8.684  11.443  13.246
27748SOL     OW85076   1.679   1.458   3.237
27748SOL    HW185077   1.740   1.392   3.269
27748SOL    HW285078   1.615   1.408   3.186
27749SOL     OW85079  13.697   7.758  11.525
27749SOL    HW185080  13.643   7.726  11.597
27749SOL    HW285081  13.659   7.716  11.447
27750SOL     OW85082  12.382  12.934   3.960
27750SOL    HW185083  12.304  12.903   3.915
27750SOL    HW285084  12.348  12.988   4.032
27751SOL     OW85085   1.772   4.420   0.396
27751SOL    HW185086   1.800   4.463   0.476
27751SOL    HW285087   1.689   4.378   0.418
27752SOL     OW85088   8.910   5.899   1.719
27752SOL    HW185089   8.821   5.917   1.690
27752SOL    HW285090   8.900   5.858   1.805
27753SOL     OW85091   8.121   7.005   7.361
27753SOL    HW185092   8.039   7.053   7.353
27753SOL    HW285093   8.171   7.053   7.427
27754SOL     OW85094  13.664   0.954  10.989
27754SOL    HW185095  13.591   0.994  10.942
27754SOL    HW285096  13.734   1.019  10.985
27755SOL     OW85097   8.940   0.783   0.899
27755SOL    HW185098   9.009   0.731   0.940
27755SOL    HW285099   8.897   0.829   0.972
27756SOL     OW85100   5.652  14.211   4.158
27756SOL    HW185101   5.635  14.300   4.187
27756SOL    HW285102   5.745  14.209   4.140
27757SOL     OW85103  13.241   1.702   6.014
27757SOL    HW185104  13.206   1.614   5.999
27757SOL    HW285105  13.333   1.687   6.037
27758SOL     OW85106   4.447  10.235   4.869
27758SOL    HW185107   4.430  10.281   4.951
27758SOL    HW285108   4.394  10.156   4.873
27759SOL     OW85109   8.612   2.390  11.487
27759SOL    HW185110   8.569   2.432  11.413
27759SOL    HW285111   8.681   2.450  11.514
27760SOL     OW85112   4.740   2.671  14.745
27760SOL    HW185113   4.718   2.733  14.814
27760SOL    HW285114   4.759   2.725  14.669
27761SOL     OW85115  10.319   9.291   2.779
27761SOL    HW185116  10.404   9.256   2.749
27761SOL    HW285117  10.295   9.354   2.712
27762SOL     OW85118   9.949   0.588   6.057
27762SOL    HW185119   9.942   0.611   5.965
27762SOL    HW285120   9.990   0.502   6.058
27763SOL     OW85121   3.137  12.806   9.425
27763SOL    HW185122   3.073  12.873   9.403
27763SOL    HW285123   3.116  12.733   9.367
27764SOL     OW85124   2.501   2.873   1.604
27764SOL    HW185125   2.458   2.885   1.519
27764SOL    HW285126   2.429   2.857   1.665
27765SOL     OW85127  12.351   6.240   5.880
27765SOL    HW185128  12.347   6.245   5.784
27765SOL    HW285129  12.365   6.147   5.899
27766SOL     OW85130   0.768  14.571  12.361
27766SOL    HW185131   0.844  14.628  12.361
27766SOL    HW285132   0.788  14.504  12.296
27767SOL     OW85133   7.971  13.804   6.802
27767SOL    HW185134   7.889  13.826   6.846
27767SOL    HW285135   7.988  13.713   6.827
27768SOL     OW85136   4.535   8.206  10.094
27768SOL    HW185137   4.627   8.223  10.074
27768SOL    HW285138   4.489   8.224  10.012
27769SOL     OW85139  14.091  13.995   1.513
27769SOL    HW185140  14.094  13.910   1.557
27769SOL    HW285141  14.067  14.056   1.582
27770SOL     OW85142  13.287   2.625  13.532
27770SOL    HW185143  13.233   2.629  13.453
27770SOL    HW285144  13.373   2.596  13.501
27771SOL     OW85145   4.229   1.979   9.488
27771SOL    HW185146   4.322   1.986   9.509
27771SOL    HW285147   4.193   1.925   9.558
27772SOL     OW85148   4.483  14.057   6.268
27772SOL    HW185149   4.463  14.020   6.182
27772SOL    HW285150   4.578  14.069   6.268
27773SOL     OW85151   8.151  14.008   1.636
27773SOL    HW185152   8.229  13.953   1.642
27773SOL    HW285153   8.185  14.096   1.620
27774SOL     OW85154   7.642  13.550   7.640
27774SOL    HW185155   7.617  13.493   7.713
27774SOL    HW285156   7.675  13.629   7.682
27775SOL     OW85157   3.703  10.028   4.984
27775SOL    HW185158   3.731  10.012   5.073
27775SOL    HW285159   3.694  10.123   4.978
27776SOL     OW85160   2.321  13.264   6.312
27776SOL    HW185161   2.392  13.213   6.352
27776SOL    HW285162   2.332  13.250   6.218
27777SOL     OW85163   1.563   0.617  13.237
27777SOL    HW185164   1.648   0.639  13.199
27777SOL    HW285165   1.515   0.700  13.239
27778SOL     OW85166  10.246  10.089   3.822
27778SOL    HW185167  10.176  10.038   3.864
27778SOL    HW285168  10.302  10.024   3.781
27779SOL     OW85169   0.039   0.123   7.345
27779SOL    HW185170   0.110   0.187   7.348
27779SOL    HW285171  14.845   0.164   7.290
27780SOL     OW85172   9.523  12.533   4.232
27780SOL    HW185173   9.552  12.453   4.187
27780SOL    HW285174   9.504  12.594   4.161
27781SOL     OW85175  11.966   9.859   4.822
27781SOL    HW185176  12.037   9.898   4.771
27781SOL    HW285177  11.906   9.823   4.757
27782SOL     OW85178  13.217  10.000   7.335
27782SOL    HW185179  13.154  10.067   7.364
27782SOL    HW285180  13.291  10.011   7.394
27783SOL     OW85181  10.356   5.155   9.877
27783SOL    HW185182  10.423   5.094   9.909
27783SOL    HW285183  10.390   5.242   9.897
27784SOL     OW85184   5.012  10.977  14.845
27784SOL    HW185185   4.933  10.983  14.791
27784SOL    HW285186   4.995  11.035   0.047
27785SOL     OW85187   2.428  11.168   2.344
27785SOL    HW185188   2.515  11.185   2.307
27785SOL    HW285189   2.439  11.186   2.438
27786SOL     OW85190   4.819  12.955  12.110
27786SOL    HW185191   4.792  12.893  12.178
27786SOL    HW285192   4.830  12.902  12.031
27787SOL     OW85193  10.379   2.852   6.189
27787SOL    HW185194  10.381   2.878   6.097
27787SOL    HW285195  10.313   2.910   6.228
27788SOL     OW85196  11.359   6.675  10.473
27788SOL    HW185197  11.342   6.769  10.465
27788SOL    HW285198  11.454   6.668  10.470
27789SOL     OW85199   9.473  11.965  13.169
27789SOL    HW185200   9.406  11.946  13.235
27789SOL    HW285201   9.506  12.052  13.193
27790SOL     OW85202  11.974   0.112   4.015
27790SOL    HW185203  11.887   0.140   3.986
27790SOL    HW285204  12.012   0.189   4.056
27791SOL     OW85205   3.214   6.639   7.970
27791SOL    HW185206   3.127   6.669   7.996
27791SOL    HW285207   3.271   6.663   8.044
27792SOL     OW85208   5.577   1.749   0.675
27792SOL    HW185209   5.535   1.678   0.626
27792SOL    HW285210   5.513   1.774   0.741
27793SOL     OW85211   6.035   2.449   5.273
27793SOL    HW185212   6.130   2.462   5.262
27793SOL    HW285213   5.997   2.484   5.192
27794SOL     OW85214   6.126   3.168   0.423
27794SOL    HW185215   6.175   3.209   0.494
27794SOL    HW285216   6.155   3.214   0.344
27795SOL     OW85217   6.549  11.259   6.934
27795SOL    HW185218   6.596  11.311   6.869
27795SOL    HW285219   6.610  11.189   6.957
27796SOL     OW85220   6.844  10.740  14.112
27796SOL    HW185221   6.915  10.751  14.174
27796SOL    HW285222   6.886  10.736  14.026
27797SOL     OW85223  14.141  11.646   9.295
27797SOL    HW185224  14.063  11.701   9.307
27797SOL    HW285225  14.213  11.701   9.327
27798SOL     OW85226  14.275   4.898   8.845
27798SOL    HW185227  14.249   4.827   8.904
27798SOL    HW285228  14.193   4.943   8.825
27799SOL     OW85229  12.060   7.651   3.057
27799SOL    HW185230  12.099   7.582   3.003
27799SOL    HW285231  12.107   7.645   3.140
27800SOL     OW85232  14.528  12.933  14.860
27800SOL    HW185233  14.509  12.863  14.798
27800SOL    HW285234  14.601  12.900   0.039
27801SOL     OW85235   2.531   0.328  10.492
27801SOL    HW185236   2.549   0.268  10.564
27801SOL    HW285237   2.617   0.362  10.466
27802SOL     OW85238   7.724  10.709   9.286
27802SOL    HW185239   7.672  10.685   9.210
27802SOL    HW285240   7.667  10.693   9.361
27803SOL     OW85241   0.641   1.511   3.252
27803SOL    HW185242   0.657   1.458   3.174
27803SOL    HW285243   0.627   1.447   3.322
27804SOL     OW85244  13.730  14.542   5.589
27804SOL    HW185245  13.663  14.528   5.656
27804SOL    HW285246  13.771  14.456   5.579
27805SOL     OW85247  11.311   4.609  10.508
27805SOL    HW185248  11.259   4.534  10.478
27805SOL    HW285249  11.350   4.579  10.590
27806SOL     OW85250   8.322  10.979   7.499
27806SOL    HW185251   8.371  10.937   7.428
27806SOL    HW285252   8.255  10.915   7.522
27807SOL     OW85253   2.646   1.283   7.636
27807SOL    HW185254   2.712   1.219   7.663
27807SOL    HW285255   2.696   1.360   7.610
27808SOL     OW85256   9.428  12.027   9.118
27808SOL    HW185257   9.410  12.121   9.125
27808SOL    HW285258   9.522  12.019   9.138
27809SOL     OW85259   3.975   9.030   8.642
27809SOL    HW185260   3.993   9.068   8.728
27809SOL    HW285261   4.062   9.009   8.607
27810SOL     OW85262   0.687   3.862  10.660
27810SOL    HW185263   0.745   3.867  10.737
27810SOL    HW285264   0.665   3.953  10.641
27811SOL     OW85265   8.184   8.479  11.163
27811SOL    HW185266   8.270   8.484  11.122
27811SOL    HW285267   8.178   8.559  11.215
27812SOL     OW85268   6.782   5.627   9.670
27812SOL    HW185269   6.730   5.553   9.700
27812SOL    HW285270   6.718   5.688   9.634
27813SOL     OW85271   4.811  13.091   1.178
27813SOL    HW185272   4.848  13.094   1.089
27813SOL    HW285273   4.866  13.151   1.228
27814SOL     OW85274   1.568   3.110   7.315
27814SOL    HW185275   1.652   3.136   7.353
27814SOL    HW285276   1.503   3.160   7.365
27815SOL     OW85277  12.025   8.732   2.002
27815SOL    HW185278  12.053   8.664   1.941
27815SOL    HW285279  11.972   8.686   2.066
27816SOL     OW85280   1.191   4.437   1.258
27816SOL    HW185281   1.265   4.479   1.215
27816SOL    HW285282   1.164   4.367   1.198
27817SOL     OW85283   4.440   0.025  14.860
27817SOL    HW185284   4.359   0.067  14.831
27817SOL    HW285285   4.478   0.086   0.051
27818SOL     OW85286   2.055   7.359   0.178
27818SOL    HW185287   2.012   7.274   0.181
27818SOL    HW285288   2.148   7.339   0.182
27819SOL     OW85289   9.305   3.282   8.659
27819SOL    HW185290   9.270   3.283   8.748
27819SOL    HW285291   9.349   3.366   8.650
27820SOL     OW85292   1.401   1.816  11.580
27820SOL    HW185293   1.486   1.854  11.560
27820SOL    HW285294   1.404   1.799  11.674
27821SOL     OW85295  11.738   6.561  10.859
27821SOL    HW185296  11.696   6.634  10.813
27821SOL    HW285297  11.824   6.553  10.818
27822SOL     OW85298   3.704   0.198   5.181
27822SOL    HW185299   3.633   0.188   5.245
27822SOL    HW285300   3.659   0.219   5.099
27823SOL     OW85301   5.580   2.327   4.837
27823SOL    HW185302   5.601   2.233   4.844
27823SOL    HW285303   5.498   2.337   4.885
27824SOL     OW85304   1.146  11.712  13.348
27824SOL    HW185305   1.203  11.677  13.279
27824SOL    HW285306   1.134  11.804  13.324
27825SOL     OW85307  12.525   0.222   2.652
27825SOL    HW185308  12.595   0.284   2.672
27825SOL    HW285309  12.547   0.187   2.566
27826SOL     OW85310  11.076   2.977   0.821
27826SOL    HW185311  11.009   2.952   0.884
27826SOL    HW285312  11.157   2.980   0.872
27827SOL     OW85313   7.762   4.957  10.276
27827SOL    HW185314   7.668   4.960  10.295
27827SOL    HW285315   7.781   4.864  10.260
27828SOL     OW85316   4.124   8.278   3.896
27828SOL    HW185317   4.105   8.197   3.943
27828SOL    HW285318   4.038   8.307   3.863
27829SOL     OW85319   0.917   4.355   4.760
27829SOL    HW185320   0.851   4.332   4.826
27829SOL    HW285321   0.992   4.299   4.780
27830SOL     OW85322   4.859  10.359   8.046
27830SOL    HW185323   4.929  10.308   8.087
27830SOL    HW285324   4.867  10.446   8.085
27831SOL     OW85325   0.171   9.686   1.791
27831SOL    HW185326   0.118   9.629   1.736
27831SOL    HW285327   0.137   9.672   1.879
27832SOL     OW85328   6.869   5.576   6.165
27832SOL    HW185329   6.915   5.633   6.103
27832SOL    HW285330   6.939   5.543   6.222
27833SOL     OW85331   5.325  10.401   1.969
27833SOL    HW185332   5.383  10.329   1.995
27833SOL    HW285333   5.289  10.434   2.051
27834SOL     OW85334  13.875  11.225   1.082
27834SOL    HW185335  13.856  11.236   1.175
27834SOL    HW285336  13.959  11.270   1.070
27835SOL     OW85337   6.142  12.052   7.267
27835SOL    HW185338   6.128  12.078   7.358
27835SOL    HW285339   6.216  11.992   7.270
27836SOL     OW85340   2.766   6.575  11.852
27836SOL    HW185341   2.837   6.516  11.828
27836SOL    HW285342   2.755   6.631  11.776
27837SOL     OW85343   8.948   3.331  10.690
27837SOL    HW185344   8.971   3.423  10.688
27837SOL    HW285345   8.887   3.320  10.617
27838SOL     OW85346   8.743  14.736   1.392
27838SOL    HW185347   8.693  14.761   1.469
27838SOL    HW285348   8.808  14.806   1.382
27839SOL     OW85349   6.358   4.486  11.787
27839SOL    HW185350   6.313   4.566  11.812
27839SOL    HW285351   6.294   4.438  11.734
27840SOL     OW85352   9.353   6.699   2.348
27840SOL    HW185353   9.330   6.621   2.296
27840SOL    HW285354   9.372   6.664   2.435
27841SOL     OW85355   3.567   3.364  12.106
27841SOL    HW185356   3.495   3.353  12.044
27841SOL    HW285357   3.535   3.327  12.188
27842SOL     OW85358   7.841   7.587   8.495
27842SOL    HW185359   7.881   7.526   8.556
27842SOL    HW285360   7.820   7.664   8.547
27843SOL     OW85361   2.598   5.861  14.085
27843SOL    HW185362   2.617   5.781  14.035
27843SOL    HW285363   2.684   5.899  14.103
27844SOL     OW85364   5.172   7.322   6.016
27844SOL    HW185365   5.212   7.237   6.000
27844SOL    HW285366   5.082   7.313   5.986
27845SOL     OW85367   6.140  11.441  13.850
27845SOL    HW185368   6.230  11.453  13.879
27845SOL    HW285369   6.143  11.367  13.790
27846SOL     OW85370   8.384   3.053   1.929
27846SOL    HW185371   8.425   3.139   1.922
27846SOL    HW285372   8.412   3.020   2.015
27847SOL     OW85373   7.955  11.256   3.329
27847SOL    HW185374   7.923  11.234   3.417
27847SOL    HW285375   7.995  11.175   3.297
27848SOL     OW85376   8.748   3.535   6.783
27848SOL    HW185377   8.791   3.573   6.707
27848SOL    HW285378   8.805   3.557   6.857
27849SOL     OW85379  12.187   6.190   0.275
27849SOL    HW185380  12.173   6.280   0.305
27849SOL    HW285381  12.184   6.137   0.354
27850SOL     OW85382   0.559   1.793   8.694
27850SOL    HW185383   0.468   1.767   8.709
27850SOL    HW285384   0.588   1.830   8.777
27851SOL     OW85385   0.736   5.366   3.412
27851SOL    HW185386   0.723   5.456   3.441
27851SOL    HW285387   0.668   5.315   3.456
27852SOL     OW85388   8.781   0.447   5.534
27852SOL    HW185389   8.772   0.357   5.503
27852SOL    HW285390   8.843   0.488   5.474
27853SOL     OW85391  10.355   6.854   4.142
27853SOL    HW185392  10.449   6.866   4.127
27853SOL    HW285393  10.313   6.906   4.073
27854SOL     OW85394  10.809   5.815   3.273
27854SOL    HW185395  10.791   5.725   3.302
27854SOL    HW285396  10.770   5.870   3.341
27855SOL     OW85397   8.117  10.799   8.545
27855SOL    HW185398   8.086  10.863   8.608
27855SOL    HW285399   8.188  10.753   8.590
27856SOL     OW85400   8.533  14.290   4.544
27856SOL    HW185401   8.469  14.298   4.473
27856SOL    HW285402   8.613  14.260   4.501
27857SOL     OW85403   7.270  12.600   8.134
27857SOL    HW185404   7.314  12.524   8.172
27857SOL    HW285405   7.180  12.594   8.165
27858SOL     OW85406   5.694   3.336  11.342
27858SOL    HW185407   5.627   3.369  11.282
27858SOL    HW285408   5.730   3.259  11.299
27859SOL     OW85409  10.775  11.244   9.980
27859SOL    HW185410  10.860  11.288   9.974
27859SOL    HW285411  10.763  11.226  10.073
27860SOL     OW85412  10.776   4.906  11.804
27860SOL    HW185413  10.855   4.852  11.797
27860SOL    HW285414  10.749   4.921  11.714
27861SOL     OW85415  12.262   4.631   5.305
27861SOL    HW185416  12.199   4.668   5.367
27861SOL    HW285417  12.334   4.694   5.303
27862SOL     OW85418   3.508  12.240   8.422
27862SOL    HW185419   3.471  12.326   8.445
27862SOL    HW285420   3.553  12.212   8.502
27863SOL     OW85421  14.183  14.493   0.310
27863SOL    HW185422  14.196  14.410   0.356
27863SOL    HW285423  14.143  14.550   0.376
27864SOL     OW85424   1.731  13.706  10.985
27864SOL    HW185425   1.710  13.748  10.901
27864SOL    HW285426   1.674  13.749  11.048
27865SOL     OW85427   7.011   6.948   7.703
27865SOL    HW185428   7.074   6.876   7.703
27865SOL    HW285429   6.961   6.936   7.783
27866SOL     OW85430   4.635   5.433  12.111
27866SOL    HW185431   4.565   5.494  12.088
27866SOL    HW285432   4.653   5.385  12.030
27867SOL     OW85433   6.238  13.133   7.575
27867SOL    HW185434   6.217  13.058   7.519
27867SOL    HW285435   6.174  13.200   7.551
27868SOL     OW85436   5.469   0.497   1.683
27868SOL    HW185437   5.457   0.592   1.688
27868SOL    HW285438   5.478   0.469   1.774
27869SOL     OW85439  10.456  11.060   1.218
27869SOL    HW185440  10.406  11.142   1.221
27869SOL    HW285441  10.517  11.072   1.145
27870SOL     OW85442   2.183   6.159   4.340
27870SOL    HW185443   2.106   6.166   4.284
27870SOL    HW285444   2.254   6.197   4.288
27871SOL     OW85445  11.891   8.411   0.259
27871SOL    HW185446  11.801   8.428   0.233
27871SOL    HW285447  11.905   8.467   0.336
27872SOL     OW85448  13.140   1.642   0.857
27872SOL    HW185449  13.143   1.737   0.844
27872SOL    HW285450  13.052   1.616   0.831
27873SOL     OW85451  12.027   9.420  10.805
27873SOL    HW185452  11.934   9.439  10.789
27873SOL    HW285453  12.069   9.506  10.802
27874SOL     OW85454   1.045  14.018  14.266
27874SOL    HW185455   1.012  14.076  14.198
27874SOL    HW285456   0.998  14.043  14.345
27875SOL     OW85457  12.715  12.042   6.931
27875SOL    HW185458  12.744  12.067   7.018
27875SOL    HW285459  12.772  12.091   6.871
27876SOL     OW85460  12.746  14.842  12.865
27876SOL    HW185461  12.707  14.785  12.800
27876SOL    HW285462  12.680   0.036  12.882
27877SOL     OW85463   9.081   0.463   1.889
27877SOL    HW185464   9.081   0.468   1.793
27877SOL    HW285465   8.993   0.433   1.912
27878SOL     OW85466   5.488  12.770   4.595
27878SOL    HW185467   5.454  12.719   4.521
27878SOL    HW285468   5.555  12.826   4.557
27879SOL     OW85469  14.793  10.439   8.602
27879SOL    HW185470  14.806  10.490   8.682
27879SOL    HW285471  14.869  10.380   8.599
27880SOL     OW85472  14.254   3.868   9.149
27880SOL    HW185473  14.219   3.953   9.121
27880SOL    HW285474  14.347   3.874   9.129
27881SOL     OW85475   8.579  14.520   8.921
27881SOL    HW185476   8.652  14.481   8.873
27881SOL    HW285477   8.621  14.566   8.994
27882SOL     OW85478   9.638   0.986   9.280
27882SOL    HW185479   9.640   0.895   9.252
27882SOL    HW285480   9.700   0.990   9.353
27883SOL     OW85481   8.229   9.530  10.001
27883SOL    HW185482   8.171   9.536   9.925
27883SOL    HW285483   8.274   9.446   9.991
27884SOL     OW85484   4.072   5.903   9.937
27884SOL    HW185485   4.015   5.948   9.999
27884SOL    HW285486   4.140   5.966   9.915
27885SOL     OW85487  11.568  11.875   0.555
27885SOL    HW185488  11.629  11.826   0.499
27885SOL    HW285489  11.604  11.866   0.643
27886SOL     OW85490   6.583   8.059   2.961
27886SOL    HW185491   6.513   8.111   2.999
27886SOL    HW285492   6.661   8.083   3.011
27887SOL     OW85493   2.053  13.259   4.853
27887SOL    HW185494   1.995  13.301   4.916
27887SOL    HW285495   2.056  13.167   4.881
27888SOL     OW85496  14.320  13.561  12.712
27888SOL    HW185497  14.327  13.555  12.807
27888SOL    HW285498  14.248  13.623  12.698
27889SOL     OW85499   5.309  10.842   9.159
27889SOL    HW185500   5.346  10.813   9.076
27889SOL    HW285501   5.324  10.937   9.161
27890SOL     OW85502   6.975   4.388   4.345
27890SOL    HW185503   7.062   4.393   4.306
27890SOL    HW285504   6.958   4.476   4.378
27891SOL     OW85505   9.451   8.918   1.861
27891SOL    HW185506   9.541   8.886   1.857
27891SOL    HW285507   9.412   8.870   1.935
27892SOL     OW85508  10.232   8.261   1.233
27892SOL    HW185509  10.182   8.315   1.172
27892SOL    HW285510  10.183   8.179   1.238
27893SOL     OW85511  14.488   6.153  11.379
27893SOL    HW185512  14.468   6.241  11.410
27893SOL    HW285513  14.531   6.166  11.295
27894SOL     OW85514  10.520  14.086   9.525
27894SOL    HW185515  10.581  14.141   9.475
27894SOL    HW285516  10.452  14.147   9.553
27895SOL     OW85517   9.861   8.646   1.720
27895SOL    HW185518   9.856   8.741   1.729
27895SOL    HW285519   9.799   8.613   1.785
27896SOL     OW85520   7.120  13.681  10.150
27896SOL    HW185521   7.098  13.704  10.060
27896SOL    HW285522   7.188  13.614  10.142
27897SOL     OW85523   8.419   4.506  11.998
27897SOL    HW185524   8.477   4.435  11.971
27897SOL    HW285525   8.467   4.586  11.977
27898SOL     OW85526   0.367   1.994  14.563
27898SOL    HW185527   0.441   2.053  14.579
27898SOL    HW285528   0.337   2.016  14.475
27899SOL     OW85529   4.800   5.025   6.107
27899SOL    HW185530   4.750   4.944   6.110
27899SOL    HW285531   4.737   5.092   6.081
27900SOL     OW85532   1.292   7.728  11.886
27900SOL    HW185533   1.293   7.726  11.981
27900SOL    HW285534   1.364   7.787  11.862
27901SOL     OW85535   5.357   6.886  13.799
27901SOL    HW185536   5.352   6.790  13.805
27901SOL    HW285537   5.417   6.903  13.727
27902SOL     OW85538  12.035   7.450   5.713
27902SOL    HW185539  12.061   7.425   5.801
27902SOL    HW285540  11.940   7.436   5.711
27903SOL     OW85541  11.725   6.799  14.291
27903SOL    HW185542  11.689   6.876  14.336
27903SOL    HW285543  11.689   6.725  14.340
27904SOL     OW85544   6.452   5.394   5.483
27904SOL    HW185545   6.438   5.341   5.561
27904SOL    HW285546   6.364   5.415   5.452
27905SOL     OW85547   2.633   5.783   7.165
27905SOL    HW185548   2.603   5.698   7.134
27905SOL    HW285549   2.607   5.844   7.096
27906SOL     OW85550   8.917   8.766   6.490
27906SOL    HW185551   8.824   8.752   6.511
27906SOL    HW285552   8.918   8.782   6.396
27907SOL     OW85553   3.351   5.158   4.471
27907SOL    HW185554   3.358   5.191   4.382
27907SOL    HW285555   3.434   5.112   4.486
27908SOL     OW85556   7.294   1.568   7.779
27908SOL    HW185557   7.320   1.492   7.832
27908SOL    HW285558   7.368   1.583   7.721
27909SOL     OW85559  13.640   0.974   2.931
27909SOL    HW185560  13.639   1.019   2.846
27909SOL    HW285561  13.689   1.032   2.988
27910SOL     OW85562   4.471   9.990   0.404
27910SOL    HW185563   4.425   9.981   0.487
27910SOL    HW285564   4.410   9.957   0.338
27911SOL     OW85565   6.919  10.154   5.776
27911SOL    HW185566   7.002  10.159   5.728
27911SOL    HW285567   6.945  10.148   5.868
27912SOL     OW85568   9.602   5.523   9.546
27912SOL    HW185569   9.595   5.430   9.567
27912SOL    HW285570   9.548   5.567   9.612
27913SOL     OW85571   1.768  11.045   6.106
27913SOL    HW185572   1.723  10.997   6.175
27913SOL    HW285573   1.776  11.134   6.139
27914SOL     OW85574   7.947   9.127   7.285
27914SOL    HW185575   7.863   9.101   7.248
27914SOL    HW285576   7.927   9.152   7.376
27915SOL     OW85577   2.334   7.874   7.204
27915SOL    HW185578   2.374   7.956   7.175
27915SOL    HW285579   2.403   7.829   7.253
27916SOL     OW85580  12.545  13.871  11.904
27916SOL    HW185581  12.574  13.790  11.862
27916SOL    HW285582  12.614  13.934  11.884
27917SOL     OW85583  14.589   6.621  13.247
27917SOL    HW185584  14.668   6.584  13.207
27917SOL    HW285585  14.622   6.687  13.308
27918SOL     OW85586  13.795  11.303   5.285
27918SOL    HW185587  13.749  11.248   5.347
27918SOL    HW285588  13.886  11.304   5.316
27919SOL     OW85589  11.344   0.414   8.190
27919SOL    HW185590  11.386   0.333   8.161
27919SOL    HW285591  11.303   0.450   8.111
27920SOL     OW85592  14.626   7.876  12.075
27920SOL    HW185593  14.580   7.796  12.101
27920SOL    HW285594  14.606   7.886  11.982
27921SOL     OW85595   0.686   1.658   7.611
27921SOL    HW185596   0.603   1.657   7.660
27921SOL    HW285597   0.670   1.600   7.537
27922SOL     OW85598   2.136  11.435   5.807
27922SOL    HW185599   2.214  11.381   5.816
27922SOL    HW285600   2.158  11.517   5.850
27923SOL     OW85601   4.593  10.858  14.452
27923SOL    HW185602   4.524  10.899  14.399
27923SOL    HW285603   4.589  10.766  14.428
27924SOL     OW85604   7.882   6.316  11.609
27924SOL    HW185605   7.925   6.401  11.616
27924SOL    HW285606   7.908   6.269  11.688
27925SOL     OW85607   6.774   3.945   5.624
27925SOL    HW185608   6.734   4.027   5.594
27925SOL    HW285609   6.739   3.878   5.566
27926SOL     OW85610   6.222   5.657  11.719
27926SOL    HW185611   6.235   5.748  11.743
27926SOL    HW285612   6.307   5.616  11.735
27927SOL     OW85613   9.570   7.914  13.155
27927SOL    HW185614   9.550   7.984  13.094
27927SOL    HW285615   9.590   7.959  13.238
27928SOL     OW85616   4.110   6.735   8.676
27928SOL    HW185617   4.032   6.790   8.687
27928SOL    HW285618   4.170   6.789   8.624
27929SOL     OW85619   4.807   1.865   9.072
27929SOL    HW185620   4.773   1.787   9.117
27929SOL    HW285621   4.880   1.832   9.020
27930SOL     OW85622  12.276   5.328   0.265
27930SOL    HW185623  12.237   5.345   0.180
27930SOL    HW285624  12.337   5.256   0.250
27931SOL     OW85625   8.045   8.337  11.821
27931SOL    HW185626   7.961   8.383  11.830
27931SOL    HW285627   8.109   8.408  11.814
27932SOL     OW85628   5.840  12.745   4.586
27932SOL    HW185629   5.893  12.815   4.624
27932SOL    HW285630   5.854  12.670   4.644
27933SOL     OW85631   5.951   2.201   3.826
27933SOL    HW185632   6.040   2.223   3.800
27933SOL    HW285633   5.955   2.109   3.851
27934SOL     OW85634   4.810   9.377   8.485
27934SOL    HW185635   4.757   9.336   8.553
27934SOL    HW285636   4.818   9.468   8.511
27935SOL     OW85637  14.450   0.295   9.107
27935SOL    HW185638  14.440   0.390   9.108
27935SOL    HW285639  14.405   0.266   9.187
27936SOL     OW85640   4.766   7.361   4.191
27936SOL    HW185641   4.795   7.451   4.208
27936SOL    HW285642   4.677   7.370   4.159
27937SOL     OW85643   3.800   9.972  10.809
27937SOL    HW185644   3.891   9.947  10.795
27937SOL    HW285645   3.764   9.903  10.864
27938SOL     OW85646  13.041  10.187   5.509
27938SOL    HW185647  13.060  10.253   5.441
27938SOL    HW285648  12.946  10.184   5.514
27939SOL     OW85649   7.614   1.605   9.413
27939SOL    HW185650   7.526   1.569   9.421
27939SOL    HW285651   7.605   1.680   9.355
27940SOL     OW85652   2.208  10.364   5.190
27940SOL    HW185653   2.265  10.415   5.132
27940SOL    HW285654   2.258  10.283   5.207
27941SOL     OW85655   1.044   4.414   9.458
27941SOL    HW185656   1.130   4.372   9.464
27941SOL    HW285657   0.995   4.362   9.396
27942SOL     OW85658  10.719  14.325   1.492
27942SOL    HW185659  10.765  14.385   1.433
27942SOL    HW285660  10.698  14.249   1.437
27943SOL     OW85661   2.484  11.965   7.659
27943SOL    HW185662   2.491  11.885   7.709
27943SOL    HW285663   2.398  12.001   7.682
27944SOL     OW85664   7.663   3.977   2.068
27944SOL    HW185665   7.623   4.034   2.003
27944SOL    HW285666   7.601   3.904   2.078
27945SOL     OW85667   6.804   0.325   9.515
27945SOL    HW185668   6.823   0.294   9.604
27945SOL    HW285669   6.712   0.352   9.518
27946SOL     OW85670   8.414   0.932   1.841
27946SOL    HW185671   8.343   0.933   1.906
27946SOL    HW285672   8.419   0.842   1.811
27947SOL     OW85673   8.734   8.611  13.645
27947SOL    HW185674   8.697   8.603  13.734
27947SOL    HW285675   8.786   8.531  13.634
27948SOL     OW85676  13.902  12.156   9.960
27948SOL    HW185677  13.993  12.183   9.949
27948SOL    HW285678  13.899  12.069   9.920
27949SOL     OW85679   4.343   1.715   5.965
27949SOL    HW185680   4.366   1.731   5.873
27949SOL    HW285681   4.392   1.636   5.988
27950SOL     OW85682   7.742   4.991   5.419
27950SOL    HW185683   7.763   4.944   5.501
27950SOL    HW285684   7.647   4.983   5.411
27951SOL     OW85685  14.778  11.896  10.976
27951SOL    HW185686  14.730  11.870  11.055
27951SOL    HW285687  14.870  11.898  11.004
27952SOL     OW85688   5.306   3.117   0.487
27952SOL    HW185689   5.305   3.088   0.579
27952SOL    HW285690   5.366   3.056   0.444
27953SOL     OW85691  11.852   0.292  11.672
27953SOL    HW185692  11.798   0.213  11.668
27953SOL    HW285693  11.908   0.286  11.596
27954SOL     OW85694   2.937  13.397   4.146
27954SOL    HW185695   2.998  13.471   4.139
27954SOL    HW285696   2.907  13.382   4.056
27955SOL     OW85697  14.541   0.457   8.386
27955SOL    HW185698  14.468   0.481   8.443
27955SOL    HW285699  14.566   0.538   8.343
27956SOL     OW85700   8.845   4.077   1.128
27956SOL    HW185701   8.752   4.085   1.108
27956SOL    HW285702   8.852   4.096   1.222
27957SOL     OW85703   5.553   7.281   6.182
27957SOL    HW185704   5.516   7.318   6.263
27957SOL    HW285705   5.610   7.349   6.148
27958SOL     OW85706   9.144   4.956   4.449
27958SOL    HW185707   9.102   5.039   4.426
27958SOL    HW285708   9.238   4.976   4.445
27959SOL     OW85709  11.033   3.091   1.249
27959SOL    HW185710  10.998   3.050   1.328
27959SOL    HW285711  11.084   3.022   1.207
27960SOL     OW85712   3.173  11.116   2.774
27960SOL    HW185713   3.101  11.078   2.824
27960SOL    HW285714   3.203  11.045   2.716
27961SOL     OW85715   3.265   0.035  13.095
27961SOL    HW185716   3.331   0.086  13.048
27961SOL    HW285717   3.304   0.019  13.181
27962SOL     OW85718  10.296  10.174  13.234
27962SOL    HW185719  10.241  10.240  13.193
27962SOL    HW285720  10.300  10.103  13.170
27963SOL     OW85721   1.744  10.732  14.132
27963SOL    HW185722   1.751  10.698  14.042
27963SOL    HW285723   1.651  10.750  14.144
27964SOL     OW85724   0.875  14.100  14.500
27964SOL    HW185725   0.845  14.009  14.493
27964SOL    HW285726   0.796  14.152  14.488
27965SOL     OW85727   0.654   2.476   6.485
27965SOL    HW185728   0.707   2.472   6.405
27965SOL    HW285729   0.704   2.529   6.546
27966SOL     OW85730   1.692  14.354   4.351
27966SOL    HW185731   1.599  14.366   4.329
27966SOL    HW285732   1.720  14.279   4.298
27967SOL     OW85733   3.373   7.404   3.738
27967SOL    HW185734   3.312   7.458   3.788
27967SOL    HW285735   3.342   7.314   3.750
27968SOL     OW85736   7.665   5.818  10.418
27968SOL    HW185737   7.743   5.776  10.454
27968SOL    HW285738   7.593   5.784  10.472
27969SOL     OW85739   0.943   1.380   1.066
27969SOL    HW185740   1.001   1.391   1.141
27969SOL    HW285741   0.875   1.447   1.079
27970SOL     OW85742   8.917   8.420   3.605
27970SOL    HW185743   8.971   8.385   3.676
27970SOL    HW285744   8.827   8.400   3.632
27971SOL     OW85745   0.646   5.278  10.544
27971SOL    HW185746   0.659   5.188  10.574
27971SOL    HW285747   0.552   5.290  10.542
27972SOL     OW85748   6.607   2.389  11.441
27972SOL    HW185749   6.560   2.411  11.521
27972SOL    HW285750   6.672   2.459  11.432
27973SOL     OW85751   9.107   4.740   0.710
27973SOL    HW185752   9.132   4.649   0.693
27973SOL    HW285753   9.118   4.784   0.626
27974SOL     OW85754   6.501   8.750   0.814
27974SOL    HW185755   6.441   8.716   0.749
27974SOL    HW285756   6.447   8.805   0.871
27975SOL     OW85757   7.733   4.029   0.654
27975SOL    HW185758   7.662   4.026   0.590
27975SOL    HW285759   7.746   3.938   0.680
27976SOL     OW85760   7.254   9.791   0.583
27976SOL    HW185761   7.338   9.744   0.588
27976SOL    HW285762   7.261   9.845   0.505
27977SOL     OW85763   7.772   2.431  13.586
27977SOL    HW185764   7.702   2.426  13.650
27977SOL    HW285765   7.850   2.402  13.633
27978SOL     OW85766  14.382   9.176  13.610
27978SOL    HW185767  14.346   9.089  13.594
27978SOL    HW285768  14.466   9.160  13.653
27979SOL     OW85769   2.167   4.029  14.298
27979SOL    HW185770   2.231   4.062  14.235
27979SOL    HW285771   2.091   4.086  14.288
27980SOL     OW85772   6.374   7.586   6.209
27980SOL    HW185773   6.442   7.614   6.270
27980SOL    HW285774   6.391   7.637   6.129
27981SOL     OW85775   3.595  11.551   3.812
27981SOL    HW185776   3.606  11.595   3.896
27981SOL    HW285777   3.651  11.474   3.818
27982SOL     OW85778   2.778  13.053   0.481
27982SOL    HW185779   2.711  13.014   0.425
27982SOL    HW285780   2.738  13.134   0.514
27983SOL     OW85781   1.664   9.785   8.994
27983SOL    HW185782   1.647   9.859   8.937
27983SOL    HW285783   1.628   9.709   8.948
27984SOL     OW85784   2.733   2.505  10.409
27984SOL    HW185785   2.828   2.507  10.415
27984SOL    HW285786   2.708   2.595  10.391
27985SOL     OW85787   7.005   1.086   2.032
27985SOL    HW185788   7.073   1.075   1.966
27985SOL    HW285789   7.047   1.063   2.115
27986SOL     OW85790   7.582   5.457  12.139
27986SOL    HW185791   7.626   5.540  12.155
27986SOL    HW285792   7.494   5.468  12.174
27987SOL     OW85793   5.434   0.403   9.271
27987SOL    HW185794   5.499   0.469   9.251
27987SOL    HW285795   5.451   0.378   9.362
27988SOL     OW85796  12.208   0.251  12.118
27988SOL    HW185797  12.183   0.159  12.112
27988SOL    HW285798  12.180   0.277  12.206
27989SOL     OW85799  13.092  12.306   7.406
27989SOL    HW185800  13.175  12.353   7.414
27989SOL    HW285801  13.025  12.374   7.409
27990SOL     OW85802   6.516  10.042   8.531
27990SOL    HW185803   6.569  10.010   8.603
27990SOL    HW285804   6.462  10.111   8.570
27991SOL     OW85805  14.444   8.679   3.623
27991SOL    HW185806  14.479   8.621   3.555
27991SOL    HW285807  14.487   8.763   3.608
27992SOL     OW85808   6.155   5.421   1.663
27992SOL    HW185809   6.158   5.412   1.758
27992SOL    HW285810   6.062   5.415   1.641
27993SOL     OW85811  11.261   0.600  12.587
27993SOL    HW185812  11.171   0.629  12.605
27993SOL    HW285813  11.270   0.519  12.637
27994SOL     OW85814   4.015   8.909  14.663
27994SOL    HW185815   4.013   8.819  14.694
27994SOL    HW285816   4.029   8.962  14.742
27995SOL     OW85817   1.698   3.677   7.671
27995SOL    HW185818   1.761   3.669   7.743
27995SOL    HW285819   1.678   3.771   7.667
27996SOL     OW85820   3.172   8.198   7.471
27996SOL    HW185821   3.234   8.127   7.479
27996SOL    HW285822   3.143   8.216   7.560
27997SOL     OW85823  10.448   3.518  12.529
27997SOL    HW185824  10.459   3.602  12.573
27997SOL    HW285825  10.521   3.513  12.467
27998SOL     OW85826  11.796   4.871  10.289
27998SOL    HW185827  11.843   4.788  10.285
27998SOL    HW285828  11.861   4.934  10.321
27999SOL     OW85829   8.707   8.940   0.692
27999SOL    HW185830   8.642   8.989   0.743
27999SOL    HW285831   8.656   8.872   0.648
28000SOL     OW85832  14.572  11.037   3.389
28000SOL    HW185833  14.540  10.973   3.453
28000SOL    HW285834  14.578  11.119   3.437
28001SOL     OW85835  13.470   5.012  13.104
28001SOL    HW185836  13.452   5.102  13.129
28001SOL    HW285837  13.389   4.965  13.125
28002SOL     OW85838   4.745  10.673  14.084
28002SOL    HW185839   4.650  10.661  14.086
28002SOL    HW285840   4.760  10.752  14.136
28003SOL     OW85841   3.977  10.941  13.998
28003SOL    HW185842   3.991  11.006  14.067
28003SOL    HW285843   3.995  10.988  13.917
28004SOL     OW85844  14.580  10.687   6.660
28004SOL    HW185845  14.494  10.660   6.693
28004SOL    HW285846  14.639  10.618   6.688
28005SOL     OW85847   9.250   3.987   2.111
28005SOL    HW185848   9.173   3.931   2.124
28005SOL    HW285849   9.277   3.971   2.020
28006SOL     OW85850  13.424   9.977   3.125
28006SOL    HW185851  13.457   9.905   3.179
28006SOL    HW285852  13.342  10.003   3.168
28007SOL     OW85853  11.483   8.285  14.225
28007SOL    HW185854  11.428   8.336  14.285
28007SOL    HW285855  11.527   8.352  14.171
28008SOL     OW85856   8.885   3.903   7.770
28008SOL    HW185857   8.820   3.929   7.835
28008SOL    HW285858   8.960   3.960   7.787
28009SOL     OW85859   3.562  11.273  13.591
28009SOL    HW185860   3.497  11.337  13.621
28009SOL    HW285861   3.534  11.190  13.630
28010SOL     OW85862  13.470   0.577   8.072
28010SOL    HW185863  13.544   0.518   8.059
28010SOL    HW285864  13.405   0.525   8.118
28011SOL     OW85865  12.141  10.870  11.255
28011SOL    HW185866  12.067  10.887  11.313
28011SOL    HW285867  12.213  10.848  11.314
28012SOL     OW85868   0.573   7.170   5.202
28012SOL    HW185869   0.542   7.196   5.115
28012SOL    HW285870   0.658   7.212   5.211
28013SOL     OW85871   6.146   7.036   9.435
28013SOL    HW185872   6.165   7.105   9.372
28013SOL    HW285873   6.217   6.972   9.423
28014SOL     OW85874   5.193   0.239   1.303
28014SOL    HW185875   5.167   0.287   1.382
28014SOL    HW285876   5.111   0.201   1.271
28015SOL     OW85877   8.226  13.028   8.996
28015SOL    HW185878   8.277  13.010   8.917
28015SOL    HW285879   8.273  12.982   9.066
28016SOL     OW85880   3.760  10.192  11.478
28016SOL    HW185881   3.711  10.228  11.551
28016SOL    HW285882   3.747  10.255  11.407
28017SOL     OW85883   5.993  14.524   6.070
28017SOL    HW185884   5.906  14.556   6.093
28017SOL    HW285885   5.992  14.519   5.975
28018SOL     OW85886   5.040  14.763   7.867
28018SOL    HW185887   5.000  14.812   7.939
28018SOL    HW285888   5.047  14.674   7.899
28019SOL     OW85889   8.585   5.347   6.243
28019SOL    HW185890   8.492   5.327   6.234
28019SOL    HW285891   8.630   5.274   6.201
28020SOL     OW85892   5.951  14.411   1.936
28020SOL    HW185893   5.940  14.503   1.911
28020SOL    HW285894   5.902  14.362   1.869
28021SOL     OW85895   8.933   7.212   1.878
28021SOL    HW185896   8.855   7.267   1.870
28021SOL    HW285897   8.952   7.211   1.971
28022SOL     OW85898   7.796   8.497  13.359
28022SOL    HW185899   7.791   8.419  13.415
28022SOL    HW285900   7.799   8.570  13.420
28023SOL     OW85901  11.262  10.259   8.628
28023SOL    HW185902  11.298  10.177   8.663
28023SOL    HW285903  11.249  10.314   8.705
28024SOL     OW85904   0.718   9.019   8.646
28024SOL    HW185905   0.711   8.981   8.733
28024SOL    HW285906   0.629   9.015   8.611
28025SOL     OW85907   3.112   8.730   2.002
28025SOL    HW185908   3.067   8.698   2.080
28025SOL    HW285909   3.205   8.733   2.027
28026SOL     OW85910  12.847   0.376  10.727
28026SOL    HW185911  12.868   0.393  10.819
28026SOL    HW285912  12.798   0.294  10.728
28027SOL     OW85913  14.103   5.144   4.939
28027SOL    HW185914  14.160   5.091   4.884
28027SOL    HW285915  14.108   5.232   4.900
28028SOL     OW85916  12.637   1.739  12.480
28028SOL    HW185917  12.615   1.686  12.556
28028SOL    HW285918  12.560   1.793  12.464
28029SOL     OW85919   1.662  13.383   0.776
28029SOL    HW185920   1.602  13.457   0.768
28029SOL    HW285921   1.748  13.422   0.788
28030SOL     OW85922   3.863   7.175  11.229
28030SOL    HW185923   3.959   7.170  11.221
28030SOL    HW285924   3.831   7.092  11.194
28031SOL     OW85925   7.262  10.164   3.061
28031SOL    HW185926   7.259  10.068   3.068
28031SOL    HW285927   7.332  10.181   2.998
28032SOL     OW85928   8.165   2.764  10.292
28032SOL    HW185929   8.075   2.731  10.291
28032SOL    HW285930   8.192   2.758  10.383
28033SOL     OW85931   7.262   0.955  12.050
28033SOL    HW185932   7.289   1.019  11.984
28033SOL    HW285933   7.216   0.887  12.000
28034SOL     OW85934   3.750   2.255   0.574
28034SOL    HW185935   3.839   2.236   0.544
28034SOL    HW285936   3.735   2.346   0.547
28035SOL     OW85937   0.352   3.753   4.043
28035SOL    HW185938   0.336   3.674   4.094
28035SOL    HW285939   0.336   3.727   3.952
28036SOL     OW85940  11.679   1.235  11.227
28036SOL    HW185941  11.596   1.198  11.197
28036SOL    HW285942  11.719   1.165  11.279
28037SOL     OW85943   3.800   5.085  12.129
28037SOL    HW185944   3.838   5.162  12.086
28037SOL    HW285945   3.716   5.072  12.086
28038SOL     OW85946   3.866  12.057  12.737
28038SOL    HW185947   3.842  12.022  12.823
28038SOL    HW285948   3.932  11.996  12.704
28039SOL     OW85949  10.792   2.883   2.646
28039SOL    HW185950  10.819   2.947   2.711
28039SOL    HW285951  10.745   2.816   2.696
28040SOL     OW85952   8.287   8.314   5.017
28040SOL    HW185953   8.352   8.318   4.947
28040SOL    HW285954   8.202   8.313   4.972
28041SOL     OW85955   4.721   8.104  13.707
28041SOL    HW185956   4.695   8.018  13.674
28041SOL    HW285957   4.669   8.116  13.786
28042SOL     OW85958  14.243   1.373  14.546
28042SOL    HW185959  14.320   1.334  14.587
28042SOL    HW285960  14.254   1.467  14.560
28043SOL     OW85961   0.382  13.086   4.416
28043SOL    HW185962   0.475  13.065   4.424
28043SOL    HW285963   0.346  13.069   4.503
28044SOL     OW85964   5.641   9.813  11.930
28044SOL    HW185965   5.572   9.752  11.903
28044SOL    HW285966   5.714   9.756  11.955
28045SOL     OW85967   4.473   8.275  10.786
28045SOL    HW185968   4.566   8.291  10.802
28045SOL    HW285969   4.471   8.212  10.715
28046SOL     OW85970   8.715   5.421   2.695
28046SOL    HW185971   8.649   5.351   2.694
28046SOL    HW285972   8.691   5.477   2.621
28047SOL     OW85973  10.751   4.835   4.194
28047SOL    HW185974  10.776   4.878   4.276
28047SOL    HW285975  10.784   4.746   4.204
28048SOL     OW85976   1.641   5.174   6.072
28048SOL    HW185977   1.608   5.139   6.154
28048SOL    HW285978   1.571   5.231   6.040
28049SOL     OW85979   9.924   7.077  12.288
28049SOL    HW185980   9.979   7.002  12.312
28049SOL    HW285981   9.878   7.100  12.369
28050SOL     OW85982  12.846  10.773   6.873
28050SOL    HW185983  12.905  10.762   6.947
28050SOL    HW285984  12.811  10.685   6.857
28051SOL     OW85985  11.154  14.696  14.518
28051SOL    HW185986  11.167  14.731  14.430
28051SOL    HW285987  11.075  14.739  14.550
28052SOL     OW85988   5.540   3.076  12.594
28052SOL    HW185989   5.505   3.102  12.509
28052SOL    HW285990   5.463   3.071  12.651
28053SOL     OW85991   8.465  10.877  14.324
28053SOL    HW185992   8.435  10.964  14.299
28053SOL    HW285993   8.421  10.859  14.407
28054SOL     OW85994   0.595  12.808   6.731
28054SOL    HW185995   0.559  12.873   6.671
28054SOL    HW285996   0.686  12.796   6.703
28055SOL     OW85997  13.879  10.513  13.464
28055SOL    HW185998  13.866  10.447  13.532
28055SOL    HW285999  13.880  10.463  13.382
28056SOL     OW86000   4.637  10.251   5.967
28056SOL    HW186001   4.665  10.165   5.937
28056SOL    HW286002   4.696  10.271   6.040
28057SOL     OW86003   4.601   6.291   3.147
28057SOL    HW186004   4.533   6.255   3.091
28057SOL    HW286005   4.558   6.311   3.230
28058SOL     OW86006   4.123   2.929   4.929
28058SOL    HW186007   4.106   2.836   4.917
28058SOL    HW286008   4.041   2.964   4.963
28059SOL     OW86009   0.572   8.619   9.057
28059SOL    HW186010   0.649   8.655   9.012
28059SOL    HW286011   0.603   8.536   9.093
28060SOL     OW86012  13.574   8.327  14.478
28060SOL    HW186013  13.495   8.293  14.520
28060SOL    HW286014  13.646   8.292  14.531
28061SOL     OW86015   8.827  13.055   9.085
28061SOL    HW186016   8.918  13.076   9.061
28061SOL    HW286017   8.833  12.972   9.131
28062SOL     OW86018   2.064  14.636   6.875
28062SOL    HW186019   2.132  14.611   6.812
28062SOL    HW286020   1.983  14.637   6.824
28063SOL     OW86021  12.798  12.628  11.205
28063SOL    HW186022  12.798  12.707  11.151
28063SOL    HW286023  12.884  12.589  11.192
28064SOL     OW86024   1.050   5.471   8.271
28064SOL    HW186025   1.028   5.464   8.364
28064SOL    HW286026   1.029   5.384   8.236
28065SOL     OW86027   1.379   5.330   1.551
28065SOL    HW186028   1.462   5.373   1.574
28065SOL    HW286029   1.368   5.348   1.457
28066SOL     OW86030   1.347  10.085   7.205
28066SOL    HW186031   1.376  10.176   7.201
28066SOL    HW286032   1.318  10.065   7.116
28067SOL     OW86033   8.050   4.953   5.560
28067SOL    HW186034   8.058   4.993   5.473
28067SOL    HW286035   8.115   4.999   5.613
28068SOL     OW86036   9.566  12.304   6.939
28068SOL    HW186037   9.567  12.225   6.994
28068SOL    HW286038   9.606  12.371   6.994
28069SOL     OW86039   5.312   9.980   8.605
28069SOL    HW186040   5.274   9.895   8.627
28069SOL    HW286041   5.245  10.044   8.632
28070SOL     OW86042   9.153   4.081  12.221
28070SOL    HW186043   9.223   4.146  12.233
28070SOL    HW286044   9.076   4.133  12.197
28071SOL     OW86045   1.940   4.675   3.657
28071SOL    HW186046   1.868   4.614   3.675
28071SOL    HW286047   1.923   4.707   3.568
28072SOL     OW86048  14.449  13.140   8.813
28072SOL    HW186049  14.487  13.225   8.790
28072SOL    HW286050  14.374  13.162   8.868
28073SOL     OW86051   8.509  12.497  10.489
28073SOL    HW186052   8.528  12.491  10.396
28073SOL    HW286053   8.580  12.551  10.525
28074SOL     OW86054  14.309   3.936   8.231
28074SOL    HW186055  14.325   3.865   8.294
28074SOL    HW286056  14.387   3.936   8.176
28075SOL     OW86057   1.090   4.172   4.882
28075SOL    HW186058   1.053   4.087   4.905
28075SOL    HW286059   1.134   4.157   4.798
28076SOL     OW86060   5.925   8.707   1.319
28076SOL    HW186061   6.008   8.732   1.360
28076SOL    HW286062   5.863   8.773   1.350
28077SOL     OW86063   3.339   7.871  10.256
28077SOL    HW186064   3.316   7.933  10.325
28077SOL    HW286065   3.363   7.925  10.181
28078SOL     OW86066   2.182   4.036   0.732
28078SOL    HW186067   2.175   4.039   0.637
28078SOL    HW286068   2.139   3.954   0.757
28079SOL     OW86069   8.664  10.074   6.513
28079SOL    HW186070   8.750  10.034   6.503
28079SOL    HW286071   8.632  10.086   6.424
28080SOL     OW86072   2.737   5.082   9.196
28080SOL    HW186073   2.771   5.158   9.148
28080SOL    HW286074   2.784   5.008   9.159
28081SOL     OW86075   9.484   3.083   5.337
28081SOL    HW186076   9.549   3.044   5.278
28081SOL    HW286077   9.525   3.164   5.367
28082SOL     OW86078  10.441  14.722   4.669
28082SOL    HW186079  10.387  14.798   4.688
28082SOL    HW286080  10.480  14.699   4.753
28083SOL     OW86081   8.562  10.915  11.599
28083SOL    HW186082   8.639  10.869  11.633
28083SOL    HW286083   8.489  10.855  11.617
28084SOL     OW86084  12.141   3.972  13.771
28084SOL    HW186085  12.115   3.880  13.762
28084SOL    HW286086  12.078   4.020  13.717
28085SOL     OW86087   6.325  13.416  10.711
28085SOL    HW186088   6.283  13.464  10.640
28085SOL    HW286089   6.253  13.384  10.765
28086SOL     OW86090   3.288  12.476   0.237
28086SOL    HW186091   3.260  12.511   0.321
28086SOL    HW286092   3.206  12.456   0.190
28087SOL     OW86093   4.057   2.476   6.222
28087SOL    HW186094   4.000   2.539   6.265
28087SOL    HW286095   4.113   2.529   6.164
28088SOL     OW86096   6.122   4.815  13.451
28088SOL    HW186097   6.203   4.853  13.417
28088SOL    HW286098   6.117   4.846  13.541
28089SOL     OW86099   3.366   9.231   8.535
28089SOL    HW186100   3.401   9.151   8.575
28089SOL    HW286101   3.281   9.243   8.578
28090SOL     OW86102   4.995   7.254   7.758
28090SOL    HW186103   5.089   7.260   7.742
28090SOL    HW286104   4.987   7.183   7.822
28091SOL     OW86105   3.186  11.610   0.086
28091SOL    HW186106   3.135  11.618   0.006
28091SOL    HW286107   3.172  11.693   0.132
28092SOL     OW86108   2.260   4.404   1.844
28092SOL    HW186109   2.270   4.379   1.752
28092SOL    HW286110   2.340   4.374   1.886
28093SOL     OW86111  12.759   6.427   4.818
28093SOL    HW186112  12.693   6.388   4.761
28093SOL    HW286113  12.836   6.435   4.763
28094SOL     OW86114   3.427   4.874   7.228
28094SOL    HW186115   3.359   4.937   7.204
28094SOL    HW286116   3.418   4.803   7.165
28095SOL     OW86117  14.824   4.332  13.621
28095SOL    HW186118   0.037   4.290  13.622
28095SOL    HW286119  14.770   4.279  13.679
28096SOL     OW86120  12.547  13.057   9.260
28096SOL    HW186121  12.633  13.066   9.300
28096SOL    HW286122  12.515  13.147   9.252
28097SOL     OW86123  11.249   7.869   6.558
28097SOL    HW186124  11.306   7.792   6.565
28097SOL    HW286125  11.206   7.874   6.643
28098SOL     OW86126   9.261   3.680   9.975
28098SOL    HW186127   9.167   3.672   9.960
28098SOL    HW286128   9.272   3.667  10.070
28099SOL     OW86129   5.376   4.227   5.218
28099SOL    HW186130   5.429   4.152   5.189
28099SOL    HW286131   5.306   4.188   5.271
28100SOL     OW86132  11.618   3.770   6.764
28100SOL    HW186133  11.656   3.835   6.706
28100SOL    HW286134  11.673   3.692   6.753
28101SOL     OW86135  14.382   2.890   5.124
28101SOL    HW186136  14.410   2.942   5.049
28101SOL    HW286137  14.397   2.948   5.199
28102SOL     OW86138   9.052   6.578   7.864
28102SOL    HW186139   8.971   6.614   7.827
28102SOL    HW286140   9.038   6.483   7.865
28103SOL     OW86141   8.653   9.354  11.300
28103SOL    HW186142   8.649   9.275  11.246
28103SOL    HW286143   8.562   9.374  11.321
28104SOL     OW86144   9.352   2.578   8.479
28104SOL    HW186145   9.354   2.492   8.522
28104SOL    HW286146   9.287   2.628   8.529
28105SOL     OW86147  12.187   1.200  12.959
28105SOL    HW186148  12.132   1.189  12.882
28105SOL    HW286149  12.271   1.229  12.925
28106SOL     OW86150  12.586   6.477   8.594
28106SOL    HW186151  12.617   6.550   8.541
28106SOL    HW286152  12.557   6.411   8.531
28107SOL     OW86153  14.137   9.650   8.404
28107SOL    HW186154  14.129   9.636   8.498
28107SOL    HW286155  14.229   9.668   8.389
28108SOL     OW86156  13.111  13.381  10.623
28108SOL    HW186157  13.193  13.335  10.606
28108SOL    HW286158  13.053  13.314  10.660
28109SOL     OW86159   7.975  11.144   5.440
28109SOL    HW186160   8.038  11.073   5.426
28109SOL    HW286161   8.006  11.215   5.384
28110SOL     OW86162  14.673   8.845  13.389
28110SOL    HW186163  14.766   8.866  13.401
28110SOL    HW286164  14.667   8.751  13.407
28111SOL     OW86165   5.396  12.802  10.689
28111SOL    HW186166   5.425  12.717  10.719
28111SOL    HW286167   5.476  12.846  10.659
28112SOL     OW86168   6.993   9.058   7.349
28112SOL    HW186169   6.902   9.047   7.377
28112SOL    HW286170   7.004   9.152   7.336
28113SOL     OW86171   2.668   5.874  12.798
28113SOL    HW186172   2.715   5.876  12.882
28113SOL    HW286173   2.716   5.936  12.743
28114SOL     OW86174   3.269   2.148   3.618
28114SOL    HW186175   3.337   2.212   3.599
28114SOL    HW286176   3.238   2.119   3.532
28115SOL     OW86177  11.114  12.641   8.253
28115SOL    HW186178  11.077  12.679   8.173
28115SOL    HW286179  11.165  12.712   8.292
28116SOL     OW86180   2.941  12.725   2.598
28116SOL    HW186181   3.018  12.781   2.609
28116SOL    HW286182   2.935  12.677   2.681
28117SOL     OW86183   6.126   8.727   0.268
28117SOL    HW186184   6.147   8.777   0.347
28117SOL    HW286185   6.128   8.635   0.296
28118SOL     OW86186   7.948   3.249   9.727
28118SOL    HW186187   7.985   3.317   9.782
28118SOL    HW286188   7.953   3.170   9.779
28119SOL     OW86189   4.812   5.383  10.525
28119SOL    HW186190   4.729   5.416  10.491
28119SOL    HW286191   4.839   5.448  10.590
28120SOL     OW86192   0.445  13.067   6.632
28120SOL    HW186193   0.426  13.066   6.726
28120SOL    HW286194   0.523  13.121   6.624
28121SOL     OW86195   9.929  14.077   2.403
28121SOL    HW186196   9.920  13.994   2.448
28121SOL    HW286197   9.842  14.115   2.404
28122SOL     OW86198   1.915  12.821   2.940
28122SOL    HW186199   1.911  12.882   3.014
28122SOL    HW286200   1.924  12.735   2.981
28123SOL     OW86201   4.766   3.075  12.705
28123SOL    HW186202   4.767   2.989  12.663
28123SOL    HW286203   4.715   3.063  12.785
28124SOL     OW86204   5.162   2.027   5.441
28124SOL    HW186205   5.240   1.982   5.411
28124SOL    HW286206   5.110   1.960   5.484
28125SOL     OW86207   7.726  12.144  14.326
28125SOL    HW186208   7.689  12.144  14.237
28125SOL    HW286209   7.820  12.129  14.313
28126SOL     OW86210   7.001  10.246  13.057
28126SOL    HW186211   6.934  10.288  13.111
28126SOL    HW286212   6.981  10.276  12.968
28127SOL     OW86213  11.333   9.981   1.818
28127SOL    HW186214  11.329  10.067   1.776
28127SOL    HW286215  11.315   9.919   1.748
28128SOL     OW86216  10.582   8.418  12.199
28128SOL    HW186217  10.521   8.368  12.254
28128SOL    HW286218  10.529   8.447  12.125
28129SOL     OW86219  12.501  11.574   0.703
28129SOL    HW186220  12.438  11.638   0.738
28129SOL    HW286221  12.562  11.559   0.775
28130SOL     OW86222   1.101  13.744  13.073
28130SOL    HW186223   1.148  13.774  13.150
28130SOL    HW286224   1.058  13.822  13.038
28131SOL     OW86225   2.134   1.093  10.610
28131SOL    HW186226   2.137   1.186  10.633
28131SOL    HW286227   2.079   1.053  10.677
28132SOL     OW86228   4.194   9.739   7.406
28132SOL    HW186229   4.279   9.726   7.366
28132SOL    HW286230   4.131   9.722   7.336
28133SOL     OW86231   6.719   0.743   3.800
28133SOL    HW186232   6.751   0.656   3.822
28133SOL    HW286233   6.694   0.737   3.707
28134SOL     OW86234   5.922   2.955   4.768
28134SOL    HW186235   5.926   2.911   4.853
28134SOL    HW286236   5.926   3.049   4.789
28135SOL     OW86237  13.278   3.633  13.481
28135SOL    HW186238  13.221   3.643  13.405
28135SOL    HW286239  13.364   3.612  13.444
28136SOL     OW86240   7.377  11.575  12.273
28136SOL    HW186241   7.317  11.649  12.277
28136SOL    HW286242   7.395  11.564  12.179
28137SOL     OW86243   2.384   0.066   6.533
28137SOL    HW186244   2.313   0.099   6.478
28137SOL    HW286245   2.402  14.851   6.498
28138SOL     OW86246   4.736  13.441   4.933
28138SOL    HW186247   4.729  13.347   4.952
28138SOL    HW286248   4.645  13.470   4.923
28139SOL     OW86249   8.207   1.592   1.117
28139SOL    HW186250   8.279   1.528   1.116
28139SOL    HW286251   8.193   1.615   1.026
28140SOL     OW86252  10.753   1.191   8.211
28140SOL    HW186253  10.674   1.182   8.157
28140SOL    HW286254  10.756   1.284   8.234
28141SOL     OW86255   1.250  13.048  11.351
28141SOL    HW186256   1.295  12.966  11.372
28141SOL    HW286257   1.258  13.101  11.430
28142SOL     OW86258   7.094   3.238  14.398
28142SOL    HW186259   7.048   3.321  14.403
28142SOL    HW286260   7.028   3.177  14.363
28143SOL     OW86261   5.867  14.118  10.889
28143SOL    HW186262   5.917  14.139  10.967
28143SOL    HW286263   5.838  14.028  10.903
28144SOL     OW86264  10.140   4.084  10.191
28144SOL    HW186265  10.106   4.031  10.119
28144SOL    HW286266  10.170   4.020  10.256
28145SOL     OW86267   0.931   3.659   9.774
28145SOL    HW186268   0.916   3.716   9.849
28145SOL    HW286269   0.908   3.572   9.805
28146SOL     OW86270   3.427   4.597  12.987
28146SOL    HW186271   3.457   4.635  13.069
28146SOL    HW286272   3.345   4.642  12.968
28147SOL     OW86273   5.599  14.430   2.140
28147SOL    HW186274   5.647  14.497   2.091
28147SOL    HW286275   5.660  14.404   2.210
28148SOL     OW86276   8.497  12.336  13.685
28148SOL    HW186277   8.437  12.411  13.680
28148SOL    HW286278   8.576  12.365  13.639
28149SOL     OW86279  13.962   2.350   6.839
28149SOL    HW186280  13.877   2.356   6.881
28149SOL    HW286281  13.943   2.349   6.746
28150SOL     OW86282   6.970  12.771  10.391
28150SOL    HW186283   6.968  12.679  10.417
28150SOL    HW286284   6.927  12.772  10.305
28151SOL     OW86285  12.584  13.684  11.686
28151SOL    HW186286  12.617  13.714  11.601
28151SOL    HW286287  12.507  13.631  11.665
28152SOL     OW86288  14.241   7.562   1.564
28152SOL    HW186289  14.277   7.525   1.645
28152SOL    HW286290  14.317   7.576   1.508
28153SOL     OW86291   2.399   1.443   8.180
28153SOL    HW186292   2.482   1.406   8.210
28153SOL    HW286293   2.332   1.393   8.225
28154SOL     OW86294   8.306  14.136   6.385
28154SOL    HW186295   8.246  14.061   6.385
28154SOL    HW286296   8.262  14.200   6.442
28155SOL     OW86297  13.409   2.189   4.671
28155SOL    HW186298  13.366   2.234   4.599
28155SOL    HW286299  13.482   2.142   4.630
28156SOL     OW86300   1.995   3.124   2.940
28156SOL    HW186301   2.075   3.167   2.971
28156SOL    HW286302   2.018   3.031   2.938
28157SOL     OW86303  14.330   2.080   3.824
28157SOL    HW186304  14.370   2.039   3.900
28157SOL    HW286305  14.246   2.036   3.813
28158SOL     OW86306  13.313  13.425  12.661
28158SOL    HW186307  13.364  13.432  12.742
28158SOL    HW286308  13.360  13.481  12.599
28159SOL     OW86309   1.093   3.008   8.686
28159SOL    HW186310   1.056   3.062   8.616
28159SOL    HW286311   1.097   3.067   8.761
28160SOL     OW86312   8.337   4.064   6.308
28160SOL    HW186313   8.272   4.026   6.366
28160SOL    HW286314   8.331   4.012   6.228
28161SOL     OW86315   1.484   4.520   7.096
28161SOL    HW186316   1.566   4.545   7.140
28161SOL    HW286317   1.513   4.476   7.016
28162SOL     OW86318   1.083   8.954   6.674
28162SOL    HW186319   1.114   9.041   6.702
28162SOL    HW286320   1.148   8.893   6.708
28163SOL     OW86321   6.574   4.572   6.697
28163SOL    HW186322   6.628   4.586   6.619
28163SOL    HW286323   6.624   4.511   6.750
28164SOL     OW86324   3.112  12.936   6.282
28164SOL    HW186325   3.081  12.925   6.192
28164SOL    HW286326   3.091  13.026   6.304
28165SOL     OW86327   6.879   3.442   0.568
28165SOL    HW186328   6.858   3.516   0.626
28165SOL    HW286329   6.969   3.458   0.541
28166SOL     OW86330  14.290  14.357   9.784
28166SOL    HW186331  14.195  14.342   9.783
28166SOL    HW286332  14.300  14.445   9.748
28167SOL     OW86333  13.889   3.617  11.137
28167SOL    HW186334  13.817   3.571  11.181
28167SOL    HW286335  13.941   3.547  11.096
28168SOL     OW86336   0.329  14.298   9.613
28168SOL    HW186337   0.381  14.358   9.666
28168SOL    HW286338   0.239  14.326   9.626
28169SOL     OW86339  12.496   0.753   5.319
28169SOL    HW186340  12.407   0.769   5.352
28169SOL    HW286341  12.521   0.670   5.358
28170SOL     OW86342  13.719  14.146  11.738
28170SOL    HW186343  13.716  14.197  11.818
28170SOL    HW286344  13.789  14.082  11.751
28171SOL     OW86345   2.736   6.285   7.264
28171SOL    HW186346   2.649   6.302   7.301
28171SOL    HW286347   2.729   6.314   7.173
28172SOL     OW86348   1.130   1.532   7.911
28172SOL    HW186349   1.056   1.580   7.875
28172SOL    HW286350   1.179   1.597   7.961
28173SOL     OW86351  11.853  14.848   5.472
28173SOL    HW186352  11.852   0.064   5.438
28173SOL    HW286353  11.795  14.799   5.414
28174SOL     OW86354  13.318   0.422   3.090
28174SOL    HW186355  13.246   0.485   3.095
28174SOL    HW286356  13.317   0.377   3.175
28175SOL     OW86357  11.596  11.460  12.736
28175SOL    HW186358  11.671  11.434  12.682
28175SOL    HW286359  11.632  11.518  12.802
28176SOL     OW86360   5.478  12.325  12.210
28176SOL    HW186361   5.548  12.382  12.178
28176SOL    HW286362   5.400  12.355  12.163
28177SOL     OW86363  10.948   8.245   3.210
28177SOL    HW186364  11.021   8.275   3.156
28177SOL    HW286365  10.982   8.169   3.257
28178SOL     OW86366   6.997  14.774  12.103
28178SOL    HW186367   6.979  14.850  12.049
28178SOL    HW286368   7.092  14.762  12.096
28179SOL     OW86369   5.507   4.839   8.618
28179SOL    HW186370   5.593   4.880   8.625
28179SOL    HW286371   5.523   4.747   8.638
28180SOL     OW86372   8.813   0.838   5.107
28180SOL    HW186373   8.868   0.766   5.077
28180SOL    HW286374   8.735   0.795   5.143
28181SOL     OW86375  12.880  10.812   9.572
28181SOL    HW186376  12.905  10.736   9.624
28181SOL    HW286377  12.961  10.841   9.530
28182SOL     OW86378   1.086  12.226   6.750
28182SOL    HW186379   1.016  12.227   6.815
28182SOL    HW286380   1.112  12.135   6.744
28183SOL     OW86381   9.201   7.023   9.192
28183SOL    HW186382   9.196   7.118   9.188
28183SOL    HW286383   9.234   7.005   9.280
28184SOL     OW86384   4.487   2.558   7.112
28184SOL    HW186385   4.574   2.590   7.136
28184SOL    HW286386   4.441   2.548   7.195
28185SOL     OW86387   0.932  13.456   0.182
28185SOL    HW186388   0.919  13.417   0.268
28185SOL    HW286389   0.906  13.548   0.193
28186SOL     OW86390  10.263   4.023   8.838
28186SOL    HW186391  10.244   4.091   8.903
28186SOL    HW286392  10.300   4.070   8.763
28187SOL     OW86393   3.779  11.550   9.408
28187SOL    HW186394   3.755  11.467   9.366
28187SOL    HW286395   3.826  11.524   9.487
28188SOL     OW86396  14.083   0.809   2.465
28188SOL    HW186397  14.163   0.802   2.517
28188SOL    HW286398  14.028   0.870   2.515
28189SOL     OW86399   0.862   4.359  13.372
28189SOL    HW186400   0.785   4.304  13.355
28189SOL    HW286401   0.839   4.406  13.452
28190SOL     OW86402  11.742  10.071   3.622
28190SOL    HW186403  11.740  10.139   3.555
28190SOL    HW286404  11.652  10.038   3.626
28191SOL     OW86405   5.934   5.182   9.248
28191SOL    HW186406   5.904   5.263   9.287
28191SOL    HW286407   5.947   5.203   9.155
28192SOL     OW86408   2.455   9.935  12.716
28192SOL    HW186409   2.423   9.987  12.642
28192SOL    HW286410   2.380   9.925  12.774
28193SOL     OW86411  12.733   2.393   6.545
28193SOL    HW186412  12.779   2.429   6.470
28193SOL    HW286413  12.649   2.364   6.510
28194SOL     OW86414   9.086   8.017  13.168
28194SOL    HW186415   9.025   7.945  13.184
28194SOL    HW286416   9.058   8.053  13.083
28195SOL     OW86417  12.381  11.168   3.561
28195SOL    HW186418  12.405  11.172   3.654
28195SOL    HW286419  12.384  11.075   3.539
28196SOL     OW86420  13.186   1.845  13.220
28196SOL    HW186421  13.228   1.902  13.284
28196SOL    HW286422  13.139   1.906  13.162
28197SOL     OW86423   8.992  13.307   6.924
28197SOL    HW186424   9.073  13.264   6.952
28197SOL    HW286425   8.924  13.241   6.938
28198SOL     OW86426  14.588  10.198   1.796
28198SOL    HW186427  14.577  10.183   1.890
28198SOL    HW286428  14.502  10.181   1.758
28199SOL     OW86429  14.400  10.656   2.633
28199SOL    HW186430  14.421  10.566   2.607
28199SOL    HW286431  14.484  10.700   2.639
28200SOL     OW86432  12.019  13.781   7.598
28200SOL    HW186433  12.036  13.874   7.585
28200SOL    HW286434  12.006  13.746   7.509
28201SOL     OW86435   1.912  11.656   7.729
28201SOL    HW186436   1.906  11.596   7.803
28201SOL    HW286437   1.880  11.740   7.763
28202SOL     OW86438   9.434  14.442  10.695
28202SOL    HW186439   9.364  14.447  10.630
28202SOL    HW286440   9.510  14.410  10.647
28203SOL     OW86441   3.751   4.460   5.757
28203SOL    HW186442   3.782   4.547   5.782
28203SOL    HW286443   3.713   4.425   5.837
28204SOL     OW86444   1.175   6.829   3.934
28204SOL    HW186445   1.150   6.806   4.023
28204SOL    HW286446   1.179   6.925   3.935
28205SOL     OW86447   3.887  10.714  12.359
28205SOL    HW186448   3.943  10.751  12.291
28205SOL    HW286449   3.818  10.669  12.311
28206SOL     OW86450   8.040   4.640   2.575
28206SOL    HW186451   8.035   4.712   2.512
28206SOL    HW286452   7.977   4.576   2.543
28207SOL     OW86453  13.076   8.119   1.862
28207SOL    HW186454  13.039   8.075   1.785
28207SOL    HW286455  13.103   8.047   1.920
28208SOL     OW86456   1.742   5.181   4.556
28208SOL    HW186457   1.812   5.188   4.621
28208SOL    HW286458   1.762   5.249   4.492
28209SOL     OW86459   4.344   5.197  14.409
28209SOL    HW186460   4.311   5.184  14.498
28209SOL    HW286461   4.271   5.237  14.362
28210SOL     OW86462  13.144   1.502   9.113
28210SOL    HW186463  13.075   1.563   9.140
28210SOL    HW286464  13.097   1.423   9.087
28211SOL     OW86465   5.326   8.371   7.230
28211SOL    HW186466   5.240   8.381   7.189
28211SOL    HW286467   5.356   8.460   7.246
28212SOL     OW86468   9.271   0.330   8.361
28212SOL    HW186469   9.319   0.257   8.399
28212SOL    HW286470   9.234   0.296   8.279
28213SOL     OW86471   0.034   7.526  12.982
28213SOL    HW186472   0.080   7.608  12.998
28213SOL    HW286473  14.814   7.550  12.978
28214SOL     OW86474  11.801   3.553   3.314
28214SOL    HW186475  11.778   3.560   3.407
28214SOL    HW286476  11.746   3.618   3.271
28215SOL     OW86477  12.449  11.279   9.590
28215SOL    HW186478  12.417  11.189   9.593
28215SOL    HW286479  12.478  11.298   9.679
28216SOL     OW86480  14.602   7.813  11.797
28216SOL    HW186481  14.609   7.878  11.726
28216SOL    HW286482  14.512   7.783  11.794
28217SOL     OW86483   8.474  11.857  11.787
28217SOL    HW186484   8.391  11.814  11.809
28217SOL    HW286485   8.495  11.825  11.700
28218SOL     OW86486   9.259  14.217  12.628
28218SOL    HW186487   9.305  14.301  12.636
28218SOL    HW286488   9.190  14.234  12.564
28219SOL     OW86489  12.312  10.691   1.722
28219SOL    HW186490  12.366  10.627   1.769
28219SOL    HW286491  12.376  10.746   1.675
28220SOL     OW86492   9.571   0.548   9.379
28220SOL    HW186493   9.606   0.459   9.383
28220SOL    HW286494   9.482   0.538   9.344
28221SOL     OW86495   9.186   7.910   6.005
28221SOL    HW186496   9.233   7.912   6.089
28221SOL    HW286497   9.154   7.820   5.999
28222SOL     OW86498   3.628   2.332   9.221
28222SOL    HW186499   3.668   2.375   9.145
28222SOL    HW286500   3.679   2.364   9.295
28223SOL     OW86501  10.959   6.312  13.796
28223SOL    HW186502  10.887   6.335  13.738
28223SOL    HW286503  11.036   6.350  13.756
28224SOL     OW86504   3.027   6.717   9.084
28224SOL    HW186505   3.052   6.636   9.040
28224SOL    HW286506   3.108   6.747   9.126
28225SOL     OW86507   6.060  12.552   1.726
28225SOL    HW186508   5.966  12.534   1.727
28225SOL    HW286509   6.084  12.564   1.818
28226SOL     OW86510  12.724   5.489  10.320
28226SOL    HW186511  12.672   5.498  10.240
28226SOL    HW286512  12.728   5.577  10.356
28227SOL     OW86513  12.971   7.581  11.367
28227SOL    HW186514  12.978   7.524  11.443
28227SOL    HW286515  12.962   7.521  11.293
28228SOL     OW86516  10.514   7.393  10.542
28228SOL    HW186517  10.476   7.365  10.626
28228SOL    HW286518  10.561   7.473  10.563
28229SOL     OW86519   4.310  14.850  13.142
28229SOL    HW186520   4.225  14.806  13.143
28229SOL    HW286521   4.298   0.055  13.196
28230SOL     OW86522   3.669   4.429   6.531
28230SOL    HW186523   3.685   4.523   6.528
28230SOL    HW286524   3.631   4.414   6.617
28231SOL     OW86525  10.634   2.451  14.501
28231SOL    HW186526  10.556   2.463  14.556
28231SOL    HW286527  10.707   2.479  14.556
28232SOL     OW86528  14.311   5.593  10.592
28232SOL    HW186529  14.253   5.667  10.574
28232SOL    HW286530  14.301   5.535  10.517
28233SOL     OW86531  13.755  11.624   3.475
28233SOL    HW186532  13.668  11.627   3.515
28233SOL    HW286533  13.793  11.541   3.505
28234SOL     OW86534   9.848   0.631   2.770
28234SOL    HW186535   9.929   0.580   2.765
28234SOL    HW286536   9.796   0.603   2.695
28235SOL     OW86537  14.135   8.658  11.970
28235SOL    HW186538  14.100   8.676  12.057
28235SOL    HW286539  14.182   8.575  11.980
28236SOL     OW86540   7.818  12.515   7.349
28236SOL    HW186541   7.737  12.481   7.388
28236SOL    HW286542   7.865  12.555   7.422
28237SOL     OW86543   6.287  13.527   7.762
28237SOL    HW186544   6.307  13.495   7.850
28237SOL    HW286545   6.340  13.473   7.704
28238SOL     OW86546  13.855   0.930  12.408
28238SOL    HW186547  13.937   0.972  12.432
28238SOL    HW286548  13.861   0.842  12.446
28239SOL     OW86549   4.826   0.630   9.057
28239SOL    HW186550   4.886   0.672   8.995
28239SOL    HW286551   4.879   0.615   9.136
28240SOL     OW86552   0.246   2.250   0.568
28240SOL    HW186553   0.279   2.172   0.523
28240SOL    HW286554   0.210   2.217   0.650
28241SOL     OW86555   7.548  12.271   0.109
28241SOL    HW186556   7.514  12.183   0.124
28241SOL    HW286557   7.500  12.326   0.171
28242SOL     OW86558  10.341   2.937   4.412
28242SOL    HW186559  10.434   2.911   4.417
28242SOL    HW286560  10.331   3.001   4.482
28243SOL     OW86561   5.681   6.409   1.982
28243SOL    HW186562   5.700   6.469   1.911
28243SOL    HW286563   5.597   6.369   1.958
28244SOL     OW86564  13.963   2.385   4.837
28244SOL    HW186565  13.905   2.319   4.877
28244SOL    HW286566  13.970   2.358   4.746
28245SOL     OW86567   4.287   5.281   1.298
28245SOL    HW186568   4.274   5.375   1.283
28245SOL    HW286569   4.259   5.267   1.388
28246SOL     OW86570  12.575  13.951  10.156
28246SOL    HW186571  12.529  13.889  10.099
28246SOL    HW286572  12.539  13.935  10.243
28247SOL     OW86573   1.416   3.649   8.023
28247SOL    HW186574   1.481   3.719   8.027
28247SOL    HW286575   1.382   3.653   7.933
28248SOL     OW86576   5.764   6.658   4.982
28248SOL    HW186577   5.847   6.637   5.023
28248SOL    HW286578   5.736   6.576   4.940
28249SOL     OW86579  10.872  14.710   3.844
28249SOL    HW186580  10.910  14.752   3.921
28249SOL    HW286581  10.938  14.721   3.775
28250SOL     OW86582  13.540  14.727   9.500
28250SOL    HW186583  13.453  14.736   9.461
28250SOL    HW286584  13.600  14.724   9.426
28251SOL     OW86585   3.899   4.237   3.839
28251SOL    HW186586   3.861   4.156   3.806
28251SOL    HW286587   3.985   4.212   3.872
28252SOL     OW86588  10.798   8.379   5.785
28252SOL    HW186589  10.741   8.446   5.823
28252SOL    HW286590  10.780   8.300   5.835
28253SOL     OW86591  11.425   1.603   3.563
28253SOL    HW186592  11.426   1.687   3.518
28253SOL    HW286593  11.412   1.538   3.494
28254SOL     OW86594  14.443   6.819   3.071
28254SOL    HW186595  14.475   6.905   3.099
28254SOL    HW286596  14.522   6.769   3.052
28255SOL     OW86597  11.850   6.824   4.080
28255SOL    HW186598  11.831   6.876   4.002
28255SOL    HW286599  11.946   6.819   4.083
28256SOL     OW86600   6.437   9.315   1.238
28256SOL    HW186601   6.417   9.222   1.250
28256SOL    HW286602   6.427   9.352   1.326
28257SOL     OW86603  13.915   4.747   9.280
28257SOL    HW186604  13.976   4.687   9.324
28257SOL    HW286605  13.836   4.694   9.267
28258SOL     OW86606   6.239   4.449   7.394
28258SOL    HW186607   6.241   4.539   7.426
28258SOL    HW286608   6.270   4.455   7.303
28259SOL     OW86609   7.969   5.001   4.772
28259SOL    HW186610   7.976   4.907   4.792
28259SOL    HW286611   7.885   5.027   4.811
28260SOL     OW86612   0.366  14.597   0.511
28260SOL    HW186613   0.406  14.510   0.503
28260SOL    HW286614   0.424  14.655   0.462
28261SOL     OW86615   0.548  13.844   0.043
28261SOL    HW186616   0.459  13.849   0.078
28261SOL    HW286617   0.537  13.807  14.828
28262SOL     OW86618  13.816   3.890   9.504
28262SOL    HW186619  13.888   3.863   9.446
28262SOL    HW286620  13.737   3.873   9.454
28263SOL     OW86621  12.050   3.081   2.033
28263SOL    HW186622  11.976   3.142   2.030
28263SOL    HW286623  12.067   3.070   2.127
28264SOL     OW86624  14.798  10.120   2.958
28264SOL    HW186625   0.007  10.140   2.912
28264SOL    HW286626  14.738  10.190   2.932
28265SOL     OW86627   2.949  12.361  11.994
28265SOL    HW186628   2.906  12.425  12.051
28265SOL    HW286629   3.023  12.409  11.957
28266SOL     OW86630  10.539   8.950  12.590
28266SOL    HW186631  10.620   8.906  12.564
28266SOL    HW286632  10.478   8.932  12.518
28267SOL     OW86633  10.473   6.648   7.322
28267SOL    HW186634  10.414   6.717   7.293
28267SOL    HW286635  10.530   6.690   7.386
28268SOL     OW86636   7.087   7.392  11.425
28268SOL    HW186637   7.010   7.343  11.453
28268SOL    HW286638   7.121   7.343  11.351
28269SOL     OW86639   1.202   9.702  12.582
28269SOL    HW186640   1.220   9.739  12.496
28269SOL    HW286641   1.256   9.623  12.586
28270SOL     OW86642   0.585  13.058   9.493
28270SOL    HW186643   0.613  13.144   9.460
28270SOL    HW286644   0.617  13.056   9.583
28271SOL     OW86645   4.138   3.856  11.263
28271SOL    HW186646   4.042   3.858  11.270
28271SOL    HW286647   4.163   3.781  11.318
28272SOL     OW86648   0.359   1.905   2.774
28272SOL    HW186649   0.377   1.991   2.734
28272SOL    HW286650   0.434   1.851   2.748
28273SOL     OW86651   2.538   2.522   6.472
28273SOL    HW186652   2.631   2.544   6.475
28273SOL    HW286653   2.523   2.492   6.382
28274SOL     OW86654   1.471   0.494   3.574
28274SOL    HW186655   1.494   0.587   3.585
28274SOL    HW286656   1.384   0.495   3.534
28275SOL     OW86657   3.384   4.521   9.851
28275SOL    HW186658   3.396   4.428   9.871
28275SOL    HW286659   3.295   4.527   9.816
28276SOL     OW86660   5.324   3.547  13.325
28276SOL    HW186661   5.231   3.571  13.334
28276SOL    HW286662   5.340   3.550  13.230
28277SOL     OW86663   4.172  10.654   9.821
28277SOL    HW186664   4.146  10.694   9.904
28277SOL    HW286665   4.124  10.571   9.819
28278SOL     OW86666   0.300  13.575   6.015
28278SOL    HW186667   0.311  13.583   6.110
28278SOL    HW286668   0.242  13.500   6.004
28279SOL     OW86669   1.251   2.244  13.242
28279SOL    HW186670   1.322   2.191  13.278
28279SOL    HW286671   1.267   2.245  13.148
28280SOL     OW86672   4.213   4.912   0.724
28280SOL    HW186673   4.182   4.984   0.668
28280SOL    HW286674   4.252   4.956   0.799
28281SOL     OW86675  11.549   2.799   6.910
28281SOL    HW186676  11.521   2.723   6.858
28281SOL    HW286677  11.645   2.796   6.907
28282SOL     OW86678   5.734  12.774   9.608
28282SOL    HW186679   5.690  12.697   9.645
28282SOL    HW286680   5.663  12.832   9.581
28283SOL     OW86681  10.347   4.416   5.801
28283SOL    HW186682  10.333   4.324   5.776
28283SOL    HW286683  10.293   4.465   5.739
28284SOL     OW86684   9.933   4.899   2.109
28284SOL    HW186685  10.004   4.854   2.154
28284SOL    HW286686   9.969   4.924   2.025
28285SOL     OW86687   4.440   2.200   9.579
28285SOL    HW186688   4.477   2.112   9.581
28285SOL    HW286689   4.474   2.239   9.499
28286SOL     OW86690   1.810  11.752   4.262
28286SOL    HW186691   1.743  11.818   4.277
28286SOL    HW286692   1.761  11.673   4.238
28287SOL     OW86693   7.734   1.388   3.956
28287SOL    HW186694   7.685   1.331   4.016
28287SOL    HW286695   7.677   1.396   3.880
28288SOL     OW86696   4.192   1.488   3.063
28288SOL    HW186697   4.133   1.517   3.133
28288SOL    HW286698   4.148   1.514   2.982
28289SOL     OW86699   1.819   0.167   2.016
28289SOL    HW186700   1.877   0.230   1.974
28289SOL    HW286701   1.749   0.220   2.054
28290SOL     OW86702   4.568  10.448   4.301
28290SOL    HW186703   4.650  10.472   4.258
28290SOL    HW286704   4.502  10.449   4.231
28291SOL     OW86705  10.961   7.526   6.760
28291SOL    HW186706  11.012   7.551   6.837
28291SOL    HW286707  10.901   7.599   6.747
28292SOL     OW86708  14.086  14.039   0.519
28292SOL    HW186709  14.023  14.007   0.454
28292SOL    HW286710  14.120  13.960   0.561
28293SOL     OW86711  14.302  11.824   2.480
28293SOL    HW186712  14.234  11.758   2.494
28293SOL    HW286713  14.269  11.877   2.408
28294SOL     OW86714  13.838  10.428   6.983
28294SOL    HW186715  13.926  10.465   6.994
28294SOL    HW286716  13.827  10.370   7.059
28295SOL     OW86717   6.491   3.594  11.001
28295SOL    HW186718   6.508   3.686  11.023
28295SOL    HW286719   6.567   3.567  10.950
28296SOL     OW86720   1.219   4.413   3.609
28296SOL    HW186721   1.277   4.428   3.684
28296SOL    HW286722   1.237   4.323   3.582
28297SOL     OW86723  13.688  13.751   8.901
28297SOL    HW186724  13.621  13.714   8.843
28297SOL    HW286725  13.641  13.814   8.955
28298SOL     OW86726   0.019   7.765   9.336
28298SOL    HW186727  14.843   7.829   9.285
28298SOL    HW286728   0.101   7.755   9.288
28299SOL     OW86729   3.811   8.295   3.589
28299SOL    HW186730   3.886   8.318   3.534
28299SOL    HW286731   3.830   8.335   3.674
28300SOL     OW86732   2.023  11.924   7.541
28300SOL    HW186733   1.943  11.882   7.572
28300SOL    HW286734   1.993  11.985   7.473
28301SOL     OW86735   8.183  12.683  13.821
28301SOL    HW186736   8.100  12.730  13.810
28301SOL    HW286737   8.247  12.752  13.834
28302SOL     OW86738   5.412   0.340  13.474
28302SOL    HW186739   5.396   0.434  13.464
28302SOL    HW286740   5.507   0.330  13.464
28303SOL     OW86741  10.019   4.255   2.198
28303SOL    HW186742  10.031   4.336   2.149
28303SOL    HW286743  10.031   4.186   2.134
28304SOL     OW86744  12.785   7.967   8.775
28304SOL    HW186745  12.703   7.918   8.785
28304SOL    HW286746  12.761   8.058   8.795
28305SOL     OW86747  10.598  12.972   4.743
28305SOL    HW186748  10.603  12.970   4.648
28305SOL    HW286749  10.551  12.891   4.767
28306SOL     OW86750   2.663   7.016  10.259
28306SOL    HW186751   2.727   7.021  10.188
28306SOL    HW286752   2.712   6.983  10.334
28307SOL     OW86753   7.972   8.044   9.447
28307SOL    HW186754   8.037   8.089   9.394
28307SOL    HW286755   7.888   8.066   9.406
28308SOL     OW86756  10.294  12.723   3.954
28308SOL    HW186757  10.291  12.660   3.882
28308SOL    HW286758  10.206  12.721   3.992
28309SOL     OW86759   3.169   8.459  13.058
28309SOL    HW186760   3.147   8.468  12.965
28309SOL    HW286761   3.091   8.491  13.103
28310SOL     OW86762   5.512  12.710  10.193
28310SOL    HW186763   5.474  12.634  10.238
28310SOL    HW286764   5.607  12.702  10.209
28311SOL     OW86765   9.695   2.558  14.437
28311SOL    HW186766   9.742   2.606  14.505
28311SOL    HW286767   9.663   2.625  14.377
28312SOL     OW86768   6.083  14.643   3.780
28312SOL    HW186769   6.098  14.735   3.800
28312SOL    HW286770   6.150  14.596   3.830
28313SOL     OW86771  14.541   6.053   3.057
28313SOL    HW186772  14.576   5.966   3.074
28313SOL    HW286773  14.587   6.083   2.979
28314SOL     OW86774   0.846   2.015   8.196
28314SOL    HW186775   0.786   2.090   8.198
28314SOL    HW286776   0.933   2.054   8.191
28315SOL     OW86777  13.498   4.148  12.203
28315SOL    HW186778  13.556   4.074  12.184
28315SOL    HW286779  13.540   4.222  12.160
28316SOL     OW86780  12.063   2.792   8.002
28316SOL    HW186781  12.092   2.870   8.048
28316SOL    HW286782  12.093   2.719   8.057
28317SOL     OW86783   5.747  10.224   9.604
28317SOL    HW186784   5.709  10.161   9.542
28317SOL    HW286785   5.826  10.181   9.636
28318SOL     OW86786   4.374   2.608  12.197
28318SOL    HW186787   4.440   2.619  12.265
28318SOL    HW286788   4.415   2.549  12.133
28319SOL     OW86789  10.518   4.578  11.713
28319SOL    HW186790  10.483   4.617  11.794
28319SOL    HW286791  10.531   4.486  11.735
28320SOL     OW86792  10.252   3.371   6.595
28320SOL    HW186793  10.234   3.456   6.636
28320SOL    HW286794  10.323   3.334   6.648
28321SOL     OW86795   2.607   8.415  14.039
28321SOL    HW186796   2.617   8.479  14.110
28321SOL    HW286797   2.514   8.420  14.017
28322SOL     OW86798  13.927   1.394   6.329
28322SOL    HW186799  13.861   1.424   6.266
28322SOL    HW286800  14.010   1.405   6.284
28323SOL     OW86801   6.751   6.483   1.792
28323SOL    HW186802   6.753   6.398   1.748
28323SOL    HW286803   6.745   6.462   1.885
28324SOL     OW86804   1.871   5.598  12.280
28324SOL    HW186805   1.794   5.557  12.241
28324SOL    HW286806   1.858   5.692  12.267
28325SOL     OW86807  11.847  11.603   0.776
28325SOL    HW186808  11.874  11.525   0.824
28325SOL    HW286809  11.800  11.570   0.700
28326SOL     OW86810   6.644   2.814  10.673
28326SOL    HW186811   6.661   2.731  10.628
28326SOL    HW286812   6.661   2.880  10.606
28327SOL     OW86813   2.141   1.548  13.869
28327SOL    HW186814   2.091   1.494  13.929
28327SOL    HW286815   2.232   1.536  13.896
28328SOL     OW86816   8.757  11.193   2.007
28328SOL    HW186817   8.826  11.178   1.942
28328SOL    HW286818   8.752  11.288   2.014
28329SOL     OW86819   0.931  10.053   9.888
28329SOL    HW186820   0.907   9.966   9.919
28329SOL    HW286821   0.871  10.069   9.815
28330SOL     OW86822   0.322   2.285  12.237
28330SOL    HW186823   0.411   2.257  12.261
28330SOL    HW286824   0.285   2.209  12.192
28331SOL     OW86825   1.512  14.740  10.438
28331SOL    HW186826   1.490  14.732  10.345
28331SOL    HW286827   1.606  14.722  10.443
28332SOL     OW86828  12.843  11.599   6.546
28332SOL    HW186829  12.936  11.579   6.559
28332SOL    HW286830  12.823  11.661   6.616
28333SOL     OW86831  12.564   9.922   5.828
28333SOL    HW186832  12.646   9.915   5.781
28333SOL    HW286833  12.496   9.919   5.760
28334SOL     OW86834  12.689   7.626   4.131
28334SOL    HW186835  12.667   7.555   4.070
28334SOL    HW286836  12.605   7.652   4.169
28335SOL     OW86837   8.775   2.972   4.203
28335SOL    HW186838   8.845   2.951   4.142
28335SOL    HW286839   8.695   2.945   4.159
28336SOL     OW86840   6.394   7.547   1.322
28336SOL    HW186841   6.453   7.587   1.258
28336SOL    HW286842   6.450   7.490   1.374
28337SOL     OW86843   7.477   8.032   7.228
28337SOL    HW186844   7.461   7.937   7.232
28337SOL    HW286845   7.456   8.056   7.138
28338SOL     OW86846   1.596  13.096  10.380
28338SOL    HW186847   1.538  13.061  10.312
28338SOL    HW286848   1.553  13.072  10.463
28339SOL     OW86849  13.165  11.689   2.281
28339SOL    HW186850  13.260  11.692   2.295
28339SOL    HW286851  13.134  11.775   2.310
28340SOL     OW86852  13.449   1.737  13.571
28340SOL    HW186853  13.516   1.670  13.586
28340SOL    HW286854  13.411   1.752  13.657
28341SOL     OW86855   0.912   3.577  14.201
28341SOL    HW186856   0.945   3.640  14.137
28341SOL    HW286857   0.917   3.624  14.285
28342SOL     OW86858  13.124   9.348  11.606
28342SOL    HW186859  13.150   9.428  11.651
28342SOL    HW286860  13.200   9.324  11.553
28343SOL     OW86861  13.015  10.118   9.854
28343SOL    HW186862  12.990  10.103   9.945
28343SOL    HW286863  12.941  10.084   9.803
28344SOL     OW86864  10.583   1.604   2.473
28344SOL    HW186865  10.543   1.543   2.410
28344SOL    HW286866  10.542   1.583   2.556
28345SOL     OW86867   9.827   4.157  13.073
28345SOL    HW186868   9.735   4.168  13.100
28345SOL    HW286869   9.846   4.065  13.093
28346SOL     OW86870  13.724   4.668   8.886
28346SOL    HW186871  13.759   4.633   8.804
28346SOL    HW286872  13.751   4.605   8.953
28347SOL     OW86873  11.162   5.865   9.112
28347SOL    HW186874  11.138   5.783   9.155
28347SOL    HW286875  11.159   5.930   9.183
28348SOL     OW86876   4.334  11.515  14.119
28348SOL    HW186877   4.376  11.529  14.204
28348SOL    HW286878   4.376  11.436  14.085
28349SOL     OW86879  13.180  12.850   2.282
28349SOL    HW186880  13.245  12.898   2.231
28349SOL    HW286881  13.230  12.778   2.322
28350SOL     OW86882   6.213   0.062   0.806
28350SOL    HW186883   6.221   0.157   0.804
28350SOL    HW286884   6.272   0.035   0.876
28351SOL     OW86885  12.422  13.052  14.367
28351SOL    HW186886  12.345  13.058  14.310
28351SOL    HW286887  12.475  12.982  14.329
28352SOL     OW86888   6.116  14.634   8.896
28352SOL    HW186889   6.201  14.638   8.851
28352SOL    HW286890   6.055  14.603   8.829
28353SOL     OW86891   5.382   3.225   8.388
28353SOL    HW186892   5.333   3.204   8.468
28353SOL    HW286893   5.459   3.168   8.392
28354SOL     OW86894  14.124  14.327  13.525
28354SOL    HW186895  14.198  14.328  13.465
28354SOL    HW286896  14.164  14.333  13.612
28355SOL     OW86897   2.107   4.191  13.073
28355SOL    HW186898   2.025   4.201  13.025
28355SOL    HW286899   2.172   4.237  13.019
28356SOL     OW86900   6.424  10.102   0.570
28356SOL    HW186901   6.412  10.010   0.543
28356SOL    HW286902   6.396  10.153   0.494
28357SOL     OW86903  12.941   3.615  11.204
28357SOL    HW186904  12.932   3.538  11.260
28357SOL    HW286905  13.036   3.625  11.192
28358SOL     OW86906   5.560  11.657  13.762
28358SOL    HW186907   5.653  11.672  13.778
28358SOL    HW286908   5.543  11.569  13.796
28359SOL     OW86909  10.658   6.508   3.918
28359SOL    HW186910  10.602   6.554   3.856
28359SOL    HW286911  10.630   6.540   4.004
28360SOL     OW86912   6.953   3.067   9.941
28360SOL    HW186913   6.905   3.007   9.884
28360SOL    HW286914   6.891   3.136   9.962
28361SOL     OW86915  10.815   9.936   5.304
28361SOL    HW186916  10.909   9.953   5.309
28361SOL    HW286917  10.780   9.975   5.385
28362SOL     OW86918   5.262   4.519   0.811
28362SOL    HW186919   5.183   4.474   0.781
28362SOL    HW286920   5.282   4.582   0.742
28363SOL     OW86921   5.227  12.875   7.083
28363SOL    HW186922   5.154  12.822   7.050
28363SOL    HW286923   5.199  12.901   7.171
28364SOL     OW86924   8.989   6.404   0.156
28364SOL    HW186925   9.019   6.493   0.174
28364SOL    HW286926   9.058   6.365   0.104
28365SOL     OW86927  14.273  13.546   9.148
28365SOL    HW186928  14.202  13.566   9.209
28365SOL    HW286929  14.264  13.452   9.131
28366SOL     OW86930   8.502   1.126   9.491
28366SOL    HW186931   8.448   1.047   9.496
28366SOL    HW286932   8.544   1.121   9.405
28367SOL     OW86933   3.410   1.380  10.411
28367SOL    HW186934   3.409   1.475  10.418
28367SOL    HW286935   3.493   1.359  10.368
28368SOL     OW86936  13.519  10.920  10.289
28368SOL    HW186937  13.488  10.863  10.360
28368SOL    HW286938  13.531  10.861  10.215
28369SOL     OW86939   5.009   3.041   7.827
28369SOL    HW186940   4.967   2.957   7.842
28369SOL    HW286941   5.081   3.044   7.890
28370SOL     OW86942   3.991   4.709   6.982
28370SOL    HW186943   3.919   4.770   6.968
28370SOL    HW286944   3.971   4.666   7.066
28371SOL     OW86945   6.893   4.440  12.022
28371SOL    HW186946   6.900   4.361  12.076
28371SOL    HW286947   6.970   4.492  12.045
28372SOL     OW86948   1.417   2.283  11.011
28372SOL    HW186949   1.381   2.360  11.055
28372SOL    HW286950   1.397   2.210  11.070
28373SOL     OW86951   5.146   1.693   0.513
28373SOL    HW186952   5.088   1.764   0.486
28373SOL    HW286953   5.099   1.651   0.586
28374SOL     OW86954  13.974  10.327   2.720
28374SOL    HW186955  13.999  10.385   2.648
28374SOL    HW286956  14.037  10.256   2.716
28375SOL     OW86957  14.845   0.718   0.637
28375SOL    HW186958  14.798   0.641   0.605
28375SOL    HW286959  14.855   0.703   0.731
28376SOL     OW86960  11.180  11.794  10.688
28376SOL    HW186961  11.138  11.869  10.646
28376SOL    HW286962  11.259  11.830  10.728
28377SOL     OW86963  10.869   9.113   2.023
28377SOL    HW186964  10.949   9.162   2.003
28377SOL    HW286965  10.877   9.092   2.116
28378SOL     OW86966   3.757   7.356   2.296
28378SOL    HW186967   3.775   7.270   2.334
28378SOL    HW286968   3.699   7.338   2.222
28379SOL     OW86969   3.458   8.968  11.751
28379SOL    HW186970   3.395   9.022  11.703
28379SOL    HW286971   3.517   8.934  11.683
28380SOL     OW86972   5.691   6.959  13.790
28380SOL    HW186973   5.658   6.898  13.724
28380SOL    HW286974   5.744   7.021  13.740
28381SOL     OW86975  12.337   8.901  13.340
28381SOL    HW186976  12.282   8.918  13.416
28381SOL    HW286977  12.424   8.885  13.375
28382SOL     OW86978   2.566  11.749   2.819
28382SOL    HW186979   2.637  11.750   2.883
28382SOL    HW286980   2.603  11.788   2.741
28383SOL     OW86981  11.488  10.501   9.343
28383SOL    HW186982  11.458  10.592   9.344
28383SOL    HW286983  11.429  10.457   9.404
28384SOL     OW86984   0.439  12.399  10.041
28384SOL    HW186985   0.360  12.448  10.066
28384SOL    HW286986   0.506  12.431  10.101
28385SOL     OW86987  13.799   2.401  10.855
28385SOL    HW186988  13.714   2.414  10.812
28385SOL    HW286989  13.863   2.435  10.793
28386SOL     OW86990  10.321   4.979   5.062
28386SOL    HW186991  10.325   5.007   4.971
28386SOL    HW286992  10.271   4.897   5.061
28387SOL     OW86993  10.347   4.088   6.913
28387SOL    HW186994  10.269   4.034   6.902
28387SOL    HW286995  10.343   4.151   6.841
28388SOL     OW86996   0.533   6.877   4.328
28388SOL    HW186997   0.555   6.918   4.244
28388SOL    HW286998   0.612   6.886   4.380
28389SOL     OW86999   8.140   6.028   4.326
28389SOL    HW187000   8.128   6.074   4.242
28389SOL    HW287001   8.169   5.940   4.301
28390SOL     OW87002   2.363   3.272   3.618
28390SOL    HW187003   2.345   3.299   3.708
28390SOL    HW287004   2.291   3.215   3.595
28391SOL     OW87005   9.997   7.257   2.710
28391SOL    HW187006   9.917   7.208   2.724
28391SOL    HW287007   9.976   7.321   2.642
28392SOL     OW87008   7.796  14.652  13.266
28392SOL    HW187009   7.802  14.658  13.361
28392SOL    HW287010   7.707  14.620  13.250
28393SOL     OW87011  13.242   8.361   7.599
28393SOL    HW187012  13.235   8.269   7.625
28393SOL    HW287013  13.287   8.359   7.515
28394SOL     OW87014  11.764   8.279   7.063
28394SOL    HW187015  11.773   8.189   7.096
28394SOL    HW287016  11.855   8.310   7.056
28395SOL     OW87017  10.185  10.741   7.185
28395SOL    HW187018  10.167  10.781   7.100
28395SOL    HW287019  10.265  10.785   7.216
28396SOL     OW87020  11.368   8.013   9.359
28396SOL    HW187021  11.413   7.945   9.308
28396SOL    HW287022  11.345   7.970   9.441
28397SOL     OW87023  11.765  12.102   6.671
28397SOL    HW187024  11.805  12.086   6.756
28397SOL    HW287025  11.676  12.068   6.680
28398SOL     OW87026   2.577   7.872   7.709
28398SOL    HW187027   2.616   7.811   7.772
28398SOL    HW287028   2.496   7.829   7.681
28399SOL     OW87029   5.525  10.050   7.752
28399SOL    HW187030   5.466  10.053   7.827
28399SOL    HW287031   5.583  10.126   7.764
28400SOL     OW87032   5.668   3.958  10.490
28400SOL    HW187033   5.587   3.918  10.521
28400SOL    HW287034   5.664   4.048  10.523
28401SOL     OW87035   0.292   9.074   6.221
28401SOL    HW187036   0.211   9.091   6.269
28401SOL    HW287037   0.362   9.099   6.282
28402SOL     OW87038   7.368  12.699   1.881
28402SOL    HW187039   7.376  12.727   1.790
28402SOL    HW287040   7.459  12.694   1.912
28403SOL     OW87041   4.368  12.250  14.222
28403SOL    HW187042   4.297  12.204  14.267
28403SOL    HW287043   4.448  12.213  14.259
28404SOL     OW87044   8.712   5.065  13.991
28404SOL    HW187045   8.806   5.047  13.998
28404SOL    HW287046   8.705   5.126  13.918
28405SOL     OW87047  11.379   5.799   0.539
28405SOL    HW187048  11.329   5.762   0.466
28405SOL    HW287049  11.439   5.860   0.498
28406SOL     OW87050   6.590   8.332   6.318
28406SOL    HW187051   6.539   8.292   6.389
28406SOL    HW287052   6.616   8.418   6.353
28407SOL     OW87053   5.317   1.695   5.724
28407SOL    HW187054   5.271   1.691   5.808
28407SOL    HW287055   5.257   1.655   5.662
28408SOL     OW87056   4.258  10.569   3.677
28408SOL    HW187057   4.258  10.644   3.737
28408SOL    HW287058   4.351  10.548   3.666
28409SOL     OW87059  14.607  12.446   4.783
28409SOL    HW187060  14.658  12.366   4.775
28409SOL    HW287061  14.649  12.495   4.854
28410SOL     OW87062  13.384  12.296  10.165
28410SOL    HW187063  13.475  12.282  10.192
28410SOL    HW287064  13.355  12.371  10.218
28411SOL     OW87065   4.522   1.223   8.727
28411SOL    HW187066   4.615   1.201   8.718
28411SOL    HW287067   4.503   1.279   8.651
28412SOL     OW87068   5.810   3.048  12.530
28412SOL    HW187069   5.730   3.061  12.580
28412SOL    HW287070   5.780   3.035  12.440
28413SOL     OW87071   3.094   9.711   0.000
28413SOL    HW187072   3.022   9.695   0.061
28413SOL    HW287073   3.123   9.624  14.846
28414SOL     OW87074   0.678   6.849  12.638
28414SOL    HW187075   0.622   6.799  12.579
28414SOL    HW287076   0.694   6.791  12.712
28415SOL     OW87077   6.037   9.020   8.251
28415SOL    HW187078   5.962   9.075   8.229
28415SOL    HW287079   6.070   9.055   8.333
28416SOL     OW87080  14.848  14.029   7.896
28416SOL    HW187081  14.765  14.077   7.894
28416SOL    HW287082  14.828  13.950   7.945
28417SOL     OW87083  11.942   5.307   9.110
28417SOL    HW187084  11.991   5.227   9.126
28417SOL    HW287085  11.850   5.279   9.104
28418SOL     OW87086   9.723   7.880  13.730
28418SOL    HW187087   9.772   7.950  13.774
28418SOL    HW287088   9.647   7.925  13.692
28419SOL     OW87089  14.105   6.145   7.390
28419SOL    HW187090  14.014   6.147   7.418
28419SOL    HW287091  14.110   6.070   7.330
28420SOL     OW87092   4.020   5.169  11.693
28420SOL    HW187093   3.975   5.233  11.637
28420SOL    HW287094   4.104   5.210  11.714
28421SOL     OW87095  10.046  10.586   6.152
28421SOL    HW187096   9.955  10.576   6.124
28421SOL    HW287097  10.060  10.513   6.213
28422SOL     OW87098   6.415  13.819   4.433
28422SOL    HW187099   6.416  13.844   4.340
28422SOL    HW287100   6.493  13.861   4.469
28423SOL     OW87101   9.269   6.434   6.691
28423SOL    HW187102   9.341   6.497   6.684
28423SOL    HW287103   9.254   6.404   6.602
28424SOL     OW87104   0.641   2.403   5.914
28424SOL    HW187105   0.586   2.466   5.960
28424SOL    HW287106   0.698   2.456   5.859
28425SOL     OW87107  11.642   7.770   8.517
28425SOL    HW187108  11.722   7.821   8.530
28425SOL    HW287109  11.577   7.834   8.490
28426SOL     OW87110  12.186   0.474  11.197
28426SOL    HW187111  12.219   0.394  11.156
28426SOL    HW287112  12.165   0.531  11.123
28427SOL     OW87113   7.044   7.095  11.028
28427SOL    HW187114   6.953   7.076  11.003
28427SOL    HW287115   7.069   7.023  11.085
28428SOL     OW87116   6.650   2.984   3.378
28428SOL    HW187117   6.675   3.076   3.376
28428SOL    HW287118   6.564   2.983   3.419
28429SOL     OW87119   9.168  11.374   0.366
28429SOL    HW187120   9.167  11.301   0.427
28429SOL    HW287121   9.092  11.360   0.309
28430SOL     OW87122   4.833   3.723  11.284
28430SOL    HW187123   4.800   3.756  11.201
28430SOL    HW287124   4.924   3.752  11.286
28431SOL     OW87125   1.504  13.627   9.460
28431SOL    HW187126   1.469  13.538   9.461
28431SOL    HW287127   1.571  13.626   9.391
28432SOL     OW87128   7.974   5.060  11.043
28432SOL    HW187129   7.881   5.039  11.046
28432SOL    HW287130   7.985   5.111  10.963
28433SOL     OW87131  10.384   2.665   3.653
28433SOL    HW187132  10.316   2.632   3.713
28433SOL    HW287133  10.388   2.601   3.583
28434SOL     OW87134   3.228  13.389  13.695
28434SOL    HW187135   3.158  13.334  13.731
28434SOL    HW287136   3.182  13.466  13.662
28435SOL     OW87137   4.690   8.124   1.931
28435SOL    HW187138   4.732   8.045   1.966
28435SOL    HW287139   4.611   8.134   1.984
28436SOL     OW87140   4.052   4.340   8.668
28436SOL    HW187141   4.141   4.332   8.634
28436SOL    HW287142   4.045   4.431   8.697
28437SOL     OW87143  11.409   1.950   7.517
28437SOL    HW187144  11.483   1.970   7.460
28437SOL    HW287145  11.421   2.006   7.594
28438SOL     OW87146  14.118  14.454   3.986
28438SOL    HW187147  14.083  14.406   3.911
28438SOL    HW287148  14.134  14.542   3.952
28439SOL     OW87149  10.550   5.104   8.268
28439SOL    HW187150  10.514   5.190   8.244
28439SOL    HW287151  10.608   5.122   8.342
28440SOL     OW87152   8.785   3.760   9.695
28440SOL    HW187153   8.736   3.842   9.695
28440SOL    HW287154   8.824   3.755   9.607
28441SOL     OW87155   5.083   2.576   2.251
28441SOL    HW187156   5.068   2.640   2.181
28441SOL    HW287157   5.094   2.493   2.205
28442SOL     OW87158  10.338   8.098  11.064
28442SOL    HW187159  10.286   8.151  11.125
28442SOL    HW287160  10.349   8.014  11.109
28443SOL     OW87161  10.093  14.631  13.034
28443SOL    HW187162  10.135  14.587  12.960
28443SOL    HW287163  10.131  14.590  13.111
28444SOL     OW87164  12.802   4.652  13.934
28444SOL    HW187165  12.754   4.630  14.014
28444SOL    HW287166  12.866   4.581  13.924
28445SOL     OW87167  11.387   7.439   6.096
28445SOL    HW187168  11.308   7.409   6.052
28445SOL    HW287169  11.360   7.517   6.144
28446SOL     OW87170   9.930  12.533   3.387
28446SOL    HW187171   9.847  12.522   3.432
28446SOL    HW287172   9.988  12.574   3.451
28447SOL     OW87173   8.063   5.616  13.982
28447SOL    HW187174   8.108   5.533  13.967
28447SOL    HW287175   8.017   5.634  13.900
28448SOL     OW87176   3.922  14.365  14.224
28448SOL    HW187177   3.921  14.319  14.140
28448SOL    HW287178   4.003  14.415  14.223
28449SOL     OW87179   7.717   1.170  11.275
28449SOL    HW187180   7.703   1.110  11.349
28449SOL    HW287181   7.777   1.123  11.218
28450SOL     OW87182   7.012  11.935   5.793
28450SOL    HW187183   7.089  11.992   5.793
28450SOL    HW287184   7.004  11.906   5.884
28451SOL     OW87185   9.934   9.879   1.676
28451SOL    HW187186   9.888   9.964   1.675
28451SOL    HW287187  10.023   9.900   1.647
28452SOL     OW87188   3.875   3.555   4.652
28452SOL    HW187189   3.861   3.471   4.696
28452SOL    HW287190   3.792   3.573   4.608
28453SOL     OW87191   6.510  14.797   0.149
28453SOL    HW187192   6.564  14.853   0.094
28453SOL    HW287193   6.552  14.801   0.235
28454SOL     OW87194  11.452  13.618   6.283
28454SOL    HW187195  11.442  13.677   6.358
28454SOL    HW287196  11.370  13.626   6.235
28455SOL     OW87197   2.909  12.943   1.677
28455SOL    HW187198   2.890  12.941   1.771
28455SOL    HW287199   2.985  12.885   1.668
28456SOL     OW87200   8.526   8.411   1.393
28456SOL    HW187201   8.442   8.373   1.418
28456SOL    HW287202   8.571   8.426   1.477
28457SOL     OW87203  14.760  14.751   3.968
28457SOL    HW187204  14.844  14.737   4.010
28457SOL    HW287205  14.721  14.664   3.961
28458SOL     OW87206   1.025   9.822   9.123
28458SOL    HW187207   1.091   9.871   9.075
28458SOL    HW287208   0.954   9.807   9.060
28459SOL     OW87209   9.795   4.495   3.769
28459SOL    HW187210   9.811   4.442   3.691
28459SOL    HW287211   9.700   4.491   3.781
28460SOL     OW87212   4.634   7.980   8.493
28460SOL    HW187213   4.696   7.962   8.422
28460SOL    HW287214   4.657   8.067   8.523
28461SOL     OW87215   5.029   9.673  12.774
28461SOL    HW187216   5.010   9.766  12.784
28461SOL    HW287217   5.100   9.670  12.710
28462SOL     OW87218   4.728   4.805  11.999
28462SOL    HW187219   4.716   4.892  12.036
28462SOL    HW287220   4.704   4.744  12.069
28463SOL     OW87221   8.499   9.476   5.952
28463SOL    HW187222   8.522   9.405   5.892
28463SOL    HW287223   8.425   9.520   5.910
28464SOL     OW87224   1.612   3.672   1.895
28464SOL    HW187225   1.625   3.761   1.863
28464SOL    HW287226   1.639   3.675   1.987
28465SOL     OW87227  13.869  13.326   9.899
28465SOL    HW187228  13.927  13.277   9.958
28465SOL    HW287229  13.781  13.304   9.928
28466SOL     OW87230  13.757   5.898   1.173
28466SOL    HW187231  13.814   5.944   1.110
28466SOL    HW287232  13.676   5.884   1.125
28467SOL     OW87233   5.211   7.169   1.938
28467SOL    HW187234   5.288   7.176   1.994
28467SOL    HW287235   5.214   7.078   1.906
28468SOL     OW87236  13.665   6.108   1.317
28468SOL    HW187237  13.749   6.149   1.336
28468SOL    HW287238  13.687   6.032   1.263
28469SOL     OW87239   7.144   4.281  13.652
28469SOL    HW187240   7.169   4.353  13.595
28469SOL    HW287241   7.206   4.211  13.632
28470SOL     OW87242   2.057   4.161  13.361
28470SOL    HW187243   2.095   4.111  13.288
28470SOL    HW287244   2.063   4.102  13.436
28471SOL     OW87245   7.424   4.223   2.446
28471SOL    HW187246   7.442   4.282   2.372
28471SOL    HW287247   7.429   4.135   2.408
28472SOL     OW87248  12.906  10.455   8.421
28472SOL    HW187249  12.927  10.361   8.423
28472SOL    HW287250  12.879  10.471   8.330
28473SOL     OW87251  14.190  14.752   6.876
28473SOL    HW187252  14.189  14.844   6.852
28473SOL    HW287253  14.194  14.705   6.793
28474SOL     OW87254   2.583  11.973  13.222
28474SOL    HW187255   2.555  12.053  13.176
28474SOL    HW287256   2.662  11.946  13.176
28475SOL     OW87257   0.732   2.288   1.593
28475SOL    HW187258   0.752   2.304   1.501
28475SOL    HW287259   0.818   2.274   1.633
28476SOL     OW87260   7.089  11.404   0.997
28476SOL    HW187261   7.068  11.423   1.089
28476SOL    HW287262   7.074  11.487   0.952
28477SOL     OW87263   7.784  14.018   9.102
28477SOL    HW187264   7.843  14.087   9.070
28477SOL    HW287265   7.838  13.939   9.102
28478SOL     OW87266   6.158   1.495  13.342
28478SOL    HW187267   6.088   1.559  13.330
28478SOL    HW287268   6.120   1.412  13.315
28479SOL     OW87269   0.706  13.352  12.268
28479SOL    HW187270   0.752  13.295  12.330
28479SOL    HW287271   0.755  13.434  12.270
28480SOL     OW87272   1.110   0.241   5.721
28480SOL    HW187273   1.143   0.283   5.642
28480SOL    HW287274   1.081   0.313   5.777
28481SOL     OW87275   0.892   3.953  12.646
28481SOL    HW187276   0.849   4.003  12.577
28481SOL    HW287277   0.896   4.013  12.720
28482SOL     OW87278  11.998   1.625  10.549
28482SOL    HW187279  12.011   1.594  10.459
28482SOL    HW287280  12.037   1.557  10.604
28483SOL     OW87281  11.087   5.350   8.584
28483SOL    HW187282  11.163   5.295   8.565
28483SOL    HW287283  11.049   5.311   8.663
28484SOL     OW87284   9.767  11.089   8.331
28484SOL    HW187285   9.838  11.150   8.353
28484SOL    HW287286   9.707  11.095   8.405
28485SOL     OW87287  13.906   5.698   6.916
28485SOL    HW187288  13.904   5.688   7.011
28485SOL    HW287289  13.850   5.628   6.883
28486SOL     OW87290   3.348   7.331  10.227
28486SOL    HW187291   3.413   7.318  10.159
28486SOL    HW287292   3.320   7.422  10.216
28487SOL     OW87293   9.334   2.391   1.995
28487SOL    HW187294   9.360   2.324   1.931
28487SOL    HW287295   9.401   2.387   2.063
28488SOL     OW87296   6.285   5.233   8.249
28488SOL    HW187297   6.296   5.252   8.155
28488SOL    HW287298   6.200   5.190   8.255
28489SOL     OW87299   5.244   9.996   2.842
28489SOL    HW187300   5.236   9.919   2.785
28489SOL    HW287301   5.227  10.070   2.784
28490SOL     OW87302   5.489  11.789   4.064
28490SOL    HW187303   5.393  11.794   4.068
28490SOL    HW287304   5.517  11.880   4.059
28491SOL     OW87305   3.308   6.576   4.777
28491SOL    HW187306   3.218   6.555   4.801
28491SOL    HW287307   3.317   6.669   4.796
28492SOL     OW87308  10.645   8.172   7.760
28492SOL    HW187309  10.716   8.226   7.794
28492SOL    HW287310  10.685   8.087   7.742
28493SOL     OW87311   1.126   4.388  13.459
28493SOL    HW187312   1.033   4.372  13.452
28493SOL    HW287313   1.133   4.484  13.466
28494SOL     OW87314  14.308  14.649  11.270
28494SOL    HW187315  14.217  14.662  11.295
28494SOL    HW287316  14.348  14.605  11.345
28495SOL     OW87317  14.869   8.268   7.328
28495SOL    HW187318  14.804   8.308   7.270
28495SOL    HW287319   0.077   8.270   7.277
28496SOL     OW87320  13.279  13.819   3.766
28496SOL    HW187321  13.337  13.749   3.797
28496SOL    HW287322  13.191  13.785   3.780
28497SOL     OW87323   8.275  14.731  13.541
28497SOL    HW187324   8.182  14.735  13.565
28497SOL    HW287325   8.315  14.804  13.587
28498SOL     OW87326   0.770   0.511   6.905
28498SOL    HW187327   0.826   0.576   6.948
28498SOL    HW287328   0.784   0.527   6.811
28499SOL     OW87329  11.043   2.251   5.107
28499SOL    HW187330  10.996   2.188   5.162
28499SOL    HW287331  11.077   2.316   5.168
28500SOL     OW87332  13.901   0.967   9.422
28500SOL    HW187333  13.935   1.050   9.387
28500SOL    HW287334  13.810   0.986   9.444
28501SOL     OW87335   5.222   8.598  10.489
28501SOL    HW187336   5.284   8.669  10.471
28501SOL    HW287337   5.263   8.548  10.560
28502SOL     OW87338  10.860   0.364   4.245
28502SOL    HW187339  10.918   0.342   4.318
28502SOL    HW287340  10.919   0.397   4.177
28503SOL     OW87341   0.012  13.683  11.269
28503SOL    HW187342   0.030  13.766  11.313
28503SOL    HW287343   0.062  13.687  11.187
28504SOL     OW87344   5.900  13.842   3.865
28504SOL    HW187345   5.880  13.930   3.835
28504SOL    HW287346   5.988  13.850   3.903
28505SOL     OW87347   2.886   6.016  12.450
28505SOL    HW187348   2.905   6.062  12.532
28505SOL    HW287349   2.919   6.074  12.382
28506SOL     OW87350   3.662   2.736   7.814
28506SOL    HW187351   3.736   2.732   7.875
28506SOL    HW287352   3.624   2.648   7.818
28507SOL     OW87353  11.161   4.148  11.873
28507SOL    HW187354  11.168   4.244  11.876
28507SOL    HW287355  11.120   4.130  11.789
28508SOL     OW87356   1.428  11.242   0.969
28508SOL    HW187357   1.508  11.287   0.940
28508SOL    HW287358   1.357  11.291   0.928
28509SOL     OW87359   9.614  12.893  13.159
28509SOL    HW187360   9.705  12.893  13.130
28509SOL    HW287361   9.563  12.898  13.078
28510SOL     OW87362  10.628   5.946   0.164
28510SOL    HW187363  10.610   6.032   0.125
28510SOL    HW287364  10.547   5.923   0.209
28511SOL     OW87365  12.509   8.173  10.951
28511SOL    HW187366  12.430   8.143  10.997
28511SOL    HW287367  12.485   8.259  10.917
28512SOL     OW87368   3.694  10.582   8.503
28512SOL    HW187369   3.666  10.566   8.413
28512SOL    HW287370   3.640  10.655   8.532
28513SOL     OW87371   1.232   7.395   2.158
28513SOL    HW187372   1.146   7.396   2.116
28513SOL    HW287373   1.236   7.477   2.208
28514SOL     OW87374   8.798  13.538  12.115
28514SOL    HW187375   8.871  13.516  12.173
28514SOL    HW287376   8.755  13.613  12.158
28515SOL     OW87377   2.138   0.723   1.344
28515SOL    HW187378   2.167   0.703   1.255
28515SOL    HW287379   2.054   0.766   1.333
28516SOL     OW87380   5.227   7.272   9.349
28516SOL    HW187381   5.302   7.296   9.404
28516SOL    HW287382   5.247   7.182   9.321
28517SOL     OW87383   4.023  13.855  12.844
28517SOL    HW187384   4.010  13.769  12.803
28517SOL    HW287385   4.020  13.917  12.772
28518SOL     OW87386  12.314   1.453   9.887
28518SOL    HW187387  12.304   1.430   9.795
28518SOL    HW287388  12.277   1.541   9.894
28519SOL     OW87389   9.080  10.826   3.841
28519SOL    HW187390   8.999  10.802   3.886
28519SOL    HW287391   9.074  10.921   3.831
28520SOL     OW87392  11.556  11.766   5.891
28520SOL    HW187393  11.572  11.712   5.968
28520SOL    HW287394  11.642  11.801   5.868
28521SOL     OW87395   4.217   9.359  10.888
28521SOL    HW187396   4.174   9.274  10.887
28521SOL    HW287397   4.209   9.389  10.979
28522SOL     OW87398   9.676   7.450   7.244
28522SOL    HW187399   9.751   7.503   7.271
28522SOL    HW287400   9.713   7.388   7.180
28523SOL     OW87401   5.547   3.051  14.142
28523SOL    HW187402   5.466   3.009  14.173
28523SOL    HW287403   5.564   3.009  14.058
28524SOL     OW87404  13.375   7.477  11.670
28524SOL    HW187405  13.357   7.570  11.657
28524SOL    HW287406  13.465   7.466  11.637
28525SOL     OW87407  14.019  11.080   7.150
28525SOL    HW187408  14.020  10.997   7.197
28525SOL    HW287409  13.958  11.065   7.077
28526SOL     OW87410   9.812   0.009   5.395
28526SOL    HW187411   9.740   0.006   5.458
28526SOL    HW287412   9.886   0.043   5.445
28527SOL     OW87413  12.801   5.308   7.481
28527SOL    HW187414  12.766   5.251   7.549
28527SOL    HW287415  12.742   5.297   7.407
28528SOL     OW87416   8.209  12.348  12.484
28528SOL    HW187417   8.156  12.296  12.545
28528SOL    HW287418   8.225  12.289  12.410
28529SOL     OW87419  13.657   7.801   1.321
28529SOL    HW187420  13.696   7.814   1.235
28529SOL    HW287421  13.608   7.719   1.312
28530SOL     OW87422   7.357   6.031   0.283
28530SOL    HW187423   7.441   6.014   0.241
28530SOL    HW287424   7.332   6.118   0.252
28531SOL     OW87425   5.589  14.862   2.121
28531SOL    HW187426   5.629  14.776   2.127
28531SOL    HW287427   5.495  14.845   2.129
28532SOL     OW87428   4.714   1.036   0.833
28532SOL    HW187429   4.635   1.037   0.779
28532SOL    HW287430   4.685   1.067   0.919
28533SOL     OW87431   4.765   7.823  10.684
28533SOL    HW187432   4.719   7.893  10.730
28533SOL    HW287433   4.818   7.868  10.618
28534SOL     OW87434  10.066   5.416   2.525
28534SOL    HW187435  10.003   5.382   2.589
28534SOL    HW287436  10.150   5.378   2.552
28535SOL     OW87437  10.108  11.522   6.501
28535SOL    HW187438  10.064  11.558   6.578
28535SOL    HW287439  10.082  11.579   6.429
28536SOL     OW87440   5.100   8.131   6.680
28536SOL    HW187441   5.186   8.120   6.721
28536SOL    HW287442   5.097   8.223   6.654
28537SOL     OW87443  12.167  11.907  13.801
28537SOL    HW187444  12.130  11.960  13.870
28537SOL    HW287445  12.227  11.847  13.846
28538SOL     OW87446   8.783   9.587  10.780
28538SOL    HW187447   8.714   9.592  10.846
28538SOL    HW287448   8.739   9.606  10.697
28539SOL     OW87449  11.210  11.776   9.879
28539SOL    HW187450  11.239  11.703   9.823
28539SOL    HW287451  11.218  11.853   9.823
28540SOL     OW87452  10.353   5.914   5.261
28540SOL    HW187453  10.388   5.924   5.172
28540SOL    HW287454  10.410   5.848   5.301
28541SOL     OW87455   8.149   7.070   8.672
28541SOL    HW187456   8.143   7.152   8.721
28541SOL    HW287457   8.183   7.007   8.735
28542SOL     OW87458  11.007   0.046  12.055
28542SOL    HW187459  10.972   0.122  12.100
28542SOL    HW287460  11.092   0.031  12.096
28543SOL     OW87461   4.055  14.591   5.101
28543SOL    HW187462   4.106  14.532   5.046
28543SOL    HW287463   3.974  14.542   5.120
28544SOL     OW87464  13.372  10.967   0.817
28544SOL    HW187465  13.284  10.929   0.815
28544SOL    HW287466  13.431  10.892   0.825
28545SOL     OW87467   2.001   5.989  10.731
28545SOL    HW187468   1.959   6.075  10.725
28545SOL    HW287469   2.004   5.970  10.825
28546SOL     OW87470   6.498   6.796   8.639
28546SOL    HW187471   6.443   6.750   8.702
28546SOL    HW287472   6.441   6.864   8.603
28547SOL     OW87473   8.238  13.067   6.516
28547SOL    HW187474   8.231  13.030   6.428
28547SOL    HW287475   8.331  13.058   6.538
28548SOL     OW87476   2.836   1.938  12.406
28548SOL    HW187477   2.822   1.856  12.359
28548SOL    HW287478   2.748   1.971  12.424
28549SOL     OW87479   1.755   3.479   9.693
28549SOL    HW187480   1.793   3.392   9.678
28549SOL    HW287481   1.695   3.492   9.620
28550SOL     OW87482   6.143  12.627  13.711
28550SOL    HW187483   6.205  12.682  13.662
28550SOL    HW287484   6.185  12.541  13.716
28551SOL     OW87485   3.566   7.583   7.578
28551SOL    HW187486   3.568   7.501   7.628
28551SOL    HW287487   3.657   7.595   7.550
28552SOL     OW87488  13.798  14.358   8.243
28552SOL    HW187489  13.855  14.371   8.168
28552SOL    HW287490  13.847  14.393   8.317
28553SOL     OW87491  14.447   8.218   7.183
28553SOL    HW187492  14.464   8.275   7.108
28553SOL    HW287493  14.520   8.157   7.184
28554SOL     OW87494   1.423   4.170   5.013
28554SOL    HW187495   1.430   4.200   5.103
28554SOL    HW287496   1.397   4.249   4.964
28555SOL     OW87497  14.686  14.297  14.322
28555SOL    HW187498  14.625  14.366  14.349
28555SOL    HW287499  14.752  14.342  14.269
28556SOL     OW87500   0.521  10.655   9.823
28556SOL    HW187501   0.584  10.601   9.870
28556SOL    HW287502   0.436  10.627   9.856
28557SOL     OW87503   7.666   8.888   8.220
28557SOL    HW187504   7.711   8.894   8.305
28557SOL    HW287505   7.650   8.980   8.196
28558SOL     OW87506   7.590   9.619   9.672
28558SOL    HW187507   7.517   9.611   9.611
28558SOL    HW287508   7.585   9.709   9.703
28559SOL     OW87509   3.187   8.591   7.435
28559SOL    HW187510   3.133   8.541   7.496
28559SOL    HW287511   3.276   8.565   7.455
28560SOL     OW87512   3.451  12.791  10.681
28560SOL    HW187513   3.449  12.790  10.586
28560SOL    HW287514   3.544  12.799  10.703
28561SOL     OW87515   8.708  13.386  11.184
28561SOL    HW187516   8.655  13.446  11.132
28561SOL    HW287517   8.683  13.404  11.275
28562SOL     OW87518   3.694  14.751   4.363
28562SOL    HW187519   3.770  14.711   4.406
28562SOL    HW287520   3.717  14.844   4.356
28563SOL     OW87521   1.285  13.392  14.625
28563SOL    HW187522   1.227  13.439  14.565
28563SOL    HW287523   1.246  13.406  14.711
28564SOL     OW87524  11.902  14.112   5.643
28564SOL    HW187525  11.912  14.021   5.616
28564SOL    HW287526  11.876  14.158   5.564
28565SOL     OW87527   6.942   7.241   3.604
28565SOL    HW187528   6.986   7.201   3.529
28565SOL    HW287529   6.849   7.227   3.588
28566SOL     OW87530   2.733   2.417  14.140
28566SOL    HW187531   2.711   2.467  14.218
28566SOL    HW287532   2.735   2.482  14.070
28567SOL     OW87533   2.812   2.260  13.923
28567SOL    HW187534   2.750   2.283  13.992
28567SOL    HW287535   2.758   2.252  13.844
28568SOL     OW87536   5.202  13.175   9.424
28568SOL    HW187537   5.171  13.245   9.366
28568SOL    HW287538   5.283  13.208   9.462
28569SOL     OW87539  10.198   9.015   0.857
28569SOL    HW187540  10.242   8.930   0.862
28569SOL    HW287541  10.202   9.050   0.945
28570SOL     OW87542   6.633  13.071   7.091
28570SOL    HW187543   6.630  13.090   6.997
28570SOL    HW287544   6.726  13.076   7.113
28571SOL     OW87545   7.160   9.888   3.069
28571SOL    HW187546   7.084   9.935   3.035
28571SOL    HW287547   7.165   9.809   3.015
28572SOL     OW87548   3.478  13.605   9.928
28572SOL    HW187549   3.468  13.516   9.896
28572SOL    HW287550   3.550  13.641   9.875
28573SOL     OW87551   4.203  13.160   0.842
28573SOL    HW187552   4.126  13.143   0.895
28573SOL    HW287553   4.230  13.248   0.866
28574SOL     OW87554   5.942   3.352   2.216
28574SOL    HW187555   5.915   3.383   2.303
28574SOL    HW287556   6.005   3.418   2.186
28575SOL     OW87557   9.885  11.753   3.249
28575SOL    HW187558   9.817  11.819   3.247
28575SOL    HW287559   9.951  11.783   3.187
28576SOL     OW87560   3.778  14.840   3.372
28576SOL    HW187561   3.822  14.756   3.384
28576SOL    HW287562   3.748  14.864   3.459
28577SOL     OW87563  12.352  11.127  11.218
28577SOL    HW187564  12.308  11.042  11.211
28577SOL    HW287565  12.317  11.179  11.146
28578SOL     OW87566  11.867   7.158  13.379
28578SOL    HW187567  11.813   7.236  13.365
28578SOL    HW287568  11.956   7.188  13.363
28579SOL     OW87569   6.948   6.473   0.428
28579SOL    HW187570   6.996   6.458   0.510
28579SOL    HW287571   6.862   6.434   0.444
28580SOL     OW87572  13.518   0.552  13.148
28580SOL    HW187573  13.451   0.483  13.141
28580SOL    HW287574  13.580   0.518  13.212
28581SOL     OW87575  13.121   1.783   8.069
28581SOL    HW187576  13.029   1.757   8.069
28581SOL    HW287577  13.158   1.735   7.994
28582SOL     OW87578   8.087  11.992  10.964
28582SOL    HW187579   7.996  12.009  10.988
28582SOL    HW287580   8.120  11.934  11.033
28583SOL     OW87581  13.118   1.750  10.053
28583SOL    HW187582  13.096   1.812   9.983
28583SOL    HW287583  13.034   1.734  10.097
28584SOL     OW87584  11.064   9.644   0.629
28584SOL    HW187585  11.114   9.613   0.553
28584SOL    HW287586  11.084   9.737   0.634
28585SOL     OW87587  10.823   1.105   7.736
28585SOL    HW187588  10.750   1.063   7.783
28585SOL    HW287589  10.901   1.078   7.784
28586SOL     OW87590   3.813   2.668   0.232
28586SOL    HW187591   3.773   2.731   0.172
28586SOL    HW287592   3.858   2.721   0.297
28587SOL     OW87593  11.482  11.931   9.864
28587SOL    HW187594  11.565  11.938   9.816
28587SOL    HW287595  11.415  11.936   9.797
28588SOL     OW87596   1.605   4.555   1.990
28588SOL    HW187597   1.581   4.624   1.927
28588SOL    HW287598   1.521   4.520   2.019
28589SOL     OW87599   3.122   2.102   6.353
28589SOL    HW187600   3.101   2.096   6.446
28589SOL    HW287601   3.211   2.138   6.351
28590SOL     OW87602  11.415   6.356   4.836
28590SOL    HW187603  11.324   6.329   4.839
28590SOL    HW287604  11.418   6.437   4.886
28591SOL     OW87605   0.623  11.785  13.010
28591SOL    HW187606   0.704  11.782  12.960
28591SOL    HW287607   0.606  11.694  13.035
28592SOL     OW87608  10.710   9.680  11.608
28592SOL    HW187609  10.651   9.755  11.599
28592SOL    HW287610  10.798   9.718  11.608
28593SOL     OW87611   1.608   8.366  14.660
28593SOL    HW187612   1.643   8.421  14.590
28593SOL    HW287613   1.569   8.291  14.614
28594SOL     OW87614   0.969   3.813  10.342
28594SOL    HW187615   1.029   3.766  10.400
28594SOL    HW287616   0.978   3.905  10.368
28595SOL     OW87617   5.744   0.354   3.823
28595SOL    HW187618   5.786   0.268   3.835
28595SOL    HW287619   5.740   0.390   3.912
28596SOL     OW87620   9.987   9.017   7.369
28596SOL    HW187621   9.979   9.111   7.378
28596SOL    HW287622  10.053   9.005   7.300
28597SOL     OW87623   5.070   2.429   1.055
28597SOL    HW187624   5.107   2.461   1.138
28597SOL    HW287625   5.144   2.433   0.994
28598SOL     OW87626   8.011  10.805   2.659
28598SOL    HW187627   7.973  10.742   2.598
28598SOL    HW287628   7.938  10.832   2.714
28599SOL     OW87629   6.539   4.942   3.128
28599SOL    HW187630   6.571   5.005   3.063
28599SOL    HW287631   6.491   4.995   3.191
28600SOL     OW87632  11.272  13.349   7.837
28600SOL    HW187633  11.280  13.403   7.916
28600SOL    HW287634  11.220  13.401   7.776
28601SOL     OW87635   5.752  14.363   8.560
28601SOL    HW187636   5.667  14.405   8.574
28601SOL    HW287637   5.765  14.309   8.637
28602SOL     OW87638   8.160   4.998   5.075
28602SOL    HW187639   8.090   4.978   5.137
28602SOL    HW287640   8.119   4.988   4.989
28603SOL     OW87641   5.020   0.671   4.903
28603SOL    HW187642   5.088   0.672   4.970
28603SOL    HW287643   5.024   0.583   4.866
28604SOL     OW87644   5.781   7.228  12.253
28604SOL    HW187645   5.856   7.177  12.223
28604SOL    HW287646   5.791   7.313  12.211
28605SOL     OW87647  10.960   8.626  14.269
28605SOL    HW187648  10.961   8.702  14.328
28605SOL    HW287649  10.899   8.651  14.200
28606SOL     OW87650   4.769  12.511   2.524
28606SOL    HW187651   4.751  12.500   2.617
28606SOL    HW287652   4.864  12.501   2.516
28607SOL     OW87653   0.427  10.824   2.597
28607SOL    HW187654   0.516  10.788   2.592
28607SOL    HW287655   0.379  10.777   2.529
28608SOL     OW87656   5.596   0.745   4.618
28608SOL    HW187657   5.653   0.676   4.583
28608SOL    HW287658   5.527   0.696   4.664
28609SOL     OW87659   8.973   8.699  10.524
28609SOL    HW187660   8.960   8.630  10.588
28609SOL    HW287661   8.977   8.779  10.576
28610SOL     OW87662  14.028  13.109   1.927
28610SOL    HW187663  14.113  13.139   1.892
28610SOL    HW287664  14.010  13.029   1.879
28611SOL     OW87665  10.391   0.400   1.481
28611SOL    HW187666  10.379   0.326   1.540
28611SOL    HW287667  10.482   0.393   1.452
28612SOL     OW87668   0.912   5.443  11.429
28612SOL    HW187669   0.895   5.467  11.338
28612SOL    HW287670   0.848   5.494  11.479
28613SOL     OW87671   0.866   0.674  13.639
28613SOL    HW187672   0.795   0.688  13.576
28613SOL    HW287673   0.936   0.635  13.588
28614SOL     OW87674   4.825   7.043   5.459
28614SOL    HW187675   4.844   6.983   5.387
28614SOL    HW287676   4.768   7.109   5.420
28615SOL     OW87677   6.745   5.962  10.961
28615SOL    HW187678   6.798   6.039  10.980
28615SOL    HW287679   6.808   5.895  10.937
28616SOL     OW87680   8.249  14.859   0.171
28616SOL    HW187681   8.271  14.780   0.123
28616SOL    HW287682   8.198  14.828   0.246
28617SOL     OW87683   1.104   2.653   3.612
28617SOL    HW187684   1.192   2.628   3.638
28617SOL    HW287685   1.117   2.706   3.533
28618SOL     OW87686   6.535  10.049   4.731
28618SOL    HW187687   6.444  10.022   4.719
28618SOL    HW287688   6.544  10.062   4.825
28619SOL     OW87689   2.968   5.429   2.138
28619SOL    HW187690   2.926   5.375   2.206
28619SOL    HW287691   2.905   5.429   2.066
28620SOL     OW87692   1.549   2.875  10.978
28620SOL    HW187693   1.459   2.887  11.009
28620SOL    HW287694   1.595   2.835  11.052
28621SOL     OW87695   7.393   6.519   1.670
28621SOL    HW187696   7.372   6.543   1.760
28621SOL    HW287697   7.396   6.603   1.623
28622SOL     OW87698   7.243  13.480   1.221
28622SOL    HW187699   7.307  13.538   1.261
28622SOL    HW287700   7.204  13.433   1.295
28623SOL     OW87701   9.561   2.583   7.294
28623SOL    HW187702   9.619   2.614   7.224
28623SOL    HW287703   9.473   2.594   7.258
28624SOL     OW87704   7.777  11.721  14.584
28624SOL    HW187705   7.823  11.799  14.617
28624SOL    HW287706   7.686  11.735  14.610
28625SOL     OW87707   4.527   0.713  10.948
28625SOL    HW187708   4.482   0.786  10.906
28625SOL    HW287709   4.612   0.710  10.905
28626SOL     OW87710   5.149  11.328   9.359
28626SOL    HW187711   5.224  11.295   9.409
28626SOL    HW287712   5.173  11.417   9.336
28627SOL     OW87713   1.009  10.678  14.653
28627SOL    HW187714   1.077  10.702  14.716
28627SOL    HW287715   1.001  10.583  14.661
28628SOL     OW87716   2.980  13.163   6.374
28628SOL    HW187717   3.010  13.215   6.448
28628SOL    HW287718   2.911  13.216   6.333
28629SOL     OW87719   1.827   2.057  11.419
28629SOL    HW187720   1.881   1.987  11.456
28629SOL    HW287721   1.869   2.078  11.336
28630SOL     OW87722   7.914   6.322  13.378
28630SOL    HW187723   7.857   6.250  13.351
28630SOL    HW287724   7.889   6.340  13.468
28631SOL     OW87725   6.861   5.573   5.872
28631SOL    HW187726   6.842   5.496   5.927
28631SOL    HW287727   6.786   5.579   5.813
28632SOL     OW87728   1.501   1.995  14.093
28632SOL    HW187729   1.414   2.033  14.080
28632SOL    HW287730   1.557   2.039  14.028
28633SOL     OW87731   8.908   7.458   4.755
28633SOL    HW187732   8.852   7.429   4.683
28633SOL    HW287733   8.989   7.407   4.745
28634SOL     OW87734   8.574  13.651  11.883
28634SOL    HW187735   8.566  13.621  11.973
28634SOL    HW287736   8.661  13.692  11.879
28635SOL     OW87737  11.897   7.038   5.277
28635SOL    HW187738  11.946   6.956   5.265
28635SOL    HW287739  11.963   7.103   5.297
28636SOL     OW87740   2.311  10.684   8.141
28636SOL    HW187741   2.323  10.736   8.062
28636SOL    HW287742   2.400  10.667   8.172
28637SOL     OW87743   4.581  14.142   9.286
28637SOL    HW187744   4.522  14.217   9.273
28637SOL    HW287745   4.584  14.130   9.380
28638SOL     OW87746  14.648  14.700   6.297
28638SOL    HW187747  14.675  14.773   6.352
28638SOL    HW287748  14.699  14.625   6.329
28639SOL     OW87749  10.263   7.968  10.677
28639SOL    HW187750  10.253   7.946  10.584
28639SOL    HW287751  10.198   8.037  10.692
28640SOL     OW87752   4.474   7.614   7.453
28640SOL    HW187753   4.436   7.674   7.389
28640SOL    HW287754   4.425   7.532   7.440
28641SOL     OW87755   5.209   5.801   3.401
28641SOL    HW187756   5.136   5.741   3.419
28641SOL    HW287757   5.176   5.858   3.331
28642SOL     OW87758   1.428   7.558  13.386
28642SOL    HW187759   1.460   7.469  13.400
28642SOL    HW287760   1.378   7.552  13.305
28643SOL     OW87761   4.084  10.765  10.049
28643SOL    HW187762   4.039  10.843  10.018
28643SOL    HW287763   4.106  10.783  10.140
28644SOL     OW87764   5.677  14.512   9.475
28644SOL    HW187765   5.595  14.560   9.480
28644SOL    HW287766   5.665  14.436   9.532
28645SOL     OW87767  12.704   3.930   7.488
28645SOL    HW187768  12.622   3.900   7.449
28645SOL    HW287769  12.731   3.859   7.545
28646SOL     OW87770  10.621   5.072   0.062
28646SOL    HW187771  10.667   5.154   0.047
28646SOL    HW287772  10.545   5.097   0.114
28647SOL     OW87773   2.475   9.893   0.445
28647SOL    HW187774   2.507   9.940   0.368
28647SOL    HW287775   2.525   9.929   0.518
28648SOL     OW87776   9.056   5.352   5.626
28648SOL    HW187777   9.013   5.386   5.705
28648SOL    HW287778   9.015   5.399   5.554
28649SOL     OW87779   8.562   4.080   1.098
28649SOL    HW187780   8.514   4.020   1.155
28649SOL    HW287781   8.534   4.167   1.125
28650SOL     OW87782   6.767  14.296   6.923
28650SOL    HW187783   6.812  14.218   6.956
28650SOL    HW287784   6.689  14.262   6.879
28651SOL     OW87785   1.901   1.428   3.953
28651SOL    HW187786   1.849   1.437   3.874
28651SOL    HW287787   1.907   1.334   3.968
28652SOL     OW87788   0.221   2.702   6.481
28652SOL    HW187789   0.211   2.762   6.407
28652SOL    HW287790   0.303   2.730   6.523
28653SOL     OW87791   3.450  14.642   4.339
28653SOL    HW187792   3.537  14.675   4.363
28653SOL    HW287793   3.399  14.720   4.317
28654SOL     OW87794   3.724   6.619   5.219
28654SOL    HW187795   3.735   6.660   5.305
28654SOL    HW287796   3.709   6.527   5.239
28655SOL     OW87797   7.019   3.576  12.519
28655SOL    HW187798   6.931   3.550  12.493
28655SOL    HW287799   7.063   3.493  12.540
28656SOL     OW87800   1.483   7.409   8.639
28656SOL    HW187801   1.560   7.440   8.688
28656SOL    HW287802   1.483   7.463   8.560
28657SOL     OW87803  13.492  12.506  10.993
28657SOL    HW187804  13.518  12.545  10.910
28657SOL    HW287805  13.397  12.499  10.988
28658SOL     OW87806   9.211  10.903   8.916
28658SOL    HW187807   9.132  10.949   8.885
28658SOL    HW287808   9.198  10.812   8.889
28659SOL     OW87809  10.566  11.157   8.061
28659SOL    HW187810  10.547  11.248   8.040
28659SOL    HW287811  10.551  11.151   8.156
28660SOL     OW87812  10.011   8.716  11.698
28660SOL    HW187813  10.048   8.654  11.760
28660SOL    HW287814  10.021   8.801  11.740
28661SOL     OW87815   2.014   7.861   3.375
28661SOL    HW187816   2.039   7.929   3.437
28661SOL    HW287817   2.004   7.782   3.427
28662SOL     OW87818  11.416  10.002  14.713
28662SOL    HW187819  11.367  10.063  14.769
28662SOL    HW287820  11.390   9.915  14.744
28663SOL     OW87821  12.736  12.926  13.645
28663SOL    HW187822  12.750  12.864  13.574
28663SOL    HW287823  12.764  12.880  13.724
28664SOL     OW87824   4.397  11.194  10.253
28664SOL    HW187825   4.416  11.233  10.338
28664SOL    HW287826   4.444  11.111  10.253
28665SOL     OW87827   9.747  11.963   3.282
28665SOL    HW187828   9.652  11.958   3.279
28665SOL    HW287829   9.767  12.055   3.298
28666SOL     OW87830   8.616   9.765   6.544
28666SOL    HW187831   8.692   9.799   6.592
28666SOL    HW287832   8.541   9.784   6.601
28667SOL     OW87833   1.444  13.150   9.772
28667SOL    HW187834   1.535  13.122   9.777
28667SOL    HW287835   1.406  13.096   9.702
28668SOL     OW87836   7.303   3.215   6.230
28668SOL    HW187837   7.298   3.260   6.314
28668SOL    HW287838   7.325   3.284   6.167
28669SOL     OW87839   9.427   3.809   0.212
28669SOL    HW187840   9.470   3.729   0.181
28669SOL    HW287841   9.459   3.820   0.302
28670SOL     OW87842  13.155   7.706   3.047
28670SOL    HW187843  13.229   7.734   2.994
28670SOL    HW287844  13.077   7.737   3.001
28671SOL     OW87845   5.159   1.545  12.098
28671SOL    HW187846   5.181   1.452  12.107
28671SOL    HW287847   5.064   1.546  12.084
28672SOL     OW87848  14.778   8.222   3.844
28672SOL    HW187849  14.753   8.174   3.924
28672SOL    HW287850  14.761   8.160   3.773
28673SOL     OW87851   9.724  12.185   0.216
28673SOL    HW187852   9.650  12.195   0.277
28673SOL    HW287853   9.712  12.255   0.152
28674SOL     OW87854   2.976  14.081   5.468
28674SOL    HW187855   2.952  14.139   5.396
28674SOL    HW287856   2.927  14.001   5.451
28675SOL     OW87857  13.496   0.849  13.294
28675SOL    HW187858  13.520   0.854  13.202
28675SOL    HW287859  13.553   0.781  13.330
28676SOL     OW87860   2.119   8.522   5.031
28676SOL    HW187861   2.045   8.583   5.033
28676SOL    HW287862   2.179   8.559   4.967
28677SOL     OW87863   2.417  10.859   6.214
28677SOL    HW187864   2.466  10.853   6.296
28677SOL    HW287865   2.370  10.943   6.220
28678SOL     OW87866   9.878  10.605   3.859
28678SOL    HW187867   9.826  10.639   3.932
28678SOL    HW287868   9.896  10.514   3.884
28679SOL     OW87869   7.882  10.828   6.635
28679SOL    HW187870   7.841  10.850   6.551
28679SOL    HW287871   7.809  10.804   6.692
28680SOL     OW87872   8.734   3.687   3.087
28680SOL    HW187873   8.764   3.630   3.017
28680SOL    HW287874   8.654   3.646   3.119
28681SOL     OW87875  14.128   0.092   7.811
28681SOL    HW187876  14.211   0.053   7.784
28681SOL    HW287877  14.108   0.155   7.742
28682SOL     OW87878   8.157  14.532   4.421
28682SOL    HW187879   8.080  14.583   4.397
28682SOL    HW287880   8.136  14.443   4.394
28683SOL     OW87881   3.677   2.816   1.309
28683SOL    HW187882   3.648   2.726   1.316
28683SOL    HW287883   3.758   2.819   1.360
28684SOL     OW87884   8.805   2.419   5.724
28684SOL    HW187885   8.721   2.400   5.683
28684SOL    HW287886   8.838   2.496   5.678
28685SOL     OW87887   9.436   2.741  12.279
28685SOL    HW187888   9.401   2.813  12.226
28685SOL    HW287889   9.513   2.779  12.322
28686SOL     OW87890   4.968  10.814   1.600
28686SOL    HW187891   4.982  10.853   1.687
28686SOL    HW287892   5.041  10.753   1.589
28687SOL     OW87893   5.763   9.424   9.589
28687SOL    HW187894   5.784   9.516   9.602
28687SOL    HW287895   5.668   9.419   9.598
28688SOL     OW87896  13.691   8.059   2.772
28688SOL    HW187897  13.704   7.978   2.821
28688SOL    HW287898  13.669   8.124   2.839
28689SOL     OW87899   2.476  12.773  12.707
28689SOL    HW187900   2.541  12.784  12.776
28689SOL    HW287901   2.437  12.687  12.723
28690SOL     OW87902  11.851  12.809   3.562
28690SOL    HW187903  11.892  12.791   3.646
28690SOL    HW287904  11.783  12.742   3.553
28691SOL     OW87905   9.886   8.673  11.189
28691SOL    HW187906   9.884   8.699  11.096
28691SOL    HW287907   9.797   8.641  11.206
28692SOL     OW87908   9.263   5.750   9.140
28692SOL    HW187909   9.321   5.825   9.150
28692SOL    HW287910   9.268   5.705   9.225
28693SOL     OW87911   9.399   2.835   9.233
28693SOL    HW187912   9.425   2.802   9.319
28693SOL    HW287913   9.311   2.800   9.219
28694SOL     OW87914  10.019  10.515  11.572
28694SOL    HW187915  10.080  10.447  11.597
28694SOL    HW287916   9.953  10.470  11.519
28695SOL     OW87917  12.678  10.720  13.524
28695SOL    HW187918  12.594  10.702  13.482
28695SOL    HW287919  12.676  10.813  13.543
28696SOL     OW87920   8.130   6.805   4.490
28696SOL    HW187921   8.173   6.784   4.407
28696SOL    HW287922   8.083   6.726   4.514
28697SOL     OW87923   6.589   7.296   0.283
28697SOL    HW187924   6.553   7.219   0.239
28697SOL    HW287925   6.683   7.278   0.291
28698SOL     OW87926   7.861   2.609  13.387
28698SOL    HW187927   7.806   2.577  13.315
28698SOL    HW287928   7.854   2.540  13.454
28699SOL     OW87929   0.631  12.788   8.587
28699SOL    HW187930   0.706  12.809   8.532
28699SOL    HW287931   0.653  12.825   8.672
28700SOL     OW87932   8.406   5.637   5.260
28700SOL    HW187933   8.422   5.550   5.223
28700SOL    HW287934   8.477   5.649   5.323
28701SOL     OW87935   6.478  10.059   4.118
28701SOL    HW187936   6.564  10.050   4.077
28701SOL    HW287937   6.493  10.118   4.192
28702SOL     OW87938   6.536   6.042   4.876
28702SOL    HW187939   6.555   6.134   4.858
28702SOL    HW287940   6.504   6.007   4.792
28703SOL     OW87941   4.679   4.343   4.826
28703SOL    HW187942   4.656   4.259   4.865
28703SOL    HW287943   4.597   4.392   4.825
28704SOL     OW87944   0.432   2.352  14.311
28704SOL    HW187945   0.437   2.448  14.313
28704SOL    HW287946   0.363   2.331  14.374
28705SOL     OW87947   2.464  12.918  13.639
28705SOL    HW187948   2.450  13.010  13.620
28705SOL    HW287949   2.421  12.871  13.567
28706SOL     OW87950  14.408   9.718  11.711
28706SOL    HW187951  14.448   9.804  11.707
28706SOL    HW287952  14.338   9.721  11.646
28707SOL     OW87953  12.515   4.613   2.341
28707SOL    HW187954  12.578   4.571   2.399
28707SOL    HW287955  12.459   4.542   2.309
28708SOL     OW87956   1.769   0.058   1.227
28708SOL    HW187957   1.861   0.045   1.252
28708SOL    HW287958   1.726  14.850   1.254
28709SOL     OW87959   4.857   9.162   7.665
28709SOL    HW187960   4.873   9.210   7.583
28709SOL    HW287961   4.858   9.070   7.639
28710SOL     OW87962  11.560  11.702  10.529
28710SOL    HW187963  11.483  11.756  10.510
28710SOL    HW287964  11.571  11.647  10.452
28711SOL     OW87965  11.334   1.814  13.464
28711SOL    HW187966  11.408   1.858  13.507
28711SOL    HW287967  11.374   1.763  13.394
28712SOL     OW87968   2.435  10.544   6.989
28712SOL    HW187969   2.504  10.481   6.970
28712SOL    HW287970   2.478  10.629   6.987
28713SOL     OW87971  13.499  12.348   0.327
28713SOL    HW187972  13.551  12.295   0.268
28713SOL    HW287973  13.529  12.323   0.415
28714SOL     OW87974  10.767   8.588   0.159
28714SOL    HW187975  10.686   8.637   0.143
28714SOL    HW287976  10.782   8.540   0.078
28715SOL     OW87977   0.322   9.971   5.115
28715SOL    HW187978   0.248   9.911   5.119
28715SOL    HW287979   0.339   9.994   5.207
28716SOL     OW87980   2.344  13.437   7.746
28716SOL    HW187981   2.356  13.368   7.680
28716SOL    HW287982   2.283  13.498   7.705
28717SOL     OW87983  14.162  10.511   1.439
28717SOL    HW187984  14.133  10.596   1.470
28717SOL    HW287985  14.103  10.448   1.482
28718SOL     OW87986   6.860   7.854   1.242
28718SOL    HW187987   6.918   7.779   1.226
28718SOL    HW287988   6.894   7.893   1.323
28719SOL     OW87989   9.569  14.095   4.408
28719SOL    HW187990   9.500  14.095   4.475
28719SOL    HW287991   9.649  14.075   4.457
28720SOL     OW87992   9.652   2.693  10.983
28720SOL    HW187993   9.580   2.635  11.007
28720SOL    HW287994   9.677   2.665  10.895
28721SOL     OW87995  13.152   8.220   3.947
28721SOL    HW187996  13.083   8.189   3.887
28721SOL    HW287997  13.224   8.158   3.934
28722SOL     OW87998  11.567   7.222  10.557
28722SOL    HW187999  11.534   7.155  10.617
28722SOL    HW288000  11.530   7.304  10.590
28723SOL     OW88001  14.288  10.206  13.896
28723SOL    HW188002  14.376  10.171  13.908
28723SOL    HW288003  14.281  10.276  13.962
28724SOL     OW88004   4.272   3.421   8.120
28724SOL    HW188005   4.310   3.502   8.086
28724SOL    HW288006   4.346   3.375   8.160
28725SOL     OW88007   0.476  10.181   2.126
28725SOL    HW188008   0.488  10.150   2.215
28725SOL    HW288009   0.465  10.276   2.134
28726SOL     OW88010   6.441   9.678  11.371
28726SOL    HW188011   6.418   9.659  11.462
28726SOL    HW288012   6.415   9.769  11.359
28727SOL     OW88013  12.987   8.340  14.032
28727SOL    HW188014  12.915   8.306  14.085
28727SOL    HW288015  13.036   8.262  14.006
28728SOL     OW88016   0.889   6.944   0.551
28728SOL    HW188017   0.805   6.990   0.559
28728SOL    HW288018   0.895   6.892   0.631
28729SOL     OW88019   0.431   4.777   9.274
28729SOL    HW188020   0.340   4.768   9.249
28729SOL    HW288021   0.481   4.755   9.195
28730SOL     OW88022   3.299  10.632  14.492
28730SOL    HW188023   3.385  10.622  14.452
28730SOL    HW288024   3.316  10.628  14.587
28731SOL     OW88025   1.990   3.711   5.981
28731SOL    HW188026   2.028   3.659   5.911
28731SOL    HW288027   1.947   3.647   6.039
28732SOL     OW88028   7.982   7.158   3.944
28732SOL    HW188029   8.052   7.221   3.927
28732SOL    HW288030   7.902   7.204   3.920
28733SOL     OW88031   7.754  14.330   9.686
28733SOL    HW188032   7.741  14.235   9.677
28733SOL    HW288033   7.668  14.364   9.711
28734SOL     OW88034   1.910  11.872  12.228
28734SOL    HW188035   1.912  11.965  12.205
28734SOL    HW288036   1.937  11.869  12.320
28735SOL     OW88037   4.572  13.699  10.662
28735SOL    HW188038   4.646  13.646  10.692
28735SOL    HW288039   4.612  13.780  10.630
28736SOL     OW88040  12.918   6.562  13.574
28736SOL    HW188041  12.861   6.621  13.622
28736SOL    HW288042  13.000   6.561  13.623
28737SOL     OW88043   7.913  11.748  13.956
28737SOL    HW188044   7.849  11.813  13.986
28737SOL    HW288045   7.921  11.763  13.862
28738SOL     OW88046  10.387   1.479   0.390
28738SOL    HW188047  10.386   1.545   0.460
28738SOL    HW288048  10.472   1.490   0.348
28739SOL     OW88049   8.620   9.678  11.840
28739SOL    HW188050   8.616   9.705  11.932
28739SOL    HW288051   8.702   9.716  11.807
28740SOL     OW88052   8.058   8.563   7.808
28740SOL    HW188053   7.984   8.614   7.775
28740SOL    HW288054   8.018   8.495   7.863
28741SOL     OW88055   2.533  11.260   6.449
28741SOL    HW188056   2.483  11.242   6.528
28741SOL    HW288057   2.599  11.192   6.446
28742SOL     OW88058  11.946  11.364   7.687
28742SOL    HW188059  11.964  11.275   7.718
28742SOL    HW288060  11.856  11.359   7.654
28743SOL     OW88061   7.869   5.411  12.495
28743SOL    HW188062   7.912   5.336  12.454
28743SOL    HW288063   7.938   5.454  12.546
28744SOL     OW88064   2.873   7.908  13.545
28744SOL    HW188065   2.814   7.976  13.576
28744SOL    HW288066   2.836   7.826  13.579
28745SOL     OW88067   9.344  14.710  12.780
28745SOL    HW188068   9.341  14.669  12.694
28745SOL    HW288069   9.266  14.676  12.825
28746SOL     OW88070   9.807   6.823   5.188
28746SOL    HW188071   9.898   6.849   5.203
28746SOL    HW288072   9.805   6.795   5.097
28747SOL     OW88073  10.227   4.368  13.963
28747SOL    HW188074  10.209   4.294  13.904
28747SOL    HW288075  10.278   4.329  14.034
28748SOL     OW88076  10.648  11.692   7.318
28748SOL    HW188077  10.622  11.613   7.365
28748SOL    HW288078  10.632  11.671   7.226
28749SOL     OW88079   0.231  13.198   3.938
28749SOL    HW188080   0.270  13.282   3.963
28749SOL    HW288081   0.290  13.132   3.975
28750SOL     OW88082   2.612   2.267   5.666
28750SOL    HW188083   2.683   2.332   5.666
28750SOL    HW288084   2.533   2.319   5.683
28751SOL     OW88085   9.078   7.661  13.173
28751SOL    HW188086   9.163   7.700  13.194
28751SOL    HW288087   9.087   7.631  13.083
28752SOL     OW88088   1.971   5.547   6.522
28752SOL    HW188089   2.045   5.550   6.462
28752SOL    HW288090   1.931   5.462   6.508
28753SOL     OW88091   9.733   2.944   4.292
28753SOL    HW188092   9.652   2.966   4.338
28753SOL    HW288093   9.749   2.852   4.314
28754SOL     OW88094   3.407  12.139   9.055
28754SOL    HW188095   3.420  12.045   9.039
28754SOL    HW288096   3.312  12.151   9.049
28755SOL     OW88097   7.119  10.749   5.218
28755SOL    HW188098   7.061  10.699   5.161
28755SOL    HW288099   7.203  10.751   5.171
28756SOL     OW88100   8.086   4.742   3.318
28756SOL    HW188101   8.129   4.762   3.235
28756SOL    HW288102   8.013   4.685   3.294
28757SOL     OW88103   1.967   2.869  13.271
28757SOL    HW188104   1.962   2.779  13.303
28757SOL    HW288105   1.876   2.893  13.253
28758SOL     OW88106  10.522   6.343  14.597
28758SOL    HW188107  10.440   6.370  14.637
28758SOL    HW288108  10.501   6.328  14.505
28759SOL     OW88109   9.071   0.623   4.233
28759SOL    HW188110   9.142   0.682   4.209
28759SOL    HW288111   9.113   0.554   4.284
28760SOL     OW88112   3.449   2.392  11.896
28760SOL    HW188113   3.428   2.395  11.802
28760SOL    HW288114   3.371   2.426  11.939
28761SOL     OW88115  10.881   2.366   2.297
28761SOL    HW188116  10.905   2.356   2.204
28761SOL    HW288117  10.792   2.332   2.302
28762SOL     OW88118  11.290   7.320  12.944
28762SOL    HW188119  11.376   7.292  12.911
28762SOL    HW288120  11.271   7.261  13.016
28763SOL     OW88121   7.769   9.739   3.710
28763SOL    HW188122   7.763   9.685   3.631
28763SOL    HW288123   7.847   9.708   3.755
28764SOL     OW88124  14.715   0.994  10.230
28764SOL    HW188125  14.703   1.088  10.240
28764SOL    HW288126  14.681   0.975  10.142
28765SOL     OW88127  14.183  12.789  10.526
28765SOL    HW188128  14.169  12.849  10.599
28765SOL    HW288129  14.161  12.703  10.561
28766SOL     OW88130   5.979  11.879   8.883
28766SOL    HW188131   5.883  11.885   8.881
28766SOL    HW288132   6.000  11.808   8.822
28767SOL     OW88133  14.687   7.506  13.667
28767SOL    HW188134  14.729   7.562  13.602
28767SOL    HW288135  14.595   7.533  13.666
28768SOL     OW88136   9.013  12.200   2.901
28768SOL    HW188137   8.926  12.233   2.880
28768SOL    HW288138   9.072  12.274   2.887
28769SOL     OW88139  11.872   2.518   7.993
28769SOL    HW188140  11.926   2.492   7.919
28769SOL    HW288141  11.782   2.515   7.960
28770SOL     OW88142   0.006   8.600   4.301
28770SOL    HW188143   0.035   8.657   4.372
28770SOL    HW288144  14.818   8.538   4.343
28771SOL     OW88145   0.500  12.894  14.012
28771SOL    HW188146   0.419  12.864  14.053
28771SOL    HW288147   0.570  12.857  14.067
28772SOL     OW88148  10.529   1.412   1.972
28772SOL    HW188149  10.569   1.488   2.014
28772SOL    HW288150  10.595   1.381   1.911
28773SOL     OW88151   4.458  10.121  14.137
28773SOL    HW188152   4.513  10.185  14.183
28773SOL    HW288153   4.512  10.090  14.064
28774SOL     OW88154   7.246  10.383   6.056
28774SOL    HW188155   7.233  10.424   6.142
28774SOL    HW288156   7.323  10.328   6.067
28775SOL     OW88157   4.239  11.574  10.794
28775SOL    HW188158   4.228  11.669  10.798
28775SOL    HW288159   4.180  11.540  10.862
28776SOL     OW88160   9.515   1.006  14.110
28776SOL    HW188161   9.423   0.982  14.120
28776SOL    HW288162   9.552   0.936  14.056
28777SOL     OW88163   0.092   1.202   0.618
28777SOL    HW188164   0.088   1.121   0.568
28777SOL    HW288165   0.071   1.175   0.708
28778SOL     OW88166   5.412   7.331   4.916
28778SOL    HW188167   5.443   7.412   4.956
28778SOL    HW288168   5.482   7.306   4.855
28779SOL     OW88169   3.129  13.456   4.826
28779SOL    HW188170   3.081  13.409   4.757
28779SOL    HW288171   3.073  13.532   4.846
28780SOL     OW88172  14.555  12.725   6.072
28780SOL    HW188173  14.609  12.742   6.149
28780SOL    HW288174  14.506  12.646   6.093
28781SOL     OW88175   8.786  13.723   4.169
28781SOL    HW188176   8.737  13.681   4.098
28781SOL    HW288177   8.770  13.816   4.156
28782SOL     OW88178   1.546   9.242   0.212
28782SOL    HW188179   1.534   9.156   0.253
28782SOL    HW288180   1.457   9.272   0.194
28783SOL     OW88181   5.792  13.321  13.231
28783SOL    HW188182   5.728  13.378  13.274
28783SOL    HW288183   5.867  13.320  13.291
28784SOL     OW88184  13.845  12.259  14.020
28784SOL    HW188185  13.914  12.199  14.050
28784SOL    HW288186  13.764  12.221  14.054
28785SOL     OW88187  12.420   8.122   6.030
28785SOL    HW188188  12.362   8.054   5.996
28785SOL    HW288189  12.402   8.198   5.974
28786SOL     OW88190   7.708  14.156   2.769
28786SOL    HW188191   7.689  14.151   2.675
28786SOL    HW288192   7.777  14.091   2.782
28787SOL     OW88193  13.223  14.418   9.572
28787SOL    HW188194  13.185  14.387   9.490
28787SOL    HW288195  13.191  14.508   9.581
28788SOL     OW88196   7.612   2.865   3.168
28788SOL    HW188197   7.527   2.843   3.131
28788SOL    HW288198   7.652   2.780   3.189
28789SOL     OW88199  10.867  11.056   0.457
28789SOL    HW188200  10.835  11.061   0.547
28789SOL    HW288201  10.864  10.963   0.434
28790SOL     OW88202  12.973  12.237   7.694
28790SOL    HW188203  13.043  12.185   7.733
28790SOL    HW288204  12.995  12.240   7.600
28791SOL     OW88205   3.758  14.871   3.636
28791SOL    HW188206   3.718  14.795   3.678
28791SOL    HW288207   3.832   0.020   3.691
28792SOL     OW88208   4.255   4.444   5.861
28792SOL    HW188209   4.310   4.398   5.925
28792SOL    HW288210   4.188   4.380   5.838
28793SOL     OW88211   9.353   4.644   0.906
28793SOL    HW188212   9.335   4.609   0.992
28793SOL    HW288213   9.355   4.568   0.848
28794SOL     OW88214   3.400   0.697   0.815
28794SOL    HW188215   3.411   0.791   0.831
28794SOL    HW288216   3.482   0.669   0.775
28795SOL     OW88217   6.723   9.287   1.357
28795SOL    HW188218   6.655   9.338   1.312
28795SOL    HW288219   6.749   9.220   1.294
28796SOL     OW88220  13.104  12.806   0.630
28796SOL    HW188221  13.174  12.867   0.607
28796SOL    HW288222  13.137  12.720   0.602
28797SOL     OW88223  13.762   2.845  13.208
28797SOL    HW188224  13.713   2.921  13.175
28797SOL    HW288225  13.717   2.820  13.288
28798SOL     OW88226   3.596  12.448  14.455
28798SOL    HW188227   3.649  12.463  14.533
28798SOL    HW288228   3.534  12.380  14.481
28799SOL     OW88229  14.634   0.012   8.274
28799SOL    HW188230  14.681  14.863   8.355
28799SOL    HW288231  14.645   0.106   8.265
28800SOL     OW88232   6.656   3.699  12.033
28800SOL    HW188233   6.619   3.674  11.948
28800SOL    HW288234   6.583   3.741  12.079
28801SOL     OW88235  11.072   7.137   0.451
28801SOL    HW188236  11.019   7.187   0.390
28801SOL    HW288237  11.010   7.077   0.493
28802SOL     OW88238  12.837   1.674   9.674
28802SOL    HW188239  12.927   1.701   9.660
28802SOL    HW288240  12.838   1.579   9.661
28803SOL     OW88241   2.425   0.407  12.083
28803SOL    HW188242   2.456   0.316  12.088
28803SOL    HW288243   2.500   0.456  12.050
28804SOL     OW88244  13.851  13.933   1.318
28804SOL    HW188245  13.925  13.964   1.370
28804SOL    HW288246  13.882  13.934   1.228
28805SOL     OW88247   8.773   8.989  13.120
28805SOL    HW188248   8.859   8.971  13.081
28805SOL    HW288249   8.737   8.902  13.138
28806SOL     OW88250   2.148   3.457   4.742
28806SOL    HW188251   2.073   3.457   4.683
28806SOL    HW288252   2.188   3.543   4.729
28807SOL     OW88253  12.652   9.358   6.757
28807SOL    HW188254  12.671   9.415   6.832
28807SOL    HW288255  12.682   9.272   6.784
28808SOL     OW88256  11.109   5.722   6.594
28808SOL    HW188257  11.156   5.727   6.510
28808SOL    HW288258  11.162   5.774   6.654
28809SOL     OW88259   2.661  13.759   9.358
28809SOL    HW188260   2.711  13.684   9.391
28809SOL    HW288261   2.691  13.833   9.410
28810SOL     OW88262   1.522   9.739   0.356
28810SOL    HW188263   1.428   9.736   0.337
28810SOL    HW288264   1.543   9.652   0.390
28811SOL     OW88265  13.555  14.563   6.383
28811SOL    HW188266  13.541  14.482   6.334
28811SOL    HW288267  13.560  14.631   6.316
28812SOL     OW88268   3.692  10.307   1.534
28812SOL    HW188269   3.653  10.220   1.535
28812SOL    HW288270   3.618  10.367   1.539
28813SOL     OW88271  10.693   1.990   4.489
28813SOL    HW188272  10.622   1.927   4.505
28813SOL    HW288273  10.693   2.001   4.394
28814SOL     OW88274   0.483  10.064  12.147
28814SOL    HW188275   0.434  10.107  12.077
28814SOL    HW288276   0.573  10.058  12.114
28815SOL     OW88277   7.206   3.063   2.003
28815SOL    HW188278   7.297   3.066   1.973
28815SOL    HW288279   7.184   2.970   2.004
28816SOL     OW88280   0.456   3.648   6.077
28816SOL    HW188281   0.544   3.650   6.115
28816SOL    HW288282   0.412   3.575   6.122
28817SOL     OW88283   5.902  14.123   0.893
28817SOL    HW188284   5.865  14.035   0.884
28817SOL    HW288285   5.967  14.129   0.823
28818SOL     OW88286  14.396  13.355   3.631
28818SOL    HW188287  14.472  13.298   3.623
28818SOL    HW288288  14.338  13.309   3.692
28819SOL     OW88289   0.603  14.715   6.394
28819SOL    HW188290   0.521  14.698   6.441
28819SOL    HW288291   0.669  14.665   6.443
28820SOL     OW88292  14.462   5.737   1.425
28820SOL    HW188293  14.528   5.689   1.375
28820SOL    HW288294  14.437   5.810   1.369
28821SOL     OW88295   1.596   3.482   8.797
28821SOL    HW188296   1.672   3.516   8.844
28821SOL    HW288297   1.633   3.435   8.722
28822SOL     OW88298  13.718  14.448   7.126
28822SOL    HW188299  13.656  14.471   7.057
28822SOL    HW288300  13.792  14.506   7.111
28823SOL     OW88301  12.948   0.258   3.746
28823SOL    HW188302  12.974   0.225   3.660
28823SOL    HW288303  12.963   0.184   3.806
28824SOL     OW88304   3.797   2.117  13.093
28824SOL    HW188305   3.796   2.136  13.187
28824SOL    HW288306   3.717   2.068  13.078
28825SOL     OW88307  12.123   0.736   3.235
28825SOL    HW188308  12.217   0.730   3.218
28825SOL    HW288309  12.116   0.736   3.330
28826SOL     OW88310   7.514   0.397   0.469
28826SOL    HW188311   7.585   0.340   0.440
28826SOL    HW288312   7.518   0.472   0.410
28827SOL     OW88313   2.994   4.957   1.759
28827SOL    HW188314   2.981   4.904   1.838
28827SOL    HW288315   2.972   5.046   1.786
28828SOL     OW88316   2.492   1.620   9.331
28828SOL    HW188317   2.474   1.629   9.425
28828SOL    HW288318   2.452   1.697   9.291
28829SOL     OW88319   8.026  14.345   1.842
28829SOL    HW188320   8.119  14.333   1.858
28829SOL    HW288321   8.020  14.382   1.754
28830SOL     OW88322  10.036   6.464   9.314
28830SOL    HW188323  10.008   6.545   9.271
28830SOL    HW288324  10.096   6.493   9.383
28831SOL     OW88325  11.847   2.947  12.365
28831SOL    HW188326  11.831   2.986  12.451
28831SOL    HW288327  11.934   2.907  12.373
28832SOL     OW88328   2.609  12.914   7.670
28832SOL    HW188329   2.556  12.862   7.731
28832SOL    HW288330   2.616  13.000   7.712
28833SOL     OW88331  13.405  13.858   5.260
28833SOL    HW188332  13.357  13.930   5.301
28833SOL    HW288333  13.337  13.804   5.220
28834SOL     OW88334  12.467   9.923   8.789
28834SOL    HW188335  12.550   9.877   8.774
28834SOL    HW288336  12.401   9.854   8.781
28835SOL     OW88337   4.624  11.700   1.229
28835SOL    HW188338   4.638  11.752   1.309
28835SOL    HW288339   4.665  11.616   1.249
28836SOL     OW88340  13.725   3.227  12.405
28836SOL    HW188341  13.696   3.315  12.382
28836SOL    HW288342  13.710   3.175  12.325
28837SOL     OW88343   0.830  12.258   6.453
28837SOL    HW188344   0.891  12.246   6.380
28837SOL    HW288345   0.814  12.170   6.486
28838SOL     OW88346   1.724   8.365   2.502
28838SOL    HW188347   1.681   8.284   2.529
28838SOL    HW288348   1.683   8.387   2.418
28839SOL     OW88349   1.107  11.455   2.721
28839SOL    HW188350   1.081  11.537   2.763
28839SOL    HW288351   1.028  11.425   2.676
28840SOL     OW88352   5.440   4.083   9.778
28840SOL    HW188353   5.475   4.153   9.722
28840SOL    HW288354   5.517   4.031   9.802
28841SOL     OW88355  11.237  13.914   4.580
28841SOL    HW188356  11.232  13.923   4.484
28841SOL    HW288357  11.186  13.835   4.598
28842SOL     OW88358   0.916  11.851   9.181
28842SOL    HW188359   1.007  11.828   9.200
28842SOL    HW288360   0.870  11.767   9.182
28843SOL     OW88361  13.868   1.952   4.681
28843SOL    HW188362  13.824   2.028   4.720
28843SOL    HW288363  13.943   1.990   4.635
28844SOL     OW88364   3.235   0.118   0.162
28844SOL    HW188365   3.155   0.113   0.109
28844SOL    HW288366   3.288   0.045   0.132
28845SOL     OW88367   9.073  10.738  13.880
28845SOL    HW188368   8.984  10.728  13.844
28845SOL    HW288369   9.130  10.727  13.804
28846SOL     OW88370   9.378   7.026  14.447
28846SOL    HW188371   9.350   7.090  14.512
28846SOL    HW288372   9.453   7.067  14.404
28847SOL     OW88373   1.885   6.615  12.961
28847SOL    HW188374   1.898   6.577  13.048
28847SOL    HW288375   1.831   6.692  12.976
28848SOL     OW88376  12.572   8.765  10.029
28848SOL    HW188377  12.639   8.728   9.971
28848SOL    HW288378  12.506   8.696  10.037
28849SOL     OW88379   0.912   9.924   7.881
28849SOL    HW188380   0.819   9.921   7.856
28849SOL    HW288381   0.912   9.961   7.969
28850SOL     OW88382   6.757   7.368   5.930
28850SOL    HW188383   6.803   7.295   5.973
28850SOL    HW288384   6.804   7.446   5.959
28851SOL     OW88385   8.221   5.693   5.080
28851SOL    HW188386   8.151   5.739   5.127
28851SOL    HW288387   8.280   5.663   5.149
28852SOL     OW88388   3.879  12.937   6.369
28852SOL    HW188389   3.869  12.942   6.465
28852SOL    HW288390   3.805  12.987   6.335
28853SOL     OW88391   6.690  10.670   4.222
28853SOL    HW188392   6.691  10.761   4.192
28853SOL    HW288393   6.646  10.622   4.152
28854SOL     OW88394   2.403   7.176  14.182
28854SOL    HW188395   2.356   7.259  14.171
28854SOL    HW288396   2.335   7.113  14.206
28855SOL     OW88397  11.034  13.170   8.694
28855SOL    HW188398  10.963  13.159   8.758
28855SOL    HW288399  11.113  13.180   8.748
28856SOL     OW88400   4.405   1.865   0.987
28856SOL    HW188401   4.386   1.922   1.062
28856SOL    HW288402   4.407   1.924   0.912
28857SOL     OW88403   1.287   6.872  10.211
28857SOL    HW188404   1.302   6.844  10.301
28857SOL    HW288405   1.346   6.947  10.199
28858SOL     OW88406   8.542  14.468  11.095
28858SOL    HW188407   8.497  14.459  11.179
28858SOL    HW288408   8.566  14.560  11.090
28859SOL     OW88409  13.148   8.999  11.012
28859SOL    HW188410  13.184   8.916  11.042
28859SOL    HW288411  13.054   8.994  11.031
28860SOL     OW88412   0.212  10.027   8.268
28860SOL    HW188413   0.179  10.035   8.178
28860SOL    HW288414   0.223  10.118   8.297
28861SOL     OW88415   0.120   6.998   8.168
28861SOL    HW188416   0.204   7.040   8.151
28861SOL    HW288417   0.126   6.968   8.259
28862SOL     OW88418  14.706   0.131  14.561
28862SOL    HW188419  14.705   0.211  14.509
28862SOL    HW288420  14.614   0.104  14.566
28863SOL     OW88421   0.091   9.286   7.221
28863SOL    HW188422   0.067   9.195   7.204
28863SOL    HW288423   0.067   9.332   7.141
28864SOL     OW88424   9.196  10.831   0.719
28864SOL    HW188425   9.247  10.836   0.800
28864SOL    HW288426   9.236  10.896   0.662
28865SOL     OW88427   6.090   3.818   0.836
28865SOL    HW188428   6.152   3.868   0.888
28865SOL    HW288429   6.042   3.883   0.786
28866SOL     OW88430   3.975   5.036   4.707
28866SOL    HW188431   4.041   5.033   4.776
28866SOL    HW288432   4.012   4.985   4.636
28867SOL     OW88433  14.438   2.867  14.134
28867SOL    HW188434  14.521   2.820  14.122
28867SOL    HW288435  14.463   2.959  14.143
28868SOL     OW88436   8.679   1.024   8.804
28868SOL    HW188437   8.744   0.995   8.869
28868SOL    HW288438   8.730   1.071   8.738
28869SOL     OW88439  14.752   8.417  14.083
28869SOL    HW188440  14.687   8.371  14.136
28869SOL    HW288441  14.716   8.415  13.994
28870SOL     OW88442   3.796   4.135  13.040
28870SOL    HW188443   3.860   4.074  13.077
28870SOL    HW288444   3.720   4.081  13.018
28871SOL     OW88445   9.008   8.691  14.661
28871SOL    HW188446   8.983   8.671  14.751
28871SOL    HW288447   8.940   8.750  14.630
28872SOL     OW88448  10.136   8.786   9.956
28872SOL    HW188449  10.122   8.711  10.013
28872SOL    HW288450  10.049   8.806   9.920
28873SOL     OW88451   8.206   1.870   8.789
28873SOL    HW188452   8.170   1.884   8.876
28873SOL    HW288453   8.238   1.956   8.762
28874SOL     OW88454  10.744   1.507   8.077
28874SOL    HW188455  10.731   1.600   8.096
28874SOL    HW288456  10.703   1.494   7.992
28875SOL     OW88457   1.168   6.384   0.088
28875SOL    HW188458   1.239   6.382   0.024
28875SOL    HW288459   1.145   6.477   0.094
28876SOL     OW88460   6.384  12.878  12.844
28876SOL    HW188461   6.447  12.912  12.781
28876SOL    HW288462   6.432  12.811  12.892
28877SOL     OW88463   3.115   5.985   1.794
28877SOL    HW188464   3.206   5.995   1.764
28877SOL    HW288465   3.063   6.004   1.716
28878SOL     OW88466  13.523  13.500   8.817
28878SOL    HW188467  13.611  13.481   8.785
28878SOL    HW288468  13.506  13.434   8.884
28879SOL     OW88469   5.750   5.109   7.210
28879SOL    HW188470   5.806   5.126   7.134
28879SOL    HW288471   5.718   5.196   7.235
28880SOL     OW88472  13.843   5.401   3.202
28880SOL    HW188473  13.783   5.331   3.226
28880SOL    HW288474  13.889   5.367   3.125
28881SOL     OW88475   3.542  12.325   1.407
28881SOL    HW188476   3.572  12.304   1.319
28881SOL    HW288477   3.467  12.268   1.422
28882SOL     OW88478   0.391   8.299   2.533
28882SOL    HW188479   0.482   8.270   2.537
28882SOL    HW288480   0.378   8.350   2.614
28883SOL     OW88481   9.259   8.129   1.417
28883SOL    HW188482   9.186   8.171   1.462
28883SOL    HW288483   9.231   8.039   1.405
28884SOL     OW88484   0.511   7.586   8.780
28884SOL    HW188485   0.559   7.575   8.863
28884SOL    HW288486   0.555   7.527   8.719
28885SOL     OW88487  13.444   6.560   0.037
28885SOL    HW188488  13.496   6.624   0.086
28885SOL    HW288489  13.353   6.586   0.054
28886SOL     OW88490  13.062  10.448   2.825
28886SOL    HW188491  13.113  10.468   2.903
28886SOL    HW288492  13.014  10.369   2.846
28887SOL     OW88493   7.467  12.985   9.632
28887SOL    HW188494   7.434  13.069   9.601
28887SOL    HW288495   7.455  12.925   9.558
28888SOL     OW88496   9.499   6.064   0.814
28888SOL    HW188497   9.456   6.145   0.786
28888SOL    HW288498   9.561   6.091   0.881
28889SOL     OW88499   6.566   4.215   2.726
28889SOL    HW188500   6.548   4.290   2.669
28889SOL    HW288501   6.643   4.174   2.689
28890SOL     OW88502   7.740  13.569  10.777
28890SOL    HW188503   7.783  13.534  10.699
28890SOL    HW288504   7.741  13.664  10.764
28891SOL     OW88505   6.344   2.191  14.640
28891SOL    HW188506   6.394   2.273  14.639
28891SOL    HW288507   6.287   2.197  14.563
28892SOL     OW88508   3.340   7.923   7.057
28892SOL    HW188509   3.389   7.921   6.975
28892SOL    HW288510   3.308   8.013   7.064
28893SOL     OW88511   4.161  12.312  12.559
28893SOL    HW188512   4.223  12.382  12.537
28893SOL    HW288513   4.130  12.335  12.646
28894SOL     OW88514   9.063   9.010   7.748
28894SOL    HW188515   8.973   9.028   7.778
28894SOL    HW288516   9.116   9.079   7.788
28895SOL     OW88517   4.259   2.504  14.405
28895SOL    HW188518   4.168   2.495  14.378
28895SOL    HW288519   4.309   2.459  14.336
28896SOL     OW88520   4.319   7.009   3.158
28896SOL    HW188521   4.334   7.041   3.246
28896SOL    HW288522   4.339   7.084   3.101
28897SOL     OW88523   1.838  13.044   7.733
28897SOL    HW188524   1.846  13.090   7.816
28897SOL    HW288525   1.920  13.060   7.688
28898SOL     OW88526   8.036   2.321   9.884
28898SOL    HW188527   8.116   2.369   9.906
28898SOL    HW288528   7.992   2.308   9.968
28899SOL     OW88529   0.414   3.467   0.196
28899SOL    HW188530   0.440   3.525   0.268
28899SOL    HW288531   0.366   3.524   0.136
28900SOL     OW88532  13.321   3.673   8.358
28900SOL    HW188533  13.413   3.650   8.373
28900SOL    HW288534  13.324   3.749   8.301
28901SOL     OW88535   9.430  13.192   7.538
28901SOL    HW188536   9.388  13.239   7.465
28901SOL    HW288537   9.399  13.238   7.616
28902SOL     OW88538  12.573  14.163   3.046
28902SOL    HW188539  12.652  14.208   3.017
28902SOL    HW288540  12.525  14.145   2.965
28903SOL     OW88541  10.858   0.912   9.845
28903SOL    HW188542  10.820   1.000   9.853
28903SOL    HW288543  10.902   0.897   9.929
28904SOL     OW88544   8.743   8.893   1.381
28904SOL    HW188545   8.683   8.822   1.362
28904SOL    HW288546   8.721   8.961   1.317
28905SOL     OW88547  14.445  13.268   1.337
28905SOL    HW188548  14.385  13.222   1.396
28905SOL    HW288549  14.528  13.270   1.385
28906SOL     OW88550  13.344   4.706   8.186
28906SOL    HW188551  13.420   4.756   8.218
28906SOL    HW288552  13.370   4.679   8.097
28907SOL     OW88553  11.140  14.653   8.481
28907SOL    HW188554  11.154  14.735   8.528
28907SOL    HW288555  11.105  14.680   8.396
28908SOL     OW88556   0.759   7.509  11.038
28908SOL    HW188557   0.786   7.591  10.995
28908SOL    HW288558   0.672   7.528  11.072
28909SOL     OW88559  12.184   7.456   2.928
28909SOL    HW188560  12.259   7.434   2.983
28909SOL    HW288561  12.162   7.375   2.883
28910SOL     OW88562  13.834   6.966   9.756
28910SOL    HW188563  13.854   7.056   9.783
28910SOL    HW288564  13.858   6.963   9.663
28911SOL     OW88565  13.173  10.994  11.022
28911SOL    HW188566  13.153  10.912  11.068
28911SOL    HW288567  13.267  10.989  11.004
28912SOL     OW88568   7.002   3.532   8.356
28912SOL    HW188569   6.977   3.602   8.297
28912SOL    HW288570   7.061   3.574   8.419
28913SOL     OW88571   3.530   3.684   1.867
28913SOL    HW188572   3.569   3.769   1.887
28913SOL    HW288573   3.436   3.699   1.870
28914SOL     OW88574  12.764   1.951   5.892
28914SOL    HW188575  12.743   1.882   5.955
28914SOL    HW288576  12.860   1.951   5.889
28915SOL     OW88577   5.423   7.186   1.582
28915SOL    HW188578   5.382   7.100   1.580
28915SOL    HW288579   5.498   7.175   1.642
28916SOL     OW88580   6.829   7.300   8.366
28916SOL    HW188581   6.865   7.298   8.278
28916SOL    HW288582   6.883   7.363   8.414
28917SOL     OW88583  12.766   6.450   0.191
28917SOL    HW188584  12.723   6.526   0.152
28917SOL    HW288585  12.709   6.376   0.168
28918SOL     OW88586   5.633   8.849   2.752
28918SOL    HW188587   5.670   8.816   2.834
28918SOL    HW288588   5.689   8.812   2.684
28919SOL     OW88589   2.095  13.057   0.607
28919SOL    HW188590   2.129  13.087   0.692
28919SOL    HW288591   2.005  13.088   0.605
28920SOL     OW88592   9.830   9.630   9.709
28920SOL    HW188593   9.749   9.579   9.721
28920SOL    HW288594   9.803   9.721   9.720
28921SOL     OW88595   3.102  10.561   2.527
28921SOL    HW188596   3.197  10.556   2.538
28921SOL    HW288597   3.081  10.491   2.465
28922SOL     OW88598  10.509  13.691   5.224
28922SOL    HW188599  10.420  13.713   5.251
28922SOL    HW288600  10.535  13.620   5.283
28923SOL     OW88601  11.031   7.608   4.330
28923SOL    HW188602  11.084   7.630   4.407
28923SOL    HW288603  10.978   7.534   4.359
28924SOL     OW88604   4.355  14.055  12.749
28924SOL    HW188605   4.417  14.128  12.755
28924SOL    HW288606   4.410  13.977  12.748
28925SOL     OW88607  10.832  10.137  14.112
28925SOL    HW188608  10.746  10.138  14.069
28925SOL    HW288609  10.892  10.171  14.047
28926SOL     OW88610   7.310   1.837  12.864
28926SOL    HW188611   7.240   1.842  12.930
28926SOL    HW288612   7.265   1.807  12.785
28927SOL     OW88613   7.774   0.297   5.186
28927SOL    HW188614   7.848   0.297   5.125
28927SOL    HW288615   7.810   0.336   5.267
28928SOL     OW88616   1.051   0.276   2.650
28928SOL    HW188617   1.080   0.309   2.564
28928SOL    HW288618   0.967   0.234   2.633
28929SOL     OW88619   1.054   7.786   3.544
28929SOL    HW188620   1.103   7.860   3.581
28929SOL    HW288621   0.962   7.815   3.545
28930SOL     OW88622   4.492  11.516  11.112
28930SOL    HW188623   4.428  11.582  11.088
28930SOL    HW288624   4.564  11.565  11.151
28931SOL     OW88625   9.018   1.926   2.505
28931SOL    HW188626   9.055   1.988   2.442
28931SOL    HW288627   9.003   1.979   2.584
28932SOL     OW88628  11.745  11.732   7.681
28932SOL    HW188629  11.794  11.663   7.636
28932SOL    HW288630  11.770  11.723   7.773
28933SOL     OW88631   7.413  10.492   2.850
28933SOL    HW188632   7.450  10.529   2.931
28933SOL    HW288633   7.428  10.398   2.858
28934SOL     OW88634  12.665  12.821   0.967
28934SOL    HW188635  12.623  12.907   0.971
28934SOL    HW288636  12.723  12.819   1.043
28935SOL     OW88637   3.916   7.401   0.075
28935SOL    HW188638   3.995   7.454   0.069
28935SOL    HW288639   3.851   7.449   0.023
28936SOL     OW88640  10.366   2.100   4.653
28936SOL    HW188641  10.389   2.180   4.699
28936SOL    HW288642  10.425   2.034   4.689
28937SOL     OW88643   0.695   1.363   5.872
28937SOL    HW188644   0.761   1.431   5.883
28937SOL    HW288645   0.614   1.403   5.906
28938SOL     OW88646   8.451   8.432   1.665
28938SOL    HW188647   8.491   8.353   1.701
28938SOL    HW288648   8.357   8.416   1.673
28939SOL     OW88649   4.736  12.771   2.598
28939SOL    HW188650   4.761  12.718   2.523
28939SOL    HW288651   4.796  12.743   2.668
28940SOL     OW88652   7.661   9.850   1.650
28940SOL    HW188653   7.722   9.912   1.689
28940SOL    HW288654   7.580   9.860   1.701
28941SOL     OW88655   1.437   8.401  14.012
28941SOL    HW188656   1.363   8.423  14.069
28941SOL    HW288657   1.398   8.350  13.941
28942SOL     OW88658   4.642   2.385   0.198
28942SOL    HW188659   4.679   2.470   0.179
28942SOL    HW288660   4.577   2.370   0.129
28943SOL     OW88661   3.683  13.690  12.257
28943SOL    HW188662   3.691  13.596  12.245
28943SOL    HW288663   3.688  13.727  12.169
28944SOL     OW88664   4.943  11.422  10.973
28944SOL    HW188665   5.018  11.433  10.916
28944SOL    HW288666   4.873  11.391  10.915
28945SOL     OW88667  14.471   3.324   1.473
28945SOL    HW188668  14.472   3.410   1.516
28945SOL    HW288669  14.381   3.294   1.484
28946SOL     OW88670  13.123   3.671  13.967
28946SOL    HW188671  13.146   3.659  13.875
28946SOL    HW288672  13.038   3.715  13.965
28947SOL     OW88673   9.912  10.126   8.230
28947SOL    HW188674   9.997  10.083   8.220
28947SOL    HW288675   9.871  10.082   8.305
28948SOL     OW88676  10.434   3.475   6.923
28948SOL    HW188677  10.455   3.396   6.872
28948SOL    HW288678  10.445   3.448   7.014
28949SOL     OW88679   5.077   8.926  13.274
28949SOL    HW188680   4.988   8.957  13.295
28949SOL    HW288681   5.093   8.856  13.337
28950SOL     OW88682   2.866   4.889   5.976
28950SOL    HW188683   2.957   4.859   5.988
28950SOL    HW288684   2.813   4.812   5.996
28951SOL     OW88685   7.637   3.807   7.523
28951SOL    HW188686   7.588   3.725   7.511
28951SOL    HW288687   7.727   3.784   7.502
28952SOL     OW88688   5.886  10.122  11.596
28952SOL    HW188689   5.819  10.074  11.643
28952SOL    HW288690   5.838  10.173  11.531
28953SOL     OW88691  14.103   8.955  12.376
28953SOL    HW188692  14.149   9.038  12.362
28953SOL    HW288693  14.162   8.889  12.339
28954SOL     OW88694   1.302  13.749   0.382
28954SOL    HW188695   1.317  13.712   0.295
28954SOL    HW288696   1.389  13.749   0.424
28955SOL     OW88697   4.042   7.531  14.309
28955SOL    HW188698   3.965   7.580  14.337
28955SOL    HW288699   4.012   7.440  14.302
28956SOL     OW88700  13.817  13.314   0.069
28956SOL    HW188701  13.754  13.273   0.129
28956SOL    HW288702  13.835  13.399   0.109
28957SOL     OW88703   1.972   2.344  13.707
28957SOL    HW188704   2.031   2.420  13.708
28957SOL    HW288705   1.998   2.294  13.630
28958SOL     OW88706  11.797   3.793  11.235
28958SOL    HW188707  11.796   3.730  11.307
28958SOL    HW288708  11.708   3.826  11.230
28959SOL     OW88709   3.444   0.304   1.043
28959SOL    HW188710   3.389   0.303   1.121
28959SOL    HW288711   3.383   0.321   0.971
28960SOL     OW88712   9.137   2.636  14.807
28960SOL    HW188713   9.065   2.576  14.825
28960SOL    HW288714   9.100   2.723  14.826
28961SOL     OW88715  13.917  12.899   9.751
28961SOL    HW188716  13.885  12.811   9.733
28961SOL    HW288717  14.007  12.886   9.783
28962SOL     OW88718  14.853  10.629   7.333
28962SOL    HW188719   0.009  10.592   7.250
28962SOL    HW288720   0.056  10.677   7.366
28963SOL     OW88721  12.404   6.946   0.685
28963SOL    HW188722  12.432   6.947   0.776
28963SOL    HW288723  12.402   7.039   0.660
28964SOL     OW88724   8.993  12.407  13.379
28964SOL    HW188725   9.041  12.435  13.301
28964SOL    HW288726   9.029  12.461  13.449
28965SOL     OW88727  13.709   9.352  12.450
28965SOL    HW188728  13.613   9.345  12.451
28965SOL    HW288729  13.740   9.262  12.461
28966SOL     OW88730   2.526  14.045  12.630
28966SOL    HW188731   2.544  14.081  12.543
28966SOL    HW288732   2.602  13.990  12.649
28967SOL     OW88733   8.425   6.812  14.045
28967SOL    HW188734   8.406   6.852  14.130
28967SOL    HW288735   8.367   6.736  14.041
28968SOL     OW88736   6.760   7.067   6.353
28968SOL    HW188737   6.712   7.133   6.404
28968SOL    HW288738   6.701   6.991   6.351
28969SOL     OW88739   8.789  14.377  13.779
28969SOL    HW188740   8.849  14.345  13.846
28969SOL    HW288741   8.835  14.361  13.696
28970SOL     OW88742   0.678   1.938  13.810
28970SOL    HW188743   0.668   1.904  13.721
28970SOL    HW288744   0.762   1.982  13.810
28971SOL     OW88745  10.197  14.062  10.969
28971SOL    HW188746  10.227  13.993  11.028
28971SOL    HW288747  10.176  14.017  10.887
28972SOL     OW88748   6.049   1.492  10.373
28972SOL    HW188749   6.074   1.563  10.432
28972SOL    HW288750   6.112   1.497  10.301
28973SOL     OW88751   4.486   9.645   7.656
28973SOL    HW188752   4.487   9.632   7.750
28973SOL    HW288753   4.467   9.739   7.645
28974SOL     OW88754  14.590   7.058   1.613
28974SOL    HW188755  14.581   7.146   1.577
28974SOL    HW288756  14.536   7.003   1.557
28975SOL     OW88757  13.688   9.539   3.564
28975SOL    HW188758  13.682   9.625   3.605
28975SOL    HW288759  13.633   9.483   3.619
28976SOL     OW88760  11.348   3.625  13.379
28976SOL    HW188761  11.406   3.680  13.431
28976SOL    HW288762  11.356   3.658  13.290
28977SOL     OW88763   2.337   3.283  10.281
28977SOL    HW188764   2.244   3.293  10.259
28977SOL    HW288765   2.384   3.323  10.208
28978SOL     OW88766   5.938   4.627   0.424
28978SOL    HW188767   5.884   4.609   0.501
28978SOL    HW288768   5.877   4.631   0.351
28979SOL     OW88769   8.613  10.801   4.782
28979SOL    HW188770   8.583  10.725   4.832
28979SOL    HW288771   8.541  10.819   4.721
28980SOL     OW88772   0.980  14.847  13.017
28980SOL    HW188773   0.968  14.796  13.097
28980SOL    HW288774   1.064  14.818  12.982
28981SOL     OW88775   0.182   8.111   3.943
28981SOL    HW188776   0.099   8.158   3.931
28981SOL    HW288777   0.206   8.127   4.034
28982SOL     OW88778   9.738   4.983   9.539
28982SOL    HW188779   9.729   5.020   9.451
28982SOL    HW288780   9.753   5.059   9.596
28983SOL     OW88781  11.547   9.365   6.133
28983SOL    HW188782  11.515   9.364   6.043
28983SOL    HW288783  11.640   9.345   6.127
28984SOL     OW88784  12.004   3.665   4.899
28984SOL    HW188785  12.013   3.751   4.858
28984SOL    HW288786  11.969   3.609   4.829
28985SOL     OW88787  10.719   3.342   1.509
28985SOL    HW188788  10.804   3.369   1.544
28985SOL    HW288789  10.716   3.382   1.422
28986SOL     OW88790   4.835  11.711  11.606
28986SOL    HW188791   4.794  11.781  11.555
28986SOL    HW288792   4.823  11.738  11.697
28987SOL     OW88793   5.973   0.376  10.921
28987SOL    HW188794   6.011   0.383  10.834
28987SOL    HW288795   6.034   0.424  10.978
28988SOL     OW88796   3.285  12.903   0.256
28988SOL    HW188797   3.331  12.861   0.329
28988SOL    HW288798   3.205  12.938   0.296
28989SOL     OW88799  12.337   7.428   8.592
28989SOL    HW188800  12.294   7.348   8.561
28989SOL    HW288801  12.418   7.398   8.632
28990SOL     OW88802   9.931   1.846   3.581
28990SOL    HW188803   9.984   1.767   3.568
28990SOL    HW288804   9.856   1.816   3.633
28991SOL     OW88805   7.603   0.500   3.389
28991SOL    HW188806   7.546   0.576   3.377
28991SOL    HW288807   7.570   0.457   3.468
28992SOL     OW88808   6.390   1.419   6.268
28992SOL    HW188809   6.324   1.488   6.257
28992SOL    HW288810   6.470   1.466   6.290
28993SOL     OW88811   7.192  13.198   4.392
28993SOL    HW188812   7.268  13.205   4.334
28993SOL    HW288813   7.117  13.191   4.333
28994SOL     OW88814  10.221   5.314  13.851
28994SOL    HW188815  10.203   5.375  13.922
28994SOL    HW288816  10.235   5.370  13.774
28995SOL     OW88817  12.126   8.084   9.687
28995SOL    HW188818  12.120   7.997   9.726
28995SOL    HW288819  12.062   8.137   9.736
28996SOL     OW88820  13.881   8.566   5.748
28996SOL    HW188821  13.951   8.621   5.784
28996SOL    HW288822  13.860   8.505   5.819
28997SOL     OW88823   5.900  14.119   4.059
28997SOL    HW188824   5.896  14.124   3.963
28997SOL    HW288825   5.991  14.140   4.080
28998SOL     OW88826   6.689  14.800  11.415
28998SOL    HW188827   6.753  14.742  11.374
28998SOL    HW288828   6.670  14.759  11.500
28999SOL     OW88829   6.962   8.435   0.477
28999SOL    HW188830   7.020   8.471   0.410
28999SOL    HW288831   7.020   8.396   0.542
29000SOL     OW88832   4.722   0.102  14.623
29000SOL    HW188833   4.701   0.057  14.541
29000SOL    HW288834   4.698   0.039  14.691
29001SOL     OW88835   5.644   9.924   5.181
29001SOL    HW188836   5.669   9.841   5.222
29001SOL    HW288837   5.599   9.899   5.101
29002SOL     OW88838   0.013  11.583   0.124
29002SOL    HW188839   0.064  11.646   0.175
29002SOL    HW288840   0.077  11.536   0.071
29003SOL     OW88841   6.896  14.859   5.918
29003SOL    HW188842   6.827  14.794   5.911
29003SOL    HW288843   6.851   0.071   5.916
29004SOL     OW88844  11.274  12.035   7.654
29004SOL    HW188845  11.274  12.129   7.635
29004SOL    HW288846  11.360  12.019   7.693
29005SOL     OW88847   2.659   4.645   2.623
29005SOL    HW188848   2.659   4.690   2.708
29005SOL    HW288849   2.751   4.628   2.605
29006SOL     OW88850   6.193   6.620   2.591
29006SOL    HW188851   6.174   6.628   2.685
29006SOL    HW288852   6.194   6.710   2.560
29007SOL     OW88853   1.239   8.862   9.213
29007SOL    HW188854   1.308   8.857   9.279
29007SOL    HW288855   1.263   8.797   9.147
29008SOL     OW88856   2.204   4.124   2.756
29008SOL    HW188857   2.160   4.197   2.800
29008SOL    HW288858   2.202   4.148   2.664
29009SOL     OW88859   4.693   2.545   4.878
29009SOL    HW188860   4.650   2.489   4.813
29009SOL    HW288861   4.782   2.555   4.845
29010SOL     OW88862   5.459   5.680   3.374
29010SOL    HW188863   5.490   5.645   3.291
29010SOL    HW288864   5.365   5.691   3.362
29011SOL     OW88865  14.643   9.958   3.678
29011SOL    HW188866  14.734   9.927   3.677
29011SOL    HW288867  14.636  10.007   3.760
29012SOL     OW88868   9.069  14.432   4.894
29012SOL    HW188869   9.006  14.366   4.924
29012SOL    HW288870   9.047  14.510   4.945
29013SOL     OW88871   2.768   4.414   8.898
29013SOL    HW188872   2.859   4.423   8.870
29013SOL    HW288873   2.718   4.426   8.817
29014SOL     OW88874   5.206   0.065  12.845
29014SOL    HW188875   5.278   0.003  12.853
29014SOL    HW288876   5.129   0.011  12.828
29015SOL     OW88877  10.223   0.714   9.087
29015SOL    HW188878  10.266   0.736   9.004
29015SOL    HW288879  10.290   0.667   9.137
29016SOL     OW88880   5.824   9.866   7.780
29016SOL    HW188881   5.750   9.833   7.729
29016SOL    HW288882   5.787   9.889   7.865
29017SOL     OW88883  14.019  13.566  14.472
29017SOL    HW188884  14.080  13.516  14.526
29017SOL    HW288885  14.017  13.653  14.511
29018SOL     OW88886   1.070   6.749   4.545
29018SOL    HW188887   1.063   6.840   4.576
29018SOL    HW288888   1.018   6.699   4.607
29019SOL     OW88889   4.887  13.522   4.252
29019SOL    HW188890   4.896  13.602   4.305
29019SOL    HW288891   4.804  13.533   4.206
29020SOL     OW88892   4.355   5.237   9.098
29020SOL    HW188893   4.364   5.225   9.004
29020SOL    HW288894   4.429   5.292   9.123
29021SOL     OW88895   5.042   4.546   7.322
29021SOL    HW188896   5.111   4.612   7.307
29021SOL    HW288897   5.033   4.542   7.417
29022SOL     OW88898  13.298   5.357   5.907
29022SOL    HW188899  13.357   5.404   5.965
29022SOL    HW288900  13.243   5.304   5.966
29023SOL     OW88901   9.369   1.435   0.428
29023SOL    HW188902   9.286   1.400   0.395
29023SOL    HW288903   9.377   1.521   0.386
29024SOL     OW88904   4.289  12.796   7.334
29024SOL    HW188905   4.337  12.713   7.336
29024SOL    HW288906   4.228  12.790   7.407
29025SOL     OW88907   1.397   0.066   5.702
29025SOL    HW188908   1.353   0.127   5.642
29025SOL    HW288909   1.427  14.867   5.647
29026SOL     OW88910   1.132   4.476   3.057
29026SOL    HW188911   1.152   4.491   3.150
29026SOL    HW288912   1.115   4.382   3.051
29027SOL     OW88913  14.235   4.065   9.519
29027SOL    HW188914  14.268   4.094   9.603
29027SOL    HW288915  14.217   3.972   9.531
29028SOL     OW88916   6.711   4.537  14.404
29028SOL    HW188917   6.637   4.596  14.391
29028SOL    HW288918   6.712   4.482  14.326
29029SOL     OW88919   9.053  10.632   5.477
29029SOL    HW188920   8.979  10.677   5.518
29029SOL    HW288921   9.070  10.682   5.397
29030SOL     OW88922  11.594   8.611   4.574
29030SOL    HW188923  11.580   8.688   4.520
29030SOL    HW288924  11.689   8.607   4.585
29031SOL     OW88925  11.727   7.221   5.194
29031SOL    HW188926  11.642   7.190   5.226
29031SOL    HW288927  11.788   7.152   5.219
29032SOL     OW88928   9.682   9.763  10.853
29032SOL    HW188929   9.655   9.762  10.761
29032SOL    HW288930   9.739   9.687  10.862
29033SOL     OW88931   6.442  12.695   6.543
29033SOL    HW188932   6.521  12.707   6.595
29033SOL    HW288933   6.435  12.774   6.490
29034SOL     OW88934  10.551   5.619  14.099
29034SOL    HW188935  10.544   5.538  14.148
29034SOL    HW288936  10.571   5.686  14.165
29035SOL     OW88937   9.023   2.020  14.074
29035SOL    HW188938   8.953   1.971  14.030
29035SOL    HW288939   8.994   2.027  14.165
29036SOL     OW88940  11.897   1.439   4.512
29036SOL    HW188941  11.827   1.388   4.553
29036SOL    HW288942  11.943   1.481   4.585
29037SOL     OW88943   3.697   3.221  13.228
29037SOL    HW188944   3.644   3.278  13.173
29037SOL    HW288945   3.673   3.245  13.317
29038SOL     OW88946   5.352   4.026  11.588
29038SOL    HW188947   5.401   4.050  11.667
29038SOL    HW288948   5.333   3.933  11.599
29039SOL     OW88949   5.002  14.686   4.444
29039SOL    HW188950   5.023  14.729   4.527
29039SOL    HW288951   5.068  14.718   4.383
29040SOL     OW88952  14.677   5.722  14.112
29040SOL    HW188953  14.740   5.664  14.072
29040SOL    HW288954  14.648   5.676  14.191
29041SOL     OW88955   5.139   8.132  12.852
29041SOL    HW188956   5.148   8.191  12.777
29041SOL    HW288957   5.138   8.190  12.928
29042SOL     OW88958   7.436   5.364   3.487
29042SOL    HW188959   7.372   5.427   3.454
29042SOL    HW288960   7.444   5.299   3.417
29043SOL     OW88961  11.135   4.069   2.688
29043SOL    HW188962  11.071   4.119   2.636
29043SOL    HW288963  11.188   4.023   2.623
29044SOL     OW88964   2.898   5.007   2.767
29044SOL    HW188965   2.855   5.081   2.810
29044SOL    HW288966   2.884   4.934   2.828
29045SOL     OW88967  10.843  10.258  12.745
29045SOL    HW188968  10.777  10.219  12.801
29045SOL    HW288969  10.926  10.222  12.776
29046SOL     OW88970   7.354  11.687  14.104
29046SOL    HW188971   7.271  11.644  14.124
29046SOL    HW288972   7.420  11.630  14.144
29047SOL     OW88973   5.297   2.704  13.975
29047SOL    HW188974   5.282   2.773  13.910
29047SOL    HW288975   5.250   2.628  13.940
29048SOL     OW88976   8.774   6.468  11.472
29048SOL    HW188977   8.794   6.374  11.469
29048SOL    HW288978   8.843   6.509  11.419
29049SOL     OW88979   2.733   3.562  10.301
29049SOL    HW188980   2.640   3.556  10.325
29049SOL    HW288981   2.745   3.652  10.272
29050SOL     OW88982   7.539  13.713  13.837
29050SOL    HW188983   7.565  13.641  13.894
29050SOL    HW288984   7.581  13.790  13.875
29051SOL     OW88985  10.029   6.202   9.271
29051SOL    HW188986  10.014   6.296   9.281
29051SOL    HW288987  10.078   6.194   9.189
29052SOL     OW88988   4.981   2.628   9.422
29052SOL    HW188989   4.944   2.570   9.488
29052SOL    HW288990   5.072   2.600   9.413
29053SOL     OW88991   3.505   1.214   9.591
29053SOL    HW188992   3.545   1.181   9.510
29053SOL    HW288993   3.417   1.240   9.564
29054SOL     OW88994   6.392   6.538   5.258
29054SOL    HW188995   6.385   6.611   5.320
29054SOL    HW288996   6.327   6.475   5.289
29055SOL     OW88997   7.293  12.454  14.320
29055SOL    HW188998   7.271  12.363  14.338
29055SOL    HW288999   7.373  12.470  14.370
29056SOL     OW89000   7.755   0.256   0.394
29056SOL    HW189001   7.770   0.220   0.481
29056SOL    HW289002   7.826   0.220   0.341
29057SOL     OW89003   4.099   1.597   2.827
29057SOL    HW189004   4.173   1.658   2.823
29057SOL    HW289005   4.022   1.653   2.838
29058SOL     OW89006   3.240  13.575   6.604
29058SOL    HW189007   3.238  13.607   6.514
29058SOL    HW289008   3.166  13.618   6.647
29059SOL     OW89009   2.462   2.150   4.066
29059SOL    HW189010   2.377   2.163   4.025
29059SOL    HW289011   2.463   2.058   4.090
29060SOL     OW89012  14.537   0.428   1.894
29060SOL    HW189013  14.538   0.357   1.830
29060SOL    HW289014  14.613   0.411   1.950
29061SOL     OW89015   5.642   7.744   8.321
29061SOL    HW189016   5.699   7.680   8.364
29061SOL    HW289017   5.554   7.708   8.333
29062SOL     OW89018   6.752  12.129  11.534
29062SOL    HW189019   6.834  12.124  11.486
29062SOL    HW289020   6.686  12.146  11.468
29063SOL     OW89021   5.137  14.664   2.150
29063SOL    HW189022   5.199  14.732   2.123
29063SOL    HW289023   5.140  14.599   2.079
29064SOL     OW89024   4.023   6.746  10.506
29064SOL    HW189025   3.933   6.758  10.538
29064SOL    HW289026   4.041   6.825  10.455
29065SOL     OW89027   4.256  10.105  10.311
29065SOL    HW189028   4.308  10.057  10.375
29065SOL    HW289029   4.169  10.113  10.351
29066SOL     OW89030   2.345   7.689   8.020
29066SOL    HW189031   2.317   7.609   8.064
29066SOL    HW289032   2.272   7.749   8.030
29067SOL     OW89033   8.522  14.299  12.263
29067SOL    HW189034   8.588  14.324  12.200
29067SOL    HW289035   8.441  14.339  12.231
29068SOL     OW89036   2.058  13.336   7.275
29068SOL    HW189037   2.019  13.335   7.188
29068SOL    HW289038   2.027  13.417   7.315
29069SOL     OW89039   8.849   1.094  10.860
29069SOL    HW189040   8.877   1.174  10.815
29069SOL    HW289041   8.757   1.111  10.883
29070SOL     OW89042  11.019   5.109   3.091
29070SOL    HW189043  10.953   5.039   3.095
29070SOL    HW289044  11.058   5.110   3.178
29071SOL     OW89045  10.911   2.640   7.186
29071SOL    HW189046  10.960   2.569   7.145
29071SOL    HW289047  10.918   2.713   7.125
29072SOL     OW89048   6.527   0.585   5.805
29072SOL    HW189049   6.622   0.581   5.815
29072SOL    HW289050   6.497   0.634   5.882
29073SOL     OW89051   6.845   3.552  11.614
29073SOL    HW189052   6.835   3.509  11.529
29073SOL    HW289053   6.892   3.488  11.667
29074SOL     OW89054   3.738  13.326  12.456
29074SOL    HW189055   3.731  13.285  12.370
29074SOL    HW289056   3.667  13.391  12.458
29075SOL     OW89057   8.706  12.377   6.384
29075SOL    HW189058   8.621  12.403   6.420
29075SOL    HW289059   8.754  12.340   6.459
29076SOL     OW89060   0.423   7.588   4.534
29076SOL    HW189061   0.340   7.553   4.501
29076SOL    HW289062   0.412   7.593   4.629
29077SOL     OW89063   1.107  13.805   9.556
29077SOL    HW189064   1.078  13.850   9.636
29077SOL    HW289065   1.073  13.860   9.485
29078SOL     OW89066   4.138  11.932  12.218
29078SOL    HW189067   4.211  11.916  12.278
29078SOL    HW289068   4.155  12.018  12.181
29079SOL     OW89069   9.701   7.005  12.754
29079SOL    HW189070   9.641   6.940  12.717
29079SOL    HW289071   9.648   7.054  12.817
29080SOL     OW89072  14.243   0.080  14.240
29080SOL    HW189073  14.265   0.173  14.244
29080SOL    HW289074  14.226   0.056  14.331
29081SOL     OW89075   9.774   8.914   9.226
29081SOL    HW189076   9.681   8.902   9.208
29081SOL    HW289077   9.813   8.829   9.208
29082SOL     OW89078   2.429  12.548   8.081
29082SOL    HW189079   2.510  12.531   8.129
29082SOL    HW289080   2.420  12.473   8.022
29083SOL     OW89081   3.119   8.298   1.538
29083SOL    HW189082   3.106   8.204   1.553
29083SOL    HW289083   3.203   8.303   1.491
29084SOL     OW89084  10.163   4.664  11.910
29084SOL    HW189085  10.133   4.577  11.885
29084SOL    HW289086  10.258   4.657  11.913
29085SOL     OW89087   1.318  11.026   0.796
29085SOL    HW189088   1.365  11.080   0.859
29085SOL    HW289089   1.386  10.975   0.753
29086SOL     OW89090  13.618   5.248   5.715
29086SOL    HW189091  13.674   5.182   5.756
29086SOL    HW289092  13.609   5.219   5.625
29087SOL     OW89093   2.017  11.362   2.444
29087SOL    HW189094   1.999  11.422   2.372
29087SOL    HW289095   1.992  11.411   2.523
29088SOL     OW89096   2.706  13.124   9.700
29088SOL    HW189097   2.733  13.185   9.768
29088SOL    HW289098   2.763  13.048   9.711
29089SOL     OW89099  12.976   0.551   2.876
29089SOL    HW189100  12.963   0.644   2.892
29089SOL    HW289101  13.025   0.547   2.793
29090SOL     OW89102   0.133   6.324  10.059
29090SOL    HW189103   0.091   6.407  10.039
29090SOL    HW289104   0.102   6.264   9.991
29091SOL     OW89105  10.217   7.803  12.121
29091SOL    HW189106  10.283   7.812  12.052
29091SOL    HW289107  10.257   7.744  12.185
29092SOL     OW89108  11.004   5.954   7.609
29092SOL    HW189109  11.018   5.999   7.692
29092SOL    HW289110  11.081   5.898   7.598
29093SOL     OW89111   3.414   0.904  14.634
29093SOL    HW189112   3.433   0.997  14.645
29093SOL    HW289113   3.500   0.864  14.618
29094SOL     OW89114   5.581   8.344   2.646
29094SOL    HW189115   5.520   8.336   2.572
29094SOL    HW289116   5.551   8.422   2.693
29095SOL     OW89117  11.793   6.156  13.048
29095SOL    HW189118  11.815   6.189  13.135
29095SOL    HW289119  11.855   6.085  13.033
29096SOL     OW89120   7.394   5.031   1.980
29096SOL    HW189121   7.356   5.042   2.067
29096SOL    HW289122   7.322   5.051   1.920
29097SOL     OW89123  12.381   3.007   0.841
29097SOL    HW189124  12.405   3.098   0.855
29097SOL    HW289125  12.419   2.984   0.756
29098SOL     OW89126  14.021  14.184   3.857
29098SOL    HW189127  13.961  14.248   3.818
29098SOL    HW289128  14.059  14.139   3.782
29099SOL     OW89129  10.296   6.304   6.875
29099SOL    HW189130  10.361   6.365   6.909
29099SOL    HW289131  10.244   6.356   6.813
29100SOL     OW89132   9.597   6.804   0.901
29100SOL    HW189133   9.691   6.792   0.911
29100SOL    HW289134   9.575   6.761   0.819
29101SOL     OW89135   1.430   0.819   7.136
29101SOL    HW189136   1.386   0.803   7.052
29101SOL    HW289137   1.378   0.887   7.178
29102SOL     OW89138   9.925   6.812  10.401
29102SOL    HW189139   9.841   6.805  10.357
29102SOL    HW289140   9.922   6.898  10.444
29103SOL     OW89141  10.171  13.372   1.675
29103SOL    HW189142  10.216  13.442   1.629
29103SOL    HW289143  10.209  13.291   1.639
29104SOL     OW89144  11.753  12.077  11.798
29104SOL    HW189145  11.797  12.009  11.747
29104SOL    HW289146  11.791  12.070  11.886
29105SOL     OW89147   9.479   7.281   8.123
29105SOL    HW189148   9.530   7.212   8.081
29105SOL    HW289149   9.404   7.294   8.065
29106SOL     OW89150  11.256  14.808   4.162
29106SOL    HW189151  11.270  14.720   4.195
29106SOL    HW289152  11.260  14.799   4.067
29107SOL     OW89153   9.038  14.869   6.727
29107SOL    HW189154   9.117   0.046   6.746
29107SOL    HW289155   8.980   0.012   6.801
29108SOL     OW89156  13.660   2.142   0.831
29108SOL    HW189157  13.687   2.062   0.785
29108SOL    HW289158  13.609   2.111   0.906
29109SOL     OW89159   2.171   9.706  12.595
29109SOL    HW189160   2.167   9.612  12.583
29109SOL    HW289161   2.233   9.737  12.529
29110SOL     OW89162  11.976   3.073   7.372
29110SOL    HW189163  12.046   3.076   7.307
29110SOL    HW289164  12.018   3.100   7.453
29111SOL     OW89165  14.131  10.072  11.778
29111SOL    HW189166  14.065  10.007  11.804
29111SOL    HW289167  14.110  10.090  11.686
29112SOL     OW89168   5.944   7.114   6.992
29112SOL    HW189169   5.857   7.076   7.009
29112SOL    HW289170   5.989   7.108   7.076
29113SOL     OW89171   3.425   1.131   9.123
29113SOL    HW189172   3.462   1.116   9.036
29113SOL    HW289173   3.501   1.142   9.180
29114SOL     OW89174   4.360   9.629  12.482
29114SOL    HW189175   4.321   9.599  12.400
29114SOL    HW289176   4.429   9.690  12.454
29115SOL     OW89177  10.809   1.594   7.398
29115SOL    HW189178  10.843   1.529   7.336
29115SOL    HW289179  10.870   1.591   7.471
29116SOL     OW89180   1.958  12.541   7.906
29116SOL    HW189181   1.867  12.538   7.935
29116SOL    HW289182   1.956  12.505   7.817
29117SOL     OW89183   5.078  11.067  11.365
29117SOL    HW189184   5.110  10.980  11.341
29117SOL    HW289185   5.155  11.123  11.361
29118SOL     OW89186   8.302   3.021  10.547
29118SOL    HW189187   8.366   3.013  10.476
29118SOL    HW289188   8.337   3.091  10.603
29119SOL     OW89189   2.045  13.530   0.436
29119SOL    HW189190   1.978  13.464   0.417
29119SOL    HW289191   1.996  13.613   0.436
29120SOL     OW89192  14.079  12.914   4.939
29120SOL    HW189193  14.093  12.820   4.927
29120SOL    HW289194  14.118  12.933   5.024
29121SOL     OW89195   0.083   7.949  14.121
29121SOL    HW189196   0.056   8.030  14.078
29121SOL    HW289197   0.130   7.978  14.200
29122SOL     OW89198   8.360   4.863   2.235
29122SOL    HW189199   8.416   4.832   2.164
29122SOL    HW289200   8.278   4.815   2.223
29123SOL     OW89201  13.453   1.284   3.379
29123SOL    HW189202  13.437   1.296   3.285
29123SOL    HW289203  13.383   1.227   3.408
29124SOL     OW89204   4.132   8.347  11.579
29124SOL    HW189205   4.219   8.376  11.553
29124SOL    HW289206   4.096   8.420  11.628
29125SOL     OW89207   4.400  14.485   0.189
29125SOL    HW189208   4.382  14.479   0.095
29125SOL    HW289209   4.493  14.464   0.197
29126SOL     OW89210   3.530  13.060  13.360
29126SOL    HW189211   3.533  13.083  13.452
29126SOL    HW289212   3.588  13.123  13.317
29127SOL     OW89213   3.239   1.198   8.267
29127SOL    HW189214   3.165   1.173   8.213
29127SOL    HW289215   3.260   1.119   8.317
29128SOL     OW89216   4.462   5.733   2.395
29128SOL    HW189217   4.469   5.643   2.365
29128SOL    HW289218   4.509   5.735   2.479
29129SOL     OW89219   4.257   4.978  11.997
29129SOL    HW189220   4.163   4.967  11.981
29129SOL    HW289221   4.299   4.914  11.939
29130SOL     OW89222   4.043   9.861  10.763
29130SOL    HW189223   4.136   9.873  10.781
29130SOL    HW289224   4.036   9.771  10.733
29131SOL     OW89225   1.759   6.971   4.004
29131SOL    HW189226   1.794   6.922   3.929
29131SOL    HW289227   1.665   6.950   4.005
29132SOL     OW89228  10.940   8.005   3.994
29132SOL    HW189229  10.974   8.079   3.943
29132SOL    HW289230  10.995   8.004   4.073
29133SOL     OW89231   3.828   5.888   1.220
29133SOL    HW189232   3.766   5.836   1.271
29133SOL    HW289233   3.817   5.977   1.252
29134SOL     OW89234   3.931  10.747   5.777
29134SOL    HW189235   3.947  10.726   5.685
29134SOL    HW289236   3.977  10.830   5.791
29135SOL     OW89237   9.537  13.372   1.516
29135SOL    HW189238   9.540  13.433   1.590
29135SOL    HW289239   9.572  13.423   1.443
29136SOL     OW89240  13.118   5.345  11.170
29136SOL    HW189241  13.159   5.259  11.175
29136SOL    HW289242  13.132   5.383  11.257
29137SOL     OW89243   7.005  10.290   6.307
29137SOL    HW189244   6.928  10.314   6.358
29137SOL    HW289245   7.077  10.340   6.345
29138SOL     OW89246   5.647   5.153   8.637
29138SOL    HW189247   5.660   5.062   8.610
29138SOL    HW289248   5.734   5.182   8.664
29139SOL     OW89249   2.148  10.574   3.007
29139SOL    HW189250   2.077  10.522   2.968
29139SOL    HW289251   2.187  10.622   2.934
29140SOL     OW89252   5.975   5.599  13.310
29140SOL    HW189253   5.932   5.554  13.237
29140SOL    HW289254   6.068   5.581  13.299
29141SOL     OW89255   9.907  10.874   5.732
29141SOL    HW189256   9.836  10.810   5.730
29141SOL    HW289257   9.898  10.916   5.818
29142SOL     OW89258  10.276  13.560  14.852
29142SOL    HW189259  10.188  13.523  14.861
29142SOL    HW289260  10.278  13.594  14.762
29143SOL     OW89261   2.896   2.557   2.067
29143SOL    HW189262   2.955   2.482   2.077
29143SOL    HW289263   2.849   2.541   1.986
29144SOL     OW89264   4.703   2.393  12.130
29144SOL    HW189265   4.764   2.388  12.057
29144SOL    HW289266   4.619   2.413  12.090
29145SOL     OW89267   1.669  10.395   5.896
29145SOL    HW189268   1.751  10.360   5.931
29145SOL    HW289269   1.690  10.418   5.806
29146SOL     OW89270  12.229   9.355   1.604
29146SOL    HW189271  12.221   9.444   1.570
29146SOL    HW289272  12.145   9.337   1.647
29147SOL     OW89273  10.410   1.161   7.706
29147SOL    HW189274  10.397   1.245   7.661
29147SOL    HW289275  10.361   1.099   7.653
29148SOL     OW89276   5.265   9.662  14.429
29148SOL    HW189277   5.260   9.714  14.509
29148SOL    HW289278   5.241   9.573  14.456
29149SOL     OW89279  14.191  12.930  10.770
29149SOL    HW189280  14.276  12.893  10.793
29149SOL    HW289281  14.136  12.912  10.846
29150SOL     OW89282   3.117  11.316  14.476
29150SOL    HW189283   3.081  11.368  14.549
29150SOL    HW289284   3.073  11.351  14.398
29151SOL     OW89285  11.491  10.185   0.567
29151SOL    HW189286  11.489  10.100   0.523
29151SOL    HW289287  11.535  10.243   0.505
29152SOL     OW89288   7.039   9.624   4.098
29152SOL    HW189289   7.062   9.703   4.146
29152SOL    HW289290   7.098   9.624   4.023
29153SOL     OW89291   9.265  12.366   7.755
29153SOL    HW189292   9.202  12.392   7.822
29153SOL    HW289293   9.316  12.445   7.738
29154SOL     OW89294   2.552   0.884   4.534
29154SOL    HW189295   2.534   0.978   4.536
29154SOL    HW289296   2.473   0.844   4.570
29155SOL     OW89297   6.597   6.330  10.693
29155SOL    HW189298   6.595   6.237  10.715
29155SOL    HW289299   6.670   6.365  10.745
29156SOL     OW89300   2.839   9.746  12.790
29156SOL    HW189301   2.839   9.673  12.852
29156SOL    HW289302   2.789   9.815  12.834
29157SOL     OW89303   3.030  10.744  11.279
29157SOL    HW189304   3.048  10.834  11.307
29157SOL    HW289305   3.106  10.694  11.307
29158SOL     OW89306   7.810   5.254  10.124
29158SOL    HW189307   7.778   5.169  10.153
29158SOL    HW289308   7.733   5.299  10.090
29159SOL     OW89309   7.909   3.937   1.996
29159SOL    HW189310   7.944   3.858   2.039
29159SOL    HW289311   7.814   3.929   2.005
29160SOL     OW89312   5.757   1.442   2.533
29160SOL    HW189313   5.667   1.461   2.506
29160SOL    HW289314   5.781   1.514   2.591
29161SOL     OW89315   7.724   6.995   3.510
29161SOL    HW189316   7.786   7.064   3.534
29161SOL    HW289317   7.664   6.991   3.584
29162SOL     OW89318   9.435   7.058  12.627
29162SOL    HW189319   9.340   7.068  12.615
29162SOL    HW289320   9.468   7.147  12.627
29163SOL     OW89321   5.280  14.057   0.338
29163SOL    HW189322   5.303  13.995   0.269
29163SOL    HW289323   5.186  14.070   0.327
29164SOL     OW89324  11.584  14.304  14.271
29164SOL    HW189325  11.533  14.353  14.335
29164SOL    HW289326  11.655  14.265  14.322
29165SOL     OW89327  10.758   3.876  10.271
29165SOL    HW189328  10.750   3.781  10.279
29165SOL    HW289329  10.821   3.901  10.339
29166SOL     OW89330   6.509  13.883  12.465
29166SOL    HW189331   6.453  13.939  12.519
29166SOL    HW289332   6.467  13.884  12.379
29167SOL     OW89333   8.654   4.445   1.337
29167SOL    HW189334   8.623   4.356   1.355
29167SOL    HW289335   8.577   4.500   1.350
29168SOL     OW89336  12.080   2.248   6.123
29168SOL    HW189337  12.082   2.233   6.028
29168SOL    HW289338  12.163   2.212   6.154
29169SOL     OW89339   3.175   6.267  14.841
29169SOL    HW189340   3.136   6.179  14.841
29169SOL    HW289341   3.191   6.286  14.749
29170SOL     OW89342  12.300   1.634  11.246
29170SOL    HW189343  12.385   1.608  11.210
29170SOL    HW289344  12.298   1.595  11.333
29171SOL     OW89345   9.375   0.144  11.866
29171SOL    HW189346   9.344   0.229  11.836
29171SOL    HW289347   9.352   0.140  11.958
29172SOL     OW89348  13.693   3.544  12.842
29172SOL    HW189349  13.700   3.453  12.814
29172SOL    HW289350  13.657   3.590  12.767
29173SOL     OW89351   2.218   3.809   6.793
29173SOL    HW189352   2.242   3.770   6.876
29173SOL    HW289353   2.130   3.845   6.807
29174SOL     OW89354   3.223  14.423  11.932
29174SOL    HW189355   3.171  14.422  12.012
29174SOL    HW289356   3.312  14.404  11.961
29175SOL     OW89357   7.596  13.332   5.635
29175SOL    HW189358   7.538  13.347   5.561
29175SOL    HW289359   7.593  13.237   5.649
29176SOL     OW89360   8.032  13.757   0.562
29176SOL    HW189361   7.972  13.686   0.583
29176SOL    HW289362   7.992  13.835   0.602
29177SOL     OW89363  14.575  11.306  11.656
29177SOL    HW189364  14.539  11.252  11.586
29177SOL    HW289365  14.650  11.256  11.689
29178SOL     OW89366  14.098  13.689   2.809
29178SOL    HW189367  14.161  13.617   2.802
29178SOL    HW289368  14.012  13.647   2.808
29179SOL     OW89369   4.059   6.829  13.750
29179SOL    HW189370   4.021   6.917  13.741
29179SOL    HW289371   4.143   6.845  13.793
29180SOL     OW89372  14.734  10.265  12.669
29180SOL    HW189373  14.669  10.217  12.721
29180SOL    HW289374  14.730  10.355  12.704
29181SOL     OW89375   8.722   0.777  13.926
29181SOL    HW189376   8.715   0.683  13.915
29181SOL    HW289377   8.701   0.813  13.839
29182SOL     OW89378   4.983   4.870   9.592
29182SOL    HW189379   5.055   4.931   9.607
29182SOL    HW289380   4.921   4.888   9.662
29183SOL     OW89381   1.005  12.683  10.544
29183SOL    HW189382   0.965  12.624  10.609
29183SOL    HW289383   0.972  12.770  10.567
29184SOL     OW89384  12.000   9.994   5.450
29184SOL    HW189385  12.055   9.953   5.516
29184SOL    HW289386  12.031  10.085   5.446
29185SOL     OW89387   2.816   0.370  13.857
29185SOL    HW189388   2.840   0.299  13.798
29185SOL    HW289389   2.812   0.447  13.801
29186SOL     OW89390   9.840   3.077   5.048
29186SOL    HW189391   9.829   3.166   5.082
29186SOL    HW289392   9.783   3.073   4.972
29187SOL     OW89393  11.104   1.762   6.451
29187SOL    HW189394  11.095   1.701   6.524
29187SOL    HW289395  11.076   1.847   6.488
29188SOL     OW89396   7.861   1.102   6.104
29188SOL    HW189397   7.922   1.150   6.160
29188SOL    HW289398   7.915   1.038   6.058
29189SOL     OW89399   8.577   3.494   6.202
29189SOL    HW189400   8.610   3.437   6.133
29189SOL    HW289401   8.628   3.575   6.192
29190SOL     OW89402  10.556  11.300   4.426
29190SOL    HW189403  10.507  11.357   4.366
29190SOL    HW289404  10.633  11.351   4.450
29191SOL     OW89405   0.152   3.077  10.842
29191SOL    HW189406   0.135   3.157  10.791
29191SOL    HW289407   0.206   3.023  10.784
29192SOL     OW89408  14.834   8.691  10.405
29192SOL    HW189409   0.022   8.679  10.332
29192SOL    HW289410   0.016   8.721  10.477
29193SOL     OW89411  10.504   2.032   4.933
29193SOL    HW189412  10.427   2.074   4.973
29193SOL    HW289413  10.560   2.009   5.007
29194SOL     OW89414   5.952  10.407   2.375
29194SOL    HW189415   5.962  10.461   2.297
29194SOL    HW289416   5.872  10.357   2.360
29195SOL     OW89417   1.085   5.163   3.954
29195SOL    HW189418   1.139   5.238   3.927
29195SOL    HW289419   1.110   5.093   3.893
29196SOL     OW89420   7.650   9.210   6.749
29196SOL    HW189421   7.583   9.178   6.810
29196SOL    HW289422   7.663   9.137   6.688
29197SOL     OW89423   7.172   0.543  14.237
29197SOL    HW189424   7.227   0.539  14.159
29197SOL    HW289425   7.220   0.600  14.298
29198SOL     OW89426  11.405   8.973   7.262
29198SOL    HW189427  11.500   8.978   7.260
29198SOL    HW289428  11.382   8.981   7.354
29199SOL     OW89429  10.305   6.867   7.860
29199SOL    HW189430  10.397   6.848   7.874
29199SOL    HW289431  10.276   6.911   7.940
29200SOL     OW89432  11.988   0.212   0.512
29200SOL    HW189433  11.992   0.187   0.605
29200SOL    HW289434  11.904   0.178   0.482
29201SOL     OW89435   4.300   2.696   4.068
29201SOL    HW189436   4.246   2.625   4.032
29201SOL    HW289437   4.253   2.723   4.147
29202SOL     OW89438   8.621  13.175  13.103
29202SOL    HW189439   8.682  13.110  13.138
29202SOL    HW289440   8.658  13.199  13.018
29203SOL     OW89441   1.540   1.837  11.160
29203SOL    HW189442   1.538   1.785  11.241
29203SOL    HW289443   1.538   1.772  11.090
29204SOL     OW89444  13.952   6.593   8.716
29204SOL    HW189445  13.883   6.655   8.737
29204SOL    HW289446  13.966   6.603   8.622
29205SOL     OW89447   6.587  10.759   6.010
29205SOL    HW189448   6.633  10.836   6.042
29205SOL    HW289449   6.654  10.708   5.964
29206SOL     OW89450  14.456  13.670   5.402
29206SOL    HW189451  14.376  13.714   5.432
29206SOL    HW289452  14.513  13.669   5.479
29207SOL     OW89453   5.637   1.103   3.822
29207SOL    HW189454   5.676   1.181   3.783
29207SOL    HW289455   5.698   1.032   3.801
29208SOL     OW89456   9.213  14.434   3.641
29208SOL    HW189457   9.190  14.461   3.730
29208SOL    HW289458   9.165  14.495   3.585
29209SOL     OW89459  11.979  12.217   6.272
29209SOL    HW189460  11.961  12.305   6.303
29209SOL    HW289461  11.955  12.160   6.346
29210SOL     OW89462  13.168   4.566   4.218
29210SOL    HW189463  13.247   4.545   4.268
29210SOL    HW289464  13.098   4.569   4.284
29211SOL     OW89465   3.456  14.699   2.428
29211SOL    HW189466   3.389  14.766   2.416
29211SOL    HW289467   3.521  14.740   2.485
29212SOL     OW89468   7.749   3.765   0.292
29212SOL    HW189469   7.840   3.739   0.274
29212SOL    HW289470   7.705   3.683   0.314
29213SOL     OW89471   3.302   0.188   2.573
29213SOL    HW189472   3.359   0.241   2.629
29213SOL    HW289473   3.323   0.098   2.596
29214SOL     OW89474   2.863   4.879   9.089
29214SOL    HW189475   2.876   4.793   9.127
29214SOL    HW289476   2.942   4.895   9.037
29215SOL     OW89477   5.586   3.719  11.626
29215SOL    HW189478   5.611   3.765  11.546
29215SOL    HW289479   5.493   3.739  11.637
29216SOL     OW89480  14.473  10.249   3.510
29216SOL    HW189481  14.424  10.167   3.521
29216SOL    HW289482  14.494  10.277   3.599
29217SOL     OW89483   1.053   7.212  12.232
29217SOL    HW189484   1.062   7.138  12.293
29217SOL    HW289485   0.986   7.183  12.170
29218SOL     OW89486   3.367   3.042   2.219
29218SOL    HW189487   3.353   3.037   2.125
29218SOL    HW289488   3.438   3.104   2.231
29219SOL     OW89489   4.124   1.471  12.135
29219SOL    HW189490   4.148   1.533  12.067
29219SOL    HW289491   4.169   1.390  12.112
29220SOL     OW89492   8.937   7.940   9.619
29220SOL    HW189493   8.991   7.990   9.558
29220SOL    HW289494   8.858   7.919   9.570
29221SOL     OW89495  10.691   3.877   2.144
29221SOL    HW189496  10.602   3.913   2.149
29221SOL    HW289497  10.678   3.785   2.121
29222SOL     OW89498  13.094  13.938  13.578
29222SOL    HW189499  13.135  13.999  13.639
29222SOL    HW289500  13.035  13.886  13.632
29223SOL     OW89501  11.426  10.178   7.619
29223SOL    HW189502  11.371  10.232   7.561
29223SOL    HW289503  11.515  10.189   7.584
29224SOL     OW89504   5.536   2.475   2.981
29224SOL    HW189505   5.502   2.488   2.893
29224SOL    HW289506   5.476   2.411   3.020
29225SOL     OW89507   8.619  13.607   7.402
29225SOL    HW189508   8.701  13.629   7.447
29225SOL    HW289509   8.601  13.517   7.427
29226SOL     OW89510  10.210   3.943   2.378
29226SOL    HW189511  10.230   3.860   2.422
29226SOL    HW289512  10.185   3.917   2.289
29227SOL     OW89513   6.330   1.005   6.277
29227SOL    HW189514   6.239   1.004   6.250
29227SOL    HW289515   6.378   0.970   6.201
29228SOL     OW89516  14.871  13.186   7.278
29228SOL    HW189517   0.019  13.276   7.303
29228SOL    HW289518  14.855  13.141   7.361
29229SOL     OW89519   9.817   3.274   4.009
29229SOL    HW189520   9.845   3.354   4.053
29229SOL    HW289521   9.838   3.288   3.916
29230SOL     OW89522  14.646  11.169  12.706
29230SOL    HW189523  14.624  11.187  12.798
29230SOL    HW289524  14.570  11.200  12.657
29231SOL     OW89525  14.314   6.864   5.997
29231SOL    HW189526  14.373   6.910   5.937
29231SOL    HW289527  14.356   6.871   6.083
29232SOL     OW89528   1.490   4.245   5.276
29232SOL    HW189529   1.555   4.315   5.283
29232SOL    HW289530   1.480   4.213   5.366
29233SOL     OW89531   3.150  11.540   8.457
29233SOL    HW189532   3.213  11.513   8.391
29233SOL    HW289533   3.138  11.634   8.442
29234SOL     OW89534   7.004   6.225  11.195
29234SOL    HW189535   6.965   6.224  11.283
29234SOL    HW289536   7.041   6.313  11.187
29235SOL     OW89537   3.050   0.301   0.692
29235SOL    HW189538   2.955   0.312   0.699
29235SOL    HW289539   3.073   0.346   0.611
29236SOL     OW89540   6.441  14.541   2.990
29236SOL    HW189541   6.441  14.635   2.970
29236SOL    HW289542   6.403  14.500   2.913
29237SOL     OW89543   5.767   9.672  14.290
29237SOL    HW189544   5.780   9.766  14.304
29237SOL    HW289545   5.672   9.662  14.283
29238SOL     OW89546   5.108   7.228  14.243
29238SOL    HW189547   5.100   7.134  14.262
29238SOL    HW289548   5.202   7.245  14.242
29239SOL     OW89549   1.831   3.499   4.148
29239SOL    HW189550   1.789   3.527   4.066
29239SOL    HW289551   1.758   3.481   4.207
29240SOL     OW89552   0.386  10.138   0.641
29240SOL    HW189553   0.443  10.111   0.569
29240SOL    HW289554   0.359  10.227   0.618
29241SOL     OW89555  11.920   4.891  13.807
29241SOL    HW189556  11.924   4.946  13.885
29241SOL    HW289557  11.952   4.947  13.737
29242SOL     OW89558   9.206   2.195   1.642
29242SOL    HW189559   9.132   2.249   1.614
29242SOL    HW289560   9.274   2.258   1.665
29243SOL     OW89561   4.398  10.117   7.043
29243SOL    HW189562   4.459  10.051   7.076
29243SOL    HW289563   4.416  10.195   7.094
29244SOL     OW89564   4.989  13.114  12.988
29244SOL    HW189565   5.025  13.118  13.077
29244SOL    HW289566   5.021  13.194  12.946
29245SOL     OW89567   9.484  12.150  12.185
29245SOL    HW189568   9.453  12.118  12.101
29245SOL    HW289569   9.488  12.245  12.175
29246SOL     OW89570   3.250   4.681   9.567
29246SOL    HW189571   3.289   4.758   9.525
29246SOL    HW289572   3.309   4.609   9.546
29247SOL     OW89573   6.265  13.995   0.848
29247SOL    HW189574   6.252  14.072   0.793
29247SOL    HW289575   6.207  13.929   0.810
29248SOL     OW89576  12.713   8.206   6.414
29248SOL    HW189577  12.624   8.238   6.400
29248SOL    HW289578  12.704   8.111   6.421
29249SOL     OW89579  13.112   3.908   6.738
29249SOL    HW189580  13.159   3.967   6.797
29249SOL    HW289581  13.061   3.966   6.682
29250SOL     OW89582   9.006  11.550  14.470
29250SOL    HW189583   9.100  11.533  14.477
29250SOL    HW289584   8.966  11.483  14.525
29251SOL     OW89585   4.292   6.101   7.040
29251SOL    HW189586   4.296   6.017   7.084
29251SOL    HW289587   4.360   6.154   7.083
29252SOL     OW89588   0.398   4.594  10.681
29252SOL    HW189589   0.406   4.502  10.656
29252SOL    HW289590   0.473   4.610  10.738
29253SOL     OW89591  12.888  13.798  10.403
29253SOL    HW189592  12.982  13.780  10.401
29253SOL    HW289593  12.870  13.844  10.320
29254SOL     OW89594   4.865  13.440   6.881
29254SOL    HW189595   4.788  13.466   6.832
29254SOL    HW289596   4.877  13.510   6.946
29255SOL     OW89597  13.252   9.555   0.642
29255SOL    HW189598  13.167   9.600   0.637
29255SOL    HW289599  13.277   9.541   0.551
29256SOL     OW89600   9.070   3.907   9.310
29256SOL    HW189601   9.073   3.977   9.375
29256SOL    HW289602   8.987   3.918   9.265
29257SOL     OW89603  12.411   0.434  14.174
29257SOL    HW189604  12.503   0.426  14.199
29257SOL    HW289605  12.393   0.528  14.181
29258SOL     OW89606   5.557   9.433  12.644
29258SOL    HW189607   5.479   9.407  12.594
29258SOL    HW289608   5.547   9.389  12.728
29259SOL     OW89609   5.491  10.240   6.659
29259SOL    HW189610   5.475  10.334   6.654
29259SOL    HW289611   5.568  10.231   6.715
29260SOL     OW89612  10.997   5.179   7.747
29260SOL    HW189613  11.079   5.222   7.769
29260SOL    HW289614  11.021   5.090   7.722
29261SOL     OW89615  11.090   3.820   1.480
29261SOL    HW189616  11.142   3.888   1.437
29261SOL    HW289617  11.122   3.819   1.570
29262SOL     OW89618   7.682   6.766   1.615
29262SOL    HW189619   7.682   6.774   1.711
29262SOL    HW289620   7.770   6.791   1.589
29263SOL     OW89621  12.931  12.449   0.768
29263SOL    HW189622  12.966  12.462   0.855
29263SOL    HW289623  12.860  12.513   0.760
29264SOL     OW89624  14.063   6.279  13.064
29264SOL    HW189625  14.014   6.211  13.018
29264SOL    HW289626  14.039   6.268  13.156
29265SOL     OW89627   4.476   5.483   3.825
29265SOL    HW189628   4.402   5.471   3.766
29265SOL    HW289629   4.463   5.419   3.895
29266SOL     OW89630   9.683  12.130   8.237
29266SOL    HW189631   9.735  12.161   8.162
29266SOL    HW289632   9.596  12.115   8.201
29267SOL     OW89633   8.076   3.198   5.912
29267SOL    HW189634   7.988   3.172   5.888
29267SOL    HW289635   8.064   3.276   5.967
29268SOL     OW89636   0.507  11.625  11.305
29268SOL    HW189637   0.420  11.656  11.328
29268SOL    HW289638   0.517  11.543  11.353
29269SOL     OW89639   6.699  12.044  14.199
29269SOL    HW189640   6.676  11.956  14.230
29269SOL    HW289641   6.691  12.039  14.104
29270SOL     OW89642   4.549   3.810  13.360
29270SOL    HW189643   4.641   3.798  13.384
29270SOL    HW289644   4.509   3.847  13.438
29271SOL     OW89645   2.885   4.699  11.118
29271SOL    HW189646   2.869   4.616  11.074
29271SOL    HW289647   2.914   4.758  11.048
29272SOL     OW89648  11.466  11.967   4.022
29272SOL    HW189649  11.466  12.059   4.050
29272SOL    HW289650  11.399  11.962   3.954
29273SOL     OW89651  12.670   9.637  13.557
29273SOL    HW189652  12.695   9.545  13.553
29273SOL    HW289653  12.741   9.680  13.605
29274SOL     OW89654   6.183   8.745   8.455
29274SOL    HW189655   6.107   8.705   8.414
29274SOL    HW289656   6.230   8.786   8.382
29275SOL     OW89657   0.485  11.619  13.865
29275SOL    HW189658   0.508  11.697  13.914
29275SOL    HW289659   0.425  11.571  13.922
29276SOL     OW89660  13.145  12.932   6.711
29276SOL    HW189661  13.162  13.025   6.696
29276SOL    HW289662  13.178  12.888   6.632
29277SOL     OW89663   9.823   3.300   7.149
29277SOL    HW189664   9.840   3.223   7.203
29277SOL    HW289665   9.834   3.270   7.059
29278SOL     OW89666  11.503  12.063  11.523
29278SOL    HW189667  11.529  11.977  11.556
29278SOL    HW289668  11.585  12.107  11.503
29279SOL     OW89669   6.442  11.264  10.532
29279SOL    HW189670   6.460  11.212  10.454
29279SOL    HW289671   6.413  11.201  10.597
29280SOL     OW89672   2.326  10.918  12.556
29280SOL    HW189673   2.245  10.966  12.539
29280SOL    HW289674   2.322  10.896  12.649
29281SOL     OW89675  13.808   6.205   2.808
29281SOL    HW189676  13.804   6.174   2.718
29281SOL    HW289677  13.722   6.184   2.844
29282SOL     OW89678   1.643   7.886  13.775
29282SOL    HW189679   1.559   7.863  13.736
29282SOL    HW289680   1.706   7.878  13.703
29283SOL     OW89681   0.570   4.709   9.039
29283SOL    HW189682   0.548   4.616   9.029
29283SOL    HW289683   0.628   4.727   8.965
29284SOL     OW89684  10.234   2.231   8.304
29284SOL    HW189685  10.294   2.306   8.308
29284SOL    HW289686  10.147   2.269   8.317
29285SOL     OW89687   5.811   9.166   9.696
29285SOL    HW189688   5.751   9.115   9.750
29285SOL    HW289689   5.769   9.250   9.685
29286SOL     OW89690   4.827   8.071   6.623
29286SOL    HW189691   4.793   7.982   6.617
29286SOL    HW289692   4.917   8.060   6.653
29287SOL     OW89693   9.069   7.112   6.396
29287SOL    HW189694   8.976   7.116   6.373
29287SOL    HW289695   9.115   7.136   6.315
29288SOL     OW89696  11.797  12.727   3.910
29288SOL    HW189697  11.778  12.635   3.928
29288SOL    HW289698  11.716  12.762   3.871
29289SOL     OW89699   1.684  11.305   8.000
29289SOL    HW189700   1.758  11.271   7.949
29289SOL    HW289701   1.611  11.308   7.938
29290SOL     OW89702  11.541   4.248   1.508
29290SOL    HW189703  11.518   4.315   1.572
29290SOL    HW289704  11.479   4.176   1.526
29291SOL     OW89705   2.642   2.651   0.617
29291SOL    HW189706   2.666   2.596   0.692
29291SOL    HW289707   2.646   2.592   0.542
29292SOL     OW89708   8.562   5.226   3.279
29292SOL    HW189709   8.540   5.219   3.371
29292SOL    HW289710   8.501   5.292   3.244
29293SOL     OW89711  14.014  11.999   3.124
29293SOL    HW189712  14.027  11.908   3.095
29293SOL    HW289713  13.924  12.001   3.157
29294SOL     OW89714  13.148   6.317   0.084
29294SOL    HW189715  13.109   6.278   0.163
29294SOL    HW289716  13.083   6.303   0.016
29295SOL     OW89717   6.151   9.668   5.237
29295SOL    HW189718   6.135   9.612   5.314
29295SOL    HW289719   6.161   9.756   5.273
29296SOL     OW89720   0.425  14.339   1.449
29296SOL    HW189721   0.439  14.335   1.355
29296SOL    HW289722   0.513  14.334   1.486
29297SOL     OW89723   2.521   1.210   6.461
29297SOL    HW189724   2.574   1.290   6.456
29297SOL    HW289725   2.474   1.207   6.377
29298SOL     OW89726  13.535   0.886  12.535
29298SOL    HW189727  13.566   0.835  12.460
29298SOL    HW289728  13.458   0.839  12.566
29299SOL     OW89729   5.445   0.786  14.070
29299SOL    HW189730   5.438   0.720  14.139
29299SOL    HW289731   5.527   0.832  14.088
29300SOL     OW89732  14.772   1.935   5.380
29300SOL    HW189733  14.757   1.937   5.474
29300SOL    HW289734  14.794   2.026   5.357
29301SOL     OW89735  10.636   3.520  11.339
29301SOL    HW189736  10.625   3.426  11.355
29301SOL    HW289737  10.707   3.524  11.274
29302SOL     OW89738   6.741  13.948   3.312
29302SOL    HW189739   6.738  14.043   3.303
29302SOL    HW289740   6.692  13.915   3.236
29303SOL     OW89741   8.314   3.308   4.899
29303SOL    HW189742   8.258   3.327   4.974
29303SOL    HW289743   8.255   3.310   4.823
29304SOL     OW89744  11.936   7.426   8.632
29304SOL    HW189745  11.863   7.445   8.573
29304SOL    HW289746  11.955   7.333   8.616
29305SOL     OW89747   4.002  11.898   1.524
29305SOL    HW189748   4.010  11.966   1.457
29305SOL    HW289749   3.962  11.943   1.598
29306SOL     OW89750   1.028   5.386   8.540
29306SOL    HW189751   0.973   5.313   8.568
29306SOL    HW289752   0.973   5.463   8.549
29307SOL     OW89753   6.210   9.480   4.479
29307SOL    HW189754   6.276   9.462   4.412
29307SOL    HW289755   6.133   9.506   4.429
29308SOL     OW89756   9.609   1.022  13.175
29308SOL    HW189757   9.612   0.988  13.086
29308SOL    HW289758   9.612   0.945  13.231
29309SOL     OW89759   8.634  11.807   4.688
29309SOL    HW189760   8.608  11.849   4.607
29309SOL    HW289761   8.728  11.821   4.694
29310SOL     OW89762   7.722   5.152   3.335
29310SOL    HW189763   7.778   5.078   3.311
29310SOL    HW289764   7.766   5.192   3.410
29311SOL     OW89765   8.831   9.637  12.599
29311SOL    HW189766   8.877   9.690  12.664
29311SOL    HW289767   8.893   9.628  12.527
29312SOL     OW89768  11.588   0.479  14.576
29312SOL    HW189769  11.580   0.567  14.540
29312SOL    HW289770  11.536   0.481  14.657
29313SOL     OW89771  10.136   2.841   7.308
29313SOL    HW189772  10.131   2.899   7.385
29313SOL    HW289773  10.210   2.784   7.326
29314SOL     OW89774   6.130   1.208   5.276
29314SOL    HW189775   6.080   1.285   5.249
29314SOL    HW289776   6.131   1.211   5.371
29315SOL     OW89777   1.446   2.079   4.945
29315SOL    HW189778   1.512   2.115   4.886
29315SOL    HW289779   1.429   2.151   5.007
29316SOL     OW89780   7.617  11.411   9.015
29316SOL    HW189781   7.661  11.496   9.012
29316SOL    HW289782   7.689  11.348   9.026
29317SOL     OW89783   6.195   0.903   9.341
29317SOL    HW189784   6.215   0.836   9.406
29317SOL    HW289785   6.191   0.856   9.258
29318SOL     OW89786   2.299   0.817   5.935
29318SOL    HW189787   2.312   0.753   6.005
29318SOL    HW289788   2.210   0.800   5.903
29319SOL     OW89789   6.538   1.474   2.569
29319SOL    HW189790   6.613   1.526   2.599
29319SOL    HW289791   6.506   1.431   2.649
29320SOL     OW89792   8.719   3.097   6.149
29320SOL    HW189793   8.640   3.147   6.125
29320SOL    HW289794   8.685   3.016   6.189
29321SOL     OW89795   8.219   4.292  14.634
29321SOL    HW189796   8.252   4.306  14.723
29321SOL    HW289797   8.129   4.324  14.637
29322SOL     OW89798  12.651  12.007   7.563
29322SOL    HW189799  12.633  11.959   7.644
29322SOL    HW289800  12.726  11.961   7.525
29323SOL     OW89801   4.966   3.074   0.870
29323SOL    HW189802   4.962   3.170   0.877
29323SOL    HW289803   4.955   3.043   0.960
29324SOL     OW89804   5.340   1.722  14.197
29324SOL    HW189805   5.410   1.685  14.251
29324SOL    HW289806   5.262   1.673  14.221
29325SOL     OW89807   9.917   4.008  11.122
29325SOL    HW189808   9.995   4.062  11.113
29325SOL    HW289809   9.923   3.972  11.211
29326SOL     OW89810   3.163  10.267   4.872
29326SOL    HW189811   3.167  10.349   4.822
29326SOL    HW289812   3.253  10.253   4.901
29327SOL     OW89813   9.534   4.819   5.331
29327SOL    HW189814   9.566   4.897   5.375
29327SOL    HW289815   9.597   4.750   5.354
29328SOL     OW89816   5.908  10.729   7.801
29328SOL    HW189817   5.868  10.690   7.879
29328SOL    HW289818   5.957  10.658   7.760
29329SOL     OW89819   9.165   2.715  11.305
29329SOL    HW189820   9.174   2.721  11.400
29329SOL    HW289821   9.199   2.799  11.272
29330SOL     OW89822   7.429   9.772   5.875
29330SOL    HW189823   7.474   9.853   5.852
29330SOL    HW289824   7.386   9.792   5.958
29331SOL     OW89825  13.700   3.880   6.989
29331SOL    HW189826  13.795   3.893   6.991
29331SOL    HW289827  13.665   3.961   6.952
29332SOL     OW89828  13.376   5.292  11.863
29332SOL    HW189829  13.388   5.221  11.926
29332SOL    HW289830  13.417   5.368  11.904
29333SOL     OW89831  11.479  10.322   5.342
29333SOL    HW189832  11.462  10.353   5.431
29333SOL    HW289833  11.525  10.394   5.300
29334SOL     OW89834   6.404  14.795   2.930
29334SOL    HW189835   6.417  14.824   2.840
29334SOL    HW289836   6.317  14.828   2.954
29335SOL     OW89837   7.045  11.636  14.064
29335SOL    HW189838   6.992  11.620  13.986
29335SOL    HW289839   7.008  11.715  14.102
29336SOL     OW89840  14.527   6.482   1.542
29336SOL    HW189841  14.511   6.466   1.449
29336SOL    HW289842  14.588   6.414   1.568
29337SOL     OW89843   5.818  12.170  10.501
29337SOL    HW189844   5.785  12.081  10.490
29337SOL    HW289845   5.900  12.160  10.549
29338SOL     OW89846  11.118   9.876  11.014
29338SOL    HW189847  11.177   9.850  10.943
29338SOL    HW289848  11.106   9.970  11.001
29339SOL     OW89849   9.921   2.817   1.381
29339SOL    HW189850   9.846   2.806   1.324
29339SOL    HW289851   9.903   2.899   1.429
29340SOL     OW89852  10.398   3.625   5.405
29340SOL    HW189853  10.445   3.698   5.445
29340SOL    HW289854  10.455   3.597   5.333
29341SOL     OW89855   5.508  11.500   3.013
29341SOL    HW189856   5.506  11.472   3.105
29341SOL    HW289857   5.441  11.569   3.008
29342SOL     OW89858  13.497   4.439  13.233
29342SOL    HW189859  13.500   4.346  13.257
29342SOL    HW289860  13.587   4.461  13.209
29343SOL     OW89861  13.830   6.767  11.935
29343SOL    HW189862  13.746   6.758  11.979
29343SOL    HW289863  13.893   6.725  11.993
29344SOL     OW89864  12.132   2.113   1.226
29344SOL    HW189865  12.082   2.188   1.193
29344SOL    HW289866  12.212   2.152   1.263
29345SOL     OW89867  10.439   3.034  13.874
29345SOL    HW189868  10.385   2.955  13.879
29345SOL    HW289869  10.393   3.091  13.812
29346SOL     OW89870   3.141   4.016   1.078
29346SOL    HW189871   3.068   3.960   1.105
29346SOL    HW289872   3.168   4.059   1.159
29347SOL     OW89873   0.090   5.936   2.048
29347SOL    HW189874   0.180   5.958   2.071
29347SOL    HW289875   0.085   5.948   1.953
29348SOL     OW89876  11.932   7.264  10.995
29348SOL    HW189877  12.024   7.277  10.973
29348SOL    HW289878  11.932   7.189  11.055
29349SOL     OW89879   4.291   3.839   4.135
29349SOL    HW189880   4.246   3.894   4.199
29349SOL    HW289881   4.279   3.750   4.167
29350SOL     OW89882   8.927   8.337   2.771
29350SOL    HW189883   8.900   8.269   2.710
29350SOL    HW289884   8.925   8.418   2.718
29351SOL     OW89885   5.135  11.698   5.952
29351SOL    HW189886   5.090  11.661   5.876
29351SOL    HW289887   5.207  11.749   5.915
29352SOL     OW89888   2.988   2.794  14.006
29352SOL    HW189889   3.076   2.823  13.982
29352SOL    HW289890   2.947   2.773  13.922
29353SOL     OW89891   0.371  14.424   7.245
29353SOL    HW189892   0.396  14.335   7.270
29353SOL    HW289893   0.315  14.454   7.316
29354SOL     OW89894   4.807  12.594   5.127
29354SOL    HW189895   4.823  12.559   5.214
29354SOL    HW289896   4.719  12.563   5.105
29355SOL     OW89897   4.526  14.488  10.217
29355SOL    HW189898   4.509  14.540  10.138
29355SOL    HW289899   4.575  14.548  10.274
29356SOL     OW89900   2.865   2.534   2.343
29356SOL    HW189901   2.847   2.549   2.250
29356SOL    HW289902   2.958   2.511   2.346
29357SOL     OW89903   7.167   5.055   1.033
29357SOL    HW189904   7.133   5.141   1.011
29357SOL    HW289905   7.117   4.995   0.977
29358SOL     OW89906   3.122   3.194  12.515
29358SOL    HW189907   3.085   3.160  12.434
29358SOL    HW289908   3.133   3.288  12.499
29359SOL     OW89909  12.381   0.837   6.294
29359SOL    HW189910  12.303   0.867   6.340
29359SOL    HW289911  12.402   0.907   6.232
29360SOL     OW89912  12.221   5.142   5.651
29360SOL    HW189913  12.306   5.102   5.633
29360SOL    HW289914  12.224   5.225   5.603
29361SOL     OW89915  13.910  14.225  11.433
29361SOL    HW189916  13.943  14.314  11.418
29361SOL    HW289917  13.857  14.232  11.512
29362SOL     OW89918   4.719   6.861   1.958
29362SOL    HW189919   4.763   6.935   2.000
29362SOL    HW289920   4.669   6.820   2.028
29363SOL     OW89921  11.193   1.888   3.183
29363SOL    HW189922  11.178   1.863   3.274
29363SOL    HW289923  11.285   1.913   3.180
29364SOL     OW89924   4.449  12.552   9.802
29364SOL    HW189925   4.496  12.493   9.744
29364SOL    HW289926   4.419  12.623   9.746
29365SOL     OW89927   5.413   5.893  14.301
29365SOL    HW189928   5.500   5.866  14.270
29365SOL    HW289929   5.393   5.832  14.372
29366SOL     OW89930  10.348  13.077   1.143
29366SOL    HW189931  10.359  13.023   1.222
29366SOL    HW289932  10.318  13.015   1.076
29367SOL     OW89933   2.101   5.335   1.794
29367SOL    HW189934   2.130   5.246   1.778
29367SOL    HW289935   2.117   5.349   1.887
29368SOL     OW89936   2.331  12.095   3.686
29368SOL    HW189937   2.327  12.000   3.672
29368SOL    HW289938   2.355  12.131   3.601
29369SOL     OW89939   7.930   2.056  12.636
29369SOL    HW189940   7.843   2.071  12.597
29369SOL    HW289941   7.991   2.065  12.563
29370SOL     OW89942  10.971  10.090   3.584
29370SOL    HW189943  10.934  10.052   3.664
29370SOL    HW289944  11.023  10.164   3.614
29371SOL     OW89945   0.662   9.467   7.819
29371SOL    HW189946   0.754   9.495   7.826
29371SOL    HW289947   0.615   9.546   7.791
29372SOL     OW89948  10.838   6.810   4.133
29372SOL    HW189949  10.795   6.752   4.196
29372SOL    HW289950  10.923   6.770   4.117
29373SOL     OW89951  11.797  12.465   3.432
29373SOL    HW189952  11.846  12.423   3.361
29373SOL    HW289953  11.728  12.403   3.454
29374SOL     OW89954   7.646   7.493   2.682
29374SOL    HW189955   7.710   7.460   2.619
29374SOL    HW289956   7.572   7.520   2.628
29375SOL     OW89957   8.794   6.661   0.663
29375SOL    HW189958   8.851   6.641   0.588
29375SOL    HW289959   8.773   6.754   0.653
29376SOL     OW89960  10.581  11.997   3.414
29376SOL    HW189961  10.538  11.962   3.335
29376SOL    HW289962  10.670  12.016   3.385
29377SOL     OW89963  14.038   8.423   2.174
29377SOL    HW189964  14.106   8.360   2.153
29377SOL    HW289965  14.020   8.408   2.267
29378SOL     OW89966  10.774   7.475   4.696
29378SOL    HW189967  10.686   7.440   4.678
29378SOL    HW289968  10.761   7.534   4.770
29379SOL     OW89969  11.248   8.997   5.088
29379SOL    HW189970  11.187   8.995   5.014
29379SOL    HW289971  11.197   9.035   5.160
29380SOL     OW89972  11.018  13.409  11.845
29380SOL    HW189973  11.044  13.425  11.936
29380SOL    HW289974  10.952  13.340  11.851
29381SOL     OW89975  11.063   6.800   5.193
29381SOL    HW189976  11.104   6.742   5.257
29381SOL    HW289977  10.973   6.767   5.185
29382SOL     OW89978  11.129   3.037   8.774
29382SOL    HW189979  11.117   3.085   8.692
29382SOL    HW289980  11.221   3.052   8.797
29383SOL     OW89981  11.594   5.058   8.915
29383SOL    HW189982  11.517   5.033   8.863
29383SOL    HW289983  11.667   5.050   8.854
29384SOL     OW89984  12.892   7.076  12.861
29384SOL    HW189985  12.890   7.041  12.950
29384SOL    HW289986  12.905   7.170  12.872
29385SOL     OW89987   1.395  11.021   5.174
29385SOL    HW189988   1.362  10.931   5.179
29385SOL    HW289989   1.485  11.011   5.143
29386SOL     OW89990   3.114   3.788  12.313
29386SOL    HW189991   3.086   3.757  12.400
29386SOL    HW289992   3.128   3.708  12.263
29387SOL     OW89993  12.706   5.248   6.537
29387SOL    HW189994  12.626   5.214   6.497
29387SOL    HW289995  12.753   5.289   6.464
29388SOL     OW89996   5.446  10.200  14.571
29388SOL    HW189997   5.453  10.290  14.540
29388SOL    HW289998   5.380  10.204  14.640
29389SOL     OW89999   3.575   3.248   4.395
29389SOL    HW190000   3.501   3.305   4.414
29389SOL    HW290001   3.597   3.266   4.304
29390SOL     OW90002   0.959   0.183   1.671
29390SOL    HW190003   0.920   0.095   1.669
29390SOL    HW290004   0.886   0.243   1.657
29391SOL     OW90005   9.642   5.153   3.421
29391SOL    HW190006   9.630   5.066   3.384
29391SOL    HW290007   9.598   5.211   3.360
29392SOL     OW90008  14.357   3.347   4.957
29392SOL    HW190009  14.372   3.332   4.864
29392SOL    HW290010  14.370   3.441   4.969
29393SOL     OW90011   9.414   6.136   8.512
29393SOL    HW190012   9.383   6.143   8.422
29393SOL    HW290013   9.449   6.223   8.532
29394SOL     OW90014  14.395  10.040   9.072
29394SOL    HW190015  14.343   9.961   9.066
29394SOL    HW290016  14.333  10.111   9.059
29395SOL     OW90017   7.622  14.452  13.113
29395SOL    HW190018   7.714  14.452  13.087
29395SOL    HW290019   7.577  14.496  13.041
29396SOL     OW90020  10.242  14.222   8.097
29396SOL    HW190021  10.276  14.133   8.082
29396SOL    HW290022  10.158  14.208   8.140
29397SOL     OW90023  11.883   4.650   2.199
29397SOL    HW190024  11.859   4.585   2.132
29397SOL    HW290025  11.799   4.688   2.226
29398SOL     OW90026  13.457   6.278   0.894
29398SOL    HW190027  13.416   6.331   0.963
29398SOL    HW290028  13.410   6.194   0.897
29399SOL     OW90029   0.582  13.983  11.747
29399SOL    HW190030   0.620  14.066  11.775
29399SOL    HW290031   0.657  13.924  11.740
29400SOL     OW90032   5.327   4.589   6.535
29400SOL    HW190033   5.347   4.675   6.498
29400SOL    HW290034   5.406   4.538   6.519
29401SOL     OW90035   1.921   4.546  12.364
29401SOL    HW190036   1.994   4.577  12.309
29401SOL    HW290037   1.846   4.598  12.336
29402SOL     OW90038   6.041   5.333  12.379
29402SOL    HW190039   6.005   5.300  12.296
29402SOL    HW290040   6.111   5.271  12.400
29403SOL     OW90041  11.783   5.345  12.072
29403SOL    HW190042  11.705   5.327  12.124
29403SOL    HW290043  11.751   5.390  11.994
29404SOL     OW90044   8.853   0.923   9.302
29404SOL    HW190045   8.833   1.015   9.286
29404SOL    HW290046   8.796   0.899   9.375
29405SOL     OW90047   0.362   3.372   5.897
29405SOL    HW190048   0.281   3.416   5.922
29405SOL    HW290049   0.429   3.440   5.903
29406SOL     OW90050   3.066   4.954  11.337
29406SOL    HW190051   3.075   5.039  11.380
29406SOL    HW290052   3.097   4.891  11.402
29407SOL     OW90053   1.904   5.224   9.688
29407SOL    HW190054   1.832   5.241   9.628
29407SOL    HW290055   1.982   5.252   9.640
29408SOL     OW90056   6.719   2.104  12.115
29408SOL    HW190057   6.716   2.158  12.036
29408SOL    HW290058   6.633   2.063  12.119
29409SOL     OW90059   9.769   5.362   7.483
29409SOL    HW190060   9.740   5.365   7.392
29409SOL    HW290061   9.721   5.288   7.521
29410SOL     OW90062   9.488   0.489   0.729
29410SOL    HW190063   9.476   0.567   0.675
29410SOL    HW290064   9.402   0.473   0.768
29411SOL     OW90065   4.463   1.233   4.488
29411SOL    HW190066   4.409   1.156   4.469
29411SOL    HW290067   4.529   1.201   4.550
29412SOL     OW90068   4.817  13.375   2.287
29412SOL    HW190069   4.751  13.311   2.259
29412SOL    HW290070   4.802  13.385   2.381
29413SOL     OW90071   7.880   3.530   4.745
29413SOL    HW190072   7.957   3.572   4.783
29413SOL    HW290073   7.828   3.503   4.820
29414SOL     OW90074   3.993   2.656  10.196
29414SOL    HW190075   4.076   2.653  10.244
29414SOL    HW290076   4.012   2.611  10.113
29415SOL     OW90077  11.696  12.963  13.476
29415SOL    HW190078  11.763  13.029  13.495
29415SOL    HW290079  11.688  12.963  13.381
29416SOL     OW90080  11.377   6.916  12.903
29416SOL    HW190081  11.380   6.983  12.971
29416SOL    HW290082  11.446   6.853  12.928
29417SOL     OW90083   5.468   0.430   7.718
29417SOL    HW190084   5.539   0.485   7.686
29417SOL    HW290085   5.472   0.351   7.665
29418SOL     OW90086   5.062  11.282   5.261
29418SOL    HW190087   5.147  11.252   5.294
29418SOL    HW290088   5.031  11.210   5.206
29419SOL     OW90089   3.515   3.570   7.647
29419SOL    HW190090   3.520   3.601   7.557
29419SOL    HW290091   3.544   3.479   7.643
29420SOL     OW90092   4.180   0.872  14.737
29420SOL    HW190093   4.263   0.824  14.741
29420SOL    HW290094   4.145   0.852  14.650
29421SOL     OW90095  10.199  11.846   3.895
29421SOL    HW190096  10.187  11.927   3.944
29421SOL    HW290097  10.128  11.846   3.830
29422SOL     OW90098   1.002   7.614   1.215
29422SOL    HW190099   0.992   7.520   1.228
29422SOL    HW290100   1.074   7.638   1.274
29423SOL     OW90101  10.102  11.922   3.540
29423SOL    HW190102  10.167  11.991   3.548
29423SOL    HW290103  10.018  11.968   3.536
29424SOL     OW90104  12.361  10.033   2.727
29424SOL    HW190105  12.344   9.942   2.750
29424SOL    HW290106  12.301  10.083   2.782
29425SOL     OW90107  13.203  14.023   2.743
29425SOL    HW190108  13.294  13.995   2.728
29425SOL    HW290109  13.187  14.088   2.675
29426SOL     OW90110   1.660   7.316  11.313
29426SOL    HW190111   1.594   7.345  11.250
29426SOL    HW290112   1.653   7.379  11.385
29427SOL     OW90113   4.774   6.272   5.611
29427SOL    HW190114   4.807   6.342   5.668
29427SOL    HW290115   4.853   6.226   5.581
29428SOL     OW90116  13.479   1.394   1.385
29428SOL    HW190117  13.477   1.299   1.389
29428SOL    HW290118  13.425   1.416   1.309
29429SOL     OW90119  12.984   2.186   1.463
29429SOL    HW190120  13.025   2.267   1.434
29429SOL    HW290121  12.931   2.211   1.539
29430SOL     OW90122   5.657  14.290   0.486
29430SOL    HW190123   5.562  14.300   0.477
29430SOL    HW290124   5.690  14.299   0.397
29431SOL     OW90125   0.112   8.375   5.772
29431SOL    HW190126   0.083   8.375   5.681
29431SOL    HW290127   0.114   8.467   5.797
29432SOL     OW90128   1.523   1.806   9.355
29432SOL    HW190129   1.512   1.817   9.260
29432SOL    HW290130   1.565   1.721   9.365
29433SOL     OW90131  13.697   9.976   3.695
29433SOL    HW190132  13.697  10.068   3.668
29433SOL    HW290133  13.610   9.944   3.670
29434SOL     OW90134  14.738  10.182   4.604
29434SOL    HW190135  14.740  10.230   4.687
29434SOL    HW290136  14.673  10.228   4.552
29435SOL     OW90137  12.178   2.242   3.121
29435SOL    HW190138  12.232   2.318   3.143
29435SOL    HW290139  12.181   2.237   3.026
29436SOL     OW90140   0.504  13.754   2.912
29436SOL    HW190141   0.532  13.715   2.994
29436SOL    HW290142   0.462  13.683   2.864
29437SOL     OW90143   7.431   6.971   7.721
29437SOL    HW190144   7.457   6.883   7.694
29437SOL    HW290145   7.355   6.991   7.666
29438SOL     OW90146   1.244  12.393  13.010
29438SOL    HW190147   1.243  12.451  12.934
29438SOL    HW290148   1.335  12.364  13.017
29439SOL     OW90149   5.069  14.374   5.496
29439SOL    HW190150   5.133  14.304   5.505
29439SOL    HW290151   5.048  14.400   5.586
29440SOL     OW90152  14.849   3.528   1.012
29440SOL    HW190153   0.044   3.595   1.018
29440SOL    HW290154   0.012   3.464   0.950
29441SOL     OW90155   3.178   5.153  13.957
29441SOL    HW190156   3.225   5.144  13.874
29441SOL    HW290157   3.097   5.199  13.933
29442SOL     OW90158  10.284   2.687   8.115
29442SOL    HW190159  10.289   2.709   8.022
29442SOL    HW290160  10.332   2.604   8.123
29443SOL     OW90161   2.401   6.724   7.292
29443SOL    HW190162   2.464   6.663   7.253
29443SOL    HW290163   2.340   6.745   7.222
29444SOL     OW90164   6.097  10.194   7.736
29444SOL    HW190165   6.083  10.212   7.643
29444SOL    HW290166   6.073  10.102   7.746
29445SOL     OW90167  11.088   0.437   6.929
29445SOL    HW190168  11.023   0.507   6.931
29445SOL    HW290169  11.132   0.447   6.845
29446SOL     OW90170  13.420   6.579  14.231
29446SOL    HW190171  13.348   6.628  14.192
29446SOL    HW290172  13.398   6.487  14.215
29447SOL     OW90173   2.031   9.092  10.509
29447SOL    HW190174   2.015   9.088  10.603
29447SOL    HW290175   1.985   9.171  10.480
29448SOL     OW90176  10.104   4.691   9.650
29448SOL    HW190177  10.184   4.668   9.696
29448SOL    HW290178  10.132   4.705   9.559
29449SOL     OW90179   0.573   8.842  13.983
29449SOL    HW190180   0.618   8.768  14.025
29449SOL    HW290181   0.644   8.899  13.953
29450SOL     OW90182  10.018   1.705  10.827
29450SOL    HW190183   9.975   1.687  10.744
29450SOL    HW290184   9.965   1.773  10.868
29451SOL     OW90185   6.250  14.364  14.325
29451SOL    HW190186   6.172  14.416  14.309
29451SOL    HW290187   6.246  14.341  14.418
29452SOL     OW90188   6.219   7.508  12.750
29452SOL    HW190189   6.290   7.504  12.815
29452SOL    HW290190   6.262   7.488  12.667
29453SOL     OW90191   1.617   3.328  13.558
29453SOL    HW190192   1.542   3.386  13.546
29453SOL    HW290193   1.584   3.256  13.610
29454SOL     OW90194   7.124   6.366  13.972
29454SOL    HW190195   7.099   6.288  14.021
29454SOL    HW290196   7.101   6.347  13.881
29455SOL     OW90197  12.976   6.547   1.581
29455SOL    HW190198  13.071   6.538   1.574
29455SOL    HW290199  12.956   6.629   1.536
29456SOL     OW90200  11.574  10.746   4.269
29456SOL    HW190201  11.479  10.734   4.262
29456SOL    HW290202  11.603  10.674   4.325
29457SOL     OW90203   8.788  11.467   6.752
29457SOL    HW190204   8.862  11.528   6.749
29457SOL    HW290205   8.717  11.513   6.707
29458SOL     OW90206  12.820   4.400   6.117
29458SOL    HW190207  12.778   4.318   6.091
29458SOL    HW290208  12.774   4.426   6.197
29459SOL     OW90209   5.113   4.509  14.040
29459SOL    HW190210   5.110   4.580  13.975
29459SOL    HW290211   5.161   4.546  14.113
29460SOL     OW90212   2.067   0.238  12.258
29460SOL    HW190213   2.058   0.331  12.278
29460SOL    HW290214   2.158   0.227  12.231
29461SOL     OW90215  12.102   8.781  14.580
29461SOL    HW190216  12.193   8.795  14.553
29461SOL    HW290217  12.057   8.752  14.500
29462SOL     OW90218  13.161   2.561   6.696
29462SOL    HW190219  13.202   2.482   6.730
29462SOL    HW290220  13.161   2.549   6.601
29463SOL     OW90221  14.655  10.808   9.875
29463SOL    HW190222  14.638  10.730   9.823
29463SOL    HW290223  14.749  10.803   9.895
29464SOL     OW90224   7.215  10.402   0.566
29464SOL    HW190225   7.259  10.478   0.606
29464SOL    HW290226   7.279  10.368   0.503
29465SOL     OW90227   9.695  11.749  11.535
29465SOL    HW190228   9.619  11.800  11.508
29465SOL    HW290229   9.769  11.807  11.522
29466SOL     OW90230  10.591   6.271   8.656
29466SOL    HW190231  10.684   6.290   8.659
29466SOL    HW290232  10.560   6.317   8.578
29467SOL     OW90233   4.123  13.077   8.903
29467SOL    HW190234   4.183  13.128   8.850
29467SOL    HW290235   4.158  12.988   8.900
29468SOL     OW90236   7.520   2.352  11.570
29468SOL    HW190237   7.525   2.368  11.665
29468SOL    HW290238   7.548   2.261  11.559
29469SOL     OW90239   1.464   1.266   6.334
29469SOL    HW190240   1.386   1.321   6.330
29469SOL    HW290241   1.536   1.323   6.307
29470SOL     OW90242   6.112   0.484   7.701
29470SOL    HW190243   6.152   0.433   7.772
29470SOL    HW290244   6.034   0.434   7.677
29471SOL     OW90245  11.098  10.436  12.951
29471SOL    HW190246  11.078  10.471  12.864
29471SOL    HW290247  11.177  10.383  12.939
29472SOL     OW90248   3.009  10.048   1.922
29472SOL    HW190249   2.972   9.963   1.944
29472SOL    HW290250   3.073  10.065   1.992
29473SOL     OW90251   1.271   3.081   5.020
29473SOL    HW190252   1.224   3.069   4.938
29473SOL    HW290253   1.232   3.018   5.080
29474SOL     OW90254   1.877   3.113   0.584
29474SOL    HW190255   1.959   3.115   0.632
29474SOL    HW290256   1.863   3.020   0.565
29475SOL     OW90257   6.011   1.223   0.290
29475SOL    HW190258   6.050   1.243   0.374
29475SOL    HW290259   5.940   1.162   0.311
29476SOL     OW90260   7.348   3.420  13.637
29476SOL    HW190261   7.440   3.412  13.663
29476SOL    HW290262   7.324   3.510  13.660
29477SOL     OW90263   3.390   2.134   6.260
29477SOL    HW190264   3.470   2.096   6.224
29477SOL    HW290265   3.393   2.113   6.353
29478SOL     OW90266   2.405   2.297  12.749
29478SOL    HW190267   2.400   2.288  12.654
29478SOL    HW290268   2.436   2.386  12.763
29479SOL     OW90269  14.048   5.533   6.361
29479SOL    HW190270  14.115   5.594   6.392
29479SOL    HW290271  13.997   5.583   6.298
29480SOL     OW90272  11.034  10.893   2.673
29480SOL    HW190273  11.011  10.982   2.700
29480SOL    HW290274  11.003  10.838   2.745
29481SOL     OW90275  14.307   4.788   5.109
29481SOL    HW190276  14.241   4.742   5.056
29481SOL    HW290277  14.379   4.726   5.117
29482SOL     OW90278  10.028   2.680   6.905
29482SOL    HW190279  10.060   2.592   6.887
29482SOL    HW290280   9.990   2.710   6.823
29483SOL     OW90281   6.494   2.957  14.764
29483SOL    HW190282   6.422   2.895  14.751
29483SOL    HW290283   6.463   3.016  14.833
29484SOL     OW90284   6.023   7.231   3.804
29484SOL    HW190285   6.021   7.150   3.855
29484SOL    HW290286   5.991   7.298   3.864
29485SOL     OW90287   9.968  13.667   1.755
29485SOL    HW190288   9.944  13.722   1.681
29485SOL    HW290289   9.913  13.696   1.827
29486SOL     OW90290   3.438   4.053   6.724
29486SOL    HW190291   3.501   3.997   6.769
29486SOL    HW290292   3.355   4.037   6.769
29487SOL     OW90293  11.040   5.298   1.708
29487SOL    HW190294  11.073   5.339   1.628
29487SOL    HW290295  10.949   5.277   1.690
29488SOL     OW90296   7.856  14.117   0.380
29488SOL    HW190297   7.864  14.043   0.441
29488SOL    HW290298   7.764  14.115   0.352
29489SOL     OW90299   3.726  14.585   9.000
29489SOL    HW190300   3.679  14.659   9.038
29489SOL    HW290301   3.768  14.621   8.922
29490SOL     OW90302   4.538  14.665  13.197
29490SOL    HW190303   4.474  14.723  13.155
29490SOL    HW290304   4.581  14.720  13.263
29491SOL     OW90305   4.935   8.951   6.498
29491SOL    HW190306   5.027   8.926   6.496
29491SOL    HW290307   4.891   8.879   6.543
29492SOL     OW90308  14.852  14.329   7.238
29492SOL    HW190309   0.022  14.296   7.316
29492SOL    HW290310  14.798  14.256   7.208
29493SOL     OW90311   4.444   5.519   1.637
29493SOL    HW190312   4.499   5.441   1.644
29493SOL    HW290313   4.506   5.591   1.630
29494SOL     OW90314   7.082  10.279   5.500
29494SOL    HW190315   7.021  10.206   5.487
29494SOL    HW290316   7.105  10.306   5.411
29495SOL     OW90317   5.460   7.682   4.714
29495SOL    HW190318   5.444   7.729   4.795
29495SOL    HW290319   5.553   7.695   4.696
29496SOL     OW90320  10.334   7.741   4.226
29496SOL    HW190321  10.398   7.669   4.224
29496SOL    HW290322  10.376   7.811   4.175
29497SOL     OW90323  14.726   1.825   1.008
29497SOL    HW190324  14.690   1.738   1.030
29497SOL    HW290325  14.764   1.813   0.921
29498SOL     OW90326  14.564   9.791  14.098
29498SOL    HW190327  14.631   9.779  14.031
29498SOL    HW290328  14.502   9.854  14.060
29499SOL     OW90329   4.615   8.902   6.509
29499SOL    HW190330   4.637   8.988   6.546
29499SOL    HW290331   4.526   8.885   6.540
29500SOL     OW90332  12.653   8.868   6.542
29500SOL    HW190333  12.692   8.899   6.460
29500SOL    HW290334  12.728   8.840   6.595
29501SOL     OW90335  12.103  14.489   3.782
29501SOL    HW190336  12.091  14.580   3.808
29501SOL    HW290337  12.194  14.484   3.753
29502SOL     OW90338  12.222   0.225  11.041
29502SOL    HW190339  12.213   0.166  11.116
29502SOL    HW290340  12.138   0.218  10.995
29503SOL     OW90341   6.871  12.486   0.272
29503SOL    HW190342   6.792  12.440   0.299
29503SOL    HW290343   6.885  12.459   0.181
29504SOL     OW90344  13.177   8.709  12.324
29504SOL    HW190345  13.237   8.778  12.350
29504SOL    HW290346  13.176   8.713  12.228
29505SOL     OW90347  14.388  12.485   1.569
29505SOL    HW190348  14.379  12.438   1.653
29505SOL    HW290349  14.460  12.440   1.525
29506SOL     OW90350   6.001   1.314  12.756
29506SOL    HW190351   6.028   1.278  12.671
29506SOL    HW290352   6.029   1.248  12.820
29507SOL     OW90353  12.064   7.126   3.069
29507SOL    HW190354  12.111   7.141   3.151
29507SOL    HW290355  12.003   7.200   3.064
29508SOL     OW90356  11.190   0.632   6.238
29508SOL    HW190357  11.105   0.659   6.273
29508SOL    HW290358  11.254   0.671   6.297
29509SOL     OW90359   6.507   2.024   2.933
29509SOL    HW190360   6.430   2.078   2.950
29509SOL    HW290361   6.497   1.950   2.993
29510SOL     OW90362   7.722   0.386  12.711
29510SOL    HW190363   7.736   0.401  12.618
29510SOL    HW290364   7.806   0.351  12.742
29511SOL     OW90365  12.132   6.066  11.277
29511SOL    HW190366  12.221   6.076  11.242
29511SOL    HW290367  12.117   6.147  11.326
29512SOL     OW90368   4.890   3.897  12.987
29512SOL    HW190369   4.832   3.968  12.960
29512SOL    HW290370   4.891   3.902  13.083
29513SOL     OW90371  12.326   9.955   8.506
29513SOL    HW190372  12.391   9.997   8.562
29513SOL    HW290373  12.265   9.913   8.567
29514SOL     OW90374   9.914   9.680   9.122
29514SOL    HW190375   9.924   9.614   9.053
29514SOL    HW290376   9.977   9.748   9.099
29515SOL     OW90377   3.743   7.160  13.149
29515SOL    HW190378   3.700   7.213  13.216
29515SOL    HW290379   3.778   7.084  13.197
29516SOL     OW90380   0.740   7.824  10.957
29516SOL    HW190381   0.647   7.836  10.975
29516SOL    HW290382   0.784   7.868  11.030
29517SOL     OW90383  11.714  13.574   7.411
29517SOL    HW190384  11.650  13.508   7.437
29517SOL    HW290385  11.797  13.545   7.451
29518SOL     OW90386   5.353  11.156   5.198
29518SOL    HW190387   5.366  11.249   5.217
29518SOL    HW290388   5.422  11.134   5.135
29519SOL     OW90389  12.520  13.353   6.621
29519SOL    HW190390  12.436  13.398   6.614
29519SOL    HW290391  12.535  13.345   6.716
29520SOL     OW90392  12.061   0.189   2.314
29520SOL    HW190393  12.149   0.191   2.352
29520SOL    HW290394  12.043   0.097   2.300
29521SOL     OW90395  13.012   8.161   6.822
29521SOL    HW190396  13.034   8.079   6.866
29521SOL    HW290397  13.053   8.229   6.876
29522SOL     OW90398   4.444   2.455   0.934
29522SOL    HW190399   4.504   2.468   1.007
29522SOL    HW290400   4.450   2.535   0.883
29523SOL     OW90401   8.754   0.574   5.216
29523SOL    HW190402   8.692   0.506   5.244
29523SOL    HW290403   8.828   0.525   5.179
29524SOL     OW90404   5.422   3.917  13.750
29524SOL    HW190405   5.458   3.913  13.838
29524SOL    HW290406   5.465   3.845  13.703
29525SOL     OW90407   4.757  10.460   6.317
29525SOL    HW190408   4.754  10.376   6.272
29525SOL    HW290409   4.737  10.438   6.408
29526SOL     OW90410   0.122  14.697   9.548
29526SOL    HW190411   0.216  14.680   9.544
29526SOL    HW290412   0.083  14.612   9.569
29527SOL     OW90413   8.938  14.420   5.486
29527SOL    HW190414   8.848  14.447   5.467
29527SOL    HW290415   8.989  14.451   5.411
29528SOL     OW90416   0.474   4.332  13.032
29528SOL    HW190417   0.473   4.399  12.964
29528SOL    HW290418   0.456   4.250  12.985
29529SOL     OW90419   3.027  10.496  13.330
29529SOL    HW190420   3.006  10.522  13.241
29529SOL    HW290421   2.980  10.558  13.386
29530SOL     OW90422   4.265   3.797  14.563
29530SOL    HW190423   4.199   3.859  14.593
29530SOL    HW290424   4.332   3.798  14.631
29531SOL     OW90425   1.864   7.894   3.687
29531SOL    HW190426   1.777   7.862   3.710
29531SOL    HW290427   1.848   7.973   3.635
29532SOL     OW90428   1.233   9.067  10.705
29532SOL    HW190429   1.325   9.092  10.711
29532SOL    HW290430   1.234   8.979  10.667
29533SOL     OW90431  13.524  13.312   9.044
29533SOL    HW190432  13.599  13.254   9.036
29533SOL    HW290433  13.493  13.300   9.134
29534SOL     OW90434   6.537   1.159   0.759
29534SOL    HW190435   6.485   1.139   0.681
29534SOL    HW290436   6.581   1.077   0.780
29535SOL     OW90437   0.640   4.420  11.817
29535SOL    HW190438   0.611   4.410  11.726
29535SOL    HW290439   0.719   4.474  11.811
29536SOL     OW90440  14.147  10.118   2.705
29536SOL    HW190441  14.109  10.076   2.629
29536SOL    HW290442  14.125  10.061   2.778
29537SOL     OW90443  10.869   1.063  12.968
29537SOL    HW190444  10.808   1.133  12.993
29537SOL    HW290445  10.945   1.076  13.025
29538SOL     OW90446   0.596   5.349   2.050
29538SOL    HW190447   0.527   5.284   2.046
29538SOL    HW290448   0.656   5.325   1.979
29539SOL     OW90449  11.903   6.365   1.315
29539SOL    HW190450  11.829   6.307   1.330
29539SOL    HW290451  11.968   6.310   1.272
29540SOL     OW90452   4.379  12.598   5.853
29540SOL    HW190453   4.295  12.628   5.890
29540SOL    HW290454   4.445  12.627   5.916
29541SOL     OW90455   9.688   1.230   6.983
29541SOL    HW190456   9.767   1.195   6.943
29541SOL    HW290457   9.638   1.266   6.910
29542SOL     OW90458  11.228   0.541   3.581
29542SOL    HW190459  11.188   0.478   3.522
29542SOL    HW290460  11.261   0.611   3.524
29543SOL     OW90461  11.683  12.546   9.426
29543SOL    HW190462  11.704  12.463   9.469
29543SOL    HW290463  11.654  12.603   9.497
29544SOL     OW90464  11.622  12.797   1.989
29544SOL    HW190465  11.595  12.727   1.930
29544SOL    HW290466  11.670  12.753   2.059
29545SOL     OW90467   6.998  11.090   0.027
29545SOL    HW190468   6.973  11.006   0.064
29545SOL    HW290469   7.094  11.090   0.029
29546SOL     OW90470   0.136   6.926   9.663
29546SOL    HW190471   0.217   6.963   9.700
29546SOL    HW290472   0.080   7.002   9.647
29547SOL     OW90473   8.127   4.710   2.192
29547SOL    HW190474   8.102   4.625   2.155
29547SOL    HW290475   8.054   4.734   2.249
29548SOL     OW90476   4.449  11.752   5.006
29548SOL    HW190477   4.474  11.736   5.097
29548SOL    HW290478   4.359  11.721   5.000
29549SOL     OW90479   2.471   8.182   5.749
29549SOL    HW190480   2.410   8.127   5.797
29549SOL    HW290481   2.555   8.167   5.791
29550SOL     OW90482   3.778   1.635   5.568
29550SOL    HW190483   3.758   1.718   5.524
29550SOL    HW290484   3.777   1.656   5.661
29551SOL     OW90485   8.928   9.243   3.985
29551SOL    HW190486   8.928   9.317   4.046
29551SOL    HW290487   8.926   9.284   3.898
29552SOL     OW90488   7.830   8.524   5.737
29552SOL    HW190489   7.892   8.452   5.750
29552SOL    HW290490   7.797   8.510   5.648
29553SOL     OW90491   0.829   8.038   2.915
29553SOL    HW190492   0.772   7.968   2.946
29553SOL    HW290493   0.876   8.067   2.993
29554SOL     OW90494   2.100   3.380   3.362
29554SOL    HW190495   2.023   3.352   3.411
29554SOL    HW290496   2.066   3.446   3.301
29555SOL     OW90497   8.592  10.029  14.822
29555SOL    HW190498   8.687  10.028  14.836
29555SOL    HW290499   8.582  10.062  14.732
29556SOL     OW90500   0.847   2.334   3.583
29556SOL    HW190501   0.837   2.257   3.639
29556SOL    HW290502   0.904   2.304   3.512
29557SOL     OW90503  11.523   6.063   7.553
29557SOL    HW190504  11.441   6.044   7.507
29557SOL    HW290505  11.592   6.039   7.490
29558SOL     OW90506   2.286  13.465   0.331
29558SOL    HW190507   2.338  13.473   0.411
29558SOL    HW290508   2.196  13.480   0.360
29559SOL     OW90509  10.922   4.654  10.577
29559SOL    HW190510  10.880   4.739  10.588
29559SOL    HW290511  11.007   4.663  10.622
29560SOL     OW90512   1.347   3.318   0.076
29560SOL    HW190513   1.428   3.365   0.057
29560SOL    HW290514   1.280   3.364   0.026
29561SOL     OW90515  14.650   3.124   0.342
29561SOL    HW190516  14.703   3.092   0.415
29561SOL    HW290517  14.600   3.197   0.378
29562SOL     OW90518   6.257   7.143  10.818
29562SOL    HW190519   6.285   7.147  10.909
29562SOL    HW290520   6.330   7.179  10.769
29563SOL     OW90521   0.047   6.914   5.973
29563SOL    HW190522   0.131   6.953   5.999
29563SOL    HW290523   0.039   6.837   6.030
29564SOL     OW90524   7.123   3.494   9.809
29564SOL    HW190525   7.174   3.553   9.865
29564SOL    HW290526   7.125   3.410   9.854
29565SOL     OW90527   6.612  13.262   7.445
29565SOL    HW190528   6.637  13.311   7.366
29565SOL    HW290529   6.569  13.183   7.411
29566SOL     OW90530  11.612   7.948   8.920
29566SOL    HW190531  11.526   7.912   8.942
29566SOL    HW290532  11.646   7.982   9.003
29567SOL     OW90533   4.210  14.551   0.492
29567SOL    HW190534   4.168  14.465   0.498
29567SOL    HW290535   4.290  14.541   0.544
29568SOL     OW90536  10.045   3.114   5.353
29568SOL    HW190537  10.019   3.026   5.381
29568SOL    HW290538  10.131   3.101   5.313
29569SOL     OW90539   0.676   4.069  13.768
29569SOL    HW190540   0.728   4.071  13.849
29569SOL    HW290541   0.637   3.982  13.767
29570SOL     OW90542   1.633   8.267  14.184
29570SOL    HW190543   1.556   8.251  14.129
29570SOL    HW290544   1.698   8.305  14.125
29571SOL     OW90545   7.874   1.548   5.099
29571SOL    HW190546   7.955   1.598   5.094
29571SOL    HW290547   7.827   1.570   5.019
29572SOL     OW90548   3.920  13.765  14.051
29572SOL    HW190549   3.882  13.853  14.054
29572SOL    HW290550   3.897  13.732  13.964
29573SOL     OW90551  12.461   3.341  13.001
29573SOL    HW190552  12.518   3.274  12.963
29573SOL    HW290553  12.482   3.421  12.952
29574SOL     OW90554   8.534  11.940   8.652
29574SOL    HW190555   8.503  11.865   8.601
29574SOL    HW290556   8.467  12.007   8.638
29575SOL     OW90557   1.239   5.371   3.918
29575SOL    HW190558   1.257   5.452   3.872
29575SOL    HW290559   1.275   5.385   4.006
29576SOL     OW90560   5.503   1.358  12.397
29576SOL    HW190561   5.568   1.320  12.337
29576SOL    HW290562   5.524   1.321  12.482
29577SOL     OW90563   7.551  13.943   4.028
29577SOL    HW190564   7.509  13.885   3.965
29577SOL    HW290565   7.636  13.903   4.045
29578SOL     OW90566   1.645   1.114  10.278
29578SOL    HW190567   1.606   1.028  10.263
29578SOL    HW290568   1.730   1.096  10.319
29579SOL     OW90569   2.882   4.909   6.545
29579SOL    HW190570   2.886   4.990   6.595
29579SOL    HW290571   2.947   4.920   6.475
29580SOL     OW90572   9.122  12.448  11.133
29580SOL    HW190573   9.059  12.431  11.063
29580SOL    HW290574   9.208  12.435  11.092
29581SOL     OW90575   1.394  13.710  12.143
29581SOL    HW190576   1.439  13.768  12.204
29581SOL    HW290577   1.402  13.753  12.058
29582SOL     OW90578  13.555   1.387   1.638
29582SOL    HW190579  13.534   1.395   1.545
29582SOL    HW290580  13.584   1.297   1.649
29583SOL     OW90581   7.365   1.132  14.035
29583SOL    HW190582   7.343   1.200  13.971
29583SOL    HW290583   7.393   1.057  13.982
29584SOL     OW90584   4.072   1.779   2.074
29584SOL    HW190585   4.045   1.869   2.093
29584SOL    HW290586   4.159   1.771   2.111
29585SOL     OW90587   5.934   7.277   6.338
29585SOL    HW190588   5.874   7.305   6.407
29585SOL    HW290589   5.999   7.347   6.332
29586SOL     OW90590  11.145   7.512   1.404
29586SOL    HW190591  11.161   7.549   1.317
29586SOL    HW290592  11.200   7.563   1.463
29587SOL     OW90593  11.217   7.500  14.548
29587SOL    HW190594  11.189   7.582  14.589
29587SOL    HW290595  11.233   7.523  14.457
29588SOL     OW90596  11.247   4.413  11.642
29588SOL    HW190597  11.238   4.420  11.737
29588SOL    HW290598  11.202   4.489  11.607
29589SOL     OW90599   2.772  12.362   5.768
29589SOL    HW190600   2.782  12.360   5.672
29589SOL    HW290601   2.862  12.362   5.801
29590SOL     OW90602  11.037   5.599   7.841
29590SOL    HW190603  11.040   5.533   7.910
29590SOL    HW290604  10.945   5.604   7.816
29591SOL     OW90605   1.812   0.505  10.888
29591SOL    HW190606   1.807   0.505  10.983
29591SOL    HW290607   1.883   0.444  10.867
29592SOL     OW90608   0.847   8.808   7.256
29592SOL    HW190609   0.770   8.769   7.297
29592SOL    HW290610   0.816   8.841   7.171
29593SOL     OW90611   3.546   5.741   4.258
29593SOL    HW190612   3.543   5.756   4.163
29593SOL    HW290613   3.623   5.686   4.272
29594SOL     OW90614  12.987  13.222  13.799
29594SOL    HW190615  13.020  13.308  13.773
29594SOL    HW290616  12.894  13.224  13.776
29595SOL     OW90617   7.429   2.596   9.229
29595SOL    HW190618   7.341   2.598   9.190
29595SOL    HW290619   7.467   2.514   9.198
29596SOL     OW90620   7.746  13.734   7.793
29596SOL    HW190621   7.741  13.828   7.775
29596SOL    HW290622   7.796  13.727   7.874
29597SOL     OW90623   5.535  12.818   5.306
29597SOL    HW190624   5.629  12.836   5.315
29597SOL    HW290625   5.532  12.734   5.259
29598SOL     OW90626  10.160  13.101   8.259
29598SOL    HW190627  10.221  13.163   8.299
29598SOL    HW290628  10.210  13.020   8.250
29599SOL     OW90629   3.151  12.874   2.690
29599SOL    HW190630   3.213  12.801   2.690
29599SOL    HW290631   3.158  12.912   2.778
29600SOL     OW90632   0.748   4.544   7.638
29600SOL    HW190633   0.774   4.537   7.730
29600SOL    HW290634   0.687   4.618   7.637
29601SOL     OW90635   9.833   9.754   6.713
29601SOL    HW190636   9.838   9.805   6.632
29601SOL    HW290637   9.742   9.725   6.717
29602SOL     OW90638  10.700  12.996   3.332
29602SOL    HW190639  10.781  13.048   3.330
29602SOL    HW290640  10.681  12.979   3.240
29603SOL     OW90641   8.850   6.554   9.325
29603SOL    HW190642   8.891   6.588   9.245
29603SOL    HW290643   8.924   6.526   9.379
29604SOL     OW90644   4.584  12.381   8.354
29604SOL    HW190645   4.631  12.314   8.304
29604SOL    HW290646   4.572  12.453   8.292
29605SOL     OW90647  13.304   3.635  11.205
29605SOL    HW190648  13.370   3.569  11.187
29605SOL    HW290649  13.325   3.668  11.292
29606SOL     OW90650   6.550   8.865  10.214
29606SOL    HW190651   6.512   8.952  10.227
29606SOL    HW290652   6.542   8.848  10.121
29607SOL     OW90653   7.771   1.085   9.332
29607SOL    HW190654   7.833   1.072   9.404
29607SOL    HW290655   7.698   1.132   9.372
29608SOL     OW90656   2.380   8.168   3.988
29608SOL    HW190657   2.411   8.090   3.942
29608SOL    HW290658   2.452   8.192   4.046
29609SOL     OW90659  14.473   3.495  10.325
29609SOL    HW190660  14.557   3.539  10.333
29609SOL    HW290661  14.440   3.490  10.415
29610SOL     OW90662  10.066  10.297   8.675
29610SOL    HW190663  10.097  10.317   8.587
29610SOL    HW290664  10.026  10.210   8.668
29611SOL     OW90665   6.023   2.178  10.211
29611SOL    HW190666   6.052   2.192  10.120
29611SOL    HW290667   6.003   2.084  10.215
29612SOL     OW90668   4.135   6.646   8.301
29612SOL    HW190669   4.105   6.732   8.333
29612SOL    HW290670   4.138   6.655   8.206
29613SOL     OW90671   0.567   6.689   3.849
29613SOL    HW190672   0.589   6.652   3.934
29613SOL    HW290673   0.589   6.621   3.786
29614SOL     OW90674  13.722  14.638  11.729
29614SOL    HW190675  13.772  14.621  11.650
29614SOL    HW290676  13.735  14.732  11.746
29615SOL     OW90677   3.428   9.855  10.708
29615SOL    HW190678   3.507   9.851  10.653
29615SOL    HW290679   3.457   9.899  10.788
29616SOL     OW90680  14.399   2.448   1.420
29616SOL    HW190681  14.450   2.389   1.364
29616SOL    HW290682  14.358   2.391   1.484
29617SOL     OW90683  14.652  11.187   6.786
29617SOL    HW190684  14.735  11.231   6.807
29617SOL    HW290685  14.676  11.119   6.723
29618SOL     OW90686  14.121  11.598   1.226
29618SOL    HW190687  14.036  11.597   1.270
29618SOL    HW290688  14.121  11.681   1.177
29619SOL     OW90689   4.944   8.609   1.700
29619SOL    HW190690   4.873   8.673   1.691
29619SOL    HW290691   4.939   8.557   1.619
29620SOL     OW90692   0.349   5.868   9.151
29620SOL    HW190693   0.387   5.782   9.136
29620SOL    HW290694   0.424   5.927   9.155
29621SOL     OW90695  13.449  12.529   6.403
29621SOL    HW190696  13.421  12.522   6.312
29621SOL    HW290697  13.403  12.458   6.448
29622SOL     OW90698   2.977   9.211  10.645
29622SOL    HW190699   3.014   9.258  10.570
29622SOL    HW290700   2.989   9.118  10.623
29623SOL     OW90701   3.530  11.630   9.248
29623SOL    HW190702   3.603  11.682   9.281
29623SOL    HW290703   3.570  11.571   9.183
29624SOL     OW90704   6.164   3.721   1.993
29624SOL    HW190705   6.194   3.782   1.927
29624SOL    HW290706   6.187   3.634   1.959
29625SOL     OW90707  11.222  11.785   0.822
29625SOL    HW190708  11.218  11.880   0.832
29625SOL    HW290709  11.131  11.756   0.833
29626SOL     OW90710   8.995  13.272   3.496
29626SOL    HW190711   9.000  13.279   3.591
29626SOL    HW290712   8.946  13.192   3.480
29627SOL     OW90713  10.285   3.579   9.461
29627SOL    HW190714  10.354   3.633   9.423
29627SOL    HW290715  10.331   3.504   9.498
29628SOL     OW90716   2.026  14.819   8.203
29628SOL    HW190717   2.048   0.006   8.132
29628SOL    HW290718   2.016   0.003   8.280
29629SOL     OW90719  14.355   0.725   6.785
29629SOL    HW190720  14.432   0.770   6.819
29629SOL    HW290721  14.281   0.767   6.829
29630SOL     OW90722  14.657   5.786   3.046
29630SOL    HW190723  14.722   5.797   2.976
29630SOL    HW290724  14.705   5.741   3.115
29631SOL     OW90725   1.294   1.396   0.688
29631SOL    HW190726   1.331   1.360   0.768
29631SOL    HW290727   1.208   1.354   0.680
29632SOL     OW90728   0.720  14.703   1.110
29632SOL    HW190729   0.642  14.654   1.137
29632SOL    HW290730   0.689  14.793   1.100
29633SOL     OW90731   1.202   2.474  10.817
29633SOL    HW190732   1.281   2.527  10.832
29633SOL    HW290733   1.200   2.413  10.890
29634SOL     OW90734   7.152   0.353  12.088
29634SOL    HW190735   7.093   0.291  12.131
29634SOL    HW290736   7.163   0.423  12.152
29635SOL     OW90737   6.569  13.321   4.195
29635SOL    HW190738   6.606  13.307   4.282
29635SOL    HW290739   6.475  13.306   4.206
29636SOL     OW90740  10.792  11.837   4.272
29636SOL    HW190741  10.728  11.849   4.203
29636SOL    HW290742  10.770  11.905   4.337
29637SOL     OW90743  14.198   0.531   9.657
29637SOL    HW190744  14.282   0.512   9.698
29637SOL    HW290745  14.145   0.570   9.726
29638SOL     OW90746   8.485   2.713  11.565
29638SOL    HW190747   8.494   2.635  11.619
29638SOL    HW290748   8.513   2.785  11.622
29639SOL     OW90749   5.217   9.129  11.915
29639SOL    HW190750   5.175   9.194  11.971
29639SOL    HW290751   5.216   9.169  11.828
29640SOL     OW90752   3.134  10.975  12.984
29640SOL    HW190753   3.112  11.019  13.067
29640SOL    HW290754   3.058  10.990  12.928
29641SOL     OW90755  10.431   3.410   4.882
29641SOL    HW190756  10.377   3.474   4.928
29641SOL    HW290757  10.412   3.327   4.925
29642SOL     OW90758   6.450   7.023  13.991
29642SOL    HW190759   6.456   7.103  13.938
29642SOL    HW290760   6.386   7.044  14.059
29643SOL     OW90761   1.772   8.344  12.984
29643SOL    HW190762   1.680   8.329  13.007
29643SOL    HW290763   1.795   8.271  12.927
29644SOL     OW90764  13.238  13.078  12.044
29644SOL    HW190765  13.276  13.155  12.002
29644SOL    HW290766  13.149  13.074  12.010
29645SOL     OW90767   1.388   9.684   8.368
29645SOL    HW190768   1.372   9.664   8.276
29645SOL    HW290769   1.365   9.604   8.414
29646SOL     OW90770   3.721   3.021   4.476
29646SOL    HW190771   3.659   2.996   4.544
29646SOL    HW290772   3.697   3.111   4.454
29647SOL     OW90773   6.811  13.930   5.739
29647SOL    HW190774   6.745  13.888   5.794
29647SOL    HW290775   6.813  14.021   5.768
29648SOL     OW90776   7.430   7.966   9.157
29648SOL    HW190777   7.364   8.012   9.107
29648SOL    HW290778   7.419   7.874   9.133
29649SOL     OW90779   0.398   6.683   5.336
29649SOL    HW190780   0.458   6.672   5.411
29649SOL    HW290781   0.429   6.620   5.271
29650SOL     OW90782   0.513   5.873   3.881
29650SOL    HW190783   0.476   5.905   3.963
29650SOL    HW290784   0.493   5.780   3.880
29651SOL     OW90785  10.173  11.473   0.254
29651SOL    HW190786  10.177  11.538   0.183
29651SOL    HW290787  10.188  11.524   0.334
29652SOL     OW90788  14.447   4.161  12.946
29652SOL    HW190789  14.482   4.073  12.960
29652SOL    HW290790  14.498   4.217  13.004
29653SOL     OW90791   0.108  12.868   6.166
29653SOL    HW190792   0.143  12.854   6.078
29653SOL    HW290793   0.173  12.830   6.225
29654SOL     OW90794   1.916   6.645   0.755
29654SOL    HW190795   1.830   6.674   0.725
29654SOL    HW290796   1.964   6.725   0.775
29655SOL     OW90797   6.958   2.711   8.998
29655SOL    HW190798   6.910   2.787   9.031
29655SOL    HW290799   6.898   2.669   8.937
29656SOL     OW90800  11.718   3.830  13.338
29656SOL    HW190801  11.683   3.903  13.287
29656SOL    HW290802  11.722   3.864  13.428
29657SOL     OW90803   9.096   3.811   1.359
29657SOL    HW190804   9.120   3.722   1.385
29657SOL    HW290805   9.021   3.800   1.301
29658SOL     OW90806   4.916   5.393   3.478
29658SOL    HW190807   4.969   5.426   3.551
29658SOL    HW290808   4.878   5.312   3.511
29659SOL     OW90809   9.066   4.452  10.996
29659SOL    HW190810   8.994   4.428  11.054
29659SOL    HW290811   9.069   4.548  11.001
29660SOL     OW90812  10.603   2.241   1.347
29660SOL    HW190813  10.634   2.330   1.364
29660SOL    HW290814  10.615   2.230   1.253
29661SOL     OW90815   8.988  11.433   3.426
29661SOL    HW190816   9.021  11.359   3.477
29661SOL    HW290817   8.995  11.405   3.335
29662SOL     OW90818   8.069   3.979   3.940
29662SOL    HW190819   8.109   4.016   3.861
29662SOL    HW290820   8.051   4.055   3.995
29663SOL     OW90821   6.226   3.742   5.012
29663SOL    HW190822   6.135   3.761   4.990
29663SOL    HW290823   6.248   3.665   4.960
29664SOL     OW90824  14.574  13.617  12.451
29664SOL    HW190825  14.618  13.629  12.367
29664SOL    HW290826  14.512  13.690  12.457
29665SOL     OW90827   0.176  13.538   3.807
29665SOL    HW190828   0.184  13.530   3.712
29665SOL    HW290829   0.266  13.548   3.838
29666SOL     OW90830   2.419   3.907   1.326
29666SOL    HW190831   2.486   3.958   1.370
29666SOL    HW290832   2.406   3.831   1.382
29667SOL     OW90833   2.491   6.824   9.927
29667SOL    HW190834   2.565   6.785   9.975
29667SOL    HW290835   2.413   6.784   9.966
29668SOL     OW90836   8.416  11.404   3.868
29668SOL    HW190837   8.403  11.457   3.947
29668SOL    HW290838   8.475  11.457   3.814
29669SOL     OW90839  11.767   7.438  10.039
29669SOL    HW190840  11.819   7.428   9.959
29669SOL    HW290841  11.703   7.367  10.036
29670SOL     OW90842   5.030   4.075   4.688
29670SOL    HW190843   5.025   4.170   4.682
29670SOL    HW290844   4.979   4.053   4.767
29671SOL     OW90845  10.216  12.024   7.971
29671SOL    HW190846  10.257  11.946   8.006
29671SOL    HW290847  10.273  12.096   7.998
29672SOL     OW90848  13.094   3.075  14.815
29672SOL    HW190849  13.185   3.049  14.824
29672SOL    HW290850  13.061   3.079   0.033
29673SOL     OW90851  10.158  14.496   7.934
29673SOL    HW190852  10.114  14.580   7.945
29673SOL    HW290853  10.138  14.448   8.014
29674SOL     OW90854   0.109   7.356   9.760
29674SOL    HW190855   0.166   7.338   9.834
29674SOL    HW290856   0.134   7.444   9.731
29675SOL     OW90857  14.313  11.599   4.653
29675SOL    HW190858  14.407  11.612   4.667
29675SOL    HW290859  14.281  11.684   4.624
29676SOL     OW90860   1.790   3.250  11.057
29676SOL    HW190861   1.756   3.310  10.991
29676SOL    HW290862   1.879   3.282  11.074
29677SOL     OW90863   8.226   0.834   8.747
29677SOL    HW190864   8.319   0.818   8.731
29677SOL    HW290865   8.217   0.929   8.741
29678SOL     OW90866   1.016   2.929   7.357
29678SOL    HW190867   1.011   2.977   7.439
29678SOL    HW290868   0.933   2.880   7.352
29679SOL     OW90869   5.109   4.118  11.562
29679SOL    HW190870   5.198   4.091  11.583
29679SOL    HW290871   5.096   4.199  11.611
29680SOL     OW90872  10.543  13.996   3.523
29680SOL    HW190873  10.464  14.046   3.539
29680SOL    HW290874  10.590  14.044   3.456
29681SOL     OW90875  12.731   2.880  11.115
29681SOL    HW190876  12.650   2.877  11.166
29681SOL    HW290877  12.706   2.847  11.029
29682SOL     OW90878   0.820   4.193  13.051
29682SOL    HW190879   0.893   4.253  13.041
29682SOL    HW290880   0.784   4.212  13.138
29683SOL     OW90881  13.732   2.434   5.515
29683SOL    HW190882  13.778   2.465   5.437
29683SOL    HW290883  13.786   2.362   5.548
29684SOL     OW90884   9.631  10.584  13.475
29684SOL    HW190885   9.580  10.639  13.416
29684SOL    HW290886   9.602  10.611  13.563
29685SOL     OW90887  13.868   1.647   8.299
29685SOL    HW190888  13.824   1.722   8.258
29685SOL    HW290889  13.809   1.619   8.368
29686SOL     OW90890   0.001   3.932   1.126
29686SOL    HW190891   0.071   3.998   1.118
29686SOL    HW290892   0.034   3.869   1.190
29687SOL     OW90893   7.024   0.402   9.793
29687SOL    HW190894   6.949   0.343   9.781
29687SOL    HW290895   7.031   0.450   9.711
29688SOL     OW90896   1.018   0.645   7.061
29688SOL    HW190897   1.056   0.634   7.148
29688SOL    HW290898   1.007   0.739   7.050
29689SOL     OW90899   6.818   4.916  12.274
29689SOL    HW190900   6.899   4.942  12.318
29689SOL    HW290901   6.846   4.883  12.189
29690SOL     OW90902  11.583  11.120   2.913
29690SOL    HW190903  11.547  11.088   2.996
29690SOL    HW290904  11.632  11.198   2.937
29691SOL     OW90905  13.645   6.808   8.524
29691SOL    HW190906  13.662   6.736   8.464
29691SOL    HW290907  13.551   6.826   8.515
29692SOL     OW90908   2.795  13.415  14.369
29692SOL    HW190909   2.771  13.416  14.461
29692SOL    HW290910   2.883  13.376  14.367
29693SOL     OW90911   9.684   9.994  11.961
29693SOL    HW190912   9.731  10.010  12.043
29693SOL    HW290913   9.740  10.032  11.893
29694SOL     OW90914   9.575   6.042   0.405
29694SOL    HW190915   9.566   6.137   0.402
29694SOL    HW290916   9.593   6.017   0.314
29695SOL     OW90917   9.135  13.539   4.842
29695SOL    HW190918   9.173  13.600   4.778
29695SOL    HW290919   9.042  13.562   4.844
29696SOL     OW90920   9.725  13.452  10.004
29696SOL    HW190921   9.793  13.499  10.052
29696SOL    HW290922   9.646  13.504  10.021
29697SOL     OW90923  11.427   8.001  13.465
29697SOL    HW190924  11.362   8.072  13.465
29697SOL    HW290925  11.439   7.980  13.557
29698SOL     OW90926   2.000  11.166  14.468
29698SOL    HW190927   2.065  11.164  14.538
29698SOL    HW290928   1.949  11.086  14.480
29699SOL     OW90929   8.479  12.651   5.748
29699SOL    HW190930   8.521  12.647   5.833
29699SOL    HW290931   8.386  12.660   5.767
29700SOL     OW90932   1.469  10.019  11.571
29700SOL    HW190933   1.425  10.044  11.652
29700SOL    HW290934   1.532   9.952  11.598
29701SOL     OW90935   3.742  11.760   6.253
29701SOL    HW190936   3.822  11.801   6.285
29701SOL    HW290937   3.745  11.770   6.158
29702SOL     OW90938   4.938  13.829   7.903
29702SOL    HW190939   4.929  13.748   7.854
29702SOL    HW290940   5.025  13.823   7.944
29703SOL     OW90941   3.654  11.300   8.508
29703SOL    HW190942   3.742  11.265   8.515
29703SOL    HW290943   3.666  11.395   8.507
29704SOL     OW90944   8.976   0.946   1.318
29704SOL    HW190945   8.978   0.851   1.308
29704SOL    HW290946   9.005   0.961   1.408
29705SOL     OW90947   9.713  12.388  14.871
29705SOL    HW190948   9.803  12.409   0.021
29705SOL    HW290949   9.682  12.463  14.821
29706SOL     OW90950   9.393  10.813   5.385
29706SOL    HW190951   9.319  10.815   5.447
29706SOL    HW290952   9.413  10.905   5.369
29707SOL     OW90953   0.246  12.964  14.801
29707SOL    HW190954   0.212  12.953  14.713
29707SOL    HW290955   0.270  12.876  14.830
29708SOL     OW90956   7.456   6.436   6.512
29708SOL    HW190957   7.448   6.381   6.589
29708SOL    HW290958   7.437   6.524   6.543
29709SOL     OW90959  12.080  11.298   2.847
29709SOL    HW190960  12.061  11.272   2.937
29709SOL    HW290961  11.997  11.289   2.801
29710SOL     OW90962   6.043   7.936  10.361
29710SOL    HW190963   6.025   7.842  10.352
29710SOL    HW290964   6.136   7.942  10.379
29711SOL     OW90965  14.027  14.621  12.700
29711SOL    HW190966  14.016  14.647  12.791
29711SOL    HW290967  14.013  14.526  12.700
29712SOL     OW90968   3.042  12.231  14.321
29712SOL    HW190969   3.090  12.161  14.365
29712SOL    HW290970   2.950  12.213  14.341
29713SOL     OW90971  13.476  10.873  12.582
29713SOL    HW190972  13.506  10.912  12.500
29713SOL    HW290973  13.553  10.873  12.638
29714SOL     OW90974   7.939   1.120  12.272
29714SOL    HW190975   8.023   1.075  12.284
29714SOL    HW290976   7.955   1.183  12.202
29715SOL     OW90977   0.691   2.330   8.603
29715SOL    HW190978   0.716   2.247   8.562
29715SOL    HW290979   0.729   2.396   8.546
29716SOL     OW90980   6.596  13.385  12.073
29716SOL    HW190981   6.638  13.361  12.155
29716SOL    HW290982   6.641  13.332  12.007
29717SOL     OW90983  12.209   6.059   4.953
29717SOL    HW190984  12.219   6.129   5.017
29717SOL    HW290985  12.256   6.091   4.876
29718SOL     OW90986   0.237  11.869   1.800
29718SOL    HW190987   0.317  11.834   1.761
29718SOL    HW290988   0.262  11.956   1.832
29719SOL     OW90989  10.275  14.816  11.555
29719SOL    HW190990  10.279  14.867  11.636
29719SOL    HW290991  10.320  14.869  11.490
29720SOL     OW90992   1.005   5.107   1.827
29720SOL    HW190993   1.070   5.108   1.756
29720SOL    HW290994   1.055   5.128   1.906
29721SOL     OW90995   1.206   7.201  10.339
29721SOL    HW190996   1.257   7.125  10.367
29721SOL    HW290997   1.242   7.223  10.253
29722SOL     OW90998   3.682  14.000  14.153
29722SOL    HW190999   3.658  14.091  14.165
29722SOL    HW291000   3.657  13.980  14.063
29723SOL     OW91001   7.462   3.192   0.484
29723SOL    HW191002   7.419   3.271   0.452
29723SOL    HW291003   7.490   3.214   0.573
29724SOL     OW91004   9.959  13.276  10.024
29724SOL    HW191005  10.034  13.301   9.969
29724SOL    HW291006   9.883  13.313   9.978
29725SOL     OW91007  13.573  13.082   6.129
29725SOL    HW191008  13.573  12.986   6.127
29725SOL    HW291009  13.666  13.105   6.128
29726SOL     OW91010  14.213   5.360   8.947
29726SOL    HW191011  14.255   5.368   8.861
29726SOL    HW291012  14.126   5.326   8.929
29727SOL     OW91013  10.776   5.537   9.909
29727SOL    HW191014  10.821   5.513   9.991
29727SOL    HW291015  10.793   5.463   9.850
29728SOL     OW91016   5.867   5.871   3.013
29728SOL    HW191017   5.916   5.797   2.977
29728SOL    HW291018   5.885   5.943   2.952
29729SOL     OW91019   4.457  10.357   7.453
29729SOL    HW191020   4.425  10.407   7.528
29729SOL    HW291021   4.474  10.269   7.487
29730SOL     OW91022   9.382  11.216  14.849
29730SOL    HW191023   9.385  11.146  14.785
29730SOL    HW291024   9.301  11.263  14.829
29731SOL     OW91025   5.645   8.096   4.276
29731SOL    HW191026   5.553   8.098   4.250
29731SOL    HW291027   5.645   8.053   4.362
29732SOL     OW91028   2.289  14.601   4.026
29732SOL    HW191029   2.251  14.553   3.952
29732SOL    HW291030   2.279  14.694   4.002
29733SOL     OW91031  11.406  11.946   7.152
29733SOL    HW191032  11.493  11.951   7.112
29733SOL    HW291033  11.421  11.968   7.244
29734SOL     OW91034  11.695   3.570  13.612
29734SOL    HW191035  11.614   3.526  13.638
29734SOL    HW291036  11.751   3.564  13.689
29735SOL     OW91037  10.909   9.754   3.318
29735SOL    HW191038  10.972   9.688   3.348
29735SOL    HW291039  10.830   9.705   3.297
29736SOL     OW91040  14.106  11.782   3.797
29736SOL    HW191041  14.174  11.714   3.801
29736SOL    HW291042  14.154  11.864   3.788
29737SOL     OW91043   8.399  11.501   4.111
29737SOL    HW191044   8.345  11.514   4.189
29737SOL    HW291045   8.487  11.528   4.139
29738SOL     OW91046  10.984  11.246   1.665
29738SOL    HW191047  10.976  11.152   1.681
29738SOL    HW291048  11.035  11.252   1.584
29739SOL     OW91049   4.188   6.038   7.693
29739SOL    HW191050   4.170   6.054   7.785
29739SOL    HW291051   4.216   5.946   7.690
29740SOL     OW91052   6.370   0.776   3.834
29740SOL    HW191053   6.383   0.812   3.921
29740SOL    HW291054   6.416   0.837   3.776
29741SOL     OW91055  14.290   2.440   6.796
29741SOL    HW191056  14.292   2.417   6.703
29741SOL    HW291057  14.226   2.511   6.801
29742SOL     OW91058   9.520  13.329  10.958
29742SOL    HW191059   9.531  13.403  10.899
29742SOL    HW291060   9.576  13.349  11.033
29743SOL     OW91061  10.105  13.499   1.278
29743SOL    HW191062  10.178  13.445   1.246
29743SOL    HW291063  10.063  13.533   1.199
29744SOL     OW91064  10.325   5.909   7.014
29744SOL    HW191065  10.375   5.835   7.049
29744SOL    HW291066  10.386   5.982   7.016
29745SOL     OW91067   6.698  13.030  10.880
29745SOL    HW191068   6.767  13.012  10.943
29745SOL    HW291069   6.741  13.024  10.795
29746SOL     OW91070   5.175   4.365   8.566
29746SOL    HW191071   5.223   4.371   8.648
29746SOL    HW291072   5.213   4.434   8.511
29747SOL     OW91073   1.102   7.266   2.714
29747SOL    HW191074   1.008   7.282   2.727
29747SOL    HW291075   1.108   7.173   2.692
29748SOL     OW91076   3.304  14.649   1.512
29748SOL    HW191077   3.335  14.606   1.433
29748SOL    HW291078   3.380  14.700   1.542
29749SOL     OW91079  13.573   3.053   1.983
29749SOL    HW191080  13.544   3.054   1.891
29749SOL    HW291081  13.503   3.098   2.031
29750SOL     OW91082  12.881   0.011   6.242
29750SOL    HW191083  12.851  14.836   6.319
29750SOL    HW291084  12.809   0.001   6.179
29751SOL     OW91085   5.623   1.913   6.299
29751SOL    HW191086   5.562   1.979   6.332
29751SOL    HW291087   5.601   1.834   6.348
29752SOL     OW91088   5.736   8.044   9.529
29752SOL    HW191089   5.642   8.025   9.532
29752SOL    HW291090   5.778   7.959   9.518
29753SOL     OW91091   3.675   3.545   7.928
29753SOL    HW191092   3.622   3.560   7.850
29753SOL    HW291093   3.765   3.538   7.895
29754SOL     OW91094   6.869   8.067   7.893
29754SOL    HW191095   6.775   8.051   7.885
29754SOL    HW291096   6.909   7.983   7.874
29755SOL     OW91097   5.480   0.983   2.217
29755SOL    HW191098   5.484   1.013   2.308
29755SOL    HW291099   5.389   0.956   2.204
29756SOL     OW91100   2.298   3.203   8.025
29756SOL    HW191101   2.272   3.120   7.985
29756SOL    HW291102   2.274   3.194   8.117
29757SOL     OW91103   2.902   9.089   4.078
29757SOL    HW191104   2.972   9.131   4.128
29757SOL    HW291105   2.905   9.133   3.993
29758SOL     OW91106  11.566  11.805   0.217
29758SOL    HW191107  11.494  11.751   0.183
29758SOL    HW291108  11.635  11.743   0.238
29759SOL     OW91109   7.930   4.529  10.666
29759SOL    HW191110   7.938   4.437  10.693
29759SOL    HW291111   7.837   4.543  10.654
29760SOL     OW91112   8.160   7.763  13.666
29760SOL    HW191113   8.145   7.717  13.749
29760SOL    HW291114   8.200   7.697  13.609
29761SOL     OW91115   3.315   1.252   6.554
29761SOL    HW191116   3.333   1.281   6.465
29761SOL    HW291117   3.396   1.209   6.583
29762SOL     OW91118   1.043  11.489  13.105
29762SOL    HW191119   1.045  11.440  13.023
29762SOL    HW291120   1.100  11.439  13.164
29763SOL     OW91121  11.411   2.091   7.783
29763SOL    HW191122  11.482   2.091   7.847
29763SOL    HW291123  11.341   2.143   7.825
29764SOL     OW91124   5.225  10.873   2.452
29764SOL    HW191125   5.284  10.914   2.515
29764SOL    HW291126   5.144  10.860   2.500
29765SOL     OW91127  12.757  14.087  11.856
29765SOL    HW191128  12.727  14.153  11.918
29765SOL    HW291129  12.765  14.134  11.773
29766SOL     OW91130  14.815   9.842  11.089
29766SOL    HW191131  14.828   9.763  11.141
29766SOL    HW291132  14.758   9.897  11.143
29767SOL     OW91133   3.393  12.835  13.757
29767SOL    HW191134   3.403  12.740  13.751
29767SOL    HW291135   3.482  12.867  13.774
29768SOL     OW91136   8.010  10.427   5.315
29768SOL    HW191137   8.024  10.476   5.234
29768SOL    HW291138   7.915  10.419   5.323
29769SOL     OW91139  13.061   2.924  10.214
29769SOL    HW191140  13.131   2.860  10.196
29769SOL    HW291141  13.008   2.882  10.281
29770SOL     OW91142  10.736   7.969   3.738
29770SOL    HW191143  10.814   8.010   3.701
29770SOL    HW291144  10.761   7.947   3.828
29771SOL     OW91145   6.630   6.598   6.298
29771SOL    HW191146   6.567   6.653   6.343
29771SOL    HW291147   6.640   6.522   6.355
29772SOL     OW91148  12.696   7.045  11.547
29772SOL    HW191149  12.716   6.951  11.546
29772SOL    HW291150  12.605   7.050  11.519
29773SOL     OW91151   3.837   1.689   8.993
29773SOL    HW191152   3.769   1.623   8.980
29773SOL    HW291153   3.790   1.763   9.032
29774SOL     OW91154  11.249  10.854   9.974
29774SOL    HW191155  11.162  10.885   9.996
29774SOL    HW291156  11.259  10.772  10.022
29775SOL     OW91157   8.345   5.008   9.472
29775SOL    HW191158   8.268   5.052   9.508
29775SOL    HW291159   8.411   5.077   9.466
29776SOL     OW91160   9.119   3.298   4.926
29776SOL    HW191161   9.122   3.387   4.962
29776SOL    HW291162   9.027   3.273   4.933
29777SOL     OW91163  12.964  10.772   8.250
29777SOL    HW191164  12.996  10.723   8.174
29777SOL    HW291165  12.960  10.862   8.220
29778SOL     OW91166  11.953  12.274   8.292
29778SOL    HW191167  11.966  12.218   8.369
29778SOL    HW291168  11.945  12.362   8.327
29779SOL     OW91169  14.226   9.508   5.504
29779SOL    HW191170  14.176   9.529   5.582
29779SOL    HW291171  14.294   9.447   5.534
29780SOL     OW91172   1.806   3.185   2.746
29780SOL    HW191173   1.872   3.192   2.677
29780SOL    HW291174   1.856   3.168   2.826
29781SOL     OW91175   3.364   7.472   3.330
29781SOL    HW191176   3.424   7.485   3.404
29781SOL    HW291177   3.296   7.538   3.344
29782SOL     OW91178   6.747   6.344   0.080
29782SOL    HW191179   6.680   6.324   0.015
29782SOL    HW291180   6.827   6.360   0.029
29783SOL     OW91181   1.381   0.984   4.197
29783SOL    HW191182   1.471   0.952   4.193
29783SOL    HW291183   1.384   1.060   4.254
29784SOL     OW91184  12.304   3.926  10.886
29784SOL    HW191185  12.322   3.888  10.972
29784SOL    HW291186  12.210   3.942  10.886
29785SOL     OW91187   2.321  11.975   4.065
29785SOL    HW191188   2.412  12.001   4.074
29785SOL    HW291189   2.294  11.951   4.154
29786SOL     OW91190   7.325   3.558   3.537
29786SOL    HW191191   7.316   3.476   3.584
29786SOL    HW291192   7.344   3.532   3.447
29787SOL     OW91193   1.996   1.794   0.149
29787SOL    HW191194   2.030   1.716   0.194
29787SOL    HW291195   1.916   1.816   0.196
29788SOL     OW91196   3.136   9.435  11.676
29788SOL    HW191197   3.122   9.407  11.766
29788SOL    HW291198   3.231   9.431  11.664
29789SOL     OW91199   9.324   0.973  12.517
29789SOL    HW191200   9.302   1.064  12.537
29789SOL    HW291201   9.283   0.957  12.431
29790SOL     OW91202   0.019   9.640   2.444
29790SOL    HW191203   0.102   9.640   2.492
29790SOL    HW291204   0.039   9.597   2.361
29791SOL     OW91205   5.499  13.703  14.146
29791SOL    HW191206   5.472  13.794  14.139
29791SOL    HW291207   5.580  13.706  14.197
29792SOL     OW91208  14.513  10.520   8.592
29792SOL    HW191209  14.588  10.462   8.581
29792SOL    HW291210  14.438  10.461   8.594
29793SOL     OW91211  10.418   3.856  14.031
29793SOL    HW191212  10.474   3.911  14.086
29793SOL    HW291213  10.399   3.910  13.955
29794SOL     OW91214  10.002   9.107   3.945
29794SOL    HW191215   9.988   9.135   3.855
29794SOL    HW291216   9.964   9.019   3.949
29795SOL     OW91217   4.179   3.034   7.713
29795SOL    HW191218   4.226   3.002   7.635
29795SOL    HW291219   4.114   2.966   7.730
29796SOL     OW91220  12.344   4.288   2.597
29796SOL    HW191221  12.384   4.204   2.575
29796SOL    HW291222  12.331   4.285   2.692
29797SOL     OW91223   9.243  10.713   3.236
29797SOL    HW191224   9.235  10.712   3.141
29797SOL    HW291225   9.336  10.698   3.254
29798SOL     OW91226   3.965  11.818   4.909
29798SOL    HW191227   3.938  11.881   4.842
29798SOL    HW291228   3.883  11.789   4.949
29799SOL     OW91229   0.432   5.123   2.052
29799SOL    HW191230   0.351   5.101   2.097
29799SOL    HW291231   0.415   5.100   1.960
29800SOL     OW91232   8.074  12.435   7.008
29800SOL    HW191233   8.153  12.471   6.966
29800SOL    HW291234   8.002  12.470   6.955
29801SOL     OW91235   1.008   2.063   3.692
29801SOL    HW191236   1.025   1.974   3.661
29801SOL    HW291237   1.061   2.072   3.771
29802SOL     OW91238   0.335  13.631   6.534
29802SOL    HW191239   0.408  13.591   6.581
29802SOL    HW291240   0.261  13.625   6.595
29803SOL     OW91241   7.476   0.278   8.070
29803SOL    HW191242   7.523   0.195   8.061
29803SOL    HW291243   7.388   0.253   8.096
29804SOL     OW91244   1.347   7.780  11.320
29804SOL    HW191245   1.387   7.779  11.233
29804SOL    HW291246   1.259   7.744  11.307
29805SOL     OW91247   0.860   4.094   9.627
29805SOL    HW191248   0.820   4.178   9.648
29805SOL    HW291249   0.825   4.033   9.692
29806SOL     OW91250   9.922   4.278  13.390
29806SOL    HW191251   9.856   4.335  13.352
29806SOL    HW291252   9.989   4.270  13.323
29807SOL     OW91253   2.460  10.464   2.328
29807SOL    HW191254   2.414  10.461   2.411
29807SOL    HW291255   2.486  10.373   2.311
29808SOL     OW91256   5.200   9.600   1.311
29808SOL    HW191257   5.216   9.661   1.239
29808SOL    HW291258   5.109   9.616   1.336
29809SOL     OW91259   5.118   8.697  13.083
29809SOL    HW191260   5.087   8.782  13.116
29809SOL    HW291261   5.078   8.633  13.141
29810SOL     OW91262   5.241  11.273   6.378
29810SOL    HW191263   5.162  11.276   6.323
29810SOL    HW291264   5.233  11.190   6.426
29811SOL     OW91265   3.681  14.065  10.298
29811SOL    HW191266   3.661  14.075  10.205
29811SOL    HW291267   3.713  14.151  10.325
29812SOL     OW91268   6.221  11.152   8.778
29812SOL    HW191269   6.137  11.182   8.744
29812SOL    HW291270   6.235  11.204   8.857
29813SOL     OW91271  12.675   3.369   6.363
29813SOL    HW191272  12.747   3.387   6.424
29813SOL    HW291273  12.706   3.401   6.279
29814SOL     OW91274   2.026  11.106  11.059
29814SOL    HW191275   1.958  11.040  11.074
29814SOL    HW291276   2.044  11.100  10.965
29815SOL     OW91277  13.980   4.955   0.083
29815SOL    HW191278  13.924   4.902   0.027
29815SOL    HW291279  14.030   4.891   0.134
29816SOL     OW91280  14.207   9.844   5.681
29816SOL    HW191281  14.118   9.821   5.655
29816SOL    HW291282  14.198   9.882   5.768
29817SOL     OW91283   4.462  12.509  10.305
29817SOL    HW191284   4.511  12.569  10.248
29817SOL    HW291285   4.512  12.507  10.386
29818SOL     OW91286   0.398  11.870   1.402
29818SOL    HW191287   0.364  11.804   1.461
29818SOL    HW291288   0.452  11.821   1.339
29819SOL     OW91289  13.532  13.820   4.942
29819SOL    HW191290  13.536  13.813   4.846
29819SOL    HW291291  13.442  13.798   4.963
29820SOL     OW91292   3.397   7.275  13.014
29820SOL    HW191293   3.460   7.325  12.961
29820SOL    HW291294   3.364   7.337  13.078
29821SOL     OW91295   4.330  14.227  14.293
29821SOL    HW191296   4.252  14.198  14.246
29821SOL    HW291297   4.357  14.308  14.248
29822SOL     OW91298   9.399   6.265   0.406
29822SOL    HW191299   9.349   6.186   0.426
29822SOL    HW291300   9.412   6.307   0.491
29823SOL     OW91301   0.083   9.761   5.124
29823SOL    HW191302   0.011   9.824   5.121
29823SOL    HW291303   0.062   9.697   5.056
29824SOL     OW91304  12.028   6.097   0.974
29824SOL    HW191305  12.071   6.151   0.907
29824SOL    HW291306  12.066   6.010   0.962
29825SOL     OW91307   5.229  14.508  10.797
29825SOL    HW191308   5.258  14.438  10.855
29825SOL    HW291309   5.274  14.586  10.828
29826SOL     OW91310   3.206   2.841   2.877
29826SOL    HW191311   3.154   2.885   2.943
29826SOL    HW291312   3.293   2.881   2.882
29827SOL     OW91313   9.574   1.867   8.981
29827SOL    HW191314   9.503   1.929   9.002
29827SOL    HW291315   9.610   1.843   9.065
29828SOL     OW91316  11.676   1.137   7.446
29828SOL    HW191317  11.744   1.204   7.448
29828SOL    HW291318  11.675   1.106   7.356
29829SOL     OW91319   0.230  10.289   8.385
29829SOL    HW191320   0.152  10.299   8.330
29829SOL    HW291321   0.262  10.378   8.397
29830SOL     OW91322   9.369   5.240   7.901
29830SOL    HW191323   9.354   5.330   7.931
29830SOL    HW291324   9.454   5.217   7.938
29831SOL     OW91325   2.838   1.730   8.324
29831SOL    HW191326   2.747   1.710   8.343
29831SOL    HW291327   2.834   1.797   8.255
29832SOL     OW91328   1.579  11.505  13.354
29832SOL    HW191329   1.671  11.481  13.368
29832SOL    HW291330   1.582  11.570  13.284
29833SOL     OW91331   5.154   5.003  12.989
29833SOL    HW191332   5.245   4.976  13.002
29833SOL    HW291333   5.112   4.927  12.948
29834SOL     OW91334   4.518   3.719   4.869
29834SOL    HW191335   4.478   3.656   4.928
29834SOL    HW291336   4.448   3.779   4.845
29835SOL     OW91337  11.223   4.760   8.354
29835SOL    HW191338  11.315   4.757   8.380
29835SOL    HW291339  11.176   4.721   8.428
29836SOL     OW91340   9.223   1.493   6.632
29836SOL    HW191341   9.239   1.489   6.538
29836SOL    HW291342   9.304   1.528   6.669
29837SOL     OW91343   7.588   3.140  12.159
29837SOL    HW191344   7.542   3.134  12.242
29837SOL    HW291345   7.532   3.093  12.096
29838SOL     OW91346   7.819   0.147   1.298
29838SOL    HW191347   7.882   0.115   1.363
29838SOL    HW291348   7.872   0.163   1.219
29839SOL     OW91349   1.085  10.411   4.461
29839SOL    HW191350   1.097  10.359   4.540
29839SOL    HW291351   1.045  10.351   4.399
29840SOL     OW91352   8.857   3.212   5.027
29840SOL    HW191353   8.882   3.298   5.060
29840SOL    HW291354   8.767   3.201   5.056
29841SOL     OW91355   8.087  13.855  10.665
29841SOL    HW191356   8.137  13.795  10.609
29841SOL    HW291357   8.104  13.825  10.754
29842SOL     OW91358   8.825   1.574   0.227
29842SOL    HW191359   8.769   1.606   0.157
29842SOL    HW291360   8.905   1.545   0.183
29843SOL     OW91361   0.675   0.291   9.669
29843SOL    HW191362   0.614   0.339   9.726
29843SOL    HW291363   0.659   0.326   9.582
29844SOL     OW91364   1.051   8.119   6.870
29844SOL    HW191365   1.126   8.061   6.878
29844SOL    HW291366   1.087   8.201   6.837
29845SOL     OW91367   2.926   5.228   5.555
29845SOL    HW191368   3.015   5.255   5.534
29845SOL    HW291369   2.877   5.236   5.473
29846SOL     OW91370   5.369  14.207  14.272
29846SOL    HW191371   5.298  14.264  14.240
29846SOL    HW291372   5.332  14.161  14.347
29847SOL     OW91373  13.559   4.831   8.311
29847SOL    HW191374  13.485   4.812   8.369
29847SOL    HW291375  13.636   4.819   8.366
29848SOL     OW91376   7.452   8.721   8.221
29848SOL    HW191377   7.387   8.767   8.275
29848SOL    HW291378   7.533   8.769   8.234
29849SOL     OW91379   7.566   7.893   3.191
29849SOL    HW191380   7.610   7.944   3.259
29849SOL    HW291381   7.517   7.826   3.238
29850SOL     OW91382  13.537  11.382   1.297
29850SOL    HW191383  13.533  11.287   1.287
29850SOL    HW291384  13.465  11.403   1.356
29851SOL     OW91385   8.965   8.684   8.959
29851SOL    HW191386   9.039   8.650   9.009
29851SOL    HW291387   8.888   8.647   9.003
29852SOL     OW91388   7.941  13.758  14.673
29852SOL    HW191389   7.910  13.829  14.729
29852SOL    HW291390   7.864  13.731  14.623
29853SOL     OW91391   4.106   2.133   1.112
29853SOL    HW191392   4.193   2.148   1.076
29853SOL    HW291393   4.116   2.055   1.167
29854SOL     OW91394   7.503   7.473  13.030
29854SOL    HW191395   7.536   7.413  13.096
29854SOL    HW291396   7.580   7.518  12.996
29855SOL     OW91397  13.991   5.447   2.304
29855SOL    HW191398  13.961   5.371   2.254
29855SOL    HW291399  14.063   5.482   2.252
29856SOL     OW91400   5.681  13.201  11.510
29856SOL    HW191401   5.662  13.288  11.475
29856SOL    HW291402   5.718  13.154  11.435
29857SOL     OW91403   2.251   9.131  10.842
29857SOL    HW191404   2.326   9.121  10.902
29857SOL    HW291405   2.284   9.101  10.757
29858SOL     OW91406   0.265   8.491   1.068
29858SOL    HW191407   0.237   8.551   0.999
29858SOL    HW291408   0.215   8.411   1.052
29859SOL     OW91409  10.678  11.653   0.466
29859SOL    HW191410  10.605  11.591   0.471
29859SOL    HW291411  10.640  11.737   0.494
29860SOL     OW91412   5.695   4.582  10.013
29860SOL    HW191413   5.720   4.607   9.924
29860SOL    HW291414   5.643   4.503  10.001
29861SOL     OW91415   7.635   8.276  13.477
29861SOL    HW191416   7.557   8.306  13.431
29861SOL    HW291417   7.606   8.201  13.529
29862SOL     OW91418   3.760  14.826   9.524
29862SOL    HW191419   3.794  14.757   9.467
29862SOL    HW291420   3.836   0.009   9.542
29863SOL     OW91421   8.312  11.293   5.280
29863SOL    HW191422   8.300  11.215   5.334
29863SOL    HW291423   8.279  11.364   5.334
29864SOL     OW91424   9.262  10.043   2.804
29864SOL    HW191425   9.180  10.092   2.795
29864SOL    HW291426   9.306  10.054   2.719
29865SOL     OW91427   2.101  13.997   4.503
29865SOL    HW191428   2.028  14.055   4.523
29865SOL    HW291429   2.170  14.021   4.565
29866SOL     OW91430  10.267   2.333   5.696
29866SOL    HW191431  10.356   2.358   5.672
29866SOL    HW291432  10.211   2.394   5.647
29867SOL     OW91433   3.371   0.444  10.985
29867SOL    HW191434   3.310   0.509  10.950
29867SOL    HW291435   3.345   0.362  10.943
29868SOL     OW91436   3.047   2.990   1.898
29868SOL    HW191437   2.956   2.974   1.925
29868SOL    HW291438   3.039   3.043   1.819
29869SOL     OW91439   1.499   7.817   3.058
29869SOL    HW191440   1.579   7.833   3.008
29869SOL    HW291441   1.483   7.723   3.049
29870SOL     OW91442   0.987  11.372   8.558
29870SOL    HW191443   1.005  11.444   8.619
29870SOL    HW291444   1.074  11.345   8.527
29871SOL     OW91445   1.698  14.631   0.398
29871SOL    HW191446   1.774  14.574   0.383
29871SOL    HW291447   1.700  14.695   0.327
29872SOL     OW91448  12.689   7.882   5.332
29872SOL    HW191449  12.734   7.965   5.353
29872SOL    HW291450  12.710   7.868   5.240
29873SOL     OW91451   0.288   0.526   9.550
29873SOL    HW191452   0.203   0.564   9.529
29873SOL    HW291453   0.348   0.562   9.486
29874SOL     OW91454  13.391   4.394   3.942
29874SOL    HW191455  13.424   4.361   3.858
29874SOL    HW291456  13.362   4.483   3.923
29875SOL     OW91457   2.762   8.691   5.417
29875SOL    HW191458   2.759   8.650   5.330
29875SOL    HW291459   2.842   8.744   5.415
29876SOL     OW91460  10.583   0.901  14.479
29876SOL    HW191461  10.550   0.942  14.398
29876SOL    HW291462  10.631   0.971  14.523
29877SOL     OW91463  12.912   1.378   2.927
29877SOL    HW191464  12.936   1.290   2.957
29877SOL    HW291465  12.991   1.430   2.940
29878SOL     OW91466  13.182   1.714  11.352
29878SOL    HW191467  13.170   1.725  11.446
29878SOL    HW291468  13.273   1.738  11.336
29879SOL     OW91469  13.813   5.328   3.730
29879SOL    HW191470  13.768   5.286   3.657
29879SOL    HW291471  13.767   5.298   3.808
29880SOL     OW91472  11.690  10.447  13.494
29880SOL    HW191473  11.694  10.471  13.586
29880SOL    HW291474  11.632  10.513  13.454
29881SOL     OW91475  13.119  10.512   0.003
29881SOL    HW191476  13.083  10.522   0.091
29881SOL    HW291477  13.053  10.551  14.818
29882SOL     OW91478   2.429   0.956   0.736
29882SOL    HW191479   2.381   0.914   0.665
29882SOL    HW291480   2.448   1.044   0.704
29883SOL     OW91481   1.598   9.453   3.465
29883SOL    HW191482   1.529   9.390   3.484
29883SOL    HW291483   1.553   9.529   3.429
29884SOL     OW91484   2.076  13.303   2.079
29884SOL    HW191485   2.126  13.255   2.146
29884SOL    HW291486   2.009  13.241   2.050
29885SOL     OW91487   4.353  14.377   1.749
29885SOL    HW191488   4.273  14.430   1.748
29885SOL    HW291489   4.325  14.291   1.716
29886SOL     OW91490   3.722   7.464   6.458
29886SOL    HW191491   3.652   7.409   6.424
29886SOL    HW291492   3.742   7.426   6.544
29887SOL     OW91493   3.749  13.893  11.371
29887SOL    HW191494   3.690  13.862  11.302
29887SOL    HW291495   3.773  13.814  11.419
29888SOL     OW91496   7.044  13.388   1.652
29888SOL    HW191497   7.057  13.307   1.702
29888SOL    HW291498   7.116  13.445   1.681
29889SOL     OW91499   5.438   4.078  12.533
29889SOL    HW191500   5.343   4.083  12.532
29889SOL    HW291501   5.460   4.023  12.458
29890SOL     OW91502   9.159   5.803   2.195
29890SOL    HW191503   9.247   5.807   2.233
29890SOL    HW291504   9.150   5.886   2.148
29891SOL     OW91505   3.958   8.644   2.972
29891SOL    HW191506   3.881   8.694   3.000
29891SOL    HW291507   4.017   8.710   2.934
29892SOL     OW91508   7.606  14.415  14.761
29892SOL    HW191509   7.575  14.491  14.811
29892SOL    HW291510   7.556  14.417  14.680
29893SOL     OW91511   2.621   1.718   9.849
29893SOL    HW191512   2.548   1.700   9.908
29893SOL    HW291513   2.686   1.760   9.904
29894SOL     OW91514   1.793   6.686  11.103
29894SOL    HW191515   1.725   6.741  11.064
29894SOL    HW291516   1.746   6.623  11.158
29895SOL     OW91517   1.857   1.343   5.100
29895SOL    HW191518   1.866   1.362   5.007
29895SOL    HW291519   1.762   1.340   5.114
29896SOL     OW91520   9.236  14.215   3.452
29896SOL    HW191521   9.244  14.143   3.515
29896SOL    HW291522   9.224  14.293   3.507
29897SOL     OW91523   4.157  14.552   6.529
29897SOL    HW191524   4.078  14.594   6.564
29897SOL    HW291525   4.174  14.479   6.589
29898SOL     OW91526   2.510   9.537   1.301
29898SOL    HW191527   2.503   9.631   1.319
29898SOL    HW291528   2.604   9.519   1.304
29899SOL     OW91529   0.131   3.872  14.678
29899SOL    HW191530   0.055   3.820  14.649
29899SOL    HW291531   0.100   3.917  14.756
29900SOL     OW91532   8.695  10.416   7.863
29900SOL    HW191533   8.732  10.503   7.880
29900SOL    HW291534   8.665  10.385   7.948
29901SOL     OW91535   5.271   0.883   4.947
29901SOL    HW191536   5.314   0.909   5.029
29901SOL    HW291537   5.262   0.965   4.898
29902SOL     OW91538   1.795  12.041   8.693
29902SOL    HW191539   1.796  12.126   8.738
29902SOL    HW291540   1.762  11.980   8.760
29903SOL     OW91541   8.341   0.293   1.837
29903SOL    HW191542   8.382   0.280   1.923
29903SOL    HW291543   8.260   0.339   1.857
29904SOL     OW91544  14.710   3.880   2.855
29904SOL    HW191545  14.680   3.944   2.791
29904SOL    HW291546  14.693   3.921   2.940
29905SOL     OW91547   9.849   5.861   2.003
29905SOL    HW191548   9.876   5.938   2.054
29905SOL    HW291549   9.909   5.792   2.030
29906SOL     OW91550   7.667   8.970   9.874
29906SOL    HW191551   7.603   8.900   9.862
29906SOL    HW291552   7.614   9.047   9.898
29907SOL     OW91553  11.042   6.503   9.986
29907SOL    HW191554  10.980   6.430   9.989
29907SOL    HW291555  11.009   6.566  10.050
29908SOL     OW91556   1.186   5.305   6.743
29908SOL    HW191557   1.097   5.314   6.777
29908SOL    HW291558   1.213   5.394   6.722
29909SOL     OW91559   9.895   1.361  14.629
29909SOL    HW191560   9.989   1.343  14.641
29909SOL    HW291561   9.868   1.300  14.561
29910SOL     OW91562  13.626  12.292   1.301
29910SOL    HW191563  13.633  12.197   1.303
29910SOL    HW291564  13.541  12.311   1.341
29911SOL     OW91565   3.925  11.509  14.634
29911SOL    HW191566   3.879  11.523  14.717
29911SOL    HW291567   3.862  11.465  14.578
29912SOL     OW91568  14.828  10.333   3.683
29912SOL    HW191569  14.848  10.378   3.765
29912SOL    HW291570  14.735  10.310   3.690
29913SOL     OW91571   1.883   1.175   6.513
29913SOL    HW191572   1.862   1.182   6.420
29913SOL    HW291573   1.799   1.156   6.555
29914SOL     OW91574   3.471  10.080  12.128
29914SOL    HW191575   3.497  10.028  12.052
29914SOL    HW291576   3.491  10.024  12.203
29915SOL     OW91577  11.635  12.022   0.998
29915SOL    HW191578  11.713  12.040   1.052
29915SOL    HW291579  11.670  11.988   0.916
29916SOL     OW91580   3.586  12.800   3.045
29916SOL    HW191581   3.656  12.836   2.991
29916SOL    HW291582   3.618  12.810   3.135
29917SOL     OW91583  14.277  11.609   7.899
29917SOL    HW191584  14.238  11.563   7.973
29917SOL    HW291585  14.206  11.662   7.864
29918SOL     OW91586   2.394   6.899   5.894
29918SOL    HW191587   2.467   6.869   5.840
29918SOL    HW291588   2.335   6.944   5.833
29919SOL     OW91589  12.526  11.455   7.110
29919SOL    HW191590  12.453  11.470   7.170
29919SOL    HW291591  12.515  11.365   7.080
29920SOL     OW91592   6.277   2.798   4.705
29920SOL    HW191593   6.184   2.823   4.702
29920SOL    HW291594   6.323   2.880   4.719
29921SOL     OW91595  13.968   6.047  11.529
29921SOL    HW191596  13.982   5.953  11.526
29921SOL    HW291597  13.944   6.065  11.619
29922SOL     OW91598  13.854   0.062   0.669
29922SOL    HW191599  13.776   0.078   0.615
29922SOL    HW291600  13.923   0.112   0.626
29923SOL     OW91601   9.719  10.202   4.953
29923SOL    HW191602   9.646  10.162   5.000
29923SOL    HW291603   9.725  10.153   4.871
29924SOL     OW91604   5.171   6.681   7.238
29924SOL    HW191605   5.133   6.686   7.326
29924SOL    HW291606   5.257   6.723   7.246
29925SOL     OW91607   6.394   1.701  10.533
29925SOL    HW191608   6.462   1.704  10.601
29925SOL    HW291609   6.340   1.625  10.557
29926SOL     OW91610   5.149   5.015  13.966
29926SOL    HW191611   5.097   5.081  14.012
29926SOL    HW291612   5.239   5.034  13.991
29927SOL     OW91613   9.300   8.967   6.327
29927SOL    HW191614   9.303   8.894   6.265
29927SOL    HW291615   9.254   8.932   6.404
29928SOL     OW91616   8.509   8.405   7.227
29928SOL    HW191617   8.419   8.371   7.222
29928SOL    HW291618   8.501   8.485   7.278
29929SOL     OW91619  13.288   7.875  14.373
29929SOL    HW191620  13.195   7.894  14.369
29929SOL    HW291621  13.300   7.799  14.317
29930SOL     OW91622  12.551   6.007  14.313
29930SOL    HW191623  12.509   5.971  14.235
29930SOL    HW291624  12.589   5.931  14.357
29931SOL     OW91625  11.566   6.446   5.698
29931SOL    HW191626  11.481   6.471   5.662
29931SOL    HW291627  11.550   6.437   5.792
29932SOL     OW91628  10.099   6.866   9.534
29932SOL    HW191629  10.029   6.800   9.530
29932SOL    HW291630  10.117   6.875   9.627
29933SOL     OW91631   4.836   5.984   2.306
29933SOL    HW191632   4.741   5.989   2.297
29933SOL    HW291633   4.856   6.029   2.388
29934SOL     OW91634   0.404  11.593   8.442
29934SOL    HW191635   0.482  11.553   8.403
29934SOL    HW291636   0.421  11.592   8.536
29935SOL     OW91637   7.844  14.072   7.400
29935SOL    HW191638   7.932  14.105   7.383
29935SOL    HW291639   7.806  14.135   7.461
29936SOL     OW91640   4.733   8.313   3.020
29936SOL    HW191641   4.701   8.276   2.938
29936SOL    HW291642   4.771   8.238   3.066
29937SOL     OW91643  13.293  11.062   1.156
29937SOL    HW191644  13.244  10.990   1.117
29937SOL    HW291645  13.275  11.055   1.250
29938SOL     OW91646   1.638  14.670  12.645
29938SOL    HW191647   1.652  14.750  12.695
29938SOL    HW291648   1.718  14.659  12.594
29939SOL     OW91649   8.910  11.253  13.869
29939SOL    HW191650   8.863  11.295  13.797
29939SOL    HW291651   8.892  11.308  13.945
29940SOL     OW91652  12.424   9.241   2.469
29940SOL    HW191653  12.442   9.335   2.471
29940SOL    HW291654  12.394   9.220   2.557
29941SOL     OW91655   4.149  13.918   8.774
29941SOL    HW191656   4.231  13.962   8.748
29941SOL    HW291657   4.108  13.979   8.835
29942SOL     OW91658  10.215  13.027  14.488
29942SOL    HW191659  10.271  12.949  14.482
29942SOL    HW291660  10.156  13.019  14.413
29943SOL     OW91661   7.276   0.876   5.754
29943SOL    HW191662   7.296   0.959   5.710
29943SOL    HW291663   7.226   0.901   5.832
29944SOL     OW91664   2.263  10.403   8.679
29944SOL    HW191665   2.300  10.487   8.707
29944SOL    HW291666   2.328  10.366   8.620
29945SOL     OW91667  10.650   3.532   8.672
29945SOL    HW191668  10.555   3.540   8.678
29945SOL    HW291669  10.665   3.455   8.617
29946SOL     OW91670   4.159   0.609  13.088
29946SOL    HW191671   4.139   0.666  13.013
29946SOL    HW291672   4.092   0.542  13.085
29947SOL     OW91673   8.650   7.013  13.206
29947SOL    HW191674   8.586   6.951  13.171
29947SOL    HW291675   8.599   7.093  13.222
29948SOL     OW91676  13.294  12.097   1.822
29948SOL    HW191677  13.294  12.137   1.909
29948SOL    HW291678  13.384  12.067   1.810
29949SOL     OW91679  12.707   4.900   1.402
29949SOL    HW191680  12.688   4.807   1.390
29949SOL    HW291681  12.784   4.903   1.459
29950SOL     OW91682   1.691  11.183  12.983
29950SOL    HW191683   1.700  11.243  13.057
29950SOL    HW291684   1.641  11.110  13.018
29951SOL     OW91685   7.759   2.235  10.781
29951SOL    HW191686   7.782   2.170  10.846
29951SOL    HW291687   7.771   2.319  10.825
29952SOL     OW91688   1.563   1.460  13.699
29952SOL    HW191689   1.512   1.535  13.667
29952SOL    HW291690   1.560   1.469  13.794
29953SOL     OW91691   6.948   9.122   6.829
29953SOL    HW191692   7.013   9.098   6.763
29953SOL    HW291693   6.865   9.091   6.793
29954SOL     OW91694  12.811  12.707   0.637
29954SOL    HW191695  12.892  12.677   0.596
29954SOL    HW291696  12.834  12.789   0.681
29955SOL     OW91697   7.132   5.833  13.826
29955SOL    HW191698   7.227   5.839  13.825
29955SOL    HW291699   7.109   5.815  13.917
29956SOL     OW91700  10.084   2.536   9.754
29956SOL    HW191701  10.000   2.580   9.744
29956SOL    HW291702  10.140   2.599   9.800
29957SOL     OW91703   7.303  13.214   1.150
29957SOL    HW191704   7.251  13.293   1.162
29957SOL    HW291705   7.322  13.211   1.056
29958SOL     OW91706  14.026   6.798  14.743
29958SOL    HW191707  13.983   6.717  14.772
29958SOL    HW291708  13.985   6.867  14.795
29959SOL     OW91709  11.659   8.776  14.008
29959SOL    HW191710  11.636   8.868  14.026
29959SOL    HW291711  11.742   8.781  13.960
29960SOL     OW91712   4.742  11.319   9.963
29960SOL    HW191713   4.787  11.241   9.997
29960SOL    HW291714   4.685  11.285   9.894
29961SOL     OW91715   0.965  11.163   8.760
29961SOL    HW191716   0.940  11.172   8.668
29961SOL    HW291717   0.979  11.069   8.771
29962SOL     OW91718   8.590   9.692   6.297
29962SOL    HW191719   8.599   9.714   6.390
29962SOL    HW291720   8.679   9.685   6.265
29963SOL     OW91721   9.062  10.523  13.034
29963SOL    HW191722   9.058  10.428  13.026
29963SOL    HW291723   8.972  10.550  13.051
29964SOL     OW91724  11.614  10.111   0.133
29964SOL    HW191725  11.521  10.100   0.115
29964SOL    HW291726  11.658  10.082   0.053
29965SOL     OW91727   5.878  14.330  11.959
29965SOL    HW191728   5.824  14.295  12.030
29965SOL    HW291729   5.839  14.296  11.879
29966SOL     OW91730   7.193  14.447   9.022
29966SOL    HW191731   7.130  14.474   9.088
29966SOL    HW291732   7.186  14.351   9.021
29967SOL     OW91733   9.242   2.811  11.574
29967SOL    HW191734   9.332   2.778  11.576
29967SOL    HW291735   9.189   2.739  11.611
29968SOL     OW91736  11.434   7.000   4.302
29968SOL    HW191737  11.490   7.018   4.378
29968SOL    HW291738  11.480   6.930   4.255
29969SOL     OW91739   4.680   3.164   7.333
29969SOL    HW191740   4.686   3.093   7.398
29969SOL    HW291741   4.679   3.119   7.249
29970SOL     OW91742   2.176   8.956   7.721
29970SOL    HW191743   2.212   8.955   7.632
29970SOL    HW291744   2.248   8.987   7.776
29971SOL     OW91745   3.419  13.400   1.783
29971SOL    HW191746   3.405  13.306   1.772
29971SOL    HW291747   3.374  13.440   1.709
29972SOL     OW91748   6.483   5.005  13.919
29972SOL    HW191749   6.506   5.089  13.959
29972SOL    HW291750   6.507   4.940  13.985
29973SOL     OW91751   0.935   5.853   2.438
29973SOL    HW191752   0.915   5.771   2.392
29973SOL    HW291753   0.994   5.827   2.508
29974SOL     OW91754   5.118   3.137   0.066
29974SOL    HW191755   5.192   3.197   0.068
29974SOL    HW291756   5.121   3.098  14.851
29975SOL     OW91757   6.362  14.531   6.624
29975SOL    HW191758   6.453  14.526   6.596
29975SOL    HW291759   6.346  14.447   6.667
29976SOL     OW91760   8.646   3.384   7.399
29976SOL    HW191761   8.727   3.418   7.436
29976SOL    HW291762   8.648   3.411   7.307
29977SOL     OW91763  12.925   2.370   2.439
29977SOL    HW191764  12.981   2.447   2.449
29977SOL    HW291765  12.968   2.318   2.372
29978SOL     OW91766   5.180   4.552   5.392
29978SOL    HW191767   5.162   4.554   5.486
29978SOL    HW291768   5.274   4.569   5.385
29979SOL     OW91769   5.804   7.740   3.819
29979SOL    HW191770   5.718   7.775   3.797
29979SOL    HW291771   5.791   7.689   3.899
29980SOL     OW91772   3.306  12.862   2.383
29980SOL    HW191773   3.276  12.863   2.474
29980SOL    HW291774   3.343  12.774   2.371
29981SOL     OW91775  10.430   9.998   4.695
29981SOL    HW191776  10.444  10.005   4.789
29981SOL    HW291777  10.358  10.059   4.677
29982SOL     OW91778   7.154   3.540   5.434
29982SOL    HW191779   7.107   3.509   5.357
29982SOL    HW291780   7.122   3.484   5.505
29983SOL     OW91781   0.232  13.551   2.198
29983SOL    HW191782   0.226  13.462   2.163
29983SOL    HW291783   0.217  13.541   2.291
29984SOL     OW91784   6.844   6.856  10.965
29984SOL    HW191785   6.817   6.948  10.955
29984SOL    HW291786   6.782   6.807  10.911
29985SOL     OW91787   0.521  11.997   7.904
29985SOL    HW191788   0.440  11.974   7.949
29985SOL    HW291789   0.559  12.067   7.958
29986SOL     OW91790   9.240  10.665   1.418
29986SOL    HW191791   9.285  10.704   1.343
29986SOL    HW291792   9.253  10.728   1.489
29987SOL     OW91793  12.295   5.866  10.161
29987SOL    HW191794  12.270   5.881  10.252
29987SOL    HW291795  12.221   5.899  10.110
29988SOL     OW91796   0.371  11.600   0.104
29988SOL    HW191797   0.451  11.548   0.113
29988SOL    HW291798   0.316  11.550   0.044
29989SOL     OW91799   7.606   5.696   5.711
29989SOL    HW191800   7.651   5.644   5.644
29989SOL    HW291801   7.553   5.759   5.661
29990SOL     OW91802   4.496  11.000   0.614
29990SOL    HW191803   4.541  11.049   0.545
29990SOL    HW291804   4.500  10.909   0.583
29991SOL     OW91805   4.645   1.492   4.195
29991SOL    HW191806   4.585   1.565   4.205
29991SOL    HW291807   4.717   1.527   4.141
29992SOL     OW91808   3.475   3.828   9.560
29992SOL    HW191809   3.558   3.799   9.597
29992SOL    HW291810   3.411   3.766   9.596
29993SOL     OW91811  10.206   3.595  13.780
29993SOL    HW191812  10.149   3.624  13.852
29993SOL    HW291813  10.254   3.520  13.816
29994SOL     OW91814   2.931  10.354   9.889
29994SOL    HW191815   2.954  10.335   9.798
29994SOL    HW291816   2.847  10.310   9.902
29995SOL     OW91817  14.614   3.872  10.140
29995SOL    HW191818  14.653   3.957  10.121
29995SOL    HW291819  14.643   3.852  10.229
29996SOL     OW91820   0.258   9.829   7.676
29996SOL    HW191821   0.237   9.879   7.597
29996SOL    HW291822   0.174   9.797   7.707
29997SOL     OW91823   4.309  11.891  14.248
29997SOL    HW191824   4.315  11.961  14.312
29997SOL    HW291825   4.223  11.851  14.263
29998SOL     OW91826  10.989  13.950   3.923
29998SOL    HW191827  11.039  14.031   3.921
29998SOL    HW291828  10.911  13.971   3.975
29999SOL     OW91829   5.854   8.829  13.779
29999SOL    HW191830   5.875   8.736  13.786
29999SOL    HW291831   5.934   8.868  13.744
30000SOL     OW91832  14.274  10.467   9.339
30000SOL    HW191833  14.223  10.544   9.363
30000SOL    HW291834  14.321  10.443   9.419
30001SOL     OW91835  12.349  10.233   7.953
30001SOL    HW191836  12.427  10.221   8.007
30001SOL    HW291837  12.361  10.173   7.879
30002SOL     OW91838   0.509  10.512   7.841
30002SOL    HW191839   0.423  10.554   7.845
30002SOL    HW291840   0.496  10.427   7.883
30003SOL     OW91841   0.773  12.722   2.830
30003SOL    HW191842   0.846  12.667   2.803
30003SOL    HW291843   0.809  12.781   2.896
30004SOL     OW91844  13.639   0.493  12.907
30004SOL    HW191845  13.660   0.562  12.845
30004SOL    HW291846  13.599   0.538  12.981
30005SOL     OW91847   9.678  14.589  11.364
30005SOL    HW191848   9.642  14.628  11.444
30005SOL    HW291849   9.605  14.588  11.302
30006SOL     OW91850   9.184   7.187   3.675
30006SOL    HW191851   9.113   7.225   3.623
30006SOL    HW291852   9.221   7.261   3.724
30007SOL     OW91853   6.226  10.927  13.676
30007SOL    HW191854   6.165  10.942  13.748
30007SOL    HW291855   6.256  10.837  13.688
30008SOL     OW91856   9.489  10.710   2.337
30008SOL    HW191857   9.394  10.722   2.338
30008SOL    HW291858   9.524  10.798   2.335
30009SOL     OW91859  11.371   3.046   0.614
30009SOL    HW191860  11.435   3.066   0.682
30009SOL    HW291861  11.354   2.952   0.624
30010SOL     OW91862   1.120  11.468   9.466
30010SOL    HW191863   1.046  11.419   9.430
30010SOL    HW291864   1.094  11.489   9.556
30011SOL     OW91865   6.946   0.347   2.963
30011SOL    HW191866   6.999   0.393   2.897
30011SOL    HW291867   6.894   0.416   3.003
30012SOL     OW91868   2.229   8.022   6.966
30012SOL    HW191869   2.317   8.014   7.003
30012SOL    HW291870   2.237   8.093   6.902
30013SOL     OW91871   7.503  11.022   7.917
30013SOL    HW191872   7.427  11.022   7.975
30013SOL    HW291873   7.502  10.935   7.876
30014SOL     OW91874   2.725  13.301   9.210
30014SOL    HW191875   2.731  13.209   9.233
30014SOL    HW291876   2.811  13.337   9.233
30015SOL     OW91877  11.619   4.884   0.938
30015SOL    HW191878  11.618   4.951   0.870
30015SOL    HW291879  11.538   4.835   0.925
30016SOL     OW91880  14.574   9.975  10.538
30016SOL    HW191881  14.543   9.893  10.577
30016SOL    HW291882  14.504  10.001  10.479
30017SOL     OW91883   4.867   0.589  11.063
30017SOL    HW191884   4.899   0.500  11.049
30017SOL    HW291885   4.786   0.578  11.113
30018SOL     OW91886   0.261   3.511  14.305
30018SOL    HW191887   0.287   3.419  14.309
30018SOL    HW291888   0.310   3.553  14.375
30019SOL     OW91889   4.051  13.443  10.589
30019SOL    HW191890   4.121  13.410  10.533
30019SOL    HW291891   4.086  13.525  10.625
30020SOL     OW91892   2.265   2.022   6.063
30020SOL    HW191893   2.299   2.050   5.978
30020SOL    HW291894   2.272   2.101   6.118
30021SOL     OW91895   5.881   8.052  12.611
30021SOL    HW191896   5.928   8.128  12.577
30021SOL    HW291897   5.928   8.030  12.692
30022SOL     OW91898  13.385  10.566  14.185
30022SOL    HW191899  13.412  10.578  14.276
30022SOL    HW291900  13.460  10.521  14.144
30023SOL     OW91901   6.321   8.171   2.983
30023SOL    HW191902   6.283   8.233   3.046
30023SOL    HW291903   6.245   8.137   2.934
30024SOL     OW91904   7.040   1.376   3.025
30024SOL    HW191905   7.017   1.372   3.118
30024SOL    HW291906   7.070   1.466   3.012
30025SOL     OW91907   4.795   7.402  11.544
30025SOL    HW191908   4.769   7.368  11.459
30025SOL    HW291909   4.802   7.325  11.600
30026SOL     OW91910   7.186   0.988   0.445
30026SOL    HW191911   7.239   0.983   0.366
30026SOL    HW291912   7.250   1.005   0.515
30027SOL     OW91913   5.507  13.265   5.542
30027SOL    HW191914   5.505  13.246   5.448
30027SOL    HW291915   5.598  13.284   5.561
30028SOL     OW91916   5.929  13.617  12.950
30028SOL    HW191917   5.900  13.636  12.861
30028SOL    HW291918   5.899  13.691  13.002
30029SOL     OW91919  14.703   5.249   3.287
30029SOL    HW191920  14.743   5.313   3.228
30029SOL    HW291921  14.702   5.293   3.372
30030SOL     OW91922   2.950   3.210   9.022
30030SOL    HW191923   2.973   3.266   9.095
30030SOL    HW291924   2.888   3.146   9.059
30031SOL     OW91925   0.494   7.741   1.934
30031SOL    HW191926   0.477   7.807   2.001
30031SOL    HW291927   0.588   7.724   1.939
30032SOL     OW91928   4.387   8.924   5.007
30032SOL    HW191929   4.339   8.923   4.924
30032SOL    HW291930   4.477   8.944   4.982
30033SOL     OW91931   6.861   4.967  10.729
30033SOL    HW191932   6.805   5.024  10.783
30033SOL    HW291933   6.902   5.027  10.667
30034SOL     OW91934  12.580  11.218   5.747
30034SOL    HW191935  12.647  11.272   5.788
30034SOL    HW291936  12.533  11.278   5.689
30035SOL     OW91937   9.393  10.243   1.771
30035SOL    HW191938   9.331  10.170   1.766
30035SOL    HW291939   9.465  10.218   1.713
30036SOL     OW91940   7.564   4.077   5.503
30036SOL    HW191941   7.492   4.020   5.528
30036SOL    HW291942   7.577   4.135   5.578
30037SOL     OW91943   9.620  12.058   3.721
30037SOL    HW191944   9.567  12.069   3.799
30037SOL    HW291945   9.631  11.963   3.712
30038SOL     OW91946   6.516  12.651   3.382
30038SOL    HW191947   6.519  12.658   3.287
30038SOL    HW291948   6.488  12.561   3.400
30039SOL     OW91949  14.555   7.377  10.267
30039SOL    HW191950  14.536   7.324  10.345
30039SOL    HW291951  14.478   7.366  10.211
30040SOL     OW91952   1.832   6.989  13.217
30040SOL    HW191953   1.909   7.010  13.269
30040SOL    HW291954   1.763   6.972  13.282
30041SOL     OW91955   6.869   2.346   8.032
30041SOL    HW191956   6.953   2.390   8.024
30041SOL    HW291957   6.889   2.253   8.022
30042SOL     OW91958  11.906   6.964  10.462
30042SOL    HW191959  11.967   7.038  10.464
30042SOL    HW291960  11.962   6.887  10.453
30043SOL     OW91961   9.025   3.491  11.990
30043SOL    HW191962   9.055   3.527  11.907
30043SOL    HW291963   9.072   3.408  11.998
30044SOL     OW91964   4.143   8.412   3.653
30044SOL    HW191965   4.107   8.395   3.740
30044SOL    HW291966   4.138   8.507   3.644
30045SOL     OW91967  11.863   4.841  11.195
30045SOL    HW191968  11.818   4.763  11.163
30045SOL    HW291969  11.955   4.828  11.172
30046SOL     OW91970   5.953   0.558   4.534
30046SOL    HW191971   5.907   0.639   4.514
30046SOL    HW291972   5.997   0.575   4.617
30047SOL     OW91973   7.834   8.609   8.401
30047SOL    HW191974   7.874   8.568   8.478
30047SOL    HW291975   7.861   8.553   8.328
30048SOL     OW91976   0.958  11.185   9.956
30048SOL    HW191977   1.037  11.214  10.003
30048SOL    HW291978   0.894  11.254   9.973
30049SOL     OW91979  13.183  12.084   4.385
30049SOL    HW191980  13.166  12.022   4.314
30049SOL    HW291981  13.224  12.031   4.453
30050SOL     OW91982   0.273  12.163   3.286
30050SOL    HW191983   0.221  12.100   3.335
30050SOL    HW291984   0.334  12.109   3.235
30051SOL     OW91985  13.362   2.450   4.823
30051SOL    HW191986  13.349   2.365   4.865
30051SOL    HW291987  13.425   2.495   4.880
30052SOL     OW91988  13.767   8.093   1.609
30052SOL    HW191989  13.834   8.037   1.648
30052SOL    HW291990  13.712   8.034   1.558
30053SOL     OW91991   2.009   6.734   4.199
30053SOL    HW191992   1.926   6.749   4.154
30053SOL    HW291993   2.008   6.641   4.222
30054SOL     OW91994   7.796  14.311   5.003
30054SOL    HW191995   7.786  14.315   4.908
30054SOL    HW291996   7.781  14.219   5.025
30055SOL     OW91997  10.189   9.562  10.715
30055SOL    HW191998  10.180   9.594  10.625
30055SOL    HW291999  10.175   9.467  10.708
30056SOL     OW92000  14.493   1.067  10.421
30056SOL    HW192001  14.584   1.067  10.451
30056SOL    HW292002  14.490   1.131  10.351
30057SOL     OW92003   6.600  11.755   1.357
30057SOL    HW192004   6.625  11.679   1.409
30057SOL    HW292005   6.667  11.760   1.289
30058SOL     OW92006   0.470   8.151   1.125
30058SOL    HW192007   0.477   8.185   1.215
30058SOL    HW292008   0.526   8.074   1.125
30059SOL     OW92009   6.583   3.105   9.110
30059SOL    HW192010   6.512   3.162   9.079
30059SOL    HW292011   6.586   3.120   9.204
30060SOL     OW92012   9.639   7.092  11.748
30060SOL    HW192013   9.672   7.024  11.689
30060SOL    HW292014   9.586   7.148  11.691
30061SOL     OW92015   8.500  12.489   0.181
30061SOL    HW192016   8.586  12.450   0.166
30061SOL    HW292017   8.438  12.419   0.158
30062SOL     OW92018   7.725  14.129   6.640
30062SOL    HW192019   7.723  14.034   6.630
30062SOL    HW292020   7.643  14.150   6.685
30063SOL     OW92021   6.486   3.774   0.666
30063SOL    HW192022   6.530   3.739   0.589
30063SOL    HW292023   6.406   3.723   0.674
30064SOL     OW92024   9.582   3.788   4.242
30064SOL    HW192025   9.498   3.832   4.231
30064SOL    HW292026   9.608   3.806   4.332
30065SOL     OW92027  10.126  10.860   3.004
30065SOL    HW192028  10.215  10.891   3.022
30065SOL    HW292029  10.115  10.784   3.062
30066SOL     OW92030  12.553   7.627   6.225
30066SOL    HW192031  12.469   7.624   6.179
30066SOL    HW292032  12.611   7.571   6.173
30067SOL     OW92033   9.335   1.867   7.986
30067SOL    HW192034   9.250   1.859   8.029
30067SOL    HW292035   9.396   1.887   8.057
30068SOL     OW92036   0.235   7.675   9.133
30068SOL    HW192037   0.281   7.735   9.074
30068SOL    HW292038   0.187   7.617   9.074
30069SOL     OW92039   5.898   8.104   8.619
30069SOL    HW192040   5.814   8.133   8.653
30069SOL    HW292041   5.927   8.175   8.563
30070SOL     OW92042  12.132  11.648  14.342
30070SOL    HW192043  12.171  11.619  14.425
30070SOL    HW292044  12.040  11.623  14.350
30071SOL     OW92045   2.967  10.439  13.955
30071SOL    HW192046   2.998  10.349  13.950
30071SOL    HW292047   3.046  10.490  13.973
30072SOL     OW92048   7.288   5.443   1.084
30072SOL    HW192049   7.354   5.386   1.123
30072SOL    HW292050   7.206   5.395   1.094
30073SOL     OW92051   2.727   5.037  12.263
30073SOL    HW192052   2.651   4.984  12.236
30073SOL    HW292053   2.729   5.029  12.358
30074SOL     OW92054   6.738   2.455   1.510
30074SOL    HW192055   6.662   2.417   1.466
30074SOL    HW292056   6.786   2.380   1.545
30075SOL     OW92057  13.218  14.380  10.718
30075SOL    HW192058  13.278  14.323  10.767
30075SOL    HW292059  13.204  14.455  10.775
30076SOL     OW92060  14.302   7.905   1.040
30076SOL    HW192061  14.391   7.876   1.019
30076SOL    HW292062  14.245   7.841   0.997
30077SOL     OW92063   8.450  11.110  12.881
30077SOL    HW192064   8.535  11.066  12.885
30077SOL    HW292065   8.442  11.153  12.966
30078SOL     OW92066   6.230  14.102   9.469
30078SOL    HW192067   6.288  14.167   9.430
30078SOL    HW292068   6.142  14.137   9.454
30079SOL     OW92069  11.252   8.866   3.169
30079SOL    HW192070  11.244   8.850   3.075
30079SOL    HW292071  11.216   8.787   3.210
30080SOL     OW92072   2.402   5.852   6.796
30080SOL    HW192073   2.373   5.768   6.833
30080SOL    HW292074   2.362   5.854   6.709
30081SOL     OW92075   6.821   0.322  10.937
30081SOL    HW192076   6.767   0.380  10.883
30081SOL    HW292077   6.821   0.239  10.891
30082SOL     OW92078  10.245   0.114   1.069
30082SOL    HW192079  10.245   0.027   1.028
30082SOL    HW292080  10.172   0.160   1.027
30083SOL     OW92081   9.468  14.060  13.754
30083SOL    HW192082   9.470  14.139  13.699
30083SOL    HW292083   9.377  14.031  13.749
30084SOL     OW92084  12.553  13.934  10.419
30084SOL    HW192085  12.468  13.946  10.460
30084SOL    HW292086  12.601  13.876  10.478
30085SOL     OW92087  14.484  14.031  13.702
30085SOL    HW192088  14.419  13.974  13.662
30085SOL    HW292089  14.447  14.055  13.787
30086SOL     OW92090   5.034   8.801  11.026
30086SOL    HW192091   5.060   8.768  11.112
30086SOL    HW292092   5.106   8.859  11.000
30087SOL     OW92093   2.833   9.880   1.414
30087SOL    HW192094   2.911   9.842   1.374
30087SOL    HW292095   2.824   9.833   1.497
30088SOL     OW92096   6.429   0.301   1.311
30088SOL    HW192097   6.361   0.358   1.347
30088SOL    HW292098   6.491   0.360   1.270
30089SOL     OW92099  12.160   8.935   6.033
30089SOL    HW192100  12.088   8.875   6.012
30089SOL    HW292101  12.214   8.936   5.954
30090SOL     OW92102  11.121   2.234   4.868
30090SOL    HW192103  11.101   2.242   4.961
30090SOL    HW292104  11.082   2.312   4.828
30091SOL     OW92105   3.466   1.557  11.834
30091SOL    HW192106   3.460   1.564  11.929
30091SOL    HW292107   3.532   1.621  11.809
30092SOL     OW92108   0.068  11.946   2.659
30092SOL    HW192109   0.099  12.000   2.586
30092SOL    HW292110   0.057  11.859   2.621
30093SOL     OW92111   4.043   8.496  11.868
30093SOL    HW192112   4.050   8.537  11.782
30093SOL    HW292113   4.030   8.569  11.928
30094SOL     OW92114   8.669   3.044   6.515
30094SOL    HW192115   8.593   3.086   6.553
30094SOL    HW292116   8.634   2.986   6.447
30095SOL     OW92117   3.802   6.917  13.302
30095SOL    HW192118   3.860   6.866  13.359
30095SOL    HW292119   3.739   6.957  13.362
30096SOL     OW92120  12.293  12.266  13.303
30096SOL    HW192121  12.314  12.347  13.256
30096SOL    HW292122  12.215  12.288  13.355
30097SOL     OW92123   9.601   1.166  11.498
30097SOL    HW192124   9.630   1.107  11.567
30097SOL    HW292125   9.618   1.254  11.533
30098SOL     OW92126   1.683   3.875   4.287
30098SOL    HW192127   1.747   3.868   4.358
30098SOL    HW292128   1.707   3.954   4.240
30099SOL     OW92129  13.447   0.496   4.573
30099SOL    HW192130  13.472   0.435   4.643
30099SOL    HW292131  13.527   0.543   4.553
30100SOL     OW92132   9.713   9.713   0.193
30100SOL    HW192133   9.686   9.804   0.184
30100SOL    HW292134   9.745   9.706   0.283
30101SOL     OW92135   1.521   2.892   9.732
30101SOL    HW192136   1.608   2.859   9.757
30101SOL    HW292137   1.487   2.825   9.672
30102SOL     OW92138   3.257   2.576  11.658
30102SOL    HW192139   3.296   2.641  11.600
30102SOL    HW292140   3.171   2.558  11.620
30103SOL     OW92141   1.377  10.094  10.826
30103SOL    HW192142   1.430  10.052  10.758
30103SOL    HW292143   1.416  10.065  10.908
30104SOL     OW92144   2.684   2.388   1.623
30104SOL    HW192145   2.613   2.328   1.646
30104SOL    HW292146   2.726   2.347   1.548
30105SOL     OW92147   0.944  12.953   0.418
30105SOL    HW192148   0.991  13.006   0.354
30105SOL    HW292149   0.994  12.871   0.422
30106SOL     OW92150   1.940   0.912  13.716
30106SOL    HW192151   1.876   0.972  13.678
30106SOL    HW292152   1.933   0.928  13.811
30107SOL     OW92153   1.564   0.509   3.916
30107SOL    HW192154   1.487   0.454   3.934
30107SOL    HW292155   1.537   0.563   3.842
30108SOL     OW92156   1.053   7.710  11.408
30108SOL    HW192157   0.988   7.654  11.366
30108SOL    HW292158   1.032   7.706  11.501
30109SOL     OW92159  12.265   8.676  12.673
30109SOL    HW192160  12.328   8.609  12.648
30109SOL    HW292161  12.216   8.694  12.592
30110SOL     OW92162  11.970  10.289  10.926
30110SOL    HW192163  11.901  10.280  10.860
30110SOL    HW292164  11.950  10.371  10.970
30111SOL     OW92165   8.572   7.653   7.380
30111SOL    HW192166   8.490   7.634   7.425
30111SOL    HW292167   8.628   7.690   7.447
30112SOL     OW92168   9.404  10.580   4.204
30112SOL    HW192169   9.347  10.580   4.127
30112SOL    HW292170   9.409  10.488   4.231
30113SOL     OW92171   3.942  13.517   0.784
30113SOL    HW192172   4.019  13.498   0.837
30113SOL    HW292173   3.973  13.515   0.694
30114SOL     OW92174   5.870   6.386  12.609
30114SOL    HW192175   5.922   6.402  12.531
30114SOL    HW292176   5.850   6.292  12.606
30115SOL     OW92177  11.268  10.312  13.354
30115SOL    HW192178  11.362  10.322  13.336
30115SOL    HW292179  11.225  10.334  13.272
30116SOL     OW92180   0.646   7.744  11.344
30116SOL    HW192181   0.598   7.722  11.424
30116SOL    HW292182   0.577   7.756  11.278
30117SOL     OW92183  10.695   2.619  12.817
30117SOL    HW192184  10.726   2.533  12.789
30117SOL    HW292185  10.645   2.603  12.896
30118SOL     OW92186   6.918  11.658   4.329
30118SOL    HW192187   6.871  11.724   4.380
30118SOL    HW292188   6.904  11.685   4.238
30119SOL     OW92189  14.487   6.449   9.930
30119SOL    HW192190  14.501   6.518   9.866
30119SOL    HW292191  14.409   6.475   9.979
30120SOL     OW92192   0.918   1.953   9.549
30120SOL    HW192193   0.875   2.015   9.490
30120SOL    HW292194   0.917   1.996   9.634
30121SOL     OW92195   8.708   2.205  10.164
30121SOL    HW192196   8.765   2.142  10.208
30121SOL    HW292197   8.649   2.236  10.233
30122SOL     OW92198   8.655  14.578   0.754
30122SOL    HW192199   8.666  14.672   0.744
30122SOL    HW292200   8.583  14.555   0.696
30123SOL     OW92201   4.010   6.558   0.836
30123SOL    HW192202   3.915   6.566   0.845
30123SOL    HW292203   4.027   6.580   0.744
30124SOL     OW92204   3.933   4.100  13.597
30124SOL    HW192205   4.009   4.055  13.634
30124SOL    HW292206   3.952   4.104  13.503
30125SOL     OW92207   5.950  12.852   4.046
30125SOL    HW192208   6.045  12.842   4.040
30125SOL    HW292209   5.919  12.842   3.957
30126SOL     OW92210   5.708   7.830   0.977
30126SOL    HW192211   5.638   7.868   0.924
30126SOL    HW292212   5.779   7.894   0.972
30127SOL     OW92213  13.678   1.011  14.037
30127SOL    HW192214  13.657   1.056  13.955
30127SOL    HW292215  13.731   1.075  14.086
30128SOL     OW92216  10.970   2.674  12.281
30128SOL    HW192217  11.058   2.713  12.279
30128SOL    HW292218  10.984   2.585  12.314
30129SOL     OW92219   1.671  10.972   1.669
30129SOL    HW192220   1.635  10.898   1.620
30129SOL    HW292221   1.608  10.987   1.739
30130SOL     OW92222   4.588   6.088  14.113
30130SOL    HW192223   4.682   6.078  14.130
30130SOL    HW292224   4.584   6.138  14.031
30131SOL     OW92225  12.962   4.595   2.256
30131SOL    HW192226  12.924   4.619   2.172
30131SOL    HW292227  13.000   4.676   2.289
30132SOL     OW92228   1.500   3.798  14.093
30132SOL    HW192229   1.514   3.780  14.000
30132SOL    HW292230   1.587   3.811  14.129
30133SOL     OW92231   4.025   2.675   3.369
30133SOL    HW192232   3.971   2.673   3.448
30133SOL    HW292233   4.084   2.750   3.381
30134SOL     OW92234   0.610   0.469  11.066
30134SOL    HW192235   0.628   0.562  11.071
30134SOL    HW292236   0.531   0.457  11.120
30135SOL     OW92237  13.248  13.367   2.352
30135SOL    HW192238  13.285  13.388   2.437
30135SOL    HW292239  13.219  13.276   2.359
30136SOL     OW92240   7.821  12.287   0.904
30136SOL    HW192241   7.805  12.355   0.968
30136SOL    HW292242   7.761  12.307   0.832
30137SOL     OW92243   3.693  12.883   4.938
30137SOL    HW192244   3.622  12.947   4.944
30137SOL    HW292245   3.649  12.798   4.938
30138SOL     OW92246  11.044   2.459   6.040
30138SOL    HW192247  11.139   2.474   6.040
30138SOL    HW292248  11.012   2.512   6.114
30139SOL     OW92249   2.411  14.435   6.272
30139SOL    HW192250   2.497  14.445   6.231
30139SOL    HW292251   2.422  14.361   6.332
30140SOL     OW92252   4.311   3.595  14.821
30140SOL    HW192253   4.346   3.557   0.028
30140SOL    HW292254   4.376   3.660  14.793
30141SOL     OW92255  11.655   2.171  11.276
30141SOL    HW192256  11.637   2.224  11.199
30141SOL    HW292257  11.736   2.207  11.312
30142SOL     OW92258   8.637  11.556  10.688
30142SOL    HW192259   8.545  11.579  10.702
30142SOL    HW292260   8.673  11.632  10.642
30143SOL     OW92261   3.800  13.306   0.133
30143SOL    HW192262   3.784  13.256   0.053
30143SOL    HW292263   3.757  13.255   0.202
30144SOL     OW92264  14.051   9.787  12.845
30144SOL    HW192265  14.086   9.699  12.831
30144SOL    HW292266  14.120   9.845  12.814
30145SOL     OW92267  12.946   5.548  14.272
30145SOL    HW192268  12.936   5.455  14.253
30145SOL    HW292269  12.856   5.582  14.272
30146SOL     OW92270  13.368   0.007   9.695
30146SOL    HW192271  13.437  14.824   9.660
30146SOL    HW292272  13.397   0.028   9.784
30147SOL     OW92273  14.859  10.096   1.988
30147SOL    HW192274   0.011  10.176   1.942
30147SOL    HW292275   0.031  10.026   1.941
30148SOL     OW92276  11.215   1.761   2.337
30148SOL    HW192277  11.298   1.793   2.301
30148SOL    HW292278  11.236   1.736   2.427
30149SOL     OW92279   1.293  14.659   0.221
30149SOL    HW192280   1.224  14.635   0.284
30149SOL    HW292281   1.348  14.581   0.215
30150SOL     OW92282   5.429   0.856   5.328
30150SOL    HW192283   5.518   0.846   5.293
30150SOL    HW292284   5.442   0.872   5.421
30151SOL     OW92285   5.659   6.032   1.547
30151SOL    HW192286   5.751   6.007   1.535
30151SOL    HW292287   5.615   5.994   1.471
30152SOL     OW92288   5.408   3.682   9.696
30152SOL    HW192289   5.344   3.733   9.746
30152SOL    HW292290   5.416   3.728   9.612
30153SOL     OW92291   1.132  10.120   2.595
30153SOL    HW192292   1.117  10.132   2.501
30153SOL    HW292293   1.115  10.206   2.633
30154SOL     OW92294   3.406  13.074  13.057
30154SOL    HW192295   3.330  13.017  13.043
30154SOL    HW292296   3.423  13.069  13.151
30155SOL     OW92297   4.521   9.677   1.276
30155SOL    HW192298   4.596   9.728   1.305
30155SOL    HW292299   4.544   9.650   1.187
30156SOL     OW92300   2.323  12.093   2.168
30156SOL    HW192301   2.368  12.154   2.109
30156SOL    HW292302   2.299  12.146   2.244
30157SOL     OW92303   3.637  13.159  14.187
30157SOL    HW192304   3.709  13.221  14.190
30157SOL    HW292305   3.592  13.170  14.271
30158SOL     OW92306  14.558   0.138   0.022
30158SOL    HW192307  14.576   0.085  14.817
30158SOL    HW292308  14.487   0.091   0.067
30159SOL     OW92309   7.325  11.908  11.594
30159SOL    HW192310   7.256  11.882  11.533
30159SOL    HW292311   7.386  11.959  11.541
30160SOL     OW92312   3.634  12.206   9.291
30160SOL    HW192313   3.666  12.293   9.269
30160SOL    HW292314   3.698  12.146   9.253
30161SOL     OW92315  10.661  11.951   7.379
30161SOL    HW192316  10.590  11.952   7.442
30161SOL    HW292317  10.678  11.859   7.363
30162SOL     OW92318   8.982   4.210   3.552
30162SOL    HW192319   9.062   4.251   3.582
30162SOL    HW292320   9.000   4.116   3.557
30163SOL     OW92321   9.980   8.794   7.200
30163SOL    HW192322   9.989   8.795   7.296
30163SOL    HW292323  10.066   8.766   7.169
30164SOL     OW92324   2.830   7.268   1.513
30164SOL    HW192325   2.830   7.356   1.477
30164SOL    HW292326   2.835   7.279   1.607
30165SOL     OW92327   4.112   4.685   5.866
30165SOL    HW192328   4.177   4.616   5.856
30165SOL    HW292329   4.149   4.760   5.820
30166SOL     OW92330   8.062   9.550   0.382
30166SOL    HW192331   7.972   9.577   0.364
30166SOL    HW292332   8.085   9.595   0.463
30167SOL     OW92333  12.575   4.840   9.405
30167SOL    HW192334  12.587   4.818   9.497
30167SOL    HW292335  12.513   4.775   9.373
30168SOL     OW92336   1.813   8.999   1.852
30168SOL    HW192337   1.881   8.979   1.787
30168SOL    HW292338   1.859   8.996   1.935
30169SOL     OW92339   2.864   5.655  13.697
30169SOL    HW192340   2.924   5.590  13.734
30169SOL    HW292341   2.793   5.604  13.658
30170SOL     OW92342  13.567  14.761  12.604
30170SOL    HW192343  13.573  14.720  12.691
30170SOL    HW292344  13.657  14.766  12.574
30171SOL     OW92345   4.600  10.488   1.815
30171SOL    HW192346   4.532  10.548   1.785
30171SOL    HW292347   4.593  10.413   1.755
30172SOL     OW92348   8.818   0.726  14.196
30172SOL    HW192349   8.808   0.724  14.101
30172SOL    HW292350   8.729   0.723  14.230
30173SOL     OW92351  12.212  13.556   1.375
30173SOL    HW192352  12.128  13.561   1.329
30173SOL    HW292353  12.191  13.569   1.467
30174SOL     OW92354  14.693   6.330  14.306
30174SOL    HW192355  14.702   6.235  14.297
30174SOL    HW292356  14.654   6.359  14.224
30175SOL     OW92357   3.619  11.485  13.888
30175SOL    HW192358   3.587  11.545  13.955
30175SOL    HW292359   3.547  11.480  13.825
30176SOL     OW92360  13.013   2.221   6.542
30176SOL    HW192361  13.025   2.139   6.591
30176SOL    HW292362  12.930   2.256   6.574
30177SOL     OW92363   1.226   4.832   2.368
30177SOL    HW192364   1.197   4.835   2.459
30177SOL    HW292365   1.206   4.919   2.333
30178SOL     OW92366   0.163  14.018   0.543
30178SOL    HW192367   0.169  13.923   0.545
30178SOL    HW292368   0.245  14.048   0.504
30179SOL     OW92369  10.286   9.943  13.713
30179SOL    HW192370  10.212   9.892  13.681
30179SOL    HW292371  10.331   9.972  13.633
30180SOL     OW92372   4.796   8.724  14.190
30180SOL    HW192373   4.855   8.745  14.262
30180SOL    HW292374   4.719   8.685  14.232
30181SOL     OW92375  13.355   7.724  14.157
30181SOL    HW192376  13.366   7.661  14.086
30181SOL    HW292377  13.426   7.703  14.218
30182SOL     OW92378   1.319  13.879   8.019
30182SOL    HW192379   1.278  13.960   8.049
30182SOL    HW292380   1.327  13.825   8.098
30183SOL     OW92381  10.814  12.333   1.737
30183SOL    HW192382  10.842  12.389   1.810
30183SOL    HW292383  10.843  12.380   1.658
30184SOL     OW92384  11.912  13.741   8.850
30184SOL    HW192385  11.852  13.800   8.803
30184SOL    HW292386  11.999  13.775   8.831
30185SOL     OW92387   7.029  10.866  11.226
30185SOL    HW192388   6.956  10.814  11.192
30185SOL    HW292389   7.107  10.813  11.210
30186SOL     OW92390   1.367   9.086   8.258
30186SOL    HW192391   1.379   9.055   8.347
30186SOL    HW292392   1.375   9.008   8.204
30187SOL     OW92393  14.504  13.832   9.918
30187SOL    HW192394  14.530  13.837  10.010
30187SOL    HW292395  14.578  13.868   9.870
30188SOL     OW92396   7.532   2.217   6.145
30188SOL    HW192397   7.470   2.168   6.092
30188SOL    HW292398   7.617   2.201   6.104
30189SOL     OW92399   2.509  11.760   5.694
30189SOL    HW192400   2.480  11.799   5.777
30189SOL    HW292401   2.578  11.699   5.719
30190SOL     OW92402  14.206   4.143   8.435
30190SOL    HW192403  14.216   4.237   8.418
30190SOL    HW292404  14.247   4.101   8.359
30191SOL     OW92405  10.251   5.418   9.321
30191SOL    HW192406  10.279   5.390   9.234
30191SOL    HW292407  10.197   5.496   9.305
30192SOL     OW92408   4.364   3.214   7.759
30192SOL    HW192409   4.317   3.131   7.752
30192SOL    HW292410   4.385   3.223   7.852
30193SOL     OW92411   5.574  10.862   5.753
30193SOL    HW192412   5.482  10.834   5.753
30193SOL    HW292413   5.613  10.817   5.678
30194SOL     OW92414  11.319  12.440  10.898
30194SOL    HW192415  11.393  12.497  10.878
30194SOL    HW292416  11.246  12.500  10.916
30195SOL     OW92417  12.360   6.801   3.767
30195SOL    HW192418  12.345   6.828   3.676
30195SOL    HW292419  12.273   6.800   3.806
30196SOL     OW92420  11.424   5.836   5.284
30196SOL    HW192421  11.513   5.846   5.318
30196SOL    HW292422  11.369   5.882   5.348
30197SOL     OW92423   5.142   1.229  10.737
30197SOL    HW192424   5.108   1.246  10.825
30197SOL    HW292425   5.066   1.200  10.687
30198SOL     OW92426   2.207  12.119  10.431
30198SOL    HW192427   2.129  12.161  10.395
30198SOL    HW292428   2.252  12.083  10.354
30199SOL     OW92429   4.585  13.722   4.289
30199SOL    HW192430   4.625  13.691   4.208
30199SOL    HW292431   4.659  13.732   4.350
30200SOL     OW92432   2.575   9.123   3.954
30200SOL    HW192433   2.542   9.091   4.038
30200SOL    HW292434   2.649   9.067   3.934
30201SOL     OW92435  14.790   2.793   0.869
30201SOL    HW192436  14.833   2.872   0.901
30201SOL    HW292437  14.813   2.725   0.933
30202SOL     OW92438   7.770   1.009  14.621
30202SOL    HW192439   7.865   1.001  14.613
30202SOL    HW292440   7.744   1.065  14.547
30203SOL     OW92441   2.632  10.539   6.497
30203SOL    HW192442   2.659  10.451   6.472
30203SOL    HW292443   2.696  10.565   6.564
30204SOL     OW92444   6.642   3.412   5.434
30204SOL    HW192445   6.666   3.499   5.402
30204SOL    HW292446   6.547   3.408   5.423
30205SOL     OW92447   7.466   3.396   2.017
30205SOL    HW192448   7.556   3.392   2.047
30205SOL    HW292449   7.472   3.402   1.922
30206SOL     OW92450   2.793   3.560   0.320
30206SOL    HW192451   2.885   3.537   0.334
30206SOL    HW292452   2.786   3.574   0.226
30207SOL     OW92453   3.708   6.655   3.803
30207SOL    HW192454   3.627   6.652   3.753
30207SOL    HW292455   3.750   6.737   3.775
30208SOL     OW92456   8.686  13.097   6.271
30208SOL    HW192457   8.633  13.032   6.317
30208SOL    HW292458   8.776  13.068   6.286
30209SOL     OW92459  13.341  14.450  12.640
30209SOL    HW192460  13.316  14.408  12.722
30209SOL    HW292461  13.268  14.432  12.580
30210SOL     OW92462   0.223   8.502   3.753
30210SOL    HW192463   0.132   8.518   3.778
30210SOL    HW292464   0.216   8.447   3.674
30211SOL     OW92465  14.269   3.715   4.594
30211SOL    HW192466  14.338   3.762   4.547
30211SOL    HW292467  14.207   3.690   4.525
30212SOL     OW92468  13.289   1.152  10.330
30212SOL    HW192469  13.313   1.239  10.299
30212SOL    HW292470  13.247   1.110  10.255
30213SOL     OW92471   4.712   2.420  13.004
30213SOL    HW192472   4.663   2.352  12.958
30213SOL    HW292473   4.766   2.461  12.936
30214SOL     OW92474  11.438  10.751   1.566
30214SOL    HW192475  11.480  10.789   1.489
30214SOL    HW292476  11.397  10.826   1.610
30215SOL     OW92477  12.387  11.165   3.081
30215SOL    HW192478  12.451  11.111   3.128
30215SOL    HW292479  12.405  11.254   3.112
30216SOL     OW92480   6.308  12.527  12.531
30216SOL    HW192481   6.366  12.532  12.455
30216SOL    HW292482   6.230  12.483  12.499
30217SOL     OW92483   9.198   1.247  13.333
30217SOL    HW192484   9.270   1.197  13.373
30217SOL    HW292485   9.119   1.208  13.370
30218SOL     OW92486   3.865  12.721   8.827
30218SOL    HW192487   3.792  12.688   8.775
30218SOL    HW292488   3.939  12.722   8.767
30219SOL     OW92489   3.710   3.933  10.881
30219SOL    HW192490   3.768   3.884  10.822
30219SOL    HW292491   3.632   3.880  10.888
30220SOL     OW92492   6.501   1.251   1.097
30220SOL    HW192493   6.530   1.175   1.148
30220SOL    HW292494   6.582   1.282   1.056
30221SOL     OW92495  10.764   8.472   2.406
30221SOL    HW192496  10.846   8.477   2.358
30221SOL    HW292497  10.775   8.397   2.465
30222SOL     OW92498   8.479   2.037   0.017
30222SOL    HW192499   8.519   2.034  14.803
30222SOL    HW292500   8.390   2.003   0.003
30223SOL     OW92501   3.488  14.169   6.960
30223SOL    HW192502   3.513  14.245   7.013
30223SOL    HW292503   3.556  14.104   6.977
30224SOL     OW92504  12.347  12.214   4.264
30224SOL    HW192505  12.430  12.262   4.259
30224SOL    HW292506  12.290  12.269   4.318
30225SOL     OW92507   0.391   8.050   0.197
30225SOL    HW192508   0.361   7.971   0.152
30225SOL    HW292509   0.310   8.093   0.226
30226SOL     OW92510   4.794   2.692  14.167
30226SOL    HW192511   4.886   2.715  14.181
30226SOL    HW292512   4.747   2.746  14.231
30227SOL     OW92513   0.661   4.868   3.806
30227SOL    HW192514   0.742   4.904   3.843
30227SOL    HW292515   0.650   4.914   3.723
30228SOL     OW92516   2.166   4.693   9.997
30228SOL    HW192517   2.199   4.705  10.086
30228SOL    HW292518   2.245   4.700   9.942
30229SOL     OW92519  10.693   6.623   0.307
30229SOL    HW192520  10.744   6.542   0.312
30229SOL    HW292521  10.724   6.666   0.228
30230SOL     OW92522   7.246   4.768   4.359
30230SOL    HW192523   7.250   4.696   4.296
30230SOL    HW292524   7.323   4.822   4.339
30231SOL     OW92525   4.429   6.463   2.565
30231SOL    HW192526   4.337   6.443   2.551
30231SOL    HW292527   4.460   6.494   2.479
30232SOL     OW92528   9.502   4.235  13.334
30232SOL    HW192529   9.421   4.194  13.363
30232SOL    HW292530   9.550   4.165  13.289
30233SOL     OW92531  11.697   0.996   9.900
30233SOL    HW192532  11.634   1.013   9.830
30233SOL    HW292533  11.673   0.910   9.934
30234SOL     OW92534  12.187  10.842   3.788
30234SOL    HW192535  12.253  10.786   3.746
30234SOL    HW292536  12.226  10.864   3.873
30235SOL     OW92537  13.699   7.256   4.607
30235SOL    HW192538  13.736   7.277   4.693
30235SOL    HW292539  13.610   7.225   4.627
30236SOL     OW92540  11.118   6.931  12.381
30236SOL    HW192541  11.127   7.022  12.354
30236SOL    HW292542  11.098   6.883  12.301
30237SOL     OW92543   1.540   8.705   0.713
30237SOL    HW192544   1.546   8.777   0.776
30237SOL    HW292545   1.461   8.724   0.663
30238SOL     OW92546  10.024   5.731   7.934
30238SOL    HW192547  10.117   5.751   7.928
30238SOL    HW292548   9.980   5.816   7.940
30239SOL     OW92549   3.229  11.889   7.315
30239SOL    HW192550   3.242  11.918   7.406
30239SOL    HW292551   3.174  11.957   7.277
30240SOL     OW92552   2.940  14.707  10.208
30240SOL    HW192553   2.974  14.629  10.252
30240SOL    HW292554   2.915  14.766  10.278
30241SOL     OW92555  13.249   9.621  14.546
30241SOL    HW192556  13.278   9.546  14.493
30241SOL    HW292557  13.265   9.593  14.636
30242SOL     OW92558   3.715   8.367   1.615
30242SOL    HW192559   3.757   8.346   1.698
30242SOL    HW292560   3.730   8.291   1.560
30243SOL     OW92561  11.737   1.254   9.400
30243SOL    HW192562  11.794   1.318   9.442
30243SOL    HW292563  11.649   1.291   9.408
30244SOL     OW92564  14.818   3.813  11.004
30244SOL    HW192565  14.811   3.732  10.953
30244SOL    HW292566  14.859   3.875  10.944
30245SOL     OW92567   3.543  14.540   1.179
30245SOL    HW192568   3.462  14.527   1.228
30245SOL    HW292569   3.585  14.454   1.178
30246SOL     OW92570   1.806  12.975   3.860
30246SOL    HW192571   1.799  12.972   3.764
30246SOL    HW292572   1.810  13.068   3.880
30247SOL     OW92573  12.409   8.048  11.456
30247SOL    HW192574  12.496   8.082  11.437
30247SOL    HW292575  12.387   7.995  11.380
30248SOL     OW92576   2.421   4.488   0.996
30248SOL    HW192577   2.376   4.560   0.953
30248SOL    HW292578   2.478   4.451   0.929
30249SOL     OW92579   5.025   7.584   1.772
30249SOL    HW192580   5.042   7.676   1.793
30249SOL    HW292581   5.032   7.581   1.677
30250SOL     OW92582   6.048  11.882   8.535
30250SOL    HW192583   5.969  11.863   8.587
30250SOL    HW292584   6.063  11.802   8.484
30251SOL     OW92585   4.365   2.146   4.578
30251SOL    HW192586   4.408   2.211   4.522
30251SOL    HW292587   4.273   2.150   4.551
30252SOL     OW92588   0.604   2.970   9.783
30252SOL    HW192589   0.535   2.906   9.796
30252SOL    HW292590   0.593   2.999   9.692
30253SOL     OW92591  11.093   4.589   9.225
30253SOL    HW192592  11.061   4.522   9.165
30253SOL    HW292593  11.130   4.657   9.168
30254SOL     OW92594  10.230  12.882   9.374
30254SOL    HW192595  10.249  12.974   9.386
30254SOL    HW292596  10.288  12.837   9.435
30255SOL     OW92597   0.047  12.228   8.271
30255SOL    HW192598   0.092  12.156   8.315
30255SOL    HW292599   0.092  12.237   8.187
30256SOL     OW92600   2.913   7.671   8.909
30256SOL    HW192601   2.874   7.719   8.836
30256SOL    HW292602   2.981   7.617   8.870
30257SOL     OW92603   8.361  10.085   5.941
30257SOL    HW192604   8.269  10.063   5.954
30257SOL    HW292605   8.405  10.001   5.931
30258SOL     OW92606  12.357   0.371   4.595
30258SOL    HW192607  12.332   0.463   4.596
30258SOL    HW292608  12.382   0.352   4.685
30259SOL     OW92609   9.301   0.930   3.290
30259SOL    HW192610   9.372   0.966   3.237
30259SOL    HW292611   9.272   1.003   3.344
30260SOL     OW92612   1.124   0.383  13.687
30260SOL    HW192613   1.210   0.352  13.658
30260SOL    HW292614   1.062   0.322  13.646
30261SOL     OW92615   6.435   2.117   8.437
30261SOL    HW192616   6.352   2.164   8.435
30261SOL    HW292617   6.501   2.185   8.451
30262SOL     OW92618   6.273   3.528   4.847
30262SOL    HW192619   6.206   3.532   4.779
30262SOL    HW292620   6.331   3.456   4.820
30263SOL     OW92621   7.522   7.925   9.762
30263SOL    HW192622   7.590   7.955   9.702
30263SOL    HW292623   7.550   7.838   9.789
30264SOL     OW92624  11.265  10.783   3.755
30264SOL    HW192625  11.271  10.706   3.811
30264SOL    HW292626  11.330  10.844   3.790
30265SOL     OW92627   7.985   5.414   4.830
30265SOL    HW192628   8.064   5.466   4.812
30265SOL    HW292629   7.941   5.408   4.745
30266SOL     OW92630   0.393  14.168   9.932
30266SOL    HW192631   0.391  14.220   9.852
30266SOL    HW292632   0.390  14.232  10.002
30267SOL     OW92633   2.196   7.725  13.994
30267SOL    HW192634   2.187   7.681  13.910
30267SOL    HW292635   2.265   7.790  13.980
30268SOL     OW92636  12.668   7.458   6.428
30268SOL    HW192637  12.641   7.388   6.369
30268SOL    HW292638  12.614   7.533   6.402
30269SOL     OW92639  12.538   6.449   4.973
30269SOL    HW192640  12.554   6.483   5.061
30269SOL    HW292641  12.625   6.430   4.939
30270SOL     OW92642   8.755  13.777   2.751
30270SOL    HW192643   8.848  13.761   2.762
30270SOL    HW292644   8.741  13.863   2.790
30271SOL     OW92645   0.403   4.836  14.162
30271SOL    HW192646   0.420   4.847  14.068
30271SOL    HW292647   0.383   4.924  14.193
30272SOL     OW92648   8.636  13.652  12.471
30272SOL    HW192649   8.574  13.580  12.485
30272SOL    HW292650   8.597  13.725  12.519
30273SOL     OW92651  12.190   9.892  13.571
30273SOL    HW192652  12.206   9.949  13.495
30273SOL    HW292653  12.178   9.952  13.644
30274SOL     OW92654  10.639  12.332  10.788
30274SOL    HW192655  10.733  12.335  10.809
30274SOL    HW292656  10.630  12.253  10.735
30275SOL     OW92657   8.795  13.131  11.182
30275SOL    HW192658   8.881  13.157  11.215
30275SOL    HW292659   8.748  13.213  11.167
30276SOL     OW92660  12.804   1.523  13.501
30276SOL    HW192661  12.767   1.593  13.555
30276SOL    HW292662  12.798   1.557  13.411
30277SOL     OW92663   8.632   4.144  10.853
30277SOL    HW192664   8.657   4.086  10.780
30277SOL    HW292665   8.545   4.115  10.878
30278SOL     OW92666   7.554   2.877  12.967
30278SOL    HW192667   7.638   2.866  12.922
30278SOL    HW292668   7.563   2.825  13.047
30279SOL     OW92669   7.929   2.508   0.509
30279SOL    HW192670   7.843   2.472   0.533
30279SOL    HW292671   7.922   2.529   0.416
30280SOL     OW92672   4.587   9.807  12.409
30280SOL    HW192673   4.616   9.849  12.328
30280SOL    HW292674   4.568   9.879  12.468
30281SOL     OW92675  14.336   5.826   6.856
30281SOL    HW192676  14.351   5.799   6.947
30281SOL    HW292677  14.247   5.797   6.837
30282SOL     OW92678   0.243   1.597   5.318
30282SOL    HW192679   0.329   1.634   5.340
30282SOL    HW292680   0.237   1.604   5.223
30283SOL     OW92681  11.475   5.470   6.034
30283SOL    HW192682  11.550   5.416   6.058
30283SOL    HW292683  11.409   5.407   6.004
30284SOL     OW92684  11.277   6.076   1.200
30284SOL    HW192685  11.217   6.021   1.151
30284SOL    HW292686  11.363   6.036   1.186
30285SOL     OW92687   7.329   3.133  14.435
30285SOL    HW192688   7.312   3.040  14.449
30285SOL    HW292689   7.243   3.174  14.441
30286SOL     OW92690   6.632  13.823   6.013
30286SOL    HW192691   6.664  13.734   5.998
30286SOL    HW292692   6.628  13.832   6.108
30287SOL     OW92693  10.930  14.708   2.324
30287SOL    HW192694  11.001  14.674   2.379
30287SOL    HW292695  10.880  14.630   2.298
30288SOL     OW92696  12.095   5.268   1.476
30288SOL    HW192697  12.027   5.208   1.505
30288SOL    HW292698  12.175   5.236   1.519
30289SOL     OW92699   7.115  13.671  10.426
30289SOL    HW192700   7.108  13.674  10.331
30289SOL    HW292701   7.205  13.698  10.445
30290SOL     OW92702  11.964   8.682  14.368
30290SOL    HW192703  11.984   8.590  14.385
30290SOL    HW292704  11.900   8.680  14.297
30291SOL     OW92705   2.666  10.099   6.975
30291SOL    HW192706   2.600  10.041   6.938
30291SOL    HW292707   2.727  10.115   6.903
30292SOL     OW92708   5.894  11.914  14.649
30292SOL    HW192709   5.918  11.939  14.738
30292SOL    HW292710   5.965  11.857  14.620
30293SOL     OW92711  12.154   1.592  13.837
30293SOL    HW192712  12.116   1.656  13.776
30293SOL    HW292713  12.236   1.566  13.796
30294SOL     OW92714  12.852   5.652   0.704
30294SOL    HW192715  12.838   5.578   0.763
30294SOL    HW292716  12.894   5.719   0.759
30295SOL     OW92717  14.263   6.553   8.587
30295SOL    HW192718  14.258   6.594   8.500
30295SOL    HW292719  14.183   6.500   8.593
30296SOL     OW92720   4.229  12.954   7.708
30296SOL    HW192721   4.274  13.038   7.717
30296SOL    HW292722   4.150  12.974   7.658
30297SOL     OW92723  13.689   9.451   3.307
30297SOL    HW192724  13.676   9.540   3.275
30297SOL    HW292725  13.665   9.454   3.399
30298SOL     OW92726  10.981   3.437   5.727
30298SOL    HW192727  11.049   3.394   5.780
30298SOL    HW292728  10.909   3.375   5.724
30299SOL     OW92729   4.294  11.817  12.429
30299SOL    HW192730   4.340  11.825  12.512
30299SOL    HW292731   4.201  11.822  12.452
30300SOL     OW92732   5.690  14.014   4.349
30300SOL    HW192733   5.682  14.087   4.287
30300SOL    HW292734   5.745  13.950   4.304
30301SOL     OW92735   8.707  14.856   4.795
30301SOL    HW192736   8.799  14.830   4.796
30301SOL    HW292737   8.691   0.019   4.883
30302SOL     OW92738   7.807   7.293   0.252
30302SOL    HW192739   7.717   7.319   0.234
30302SOL    HW292740   7.799   7.206   0.293
30303SOL     OW92741   4.130   8.158  14.623
30303SOL    HW192742   4.109   8.065  14.635
30303SOL    HW292743   4.074   8.186  14.550
30304SOL     OW92744  13.763  10.655   9.255
30304SOL    HW192745  13.787  10.726   9.313
30304SOL    HW292746  13.729  10.698   9.176
30305SOL     OW92747   8.930   5.806   6.125
30305SOL    HW192748   8.955   5.784   6.214
30305SOL    HW292749   8.836   5.823   6.130
30306SOL     OW92750  12.906  12.535   1.249
30306SOL    HW192751  12.907  12.614   1.195
30306SOL    HW292752  12.937  12.564   1.334
30307SOL     OW92753  12.419   7.193   0.585
30307SOL    HW192754  12.406   7.263   0.649
30307SOL    HW292755  12.493   7.222   0.532
30308SOL     OW92756  12.615   5.412  11.124
30308SOL    HW192757  12.596   5.319  11.109
30308SOL    HW292758  12.703   5.424  11.088
30309SOL     OW92759   4.090   7.200   1.306
30309SOL    HW192760   4.092   7.289   1.272
30309SOL    HW292761   4.065   7.210   1.398
30310SOL     OW92762  13.355   8.592   8.974
30310SOL    HW192763  13.404   8.551   9.045
30310SOL    HW292764  13.263   8.575   8.995
30311SOL     OW92765   0.589  13.732   0.532
30311SOL    HW192766   0.643  13.764   0.459
30311SOL    HW292767   0.500  13.736   0.498
30312SOL     OW92768  10.783   1.536  13.234
30312SOL    HW192769  10.758   1.598  13.302
30312SOL    HW292770  10.878   1.548  13.225
30313SOL     OW92771   4.386   8.311   3.795
30313SOL    HW192772   4.331   8.295   3.871
30313SOL    HW292773   4.326   8.344   3.728
30314SOL     OW92774  13.530  13.951   9.072
30314SOL    HW192775  13.558  13.998   9.151
30314SOL    HW292776  13.438  13.975   9.061
30315SOL     OW92777  12.166   5.607  10.416
30315SOL    HW192778  12.165   5.530  10.473
30315SOL    HW292779  12.119   5.579  10.337
30316SOL     OW92780  13.076  12.722   9.585
30316SOL    HW192781  13.062  12.813   9.559
30316SOL    HW292782  13.082  12.725   9.680
30317SOL     OW92783  14.397  13.306   6.827
30317SOL    HW192784  14.356  13.300   6.740
30317SOL    HW292785  14.432  13.218   6.842
30318SOL     OW92786  11.789  11.022   2.450
30318SOL    HW192787  11.825  10.936   2.471
30318SOL    HW292788  11.816  11.037   2.359
30319SOL     OW92789   9.865  10.330   9.868
30319SOL    HW192790   9.827  10.392   9.930
30319SOL    HW292791   9.826  10.354   9.783
30320SOL     OW92792   8.080   6.151   5.934
30320SOL    HW192793   8.001   6.143   5.880
30320SOL    HW292794   8.049   6.137   6.024
30321SOL     OW92795  11.949  14.444  13.170
30321SOL    HW192796  11.924  14.520  13.223
30321SOL    HW292797  11.943  14.370  13.229
30322SOL     OW92798  10.834  13.008  14.650
30322SOL    HW192799  10.790  12.945  14.707
30322SOL    HW292800  10.899  12.956  14.602
30323SOL     OW92801   6.866   7.716   9.013
30323SOL    HW192802   6.877   7.621   9.010
30323SOL    HW292803   6.796   7.730   9.077
30324SOL     OW92804   2.477   1.285   3.701
30324SOL    HW192805   2.490   1.191   3.687
30324SOL    HW292806   2.415   1.311   3.634
30325SOL     OW92807  12.932   2.075   6.749
30325SOL    HW192808  12.910   1.984   6.765
30325SOL    HW292809  12.877   2.124   6.811
30326SOL     OW92810   1.678  14.193   1.800
30326SOL    HW192811   1.643  14.260   1.859
30326SOL    HW292812   1.725  14.243   1.733
30327SOL     OW92813   5.323   5.533   8.075
30327SOL    HW192814   5.320   5.457   8.133
30327SOL    HW292815   5.356   5.604   8.131
30328SOL     OW92816   2.361  11.580   0.999
30328SOL    HW192817   2.363  11.530   1.080
30328SOL    HW292818   2.328  11.518   0.934
30329SOL     OW92819  10.719   8.786   9.428
30329SOL    HW192820  10.624   8.774   9.425
30329SOL    HW292821  10.737   8.802   9.521
30330SOL     OW92822   7.993   1.746  13.503
30330SOL    HW192823   8.019   1.683  13.436
30330SOL    HW292824   7.927   1.801  13.460
30331SOL     OW92825  10.153  12.427  13.052
30331SOL    HW192826  10.126  12.477  13.129
30331SOL    HW292827  10.070  12.402  13.011
30332SOL     OW92828   7.259   5.929   3.434
30332SOL    HW192829   7.348   5.927   3.398
30332SOL    HW292830   7.214   5.996   3.383
30333SOL     OW92831  11.221  10.435  14.765
30333SOL    HW192832  11.191  10.357  14.717
30333SOL    HW292833  11.142  10.469  14.806
30334SOL     OW92834   3.847  12.746  14.229
30334SOL    HW192835   3.768  12.800  14.232
30334SOL    HW292836   3.814  12.658  14.209
30335SOL     OW92837  13.393   8.165  12.819
30335SOL    HW192838  13.393   8.228  12.747
30335SOL    HW292839  13.316   8.110  12.802
30336SOL     OW92840   3.101  11.514  14.699
30336SOL    HW192841   3.021  11.565  14.715
30336SOL    HW292842   3.169  11.579  14.684
30337SOL     OW92843  10.656  14.554   6.720
30337SOL    HW192844  10.721  14.542   6.788
30337SOL    HW292845  10.688  14.500   6.647
30338SOL     OW92846  12.579   4.660   8.084
30338SOL    HW192847  12.507   4.648   8.146
30338SOL    HW292848  12.602   4.752   8.092
30339SOL     OW92849  13.138  14.774   5.477
30339SOL    HW192850  13.190  14.826   5.415
30339SOL    HW292851  13.174  14.797   5.563
30340SOL     OW92852  14.209   9.249  12.679
30340SOL    HW192853  14.152   9.200  12.738
30340SOL    HW292854  14.286   9.269  12.733
30341SOL     OW92855   7.862  11.556   1.508
30341SOL    HW192856   7.905  11.473   1.529
30341SOL    HW292857   7.896  11.579   1.421
30342SOL     OW92858   4.991   5.964   6.641
30342SOL    HW192859   5.003   5.970   6.547
30342SOL    HW292860   4.896   5.953   6.653
30343SOL     OW92861  14.577   6.336  12.260
30343SOL    HW192862  14.573   6.252  12.305
30343SOL    HW292863  14.667   6.340  12.226
30344SOL     OW92864   4.758   2.196  10.412
30344SOL    HW192865   4.673   2.154  10.401
30344SOL    HW292866   4.742   2.266  10.476
30345SOL     OW92867   5.306   5.513   3.091
30345SOL    HW192868   5.398   5.528   3.115
30345SOL    HW292869   5.270   5.463   3.165
30346SOL     OW92870   2.335  12.144   3.344
30346SOL    HW192871   2.355  12.237   3.344
30346SOL    HW292872   2.264  12.134   3.281
30347SOL     OW92873   5.019   6.791   1.453
30347SOL    HW192874   5.048   6.717   1.505
30347SOL    HW292875   5.058   6.777   1.367
30348SOL     OW92876   5.336   1.725   7.812
30348SOL    HW192877   5.296   1.640   7.792
30348SOL    HW292878   5.265   1.777   7.850
30349SOL     OW92879  14.696   2.071  12.069
30349SOL    HW192880  14.749   2.050  11.992
30349SOL    HW292881  14.729   2.156  12.099
30350SOL     OW92882   1.067  10.290   0.616
30350SOL    HW192883   1.128  10.363   0.603
30350SOL    HW292884   0.994  10.327   0.666
30351SOL     OW92885  10.645  14.075  10.039
30351SOL    HW192886  10.594  14.048  10.116
30351SOL    HW292887  10.580  14.105   9.976
30352SOL     OW92888  11.505   7.509   8.095
30352SOL    HW192889  11.518   7.514   8.190
30352SOL    HW292890  11.416   7.540   8.081
30353SOL     OW92891   7.470  13.981  12.354
30353SOL    HW192892   7.458  13.889  12.379
30353SOL    HW292893   7.522  14.018  12.425
30354SOL     OW92894   8.823   0.965   3.529
30354SOL    HW192895   8.867   1.013   3.599
30354SOL    HW292896   8.781   1.033   3.476
30355SOL     OW92897  14.335   9.701   7.751
30355SOL    HW192898  14.336   9.739   7.663
30355SOL    HW292899  14.242   9.701   7.775
30356SOL     OW92900   2.993   8.392  11.527
30356SOL    HW192901   3.052   8.465  11.544
30356SOL    HW292902   2.973   8.356  11.613
30357SOL     OW92903  13.162   3.631  13.241
30357SOL    HW192904  13.146   3.646  13.148
30357SOL    HW292905  13.138   3.540  13.255
30358SOL     OW92906   0.122   1.988   3.172
30358SOL    HW192907   0.164   1.941   3.243
30358SOL    HW292908   0.160   2.076   3.175
30359SOL     OW92909   2.407  10.645   2.089
30359SOL    HW192910   2.407  10.700   2.168
30359SOL    HW292911   2.481  10.586   2.102
30360SOL     OW92912   7.165  13.237   6.068
30360SOL    HW192913   7.097  13.304   6.065
30360SOL    HW292914   7.146  13.180   5.993
30361SOL     OW92915   2.857  11.321   6.773
30361SOL    HW192916   2.870  11.300   6.865
30361SOL    HW292917   2.945  11.338   6.739
30362SOL     OW92918  11.762  13.274   0.286
30362SOL    HW192919  11.823  13.202   0.303
30362SOL    HW292920  11.692  13.234   0.234
30363SOL     OW92921   8.897  11.385   7.786
30363SOL    HW192922   8.926  11.470   7.752
30363SOL    HW292923   8.922  11.322   7.718
30364SOL     OW92924   2.288   3.088   6.368
30364SOL    HW192925   2.271   3.139   6.448
30364SOL    HW292926   2.251   3.141   6.298
30365SOL     OW92927  14.795   5.874   5.732
30365SOL    HW192928  14.868   5.930   5.705
30365SOL    HW292929  14.782   5.896   5.825
30366SOL     OW92930   8.050   5.614  11.429
30366SOL    HW192931   8.041   5.688  11.490
30366SOL    HW292932   8.142   5.616  11.402
30367SOL     OW92933   1.035  12.477  13.968
30367SOL    HW192934   0.999  12.459  14.055
30367SOL    HW292935   1.052  12.391  13.930
30368SOL     OW92936  11.822  13.928   5.934
30368SOL    HW192937  11.788  14.010   5.897
30368SOL    HW292938  11.770  13.914   6.013
30369SOL     OW92939   6.441   2.778   3.548
30369SOL    HW192940   6.444   2.874   3.551
30369SOL    HW292941   6.472   2.750   3.634
30370SOL     OW92942  11.195   6.967   4.422
30370SOL    HW192943  11.195   6.871   4.424
30370SOL    HW292944  11.276   6.990   4.378
30371SOL     OW92945   4.035  14.729   5.809
30371SOL    HW192946   4.084  14.804   5.844
30371SOL    HW292947   3.944  14.759   5.808
30372SOL     OW92948  11.406   0.929   3.227
30372SOL    HW192949  11.384   0.879   3.149
30372SOL    HW292950  11.342   1.000   3.229
30373SOL     OW92951   2.194  11.813   1.759
30373SOL    HW192952   2.244  11.731   1.759
30373SOL    HW292953   2.176  11.830   1.852
30374SOL     OW92954  12.928   3.233  12.160
30374SOL    HW192955  12.935   3.157  12.102
30374SOL    HW292956  12.990   3.215  12.230
30375SOL     OW92957   9.021   2.659  11.683
30375SOL    HW192958   8.960   2.586  11.675
30375SOL    HW292959   8.983   2.715  11.751
30376SOL     OW92960   3.196  13.734   8.218
30376SOL    HW192961   3.106  13.766   8.223
30376SOL    HW292962   3.208  13.685   8.300
30377SOL     OW92963   1.274   5.195   6.182
30377SOL    HW192964   1.236   5.136   6.117
30377SOL    HW292965   1.328   5.255   6.130
30378SOL     OW92966  10.828   0.257   0.928
30378SOL    HW192967  10.802   0.190   0.991
30378SOL    HW292968  10.908   0.295   0.965
30379SOL     OW92969   8.857  14.719  14.151
30379SOL    HW192970   8.827  14.629  14.135
30379SOL    HW292971   8.830  14.738  14.240
30380SOL     OW92972  14.835  14.791  13.177
30380SOL    HW192973   0.047  14.768  13.214
30380SOL    HW292974  14.774  14.783  13.250
30381SOL     OW92975  11.439   4.660   0.877
30381SOL    HW192976  11.527   4.642   0.909
30381SOL    HW292977  11.436   4.622   0.789
30382SOL     OW92978   6.961   9.218   3.253
30382SOL    HW192979   6.939   9.127   3.233
30382SOL    HW292980   6.885   9.268   3.224
30383SOL     OW92981   9.407   3.510   7.630
30383SOL    HW192982   9.491   3.482   7.593
30383SOL    HW292983   9.411   3.484   7.722
30384SOL     OW92984  11.201   2.062   4.651
30384SOL    HW192985  11.243   2.109   4.723
30384SOL    HW292986  11.131   2.121   4.622
30385SOL     OW92987   1.340   2.373   9.609
30385SOL    HW192988   1.377   2.397   9.524
30385SOL    HW292989   1.415   2.337   9.658
30386SOL     OW92990   8.623  12.345   2.148
30386SOL    HW192991   8.710  12.305   2.147
30386SOL    HW292992   8.632  12.420   2.207
30387SOL     OW92993   5.130   3.177  11.929
30387SOL    HW192994   5.055   3.208  11.980
30387SOL    HW292995   5.169   3.109  11.984
30388SOL     OW92996   9.442   2.717   1.910
30388SOL    HW192997   9.500   2.770   1.964
30388SOL    HW292998   9.486   2.632   1.901
30389SOL     OW92999   9.296   2.695   3.957
30389SOL    HW193000   9.234   2.698   4.029
30389SOL    HW293001   9.351   2.773   3.969
30390SOL     OW93002   9.991  14.265   6.838
30390SOL    HW193003   9.916  14.312   6.874
30390SOL    HW293004  10.033  14.328   6.779
30391SOL     OW93005   3.395  14.059  14.245
30391SOL    HW193006   3.435  14.031  14.327
30391SOL    HW293007   3.318  14.109  14.272
30392SOL     OW93008   9.160   1.760  14.514
30392SOL    HW193009   9.107   1.692  14.473
30392SOL    HW293010   9.246   1.720  14.528
30393SOL     OW93011  13.746   7.077  13.118
30393SOL    HW193012  13.651   7.068  13.119
30393SOL    HW293013  13.763   7.142  13.049
30394SOL     OW93014   7.628   2.749   5.552
30394SOL    HW193015   7.585   2.830   5.576
30394SOL    HW293016   7.558   2.684   5.552
30395SOL     OW93017   8.793   3.326   4.144
30395SOL    HW193018   8.842   3.245   4.131
30395SOL    HW293019   8.846   3.377   4.206
30396SOL     OW93020   7.013   2.711  12.815
30396SOL    HW193021   6.930   2.666  12.829
30396SOL    HW293022   6.997   2.800  12.848
30397SOL     OW93023   6.926   1.750   2.586
30397SOL    HW193024   7.016   1.731   2.612
30397SOL    HW293025   6.930   1.838   2.549
30398SOL     OW93026   0.340   4.667   8.575
30398SOL    HW193027   0.415   4.718   8.544
30398SOL    HW293028   0.312   4.616   8.499
30399SOL     OW93029   9.540   7.357  13.023
30399SOL    HW193030   9.634   7.376  13.031
30399SOL    HW293031   9.536   7.273  12.978
30400SOL     OW93032  12.623   4.210   3.667
30400SOL    HW193033  12.675   4.207   3.748
30400SOL    HW293034  12.555   4.274   3.685
30401SOL     OW93035   7.580   4.321   5.370
30401SOL    HW193036   7.551   4.294   5.282
30401SOL    HW293037   7.555   4.248   5.427
30402SOL     OW93038   1.844   2.057   4.644
30402SOL    HW193039   1.938   2.052   4.626
30402SOL    HW293040   1.813   1.966   4.641
30403SOL     OW93041  13.657   3.954  11.969
30403SOL    HW193042  13.743   3.995  11.963
30403SOL    HW293043  13.673   3.861  11.953
30404SOL     OW93044   0.623   8.067   7.409
30404SOL    HW193045   0.719   8.070   7.401
30404SOL    HW293046   0.604   7.978   7.438
30405SOL     OW93047   4.077   5.066   9.490
30405SOL    HW193048   4.109   4.980   9.462
30405SOL    HW293049   4.113   5.127   9.426
30406SOL     OW93050  12.298   6.254  11.816
30406SOL    HW193051  12.232   6.312  11.777
30406SOL    HW293052  12.332   6.303  11.891
30407SOL     OW93053   6.475  13.402  11.477
30407SOL    HW193054   6.451  13.398  11.570
30407SOL    HW293055   6.563  13.365  11.473
30408SOL     OW93056   3.444  10.784   9.199
30408SOL    HW193057   3.537  10.805   9.193
30408SOL    HW293058   3.400  10.870   9.202
30409SOL     OW93059   9.671  11.001   9.688
30409SOL    HW193060   9.723  11.069   9.645
30409SOL    HW293061   9.703  11.000   9.778
30410SOL     OW93062   9.555   8.819   3.774
30410SOL    HW193063   9.582   8.792   3.861
30410SOL    HW293064   9.464   8.849   3.785
30411SOL     OW93065   8.018   6.306  12.196
30411SOL    HW193066   7.927   6.335  12.208
30411SOL    HW293067   8.019   6.216  12.230
30412SOL     OW93068   9.582  10.622   7.024
30412SOL    HW193069   9.527  10.696   7.000
30412SOL    HW293070   9.610  10.585   6.940
30413SOL     OW93071  12.736   5.786  10.263
30413SOL    HW193072  12.728   5.876  10.231
30413SOL    HW293073  12.810   5.789  10.324
30414SOL     OW93074  12.968   3.681  11.649
30414SOL    HW193075  12.922   3.721  11.575
30414SOL    HW293076  12.902   3.674  11.717
30415SOL     OW93077   9.907   8.250  13.397
30415SOL    HW193078   9.834   8.196  13.367
30415SOL    HW293079   9.904   8.243  13.492
30416SOL     OW93080  13.851  11.191   9.090
30416SOL    HW193081  13.853  11.287   9.084
30416SOL    HW293082  13.795  11.174   9.166
30417SOL     OW93083   8.392   0.869   6.574
30417SOL    HW193084   8.487   0.876   6.562
30417SOL    HW293085   8.374   0.921   6.652
30418SOL     OW93086   8.100  10.617  14.692
30418SOL    HW193087   8.194  10.629  14.702
30418SOL    HW293088   8.090  10.525  14.668
30419SOL     OW93089   4.007  12.378  10.755
30419SOL    HW193090   4.087  12.388  10.806
30419SOL    HW293091   3.945  12.438  10.796
30420SOL     OW93092   3.110   0.959   9.039
30420SOL    HW193093   3.197   0.990   9.011
30420SOL    HW293094   3.077   1.029   9.096
30421SOL     OW93095   4.334   6.402   3.572
30421SOL    HW193096   4.240   6.413   3.578
30421SOL    HW293097   4.358   6.352   3.650
30422SOL     OW93098   0.018   0.145   0.695
30422SOL    HW193099   0.063   0.229   0.691
30422SOL    HW293100   0.086   0.080   0.677
30423SOL     OW93101  14.758   1.063   7.154
30423SOL    HW193102  14.755   0.973   7.121
30423SOL    HW293103  14.851   1.080   7.168
30424SOL     OW93104  14.611  10.314   9.110
30424SOL    HW193105  14.528  10.270   9.094
30424SOL    HW293106  14.637  10.347   9.024
30425SOL     OW93107  11.429   8.532   3.752
30425SOL    HW193108  11.472   8.596   3.808
30425SOL    HW293109  11.418   8.455   3.807
30426SOL     OW93110   6.737  13.507  14.009
30426SOL    HW193111   6.643  13.526  14.011
30426SOL    HW293112   6.756  13.493  13.916
30427SOL     OW93113   3.716  11.206   1.064
30427SOL    HW193114   3.703  11.290   1.021
30427SOL    HW293115   3.664  11.211   1.144
30428SOL     OW93116   8.108   1.318  11.951
30428SOL    HW193117   8.118   1.355  11.863
30428SOL    HW293118   8.170   1.368  12.005
30429SOL     OW93119   4.912   2.843   5.658
30429SOL    HW193120   4.872   2.756   5.666
30429SOL    HW293121   5.000   2.825   5.625
30430SOL     OW93122  13.927  13.416   5.498
30430SOL    HW193123  13.853  13.355   5.503
30430SOL    HW293124  13.912  13.464   5.416
30431SOL     OW93125   5.453   0.863  11.888
30431SOL    HW193126   5.466   0.773  11.859
30431SOL    HW293127   5.386   0.856  11.956
30432SOL     OW93128   1.163   1.356  10.367
30432SOL    HW193129   1.242   1.362  10.315
30432SOL    HW293130   1.112   1.433  10.344
30433SOL     OW93131   0.715   8.555  10.540
30433SOL    HW193132   0.744   8.643  10.562
30433SOL    HW293133   0.650   8.567  10.471
30434SOL     OW93134  14.198  14.087   9.049
30434SOL    HW193135  14.189  14.111   9.142
30434SOL    HW293136  14.277  14.131   9.020
30435SOL     OW93137   3.734  14.503   5.294
30435SOL    HW193138   3.726  14.597   5.278
30435SOL    HW293139   3.646  14.468   5.277
30436SOL     OW93140   0.092  13.438   8.066
30436SOL    HW193141   0.127  13.500   8.130
30436SOL    HW293142   0.037  13.378   8.118
30437SOL     OW93143   4.343   6.414  13.618
30437SOL    HW193144   4.354   6.340  13.678
30437SOL    HW293145   4.262   6.395  13.571
30438SOL     OW93146  14.460   6.257   1.927
30438SOL    HW193147  14.430   6.214   1.846
30438SOL    HW293148  14.540   6.304   1.901
30439SOL     OW93149   9.991  10.910  14.663
30439SOL    HW193150  10.024  10.990  14.623
30439SOL    HW293151   9.927  10.940  14.727
30440SOL     OW93152   0.367  14.050  11.396
30440SOL    HW193153   0.371  14.098  11.478
30440SOL    HW293154   0.432  13.981  11.405
30441SOL     OW93155   2.894  10.834  14.425
30441SOL    HW193156   2.942  10.915  14.441
30441SOL    HW293157   2.917  10.810  14.335
30442SOL     OW93158   4.794  11.753   9.481
30442SOL    HW193159   4.815  11.766   9.573
30442SOL    HW293160   4.874  11.714   9.443
30443SOL     OW93161  12.179   5.717  12.361
30443SOL    HW193162  12.155   5.708  12.269
30443SOL    HW293163  12.095   5.726  12.407
30444SOL     OW93164   3.848  10.932   2.953
30444SOL    HW193165   3.913  10.914   3.021
30444SOL    HW293166   3.764  10.912   2.996
30445SOL     OW93167   9.274   3.858  14.046
30445SOL    HW193168   9.207   3.909  14.093
30445SOL    HW293169   9.225   3.811  13.979
30446SOL     OW93170   8.102   6.994   8.080
30446SOL    HW193171   8.064   7.082   8.091
30446SOL    HW293172   8.171   6.989   8.146
30447SOL     OW93173   1.695  10.016   1.162
30447SOL    HW193174   1.772  10.068   1.184
30447SOL    HW293175   1.649  10.069   1.096
30448SOL     OW93176   0.325  13.007   7.237
30448SOL    HW193177   0.249  12.967   7.194
30448SOL    HW293178   0.330  13.095   7.199
30449SOL     OW93179   8.980   5.681   3.673
30449SOL    HW193180   9.062   5.656   3.630
30449SOL    HW293181   8.912   5.635   3.624
30450SOL     OW93182   8.583  14.480   8.246
30450SOL    HW193183   8.581  14.521   8.333
30450SOL    HW293184   8.608  14.551   8.187
30451SOL     OW93185   8.246   1.150   2.389
30451SOL    HW193186   8.310   1.161   2.319
30451SOL    HW293187   8.254   1.059   2.415
30452SOL     OW93188  11.763   8.060   6.482
30452SOL    HW193189  11.783   8.135   6.425
30452SOL    HW293190  11.674   8.076   6.512
30453SOL     OW93191   3.804  10.047   8.989
30453SOL    HW193192   3.834  10.129   9.028
30453SOL    HW293193   3.798   9.987   9.063
30454SOL     OW93194   5.816   3.653  11.790
30454SOL    HW193195   5.850   3.702  11.864
30454SOL    HW293196   5.736   3.699  11.765
30455SOL     OW93197  13.406   3.169   0.963
30455SOL    HW193198  13.489   3.186   0.918
30455SOL    HW293199  13.396   3.244   1.022
30456SOL     OW93200  13.631   8.876   5.506
30456SOL    HW193201  13.666   8.800   5.553
30456SOL    HW293202  13.656   8.861   5.415
30457SOL     OW93203   3.525   7.211   8.126
30457SOL    HW193204   3.545   7.299   8.158
30457SOL    HW293205   3.468   7.173   8.193
30458SOL     OW93206   9.312   6.279  11.299
30458SOL    HW193207   9.333   6.358  11.347
30458SOL    HW293208   9.276   6.219  11.365
30459SOL     OW93209   0.278   1.495   7.166
30459SOL    HW193210   0.372   1.492   7.150
30459SOL    HW293211   0.241   1.435   7.101
30460SOL     OW93212   1.291  14.782  11.948
30460SOL    HW193213   1.197  14.802  11.947
30460SOL    HW293214   1.332  14.864  11.919
30461SOL     OW93215   4.048  14.589  10.438
30461SOL    HW193216   3.956  14.588  10.465
30461SOL    HW293217   4.079  14.676  10.464
30462SOL     OW93218   2.290   7.823   5.956
30462SOL    HW193219   2.216   7.793   5.905
30462SOL    HW293220   2.306   7.913   5.926
30463SOL     OW93221  11.546   5.327   5.742
30463SOL    HW193222  11.640   5.327   5.757
30463SOL    HW293223  11.511   5.264   5.806
30464SOL     OW93224   0.455   2.072  11.393
30464SOL    HW193225   0.423   2.046  11.307
30464SOL    HW293226   0.416   2.158  11.409
30465SOL     OW93227  12.944  11.610   7.094
30465SOL    HW193228  13.025  11.651   7.127
30465SOL    HW293229  12.874  11.658   7.138
30466SOL     OW93230   3.711   2.648  11.777
30466SOL    HW193231   3.772   2.683  11.713
30466SOL    HW293232   3.653   2.721  11.799
30467SOL     OW93233  13.042  12.179  12.439
30467SOL    HW193234  13.032  12.132  12.356
30467SOL    HW293235  12.979  12.251  12.434
30468SOL     OW93236   4.643  13.827   1.214
30468SOL    HW193237   4.582  13.896   1.240
30468SOL    HW293238   4.682  13.797   1.296
30469SOL     OW93239   9.005  11.249  14.418
30469SOL    HW193240   8.920  11.250  14.462
30469SOL    HW293241   8.989  11.296  14.336
30470SOL     OW93242   3.631  10.438   1.152
30470SOL    HW193243   3.725  10.457   1.157
30470SOL    HW293244   3.588  10.522   1.166
30471SOL     OW93245   3.065   8.319   5.777
30471SOL    HW193246   3.125   8.339   5.848
30471SOL    HW293247   2.981   8.356   5.805
30472SOL     OW93248   1.803   0.443  12.647
30472SOL    HW193249   1.836   0.458  12.736
30472SOL    HW293250   1.849   0.365  12.617
30473SOL     OW93251   3.183   8.486   4.453
30473SOL    HW193252   3.172   8.527   4.368
30473SOL    HW293253   3.257   8.532   4.492
30474SOL     OW93254   0.900  10.155  10.702
30474SOL    HW193255   0.943  10.091  10.758
30474SOL    HW293256   0.932  10.240  10.733
30475SOL     OW93257  12.077   9.127  11.830
30475SOL    HW193258  12.139   9.066  11.869
30475SOL    HW293259  12.067   9.097  11.740
30476SOL     OW93260   2.819  13.668  14.649
30476SOL    HW193261   2.739  13.693  14.601
30476SOL    HW293262   2.803  13.578  14.677
30477SOL     OW93263  10.847  12.134   3.986
30477SOL    HW193264  10.895  12.211   4.017
30477SOL    HW293265  10.857  12.136   3.890
30478SOL     OW93266   1.142   3.064   5.614
30478SOL    HW193267   1.232   3.041   5.595
30478SOL    HW293268   1.122   3.136   5.554
30479SOL     OW93269   5.769  13.413  12.692
30479SOL    HW193270   5.767  13.362  12.773
30479SOL    HW293271   5.851  13.461  12.696
30480SOL     OW93272   8.456  10.411  12.168
30480SOL    HW193273   8.384  10.353  12.191
30480SOL    HW293274   8.436  10.493  12.213
30481SOL     OW93275   5.883   6.190  10.073
30481SOL    HW193276   5.796   6.223  10.095
30481SOL    HW293277   5.872   6.151   9.986
30482SOL     OW93278  10.328   5.655  14.405
30482SOL    HW193279  10.238   5.668  14.435
30482SOL    HW293280  10.320   5.639  14.311
30483SOL     OW93281   6.788   9.275  11.897
30483SOL    HW193282   6.825   9.308  11.815
30483SOL    HW293283   6.698   9.253  11.875
30484SOL     OW93284  14.673  14.629   1.344
30484SOL    HW193285  14.678  14.568   1.417
30484SOL    HW293286  14.633  14.578   1.273
30485SOL     OW93287  10.184   4.422   0.399
30485SOL    HW193288  10.179   4.475   0.319
30485SOL    HW293289  10.093   4.408   0.425
30486SOL     OW93290   6.262   6.074  11.537
30486SOL    HW193291   6.179   6.034  11.562
30486SOL    HW293292   6.243   6.121  11.456
30487SOL     OW93293  10.659  14.269  11.156
30487SOL    HW193294  10.744  14.314  11.154
30487SOL    HW293295  10.598  14.335  11.190
30488SOL     OW93296   4.569   6.349  11.354
30488SOL    HW193297   4.552   6.381  11.266
30488SOL    HW293298   4.491   6.299  11.377
30489SOL     OW93299   5.473   5.237   0.425
30489SOL    HW193300   5.474   5.168   0.491
30489SOL    HW293301   5.496   5.193   0.343
30490SOL     OW93302  12.887   8.997   5.601
30490SOL    HW193303  12.928   8.986   5.687
30490SOL    HW293304  12.947   8.955   5.540
30491SOL     OW93305   6.219   8.733   1.977
30491SOL    HW193306   6.175   8.796   1.920
30491SOL    HW293307   6.312   8.747   1.961
30492SOL     OW93308   0.220   7.438  11.984
30492SOL    HW193309   0.189   7.464  11.897
30492SOL    HW293310   0.235   7.344  11.977
30493SOL     OW93311  13.994   3.953  12.945
30493SOL    HW193312  13.951   3.933  13.028
30493SOL    HW293313  14.073   4.001  12.970
30494SOL     OW93314   5.355   4.813   6.983
30494SOL    HW193315   5.387   4.890   7.029
30494SOL    HW293316   5.433   4.776   6.942
30495SOL     OW93317   8.523  14.309   6.366
30495SOL    HW193318   8.459  14.248   6.403
30495SOL    HW293319   8.602  14.256   6.351
30496SOL     OW93320   7.210   0.444   9.474
30496SOL    HW193321   7.275   0.513   9.477
30496SOL    HW293322   7.226   0.399   9.391
30497SOL     OW93323   6.628   9.596  10.402
30497SOL    HW193324   6.555   9.635  10.354
30497SOL    HW293325   6.699   9.660  10.394
30498SOL     OW93326  13.477   0.257   9.207
30498SOL    HW193327  13.551   0.305   9.170
30498SOL    HW293328  13.506   0.231   9.294
30499SOL     OW93329   3.741   6.943   4.048
30499SOL    HW193330   3.705   7.016   3.998
30499SOL    HW293331   3.812   6.909   3.995
30500SOL     OW93332  10.534   3.004   8.177
30500SOL    HW193333  10.446   2.985   8.209
30500SOL    HW293334  10.580   2.921   8.181
30501SOL     OW93335   3.383   8.797  11.076
30501SOL    HW193336   3.381   8.728  11.142
30501SOL    HW293337   3.292   8.810  11.052
30502SOL     OW93338   4.764  11.940   5.430
30502SOL    HW193339   4.728  11.976   5.349
30502SOL    HW293340   4.855  11.920   5.409
30503SOL     OW93341   9.209   0.010   9.886
30503SOL    HW193342   9.293  14.838   9.894
30503SOL    HW293343   9.151  14.819   9.844
30504SOL     OW93344   9.903  13.816   3.918
30504SOL    HW193345   9.938  13.810   4.007
30504SOL    HW293346   9.823  13.868   3.927
30505SOL     OW93347   1.231   1.257   8.450
30505SOL    HW193348   1.266   1.250   8.361
30505SOL    HW293349   1.136   1.263   8.438
30506SOL     OW93350   8.105   4.510   0.378
30506SOL    HW193351   8.190   4.484   0.344
30506SOL    HW293352   8.043   4.445   0.345
30507SOL     OW93353   6.900   2.536   3.604
30507SOL    HW193354   6.863   2.606   3.549
30507SOL    HW293355   6.967   2.496   3.549
30508SOL     OW93356   1.575   5.154   3.419
30508SOL    HW193357   1.501   5.161   3.360
30508SOL    HW293358   1.620   5.073   3.393
30509SOL     OW93359  10.389  10.859   9.085
30509SOL    HW193360  10.324  10.797   9.053
30509SOL    HW293361  10.338  10.939   9.102
30510SOL     OW93362   0.273  11.803  13.234
30510SOL    HW193363   0.330  11.729  13.256
30510SOL    HW293364   0.225  11.821  13.314
30511SOL     OW93365   2.030   4.475  13.950
30511SOL    HW193366   2.053   4.535  13.878
30511SOL    HW293367   1.952   4.430  13.918
30512SOL     OW93368   5.242   8.633   1.755
30512SOL    HW193369   5.153   8.625   1.722
30512SOL    HW293370   5.278   8.545   1.750
30513SOL     OW93371   9.839  13.360  13.193
30513SOL    HW193372   9.887  13.319  13.265
30513SOL    HW293373   9.856  13.453  13.202
30514SOL     OW93374   5.310   0.631  13.446
30514SOL    HW193375   5.225   0.674  13.456
30514SOL    HW293376   5.328   0.635  13.352
30515SOL     OW93377   5.556   7.946   2.911
30515SOL    HW193378   5.604   7.888   2.970
30515SOL    HW293379   5.621   8.009   2.881
30516SOL     OW93380   2.616  13.437   8.293
30516SOL    HW193381   2.593  13.344   8.293
30516SOL    HW293382   2.538  13.480   8.326
30517SOL     OW93383   9.053   4.432  14.345
30517SOL    HW193384   9.088   4.456  14.259
30517SOL    HW293385   9.129   4.435  14.403
30518SOL     OW93386   9.738  14.027   0.643
30518SOL    HW193387   9.697  14.021   0.557
30518SOL    HW293388   9.710  13.947   0.688
30519SOL     OW93389  13.924  13.140   2.188
30519SOL    HW193390  13.984  13.111   2.120
30519SOL    HW293391  13.888  13.222   2.155
30520SOL     OW93392   2.990  13.343   9.226
30520SOL    HW193393   3.075  13.341   9.269
30520SOL    HW293394   2.994  13.420   9.169
30521SOL     OW93395   8.584  10.227   5.219
30521SOL    HW193396   8.516  10.233   5.152
30521SOL    HW293397   8.578  10.309   5.268
30522SOL     OW93398   4.508   7.330   0.125
30522SOL    HW193399   4.530   7.416   0.162
30522SOL    HW293400   4.538   7.334   0.035
30523SOL     OW93401   3.117   2.051   3.381
30523SOL    HW193402   3.051   2.077   3.317
30523SOL    HW293403   3.119   1.955   3.377
30524SOL     OW93404   5.464   8.683   8.422
30524SOL    HW193405   5.447   8.589   8.430
30524SOL    HW293406   5.556   8.693   8.445
30525SOL     OW93407   9.123   1.594  11.922
30525SOL    HW193408   9.205   1.641  11.907
30525SOL    HW293409   9.146   1.528  11.989
30526SOL     OW93410   7.738   8.627   0.616
30526SOL    HW193411   7.781   8.643   0.700
30526SOL    HW293412   7.651   8.665   0.627
30527SOL     OW93413   1.765   6.717   3.091
30527SOL    HW193414   1.836   6.701   3.030
30527SOL    HW293415   1.804   6.770   3.160
30528SOL     OW93416   5.247   2.079   8.038
30528SOL    HW193417   5.272   2.081   7.945
30528SOL    HW293418   5.233   1.986   8.057
30529SOL     OW93419   8.942   8.270  12.964
30529SOL    HW193420   8.953   8.356  12.924
30529SOL    HW293421   9.003   8.213  12.917
30530SOL     OW93422   5.543  12.519   8.963
30530SOL    HW193423   5.496  12.486   9.040
30530SOL    HW293424   5.561  12.441   8.911
30531SOL     OW93425   8.723   1.199  14.023
30531SOL    HW193426   8.783   1.131  13.993
30531SOL    HW293427   8.640   1.152  14.038
30532SOL     OW93428   5.702   3.937   0.253
30532SOL    HW193429   5.679   3.966   0.341
30532SOL    HW293430   5.644   3.863   0.236
30533SOL     OW93431   2.501   2.550   7.779
30533SOL    HW193432   2.575   2.530   7.836
30533SOL    HW293433   2.517   2.500   7.699
30534SOL     OW93434  13.951  13.444   0.329
30534SOL    HW193435  13.972  13.494   0.407
30534SOL    HW293436  13.907  13.507   0.271
30535SOL     OW93437   1.722   4.319  10.640
30535SOL    HW193438   1.724   4.233  10.598
30535SOL    HW293439   1.732   4.381  10.568
30536SOL     OW93440   0.251   3.617  10.716
30536SOL    HW193441   0.329   3.574  10.680
30536SOL    HW293442   0.280   3.704  10.740
30537SOL     OW93443  10.448  14.645  13.942
30537SOL    HW193444  10.471  14.629  14.033
30537SOL    HW293445  10.506  14.588  13.892
30538SOL     OW93446  12.274   7.233   4.413
30538SOL    HW193447  12.204   7.168   4.416
30538SOL    HW293448  12.292   7.244   4.320
30539SOL     OW93449  14.370  11.119   2.224
30539SOL    HW193450  14.441  11.141   2.284
30539SOL    HW293451  14.302  11.083   2.281
30540SOL     OW93452   9.613   5.220   6.929
30540SOL    HW193453   9.695   5.175   6.950
30540SOL    HW293454   9.640   5.309   6.906
30541SOL     OW93455   8.121   6.046   9.245
30541SOL    HW193456   8.096   5.980   9.180
30541SOL    HW293457   8.194   6.093   9.204
30542SOL     OW93458   3.595   7.402  11.442
30542SOL    HW193459   3.531   7.337  11.413
30542SOL    HW293460   3.566   7.484  11.401
30543SOL     OW93461  12.928   0.383  11.332
30543SOL    HW193462  12.980   0.351  11.406
30543SOL    HW293463  12.852   0.424  11.373
30544SOL     OW93464   6.165   0.499   2.260
30544SOL    HW193465   6.245   0.517   2.211
30544SOL    HW293466   6.125   0.425   2.216
30545SOL     OW93467  12.982   7.563   0.583
30545SOL    HW193468  13.031   7.635   0.544
30545SOL    HW293469  12.921   7.535   0.514
30546SOL     OW93470   0.826   5.976   5.308
30546SOL    HW193471   0.839   6.068   5.286
30546SOL    HW293472   0.796   5.976   5.398
30547SOL     OW93473   0.871   2.555  11.223
30547SOL    HW193474   0.889   2.462  11.230
30547SOL    HW293475   0.894   2.591  11.309
30548SOL     OW93476   6.547   1.232   3.328
30548SOL    HW193477   6.533   1.295   3.398
30548SOL    HW293478   6.468   1.179   3.327
30549SOL     OW93479   1.988  11.053   6.356
30549SOL    HW193480   2.018  11.120   6.294
30549SOL    HW293481   1.977  10.975   6.303
30550SOL     OW93482  14.163   5.415  13.328
30550SOL    HW193483  14.103   5.427  13.402
30550SOL    HW293484  14.177   5.320  13.324
30551SOL     OW93485   1.390   4.431   3.846
30551SOL    HW193486   1.425   4.507   3.892
30551SOL    HW293487   1.331   4.389   3.909
30552SOL     OW93488   1.149   6.281  13.074
30552SOL    HW193489   1.181   6.358  13.026
30552SOL    HW293490   1.193   6.285  13.158
30553SOL     OW93491   6.424   1.177   6.764
30553SOL    HW193492   6.475   1.149   6.840
30553SOL    HW293493   6.352   1.114   6.758
30554SOL     OW93494   6.028   8.251   1.853
30554SOL    HW193495   5.962   8.276   1.788
30554SOL    HW293496   6.077   8.331   1.870
30555SOL     OW93497   3.777  12.899   3.939
30555SOL    HW193498   3.696  12.919   3.891
30555SOL    HW293499   3.840  12.963   3.907
30556SOL     OW93500   9.404  10.270   5.686
30556SOL    HW193501   9.327  10.214   5.694
30556SOL    HW293502   9.371  10.359   5.700
30557SOL     OW93503  11.400   1.954   9.742
30557SOL    HW193504  11.347   1.885   9.780
30557SOL    HW293505  11.487   1.914   9.731
30558SOL     OW93506   9.596   7.477   8.263
30558SOL    HW193507   9.634   7.517   8.185
30558SOL    HW293508   9.552   7.399   8.231
30559SOL     OW93509   6.044  11.007  14.191
30559SOL    HW193510   6.114  10.968  14.242
30559SOL    HW293511   6.046  11.100  14.214
30560SOL     OW93512   1.246   6.813   3.180
30560SOL    HW193513   1.173   6.804   3.242
30560SOL    HW293514   1.218   6.883   3.121
30561SOL     OW93515  12.950   7.026   8.363
30561SOL    HW193516  12.948   6.935   8.335
30561SOL    HW293517  12.905   7.027   8.448
30562SOL     OW93518   8.539   2.268   6.820
30562SOL    HW193519   8.474   2.270   6.890
30562SOL    HW293520   8.497   2.220   6.748
30563SOL     OW93521   8.748   6.578   1.545
30563SOL    HW193522   8.830   6.602   1.589
30563SOL    HW293523   8.748   6.631   1.465
30564SOL     OW93524   9.780   7.204   1.702
30564SOL    HW193525   9.792   7.125   1.755
30564SOL    HW293526   9.753   7.271   1.764
30565SOL     OW93527   2.306   9.156   1.115
30565SOL    HW193528   2.348   9.081   1.073
30565SOL    HW293529   2.220   9.124   1.141
30566SOL     OW93530   0.220   7.124  13.073
30566SOL    HW193531   0.283   7.179  13.026
30566SOL    HW293532   0.135   7.167  13.057
30567SOL     OW93533   3.803   5.051   0.936
30567SOL    HW193534   3.804   4.956   0.925
30567SOL    HW293535   3.711   5.076   0.929
30568SOL     OW93536   1.123   6.884   6.273
30568SOL    HW193537   1.189   6.916   6.334
30568SOL    HW293538   1.127   6.788   6.281
30569SOL     OW93539   5.369  10.165  11.758
30569SOL    HW193540   5.384  10.240  11.699
30569SOL    HW293541   5.375  10.088  11.701
30570SOL     OW93542  12.720  12.264   4.802
30570SOL    HW193543  12.652  12.197   4.794
30570SOL    HW293544  12.762  12.266   4.717
30571SOL     OW93545   0.699   0.890   3.930
30571SOL    HW193546   0.656   0.862   4.011
30571SOL    HW293547   0.728   0.809   3.889
30572SOL     OW93548   1.125   0.991  12.798
30572SOL    HW193549   1.156   1.072  12.757
30572SOL    HW293550   1.033   0.986  12.773
30573SOL     OW93551  11.948   8.635   0.877
30573SOL    HW193552  11.959   8.700   0.947
30573SOL    HW293553  12.034   8.629   0.836
30574SOL     OW93554   5.620   8.321  13.228
30574SOL    HW193555   5.614   8.401  13.177
30574SOL    HW293556   5.651   8.254  13.166
30575SOL     OW93557   8.017   2.014   9.495
30575SOL    HW193558   8.027   1.920   9.480
30575SOL    HW293559   7.923   2.028   9.501
30576SOL     OW93560  10.362   6.964   2.090
30576SOL    HW193561  10.425   6.955   2.161
30576SOL    HW293562  10.283   6.921   2.123
30577SOL     OW93563   9.004   5.952   9.835
30577SOL    HW193564   9.098   5.966   9.819
30577SOL    HW293565   8.986   6.000   9.916
30578SOL     OW93566   6.913  12.047   2.043
30578SOL    HW193567   6.940  12.010   1.958
30578SOL    HW293568   6.928  12.141   2.033
30579SOL     OW93569  12.346  11.467   7.364
30579SOL    HW193570  12.296  11.549   7.363
30579SOL    HW293571  12.282  11.400   7.389
30580SOL     OW93572  12.585   1.844  12.787
30580SOL    HW193573  12.597   1.867  12.879
30580SOL    HW293574  12.600   1.925  12.739
30581SOL     OW93575  10.670   1.091  12.366
30581SOL    HW193576  10.720   1.168  12.395
30581SOL    HW293577  10.632   1.056  12.447
30582SOL     OW93578  10.771   9.152   3.504
30582SOL    HW193579  10.707   9.114   3.565
30582SOL    HW293580  10.814   9.076   3.464
30583SOL     OW93581  10.198  13.991  14.656
30583SOL    HW193582  10.143  14.068  14.671
30583SOL    HW293583  10.276  14.006  14.710
30584SOL     OW93584   4.646   3.787   8.504
30584SOL    HW193585   4.673   3.723   8.438
30584SOL    HW293586   4.689   3.759   8.584
30585SOL     OW93587   7.189   9.813   3.364
30585SOL    HW193588   7.205   9.812   3.270
30585SOL    HW293589   7.151   9.899   3.381
30586SOL     OW93590   7.467   7.426   6.971
30586SOL    HW193591   7.386   7.408   6.924
30586SOL    HW293592   7.441   7.434   7.063
30587SOL     OW93593  12.456   6.660  13.011
30587SOL    HW193594  12.517   6.732  13.023
30587SOL    HW293595  12.369   6.701  13.017
30588SOL     OW93596   7.343   5.664   8.449
30588SOL    HW193597   7.261   5.623   8.477
30588SOL    HW293598   7.373   5.711   8.527
30589SOL     OW93599   9.556   6.423   6.984
30589SOL    HW193600   9.552   6.447   7.077
30589SOL    HW293601   9.590   6.334   6.984
30590SOL     OW93602  11.632   9.970   1.937
30590SOL    HW193603  11.633   9.874   1.938
30590SOL    HW293604  11.539   9.992   1.932
30591SOL     OW93605   2.357   2.034   1.442
30591SOL    HW193606   2.326   1.944   1.446
30591SOL    HW293607   2.451   2.029   1.459
30592SOL     OW93608  14.732   0.654   6.852
30592SOL    HW193609  14.681   0.735   6.843
30592SOL    HW293610  14.707   0.621   6.939
30593SOL     OW93611   1.707   7.020  10.394
30593SOL    HW193612   1.780   7.081  10.393
30593SOL    HW293613   1.680   7.013  10.302
30594SOL     OW93614   4.955  12.841   1.853
30594SOL    HW193615   5.005  12.790   1.789
30594SOL    HW293616   5.021  12.875   1.914
30595SOL     OW93617  13.105   9.069   0.830
30595SOL    HW193618  13.068   9.048   0.916
30595SOL    HW293619  13.148   9.154   0.843
30596SOL     OW93620   9.621   5.569   4.144
30596SOL    HW193621   9.638   5.663   4.157
30596SOL    HW293622   9.565   5.544   4.217
30597SOL     OW93623   5.236   4.906  12.675
30597SOL    HW193624   5.262   4.935  12.763
30597SOL    HW293625   5.285   4.824  12.662
30598SOL     OW93626   6.984   2.083   0.792
30598SOL    HW193627   6.962   2.005   0.743
30598SOL    HW293628   6.999   2.052   0.882
30599SOL     OW93629   4.194  13.656   9.397
30599SOL    HW193630   4.264  13.714   9.369
30599SOL    HW293631   4.220  13.627   9.484
30600SOL     OW93632   0.654   9.347  10.875
30600SOL    HW193633   0.588   9.278  10.876
30600SOL    HW293634   0.641   9.392  10.792
30601SOL     OW93635  12.610   7.463   9.412
30601SOL    HW193636  12.586   7.461   9.505
30601SOL    HW293637  12.528   7.481   9.367
30602SOL     OW93638   1.266   5.497  12.276
30602SOL    HW193639   1.332   5.493  12.207
30602SOL    HW293640   1.301   5.557  12.341
30603SOL     OW93641   2.403   8.651  10.776
30603SOL    HW193642   2.392   8.721  10.840
30603SOL    HW293643   2.497   8.647  10.761
30604SOL     OW93644   4.522   2.849  12.030
30604SOL    HW193645   4.549   2.822  12.118
30604SOL    HW293646   4.598   2.897  11.996
30605SOL     OW93647   6.223  12.809   7.175
30605SOL    HW193648   6.184  12.726   7.147
30605SOL    HW293649   6.266  12.843   7.097
30606SOL     OW93650   2.144  12.216   9.993
30606SOL    HW193651   2.119  12.145   9.933
30606SOL    HW293652   2.061  12.248  10.029
30607SOL     OW93653  13.581   4.931   5.179
30607SOL    HW193654  13.615   4.964   5.097
30607SOL    HW293655  13.656   4.930   5.238
30608SOL     OW93656   9.168   1.044   4.244
30608SOL    HW193657   9.117   1.121   4.219
30608SOL    HW293658   9.116   1.003   4.314
30609SOL     OW93659   3.875   0.571   7.530
30609SOL    HW193660   3.839   0.532   7.451
30609SOL    HW293661   3.942   0.631   7.498
30610SOL     OW93662   9.803   8.552   7.179
30610SOL    HW193663   9.741   8.580   7.112
30610SOL    HW293664   9.817   8.630   7.234
30611SOL     OW93665   8.384   0.891   8.497
30611SOL    HW193666   8.435   0.847   8.565
30611SOL    HW293667   8.374   0.981   8.529
30612SOL     OW93668  12.586   9.944   3.049
30612SOL    HW193669  12.623   9.859   3.075
30612SOL    HW293670  12.601   9.949   2.955
30613SOL     OW93671  12.592   5.156  11.052
30613SOL    HW193672  12.511   5.106  11.058
30613SOL    HW293673  12.603   5.173  10.959
30614SOL     OW93674   8.982   5.036  13.952
30614SOL    HW193675   8.993   5.019  13.858
30614SOL    HW293676   9.028   5.119  13.966
30615SOL     OW93677  12.705  10.957   4.834
30615SOL    HW193678  12.706  11.001   4.749
30615SOL    HW293679  12.788  10.981   4.875
30616SOL     OW93680  11.815   2.233   9.506
30616SOL    HW193681  11.826   2.297   9.436
30616SOL    HW293682  11.721   2.234   9.526
30617SOL     OW93683   1.128  11.457   3.976
30617SOL    HW193684   1.212  11.495   3.953
30617SOL    HW293685   1.111  11.489   4.064
30618SOL     OW93686   4.513   7.892   9.027
30618SOL    HW193687   4.598   7.905   9.068
30618SOL    HW293688   4.532   7.890   8.933
30619SOL     OW93689   6.105   3.016   1.746
30619SOL    HW193690   6.012   3.014   1.722
30619SOL    HW293691   6.150   2.981   1.669
30620SOL     OW93692   2.575   3.748  12.785
30620SOL    HW193693   2.530   3.830  12.768
30620SOL    HW293694   2.515   3.697  12.839
30621SOL     OW93695   0.393   8.966  10.736
30621SOL    HW193696   0.356   8.967  10.648
30621SOL    HW293697   0.337   8.905  10.785
30622SOL     OW93698   6.237   6.162  12.434
30622SOL    HW193699   6.222   6.073  12.467
30622SOL    HW293700   6.324   6.159  12.394
30623SOL     OW93701   5.694   7.130   4.523
30623SOL    HW193702   5.672   7.222   4.538
30623SOL    HW293703   5.652   7.109   4.439
30624SOL     OW93704   0.708   5.310   0.250
30624SOL    HW193705   0.642   5.266   0.304
30624SOL    HW293706   0.726   5.392   0.295
30625SOL     OW93707   8.288  14.822  11.997
30625SOL    HW193708   8.266   0.018  12.060
30625SOL    HW293709   8.211  14.816  11.940
30626SOL     OW93710   4.141   0.179   4.258
30626SOL    HW193711   4.133   0.191   4.164
30626SOL    HW293712   4.109   0.090   4.274
30627SOL     OW93713   4.331   1.891   7.200
30627SOL    HW193714   4.250   1.866   7.155
30627SOL    HW293715   4.315   1.982   7.226
30628SOL     OW93716   7.193   4.272  14.856
30628SOL    HW193717   7.117   4.237   0.029
30628SOL    HW293718   7.257   4.201  14.855
30629SOL     OW93719   6.455   3.243  12.353
30629SOL    HW193720   6.430   3.335  12.341
30629SOL    HW293721   6.550   3.242  12.343
30630SOL     OW93722   3.291  10.713  13.821
30630SOL    HW193723   3.332  10.634  13.788
30630SOL    HW293724   3.292  10.774  13.747
30631SOL     OW93725   0.072  11.635   3.558
30631SOL    HW193726   0.011  11.684   3.613
30631SOL    HW293727   0.032  11.637   3.471
30632SOL     OW93728   7.480   9.462  11.248
30632SOL    HW193729   7.570   9.464  11.216
30632SOL    HW293730   7.435   9.530  11.198
30633SOL     OW93731   1.055   2.858   2.499
30633SOL    HW193732   0.964   2.881   2.480
30633SOL    HW293733   1.093   2.937   2.536
30634SOL     OW93734   6.847   2.999  10.229
30634SOL    HW193735   6.786   2.998  10.154
30634SOL    HW293736   6.863   3.092  10.245
30635SOL     OW93737  10.867   4.091   4.094
30635SOL    HW193738  10.903   4.009   4.128
30635SOL    HW293739  10.773   4.077   4.094
30636SOL     OW93740   2.603  10.896   4.188
30636SOL    HW193741   2.534  10.831   4.201
30636SOL    HW293742   2.577  10.943   4.108
30637SOL     OW93743   1.368  13.765   1.489
30637SOL    HW193744   1.371  13.705   1.563
30637SOL    HW293745   1.346  13.850   1.527
30638SOL     OW93746  12.273   7.035   4.830
30638SOL    HW193747  12.351   6.983   4.817
30638SOL    HW293748  12.206   6.993   4.776
30639SOL     OW93749   1.737   4.043  14.786
30639SOL    HW193750   1.789   4.111  14.744
30639SOL    HW293751   1.676   4.014  14.717
30640SOL     OW93752   8.778   4.765   8.639
30640SOL    HW193753   8.824   4.705   8.579
30640SOL    HW293754   8.785   4.850   8.597
30641SOL     OW93755   2.781   7.177  12.976
30641SOL    HW193756   2.849   7.243  12.972
30641SOL    HW293757   2.701   7.225  12.995
30642SOL     OW93758   6.278   3.810   0.311
30642SOL    HW193759   6.275   3.716   0.292
30642SOL    HW293760   6.187   3.836   0.322
30643SOL     OW93761   2.888   3.771  14.505
30643SOL    HW193762   2.948   3.812  14.568
30643SOL    HW293763   2.943   3.707  14.459
30644SOL     OW93764   5.827   8.967  10.062
30644SOL    HW193765   5.752   8.979  10.004
30644SOL    HW293766   5.891   9.031  10.032
30645SOL     OW93767  11.494   6.979   9.658
30645SOL    HW193768  11.494   6.885   9.639
30645SOL    HW293769  11.587   7.004   9.653
30646SOL     OW93770   0.634   0.637   5.920
30646SOL    HW193771   0.642   0.565   5.982
30646SOL    HW293772   0.718   0.640   5.875
30647SOL     OW93773   6.655  13.890   9.314
30647SOL    HW193774   6.708  13.811   9.327
30647SOL    HW293775   6.598  13.870   9.240
30648SOL     OW93776  10.759   9.625  14.566
30648SOL    HW193777  10.772   9.549  14.509
30648SOL    HW293778  10.670   9.616  14.599
30649SOL     OW93779   7.213   6.072   2.077
30649SOL    HW193780   7.128   6.082   2.120
30649SOL    HW293781   7.202   5.999   2.016
30650SOL     OW93782   1.250   7.417   4.227
30650SOL    HW193783   1.324   7.447   4.279
30650SOL    HW293784   1.179   7.477   4.249
30651SOL     OW93785   0.911   8.959   9.637
30651SOL    HW193786   0.962   8.896   9.586
30651SOL    HW293787   0.844   8.906   9.681
30652SOL     OW93788   7.568  10.705   0.101
30652SOL    HW193789   7.581  10.786   0.150
30652SOL    HW293790   7.474  10.686   0.111
30653SOL     OW93791  11.034   6.921   6.034
30653SOL    HW193792  11.035   6.840   6.085
30653SOL    HW293793  11.101   6.976   6.076
30654SOL     OW93794   9.088   1.161   2.098
30654SOL    HW193795   9.015   1.119   2.051
30654SOL    HW293796   9.116   1.232   2.040
30655SOL     OW93797  10.114  13.600  13.725
30655SOL    HW193798  10.113  13.555  13.810
30655SOL    HW293799  10.085  13.689  13.745
30656SOL     OW93800   1.070   8.910  10.541
30656SOL    HW193801   1.150   8.904  10.488
30656SOL    HW293802   1.010   8.964  10.487
30657SOL     OW93803   2.510  10.535   1.049
30657SOL    HW193804   2.424  10.533   1.090
30657SOL    HW293805   2.568  10.493   1.114
30658SOL     OW93806   0.846   2.528   9.650
30658SOL    HW193807   0.915   2.463   9.639
30658SOL    HW293808   0.832   2.564   9.563
30659SOL     OW93809  13.835   1.527   3.564
30659SOL    HW193810  13.746   1.492   3.558
30659SOL    HW293811  13.829   1.597   3.629
30660SOL     OW93812   8.512   5.482  11.610
30660SOL    HW193813   8.486   5.542  11.680
30660SOL    HW293814   8.442   5.418  11.606
30661SOL     OW93815   3.492   0.745   1.533
30661SOL    HW193816   3.575   0.792   1.544
30661SOL    HW293817   3.491   0.721   1.440
30662SOL     OW93818   5.291  14.056   4.453
30662SOL    HW193819   5.357  14.032   4.388
30662SOL    HW293820   5.311  14.002   4.529
30663SOL     OW93821   9.410   7.946  11.746
30663SOL    HW193822   9.382   7.931  11.656
30663SOL    HW293823   9.330   7.970  11.793
30664SOL     OW93824   7.451  14.230  11.323
30664SOL    HW193825   7.542  14.258  11.319
30664SOL    HW293826   7.404  14.293  11.269
30665SOL     OW93827   8.082  10.082   1.753
30665SOL    HW193828   8.131  10.160   1.728
30665SOL    HW293829   8.125  10.010   1.708
30666SOL     OW93830   9.470   6.733  11.485
30666SOL    HW193831   9.464   6.640  11.506
30666SOL    HW293832   9.544   6.764  11.538
30667SOL     OW93833   7.923   0.333   7.021
30667SOL    HW193834   7.993   0.322   7.084
30667SOL    HW293835   7.961   0.308   6.937
30668SOL     OW93836   7.597   1.513   6.439
30668SOL    HW193837   7.539   1.569   6.388
30668SOL    HW293838   7.541   1.473   6.505
30669SOL     OW93839   0.951   7.149  14.793
30669SOL    HW193840   0.995   7.113  14.716
30669SOL    HW293841   1.009   7.219  14.822
30670SOL     OW93842   0.685   3.848   4.053
30670SOL    HW193843   0.610   3.875   4.000
30670SOL    HW293844   0.762   3.877   4.004
30671SOL     OW93845   1.408   6.662   6.598
30671SOL    HW193846   1.439   6.689   6.684
30671SOL    HW293847   1.479   6.683   6.538
30672SOL     OW93848  11.247   7.565   8.908
30672SOL    HW193849  11.212   7.612   8.832
30672SOL    HW293850  11.251   7.474   8.879
30673SOL     OW93851   9.409  11.056   6.937
30673SOL    HW193852   9.480  11.112   6.967
30673SOL    HW293853   9.330  11.108   6.951
30674SOL     OW93854  13.710   1.816   4.030
30674SOL    HW193855  13.714   1.730   3.989
30674SOL    HW293856  13.771   1.870   3.980
30675SOL     OW93857  14.740  12.386   6.012
30675SOL    HW193858  14.778  12.453   5.955
30675SOL    HW293859  14.656  12.423   6.039
30676SOL     OW93860   8.022   7.267   8.072
30676SOL    HW193861   7.983   7.341   8.025
30676SOL    HW293862   8.092   7.307   8.125
30677SOL     OW93863   5.055   6.744  13.271
30677SOL    HW193864   5.054   6.693  13.191
30677SOL    HW293865   5.040   6.834  13.243
30678SOL     OW93866  10.434  10.484   4.999
30678SOL    HW193867  10.430  10.579   4.992
30678SOL    HW293868  10.440  10.453   4.908
30679SOL     OW93869   0.762  10.124  12.578
30679SOL    HW193870   0.753  10.211  12.539
30679SOL    HW293871   0.747  10.064  12.505
30680SOL     OW93872   4.194  12.451  13.820
30680SOL    HW193873   4.110  12.488  13.847
30680SOL    HW293874   4.204  12.478  13.729
30681SOL     OW93875  14.326  12.822   8.604
30681SOL    HW193876  14.312  12.903   8.555
30681SOL    HW293877  14.277  12.756   8.554
30682SOL     OW93878   9.107  13.927   8.468
30682SOL    HW193879   9.161  14.005   8.465
30682SOL    HW293880   9.168  13.855   8.452
30683SOL     OW93881   2.736  12.534   6.109
30683SOL    HW193882   2.687  12.539   6.191
30683SOL    HW293883   2.741  12.625   6.079
30684SOL     OW93884  10.806   5.938  11.989
30684SOL    HW193885  10.882   5.890  11.958
30684SOL    HW293886  10.797   5.912  12.081
30685SOL     OW93887   6.379   9.035   5.040
30685SOL    HW193888   6.444   9.103   5.057
30685SOL    HW293889   6.309   9.081   4.992
30686SOL     OW93890  14.714   9.858  10.306
30686SOL    HW193891  14.711   9.767  10.337
30686SOL    HW293892  14.800   9.889  10.332
30687SOL     OW93893   6.395  12.261   2.341
30687SOL    HW193894   6.357  12.293   2.422
30687SOL    HW293895   6.320  12.251   2.282
30688SOL     OW93896  12.124   9.228   6.885
30688SOL    HW193897  12.164   9.175   6.953
30688SOL    HW293898  12.041   9.185   6.865
30689SOL     OW93899   0.803  10.819  11.916
30689SOL    HW193900   0.886  10.862  11.901
30689SOL    HW293901   0.771  10.795  11.829
30690SOL     OW93902  13.056   3.849   3.291
30690SOL    HW193903  12.968   3.816   3.272
30690SOL    HW293904  13.099   3.852   3.206
30691SOL     OW93905   6.032  10.954   9.452
30691SOL    HW193906   6.005  11.018   9.386
30691SOL    HW293907   5.957  10.944   9.509
30692SOL     OW93908   3.831   5.430   8.026
30692SOL    HW193909   3.885   5.508   8.021
30692SOL    HW293910   3.742   5.463   8.042
30693SOL     OW93911  14.475  13.845   1.803
30693SOL    HW193912  14.483  13.780   1.874
30693SOL    HW293913  14.550  13.903   1.817
30694SOL     OW93914  13.113  13.041   1.355
30694SOL    HW193915  13.044  13.105   1.376
30694SOL    HW293916  13.182  13.058   1.419
30695SOL     OW93917  14.403   2.661   8.090
30695SOL    HW193918  14.342   2.733   8.109
30695SOL    HW293919  14.462   2.660   8.165
30696SOL     OW93920   2.464   3.316   1.600
30696SOL    HW193921   2.502   3.400   1.626
30696SOL    HW293922   2.485   3.257   1.672
30697SOL     OW93923   7.310   4.836  14.508
30697SOL    HW193924   7.264   4.799  14.432
30697SOL    HW293925   7.328   4.761  14.564
30698SOL     OW93926   4.215   9.955   2.592
30698SOL    HW193927   4.301   9.953   2.632
30698SOL    HW293928   4.165  10.016   2.645
30699SOL     OW93929  14.010   8.895  14.115
30699SOL    HW193930  14.084   8.956  14.108
30699SOL    HW293931  13.985   8.897  14.207
30700SOL     OW93932   8.593  13.015   7.142
30700SOL    HW193933   8.571  13.071   7.216
30700SOL    HW293934   8.577  12.926   7.174
30701SOL     OW93935  12.662  10.664   9.177
30701SOL    HW193936  12.691  10.687   9.089
30701SOL    HW293937  12.599  10.731   9.200
30702SOL     OW93938  11.865   2.417   9.269
30702SOL    HW193939  11.924   2.483   9.308
30702SOL    HW293940  11.885   2.420   9.175
30703SOL     OW93941   9.322   5.590  10.672
30703SOL    HW193942   9.385   5.661  10.683
30703SOL    HW293943   9.275   5.587  10.755
30704SOL     OW93944   1.718   3.826  14.279
30704SOL    HW193945   1.772   3.793  14.207
30704SOL    HW293946   1.680   3.747  14.318
30705SOL     OW93947   5.689   8.155  13.466
30705SOL    HW193948   5.755   8.175  13.533
30705SOL    HW293949   5.693   8.230  13.406
30706SOL     OW93950  11.537  13.840   3.430
30706SOL    HW193951  11.617  13.879   3.464
30706SOL    HW293952  11.543  13.852   3.335
30707SOL     OW93953   3.233  14.592   6.458
30707SOL    HW193954   3.195  14.523   6.511
30707SOL    HW293955   3.257  14.549   6.376
30708SOL     OW93956   7.906   8.928   1.424
30708SOL    HW193957   7.952   8.988   1.366
30708SOL    HW293958   7.966   8.855   1.436
30709SOL     OW93959   5.448   5.296  12.284
30709SOL    HW193960   5.534   5.253  12.284
30709SOL    HW293961   5.389   5.230  12.247
30710SOL     OW93962  12.910   1.060  11.796
30710SOL    HW193963  12.948   1.112  11.725
30710SOL    HW293964  12.828   1.105  11.816
30711SOL     OW93965   5.894   4.354   8.563
30711SOL    HW193966   5.933   4.400   8.636
30711SOL    HW293967   5.954   4.281   8.545
30712SOL     OW93968   8.936  13.346   2.111
30712SOL    HW193969   9.030  13.359   2.127
30712SOL    HW293970   8.906  13.431   2.077
30713SOL     OW93971   6.624  12.453   9.612
30713SOL    HW193972   6.696  12.459   9.549
30713SOL    HW293973   6.625  12.362   9.640
30714SOL     OW93974   7.318   5.476   2.037
30714SOL    HW193975   7.358   5.562   2.023
30714SOL    HW293976   7.224   5.494   2.042
30715SOL     OW93977  11.192   4.078   1.801
30715SOL    HW193978  11.097   4.069   1.794
30715SOL    HW293979  11.206   4.110   1.890
30716SOL     OW93980   2.802   9.748  12.431
30716SOL    HW193981   2.781   9.667  12.384
30716SOL    HW293982   2.896   9.745  12.444
30717SOL     OW93983   3.483   4.660   3.446
30717SOL    HW193984   3.572   4.641   3.476
30717SOL    HW293985   3.427   4.627   3.516
30718SOL     OW93986   4.743   7.345   7.214
30718SOL    HW193987   4.710   7.323   7.301
30718SOL    HW293988   4.716   7.436   7.200
30719SOL     OW93989  12.209   5.453   2.029
30719SOL    HW193990  12.245   5.494   2.107
30719SOL    HW293991  12.118   5.434   2.052
30720SOL     OW93992  11.361  13.341   1.246
30720SOL    HW193993  11.437  13.292   1.214
30720SOL    HW293994  11.399  13.420   1.285
30721SOL     OW93995   7.350   0.349   4.771
30721SOL    HW193996   7.411   0.285   4.808
30721SOL    HW293997   7.277   0.351   4.833
30722SOL     OW93998   7.581   3.076   6.177
30722SOL    HW193999   7.500   3.104   6.220
30722SOL    HW294000   7.587   2.982   6.197
30723SOL     OW94001  12.384  13.649   1.082
30723SOL    HW194002  12.430  13.652   1.165
30723SOL    HW294003  12.302  13.603   1.101
30724SOL     OW94004   6.966   2.157  11.976
30724SOL    HW194005   6.907   2.222  11.939
30724SOL    HW294006   7.001   2.200  12.055
30725SOL     OW94007  14.104   5.808   7.462
30725SOL    HW194008  14.175   5.754   7.497
30725SOL    HW294009  14.089   5.875   7.530
30726SOL     OW94010  10.173  13.297  11.613
30726SOL    HW194011  10.148  13.384  11.646
30726SOL    HW294012  10.092  13.262  11.576
30727SOL     OW94013   7.543   5.224   1.262
30727SOL    HW194014   7.525   5.152   1.202
30727SOL    HW294015   7.457   5.250   1.295
30728SOL     OW94016  13.876  13.291   0.650
30728SOL    HW194017  13.923  13.372   0.629
30728SOL    HW294018  13.784  13.312   0.633
30729SOL     OW94019   1.797  14.638  13.503
30729SOL    HW194020   1.867  14.574  13.509
30729SOL    HW294021   1.731  14.608  13.567
30730SOL     OW94022  14.785   0.485   2.589
30730SOL    HW194023  14.719   0.454   2.651
30730SOL    HW294024  14.854   0.418   2.592
30731SOL     OW94025  10.405  14.399  13.253
30731SOL    HW194026  10.470  14.386  13.322
30731SOL    HW294027  10.428  14.336  13.185
30732SOL     OW94028   3.043   7.673  12.010
30732SOL    HW194029   3.135   7.699  12.015
30732SOL    HW294030   2.994   7.754  12.024
30733SOL     OW94031   9.168  10.744   7.965
30733SOL    HW194032   9.155  10.773   7.875
30733SOL    HW294033   9.248  10.691   7.963
30734SOL     OW94034   6.236   1.524  13.775
30734SOL    HW194035   6.273   1.548  13.860
30734SOL    HW294036   6.245   1.603  13.722
30735SOL     OW94037   1.938   9.439  13.587
30735SOL    HW194038   1.916   9.530  13.608
30735SOL    HW294039   2.027   9.444  13.551
30736SOL     OW94040  11.617   6.675  11.302
30736SOL    HW194041  11.672   6.626  11.241
30736SOL    HW294042  11.555   6.611  11.336
30737SOL     OW94043   0.421   9.330  14.870
30737SOL    HW194044   0.403   9.367  14.783
30737SOL    HW294045   0.370   9.385   0.057
30738SOL     OW94046   3.914   1.454   9.832
30738SOL    HW194047   3.906   1.454   9.927
30738SOL    HW294048   3.832   1.417   9.801
30739SOL     OW94049   5.143   2.990   3.003
30739SOL    HW194050   5.108   2.901   3.008
30739SOL    HW294051   5.068   3.043   2.977
30740SOL     OW94052  13.679   1.567   3.899
30740SOL    HW194053  13.606   1.521   3.857
30740SOL    HW294054  13.716   1.620   3.829
30741SOL     OW94055   3.060   9.183   4.523
30741SOL    HW194056   3.141   9.220   4.489
30741SOL    HW294057   3.085   9.144   4.606
30742SOL     OW94058   2.604  10.650   0.606
30742SOL    HW194059   2.617  10.740   0.636
30742SOL    HW294060   2.648  10.646   0.521
30743SOL     OW94061   3.706   9.833  13.304
30743SOL    HW194062   3.665   9.899  13.360
30743SOL    HW294063   3.756   9.778  13.364
30744SOL     OW94064   9.174  14.548   0.595
30744SOL    HW194065   9.244  14.547   0.660
30744SOL    HW294066   9.099  14.587   0.640
30745SOL     OW94067  11.180   1.987   1.315
30745SOL    HW194068  11.256   2.035   1.347
30745SOL    HW294069  11.108   2.017   1.371
30746SOL     OW94070   7.249  12.873   4.860
30746SOL    HW194071   7.344  12.878   4.850
30746SOL    HW294072   7.215  12.916   4.781
30747SOL     OW94073   0.971  11.839   9.915
30747SOL    HW194074   0.905  11.876   9.974
30747SOL    HW294075   1.003  11.915   9.866
30748SOL     OW94076   8.266  11.047   1.071
30748SOL    HW194077   8.312  11.124   1.105
30748SOL    HW294078   8.289  10.977   1.133
30749SOL     OW94079  13.572   3.600   8.477
30749SOL    HW194080  13.600   3.566   8.562
30749SOL    HW294081  13.556   3.693   8.492
30750SOL     OW94082  11.192   8.396   3.106
30750SOL    HW194083  11.202   8.355   3.020
30750SOL    HW294084  11.225   8.485   3.095
30751SOL     OW94085   6.731   8.867  12.488
30751SOL    HW194086   6.649   8.818  12.478
30751SOL    HW294087   6.729   8.898  12.579
30752SOL     OW94088  14.661  13.738   6.027
30752SOL    HW194089  14.613  13.688   6.094
30752SOL    HW294090  14.639  13.829   6.046
30753SOL     OW94091   1.379  10.818   2.003
30753SOL    HW194092   1.390  10.747   2.066
30753SOL    HW294093   1.298  10.863   2.031
30754SOL     OW94094  10.322   3.368   2.575
30754SOL    HW194095  10.282   3.282   2.585
30754SOL    HW294096  10.281   3.422   2.642
30755SOL     OW94097   3.819   0.368   9.882
30755SOL    HW194098   3.877   0.337   9.953
30755SOL    HW294099   3.826   0.463   9.886
30756SOL     OW94100   5.201  12.366   8.714
30756SOL    HW194101   5.172  12.456   8.731
30756SOL    HW294102   5.188  12.354   8.620
30757SOL     OW94103   4.072   5.705  12.084
30757SOL    HW194104   4.063   5.692  12.179
30757SOL    HW294105   4.121   5.629  12.054
30758SOL     OW94106   6.797  14.561   9.545
30758SOL    HW194107   6.766  14.570   9.455
30758SOL    HW294108   6.775  14.471   9.569
30759SOL     OW94109   5.105  14.442   1.982
30759SOL    HW194110   5.063  14.360   1.957
30759SOL    HW294111   5.176  14.415   2.042
30760SOL     OW94112  14.772   6.363   3.869
30760SOL    HW194113  14.769   6.270   3.895
30760SOL    HW294114  14.699   6.373   3.809
30761SOL     OW94115  12.173   7.257  12.231
30761SOL    HW194116  12.079   7.249  12.241
30761SOL    HW294117  12.190   7.352  12.230
30762SOL     OW94118  13.098   6.181  11.659
30762SOL    HW194119  13.070   6.160  11.570
30762SOL    HW294120  13.060   6.113  11.714
30763SOL     OW94121   5.366  11.770   6.300
30763SOL    HW194122   5.438  11.720   6.339
30763SOL    HW294123   5.368  11.855   6.345
30764SOL     OW94124   3.135  12.682   3.490
30764SOL    HW194125   3.085  12.631   3.553
30764SOL    HW294126   3.102  12.772   3.499
30765SOL     OW94127  11.774  12.898   6.917
30765SOL    HW194128  11.774  12.992   6.896
30765SOL    HW294129  11.853  12.886   6.970
30766SOL     OW94130   7.386   7.527   2.517
30766SOL    HW194131   7.423   7.456   2.464
30766SOL    HW294132   7.308   7.489   2.557
30767SOL     OW94133  13.038  10.222  11.433
30767SOL    HW194134  12.954  10.204  11.391
30767SOL    HW294135  13.103  10.176  11.378
30768SOL     OW94136  10.289  10.662  10.999
30768SOL    HW194137  10.370  10.661  11.050
30768SOL    HW294138  10.225  10.704  11.056
30769SOL     OW94139   5.154  14.844   7.611
30769SOL    HW194140   5.249  14.839   7.624
30769SOL    HW294141   5.117  14.813   7.694
30770SOL     OW94142   5.680   8.796   5.020
30770SOL    HW194143   5.651   8.723   4.965
30770SOL    HW294144   5.599   8.845   5.038
30771SOL     OW94145   4.198  10.367   0.399
30771SOL    HW194146   4.201  10.382   0.305
30771SOL    HW294147   4.105  10.356   0.419
30772SOL     OW94148   5.217   4.427   2.097
30772SOL    HW194149   5.286   4.363   2.081
30772SOL    HW294150   5.137   4.383   2.068
30773SOL     OW94151   5.826   4.980   0.102
30773SOL    HW194152   5.919   4.981   0.124
30773SOL    HW294153   5.787   4.921   0.167
30774SOL     OW94154  11.129  11.630  13.428
30774SOL    HW194155  11.153  11.538  13.435
30774SOL    HW294156  11.200  11.676  13.474
30775SOL     OW94157   4.184   0.431   1.798
30775SOL    HW194158   4.221   0.511   1.760
30775SOL    HW294159   4.245   0.408   1.868
30776SOL     OW94160   3.255   0.316   5.062
30776SOL    HW194161   3.289   0.344   5.147
30776SOL    HW294162   3.179   0.371   5.047
30777SOL     OW94163   8.590   3.866   0.927
30777SOL    HW194164   8.631   3.927   0.988
30777SOL    HW294165   8.518   3.916   0.888
30778SOL     OW94166   9.609  14.749  14.510
30778SOL    HW194167   9.597  14.772  14.603
30778SOL    HW294168   9.539  14.685  14.493
30779SOL     OW94169  11.845   8.883   1.048
30779SOL    HW194170  11.756   8.882   1.014
30779SOL    HW294171  11.851   8.964   1.098
30780SOL     OW94172   0.857   5.130   0.092
30780SOL    HW194173   0.781   5.159   0.141
30780SOL    HW294174   0.920   5.202   0.100
30781SOL     OW94175  13.482  12.601   3.819
30781SOL    HW194176  13.455  12.630   3.906
30781SOL    HW294177  13.457  12.673   3.761
30782SOL     OW94178  14.415   0.267   5.195
30782SOL    HW194179  14.388   0.176   5.207
30782SOL    HW294180  14.333   0.315   5.181
30783SOL     OW94181   7.545   2.850  14.748
30783SOL    HW194182   7.462   2.816  14.781
30783SOL    HW294183   7.539   2.945  14.761
30784SOL     OW94184   6.041  13.556  10.788
30784SOL    HW194185   6.029  13.549  10.693
30784SOL    HW294186   6.044  13.465  10.819
30785SOL     OW94187  12.523  11.356   9.859
30785SOL    HW194188  12.498  11.333   9.948
30785SOL    HW294189  12.616  11.377   9.865
30786SOL     OW94190   1.935   1.232   7.035
30786SOL    HW194191   1.965   1.195   7.117
30786SOL    HW294192   2.015   1.243   6.983
30787SOL     OW94193  13.011   7.214   4.201
30787SOL    HW194194  13.094   7.192   4.242
30787SOL    HW294195  13.034   7.273   4.129
30788SOL     OW94196   6.516   8.229  11.072
30788SOL    HW194197   6.431   8.211  11.032
30788SOL    HW294198   6.517   8.172  11.150
30789SOL     OW94199  13.134   6.235  10.320
30789SOL    HW194200  13.074   6.220  10.394
30789SOL    HW294201  13.175   6.151  10.304
30790SOL     OW94202  14.311  13.778  11.200
30790SOL    HW194203  14.330  13.769  11.293
30790SOL    HW294204  14.290  13.871  11.188
30791SOL     OW94205  10.447  10.447  10.482
30791SOL    HW194206  10.452  10.542  10.465
30791SOL    HW294207  10.514  10.432  10.549
30792SOL     OW94208   3.397   2.131   9.509
30792SOL    HW194209   3.388   2.048   9.555
30792SOL    HW294210   3.437   2.108   9.425
30793SOL     OW94211   3.527  14.860   6.524
30793SOL    HW194212   3.530   0.077   6.492
30793SOL    HW294213   3.517  14.807   6.446
30794SOL     OW94214  11.904  12.914   7.352
30794SOL    HW194215  11.977  12.935   7.295
30794SOL    HW294216  11.893  12.819   7.344
30795SOL     OW94217   1.981   0.956   7.896
30795SOL    HW194218   2.016   0.967   7.807
30795SOL    HW294219   1.908   0.896   7.885
30796SOL     OW94220  14.139   3.295   3.960
30796SOL    HW194221  14.124   3.252   3.876
30796SOL    HW294222  14.125   3.226   4.025
30797SOL     OW94223   8.684  14.866   0.671
30797SOL    HW194224   8.753   0.058   0.687
30797SOL    HW294225   8.604   0.045   0.661
30798SOL     OW94226   8.179   6.793  12.423
30798SOL    HW194227   8.215   6.705  12.410
30798SOL    HW294228   8.084   6.781  12.414
30799SOL     OW94229  11.024   3.994   8.419
30799SOL    HW194230  11.058   3.916   8.463
30799SOL    HW294231  11.081   4.065   8.447
30800SOL     OW94232   3.507   5.475  11.791
30800SOL    HW194233   3.535   5.504  11.877
30800SOL    HW294234   3.565   5.520  11.730
30801SOL     OW94235   3.298  12.794   0.968
30801SOL    HW194236   3.206  12.768   0.981
30801SOL    HW294237   3.347  12.713   0.976
30802SOL     OW94238   0.270   2.647   5.975
30802SOL    HW194239   0.299   2.628   5.885
30802SOL    HW294240   0.351   2.657   6.025
30803SOL     OW94241   6.529   5.820  14.479
30803SOL    HW194242   6.489   5.776  14.554
30803SOL    HW294243   6.458   5.827  14.415
30804SOL     OW94244   6.706   1.517  10.229
30804SOL    HW194245   6.655   1.568  10.166
30804SOL    HW294246   6.666   1.538  10.314
30805SOL     OW94247  14.058   2.411   1.461
30805SOL    HW194248  14.060   2.504   1.441
30805SOL    HW294249  14.027   2.370   1.380
30806SOL     OW94250   0.854   6.982   8.079
30806SOL    HW194251   0.770   6.990   8.125
30806SOL    HW294252   0.912   6.940   8.143
30807SOL     OW94253  13.137   6.900   4.850
30807SOL    HW194254  13.179   6.884   4.934
30807SOL    HW294255  13.108   6.992   4.854
30808SOL     OW94256  11.140   4.863   0.539
30808SOL    HW194257  11.196   4.859   0.616
30808SOL    HW294258  11.085   4.784   0.545
30809SOL     OW94259   6.288   8.817   3.711
30809SOL    HW194260   6.278   8.750   3.644
30809SOL    HW294261   6.202   8.823   3.752
30810SOL     OW94262   4.201   8.497   0.695
30810SOL    HW194263   4.226   8.433   0.629
30810SOL    HW294264   4.141   8.450   0.753
30811SOL     OW94265  14.267   1.418   0.660
30811SOL    HW194266  14.173   1.436   0.657
30811SOL    HW294267  14.304   1.475   0.593
30812SOL     OW94268   0.050   3.296  11.878
30812SOL    HW194269  14.847   3.261  11.833
30812SOL    HW294270   0.014   3.343  11.953
30813SOL     OW94271  13.138  14.793   1.721
30813SOL    HW194272  13.102  14.709   1.694
30813SOL    HW294273  13.181  14.827   1.642
30814SOL     OW94274   3.932   4.815  14.254
30814SOL    HW194275   3.992   4.795  14.325
30814SOL    HW294276   3.960   4.758  14.182
30815SOL     OW94277   0.451   1.030  11.786
30815SOL    HW194278   0.359   1.003  11.782
30815SOL    HW294279   0.497   0.964  11.734
30816SOL     OW94280   2.201   6.615   5.697
30816SOL    HW194281   2.188   6.653   5.783
30816SOL    HW294282   2.164   6.527   5.703
30817SOL     OW94283  13.641  14.721   5.041
30817SOL    HW194284  13.550  14.691   5.036
30817SOL    HW294285  13.672  14.688   5.125
30818SOL     OW94286   2.144   2.541  11.851
30818SOL    HW194287   2.078   2.472  11.848
30818SOL    HW294288   2.215   2.503  11.903
30819SOL     OW94289   3.415  11.625   2.884
30819SOL    HW194290   3.371  11.560   2.940
30819SOL    HW294291   3.486  11.577   2.843
30820SOL     OW94292  13.613   2.040  14.677
30820SOL    HW194293  13.629   2.061  14.586
30820SOL    HW294294  13.541   2.098  14.703
30821SOL     OW94295   1.388   7.896   2.222
30821SOL    HW194296   1.444   7.821   2.239
30821SOL    HW294297   1.376   7.937   2.308
30822SOL     OW94298   1.704   1.339  10.122
30822SOL    HW194299   1.666   1.261  10.161
30822SOL    HW294300   1.793   1.344  10.158
30823SOL     OW94301  11.678   8.650   5.088
30823SOL    HW194302  11.758   8.653   5.141
30823SOL    HW294303  11.649   8.741   5.083
30824SOL     OW94304   6.576   4.363  10.561
30824SOL    HW194305   6.638   4.306  10.607
30824SOL    HW294306   6.515   4.303  10.518
30825SOL     OW94307   0.323  11.290  12.150
30825SOL    HW194308   0.286  11.371  12.184
30825SOL    HW294309   0.406  11.280  12.195
30826SOL     OW94310   2.200   6.472   7.127
30826SOL    HW194311   2.146   6.427   7.192
30826SOL    HW294312   2.152   6.553   7.108
30827SOL     OW94313   7.622   1.885  13.924
30827SOL    HW194314   7.559   1.934  13.872
30827SOL    HW294315   7.575   1.806  13.951
30828SOL     OW94316  12.840   9.428   4.967
30828SOL    HW194317  12.761   9.481   4.978
30828SOL    HW294318  12.825   9.351   5.021
30829SOL     OW94319   7.691   5.712   8.550
30829SOL    HW194320   7.741   5.679   8.625
30829SOL    HW294321   7.657   5.633   8.507
30830SOL     OW94322   0.276   9.048   9.126
30830SOL    HW194323   0.244   8.982   9.187
30830SOL    HW294324   0.274   9.006   9.041
30831SOL     OW94325   7.171  13.791   0.632
30831SOL    HW194326   7.233  13.857   0.663
30831SOL    HW294327   7.102  13.789   0.699
30832SOL     OW94328   1.559  14.461   8.600
30832SOL    HW194329   1.486  14.417   8.644
30832SOL    HW294330   1.573  14.412   8.520
30833SOL     OW94331   9.487  12.028   3.015
30833SOL    HW194332   9.403  11.997   2.981
30833SOL    HW294333   9.536  12.053   2.936
30834SOL     OW94334  11.954   2.677   5.132
30834SOL    HW194335  12.019   2.747   5.135
30834SOL    HW294336  11.897   2.700   5.058
30835SOL     OW94337  10.145   4.725   2.092
30835SOL    HW194338  10.115   4.777   2.017
30835SOL    HW294339  10.237   4.751   2.104
30836SOL     OW94340   3.413  10.110   1.337
30836SOL    HW194341   3.487  10.088   1.280
30836SOL    HW294342   3.397  10.031   1.388
30837SOL     OW94343   1.423   2.702   2.735
30837SOL    HW194344   1.490   2.699   2.667
30837SOL    HW294345   1.385   2.790   2.728
30838SOL     OW94346   9.493   7.285   6.226
30838SOL    HW194347   9.504   7.371   6.186
30838SOL    HW294348   9.481   7.303   6.320
30839SOL     OW94349   0.463   3.169   0.628
30839SOL    HW194350   0.470   3.101   0.696
30839SOL    HW294351   0.512   3.243   0.663
30840SOL     OW94352   3.025   3.389   0.264
30840SOL    HW194353   3.047   3.327   0.195
30840SOL    HW294354   3.068   3.470   0.238
30841SOL     OW94355   2.858  10.138   8.421
30841SOL    HW194356   2.915  10.178   8.355
30841SOL    HW294357   2.776  10.120   8.375
30842SOL     OW94358   6.424   7.738   5.654
30842SOL    HW194359   6.431   7.738   5.558
30842SOL    HW294360   6.471   7.817   5.681
30843SOL     OW94361   9.491   7.209  13.978
30843SOL    HW194362   9.577   7.193  13.940
30843SOL    HW294363   9.467   7.297  13.948
30844SOL     OW94364   9.166   1.808   3.937
30844SOL    HW194365   9.133   1.752   3.866
30844SOL    HW294366   9.255   1.778   3.951
30845SOL     OW94367   7.284   4.608   2.790
30845SOL    HW194368   7.312   4.593   2.700
30845SOL    HW294369   7.201   4.560   2.798
30846SOL     OW94370   2.314   1.940   3.839
30846SOL    HW194371   2.231   1.893   3.850
30846SOL    HW294372   2.367   1.883   3.784
30847SOL     OW94373   5.028  14.649  11.781
30847SOL    HW194374   5.002  14.558  11.792
30847SOL    HW294375   5.097  14.663  11.846
30848SOL     OW94376   2.175   6.829  10.555
30848SOL    HW194377   2.138   6.915  10.539
30848SOL    HW294378   2.186   6.791  10.468
30849SOL     OW94379   3.310  12.104  13.159
30849SOL    HW194380   3.400  12.119  13.186
30849SOL    HW294381   3.262  12.088  13.241
30850SOL     OW94382   5.364   7.349  14.334
30850SOL    HW194383   5.440   7.312  14.289
30850SOL    HW294384   5.358   7.439  14.302
30851SOL     OW94385   8.447   6.820   5.819
30851SOL    HW194386   8.455   6.740   5.871
30851SOL    HW294387   8.373   6.804   5.761
30852SOL     OW94388   8.995   4.120   3.225
30852SOL    HW194389   8.928   4.059   3.193
30852SOL    HW294390   9.028   4.080   3.305
30853SOL     OW94391   9.291   6.184   8.249
30853SOL    HW194392   9.204   6.219   8.266
30853SOL    HW294393   9.316   6.221   8.164
30854SOL     OW94394  11.928   2.770   4.139
30854SOL    HW194395  11.914   2.714   4.215
30854SOL    HW294396  11.948   2.709   4.067
30855SOL     OW94397   6.131   4.372   5.549
30855SOL    HW194398   6.126   4.277   5.537
30855SOL    HW294399   6.061   4.393   5.611
30856SOL     OW94400   5.037   2.145   2.538
30856SOL    HW194401   5.106   2.184   2.484
30856SOL    HW294402   5.083   2.108   2.613
30857SOL     OW94403  10.173   6.510   7.605
30857SOL    HW194404  10.169   6.548   7.692
30857SOL    HW294405  10.082   6.484   7.586
30858SOL     OW94406   2.212   9.177  10.261
30858SOL    HW194407   2.213   9.083  10.278
30858SOL    HW294408   2.272   9.214  10.326
30859SOL     OW94409  14.209   7.845   7.577
30859SOL    HW194410  14.239   7.768   7.625
30859SOL    HW294411  14.182   7.811   7.492
30860SOL     OW94412  12.790   8.912   3.123
30860SOL    HW194413  12.787   8.897   3.218
30860SOL    HW294414  12.883   8.925   3.105
30861SOL     OW94415  13.029   7.998   9.507
30861SOL    HW194416  12.963   8.023   9.572
30861SOL    HW294417  12.981   7.946   9.443
30862SOL     OW94418  12.828   7.527  12.128
30862SOL    HW194419  12.812   7.610  12.083
30862SOL    HW294420  12.787   7.537  12.214
30863SOL     OW94421  14.394   1.569   2.288
30863SOL    HW194422  14.427   1.486   2.253
30863SOL    HW294423  14.392   1.555   2.383
30864SOL     OW94424   1.885  10.915   5.494
30864SOL    HW194425   1.800  10.899   5.453
30864SOL    HW294426   1.909  11.003   5.467
30865SOL     OW94427   1.295   1.093   3.374
30865SOL    HW194428   1.334   1.007   3.358
30865SOL    HW294429   1.321   1.115   3.463
30866SOL     OW94430   5.448   3.647   1.798
30866SOL    HW194431   5.481   3.570   1.843
30866SOL    HW294432   5.353   3.635   1.795
30867SOL     OW94433   4.831  10.312   7.470
30867SOL    HW194434   4.858  10.374   7.538
30867SOL    HW294435   4.748  10.346   7.437
30868SOL     OW94436  12.197   2.238  10.303
30868SOL    HW194437  12.117   2.286  10.323
30868SOL    HW294438  12.255   2.257  10.376
30869SOL     OW94439   5.959   6.197   6.115
30869SOL    HW194440   5.897   6.255   6.160
30869SOL    HW294441   5.930   6.198   6.023
30870SOL     OW94442   5.800   9.864  13.800
30870SOL    HW194443   5.741   9.840  13.729
30870SOL    HW294444   5.754   9.933  13.848
30871SOL     OW94445   2.644   7.479  14.594
30871SOL    HW194446   2.585   7.408  14.619
30871SOL    HW294447   2.591   7.558  14.602
30872SOL     OW94448   8.775   6.155   0.444
30872SOL    HW194449   8.739   6.244   0.442
30872SOL    HW294450   8.715   6.104   0.390
30873SOL     OW94451   2.318   7.645   5.112
30873SOL    HW194452   2.333   7.575   5.175
30873SOL    HW294453   2.375   7.716   5.139
30874SOL     OW94454   7.550  14.732   3.688
30874SOL    HW194455   7.536  14.818   3.647
30874SOL    HW294456   7.479  14.726   3.753
30875SOL     OW94457  14.144   5.205  10.375
30875SOL    HW194458  14.131   5.140  10.444
30875SOL    HW294459  14.227   5.248  10.398
30876SOL     OW94460   5.028   3.624  10.275
30876SOL    HW194461   4.983   3.540  10.278
30876SOL    HW294462   5.121   3.601  10.282
30877SOL     OW94463   1.887   9.708   3.913
30877SOL    HW194464   1.814   9.687   3.970
30877SOL    HW294465   1.913   9.625   3.874
30878SOL     OW94466   9.048   3.811   0.731
30878SOL    HW194467   8.993   3.741   0.697
30878SOL    HW294468   9.128   3.808   0.679
30879SOL     OW94469   3.632   8.028  14.456
30879SOL    HW194470   3.537   8.031  14.469
30879SOL    HW294471   3.652   8.106  14.405
30880SOL     OW94472  14.727   2.519  13.162
30880SOL    HW194473  14.738   2.444  13.104
30880SOL    HW294474  14.756   2.488  13.248
30881SOL     OW94475   4.669   3.380   0.923
30881SOL    HW194476   4.656   3.397   1.016
30881SOL    HW294477   4.755   3.416   0.903
30882SOL     OW94478   7.818   7.463   9.184
30882SOL    HW194479   7.748   7.520   9.154
30882SOL    HW294480   7.773   7.390   9.227
30883SOL     OW94481   3.622   6.131   6.329
30883SOL    HW194482   3.526   6.126   6.336
30883SOL    HW294483   3.654   6.099   6.414
30884SOL     OW94484  12.042   4.615   4.674
30884SOL    HW194485  12.073   4.576   4.757
30884SOL    HW294486  11.952   4.641   4.693
30885SOL     OW94487  10.540   7.711   9.796
30885SOL    HW194488  10.451   7.688   9.769
30885SOL    HW294489  10.577   7.756   9.720
30886SOL     OW94490   3.883  13.395   7.586
30886SOL    HW194491   3.833  13.477   7.589
30886SOL    HW294492   3.817  13.326   7.580
30887SOL     OW94493  11.247   6.247   9.765
30887SOL    HW194494  11.257   6.256   9.860
30887SOL    HW294495  11.240   6.153   9.750
30888SOL     OW94496   9.296   2.699  13.471
30888SOL    HW194497   9.388   2.696  13.496
30888SOL    HW294498   9.249   2.707  13.554
30889SOL     OW94499  13.252  13.866   1.866
30889SOL    HW194500  13.184  13.932   1.880
30889SOL    HW294501  13.312  13.876   1.940
30890SOL     OW94502   9.888   7.455   2.571
30890SOL    HW194503   9.802   7.414   2.568
30890SOL    HW294504   9.884   7.525   2.505
30891SOL     OW94505   2.333   9.767   7.768
30891SOL    HW194506   2.288   9.692   7.808
30891SOL    HW294507   2.341   9.831   7.839
30892SOL     OW94508   0.396  11.513  12.481
30892SOL    HW194509   0.308  11.531  12.515
30892SOL    HW294510   0.388  11.525  12.386
30893SOL     OW94511   1.556   1.026   0.901
30893SOL    HW194512   1.619   1.093   0.874
30893SOL    HW294513   1.477   1.046   0.850
30894SOL     OW94514  10.112   1.988   3.732
30894SOL    HW194515  10.107   1.913   3.792
30894SOL    HW294516  10.043   1.972   3.668
30895SOL     OW94517  12.877   8.018  10.010
30895SOL    HW194518  12.908   7.949  10.070
30895SOL    HW294519  12.791   8.042  10.045
30896SOL     OW94520   0.705  11.689  13.347
30896SOL    HW194521   0.773  11.703  13.281
30896SOL    HW294522   0.682  11.776  13.377
30897SOL     OW94523  13.804   2.619  11.529
30897SOL    HW194524  13.774   2.706  11.502
30897SOL    HW294525  13.855   2.587  11.455
30898SOL     OW94526   7.009   5.577  11.529
30898SOL    HW194527   7.067   5.564  11.604
30898SOL    HW294528   6.937   5.516  11.543
30899SOL     OW94529  13.454   6.150   6.449
30899SOL    HW194530  13.411   6.177   6.531
30899SOL    HW294531  13.520   6.087   6.476
30900SOL     OW94532   0.893  11.249  12.143
30900SOL    HW194533   0.975  11.250  12.095
30900SOL    HW294534   0.888  11.335  12.184
30901SOL     OW94535   0.676   4.341   7.428
30901SOL    HW194536   0.701   4.416   7.374
30901SOL    HW294537   0.607   4.375   7.486
30902SOL     OW94538  13.978   3.003   3.021
30902SOL    HW194539  13.991   3.098   3.023
30902SOL    HW294540  14.063   2.966   3.043
30903SOL     OW94541  11.446  11.624   6.914
30903SOL    HW194542  11.408  11.634   7.001
30903SOL    HW294543  11.423  11.705   6.868
30904SOL     OW94544   8.449   4.615   3.031
30904SOL    HW194545   8.395   4.563   3.090
30904SOL    HW294546   8.487   4.551   2.971
30905SOL     OW94547   9.847  11.424   2.864
30905SOL    HW194548   9.913  11.493   2.874
30905SOL    HW294549   9.894  11.351   2.824
30906SOL     OW94550   0.098   9.956   6.058
30906SOL    HW194551   0.185   9.949   6.096
30906SOL    HW294552   0.041   9.977   6.132
30907SOL     OW94553  10.211  12.451   2.437
30907SOL    HW194554  10.194  12.384   2.504
30907SOL    HW294555  10.128  12.459   2.389
30908SOL     OW94556   8.436   2.989   1.393
30908SOL    HW194557   8.455   2.940   1.473
30908SOL    HW294558   8.340   2.995   1.390
30909SOL     OW94559   8.667  10.035   3.369
30909SOL    HW194560   8.628  10.120   3.393
30909SOL    HW294561   8.708  10.004   3.449
30910SOL     OW94562   2.676  14.126  12.385
30910SOL    HW194563   2.662  14.052  12.327
30910SOL    HW294564   2.600  14.182  12.371
30911SOL     OW94565   4.967  11.916  13.659
30911SOL    HW194566   4.911  11.866  13.719
30911SOL    HW294567   5.052  11.918  13.703
30912SOL     OW94568   6.170  11.516  11.802
30912SOL    HW194569   6.150  11.431  11.762
30912SOL    HW294570   6.129  11.580  11.743
30913SOL     OW94571   5.402   8.485   0.793
30913SOL    HW194572   5.354   8.404   0.772
30913SOL    HW294573   5.476   8.485   0.733
30914SOL     OW94574  14.466  10.036   0.138
30914SOL    HW194575  14.472   9.990   0.221
30914SOL    HW294576  14.556  10.061   0.118
30915SOL     OW94577   3.724   9.480  10.559
30915SOL    HW194578   3.700   9.411  10.497
30915SOL    HW294579   3.755   9.433  10.636
30916SOL     OW94580   8.854   4.187  13.055
30916SOL    HW194581   8.853   4.097  13.023
30916SOL    HW294582   8.789   4.188  13.125
30917SOL     OW94583   2.739   9.969   5.814
30917SOL    HW194584   2.732   9.879   5.784
30917SOL    HW294585   2.650   9.994   5.839
30918SOL     OW94586   0.988  10.654  12.898
30918SOL    HW194587   0.949  10.702  12.972
30918SOL    HW294588   1.032  10.722  12.847
30919SOL     OW94589   3.583  12.585  11.536
30919SOL    HW194590   3.499  12.629  11.543
30919SOL    HW294591   3.582  12.545  11.449
30920SOL     OW94592  14.074  10.939   3.080
30920SOL    HW194593  13.987  10.948   3.119
30920SOL    HW294594  14.095  11.027   3.048
30921SOL     OW94595   1.899   1.849   9.401
30921SOL    HW194596   1.992   1.828   9.416
30921SOL    HW294597   1.853   1.803   9.470
30922SOL     OW94598   1.315   3.045   1.242
30922SOL    HW194599   1.372   3.040   1.165
30922SOL    HW294600   1.358   3.108   1.300
30923SOL     OW94601  13.023  14.505  11.456
30923SOL    HW194602  13.045  14.511  11.363
30923SOL    HW294603  13.048  14.590  11.492
30924SOL     OW94604   6.599   7.492   9.577
30924SOL    HW194605   6.518   7.456   9.542
30924SOL    HW294606   6.610   7.576   9.532
30925SOL     OW94607   7.016  10.902   4.080
30925SOL    HW194608   6.948  10.845   4.044
30925SOL    HW294609   7.024  10.973   4.016
30926SOL     OW94610  13.202   5.480   3.721
30926SOL    HW194611  13.110   5.467   3.743
30926SOL    HW294612  13.249   5.460   3.802
30927SOL     OW94613  14.851  12.144   3.173
30927SOL    HW194614   0.050  12.140   3.237
30927SOL    HW294615   0.016  12.110   3.092
30928SOL     OW94616   7.462   7.935   0.674
30928SOL    HW194617   7.437   7.972   0.759
30928SOL    HW294618   7.552   7.965   0.660
30929SOL     OW94619   4.002  10.099   3.508
30929SOL    HW194620   4.050  10.019   3.488
30929SOL    HW294621   4.058  10.169   3.475
30930SOL     OW94622   6.868   3.041   4.120
30930SOL    HW194623   6.816   2.975   4.073
30930SOL    HW294624   6.839   3.124   4.083
30931SOL     OW94625   6.990   6.735   3.447
30931SOL    HW194626   6.982   6.768   3.358
30931SOL    HW294627   6.950   6.802   3.502
30932SOL     OW94628  10.862  10.488   7.996
30932SOL    HW194629  10.829  10.403   7.969
30932SOL    HW294630  10.957  10.483   7.983
30933SOL     OW94631  10.495  12.626   2.779
30933SOL    HW194632  10.582  12.649   2.746
30933SOL    HW294633  10.451  12.586   2.705
30934SOL     OW94634   9.888   4.859   0.299
30934SOL    HW194635   9.825   4.794   0.267
30934SOL    HW294636   9.921   4.823   0.381
30935SOL     OW94637   0.882   6.790   5.474
30935SOL    HW194638   0.834   6.768   5.395
30935SOL    HW294639   0.824   6.848   5.523
30936SOL     OW94640  11.403  12.114   6.262
30936SOL    HW194641  11.468  12.139   6.327
30936SOL    HW294642  11.377  12.025   6.287
30937SOL     OW94643   1.158   3.537   4.988
30937SOL    HW194644   1.127   3.569   4.903
30937SOL    HW294645   1.254   3.538   4.980
30938SOL     OW94646   3.215   7.922   9.956
30938SOL    HW194647   3.222   8.014   9.931
30938SOL    HW294648   3.171   7.924  10.041
30939SOL     OW94649  10.916  13.034   0.088
30939SOL    HW194650  10.927  12.939   0.097
30939SOL    HW294651  10.821  13.046   0.078
30940SOL     OW94652  12.295  14.742  10.125
30940SOL    HW194653  12.341  14.805  10.181
30940SOL    HW294654  12.350  14.663  10.128
30941SOL     OW94655  13.280  12.915   7.745
30941SOL    HW194656  13.294  12.856   7.819
30941SOL    HW294657  13.297  13.002   7.781
30942SOL     OW94658   2.862   5.281  14.287
30942SOL    HW194659   2.946   5.325  14.275
30942SOL    HW294660   2.879   5.190  14.265
30943SOL     OW94661   9.115   4.661  14.664
30943SOL    HW194662   9.061   4.720  14.611
30943SOL    HW294663   9.090   4.681  14.755
30944SOL     OW94664   9.283  11.749   9.692
30944SOL    HW194665   9.216  11.794   9.641
30944SOL    HW294666   9.259  11.656   9.687
30945SOL     OW94667   4.653   1.177   1.079
30945SOL    HW194668   4.713   1.251   1.077
30945SOL    HW294669   4.566   1.215   1.067
30946SOL     OW94670   6.340   7.956  13.453
30946SOL    HW194671   6.272   8.007  13.496
30946SOL    HW294672   6.419   8.010  13.460
30947SOL     OW94673   1.917   5.681   6.053
30947SOL    HW194674   1.912   5.613   5.986
30947SOL    HW294675   2.005   5.718   6.043
30948SOL     OW94676   6.056  11.778   0.389
30948SOL    HW194677   5.985  11.782   0.324
30948SOL    HW294678   6.119  11.717   0.352
30949SOL     OW94679  12.915  10.787   1.202
30949SOL    HW194680  12.871  10.702   1.199
30949SOL    HW294681  12.850  10.847   1.238
30950SOL     OW94682   0.751   5.539  13.237
30950SOL    HW194683   0.787   5.617  13.195
30950SOL    HW294684   0.698   5.572  13.309
30951SOL     OW94685   7.012   9.694  12.001
30951SOL    HW194686   6.998   9.656  11.914
30951SOL    HW294687   6.923   9.710  12.034
30952SOL     OW94688   0.009  12.217  11.635
30952SOL    HW194689  14.798  12.264  11.641
30952SOL    HW294690   0.073  12.286  11.618
30953SOL     OW94691   3.654  12.542   9.793
30953SOL    HW194692   3.628  12.590   9.871
30953SOL    HW294693   3.617  12.593   9.720
30954SOL     OW94694   2.579  10.948   3.555
30954SOL    HW194695   2.651  11.002   3.588
30954SOL    HW294696   2.510  11.010   3.533
30955SOL     OW94697   3.329  14.656   3.951
30955SOL    HW194698   3.341  14.673   3.858
30955SOL    HW294699   3.391  14.714   3.994
30956SOL     OW94700   4.369   1.263   6.453
30956SOL    HW194701   4.353   1.256   6.359
30956SOL    HW294702   4.407   1.349   6.465
30957SOL     OW94703   8.462   8.982   8.561
30957SOL    HW194704   8.456   8.899   8.514
30957SOL    HW294705   8.547   8.978   8.606
30958SOL     OW94706   9.102   4.975   1.436
30958SOL    HW194707   9.041   5.043   1.407
30958SOL    HW294708   9.117   4.922   1.358
30959SOL     OW94709  13.122   1.182   1.426
30959SOL    HW194710  13.215   1.163   1.438
30959SOL    HW294711  13.100   1.239   1.499
30960SOL     OW94712   7.085   1.091  12.210
30960SOL    HW194713   7.150   1.051  12.151
30960SOL    HW294714   7.018   1.126  12.151
30961SOL     OW94715   5.272   6.468  13.085
30961SOL    HW194716   5.366   6.479  13.096
30961SOL    HW294717   5.262   6.377  13.057
30962SOL     OW94718   9.801  10.868   9.914
30962SOL    HW194719   9.889  10.833   9.925
30962SOL    HW294720   9.809  10.961   9.937
30963SOL     OW94721   3.862  11.336   6.183
30963SOL    HW194722   3.891  11.247   6.203
30963SOL    HW294723   3.880  11.386   6.262
30964SOL     OW94724   6.024   4.391   0.841
30964SOL    HW194725   5.942   4.345   0.860
30964SOL    HW294726   6.038   4.446   0.918
30965SOL     OW94727  10.830   2.725   3.572
30965SOL    HW194728  10.768   2.792   3.544
30965SOL    HW294729  10.907   2.739   3.517
30966SOL     OW94730   8.389   0.186   9.623
30966SOL    HW194731   8.474   0.218   9.653
30966SOL    HW294732   8.401   0.091   9.613
30967SOL     OW94733   1.577  10.149   9.881
30967SOL    HW194734   1.602  10.137   9.973
30967SOL    HW294735   1.598  10.240   9.862
30968SOL     OW94736  13.775  13.772  10.425
30968SOL    HW194737  13.736  13.840  10.480
30968SOL    HW294738  13.869  13.775  10.446
30969SOL     OW94739   9.513   8.868   4.801
30969SOL    HW194740   9.502   8.815   4.723
30969SOL    HW294741   9.547   8.807   4.867
30970SOL     OW94742   2.287   4.397   8.406
30970SOL    HW194743   2.365   4.450   8.388
30970SOL    HW294744   2.241   4.445   8.474
30971SOL     OW94745   5.299  13.814  14.367
30971SOL    HW194746   5.258  13.727  14.362
30971SOL    HW294747   5.389  13.797  14.395
30972SOL     OW94748   2.436   4.057   2.897
30972SOL    HW194749   2.496   4.131   2.885
30972SOL    HW294750   2.360   4.079   2.844
30973SOL     OW94751   0.532   8.691   2.955
30973SOL    HW194752   0.618   8.696   2.913
30973SOL    HW294753   0.512   8.781   2.979
30974SOL     OW94754   8.408  11.548   0.577
30974SOL    HW194755   8.371  11.627   0.617
30974SOL    HW294756   8.379  11.552   0.486
30975SOL     OW94757  14.700   8.224   5.845
30975SOL    HW194758  14.790   8.248   5.823
30975SOL    HW294759  14.705   8.192   5.935
30976SOL     OW94760   0.372   1.700   4.315
30976SOL    HW194761   0.358   1.635   4.384
30976SOL    HW294762   0.368   1.784   4.361
30977SOL     OW94763   9.637   9.813   4.568
30977SOL    HW194764   9.691   9.829   4.491
30977SOL    HW294765   9.673   9.732   4.605
30978SOL     OW94766   0.309   5.159   8.486
30978SOL    HW194767   0.312   5.230   8.423
30978SOL    HW294768   0.222   5.120   8.474
30979SOL     OW94769   6.727   2.693   6.554
30979SOL    HW194770   6.765   2.671   6.639
30979SOL    HW294771   6.753   2.621   6.497
30980SOL     OW94772  14.068   8.658   6.136
30980SOL    HW194773  14.007   8.662   6.210
30980SOL    HW294774  14.016   8.623   6.064
30981SOL     OW94775  10.471  14.316   5.158
30981SOL    HW194776  10.439  14.243   5.211
30981SOL    HW294777  10.423  14.308   5.075
30982SOL     OW94778   2.815  11.530   2.660
30982SOL    HW194779   2.810  11.446   2.705
30982SOL    HW294780   2.902  11.564   2.682
30983SOL     OW94781  13.046  12.553  11.350
30983SOL    HW194782  13.109  12.573  11.419
30983SOL    HW294783  12.964  12.536  11.396
30984SOL     OW94784   1.814  10.849  12.059
30984SOL    HW194785   1.768  10.912  12.004
30984SOL    HW294786   1.856  10.902  12.127
30985SOL     OW94787   4.267   0.229   3.336
30985SOL    HW194788   4.255   0.248   3.243
30985SOL    HW294789   4.341   0.168   3.339
30986SOL     OW94790  11.662   5.507   8.685
30986SOL    HW194791  11.746   5.463   8.703
30986SOL    HW294792  11.685   5.599   8.673
30987SOL     OW94793   6.632  11.887   3.716
30987SOL    HW194794   6.703  11.826   3.700
30987SOL    HW294795   6.575  11.879   3.640
30988SOL     OW94796   9.540   8.768   9.188
30988SOL    HW194797   9.556   8.752   9.095
30988SOL    HW294798   9.529   8.681   9.226
30989SOL     OW94799   9.061   6.456  12.078
30989SOL    HW194800   9.105   6.456  12.163
30989SOL    HW294801   8.991   6.521  12.088
30990SOL     OW94802   3.797   5.091   9.448
30990SOL    HW194803   3.739   5.021   9.478
30990SOL    HW294804   3.841   5.055   9.371
30991SOL     OW94805  13.862  10.542   8.105
30991SOL    HW194806  13.948  10.585   8.105
30991SOL    HW294807  13.834  10.544   8.196
30992SOL     OW94808   3.666  14.612   3.834
30992SOL    HW194809   3.672  14.578   3.745
30992SOL    HW294810   3.632  14.539   3.885
30993SOL     OW94811   7.705   6.138   0.406
30993SOL    HW194812   7.689   6.127   0.499
30993SOL    HW294813   7.676   6.055   0.367
30994SOL     OW94814   6.536   3.087  12.984
30994SOL    HW194815   6.481   3.146  12.933
30994SOL    HW294816   6.614   3.075  12.930
30995SOL     OW94817   2.246  10.846   8.575
30995SOL    HW194818   2.188  10.910   8.616
30995SOL    HW294819   2.212  10.836   8.486
30996SOL     OW94820   3.309   8.377  12.484
30996SOL    HW194821   3.396   8.416  12.494
30996SOL    HW294822   3.306   8.308  12.550
30997SOL     OW94823   7.369  13.204   4.161
30997SOL    HW194824   7.367  13.247   4.075
30997SOL    HW294825   7.462  13.190   4.178
30998SOL     OW94826  12.246  11.957  12.228
30998SOL    HW194827  12.193  12.012  12.286
30998SOL    HW294828  12.323  12.010  12.209
30999SOL     OW94829   5.980   6.151   4.400
30999SOL    HW194830   5.918   6.111   4.461
30999SOL    HW294831   6.066   6.132   4.438
31000SOL     OW94832   4.530  10.227   5.336
31000SOL    HW194833   4.524  10.204   5.244
31000SOL    HW294834   4.566  10.149   5.379
31001SOL     OW94835   1.536  10.573  13.332
31001SOL    HW194836   1.512  10.541  13.245
31001SOL    HW294837   1.477  10.526  13.391
31002SOL     OW94838   8.964   8.637   0.055
31002SOL    HW194839   9.032   8.623   0.121
31002SOL    HW294840   8.919   8.717   0.085
31003SOL     OW94841  13.230   2.645  14.388
31003SOL    HW194842  13.249   2.697  14.467
31003SOL    HW294843  13.311   2.597  14.371
31004SOL     OW94844  13.941   4.139  14.163
31004SOL    HW194845  13.940   4.164  14.070
31004SOL    HW294846  14.025   4.170  14.195
31005SOL     OW94847  12.563   4.667   6.800
31005SOL    HW194848  12.626   4.649   6.870
31005SOL    HW294849  12.477   4.652   6.841
31006SOL     OW94850  12.348  13.094   7.609
31006SOL    HW194851  12.440  13.071   7.594
31006SOL    HW294852  12.310  13.099   7.522
31007SOL     OW94853   4.890   1.400   2.196
31007SOL    HW194854   4.857   1.319   2.234
31007SOL    HW294855   4.882   1.465   2.266
31008SOL     OW94856  12.134   5.912   7.413
31008SOL    HW194857  12.149   5.990   7.467
31008SOL    HW294858  12.055   5.873   7.450
31009SOL     OW94859  11.244   8.076  14.186
31009SOL    HW194860  11.316   8.139  14.179
31009SOL    HW294861  11.203   8.096  14.270
31010SOL     OW94862   8.701   6.258  12.242
31010SOL    HW194863   8.692   6.345  12.281
31010SOL    HW294864   8.705   6.273  12.148
31011SOL     OW94865  14.391  14.014   1.012
31011SOL    HW194866  14.420  14.055   1.093
31011SOL    HW294867  14.471  13.977   0.974
31012SOL     OW94868  13.681   0.649  12.676
31012SOL    HW194869  13.726   0.729  12.649
31012SOL    HW294870  13.685   0.591  12.600
31013SOL     OW94871   1.396   1.911   8.193
31013SOL    HW194872   1.316   1.928   8.242
31013SOL    HW294873   1.399   1.979   8.127
31014SOL     OW94874   2.260   7.677   2.738
31014SOL    HW194875   2.341   7.716   2.770
31014SOL    HW294876   2.266   7.585   2.762
31015SOL     OW94877  10.855   6.420   3.662
31015SOL    HW194878  10.876   6.475   3.738
31015SOL    HW294879  10.784   6.467   3.618
31016SOL     OW94880   2.771   4.141  14.529
31016SOL    HW194881   2.770   4.180  14.441
31016SOL    HW294882   2.685   4.160  14.565
31017SOL     OW94883   3.364   9.088   5.461
31017SOL    HW194884   3.457   9.075   5.478
31017SOL    HW294885   3.340   9.017   5.401
31018SOL     OW94886   2.088  11.706   3.719
31018SOL    HW194887   2.161  11.724   3.779
31018SOL    HW294888   2.012  11.697   3.776
31019SOL     OW94889  12.284  13.865   6.677
31019SOL    HW194890  12.239  13.940   6.715
31019SOL    HW294891  12.216  13.817   6.630
31020SOL     OW94892  12.239   2.994  11.700
31020SOL    HW194893  12.182   3.000  11.623
31020SOL    HW294894  12.210   3.066  11.756
31021SOL     OW94895   4.781  11.565  12.981
31021SOL    HW194896   4.704  11.508  12.982
31021SOL    HW294897   4.749  11.649  12.949
31022SOL     OW94898  14.756  14.398  12.659
31022SOL    HW194899  14.794  14.454  12.593
31022SOL    HW294900  14.802  14.314  12.649
31023SOL     OW94901   3.275  10.415   2.921
31023SOL    HW194902   3.234  10.375   2.845
31023SOL    HW294903   3.363  10.439   2.891
31024SOL     OW94904  11.719  11.951   1.488
31024SOL    HW194905  11.624  11.954   1.476
31024SOL    HW294906  11.750  11.898   1.415
31025SOL     OW94907   4.448   7.823   5.774
31025SOL    HW194908   4.417   7.741   5.736
31025SOL    HW294909   4.442   7.810   5.868
31026SOL     OW94910  12.987  11.956   5.529
31026SOL    HW194911  12.929  11.990   5.596
31026SOL    HW294912  12.987  11.861   5.543
31027SOL     OW94913   2.527   3.731   3.829
31027SOL    HW194914   2.536   3.650   3.879
31027SOL    HW294915   2.453   3.715   3.770
31028SOL     OW94916   2.338  10.624   9.868
31028SOL    HW194917   2.300  10.564   9.803
31028SOL    HW294918   2.289  10.605   9.949
31029SOL     OW94919  14.634   2.543   3.606
31029SOL    HW194920  14.591   2.461   3.581
31029SOL    HW294921  14.712   2.547   3.550
31030SOL     OW94922   6.566  14.017   2.566
31030SOL    HW194923   6.597  14.076   2.497
31030SOL    HW294924   6.636  13.953   2.576
31031SOL     OW94925  11.446   1.164   3.470
31031SOL    HW194926  11.429   1.246   3.423
31031SOL    HW294927  11.417   1.181   3.559
31032SOL     OW94928   7.011   4.246  13.885
31032SOL    HW194929   7.058   4.268  13.805
31032SOL    HW294930   6.989   4.330  13.924
31033SOL     OW94931   4.741   7.815   9.414
31033SOL    HW194932   4.711   7.781   9.499
31033SOL    HW294933   4.709   7.752   9.350
31034SOL     OW94934   8.779   3.282  14.717
31034SOL    HW194935   8.872   3.293  14.739
31034SOL    HW294936   8.734   3.347  14.771
31035SOL     OW94937   2.577   8.969  13.567
31035SOL    HW194938   2.544   8.896  13.516
31035SOL    HW294939   2.499   9.009  13.605
31036SOL     OW94940  10.372   7.075  14.557
31036SOL    HW194941  10.388   7.138  14.627
31036SOL    HW294942  10.435   7.100  14.489
31037SOL     OW94943  10.872   9.972   2.112
31037SOL    HW194944  10.860   9.914   2.037
31037SOL    HW294945  10.955  10.015   2.095
31038SOL     OW94946   8.738   9.704  14.797
31038SOL    HW194947   8.660   9.674  14.843
31038SOL    HW294948   8.704   9.756  14.724
31039SOL     OW94949   3.486   6.415   6.194
31039SOL    HW194950   3.449   6.380   6.275
31039SOL    HW294951   3.444   6.500   6.182
31040SOL     OW94952   2.573   9.871   5.262
31040SOL    HW194953   2.572   9.776   5.252
31040SOL    HW294954   2.652   9.889   5.313
31041SOL     OW94955   0.127   4.106  11.462
31041SOL    HW194956   0.073   4.179  11.492
31041SOL    HW294957   0.070   4.029  11.470
31042SOL     OW94958   8.677   2.754   1.017
31042SOL    HW194959   8.679   2.798   1.102
31042SOL    HW294960   8.614   2.683   1.028
31043SOL     OW94961   0.429   2.558  13.075
31043SOL    HW194962   0.434   2.527  13.166
31043SOL    HW294963   0.434   2.653  13.082
31044SOL     OW94964  13.289   4.937  14.527
31044SOL    HW194965  13.308   4.875  14.456
31044SOL    HW294966  13.196   4.925  14.544
31045SOL     OW94967  13.290   4.211  12.352
31045SOL    HW194968  13.309   4.259  12.432
31045SOL    HW294969  13.375   4.194  12.312
31046SOL     OW94970   2.316   0.437   8.078
31046SOL    HW194971   2.274   0.519   8.104
31046SOL    HW294972   2.246   0.372   8.081
31047SOL     OW94973  10.430   0.159   7.152
31047SOL    HW194974  10.493   0.202   7.210
31047SOL    HW294975  10.425   0.217   7.076
31048SOL     OW94976  11.773  12.122  13.784
31048SOL    HW194977  11.768  12.027  13.790
31048SOL    HW294978  11.861  12.143  13.814
31049SOL     OW94979   9.812   3.529   9.650
31049SOL    HW194980   9.822   3.622   9.674
31049SOL    HW294981   9.740   3.498   9.704
31050SOL     OW94982   4.270   8.710   0.263
31050SOL    HW194983   4.305   8.797   0.280
31050SOL    HW294984   4.348   8.654   0.259
31051SOL     OW94985   5.531  13.660   4.597
31051SOL    HW194986   5.584  13.617   4.530
31051SOL    HW294987   5.590  13.669   4.672
31052SOL     OW94988   5.014   6.158  10.968
31052SOL    HW194989   5.010   6.165  11.063
31052SOL    HW294990   4.923   6.165  10.939
31053SOL     OW94991  12.745  10.957   5.171
31053SOL    HW194992  12.810  10.970   5.102
31053SOL    HW294993  12.758  10.866   5.198
31054SOL     OW94994  10.459   5.650   8.801
31054SOL    HW194995  10.420   5.563   8.815
31054SOL    HW294996  10.552   5.632   8.788
31055SOL     OW94997  13.109   0.016  13.722
31055SOL    HW194998  13.019  14.865  13.700
31055SOL    HW294999  13.103   0.052  13.810
31056SOL     OW95000   8.271   2.172   2.074
31056SOL    HW195001   8.200   2.115   2.101
31056SOL    HW295002   8.348   2.140   2.121
31057SOL     OW95003   7.613   2.665   8.191
31057SOL    HW195004   7.565   2.615   8.125
31057SOL    HW295005   7.685   2.706   8.142
31058SOL     OW95006   5.074  10.537   1.234
31058SOL    HW195007   5.056  10.482   1.310
31058SOL    HW295008   5.145  10.594   1.263
31059SOL     OW95009   2.890   0.532  12.013
31059SOL    HW195010   2.883   0.541  11.918
31059SOL    HW295011   2.984   0.532  12.030
31060SOL     OW95012  11.531  12.540   2.504
31060SOL    HW195013  11.528  12.623   2.455
31060SOL    HW295014  11.580  12.562   2.583
31061SOL     OW95015   2.642   2.051   9.758
31061SOL    HW195016   2.576   2.005   9.706
31061SOL    HW295017   2.723   2.004   9.741
31062SOL     OW95018   9.843  11.473   2.442
31062SOL    HW195019   9.856  11.381   2.465
31062SOL    HW295020   9.776  11.503   2.502
31063SOL     OW95021  11.045  10.548   7.671
31063SOL    HW195022  11.038  10.574   7.579
31063SOL    HW295023  10.989  10.470   7.678
31064SOL     OW95024   5.155   0.137  11.137
31064SOL    HW195025   5.230   0.102  11.185
31064SOL    HW295026   5.089   0.068  11.141
31065SOL     OW95027   2.418   3.276   9.808
31065SOL    HW195028   2.493   3.231   9.768
31065SOL    HW295029   2.349   3.210   9.810
31066SOL     OW95030   5.673  11.427   5.116
31066SOL    HW195031   5.747  11.430   5.176
31066SOL    HW295032   5.596  11.419   5.173
31067SOL     OW95033   0.903  10.152   9.011
31067SOL    HW195034   0.912  10.113   8.923
31067SOL    HW295035   0.980  10.207   9.021
31068SOL     OW95036  13.648   8.469   5.303
31068SOL    HW195037  13.622   8.394   5.249
31068SOL    HW295038  13.726   8.439   5.350
31069SOL     OW95039   9.859  11.187   7.090
31069SOL    HW195040   9.916  11.257   7.123
31069SOL    HW295041   9.914  11.138   7.029
31070SOL     OW95042  10.173   3.990   1.131
31070SOL    HW195043  10.160   3.980   1.226
31070SOL    HW295044  10.154   3.904   1.095
31071SOL     OW95045   3.396   9.205  11.462
31071SOL    HW195046   3.315   9.214  11.512
31071SOL    HW295047   3.382   9.128  11.407
31072SOL     OW95048   4.423  14.828   3.611
31072SOL    HW195049   4.426  14.847   3.517
31072SOL    HW295050   4.373   0.027   3.649
31073SOL     OW95051   4.582   5.666  12.549
31073SOL    HW195052   4.490   5.682  12.568
31073SOL    HW295053   4.582   5.584  12.499
31074SOL     OW95054   7.487   8.655  13.937
31074SOL    HW195055   7.508   8.603  13.858
31074SOL    HW295056   7.431   8.725  13.905
31075SOL     OW95057   0.023   9.789   3.410
31075SOL    HW195058   0.117   9.805   3.408
31075SOL    HW295059  14.867   9.807   3.320
31076SOL     OW95060   0.151   5.544   4.543
31076SOL    HW195061   0.095   5.528   4.467
31076SOL    HW295062   0.097   5.599   4.601
31077SOL     OW95063  12.618  11.212   0.787
31077SOL    HW195064  12.615  11.267   0.865
31077SOL    HW295065  12.710  11.208   0.764
31078SOL     OW95066  10.303   2.543  12.122
31078SOL    HW195067  10.358   2.588  12.186
31078SOL    HW295068  10.331   2.451  12.127
31079SOL     OW95069  13.461  12.788   8.540
31079SOL    HW195070  13.395  12.759   8.602
31079SOL    HW295071  13.544  12.757   8.576
31080SOL     OW95072   8.692  12.324   1.667
31080SOL    HW195073   8.766  12.293   1.719
31080SOL    HW295074   8.683  12.259   1.597
31081SOL     OW95075  10.634  14.581   1.719
31081SOL    HW195076  10.601  14.511   1.663
31081SOL    HW295077  10.718  14.548   1.752
31082SOL     OW95078  11.598  14.858   7.535
31082SOL    HW195079  11.529  14.804   7.496
31082SOL    HW295080  11.674  14.844   7.478
31083SOL     OW95081  10.606   9.612   7.314
31083SOL    HW195082  10.538   9.594   7.249
31083SOL    HW295083  10.559   9.615   7.397
31084SOL     OW95084  12.610   5.652   0.536
31084SOL    HW195085  12.689   5.654   0.590
31084SOL    HW295086  12.544   5.697   0.590
31085SOL     OW95087  10.000  11.209   7.842
31085SOL    HW195088  10.094  11.222   7.831
31085SOL    HW295089   9.992  11.156   7.922
31086SOL     OW95090  13.815  10.737  10.329
31086SOL    HW195091  13.741  10.726  10.269
31086SOL    HW295092  13.892  10.716  10.275
31087SOL     OW95093   1.576   1.770   0.768
31087SOL    HW195094   1.622   1.759   0.684
31087SOL    HW295095   1.591   1.688   0.814
31088SOL     OW95096  13.182  14.803  14.212
31088SOL    HW195097  13.223   0.001  14.262
31088SOL    HW295098  13.122  14.761  14.274
31089SOL     OW95099  13.503  10.485   0.688
31089SOL    HW195100  13.566  10.495   0.616
31089SOL    HW295101  13.542  10.420   0.746
31090SOL     OW95102   2.548   9.216  12.436
31090SOL    HW195103   2.524   9.174  12.353
31090SOL    HW295104   2.641   9.237  12.426
31091SOL     OW95105   3.240   1.619   0.320
31091SOL    HW195106   3.154   1.650   0.293
31091SOL    HW295107   3.272   1.566   0.247
31092SOL     OW95108   6.127   5.267  10.582
31092SOL    HW195109   6.222   5.271  10.584
31092SOL    HW295110   6.098   5.358  10.581
31093SOL     OW95111   5.180  13.793   1.836
31093SOL    HW195112   5.238  13.743   1.894
31093SOL    HW295113   5.201  13.761   1.748
31094SOL     OW95114  10.547  12.514  12.021
31094SOL    HW195115  10.539  12.421  12.042
31094SOL    HW295116  10.641  12.531  12.022
31095SOL     OW95117   1.547  12.936  13.312
31095SOL    HW195118   1.484  12.932  13.241
31095SOL    HW295119   1.596  12.854  13.306
31096SOL     OW95120   7.031   3.222   3.352
31096SOL    HW195121   7.053   3.305   3.395
31096SOL    HW295122   6.935   3.223   3.345
31097SOL     OW95123   1.791   2.166   2.271
31097SOL    HW195124   1.876   2.124   2.283
31097SOL    HW295125   1.763   2.190   2.360
31098SOL     OW95126  10.968   0.459   4.534
31098SOL    HW195127  11.007   0.433   4.617
31098SOL    HW295128  10.947   0.552   4.545
31099SOL     OW95129   3.833   1.558   6.839
31099SOL    HW195130   3.750   1.528   6.803
31099SOL    HW295131   3.809   1.630   6.897
31100SOL     OW95132   0.589  10.774   7.747
31100SOL    HW195133   0.577  10.822   7.828
31100SOL    HW295134   0.560  10.685   7.767
31101SOL     OW95135   1.699   8.155  12.739
31101SOL    HW195136   1.637   8.115  12.800
31101SOL    HW295137   1.783   8.113  12.759
31102SOL     OW95138   2.348   2.688  12.476
31102SOL    HW195139   2.388   2.607  12.507
31102SOL    HW295140   2.387   2.757  12.529
31103SOL     OW95141   2.758   3.665  13.061
31103SOL    HW195142   2.691   3.710  13.112
31103SOL    HW295143   2.729   3.574  13.057
31104SOL     OW95144  14.099   7.160  10.441
31104SOL    HW195145  14.154   7.143  10.365
31104SOL    HW295146  14.099   7.078  10.490
31105SOL     OW95147   9.531   7.620   1.395
31105SOL    HW195148   9.475   7.557   1.351
31105SOL    HW295149   9.596   7.645   1.329
31106SOL     OW95150   6.352   7.101  12.064
31106SOL    HW195151   6.320   7.166  12.126
31106SOL    HW295152   6.427   7.061  12.107
31107SOL     OW95153  10.340  10.692   3.163
31107SOL    HW195154  10.293  10.624   3.115
31107SOL    HW295155  10.431  10.682   3.137
31108SOL     OW95156  11.336  14.163  11.340
31108SOL    HW195157  11.337  14.142  11.434
31108SOL    HW295158  11.288  14.246  11.335
31109SOL     OW95159  12.464  13.277  10.968
31109SOL    HW195160  12.505  13.289  10.882
31109SOL    HW295161  12.370  13.274  10.950
31110SOL     OW95162   6.830  13.457  10.904
31110SOL    HW195163   6.868  13.373  10.880
31110SOL    HW295164   6.744  13.457  10.862
31111SOL     OW95165   4.192   9.449   4.484
31111SOL    HW195166   4.110   9.405   4.464
31111SOL    HW295167   4.258   9.402   4.434
31112SOL     OW95168   1.622  13.882  10.801
31112SOL    HW195169   1.527  13.875  10.801
31112SOL    HW295170   1.642  13.945  10.732
31113SOL     OW95171   2.609  10.894   0.767
31113SOL    HW195172   2.554  10.972   0.767
31113SOL    HW295173   2.623  10.875   0.860
31114SOL     OW95174   3.067  11.665  13.791
31114SOL    HW195175   3.089  11.675  13.698
31114SOL    HW295176   3.131  11.602  13.824
31115SOL     OW95177  12.953  11.696  13.176
31115SOL    HW195178  12.908  11.612  13.165
31115SOL    HW295179  12.884  11.756  13.204
31116SOL     OW95180  12.487   3.150   1.631
31116SOL    HW195181  12.487   3.154   1.727
31116SOL    HW295182  12.475   3.241   1.603
31117SOL     OW95183  10.382   0.528   8.031
31117SOL    HW195184  10.475   0.544   8.046
31117SOL    HW295185  10.364   0.572   7.948
31118SOL     OW95186  13.111  12.712   8.414
31118SOL    HW195187  13.063  12.746   8.489
31118SOL    HW295188  13.082  12.765   8.340
31119SOL     OW95189   1.734  12.216  10.102
31119SOL    HW195190   1.747  12.270  10.024
31119SOL    HW295191   1.780  12.134  10.082
31120SOL     OW95192   3.744   9.274  14.714
31120SOL    HW195193   3.668   9.332  14.718
31120SOL    HW295194   3.711   9.192  14.679
31121SOL     OW95195  12.564   2.615   8.414
31121SOL    HW195196  12.611   2.550   8.465
31121SOL    HW295197  12.472   2.592   8.425
31122SOL     OW95198   2.579  11.459   9.411
31122SOL    HW195199   2.556  11.543   9.450
31122SOL    HW295200   2.505  11.402   9.430
31123SOL     OW95201  13.480   3.975   2.393
31123SOL    HW195202  13.539   4.029   2.445
31123SOL    HW295203  13.537   3.910   2.351
31124SOL     OW95204   8.031   4.139   1.154
31124SOL    HW195205   8.028   4.140   1.058
31124SOL    HW295206   7.964   4.076   1.180
31125SOL     OW95207   1.318   8.416   1.602
31125SOL    HW195208   1.246   8.441   1.543
31125SOL    HW295209   1.348   8.498   1.640
31126SOL     OW95210   6.437  11.679  11.804
31126SOL    HW195211   6.368  11.613  11.806
31126SOL    HW295212   6.457  11.689  11.711
31127SOL     OW95213   0.816   5.847  11.327
31127SOL    HW195214   0.861   5.899  11.392
31127SOL    HW295215   0.885   5.819  11.266
31128SOL     OW95216   2.592  11.331   1.536
31128SOL    HW195217   2.642  11.252   1.554
31128SOL    HW295218   2.605  11.386   1.614
31129SOL     OW95219   2.875   5.185   1.826
31129SOL    HW195220   2.797   5.167   1.878
31129SOL    HW295221   2.892   5.278   1.840
31130SOL     OW95222   4.604  13.836   7.686
31130SOL    HW195223   4.612  13.886   7.767
31130SOL    HW295224   4.510  13.836   7.667
31131SOL     OW95225   0.781   5.331  13.636
31131SOL    HW195226   0.794   5.303  13.545
31131SOL    HW295227   0.737   5.416  13.629
31132SOL     OW95228   3.983  14.313   7.824
31132SOL    HW195229   3.900  14.356   7.803
31132SOL    HW295230   4.050  14.380   7.806
31133SOL     OW95231  13.806   6.737   5.514
31133SOL    HW195232  13.846   6.744   5.601
31133SOL    HW295233  13.726   6.687   5.529
31134SOL     OW95234  10.820   4.741   9.024
31134SOL    HW195235  10.756   4.744   9.095
31134SOL    HW295236  10.832   4.647   9.006
31135SOL     OW95237  11.507  12.650  11.399
31135SOL    HW195238  11.456  12.600  11.462
31135SOL    HW295239  11.462  12.637  11.315
31136SOL     OW95240  12.478   3.133   8.618
31136SOL    HW195241  12.443   3.213   8.658
31136SOL    HW295242  12.452   3.063   8.678
31137SOL     OW95243   2.342  11.826  12.199
31137SOL    HW195244   2.285  11.751  12.184
31137SOL    HW295245   2.431  11.792  12.188
31138SOL     OW95246   9.853  13.485  12.859
31138SOL    HW195247   9.828  13.395  12.879
31138SOL    HW295248   9.774  13.524  12.822
31139SOL     OW95249   2.420  10.356   9.347
31139SOL    HW195250   2.444  10.311   9.428
31139SOL    HW295251   2.499  10.402   9.321
31140SOL     OW95252   4.845  10.579   7.293
31140SOL    HW195253   4.811  10.573   7.382
31140SOL    HW295254   4.889  10.664   7.290
31141SOL     OW95255   7.205   8.553   8.772
31141SOL    HW195256   7.276   8.598   8.727
31141SOL    HW295257   7.203   8.465   8.734
31142SOL     OW95258  14.364  12.638   0.188
31142SOL    HW195259  14.412  12.688   0.254
31142SOL    HW295260  14.276  12.677   0.189
31143SOL     OW95261   6.394  12.537   8.251
31143SOL    HW195262   6.368  12.578   8.168
31143SOL    HW295263   6.388  12.608   8.315
31144SOL     OW95264   9.010  11.069   8.843
31144SOL    HW195265   9.049  11.128   8.908
31144SOL    HW295266   8.917  11.066   8.867
31145SOL     OW95267   1.118  14.314  10.792
31145SOL    HW195268   1.047  14.357  10.839
31145SOL    HW295269   1.121  14.225  10.828
31146SOL     OW95270   4.773   2.567   9.005
31146SOL    HW195271   4.808   2.654   9.027
31146SOL    HW295272   4.820   2.543   8.925
31147SOL     OW95273   7.054  13.083  10.432
31147SOL    HW195274   7.135  13.076  10.381
31147SOL    HW295275   6.988  13.040  10.378
31148SOL     OW95276  12.130  12.982   7.191
31148SOL    HW195277  12.178  12.986   7.108
31148SOL    HW295278  12.170  13.050   7.245
31149SOL     OW95279   5.782   8.719  11.300
31149SOL    HW195280   5.855   8.692  11.243
31149SOL    HW295281   5.710   8.737  11.240
31150SOL     OW95282   4.235  11.277   8.869
31150SOL    HW195283   4.178  11.328   8.926
31150SOL    HW295284   4.324  11.304   8.892
31151SOL     OW95285  13.608   8.447   0.288
31151SOL    HW195286  13.525   8.455   0.240
31151SOL    HW295287  13.663   8.393   0.232
31152SOL     OW95288   3.814   4.788  13.294
31152SOL    HW195289   3.810   4.875  13.334
31152SOL    HW295290   3.846   4.730  13.363
31153SOL     OW95291   6.346   9.568   8.307
31153SOL    HW195292   6.259   9.537   8.331
31153SOL    HW295293   6.362   9.643   8.364
31154SOL     OW95294   7.212  12.113   6.697
31154SOL    HW195295   7.302  12.088   6.678
31154SOL    HW295296   7.212  12.134   6.791
31155SOL     OW95297  14.239  10.226   0.566
31155SOL    HW195298  14.243  10.137   0.532
31155SOL    HW295299  14.328  10.259   0.557
31156SOL     OW95300   4.871   5.480   9.400
31156SOL    HW195301   4.807   5.422   9.440
31156SOL    HW295302   4.823   5.521   9.328
31157SOL     OW95303  14.503   2.596  10.165
31157SOL    HW195304  14.428   2.550  10.126
31157SOL    HW295305  14.504   2.567  10.256
31158SOL     OW95306  11.187   5.697  14.702
31158SOL    HW195307  11.213   5.789  14.706
31158SOL    HW295308  11.270   5.649  14.698
31159SOL     OW95309   1.558   9.101   9.090
31159SOL    HW195310   1.493   9.110   9.160
31159SOL    HW295311   1.569   9.190   9.056
31160SOL     OW95312  13.035   7.950   8.852
31160SOL    HW195313  13.051   8.007   8.927
31160SOL    HW295314  12.950   7.978   8.817
31161SOL     OW95315   1.893   0.466  10.025
31161SOL    HW195316   1.908   0.404   9.954
31161SOL    HW295317   1.820   0.520   9.995
31162SOL     OW95318  14.497   1.567  14.102
31162SOL    HW195319  14.534   1.617  14.028
31162SOL    HW295320  14.555   1.492  14.111
31163SOL     OW95321  13.119   9.369  14.460
31163SOL    HW195322  13.046   9.314  14.432
31163SOL    HW295323  13.081   9.427  14.526
31164SOL     OW95324   3.071   9.728  12.498
31164SOL    HW195325   3.053   9.821  12.516
31164SOL    HW295326   3.147   9.730  12.439
31165SOL     OW95327  14.739   1.177   1.658
31165SOL    HW195328  14.658   1.214   1.693
31165SOL    HW295329  14.710   1.125   1.582
31166SOL     OW95330  12.172  10.360  12.089
31166SOL    HW195331  12.175  10.302  12.013
31166SOL    HW295332  12.088  10.405  12.082
31167SOL     OW95333   2.811  12.651   5.026
31167SOL    HW195334   2.866  12.636   5.103
31167SOL    HW295335   2.730  12.687   5.062
31168SOL     OW95336   2.053  12.500  14.682
31168SOL    HW195337   2.064  12.586  14.724
31168SOL    HW295338   1.963  12.502  14.649
31169SOL     OW95339   0.881   0.176   4.517
31169SOL    HW195340   0.842   0.103   4.470
31169SOL    HW295341   0.817   0.198   4.585
31170SOL     OW95342   1.495   2.399  12.286
31170SOL    HW195343   1.546   2.346  12.225
31170SOL    HW295344   1.407   2.402  12.248
31171SOL     OW95345   4.642   7.123   6.035
31171SOL    HW195346   4.567   7.182   6.030
31171SOL    HW295347   4.706   7.170   6.088
31172SOL     OW95348   6.512  13.878   1.925
31172SOL    HW195349   6.597  13.864   1.883
31172SOL    HW295350   6.462  13.929   1.861
31173SOL     OW95351   1.853   7.736   5.024
31173SOL    HW195352   1.898   7.727   4.940
31173SOL    HW295353   1.900   7.806   5.070
31174SOL     OW95354  14.188   2.034   5.218
31174SOL    HW195355  14.141   2.106   5.260
31174SOL    HW295356  14.245   1.999   5.286
31175SOL     OW95357   7.060  11.025  14.089
31175SOL    HW195358   7.049  10.996  14.180
31175SOL    HW295359   7.093  10.948  14.043
31176SOL     OW95360   9.595   7.214   5.143
31176SOL    HW195361   9.686   7.197   5.121
31176SOL    HW295362   9.598   7.286   5.207
31177SOL     OW95363   0.016  14.539   4.864
31177SOL    HW195364  14.869  14.611   4.804
31177SOL    HW295365  14.804  14.495   4.876
31178SOL     OW95366   4.756   9.402   2.485
31178SOL    HW195367   4.829   9.349   2.452
31178SOL    HW295368   4.785   9.430   2.572
31179SOL     OW95369  12.306  11.264   5.316
31179SOL    HW195370  12.219  11.226   5.315
31179SOL    HW295371  12.360  11.202   5.266
31180SOL     OW95372   6.645  14.303   8.343
31180SOL    HW195373   6.710  14.365   8.377
31180SOL    HW295374   6.683  14.217   8.363
31181SOL     OW95375   0.622   3.364  13.673
31181SOL    HW195376   0.634   3.425  13.746
31181SOL    HW295377   0.653   3.280  13.706
31182SOL     OW95378   7.828   9.435  10.101
31182SOL    HW195379   7.740   9.460  10.130
31182SOL    HW295380   7.812   9.377  10.027
31183SOL     OW95381  11.290   5.139   6.883
31183SOL    HW195382  11.317   5.203   6.949
31183SOL    HW295383  11.274   5.058   6.932
31184SOL     OW95384   4.435  11.071   9.889
31184SOL    HW195385   4.386  11.103   9.964
31184SOL    HW295386   4.464  10.983   9.914
31185SOL     OW95387   7.127   1.741  10.729
31185SOL    HW195388   7.163   1.826  10.701
31185SOL    HW295389   7.169   1.677  10.672
31186SOL     OW95390   7.624   5.015  12.621
31186SOL    HW195391   7.579   5.080  12.566
31186SOL    HW295392   7.716   5.023  12.596
31187SOL     OW95393   7.416   9.897   5.574
31187SOL    HW195394   7.457   9.943   5.648
31187SOL    HW295395   7.482   9.902   5.505
31188SOL     OW95396  11.308  10.190   4.153
31188SOL    HW195397  11.274  10.156   4.070
31188SOL    HW295398  11.242  10.164   4.218
31189SOL     OW95399   0.375   0.591   0.594
31189SOL    HW195400   0.459   0.544   0.594
31189SOL    HW295401   0.383   0.653   0.667
31190SOL     OW95402   0.962  14.860   8.971
31190SOL    HW195403   0.957   0.081   8.993
31190SOL    HW295404   0.970  14.858   8.876
31191SOL     OW95405   3.532  10.380   6.980
31191SOL    HW195406   3.571  10.419   6.902
31191SOL    HW295407   3.512  10.454   7.036
31192SOL     OW95408   0.460  14.737   2.752
31192SOL    HW195409   0.500  14.823   2.763
31192SOL    HW295410   0.446  14.705   2.841
31193SOL     OW95411   6.065   9.799   1.316
31193SOL    HW195412   6.062   9.894   1.314
31193SOL    HW295413   5.973   9.772   1.312
31194SOL     OW95414   0.409  13.916   9.754
31194SOL    HW195415   0.323  13.888   9.725
31194SOL    HW295416   0.392  13.979   9.824
31195SOL     OW95417  10.915   3.222   8.533
31195SOL    HW195418  10.929   3.301   8.482
31195SOL    HW295419  10.921   3.251   8.624
31196SOL     OW95420   7.369   8.433   8.249
31196SOL    HW195421   7.390   8.526   8.246
31196SOL    HW295422   7.445   8.392   8.290
31197SOL     OW95423   8.545   6.798   9.588
31197SOL    HW195424   8.482   6.729   9.570
31197SOL    HW295425   8.499   6.879   9.569
31198SOL     OW95426  11.664   9.370   6.843
31198SOL    HW195427  11.714   9.439   6.888
31198SOL    HW295428  11.602   9.338   6.909
31199SOL     OW95429   0.919  10.001   8.768
31199SOL    HW195430   1.009  10.033   8.761
31199SOL    HW295431   0.870  10.050   8.702
31200SOL     OW95432   0.777   0.685   7.521
31200SOL    HW195433   0.809   0.599   7.549
31200SOL    HW295434   0.831   0.707   7.444
31201SOL     OW95435  12.195   5.142   5.204
31201SOL    HW195436  12.137   5.074   5.171
31201SOL    HW295437  12.258   5.096   5.259
31202SOL     OW95438   2.630   7.588  12.296
31202SOL    HW195439   2.659   7.498  12.309
31202SOL    HW295440   2.693   7.641  12.345
31203SOL     OW95441  11.252  12.415   2.404
31203SOL    HW195442  11.206  12.470   2.341
31203SOL    HW295443  11.326  12.468   2.433
31204SOL     OW95444  10.966   5.645  11.534
31204SOL    HW195445  10.948   5.566  11.585
31204SOL    HW295446  11.058   5.664  11.552
31205SOL     OW95447   7.652   6.990   8.859
31205SOL    HW195448   7.697   7.045   8.923
31205SOL    HW295449   7.721   6.938   8.818
31206SOL     OW95450  14.699   4.896  14.250
31206SOL    HW195451  14.677   4.891  14.157
31206SOL    HW295452  14.614   4.902  14.295
31207SOL     OW95453  11.835   8.575   3.669
31207SOL    HW195454  11.794   8.650   3.714
31207SOL    HW295455  11.835   8.505   3.735
31208SOL     OW95456  11.209  11.510   5.630
31208SOL    HW195457  11.265  11.448   5.583
31208SOL    HW295458  11.134  11.524   5.571
31209SOL     OW95459  10.748   8.623   5.544
31209SOL    HW195460  10.706   8.576   5.616
31209SOL    HW295461  10.676   8.667   5.498
31210SOL     OW95462  14.385   5.766   7.120
31210SOL    HW195463  14.418   5.779   7.208
31210SOL    HW295464  14.445   5.703   7.081
31211SOL     OW95465   9.630   2.652  13.450
31211SOL    HW195466   9.650   2.624  13.361
31211SOL    HW295467   9.661   2.580  13.505
31212SOL     OW95468   7.772   7.376  13.565
31212SOL    HW195469   7.855   7.375  13.518
31212SOL    HW295470   7.792   7.417  13.649
31213SOL     OW95471  12.853  12.912   6.671
31213SOL    HW195472  12.858  12.994   6.719
31213SOL    HW295473  12.944  12.887   6.658
31214SOL     OW95474  12.862   0.862   8.646
31214SOL    HW195475  12.821   0.948   8.655
31214SOL    HW295476  12.834   0.830   8.560
31215SOL     OW95477  13.087  14.259   4.338
31215SOL    HW195478  13.142  14.200   4.388
31215SOL    HW295479  13.148  14.316   4.292
31216SOL     OW95480   6.473   0.777   9.894
31216SOL    HW195481   6.493   0.686   9.872
31216SOL    HW295482   6.551   0.825   9.867
31217SOL     OW95483   5.872   4.040  11.782
31217SOL    HW195484   5.820   4.110  11.821
31217SOL    HW295485   5.845   4.040  11.690
31218SOL     OW95486  11.471  13.211  14.520
31218SOL    HW195487  11.542  13.153  14.491
31218SOL    HW295488  11.397  13.153  14.534
31219SOL     OW95489  10.055  10.953   9.374
31219SOL    HW195490  10.044  10.958   9.469
31219SOL    HW295491  10.036  11.042   9.343
31220SOL     OW95492  13.261  12.463   2.419
31220SOL    HW195493  13.304  12.512   2.349
31220SOL    HW295494  13.236  12.529   2.483
31221SOL     OW95495  13.715   5.730   5.772
31221SOL    HW195496  13.683   5.651   5.816
31221SOL    HW295497  13.636   5.782   5.757
31222SOL     OW95498  12.982  10.165   8.493
31222SOL    HW195499  13.045  10.210   8.549
31222SOL    HW295500  12.918  10.127   8.553
31223SOL     OW95501   0.892   0.656   1.011
31223SOL    HW195502   0.967   0.707   0.982
31223SOL    HW295503   0.910   0.637   1.103
31224SOL     OW95504   1.612   0.484  12.473
31224SOL    HW195505   1.682   0.496  12.537
31224SOL    HW295506   1.554   0.419  12.512
31225SOL     OW95507  12.378  10.688   8.126
31225SOL    HW195508  12.372  10.769   8.076
31225SOL    HW295509  12.381  10.619   8.059
31226SOL     OW95510   1.990   9.735   6.093
31226SOL    HW195511   1.901   9.741   6.127
31226SOL    HW295512   2.008   9.641   6.090
31227SOL     OW95513   7.326   3.261   4.071
31227SOL    HW195514   7.289   3.342   4.036
31227SOL    HW295515   7.261   3.231   4.135
31228SOL     OW95516   9.833   3.103  11.518
31228SOL    HW195517   9.900   3.119  11.452
31228SOL    HW295518   9.861   3.023  11.562
31229SOL     OW95519   0.147   2.261  11.533
31229SOL    HW195520   0.070   2.231  11.581
31229SOL    HW295521   0.116   2.272  11.443
31230SOL     OW95522  10.322   7.908  12.951
31230SOL    HW195523  10.358   7.997  12.944
31230SOL    HW295524  10.228   7.921  12.938
31231SOL     OW95525  13.348   1.613  13.198
31231SOL    HW195526  13.284   1.684  13.204
31231SOL    HW295527  13.411   1.643  13.133
31232SOL     OW95528  11.069   0.873  13.604
31232SOL    HW195529  11.031   0.788  13.582
31232SOL    HW295530  11.101   0.863  13.693
31233SOL     OW95531   1.998   8.781   5.564
31233SOL    HW195532   1.925   8.719   5.553
31233SOL    HW295533   2.046   8.776   5.481
31234SOL     OW95534   6.839  10.348   2.841
31234SOL    HW195535   6.819  10.364   2.749
31234SOL    HW295536   6.753  10.337   2.882
31235SOL     OW95537   5.698   8.330   4.863
31235SOL    HW195538   5.610   8.292   4.872
31235SOL    HW295539   5.716   8.327   4.769
31236SOL     OW95540   4.543  11.885  14.114
31236SOL    HW195541   4.534  11.952  14.046
31236SOL    HW295542   4.464  11.894  14.167
31237SOL     OW95543   2.588  12.449   0.247
31237SOL    HW195544   2.635  12.375   0.287
31237SOL    HW295545   2.623  12.454   0.158
31238SOL     OW95546   7.856   3.040  14.782
31238SOL    HW195547   7.898   2.999  14.706
31238SOL    HW295548   7.795   2.975  14.814
31239SOL     OW95549   3.022  13.067   9.176
31239SOL    HW195550   3.013  13.159   9.199
31239SOL    HW295551   2.983  13.020   9.250
31240SOL     OW95552   3.545   9.269   9.841
31240SOL    HW195553   3.518   9.264   9.932
31240SOL    HW295554   3.574   9.359   9.829
31241SOL     OW95555   8.396  14.750   0.892
31241SOL    HW195556   8.485  14.745   0.856
31241SOL    HW295557   8.339  14.755   0.815
31242SOL     OW95558   0.731  10.871   7.544
31242SOL    HW195559   0.677  10.847   7.619
31242SOL    HW295560   0.757  10.788   7.505
31243SOL     OW95561   2.261   3.404  13.549
31243SOL    HW195562   2.181   3.398  13.601
31243SOL    HW295563   2.283   3.498  13.550
31244SOL     OW95564   8.893   8.175  10.881
31244SOL    HW195565   8.988   8.181  10.896
31244SOL    HW295566   8.883   8.201  10.789
31245SOL     OW95567  11.036   5.079  12.745
31245SOL    HW195568  11.128   5.053  12.756
31245SOL    HW295569  11.037   5.137  12.669
31246SOL     OW95570   0.110   2.550   2.899
31246SOL    HW195571   0.130   2.590   2.984
31246SOL    HW295572   0.030   2.499   2.914
31247SOL     OW95573   7.072  12.513   9.144
31247SOL    HW195574   7.127  12.474   9.076
31247SOL    HW295575   7.133  12.566   9.196
31248SOL     OW95576   5.581   6.980   0.870
31248SOL    HW195577   5.561   6.974   0.777
31248SOL    HW295578   5.642   6.908   0.886
31249SOL     OW95579   0.248   0.662   0.380
31249SOL    HW195580   0.266   0.642   0.472
31249SOL    HW295581   0.185   0.735   0.383
31250SOL     OW95582  10.451  12.073  10.220
31250SOL    HW195583  10.487  12.070  10.132
31250SOL    HW295584  10.522  12.109  10.274
31251SOL     OW95585   9.503   2.130   6.701
31251SOL    HW195586   9.519   2.205   6.758
31251SOL    HW295587   9.485   2.170   6.615
31252SOL     OW95588  11.574   4.596   1.560
31252SOL    HW195589  11.555   4.688   1.578
31252SOL    HW295590  11.669   4.593   1.548
31253SOL     OW95591   8.268  12.578   3.154
31253SOL    HW195592   8.227  12.508   3.104
31253SOL    HW295593   8.210  12.654   3.141
31254SOL     OW95594   2.500   6.670   8.520
31254SOL    HW195595   2.512   6.581   8.487
31254SOL    HW295596   2.521   6.665   8.613
31255SOL     OW95597   2.460  13.485   9.856
31255SOL    HW195598   2.383  13.527   9.818
31255SOL    HW295599   2.448  13.392   9.838
31256SOL     OW95600   7.721   8.637   1.358
31256SOL    HW195601   7.651   8.697   1.331
31256SOL    HW295602   7.702   8.618   1.450
31257SOL     OW95603   2.480   2.914   5.474
31257SOL    HW195604   2.511   2.998   5.508
31257SOL    HW295605   2.521   2.908   5.387
31258SOL     OW95606   2.994   5.142  12.216
31258SOL    HW195607   2.902   5.116  12.220
31258SOL    HW295608   3.032   5.111  12.298
31259SOL     OW95609   7.689   3.184   6.559
31259SOL    HW195610   7.723   3.254   6.504
31259SOL    HW295611   7.751   3.177   6.631
31260SOL     OW95612  10.282   8.394   0.147
31260SOL    HW195613  10.203   8.343   0.166
31260SOL    HW295614  10.276   8.470   0.204
31261SOL     OW95615   9.970   3.316   2.724
31261SOL    HW195616  10.043   3.374   2.745
31261SOL    HW295617   9.911   3.368   2.670
31262SOL     OW95618   9.401   9.949   1.207
31262SOL    HW195619   9.341  10.009   1.164
31262SOL    HW295620   9.466  10.006   1.248
31263SOL     OW95621   2.368   7.159   2.566
31263SOL    HW195622   2.420   7.120   2.496
31263SOL    HW295623   2.433   7.204   2.621
31264SOL     OW95624  12.863   7.191  10.812
31264SOL    HW195625  12.903   7.127  10.870
31264SOL    HW295626  12.895   7.168  10.725
31265SOL     OW95627  13.032   2.275   4.605
31265SOL    HW195628  13.054   2.356   4.651
31265SOL    HW295629  12.971   2.230   4.663
31266SOL     OW95630   2.725   6.176   9.331
31266SOL    HW195631   2.776   6.095   9.319
31266SOL    HW295632   2.790   6.246   9.326
31267SOL     OW95633  14.183  10.929  14.195
31267SOL    HW195634  14.132  11.005  14.168
31267SOL    HW295635  14.117  10.860  14.209
31268SOL     OW95636  13.233   9.256  11.134
31268SOL    HW195637  13.299   9.303  11.083
31268SOL    HW295638  13.251   9.163  11.117
31269SOL     OW95639   5.449   2.417   3.306
31269SOL    HW195640   5.370   2.381   3.267
31269SOL    HW295641   5.490   2.343   3.351
31270SOL     OW95642   2.302   6.160   1.729
31270SOL    HW195643   2.344   6.091   1.780
31270SOL    HW295644   2.220   6.121   1.699
31271SOL     OW95645   6.797  13.124   2.501
31271SOL    HW195646   6.797  13.068   2.578
31271SOL    HW295647   6.883  13.165   2.500
31272SOL     OW95648   2.747  13.320   8.939
31272SOL    HW195649   2.731  13.307   9.032
31272SOL    HW295650   2.699  13.401   8.918
31273SOL     OW95651   5.513   6.655   7.783
31273SOL    HW195652   5.524   6.736   7.734
31273SOL    HW295653   5.572   6.593   7.739
31274SOL     OW95654   0.077  10.366  11.577
31274SOL    HW195655   0.013  10.400  11.515
31274SOL    HW295656   0.058  10.411  11.659
31275SOL     OW95657   7.828   7.380   1.994
31275SOL    HW195658   7.755   7.329   2.030
31275SOL    HW295659   7.805   7.394   1.902
31276SOL     OW95660   9.922  14.477  11.449
31276SOL    HW195661   9.973  14.545  11.492
31276SOL    HW295662   9.831  14.500  11.468
31277SOL     OW95663   7.622   6.021   6.521
31277SOL    HW195664   7.558   5.949   6.522
31277SOL    HW295665   7.681   5.999   6.448
31278SOL     OW95666   1.450  13.358   3.587
31278SOL    HW195667   1.488  13.437   3.626
31278SOL    HW295668   1.467  13.367   3.493
31279SOL     OW95669   2.802  10.572   0.995
31279SOL    HW195670   2.835  10.510   1.060
31279SOL    HW295671   2.777  10.649   1.046
31280SOL     OW95672   4.520  12.549   1.822
31280SOL    HW195673   4.557  12.511   1.743
31280SOL    HW295674   4.511  12.475   1.883
31281SOL     OW95675   7.140  12.465  13.656
31281SOL    HW195676   7.120  12.424  13.572
31281SOL    HW295677   7.130  12.559  13.639
31282SOL     OW95678  13.086  11.059   8.512
31282SOL    HW195679  13.104  11.063   8.418
31282SOL    HW295680  13.064  11.149   8.536
31283SOL     OW95681  11.901   5.350   5.216
31283SOL    HW195682  11.929   5.350   5.125
31283SOL    HW295683  11.977   5.320   5.266
31284SOL     OW95684  13.780  13.192  11.267
31284SOL    HW195685  13.786  13.122  11.202
31284SOL    HW295686  13.689  13.187  11.298
31285SOL     OW95687  10.233   4.471   9.181
31285SOL    HW195688  10.236   4.420   9.100
31285SOL    HW295689  10.149   4.448   9.221
31286SOL     OW95690  13.578  12.843   1.880
31286SOL    HW195691  13.577  12.761   1.930
31286SOL    HW295692  13.599  12.910   1.945
31287SOL     OW95693   0.228   9.549  11.724
31287SOL    HW195694   0.171   9.475  11.703
31287SOL    HW295695   0.199   9.578  11.811
31288SOL     OW95696  14.343   7.251  12.832
31288SOL    HW195697  14.349   7.186  12.762
31288SOL    HW295698  14.333   7.200  12.912
31289SOL     OW95699   3.956   4.445   3.105
31289SOL    HW195700   4.018   4.392   3.154
31289SOL    HW295701   4.006   4.476   3.029
31290SOL     OW95702   0.726   5.820   4.751
31290SOL    HW195703   0.784   5.896   4.752
31290SOL    HW295704   0.678   5.828   4.668
31291SOL     OW95705   9.172  11.023   4.346
31291SOL    HW195706   9.266  11.041   4.346
31291SOL    HW295707   9.155  10.984   4.431
31292SOL     OW95708  10.766   7.184   9.796
31292SOL    HW195709  10.786   7.208   9.887
31292SOL    HW295710  10.808   7.099   9.785
31293SOL     OW95711   3.359   3.427   4.442
31293SOL    HW195712   3.339   3.467   4.357
31293SOL    HW295713   3.323   3.488   4.506
31294SOL     OW95714   1.103  12.467  12.492
31294SOL    HW195715   1.012  12.497  12.487
31294SOL    HW295716   1.124  12.442  12.402
31295SOL     OW95717  12.961  11.800   7.679
31295SOL    HW195718  12.941  11.854   7.602
31295SOL    HW295719  12.904  11.724   7.671
31296SOL     OW95720   1.111   7.511   5.934
31296SOL    HW195721   1.151   7.571   5.870
31296SOL    HW295722   1.128   7.424   5.899
31297SOL     OW95723  11.370  10.967  11.875
31297SOL    HW195724  11.349  11.005  11.961
31297SOL    HW295725  11.289  10.978  11.825
31298SOL     OW95726   4.162  11.619   7.727
31298SOL    HW195727   4.235  11.679   7.740
31298SOL    HW295728   4.097  11.645   7.793
31299SOL     OW95729   7.988   9.285   0.867
31299SOL    HW195730   7.980   9.232   0.788
31299SOL    HW295731   7.953   9.371   0.842
31300SOL     OW95732  14.218   7.149   3.905
31300SOL    HW195733  14.290   7.176   3.848
31300SOL    HW295734  14.256   7.082   3.962
31301SOL     OW95735   4.687  10.286  10.686
31301SOL    HW195736   4.712  10.365  10.639
31301SOL    HW295737   4.704  10.215  10.624
31302SOL     OW95738  10.965  10.143  14.676
31302SOL    HW195739  10.972  10.140  14.771
31302SOL    HW295740  10.915  10.065  14.653
31303SOL     OW95741   1.092  10.080   2.314
31303SOL    HW195742   1.096   9.989   2.343
31303SOL    HW295743   1.127  10.079   2.224
31304SOL     OW95744   1.409   0.837  11.239
31304SOL    HW195745   1.373   0.871  11.321
31304SOL    HW295746   1.335   0.794  11.196
31305SOL     OW95747  10.995  13.019   2.194
31305SOL    HW195748  11.007  13.030   2.099
31305SOL    HW295749  10.946  12.938   2.203
31306SOL     OW95750  14.145   1.262   2.719
31306SOL    HW195751  14.205   1.281   2.791
31306SOL    HW295752  14.114   1.172   2.737
31307SOL     OW95753   1.463  12.238   5.499
31307SOL    HW195754   1.377  12.278   5.486
31307SOL    HW295755   1.445  12.155   5.542
31308SOL     OW95756  12.306  11.699  11.884
31308SOL    HW195757  12.312  11.693  11.979
31308SOL    HW295758  12.394  11.675  11.853
31309SOL     OW95759   8.609  10.271   3.483
31309SOL    HW195760   8.678  10.275   3.548
31309SOL    HW295761   8.558  10.350   3.497
31310SOL     OW95762   3.430  11.205   2.532
31310SOL    HW195763   3.439  11.259   2.453
31310SOL    HW295764   3.363  11.250   2.584
31311SOL     OW95765   4.924   1.213   6.135
31311SOL    HW195766   4.934   1.129   6.180
31311SOL    HW295767   4.972   1.202   6.054
31312SOL     OW95768   0.479  10.849   4.088
31312SOL    HW195769   0.500  10.937   4.055
31312SOL    HW295770   0.510  10.790   4.019
31313SOL     OW95771   9.389   5.897  14.536
31313SOL    HW195772   9.305   5.854  14.524
31313SOL    HW295773   9.452   5.826  14.546
31314SOL     OW95774   1.059  10.034  13.868
31314SOL    HW195775   1.004  10.043  13.790
31314SOL    HW295776   1.065  10.123  13.903
31315SOL     OW95777   5.689  12.282  11.896
31315SOL    HW195778   5.728  12.338  11.963
31315SOL    HW295779   5.656  12.206  11.945
31316SOL     OW95780   7.296  12.696   6.856
31316SOL    HW195781   7.220  12.638   6.864
31316SOL    HW295782   7.301  12.741   6.940
31317SOL     OW95783   7.744  11.378   9.952
31317SOL    HW195784   7.769  11.453  10.006
31317SOL    HW295785   7.669  11.409   9.902
31318SOL     OW95786   7.871  12.430   9.159
31318SOL    HW195787   7.907  12.437   9.071
31318SOL    HW295788   7.786  12.387   9.148
31319SOL     OW95789   3.999   0.072   2.963
31319SOL    HW195790   4.084   0.063   3.007
31319SOL    HW295791   4.018   0.052   2.871
31320SOL     OW95792   1.997  11.139   0.618
31320SOL    HW195793   2.085  11.123   0.654
31320SOL    HW295794   1.943  11.069   0.655
31321SOL     OW95795   2.850   5.180   1.542
31321SOL    HW195796   2.859   5.157   1.634
31321SOL    HW295797   2.884   5.104   1.494
31322SOL     OW95798   2.719   1.376   4.507
31322SOL    HW195799   2.772   1.351   4.431
31322SOL    HW295800   2.683   1.294   4.540
31323SOL     OW95801   5.118   2.003   3.637
31323SOL    HW195802   5.115   2.049   3.721
31323SOL    HW295803   5.155   1.917   3.659
31324SOL     OW95804  14.659  12.109   2.169
31324SOL    HW195805  14.664  12.017   2.192
31324SOL    HW295806  14.747  12.143   2.186
31325SOL     OW95807  11.079  11.256   5.318
31325SOL    HW195808  11.062  11.239   5.411
31325SOL    HW295809  11.104  11.348   5.315
31326SOL     OW95810  13.479   5.310   3.802
31326SOL    HW195811  13.461   5.372   3.873
31326SOL    HW295812  13.510   5.366   3.730
31327SOL     OW95813   4.706  12.827   9.953
31327SOL    HW195814   4.774  12.882   9.991
31327SOL    HW295815   4.660  12.884   9.891
31328SOL     OW95816  11.613  13.046   1.344
31328SOL    HW195817  11.628  13.079   1.432
31328SOL    HW295818  11.622  12.951   1.353
31329SOL     OW95819  13.903   2.167   2.840
31329SOL    HW195820  13.980   2.174   2.897
31329SOL    HW295821  13.915   2.084   2.793
31330SOL     OW95822  13.720  13.673   6.955
31330SOL    HW195823  13.642  13.702   7.002
31330SOL    HW295824  13.685  13.627   6.878
31331SOL     OW95825   3.615   3.678  13.107
31331SOL    HW195826   3.586   3.698  13.196
31331SOL    HW295827   3.565   3.738  13.051
31332SOL     OW95828   6.473   9.947  12.499
31332SOL    HW195829   6.558   9.943  12.542
31332SOL    HW295830   6.430  10.025  12.536
31333SOL     OW95831   7.513   0.952   3.144
31333SOL    HW195832   7.598   0.945   3.188
31333SOL    HW295833   7.524   0.902   3.063
31334SOL     OW95834   8.970   2.381   3.354
31334SOL    HW195835   8.992   2.467   3.319
31334SOL    HW295836   8.876   2.384   3.369
31335SOL     OW95837   5.918  13.775  11.319
31335SOL    HW195838   5.870  13.696  11.342
31335SOL    HW295839   5.897  13.838  11.388
31336SOL     OW95840   2.413  13.046   9.366
31336SOL    HW195841   2.455  13.126   9.399
31336SOL    HW295842   2.378  13.071   9.280
31337SOL     OW95843   8.994   3.781   1.676
31337SOL    HW195844   8.936   3.773   1.752
31337SOL    HW295845   9.063   3.841   1.705
31338SOL     OW95846   0.456  14.417  12.337
31338SOL    HW195847   0.497  14.379  12.414
31338SOL    HW295848   0.486  14.507  12.335
31339SOL     OW95849  11.864   1.511   9.437
31339SOL    HW195850  11.818   1.595   9.430
31339SOL    HW295851  11.893   1.492   9.348
31340SOL     OW95852  12.438   1.929   0.627
31340SOL    HW195853  12.432   1.854   0.568
31340SOL    HW295854  12.531   1.951   0.629
31341SOL     OW95855  12.504   9.214  13.174
31341SOL    HW195856  12.569   9.173  13.231
31341SOL    HW295857  12.487   9.148  13.106
31342SOL     OW95858   8.390   1.115   7.179
31342SOL    HW195859   8.363   1.152   7.263
31342SOL    HW295860   8.468   1.165   7.154
31343SOL     OW95861   1.668  12.415   8.575
31343SOL    HW195862   1.697  12.393   8.664
31343SOL    HW295863   1.582  12.373   8.568
31344SOL     OW95864   3.699  12.655   8.054
31344SOL    HW195865   3.604  12.653   8.066
31344SOL    HW295866   3.716  12.587   7.989
31345SOL     OW95867   0.148   5.044   2.999
31345SOL    HW195868   0.120   4.970   3.052
31345SOL    HW295869   0.130   5.121   3.054
31346SOL     OW95870   5.393   1.731  13.411
31346SOL    HW195871   5.467   1.674  13.392
31346SOL    HW295872   5.349   1.688  13.485
31347SOL     OW95873   7.793   6.436   1.242
31347SOL    HW195874   7.819   6.465   1.155
31347SOL    HW295875   7.769   6.344   1.230
31348SOL     OW95876  10.243   5.167  11.263
31348SOL    HW195877  10.337   5.150  11.259
31348SOL    HW295878  10.224   5.220  11.184
31349SOL     OW95879   2.816  13.398  10.276
31349SOL    HW195880   2.747  13.405  10.211
31349SOL    HW295881   2.823  13.304  10.293
31350SOL     OW95882   0.758   7.983   4.559
31350SOL    HW195883   0.687   7.920   4.552
31350SOL    HW295884   0.720   8.058   4.604
31351SOL     OW95885   9.577  14.425   2.145
31351SOL    HW195886   9.526  14.443   2.066
31351SOL    HW295887   9.666  14.448   2.122
31352SOL     OW95888   9.891  14.550   8.635
31352SOL    HW195889   9.930  14.587   8.714
31352SOL    HW295890   9.954  14.485   8.604
31353SOL     OW95891  12.138   6.516  10.025
31353SOL    HW195892  12.052   6.509   9.983
31353SOL    HW295893  12.189   6.571   9.966
31354SOL     OW95894   2.684   7.759   3.232
31354SOL    HW195895   2.597   7.725   3.210
31354SOL    HW295896   2.674   7.854   3.230
31355SOL     OW95897   1.095  14.584   7.522
31355SOL    HW195898   1.016  14.567   7.471
31355SOL    HW295899   1.113  14.677   7.508
31356SOL     OW95900   9.530   2.610   8.074
31356SOL    HW195901   9.445   2.634   8.038
31356SOL    HW295902   9.589   2.611   7.998
31357SOL     OW95903   5.243   4.926   4.916
31357SOL    HW195904   5.219   4.834   4.904
31357SOL    HW295905   5.234   4.942   5.010
31358SOL     OW95906   4.789   3.371   0.110
31358SOL    HW195907   4.880   3.374   0.141
31358SOL    HW295908   4.782   3.287   0.064
31359SOL     OW95909   8.827   2.608   9.727
31359SOL    HW195910   8.759   2.648   9.782
31359SOL    HW295911   8.825   2.515   9.750
31360SOL     OW95912   5.241   1.141  11.527
31360SOL    HW195913   5.252   1.101  11.613
31360SOL    HW295914   5.155   1.111  11.498
31361SOL     OW95915   5.756   4.271   7.075
31361SOL    HW195916   5.735   4.178   7.081
31361SOL    HW295917   5.719   4.299   6.992
31362SOL     OW95918   1.261   7.501  13.157
31362SOL    HW195919   1.241   7.480  13.066
31362SOL    HW295920   1.204   7.444  13.208
31363SOL     OW95921   3.846   4.651  11.472
31363SOL    HW195922   3.797   4.731  11.454
31363SOL    HW295923   3.912   4.648  11.403
31364SOL     OW95924   4.749   9.902   1.190
31364SOL    HW195925   4.830   9.876   1.233
31364SOL    HW295926   4.748   9.853   1.107
31365SOL     OW95927   0.007  10.646   9.168
31365SOL    HW195928  14.798  10.660   9.216
31365SOL    HW295929   0.037  10.734   9.145
31366SOL     OW95930  11.369  13.411   2.049
31366SOL    HW195931  11.402  13.334   2.002
31366SOL    HW295932  11.445  13.469   2.056
31367SOL     OW95933  12.120   9.419  10.488
31367SOL    HW195934  12.171   9.339  10.500
31367SOL    HW295935  12.042   9.406  10.541
31368SOL     OW95936   9.320  13.999   1.174
31368SOL    HW195937   9.345  14.085   1.207
31368SOL    HW295938   9.250  14.017   1.112
31369SOL     OW95939   6.650   0.975   3.938
31369SOL    HW195940   6.684   0.905   3.883
31369SOL    HW295941   6.693   1.054   3.906
31370SOL     OW95942   6.649   3.874   4.006
31370SOL    HW195943   6.627   3.965   3.990
31370SOL    HW295944   6.591   3.847   4.078
31371SOL     OW95945   1.280  10.477   4.805
31371SOL    HW195946   1.193  10.500   4.839
31371SOL    HW295947   1.280  10.511   4.715
31372SOL     OW95948  13.418   0.185  10.980
31372SOL    HW195949  13.349   0.122  10.960
31372SOL    HW295950  13.427   0.237  10.901
31373SOL     OW95951   7.168   5.831  10.618
31373SOL    HW195952   7.154   5.737  10.606
31373SOL    HW295953   7.126   5.850  10.702
31374SOL     OW95954   6.973   8.554   7.817
31374SOL    HW195955   6.900   8.611   7.843
31374SOL    HW295956   6.964   8.477   7.873
31375SOL     OW95957   5.695   0.868  14.203
31375SOL    HW195958   5.659   0.792  14.249
31375SOL    HW295959   5.784   0.877  14.238
31376SOL     OW95960   8.957  12.392   7.519
31376SOL    HW195961   9.003  12.471   7.546
31376SOL    HW295962   8.988  12.376   7.430
31377SOL     OW95963   6.718  12.295   4.913
31377SOL    HW195964   6.709  12.390   4.917
31377SOL    HW295965   6.809  12.281   4.886
31378SOL     OW95966  12.283   2.982   9.893
31378SOL    HW195967  12.215   2.985   9.960
31378SOL    HW295968  12.278   2.893   9.858
31379SOL     OW95969   6.165  10.264   2.464
31379SOL    HW195970   6.095  10.310   2.417
31379SOL    HW295971   6.197  10.199   2.401
31380SOL     OW95972   8.742  12.926  13.154
31380SOL    HW195973   8.834  12.926  13.178
31380SOL    HW295974   8.741  12.899  13.062
31381SOL     OW95975   7.519   8.143  11.118
31381SOL    HW195976   7.437   8.169  11.075
31381SOL    HW295977   7.561   8.083  11.056
31382SOL     OW95978   2.959  13.458   0.627
31382SOL    HW195979   2.882  13.482   0.677
31382SOL    HW295980   2.925  13.404   0.555
31383SOL     OW95981   5.712  13.505   9.871
31383SOL    HW195982   5.700  13.410   9.880
31383SOL    HW295983   5.641  13.544   9.921
31384SOL     OW95984   5.040   1.986   9.325
31384SOL    HW195985   5.069   1.952   9.240
31384SOL    HW295986   5.100   2.057   9.344
31385SOL     OW95987   2.919   9.293   3.656
31385SOL    HW195988   2.983   9.250   3.599
31385SOL    HW295989   2.951   9.383   3.665
31386SOL     OW95990   2.457   5.207   6.817
31386SOL    HW195991   2.421   5.123   6.786
31386SOL    HW295992   2.547   5.187   6.841
31387SOL     OW95993   7.965   5.532   4.208
31387SOL    HW195994   7.893   5.554   4.148
31387SOL    HW295995   7.939   5.449   4.248
31388SOL     OW95996   0.975   4.273  12.258
31388SOL    HW195997   1.039   4.208  12.229
31388SOL    HW295998   1.029   4.348  12.286
31389SOL     OW95999   0.431  10.144  12.447
31389SOL    HW196000   0.363  10.203  12.479
31389SOL    HW296001   0.400  10.118  12.360
31390SOL     OW96002   6.189  11.362   3.872
31390SOL    HW196003   6.267  11.330   3.918
31390SOL    HW296004   6.223  11.413   3.799
31391SOL     OW96005  13.428  14.265   9.514
31391SOL    HW196006  13.507  14.277   9.567
31391SOL    HW296007  13.364  14.326   9.551
31392SOL     OW96008   4.076  13.454  10.146
31392SOL    HW196009   4.094  13.524  10.209
31392SOL    HW296010   4.040  13.499  10.070
31393SOL     OW96011   6.145   3.545   8.557
31393SOL    HW196012   6.089   3.467   8.552
31393SOL    HW296013   6.090   3.611   8.600
31394SOL     OW96014   2.691   2.538  12.399
31394SOL    HW196015   2.705   2.615  12.343
31394SOL    HW296016   2.770   2.485  12.389
31395SOL     OW96017   5.693  13.068  11.749
31395SOL    HW196018   5.599  13.053  11.759
31395SOL    HW296019   5.700  13.121  11.669
31396SOL     OW96020   7.001   9.410  14.130
31396SOL    HW196021   7.053   9.426  14.209
31396SOL    HW296022   6.953   9.330  14.148
31397SOL     OW96023  12.670   2.660   0.259
31397SOL    HW196024  12.673   2.694   0.170
31397SOL    HW296025  12.728   2.584   0.258
31398SOL     OW96026   7.699   5.720  12.209
31398SOL    HW196027   7.667   5.810  12.199
31398SOL    HW296028   7.700   5.705  12.303
31399SOL     OW96029   9.292   5.610   4.650
31399SOL    HW196030   9.305   5.580   4.560
31399SOL    HW296031   9.314   5.703   4.647
31400SOL     OW96032  13.851  11.841   7.646
31400SOL    HW196033  13.886  11.753   7.638
31400SOL    HW296034  13.775  11.842   7.587
31401SOL     OW96035   4.001   1.921  11.064
31401SOL    HW196036   4.083   1.966  11.041
31401SOL    HW296037   3.941   1.991  11.087
31402SOL     OW96038   5.364   6.951  11.277
31402SOL    HW196039   5.421   6.999  11.217
31402SOL    HW296040   5.421   6.887  11.319
31403SOL     OW96041  11.706   4.078   1.834
31403SOL    HW196042  11.697   3.994   1.788
31403SOL    HW296043  11.785   4.068   1.887
31404SOL     OW96044   4.792   3.881   7.000
31404SOL    HW196045   4.752   3.931   6.929
31404SOL    HW296046   4.880   3.860   6.968
31405SOL     OW96047   0.295   1.121   7.513
31405SOL    HW196048   0.346   1.118   7.432
31405SOL    HW296049   0.358   1.102   7.582
31406SOL     OW96050  12.736   0.691   2.815
31406SOL    HW196051  12.754   0.603   2.781
31406SOL    HW296052  12.685   0.734   2.745
31407SOL     OW96053   7.751  11.761   3.606
31407SOL    HW196054   7.684  11.828   3.594
31407SOL    HW296055   7.826  11.793   3.555
31408SOL     OW96056   4.128   3.881  12.004
31408SOL    HW196057   4.119   3.896  11.910
31408SOL    HW296058   4.042   3.850  12.032
31409SOL     OW96059   5.936   1.770   5.492
31409SOL    HW196060   5.866   1.728   5.541
31409SOL    HW296061   5.947   1.855   5.534
31410SOL     OW96062   0.202   0.347   0.942
31410SOL    HW196063   0.274   0.298   0.902
31410SOL    HW296064   0.242   0.428   0.971
31411SOL     OW96065   4.405   0.791  14.173
31411SOL    HW196066   4.455   0.711  14.155
31411SOL    HW296067   4.420   0.808  14.266
31412SOL     OW96068  13.943   6.853   9.340
31412SOL    HW196069  13.875   6.788   9.320
31412SOL    HW296070  14.021   6.801   9.359
31413SOL     OW96071   2.814   9.195   4.350
31413SOL    HW196072   2.836   9.193   4.257
31413SOL    HW296073   2.897   9.178   4.395
31414SOL     OW96074   6.058  12.024   1.685
31414SOL    HW196075   6.011  12.069   1.615
31414SOL    HW296076   6.100  11.950   1.641
31415SOL     OW96077  10.029   5.543   1.798
31415SOL    HW196078   9.996   5.619   1.750
31415SOL    HW296079   9.954   5.483   1.802
31416SOL     OW96080  10.034   7.683  10.873
31416SOL    HW196081   9.979   7.609  10.901
31416SOL    HW296082   9.998   7.758  10.920
31417SOL     OW96083   9.121  13.020  11.905
31417SOL    HW196084   9.065  13.097  11.917
31417SOL    HW296085   9.087  12.956  11.967
31418SOL     OW96086   8.312  14.167  10.194
31418SOL    HW196087   8.371  14.163  10.119
31418SOL    HW296088   8.311  14.259  10.219
31419SOL     OW96089   5.931   8.035  13.931
31419SOL    HW196090   5.916   7.947  13.966
31419SOL    HW296091   6.025   8.049  13.942
31420SOL     OW96092   6.871  12.164   6.260
31420SOL    HW196093   6.930  12.177   6.335
31420SOL    HW296094   6.831  12.250   6.247
31421SOL     OW96095  14.139   7.871  14.865
31421SOL    HW196096  14.230   7.890   0.018
31421SOL    HW296097  14.147   7.829  14.780
31422SOL     OW96098   8.112   3.733  10.203
31422SOL    HW196099   8.153   3.812  10.170
31422SOL    HW296100   8.143   3.664  10.145
31423SOL     OW96101   5.693  10.683   9.981
31423SOL    HW196102   5.774  10.638  10.003
31423SOL    HW296103   5.718  10.776   9.975
31424SOL     OW96104  10.877  14.787   6.679
31424SOL    HW196105  10.904  14.780   6.770
31424SOL    HW296106  10.783  14.768   6.681
31425SOL     OW96107   7.225  11.182   1.364
31425SOL    HW196108   7.219  11.087   1.351
31425SOL    HW296109   7.191  11.196   1.452
31426SOL     OW96110  14.041   7.680   7.034
31426SOL    HW196111  14.035   7.768   6.997
31426SOL    HW296112  13.961   7.670   7.086
31427SOL     OW96113  14.189   3.990  10.504
31427SOL    HW196114  14.123   3.987  10.573
31427SOL    HW296115  14.262   3.939  10.538
31428SOL     OW96116   4.011  12.588  13.329
31428SOL    HW196117   4.028  12.663  13.386
31428SOL    HW296118   4.090  12.579  13.276
31429SOL     OW96119   8.349   5.116   7.602
31429SOL    HW196120   8.256   5.107   7.581
31429SOL    HW296121   8.352   5.116   7.698
31430SOL     OW96122   4.295   8.934  11.489
31430SOL    HW196123   4.301   8.916  11.395
31430SOL    HW296124   4.366   8.884  11.528
31431SOL     OW96125   5.296   6.993   4.677
31431SOL    HW196126   5.221   7.018   4.623
31431SOL    HW296127   5.257   6.947   4.752
31432SOL     OW96128   1.623   1.451   2.063
31432SOL    HW196129   1.534   1.452   2.028
31432SOL    HW296130   1.674   1.403   1.997
31433SOL     OW96131   8.834   4.628   9.906
31433SOL    HW196132   8.815   4.562   9.839
31433SOL    HW296133   8.755   4.633   9.959
31434SOL     OW96134  12.734   1.305   2.714
31434SOL    HW196135  12.787   1.325   2.791
31434SOL    HW296136  12.643   1.310   2.745
31435SOL     OW96137   0.078   4.921  11.615
31435SOL    HW196138   0.014   4.850  11.609
31435SOL    HW296139   0.118   4.909  11.701
31436SOL     OW96140  13.891   8.203   8.721
31436SOL    HW196141  13.915   8.112   8.709
31436SOL    HW296142  13.799   8.207   8.695
31437SOL     OW96143   4.459   4.450   8.093
31437SOL    HW196144   4.430   4.497   8.015
31437SOL    HW296145   4.535   4.499   8.124
31438SOL     OW96146   6.750   4.703   3.578
31438SOL    HW196147   6.812   4.633   3.561
31438SOL    HW296148   6.678   4.687   3.518
31439SOL     OW96149   7.164   5.433  14.051
31439SOL    HW196150   7.083   5.466  14.010
31439SOL    HW296151   7.164   5.474  14.137
31440SOL     OW96152   2.604   1.154  12.561
31440SOL    HW196153   2.686   1.140  12.608
31440SOL    HW296154   2.604   1.246  12.538
31441SOL     OW96155   0.695   1.573   3.793
31441SOL    HW196156   0.653   1.657   3.775
31441SOL    HW296157   0.743   1.552   3.712
31442SOL     OW96158   4.445   9.073  12.438
31442SOL    HW196159   4.382   9.130  12.482
31442SOL    HW296160   4.436   8.989  12.482
31443SOL     OW96161   6.023   1.717   0.720
31443SOL    HW196162   6.059   1.776   0.787
31443SOL    HW296163   5.964   1.772   0.669
31444SOL     OW96164   7.750   8.317  12.801
31444SOL    HW196165   7.698   8.237  12.812
31444SOL    HW296166   7.821   8.309  12.864
31445SOL     OW96167  14.604  14.132   3.587
31445SOL    HW196168  14.652  14.134   3.670
31445SOL    HW296169  14.616  14.219   3.549
31446SOL     OW96170   8.631   1.774   3.012
31446SOL    HW196171   8.724   1.771   3.032
31446SOL    HW296172   8.596   1.841   3.071
31447SOL     OW96173   0.440  12.277   2.101
31447SOL    HW196174   0.366  12.337   2.113
31447SOL    HW296175   0.516  12.334   2.096
31448SOL     OW96176  13.267  10.371  14.443
31448SOL    HW196177  13.223  10.406  14.521
31448SOL    HW296178  13.197  10.357  14.380
31449SOL     OW96179  14.575  13.161  10.366
31449SOL    HW196180  14.644  13.228  10.365
31449SOL    HW296181  14.532  13.170  10.281
31450SOL     OW96182  13.634  11.880   9.246
31450SOL    HW196183  13.634  11.792   9.284
31450SOL    HW296184  13.702  11.878   9.180
31451SOL     OW96185   3.887   5.317   4.671
31451SOL    HW196186   3.872   5.223   4.659
31451SOL    HW296187   3.813   5.358   4.626
31452SOL     OW96188  11.290   9.703  13.968
31452SOL    HW196189  11.204   9.664  13.986
31452SOL    HW296190  11.334   9.639  13.912
31453SOL     OW96191  13.620   9.545   0.550
31453SOL    HW196192  13.557   9.600   0.503
31453SOL    HW296193  13.593   9.456   0.531
31454SOL     OW96194   4.167   7.669   2.241
31454SOL    HW196195   4.081   7.681   2.281
31454SOL    HW296196   4.210   7.603   2.295
31455SOL     OW96197  14.314  11.643  11.752
31455SOL    HW196198  14.277  11.555  11.759
31455SOL    HW296199  14.398  11.637  11.797
31456SOL     OW96200   7.430  12.665   2.326
31456SOL    HW196201   7.507  12.611   2.339
31456SOL    HW296202   7.442  12.739   2.385
31457SOL     OW96203   2.113   0.257   8.768
31457SOL    HW196204   2.082   0.187   8.710
31457SOL    HW296205   2.040   0.273   8.828
31458SOL     OW96206   9.763   4.156   4.252
31458SOL    HW196207   9.825   4.206   4.306
31458SOL    HW296208   9.816   4.122   4.180
31459SOL     OW96209  14.218   4.364  11.745
31459SOL    HW196210  14.182   4.441  11.789
31459SOL    HW296211  14.142   4.321  11.705
31460SOL     OW96212   9.197   5.610   8.917
31460SOL    HW196213   9.270   5.551   8.901
31460SOL    HW296214   9.220   5.654   8.999
31461SOL     OW96215  11.465   9.622   8.643
31461SOL    HW196216  11.429   9.555   8.702
31461SOL    HW296217  11.508   9.684   8.702
31462SOL     OW96218   4.420   0.928  10.781
31462SOL    HW196219   4.451   0.926  10.691
31462SOL    HW296220   4.329   0.900  10.776
31463SOL     OW96221   1.252  13.631   0.639
31463SOL    HW196222   1.247  13.681   0.557
31463SOL    HW296223   1.161  13.621   0.666
31464SOL     OW96224   9.607   9.196  12.145
31464SOL    HW196225   9.542   9.185  12.075
31464SOL    HW296226   9.612   9.111  12.187
31465SOL     OW96227   5.829  10.728   5.311
31465SOL    HW196228   5.824  10.638   5.343
31465SOL    HW296229   5.911  10.762   5.345
31466SOL     OW96230   7.322  12.067   6.139
31466SOL    HW196231   7.245  12.020   6.170
31466SOL    HW296232   7.316  12.062   6.044
31467SOL     OW96233   3.101  14.305  12.632
31467SOL    HW196234   3.157  14.240  12.590
31467SOL    HW296235   3.012  14.273  12.618
31468SOL     OW96236   9.027   4.082   3.859
31468SOL    HW196237   9.108   4.133   3.849
31468SOL    HW296238   8.995   4.106   3.946
31469SOL     OW96239   9.534   9.850  12.144
31469SOL    HW196240   9.562   9.901  12.068
31469SOL    HW296241   9.477   9.909  12.193
31470SOL     OW96242   9.796   0.385   5.902
31470SOL    HW196243   9.838   0.455   5.852
31470SOL    HW296244   9.866   0.347   5.955
31471SOL     OW96245   6.699   1.488   8.947
31471SOL    HW196246   6.777   1.516   8.996
31471SOL    HW296247   6.651   1.568   8.928
31472SOL     OW96248  11.101  13.907  10.738
31472SOL    HW196249  11.133  13.866  10.818
31472SOL    HW296250  11.041  13.842  10.699
31473SOL     OW96251   7.048  14.010   2.525
31473SOL    HW196252   6.987  13.954   2.478
31473SOL    HW296253   7.016  14.010   2.616
31474SOL     OW96254   9.326   9.315   6.277
31474SOL    HW196255   9.293   9.232   6.242
31474SOL    HW296256   9.389   9.345   6.212
31475SOL     OW96257   2.097   1.608  11.236
31475SOL    HW196258   2.137   1.665  11.301
31475SOL    HW296259   2.070   1.530  11.285
31476SOL     OW96260   0.640   6.312   2.956
31476SOL    HW196261   0.675   6.399   2.938
31476SOL    HW296262   0.614   6.279   2.869
31477SOL     OW96263  12.620   2.693   3.885
31477SOL    HW196264  12.592   2.621   3.829
31477SOL    HW296265  12.716   2.693   3.878
31478SOL     OW96266  11.323   1.431   1.782
31478SOL    HW196267  11.316   1.349   1.732
31478SOL    HW296268  11.342   1.403   1.871
31479SOL     OW96269   5.683   5.485  14.093
31479SOL    HW196270   5.764   5.531  14.072
31479SOL    HW296271   5.629   5.551  14.136
31480SOL     OW96272   7.597  10.142   8.230
31480SOL    HW196273   7.609  10.076   8.298
31480SOL    HW296274   7.679  10.191   8.230
31481SOL     OW96275  10.873   7.578   8.526
31481SOL    HW196276  10.789   7.548   8.562
31481SOL    HW296277  10.850   7.621   8.444
31482SOL     OW96278   2.814  10.957   5.756
31482SOL    HW196279   2.736  10.959   5.812
31482SOL    HW296280   2.866  11.032   5.784
31483SOL     OW96281  13.449  10.096   4.337
31483SOL    HW196282  13.424  10.168   4.395
31483SOL    HW296283  13.538  10.118   4.308
31484SOL     OW96284   2.815   5.320  12.631
31484SOL    HW196285   2.847   5.352  12.546
31484SOL    HW296286   2.758   5.390  12.663
31485SOL     OW96287   4.856   4.703   0.664
31485SOL    HW196288   4.932   4.661   0.623
31485SOL    HW296289   4.809   4.744   0.592
31486SOL     OW96290   5.297  11.449   0.974
31486SOL    HW196291   5.264  11.475   0.889
31486SOL    HW296292   5.366  11.513   0.994
31487SOL     OW96293  11.189  11.143   3.495
31487SOL    HW196294  11.232  11.066   3.531
31487SOL    HW296295  11.167  11.118   3.405
31488SOL     OW96296   3.380   9.888   7.397
31488SOL    HW196297   3.347   9.962   7.346
31488SOL    HW296298   3.354   9.906   7.487
31489SOL     OW96299   4.269  13.796   5.278
31489SOL    HW196300   4.231  13.869   5.228
31489SOL    HW296301   4.355  13.828   5.305
31490SOL     OW96302  13.161   0.309  11.040
31490SOL    HW196303  13.221   0.301  10.966
31490SOL    HW296304  13.207   0.364  11.103
31491SOL     OW96305   4.578   8.914  12.079
31491SOL    HW196306   4.533   8.976  12.022
31491SOL    HW296307   4.619   8.851  12.019
31492SOL     OW96308   7.311   9.557   3.304
31492SOL    HW196309   7.283   9.635   3.350
31492SOL    HW296310   7.401   9.576   3.277
31493SOL     OW96311   8.045   8.545  12.180
31493SOL    HW196312   8.010   8.457  12.190
31493SOL    HW296313   8.011   8.575  12.096
31494SOL     OW96314   6.963   5.510  13.300
31494SOL    HW196315   6.919   5.510  13.214
31494SOL    HW296316   6.937   5.594  13.339
31495SOL     OW96317  13.670  10.884   2.726
31495SOL    HW196318  13.615  10.946   2.679
31495SOL    HW296319  13.629  10.799   2.711
31496SOL     OW96320  13.938  12.370  13.257
31496SOL    HW196321  13.876  12.346  13.188
31496SOL    HW296322  13.991  12.440  13.219
31497SOL     OW96323   1.519   9.526   9.141
31497SOL    HW196324   1.436   9.561   9.110
31497SOL    HW296325   1.535   9.450   9.085
31498SOL     OW96326   1.358   6.704   9.285
31498SOL    HW196327   1.433   6.664   9.242
31498SOL    HW296328   1.360   6.795   9.257
31499SOL     OW96329  12.231   7.093  13.180
31499SOL    HW196330  12.225   7.153  13.107
31499SOL    HW296331  12.320   7.058  13.176
31500SOL     OW96332   4.826   6.652   1.021
31500SOL    HW196333   4.806   6.592   1.093
31500SOL    HW296334   4.918   6.635   1.000
31501SOL     OW96335   2.636   2.371   2.227
31501SOL    HW196336   2.619   2.450   2.176
31501SOL    HW296337   2.669   2.404   2.311
31502SOL     OW96338  11.420   6.997  10.712
31502SOL    HW196339  11.476   6.937  10.761
31502SOL    HW296340  11.367   7.040  10.779
31503SOL     OW96341   2.753  14.102   8.526
31503SOL    HW196342   2.703  14.086   8.446
31503SOL    HW296343   2.840  14.129   8.496
31504SOL     OW96344   4.151   3.001  14.373
31504SOL    HW196345   4.085   3.051  14.326
31504SOL    HW296346   4.147   3.034  14.463
31505SOL     OW96347  13.719   0.255   6.747
31505SOL    HW196348  13.724   0.312   6.670
31505SOL    HW296349  13.682   0.311   6.815
31506SOL     OW96350  13.199   9.890  14.482
31506SOL    HW196351  13.277   9.925  14.524
31506SOL    HW296352  13.208   9.795  14.489
31507SOL     OW96353  10.161   6.916  10.619
31507SOL    HW196354  10.192   6.851  10.556
31507SOL    HW296355  10.128   6.988  10.565
31508SOL     OW96356   2.841   5.469  11.416
31508SOL    HW196357   2.857   5.532  11.487
31508SOL    HW296358   2.809   5.523  11.344
31509SOL     OW96359   5.249   8.198   5.150
31509SOL    HW196360   5.167   8.153   5.131
31509SOL    HW296361   5.222   8.284   5.181
31510SOL     OW96362   4.274   6.140   9.023
31510SOL    HW196363   4.297   6.222   8.979
31510SOL    HW296364   4.286   6.072   8.956
31511SOL     OW96365  11.910  10.597   9.208
31511SOL    HW196366  11.971  10.640   9.149
31511SOL    HW296367  11.965  10.563   9.279
31512SOL     OW96368   2.017  13.338  11.909
31512SOL    HW196369   2.072  13.409  11.942
31512SOL    HW296370   1.987  13.369  11.823
31513SOL     OW96371   1.178   0.043   5.935
31513SOL    HW196372   1.089   0.010   5.944
31513SOL    HW296373   1.176   0.097   5.855
31514SOL     OW96374  11.430   5.350  13.936
31514SOL    HW196375  11.352   5.379  13.982
31514SOL    HW296376  11.441   5.414  13.865
31515SOL     OW96377   5.881  13.774  12.698
31515SOL    HW196378   5.898  13.866  12.678
31515SOL    HW296379   5.790  13.760  12.674
31516SOL     OW96380  10.120  12.999  10.368
31516SOL    HW196381  10.103  13.040  10.453
31516SOL    HW296382  10.035  12.996  10.326
31517SOL     OW96383   2.963  13.050   2.414
31517SOL    HW196384   2.891  13.109   2.438
31517SOL    HW296385   3.038  13.085   2.462
31518SOL     OW96386   7.529   8.475   9.969
31518SOL    HW196387   7.577   8.459   9.888
31518SOL    HW296388   7.553   8.402  10.026
31519SOL     OW96389   9.896   2.758   9.920
31519SOL    HW196390   9.850   2.675   9.905
31519SOL    HW296391   9.826   2.819   9.944
31520SOL     OW96392   4.484   0.803  11.228
31520SOL    HW196393   4.529   0.834  11.149
31520SOL    HW296394   4.531   0.724  11.252
31521SOL     OW96395  13.461  10.578   6.567
31521SOL    HW196396  13.490  10.574   6.476
31521SOL    HW296397  13.494  10.661   6.600
31522SOL     OW96398  10.983  11.168   2.697
31522SOL    HW196399  10.944  11.256   2.697
31522SOL    HW296400  11.016  11.157   2.608
31523SOL     OW96401   7.696   8.013   4.769
31523SOL    HW196402   7.620   8.065   4.795
31523SOL    HW296403   7.771   8.057   4.808
31524SOL     OW96404  11.204   7.675   0.005
31524SOL    HW196405  11.295   7.648  14.866
31524SOL    HW296406  11.159   7.596   0.034
31525SOL     OW96407  13.756  13.812   8.558
31525SOL    HW196408  13.850  13.828   8.568
31525SOL    HW296409  13.750  13.717   8.545
31526SOL     OW96410  13.490   5.664  10.364
31526SOL    HW196411  13.504   5.729  10.433
31526SOL    HW296412  13.437   5.596  10.406
31527SOL     OW96413  13.803   4.471   4.378
31527SOL    HW196414  13.785   4.388   4.333
31527SOL    HW296415  13.732   4.479   4.442
31528SOL     OW96416  13.266   4.430  12.763
31528SOL    HW196417  13.292   4.403  12.851
31528SOL    HW296418  13.177   4.463  12.774
31529SOL     OW96419   8.376   1.917   7.093
31529SOL    HW196420   8.313   1.957   7.153
31529SOL    HW296421   8.430   1.860   7.148
31530SOL     OW96422   5.025   8.417  10.446
31530SOL    HW196423   5.099   8.477  10.459
31530SOL    HW296424   4.949   8.464  10.482
31531SOL     OW96425   9.861   6.475   3.922
31531SOL    HW196426   9.903   6.558   3.945
31531SOL    HW296427   9.930   6.410   3.932
31532SOL     OW96428  13.900   3.997   5.533
31532SOL    HW196429  13.885   4.077   5.583
31532SOL    HW296430  13.944   4.026   5.453
31533SOL     OW96431   3.152  11.509   3.943
31533SOL    HW196432   3.208  11.440   3.905
31533SOL    HW296433   3.211  11.583   3.954
31534SOL     OW96434  12.379  10.809  12.372
31534SOL    HW196435  12.420  10.729  12.338
31534SOL    HW296436  12.360  10.789  12.464
31535SOL     OW96437   8.602  13.044   9.782
31535SOL    HW196438   8.674  13.074   9.838
31535SOL    HW296439   8.537  13.114   9.786
31536SOL     OW96440   3.903   2.066   5.565
31536SOL    HW196441   3.980   2.053   5.620
31536SOL    HW296442   3.914   2.005   5.493
31537SOL     OW96443  11.662  10.672   6.304
31537SOL    HW196444  11.676  10.633   6.390
31537SOL    HW296445  11.748  10.672   6.263
31538SOL     OW96446  14.525   5.313  13.290
31538SOL    HW196447  14.531   5.378  13.221
31538SOL    HW296448  14.469   5.244  13.253
31539SOL     OW96449   6.218  12.511   3.681
31539SOL    HW196450   6.211  12.416   3.681
31539SOL    HW296451   6.312  12.529   3.690
31540SOL     OW96452   3.772   2.583  13.646
31540SOL    HW196453   3.833   2.519  13.685
31540SOL    HW296454   3.814   2.608  13.564
31541SOL     OW96455   0.299   1.189   0.246
31541SOL    HW196456   0.315   1.199   0.152
31541SOL    HW296457   0.210   1.154   0.252
31542SOL     OW96458   4.805   2.337   2.316
31542SOL    HW196459   4.746   2.404   2.348
31542SOL    HW296460   4.888   2.383   2.301
31543SOL     OW96461   9.592   8.361  12.960
31543SOL    HW196462   9.663   8.297  12.970
31543SOL    HW296463   9.618   8.435  13.016
31544SOL     OW96464   8.323  13.885  12.202
31544SOL    HW196465   8.411  13.870  12.237
31544SOL    HW296466   8.265  13.871  12.277
31545SOL     OW96467   5.809   2.388   6.145
31545SOL    HW196468   5.781   2.296   6.146
31545SOL    HW296469   5.904   2.383   6.156
31546SOL     OW96470  13.673   1.580  13.169
31546SOL    HW196471  13.700   1.670  13.150
31546SOL    HW296472  13.680   1.535  13.085
31547SOL     OW96473   2.687   2.391  13.709
31547SOL    HW196474   2.592   2.399  13.698
31547SOL    HW296475   2.721   2.479  13.695
31548SOL     OW96476   3.913   3.412  13.753
31548SOL    HW196477   3.930   3.449  13.666
31548SOL    HW296478   3.860   3.478  13.797
31549SOL     OW96479   2.862   6.248   2.109
31549SOL    HW196480   2.819   6.283   2.187
31549SOL    HW296481   2.951   6.283   2.113
31550SOL     OW96482   9.256   1.154   3.009
31550SOL    HW196483   9.235   1.244   2.985
31550SOL    HW296484   9.326   1.163   3.075
31551SOL     OW96485   5.924   5.627   0.446
31551SOL    HW196486   5.830   5.639   0.460
31551SOL    HW296487   5.963   5.636   0.533
31552SOL     OW96488   8.099   3.425   6.121
31552SOL    HW196489   8.152   3.356   6.163
31552SOL    HW296490   8.158   3.500   6.115
31553SOL     OW96491   4.832   1.928  13.385
31553SOL    HW196492   4.900   1.973  13.436
31553SOL    HW296493   4.876   1.904  13.303
31554SOL     OW96494   9.605   3.543   5.260
31554SOL    HW196495   9.599   3.473   5.195
31554SOL    HW296496   9.651   3.614   5.215
31555SOL     OW96497   4.064   5.624   7.977
31555SOL    HW196498   4.139   5.639   8.034
31555SOL    HW296499   4.017   5.707   7.976
31556SOL     OW96500   9.509   9.036   8.125
31556SOL    HW196501   9.450   8.964   8.149
31556SOL    HW296502   9.461   9.084   8.057
31557SOL     OW96503  14.508   7.467  14.360
31557SOL    HW196504  14.547   7.509  14.284
31557SOL    HW296505  14.433   7.418  14.326
31558SOL     OW96506   9.304   4.767   8.558
31558SOL    HW196507   9.341   4.678   8.554
31558SOL    HW296508   9.378   4.822   8.582
31559SOL     OW96509   6.543  13.711   6.669
31559SOL    HW196510   6.586  13.792   6.639
31559SOL    HW296511   6.501  13.676   6.590
31560SOL     OW96512  11.410   3.683  11.556
31560SOL    HW196513  11.338   3.681  11.619
31560SOL    HW296514  11.481   3.634  11.599
31561SOL     OW96515  11.352   8.073   1.320
31561SOL    HW196516  11.283   8.021   1.278
31561SOL    HW296517  11.402   8.009   1.371
31562SOL     OW96518   8.825   1.129   8.196
31562SOL    HW196519   8.908   1.149   8.239
31562SOL    HW296520   8.759   1.140   8.264
31563SOL     OW96521  10.948   1.791   9.667
31563SOL    HW196522  10.912   1.772   9.754
31563SOL    HW296523  10.918   1.880   9.647
31564SOL     OW96524   2.270  10.073  11.784
31564SOL    HW196525   2.244  10.113  11.866
31564SOL    HW296526   2.300  10.146  11.730
31565SOL     OW96527  11.554  10.223   4.572
31565SOL    HW196528  11.516  10.293   4.520
31565SOL    HW296529  11.481  10.184   4.619
31566SOL     OW96530   8.491   6.863  13.509
31566SOL    HW196531   8.574   6.904  13.484
31566SOL    HW296532   8.500   6.772  13.479
31567SOL     OW96533   8.841   7.625  13.790
31567SOL    HW196534   8.838   7.564  13.717
31567SOL    HW296535   8.794   7.581  13.861
31568SOL     OW96536   9.660   3.406   6.304
31568SOL    HW196537   9.688   3.458   6.229
31568SOL    HW296538   9.677   3.315   6.279
31569SOL     OW96539   3.727   2.159   7.763
31569SOL    HW196540   3.738   2.220   7.836
31569SOL    HW296541   3.765   2.077   7.796
31570SOL     OW96542  11.364  10.023   6.301
31570SOL    HW196543  11.360  10.032   6.206
31570SOL    HW296544  11.317   9.942   6.320
31571SOL     OW96545  11.544  13.866  11.190
31571SOL    HW196546  11.461  13.913  11.178
31571SOL    HW296547  11.563  13.874  11.283
31572SOL     OW96548   5.070   4.777   5.229
31572SOL    HW196549   5.082   4.750   5.138
31572SOL    HW296550   5.085   4.697   5.280
31573SOL     OW96551   5.370  11.199   0.625
31573SOL    HW196552   5.313  11.174   0.698
31573SOL    HW296553   5.311  11.225   0.555
31574SOL     OW96554   9.651  10.996   5.225
31574SOL    HW196555   9.725  10.939   5.202
31574SOL    HW296556   9.614  11.023   5.141
31575SOL     OW96557   9.892  13.609   8.900
31575SOL    HW196558   9.867  13.656   8.820
31575SOL    HW296559   9.844  13.654   8.969
31576SOL     OW96560   6.368   3.196  14.469
31576SOL    HW196561   6.322   3.152  14.398
31576SOL    HW296562   6.414   3.126  14.515
31577SOL     OW96563   5.428  13.008   2.034
31577SOL    HW196564   5.522  13.016   2.054
31577SOL    HW296565   5.400  13.098   2.015
31578SOL     OW96566   6.908   8.161   7.036
31578SOL    HW196567   6.963   8.239   7.039
31578SOL    HW296568   6.875   8.152   7.126
31579SOL     OW96569   5.734  13.173   6.305
31579SOL    HW196570   5.765  13.259   6.277
31579SOL    HW296571   5.725  13.123   6.225
31580SOL     OW96572   7.883   4.781  12.623
31580SOL    HW196573   7.869   4.869  12.588
31580SOL    HW296574   7.841   4.782  12.709
31581SOL     OW96575  10.890   0.236  11.481
31581SOL    HW196576  10.980   0.264  11.499
31581SOL    HW296577  10.836   0.289  11.540
31582SOL     OW96578   9.640   3.776   7.739
31582SOL    HW196579   9.726   3.810   7.761
31582SOL    HW296580   9.607   3.836   7.672
31583SOL     OW96581   5.118   8.631   4.045
31583SOL    HW196582   5.090   8.716   4.012
31583SOL    HW296583   5.108   8.572   3.970
31584SOL     OW96584   4.372  14.068   3.243
31584SOL    HW196585   4.386  14.124   3.319
31584SOL    HW296586   4.358  13.981   3.280
31585SOL     OW96587   9.033  13.178  10.748
31585SOL    HW196588   9.006  13.263  10.783
31585SOL    HW296589   9.127  13.173  10.767
31586SOL     OW96590   5.603   0.211   1.445
31586SOL    HW196591   5.514   0.237   1.470
31586SOL    HW296592   5.613   0.244   1.356
31587SOL     OW96593   7.114  14.248   7.323
31587SOL    HW196594   7.169  14.200   7.261
31587SOL    HW296595   7.171  14.264   7.398
31588SOL     OW96596  10.630   9.895   1.273
31588SOL    HW196597  10.666   9.890   1.361
31588SOL    HW296598  10.542   9.933   1.285
31589SOL     OW96599  10.750   7.020  14.849
31589SOL    HW196600  10.794   7.071  14.781
31589SOL    HW296601  10.801   7.036   0.055
31590SOL     OW96602  12.922   3.895  12.263
31590SOL    HW196603  12.989   3.835  12.230
31590SOL    HW296604  12.967   3.978  12.272
31591SOL     OW96605   2.480   1.938   0.863
31591SOL    HW196606   2.420   1.976   0.799
31591SOL    HW296607   2.496   1.849   0.831
31592SOL     OW96608  12.926   0.953  10.493
31592SOL    HW196609  13.004   0.898  10.487
31592SOL    HW296610  12.910   0.980  10.402
31593SOL     OW96611   3.132   7.215   4.007
31593SOL    HW196612   3.225   7.223   4.028
31593SOL    HW296613   3.089   7.205   4.092
31594SOL     OW96614  13.350   6.252  11.761
31594SOL    HW196615  13.309   6.308  11.827
31594SOL    HW296616  13.278   6.197  11.729
31595SOL     OW96617  14.637   6.613   7.519
31595SOL    HW196618  14.650   6.636   7.427
31595SOL    HW296619  14.673   6.687   7.568
31596SOL     OW96620  11.552   0.015   6.763
31596SOL    HW196621  11.516  14.849   6.843
31596SOL    HW296622  11.480   0.069   6.728
31597SOL     OW96623   3.585   7.847   9.763
31597SOL    HW196624   3.556   7.826   9.674
31597SOL    HW296625   3.568   7.768   9.813
31598SOL     OW96626  13.226  13.401   0.401
31598SOL    HW196627  13.315  13.378   0.376
31598SOL    HW296628  13.171  13.336   0.358
31599SOL     OW96629   8.594   1.063  10.980
31599SOL    HW196630   8.626   1.141  11.027
31599SOL    HW296631   8.503   1.084  10.958
31600SOL     OW96632   8.670   2.826   9.201
31600SOL    HW196633   8.624   2.902   9.163
31600SOL    HW296634   8.603   2.758   9.206
31601SOL     OW96635   4.174   3.041  12.039
31601SOL    HW196636   4.140   3.057  12.127
31601SOL    HW296637   4.194   3.127  12.004
31602SOL     OW96638   9.254  12.360   4.496
31602SOL    HW196639   9.298  12.417   4.558
31602SOL    HW296640   9.172  12.337   4.538
31603SOL     OW96641   2.613   6.158  14.013
31603SOL    HW196642   2.556   6.233  14.001
31603SOL    HW296643   2.554   6.082  14.015
31604SOL     OW96644  11.088   1.537   1.964
31604SOL    HW196645  11.130   1.623   1.971
31604SOL    HW296646  11.117   1.503   1.880
31605SOL     OW96647  10.764  14.187   1.697
31605SOL    HW196648  10.703  14.204   1.769
31605SOL    HW296649  10.750  14.259   1.636
31606SOL     OW96650   6.444   8.521   7.976
31606SOL    HW196651   6.392   8.445   7.949
31606SOL    HW296652   6.476   8.498   8.063
31607SOL     OW96653   3.758  11.370   8.020
31607SOL    HW196654   3.703  11.302   8.059
31607SOL    HW296655   3.819  11.322   7.965
31608SOL     OW96656   4.708   7.371   7.757
31608SOL    HW196657   4.635   7.332   7.806
31608SOL    HW296658   4.669   7.448   7.714
31609SOL     OW96659  10.919  12.347  10.822
31609SOL    HW196660  10.998  12.317  10.777
31609SOL    HW296661  10.932  12.442  10.834
31610SOL     OW96662   3.040  11.277  13.686
31610SOL    HW196663   2.990  11.273  13.767
31610SOL    HW296664   3.002  11.349  13.636
31611SOL     OW96665   1.716   3.429  14.618
31611SOL    HW196666   1.626   3.460  14.619
31611SOL    HW296667   1.715   3.350  14.672
31612SOL     OW96668   5.094  12.026  12.435
31612SOL    HW196669   5.049  12.025  12.520
31612SOL    HW296670   5.074  11.941  12.397
31613SOL     OW96671  11.201  14.588   0.848
31613SOL    HW196672  11.123  14.570   0.796
31613SOL    HW296673  11.218  14.682   0.835
31614SOL     OW96674   1.568  11.972   1.340
31614SOL    HW196675   1.495  11.945   1.285
31614SOL    HW296676   1.644  11.930   1.301
31615SOL     OW96677   1.990  12.005   3.586
31615SOL    HW196678   1.917  11.953   3.553
31615SOL    HW296679   2.055  11.940   3.614
31616SOL     OW96680   6.285   0.997  10.963
31616SOL    HW196681   6.286   0.982  10.869
31616SOL    HW296682   6.193   0.987  10.988
31617SOL     OW96683   9.170   5.296   0.426
31617SOL    HW196684   9.079   5.268   0.426
31617SOL    HW296685   9.175   5.361   0.496
31618SOL     OW96686   5.972  11.229   3.993
31618SOL    HW196687   6.050  11.265   3.951
31618SOL    HW296688   5.910  11.217   3.921
31619SOL     OW96689  13.861  14.173   2.591
31619SOL    HW196690  13.780  14.207   2.552
31619SOL    HW296691  13.928  14.236   2.565
31620SOL     OW96692  11.590   4.870  12.902
31620SOL    HW196693  11.601   4.954  12.857
31620SOL    HW296694  11.611   4.889  12.994
31621SOL     OW96695  12.355  13.692   6.347
31621SOL    HW196696  12.304  13.611   6.339
31621SOL    HW296697  12.436  13.674   6.299
31622SOL     OW96698   1.888   7.367   5.317
31622SOL    HW196699   1.863   7.293   5.262
31622SOL    HW296700   1.873   7.336   5.406
31623SOL     OW96701   6.803   3.681   4.213
31623SOL    HW196702   6.775   3.773   4.214
31623SOL    HW296703   6.880   3.680   4.270
31624SOL     OW96704   8.687   7.027   9.164
31624SOL    HW196705   8.595   7.036   9.188
31624SOL    HW296706   8.734   7.030   9.247
31625SOL     OW96707   5.280   8.507   3.357
31625SOL    HW196708   5.269   8.602   3.349
31625SOL    HW296709   5.198   8.477   3.394
31626SOL     OW96710   7.219  10.093  11.315
31626SOL    HW196711   7.163  10.120  11.243
31626SOL    HW296712   7.294  10.051  11.272
31627SOL     OW96713   6.398   1.778   9.264
31627SOL    HW196714   6.358   1.708   9.214
31627SOL    HW296715   6.421   1.844   9.198
31628SOL     OW96716   2.951   7.352   7.573
31628SOL    HW196717   3.026   7.408   7.595
31628SOL    HW296718   2.982   7.296   7.503
31629SOL     OW96719  12.167  11.445   7.931
31629SOL    HW196720  12.076  11.458   7.904
31629SOL    HW296721  12.161  11.402   8.016
31630SOL     OW96722  14.168  14.144   5.050
31630SOL    HW196723  14.222  14.133   4.972
31630SOL    HW296724  14.135  14.233   5.045
31631SOL     OW96725  12.036   0.952  13.409
31631SOL    HW196726  11.991   0.982  13.330
31631SOL    HW296727  11.967   0.911  13.461
31632SOL     OW96728   1.777   5.630  11.501
31632SOL    HW196729   1.851   5.571  11.515
31632SOL    HW296730   1.700   5.573  11.506
31633SOL     OW96731  11.290   2.734   4.946
31633SOL    HW196732  11.317   2.719   5.037
31633SOL    HW296733  11.201   2.698   4.942
31634SOL     OW96734  10.885   9.473  13.256
31634SOL    HW196735  10.814   9.534  13.240
31634SOL    HW296736  10.964   9.527  13.260
31635SOL     OW96737   6.527   0.489   8.035
31635SOL    HW196738   6.562   0.410   8.077
31635SOL    HW296739   6.467   0.526   8.100
31636SOL     OW96740   9.368   3.176   7.178
31636SOL    HW196741   9.281   3.159   7.142
31636SOL    HW296742   9.404   3.089   7.195
31637SOL     OW96743   3.399   2.927   6.813
31637SOL    HW196744   3.463   2.909   6.882
31637SOL    HW296745   3.385   2.843   6.770
31638SOL     OW96746   5.823   2.297  11.400
31638SOL    HW196747   5.732   2.321  11.413
31638SOL    HW296748   5.846   2.247  11.479
31639SOL     OW96749  12.321   9.998  10.895
31639SOL    HW196750  12.344  10.081  10.854
31639SOL    HW296751  12.341   9.932  10.829
31640SOL     OW96752  13.416   0.730   6.774
31640SOL    HW196753  13.332   0.773   6.787
31640SOL    HW296754  13.416   0.703   6.682
31641SOL     OW96755   6.236   1.389   5.520
31641SOL    HW196756   6.169   1.376   5.587
31641SOL    HW296757   6.238   1.484   5.507
31642SOL     OW96758   6.404   0.052   1.394
31642SOL    HW196759   6.308   0.054   1.388
31642SOL    HW296760   6.431   0.141   1.370
31643SOL     OW96761   6.146   7.821   2.456
31643SOL    HW196762   6.230   7.787   2.425
31643SOL    HW296763   6.135   7.783   2.543
31644SOL     OW96764  10.748   8.455   9.241
31644SOL    HW196765  10.728   8.458   9.147
31644SOL    HW296766  10.812   8.525   9.254
31645SOL     OW96767   1.504   7.906   8.654
31645SOL    HW196768   1.498   7.813   8.629
31645SOL    HW296769   1.578   7.909   8.714
31646SOL     OW96770  13.270   4.386   2.537
31646SOL    HW196771  13.267   4.427   2.623
31646SOL    HW296772  13.355   4.342   2.535
31647SOL     OW96773   0.513  12.917   0.808
31647SOL    HW196774   0.425  12.894   0.780
31647SOL    HW296775   0.526  13.006   0.775
31648SOL     OW96776   5.921  13.913   5.046
31648SOL    HW196777   5.916  13.824   5.013
31648SOL    HW296778   5.838  13.953   5.021
31649SOL     OW96779  11.854  10.218   2.895
31649SOL    HW196780  11.801  10.145   2.927
31649SOL    HW296781  11.799  10.295   2.905
31650SOL     OW96782   8.770  14.149  10.691
31650SOL    HW196783   8.819  14.117  10.767
31650SOL    HW296784   8.837  14.161  10.623
31651SOL     OW96785   4.221   5.553   3.712
31651SOL    HW196786   4.276   5.630   3.696
31651SOL    HW296787   4.139   5.573   3.666
31652SOL     OW96788   5.523   0.822  11.594
31652SOL    HW196789   5.595   0.841  11.654
31652SOL    HW296790   5.480   0.906  11.579
31653SOL     OW96791   3.870   0.634   9.906
31653SOL    HW196792   3.787   0.659   9.946
31653SOL    HW296793   3.918   0.717   9.897
31654SOL     OW96794  13.960   3.953  11.673
31654SOL    HW196795  13.965   4.034  11.623
31654SOL    HW296796  13.880   3.910  11.642
31655SOL     OW96797  10.298   4.697  10.006
31655SOL    HW196798  10.235   4.764   9.979
31655SOL    HW296799  10.316   4.647   9.926
31656SOL     OW96800  13.909   1.419   4.620
31656SOL    HW196801  13.933   1.512   4.625
31656SOL    HW296802  13.913   1.389   4.711
31657SOL     OW96803   2.241   4.315   0.422
31657SOL    HW196804   2.225   4.361   0.505
31657SOL    HW296805   2.160   4.269   0.404
31658SOL     OW96806   1.619   4.750  10.704
31658SOL    HW196807   1.598   4.687  10.636
31658SOL    HW296808   1.639   4.831  10.656
31659SOL     OW96809  11.636   3.014   9.377
31659SOL    HW196810  11.554   2.977   9.411
31659SOL    HW296811  11.700   2.997   9.446
31660SOL     OW96812  10.815   8.865   6.339
31660SOL    HW196813  10.875   8.891   6.409
31660SOL    HW296814  10.842   8.776   6.316
31661SOL     OW96815   4.015   0.358   5.364
31661SOL    HW196816   4.049   0.443   5.335
31661SOL    HW296817   3.921   0.363   5.350
31662SOL     OW96818  14.358   7.672   2.806
31662SOL    HW196819  14.377   7.694   2.897
31662SOL    HW296820  14.369   7.577   2.801
31663SOL     OW96821   8.307   9.543  12.052
31663SOL    HW196822   8.370   9.614  12.054
31663SOL    HW296823   8.355   9.470  12.012
31664SOL     OW96824  14.581   8.572   8.347
31664SOL    HW196825  14.525   8.546   8.274
31664SOL    HW296826  14.525   8.563   8.425
31665SOL     OW96827   4.818  12.962  10.546
31665SOL    HW196828   4.872  12.912  10.607
31665SOL    HW296829   4.728  12.935  10.565
31666SOL     OW96830  10.500  11.929   8.433
31666SOL    HW196831  10.421  11.876   8.441
31666SOL    HW296832  10.499  11.960   8.342
31667SOL     OW96833   9.299  11.426   6.881
31667SOL    HW196834   9.318  11.517   6.855
31667SOL    HW296835   9.298  11.429   6.977
31668SOL     OW96836  11.590   6.995   3.034
31668SOL    HW196837  11.506   6.950   3.047
31668SOL    HW296838  11.648   6.958   3.101
31669SOL     OW96839  13.934   5.957   6.318
31669SOL    HW196840  13.852   6.004   6.309
31669SOL    HW296841  13.978   5.969   6.233
31670SOL     OW96842   2.616   1.137   7.288
31670SOL    HW196843   2.637   1.095   7.204
31670SOL    HW296844   2.653   1.079   7.354
31671SOL     OW96845   3.306  12.270  10.525
31671SOL    HW196846   3.284  12.253  10.433
31671SOL    HW296847   3.223  12.290  10.566
31672SOL     OW96848  11.784   4.951   9.631
31672SOL    HW196849  11.731   4.913   9.701
31672SOL    HW296850  11.741   5.034   9.611
31673SOL     OW96851   1.646  10.810   3.879
31673SOL    HW196852   1.673  10.883   3.934
31673SOL    HW296853   1.580  10.764   3.931
31674SOL     OW96854   6.548   8.498  11.486
31674SOL    HW196855   6.455   8.479  11.469
31674SOL    HW296856   6.546   8.563  11.556
31675SOL     OW96857   5.013   4.489   1.717
31675SOL    HW196858   4.992   4.582   1.723
31675SOL    HW296859   4.953   4.454   1.651
31676SOL     OW96860   3.567   8.062   9.058
31676SOL    HW196861   3.606   7.974   9.062
31676SOL    HW296862   3.596   8.105   9.138
31677SOL     OW96863  13.157   6.573   0.392
31677SOL    HW196864  13.250   6.558   0.376
31677SOL    HW296865  13.147   6.564   0.487
31678SOL     OW96866  13.558   2.894  11.788
31678SOL    HW196867  13.576   2.950  11.713
31678SOL    HW296868  13.483   2.841  11.761
31679SOL     OW96869   6.794   3.782   6.902
31679SOL    HW196870   6.707   3.812   6.928
31679SOL    HW296871   6.788   3.770   6.807
31680SOL     OW96872   6.586   0.450  10.665
31680SOL    HW196873   6.641   0.502  10.607
31680SOL    HW296874   6.586   0.499  10.748
31681SOL     OW96875   5.743  13.313   0.708
31681SOL    HW196876   5.694  13.232   0.694
31681SOL    HW296877   5.821  13.286   0.755
31682SOL     OW96878  14.203  12.949  11.250
31682SOL    HW196879  14.256  12.891  11.304
31682SOL    HW296880  14.177  13.020  11.309
31683SOL     OW96881   2.289   2.299  12.189
31683SOL    HW196882   2.230   2.326  12.259
31683SOL    HW296883   2.365   2.263  12.235
31684SOL     OW96884   8.225  13.057   1.130
31684SOL    HW196885   8.186  13.105   1.203
31684SOL    HW296886   8.310  13.099   1.116
31685SOL     OW96887   8.895  14.767   6.343
31685SOL    HW196888   8.946  14.794   6.266
31685SOL    HW296889   8.905  14.840   6.405
31686SOL     OW96890   9.697   2.154   1.753
31686SOL    HW196891   9.733   2.111   1.676
31686SOL    HW296892   9.773   2.178   1.805
31687SOL     OW96893   5.803   8.696  12.128
31687SOL    HW196894   5.762   8.737  12.052
31687SOL    HW296895   5.826   8.769  12.186
31688SOL     OW96896  14.042   4.340   4.826
31688SOL    HW196897  13.956   4.368   4.795
31688SOL    HW296898  14.104   4.391   4.773
31689SOL     OW96899   3.135  12.357   2.153
31689SOL    HW196900   3.049  12.315   2.160
31689SOL    HW296901   3.129  12.433   2.210
31690SOL     OW96902  10.398   4.834  10.503
31690SOL    HW196903  10.308   4.858  10.526
31690SOL    HW296904  10.391   4.747  10.464
31691SOL     OW96905  12.096   3.420  11.334
31691SOL    HW196906  12.106   3.372  11.416
31691SOL    HW296907  12.012   3.465  11.343
31692SOL     OW96908   7.250   6.012  14.794
31692SOL    HW196909   7.308   5.940  14.819
31692SOL    HW296910   7.263   6.077  14.863
31693SOL     OW96911   5.581   4.438   4.733
31693SOL    HW196912   5.670   4.473   4.727
31693SOL    HW296913   5.569   4.419   4.826
31694SOL     OW96914   7.232  11.936   7.430
31694SOL    HW196915   7.240  11.842   7.448
31694SOL    HW296916   7.151  11.962   7.474
31695SOL     OW96917  10.913  14.372  11.193
31695SOL    HW196918  10.947  14.427  11.122
31695SOL    HW296919  10.910  14.430  11.269
31696SOL     OW96920  14.565  14.079  11.896
31696SOL    HW196921  14.649  14.036  11.913
31696SOL    HW296922  14.554  14.075  11.801
31697SOL     OW96923   4.864   5.783   4.852
31697SOL    HW196924   4.770   5.792   4.866
31697SOL    HW296925   4.872   5.731   4.772
31698SOL     OW96926  11.705  10.427   2.898
31698SOL    HW196927  11.618  10.387   2.905
31698SOL    HW296928  11.700  10.505   2.953
31699SOL     OW96929   8.208   7.767   7.203
31699SOL    HW196930   8.253   7.686   7.179
31699SOL    HW296931   8.186   7.808   7.119
31700SOL     OW96932  14.378   1.588   5.183
31700SOL    HW196933  14.385   1.498   5.216
31700SOL    HW296934  14.299   1.623   5.224
31701SOL     OW96935   6.086   1.735   8.959
31701SOL    HW196936   6.050   1.777   8.881
31701SOL    HW296937   6.010   1.715   9.014
31702SOL     OW96938   3.906   8.077   7.721
31702SOL    HW196939   3.949   8.099   7.803
31702SOL    HW296940   3.874   7.988   7.733
31703SOL     OW96941  10.033  10.235   7.423
31703SOL    HW196942  10.006  10.299   7.356
31703SOL    HW296943  10.002  10.151   7.388
31704SOL     OW96944   7.202   1.723   7.355
31704SOL    HW196945   7.154   1.675   7.423
31704SOL    HW296946   7.218   1.809   7.393
31705SOL     OW96947  12.405   1.014  12.743
31705SOL    HW196948  12.316   1.044  12.726
31705SOL    HW296949  12.455   1.041  12.666
31706SOL     OW96950  10.657  13.491   5.381
31706SOL    HW196951  10.743  13.529   5.360
31706SOL    HW296952  10.653  13.493   5.477
31707SOL     OW96953  10.882  10.860  13.462
31707SOL    HW196954  10.846  10.947  13.480
31707SOL    HW296955  10.809  10.811  13.425
31708SOL     OW96956   2.864  10.278  11.913
31708SOL    HW196957   2.941  10.332  11.899
31708SOL    HW296958   2.845  10.287  12.007
31709SOL     OW96959   0.012   8.881   7.664
31709SOL    HW196960   0.011   8.937   7.587
31709SOL    HW296961   0.101   8.890   7.698
31710SOL     OW96962   9.109   5.788  14.500
31710SOL    HW196963   9.064   5.857  14.451
31710SOL    HW296964   9.103   5.815  14.591
31711SOL     OW96965  12.873   3.189   2.332
31711SOL    HW196966  12.847   3.136   2.257
31711SOL    HW296967  12.947   3.242   2.300
31712SOL     OW96968   4.675   9.284   6.284
31712SOL    HW196969   4.759   9.253   6.251
31712SOL    HW296970   4.680   9.270   6.378
31713SOL     OW96971   2.255  12.035  10.169
31713SOL    HW196972   2.229  12.115  10.123
31713SOL    HW296973   2.314  11.990  10.107
31714SOL     OW96974   4.508   8.434   2.514
31714SOL    HW196975   4.527   8.462   2.424
31714SOL    HW296976   4.421   8.394   2.509
31715SOL     OW96977   4.114   6.269   4.432
31715SOL    HW196978   4.159   6.341   4.388
31715SOL    HW296979   4.024   6.275   4.401
31716SOL     OW96980  11.376  12.206  11.702
31716SOL    HW196981  11.290  12.224  11.663
31716SOL    HW296982  11.429  12.173  11.629
31717SOL     OW96983  11.721  11.977   6.209
31717SOL    HW196984  11.669  11.979   6.289
31717SOL    HW296985  11.729  12.069   6.184
31718SOL     OW96986   8.880   3.137   3.660
31718SOL    HW196987   8.815   3.206   3.673
31718SOL    HW296988   8.882   3.124   3.565
31719SOL     OW96989  12.025  11.870   9.728
31719SOL    HW196990  11.981  11.924   9.793
31719SOL    HW296991  12.113  11.856   9.763
31720SOL     OW96992   4.328   5.758  13.290
31720SOL    HW196993   4.380   5.826  13.248
31720SOL    HW296994   4.386   5.682  13.293
31721SOL     OW96995   1.818   4.929  13.529
31721SOL    HW196996   1.812   4.956  13.438
31721SOL    HW296997   1.776   4.843  13.532
31722SOL     OW96998  11.015   2.295  11.123
31722SOL    HW196999  10.971   2.319  11.205
31722SOL    HW297000  10.991   2.203  11.109
31723SOL     OW97001   0.147   2.237   2.356
31723SOL    HW197002   0.073   2.291   2.383
31723SOL    HW297003   0.223   2.276   2.399
31724SOL     OW97004   7.512  13.041   5.663
31724SOL    HW197005   7.523  13.052   5.569
31724SOL    HW297006   7.432  12.989   5.672
31725SOL     OW97007   1.540   5.420  10.671
31725SOL    HW197008   1.532   5.365  10.594
31725SOL    HW297009   1.462   5.476  10.670
31726SOL     OW97010   0.939   7.683  13.158
31726SOL    HW197011   0.955   7.620  13.089
31726SOL    HW297012   0.913   7.631  13.234
31727SOL     OW97013   1.016   6.409  12.247
31727SOL    HW197014   1.082   6.415  12.177
31727SOL    HW297015   1.067   6.409  12.328
31728SOL     OW97016   7.732   9.603   6.419
31728SOL    HW197017   7.690   9.526   6.459
31728SOL    HW297018   7.825   9.583   6.423
31729SOL     OW97019   5.210  12.152  10.836
31729SOL    HW197020   5.207  12.121  10.927
31729SOL    HW297021   5.281  12.102  10.796
31730SOL     OW97022   3.576   9.544   2.173
31730SOL    HW197023   3.532   9.462   2.194
31730SOL    HW297024   3.628   9.564   2.251
31731SOL     OW97025   1.156   1.226   6.720
31731SOL    HW197026   1.072   1.263   6.748
31731SOL    HW297027   1.220   1.261   6.783
31732SOL     OW97028   6.292  10.418   4.227
31732SOL    HW197029   6.264  10.472   4.153
31732SOL    HW297030   6.223  10.429   4.293
31733SOL     OW97031   7.652   2.894   7.091
31733SOL    HW197032   7.675   2.893   6.998
31733SOL    HW297033   7.686   2.811   7.125
31734SOL     OW97034  14.051   8.415   1.140
31734SOL    HW197035  14.063   8.322   1.122
31734SOL    HW297036  14.045   8.421   1.235
31735SOL     OW97037   0.311   3.291  10.429
31735SOL    HW197038   0.303   3.340  10.346
31735SOL    HW297039   0.264   3.210  10.413
31736SOL     OW97040   7.558   1.726   5.886
31736SOL    HW197041   7.619   1.654   5.905
31736SOL    HW297042   7.578   1.752   5.797
31737SOL     OW97043  12.268  13.579   3.330
31737SOL    HW197044  12.246  13.670   3.348
31737SOL    HW297045  12.361  13.572   3.352
31738SOL     OW97046  13.642  14.264  11.970
31738SOL    HW197047  13.689  14.346  11.977
31738SOL    HW297048  13.558  14.281  12.013
31739SOL     OW97049   1.354  13.544   4.972
31739SOL    HW197050   1.427  13.518   5.028
31739SOL    HW297051   1.298  13.597   5.030
31740SOL     OW97052  11.961   7.378  14.531
31740SOL    HW197053  12.024   7.442  14.564
31740SOL    HW297054  11.960   7.308  14.596
31741SOL     OW97055   5.335  14.369   2.087
31741SOL    HW197056   5.362  14.378   1.996
31741SOL    HW297057   5.417  14.378   2.137
31742SOL     OW97058  12.487   0.862   2.370
31742SOL    HW197059  12.431   0.796   2.329
31742SOL    HW297060  12.527   0.816   2.444
31743SOL     OW97061   3.766  10.914  14.179
31743SOL    HW197062   3.807  10.885  14.097
31743SOL    HW297063   3.681  10.870  14.180
31744SOL     OW97064  13.516   1.081   7.641
31744SOL    HW197065  13.499   1.174   7.628
31744SOL    HW297066  13.499   1.065   7.733
31745SOL     OW97067  12.648   0.308   8.732
31745SOL    HW197068  12.596   0.361   8.791
31745SOL    HW297069  12.731   0.294   8.778
31746SOL     OW97070   8.620   6.534   4.785
31746SOL    HW197071   8.700   6.515   4.833
31746SOL    HW297072   8.551   6.492   4.837
31747SOL     OW97073  11.400   3.322  13.959
31747SOL    HW197074  11.363   3.410  13.962
31747SOL    HW297075  11.489   3.332  13.992
31748SOL     OW97076   8.500  11.672   6.148
31748SOL    HW197077   8.512  11.704   6.059
31748SOL    HW297078   8.549  11.589   6.151
31749SOL     OW97079   2.945  13.617   9.877
31749SOL    HW197080   2.977  13.543   9.930
31749SOL    HW297081   3.001  13.615   9.799
31750SOL     OW97082   4.617   3.413   8.903
31750SOL    HW197083   4.671   3.369   8.838
31750SOL    HW297084   4.574   3.341   8.950
31751SOL     OW97085   6.368   2.722   8.324
31751SOL    HW197086   6.453   2.696   8.360
31751SOL    HW297087   6.358   2.813   8.349
31752SOL     OW97088   0.539  10.104   4.686
31752SOL    HW197089   0.505  10.149   4.609
31752SOL    HW297090   0.572  10.174   4.742
31753SOL     OW97091   7.505  10.250   6.347
31753SOL    HW197092   7.438  10.186   6.371
31753SOL    HW297093   7.467  10.334   6.371
31754SOL     OW97094   5.552   9.244  11.901
31754SOL    HW197095   5.637   9.282  11.884
31754SOL    HW297096   5.492   9.319  11.905
31755SOL     OW97097   7.951   8.132  10.253
31755SOL    HW197098   7.967   8.215  10.208
31755SOL    HW297099   7.858   8.133  10.275
31756SOL     OW97100  10.458  12.610  11.793
31756SOL    HW197101  10.475  12.701  11.819
31756SOL    HW297102  10.480  12.559  11.871
31757SOL     OW97103  10.126   9.779   2.110
31757SOL    HW197104  10.034   9.792   2.129
31757SOL    HW297105  10.143   9.835   2.034
31758SOL     OW97106   2.899   6.647  11.239
31758SOL    HW197107   2.948   6.727  11.257
31758SOL    HW297108   2.837   6.672  11.170
31759SOL     OW97109   6.768   5.422   0.222
31759SOL    HW197110   6.784   5.515   0.212
31759SOL    HW297111   6.674   5.411   0.209
31760SOL     OW97112   5.344  12.048   5.866
31760SOL    HW197113   5.374  12.081   5.781
31760SOL    HW297114   5.349  11.953   5.859
31761SOL     OW97115   3.169  13.587  13.233
31761SOL    HW197116   3.253  13.576  13.187
31761SOL    HW297117   3.141  13.498  13.253
31762SOL     OW97118   8.296  10.179  14.104
31762SOL    HW197119   8.270  10.100  14.059
31762SOL    HW297120   8.214  10.225  14.124
31763SOL     OW97121  11.237   9.773   2.774
31763SOL    HW197122  11.322   9.742   2.802
31763SOL    HW297123  11.251   9.864   2.749
31764SOL     OW97124   0.192   4.240  13.710
31764SOL    HW197125   0.278   4.283  13.709
31764SOL    HW297126   0.162   4.247  13.800
31765SOL     OW97127   5.902   3.171  11.250
31765SOL    HW197128   5.942   3.118  11.319
31765SOL    HW297129   5.872   3.108  11.185
31766SOL     OW97130   2.321   1.624   2.828
31766SOL    HW197131   2.253   1.619   2.895
31766SOL    HW297132   2.391   1.677   2.869
31767SOL     OW97133  10.842   7.431  13.208
31767SOL    HW197134  10.893   7.451  13.130
31767SOL    HW297135  10.751   7.446  13.182
31768SOL     OW97136   5.497   4.458   5.629
31768SOL    HW197137   5.493   4.487   5.720
31768SOL    HW297138   5.563   4.389   5.629
31769SOL     OW97139   8.102  11.878   0.747
31769SOL    HW197140   8.049  11.942   0.795
31769SOL    HW297141   8.059  11.870   0.662
31770SOL     OW97142   9.340  13.137  11.796
31770SOL    HW197143   9.275  13.084  11.842
31770SOL    HW297144   9.373  13.197  11.862
31771SOL     OW97145   3.812  12.229  13.202
31771SOL    HW197146   3.821  12.154  13.261
31771SOL    HW297147   3.723  12.260  13.217
31772SOL     OW97148  11.845   1.927   7.422
31772SOL    HW197149  11.907   1.969   7.362
31772SOL    HW297150  11.873   1.954   7.509
31773SOL     OW97151   0.264  12.821  14.165
31773SOL    HW197152   0.195  12.887  14.151
31773SOL    HW297153   0.216  12.738  14.174
31774SOL     OW97154  13.127   6.678  13.075
31774SOL    HW197155  13.067   6.651  13.005
31774SOL    HW297156  13.074   6.674  13.155
31775SOL     OW97157   3.101  10.158  13.155
31775SOL    HW197158   3.134  10.068  13.160
31775SOL    HW297159   3.070  10.177  13.244
31776SOL     OW97160   2.164   9.615  14.796
31776SOL    HW197161   2.124   9.579  14.717
31776SOL    HW297162   2.091   9.633  14.854
31777SOL     OW97163   7.074   5.731   6.047
31777SOL    HW197164   7.150   5.682   6.080
31777SOL    HW297165   7.111   5.792   5.983
31778SOL     OW97166  14.781   1.095   4.120
31778SOL    HW197167  14.743   1.177   4.150
31778SOL    HW297168   0.001   1.115   4.108
31779SOL     OW97169   8.861  13.627  11.579
31779SOL    HW197170   8.885  13.705  11.529
31779SOL    HW297171   8.862  13.656  11.670
31780SOL     OW97172  11.092   1.768  10.928
31780SOL    HW197173  11.076   1.731  11.015
31780SOL    HW297174  11.187   1.780  10.924
31781SOL     OW97175   9.935   9.625   8.635
31781SOL    HW197176   9.863   9.565   8.656
31781SOL    HW297177   9.923   9.644   8.542
31782SOL     OW97178  11.785   6.319   1.991
31782SOL    HW197179  11.724   6.246   2.004
31782SOL    HW297180  11.871   6.280   1.999
31783SOL     OW97181  11.972   9.902   3.666
31783SOL    HW197182  11.893   9.955   3.659
31783SOL    HW297183  11.966   9.861   3.752
31784SOL     OW97184   3.279  13.246  10.223
31784SOL    HW197185   3.355  13.280  10.177
31784SOL    HW297186   3.275  13.154  10.198
31785SOL     OW97187   6.202   2.006  11.986
31785SOL    HW197188   6.166   2.082  11.940
31785SOL    HW297189   6.163   1.930  11.943
31786SOL     OW97190  12.949  11.963  10.025
31786SOL    HW197191  13.020  11.940   9.964
31786SOL    HW297192  12.965  11.908  10.102
31787SOL     OW97193  14.148  13.035   8.998
31787SOL    HW197194  14.100  13.022   8.916
31787SOL    HW297195  14.179  12.947   9.021
31788SOL     OW97196   6.882   8.508  12.927
31788SOL    HW197197   6.843   8.520  12.841
31788SOL    HW297198   6.912   8.417  12.928
31789SOL     OW97199   5.305   6.009  13.948
31789SOL    HW197200   5.268   6.082  13.899
31789SOL    HW297201   5.358   6.050  14.017
31790SOL     OW97202   7.731  14.071  10.249
31790SOL    HW197203   7.822  14.039  10.252
31790SOL    HW297204   7.739  14.166  10.241
31791SOL     OW97205   1.033  11.644   0.190
31791SOL    HW197206   1.045  11.571   0.129
31791SOL    HW297207   0.965  11.698   0.150
31792SOL     OW97208   4.128   5.883  13.429
31792SOL    HW197209   4.137   5.852  13.520
31792SOL    HW297210   4.204   5.847  13.384
31793SOL     OW97211   7.312   5.271  10.571
31793SOL    HW197212   7.367   5.346  10.551
31793SOL    HW297213   7.251   5.302  10.639
31794SOL     OW97214   4.187   0.468  11.856
31794SOL    HW197215   4.096   0.438  11.848
31794SOL    HW297216   4.195   0.539  11.791
31795SOL     OW97217  13.251  10.580   3.447
31795SOL    HW197218  13.227  10.651   3.387
31795SOL    HW297219  13.229  10.614   3.534
31796SOL     OW97220   7.096   0.457   2.765
31796SOL    HW197221   7.117   0.373   2.723
31796SOL    HW297222   7.046   0.505   2.699
31797SOL     OW97223   8.439   0.391  12.893
31797SOL    HW197224   8.529   0.378  12.866
31797SOL    HW297225   8.415   0.310  12.938
31798SOL     OW97226   6.370   7.401   5.191
31798SOL    HW197227   6.391   7.375   5.280
31798SOL    HW297228   6.351   7.319   5.145
31799SOL     OW97229   6.303  13.174   3.998
31799SOL    HW197230   6.297  13.222   3.915
31799SOL    HW297231   6.277  13.238   4.065
31800SOL     OW97232   4.918   9.188  14.420
31800SOL    HW197233   4.826   9.169  14.439
31800SOL    HW297234   4.915   9.250  14.347
31801SOL     OW97235   4.477  14.825   0.692
31801SOL    HW197236   4.449  14.871   0.613
31801SOL    HW297237   4.404  14.837   0.753
31802SOL     OW97238   3.235   0.238   7.825
31802SOL    HW197239   3.161   0.190   7.787
31802SOL    HW297240   3.250   0.198   7.910
31803SOL     OW97241  12.652  12.158   2.945
31803SOL    HW197242  12.731  12.117   2.910
31803SOL    HW297243  12.650  12.245   2.904
31804SOL     OW97244   9.698   4.691   8.455
31804SOL    HW197245   9.696   4.785   8.472
31804SOL    HW297246   9.671   4.682   8.364
31805SOL     OW97247   4.574  12.622   3.851
31805SOL    HW197248   4.497  12.669   3.818
31805SOL    HW297249   4.590  12.659   3.938
31806SOL     OW97250   2.606  14.853   2.319
31806SOL    HW197251   2.594  14.830   2.411
31806SOL    HW297252   2.701  14.855   2.307
31807SOL     OW97253   1.087  13.769   5.269
31807SOL    HW197254   1.053  13.724   5.192
31807SOL    HW297255   1.099  13.700   5.334
31808SOL     OW97256  14.140   6.789   7.325
31808SOL    HW197257  14.111   6.729   7.393
31808SOL    HW297258  14.082   6.864   7.332
31809SOL     OW97259   0.288   5.800  11.916
31809SOL    HW197260   0.226   5.855  11.867
31809SOL    HW297261   0.258   5.806  12.007
31810SOL     OW97262   5.765  13.440   3.370
31810SOL    HW197263   5.809  13.476   3.293
31810SOL    HW297264   5.836  13.401   3.422
31811SOL     OW97265  14.276   3.917  14.091
31811SOL    HW197266  14.348   3.855  14.086
31811SOL    HW297267  14.202   3.873  14.050
31812SOL     OW97268  14.591   8.800   2.380
31812SOL    HW197269  14.523   8.733   2.374
31812SOL    HW297270  14.571   8.848   2.460
31813SOL     OW97271   9.788   8.184   0.843
31813SOL    HW197272   9.750   8.110   0.796
31813SOL    HW297273   9.867   8.147   0.884
31814SOL     OW97274   8.080   0.877  14.332
31814SOL    HW197275   7.986   0.893  14.343
31814SOL    HW297276   8.086   0.828  14.250
31815SOL     OW97277   4.573  12.078  14.352
31815SOL    HW197278   4.605  12.006  14.299
31815SOL    HW297279   4.650  12.110  14.399
31816SOL     OW97280   9.732   4.257  14.086
31816SOL    HW197281   9.810   4.271  14.033
31816SOL    HW297282   9.664   4.231  14.024
31817SOL     OW97283   7.471   5.418  13.391
31817SOL    HW197284   7.512   5.332  13.388
31817SOL    HW297285   7.393   5.405  13.445
31818SOL     OW97286  11.579   1.000   6.033
31818SOL    HW197287  11.487   1.021   6.049
31818SOL    HW297288  11.581   0.971   5.942
31819SOL     OW97289  13.413   3.932   9.115
31819SOL    HW197290  13.446   3.902   9.031
31819SOL    HW297291  13.426   4.027   9.113
31820SOL     OW97292   3.046  11.823   8.394
31820SOL    HW197293   3.136  11.836   8.421
31820SOL    HW297294   2.993  11.854   8.468
31821SOL     OW97295   6.836   1.405  14.279
31821SOL    HW197296   6.768   1.376  14.218
31821SOL    HW297297   6.823   1.500  14.285
31822SOL     OW97298   1.970  12.961   1.503
31822SOL    HW197299   1.907  12.984   1.572
31822SOL    HW297300   2.043  13.022   1.516
31823SOL     OW97301  13.631  14.271  11.524
31823SOL    HW197302  13.652  14.206  11.590
31823SOL    HW297303  13.541  14.298  11.543
31824SOL     OW97304   0.756   6.137  14.693
31824SOL    HW197305   0.788   6.221  14.659
31824SOL    HW297306   0.694   6.107  14.627
31825SOL     OW97307   8.755   8.801  11.229
31825SOL    HW197308   8.777   8.805  11.135
31825SOL    HW297309   8.729   8.890  11.251
31826SOL     OW97310  11.199   5.956   8.857
31826SOL    HW197311  11.247   5.875   8.837
31826SOL    HW297312  11.186   5.953   8.951
31827SOL     OW97313   9.576   9.726  12.531
31827SOL    HW197314   9.624   9.647  12.509
31827SOL    HW297315   9.484   9.699  12.535
31828SOL     OW97316   9.580   1.946   0.711
31828SOL    HW197317   9.666   1.906   0.699
31828SOL    HW297318   9.555   1.975   0.623
31829SOL     OW97319  13.523   3.427  13.134
31829SOL    HW197320  13.460   3.476  13.081
31829SOL    HW297321  13.480   3.344  13.152
31830SOL     OW97322  11.918   5.743  12.865
31830SOL    HW197323  11.826   5.755  12.840
31830SOL    HW297324  11.948   5.830  12.891
31831SOL     OW97325  14.109   7.673  13.766
31831SOL    HW197326  14.075   7.691  13.679
31831SOL    HW297327  14.033   7.678  13.824
31832SOL     OW97328   8.831  12.396   4.399
31832SOL    HW197329   8.792  12.472   4.356
31832SOL    HW297330   8.903  12.432   4.451
31833SOL     OW97331   0.304   3.540   4.193
31833SOL    HW197332   0.354   3.520   4.272
31833SOL    HW297333   0.268   3.455   4.166
31834SOL     OW97334   0.295   8.056   6.014
31834SOL    HW197335   0.290   8.150   5.993
31834SOL    HW297336   0.385   8.042   6.041
31835SOL     OW97337   1.510  10.783   1.554
31835SOL    HW197338   1.440  10.718   1.550
31835SOL    HW297339   1.468  10.865   1.527
31836SOL     OW97340  10.619   2.650  10.534
31836SOL    HW197341  10.696   2.664  10.588
31836SOL    HW297342  10.654   2.643  10.445
31837SOL     OW97343  13.243  12.918   3.987
31837SOL    HW197344  13.251  12.911   4.083
31837SOL    HW297345  13.153  12.893   3.968
31838SOL     OW97346   5.795   3.585  10.110
31838SOL    HW197347   5.820   3.508  10.161
31838SOL    HW297348   5.760   3.646  10.175
31839SOL     OW97349  12.334   7.862  13.878
31839SOL    HW197350  12.314   7.813  13.798
31839SOL    HW297351  12.424   7.893  13.865
31840SOL     OW97352   4.048   2.996   2.436
31840SOL    HW197353   4.056   3.088   2.461
31840SOL    HW297354   3.988   2.996   2.362
31841SOL     OW97355   2.177  12.311   8.272
31841SOL    HW197356   2.134  12.252   8.334
31841SOL    HW297357   2.240  12.360   8.325
31842SOL     OW97358   1.613   9.113  11.782
31842SOL    HW197359   1.567   9.179  11.834
31842SOL    HW297360   1.704   9.117  11.812
31843SOL     OW97361  10.388   9.917   9.808
31843SOL    HW197362  10.395   9.997   9.861
31843SOL    HW297363  10.371   9.948   9.719
31844SOL     OW97364  10.358  13.815   8.765
31844SOL    HW197365  10.278  13.792   8.717
31844SOL    HW297366  10.426  13.762   8.724
31845SOL     OW97367   6.313   7.211   9.122
31845SOL    HW197368   6.362   7.225   9.041
31845SOL    HW297369   6.282   7.299   9.147
31846SOL     OW97370   7.475   1.451   2.660
31846SOL    HW197371   7.565   1.461   2.631
31846SOL    HW297372   7.422   1.476   2.584
31847SOL     OW97373   8.564  10.782   0.346
31847SOL    HW197374   8.544  10.870   0.379
31847SOL    HW297375   8.603  10.737   0.421
31848SOL     OW97376  12.831   9.029   9.806
31848SOL    HW197377  12.833   9.104   9.746
31848SOL    HW297378  12.821   9.069   9.893
31849SOL     OW97379   5.275  11.527  10.261
31849SOL    HW197380   5.287  11.433  10.253
31849SOL    HW297381   5.265  11.543  10.355
31850SOL     OW97382   0.862  14.648   9.338
31850SOL    HW197383   0.881  14.737   9.309
31850SOL    HW297384   0.783  14.623   9.291
31851SOL     OW97385  10.478   9.573   9.329
31851SOL    HW197386  10.390   9.559   9.296
31851SOL    HW297387  10.481   9.523   9.411
31852SOL     OW97388  13.883   9.489   9.683
31852SOL    HW197389  13.883   9.580   9.654
31852SOL    HW297390  13.876   9.494   9.778
31853SOL     OW97391   9.016  12.346   4.890
31853SOL    HW197392   9.097  12.330   4.939
31853SOL    HW297393   8.996  12.262   4.849
31854SOL     OW97394  10.765   1.696   6.383
31854SOL    HW197395  10.710   1.630   6.425
31854SOL    HW297396  10.839   1.707   6.442
31855SOL     OW97397   2.988   3.534   6.528
31855SOL    HW197398   2.984   3.439   6.537
31855SOL    HW297399   2.971   3.550   6.435
31856SOL     OW97400   0.163   0.366   8.234
31856SOL    HW197401   0.102   0.437   8.253
31856SOL    HW297402   0.199   0.343   8.320
31857SOL     OW97403   3.856   2.366  11.725
31857SOL    HW197404   3.901   2.282  11.733
31857SOL    HW297405   3.776   2.355  11.776
31858SOL     OW97406   7.613  13.275   8.405
31858SOL    HW197407   7.664  13.302   8.482
31858SOL    HW297408   7.596  13.182   8.419
31859SOL     OW97409   1.716  12.979   9.773
31859SOL    HW197410   1.705  12.963   9.867
31859SOL    HW297411   1.805  12.949   9.754
31860SOL     OW97412  10.403   5.372  10.302
31860SOL    HW197413  10.308   5.380  10.295
31860SOL    HW297414  10.427   5.436  10.369
31861SOL     OW97415   6.965   2.781   5.658
31861SOL    HW197416   7.020   2.769   5.735
31861SOL    HW297417   7.007   2.853   5.610
31862SOL     OW97418  10.707  10.416   1.562
31862SOL    HW197419  10.697  10.326   1.530
31862SOL    HW297420  10.664  10.416   1.647
31863SOL     OW97421  11.144  10.997  12.090
31863SOL    HW197422  11.075  11.009  12.155
31863SOL    HW297423  11.196  11.078  12.096
31864SOL     OW97424   4.066   1.512   7.541
31864SOL    HW197425   4.127   1.522   7.468
31864SOL    HW297426   4.094   1.431   7.585
31865SOL     OW97427   5.028   1.669   1.392
31865SOL    HW197428   5.038   1.764   1.403
31865SOL    HW297429   5.102   1.631   1.438
31866SOL     OW97430  10.406   9.544   5.648
31866SOL    HW197431  10.457   9.574   5.572
31866SOL    HW297432  10.446   9.461   5.671
31867SOL     OW97433   8.088   4.268   4.599
31867SOL    HW197434   8.143   4.190   4.595
31867SOL    HW297435   8.099   4.300   4.689
31868SOL     OW97436   3.933  12.149   0.410
31868SOL    HW197437   3.906  12.058   0.400
31868SOL    HW297438   3.997  12.162   0.340
31869SOL     OW97439   9.945  13.160   1.205
31869SOL    HW197440   9.973  13.069   1.201
31869SOL    HW297441   9.993  13.196   1.281
31870SOL     OW97442   6.447  13.869  12.199
31870SOL    HW197443   6.514  13.935  12.180
31870SOL    HW297444   6.449  13.810  12.124
31871SOL     OW97445   8.989   6.361  14.682
31871SOL    HW197446   9.039   6.286  14.650
31871SOL    HW297447   9.028   6.437  14.638
31872SOL     OW97448   5.895   5.250   0.390
31872SOL    HW197449   5.831   5.227   0.457
31872SOL    HW297450   5.842   5.278   0.315
31873SOL     OW97451   6.311   7.071   8.824
31873SOL    HW197452   6.218   7.092   8.816
31873SOL    HW297453   6.336   7.043   8.736
31874SOL     OW97454   1.114  12.314   4.355
31874SOL    HW197455   1.077  12.267   4.429
31874SOL    HW297456   1.042  12.366   4.321
31875SOL     OW97457   3.714  13.381   9.454
31875SOL    HW197458   3.732  13.374   9.548
31875SOL    HW297459   3.718  13.291   9.422
31876SOL     OW97460  13.566  12.919   3.565
31876SOL    HW197461  13.562  12.824   3.564
31876SOL    HW297462  13.542  12.943   3.654
31877SOL     OW97463   7.563  13.387   1.072
31877SOL    HW197464   7.569  13.482   1.061
31877SOL    HW297465   7.523  13.376   1.159
31878SOL     OW97466   4.839  12.763  12.310
31878SOL    HW197467   4.922  12.729  12.276
31878SOL    HW297468   4.862  12.810  12.390
31879SOL     OW97469  13.487  13.425  12.159
31879SOL    HW197470  13.429  13.500  12.144
31879SOL    HW297471  13.455  13.387  12.241
31880SOL     OW97472  11.895   8.778  13.266
31880SOL    HW197473  11.804   8.781  13.296
31880SOL    HW297474  11.919   8.869  13.254
31881SOL     OW97475   7.124   7.501   0.014
31881SOL    HW197476   7.219   7.494   0.007
31881SOL    HW297477   7.109   7.589   0.048
31882SOL     OW97478  12.765   8.404   7.093
31882SOL    HW197479  12.769   8.471   7.025
31882SOL    HW297480  12.680   8.362   7.081
31883SOL     OW97481  11.419   3.478   9.761
31883SOL    HW197482  11.487   3.528   9.714
31883SOL    HW297483  11.438   3.495   9.853
31884SOL     OW97484   0.950   4.362   9.200
31884SOL    HW197485   0.866   4.317   9.189
31884SOL    HW297486   0.935   4.450   9.166
31885SOL     OW97487  10.228  12.745   2.270
31885SOL    HW197488  10.148  12.710   2.231
31885SOL    HW297489  10.261  12.807   2.205
31886SOL     OW97490   3.039   7.254   4.262
31886SOL    HW197491   3.080   7.317   4.321
31886SOL    HW297492   2.996   7.192   4.321
31887SOL     OW97493   3.020   5.961   7.047
31887SOL    HW197494   3.088   6.025   7.066
31887SOL    HW297495   2.953   6.011   7.000
31888SOL     OW97496  10.013   7.876  13.212
31888SOL    HW197497  10.056   7.795  13.185
31888SOL    HW297498  10.083   7.940  13.221
31889SOL     OW97499   1.109  10.395   2.611
31889SOL    HW197500   1.167  10.427   2.542
31889SOL    HW297501   1.131  10.447   2.688
31890SOL     OW97502   7.204  14.373  11.688
31890SOL    HW197503   7.268  14.333  11.628
31890SOL    HW297504   7.123  14.326  11.671
31891SOL     OW97505  12.995   5.731   9.588
31891SOL    HW197506  13.067   5.754   9.529
31891SOL    HW297507  13.003   5.636   9.598
31892SOL     OW97508  13.373   0.861   1.055
31892SOL    HW197509  13.388   0.774   1.017
31892SOL    HW297510  13.306   0.901   0.998
31893SOL     OW97511   5.485   9.511  14.798
31893SOL    HW197512   5.411   9.531  14.742
31893SOL    HW297513   5.481   9.575  14.868
31894SOL     OW97514   3.658  13.090   0.601
31894SOL    HW197515   3.603  13.015   0.621
31894SOL    HW297516   3.626  13.160   0.658
31895SOL     OW97517   9.692   2.195  11.735
31895SOL    HW197518   9.674   2.198  11.641
31895SOL    HW297519   9.774   2.243  11.745
31896SOL     OW97520  11.513   0.659   4.803
31896SOL    HW197521  11.531   0.567   4.783
31896SOL    HW297522  11.496   0.660   4.897
31897SOL     OW97523  14.761   9.070   2.201
31897SOL    HW197524  14.808   9.053   2.282
31897SOL    HW297525  14.695   9.135   2.225
31898SOL     OW97526   2.442  11.861   6.360
31898SOL    HW197527   2.445  11.777   6.407
31898SOL    HW297528   2.453  11.927   6.429
31899SOL     OW97529  14.169   7.664   9.078
31899SOL    HW197530  14.212   7.711   9.150
31899SOL    HW297531  14.099   7.614   9.120
31900SOL     OW97532  12.501  10.399   5.439
31900SOL    HW197533  12.458  10.384   5.355
31900SOL    HW297534  12.584  10.440   5.417
31901SOL     OW97535   1.836   0.944   2.179
31901SOL    HW197536   1.744   0.917   2.179
31901SOL    HW297537   1.860   0.945   2.271
31902SOL     OW97538  13.320   3.229   0.374
31902SOL    HW197539  13.236   3.259   0.409
31902SOL    HW297540  13.301   3.201   0.285
31903SOL     OW97541   6.851   6.937   3.590
31903SOL    HW197542   6.787   6.940   3.661
31903SOL    HW297543   6.833   7.016   3.538
31904SOL     OW97544  14.598   9.602   1.812
31904SOL    HW197545  14.519   9.642   1.775
31904SOL    HW297546  14.623   9.662   1.883
31905SOL     OW97547  13.131  12.429  10.693
31905SOL    HW197548  13.054  12.375  10.710
31905SOL    HW297549  13.119  12.460  10.603
31906SOL     OW97550  11.592  10.094   4.234
31906SOL    HW197551  11.518  10.154   4.226
31906SOL    HW297552  11.567  10.018   4.181
31907SOL     OW97553  10.321  13.038   0.359
31907SOL    HW197554  10.386  12.968   0.366
31907SOL    HW297555  10.320  13.062   0.267
31908SOL     OW97556   2.986   2.162   7.653
31908SOL    HW197557   2.982   2.254   7.681
31908SOL    HW297558   2.950   2.113   7.727
31909SOL     OW97559   6.725   0.611   1.529
31909SOL    HW197560   6.776   0.633   1.606
31909SOL    HW297561   6.645   0.571   1.563
31910SOL     OW97562   7.455   2.612   5.302
31910SOL    HW197563   7.428   2.678   5.366
31910SOL    HW297564   7.391   2.542   5.312
31911SOL     OW97565  12.311   6.513   1.531
31911SOL    HW197566  12.360   6.509   1.448
31911SOL    HW297567  12.379   6.521   1.598
31912SOL     OW97568   3.564   5.157   1.717
31912SOL    HW197569   3.558   5.154   1.621
31912SOL    HW297570   3.621   5.232   1.735
31913SOL     OW97571   3.827   0.213   9.357
31913SOL    HW197572   3.918   0.242   9.361
31913SOL    HW297573   3.789   0.242   9.440
31914SOL     OW97574  11.210   8.172   6.954
31914SOL    HW197575  11.243   8.262   6.966
31914SOL    HW297576  11.288   8.121   6.932
31915SOL     OW97577   5.166  14.666  13.283
31915SOL    HW197578   5.197  14.702  13.366
31915SOL    HW297579   5.071  14.674  13.287
31916SOL     OW97580  13.692   5.537  10.176
31916SOL    HW197581  13.721   5.597  10.245
31916SOL    HW297582  13.597   5.533  10.187
31917SOL     OW97583   3.509  13.096  10.445
31917SOL    HW197584   3.576  13.090  10.377
31917SOL    HW297585   3.557  13.085  10.527
31918SOL     OW97586  13.098   3.365  14.446
31918SOL    HW197587  13.122   3.332  14.359
31918SOL    HW297588  13.022   3.421  14.429
31919SOL     OW97589  11.645   2.037  10.163
31919SOL    HW197590  11.613   2.125  10.182
31919SOL    HW297591  11.567   1.985  10.146
31920SOL     OW97592   4.870   0.898   6.828
31920SOL    HW197593   4.895   0.943   6.908
31920SOL    HW297594   4.836   0.813   6.857
31921SOL     OW97595  11.178  12.846   8.434
31921SOL    HW197596  11.139  12.933   8.428
31921SOL    HW297597  11.255  12.850   8.378
31922SOL     OW97598   8.981   9.318   7.802
31922SOL    HW197599   8.951   9.409   7.801
31922SOL    HW297600   9.061   9.318   7.750
31923SOL     OW97601  11.673   1.111   6.750
31923SOL    HW197602  11.614   1.155   6.689
31923SOL    HW297603  11.616   1.068   6.813
31924SOL     OW97604  11.950  14.270  12.581
31924SOL    HW197605  11.921  14.300  12.495
31924SOL    HW297606  11.876  14.286  12.639
31925SOL     OW97607   6.787   6.918   6.012
31925SOL    HW197608   6.870   6.927   5.965
31925SOL    HW297609   6.806   6.859   6.084
31926SOL     OW97610   2.887   4.437  13.213
31926SOL    HW197611   2.940   4.506  13.173
31926SOL    HW297612   2.797   4.469  13.208
31927SOL     OW97613  10.757   9.291  10.110
31927SOL    HW197614  10.825   9.316  10.172
31927SOL    HW297615  10.678   9.334  10.142
31928SOL     OW97616  12.964   2.063   7.155
31928SOL    HW197617  12.981   1.969   7.157
31928SOL    HW297618  12.870   2.070   7.142
31929SOL     OW97619   1.135   4.834   5.788
31929SOL    HW197620   1.208   4.787   5.828
31929SOL    HW297621   1.170   4.921   5.770
31930SOL     OW97622  14.415   6.102   1.717
31930SOL    HW197623  14.511   6.096   1.721
31930SOL    HW297624  14.384   6.021   1.757
31931SOL     OW97625   8.483  13.995  10.772
31931SOL    HW197626   8.574  14.009  10.798
31931SOL    HW297627   8.479  13.903  10.745
31932SOL     OW97628  10.115  10.228   9.787
31932SOL    HW197629  10.117  10.139   9.752
31932SOL    HW297630  10.038  10.229   9.845
31933SOL     OW97631   1.004   4.761  14.110
31933SOL    HW197632   1.042   4.723  14.190
31933SOL    HW297633   1.004   4.690  14.047
31934SOL     OW97634   6.336   1.550  14.480
31934SOL    HW197635   6.281   1.474  14.465
31934SOL    HW297636   6.390   1.526  14.556
31935SOL     OW97637   2.803   2.912   6.473
31935SOL    HW197638   2.721   2.938   6.513
31935SOL    HW297639   2.787   2.822   6.443
31936SOL     OW97640   0.118  12.239   5.705
31936SOL    HW197641   0.073  12.317   5.672
31936SOL    HW297642   0.048  12.175   5.719
31937SOL     OW97643   9.481   2.697   6.787
31937SOL    HW197644   9.547   2.677   6.721
31937SOL    HW297645   9.415   2.748   6.740
31938SOL     OW97646   5.898  13.738   0.260
31938SOL    HW197647   5.851  13.656   0.273
31938SOL    HW297648   5.957  13.744   0.336
31939SOL     OW97649   9.259   2.673   9.475
31939SOL    HW197650   9.261   2.608   9.545
31939SOL    HW297651   9.330   2.734   9.497
31940SOL     OW97652   5.489   6.558   6.719
31940SOL    HW197653   5.407   6.582   6.762
31940SOL    HW297654   5.554   6.617   6.759
31941SOL     OW97655  11.711  11.000   7.721
31941SOL    HW197656  11.742  10.909   7.719
31941SOL    HW297657  11.617  10.992   7.738
31942SOL     OW97658   1.240   6.587   1.156
31942SOL    HW197659   1.305   6.529   1.197
31942SOL    HW297660   1.232   6.660   1.217
31943SOL     OW97661  11.500  12.819  14.783
31943SOL    HW197662  11.461  12.793  14.699
31943SOL    HW297663  11.524  12.736  14.825
31944SOL     OW97664   0.226  13.406   2.431
31944SOL    HW197665   0.315  13.373   2.447
31944SOL    HW297666   0.179  13.384   2.511
31945SOL     OW97667   9.634   7.204  14.593
31945SOL    HW197668   9.588   7.231  14.514
31945SOL    HW297669   9.698   7.140  14.563
31946SOL     OW97670   3.823   9.025  12.456
31946SOL    HW197671   3.859   9.043  12.369
31946SOL    HW297672   3.855   9.097  12.511
31947SOL     OW97673  14.000   0.450   0.809
31947SOL    HW197674  14.065   0.385   0.782
31947SOL    HW297675  13.996   0.443   0.904
31948SOL     OW97676   0.589  12.084   9.521
31948SOL    HW197677   0.621  12.025   9.588
31948SOL    HW297678   0.609  12.040   9.438
31949SOL     OW97679  14.167  13.687   1.603
31949SOL    HW197680  14.159  13.593   1.583
31949SOL    HW297681  14.252  13.711   1.567
31950SOL     OW97682   1.122   3.131  12.651
31950SOL    HW197683   1.143   3.180  12.730
31950SOL    HW297684   1.026   3.121  12.654
31951SOL     OW97685   0.901  10.270   5.130
31951SOL    HW197686   0.880  10.179   5.151
31951SOL    HW297687   0.888  10.277   5.036
31952SOL     OW97688   2.836   9.410  13.939
31952SOL    HW197689   2.746   9.412  13.908
31952SOL    HW297690   2.886   9.454  13.870
31953SOL     OW97691   4.231   1.471  12.403
31953SOL    HW197692   4.188   1.465  12.318
31953SOL    HW297693   4.273   1.557  12.403
31954SOL     OW97694   2.207  14.409   3.854
31954SOL    HW197695   2.234  14.318   3.868
31954SOL    HW297696   2.125  14.417   3.902
31955SOL     OW97697   5.083   7.580   3.159
31955SOL    HW197698   5.168   7.615   3.133
31955SOL    HW297699   5.101   7.490   3.186
31956SOL     OW97700  12.847  13.834   7.882
31956SOL    HW197701  12.837  13.922   7.920
31956SOL    HW297702  12.807  13.776   7.947
31957SOL     OW97703  10.767  14.009   8.251
31957SOL    HW197704  10.732  13.922   8.232
31957SOL    HW297705  10.856  13.993   8.284
31958SOL     OW97706   5.323  12.834   0.949
31958SOL    HW197707   5.352  12.893   1.019
31958SOL    HW297708   5.355  12.748   0.977
31959SOL     OW97709   0.957   1.169  13.058
31959SOL    HW197710   1.052   1.171  13.072
31959SOL    HW297711   0.931   1.261  13.054
31960SOL     OW97712  10.241   0.767   2.219
31960SOL    HW197713  10.308   0.830   2.243
31960SOL    HW297714  10.288   0.698   2.172
31961SOL     OW97715  11.586   9.373   7.494
31961SOL    HW197716  11.562   9.406   7.408
31961SOL    HW297717  11.528   9.419   7.555
31962SOL     OW97718   3.570   3.092   3.180
31962SOL    HW197719   3.660   3.116   3.202
31962SOL    HW297720   3.541   3.159   3.118
31963SOL     OW97721  10.822   7.710   2.825
31963SOL    HW197722  10.753   7.716   2.891
31963SOL    HW297723  10.787   7.649   2.760
31964SOL     OW97724  10.857  11.599   7.610
31964SOL    HW197725  10.876  11.540   7.683
31964SOL    HW297726  10.762  11.611   7.613
31965SOL     OW97727  10.493  14.289   6.116
31965SOL    HW197728  10.427  14.303   6.183
31965SOL    HW297729  10.561  14.353   6.136
31966SOL     OW97730   5.983  13.820   9.349
31966SOL    HW197731   5.936  13.901   9.330
31966SOL    HW297732   5.946  13.756   9.288
31967SOL     OW97733   1.013  14.492   6.711
31967SOL    HW197734   1.078  14.457   6.651
31967SOL    HW297735   1.063  14.520   6.788
31968SOL     OW97736  14.112   9.320   3.669
31968SOL    HW197737  14.026   9.322   3.711
31968SOL    HW297738  14.167   9.378   3.722
31969SOL     OW97739  13.103   3.942  10.690
31969SOL    HW197740  13.043   3.901  10.628
31969SOL    HW297741  13.090   4.036  10.678
31970SOL     OW97742   5.531   7.928   9.647
31970SOL    HW197743   5.455   7.986   9.637
31970SOL    HW297744   5.512   7.853   9.591
31971SOL     OW97745   9.502  10.104   5.075
31971SOL    HW197746   9.466  10.028   5.028
31971SOL    HW297747   9.441  10.175   5.055
31972SOL     OW97748  14.158  12.441   5.159
31972SOL    HW197749  14.128  12.521   5.203
31972SOL    HW297750  14.253  12.452   5.152
31973SOL     OW97751   8.655  12.044   3.735
31973SOL    HW197752   8.705  11.969   3.705
31973SOL    HW297753   8.683  12.116   3.678
31974SOL     OW97754  13.154  14.845  14.786
31974SOL    HW197755  13.085   0.039  14.780
31974SOL    HW297756  13.213   0.006  14.854
31975SOL     OW97757   5.737   1.269  12.213
31975SOL    HW197758   5.799   1.225  12.154
31975SOL    HW297759   5.771   1.358  12.221
31976SOL     OW97760   2.675   6.674   7.553
31976SOL    HW197761   2.646   6.601   7.608
31976SOL    HW297762   2.599   6.694   7.498
31977SOL     OW97763   1.421  12.460  14.752
31977SOL    HW197764   1.342  12.436  14.801
31977SOL    HW297765   1.414  12.554  14.740
31978SOL     OW97766  10.995  12.910  11.652
31978SOL    HW197767  11.006  12.816  11.640
31978SOL    HW297768  10.994  12.922  11.747
31979SOL     OW97769   4.010   8.377   4.697
31979SOL    HW197770   3.996   8.307   4.760
31979SOL    HW297771   3.954   8.355   4.623
31980SOL     OW97772   4.781   2.367   5.135
31980SOL    HW197773   4.795   2.432   5.066
31980SOL    HW297774   4.688   2.374   5.156
31981SOL     OW97775   8.382   8.485   0.024
31981SOL    HW197776   8.412   8.398   0.049
31981SOL    HW297777   8.328   8.513   0.098
31982SOL     OW97778   7.760   0.892  12.821
31982SOL    HW197779   7.808   0.873  12.902
31982SOL    HW297780   7.683   0.941  12.850
31983SOL     OW97781   0.270   9.327  10.049
31983SOL    HW197782   0.189   9.314  10.098
31983SOL    HW297783   0.324   9.382  10.105
31984SOL     OW97784   2.767   6.625   0.533
31984SOL    HW197785   2.681   6.657   0.561
31984SOL    HW297786   2.826   6.699   0.545
31985SOL     OW97787   6.538   4.353   9.043
31985SOL    HW197788   6.554   4.334   9.135
31985SOL    HW297789   6.549   4.448   9.036
31986SOL     OW97790  11.987  14.599  12.410
31986SOL    HW197791  12.072  14.573  12.374
31986SOL    HW297792  12.007  14.641  12.493
31987SOL     OW97793   6.200   4.948  12.150
31987SOL    HW197794   6.255   4.928  12.075
31987SOL    HW297795   6.150   4.868  12.165
31988SOL     OW97796   7.577  14.383  13.362
31988SOL    HW197797   7.613  14.297  13.382
31988SOL    HW297798   7.598  14.398  13.270
31989SOL     OW97799   0.819   4.410   8.239
31989SOL    HW197800   0.776   4.367   8.313
31989SOL    HW297801   0.797   4.503   8.250
31990SOL     OW97802  13.478   9.116  13.807
31990SOL    HW197803  13.496   9.024  13.788
31990SOL    HW297804  13.544   9.164  13.757
31991SOL     OW97805  14.555   5.371   1.415
31991SOL    HW197806  14.644   5.338   1.427
31991SOL    HW297807  14.548   5.390   1.322
31992SOL     OW97808   9.585  12.153   1.656
31992SOL    HW197809   9.564  12.247   1.652
31992SOL    HW297810   9.546  12.117   1.576
31993SOL     OW97811   1.046   1.766   5.764
31993SOL    HW197812   1.122   1.756   5.822
31993SOL    HW297813   0.995   1.837   5.803
31994SOL     OW97814   1.141   7.732   8.604
31994SOL    HW197815   1.233   7.708   8.597
31994SOL    HW297816   1.106   7.670   8.669
31995SOL     OW97817  14.092   5.901  14.397
31995SOL    HW197818  14.043   5.961  14.454
31995SOL    HW297819  14.112   5.954  14.319
31996SOL     OW97820   1.349   5.845   5.631
31996SOL    HW197821   1.269   5.867   5.583
31996SOL    HW297822   1.418   5.893   5.585
31997SOL     OW97823  13.920   1.325   9.195
31997SOL    HW197824  13.934   1.419   9.202
31997SOL    HW297825  13.955   1.289   9.276
31998SOL     OW97826  13.457   5.548  12.016
31998SOL    HW197827  13.412   5.503  12.088
31998SOL    HW297828  13.481   5.633  12.053
31999SOL     OW97829  10.841   3.634   9.705
31999SOL    HW197830  10.870   3.580   9.632
31999SOL    HW297831  10.884   3.595   9.782
32000SOL     OW97832  10.658  11.941   7.733
32000SOL    HW197833  10.747  11.906   7.735
32000SOL    HW297834  10.659  12.013   7.795
32001SOL     OW97835   6.392   3.857  10.280
32001SOL    HW197836   6.379   3.771  10.320
32001SOL    HW297837   6.316   3.869  10.223
32002SOL     OW97838   7.928   4.322   9.612
32002SOL    HW197839   8.002   4.382   9.624
32002SOL    HW297840   7.913   4.322   9.517
32003SOL     OW97841   7.520   0.346   7.438
32003SOL    HW197842   7.449   0.315   7.494
32003SOL    HW297843   7.598   0.300   7.469
32004SOL     OW97844  14.262   7.888   2.648
32004SOL    HW197845  14.291   7.860   2.561
32004SOL    HW297846  14.301   7.824   2.708
32005SOL     OW97847  10.610   8.402  14.320
32005SOL    HW197848  10.596   8.494  14.297
32005SOL    HW297849  10.581   8.396  14.411
32006SOL     OW97850   5.232   1.664  12.605
32006SOL    HW197851   5.263   1.752  12.583
32006SOL    HW297852   5.174   1.640  12.532
32007SOL     OW97853   4.530   4.443  11.806
32007SOL    HW197854   4.611   4.428  11.757
32007SOL    HW297855   4.463   4.455  11.738
32008SOL     OW97856  14.054  11.837   0.333
32008SOL    HW197857  14.045  11.754   0.380
32008SOL    HW297858  14.059  11.903   0.402
32009SOL     OW97859  11.215  13.524  11.343
32009SOL    HW197860  11.272  13.467  11.292
32009SOL    HW297861  11.272  13.563  11.409
32010SOL     OW97862   0.701   6.216  14.380
32010SOL    HW197863   0.716   6.159  14.305
32010SOL    HW297864   0.656   6.292  14.343
32011SOL     OW97865   9.036   2.742   0.740
32011SOL    HW197866   9.129   2.740   0.760
32011SOL    HW297867   8.995   2.779   0.819
32012SOL     OW97868  10.582   8.304  10.151
32012SOL    HW197869  10.519   8.373  10.128
32012SOL    HW297870  10.601   8.319  10.243
32013SOL     OW97871  14.045   1.816  14.647
32013SOL    HW197872  14.032   1.894  14.593
32013SOL    HW297873  13.959   1.774  14.650
32014SOL     OW97874   7.987   6.912   1.767
32014SOL    HW197875   7.939   6.944   1.691
32014SOL    HW297876   7.997   6.818   1.753
32015SOL     OW97877   5.413   0.839   1.504
32015SOL    HW197878   5.455   0.761   1.469
32015SOL    HW297879   5.323   0.813   1.520
32016SOL     OW97880  12.448   6.837   9.223
32016SOL    HW197881  12.525   6.831   9.280
32016SOL    HW297882  12.392   6.901   9.267
32017SOL     OW97883   1.388   6.755   6.123
32017SOL    HW197884   1.448   6.717   6.187
32017SOL    HW297885   1.301   6.730   6.153
32018SOL     OW97886   1.207   0.746  13.338
32018SOL    HW197887   1.287   0.771  13.292
32018SOL    HW297888   1.139   0.801  13.299
32019SOL     OW97889   1.424   1.978   2.718
32019SOL    HW197890   1.447   1.990   2.810
32019SOL    HW297891   1.429   1.884   2.703
32020SOL     OW97892   8.426   2.781   8.933
32020SOL    HW197893   8.357   2.765   8.998
32020SOL    HW297894   8.446   2.694   8.898
32021SOL     OW97895   8.743  13.367   5.966
32021SOL    HW197896   8.803  13.361   6.041
32021SOL    HW297897   8.660  13.334   6.000
32022SOL     OW97898   8.101   7.406   5.899
32022SOL    HW197899   8.186   7.415   5.855
32022SOL    HW297900   8.121   7.414   5.992
32023SOL     OW97901   5.001  11.725  11.958
32023SOL    HW197902   5.054  11.646  11.951
32023SOL    HW297903   5.056  11.794  11.919
32024SOL     OW97904   6.657   5.201   6.186
32024SOL    HW197905   6.633   5.110   6.170
32024SOL    HW297906   6.695   5.200   6.274
32025SOL     OW97907  12.677   7.538   4.601
32025SOL    HW197908  12.642   7.591   4.673
32025SOL    HW297909  12.693   7.602   4.531
32026SOL     OW97910   2.935  12.125   1.774
32026SOL    HW197911   3.010  12.147   1.829
32026SOL    HW297912   2.962  12.045   1.728
32027SOL     OW97913   5.503  14.565  13.785
32027SOL    HW197914   5.598  14.565  13.798
32027SOL    HW297915   5.468  14.522  13.864
32028SOL     OW97916   4.599  13.703   9.037
32028SOL    HW197917   4.657  13.678   8.965
32028SOL    HW297918   4.513  13.713   8.996
32029SOL     OW97919  14.112   2.217  12.676
32029SOL    HW197920  14.122   2.306  12.642
32029SOL    HW297921  14.109   2.227  12.771
32030SOL     OW97922   0.729   0.839  10.067
32030SOL    HW197923   0.728   0.934  10.078
32030SOL    HW297924   0.695   0.805  10.150
32031SOL     OW97925   3.560   1.603   5.805
32031SOL    HW197926   3.644   1.563   5.784
32031SOL    HW297927   3.543   1.578   5.896
32032SOL     OW97928  11.661   6.149   5.106
32032SOL    HW197929  11.673   6.192   5.021
32032SOL    HW297930  11.583   6.191   5.143
32033SOL     OW97931   1.290  14.012  12.407
32033SOL    HW197932   1.284  14.072  12.482
32033SOL    HW297933   1.234  13.938  12.431
32034SOL     OW97934   3.383  14.491  12.937
32034SOL    HW197935   3.370  14.500  13.031
32034SOL    HW297936   3.439  14.414  12.928
32035SOL     OW97937   6.255   3.780   2.360
32035SOL    HW197938   6.244   3.804   2.452
32035SOL    HW297939   6.251   3.863   2.313
32036SOL     OW97940  13.941  14.193   8.950
32036SOL    HW197941  13.881  14.130   8.910
32036SOL    HW297942  14.026  14.148   8.953
32037SOL     OW97943   4.086   5.270   2.814
32037SOL    HW197944   4.028   5.329   2.766
32037SOL    HW297945   4.029   5.225   2.876
32038SOL     OW97946  13.543   4.228  14.027
32038SOL    HW197947  13.512   4.318  14.015
32038SOL    HW297948  13.570   4.200  13.940
32039SOL     OW97949  10.107  10.829  13.352
32039SOL    HW197950  10.014  10.808  13.362
32039SOL    HW297951  10.110  10.925  13.360
32040SOL     OW97952  10.162   4.540   7.628
32040SOL    HW197953  10.207   4.474   7.681
32040SOL    HW297954  10.084   4.496   7.595
32041SOL     OW97955  14.323  13.594   8.820
32041SOL    HW197956  14.389  13.581   8.888
32041SOL    HW297957  14.270  13.668   8.852
32042SOL     OW97958   0.258   4.129   0.520
32042SOL    HW197959   0.350   4.110   0.539
32042SOL    HW297960   0.242   4.214   0.561
32043SOL     OW97961  11.746   9.910   2.655
32043SOL    HW197962  11.840   9.893   2.656
32043SOL    HW297963  11.707   9.835   2.701
32044SOL     OW97964   5.042   5.298  12.711
32044SOL    HW197965   5.093   5.270  12.636
32044SOL    HW297966   4.955   5.316  12.676
32045SOL     OW97967   8.791   9.859   2.558
32045SOL    HW197968   8.873   9.909   2.563
32045SOL    HW297969   8.724   9.926   2.545
32046SOL     OW97970  13.800  10.801   0.782
32046SOL    HW197971  13.826  10.841   0.864
32046SOL    HW297972  13.875  10.815   0.723
32047SOL     OW97973  13.594  13.766  13.478
32047SOL    HW197974  13.681  13.773  13.517
32047SOL    HW297975  13.538  13.815  13.539
32048SOL     OW97976   4.724   2.628   7.204
32048SOL    HW197977   4.721   2.684   7.282
32048SOL    HW297978   4.800   2.659   7.156
32049SOL     OW97979   6.665   3.025   5.404
32049SOL    HW197980   6.597   2.973   5.448
32049SOL    HW297981   6.701   3.080   5.473
32050SOL     OW97982   5.188   1.598   7.459
32050SOL    HW197983   5.231   1.651   7.526
32050SOL    HW297984   5.097   1.628   7.461
32051SOL     OW97985   3.117   4.609  12.861
32051SOL    HW197986   3.126   4.515  12.844
32051SOL    HW297987   3.185   4.649  12.807
32052SOL     OW97988   2.122   5.796   0.805
32052SOL    HW197989   2.217   5.799   0.801
32052SOL    HW297990   2.103   5.726   0.868
32053SOL     OW97991  14.573   1.042   6.566
32053SOL    HW197992  14.525   1.048   6.484
32053SOL    HW297993  14.637   1.113   6.562
32054SOL     OW97994   6.357   3.516  14.358
32054SOL    HW197995   6.332   3.588  14.416
32054SOL    HW297996   6.346   3.437  14.412
32055SOL     OW97997   2.508   0.612   3.195
32055SOL    HW197998   2.483   0.556   3.122
32055SOL    HW297999   2.599   0.636   3.178
32056SOL     OW98000   6.176  13.889   9.873
32056SOL    HW198001   6.246  13.871   9.811
32056SOL    HW298002   6.218  13.884   9.959
32057SOL     OW98003  10.834  14.353  10.733
32057SOL    HW198004  10.904  14.291  10.710
32057SOL    HW298005  10.820  14.403  10.653
32058SOL     OW98006   5.849   5.704  10.675
32058SOL    HW198007   5.767   5.675  10.635
32058SOL    HW298008   5.857   5.795  10.648
32059SOL     OW98009   6.379   3.808   8.732
32059SOL    HW198010   6.418   3.741   8.787
32059SOL    HW298011   6.446   3.825   8.665
32060SOL     OW98012  13.894   7.587   6.021
32060SOL    HW198013  13.816   7.613   5.973
32060SOL    HW298014  13.871   7.504   6.063
32061SOL     OW98015   9.810   3.833   7.103
32061SOL    HW198016   9.827   3.752   7.054
32061SOL    HW298017   9.814   3.807   7.195
32062SOL     OW98018   8.918   0.175   4.450
32062SOL    HW198019   8.981   0.104   4.461
32062SOL    HW298020   8.857   0.143   4.384
32063SOL     OW98021  12.813   3.749   3.269
32063SOL    HW198022  12.782   3.705   3.348
32063SOL    HW298023  12.737   3.796   3.236
32064SOL     OW98024   0.126   1.380   4.384
32064SOL    HW198025   0.096   1.427   4.306
32064SOL    HW298026   0.210   1.420   4.405
32065SOL     OW98027  13.913   5.246  10.221
32065SOL    HW198028  13.934   5.319  10.164
32065SOL    HW298029  13.986   5.242  10.283
32066SOL     OW98030   9.921   6.041  11.829
32066SOL    HW198031   9.866   5.988  11.772
32066SOL    HW298032   9.935   5.987  11.906
32067SOL     OW98033  10.402   0.209   3.702
32067SOL    HW198034  10.344   0.226   3.628
32067SOL    HW298035  10.402   0.114   3.712
32068SOL     OW98036   3.869   6.224   2.732
32068SOL    HW198037   3.947   6.279   2.734
32068SOL    HW298038   3.832   6.231   2.820
32069SOL     OW98039  14.124   0.177   1.134
32069SOL    HW198040  14.042   0.128   1.129
32069SOL    HW298041  14.168   0.143   1.212
32070SOL     OW98042   6.145  14.519   4.123
32070SOL    HW198043   6.165  14.561   4.040
32070SOL    HW298044   6.166  14.427   4.110
32071SOL     OW98045   4.379  10.864  14.703
32071SOL    HW198046   4.331  10.807  14.763
32071SOL    HW298047   4.322  10.871  14.626
32072SOL     OW98048   9.573  10.164  10.522
32072SOL    HW198049   9.533  10.213  10.450
32072SOL    HW298050   9.667  10.166  10.503
32073SOL     OW98051   5.305   5.221  14.308
32073SOL    HW198052   5.331   5.150  14.249
32073SOL    HW298053   5.339   5.301  14.266
32074SOL     OW98054  10.757  10.857  11.946
32074SOL    HW198055  10.817  10.785  11.967
32074SOL    HW298056  10.815  10.932  11.933
32075SOL     OW98057   2.319   4.550   1.507
32075SOL    HW198058   2.300   4.594   1.424
32075SOL    HW298059   2.309   4.619   1.573
32076SOL     OW98060  10.387   0.178   9.458
32076SOL    HW198061  10.295   0.195   9.441
32076SOL    HW298062  10.434   0.225   9.389
32077SOL     OW98063   4.701   5.993   0.462
32077SOL    HW198064   4.699   5.952   0.375
32077SOL    HW298065   4.784   6.041   0.464
32078SOL     OW98066   6.292   6.723  13.251
32078SOL    HW198067   6.388   6.722  13.252
32078SOL    HW298068   6.268   6.688  13.165
32079SOL     OW98069   1.765   0.840  13.186
32079SOL    HW198070   1.860   0.850  13.173
32079SOL    HW298071   1.726   0.882  13.109
32080SOL     OW98072   7.384  14.530   8.523
32080SOL    HW198073   7.371  14.437   8.501
32080SOL    HW298074   7.347  14.539   8.611
32081SOL     OW98075   2.302   0.528  11.777
32081SOL    HW198076   2.384   0.482  11.794
32081SOL    HW298077   2.252   0.520  11.858
32082SOL     OW98078  14.179   7.828   1.384
32082SOL    HW198079  14.230   7.747   1.390
32082SOL    HW298080  14.089   7.801   1.401
32083SOL     OW98081   7.895   7.529   2.811
32083SOL    HW198082   7.832   7.574   2.755
32083SOL    HW298083   7.888   7.572   2.896
32084SOL     OW98084  14.100   9.537   5.793
32084SOL    HW198085  14.186   9.548   5.835
32084SOL    HW298086  14.045   9.604   5.833
32085SOL     OW98087  10.795   0.839   3.863
32085SOL    HW198088  10.789   0.744   3.870
32085SOL    HW298089  10.718   0.864   3.812
32086SOL     OW98090   7.706   0.300  11.156
32086SOL    HW198091   7.797   0.287  11.129
32086SOL    HW298092   7.711   0.312  11.251
32087SOL     OW98093  11.426   2.981   4.592
32087SOL    HW198094  11.385   2.968   4.678
32087SOL    HW298095  11.515   2.947   4.603
32088SOL     OW98096   0.920   0.925  13.784
32088SOL    HW198097   1.015   0.938  13.789
32088SOL    HW298098   0.910   0.842  13.738
32089SOL     OW98099   8.948   6.011   2.644
32089SOL    HW198100   8.879   5.953   2.676
32089SOL    HW298101   8.933   6.018   2.550
32090SOL     OW98102   3.829  13.617  11.866
32090SOL    HW198103   3.895  13.648  11.928
32090SOL    HW298104   3.870  13.629  11.780
32091SOL     OW98105   9.734   6.353   7.723
32091SOL    HW198106   9.673   6.286   7.755
32091SOL    HW298107   9.809   6.347   7.781
32092SOL     OW98108   5.080   4.711   0.502
32092SOL    HW198109   5.160   4.659   0.499
32092SOL    HW298110   5.109   4.802   0.508
32093SOL     OW98111  12.855   9.990  11.919
32093SOL    HW198112  12.842  10.046  11.995
32093SOL    HW298113  12.840   9.901  11.952
32094SOL     OW98114  12.634   3.186   5.005
32094SOL    HW198115  12.693   3.261   5.011
32094SOL    HW298116  12.556   3.213   5.055
32095SOL     OW98117   8.052   6.955   4.105
32095SOL    HW198118   8.014   7.010   4.037
32095SOL    HW298119   7.976   6.911   4.146
32096SOL     OW98120   7.341   0.484   1.375
32096SOL    HW198121   7.322   0.575   1.349
32096SOL    HW298122   7.431   0.487   1.407
32097SOL     OW98123  11.661  10.076  11.449
32097SOL    HW198124  11.649  10.026  11.530
32097SOL    HW298125  11.722  10.146  11.472
32098SOL     OW98126  13.784  14.774  14.845
32098SOL    HW198127  13.847  14.824   0.025
32098SOL    HW298128  13.746  14.712   0.034
32099SOL     OW98129   3.708   0.242  13.366
32099SOL    HW198130   3.644   0.171  13.364
32099SOL    HW298131   3.759   0.232  13.286
32100SOL     OW98132   6.186   6.453  11.895
32100SOL    HW198133   6.114   6.443  11.957
32100SOL    HW298134   6.212   6.363  11.873
32101SOL     OW98135   1.140  14.608   7.130
32101SOL    HW198136   1.121  14.700   7.146
32101SOL    HW298137   1.216  14.589   7.184
32102SOL     OW98138  12.129  10.569  10.198
32102SOL    HW198139  12.189  10.614  10.138
32102SOL    HW298140  12.054  10.546  10.143
32103SOL     OW98141  13.573   7.506  12.797
32103SOL    HW198142  13.555   7.486  12.705
32103SOL    HW298143  13.537   7.594  12.810
32104SOL     OW98144  13.671   5.836   5.077
32104SOL    HW198145  13.735   5.812   5.010
32104SOL    HW298146  13.696   5.925   5.103
32105SOL     OW98147   6.449   5.186   9.329
32105SOL    HW198148   6.389   5.202   9.256
32105SOL    HW298149   6.437   5.093   9.349
32106SOL     OW98150   0.032   3.114   6.263
32106SOL    HW198151   0.019   3.029   6.305
32106SOL    HW298152   0.034   3.095   6.169
32107SOL     OW98153   8.748   9.169   5.175
32107SOL    HW198154   8.807   9.241   5.196
32107SOL    HW298155   8.661   9.207   5.176
32108SOL     OW98156  14.766   9.948  12.464
32108SOL    HW198157  14.765   9.913  12.374
32108SOL    HW298158  14.851   9.920  12.499
32109SOL     OW98159   8.942  11.071  13.196
32109SOL    HW198160   8.872  11.045  13.256
32109SOL    HW298161   9.015  11.096  13.253
32110SOL     OW98162  11.429   6.321   2.161
32110SOL    HW198163  11.470   6.339   2.246
32110SOL    HW298164  11.473   6.242   2.130
32111SOL     OW98165   3.572  12.000   7.530
32111SOL    HW198166   3.484  12.001   7.569
32111SOL    HW298167   3.623  11.942   7.586
32112SOL     OW98168  13.127  13.730  11.090
32112SOL    HW198169  13.145  13.728  10.996
32112SOL    HW298170  13.092  13.644  11.109
32113SOL     OW98171   1.201   0.099  13.339
32113SOL    HW198172   1.247   0.053  13.268
32113SOL    HW298173   1.203   0.191  13.313
32114SOL     OW98174   7.525  14.629   8.097
32114SOL    HW198175   7.464  14.618   8.170
32114SOL    HW298176   7.589  14.560   8.109
32115SOL     OW98177   8.150   7.507   8.172
32115SOL    HW198178   8.200   7.482   8.250
32115SOL    HW298179   8.074   7.554   8.207
32116SOL     OW98180   0.462  13.563  10.990
32116SOL    HW198181   0.516  13.509  11.048
32116SOL    HW298182   0.428  13.632  11.047
32117SOL     OW98183  11.318  14.696   3.921
32117SOL    HW198184  11.412  14.704   3.937
32117SOL    HW298185  11.309  14.707   3.826
32118SOL     OW98186  14.751   5.696  10.386
32118SOL    HW198187  14.800   5.621  10.353
32118SOL    HW298188  14.667   5.659  10.413
32119SOL     OW98189   8.642   9.659  13.505
32119SOL    HW198190   8.590   9.579  13.497
32119SOL    HW298191   8.695   9.646  13.584
32120SOL     OW98192  12.838   9.801   3.945
32120SOL    HW198193  12.855   9.770   3.856
32120SOL    HW298194  12.860   9.895   3.941
32121SOL     OW98195   0.013   9.854  11.815
32121SOL    HW198196   0.098   9.817  11.837
32121SOL    HW298197  14.872   9.830  11.724
32122SOL     OW98198  13.929  12.095   4.059
32122SOL    HW198199  13.994  12.074   3.992
32122SOL    HW298200  13.971  12.161   4.114
32123SOL     OW98201   4.909  13.440   9.694
32123SOL    HW198202   4.965  13.422   9.770
32123SOL    HW298203   4.879  13.354   9.665
32124SOL     OW98204   5.484  11.605   6.529
32124SOL    HW198205   5.512  11.690   6.563
32124SOL    HW298206   5.393  11.596   6.557
32125SOL     OW98207   6.001  10.033   3.022
32125SOL    HW198208   5.927  10.002   2.970
32125SOL    HW298209   5.964  10.053   3.108
32126SOL     OW98210   6.166   7.177  11.727
32126SOL    HW198211   6.138   7.136  11.809
32126SOL    HW298212   6.166   7.271  11.745
32127SOL     OW98213  10.847  14.574   8.329
32127SOL    HW198214  10.885  14.659   8.308
32127SOL    HW298215  10.755  14.581   8.304
32128SOL     OW98216  12.264  12.114   6.308
32128SOL    HW198217  12.268  12.205   6.278
32128SOL    HW298218  12.170  12.096   6.315
32129SOL     OW98219   7.339   8.606   7.475
32129SOL    HW198220   7.291   8.526   7.497
32129SOL    HW298221   7.407   8.577   7.415
32130SOL     OW98222   9.933   4.507   5.039
32130SOL    HW198223   9.953   4.599   5.023
32130SOL    HW298224  10.019   4.465   5.046
32131SOL     OW98225   2.474   7.942   2.839
32131SOL    HW198226   2.494   8.030   2.872
32131SOL    HW298227   2.410   7.958   2.769
32132SOL     OW98228   7.553   6.096   0.087
32132SOL    HW198229   7.574   6.101  14.867
32132SOL    HW298230   7.475   6.151   0.097
32133SOL     OW98231   6.157   6.595  14.096
32133SOL    HW198232   6.077   6.648  14.103
32133SOL    HW298233   6.126   6.508  14.070
32134SOL     OW98234   6.120   0.954  11.214
32134SOL    HW198235   6.092   0.943  11.123
32134SOL    HW298236   6.115   0.867  11.252
32135SOL     OW98237   1.718   8.220   6.852
32135SOL    HW198238   1.728   8.314   6.843
32135SOL    HW298239   1.631   8.208   6.890
32136SOL     OW98240   8.528  10.233  14.468
32136SOL    HW198241   8.563  10.282  14.394
32136SOL    HW298242   8.448  10.193  14.435
32137SOL     OW98243   8.558  12.326   4.693
32137SOL    HW198244   8.595  12.324   4.781
32137SOL    HW298245   8.536  12.418   4.679
32138SOL     OW98246   9.901  11.721   5.814
32138SOL    HW198247   9.886  11.772   5.893
32138SOL    HW298248   9.884  11.631   5.840
32139SOL     OW98249  11.057   2.323  12.849
32139SOL    HW198250  11.149   2.307  12.827
32139SOL    HW298251  11.032   2.247  12.902
32140SOL     OW98252   8.412   9.755   8.840
32140SOL    HW198253   8.374   9.737   8.926
32140SOL    HW298254   8.381   9.684   8.784
32141SOL     OW98255   7.810   5.715   8.808
32141SOL    HW198256   7.798   5.622   8.830
32141SOL    HW298257   7.773   5.762   8.883
32142SOL     OW98258   2.901   0.610   3.270
32142SOL    HW198259   2.847   0.681   3.304
32142SOL    HW298260   2.929   0.561   3.347
32143SOL     OW98261  11.641   6.102   2.950
32143SOL    HW198262  11.590   6.183   2.949
32143SOL    HW298263  11.636   6.071   3.041
32144SOL     OW98264   9.813   4.810   1.707
32144SOL    HW198265   9.852   4.877   1.762
32144SOL    HW298266   9.823   4.843   1.618
32145SOL     OW98267   1.163   9.659   2.699
32145SOL    HW198268   1.252   9.634   2.725
32145SOL    HW298269   1.137   9.725   2.764
32146SOL     OW98270   8.145  13.710   8.448
32146SOL    HW198271   8.191  13.696   8.365
32146SOL    HW298272   8.064  13.660   8.439
32147SOL     OW98273   3.966   8.394   2.890
32147SOL    HW198274   3.901   8.405   2.821
32147SOL    HW298275   3.969   8.479   2.935
32148SOL     OW98276   5.951   8.509   1.115
32148SOL    HW198277   5.889   8.554   1.171
32148SOL    HW298278   6.030   8.564   1.117
32149SOL     OW98279   7.333  11.802   2.828
32149SOL    HW198280   7.243  11.787   2.859
32149SOL    HW298281   7.328  11.789   2.733
32150SOL     OW98282   7.334   6.147  14.544
32150SOL    HW198283   7.275   6.130  14.471
32150SOL    HW298284   7.307   6.085  14.612
32151SOL     OW98285   7.045   5.093   8.741
32151SOL    HW198286   7.040   5.038   8.820
32151SOL    HW298287   6.994   5.171   8.763
32152SOL     OW98288   5.292   5.252   4.369
32152SOL    HW198289   5.304   5.321   4.303
32152SOL    HW298290   5.251   5.297   4.443
32153SOL     OW98291  12.020   2.505  14.587
32153SOL    HW198292  12.108   2.541  14.582
32153SOL    HW298293  11.969   2.573  14.631
32154SOL     OW98294   9.530   6.195   9.130
32154SOL    HW198295   9.615   6.205   9.088
32154SOL    HW298296   9.485   6.278   9.114
32155SOL     OW98297   6.892  10.646   8.483
32155SOL    HW198298   6.894  10.571   8.543
32155SOL    HW298299   6.803  10.679   8.489
32156SOL     OW98300   4.469   9.504   6.042
32156SOL    HW198301   4.516   9.537   6.119
32156SOL    HW298302   4.524   9.529   5.968
32157SOL     OW98303   2.149   1.106  14.016
32157SOL    HW198304   2.244   1.109  14.010
32157SOL    HW298305   2.131   1.084  14.107
32158SOL     OW98306   8.860  13.394  10.908
32158SOL    HW198307   8.778  13.375  10.955
32158SOL    HW298308   8.840  13.471  10.855
32159SOL     OW98309  11.398  12.858   8.883
32159SOL    HW198310  11.309  12.858   8.849
32159SOL    HW298311  11.450  12.903   8.815
32160SOL     OW98312   5.339  11.696  13.223
32160SOL    HW198313   5.281  11.728  13.292
32160SOL    HW298314   5.426  11.726  13.250
32161SOL     OW98315  14.136   3.367  14.636
32161SOL    HW198316  14.128   3.394  14.544
32161SOL    HW298317  14.229   3.382  14.657
32162SOL     OW98318  14.789  11.044   0.347
32162SOL    HW198319  14.779  11.090   0.430
32162SOL    HW298320  14.774  11.112   0.281
32163SOL     OW98321   6.486  10.722  13.941
32163SOL    HW198322   6.393  10.724  13.923
32163SOL    HW298323   6.499  10.641  13.991
32164SOL     OW98324   4.043   6.044  11.085
32164SOL    HW198325   4.046   6.084  10.997
32164SOL    HW298326   4.135   6.029  11.107
32165SOL     OW98327   6.163   0.756   6.815
32165SOL    HW198328   6.123   0.768   6.900
32165SOL    HW298329   6.146   0.664   6.793
32166SOL     OW98330   8.809   0.242   7.248
32166SOL    HW198331   8.889   0.265   7.295
32166SOL    HW298332   8.834   0.168   7.192
32167SOL     OW98333   2.093  10.909  10.768
32167SOL    HW198334   2.124  10.999  10.776
32167SOL    HW298335   2.119  10.883  10.679
32168SOL     OW98336  14.850  11.329   3.233
32168SOL    HW198337   0.042  11.332   3.303
32168SOL    HW298338   0.027  11.305   3.155
32169SOL     OW98339   8.717   2.350   8.702
32169SOL    HW198340   8.764   2.268   8.693
32169SOL    HW298341   8.647   2.331   8.765
32170SOL     OW98342   2.001   5.309   8.241
32170SOL    HW198343   1.947   5.290   8.164
32170SOL    HW298344   2.018   5.403   8.236
32171SOL     OW98345   1.780  12.755  12.149
32171SOL    HW198346   1.856  12.727  12.099
32171SOL    HW298347   1.803  12.733  12.240
32172SOL     OW98348   0.192  13.035   0.601
32172SOL    HW198349   0.121  12.990   0.555
32172SOL    HW298350   0.271  12.987   0.575
32173SOL     OW98351   0.007   9.041   1.158
32173SOL    HW198352  14.816   9.098   1.200
32173SOL    HW298353   0.039   8.984   1.229
32174SOL     OW98354  12.074  10.484  13.621
32174SOL    HW198355  11.991  10.530  13.613
32174SOL    HW298356  12.121  10.532  13.689
32175SOL     OW98357  10.786  13.650  13.686
32175SOL    HW198358  10.694  13.654  13.661
32175SOL    HW298359  10.785  13.643  13.781
32176SOL     OW98360  12.639   6.601   5.664
32176SOL    HW198361  12.635   6.536   5.594
32176SOL    HW298362  12.618   6.552   5.744
32177SOL     OW98363   4.774   0.383   1.914
32177SOL    HW198364   4.730   0.319   1.858
32177SOL    HW298365   4.868   0.369   1.896
32178SOL     OW98366  13.909  13.623   5.013
32178SOL    HW198367  13.995  13.630   4.970
32178SOL    HW298368  13.891  13.712   5.044
32179SOL     OW98369   1.160  14.065   3.505
32179SOL    HW198370   1.073  14.098   3.485
32179SOL    HW298371   1.215  14.097   3.433
32180SOL     OW98372  13.223   1.633   3.165
32180SOL    HW198373  13.155   1.587   3.215
32180SOL    HW298374  13.185   1.720   3.148
32181SOL     OW98375   2.179   0.364  10.646
32181SOL    HW198376   2.116   0.431  10.672
32181SOL    HW298377   2.249   0.371  10.711
32182SOL     OW98378   3.176   1.314  11.504
32182SOL    HW198379   3.227   1.329  11.424
32182SOL    HW298380   3.132   1.230  11.488
32183SOL     OW98381   0.379  10.700   2.218
32183SOL    HW198382   0.325  10.701   2.298
32183SOL    HW298383   0.442  10.771   2.231
32184SOL     OW98384  14.069  10.761   3.542
32184SOL    HW198385  14.058  10.731   3.632
32184SOL    HW298386  14.145  10.820   3.545
32185SOL     OW98387   0.530  13.777  12.241
32185SOL    HW198388   0.611  13.805  12.283
32185SOL    HW298389   0.492  13.858  12.206
32186SOL     OW98390   6.041   9.979   5.080
32186SOL    HW198391   6.121   9.926   5.074
32186SOL    HW298392   5.980   9.937   5.020
32187SOL     OW98393   8.547  12.386   5.423
32187SOL    HW198394   8.526  12.300   5.387
32187SOL    HW298395   8.480  12.444   5.386
32188SOL     OW98396   2.701   5.713  10.213
32188SOL    HW198397   2.631   5.657  10.180
32188SOL    HW298398   2.680   5.800  10.178
32189SOL     OW98399   9.963  14.317   3.074
32189SOL    HW198400  10.047  14.288   3.111
32189SOL    HW298401   9.942  14.397   3.122
32190SOL     OW98402   0.775  14.285   5.613
32190SOL    HW198403   0.869  14.268   5.610
32190SOL    HW298404   0.756  14.301   5.705
32191SOL     OW98405  11.401   2.304   2.997
32191SOL    HW198406  11.440   2.298   3.084
32191SOL    HW298407  11.476   2.296   2.937
32192SOL     OW98408   0.190  13.503   4.364
32192SOL    HW198409   0.224  13.511   4.275
32192SOL    HW298410   0.156  13.414   4.369
32193SOL     OW98411   7.275   0.694   2.007
32193SOL    HW198412   7.333   0.644   1.949
32193SOL    HW298413   7.213   0.737   1.947
32194SOL     OW98414   8.718   3.358  13.781
32194SOL    HW198415   8.651   3.425  13.773
32194SOL    HW298416   8.692   3.306  13.857
32195SOL     OW98417  14.385   4.560   5.488
32195SOL    HW198418  14.301   4.601   5.467
32195SOL    HW298419  14.445   4.634   5.500
32196SOL     OW98420   1.355  10.514   5.669
32196SOL    HW198421   1.383  10.520   5.760
32196SOL    HW298422   1.336  10.421   5.655
32197SOL     OW98423  10.017   1.865  12.640
32197SOL    HW198424   9.998   1.802  12.710
32197SOL    HW298425   9.991   1.949  12.676
32198SOL     OW98426   7.737  11.333   5.276
32198SOL    HW198427   7.714  11.244   5.250
32198SOL    HW298428   7.685  11.389   5.219
32199SOL     OW98429   3.604   7.014  12.346
32199SOL    HW198430   3.578   7.076  12.415
32199SOL    HW298431   3.600   7.065  12.265
32200SOL     OW98432   3.575  13.915   9.053
32200SOL    HW198433   3.489  13.873   9.063
32200SOL    HW298434   3.609  13.881   8.970
32201SOL     OW98435   8.014  12.589  14.062
32201SOL    HW198436   8.010  12.639  13.980
32201SOL    HW298437   8.106  12.567  14.072
32202SOL     OW98438  14.808  14.121   6.701
32202SOL    HW198439  14.743  14.050   6.709
32202SOL    HW298440   0.019  14.076   6.699
32203SOL     OW98441  10.256  11.842  11.793
32203SOL    HW198442  10.226  11.881  11.710
32203SOL    HW298443  10.305  11.764  11.767
32204SOL     OW98444   6.099   2.892   0.614
32204SOL    HW198445   6.116   2.818   0.556
32204SOL    HW298446   6.185   2.924   0.639
32205SOL     OW98447   1.925  11.361  10.285
32205SOL    HW198448   1.847  11.415  10.277
32205SOL    HW298449   1.968  11.369  10.200
32206SOL     OW98450   9.043  13.777   1.555
32206SOL    HW198451   9.002  13.858   1.523
32206SOL    HW298452   8.971  13.725   1.588
32207SOL     OW98453   2.164  13.054  10.765
32207SOL    HW198454   2.098  13.086  10.703
32207SOL    HW298455   2.194  13.132  10.811
32208SOL     OW98456  13.860   6.666  13.361
32208SOL    HW198457  13.815   6.671  13.445
32208SOL    HW298458  13.847   6.752  13.321
32209SOL     OW98459   2.485   6.096  11.944
32209SOL    HW198460   2.498   6.131  12.032
32209SOL    HW298461   2.530   6.158  11.887
32210SOL     OW98462  12.980  14.452   1.010
32210SOL    HW198463  12.993  14.408   0.926
32210SOL    HW298464  12.967  14.544   0.987
32211SOL     OW98465  12.517   2.161  10.014
32211SOL    HW198466  12.517   2.221   9.941
32211SOL    HW298467  12.453   2.094   9.990
32212SOL     OW98468   6.387  14.262  13.162
32212SOL    HW198469   6.482  14.257  13.161
32212SOL    HW298470   6.367  14.348  13.126
32213SOL     OW98471   1.028  11.143   4.580
32213SOL    HW198472   0.957  11.161   4.642
32213SOL    HW298473   1.032  11.221   4.524
32214SOL     OW98474   8.248  13.598  14.217
32214SOL    HW198475   8.277  13.680  14.177
32214SOL    HW298476   8.287  13.529  14.164
32215SOL     OW98477   5.607   3.596   8.370
32215SOL    HW198478   5.637   3.511   8.337
32215SOL    HW298479   5.566   3.576   8.454
32216SOL     OW98480   0.241  11.467   7.741
32216SOL    HW198481   0.150  11.435   7.736
32216SOL    HW298482   0.254  11.514   7.658
32217SOL     OW98483   1.569   9.014   7.065
32217SOL    HW198484   1.588   9.034   6.973
32217SOL    HW298485   1.605   8.927   7.079
32218SOL     OW98486   4.154  13.318   6.058
32218SOL    HW198487   4.097  13.263   6.113
32218SOL    HW298488   4.095  13.359   5.995
32219SOL     OW98489  10.112   2.785  14.361
32219SOL    HW198490  10.105   2.841  14.438
32219SOL    HW298491  10.136   2.845  14.290
32220SOL     OW98492   2.848   1.480   4.220
32220SOL    HW198493   2.770   1.523   4.185
32220SOL    HW298494   2.867   1.410   4.157
32221SOL     OW98495   7.591   4.044   7.328
32221SOL    HW198496   7.656   4.080   7.268
32221SOL    HW298497   7.618   4.073   7.415
32222SOL     OW98498   8.439  13.982  14.869
32222SOL    HW198499   8.410  13.990   0.087
32222SOL    HW298500   8.433  14.071  14.833
32223SOL     OW98501   5.653   4.128   8.118
32223SOL    HW198502   5.565   4.126   8.157
32223SOL    HW298503   5.685   4.038   8.125
32224SOL     OW98504   6.558   3.030   2.443
32224SOL    HW198505   6.651   3.012   2.432
32224SOL    HW298506   6.519   2.943   2.459
32225SOL     OW98507   9.054   1.468  11.164
32225SOL    HW198508   9.050   1.373  11.174
32225SOL    HW298509   9.145   1.486  11.139
32226SOL     OW98510  10.173   0.244   9.095
32226SOL    HW198511  10.165   0.149   9.088
32226SOL    HW298512  10.199   0.273   9.007
32227SOL     OW98513  11.162   8.617  11.002
32227SOL    HW198514  11.069   8.594  10.997
32227SOL    HW298515  11.195   8.567  11.077
32228SOL     OW98516  10.952   9.798  13.762
32228SOL    HW198517  10.923   9.711  13.735
32228SOL    HW298518  10.872   9.841  13.794
32229SOL     OW98519   6.440   4.411  13.418
32229SOL    HW198520   6.352   4.431  13.447
32229SOL    HW298521   6.497   4.441  13.489
32230SOL     OW98522   2.858  12.500  10.286
32230SOL    HW198523   2.881  12.416  10.245
32230SOL    HW298524   2.788  12.535  10.232
32231SOL     OW98525   1.567   9.957   9.393
32231SOL    HW198526   1.644   9.905   9.418
32231SOL    HW298527   1.530   9.986   9.476
32232SOL     OW98528   8.166  12.440   2.626
32232SOL    HW198529   8.170  12.521   2.677
32232SOL    HW298530   8.079  12.439   2.588
32233SOL     OW98531   8.813  14.118   8.751
32233SOL    HW198532   8.899  14.089   8.720
32233SOL    HW298533   8.809  14.210   8.726
32234SOL     OW98534  11.187   9.129   3.112
32234SOL    HW198535  11.229   9.052   3.151
32234SOL    HW298536  11.094   9.118   3.132
32235SOL     OW98537  13.731   9.707   2.460
32235SOL    HW198538  13.696   9.761   2.531
32235SOL    HW298539  13.823   9.695   2.482
32236SOL     OW98540  12.879   3.705   7.251
32236SOL    HW198541  12.791   3.711   7.214
32236SOL    HW298542  12.870   3.649   7.328
32237SOL     OW98543  12.011   2.800   5.515
32237SOL    HW198544  12.038   2.756   5.596
32237SOL    HW298545  12.080   2.864   5.498
32238SOL     OW98546  13.625   4.121   8.918
32238SOL    HW198547  13.695   4.151   8.976
32238SOL    HW298548  13.668   4.059   8.859
32239SOL     OW98549  13.410  10.952   7.910
32239SOL    HW198550  13.430  10.939   8.003
32239SOL    HW298551  13.419  11.046   7.897
32240SOL     OW98552  11.957   5.894   0.492
32240SOL    HW198553  12.006   5.976   0.481
32240SOL    HW298554  12.025   5.829   0.510
32241SOL     OW98555   5.692   9.554   3.596
32241SOL    HW198556   5.782   9.536   3.567
32241SOL    HW298557   5.638   9.498   3.540
32242SOL     OW98558   6.949  13.450   6.044
32242SOL    HW198559   6.906  13.446   6.129
32242SOL    HW298560   6.993  13.535   6.043
32243SOL     OW98561   7.157   1.692  12.145
32243SOL    HW198562   7.108   1.764  12.184
32243SOL    HW298563   7.124   1.687  12.055
32244SOL     OW98564   3.500   1.511  13.012
32244SOL    HW198565   3.579   1.554  13.044
32244SOL    HW298566   3.529   1.465  12.933
32245SOL     OW98567   3.536   8.046   6.209
32245SOL    HW198568   3.482   8.122   6.228
32245SOL    HW298569   3.473   7.975   6.193
32246SOL     OW98570   9.912  14.615  11.830
32246SOL    HW198571   9.823  14.637  11.856
32246SOL    HW298572   9.945  14.560  11.902
32247SOL     OW98573   0.588   6.046   0.480
32247SOL    HW198574   0.655   6.036   0.548
32247SOL    HW298575   0.614   6.125   0.433
32248SOL     OW98576  13.734   9.083   6.581
32248SOL    HW198577  13.735   9.176   6.557
32248SOL    HW298578  13.663   9.075   6.644
32249SOL     OW98579   2.633  11.792   0.317
32249SOL    HW198580   2.538  11.784   0.323
32249SOL    HW298581   2.658  11.836   0.398
32250SOL     OW98582   1.308   0.726  13.604
32250SOL    HW198583   1.257   0.728  13.523
32250SOL    HW298584   1.363   0.804  13.600
32251SOL     OW98585  10.566  10.309  11.362
32251SOL    HW198586  10.562  10.298  11.457
32251SOL    HW298587  10.608  10.394  11.349
32252SOL     OW98588   7.574  10.236   1.343
32252SOL    HW198589   7.538  10.148   1.353
32252SOL    HW298590   7.669  10.224   1.355
32253SOL     OW98591  14.083  13.688  13.577
32253SOL    HW198592  14.026  13.633  13.523
32253SOL    HW298593  14.153  13.628  13.606
32254SOL     OW98594   6.128   2.921  10.632
32254SOL    HW198595   6.151   2.917  10.725
32254SOL    HW298596   6.052   2.863  10.624
32255SOL     OW98597   0.714  12.578  11.369
32255SOL    HW198598   0.793  12.551  11.323
32255SOL    HW298599   0.724  12.544  11.457
32256SOL     OW98600   9.587  10.038   4.712
32256SOL    HW198601   9.618   9.950   4.690
32256SOL    HW298602   9.638  10.096   4.655
32257SOL     OW98603   8.540   1.800  14.053
32257SOL    HW198604   8.579   1.715  14.073
32257SOL    HW298605   8.477   1.782  13.984
32258SOL     OW98606   9.230   9.249   1.044
32258SOL    HW198607   9.298   9.276   0.982
32258SOL    HW298608   9.175   9.189   0.993
32259SOL     OW98609   7.450  10.200  14.323
32259SOL    HW198610   7.543  10.224  14.316
32259SOL    HW298611   7.428  10.163  14.238
32260SOL     OW98612   8.837   9.606   3.364
32260SOL    HW198613   8.746   9.600   3.335
32260SOL    HW298614   8.871   9.686   3.322
32261SOL     OW98615   9.750   5.933   8.493
32261SOL    HW198616   9.753   5.837   8.501
32261SOL    HW298617   9.668   5.958   8.535
32262SOL     OW98618  14.521  13.842   7.459
32262SOL    HW198619  14.500  13.823   7.550
32262SOL    HW298620  14.576  13.767   7.432
32263SOL     OW98621   7.265   7.801   7.530
32263SOL    HW198622   7.344   7.750   7.552
32263SOL    HW298623   7.249   7.781   7.438
32264SOL     OW98624  14.606   7.993   4.426
32264SOL    HW198625  14.620   8.056   4.355
32264SOL    HW298626  14.661   8.026   4.498
32265SOL     OW98627   3.114   1.604   4.696
32265SOL    HW198628   3.068   1.543   4.754
32265SOL    HW298629   3.089   1.576   4.608
32266SOL     OW98630  12.050  12.496   0.586
32266SOL    HW198631  11.988  12.564   0.559
32266SOL    HW298632  12.120  12.543   0.630
32267SOL     OW98633  10.593   3.465  13.404
32267SOL    HW198634  10.553   3.415  13.475
32267SOL    HW298635  10.674   3.500  13.441
32268SOL     OW98636  13.478   4.399   1.180
32268SOL    HW198637  13.391   4.360   1.182
32268SOL    HW298638  13.537   4.328   1.205
32269SOL     OW98639   8.538  12.995   2.427
32269SOL    HW198640   8.579  13.015   2.343
32269SOL    HW298641   8.512  12.903   2.419
32270SOL     OW98642   4.632   9.400  10.124
32270SOL    HW198643   4.639   9.460  10.199
32270SOL    HW298644   4.708   9.343  10.131
32271SOL     OW98645  14.182   0.799   4.054
32271SOL    HW198646  14.158   0.890   4.072
32271SOL    HW298647  14.255   0.805   3.993
32272SOL     OW98648   6.821   6.413   5.107
32272SOL    HW198649   6.893   6.387   5.165
32272SOL    HW298650   6.794   6.499   5.140
32273SOL     OW98651   2.645   6.248   3.660
32273SOL    HW198652   2.731   6.232   3.697
32273SOL    HW298653   2.617   6.163   3.626
32274SOL     OW98654   4.782   4.487   2.985
32274SOL    HW198655   4.789   4.579   3.009
32274SOL    HW298656   4.867   4.466   2.947
32275SOL     OW98657   0.441   3.521   8.745
32275SOL    HW198658   0.495   3.444   8.730
32275SOL    HW298659   0.492   3.575   8.806
32276SOL     OW98660  12.663   7.853   1.071
32276SOL    HW198661  12.750   7.834   1.037
32276SOL    HW298662  12.647   7.945   1.049
32277SOL     OW98663   6.977   6.170   0.770
32277SOL    HW198664   6.981   6.264   0.752
32277SOL    HW298665   7.022   6.130   0.695
32278SOL     OW98666  13.316  13.964  14.070
32278SOL    HW198667  13.227  13.975  14.102
32278SOL    HW298668  13.318  13.874  14.035
32279SOL     OW98669   4.521   1.779   8.288
32279SOL    HW198670   4.505   1.724   8.365
32279SOL    HW298671   4.435   1.786   8.245
32280SOL     OW98672  13.475   3.203  11.906
32280SOL    HW198673  13.550   3.144  11.910
32280SOL    HW298674  13.445   3.210  11.997
32281SOL     OW98675   2.815   5.758   0.011
32281SOL    HW198676   2.808   5.687  14.820
32281SOL    HW298677   2.893   5.737   0.063
32282SOL     OW98678   1.092   7.384   4.891
32282SOL    HW198679   1.064   7.449   4.956
32282SOL    HW298680   1.019   7.381   4.828
32283SOL     OW98681   1.723  14.633   9.956
32283SOL    HW198682   1.718  14.700   9.888
32283SOL    HW298683   1.728  14.682  10.038
32284SOL     OW98684  13.219   1.999  13.952
32284SOL    HW198685  13.178   2.078  13.915
32284SOL    HW298686  13.172   1.986  14.034
32285SOL     OW98687  14.048   3.847  13.907
32285SOL    HW198688  14.057   3.760  13.945
32285SOL    HW298689  13.954   3.864  13.907
32286SOL     OW98690   3.223   3.494  12.525
32286SOL    HW198691   3.228   3.516  12.432
32286SOL    HW298692   3.192   3.575  12.567
32287SOL     OW98693   5.559  14.247  12.687
32287SOL    HW198694   5.593  14.158  12.698
32287SOL    HW298695   5.493  14.239  12.619
32288SOL     OW98696   4.145   4.984   2.856
32288SOL    HW198697   4.170   5.006   2.946
32288SOL    HW298698   4.181   5.055   2.803
32289SOL     OW98699   5.080   7.837   3.485
32289SOL    HW198700   5.153   7.889   3.518
32289SOL    HW298701   5.069   7.866   3.394
32290SOL     OW98702  10.401  14.688   4.409
32290SOL    HW198703  10.486  14.655   4.381
32290SOL    HW298704  10.408  14.694   4.505
32291SOL     OW98705   4.268   9.354   8.586
32291SOL    HW198706   4.270   9.336   8.680
32291SOL    HW298707   4.273   9.267   8.546
32292SOL     OW98708  11.076   1.590   6.640
32292SOL    HW198709  11.020   1.538   6.698
32292SOL    HW298710  11.135   1.635   6.700
32293SOL     OW98711   2.243   0.734  10.991
32293SOL    HW198712   2.330   0.773  11.001
32293SOL    HW298713   2.235   0.717  10.898
32294SOL     OW98714  11.464  12.777   0.346
32294SOL    HW198715  11.545  12.809   0.306
32294SOL    HW298716  11.485  12.768   0.439
32295SOL     OW98717   1.718  12.670   4.553
32295SOL    HW198718   1.724  12.679   4.457
32295SOL    HW298719   1.802  12.702   4.585
32296SOL     OW98720   9.794  14.020   4.568
32296SOL    HW198721   9.797  13.943   4.626
32296SOL    HW298722   9.878  14.064   4.584
32297SOL     OW98723   1.768  13.577   7.753
32297SOL    HW198724   1.679  13.591   7.786
32297SOL    HW298725   1.762  13.495   7.703
32298SOL     OW98726   1.561  11.813   7.826
32298SOL    HW198727   1.495  11.754   7.789
32298SOL    HW298728   1.644  11.768   7.813
32299SOL     OW98729  10.997  12.188   0.804
32299SOL    HW198730  10.930  12.122   0.821
32299SOL    HW298731  11.077  12.138   0.787
32300SOL     OW98732   9.369  12.505   0.346
32300SOL    HW198733   9.332  12.589   0.318
32300SOL    HW298734   9.301  12.467   0.402
32301SOL     OW98735   3.211   1.986   8.427
32301SOL    HW198736   3.177   1.914   8.374
32301SOL    HW298737   3.147   1.996   8.498
32302SOL     OW98738   4.794   1.744   2.141
32302SOL    HW198739   4.747   1.683   2.086
32302SOL    HW298740   4.745   1.746   2.223
32303SOL     OW98741   9.637   7.703   7.393
32303SOL    HW198742   9.709   7.653   7.356
32303SOL    HW298743   9.679   7.775   7.441
32304SOL     OW98744  10.352   8.128  12.762
32304SOL    HW198745  10.445   8.134  12.785
32304SOL    HW298746  10.320   8.218  12.770
32305SOL     OW98747   9.037   2.455   7.816
32305SOL    HW198748   9.079   2.440   7.731
32305SOL    HW298749   9.105   2.499   7.868
32306SOL     OW98750  11.586   2.222   3.206
32306SOL    HW198751  11.618   2.311   3.187
32306SOL    HW298752  11.665   2.174   3.233
32307SOL     OW98753  14.218   2.340  13.221
32307SOL    HW198754  14.298   2.389  13.202
32307SOL    HW298755  14.198   2.361  13.312
32308SOL     OW98756   7.807   0.955   2.588
32308SOL    HW198757   7.762   0.920   2.665
32308SOL    HW298758   7.798   1.050   2.596
32309SOL     OW98759   7.804   8.497   5.457
32309SOL    HW198760   7.866   8.430   5.428
32309SOL    HW298761   7.720   8.451   5.458
32310SOL     OW98762  14.399  14.210   6.281
32310SOL    HW198763  14.328  14.275   6.281
32310SOL    HW298764  14.452  14.233   6.205
32311SOL     OW98765  12.696  12.573   0.858
32311SOL    HW198766  12.700  12.607   0.769
32311SOL    HW298767  12.711  12.649   0.914
32312SOL     OW98768   5.207   9.739   4.642
32312SOL    HW198769   5.159   9.769   4.719
32312SOL    HW298770   5.145   9.749   4.570
32313SOL     OW98771  10.629   0.661   5.862
32313SOL    HW198772  10.701   0.610   5.825
32313SOL    HW298773  10.659   0.687   5.949
32314SOL     OW98774   5.429   1.086   5.155
32314SOL    HW198775   5.470   1.148   5.214
32314SOL    HW298776   5.413   1.008   5.208
32315SOL     OW98777  11.478   7.877  13.221
32315SOL    HW198778  11.512   7.876  13.311
32315SOL    HW298779  11.476   7.969  13.197
32316SOL     OW98780   7.414   9.657   7.481
32316SOL    HW198781   7.353   9.725   7.509
32316SOL    HW298782   7.358   9.588   7.445
32317SOL     OW98783  11.380   0.012  14.131
32317SOL    HW198784  11.410   0.063  14.056
32317SOL    HW298785  11.397  14.794  14.107
32318SOL     OW98786   8.208   5.718   0.533
32318SOL    HW198787   8.192   5.810   0.553
32318SOL    HW298788   8.129   5.689   0.487
32319SOL     OW98789  10.135  10.256   7.021
32319SOL    HW198790  10.132  10.338   7.071
32319SOL    HW298791  10.111  10.281   6.932
32320SOL     OW98792  11.644  10.359  14.077
32320SOL    HW198793  11.583  10.429  14.054
32320SOL    HW298794  11.651  10.364  14.172
32321SOL     OW98795   0.472   8.054  11.605
32321SOL    HW198796   0.452   8.146  11.622
32321SOL    HW298797   0.509   8.053  11.517
32322SOL     OW98798  13.273   2.253   7.829
32322SOL    HW198799  13.367   2.259   7.845
32322SOL    HW298800  13.248   2.169   7.868
32323SOL     OW98801   7.551   2.057   3.932
32323SOL    HW198802   7.474   2.112   3.923
32323SOL    HW298803   7.526   1.993   3.999
32324SOL     OW98804   8.705  13.752  13.036
32324SOL    HW198805   8.725  13.712  13.121
32324SOL    HW298806   8.655  13.830  13.058
32325SOL     OW98807   4.274  12.520   0.744
32325SOL    HW198808   4.261  12.447   0.682
32325SOL    HW298809   4.241  12.597   0.697
32326SOL     OW98810   4.200   3.604   7.070
32326SOL    HW198811   4.237   3.539   7.010
32326SOL    HW298812   4.149   3.552   7.132
32327SOL     OW98813   9.565   9.548   9.772
32327SOL    HW198814   9.589   9.463   9.810
32327SOL    HW298815   9.475   9.535   9.742
32328SOL     OW98816   0.728   8.998   4.343
32328SOL    HW198817   0.641   8.976   4.375
32328SOL    HW298818   0.785   8.990   4.419
32329SOL     OW98819  14.359  12.054   6.707
32329SOL    HW198820  14.435  12.004   6.678
32329SOL    HW298821  14.373  12.068   6.800
32330SOL     OW98822   5.823   4.885   6.208
32330SOL    HW198823   5.748   4.931   6.247
32330SOL    HW298824   5.899   4.935   6.237
32331SOL     OW98825  13.627   4.644   6.788
32331SOL    HW198826  13.664   4.694   6.715
32331SOL    HW298827  13.689   4.573   6.802
32332SOL     OW98828  13.503  12.176  13.264
32332SOL    HW198829  13.569  12.129  13.315
32332SOL    HW298830  13.438  12.110  13.242
32333SOL     OW98831  13.148   8.878   9.776
32333SOL    HW198832  13.166   8.937   9.702
32333SOL    HW298833  13.217   8.812   9.772
32334SOL     OW98834   5.380   3.120   3.543
32334SOL    HW198835   5.359   3.027   3.543
32334SOL    HW298836   5.303   3.162   3.580
32335SOL     OW98837   4.713   4.861   7.272
32335SOL    HW198838   4.639   4.914   7.244
32335SOL    HW298839   4.674   4.778   7.300
32336SOL     OW98840   7.690  12.444   2.639
32336SOL    HW198841   7.742  12.373   2.601
32336SOL    HW298842   7.720  12.522   2.593
32337SOL     OW98843   1.916   7.543   8.994
32337SOL    HW198844   1.950   7.631   8.980
32337SOL    HW298845   1.994   7.489   9.008
32338SOL     OW98846  12.454  14.385   4.933
32338SOL    HW198847  12.526  14.367   4.872
32338SOL    HW298848  12.407  14.458   4.893
32339SOL     OW98849   5.401   4.900   1.043
32339SOL    HW198850   5.379   4.943   1.125
32339SOL    HW298851   5.334   4.930   0.981
32340SOL     OW98852   6.844   2.303  14.379
32340SOL    HW198853   6.833   2.397  14.363
32340SOL    HW298854   6.862   2.296  14.472
32341SOL     OW98855   4.269   5.622   0.968
32341SOL    HW198856   4.295   5.573   0.890
32341SOL    HW298857   4.326   5.698   0.969
32342SOL     OW98858   2.716   4.278   9.397
32342SOL    HW198859   2.632   4.272   9.442
32342SOL    HW298860   2.697   4.258   9.306
32343SOL     OW98861   6.168   8.729   7.396
32343SOL    HW198862   6.108   8.749   7.325
32343SOL    HW298863   6.176   8.812   7.445
32344SOL     OW98864   3.999   5.850  14.788
32344SOL    HW198865   4.039   5.903  14.719
32344SOL    HW298866   3.932   5.906  14.826
32345SOL     OW98867  13.722   6.088   5.213
32345SOL    HW198868  13.741   6.181   5.200
32345SOL    HW298869  13.773   6.064   5.291
32346SOL     OW98870   5.011   6.957   1.674
32346SOL    HW198871   5.011   7.052   1.676
32346SOL    HW298872   4.995   6.935   1.582
32347SOL     OW98873   8.463   5.462  10.628
32347SOL    HW198874   8.505   5.377  10.643
32347SOL    HW298875   8.468   5.474  10.533
32348SOL     OW98876   7.555   7.470   1.253
32348SOL    HW198877   7.628   7.424   1.295
32348SOL    HW298878   7.478   7.415   1.271
32349SOL     OW98879   8.030   0.769   3.050
32349SOL    HW198880   7.992   0.711   3.117
32349SOL    HW298881   8.011   0.725   2.967
32350SOL     OW98882   5.171   4.172  10.633
32350SOL    HW198883   5.229   4.248  10.621
32350SOL    HW298884   5.195   4.137  10.719
32351SOL     OW98885   7.574   8.753   6.641
32351SOL    HW198886   7.557   8.776   6.732
32351SOL    HW298887   7.639   8.682   6.645
32352SOL     OW98888   9.892   0.689  13.921
32352SOL    HW198889   9.882   0.595  13.906
32352SOL    HW298890   9.924   0.697  14.011
32353SOL     OW98891   1.660   4.634   8.293
32353SOL    HW198892   1.736   4.613   8.239
32353SOL    HW298893   1.587   4.639   8.231
32354SOL     OW98894  10.392  13.981   2.243
32354SOL    HW198895  10.360  14.064   2.278
32354SOL    HW298896  10.485  13.980   2.266
32355SOL     OW98897  13.694   4.629   0.976
32355SOL    HW198898  13.639   4.571   0.924
32355SOL    HW298899  13.634   4.697   1.007
32356SOL     OW98900   1.920  13.153   0.014
32356SOL    HW198901   1.872  13.209   0.075
32356SOL    HW298902   2.012  13.172   0.032
32357SOL     OW98903   8.916   8.680   9.555
32357SOL    HW198904   8.840   8.680   9.498
32357SOL    HW298905   8.883   8.651   9.640
32358SOL     OW98906  11.883  13.822   8.135
32358SOL    HW198907  11.812  13.770   8.172
32358SOL    HW298908  11.889  13.793   8.044
32359SOL     OW98909  10.734   4.183   6.190
32359SOL    HW198910  10.727   4.266   6.238
32359SOL    HW298911  10.782   4.205   6.110
32360SOL     OW98912   6.951  12.540  14.252
32360SOL    HW198913   7.011  12.493  14.310
32360SOL    HW298914   6.946  12.628  14.289
32361SOL     OW98915   5.529  11.369   3.869
32361SOL    HW198916   5.456  11.356   3.929
32361SOL    HW298917   5.561  11.457   3.888
32362SOL     OW98918  14.863   8.313   3.184
32362SOL    HW198919   0.007   8.241   3.123
32362SOL    HW298920   0.046   8.384   3.153
32363SOL     OW98921   9.695  13.291   5.467
32363SOL    HW198922   9.715  13.344   5.544
32363SOL    HW298923   9.665  13.208   5.503
32364SOL     OW98924   8.810   7.297   8.338
32364SOL    HW198925   8.806   7.345   8.420
32364SOL    HW298926   8.787   7.361   8.271
32365SOL     OW98927   3.972   6.591   4.425
32365SOL    HW198928   3.977   6.662   4.360
32365SOL    HW298929   4.051   6.601   4.477
32366SOL     OW98930  11.294   3.220   0.437
32366SOL    HW198931  11.311   3.146   0.496
32366SOL    HW298932  11.376   3.233   0.390
32367SOL     OW98933   5.194  12.581   1.946
32367SOL    HW198934   5.217  12.598   1.855
32367SOL    HW298935   5.111  12.533   1.942
32368SOL     OW98936   4.224  10.360   2.949
32368SOL    HW198937   4.166  10.378   3.022
32368SOL    HW298938   4.303  10.412   2.967
32369SOL     OW98939  13.954   3.221   9.343
32369SOL    HW198940  13.920   3.133   9.359
32369SOL    HW298941  13.891   3.261   9.283
32370SOL     OW98942   4.863   1.748   9.359
32370SOL    HW198943   4.916   1.828   9.364
32370SOL    HW298944   4.913   1.690   9.302
32371SOL     OW98945   2.163   6.074   2.359
32371SOL    HW198946   2.133   5.988   2.328
32371SOL    HW298947   2.199   6.115   2.281
32372SOL     OW98948  11.687  13.466   7.023
32372SOL    HW198949  11.627  13.518   6.970
32372SOL    HW298950  11.646  13.460   7.109
32373SOL     OW98951   5.195  11.768  14.628
32373SOL    HW198952   5.210  11.805  14.715
32373SOL    HW298953   5.169  11.843  14.575
32374SOL     OW98954  14.836  11.506   9.427
32374SOL    HW198955  14.814  11.416   9.402
32374SOL    HW298956  14.866  11.546   9.346
32375SOL     OW98957  11.184   2.912   7.807
32375SOL    HW198958  11.182   2.833   7.861
32375SOL    HW298959  11.274   2.915   7.773
32376SOL     OW98960   9.926   8.897  13.827
32376SOL    HW198961   9.917   8.834  13.898
32376SOL    HW298962   9.936   8.842  13.748
32377SOL     OW98963   7.603   7.970   1.465
32377SOL    HW198964   7.616   7.877   1.446
32377SOL    HW298965   7.609   8.013   1.379
32378SOL     OW98966   9.272  12.932  13.397
32378SOL    HW198967   9.276  12.920  13.302
32378SOL    HW298968   9.274  13.027  13.409
32379SOL     OW98969   0.013  12.389   0.157
32379SOL    HW198970   0.063  12.398   0.076
32379SOL    HW298971  14.819  12.458   0.152
32380SOL     OW98972   5.095  12.010   3.344
32380SOL    HW198973   5.045  12.012   3.262
32380SOL    HW298974   5.028  12.017   3.412
32381SOL     OW98975  10.764  14.476   3.843
32381SOL    HW198976  10.694  14.488   3.779
32381SOL    HW298977  10.807  14.561   3.849
32382SOL     OW98978   1.694   5.340  13.395
32382SOL    HW198979   1.606   5.375  13.410
32382SOL    HW298980   1.706   5.347  13.300
32383SOL     OW98981   2.429   8.894   8.425
32383SOL    HW198982   2.497   8.861   8.365
32383SOL    HW298983   2.390   8.815   8.462
32384SOL     OW98984   2.817   0.237   7.697
32384SOL    HW198985   2.795   0.239   7.603
32384SOL    HW298986   2.905   0.197   7.699
32385SOL     OW98987  11.213   6.362  11.545
32385SOL    HW198988  11.289   6.384  11.491
32385SOL    HW298989  11.178   6.283  11.505
32386SOL     OW98990   3.526   2.886   8.900
32386SOL    HW198991   3.443   2.932   8.887
32386SOL    HW298992   3.505   2.793   8.887
32387SOL     OW98993   0.073   4.822  13.939
32387SOL    HW198994   0.031   4.874  13.870
32387SOL    HW298995   0.142   4.878  13.973
32388SOL     OW98996   2.456  11.984   4.800
32388SOL    HW198997   2.467  12.077   4.781
32388SOL    HW298998   2.490  11.939   4.723
32389SOL     OW98999   4.033   2.366  10.429
32389SOL    HW199000   3.968   2.432  10.405
32389SOL    HW299001   4.101   2.415  10.475
32390SOL     OW99002   5.653  10.787   3.399
32390SOL    HW199003   5.697  10.853   3.345
32390SOL    HW299004   5.712  10.713   3.400
32391SOL     OW99005   7.306   2.065   9.218
32391SOL    HW199006   7.274   2.037   9.303
32391SOL    HW299007   7.238   2.040   9.156
32392SOL     OW99008   2.461   9.612  13.841
32392SOL    HW199009   2.533   9.553  13.817
32392SOL    HW299010   2.384   9.556  13.845
32393SOL     OW99011  14.441   3.656   2.061
32393SOL    HW199012  14.362   3.710   2.053
32393SOL    HW299013  14.513   3.717   2.043
32394SOL     OW99014   1.892  13.394   5.038
32394SOL    HW199015   1.810  13.398   4.988
32394SOL    HW299016   1.923  13.485   5.039
32395SOL     OW99017   8.282   1.919   7.586
32395SOL    HW199018   8.352   1.974   7.619
32395SOL    HW299019   8.283   1.842   7.643
32396SOL     OW99020   5.669   8.156   8.760
32396SOL    HW199021   5.611   8.205   8.702
32396SOL    HW299022   5.655   8.194   8.847
32397SOL     OW99023   6.716  14.493   3.455
32397SOL    HW199024   6.704  14.553   3.529
32397SOL    HW299025   6.689  14.407   3.489
32398SOL     OW99026   3.669   1.891   5.509
32398SOL    HW199027   3.642   1.886   5.417
32398SOL    HW299028   3.692   1.983   5.522
32399SOL     OW99029   4.114  11.145  14.141
32399SOL    HW199030   4.140  11.141  14.233
32399SOL    HW299031   4.190  11.183  14.096
32400SOL     OW99032   9.327  10.880   5.873
32400SOL    HW199033   9.351  10.926   5.954
32400SOL    HW299034   9.305  10.950   5.811
32401SOL     OW99035   2.824   6.576   4.353
32401SOL    HW199036   2.858   6.548   4.268
32401SOL    HW299037   2.889   6.544   4.416
32402SOL     OW99038  12.926   4.631  10.510
32402SOL    HW199039  12.844   4.672  10.535
32402SOL    HW299040  12.922   4.625  10.415
32403SOL     OW99041   0.828   4.039   5.953
32403SOL    HW199042   0.877   3.966   5.914
32403SOL    HW299043   0.811   4.010   6.043
32404SOL     OW99044  13.707   8.323   3.649
32404SOL    HW199045  13.660   8.376   3.584
32404SOL    HW299046  13.731   8.385   3.718
32405SOL     OW99047  11.903   8.675  12.116
32405SOL    HW199048  11.979   8.616  12.112
32405SOL    HW299049  11.827   8.616  12.112
32406SOL     OW99050  12.382   8.778   7.706
32406SOL    HW199051  12.446   8.710   7.726
32406SOL    HW299052  12.301   8.748   7.748
32407SOL     OW99053  13.432   3.537   2.770
32407SOL    HW199054  13.499   3.469   2.779
32407SOL    HW299055  13.350   3.493   2.791
32408SOL     OW99056   1.008  10.541  13.795
32408SOL    HW199057   1.082  10.542  13.856
32408SOL    HW299058   1.021  10.462  13.743
32409SOL     OW99059   8.548   9.523   7.833
32409SOL    HW199060   8.512   9.594   7.886
32409SOL    HW299061   8.509   9.444   7.870
32410SOL     OW99062   1.362  12.241   7.878
32410SOL    HW199063   1.443  12.227   7.829
32410SOL    HW299064   1.307  12.166   7.855
32411SOL     OW99065   9.154  11.408   8.527
32411SOL    HW199066   9.145  11.429   8.434
32411SOL    HW299067   9.227  11.346   8.530
32412SOL     OW99068  10.082  10.969   0.280
32412SOL    HW199069  10.037  10.968   0.364
32412SOL    HW299070  10.015  10.996   0.217
32413SOL     OW99071   5.992   7.226   1.904
32413SOL    HW199072   5.985   7.179   1.987
32413SOL    HW299073   5.932   7.300   1.912
32414SOL     OW99074   4.383  13.764  14.680
32414SOL    HW199075   4.384  13.859  14.692
32414SOL    HW299076   4.303  13.735  14.724
32415SOL     OW99077   3.628   8.210   4.525
32415SOL    HW199078   3.595   8.171   4.443
32415SOL    HW299079   3.611   8.303   4.516
32416SOL     OW99080  14.760  14.583   2.045
32416SOL    HW199081  14.748  14.487   2.044
32416SOL    HW299082  14.707  14.613   1.971
32417SOL     OW99083   5.634  14.274   1.909
32417SOL    HW199084   5.548  14.289   1.869
32417SOL    HW299085   5.631  14.324   1.991
32418SOL     OW99086   0.750   2.458   7.487
32418SOL    HW199087   0.755   2.428   7.396
32418SOL    HW299088   0.835   2.436   7.524
32419SOL     OW99089  10.731  14.001   9.264
32419SOL    HW199090  10.801  13.937   9.281
32419SOL    HW299091  10.651  13.948   9.257
32420SOL     OW99092  13.264   5.441   8.383
32420SOL    HW199093  13.277   5.389   8.462
32420SOL    HW299094  13.182   5.408   8.346
32421SOL     OW99095   0.219   3.960   1.476
32421SOL    HW199096   0.222   4.020   1.401
32421SOL    HW299097   0.175   3.882   1.442
32422SOL     OW99098  11.164   4.947   4.264
32422SOL    HW199099  11.196   4.865   4.227
32422SOL    HW299100  11.206   4.952   4.350
32423SOL     OW99101   4.126   8.412   1.073
32423SOL    HW199102   4.111   8.374   0.986
32423SOL    HW299103   4.039   8.435   1.106
32424SOL     OW99104   3.909   6.682  12.563
32424SOL    HW199105   3.957   6.621  12.619
32424SOL    HW299106   3.959   6.683  12.481
32425SOL     OW99107   2.117   4.190   1.259
32425SOL    HW199108   2.209   4.209   1.240
32425SOL    HW299109   2.106   4.214   1.351
32426SOL     OW99110   1.493   1.062   0.442
32426SOL    HW199111   1.484   1.152   0.408
32426SOL    HW299112   1.474   1.070   0.535
32427SOL     OW99113  13.195  12.486   1.800
32427SOL    HW199114  13.147  12.564   1.824
32427SOL    HW299115  13.170  12.420   1.864
32428SOL     OW99116   1.373   5.316   0.222
32428SOL    HW199117   1.360   5.335   0.129
32428SOL    HW299118   1.455   5.267   0.225
32429SOL     OW99119   1.816   3.496  13.683
32429SOL    HW199120   1.775   3.435  13.622
32429SOL    HW299121   1.783   3.470  13.769
32430SOL     OW99122  14.846   6.091  10.498
32430SOL    HW199123   0.006   6.131  10.417
32430SOL    HW299124  14.771   6.038  10.470
32431SOL     OW99125  12.187   8.535   1.444
32431SOL    HW199126  12.235   8.611   1.412
32431SOL    HW299127  12.109   8.572   1.486
32432SOL     OW99128   6.577  10.323   3.153
32432SOL    HW199129   6.561  10.233   3.182
32432SOL    HW299130   6.532  10.329   3.069
32433SOL     OW99131   2.005   6.448   2.764
32433SOL    HW199132   1.971   6.519   2.817
32433SOL    HW299133   2.023   6.488   2.679
32434SOL     OW99134  11.273   0.331   7.075
32434SOL    HW199135  11.214   0.393   7.032
32434SOL    HW299136  11.279   0.363   7.165
32435SOL     OW99137  13.715  13.646  13.747
32435SOL    HW199138  13.757  13.655  13.662
32435SOL    HW299139  13.786  13.625  13.807
32436SOL     OW99140   4.998  14.788   6.973
32436SOL    HW199141   5.016  14.770   7.066
32436SOL    HW299142   4.910  14.752   6.959
32437SOL     OW99143   7.008  14.705   4.006
32437SOL    HW199144   7.036  14.663   4.087
32437SOL    HW299145   7.076  14.682   3.942
32438SOL     OW99146   8.455   5.441   7.646
32438SOL    HW199147   8.394   5.379   7.608
32438SOL    HW299148   8.404   5.489   7.711
32439SOL     OW99149  11.536   2.377   9.800
32439SOL    HW199150  11.469   2.317   9.768
32439SOL    HW299151  11.617   2.326   9.799
32440SOL     OW99152  10.894   0.435  10.423
32440SOL    HW199153  10.955   0.506  10.443
32440SOL    HW299154  10.890   0.383  10.504
32441SOL     OW99155   6.157   2.943  13.822
32441SOL    HW199156   6.110   2.870  13.780
32441SOL    HW299157   6.107   2.960  13.902
32442SOL     OW99158   6.176   7.928   9.518
32442SOL    HW199159   6.135   7.905   9.601
32442SOL    HW299160   6.109   7.980   9.472
32443SOL     OW99161   6.262   2.170   2.893
32443SOL    HW199162   6.205   2.236   2.854
32443SOL    HW299163   6.208   2.091   2.897
32444SOL     OW99164   0.725   3.899   3.295
32444SOL    HW199165   0.798   3.891   3.356
32444SOL    HW299166   0.713   3.811   3.259
32445SOL     OW99167  10.879  13.880  13.537
32445SOL    HW199168  10.841  13.802  13.576
32445SOL    HW299169  10.952  13.847  13.485
32446SOL     OW99170  13.478  12.536   7.253
32446SOL    HW199171  13.452  12.598   7.184
32446SOL    HW299172  13.481  12.589   7.333
32447SOL     OW99173   6.042  14.605   1.282
32447SOL    HW199174   6.063  14.607   1.375
32447SOL    HW299175   5.967  14.664   1.273
32448SOL     OW99176  11.588   2.288   6.368
32448SOL    HW199177  11.568   2.271   6.460
32448SOL    HW299178  11.503   2.302   6.327
32449SOL     OW99179   7.254   4.044   8.532
32449SOL    HW199180   7.344   4.077   8.536
32449SOL    HW299181   7.200   4.123   8.523
32450SOL     OW99182   6.791   7.475  10.194
32450SOL    HW199183   6.767   7.384  10.179
32450SOL    HW299184   6.749   7.523  10.123
32451SOL     OW99185   2.833   8.884   0.853
32451SOL    HW199186   2.799   8.795   0.853
32451SOL    HW299187   2.786   8.928   0.923
32452SOL     OW99188   5.838   6.138  12.752
32452SOL    HW199189   5.746   6.153  12.770
32452SOL    HW299190   5.847   6.043  12.747
32453SOL     OW99191   6.976  13.912   8.271
32453SOL    HW199192   6.899  13.855   8.273
32453SOL    HW299193   7.020  13.888   8.189
32454SOL     OW99194   0.683   9.544   5.782
32454SOL    HW199195   0.592   9.516   5.791
32454SOL    HW299196   0.699   9.600   5.858
32455SOL     OW99197  11.811   1.645   9.719
32455SOL    HW199198  11.853   1.578   9.665
32455SOL    HW299199  11.830   1.619   9.809
32456SOL     OW99200  10.630  13.224   6.212
32456SOL    HW199201  10.590  13.141   6.187
32456SOL    HW299202  10.578  13.254   6.287
32457SOL     OW99203   2.467   3.547   8.571
32457SOL    HW199204   2.448   3.571   8.661
32457SOL    HW299205   2.514   3.622   8.535
32458SOL     OW99206  14.572  14.073   7.902
32458SOL    HW199207  14.541  14.006   7.842
32458SOL    HW299208  14.519  14.150   7.883
32459SOL     OW99209  14.324  14.548   9.589
32459SOL    HW199210  14.376  14.597   9.525
32459SOL    HW299211  14.288  14.475   9.539
32460SOL     OW99212   8.238   3.127   9.771
32460SOL    HW199213   8.275   3.111   9.858
32460SOL    HW299214   8.146   3.103   9.780
32461SOL     OW99215   0.205  13.296  14.493
32461SOL    HW199216   0.137  13.306  14.560
32461SOL    HW299217   0.235  13.385  14.475
32462SOL     OW99218  11.773   7.532   9.214
32462SOL    HW199219  11.747   7.559   9.302
32462SOL    HW299220  11.700   7.559   9.159
32463SOL     OW99221  14.648   4.812  12.023
32463SOL    HW199222  14.651   4.777  11.934
32463SOL    HW299223  14.628   4.905  12.011
32464SOL     OW99224   3.175   7.706  11.682
32464SOL    HW199225   3.209   7.617  11.687
32464SOL    HW299226   3.213   7.751  11.758
32465SOL     OW99227   5.600   3.221  13.724
32465SOL    HW199228   5.621   3.223  13.631
32465SOL    HW299229   5.537   3.292  13.736
32466SOL     OW99230   2.339   6.491   6.859
32466SOL    HW199231   2.261   6.492   6.914
32466SOL    HW299232   2.310   6.453   6.777
32467SOL     OW99233   8.068   2.488   3.592
32467SOL    HW199234   8.057   2.446   3.677
32467SOL    HW299235   8.132   2.434   3.545
32468SOL     OW99236   2.359   8.008  12.754
32468SOL    HW199237   2.312   7.969  12.828
32468SOL    HW299238   2.291   8.026  12.689
32469SOL     OW99239  11.197  11.039   3.207
32469SOL    HW199240  11.152  11.002   3.131
32469SOL    HW299241  11.244  11.115   3.174
32470SOL     OW99242   0.345   4.292   4.797
32470SOL    HW199243   0.270   4.235   4.781
32470SOL    HW299244   0.419   4.232   4.810
32471SOL     OW99245   8.078   9.288   8.874
32471SOL    HW199246   8.048   9.368   8.916
32471SOL    HW299247   7.998   9.239   8.855
32472SOL     OW99248  11.241   5.690  10.246
32472SOL    HW199249  11.247   5.622  10.178
32472SOL    HW299250  11.197   5.763  10.202
32473SOL     OW99251   3.322   8.783  12.264
32473SOL    HW199252   3.390   8.835  12.306
32473SOL    HW299253   3.326   8.808  12.172
32474SOL     OW99254   3.498   2.088   8.649
32474SOL    HW199255   3.572   2.027   8.653
32474SOL    HW299256   3.467   2.081   8.559
32475SOL     OW99257   9.082  12.584   1.188
32475SOL    HW199258   9.110  12.668   1.223
32475SOL    HW299259   9.100  12.521   1.259
32476SOL     OW99260  14.044  13.779   5.751
32476SOL    HW199261  14.091  13.858   5.777
32476SOL    HW299262  13.989  13.807   5.678
32477SOL     OW99263   0.488  13.271   7.686
32477SOL    HW199264   0.549  13.281   7.613
32477SOL    HW299265   0.409  13.235   7.646
32478SOL     OW99266   6.209  14.168   0.639
32478SOL    HW199267   6.167  14.245   0.677
32478SOL    HW299268   6.137  14.120   0.597
32479SOL     OW99269  13.314   7.899   4.093
32479SOL    HW199270  13.335   7.974   4.148
32479SOL    HW299271  13.336   7.927   4.004
32480SOL     OW99272   0.566   0.910   0.463
32480SOL    HW199273   0.594   0.853   0.534
32480SOL    HW299274   0.619   0.883   0.388
32481SOL     OW99275   3.694   1.951   7.945
32481SOL    HW199276   3.632   1.926   8.014
32481SOL    HW299277   3.765   1.996   7.992
32482SOL     OW99278   9.685  14.115   6.920
32482SOL    HW199279   9.725  14.202   6.916
32482SOL    HW299280   9.591  14.132   6.905
32483SOL     OW99281   1.454   9.819  12.037
32483SOL    HW199282   1.437   9.912  12.021
32483SOL    HW299283   1.529   9.819  12.097
32484SOL     OW99284   8.895  11.032   5.503
32484SOL    HW199285   8.804  11.038   5.532
32484SOL    HW299286   8.894  10.970   5.430
32485SOL     OW99287  12.401  13.590   9.218
32485SOL    HW199288  12.480  13.631   9.183
32485SOL    HW299289  12.355  13.556   9.140
32486SOL     OW99290   2.536  10.588   5.225
32486SOL    HW199291   2.630  10.596   5.209
32486SOL    HW299292   2.529  10.566   5.318
32487SOL     OW99293  14.197   5.229   7.497
32487SOL    HW199294  14.267   5.283   7.532
32487SOL    HW299295  14.168   5.274   7.418
32488SOL     OW99296   9.315   3.665   0.639
32488SOL    HW199297   9.370   3.638   0.713
32488SOL    HW299298   9.335   3.603   0.570
32489SOL     OW99299   1.627   4.194   0.149
32489SOL    HW199300   1.663   4.165   0.233
32489SOL    HW299301   1.678   4.146   0.083
32490SOL     OW99302   1.736   0.309  13.984
32490SOL    HW199303   1.683   0.388  13.989
32490SOL    HW299304   1.678   0.238  14.011
32491SOL     OW99305  12.670  10.254   7.748
32491SOL    HW199306  12.637  10.166   7.730
32491SOL    HW299307  12.761  10.242   7.771
32492SOL     OW99308  11.132   9.788   5.188
32492SOL    HW199309  11.102   9.785   5.278
32492SOL    HW299310  11.211   9.734   5.187
32493SOL     OW99311   3.396  13.521   5.372
32493SOL    HW199312   3.304  13.522   5.396
32493SOL    HW299313   3.397  13.544   5.279
32494SOL     OW99314   8.261  12.988  14.131
32494SOL    HW199315   8.326  12.925  14.164
32494SOL    HW299316   8.177  12.942  14.138
32495SOL     OW99317   9.575  13.033  10.999
32495SOL    HW199318   9.551  12.997  11.085
32495SOL    HW299319   9.564  13.127  11.009
32496SOL     OW99320   7.663  10.269  14.142
32496SOL    HW199321   7.643  10.275  14.048
32496SOL    HW299322   7.654  10.358  14.174
32497SOL     OW99323   4.421   6.761   3.011
32497SOL    HW199324   4.370   6.810   3.076
32497SOL    HW299325   4.355   6.722   2.953
32498SOL     OW99326  14.767   9.713   4.305
32498SOL    HW199327  14.836   9.669   4.255
32498SOL    HW299328  14.794   9.703   4.396
32499SOL     OW99329   0.836   5.148  12.999
32499SOL    HW199330   0.921   5.111  13.024
32499SOL    HW299331   0.830   5.134  12.905
32500SOL     OW99332  13.107  11.463  13.525
32500SOL    HW199333  13.134  11.388  13.578
32500SOL    HW299334  13.034  11.501  13.574
32501SOL     OW99335  14.673   3.060   7.446
32501SOL    HW199336  14.713   3.056   7.359
32501SOL    HW299337  14.638   2.973   7.461
32502SOL     OW99338   6.116   7.221   5.016
32502SOL    HW199339   6.093   7.301   4.968
32502SOL    HW299340   6.032   7.182   5.039
32503SOL     OW99341  10.061  12.107   9.436
32503SOL    HW199342   9.976  12.116   9.393
32503SOL    HW299343  10.114  12.177   9.398
32504SOL     OW99344  11.919   3.171   9.492
32504SOL    HW199345  11.966   3.205   9.568
32504SOL    HW299346  11.851   3.115   9.529
32505SOL     OW99347   3.272   2.389   8.215
32505SOL    HW199348   3.270   2.366   8.122
32505SOL    HW299349   3.182   2.377   8.245
32506SOL     OW99350  10.761   6.486   5.175
32506SOL    HW199351  10.705   6.564   5.178
32506SOL    HW299352  10.835   6.513   5.121
32507SOL     OW99353   0.256  12.549   2.605
32507SOL    HW199354   0.183  12.499   2.642
32507SOL    HW299355   0.225  12.639   2.603
32508SOL     OW99356  14.756   3.671  11.390
32508SOL    HW199357  14.839   3.624  11.402
32508SOL    HW299358  14.715   3.629  11.315
32509SOL     OW99359   2.747   4.166   6.237
32509SOL    HW199360   2.812   4.145   6.304
32509SOL    HW299361   2.687   4.092   6.236
32510SOL     OW99362  10.206  12.143  13.089
32510SOL    HW199363  10.185  12.233  13.064
32510SOL    HW299364  10.150  12.089  13.033
32511SOL     OW99365   6.829   0.386   7.419
32511SOL    HW199366   6.755   0.334   7.450
32511SOL    HW299367   6.871   0.331   7.353
32512SOL     OW99368   0.097   2.137   0.795
32512SOL    HW199369   0.141   2.196   0.856
32512SOL    HW299370   0.024   2.101   0.846
32513SOL     OW99371   4.682   9.033  12.301
32513SOL    HW199372   4.602   9.055  12.349
32513SOL    HW299373   4.651   8.993  12.220
32514SOL     OW99374   8.490   0.625  13.556
32514SOL    HW199375   8.484   0.591  13.645
32514SOL    HW299376   8.580   0.659  13.549
32515SOL     OW99377   0.420   7.284  14.328
32515SOL    HW199378   0.486   7.234  14.375
32515SOL    HW299379   0.337   7.260  14.370
32516SOL     OW99380  11.727   7.357   2.544
32516SOL    HW199381  11.654   7.311   2.587
32516SOL    HW299382  11.725   7.326   2.454
32517SOL     OW99383   3.229   0.084  10.493
32517SOL    HW199384   3.312   0.100  10.449
32517SOL    HW299385   3.202  14.870  10.462
32518SOL     OW99386   6.139   7.074  12.376
32518SOL    HW199387   6.190   7.142  12.332
32518SOL    HW299388   6.204   7.008  12.401
32519SOL     OW99389   8.593   2.331  13.118
32519SOL    HW199390   8.580   2.419  13.153
32519SOL    HW299391   8.680   2.334  13.077
32520SOL     OW99392   8.256   0.094  14.692
32520SOL    HW199393   8.227   0.006  14.666
32520SOL    HW299394   8.348   0.097  14.668
32521SOL     OW99395  12.461  13.220  14.052
32521SOL    HW199396  12.469  13.309  14.019
32521SOL    HW299397  12.505  13.166  13.987
32522SOL     OW99398   3.278   3.385   0.642
32522SOL    HW199399   3.227   3.452   0.688
32522SOL    HW299400   3.291   3.317   0.707
32523SOL     OW99401   2.028   6.449  10.010
32523SOL    HW199402   1.943   6.438   9.968
32523SOL    HW299403   2.084   6.382   9.971
32524SOL     OW99404   5.496   2.334   8.422
32524SOL    HW199405   5.435   2.269   8.385
32524SOL    HW299406   5.577   2.321   8.372
32525SOL     OW99407   1.257   0.335   4.233
32525SOL    HW199408   1.272   0.266   4.298
32525SOL    HW299409   1.182   0.383   4.267
32526SOL     OW99410   2.278  12.533   2.700
32526SOL    HW199411   2.213  12.587   2.656
32526SOL    HW299412   2.305  12.585   2.776
32527SOL     OW99413   7.465  12.136  12.452
32527SOL    HW199414   7.469  12.083  12.532
32527SOL    HW299415   7.374  12.127  12.422
32528SOL     OW99416  13.400   7.719  12.797
32528SOL    HW199417  13.472   7.777  12.772
32528SOL    HW299418  13.325   7.752  12.747
32529SOL     OW99419   1.260   5.677   9.841
32529SOL    HW199420   1.177   5.637   9.868
32529SOL    HW299421   1.248   5.771   9.855
32530SOL     OW99422  12.153   7.984   6.008
32530SOL    HW199423  12.080   7.924   5.995
32530SOL    HW299424  12.189   7.960   6.094
32531SOL     OW99425   1.231   0.852   2.338
32531SOL    HW199426   1.224   0.762   2.370
32531SOL    HW299427   1.271   0.901   2.410
32532SOL     OW99428   2.141   7.976  10.224
32532SOL    HW199429   2.152   8.038  10.152
32532SOL    HW299430   2.098   7.900  10.183
32533SOL     OW99431  11.683  10.742  11.954
32533SOL    HW199432  11.732  10.801  12.011
32533SOL    HW299433  11.662  10.796  11.877
32534SOL     OW99434   4.805  10.335   5.553
32534SOL    HW199435   4.724  10.348   5.503
32534SOL    HW299436   4.816  10.240   5.556
32535SOL     OW99437   0.700   1.065   9.662
32535SOL    HW199438   0.784   1.083   9.621
32535SOL    HW299439   0.641   1.045   9.589
32536SOL     OW99440  11.952   7.776   3.889
32536SOL    HW199441  11.898   7.854   3.897
32536SOL    HW299442  11.971   7.770   3.795
32537SOL     OW99443   9.887   8.596   0.721
32537SOL    HW199444   9.813   8.550   0.762
32537SOL    HW299445   9.851   8.632   0.640
32538SOL     OW99446  14.844  10.185   2.246
32538SOL    HW199447  14.846  10.099   2.289
32538SOL    HW299448  14.840  10.165   2.153
32539SOL     OW99449   6.855  10.511   5.076
32539SOL    HW199450   6.812  10.466   5.003
32539SOL    HW299451   6.859  10.603   5.050
32540SOL     OW99452   7.600   6.572  11.527
32540SOL    HW199453   7.642   6.605  11.447
32540SOL    HW299454   7.660   6.598  11.598
32541SOL     OW99455  12.741   3.370  14.832
32541SOL    HW199456  12.829   3.346  14.805
32541SOL    HW299457  12.735   3.464  14.813
32542SOL     OW99458   4.538  14.083  11.762
32542SOL    HW199459   4.619  14.040  11.787
32542SOL    HW299460   4.507  14.033  11.687
32543SOL     OW99461  14.175  12.244   1.524
32543SOL    HW199462  14.211  12.162   1.489
32543SOL    HW299463  14.171  12.303   1.448
32544SOL     OW99464   3.065   0.686   5.798
32544SOL    HW199465   2.998   0.617   5.800
32544SOL    HW299466   3.025   0.757   5.747
32545SOL     OW99467   7.712   0.038  10.610
32545SOL    HW199468   7.682   0.066  10.523
32545SOL    HW299469   7.684  14.820  10.617
32546SOL     OW99470   5.342   5.111   1.625
32546SOL    HW199471   5.341   5.027   1.579
32546SOL    HW299472   5.418   5.157   1.589
32547SOL     OW99473   3.619  12.155   8.657
32547SOL    HW199474   3.600  12.242   8.693
32547SOL    HW299475   3.660  12.107   8.729
32548SOL     OW99476  10.828   2.664  11.079
32548SOL    HW199477  10.863   2.643  11.166
32548SOL    HW299478  10.750   2.610  11.069
32549SOL     OW99479  10.504   2.084   5.611
32549SOL    HW199480  10.573   2.023   5.585
32549SOL    HW299481  10.480   2.129   5.530
32550SOL     OW99482  14.843   0.928  13.511
32550SOL    HW199483  14.749   0.947  13.505
32550SOL    HW299484   0.002   0.987  13.579
32551SOL     OW99485   6.486   2.438  12.732
32551SOL    HW199486   6.452   2.351  12.755
32551SOL    HW299487   6.408   2.491  12.719
32552SOL     OW99488   9.063  10.209   1.652
32552SOL    HW199489   9.045  10.300   1.676
32552SOL    HW299490   8.978  10.165   1.660
32553SOL     OW99491  14.410  10.936   5.473
32553SOL    HW199492  14.371  10.923   5.559
32553SOL    HW299493  14.467  10.861   5.461
32554SOL     OW99494   2.716   6.726  10.024
32554SOL    HW199495   2.782   6.795  10.030
32554SOL    HW299496   2.767   6.646  10.009
32555SOL     OW99497  14.086   9.903   8.504
32555SOL    HW199498  14.108   9.828   8.449
32555SOL    HW299499  14.022   9.868   8.566
32556SOL     OW99500   2.517   8.236   3.701
32556SOL    HW199501   2.490   8.187   3.778
32556SOL    HW299502   2.580   8.179   3.656
32557SOL     OW99503  11.449   8.287   1.609
32557SOL    HW199504  11.542   8.311   1.609
32557SOL    HW299505  11.437   8.236   1.689
32558SOL     OW99506   8.497   2.020   9.134
32558SOL    HW199507   8.480   1.961   9.208
32558SOL    HW299508   8.436   2.092   9.147
32559SOL     OW99509   8.794   3.395   8.786
32559SOL    HW199510   8.820   3.334   8.856
32559SOL    HW299511   8.829   3.355   8.706
32560SOL     OW99512   8.113   2.937   9.313
32560SOL    HW199513   8.044   2.889   9.267
32560SOL    HW299514   8.151   2.993   9.245
32561SOL     OW99515   8.833   1.743   8.572
32561SOL    HW199516   8.860   1.807   8.506
32561SOL    HW299517   8.833   1.659   8.525
32562SOL     OW99518   9.354   7.126   1.093
32562SOL    HW199519   9.424   7.174   1.049
32562SOL    HW299520   9.399   7.070   1.156
32563SOL     OW99521  12.500   5.179   6.193
32563SOL    HW199522  12.424   5.169   6.136
32563SOL    HW299523  12.494   5.268   6.226
32564SOL     OW99524   8.613   4.715   5.135
32564SOL    HW199525   8.596   4.625   5.163
32564SOL    HW299526   8.668   4.706   5.057
32565SOL     OW99527   9.742  14.344  13.847
32565SOL    HW199528   9.781  14.415  13.899
32565SOL    HW299529   9.667  14.384  13.803
32566SOL     OW99530   3.384  10.953  12.790
32566SOL    HW199531   3.464  10.963  12.841
32566SOL    HW299532   3.313  10.971  12.852
32567SOL     OW99533  12.018   4.764   2.428
32567SOL    HW199534  11.959   4.703   2.471
32567SOL    HW299535  12.020   4.735   2.337
32568SOL     OW99536  12.878  14.186   9.036
32568SOL    HW199537  12.966  14.184   8.997
32568SOL    HW299538  12.862  14.278   9.054
32569SOL     OW99539   0.365   6.055   2.627
32569SOL    HW199540   0.372   6.145   2.595
32569SOL    HW299541   0.450   6.016   2.607
32570SOL     OW99542  13.109   7.362  12.118
32570SOL    HW199543  13.071   7.305  12.051
32570SOL    HW299544  13.041   7.428  12.134
32571SOL     OW99545   1.345  13.274  14.376
32571SOL    HW199546   1.405  13.312  14.312
32571SOL    HW299547   1.316  13.348  14.429
32572SOL     OW99548   5.385  11.671  12.959
32572SOL    HW199549   5.351  11.677  13.048
32572SOL    HW299550   5.308  11.657  12.904
32573SOL     OW99551   1.754   0.711   1.121
32573SOL    HW199552   1.685   0.646   1.112
32573SOL    HW299553   1.758   0.754   1.035
32574SOL     OW99554   7.895   0.589  14.389
32574SOL    HW199555   7.824   0.596  14.453
32574SOL    HW299556   7.872   0.512  14.337
32575SOL     OW99557  12.751   5.823   0.352
32575SOL    HW199558  12.696   5.757   0.392
32575SOL    HW299559  12.841   5.793   0.367
32576SOL     OW99560   3.222   8.487  12.248
32576SOL    HW199561   3.252   8.445  12.328
32576SOL    HW299562   3.289   8.554  12.229
32577SOL     OW99563   2.899   3.922   2.595
32577SOL    HW199564   2.856   3.949   2.677
32577SOL    HW299565   2.853   3.841   2.570
32578SOL     OW99566   1.043   7.578   7.727
32578SOL    HW199567   1.118   7.637   7.724
32578SOL    HW299568   1.051   7.525   7.648
32579SOL     OW99569   2.248   2.895   5.616
32579SOL    HW199570   2.326   2.905   5.562
32579SOL    HW299571   2.179   2.942   5.568
32580SOL     OW99572  13.246  14.376   7.281
32580SOL    HW199573  13.239  14.470   7.267
32580SOL    HW299574  13.273  14.340   7.197
32581SOL     OW99575   5.390  11.351   3.638
32581SOL    HW199576   5.313  11.407   3.649
32581SOL    HW299577   5.432  11.350   3.724
32582SOL     OW99578   8.212  11.748   4.939
32582SOL    HW199579   8.304  11.774   4.940
32582SOL    HW299580   8.164  11.828   4.916
32583SOL     OW99581  13.976   3.209   7.317
32583SOL    HW199582  13.952   3.117   7.304
32583SOL    HW299583  14.033   3.230   7.244
32584SOL     OW99584   0.952  10.987  12.889
32584SOL    HW199585   0.922  11.005  12.801
32584SOL    HW299586   0.876  11.003  12.945
32585SOL     OW99587  13.458   2.393  11.032
32585SOL    HW199588  13.422   2.474  10.997
32585SOL    HW299589  13.448   2.330  10.960
32586SOL     OW99590   4.555   9.475  11.126
32586SOL    HW199591   4.559   9.389  11.086
32586SOL    HW299592   4.645   9.505  11.129
32587SOL     OW99593   7.300   2.450   0.294
32587SOL    HW199594   7.311   2.480   0.384
32587SOL    HW299595   7.217   2.487   0.266
32588SOL     OW99596   7.075   3.526  11.822
32588SOL    HW199597   7.030   3.575  11.890
32588SOL    HW299598   7.024   3.446  11.812
32589SOL     OW99599   1.699   0.535   4.295
32589SOL    HW199600   1.615   0.532   4.249
32589SOL    HW299601   1.751   0.466   4.254
32590SOL     OW99602   3.991   1.342   6.581
32590SOL    HW199603   3.896   1.350   6.575
32590SOL    HW299604   4.024   1.428   6.557
32591SOL     OW99605   0.398   2.139   4.497
32591SOL    HW199606   0.492   2.122   4.506
32591SOL    HW299607   0.392   2.232   4.475
32592SOL     OW99608  11.200   3.083  14.642
32592SOL    HW199609  11.269   3.017  14.636
32592SOL    HW299610  11.246   3.167  14.635
32593SOL     OW99611  14.736   3.254   8.061
32593SOL    HW199612  14.760   3.291   7.976
32593SOL    HW299613  14.645   3.282   8.074
32594SOL     OW99614  13.987   4.285   1.439
32594SOL    HW199615  14.055   4.350   1.455
32594SOL    HW299616  13.931   4.290   1.516
32595SOL     OW99617   7.749   2.855   6.552
32595SOL    HW199618   7.714   2.776   6.511
32595SOL    HW299619   7.751   2.919   6.481
32596SOL     OW99620   7.633   9.078   9.166
32596SOL    HW199621   7.566   9.085   9.098
32596SOL    HW299622   7.662   9.168   9.181
32597SOL     OW99623   7.213   5.113  10.394
32597SOL    HW199624   7.238   5.182  10.456
32597SOL    HW299625   7.281   5.046  10.403
32598SOL     OW99626   1.987   6.582   9.203
32598SOL    HW199627   1.952   6.556   9.118
32598SOL    HW299628   1.951   6.669   9.218
32599SOL     OW99629   6.365  12.771   6.027
32599SOL    HW199630   6.314  12.707   5.978
32599SOL    HW299631   6.455  12.738   6.023
32600SOL     OW99632   8.495   3.349  12.278
32600SOL    HW199633   8.525   3.439  12.289
32600SOL    HW299634   8.408   3.348  12.317
32601SOL     OW99635   9.917   1.852  12.383
32601SOL    HW199636   9.980   1.792  12.343
32601SOL    HW299637   9.937   1.849  12.476
32602SOL     OW99638   2.074  10.534  12.977
32602SOL    HW199639   2.155  10.510  12.932
32602SOL    HW299640   2.067  10.470  13.048
32603SOL     OW99641  11.288  12.238   4.728
32603SOL    HW199642  11.239  12.240   4.646
32603SOL    HW299643  11.374  12.205   4.703
32604SOL     OW99644   0.073  14.509   4.549
32604SOL    HW199645   0.137  14.514   4.478
32604SOL    HW299646   0.066  14.598   4.582
32605SOL     OW99647   0.077   0.762  12.999
32605SOL    HW199648   0.024   0.688  13.029
32605SOL    HW299649   0.066   0.829  13.066
32606SOL     OW99650   3.476   6.643  12.853
32606SOL    HW199651   3.505   6.635  12.762
32606SOL    HW299652   3.412   6.572  12.864
32607SOL     OW99653   3.800  11.154   7.424
32607SOL    HW199654   3.729  11.091   7.432
32607SOL    HW299655   3.850  11.126   7.348
32608SOL     OW99656  11.486  13.409   7.226
32608SOL    HW199657  11.472  13.411   7.321
32608SOL    HW299658  11.410  13.365   7.191
32609SOL     OW99659  10.811   3.805   1.560
32609SOL    HW199660  10.773   3.892   1.565
32609SOL    HW299661  10.878   3.811   1.492
32610SOL     OW99662  14.558   1.398   8.406
32610SOL    HW199663  14.601   1.361   8.483
32610SOL    HW299664  14.618   1.378   8.333
32611SOL     OW99665   7.431   7.766   7.242
32611SOL    HW199666   7.449   7.674   7.257
32611SOL    HW299667   7.358   7.767   7.181
32612SOL     OW99668  13.687   2.433   6.885
32612SOL    HW199669  13.627   2.500   6.916
32612SOL    HW299670  13.713   2.385   6.963
32613SOL     OW99671   0.439  14.069   9.138
32613SOL    HW199672   0.445  14.012   9.214
32613SOL    HW299673   0.393  14.017   9.072
32614SOL     OW99674   7.162   6.576   5.971
32614SOL    HW199675   7.144   6.670   5.975
32614SOL    HW299676   7.170   6.557   5.877
32615SOL     OW99677   9.498   8.320   8.886
32615SOL    HW199678   9.493   8.398   8.831
32615SOL    HW299679   9.424   8.266   8.859
32616SOL     OW99680  12.361  12.418  10.216
32616SOL    HW199681  12.313  12.408  10.299
32616SOL    HW299682  12.417  12.340  10.212
32617SOL     OW99683   1.239   8.789  11.291
32617SOL    HW199684   1.177   8.719  11.269
32617SOL    HW299685   1.319   8.743  11.316
32618SOL     OW99686   5.799   2.972   2.329
32618SOL    HW199687   5.728   3.033   2.309
32618SOL    HW299688   5.796   2.963   2.425
32619SOL     OW99689   5.068  10.663   9.891
32619SOL    HW199690   5.018  10.609   9.829
32619SOL    HW299691   5.144  10.610   9.913
32620SOL     OW99692  14.515   5.487   7.105
32620SOL    HW199693  14.501   5.405   7.152
32620SOL    HW299694  14.463   5.479   7.025
32621SOL     OW99695   0.694   0.870   6.958
32621SOL    HW199696   0.665   0.823   6.879
32621SOL    HW299697   0.687   0.963   6.935
32622SOL     OW99698   8.900   7.810   7.772
32622SOL    HW199699   8.971   7.849   7.824
32622SOL    HW299700   8.868   7.737   7.824
32623SOL     OW99701  13.123   7.410   3.019
32623SOL    HW199702  13.137   7.503   3.033
32623SOL    HW299703  13.127   7.398   2.924
32624SOL     OW99704   2.781  14.590  11.633
32624SOL    HW199705   2.721  14.625  11.568
32624SOL    HW299706   2.865  14.583  11.587
32625SOL     OW99707   7.339  13.178  12.836
32625SOL    HW199708   7.432  13.186  12.856
32625SOL    HW299709   7.297  13.244  12.891
32626SOL     OW99710   4.366  10.558  10.065
32626SOL    HW199711   4.377  10.485  10.126
32626SOL    HW299712   4.285  10.600  10.093
32627SOL     OW99713   9.995  11.640  11.866
32627SOL    HW199714  10.062  11.681  11.922
32627SOL    HW299715   9.924  11.620  11.926
32628SOL     OW99716  11.475   6.997   5.421
32628SOL    HW199717  11.382   7.010   5.403
32628SOL    HW299718  11.489   7.039   5.506
32629SOL     OW99719  10.617   8.063   8.294
32629SOL    HW199720  10.578   8.004   8.358
32629SOL    HW299721  10.547   8.079   8.230
32630SOL     OW99722  12.690   4.538   7.877
32630SOL    HW199723  12.666   4.579   7.959
32630SOL    HW299724  12.670   4.445   7.889
32631SOL     OW99725  12.023   4.604   0.728
32631SOL    HW199726  11.959   4.646   0.786
32631SOL    HW299727  12.059   4.532   0.781
32632SOL     OW99728   6.635   2.521   4.895
32632SOL    HW199729   6.651   2.435   4.934
32632SOL    HW299730   6.543   2.519   4.870
32633SOL     OW99731   2.845   8.211   3.099
32633SOL    HW199732   2.880   8.166   3.023
32633SOL    HW299733   2.915   8.208   3.164
32634SOL     OW99734   6.054  13.769   4.357
32634SOL    HW199735   6.090  13.774   4.446
32634SOL    HW299736   6.007  13.851   4.346
32635SOL     OW99737   3.307  13.108   4.905
32635SOL    HW199738   3.315  13.028   4.852
32635SOL    HW299739   3.216  13.108   4.934
32636SOL     OW99740   3.853   6.086   0.333
32636SOL    HW199741   3.840   6.014   0.395
32636SOL    HW299742   3.811   6.162   0.374
32637SOL     OW99743   9.246   7.925   9.530
32637SOL    HW199744   9.189   7.995   9.499
32637SOL    HW299745   9.202   7.844   9.505
32638SOL     OW99746  11.473   6.975   9.296
32638SOL    HW199747  11.415   6.906   9.327
32638SOL    HW299748  11.436   7.056   9.332
32639SOL     OW99749   1.036   7.369  11.199
32639SOL    HW199750   0.983   7.443  11.231
32639SOL    HW299751   1.098   7.410  11.139
32640SOL     OW99752   1.901   3.983  10.665
32640SOL    HW199753   1.948   3.899  10.669
32640SOL    HW299754   1.812   3.959  10.641
32641SOL     OW99755  11.313  11.281   3.095
32641SOL    HW199756  11.289  11.365   3.056
32641SOL    HW299757  11.389  11.301   3.149
32642SOL     OW99758   2.526  14.595   6.889
32642SOL    HW199759   2.490  14.677   6.856
32642SOL    HW299760   2.611  14.586   6.846
32643SOL     OW99761   8.870   6.639   9.743
32643SOL    HW199762   8.798   6.702   9.739
32643SOL    HW299763   8.871   6.609   9.834
32644SOL     OW99764   0.402   7.480   5.360
32644SOL    HW199765   0.333   7.458   5.297
32644SOL    HW299766   0.358   7.476   5.445
32645SOL     OW99767   4.471  14.770  11.004
32645SOL    HW199768   4.406  14.707  11.036
32645SOL    HW299769   4.441  14.855  11.038
32646SOL     OW99770   0.313  10.397   0.571
32646SOL    HW199771   0.257  10.474   0.567
32646SOL    HW299772   0.400  10.429   0.546
32647SOL     OW99773   6.939   1.648  10.216
32647SOL    HW199774   6.859   1.597  10.228
32647SOL    HW299775   6.989   1.599  10.151
32648SOL     OW99776  14.060   3.728   9.835
32648SOL    HW199777  14.085   3.703   9.924
32648SOL    HW299778  14.086   3.819   9.827
32649SOL     OW99779  10.452   8.727   4.799
32649SOL    HW199780  10.366   8.713   4.837
32649SOL    HW299781  10.453   8.671   4.721
32650SOL     OW99782   9.791   2.509   8.525
32650SOL    HW199783   9.731   2.532   8.595
32650SOL    HW299784   9.741   2.523   8.445
32651SOL     OW99785   1.322  13.611   7.456
32651SOL    HW199786   1.321  13.694   7.503
32651SOL    HW299787   1.231  13.582   7.457
32652SOL     OW99788  11.971  12.220   4.263
32652SOL    HW199789  12.000  12.255   4.348
32652SOL    HW299790  11.944  12.130   4.282
32653SOL     OW99791  10.092   6.262  11.707
32653SOL    HW199792  10.130   6.246  11.621
32653SOL    HW299793  10.038   6.185  11.724
32654SOL     OW99794   8.115   2.657   0.660
32654SOL    HW199795   8.054   2.597   0.619
32654SOL    HW299796   8.060   2.725   0.700
32655SOL     OW99797   8.689  12.279   0.160
32655SOL    HW199798   8.668  12.288   0.253
32655SOL    HW299799   8.776  12.240   0.159
32656SOL     OW99800   5.578  10.582  13.668
32656SOL    HW199801   5.575  10.656  13.607
32656SOL    HW299802   5.603  10.507  13.614
32657SOL     OW99803  13.432  11.099   0.601
32657SOL    HW199804  13.525  11.083   0.589
32657SOL    HW299805  13.411  11.058   0.685
32658SOL     OW99806   1.502   5.764   7.238
32658SOL    HW199807   1.578   5.791   7.187
32658SOL    HW299808   1.449   5.711   7.177
32659SOL     OW99809   5.997   8.404   0.451
32659SOL    HW199810   5.993   8.345   0.527
32659SOL    HW299811   6.090   8.411   0.430
32660SOL     OW99812   8.860  11.261  13.419
32660SOL    HW199813   8.951  11.243  13.444
32660SOL    HW299814   8.809  11.240  13.497
32661SOL     OW99815   5.760  13.508   0.349
32661SOL    HW199816   5.725  13.501   0.260
32661SOL    HW299817   5.683  13.507   0.405
32662SOL     OW99818   2.515  13.665   7.570
32662SOL    HW199819   2.452  13.655   7.641
32662SOL    HW299820   2.558  13.749   7.588
32663SOL     OW99821  11.709   8.224  11.283
32663SOL    HW199822  11.769   8.275  11.230
32663SOL    HW299823  11.629   8.277  11.287
32664SOL     OW99824   0.782   4.889  14.465
32664SOL    HW199825   0.843   4.959  14.489
32664SOL    HW299826   0.820   4.810  14.503
32665SOL     OW99827  10.879   7.749  13.776
32665SOL    HW199828  10.861   7.833  13.818
32665SOL    HW299829  10.885   7.687  13.849
32666SOL     OW99830   3.225   5.573  14.397
32666SOL    HW199831   3.216   5.537  14.486
32666SOL    HW299832   3.320   5.573  14.381
32667SOL     OW99833   1.158   8.306   3.456
32667SOL    HW199834   1.090   8.342   3.513
32667SOL    HW299835   1.238   8.351   3.482
32668SOL     OW99836   8.949   0.186   0.846
32668SOL    HW199837   8.986   0.246   0.780
32668SOL    HW299838   9.016   0.119   0.856
32669SOL     OW99839   3.079   3.279  10.856
32669SOL    HW199840   3.174   3.272  10.871
32669SOL    HW299841   3.071   3.333  10.778
32670SOL     OW99842  10.482  11.597   3.114
32670SOL    HW199843  10.500  11.688   3.138
32670SOL    HW299844  10.501  11.548   3.194
32671SOL     OW99845  11.928   2.935   4.767
32671SOL    HW199846  12.021   2.955   4.758
32671SOL    HW299847  11.926   2.846   4.802
32672SOL     OW99848   0.094   9.583  10.040
32672SOL    HW199849   0.093   9.629  10.123
32672SOL    HW299850   0.018   9.525  10.044
32673SOL     OW99851   9.919   9.478  13.370
32673SOL    HW199852   9.965   9.433  13.299
32673SOL    HW299853   9.980   9.545  13.399
32674SOL     OW99854   0.583  13.167  13.496
32674SOL    HW199855   0.529  13.229  13.545
32674SOL    HW299856   0.566  13.082  13.537
32675SOL     OW99857   0.823  14.167  10.387
32675SOL    HW199858   0.823  14.211  10.472
32675SOL    HW299859   0.732  14.171  10.357
32676SOL     OW99860   2.746   4.008   3.571
32676SOL    HW199861   2.841   4.013   3.560
32676SOL    HW299862   2.715   4.097   3.554
32677SOL     OW99863   3.516   9.615  13.711
32677SOL    HW199864   3.481   9.620  13.621
32677SOL    HW299865   3.439   9.630  13.766
32678SOL     OW99866  14.289   1.061   1.635
32678SOL    HW199867  14.384   1.061   1.648
32678SOL    HW299868  14.262   0.972   1.656
32679SOL     OW99869  12.859   7.231   5.524
32679SOL    HW199870  12.807   7.299   5.483
32679SOL    HW299871  12.947   7.268   5.531
32680SOL     OW99872   9.349   9.952   7.649
32680SOL    HW199873   9.373   9.912   7.732
32680SOL    HW299874   9.291   9.888   7.607
32681SOL     OW99875   3.638   2.925  12.456
32681SOL    HW199876   3.544   2.932  12.473
32681SOL    HW299877   3.651   2.833  12.432
32682SOL     OW99878  13.119   0.886   5.265
32682SOL    HW199879  13.044   0.936   5.232
32682SOL    HW299880  13.103   0.797   5.235
32683SOL     OW99881   1.110  10.456   5.128
32683SOL    HW199882   1.162  10.388   5.084
32683SOL    HW299883   1.035  10.409   5.164
32684SOL     OW99884   6.608   9.143   6.812
32684SOL    HW199885   6.616   9.097   6.896
32684SOL    HW299886   6.515   9.137   6.791
32685SOL     OW99887   4.135  11.357   4.225
32685SOL    HW199888   4.166  11.291   4.287
32685SOL    HW299889   4.040  11.345   4.222
32686SOL     OW99890   2.022   7.760   8.406
32686SOL    HW199891   1.946   7.805   8.368
32686SOL    HW299892   2.025   7.790   8.497
32687SOL     OW99893  14.016   2.260   3.581
32687SOL    HW199894  14.103   2.221   3.577
32687SOL    HW299895  13.956   2.190   3.556
32688SOL     OW99896   4.700   3.943   6.742
32688SOL    HW199897   4.644   4.000   6.690
32688SOL    HW299898   4.782   3.939   6.693
32689SOL     OW99899   1.953  11.170   4.128
32689SOL    HW199900   2.014  11.242   4.117
32689SOL    HW299901   1.878  11.208   4.174
32690SOL     OW99902  14.736   3.601  10.371
32690SOL    HW199903  14.704   3.691  10.383
32690SOL    HW299904  14.828   3.611  10.347
32691SOL     OW99905   2.583  10.944   1.268
32691SOL    HW199906   2.624  10.895   1.339
32691SOL    HW299907   2.509  10.990   1.309
32692SOL     OW99908  14.416   1.339  10.203
32692SOL    HW199909  14.407   1.428  10.172
32692SOL    HW299910  14.326   1.310  10.220
32693SOL     OW99911   2.364   5.107  10.762
32693SOL    HW199912   2.398   5.071  10.680
32693SOL    HW299913   2.437   5.156  10.799
32694SOL     OW99914   5.766   9.423  14.807
32694SOL    HW199915   5.679   9.388  14.786
32694SOL    HW299916   5.825   9.379  14.746
32695SOL     OW99917   0.870   9.208   6.331
32695SOL    HW199918   0.951   9.223   6.283
32695SOL    HW299919   0.815   9.158   6.271
32696SOL     OW99920   1.079   4.360   7.860
32696SOL    HW199921   1.048   4.450   7.870
32696SOL    HW299922   1.098   4.332   7.949
32697SOL     OW99923  14.167   4.022   0.907
32697SOL    HW199924  14.233   4.044   0.841
32697SOL    HW299925  14.192   4.072   0.984
32698SOL     OW99926   5.798  13.918  11.551
32698SOL    HW199927   5.834  13.904  11.638
32698SOL    HW299928   5.704  13.924  11.564
32699SOL     OW99929  12.718  10.686  12.836
32699SOL    HW199930  12.751  10.767  12.876
32699SOL    HW299931  12.772  10.673  12.759
32700SOL     OW99932  14.072  11.705   8.291
32700SOL    HW199933  14.084  11.656   8.210
32700SOL    HW299934  13.977  11.716   8.299
32701SOL     OW99935   4.021   0.853   9.900
32701SOL    HW199936   4.070   0.934   9.915
32701SOL    HW299937   4.083   0.796   9.854
32702SOL     OW99938  11.001   2.838  12.626
32702SOL    HW199939  11.091   2.862  12.651
32702SOL    HW299940  10.977   2.902  12.560
32703SOL     OW99941  11.216   6.587   2.281
32703SOL    HW199942  11.132   6.545   2.263
32703SOL    HW299943  11.262   6.526   2.339
32704SOL     OW99944   9.986   6.029  14.764
32704SOL    HW199945   9.996   6.113  14.719
32704SOL    HW299946  10.068   6.018  14.811
32705SOL     OW99947   1.299   6.692   7.499
32705SOL    HW199948   1.233   6.702   7.568
32705SOL    HW299949   1.261   6.735   7.423
32706SOL     OW99950   8.100   0.716   1.888
32706SOL    HW199951   8.146   0.782   1.940
32706SOL    HW299952   8.059   0.765   1.817
32707SOL     OW99953   1.299  13.499  13.680
32707SOL    HW199954   1.389  13.529  13.693
32707SOL    HW299955   1.304  13.404  13.688
32708SOL     OW99956   4.787   1.119   4.571
32708SOL    HW199957   4.776   1.142   4.663
32708SOL    HW299958   4.789   1.202   4.525
32709SOL     OW99959   8.942  10.844   7.015
32709SOL    HW199960   8.905  10.853   7.103
32709SOL    HW299961   9.036  10.861   7.027
32710SOL     OW99962  12.974  13.369  13.489
32710SOL    HW199963  12.910  13.335  13.427
32710SOL    HW299964  13.057  13.328  13.463
32711SOL     OW99965   5.200   1.683   5.994
32711SOL    HW199966   5.122   1.671   6.048
32711SOL    HW299967   5.263   1.620   6.027
32712SOL     OW99968   2.582   8.223   4.630
32712SOL    HW199969   2.550   8.134   4.613
32712SOL    HW299970   2.542   8.276   4.561
32713SOL     OW99971  13.482   7.696   9.654
32713SOL    HW199972  13.389   7.718   9.642
32713SOL    HW299973  13.519   7.700   9.566
32714SOL     OW99974   4.445  10.829   7.441
32714SOL    HW199975   4.512  10.777   7.486
32714SOL    HW299976   4.462  10.919   7.469
32715SOL     OW99977   0.367  13.252  10.901
32715SOL    HW199978   0.419  13.293  10.831
32715SOL    HW299979   0.422  13.261  10.979
32716SOL     OW99980  14.197  11.717   8.522
32716SOL    HW199981  14.148  11.699   8.443
32716SOL    HW299982  14.143  11.779   8.571
32717SOL     OW99983  11.109   7.053   7.026
32717SOL    HW199984  11.041   7.023   6.965
32717SOL    HW299985  11.073   7.133   7.064
32718SOL     OW99986  14.827   9.943   6.441
32718SOL    HW199987   0.035   9.943   6.492
32718SOL    HW299988  14.811  10.035   6.421
32719SOL     OW99989   1.986   4.453   4.786
32719SOL    HW199990   1.916   4.517   4.801
32719SOL    HW299991   2.067   4.504   4.790
32720SOL     OW99992   7.339   3.082   4.729
32720SOL    HW199993   7.371   2.999   4.764
32720SOL    HW299994   7.397   3.148   4.766
32721SOL     OW99995   8.281   3.669   1.399
32721SOL    HW199996   8.290   3.574   1.411
32721SOL    HW299997   8.187   3.682   1.384
32722SOL     OW99998   8.519   3.286  13.198
32722SOL    HW199999   8.521   3.222  13.269
32722SOL    HW2    0   8.428   3.315  13.195
32723SOL     OW    1   6.569   5.168  10.842
32723SOL    HW1    2   6.618   5.126  10.913
32723SOL    HW2    3   6.523   5.096  10.798
32724SOL     OW    4   9.416   2.117   9.075
32724SOL    HW1    5   9.445   2.105   9.165
32724SOL    HW2    6   9.338   2.174   9.082
32725SOL     OW    7  14.384  11.829   0.448
32725SOL    HW1    8  14.373  11.739   0.417
32725SOL    HW2    9  14.374  11.824   0.543
32726SOL     OW   10   2.206   0.316   4.571
32726SOL    HW1   11   2.235   0.231   4.602
32726SOL    HW2   12   2.225   0.376   4.643
32727SOL     OW   13  10.178  12.097   6.153
32727SOL    HW1   14  10.252  12.125   6.208
32727SOL    HW2   15  10.109  12.075   6.216
32728SOL     OW   16   5.101  11.017   0.328
32728SOL    HW1   17   5.011  11.012   0.294
32728SOL    HW2   18   5.115  10.932   0.369
32729SOL     OW   19   4.394   4.967  14.063
32729SOL    HW1   20   4.379   4.934  14.151
32729SOL    HW2   21   4.371   4.893  14.006
32730SOL     OW   22   9.661  10.699   1.733
32730SOL    HW1   23   9.600  10.638   1.691
32730SOL    HW2   24   9.667  10.668   1.823
32731SOL     OW   25   2.032  12.720   6.522
32731SOL    HW1   26   2.023  12.667   6.442
32731SOL    HW2   27   2.054  12.808   6.491
32732SOL     OW   28  12.816   0.150   1.530
32732SOL    HW1   29  12.818   0.055   1.520
32732SOL    HW2   30  12.753   0.181   1.465
32733SOL     OW   31   0.205   2.929   6.846
32733SOL    HW1   32   0.167   2.988   6.911
32733SOL    HW2   33   0.191   2.973   6.762
32734SOL     OW   34   3.403  14.214   2.241
32734SOL    HW1   35   3.400  14.249   2.152
32734SOL    HW2   36   3.388  14.289   2.298
32735SOL     OW   37   0.565   7.025   7.873
32735SOL    HW1   38   0.485   7.070   7.897
32735SOL    HW2   39   0.595   6.983   7.954
32736SOL     OW   40   8.308   0.318   7.549
32736SOL    HW1   41   8.394   0.316   7.507
32736SOL    HW2   42   8.291   0.226   7.571
32737SOL     OW   43  12.280  11.933   9.406
32737SOL    HW1   44  12.212  11.994   9.436
32737SOL    HW2   45  12.338  11.986   9.352
32738SOL     OW   46  11.337   1.360   4.422
32738SOL    HW1   47  11.312   1.452   4.414
32738SOL    HW2   48  11.412   1.361   4.481
32739SOL     OW   49   9.966   8.551  10.491
32739SOL    HW1   50   9.894   8.548  10.429
32739SOL    HW2   51  10.045   8.555  10.437
32740SOL     OW   52   2.327   0.332   1.334
32740SOL    HW1   53   2.315   0.262   1.398
32740SOL    HW2   54   2.262   0.315   1.266
32741SOL     OW   55   1.694   3.259  12.085
32741SOL    HW1   56   1.646   3.290  12.162
32741SOL    HW2   57   1.677   3.325  12.018
32742SOL     OW   58  12.650   4.160  12.473
32742SOL    HW1   59  12.743   4.141  12.484
32742SOL    HW2   60  12.621   4.188  12.560
32743SOL     OW   61   2.011  12.231   3.290
32743SOL    HW1   62   2.040  12.208   3.379
32743SOL    HW2   63   2.089  12.219   3.236
32744SOL     OW   64   1.638  12.104   2.832
32744SOL    HW1   65   1.551  12.065   2.823
32744SOL    HW2   66   1.674  12.105   2.743
32745SOL     OW   67   6.550  11.769  12.024
32745SOL    HW1   68   6.471  11.745  12.072
32745SOL    HW2   69   6.540  11.727  11.939
32746SOL     OW   70   1.668   1.441   9.589
32746SOL    HW1   71   1.748   1.397   9.560
32746SOL    HW2   72   1.662   1.421   9.682
32747SOL     OW   73   2.493  11.761  12.564
32747SOL    HW1   74   2.469  11.703  12.492
32747SOL    HW2   75   2.583  11.788  12.544
32748SOL     OW   76   5.306  13.216   7.393
32748SOL    HW1   77   5.375  13.274   7.427
32748SOL    HW2   78   5.253  13.272   7.338
32749SOL     OW   79   6.793  11.643   5.073
32749SOL    HW1   80   6.699  11.629   5.068
32749SOL    HW2   81   6.829  11.591   5.001
32750SOL     OW   82   1.024  11.129  14.654
32750SOL    HW1   83   1.073  11.191  14.708
32750SOL    HW2   84   0.971  11.080  14.717
32751SOL     OW   85  11.276   6.551  10.700
32751SOL    HW1   86  11.194   6.517  10.664
32751SOL    HW2   87  11.300   6.623  10.641
32752SOL     OW   88   8.497   2.534   0.992
32752SOL    HW1   89   8.420   2.486   0.962
32752SOL    HW2   90   8.571   2.481   0.964
32753SOL     OW   91   3.164   7.420  11.725
32753SOL    HW1   92   3.212   7.350  11.768
32753SOL    HW2   93   3.163   7.396  11.633
32754SOL     OW   94   1.360   8.967   8.903
32754SOL    HW1   95   1.407   9.031   8.850
32754SOL    HW2   96   1.341   9.013   8.985
32755SOL     OW   97   1.457  12.747  13.597
32755SOL    HW1   98   1.437  12.838  13.617
32755SOL    HW2   99   1.509  12.751  13.517
32756SOL     OW  100  14.497   9.218   2.461
32756SOL    HW1  101  14.533   9.138   2.499
32756SOL    HW2  102  14.453   9.189   2.381
32757SOL     OW  103   8.825   2.223   3.857
32757SOL    HW1  104   8.856   2.313   3.863
32757SOL    HW2  105   8.904   2.169   3.858
32758SOL     OW  106  11.428   0.303   6.830
32758SOL    HW1  107  11.353   0.270   6.780
32758SOL    HW2  108  11.395   0.313   6.919
32759SOL     OW  109  11.454   6.759  12.641
32759SOL    HW1  110  11.470   6.691  12.575
32759SOL    HW2  111  11.361   6.779  12.632
32760SOL     OW  112  14.208   5.972   8.409
32760SOL    HW1  113  14.282   5.930   8.453
32760SOL    HW2  114  14.187   6.048   8.463
32761SOL     OW  115   0.608   8.391  12.394
32761SOL    HW1  116   0.645   8.441  12.322
32761SOL    HW2  117   0.571   8.313  12.353
32762SOL     OW  118   8.687   2.525   2.688
32762SOL    HW1  119   8.724   2.588   2.627
32762SOL    HW2  120   8.630   2.577   2.745
32763SOL     OW  121   2.017   9.886   2.233
32763SOL    HW1  122   1.955   9.832   2.184
32763SOL    HW2  123   2.007   9.974   2.197
32764SOL     OW  124  13.500   9.758   3.695
32764SOL    HW1  125  13.565   9.750   3.765
32764SOL    HW2  126  13.422   9.715   3.730
32765SOL     OW  127   1.137   7.340   5.513
32765SOL    HW1  128   1.097   7.426   5.529
32765SOL    HW2  129   1.140   7.299   5.599
32766SOL     OW  130   2.093  10.558  11.659
32766SOL    HW1  131   2.128  10.471  11.640
32766SOL    HW2  132   2.093  10.564  11.754
32767SOL     OW  133  14.340  14.093   3.502
32767SOL    HW1  134  14.340  14.113   3.408
32767SOL    HW2  135  14.428  14.118   3.532
32768SOL     OW  136   3.351   0.931  10.823
32768SOL    HW1  137   3.362   0.976  10.907
32768SOL    HW2  138   3.306   0.995  10.768
32769SOL     OW  139   9.310   6.292   8.014
32769SOL    HW1  140   9.224   6.334   8.015
32769SOL    HW2  141   9.365   6.352   7.962
32770SOL     OW  142  11.457   7.142   5.203
32770SOL    HW1  143  11.397   7.101   5.141
32770SOL    HW2  144  11.489   7.069   5.257
32771SOL     OW  145  12.405  13.389   1.589
32771SOL    HW1  146  12.391  13.482   1.573
32771SOL    HW2  147  12.370  13.373   1.676
32772SOL     OW  148   5.716  13.566   7.788
32772SOL    HW1  149   5.784  13.532   7.845
32772SOL    HW2  150   5.757  13.573   7.702
32773SOL     OW  151  13.294  13.740   4.581
32773SOL    HW1  152  13.217  13.785   4.545
32773SOL    HW2  153  13.332  13.695   4.506
32774SOL     OW  154   5.479   3.831   3.091
32774SOL    HW1  155   5.410   3.765   3.096
32774SOL    HW2  156   5.539   3.798   3.025
32775SOL     OW  157   5.576  11.518   8.772
32775SOL    HW1  158   5.629  11.572   8.831
32775SOL    HW2  159   5.593  11.428   8.799
32776SOL     OW  160  12.572  10.863   1.940
32776SOL    HW1  161  12.573  10.844   2.033
32776SOL    HW2  162  12.571  10.776   1.898
32777SOL     OW  163   4.750  11.524   3.688
32777SOL    HW1  164   4.818  11.466   3.722
32777SOL    HW2  165   4.668  11.476   3.702
32778SOL     OW  166   8.623  13.824   4.882
32778SOL    HW1  167   8.574  13.897   4.844
32778SOL    HW2  168   8.653  13.774   4.806
32779SOL     OW  169   4.798  11.327   3.072
32779SOL    HW1  170   4.860  11.399   3.061
32779SOL    HW2  171   4.735  11.338   3.000
32780SOL     OW  172   4.968  14.622   6.395
32780SOL    HW1  173   4.927  14.650   6.313
32780SOL    HW2  174   5.012  14.700   6.428
32781SOL     OW  175  11.260   7.889   9.639
32781SOL    HW1  176  11.182   7.843   9.669
32781SOL    HW2  177  11.328   7.822   9.635
32782SOL     OW  178  14.055   6.960   1.210
32782SOL    HW1  179  14.105   6.885   1.244
32782SOL    HW2  180  13.998   6.922   1.143
32783SOL     OW  181  13.742   4.681  12.463
32783SOL    HW1  182  13.716   4.633  12.383
32783SOL    HW2  183  13.826   4.643  12.487
32784SOL     OW  184  14.306   2.940   5.771
32784SOL    HW1  185  14.317   2.892   5.689
32784SOL    HW2  186  14.393   2.942   5.810
32785SOL     OW  187  11.324  14.423  10.744
32785SOL    HW1  188  11.352  14.514  10.732
32785SOL    HW2  189  11.283  14.422  10.831
32786SOL     OW  190  14.534  13.876   2.676
32786SOL    HW1  191  14.516  13.862   2.583
32786SOL    HW2  192  14.450  13.862   2.719
32787SOL     OW  193   9.294   8.145   3.854
32787SOL    HW1  194   9.203   8.158   3.826
32787SOL    HW2  195   9.325   8.233   3.876
32788SOL     OW  196   4.462   9.354   4.077
32788SOL    HW1  197   4.464   9.384   3.986
32788SOL    HW2  198   4.554   9.335   4.097
32789SOL     OW  199   5.648  10.731  14.016
32789SOL    HW1  200   5.613  10.654  13.972
32789SOL    HW2  201   5.595  10.804  13.982
32790SOL     OW  202   1.820  13.466  13.664
32790SOL    HW1  203   1.834  13.454  13.758
32790SOL    HW2  204   1.849  13.385  13.624
32791SOL     OW  205  13.476   0.782   7.276
32791SOL    HW1  206  13.523   0.858   7.313
32791SOL    HW2  207  13.419   0.819   7.209
32792SOL     OW  208   2.993   0.724   0.783
32792SOL    HW1  209   2.946   0.751   0.704
32792SOL    HW2  210   3.067   0.674   0.750
32793SOL     OW  211   9.614   9.913   7.182
32793SOL    HW1  212   9.562   9.951   7.252
32793SOL    HW2  213   9.586   9.822   7.177
32794SOL     OW  214   0.481  13.827   3.656
32794SOL    HW1  215   0.424  13.840   3.580
32794SOL    HW2  216   0.530  13.909   3.664
32795SOL     OW  217   0.549  10.592  12.801
32795SOL    HW1  218   0.504  10.554  12.876
32795SOL    HW2  219   0.559  10.684  12.824
32796SOL     OW  220   3.447  11.701   4.850
32796SOL    HW1  221   3.354  11.706   4.871
32796SOL    HW2  222   3.451  11.653   4.767
32797SOL     OW  223   6.456   5.724   6.751
32797SOL    HW1  224   6.422   5.810   6.725
32797SOL    HW2  225   6.523   5.743   6.816
32798SOL     OW  226   9.374   4.413   9.026
32798SOL    HW1  227   9.294   4.362   9.012
32798SOL    HW2  228   9.349   4.503   9.005
32799SOL     OW  229   0.516   0.331   6.024
32799SOL    HW1  230   0.584   0.318   6.090
32799SOL    HW2  231   0.509   0.247   5.979
32800SOL     OW  232  13.235  11.697   3.834
32800SOL    HW1  233  13.165  11.654   3.784
32800SOL    HW2  234  13.253  11.777   3.785
32801SOL     OW  235   5.881  12.071   7.187
32801SOL    HW1  236   5.872  12.033   7.100
32801SOL    HW2  237   5.972  12.052   7.212
32802SOL     OW  238  12.153   4.284   1.237
32802SOL    HW1  239  12.183   4.346   1.170
32802SOL    HW2  240  12.233   4.241   1.266
32803SOL     OW  241   7.633   5.321   0.967
32803SOL    HW1  242   7.580   5.243   0.982
32803SOL    HW2  243   7.645   5.360   1.054
32804SOL     OW  244   4.731   8.720   3.341
32804SOL    HW1  245   4.636   8.730   3.336
32804SOL    HW2  246   4.754   8.670   3.263
32805SOL     OW  247   7.793   9.712  11.097
32805SOL    HW1  248   7.784   9.618  11.114
32805SOL    HW2  249   7.827   9.717  11.008
32806SOL     OW  250   0.792   3.440  11.630
32806SOL    HW1  251   0.841   3.375  11.579
32806SOL    HW2  252   0.718   3.392  11.666
32807SOL     OW  253  11.362   8.840   4.013
32807SOL    HW1  254  11.365   8.872   3.922
32807SOL    HW2  255  11.394   8.750   4.008
32808SOL     OW  256   4.330  11.643  14.654
32808SOL    HW1  257   4.405  11.703  14.652
32808SOL    HW2  258   4.276  11.675  14.726
32809SOL     OW  259   4.758  14.848  14.112
32809SOL    HW1  260   4.720   0.035  14.048
32809SOL    HW2  261   4.850  14.839  14.087
32810SOL     OW  262   9.474   0.289   8.724
32810SOL    HW1  263   9.563   0.322   8.715
32810SOL    HW2  264   9.458   0.242   8.642
32811SOL     OW  265  13.597   9.556   4.812
32811SOL    HW1  266  13.607   9.645   4.846
32811SOL    HW2  267  13.605   9.566   4.717
32812SOL     OW  268  14.111   1.078   0.514
32812SOL    HW1  269  14.198   1.051   0.544
32812SOL    HW2  270  14.055   1.002   0.532
32813SOL     OW  271  12.509   9.197   3.280
32813SOL    HW1  272  12.500   9.170   3.189
32813SOL    HW2  273  12.524   9.115   3.328
32814SOL     OW  274   9.485   2.135   1.485
32814SOL    HW1  275   9.491   2.223   1.523
32814SOL    HW2  276   9.567   2.124   1.437
32815SOL     OW  277   7.292  12.288  12.155
32815SOL    HW1  278   7.255  12.229  12.222
32815SOL    HW2  279   7.285  12.238  12.074
32816SOL     OW  280   8.934   1.573   2.258
32816SOL    HW1  281   8.978   1.497   2.297
32816SOL    HW2  282   8.909   1.627   2.334
32817SOL     OW  283   5.603  13.218   9.204
32817SOL    HW1  284   5.691  13.197   9.235
32817SOL    HW2  285   5.581  13.148   9.142
32818SOL     OW  286   2.345   2.882  10.597
32818SOL    HW1  287   2.421   2.880  10.539
32818SOL    HW2  288   2.362   2.954  10.657
32819SOL     OW  289  10.491  10.212   5.316
32819SOL    HW1  290  10.411  10.159   5.313
32819SOL    HW2  291  10.538  10.179   5.393
32820SOL     OW  292   0.208  13.192  14.163
32820SOL    HW1  293   0.114  13.175  14.170
32820SOL    HW2  294   0.225  13.263  14.225
32821SOL     OW  295  13.477   9.025   3.136
32821SOL    HW1  296  13.569   9.033   3.115
32821SOL    HW2  297  13.471   9.051   3.228
32822SOL     OW  298  11.433   1.109  11.158
32822SOL    HW1  299  11.395   1.035  11.207
32822SOL    HW2  300  11.370   1.180  11.172
32823SOL     OW  301   8.106   9.968   8.235
32823SOL    HW1  302   8.171  10.006   8.293
32823SOL    HW2  303   8.070   9.894   8.283
32824SOL     OW  304   7.456  11.190   4.919
32824SOL    HW1  305   7.381  11.246   4.901
32824SOL    HW2  306   7.426  11.102   4.894
32825SOL     OW  307   4.048  12.882  14.605
32825SOL    HW1  308   4.100  12.960  14.624
32825SOL    HW2  309   3.976  12.913  14.550
32826SOL     OW  310  10.394   4.683   7.049
32826SOL    HW1  311  10.488   4.691   7.065
32826SOL    HW2  312  10.369   4.603   7.096
32827SOL     OW  313  14.311  11.459   4.900
32827SOL    HW1  314  14.234  11.454   4.957
32827SOL    HW2  315  14.280  11.501   4.821
32828SOL     OW  316   5.727   0.794  11.027
32828SOL    HW1  317   5.718   0.737  10.951
32828SOL    HW2  318   5.665   0.760  11.091
32829SOL     OW  319   4.219   9.199  11.538
32829SOL    HW1  320   4.234   9.105  11.530
32829SOL    HW2  321   4.271   9.237  11.467
32830SOL     OW  322   9.943  11.973  14.714
32830SOL    HW1  323   9.903  11.931  14.639
32830SOL    HW2  324   9.885  12.046  14.736
32831SOL     OW  325   2.587   4.352  14.837
32831SOL    HW1  326   2.649   4.287  14.868
32831SOL    HW2  327   2.519   4.354   0.032
32832SOL     OW  328   4.627  10.551   6.909
32832SOL    HW1  329   4.720  10.573   6.901
32832SOL    HW2  330   4.593  10.614   6.973
32833SOL     OW  331   3.162   1.219   8.777
32833SOL    HW1  332   3.097   1.272   8.731
32833SOL    HW2  333   3.141   1.128   8.754
32834SOL     OW  334   7.361  13.945   5.261
32834SOL    HW1  335   7.376  14.026   5.311
32834SOL    HW2  336   7.380  13.875   5.323
32835SOL     OW  337  13.137   9.915  14.863
32835SOL    HW1  338  13.226   9.918  14.828
32835SOL    HW2  339  13.094   9.846  14.814
32836SOL     OW  340   0.335  12.002  11.419
32836SOL    HW1  341   0.306  12.087  11.387
32836SOL    HW2  342   0.365  12.019  11.509
32837SOL     OW  343   0.762   8.543  11.801
32837SOL    HW1  344   0.719   8.626  11.780
32837SOL    HW2  345   0.855   8.560  11.788
32838SOL     OW  346   9.598  11.505   0.293
32838SOL    HW1  347   9.586  11.503   0.388
32838SOL    HW2  348   9.510  11.505   0.257
32839SOL     OW  349   3.827   8.148   1.165
32839SOL    HW1  350   3.795   8.068   1.208
32839SOL    HW2  351   3.803   8.137   1.073
32840SOL     OW  352   6.953   6.346   4.035
32840SOL    HW1  353   6.892   6.396   3.981
32840SOL    HW2  354   7.022   6.408   4.057
32841SOL     OW  355   7.383   7.022   4.486
32841SOL    HW1  356   7.406   7.055   4.573
32841SOL    HW2  357   7.289   7.037   4.479
32842SOL     OW  358   0.831  13.223   3.244
32842SOL    HW1  359   0.849  13.267   3.327
32842SOL    HW2  360   0.916  13.221   3.199
32843SOL     OW  361   2.419   3.996   7.780
32843SOL    HW1  362   2.464   4.023   7.859
32843SOL    HW2  363   2.455   3.909   7.760
32844SOL     OW  364   6.990  10.608   2.272
32844SOL    HW1  365   6.944  10.604   2.356
32844SOL    HW2  366   6.963  10.691   2.233
32845SOL     OW  367  10.017  12.283   2.309
32845SOL    HW1  368  10.056  12.195   2.314
32845SOL    HW2  369   9.971  12.284   2.226
32846SOL     OW  370   2.270   6.826  12.049
32846SOL    HW1  371   2.325   6.799  11.976
32846SOL    HW2  372   2.202   6.759  12.054
32847SOL     OW  373   9.536   0.471  11.992
32847SOL    HW1  374   9.494   0.509  12.069
32847SOL    HW2  375   9.468   0.470  11.925
32848SOL     OW  376   5.131  11.534   7.797
32848SOL    HW1  377   5.204  11.549   7.858
32848SOL    HW2  378   5.157  11.579   7.717
32849SOL     OW  379   3.880  13.625   1.914
32849SOL    HW1  380   3.835  13.683   1.853
32849SOL    HW2  381   3.864  13.663   2.000
32850SOL     OW  382   8.660  14.231   6.026
32850SOL    HW1  383   8.707  14.299   5.976
32850SOL    HW2  384   8.683  14.248   6.117
32851SOL     OW  385  14.168   2.562  14.043
32851SOL    HW1  386  14.196   2.610  14.122
32851SOL    HW2  387  14.233   2.586  13.977
32852SOL     OW  388  10.870   5.269   2.884
32852SOL    HW1  389  10.901   5.224   2.962
32852SOL    HW2  390  10.943   5.264   2.822
32853SOL     OW  391   8.840  11.682   0.901
32853SOL    HW1  392   8.876  11.738   0.832
32853SOL    HW2  393   8.750  11.712   0.911
32854SOL     OW  394  11.449   3.418   0.061
32854SOL    HW1  395  11.355   3.410   0.079
32854SOL    HW2  396  11.484   3.331   0.079
32855SOL     OW  397  14.821   7.185   7.859
32855SOL    HW1  398  14.835   7.259   7.919
32855SOL    HW2  399   0.019   7.193   7.795
32856SOL     OW  400   9.863   3.346  13.893
32856SOL    HW1  401   9.828   3.257  13.882
32856SOL    HW2  402   9.909   3.364  13.810
32857SOL     OW  403   9.191   0.714   3.163
32857SOL    HW1  404   9.204   0.773   3.088
32857SOL    HW2  405   9.206   0.770   3.239
32858SOL     OW  406   5.647   9.670  12.241
32858SOL    HW1  407   5.680   9.744  12.190
32858SOL    HW2  408   5.725   9.615  12.257
32859SOL     OW  409   1.483  10.074  11.833
32859SOL    HW1  410   1.561  10.024  11.857
32859SOL    HW2  411   1.488  10.154  11.885
32860SOL     OW  412  11.700   1.112   8.321
32860SOL    HW1  413  11.728   1.124   8.230
32860SOL    HW2  414  11.688   1.017   8.329
32861SOL     OW  415   0.398  13.012   8.923
32861SOL    HW1  416   0.332  12.946   8.902
32861SOL    HW2  417   0.349  13.094   8.931
32862SOL     OW  418   6.366   7.403  11.322
32862SOL    HW1  419   6.399   7.468  11.385
32862SOL    HW2  420   6.336   7.330  11.377
32863SOL     OW  421   9.659  13.109  10.355
32863SOL    HW1  422   9.752  13.123  10.338
32863SOL    HW2  423   9.618  13.114  10.268
32864SOL     OW  424  10.722   4.588  12.554
32864SOL    HW1  425  10.721   4.683  12.541
32864SOL    HW2  426  10.725   4.576  12.649
32865SOL     OW  427   7.784  11.694   9.391
32865SOL    HW1  428   7.800  11.784   9.363
32865SOL    HW2  429   7.807  11.694   9.484
32866SOL     OW  430  13.191   0.247   0.217
32866SOL    HW1  431  13.222   0.291   0.138
32866SOL    HW2  432  13.206   0.154   0.201
32867SOL     OW  433   3.544  14.024  12.712
32867SOL    HW1  434   3.605  13.961  12.751
32867SOL    HW2  435   3.457  13.989  12.734
32868SOL     OW  436  11.476   1.871   1.467
32868SOL    HW1  437  11.453   1.859   1.375
32868SOL    HW2  438  11.486   1.783   1.501
32869SOL     OW  439   5.210   6.759   8.748
32869SOL    HW1  440   5.220   6.788   8.658
32869SOL    HW2  441   5.219   6.839   8.800
32870SOL     OW  442   9.779   1.634  11.453
32870SOL    HW1  443   9.833   1.575  11.401
32870SOL    HW2  444   9.812   1.721  11.431
32871SOL     OW  445  13.612   2.629   9.225
32871SOL    HW1  446  13.700   2.651   9.194
32871SOL    HW2  447  13.567   2.592   9.149
32872SOL     OW  448   8.880  11.335   3.992
32872SOL    HW1  449   8.947  11.268   4.009
32872SOL    HW2  450   8.847  11.359   4.078
32873SOL     OW  451  13.505  11.394   9.507
32873SOL    HW1  452  13.516  11.303   9.535
32873SOL    HW2  453  13.413  11.399   9.479
32874SOL     OW  454  10.776   8.985   6.722
32874SOL    HW1  455  10.860   8.939   6.725
32874SOL    HW2  456  10.800   9.076   6.703
32875SOL     OW  457  12.110   5.995   3.217
32875SOL    HW1  458  12.077   6.060   3.155
32875SOL    HW2  459  12.202   6.019   3.229
32876SOL     OW  460   2.231   5.115   7.867
32876SOL    HW1  461   2.297   5.157   7.922
32876SOL    HW2  462   2.279   5.051   7.815
32877SOL     OW  463  11.589  13.604   5.636
32877SOL    HW1  464  11.679  13.630   5.654
32877SOL    HW2  465  11.588  13.582   5.543
32878SOL     OW  466  14.267   3.780   3.352
32878SOL    HW1  467  14.198   3.727   3.393
32878SOL    HW2  468  14.263   3.755   3.259
32879SOL     OW  469   9.060  10.441   6.412
32879SOL    HW1  470   8.988  10.443   6.348
32879SOL    HW2  471   9.114  10.367   6.384
32880SOL     OW  472   8.422   5.333  14.751
32880SOL    HW1  473   8.447   5.425  14.747
32880SOL    HW2  474   8.412   5.314  14.845
32881SOL     OW  475   8.645  14.392   1.014
32881SOL    HW1  476   8.695  14.388   1.095
32881SOL    HW2  477   8.633  14.486   0.998
32882SOL     OW  478   4.620  10.204   7.991
32882SOL    HW1  479   4.632  10.119   8.033
32882SOL    HW2  480   4.699  10.253   8.013
32883SOL     OW  481   7.824   5.668   4.790
32883SOL    HW1  482   7.882   5.613   4.843
32883SOL    HW2  483   7.741   5.668   4.837
32884SOL     OW  484   6.393   0.318   4.683
32884SOL    HW1  485   6.344   0.242   4.651
32884SOL    HW2  486   6.344   0.394   4.651
32885SOL     OW  487   5.629   2.262   7.554
32885SOL    HW1  488   5.588   2.271   7.640
32885SOL    HW2  489   5.632   2.167   7.539
32886SOL     OW  490   9.891   5.409   8.426
32886SOL    HW1  491   9.914   5.373   8.512
32886SOL    HW2  492   9.972   5.449   8.395
32887SOL     OW  493   6.676   0.170   6.025
32887SOL    HW1  494   6.599   0.178   6.081
32887SOL    HW2  495   6.678   0.252   5.975
32888SOL     OW  496   6.670  14.640   9.859
32888SOL    HW1  497   6.592  14.629   9.913
32888SOL    HW2  498   6.642  14.614   9.771
32889SOL     OW  499   3.829   7.260  12.919
32889SOL    HW1  500   3.846   7.189  12.857
32889SOL    HW2  501   3.798   7.216  12.998
32890SOL     OW  502  12.857   3.258   8.891
32890SOL    HW1  503  12.841   3.352   8.881
32890SOL    HW2  504  12.825   3.237   8.978
32891SOL     OW  505   6.970   7.897   1.799
32891SOL    HW1  506   6.965   7.990   1.777
32891SOL    HW2  507   7.064   7.878   1.800
32892SOL     OW  508   8.814  10.555   9.363
32892SOL    HW1  509   8.807  10.492   9.291
32892SOL    HW2  510   8.874  10.623   9.330
32893SOL     OW  511   4.470   6.100   4.159
32893SOL    HW1  512   4.494   6.019   4.204
32893SOL    HW2  513   4.406   6.142   4.216
32894SOL     OW  514  14.138   5.401   3.011
32894SOL    HW1  515  14.150   5.485   3.055
32894SOL    HW2  516  14.156   5.419   2.919
32895SOL     OW  517  13.406   8.065  13.531
32895SOL    HW1  518  13.399   8.092  13.439
32895SOL    HW2  519  13.374   8.141  13.580
32896SOL     OW  520   4.486   0.031   8.360
32896SOL    HW1  521   4.547   0.043   8.287
32896SOL    HW2  522   4.400   0.022   8.320
32897SOL     OW  523   8.814   1.665   7.439
32897SOL    HW1  524   8.886   1.618   7.396
32897SOL    HW2  525   8.800   1.617   7.521
32898SOL     OW  526   2.825   0.249   2.595
32898SOL    HW1  527   2.900   0.201   2.560
32898SOL    HW2  528   2.862   0.330   2.630
32899SOL     OW  529   5.267   5.433  10.980
32899SOL    HW1  530   5.232   5.481  11.056
32899SOL    HW2  531   5.268   5.342  11.008
32900SOL     OW  532   4.173   4.902   5.727
32900SOL    HW1  533   4.239   4.918   5.660
32900SOL    HW2  534   4.102   4.963   5.706
32901SOL     OW  535  12.038   3.826   4.654
32901SOL    HW1  536  11.948   3.825   4.621
32901SOL    HW2  537  12.084   3.884   4.595
32902SOL     OW  538   4.034  12.503  14.836
32902SOL    HW1  539   3.945  12.511  14.870
32902SOL    HW2  540   4.029  12.536  14.746
32903SOL     OW  541   5.784  13.701  10.830
32903SOL    HW1  542   5.862  13.650  10.851
32903SOL    HW2  543   5.718  13.635  10.807
32904SOL     OW  544   0.411  11.967   2.917
32904SOL    HW1  545   0.456  11.958   3.001
32904SOL    HW2  546   0.430  11.885   2.871
32905SOL     OW  547  12.976  11.658   8.487
32905SOL    HW1  548  12.950  11.640   8.577
32905SOL    HW2  549  12.944  11.747   8.470
32906SOL     OW  550   8.139  12.481  10.198
32906SOL    HW1  551   8.200  12.494  10.126
32906SOL    HW2  552   8.181  12.416  10.254
32907SOL     OW  553   9.279   0.986   8.163
32907SOL    HW1  554   9.312   0.935   8.237
32907SOL    HW2  555   9.190   1.011   8.188
32908SOL     OW  556   0.600   7.963   3.257
32908SOL    HW1  557   0.637   8.049   3.274
32908SOL    HW2  558   0.635   7.938   3.171
32909SOL     OW  559   0.405  11.976  10.294
32909SOL    HW1  560   0.458  11.912  10.343
32909SOL    HW2  561   0.403  11.941  10.205
32910SOL     OW  562   6.809   3.467   8.926
32910SOL    HW1  563   6.765   3.463   9.011
32910SOL    HW2  564   6.887   3.521   8.942
32911SOL     OW  565  11.587   4.145   7.959
32911SOL    HW1  566  11.579   4.056   7.995
32911SOL    HW2  567  11.586   4.133   7.864
32912SOL     OW  568   0.713   4.500   0.677
32912SOL    HW1  569   0.653   4.547   0.620
32912SOL    HW2  570   0.763   4.443   0.617
32913SOL     OW  571  11.241   7.984   7.691
32913SOL    HW1  572  11.238   7.960   7.598
32913SOL    HW2  573  11.311   8.049   7.696
32914SOL     OW  574  11.334   5.030   4.006
32914SOL    HW1  575  11.300   4.967   4.070
32914SOL    HW2  576  11.284   5.012   3.927
32915SOL     OW  577   5.195   3.323  12.485
32915SOL    HW1  578   5.103   3.306  12.466
32915SOL    HW2  579   5.205   3.305  12.578
32916SOL     OW  580   6.271  13.106  12.021
32916SOL    HW1  581   6.249  13.160  11.946
32916SOL    HW2  582   6.213  13.137  12.091
32917SOL     OW  583   5.792  10.702   1.243
32917SOL    HW1  584   5.805  10.733   1.332
32917SOL    HW2  585   5.839  10.765   1.188
32918SOL     OW  586  13.193   4.335   9.585
32918SOL    HW1  587  13.206   4.264   9.522
32918SOL    HW2  588  13.127   4.391   9.545
32919SOL     OW  589   5.149  12.212   5.958
32919SOL    HW1  590   5.210  12.144   5.926
32919SOL    HW2  591   5.063  12.172   5.950
32920SOL     OW  592   0.900  13.604  14.659
32920SOL    HW1  593   0.828  13.665  14.678
32920SOL    HW2  594   0.913  13.612  14.564
32921SOL     OW  595  12.449   9.113   7.126
32921SOL    HW1  596  12.494   9.046   7.074
32921SOL    HW2  597  12.358   9.083   7.128
32922SOL     OW  598   1.895   2.191   4.268
32922SOL    HW1  599   1.891   2.283   4.244
32922SOL    HW2  600   1.840   2.147   4.202
32923SOL     OW  601   7.355   8.354   4.267
32923SOL    HW1  602   7.288   8.322   4.327
32923SOL    HW2  603   7.340   8.449   4.264
32924SOL     OW  604   3.809   2.231   3.518
32924SOL    HW1  605   3.748   2.274   3.458
32924SOL    HW2  606   3.879   2.295   3.533
32925SOL     OW  607   2.152   4.570   4.118
32925SOL    HW1  608   2.170   4.487   4.072
32925SOL    HW2  609   2.059   4.565   4.140
32926SOL     OW  610   6.963   4.705  14.563
32926SOL    HW1  611   6.983   4.677  14.474
32926SOL    HW2  612   6.950   4.800  14.556
32927SOL     OW  613   8.820   3.997   9.981
32927SOL    HW1  614   8.909   4.013  10.013
32927SOL    HW2  615   8.825   4.013   9.887
32928SOL     OW  616   8.763   3.874  10.392
32928SOL    HW1  617   8.668   3.879  10.404
32928SOL    HW2  618   8.774   3.840  10.304
32929SOL     OW  619   8.006   7.151   5.521
32929SOL    HW1  620   7.924   7.187   5.487
32929SOL    HW2  621   7.980   7.073   5.569
32930SOL     OW  622   2.991  11.183   4.372
32930SOL    HW1  623   3.037  11.099   4.365
32930SOL    HW2  624   3.004  11.224   4.286
32931SOL     OW  625   3.800   0.234   7.983
32931SOL    HW1  626   3.868   0.275   7.930
32931SOL    HW2  627   3.790   0.294   8.058
32932SOL     OW  628   6.001  13.555   8.170
32932SOL    HW1  629   6.029  13.465   8.151
32932SOL    HW2  630   6.018  13.566   8.264
32933SOL     OW  631   4.565   2.416   3.104
32933SOL    HW1  632   4.542   2.327   3.132
32933SOL    HW2  633   4.652   2.406   3.066
32934SOL     OW  634  11.002   3.071   6.841
32934SOL    HW1  635  11.027   3.088   6.932
32934SOL    HW2  636  11.042   3.142   6.791
32935SOL     OW  637   4.351   8.954  11.210
32935SOL    HW1  638   4.390   9.041  11.217
32935SOL    HW2  639   4.404   8.908  11.145
32936SOL     OW  640   5.242   7.398   1.493
32936SOL    HW1  641   5.268   7.370   1.406
32936SOL    HW2  642   5.267   7.326   1.551
32937SOL     OW  643   5.855   7.776  11.683
32937SOL    HW1  644   5.938   7.728  11.686
32937SOL    HW2  645   5.874   7.854  11.631
32938SOL     OW  646   8.902  14.735   7.535
32938SOL    HW1  647   8.969  14.718   7.470
32938SOL    HW2  648   8.851  14.808   7.500
32939SOL     OW  649   8.394   0.110   3.083
32939SOL    HW1  650   8.416   0.030   3.129
32939SOL    HW2  651   8.416   0.180   3.145
32940SOL     OW  652   8.176   3.918   3.269
32940SOL    HW1  653   8.162   3.992   3.329
32940SOL    HW2  654   8.124   3.847   3.307
32941SOL     OW  655   9.183   7.640   1.756
32941SOL    HW1  656   9.246   7.584   1.801
32941SOL    HW2  657   9.192   7.725   1.799
32942SOL     OW  658  13.836  13.560  13.487
32942SOL    HW1  659  13.856  13.475  13.526
32942SOL    HW2  660  13.879  13.558  13.401
32943SOL     OW  661   0.778   1.839  13.424
32943SOL    HW1  662   0.689   1.870  13.439
32943SOL    HW2  663   0.806   1.801  13.508
32944SOL     OW  664   8.040   2.162   3.011
32944SOL    HW1  665   8.008   2.098   3.075
32944SOL    HW2  666   8.074   2.109   2.939
32945SOL     OW  667   2.820   3.317   1.551
32945SOL    HW1  668   2.746   3.355   1.599
32945SOL    HW2  669   2.869   3.393   1.521
32946SOL     OW  670  14.225   4.544   3.131
32946SOL    HW1  671  14.185   4.515   3.049
32946SOL    HW2  672  14.253   4.463   3.174
32947SOL     OW  673  14.612   0.035   8.604
32947SOL    HW1  674  14.526   0.071   8.625
32947SOL    HW2  675  14.594  14.822   8.566
32948SOL     OW  676  13.110  14.200   8.627
32948SOL    HW1  677  13.168  14.143   8.577
32948SOL    HW2  678  13.054  14.241   8.562
32949SOL     OW  679   7.664   2.197   4.220
32949SOL    HW1  680   7.584   2.199   4.274
32949SOL    HW2  681   7.635   2.163   4.135
32950SOL     OW  682   2.500   7.720  14.596
32950SOL    HW1  683   2.466   7.725  14.685
32950SOL    HW2  684   2.494   7.810  14.563
32951SOL     OW  685  11.927   5.294  10.986
32951SOL    HW1  686  11.873   5.371  11.007
32951SOL    HW2  687  12.016   5.329  10.977
32952SOL     OW  688   8.383   3.378   1.476
32952SOL    HW1  689   8.300   3.377   1.523
32952SOL    HW2  690   8.448   3.349   1.541
32953SOL     OW  691   9.146   9.848   5.449
32953SOL    HW1  692   9.185   9.935   5.440
32953SOL    HW2  693   9.077   9.860   5.515
32954SOL     OW  694   5.613   2.614  11.307
32954SOL    HW1  695   5.683   2.645  11.250
32954SOL    HW2  696   5.538   2.604  11.249
32955SOL     OW  697   7.991  10.059   9.975
32955SOL    HW1  698   7.902  10.024   9.971
32955SOL    HW2  699   8.010  10.084   9.885
32956SOL     OW  700   8.634   8.991   2.073
32956SOL    HW1  701   8.726   8.976   2.096
32956SOL    HW2  702   8.638   9.028   1.984
32957SOL     OW  703   8.426  11.918  14.311
32957SOL    HW1  704   8.469  11.935  14.227
32957SOL    HW2  705   8.356  11.856  14.288
32958SOL     OW  706   8.365  13.323   2.736
32958SOL    HW1  707   8.442  13.381   2.735
32958SOL    HW2  708   8.329  13.331   2.648
32959SOL     OW  709  11.565   9.926  12.347
32959SOL    HW1  710  11.621   9.880  12.409
32959SOL    HW2  711  11.614   9.923  12.264
32960SOL     OW  712   5.616   5.719   1.213
32960SOL    HW1  713   5.689   5.707   1.152
32960SOL    HW2  714   5.573   5.800   1.184
32961SOL     OW  715   7.636   2.196   0.128
32961SOL    HW1  716   7.647   2.127   0.062
32961SOL    HW2  717   7.579   2.260   0.086
32962SOL     OW  718   6.418   7.828   4.681
32962SOL    HW1  719   6.328   7.859   4.674
32962SOL    HW2  720   6.410   7.733   4.687
32963SOL     OW  721   2.560   0.691   4.276
32963SOL    HW1  722   2.583   0.608   4.234
32963SOL    HW2  723   2.548   0.668   4.368
32964SOL     OW  724   4.983   8.157  11.648
32964SOL    HW1  725   4.945   8.240  11.678
32964SOL    HW2  726   5.073   8.159  11.680
32965SOL     OW  727   7.338  10.249   9.582
32965SOL    HW1  728   7.305  10.286   9.500
32965SOL    HW2  729   7.422  10.210   9.557
32966SOL     OW  730   4.321   5.469  10.093
32966SOL    HW1  731   4.241   5.440  10.136
32966SOL    HW2  732   4.384   5.399  10.108
32967SOL     OW  733   8.723   9.172   6.760
32967SOL    HW1  734   8.679   9.215   6.834
32967SOL    HW2  735   8.740   9.242   6.698
32968SOL     OW  736  11.431   0.069   1.948
32968SOL    HW1  737  11.437   0.007   1.875
32968SOL    HW2  738  11.419   0.154   1.906
32969SOL     OW  739   0.055   0.092   9.527
32969SOL    HW1  740   0.066  14.870   9.541
32969SOL    HW2  741   0.132   0.131   9.569
32970SOL     OW  742   5.815   5.081  11.926
32970SOL    HW1  743   5.806   5.141  11.852
32970SOL    HW2  744   5.793   5.134  12.003
32971SOL     OW  745   0.736   1.364   1.876
32971SOL    HW1  746   0.659   1.420   1.889
32971SOL    HW2  747   0.715   1.283   1.922
32972SOL     OW  748  12.400   7.860  14.150
32972SOL    HW1  749  12.314   7.883  14.187
32972SOL    HW2  750  12.392   7.880  14.057
32973SOL     OW  751   3.478  13.327   8.974
32973SOL    HW1  752   3.561  13.281   8.987
32973SOL    HW2  753   3.464  13.326   8.879
32974SOL     OW  754   4.497   0.814   1.343
32974SOL    HW1  755   4.457   0.774   1.266
32974SOL    HW2  756   4.551   0.745   1.382
32975SOL     OW  757  13.706   7.983   5.282
32975SOL    HW1  758  13.747   8.033   5.353
32975SOL    HW2  759  13.714   7.892   5.310
32976SOL     OW  760   1.422   6.588   8.268
32976SOL    HW1  761   1.336   6.563   8.233
32976SOL    HW2  762   1.422   6.683   8.266
32977SOL     OW  763  12.053   0.409   5.656
32977SOL    HW1  764  12.040   0.452   5.571
32977SOL    HW2  765  11.978   0.436   5.708
32978SOL     OW  766  14.760  13.768   3.093
32978SOL    HW1  767  14.812  13.783   3.172
32978SOL    HW2  768  14.804  13.818   3.025
32979SOL     OW  769  12.537  13.686  14.296
32979SOL    HW1  770  12.605  13.640  14.247
32979SOL    HW2  771  12.572  13.693  14.385
32980SOL     OW  772   6.294  13.307   1.420
32980SOL    HW1  773   6.350  13.291   1.344
32980SOL    HW2  774   6.289  13.402   1.427
32981SOL     OW  775   3.542   1.471   0.779
32981SOL    HW1  776   3.600   1.518   0.719
32981SOL    HW2  777   3.463   1.455   0.729
32982SOL     OW  778  11.970   7.039   3.550
32982SOL    HW1  779  11.894   6.982   3.539
32982SOL    HW2  780  12.004   7.051   3.461
32983SOL     OW  781   0.927   2.818   8.802
32983SOL    HW1  782   1.001   2.865   8.765
32983SOL    HW2  783   0.899   2.872   8.876
32984SOL     OW  784   0.653   5.584   3.007
32984SOL    HW1  785   0.564   5.616   3.024
32984SOL    HW2  786   0.676   5.535   3.086
32985SOL     OW  787  12.211  11.318   7.554
32985SOL    HW1  788  12.171  11.391   7.601
32985SOL    HW2  789  12.244  11.260   7.623
32986SOL     OW  790  10.493   7.450   1.280
32986SOL    HW1  791  10.562   7.476   1.341
32986SOL    HW2  792  10.469   7.362   1.306
32987SOL     OW  793  10.245   5.363  11.489
32987SOL    HW1  794  10.222   5.299  11.422
32987SOL    HW2  795  10.287   5.312  11.558
32988SOL     OW  796   0.452   7.539   3.892
32988SOL    HW1  797   0.429   7.447   3.877
32988SOL    HW2  798   0.484   7.569   3.807
32989SOL     OW  799  10.189   8.477   6.009
32989SOL    HW1  800  10.274   8.488   6.052
32989SOL    HW2  801  10.202   8.514   5.921
32990SOL     OW  802   1.445   1.944   7.262
32990SOL    HW1  803   1.483   1.995   7.191
32990SOL    HW2  804   1.371   1.899   7.223
32991SOL     OW  805   6.226   2.940   8.764
32991SOL    HW1  806   6.162   2.997   8.722
32991SOL    HW2  807   6.281   2.999   8.815
32992SOL     OW  808  11.670  13.123  11.951
32992SOL    HW1  809  11.734  13.190  11.924
32992SOL    HW2  810  11.669  13.128  12.046
32993SOL     OW  811   8.759   5.583   3.559
32993SOL    HW1  812   8.715   5.665   3.537
32993SOL    HW2  813   8.706   5.515   3.518
32994SOL     OW  814   7.063  12.392   3.018
32994SOL    HW1  815   7.033  12.307   3.052
32994SOL    HW2  816   7.153  12.376   2.990
32995SOL     OW  817  10.003   6.753   3.075
32995SOL    HW1  818  10.059   6.820   3.035
32995SOL    HW2  819   9.929   6.801   3.111
32996SOL     OW  820  11.471  13.187   6.320
32996SOL    HW1  821  11.478  13.099   6.357
32996SOL    HW2  822  11.560  13.222   6.324
32997SOL     OW  823  13.154   3.769  11.862
32997SOL    HW1  824  13.236   3.720  11.850
32997SOL    HW2  825  13.102   3.747  11.785
32998SOL     OW  826  11.017   6.904   1.750
32998SOL    HW1  827  10.975   6.989   1.742
32998SOL    HW2  828  11.039   6.879   1.660
32999SOL     OW  829  14.504  11.003   5.867
32999SOL    HW1  830  14.508  10.986   5.961
32999SOL    HW2  831  14.433  10.945   5.836
33000SOL     OW  832   2.452   3.351   7.552
33000SOL    HW1  833   2.489   3.435   7.527
33000SOL    HW2  834   2.517   3.313   7.612
33001SOL     OW  835   4.296  13.340   8.553
33001SOL    HW1  836   4.232  13.403   8.519
33001SOL    HW2  837   4.357  13.326   8.480
33002SOL     OW  838  12.084   6.827   2.037
33002SOL    HW1  839  12.060   6.783   1.955
33002SOL    HW2  840  12.083   6.758   2.103
33003SOL     OW  841  12.463  14.238  13.438
33003SOL    HW1  842  12.544  14.284  13.415
33003SOL    HW2  843  12.443  14.269  13.526
33004SOL     OW  844  11.705   2.604   1.932
33004SOL    HW1  845  11.760   2.659   1.988
33004SOL    HW2  846  11.649   2.666   1.886
33005SOL     OW  847   9.860   2.325   5.147
33005SOL    HW1  848   9.890   2.255   5.205
33005SOL    HW2  849   9.905   2.308   5.064
33006SOL     OW  850  13.064   3.927  14.532
33006SOL    HW1  851  13.084   3.936  14.439
33006SOL    HW2  852  13.104   3.844  14.557
33007SOL     OW  853   3.927   7.801  10.386
33007SOL    HW1  854   3.943   7.891  10.357
33007SOL    HW2  855   3.875   7.761  10.316
33008SOL     OW  856   4.125   9.300   0.648
33008SOL    HW1  857   4.075   9.276   0.726
33008SOL    HW2  858   4.207   9.251   0.656
33009SOL     OW  859  11.397  11.054   5.890
33009SOL    HW1  860  11.360  11.023   5.808
33009SOL    HW2  861  11.324  11.095   5.936
33010SOL     OW  862  12.716   9.636   2.426
33010SOL    HW1  863  12.779   9.663   2.360
33010SOL    HW2  864  12.746   9.679   2.507
33011SOL     OW  865   3.773   5.226   2.029
33011SOL    HW1  866   3.689   5.269   2.043
33011SOL    HW2  867   3.753   5.132   2.035
33012SOL     OW  868  13.875   2.455   1.734
33012SOL    HW1  869  13.938   2.510   1.687
33012SOL    HW2  870  13.807   2.516   1.763
33013SOL     OW  871   7.376  10.745   1.624
33013SOL    HW1  872   7.400  10.659   1.590
33013SOL    HW2  873   7.282  10.753   1.606
33014SOL     OW  874   5.611   9.595   8.632
33014SOL    HW1  875   5.628   9.611   8.540
33014SOL    HW2  876   5.634   9.503   8.645
33015SOL     OW  877   6.978   1.538   1.470
33015SOL    HW1  878   7.043   1.527   1.539
33015SOL    HW2  879   6.900   1.569   1.515
33016SOL     OW  880   6.832   1.037  12.702
33016SOL    HW1  881   6.921   1.068  12.680
33016SOL    HW2  882   6.833   1.027  12.797
33017SOL     OW  883  10.141   9.775  14.658
33017SOL    HW1  884  10.142   9.687  14.697
33017SOL    HW2  885  10.232   9.792  14.635
33018SOL     OW  886   0.112  10.228   8.629
33018SOL    HW1  887   0.157  10.149   8.662
33018SOL    HW2  888   0.150  10.243   8.543
33019SOL     OW  889   7.571   8.275   0.865
33019SOL    HW1  890   7.600   8.196   0.912
33019SOL    HW2  891   7.649   8.306   0.819
33020SOL     OW  892   3.125  12.293   6.863
33020SOL    HW1  893   3.054  12.346   6.899
33020SOL    HW2  894   3.139  12.327   6.775
33021SOL     OW  895  12.818   9.401   8.735
33021SOL    HW1  896  12.899   9.355   8.713
33021SOL    HW2  897  12.842   9.493   8.734
33022SOL     OW  898   0.834  13.500   9.527
33022SOL    HW1  899   0.778  13.485   9.603
33022SOL    HW2  900   0.806  13.584   9.492
33023SOL     OW  901  14.295   7.607   7.134
33023SOL    HW1  902  14.204   7.607   7.103
33023SOL    HW2  903  14.345   7.644   7.062
33024SOL     OW  904   8.158   8.847   6.964
33024SOL    HW1  905   8.194   8.840   6.875
33024SOL    HW2  906   8.138   8.940   6.974
33025SOL     OW  907   1.821   0.869   8.850
33025SOL    HW1  908   1.765   0.865   8.772
33025SOL    HW2  909   1.763   0.896   8.920
33026SOL     OW  910   7.270   8.358   7.547
33026SOL    HW1  911   7.271   8.335   7.454
33026SOL    HW2  912   7.241   8.277   7.591
33027SOL     OW  913   0.221   1.966   6.742
33027SOL    HW1  914   0.305   1.932   6.710
33027SOL    HW2  915   0.243   2.016   6.820
33028SOL     OW  916   0.199  10.795   7.408
33028SOL    HW1  917   0.282  10.771   7.447
33028SOL    HW2  918   0.216  10.879   7.364
33029SOL     OW  919   5.268   4.922   0.576
33029SOL    HW1  920   5.235   4.967   0.654
33029SOL    HW2  921   5.361   4.943   0.573
33030SOL     OW  922   0.346  10.027   6.840
33030SOL    HW1  923   0.381  10.029   6.929
33030SOL    HW2  924   0.420  10.054   6.785
33031SOL     OW  925   0.784   9.752   4.183
33031SOL    HW1  926   0.871   9.734   4.145
33031SOL    HW2  927   0.745   9.817   4.124
33032SOL     OW  928   4.452  13.971   4.323
33032SOL    HW1  929   4.479  13.881   4.338
33032SOL    HW2  930   4.527  14.012   4.280
33033SOL     OW  931   1.283  14.780   4.718
33033SOL    HW1  932   1.194  14.751   4.738
33033SOL    HW2  933   1.319  14.711   4.661
33034SOL     OW  934   8.607   1.318   7.033
33034SOL    HW1  935   8.567   1.402   7.056
33034SOL    HW2  936   8.701   1.334   7.037
33035SOL     OW  937   0.986  10.331  11.916
33035SOL    HW1  938   0.929  10.403  11.889
33035SOL    HW2  939   0.953  10.255  11.867
33036SOL     OW  940   4.319   8.033  11.898
33036SOL    HW1  941   4.321   7.938  11.889
33036SOL    HW2  942   4.273   8.063  11.819
33037SOL     OW  943   5.265   1.105   8.031
33037SOL    HW1  944   5.276   1.118   7.937
33037SOL    HW2  945   5.286   1.013   8.045
33038SOL     OW  946   5.309   4.341   3.686
33038SOL    HW1  947   5.268   4.411   3.737
33038SOL    HW2  948   5.273   4.352   3.597
33039SOL     OW  949   8.159  11.103  10.573
33039SOL    HW1  950   8.085  11.058  10.612
33039SOL    HW2  951   8.126  11.138  10.490
33040SOL     OW  952  12.333   1.473  11.482
33040SOL    HW1  953  12.413   1.435  11.520
33040SOL    HW2  954  12.265   1.408  11.499
33041SOL     OW  955   9.747   5.882  13.251
33041SOL    HW1  956   9.696   5.854  13.327
33041SOL    HW2  957   9.681   5.905  13.186
33042SOL     OW  958   2.164   3.693   1.820
33042SOL    HW1  959   2.095   3.751   1.788
33042SOL    HW2  960   2.119   3.610   1.836
33043SOL     OW  961   0.475   7.672  14.469
33043SOL    HW1  962   0.482   7.661  14.374
33043SOL    HW2  963   0.443   7.761  14.481
33044SOL     OW  964   8.456  12.856  13.098
33044SOL    HW1  965   8.519  12.786  13.086
33044SOL    HW2  966   8.508  12.936  13.095
33045SOL     OW  967   8.537   8.685   6.111
33045SOL    HW1  968   8.478   8.614   6.087
33045SOL    HW2  969   8.479   8.751   6.150
33046SOL     OW  970   6.122  14.810   6.075
33046SOL    HW1  971   6.064  14.738   6.100
33046SOL    HW2  972   6.139  14.857   6.156
33047SOL     OW  973  11.159  10.856  11.722
33047SOL    HW1  974  11.132  10.941  11.690
33047SOL    HW2  975  11.226  10.827  11.660
33048SOL     OW  976  14.496   4.359   1.879
33048SOL    HW1  977  14.562   4.370   1.947
33048SOL    HW2  978  14.463   4.270   1.893
33049SOL     OW  979  13.476   1.243   3.102
33049SOL    HW1  980  13.501   1.309   3.038
33049SOL    HW2  981  13.403   1.196   3.062
33050SOL     OW  982   4.527   4.687   7.383
33050SOL    HW1  983   4.446   4.693   7.331
33050SOL    HW2  984   4.497   4.694   7.474
33051SOL     OW  985  14.209  14.209   6.993
33051SOL    HW1  986  14.131  14.261   7.009
33051SOL    HW2  987  14.187  14.121   7.025
33052SOL     OW  988   1.478   6.348   7.729
33052SOL    HW1  989   1.492   6.396   7.647
33052SOL    HW2  990   1.559   6.299   7.741
33053SOL     OW  991   1.894   4.675   2.442
33053SOL    HW1  992   1.828   4.676   2.372
33053SOL    HW2  993   1.958   4.610   2.414
33054SOL     OW  994   7.506   3.606  12.446
33054SOL    HW1  995   7.507   3.510  12.450
33054SOL    HW2  996   7.588   3.632  12.488
33055SOL     OW  997   8.125   9.997   6.110
33055SOL    HW1  998   8.082   9.931   6.164
33055SOL    HW2  999   8.138   9.955   6.025
33056SOL     OW 1000  12.113   6.290   8.172
33056SOL    HW1 1001  12.153   6.358   8.225
33056SOL    HW2 1002  12.027   6.325   8.149
33057SOL     OW 1003   9.498   5.808   7.335
33057SOL    HW1 1004   9.585   5.799   7.296
33057SOL    HW2 1005   9.501   5.757   7.415
33058SOL     OW 1006   2.665   9.792   4.197
33058SOL    HW1 1007   2.699   9.788   4.108
33058SOL    HW2 1008   2.578   9.751   4.191
33059SOL     OW 1009  13.741   1.767   9.483
33059SOL    HW1 1010  13.772   1.819   9.408
33059SOL    HW2 1011  13.781   1.681   9.470
33060SOL     OW 1012   2.097   3.400   0.751
33060SOL    HW1 1013   2.110   3.324   0.695
33060SOL    HW2 1014   2.130   3.373   0.836
33061SOL     OW 1015   4.708  12.278   9.080
33061SOL    HW1 1016   4.613  12.269   9.091
33061SOL    HW2 1017   4.725  12.247   8.991
33062SOL     OW 1018  10.389   0.255   5.526
33062SOL    HW1 1019  10.344   0.295   5.452
33062SOL    HW2 1020  10.453   0.196   5.486
33063SOL     OW 1021   1.429   6.559  11.975
33063SOL    HW1 1022   1.450   6.649  11.947
33063SOL    HW2 1023   1.482   6.503  11.918
33064SOL     OW 1024   1.175   4.144   3.005
33064SOL    HW1 1025   1.163   4.115   2.914
33064SOL    HW2 1026   1.253   4.200   3.002
33065SOL     OW 1027  11.260   6.602   0.818
33065SOL    HW1 1028  11.297   6.631   0.735
33065SOL    HW2 1029  11.325   6.627   0.883
33066SOL     OW 1030   6.777  11.192   8.025
33066SOL    HW1 1031   6.722  11.123   7.989
33066SOL    HW2 1032   6.866  11.157   8.019
33067SOL     OW 1033  11.246  13.954  14.873
33067SOL    HW1 1034  11.320  13.937   0.058
33067SOL    HW2 1035  11.174  13.902   0.037
33068SOL     OW 1036   9.388   5.844   5.324
33068SOL    HW1 1037   9.359   5.754   5.312
33068SOL    HW2 1038   9.308   5.894   5.339
33069SOL     OW 1039   8.169  14.706  12.825
33069SOL    HW1 1040   8.156  14.611  12.818
33069SOL    HW2 1041   8.160  14.723  12.919
33070SOL     OW 1042   9.794   1.835   9.520
33070SOL    HW1 1043   9.835   1.914   9.486
33070SOL    HW2 1044   9.746   1.863   9.598
33071SOL     OW 1045   4.202   3.179   9.374
33071SOL    HW1 1046   4.118   3.138   9.392
33071SOL    HW2 1047   4.216   3.239   9.448
33072SOL     OW 1048  11.780   2.879   5.967
33072SOL    HW1 1049  11.850   2.830   6.010
33072SOL    HW2 1050  11.734   2.815   5.913
33073SOL     OW 1051   0.270   5.309   5.905
33073SOL    HW1 1052   0.293   5.287   5.995
33073SOL    HW2 1053   0.287   5.228   5.856
33074SOL     OW 1054  13.664  11.049   8.457
33074SOL    HW1 1055  13.619  11.127   8.425
33074SOL    HW2 1056  13.735  11.035   8.394
33075SOL     OW 1057  11.316   2.660  13.838
33075SOL    HW1 1058  11.281   2.719  13.905
33075SOL    HW2 1059  11.242   2.602  13.817
33076SOL     OW 1060   0.848   1.866  10.017
33076SOL    HW1 1061   0.889   1.780  10.024
33076SOL    HW2 1062   0.757   1.852  10.044
33077SOL     OW 1063   2.312   6.632  13.012
33077SOL    HW1 1064   2.323   6.618  13.106
33077SOL    HW2 1065   2.400   6.647  12.979
33078SOL     OW 1066   9.103   3.715  14.311
33078SOL    HW1 1067   9.046   3.789  14.333
33078SOL    HW2 1068   9.059   3.639  14.348
33079SOL     OW 1069   0.889  14.247   7.189
33079SOL    HW1 1070   0.817  14.185   7.182
33079SOL    HW2 1071   0.914  14.244   7.282
33080SOL     OW 1072   0.731   5.003   2.581
33080SOL    HW1 1073   0.649   4.972   2.542
33080SOL    HW2 1074   0.798   4.944   2.546
33081SOL     OW 1075   0.158   8.897   3.030
33081SOL    HW1 1076   0.097   8.828   3.002
33081SOL    HW2 1077   0.157   8.893   3.125
33082SOL     OW 1078  10.660   5.061  12.698
33082SOL    HW1 1079  10.712   5.141  12.705
33082SOL    HW2 1080  10.569   5.091  12.694
33083SOL     OW 1081   3.821  13.568   3.726
33083SOL    HW1 1082   3.840  13.500   3.790
33083SOL    HW2 1083   3.760  13.628   3.770
33084SOL     OW 1084  10.538  11.404  14.173
33084SOL    HW1 1085  10.485  11.472  14.216
33084SOL    HW2 1086  10.599  11.453  14.119
33085SOL     OW 1087   8.804  14.478   1.236
33085SOL    HW1 1088   8.873  14.510   1.295
33085SOL    HW2 1089   8.722  14.496   1.283
33086SOL     OW 1090   2.418   0.244   1.736
33086SOL    HW1 1091   2.326   0.221   1.736
33086SOL    HW2 1092   2.452   0.209   1.654
33087SOL     OW 1093   9.231   5.044   3.464
33087SOL    HW1 1094   9.252   5.056   3.556
33087SOL    HW2 1095   9.158   4.981   3.465
33088SOL     OW 1096   2.871   4.222   8.153
33088SOL    HW1 1097   2.910   4.204   8.238
33088SOL    HW2 1098   2.791   4.271   8.172
33089SOL     OW 1099  14.587   2.145  11.414
33089SOL    HW1 1100  14.614   2.180  11.499
33089SOL    HW2 1101  14.497   2.118  11.427
33090SOL     OW 1102   8.192   9.028   5.556
33090SOL    HW1 1103   8.193   9.057   5.647
33090SOL    HW2 1104   8.153   9.101   5.507
33091SOL     OW 1105   9.598  14.387   7.709
33091SOL    HW1 1106   9.570  14.420   7.624
33091SOL    HW2 1107   9.521  14.396   7.765
33092SOL     OW 1108  13.627  12.286  11.876
33092SOL    HW1 1109  13.640  12.290  11.781
33092SOL    HW2 1110  13.650  12.196  11.900
33093SOL     OW 1111   9.917   7.625   3.217
33093SOL    HW1 1112   9.874   7.705   3.247
33093SOL    HW2 1113  10.000   7.623   3.264
33094SOL     OW 1114   4.681  14.634   9.487
33094SOL    HW1 1115   4.713  14.719   9.455
33094SOL    HW2 1116   4.758  14.592   9.526
33095SOL     OW 1117   6.752   7.799  11.328
33095SOL    HW1 1118   6.725   7.865  11.392
33095SOL    HW2 1119   6.832   7.762  11.364
33096SOL     OW 1120   9.476   2.655   5.097
33096SOL    HW1 1121   9.464   2.630   5.006
33096SOL    HW2 1122   9.434   2.740   5.105
33097SOL     OW 1123  12.226   7.478  12.888
33097SOL    HW1 1124  12.176   7.404  12.855
33097SOL    HW2 1125  12.239   7.535  12.812
33098SOL     OW 1126   8.035   4.667   4.254
33098SOL    HW1 1127   7.959   4.610   4.264
33098SOL    HW2 1128   8.050   4.704   4.341
33099SOL     OW 1129   1.617   7.155  13.875
33099SOL    HW1 1130   1.702   7.198  13.889
33099SOL    HW2 1131   1.563   7.223  13.834
33100SOL     OW 1132   0.081   0.107   1.549
33100SOL    HW1 1133   0.143   0.125   1.620
33100SOL    HW2 1134   0.023   0.183   1.549
33101SOL     OW 1135  14.332   2.047  11.432
33101SOL    HW1 1136  14.280   1.967  11.418
33101SOL    HW2 1137  14.303   2.107  11.364
33102SOL     OW 1138   4.507  11.432  11.989
33102SOL    HW1 1139   4.506  11.465  11.899
33102SOL    HW2 1140   4.539  11.506  12.042
33103SOL     OW 1141   2.181   5.750  11.840
33103SOL    HW1 1142   2.230   5.748  11.758
33103SOL    HW2 1143   2.128   5.830  11.833
33104SOL     OW 1144   1.768   2.795   9.816
33104SOL    HW1 1145   1.766   2.722   9.878
33104SOL    HW2 1146   1.843   2.776   9.760
33105SOL     OW 1147   6.444   8.004   4.897
33105SOL    HW1 1148   6.430   7.936   4.830
33105SOL    HW2 1149   6.411   7.964   4.978
33106SOL     OW 1150  11.809   7.692   4.777
33106SOL    HW1 1151  11.895   7.734   4.787
33106SOL    HW2 1152  11.753   7.761   4.742
33107SOL     OW 1153  12.083  10.826   8.037
33107SOL    HW1 1154  12.149  10.894   8.026
33107SOL    HW2 1155  11.999  10.874   8.036
33108SOL     OW 1156   3.049  10.613   9.982
33108SOL    HW1 1157   3.103  10.581  10.054
33108SOL    HW2 1158   2.985  10.544   9.967
33109SOL     OW 1159  11.637   3.320  14.040
33109SOL    HW1 1160  11.701   3.250  14.051
33109SOL    HW2 1161  11.669   3.392  14.094
33110SOL     OW 1162   9.533   9.355   2.923
33110SOL    HW1 1163   9.471   9.358   2.850
33110SOL    HW2 1164   9.511   9.431   2.977
33111SOL     OW 1165  12.857   8.427   2.310
33111SOL    HW1 1166  12.837   8.505   2.363
33111SOL    HW2 1167  12.834   8.454   2.220
33112SOL     OW 1168  10.235   5.977  14.460
33112SOL    HW1 1169  10.188   6.060  14.459
33112SOL    HW2 1170  10.324   5.999  14.433
33113SOL     OW 1171   4.105   7.831  13.622
33113SOL    HW1 1172   4.046   7.840  13.697
33113SOL    HW2 1173   4.066   7.886  13.554
33114SOL     OW 1174   2.310   1.774  14.095
33114SOL    HW1 1175   2.306   1.863  14.130
33114SOL    HW2 1176   2.304   1.718  14.172
33115SOL     OW 1177  12.454   5.865   2.309
33115SOL    HW1 1178  12.474   5.806   2.236
33115SOL    HW2 1179  12.462   5.810   2.387
33116SOL     OW 1180  10.960  10.269   2.086
33116SOL    HW1 1181  10.934  10.178   2.100
33116SOL    HW2 1182  10.967  10.278   1.991
33117SOL     OW 1183  12.452  11.637   5.891
33117SOL    HW1 1184  12.377  11.591   5.854
33117SOL    HW2 1185  12.431  11.647   5.984
33118SOL     OW 1186   9.823   3.807   7.969
33118SOL    HW1 1187   9.766   3.848   8.035
33118SOL    HW2 1188   9.873   3.741   8.018
33119SOL     OW 1189   8.114   2.460   7.668
33119SOL    HW1 1190   8.045   2.449   7.734
33119SOL    HW2 1191   8.067   2.465   7.585
33120SOL     OW 1192   8.966  13.665   5.011
33120SOL    HW1 1193   8.956  13.760   5.016
33120SOL    HW2 1194   8.884  13.635   4.973
33121SOL     OW 1195   7.406   1.659   9.118
33121SOL    HW1 1196   7.450   1.609   9.049
33121SOL    HW2 1197   7.473   1.719   9.151
33122SOL     OW 1198  14.265   6.465   7.426
33122SOL    HW1 1199  14.228   6.451   7.339
33122SOL    HW2 1200  14.209   6.531   7.466
33123SOL     OW 1201   3.316  14.749   3.663
33123SOL    HW1 1202   3.354  14.836   3.671
33123SOL    HW2 1203   3.231  14.763   3.622
33124SOL     OW 1204   6.055   5.660   9.611
33124SOL    HW1 1205   6.079   5.597   9.678
33124SOL    HW2 1206   5.962   5.678   9.627
33125SOL     OW 1207  13.452  12.001  10.243
33125SOL    HW1 1208  13.530  12.018  10.297
33125SOL    HW2 1209  13.485  11.950  10.169
33126SOL     OW 1210   3.254  14.471  14.241
33126SOL    HW1 1211   3.285  14.543  14.295
33126SOL    HW2 1212   3.255  14.505  14.151
33127SOL     OW 1213  10.771   7.935  10.491
33127SOL    HW1 1214  10.682   7.900  10.504
33127SOL    HW2 1215  10.780   8.002  10.559
33128SOL     OW 1216   7.754   8.829   3.616
33128SOL    HW1 1217   7.741   8.829   3.711
33128SOL    HW2 1218   7.674   8.867   3.581
33129SOL     OW 1219   4.304   4.889   9.395
33129SOL    HW1 1220   4.353   4.806   9.396
33129SOL    HW2 1221   4.330   4.933   9.476
33130SOL     OW 1222   0.660  10.368  11.966
33130SOL    HW1 1223   0.692  10.282  11.995
33130SOL    HW2 1224   0.628  10.353  11.877
33131SOL     OW 1225  13.018   0.692   4.670
33131SOL    HW1 1226  13.113   0.675   4.674
33131SOL    HW2 1227  12.985   0.626   4.609
33132SOL     OW 1228  12.720  12.834   1.725
33132SOL    HW1 1229  12.755  12.871   1.806
33132SOL    HW2 1230  12.724  12.740   1.738
33133SOL     OW 1231   9.519  10.169   7.563
33133SOL    HW1 1232   9.522  10.254   7.607
33133SOL    HW2 1233   9.481  10.110   7.627
33134SOL     OW 1234   7.311   8.777   4.017
33134SOL    HW1 1235   7.238   8.838   4.030
33134SOL    HW2 1236   7.284   8.724   3.942
33135SOL     OW 1237   5.038   6.185  11.226
33135SOL    HW1 1238   4.977   6.256  11.247
33135SOL    HW2 1239   5.118   6.208  11.273
33136SOL     OW 1240   9.296  11.049   3.482
33136SOL    HW1 1241   9.339  11.130   3.510
33136SOL    HW2 1242   9.302  10.991   3.558
33137SOL     OW 1243   1.604  14.854   2.382
33137SOL    HW1 1244   1.538   0.032   2.333
33137SOL    HW2 1245   1.686  14.871   2.336
33138SOL     OW 1246  12.157   5.621  12.793
33138SOL    HW1 1247  12.125   5.568  12.720
33138SOL    HW2 1248  12.079   5.666  12.826
33139SOL     OW 1249  11.331   2.372   8.743
33139SOL    HW1 1250  11.291   2.360   8.829
33139SOL    HW2 1251  11.279   2.440   8.701
33140SOL     OW 1252   9.262  14.785  13.155
33140SOL    HW1 1253   9.335  14.767  13.096
33140SOL    HW2 1254   9.185  14.793  13.098
33141SOL     OW 1255   7.790  10.317  11.796
33141SOL    HW1 1256   7.790  10.225  11.822
33141SOL    HW2 1257   7.809  10.316  11.702
33142SOL     OW 1258   4.645   9.495   1.890
33142SOL    HW1 1259   4.695   9.569   1.925
33142SOL    HW2 1260   4.710   9.443   1.842
33143SOL     OW 1261   3.271  11.563   2.131
33143SOL    HW1 1262   3.223  11.579   2.212
33143SOL    HW2 1263   3.333  11.635   2.125
33144SOL     OW 1264   6.597   5.558   0.827
33144SOL    HW1 1265   6.619   5.526   0.915
33144SOL    HW2 1266   6.518   5.609   0.839
33145SOL     OW 1267  12.699  10.248   9.955
33145SOL    HW1 1268  12.770  10.313   9.958
33145SOL    HW2 1269  12.633  10.288   9.899
33146SOL     OW 1270  12.485   3.214   7.038
33146SOL    HW1 1271  12.477   3.119   7.036
33146SOL    HW2 1272  12.564   3.232   6.986
33147SOL     OW 1273   4.959   7.943  10.848
33147SOL    HW1 1274   4.921   7.979  10.928
33147SOL    HW2 1275   4.941   8.010  10.782
33148SOL     OW 1276   1.479   2.845   2.129
33148SOL    HW1 1277   1.407   2.826   2.190
33148SOL    HW2 1278   1.556   2.804   2.169
33149SOL     OW 1279   0.976   0.012   5.562
33149SOL    HW1 1280   0.884   0.039   5.572
33149SOL    HW2 1281   1.023   0.062   5.629
33150SOL     OW 1282   3.105  10.805  12.000
33150SOL    HW1 1283   3.054  10.742  12.051
33150SOL    HW2 1284   3.140  10.755  11.926
33151SOL     OW 1285   7.764   9.555   1.727
33151SOL    HW1 1286   7.688   9.525   1.777
33151SOL    HW2 1287   7.748   9.648   1.712
33152SOL     OW 1288  10.100   2.812  13.566
33152SOL    HW1 1289  10.034   2.881  13.579
33152SOL    HW2 1290  10.135   2.830  13.479
33153SOL     OW 1291   3.169   2.915  14.588
33153SOL    HW1 1292   3.156   2.891  14.496
33153SOL    HW2 1293   3.186   2.832  14.632
33154SOL     OW 1294   6.846   0.927   8.931
33154SOL    HW1 1295   6.779   0.995   8.933
33154SOL    HW2 1296   6.832   0.882   8.847
33155SOL     OW 1297   8.794  12.870   0.402
33155SOL    HW1 1298   8.780  12.867   0.496
33155SOL    HW2 1299   8.726  12.813   0.366
33156SOL     OW 1300   9.759   6.363   0.117
33156SOL    HW1 1301   9.715   6.391   0.198
33156SOL    HW2 1302   9.852   6.359   0.141
33157SOL     OW 1303   5.992   3.115   3.553
33157SOL    HW1 1304   5.950   3.033   3.528
33157SOL    HW2 1305   5.924   3.164   3.599
33158SOL     OW 1306  11.258   2.174   5.591
33158SOL    HW1 1307  11.331   2.221   5.549
33158SOL    HW2 1308  11.255   2.210   5.680
33159SOL     OW 1309   2.992   5.775   3.033
33159SOL    HW1 1310   3.014   5.855   2.984
33159SOL    HW2 1311   3.062   5.714   3.011
33160SOL     OW 1312  13.702  13.208  10.931
33160SOL    HW1 1313  13.759  13.144  10.890
33160SOL    HW2 1314  13.638  13.156  10.979
33161SOL     OW 1315   3.726   1.295   2.510
33161SOL    HW1 1316   3.738   1.320   2.602
33161SOL    HW2 1317   3.650   1.238   2.511
33162SOL     OW 1318  13.424   9.329  14.003
33162SOL    HW1 1319  13.446   9.243  14.039
33162SOL    HW2 1320  13.437   9.320  13.908
33163SOL     OW 1321   5.815   2.155  10.651
33163SOL    HW1 1322   5.787   2.214  10.720
33163SOL    HW2 1323   5.904   2.129  10.677
33164SOL     OW 1324  13.913  11.685   6.090
33164SOL    HW1 1325  13.868  11.736   6.157
33164SOL    HW2 1326  13.959  11.751   6.037
33165SOL     OW 1327   4.240   6.728  11.772
33165SOL    HW1 1328   4.188   6.763  11.844
33165SOL    HW2 1329   4.321   6.698  11.812
33166SOL     OW 1330   3.563   1.994  10.016
33166SOL    HW1 1331   3.622   2.067   9.999
33166SOL    HW2 1332   3.611   1.917   9.986
33167SOL     OW 1333   8.155  12.665   8.018
33167SOL    HW1 1334   8.139  12.571   8.023
33167SOL    HW2 1335   8.210  12.683   8.094
33168SOL     OW 1336   1.191  11.671   1.774
33168SOL    HW1 1337   1.202  11.750   1.723
33168SOL    HW2 1338   1.183  11.702   1.865
33169SOL     OW 1339   6.286   0.572  12.832
33169SOL    HW1 1340   6.348   0.645  12.825
33169SOL    HW2 1341   6.342   0.495  12.839
33170SOL     OW 1342  13.698   4.499  12.241
33170SOL    HW1 1343  13.684   4.432  12.173
33170SOL    HW2 1344  13.775   4.548  12.210
33171SOL     OW 1345   7.639  10.135   2.166
33171SOL    HW1 1346   7.569  10.146   2.102
33171SOL    HW2 1347   7.661  10.042   2.163
33172SOL     OW 1348   4.562  11.369   0.606
33172SOL    HW1 1349   4.621  11.342   0.676
33172SOL    HW2 1350   4.620  11.394   0.534
33173SOL     OW 1351   5.700   0.287  14.636
33173SOL    HW1 1352   5.750   0.308  14.715
33173SOL    HW2 1353   5.618   0.249  14.669
33174SOL     OW 1354  13.717  13.176   5.762
33174SOL    HW1 1355  13.645  13.232   5.788
33174SOL    HW2 1356  13.796  13.228   5.777
33175SOL     OW 1357   1.033   4.544  12.323
33175SOL    HW1 1358   1.111   4.560  12.269
33175SOL    HW2 1359   0.960   4.573  12.268
33176SOL     OW 1360  12.188   6.123  12.391
33176SOL    HW1 1361  12.279   6.136  12.418
33176SOL    HW2 1362  12.149   6.210  12.399
33177SOL     OW 1363   9.993  13.558   4.868
33177SOL    HW1 1364   9.907  13.542   4.908
33177SOL    HW2 1365   9.974  13.597   4.783
33178SOL     OW 1366   5.216   8.914   2.242
33178SOL    HW1 1367   5.214   8.884   2.151
33178SOL    HW2 1368   5.193   9.006   2.237
33179SOL     OW 1369   2.793   9.669   3.709
33179SOL    HW1 1370   2.813   9.758   3.680
33179SOL    HW2 1371   2.712   9.646   3.663
33180SOL     OW 1372   3.976   3.833  10.771
33180SOL    HW1 1373   4.024   3.873  10.844
33180SOL    HW2 1374   3.977   3.900  10.703
33181SOL     OW 1375   0.862   4.699   7.094
33181SOL    HW1 1376   0.941   4.691   7.041
33181SOL    HW2 1377   0.791   4.710   7.030
33182SOL     OW 1378   9.467   6.388   0.739
33182SOL    HW1 1379   9.459   6.483   0.737
33182SOL    HW2 1380   9.380   6.357   0.765
33183SOL     OW 1381   6.162  13.503   4.988
33183SOL    HW1 1382   6.223  13.518   4.916
33183SOL    HW2 1383   6.093  13.447   4.950
33184SOL     OW 1384  14.424   9.689   9.663
33184SOL    HW1 1385  14.338   9.690   9.705
33184SOL    HW2 1386  14.415   9.624   9.593
33185SOL     OW 1387  13.420  13.211   9.327
33185SOL    HW1 1388  13.514  13.212   9.345
33185SOL    HW2 1389  13.400  13.120   9.306
33186SOL     OW 1390   9.021   0.550   8.631
33186SOL    HW1 1391   9.016   0.456   8.613
33186SOL    HW2 1392   9.062   0.557   8.717
33187SOL     OW 1393  14.253   9.234   9.705
33187SOL    HW1 1394  14.186   9.248   9.772
33187SOL    HW2 1395  14.329   9.284   9.736
33188SOL     OW 1396  12.885   5.283  14.209
33188SOL    HW1 1397  12.965   5.275  14.158
33188SOL    HW2 1398  12.845   5.197  14.206
33189SOL     OW 1399   5.240   4.581   3.834
33189SOL    HW1 1400   5.203   4.632   3.762
33189SOL    HW2 1401   5.302   4.641   3.876
33190SOL     OW 1402  10.676  12.556   7.595
33190SOL    HW1 1403  10.651  12.648   7.600
33190SOL    HW2 1404  10.761  12.556   7.549
33191SOL     OW 1405   7.628   5.978  12.400
33191SOL    HW1 1406   7.626   5.969  12.305
33191SOL    HW2 1407   7.610   6.071  12.415
33192SOL     OW 1408  12.416   6.252  10.138
33192SOL    HW1 1409  12.439   6.250  10.045
33192SOL    HW2 1410  12.345   6.189  10.147
33193SOL     OW 1411  11.378   8.270   6.370
33193SOL    HW1 1412  11.445   8.293   6.306
33193SOL    HW2 1413  11.355   8.354   6.411
33194SOL     OW 1414  12.330  12.741  11.579
33194SOL    HW1 1415  12.371  12.677  11.636
33194SOL    HW2 1416  12.265  12.691  11.529
33195SOL     OW 1417  11.970   0.980   7.354
33195SOL    HW1 1418  11.886   0.943   7.325
33195SOL    HW2 1419  11.975   1.065   7.310
33196SOL     OW 1420   1.337   7.362  10.517
33196SOL    HW1 1421   1.365   7.443  10.475
33196SOL    HW2 1422   1.290   7.314  10.449
33197SOL     OW 1423   4.870   3.870   1.541
33197SOL    HW1 1424   4.947   3.845   1.490
33197SOL    HW2 1425   4.905   3.912   1.619
33198SOL     OW 1426   1.333   9.937   4.452
33198SOL    HW1 1427   1.324   9.944   4.547
33198SOL    HW2 1428   1.310   9.846   4.433
33199SOL     OW 1429  14.453   7.800   4.312
33199SOL    HW1 1430  14.503   7.845   4.379
33199SOL    HW2 1431  14.420   7.870   4.255
33200SOL     OW 1432   8.652   7.770   9.763
33200SOL    HW1 1433   8.605   7.687   9.755
33200SOL    HW2 1434   8.595   7.825   9.817
33201SOL     OW 1435  12.097  13.836   9.322
33201SOL    HW1 1436  12.026  13.855   9.384
33201SOL    HW2 1437  12.177  13.845   9.373
33202SOL     OW 1438   2.014   0.904   1.935
33202SOL    HW1 1439   2.022   0.973   2.000
33202SOL    HW2 1440   1.953   0.939   1.870
33203SOL     OW 1441   4.444   9.575   0.811
33203SOL    HW1 1442   4.521   9.531   0.776
33203SOL    HW2 1443   4.477   9.627   0.884
33204SOL     OW 1444   7.820   5.062   5.066
33204SOL    HW1 1445   7.854   5.148   5.091
33204SOL    HW2 1446   7.732   5.059   5.104
33205SOL     OW 1447  11.116  11.469   8.233
33205SOL    HW1 1448  11.138  11.540   8.173
33205SOL    HW2 1449  11.021  11.460   8.226
33206SOL     OW 1450   9.473  13.994   5.928
33206SOL    HW1 1451   9.559  13.987   5.886
33206SOL    HW2 1452   9.492  14.028   6.016
33207SOL     OW 1453   1.223   6.777  12.052
33207SOL    HW1 1454   1.140   6.734  12.033
33207SOL    HW2 1455   1.248   6.744  12.139
33208SOL     OW 1456  11.688  11.483  11.595
33208SOL    HW1 1457  11.677  11.406  11.650
33208SOL    HW2 1458  11.709  11.554  11.656
33209SOL     OW 1459   1.226   1.326   7.021
33209SOL    HW1 1460   1.238   1.403   6.965
33209SOL    HW2 1461   1.227   1.360   7.110
33210SOL     OW 1462   4.095   0.981   2.258
33210SOL    HW1 1463   4.001   1.001   2.258
33210SOL    HW2 1464   4.128   1.025   2.179
33211SOL     OW 1465   9.539  13.307  14.017
33211SOL    HW1 1466   9.607  13.241  14.003
33211SOL    HW2 1467   9.468  13.259  14.060
33212SOL     OW 1468   7.762  11.274  14.570
33212SOL    HW1 1469   7.740  11.220  14.646
33212SOL    HW2 1470   7.768  11.212  14.498
33213SOL     OW 1471   0.876   8.105  13.702
33213SOL    HW1 1472   0.901   8.133  13.614
33213SOL    HW2 1473   0.824   8.026  13.688
33214SOL     OW 1474   8.529  10.712   2.484
33214SOL    HW1 1475   8.440  10.695   2.453
33214SOL    HW2 1476   8.543  10.647   2.553
33215SOL     OW 1477   8.104   2.011   7.959
33215SOL    HW1 1478   8.049   1.989   8.034
33215SOL    HW2 1479   8.169   2.073   7.993
33216SOL     OW 1480   4.395   1.072   2.838
33216SOL    HW1 1481   4.334   1.102   2.905
33216SOL    HW2 1482   4.480   1.107   2.865
33217SOL     OW 1483   1.814   8.883  12.593
33217SOL    HW1 1484   1.842   8.850  12.508
33217SOL    HW2 1485   1.865   8.833  12.656
33218SOL     OW 1486   3.364   8.638   4.581
33218SOL    HW1 1487   3.385   8.669   4.669
33218SOL    HW2 1488   3.362   8.718   4.527
33219SOL     OW 1489   8.312   2.529  14.325
33219SOL    HW1 1490   8.227   2.490  14.302
33219SOL    HW2 1491   8.337   2.579  14.247
33220SOL     OW 1492  14.339   4.315  12.741
33220SOL    HW1 1493  14.310   4.401  12.773
33220SOL    HW2 1494  14.372   4.271  12.819
33221SOL     OW 1495   2.273   8.990   6.337
33221SOL    HW1 1496   2.226   8.961   6.415
33221SOL    HW2 1497   2.279   8.911   6.283
33222SOL     OW 1498   3.185   6.327  14.579
33222SOL    HW1 1499   3.114   6.354  14.521
33222SOL    HW2 1500   3.240   6.270  14.526
33223SOL     OW 1501  12.563   6.933   5.414
33223SOL    HW1 1502  12.579   7.002   5.350
33223SOL    HW2 1503  12.625   6.863   5.390
33224SOL     OW 1504   4.724  14.422   2.527
33224SOL    HW1 1505   4.645  14.469   2.500
33224SOL    HW2 1506   4.763  14.477   2.595
33225SOL     OW 1507  12.593   1.496   8.920
33225SOL    HW1 1508  12.655   1.566   8.939
33225SOL    HW2 1509  12.579   1.452   9.004
33226SOL     OW 1510   9.785  11.383   1.631
33226SOL    HW1 1511   9.854  11.409   1.691
33226SOL    HW2 1512   9.785  11.450   1.563
33227SOL     OW 1513  12.069   4.227   2.332
33227SOL    HW1 1514  12.100   4.175   2.406
33227SOL    HW2 1515  12.085   4.318   2.359
33228SOL     OW 1516   2.810  14.847  12.008
33228SOL    HW1 1517   2.744  14.797  11.962
33228SOL    HW2 1518   2.893  14.805  11.985
33229SOL     OW 1519  11.491   0.369  11.365
33229SOL    HW1 1520  11.512   0.400  11.453
33229SOL    HW2 1521  11.565   0.396  11.311
33230SOL     OW 1522   8.260   6.050   1.566
33230SOL    HW1 1523   8.217   6.052   1.652
33230SOL    HW2 1524   8.189   6.065   1.504
33231SOL     OW 1525  13.212   7.707   3.314
33231SOL    HW1 1526  13.284   7.770   3.311
33231SOL    HW2 1527  13.179   7.704   3.225
33232SOL     OW 1528   7.378  12.110  11.911
33232SOL    HW1 1529   7.336  12.031  11.878
33232SOL    HW2 1530   7.403  12.158  11.832
33233SOL     OW 1531   5.425  13.594  12.754
33233SOL    HW1 1532   5.463  13.582  12.841
33233SOL    HW2 1533   5.498  13.620  12.699
33234SOL     OW 1534   0.798  10.534  12.631
33234SOL    HW1 1535   0.729  10.558  12.693
33234SOL    HW2 1536   0.876  10.577  12.664
33235SOL     OW 1537  10.659   4.779   4.550
33235SOL    HW1 1538  10.614   4.807   4.629
33235SOL    HW2 1539  10.632   4.841   4.482
33236SOL     OW 1540   6.498   8.182   5.605
33236SOL    HW1 1541   6.549   8.252   5.646
33236SOL    HW2 1542   6.408   8.215   5.606
33237SOL     OW 1543   6.848   8.596   4.675
33237SOL    HW1 1544   6.762   8.568   4.644
33237SOL    HW2 1545   6.888   8.640   4.600
33238SOL     OW 1546   8.461  14.313   7.322
33238SOL    HW1 1547   8.405  14.353   7.256
33238SOL    HW2 1548   8.411  14.320   7.404
33239SOL     OW 1549  12.381   2.770   2.486
33239SOL    HW1 1550  12.370   2.784   2.580
33239SOL    HW2 1551  12.314   2.825   2.445
33240SOL     OW 1552   4.948   9.068   4.138
33240SOL    HW1 1553   4.984   9.005   4.075
33240SOL    HW2 1554   4.884   9.017   4.189
33241SOL     OW 1555  11.622   3.333   3.157
33241SOL    HW1 1556  11.718   3.329   3.148
33241SOL    HW2 1557  11.600   3.423   3.132
33242SOL     OW 1558   1.241   1.177   2.092
33242SOL    HW1 1559   1.309   1.111   2.081
33242SOL    HW2 1560   1.203   1.159   2.178
33243SOL     OW 1561  10.453   4.858  12.670
33243SOL    HW1 1562  10.498   4.894  12.746
33243SOL    HW2 1563  10.367   4.899  12.671
33244SOL     OW 1564   7.174   5.072   6.438
33244SOL    HW1 1565   7.269   5.068   6.436
33244SOL    HW2 1566   7.145   4.990   6.397
33245SOL     OW 1567  12.715   2.052  14.512
33245SOL    HW1 1568  12.789   1.993  14.525
33245SOL    HW2 1569  12.653   2.027  14.581
33246SOL     OW 1570   2.118   4.674  10.806
33246SOL    HW1 1571   2.041   4.617  10.806
33246SOL    HW2 1572   2.087   4.757  10.770
33247SOL     OW 1573   1.942   1.652   4.668
33247SOL    HW1 1574   2.016   1.705   4.641
33247SOL    HW2 1575   1.868   1.713   4.671
33248SOL     OW 1576   7.813  13.058  14.499
33248SOL    HW1 1577   7.872  13.002  14.548
33248SOL    HW2 1578   7.862  13.083  14.421
33249SOL     OW 1579   9.087   3.184  14.487
33249SOL    HW1 1580   9.047   3.129  14.555
33249SOL    HW2 1581   9.181   3.180  14.506
33250SOL     OW 1582   2.646  14.025   2.653
33250SOL    HW1 1583   2.669  13.970   2.578
33250SOL    HW2 1584   2.551  14.017   2.661
33251SOL     OW 1585  10.499  11.342   7.716
33251SOL    HW1 1586  10.568  11.282   7.744
33251SOL    HW2 1587  10.542  11.401   7.654
33252SOL     OW 1588   9.272  13.254   1.609
33252SOL    HW1 1589   9.212  13.303   1.553
33252SOL    HW2 1590   9.358  13.290   1.588
33253SOL     OW 1591  14.013   9.913   4.749
33253SOL    HW1 1592  14.067   9.986   4.779
33253SOL    HW2 1593  14.075   9.841   4.735
33254SOL     OW 1594  13.254  14.418   4.187
33254SOL    HW1 1595  13.238  14.395   4.096
33254SOL    HW2 1596  13.327  14.362   4.214
33255SOL     OW 1597   1.976  13.692   7.883
33255SOL    HW1 1598   1.918  13.671   7.811
33255SOL    HW2 1599   1.950  13.780   7.910
33256SOL     OW 1600   9.522  13.001  12.576
33256SOL    HW1 1601   9.484  13.089  12.575
33256SOL    HW2 1602   9.581  13.002  12.651
33257SOL     OW 1603   0.162   0.528  14.131
33257SOL    HW1 1604   0.123   0.611  14.159
33257SOL    HW2 1605   0.088   0.477  14.097
33258SOL     OW 1606   1.937   9.339  12.832
33258SOL    HW1 1607   1.900   9.263  12.788
33258SOL    HW2 1608   1.864   9.399  12.843
33259SOL     OW 1609   8.711   5.473   3.308
33259SOL    HW1 1610   8.659   5.519   3.243
33259SOL    HW2 1611   8.664   5.390   3.321
33260SOL     OW 1612  12.270  10.431  13.380
33260SOL    HW1 1613  12.236  10.504  13.432
33260SOL    HW2 1614  12.294  10.365  13.445
33261SOL     OW 1615   2.936   4.105   5.696
33261SOL    HW1 1616   2.914   4.159   5.771
33261SOL    HW2 1617   3.009   4.151   5.654
33262SOL     OW 1618   8.310   3.149  13.818
33262SOL    HW1 1619   8.253   3.076  13.844
33262SOL    HW2 1620   8.322   3.139  13.724
33263SOL     OW 1621   2.178   1.103  11.389
33263SOL    HW1 1622   2.115   1.039  11.357
33263SOL    HW2 1623   2.259   1.052  11.401
33264SOL     OW 1624   8.004   5.606  13.706
33264SOL    HW1 1625   8.046   5.680  13.661
33264SOL    HW2 1626   7.931   5.582  13.649
33265SOL     OW 1627  14.418   8.643  11.253
33265SOL    HW1 1628  14.411   8.721  11.308
33265SOL    HW2 1629  14.366   8.577  11.298
33266SOL     OW 1630   2.547   1.585   5.538
33266SOL    HW1 1631   2.619   1.606   5.479
33266SOL    HW2 1632   2.551   1.490   5.550
33267SOL     OW 1633   3.896  11.654   5.346
33267SOL    HW1 1634   3.862  11.635   5.434
33267SOL    HW2 1635   3.897  11.570   5.302
33268SOL     OW 1636  10.682  14.623   2.112
33268SOL    HW1 1637  10.777  14.608   2.120
33268SOL    HW2 1638  10.675  14.704   2.062
33269SOL     OW 1639   8.152  12.753   2.316
33269SOL    HW1 1640   8.216  12.683   2.302
33269SOL    HW2 1641   8.068  12.713   2.293
33270SOL     OW 1642  11.957  10.905   3.197
33270SOL    HW1 1643  12.045  10.931   3.226
33270SOL    HW2 1644  11.898  10.958   3.249
33271SOL     OW 1645   2.066  14.207   1.671
33271SOL    HW1 1646   2.006  14.181   1.601
33271SOL    HW2 1647   2.016  14.267   1.726
33272SOL     OW 1648  11.490  12.431  13.813
33272SOL    HW1 1649  11.416  12.377  13.840
33272SOL    HW2 1650  11.466  12.520  13.840
33273SOL     OW 1651   1.776   1.214   0.953
33273SOL    HW1 1652   1.750   1.252   0.869
33273SOL    HW2 1653   1.870   1.228   0.958
33274SOL     OW 1654  13.921  13.198  14.703
33274SOL    HW1 1655  13.831  13.202  14.671
33274SOL    HW2 1656  13.915  13.230  14.793
33275SOL     OW 1657   0.012  14.406  13.692
33275SOL    HW1 1658   0.052  14.484  13.655
33275SOL    HW2 1659  14.791  14.426  13.696
33276SOL     OW 1660  11.387   8.995   2.246
33276SOL    HW1 1661  11.322   8.992   2.176
33276SOL    HW2 1662  11.447   9.065   2.221
33277SOL     OW 1663   6.070   6.188   3.261
33277SOL    HW1 1664   6.141   6.154   3.206
33277SOL    HW2 1665   6.115   6.228   3.335
33278SOL     OW 1666  10.912   5.159  14.361
33278SOL    HW1 1667  10.994   5.120  14.333
33278SOL    HW2 1668  10.891   5.222  14.292
33279SOL     OW 1669   6.418   0.215   9.030
33279SOL    HW1 1670   6.416   0.233   9.124
33279SOL    HW2 1671   6.439   0.122   9.024
33280SOL     OW 1672  10.115   3.649   6.365
33280SOL    HW1 1673  10.156   3.696   6.437
33280SOL    HW2 1674  10.025   3.635   6.394
33281SOL     OW 1675   2.193   4.393   0.684
33281SOL    HW1 1676   2.281   4.432   0.686
33281SOL    HW2 1677   2.196   4.324   0.750
33282SOL     OW 1678   8.612   8.037   1.164
33282SOL    HW1 1679   8.635   7.948   1.189
33282SOL    HW2 1680   8.517   8.042   1.175
33283SOL     OW 1681  10.437   8.210   9.905
33283SOL    HW1 1682  10.353   8.245   9.936
33283SOL    HW2 1683  10.495   8.217   9.981
33284SOL     OW 1684  10.777  10.101   3.102
33284SOL    HW1 1685  10.709  10.142   3.049
33284SOL    HW2 1686  10.780  10.010   3.071
33285SOL     OW 1687   6.306  12.453   5.033
33285SOL    HW1 1688   6.261  12.502   4.964
33285SOL    HW2 1689   6.366  12.517   5.072
33286SOL     OW 1690   8.137   5.207   9.711
33286SOL    HW1 1691   8.097   5.245   9.790
33286SOL    HW2 1692   8.223   5.178   9.740
33287SOL     OW 1693   5.992  10.370   6.038
33287SOL    HW1 1694   5.925  10.423   6.082
33287SOL    HW2 1695   6.038  10.326   6.109
33288SOL     OW 1696   8.394  13.668   9.631
33288SOL    HW1 1697   8.405  13.696   9.540
33288SOL    HW2 1698   8.402  13.748   9.682
33289SOL     OW 1699   7.633   1.708  11.573
33289SOL    HW1 1700   7.703   1.745  11.518
33289SOL    HW2 1701   7.642   1.614  11.564
33290SOL     OW 1702   5.958  14.295   1.434
33290SOL    HW1 1703   5.996  14.290   1.346
33290SOL    HW2 1704   6.015  14.241   1.488
33291SOL     OW 1705  10.262   7.285   7.058
33291SOL    HW1 1706  10.332   7.255   7.117
33291SOL    HW2 1707  10.300   7.279   6.971
33292SOL     OW 1708  14.445   2.144  14.509
33292SOL    HW1 1709  14.470   2.235  14.491
33292SOL    HW2 1710  14.428   2.143  14.603
33293SOL     OW 1711   2.478   4.204   2.206
33293SOL    HW1 1712   2.488   4.114   2.236
33293SOL    HW2 1713   2.460   4.197   2.112
33294SOL     OW 1714  11.048   7.700   8.100
33294SOL    HW1 1715  11.071   7.780   8.146
33294SOL    HW2 1716  10.973   7.725   8.045
33295SOL     OW 1717  10.537   7.396  12.639
33295SOL    HW1 1718  10.448   7.431  12.646
33295SOL    HW2 1719  10.593   7.473  12.653
33296SOL     OW 1720   8.097   8.903   3.834
33296SOL    HW1 1721   8.182   8.919   3.794
33296SOL    HW2 1722   8.041   8.975   3.803
33297SOL     OW 1723   5.470  14.861   7.288
33297SOL    HW1 1724   5.564  14.854   7.305
33297SOL    HW2 1725   5.457   0.081   7.267
33298SOL     OW 1726   1.915   7.236  13.924
33298SOL    HW1 1727   1.977   7.288  13.872
33298SOL    HW2 1728   1.967   7.162  13.956
33299SOL     OW 1729   0.082   4.375   5.329
33299SOL    HW1 1730   0.079   4.279   5.330
33299SOL    HW2 1731   0.026   4.401   5.401
33300SOL     OW 1732   7.835   3.149   9.277
33300SOL    HW1 1733   7.769   3.089   9.243
33300SOL    HW2 1734   7.899   3.158   9.207
33301SOL     OW 1735   3.604   3.415   3.829
33301SOL    HW1 1736   3.650   3.454   3.755
33301SOL    HW2 1737   3.547   3.349   3.790
33302SOL     OW 1738  13.771  10.929   1.317
33302SOL    HW1 1739  13.695  10.902   1.266
33302SOL    HW2 1740  13.770  10.871   1.394
33303SOL     OW 1741   3.769  11.990   6.852
33303SOL    HW1 1742   3.676  12.006   6.865
33303SOL    HW2 1743   3.808  12.008   6.938
33304SOL     OW 1744  10.053  11.451  12.302
33304SOL    HW1 1745  10.091  11.533  12.332
33304SOL    HW2 1746   9.987  11.476  12.237
33305SOL     OW 1747   3.245   6.919   6.014
33305SOL    HW1 1748   3.325   6.971   6.004
33305SOL    HW2 1749   3.237   6.872   5.931
33306SOL     OW 1750   5.836  13.458   7.274
33306SOL    HW1 1751   5.855  13.532   7.216
33306SOL    HW2 1752   5.798  13.392   7.217
33307SOL     OW 1753  13.732   0.866   7.651
33307SOL    HW1 1754  13.776   0.861   7.735
33307SOL    HW2 1755  13.687   0.950   7.652
33308SOL     OW 1756   1.452   1.176   2.923
33308SOL    HW1 1757   1.465   1.083   2.941
33308SOL    HW2 1758   1.467   1.219   3.008
33309SOL     OW 1759   9.536  12.955  10.750
33309SOL    HW1 1760   9.570  13.037  10.713
33309SOL    HW2 1761   9.529  12.972  10.844
33310SOL     OW 1762  12.208   5.728   9.482
33310SOL    HW1 1763  12.178   5.784   9.554
33310SOL    HW2 1764  12.303   5.725   9.492
33311SOL     OW 1765  10.087   0.322   8.682
33311SOL    HW1 1766  10.063   0.412   8.707
33311SOL    HW2 1767  10.180   0.316   8.701
33312SOL     OW 1768   3.634   9.268   4.584
33312SOL    HW1 1769   3.609   9.357   4.560
33312SOL    HW2 1770   3.585   9.212   4.523
33313SOL     OW 1771   8.157   6.259   1.293
33313SOL    HW1 1772   8.143   6.354   1.287
33313SOL    HW2 1773   8.246   6.250   1.327
33314SOL     OW 1774   1.838   2.169  10.409
33314SOL    HW1 1775   1.839   2.172  10.504
33314SOL    HW2 1776   1.770   2.231  10.383
33315SOL     OW 1777   9.719   3.480   0.571
33315SOL    HW1 1778   9.758   3.531   0.642
33315SOL    HW2 1779   9.780   3.408   0.557
33316SOL     OW 1780   9.356  10.478   1.918
33316SOL    HW1 1781   9.365  10.402   1.862
33316SOL    HW2 1782   9.284  10.457   1.977
33317SOL     OW 1783   5.996   0.453  12.639
33317SOL    HW1 1784   6.028   0.533  12.599
33317SOL    HW2 1785   6.055   0.385  12.607
33318SOL     OW 1786   1.102   9.250   6.209
33318SOL    HW1 1787   1.119   9.288   6.123
33318SOL    HW2 1788   1.163   9.296   6.267
33319SOL     OW 1789   2.670   8.252   4.142
33319SOL    HW1 1790   2.643   8.299   4.221
33319SOL    HW2 1791   2.754   8.213   4.165
33320SOL     OW 1792   2.669   7.650  13.344
33320SOL    HW1 1793   2.643   7.705  13.417
33320SOL    HW2 1794   2.594   7.592  13.329
33321SOL     OW 1795   1.677   4.974  10.541
33321SOL    HW1 1796   1.692   5.064  10.569
33321SOL    HW2 1797   1.584   4.972  10.516
33322SOL     OW 1798   9.389  14.470  14.438
33322SOL    HW1 1799   9.326  14.403  14.410
33322SOL    HW2 1800   9.380  14.473  14.533
33323SOL     OW 1801   3.512  12.362   8.091
33323SOL    HW1 1802   3.430  12.393   8.129
33323SOL    HW2 1803   3.574  12.365   8.164
33324SOL     OW 1804   6.344   8.985   2.411
33324SOL    HW1 1805   6.343   8.898   2.372
33324SOL    HW2 1806   6.274   8.983   2.477
33325SOL     OW 1807   1.935   7.413   3.608
33325SOL    HW1 1808   1.869   7.348   3.586
33325SOL    HW2 1809   2.002   7.364   3.656
33326SOL     OW 1810  14.154   3.223  10.932
33326SOL    HW1 1811  14.120   3.151  10.984
33326SOL    HW2 1812  14.164   3.186  10.844
33327SOL     OW 1813  11.894   7.889   4.470
33327SOL    HW1 1814  11.907   7.800   4.435
33327SOL    HW2 1815  11.804   7.889   4.500
33328SOL     OW 1816   4.793   3.887  10.772
33328SOL    HW1 1817   4.761   3.973  10.745
33328SOL    HW2 1818   4.768   3.829  10.700
33329SOL     OW 1819   3.867  14.016   3.833
33329SOL    HW1 1820   3.847  13.935   3.880
33329SOL    HW2 1821   3.781  14.052   3.811
33330SOL     OW 1822   8.573   1.228   2.521
33330SOL    HW1 1823   8.658   1.267   2.502
33330SOL    HW2 1824   8.527   1.293   2.573
33331SOL     OW 1825   5.880   0.478   8.607
33331SOL    HW1 1826   5.950   0.413   8.612
33331SOL    HW2 1827   5.826   0.450   8.534
33332SOL     OW 1828   3.331  11.968   0.446
33332SOL    HW1 1829   3.348  12.061   0.461
33332SOL    HW2 1830   3.410  11.924   0.477
33333SOL     OW 1831  12.439  13.430   4.666
33333SOL    HW1 1832  12.487  13.392   4.739
33333SOL    HW2 1833  12.495  13.416   4.590
33334SOL     OW 1834   7.606   3.993  10.561
33334SOL    HW1 1835   7.652   3.921  10.605
33334SOL    HW2 1836   7.677   4.047  10.525
33335SOL     OW 1837  13.163   0.007  12.903
33335SOL    HW1 1838  13.126  14.792  12.892
33335SOL    HW2 1839  13.196   0.030  12.815
33336SOL     OW 1840   5.862   2.754  12.575
33336SOL    HW1 1841   5.846   2.842  12.541
33336SOL    HW2 1842   5.942   2.726  12.531
33337SOL     OW 1843   9.950   2.592   3.158
33337SOL    HW1 1844  10.031   2.632   3.126
33337SOL    HW2 1845   9.962   2.499   3.144
33338SOL     OW 1846  14.478   0.772  10.560
33338SOL    HW1 1847  14.443   0.755  10.647
33338SOL    HW2 1848  14.430   0.848  10.528
33339SOL     OW 1849   4.025   1.355  14.525
33339SOL    HW1 1850   4.084   1.314  14.589
33339SOL    HW2 1851   4.034   1.449  14.541
33340SOL     OW 1852   0.696   1.852   2.376
33340SOL    HW1 1853   0.782   1.893   2.361
33340SOL    HW2 1854   0.669   1.819   2.291
33341SOL     OW 1855  10.156   9.834   9.286
33341SOL    HW1 1856  10.062   9.847   9.299
33341SOL    HW2 1857  10.182   9.907   9.230
33342SOL     OW 1858  14.817  10.265  13.935
33342SOL    HW1 1859  14.825  10.343  13.880
33342SOL    HW2 1860  14.851  10.194  13.881
33343SOL     OW 1861  10.342   4.549  10.495
33343SOL    HW1 1862  10.310   4.462  10.517
33343SOL    HW2 1863  10.264   4.597  10.467
33344SOL     OW 1864  12.296  10.278  11.319
33344SOL    HW1 1865  12.243  10.199  11.319
33344SOL    HW2 1866  12.344  10.274  11.402
33345SOL     OW 1867   1.703   0.232   0.498
33345SOL    HW1 1868   1.682   0.262   0.586
33345SOL    HW2 1869   1.617   0.217   0.457
33346SOL     OW 1870  12.911   0.819  13.022
33346SOL    HW1 1871  13.005   0.802  13.020
33346SOL    HW2 1872  12.904   0.911  12.997
33347SOL     OW 1873  14.655   4.269   6.840
33347SOL    HW1 1874  14.589   4.274   6.770
33347SOL    HW2 1875  14.725   4.216   6.803
33348SOL     OW 1876   3.524   9.298   2.238
33348SOL    HW1 1877   3.581   9.222   2.229
33348SOL    HW2 1878   3.474   9.281   2.317
33349SOL     OW 1879   7.757   1.055   9.745
33349SOL    HW1 1880   7.686   0.999   9.714
33349SOL    HW2 1881   7.765   1.035   9.838
33350SOL     OW 1882   3.890   5.522   9.691
33350SOL    HW1 1883   3.950   5.569   9.749
33350SOL    HW2 1884   3.922   5.432   9.691
33351SOL     OW 1885   5.023   1.682   2.274
33351SOL    HW1 1886   4.956   1.702   2.209
33351SOL    HW2 1887   5.017   1.755   2.337
33352SOL     OW 1888  11.063   5.212   0.734
33352SOL    HW1 1889  11.116   5.141   0.772
33352SOL    HW2 1890  11.103   5.292   0.767
33353SOL     OW 1891  12.077  11.525  12.232
33353SOL    HW1 1892  11.994  11.487  12.205
33353SOL    HW2 1893  12.127  11.452  12.269
33354SOL     OW 1894  14.278   3.802  12.903
33354SOL    HW1 1895  14.183   3.793  12.911
33354SOL    HW2 1896  14.308   3.813  12.993
33355SOL     OW 1897  14.294   1.745  10.515
33355SOL    HW1 1898  14.361   1.686  10.479
33355SOL    HW2 1899  14.343   1.823  10.542
33356SOL     OW 1900  14.544   5.735   8.475
33356SOL    HW1 1901  14.550   5.713   8.568
33356SOL    HW2 1902  14.547   5.831   8.473
33357SOL     OW 1903   0.786   8.102  14.653
33357SOL    HW1 1904   0.699   8.076  14.680
33357SOL    HW2 1905   0.811   8.171  14.714
33358SOL     OW 1906  14.750  14.763   2.240
33358SOL    HW1 1907  14.698  14.831   2.199
33358SOL    HW2 1908  14.774  14.704   2.168
33359SOL     OW 1909   4.089   3.709   9.359
33359SOL    HW1 1910   4.015   3.704   9.298
33359SOL    HW2 1911   4.167   3.712   9.304
33360SOL     OW 1912  14.064   7.141   8.515
33360SOL    HW1 1913  13.988   7.197   8.524
33360SOL    HW2 1914  14.062   7.085   8.592
33361SOL     OW 1915  10.819   2.628   4.026
33361SOL    HW1 1916  10.907   2.664   4.010
33361SOL    HW2 1917  10.822   2.540   3.989
33362SOL     OW 1918   9.386   1.032   4.424
33362SOL    HW1 1919   9.327   1.027   4.349
33362SOL    HW2 1920   9.329   1.055   4.497
33363SOL     OW 1921   0.495   4.021   1.508
33363SOL    HW1 1922   0.404   3.996   1.517
33363SOL    HW2 1923   0.543   3.938   1.507
33364SOL     OW 1924  11.940   0.408   9.106
33364SOL    HW1 1925  12.018   0.383   9.056
33364SOL    HW2 1926  11.929   0.336   9.169
33365SOL     OW 1927   2.831  11.378   6.077
33365SOL    HW1 1928   2.837  11.308   6.011
33365SOL    HW2 1929   2.738  11.397   6.084
33366SOL     OW 1930   9.902   1.333   3.350
33366SOL    HW1 1931   9.816   1.293   3.333
33366SOL    HW2 1932   9.954   1.308   3.273
33367SOL     OW 1933   4.679   5.165  14.489
33367SOL    HW1 1934   4.587   5.164  14.517
33367SOL    HW2 1935   4.684   5.098  14.421
33368SOL     OW 1936   6.778   7.573   5.338
33368SOL    HW1 1937   6.842   7.633   5.377
33368SOL    HW2 1938   6.830   7.501   5.303
33369SOL     OW 1939   1.800  13.696  13.398
33369SOL    HW1 1940   1.774  13.687  13.489
33369SOL    HW2 1941   1.878  13.751  13.401
33370SOL     OW 1942   2.932   6.226   9.606
33370SOL    HW1 1943   2.959   6.318   9.614
33370SOL    HW2 1944   2.856   6.229   9.548
33371SOL     OW 1945   4.550  14.192   1.569
33371SOL    HW1 1946   4.560  14.255   1.498
33371SOL    HW2 1947   4.573  14.241   1.648
33372SOL     OW 1948   1.681  11.681   9.233
33372SOL    HW1 1949   1.682  11.593   9.195
33372SOL    HW2 1950   1.621  11.730   9.178
33373SOL     OW 1951   1.276   9.571   9.443
33373SOL    HW1 1952   1.202   9.511   9.436
33373SOL    HW2 1953   1.331   9.551   9.367
33374SOL     OW 1954   3.274   9.928   7.640
33374SOL    HW1 1955   3.289   9.851   7.695
33374SOL    HW2 1956   3.336   9.993   7.672
33375SOL     OW 1957  14.287   0.647  14.308
33375SOL    HW1 1958  14.380   0.663  14.327
33375SOL    HW2 1959  14.263   0.578  14.370
33376SOL     OW 1960   5.887  12.272  14.634
33376SOL    HW1 1961   5.879  12.215  14.558
33376SOL    HW2 1962   5.808  12.255  14.686
33377SOL     OW 1963   3.050   4.202   5.962
33377SOL    HW1 1964   3.102   4.238   6.034
33377SOL    HW2 1965   3.088   4.241   5.883
33378SOL     OW 1966   2.036  11.273   3.238
33378SOL    HW1 1967   2.107  11.338   3.233
33378SOL    HW2 1968   2.082  11.189   3.243
33379SOL     OW 1969  11.292  14.181   9.343
33379SOL    HW1 1970  11.276  14.247   9.411
33379SOL    HW2 1971  11.354  14.223   9.283
33380SOL     OW 1972  11.230  12.680  12.234
33380SOL    HW1 1973  11.312  12.639  12.205
33380SOL    HW2 1974  11.183  12.610  12.279
33381SOL     OW 1975   0.770  11.095  10.524
33381SOL    HW1 1976   0.813  11.042  10.591
33381SOL    HW2 1977   0.839  11.111  10.459
33382SOL     OW 1978  12.793  10.292  13.521
33382SOL    HW1 1979  12.808  10.369  13.466
33382SOL    HW2 1980  12.804  10.218  13.463
33383SOL     OW 1981   0.135   7.180  14.601
33383SOL    HW1 1982   0.061   7.184  14.662
33383SOL    HW2 1983   0.165   7.271  14.594
33384SOL     OW 1984   3.223   6.265  11.311
33384SOL    HW1 1985   3.305   6.300  11.345
33384SOL    HW2 1986   3.184   6.338  11.262
33385SOL     OW 1987  11.385  14.619   6.327
33385SOL    HW1 1988  11.397  14.619   6.232
33385SOL    HW2 1989  11.474  14.622   6.362
33386SOL     OW 1990   8.171   5.248   0.182
33386SOL    HW1 1991   8.205   5.310   0.247
33386SOL    HW2 1992   8.230   5.173   0.187
33387SOL     OW 1993   4.890   1.182   0.620
33387SOL    HW1 1994   4.845   1.105   0.654
33387SOL    HW2 1995   4.881   1.247   0.690
33388SOL     OW 1996   3.691  13.221  10.057
33388SOL    HW1 1997   3.698  13.298  10.115
33388SOL    HW2 1998   3.744  13.243   9.981
33389SOL     OW 1999  10.711   2.736  11.693
33389SOL    HW1 2000  10.631   2.745  11.642
33389SOL    HW2 2001  10.684   2.692  11.774
33390SOL     OW 2002   3.194   1.890   5.080
33390SOL    HW1 2003   3.222   1.956   5.016
33390SOL    HW2 2004   3.099   1.901   5.085
33391SOL     OW 2005   8.592   7.218  14.576
33391SOL    HW1 2006   8.556   7.131  14.559
33391SOL    HW2 2007   8.612   7.217  14.670
33392SOL     OW 2008  14.707  13.152   5.091
33392SOL    HW1 2009  14.791  13.196   5.102
33392SOL    HW2 2010  14.643  13.212   5.128
33393SOL     OW 2011  14.139  10.398  12.112
33393SOL    HW1 2012  14.162  10.447  12.033
33393SOL    HW2 2013  14.175  10.311  12.098
33394SOL     OW 2014  14.157   6.241   5.684
33394SOL    HW1 2015  14.126   6.284   5.604
33394SOL    HW2 2016  14.116   6.154   5.681
33395SOL     OW 2017   2.447  13.255   8.918
33395SOL    HW1 2018   2.526  13.204   8.898
33395SOL    HW2 2019   2.415  13.285   8.833
33396SOL     OW 2020   4.625  12.747   4.109
33396SOL    HW1 2021   4.633  12.768   4.202
33396SOL    HW2 2022   4.651  12.828   4.065
33397SOL     OW 2023  10.061   9.834   0.691
33397SOL    HW1 2024  10.050   9.858   0.783
33397SOL    HW2 2025   9.997   9.765   0.676
33398SOL     OW 2026   4.958   8.724  12.774
33398SOL    HW1 2027   5.019   8.769  12.715
33398SOL    HW2 2028   4.971   8.767  12.859
33399SOL     OW 2029   0.075  10.093  13.738
33399SOL    HW1 2030   0.046  10.140  13.661
33399SOL    HW2 2031   0.083  10.002  13.709
33400SOL     OW 2032   1.812  14.638   3.323
33400SOL    HW1 2033   1.769  14.625   3.238
33400SOL    HW2 2034   1.845  14.727   3.319
33401SOL     OW 2035  12.200  11.476   0.690
33401SOL    HW1 2036  12.223  11.553   0.637
33401SOL    HW2 2037  12.192  11.510   0.779
33402SOL     OW 2038   2.112   9.651   2.634
33402SOL    HW1 2039   2.126   9.587   2.565
33402SOL    HW2 2040   2.035   9.700   2.606
33403SOL     OW 2041   2.377   1.957   0.169
33403SOL    HW1 2042   2.439   2.022   0.135
33403SOL    HW2 2043   2.293   2.003   0.172
33404SOL     OW 2044   3.230   4.822   1.622
33404SOL    HW1 2045   3.272   4.793   1.703
33404SOL    HW2 2046   3.141   4.844   1.648
33405SOL     OW 2047   3.478  10.124  12.461
33405SOL    HW1 2048   3.456  10.196  12.521
33405SOL    HW2 2049   3.573  10.113  12.470
33406SOL     OW 2050   2.059   8.687   9.943
33406SOL    HW1 2051   2.079   8.781   9.934
33406SOL    HW2 2052   2.036   8.676  10.035
33407SOL     OW 2053  10.846  13.306   2.611
33407SOL    HW1 2054  10.817  13.221   2.577
33407SOL    HW2 2055  10.765  13.349   2.638
33408SOL     OW 2056  10.428   8.968  13.859
33408SOL    HW1 2057  10.385   9.054  13.859
33408SOL    HW2 2058  10.472   8.964  13.944
33409SOL     OW 2059  12.410   7.214   4.970
33409SOL    HW1 2060  12.460   7.270   4.911
33409SOL    HW2 2061  12.352   7.163   4.912
33410SOL     OW 2062   2.264  13.687  11.263
33410SOL    HW1 2063   2.254  13.774  11.226
33410SOL    HW2 2064   2.205  13.631  11.212
33411SOL     OW 2065   4.388  10.894   5.385
33411SOL    HW1 2066   4.352  10.821   5.436
33411SOL    HW2 2067   4.483  10.885   5.392
33412SOL     OW 2068  14.761  12.241   5.425
33412SOL    HW1 2069  14.705  12.276   5.495
33412SOL    HW2 2070  14.762  12.147   5.441
33413SOL     OW 2071  14.145  12.506  10.585
33413SOL    HW1 2072  14.148  12.413  10.560
33413SOL    HW2 2073  14.055  12.519  10.615
33414SOL     OW 2074   3.039   2.203  11.326
33414SOL    HW1 2075   2.988   2.157  11.393
33414SOL    HW2 2076   2.974   2.243  11.269
33415SOL     OW 2077   9.627   9.196   4.746
33415SOL    HW1 2078   9.603   9.198   4.654
33415SOL    HW2 2079   9.607   9.107   4.775
33416SOL     OW 2080   3.458   0.678  13.898
33416SOL    HW1 2081   3.374   0.704  13.860
33416SOL    HW2 2082   3.483   0.599  13.849
33417SOL     OW 2083   0.556  12.608   7.443
33417SOL    HW1 2084   0.562  12.629   7.536
33417SOL    HW2 2085   0.479  12.655   7.412
33418SOL     OW 2086  14.168   7.572   1.097
33418SOL    HW1 2087  14.141   7.489   1.059
33418SOL    HW2 2088  14.122   7.639   1.045
33419SOL     OW 2089  13.334  12.701   9.362
33419SOL    HW1 2090  13.286  12.695   9.445
33419SOL    HW2 2091  13.424  12.675   9.384
33420SOL     OW 2092   7.158  10.927   7.799
33420SOL    HW1 2093   7.210  10.942   7.720
33420SOL    HW2 2094   7.190  10.843   7.832
33421SOL     OW 2095   9.177  14.711   7.018
33421SOL    HW1 2096   9.235  14.669   7.081
33421SOL    HW2 2097   9.236  14.749   6.952
33422SOL     OW 2098  14.573   1.696   9.625
33422SOL    HW1 2099  14.614   1.611   9.611
33422SOL    HW2 2100  14.613   1.729   9.705
33423SOL     OW 2101  12.293  13.663   6.014
33423SOL    HW1 2102  12.384  13.690   6.003
33423SOL    HW2 2103  12.269  13.696   6.101
33424SOL     OW 2104  14.579  10.057   5.543
33424SOL    HW1 2105  14.484  10.059   5.527
33424SOL    HW2 2106  14.598  10.141   5.583
33425SOL     OW 2107   1.020   9.127  14.183
33425SOL    HW1 2108   1.101   9.130  14.132
33425SOL    HW2 2109   0.987   9.217  14.180
33426SOL     OW 2110   8.557   7.438  10.764
33426SOL    HW1 2111   8.555   7.409  10.673
33426SOL    HW2 2112   8.529   7.362  10.814
33427SOL     OW 2113   9.863   4.724   3.983
33427SOL    HW1 2114   9.835   4.726   3.891
33427SOL    HW2 2115   9.787   4.758   4.031
33428SOL     OW 2116   5.264   1.638  13.650
33428SOL    HW1 2117   5.221   1.723  13.644
33428SOL    HW2 2118   5.195   1.577  13.678
33429SOL     OW 2119  10.616   3.914   2.960
33429SOL    HW1 2120  10.554   3.987   2.953
33429SOL    HW2 2121  10.618   3.876   2.873
33430SOL     OW 2122   0.378   3.185   5.382
33430SOL    HW1 2123   0.320   3.198   5.307
33430SOL    HW2 2124   0.440   3.258   5.378
33431SOL     OW 2125   6.271   5.171   2.958
33431SOL    HW1 2126   6.204   5.177   2.890
33431SOL    HW2 2127   6.336   5.110   2.922
33432SOL     OW 2128   3.837   2.518   2.780
33432SOL    HW1 2129   3.851   2.435   2.735
33432SOL    HW2 2130   3.893   2.513   2.858
33433SOL     OW 2131   5.536   2.960   2.854
33433SOL    HW1 2132   5.506   2.927   2.939
33433SOL    HW2 2133   5.631   2.959   2.860
33434SOL     OW 2134   1.548   4.593  10.493
33434SOL    HW1 2135   1.615   4.597  10.425
33434SOL    HW2 2136   1.478   4.651  10.461
33435SOL     OW 2137   0.606   9.020   2.660
33435SOL    HW1 2138   0.635   9.051   2.574
33435SOL    HW2 2139   0.684   8.979   2.698
33436SOL     OW 2140   8.112   3.077   1.870
33436SOL    HW1 2141   8.090   3.063   1.778
33436SOL    HW2 2142   8.207   3.065   1.875
33437SOL     OW 2143   2.733   8.051   3.538
33437SOL    HW1 2144   2.739   7.963   3.577
33437SOL    HW2 2145   2.736   8.035   3.444
33438SOL     OW 2146   4.934  13.058  10.902
33438SOL    HW1 2147   4.950  13.032  10.993
33438SOL    HW2 2148   4.839  13.050  10.890
33439SOL     OW 2149   1.932   8.521   2.188
33439SOL    HW1 2150   1.877   8.469   2.130
33439SOL    HW2 2151   1.959   8.459   2.256
33440SOL     OW 2152   4.715   1.399   5.537
33440SOL    HW1 2153   4.653   1.400   5.610
33440SOL    HW2 2154   4.673   1.344   5.471
33441SOL     OW 2155  12.484   5.142  13.967
33441SOL    HW1 2156  12.417   5.189  13.918
33441SOL    HW2 2157  12.437   5.070  14.009
33442SOL     OW 2158   7.593   6.196   9.938
33442SOL    HW1 2159   7.578   6.103   9.916
33442SOL    HW2 2160   7.555   6.206  10.025
33443SOL     OW 2161   3.129   8.080   9.271
33443SOL    HW1 2162   3.130   8.107   9.363
33443SOL    HW2 2163   3.133   7.985   9.273
33444SOL     OW 2164  11.274   9.919  14.475
33444SOL    HW1 2165  11.253  10.002  14.431
33444SOL    HW2 2166  11.329   9.946  14.549
33445SOL     OW 2167  12.648   2.732   8.134
33445SOL    HW1 2168  12.691   2.695   8.211
33445SOL    HW2 2169  12.559   2.696   8.136
33446SOL     OW 2170   6.186   4.227  12.125
33446SOL    HW1 2171   6.226   4.313  12.113
33446SOL    HW2 2172   6.166   4.197  12.037
33447SOL     OW 2173   4.059   0.330  13.071
33447SOL    HW1 2174   4.121   0.333  13.143
33447SOL    HW2 2175   3.992   0.268  13.099
33448SOL     OW 2176   3.489  13.428  13.967
33448SOL    HW1 2177   3.413  13.429  14.024
33448SOL    HW2 2178   3.564  13.441  14.026
33449SOL     OW 2179   1.291   9.560   7.765
33449SOL    HW1 2180   1.236   9.607   7.703
33449SOL    HW2 2181   1.371   9.541   7.716
33450SOL     OW 2182   5.038   0.649   9.238
33450SOL    HW1 2183   5.050   0.739   9.207
33450SOL    HW2 2184   5.120   0.605   9.215
33451SOL     OW 2185   6.925  12.832  11.972
33451SOL    HW1 2186   6.840  12.874  11.958
33451SOL    HW2 2187   6.946  12.849  12.064
33452SOL     OW 2188   8.423   1.018   8.096
33452SOL    HW1 2189   8.414   1.104   8.136
33452SOL    HW2 2190   8.439   0.958   8.169
33453SOL     OW 2191   1.901   7.161   2.849
33453SOL    HW1 2192   1.809   7.139   2.858
33453SOL    HW2 2193   1.902   7.236   2.790
33454SOL     OW 2194  12.904  10.669  12.629
33454SOL    HW1 2195  12.891  10.586  12.582
33454SOL    HW2 2196  12.969  10.716  12.577
33455SOL     OW 2197   6.775   1.004   7.140
33455SOL    HW1 2198   6.850   0.987   7.084
33455SOL    HW2 2199   6.810   1.059   7.211
33456SOL     OW 2200  12.356   1.293   0.600
33456SOL    HW1 2201  12.417   1.367   0.591
33456SOL    HW2 2202  12.351   1.278   0.694
33457SOL     OW 2203  13.687   5.246   0.852
33457SOL    HW1 2204  13.684   5.322   0.794
33457SOL    HW2 2205  13.657   5.173   0.798
33458SOL     OW 2206  14.811   9.114   3.729
33458SOL    HW1 2207  14.774   9.167   3.658
33458SOL    HW2 2208  14.847   9.178   3.790
33459SOL     OW 2209   3.797   5.133  14.660
33459SOL    HW1 2210   3.849   5.214  14.657
33459SOL    HW2 2211   3.781   5.112  14.568
33460SOL     OW 2212  11.224   6.738   1.363
33460SOL    HW1 2213  11.202   6.648   1.387
33460SOL    HW2 2214  11.160   6.792   1.411
33461SOL     OW 2215   5.655   8.618  14.786
33461SOL    HW1 2216   5.569   8.646  14.818
33461SOL    HW2 2217   5.709   8.614  14.865
33462SOL     OW 2218  14.298   7.538   0.173
33462SOL    HW1 2219  14.361   7.468   0.158
33462SOL    HW2 2220  14.251   7.547   0.091
33463SOL     OW 2221  13.630   2.770  13.443
33463SOL    HW1 2222  13.615   2.676  13.435
33463SOL    HW2 2223  13.678   2.780  13.525
33464SOL     OW 2224   2.269   2.367   0.755
33464SOL    HW1 2225   2.179   2.376   0.721
33464SOL    HW2 2226   2.292   2.456   0.784
33465SOL     OW 2227   2.383   0.516  12.360
33465SOL    HW1 2228   2.357   0.605  12.336
33465SOL    HW2 2229   2.422   0.481  12.280
33466SOL     OW 2230   1.201  14.817   8.023
33466SOL    HW1 2231   1.170  14.728   8.043
33466SOL    HW2 2232   1.295  14.814   8.043
33467SOL     OW 2233  12.901   7.282   7.973
33467SOL    HW1 2234  12.874   7.374   7.974
33467SOL    HW2 2235  12.874   7.249   8.059
33468SOL     OW 2236   1.441   7.715   3.643
33468SOL    HW1 2237   1.472   7.725   3.553
33468SOL    HW2 2238   1.497   7.775   3.694
33469SOL     OW 2239   0.136   2.690  12.271
33469SOL    HW1 2240   0.181   2.688  12.186
33469SOL    HW2 2241   0.047   2.660  12.251
33470SOL     OW 2242   3.175  13.411   5.093
33470SOL    HW1 2243   3.162  13.505   5.090
33470SOL    HW2 2244   3.170  13.383   5.001
33471SOL     OW 2245   2.279   0.373   6.807
33471SOL    HW1 2246   2.287   0.334   6.894
33471SOL    HW2 2247   2.193   0.416   6.809
33472SOL     OW 2248   5.681   3.460   4.510
33472SOL    HW1 2249   5.746   3.455   4.580
33472SOL    HW2 2250   5.640   3.545   4.522
33473SOL     OW 2251   1.740   5.506   3.180
33473SOL    HW1 2252   1.664   5.557   3.153
33473SOL    HW2 2253   1.744   5.517   3.275
33474SOL     OW 2254   3.324   1.494   4.865
33474SOL    HW1 2255   3.294   1.533   4.783
33474SOL    HW2 2256   3.302   1.401   4.856
33475SOL     OW 2257   5.432   6.085   4.946
33475SOL    HW1 2258   5.501   6.033   4.905
33475SOL    HW2 2259   5.465   6.175   4.943
33476SOL     OW 2260   3.722   5.583   7.261
33476SOL    HW1 2261   3.659   5.610   7.328
33476SOL    HW2 2262   3.678   5.601   7.178
33477SOL     OW 2263   8.536   5.184  12.418
33477SOL    HW1 2264   8.586   5.156  12.342
33477SOL    HW2 2265   8.539   5.109  12.478
33478SOL     OW 2266   5.780  12.119  12.617
33478SOL    HW1 2267   5.835  12.045  12.645
33478SOL    HW2 2268   5.708  12.078  12.569
33479SOL     OW 2269   2.337  13.981   6.583
33479SOL    HW1 2270   2.256  13.979   6.634
33479SOL    HW2 2271   2.399  14.029   6.638
33480SOL     OW 2272  13.573   5.813   2.660
33480SOL    HW1 2273  13.509   5.742   2.668
33480SOL    HW2 2274  13.548   5.876   2.727
33481SOL     OW 2275  13.194   2.950   7.991
33481SOL    HW1 2276  13.241   2.978   8.070
33481SOL    HW2 2277  13.260   2.904   7.939
33482SOL     OW 2278   5.974  11.710   2.616
33482SOL    HW1 2279   5.888  11.699   2.656
33482SOL    HW2 2280   6.035  11.716   2.689
33483SOL     OW 2281   2.282   4.538   7.324
33483SOL    HW1 2282   2.338   4.505   7.254
33483SOL    HW2 2283   2.205   4.573   7.279
33484SOL     OW 2284   1.683  11.422   1.313
33484SOL    HW1 2285   1.689  11.333   1.349
33484SOL    HW2 2286   1.591  11.431   1.288
33485SOL     OW 2287  14.604   4.848   6.286
33485SOL    HW1 2288  14.651   4.827   6.204
33485SOL    HW2 2289  14.513   4.861   6.259
33486SOL     OW 2290   6.324   8.271   8.309
33486SOL    HW1 2291   6.236   8.306   8.300
33486SOL    HW2 2292   6.377   8.347   8.335
33487SOL     OW 2293   4.325  12.795  14.069
33487SOL    HW1 2294   4.334  12.755  13.983
33487SOL    HW2 2295   4.319  12.721  14.129
33488SOL     OW 2296   0.838   2.320   2.831
33488SOL    HW1 2297   0.845   2.324   2.926
33488SOL    HW2 2298   0.814   2.229   2.813
33489SOL     OW 2299   2.983   8.844   5.407
33489SOL    HW1 2300   3.055   8.824   5.348
33489SOL    HW2 2301   2.988   8.939   5.420
33490SOL     OW 2302   2.462  11.556  12.371
33490SOL    HW1 2303   2.532  11.592  12.318
33490SOL    HW2 2304   2.461  11.462  12.350
33491SOL     OW 2305   2.283   0.658  10.351
33491SOL    HW1 2306   2.340   0.581  10.354
33491SOL    HW2 2307   2.315   0.713  10.423
33492SOL     OW 2308   8.147   6.400  11.319
33492SOL    HW1 2309   8.162   6.468  11.385
33492SOL    HW2 2310   8.226   6.347  11.321
33493SOL     OW 2311   0.170  11.606   6.208
33493SOL    HW1 2312   0.225  11.613   6.286
33493SOL    HW2 2313   0.153  11.512   6.199
33494SOL     OW 2314   1.023  12.287   3.656
33494SOL    HW1 2315   1.015  12.241   3.572
33494SOL    HW2 2316   0.958  12.245   3.712
33495SOL     OW 2317  11.104  14.032  12.813
33495SOL    HW1 2318  11.115  14.063  12.723
33495SOL    HW2 2319  11.107  13.937  12.807
33496SOL     OW 2320   8.224   2.993   2.714
33496SOL    HW1 2321   8.288   3.050   2.672
33496SOL    HW2 2322   8.139   3.028   2.687
33497SOL     OW 2323   1.258   9.076   6.968
33497SOL    HW1 2324   1.327   9.132   6.933
33497SOL    HW2 2325   1.195   9.138   7.006
33498SOL     OW 2326   7.381   5.279  12.759
33498SOL    HW1 2327   7.305   5.264  12.703
33498SOL    HW2 2328   7.446   5.321  12.701
33499SOL     OW 2329   9.347   4.937   9.024
33499SOL    HW1 2330   9.323   5.012   9.078
33499SOL    HW2 2331   9.316   4.958   8.937
33500SOL     OW 2332  10.904  12.185   3.727
33500SOL    HW1 2333  10.947  12.165   3.644
33500SOL    HW2 2334  10.811  12.183   3.707
33501SOL     OW 2335   5.801   0.589   7.307
33501SOL    HW1 2336   5.813   0.682   7.327
33501SOL    HW2 2337   5.868   0.544   7.358
33502SOL     OW 2338  14.827  10.217   6.777
33502SOL    HW1 2339  14.825  10.249   6.868
33502SOL    HW2 2340  14.779  10.135   6.780
33503SOL     OW 2341  12.555   3.399  11.715
33503SOL    HW1 2342  12.601   3.387  11.798
33503SOL    HW2 2343  12.619   3.442  11.658
33504SOL     OW 2344   6.214   8.348   2.185
33504SOL    HW1 2345   6.158   8.280   2.147
33504SOL    HW2 2346   6.163   8.428   2.178
33505SOL     OW 2347   4.838   5.134   8.490
33505SOL    HW1 2348   4.929   5.121   8.462
33505SOL    HW2 2349   4.828   5.078   8.566
33506SOL     OW 2350   1.178   9.899   9.800
33506SOL    HW1 2351   1.108   9.940   9.851
33506SOL    HW2 2352   1.200   9.820   9.849
33507SOL     OW 2353   5.950  11.021   6.062
33507SOL    HW1 2354   5.917  10.980   5.982
33507SOL    HW2 2355   5.872  11.056   6.105
33508SOL     OW 2356   5.589  13.994  10.587
33508SOL    HW1 2357   5.675  14.032  10.568
33508SOL    HW2 2358   5.593  13.906  10.550
33509SOL     OW 2359   0.387  12.339   9.044
33509SOL    HW1 2360   0.445  12.402   9.002
33509SOL    HW2 2361   0.445  12.275   9.085
33510SOL     OW 2362   2.955   4.947   5.452
33510SOL    HW1 2363   2.960   5.032   5.408
33510SOL    HW2 2364   2.867   4.945   5.490
33511SOL     OW 2365   3.862   2.167  10.158
33511SOL    HW1 2366   3.944   2.217  10.155
33511SOL    HW2 2367   3.810   2.202  10.085
33512SOL     OW 2368   8.382   0.565  11.188
33512SOL    HW1 2369   8.358   0.598  11.275
33512SOL    HW2 2370   8.346   0.477  11.185
33513SOL     OW 2371   3.833  10.913   2.561
33513SOL    HW1 2372   3.782  10.938   2.483
33513SOL    HW2 2373   3.924  10.927   2.535
33514SOL     OW 2374   3.648   1.312   7.070
33514SOL    HW1 2375   3.636   1.385   7.009
33514SOL    HW2 2376   3.710   1.254   7.025
33515SOL     OW 2377   7.503  10.870   9.082
33515SOL    HW1 2378   7.514  10.952   9.130
33515SOL    HW2 2379   7.422  10.882   9.032
33516SOL     OW 2380  14.446   4.552   6.330
33516SOL    HW1 2381  14.464   4.519   6.241
33516SOL    HW2 2382  14.355   4.581   6.326
33517SOL     OW 2383  14.232   1.344   3.297
33517SOL    HW1 2384  14.182   1.288   3.356
33517SOL    HW2 2385  14.306   1.290   3.270
33518SOL     OW 2386   7.942   6.467   5.060
33518SOL    HW1 2387   7.973   6.558   5.054
33518SOL    HW2 2388   7.957   6.443   5.151
33519SOL     OW 2389  10.286   9.632   3.976
33519SOL    HW1 2390  10.225   9.666   3.910
33519SOL    HW2 2391  10.325   9.710   4.015
33520SOL     OW 2392   4.273   3.792   3.855
33520SOL    HW1 2393   4.292   3.794   3.948
33520SOL    HW2 2394   4.348   3.834   3.813
33521SOL     OW 2395   7.928   3.794  11.310
33521SOL    HW1 2396   7.837   3.772  11.329
33521SOL    HW2 2397   7.922   3.880  11.267
33522SOL     OW 2398   4.886   8.821  12.079
33522SOL    HW1 2399   4.800   8.827  12.120
33522SOL    HW2 2400   4.869   8.781  11.994
33523SOL     OW 2401  11.814  12.302   9.263
33523SOL    HW1 2402  11.834  12.393   9.238
33523SOL    HW2 2403  11.893  12.253   9.241
33524SOL     OW 2404   2.651  10.561   1.901
33524SOL    HW1 2405   2.652  10.566   1.806
33524SOL    HW2 2406   2.740  10.537   1.925
33525SOL     OW 2407   5.051   1.894   9.918
33525SOL    HW1 2408   4.997   1.962   9.878
33525SOL    HW2 2409   5.141   1.920   9.897
33526SOL     OW 2410   7.001   2.765  11.322
33526SOL    HW1 2411   7.054   2.699  11.367
33526SOL    HW2 2412   6.912   2.730  11.325
33527SOL     OW 2413   1.691  11.164   8.629
33527SOL    HW1 2414   1.638  11.091   8.659
33527SOL    HW2 2415   1.769  11.162   8.685
33528SOL     OW 2416  10.322  14.184   2.578
33528SOL    HW1 2417  10.403  14.227   2.605
33528SOL    HW2 2418  10.253  14.240   2.612
33529SOL     OW 2419   7.582   9.424  11.545
33529SOL    HW1 2420   7.501   9.416  11.494
33529SOL    HW2 2421   7.592   9.518  11.559
33530SOL     OW 2422   4.605  10.672   6.143
33530SOL    HW1 2423   4.550  10.700   6.216
33530SOL    HW2 2424   4.624  10.580   6.162
33531SOL     OW 2425  12.103   1.749   8.735
33531SOL    HW1 2426  12.180   1.734   8.790
33531SOL    HW2 2427  12.036   1.780   8.796
33532SOL     OW 2428   2.514   4.504   8.224
33532SOL    HW1 2429   2.591   4.561   8.223
33532SOL    HW2 2430   2.459   4.536   8.152
33533SOL     OW 2431   0.112  12.036   6.698
33533SOL    HW1 2432   0.048  12.090   6.651
33533SOL    HW2 2433   0.186  12.028   6.638
33534SOL     OW 2434   5.399   6.623   4.663
33534SOL    HW1 2435   5.387   6.543   4.612
33534SOL    HW2 2436   5.493   6.642   4.655
33535SOL     OW 2437   1.758  10.843   5.260
33535SOL    HW1 2438   1.767  10.894   5.179
33535SOL    HW2 2439   1.671  10.804   5.255
33536SOL     OW 2440   1.079   0.753  13.025
33536SOL    HW1 2441   1.027   0.777  12.949
33536SOL    HW2 2442   1.116   0.836  13.056
33537SOL     OW 2443   0.434   9.440   1.496
33537SOL    HW1 2444   0.429   9.435   1.591
33537SOL    HW2 2445   0.343   9.446   1.467
33538SOL     OW 2446   8.637   4.893   2.345
33538SOL    HW1 2447   8.604   4.837   2.416
33538SOL    HW2 2448   8.597   4.979   2.362
33539SOL     OW 2449   1.769  11.626   5.676
33539SOL    HW1 2450   1.774  11.531   5.661
33539SOL    HW2 2451   1.733  11.634   5.764
33540SOL     OW 2452   1.868   1.400  10.572
33540SOL    HW1 2453   1.881   1.386  10.479
33540SOL    HW2 2454   1.881   1.494  10.585
33541SOL     OW 2455   1.570  10.454  11.443
33541SOL    HW1 2456   1.552  10.513  11.370
33541SOL    HW2 2457   1.509  10.381  11.430
33542SOL     OW 2458   4.365  11.402   7.054
33542SOL    HW1 2459   4.405  11.371   6.973
33542SOL    HW2 2460   4.427  11.466   7.089
33543SOL     OW 2461   3.052   4.071  10.290
33543SOL    HW1 2462   2.968   4.107  10.260
33543SOL    HW2 2463   3.038   3.976  10.291
33544SOL     OW 2464  10.275   7.904   7.021
33544SOL    HW1 2465  10.366   7.935   7.020
33544SOL    HW2 2466  10.225   7.978   6.986
33545SOL     OW 2467  11.185  10.145   4.378
33545SOL    HW1 2468  11.131  10.224   4.386
33545SOL    HW2 2469  11.127  10.074   4.405
33546SOL     OW 2470  10.332  11.975   8.720
33546SOL    HW1 2471  10.320  12.069   8.732
33546SOL    HW2 2472  10.424  11.959   8.743
33547SOL     OW 2473   9.737   4.135   2.414
33547SOL    HW1 2474   9.684   4.153   2.491
33547SOL    HW2 2475   9.824   4.168   2.436
33548SOL     OW 2476  11.544   4.487   9.593
33548SOL    HW1 2477  11.489   4.511   9.668
33548SOL    HW2 2478  11.490   4.425   9.544
33549SOL     OW 2479   6.631   0.546  10.926
33549SOL    HW1 2480   6.544   0.571  10.958
33549SOL    HW2 2481   6.682   0.627  10.931
33550SOL     OW 2482   4.758  14.653   5.011
33550SOL    HW1 2483   4.805  14.652   5.095
33550SOL    HW2 2484   4.670  14.681   5.034
33551SOL     OW 2485  12.110  14.293  11.661
33551SOL    HW1 2486  12.152  14.218  11.702
33551SOL    HW2 2487  12.105  14.271  11.568
33552SOL     OW 2488   8.379   2.883  13.145
33552SOL    HW1 2489   8.386   2.880  13.049
33552SOL    HW2 2490   8.465   2.912  13.175
33553SOL     OW 2491  13.824   4.482   6.897
33553SOL    HW1 2492  13.912   4.443   6.894
33553SOL    HW2 2493  13.765   4.408   6.886
33554SOL     OW 2494   9.397   3.496   0.452
33554SOL    HW1 2495   9.351   3.430   0.400
33554SOL    HW2 2496   9.444   3.548   0.388
33555SOL     OW 2497   2.747   1.906  13.252
33555SOL    HW1 2498   2.688   1.936  13.183
33555SOL    HW2 2499   2.835   1.924  13.218
33556SOL     OW 2500  12.144   9.617   1.531
33556SOL    HW1 2501  12.141   9.710   1.551
33556SOL    HW2 2502  12.065   9.601   1.479
33557SOL     OW 2503   2.153  10.158   2.681
33557SOL    HW1 2504   2.152  10.142   2.587
33557SOL    HW2 2505   2.238  10.200   2.697
33558SOL     OW 2506   7.713  11.115  11.287
33558SOL    HW1 2507   7.803  11.095  11.262
33558SOL    HW2 2508   7.672  11.030  11.302
33559SOL     OW 2509   2.202   1.782  12.668
33559SOL    HW1 2510   2.146   1.740  12.733
33559SOL    HW2 2511   2.232   1.863  12.710
33560SOL     OW 2512   5.179   5.085   2.792
33560SOL    HW1 2513   5.159   5.000   2.752
33560SOL    HW2 2514   5.272   5.099   2.775
33561SOL     OW 2515  13.170  12.323   7.946
33561SOL    HW1 2516  13.087  12.342   7.904
33561SOL    HW2 2517  13.236  12.339   7.878
33562SOL     OW 2518   2.116   3.932   8.060
33562SOL    HW1 2519   2.102   3.839   8.080
33562SOL    HW2 2520   2.211   3.942   8.062
33563SOL     OW 2521   6.867  14.180   8.109
33563SOL    HW1 2522   6.850  14.097   8.064
33563SOL    HW2 2523   6.875  14.245   8.040
33564SOL     OW 2524   0.041   1.402  11.306
33564SOL    HW1 2525   0.025   1.476  11.364
33564SOL    HW2 2526   0.096   1.438  11.236
33565SOL     OW 2527   1.913   3.136   5.271
33565SOL    HW1 2528   1.989   3.172   5.224
33565SOL    HW2 2529   1.887   3.060   5.218
33566SOL     OW 2530   7.804   2.382   9.747
33566SOL    HW1 2531   7.830   2.445   9.814
33566SOL    HW2 2532   7.882   2.328   9.733
33567SOL     OW 2533  10.232  12.006   1.771
33567SOL    HW1 2534  10.210  11.950   1.696
33567SOL    HW2 2535  10.305  11.961   1.813
33568SOL     OW 2536   9.225   6.127  14.655
33568SOL    HW1 2537   9.291   6.074  14.612
33568SOL    HW2 2538   9.157   6.140  14.589
33569SOL     OW 2539   2.569   6.165   2.658
33569SOL    HW1 2540   2.489   6.138   2.705
33569SOL    HW2 2541   2.640   6.147   2.720
33570SOL     OW 2542  10.078  11.787   7.842
33570SOL    HW1 2543   9.997  11.838   7.849
33570SOL    HW2 2544  10.070  11.721   7.911
33571SOL     OW 2545   0.828  11.315   4.250
33571SOL    HW1 2546   0.781  11.355   4.324
33571SOL    HW2 2547   0.766  11.319   4.178
33572SOL     OW 2548  13.209   9.568  12.056
33572SOL    HW1 2549  13.291   9.523  12.075
33572SOL    HW2 2550  13.141   9.511  12.092
33573SOL     OW 2551   5.411   1.754   6.961
33573SOL    HW1 2552   5.364   1.712   7.032
33573SOL    HW2 2553   5.464   1.684   6.922
33574SOL     OW 2554   9.412  14.291   1.264
33574SOL    HW1 2555   9.366  14.320   1.185
33574SOL    HW2 2556   9.362  14.328   1.336
33575SOL     OW 2557   7.401   0.409   3.853
33575SOL    HW1 2558   7.467   0.368   3.910
33575SOL    HW2 2559   7.373   0.338   3.795
33576SOL     OW 2560   3.495   7.653  14.264
33576SOL    HW1 2561   3.440   7.680  14.338
33576SOL    HW2 2562   3.564   7.599  14.303
33577SOL     OW 2563  13.381  14.482  11.201
33577SOL    HW1 2564  13.377  14.425  11.278
33577SOL    HW2 2565  13.475  14.487  11.180
33578SOL     OW 2566   0.109   3.570   2.562
33578SOL    HW1 2567   0.174   3.639   2.576
33578SOL    HW2 2568   0.032   3.599   2.612
33579SOL     OW 2569  10.406   4.659   7.452
33579SOL    HW1 2570  10.312   4.658   7.434
33579SOL    HW2 2571  10.433   4.567   7.440
33580SOL     OW 2572   0.925   9.376  14.112
33580SOL    HW1 2573   0.850   9.425  14.147
33580SOL    HW2 2574   0.939   9.412  14.025
33581SOL     OW 2575   4.845  13.379  14.092
33581SOL    HW1 2576   4.871  13.406  14.180
33581SOL    HW2 2577   4.797  13.297  14.105
33582SOL     OW 2578   9.324  14.064   3.696
33582SOL    HW1 2579   9.255  14.040   3.758
33582SOL    HW2 2580   9.384  14.118   3.746
33583SOL     OW 2581  14.354  13.902  13.120
33583SOL    HW1 2582  14.353  13.954  13.039
33583SOL    HW2 2583  14.403  13.956  13.182
33584SOL     OW 2584   5.148   5.558   9.889
33584SOL    HW1 2585   5.228   5.531   9.844
33584SOL    HW2 2586   5.166   5.647   9.919
33585SOL     OW 2587   6.928   6.921  13.637
33585SOL    HW1 2588   6.999   6.861  13.615
33585SOL    HW2 2589   6.867   6.869  13.689
33586SOL     OW 2590  10.963  11.175   3.672
33586SOL    HW1 2591  10.927  11.089   3.693
33586SOL    HW2 2592  11.009  11.163   3.589
33587SOL     OW 2593   3.427  11.572   1.065
33587SOL    HW1 2594   3.425  11.645   1.127
33587SOL    HW2 2595   3.520  11.554   1.052
33588SOL     OW 2596   5.157   7.951   2.393
33588SOL    HW1 2597   5.224   7.996   2.343
33588SOL    HW2 2598   5.079   8.006   2.385
33589SOL     OW 2599   1.443   6.689   3.316
33589SOL    HW1 2600   1.372   6.721   3.259
33589SOL    HW2 2601   1.496   6.633   3.259
33590SOL     OW 2602   3.710   0.538   2.816
33590SOL    HW1 2603   3.785   0.495   2.857
33590SOL    HW2 2604   3.634   0.501   2.862
33591SOL     OW 2605   2.763  14.071   4.048
33591SOL    HW1 2606   2.826  14.141   4.062
33591SOL    HW2 2607   2.683  14.116   4.020
33592SOL     OW 2608  13.797   9.832  14.394
33592SOL    HW1 2609  13.731   9.901  14.391
33592SOL    HW2 2610  13.752   9.754  14.360
33593SOL     OW 2611  10.860   2.917  11.550
33593SOL    HW1 2612  10.835   2.889  11.462
33593SOL    HW2 2613  10.809   2.860  11.608
33594SOL     OW 2614   9.199   8.876  12.547
33594SOL    HW1 2615   9.243   8.824  12.614
33594SOL    HW2 2616   9.269   8.924  12.503
33595SOL     OW 2617   7.401  12.454   6.964
33595SOL    HW1 2618   7.496  12.462   6.966
33595SOL    HW2 2619   7.371  12.534   6.922
33596SOL     OW 2620   5.253   4.296   1.754
33596SOL    HW1 2621   5.175   4.349   1.738
33596SOL    HW2 2622   5.321   4.338   1.702
33597SOL     OW 2623  12.771   6.011  10.458
33597SOL    HW1 2624  12.721   5.937  10.492
33597SOL    HW2 2625  12.711   6.055  10.398
33598SOL     OW 2626   1.519   9.609   1.996
33598SOL    HW1 2627   1.535   9.553   1.920
33598SOL    HW2 2628   1.475   9.552   2.059
33599SOL     OW 2629  13.696   4.340  14.494
33599SOL    HW1 2630  13.618   4.303  14.536
33599SOL    HW2 2631  13.766   4.277  14.515
33600SOL     OW 2632   7.170   3.818   4.143
33600SOL    HW1 2633   7.164   3.862   4.228
33600SOL    HW2 2634   7.247   3.762   4.150
33601SOL     OW 2635   6.539   3.553   4.169
33601SOL    HW1 2636   6.623   3.591   4.196
33601SOL    HW2 2637   6.473   3.615   4.203
33602SOL     OW 2638   3.982   9.239   5.219
33602SOL    HW1 2639   4.044   9.270   5.153
33602SOL    HW2 2640   3.911   9.303   5.217
33603SOL     OW 2641  11.332   7.341   6.567
33603SOL    HW1 2642  11.413   7.303   6.600
33603SOL    HW2 2643  11.263   7.296   6.617
33604SOL     OW 2644  11.878   0.346  13.670
33604SOL    HW1 2645  11.954   0.404  13.679
33604SOL    HW2 2646  11.905   0.282  13.604
33605SOL     OW 2647   1.971   5.518   0.240
33605SOL    HW1 2648   1.999   5.608   0.221
33605SOL    HW2 2649   1.982   5.509   0.334
33606SOL     OW 2650   2.520   0.919   2.558
33606SOL    HW1 2651   2.553   0.903   2.647
33606SOL    HW2 2652   2.548   0.843   2.508
33607SOL     OW 2653   4.176   7.555   0.068
33607SOL    HW1 2654   4.222   7.584   0.146
33607SOL    HW2 2655   4.189   7.626   0.004
33608SOL     OW 2656   6.914   0.056  13.714
33608SOL    HW1 2657   6.836   0.112  13.710
33608SOL    HW2 2658   6.957   0.080  13.796
33609SOL     OW 2659  12.220   4.943   3.952
33609SOL    HW1 2660  12.282   4.891   3.900
33609SOL    HW2 2661  12.219   4.900   4.038
33610SOL     OW 2662  12.582  13.422  11.383
33610SOL    HW1 2663  12.671  13.406  11.415
33610SOL    HW2 2664  12.592  13.490  11.316
33611SOL     OW 2665   3.239   7.889   8.925
33611SOL    HW1 2666   3.309   7.823   8.921
33611SOL    HW2 2667   3.159   7.838   8.932
33612SOL     OW 2668   0.917   1.863  14.365
33612SOL    HW1 2669   0.913   1.769  14.347
33612SOL    HW2 2670   0.995   1.893  14.318
33613SOL     OW 2671   8.784   4.518  13.888
33613SOL    HW1 2672   8.703   4.505  13.937
33613SOL    HW2 2673   8.849   4.467  13.936
33614SOL     OW 2674   3.169  13.481   1.633
33614SOL    HW1 2675   3.132  13.412   1.688
33614SOL    HW2 2676   3.174  13.557   1.691
33615SOL     OW 2677   8.718  13.075   0.815
33615SOL    HW1 2678   8.755  13.008   0.757
33615SOL    HW2 2679   8.724  13.037   0.902
33616SOL     OW 2680   5.951   2.155   5.004
33616SOL    HW1 2681   5.922   2.207   5.079
33616SOL    HW2 2682   6.046   2.164   5.004
33617SOL     OW 2683   0.437   2.424  14.822
33617SOL    HW1 2684   0.360   2.379  14.788
33617SOL    HW2 2685   0.491   2.354  14.860
33618SOL     OW 2686   2.965   4.633   6.349
33618SOL    HW1 2687   2.995   4.720   6.322
33618SOL    HW2 2688   3.034   4.601   6.408
33619SOL     OW 2689  12.603   4.958   7.048
33619SOL    HW1 2690  12.667   4.930   6.982
33619SOL    HW2 2691  12.600   4.886   7.110
33620SOL     OW 2692   4.418  14.449  14.159
33620SOL    HW1 2693   4.513  14.461  14.158
33620SOL    HW2 2694   4.393  14.452  14.067
33621SOL     OW 2695   5.198  10.044   1.640
33621SOL    HW1 2696   5.117   9.995   1.623
33621SOL    HW2 2697   5.172  10.136   1.631
33622SOL     OW 2698  12.264   6.638   9.127
33622SOL    HW1 2699  12.323   6.698   9.171
33622SOL    HW2 2700  12.181   6.686   9.121
33623SOL     OW 2701  12.939   7.303   2.447
33623SOL    HW1 2702  12.863   7.308   2.389
33623SOL    HW2 2703  12.908   7.254   2.523
33624SOL     OW 2704   8.534   5.173  12.802
33624SOL    HW1 2705   8.621   5.179  12.842
33624SOL    HW2 2706   8.482   5.124  12.866
33625SOL     OW 2707  10.508   8.827   4.506
33625SOL    HW1 2708  10.414   8.845   4.508
33625SOL    HW2 2709  10.516   8.738   4.540
33626SOL     OW 2710   8.702   6.798  11.862
33626SOL    HW1 2711   8.646   6.827  11.934
33626SOL    HW2 2712   8.716   6.704  11.879
33627SOL     OW 2713   0.601  10.451  13.729
33627SOL    HW1 2714   0.604  10.546  13.713
33627SOL    HW2 2715   0.508  10.431  13.737
33628SOL     OW 2716   5.430   0.226   6.353
33628SOL    HW1 2717   5.339   0.196   6.346
33628SOL    HW2 2718   5.465   0.179   6.428
33629SOL     OW 2719   5.469  12.682   7.342
33629SOL    HW1 2720   5.480  12.686   7.247
33629SOL    HW2 2721   5.453  12.773   7.368
33630SOL     OW 2722   1.841   3.697   5.151
33630SOL    HW1 2723   1.785   3.619   5.158
33630SOL    HW2 2724   1.816   3.751   5.226
33631SOL     OW 2725  13.139   0.197  14.348
33631SOL    HW1 2726  13.227   0.199  14.311
33631SOL    HW2 2727  13.148   0.241  14.433
33632SOL     OW 2728   6.797   8.452   9.878
33632SOL    HW1 2729   6.875   8.433   9.826
33632SOL    HW2 2730   6.738   8.498   9.817
33633SOL     OW 2731   5.094   3.688  12.006
33633SOL    HW1 2732   5.138   3.625  11.948
33633SOL    HW2 2733   5.007   3.652  12.019
33634SOL     OW 2734   8.050  12.792  11.615
33634SOL    HW1 2735   8.142  12.780  11.639
33634SOL    HW2 2736   8.030  12.717  11.559
33635SOL     OW 2737  13.573  10.723   7.849
33635SOL    HW1 2738  13.501  10.787   7.856
33635SOL    HW2 2739  13.639  10.755   7.911
33636SOL     OW 2740   8.936   8.836   0.762
33636SOL    HW1 2741   8.849   8.868   0.737
33636SOL    HW2 2742   8.921   8.784   0.842
33637SOL     OW 2743   8.467  11.573  13.764
33637SOL    HW1 2744   8.383  11.543  13.728
33637SOL    HW2 2745   8.442  11.642  13.825
33638SOL     OW 2746  11.263   6.287  10.072
33638SOL    HW1 2747  11.238   6.379  10.084
33638SOL    HW2 2748  11.187   6.238  10.104
33639SOL     OW 2749   0.927   2.067   0.087
33639SOL    HW1 2750   0.859   2.100   0.147
33639SOL    HW2 2751   0.997   2.037   0.144
33640SOL     OW 2752   5.936  14.820  11.742
33640SOL    HW1 2753   5.933  14.730  11.773
33640SOL    HW2 2754   5.845  14.848  11.738
33641SOL     OW 2755   1.707  11.628   2.291
33641SOL    HW1 2756   1.796  11.594   2.295
33641SOL    HW2 2757   1.717  11.723   2.296
33642SOL     OW 2758   8.844  13.574  13.486
33642SOL    HW1 2759   8.797  13.573  13.570
33642SOL    HW2 2760   8.936  13.581  13.511
33643SOL     OW 2761   1.708   2.203  13.306
33643SOL    HW1 2762   1.705   2.197  13.211
33643SOL    HW2 2763   1.701   2.112  13.336
33644SOL     OW 2764  12.735  14.681   1.283
33644SOL    HW1 2765  12.811  14.624   1.292
33644SOL    HW2 2766  12.693  14.680   1.369
33645SOL     OW 2767  13.057   1.053  12.940
33645SOL    HW1 2768  13.142   1.048  12.984
33645SOL    HW2 2769  13.055   1.141  12.903
33646SOL     OW 2770  14.638   9.145   4.369
33646SOL    HW1 2771  14.566   9.177   4.423
33646SOL    HW2 2772  14.598   9.075   4.316
33647SOL     OW 2773   8.133   5.257   7.108
33647SOL    HW1 2774   8.214   5.302   7.134
33647SOL    HW2 2775   8.144   5.168   7.140
33648SOL     OW 2776   9.732   7.808  12.279
33648SOL    HW1 2777   9.722   7.898  12.246
33648SOL    HW2 2778   9.649   7.789  12.322
33649SOL     OW 2779   6.209  12.533   9.538
33649SOL    HW1 2780   6.251  12.477   9.472
33649SOL    HW2 2781   6.184  12.473   9.608
33650SOL     OW 2782   6.114   3.779   8.254
33650SOL    HW1 2783   6.096   3.727   8.176
33650SOL    HW2 2784   6.044   3.757   8.315
33651SOL     OW 2785   5.810   3.931   6.270
33651SOL    HW1 2786   5.864   3.902   6.196
33651SOL    HW2 2787   5.841   3.879   6.344
33652SOL     OW 2788  14.118   8.291  10.564
33652SOL    HW1 2789  14.204   8.249  10.577
33652SOL    HW2 2790  14.056   8.230  10.605
33653SOL     OW 2791   3.539   3.828   6.876
33653SOL    HW1 2792   3.525   3.746   6.829
33653SOL    HW2 2793   3.550   3.801   6.967
33654SOL     OW 2794  13.585   5.832   8.682
33654SOL    HW1 2795  13.526   5.853   8.611
33654SOL    HW2 2796  13.623   5.916   8.708
33655SOL     OW 2797   3.011   0.592  14.421
33655SOL    HW1 2798   2.977   0.624  14.337
33655SOL    HW2 2799   3.015   0.671  14.476
33656SOL     OW 2800   2.610  10.847   8.687
33656SOL    HW1 2801   2.631  10.785   8.617
33656SOL    HW2 2802   2.547  10.908   8.648
33657SOL     OW 2803   2.189   3.216  12.432
33657SOL    HW1 2804   2.126   3.268  12.382
33657SOL    HW2 2805   2.155   3.127  12.428
33658SOL     OW 2806   3.776   3.251   1.540
33658SOL    HW1 2807   3.718   3.182   1.572
33658SOL    HW2 2808   3.721   3.329   1.538
33659SOL     OW 2809  12.421  14.266   4.502
33659SOL    HW1 2810  12.351  14.207   4.476
33659SOL    HW2 2811  12.468  14.284   4.421
33660SOL     OW 2812  13.641   1.881   7.605
33660SOL    HW1 2813  13.653   1.886   7.699
33660SOL    HW2 2814  13.710   1.937   7.569
33661SOL     OW 2815   6.311   9.974   2.335
33661SOL    HW1 2816   6.275   9.991   2.422
33661SOL    HW2 2817   6.384  10.035   2.327
33662SOL     OW 2818   4.346   3.662   9.288
33662SOL    HW1 2819   4.411   3.719   9.248
33662SOL    HW2 2820   4.339   3.587   9.228
33663SOL     OW 2821  14.021   9.638  11.672
33663SOL    HW1 2822  13.934   9.655  11.635
33663SOL    HW2 2823  14.011   9.652  11.766
33664SOL     OW 2824   1.070   1.113   2.318
33664SOL    HW1 2825   1.115   1.030   2.332
33664SOL    HW2 2826   0.979   1.089   2.306
33665SOL     OW 2827   2.644   1.618  10.737
33665SOL    HW1 2828   2.599   1.698  10.763
33665SOL    HW2 2829   2.578   1.549  10.747
33666SOL     OW 2830   0.548  11.125  12.291
33666SOL    HW1 2831   0.546  11.036  12.259
33666SOL    HW2 2832   0.624  11.128  12.350
33667SOL     OW 2833   2.603   5.680   6.504
33667SOL    HW1 2834   2.508   5.670   6.515
33667SOL    HW2 2835   2.622   5.635   6.422
33668SOL     OW 2836   9.606  11.581   4.125
33668SOL    HW1 2837   9.691  11.625   4.117
33668SOL    HW2 2838   9.554  11.617   4.054
33669SOL     OW 2839   3.652   5.380   4.547
33669SOL    HW1 2840   3.656   5.327   4.467
33669SOL    HW2 2841   3.614   5.463   4.519
33670SOL     OW 2842   3.867   9.839   9.931
33670SOL    HW1 2843   3.833   9.818  10.018
33670SOL    HW2 2844   3.788   9.856   9.878
33671SOL     OW 2845   4.268  12.411   5.651
33671SOL    HW1 2846   4.307  12.467   5.718
33671SOL    HW2 2847   4.292  12.322   5.677
33672SOL     OW 2848  13.936  12.705   7.904
33672SOL    HW1 2849  13.968  12.616   7.919
33672SOL    HW2 2850  13.926  12.712   7.809
33673SOL     OW 2851  14.507   9.251   0.828
33673SOL    HW1 2852  14.556   9.327   0.859
33673SOL    HW2 2853  14.474   9.209   0.907
33674SOL     OW 2854   6.730   0.634  12.307
33674SOL    HW1 2855   6.808   0.657  12.356
33674SOL    HW2 2856   6.713   0.709  12.250
33675SOL     OW 2857   9.729  10.569  11.224
33675SOL    HW1 2858   9.794  10.512  11.183
33675SOL    HW2 2859   9.740  10.653  11.179
33676SOL     OW 2860  11.763   6.885   8.538
33676SOL    HW1 2861  11.675   6.881   8.501
33676SOL    HW2 2862  11.821   6.864   8.465
33677SOL     OW 2863  10.147   4.693  10.384
33677SOL    HW1 2864  10.113   4.763  10.330
33677SOL    HW2 2865  10.070   4.657  10.428
33678SOL     OW 2866   5.930  13.559   6.758
33678SOL    HW1 2867   5.964  13.649   6.750
33678SOL    HW2 2868   6.004  13.504   6.732
33679SOL     OW 2869   1.839   4.878  10.339
33679SOL    HW1 2870   1.775   4.844  10.278
33679SOL    HW2 2871   1.788   4.929  10.403
33680SOL     OW 2872  12.230   4.816   4.188
33680SOL    HW1 2873  12.273   4.758   4.252
33680SOL    HW2 2874  12.246   4.904   4.221
33681SOL     OW 2875   1.207   9.707  13.014
33681SOL    HW1 2876   1.201   9.676  13.104
33681SOL    HW2 2877   1.223   9.628  12.963
33682SOL     OW 2878  11.743   4.500   0.254
33682SOL    HW1 2879  11.747   4.410   0.285
33682SOL    HW2 2880  11.783   4.551   0.325
33683SOL     OW 2881   3.270   0.284  13.952
33683SOL    HW1 2882   3.225   0.224  14.012
33683SOL    HW2 2883   3.208   0.356  13.940
33684SOL     OW 2884  12.461  14.316   0.435
33684SOL    HW1 2885  12.541  14.273   0.405
33684SOL    HW2 2886  12.443  14.382   0.367
33685SOL     OW 2887  13.832  11.882   3.687
33685SOL    HW1 2888  13.773  11.807   3.688
33685SOL    HW2 2889  13.910  11.852   3.734
33686SOL     OW 2890  14.305   9.022   6.510
33686SOL    HW1 2891  14.361   9.028   6.433
33686SOL    HW2 2892  14.237   8.959   6.485
33687SOL     OW 2893   8.829  13.356   0.427
33687SOL    HW1 2894   8.801  13.267   0.404
33687SOL    HW2 2895   8.865  13.391   0.345
33688SOL     OW 2896   0.470  11.144   3.056
33688SOL    HW1 2897   0.420  11.225   3.043
33688SOL    HW2 2898   0.479  11.107   2.969
33689SOL     OW 2899   1.939   0.894   0.306
33689SOL    HW1 2900   1.865   0.843   0.338
33689SOL    HW2 2901   1.900   0.975   0.274
33690SOL     OW 2902   2.623   0.434   8.768
33690SOL    HW1 2903   2.573   0.450   8.847
33690SOL    HW2 2904   2.646   0.521   8.736
33691SOL     OW 2905   3.244   1.614   0.902
33691SOL    HW1 2906   3.246   1.615   0.998
33691SOL    HW2 2907   3.335   1.623   0.876
33692SOL     OW 2908  13.932   4.245   2.490
33692SOL    HW1 2909  14.008   4.188   2.478
33692SOL    HW2 2910  13.916   4.282   2.403
33693SOL     OW 2911  12.568  14.041   1.235
33693SOL    HW1 2912  12.542  14.107   1.171
33693SOL    HW2 2913  12.495  13.979   1.237
33694SOL     OW 2914   1.870   8.920   5.250
33694SOL    HW1 2915   1.921   8.856   5.300
33694SOL    HW2 2916   1.816   8.867   5.191
33695SOL     OW 2917  10.208   0.719   2.622
33695SOL    HW1 2918  10.272   0.790   2.638
33695SOL    HW2 2919  10.257   0.655   2.571
33696SOL     OW 2920   0.281   7.586  10.871
33696SOL    HW1 2921   0.266   7.627  10.956
33696SOL    HW2 2922   0.194   7.577  10.833
33697SOL     OW 2923   9.634   0.290   4.987
33697SOL    HW1 2924   9.671   0.319   5.071
33697SOL    HW2 2925   9.592   0.206   5.007
33698SOL     OW 2926   7.603   4.563   0.841
33698SOL    HW1 2927   7.691   4.598   0.855
33698SOL    HW2 2928   7.549   4.606   0.908
33699SOL     OW 2929   5.618   5.852   1.986
33699SOL    HW1 2930   5.610   5.793   2.061
33699SOL    HW2 2931   5.596   5.939   2.021
33700SOL     OW 2932   3.395  13.275  11.588
33700SOL    HW1 2933   3.450  13.308  11.659
33700SOL    HW2 2934   3.315  13.328  11.593
33701SOL     OW 2935   5.131  12.516  14.649
33701SOL    HW1 2936   5.108  12.452  14.716
33701SOL    HW2 2937   5.199  12.473  14.597
33702SOL     OW 2938  14.709   0.172   9.413
33702SOL    HW1 2939  14.783   0.135   9.461
33702SOL    HW2 2940  14.711   0.266   9.434
33703SOL     OW 2941  12.514   5.417  12.549
33703SOL    HW1 2942  12.441   5.363  12.520
33703SOL    HW2 2943  12.528   5.479  12.478
33704SOL     OW 2944   8.166   7.133   3.383
33704SOL    HW1 2945   8.125   7.049   3.362
33704SOL    HW2 2946   8.226   7.113   3.454
33705SOL     OW 2947   0.505   7.693  11.558
33705SOL    HW1 2948   0.413   7.697  11.532
33705SOL    HW2 2949   0.508   7.736  11.643
33706SOL     OW 2950  11.623   8.080   3.443
33706SOL    HW1 2951  11.674   8.161   3.444
33706SOL    HW2 2952  11.661   8.028   3.372
33707SOL     OW 2953   6.386  14.590   9.068
33707SOL    HW1 2954   6.449  14.628   9.007
33707SOL    HW2 2955   6.386  14.496   9.047
33708SOL     OW 2956   8.216   6.306  12.560
33708SOL    HW1 2957   8.307   6.275  12.566
33708SOL    HW2 2958   8.164   6.225  12.559
33709SOL     OW 2959   3.626  13.028   1.865
33709SOL    HW1 2960   3.685  13.051   1.793
33709SOL    HW2 2961   3.640  13.098   1.929
33710SOL     OW 2962   1.089   7.583  10.151
33710SOL    HW1 2963   1.093   7.615  10.242
33710SOL    HW2 2964   1.178   7.596  10.118
33711SOL     OW 2965   1.398   5.078   7.978
33711SOL    HW1 2966   1.391   5.010   7.911
33711SOL    HW2 2967   1.329   5.057   8.041
33712SOL     OW 2968  14.464   5.001   1.757
33712SOL    HW1 2969  14.551   5.038   1.740
33712SOL    HW2 2970  14.481   4.920   1.805
33713SOL     OW 2971   3.031  14.563   3.089
33713SOL    HW1 2972   3.014  14.478   3.128
33713SOL    HW2 2973   3.037  14.546   2.995
33714SOL     OW 2974   5.351   4.315   0.352
33714SOL    HW1 2975   5.274   4.265   0.323
33714SOL    HW2 2976   5.389   4.261   0.421
33715SOL     OW 2977  12.178   3.482   3.909
33715SOL    HW1 2978  12.201   3.498   3.818
33715SOL    HW2 2979  12.083   3.472   3.909
33716SOL     OW 2980   0.897   7.472   8.488
33716SOL    HW1 2981   0.929   7.389   8.453
33716SOL    HW2 2982   0.935   7.478   8.575
33717SOL     OW 2983  14.821  13.509   3.243
33717SOL    HW1 2984  14.827  13.536   3.334
33717SOL    HW2 2985  14.793  13.588   3.196
33718SOL     OW 2986  12.928   6.394   1.134
33718SOL    HW1 2987  12.869   6.467   1.119
33718SOL    HW2 2988  12.990   6.426   1.199
33719SOL     OW 2989  13.190   3.696  14.634
33719SOL    HW1 2990  13.146   3.636  14.695
33719SOL    HW2 2991  13.251   3.640  14.586
33720SOL     OW 2992   4.635   9.136  14.412
33720SOL    HW1 2993   4.599   9.222  14.430
33720SOL    HW2 2994   4.648   9.134  14.317
33721SOL     OW 2995  10.981   6.423   6.827
33721SOL    HW1 2996  11.049   6.361   6.853
33721SOL    HW2 2997  10.985   6.425   6.732
33722SOL     OW 2998  11.339   8.453   8.763
33722SOL    HW1 2999  11.357   8.374   8.712
33722SOL    HW2 3000  11.315   8.518   8.697
33723SOL     OW 3001   2.926   9.049  14.705
33723SOL    HW1 3002   2.951   8.990  14.776
33723SOL    HW2 3003   2.846   9.010  14.669
33724SOL     OW 3004   6.340  10.904   8.888
33724SOL    HW1 3005   6.282  10.971   8.853
33724SOL    HW2 3006   6.421  10.951   8.910
33725SOL     OW 3007   8.666   1.518   2.669
33725SOL    HW1 3008   8.615   1.461   2.726
33725SOL    HW2 3009   8.736   1.463   2.634
33726SOL     OW 3010   0.722   1.646  11.029
33726SOL    HW1 3011   0.754   1.736  11.030
33726SOL    HW2 3012   0.658   1.643  11.100
33727SOL     OW 3013   9.453  10.583   9.480
33727SOL    HW1 3014   9.513  10.657   9.487
33727SOL    HW2 3015   9.380  10.606   9.538
33728SOL     OW 3016  12.885  13.712   1.332
33728SOL    HW1 3017  12.860  13.765   1.257
33728SOL    HW2 3018  12.980  13.703   1.324
33729SOL     OW 3019   8.237   6.548   7.132
33729SOL    HW1 3020   8.198   6.633   7.112
33729SOL    HW2 3021   8.191   6.486   7.075
33730SOL     OW 3022  10.155   2.589   7.596
33730SOL    HW1 3023  10.064   2.570   7.617
33730SOL    HW2 3024  10.164   2.564   7.504
33731SOL     OW 3025   6.968  12.712   5.864
33731SOL    HW1 3026   6.887  12.737   5.820
33731SOL    HW2 3027   6.944  12.705   5.957
33732SOL     OW 3028  13.678   0.656   4.545
33732SOL    HW1 3029  13.700   0.735   4.497
33732SOL    HW2 3030  13.652   0.687   4.632
33733SOL     OW 3031   9.615   4.070   7.920
33733SOL    HW1 3032   9.707   4.043   7.925
33733SOL    HW2 3033   9.568   4.003   7.968
33734SOL     OW 3034   8.918   1.625  13.539
33734SOL    HW1 3035   8.952   1.714  13.552
33734SOL    HW2 3036   8.992   1.576  13.504
33735SOL     OW 3037  14.363  14.090  13.945
33735SOL    HW1 3038  14.287  14.134  13.985
33735SOL    HW2 3039  14.427  14.083  14.016
33736SOL     OW 3040   8.248  12.312  13.365
33736SOL    HW1 3041   8.338  12.320  13.334
33736SOL    HW2 3042   8.199  12.377  13.315
33737SOL     OW 3043  10.888   1.544   9.014
33737SOL    HW1 3044  10.878   1.540   9.109
33737SOL    HW2 3045  10.946   1.470   8.993
33738SOL     OW 3046   6.814  10.845   5.675
33738SOL    HW1 3047   6.884  10.888   5.627
33738SOL    HW2 3048   6.831  10.865   5.767
33739SOL     OW 3049  10.618   6.299  10.186
33739SOL    HW1 3050  10.565   6.372  10.219
33739SOL    HW2 3051  10.553   6.231  10.164
33740SOL     OW 3052  10.940   9.457  14.858
33740SOL    HW1 3053  10.900   9.544  14.849
33740SOL    HW2 3054  11.034   9.475  14.867
33741SOL     OW 3055   1.514   0.994  10.707
33741SOL    HW1 3056   1.591   1.039  10.672
33741SOL    HW2 3057   1.458   1.065  10.741
33742SOL     OW 3058   1.127  11.448   3.025
33742SOL    HW1 3059   1.172  11.489   3.098
33742SOL    HW2 3060   1.071  11.517   2.989
33743SOL     OW 3061  12.697   0.268  10.990
33743SOL    HW1 3062  12.723   0.349  11.034
33743SOL    HW2 3063  12.608   0.286  10.958
33744SOL     OW 3064   9.299   0.138   9.625
33744SOL    HW1 3065   9.383   0.161   9.665
33744SOL    HW2 3066   9.235   0.186   9.678
33745SOL     OW 3067   5.084  12.258  13.720
33745SOL    HW1 3068   5.022  12.185  13.717
33745SOL    HW2 3069   5.030  12.335  13.737
33746SOL     OW 3070   4.398  14.455   5.616
33746SOL    HW1 3071   4.340  14.381   5.595
33746SOL    HW2 3072   4.340  14.530   5.617
33747SOL     OW 3073  10.577  11.414  11.908
33747SOL    HW1 3074  10.494  11.407  11.955
33747SOL    HW2 3075  10.642  11.429  11.977
33748SOL     OW 3076   0.034   1.936   2.649
33748SOL    HW1 3077   0.101   1.940   2.580
33748SOL    HW2 3078   0.083   1.939   2.731
33749SOL     OW 3079  13.657   1.865   8.309
33749SOL    HW1 3080  13.604   1.868   8.230
33749SOL    HW2 3081  13.625   1.789   8.357
33750SOL     OW 3082  10.650   3.011   2.240
33750SOL    HW1 3083  10.649   3.053   2.325
33750SOL    HW2 3084  10.564   3.029   2.202
33751SOL     OW 3085   8.055   5.922  13.873
33751SOL    HW1 3086   8.126   5.985  13.883
33751SOL    HW2 3087   8.008   5.925  13.957
33752SOL     OW 3088  13.796   1.322  13.326
33752SOL    HW1 3089  13.727   1.360  13.381
33752SOL    HW2 3090  13.805   1.384  13.253
33753SOL     OW 3091   3.404   1.012   4.214
33753SOL    HW1 3092   3.487   1.042   4.177
33753SOL    HW2 3093   3.373   0.947   4.151
33754SOL     OW 3094   8.147   4.279   2.421
33754SOL    HW1 3095   8.219   4.262   2.482
33754SOL    HW2 3096   8.191   4.315   2.343
33755SOL     OW 3097   0.044  14.074   4.387
33755SOL    HW1 3098  14.834  14.107   4.352
33755SOL    HW2 3099   0.077  14.146   4.441
33756SOL     OW 3100  12.768  14.152  11.540
33756SOL    HW1 3101  12.676  14.131  11.524
33756SOL    HW2 3102  12.800  14.184  11.456
33757SOL     OW 3103   0.464  13.306   2.489
33757SOL    HW1 3104   0.510  13.223   2.473
33757SOL    HW2 3105   0.492  13.332   2.577
33758SOL     OW 3106   4.474   6.418   2.220
33758SOL    HW1 3107   4.539   6.372   2.274
33758SOL    HW2 3108   4.525   6.456   2.148
33759SOL     OW 3109   4.077   2.387   0.562
33759SOL    HW1 3110   4.053   2.301   0.527
33759SOL    HW2 3111   4.039   2.389   0.650
33760SOL     OW 3112  10.559  10.181   0.423
33760SOL    HW1 3113  10.588  10.199   0.512
33760SOL    HW2 3114  10.531  10.266   0.388
33761SOL     OW 3115   7.683   4.414   9.757
33761SOL    HW1 3116   7.619   4.411   9.686
33761SOL    HW2 3117   7.755   4.358   9.727
33762SOL     OW 3118  13.263   6.832   1.751
33762SOL    HW1 3119  13.265   6.914   1.701
33762SOL    HW2 3120  13.170   6.819   1.770
33763SOL     OW 3121  11.409   3.146  11.240
33763SOL    HW1 3122  11.504   3.142  11.252
33763SOL    HW2 3123  11.396   3.135  11.146
33764SOL     OW 3124  11.717   3.169  12.254
33764SOL    HW1 3125  11.756   3.172  12.341
33764SOL    HW2 3126  11.731   3.079  12.224
33765SOL     OW 3127   5.131   8.015   0.243
33765SOL    HW1 3128   5.085   7.963   0.177
33765SOL    HW2 3129   5.094   8.102   0.234
33766SOL     OW 3130   0.690   6.248   3.828
33766SOL    HW1 3131   0.671   6.213   3.916
33766SOL    HW2 3132   0.606   6.247   3.783
33767SOL     OW 3133   9.899   3.277  11.250
33767SOL    HW1 3134   9.829   3.257  11.312
33767SOL    HW2 3135   9.911   3.196  11.200
33768SOL     OW 3136  13.576   7.869   6.090
33768SOL    HW1 3137  13.567   7.883   6.185
33768SOL    HW2 3138  13.490   7.836   6.063
33769SOL     OW 3139   9.121   9.495   5.938
33769SOL    HW1 3140   9.138   9.466   6.028
33769SOL    HW2 3141   9.031   9.469   5.922
33770SOL     OW 3142   6.571   7.275  13.817
33770SOL    HW1 3143   6.647   7.223  13.789
33770SOL    HW2 3144   6.535   7.311  13.736
33771SOL     OW 3145   9.222   0.406  12.470
33771SOL    HW1 3146   9.252   0.370  12.553
33771SOL    HW2 3147   9.298   0.397  12.412
33772SOL     OW 3148  11.230   7.669   5.744
33772SOL    HW1 3149  11.213   7.647   5.652
33772SOL    HW2 3150  11.252   7.762   5.742
33773SOL     OW 3151  10.826  12.221   5.294
33773SOL    HW1 3152  10.899  12.178   5.250
33773SOL    HW2 3153  10.831  12.312   5.265
33774SOL     OW 3154   7.637  11.222  13.108
33774SOL    HW1 3155   7.659  11.292  13.169
33774SOL    HW2 3156   7.568  11.259  13.052
33775SOL     OW 3157   5.400   1.349   7.144
33775SOL    HW1 3158   5.360   1.435   7.158
33775SOL    HW2 3159   5.492   1.369   7.122
33776SOL     OW 3160  14.565   4.740   7.115
33776SOL    HW1 3161  14.613   4.761   7.195
33776SOL    HW2 3162  14.599   4.654   7.089
33777SOL     OW 3163  11.862  11.689   4.879
33777SOL    HW1 3164  11.820  11.745   4.815
33777SOL    HW2 3165  11.934  11.647   4.831
33778SOL     OW 3166   8.017   8.000  13.243
33778SOL    HW1 3167   8.008   7.976  13.335
33778SOL    HW2 3168   7.952   8.069  13.230
33779SOL     OW 3169  10.337  11.739  10.130
33779SOL    HW1 3170  10.428  11.767  10.141
33779SOL    HW2 3171  10.286  11.803  10.180
33780SOL     OW 3172  10.881   2.391  10.858
33780SOL    HW1 3173  10.895   2.359  10.947
33780SOL    HW2 3174  10.964   2.375  10.813
33781SOL     OW 3175   2.089  11.604   9.501
33781SOL    HW1 3176   2.066  11.650   9.581
33781SOL    HW2 3177   2.105  11.514   9.530
33782SOL     OW 3178   9.544   0.798  10.672
33782SOL    HW1 3179   9.510   0.862  10.734
33782SOL    HW2 3180   9.483   0.725  10.676
33783SOL     OW 3181   3.900   0.420  12.812
33783SOL    HW1 3182   3.961   0.465  12.871
33783SOL    HW2 3183   3.839   0.375  12.871
33784SOL     OW 3184   4.790  13.149   0.034
33784SOL    HW1 3185   4.731  13.224   0.027
33784SOL    HW2 3186   4.875  13.184   0.009
33785SOL     OW 3187  13.465   9.487   2.308
33785SOL    HW1 3188  13.452   9.395   2.330
33785SOL    HW2 3189  13.472   9.487   2.212
33786SOL     OW 3190   9.213   2.265   9.055
33786SOL    HW1 3191   9.180   2.296   9.140
33786SOL    HW2 3192   9.187   2.333   8.993
33787SOL     OW 3193  13.976   5.102   8.963
33787SOL    HW1 3194  13.894   5.057   8.985
33787SOL    HW2 3195  13.963   5.192   8.993
33788SOL     OW 3196   8.538   7.498  10.006
33788SOL    HW1 3197   8.448   7.470   9.988
33788SOL    HW2 3198   8.588   7.466   9.931
33789SOL     OW 3199   3.690  14.503  13.613
33789SOL    HW1 3200   3.770  14.544  13.645
33789SOL    HW2 3201   3.671  14.435  13.677
33790SOL     OW 3202   1.541   0.106   5.326
33790SOL    HW1 3203   1.615   0.162   5.348
33790SOL    HW2 3204   1.516   0.065   5.409
33791SOL     OW 3205  12.863  11.452  13.098
33791SOL    HW1 3206  12.946  11.405  13.095
33791SOL    HW2 3207  12.817  11.426  13.019
33792SOL     OW 3208   3.781   0.845   6.211
33792SOL    HW1 3209   3.795   0.760   6.168
33792SOL    HW2 3210   3.794   0.909   6.142
33793SOL     OW 3211  10.007   7.261  11.459
33793SOL    HW1 3212   9.933   7.200  11.452
33793SOL    HW2 3213  10.058   7.247  11.380
33794SOL     OW 3214  13.000  11.216   3.385
33794SOL    HW1 3215  13.049  11.182   3.460
33794SOL    HW2 3216  12.909  11.192   3.402
33795SOL     OW 3217  11.243   5.107   9.365
33795SOL    HW1 3218  11.248   5.143   9.276
33795SOL    HW2 3219  11.331   5.074   9.382
33796SOL     OW 3220   7.048   2.786  12.561
33796SOL    HW1 3221   7.027   2.756  12.649
33796SOL    HW2 3222   6.965   2.785  12.514
33797SOL     OW 3223   6.958   9.594   7.596
33797SOL    HW1 3224   6.890   9.593   7.529
33797SOL    HW2 3225   6.952   9.681   7.636
33798SOL     OW 3226   1.431  10.793   4.182
33798SOL    HW1 3227   1.505  10.743   4.217
33798SOL    HW2 3228   1.444  10.882   4.214
33799SOL     OW 3229   2.895   8.181  14.423
33799SOL    HW1 3230   2.929   8.136  14.500
33799SOL    HW2 3231   2.944   8.264  14.420
33800SOL     OW 3232   9.011   1.083  11.850
33800SOL    HW1 3233   9.089   1.136  11.868
33800SOL    HW2 3234   9.014   1.014  11.916
33801SOL     OW 3235  10.261  14.357   1.114
33801SOL    HW1 3236  10.342  14.392   1.151
33801SOL    HW2 3237  10.263  14.385   1.022
33802SOL     OW 3238   0.679  14.311  14.526
33802SOL    HW1 3239   0.599  14.358  14.505
33802SOL    HW2 3240   0.694  14.329  14.619
33803SOL     OW 3241  10.213   4.408   7.896
33803SOL    HW1 3242  10.269   4.359   7.957
33803SOL    HW2 3243  10.151   4.454   7.952
33804SOL     OW 3244   7.387   2.020  13.801
33804SOL    HW1 3245   7.347   2.086  13.858
33804SOL    HW2 3246   7.371   2.053  13.712
33805SOL     OW 3247   2.369   5.265  12.710
33805SOL    HW1 3248   2.348   5.183  12.753
33805SOL    HW2 3249   2.284   5.308  12.698
33806SOL     OW 3250   8.700   9.000   9.324
33806SOL    HW1 3251   8.758   9.069   9.355
33806SOL    HW2 3252   8.633   9.045   9.273
33807SOL     OW 3253   5.704   9.159   1.790
33807SOL    HW1 3254   5.737   9.218   1.722
33807SOL    HW2 3255   5.677   9.218   1.861
33808SOL     OW 3256   9.138   0.788  13.736
33808SOL    HW1 3257   9.185   0.706  13.752
33808SOL    HW2 3258   9.104   0.813  13.822
33809SOL     OW 3259   5.951   9.803   4.577
33809SOL    HW1 3260   5.884   9.749   4.619
33809SOL    HW2 3261   5.918   9.817   4.488
33810SOL     OW 3262  13.523   5.127  10.667
33810SOL    HW1 3263  13.552   5.168  10.585
33810SOL    HW2 3264  13.567   5.178  10.735
33811SOL     OW 3265  11.455   6.353   3.859
33811SOL    HW1 3266  11.380   6.374   3.804
33811SOL    HW2 3267  11.511   6.298   3.804
33812SOL     OW 3268  10.710   1.578  12.261
33812SOL    HW1 3269  10.625   1.538  12.283
33812SOL    HW2 3270  10.688   1.665  12.230
33813SOL     OW 3271  13.778   9.034   9.138
33813SOL    HW1 3272  13.823   9.104   9.091
33813SOL    HW2 3273  13.841   8.962   9.140
33814SOL     OW 3274   1.084   8.000   4.612
33814SOL    HW1 3275   1.124   8.071   4.561
33814SOL    HW2 3276   1.085   7.925   4.553
33815SOL     OW 3277   1.955   8.139   9.056
33815SOL    HW1 3278   1.896   8.073   9.092
33815SOL    HW2 3279   1.897   8.207   9.021
33816SOL     OW 3280   1.554  13.335   8.344
33816SOL    HW1 3281   1.526  13.426   8.332
33816SOL    HW2 3282   1.648  13.337   8.329
33817SOL     OW 3283  13.599  11.216  11.836
33817SOL    HW1 3284  13.591  11.311  11.837
33817SOL    HW2 3285  13.636  11.194  11.922
33818SOL     OW 3286   2.498  14.466   0.636
33818SOL    HW1 3287   2.404  14.483   0.628
33818SOL    HW2 3288   2.540  14.543   0.597
33819SOL     OW 3289   7.587   7.142   2.835
33819SOL    HW1 3290   7.628   7.090   2.904
33819SOL    HW2 3291   7.593   7.233   2.867
33820SOL     OW 3292  13.549   1.176  13.827
33820SOL    HW1 3293  13.514   1.220  13.904
33820SOL    HW2 3294  13.471   1.149  13.778
33821SOL     OW 3295  13.367   3.397  10.868
33821SOL    HW1 3296  13.419   3.413  10.789
33821SOL    HW2 3297  13.431   3.369  10.933
33822SOL     OW 3298   6.622   4.420   2.468
33822SOL    HW1 3299   6.701   4.471   2.449
33822SOL    HW2 3300   6.581   4.466   2.542
33823SOL     OW 3301   2.286  12.226   2.436
33823SOL    HW1 3302   2.345  12.278   2.490
33823SOL    HW2 3303   2.212  12.207   2.494
33824SOL     OW 3304  11.880  14.665   7.950
33824SOL    HW1 3305  11.947  14.640   7.887
33824SOL    HW2 3306  11.874  14.590   8.010
33825SOL     OW 3307   3.760  10.412  11.309
33825SOL    HW1 3308   3.772  10.413  11.214
33825SOL    HW2 3309   3.772  10.504  11.336
33826SOL     OW 3310   8.207   5.577   8.268
33826SOL    HW1 3311   8.173   5.558   8.180
33826SOL    HW2 3312   8.280   5.637   8.252
33827SOL     OW 3313   0.166  10.937   3.256
33827SOL    HW1 3314   0.186  10.913   3.166
33827SOL    HW2 3315   0.101  10.873   3.284
33828SOL     OW 3316   4.985   9.987   7.811
33828SOL    HW1 3317   4.991  10.039   7.731
33828SOL    HW2 3318   4.914   9.925   7.794
33829SOL     OW 3319   8.256  13.139   1.673
33829SOL    HW1 3320   8.243  13.097   1.758
33829SOL    HW2 3321   8.311  13.078   1.624
33830SOL     OW 3322  12.849   9.656   8.378
33830SOL    HW1 3323  12.930   9.706   8.376
33830SOL    HW2 3324  12.807   9.673   8.294
33831SOL     OW 3325   1.848   8.837   0.267
33831SOL    HW1 3326   1.833   8.914   0.212
33831SOL    HW2 3327   1.841   8.763   0.207
33832SOL     OW 3328   3.692  13.113   1.422
33832SOL    HW1 3329   3.699  13.129   1.516
33832SOL    HW2 3330   3.633  13.038   1.415
33833SOL     OW 3331  10.287  12.585   0.961
33833SOL    HW1 3332  10.237  12.575   1.042
33833SOL    HW2 3333  10.359  12.643   0.985
33834SOL     OW 3334   7.829   1.208   7.934
33834SOL    HW1 3335   7.770   1.181   8.005
33834SOL    HW2 3336   7.837   1.130   7.879
33835SOL     OW 3337  13.805   5.723  14.671
33835SOL    HW1 3338  13.792   5.713  14.577
33835SOL    HW2 3339  13.853   5.805  14.680
33836SOL     OW 3340   9.096  10.069   6.740
33836SOL    HW1 3341   9.039  10.132   6.695
33836SOL    HW2 3342   9.178  10.074   6.692
33837SOL     OW 3343  14.083   6.506   0.542
33837SOL    HW1 3344  14.004   6.468   0.502
33837SOL    HW2 3345  14.155   6.471   0.489
33838SOL     OW 3346  11.903   7.169   7.938
33838SOL    HW1 3347  11.830   7.199   7.991
33838SOL    HW2 3348  11.862   7.126   7.863
33839SOL     OW 3349   4.150   1.202  12.065
33839SOL    HW1 3350   4.104   1.131  12.021
33839SOL    HW2 3351   4.234   1.207  12.020
33840SOL     OW 3352  13.199   5.108  11.738
33840SOL    HW1 3353  13.167   5.052  11.808
33840SOL    HW2 3354  13.247   5.178  11.782
33841SOL     OW 3355   0.388   4.482  14.480
33841SOL    HW1 3356   0.406   4.388  14.481
33841SOL    HW2 3357   0.362   4.500  14.389
33842SOL     OW 3358  10.045  12.094  10.890
33842SOL    HW1 3359  10.016  12.134  10.972
33842SOL    HW2 3360  10.119  12.149  10.861
33843SOL     OW 3361  11.801   9.623   0.268
33843SOL    HW1 3362  11.775   9.532   0.278
33843SOL    HW2 3363  11.814   9.654   0.358
33844SOL     OW 3364  11.648  13.038  13.938
33844SOL    HW1 3365  11.680  13.106  13.879
33844SOL    HW2 3366  11.562  13.014  13.902
33845SOL     OW 3367  10.664  12.984   5.137
33845SOL    HW1 3368  10.577  12.969   5.100
33845SOL    HW2 3369  10.716  12.909   5.106
33846SOL     OW 3370   9.669   6.771  11.684
33846SOL    HW1 3371   9.728   6.735  11.619
33846SOL    HW2 3372   9.709   6.748  11.768
33847SOL     OW 3373   4.187   0.842   0.716
33847SOL    HW1 3374   4.260   0.821   0.774
33847SOL    HW2 3375   4.208   0.797   0.634
33848SOL     OW 3376  10.060   4.952   3.800
33848SOL    HW1 3377  10.099   5.039   3.789
33848SOL    HW2 3378   9.968   4.970   3.819
33849SOL     OW 3379  10.323   0.110  10.071
33849SOL    HW1 3380  10.364   0.131   9.987
33849SOL    HW2 3381  10.380   0.044  10.109
33850SOL     OW 3382  10.146   8.883  13.067
33850SOL    HW1 3383  10.181   8.814  13.123
33850SOL    HW2 3384  10.057   8.898  13.099
33851SOL     OW 3385  10.912   5.171   1.199
33851SOL    HW1 3386  10.912   5.098   1.261
33851SOL    HW2 3387  11.004   5.193   1.188
33852SOL     OW 3388   3.166   0.537  12.444
33852SOL    HW1 3389   3.175   0.623  12.485
33852SOL    HW2 3390   3.086   0.501  12.482
33853SOL     OW 3391  10.888   9.099   4.883
33853SOL    HW1 3392  10.823   9.053   4.829
33853SOL    HW2 3393  10.884   9.054   4.968
33854SOL     OW 3394   5.127   8.582   6.645
33854SOL    HW1 3395   5.050   8.547   6.599
33854SOL    HW2 3396   5.138   8.524   6.721
33855SOL     OW 3397  14.214  14.716   8.395
33855SOL    HW1 3398  14.175  14.632   8.370
33855SOL    HW2 3399  14.279  14.734   8.327
33856SOL     OW 3400  11.173   2.622   3.419
33856SOL    HW1 3401  11.242   2.557   3.407
33856SOL    HW2 3402  11.177   2.644   3.512
33857SOL     OW 3403  12.670  12.376  13.380
33857SOL    HW1 3404  12.676  12.412  13.292
33857SOL    HW2 3405  12.639  12.450  13.433
33858SOL     OW 3406  13.448   2.228  11.255
33858SOL    HW1 3407  13.543   2.225  11.244
33858SOL    HW2 3408  13.417   2.283  11.182
33859SOL     OW 3409   2.668   8.302   8.159
33859SOL    HW1 3410   2.631   8.276   8.243
33859SOL    HW2 3411   2.740   8.241   8.144
33860SOL     OW 3412  10.780  13.643   3.875
33860SOL    HW1 3413  10.737  13.694   3.807
33860SOL    HW2 3414  10.841  13.585   3.828
33861SOL     OW 3415   0.928   8.808   5.948
33861SOL    HW1 3416   0.997   8.742   5.949
33861SOL    HW2 3417   0.886   8.801   6.034
33862SOL     OW 3418   0.183   3.063  11.385
33862SOL    HW1 3419   0.125   3.060  11.462
33862SOL    HW2 3420   0.254   3.003  11.407
33863SOL     OW 3421   7.803   4.515   0.121
33863SOL    HW1 3422   7.868   4.468   0.174
33863SOL    HW2 3423   7.776   4.451   0.055
33864SOL     OW 3424   4.861   0.463   4.240
33864SOL    HW1 3425   4.865   0.369   4.258
33864SOL    HW2 3426   4.814   0.500   4.315
33865SOL     OW 3427   2.942  12.191  13.487
33865SOL    HW1 3428   2.867  12.137  13.511
33865SOL    HW2 3429   2.974  12.152  13.405
33866SOL     OW 3430   9.402   3.510   6.375
33866SOL    HW1 3431   9.486   3.472   6.349
33866SOL    HW2 3432   9.395   3.589   6.323
33867SOL     OW 3433  13.770   7.077   1.452
33867SOL    HW1 3434  13.855   7.112   1.427
33867SOL    HW2 3435  13.732   7.044   1.371
33868SOL     OW 3436   5.184   4.030  12.880
33868SOL    HW1 3437   5.122   4.004  12.948
33868SOL    HW2 3438   5.168   3.968  12.809
33869SOL     OW 3439  14.861   8.782   3.531
33869SOL    HW1 3440  14.857   8.816   3.620
33869SOL    HW2 3441  14.854   8.687   3.541
33870SOL     OW 3442   1.688   4.508   8.538
33870SOL    HW1 3443   1.714   4.419   8.513
33870SOL    HW2 3444   1.686   4.556   8.455
33871SOL     OW 3445  11.967   6.108  10.251
33871SOL    HW1 3446  12.001   6.135  10.165
33871SOL    HW2 3447  11.976   6.186  10.306
33872SOL     OW 3448   8.384   5.846   6.549
33872SOL    HW1 3449   8.376   5.751   6.552
33872SOL    HW2 3450   8.454   5.862   6.485
33873SOL     OW 3451  14.499   5.018   9.978
33873SOL    HW1 3452  14.544   4.977  10.052
33873SOL    HW2 3453  14.431   5.072  10.018
33874SOL     OW 3454   2.928   2.502   3.650
33874SOL    HW1 3455   2.982   2.580   3.658
33874SOL    HW2 3456   2.954   2.463   3.567
33875SOL     OW 3457  11.127  12.641   3.510
33875SOL    HW1 3458  11.086  12.627   3.595
33875SOL    HW2 3459  11.065  12.696   3.462
33876SOL     OW 3460   0.800   0.397   4.125
33876SOL    HW1 3461   0.787   0.428   4.215
33876SOL    HW2 3462   0.849   0.316   4.134
33877SOL     OW 3463   0.235   5.870   7.492
33877SOL    HW1 3464   0.250   5.791   7.440
33877SOL    HW2 3465   0.279   5.853   7.575
33878SOL     OW 3466   0.362   0.351  14.803
33878SOL    HW1 3467   0.431   0.308  14.853
33878SOL    HW2 3468   0.281   0.327  14.848
33879SOL     OW 3469   9.488  12.495  14.065
33879SOL    HW1 3470   9.402  12.530  14.087
33879SOL    HW2 3471   9.522  12.460  14.147
33880SOL     OW 3472  11.051   2.016  13.355
33880SOL    HW1 3473  11.146   2.024  13.354
33880SOL    HW2 3474  11.031   1.957  13.283
33881SOL     OW 3475   3.908  10.042   7.782
33881SOL    HW1 3476   3.975  10.099   7.820
33881SOL    HW2 3477   3.894  10.077   7.694
33882SOL     OW 3478  10.759  12.296   4.318
33882SOL    HW1 3479  10.731  12.360   4.384
33882SOL    HW2 3480  10.774  12.348   4.239
33883SOL     OW 3481   6.560   0.248   8.140
33883SOL    HW1 3482   6.494   0.228   8.207
33883SOL    HW2 3483   6.538   0.190   8.067
33884SOL     OW 3484   7.742   4.349   9.390
33884SOL    HW1 3485   7.744   4.435   9.432
33884SOL    HW2 3486   7.723   4.368   9.298
33885SOL     OW 3487  10.689   6.951   1.493
33885SOL    HW1 3488  10.644   7.009   1.554
33885SOL    HW2 3489  10.684   6.864   1.533
33886SOL     OW 3490  11.166   5.362   9.218
33886SOL    HW1 3491  11.241   5.421   9.218
33886SOL    HW2 3492  11.161   5.329   9.128
33887SOL     OW 3493   6.248  13.573   2.239
33887SOL    HW1 3494   6.284  13.580   2.151
33887SOL    HW2 3495   6.272  13.656   2.281
33888SOL     OW 3496  12.025   7.725   1.462
33888SOL    HW1 3497  12.021   7.633   1.440
33888SOL    HW2 3498  12.044   7.770   1.380
33889SOL     OW 3499  12.686   7.174  13.587
33889SOL    HW1 3500  12.650   7.239  13.646
33889SOL    HW2 3501  12.756   7.131  13.638
33890SOL     OW 3502  11.789  12.262   9.538
33890SOL    HW1 3503  11.777  12.168   9.526
33890SOL    HW2 3504  11.794  12.297   9.449
33891SOL     OW 3505  14.198  11.947   9.170
33891SOL    HW1 3506  14.160  11.880   9.226
33891SOL    HW2 3507  14.217  11.902   9.088
33892SOL     OW 3508   4.882   3.069   1.862
33892SOL    HW1 3509   4.820   3.115   1.805
33892SOL    HW2 3510   4.886   2.980   1.827
33893SOL     OW 3511   2.533   5.756   8.745
33893SOL    HW1 3512   2.563   5.693   8.680
33893SOL    HW2 3513   2.608   5.815   8.757
33894SOL     OW 3514  10.561  12.077   4.620
33894SOL    HW1 3515  10.480  12.042   4.582
33894SOL    HW2 3516  10.532  12.154   4.669
33895SOL     OW 3517   7.018  13.781  12.155
33895SOL    HW1 3518   7.083  13.773  12.225
33895SOL    HW2 3519   6.977  13.694  12.151
33896SOL     OW 3520  14.748   5.176   6.118
33896SOL    HW1 3521  14.800   5.254   6.097
33896SOL    HW2 3522  14.813   5.107   6.130
33897SOL     OW 3523  11.838   2.352  11.042
33897SOL    HW1 3524  11.926   2.321  11.021
33897SOL    HW2 3525  11.850   2.415  11.113
33898SOL     OW 3526   6.600   0.916   5.813
33898SOL    HW1 3527   6.533   0.980   5.787
33898SOL    HW2 3528   6.569   0.883   5.897
33899SOL     OW 3529   7.505   7.077   3.250
33899SOL    HW1 3530   7.536   7.085   3.340
33899SOL    HW2 3531   7.412   7.054   3.258
33900SOL     OW 3532   7.596   1.458   8.371
33900SOL    HW1 3533   7.517   1.450   8.317
33900SOL    HW2 3534   7.591   1.547   8.407
33901SOL     OW 3535   6.213   9.925   6.449
33901SOL    HW1 3536   6.142   9.918   6.386
33901SOL    HW2 3537   6.176   9.975   6.522
33902SOL     OW 3538   3.012  13.663   1.118
33902SOL    HW1 3539   3.050  13.719   1.050
33902SOL    HW2 3540   3.086  13.640   1.174
33903SOL     OW 3541   2.514   1.085  11.220
33903SOL    HW1 3542   2.477   1.027  11.286
33903SOL    HW2 3543   2.602   1.104  11.253
33904SOL     OW 3544   7.901  14.143   1.942
33904SOL    HW1 3545   7.951  14.225   1.937
33904SOL    HW2 3546   7.874  14.126   1.851
33905SOL     OW 3547   7.896  13.475   4.178
33905SOL    HW1 3548   7.905  13.474   4.083
33905SOL    HW2 3549   7.833  13.405   4.196
33906SOL     OW 3550   2.944   4.058   5.237
33906SOL    HW1 3551   2.980   4.142   5.266
33906SOL    HW2 3552   2.865   4.083   5.188
33907SOL     OW 3553   2.607  14.286   9.246
33907SOL    HW1 3554   2.574  14.340   9.174
33907SOL    HW2 3555   2.528  14.249   9.286
33908SOL     OW 3556   8.605   5.869   6.367
33908SOL    HW1 3557   8.649   5.908   6.291
33908SOL    HW2 3558   8.618   5.775   6.357
33909SOL     OW 3559   9.229   2.496  14.315
33909SOL    HW1 3560   9.161   2.555  14.281
33909SOL    HW2 3561   9.310   2.547  14.309
33910SOL     OW 3562   7.449  14.385   1.335
33910SOL    HW1 3563   7.379  14.424   1.388
33910SOL    HW2 3564   7.427  14.410   1.245
33911SOL     OW 3565   7.482   7.917  12.130
33911SOL    HW1 3566   7.461   8.010  12.118
33911SOL    HW2 3567   7.531   7.914  12.212
33912SOL     OW 3568   3.219   1.797   2.533
33912SOL    HW1 3569   3.174   1.732   2.479
33912SOL    HW2 3570   3.170   1.798   2.615
33913SOL     OW 3571   3.160  11.029  14.107
33913SOL    HW1 3572   3.246  10.991  14.123
33913SOL    HW2 3573   3.168  11.073  14.023
33914SOL     OW 3574  12.682  13.681   5.729
33914SOL    HW1 3575  12.710  13.719   5.646
33914SOL    HW2 3576  12.633  13.603   5.704
33915SOL     OW 3577   6.231   0.488  13.408
33915SOL    HW1 3578   6.265   0.510  13.495
33915SOL    HW2 3579   6.297   0.520  13.348
33916SOL     OW 3580   9.489   6.294  13.056
33916SOL    HW1 3581   9.411   6.271  13.105
33916SOL    HW2 3582   9.468   6.273  12.965
33917SOL     OW 3583   7.445   2.983  10.517
33917SOL    HW1 3584   7.402   2.901  10.542
33917SOL    HW2 3585   7.474   2.967  10.427
33918SOL     OW 3586   5.739   0.636  12.731
33918SOL    HW1 3587   5.731   0.610  12.639
33918SOL    HW2 3588   5.770   0.557  12.775
33919SOL     OW 3589   0.220  11.075   9.825
33919SOL    HW1 3590   0.200  11.095   9.917
33919SOL    HW2 3591   0.314  11.055   9.825
33920SOL     OW 3592   8.852   9.687  13.012
33920SOL    HW1 3593   8.902   9.726  13.084
33920SOL    HW2 3594   8.761   9.690  13.042
33921SOL     OW 3595  10.540  11.055  13.100
33921SOL    HW1 3596  10.450  11.033  13.076
33921SOL    HW2 3597  10.545  11.150  13.090
33922SOL     OW 3598   9.371  10.916   9.658
33922SOL    HW1 3599   9.384  10.930   9.565
33922SOL    HW2 3600   9.367  10.820   9.667
33923SOL     OW 3601   0.786  13.557   8.631
33923SOL    HW1 3602   0.849  13.487   8.650
33923SOL    HW2 3603   0.702  13.511   8.619
33924SOL     OW 3604   8.112   7.817   8.025
33924SOL    HW1 3605   8.200   7.781   8.021
33924SOL    HW2 3606   8.080   7.793   8.112
33925SOL     OW 3607   5.603  13.597   2.081
33925SOL    HW1 3608   5.648  13.516   2.057
33925SOL    HW2 3609   5.564  13.578   2.167
33926SOL     OW 3610   4.341   9.174  10.188
33926SOL    HW1 3611   4.383   9.176  10.102
33926SOL    HW2 3612   4.292   9.256  10.193
33927SOL     OW 3613   0.469   5.282   8.706
33927SOL    HW1 3614   0.380   5.272   8.673
33927SOL    HW2 3615   0.462   5.263   8.800
33928SOL     OW 3616   7.257   7.308   4.075
33928SOL    HW1 3617   7.174   7.321   4.121
33928SOL    HW2 3618   7.323   7.309   4.144
33929SOL     OW 3619   2.339  13.555   3.625
33929SOL    HW1 3620   2.246  13.574   3.626
33929SOL    HW2 3621   2.364  13.562   3.533
33930SOL     OW 3622  12.674   0.770  13.171
33930SOL    HW1 3623  12.624   0.797  13.094
33930SOL    HW2 3624  12.763   0.757  13.139
33931SOL     OW 3625   0.077   4.913   6.639
33931SOL    HW1 3626   0.017   4.969   6.589
33931SOL    HW2 3627   0.020   4.865   6.699
33932SOL     OW 3628   3.828   4.089   8.177
33932SOL    HW1 3629   3.775   4.161   8.211
33932SOL    HW2 3630   3.914   4.102   8.216
33933SOL     OW 3631   9.083   2.777   8.900
33933SOL    HW1 3632   9.028   2.814   8.970
33933SOL    HW2 3633   9.135   2.851   8.869
33934SOL     OW 3634  11.717  10.722   7.758
33934SOL    HW1 3635  11.740  10.636   7.722
33934SOL    HW2 3636  11.681  10.703   7.845
33935SOL     OW 3637   7.456  11.093   5.768
33935SOL    HW1 3638   7.445  11.083   5.673
33935SOL    HW2 3639   7.551  11.097   5.781
33936SOL     OW 3640  14.860  14.641  14.062
33936SOL    HW1 3641   0.022  14.560  14.099
33936SOL    HW2 3642   0.017  14.710  14.122
33937SOL     OW 3643   3.079  12.355   7.578
33937SOL    HW1 3644   3.063  12.276   7.526
33937SOL    HW2 3645   3.158  12.335   7.628
33938SOL     OW 3646   4.667   6.851   2.494
33938SOL    HW1 3647   4.573   6.857   2.512
33938SOL    HW2 3648   4.700   6.787   2.557
33939SOL     OW 3649   5.241   4.313  12.146
33939SOL    HW1 3650   5.266   4.259  12.221
33939SOL    HW2 3651   5.174   4.372  12.180
33940SOL     OW 3652  13.323   0.287   7.519
33940SOL    HW1 3653  13.275   0.265   7.439
33940SOL    HW2 3654  13.389   0.351   7.490
33941SOL     OW 3655   7.233  12.998   9.209
33941SOL    HW1 3656   7.222  12.996   9.114
33941SOL    HW2 3657   7.281  13.079   9.226
33942SOL     OW 3658  10.323   6.352   5.909
33942SOL    HW1 3659  10.229   6.355   5.926
33942SOL    HW2 3660  10.359   6.305   5.985
33943SOL     OW 3661   8.121   1.110  11.148
33943SOL    HW1 3662   8.115   1.156  11.232
33943SOL    HW2 3663   8.195   1.050  11.159
33944SOL     OW 3664   3.536  10.597   5.169
33944SOL    HW1 3665   3.445  10.580   5.142
33944SOL    HW2 3666   3.542  10.692   5.177
33945SOL     OW 3667   9.378   7.547   3.134
33945SOL    HW1 3668   9.333   7.597   3.202
33945SOL    HW2 3669   9.463   7.525   3.173
33946SOL     OW 3670   8.377   8.823   1.888
33946SOL    HW1 3671   8.330   8.886   1.833
33946SOL    HW2 3672   8.412   8.758   1.826
33947SOL     OW 3673   4.588   7.433  14.756
33947SOL    HW1 3674   4.550   7.518  14.735
33947SOL    HW2 3675   4.615   7.398  14.671
33948SOL     OW 3676   6.691   6.524  10.191
33948SOL    HW1 3677   6.723   6.447  10.240
33948SOL    HW2 3678   6.762   6.544  10.131
33949SOL     OW 3679  11.065   3.260   4.254
33949SOL    HW1 3680  11.068   3.348   4.219
33949SOL    HW2 3681  10.986   3.259   4.309
33950SOL     OW 3682  11.107   3.050   5.519
33950SOL    HW1 3683  11.154   2.969   5.497
33950SOL    HW2 3684  11.164   3.094   5.581
33951SOL     OW 3685   3.766   4.010  12.238
33951SOL    HW1 3686   3.692   3.954  12.259
33951SOL    HW2 3687   3.773   4.070  12.313
33952SOL     OW 3688  10.516  10.241   1.059
33952SOL    HW1 3689  10.549  10.321   1.017
33952SOL    HW2 3690  10.555  10.170   1.010
33953SOL     OW 3691  12.734   7.173   9.687
33953SOL    HW1 3692  12.748   7.105   9.754
33953SOL    HW2 3693  12.816   7.223   9.686
33954SOL     OW 3694   5.379   4.574   7.949
33954SOL    HW1 3695   5.359   4.494   7.998
33954SOL    HW2 3696   5.433   4.626   8.009
33955SOL     OW 3697   4.745  10.679   0.991
33955SOL    HW1 3698   4.779  10.600   1.033
33955SOL    HW2 3699   4.708  10.649   0.909
33956SOL     OW 3700  14.818   2.443   8.852
33956SOL    HW1 3701  14.804   2.519   8.796
33956SOL    HW2 3702  14.748   2.449   8.917
33957SOL     OW 3703   5.367  10.100   7.979
33957SOL    HW1 3704   5.420  10.050   8.042
33957SOL    HW2 3705   5.365  10.188   8.015
33958SOL     OW 3706   5.438   0.984   3.575
33958SOL    HW1 3707   5.400   0.901   3.605
33958SOL    HW2 3708   5.532   0.967   3.574
33959SOL     OW 3709  12.789   9.185  12.141
33959SOL    HW1 3710  12.868   9.196  12.088
33959SOL    HW2 3711  12.719   9.227  12.090
33960SOL     OW 3712  11.522   5.814   0.782
33960SOL    HW1 3713  11.460   5.796   0.711
33960SOL    HW2 3714  11.603   5.837   0.737
33961SOL     OW 3715   2.085  12.161   1.867
33961SOL    HW1 3716   2.112  12.071   1.886
33961SOL    HW2 3717   2.025  12.183   1.939
33962SOL     OW 3718   6.330  10.870   0.065
33962SOL    HW1 3719   6.401  10.843   0.123
33962SOL    HW2 3720   6.349  10.962   0.044
33963SOL     OW 3721   0.386   8.511  10.775
33963SOL    HW1 3722   0.415   8.598  10.804
33963SOL    HW2 3723   0.415   8.452  10.845
33964SOL     OW 3724   9.182   2.282  13.187
33964SOL    HW1 3725   9.238   2.298  13.263
33964SOL    HW2 3726   9.093   2.280  13.223
33965SOL     OW 3727   4.487  13.302  13.368
33965SOL    HW1 3728   4.477  13.373  13.431
33965SOL    HW2 3729   4.581  13.287  13.363
33966SOL     OW 3730   0.482  12.451   2.737
33966SOL    HW1 3731   0.540  12.499   2.679
33966SOL    HW2 3732   0.394  12.464   2.700
33967SOL     OW 3733  13.601  11.167   5.463
33967SOL    HW1 3734  13.508  11.147   5.465
33967SOL    HW2 3735  13.610  11.245   5.518
33968SOL     OW 3736   3.271   2.548  14.379
33968SOL    HW1 3737   3.294   2.458  14.402
33968SOL    HW2 3738   3.319   2.565  14.298
33969SOL     OW 3739   7.675   2.881  11.459
33969SOL    HW1 3740   7.615   2.940  11.412
33969SOL    HW2 3741   7.713   2.827  11.390
33970SOL     OW 3742   9.561   4.991   8.184
33970SOL    HW1 3743   9.599   5.022   8.266
33970SOL    HW2 3744   9.582   4.898   8.182
33971SOL     OW 3745   7.394  10.190   9.867
33971SOL    HW1 3746   7.385  10.226   9.779
33971SOL    HW2 3747   7.487  10.201   9.888
33972SOL     OW 3748   0.515   7.824   0.413
33972SOL    HW1 3749   0.445   7.881   0.380
33972SOL    HW2 3750   0.582   7.828   0.346
33973SOL     OW 3751   0.135   5.464   2.532
33973SOL    HW1 3752   0.172   5.434   2.449
33973SOL    HW2 3753   0.207   5.510   2.575
33974SOL     OW 3754   1.869  13.812  12.299
33974SOL    HW1 3755   1.915  13.837  12.219
33974SOL    HW2 3756   1.930  13.834  12.370
33975SOL     OW 3757   7.099   7.333  13.808
33975SOL    HW1 3758   7.103   7.352  13.714
33975SOL    HW2 3759   7.179   7.286  13.827
33976SOL     OW 3760   9.137  10.614   0.220
33976SOL    HW1 3761   9.096  10.529   0.208
33976SOL    HW2 3762   9.139  10.628   0.314
33977SOL     OW 3763   0.746   2.795  13.391
33977SOL    HW1 3764   0.705   2.872  13.353
33977SOL    HW2 3765   0.790   2.752  13.318
33978SOL     OW 3766   9.105   6.626   1.122
33978SOL    HW1 3767   9.116   6.716   1.093
33978SOL    HW2 3768   9.089   6.577   1.041
33979SOL     OW 3769   3.288   5.161   1.725
33979SOL    HW1 3770   3.373   5.203   1.712
33979SOL    HW2 3771   3.298   5.107   1.803
33980SOL     OW 3772   5.707   5.997  11.199
33980SOL    HW1 3773   5.642   6.067  11.192
33980SOL    HW2 3774   5.712   5.959  11.111
33981SOL     OW 3775   1.668   8.571   3.264
33981SOL    HW1 3776   1.613   8.500   3.232
33981SOL    HW2 3777   1.757   8.535   3.263
33982SOL     OW 3778   3.069   9.527  10.900
33982SOL    HW1 3779   3.087   9.620  10.894
33982SOL    HW2 3780   3.119   9.497  10.976
33983SOL     OW 3781   0.275   3.756   7.559
33983SOL    HW1 3782   0.346   3.735   7.619
33983SOL    HW2 3783   0.289   3.698   7.485
33984SOL     OW 3784   6.076  10.600   2.516
33984SOL    HW1 3785   6.045  10.512   2.497
33984SOL    HW2 3786   6.128  10.625   2.439
33985SOL     OW 3787   6.984  12.114   8.806
33985SOL    HW1 3788   7.075  12.081   8.808
33985SOL    HW2 3789   6.991  12.200   8.765
33986SOL     OW 3790   5.780   7.386  11.273
33986SOL    HW1 3791   5.735   7.306  11.301
33986SOL    HW2 3792   5.731   7.457  11.316
33987SOL     OW 3793   6.436  12.444   5.474
33987SOL    HW1 3794   6.531  12.436   5.482
33987SOL    HW2 3795   6.422  12.527   5.429
33988SOL     OW 3796  14.371   6.635   1.730
33988SOL    HW1 3797  14.396   6.616   1.820
33988SOL    HW2 3798  14.434   6.587   1.677
33989SOL     OW 3799   9.050  10.865   1.049
33989SOL    HW1 3800   9.111  10.791   1.051
33989SOL    HW2 3801   9.013  10.863   0.960
33990SOL     OW 3802  14.545   6.492  13.540
33990SOL    HW1 3803  14.511   6.547  13.610
33990SOL    HW2 3804  14.467   6.457  13.496
33991SOL     OW 3805   4.862   0.769  12.905
33991SOL    HW1 3806   4.772   0.799  12.921
33991SOL    HW2 3807   4.855   0.674  12.903
33992SOL     OW 3808   0.789  10.046   9.234
33992SOL    HW1 3809   0.834   9.971   9.272
33992SOL    HW2 3810   0.841  10.070   9.158
33993SOL     OW 3811   6.175   3.031  14.324
33993SOL    HW1 3812   6.126   2.995  14.250
33993SOL    HW2 3813   6.108   3.066  14.383
33994SOL     OW 3814   8.531   5.380   1.399
33994SOL    HW1 3815   8.470   5.337   1.458
33994SOL    HW2 3816   8.589   5.430   1.456
33995SOL     OW 3817   6.023  11.212   4.796
33995SOL    HW1 3818   5.974  11.288   4.765
33995SOL    HW2 3819   6.018  11.148   4.725
33996SOL     OW 3820  13.515  14.095   7.403
33996SOL    HW1 3821  13.534  14.002   7.407
33996SOL    HW2 3822  13.590  14.137   7.444
33997SOL     OW 3823  10.682   2.263   2.989
33997SOL    HW1 3824  10.705   2.222   3.072
33997SOL    HW2 3825  10.724   2.209   2.923
33998SOL     OW 3826  14.605   0.666  14.330
33998SOL    HW1 3827  14.655   0.747  14.317
33998SOL    HW2 3828  14.603   0.625  14.244
33999SOL     OW 3829   2.097   4.522  10.534
33999SOL    HW1 3830   2.142   4.568  10.605
33999SOL    HW2 3831   2.117   4.573  10.456
34000SOL     OW 3832  12.072   1.907   9.833
34000SOL    HW1 3833  12.124   1.987   9.834
34000SOL    HW2 3834  11.990   1.930   9.877
34001SOL     OW 3835   6.819   1.284   6.868
34001SOL    HW1 3836   6.741   1.230   6.865
34001SOL    HW2 3837   6.821   1.318   6.958
34002SOL     OW 3838  11.443   6.533  13.008
34002SOL    HW1 3839  11.386   6.585  12.951
34002SOL    HW2 3840  11.386   6.504  13.079
34003SOL     OW 3841   8.659   4.160   2.633
34003SOL    HW1 3842   8.564   4.158   2.631
34003SOL    HW2 3843   8.680   4.243   2.676
34004SOL     OW 3844   5.081   6.400   3.054
34004SOL    HW1 3845   5.159   6.380   3.002
34004SOL    HW2 3846   5.113   6.453   3.127
34005SOL     OW 3847   0.893  11.825  12.844
34005SOL    HW1 3848   0.946  11.904  12.857
34005SOL    HW2 3849   0.941  11.757  12.890
34006SOL     OW 3850   6.538   3.807  10.034
34006SOL    HW1 3851   6.537   3.820  10.129
34006SOL    HW2 3852   6.631   3.805  10.011
34007SOL     OW 3853   8.198   7.390  11.641
34007SOL    HW1 3854   8.196   7.331  11.716
34007SOL    HW2 3855   8.184   7.477  11.678
34008SOL     OW 3856   4.669   0.322   5.484
34008SOL    HW1 3857   4.754   0.309   5.441
34008SOL    HW2 3858   4.608   0.337   5.412
34009SOL     OW 3859  14.505   6.668   2.031
34009SOL    HW1 3860  14.443   6.739   2.050
34009SOL    HW2 3861  14.558   6.701   1.958
34010SOL     OW 3862  13.852  13.145   3.226
34010SOL    HW1 3863  13.822  13.138   3.317
34010SOL    HW2 3864  13.900  13.227   3.223
34011SOL     OW 3865   6.317  10.650   2.325
34011SOL    HW1 3866   6.390  10.706   2.350
34011SOL    HW2 3867   6.352  10.561   2.329
34012SOL     OW 3868   1.997   7.769  12.403
34012SOL    HW1 3869   1.913   7.809  12.380
34012SOL    HW2 3870   2.000   7.772  12.498
34013SOL     OW 3871   2.300  13.513   5.067
34013SOL    HW1 3872   2.209  13.540   5.075
34013SOL    HW2 3873   2.345  13.558   5.138
34014SOL     OW 3874   0.199   8.565   5.257
34014SOL    HW1 3875   0.287   8.528   5.252
34014SOL    HW2 3876   0.142   8.496   5.222
34015SOL     OW 3877   6.105   0.201   7.016
34015SOL    HW1 3878   6.013   0.181   7.035
34015SOL    HW2 3879   6.142   0.227   7.100
34016SOL     OW 3880   9.782   2.531   9.848
34016SOL    HW1 3881   9.766   2.445   9.886
34016SOL    HW2 3882   9.702   2.550   9.798
34017SOL     OW 3883  12.605  12.492  12.587
34017SOL    HW1 3884  12.641  12.561  12.643
34017SOL    HW2 3885  12.590  12.419  12.647
34018SOL     OW 3886   8.649   7.049  11.543
34018SOL    HW1 3887   8.575   7.108  11.556
34018SOL    HW2 3888   8.691   7.080  11.462
34019SOL     OW 3889  13.403  14.846   6.884
34019SOL    HW1 3890  13.489  14.845   6.841
34019SOL    HW2 3891  13.420  14.816   6.973
34020SOL     OW 3892   9.693   0.302  13.043
34020SOL    HW1 3893   9.761   0.237  13.025
34020SOL    HW2 3894   9.624   0.253  13.087
34021SOL     OW 3895  13.007   9.130   2.465
34021SOL    HW1 3896  12.989   9.214   2.423
34021SOL    HW2 3897  13.024   9.151   2.556
34022SOL     OW 3898   2.550   3.255  12.004
34022SOL    HW1 3899   2.496   3.195  12.056
34022SOL    HW2 3900   2.602   3.198  11.948
34023SOL     OW 3901   9.123   1.035   7.534
34023SOL    HW1 3902   9.089   0.946   7.533
34023SOL    HW2 3903   9.096   1.071   7.619
34024SOL     OW 3904   1.932   0.511  12.896
34024SOL    HW1 3905   2.008   0.570  12.894
34024SOL    HW2 3906   1.943   0.461  12.977
34025SOL     OW 3907   9.550   8.597   1.728
34025SOL    HW1 3908   9.520   8.527   1.669
34025SOL    HW2 3909   9.538   8.677   1.677
34026SOL     OW 3910   2.496   9.073   6.729
34026SOL    HW1 3911   2.530   9.082   6.640
34026SOL    HW2 3912   2.469   8.981   6.735
34027SOL     OW 3913  10.138   9.794   8.737
34027SOL    HW1 3914  10.216   9.768   8.687
34027SOL    HW2 3915  10.069   9.736   8.706
34028SOL     OW 3916  11.111  11.144   8.614
34028SOL    HW1 3917  11.067  11.078   8.667
34028SOL    HW2 3918  11.195  11.157   8.658
34029SOL     OW 3919   2.340   8.356   2.172
34029SOL    HW1 3920   2.432   8.358   2.143
34029SOL    HW2 3921   2.304   8.277   2.131
34030SOL     OW 3922   6.094   6.289   0.594
34030SOL    HW1 3923   5.999   6.285   0.598
34030SOL    HW2 3924   6.113   6.335   0.513
34031SOL     OW 3925   1.101  14.072  11.549
34031SOL    HW1 3926   1.063  14.107  11.630
34031SOL    HW2 3927   1.147  13.993  11.577
34032SOL     OW 3928   7.020   1.153   5.067
34032SOL    HW1 3929   6.969   1.232   5.085
34032SOL    HW2 3930   6.969   1.107   5.000
34033SOL     OW 3931   0.816   8.865   3.880
34033SOL    HW1 3932   0.729   8.906   3.875
34033SOL    HW2 3933   0.810   8.788   3.825
34034SOL     OW 3934   9.304   8.746  10.658
34034SOL    HW1 3935   9.301   8.734  10.564
34034SOL    HW2 3936   9.280   8.661  10.694
34035SOL     OW 3937   6.577   5.949   0.030
34035SOL    HW1 3938   6.602   6.020  14.843
34035SOL    HW2 3939   6.496   5.915  14.866
34036SOL     OW 3940  10.102  11.235   0.123
34036SOL    HW1 3941  10.132  11.158   0.172
34036SOL    HW2 3942  10.132  11.309   0.177
34037SOL     OW 3943   8.070  10.978   9.308
34037SOL    HW1 3944   8.105  11.067   9.298
34037SOL    HW2 3945   8.142  10.928   9.345
34038SOL     OW 3946   3.795   6.535  10.470
34038SOL    HW1 3947   3.818   6.444  10.489
34038SOL    HW2 3948   3.796   6.579  10.555
34039SOL     OW 3949   9.949   2.443  12.986
34039SOL    HW1 3950  10.034   2.470  13.022
34039SOL    HW2 3951   9.902   2.525  12.974
34040SOL     OW 3952  13.716   0.802   8.329
34040SOL    HW1 3953  13.760   0.844   8.402
34040SOL    HW2 3954  13.775   0.731   8.303
34041SOL     OW 3955   9.628  14.196  11.528
34041SOL    HW1 3956   9.693  14.220  11.595
34041SOL    HW2 3957   9.664  14.229  11.446
34042SOL     OW 3958  10.104   2.011   1.692
34042SOL    HW1 3959  10.179   2.027   1.749
34042SOL    HW2 3960  10.053   1.943   1.737
34043SOL     OW 3961   5.862  12.163   9.561
34043SOL    HW1 3962   5.910  12.142   9.641
34043SOL    HW2 3963   5.832  12.078   9.528
34044SOL     OW 3964   7.758  12.083  10.363
34044SOL    HW1 3965   7.762  12.167  10.408
34044SOL    HW2 3966   7.671  12.081  10.324
34045SOL     OW 3967   2.049   3.343  11.393
34045SOL    HW1 3968   2.143   3.362  11.403
34045SOL    HW2 3969   2.006   3.401  11.456
34046SOL     OW 3970   8.475   0.186  10.029
34046SOL    HW1 3971   8.465   0.092  10.013
34046SOL    HW2 3972   8.462   0.227   9.944
34047SOL     OW 3973   8.868   4.507  11.162
34047SOL    HW1 3974   8.788   4.462  11.134
34047SOL    HW2 3975   8.904   4.451  11.230
34048SOL     OW 3976   1.817   8.478  13.627
34048SOL    HW1 3977   1.775   8.479  13.541
34048SOL    HW2 3978   1.744   8.480  13.689
34049SOL     OW 3979   9.098  12.559   9.764
34049SOL    HW1 3980   9.188  12.586   9.746
34049SOL    HW2 3981   9.079  12.492   9.698
34050SOL     OW 3982  12.859   2.501  13.320
34050SOL    HW1 3983  12.870   2.428  13.382
34050SOL    HW2 3984  12.945   2.542  13.317
34051SOL     OW 3985   6.242   7.676  14.019
34051SOL    HW1 3986   6.291   7.739  14.072
34051SOL    HW2 3987   6.301   7.655  13.946
34052SOL     OW 3988   4.157   3.280   4.039
34052SOL    HW1 3989   4.149   3.287   3.944
34052SOL    HW2 3990   4.068   3.296   4.072
34053SOL     OW 3991  12.928   0.319   5.401
34053SOL    HW1 3992  12.897   0.390   5.345
34053SOL    HW2 3993  13.015   0.298   5.369
34054SOL     OW 3994   3.957  10.951  14.354
34054SOL    HW1 3995   3.879  10.942  14.299
34054SOL    HW2 3996   3.923  10.981  14.438
34055SOL     OW 3997  14.101   0.978   0.872
34055SOL    HW1 3998  14.113   0.884   0.884
34055SOL    HW2 3999  14.045   1.005   0.946
34056SOL     OW 4000   8.568  13.019  14.279
34056SOL    HW1 4001   8.569  13.104  14.324
34056SOL    HW2 4002   8.611  13.036  14.195
34057SOL     OW 4003   1.200   4.811   5.299
34057SOL    HW1 4004   1.183   4.858   5.217
34057SOL    HW2 4005   1.154   4.862   5.366
34058SOL     OW 4006  11.565   7.595   9.058
34058SOL    HW1 4007  11.577   7.629   8.969
34058SOL    HW2 4008  11.479   7.554   9.056
34059SOL     OW 4009   2.231  13.892  12.170
34059SOL    HW1 4010   2.197  13.904  12.082
34059SOL    HW2 4011   2.303  13.830  12.160
34060SOL     OW 4012   7.127  14.848   8.966
34060SOL    HW1 4013   7.189  14.776   8.969
34060SOL    HW2 4014   7.171   0.043   8.913
34061SOL     OW 4015   5.743  14.712   7.743
34061SOL    HW1 4016   5.817  14.663   7.707
34061SOL    HW2 4017   5.671  14.697   7.681
34062SOL     OW 4018  10.475  14.071   4.030
34062SOL    HW1 4019  10.422  14.018   3.971
34062SOL    HW2 4020  10.469  14.160   3.994
34063SOL     OW 4021   8.990   6.876   5.898
34063SOL    HW1 4022   9.059   6.861   5.962
34063SOL    HW2 4023   8.913   6.830   5.934
34064SOL     OW 4024  14.397   1.373  13.722
34064SOL    HW1 4025  14.365   1.463  13.711
34064SOL    HW2 4026  14.329   1.330  13.774
34065SOL     OW 4027   5.917  10.348  12.478
34065SOL    HW1 4028   5.922  10.355  12.383
34065SOL    HW2 4029   5.903  10.438  12.508
34066SOL     OW 4030   1.447  14.157   5.427
34066SOL    HW1 4031   1.395  14.224   5.383
34066SOL    HW2 4032   1.533  14.162   5.385
34067SOL     OW 4033   9.874   3.373  10.080
34067SOL    HW1 4034   9.852   3.321  10.157
34067SOL    HW2 4035   9.820   3.334  10.010
34068SOL     OW 4036  12.269   7.179   2.253
34068SOL    HW1 4037  12.271   7.100   2.199
34068SOL    HW2 4038  12.224   7.244   2.200
34069SOL     OW 4039   1.018   6.800   3.331
34069SOL    HW1 4040   1.039   6.801   3.424
34069SOL    HW2 4041   0.947   6.737   3.322
34070SOL     OW 4042   5.408  11.402  14.250
34070SOL    HW1 4043   5.424  11.493  14.227
34070SOL    HW2 4044   5.344  11.406  14.321
34071SOL     OW 4045   3.224   2.271  14.181
34071SOL    HW1 4046   3.253   2.248  14.269
34071SOL    HW2 4047   3.266   2.356  14.163
34072SOL     OW 4048   0.228   4.831   1.637
34072SOL    HW1 4049   0.149   4.879   1.613
34072SOL    HW2 4050   0.197   4.746   1.667
34073SOL     OW 4051   3.856  12.316   6.098
34073SOL    HW1 4052   3.783  12.276   6.145
34073SOL    HW2 4053   3.842  12.410   6.109
34074SOL     OW 4054  11.807   0.444   9.790
34074SOL    HW1 4055  11.738   0.382   9.767
34074SOL    HW2 4056  11.800   0.455   9.885
34075SOL     OW 4057  12.681  14.443   8.973
34075SOL    HW1 4058  12.668  14.367   8.916
34075SOL    HW2 4059  12.766  14.478   8.947
34076SOL     OW 4060   2.795   8.866   5.877
34076SOL    HW1 4061   2.754   8.947   5.846
34076SOL    HW2 4062   2.837   8.829   5.800
34077SOL     OW 4063  13.596   9.605   6.668
34077SOL    HW1 4064  13.574   9.571   6.581
34077SOL    HW2 4065  13.690   9.623   6.664
34078SOL     OW 4066  10.547   8.952   5.041
34078SOL    HW1 4067  10.600   8.886   5.086
34078SOL    HW2 4068  10.459   8.941   5.077
34079SOL     OW 4069   6.109  12.593  12.083
34079SOL    HW1 4070   6.027  12.588  12.132
34079SOL    HW2 4071   6.121  12.687  12.066
34080SOL     OW 4072   5.893   6.242   3.750
34080SOL    HW1 4073   5.918   6.182   3.679
34080SOL    HW2 4074   5.910   6.329   3.714
34081SOL     OW 4075  10.311  10.664   0.695
34081SOL    HW1 4076  10.337  10.756   0.699
34081SOL    HW2 4077  10.383  10.621   0.648
34082SOL     OW 4078   7.410  11.216   1.912
34082SOL    HW1 4079   7.461  11.223   1.831
34082SOL    HW2 4080   7.441  11.134   1.952
34083SOL     OW 4081   7.034  13.751   9.913
34083SOL    HW1 4082   6.964  13.814   9.895
34083SOL    HW2 4083   7.111  13.787   9.870
34084SOL     OW 4084   6.495   4.536   0.478
34084SOL    HW1 4085   6.405   4.555   0.503
34084SOL    HW2 4086   6.514   4.600   0.409
34085SOL     OW 4087   0.340   9.834  10.659
34085SOL    HW1 4088   0.254   9.793  10.662
34085SOL    HW2 4089   0.395   9.772  10.611
34086SOL     OW 4090   1.694   5.030   9.844
34086SOL    HW1 4091   1.751   5.027   9.767
34086SOL    HW2 4092   1.654   5.117   9.841
34087SOL     OW 4093  10.532   9.353  13.464
34087SOL    HW1 4094  10.555   9.262  13.484
34087SOL    HW2 4095  10.598   9.405  13.511
34088SOL     OW 4096   5.836  12.173   6.153
34088SOL    HW1 4097   5.747  12.169   6.188
34088SOL    HW2 4098   5.838  12.105   6.086
34089SOL     OW 4099   4.384  11.974  10.891
34089SOL    HW1 4100   4.367  12.064  10.920
34089SOL    HW2 4101   4.376  11.921  10.970
34090SOL     OW 4102  12.548  10.602   4.347
34090SOL    HW1 4103  12.462  10.631   4.376
34090SOL    HW2 4104  12.555  10.511   4.377
34091SOL     OW 4105   2.238  12.928   8.737
34091SOL    HW1 4106   2.191  12.885   8.665
34091SOL    HW2 4107   2.178  12.995   8.768
34092SOL     OW 4108   0.107  10.279  14.463
34092SOL    HW1 4109   0.185  10.225  14.478
34092SOL    HW2 4110   0.091  10.322  14.547
34093SOL     OW 4111  11.879  14.845   7.677
34093SOL    HW1 4112  11.784  14.834   7.682
34093SOL    HW2 4113  11.913  14.755   7.671
34094SOL     OW 4114   7.402   1.502  11.969
34094SOL    HW1 4115   7.487   1.458  11.972
34094SOL    HW2 4116   7.422   1.593  11.989
34095SOL     OW 4117   5.139  13.880  13.710
34095SOL    HW1 4118   5.068  13.855  13.650
34095SOL    HW2 4119   5.115  13.967  13.741
34096SOL     OW 4120  14.668   3.971  11.167
34096SOL    HW1 4121  14.607   4.023  11.115
34096SOL    HW2 4122  14.713   3.915  11.104
34097SOL     OW 4123   0.386  13.005   4.139
34097SOL    HW1 4124   0.309  12.949   4.136
34097SOL    HW2 4125   0.369  13.066   4.211
34098SOL     OW 4126   2.563  13.093  12.719
34098SOL    HW1 4127   2.586  13.001  12.711
34098SOL    HW2 4128   2.559  13.109  12.813
34099SOL     OW 4129   8.329  14.617   7.610
34099SOL    HW1 4130   8.352  14.538   7.660
34099SOL    HW2 4131   8.281  14.671   7.672
34100SOL     OW 4132  13.191   9.718   6.565
34100SOL    HW1 4133  13.186   9.623   6.553
34100SOL    HW2 4134  13.100   9.748   6.559
34101SOL     OW 4135   7.143   9.278   6.202
34101SOL    HW1 4136   7.160   9.368   6.175
34101SOL    HW2 4137   7.144   9.228   6.121
34102SOL     OW 4138   3.392  11.147   7.252
34102SOL    HW1 4139   3.299  11.153   7.274
34102SOL    HW2 4140   3.415  11.235   7.219
34103SOL     OW 4141  12.750   5.582  13.260
34103SOL    HW1 4142  12.781   5.672  13.262
34103SOL    HW2 4143  12.824   5.530  13.293
34104SOL     OW 4144  12.744   0.703  11.140
34104SOL    HW1 4145  12.812   0.645  11.105
34104SOL    HW2 4146  12.728   0.766  11.070
34105SOL     OW 4147   1.521   4.652   8.033
34105SOL    HW1 4148   1.564   4.737   8.021
34105SOL    HW2 4149   1.450   4.651   7.970
34106SOL     OW 4150  14.465   0.468   5.481
34106SOL    HW1 4151  14.530   0.481   5.550
34106SOL    HW2 4152  14.424   0.554   5.470
34107SOL     OW 4153   3.570   6.620  10.704
34107SOL    HW1 4154   3.559   6.637  10.797
34107SOL    HW2 4155   3.651   6.666  10.680
34108SOL     OW 4156   0.217  11.744   0.282
34108SOL    HW1 4157   0.277  11.705   0.218
34108SOL    HW2 4158   0.222  11.687   0.358
34109SOL     OW 4159   9.106   3.561  10.685
34109SOL    HW1 4160   9.080   3.643  10.642
34109SOL    HW2 4161   9.202   3.568  10.690
34110SOL     OW 4162   5.134  10.742  14.024
34110SOL    HW1 4163   5.104  10.830  14.047
34110SOL    HW2 4164   5.094  10.725  13.939
34111SOL     OW 4165  12.112  11.678   1.437
34111SOL    HW1 4166  12.154  11.762   1.456
34111SOL    HW2 4167  12.073  11.651   1.520
34112SOL     OW 4168   8.807   0.499   5.811
34112SOL    HW1 4169   8.807   0.454   5.727
34112SOL    HW2 4170   8.896   0.532   5.821
34113SOL     OW 4171   9.159   3.498   0.866
34113SOL    HW1 4172   9.121   3.422   0.909
34113SOL    HW2 4173   9.106   3.510   0.787
34114SOL     OW 4174  10.536   4.527  14.582
34114SOL    HW1 4175  10.512   4.448  14.631
34114SOL    HW2 4176  10.617   4.503  14.537
34115SOL     OW 4177  13.889  11.114  10.228
34115SOL    HW1 4178  13.926  11.102  10.315
34115SOL    HW2 4179  13.869  11.025  10.197
34116SOL     OW 4180   0.683   5.994  14.198
34116SOL    HW1 4181   0.595   6.026  14.217
34116SOL    HW2 4182   0.671   5.932  14.125
34117SOL     OW 4183   2.500   7.842   5.187
34117SOL    HW1 4184   2.589   7.823   5.217
34117SOL    HW2 4185   2.471   7.913   5.244
34118SOL     OW 4186   9.479   6.830  14.649
34118SOL    HW1 4187   9.497   6.775  14.573
34118SOL    HW2 4188   9.404   6.788  14.692
34119SOL     OW 4189  10.522   1.125  10.458
34119SOL    HW1 4190  10.548   1.166  10.376
34119SOL    HW2 4191  10.540   1.032  10.445
34120SOL     OW 4192  11.636   7.056  14.431
34120SOL    HW1 4193  11.687   7.069  14.511
34120SOL    HW2 4194  11.588   7.138  14.420
34121SOL     OW 4195   3.818   4.346  10.225
34121SOL    HW1 4196   3.859   4.343  10.311
34121SOL    HW2 4197   3.836   4.260  10.187
34122SOL     OW 4198   8.967   6.965  14.414
34122SOL    HW1 4199   8.980   7.043  14.468
34122SOL    HW2 4200   8.878   6.975  14.379
34123SOL     OW 4201   9.083   4.907  12.856
34123SOL    HW1 4202   9.085   4.934  12.764
34123SOL    HW2 4203   9.004   4.853  12.863
34124SOL     OW 4204   2.179  14.152   8.349
34124SOL    HW1 4205   2.118  14.208   8.399
34124SOL    HW2 4206   2.264  14.195   8.360
34125SOL     OW 4207  11.861  13.821  11.749
34125SOL    HW1 4208  11.883  13.733  11.780
34125SOL    HW2 4209  11.835  13.809  11.658
34126SOL     OW 4210  13.957  10.628   7.595
34126SOL    HW1 4211  13.987  10.549   7.641
34126SOL    HW2 4212  14.030  10.651   7.537
34127SOL     OW 4213   7.086  10.170  12.294
34127SOL    HW1 4214   7.009  10.224  12.311
34127SOL    HW2 4215   7.147  10.230  12.250
34128SOL     OW 4216   9.330   2.060  14.236
34128SOL    HW1 4217   9.240   2.064  14.267
34128SOL    HW2 4218   9.348   1.967  14.223
34129SOL     OW 4219  13.836  14.490  10.118
34129SOL    HW1 4220  13.806  14.532  10.037
34129SOL    HW2 4221  13.770  14.423  10.136
34130SOL     OW 4222   1.116   0.808   0.934
34130SOL    HW1 4223   1.206   0.834   0.953
34130SOL    HW2 4224   1.121   0.769   0.846
34131SOL     OW 4225   0.300  10.380   7.598
34131SOL    HW1 4226   0.284  10.462   7.644
34131SOL    HW2 4227   0.276  10.399   7.507
34132SOL     OW 4228   3.013   0.329   2.294
34132SOL    HW1 4229   3.010   0.240   2.330
34132SOL    HW2 4230   3.102   0.359   2.312
34133SOL     OW 4231   5.733  11.382   6.532
34133SOL    HW1 4232   5.643  11.376   6.564
34133SOL    HW2 4233   5.749  11.297   6.490
34134SOL     OW 4234  11.580  11.968  13.394
34134SOL    HW1 4235  11.609  11.942  13.306
34134SOL    HW2 4236  11.643  11.925  13.453
34135SOL     OW 4237  10.045   5.337   2.200
34135SOL    HW1 4238  10.099   5.258   2.196
34135SOL    HW2 4239  10.079   5.385   2.275
34136SOL     OW 4240   6.039  10.241   1.757
34136SOL    HW1 4241   5.963  10.300   1.763
34136SOL    HW2 4242   6.000  10.154   1.742
34137SOL     OW 4243  12.620   7.746   3.457
34137SOL    HW1 4244  12.616   7.697   3.374
34137SOL    HW2 4245  12.704   7.792   3.452
34138SOL     OW 4246   7.525   1.034  13.037
34138SOL    HW1 4247   7.587   1.102  13.010
34138SOL    HW2 4248   7.444   1.056  12.989
34139SOL     OW 4249   1.762   6.055   8.337
34139SOL    HW1 4250   1.731   5.978   8.385
34139SOL    HW2 4251   1.833   6.022   8.282
34140SOL     OW 4252  12.320   7.339   0.085
34140SOL    HW1 4253  12.225   7.343   0.086
34140SOL    HW2 4254  12.342   7.289   0.007
34141SOL     OW 4255   4.474   7.805  10.294
34141SOL    HW1 4256   4.507   7.891  10.267
34141SOL    HW2 4257   4.382   7.806  10.268
34142SOL     OW 4258  10.001   9.494   2.558
34142SOL    HW1 4259   9.990   9.492   2.463
34142SOL    HW2 4260   9.963   9.578   2.584
34143SOL     OW 4261   3.205   0.807   4.992
34143SOL    HW1 4262   3.131   0.774   5.043
34143SOL    HW2 4263   3.278   0.751   5.017
34144SOL     OW 4264  13.552   3.175   1.274
34144SOL    HW1 4265  13.627   3.134   1.317
34144SOL    HW2 4266  13.545   3.131   1.190
34145SOL     OW 4267   1.876   0.975   4.156
34145SOL    HW1 4268   1.931   0.902   4.185
34145SOL    HW2 4269   1.790   0.957   4.194
34146SOL     OW 4270  11.923   3.380   1.676
34146SOL    HW1 4271  11.828   3.364   1.676
34146SOL    HW2 4272  11.961   3.292   1.674
34147SOL     OW 4273   6.012   7.417   8.558
34147SOL    HW1 4274   6.107   7.430   8.558
34147SOL    HW2 4275   5.998   7.340   8.614
34148SOL     OW 4276   1.839   2.146   7.651
34148SOL    HW1 4277   1.833   2.240   7.638
34148SOL    HW2 4278   1.770   2.109   7.596
34149SOL     OW 4279  10.916  12.346   6.114
34149SOL    HW1 4280  10.876  12.264   6.143
34149SOL    HW2 4281  10.844  12.409   6.114
34150SOL     OW 4282   7.986   8.789   2.955
34150SOL    HW1 4283   8.052   8.858   2.953
34150SOL    HW2 4284   7.903   8.834   2.935
34151SOL     OW 4285   9.615   2.930   1.701
34151SOL    HW1 4286   9.546   2.975   1.750
34151SOL    HW2 4287   9.649   2.864   1.763
34152SOL     OW 4288   9.459   5.042  13.342
34152SOL    HW1 4289   9.461   5.127  13.386
34152SOL    HW2 4290   9.365   5.020  13.336
34153SOL     OW 4291  12.547   1.322  13.943
34153SOL    HW1 4292  12.523   1.230  13.933
34153SOL    HW2 4293  12.603   1.324  14.021
34154SOL     OW 4294   5.346   9.100   5.057
34154SOL    HW1 4295   5.437   9.129   5.058
34154SOL    HW2 4296   5.346   9.018   5.107
34155SOL     OW 4297   9.606  10.462   9.937
34155SOL    HW1 4298   9.531  10.521   9.947
34155SOL    HW2 4299   9.573  10.392   9.879
34156SOL     OW 4300  11.969   9.662  13.810
34156SOL    HW1 4301  11.901   9.680  13.745
34156SOL    HW2 4302  11.923   9.671  13.894
34157SOL     OW 4303   4.546   3.432   6.835
34157SOL    HW1 4304   4.572   3.476   6.754
34157SOL    HW2 4305   4.618   3.450   6.896
34158SOL     OW 4306   5.797   1.031   3.432
34158SOL    HW1 4307   5.822   1.030   3.524
34158SOL    HW2 4308   5.873   0.996   3.386
34159SOL     OW 4309  14.332   8.879   5.662
34159SOL    HW1 4310  14.384   8.809   5.621
34159SOL    HW2 4311  14.380   8.900   5.742
34160SOL     OW 4312   2.753   8.242  11.465
34160SOL    HW1 4313   2.771   8.218  11.373
34160SOL    HW2 4314   2.791   8.329  11.475
34161SOL     OW 4315   3.434   8.612   6.829
34161SOL    HW1 4316   3.392   8.639   6.911
34161SOL    HW2 4317   3.380   8.653   6.761
34162SOL     OW 4318   0.610  10.896   2.329
34162SOL    HW1 4319   0.691  10.907   2.379
34162SOL    HW2 4320   0.614  10.963   2.261
34163SOL     OW 4321  12.076   8.180  10.380
34163SOL    HW1 4322  12.006   8.243  10.370
34163SOL    HW2 4323  12.036   8.096  10.357
34164SOL     OW 4324   4.946   9.395   7.124
34164SOL    HW1 4325   4.854   9.382   7.100
34164SOL    HW2 4326   4.944   9.462   7.193
34165SOL     OW 4327  12.244   3.678  13.980
34165SOL    HW1 4328  12.204   3.629  13.908
34165SOL    HW2 4329  12.336   3.685  13.957
34166SOL     OW 4330  10.288   6.191   9.742
34166SOL    HW1 4331  10.282   6.155   9.654
34166SOL    HW2 4332  10.319   6.281   9.729
34167SOL     OW 4333  12.763  11.259   2.659
34167SOL    HW1 4334  12.702  11.305   2.601
34167SOL    HW2 4335  12.784  11.322   2.728
34168SOL     OW 4336   1.493  10.506  14.143
34168SOL    HW1 4337   1.567  10.485  14.085
34168SOL    HW2 4338   1.532  10.555  14.215
34169SOL     OW 4339   2.335  12.071   2.700
34169SOL    HW1 4340   2.363  12.034   2.617
34169SOL    HW2 4341   2.413  12.071   2.755
34170SOL     OW 4342   9.298   4.664   8.964
34170SOL    HW1 4343   9.220   4.679   9.017
34170SOL    HW2 4344   9.333   4.752   8.948
34171SOL     OW 4345  11.978   8.844   6.519
34171SOL    HW1 4346  12.008   8.888   6.598
34171SOL    HW2 4347  12.033   8.879   6.449
34172SOL     OW 4348   9.236   0.401  11.780
34172SOL    HW1 4349   9.167   0.336  11.773
34172SOL    HW2 4350   9.239   0.443  11.694
34173SOL     OW 4351   6.236  10.795  12.743
34173SOL    HW1 4352   6.219  10.819  12.652
34173SOL    HW2 4353   6.315  10.743  12.740
34174SOL     OW 4354   0.210   5.917  10.812
34174SOL    HW1 4355   0.133   5.889  10.763
34174SOL    HW2 4356   0.178   5.986  10.869
34175SOL     OW 4357   3.633   4.546   4.881
34175SOL    HW1 4358   3.642   4.605   4.956
34175SOL    HW2 4359   3.722   4.532   4.851
34176SOL     OW 4360   9.074  11.291  12.792
34176SOL    HW1 4361   9.145  11.253  12.844
34176SOL    HW2 4362   9.004  11.308  12.854
34177SOL     OW 4363   0.615   7.414   3.592
34177SOL    HW1 4364   0.523   7.401   3.569
34177SOL    HW2 4365   0.639   7.498   3.553
34178SOL     OW 4366  12.527   6.005   8.172
34178SOL    HW1 4367  12.467   6.075   8.149
34178SOL    HW2 4368  12.516   5.994   8.267
34179SOL     OW 4369   6.816  13.143  12.137
34179SOL    HW1 4370   6.898  13.192  12.136
34179SOL    HW2 4371   6.760  13.191  12.197
34180SOL     OW 4372  10.273   0.261   3.456
34180SOL    HW1 4373  10.324   0.310   3.391
34180SOL    HW2 4374  10.183   0.267   3.425
34181SOL     OW 4375   4.999   5.350  11.673
34181SOL    HW1 4376   5.063   5.316  11.736
34181SOL    HW2 4377   5.048   5.415  11.622
34182SOL     OW 4378   1.210   3.715  12.164
34182SOL    HW1 4379   1.224   3.785  12.100
34182SOL    HW2 4380   1.126   3.676  12.139
34183SOL     OW 4381   6.367  11.920   5.687
34183SOL    HW1 4382   6.430  11.860   5.647
34183SOL    HW2 4383   6.295  11.863   5.716
34184SOL     OW 4384   0.772   1.580  10.233
34184SOL    HW1 4385   0.699   1.639  10.216
34184SOL    HW2 4386   0.746   1.498  10.190
34185SOL     OW 4387   1.926   2.547   2.444
34185SOL    HW1 4388   1.861   2.535   2.514
34185SOL    HW2 4389   1.991   2.478   2.459
34186SOL     OW 4390   1.745  14.245   0.679
34186SOL    HW1 4391   1.833  14.279   0.664
34186SOL    HW2 4392   1.714  14.220   0.592
34187SOL     OW 4393  10.247   5.520   5.809
34187SOL    HW1 4394  10.319   5.548   5.752
34187SOL    HW2 4395  10.173   5.574   5.782
34188SOL     OW 4396  13.366  13.018  13.894
34188SOL    HW1 4397  13.328  12.966  13.824
34188SOL    HW2 4398  13.297  13.025  13.959
34189SOL     OW 4399  12.387   5.828   7.337
34189SOL    HW1 4400  12.301   5.845   7.376
34189SOL    HW2 4401  12.374   5.844   7.244
34190SOL     OW 4402   2.192   8.495   6.006
34190SOL    HW1 4403   2.098   8.497   5.990
34190SOL    HW2 4404   2.200   8.493   6.101
34191SOL     OW 4405   8.237  14.325   3.432
34191SOL    HW1 4406   8.209  14.415   3.414
34191SOL    HW2 4407   8.252  14.323   3.526
34192SOL     OW 4408  10.627   8.789  14.586
34192SOL    HW1 4409  10.688   8.756  14.652
34192SOL    HW2 4410  10.545   8.744  14.605
34193SOL     OW 4411  13.173   7.738  13.247
34193SOL    HW1 4412  13.182   7.730  13.152
34193SOL    HW2 4413  13.262   7.756  13.278
34194SOL     OW 4414  12.501  10.826   7.856
34194SOL    HW1 4415  12.546  10.742   7.865
34194SOL    HW2 4416  12.464  10.825   7.768
34195SOL     OW 4417   1.272   2.581  12.585
34195SOL    HW1 4418   1.367   2.574  12.578
34195SOL    HW2 4419   1.250   2.660  12.536
34196SOL     OW 4420   9.655   1.312   2.855
34196SOL    HW1 4421   9.628   1.289   2.766
34196SOL    HW2 4422   9.627   1.403   2.866
34197SOL     OW 4423   1.388   4.056   0.160
34197SOL    HW1 4424   1.456   4.124   0.167
34197SOL    HW2 4425   1.437   3.973   0.164
34198SOL     OW 4426  12.268   3.033  14.358
34198SOL    HW1 4427  12.314   2.949  14.355
34198SOL    HW2 4428  12.322   3.092  14.306
34199SOL     OW 4429  11.747   2.706  13.556
34199SOL    HW1 4430  11.771   2.691  13.647
34199SOL    HW2 4431  11.665   2.658  13.545
34200SOL     OW 4432  12.793   2.610   0.944
34200SOL    HW1 4433  12.857   2.676   0.917
34200SOL    HW2 4434  12.710   2.641   0.908
34201SOL     OW 4435   6.758  12.498   5.657
34201SOL    HW1 4436   6.808  12.448   5.722
34201SOL    HW2 4437   6.676  12.519   5.701
34202SOL     OW 4438   0.582   5.569   3.863
34202SOL    HW1 4439   0.534   5.517   3.928
34202SOL    HW2 4440   0.664   5.591   3.906
34203SOL     OW 4441  12.467   8.080   6.552
34203SOL    HW1 4442  12.494   8.016   6.486
34203SOL    HW2 4443  12.419   8.029   6.617
34204SOL     OW 4444   1.138  12.720   2.961
34204SOL    HW1 4445   1.160  12.661   3.033
34204SOL    HW2 4446   1.180  12.803   2.983
34205SOL     OW 4447  10.144   0.879  12.083
34205SOL    HW1 4448  10.211   0.912  12.023
34205SOL    HW2 4449  10.168   0.787  12.098
34206SOL     OW 4450  11.816   6.266  11.930
34206SOL    HW1 4451  11.829   6.270  12.025
34206SOL    HW2 4452  11.723   6.248  11.919
34207SOL     OW 4453  10.046  10.515  10.221
34207SOL    HW1 4454   9.970  10.469  10.187
34207SOL    HW2 4455  10.019  10.549  10.306
34208SOL     OW 4456  12.305   4.057  13.970
34208SOL    HW1 4457  12.258   4.003  13.907
34208SOL    HW2 4458  12.387   4.079  13.926
34209SOL     OW 4459   6.687  13.392  13.350
34209SOL    HW1 4460   6.682  13.348  13.265
34209SOL    HW2 4461   6.676  13.485  13.330
34210SOL     OW 4462   0.545   3.477   7.115
34210SOL    HW1 4463   0.477   3.483   7.182
34210SOL    HW2 4464   0.566   3.383   7.112
34211SOL     OW 4465  11.264   6.207  11.904
34211SOL    HW1 4466  11.345   6.199  11.853
34211SOL    HW2 4467  11.211   6.270  11.855
34212SOL     OW 4468   2.899   5.280   9.019
34212SOL    HW1 4469   2.983   5.280   8.973
34212SOL    HW2 4470   2.834   5.266   8.951
34213SOL     OW 4471  12.674  13.615   7.838
34213SOL    HW1 4472  12.581  13.590   7.838
34213SOL    HW2 4473  12.692  13.639   7.928
34214SOL     OW 4474   9.111   7.071  14.672
34214SOL    HW1 4475   9.195   7.112  14.653
34214SOL    HW2 4476   9.046   7.136  14.644
34215SOL     OW 4477   3.896   5.456  14.350
34215SOL    HW1 4478   3.802   5.459  14.333
34215SOL    HW2 4479   3.924   5.548  14.348
34216SOL     OW 4480  11.677  14.285  10.113
34216SOL    HW1 4481  11.656  14.292  10.019
34216SOL    HW2 4482  11.608  14.230  10.149
34217SOL     OW 4483   0.733  12.479  11.636
34217SOL    HW1 4484   0.762  12.390  11.615
34217SOL    HW2 4485   0.707  12.475  11.728
34218SOL     OW 4486   0.807  12.373  14.181
34218SOL    HW1 4487   0.769  12.318  14.113
34218SOL    HW2 4488   0.732  12.417  14.221
34219SOL     OW 4489  10.107   0.793  13.621
34219SOL    HW1 4490  10.198   0.803  13.592
34219SOL    HW2 4491  10.097   0.857  13.691
34220SOL     OW 4492   7.042  13.709   6.127
34220SOL    HW1 4493   7.054  13.790   6.077
34220SOL    HW2 4494   6.976  13.732   6.193
34221SOL     OW 4495   0.426  12.882   0.498
34221SOL    HW1 4496   0.398  12.797   0.531
34221SOL    HW2 4497   0.396  12.883   0.407
34222SOL     OW 4498  14.434   9.539  14.064
34222SOL    HW1 4499  14.461   9.491  13.986
34222SOL    HW2 4500  14.482   9.621  14.059
34223SOL     OW 4501   0.144  11.742  12.154
34223SOL    HW1 4502   0.071  11.693  12.193
34223SOL    HW2 4503   0.171  11.804  12.222
34224SOL     OW 4504   0.272  13.778   6.246
34224SOL    HW1 4505   0.184  13.759   6.211
34224SOL    HW2 4506   0.273  13.735   6.331
34225SOL     OW 4507   1.230  14.421   4.838
34225SOL    HW1 4508   1.251  14.506   4.879
34225SOL    HW2 4509   1.187  14.372   4.908
34226SOL     OW 4510  14.231  11.479   6.962
34226SOL    HW1 4511  14.276  11.541   7.019
34226SOL    HW2 4512  14.174  11.533   6.908
34227SOL     OW 4513   7.868   6.578   9.889
34227SOL    HW1 4514   7.921   6.524   9.946
34227SOL    HW2 4515   7.821   6.516   9.834
34228SOL     OW 4516  11.217   2.059   8.047
34228SOL    HW1 4517  11.155   2.099   8.108
34228SOL    HW2 4518  11.303   2.089   8.078
34229SOL     OW 4519   3.632   2.751   6.179
34229SOL    HW1 4520   3.575   2.750   6.256
34229SOL    HW2 4521   3.684   2.671   6.187
34230SOL     OW 4522   4.760   2.868   7.411
34230SOL    HW1 4523   4.765   2.836   7.501
34230SOL    HW2 4524   4.849   2.858   7.377
34231SOL     OW 4525  13.995   4.531   4.584
34231SOL    HW1 4526  13.992   4.622   4.553
34231SOL    HW2 4527  14.088   4.508   4.581
34232SOL     OW 4528   3.618   6.273  13.345
34232SOL    HW1 4529   3.568   6.223  13.280
34232SOL    HW2 4530   3.561   6.346  13.369
34233SOL     OW 4531   5.816   7.104   5.671
34233SOL    HW1 4532   5.896   7.108   5.619
34233SOL    HW2 4533   5.819   7.182   5.726
34234SOL     OW 4534  11.525  12.564  13.518
34234SOL    HW1 4535  11.600  12.507  13.534
34234SOL    HW2 4536  11.449  12.507  13.528
34235SOL     OW 4537  10.271  10.502   5.210
34235SOL    HW1 4538  10.344  10.480   5.152
34235SOL    HW2 4539  10.313  10.525   5.293
34236SOL     OW 4540  10.721  11.246   7.023
34236SOL    HW1 4541  10.662  11.175   7.049
34236SOL    HW2 4542  10.786  11.204   6.967
34237SOL     OW 4543   4.638  14.506  12.709
34237SOL    HW1 4544   4.593  14.588  12.724
34237SOL    HW2 4545   4.645  14.498  12.614
34238SOL     OW 4546   5.219   3.123  11.475
34238SOL    HW1 4547   5.285   3.156  11.535
34238SOL    HW2 4548   5.165   3.065  11.528
34239SOL     OW 4549  11.387   3.054   8.853
34239SOL    HW1 4550  11.426   2.984   8.906
34239SOL    HW2 4551  11.402   3.134   8.904
34240SOL     OW 4552   2.629   5.145   6.530
34240SOL    HW1 4553   2.654   5.119   6.618
34240SOL    HW2 4554   2.639   5.240   6.529
34241SOL     OW 4555   8.476   0.810   5.215
34241SOL    HW1 4556   8.475   0.906   5.211
34241SOL    HW2 4557   8.510   0.783   5.130
34242SOL     OW 4558   5.651  14.106  11.995
34242SOL    HW1 4559   5.595  14.165  11.945
34242SOL    HW2 4560   5.664  14.151  12.078
34243SOL     OW 4561  13.586  10.857   2.232
34243SOL    HW1 4562  13.503  10.811   2.246
34243SOL    HW2 4563  13.563  10.929   2.174
34244SOL     OW 4564   9.142   7.497   8.361
34244SOL    HW1 4565   9.147   7.407   8.393
34244SOL    HW2 4566   9.160   7.490   8.267
34245SOL     OW 4567  13.970   2.273  10.636
34245SOL    HW1 4568  13.966   2.229  10.721
34245SOL    HW2 4569  14.062   2.297  10.626
34246SOL     OW 4570   6.706  13.566  10.301
34246SOL    HW1 4571   6.772  13.503  10.272
34246SOL    HW2 4572   6.677  13.533  10.386
34247SOL     OW 4573   9.750   6.009   0.009
34247SOL    HW1 4574   9.835   6.040  14.852
34247SOL    HW2 4575   9.696   6.010  14.802
34248SOL     OW 4576   8.939   2.664  13.798
34248SOL    HW1 4577   9.023   2.708  13.782
34248SOL    HW2 4578   8.963   2.576  13.828
34249SOL     OW 4579   7.388  13.619   1.434
34249SOL    HW1 4580   7.342  13.702   1.425
34249SOL    HW2 4581   7.474  13.642   1.470
34250SOL     OW 4582   1.410   6.112  13.233
34250SOL    HW1 4583   1.337   6.158  13.275
34250SOL    HW2 4584   1.485   6.129  13.290
34251SOL     OW 4585   9.040   6.130  14.449
34251SOL    HW1 4586   8.971   6.063  14.450
34251SOL    HW2 4587   9.005   6.200  14.394
34252SOL     OW 4588   9.335  13.194  13.420
34252SOL    HW1 4589   9.270  13.239  13.475
34252SOL    HW2 4590   9.412  13.187  13.475
34253SOL     OW 4591  13.635   0.596   1.663
34253SOL    HW1 4592  13.554   0.626   1.620
34253SOL    HW2 4593  13.629   0.501   1.663
34254SOL     OW 4594   6.392  13.177   3.025
34254SOL    HW1 4595   6.457  13.174   2.955
34254SOL    HW2 4596   6.402  13.264   3.063
34255SOL     OW 4597   3.469  12.595  14.276
34255SOL    HW1 4598   3.484  12.675  14.327
34255SOL    HW2 4599   3.507  12.525  14.330
34256SOL     OW 4600   6.902   6.558   8.958
34256SOL    HW1 4601   6.879   6.481   8.905
34256SOL    HW2 4602   6.891   6.632   8.899
34257SOL     OW 4603   5.294   5.387   7.110
34257SOL    HW1 4604   5.368   5.360   7.056
34257SOL    HW2 4605   5.227   5.320   7.094
34258SOL     OW 4606  11.029   4.665  12.264
34258SOL    HW1 4607  11.030   4.573  12.292
34258SOL    HW2 4608  10.991   4.712  12.337
34259SOL     OW 4609   5.263   6.881   4.946
34259SOL    HW1 4610   5.356   6.900   4.935
34259SOL    HW2 4611   5.241   6.919   5.031
34260SOL     OW 4612   0.019   6.044   1.341
34260SOL    HW1 4613   0.018   6.089   1.425
34260SOL    HW2 4614  14.825   5.976   1.349
34261SOL     OW 4615   5.707   4.032  13.278
34261SOL    HW1 4616   5.726   4.022  13.184
34261SOL    HW2 4617   5.617   4.000  13.288
34262SOL     OW 4618   1.539   3.964   1.745
34262SOL    HW1 4619   1.608   3.963   1.679
34262SOL    HW2 4620   1.462   3.929   1.700
34263SOL     OW 4621   9.260   1.095  10.099
34263SOL    HW1 4622   9.261   1.121  10.191
34263SOL    HW2 4623   9.257   1.178  10.051
34264SOL     OW 4624  10.548  12.298   6.990
34264SOL    HW1 4625  10.457  12.274   6.974
34264SOL    HW2 4626  10.585  12.222   7.035
34265SOL     OW 4627   5.451  10.136   3.901
34265SOL    HW1 4628   5.495  10.208   3.856
34265SOL    HW2 4629   5.515  10.065   3.901
34266SOL     OW 4630  12.794  10.711   5.196
34266SOL    HW1 4631  12.883  10.681   5.213
34266SOL    HW2 4632  12.765  10.660   5.121
34267SOL     OW 4633   8.739   0.359  12.932
34267SOL    HW1 4634   8.777   0.446  12.918
34267SOL    HW2 4635   8.711   0.361  13.024
34268SOL     OW 4636   4.246   2.708  13.493
34268SOL    HW1 4637   4.277   2.704  13.402
34268SOL    HW2 4638   4.262   2.799  13.519
34269SOL     OW 4639   1.384   1.936   4.442
34269SOL    HW1 4640   1.462   1.991   4.451
34269SOL    HW2 4641   1.344   1.964   4.360
34270SOL     OW 4642   0.837   4.948  12.237
34270SOL    HW1 4643   0.798   4.949  12.150
34270SOL    HW2 4644   0.886   5.030  12.243
34271SOL     OW 4645   6.671  12.136   0.532
34271SOL    HW1 4646   6.646  12.208   0.474
34271SOL    HW2 4647   6.626  12.155   0.614
34272SOL     OW 4648  14.816   1.914   9.449
34272SOL    HW1 4649  14.765   1.893   9.370
34272SOL    HW2 4650  14.756   1.966   9.503
34273SOL     OW 4651   8.492   8.415  12.533
34273SOL    HW1 4652   8.440   8.470  12.473
34273SOL    HW2 4653   8.543   8.478  12.584
34274SOL     OW 4654  11.028   1.419   8.668
34274SOL    HW1 4655  10.975   1.491   8.701
34274SOL    HW2 4656  11.114   1.432   8.709
34275SOL     OW 4657  11.771   6.525  11.628
34275SOL    HW1 4658  11.764   6.431  11.646
34275SOL    HW2 4659  11.682   6.551  11.606
34276SOL     OW 4660  11.159  14.636   1.387
34276SOL    HW1 4661  11.240  14.592   1.414
34276SOL    HW2 4662  11.188  14.699   1.321
34277SOL     OW 4663   8.719  14.226   2.123
34277SOL    HW1 4664   8.740  14.144   2.167
34277SOL    HW2 4665   8.676  14.279   2.190
34278SOL     OW 4666  10.444   7.223   5.206
34278SOL    HW1 4667  10.513   7.289   5.203
34278SOL    HW2 4668  10.473   7.160   5.272
34279SOL     OW 4669  11.319   2.740  11.572
34279SOL    HW1 4670  11.259   2.671  11.601
34279SOL    HW2 4671  11.263   2.816  11.560
34280SOL     OW 4672   1.109   8.410  13.821
34280SOL    HW1 4673   1.023   8.371  13.838
34280SOL    HW2 4674   1.154   8.344  13.767
34281SOL     OW 4675   1.096  12.760   9.590
34281SOL    HW1 4676   1.062  12.746   9.501
34281SOL    HW2 4677   1.190  12.742   9.583
34282SOL     OW 4678   6.568   4.998   5.958
34282SOL    HW1 4679   6.505   5.070   5.954
34282SOL    HW2 4680   6.547   4.944   5.882
34283SOL     OW 4681  11.172   8.715   8.306
34283SOL    HW1 4682  11.147   8.808   8.303
34283SOL    HW2 4683  11.214   8.699   8.221
34284SOL     OW 4684   7.271   7.805   7.825
34284SOL    HW1 4685   7.290   7.899   7.833
34284SOL    HW2 4686   7.244   7.793   7.734
34285SOL     OW 4687   4.346   5.714  11.005
34285SOL    HW1 4688   4.319   5.716  10.913
34285SOL    HW2 4689   4.408   5.641  11.010
34286SOL     OW 4690  12.060   6.889   9.012
34286SOL    HW1 4691  12.080   6.982   8.998
34286SOL    HW2 4692  12.007   6.888   9.092
34287SOL     OW 4693   4.352   5.598   1.328
34287SOL    HW1 4694   4.432   5.650   1.336
34287SOL    HW2 4695   4.305   5.637   1.254
34288SOL     OW 4696   8.564   3.149   4.253
34288SOL    HW1 4697   8.626   3.209   4.212
34288SOL    HW2 4698   8.553   3.078   4.191
34289SOL     OW 4699   2.537  13.400  11.381
34289SOL    HW1 4700   2.462  13.362  11.336
34289SOL    HW2 4701   2.527  13.374  11.472
34290SOL     OW 4702  10.083   4.466  14.339
34290SOL    HW1 4703  10.176   4.474  14.316
34290SOL    HW2 4704  10.070   4.372  14.353
34291SOL     OW 4705  14.483   9.894   2.631
34291SOL    HW1 4706  14.508   9.983   2.657
34291SOL    HW2 4707  14.429   9.906   2.553
34292SOL     OW 4708  12.939   0.663   0.410
34292SOL    HW1 4709  12.993   0.598   0.366
34292SOL    HW2 4710  12.876   0.691   0.343
34293SOL     OW 4711  13.007  11.281   3.126
34293SOL    HW1 4712  13.022  11.239   3.210
34293SOL    HW2 4713  13.024  11.213   3.061
34294SOL     OW 4714  10.798   5.185   1.713
34294SOL    HW1 4715  10.774   5.110   1.659
34294SOL    HW2 4716  10.722   5.243   1.708
34295SOL     OW 4717  12.011   1.757   9.151
34295SOL    HW1 4718  11.983   1.848   9.143
34295SOL    HW2 4719  11.932   1.706   9.136
34296SOL     OW 4720   9.787  13.446  13.673
34296SOL    HW1 4721   9.750  13.377  13.617
34296SOL    HW2 4722   9.872  13.410  13.700
34297SOL     OW 4723   8.374   2.824  12.869
34297SOL    HW1 4724   8.440   2.779  12.816
34297SOL    HW2 4725   8.291   2.793  12.834
34298SOL     OW 4726   9.863   5.581   6.263
34298SOL    HW1 4727   9.777   5.552   6.291
34298SOL    HW2 4728   9.872   5.669   6.300
34299SOL     OW 4729   6.724   2.384   6.099
34299SOL    HW1 4730   6.629   2.387   6.111
34299SOL    HW2 4731   6.736   2.331   6.020
34300SOL     OW 4732   4.523   7.003  13.459
34300SOL    HW1 4733   4.550   6.966  13.375
34300SOL    HW2 4734   4.584   7.076  13.472
34301SOL     OW 4735  14.005  14.533   7.594
34301SOL    HW1 4736  13.946  14.510   7.522
34301SOL    HW2 4737  14.082  14.570   7.550
34302SOL     OW 4738  11.362  11.641   2.431
34302SOL    HW1 4739  11.426  11.651   2.361
34302SOL    HW2 4740  11.414  11.610   2.506
34303SOL     OW 4741   9.738   4.949   2.283
34303SOL    HW1 4742   9.809   4.926   2.223
34303SOL    HW2 4743   9.771   5.024   2.332
34304SOL     OW 4744   5.877  12.340  13.141
34304SOL    HW1 4745   5.958  12.356  13.190
34304SOL    HW2 4746   5.900  12.356  13.050
34305SOL     OW 4747   7.314   7.778   2.407
34305SOL    HW1 4748   7.337   7.863   2.445
34305SOL    HW2 4749   7.363   7.714   2.460
34306SOL     OW 4750  10.231   9.525   6.958
34306SOL    HW1 4751  10.281   9.456   6.913
34306SOL    HW2 4752  10.145   9.523   6.917
34307SOL     OW 4753   1.548   7.994   6.157
34307SOL    HW1 4754   1.573   7.920   6.213
34307SOL    HW2 4755   1.572   8.071   6.207
34308SOL     OW 4756  11.397   0.813   2.450
34308SOL    HW1 4757  11.351   0.879   2.502
34308SOL    HW2 4758  11.340   0.797   2.375
34309SOL     OW 4759  13.522  13.901   8.007
34309SOL    HW1 4760  13.496  13.993   8.013
34309SOL    HW2 4761  13.590  13.891   8.074
34310SOL     OW 4762  13.612  12.814  12.381
34310SOL    HW1 4763  13.646  12.750  12.319
34310SOL    HW2 4764  13.551  12.867  12.331
34311SOL     OW 4765   8.098   0.253   7.206
34311SOL    HW1 4766   8.061   0.229   7.291
34311SOL    HW2 4767   8.094   0.173   7.154
34312SOL     OW 4768   2.363  14.661   8.206
34312SOL    HW1 4769   2.324  14.647   8.119
34312SOL    HW2 4770   2.396  14.751   8.203
34313SOL     OW 4771  13.334   5.765   0.000
34313SOL    HW1 4772  13.268   5.766  14.803
34313SOL    HW2 4773  13.282   5.754   0.080
34314SOL     OW 4774   8.907   4.447   4.366
34314SOL    HW1 4775   8.841   4.509   4.396
34314SOL    HW2 4776   8.966   4.436   4.441
34315SOL     OW 4777  13.623   7.616  11.304
34315SOL    HW1 4778  13.701   7.567  11.277
34315SOL    HW2 4779  13.555   7.550  11.315
34316SOL     OW 4780   0.899  10.390  12.989
34316SOL    HW1 4781   0.933  10.316  12.940
34316SOL    HW2 4782   0.899  10.462  12.927
34317SOL     OW 4783  14.156  13.607   8.235
34317SOL    HW1 4784  14.207  13.545   8.288
34317SOL    HW2 4785  14.214  13.682   8.223
34318SOL     OW 4786   5.151  10.925   8.766
34318SOL    HW1 4787   5.241  10.896   8.749
34318SOL    HW2 4788   5.105  10.845   8.791
34319SOL     OW 4789   0.765  11.884   2.870
34319SOL    HW1 4790   0.797  11.877   2.959
34319SOL    HW2 4791   0.694  11.820   2.864
34320SOL     OW 4792   9.368   1.572   9.610
34320SOL    HW1 4793   9.429   1.635   9.571
34320SOL    HW2 4794   9.406   1.551   9.695
34321SOL     OW 4795  11.262  11.982  12.922
34321SOL    HW1 4796  11.323  11.946  12.857
34321SOL    HW2 4797  11.178  11.983  12.878
34322SOL     OW 4798   1.852   4.753  13.093
34322SOL    HW1 4799   1.836   4.661  13.072
34322SOL    HW2 4800   1.913   4.783  13.026
34323SOL     OW 4801   6.168   9.236   9.486
34323SOL    HW1 4802   6.076   9.250   9.462
34323SOL    HW2 4803   6.178   9.141   9.486
34324SOL     OW 4804   5.152   1.056   5.532
34324SOL    HW1 4805   5.153   1.046   5.437
34324SOL    HW2 4806   5.061   1.040   5.557
34325SOL     OW 4807  11.764   1.537  12.227
34325SOL    HW1 4808  11.829   1.587  12.277
34325SOL    HW2 4809  11.771   1.571  12.138
34326SOL     OW 4810   3.151  13.206   4.385
34326SOL    HW1 4811   3.094  13.144   4.430
34326SOL    HW2 4812   3.237  13.164   4.386
34327SOL     OW 4813  12.741   5.751   5.951
34327SOL    HW1 4814  12.666   5.807   5.969
34327SOL    HW2 4815  12.810   5.812   5.924
34328SOL     OW 4816   1.511   5.906   1.841
34328SOL    HW1 4817   1.578   5.957   1.887
34328SOL    HW2 4818   1.438   5.968   1.830
34329SOL     OW 4819   1.847   9.004   7.529
34329SOL    HW1 4820   1.877   8.996   7.439
34329SOL    HW2 4821   1.877   8.924   7.572
34330SOL     OW 4822   5.262   5.012   4.553
34330SOL    HW1 4823   5.171   5.036   4.571
34330SOL    HW2 4824   5.304   5.094   4.529
34331SOL     OW 4825  12.416  14.649  13.139
34331SOL    HW1 4826  12.346  14.603  13.185
34331SOL    HW2 4827  12.438  14.592  13.065
34332SOL     OW 4828   2.019  11.999  10.673
34332SOL    HW1 4829   2.049  11.972  10.586
34332SOL    HW2 4830   2.045  12.091  10.681
34333SOL     OW 4831  13.995   1.402   7.200
34333SOL    HW1 4832  14.004   1.322   7.149
34333SOL    HW2 4833  14.085   1.425   7.224
34334SOL     OW 4834   8.630  10.874  12.858
34334SOL    HW1 4835   8.569  10.855  12.787
34334SOL    HW2 4836   8.711  10.898  12.813
34335SOL     OW 4837   0.317   6.502   4.206
34335SOL    HW1 4838   0.330   6.490   4.300
34335SOL    HW2 4839   0.280   6.590   4.199
34336SOL     OW 4840  10.964   5.756   0.500
34336SOL    HW1 4841  10.999   5.710   0.424
34336SOL    HW2 4842  10.936   5.841   0.466
34337SOL     OW 4843   8.522   4.406   1.988
34337SOL    HW1 4844   8.511   4.443   1.900
34337SOL    HW2 4845   8.535   4.482   2.044
34338SOL     OW 4846   9.218  11.334  12.292
34338SOL    HW1 4847   9.243  11.343  12.384
34338SOL    HW2 4848   9.289  11.283  12.253
34339SOL     OW 4849  14.561  13.169   0.251
34339SOL    HW1 4850  14.568  13.076   0.274
34339SOL    HW2 4851  14.525  13.168   0.162
34340SOL     OW 4852   3.769  13.823  12.613
34340SOL    HW1 4853   3.813  13.907  12.602
34340SOL    HW2 4854   3.833  13.758  12.584
34341SOL     OW 4855  13.628   8.426   2.414
34341SOL    HW1 4856  13.607   8.364   2.484
34341SOL    HW2 4857  13.629   8.512   2.456
34342SOL     OW 4858   7.838   7.780   5.323
34342SOL    HW1 4859   7.850   7.718   5.395
34342SOL    HW2 4860   7.810   7.727   5.249
34343SOL     OW 4861  10.495  13.434   6.939
34343SOL    HW1 4862  10.446  13.403   7.015
34343SOL    HW2 4863  10.428  13.462   6.877
34344SOL     OW 4864   8.556  11.225   4.956
34344SOL    HW1 4865   8.583  11.149   4.904
34344SOL    HW2 4866   8.597  11.300   4.913
34345SOL     OW 4867   7.170   8.552  11.379
34345SOL    HW1 4868   7.125   8.561  11.463
34345SOL    HW2 4869   7.218   8.635  11.369
34346SOL     OW 4870   6.543  13.491   3.712
34346SOL    HW1 4871   6.555  13.399   3.688
34346SOL    HW2 4872   6.630  13.530   3.702
34347SOL     OW 4873   1.952   0.056   8.670
34347SOL    HW1 4874   1.867   0.028   8.706
34347SOL    HW2 4875   1.996  14.848   8.647
34348SOL     OW 4876   0.494  13.029   8.386
34348SOL    HW1 4877   0.555  12.995   8.452
34348SOL    HW2 4878   0.542  13.023   8.303
34349SOL     OW 4879   4.944   8.236   0.852
34349SOL    HW1 4880   4.899   8.264   0.772
34349SOL    HW2 4881   4.874   8.226   0.917
34350SOL     OW 4882   4.600  10.588   0.782
34350SOL    HW1 4883   4.576  10.623   0.696
34350SOL    HW2 4884   4.537  10.517   0.798
34351SOL     OW 4885   5.207  11.715   7.629
34351SOL    HW1 4886   5.152  11.683   7.557
34351SOL    HW2 4887   5.252  11.791   7.592
34352SOL     OW 4888   9.724   5.872  11.672
34352SOL    HW1 4889   9.776   5.841  11.598
34352SOL    HW2 4890   9.658   5.929  11.633
34353SOL     OW 4891  13.000   6.447   7.516
34353SOL    HW1 4892  12.910   6.438   7.485
34353SOL    HW2 4893  13.041   6.509   7.455
34354SOL     OW 4894  10.836  11.412  12.859
34354SOL    HW1 4895  10.836  11.404  12.954
34354SOL    HW2 4896  10.929  11.410  12.835
34355SOL     OW 4897   4.255   6.669   2.815
34355SOL    HW1 4898   4.167   6.648   2.785
34355SOL    HW2 4899   4.297   6.584   2.829
34356SOL     OW 4900  11.413   8.586   0.799
34356SOL    HW1 4901  11.369   8.540   0.727
34356SOL    HW2 4902  11.415   8.522   0.870
34357SOL     OW 4903   2.408   0.457   7.338
34357SOL    HW1 4904   2.503   0.454   7.341
34357SOL    HW2 4905   2.388   0.520   7.269
34358SOL     OW 4906   6.493  11.290   2.277
34358SOL    HW1 4907   6.557  11.220   2.287
34358SOL    HW2 4908   6.470  11.288   2.184
34359SOL     OW 4909  11.988   8.155   4.539
34359SOL    HW1 4910  11.938   8.231   4.570
34359SOL    HW2 4911  11.926   8.107   4.484
34360SOL     OW 4912  10.783   3.723  13.804
34360SOL    HW1 4913  10.710   3.683  13.852
34360SOL    HW2 4914  10.832   3.649  13.769
34361SOL     OW 4915   2.934   4.814   4.195
34361SOL    HW1 4916   3.024   4.828   4.167
34361SOL    HW2 4917   2.898   4.902   4.205
34362SOL     OW 4918   7.282   1.148   4.621
34362SOL    HW1 4919   7.285   1.214   4.691
34362SOL    HW2 4920   7.331   1.074   4.656
34363SOL     OW 4921   4.186   9.207  12.283
34363SOL    HW1 4922   4.260   9.155  12.251
34363SOL    HW2 4923   4.213   9.237  12.370
34364SOL     OW 4924   1.114  10.608   5.425
34364SOL    HW1 4925   1.196  10.565   5.401
34364SOL    HW2 4926   1.140  10.677   5.486
34365SOL     OW 4927   4.092   7.001  11.380
34365SOL    HW1 4928   4.160   7.063  11.355
34365SOL    HW2 4929   4.097   6.996  11.476
34366SOL     OW 4930  14.134   8.839   9.892
34366SOL    HW1 4931  14.223   8.875   9.898
34366SOL    HW2 4932  14.095   8.886   9.818
34367SOL     OW 4933  10.220  14.095   5.645
34367SOL    HW1 4934  10.208  14.001   5.659
34367SOL    HW2 4935  10.265  14.125   5.724
34368SOL     OW 4936   3.699  10.285   3.341
34368SOL    HW1 4937   3.611  10.284   3.378
34368SOL    HW2 4938   3.698  10.358   3.279
34369SOL     OW 4939  13.502   6.040  11.880
34369SOL    HW1 4940  13.505   6.051  11.975
34369SOL    HW2 4941  13.450   6.114  11.849
34370SOL     OW 4942  10.652   9.304   4.066
34370SOL    HW1 4943  10.577   9.246   4.080
34370SOL    HW2 4944  10.630   9.383   4.115
34371SOL     OW 4945   2.979  14.871   9.984
34371SOL    HW1 4946   2.961  14.813  10.058
34371SOL    HW2 4947   2.945   0.083  10.011
34372SOL     OW 4948   3.128   2.997  11.800
34372SOL    HW1 4949   3.187   2.943  11.747
34372SOL    HW2 4950   3.142   2.968  11.890
34373SOL     OW 4951   6.300  14.475   2.728
34373SOL    HW1 4952   6.274  14.459   2.637
34373SOL    HW2 4953   6.263  14.561   2.748
34374SOL     OW 4954   0.467   2.207  11.899
34374SOL    HW1 4955   0.551   2.221  11.855
34374SOL    HW2 4956   0.417   2.151  11.839
34375SOL     OW 4957   0.961   6.390   5.517
34375SOL    HW1 4958   1.036   6.339   5.547
34375SOL    HW2 4959   0.989   6.481   5.524
34376SOL     OW 4960  12.018   8.196   2.779
34376SOL    HW1 4961  12.100   8.153   2.757
34376SOL    HW2 4962  12.030   8.287   2.752
34377SOL     OW 4963  14.767  13.873   0.743
34377SOL    HW1 4964  14.689  13.895   0.691
34377SOL    HW2 4965  14.834  13.852   0.678
34378SOL     OW 4966  10.808  10.484   1.964
34378SOL    HW1 4967  10.880  10.499   1.903
34378SOL    HW2 4968  10.851  10.466   2.048
34379SOL     OW 4969   0.178  12.842   2.860
34379SOL    HW1 4970   0.133  12.794   2.791
34379SOL    HW2 4971   0.270  12.814   2.852
34380SOL     OW 4972   0.434  12.743  13.655
34380SOL    HW1 4973   0.473  12.656  13.643
34380SOL    HW2 4974   0.393  12.739  13.741
34381SOL     OW 4975  13.933   7.174   3.934
34381SOL    HW1 4976  13.919   7.082   3.959
34381SOL    HW2 4977  14.028   7.183   3.931
34382SOL     OW 4978  12.181  13.054   4.839
34382SOL    HW1 4979  12.247  12.992   4.870
34382SOL    HW2 4980  12.215  13.083   4.754
34383SOL     OW 4981  13.054   7.422   5.589
34383SOL    HW1 4982  13.101   7.406   5.507
34383SOL    HW2 4983  13.027   7.514   5.584
34384SOL     OW 4984   7.095  10.692  10.003
34384SOL    HW1 4985   7.069  10.709  10.094
34384SOL    HW2 4986   7.030  10.738   9.950
34385SOL     OW 4987   0.815   6.084   6.618
34385SOL    HW1 4988   0.898   6.043   6.592
34385SOL    HW2 4989   0.785   6.032   6.692
34386SOL     OW 4990  14.096  14.185  13.247
34386SOL    HW1 4991  14.072  14.230  13.166
34386SOL    HW2 4992  14.118  14.255  13.309
34387SOL     OW 4993   4.004   7.570  13.455
34387SOL    HW1 4994   4.058   7.590  13.378
34387SOL    HW2 4995   4.013   7.647  13.511
34388SOL     OW 4996   3.304   3.723   7.755
34388SOL    HW1 4997   3.373   3.672   7.712
34388SOL    HW2 4998   3.306   3.694   7.846
34389SOL     OW 4999  12.899   2.635  12.916
34389SOL    HW1 5000  12.957   2.682  12.856
34389SOL    HW2 5001  12.936   2.546  12.920
34390SOL     OW 5002   4.550   1.284   9.717
34390SOL    HW1 5003   4.602   1.220   9.766
34390SOL    HW2 5004   4.597   1.292   9.633
34391SOL     OW 5005   4.485   9.885   3.939
34391SOL    HW1 5006   4.572   9.849   3.917
34391SOL    HW2 5007   4.439   9.887   3.855
34392SOL     OW 5008   7.113  10.806   1.589
34392SOL    HW1 5009   7.031  10.849   1.613
34392SOL    HW2 5010   7.145  10.856   1.514
34393SOL     OW 5011   9.725  13.849  10.652
34393SOL    HW1 5012   9.729  13.775  10.713
34393SOL    HW2 5013   9.785  13.914  10.689
34394SOL     OW 5014   4.055  12.657   3.651
34394SOL    HW1 5015   4.008  12.637   3.732
34394SOL    HW2 5016   4.004  12.727   3.611
34395SOL     OW 5017   8.569   4.642  10.327
34395SOL    HW1 5018   8.557   4.566  10.384
34395SOL    HW2 5019   8.529   4.715  10.376
34396SOL     OW 5020  11.093   0.392   2.475
34396SOL    HW1 5021  11.127   0.345   2.551
34396SOL    HW2 5022  11.147   0.471   2.470
34397SOL     OW 5023  14.338  12.562   9.691
34397SOL    HW1 5024  14.304  12.606   9.768
34397SOL    HW2 5025  14.426  12.599   9.679
34398SOL     OW 5026   9.796  10.370   1.180
34398SOL    HW1 5027   9.834  10.320   1.107
34398SOL    HW2 5028   9.783  10.305   1.249
34399SOL     OW 5029  12.692  14.668   3.040
34399SOL    HW1 5030  12.689  14.747   3.094
34399SOL    HW2 5031  12.777  14.672   2.997
34400SOL     OW 5032  14.802  10.576  12.941
34400SOL    HW1 5033  14.762  10.495  12.971
34400SOL    HW2 5034   0.021  10.554  12.925
34401SOL     OW 5035   2.093  12.067   8.840
34401SOL    HW1 5036   2.038  12.139   8.871
34401SOL    HW2 5037   2.156  12.053   8.910
34402SOL     OW 5038   5.036   9.109   8.070
34402SOL    HW1 5039   5.085   9.027   8.079
34402SOL    HW2 5040   4.953   9.091   8.115
34403SOL     OW 5041  12.812   5.049  11.194
34403SOL    HW1 5042  12.736   5.091  11.153
34403SOL    HW2 5043  12.886   5.073  11.137
34404SOL     OW 5044   0.347   9.229   3.626
34404SOL    HW1 5045   0.393   9.300   3.582
34404SOL    HW2 5046   0.379   9.232   3.717
34405SOL     OW 5047   7.840   0.293   6.006
34405SOL    HW1 5048   7.769   0.312   5.944
34405SOL    HW2 5049   7.796   0.262   6.085
34406SOL     OW 5050  10.447  13.977  13.969
34406SOL    HW1 5051  10.526  13.925  13.956
34406SOL    HW2 5052  10.465  14.029  14.048
34407SOL     OW 5053   9.087   2.813  14.484
34407SOL    HW1 5054   9.091   2.904  14.513
34407SOL    HW2 5055   9.105   2.816  14.390
34408SOL     OW 5056   9.802  12.546   3.812
34408SOL    HW1 5057   9.808  12.611   3.882
34408SOL    HW2 5058   9.817  12.462   3.855
34409SOL     OW 5059   0.300   2.259   1.740
34409SOL    HW1 5060   0.212   2.253   1.775
34409SOL    HW2 5061   0.320   2.353   1.743
34410SOL     OW 5062  12.186  10.415   4.903
34410SOL    HW1 5063  12.188  10.359   4.981
34410SOL    HW2 5064  12.095  10.412   4.873
34411SOL     OW 5065   8.497  11.014  11.358
34411SOL    HW1 5066   8.542  11.098  11.366
34411SOL    HW2 5067   8.493  10.980  11.447
34412SOL     OW 5068   1.684   2.015   5.204
34412SOL    HW1 5069   1.703   2.021   5.110
34412SOL    HW2 5070   1.767   1.986   5.243
34413SOL     OW 5071   0.121  10.295   1.823
34413SOL    HW1 5072   0.168  10.243   1.758
34413SOL    HW2 5073   0.187  10.354   1.859
34414SOL     OW 5074   8.122  14.279   0.999
34414SOL    HW1 5075   8.191  14.220   1.030
34414SOL    HW2 5076   8.116  14.347   1.066
34415SOL     OW 5077   7.089   3.196   1.537
34415SOL    HW1 5078   7.042   3.126   1.493
34415SOL    HW2 5079   7.179   3.163   1.545
34416SOL     OW 5080   8.620  11.650  13.501
34416SOL    HW1 5081   8.527  11.673  13.508
34416SOL    HW2 5082   8.622  11.580  13.435
34417SOL     OW 5083  12.810  11.124   8.261
34417SOL    HW1 5084  12.734  11.068   8.243
34417SOL    HW2 5085  12.775  11.213   8.259
34418SOL     OW 5086   8.501   7.503  14.555
34418SOL    HW1 5087   8.526   7.413  14.575
34418SOL    HW2 5088   8.560   7.556  14.608
34419SOL     OW 5089   4.974   9.776   3.041
34419SOL    HW1 5090   5.019   9.743   2.964
34419SOL    HW2 5091   4.918   9.846   3.008
34420SOL     OW 5092   8.571   2.284  14.141
34420SOL    HW1 5093   8.659   2.308  14.171
34420SOL    HW2 5094   8.553   2.342  14.068
34421SOL     OW 5095  12.437   7.411   9.939
34421SOL    HW1 5096  12.369   7.345   9.928
34421SOL    HW2 5097  12.443   7.424  10.034
34422SOL     OW 5098  14.297  10.897  14.814
34422SOL    HW1 5099  14.338  10.933  14.736
34422SOL    HW2 5100  14.280  10.805  14.792
34423SOL     OW 5101   7.764   0.112  14.214
34423SOL    HW1 5102   7.814   0.193  14.217
34423SOL    HW2 5103   7.830   0.042  14.213
34424SOL     OW 5104   9.709   3.314   9.436
34424SOL    HW1 5105   9.794   3.358   9.429
34424SOL    HW2 5106   9.648   3.384   9.462
34425SOL     OW 5107   8.862   0.066   2.147
34425SOL    HW1 5108   8.888   0.044   2.236
34425SOL    HW2 5109   8.823   0.153   2.154
34426SOL     OW 5110   7.796  14.339  14.549
34426SOL    HW1 5111   7.731  14.381  14.606
34426SOL    HW2 5112   7.747  14.316  14.470
34427SOL     OW 5113  10.383   5.483   6.347
34427SOL    HW1 5114  10.445   5.480   6.274
34427SOL    HW2 5115  10.425   5.540   6.411
34428SOL     OW 5116   1.216  13.016   3.747
34428SOL    HW1 5117   1.221  12.936   3.695
34428SOL    HW2 5118   1.125  13.020   3.776
34429SOL     OW 5119   9.962   0.983   5.875
34429SOL    HW1 5120   9.930   1.071   5.895
34429SOL    HW2 5121   9.898   0.925   5.916
34430SOL     OW 5122   8.694  12.892   5.115
34430SOL    HW1 5123   8.671  12.933   5.031
34430SOL    HW2 5124   8.786  12.917   5.129
34431SOL     OW 5125   2.954   0.669  10.252
34431SOL    HW1 5126   2.889   0.601  10.232
34431SOL    HW2 5127   3.023   0.656  10.187
34432SOL     OW 5128   1.393   8.478  14.417
34432SOL    HW1 5129   1.423   8.390  14.442
34432SOL    HW2 5130   1.471   8.520  14.381
34433SOL     OW 5131   2.643   0.564   0.518
34433SOL    HW1 5132   2.566   0.571   0.462
34433SOL    HW2 5133   2.716   0.586   0.461
34434SOL     OW 5134   1.300   3.532   9.897
34434SOL    HW1 5135   1.292   3.501   9.807
34434SOL    HW2 5136   1.220   3.502   9.940
34435SOL     OW 5137   7.317   2.469   3.540
34435SOL    HW1 5138   7.225   2.475   3.518
34435SOL    HW2 5139   7.362   2.521   3.474
34436SOL     OW 5140  11.650   8.112   5.099
34436SOL    HW1 5141  11.662   8.203   5.072
34436SOL    HW2 5142  11.577   8.114   5.160
34437SOL     OW 5143   3.404   0.444   0.586
34437SOL    HW1 5144   3.370   0.486   0.665
34437SOL    HW2 5145   3.361   0.359   0.583
34438SOL     OW 5146   1.349  14.016   4.527
34438SOL    HW1 5147   1.356  14.082   4.597
34438SOL    HW2 5148   1.380  13.935   4.568
34439SOL     OW 5149   5.806   6.671  12.682
34439SOL    HW1 5150   5.816   6.577  12.663
34439SOL    HW2 5151   5.719   6.693  12.650
34440SOL     OW 5152   3.815   8.665   8.405
34440SOL    HW1 5153   3.875   8.591   8.404
34440SOL    HW2 5154   3.833   8.710   8.488
34441SOL     OW 5155  12.483   9.829   1.691
34441SOL    HW1 5156  12.482   9.764   1.621
34441SOL    HW2 5157  12.423   9.793   1.757
34442SOL     OW 5158  13.716   2.123   9.153
34442SOL    HW1 5159  13.644   2.133   9.214
34442SOL    HW2 5160  13.675   2.114   9.067
34443SOL     OW 5161   0.272  12.965   6.389
34443SOL    HW1 5162   0.361  12.976   6.358
34443SOL    HW2 5163   0.278  12.971   6.484
34444SOL     OW 5164   8.187   9.585  10.739
34444SOL    HW1 5165   8.196   9.504  10.789
34444SOL    HW2 5166   8.260   9.639  10.767
34445SOL     OW 5167   0.527   3.856   4.267
34445SOL    HW1 5168   0.588   3.885   4.200
34445SOL    HW2 5169   0.476   3.787   4.224
34446SOL     OW 5170   1.356   0.758   1.872
34446SOL    HW1 5171   1.398   0.714   1.798
34446SOL    HW2 5172   1.372   0.701   1.947
34447SOL     OW 5173   6.944  11.526  10.012
34447SOL    HW1 5174   6.959  11.452  10.071
34447SOL    HW2 5175   6.898  11.488   9.937
34448SOL     OW 5176   0.797  12.332   4.315
34448SOL    HW1 5177   0.863  12.397   4.292
34448SOL    HW2 5178   0.717  12.363   4.273
34449SOL     OW 5179   7.899  12.519   3.084
34449SOL    HW1 5180   7.958  12.450   3.053
34449SOL    HW2 5181   7.906  12.514   3.180
34450SOL     OW 5182   9.157   5.607  10.897
34450SOL    HW1 5183   9.146   5.698  10.924
34450SOL    HW2 5184   9.069   5.570  10.900
34451SOL     OW 5185   9.435   5.804   4.496
34451SOL    HW1 5186   9.485   5.877   4.533
34451SOL    HW2 5187   9.344   5.833   4.500
34452SOL     OW 5188  14.602   2.911  12.632
34452SOL    HW1 5189  14.678   2.862  12.665
34452SOL    HW2 5190  14.545   2.844  12.595
34453SOL     OW 5191  10.631  13.925   1.799
34453SOL    HW1 5192  10.568  13.884   1.740
34453SOL    HW2 5193  10.683  13.982   1.743
34454SOL     OW 5194  12.293   8.164  11.657
34454SOL    HW1 5195  12.206   8.125  11.667
34454SOL    HW2 5196  12.330   8.121  11.580
34455SOL     OW 5197  11.284   8.155  11.830
34455SOL    HW1 5198  11.346   8.218  11.794
34455SOL    HW2 5199  11.295   8.162  11.925
34456SOL     OW 5200   6.729   5.362   7.119
34456SOL    HW1 5201   6.753   5.291   7.059
34456SOL    HW2 5202   6.811   5.409   7.135
34457SOL     OW 5203  14.687   9.281   3.566
34457SOL    HW1 5204  14.740   9.358   3.547
34457SOL    HW2 5205  14.606   9.294   3.517
34458SOL     OW 5206  10.854  10.443  10.183
34458SOL    HW1 5207  10.929  10.502  10.182
34458SOL    HW2 5208  10.779  10.498  10.161
34459SOL     OW 5209   2.886   1.100   8.132
34459SOL    HW1 5210   2.819   1.079   8.197
34459SOL    HW2 5211   2.850   1.174   8.083
34460SOL     OW 5212   7.709   1.517  14.205
34460SOL    HW1 5213   7.799   1.531  14.177
34460SOL    HW2 5214   7.714   1.513  14.300
34461SOL     OW 5215   6.121  10.351   4.736
34461SOL    HW1 5216   6.206  10.378   4.772
34461SOL    HW2 5217   6.132  10.257   4.719
34462SOL     OW 5218   2.444  11.617   9.594
34462SOL    HW1 5219   2.392  11.561   9.652
34462SOL    HW2 5220   2.513  11.653   9.650
34463SOL     OW 5221   8.535   3.827  11.155
34463SOL    HW1 5222   8.542   3.733  11.173
34463SOL    HW2 5223   8.492   3.832  11.071
34464SOL     OW 5224   1.005   8.629   3.771
34464SOL    HW1 5225   0.977   8.620   3.862
34464SOL    HW2 5226   0.938   8.581   3.721
34465SOL     OW 5227   9.373  12.928   3.855
34465SOL    HW1 5228   9.431  12.950   3.782
34465SOL    HW2 5229   9.376  13.005   3.912
34466SOL     OW 5230   4.780  12.783   9.496
34466SOL    HW1 5231   4.853  12.803   9.438
34466SOL    HW2 5232   4.721  12.859   9.486
34467SOL     OW 5233   3.691   0.084   9.890
34467SOL    HW1 5234   3.764   0.038   9.931
34467SOL    HW2 5235   3.666   0.029   9.815
34468SOL     OW 5236  14.827  14.152   0.872
34468SOL    HW1 5237   0.024  14.174   0.934
34468SOL    HW2 5238  14.823  14.056   0.873
34469SOL     OW 5239   5.550   4.711  10.937
34469SOL    HW1 5240   5.580   4.788  10.889
34469SOL    HW2 5241   5.464   4.735  10.969
34470SOL     OW 5242  13.814  13.614   4.728
34470SOL    HW1 5243  13.819  13.601   4.823
34470SOL    HW2 5244  13.737  13.564   4.701
34471SOL     OW 5245   4.117   8.036   7.929
34471SOL    HW1 5246   4.176   8.111   7.926
34471SOL    HW2 5247   4.175   7.960   7.919
34472SOL     OW 5248  10.109   8.824  11.283
34472SOL    HW1 5249  10.027   8.777  11.268
34472SOL    HW2 5250  10.085   8.916  11.273
34473SOL     OW 5251   7.287   8.779  14.509
34473SOL    HW1 5252   7.346   8.711  14.478
34473SOL    HW2 5253   7.202   8.756  14.472
34474SOL     OW 5254  13.183  11.081   0.459
34474SOL    HW1 5255  13.269  11.124   0.461
34474SOL    HW2 5256  13.194  11.002   0.512
34475SOL     OW 5257   5.566   1.248  14.332
34475SOL    HW1 5258   5.572   1.279  14.422
34475SOL    HW2 5259   5.655   1.222  14.310
34476SOL     OW 5260  13.581  13.571   5.831
34476SOL    HW1 5261  13.672  13.596   5.815
34476SOL    HW2 5262  13.534  13.602   5.753
34477SOL     OW 5263   3.797  11.341   1.865
34477SOL    HW1 5264   3.781  11.322   1.772
34477SOL    HW2 5265   3.734  11.409   1.887
34478SOL     OW 5266   5.107   3.724  11.066
34478SOL    HW1 5267   5.148   3.726  10.980
34478SOL    HW2 5268   5.013   3.732  11.049
34479SOL     OW 5269   3.924   5.490   1.991
34479SOL    HW1 5270   3.988   5.455   1.929
34479SOL    HW2 5271   3.871   5.414   2.015
34480SOL     OW 5272   2.740   2.342   3.157
34480SOL    HW1 5273   2.766   2.299   3.076
34480SOL    HW2 5274   2.728   2.434   3.133
34481SOL     OW 5275   1.881   4.756   3.393
34481SOL    HW1 5276   1.852   4.840   3.357
34481SOL    HW2 5277   1.818   4.693   3.358
34482SOL     OW 5278   8.005   5.543   6.055
34482SOL    HW1 5279   7.918   5.507   6.072
34482SOL    HW2 5280   7.997   5.636   6.080
34483SOL     OW 5281   1.962   2.109   6.035
34483SOL    HW1 5282   2.050   2.081   6.062
34483SOL    HW2 5283   1.906   2.034   6.054
34484SOL     OW 5284  13.041  12.570   2.104
34484SOL    HW1 5285  12.962  12.619   2.082
34484SOL    HW2 5286  13.112  12.633   2.096
34485SOL     OW 5287  12.541   0.792  13.458
34485SOL    HW1 5288  12.486   0.871  13.460
34485SOL    HW2 5289  12.571   0.786  13.368
34486SOL     OW 5290   5.448   6.277   0.689
34486SOL    HW1 5291   5.372   6.322   0.726
34486SOL    HW2 5292   5.510   6.272   0.761
34487SOL     OW 5293  14.805   2.529   7.899
34487SOL    HW1 5294  14.871   2.593   7.925
34487SOL    HW2 5295  14.729   2.582   7.873
34488SOL     OW 5296   5.383   1.188   5.786
34488SOL    HW1 5297   5.424   1.119   5.734
34488SOL    HW2 5298   5.319   1.228   5.727
34489SOL     OW 5299   4.022  11.587   0.243
34489SOL    HW1 5300   4.060  11.674   0.254
34489SOL    HW2 5301   4.080  11.529   0.291
34490SOL     OW 5302   2.465  14.284  14.795
34490SOL    HW1 5303   2.509  14.202  14.771
34490SOL    HW2 5304   2.502  14.307   0.007
34491SOL     OW 5305  14.542  11.938  10.804
34491SOL    HW1 5306  14.614  11.905  10.858
34491SOL    HW2 5307  14.468  11.879  10.824
34492SOL     OW 5308  13.615   9.322  14.651
34492SOL    HW1 5309  13.692   9.297  14.702
34492SOL    HW2 5310  13.589   9.243  14.605
34493SOL     OW 5311  12.337  12.320  11.834
34493SOL    HW1 5312  12.307  12.241  11.879
34493SOL    HW2 5313  12.307  12.310  11.744
34494SOL     OW 5314   4.183  11.390   6.833
34494SOL    HW1 5315   4.191  11.482   6.810
34494SOL    HW2 5316   4.224  11.384   6.920
34495SOL     OW 5317   6.707   5.725   7.572
34495SOL    HW1 5318   6.797   5.757   7.561
34495SOL    HW2 5319   6.670   5.783   7.639
34496SOL     OW 5320   5.718  10.285   8.432
34496SOL    HW1 5321   5.718  10.378   8.454
34496SOL    HW2 5322   5.667  10.244   8.501
34497SOL     OW 5323   8.985  11.827   5.667
34497SOL    HW1 5324   9.018  11.864   5.585
34497SOL    HW2 5325   9.025  11.881   5.736
34498SOL     OW 5326   0.220  10.459  11.341
34498SOL    HW1 5327   0.302  10.428  11.302
34498SOL    HW2 5328   0.216  10.415  11.426
34499SOL     OW 5329  11.944  12.616  11.306
34499SOL    HW1 5330  11.946  12.615  11.210
34499SOL    HW2 5331  11.938  12.709  11.329
34500SOL     OW 5332   4.513   1.110  14.511
34500SOL    HW1 5333   4.453   1.185  14.517
34500SOL    HW2 5334   4.460   1.039  14.475
34501SOL     OW 5335  13.734  13.866  11.823
34501SOL    HW1 5336  13.775  13.796  11.770
34501SOL    HW2 5337  13.750  13.840  11.913
34502SOL     OW 5338  12.265   5.557   0.732
34502SOL    HW1 5339  12.178   5.534   0.763
34502SOL    HW2 5340  12.310   5.473   0.725
34503SOL     OW 5341   8.291   5.231   6.175
34503SOL    HW1 5342   8.204   5.198   6.200
34503SOL    HW2 5343   8.344   5.152   6.164
34504SOL     OW 5344   7.163   6.690   8.702
34504SOL    HW1 5345   7.126   6.713   8.616
34504SOL    HW2 5346   7.140   6.597   8.712
34505SOL     OW 5347   0.247  11.935   5.500
34505SOL    HW1 5348   0.298  11.856   5.482
34505SOL    HW2 5349   0.306  11.990   5.551
34506SOL     OW 5350  12.827   8.671   0.116
34506SOL    HW1 5351  12.764   8.671   0.044
34506SOL    HW2 5352  12.774   8.687   0.194
34507SOL     OW 5353   8.390   9.097   7.232
34507SOL    HW1 5354   8.443   9.073   7.308
34507SOL    HW2 5355   8.439   9.167   7.190
34508SOL     OW 5356   5.890   6.123   9.790
34508SOL    HW1 5357   5.903   6.201   9.736
34508SOL    HW2 5358   5.962   6.065   9.764
34509SOL     OW 5359  10.362  14.224   2.963
34509SOL    HW1 5360  10.368  14.179   3.047
34509SOL    HW2 5361  10.335  14.313   2.985
34510SOL     OW 5362   3.303   9.351   3.819
34510SOL    HW1 5363   3.361   9.343   3.743
34510SOL    HW2 5364   3.216   9.367   3.781
34511SOL     OW 5365   7.644  12.300  11.328
34511SOL    HW1 5366   7.612  12.364  11.392
34511SOL    HW2 5367   7.667  12.224  11.381
34512SOL     OW 5368   0.545  12.528   8.897
34512SOL    HW1 5369   0.508  12.612   8.924
34512SOL    HW2 5370   0.640  12.538   8.909
34513SOL     OW 5371   2.404   2.392  10.083
34513SOL    HW1 5372   2.422   2.386  10.177
34513SOL    HW2 5373   2.442   2.312  10.047
34514SOL     OW 5374  12.237  11.489  13.384
34514SOL    HW1 5375  12.197  11.423  13.442
34514SOL    HW2 5376  12.300  11.534  13.440
34515SOL     OW 5377   6.721   1.821  10.362
34515SOL    HW1 5378   6.682   1.743  10.402
34515SOL    HW2 5379   6.794   1.844  10.420
34516SOL     OW 5380   8.398   8.332  13.201
34516SOL    HW1 5381   8.452   8.389  13.256
34516SOL    HW2 5382   8.339   8.289  13.262
34517SOL     OW 5383   1.425  10.278   7.632
34517SOL    HW1 5384   1.345  10.254   7.679
34517SOL    HW2 5385   1.467  10.195   7.613
34518SOL     OW 5386   1.886   6.896  12.653
34518SOL    HW1 5387   1.837   6.904  12.571
34518SOL    HW2 5388   1.941   6.819  12.640
34519SOL     OW 5389  10.758  13.857  14.824
34519SOL    HW1 5390  10.766  13.931   0.011
34519SOL    HW2 5391  10.670  13.822  14.841
34520SOL     OW 5392  10.285   4.128   2.573
34520SOL    HW1 5393  10.379   4.135   2.560
34520SOL    HW2 5394  10.255   4.070   2.503
34521SOL     OW 5395   2.702  11.183  12.783
34521SOL    HW1 5396   2.683  11.097  12.746
34521SOL    HW2 5397   2.705  11.242  12.708
34522SOL     OW 5398   7.409  11.229  12.002
34522SOL    HW1 5399   7.325  11.259  11.966
34522SOL    HW2 5400   7.400  11.134  12.008
34523SOL     OW 5401   2.500   5.905   4.078
34523SOL    HW1 5402   2.501   5.810   4.068
34523SOL    HW2 5403   2.543   5.920   4.162
34524SOL     OW 5404   6.777   6.298   3.547
34524SOL    HW1 5405   6.731   6.228   3.594
34524SOL    HW2 5406   6.862   6.259   3.525
34525SOL     OW 5407  14.492   2.410  12.946
34525SOL    HW1 5408  14.512   2.413  12.853
34525SOL    HW2 5409  14.534   2.329  12.977
34526SOL     OW 5410  10.889   9.863   3.705
34526SOL    HW1 5411  10.851   9.886   3.620
34526SOL    HW2 5412  10.816   9.823   3.753
34527SOL     OW 5413  14.012  14.398   7.265
34527SOL    HW1 5414  13.925  14.400   7.306
34527SOL    HW2 5415  14.022  14.484   7.225
34528SOL     OW 5416  10.289   5.595   2.355
34528SOL    HW1 5417  10.291   5.545   2.273
34528SOL    HW2 5418  10.291   5.529   2.424
34529SOL     OW 5419   1.405   4.145   4.267
34529SOL    HW1 5420   1.474   4.149   4.333
34529SOL    HW2 5421   1.394   4.235   4.238
34530SOL     OW 5422   1.195  11.065   6.296
34530SOL    HW1 5423   1.122  11.042   6.239
34530SOL    HW2 5424   1.158  11.128   6.358
34531SOL     OW 5425  12.077   2.088  10.726
34531SOL    HW1 5426  12.166   2.124  10.729
34531SOL    HW2 5427  12.081   2.018  10.661
34532SOL     OW 5428   7.792   0.223   6.269
34532SOL    HW1 5429   7.875   0.231   6.316
34532SOL    HW2 5430   7.729   0.194   6.336
34533SOL     OW 5431  10.373  10.939  10.710
34533SOL    HW1 5432  10.283  10.908  10.724
34533SOL    HW2 5433  10.398  10.978  10.794
34534SOL     OW 5434  11.931  11.205   3.046
34534SOL    HW1 5435  11.844  11.245   3.043
34534SOL    HW2 5436  11.945  11.186   3.139
34535SOL     OW 5437   8.630   4.803  12.935
34535SOL    HW1 5438   8.546   4.849  12.945
34535SOL    HW2 5439   8.620   4.754  12.854
34536SOL     OW 5440  11.602   1.410  11.625
34536SOL    HW1 5441  11.634   1.319  11.622
34536SOL    HW2 5442  11.510   1.402  11.651
34537SOL     OW 5443  11.103  10.804  11.005
34537SOL    HW1 5444  11.174  10.830  11.064
34537SOL    HW2 5445  11.027  10.796  11.062
34538SOL     OW 5446   3.214   0.174   1.194
34538SOL    HW1 5447   3.124   0.206   1.200
34538SOL    HW2 5448   3.207   0.091   1.147
34539SOL     OW 5449   8.228   7.632   3.111
34539SOL    HW1 5450   8.273   7.625   3.027
34539SOL    HW2 5451   8.277   7.574   3.169
34540SOL     OW 5452   2.557   2.555   5.954
34540SOL    HW1 5453   2.560   2.642   5.914
34540SOL    HW2 5454   2.644   2.519   5.938
34541SOL     OW 5455   5.112   8.687   0.458
34541SOL    HW1 5456   5.145   8.694   0.548
34541SOL    HW2 5457   5.026   8.644   0.468
34542SOL     OW 5458   7.263   6.638   2.413
34542SOL    HW1 5459   7.324   6.566   2.428
34542SOL    HW2 5460   7.212   6.643   2.494
34543SOL     OW 5461   9.723   9.520   6.316
34543SOL    HW1 5462   9.782   9.466   6.368
34543SOL    HW2 5463   9.780   9.587   6.277
34544SOL     OW 5464  10.206  10.941   1.767
34544SOL    HW1 5465  10.157  10.862   1.742
34544SOL    HW2 5466  10.280  10.907   1.818
34545SOL     OW 5467  12.790   3.098  11.522
34545SOL    HW1 5468  12.828   3.168  11.576
34545SOL    HW2 5469  12.834   3.106  11.438
34546SOL     OW 5470  13.161   2.578   4.377
34546SOL    HW1 5471  13.151   2.671   4.355
34546SOL    HW2 5472  13.126   2.532   4.301
34547SOL     OW 5473   4.594  12.248   6.913
34547SOL    HW1 5474   4.580  12.261   6.819
34547SOL    HW2 5475   4.549  12.322   6.954
34548SOL     OW 5476  12.072   1.906  10.498
34548SOL    HW1 5477  11.994   1.934  10.451
34548SOL    HW2 5478  12.056   1.815  10.520
34549SOL     OW 5479   7.558   8.430  13.739
34549SOL    HW1 5480   7.628   8.365  13.747
34549SOL    HW2 5481   7.583   8.483  13.664
34550SOL     OW 5482   3.316   9.516   0.453
34550SOL    HW1 5483   3.229   9.532   0.416
34550SOL    HW2 5484   3.318   9.569   0.533
34551SOL     OW 5485   0.393   6.381   1.445
34551SOL    HW1 5486   0.470   6.414   1.399
34551SOL    HW2 5487   0.391   6.287   1.423
34552SOL     OW 5488   1.214  10.551  10.296
34552SOL    HW1 5489   1.152  10.535  10.225
34552SOL    HW2 5490   1.204  10.644  10.316
34553SOL     OW 5491  11.537  12.052   5.214
34553SOL    HW1 5492  11.604  12.056   5.145
34553SOL    HW2 5493  11.587  12.046   5.295
34554SOL     OW 5494  14.146   2.915   2.281
34554SOL    HW1 5495  14.080   2.862   2.325
34554SOL    HW2 5496  14.223   2.859   2.276
34555SOL     OW 5497  14.096   6.224   2.869
34555SOL    HW1 5498  14.101   6.245   2.775
34555SOL    HW2 5499  14.007   6.191   2.881
34556SOL     OW 5500   8.189   3.042   7.387
34556SOL    HW1 5501   8.147   3.099   7.323
34556SOL    HW2 5502   8.118   3.011   7.443
34557SOL     OW 5503   2.683   0.295   8.304
34557SOL    HW1 5504   2.672   0.377   8.255
34557SOL    HW2 5505   2.677   0.226   8.238
34558SOL     OW 5506   8.206   6.832   6.037
34558SOL    HW1 5507   8.300   6.830   6.055
34558SOL    HW2 5508   8.182   6.739   6.030
34559SOL     OW 5509   8.077   6.856   2.418
34559SOL    HW1 5510   8.051   6.899   2.500
34559SOL    HW2 5511   8.152   6.801   2.443
34560SOL     OW 5512   1.518   0.152   3.333
34560SOL    HW1 5513   1.560   0.225   3.377
34560SOL    HW2 5514   1.490   0.094   3.404
34561SOL     OW 5515   2.132   7.419  11.383
34561SOL    HW1 5516   2.088   7.367  11.316
34561SOL    HW2 5517   2.225   7.412  11.363
34562SOL     OW 5518   0.819   0.474  10.789
34562SOL    HW1 5519   0.758   0.410  10.826
34562SOL    HW2 5520   0.882   0.422  10.739
34563SOL     OW 5521   9.773  11.165   7.411
34563SOL    HW1 5522   9.779  11.163   7.316
34563SOL    HW2 5523   9.852  11.120   7.442
34564SOL     OW 5524   6.203   7.100   4.605
34564SOL    HW1 5525   6.180   7.042   4.678
34564SOL    HW2 5526   6.119   7.130   4.571
34565SOL     OW 5527   8.524  14.836   0.220
34565SOL    HW1 5528   8.445   0.017   0.224
34565SOL    HW2 5529   8.592   0.019   0.258
34566SOL     OW 5530   7.972   3.592   0.227
34566SOL    HW1 5531   8.026   3.666   0.255
34566SOL    HW2 5532   7.947   3.548   0.308
34567SOL     OW 5533   0.009  12.737  11.302
34567SOL    HW1 5534   0.092  12.757  11.346
34567SOL    HW2 5535  14.835  12.820  11.298
34568SOL     OW 5536   5.983  11.754   3.118
34568SOL    HW1 5537   6.016  11.665   3.134
34568SOL    HW2 5538   6.057  11.801   3.080
34569SOL     OW 5539   0.113   4.196   7.037
34569SOL    HW1 5540   0.035   4.244   7.067
34569SOL    HW2 5541   0.092   4.104   7.055
34570SOL     OW 5542  14.206  14.088  12.513
34570SOL    HW1 5543  14.182  14.036  12.436
34570SOL    HW2 5544  14.301  14.083  12.517
34571SOL     OW 5545   7.742  12.547  12.437
34571SOL    HW1 5546   7.701  12.563  12.521
34571SOL    HW2 5547   7.751  12.452  12.431
34572SOL     OW 5548  14.477   4.075   1.979
34572SOL    HW1 5549  14.539   4.004   1.965
34572SOL    HW2 5550  14.394   4.041   1.945
34573SOL     OW 5551  14.110   9.165   0.752
34573SOL    HW1 5552  14.056   9.109   0.696
34573SOL    HW2 5553  14.102   9.126   0.839
34574SOL     OW 5554   1.498  13.634   0.766
34574SOL    HW1 5555   1.565  13.686   0.723
34574SOL    HW2 5556   1.420  13.644   0.711
34575SOL     OW 5557   0.897   0.996   9.000
34575SOL    HW1 5558   0.892   1.015   8.906
34575SOL    HW2 5559   0.985   1.022   9.025
34576SOL     OW 5560   3.710   2.264  12.637
34576SOL    HW1 5561   3.756   2.180  12.626
34576SOL    HW2 5562   3.696   2.295  12.548
34577SOL     OW 5563   2.113   8.415   9.897
34577SOL    HW1 5564   2.095   8.403   9.804
34577SOL    HW2 5565   2.095   8.508   9.913
34578SOL     OW 5566  11.323  10.258   1.800
34578SOL    HW1 5567  11.379  10.241   1.875
34578SOL    HW2 5568  11.379  10.303   1.737
34579SOL     OW 5569  13.797   5.357   6.329
34579SOL    HW1 5570  13.819   5.287   6.268
34579SOL    HW2 5571  13.788   5.435   6.274
34580SOL     OW 5572   7.747  12.303  13.347
34580SOL    HW1 5573   7.797  12.294  13.428
34580SOL    HW2 5574   7.763  12.393  13.318
34581SOL     OW 5575  13.761   1.300   5.199
34581SOL    HW1 5576  13.730   1.222   5.154
34581SOL    HW2 5577  13.843   1.274   5.240
34582SOL     OW 5578  13.168   4.355   5.901
34582SOL    HW1 5579  13.200   4.439   5.868
34582SOL    HW2 5580  13.075   4.353   5.877
34583SOL     OW 5581   0.300   9.754  12.507
34583SOL    HW1 5582   0.331   9.792  12.425
34583SOL    HW2 5583   0.378   9.712  12.545
34584SOL     OW 5584   2.260  11.963   8.369
34584SOL    HW1 5585   2.171  11.944   8.396
34584SOL    HW2 5586   2.301  12.003   8.446
34585SOL     OW 5587  11.104   9.054  14.155
34585SOL    HW1 5588  11.185   9.025  14.113
34585SOL    HW2 5589  11.119   9.146  14.176
34586SOL     OW 5590  13.661   5.490   2.674
34586SOL    HW1 5591  13.658   5.530   2.587
34586SOL    HW2 5592  13.753   5.471   2.689
34587SOL     OW 5593   0.170  14.651  13.672
34587SOL    HW1 5594   0.246  14.631  13.726
34587SOL    HW2 5595   0.101  14.673  13.734
34588SOL     OW 5596  13.046   1.577  11.178
34588SOL    HW1 5597  12.983   1.634  11.135
34588SOL    HW2 5598  13.089   1.634  11.242
34589SOL     OW 5599  13.211   6.623  11.312
34589SOL    HW1 5600  13.131   6.643  11.264
34589SOL    HW2 5601  13.196   6.659  11.400
34590SOL     OW 5602   9.807   1.916  11.465
34590SOL    HW1 5603   9.716   1.896  11.445
34590SOL    HW2 5604   9.809   2.011  11.480
34591SOL     OW 5605   3.291   2.665  13.619
34591SOL    HW1 5606   3.245   2.584  13.638
34591SOL    HW2 5607   3.273   2.682  13.526
34592SOL     OW 5608  13.287  14.116   0.339
34592SOL    HW1 5609  13.236  14.192   0.369
34592SOL    HW2 5610  13.344  14.150   0.270
34593SOL     OW 5611   6.956   5.213   0.300
34593SOL    HW1 5612   6.917   5.220   0.387
34593SOL    HW2 5613   6.900   5.268   0.244
34594SOL     OW 5614   2.297   6.995   3.194
34594SOL    HW1 5615   2.383   6.955   3.189
34594SOL    HW2 5616   2.261   6.966   3.278
34595SOL     OW 5617   6.938  11.330   4.274
34595SOL    HW1 5618   6.956  11.418   4.307
34595SOL    HW2 5619   7.009  11.276   4.310
34596SOL     OW 5620  12.400   5.788  12.250
34596SOL    HW1 5621  12.470   5.734  12.286
34596SOL    HW2 5622  12.319   5.751  12.285
34597SOL     OW 5623   7.131  10.698   5.495
34597SOL    HW1 5624   7.047  10.653   5.500
34597SOL    HW2 5625   7.135  10.733   5.406
34598SOL     OW 5626   2.732   8.815  10.326
34598SOL    HW1 5627   2.798   8.747  10.313
34598SOL    HW2 5628   2.746   8.876  10.253
34599SOL     OW 5629  10.069   3.634   4.346
34599SOL    HW1 5630  10.069   3.593   4.433
34599SOL    HW2 5631  10.031   3.721   4.361
34600SOL     OW 5632   4.794   1.546   0.444
34600SOL    HW1 5633   4.709   1.513   0.474
34600SOL    HW2 5634   4.814   1.495   0.366
34601SOL     OW 5635   1.876   5.312   0.094
34601SOL    HW1 5636   1.915   5.395   0.122
34601SOL    HW2 5637   1.917   5.293   0.010
34602SOL     OW 5638   7.874   8.845  10.241
34602SOL    HW1 5639   7.877   8.932  10.202
34602SOL    HW2 5640   7.957   8.804  10.215
34603SOL     OW 5641   0.608   9.388   5.130
34603SOL    HW1 5642   0.558   9.306   5.128
34603SOL    HW2 5643   0.617   9.413   5.038
34604SOL     OW 5644   7.599   4.958   0.813
34604SOL    HW1 5645   7.632   5.032   0.763
34604SOL    HW2 5646   7.504   4.970   0.814
34605SOL     OW 5647   4.323   3.038  13.301
34605SOL    HW1 5648   4.306   3.049  13.208
34605SOL    HW2 5649   4.312   3.126  13.338
34606SOL     OW 5650  11.259   2.878  14.298
34606SOL    HW1 5651  11.166   2.863  14.283
34606SOL    HW2 5652  11.296   2.889  14.210
34607SOL     OW 5653   6.896  12.093  10.604
34607SOL    HW1 5654   6.852  12.150  10.667
34607SOL    HW2 5655   6.836  12.019  10.593
34608SOL     OW 5656   8.907  12.849  10.991
34608SOL    HW1 5657   8.982  12.892  11.031
34608SOL    HW2 5658   8.849  12.827  11.065
34609SOL     OW 5659   5.004   2.001   7.192
34609SOL    HW1 5660   4.958   1.917   7.199
34609SOL    HW2 5661   5.097   1.977   7.192
34610SOL     OW 5662   0.453   4.667   4.859
34610SOL    HW1 5663   0.524   4.657   4.922
34610SOL    HW2 5664   0.448   4.583   4.814
34611SOL     OW 5665   9.045   2.580   7.403
34611SOL    HW1 5666   9.075   2.529   7.479
34611SOL    HW2 5667   9.057   2.520   7.329
34612SOL     OW 5668  11.040   6.951  14.475
34612SOL    HW1 5669  11.051   6.878  14.536
34612SOL    HW2 5670  11.125   6.958  14.431
34613SOL     OW 5671  11.794  10.180   4.405
34613SOL    HW1 5672  11.719  10.208   4.457
34613SOL    HW2 5673  11.756  10.155   4.320
34614SOL     OW 5674   8.714  14.634   9.140
34614SOL    HW1 5675   8.699  14.551   9.184
34614SOL    HW2 5676   8.692  14.700   9.206
34615SOL     OW 5677  11.705  11.878   9.218
34615SOL    HW1 5678  11.666  11.965   9.204
34615SOL    HW2 5679  11.644  11.818   9.176
34616SOL     OW 5680  13.421   3.552   0.083
34616SOL    HW1 5681  13.404   3.558  14.862
34616SOL    HW2 5682  13.352   3.605   0.123
34617SOL     OW 5683   6.403  13.700   2.808
34617SOL    HW1 5684   6.379  13.607   2.806
34617SOL    HW2 5685   6.326  13.745   2.773
34618SOL     OW 5686   0.370   8.527   7.792
34618SOL    HW1 5687   0.434   8.527   7.863
34618SOL    HW2 5688   0.303   8.465   7.820
34619SOL     OW 5689  14.640  13.972   5.561
34619SOL    HW1 5690  14.563  13.920   5.585
34619SOL    HW2 5691  14.668  13.936   5.477
34620SOL     OW 5692   1.803  13.767   7.508
34620SOL    HW1 5693   1.766  13.826   7.574
34620SOL    HW2 5694   1.743  13.692   7.506
34621SOL     OW 5695   9.956   6.693   9.184
34621SOL    HW1 5696  10.031   6.715   9.130
34621SOL    HW2 5697   9.891   6.659   9.121
34622SOL     OW 5698   4.949  10.861  11.663
34622SOL    HW1 5699   4.889  10.936  11.663
34622SOL    HW2 5700   4.941  10.824  11.575
34623SOL     OW 5701  13.109   4.300   6.236
34623SOL    HW1 5702  13.201   4.316   6.212
34623SOL    HW2 5703  13.059   4.343   6.167
34624SOL     OW 5704   3.766   8.820   2.648
34624SOL    HW1 5705   3.818   8.760   2.595
34624SOL    HW2 5706   3.720   8.876   2.585
34625SOL     OW 5707   0.566   4.276   5.241
34625SOL    HW1 5708   0.549   4.329   5.163
34625SOL    HW2 5709   0.537   4.188   5.217
34626SOL     OW 5710   5.193  13.727   8.487
34626SOL    HW1 5711   5.266  13.762   8.435
34626SOL    HW2 5712   5.116  13.742   8.432
34627SOL     OW 5713   2.831  12.103   6.914
34627SOL    HW1 5714   2.758  12.155   6.945
34627SOL    HW2 5715   2.795  12.052   6.841
34628SOL     OW 5716   4.242   5.152  13.606
34628SOL    HW1 5717   4.283   5.236  13.629
34628SOL    HW2 5718   4.285   5.127  13.524
34629SOL     OW 5719   2.570   2.108  11.779
34629SOL    HW1 5720   2.547   2.082  11.689
34629SOL    HW2 5721   2.621   2.188  11.769
34630SOL     OW 5722   8.215   8.682  10.388
34630SOL    HW1 5723   8.234   8.770  10.421
34630SOL    HW2 5724   8.177   8.635  10.463
34631SOL     OW 5725  13.028  10.195   9.101
34631SOL    HW1 5726  12.940  10.159   9.099
34631SOL    HW2 5727  13.017  10.286   9.070
34632SOL     OW 5728  10.370   1.489   1.201
34632SOL    HW1 5729  10.452   1.445   1.178
34632SOL    HW2 5730  10.302   1.434   1.165
34633SOL     OW 5731  12.765  11.700   0.531
34633SOL    HW1 5732  12.767  11.758   0.608
34633SOL    HW2 5733  12.747  11.613   0.567
34634SOL     OW 5734   3.172  13.007  14.587
34634SOL    HW1 5735   3.174  12.955  14.668
34634SOL    HW2 5736   3.160  13.097  14.617
34635SOL     OW 5737   7.371   7.423   3.788
34635SOL    HW1 5738   7.316   7.345   3.797
34635SOL    HW2 5739   7.428   7.403   3.713
34636SOL     OW 5740   3.522  14.365   6.590
34636SOL    HW1 5741   3.493  14.350   6.500
34636SOL    HW2 5742   3.601  14.419   6.581
34637SOL     OW 5743   0.958   5.919  11.583
34637SOL    HW1 5744   1.050   5.944  11.576
34637SOL    HW2 5745   0.920   5.982  11.644
34638SOL     OW 5746   0.174  11.425  11.803
34638SOL    HW1 5747   0.177  11.374  11.722
34638SOL    HW2 5748   0.120  11.373  11.862
34639SOL     OW 5749  12.009  13.015   8.802
34639SOL    HW1 5750  11.965  13.005   8.886
34639SOL    HW2 5751  12.073  12.944   8.799
34640SOL     OW 5752   9.156   3.165   0.258
34640SOL    HW1 5753   9.092   3.158   0.187
34640SOL    HW2 5754   9.187   3.256   0.253
34641SOL     OW 5755  11.115   7.044   6.602
34641SOL    HW1 5756  11.083   6.958   6.629
34641SOL    HW2 5757  11.125   7.093   6.684
34642SOL     OW 5758   1.409   7.077   1.079
34642SOL    HW1 5759   1.462   7.143   1.035
34642SOL    HW2 5760   1.466   7.042   1.147
34643SOL     OW 5761   0.745   6.817   5.724
34643SOL    HW1 5762   0.831   6.825   5.766
34643SOL    HW2 5763   0.693   6.764   5.785
34644SOL     OW 5764   6.441   8.946  13.666
34644SOL    HW1 5765   6.376   8.889  13.626
34644SOL    HW2 5766   6.462   9.010  13.598
34645SOL     OW 5767   7.561  13.892  10.095
34645SOL    HW1 5768   7.592  13.802  10.099
34645SOL    HW2 5769   7.630  13.943  10.139
34646SOL     OW 5770  12.299   7.684   0.375
34646SOL    HW1 5771  12.231   7.634   0.330
34646SOL    HW2 5772  12.289   7.661   0.468
34647SOL     OW 5773   1.368   4.298   2.001
34647SOL    HW1 5774   1.318   4.217   2.014
34647SOL    HW2 5775   1.301   4.363   1.980
34648SOL     OW 5776   7.937   3.631   0.583
34648SOL    HW1 5777   7.993   3.708   0.590
34648SOL    HW2 5778   7.864   3.648   0.642
34649SOL     OW 5779   2.924  14.195   3.416
34649SOL    HW1 5780   2.858  14.255   3.451
34649SOL    HW2 5781   2.943  14.135   3.489
34650SOL     OW 5782   6.453   2.706   6.343
34650SOL    HW1 5783   6.407   2.639   6.293
34650SOL    HW2 5784   6.518   2.741   6.283
34651SOL     OW 5785  13.989   0.812   0.608
34651SOL    HW1 5786  14.059   0.747   0.604
34651SOL    HW2 5787  13.948   0.809   0.522
34652SOL     OW 5788   8.216   5.586   5.610
34652SOL    HW1 5789   8.148   5.609   5.673
34652SOL    HW2 5790   8.223   5.491   5.616
34653SOL     OW 5791   6.356  11.939   7.007
34653SOL    HW1 5792   6.291  11.921   6.940
34653SOL    HW2 5793   6.359  11.859   7.060
34654SOL     OW 5794   1.164   9.989   6.533
34654SOL    HW1 5795   1.244   9.943   6.509
34654SOL    HW2 5796   1.101   9.965   6.465
34655SOL     OW 5797   0.787   7.753   8.770
34655SOL    HW1 5798   0.819   7.668   8.801
34655SOL    HW2 5799   0.866   7.806   8.759
34656SOL     OW 5800  11.796  13.584   9.907
34656SOL    HW1 5801  11.806  13.656   9.970
34656SOL    HW2 5802  11.761  13.512   9.959
34657SOL     OW 5803  14.211   5.417   0.411
34657SOL    HW1 5804  14.257   5.440   0.492
34657SOL    HW2 5805  14.253   5.470   0.343
34658SOL     OW 5806  11.929   8.864   3.594
34658SOL    HW1 5807  11.913   8.771   3.581
34658SOL    HW2 5808  11.935   8.900   3.505
34659SOL     OW 5809  10.661  10.776  12.865
34659SOL    HW1 5810  10.589  10.756  12.805
34659SOL    HW2 5811  10.738  10.739  12.822
34660SOL     OW 5812   5.937   4.844  14.176
34660SOL    HW1 5813   5.884   4.885  14.108
34660SOL    HW2 5814   6.025   4.881  14.165
34661SOL     OW 5815   8.586  14.188   4.093
34661SOL    HW1 5816   8.567  14.127   4.022
34661SOL    HW2 5817   8.680  14.177   4.109
34662SOL     OW 5818   1.779   2.056   3.531
34662SOL    HW1 5819   1.689   2.079   3.554
34662SOL    HW2 5820   1.833   2.104   3.594
34663SOL     OW 5821   1.020   2.889   5.778
34663SOL    HW1 5822   1.077   2.816   5.755
34663SOL    HW2 5823   1.051   2.962   5.725
34664SOL     OW 5824   3.280   9.443  13.900
34664SOL    HW1 5825   3.200   9.467  13.947
34664SOL    HW2 5826   3.351   9.471  13.957
34665SOL     OW 5827   7.486   9.786   3.853
34665SOL    HW1 5828   7.440   9.795   3.770
34665SOL    HW2 5829   7.563   9.734   3.832
34666SOL     OW 5830  13.321  14.858   1.479
34666SOL    HW1 5831  13.412   0.001   1.453
34666SOL    HW2 5832  13.272  14.857   1.396
34667SOL     OW 5833   8.949   5.647   8.706
34667SOL    HW1 5834   8.940   5.605   8.620
34667SOL    HW2 5835   8.987   5.579   8.762
34668SOL     OW 5836   5.880   8.603   6.371
34668SOL    HW1 5837   5.793   8.605   6.411
34668SOL    HW2 5838   5.901   8.510   6.364
34669SOL     OW 5839   7.969   5.150   8.446
34669SOL    HW1 5840   7.980   5.241   8.473
34669SOL    HW2 5841   8.026   5.101   8.505
34670SOL     OW 5842  10.054   9.642   8.104
34670SOL    HW1 5843  10.146   9.620   8.116
34670SOL    HW2 5844  10.026   9.591   8.028
34671SOL     OW 5845  12.364  11.934  10.094
34671SOL    HW1 5846  12.372  11.872  10.021
34671SOL    HW2 5847  12.445  11.924  10.143
34672SOL     OW 5848  11.615  10.882  12.762
34672SOL    HW1 5849  11.574  10.823  12.699
34672SOL    HW2 5850  11.657  10.824  12.825
34673SOL     OW 5851  10.345   9.154  13.600
34673SOL    HW1 5852  10.274   9.152  13.535
34673SOL    HW2 5853  10.403   9.083  13.574
34674SOL     OW 5854   4.942   1.207   1.986
34674SOL    HW1 5855   4.938   1.112   1.976
34674SOL    HW2 5856   5.033   1.225   2.009
34675SOL     OW 5857   5.335   9.822  12.954
34675SOL    HW1 5858   5.389   9.751  12.921
34675SOL    HW2 5859   5.311   9.794  13.043
34676SOL     OW 5860   4.639   1.001   9.848
34676SOL    HW1 5861   4.569   0.937   9.858
34676SOL    HW2 5862   4.637   1.051   9.930
34677SOL     OW 5863   4.346  14.813   7.413
34677SOL    HW1 5864   4.266  14.847   7.373
34677SOL    HW2 5865   4.412  14.820   7.343
34678SOL     OW 5866   6.528   5.426   9.402
34678SOL    HW1 5867   6.522   5.340   9.360
34678SOL    HW2 5868   6.453   5.474   9.369
34679SOL     OW 5869  10.681   0.867   8.017
34679SOL    HW1 5870  10.628   0.928   7.967
34679SOL    HW2 5871  10.754   0.845   7.959
34680SOL     OW 5872   8.702   2.510   1.756
34680SOL    HW1 5873   8.632   2.558   1.801
34680SOL    HW2 5874   8.742   2.457   1.825
34681SOL     OW 5875   4.476  11.498   9.691
34681SOL    HW1 5876   4.422  11.459   9.759
34681SOL    HW2 5877   4.440  11.586   9.679
34682SOL     OW 5878  13.411   2.743  11.382
34682SOL    HW1 5879  13.332   2.704  11.344
34682SOL    HW2 5880  13.480   2.679  11.363
34683SOL     OW 5881  11.582   4.430   5.972
34683SOL    HW1 5882  11.634   4.396   6.045
34683SOL    HW2 5883  11.645   4.473   5.915
34684SOL     OW 5884  10.526   9.348   7.760
34684SOL    HW1 5885  10.459   9.298   7.712
34684SOL    HW2 5886  10.600   9.353   7.699
34685SOL     OW 5887   1.973   3.847   5.564
34685SOL    HW1 5888   2.026   3.767   5.568
34685SOL    HW2 5889   1.977   3.883   5.653
34686SOL     OW 5890   7.460  14.103  13.166
34686SOL    HW1 5891   7.471  14.009  13.158
34686SOL    HW2 5892   7.533  14.132  13.221
34687SOL     OW 5893  10.982   8.593   8.936
34687SOL    HW1 5894  10.972   8.682   8.970
34687SOL    HW2 5895  10.989   8.604   8.841
34688SOL     OW 5896   4.834   3.697   8.674
34688SOL    HW1 5897   4.813   3.686   8.767
34688SOL    HW2 5898   4.929   3.704   8.671
34689SOL     OW 5899  10.030   1.670   7.171
34689SOL    HW1 5900   9.942   1.702   7.189
34689SOL    HW2 5901  10.063   1.642   7.256
34690SOL     OW 5902   1.881  12.299  13.101
34690SOL    HW1 5903   1.896  12.221  13.154
34690SOL    HW2 5904   1.967  12.339  13.091
34691SOL     OW 5905  12.277   1.509   1.770
34691SOL    HW1 5906  12.306   1.421   1.747
34691SOL    HW2 5907  12.183   1.500   1.784
34692SOL     OW 5908  10.289  13.337   8.367
34692SOL    HW1 5909  10.224  13.366   8.431
34692SOL    HW2 5910  10.356  13.405   8.368
34693SOL     OW 5911   2.624   0.247   5.199
34693SOL    HW1 5912   2.701   0.263   5.254
34693SOL    HW2 5913   2.573   0.182   5.248
34694SOL     OW 5914   1.913   3.517   2.091
34694SOL    HW1 5915   1.968   3.542   2.016
34694SOL    HW2 5916   1.909   3.422   2.088
34695SOL     OW 5917   5.724   4.636   5.195
34695SOL    HW1 5918   5.654   4.701   5.187
34695SOL    HW2 5919   5.784   4.658   5.123
34696SOL     OW 5920   6.686   6.588   3.527
34696SOL    HW1 5921   6.689   6.494   3.515
34696SOL    HW2 5922   6.777   6.613   3.544
34697SOL     OW 5923   0.214   7.392   6.394
34697SOL    HW1 5924   0.193   7.367   6.484
34697SOL    HW2 5925   0.131   7.384   6.346
34698SOL     OW 5926  14.693   6.319   0.036
34698SOL    HW1 5927  14.696   6.340  14.816
34698SOL    HW2 5928  14.774   6.271   0.053
34699SOL     OW 5929   4.792  13.915   5.121
34699SOL    HW1 5930   4.779  13.994   5.069
34699SOL    HW2 5931   4.707  13.898   5.161
34700SOL     OW 5932  10.640  10.871   9.433
34700SOL    HW1 5933  10.659  10.895   9.524
34700SOL    HW2 5934  10.570  10.806   9.440
34701SOL     OW 5935   7.925   1.675  11.713
34701SOL    HW1 5936   7.881   1.753  11.748
34701SOL    HW2 5937   7.981   1.710  11.644
34702SOL     OW 5938   4.534  14.265  13.422
34702SOL    HW1 5939   4.442  14.261  13.448
34702SOL    HW2 5940   4.534  14.321  13.344
34703SOL     OW 5941  12.609   3.699   4.827
34703SOL    HW1 5942  12.648   3.613   4.844
34703SOL    HW2 5943  12.663   3.735   4.757
34704SOL     OW 5944   1.081   7.611  12.260
34704SOL    HW1 5945   1.048   7.587  12.174
34704SOL    HW2 5946   1.166   7.650  12.243
34705SOL     OW 5947  13.828   0.260   8.462
34705SOL    HW1 5948  13.903   0.229   8.513
34705SOL    HW2 5949  13.766   0.292   8.528
34706SOL     OW 5950   5.620   4.332  13.578
34706SOL    HW1 5951   5.656   4.331  13.490
34706SOL    HW2 5952   5.574   4.249  13.586
34707SOL     OW 5953   0.900  14.387  14.105
34707SOL    HW1 5954   0.980  14.437  14.121
34707SOL    HW2 5955   0.930  14.298  14.089
34708SOL     OW 5956   5.503   5.483  14.519
34708SOL    HW1 5957   5.463   5.496  14.433
34708SOL    HW2 5958   5.432   5.500  14.582
34709SOL     OW 5959   5.672   0.626   4.955
34709SOL    HW1 5960   5.715   0.684   5.019
34709SOL    HW2 5961   5.584   0.663   4.945
34710SOL     OW 5962   9.954   0.843   4.330
34710SOL    HW1 5963   9.957   0.750   4.352
34710SOL    HW2 5964   9.919   0.885   4.408
34711SOL     OW 5965  11.786   2.979  12.975
34711SOL    HW1 5966  11.820   2.981  13.065
34711SOL    HW2 5967  11.738   2.896  12.970
34712SOL     OW 5968  13.058   9.467  11.147
34712SOL    HW1 5969  13.113   9.389  11.141
34712SOL    HW2 5970  13.011   9.457  11.230
34713SOL     OW 5971   9.284   0.971  13.087
34713SOL    HW1 5972   9.262   1.042  13.148
34713SOL    HW2 5973   9.293   0.894  13.143
34714SOL     OW 5974   1.720   2.348  14.559
34714SOL    HW1 5975   1.750   2.431  14.523
34714SOL    HW2 5976   1.657   2.372  14.628
34715SOL     OW 5977   5.565  14.199   8.379
34715SOL    HW1 5978   5.513  14.155   8.447
34715SOL    HW2 5979   5.656  14.183   8.406
34716SOL     OW 5980   2.404   8.955   0.937
34716SOL    HW1 5981   2.352   8.875   0.926
34716SOL    HW2 5982   2.395   9.001   0.853
34717SOL     OW 5983   3.620   0.970   2.155
34717SOL    HW1 5984   3.555   1.032   2.188
34717SOL    HW2 5985   3.602   0.963   2.061
34718SOL     OW 5986   4.930  10.885   9.564
34718SOL    HW1 5987   4.884  10.840   9.635
34718SOL    HW2 5988   5.005  10.926   9.607
34719SOL     OW 5989   3.310  11.339   4.903
34719SOL    HW1 5990   3.214  11.332   4.907
34719SOL    HW2 5991   3.327  11.383   4.820
34720SOL     OW 5992   7.718  10.021   3.680
34720SOL    HW1 5993   7.699   9.927   3.685
34720SOL    HW2 5994   7.813  10.027   3.690
34721SOL     OW 5995   5.374  11.405   2.779
34721SOL    HW1 5996   5.356  11.479   2.721
34721SOL    HW2 5997   5.429  11.441   2.849
34722SOL     OW 5998  13.530  10.802   4.017
34722SOL    HW1 5999  13.583  10.869   4.061
34722SOL    HW2 6000  13.592  10.758   3.959
34723SOL     OW 6001  12.608  12.982   2.397
34723SOL    HW1 6002  12.554  12.905   2.381
34723SOL    HW2 6003  12.570  13.050   2.341
34724SOL     OW 6004  10.136   3.142   2.589
34724SOL    HW1 6005  10.073   3.206   2.622
34724SOL    HW2 6006  10.110   3.059   2.628
34725SOL     OW 6007  14.082   2.685   5.547
34725SOL    HW1 6008  14.147   2.698   5.478
34725SOL    HW2 6009  14.116   2.733   5.622
34726SOL     OW 6010  11.866   2.358   6.778
34726SOL    HW1 6011  11.870   2.284   6.717
34726SOL    HW2 6012  11.920   2.330   6.852
34727SOL     OW 6013   4.185   6.321   9.586
34727SOL    HW1 6014   4.277   6.297   9.575
34727SOL    HW2 6015   4.178   6.409   9.551
34728SOL     OW 6016   5.698  11.592   8.995
34728SOL    HW1 6017   5.642  11.551   9.061
34728SOL    HW2 6018   5.786  11.561   9.016
34729SOL     OW 6019   2.132   7.359  14.612
34729SOL    HW1 6020   2.133   7.416  14.535
34729SOL    HW2 6021   2.046   7.316  14.610
34730SOL     OW 6022   4.807   6.353   3.868
34730SOL    HW1 6023   4.753   6.274   3.878
34730SOL    HW2 6024   4.743   6.424   3.859
34731SOL     OW 6025   2.444   7.736   8.336
34731SOL    HW1 6026   2.447   7.692   8.251
34731SOL    HW2 6027   2.382   7.808   8.324
34732SOL     OW 6028   8.207   5.286   5.044
34732SOL    HW1 6029   8.208   5.198   5.005
34732SOL    HW2 6030   8.115   5.302   5.063
34733SOL     OW 6031   4.590   4.062  10.385
34733SOL    HW1 6032   4.667   4.115  10.407
34733SOL    HW2 6033   4.597   4.048  10.290
34734SOL     OW 6034   4.329   0.871  10.000
34734SOL    HW1 6035   4.321   0.846  10.093
34734SOL    HW2 6036   4.322   0.788   9.953
34735SOL     OW 6037  13.082   2.385  13.091
34735SOL    HW1 6038  13.138   2.452  13.051
34735SOL    HW2 6039  13.084   2.404  13.184
34736SOL     OW 6040   4.456   1.500   6.561
34736SOL    HW1 6041   4.410   1.522   6.642
34736SOL    HW2 6042   4.473   1.585   6.520
34737SOL     OW 6043   0.305   0.631   3.384
34737SOL    HW1 6044   0.254   0.681   3.447
34737SOL    HW2 6045   0.325   0.692   3.314
34738SOL     OW 6046   1.804   9.864  10.728
34738SOL    HW1 6047   1.888   9.894  10.762
34738SOL    HW2 6048   1.809   9.769  10.735
34739SOL     OW 6049   4.094   7.092  13.465
34739SOL    HW1 6050   4.153   7.167  13.459
34739SOL    HW2 6051   4.015   7.127  13.505
34740SOL     OW 6052  13.559   2.986   6.065
34740SOL    HW1 6053  13.581   2.892   6.065
34740SOL    HW2 6054  13.488   2.993   6.001
34741SOL     OW 6055   7.297   6.927   3.710
34741SOL    HW1 6056   7.316   6.834   3.721
34741SOL    HW2 6057   7.324   6.967   3.792
34742SOL     OW 6058  11.937  12.493   6.282
34742SOL    HW1 6059  11.900  12.504   6.194
34742SOL    HW2 6060  12.017  12.545   6.281
34743SOL     OW 6061   5.706  14.421  14.759
34743SOL    HW1 6062   5.748  14.344  14.798
34743SOL    HW2 6063   5.663  14.387  14.680
34744SOL     OW 6064   7.907   6.832   7.996
34744SOL    HW1 6065   7.961   6.899   8.036
34744SOL    HW2 6066   7.838   6.880   7.950
34745SOL     OW 6067   2.458   0.498  14.710
34745SOL    HW1 6068   2.516   0.561  14.755
34745SOL    HW2 6069   2.517   0.429  14.681
34746SOL     OW 6070   9.645   4.308   7.733
34746SOL    HW1 6071   9.585   4.376   7.764
34746SOL    HW2 6072   9.659   4.251   7.809
34747SOL     OW 6073   3.292  14.733   9.436
34747SOL    HW1 6074   3.233  14.794   9.480
34747SOL    HW2 6075   3.323  14.781   9.360
34748SOL     OW 6076   3.970   1.702   1.827
34748SOL    HW1 6077   3.997   1.775   1.771
34748SOL    HW2 6078   4.026   1.710   1.905
34749SOL     OW 6079  11.311  13.777  13.458
34749SOL    HW1 6080  11.318  13.871  13.440
34749SOL    HW2 6081  11.401  13.748  13.473
34750SOL     OW 6082   3.951   6.458   0.368
34750SOL    HW1 6083   3.888   6.486   0.302
34750SOL    HW2 6084   3.975   6.539   0.414
34751SOL     OW 6085   6.899  11.550   5.630
34751SOL    HW1 6086   6.888  11.645   5.634
34751SOL    HW2 6087   6.993  11.538   5.614
34752SOL     OW 6088   9.555   7.471   1.627
34752SOL    HW1 6089   9.563   7.527   1.550
34752SOL    HW2 6090   9.494   7.402   1.601
34753SOL     OW 6091   2.473   3.519  14.335
34753SOL    HW1 6092   2.473   3.480  14.248
34753SOL    HW2 6093   2.398   3.579  14.335
34754SOL     OW 6094   1.763   9.146   2.339
34754SOL    HW1 6095   1.761   9.219   2.277
34754SOL    HW2 6096   1.798   9.072   2.289
34755SOL     OW 6097  14.371  10.963   2.691
34755SOL    HW1 6098  14.443  10.903   2.709
34755SOL    HW2 6099  14.367  11.021   2.768
34756SOL     OW 6100  12.837  13.416   2.138
34756SOL    HW1 6101  12.897  13.344   2.120
34756SOL    HW2 6102  12.887  13.475   2.195
34757SOL     OW 6103  11.034   4.449   0.940
34757SOL    HW1 6104  10.941   4.464   0.925
34757SOL    HW2 6105  11.075   4.471   0.856
34758SOL     OW 6106   3.331   6.860   4.871
34758SOL    HW1 6107   3.385   6.831   4.945
34758SOL    HW2 6108   3.257   6.906   4.912
34759SOL     OW 6109   2.725   9.961  13.659
34759SOL    HW1 6110   2.799  10.022  13.650
34759SOL    HW2 6111   2.679   9.967  13.575
34760SOL     OW 6112   8.514   9.729   9.617
34760SOL    HW1 6113   8.493   9.686   9.700
34760SOL    HW2 6114   8.545   9.816   9.642
34761SOL     OW 6115   3.632  14.696  12.710
34761SOL    HW1 6116   3.544  14.664  12.692
34761SOL    HW2 6117   3.619  14.775  12.762
34762SOL     OW 6118   2.135   2.379   4.234
34762SOL    HW1 6119   2.061   2.425   4.274
34762SOL    HW2 6120   2.097   2.300   4.198
34763SOL     OW 6121   4.152   8.776   8.740
34763SOL    HW1 6122   4.126   8.791   8.831
34763SOL    HW2 6123   4.185   8.861   8.711
34764SOL     OW 6124  12.750   6.455   6.021
34764SOL    HW1 6125  12.660   6.439   5.993
34764SOL    HW2 6126  12.754   6.550   6.035
34765SOL     OW 6127   1.572   6.798  11.004
34765SOL    HW1 6128   1.505   6.765  10.943
34765SOL    HW2 6129   1.522   6.842  11.073
34766SOL     OW 6130   0.325   6.614  10.834
34766SOL    HW1 6131   0.324   6.520  10.852
34766SOL    HW2 6132   0.415   6.631  10.803
34767SOL     OW 6133   5.993   5.291   3.809
34767SOL    HW1 6134   6.051   5.323   3.740
34767SOL    HW2 6135   5.912   5.268   3.764
34768SOL     OW 6136   5.336   8.561  14.268
34768SOL    HW1 6137   5.411   8.512  14.233
34768SOL    HW2 6138   5.359   8.578  14.359
34769SOL     OW 6139  14.409   3.125   0.098
34769SOL    HW1 6140  14.346   3.064   0.061
34769SOL    HW2 6141  14.493   3.100   0.059
34770SOL     OW 6142  11.986   3.693  12.024
34770SOL    HW1 6143  11.952   3.772  12.067
34770SOL    HW2 6144  11.987   3.715  11.931
34771SOL     OW 6145   0.880  12.411   5.086
34771SOL    HW1 6146   0.954  12.399   5.027
34771SOL    HW2 6147   0.819  12.467   5.037
34772SOL     OW 6148   3.473   5.483  14.353
34772SOL    HW1 6149   3.498   5.401  14.396
34772SOL    HW2 6150   3.552   5.536  14.356
34773SOL     OW 6151   4.346   1.707  12.313
34773SOL    HW1 6152   4.441   1.720  12.307
34773SOL    HW2 6153   4.310   1.761  12.243
34774SOL     OW 6154   0.025  10.348   9.494
34774SOL    HW1 6155   0.078  10.313   9.422
34774SOL    HW2 6156  14.829  10.399   9.450
34775SOL     OW 6157   8.082  14.579   7.461
34775SOL    HW1 6158   8.172  14.586   7.496
34775SOL    HW2 6159   8.066  14.485   7.456
34776SOL     OW 6160   2.595   7.488  10.937
34776SOL    HW1 6161   2.658   7.425  10.972
34776SOL    HW2 6162   2.628   7.573  10.967
34777SOL     OW 6163   7.378   5.358   4.946
34777SOL    HW1 6164   7.363   5.283   4.889
34777SOL    HW2 6165   7.290   5.389   4.969
34778SOL     OW 6166  10.200  11.090   3.703
34778SOL    HW1 6167  10.286  11.133   3.711
34778SOL    HW2 6168  10.219  11.008   3.658
34779SOL     OW 6169   0.311   1.140  13.455
34779SOL    HW1 6170   0.324   1.060  13.403
34779SOL    HW2 6171   0.260   1.198  13.398
34780SOL     OW 6172  13.161   8.640   9.359
34780SOL    HW1 6173  13.245   8.681   9.380
34780SOL    HW2 6174  13.098   8.712   9.364
34781SOL     OW 6175   4.977   9.561   7.335
34781SOL    HW1 6176   4.966   9.552   7.430
34781SOL    HW2 6177   5.069   9.538   7.319
34782SOL     OW 6178  12.595   7.294  12.145
34782SOL    HW1 6179  12.517   7.259  12.103
34782SOL    HW2 6180  12.646   7.216  12.168
34783SOL     OW 6181  10.465   3.925   3.462
34783SOL    HW1 6182  10.402   3.920   3.390
34783SOL    HW2 6183  10.412   3.920   3.541
34784SOL     OW 6184  11.477  11.260   4.873
34784SOL    HW1 6185  11.521  11.321   4.933
34784SOL    HW2 6186  11.549  11.216   4.827
34785SOL     OW 6187   5.892  10.397   8.215
34785SOL    HW1 6188   5.898  10.324   8.276
34785SOL    HW2 6189   5.807  10.384   8.171
34786SOL     OW 6190   6.877   9.884   5.707
34786SOL    HW1 6191   6.836   9.948   5.765
34786SOL    HW2 6192   6.969   9.911   5.701
34787SOL     OW 6193   8.064   9.983   5.604
34787SOL    HW1 6194   8.043  10.071   5.574
34787SOL    HW2 6195   8.155   9.969   5.576
34788SOL     OW 6196   9.102   1.310   4.506
34788SOL    HW1 6197   9.046   1.238   4.532
34788SOL    HW2 6198   9.108   1.366   4.583
34789SOL     OW 6199   7.178  12.190  14.254
34789SOL    HW1 6200   7.185  12.096  14.267
34789SOL    HW2 6201   7.219  12.206  14.169
34790SOL     OW 6202   7.744   4.798   9.771
34790SOL    HW1 6203   7.665   4.819   9.722
34790SOL    HW2 6204   7.714   4.743   9.844
34791SOL     OW 6205   3.365   7.830   5.880
34791SOL    HW1 6206   3.302   7.902   5.882
34791SOL    HW2 6207   3.393   7.821   5.971
34792SOL     OW 6208  10.488   6.791  14.669
34792SOL    HW1 6209  10.459   6.879  14.645
34792SOL    HW2 6210  10.452   6.777  14.757
34793SOL     OW 6211  13.095   4.610   6.820
34793SOL    HW1 6212  13.068   4.593   6.730
34793SOL    HW2 6213  13.183   4.647   6.813
34794SOL     OW 6214  10.712   7.517   7.951
34794SOL    HW1 6215  10.617   7.530   7.947
34794SOL    HW2 6216  10.723   7.429   7.987
34795SOL     OW 6217   0.234   3.635   3.827
34795SOL    HW1 6218   0.228   3.632   3.732
34795SOL    HW2 6219   0.156   3.588   3.858
34796SOL     OW 6220   1.939  11.055   0.978
34796SOL    HW1 6221   1.848  11.037   0.954
34796SOL    HW2 6222   1.939  11.058   1.074
34797SOL     OW 6223  13.808   0.143   6.237
34797SOL    HW1 6224  13.756   0.081   6.288
34797SOL    HW2 6225  13.851   0.089   6.171
34798SOL     OW 6226  11.887  13.474  13.172
34798SOL    HW1 6227  11.899  13.421  13.093
34798SOL    HW2 6228  11.925  13.421  13.242
34799SOL     OW 6229   8.325   0.852   7.430
34799SOL    HW1 6230   8.294   0.939   7.405
34799SOL    HW2 6231   8.324   0.802   7.348
34800SOL     OW 6232   2.935   4.625  13.697
34800SOL    HW1 6233   2.953   4.602  13.606
34800SOL    HW2 6234   2.850   4.669  13.695
34801SOL     OW 6235   5.461   9.451   8.133
34801SOL    HW1 6236   5.530   9.453   8.199
34801SOL    HW2 6237   5.380   9.450   8.183
34802SOL     OW 6238  11.196   5.815  12.888
34802SOL    HW1 6239  11.209   5.724  12.859
34802SOL    HW2 6240  11.103   5.821  12.908
34803SOL     OW 6241   2.334   0.598   2.741
34803SOL    HW1 6242   2.268   0.665   2.727
34803SOL    HW2 6243   2.367   0.578   2.653
34804SOL     OW 6244   8.495   8.088   3.947
34804SOL    HW1 6245   8.417   8.143   3.945
34804SOL    HW2 6246   8.523   8.084   3.856
34805SOL     OW 6247   1.267   9.848   3.304
34805SOL    HW1 6248   1.248   9.913   3.372
34805SOL    HW2 6249   1.185   9.798   3.296
34806SOL     OW 6250  14.579   5.102   7.959
34806SOL    HW1 6251  14.571   5.007   7.958
34806SOL    HW2 6252  14.490   5.134   7.945
34807SOL     OW 6253   6.543   1.879   6.404
34807SOL    HW1 6254   6.482   1.942   6.444
34807SOL    HW2 6255   6.603   1.933   6.353
34808SOL     OW 6256   0.713  13.989   1.790
34808SOL    HW1 6257   0.647  14.055   1.812
34808SOL    HW2 6258   0.762  13.977   1.872
34809SOL     OW 6259   5.864   0.445   1.079
34809SOL    HW1 6260   5.944   0.396   1.063
34809SOL    HW2 6261   5.864   0.513   1.012
34810SOL     OW 6262  11.459   0.510   3.740
34810SOL    HW1 6263  11.374   0.528   3.700
34810SOL    HW2 6264  11.473   0.417   3.726
34811SOL     OW 6265   6.669   8.073   6.563
34811SOL    HW1 6266   6.616   7.994   6.571
34811SOL    HW2 6267   6.610   8.139   6.526
34812SOL     OW 6268   9.499   3.207   7.429
34812SOL    HW1 6269   9.536   3.119   7.444
34812SOL    HW2 6270   9.480   3.210   7.336
34813SOL     OW 6271   6.765   3.391   6.147
34813SOL    HW1 6272   6.672   3.386   6.122
34813SOL    HW2 6273   6.765   3.447   6.225
34814SOL     OW 6274   7.208  14.243  10.614
34814SOL    HW1 6275   7.207  14.333  10.582
34814SOL    HW2 6276   7.119  14.229  10.648
34815SOL     OW 6277   2.028   2.706   9.200
34815SOL    HW1 6278   2.078   2.731   9.278
34815SOL    HW2 6279   2.064   2.760   9.130
34816SOL     OW 6280   9.358   3.825   5.490
34816SOL    HW1 6281   9.308   3.853   5.414
34816SOL    HW2 6282   9.362   3.730   5.484
34817SOL     OW 6283  11.025   1.479   4.373
34817SOL    HW1 6284  10.940   1.490   4.332
34817SOL    HW2 6285  11.068   1.409   4.324
34818SOL     OW 6286   9.141   5.293   1.995
34818SOL    HW1 6287   9.129   5.258   2.084
34818SOL    HW2 6288   9.067   5.352   1.982
34819SOL     OW 6289   5.635   4.738  12.279
34819SOL    HW1 6290   5.567   4.804  12.293
34819SOL    HW2 6291   5.587   4.658  12.262
34820SOL     OW 6292   6.409   5.333  10.220
34820SOL    HW1 6293   6.396   5.393  10.146
34820SOL    HW2 6294   6.393   5.387  10.297
34821SOL     OW 6295   3.873   5.439  10.603
34821SOL    HW1 6296   3.925   5.359  10.604
34821SOL    HW2 6297   3.895   5.482  10.686
34822SOL     OW 6298  10.992   7.944   8.722
34822SOL    HW1 6299  11.045   8.023   8.715
34822SOL    HW2 6300  10.927   7.964   8.789
34823SOL     OW 6301  13.382   6.630   3.426
34823SOL    HW1 6302  13.414   6.719   3.440
34823SOL    HW2 6303  13.300   6.625   3.475
34824SOL     OW 6304   8.399  11.999   2.318
34824SOL    HW1 6305   8.351  11.942   2.257
34824SOL    HW2 6306   8.476  11.947   2.343
34825SOL     OW 6307  11.750  14.530   3.631
34825SOL    HW1 6308  11.783  14.620   3.643
34825SOL    HW2 6309  11.674  14.540   3.573
34826SOL     OW 6310   2.772   8.761  10.579
34826SOL    HW1 6311   2.739   8.671  10.579
34826SOL    HW2 6312   2.752   8.794  10.491
34827SOL     OW 6313  11.357  14.099   7.364
34827SOL    HW1 6314  11.441  14.117   7.323
34827SOL    HW2 6315  11.299  14.169   7.332
34828SOL     OW 6316   6.869   6.579   2.658
34828SOL    HW1 6317   6.911   6.658   2.623
34828SOL    HW2 6318   6.922   6.507   2.626
34829SOL     OW 6319   1.377   4.412   8.694
34829SOL    HW1 6320   1.327   4.452   8.623
34829SOL    HW2 6321   1.392   4.322   8.666
34830SOL     OW 6322   1.846   1.380   3.693
34830SOL    HW1 6323   1.754   1.406   3.696
34830SOL    HW2 6324   1.854   1.328   3.613
34831SOL     OW 6325  11.618   4.916  11.522
34831SOL    HW1 6326  11.577   4.890  11.439
34831SOL    HW2 6327  11.547   4.909  11.586
34832SOL     OW 6328  14.217  12.902   6.713
34832SOL    HW1 6329  14.217  12.812   6.680
34832SOL    HW2 6330  14.201  12.893   6.807
34833SOL     OW 6331  14.840   4.417   7.447
34833SOL    HW1 6332  14.803   4.384   7.528
34833SOL    HW2 6333  14.775   4.478   7.413
34834SOL     OW 6334   1.186   0.733  12.721
34834SOL    HW1 6335   1.199   0.825  12.744
34834SOL    HW2 6336   1.092   0.718  12.736
34835SOL     OW 6337  10.067   6.091   1.262
34835SOL    HW1 6338   9.986   6.088   1.313
34835SOL    HW2 6339  10.106   6.176   1.283
34836SOL     OW 6340   8.877   7.396   7.626
34836SOL    HW1 6341   8.911   7.326   7.681
34836SOL    HW2 6342   8.809   7.354   7.573
34837SOL     OW 6343  14.256   6.552   6.991
34837SOL    HW1 6344  14.225   6.484   7.050
34837SOL    HW2 6345  14.184   6.615   6.987
34838SOL     OW 6346  12.348  12.993  11.711
34838SOL    HW1 6347  12.351  12.973  11.804
34838SOL    HW2 6348  12.348  12.908  11.667
34839SOL     OW 6349  13.202   4.620   5.017
34839SOL    HW1 6350  13.247   4.665   5.088
34839SOL    HW2 6351  13.223   4.527   5.029
34840SOL     OW 6352  12.897   4.913   9.048
34840SOL    HW1 6353  12.978   4.954   9.078
34840SOL    HW2 6354  12.885   4.838   9.106
34841SOL     OW 6355   6.308   9.461   2.394
34841SOL    HW1 6356   6.242   9.458   2.325
34841SOL    HW2 6357   6.383   9.506   2.355
34842SOL     OW 6358  10.237   9.012   4.020
34842SOL    HW1 6359  10.297   9.039   3.950
34842SOL    HW2 6360  10.153   9.049   3.995
34843SOL     OW 6361   6.959  13.898  10.972
34843SOL    HW1 6362   6.982  13.824  10.916
34843SOL    HW2 6363   7.042  13.928  11.008
34844SOL     OW 6364   6.119  14.693  10.506
34844SOL    HW1 6365   6.088  14.702  10.415
34844SOL    HW2 6366   6.114  14.600  10.524
34845SOL     OW 6367   5.843   3.074   1.934
34845SOL    HW1 6368   5.919   3.132   1.943
34845SOL    HW2 6369   5.789   3.115   1.867
34846SOL     OW 6370   2.169   7.130  14.758
34846SOL    HW1 6371   2.194   7.213  14.718
34846SOL    HW2 6372   2.249   7.077  14.753
34847SOL     OW 6373  14.746   9.549  13.392
34847SOL    HW1 6374  14.703   9.542  13.477
34847SOL    HW2 6375  14.813   9.616  13.404
34848SOL     OW 6376  13.649  11.128   3.861
34848SOL    HW1 6377  13.659  11.043   3.903
34848SOL    HW2 6378  13.716  11.183   3.902
34849SOL     OW 6379   6.341   3.082   2.666
34849SOL    HW1 6380   6.329   3.164   2.619
34849SOL    HW2 6381   6.253   3.052   2.687
34850SOL     OW 6382  13.851  14.422  14.173
34850SOL    HW1 6383  13.784  14.489  14.191
34850SOL    HW2 6384  13.802  14.349  14.136
34851SOL     OW 6385   1.052   6.557   0.331
34851SOL    HW1 6386   0.970   6.551   0.282
34851SOL    HW2 6387   1.048   6.486   0.395
34852SOL     OW 6388   5.783   2.943   7.421
34852SOL    HW1 6389   5.858   2.954   7.363
34852SOL    HW2 6390   5.808   2.987   7.503
34853SOL     OW 6391  11.002  14.513   8.971
34853SOL    HW1 6392  11.067  14.503   9.040
34853SOL    HW2 6393  11.028  14.450   8.904
34854SOL     OW 6394   5.091   5.695   8.725
34854SOL    HW1 6395   5.163   5.758   8.732
34854SOL    HW2 6396   5.037   5.729   8.653
34855SOL     OW 6397   1.292   1.979   1.291
34855SOL    HW1 6398   1.291   1.900   1.345
34855SOL    HW2 6399   1.330   1.952   1.208
34856SOL     OW 6400   9.340  12.076   0.496
34856SOL    HW1 6401   9.350  12.069   0.591
34856SOL    HW2 6402   9.287  12.155   0.483
34857SOL     OW 6403  10.219   6.946   2.406
34857SOL    HW1 6404  10.273   6.871   2.381
34857SOL    HW2 6405  10.278   7.021   2.400
34858SOL     OW 6406   4.771   6.236   7.915
34858SOL    HW1 6407   4.746   6.189   7.995
34858SOL    HW2 6408   4.866   6.249   7.924
34859SOL     OW 6409  14.632   6.181   2.828
34859SOL    HW1 6410  14.546   6.216   2.803
34859SOL    HW2 6411  14.669   6.148   2.746
34860SOL     OW 6412   8.307   5.495   7.039
34860SOL    HW1 6413   8.252   5.548   6.982
34860SOL    HW2 6414   8.299   5.536   7.125
34861SOL     OW 6415   3.534   5.682   4.652
34861SOL    HW1 6416   3.486   5.633   4.585
34861SOL    HW2 6417   3.471   5.696   4.723
34862SOL     OW 6418  14.181   5.563   2.142
34862SOL    HW1 6419  14.235   5.637   2.115
34862SOL    HW2 6420  14.128   5.543   2.065
34863SOL     OW 6421  11.731   3.944   3.796
34863SOL    HW1 6422  11.660   4.001   3.767
34863SOL    HW2 6423  11.712   3.926   3.888
34864SOL     OW 6424  13.834   7.251   8.896
34864SOL    HW1 6425  13.816   7.188   8.966
34864SOL    HW2 6426  13.811   7.205   8.816
34865SOL     OW 6427   5.194  12.633   8.912
34865SOL    HW1 6428   5.271  12.680   8.946
34865SOL    HW2 6429   5.154  12.593   8.989
34866SOL     OW 6430   3.744   5.315  13.579
34866SOL    HW1 6431   3.674   5.258  13.546
34866SOL    HW2 6432   3.713   5.404  13.561
34867SOL     OW 6433   6.734   3.018   6.717
34867SOL    HW1 6434   6.709   2.944   6.773
34867SOL    HW2 6435   6.711   2.990   6.628
34868SOL     OW 6436  14.414   9.250   8.217
34868SOL    HW1 6437  14.488   9.300   8.181
34868SOL    HW2 6438  14.339   9.276   8.164
34869SOL     OW 6439   1.432   2.780   6.735
34869SOL    HW1 6440   1.495   2.785   6.663
34869SOL    HW2 6441   1.348   2.802   6.695
34870SOL     OW 6442   0.928   3.052  12.972
34870SOL    HW1 6443   0.902   3.045  12.880
34870SOL    HW2 6444   0.870   3.118  13.009
34871SOL     OW 6445   3.007   7.744  14.572
34871SOL    HW1 6446   3.018   7.662  14.620
34871SOL    HW2 6447   2.923   7.778  14.603
34872SOL     OW 6448   3.374   2.563   0.067
34872SOL    HW1 6449   3.296   2.522   0.103
34872SOL    HW2 6450   3.443   2.497   0.077
34873SOL     OW 6451  10.368   2.898   6.570
34873SOL    HW1 6452  10.415   2.981   6.567
34873SOL    HW2 6453  10.436   2.831   6.565
34874SOL     OW 6454   3.373   8.414   9.514
34874SOL    HW1 6455   3.433   8.446   9.582
34874SOL    HW2 6456   3.331   8.493   9.480
34875SOL     OW 6457   8.257   5.462  11.699
34875SOL    HW1 6458   8.177   5.509  11.721
34875SOL    HW2 6459   8.231   5.403  11.629
34876SOL     OW 6460  14.656   3.185   0.770
34876SOL    HW1 6461  14.599   3.261   0.778
34876SOL    HW2 6462  14.632   3.129   0.844
34877SOL     OW 6463  14.632  10.640  12.211
34877SOL    HW1 6464  14.724  10.616  12.204
34877SOL    HW2 6465  14.629  10.704  12.283
34878SOL     OW 6466  12.043   3.471   5.391
34878SOL    HW1 6467  12.068   3.480   5.299
34878SOL    HW2 6468  11.965   3.525   5.401
34879SOL     OW 6469   7.453  13.031   7.490
34879SOL    HW1 6470   7.502  12.953   7.461
34879SOL    HW2 6471   7.504  13.063   7.565
34880SOL     OW 6472  12.156   3.183  11.870
34880SOL    HW1 6473  12.247   3.210  11.876
34880SOL    HW2 6474  12.109   3.244  11.927
34881SOL     OW 6475   8.436   6.894  13.059
34881SOL    HW1 6476   8.342   6.912  13.052
34881SOL    HW2 6477   8.465   6.887  12.968
34882SOL     OW 6478   9.842  13.389   7.635
34882SOL    HW1 6479   9.833  13.333   7.558
34882SOL    HW2 6480   9.801  13.472   7.610
34883SOL     OW 6481  10.490   3.903  13.041
34883SOL    HW1 6482  10.531   3.909  13.128
34883SOL    HW2 6483  10.560   3.873  12.984
34884SOL     OW 6484   6.720   4.305  11.329
34884SOL    HW1 6485   6.720   4.277  11.421
34884SOL    HW2 6486   6.628   4.325  11.310
34885SOL     OW 6487   6.566   0.723   5.357
34885SOL    HW1 6488   6.526   0.810   5.352
34885SOL    HW2 6489   6.642   0.736   5.414
34886SOL     OW 6490  11.295  12.295   2.850
34886SOL    HW1 6491  11.236  12.289   2.775
34886SOL    HW2 6492  11.346  12.213   2.847
34887SOL     OW 6493  13.940  12.256   1.186
34887SOL    HW1 6494  13.979  12.172   1.211
34887SOL    HW2 6495  13.852  12.233   1.156
34888SOL     OW 6496   9.941   1.407  12.039
34888SOL    HW1 6497   9.992   1.421  11.959
34888SOL    HW2 6498  10.001   1.360  12.097
34889SOL     OW 6499  11.942  11.230   6.341
34889SOL    HW1 6500  11.906  11.268   6.421
34889SOL    HW2 6501  11.915  11.289   6.271
34890SOL     OW 6502   4.358   7.040  12.416
34890SOL    HW1 6503   4.288   6.981  12.442
34890SOL    HW2 6504   4.390   7.004  12.333
34891SOL     OW 6505  10.727   0.253   1.238
34891SOL    HW1 6506  10.761   0.169   1.268
34891SOL    HW2 6507  10.711   0.303   1.317
34892SOL     OW 6508   6.810   2.535   6.358
34892SOL    HW1 6509   6.875   2.479   6.401
34892SOL    HW2 6510   6.766   2.477   6.295
34893SOL     OW 6511   1.456   9.106   4.315
34893SOL    HW1 6512   1.482   9.082   4.226
34893SOL    HW2 6513   1.372   9.061   4.329
34894SOL     OW 6514   8.796   6.741   7.792
34894SOL    HW1 6515   8.830   6.750   7.703
34894SOL    HW2 6516   8.709   6.702   7.781
34895SOL     OW 6517   9.423   3.039  13.771
34895SOL    HW1 6518   9.434   2.959  13.719
34895SOL    HW2 6519   9.500   3.092  13.749
34896SOL     OW 6520  10.777   2.012   6.040
34896SOL    HW1 6521  10.806   2.101   6.021
34896SOL    HW2 6522  10.843   1.978   6.101
34897SOL     OW 6523  12.769   7.454   4.961
34897SOL    HW1 6524  12.782   7.398   4.884
34897SOL    HW2 6525  12.678   7.481   4.954
34898SOL     OW 6526   8.151  12.050   6.114
34898SOL    HW1 6527   8.168  11.960   6.088
34898SOL    HW2 6528   8.236  12.084   6.142
34899SOL     OW 6529   8.263   6.414   8.720
34899SOL    HW1 6530   8.270   6.432   8.814
34899SOL    HW2 6531   8.176   6.376   8.709
34900SOL     OW 6532   3.732   7.993   0.687
34900SOL    HW1 6533   3.671   7.945   0.631
34900SOL    HW2 6534   3.818   7.976   0.649
34901SOL     OW 6535   8.400   7.623  10.968
34901SOL    HW1 6536   8.360   7.650  10.886
34901SOL    HW2 6537   8.494   7.630  10.952
34902SOL     OW 6538  12.591   8.934   5.490
34902SOL    HW1 6539  12.667   8.925   5.547
34902SOL    HW2 6540  12.620   8.993   5.421
34903SOL     OW 6541   1.236  12.306   2.691
34903SOL    HW1 6542   1.327  12.300   2.663
34903SOL    HW2 6543   1.230  12.247   2.766
34904SOL     OW 6544  13.667   3.300  10.199
34904SOL    HW1 6545  13.612   3.301  10.277
34904SOL    HW2 6546  13.608   3.274  10.128
34905SOL     OW 6547   5.130  10.994  13.784
34905SOL    HW1 6548   5.075  11.008  13.861
34905SOL    HW2 6549   5.185  11.072  13.779
34906SOL     OW 6550   3.866   6.335   0.608
34906SOL    HW1 6551   3.867   6.406   0.673
34906SOL    HW2 6552   3.887   6.378   0.525
34907SOL     OW 6553   3.513   1.581   2.863
34907SOL    HW1 6554   3.470   1.606   2.782
34907SOL    HW2 6555   3.471   1.500   2.889
34908SOL     OW 6556  14.513  10.898  10.443
34908SOL    HW1 6557  14.545  10.859  10.362
34908SOL    HW2 6558  14.526  10.831  10.510
34909SOL     OW 6559   1.235  11.150   3.243
34909SOL    HW1 6560   1.154  11.201   3.244
34909SOL    HW2 6561   1.211  11.064   3.277
34910SOL     OW 6562   4.939  11.453   8.442
34910SOL    HW1 6563   4.855  11.433   8.484
34910SOL    HW2 6564   4.979  11.518   8.499
34911SOL     OW 6565   4.246   0.646   9.857
34911SOL    HW1 6566   4.240   0.585   9.783
34911SOL    HW2 6567   4.284   0.593   9.928
34912SOL     OW 6568  10.715   3.657  10.776
34912SOL    HW1 6569  10.684   3.729  10.831
34912SOL    HW2 6570  10.734   3.586  10.837
34913SOL     OW 6571  13.421   9.030  11.654
34913SOL    HW1 6572  13.474   9.069  11.585
34913SOL    HW2 6573  13.427   8.936  11.639
34914SOL     OW 6574   1.425   9.030   3.832
34914SOL    HW1 6575   1.394   8.950   3.789
34914SOL    HW2 6576   1.386   9.100   3.781
34915SOL     OW 6577   4.879   0.481   8.084
34915SOL    HW1 6578   4.928   0.455   8.162
34915SOL    HW2 6579   4.812   0.414   8.075
34916SOL     OW 6580   5.960   7.636   1.851
34916SOL    HW1 6581   5.896   7.691   1.806
34916SOL    HW2 6582   6.033   7.628   1.790
34917SOL     OW 6583   0.535  13.468  12.648
34917SOL    HW1 6584   0.585  13.395  12.614
34917SOL    HW2 6585   0.568  13.480  12.737
34918SOL     OW 6586  13.565   9.196   1.520
34918SOL    HW1 6587  13.583   9.220   1.429
34918SOL    HW2 6588  13.493   9.254   1.546
34919SOL     OW 6589   5.330   6.529   4.935
34919SOL    HW1 6590   5.395   6.461   4.916
34919SOL    HW2 6591   5.332   6.587   4.859
34920SOL     OW 6592   1.051   2.040   5.563
34920SOL    HW1 6593   1.097   1.957   5.550
34920SOL    HW2 6594   1.035   2.045   5.657
34921SOL     OW 6595   7.973   2.691  12.073
34921SOL    HW1 6596   7.927   2.725  11.996
34921SOL    HW2 6597   8.000   2.602  12.048
34922SOL     OW 6598   2.558  10.945   6.731
34922SOL    HW1 6599   2.626  10.970   6.668
34922SOL    HW2 6600   2.481  10.994   6.704
34923SOL     OW 6601   4.396   3.043   7.358
34923SOL    HW1 6602   4.399   3.012   7.268
34923SOL    HW2 6603   4.395   3.139   7.350
34924SOL     OW 6604  11.230   7.139   0.213
34924SOL    HW1 6605  11.314   7.186   0.209
34924SOL    HW2 6606  11.193   7.162   0.298
34925SOL     OW 6607  12.531   3.091  11.480
34925SOL    HW1 6608  12.622   3.106  11.504
34925SOL    HW2 6609  12.526   2.997  11.460
34926SOL     OW 6610   6.601   5.612  11.230
34926SOL    HW1 6611   6.578   5.665  11.153
34926SOL    HW2 6612   6.684   5.647  11.259
34927SOL     OW 6613   3.350   8.466   8.692
34927SOL    HW1 6614   3.412   8.489   8.623
34927SOL    HW2 6615   3.323   8.550   8.729
34928SOL     OW 6616   1.028  13.397   1.054
34928SOL    HW1 6617   1.003  13.389   0.963
34928SOL    HW2 6618   1.033  13.307   1.086
34929SOL     OW 6619   3.844  11.015  13.339
34929SOL    HW1 6620   3.911  10.978  13.397
34929SOL    HW2 6621   3.853  11.110  13.350
34930SOL     OW 6622   4.340  10.068  10.705
34930SOL    HW1 6623   4.303  10.145  10.663
34930SOL    HW2 6624   4.385  10.021  10.635
34931SOL     OW 6625   5.337   0.535  10.529
34931SOL    HW1 6626   5.362   0.454  10.485
34931SOL    HW2 6627   5.420   0.574  10.558
34932SOL     OW 6628  10.675   5.070   5.718
34932SOL    HW1 6629  10.607   5.065   5.784
34932SOL    HW2 6630  10.710   5.159   5.725
34933SOL     OW 6631  13.419  11.579   7.326
34933SOL    HW1 6632  13.432  11.493   7.287
34933SOL    HW2 6633  13.352  11.566   7.393
34934SOL     OW 6634   0.603   6.713   3.342
34934SOL    HW1 6635   0.603   6.788   3.402
34934SOL    HW2 6636   0.565   6.642   3.393
34935SOL     OW 6637   2.051  10.203   3.590
34935SOL    HW1 6638   2.072  10.120   3.632
34935SOL    HW2 6639   2.111  10.208   3.516
34936SOL     OW 6640  10.863   0.842   2.232
34936SOL    HW1 6641  10.876   0.748   2.239
34936SOL    HW2 6642  10.823   0.854   2.146
34937SOL     OW 6643  11.461  12.943   6.467
34937SOL    HW1 6644  11.481  12.868   6.411
34937SOL    HW2 6645  11.509  12.925   6.548
34938SOL     OW 6646   6.956   6.513  11.261
34938SOL    HW1 6647   7.039   6.513  11.214
34938SOL    HW2 6648   6.981   6.512  11.354
34939SOL     OW 6649   8.664  13.546  13.943
34939SOL    HW1 6650   8.573  13.574  13.945
34939SOL    HW2 6651   8.710  13.616  13.896
34940SOL     OW 6652   8.419  14.631   8.003
34940SOL    HW1 6653   8.391  14.539   8.002
34940SOL    HW2 6654   8.347  14.679   7.962
34941SOL     OW 6655   2.432   7.849  10.017
34941SOL    HW1 6656   2.359   7.823   9.961
34941SOL    HW2 6657   2.449   7.940   9.995
34942SOL     OW 6658   0.861  13.577   4.239
34942SOL    HW1 6659   0.926  13.510   4.219
34942SOL    HW2 6660   0.903  13.659   4.211
34943SOL     OW 6661  10.943   0.597   3.634
34943SOL    HW1 6662  11.020   0.540   3.636
34943SOL    HW2 6663  10.979   0.686   3.630
34944SOL     OW 6664   8.838   0.435   6.443
34944SOL    HW1 6665   8.762   0.434   6.501
34944SOL    HW2 6666   8.848   0.526   6.417
34945SOL     OW 6667   9.555  12.812  14.756
34945SOL    HW1 6668   9.464  12.824  14.783
34945SOL    HW2 6669   9.606  12.828  14.836
34946SOL     OW 6670   9.008   1.309   7.942
34946SOL    HW1 6671   8.976   1.272   8.025
34946SOL    HW2 6672   8.949   1.272   7.876
34947SOL     OW 6673   6.257   5.300   7.954
34947SOL    HW1 6674   6.184   5.362   7.946
34947SOL    HW2 6675   6.227   5.222   7.907
34948SOL     OW 6676  14.121   1.173  11.947
34948SOL    HW1 6677  14.212   1.151  11.927
34948SOL    HW2 6678  14.076   1.167  11.863
34949SOL     OW 6679   9.184  11.869   8.362
34949SOL    HW1 6680   9.141  11.912   8.435
34949SOL    HW2 6681   9.257  11.821   8.402
34950SOL     OW 6682   6.004  14.655   2.242
34950SOL    HW1 6683   6.039  14.571   2.212
34950SOL    HW2 6684   6.072  14.690   2.300
34951SOL     OW 6685  13.598   0.876   2.491
34951SOL    HW1 6686  13.621   0.789   2.524
34951SOL    HW2 6687  13.584   0.864   2.398
34952SOL     OW 6688   6.406   9.338   8.170
34952SOL    HW1 6689   6.500   9.343   8.159
34952SOL    HW2 6690   6.381   9.422   8.208
34953SOL     OW 6691   3.560  10.215   8.474
34953SOL    HW1 6692   3.632  10.270   8.442
34953SOL    HW2 6693   3.550  10.147   8.408
34954SOL     OW 6694   1.510  12.815  11.130
34954SOL    HW1 6695   1.590  12.786  11.174
34954SOL    HW2 6696   1.530  12.903  11.099
34955SOL     OW 6697  12.803   1.580   1.697
34955SOL    HW1 6698  12.885   1.610   1.736
34955SOL    HW2 6699  12.802   1.617   1.609
34956SOL     OW 6700  13.407   5.013  13.957
34956SOL    HW1 6701  13.337   5.049  14.011
34956SOL    HW2 6702  13.488   5.038  14.002
34957SOL     OW 6703  13.043   8.252   0.612
34957SOL    HW1 6704  13.104   8.313   0.570
34957SOL    HW2 6705  13.086   8.167   0.607
34958SOL     OW 6706  13.870   8.706   7.048
34958SOL    HW1 6707  13.840   8.615   7.048
34958SOL    HW2 6708  13.965   8.700   7.038
34959SOL     OW 6709  10.738   6.488  14.719
34959SOL    HW1 6710  10.648   6.458  14.709
34959SOL    HW2 6711  10.773   6.438  14.793
34960SOL     OW 6712   4.838   7.481   5.816
34960SOL    HW1 6713   4.864   7.393   5.842
34960SOL    HW2 6714   4.775   7.467   5.745
34961SOL     OW 6715   1.122   7.962   1.831
34961SOL    HW1 6716   1.153   7.932   1.746
34961SOL    HW2 6717   1.027   7.954   1.827
34962SOL     OW 6718  14.028   0.999  11.723
34962SOL    HW1 6719  14.004   0.931  11.786
34962SOL    HW2 6720  14.028   0.955  11.639
34963SOL     OW 6721  12.724   3.943   4.255
34963SOL    HW1 6722  12.813   3.954   4.288
34963SOL    HW2 6723  12.707   3.849   4.261
34964SOL     OW 6724   0.403   4.275   5.960
34964SOL    HW1 6725   0.428   4.183   5.953
34964SOL    HW2 6726   0.437   4.315   5.879
34965SOL     OW 6727   3.830   3.986   3.675
34965SOL    HW1 6728   3.791   3.921   3.733
34965SOL    HW2 6729   3.922   3.959   3.668
34966SOL     OW 6730   5.959  13.474   3.771
34966SOL    HW1 6731   5.907  13.551   3.745
34966SOL    HW2 6732   5.956  13.417   3.694
34967SOL     OW 6733  13.504  12.131  13.580
34967SOL    HW1 6734  13.587  12.136  13.532
34967SOL    HW2 6735  13.472  12.043  13.563
34968SOL     OW 6736   7.666   4.015   0.251
34968SOL    HW1 6737   7.740   4.041   0.195
34968SOL    HW2 6738   7.667   3.919   0.248
34969SOL     OW 6739   7.731   9.588   8.774
34969SOL    HW1 6740   7.679   9.619   8.699
34969SOL    HW2 6741   7.781   9.514   8.739
34970SOL     OW 6742  12.786   3.574  12.159
34970SOL    HW1 6743  12.866   3.621  12.134
34970SOL    HW2 6744  12.767   3.517  12.084
34971SOL     OW 6745  11.126   2.019   4.313
34971SOL    HW1 6746  11.211   2.063   4.310
34971SOL    HW2 6747  11.063   2.089   4.330
34972SOL     OW 6748   1.526   3.076   8.442
34972SOL    HW1 6749   1.522   3.155   8.388
34972SOL    HW2 6750   1.480   3.010   8.390
34973SOL     OW 6751   5.286  12.461   5.785
34973SOL    HW1 6752   5.206  12.417   5.756
34973SOL    HW2 6753   5.313  12.514   5.710
34974SOL     OW 6754   5.172  13.668   0.278
34974SOL    HW1 6755   5.082  13.674   0.310
34974SOL    HW2 6756   5.207  13.588   0.317
34975SOL     OW 6757  12.927   0.470  11.090
34975SOL    HW1 6758  12.926   0.427  11.175
34975SOL    HW2 6759  13.013   0.450  11.054
34976SOL     OW 6760  13.069   3.609   4.017
34976SOL    HW1 6761  12.982   3.567   4.017
34976SOL    HW2 6762  13.113   3.572   4.094
34977SOL     OW 6763   9.729   1.471  14.027
34977SOL    HW1 6764   9.669   1.409  14.070
34977SOL    HW2 6765   9.687   1.491  13.944
34978SOL     OW 6766   0.788   6.966   4.401
34978SOL    HW1 6767   0.832   6.997   4.480
34978SOL    HW2 6768   0.809   7.032   4.334
34979SOL     OW 6769   3.475   6.508   5.597
34979SOL    HW1 6770   3.486   6.415   5.580
34979SOL    HW2 6771   3.485   6.517   5.691
34980SOL     OW 6772  13.249  10.984   9.877
34980SOL    HW1 6773  13.276  11.017   9.963
34980SOL    HW2 6774  13.160  10.952   9.891
34981SOL     OW 6775   4.803   2.905  14.570
34981SOL    HW1 6776   4.776   2.996  14.582
34981SOL    HW2 6777   4.780   2.884  14.480
34982SOL     OW 6778   2.697   4.358  12.494
34982SOL    HW1 6779   2.713   4.269  12.460
34982SOL    HW2 6780   2.784   4.398  12.496
34983SOL     OW 6781  11.489   0.019  14.386
34983SOL    HW1 6782  11.443   0.025  14.302
34983SOL    HW2 6783  11.566   0.075  14.375
34984SOL     OW 6784   4.896   2.724   7.655
34984SOL    HW1 6785   4.882   2.771   7.737
34984SOL    HW2 6786   4.991   2.723   7.644
34985SOL     OW 6787  10.944   0.490   8.883
34985SOL    HW1 6788  10.876   0.424   8.894
34985SOL    HW2 6789  10.989   0.493   8.967
34986SOL     OW 6790   3.121   5.758  13.426
34986SOL    HW1 6791   3.077   5.794  13.503
34986SOL    HW2 6792   3.178   5.829  13.396
34987SOL     OW 6793   9.115   7.753   8.155
34987SOL    HW1 6794   9.155   7.668   8.134
34987SOL    HW2 6795   9.159   7.781   8.235
34988SOL     OW 6796   1.800   9.295   0.686
34988SOL    HW1 6797   1.726   9.356   0.685
34988SOL    HW2 6798   1.803   9.264   0.777
34989SOL     OW 6799   2.973  12.441  12.340
34989SOL    HW1 6800   2.992  12.448  12.434
34989SOL    HW2 6801   3.056  12.411  12.301
34990SOL     OW 6802   3.812   7.607   4.164
34990SOL    HW1 6803   3.807   7.590   4.070
34990SOL    HW2 6804   3.798   7.701   4.172
34991SOL     OW 6805  13.983   1.582   7.456
34991SOL    HW1 6806  13.923   1.649   7.422
34991SOL    HW2 6807  14.066   1.598   7.411
34992SOL     OW 6808   6.436   8.023  14.413
34992SOL    HW1 6809   6.369   7.956  14.428
34992SOL    HW2 6810   6.482   8.030  14.497
34993SOL     OW 6811   5.404   1.036   0.695
34993SOL    HW1 6812   5.309   1.028   0.698
34993SOL    HW2 6813   5.432   1.024   0.786
34994SOL     OW 6814   4.853   1.290   6.911
34994SOL    HW1 6815   4.912   1.353   6.869
34994SOL    HW2 6816   4.808   1.247   6.838
34995SOL     OW 6817   6.973   8.789   4.480
34995SOL    HW1 6818   6.914   8.843   4.533
34995SOL    HW2 6819   6.949   8.808   4.390
34996SOL     OW 6820   7.231   2.227  11.761
34996SOL    HW1 6821   7.271   2.140  11.759
34996SOL    HW2 6822   7.139   2.211  11.781
34997SOL     OW 6823  13.515  14.604   1.419
34997SOL    HW1 6824  13.517  14.690   1.376
34997SOL    HW2 6825  13.589  14.556   1.381
34998SOL     OW 6826   1.384  12.360   5.195
34998SOL    HW1 6827   1.430  12.277   5.180
34998SOL    HW2 6828   1.438  12.426   5.152
34999SOL     OW 6829   4.939   4.376   5.677
34999SOL    HW1 6830   4.907   4.458   5.715
34999SOL    HW2 6831   4.902   4.375   5.589
35000SOL     OW 6832   6.464   2.423  14.568
35000SOL    HW1 6833   6.553   2.456  14.557
35000SOL    HW2 6834   6.416   2.460  14.494
35001SOL     OW 6835  12.010  11.583   4.680
35001SOL    HW1 6836  11.947  11.572   4.609
35001SOL    HW2 6837  12.069  11.508   4.673
35002SOL     OW 6838   4.268   2.594   4.744
35002SOL    HW1 6839   4.289   2.600   4.650
35002SOL    HW2 6840   4.334   2.648   4.787
35003SOL     OW 6841   0.325   1.395   7.850
35003SOL    HW1 6842   0.265   1.327   7.819
35003SOL    HW2 6843   0.407   1.377   7.804
35004SOL     OW 6844   9.494   5.414   0.695
35004SOL    HW1 6845   9.436   5.451   0.628
35004SOL    HW2 6846   9.444   5.421   0.776
35005SOL     OW 6847  11.941  14.279   1.391
35005SOL    HW1 6848  11.996  14.219   1.341
35005SOL    HW2 6849  11.851  14.252   1.371
35006SOL     OW 6850   7.407   1.349  13.078
35006SOL    HW1 6851   7.472   1.385  13.137
35006SOL    HW2 6852   7.366   1.277  13.127
35007SOL     OW 6853   9.515  12.435   5.510
35007SOL    HW1 6854   9.548  12.449   5.422
35007SOL    HW2 6855   9.586  12.465   5.567
35008SOL     OW 6856   3.653   3.861  11.916
35008SOL    HW1 6857   3.617   3.946  11.942
35008SOL    HW2 6858   3.582   3.799  11.933
35009SOL     OW 6859  13.170   6.835  13.878
35009SOL    HW1 6860  13.108   6.776  13.922
35009SOL    HW2 6861  13.229   6.863  13.948
35010SOL     OW 6862   1.694   9.903   9.843
35010SOL    HW1 6863   1.699   9.893   9.748
35010SOL    HW2 6864   1.676   9.996   9.857
35011SOL     OW 6865   0.322  13.716   0.432
35011SOL    HW1 6866   0.256  13.693   0.498
35011SOL    HW2 6867   0.302  13.659   0.358
35012SOL     OW 6868   7.516  10.476   9.819
35012SOL    HW1 6869   7.437  10.477   9.874
35012SOL    HW2 6870   7.527  10.567   9.792
35013SOL     OW 6871   6.297  13.870  10.118
35013SOL    HW1 6872   6.237  13.809  10.160
35013SOL    HW2 6873   6.381  13.855  10.161
35014SOL     OW 6874   4.523  11.477   6.052
35014SOL    HW1 6875   4.609  11.499   6.088
35014SOL    HW2 6876   4.520  11.526   5.969
35015SOL     OW 6877   7.698   8.358   6.814
35015SOL    HW1 6878   7.662   8.274   6.785
35015SOL    HW2 6879   7.755   8.335   6.888
35016SOL     OW 6880   7.797  11.927   5.787
35016SOL    HW1 6881   7.812  11.997   5.852
35016SOL    HW2 6882   7.879  11.921   5.740
35017SOL     OW 6883  10.453  10.501   6.478
35017SOL    HW1 6884  10.522  10.441   6.453
35017SOL    HW2 6885  10.458  10.506   6.574
35018SOL     OW 6886   0.591  11.305   1.861
35018SOL    HW1 6887   0.635  11.333   1.781
35018SOL    HW2 6888   0.594  11.209   1.858
35019SOL     OW 6889   3.402   3.810  13.000
35019SOL    HW1 6890   3.363   3.723  13.002
35019SOL    HW2 6891   3.340   3.866  13.047
35020SOL     OW 6892  13.891   9.721  13.775
35020SOL    HW1 6893  13.887   9.679  13.861
35020SOL    HW2 6894  13.820   9.680  13.725
35021SOL     OW 6895  14.823   3.401   6.838
35021SOL    HW1 6896  14.799   3.398   6.746
35021SOL    HW2 6897   0.033   3.352   6.843
35022SOL     OW 6898   7.939   9.904   4.887
35022SOL    HW1 6899   7.958   9.839   4.954
35022SOL    HW2 6900   8.024   9.926   4.850
35023SOL     OW 6901  12.921   6.587  14.125
35023SOL    HW1 6902  13.001   6.549  14.161
35023SOL    HW2 6903  12.890   6.523  14.061
35024SOL     OW 6904  10.393  12.229   8.769
35024SOL    HW1 6905  10.461  12.194   8.712
35024SOL    HW2 6906  10.432  12.229   8.856
35025SOL     OW 6907   1.667   5.319   8.877
35025SOL    HW1 6908   1.618   5.292   8.800
35025SOL    HW2 6909   1.743   5.365   8.842
35026SOL     OW 6910   3.082   6.159  14.159
35026SOL    HW1 6911   3.034   6.080  14.185
35026SOL    HW2 6912   3.024   6.204  14.097
35027SOL     OW 6913  13.097   8.564  12.962
35027SOL    HW1 6914  13.188   8.586  12.941
35027SOL    HW2 6915  13.103   8.491  13.023
35028SOL     OW 6916   6.986  14.182  11.619
35028SOL    HW1 6917   6.945  14.152  11.538
35028SOL    HW2 6918   6.923  14.243  11.657
35029SOL     OW 6919   6.902   9.536  12.645
35029SOL    HW1 6920   6.823   9.575  12.682
35029SOL    HW2 6921   6.899   9.561  12.552
35030SOL     OW 6922   5.582  12.737  12.434
35030SOL    HW1 6923   5.634  12.781  12.502
35030SOL    HW2 6924   5.554  12.808  12.376
35031SOL     OW 6925  12.495  10.367  14.668
35031SOL    HW1 6926  12.511  10.278  14.699
35031SOL    HW2 6927  12.426  10.401  14.726
35032SOL     OW 6928  10.426   0.676  10.729
35032SOL    HW1 6929  10.435   0.737  10.803
35032SOL    HW2 6930  10.336   0.643  10.737
35033SOL     OW 6931   0.377   8.287   8.932
35033SOL    HW1 6932   0.461   8.242   8.937
35033SOL    HW2 6933   0.362   8.299   8.838
35034SOL     OW 6934   1.087  10.829   8.492
35034SOL    HW1 6935   1.021  10.785   8.547
35034SOL    HW2 6936   1.037  10.888   8.436
35035SOL     OW 6937   7.015   5.884   8.958
35035SOL    HW1 6938   7.061   5.913   8.879
35035SOL    HW2 6939   6.953   5.955   8.977
35036SOL     OW 6940  14.068   0.836  14.344
35036SOL    HW1 6941  14.102   0.920  14.376
35036SOL    HW2 6942  14.146   0.786  14.321
35037SOL     OW 6943  14.466   7.308   9.171
35037SOL    HW1 6944  14.475   7.400   9.194
35037SOL    HW2 6945  14.508   7.300   9.085
35038SOL     OW 6946   1.081   5.856   4.682
35038SOL    HW1 6947   0.999   5.897   4.657
35038SOL    HW2 6948   1.130   5.849   4.600
35039SOL     OW 6949   0.246   4.760  12.467
35039SOL    HW1 6950   0.327   4.723  12.503
35039SOL    HW2 6951   0.256   4.752  12.372
35040SOL     OW 6952  14.002   8.638  10.041
35040SOL    HW1 6953  14.057   8.560  10.050
35040SOL    HW2 6954  14.060   8.704  10.003
35041SOL     OW 6955  10.197   3.177  10.666
35041SOL    HW1 6956  10.169   3.086  10.662
35041SOL    HW2 6957  10.276   3.181  10.611
35042SOL     OW 6958  13.074   2.006   9.393
35042SOL    HW1 6959  12.989   1.996   9.349
35042SOL    HW2 6960  13.126   2.058   9.332
35043SOL     OW 6961   8.230   4.821   0.145
35043SOL    HW1 6962   8.277   4.765   0.083
35043SOL    HW2 6963   8.269   4.908   0.132
35044SOL     OW 6964   9.860   3.910   6.766
35044SOL    HW1 6965   9.825   3.821   6.768
35044SOL    HW2 6966   9.838   3.942   6.678
35045SOL     OW 6967   4.750   8.937   7.223
35045SOL    HW1 6968   4.820   8.997   7.199
35045SOL    HW2 6969   4.772   8.855   7.179
35046SOL     OW 6970   2.402   7.933   1.388
35046SOL    HW1 6971   2.453   7.854   1.405
35046SOL    HW2 6972   2.460   7.988   1.336
35047SOL     OW 6973   0.923  10.308   5.839
35047SOL    HW1 6974   0.957  10.320   5.750
35047SOL    HW2 6975   1.000  10.299   5.894
35048SOL     OW 6976   1.926   5.133  12.875
35048SOL    HW1 6977   1.876   5.169  12.801
35048SOL    HW2 6978   1.947   5.044  12.848
35049SOL     OW 6979   1.857  11.597   1.398
35049SOL    HW1 6980   1.940  11.549   1.387
35049SOL    HW2 6981   1.793  11.546   1.350
35050SOL     OW 6982   8.413   3.471   4.004
35050SOL    HW1 6983   8.343   3.430   3.955
35050SOL    HW2 6984   8.442   3.404   4.067
35051SOL     OW 6985  10.751  12.635  10.028
35051SOL    HW1 6986  10.724  12.693  10.099
35051SOL    HW2 6987  10.807  12.689   9.972
35052SOL     OW 6988   6.910  10.864   0.150
35052SOL    HW1 6989   6.966  10.787   0.157
35052SOL    HW2 6990   6.909  10.901   0.239
35053SOL     OW 6991   3.841   8.097  13.918
35053SOL    HW1 6992   3.773   8.052  13.868
35053SOL    HW2 6993   3.921   8.046  13.902
35054SOL     OW 6994   5.025  10.466   6.766
35054SOL    HW1 6995   5.030  10.371   6.771
35054SOL    HW2 6996   5.073  10.489   6.687
35055SOL     OW 6997   8.374   0.325   5.704
35055SOL    HW1 6998   8.408   0.407   5.669
35055SOL    HW2 6999   8.378   0.337   5.799
35056SOL     OW 7000   4.487   9.684   4.825
35056SOL    HW1 7001   4.510   9.633   4.902
35056SOL    HW2 7002   4.392   9.690   4.826
35057SOL     OW 7003   4.474  13.441   4.858
35057SOL    HW1 7004   4.464  13.350   4.886
35057SOL    HW2 7005   4.428  13.446   4.774
35058SOL     OW 7006   1.662  10.097  11.190
35058SOL    HW1 7007   1.575  10.129  11.166
35058SOL    HW2 7008   1.723  10.160  11.152
35059SOL     OW 7009   1.895   4.658   8.652
35059SOL    HW1 7010   1.856   4.721   8.591
35059SOL    HW2 7011   1.843   4.578   8.640
35060SOL     OW 7012   3.227   3.373   1.872
35060SOL    HW1 7013   3.136   3.360   1.846
35060SOL    HW2 7014   3.227   3.455   1.922
35061SOL     OW 7015  10.107  11.545  10.496
35061SOL    HW1 7016  10.141  11.634  10.481
35061SOL    HW2 7017  10.151  11.492  10.430
35062SOL     OW 7018   8.181  12.266   1.439
35062SOL    HW1 7019   8.203  12.220   1.520
35062SOL    HW2 7020   8.098  12.310   1.458
35063SOL     OW 7021  11.744  11.331   7.944
35063SOL    HW1 7022  11.729  11.423   7.966
35063SOL    HW2 7023  11.753  11.330   7.849
35064SOL     OW 7024  11.710   6.970   0.479
35064SOL    HW1 7025  11.697   6.949   0.571
35064SOL    HW2 7026  11.630   7.016   0.453
35065SOL     OW 7027   6.809  14.020  13.884
35065SOL    HW1 7028   6.901  14.046  13.892
35065SOL    HW2 7029   6.765  14.068  13.955
35066SOL     OW 7030   0.218   3.059  13.051
35066SOL    HW1 7031   0.302   3.089  13.015
35066SOL    HW2 7032   0.160   3.134  13.042
35067SOL     OW 7033  12.294   8.978   1.887
35067SOL    HW1 7034  12.284   8.888   1.918
35067SOL    HW2 7035  12.208   9.001   1.853
35068SOL     OW 7036   8.131  12.366   3.039
35068SOL    HW1 7037   8.095  12.323   2.961
35068SOL    HW2 7038   8.197  12.304   3.072
35069SOL     OW 7039   1.133   7.070  13.102
35069SOL    HW1 7040   1.188   6.991  13.109
35069SOL    HW2 7041   1.076   7.053  13.027
35070SOL     OW 7042   4.367   6.754   3.752
35070SOL    HW1 7043   4.378   6.722   3.842
35070SOL    HW2 7044   4.434   6.707   3.702
35071SOL     OW 7045   2.393   2.595   2.673
35071SOL    HW1 7046   2.432   2.655   2.609
35071SOL    HW2 7047   2.300   2.615   2.671
35072SOL     OW 7048   2.285  11.890   4.317
35072SOL    HW1 7049   2.254  11.800   4.326
35072SOL    HW2 7050   2.251  11.935   4.394
35073SOL     OW 7051   2.461   8.977   4.178
35073SOL    HW1 7052   2.438   8.886   4.160
35073SOL    HW2 7053   2.463   8.984   4.273
35074SOL     OW 7054   8.031   5.154   9.338
35074SOL    HW1 7055   8.086   5.225   9.305
35074SOL    HW2 7056   8.028   5.090   9.267
35075SOL     OW 7057   8.618  10.039  12.902
35075SOL    HW1 7058   8.654  10.125  12.882
35075SOL    HW2 7059   8.662  10.014  12.984
35076SOL     OW 7060   3.362  13.044   1.725
35076SOL    HW1 7061   3.444  13.023   1.770
35076SOL    HW2 7062   3.379  13.024   1.633
35077SOL     OW 7063   6.274   6.624   4.989
35077SOL    HW1 7064   6.350   6.588   5.033
35077SOL    HW2 7065   6.272   6.716   5.016
35078SOL     OW 7066  10.174   9.303   9.314
35078SOL    HW1 7067  10.236   9.231   9.305
35078SOL    HW2 7068  10.184   9.353   9.232
35079SOL     OW 7069   9.236  11.918   9.911
35079SOL    HW1 7070   9.246  11.867   9.832
35079SOL    HW2 7071   9.286  11.871   9.978
35080SOL     OW 7072   7.044   6.335   0.178
35080SOL    HW1 7073   7.058   6.385   0.259
35080SOL    HW2 7074   6.965   6.283   0.195
35081SOL     OW 7075   9.390   4.736  14.601
35081SOL    HW1 7076   9.300   4.745  14.634
35081SOL    HW2 7077   9.439   4.804  14.647
35082SOL     OW 7078  11.171   3.849  10.272
35082SOL    HW1 7079  11.246   3.892  10.230
35082SOL    HW2 7080  11.106   3.839  10.202
35083SOL     OW 7081   9.355   0.622   5.389
35083SOL    HW1 7082   9.404   0.699   5.418
35083SOL    HW2 7083   9.322   0.582   5.469
35084SOL     OW 7084   1.336  13.843   9.416
35084SOL    HW1 7085   1.272  13.816   9.482
35084SOL    HW2 7086   1.396  13.769   9.410
35085SOL     OW 7087  10.935   8.326   9.629
35085SOL    HW1 7088  11.028   8.343   9.616
35085SOL    HW2 7089  10.932   8.240   9.672
35086SOL     OW 7090   8.131   3.069   1.320
35086SOL    HW1 7091   8.173   3.136   1.266
35086SOL    HW2 7092   8.122   2.993   1.263
35087SOL     OW 7093   1.248   9.039   0.805
35087SOL    HW1 7094   1.287   8.978   0.868
35087SOL    HW2 7095   1.178   8.990   0.764
35088SOL     OW 7096  12.441   5.012  12.062
35088SOL    HW1 7097  12.518   5.055  12.025
35088SOL    HW2 7098  12.426   5.058  12.145
35089SOL     OW 7099  10.031   8.109  10.065
35089SOL    HW1 7100  10.030   8.023  10.022
35089SOL    HW2 7101   9.978   8.097  10.144
35090SOL     OW 7102   1.674   0.711  13.495
35090SOL    HW1 7103   1.672   0.806  13.488
35090SOL    HW2 7104   1.685   0.680  13.404
35091SOL     OW 7105   5.965  13.346   0.478
35091SOL    HW1 7106   5.910  13.410   0.435
35091SOL    HW2 7107   5.905  13.294   0.532
35092SOL     OW 7108  12.725   7.436   9.007
35092SOL    HW1 7109  12.754   7.450   8.916
35092SOL    HW2 7110  12.800   7.395   9.050
35093SOL     OW 7111   6.398   8.228  11.630
35093SOL    HW1 7112   6.371   8.302  11.575
35093SOL    HW2 7113   6.355   8.152  11.591
35094SOL     OW 7114   5.553  11.648   4.326
35094SOL    HW1 7115   5.593  11.681   4.245
35094SOL    HW2 7116   5.501  11.573   4.299
35095SOL     OW 7117   1.183   6.014   7.331
35095SOL    HW1 7118   1.198   6.035   7.239
35095SOL    HW2 7119   1.267   5.982   7.362
35096SOL     OW 7120   6.457   7.962   4.045
35096SOL    HW1 7121   6.538   8.005   4.071
35096SOL    HW2 7122   6.447   7.889   4.106
35097SOL     OW 7123   2.789   1.077   0.293
35097SOL    HW1 7124   2.779   1.018   0.368
35097SOL    HW2 7125   2.702   1.080   0.253
35098SOL     OW 7126   3.308   9.380   9.137
35098SOL    HW1 7127   3.253   9.302   9.147
35098SOL    HW2 7128   3.378   9.368   9.200
35099SOL     OW 7129  14.816   5.490   5.765
35099SOL    HW1 7130   0.021   5.541   5.788
35099SOL    HW2 7131  14.790   5.525   5.679
35100SOL     OW 7132  10.417   4.099  13.902
35100SOL    HW1 7133  10.377   4.154  13.834
35100SOL    HW2 7134  10.485   4.155  13.941
35101SOL     OW 7135   7.348  10.747   5.639
35101SOL    HW1 7136   7.268  10.753   5.586
35101SOL    HW2 7137   7.413  10.795   5.589
35102SOL     OW 7138   9.532   6.856  13.205
35102SOL    HW1 7139   9.567   6.938  13.238
35102SOL    HW2 7140   9.532   6.797  13.280
35103SOL     OW 7141   4.345   5.504  14.089
35103SOL    HW1 7142   4.303   5.476  14.170
35103SOL    HW2 7143   4.342   5.427  14.033
35104SOL     OW 7144   3.906   0.664   0.683
35104SOL    HW1 7145   3.953   0.683   0.602
35104SOL    HW2 7146   3.975   0.652   0.748
35105SOL     OW 7147   8.695  10.850   1.394
35105SOL    HW1 7148   8.781  10.882   1.419
35105SOL    HW2 7149   8.654  10.922   1.347
35106SOL     OW 7150   5.745   1.712   5.671
35106SOL    HW1 7151   5.694   1.782   5.629
35106SOL    HW2 7152   5.679   1.657   5.713
35107SOL     OW 7153  13.140   0.993   9.418
35107SOL    HW1 7154  13.210   1.058   9.413
35107SOL    HW2 7155  13.185   0.909   9.423
35108SOL     OW 7156   3.866   2.126  12.835
35108SOL    HW1 7157   3.858   2.218  12.809
35108SOL    HW2 7158   3.849   2.127  12.930
35109SOL     OW 7159   0.674   3.577   5.523
35109SOL    HW1 7160   0.603   3.516   5.540
35109SOL    HW2 7161   0.748   3.542   5.573
35110SOL     OW 7162   0.317   9.008   2.812
35110SOL    HW1 7163   0.396   9.005   2.866
35110SOL    HW2 7164   0.252   8.957   2.861
35111SOL     OW 7165   1.356   5.492   3.699
35111SOL    HW1 7166   1.290   5.436   3.657
35111SOL    HW2 7167   1.440   5.451   3.677
35112SOL     OW 7168  11.048   2.322   8.023
35112SOL    HW1 7169  11.017   2.234   8.002
35112SOL    HW2 7170  10.968   2.371   8.043
35113SOL     OW 7171   0.143   6.663   9.705
35113SOL    HW1 7172   0.128   6.658   9.800
35113SOL    HW2 7173   0.131   6.756   9.684
35114SOL     OW 7174   7.866   4.756  11.054
35114SOL    HW1 7175   7.961   4.761  11.051
35114SOL    HW2 7176   7.846   4.662  11.047
35115SOL     OW 7177   3.250  11.270  14.785
35115SOL    HW1 7178   3.200  11.340  14.741
35115SOL    HW2 7179   3.256  11.201  14.719
35116SOL     OW 7180  11.319   7.923   8.693
35116SOL    HW1 7181  11.337   7.885   8.779
35116SOL    HW2 7182  11.267   8.001   8.712
35117SOL     OW 7183   0.271  12.375  10.934
35117SOL    HW1 7184   0.227  12.460  10.931
35117SOL    HW2 7185   0.223  12.326  11.001
35118SOL     OW 7186   1.105  14.455   1.317
35118SOL    HW1 7187   1.048  14.378   1.308
35118SOL    HW2 7188   1.139  14.471   1.229
35119SOL     OW 7189  11.070   2.805   3.933
35119SOL    HW1 7190  11.026   2.888   3.953
35119SOL    HW2 7191  11.156   2.813   3.975
35120SOL     OW 7192  11.240   3.407   5.874
35120SOL    HW1 7193  11.191   3.485   5.900
35120SOL    HW2 7194  11.325   3.415   5.918
35121SOL     OW 7195   4.240   1.524   7.881
35121SOL    HW1 7196   4.217   1.547   7.971
35121SOL    HW2 7197   4.309   1.459   7.890
35122SOL     OW 7198   2.461  11.103   2.934
35122SOL    HW1 7199   2.485  11.118   2.842
35122SOL    HW2 7200   2.463  11.008   2.944
35123SOL     OW 7201  13.616   7.310  11.617
35123SOL    HW1 7202  13.680   7.245  11.586
35123SOL    HW2 7203  13.572   7.267  11.689
35124SOL     OW 7204   6.189   2.036   4.202
35124SOL    HW1 7205   6.205   2.118   4.155
35124SOL    HW2 7206   6.225   1.968   4.145
35125SOL     OW 7207   1.851   7.146  14.374
35125SOL    HW1 7208   1.894   7.221  14.332
35125SOL    HW2 7209   1.858   7.164  14.468
35126SOL     OW 7210   7.653   7.729   6.378
35126SOL    HW1 7211   7.688   7.659   6.434
35126SOL    HW2 7212   7.571   7.693   6.344
35127SOL     OW 7213   5.506   8.324   5.319
35127SOL    HW1 7214   5.417   8.359   5.314
35127SOL    HW2 7215   5.562   8.395   5.289
35128SOL     OW 7216  10.972  13.833   9.243
35128SOL    HW1 7217  10.926  13.755   9.272
35128SOL    HW2 7218  11.031  13.802   9.174
35129SOL     OW 7219   6.323   1.187   7.353
35129SOL    HW1 7220   6.314   1.093   7.336
35129SOL    HW2 7221   6.321   1.194   7.449
35130SOL     OW 7222  10.124   6.931   4.279
35130SOL    HW1 7223  10.216   6.930   4.255
35130SOL    HW2 7224  10.107   6.844   4.314
35131SOL     OW 7225  11.650  13.836   5.463
35131SOL    HW1 7226  11.571  13.826   5.409
35131SOL    HW2 7227  11.721  13.810   5.404
35132SOL     OW 7228   2.251   4.225  13.706
35132SOL    HW1 7229   2.240   4.290  13.635
35132SOL    HW2 7230   2.185   4.158  13.686
35133SOL     OW 7231   4.894   9.329   3.970
35133SOL    HW1 7232   4.813   9.358   4.013
35133SOL    HW2 7233   4.912   9.244   4.009
35134SOL     OW 7234   1.528   0.418   5.989
35134SOL    HW1 7235   1.535   0.478   5.915
35134SOL    HW2 7236   1.602   0.440   6.046
35135SOL     OW 7237  13.068  10.738   6.220
35135SOL    HW1 7238  13.100  10.794   6.291
35135SOL    HW2 7239  13.056  10.652   6.261
35136SOL     OW 7240  11.445  14.473   6.795
35136SOL    HW1 7241  11.450  14.403   6.730
35136SOL    HW2 7242  11.533  14.478   6.833
35137SOL     OW 7243   5.531   2.366   6.936
35137SOL    HW1 7244   5.521   2.427   6.863
35137SOL    HW2 7245   5.583   2.414   7.001
35138SOL     OW 7246  10.725  11.231   2.907
35138SOL    HW1 7247  10.640  11.211   2.947
35138SOL    HW2 7248  10.730  11.327   2.908
35139SOL     OW 7249   7.834   7.804   4.193
35139SOL    HW1 7250   7.817   7.888   4.235
35139SOL    HW2 7251   7.887   7.755   4.257
35140SOL     OW 7252  10.602  14.083   5.023
35140SOL    HW1 7253  10.600  14.000   4.975
35140SOL    HW2 7254  10.528  14.132   4.987
35141SOL     OW 7255   6.650  10.200   6.653
35141SOL    HW1 7256   6.585  10.141   6.614
35141SOL    HW2 7257   6.598  10.258   6.708
35142SOL     OW 7258  12.011  10.495   6.086
35142SOL    HW1 7259  11.998  10.504   6.180
35142SOL    HW2 7260  12.049  10.408   6.075
35143SOL     OW 7261   3.606  11.445   2.674
35143SOL    HW1 7262   3.602  11.522   2.618
35143SOL    HW2 7263   3.632  11.374   2.615
35144SOL     OW 7264   5.929   6.154   6.676
35144SOL    HW1 7265   5.904   6.081   6.620
35144SOL    HW2 7266   5.956   6.223   6.615
35145SOL     OW 7267  13.045   9.016  10.556
35145SOL    HW1 7268  13.020   8.926  10.574
35145SOL    HW2 7269  13.069   9.052  10.641
35146SOL     OW 7270   4.470   9.582  14.118
35146SOL    HW1 7271   4.439   9.495  14.095
35146SOL    HW2 7272   4.456   9.634  14.039
35147SOL     OW 7273   3.209   9.453  11.952
35147SOL    HW1 7274   3.290   9.498  11.928
35147SOL    HW2 7275   3.154   9.522  11.989
35148SOL     OW 7276   5.115   9.090   1.790
35148SOL    HW1 7277   5.203   9.111   1.759
35148SOL    HW2 7278   5.058   9.108   1.716
35149SOL     OW 7279  10.608   2.549   8.031
35149SOL    HW1 7280  10.516   2.527   8.016
35149SOL    HW2 7281  10.617   2.639   7.999
35150SOL     OW 7282   3.080   9.592   4.139
35150SOL    HW1 7283   3.075   9.599   4.235
35150SOL    HW2 7284   2.990   9.609   4.109
35151SOL     OW 7285  14.633   4.452  13.457
35151SOL    HW1 7286  14.699   4.408  13.511
35151SOL    HW2 7287  14.586   4.509  13.518
35152SOL     OW 7288   9.806  14.451   4.637
35152SOL    HW1 7289   9.832  14.543   4.640
35152SOL    HW2 7290   9.888  14.402   4.648
35153SOL     OW 7291   9.445   0.741  14.447
35153SOL    HW1 7292   9.474   0.828  14.418
35153SOL    HW2 7293   9.353   0.753  14.472
35154SOL     OW 7294   7.222   9.785   4.202
35154SOL    HW1 7295   7.317   9.788   4.190
35154SOL    HW2 7296   7.210   9.731   4.280
35155SOL     OW 7297  13.137   7.488  11.010
35155SOL    HW1 7298  13.097   7.566  11.047
35155SOL    HW2 7299  13.103   7.484  10.921
35156SOL     OW 7300   2.961   2.442   9.398
35156SOL    HW1 7301   2.985   2.390   9.322
35156SOL    HW2 7302   2.948   2.378   9.468
35157SOL     OW 7303   7.747  11.296  11.820
35157SOL    HW1 7304   7.792  11.288  11.735
35157SOL    HW2 7305   7.710  11.209  11.835
35158SOL     OW 7306   4.356   7.320  12.357
35158SOL    HW1 7307   4.347   7.225  12.363
35158SOL    HW2 7308   4.373   7.337  12.264
35159SOL     OW 7309   7.801  10.897   2.801
35159SOL    HW1 7310   7.770  10.908   2.891
35159SOL    HW2 7311   7.749  10.824   2.767
35160SOL     OW 7312  14.375   0.496   4.988
35160SOL    HW1 7313  14.460   0.458   4.963
35160SOL    HW2 7314  14.341   0.533   4.906
35161SOL     OW 7315  12.806   1.827   1.165
35161SOL    HW1 7316  12.798   1.906   1.219
35161SOL    HW2 7317  12.895   1.831   1.131
35162SOL     OW 7318   5.472   7.875   5.106
35162SOL    HW1 7319   5.528   7.798   5.110
35162SOL    HW2 7320   5.519   7.942   5.156
35163SOL     OW 7321   4.982   6.080   7.705
35163SOL    HW1 7322   4.954   6.155   7.652
35163SOL    HW2 7323   4.923   6.009   7.680
35164SOL     OW 7324  14.166   9.938   9.983
35164SOL    HW1 7325  14.161   9.994   9.906
35164SOL    HW2 7326  14.229   9.982  10.041
35165SOL     OW 7327   5.491   9.934  14.678
35165SOL    HW1 7328   5.401   9.903  14.667
35165SOL    HW2 7329   5.492  10.020  14.634
35166SOL     OW 7330   7.635   0.558  14.601
35166SOL    HW1 7331   7.583   0.519  14.670
35166SOL    HW2 7332   7.681   0.484  14.560
35167SOL     OW 7333   8.712   2.051   7.179
35167SOL    HW1 7334   8.770   2.102   7.236
35167SOL    HW2 7335   8.624   2.071   7.211
35168SOL     OW 7336   7.176  14.610   5.154
35168SOL    HW1 7337   7.200  14.702   5.166
35168SOL    HW2 7338   7.258  14.568   5.125
35169SOL     OW 7339  11.308   1.413  11.663
35169SOL    HW1 7340  11.213   1.403  11.666
35169SOL    HW2 7341  11.325   1.498  11.705
35170SOL     OW 7342  13.787  13.827  14.457
35170SOL    HW1 7343  13.734  13.770  14.513
35170SOL    HW2 7344  13.726  13.861  14.392
35171SOL     OW 7345   2.663  13.041   3.845
35171SOL    HW1 7346   2.633  12.957   3.809
35171SOL    HW2 7347   2.743  13.020   3.892
35172SOL     OW 7348  14.490   3.863   0.990
35172SOL    HW1 7349  14.418   3.801   0.978
35172SOL    HW2 7350  14.470   3.908   1.072
35173SOL     OW 7351   6.581   7.767   1.510
35173SOL    HW1 7352   6.622   7.733   1.430
35173SOL    HW2 7353   6.506   7.709   1.525
35174SOL     OW 7354   5.295  12.960   9.066
35174SOL    HW1 7355   5.343  13.043   9.058
35174SOL    HW2 7356   5.358  12.893   9.039
35175SOL     OW 7357   1.684   1.083  14.334
35175SOL    HW1 7358   1.747   1.054  14.400
35175SOL    HW2 7359   1.606   1.030  14.352
35176SOL     OW 7360   6.858   4.169   0.560
35176SOL    HW1 7361   6.782   4.139   0.510
35176SOL    HW2 7362   6.863   4.263   0.542
35177SOL     OW 7363  13.472  10.995  12.307
35177SOL    HW1 7364  13.444  10.967  12.220
35177SOL    HW2 7365  13.407  11.060  12.334
35178SOL     OW 7366   6.300   7.345   6.732
35178SOL    HW1 7367   6.270   7.429   6.766
35178SOL    HW2 7368   6.342   7.366   6.649
35179SOL     OW 7369   3.540   6.725  11.658
35179SOL    HW1 7370   3.541   6.710  11.564
35179SOL    HW2 7371   3.518   6.818  11.668
35180SOL     OW 7372   3.851   3.555   0.750
35180SOL    HW1 7373   3.841   3.649   0.763
35180SOL    HW2 7374   3.837   3.518   0.837
35181SOL     OW 7375   9.199   4.297   1.472
35181SOL    HW1 7376   9.126   4.258   1.521
35181SOL    HW2 7377   9.277   4.274   1.524
35182SOL     OW 7378   3.734   8.445   9.209
35182SOL    HW1 7379   3.814   8.475   9.166
35182SOL    HW2 7380   3.755   8.443   9.302
35183SOL     OW 7381   2.617   2.146   6.113
35183SOL    HW1 7382   2.609   2.091   6.035
35183SOL    HW2 7383   2.700   2.120   6.152
35184SOL     OW 7384  14.806   0.596   4.296
35184SOL    HW1 7385  14.856   0.677   4.286
35184SOL    HW2 7386  14.854   0.545   4.361
35185SOL     OW 7387   3.919   8.331   4.428
35185SOL    HW1 7388   3.893   8.239   4.435
35185SOL    HW2 7389   3.920   8.349   4.334
35186SOL     OW 7390  12.295   1.210   1.283
35186SOL    HW1 7391  12.223   1.233   1.341
35186SOL    HW2 7392  12.373   1.247   1.325
35187SOL     OW 7393   2.635  11.873   3.654
35187SOL    HW1 7394   2.699  11.803   3.667
35187SOL    HW2 7395   2.637  11.891   3.560
35188SOL     OW 7396   8.852  12.315  14.584
35188SOL    HW1 7397   8.844  12.230  14.627
35188SOL    HW2 7398   8.779  12.366  14.618
35189SOL     OW 7399  10.514  11.876  12.314
35189SOL    HW1 7400  10.535  11.791  12.353
35189SOL    HW2 7401  10.446  11.912  12.371
35190SOL     OW 7402   4.146  13.186  13.409
35190SOL    HW1 7403   4.165  13.124  13.479
35190SOL    HW2 7404   4.177  13.143  13.330
35191SOL     OW 7405   9.612  12.338   2.947
35191SOL    HW1 7406   9.607  12.400   2.873
35191SOL    HW2 7407   9.701  12.303   2.942
35192SOL     OW 7408  11.251   5.304   9.867
35192SOL    HW1 7409  11.266   5.238   9.800
35192SOL    HW2 7410  11.199   5.259   9.934
35193SOL     OW 7411   2.745   1.727   2.284
35193SOL    HW1 7412   2.779   1.642   2.314
35193SOL    HW2 7413   2.673   1.746   2.344
35194SOL     OW 7414   5.461   7.067  13.590
35194SOL    HW1 7415   5.431   7.156  13.570
35194SOL    HW2 7416   5.550   7.062  13.554
35195SOL     OW 7417   6.097   0.669   0.886
35195SOL    HW1 7418   6.173   0.635   0.839
35195SOL    HW2 7419   6.111   0.640   0.976
35196SOL     OW 7420   8.214  14.516   9.522
35196SOL    HW1 7421   8.279  14.457   9.485
35196SOL    HW2 7422   8.143  14.517   9.458
35197SOL     OW 7423   3.537   1.277   4.640
35197SOL    HW1 7424   3.442   1.268   4.643
35197SOL    HW2 7425   3.564   1.279   4.732
35198SOL     OW 7426   0.717  10.337   4.234
35198SOL    HW1 7427   0.645  10.311   4.178
35198SOL    HW2 7428   0.709  10.432   4.241
35199SOL     OW 7429  11.102   1.651   4.124
35199SOL    HW1 7430  11.187   1.640   4.080
35199SOL    HW2 7431  11.123   1.643   4.217
35200SOL     OW 7432   3.678  14.769  14.098
35200SOL    HW1 7433   3.721  14.713  14.163
35200SOL    HW2 7434   3.614  14.712  14.056
35201SOL     OW 7435   2.455   1.193   9.635
35201SOL    HW1 7436   2.391   1.264   9.626
35201SOL    HW2 7437   2.502   1.213   9.716
35202SOL     OW 7438  13.677   6.194   3.619
35202SOL    HW1 7439  13.645   6.267   3.567
35202SOL    HW2 7440  13.635   6.117   3.581
35203SOL     OW 7441   4.422   0.090   6.083
35203SOL    HW1 7442   4.386   0.176   6.104
35203SOL    HW2 7443   4.503   0.085   6.134
35204SOL     OW 7444   7.942  14.673   5.744
35204SOL    HW1 7445   7.899  14.589   5.729
35204SOL    HW2 7446   8.018  14.672   5.686
35205SOL     OW 7447   8.053   1.062   5.453
35205SOL    HW1 7448   8.116   1.043   5.522
35205SOL    HW2 7449   7.969   1.029   5.487
35206SOL     OW 7450  10.932   2.194   7.244
35206SOL    HW1 7451  10.866   2.263   7.237
35206SOL    HW2 7452  10.988   2.222   7.316
35207SOL     OW 7453   7.972   8.262   2.179
35207SOL    HW1 7454   7.965   8.350   2.215
35207SOL    HW2 7455   8.038   8.269   2.110
35208SOL     OW 7456  13.679  13.183   1.717
35208SOL    HW1 7457  13.745  13.116   1.733
35208SOL    HW2 7458  13.699  13.253   1.779
35209SOL     OW 7459  11.144   6.572   3.726
35209SOL    HW1 7460  11.093   6.627   3.666
35209SOL    HW2 7461  11.217   6.628   3.753
35210SOL     OW 7462  14.324   3.462  11.696
35210SOL    HW1 7463  14.378   3.527  11.651
35210SOL    HW2 7464  14.244   3.457  11.644
35211SOL     OW 7465   6.961   3.194   2.137
35211SOL    HW1 7466   7.029   3.193   2.070
35211SOL    HW2 7467   7.008   3.188   2.220
35212SOL     OW 7468  13.408   2.788   8.555
35212SOL    HW1 7469  13.472   2.837   8.607
35212SOL    HW2 7470  13.330   2.844   8.554
35213SOL     OW 7471   3.088   8.644  13.900
35213SOL    HW1 7472   2.994   8.660  13.893
35213SOL    HW2 7473   3.118   8.704  13.968
35214SOL     OW 7474  12.841   3.487   2.696
35214SOL    HW1 7475  12.870   3.502   2.786
35214SOL    HW2 7476  12.905   3.533   2.642
35215SOL     OW 7477   9.972   7.657  14.805
35215SOL    HW1 7478  10.050   7.616  14.843
35215SOL    HW2 7479   9.947   7.725  14.868
35216SOL     OW 7480   6.301   0.376   6.108
35216SOL    HW1 7481   6.334   0.349   6.023
35216SOL    HW2 7482   6.272   0.466   6.095
35217SOL     OW 7483  13.383   3.889   8.184
35217SOL    HW1 7484  13.477   3.898   8.203
35217SOL    HW2 7485  13.365   3.958   8.121
35218SOL     OW 7486  14.097   5.296   8.220
35218SOL    HW1 7487  14.097   5.232   8.149
35218SOL    HW2 7488  14.028   5.265   8.279
35219SOL     OW 7489   7.402   4.358   1.047
35219SOL    HW1 7490   7.342   4.300   1.000
35219SOL    HW2 7491   7.485   4.352   0.999
35220SOL     OW 7492  10.000   4.346  10.695
35220SOL    HW1 7493  10.061   4.300  10.752
35220SOL    HW2 7494   9.924   4.288  10.689
35221SOL     OW 7495   8.005   5.141  14.392
35221SOL    HW1 7496   8.013   5.235  14.407
35221SOL    HW2 7497   7.968   5.135  14.304
35222SOL     OW 7498  11.894   0.529   5.859
35222SOL    HW1 7499  11.938   0.603   5.900
35222SOL    HW2 7500  11.915   0.455   5.915
35223SOL     OW 7501   5.733   9.684   4.664
35223SOL    HW1 7502   5.647   9.712   4.693
35223SOL    HW2 7503   5.719   9.651   4.575
35224SOL     OW 7504   5.398   6.049  13.032
35224SOL    HW1 7505   5.479   6.058  13.083
35224SOL    HW2 7506   5.375   5.957  13.041
35225SOL     OW 7507   9.760   1.033   3.747
35225SOL    HW1 7508   9.746   0.944   3.781
35225SOL    HW2 7509   9.843   1.027   3.700
35226SOL     OW 7510  10.453   1.965  10.080
35226SOL    HW1 7511  10.427   1.920  10.000
35226SOL    HW2 7512  10.397   2.042  10.084
35227SOL     OW 7513   7.004  12.460   0.521
35227SOL    HW1 7514   6.966  12.491   0.439
35227SOL    HW2 7515   7.094  12.491   0.519
35228SOL     OW 7516   6.953  12.193   7.141
35228SOL    HW1 7517   6.934  12.114   7.192
35228SOL    HW2 7518   6.900  12.184   7.062
35229SOL     OW 7519  14.786   0.685   7.787
35229SOL    HW1 7520  14.759   0.776   7.794
35229SOL    HW2 7521  14.710   0.635   7.818
35230SOL     OW 7522  11.869  13.370  12.051
35230SOL    HW1 7523  11.960  13.369  12.082
35230SOL    HW2 7524  11.818  13.336  12.125
35231SOL     OW 7525   5.877   9.317   0.175
35231SOL    HW1 7526   5.802   9.263   0.199
35231SOL    HW2 7527   5.862   9.341   0.084
35232SOL     OW 7528   3.037   7.256   1.928
35232SOL    HW1 7529   2.981   7.190   1.969
35232SOL    HW2 7530   3.105   7.205   1.883
35233SOL     OW 7531   0.003   6.340   5.827
35233SOL    HW1 7532   0.064   6.397   5.781
35233SOL    HW2 7533  14.801   6.396   5.848
35234SOL     OW 7534  14.460   4.744   1.577
35234SOL    HW1 7535  14.433   4.776   1.491
35234SOL    HW2 7536  14.551   4.770   1.585
35235SOL     OW 7537   9.891   1.726   6.234
35235SOL    HW1 7538   9.828   1.679   6.179
35235SOL    HW2 7539   9.852   1.724   6.322
35236SOL     OW 7540   4.861  12.345   6.733
35236SOL    HW1 7541   4.896  12.304   6.654
35236SOL    HW2 7542   4.783  12.293   6.754
35237SOL     OW 7543   8.598  14.078  10.454
35237SOL    HW1 7544   8.675  14.109  10.502
35237SOL    HW2 7545   8.589  13.987  10.479
35238SOL     OW 7546   2.766  11.228   0.972
35238SOL    HW1 7547   2.712  11.239   1.050
35238SOL    HW2 7548   2.820  11.151   0.990
35239SOL     OW 7549  13.171  11.684   7.920
35239SOL    HW1 7550  13.121  11.694   8.001
35239SOL    HW2 7551  13.106  11.660   7.854
35240SOL     OW 7552  14.307   1.949   2.765
35240SOL    HW1 7553  14.250   1.875   2.788
35240SOL    HW2 7554  14.338   1.929   2.677
35241SOL     OW 7555  10.676   9.385   8.538
35241SOL    HW1 7556  10.676   9.361   8.631
35241SOL    HW2 7557  10.678   9.481   8.539
35242SOL     OW 7558   7.322   8.944  12.086
35242SOL    HW1 7559   7.253   8.928  12.151
35242SOL    HW2 7560   7.353   9.033  12.106
35243SOL     OW 7561   3.087  14.813  14.351
35243SOL    HW1 7562   3.025   0.005  14.383
35243SOL    HW2 7563   3.032  14.745  14.311
35244SOL     OW 7564   7.859   2.067   8.397
35244SOL    HW1 7565   7.905   2.145   8.426
35244SOL    HW2 7566   7.876   2.002   8.465
35245SOL     OW 7567   3.269   9.553  13.067
35245SOL    HW1 7568   3.222   9.526  12.988
35245SOL    HW2 7569   3.200   9.570  13.131
35246SOL     OW 7570   8.637   1.988   3.183
35246SOL    HW1 7571   8.635   1.971   3.278
35246SOL    HW2 7572   8.698   2.061   3.174
35247SOL     OW 7573   7.642   3.661   8.033
35247SOL    HW1 7574   7.626   3.717   8.109
35247SOL    HW2 7575   7.721   3.697   7.993
35248SOL     OW 7576   4.439   2.220   5.943
35248SOL    HW1 7577   4.420   2.193   5.853
35248SOL    HW2 7578   4.366   2.186   5.994
35249SOL     OW 7579   9.963   0.246  11.764
35249SOL    HW1 7580   9.915   0.325  11.792
35249SOL    HW2 7581   9.998   0.270  11.678
35250SOL     OW 7582   2.658  10.384  12.080
35250SOL    HW1 7583   2.639  10.417  11.993
35250SOL    HW2 7584   2.724  10.445  12.114
35251SOL     OW 7585   6.366  14.821   1.011
35251SOL    HW1 7586   6.443  14.804   1.066
35251SOL    HW2 7587   6.326  14.735   0.998
35252SOL     OW 7588  12.804   7.441   3.293
35252SOL    HW1 7589  12.762   7.495   3.225
35252SOL    HW2 7590  12.862   7.383   3.245
35253SOL     OW 7591  11.588   2.454  13.450
35253SOL    HW1 7592  11.680   2.469  13.427
35253SOL    HW2 7593  11.574   2.361  13.433
35254SOL     OW 7594  13.473  10.318  13.418
35254SOL    HW1 7595  13.478  10.249  13.483
35254SOL    HW2 7596  13.527  10.389  13.454
35255SOL     OW 7597   7.380  13.671   4.306
35255SOL    HW1 7598   7.348  13.603   4.365
35255SOL    HW2 7599   7.413  13.624   4.230
35256SOL     OW 7600  14.015   5.733  13.783
35256SOL    HW1 7601  14.019   5.826  13.804
35256SOL    HW2 7602  14.093   5.695  13.823
35257SOL     OW 7603   7.712  10.521  14.258
35257SOL    HW1 7604   7.726  10.593  14.197
35257SOL    HW2 7605   7.642  10.552  14.316
35258SOL     OW 7606  11.941   9.803  11.960
35258SOL    HW1 7607  11.945   9.883  11.907
35258SOL    HW2 7608  11.981   9.735  11.905
35259SOL     OW 7609   7.838  12.803   9.946
35259SOL    HW1 7610   7.856  12.897   9.942
35259SOL    HW2 7611   7.901  12.770  10.011
35260SOL     OW 7612   9.093   9.443  12.836
35260SOL    HW1 7613   9.161   9.388  12.797
35260SOL    HW2 7614   9.014   9.420  12.788
35261SOL     OW 7615   1.279   3.144   6.126
35261SOL    HW1 7616   1.356   3.096   6.095
35261SOL    HW2 7617   1.225   3.156   6.047
35262SOL     OW 7618   6.252   7.418   4.115
35262SOL    HW1 7619   6.167   7.412   4.071
35262SOL    HW2 7620   6.312   7.448   4.046
35263SOL     OW 7621   9.178  12.898   6.875
35263SOL    HW1 7622   9.264  12.857   6.877
35263SOL    HW2 7623   9.179  12.961   6.947
35264SOL     OW 7624  11.828   5.371   5.618
35264SOL    HW1 7625  11.862   5.457   5.640
35264SOL    HW2 7626  11.831   5.321   5.700
35265SOL     OW 7627   6.310  12.928   4.544
35265SOL    HW1 7628   6.219  12.917   4.518
35265SOL    HW2 7629   6.307  12.993   4.615
35266SOL     OW 7630   2.373   1.082   5.900
35266SOL    HW1 7631   2.397   1.106   5.810
35266SOL    HW2 7632   2.343   0.992   5.893
35267SOL     OW 7633  12.126   5.271   6.528
35267SOL    HW1 7634  12.175   5.237   6.603
35267SOL    HW2 7635  12.184   5.256   6.453
35268SOL     OW 7636  11.732  12.766  11.215
35268SOL    HW1 7637  11.665  12.739  11.278
35268SOL    HW2 7638  11.717  12.711  11.139
35269SOL     OW 7639  12.990   2.458   5.013
35269SOL    HW1 7640  12.907   2.411   5.009
35269SOL    HW2 7641  13.030   2.428   5.095
35270SOL     OW 7642   5.570  12.186   1.976
35270SOL    HW1 7643   5.504  12.254   1.965
35270SOL    HW2 7644   5.615  12.183   1.892
35271SOL     OW 7645   8.783   4.268   5.336
35271SOL    HW1 7646   8.856   4.216   5.304
35271SOL    HW2 7647   8.778   4.248   5.430
35272SOL     OW 7648   1.362  10.281   5.170
35272SOL    HW1 7649   1.418  10.208   5.145
35272SOL    HW2 7650   1.420  10.357   5.172
35273SOL     OW 7651  12.189  10.532  12.774
35273SOL    HW1 7652  12.098  10.539  12.745
35273SOL    HW2 7653  12.188  10.466  12.843
35274SOL     OW 7654   2.162   7.703   0.739
35274SOL    HW1 7655   2.127   7.621   0.775
35274SOL    HW2 7656   2.255   7.686   0.729
35275SOL     OW 7657   2.330   9.987  10.447
35275SOL    HW1 7658   2.323   9.908  10.394
35275SOL    HW2 7659   2.375  10.050  10.390
35276SOL     OW 7660  11.388   7.607  10.316
35276SOL    HW1 7661  11.449   7.676  10.341
35276SOL    HW2 7662  11.301   7.644  10.334
35277SOL     OW 7663  10.921   3.045   9.100
35277SOL    HW1 7664  10.900   3.002   9.017
35277SOL    HW2 7665  10.836   3.064   9.138
35278SOL     OW 7666   9.876  12.095  13.317
35278SOL    HW1 7667   9.855  12.131  13.231
35278SOL    HW2 7668   9.937  12.023  13.299
35279SOL     OW 7669   1.316   3.393   5.347
35279SOL    HW1 7670   1.233   3.359   5.380
35279SOL    HW2 7671   1.381   3.361   5.410
35280SOL     OW 7672  14.062   5.136   6.744
35280SOL    HW1 7673  14.154   5.158   6.732
35280SOL    HW2 7674  14.061   5.077   6.820
35281SOL     OW 7675   7.014   2.813   7.752
35281SOL    HW1 7676   6.996   2.875   7.823
35281SOL    HW2 7677   7.097   2.843   7.715
35282SOL     OW 7678   6.665  10.183  14.406
35282SOL    HW1 7679   6.720  10.260  14.415
35282SOL    HW2 7680   6.682  10.132  14.486
35283SOL     OW 7681  11.432   8.771  10.389
35283SOL    HW1 7682  11.482   8.805  10.315
35283SOL    HW2 7683  11.407   8.683  10.362
35284SOL     OW 7684   7.540  10.419   3.904
35284SOL    HW1 7685   7.632  10.405   3.925
35284SOL    HW2 7686   7.536  10.420   3.808
35285SOL     OW 7687   2.068  12.895  13.887
35285SOL    HW1 7688   2.012  12.846  13.948
35285SOL    HW2 7689   2.151  12.904  13.933
35286SOL     OW 7690   7.308   6.053   3.729
35286SOL    HW1 7691   7.307   5.989   3.657
35286SOL    HW2 7692   7.357   6.127   3.693
35287SOL     OW 7693   6.423  12.839   8.879
35287SOL    HW1 7694   6.418  12.773   8.810
35287SOL    HW2 7695   6.493  12.808   8.937
35288SOL     OW 7696   6.425   1.750  11.176
35288SOL    HW1 7697   6.362   1.801  11.126
35288SOL    HW2 7698   6.479   1.815  11.221
35289SOL     OW 7699   7.025  12.081  14.754
35289SOL    HW1 7700   7.042  12.175  14.762
35289SOL    HW2 7701   7.036  12.048  14.843
35290SOL     OW 7702  12.356  12.271  14.421
35290SOL    HW1 7703  12.357  12.264  14.517
35290SOL    HW2 7704  12.406  12.350  14.402
35291SOL     OW 7705   1.775  10.540  11.204
35291SOL    HW1 7706   1.696  10.540  11.259
35291SOL    HW2 7707   1.846  10.561  11.265
35292SOL     OW 7708   8.095   3.179  12.009
35292SOL    HW1 7709   8.073   3.265  12.044
35292SOL    HW2 7710   8.017   3.153  11.960
35293SOL     OW 7711  11.771  12.985   4.919
35293SOL    HW1 7712  11.683  12.955   4.897
35293SOL    HW2 7713  11.760  13.077   4.943
35294SOL     OW 7714  14.839   2.098   5.847
35294SOL    HW1 7715  14.811   2.065   5.932
35294SOL    HW2 7716  14.859   2.190   5.862
35295SOL     OW 7717  12.269  13.878   5.438
35295SOL    HW1 7718  12.176  13.883   5.463
35295SOL    HW2 7719  12.316  13.910   5.515
35296SOL     OW 7720   9.033   2.170   4.558
35296SOL    HW1 7721   9.041   2.260   4.525
35296SOL    HW2 7722   9.123   2.138   4.563
35297SOL     OW 7723   6.562   4.587   9.687
35297SOL    HW1 7724   6.653   4.584   9.659
35297SOL    HW2 7725   6.562   4.543   9.772
35298SOL     OW 7726   0.524   6.805   1.477
35298SOL    HW1 7727   0.595   6.806   1.413
35298SOL    HW2 7728   0.546   6.873   1.540
35299SOL     OW 7729   0.217   0.032   4.692
35299SOL    HW1 7730   0.227   0.096   4.762
35299SOL    HW2 7731   0.301  14.861   4.688
35300SOL     OW 7732   1.823  14.443   2.369
35300SOL    HW1 7733   1.755  14.486   2.420
35300SOL    HW2 7734   1.776  14.396   2.300
35301SOL     OW 7735   8.307  13.396   3.857
35301SOL    HW1 7736   8.323  13.408   3.950
35301SOL    HW2 7737   8.384  13.348   3.825
35302SOL     OW 7738   1.363   8.986   2.752
35302SOL    HW1 7739   1.280   9.033   2.763
35302SOL    HW2 7740   1.359   8.950   2.664
35303SOL     OW 7741   2.099   2.690   0.275
35303SOL    HW1 7742   2.135   2.704   0.187
35303SOL    HW2 7743   2.173   2.655   0.325
35304SOL     OW 7744   0.326  14.414   9.340
35304SOL    HW1 7745   0.243  14.428   9.295
35304SOL    HW2 7746   0.320  14.325   9.375
35305SOL     OW 7747   4.398  11.930   0.193
35305SOL    HW1 7748   4.432  11.853   0.147
35305SOL    HW2 7749   4.383  11.994   0.123
35306SOL     OW 7750   7.588   1.059   8.388
35306SOL    HW1 7751   7.504   1.033   8.350
35306SOL    HW2 7752   7.634   0.977   8.403
35307SOL     OW 7753   7.624   0.482   9.328
35307SOL    HW1 7754   7.699   0.477   9.269
35307SOL    HW2 7755   7.548   0.476   9.271
35308SOL     OW 7756   8.789   9.994   8.268
35308SOL    HW1 7757   8.797   9.979   8.173
35308SOL    HW2 7758   8.698  10.022   8.279
35309SOL     OW 7759   9.630   5.376  12.010
35309SOL    HW1 7760   9.694   5.395  11.942
35309SOL    HW2 7761   9.680   5.337  12.081
35310SOL     OW 7762   7.719  14.212  14.850
35310SOL    HW1 7763   7.680  14.294  14.819
35310SOL    HW2 7764   7.669  14.190   0.056
35311SOL     OW 7765   4.948   8.720   2.078
35311SOL    HW1 7766   4.971   8.634   2.113
35311SOL    HW2 7767   5.031   8.767   2.072
35312SOL     OW 7768   9.906  10.005  10.472
35312SOL    HW1 7769   9.827   9.968  10.433
35312SOL    HW2 7770   9.962   9.929  10.489
35313SOL     OW 7771   7.916   0.662   6.231
35313SOL    HW1 7772   7.929   0.749   6.191
35313SOL    HW2 7773   7.828   0.666   6.268
35314SOL     OW 7774  13.596   1.640  10.188
35314SOL    HW1 7775  13.607   1.676  10.100
35314SOL    HW2 7776  13.504   1.656  10.210
35315SOL     OW 7777   5.478   8.558  12.878
35315SOL    HW1 7778   5.423   8.481  12.886
35315SOL    HW2 7779   5.477   8.578  12.784
35316SOL     OW 7780  13.659   9.622   5.839
35316SOL    HW1 7781  13.620   9.696   5.792
35316SOL    HW2 7782  13.753   9.629   5.822
35317SOL     OW 7783   5.125   2.681  14.794
35317SOL    HW1 7784   5.154   2.628  14.869
35317SOL    HW2 7785   5.073   2.751  14.833
35318SOL     OW 7786   5.294   1.367   1.144
35318SOL    HW1 7787   5.341   1.311   1.206
35318SOL    HW2 7788   5.248   1.306   1.086
35319SOL     OW 7789  14.070  13.616   9.309
35319SOL    HW1 7790  13.989  13.646   9.349
35319SOL    HW2 7791  14.137  13.632   9.376
35320SOL     OW 7792   9.896   0.047  10.304
35320SOL    HW1 7793   9.829   0.104  10.268
35320SOL    HW2 7794   9.939   0.007  10.228
35321SOL     OW 7795   6.522  13.525   6.172
35321SOL    HW1 7796   6.507  13.433   6.192
35321SOL    HW2 7797   6.543  13.526   6.079
35322SOL     OW 7798   2.698   9.698  11.228
35322SOL    HW1 7799   2.726   9.683  11.319
35322SOL    HW2 7800   2.730   9.786  11.208
35323SOL     OW 7801  11.542  11.042   3.167
35323SOL    HW1 7802  11.585  11.044   3.252
35323SOL    HW2 7803  11.460  10.994   3.183
35324SOL     OW 7804  12.800   0.796  10.683
35324SOL    HW1 7805  12.831   0.872  10.634
35324SOL    HW2 7806  12.842   0.721  10.640
35325SOL     OW 7807   2.106   6.269   8.279
35325SOL    HW1 7808   2.093   6.280   8.185
35325SOL    HW2 7809   2.183   6.213   8.286
35326SOL     OW 7810   4.890   4.880  12.318
35326SOL    HW1 7811   4.920   4.808  12.262
35326SOL    HW2 7812   4.970   4.918  12.354
35327SOL     OW 7813   3.556   3.028  14.364
35327SOL    HW1 7814   3.639   2.981  14.356
35327SOL    HW2 7815   3.506   2.977  14.428
35328SOL     OW 7816  11.263  10.430   3.082
35328SOL    HW1 7817  11.284  10.521   3.061
35328SOL    HW2 7818  11.266  10.385   2.998
35329SOL     OW 7819  13.718   4.246  11.349
35329SOL    HW1 7820  13.691   4.200  11.428
35329SOL    HW2 7821  13.691   4.188  11.277
35330SOL     OW 7822  13.871   5.754   4.913
35330SOL    HW1 7823  13.955   5.708   4.908
35330SOL    HW2 7824  13.890   5.841   4.879
35331SOL     OW 7825   4.344   5.225   1.855
35331SOL    HW1 7826   4.333   5.131   1.867
35331SOL    HW2 7827   4.426   5.233   1.806
35332SOL     OW 7828   4.384   1.066   3.893
35332SOL    HW1 7829   4.458   1.093   3.947
35332SOL    HW2 7830   4.421   1.003   3.831
35333SOL     OW 7831   7.489   5.444   1.477
35333SOL    HW1 7832   7.507   5.377   1.543
35333SOL    HW2 7833   7.497   5.398   1.393
35334SOL     OW 7834   3.873  13.363   3.916
35334SOL    HW1 7835   3.828  13.347   3.999
35334SOL    HW2 7836   3.921  13.282   3.899
35335SOL     OW 7837  11.866  10.851   4.523
35335SOL    HW1 7838  11.787  10.891   4.559
35335SOL    HW2 7839  11.838  10.764   4.494
35336SOL     OW 7840   2.628   2.103  14.326
35336SOL    HW1 7841   2.714   2.142  14.309
35336SOL    HW2 7842   2.622   2.099  14.421
35337SOL     OW 7843   9.769   4.010   3.413
35337SOL    HW1 7844   9.753   3.919   3.435
35337SOL    HW2 7845   9.683   4.045   3.390
35338SOL     OW 7846   3.493   9.983   5.595
35338SOL    HW1 7847   3.498   9.953   5.686
35338SOL    HW2 7848   3.482   9.903   5.544
35339SOL     OW 7849   5.330   1.995  14.567
35339SOL    HW1 7850   5.276   1.935  14.618
35339SOL    HW2 7851   5.323   2.079  14.613
35340SOL     OW 7852   4.966   3.905   8.310
35340SOL    HW1 7853   4.906   3.971   8.344
35340SOL    HW2 7854   4.913   3.825   8.304
35341SOL     OW 7855  14.326   5.494   9.886
35341SOL    HW1 7856  14.346   5.421   9.944
35341SOL    HW2 7857  14.357   5.465   9.800
35342SOL     OW 7858  13.878  10.037  12.307
35342SOL    HW1 7859  13.795   9.990  12.311
35342SOL    HW2 7860  13.894  10.048  12.213
35343SOL     OW 7861   0.325   0.310  10.702
35343SOL    HW1 7862   0.405   0.362  10.710
35343SOL    HW2 7863   0.298   0.293  10.792
35344SOL     OW 7864   5.815   5.247   2.962
35344SOL    HW1 7865   5.865   5.165   2.961
35344SOL    HW2 7866   5.724   5.219   2.948
35345SOL     OW 7867  10.269   2.317  13.946
35345SOL    HW1 7868  10.296   2.406  13.968
35345SOL    HW2 7869  10.191   2.302  14.000
35346SOL     OW 7870   3.777   6.920   3.729
35346SOL    HW1 7871   3.762   6.963   3.644
35346SOL    HW2 7872   3.863   6.951   3.756
35347SOL     OW 7873   7.414   8.145  14.870
35347SOL    HW1 7874   7.327   8.185  14.861
35347SOL    HW2 7875   7.470   8.217   0.026
35348SOL     OW 7876   6.896   5.800   9.378
35348SOL    HW1 7877   6.929   5.786   9.467
35348SOL    HW2 7878   6.884   5.895   9.372
35349SOL     OW 7879   4.700   2.399  10.981
35349SOL    HW1 7880   4.672   2.321  11.030
35349SOL    HW2 7881   4.795   2.389  10.973
35350SOL     OW 7882   4.669   2.976   1.586
35350SOL    HW1 7883   4.600   2.999   1.648
35350SOL    HW2 7884   4.665   3.045   1.519
35351SOL     OW 7885   3.359  10.032  14.607
35351SOL    HW1 7886   3.445  10.049  14.645
35351SOL    HW2 7887   3.303  10.101  14.642
35352SOL     OW 7888   6.453   2.964   5.593
35352SOL    HW1 7889   6.480   3.042   5.641
35352SOL    HW2 7890   6.486   2.891   5.645
35353SOL     OW 7891   7.132   7.200   0.207
35353SOL    HW1 7892   7.077   7.254   0.149
35353SOL    HW2 7893   7.205   7.172   0.151
35354SOL     OW 7894   4.824   0.054   1.064
35354SOL    HW1 7895   4.769   0.087   1.135
35354SOL    HW2 7896   4.769   0.061   0.986
35355SOL     OW 7897  14.067  14.358  12.977
35355SOL    HW1 7898  14.062  14.310  12.894
35355SOL    HW2 7899  14.146  14.411  12.968
35356SOL     OW 7900   7.134   2.371  11.123
35356SOL    HW1 7901   7.097   2.358  11.036
35356SOL    HW2 7902   7.060   2.356  11.183
35357SOL     OW 7903   9.557   8.650   6.713
35357SOL    HW1 7904   9.590   8.684   6.796
35357SOL    HW2 7905   9.499   8.578   6.738
35358SOL     OW 7906   0.272   8.497   7.207
35358SOL    HW1 7907   0.273   8.520   7.300
35358SOL    HW2 7908   0.347   8.544   7.170
35359SOL     OW 7909   9.807  14.554  10.747
35359SOL    HW1 7910   9.765  14.569  10.832
35359SOL    HW2 7911   9.777  14.627  10.692
35360SOL     OW 7912   0.882   8.390   5.739
35360SOL    HW1 7913   0.899   8.382   5.646
35360SOL    HW2 7914   0.968   8.405   5.778
35361SOL     OW 7915  10.189  14.720   0.998
35361SOL    HW1 7916  10.124  14.691   1.063
35361SOL    HW2 7917  10.141  14.723   0.916
35362SOL     OW 7918   2.255   3.094   1.376
35362SOL    HW1 7919   2.289   3.005   1.372
35362SOL    HW2 7920   2.268   3.129   1.288
35363SOL     OW 7921  14.472   8.659   5.557
35363SOL    HW1 7922  14.512   8.582   5.598
35363SOL    HW2 7923  14.515   8.667   5.472
35364SOL     OW 7924   1.789  13.959   5.956
35364SOL    HW1 7925   1.884  13.966   5.959
35364SOL    HW2 7926   1.766  13.983   5.866
35365SOL     OW 7927   6.117   2.503   6.080
35365SOL    HW1 7928   6.096   2.521   5.988
35365SOL    HW2 7929   6.095   2.411   6.093
35366SOL     OW 7930   6.740   5.379  14.417
35366SOL    HW1 7931   6.802   5.313  14.387
35366SOL    HW2 7932   6.792   5.458  14.427
35367SOL     OW 7933  10.679   7.361   6.282
35367SOL    HW1 7934  10.600   7.405   6.251
35367SOL    HW2 7935  10.748   7.394   6.225
35368SOL     OW 7936   3.355  13.999   5.642
35368SOL    HW1 7937   3.448  14.011   5.661
35368SOL    HW2 7938   3.328  13.926   5.697
35369SOL     OW 7939  10.340   0.533   2.471
35369SOL    HW1 7940  10.432   0.543   2.446
35369SOL    HW2 7941  10.301   0.485   2.399
35370SOL     OW 7942   4.330   6.049   2.310
35370SOL    HW1 7943   4.393   6.033   2.381
35370SOL    HW2 7944   4.379   6.031   2.230
35371SOL     OW 7945   4.817   1.334  11.149
35371SOL    HW1 7946   4.816   1.242  11.175
35371SOL    HW2 7947   4.731   1.349  11.109
35372SOL     OW 7948   1.013   1.598   3.449
35372SOL    HW1 7949   1.003   1.693   3.442
35372SOL    HW2 7950   1.096   1.587   3.494
35373SOL     OW 7951   7.294  10.437  11.882
35373SOL    HW1 7952   7.237  10.395  11.818
35373SOL    HW2 7953   7.374  10.386  11.880
35374SOL     OW 7954   6.927   4.154   9.113
35374SOL    HW1 7955   6.981   4.231   9.133
35374SOL    HW2 7956   6.957   4.087   9.174
35375SOL     OW 7957   8.232   2.531   0.212
35375SOL    HW1 7958   8.288   2.504   0.285
35375SOL    HW2 7959   8.202   2.619   0.236
35376SOL     OW 7960  12.336   9.998  14.023
35376SOL    HW1 7961  12.416  10.050  14.032
35376SOL    HW2 7962  12.299  10.026  13.940
35377SOL     OW 7963   2.656   5.945   1.021
35377SOL    HW1 7964   2.718   5.884   0.980
35377SOL    HW2 7965   2.691   6.032   1.000
35378SOL     OW 7966   5.980  11.796  13.386
35378SOL    HW1 7967   6.051  11.791  13.450
35378SOL    HW2 7968   6.007  11.738  13.315
35379SOL     OW 7969   6.445   5.711   5.250
35379SOL    HW1 7970   6.452   5.626   5.294
35379SOL    HW2 7971   6.530   5.723   5.208
35380SOL     OW 7972   2.879  11.378   0.074
35380SOL    HW1 7973   2.818  11.412   0.140
35380SOL    HW2 7974   2.938  11.322   0.124
35381SOL     OW 7975   6.932   9.159   5.548
35381SOL    HW1 7976   6.935   9.251   5.520
35381SOL    HW2 7977   7.025   9.134   5.555
35382SOL     OW 7978   0.009  14.181   9.575
35382SOL    HW1 7979  14.851  14.177   9.484
35382SOL    HW2 7980   0.045  14.094   9.591
35383SOL     OW 7981   8.005   9.841   9.122
35383SOL    HW1 7982   7.957   9.817   9.043
35383SOL    HW2 7983   8.055   9.919   9.097
35384SOL     OW 7984   9.333   9.193   5.900
35384SOL    HW1 7985   9.408   9.133   5.901
35384SOL    HW2 7986   9.314   9.206   5.808
35385SOL     OW 7987  13.529   6.279   8.216
35385SOL    HW1 7988  13.562   6.245   8.133
35385SOL    HW2 7989  13.605   6.276   8.274
35386SOL     OW 7990   4.734   1.064   9.298
35386SOL    HW1 7991   4.738   0.989   9.358
35386SOL    HW2 7992   4.724   1.025   9.211
35387SOL     OW 7993  12.950  14.420   5.123
35387SOL    HW1 7994  12.942  14.514   5.108
35387SOL    HW2 7995  12.861  14.392   5.143
35388SOL     OW 7996  12.815  11.318  11.232
35388SOL    HW1 7997  12.739  11.373  11.247
35388SOL    HW2 7998  12.801  11.243  11.290
35389SOL     OW 7999   2.092   3.691   5.071
35389SOL    HW1 8000   2.127   3.770   5.113
35389SOL    HW2 8001   2.001   3.686   5.100
35390SOL     OW 8002   7.445  13.947   9.682
35390SOL    HW1 8003   7.496  13.995   9.748
35390SOL    HW2 8004   7.390  14.013   9.641
35391SOL     OW 8005  11.062   9.823   8.609
35391SOL    HW1 8006  11.050   9.903   8.558
35391SOL    HW2 8007  11.125   9.772   8.558
35392SOL     OW 8008   4.941   0.293   2.258
35392SOL    HW1 8009   4.982   0.225   2.205
35392SOL    HW2 8010   4.847   0.279   2.247
35393SOL     OW 8011  12.167   9.938   6.747
35393SOL    HW1 8012  12.232   9.926   6.816
35393SOL    HW2 8013  12.208   9.998   6.685
35394SOL     OW 8014   7.328   9.915  13.219
35394SOL    HW1 8015   7.390   9.979  13.184
35394SOL    HW2 8016   7.272   9.965  13.278
35395SOL     OW 8017   0.528   4.738   4.249
35395SOL    HW1 8018   0.501   4.716   4.160
35395SOL    HW2 8019   0.594   4.672   4.272
35396SOL     OW 8020  11.144   7.976   9.021
35396SOL    HW1 8021  11.052   7.964   8.997
35396SOL    HW2 8022  11.145   7.973   9.116
35397SOL     OW 8023   3.114   1.777   3.479
35397SOL    HW1 8024   3.146   1.741   3.561
35397SOL    HW2 8025   3.191   1.784   3.423
35398SOL     OW 8026   5.817   3.495   0.670
35398SOL    HW1 8027   5.727   3.488   0.641
35398SOL    HW2 8028   5.838   3.408   0.706
35399SOL     OW 8029  12.927  14.255   2.760
35399SOL    HW1 8030  12.905  14.341   2.724
35399SOL    HW2 8031  12.851  14.200   2.739
35400SOL     OW 8032  14.404  14.719  10.937
35400SOL    HW1 8033  14.422  14.647  10.997
35400SOL    HW2 8034  14.316  14.749  10.961
35401SOL     OW 8035  11.844  13.675  14.439
35401SOL    HW1 8036  11.906  13.736  14.480
35401SOL    HW2 8037  11.838  13.602  14.501
35402SOL     OW 8038   1.264   9.719   0.324
35402SOL    HW1 8039   1.193   9.672   0.280
35402SOL    HW2 8040   1.220   9.786   0.376
35403SOL     OW 8041   4.578   1.164   4.055
35403SOL    HW1 8042   4.671   1.147   4.069
35403SOL    HW2 8043   4.547   1.198   4.139
35404SOL     OW 8044   3.433   4.347   5.708
35404SOL    HW1 8045   3.423   4.273   5.768
35404SOL    HW2 8046   3.382   4.418   5.748
35405SOL     OW 8047  11.421   8.436   4.680
35405SOL    HW1 8048  11.505   8.471   4.653
35405SOL    HW2 8049  11.375   8.417   4.597
35406SOL     OW 8050   2.343   6.355   7.791
35406SOL    HW1 8051   2.401   6.333   7.864
35406SOL    HW2 8052   2.278   6.414   7.829
35407SOL     OW 8053   8.904   5.085   2.064
35407SOL    HW1 8054   8.924   5.158   2.123
35407SOL    HW2 8055   8.928   5.007   2.114
35408SOL     OW 8056  14.293   0.775  12.386
35408SOL    HW1 8057  14.292   0.864  12.352
35408SOL    HW2 8058  14.207   0.762  12.424
35409SOL     OW 8059   8.659   6.939  12.143
35409SOL    HW1 8060   8.572   6.967  12.174
35409SOL    HW2 8061   8.717   6.957  12.217
35410SOL     OW 8062  14.626   9.827   5.723
35410SOL    HW1 8063  14.590   9.891   5.662
35410SOL    HW2 8064  14.718   9.820   5.699
35411SOL     OW 8065  13.731   8.351  10.582
35411SOL    HW1 8066  13.781   8.328  10.503
35411SOL    HW2 8067  13.641   8.325  10.562
35412SOL     OW 8068   0.362   1.054   4.252
35412SOL    HW1 8069   0.415   1.127   4.220
35412SOL    HW2 8070   0.294   1.042   4.185
35413SOL     OW 8071   6.643  13.191   6.822
35413SOL    HW1 8072   6.653  13.279   6.787
35413SOL    HW2 8073   6.732  13.157   6.827
35414SOL     OW 8074   5.001  11.178  11.092
35414SOL    HW1 8075   4.948  11.236  11.038
35414SOL    HW2 8076   5.090  11.187  11.057
35415SOL     OW 8077   3.007   8.977   6.027
35415SOL    HW1 8078   2.922   8.935   6.015
35415SOL    HW2 8079   2.987   9.062   6.066
35416SOL     OW 8080  11.125   9.234  13.837
35416SOL    HW1 8081  11.212   9.250  13.802
35416SOL    HW2 8082  11.139   9.195  13.923
35417SOL     OW 8083   1.571   9.124   1.261
35417SOL    HW1 8084   1.620   9.172   1.195
35417SOL    HW2 8085   1.517   9.063   1.212
35418SOL     OW 8086   8.131   8.447   5.615
35418SOL    HW1 8087   8.114   8.394   5.537
35418SOL    HW2 8088   8.103   8.535   5.591
35419SOL     OW 8089   9.492  13.873   4.739
35419SOL    HW1 8090   9.480  13.884   4.833
35419SOL    HW2 8091   9.472  13.958   4.702
35420SOL     OW 8092  14.332   0.900   9.019
35420SOL    HW1 8093  14.267   0.955   9.061
35420SOL    HW2 8094  14.287   0.816   9.005
35421SOL     OW 8095   8.518  11.949  13.445
35421SOL    HW1 8096   8.493  12.033  13.483
35421SOL    HW2 8097   8.449  11.931  13.381
35422SOL     OW 8098   0.029   4.672  14.230
35422SOL    HW1 8099   0.009   4.760  14.197
35422SOL    HW2 8100  14.820   4.623  14.216
35423SOL     OW 8101  10.001  13.374  10.892
35423SOL    HW1 8102   9.980  13.459  10.930
35423SOL    HW2 8103   9.986  13.386  10.798
35424SOL     OW 8104   8.970   8.016   3.894
35424SOL    HW1 8105   8.965   7.972   3.979
35424SOL    HW2 8106   8.895   7.982   3.845
35425SOL     OW 8107  10.372  13.492   0.821
35425SOL    HW1 8108  10.305  13.520   0.884
35425SOL    HW2 8109  10.353  13.399   0.807
35426SOL     OW 8110   7.832   2.892  12.900
35426SOL    HW1 8111   7.864   2.804  12.917
35426SOL    HW2 8112   7.815   2.893  12.805
35427SOL     OW 8113  12.177  13.363   3.163
35427SOL    HW1 8114  12.229  13.428   3.210
35427SOL    HW2 8115  12.186  13.386   3.071
35428SOL     OW 8116   4.593  14.867   4.336
35428SOL    HW1 8117   4.525  14.845   4.399
35428SOL    HW2 8118   4.544   0.030   4.261
35429SOL     OW 8119   3.023   1.560   2.039
35429SOL    HW1 8120   3.052   1.581   2.128
35429SOL    HW2 8121   2.996   1.643   2.001
35430SOL     OW 8122  11.401   3.537  12.412
35430SOL    HW1 8123  11.462   3.480  12.367
35430SOL    HW2 8124  11.316   3.493  12.403
35431SOL     OW 8125   0.675   8.590   3.949
35431SOL    HW1 8126   0.642   8.647   4.019
35431SOL    HW2 8127   0.606   8.591   3.883
35432SOL     OW 8128   8.819   3.441   8.338
35432SOL    HW1 8129   8.901   3.465   8.380
35432SOL    HW2 8130   8.812   3.346   8.353
35433SOL     OW 8131   2.520   2.181   8.469
35433SOL    HW1 8132   2.432   2.166   8.504
35433SOL    HW2 8133   2.567   2.221   8.541
35434SOL     OW 8134   9.158  11.697  11.202
35434SOL    HW1 8135   9.143  11.737  11.117
35434SOL    HW2 8136   9.253  11.681  11.204
35435SOL     OW 8137   0.212  13.984   2.547
35435SOL    HW1 8138   0.198  13.909   2.604
35435SOL    HW2 8139   0.126  14.024   2.538
35436SOL     OW 8140   6.797  10.366  13.876
35436SOL    HW1 8141   6.861  10.418  13.827
35436SOL    HW2 8142   6.810  10.392  13.967
35437SOL     OW 8143  13.066   8.507   0.407
35437SOL    HW1 8144  12.983   8.464   0.388
35437SOL    HW2 8145  13.083   8.563   0.331
35438SOL     OW 8146   0.195   9.594  10.452
35438SOL    HW1 8147   0.242   9.511  10.448
35438SOL    HW2 8148   0.190   9.614  10.546
35439SOL     OW 8149  13.393   5.302  14.550
35439SOL    HW1 8150  13.474   5.337  14.588
35439SOL    HW2 8151  13.323   5.340  14.604
35440SOL     OW 8152   5.739   6.600   3.284
35440SOL    HW1 8153   5.693   6.577   3.365
35440SOL    HW2 8154   5.767   6.691   3.297
35441SOL     OW 8155   3.571  11.382   6.768
35441SOL    HW1 8156   3.504  11.442   6.800
35441SOL    HW2 8157   3.529  11.334   6.697
35442SOL     OW 8158   4.873  12.351   6.252
35442SOL    HW1 8159   4.823  12.292   6.195
35442SOL    HW2 8160   4.927  12.402   6.192
35443SOL     OW 8161   0.456   0.152   3.009
35443SOL    HW1 8162   0.419   0.199   2.934
35443SOL    HW2 8163   0.551   0.159   2.996
35444SOL     OW 8164   1.200  12.705  10.350
35444SOL    HW1 8165   1.123  12.686  10.404
35444SOL    HW2 8166   1.164  12.725  10.264
35445SOL     OW 8167   5.439   1.824  12.209
35445SOL    HW1 8168   5.437   1.754  12.275
35445SOL    HW2 8169   5.375   1.888  12.240
35446SOL     OW 8170   5.438   0.066   6.651
35446SOL    HW1 8171   5.492   0.138   6.684
35446SOL    HW2 8172   5.378   0.047   6.724
35447SOL     OW 8173  14.203   9.796  14.044
35447SOL    HW1 8174  14.123   9.765  14.086
35447SOL    HW2 8175  14.206   9.748  13.961
35448SOL     OW 8176  13.642   3.097   6.300
35448SOL    HW1 8177  13.620   3.063   6.213
35448SOL    HW2 8178  13.733   3.072   6.314
35449SOL     OW 8179   1.476  13.036  10.614
35449SOL    HW1 8180   1.448  12.951  10.581
35449SOL    HW2 8181   1.398  13.073  10.655
35450SOL     OW 8182   5.411  12.754   4.307
35450SOL    HW1 8183   5.504  12.743   4.287
35450SOL    HW2 8184   5.366  12.706   4.237
35451SOL     OW 8185   0.067  14.734   1.360
35451SOL    HW1 8186   0.003  14.677   1.317
35451SOL    HW2 8187   0.018  14.814   1.380
35452SOL     OW 8188   8.933   6.258   4.906
35452SOL    HW1 8189   9.013   6.209   4.925
35452SOL    HW2 8190   8.911   6.233   4.816
35453SOL     OW 8191   3.345   4.285  14.549
35453SOL    HW1 8192   3.323   4.219  14.483
35453SOL    HW2 8193   3.400   4.348  14.502
35454SOL     OW 8194   6.897   6.267   8.815
35454SOL    HW1 8195   6.805   6.261   8.839
35454SOL    HW2 8196   6.901   6.232   8.726
35455SOL     OW 8197   3.638   1.279   5.977
35455SOL    HW1 8198   3.593   1.361   5.997
35455SOL    HW2 8199   3.574   1.228   5.926
35456SOL     OW 8200   8.545  10.027   0.416
35456SOL    HW1 8201   8.451  10.016   0.429
35456SOL    HW2 8202   8.553  10.076   0.335
35457SOL     OW 8203  14.551   8.545  11.023
35457SOL    HW1 8204  14.512   8.589  11.098
35457SOL    HW2 8205  14.511   8.587  10.947
35458SOL     OW 8206   4.985  12.414   7.008
35458SOL    HW1 8207   5.028  12.487   6.966
35458SOL    HW2 8208   4.976  12.348   6.940
35459SOL     OW 8209   5.048   8.863   3.099
35459SOL    HW1 8210   5.082   8.842   3.012
35459SOL    HW2 8211   4.953   8.866   3.089
35460SOL     OW 8212   0.208  12.477   4.913
35460SOL    HW1 8213   0.174  12.441   4.995
35460SOL    HW2 8214   0.138  12.535   4.882
35461SOL     OW 8215   7.691   1.799   5.272
35461SOL    HW1 8216   7.755   1.846   5.218
35461SOL    HW2 8217   7.691   1.845   5.356
35462SOL     OW 8218   7.701  14.275   0.665
35462SOL    HW1 8219   7.689  14.354   0.613
35462SOL    HW2 8220   7.661  14.295   0.749
35463SOL     OW 8221   5.033   7.783   0.597
35463SOL    HW1 8222   5.108   7.767   0.540
35463SOL    HW2 8223   4.992   7.697   0.608
35464SOL     OW 8224  11.130   4.681   9.499
35464SOL    HW1 8225  11.073   4.635   9.438
35464SOL    HW2 8226  11.218   4.665   9.468
35465SOL     OW 8227   9.498   6.363  12.268
35465SOL    HW1 8228   9.550   6.424  12.320
35465SOL    HW2 8229   9.412   6.362  12.310
35466SOL     OW 8230   7.487   2.208   4.925
35466SOL    HW1 8231   7.573   2.249   4.928
35466SOL    HW2 8232   7.478   2.178   4.835
35467SOL     OW 8233   9.087   1.133   8.301
35467SOL    HW1 8234   9.145   1.198   8.341
35467SOL    HW2 8235   9.041   1.094   8.375
35468SOL     OW 8236   8.650  12.905  10.313
35468SOL    HW1 8237   8.573  12.907  10.370
35468SOL    HW2 8238   8.724  12.907  10.373
35469SOL     OW 8239  12.298   3.226   6.737
35469SOL    HW1 8240  12.348   3.154   6.776
35469SOL    HW2 8241  12.296   3.293   6.806
35470SOL     OW 8242  14.394   5.426   8.716
35470SOL    HW1 8243  14.441   5.352   8.752
35470SOL    HW2 8244  14.337   5.389   8.648
35471SOL     OW 8245   9.444   5.158   8.716
35471SOL    HW1 8246   9.428   5.066   8.693
35471SOL    HW2 8247   9.498   5.154   8.794
35472SOL     OW 8248   7.492   7.703  13.243
35472SOL    HW1 8249   7.456   7.629  13.194
35472SOL    HW2 8250   7.446   7.701  13.327
35473SOL     OW 8251   1.228   0.243   7.966
35473SOL    HW1 8252   1.218   0.148   7.961
35473SOL    HW2 8253   1.153   0.273   8.018
35474SOL     OW 8254   9.941   8.928  12.097
35474SOL    HW1 8255   9.885   8.851  12.094
35474SOL    HW2 8256   9.911   8.977  12.174
35475SOL     OW 8257   4.764  10.991   4.703
35475SOL    HW1 8258   4.821  10.956   4.635
35475SOL    HW2 8259   4.763  11.086   4.688
35476SOL     OW 8260   4.165   3.870   6.275
35476SOL    HW1 8261   4.129   3.872   6.186
35476SOL    HW2 8262   4.123   3.945   6.319
35477SOL     OW 8263  11.638   4.543  13.581
35477SOL    HW1 8264  11.666   4.621  13.628
35477SOL    HW2 8265  11.707   4.478  13.598
35478SOL     OW 8266   4.096  10.349   5.582
35478SOL    HW1 8267   4.188  10.340   5.557
35478SOL    HW2 8268   4.087  10.296   5.662
35479SOL     OW 8269   5.085  11.981   7.121
35479SOL    HW1 8270   5.009  11.936   7.084
35479SOL    HW2 8271   5.127  12.022   7.045
35480SOL     OW 8272  10.305   2.058   1.935
35480SOL    HW1 8273  10.376   2.012   1.891
35480SOL    HW2 8274  10.346   2.135   1.973
35481SOL     OW 8275  10.273   1.802   0.784
35481SOL    HW1 8276  10.348   1.809   0.843
35481SOL    HW2 8277  10.233   1.718   0.807
35482SOL     OW 8278   0.248  14.869   6.412
35482SOL    HW1 8279   0.189   0.054   6.460
35482SOL    HW2 8280   0.297  14.823   6.480
35483SOL     OW 8281   7.862   8.268   0.776
35483SOL    HW1 8282   7.929   8.250   0.842
35483SOL    HW2 8283   7.910   8.310   0.705
35484SOL     OW 8284   1.256  14.735   3.758
35484SOL    HW1 8285   1.309  14.657   3.742
35484SOL    HW2 8286   1.243  14.774   3.671
35485SOL     OW 8287  14.483   5.249   6.203
35485SOL    HW1 8288  14.484   5.186   6.276
35485SOL    HW2 8289  14.566   5.233   6.158
35486SOL     OW 8290   8.829  10.375   7.468
35486SOL    HW1 8291   8.873  10.426   7.536
35486SOL    HW2 8292   8.789  10.302   7.516
35487SOL     OW 8293   5.571   6.279   8.417
35487SOL    HW1 8294   5.564   6.186   8.399
35487SOL    HW2 8295   5.644   6.286   8.479
35488SOL     OW 8296  10.051  11.099   8.144
35488SOL    HW1 8297  10.141  11.069   8.129
35488SOL    HW2 8298  10.010  11.027   8.192
35489SOL     OW 8299   6.264   8.287  10.708
35489SOL    HW1 8300   6.276   8.193  10.700
35489SOL    HW2 8301   6.224   8.313  10.624
35490SOL     OW 8302  11.941  12.998   1.648
35490SOL    HW1 8303  11.973  12.922   1.601
35490SOL    HW2 8304  12.017  13.057   1.654
35491SOL     OW 8305   5.945   4.335  12.517
35491SOL    HW1 8306   5.880   4.369  12.578
35491SOL    HW2 8307   6.028   4.342  12.564
35492SOL     OW 8308   8.181  14.724   8.629
35492SOL    HW1 8309   8.214  14.670   8.556
35492SOL    HW2 8310   8.150  14.660   8.693
35493SOL     OW 8311   5.387   0.264  12.868
35493SOL    HW1 8312   5.468   0.250  12.819
35493SOL    HW2 8313   5.326   0.200  12.831
35494SOL     OW 8314  12.357   1.000   5.953
35494SOL    HW1 8315  12.407   1.061   6.008
35494SOL    HW2 8316  12.419   0.975   5.884
35495SOL     OW 8317   6.238   3.642  11.014
35495SOL    HW1 8318   6.220   3.688  10.932
35495SOL    HW2 8319   6.323   3.601  11.000
35496SOL     OW 8320   8.461   2.025   1.523
35496SOL    HW1 8321   8.367   2.029   1.541
35496SOL    HW2 8322   8.498   2.099   1.571
35497SOL     OW 8323   7.033  13.959   8.954
35497SOL    HW1 8324   6.943  13.970   8.984
35497SOL    HW2 8325   7.047  13.864   8.957
35498SOL     OW 8326   3.553   3.044   7.887
35498SOL    HW1 8327   3.524   2.983   7.819
35498SOL    HW2 8328   3.555   2.992   7.967
35499SOL     OW 8329   3.703   3.723   9.923
35499SOL    HW1 8330   3.710   3.707   9.829
35499SOL    HW2 8331   3.689   3.636   9.961
35500SOL     OW 8332   4.893   2.993   1.156
35500SOL    HW1 8333   4.879   2.903   1.185
35500SOL    HW2 8334   4.845   3.046   1.219
35501SOL     OW 8335   0.611   0.680   6.519
35501SOL    HW1 8336   0.642   0.637   6.439
35501SOL    HW2 8337   0.527   0.639   6.537
35502SOL     OW 8338  13.732  11.141   9.352
35502SOL    HW1 8339  13.776  11.084   9.414
35502SOL    HW2 8340  13.643  11.151   9.386
35503SOL     OW 8341   9.457   4.902   5.092
35503SOL    HW1 8342   9.475   4.856   5.174
35503SOL    HW2 8343   9.508   4.854   5.026
35504SOL     OW 8344  13.540   8.698  12.789
35504SOL    HW1 8345  13.491   8.769  12.747
35504SOL    HW2 8346  13.592   8.742  12.856
35505SOL     OW 8347   5.134   1.091   1.274
35505SOL    HW1 8348   5.131   1.120   1.183
35505SOL    HW2 8349   5.100   1.002   1.272
35506SOL     OW 8350  11.605   0.704  11.629
35506SOL    HW1 8351  11.672   0.718  11.562
35506SOL    HW2 8352  11.584   0.793  11.660
35507SOL     OW 8353   7.758  10.003   1.176
35507SOL    HW1 8354   7.764  10.056   1.097
35507SOL    HW2 8355   7.664   9.988   1.187
35508SOL     OW 8356   0.881   3.409   7.758
35508SOL    HW1 8357   0.814   3.393   7.825
35508SOL    HW2 8358   0.837   3.464   7.693
35509SOL     OW 8359   0.547  12.985  11.021
35509SOL    HW1 8360   0.468  13.011  11.069
35509SOL    HW2 8361   0.598  12.936  11.085
35510SOL     OW 8362   4.854   9.487  10.893
35510SOL    HW1 8363   4.865   9.393  10.912
35510SOL    HW2 8364   4.859   9.492  10.797
35511SOL     OW 8365   8.550  13.799  14.579
35511SOL    HW1 8366   8.479  13.736  14.571
35511SOL    HW2 8367   8.528  13.850  14.657
35512SOL     OW 8368   9.946   8.342  14.749
35512SOL    HW1 8369  10.025   8.296  14.777
35512SOL    HW2 8370   9.964   8.367  14.659
35513SOL     OW 8371   4.642   1.660   9.122
35513SOL    HW1 8372   4.621   1.578   9.078
35513SOL    HW2 8373   4.618   1.646   9.213
35514SOL     OW 8374   3.815  10.387  12.964
35514SOL    HW1 8375   3.904  10.365  12.991
35514SOL    HW2 8376   3.788  10.313  12.909
35515SOL     OW 8377   1.803   3.608   6.666
35515SOL    HW1 8378   1.775   3.615   6.757
35515SOL    HW2 8379   1.778   3.690   6.625
35516SOL     OW 8380  10.246   7.354   2.576
35516SOL    HW1 8381  10.194   7.406   2.515
35516SOL    HW2 8382  10.192   7.278   2.595
35517SOL     OW 8383   2.759  11.836   0.076
35517SOL    HW1 8384   2.737  11.791   0.158
35517SOL    HW2 8385   2.674  11.858   0.038
35518SOL     OW 8386   2.411  11.790  12.948
35518SOL    HW1 8387   2.438  11.731  13.019
35518SOL    HW2 8388   2.392  11.873  12.991
35519SOL     OW 8389  14.782   1.109   1.235
35519SOL    HW1 8390  14.790   1.192   1.283
35519SOL    HW2 8391  14.712   1.124   1.172
35520SOL     OW 8392   8.995   9.184  14.623
35520SOL    HW1 8393   9.069   9.231  14.587
35520SOL    HW2 8394   8.974   9.117  14.558
35521SOL     OW 8395  10.254   4.242   7.473
35521SOL    HW1 8396  10.250   4.243   7.569
35521SOL    HW2 8397  10.192   4.173   7.448
35522SOL     OW 8398   3.313  12.054   2.432
35522SOL    HW1 8399   3.382  12.053   2.367
35522SOL    HW2 8400   3.258  11.979   2.410
35523SOL     OW 8401   4.170   3.945   4.357
35523SOL    HW1 8402   4.225   4.008   4.404
35523SOL    HW2 8403   4.094   3.933   4.414
35524SOL     OW 8404  14.709  11.519   6.567
35524SOL    HW1 8405  14.637  11.524   6.630
35524SOL    HW2 8406  14.752  11.604   6.573
35525SOL     OW 8407   4.570  12.689   4.850
35525SOL    HW1 8408   4.504  12.743   4.808
35525SOL    HW2 8409   4.565  12.712   4.942
35526SOL     OW 8410   4.274   6.343  12.965
35526SOL    HW1 8411   4.317   6.418  13.007
35526SOL    HW2 8412   4.281   6.361  12.871
35527SOL     OW 8413  12.456   4.848   2.452
35527SOL    HW1 8414  12.478   4.769   2.403
35527SOL    HW2 8415  12.540   4.878   2.488
35528SOL     OW 8416   9.461  11.554  10.252
35528SOL    HW1 8417   9.454  11.461  10.230
35528SOL    HW2 8418   9.429  11.560  10.342
35529SOL     OW 8419   4.348   1.257  10.437
35529SOL    HW1 8420   4.374   1.246  10.528
35529SOL    HW2 8421   4.252   1.253  10.439
35530SOL     OW 8422  13.873  12.994   9.464
35530SOL    HW1 8423  13.927  13.074   9.462
35530SOL    HW2 8424  13.861  12.976   9.557
35531SOL     OW 8425   2.788   1.281  14.040
35531SOL    HW1 8426   2.730   1.277  14.116
35531SOL    HW2 8427   2.801   1.190  14.014
35532SOL     OW 8428   9.782   0.633   0.698
35532SOL    HW1 8429   9.719   0.638   0.626
35532SOL    HW2 8430   9.763   0.709   0.752
35533SOL     OW 8431  12.524   1.816  13.373
35533SOL    HW1 8432  12.513   1.753  13.444
35533SOL    HW2 8433  12.619   1.831  13.369
35534SOL     OW 8434  13.245   3.377   8.736
35534SOL    HW1 8435  13.161   3.335   8.757
35534SOL    HW2 8436  13.311   3.312   8.761
35535SOL     OW 8437   8.458   1.396   4.292
35535SOL    HW1 8438   8.461   1.401   4.197
35535SOL    HW2 8439   8.543   1.431   4.321
35536SOL     OW 8440   6.275  14.439  12.155
35536SOL    HW1 8441   6.303  14.530  12.169
35536SOL    HW2 8442   6.309  14.417  12.068
35537SOL     OW 8443   2.235   1.877  14.575
35537SOL    HW1 8444   2.192   1.849  14.656
35537SOL    HW2 8445   2.302   1.939  14.604
35538SOL     OW 8446   5.791   5.387   7.012
35538SOL    HW1 8447   5.770   5.343   6.930
35538SOL    HW2 8448   5.875   5.430   6.996
35539SOL     OW 8449   7.707  13.262   8.741
35539SOL    HW1 8450   7.688  13.169   8.725
35539SOL    HW2 8451   7.800  13.264   8.760
35540SOL     OW 8452   1.943   3.599  12.889
35540SOL    HW1 8453   1.864   3.647  12.866
35540SOL    HW2 8454   1.912   3.523  12.938
35541SOL     OW 8455   8.998   9.247   9.194
35541SOL    HW1 8456   9.089   9.255   9.222
35541SOL    HW2 8457   9.002   9.195   9.113
35542SOL     OW 8458  14.231  14.005   6.424
35542SOL    HW1 8459  14.242  13.925   6.373
35542SOL    HW2 8460  14.267  14.074   6.369
35543SOL     OW 8461   7.202   9.034   3.678
35543SOL    HW1 8462   7.280   9.065   3.725
35543SOL    HW2 8463   7.186   9.101   3.611
35544SOL     OW 8464  12.601   4.479  10.388
35544SOL    HW1 8465  12.582   4.561  10.344
35544SOL    HW2 8466  12.519   4.454  10.430
35545SOL     OW 8467  14.805   3.203  13.205
35545SOL    HW1 8468  14.845   3.116  13.198
35545SOL    HW2 8469  14.730   3.199  13.146
35546SOL     OW 8470  10.065   7.543   2.999
35546SOL    HW1 8471  10.021   7.458   2.992
35546SOL    HW2 8472  10.016   7.591   3.065
35547SOL     OW 8473   6.892  12.077   2.801
35547SOL    HW1 8474   6.819  12.042   2.852
35547SOL    HW2 8475   6.922  12.002   2.749
35548SOL     OW 8476   9.867  14.563   5.239
35548SOL    HW1 8477   9.803  14.496   5.220
35548SOL    HW2 8478   9.896  14.544   5.328
35549SOL     OW 8479   5.561   7.640   8.705
35549SOL    HW1 8480   5.483   7.628   8.759
35549SOL    HW2 8481   5.559   7.733   8.680
35550SOL     OW 8482   8.133   5.252   5.864
35550SOL    HW1 8483   8.122   5.206   5.947
35550SOL    HW2 8484   8.209   5.308   5.877
35551SOL     OW 8485  10.933   5.890  12.234
35551SOL    HW1 8486  10.966   5.914  12.321
35551SOL    HW2 8487  11.012   5.863  12.186
35552SOL     OW 8488  13.642   4.409   4.117
35552SOL    HW1 8489  13.702   4.415   4.043
35552SOL    HW2 8490  13.564   4.367   4.081
35553SOL     OW 8491   0.781   2.787   6.052
35553SOL    HW1 8492   0.781   2.859   6.114
35553SOL    HW2 8493   0.873   2.761   6.045
35554SOL     OW 8494  10.029   8.347  10.947
35554SOL    HW1 8495  10.003   8.367  11.037
35554SOL    HW2 8496  10.106   8.401  10.932
35555SOL     OW 8497   2.012   4.945  12.636
35555SOL    HW1 8498   2.042   4.886  12.566
35555SOL    HW2 8499   2.062   5.025  12.623
35556SOL     OW 8500  12.120   7.742   6.673
35556SOL    HW1 8501  12.114   7.759   6.579
35556SOL    HW2 8502  12.176   7.665   6.680
35557SOL     OW 8503  13.589   7.622   9.418
35557SOL    HW1 8504  13.548   7.538   9.399
35557SOL    HW2 8505  13.665   7.625   9.360
35558SOL     OW 8506   9.040  13.281  11.088
35558SOL    HW1 8507   9.115  13.334  11.060
35558SOL    HW2 8508   8.966  13.318  11.040
35559SOL     OW 8509   4.217  13.807  11.388
35559SOL    HW1 8510   4.145  13.792  11.328
35559SOL    HW2 8511   4.178  13.800  11.475
35560SOL     OW 8512  12.904  13.477  14.305
35560SOL    HW1 8513  12.874  13.563  14.276
35560SOL    HW2 8514  12.826  13.421  14.302
35561SOL     OW 8515   9.834   0.254   2.018
35561SOL    HW1 8516   9.849   0.161   2.001
35561SOL    HW2 8517   9.739   0.261   2.031
35562SOL     OW 8518   5.269   0.636   7.749
35562SOL    HW1 8519   5.346   0.584   7.729
35562SOL    HW2 8520   5.235   0.661   7.663
35563SOL     OW 8521  14.514   4.800  13.226
35563SOL    HW1 8522  14.578   4.806  13.156
35563SOL    HW2 8523  14.473   4.714  13.214
35564SOL     OW 8524   4.632  13.381   1.919
35564SOL    HW1 8525   4.548  13.425   1.913
35564SOL    HW2 8526   4.696  13.449   1.899
35565SOL     OW 8527  14.157   7.452  14.519
35565SOL    HW1 8528  14.075   7.403  14.510
35565SOL    HW2 8529  14.198   7.444  14.433
35566SOL     OW 8530   3.744  13.642   3.310
35566SOL    HW1 8531   3.779  13.706   3.249
35566SOL    HW2 8532   3.816  13.626   3.372
35567SOL     OW 8533   4.014  12.874   4.911
35567SOL    HW1 8534   3.925  12.879   4.876
35567SOL    HW2 8535   4.016  12.940   4.980
35568SOL     OW 8536   3.371  14.193   0.818
35568SOL    HW1 8537   3.427  14.223   0.890
35568SOL    HW2 8538   3.432  14.156   0.754
35569SOL     OW 8539   9.879   7.440   5.742
35569SOL    HW1 8540   9.910   7.425   5.831
35569SOL    HW2 8541   9.808   7.503   5.752
35570SOL     OW 8542   1.052   3.403   3.079
35570SOL    HW1 8543   1.113   3.387   3.007
35570SOL    HW2 8544   0.990   3.468   3.045
35571SOL     OW 8545   9.736  10.421   2.631
35571SOL    HW1 8546   9.729  10.429   2.726
35571SOL    HW2 8547   9.789  10.496   2.604
35572SOL     OW 8548   3.654   5.528  14.685
35572SOL    HW1 8549   3.680   5.619  14.669
35572SOL    HW2 8550   3.724   5.476  14.646
35573SOL     OW 8551  10.501   8.109  14.794
35573SOL    HW1 8552  10.526   8.179  14.853
35573SOL    HW2 8553  10.567   8.041  14.809
35574SOL     OW 8554   9.843  14.672   6.749
35574SOL    HW1 8555   9.861  14.742   6.686
35574SOL    HW2 8556   9.806  14.717   6.825
35575SOL     OW 8557  12.889   8.560  12.760
35575SOL    HW1 8558  12.973   8.541  12.802
35575SOL    HW2 8559  12.827   8.569  12.833
35576SOL     OW 8560   5.717   7.324   3.360
35576SOL    HW1 8561   5.681   7.244   3.322
35576SOL    HW2 8562   5.749   7.298   3.447
35577SOL     OW 8563   7.678  12.471   5.685
35577SOL    HW1 8564   7.629  12.389   5.673
35577SOL    HW2 8565   7.770  12.446   5.681
35578SOL     OW 8566   5.653  11.679   5.597
35578SOL    HW1 8567   5.731  11.734   5.592
35578SOL    HW2 8568   5.652  11.647   5.687
35579SOL     OW 8569  12.980  13.162   4.927
35579SOL    HW1 8570  13.004  13.075   4.958
35579SOL    HW2 8571  12.993  13.218   5.004
35580SOL     OW 8572   0.160   8.878   0.680
35580SOL    HW1 8573   0.209   8.944   0.631
35580SOL    HW2 8574   0.071   8.883   0.643
35581SOL     OW 8575   7.197  13.867   9.748
35581SOL    HW1 8576   7.205  13.956   9.784
35581SOL    HW2 8577   7.271  13.859   9.688
35582SOL     OW 8578  11.911   0.015  14.166
35582SOL    HW1 8579  11.949   0.010  14.254
35582SOL    HW2 8580  11.977  14.848  14.110
35583SOL     OW 8581   0.500   8.273   1.983
35583SOL    HW1 8582   0.549   8.300   2.061
35583SOL    HW2 8583   0.408   8.281   2.008
35584SOL     OW 8584   6.218  13.488  11.903
35584SOL    HW1 8585   6.176  13.423  11.847
35584SOL    HW2 8586   6.252  13.438  11.977
35585SOL     OW 8587   4.235  14.694   7.081
35585SOL    HW1 8588   4.227  14.653   7.167
35585SOL    HW2 8589   4.280  14.777   7.098
35586SOL     OW 8590   0.035   8.979   8.797
35586SOL    HW1 8591  14.858   8.902   8.769
35586SOL    HW2 8592  14.845   9.051   8.791
35587SOL     OW 8593   8.943  11.922  12.631
35587SOL    HW1 8594   9.012  11.906  12.695
35587SOL    HW2 8595   8.976  11.995  12.578
35588SOL     OW 8596  10.530   2.972  12.544
35588SOL    HW1 8597  10.550   3.023  12.466
35588SOL    HW2 8598  10.588   3.006  12.611
35589SOL     OW 8599   1.286   7.334   8.804
35589SOL    HW1 8600   1.232   7.281   8.745
35589SOL    HW2 8601   1.358   7.363   8.749
35590SOL     OW 8602   0.379   7.784   8.931
35590SOL    HW1 8603   0.468   7.813   8.949
35590SOL    HW2 8604   0.390   7.707   8.875
35591SOL     OW 8605  12.418   5.702   2.026
35591SOL    HW1 8606  12.439   5.618   2.067
35591SOL    HW2 8607  12.330   5.723   2.057
35592SOL     OW 8608  12.610   0.038   8.786
35592SOL    HW1 8609  12.665   0.029   8.864
35592SOL    HW2 8610  12.626   0.128   8.756
35593SOL     OW 8611   4.094   9.500   2.726
35593SOL    HW1 8612   4.137   9.425   2.683
35593SOL    HW2 8613   4.103   9.572   2.663
35594SOL     OW 8614  13.491  13.452   0.361
35594SOL    HW1 8615  13.470  13.545   0.351
35594SOL    HW2 8616  13.546  13.448   0.440
35595SOL     OW 8617  12.090   9.129  12.264
35595SOL    HW1 8618  12.123   9.181  12.191
35595SOL    HW2 8619  12.039   9.059  12.222
35596SOL     OW 8620  13.129  12.405   4.709
35596SOL    HW1 8621  13.145  12.498   4.693
35596SOL    HW2 8622  13.108  12.369   4.623
35597SOL     OW 8623   5.142   5.829   6.793
35597SOL    HW1 8624   5.079   5.871   6.734
35597SOL    HW2 8625   5.118   5.861   6.880
35598SOL     OW 8626   9.824   8.477   3.196
35598SOL    HW1 8627   9.808   8.543   3.129
35598SOL    HW2 8628   9.828   8.395   3.148
35599SOL     OW 8629   6.564   4.169  13.326
35599SOL    HW1 8630   6.520   4.253  13.342
35599SOL    HW2 8631   6.649   4.193  13.290
35600SOL     OW 8632  13.603   0.074   2.986
35600SOL    HW1 8633  13.644   0.127   3.054
35600SOL    HW2 8634  13.563   0.138   2.926
35601SOL     OW 8635  13.767   2.284   7.111
35601SOL    HW1 8636  13.706   2.308   7.182
35601SOL    HW2 8637  13.824   2.218   7.150
35602SOL     OW 8638  13.212   7.437   3.322
35602SOL    HW1 8639  13.173   7.439   3.234
35602SOL    HW2 8640  13.221   7.529   3.346
35603SOL     OW 8641  14.220   8.268   2.059
35603SOL    HW1 8642  14.168   8.206   2.008
35603SOL    HW2 8643  14.302   8.276   2.011
35604SOL     OW 8644   1.349   5.453   9.580
35604SOL    HW1 8645   1.294   5.504   9.640
35604SOL    HW2 8646   1.288   5.422   9.513
35605SOL     OW 8647  12.416   1.367   5.902
35605SOL    HW1 8648  12.332   1.344   5.942
35605SOL    HW2 8649  12.445   1.445   5.949
35606SOL     OW 8650   8.069   0.567   3.580
35606SOL    HW1 8651   8.105   0.638   3.526
35606SOL    HW2 8652   8.146   0.515   3.604
35607SOL     OW 8653   1.805   1.729   9.612
35607SOL    HW1 8654   1.767   1.645   9.587
35607SOL    HW2 8655   1.801   1.729   9.708
35608SOL     OW 8656   6.078   6.919   3.685
35608SOL    HW1 8657   5.999   6.869   3.667
35608SOL    HW2 8658   6.068   6.949   3.775
35609SOL     OW 8659  13.076   2.104   5.799
35609SOL    HW1 8660  13.134   2.032   5.820
35609SOL    HW2 8661  13.034   2.077   5.717
35610SOL     OW 8662  10.450  14.562   8.939
35610SOL    HW1 8663  10.515  14.527   8.878
35610SOL    HW2 8664  10.481  14.651   8.959
35611SOL     OW 8665   6.592   9.745   6.771
35611SOL    HW1 8666   6.682   9.746   6.805
35611SOL    HW2 8667   6.537   9.727   6.847
35612SOL     OW 8668   5.597   3.175   9.115
35612SOL    HW1 8669   5.647   3.162   9.195
35612SOL    HW2 8670   5.663   3.175   9.045
35613SOL     OW 8671  12.383  10.954   0.151
35613SOL    HW1 8672  12.323  10.970   0.224
35613SOL    HW2 8673  12.429  11.036   0.139
35614SOL     OW 8674   7.087   4.939   6.783
35614SOL    HW1 8675   7.080   4.865   6.843
35614SOL    HW2 8676   7.181   4.954   6.774
35615SOL     OW 8677  14.130   7.002   4.505
35615SOL    HW1 8678  14.213   6.966   4.537
35615SOL    HW2 8679  14.145   7.097   4.505
35616SOL     OW 8680   6.872  12.809   4.539
35616SOL    HW1 8681   6.787  12.765   4.539
35616SOL    HW2 8682   6.851  12.901   4.522
35617SOL     OW 8683   9.599   7.328  12.193
35617SOL    HW1 8684   9.652   7.342  12.114
35617SOL    HW2 8685   9.608   7.410  12.242
35618SOL     OW 8686  12.966   1.073  10.887
35618SOL    HW1 8687  12.943   1.101  10.798
35618SOL    HW2 8688  13.045   1.020  10.876
35619SOL     OW 8689   4.635   5.259   5.142
35619SOL    HW1 8690   4.630   5.353   5.123
35619SOL    HW2 8691   4.556   5.223   5.102
35620SOL     OW 8692  10.219  13.046   7.606
35620SOL    HW1 8693  10.260  12.972   7.652
35620SOL    HW2 8694  10.293  13.091   7.564
35621SOL     OW 8695  12.291   2.473   3.301
35621SOL    HW1 8696  12.206   2.513   3.319
35621SOL    HW2 8697  12.335   2.535   3.242
35622SOL     OW 8698  13.103   0.105   6.531
35622SOL    HW1 8699  13.182   0.053   6.544
35622SOL    HW2 8700  13.131   0.179   6.478
35623SOL     OW 8701   6.083   4.494  10.211
35623SOL    HW1 8702   6.026   4.428  10.171
35623SOL    HW2 8703   6.025   4.569  10.227
35624SOL     OW 8704   9.984  10.963   4.033
35624SOL    HW1 8705  10.013  10.876   4.003
35624SOL    HW2 8706   9.898  10.974   3.993
35625SOL     OW 8707  14.662   6.538   9.142
35625SOL    HW1 8708  14.592   6.593   9.106
35625SOL    HW2 8709  14.726   6.599   9.177
35626SOL     OW 8710   7.508   8.379  10.737
35626SOL    HW1 8711   7.502   8.451  10.674
35626SOL    HW2 8712   7.516   8.424  10.822
35627SOL     OW 8713   1.481   7.545   7.002
35627SOL    HW1 8714   1.563   7.585   7.031
35627SOL    HW2 8715   1.493   7.452   7.021
35628SOL     OW 8716   3.847  13.184   2.511
35628SOL    HW1 8717   3.868  13.093   2.491
35628SOL    HW2 8718   3.866  13.231   2.429
35629SOL     OW 8719  11.410   9.050   7.758
35629SOL    HW1 8720  11.355   9.110   7.808
35629SOL    HW2 8721  11.431   8.979   7.819
35630SOL     OW 8722   3.680   1.309  12.532
35630SOL    HW1 8723   3.753   1.355  12.491
35630SOL    HW2 8724   3.702   1.217  12.524
35631SOL     OW 8725   7.425   2.374   7.014
35631SOL    HW1 8726   7.455   2.287   6.987
35631SOL    HW2 8727   7.478   2.396   7.090
35632SOL     OW 8728  13.307   8.014   1.585
35632SOL    HW1 8729  13.372   7.961   1.630
35632SOL    HW2 8730  13.315   7.990   1.493
35633SOL     OW 8731   2.066   6.983   3.849
35633SOL    HW1 8732   2.093   6.908   3.902
35633SOL    HW2 8733   1.978   6.959   3.818
35634SOL     OW 8734   0.857   3.347   6.426
35634SOL    HW1 8735   0.940   3.390   6.403
35634SOL    HW2 8736   0.867   3.257   6.396
35635SOL     OW 8737   7.886   9.795   5.490
35635SOL    HW1 8738   7.975   9.822   5.515
35635SOL    HW2 8739   7.874   9.711   5.534
35636SOL     OW 8740  11.678   1.470  14.515
35636SOL    HW1 8741  11.763   1.514  14.522
35636SOL    HW2 8742  11.699   1.377  14.520
35637SOL     OW 8743   4.667   2.599  11.890
35637SOL    HW1 8744   4.582   2.598  11.846
35637SOL    HW2 8745   4.683   2.692  11.908
35638SOL     OW 8746   4.470  11.214   8.538
35638SOL    HW1 8747   4.458  11.238   8.447
35638SOL    HW2 8748   4.382  11.215   8.575
35639SOL     OW 8749   5.103  10.194  13.277
35639SOL    HW1 8750   5.060  10.213  13.194
35639SOL    HW2 8751   5.191  10.230  13.269
35640SOL     OW 8752  10.685   7.784   9.484
35640SOL    HW1 8753  10.774   7.755   9.502
35640SOL    HW2 8754  10.693   7.878   9.465
35641SOL     OW 8755  14.341   6.618   3.567
35641SOL    HW1 8756  14.286   6.541   3.555
35641SOL    HW2 8757  14.416   6.603   3.509
35642SOL     OW 8758  13.756   4.619   8.090
35642SOL    HW1 8759  13.755   4.686   8.023
35642SOL    HW2 8760  13.667   4.583   8.090
35643SOL     OW 8761  11.735   5.724   0.583
35643SOL    HW1 8762  11.743   5.655   0.517
35643SOL    HW2 8763  11.789   5.796   0.550
35644SOL     OW 8764   1.330   4.854  13.022
35644SOL    HW1 8765   1.331   4.759  13.035
35644SOL    HW2 8766   1.335   4.865  12.927
35645SOL     OW 8767  13.168   2.700   0.249
35645SOL    HW1 8768  13.253   2.742   0.261
35645SOL    HW2 8769  13.141   2.725   0.161
35646SOL     OW 8770   7.314  12.584   4.468
35646SOL    HW1 8771   7.343  12.569   4.379
35646SOL    HW2 8772   7.270  12.502   4.493
35647SOL     OW 8773   4.165   8.955   5.846
35647SOL    HW1 8774   4.179   9.019   5.916
35647SOL    HW2 8775   4.070   8.952   5.835
35648SOL     OW 8776   5.081   3.881  14.720
35648SOL    HW1 8777   5.125   3.891  14.804
35648SOL    HW2 8778   5.152   3.879  14.656
35649SOL     OW 8779   2.191  12.773   2.834
35649SOL    HW1 8780   2.228  12.781   2.922
35649SOL    HW2 8781   2.103  12.811   2.842
35650SOL     OW 8782   4.388   4.156  14.429
35650SOL    HW1 8783   4.453   4.089  14.407
35650SOL    HW2 8784   4.304   4.115  14.408
35651SOL     OW 8785  12.499  12.558   3.864
35651SOL    HW1 8786  12.432  12.499   3.829
35651SOL    HW2 8787  12.564  12.566   3.793
35652SOL     OW 8788   9.178  13.807   2.216
35652SOL    HW1 8789   9.192  13.713   2.217
35652SOL    HW2 8790   9.239  13.840   2.150
35653SOL     OW 8791   8.629   5.359  10.244
35653SOL    HW1 8792   8.642   5.273  10.205
35653SOL    HW2 8793   8.718   5.390  10.264
35654SOL     OW 8794   4.567  11.087   0.905
35654SOL    HW1 8795   4.551  11.057   0.815
35654SOL    HW2 8796   4.655  11.055   0.925
35655SOL     OW 8797   0.360  11.406   5.478
35655SOL    HW1 8798   0.371  11.316   5.509
35655SOL    HW2 8799   0.443  11.449   5.499
35656SOL     OW 8800   8.045   1.025   7.406
35656SOL    HW1 8801   8.022   0.935   7.382
35656SOL    HW2 8802   8.065   1.067   7.322
35657SOL     OW 8803  10.463   5.016   6.188
35657SOL    HW1 8804  10.377   4.989   6.156
35657SOL    HW2 8805  10.457   5.007   6.284
35658SOL     OW 8806   0.384   1.495   4.494
35658SOL    HW1 8807   0.438   1.522   4.569
35658SOL    HW2 8808   0.398   1.401   4.487
35659SOL     OW 8809   2.709   3.554   0.833
35659SOL    HW1 8810   2.788   3.502   0.833
35659SOL    HW2 8811   2.647   3.505   0.887
35660SOL     OW 8812   2.792  10.134   7.729
35660SOL    HW1 8813   2.719  10.080   7.697
35660SOL    HW2 8814   2.870  10.082   7.710
35661SOL     OW 8815   0.340   9.776   7.243
35661SOL    HW1 8816   0.316   9.694   7.201
35661SOL    HW2 8817   0.409   9.752   7.305
35662SOL     OW 8818  13.515   8.274  12.577
35662SOL    HW1 8819  13.611   8.279  12.577
35662SOL    HW2 8820  13.487   8.358  12.614
35663SOL     OW 8821  12.600   1.408  12.525
35663SOL    HW1 8822  12.682   1.392  12.480
35663SOL    HW2 8823  12.624   1.463  12.600
35664SOL     OW 8824  11.784   9.082   9.721
35664SOL    HW1 8825  11.740   9.055   9.802
35664SOL    HW2 8826  11.713   9.094   9.658
35665SOL     OW 8827   8.986   9.941   0.500
35665SOL    HW1 8828   8.993   9.928   0.595
35665SOL    HW2 8829   9.077   9.934   0.469
35666SOL     OW 8830   2.532  11.782   4.619
35666SOL    HW1 8831   2.489  11.697   4.624
35666SOL    HW2 8832   2.564  11.788   4.528
35667SOL     OW 8833  13.198   6.556   1.045
35667SOL    HW1 8834  13.130   6.615   1.013
35667SOL    HW2 8835  13.280   6.601   1.025
35668SOL     OW 8836   3.459   9.783  14.248
35668SOL    HW1 8837   3.438   9.738  14.330
35668SOL    HW2 8838   3.403   9.861  14.249
35669SOL     OW 8839  13.624  14.708   3.747
35669SOL    HW1 8840  13.557  14.665   3.694
35669SOL    HW2 8841  13.687  14.639   3.767
35670SOL     OW 8842   8.798  12.824   9.944
35670SOL    HW1 8843   8.705  12.831   9.961
35670SOL    HW2 8844   8.836  12.901   9.987
35671SOL     OW 8845   4.583   7.869  10.019
35671SOL    HW1 8846   4.495   7.869   9.983
35671SOL    HW2 8847   4.633   7.812   9.961
35672SOL     OW 8848   8.171   3.968   0.938
35672SOL    HW1 8849   8.238   3.984   0.872
35672SOL    HW2 8850   8.088   3.986   0.894
35673SOL     OW 8851   9.375   6.187   2.576
35673SOL    HW1 8852   9.398   6.230   2.658
35673SOL    HW2 8853   9.429   6.108   2.575
35674SOL     OW 8854   3.060   5.705   7.206
35674SOL    HW1 8855   3.063   5.790   7.164
35674SOL    HW2 8856   3.030   5.645   7.138
35675SOL     OW 8857  14.586   3.322  11.994
35675SOL    HW1 8858  14.491   3.337  11.992
35675SOL    HW2 8859  14.623   3.410  12.004
35676SOL     OW 8860   4.251   7.813   3.926
35676SOL    HW1 8861   4.306   7.784   3.999
35676SOL    HW2 8862   4.277   7.903   3.911
35677SOL     OW 8863   4.989  12.364  10.907
35677SOL    HW1 8864   4.931  12.365  10.831
35677SOL    HW2 8865   5.068  12.319  10.877
35678SOL     OW 8866  11.099  13.743  12.853
35678SOL    HW1 8867  11.117  13.717  12.943
35678SOL    HW2 8868  11.020  13.693  12.829
35679SOL     OW 8869   0.902   3.198   4.439
35679SOL    HW1 8870   0.984   3.226   4.480
35679SOL    HW2 8871   0.840   3.269   4.457
35680SOL     OW 8872   9.861  10.046  12.617
35680SOL    HW1 8873   9.803   9.995  12.560
35680SOL    HW2 8874   9.811  10.125  12.637
35681SOL     OW 8875  12.361  12.084  11.083
35681SOL    HW1 8876  12.330  12.107  11.170
35681SOL    HW2 8877  12.285  12.048  11.038
35682SOL     OW 8878  10.137   3.112  10.988
35682SOL    HW1 8879  10.042   3.117  10.996
35682SOL    HW2 8880  10.154   3.137  10.896
35683SOL     OW 8881  13.913  11.902   7.179
35683SOL    HW1 8882  13.926  11.988   7.218
35683SOL    HW2 8883  13.926  11.841   7.252
35684SOL     OW 8884   9.782   1.382  13.523
35684SOL    HW1 8885   9.703   1.358  13.572
35684SOL    HW2 8886   9.751   1.445  13.458
35685SOL     OW 8887   2.981   8.895   9.168
35685SOL    HW1 8888   3.013   8.822   9.221
35685SOL    HW2 8889   2.958   8.855   9.084
35686SOL     OW 8890  10.675   1.272   6.763
35686SOL    HW1 8891  10.608   1.224   6.812
35686SOL    HW2 8892  10.736   1.205   6.732
35687SOL     OW 8893   0.262   3.023  13.939
35687SOL    HW1 8894   0.175   3.050  13.911
35687SOL    HW2 8895   0.322   3.074  13.885
35688SOL     OW 8896   7.715  10.528  14.825
35688SOL    HW1 8897   7.684  10.587   0.020
35688SOL    HW2 8898   7.808  10.514  14.846
35689SOL     OW 8899  10.851   9.952   9.237
35689SOL    HW1 8900  10.819  10.031   9.193
35689SOL    HW2 8901  10.774   9.919   9.284
35690SOL     OW 8902  12.871   1.388  12.784
35690SOL    HW1 8903  12.859   1.418  12.694
35690SOL    HW2 8904  12.866   1.293  12.779
35691SOL     OW 8905   0.207   8.519   6.858
35691SOL    HW1 8906   0.295   8.548   6.835
35691SOL    HW2 8907   0.217   8.473   6.941
35692SOL     OW 8908   9.996  10.056   4.521
35692SOL    HW1 8909  10.037  10.008   4.449
35692SOL    HW2 8910  10.036  10.020   4.600
35693SOL     OW 8911  10.435  13.745   1.658
35693SOL    HW1 8912  10.358  13.775   1.706
35693SOL    HW2 8913  10.436  13.650   1.671
35694SOL     OW 8914   8.859   3.628   7.026
35694SOL    HW1 8915   8.844   3.722   7.041
35694SOL    HW2 8916   8.933   3.606   7.082
35695SOL     OW 8917  12.113  13.147   5.087
35695SOL    HW1 8918  12.115  13.071   5.145
35695SOL    HW2 8919  12.142  13.114   5.002
35696SOL     OW 8920   5.549   0.466   7.362
35696SOL    HW1 8921   5.506   0.543   7.402
35696SOL    HW2 8922   5.637   0.496   7.342
35697SOL     OW 8923   7.312   7.961   5.682
35697SOL    HW1 8924   7.402   7.942   5.654
35697SOL    HW2 8925   7.264   7.969   5.600
35698SOL     OW 8926  11.249   0.876   1.402
35698SOL    HW1 8927  11.306   0.928   1.345
35698SOL    HW2 8928  11.208   0.941   1.460
35699SOL     OW 8929  13.533   6.579   4.770
35699SOL    HW1 8930  13.604   6.580   4.705
35699SOL    HW2 8931  13.474   6.648   4.740
35700SOL     OW 8932  13.798   9.946   1.357
35700SOL    HW1 8933  13.890   9.933   1.334
35700SOL    HW2 8934  13.768   9.859   1.384
35701SOL     OW 8935  13.753   2.951   1.153
35701SOL    HW1 8936  13.835   2.907   1.133
35701SOL    HW2 8937  13.771   3.003   1.231
35702SOL     OW 8938   6.665  14.433   3.107
35702SOL    HW1 8939   6.665  14.344   3.073
35702SOL    HW2 8940   6.582  14.470   3.078
35703SOL     OW 8941   5.884   4.868   7.297
35703SOL    HW1 8942   5.851   4.953   7.271
35703SOL    HW2 8943   5.806   4.813   7.308
35704SOL     OW 8944  13.333  12.625   9.089
35704SOL    HW1 8945  13.343  12.608   9.182
35704SOL    HW2 8946  13.388  12.702   9.072
35705SOL     OW 8947  10.577   4.909   4.829
35705SOL    HW1 8948  10.626   4.974   4.780
35705SOL    HW2 8949  10.486   4.938   4.824
35706SOL     OW 8950   5.663   7.262   8.474
35706SOL    HW1 8951   5.688   7.353   8.457
35706SOL    HW2 8952   5.567   7.263   8.471
35707SOL     OW 8953   4.988  12.144   4.382
35707SOL    HW1 8954   4.900  12.171   4.410
35707SOL    HW2 8955   5.001  12.186   4.297
35708SOL     OW 8956   2.702  10.378  11.080
35708SOL    HW1 8957   2.767  10.441  11.113
35708SOL    HW2 8958   2.618  10.415  11.106
35709SOL     OW 8959   8.542   1.419  14.522
35709SOL    HW1 8960   8.460   1.423  14.570
35709SOL    HW2 8961   8.530   1.479  14.448
35710SOL     OW 8962   0.461  11.142  11.702
35710SOL    HW1 8963   0.541  11.134  11.753
35710SOL    HW2 8964   0.474  11.218  11.646
35711SOL     OW 8965   5.037   7.562   1.511
35711SOL    HW1 8966   4.962   7.521   1.467
35711SOL    HW2 8967   5.108   7.498   1.501
35712SOL     OW 8968  14.291  11.150  14.695
35712SOL    HW1 8969  14.204  11.112  14.701
35712SOL    HW2 8970  14.307  11.159  14.601
35713SOL     OW 8971   6.120   3.301  14.570
35713SOL    HW1 8972   6.182   3.274  14.503
35713SOL    HW2 8973   6.100   3.221  14.619
35714SOL     OW 8974   9.321  11.648   8.475
35714SOL    HW1 8975   9.233  11.645   8.512
35714SOL    HW2 8976   9.330  11.564   8.429
35715SOL     OW 8977  11.935   4.373   4.011
35715SOL    HW1 8978  11.876   4.319   4.064
35715SOL    HW2 8979  11.965   4.315   3.942
35716SOL     OW 8980  12.673   9.322   5.790
35716SOL    HW1 8981  12.600   9.351   5.735
35716SOL    HW2 8982  12.640   9.329   5.879
35717SOL     OW 8983   7.915   9.860  12.211
35717SOL    HW1 8984   7.860   9.918  12.158
35717SOL    HW2 8985   7.882   9.871  12.300
35718SOL     OW 8986  11.818   8.293   9.995
35718SOL    HW1 8987  11.753   8.259  10.057
35718SOL    HW2 8988  11.813   8.234   9.920
35719SOL     OW 8989   3.445   2.619   3.068
35719SOL    HW1 8990   3.358   2.579   3.066
35719SOL    HW2 8991   3.432   2.707   3.031
35720SOL     OW 8992  14.062   0.910  11.450
35720SOL    HW1 8993  14.138   0.952  11.411
35720SOL    HW2 8994  13.994   0.916  11.383
35721SOL     OW 8995   2.974   3.629  11.093
35721SOL    HW1 8996   2.898   3.663  11.046
35721SOL    HW2 8997   3.014   3.706  11.133
35722SOL     OW 8998   6.396   9.923   1.483
35722SOL    HW1 8999   6.359   9.845   1.524
35722SOL    HW2 9000   6.408   9.899   1.391
35723SOL     OW 9001   0.767   3.272   5.413
35723SOL    HW1 9002   0.737   3.362   5.401
35723SOL    HW2 9003   0.688   3.223   5.433
35724SOL     OW 9004   1.418   3.097   6.360
35724SOL    HW1 9005   1.365   3.139   6.428
35724SOL    HW2 9006   1.371   3.114   6.278
35725SOL     OW 9007   8.011   0.480  13.332
35725SOL    HW1 9008   8.021   0.551  13.268
35725SOL    HW2 9009   7.986   0.525  13.413
35726SOL     OW 9010   9.355  10.628   4.758
35726SOL    HW1 9011   9.332  10.626   4.665
35726SOL    HW2 9012   9.282  10.673   4.799
35727SOL     OW 9013   7.912   7.834   7.477
35727SOL    HW1 9014   7.967   7.818   7.554
35727SOL    HW2 9015   7.966   7.887   7.419
35728SOL     OW 9016   9.262  14.650  14.278
35728SOL    HW1 9017   9.208  14.704  14.335
35728SOL    HW2 9018   9.327  14.612  14.336
35729SOL     OW 9019   8.789  13.457   3.411
35729SOL    HW1 9020   8.721  13.394   3.389
35729SOL    HW2 9021   8.871  13.412   3.392
35730SOL     OW 9022   5.136   9.596  13.618
35730SOL    HW1 9023   5.207   9.638  13.667
35730SOL    HW2 9024   5.096   9.536  13.679
35731SOL     OW 9025   9.306  11.828   2.802
35731SOL    HW1 9026   9.399  11.808   2.814
35731SOL    HW2 9027   9.298  11.920   2.828
35732SOL     OW 9028  10.924  11.076   2.046
35732SOL    HW1 9029  10.868  11.022   2.101
35732SOL    HW2 9030  10.951  11.148   2.102
35733SOL     OW 9031   9.562  11.669   3.089
35733SOL    HW1 9032   9.472  11.646   3.114
35733SOL    HW2 9033   9.613  11.654   3.168
35734SOL     OW 9034   0.773  13.345   7.032
35734SOL    HW1 9035   0.856  13.379   6.998
35734SOL    HW2 9036   0.778  13.251   7.018
35735SOL     OW 9037   7.715   2.035   9.037
35735SOL    HW1 9038   7.753   1.963   8.987
35735SOL    HW2 9039   7.783   2.101   9.040
35736SOL     OW 9040   9.893   0.152   8.660
35736SOL    HW1 9041   9.892   0.164   8.565
35736SOL    HW2 9042   9.954   0.218   8.692
35737SOL     OW 9043   7.694   3.439   7.453
35737SOL    HW1 9044   7.685   3.360   7.508
35737SOL    HW2 9045   7.607   3.478   7.453
35738SOL     OW 9046   9.471   9.655  11.928
35738SOL    HW1 9047   9.562   9.629  11.916
35738SOL    HW2 9048   9.475   9.739  11.973
35739SOL     OW 9049   7.122  11.509   9.751
35739SOL    HW1 9050   7.135  11.565   9.828
35739SOL    HW2 9051   7.034  11.473   9.762
35740SOL     OW 9052   8.663   0.464   0.810
35740SOL    HW1 9053   8.597   0.469   0.740
35740SOL    HW2 9054   8.718   0.542   0.796
35741SOL     OW 9055  14.197  14.432   4.687
35741SOL    HW1 9056  14.135  14.495   4.723
35741SOL    HW2 9057  14.234  14.477   4.611
35742SOL     OW 9058  10.412   0.397   9.826
35742SOL    HW1 9059  10.441   0.307   9.806
35742SOL    HW2 9060  10.451   0.450   9.757
35743SOL     OW 9061  13.705  11.399   1.680
35743SOL    HW1 9062  13.759  11.451   1.621
35743SOL    HW2 9063  13.711  11.445   1.765
35744SOL     OW 9064   3.849  11.311   4.435
35744SOL    HW1 9065   3.796  11.266   4.369
35744SOL    HW2 9066   3.828  11.267   4.517
35745SOL     OW 9067  11.448  12.866   4.559
35745SOL    HW1 9068  11.527  12.901   4.518
35745SOL    HW2 9069  11.384  12.936   4.551
35746SOL     OW 9070   7.280   9.446   4.121
35746SOL    HW1 9071   7.244   9.501   4.190
35746SOL    HW2 9072   7.290   9.504   4.045
35747SOL     OW 9073  14.489   6.332   0.224
35747SOL    HW1 9074  14.516   6.246   0.255
35747SOL    HW2 9075  14.547   6.350   0.150
35748SOL     OW 9076   3.238   9.268  10.291
35748SOL    HW1 9077   3.204   9.179  10.280
35748SOL    HW2 9078   3.162   9.320  10.317
35749SOL     OW 9079   6.251  11.428   6.255
35749SOL    HW1 9080   6.160  11.453   6.238
35749SOL    HW2 9081   6.250  11.388   6.342
35750SOL     OW 9082   8.606   9.772   0.415
35750SOL    HW1 9083   8.542   9.706   0.443
35750SOL    HW2 9084   8.560   9.855   0.423
35751SOL     OW 9085   7.987  14.329   7.359
35751SOL    HW1 9086   8.019  14.346   7.271
35751SOL    HW2 9087   7.901  14.371   7.362
35752SOL     OW 9088   3.229   5.891   8.583
35752SOL    HW1 9089   3.198   5.848   8.504
35752SOL    HW2 9090   3.324   5.874   8.583
35753SOL     OW 9091  12.737   6.683   3.100
35753SOL    HW1 9092  12.718   6.766   3.144
35753SOL    HW2 9093  12.705   6.616   3.160
35754SOL     OW 9094   6.562   9.193  11.388
35754SOL    HW1 9095   6.634   9.247  11.419
35754SOL    HW2 9096   6.483   9.245  11.406
35755SOL     OW 9097  10.713   3.692   7.844
35755SOL    HW1 9098  10.669   3.731   7.920
35755SOL    HW2 9099  10.687   3.600   7.846
35756SOL     OW 9100   7.595   9.021   7.772
35756SOL    HW1 9101   7.521   9.066   7.733
35756SOL    HW2 9102   7.577   8.928   7.757
35757SOL     OW 9103   1.675   3.557   7.017
35757SOL    HW1 9104   1.616   3.494   7.055
35757SOL    HW2 9105   1.759   3.511   7.009
35758SOL     OW 9106  13.519  11.079  14.498
35758SOL    HW1 9107  13.458  11.062  14.569
35758SOL    HW2 9108  13.578  11.004  14.498
35759SOL     OW 9109   5.802   6.821   0.488
35759SOL    HW1 9110   5.801   6.818   0.584
35759SOL    HW2 9111   5.746   6.749   0.461
35760SOL     OW 9112  10.650   2.183   3.674
35760SOL    HW1 9113  10.560   2.173   3.642
35760SOL    HW2 9114  10.652   2.272   3.709
35761SOL     OW 9115  11.434  12.113   3.172
35761SOL    HW1 9116  11.480  12.190   3.138
35761SOL    HW2 9117  11.461  12.107   3.263
35762SOL     OW 9118   9.547   0.455   7.997
35762SOL    HW1 9119   9.486   0.490   7.932
35762SOL    HW2 9120   9.513   0.487   8.081
35763SOL     OW 9121   1.199   2.075   3.911
35763SOL    HW1 9122   1.255   2.133   3.962
35763SOL    HW2 9123   1.186   1.999   3.968
35764SOL     OW 9124   2.610  11.524   6.339
35764SOL    HW1 9125   2.599  11.429   6.345
35764SOL    HW2 9126   2.536  11.559   6.390
35765SOL     OW 9127  10.989   9.160   9.332
35765SOL    HW1 9128  11.006   9.118   9.417
35765SOL    HW2 9129  10.986   9.253   9.351
35766SOL     OW 9130   3.227   1.149  10.709
35766SOL    HW1 9131   3.295   1.216  10.701
35766SOL    HW2 9132   3.181   1.151  10.625
35767SOL     OW 9133  10.217  12.532   2.708
35767SOL    HW1 9134  10.237  12.612   2.757
35767SOL    HW2 9135  10.251  12.550   2.620
35768SOL     OW 9136   7.598   2.491  10.504
35768SOL    HW1 9137   7.512   2.499  10.462
35768SOL    HW2 9138   7.602   2.565  10.564
35769SOL     OW 9139   1.486   4.619   5.338
35769SOL    HW1 9140   1.497   4.612   5.244
35769SOL    HW2 9141   1.424   4.691   5.350
35770SOL     OW 9142   1.108   2.792   2.193
35770SOL    HW1 9143   1.134   2.824   2.107
35770SOL    HW2 9144   1.183   2.809   2.249
35771SOL     OW 9145   5.661   5.597   8.691
35771SOL    HW1 9146   5.627   5.673   8.643
35771SOL    HW2 9147   5.623   5.522   8.647
35772SOL     OW 9148   4.899   5.605   4.619
35772SOL    HW1 9149   4.934   5.587   4.531
35772SOL    HW2 9150   4.963   5.567   4.678
35773SOL     OW 9151   8.734   4.934  12.356
35773SOL    HW1 9152   8.667   4.911  12.292
35773SOL    HW2 9153   8.687   4.939  12.439
35774SOL     OW 9154   5.959  13.142   5.603
35774SOL    HW1 9155   6.045  13.100   5.596
35774SOL    HW2 9156   5.910  13.108   5.527
35775SOL     OW 9157  11.380   3.297   2.003
35775SOL    HW1 9158  11.312   3.293   2.070
35775SOL    HW2 9159  11.352   3.235   1.936
35776SOL     OW 9160   5.406  14.105  12.963
35776SOL    HW1 9161   5.423  14.013  12.944
35776SOL    HW2 9162   5.489  14.149  12.947
35777SOL     OW 9163  12.353   7.632   5.174
35777SOL    HW1 9164  12.314   7.656   5.258
35777SOL    HW2 9165  12.415   7.562   5.196
35778SOL     OW 9166   0.957  13.270   7.514
35778SOL    HW1 9167   1.032  13.292   7.568
35778SOL    HW2 9168   0.954  13.174   7.514
35779SOL     OW 9169  13.264   2.158  10.409
35779SOL    HW1 9170  13.216   2.181  10.488
35779SOL    HW2 9171  13.196   2.143  10.343
35780SOL     OW 9172  12.409  10.694  12.644
35780SOL    HW1 9173  12.334  10.680  12.701
35780SOL    HW2 9174  12.485  10.693  12.702
35781SOL     OW 9175   6.909  11.076   5.270
35781SOL    HW1 9176   6.883  11.053   5.181
35781SOL    HW2 9177   6.879  11.166   5.281
35782SOL     OW 9178  13.442  12.048   2.725
35782SOL    HW1 9179  13.536  12.066   2.725
35782SOL    HW2 9180  13.404  12.121   2.676
35783SOL     OW 9181   8.361   4.321   5.343
35783SOL    HW1 9182   8.305   4.293   5.415
35783SOL    HW2 9183   8.304   4.374   5.287
35784SOL     OW 9184   1.364   5.631  11.653
35784SOL    HW1 9185   1.446   5.591  11.623
35784SOL    HW2 9186   1.296   5.584  11.606
35785SOL     OW 9187   0.878  13.238   1.413
35785SOL    HW1 9188   0.941  13.167   1.422
35785SOL    HW2 9189   0.828  13.216   1.334
35786SOL     OW 9190  13.782  12.037   6.773
35786SOL    HW1 9191  13.772  12.095   6.848
35786SOL    HW2 9192  13.693  12.019   6.744
35787SOL     OW 9193   2.758   0.490   2.812
35787SOL    HW1 9194   2.840   0.518   2.772
35787SOL    HW2 9195   2.782   0.462   2.900
35788SOL     OW 9196   8.086   8.609   4.803
35788SOL    HW1 9197   8.001   8.640   4.769
35788SOL    HW2 9198   8.146   8.682   4.787
35789SOL     OW 9199  11.823  10.964   5.636
35789SOL    HW1 9200  11.835  11.052   5.602
35789SOL    HW2 9201  11.766  10.975   5.712
35790SOL     OW 9202   0.473  13.017  13.293
35790SOL    HW1 9203   0.380  13.038  13.303
35790SOL    HW2 9204   0.519  13.082  13.346
35791SOL     OW 9205   7.702  14.450   2.728
35791SOL    HW1 9206   7.734  14.363   2.750
35791SOL    HW2 9207   7.616  14.455   2.769
35792SOL     OW 9208  12.741   3.055   7.815
35792SOL    HW1 9209  12.699   2.992   7.757
35792SOL    HW2 9210  12.833   3.055   7.789
35793SOL     OW 9211   3.809  11.147   4.942
35793SOL    HW1 9212   3.772  11.178   5.024
35793SOL    HW2 9213   3.812  11.051   4.952
35794SOL     OW 9214   1.415   0.667   3.044
35794SOL    HW1 9215   1.401   0.580   3.080
35794SOL    HW2 9216   1.342   0.681   2.984
35795SOL     OW 9217  10.796   1.774   8.070
35795SOL    HW1 9218  10.869   1.804   8.125
35795SOL    HW2 9219  10.785   1.844   8.005
35796SOL     OW 9220  10.882   9.410   9.432
35796SOL    HW1 9221  10.931   9.411   9.515
35796SOL    HW2 9222  10.796   9.446   9.454
35797SOL     OW 9223   2.643   1.360   8.331
35797SOL    HW1 9224   2.645   1.455   8.342
35797SOL    HW2 9225   2.667   1.325   8.417
35798SOL     OW 9226  11.369   4.775  13.448
35798SOL    HW1 9227  11.347   4.813  13.533
35798SOL    HW2 9228  11.464   4.766  13.449
35799SOL     OW 9229  12.263   5.810   0.176
35799SOL    HW1 9230  12.306   5.752   0.239
35799SOL    HW2 9231  12.307   5.895   0.187
35800SOL     OW 9232   6.976   9.451   8.713
35800SOL    HW1 9233   6.968   9.364   8.751
35800SOL    HW2 9234   6.897   9.497   8.743
35801SOL     OW 9235   8.290  14.706  14.027
35801SOL    HW1 9236   8.214  14.718  13.970
35801SOL    HW2 9237   8.307  14.612  14.025
35802SOL     OW 9238  12.802  11.943  12.960
35802SOL    HW1 9239  12.893  11.969  12.956
35802SOL    HW2 9240  12.765  11.992  13.034
35803SOL     OW 9241   2.183  13.385  14.244
35803SOL    HW1 9242   2.207  13.474  14.219
35803SOL    HW2 9243   2.094  13.375  14.212
35804SOL     OW 9244   8.285   2.231   7.898
35804SOL    HW1 9245   8.306   2.267   7.811
35804SOL    HW2 9246   8.302   2.304   7.958
35805SOL     OW 9247   6.648   1.335   3.819
35805SOL    HW1 9248   6.583   1.276   3.856
35805SOL    HW2 9249   6.705   1.357   3.892
35806SOL     OW 9250  11.274   6.831   3.936
35806SOL    HW1 9251  11.310   6.791   3.857
35806SOL    HW2 9252  11.340   6.895   3.963
35807SOL     OW 9253   9.387  12.929   9.303
35807SOL    HW1 9254   9.292  12.929   9.290
35807SOL    HW2 9255   9.399  12.947   9.396
35808SOL     OW 9256   5.678   4.925   1.653
35808SOL    HW1 9257   5.586   4.944   1.636
35808SOL    HW2 9258   5.711   4.890   1.570
35809SOL     OW 9259  14.660   4.437   7.712
35809SOL    HW1 9260  14.609   4.488   7.649
35809SOL    HW2 9261  14.674   4.497   7.785
35810SOL     OW 9262   1.924   2.956   4.331
35810SOL    HW1 9263   1.898   2.946   4.423
35810SOL    HW2 9264   2.013   2.923   4.328
35811SOL     OW 9265   7.924   8.453   3.852
35811SOL    HW1 9266   7.988   8.524   3.845
35811SOL    HW2 9267   7.845   8.496   3.883
35812SOL     OW 9268   5.827  13.307  12.298
35812SOL    HW1 9269   5.881  13.365  12.351
35812SOL    HW2 9270   5.743  13.305  12.342
35813SOL     OW 9271   8.085   7.982   6.286
35813SOL    HW1 9272   8.076   8.051   6.220
35813SOL    HW2 9273   7.995   7.955   6.304
35814SOL     OW 9274   4.463  10.914   6.005
35814SOL    HW1 9275   4.485  10.875   6.089
35814SOL    HW2 9276   4.451  11.007   6.024
35815SOL     OW 9277   2.706   6.881   4.281
35815SOL    HW1 9278   2.702   6.805   4.224
35815SOL    HW2 9279   2.619   6.921   4.275
35816SOL     OW 9280  13.611   6.467  13.291
35816SOL    HW1 9281  13.591   6.553  13.328
35816SOL    HW2 9282  13.568   6.468  13.205
35817SOL     OW 9283   7.177  11.016   1.991
35817SOL    HW1 9284   7.266  11.007   2.025
35817SOL    HW2 9285   7.122  10.976   2.059
35818SOL     OW 9286   7.134  11.836  11.176
35818SOL    HW1 9287   7.052  11.863  11.135
35818SOL    HW2 9288   7.175  11.779  11.111
35819SOL     OW 9289  13.666   6.012   6.523
35819SOL    HW1 9290  13.681   5.919   6.537
35819SOL    HW2 9291  13.735   6.056   6.572
35820SOL     OW 9292  12.689   2.544   2.834
35820SOL    HW1 9293  12.635   2.512   2.762
35820SOL    HW2 9294  12.651   2.630   2.857
35821SOL     OW 9295   2.220  14.200   2.479
35821SOL    HW1 9296   2.127  14.187   2.462
35821SOL    HW2 9297   2.240  14.286   2.442
35822SOL     OW 9298   8.866   4.847  11.537
35822SOL    HW1 9299   8.953   4.805  11.535
35822SOL    HW2 9300   8.827   4.825  11.453
35823SOL     OW 9301   5.853   8.785  12.970
35823SOL    HW1 9302   5.853   8.760  13.062
35823SOL    HW2 9303   5.944   8.770  12.941
35824SOL     OW 9304  11.381  13.747   1.917
35824SOL    HW1 9305  11.369  13.838   1.943
35824SOL    HW2 9306  11.465  13.722   1.956
35825SOL     OW 9307   8.259   4.830   6.707
35825SOL    HW1 9308   8.237   4.913   6.662
35825SOL    HW2 9309   8.239   4.847   6.799
35826SOL     OW 9310   0.860   5.386   4.906
35826SOL    HW1 9311   0.801   5.336   4.851
35826SOL    HW2 9312   0.878   5.467   4.857
35827SOL     OW 9313   6.070  13.313   6.447
35827SOL    HW1 9314   6.144  13.373   6.445
35827SOL    HW2 9315   6.109  13.226   6.448
35828SOL     OW 9316  14.119  14.606   1.266
35828SOL    HW1 9317  14.196  14.553   1.289
35828SOL    HW2 9318  14.144  14.650   1.185
35829SOL     OW 9319   5.349   3.063   2.400
35829SOL    HW1 9320   5.410   3.064   2.327
35829SOL    HW2 9321   5.383   2.997   2.459
35830SOL     OW 9322   4.476   2.502   7.991
35830SOL    HW1 9323   4.544   2.439   7.964
35830SOL    HW2 9324   4.497   2.582   7.942
35831SOL     OW 9325  12.764  12.787  13.907
35831SOL    HW1 9326  12.857  12.773  13.927
35831SOL    HW2 9327  12.726  12.699  13.906
35832SOL     OW 9328  13.873   5.863  14.105
35832SOL    HW1 9329  13.889   5.769  14.096
35832SOL    HW2 9330  13.957   5.903  14.082
35833SOL     OW 9331   6.518   8.673   0.163
35833SOL    HW1 9332   6.469   8.671   0.245
35833SOL    HW2 9333   6.511   8.763   0.133
35834SOL     OW 9334   9.208   9.857  12.782
35834SOL    HW1 9335   9.232   9.908  12.704
35834SOL    HW2 9336   9.263   9.893  12.851
35835SOL     OW 9337  14.549   1.674   6.203
35835SOL    HW1 9338  14.609   1.672   6.277
35835SOL    HW2 9339  14.593   1.625   6.134
35836SOL     OW 9340  11.953  14.507   6.394
35836SOL    HW1 9341  11.912  14.421   6.402
35836SOL    HW2 9342  11.885  14.562   6.353
35837SOL     OW 9343  11.779  14.673   2.793
35837SOL    HW1 9344  11.778  14.588   2.838
35837SOL    HW2 9345  11.758  14.652   2.702
35838SOL     OW 9346   7.314   2.470   0.600
35838SOL    HW1 9347   7.323   2.564   0.616
35838SOL    HW2 9348   7.238   2.444   0.653
35839SOL     OW 9349   9.002  12.824   4.860
35839SOL    HW1 9350   9.002  12.856   4.770
35839SOL    HW2 9351   9.077  12.866   4.901
35840SOL     OW 9352  14.094   4.800   3.157
35840SOL    HW1 9353  14.124   4.710   3.144
35840SOL    HW2 9354  14.073   4.831   3.069
35841SOL     OW 9355   1.044  12.276  12.673
35841SOL    HW1 9356   1.012  12.270  12.583
35841SOL    HW2 9357   0.969  12.309  12.723
35842SOL     OW 9358   5.764   8.679   3.254
35842SOL    HW1 9359   5.762   8.638   3.340
35842SOL    HW2 9360   5.782   8.771   3.271
35843SOL     OW 9361   2.320   3.044   2.181
35843SOL    HW1 9362   2.290   3.051   2.272
35843SOL    HW2 9363   2.375   3.121   2.168
35844SOL     OW 9364   3.601   6.535  11.969
35844SOL    HW1 9365   3.560   6.540  11.883
35844SOL    HW2 9366   3.559   6.605  12.020
35845SOL     OW 9367   7.765   9.978  10.749
35845SOL    HW1 9368   7.708  10.050  10.775
35845SOL    HW2 9369   7.705   9.911  10.715
35846SOL     OW 9370   4.149  13.478  12.862
35846SOL    HW1 9371   4.071  13.426  12.879
35846SOL    HW2 9372   4.196  13.478  12.946
35847SOL     OW 9373   4.210   5.285   8.555
35847SOL    HW1 9374   4.306   5.288   8.561
35847SOL    HW2 9375   4.183   5.375   8.574
35848SOL     OW 9376  10.086   1.071  10.322
35848SOL    HW1 9377  10.107   1.164  10.313
35848SOL    HW2 9378  10.094   1.054  10.415
35849SOL     OW 9379   8.743   7.182   9.510
35849SOL    HW1 9380   8.713   7.159   9.598
35849SOL    HW2 9381   8.662   7.197   9.461
35850SOL     OW 9382  14.226   7.024   5.577
35850SOL    HW1 9383  14.239   6.933   5.603
35850SOL    HW2 9384  14.281   7.035   5.500
35851SOL     OW 9385  13.641  10.768   7.369
35851SOL    HW1 9386  13.684  10.719   7.299
35851SOL    HW2 9387  13.630  10.705   7.440
35852SOL     OW 9388   2.215   8.776  12.940
35852SOL    HW1 9389   2.252   8.856  12.903
35852SOL    HW2 9390   2.121   8.793  12.945
35853SOL     OW 9391   4.801  11.884   8.124
35853SOL    HW1 9392   4.741  11.844   8.061
35853SOL    HW2 9393   4.744  11.932   8.185
35854SOL     OW 9394  14.225  10.602   0.831
35854SOL    HW1 9395  14.184  10.647   0.905
35854SOL    HW2 9396  14.181  10.517   0.827
35855SOL     OW 9397   3.277  10.345   6.046
35855SOL    HW1 9398   3.351  10.312   6.097
35855SOL    HW2 9399   3.269  10.283   5.973
35856SOL     OW 9400   8.517  12.078   1.755
35856SOL    HW1 9401   8.562  12.061   1.672
35856SOL    HW2 9402   8.586  12.070   1.821
35857SOL     OW 9403  10.102   5.239   3.057
35857SOL    HW1 9404  10.093   5.254   2.963
35857SOL    HW2 9405  10.098   5.326   3.096
35858SOL     OW 9406   0.954  14.512  12.978
35858SOL    HW1 9407   0.864  14.528  12.948
35858SOL    HW2 9408   0.965  14.573  13.051
35859SOL     OW 9409   1.408  11.529  10.236
35859SOL    HW1 9410   1.353  11.586  10.289
35859SOL    HW2 9411   1.384  11.440  10.263
35860SOL     OW 9412   2.487   9.139  10.962
35860SOL    HW1 9413   2.520   9.218  10.919
35860SOL    HW2 9414   2.564   9.082  10.967
35861SOL     OW 9415  14.583   5.781  13.018
35861SOL    HW1 9416  14.580   5.781  13.114
35861SOL    HW2 9417  14.612   5.870  12.996
35862SOL     OW 9418   4.078  13.138   9.178
35862SOL    HW1 9419   4.074  13.096   9.092
35862SOL    HW2 9420   4.083  13.231   9.159
35863SOL     OW 9421   5.372   5.345   5.479
35863SOL    HW1 9422   5.439   5.380   5.538
35863SOL    HW2 9423   5.292   5.389   5.505
35864SOL     OW 9424  11.243  11.771   9.073
35864SOL    HW1 9425  11.188  11.711   9.123
35864SOL    HW2 9426  11.210  11.764   8.983
35865SOL     OW 9427   8.047   2.674   2.894
35865SOL    HW1 9428   8.119   2.628   2.850
35865SOL    HW2 9429   7.989   2.604   2.924
35866SOL     OW 9430  14.352   9.616   0.606
35866SOL    HW1 9431  14.396   9.597   0.689
35866SOL    HW2 9432  14.319   9.531   0.576
35867SOL     OW 9433  10.308  12.180  10.835
35867SOL    HW1 9434  10.358  12.237  10.894
35867SOL    HW2 9435  10.365  12.170  10.759
35868SOL     OW 9436  10.551   6.052  14.711
35868SOL    HW1 9437  10.597   6.025  14.631
35868SOL    HW2 9438  10.516   6.138  14.690
35869SOL     OW 9439   0.388  10.437   4.279
35869SOL    HW1 9440   0.426  10.423   4.193
35869SOL    HW2 9441   0.414  10.526   4.303
35870SOL     OW 9442   5.789   2.953   2.912
35870SOL    HW1 9443   5.808   3.002   2.992
35870SOL    HW2 9444   5.840   2.872   2.921
35871SOL     OW 9445   0.478  14.780   3.348
35871SOL    HW1 9446   0.562  14.792   3.302
35871SOL    HW2 9447   0.413  14.816   3.287
35872SOL     OW 9448   9.955  12.645   7.919
35872SOL    HW1 9449   9.965  12.687   8.005
35872SOL    HW2 9450   9.929  12.555   7.940
35873SOL     OW 9451   2.683   7.470  11.274
35873SOL    HW1 9452   2.715   7.399  11.330
35873SOL    HW2 9453   2.754   7.486  11.212
35874SOL     OW 9454  11.814  11.573   2.004
35874SOL    HW1 9455  11.825  11.492   2.054
35874SOL    HW2 9456  11.723  11.572   1.976
35875SOL     OW 9457   2.540   7.591   6.846
35875SOL    HW1 9458   2.484   7.666   6.822
35875SOL    HW2 9459   2.566   7.608   6.936
35876SOL     OW 9460  14.103   3.725   3.120
35876SOL    HW1 9461  14.063   3.804   3.082
35876SOL    HW2 9462  14.098   3.660   3.049
35877SOL     OW 9463   2.490   4.542  11.212
35877SOL    HW1 9464   2.412   4.492  11.237
35877SOL    HW2 9465   2.456   4.615  11.160
35878SOL     OW 9466   1.044   0.170   3.823
35878SOL    HW1 9467   1.006   0.084   3.808
35878SOL    HW2 9468   1.138   0.158   3.810
35879SOL     OW 9469   9.855   7.131   5.996
35879SOL    HW1 9470   9.839   7.225   6.004
35879SOL    HW2 9471   9.808   7.105   5.917
35880SOL     OW 9472  13.863  13.028  10.831
35880SOL    HW1 9473  13.919  13.079  10.773
35880SOL    HW2 9474  13.921  12.998  10.900
35881SOL     OW 9475   8.350  13.878   9.782
35881SOL    HW1 9476   8.377  13.914   9.866
35881SOL    HW2 9477   8.294  13.945   9.744
35882SOL     OW 9478  11.599   6.608  13.732
35882SOL    HW1 9479  11.577   6.665  13.658
35882SOL    HW2 9480  11.654   6.663  13.788
35883SOL     OW 9481   5.298  10.189   3.244
35883SOL    HW1 9482   5.265  10.152   3.163
35883SOL    HW2 9483   5.255  10.138   3.313
35884SOL     OW 9484  11.172   7.382   5.920
35884SOL    HW1 9485  11.132   7.382   5.833
35884SOL    HW2 9486  11.150   7.468   5.956
35885SOL     OW 9487   3.075   1.040   5.939
35885SOL    HW1 9488   3.046   0.986   5.866
35885SOL    HW2 9489   3.010   1.024   6.008
35886SOL     OW 9490  11.851  14.749  10.758
35886SOL    HW1 9491  11.877  14.658  10.752
35886SOL    HW2 9492  11.769  14.754  10.710
35887SOL     OW 9493  12.446   7.703   1.014
35887SOL    HW1 9494  12.437   7.715   0.920
35887SOL    HW2 9495  12.535   7.731   1.033
35888SOL     OW 9496   5.124  12.779  12.480
35888SOL    HW1 9497   5.064  12.722  12.528
35888SOL    HW2 9498   5.207  12.771  12.527
35889SOL     OW 9499   0.710  11.203   7.497
35889SOL    HW1 9500   0.652  11.149   7.550
35889SOL    HW2 9501   0.745  11.144   7.430
35890SOL     OW 9502   7.008  12.907   8.797
35890SOL    HW1 9503   6.932  12.852   8.813
35890SOL    HW2 9504   7.083  12.853   8.821
35891SOL     OW 9505  11.881   4.928  14.206
35891SOL    HW1 9506  11.862   4.950  14.115
35891SOL    HW2 9507  11.977   4.932  14.212
35892SOL     OW 9508   8.735   4.093  14.531
35892SOL    HW1 9509   8.735   4.183  14.562
35892SOL    HW2 9510   8.642   4.071  14.521
35893SOL     OW 9511   1.879   5.565   8.546
35893SOL    HW1 9512   1.963   5.584   8.505
35893SOL    HW2 9513   1.879   5.616   8.627
35894SOL     OW 9514   1.159  14.109  13.578
35894SOL    HW1 9515   1.237  14.162  13.595
35894SOL    HW2 9516   1.192  14.020  13.569
35895SOL     OW 9517   8.332  12.495   4.897
35895SOL    HW1 9518   8.365  12.455   4.979
35895SOL    HW2 9519   8.301  12.581   4.924
35896SOL     OW 9520   8.961   1.333  13.127
35896SOL    HW1 9521   9.041   1.293  13.162
35896SOL    HW2 9522   8.897   1.322  13.197
35897SOL     OW 9523  12.284   8.351   0.866
35897SOL    HW1 9524  12.279   8.275   0.807
35897SOL    HW2 9525  12.194   8.382   0.873
35898SOL     OW 9526   0.207  10.116  14.075
35898SOL    HW1 9527   0.170  10.203  14.091
35898SOL    HW2 9528   0.249  10.124  13.989
35899SOL     OW 9529  10.700  10.587   2.249
35899SOL    HW1 9530  10.791  10.565   2.232
35899SOL    HW2 9531  10.685  10.558   2.339
35900SOL     OW 9532  11.488   8.778  10.646
35900SOL    HW1 9533  11.510   8.865  10.679
35900SOL    HW2 9534  11.484   8.789  10.551
35901SOL     OW 9535  13.170   8.758  13.790
35901SOL    HW1 9536  13.164   8.662  13.792
35901SOL    HW2 9537  13.128   8.786  13.872
35902SOL     OW 9538  11.130   0.886  12.575
35902SOL    HW1 9539  11.056   0.899  12.634
35902SOL    HW2 9540  11.206   0.883  12.632
35903SOL     OW 9541   3.970   4.499  14.582
35903SOL    HW1 9542   3.994   4.577  14.532
35903SOL    HW2 9543   4.000   4.518  14.671
35904SOL     OW 9544   7.209  14.613   3.835
35904SOL    HW1 9545   7.205  14.708   3.831
35904SOL    HW2 9546   7.194  14.584   3.745
35905SOL     OW 9547   7.117  11.940   8.352
35905SOL    HW1 9548   7.068  11.932   8.434
35905SOL    HW2 9549   7.073  11.880   8.292
35906SOL     OW 9550  11.876  10.290  13.967
35906SOL    HW1 9551  11.865  10.254  13.879
35906SOL    HW2 9552  11.787  10.306  13.998
35907SOL     OW 9553  12.380   2.941   8.985
35907SOL    HW1 9554  12.465   2.903   9.008
35907SOL    HW2 9555  12.379   2.939   8.889
35908SOL     OW 9556   2.198   2.157   6.637
35908SOL    HW1 9557   2.185   2.250   6.617
35908SOL    HW2 9558   2.267   2.129   6.577
35909SOL     OW 9559  10.926  13.089  10.748
35909SOL    HW1 9560  10.891  13.100  10.837
35909SOL    HW2 9561  10.868  13.024  10.708
35910SOL     OW 9562   9.657  13.492  10.702
35910SOL    HW1 9563   9.576  13.544  10.704
35910SOL    HW2 9564   9.708  13.530  10.631
35911SOL     OW 9565   6.723   9.872   9.677
35911SOL    HW1 9566   6.706   9.951   9.728
35911SOL    HW2 9567   6.637   9.833   9.663
35912SOL     OW 9568  11.248   8.714   0.344
35912SOL    HW1 9569  11.212   8.752   0.425
35912SOL    HW2 9570  11.330   8.673   0.371
35913SOL     OW 9571   3.109   7.833  12.655
35913SOL    HW1 9572   3.089   7.776  12.729
35913SOL    HW2 9573   3.061   7.914  12.674
35914SOL     OW 9574  12.524  10.997  10.655
35914SOL    HW1 9575  12.515  10.942  10.577
35914SOL    HW2 9576  12.502  11.085  10.626
35915SOL     OW 9577   6.718  14.730   3.954
35915SOL    HW1 9578   6.672  14.749   4.036
35915SOL    HW2 9579   6.810  14.722   3.980
35916SOL     OW 9580   6.459   4.541  10.762
35916SOL    HW1 9581   6.499   4.539  10.849
35916SOL    HW2 9582   6.527   4.509  10.703
35917SOL     OW 9583  12.945   7.656  11.739
35917SOL    HW1 9584  12.997   7.734  11.758
35917SOL    HW2 9585  13.011   7.588  11.720
35918SOL     OW 9586  11.291   4.118   0.610
35918SOL    HW1 9587  11.235   4.046   0.579
35918SOL    HW2 9588  11.229   4.187   0.635
35919SOL     OW 9589   6.753  12.500   8.568
35919SOL    HW1 9590   6.820  12.450   8.616
35919SOL    HW2 9591   6.683  12.437   8.552
35920SOL     OW 9592  13.062  11.393   1.897
35920SOL    HW1 9593  13.086  11.474   1.942
35920SOL    HW2 9594  12.970  11.405   1.873
35921SOL     OW 9595   1.671  14.113  11.338
35921SOL    HW1 9596   1.585  14.121  11.380
35921SOL    HW2 9597   1.672  14.182  11.272
35922SOL     OW 9598   9.488  14.779   0.530
35922SOL    HW1 9599   9.416  14.837   0.553
35922SOL    HW2 9600   9.455  14.727   0.456
35923SOL     OW 9601   8.174   2.390   4.828
35923SOL    HW1 9602   8.117   2.394   4.905
35923SOL    HW2 9603   8.263   2.395   4.863
35924SOL     OW 9604  12.844  10.727  13.947
35924SOL    HW1 9605  12.775  10.791  13.965
35924SOL    HW2 9606  12.815  10.683  13.867
35925SOL     OW 9607   9.105  11.466  13.645
35925SOL    HW1 9608   9.022  11.512  13.652
35925SOL    HW2 9609   9.091  11.400  13.577
35926SOL     OW 9610   8.388   3.657   2.926
35926SOL    HW1 9611   8.310   3.667   2.872
35926SOL    HW2 9612   8.434   3.741   2.918
35927SOL     OW 9613   8.992   2.273   7.137
35927SOL    HW1 9614   9.014   2.197   7.083
35927SOL    HW2 9615   8.907   2.302   7.105
35928SOL     OW 9616  10.251   7.450   5.455
35928SOL    HW1 9617  10.219   7.514   5.391
35928SOL    HW2 9618  10.176   7.393   5.471
35929SOL     OW 9619   6.497  12.896   3.585
35929SOL    HW1 9620   6.493  12.824   3.522
35929SOL    HW2 9621   6.558  12.959   3.546
35930SOL     OW 9622   5.311  14.260  11.222
35930SOL    HW1 9623   5.384  14.239  11.281
35930SOL    HW2 9624   5.300  14.354  11.231
35931SOL     OW 9625   4.503   9.418   6.595
35931SOL    HW1 9626   4.592   9.436   6.566
35931SOL    HW2 9627   4.503   9.442   6.688
35932SOL     OW 9628   5.110  14.828   6.211
35932SOL    HW1 9629   5.168  14.753   6.195
35932SOL    HW2 9630   5.158   0.011   6.272
35933SOL     OW 9631  10.999   3.786  12.630
35933SOL    HW1 9632  10.928   3.850  12.637
35933SOL    HW2 9633  11.068   3.833  12.583
35934SOL     OW 9634   6.857   9.682  10.008
35934SOL    HW1 9635   6.787   9.620  10.029
35934SOL    HW2 9636   6.815   9.768  10.013
35935SOL     OW 9637  14.589   8.218   1.794
35935SOL    HW1 9638  14.537   8.299   1.800
35935SOL    HW2 9639  14.663   8.233   1.852
35936SOL     OW 9640   4.352   5.624   9.149
35936SOL    HW1 9641   4.391   5.693   9.095
35936SOL    HW2 9642   4.422   5.560   9.160
35937SOL     OW 9643  10.240   4.151   8.225
35937SOL    HW1 9644  10.297   4.075   8.218
35937SOL    HW2 9645  10.206   4.148   8.314
35938SOL     OW 9646   3.748   7.695   9.294
35938SOL    HW1 9647   3.743   7.608   9.334
35938SOL    HW2 9648   3.837   7.699   9.257
35939SOL     OW 9649  11.139  11.990   7.092
35939SOL    HW1 9650  11.072  11.929   7.124
35939SOL    HW2 9651  11.219  11.964   7.138
35940SOL     OW 9652  12.639   3.605  13.677
35940SOL    HW1 9653  12.715   3.548  13.683
35940SOL    HW2 9654  12.634   3.628  13.584
35941SOL     OW 9655   4.282   7.467   8.910
35941SOL    HW1 9656   4.216   7.399   8.896
35941SOL    HW2 9657   4.324   7.443   8.993
35942SOL     OW 9658   8.339  12.925  12.662
35942SOL    HW1 9659   8.273  12.929  12.593
35942SOL    HW2 9660   8.359  13.017  12.680
35943SOL     OW 9661   2.976   0.854   3.790
35943SOL    HW1 9662   3.003   0.774   3.834
35943SOL    HW2 9663   2.887   0.871   3.822
35944SOL     OW 9664   5.826   2.820   2.002
35944SOL    HW1 9665   5.829   2.912   1.977
35944SOL    HW2 9666   5.910   2.784   1.973
35945SOL     OW 9667   6.111   4.172   5.225
35945SOL    HW1 9668   6.084   4.252   5.180
35945SOL    HW2 9669   6.205   4.166   5.208
35946SOL     OW 9670   7.880   4.283   2.793
35946SOL    HW1 9671   7.862   4.205   2.740
35946SOL    HW2 9672   7.798   4.299   2.841
35947SOL     OW 9673   6.935  10.036   2.957
35947SOL    HW1 9674   6.928  10.076   2.870
35947SOL    HW2 9675   6.944  10.111   3.017
35948SOL     OW 9676   4.313   6.325  12.467
35948SOL    HW1 9677   4.231   6.276  12.459
35948SOL    HW2 9678   4.351   6.325  12.380
35949SOL     OW 9679   0.153  13.360   2.698
35949SOL    HW1 9680   0.111  13.278   2.724
35949SOL    HW2 9681   0.096  13.428   2.732
35950SOL     OW 9682   5.692  11.457   9.449
35950SOL    HW1 9683   5.753  11.467   9.523
35950SOL    HW2 9684   5.669  11.546   9.424
35951SOL     OW 9685  12.754  13.110  14.801
35951SOL    HW1 9686  12.752  13.152  14.716
35951SOL    HW2 9687  12.681  13.048  14.799
35952SOL     OW 9688   8.695   9.638   2.849
35952SOL    HW1 9689   8.610   9.628   2.892
35952SOL    HW2 9690   8.712   9.732   2.850
35953SOL     OW 9691  12.597   7.978  10.788
35953SOL    HW1 9692  12.568   8.032  10.861
35953SOL    HW2 9693  12.612   8.041  10.717
35954SOL     OW 9694  13.530  12.677   1.491
35954SOL    HW1 9695  13.439  12.689   1.462
35954SOL    HW2 9696  13.571  12.625   1.422
35955SOL     OW 9697   4.882  10.419   5.063
35955SOL    HW1 9698   4.928  10.502   5.073
35955SOL    HW2 9699   4.789  10.441   5.074
35956SOL     OW 9700  11.410   3.805   6.413
35956SOL    HW1 9701  11.436   3.743   6.345
35956SOL    HW2 9702  11.459   3.775   6.491
35957SOL     OW 9703  12.255   9.566  10.078
35957SOL    HW1 9704  12.195   9.535  10.146
35957SOL    HW2 9705  12.334   9.592  10.126
35958SOL     OW 9706   4.596   8.487  10.176
35958SOL    HW1 9707   4.525   8.531  10.129
35958SOL    HW2 9708   4.602   8.400  10.136
35959SOL     OW 9709   4.178   9.907   6.399
35959SOL    HW1 9710   4.161   9.859   6.317
35959SOL    HW2 9711   4.103   9.966   6.408
35960SOL     OW 9712   3.639   9.742  11.735
35960SOL    HW1 9713   3.709   9.687  11.771
35960SOL    HW2 9714   3.647   9.733  11.640
35961SOL     OW 9715   7.057   2.985  12.839
35961SOL    HW1 9716   7.119   3.006  12.908
35961SOL    HW2 9717   7.108   2.990  12.758
35962SOL     OW 9718   1.454   6.453  12.248
35962SOL    HW1 9719   1.468   6.474  12.156
35962SOL    HW2 9720   1.359   6.442  12.256
35963SOL     OW 9721  11.346   8.842   0.767
35963SOL    HW1 9722  11.383   8.755   0.781
35963SOL    HW2 9723  11.303   8.836   0.681
35964SOL     OW 9724   9.806  14.783   8.137
35964SOL    HW1 9725   9.824  14.808   8.228
35964SOL    HW2 9726   9.766  14.861   8.098
35965SOL     OW 9727  11.021  13.301  14.489
35965SOL    HW1 9728  11.023  13.278  14.397
35965SOL    HW2 9729  11.109  13.332  14.508
35966SOL     OW 9730   3.360   0.902   8.237
35966SOL    HW1 9731   3.388   0.948   8.158
35966SOL    HW2 9732   3.359   0.809   8.211
35967SOL     OW 9733   7.587   9.296   7.605
35967SOL    HW1 9734   7.513   9.237   7.623
35967SOL    HW2 9735   7.557   9.381   7.635
35968SOL     OW 9736   7.839   3.136  12.187
35968SOL    HW1 9737   7.881   3.116  12.103
35968SOL    HW2 9738   7.746   3.119  12.171
35969SOL     OW 9739  14.764   5.773   9.768
35969SOL    HW1 9740  14.797   5.792   9.855
35969SOL    HW2 9741  14.795   5.684   9.749
35970SOL     OW 9742   5.225  14.507   6.629
35970SOL    HW1 9743   5.265  14.521   6.715
35970SOL    HW2 9744   5.176  14.588   6.612
35971SOL     OW 9745  13.515   3.488   5.742
35971SOL    HW1 9746  13.452   3.529   5.802
35971SOL    HW2 9747  13.583   3.454   5.800
35972SOL     OW 9748   4.622   8.173   7.236
35972SOL    HW1 9749   4.612   8.115   7.161
35972SOL    HW2 9750   4.603   8.118   7.312
35973SOL     OW 9751   2.334   7.822   1.877
35973SOL    HW1 9752   2.334   7.866   1.792
35973SOL    HW2 9753   2.243   7.829   1.907
35974SOL     OW 9754   6.092   8.298   4.056
35974SOL    HW1 9755   6.138   8.223   4.019
35974SOL    HW2 9756   6.161   8.364   4.069
35975SOL     OW 9757   3.996   6.755  12.940
35975SOL    HW1 9758   3.909   6.769  12.977
35975SOL    HW2 9759   4.026   6.673  12.979
35976SOL     OW 9760   0.260   4.668   0.252
35976SOL    HW1 9761   0.325   4.736   0.235
35976SOL    HW2 9762   0.227   4.644   0.166
35977SOL     OW 9763  12.637  13.941  14.576
35977SOL    HW1 9764  12.582  14.002  14.529
35977SOL    HW2 9765  12.634  13.971  14.667
35978SOL     OW 9766   0.427  14.842   6.841
35978SOL    HW1 9767   0.365   0.005   6.906
35978SOL    HW2 9768   0.389  14.757   6.817
35979SOL     OW 9769  12.552  13.323   6.910
35979SOL    HW1 9770  12.587  13.236   6.890
35979SOL    HW2 9771  12.595  13.347   6.992
35980SOL     OW 9772   6.450  10.555   6.113
35980SOL    HW1 9773   6.488  10.524   6.195
35980SOL    HW2 9774   6.507  10.627   6.086
35981SOL     OW 9775  10.526  12.729   7.904
35981SOL    HW1 9776  10.564  12.666   7.966
35981SOL    HW2 9777  10.602  12.777   7.871
35982SOL     OW 9778   9.734   1.368   2.157
35982SOL    HW1 9779   9.701   1.432   2.095
35982SOL    HW2 9780   9.770   1.298   2.103
35983SOL     OW 9781  10.026   2.321   2.624
35983SOL    HW1 9782   9.949   2.264   2.624
35983SOL    HW2 9783  10.100   2.263   2.610
35984SOL     OW 9784   1.718   4.633   6.673
35984SOL    HW1 9785   1.807   4.617   6.641
35984SOL    HW2 9786   1.715   4.593   6.759
35985SOL     OW 9787   7.003   9.859   1.399
35985SOL    HW1 9788   6.937   9.839   1.333
35985SOL    HW2 9789   7.081   9.884   1.349
35986SOL     OW 9790  11.871  13.824  10.043
35986SOL    HW1 9791  11.870  13.761  10.115
35986SOL    HW2 9792  11.855  13.908  10.086
35987SOL     OW 9793  12.232   8.904   1.123
35987SOL    HW1 9794  12.195   8.841   1.184
35987SOL    HW2 9795  12.203   8.989   1.156
35988SOL     OW 9796   0.275   1.121  11.348
35988SOL    HW1 9797   0.247   1.151  11.435
35988SOL    HW2 9798   0.281   1.202  11.296
35989SOL     OW 9799   4.361   7.556  13.399
35989SOL    HW1 9800   4.286   7.612  13.382
35989SOL    HW2 9801   4.424   7.579  13.331
35990SOL     OW 9802   7.222   8.860   9.598
35990SOL    HW1 9803   7.208   8.786   9.540
35990SOL    HW2 9804   7.134   8.891   9.619
35991SOL     OW 9805   5.548   4.296  10.016
35991SOL    HW1 9806   5.615   4.262   9.956
35991SOL    HW2 9807   5.500   4.219  10.044
35992SOL     OW 9808   0.042   5.861  13.670
35992SOL    HW1 9809   0.103   5.788  13.682
35992SOL    HW2 9810   0.059   5.919  13.744
35993SOL     OW 9811  12.049  11.585   3.019
35993SOL    HW1 9812  12.026  11.667   2.976
35993SOL    HW2 9813  12.119  11.549   2.966
35994SOL     OW 9814   8.982  11.172  12.360
35994SOL    HW1 9815   9.050  11.234  12.333
35994SOL    HW2 9816   8.901  11.207  12.323
35995SOL     OW 9817   4.683   4.553  10.324
35995SOL    HW1 9818   4.735   4.633  10.330
35995SOL    HW2 9819   4.623   4.569  10.251
35996SOL     OW 9820   1.570  13.374  13.021
35996SOL    HW1 9821   1.643  13.378  13.082
35996SOL    HW2 9822   1.493  13.391  13.075
35997SOL     OW 9823   0.312   1.723   2.523
35997SOL    HW1 9824   0.304   1.683   2.436
35997SOL    HW2 9825   0.280   1.812   2.512
35998SOL     OW 9826   9.869   6.671   1.046
35998SOL    HW1 9827   9.846   6.579   1.045
35998SOL    HW2 9828   9.842   6.703   1.132
35999SOL     OW 9829   2.691  11.226   9.515
35999SOL    HW1 9830   2.692  11.301   9.456
35999SOL    HW2 9831   2.607  11.183   9.497
36000SOL     OW 9832   9.185   8.740   2.478
36000SOL    HW1 9833   9.119   8.791   2.431
36000SOL    HW2 9834   9.213   8.673   2.416
36001SOL     OW 9835  10.626   1.844   0.421
36001SOL    HW1 9836  10.604   1.751   0.432
36001SOL    HW2 9837  10.702   1.844   0.362
36002SOL     OW 9838  11.877   9.139   2.113
36002SOL    HW1 9839  11.914   9.200   2.177
36002SOL    HW2 9840  11.952   9.092   2.079
36003SOL     OW 9841  10.652   5.767   9.860
36003SOL    HW1 9842  10.719   5.703   9.886
36003SOL    HW2 9843  10.652   5.764   9.764
36004SOL     OW 9844   4.968   5.765   2.457
36004SOL    HW1 9845   4.943   5.775   2.549
36004SOL    HW2 9846   4.913   5.829   2.411
36005SOL     OW 9847  11.836   0.522   7.894
36005SOL    HW1 9848  11.842   0.430   7.870
36005SOL    HW2 9849  11.886   0.529   7.976
36006SOL     OW 9850   2.730  10.454   8.907
36006SOL    HW1 9851   2.682  10.416   8.832
36006SOL    HW2 9852   2.692  10.411   8.983
36007SOL     OW 9853   0.915   0.117   6.322
36007SOL    HW1 9854   0.844   0.157   6.372
36007SOL    HW2 9855   0.900   0.023   6.329
36008SOL     OW 9856   6.076  11.587  14.298
36008SOL    HW1 9857   6.081  11.672  14.256
36008SOL    HW2 9858   6.067  11.525  14.226
36009SOL     OW 9859   0.414   0.721   5.787
36009SOL    HW1 9860   0.500   0.700   5.823
36009SOL    HW2 9861   0.370   0.771   5.856
36010SOL     OW 9862  14.101   7.709   7.345
36010SOL    HW1 9863  14.139   7.679   7.263
36010SOL    HW2 9864  14.093   7.630   7.398
36011SOL     OW 9865  10.643   8.602   3.999
36011SOL    HW1 9866  10.656   8.615   3.905
36011SOL    HW2 9867  10.730   8.617   4.037
36012SOL     OW 9868  14.375  14.366   0.877
36012SOL    HW1 9869  14.434  14.334   0.809
36012SOL    HW2 9870  14.391  14.461   0.880
36013SOL     OW 9871   2.747   4.324  13.818
36013SOL    HW1 9872   2.654   4.345  13.815
36013SOL    HW2 9873   2.778   4.364  13.899
36014SOL     OW 9874  11.690   8.441   7.892
36014SOL    HW1 9875  11.768   8.438   7.838
36014SOL    HW2 9876  11.650   8.355   7.883
36015SOL     OW 9877   0.724   0.312  14.425
36015SOL    HW1 9878   0.678   0.229  14.413
36015SOL    HW2 9879   0.811   0.296  14.388
36016SOL     OW 9880   2.900   1.884   6.996
36016SOL    HW1 9881   2.810   1.908   7.019
36016SOL    HW2 9882   2.931   1.956   6.942
36017SOL     OW 9883   3.412   2.640   2.679
36017SOL    HW1 9884   3.420   2.702   2.751
36017SOL    HW2 9885   3.446   2.688   2.603
36018SOL     OW 9886  14.007   0.794   6.287
36018SOL    HW1 9887  14.003   0.769   6.380
36018SOL    HW2 9888  14.077   0.859   6.284
36019SOL     OW 9889   3.212  10.350   7.020
36019SOL    HW1 9890   3.201  10.441   6.992
36019SOL    HW2 9891   3.187  10.350   7.112
36020SOL     OW 9892  13.773   6.187   2.521
36020SOL    HW1 9893  13.803   6.226   2.439
36020SOL    HW2 9894  13.806   6.098   2.520
36021SOL     OW 9895  13.710   4.505   9.509
36021SOL    HW1 9896  13.789   4.484   9.559
36021SOL    HW2 9897  13.741   4.517   9.419
36022SOL     OW 9898   0.402   1.991  10.602
36022SOL    HW1 9899   0.479   1.940  10.576
36022SOL    HW2 9900   0.344   1.987  10.526
36023SOL     OW 9901   9.746   1.147  10.478
36023SOL    HW1 9902   9.674   1.190  10.525
36023SOL    HW2 9903   9.724   1.160  10.385
36024SOL     OW 9904  11.969   1.770   8.470
36024SOL    HW1 9905  11.956   1.681   8.439
36024SOL    HW2 9906  11.997   1.761   8.561
36025SOL     OW 9907   4.061   6.098   2.313
36025SOL    HW1 9908   4.048   6.172   2.254
36025SOL    HW2 9909   4.147   6.063   2.288
36026SOL     OW 9910   6.873   9.577   7.981
36026SOL    HW1 9911   6.824   9.634   7.921
36026SOL    HW2 9912   6.920   9.517   7.925
36027SOL     OW 9913  11.197   8.882   0.112
36027SOL    HW1 9914  11.132   8.920   0.053
36027SOL    HW2 9915  11.145   8.849   0.186
36028SOL     OW 9916   9.603   8.156  10.511
36028SOL    HW1 9917   9.521   8.138  10.558
36028SOL    HW2 9918   9.665   8.183  10.579
36029SOL     OW 9919   9.576   3.667  10.033
36029SOL    HW1 9920   9.540   3.750  10.002
36029SOL    HW2 9921   9.650   3.650   9.976
36030SOL     OW 9922   9.300  11.628  14.002
36030SOL    HW1 9923   9.293  11.547  14.053
36030SOL    HW2 9924   9.393  11.650  14.003
36031SOL     OW 9925  14.804   9.814  11.555
36031SOL    HW1 9926  14.785   9.908  11.551
36031SOL    HW2 9927  14.846   9.794  11.472
36032SOL     OW 9928   0.764  10.547   1.676
36032SOL    HW1 9929   0.841  10.511   1.720
36032SOL    HW2 9930   0.703  10.565   1.747
36033SOL     OW 9931   1.651   0.191  13.158
36033SOL    HW1 9932   1.572   0.245  13.157
36033SOL    HW2 9933   1.673   0.183  13.251
36034SOL     OW 9934   0.635  11.947   1.535
36034SOL    HW1 9935   0.548  11.948   1.496
36034SOL    HW2 9936   0.668  12.036   1.523
36035SOL     OW 9937   0.933   9.486  10.856
36035SOL    HW1 9938   0.897   9.398  10.846
36035SOL    HW2 9939   0.861   9.545  10.834
36036SOL     OW 9940   9.719   0.364   5.224
36036SOL    HW1 9941   9.777   0.435   5.250
36036SOL    HW2 9942   9.739   0.293   5.286
36037SOL     OW 9943   3.615   9.054  11.956
36037SOL    HW1 9944   3.698   9.030  11.915
36037SOL    HW2 9945   3.548   9.022  11.896
36038SOL     OW 9946   9.099  11.370   1.081
36038SOL    HW1 9947   9.061  11.322   1.155
36038SOL    HW2 9948   9.058  11.457   1.086
36039SOL     OW 9949   9.902   7.267   5.268
36039SOL    HW1 9950   9.835   7.206   5.300
36039SOL    HW2 9951   9.947   7.218   5.199
36040SOL     OW 9952  12.735   3.798   2.674
36040SOL    HW1 9953  12.786   3.871   2.638
36040SOL    HW2 9954  12.707   3.748   2.598
36041SOL     OW 9955   4.482   4.434  11.248
36041SOL    HW1 9956   4.392   4.459  11.268
36041SOL    HW2 9957   4.535   4.509  11.277
36042SOL     OW 9958   1.341  12.321   4.860
36042SOL    HW1 9959   1.246  12.327   4.857
36042SOL    HW2 9960   1.368  12.396   4.913
36043SOL     OW 9961   2.441  13.594   3.330
36043SOL    HW1 9962   2.498  13.607   3.255
36043SOL    HW2 9963   2.445  13.678   3.377
36044SOL     OW 9964   4.784   5.835   7.956
36044SOL    HW1 9965   4.693   5.864   7.957
36044SOL    HW2 9966   4.781   5.749   7.913
36045SOL     OW 9967   0.128  13.993  10.921
36045SOL    HW1 9968   0.146  14.041  11.002
36045SOL    HW2 9969   0.035  14.009  10.903
36046SOL     OW 9970  14.823   3.247   5.772
36046SOL    HW1 9971   0.031   3.298   5.778
36046SOL    HW2 9972  14.765   3.301   5.718
36047SOL     OW 9973   1.027   1.616   0.216
36047SOL    HW1 9974   1.028   1.641   0.124
36047SOL    HW2 9975   0.943   1.571   0.229
36048SOL     OW 9976   0.512   6.585  10.110
36048SOL    HW1 9977   0.588   6.530  10.090
36048SOL    HW2 9978   0.486   6.558  10.198
36049SOL     OW 9979   6.276   3.871   9.298
36049SOL    HW1 9980   6.366   3.849   9.321
36049SOL    HW2 9981   6.282   3.960   9.261
36050SOL     OW 9982   2.022   6.292   8.018
36050SOL    HW1 9983   1.954   6.233   8.051
36050SOL    HW2 9984   2.040   6.261   7.929
36051SOL     OW 9985   2.890   4.445   4.489
36051SOL    HW1 9986   2.933   4.530   4.483
36051SOL    HW2 9987   2.886   4.426   4.582
36052SOL     OW 9988  12.482   5.722   6.624
36052SOL    HW1 9989  12.403   5.776   6.624
36052SOL    HW2 9990  12.541   5.765   6.686
36053SOL     OW 9991  14.410  14.627   5.686
36053SOL    HW1 9992  14.323  14.588   5.689
36053SOL    HW2 9993  14.418  14.674   5.769
36054SOL     OW 9994   6.261  13.491   6.539
36054SOL    HW1 9995   6.333  13.552   6.523
36054SOL    HW2 9996   6.183  13.546   6.543
36055SOL     OW 9997   1.196   2.164  10.546
36055SOL    HW1 9998   1.288   2.179  10.526
36055SOL    HW2 9999   1.157   2.251  10.550
36056SOL     OW10000  12.947  13.476   8.006
36056SOL    HW110001  12.964  13.446   8.095
36056SOL    HW210002  12.866  13.527   8.013
36057SOL     OW10003  13.237   5.970  13.197
36057SOL    HW110004  13.260   5.925  13.278
36057SOL    HW210005  13.163   6.026  13.220
36058SOL     OW10006   6.874   6.690   9.542
36058SOL    HW110007   6.821   6.641   9.480
36058SOL    HW210008   6.964   6.666   9.521
36059SOL     OW10009   3.055  13.802  11.951
36059SOL    HW110010   3.006  13.807  11.869
36059SOL    HW210011   3.086  13.891  11.966
36060SOL     OW10012   1.912   1.305   9.197
36060SOL    HW110013   1.936   1.398   9.194
36060SOL    HW210014   1.926   1.274   9.107
36061SOL     OW10015  14.556   0.214   1.739
36061SOL    HW110016  14.651   0.207   1.754
36061SOL    HW210017  14.529   0.124   1.721
36062SOL     OW10018  13.739  14.054   8.247
36062SOL    HW110019  13.644  14.050   8.241
36062SOL    HW210020  13.761  14.145   8.225
36063SOL     OW10021  10.201  12.758   8.256
36063SOL    HW110022  10.232  12.697   8.190
36063SOL    HW210023  10.223  12.717   8.339
36064SOL     OW10024   8.556  10.566  10.080
36064SOL    HW110025   8.471  10.564  10.125
36064SOL    HW210026   8.602  10.639  10.121
36065SOL     OW10027  12.757   6.687   9.659
36065SOL    HW110028  12.786   6.610   9.610
36065SOL    HW210029  12.837   6.723   9.696
36066SOL     OW10030   9.758   3.593  14.007
36066SOL    HW110031   9.802   3.662  13.958
36066SOL    HW210032   9.760   3.517  13.949
36067SOL     OW10033   3.566   3.211   2.223
36067SOL    HW110034   3.553   3.305   2.226
36067SOL    HW210035   3.591   3.193   2.133
36068SOL     OW10036  11.236   0.423   9.529
36068SOL    HW110037  11.294   0.415   9.453
36068SOL    HW210038  11.204   0.513   9.526
36069SOL     OW10039   7.464   3.478   1.437
36069SOL    HW110040   7.432   3.393   1.467
36069SOL    HW210041   7.386   3.525   1.407
36070SOL     OW10042   1.044   8.553   8.775
36070SOL    HW110043   1.010   8.558   8.686
36070SOL    HW210044   1.094   8.634   8.785
36071SOL     OW10045   3.626   1.004   3.936
36071SOL    HW110046   3.720   1.025   3.939
36071SOL    HW210047   3.586   1.068   3.996
36072SOL     OW10048  12.576   4.057   0.624
36072SOL    HW110049  12.631   4.082   0.698
36072SOL    HW210050  12.520   4.133   0.609
36073SOL     OW10051   3.642   4.180   3.611
36073SOL    HW110052   3.620   4.171   3.518
36073SOL    HW210053   3.720   4.126   3.623
36074SOL     OW10054   1.865   1.129   8.605
36074SOL    HW110055   1.783   1.082   8.623
36074SOL    HW210056   1.837   1.217   8.579
36075SOL     OW10057  12.376   6.271   7.413
36075SOL    HW110058  12.366   6.198   7.474
36075SOL    HW210059  12.402   6.345   7.468
36076SOL     OW10060   2.113   1.917  13.634
36076SOL    HW110061   2.036   1.861  13.646
36076SOL    HW210062   2.184   1.867  13.676
36077SOL     OW10063  11.107   0.913  10.313
36077SOL    HW110064  11.172   0.983  10.306
36077SOL    HW210065  11.097   0.899  10.407
36078SOL     OW10066   3.119  11.301  12.963
36078SOL    HW110067   3.188  11.332  12.905
36078SOL    HW210068   3.073  11.235  12.911
36079SOL     OW10069   9.740   1.483   5.058
36079SOL    HW110070   9.827   1.444   5.044
36079SOL    HW210071   9.679   1.412   5.040
36080SOL     OW10072   8.004   2.727   3.898
36080SOL    HW110073   7.922   2.678   3.894
36080SOL    HW210074   7.978   2.816   3.921
36081SOL     OW10075   6.509   3.824   1.279
36081SOL    HW110076   6.465   3.834   1.364
36081SOL    HW210077   6.453   3.763   1.230
36082SOL     OW10078   7.213   4.167   0.949
36082SOL    HW110079   7.128   4.155   0.906
36082SOL    HW210080   7.274   4.113   0.898
36083SOL     OW10081   5.219   9.463   8.277
36083SOL    HW110082   5.143   9.411   8.253
36083SOL    HW210083   5.223   9.459   8.372
36084SOL     OW10084  14.376  12.740   3.894
36084SOL    HW110085  14.284  12.746   3.868
36084SOL    HW210086  14.373  12.734   3.990
36085SOL     OW10087   5.147   2.146   4.133
36085SOL    HW110088   5.111   2.104   4.211
36085SOL    HW210089   5.204   2.215   4.168
36086SOL     OW10090   1.588   8.057   2.107
36086SOL    HW110091   1.521   8.015   2.162
36086SOL    HW210092   1.547   8.061   2.020
36087SOL     OW10093   2.763   1.701   1.143
36087SOL    HW110094   2.739   1.759   1.070
36087SOL    HW210095   2.697   1.631   1.140
36088SOL     OW10096   8.043  11.168   7.945
36088SOL    HW110097   8.075  11.110   7.876
36088SOL    HW210098   8.118  11.177   8.005
36089SOL     OW10099   9.714   5.132   4.663
36089SOL    HW110100   9.663   5.134   4.744
36089SOL    HW210101   9.682   5.207   4.612
36090SOL     OW10102   7.272   7.323  12.871
36090SOL    HW110103   7.291   7.323  12.964
36090SOL    HW210104   7.357   7.337  12.829
36091SOL     OW10105   8.208  11.184   7.370
36091SOL    HW110106   8.244  11.108   7.416
36091SOL    HW210107   8.125  11.201   7.413
36092SOL     OW10108   1.265   6.258  14.014
36092SOL    HW110109   1.179   6.217  14.029
36092SOL    HW210110   1.255   6.347  14.047
36093SOL     OW10111  12.938   8.271   9.593
36093SOL    HW110112  12.878   8.233   9.658
36093SOL    HW210113  12.904   8.360   9.579
36094SOL     OW10114   5.592  11.061   1.503
36094SOL    HW110115   5.551  11.070   1.417
36094SOL    HW210116   5.569  10.973   1.532
36095SOL     OW10117  13.905   0.328   9.897
36095SOL    HW110118  13.942   0.390   9.834
36095SOL    HW210119  13.860   0.383   9.961
36096SOL     OW10120   2.157   3.580  13.177
36096SOL    HW110121   2.177   3.494  13.214
36096SOL    HW210122   2.107   3.560  13.097
36097SOL     OW10123   0.382   1.446   8.117
36097SOL    HW110124   0.354   1.401   8.038
36097SOL    HW210125   0.304   1.446   8.173
36098SOL     OW10126  11.990   6.501  13.736
36098SOL    HW110127  12.021   6.497  13.646
36098SOL    HW210128  12.069   6.485  13.789
36099SOL     OW10129  11.746   8.174  13.166
36099SOL    HW110130  11.736   8.129  13.250
36099SOL    HW210131  11.768   8.264  13.189
36100SOL     OW10132   7.454  12.731   4.648
36100SOL    HW110133   7.421  12.821   4.646
36100SOL    HW210134   7.397  12.682   4.589
36101SOL     OW10135   5.305  11.871   0.553
36101SOL    HW110136   5.308  11.939   0.620
36101SOL    HW210137   5.259  11.798   0.595
36102SOL     OW10138   0.667   2.157   5.616
36102SOL    HW110139   0.668   2.066   5.587
36102SOL    HW210140   0.580   2.189   5.591
36103SOL     OW10141   1.869  14.172   3.880
36103SOL    HW110142   1.884  14.082   3.850
36103SOL    HW210143   1.861  14.222   3.799
36104SOL     OW10144   9.779  13.570   9.281
36104SOL    HW110145   9.740  13.566   9.368
36104SOL    HW210146   9.867  13.605   9.295
36105SOL     OW10147   6.012   9.706   0.970
36105SOL    HW110148   6.054   9.659   1.042
36105SOL    HW210149   6.023   9.798   0.992
36106SOL     OW10150   0.265   6.721  10.309
36106SOL    HW110151   0.358   6.706  10.330
36106SOL    HW210152   0.255   6.816  10.310
36107SOL     OW10153   5.645   4.037   0.504
36107SOL    HW110154   5.579   4.091   0.547
36107SOL    HW210155   5.651   3.958   0.558
36108SOL     OW10156   8.700   3.221  11.035
36108SOL    HW110157   8.747   3.189  10.958
36108SOL    HW210158   8.666   3.306  11.009
36109SOL     OW10159  11.461   1.920   2.556
36109SOL    HW110160  11.395   1.850   2.560
36109SOL    HW210161  11.466   1.953   2.646
36110SOL     OW10162   5.756   8.354   9.590
36110SOL    HW110163   5.714   8.296   9.653
36110SOL    HW210164   5.691   8.422   9.573
36111SOL     OW10165   9.636   4.413   1.924
36111SOL    HW110166   9.687   4.440   2.001
36111SOL    HW210167   9.632   4.491   1.869
36112SOL     OW10168  13.604   6.034   3.388
36112SOL    HW110169  13.587   5.946   3.355
36112SOL    HW210170  13.646   6.081   3.316
36113SOL     OW10171   2.823  12.928   4.306
36113SOL    HW110172   2.832  12.835   4.324
36113SOL    HW210173   2.731  12.939   4.281
36114SOL     OW10174   9.307   5.604   0.827
36114SOL    HW110175   9.343   5.687   0.797
36114SOL    HW210176   9.218   5.625   0.855
36115SOL     OW10177   5.658   0.144   8.478
36115SOL    HW110178   5.574   0.098   8.476
36115SOL    HW210179   5.714   0.094   8.420
36116SOL     OW10180   7.534  12.718   4.210
36116SOL    HW110181   7.576  12.757   4.287
36116SOL    HW210182   7.457  12.772   4.194
36117SOL     OW10183   8.410   6.184   7.965
36117SOL    HW110184   8.452   6.266   7.936
36117SOL    HW210185   8.413   6.188   8.060
36118SOL     OW10186  11.618   3.010  13.765
36118SOL    HW110187  11.713   3.009  13.781
36118SOL    HW210188  11.581   2.966  13.842
36119SOL     OW10189   9.646  13.208   4.649
36119SOL    HW110190   9.649  13.301   4.675
36119SOL    HW210191   9.553  13.189   4.643
36120SOL     OW10192  13.680  13.032   2.787
36120SOL    HW110193  13.728  13.019   2.868
36120SOL    HW210194  13.665  12.944   2.753
36121SOL     OW10195   1.704   9.502  12.863
36121SOL    HW110196   1.632   9.451  12.899
36121SOL    HW210197   1.671   9.591  12.858
36122SOL     OW10198   7.030   0.641   3.237
36122SOL    HW110199   7.073   0.672   3.158
36122SOL    HW210200   7.039   0.713   3.299
36123SOL     OW10201   6.260   2.938   1.225
36123SOL    HW110202   6.346   2.961   1.260
36123SOL    HW210203   6.275   2.857   1.175
36124SOL     OW10204   0.585  11.633   6.790
36124SOL    HW110205   0.670  11.654   6.751
36124SOL    HW210206   0.551  11.717   6.820
36125SOL     OW10207   9.335   6.105   3.399
36125SOL    HW110208   9.350   6.019   3.439
36125SOL    HW210209   9.413   6.121   3.347
36126SOL     OW10210  13.697   6.401   7.555
36126SOL    HW110211  13.779   6.435   7.520
36126SOL    HW210212  13.680   6.322   7.503
36127SOL     OW10213   1.210   6.528   5.790
36127SOL    HW110214   1.177   6.558   5.705
36127SOL    HW210215   1.282   6.470   5.768
36128SOL     OW10216   2.194   2.096   2.789
36128SOL    HW110217   2.256   2.168   2.786
36128SOL    HW210218   2.250   2.017   2.793
36129SOL     OW10219  10.556   5.411   7.880
36129SOL    HW110220  10.474   5.402   7.833
36129SOL    HW210221  10.614   5.347   7.839
36130SOL     OW10222   5.308   1.659   0.032
36130SOL    HW110223   5.248   1.677   0.105
36130SOL    HW210224   5.378   1.724   0.042
36131SOL     OW10225   1.737  12.867   1.962
36131SOL    HW110226   1.747  12.792   2.021
36131SOL    HW210227   1.665  12.918   2.000
36132SOL     OW10228  11.762   3.534   2.620
36132SOL    HW110229  11.788   3.583   2.542
36132SOL    HW210230  11.686   3.581   2.653
36133SOL     OW10231  10.470   3.635   7.997
36133SOL    HW110232  10.454   3.546   8.030
36133SOL    HW210233  10.524   3.676   8.065
36134SOL     OW10234   7.583   6.012  11.436
36134SOL    HW110235   7.594   5.993  11.529
36134SOL    HW210236   7.525   5.944  11.404
36135SOL     OW10237   9.391   1.325   4.063
36135SOL    HW110238   9.400   1.411   4.105
36135SOL    HW210239   9.471   1.278   4.086
36136SOL     OW10240  12.028   9.340   5.819
36136SOL    HW110241  12.040   9.283   5.895
36136SOL    HW210242  12.048   9.284   5.744
36137SOL     OW10243   4.216   2.889   0.590
36137SOL    HW110244   4.254   2.802   0.577
36137SOL    HW210245   4.170   2.882   0.674
36138SOL     OW10246  11.802  13.211   7.645
36138SOL    HW110247  11.841  13.222   7.559
36138SOL    HW210248  11.809  13.118   7.664
36139SOL     OW10249   7.359   9.403  14.003
36139SOL    HW110250   7.357   9.358  14.088
36139SOL    HW210251   7.300   9.477  14.015
36140SOL     OW10252   3.426   6.682   2.771
36140SOL    HW110253   3.488   6.629   2.721
36140SOL    HW210254   3.343   6.675   2.723
36141SOL     OW10255   1.117  14.260  13.872
36141SOL    HW110256   1.046  14.201  13.898
36141SOL    HW210257   1.073  14.328  13.820
36142SOL     OW10258   5.750  12.306   5.341
36142SOL    HW110259   5.712  12.367   5.403
36142SOL    HW210260   5.840  12.337   5.327
36143SOL     OW10261   9.989   7.805  11.724
36143SOL    HW110262  10.028   7.886  11.691
36143SOL    HW210263   9.976   7.822  11.817
36144SOL     OW10264   6.336   2.718   0.887
36144SOL    HW110265   6.311   2.685   0.974
36144SOL    HW210266   6.334   2.640   0.831
36145SOL     OW10267  11.771  10.206   0.739
36145SOL    HW110268  11.679  10.181   0.739
36145SOL    HW210269  11.795  10.213   0.646
36146SOL     OW10270  13.630   3.801  13.357
36146SOL    HW110271  13.694   3.784  13.426
36146SOL    HW210272  13.571   3.726  13.359
36147SOL     OW10273  11.331  11.037  14.544
36147SOL    HW110274  11.272  11.111  14.532
36147SOL    HW210275  11.399  11.049  14.477
36148SOL     OW10276   4.303   7.113  10.353
36148SOL    HW110277   4.306   7.178  10.283
36148SOL    HW210278   4.390   7.117  10.393
36149SOL     OW10279   8.719   0.294   0.079
36149SOL    HW110280   8.800   0.345   0.085
36149SOL    HW210281   8.750   0.204   0.068
36150SOL     OW10282  10.931   4.262  14.752
36150SOL    HW110283  10.932   4.175  14.792
36150SOL    HW210284  10.872   4.314  14.807
36151SOL     OW10285  13.674   2.713   0.311
36151SOL    HW110286  13.721   2.795   0.297
36151SOL    HW210287  13.726   2.667   0.377
36152SOL     OW10288  11.886   0.791   3.608
36152SOL    HW110289  11.949   0.721   3.623
36152SOL    HW210290  11.801   0.751   3.628
36153SOL     OW10291  14.532  13.263   5.303
36153SOL    HW110292  14.470  13.334   5.292
36153SOL    HW210293  14.506  13.221   5.385
36154SOL     OW10294   1.952   2.524  14.751
36154SOL    HW110295   1.968   2.430  14.755
36154SOL    HW210296   1.953   2.544  14.657
36155SOL     OW10297   9.763   8.802  10.933
36155SOL    HW110298   9.841   8.817  10.879
36155SOL    HW210299   9.748   8.886  10.976
36156SOL     OW10300  11.032   4.115  11.643
36156SOL    HW110301  10.984   4.196  11.620
36156SOL    HW210302  10.969   4.045  11.626
36157SOL     OW10303   6.479   2.172   9.066
36157SOL    HW110304   6.564   2.193   9.105
36157SOL    HW210305   6.415   2.202   9.130
36158SOL     OW10306  13.973   4.606  11.725
36158SOL    HW110307  14.047   4.598  11.786
36158SOL    HW210308  13.908   4.657  11.773
36159SOL     OW10309   6.958   3.476   0.911
36159SOL    HW110310   6.994   3.513   0.991
36159SOL    HW210311   6.916   3.550   0.867
36160SOL     OW10312   0.466   5.399   2.663
36160SOL    HW110313   0.463   5.308   2.631
36160SOL    HW210314   0.553   5.430   2.640
36161SOL     OW10315   4.952   7.378   6.832
36161SOL    HW110316   4.888   7.433   6.788
36161SOL    HW210317   5.004   7.340   6.761
36162SOL     OW10318   9.068   4.046  10.109
36162SOL    HW110319   9.087   3.975  10.170
36162SOL    HW210320   9.120   4.120  10.141
36163SOL     OW10321   3.308  14.564  11.683
36163SOL    HW110322   3.292  14.531  11.771
36163SOL    HW210323   3.267  14.499  11.626
36164SOL     OW10324  11.178   7.999   5.731
36164SOL    HW110325  11.269   8.005   5.762
36164SOL    HW210326  11.132   8.066   5.781
36165SOL     OW10327   7.501   4.919  12.105
36165SOL    HW110328   7.492   5.014  12.117
36165SOL    HW210329   7.591   4.907  12.076
36166SOL     OW10330  13.973   5.219   1.417
36166SOL    HW110331  13.935   5.275   1.484
36166SOL    HW210332  14.019   5.279   1.358
36167SOL     OW10333   6.134   2.639   0.515
36167SOL    HW110334   6.039   2.640   0.505
36167SOL    HW210335   6.168   2.648   0.426
36168SOL     OW10336  13.046   0.878   3.748
36168SOL    HW110337  13.018   0.961   3.785
36168SOL    HW210338  13.076   0.826   3.822
36169SOL     OW10339   0.169   0.328   7.819
36169SOL    HW110340   0.220   0.406   7.842
36169SOL    HW210341   0.082   0.345   7.855
36170SOL     OW10342   4.013   9.553   0.497
36170SOL    HW110343   3.971   9.493   0.559
36170SOL    HW210344   4.045   9.495   0.427
36171SOL     OW10345   0.433  13.544   1.204
36171SOL    HW110346   0.410  13.614   1.265
36171SOL    HW210347   0.496  13.584   1.145
36172SOL     OW10348  12.480  13.435  12.230
36172SOL    HW110349  12.483  13.520  12.187
36172SOL    HW210350  12.473  13.371  12.159
36173SOL     OW10351   3.452   5.008  11.608
36173SOL    HW110352   3.374   4.965  11.645
36173SOL    HW210353   3.428   5.027  11.517
36174SOL     OW10354  10.417   5.248   4.618
36174SOL    HW110355  10.412   5.217   4.708
36174SOL    HW210356  10.330   5.233   4.582
36175SOL     OW10357   0.312   2.346   2.768
36175SOL    HW110358   0.378   2.381   2.828
36175SOL    HW210359   0.229   2.363   2.811
36176SOL     OW10360  12.399  14.614   1.840
36176SOL    HW110361  12.436  14.544   1.893
36176SOL    HW210362  12.307  14.619   1.867
36177SOL     OW10363   3.516   9.853   7.163
36177SOL    HW110364   3.471   9.890   7.239
36177SOL    HW210365   3.469   9.772   7.144
36178SOL     OW10366   1.601  11.488   3.485
36178SOL    HW110367   1.563  11.513   3.400
36178SOL    HW210368   1.695  11.506   3.475
36179SOL     OW10369  13.134  10.737   9.389
36179SOL    HW110370  13.100  10.678   9.322
36179SOL    HW210371  13.145  10.682   9.467
36180SOL     OW10372   8.105   7.183   0.047
36180SOL    HW110373   8.116   7.205   0.139
36180SOL    HW210374   8.177   7.227   0.003
36181SOL     OW10375   8.077   7.245   8.954
36181SOL    HW110376   8.171   7.230   8.950
36181SOL    HW210377   8.066   7.322   9.010
36182SOL     OW10378  12.073   2.571   4.336
36182SOL    HW110379  12.069   2.511   4.262
36182SOL    HW210380  11.998   2.546   4.390
36183SOL     OW10381   2.608   7.938   0.335
36183SOL    HW110382   2.530   7.893   0.366
36183SOL    HW210383   2.623   8.007   0.400
36184SOL     OW10384  14.389  11.200   7.253
36184SOL    HW110385  14.392  11.194   7.157
36184SOL    HW210386  14.315  11.257   7.271
36185SOL     OW10387   7.227  13.736   4.727
36185SOL    HW110388   7.233  13.787   4.808
36185SOL    HW210389   7.266  13.793   4.660
36186SOL     OW10390  10.172   4.918  14.745
36186SOL    HW110391  10.105   4.849  14.743
36186SOL    HW210392  10.208   4.920  14.656
36187SOL     OW10393   7.208   5.801   9.873
36187SOL    HW110394   7.263   5.858   9.926
36187SOL    HW210395   7.221   5.831   9.784
36188SOL     OW10396   6.388   2.249  14.156
36188SOL    HW110397   6.396   2.158  14.130
36188SOL    HW210398   6.295   2.260  14.175
36189SOL     OW10399   7.763   0.332  14.477
36189SOL    HW110400   7.718   0.253  14.447
36189SOL    HW210401   7.855   0.305  14.487
36190SOL     OW10402   3.690   9.420   9.538
36190SOL    HW110403   3.769   9.398   9.488
36190SOL    HW210404   3.628   9.350   9.519
36191SOL     OW10405   4.263  10.611  11.646
36191SOL    HW110406   4.269  10.559  11.566
36191SOL    HW210407   4.173  10.600  11.675
36192SOL     OW10408   4.210   8.815   1.867
36192SOL    HW110409   4.174   8.740   1.820
36192SOL    HW210410   4.138   8.878   1.872
36193SOL     OW10411  10.029   4.470   2.024
36193SOL    HW110412  10.079   4.550   2.039
36193SOL    HW210413   9.996   4.479   1.934
36194SOL     OW10414   1.853   6.696   2.134
36194SOL    HW110415   1.783   6.673   2.195
36194SOL    HW210416   1.808   6.734   2.059
36195SOL     OW10417   1.086   7.301   7.543
36195SOL    HW110418   1.033   7.235   7.588
36195SOL    HW210419   1.034   7.325   7.466
36196SOL     OW10420   3.807   7.100   7.730
36196SOL    HW110421   3.821   7.170   7.795
36196SOL    HW210422   3.884   7.104   7.674
36197SOL     OW10423   2.422   1.237   8.672
36197SOL    HW110424   2.493   1.217   8.734
36197SOL    HW210425   2.366   1.160   8.675
36198SOL     OW10426   9.309   8.819  13.615
36198SOL    HW110427   9.237   8.756  13.609
36198SOL    HW210428   9.268   8.904  13.603
36199SOL     OW10429   9.850  10.916  12.544
36199SOL    HW110430   9.906  10.839  12.554
36199SOL    HW210431   9.798  10.898  12.466
36200SOL     OW10432  14.418   8.914  13.451
36200SOL    HW110433  14.507   8.895  13.421
36200SOL    HW210434  14.415   8.877  13.540
36201SOL     OW10435   2.340   7.130   5.057
36201SOL    HW110436   2.409   7.093   5.112
36201SOL    HW210437   2.259   7.092   5.092
36202SOL     OW10438   0.111  13.578   6.703
36202SOL    HW110439   0.035  13.566   6.646
36202SOL    HW210440   0.074  13.588   6.790
36203SOL     OW10441   2.303   4.193   7.660
36203SOL    HW110442   2.227   4.157   7.614
36203SOL    HW210443   2.342   4.117   7.705
36204SOL     OW10444   8.233   6.667   9.802
36204SOL    HW110445   8.166   6.623   9.854
36204SOL    HW210446   8.229   6.624   9.716
36205SOL     OW10447   8.817  12.797   6.521
36205SOL    HW110448   8.900  12.777   6.478
36205SOL    HW210449   8.840  12.864   6.587
36206SOL     OW10450   4.747   8.408  11.115
36206SOL    HW110451   4.754   8.325  11.067
36206SOL    HW210452   4.755   8.475  11.047
36207SOL     OW10453   0.908  14.779  13.682
36207SOL    HW110454   0.943  14.700  13.640
36207SOL    HW210455   0.818  14.786  13.649
36208SOL     OW10456  11.703  13.495   0.440
36208SOL    HW110457  11.620  13.500   0.393
36208SOL    HW210458  11.746  13.416   0.406
36209SOL     OW10459   7.160   1.204   7.776
36209SOL    HW110460   7.107   1.276   7.811
36209SOL    HW210461   7.249   1.240   7.770
36210SOL     OW10462   7.818   2.607  11.542
36210SOL    HW110463   7.902   2.593  11.587
36210SOL    HW210464   7.842   2.619  11.450
36211SOL     OW10465   8.962   4.726   8.844
36211SOL    HW110466   8.895   4.755   8.783
36211SOL    HW210467   8.943   4.633   8.859
36212SOL     OW10468  14.415   1.736  12.564
36212SOL    HW110469  14.322   1.755  12.577
36212SOL    HW210470  14.434   1.667  12.627
36213SOL     OW10471   6.134  14.310  11.903
36213SOL    HW110472   6.113  14.221  11.875
36213SOL    HW210473   6.053  14.343  11.942
36214SOL     OW10474   2.526   4.082   1.538
36214SOL    HW110475   2.519   4.025   1.615
36214SOL    HW210476   2.569   4.161   1.570
36215SOL     OW10477  14.325  10.995  10.722
36215SOL    HW110478  14.407  10.960  10.759
36215SOL    HW210479  14.354  11.065  10.664
36216SOL     OW10480  10.300   5.805  10.863
36216SOL    HW110481  10.313   5.772  10.953
36216SOL    HW210482  10.309   5.900  10.871
36217SOL     OW10483   6.091  13.960   2.497
36217SOL    HW110484   6.051  13.897   2.435
36217SOL    HW210485   6.044  14.042   2.481
36218SOL     OW10486   4.232  14.430  10.120
36218SOL    HW110487   4.190  14.448  10.036
36218SOL    HW210488   4.258  14.517  10.153
36219SOL     OW10489  14.010   8.217   7.353
36219SOL    HW110490  14.013   8.151   7.421
36219SOL    HW210491  14.063   8.181   7.282
36220SOL     OW10492  12.341  11.967  14.780
36220SOL    HW110493  12.260  11.939  14.737
36220SOL    HW210494  12.403  11.896  14.763
36221SOL     OW10495  10.885   5.872  10.224
36221SOL    HW110496  10.791   5.868  10.210
36221SOL    HW210497  10.896   5.861  10.318
36222SOL     OW10498   9.890  11.481   8.977
36222SOL    HW110499   9.944  11.543   9.026
36222SOL    HW210500   9.945  11.403   8.967
36223SOL     OW10501  11.794   2.648   4.339
36223SOL    HW110502  11.732   2.701   4.391
36223SOL    HW210503  11.744   2.570   4.315
36224SOL     OW10504  10.464   9.037  10.660
36224SOL    HW110505  10.498   8.954  10.694
36224SOL    HW210506  10.484   9.036  10.567
36225SOL     OW10507  11.983  10.359   9.546
36225SOL    HW110508  11.919  10.430   9.552
36225SOL    HW210509  12.065  10.403   9.521
36226SOL     OW10510   5.829  11.605  11.725
36226SOL    HW110511   5.909  11.657  11.718
36226SOL    HW210512   5.802  11.589  11.634
36227SOL     OW10513   7.525  12.412   4.152
36227SOL    HW110514   7.539  12.329   4.196
36227SOL    HW210515   7.551  12.478   4.216
36228SOL     OW10516   1.415   1.799   4.664
36228SOL    HW110517   1.391   1.864   4.598
36228SOL    HW210518   1.397   1.715   4.623
36229SOL     OW10519   4.078  14.040  10.421
36229SOL    HW110520   4.059  14.115  10.364
36229SOL    HW210521   4.133  14.076  10.491
36230SOL     OW10522   4.790   6.547   4.994
36230SOL    HW110523   4.879   6.533   4.960
36230SOL    HW210524   4.796   6.523   5.086
36231SOL     OW10525   1.283  14.666   4.970
36231SOL    HW110526   1.353  14.698   5.026
36231SOL    HW210527   1.282  14.726   4.896
36232SOL     OW10528   6.365   8.828   4.534
36232SOL    HW110529   6.423   8.856   4.463
36232SOL    HW210530   6.310   8.760   4.494
36233SOL     OW10531  12.066  14.215  10.293
36233SOL    HW110532  12.076  14.190  10.202
36233SOL    HW210533  12.149  14.257  10.316
36234SOL     OW10534  10.448   9.925  10.798
36234SOL    HW110535  10.361   9.949  10.831
36234SOL    HW210536  10.498   9.904  10.876
36235SOL     OW10537  11.554  13.505   8.485
36235SOL    HW110538  11.467  13.510   8.444
36235SOL    HW210539  11.593  13.590   8.466
36236SOL     OW10540  11.652   2.778   5.081
36236SOL    HW110541  11.660   2.872   5.072
36236SOL    HW210542  11.671   2.761   5.174
36237SOL     OW10543   0.499   3.116   2.104
36237SOL    HW110544   0.511   3.082   2.015
36237SOL    HW210545   0.515   3.041   2.161
36238SOL     OW10546  10.526   7.309   4.440
36238SOL    HW110547  10.604   7.284   4.390
36238SOL    HW210548  10.459   7.323   4.372
36239SOL     OW10549   9.083  12.577   0.060
36239SOL    HW110550   9.171  12.545   0.040
36239SOL    HW210551   9.053  12.619  14.852
36240SOL     OW10552  14.443   7.128  12.022
36240SOL    HW110553  14.434   7.094  11.933
36240SOL    HW210554  14.390   7.207  12.022
36241SOL     OW10555   8.766   4.500   7.924
36241SOL    HW110556   8.734   4.571   7.869
36241SOL    HW210557   8.828   4.543   7.984
36242SOL     OW10558   4.733  10.744   6.518
36242SOL    HW110559   4.723  10.752   6.612
36242SOL    HW210560   4.821  10.708   6.506
36243SOL     OW10561   7.078   4.790  12.948
36243SOL    HW110562   7.171   4.789  12.972
36243SOL    HW210563   7.046   4.702  12.970
36244SOL     OW10564   5.332  11.525   9.217
36244SOL    HW110565   5.309  11.614   9.190
36244SOL    HW210566   5.374  11.487   9.140
36245SOL     OW10567   9.757   4.786   3.737
36245SOL    HW110568   9.796   4.845   3.674
36245SOL    HW210569   9.800   4.702   3.722
36246SOL     OW10570   1.800  14.726   3.965
36246SOL    HW110571   1.861  14.751   4.034
36246SOL    HW210572   1.720  14.774   3.985
36247SOL     OW10573  11.426   1.115   6.258
36247SOL    HW110574  11.338   1.091   6.230
36247SOL    HW210575  11.433   1.082   6.348
36248SOL     OW10576   0.428  10.579  14.573
36248SOL    HW110577   0.388  10.661  14.603
36248SOL    HW210578   0.407  10.516  14.641
36249SOL     OW10579   1.007   4.423  14.332
36249SOL    HW110580   1.056   4.449  14.410
36249SOL    HW210581   0.927   4.476  14.336
36250SOL     OW10582   7.836   5.330   6.307
36250SOL    HW110583   7.787   5.346   6.388
36250SOL    HW210584   7.793   5.385   6.242
36251SOL     OW10585   8.183   6.060  14.437
36251SOL    HW110586   8.211   6.149  14.459
36251SOL    HW210587   8.105   6.046  14.490
36252SOL     OW10588   8.256  11.172   9.696
36252SOL    HW110589   8.263  11.086   9.655
36252SOL    HW210590   8.170  11.204   9.669
36253SOL     OW10591   2.935   9.503  12.938
36253SOL    HW110592   2.979   9.459  12.866
36253SOL    HW210593   2.922   9.435  13.004
36254SOL     OW10594  14.588  10.074   2.034
36254SOL    HW110595  14.669  10.114   2.004
36254SOL    HW210596  14.611   9.984   2.053
36255SOL     OW10597   2.696  14.409  11.141
36255SOL    HW110598   2.646  14.480  11.100
36255SOL    HW210599   2.697  14.339  11.076
36256SOL     OW10600  13.690   1.006   0.347
36256SOL    HW110601  13.742   1.004   0.427
36256SOL    HW210602  13.673   0.913   0.328
36257SOL     OW10603  13.000  10.388   1.611
36257SOL    HW110604  13.045  10.321   1.663
36257SOL    HW210605  12.988  10.349   1.525
36258SOL     OW10606  12.532   2.906   0.284
36258SOL    HW110607  12.595   2.978   0.277
36258SOL    HW210608  12.587   2.827   0.286
36259SOL     OW10609  14.128   0.370   7.212
36259SOL    HW110610  14.034   0.355   7.205
36259SOL    HW210611  14.167   0.301   7.158
36260SOL     OW10612  14.867   4.247  14.779
36260SOL    HW110613   0.079   4.251  14.735
36260SOL    HW210614   0.006   4.181  14.847
36261SOL     OW10615   2.918  14.063   3.638
36261SOL    HW110616   2.972  14.108   3.702
36261SOL    HW210617   2.954  13.975   3.634
36262SOL     OW10618   9.695   7.058   8.146
36262SOL    HW110619   9.644   6.992   8.193
36262SOL    HW210620   9.761   7.087   8.209
36263SOL     OW10621   3.970   7.084  11.828
36263SOL    HW110622   3.961   7.177  11.807
36263SOL    HW210623   3.901   7.068  11.893
36264SOL     OW10624   6.213   3.622  11.650
36264SOL    HW110625   6.236   3.668  11.569
36264SOL    HW210626   6.224   3.687  11.719
36265SOL     OW10627   0.220   1.790   8.509
36265SOL    HW110628   0.281   1.745   8.566
36265SOL    HW210629   0.186   1.862   8.562
36266SOL     OW10630   2.438  11.730   5.209
36266SOL    HW110631   2.464  11.638   5.212
36266SOL    HW210632   2.424  11.754   5.300
36267SOL     OW10633   4.537   4.898   3.047
36267SOL    HW110634   4.613   4.951   3.071
36267SOL    HW210635   4.555   4.871   2.956
36268SOL     OW10636   2.906  14.575   0.812
36268SOL    HW110637   2.824  14.547   0.773
36268SOL    HW210638   2.893  14.667   0.833
36269SOL     OW10639  13.117  11.701  12.917
36269SOL    HW110640  13.043  11.708  12.978
36269SOL    HW210641  13.131  11.791  12.887
36270SOL     OW10642   4.385  10.635   4.436
36270SOL    HW110643   4.414  10.687   4.511
36270SOL    HW210644   4.448  10.564   4.429
36271SOL     OW10645   3.890   7.047  10.712
36271SOL    HW110646   3.841   6.975  10.671
36271SOL    HW210647   3.946   7.004  10.777
36272SOL     OW10648  13.872   2.742   8.995
36272SOL    HW110649  13.880   2.802   9.069
36272SOL    HW210650  13.962   2.726   8.967
36273SOL     OW10651  13.364   8.589  10.061
36273SOL    HW110652  13.356   8.510  10.006
36273SOL    HW210653  13.278   8.598  10.102
36274SOL     OW10654   2.688   4.723   6.470
36274SOL    HW110655   2.757   4.788   6.481
36274SOL    HW210656   2.725   4.657   6.411
36275SOL     OW10657   4.272   3.641   1.481
36275SOL    HW110658   4.324   3.702   1.428
36275SOL    HW210659   4.311   3.556   1.464
36276SOL     OW10660  10.151   7.227   9.958
36276SOL    HW110661  10.202   7.255   9.882
36276SOL    HW210662  10.071   7.279   9.953
36277SOL     OW10663  13.800  10.344  13.684
36277SOL    HW110664  13.752  10.289  13.746
36277SOL    HW210665  13.890  10.342  13.715
36278SOL     OW10666  14.176  14.675   0.545
36278SOL    HW110667  14.143  14.647   0.631
36278SOL    HW210668  14.270  14.690   0.560
36279SOL     OW10669  10.852   6.927   5.825
36279SOL    HW110670  10.922   6.918   5.889
36279SOL    HW210671  10.860   6.850   5.769
36280SOL     OW10672   1.394   3.946  13.775
36280SOL    HW110673   1.489   3.934  13.768
36280SOL    HW210674   1.379   3.967  13.867
36281SOL     OW10675   9.630   7.361   9.564
36281SOL    HW110676   9.571   7.287   9.551
36281SOL    HW210677   9.638   7.400   9.476
36282SOL     OW10678   5.801   7.382   9.698
36282SOL    HW110679   5.773   7.457   9.644
36282SOL    HW210680   5.832   7.318   9.635
36283SOL     OW10681  13.527   4.112  11.510
36283SOL    HW110682  13.521   4.021  11.540
36283SOL    HW210683  13.446   4.126  11.461
36284SOL     OW10684  12.375  10.845   9.402
36284SOL    HW110685  12.447  10.888   9.355
36284SOL    HW210686  12.321  10.807   9.333
36285SOL     OW10687  11.740   1.078   8.033
36285SOL    HW110688  11.688   0.999   8.045
36285SOL    HW210689  11.703   1.120   7.956
36286SOL     OW10690  10.379   1.451  14.675
36286SOL    HW110691  10.392   1.441  14.581
36286SOL    HW210692  10.430   1.380  14.714
36287SOL     OW10693  14.733   0.557   6.439
36287SOL    HW110694  14.755   0.561   6.345
36287SOL    HW210695  14.730   0.649   6.466
36288SOL     OW10696  11.521   2.087  13.169
36288SOL    HW110697  11.558   2.074  13.257
36288SOL    HW210698  11.588   2.053  13.110
36289SOL     OW10699  13.176   5.634  14.173
36289SOL    HW110700  13.096   5.602  14.214
36289SOL    HW210701  13.215   5.556  14.134
36290SOL     OW10702   0.641   5.576  13.583
36290SOL    HW110703   0.586   5.615  13.651
36290SOL    HW210704   0.615   5.621  13.503
36291SOL     OW10705   7.577   9.262   2.469
36291SOL    HW110706   7.582   9.273   2.564
36291SOL    HW210707   7.484   9.276   2.449
36292SOL     OW10708  10.559  11.067   9.247
36292SOL    HW110709  10.540  11.014   9.170
36292SOL    HW210710  10.603  11.006   9.307
36293SOL     OW10711   6.239   9.340  13.314
36293SOL    HW110712   6.184   9.412  13.284
36293SOL    HW210713   6.325   9.357  13.276
36294SOL     OW10714   0.271   3.897   3.607
36294SOL    HW110715   0.253   3.983   3.568
36294SOL    HW210716   0.342   3.861   3.554
36295SOL     OW10717   6.438   0.979   5.318
36295SOL    HW110718   6.391   0.978   5.234
36295SOL    HW210719   6.450   1.072   5.338
36296SOL     OW10720  13.042   1.589   5.624
36296SOL    HW110721  13.115   1.596   5.686
36296SOL    HW210722  13.034   1.495   5.607
36297SOL     OW10723  13.667  12.018  10.431
36297SOL    HW110724  13.730  12.064  10.377
36297SOL    HW210725  13.718  11.984  10.505
36298SOL     OW10726   5.491   9.326   8.431
36298SOL    HW110727   5.565   9.343   8.489
36298SOL    HW210728   5.429   9.397   8.450
36299SOL     OW10729   6.004   0.609  12.871
36299SOL    HW110730   6.096   0.632  12.861
36299SOL    HW210731   5.979   0.572  12.786
36300SOL     OW10732   8.132   7.823  14.772
36300SOL    HW110733   8.135   7.786  14.861
36300SOL    HW210734   8.126   7.746  14.715
36301SOL     OW10735   8.494   7.772  11.214
36301SOL    HW110736   8.569   7.828  11.193
36301SOL    HW210737   8.474   7.727  11.132
36302SOL     OW10738   4.324   8.342   5.332
36302SOL    HW110739   4.367   8.323   5.415
36302SOL    HW210740   4.245   8.288   5.333
36303SOL     OW10741   3.354   5.825   3.103
36303SOL    HW110742   3.322   5.877   3.028
36303SOL    HW210743   3.316   5.868   3.179
36304SOL     OW10744   5.330  10.825  10.391
36304SOL    HW110745   5.350  10.731  10.392
36304SOL    HW210746   5.390  10.862  10.327
36305SOL     OW10747   7.458   5.437  14.358
36305SOL    HW110748   7.456   5.452  14.452
36305SOL    HW210749   7.546   5.405  14.340
36306SOL     OW10750   5.837   6.565   7.452
36306SOL    HW110751   5.886   6.612   7.519
36306SOL    HW210752   5.773   6.512   7.501
36307SOL     OW10753  10.216  10.970   7.613
36307SOL    HW110754  10.196  10.954   7.705
36307SOL    HW210755  10.133  11.000   7.575
36308SOL     OW10756   6.557   3.080   4.177
36308SOL    HW110757   6.623   3.149   4.183
36308SOL    HW210758   6.523   3.071   4.266
36309SOL     OW10759   8.480   7.527   2.321
36309SOL    HW110760   8.531   7.597   2.362
36309SOL    HW210761   8.515   7.520   2.233
36310SOL     OW10762  12.398  14.530   1.287
36310SOL    HW110763  12.436  14.475   1.356
36310SOL    HW210764  12.309  14.498   1.277
36311SOL     OW10765   7.670   9.231  10.771
36311SOL    HW110766   7.755   9.225  10.727
36311SOL    HW210767   7.608   9.198  10.706
36312SOL     OW10768  11.243   1.413   9.108
36312SOL    HW110769  11.194   1.422   9.190
36312SOL    HW210770  11.231   1.321   9.083
36313SOL     OW10771  11.364  14.408   7.880
36313SOL    HW110772  11.386  14.315   7.884
36313SOL    HW210773  11.328  14.420   7.792
36314SOL     OW10774   7.979  12.608   7.562
36314SOL    HW110775   7.947  12.522   7.588
36314SOL    HW210776   7.975  12.660   7.642
36315SOL     OW10777  12.192   6.718   4.285
36315SOL    HW110778  12.186   6.814   4.282
36315SOL    HW210779  12.212   6.693   4.194
36316SOL     OW10780  12.002   2.083   5.331
36316SOL    HW110781  12.009   2.023   5.406
36316SOL    HW210782  12.035   2.166   5.364
36317SOL     OW10783   8.939   7.436   4.029
36317SOL    HW110784   8.963   7.434   3.936
36317SOL    HW210785   8.938   7.529   4.051
36318SOL     OW10786   1.979  14.812  12.049
36318SOL    HW110787   1.936   0.020  12.076
36318SOL    HW210788   2.011  14.773  12.130
36319SOL     OW10789   6.115   2.860  10.899
36319SOL    HW110790   6.022   2.869  10.920
36319SOL    HW210791   6.158   2.846  10.984
36320SOL     OW10792  12.822  10.048   9.616
36320SOL    HW110793  12.784  10.135   9.600
36320SOL    HW210794  12.787   9.994   9.544
36321SOL     OW10795   6.674  11.280   6.405
36321SOL    HW110796   6.714  11.214   6.463
36321SOL    HW210797   6.593  11.240   6.375
36322SOL     OW10798  13.144   8.709   2.362
36322SOL    HW110799  13.064   8.761   2.348
36322SOL    HW210800  13.176   8.737   2.448
36323SOL     OW10801  13.166  12.273   8.842
36323SOL    HW110802  13.157  12.313   8.755
36323SOL    HW210803  13.257  12.291   8.866
36324SOL     OW10804   5.940  12.340   5.075
36324SOL    HW110805   6.032  12.366   5.070
36324SOL    HW210806   5.939  12.247   5.052
36325SOL     OW10807   9.817   7.529  10.944
36325SOL    HW110808   9.872   7.456  10.973
36325SOL    HW210809   9.749   7.487  10.891
36326SOL     OW10810  13.219   3.011   0.869
36326SOL    HW110811  13.165   3.004   0.948
36326SOL    HW210812  13.289   3.072   0.893
36327SOL     OW10813   5.452   4.472  11.051
36327SOL    HW110814   5.379   4.515  11.095
36327SOL    HW210815   5.493   4.542  11.000
36328SOL     OW10816   3.852   8.644  10.192
36328SOL    HW110817   3.883   8.724  10.149
36328SOL    HW210818   3.859   8.576  10.125
36329SOL     OW10819   8.563   1.080   5.122
36329SOL    HW110820   8.503   1.059   5.051
36329SOL    HW210821   8.579   1.174   5.113
36330SOL     OW10822   7.477   0.710  10.688
36330SOL    HW110823   7.508   0.667  10.609
36330SOL    HW210824   7.542   0.687  10.755
36331SOL     OW10825  13.185  14.233  13.258
36331SOL    HW110826  13.172  14.325  13.235
36331SOL    HW210827  13.215  14.236  13.349
36332SOL     OW10828   2.935   4.392   3.669
36332SOL    HW110829   2.903   4.358   3.586
36332SOL    HW210830   3.011   4.445   3.646
36333SOL     OW10831  12.329   6.742   2.840
36333SOL    HW110832  12.246   6.698   2.821
36333SOL    HW210833  12.396   6.682   2.807
36334SOL     OW10834   9.464   7.857   3.281
36334SOL    HW110835   9.553   7.823   3.271
36334SOL    HW210836   9.457   7.877   3.375
36335SOL     OW10837   5.257   9.628  11.074
36335SOL    HW110838   5.174   9.663  11.108
36335SOL    HW210839   5.240   9.611  10.982
36336SOL     OW10840   1.775   6.414   3.751
36336SOL    HW110841   1.779   6.436   3.657
36336SOL    HW210842   1.866   6.398   3.776
36337SOL     OW10843   1.003   1.934   8.437
36337SOL    HW110844   1.043   2.004   8.488
36337SOL    HW210845   0.930   1.976   8.391
36338SOL     OW10846   6.154   0.962  12.170
36338SOL    HW110847   6.167   1.022  12.097
36338SOL    HW210848   6.238   0.920  12.183
36339SOL     OW10849   6.720   4.090   1.514
36339SOL    HW110850   6.677   4.149   1.452
36339SOL    HW210851   6.770   4.030   1.459
36340SOL     OW10852   0.812   8.433  14.277
36340SOL    HW110853   0.802   8.400  14.367
36340SOL    HW210854   0.823   8.354  14.224
36341SOL     OW10855  13.031  14.326   9.383
36341SOL    HW110856  12.979  14.366   9.313
36341SOL    HW210857  13.047  14.236   9.353
36342SOL     OW10858   6.331   7.019   7.035
36342SOL    HW110859   6.332   6.946   6.973
36342SOL    HW210860   6.306   6.980   7.118
36343SOL     OW10861   0.511   9.681   6.110
36343SOL    HW110862   0.522   9.594   6.149
36343SOL    HW210863   0.594   9.696   6.064
36344SOL     OW10864  12.580   2.416  12.849
36344SOL    HW110865  12.675   2.407  12.856
36344SOL    HW210866  12.561   2.504  12.880
36345SOL     OW10867  14.805  10.294   2.562
36345SOL    HW110868  14.714  10.265   2.559
36345SOL    HW210869  14.820  10.332   2.475
36346SOL     OW10870   0.166   4.508   7.139
36346SOL    HW110871   0.252   4.471   7.161
36346SOL    HW210872   0.103   4.443   7.170
36347SOL     OW10873   8.648   9.128   8.874
36347SOL    HW110874   8.603   9.164   8.797
36347SOL    HW210875   8.730   9.093   8.839
36348SOL     OW10876   3.060  14.435   4.376
36348SOL    HW110877   2.999  14.396   4.439
36348SOL    HW210878   3.011  14.508   4.337
36349SOL     OW10879   1.506   0.050   8.980
36349SOL    HW110880   1.594   0.019   9.004
36349SOL    HW210881   1.449   0.014   9.047
36350SOL     OW10882   7.165   5.147  10.954
36350SOL    HW110883   7.133   5.058  10.963
36350SOL    HW210884   7.151   5.186  11.041
36351SOL     OW10885   4.351   3.271   9.624
36351SOL    HW110886   4.362   3.178   9.644
36351SOL    HW210887   4.429   3.313   9.660
36352SOL     OW10888  11.101   6.775  14.675
36352SOL    HW110889  11.133   6.692  14.711
36352SOL    HW210890  11.122   6.840  14.743
36353SOL     OW10891   3.661   2.883   0.560
36353SOL    HW110892   3.665   2.978   0.575
36353SOL    HW210893   3.605   2.850   0.630
36354SOL     OW10894  13.261  10.869   5.573
36354SOL    HW110895  13.220  10.788   5.545
36354SOL    HW210896  13.276  10.918   5.491
36355SOL     OW10897  12.540  14.793   2.367
36355SOL    HW110898  12.501  14.794   2.455
36355SOL    HW210899  12.484  14.851   2.316
36356SOL     OW10900   4.179  13.004  13.608
36356SOL    HW110901   4.124  12.945  13.558
36356SOL    HW210902   4.260  12.955  13.623
36357SOL     OW10903   6.413  11.273   0.335
36357SOL    HW110904   6.421  11.185   0.371
36357SOL    HW210905   6.433  11.331   0.409
36358SOL     OW10906   0.594  14.783  14.722
36358SOL    HW110907   0.645  14.713  14.763
36358SOL    HW210908   0.503  14.765  14.747
36359SOL     OW10909   5.149   3.353   1.660
36359SOL    HW110910   5.216   3.284   1.654
36359SOL    HW210911   5.193   3.432   1.632
36360SOL     OW10912  13.369  10.996   4.700
36360SOL    HW110913  13.456  11.009   4.737
36360SOL    HW210914  13.375  11.029   4.610
36361SOL     OW10915  11.232   6.221   5.967
36361SOL    HW110916  11.251   6.248   5.877
36361SOL    HW210917  11.136   6.218   5.971
36362SOL     OW10918  14.417  10.165  14.768
36362SOL    HW110919  14.413  10.126  14.855
36362SOL    HW210920  14.508  10.190  14.756
36363SOL     OW10921   0.579   3.116   7.320
36363SOL    HW110922   0.587   3.146   7.411
36363SOL    HW210923   0.635   3.038   7.316
36364SOL     OW10924   1.928   9.917   7.818
36364SOL    HW110925   1.907   9.959   7.901
36364SOL    HW210926   1.883   9.970   7.752
36365SOL     OW10927   5.763  11.886  10.460
36365SOL    HW110928   5.819  11.871  10.384
36365SOL    HW210929   5.683  11.836  10.441
36366SOL     OW10930  13.099   7.687  13.512
36366SOL    HW110931  13.132   7.700  13.424
36366SOL    HW210932  13.136   7.604  13.541
36367SOL     OW10933   7.481   9.381  12.947
36367SOL    HW110934   7.507   9.321  13.018
36367SOL    HW210935   7.395   9.350  12.921
36368SOL     OW10936  14.051  10.350   9.674
36368SOL    HW110937  14.061  10.278   9.737
36368SOL    HW210938  13.974  10.327   9.623
36369SOL     OW10939   4.836   9.457  11.824
36369SOL    HW110940   4.805   9.374  11.859
36369SOL    HW210941   4.758   9.498  11.787
36370SOL     OW10942   2.336   9.674   6.225
36370SOL    HW110943   2.338   9.625   6.307
36370SOL    HW210944   2.247   9.664   6.193
36371SOL     OW10945   3.922  11.222   0.333
36371SOL    HW110946   3.964  11.229   0.419
36371SOL    HW210947   3.839  11.269   0.343
36372SOL     OW10948   0.047   8.230  14.010
36372SOL    HW110949   0.019   8.298  14.072
36372SOL    HW210950   0.009   8.258  13.926
36373SOL     OW10951   9.325  14.773  14.019
36373SOL    HW110952   9.332  14.751  14.112
36373SOL    HW210953   9.230  14.779  14.004
36374SOL     OW10954   7.121   8.607   2.554
36374SOL    HW110955   7.035   8.565   2.550
36374SOL    HW210956   7.164   8.583   2.472
36375SOL     OW10957  10.253   4.806   9.435
36375SOL    HW110958  10.331   4.751   9.421
36375SOL    HW210959  10.287   4.883   9.482
36376SOL     OW10960  10.822   2.078   8.393
36376SOL    HW110961  10.888   2.021   8.354
36376SOL    HW210962  10.769   2.107   8.319
36377SOL     OW10963   2.350  10.002  10.143
36377SOL    HW110964   2.428  10.008  10.087
36377SOL    HW210965   2.330   9.908  10.145
36378SOL     OW10966   3.027   6.410   4.454
36378SOL    HW110967   3.003   6.376   4.368
36378SOL    HW210968   3.116   6.379   4.469
36379SOL     OW10969  13.806   9.190  14.487
36379SOL    HW110970  13.758   9.188  14.405
36379SOL    HW210971  13.864   9.266  14.479
36380SOL     OW10972  11.532   0.941  12.854
36380SOL    HW110973  11.539   0.930  12.949
36380SOL    HW210974  11.621   0.962  12.826
36381SOL     OW10975   7.331   6.749  10.186
36381SOL    HW110976   7.344   6.662  10.223
36381SOL    HW210977   7.355   6.809  10.257
36382SOL     OW10978   3.634  10.897   4.157
36382SOL    HW110979   3.554  10.908   4.106
36382SOL    HW210980   3.656  10.804   4.147
36383SOL     OW10981  13.843   0.383   5.836
36383SOL    HW110982  13.818   0.298   5.873
36383SOL    HW210983  13.847   0.367   5.741
36384SOL     OW10984   3.455   6.928  14.124
36384SOL    HW110985   3.428   6.971  14.206
36384SOL    HW210986   3.382   6.943  14.065
36385SOL     OW10987  12.491  11.590  11.090
36385SOL    HW110988  12.551  11.562  11.160
36385SOL    HW210989  12.542  11.580  11.010
36386SOL     OW10990   3.111   9.613  13.277
36386SOL    HW110991   3.020   9.640  13.287
36386SOL    HW210992   3.162   9.688  13.307
36387SOL     OW10993   6.614   4.824  14.130
36387SOL    HW110994   6.704   4.842  14.156
36387SOL    HW210995   6.577   4.774  14.203
36388SOL     OW10996  14.208  14.696   8.054
36388SOL    HW110997  14.299  14.667   8.056
36388SOL    HW210998  14.197  14.733   7.966
36389SOL     OW10999   5.682   1.011  10.487
36389SOL    HW111000   5.755   0.950  10.495
36389SOL    HW211001   5.673   1.049  10.574
36390SOL     OW11002  10.507   0.693  11.969
36390SOL    HW111003  10.429   0.641  11.986
36390SOL    HW211004  10.523   0.740  12.051
36391SOL     OW11005  11.682   6.639   1.373
36391SOL    HW111006  11.604   6.584   1.373
36391SOL    HW211007  11.725   6.619   1.456
36392SOL     OW11008   9.652   3.076   4.857
36392SOL    HW111009   9.705   3.050   4.782
36392SOL    HW211010   9.561   3.066   4.827
36393SOL     OW11011  11.106  14.853   3.703
36393SOL    HW111012  11.142   0.033   3.774
36393SOL    HW211013  11.058   0.042   3.648
36394SOL     OW11014   4.754   7.109  10.363
36394SOL    HW111015   4.822   7.052  10.327
36394SOL    HW211016   4.796   7.154  10.436
36395SOL     OW11017   4.776  13.462  14.373
36395SOL    HW111018   4.758  13.549  14.336
36395SOL    HW211019   4.705  13.407  14.341
36396SOL     OW11020   1.521   4.425   9.425
36396SOL    HW111021   1.601   4.457   9.467
36396SOL    HW211022   1.508   4.484   9.350
36397SOL     OW11023  11.849  12.333   0.811
36397SOL    HW111024  11.925  12.381   0.843
36397SOL    HW211025  11.873  12.308   0.721
36398SOL     OW11026  11.511   3.291   9.358
36398SOL    HW111027  11.417   3.305   9.357
36398SOL    HW211028  11.522   3.197   9.349
36399SOL     OW11029   3.371  12.068   1.785
36399SOL    HW111030   3.398  12.157   1.807
36399SOL    HW211031   3.276  12.068   1.800
36400SOL     OW11032  10.176  11.802   3.088
36400SOL    HW111033  10.158  11.708   3.096
36400SOL    HW211034  10.216  11.812   3.002
36401SOL     OW11035   5.296  11.143  14.549
36401SOL    HW111036   5.244  11.213  14.510
36401SOL    HW211037   5.331  11.182  14.630
36402SOL     OW11038   3.594   4.928   1.830
36402SOL    HW111039   3.582   5.016   1.792
36402SOL    HW211040   3.688   4.911   1.819
36403SOL     OW11041  13.797   3.662   1.786
36403SOL    HW111042  13.835   3.747   1.807
36403SOL    HW211043  13.781   3.621   1.871
36404SOL     OW11044  12.988  11.089  12.451
36404SOL    HW111045  13.027  11.174  12.433
36404SOL    HW211046  12.954  11.097  12.540
36405SOL     OW11047   1.372  12.978  13.124
36405SOL    HW111048   1.379  13.073  13.132
36405SOL    HW211049   1.415  12.958  13.041
36406SOL     OW11050   2.175   0.039   9.507
36406SOL    HW111051   2.262   0.051   9.546
36406SOL    HW211052   2.191   0.045   9.413
36407SOL     OW11053   9.896  11.271  12.510
36407SOL    HW111054   9.962  11.335  12.482
36407SOL    HW211055   9.867  11.230  12.429
36408SOL     OW11056  12.729  11.714   7.277
36408SOL    HW111057  12.672  11.739   7.204
36408SOL    HW211058  12.673  11.662   7.334
36409SOL     OW11059   6.999  14.371   1.804
36409SOL    HW111060   7.082  14.374   1.852
36409SOL    HW211061   6.964  14.459   1.814
36410SOL     OW11062  11.816  11.033   3.401
36410SOL    HW111063  11.811  11.115   3.450
36410SOL    HW211064  11.739  10.983   3.429
36411SOL     OW11065  14.644  14.287   9.693
36411SOL    HW111066  14.735  14.278   9.665
36411SOL    HW211067  14.632  14.382   9.705
36412SOL     OW11068  10.520   9.720   0.638
36412SOL    HW111069  10.612   9.698   0.624
36412SOL    HW211070  10.506   9.799   0.586
36413SOL     OW11071  14.028   0.059  12.511
36413SOL    HW111072  13.938   0.037  12.487
36413SOL    HW211073  14.040   0.020  12.598
36414SOL     OW11074   9.012   3.908  11.982
36414SOL    HW111075   8.975   3.861  12.057
36414SOL    HW211076   9.000   3.849  11.908
36415SOL     OW11077   9.962  14.346  10.824
36415SOL    HW111078   9.917  14.423  10.790
36415SOL    HW211079   9.935  14.340  10.916
36416SOL     OW11080   7.375   6.022  12.681
36416SOL    HW111081   7.351   5.962  12.752
36416SOL    HW211082   7.386   6.107  12.725
36417SOL     OW11083  10.211   1.320   3.640
36417SOL    HW111084  10.139   1.272   3.598
36417SOL    HW211085  10.189   1.317   3.733
36418SOL     OW11086  13.468  14.078   1.937
36418SOL    HW111087  13.395  14.098   1.879
36418SOL    HW211088  13.532  14.146   1.919
36419SOL     OW11089   4.013   0.097   9.028
36419SOL    HW111090   4.080   0.028   9.026
36419SOL    HW211091   4.009   0.130   8.939
36420SOL     OW11092   3.082   0.741  10.509
36420SOL    HW111093   3.031   0.716  10.433
36420SOL    HW211094   3.075   0.836  10.512
36421SOL     OW11095   3.719   6.615   0.559
36421SOL    HW111096   3.732   6.686   0.496
36421SOL    HW211097   3.685   6.659   0.637
36422SOL     OW11098   4.041  13.183  13.761
36422SOL    HW111099   4.069  13.100  13.724
36422SOL    HW211100   4.037  13.243  13.687
36423SOL     OW11101   1.288  10.759  10.059
36423SOL    HW111102   1.269  10.761  10.153
36423SOL    HW211103   1.231  10.689  10.025
36424SOL     OW11104   4.592   9.658   8.241
36424SOL    HW111105   4.668   9.605   8.218
36424SOL    HW211106   4.629   9.733   8.287
36425SOL     OW11107  10.258   7.970   2.506
36425SOL    HW111108  10.333   8.007   2.552
36425SOL    HW211109  10.241   8.032   2.435
36426SOL     OW11110   6.308   4.816   6.732
36426SOL    HW111111   6.402   4.804   6.744
36426SOL    HW211112   6.274   4.729   6.713
36427SOL     OW11113   8.749  10.110  13.964
36427SOL    HW111114   8.727  10.176  13.899
36427SOL    HW211115   8.844  10.107  13.965
36428SOL     OW11116  12.229  10.301   0.284
36428SOL    HW111117  12.228  10.239   0.211
36428SOL    HW211118  12.232  10.245   0.362
36429SOL     OW11119   1.831   2.959   6.599
36429SOL    HW111120   1.821   2.869   6.568
36429SOL    HW211121   1.800   3.013   6.526
36430SOL     OW11122   5.507   0.685   6.137
36430SOL    HW111123   5.419   0.722   6.141
36430SOL    HW211124   5.565   0.760   6.148
36431SOL     OW11125   2.486   4.720  13.742
36431SOL    HW111126   2.506   4.777  13.668
36431SOL    HW211127   2.571   4.698  13.779
36432SOL     OW11128  13.501   2.163   3.972
36432SOL    HW111129  13.461   2.075   3.970
36432SOL    HW211130  13.454   2.208   4.042
36433SOL     OW11131  12.237   5.647   7.847
36433SOL    HW111132  12.233   5.703   7.925
36433SOL    HW211133  12.330   5.638   7.828
36434SOL     OW11134   4.219   9.232  12.555
36434SOL    HW111135   4.159   9.167  12.590
36434SOL    HW211136   4.201   9.311  12.606
36435SOL     OW11137   1.465   0.744  10.448
36435SOL    HW111138   1.416   0.822  10.422
36435SOL    HW211139   1.529   0.732  10.378
36436SOL     OW11140  12.252   1.925   2.845
36436SOL    HW111141  12.295   1.841   2.862
36436SOL    HW211142  12.192   1.936   2.918
36437SOL     OW11143   3.895   7.479   3.718
36437SOL    HW111144   3.881   7.427   3.638
36437SOL    HW211145   3.811   7.477   3.763
36438SOL     OW11146   7.409   5.692   5.288
36438SOL    HW111147   7.396   5.687   5.193
36438SOL    HW211148   7.328   5.656   5.326
36439SOL     OW11149   5.433   9.598   7.917
36439SOL    HW111150   5.439   9.527   7.981
36439SOL    HW211151   5.359   9.574   7.861
36440SOL     OW11152   6.784  12.960   7.696
36440SOL    HW111153   6.781  12.947   7.602
36440SOL    HW211154   6.874  12.937   7.720
36441SOL     OW11155   2.509  12.411  10.970
36441SOL    HW111156   2.602  12.409  10.995
36441SOL    HW211157   2.481  12.501  10.988
36442SOL     OW11158   3.536  12.179   7.849
36442SOL    HW111159   3.525  12.248   7.915
36442SOL    HW211160   3.621  12.140   7.869
36443SOL     OW11161  10.142   9.072   9.595
36443SOL    HW111162  10.079   9.063   9.524
36443SOL    HW211163  10.107   9.142   9.650
36444SOL     OW11164   3.973   9.558   2.012
36444SOL    HW111165   3.994   9.526   2.100
36444SOL    HW211166   3.942   9.648   2.025
36445SOL     OW11167   5.871  12.995   6.975
36445SOL    HW111168   5.963  13.014   6.993
36445SOL    HW211169   5.862  12.902   6.994
36446SOL     OW11170   1.808   3.016   3.554
36446SOL    HW111171   1.742   2.952   3.581
36446SOL    HW211172   1.822   3.070   3.631
36447SOL     OW11173   9.044   3.196   6.362
36447SOL    HW111174   8.968   3.252   6.375
36447SOL    HW211175   9.047   3.181   6.268
36448SOL     OW11176  14.548  14.453   1.156
36448SOL    HW111177  14.629  14.407   1.134
36448SOL    HW211178  14.484  14.383   1.170
36449SOL     OW11179   3.355   8.800   9.629
36449SOL    HW111180   3.429   8.818   9.571
36449SOL    HW211181   3.296   8.746   9.577
36450SOL     OW11182   3.853   6.440  10.179
36450SOL    HW111183   3.903   6.522  10.184
36450SOL    HW211184   3.819   6.428  10.268
36451SOL     OW11185  13.085   4.575   8.216
36451SOL    HW111186  13.153   4.641   8.199
36451SOL    HW211187  13.003   4.623   8.208
36452SOL     OW11188   8.752   2.087   5.376
36452SOL    HW111189   8.753   2.176   5.339
36452SOL    HW211190   8.773   2.030   5.301
36453SOL     OW11191   0.184   2.532   4.268
36453SOL    HW111192   0.228   2.616   4.256
36453SOL    HW211193   0.178   2.495   4.179
36454SOL     OW11194  12.251  14.254   1.814
36454SOL    HW111195  12.215  14.314   1.748
36454SOL    HW211196  12.277  14.177   1.765
36455SOL     OW11197   3.252  10.229   3.916
36455SOL    HW111198   3.197  10.254   3.990
36455SOL    HW211199   3.333  10.197   3.955
36456SOL     OW11200  13.296   9.461  10.496
36456SOL    HW111201  13.274   9.368  10.494
36456SOL    HW211202  13.259   9.493  10.578
36457SOL     OW11203  14.748   7.646   4.024
36457SOL    HW111204  14.695   7.622   4.101
36457SOL    HW211205  14.811   7.575   4.015
36458SOL     OW11206  12.053  10.942   7.074
36458SOL    HW111207  12.057  10.954   6.979
36458SOL    HW211208  12.139  10.970   7.105
36459SOL     OW11209   1.272  14.009  14.101
36459SOL    HW111210   1.212  14.003  14.175
36459SOL    HW211211   1.235  13.950  14.036
36460SOL     OW11212  13.557  10.485   1.328
36460SOL    HW111213  13.553  10.392   1.306
36460SOL    HW211214  13.541  10.531   1.246
36461SOL     OW11215   2.810   3.347   9.512
36461SOL    HW111216   2.888   3.293   9.526
36461SOL    HW211217   2.844   3.436   9.504
36462SOL     OW11218   5.735   0.495  11.613
36462SOL    HW111219   5.675   0.535  11.549
36462SOL    HW211220   5.777   0.424  11.565
36463SOL     OW11221  14.855   5.960  14.071
36463SOL    HW111222  14.779   5.903  14.069
36463SOL    HW211223   0.001   5.980  13.979
36464SOL     OW11224   3.115   9.686  11.170
36464SOL    HW111225   3.202   9.724  11.167
36464SOL    HW211226   3.080   9.712  11.255
36465SOL     OW11227   2.149   5.992   8.125
36465SOL    HW111228   2.192   5.918   8.169
36465SOL    HW211229   2.184   5.991   8.036
36466SOL     OW11230   2.958  11.900   9.393
36466SOL    HW111231   2.913  11.893   9.309
36466SOL    HW211232   2.987  11.811   9.413
36467SOL     OW11233   2.040   1.766   3.684
36467SOL    HW111234   1.945   1.768   3.675
36467SOL    HW211235   2.056   1.796   3.774
36468SOL     OW11236   4.844   5.865   8.753
36468SOL    HW111237   4.868   5.812   8.678
36468SOL    HW211238   4.748   5.859   8.756
36469SOL     OW11239   2.804   4.757   3.917
36469SOL    HW111240   2.818   4.765   4.012
36469SOL    HW211241   2.825   4.844   3.883
36470SOL     OW11242  10.322   1.672   1.762
36470SOL    HW111243  10.368   1.699   1.842
36470SOL    HW211244  10.390   1.634   1.706
36471SOL     OW11245  10.543   5.095  11.036
36471SOL    HW111246  10.630   5.060  11.016
36471SOL    HW211247  10.518   5.143  10.957
36472SOL     OW11248   5.390  11.534   7.365
36472SOL    HW111249   5.409  11.541   7.271
36472SOL    HW211250   5.324  11.465   7.371
36473SOL     OW11251   3.006   7.941  12.213
36473SOL    HW111252   3.076   8.002  12.191
36473SOL    HW211253   3.047   7.879  12.274
36474SOL     OW11254   8.280  14.012   7.520
36474SOL    HW111255   8.221  13.991   7.447
36474SOL    HW211256   8.357  13.958   7.505
36475SOL     OW11257   6.054   4.990   3.678
36475SOL    HW111258   6.044   5.065   3.621
36475SOL    HW211259   5.965   4.965   3.702
36476SOL     OW11260  12.346   3.261  11.583
36476SOL    HW111261  12.420   3.319  11.601
36476SOL    HW211262  12.387   3.178  11.557
36477SOL     OW11263  13.268  11.418   0.402
36477SOL    HW111264  13.252  11.354   0.333
36477SOL    HW211265  13.245  11.372   0.483
36478SOL     OW11266  11.657   0.711   3.301
36478SOL    HW111267  11.726   0.748   3.247
36478SOL    HW211268  11.639   0.779   3.366
36479SOL     OW11269   4.736   4.658   8.468
36479SOL    HW111270   4.748   4.740   8.420
36479SOL    HW211271   4.824   4.630   8.491
36480SOL     OW11272   3.055  14.346   2.188
36480SOL    HW111273   3.005  14.345   2.269
36480SOL    HW211274   3.069  14.254   2.167
36481SOL     OW11275   9.295   0.341   3.156
36481SOL    HW111276   9.237   0.289   3.100
36481SOL    HW211277   9.344   0.396   3.096
36482SOL     OW11278   9.556   2.222   2.136
36482SOL    HW111279   9.515   2.188   2.057
36482SOL    HW211280   9.640   2.176   2.142
36483SOL     OW11281   2.376   1.093  12.315
36483SOL    HW111282   2.365   1.148  12.392
36483SOL    HW211283   2.287   1.075  12.285
36484SOL     OW11284   6.715  14.260   9.901
36484SOL    HW111285   6.780  14.297   9.961
36484SOL    HW211286   6.703  14.170   9.931
36485SOL     OW11287   0.429   7.350   9.634
36485SOL    HW111288   0.374   7.338   9.556
36485SOL    HW211289   0.476   7.432   9.617
36486SOL     OW11290   6.508  13.651   9.495
36486SOL    HW111291   6.507  13.730   9.440
36486SOL    HW211292   6.416  13.626   9.502
36487SOL     OW11293  10.927   1.120  10.507
36487SOL    HW111294  10.971   1.183  10.451
36487SOL    HW211295  10.863   1.077  10.451
36488SOL     OW11296   9.868   6.351  10.805
36488SOL    HW111297   9.836   6.262  10.791
36488SOL    HW211298   9.805   6.407  10.760
36489SOL     OW11299  10.437   6.610   2.756
36489SOL    HW111300  10.356   6.657   2.776
36489SOL    HW211301  10.478   6.595   2.841
36490SOL     OW11302   3.257  12.701   5.313
36490SOL    HW111303   3.329  12.638   5.317
36490SOL    HW211304   3.190  12.664   5.372
36491SOL     OW11305   5.578   1.826  10.023
36491SOL    HW111306   5.634   1.824   9.945
36491SOL    HW211307   5.615   1.896  10.077
36492SOL     OW11308   2.794   2.461   7.700
36492SOL    HW111309   2.735   2.430   7.632
36492SOL    HW211310   2.736   2.493   7.770
36493SOL     OW11311   6.872  10.138   5.404
36493SOL    HW111312   6.799  10.084   5.434
36493SOL    HW211313   6.845  10.228   5.423
36494SOL     OW11314   5.814   8.736   0.698
36494SOL    HW111315   5.849   8.818   0.734
36494SOL    HW211316   5.883   8.672   0.716
36495SOL     OW11317   5.592   6.078   2.302
36495SOL    HW111318   5.583   6.172   2.316
36495SOL    HW211319   5.505   6.050   2.273
36496SOL     OW11320   0.430   2.588  11.383
36496SOL    HW111321   0.369   2.585  11.309
36496SOL    HW211322   0.500   2.646  11.352
36497SOL     OW11323   2.861   5.221   2.252
36497SOL    HW111324   2.893   5.139   2.290
36497SOL    HW211325   2.776   5.234   2.293
36498SOL     OW11326  12.052   6.403   0.313
36498SOL    HW111327  11.963   6.406   0.349
36498SOL    HW211328  12.083   6.494   0.320
36499SOL     OW11329  14.385  13.894   0.048
36499SOL    HW111330  14.411  13.837  14.848
36499SOL    HW211331  14.412  13.982   0.020
36500SOL     OW11332   8.647   8.210  13.591
36500SOL    HW111333   8.709   8.145  13.557
36500SOL    HW211334   8.577   8.158  13.630
36501SOL     OW11335   5.058   1.030   0.173
36501SOL    HW111336   5.036   1.046   0.081
36501SOL    HW211337   4.996   1.084   0.221
36502SOL     OW11338   5.842   7.644  12.996
36502SOL    HW111339   5.796   7.717  12.953
36502SOL    HW211340   5.904   7.613  12.931
36503SOL     OW11341   2.692  11.854  14.525
36503SOL    HW111342   2.700  11.836  14.431
36503SOL    HW211343   2.647  11.777  14.560
36504SOL     OW11344  12.562   7.682  13.060
36504SOL    HW111345  12.509   7.733  13.121
36504SOL    HW211346  12.510   7.679  12.979
36505SOL     OW11347  13.507   1.007   0.782
36505SOL    HW111348  13.444   1.079   0.774
36505SOL    HW211349  13.456   0.928   0.766
36506SOL     OW11350  13.714  12.543   1.291
36506SOL    HW111351  13.702  12.577   1.202
36506SOL    HW211352  13.688  12.451   1.285
36507SOL     OW11353  13.718   1.591  11.025
36507SOL    HW111354  13.688   1.669  10.979
36507SOL    HW211355  13.674   1.518  10.982
36508SOL     OW11356   0.427   2.405   0.447
36508SOL    HW111357   0.439   2.327   0.392
36508SOL    HW211358   0.366   2.378   0.515
36509SOL     OW11359  11.723  11.084   7.360
36509SOL    HW111360  11.668  11.148   7.316
36509SOL    HW211361  11.684  11.074   7.447
36510SOL     OW11362   9.924  14.850   4.716
36510SOL    HW111363   9.931   0.024   4.799
36510SOL    HW211364   9.974  14.769   4.730
36511SOL     OW11365  14.266   8.924   3.337
36511SOL    HW111366  14.311   9.006   3.357
36511SOL    HW211367  14.314   8.887   3.263
36512SOL     OW11368   5.068  11.567  11.604
36512SOL    HW111369   5.056  11.505  11.532
36512SOL    HW211370   4.980  11.600  11.621
36513SOL     OW11371   0.203  14.408   0.302
36513SOL    HW111372   0.285  14.451   0.278
36513SOL    HW211373   0.142  14.481   0.319
36514SOL     OW11374   3.791   5.815   3.614
36514SOL    HW111375   3.768   5.895   3.662
36514SOL    HW211376   3.709   5.766   3.607
36515SOL     OW11377   1.853   5.838   5.767
36515SOL    HW111378   1.932   5.785   5.763
36515SOL    HW211379   1.860   5.896   5.691
36516SOL     OW11380   3.970   9.439   2.258
36516SOL    HW111381   4.009   9.381   2.323
36516SOL    HW211382   3.910   9.494   2.308
36517SOL     OW11383  13.883  14.410  13.724
36517SOL    HW111384  13.947  14.339  13.724
36517SOL    HW211385  13.867  14.428  13.632
36518SOL     OW11386   3.472   2.604   8.137
36518SOL    HW111387   3.410   2.677   8.135
36518SOL    HW211388   3.416   2.526   8.141
36519SOL     OW11389   4.358   8.912   8.202
36519SOL    HW111390   4.306   8.991   8.186
36519SOL    HW211391   4.439   8.944   8.241
36520SOL     OW11392   4.441   1.345   8.509
36520SOL    HW111393   4.463   1.324   8.418
36520SOL    HW211394   4.346   1.341   8.512
36521SOL     OW11395   0.035  12.949  13.132
36521SOL    HW111396  14.855  12.969  13.209
36521SOL    HW211397   0.108  13.012  13.136
36522SOL     OW11398   3.517  11.881  13.855
36522SOL    HW111399   3.462  11.836  13.791
36522SOL    HW211400   3.487  11.971  13.855
36523SOL     OW11401   0.303   0.813   1.800
36523SOL    HW111402   0.207   0.821   1.794
36523SOL    HW211403   0.331   0.893   1.843
36524SOL     OW11404   0.678   6.750   0.712
36524SOL    HW111405   0.766   6.781   0.689
36524SOL    HW211406   0.639   6.823   0.759
36525SOL     OW11407  13.962   9.328   8.071
36525SOL    HW111408  13.985   9.236   8.068
36525SOL    HW211409  13.866   9.329   8.064
36526SOL     OW11410  13.481  14.154  10.150
36526SOL    HW111411  13.420  14.083  10.168
36526SOL    HW211412  13.553  14.141  10.212
36527SOL     OW11413  13.213   2.373   3.825
36527SOL    HW111414  13.213   2.398   3.917
36527SOL    HW211415  13.213   2.277   3.827
36528SOL     OW11416   1.933   3.008   0.899
36528SOL    HW111417   1.838   3.019   0.897
36528SOL    HW211418   1.956   3.017   0.992
36529SOL     OW11419   6.399   1.804   4.148
36529SOL    HW111420   6.472   1.801   4.210
36529SOL    HW211421   6.330   1.752   4.189
36530SOL     OW11422   9.195  13.167   2.798
36530SOL    HW111423   9.191  13.076   2.768
36530SOL    HW211424   9.194  13.161   2.893
36531SOL     OW11425  12.260   4.067   9.840
36531SOL    HW111426  12.328   4.119   9.798
36531SOL    HW211427  12.279   4.073   9.933
36532SOL     OW11428  12.323  14.419   0.645
36532SOL    HW111429  12.272  14.495   0.616
36532SOL    HW211430  12.383  14.401   0.572
36533SOL     OW11431   9.521  10.364   7.201
36533SOL    HW111432   9.546  10.433   7.139
36533SOL    HW211433   9.429  10.348   7.182
36534SOL     OW11434   4.980   8.857   3.936
36534SOL    HW111435   5.031   8.907   3.873
36534SOL    HW211436   4.891   8.857   3.900
36535SOL     OW11437   9.857   9.629   0.809
36535SOL    HW111438   9.890   9.615   0.897
36535SOL    HW211439   9.769   9.591   0.810
36536SOL     OW11440   2.118   0.874   2.287
36536SOL    HW111441   2.200   0.869   2.238
36536SOL    HW211442   2.053   0.834   2.230
36537SOL     OW11443   9.244  11.347  10.671
36537SOL    HW111444   9.275  11.286  10.604
36537SOL    HW211445   9.320  11.360  10.728
36538SOL     OW11446  14.537  14.668  14.083
36538SOL    HW111447  14.625  14.664  14.121
36538SOL    HW211448  14.534  14.754  14.040
36539SOL     OW11449   2.449  10.259   4.448
36539SOL    HW111450   2.539  10.288   4.437
36539SOL    HW211451   2.416  10.309   4.523
36540SOL     OW11452   2.617   4.293   7.691
36540SOL    HW111453   2.539   4.279   7.744
36540SOL    HW211454   2.679   4.227   7.721
36541SOL     OW11455  14.137  11.687  12.446
36541SOL    HW111456  14.157  11.714  12.535
36541SOL    HW211457  14.106  11.597  12.455
36542SOL     OW11458  11.957   9.486  13.048
36542SOL    HW111459  12.019   9.558  13.038
36542SOL    HW211460  11.943   9.480  13.142
36543SOL     OW11461  14.449  13.649   1.291
36543SOL    HW111462  14.463  13.682   1.380
36543SOL    HW211463  14.380  13.706   1.256
36544SOL     OW11464   1.813  11.922  13.972
36544SOL    HW111465   1.735  11.883  14.012
36544SOL    HW211466   1.789  12.014  13.958
36545SOL     OW11467   7.036  12.169   5.397
36545SOL    HW111468   7.008  12.251   5.356
36545SOL    HW211469   6.965  12.148   5.459
36546SOL     OW11470  14.300   0.199   9.672
36546SOL    HW111471  14.333   0.112   9.697
36546SOL    HW211472  14.215   0.181   9.633
36547SOL     OW11473   7.672   2.344   3.562
36547SOL    HW111474   7.720   2.415   3.603
36547SOL    HW211475   7.584   2.349   3.601
36548SOL     OW11476   2.068   5.425   2.280
36548SOL    HW111477   2.105   5.383   2.203
36548SOL    HW211478   2.002   5.364   2.312
36549SOL     OW11479   3.823   5.286  13.209
36549SOL    HW111480   3.873   5.290  13.291
36549SOL    HW211481   3.830   5.374  13.172
36550SOL     OW11482   3.591   9.933   0.668
36550SOL    HW111483   3.517   9.957   0.725
36550SOL    HW211484   3.667   9.973   0.709
36551SOL     OW11485  14.373   8.668   0.618
36551SOL    HW111486  14.379   8.723   0.540
36551SOL    HW211487  14.338   8.725   0.686
36552SOL     OW11488   7.452  11.860  12.921
36552SOL    HW111489   7.543  11.876  12.944
36552SOL    HW211490   7.403  11.880  13.000
36553SOL     OW11491   1.843   0.359   4.532
36553SOL    HW111492   1.890   0.299   4.590
36553SOL    HW211493   1.762   0.378   4.579
36554SOL     OW11494   5.155   9.261   2.995
36554SOL    HW111495   5.157   9.330   3.061
36554SOL    HW211496   5.068   9.221   3.005
36555SOL     OW11497   9.851   0.147   9.525
36555SOL    HW111498   9.898   0.230   9.531
36555SOL    HW211499   9.833   0.123   9.616
36556SOL     OW11500   5.538  10.022  12.804
36556SOL    HW111501   5.453  10.048  12.839
36556SOL    HW211502   5.602  10.057  12.865
36557SOL     OW11503  14.383   3.783  10.002
36557SOL    HW111504  14.317   3.808  10.067
36557SOL    HW211505  14.459   3.836  10.025
36558SOL     OW11506   1.692   4.316  12.072
36558SOL    HW111507   1.677   4.292  12.163
36558SOL    HW211508   1.676   4.235  12.023
36559SOL     OW11509   1.748   1.859   0.252
36559SOL    HW111510   1.708   1.945   0.239
36559SOL    HW211511   1.684   1.810   0.303
36560SOL     OW11512  13.209   5.102  14.754
36560SOL    HW111513  13.229   5.110  14.661
36560SOL    HW211514  13.114   5.111  14.759
36561SOL     OW11515   0.092   7.439   3.904
36561SOL    HW111516   0.024   7.402   3.847
36561SOL    HW211517   0.174   7.411   3.863
36562SOL     OW11518   0.271  11.231   7.860
36562SOL    HW111519   0.251  11.259   7.949
36562SOL    HW211520   0.268  11.311   7.808
36563SOL     OW11521   2.815   9.434  12.055
36563SOL    HW111522   2.908   9.419  12.071
36563SOL    HW211523   2.801   9.405  11.965
36564SOL     OW11524   2.069   8.427   8.741
36564SOL    HW111525   2.123   8.375   8.681
36564SOL    HW211526   2.129   8.494   8.774
36565SOL     OW11527  10.953  12.663   0.685
36565SOL    HW111528  10.971  12.571   0.665
36565SOL    HW211529  10.887  12.689   0.622
36566SOL     OW11530   8.190   8.640  12.464
36566SOL    HW111531   8.253   8.708  12.439
36566SOL    HW211532   8.139   8.623  12.385
36567SOL     OW11533   0.673  13.036   2.807
36567SOL    HW111534   0.658  12.955   2.758
36567SOL    HW211535   0.701  13.006   2.894
36568SOL     OW11536   0.231   1.300   1.265
36568SOL    HW111537   0.250   1.391   1.245
36568SOL    HW211538   0.139   1.299   1.291
36569SOL     OW11539  14.328   9.313  12.939
36569SOL    HW111540  14.418   9.326  12.968
36569SOL    HW211541  14.284   9.269  13.012
36570SOL     OW11542   5.778   6.063   5.663
36570SOL    HW111543   5.707   6.001   5.677
36570SOL    HW211544   5.820   6.033   5.582
36571SOL     OW11545   1.429   7.420  11.209
36571SOL    HW111546   1.363   7.397  11.274
36571SOL    HW211547   1.423   7.351  11.143
36572SOL     OW11548   0.450   1.047   7.725
36572SOL    HW111549   0.403   1.003   7.796
36572SOL    HW211550   0.499   0.977   7.682
36573SOL     OW11551   2.765   5.549   7.663
36573SOL    HW111552   2.672   5.571   7.670
36573SOL    HW211553   2.784   5.553   7.569
36574SOL     OW11554   2.520   0.850   5.741
36574SOL    HW111555   2.585   0.899   5.791
36574SOL    HW211556   2.449   0.834   5.802
36575SOL     OW11557   3.309  12.937   4.039
36575SOL    HW111558   3.321  13.013   3.982
36575SOL    HW211559   3.398  12.913   4.065
36576SOL     OW11560   5.168  13.518  12.377
36576SOL    HW111561   5.097  13.563  12.331
36576SOL    HW211562   5.186  13.441  12.322
36577SOL     OW11563  13.764   8.210   5.417
36577SOL    HW111564  13.714   8.232   5.495
36577SOL    HW211565  13.845   8.172   5.450
36578SOL     OW11566   4.145   0.036  11.639
36578SOL    HW111567   4.188   0.099  11.697
36578SOL    HW211568   4.104  14.846  11.699
36579SOL     OW11569   3.492   1.072  12.639
36579SOL    HW111570   3.423   1.032  12.588
36579SOL    HW211571   3.570   1.067  12.584
36580SOL     OW11572   5.773   2.803  14.420
36580SOL    HW111573   5.712   2.734  14.445
36580SOL    HW211574   5.858   2.774  14.454
36581SOL     OW11575   6.651   2.572  13.914
36581SOL    HW111576   6.601   2.570  13.832
36581SOL    HW211577   6.624   2.654  13.956
36582SOL     OW11578   9.106   2.247   5.735
36582SOL    HW111579   9.030   2.282   5.780
36582SOL    HW211580   9.112   2.299   5.654
36583SOL     OW11581   7.095   6.983   8.135
36583SOL    HW111582   7.155   6.925   8.089
36583SOL    HW211583   7.042   6.925   8.189
36584SOL     OW11584   4.736  13.927  12.595
36584SOL    HW111585   4.650  13.884  12.599
36584SOL    HW211586   4.795  13.859  12.563
36585SOL     OW11587   9.623   1.243   0.837
36585SOL    HW111588   9.589   1.161   0.872
36585SOL    HW211589   9.547   1.301   0.832
36586SOL     OW11590   0.609   5.631  10.314
36586SOL    HW111591   0.640   5.686  10.241
36586SOL    HW211592   0.556   5.690  10.368
36587SOL     OW11593  10.629   4.711  11.291
36587SOL    HW111594  10.590   4.787  11.247
36587SOL    HW211595  10.710   4.695  11.242
36588SOL     OW11596   5.266   0.328   5.633
36588SOL    HW111597   5.202   0.266   5.669
36588SOL    HW211598   5.326   0.273   5.582
36589SOL     OW11599   4.020  12.413   4.553
36589SOL    HW111600   4.049  12.380   4.638
36589SOL    HW211601   3.928  12.386   4.547
36590SOL     OW11602   3.549  12.293   9.821
36590SOL    HW111603   3.567  12.244   9.741
36590SOL    HW211604   3.591  12.378   9.807
36591SOL     OW11605   0.909   4.547   1.196
36591SOL    HW111606   0.861   4.464   1.199
36591SOL    HW211607   0.998   4.524   1.226
36592SOL     OW11608   8.465   1.617   7.465
36592SOL    HW111609   8.482   1.641   7.556
36592SOL    HW211610   8.520   1.541   7.450
36593SOL     OW11611   9.787   7.044   7.465
36593SOL    HW111612   9.774   6.955   7.498
36593SOL    HW211613   9.853   7.034   7.396
36594SOL     OW11614   8.023   5.102  11.694
36594SOL    HW111615   7.948   5.142  11.651
36594SOL    HW211616   8.028   5.145  11.779
36595SOL     OW11617  11.441  10.508   1.217
36595SOL    HW111618  11.416  10.583   1.270
36595SOL    HW211619  11.418  10.432   1.271
36596SOL     OW11620  10.071  11.343   6.285
36596SOL    HW111621  10.046  11.421   6.234
36596SOL    HW211622  10.049  11.365   6.375
36597SOL     OW11623  14.410   5.176   8.814
36597SOL    HW111624  14.496   5.144   8.786
36597SOL    HW211625  14.372   5.102   8.861
36598SOL     OW11626   9.135   7.554  14.382
36598SOL    HW111627   9.114   7.552  14.475
36598SOL    HW211628   9.146   7.648  14.363
36599SOL     OW11629   8.969   9.180  12.955
36599SOL    HW111630   8.931   9.240  13.019
36599SOL    HW211631   8.933   9.208  12.871
36600SOL     OW11632  10.152   1.069   5.547
36600SOL    HW111633  10.129   1.040   5.459
36600SOL    HW211634  10.242   1.099   5.540
36601SOL     OW11635  11.885   5.140   2.398
36601SOL    HW111636  11.921   5.228   2.412
36601SOL    HW211637  11.899   5.122   2.305
36602SOL     OW11638  14.756  13.070   5.565
36602SOL    HW111639  14.778  13.114   5.483
36602SOL    HW211640  14.770  13.136   5.632
36603SOL     OW11641  13.918   8.973   4.499
36603SOL    HW111642  13.831   9.007   4.478
36603SOL    HW211643  13.976   9.049   4.491
36604SOL     OW11644  10.680   0.004  12.112
36604SOL    HW111645  10.710  14.791  12.082
36604SOL    HW211646  10.753   0.063  12.094
36605SOL     OW11647   7.629   9.940   7.417
36605SOL    HW111648   7.663  10.024   7.387
36605SOL    HW211649   7.542   9.961   7.453
36606SOL     OW11650   0.035   7.993   7.209
36606SOL    HW111651   0.053   8.059   7.275
36606SOL    HW211652   0.042   8.040   7.126
36607SOL     OW11653   1.837   8.339   9.959
36607SOL    HW111654   1.933   8.340   9.952
36607SOL    HW211655   1.821   8.304  10.047
36608SOL     OW11656   2.847  14.088   6.616
36608SOL    HW111657   2.778  14.123   6.559
36608SOL    HW211658   2.811  14.097   6.705
36609SOL     OW11659  10.917   8.141   6.492
36609SOL    HW111660  10.839   8.110   6.447
36609SOL    HW211661  10.887   8.167   6.579
36610SOL     OW11662   9.458   2.212   4.115
36610SOL    HW111663   9.546   2.229   4.149
36610SOL    HW211664   9.432   2.294   4.073
36611SOL     OW11665   4.409   0.328   4.260
36611SOL    HW111666   4.460   0.322   4.342
36611SOL    HW211667   4.339   0.264   4.270
36612SOL     OW11668  11.553   1.635   2.340
36612SOL    HW111669  11.632   1.686   2.357
36612SOL    HW211670  11.557   1.616   2.247
36613SOL     OW11671   2.984   9.092   8.269
36613SOL    HW111672   2.995   9.177   8.225
36613SOL    HW211673   3.070   9.051   8.264
36614SOL     OW11674   9.897   5.900   5.195
36614SOL    HW111675   9.853   5.844   5.259
36614SOL    HW211676   9.918   5.842   5.122
36615SOL     OW11677   8.140  13.576  12.828
36615SOL    HW111678   8.211  13.583  12.764
36615SOL    HW211679   8.125  13.665  12.858
36616SOL     OW11680   7.684   8.287  11.821
36616SOL    HW111681   7.682   8.192  11.808
36616SOL    HW211682   7.608   8.305  11.877
36617SOL     OW11683   4.646   4.757  10.657
36617SOL    HW111684   4.648   4.667  10.691
36617SOL    HW211685   4.598   4.751  10.575
36618SOL     OW11686  12.625   2.835   9.065
36618SOL    HW111687  12.655   2.785   9.141
36618SOL    HW211688  12.677   2.800   8.992
36619SOL     OW11689  12.538  12.558  14.778
36619SOL    HW111690  12.608  12.494  14.791
36619SOL    HW211691  12.583  12.642  14.772
36620SOL     OW11692  12.686   2.018   0.977
36620SOL    HW111693  12.733   1.939   1.006
36620SOL    HW211694  12.680   2.072   1.056
36621SOL     OW11695   7.189   3.483   7.005
36621SOL    HW111696   7.259   3.442   6.954
36621SOL    HW211697   7.199   3.577   6.988
36622SOL     OW11698  12.472   8.321  13.484
36622SOL    HW111699  12.534   8.379  13.439
36622SOL    HW211700  12.420   8.283  13.413
36623SOL     OW11701   3.452  13.912   8.715
36623SOL    HW111702   3.386  13.911   8.645
36623SOL    HW211703   3.489  13.824   8.715
36624SOL     OW11704   3.735   7.387   9.301
36624SOL    HW111705   3.660   7.424   9.253
36624SOL    HW211706   3.810   7.434   9.266
36625SOL     OW11707   9.438  13.296   8.331
36625SOL    HW111708   9.438  13.257   8.419
36625SOL    HW211709   9.491  13.237   8.278
36626SOL     OW11710   6.322  14.566   1.552
36626SOL    HW111711   6.340  14.577   1.459
36626SOL    HW211712   6.234  14.600   1.564
36627SOL     OW11713   6.442   9.021  12.000
36627SOL    HW111714   6.354   9.013  11.965
36627SOL    HW211715   6.492   8.952  11.956
36628SOL     OW11716   0.445   3.792   9.772
36628SOL    HW111717   0.369   3.769   9.719
36628SOL    HW211718   0.461   3.714   9.826
36629SOL     OW11719  13.187  10.978   8.854
36629SOL    HW111720  13.251  10.977   8.925
36629SOL    HW211721  13.208  10.902   8.800
36630SOL     OW11722  14.500   1.744   1.444
36630SOL    HW111723  14.447   1.812   1.488
36630SOL    HW211724  14.552   1.706   1.514
36631SOL     OW11725   2.893   2.950   3.365
36631SOL    HW111726   2.877   3.039   3.334
36631SOL    HW211727   2.823   2.898   3.326
36632SOL     OW11728   1.719   2.499   3.188
36632SOL    HW111729   1.719   2.404   3.200
36632SOL    HW211730   1.684   2.512   3.100
36633SOL     OW11731   1.086   6.484  13.956
36633SOL    HW111732   1.150   6.538  14.003
36633SOL    HW211733   1.123   6.475  13.868
36634SOL     OW11734  13.348  11.594   4.642
36634SOL    HW111735  13.322  11.502   4.634
36634SOL    HW211736  13.434  11.598   4.601
36635SOL     OW11737   2.737   3.247   5.984
36635SOL    HW111738   2.662   3.193   6.009
36635SOL    HW211739   2.803   3.184   5.954
36636SOL     OW11740   4.919  11.245   1.331
36636SOL    HW111741   4.905  11.172   1.391
36636SOL    HW211742   4.913  11.207   1.243
36637SOL     OW11743   7.052   2.270  13.604
36637SOL    HW111744   7.136   2.311  13.621
36637SOL    HW211745   7.012   2.259  13.690
36638SOL     OW11746   3.480   6.774  12.046
36638SOL    HW111747   3.396   6.796  12.007
36638SOL    HW211748   3.543   6.833  12.003
36639SOL     OW11749  12.059  13.208  10.635
36639SOL    HW111750  12.089  13.211  10.544
36639SOL    HW211751  12.140  13.214  10.686
36640SOL     OW11752  12.498   7.562   4.939
36640SOL    HW111753  12.493   7.636   4.879
36640SOL    HW211754  12.417   7.567   4.990
36641SOL     OW11755  13.704   7.490   7.645
36641SOL    HW111756  13.626   7.449   7.608
36641SOL    HW211757  13.749   7.419   7.691
36642SOL     OW11758  13.899   7.053   9.517
36642SOL    HW111759  13.962   7.125   9.515
36642SOL    HW211760  13.927   6.994   9.448
36643SOL     OW11761   5.525   5.211   2.935
36643SOL    HW111762   5.474   5.256   2.868
36643SOL    HW211763   5.501   5.118   2.925
36644SOL     OW11764   1.650  13.520   8.055
36644SOL    HW111765   1.705  13.449   8.021
36644SOL    HW211766   1.570  13.515   8.003
36645SOL     OW11767   6.948  13.241   2.909
36645SOL    HW111768   7.019  13.177   2.914
36645SOL    HW211769   6.958  13.281   2.822
36646SOL     OW11770   9.952  10.070  13.458
36646SOL    HW111771   9.889  10.141  13.475
36646SOL    HW211772   9.908  10.014  13.394
36647SOL     OW11773   9.117   1.531   5.809
36647SOL    HW111774   9.123   1.437   5.825
36647SOL    HW211775   9.027   1.546   5.781
36648SOL     OW11776  14.301   7.811   9.899
36648SOL    HW111777  14.300   7.736   9.958
36648SOL    HW211778  14.381   7.859   9.922
36649SOL     OW11779   8.322   0.864  10.766
36649SOL    HW111780   8.363   0.810  10.833
36649SOL    HW211781   8.229   0.866  10.790
36650SOL     OW11782   9.301   1.224  10.332
36650SOL    HW111783   9.239   1.241  10.402
36650SOL    HW211784   9.378   1.189  10.376
36651SOL     OW11785   8.542   7.204  13.793
36651SOL    HW111786   8.603   7.202  13.867
36651SOL    HW211787   8.473   7.142  13.817
36652SOL     OW11788  12.531  11.727   1.816
36652SOL    HW111789  12.570  11.689   1.738
36652SOL    HW211790  12.534  11.657   1.881
36653SOL     OW11791  14.416  10.416  10.249
36653SOL    HW111792  14.405  10.479  10.320
36653SOL    HW211793  14.418  10.331  10.292
36654SOL     OW11794   3.032   2.535   0.544
36654SOL    HW111795   3.122   2.506   0.528
36654SOL    HW211796   3.017   2.604   0.479
36655SOL     OW11797  13.379   1.510   0.049
36655SOL    HW111798  13.470   1.486   0.031
36655SOL    HW211799  13.384   1.560   0.131
36656SOL     OW11800  11.844   3.173  11.506
36656SOL    HW111801  11.920   3.224  11.536
36656SOL    HW211802  11.796   3.154  11.587
36657SOL     OW11803   9.572  13.068   7.304
36657SOL    HW111804   9.542  13.085   7.393
36657SOL    HW211805   9.658  13.111   7.298
36658SOL     OW11806  11.447  13.330  10.848
36658SOL    HW111807  11.431  13.264  10.780
36658SOL    HW211808  11.375  13.391  10.839
36659SOL     OW11809   6.517   1.865   3.467
36659SOL    HW111810   6.565   1.930   3.518
36659SOL    HW211811   6.585   1.808   3.432
36660SOL     OW11812   7.896  12.331  14.038
36660SOL    HW111813   7.908  12.422  14.066
36660SOL    HW211814   7.910  12.279  14.117
36661SOL     OW11815  12.888   9.647   8.657
36661SOL    HW111816  12.938   9.722   8.690
36661SOL    HW211817  12.882   9.662   8.562
36662SOL     OW11818   9.085  12.307   9.619
36662SOL    HW111819   9.084  12.289   9.525
36662SOL    HW211820   9.078  12.221   9.660
36663SOL     OW11821   8.191   9.663   1.106
36663SOL    HW111822   8.240   9.623   1.178
36663SOL    HW211823   8.101   9.634   1.119
36664SOL     OW11824   1.467   6.850   8.242
36664SOL    HW111825   1.438   6.909   8.312
36664SOL    HW211826   1.562   6.847   8.252
36665SOL     OW11827  13.695   1.892   4.310
36665SOL    HW111828  13.684   1.808   4.355
36665SOL    HW211829  13.719   1.868   4.221
36666SOL     OW11830   3.666   4.006   0.856
36666SOL    HW111831   3.680   3.915   0.881
36666SOL    HW211832   3.571   4.017   0.856
36667SOL     OW11833   7.552   9.506  12.661
36667SOL    HW111834   7.485   9.559  12.704
36667SOL    HW211835   7.543   9.525  12.568
36668SOL     OW11836   1.333   1.379   3.881
36668SOL    HW111837   1.402   1.395   3.945
36668SOL    HW211838   1.252   1.394   3.928
36669SOL     OW11839  13.280   1.585   4.851
36669SOL    HW111840  13.215   1.515   4.849
36669SOL    HW211841  13.363   1.542   4.830
36670SOL     OW11842   2.707   9.312   7.975
36670SOL    HW111843   2.667   9.225   7.976
36670SOL    HW211844   2.732   9.328   8.066
36671SOL     OW11845   5.650  13.671  12.592
36671SOL    HW111846   5.719  13.608  12.609
36671SOL    HW211847   5.641  13.672  12.497
36672SOL     OW11848   3.002   9.553   5.840
36672SOL    HW111849   3.078   9.526   5.891
36672SOL    HW211850   3.026   9.639   5.805
36673SOL     OW11851   3.807   2.738   8.619
36673SOL    HW111852   3.855   2.712   8.541
36673SOL    HW211853   3.728   2.781   8.586
36674SOL     OW11854   4.142   0.696   2.808
36674SOL    HW111855   4.133   0.674   2.716
36674SOL    HW211856   4.235   0.719   2.819
36675SOL     OW11857   8.159  14.728   3.861
36675SOL    HW111858   8.081  14.685   3.897
36675SOL    HW211859   8.233  14.677   3.894
36676SOL     OW11860   3.047   1.572  13.225
36676SOL    HW111861   3.127   1.602  13.269
36676SOL    HW211862   3.001   1.652  13.202
36677SOL     OW11863   4.740   0.264  13.658
36677SOL    HW111864   4.778   0.328  13.597
36677SOL    HW211865   4.766   0.179  13.621
36678SOL     OW11866  11.781   8.559   8.907
36678SOL    HW111867  11.775   8.641   8.857
36678SOL    HW211868  11.825   8.584   8.988
36679SOL     OW11869  13.759  12.885   4.047
36679SOL    HW111870  13.824  12.872   3.979
36679SOL    HW211871  13.773  12.975   4.077
36680SOL     OW11872   9.185   5.856   6.991
36680SOL    HW111873   9.264   5.888   6.948
36680SOL    HW211874   9.152   5.931   7.040
36681SOL     OW11875  10.716  11.848  14.831
36681SOL    HW111876  10.639  11.819  14.781
36681SOL    HW211877  10.699  11.818   0.047
36682SOL     OW11878   6.664   3.722  10.287
36682SOL    HW111879   6.684   3.634  10.255
36682SOL    HW211880   6.633   3.709  10.377
36683SOL     OW11881  14.070  10.356   0.737
36683SOL    HW111882  14.059  10.272   0.780
36683SOL    HW211883  14.125  10.337   0.661
36684SOL     OW11884   0.162   0.959   5.335
36684SOL    HW111885   0.101   1.030   5.352
36684SOL    HW211886   0.241   0.983   5.382
36685SOL     OW11887   1.254  13.936   6.791
36685SOL    HW111888   1.300  13.888   6.860
36685SOL    HW211889   1.166  13.951   6.827
36686SOL     OW11890   8.606   2.533  11.062
36686SOL    HW111891   8.651   2.450  11.044
36686SOL    HW211892   8.519   2.522  11.023
36687SOL     OW11893  12.211  14.506   9.160
36687SOL    HW111894  12.274  14.556   9.213
36687SOL    HW211895  12.156  14.462   9.225
36688SOL     OW11896   5.544   6.335  13.108
36688SOL    HW111897   5.638   6.339  13.126
36688SOL    HW211898   5.510   6.272  13.172
36689SOL     OW11899   2.339   7.830  10.732
36689SOL    HW111900   2.431   7.842  10.756
36689SOL    HW211901   2.342   7.785  10.647
36690SOL     OW11902   1.217  10.179  12.949
36690SOL    HW111903   1.261  10.096  12.964
36690SOL    HW211904   1.127  10.155  12.924
36691SOL     OW11905   8.981  12.849  12.510
36691SOL    HW111906   9.040  12.862  12.436
36691SOL    HW211907   8.923  12.925  12.509
36692SOL     OW11908   8.270  11.559   0.097
36692SOL    HW111909   8.222  11.477   0.112
36692SOL    HW211910   8.310  11.548   0.011
36693SOL     OW11911  13.348  10.393  10.889
36693SOL    HW111912  13.277  10.456  10.880
36693SOL    HW211913  13.359  10.357  10.801
36694SOL     OW11914   7.798   1.529  13.395
36694SOL    HW111915   7.746   1.528  13.475
36694SOL    HW211916   7.885   1.500  13.422
36695SOL     OW11917   8.644  13.038   1.971
36695SOL    HW111918   8.584  13.012   2.041
36695SOL    HW211919   8.695  13.110   2.008
36696SOL     OW11920   4.738   0.640   1.611
36696SOL    HW111921   4.679   0.628   1.685
36696SOL    HW211922   4.688   0.612   1.535
36697SOL     OW11923   4.882   1.049   2.780
36697SOL    HW111924   4.951   1.115   2.787
36697SOL    HW211925   4.882   1.023   2.688
36698SOL     OW11926   8.960   6.990   0.470
36698SOL    HW111927   8.998   7.069   0.508
36698SOL    HW211928   8.978   6.996   0.376
36699SOL     OW11929  11.134   2.139   1.746
36699SOL    HW111930  11.052   2.095   1.769
36699SOL    HW211931  11.196   2.068   1.730
36700SOL     OW11932   8.213   1.117   3.829
36700SOL    HW111933   8.253   1.103   3.914
36700SOL    HW211934   8.259   1.192   3.792
36701SOL     OW11935  10.286   3.315  14.308
36701SOL    HW111936  10.201   3.356  14.291
36701SOL    HW211937  10.325   3.302  14.221
36702SOL     OW11938   3.442   8.755   8.373
36702SOL    HW111939   3.514   8.697   8.397
36702SOL    HW211940   3.474   8.843   8.394
36703SOL     OW11941  10.540   9.674   8.918
36703SOL    HW111942  10.506   9.738   8.979
36703SOL    HW211943  10.483   9.681   8.841
36704SOL     OW11944   8.033   3.420   1.371
36704SOL    HW111945   8.029   3.510   1.405
36704SOL    HW211946   7.942   3.391   1.369
36705SOL     OW11947   1.631  10.152   7.064
36705SOL    HW111948   1.698  10.171   6.998
36705SOL    HW211949   1.631  10.229   7.121
36706SOL     OW11950   3.465   8.976   8.657
36706SOL    HW111951   3.453   8.888   8.621
36706SOL    HW211952   3.502   8.962   8.744
36707SOL     OW11953   1.435   9.626  14.521
36707SOL    HW111954   1.458   9.585  14.604
36707SOL    HW211955   1.485   9.708  14.520
36708SOL     OW11956   7.221   1.709   6.535
36708SOL    HW111957   7.220   1.630   6.482
36708SOL    HW211958   7.312   1.718   6.563
36709SOL     OW11959   7.791   7.041   4.836
36709SOL    HW111960   7.791   7.012   4.928
36709SOL    HW211961   7.879   7.076   4.822
36710SOL     OW11962  11.753   9.348   4.282
36710SOL    HW111963  11.832   9.363   4.229
36710SOL    HW211964  11.685   9.399   4.238
36711SOL     OW11965  12.188   7.950   0.039
36711SOL    HW111966  12.274   7.924   0.006
36711SOL    HW211967  12.196   8.045   0.052
36712SOL     OW11968  11.921   9.503   6.631
36712SOL    HW111969  11.916   9.594   6.661
36712SOL    HW211970  12.015   9.488   6.615
36713SOL     OW11971   2.818  14.824   4.125
36713SOL    HW111972   2.909  14.798   4.137
36713SOL    HW211973   2.782  14.760   4.064
36714SOL     OW11974  10.680   2.158   8.170
36714SOL    HW111975  10.717   2.243   8.144
36714SOL    HW211976  10.672   2.109   8.089
36715SOL     OW11977  12.327   3.716  10.679
36715SOL    HW111978  12.393   3.672  10.732
36715SOL    HW211979  12.289   3.782  10.737
36716SOL     OW11980  12.423   5.702  12.746
36716SOL    HW111981  12.332   5.672  12.752
36716SOL    HW211982  12.421   5.771  12.679
36717SOL     OW11983   8.322   9.412  12.941
36717SOL    HW111984   8.315   9.489  12.885
36717SOL    HW211985   8.233   9.379  12.948
36718SOL     OW11986   4.063   2.024   7.347
36718SOL    HW111987   4.120   2.031   7.424
36718SOL    HW211988   4.030   1.934   7.350
36719SOL     OW11989   0.896  10.897   2.418
36719SOL    HW111990   0.958  10.964   2.391
36719SOL    HW211991   0.888  10.907   2.513
36720SOL     OW11992   4.718   1.968   1.406
36720SOL    HW111993   4.726   2.042   1.346
36720SOL    HW211994   4.671   2.003   1.482
36721SOL     OW11995   6.259   8.850   5.554
36721SOL    HW111996   6.261   8.792   5.477
36721SOL    HW211997   6.346   8.891   5.555
36722SOL     OW11998  10.181  10.493   1.875
36722SOL    HW111999  10.258  10.531   1.831
36722SOL    HW212000  10.132  10.569   1.906
36723SOL     OW12001  12.710  13.343   7.142
36723SOL    HW112002  12.720  13.412   7.208
36723SOL    HW212003  12.718  13.261   7.191
36724SOL     OW12004   1.991   0.891  11.362
36724SOL    HW112005   2.031   0.830  11.425
36724SOL    HW212006   1.899   0.866  11.359
36725SOL     OW12007   7.468   5.952   4.263
36725SOL    HW112008   7.381   5.941   4.224
36725SOL    HW212009   7.520   5.881   4.227
36726SOL     OW12010   2.219  14.772   1.217
36726SOL    HW112011   2.202  14.696   1.272
36726SOL    HW212012   2.144  14.829   1.232
36727SOL     OW12013  12.530  14.565   4.035
36727SOL    HW112014  12.452  14.613   4.007
36727SOL    HW212015  12.519  14.554   4.129
36728SOL     OW12016  13.297  14.040  13.102
36728SOL    HW112017  13.272  13.964  13.155
36728SOL    HW212018  13.262  14.115  13.150
36729SOL     OW12019   1.012   6.019   2.985
36729SOL    HW112020   1.038   6.105   3.018
36729SOL    HW212021   0.964   6.038   2.905
36730SOL     OW12022   4.772   7.147   4.904
36730SOL    HW112023   4.719   7.068   4.917
36730SOL    HW212024   4.853   7.129   4.951
36731SOL     OW12025  11.824  10.992   6.313
36731SOL    HW112026  11.744  11.010   6.262
36731SOL    HW212027  11.871  11.075   6.313
36732SOL     OW12028  10.371   6.370  11.839
36732SOL    HW112029  10.299   6.403  11.786
36732SOL    HW212030  10.355   6.407  11.926
36733SOL     OW12031   1.150   6.824   6.974
36733SOL    HW112032   1.122   6.892   6.913
36733SOL    HW212033   1.216   6.867   7.029
36734SOL     OW12034   5.424   4.170   4.466
36734SOL    HW112035   5.501   4.184   4.411
36734SOL    HW212036   5.444   4.214   4.548
36735SOL     OW12037   8.494  12.083   5.019
36735SOL    HW112038   8.443  12.116   5.093
36735SOL    HW212039   8.583  12.115   5.035
36736SOL     OW12040  11.829  11.105   9.611
36736SOL    HW112041  11.756  11.086   9.670
36736SOL    HW212042  11.790  11.103   9.524
36737SOL     OW12043   9.317   5.917   1.019
36737SOL    HW112044   9.303   5.981   0.949
36737SOL    HW212045   9.286   5.962   1.098
36738SOL     OW12046   8.734   7.188  12.490
36738SOL    HW112047   8.735   7.213  12.583
36738SOL    HW212048   8.706   7.267  12.445
36739SOL     OW12049  11.027   4.599   3.918
36739SOL    HW112050  11.051   4.645   3.998
36739SOL    HW212051  10.966   4.531   3.946
36740SOL     OW12052   7.752  12.077  10.683
36740SOL    HW112053   7.765  12.030  10.765
36740SOL    HW212054   7.760  12.009  10.615
36741SOL     OW12055  12.801  11.954  13.813
36741SOL    HW112056  12.791  11.860  13.799
36741SOL    HW212057  12.780  11.993  13.728
36742SOL     OW12058   1.395   7.731  13.598
36742SOL    HW112059   1.393   7.658  13.536
36742SOL    HW212060   1.310   7.773  13.589
36743SOL     OW12061  10.515   8.103   1.868
36743SOL    HW112062  10.595   8.080   1.822
36743SOL    HW212063  10.444   8.073   1.810
36744SOL     OW12064   9.585   5.133   2.810
36744SOL    HW112065   9.576   5.109   2.902
36744SOL    HW212066   9.518   5.199   2.795
36745SOL     OW12067   4.897  13.548  13.811
36745SOL    HW112068   4.805  13.575  13.810
36745SOL    HW212069   4.903  13.484  13.882
36746SOL     OW12070   2.522   8.778   1.839
36746SOL    HW112071   2.494   8.831   1.914
36746SOL    HW212072   2.560   8.699   1.878
36747SOL     OW12073  12.240   8.010   4.432
36747SOL    HW112074  12.268   8.041   4.518
36747SOL    HW212075  12.145   8.025   4.431
36748SOL     OW12076  10.421   3.068  14.640
36748SOL    HW112077  10.467   3.065  14.556
36748SOL    HW212078  10.489   3.087  14.704
36749SOL     OW12079   7.083   0.766   8.703
36749SOL    HW112080   7.094   0.750   8.797
36749SOL    HW212081   6.997   0.806   8.695
36750SOL     OW12082  10.943   1.599   1.137
36750SOL    HW112083  10.963   1.625   1.227
36750SOL    HW212084  11.028   1.601   1.092
36751SOL     OW12085  11.360   7.723   3.079
36751SOL    HW112086  11.347   7.697   2.988
36751SOL    HW212087  11.397   7.812   3.074
36752SOL     OW12088   8.122   9.770   9.365
36752SOL    HW112089   8.054   9.777   9.298
36752SOL    HW212090   8.075   9.772   9.448
36753SOL     OW12091   7.731   0.744   1.644
36753SOL    HW112092   7.729   0.672   1.706
36753SOL    HW212093   7.648   0.790   1.657
36754SOL     OW12094  13.796   3.226  13.991
36754SOL    HW112095  13.854   3.153  13.971
36754SOL    HW212096  13.711   3.185  14.009
36755SOL     OW12097  10.149   3.097   7.183
36755SOL    HW112098  10.151   3.006   7.211
36755SOL    HW212099  10.115   3.094   7.094
36756SOL     OW12100   1.649   8.700  11.805
36756SOL    HW112101   1.735   8.726  11.772
36756SOL    HW212102   1.604   8.663  11.729
36757SOL     OW12103   0.011   0.512   4.948
36757SOL    HW112104  14.848   0.554   5.026
36757SOL    HW212105  14.807   0.484   4.898
36758SOL     OW12106  13.804  12.164   8.917
36758SOL    HW112107  13.724  12.125   8.883
36758SOL    HW212108  13.845  12.204   8.840
36759SOL     OW12109   7.799  14.007  11.482
36759SOL    HW112110   7.729  13.950  11.449
36759SOL    HW212111   7.795  13.997  11.577
36760SOL     OW12112   2.497   7.537  13.898
36760SOL    HW112113   2.510   7.562  13.990
36760SOL    HW212114   2.586   7.519  13.866
36761SOL     OW12115  12.247   0.363   2.479
36761SOL    HW112116  12.179   0.374   2.545
36761SOL    HW212117  12.313   0.308   2.521
36762SOL     OW12118  12.152   9.470   5.398
36762SOL    HW112119  12.202   9.389   5.393
36762SOL    HW212120  12.082   9.451   5.460
36763SOL     OW12121   7.422   9.039  14.452
36763SOL    HW112122   7.383   8.963  14.496
36763SOL    HW212123   7.439   9.008  14.363
36764SOL     OW12124  12.034   1.300  13.920
36764SOL    HW112125  12.093   1.244  13.869
36764SOL    HW212126  12.043   1.386  13.881
36765SOL     OW12127  14.810   7.405   6.039
36765SOL    HW112128  14.746   7.463   5.999
36765SOL    HW212129  14.762   7.325   6.059
36766SOL     OW12130  11.502   9.168   4.613
36766SOL    HW112131  11.497   9.113   4.535
36766SOL    HW212132  11.553   9.117   4.675
36767SOL     OW12133   8.281  10.307   8.864
36767SOL    HW112134   8.249  10.257   8.789
36767SOL    HW212135   8.215  10.375   8.877
36768SOL     OW12136   0.412   0.735   2.559
36768SOL    HW112137   0.372   0.758   2.475
36768SOL    HW212138   0.362   0.659   2.589
36769SOL     OW12139  13.430  12.002  11.477
36769SOL    HW112140  13.475  12.069  11.426
36769SOL    HW212141  13.499  11.964  11.532
36770SOL     OW12142  13.905   8.246   8.998
36770SOL    HW112143  13.920   8.221   8.907
36770SOL    HW212144  13.854   8.328   8.991
36771SOL     OW12145   7.099   3.935   3.893
36771SOL    HW112146   7.086   3.903   3.982
36771SOL    HW212147   7.192   3.923   3.877
36772SOL     OW12148   3.591  11.549   8.486
36772SOL    HW112149   3.533  11.513   8.418
36772SOL    HW212150   3.568  11.641   8.491
36773SOL     OW12151  11.098  14.793  11.217
36773SOL    HW112152  11.024  14.764  11.270
36773SOL    HW212153  11.170  14.735  11.243
36774SOL     OW12154   9.900   7.621   7.282
36774SOL    HW112155   9.955   7.643   7.357
36774SOL    HW212156   9.961   7.592   7.214
36775SOL     OW12157   6.994   0.571   3.672
36775SOL    HW112158   6.985   0.663   3.645
36775SOL    HW212159   7.020   0.525   3.592
36776SOL     OW12160   9.555   6.185  12.764
36776SOL    HW112161   9.632   6.243  12.759
36776SOL    HW212162   9.547   6.149  12.676
36777SOL     OW12163   9.325  11.700   8.140
36777SOL    HW112164   9.262  11.670   8.206
36777SOL    HW212165   9.410  11.682   8.179
36778SOL     OW12166   6.343   6.867   8.105
36778SOL    HW112167   6.355   6.784   8.058
36778SOL    HW212168   6.369   6.934   8.041
36779SOL     OW12169   6.980   4.241   6.489
36779SOL    HW112170   6.951   4.231   6.398
36779SOL    HW212171   6.983   4.151   6.522
36780SOL     OW12172  14.158   3.370  10.253
36780SOL    HW112173  14.249   3.357  10.228
36780SOL    HW212174  14.162   3.399  10.344
36781SOL     OW12175  13.572  12.630   5.822
36781SOL    HW112176  13.575  12.723   5.797
36781SOL    HW212177  13.644  12.590   5.772
36782SOL     OW12178   3.287  10.563   9.271
36782SOL    HW112179   3.265  10.591   9.359
36782SOL    HW212180   3.354  10.625   9.241
36783SOL     OW12181   6.227   9.784  12.827
36783SOL    HW112182   6.236   9.695  12.860
36783SOL    HW212183   6.247   9.840  12.902
36784SOL     OW12184   6.721  11.307   1.031
36784SOL    HW112185   6.680  11.379   0.982
36784SOL    HW212186   6.808  11.341   1.054
36785SOL     OW12187   2.506   6.796   4.530
36785SOL    HW112188   2.555   6.855   4.473
36785SOL    HW212189   2.508   6.712   4.485
36786SOL     OW12190   5.270   0.511  12.498
36786SOL    HW112191   5.254   0.529  12.405
36786SOL    HW212192   5.264   0.597  12.539
36787SOL     OW12193   6.899   8.877   8.247
36787SOL    HW112194   6.960   8.822   8.199
36787SOL    HW212195   6.812   8.843   8.225
36788SOL     OW12196  12.540  11.252   6.926
36788SOL    HW112197  12.492  11.266   6.844
36788SOL    HW212198  12.602  11.182   6.905
36789SOL     OW12199   7.086  12.970   5.400
36789SOL    HW112200   7.003  12.922   5.406
36789SOL    HW212201   7.062  13.062   5.413
36790SOL     OW12202   7.744   1.880   0.540
36790SOL    HW112203   7.738   1.913   0.450
36790SOL    HW212204   7.837   1.858   0.551
36791SOL     OW12205   7.739  12.338  10.502
36791SOL    HW112206   7.801  12.410  10.513
36791SOL    HW212207   7.707  12.320  10.590
36792SOL     OW12208   0.532   5.825   6.211
36792SOL    HW112209   0.527   5.769   6.133
36792SOL    HW212210   0.502   5.769   6.283
36793SOL     OW12211   4.776  12.079   0.170
36793SOL    HW112212   4.850  12.129   0.204
36793SOL    HW212213   4.717  12.070   0.245
36794SOL     OW12214  10.613   5.152   3.523
36794SOL    HW112215  10.654   5.070   3.495
36794SOL    HW212216  10.558   5.127   3.597
36795SOL     OW12217  11.763   1.965   0.921
36795SOL    HW112218  11.775   2.001   1.008
36795SOL    HW212219  11.727   1.877   0.936
36796SOL     OW12220   1.340   2.161   7.622
36796SOL    HW112221   1.351   2.093   7.688
36796SOL    HW212222   1.422   2.210   7.624
36797SOL     OW12223  14.194   5.875   3.813
36797SOL    HW112224  14.133   5.846   3.881
36797SOL    HW212225  14.264   5.809   3.814
36798SOL     OW12226  11.946   2.368   0.041
36798SOL    HW112227  11.902   2.341   0.122
36798SOL    HW212228  11.882   2.349  14.845
36799SOL     OW12229  13.257  14.145  10.372
36799SOL    HW112230  13.228  14.083  10.305
36799SOL    HW212231  13.304  14.091  10.435
36800SOL     OW12232  13.679   5.123  14.771
36800SOL    HW112233  13.663   5.083  14.857
36800SOL    HW212234  13.664   5.052  14.709
36801SOL     OW12235  14.628   4.293  13.093
36801SOL    HW112236  14.689   4.361  13.123
36801SOL    HW212237  14.604   4.246  13.173
36802SOL     OW12238   3.669   8.803  14.822
36802SOL    HW112239   3.699   8.791   0.039
36802SOL    HW212240   3.714   8.735  14.772
36803SOL     OW12241  12.175   7.329  10.861
36803SOL    HW112242  12.228   7.389  10.913
36803SOL    HW212243  12.235   7.259  10.836
36804SOL     OW12244   1.253   7.743   3.358
36804SOL    HW112245   1.248   7.833   3.324
36804SOL    HW212246   1.186   7.740   3.426
36805SOL     OW12247   6.575  11.321   1.586
36805SOL    HW112248   6.492  11.325   1.538
36805SOL    HW212249   6.642  11.344   1.521
36806SOL     OW12250   3.640  13.082   4.644
36806SOL    HW112251   3.683  13.097   4.560
36806SOL    HW212252   3.600  12.995   4.636
36807SOL     OW12253   8.990   0.340   0.445
36807SOL    HW112254   9.016   0.250   0.424
36807SOL    HW212255   8.953   0.373   0.363
36808SOL     OW12256  14.726   8.918  12.110
36808SOL    HW112257  14.743   8.898  12.202
36808SOL    HW212258  14.631   8.920  12.103
36809SOL     OW12259  14.261   0.475   1.244
36809SOL    HW112260  14.276   0.470   1.339
36809SOL    HW212261  14.325   0.539   1.213
36810SOL     OW12262  10.829  13.423   8.652
36810SOL    HW112263  10.770  13.352   8.626
36810SOL    HW212264  10.850  13.405   8.744
36811SOL     OW12265   9.694   1.030  12.341
36811SOL    HW112266   9.659   1.120  12.342
36811SOL    HW212267   9.788   1.042  12.331
36812SOL     OW12268   3.259   9.102   1.877
36812SOL    HW112269   3.275   9.007   1.880
36812SOL    HW212270   3.347   9.140   1.881
36813SOL     OW12271   8.408   8.778  11.671
36813SOL    HW112272   8.492   8.743  11.700
36813SOL    HW212273   8.423   8.872  11.662
36814SOL     OW12274   1.979  12.210   6.045
36814SOL    HW112275   2.072  12.196   6.065
36814SOL    HW212276   1.944  12.250   6.125
36815SOL     OW12277   5.438   4.070  12.115
36815SOL    HW112278   5.367   4.076  12.180
36815SOL    HW212279   5.517   4.059  12.167
36816SOL     OW12280   5.088  11.507   2.390
36816SOL    HW112281   5.086  11.411   2.387
36816SOL    HW212282   5.059  11.534   2.303
36817SOL     OW12283   6.252  10.809   7.494
36817SOL    HW112284   6.314  10.745   7.531
36817SOL    HW212285   6.231  10.775   7.407
36818SOL     OW12286  13.585   9.236  10.147
36818SOL    HW112287  13.491   9.240  10.131
36818SOL    HW212288  13.617   9.170  10.085
36819SOL     OW12289   4.261   7.050  11.941
36819SOL    HW112290   4.240   7.079  11.852
36819SOL    HW212291   4.182   7.006  11.971
36820SOL     OW12292   3.278   5.918  11.695
36820SOL    HW112293   3.201   5.945  11.646
36820SOL    HW212294   3.335   5.877  11.629
36821SOL     OW12295   8.470   2.078  11.246
36821SOL    HW112296   8.521   2.085  11.326
36821SOL    HW212297   8.435   2.166  11.231
36822SOL     OW12298   8.362   1.876  11.964
36822SOL    HW112299   8.320   1.808  11.910
36822SOL    HW212300   8.451   1.845  11.977
36823SOL     OW12301  10.076   5.513   3.117
36823SOL    HW112302   9.988   5.545   3.135
36823SOL    HW212303  10.084   5.517   3.022
36824SOL     OW12304  10.550  11.976   1.733
36824SOL    HW112305  10.498  12.037   1.681
36824SOL    HW212306  10.641  11.998   1.714
36825SOL     OW12307  12.422   4.664  13.836
36825SOL    HW112308  12.362   4.610  13.888
36825SOL    HW212309  12.377   4.748  13.826
36826SOL     OW12310  14.566   3.910   8.118
36826SOL    HW112311  14.581   3.956   8.036
36826SOL    HW212312  14.588   3.819   8.099
36827SOL     OW12313   9.041   0.089  11.597
36827SOL    HW112314   9.092   0.162  11.562
36827SOL    HW212315   9.106   0.028  11.631
36828SOL     OW12316   6.502   2.527  13.696
36828SOL    HW112317   6.521   2.468  13.623
36828SOL    HW212318   6.419   2.568  13.673
36829SOL     OW12319   8.505  10.424   7.239
36829SOL    HW112320   8.599  10.415   7.223
36829SOL    HW212321   8.465  10.401   7.155
36830SOL     OW12322  10.055   2.003   0.800
36830SOL    HW112323  10.051   2.025   0.893
36830SOL    HW212324  10.116   1.930   0.795
36831SOL     OW12325   3.740  14.747  13.464
36831SOL    HW112326   3.672  14.707  13.518
36831SOL    HW212327   3.747  14.836  13.498
36832SOL     OW12328   4.034   8.598   0.343
36832SOL    HW112329   3.970   8.657   0.302
36832SOL    HW212330   4.114   8.650   0.350
36833SOL     OW12331  12.156   7.627   4.758
36833SOL    HW112332  12.121   7.618   4.847
36833SOL    HW212333  12.229   7.565   4.755
36834SOL     OW12334   1.843  10.998  12.445
36834SOL    HW112335   1.774  11.004  12.512
36834SOL    HW212336   1.808  11.043  12.369
36835SOL     OW12337   2.338   6.762  14.093
36835SOL    HW112338   2.299   6.829  14.150
36835SOL    HW212339   2.428   6.792  14.081
36836SOL     OW12340  11.836   1.241  14.553
36836SOL    HW112341  11.780   1.164  14.561
36836SOL    HW212342  11.917   1.207  14.514
36837SOL     OW12343  13.174  12.313  11.266
36837SOL    HW112344  13.241  12.318  11.335
36837SOL    HW212345  13.136  12.400  11.262
36838SOL     OW12346  12.834   0.110   1.005
36838SOL    HW112347  12.880   0.113   1.089
36838SOL    HW212348  12.741   0.111   1.029
36839SOL     OW12349  14.387   6.117   9.984
36839SOL    HW112350  14.440   6.142   9.908
36839SOL    HW212351  14.447   6.070  10.041
36840SOL     OW12352   5.494   7.066   7.368
36840SOL    HW112353   5.477   7.005   7.440
36840SOL    HW212354   5.481   7.014   7.289
36841SOL     OW12355  13.180   8.193  14.357
36841SOL    HW112356  13.118   8.128  14.389
36841SOL    HW212357  13.245   8.201  14.426
36842SOL     OW12358  10.111   2.160   2.256
36842SOL    HW112359  10.134   2.253   2.249
36842SOL    HW212360  10.189   2.113   2.226
36843SOL     OW12361   6.057   0.083   3.812
36843SOL    HW112362   6.031   0.138   3.886
36843SOL    HW212363   6.010   0.119   3.738
36844SOL     OW12364   0.018  14.158  13.434
36844SOL    HW112365  14.829  14.125  13.499
36844SOL    HW212366   0.104  14.131  13.466
36845SOL     OW12367   4.986   3.376   6.421
36845SOL    HW112368   4.907   3.427   6.405
36845SOL    HW212369   4.956   3.285   6.422
36846SOL     OW12370   9.938   0.188  13.069
36846SOL    HW112371   9.885   0.128  13.121
36846SOL    HW212372   9.980   0.245  13.133
36847SOL     OW12373  12.579   3.496   2.724
36847SOL    HW112374  12.574   3.587   2.754
36847SOL    HW212375  12.667   3.487   2.688
36848SOL     OW12376   2.192   8.233   4.922
36848SOL    HW112377   2.212   8.257   4.831
36848SOL    HW212378   2.154   8.312   4.960
36849SOL     OW12379   8.928   3.821   1.125
36849SOL    HW112380   8.908   3.911   1.098
36849SOL    HW212381   8.987   3.788   1.056
36850SOL     OW12382   7.515  11.273   8.775
36850SOL    HW112383   7.498  11.305   8.864
36850SOL    HW212384   7.482  11.183   8.775
36851SOL     OW12385   2.942  10.576   2.181
36851SOL    HW112386   2.982  10.499   2.221
36851SOL    HW212387   2.852  10.576   2.214
36852SOL     OW12388   4.201  11.254  14.496
36852SOL    HW112389   4.235  11.343  14.494
36852SOL    HW212390   4.157  11.247  14.581
36853SOL     OW12391  14.033   2.631  14.810
36853SOL    HW112392  14.022   2.725  14.799
36853SOL    HW212393  13.945   2.595  14.796
36854SOL     OW12394  12.297   5.990   1.256
36854SOL    HW112395  12.373   6.015   1.203
36854SOL    HW212396  12.288   6.061   1.320
36855SOL     OW12397  11.000   3.442   1.570
36855SOL    HW112398  11.085   3.465   1.605
36855SOL    HW212399  10.937   3.488   1.625
36856SOL     OW12400   2.243   4.479  12.980
36856SOL    HW112401   2.332   4.514  12.988
36856SOL    HW212402   2.210   4.477  13.069
36857SOL     OW12403   8.270  14.434  14.147
36857SOL    HW112404   8.301  14.347  14.172
36857SOL    HW212405   8.344  14.492  14.162
36858SOL     OW12406   7.916   8.171   7.532
36858SOL    HW112407   7.983   8.135   7.474
36858SOL    HW212408   7.837   8.175   7.479
36859SOL     OW12409   3.908   4.158   3.073
36859SOL    HW112410   3.949   4.163   3.159
36859SOL    HW212411   3.831   4.102   3.085
36860SOL     OW12412   3.373  11.469   8.301
36860SOL    HW112413   3.346  11.521   8.225
36860SOL    HW212414   3.341  11.381   8.282
36861SOL     OW12415   0.413   9.772   0.613
36861SOL    HW112416   0.423   9.731   0.699
36861SOL    HW212417   0.471   9.848   0.615
36862SOL     OW12418   9.316   8.885   3.939
36862SOL    HW112419   9.235   8.865   3.985
36862SOL    HW212420   9.385   8.856   3.999
36863SOL     OW12421   5.065   5.921   0.154
36863SOL    HW112422   4.981   5.930   0.109
36863SOL    HW212423   5.093   6.012   0.169
36864SOL     OW12424   6.589  13.376   7.994
36864SOL    HW112425   6.497  13.403   7.986
36864SOL    HW212426   6.612  13.342   7.908
36865SOL     OW12427   8.363   5.418  10.145
36865SOL    HW112428   8.315   5.453  10.220
36865SOL    HW212429   8.449   5.395  10.179
36866SOL     OW12430   8.023   9.865   0.764
36866SOL    HW112431   8.022   9.955   0.732
36866SOL    HW212432   7.948   9.860   0.824
36867SOL     OW12433   9.542  10.067   8.136
36867SOL    HW112434   9.577  10.116   8.209
36867SOL    HW212435   9.509   9.985   8.175
36868SOL     OW12436   3.317  13.605   7.364
36868SOL    HW112437   3.262  13.624   7.440
36868SOL    HW212438   3.275  13.651   7.292
36869SOL     OW12439   6.896   3.336  11.795
36869SOL    HW112440   6.820   3.309  11.745
36869SOL    HW212441   6.901   3.272  11.867
36870SOL     OW12442   0.162   7.950   0.746
36870SOL    HW112443   0.069   7.934   0.765
36870SOL    HW212444   0.191   8.008   0.816
36871SOL     OW12445   9.797   5.703  12.525
36871SOL    HW112446   9.772   5.674  12.437
36871SOL    HW212447   9.816   5.796  12.516
36872SOL     OW12448   2.658   5.291   3.273
36872SOL    HW112449   2.636   5.240   3.351
36872SOL    HW212450   2.750   5.269   3.255
36873SOL     OW12451   2.395   4.874   1.096
36873SOL    HW112452   2.441   4.954   1.069
36873SOL    HW212453   2.405   4.815   1.021
36874SOL     OW12454   5.188   5.774   1.247
36874SOL    HW112455   5.156   5.858   1.214
36874SOL    HW212456   5.110   5.728   1.277
36875SOL     OW12457   1.142   2.111   1.658
36875SOL    HW112458   1.197   2.033   1.663
36875SOL    HW212459   1.202   2.184   1.666
36876SOL     OW12460   5.625   4.089   2.240
36876SOL    HW112461   5.669   4.160   2.286
36876SOL    HW212462   5.587   4.130   2.163
36877SOL     OW12463   9.785   2.421   2.016
36877SOL    HW112464   9.705   2.375   2.039
36877SOL    HW212465   9.774   2.444   1.923
36878SOL     OW12466   7.531   5.462   9.306
36878SOL    HW112467   7.444   5.463   9.346
36878SOL    HW212468   7.547   5.553   9.283
36879SOL     OW12469   5.950   4.016   8.961
36879SOL    HW112470   5.865   4.005   8.916
36879SOL    HW212471   6.015   4.011   8.891
36880SOL     OW12472  10.450   1.424  12.764
36880SOL    HW112473  10.495   1.364  12.704
36880SOL    HW212474  10.501   1.505  12.759
36881SOL     OW12475   1.012   9.476   6.362
36881SOL    HW112476   1.032   9.513   6.448
36881SOL    HW212477   0.921   9.446   6.370
36882SOL     OW12478   4.838  10.945   5.315
36882SOL    HW112479   4.923  10.976   5.347
36882SOL    HW212480   4.797  10.904   5.392
36883SOL     OW12481  14.481  12.755   1.085
36883SOL    HW112482  14.558  12.806   1.110
36883SOL    HW212483  14.516  12.676   1.043
36884SOL     OW12484  12.692   2.502   8.802
36884SOL    HW112485  12.668   2.425   8.752
36884SOL    HW212486  12.788   2.501   8.804
36885SOL     OW12487   6.412   6.388   4.593
36885SOL    HW112488   6.498   6.359   4.621
36885SOL    HW212489   6.408   6.480   4.619
36886SOL     OW12490  12.792   8.222   4.184
36886SOL    HW112491  12.743   8.139   4.181
36886SOL    HW212492  12.852   8.211   4.257
36887SOL     OW12493  14.293   4.128   9.992
36887SOL    HW112494  14.244   4.055   9.953
36887SOL    HW212495  14.257   4.136  10.080
36888SOL     OW12496  12.326   0.336   5.347
36888SOL    HW112497  12.307   0.248   5.380
36888SOL    HW212498  12.409   0.360   5.389
36889SOL     OW12499  11.604   8.378   5.396
36889SOL    HW112500  11.599   8.299   5.450
36889SOL    HW212501  11.668   8.357   5.329
36890SOL     OW12502   7.455   3.778   4.108
36890SOL    HW112503   7.472   3.862   4.152
36890SOL    HW212504   7.497   3.713   4.163
36891SOL     OW12505   3.205   9.292   0.246
36891SOL    HW112506   3.162   9.361   0.296
36891SOL    HW212507   3.147   9.277   0.171
36892SOL     OW12508   5.934   5.009  12.405
36892SOL    HW112509   6.016   4.966  12.428
36892SOL    HW212510   5.909   4.970  12.321
36893SOL     OW12511  11.271  11.031   7.127
36893SOL    HW112512  11.188  11.026   7.080
36893SOL    HW212513  11.330  11.079   7.068
36894SOL     OW12514   8.537   4.681   4.583
36894SOL    HW112515   8.446   4.677   4.610
36894SOL    HW212516   8.586   4.688   4.665
36895SOL     OW12517   9.929   6.322  11.106
36895SOL    HW112518   9.967   6.343  11.020
36895SOL    HW212519   9.974   6.380  11.167
36896SOL     OW12520  10.418  10.510   5.440
36896SOL    HW112521  10.441  10.422   5.408
36896SOL    HW212522  10.361  10.494   5.515
36897SOL     OW12523  10.989   0.673   5.459
36897SOL    HW112524  10.902   0.673   5.419
36897SOL    HW212525  10.974   0.648   5.550
36898SOL     OW12526  12.990   0.727  13.676
36898SOL    HW112527  12.949   0.672  13.609
36898SOL    HW212528  12.918   0.776  13.714
36899SOL     OW12529  13.723  12.194  12.463
36899SOL    HW112530  13.789  12.130  12.489
36899SOL    HW212531  13.773  12.274  12.445
36900SOL     OW12532  11.775  11.735   0.434
36900SOL    HW112533  11.827  11.734   0.354
36900SOL    HW212534  11.765  11.642   0.457
36901SOL     OW12535   9.183   5.080   3.758
36901SOL    HW112536   9.173   5.044   3.846
36901SOL    HW212537   9.272   5.116   3.757
36902SOL     OW12538  11.671   2.936   0.729
36902SOL    HW112539  11.752   2.978   0.698
36902SOL    HW212540  11.689   2.843   0.724
36903SOL     OW12541   9.128   8.578  13.302
36903SOL    HW112542   9.075   8.499  13.292
36903SOL    HW212543   9.212   8.557  13.261
36904SOL     OW12544   3.207  14.710  10.431
36904SOL    HW112545   3.149  14.643  10.397
36904SOL    HW212546   3.223  14.685  10.522
36905SOL     OW12547   3.624  10.799  12.828
36905SOL    HW112548   3.580  10.742  12.892
36905SOL    HW212549   3.681  10.854  12.881
36906SOL     OW12550   5.129   8.498  12.409
36906SOL    HW112551   5.079   8.426  12.369
36906SOL    HW212552   5.094   8.577  12.368
36907SOL     OW12553   1.980   5.333   6.913
36907SOL    HW112554   1.991   5.268   6.843
36907SOL    HW212555   2.018   5.293   6.990
36908SOL     OW12556   8.701  10.505   8.797
36908SOL    HW112557   8.762  10.573   8.825
36908SOL    HW212558   8.738  10.423   8.830
36909SOL     OW12559   2.284   6.569  13.848
36909SOL    HW112560   2.254   6.636  13.786
36909SOL    HW212561   2.294   6.616  13.931
36910SOL     OW12562  11.010  12.764   7.238
36910SOL    HW112563  11.020  12.710   7.159
36910SOL    HW212564  10.916  12.783   7.242
36911SOL     OW12565  13.104  11.522   9.451
36911SOL    HW112566  13.022  11.565   9.427
36911SOL    HW212567  13.120  11.549   9.542
36912SOL     OW12568  11.865   8.199  12.160
36912SOL    HW112569  11.900   8.161  12.079
36912SOL    HW212570  11.892   8.138  12.229
36913SOL     OW12571   6.695   8.260   9.309
36913SOL    HW112572   6.787   8.285   9.318
36913SOL    HW212573   6.652   8.340   9.277
36914SOL     OW12574   9.488   9.915   9.536
36914SOL    HW112575   9.555   9.886   9.598
36914SOL    HW212576   9.501  10.010   9.529
36915SOL     OW12577  11.863   0.864  12.164
36915SOL    HW112578  11.921   0.788  12.168
36915SOL    HW212579  11.778   0.831  12.194
36916SOL     OW12580   9.701   8.991   8.318
36916SOL    HW112581   9.638   8.992   8.245
36916SOL    HW212582   9.659   9.042   8.387
36917SOL     OW12583   1.280  10.263   5.635
36917SOL    HW112584   1.251  10.235   5.722
36917SOL    HW212585   1.201  10.261   5.582
36918SOL     OW12586  11.724  12.871   8.704
36918SOL    HW112587  11.635  12.903   8.686
36918SOL    HW212588  11.766  12.943   8.750
36919SOL     OW12589   3.587  14.314   4.645
36919SOL    HW112590   3.500  14.336   4.611
36919SOL    HW212591   3.647  14.368   4.595
36920SOL     OW12592  13.465  11.013   4.422
36920SOL    HW112593  13.518  10.933   4.414
36920SOL    HW212594  13.466  11.051   4.334
36921SOL     OW12595  13.850  14.512  13.412
36921SOL    HW112596  13.767  14.545  13.445
36921SOL    HW212597  13.828  14.467  13.330
36922SOL     OW12598   4.629   4.929  10.364
36922SOL    HW112599   4.628   5.020  10.393
36922SOL    HW212600   4.540   4.897  10.381
36923SOL     OW12601   4.976   4.850   5.543
36923SOL    HW112602   4.899   4.805   5.510
36923SOL    HW212603   4.965   4.941   5.515
36924SOL     OW12604   7.316  13.673   5.025
36924SOL    HW112605   7.290  13.638   4.940
36924SOL    HW212606   7.264  13.753   5.036
36925SOL     OW12607  12.192   6.508   4.455
36925SOL    HW112608  12.206   6.538   4.545
36925SOL    HW212609  12.190   6.588   4.403
36926SOL     OW12610   1.496   1.969  13.075
36926SOL    HW112611   1.440   2.028  13.125
36926SOL    HW212612   1.562   2.027  13.036
36927SOL     OW12613   5.711  13.004   6.079
36927SOL    HW112614   5.794  12.962   6.099
36927SOL    HW212615   5.650  12.931   6.064
36928SOL     OW12616   3.403   2.723  11.175
36928SOL    HW112617   3.352   2.799  11.148
36928SOL    HW212618   3.476   2.718  11.113
36929SOL     OW12619   3.999  14.621   2.837
36929SOL    HW112620   3.914  14.650   2.804
36929SOL    HW212621   4.009  14.664   2.922
36930SOL     OW12622   8.308  14.770   9.620
36930SOL    HW112623   8.294  14.680   9.590
36930SOL    HW212624   8.228  14.792   9.669
36931SOL     OW12625   1.683   6.714   0.618
36931SOL    HW112626   1.591   6.709   0.643
36931SOL    HW212627   1.699   6.808   0.607
36932SOL     OW12628  14.528  11.517   4.356
36932SOL    HW112629  14.586  11.471   4.296
36932SOL    HW212630  14.448  11.532   4.305
36933SOL     OW12631   5.759  14.829   4.949
36933SOL    HW112632   5.693  14.840   5.017
36933SOL    HW212633   5.841  14.814   4.996
36934SOL     OW12634   3.990   8.246   1.572
36934SOL    HW112635   4.077   8.284   1.574
36934SOL    HW212636   3.998   8.166   1.625
36935SOL     OW12637  10.393   8.107   5.291
36935SOL    HW112638  10.476   8.073   5.257
36935SOL    HW212639  10.419   8.177   5.352
36936SOL     OW12640  13.867  11.757   3.112
36936SOL    HW112641  13.835  11.713   3.033
36936SOL    HW212642  13.799  11.822   3.132
36937SOL     OW12643  13.483   6.933   1.991
36937SOL    HW112644  13.571   6.943   1.955
36937SOL    HW212645  13.475   6.839   2.009
36938SOL     OW12646   7.853   1.438  12.472
36938SOL    HW112647   7.814   1.517  12.509
36938SOL    HW212648   7.778   1.390  12.435
36939SOL     OW12649  12.702   4.474   0.451
36939SOL    HW112650  12.612   4.500   0.471
36939SOL    HW212651  12.724   4.525   0.373
36940SOL     OW12652  10.865   4.937  14.751
36940SOL    HW112653  10.813   5.017  14.750
36940SOL    HW212654  10.872   4.913  14.843
36941SOL     OW12655  11.231   8.283   0.767
36941SOL    HW112656  11.318   8.253   0.738
36941SOL    HW212657  11.214   8.232   0.846
36942SOL     OW12658   2.668  14.219   7.308
36942SOL    HW112659   2.608  14.291   7.287
36942SOL    HW212660   2.732  14.219   7.237
36943SOL     OW12661   5.450   5.478   0.545
36943SOL    HW112662   5.414   5.518   0.466
36943SOL    HW212663   5.465   5.386   0.520
36944SOL     OW12664   3.511   0.386   7.215
36944SOL    HW112665   3.474   0.334   7.143
36944SOL    HW212666   3.441   0.447   7.239
36945SOL     OW12667   4.906   2.776   8.240
36945SOL    HW112668   4.933   2.861   8.204
36945SOL    HW212669   4.900   2.790   8.335
36946SOL     OW12670   7.637  10.773   5.541
36946SOL    HW112671   7.653  10.737   5.453
36946SOL    HW212672   7.676  10.860   5.538
36947SOL     OW12673   7.499  13.377   6.591
36947SOL    HW112674   7.514  13.471   6.604
36947SOL    HW212675   7.421  13.358   6.642
36948SOL     OW12676   6.788   2.601   7.991
36948SOL    HW112677   6.803   2.508   8.002
36948SOL    HW212678   6.790   2.637   8.080
36949SOL     OW12679   1.527   9.339   8.002
36949SOL    HW112680   1.465   9.269   7.982
36949SOL    HW212681   1.472   9.414   8.026
36950SOL     OW12682  10.703   3.339   4.255
36950SOL    HW112683  10.728   3.294   4.335
36950SOL    HW212684  10.729   3.280   4.184
36951SOL     OW12685   8.044  11.315   6.989
36951SOL    HW112686   8.058  11.370   6.912
36951SOL    HW212687   7.990  11.243   6.958
36952SOL     OW12688  12.398   7.494   3.817
36952SOL    HW112689  12.469   7.557   3.802
36952SOL    HW212690  12.437   7.409   3.797
36953SOL     OW12691   2.317  11.124   6.276
36953SOL    HW112692   2.387  11.150   6.336
36953SOL    HW212693   2.262  11.202   6.268
36954SOL     OW12694  13.221   2.305   3.431
36954SOL    HW112695  13.299   2.253   3.453
36954SOL    HW212696  13.228   2.383   3.485
36955SOL     OW12697   7.464   7.768  10.766
36955SOL    HW112698   7.372   7.787  10.751
36955SOL    HW212699   7.464   7.707  10.840
36956SOL     OW12700   8.548  13.732   9.955
36956SOL    HW112701   8.596  13.652   9.933
36956SOL    HW212702   8.456  13.703   9.961
36957SOL     OW12703   5.734   2.382   9.477
36957SOL    HW112704   5.738   2.371   9.572
36957SOL    HW212705   5.655   2.434   9.461
36958SOL     OW12706   4.338  14.701  14.490
36958SOL    HW112707   4.402  14.632  14.504
36958SOL    HW212708   4.264  14.678  14.547
36959SOL     OW12709   4.384   5.084  13.396
36959SOL    HW112710   4.429   5.017  13.344
36959SOL    HW212711   4.324   5.126  13.334
36960SOL     OW12712   1.832   4.503   8.986
36960SOL    HW112713   1.759   4.497   8.924
36960SOL    HW212714   1.837   4.416   9.026
36961SOL     OW12715   9.095   5.629   7.726
36961SOL    HW112716   9.056   5.700   7.675
36961SOL    HW212717   9.179   5.664   7.757
36962SOL     OW12718   2.939   7.164   5.086
36962SOL    HW112719   2.944   7.104   5.160
36962SOL    HW212720   2.965   7.249   5.122
36963SOL     OW12721   8.465  11.865   7.044
36963SOL    HW112722   8.414  11.843   6.966
36963SOL    HW212723   8.449  11.958   7.059
36964SOL     OW12724  11.227  11.462   6.849
36964SOL    HW112725  11.306  11.509   6.875
36964SOL    HW212726  11.155  11.514   6.887
36965SOL     OW12727  12.802   6.626   1.095
36965SOL    HW112728  12.861   6.685   1.048
36965SOL    HW212729  12.735   6.683   1.131
36966SOL     OW12730   0.436   8.370  13.567
36966SOL    HW112731   0.360   8.328  13.607
36966SOL    HW212732   0.399   8.442  13.516
36967SOL     OW12733  12.109   9.743   9.786
36967SOL    HW112734  12.181   9.708   9.733
36967SOL    HW212735  12.071   9.667   9.830
36968SOL     OW12736   7.192   8.921  10.033
36968SOL    HW112737   7.182   8.826  10.029
36968SOL    HW212738   7.258   8.941   9.966
36969SOL     OW12739   1.730   8.110   4.886
36969SOL    HW112740   1.739   8.109   4.981
36969SOL    HW212741   1.817   8.086   4.853
36970SOL     OW12742   3.113   3.418   2.260
36970SOL    HW112743   3.137   3.458   2.176
36970SOL    HW212744   3.104   3.492   2.320
36971SOL     OW12745  13.297   9.631   4.286
36971SOL    HW112746  13.302   9.715   4.240
36971SOL    HW212747  13.386   9.597   4.283
36972SOL     OW12748   4.676   6.582   0.335
36972SOL    HW112749   4.725   6.506   0.367
36972SOL    HW212750   4.680   6.574   0.240
36973SOL     OW12751  13.411  11.869   8.682
36973SOL    HW112752  13.344  11.843   8.746
36973SOL    HW212753  13.381  11.831   8.600
36974SOL     OW12754   6.931  13.744   1.236
36974SOL    HW112755   6.969  13.811   1.179
36974SOL    HW212756   6.840  13.771   1.248
36975SOL     OW12757   8.419   0.783   4.538
36975SOL    HW112758   8.495   0.742   4.499
36975SOL    HW212759   8.454   0.856   4.589
36976SOL     OW12760   7.900  10.104  14.655
36976SOL    HW112761   7.962  10.164  14.697
36976SOL    HW212762   7.955  10.036  14.616
36977SOL     OW12763   2.288  13.937   3.151
36977SOL    HW112764   2.364  13.957   3.097
36977SOL    HW212765   2.253  14.023   3.175
36978SOL     OW12766   1.947   1.503   8.960
36978SOL    HW112767   1.869   1.550   8.989
36978SOL    HW212768   1.915   1.419   8.929
36979SOL     OW12769  13.035   4.471   4.816
36979SOL    HW112770  13.033   4.551   4.869
36979SOL    HW212771  13.122   4.435   4.830
36980SOL     OW12772   5.694   0.294   6.361
36980SOL    HW112773   5.604   0.319   6.381
36980SOL    HW212774   5.693   0.199   6.360
36981SOL     OW12775   1.187  13.301   3.359
36981SOL    HW112776   1.219  13.382   3.398
36981SOL    HW212777   1.113  13.275   3.414
36982SOL     OW12778   7.539   4.059   8.073
36982SOL    HW112779   7.479   4.134   8.070
36982SOL    HW212780   7.516   4.008   7.996
36983SOL     OW12781   4.132   0.370   2.220
36983SOL    HW112782   4.220   0.408   2.218
36983SOL    HW212783   4.145   0.279   2.194
36984SOL     OW12784  11.758   1.657  13.518
36984SOL    HW112785  11.676   1.705  13.503
36984SOL    HW212786  11.730   1.574  13.556
36985SOL     OW12787   4.239   2.442   8.969
36985SOL    HW112788   4.274   2.473   9.053
36985SOL    HW212789   4.156   2.399   8.992
36986SOL     OW12790   3.355  11.091   1.733
36986SOL    HW112791   3.317  11.014   1.775
36986SOL    HW212792   3.283  11.127   1.680
36987SOL     OW12793  12.841   0.802   6.378
36987SOL    HW112794  12.774   0.808   6.310
36987SOL    HW212795  12.917   0.763   6.333
36988SOL     OW12796   3.577  14.811  10.601
36988SOL    HW112797   3.582   0.018  10.654
36988SOL    HW212798   3.522  14.835  10.527
36989SOL     OW12799   8.304   1.281  10.311
36989SOL    HW112800   8.376   1.309  10.254
36989SOL    HW212801   8.246   1.357  10.316
36990SOL     OW12802  11.888  12.994   9.636
36990SOL    HW112803  11.942  13.042   9.700
36990SOL    HW212804  11.950  12.940   9.588
36991SOL     OW12805   4.814   9.649   5.534
36991SOL    HW112806   4.865   9.694   5.467
36991SOL    HW212807   4.821   9.556   5.510
36992SOL     OW12808  11.025   3.941  13.420
36992SOL    HW112809  10.933   3.933  13.444
36992SOL    HW212810  11.073   3.909  13.496
36993SOL     OW12811   3.580   9.273   6.806
36993SOL    HW112812   3.574   9.183   6.774
36993SOL    HW212813   3.568   9.327   6.729
36994SOL     OW12814   3.207   4.122  13.395
36994SOL    HW112815   3.276   4.060  13.371
36994SOL    HW212816   3.231   4.154  13.482
36995SOL     OW12817   7.129   9.166  13.529
36995SOL    HW112818   7.137   9.261  13.541
36995SOL    HW212819   7.219   9.135  13.518
36996SOL     OW12820   7.282   2.517  12.112
36996SOL    HW112821   7.290   2.443  12.173
36996SOL    HW212822   7.233   2.583  12.162
36997SOL     OW12823   2.726  14.587   3.202
36997SOL    HW112824   2.754  14.496   3.208
36997SOL    HW212825   2.764  14.618   3.119
36998SOL     OW12826   6.980  12.071   4.800
36998SOL    HW112827   6.964  12.058   4.706
36998SOL    HW212828   7.041  12.145   4.804
36999SOL     OW12829   4.983   1.518  13.514
36999SOL    HW112830   5.037   1.562  13.448
36999SOL    HW212831   4.912   1.580  13.532
37000SOL     OW12832  10.294   1.234   6.030
37000SOL    HW112833  10.222   1.170   6.037
37000SOL    HW212834  10.259   1.303   5.974
37001SOL     OW12835  11.100  12.587  11.773
37001SOL    HW112836  11.117  12.494  11.789
37001SOL    HW212837  11.181  12.631  11.796
37002SOL     OW12838   1.121   1.246  12.682
37002SOL    HW112839   1.033   1.274  12.656
37002SOL    HW212840   1.151   1.313  12.743
37003SOL     OW12841  11.876  10.932   2.887
37003SOL    HW112842  11.928  10.873   2.940
37003SOL    HW212843  11.869  11.012   2.939
37004SOL     OW12844   6.437  13.025   0.578
37004SOL    HW112845   6.421  12.983   0.662
37004SOL    HW212846   6.470  13.112   0.600
37005SOL     OW12847  13.526  14.626   8.401
37005SOL    HW112848  13.614  14.656   8.377
37005SOL    HW212849  13.468  14.695   8.368
37006SOL     OW12850  11.199   7.855   7.441
37006SOL    HW112851  11.107   7.827   7.441
37006SOL    HW212852  11.210   7.900   7.357
37007SOL     OW12853   5.570  14.402   7.816
37007SOL    HW112854   5.630  14.467   7.853
37007SOL    HW212855   5.578  14.327   7.874
37008SOL     OW12856   4.441  10.209  13.210
37008SOL    HW112857   4.415  10.116  13.208
37008SOL    HW212858   4.436  10.234  13.302
37009SOL     OW12859   5.836  13.385   8.904
37009SOL    HW112860   5.835  13.354   8.813
37009SOL    HW212861   5.890  13.321   8.950
37010SOL     OW12862   0.010   7.712   6.918
37010SOL    HW112863   0.000   7.741   6.827
37010SOL    HW212864  14.798   7.732   6.959
37011SOL     OW12865   0.165  10.196   7.737
37011SOL    HW112866   0.208  10.267   7.689
37011SOL    HW212867   0.237  10.138   7.763
37012SOL     OW12868   4.560  11.473  14.322
37012SOL    HW112869   4.572  11.386  14.285
37012SOL    HW212870   4.646  11.514  14.316
37013SOL     OW12871  13.136  11.701  13.395
37013SOL    HW112872  13.113  11.625  13.449
37013SOL    HW212873  13.069  11.702  13.327
37014SOL     OW12874   1.971  12.432   2.199
37014SOL    HW112875   2.038  12.481   2.151
37014SOL    HW212876   1.942  12.364   2.138
37015SOL     OW12877   1.382   3.742   6.142
37015SOL    HW112878   1.427   3.678   6.199
37015SOL    HW212879   1.396   3.826   6.185
37016SOL     OW12880   3.421  12.545   3.113
37016SOL    HW112881   3.446  12.634   3.135
37016SOL    HW212882   3.375  12.513   3.191
37017SOL     OW12883  14.218   2.051   2.064
37017SOL    HW112884  14.245   2.078   2.152
37017SOL    HW212885  14.237   1.958   2.060
37018SOL     OW12886  12.899  10.760  11.310
37018SOL    HW112887  12.906  10.665  11.299
37018SOL    HW212888  12.857  10.791  11.230
37019SOL     OW12889   0.100  13.332   6.845
37019SOL    HW112890   0.114  13.418   6.805
37019SOL    HW212891   0.081  13.275   6.770
37020SOL     OW12892  12.087   8.488   6.699
37020SOL    HW112893  12.059   8.520   6.784
37020SOL    HW212894  12.046   8.402   6.691
37021SOL     OW12895   1.018  10.018   3.194
37021SOL    HW112896   1.078  10.001   3.122
37021SOL    HW212897   1.032   9.946   3.255
37022SOL     OW12898  14.219   4.831   5.659
37022SOL    HW112899  14.293   4.892   5.656
37022SOL    HW212900  14.143   4.886   5.640
37023SOL     OW12901  11.518   4.533   8.244
37023SOL    HW112902  11.556   4.472   8.308
37023SOL    HW212903  11.528   4.488   8.160
37024SOL     OW12904   9.198  14.504  14.827
37024SOL    HW112905   9.163  14.573   0.010
37024SOL    HW212906   9.137  14.431  14.837
37025SOL     OW12907   6.918   3.746   5.234
37025SOL    HW112908   6.982   3.802   5.278
37025SOL    HW212909   6.967   3.700   5.167
37026SOL     OW12910   1.006   9.572   1.672
37026SOL    HW112911   1.056   9.626   1.610
37026SOL    HW212912   0.939   9.632   1.707
37027SOL     OW12913  10.599   2.816   5.364
37027SOL    HW112914  10.678   2.850   5.321
37027SOL    HW212915  10.555   2.895   5.397
37028SOL     OW12916   8.049   6.681   5.798
37028SOL    HW112917   7.980   6.617   5.818
37028SOL    HW212918   8.021   6.761   5.842
37029SOL     OW12919   7.928   9.003   9.995
37029SOL    HW112920   7.843   8.978   9.959
37029SOL    HW212921   7.964   9.064   9.931
37030SOL     OW12922  10.787   9.282   8.181
37030SOL    HW112923  10.881   9.295   8.194
37030SOL    HW212924  10.772   9.304   8.089
37031SOL     OW12925   5.496  13.055   3.864
37031SOL    HW112926   5.529  13.094   3.945
37031SOL    HW212927   5.568  13.065   3.801
37032SOL     OW12928  12.236  13.629   8.749
37032SOL    HW112929  12.276  13.544   8.770
37032SOL    HW212930  12.289  13.693   8.795
37033SOL     OW12931  11.148   9.560   8.816
37033SOL    HW112932  11.082   9.520   8.873
37033SOL    HW212933  11.187   9.487   8.769
37034SOL     OW12934   4.444  10.279   0.816
37034SOL    HW112935   4.412  10.199   0.858
37034SOL    HW212936   4.441  10.260   0.723
37035SOL     OW12937  10.793   8.399   7.253
37035SOL    HW112938  10.888   8.406   7.244
37035SOL    HW212939  10.774   8.445   7.334
37036SOL     OW12940   7.720   4.097   5.010
37036SOL    HW112941   7.801   4.049   5.029
37036SOL    HW212942   7.745   4.189   5.013
37037SOL     OW12943   0.338   1.315  10.543
37037SOL    HW112944   0.384   1.357  10.470
37037SOL    HW212945   0.406   1.301  10.609
37038SOL     OW12946   1.963   6.768   7.941
37038SOL    HW112947   1.929   6.697   7.886
37038SOL    HW212948   1.887   6.796   7.992
37039SOL     OW12949   9.693  12.558   1.800
37039SOL    HW112950   9.663  12.612   1.873
37039SOL    HW212951   9.614  12.543   1.748
37040SOL     OW12952   9.946   8.667  13.144
37040SOL    HW112953   9.913   8.757  13.142
37040SOL    HW212954   9.975   8.654  13.234
37041SOL     OW12955  10.173   6.457   0.196
37041SOL    HW112956  10.256   6.474   0.241
37041SOL    HW212957  10.109   6.448   0.266
37042SOL     OW12958  10.583   4.626  13.063
37042SOL    HW112959  10.568   4.581  13.146
37042SOL    HW212960  10.498   4.627  13.020
37043SOL     OW12961  14.089   6.302   6.719
37043SOL    HW112962  14.083   6.209   6.744
37043SOL    HW212963  14.119   6.300   6.628
37044SOL     OW12964   0.940   5.684  14.791
37044SOL    HW112965   0.874   5.643  14.736
37044SOL    HW212966   0.944   5.774  14.759
37045SOL     OW12967   4.117   6.946  11.656
37045SOL    HW112968   4.162   6.865  11.682
37045SOL    HW212969   4.059   6.965  11.729
37046SOL     OW12970   4.751   4.892   0.487
37046SOL    HW112971   4.825   4.920   0.433
37046SOL    HW212972   4.700   4.971   0.502
37047SOL     OW12973   2.164  10.945   7.403
37047SOL    HW112974   2.146  11.034   7.372
37047SOL    HW212975   2.255  10.929   7.377
37048SOL     OW12976   2.690   4.555   9.135
37048SOL    HW112977   2.677   4.502   9.057
37048SOL    HW212978   2.776   4.528   9.167
37049SOL     OW12979   1.789  10.692  14.707
37049SOL    HW112980   1.740  10.740  14.639
37049SOL    HW212981   1.795  10.603  14.673
37050SOL     OW12982  10.660  13.333   3.273
37050SOL    HW112983  10.704  13.304   3.353
37050SOL    HW212984  10.696  13.276   3.205
37051SOL     OW12985  12.308   0.879   5.566
37051SOL    HW112986  12.245   0.830   5.619
37051SOL    HW212987  12.378   0.901   5.627
37052SOL     OW12988  13.574   8.115   4.810
37052SOL    HW112989  13.600   8.189   4.754
37052SOL    HW212990  13.635   8.119   4.884
37053SOL     OW12991  13.579  14.457  13.029
37053SOL    HW112992  13.569  14.380  13.085
37053SOL    HW212993  13.665  14.492  13.053
37054SOL     OW12994  10.622   2.087   0.581
37054SOL    HW112995  10.541   2.114   0.537
37054SOL    HW212996  10.659   2.019   0.524
37055SOL     OW12997   4.442  10.653   5.852
37055SOL    HW112998   4.371  10.623   5.910
37055SOL    HW212999   4.457  10.744   5.878
37056SOL     OW13000  14.163   6.772   1.623
37056SOL    HW113001  14.100   6.701   1.610
37056SOL    HW213002  14.241   6.729   1.656
37057SOL     OW13003  12.293   4.991   6.600
37057SOL    HW113004  12.331   5.068   6.557
37057SOL    HW213005  12.250   5.026   6.678
37058SOL     OW13006  10.744   9.414   8.806
37058SOL    HW113007  10.796   9.467   8.746
37058SOL    HW213008  10.805   9.390   8.876
37059SOL     OW13009  11.884  11.967   4.290
37059SOL    HW113010  11.834  11.901   4.339
37059SOL    HW213011  11.932  11.918   4.224
37060SOL     OW13012   4.919   6.364   8.836
37060SOL    HW113013   4.959   6.288   8.794
37060SOL    HW213014   4.979   6.436   8.817
37061SOL     OW13015   7.192  13.217   5.416
37061SOL    HW113016   7.220  13.147   5.356
37061SOL    HW213017   7.262  13.283   5.411
37062SOL     OW13018  10.961   1.011   4.969
37062SOL    HW113019  10.910   0.958   4.908
37062SOL    HW213020  11.045   1.025   4.926
37063SOL     OW13021  11.129  11.829   3.850
37063SOL    HW113022  11.130  11.904   3.909
37063SOL    HW213023  11.125  11.752   3.908
37064SOL     OW13024  14.833   2.425   1.696
37064SOL    HW113025   0.018   2.398   1.767
37064SOL    HW213026  14.869   2.382   1.618
37065SOL     OW13027   0.273   4.015   4.077
37065SOL    HW113028   0.283   3.920   4.069
37065SOL    HW213029   0.262   4.046   3.987
37066SOL     OW13030  13.244   6.249   1.903
37066SOL    HW113031  13.314   6.313   1.892
37066SOL    HW213032  13.260   6.211   1.989
37067SOL     OW13033   4.147  12.688   6.651
37067SOL    HW113034   4.154  12.599   6.685
37067SOL    HW213035   4.201  12.741   6.710
37068SOL     OW13036   7.361  12.092  13.120
37068SOL    HW113037   7.293  12.158  13.110
37068SOL    HW213038   7.443  12.141  13.113
37069SOL     OW13039   8.218  11.999  11.494
37069SOL    HW113040   8.301  11.997  11.446
37069SOL    HW213041   8.164  11.933  11.450
37070SOL     OW13042   8.976   8.763   6.938
37070SOL    HW113043   8.959   8.857   6.939
37070SOL    HW213044   8.902   8.726   6.890
37071SOL     OW13045   4.826  12.127  10.329
37071SOL    HW113046   4.919  12.103  10.334
37071SOL    HW213047   4.812  12.149  10.237
37072SOL     OW13048   3.301   9.292  13.671
37072SOL    HW113049   3.290   9.345  13.750
37072SOL    HW213050   3.257   9.341  13.602
37073SOL     OW13051  14.294   9.884  12.729
37073SOL    HW113052  14.251   9.833  12.661
37073SOL    HW213053  14.381   9.903  12.693
37074SOL     OW13054   4.652  12.422   0.248
37074SOL    HW113055   4.744  12.396   0.239
37074SOL    HW213056   4.622  12.377   0.327
37075SOL     OW13057   2.800   6.981   0.521
37075SOL    HW113058   2.747   7.047   0.565
37075SOL    HW213059   2.844   6.934   0.591
37076SOL     OW13060  12.442   9.345   6.550
37076SOL    HW113061  12.410   9.259   6.523
37076SOL    HW213062  12.497   9.327   6.626
37077SOL     OW13063   5.761  11.243   3.788
37077SOL    HW113064   5.688  11.305   3.779
37077SOL    HW213065   5.721  11.166   3.829
37078SOL     OW13066   9.395   2.970  10.103
37078SOL    HW113067   9.324   2.910  10.079
37078SOL    HW213068   9.375   2.995  10.194
37079SOL     OW13069  11.543   2.605   2.668
37079SOL    HW113070  11.472   2.669   2.676
37079SOL    HW213071  11.606   2.632   2.734
37080SOL     OW13072   0.767   0.700  14.104
37080SOL    HW113073   0.810   0.662  14.181
37080SOL    HW213074   0.803   0.651  14.030
37081SOL     OW13075  13.552  11.695   5.497
37081SOL    HW113076  13.542  11.790   5.486
37081SOL    HW213077  13.474  11.668   5.545
37082SOL     OW13078  12.537   7.378  13.071
37082SOL    HW113079  12.555   7.472  13.081
37082SOL    HW213080  12.448   7.367  13.106
37083SOL     OW13081   0.333   8.482   0.647
37083SOL    HW113082   0.254   8.519   0.686
37083SOL    HW213083   0.347   8.534   0.568
37084SOL     OW13084   8.053   0.462   6.095
37084SOL    HW113085   7.978   0.412   6.065
37084SOL    HW213086   8.016   0.533   6.148
37085SOL     OW13087  10.265   3.029   6.868
37085SOL    HW113088  10.251   2.953   6.811
37085SOL    HW213089  10.360   3.038   6.873
37086SOL     OW13090   2.084  12.694   3.834
37086SOL    HW113091   2.017  12.641   3.877
37086SOL    HW213092   2.093  12.772   3.890
37087SOL     OW13093   4.421   8.649   0.513
37087SOL    HW113094   4.422   8.573   0.571
37087SOL    HW213095   4.499   8.640   0.459
37088SOL     OW13096   2.225   2.032  11.589
37088SOL    HW113097   2.216   1.963  11.655
37088SOL    HW213098   2.225   2.113  11.640
37089SOL     OW13099  13.087  13.670  14.542
37089SOL    HW113100  13.058  13.761  14.534
37089SOL    HW213101  13.114  13.646  14.453
37090SOL     OW13102   0.519  10.875   0.021
37090SOL    HW113103   0.540  10.859  14.802
37090SOL    HW213104   0.592  10.927   0.055
37091SOL     OW13105   1.359   0.024   0.126
37091SOL    HW113106   1.336  14.814   0.170
37091SOL    HW213107   1.274   0.065   0.106
37092SOL     OW13108  11.417   2.794  13.400
37092SOL    HW113109  11.390   2.833  13.483
37092SOL    HW213110  11.494   2.845  13.374
37093SOL     OW13111   2.903  14.240   5.257
37093SOL    HW113112   2.969  14.222   5.190
37093SOL    HW213113   2.895  14.335   5.259
37094SOL     OW13114   2.484   6.063   9.421
37094SOL    HW113115   2.556   6.105   9.374
37094SOL    HW213116   2.518   6.047   9.509
37095SOL     OW13117  12.444  13.710   3.928
37095SOL    HW113118  12.351  13.719   3.947
37095SOL    HW213119  12.479  13.661   4.003
37096SOL     OW13120   6.664  12.020   0.232
37096SOL    HW113121   6.726  12.038   0.304
37096SOL    HW213122   6.716  12.031   0.153
37097SOL     OW13123   7.272   0.734   1.222
37097SOL    HW113124   7.298   0.816   1.265
37097SOL    HW213125   7.179   0.724   1.243
37098SOL     OW13126   8.051   4.029  14.169
37098SOL    HW113127   8.063   4.108  14.221
37098SOL    HW213128   8.068   3.957  14.230
37099SOL     OW13129  14.677   8.001   0.076
37099SOL    HW113130  14.672   8.035  14.859
37099SOL    HW213131  14.739   8.059   0.120
37100SOL     OW13132   5.132   7.547   3.498
37100SOL    HW113133   5.068   7.571   3.565
37100SOL    HW213134   5.163   7.631   3.463
37101SOL     OW13135   0.383  11.573  14.657
37101SOL    HW113136   0.390  11.478  14.659
37101SOL    HW213137   0.474  11.603  14.649
37102SOL     OW13138  12.130   2.310  11.228
37102SOL    HW113139  12.106   2.233  11.279
37102SOL    HW213140  12.103   2.289  11.138
37103SOL     OW13141  13.020   7.571   8.019
37103SOL    HW113142  13.021   7.557   7.924
37103SOL    HW213143  13.092   7.633   8.035
37104SOL     OW13144   7.521  14.789   6.188
37104SOL    HW113145   7.530  14.703   6.227
37104SOL    HW213146   7.611  14.821   6.179
37105SOL     OW13147  12.312   7.464   6.128
37105SOL    HW113148  12.366   7.488   6.053
37105SOL    HW213149  12.228   7.438   6.091
37106SOL     OW13150   6.508   4.022   8.239
37106SOL    HW113151   6.450   4.015   8.163
37106SOL    HW213152   6.524   3.931   8.265
37107SOL     OW13153  13.460   6.498  11.044
37107SOL    HW113154  13.472   6.552  11.122
37107SOL    HW213155  13.493   6.411  11.069
37108SOL     OW13156   6.170   1.892   4.893
37108SOL    HW113157   6.204   1.914   4.806
37108SOL    HW213158   6.075   1.884   4.880
37109SOL     OW13159   0.106   0.522  13.377
37109SOL    HW113160   0.116   0.456  13.446
37109SOL    HW213161   0.141   0.602  13.416
37110SOL     OW13162   6.012   3.696   1.704
37110SOL    HW113163   6.098   3.733   1.721
37110SOL    HW213164   6.000   3.629   1.772
37111SOL     OW13165   3.570   6.700  14.769
37111SOL    HW113166   3.506   6.641  14.810
37111SOL    HW213167   3.543   6.788  14.796
37112SOL     OW13168   8.335   8.464   8.522
37112SOL    HW113169   8.403   8.436   8.584
37112SOL    HW213170   8.375   8.453   8.436
37113SOL     OW13171   5.333   1.537   4.176
37113SOL    HW113172   5.324   1.571   4.264
37113SOL    HW213173   5.351   1.444   4.188
37114SOL     OW13174   8.969   9.836  10.937
37114SOL    HW113175   8.986   9.848  10.844
37114SOL    HW213176   9.016   9.756  10.961
37115SOL     OW13177   0.629   0.279   2.273
37115SOL    HW113178   0.615   0.324   2.356
37115SOL    HW213179   0.578   0.330   2.210
37116SOL     OW13180   4.616   5.021   1.788
37116SOL    HW113181   4.616   5.001   1.882
37116SOL    HW213182   4.648   4.941   1.746
37117SOL     OW13183   9.700   9.168   3.539
37117SOL    HW113184   9.721   9.202   3.452
37117SOL    HW213185   9.622   9.115   3.526
37118SOL     OW13186  13.201   0.342   0.707
37118SOL    HW113187  13.252   0.368   0.784
37118SOL    HW213188  13.171   0.425   0.670
37119SOL     OW13189   0.362  11.298  10.641
37119SOL    HW113190   0.273  11.263  10.649
37119SOL    HW213191   0.352  11.393  10.654
37120SOL     OW13192   2.640   4.513  11.588
37120SOL    HW113193   2.663   4.461  11.511
37120SOL    HW213194   2.722   4.554  11.614
37121SOL     OW13195   7.738  10.428   5.382
37121SOL    HW113196   7.708  10.408   5.471
37121SOL    HW213197   7.666  10.477   5.343
37122SOL     OW13198  14.448   3.590   5.021
37122SOL    HW113199  14.391   3.665   5.040
37122SOL    HW213200  14.501   3.619   4.947
37123SOL     OW13201   5.756  10.843  14.712
37123SOL    HW113202   5.693  10.787  14.758
37123SOL    HW213203   5.745  10.819  14.620
37124SOL     OW13204   5.303   8.012   2.812
37124SOL    HW113205   5.329   7.956   2.738
37124SOL    HW213206   5.383   8.021   2.864
37125SOL     OW13207   3.708   4.424  11.355
37125SOL    HW113208   3.625   4.391  11.387
37125SOL    HW213209   3.716   4.511  11.395
37126SOL     OW13210   4.010   1.854   1.585
37126SOL    HW113211   4.000   1.949   1.573
37126SOL    HW213212   3.930   1.817   1.548
37127SOL     OW13213   5.813  11.796   8.669
37127SOL    HW113214   5.750  11.820   8.737
37127SOL    HW213215   5.811  11.700   8.668
37128SOL     OW13216   2.570  10.018   9.343
37128SOL    HW113217   2.563  10.062   9.258
37128SOL    HW213218   2.606   9.932   9.322
37129SOL     OW13219   3.514   3.670  14.047
37129SOL    HW113220   3.423   3.643  14.060
37129SOL    HW213221   3.511   3.732  13.975
37130SOL     OW13222   9.488  11.687   7.153
37130SOL    HW113223   9.525  11.774   7.134
37130SOL    HW213224   9.415  11.705   7.213
37131SOL     OW13225  13.193   6.146   4.405
37131SOL    HW113226  13.216   6.098   4.325
37131SOL    HW213227  13.215   6.087   4.476
37132SOL     OW13228  14.528   7.177  14.054
37132SOL    HW113229  14.551   7.205  14.143
37132SOL    HW213230  14.488   7.091  14.066
37133SOL     OW13231   6.470   8.311   6.080
37133SOL    HW113232   6.519   8.341   6.157
37133SOL    HW213233   6.514   8.230   6.054
37134SOL     OW13234  11.020   7.817   5.566
37134SOL    HW113235  11.051   7.879   5.631
37134SOL    HW213236  10.975   7.749   5.616
37135SOL     OW13237   7.647  12.972  13.499
37135SOL    HW113238   7.589  12.933  13.564
37135SOL    HW213239   7.697  13.038  13.548
37136SOL     OW13240   7.761   9.880  14.493
37136SOL    HW113241   7.749   9.975  14.495
37136SOL    HW213242   7.768   9.855  14.585
37137SOL     OW13243   6.309   9.464   3.620
37137SOL    HW113244   6.355   9.545   3.598
37137SOL    HW213245   6.342   9.439   3.706
37138SOL     OW13246   3.754   6.499   0.985
37138SOL    HW113247   3.691   6.437   1.022
37138SOL    HW213248   3.802   6.533   1.061
37139SOL     OW13249   3.809   5.980  10.079
37139SOL    HW113250   3.765   5.896  10.071
37139SOL    HW213251   3.793   6.024   9.995
37140SOL     OW13252   7.445   9.703  11.744
37140SOL    HW113253   7.377   9.765  11.769
37140SOL    HW213254   7.400   9.635  11.695
37141SOL     OW13255   4.142  11.816  11.814
37141SOL    HW113256   4.187  11.900  11.824
37141SOL    HW213257   4.059  11.827  11.862
37142SOL     OW13258   4.846   3.586  11.760
37142SOL    HW113259   4.911   3.569  11.692
37142SOL    HW213260   4.823   3.499  11.794
37143SOL     OW13261   9.103   3.692   4.150
37143SOL    HW113262   9.024   3.738   4.179
37143SOL    HW213263   9.092   3.685   4.055
37144SOL     OW13264   0.841   8.605  12.803
37144SOL    HW113265   0.747   8.607  12.784
37144SOL    HW213266   0.859   8.692  12.838
37145SOL     OW13267  14.191   8.353   2.916
37145SOL    HW113268  14.210   8.336   2.823
37145SOL    HW213269  14.137   8.279   2.943
37146SOL     OW13270   8.894   5.121   6.312
37146SOL    HW113271   8.886   5.055   6.243
37146SOL    HW213272   8.890   5.072   6.394
37147SOL     OW13273   7.994   4.222   7.617
37147SOL    HW113274   8.038   4.306   7.604
37147SOL    HW213275   8.047   4.159   7.569
37148SOL     OW13276   0.159   2.951   8.212
37148SOL    HW113277   0.077   2.954   8.162
37148SOL    HW213278   0.156   3.030   8.267
37149SOL     OW13279  13.760  10.248   4.772
37149SOL    HW113280  13.692  10.259   4.706
37149SOL    HW213281  13.730  10.175   4.825
37150SOL     OW13282   9.150  11.013  14.459
37150SOL    HW113283   9.106  11.096  14.443
37150SOL    HW213284   9.196  10.993  14.377
37151SOL     OW13285   4.473  11.969   1.380
37151SOL    HW113286   4.560  11.943   1.410
37151SOL    HW213287   4.414  11.941   1.451
37152SOL     OW13288   7.876  11.815   1.594
37152SOL    HW113289   7.894  11.725   1.567
37152SOL    HW213290   7.807  11.806   1.660
37153SOL     OW13291  14.046   3.113  14.689
37153SOL    HW113292  14.069   3.206  14.686
37153SOL    HW213293  13.956   3.111  14.721
37154SOL     OW13294  13.410  12.636   6.646
37154SOL    HW113295  13.368  12.709   6.602
37154SOL    HW213296  13.430  12.574   6.575
37155SOL     OW13297   9.891  10.268   0.440
37155SOL    HW113298   9.921  10.348   0.398
37155SOL    HW213299   9.849  10.297   0.521
37156SOL     OW13300  11.772   9.963  13.819
37156SOL    HW113301  11.710   9.891  13.815
37156SOL    HW213302  11.723  10.034  13.861
37157SOL     OW13303   1.186   9.781   6.233
37157SOL    HW113304   1.258   9.790   6.296
37157SOL    HW213305   1.108   9.805   6.283
37158SOL     OW13306   9.656   0.288   9.359
37158SOL    HW113307   9.722   0.230   9.398
37158SOL    HW213308   9.686   0.302   9.269
37159SOL     OW13309  11.201  12.237   9.041
37159SOL    HW113310  11.247  12.272   8.965
37159SOL    HW213311  11.195  12.143   9.025
37160SOL     OW13312   6.292   5.961   2.041
37160SOL    HW113313   6.211   6.000   2.007
37160SOL    HW213314   6.362   6.007   1.994
37161SOL     OW13315   0.404   2.812  13.197
37161SOL    HW113316   0.486   2.862  13.192
37161SOL    HW213317   0.365   2.838  13.280
37162SOL     OW13318   1.335   7.318  14.605
37162SOL    HW113319   1.415   7.296  14.558
37162SOL    HW213320   1.325   7.413  14.593
37163SOL     OW13321   5.826   4.483  10.825
37163SOL    HW113322   5.878   4.478  10.905
37163SOL    HW213323   5.740   4.449  10.850
37164SOL     OW13324  10.947   5.947  12.535
37164SOL    HW113325  10.862   5.985  12.514
37164SOL    HW213326  10.926   5.863  12.577
37165SOL     OW13327  12.593   7.888   9.982
37165SOL    HW113328  12.648   7.838   9.922
37165SOL    HW213329  12.613   7.853  10.069
37166SOL     OW13330  12.856   7.361  13.901
37166SOL    HW113331  12.796   7.299  13.859
37166SOL    HW213332  12.824   7.447  13.876
37167SOL     OW13333   1.827   4.759   0.336
37167SOL    HW113334   1.857   4.834   0.388
37167SOL    HW213335   1.825   4.791   0.246
37168SOL     OW13336   2.703   0.710   6.032
37168SOL    HW113337   2.650   0.630   6.028
37168SOL    HW213338   2.738   0.711   6.121
37169SOL     OW13339  14.230   1.432  10.548
37169SOL    HW113340  14.248   1.507  10.605
37169SOL    HW213341  14.276   1.359  10.590
37170SOL     OW13342   0.813  13.855   7.705
37170SOL    HW113343   0.863  13.883   7.781
37170SOL    HW213344   0.846  13.768   7.685
37171SOL     OW13345   2.185  11.315   9.496
37171SOL    HW113346   2.107  11.273   9.462
37171SOL    HW213347   2.257  11.256   9.472
37172SOL     OW13348   6.087   0.957   2.046
37172SOL    HW113349   6.020   1.023   2.063
37172SOL    HW213350   6.062   0.882   2.099
37173SOL     OW13351   6.202   8.847   6.243
37173SOL    HW113352   6.165   8.848   6.331
37173SOL    HW213353   6.235   8.758   6.232
37174SOL     OW13354  13.520   5.225   8.340
37174SOL    HW113355  13.434   5.183   8.353
37174SOL    HW213356  13.571   5.199   8.417
37175SOL     OW13357  13.071  12.618   5.086
37175SOL    HW113358  13.007  12.669   5.036
37175SOL    HW213359  13.133  12.586   5.020
37176SOL     OW13360   5.914   0.411   5.752
37176SOL    HW113361   5.984   0.379   5.694
37176SOL    HW213362   5.935   0.374   5.837
37177SOL     OW13363   5.743  11.081   7.261
37177SOL    HW113364   5.761  11.037   7.179
37177SOL    HW213365   5.717  11.170   7.236
37178SOL     OW13366  11.626   8.999   1.712
37178SOL    HW113367  11.590   9.065   1.772
37178SOL    HW213368  11.550   8.968   1.662
37179SOL     OW13369  13.746   8.961   8.776
37179SOL    HW113370  13.719   8.878   8.738
37179SOL    HW213371  13.672   8.988   8.831
37180SOL     OW13372   2.174  13.540   9.287
37180SOL    HW113373   2.237  13.603   9.322
37180SOL    HW213374   2.227  13.470   9.251
37181SOL     OW13375   2.169  14.671   6.607
37181SOL    HW113376   2.165  14.577   6.593
37181SOL    HW213377   2.192  14.707   6.521
37182SOL     OW13378   1.665  13.129   8.853
37182SOL    HW113379   1.732  13.153   8.789
37182SOL    HW213380   1.713  13.113   8.934
37183SOL     OW13381  10.874  11.993  13.775
37183SOL    HW113382  10.889  12.021  13.865
37183SOL    HW213383  10.792  12.036  13.750
37184SOL     OW13384  14.189   4.063  12.511
37184SOL    HW113385  14.237   4.142  12.486
37184SOL    HW213386  14.115   4.095  12.562
37185SOL     OW13387   9.329   4.372   0.754
37185SOL    HW113388   9.421   4.347   0.742
37185SOL    HW213389   9.280   4.291   0.739
37186SOL     OW13390   6.077   7.183  11.280
37186SOL    HW113391   6.154   7.205  11.333
37186SOL    HW213392   6.024   7.127  11.337
37187SOL     OW13393   8.766   8.097   4.826
37187SOL    HW113394   8.791   8.005   4.824
37187SOL    HW213395   8.723   8.109   4.911
37188SOL     OW13396  13.454   9.388   3.990
37188SOL    HW113397  13.364   9.408   4.018
37188SOL    HW213398  13.469   9.298   4.019
37189SOL     OW13399  13.062   1.555   2.084
37189SOL    HW113400  13.103   1.476   2.122
37189SOL    HW213401  12.981   1.523   2.046
37190SOL     OW13402   8.288   4.027   5.467
37190SOL    HW113403   8.230   4.101   5.488
37190SOL    HW213404   8.232   3.966   5.418
37191SOL     OW13405  12.942   6.005   4.244
37191SOL    HW113406  13.032   5.975   4.248
37191SOL    HW213407  12.911   5.998   4.335
37192SOL     OW13408   2.908  11.904   8.630
37192SOL    HW113409   2.954  11.863   8.703
37192SOL    HW213410   2.833  11.848   8.614
37193SOL     OW13411   8.123   5.780   4.541
37193SOL    HW113412   8.109   5.744   4.454
37193SOL    HW213413   8.215   5.804   4.543
37194SOL     OW13414   5.457   2.871   6.118
37194SOL    HW113415   5.404   2.900   6.192
37194SOL    HW213416   5.395   2.864   6.046
37195SOL     OW13417   5.786  11.866  12.955
37195SOL    HW113418   5.822  11.838  12.871
37195SOL    HW213419   5.696  11.891  12.936
37196SOL     OW13420  14.229   1.877  12.949
37196SOL    HW113421  14.147   1.831  12.963
37196SOL    HW213422  14.216   1.963  12.990
37197SOL     OW13423   7.695   2.940  13.236
37197SOL    HW113424   7.633   2.867  13.242
37197SOL    HW213425   7.642   3.014  13.206
37198SOL     OW13426   6.069  12.194   4.185
37198SOL    HW113427   6.136  12.157   4.128
37198SOL    HW213428   5.990  12.197   4.131
37199SOL     OW13429   2.936   5.905  14.234
37199SOL    HW113430   2.992   5.832  14.261
37199SOL    HW213431   2.850   5.884  14.270
37200SOL     OW13432   2.809   3.580   7.641
37200SOL    HW113433   2.905   3.574   7.635
37200SOL    HW213434   2.785   3.644   7.575
37201SOL     OW13435   4.357   6.306   8.827
37201SOL    HW113436   4.347   6.350   8.742
37201SOL    HW213437   4.440   6.340   8.862
37202SOL     OW13438   6.503   9.427  13.803
37202SOL    HW113439   6.415   9.463  13.804
37202SOL    HW213440   6.515   9.394  13.714
37203SOL     OW13441  10.492  10.864   1.817
37203SOL    HW113442  10.547  10.939   1.795
37203SOL    HW213443  10.524  10.834   1.902
37204SOL     OW13444   7.071  10.410  12.629
37204SOL    HW113445   7.026  10.394  12.546
37204SOL    HW213446   7.079  10.505  12.634
37205SOL     OW13447   5.808  12.559  10.379
37205SOL    HW113448   5.806  12.630  10.315
37205SOL    HW213449   5.900  12.532  10.382
37206SOL     OW13450  11.769   7.518   5.627
37206SOL    HW113451  11.767   7.443   5.686
37206SOL    HW213452  11.678   7.534   5.604
37207SOL     OW13453   0.125   0.645   7.940
37207SOL    HW113454   0.055   0.680   7.885
37207SOL    HW213455   0.081   0.612   8.018
37208SOL     OW13456  14.688   5.140   1.681
37208SOL    HW113457  14.735   5.189   1.749
37208SOL    HW213458  14.678   5.203   1.609
37209SOL     OW13459   9.234  10.753   2.362
37209SOL    HW113460   9.216  10.842   2.392
37209SOL    HW213461   9.192  10.696   2.427
37210SOL     OW13462   8.378   0.757  10.994
37210SOL    HW113463   8.381   0.672  11.039
37210SOL    HW213464   8.287   0.786  11.004
37211SOL     OW13465   5.392   5.773  12.282
37211SOL    HW113466   5.354   5.853  12.245
37211SOL    HW213467   5.397   5.790  12.376
37212SOL     OW13468   1.494   7.031   0.207
37212SOL    HW113469   1.556   7.099   0.234
37212SOL    HW213470   1.436   7.021   0.282
37213SOL     OW13471  10.988  12.844  13.399
37213SOL    HW113472  10.982  12.813  13.490
37213SOL    HW213473  11.035  12.927  13.404
37214SOL     OW13474   9.627   4.809  13.730
37214SOL    HW113475   9.531   4.809  13.730
37214SOL    HW213476   9.651   4.841  13.817
37215SOL     OW13477  12.284   1.666   4.158
37215SOL    HW113478  12.240   1.628   4.235
37215SOL    HW213479  12.329   1.743   4.192
37216SOL     OW13480   4.190  11.636  12.197
37216SOL    HW113481   4.097  11.662  12.194
37216SOL    HW213482   4.233  11.706  12.246
37217SOL     OW13483  13.270   6.196   5.767
37217SOL    HW113484  13.304   6.122   5.818
37217SOL    HW213485  13.249   6.159   5.682
37218SOL     OW13486   9.703   1.262   0.232
37218SOL    HW113487   9.688   1.272   0.138
37218SOL    HW213488   9.784   1.311   0.249
37219SOL     OW13489   0.346   5.994   3.439
37219SOL    HW113490   0.316   5.907   3.413
37219SOL    HW213491   0.267   6.039   3.469
37220SOL     OW13492   3.899   3.605  10.618
37220SOL    HW113493   3.939   3.676  10.669
37220SOL    HW213494   3.973   3.557  10.581
37221SOL     OW13495   7.566   5.425   4.783
37221SOL    HW113496   7.562   5.519   4.762
37221SOL    HW213497   7.506   5.415   4.857
37222SOL     OW13498   3.598  10.228  13.436
37222SOL    HW113499   3.505  10.247  13.437
37222SOL    HW213500   3.619  10.213  13.344
37223SOL     OW13501   5.099  14.828   4.172
37223SOL    HW113502   5.155   0.012   4.225
37223SOL    HW213503   5.159  14.768   4.128
37224SOL     OW13504   7.463  13.667   6.554
37224SOL    HW113505   7.476  13.758   6.529
37224SOL    HW213506   7.368  13.659   6.564
37225SOL     OW13507   1.729  13.611   1.511
37225SOL    HW113508   1.694  13.609   1.422
37225SOL    HW213509   1.653  13.593   1.567
37226SOL     OW13510   2.496   7.918   1.087
37226SOL    HW113511   2.489   7.986   1.020
37226SOL    HW213512   2.407   7.887   1.101
37227SOL     OW13513   8.355   6.723  14.466
37227SOL    HW113514   8.436   6.673  14.479
37227SOL    HW213515   8.286   6.657  14.469
37228SOL     OW13516  11.066  13.651  13.378
37228SOL    HW113517  11.042  13.598  13.454
37228SOL    HW213518  11.147  13.696  13.404
37229SOL     OW13519  11.672   5.796  10.580
37229SOL    HW113520  11.613   5.749  10.520
37229SOL    HW213521  11.730   5.845  10.522
37230SOL     OW13522   9.835   9.172   0.252
37230SOL    HW113523   9.828   9.101   0.188
37230SOL    HW213524   9.798   9.136   0.332
37231SOL     OW13525   8.404   0.508  12.635
37231SOL    HW113526   8.416   0.472  12.723
37231SOL    HW213527   8.315   0.481  12.610
37232SOL     OW13528   9.165   8.448   4.013
37232SOL    HW113529   9.111   8.526   4.024
37232SOL    HW213530   9.215   8.442   4.095
37233SOL     OW13531  10.933  10.893   8.130
37233SOL    HW113532  10.869  10.823   8.144
37233SOL    HW213533  10.984  10.895   8.211
37234SOL     OW13534   6.266   8.706  13.519
37234SOL    HW113535   6.290   8.689  13.610
37234SOL    HW213536   6.225   8.625  13.490
37235SOL     OW13537   1.842   7.349   0.589
37235SOL    HW113538   1.842   7.347   0.493
37235SOL    HW213539   1.886   7.268   0.614
37236SOL     OW13540   6.610   1.389  12.094
37236SOL    HW113541   6.695   1.369  12.134
37236SOL    HW213542   6.620   1.477  12.060
37237SOL     OW13543  11.908  12.267   1.651
37237SOL    HW113544  11.856  12.198   1.612
37237SOL    HW213545  11.991  12.224   1.675
37238SOL     OW13546   8.464   4.324  13.459
37238SOL    HW113547   8.509   4.271  13.394
37238SOL    HW213548   8.535   4.358  13.514
37239SOL     OW13549   4.160   4.663  11.852
37239SOL    HW113550   4.122   4.604  11.917
37239SOL    HW213551   4.099   4.737  11.848
37240SOL     OW13552   0.982   6.659   0.703
37240SOL    HW113553   0.998   6.617   0.787
37240SOL    HW213554   0.912   6.608   0.663
37241SOL     OW13555   3.897   7.325  11.731
37241SOL    HW113556   3.859   7.408  11.758
37241SOL    HW213557   3.953   7.347  11.656
37242SOL     OW13558   6.314   2.217   9.289
37242SOL    HW113559   6.255   2.269   9.344
37242SOL    HW213560   6.292   2.126   9.309
37243SOL     OW13561   0.270  10.592   9.872
37243SOL    HW113562   0.220  10.563   9.796
37243SOL    HW213563   0.226  10.551   9.946
37244SOL     OW13564   9.772  10.676   6.314
37244SOL    HW113565   9.769  10.711   6.225
37244SOL    HW213566   9.684  10.640   6.329
37245SOL     OW13567   2.725   1.696   8.646
37245SOL    HW113568   2.732   1.622   8.707
37245SOL    HW213569   2.815   1.711   8.617
37246SOL     OW13570  12.801   4.908   4.371
37246SOL    HW113571  12.814   4.980   4.433
37246SOL    HW213572  12.724   4.934   4.320
37247SOL     OW13573   9.093   6.417  11.591
37247SOL    HW113574   9.079   6.324  11.609
37247SOL    HW213575   9.113   6.455  11.677
37248SOL     OW13576   4.850  11.777   1.038
37248SOL    HW113577   4.773  11.773   1.095
37248SOL    HW213578   4.826  11.724   0.962
37249SOL     OW13579   6.736   5.779  12.738
37249SOL    HW113580   6.651   5.736  12.742
37249SOL    HW213581   6.730   5.836  12.661
37250SOL     OW13582  10.235   3.571   6.764
37250SOL    HW113583  10.316   3.554   6.812
37250SOL    HW213584  10.165   3.551   6.828
37251SOL     OW13585   9.084   3.801  10.593
37251SOL    HW113586   9.044   3.869  10.538
37251SOL    HW213587   9.060   3.825  10.682
37252SOL     OW13588   5.524   0.190   3.166
37252SOL    HW113589   5.607   0.193   3.214
37252SOL    HW213590   5.538   0.124   3.098
37253SOL     OW13591  10.674  14.384   0.087
37253SOL    HW113592  10.598  14.439   0.066
37253SOL    HW213593  10.744  14.447   0.104
37254SOL     OW13594  12.477   6.772  14.723
37254SOL    HW113595  12.433   6.850  14.756
37254SOL    HW213596  12.544   6.805  14.664
37255SOL     OW13597   3.359   8.151   6.611
37255SOL    HW113598   3.439   8.203   6.600
37255SOL    HW213599   3.326   8.176   6.697
37256SOL     OW13600  12.658   9.258   1.253
37256SOL    HW113601  12.710   9.270   1.333
37256SOL    HW213602  12.587   9.199   1.279
37257SOL     OW13603   9.007   2.187   2.387
37257SOL    HW113604   8.919   2.151   2.375
37257SOL    HW213605   9.000   2.244   2.464
37258SOL     OW13606   1.323  11.779   0.297
37258SOL    HW113607   1.239  11.751   0.262
37258SOL    HW213608   1.330  11.871   0.272
37259SOL     OW13609   4.265   4.825   2.130
37259SOL    HW113610   4.231   4.747   2.085
37259SOL    HW213611   4.292   4.793   2.216
37260SOL     OW13612   6.765  12.049  10.115
37260SOL    HW113613   6.812  12.086  10.189
37260SOL    HW213614   6.694  11.998  10.155
37261SOL     OW13615   3.780   5.934  12.381
37261SOL    HW113616   3.746   5.958  12.468
37261SOL    HW213617   3.804   6.018  12.341
37262SOL     OW13618   3.495   1.641   3.853
37262SOL    HW113619   3.556   1.661   3.924
37262SOL    HW213620   3.460   1.727   3.826
37263SOL     OW13621   7.982  14.099   5.610
37263SOL    HW113622   7.982  14.175   5.669
37263SOL    HW213623   8.025  14.132   5.530
37264SOL     OW13624   0.346   4.325   9.276
37264SOL    HW113625   0.269   4.317   9.219
37264SOL    HW213626   0.323   4.273   9.353
37265SOL     OW13627   7.591  12.439   0.701
37265SOL    HW113628   7.637  12.450   0.618
37265SOL    HW213629   7.519  12.502   0.697
37266SOL     OW13630   7.925   4.679   9.263
37266SOL    HW113631   8.018   4.686   9.242
37266SOL    HW213632   7.884   4.652   9.180
37267SOL     OW13633  14.242   2.959   1.135
37267SOL    HW113634  14.272   3.049   1.123
37267SOL    HW213635  14.320   2.906   1.125
37268SOL     OW13636   8.532   6.034   5.742
37268SOL    HW113637   8.474   6.041   5.666
37268SOL    HW213638   8.473   6.030   5.817
37269SOL     OW13639   5.126   3.773   1.377
37269SOL    HW113640   5.076   3.738   1.303
37269SOL    HW213641   5.101   3.718   1.451
37270SOL     OW13642  12.494   2.026   7.269
37270SOL    HW113643  12.581   1.996   7.241
37270SOL    HW213644  12.447   1.946   7.292
37271SOL     OW13645   1.128   9.462   3.983
37271SOL    HW113646   1.154   9.542   3.938
37271SOL    HW213647   1.065   9.421   3.924
37272SOL     OW13648   3.031  11.001   8.053
37272SOL    HW113649   3.091  10.972   7.984
37272SOL    HW213650   3.089  11.031   8.124
37273SOL     OW13651   8.085   9.983   3.253
37273SOL    HW113652   8.177  10.003   3.233
37273SOL    HW213653   8.077   9.889   3.239
37274SOL     OW13654   0.432   2.401   3.901
37274SOL    HW113655   0.436   2.391   3.996
37274SOL    HW213656   0.371   2.333   3.873
37275SOL     OW13657   3.931  10.337   1.384
37275SOL    HW113658   3.954  10.429   1.396
37275SOL    HW213659   3.841  10.331   1.416
37276SOL     OW13660  10.038   9.634   1.079
37276SOL    HW113661  10.100   9.628   1.007
37276SOL    HW213662  10.066   9.568   1.142
37277SOL     OW13663   1.839   1.710  11.134
37277SOL    HW113664   1.764   1.655  11.159
37277SOL    HW213665   1.914   1.666  11.173
37278SOL     OW13666  11.857   0.219  13.150
37278SOL    HW113667  11.846   0.133  13.109
37278SOL    HW213668  11.795   0.275  13.104
37279SOL     OW13669   2.487  10.297  14.416
37279SOL    HW113670   2.568  10.316  14.464
37279SOL    HW213671   2.514  10.238  14.346
37280SOL     OW13672   3.903   8.479   5.144
37280SOL    HW113673   3.852   8.400   5.158
37280SOL    HW213674   3.866   8.519   5.065
37281SOL     OW13675   5.338   7.000   8.706
37281SOL    HW113676   5.257   6.998   8.654
37281SOL    HW213677   5.350   7.093   8.728
37282SOL     OW13678   5.782   8.230  11.951
37282SOL    HW113679   5.768   8.153  11.896
37282SOL    HW213680   5.720   8.220  12.023
37283SOL     OW13681   5.740  13.783   2.746
37283SOL    HW113682   5.645  13.799   2.743
37283SOL    HW213683   5.762  13.757   2.656
37284SOL     OW13684  11.990   5.772   1.828
37284SOL    HW113685  11.949   5.734   1.750
37284SOL    HW213686  12.063   5.823   1.795
37285SOL     OW13687   7.320   5.737   1.727
37285SOL    HW113688   7.342   5.738   1.820
37285SOL    HW213689   7.245   5.795   1.719
37286SOL     OW13690   2.160  11.872   2.818
37286SOL    HW113691   2.111  11.936   2.870
37286SOL    HW213692   2.210  11.924   2.756
37287SOL     OW13693   7.522   4.897   2.242
37287SOL    HW113694   7.562   4.965   2.295
37287SOL    HW213695   7.569   4.902   2.158
37288SOL     OW13696   0.341  10.436   5.095
37288SOL    HW113697   0.278  10.373   5.060
37288SOL    HW213698   0.392  10.387   5.160
37289SOL     OW13699   3.433  14.195   3.646
37289SOL    HW113700   3.345  14.180   3.612
37289SOL    HW213701   3.437  14.289   3.663
37290SOL     OW13702   1.398  13.697   6.546
37290SOL    HW113703   1.345  13.777   6.553
37290SOL    HW213704   1.335  13.626   6.546
37291SOL     OW13705   2.721   3.236  14.575
37291SOL    HW113706   2.631   3.237  14.540
37291SOL    HW213707   2.722   3.163  14.636
37292SOL     OW13708   0.559   2.224   1.830
37292SOL    HW113709   0.498   2.198   1.760
37292SOL    HW213710   0.642   2.237   1.784
37293SOL     OW13711   6.896   1.803   4.792
37293SOL    HW113712   6.819   1.760   4.757
37293SOL    HW213713   6.952   1.732   4.822
37294SOL     OW13714  11.212  11.748  14.684
37294SOL    HW113715  11.122  11.735  14.712
37294SOL    HW213716  11.255  11.791  14.758
37295SOL     OW13717  12.563   2.747   7.141
37295SOL    HW113718  12.569   2.655   7.116
37295SOL    HW213719  12.612   2.753   7.223
37296SOL     OW13720  14.749   3.236  13.877
37296SOL    HW113721  14.785   3.325  13.874
37296SOL    HW213722  14.655   3.248  13.885
37297SOL     OW13723   7.883   5.620   7.994
37297SOL    HW113724   7.815   5.622   8.062
37297SOL    HW213725   7.921   5.707   7.996
37298SOL     OW13726   5.316   5.045   1.908
37298SOL    HW113727   5.339   5.063   1.816
37298SOL    HW213728   5.371   4.970   1.931
37299SOL     OW13729   9.995  13.301  13.795
37299SOL    HW113730  10.011  13.206  13.791
37299SOL    HW213731  10.074  13.336  13.838
37300SOL     OW13732   5.271   4.903   2.176
37300SOL    HW113733   5.226   4.853   2.108
37300SOL    HW213734   5.249   4.994   2.158
37301SOL     OW13735   3.942   0.406  10.607
37301SOL    HW113736   4.003   0.477  10.586
37301SOL    HW213737   3.879   0.446  10.667
37302SOL     OW13738  14.745  12.943   2.920
37302SOL    HW113739  14.831  12.903   2.915
37302SOL    HW213740  14.762  13.037   2.928
37303SOL     OW13741   7.792   8.286   1.816
37303SOL    HW113742   7.740   8.260   1.740
37303SOL    HW213743   7.882   8.290   1.783
37304SOL     OW13744  13.560   6.534   0.609
37304SOL    HW113745  13.609   6.504   0.532
37304SOL    HW213746  13.509   6.458   0.636
37305SOL     OW13747   0.319   6.275   9.148
37305SOL    HW113748   0.405   6.243   9.122
37305SOL    HW213749   0.268   6.196   9.166
37306SOL     OW13750  13.217  10.764  14.455
37306SOL    HW113751  13.168  10.813  14.520
37306SOL    HW213752  13.281  10.714  14.505
37307SOL     OW13753   4.967   0.489   6.508
37307SOL    HW113754   5.017   0.510   6.429
37307SOL    HW213755   5.023   0.517   6.580
37308SOL     OW13756   9.790   6.108   1.677
37308SOL    HW113757   9.793   6.174   1.608
37308SOL    HW213758   9.741   6.035   1.638
37309SOL     OW13759  11.677  10.510  13.782
37309SOL    HW113760  11.735  10.536  13.854
37309SOL    HW213761  11.590  10.509  13.822
37310SOL     OW13762   4.269   3.179  11.105
37310SOL    HW113763   4.301   3.092  11.080
37310SOL    HW213764   4.174   3.174  11.094
37311SOL     OW13765  10.840  12.487   3.208
37311SOL    HW113766  10.785  12.430   3.261
37311SOL    HW213767  10.924  12.442   3.203
37312SOL     OW13768   9.656   8.316   2.762
37312SOL    HW113769   9.584   8.333   2.823
37312SOL    HW213770   9.735   8.332   2.813
37313SOL     OW13771   2.733   8.526   7.374
37313SOL    HW113772   2.674   8.510   7.448
37313SOL    HW213773   2.784   8.446   7.366
37314SOL     OW13774   1.888   0.758   9.505
37314SOL    HW113775   1.893   0.783   9.412
37314SOL    HW213776   1.896   0.840   9.552
37315SOL     OW13777   4.655   9.379  14.004
37315SOL    HW113778   4.566   9.383  13.969
37315SOL    HW213779   4.706   9.436  13.947
37316SOL     OW13780   6.045   1.965   8.319
37316SOL    HW113781   6.101   1.888   8.327
37316SOL    HW213782   6.059   1.996   8.230
37317SOL     OW13783  10.111   3.614   8.868
37317SOL    HW113784  10.180   3.659   8.917
37317SOL    HW213785  10.155   3.539   8.828
37318SOL     OW13786   4.394  12.286   5.433
37318SOL    HW113787   4.356  12.199   5.442
37318SOL    HW213788   4.336  12.344   5.483
37319SOL     OW13789   2.226   6.088  12.393
37319SOL    HW113790   2.171   6.046  12.459
37319SOL    HW213791   2.243   6.175  12.429
37320SOL     OW13792  14.131   5.461   3.946
37320SOL    HW113793  14.094   5.414   4.021
37320SOL    HW213794  14.223   5.437   3.946
37321SOL     OW13795   4.404   1.743  13.502
37321SOL    HW113796   4.456   1.702  13.571
37321SOL    HW213797   4.465   1.752  13.428
37322SOL     OW13798   4.793   3.146  14.849
37322SOL    HW113799   4.883   3.138  14.818
37322SOL    HW213800   4.741   3.158  14.770
37323SOL     OW13801   9.839  10.027  11.676
37323SOL    HW113802   9.906   9.983  11.624
37323SOL    HW213803   9.770  10.047  11.614
37324SOL     OW13804   1.491  14.275   0.447
37324SOL    HW113805   1.573  14.226   0.446
37324SOL    HW213806   1.507  14.349   0.506
37325SOL     OW13807   0.488   9.896   1.029
37325SOL    HW113808   0.433   9.848   1.090
37325SOL    HW213809   0.572   9.851   1.032
37326SOL     OW13810   7.777  11.216   3.950
37326SOL    HW113811   7.832  11.278   3.902
37326SOL    HW213812   7.836  11.144   3.972
37327SOL     OW13813  14.182  10.253   3.805
37327SOL    HW113814  14.152  10.167   3.775
37327SOL    HW213815  14.113  10.313   3.778
37328SOL     OW13816   9.302   6.675   2.802
37328SOL    HW113817   9.240   6.623   2.752
37328SOL    HW213818   9.279   6.659   2.894
37329SOL     OW13819   4.484   6.971  13.734
37329SOL    HW113820   4.484   6.995  13.641
37329SOL    HW213821   4.448   6.883  13.736
37330SOL     OW13822   0.204   3.560   8.133
37330SOL    HW113823   0.181   3.648   8.104
37330SOL    HW213824   0.217   3.511   8.052
37331SOL     OW13825   8.948  10.468   4.485
37331SOL    HW113826   8.876  10.522   4.519
37331SOL    HW213827   8.905  10.394   4.444
37332SOL     OW13828   2.588  14.146   6.445
37332SOL    HW113829   2.553  14.213   6.503
37332SOL    HW213830   2.515  14.087   6.428
37333SOL     OW13831  12.988   0.198  14.819
37333SOL    HW113832  12.947   0.212   0.032
37333SOL    HW213833  12.915   0.183  14.759
37334SOL     OW13834   0.304   9.178   6.905
37334SOL    HW113835   0.226   9.232   6.918
37334SOL    HW213836   0.377   9.239   6.913
37335SOL     OW13837  12.650   6.237  12.718
37335SOL    HW113838  12.723   6.242  12.779
37335SOL    HW213839  12.689   6.218  12.633
37336SOL     OW13840   2.406   9.982   3.516
37336SOL    HW113841   2.444  10.007   3.432
37336SOL    HW213842   2.320   9.944   3.494
37337SOL     OW13843   6.876   3.595   9.752
37337SOL    HW113844   6.960   3.561   9.782
37337SOL    HW213845   6.827   3.612   9.832
37338SOL     OW13846  12.860   8.285   9.110
37338SOL    HW113847  12.848   8.324   9.197
37338SOL    HW213848  12.801   8.336   9.053
37339SOL     OW13849   4.907   8.506   6.475
37339SOL    HW113850   4.861   8.431   6.437
37339SOL    HW213851   4.846   8.578   6.465
37340SOL     OW13852  13.819   5.682   1.354
37340SOL    HW113853  13.817   5.761   1.301
37340SOL    HW213854  13.907   5.680   1.390
37341SOL     OW13855   8.643   6.582  11.981
37341SOL    HW113856   8.578   6.571  12.050
37341SOL    HW213857   8.713   6.521  12.004
37342SOL     OW13858   9.311  12.384   3.474
37342SOL    HW113859   9.238  12.336   3.436
37342SOL    HW213860   9.374  12.317   3.500
37343SOL     OW13861  13.686   4.587  12.798
37343SOL    HW113862  13.741   4.574  12.721
37343SOL    HW213863  13.636   4.667  12.778
37344SOL     OW13864   7.267  12.049   8.781
37344SOL    HW113865   7.335  12.045   8.849
37344SOL    HW213866   7.297  12.118   8.721
37345SOL     OW13867   9.728  14.171  14.596
37345SOL    HW113868   9.697  14.108  14.661
37345SOL    HW213869   9.677  14.151  14.517
37346SOL     OW13870  13.103   5.438   1.575
37346SOL    HW113871  13.093   5.447   1.481
37346SOL    HW213872  13.031   5.380   1.602
37347SOL     OW13873   0.241   5.209  10.489
37347SOL    HW113874   0.212   5.275  10.552
37347SOL    HW213875   0.292   5.258  10.424
37348SOL     OW13876   2.848   6.219   6.071
37348SOL    HW113877   2.787   6.193   6.003
37348SOL    HW213878   2.865   6.138   6.120
37349SOL     OW13879   0.242   6.820   5.110
37349SOL    HW113880   0.229   6.745   5.052
37349SOL    HW213881   0.287   6.784   5.186
37350SOL     OW13882  13.020  11.203   9.315
37350SOL    HW113883  13.022  11.110   9.335
37350SOL    HW213884  12.931  11.231   9.338
37351SOL     OW13885   9.200   4.715   4.990
37351SOL    HW113886   9.202   4.669   5.074
37351SOL    HW213887   9.283   4.762   4.986
37352SOL     OW13888  13.586   3.611   5.456
37352SOL    HW113889  13.613   3.690   5.502
37352SOL    HW213890  13.638   3.540   5.494
37353SOL     OW13891   5.770   7.500   5.497
37353SOL    HW113892   5.794   7.559   5.569
37353SOL    HW213893   5.682   7.528   5.472
37354SOL     OW13894  14.775   5.958   9.158
37354SOL    HW113895  14.765   5.995   9.246
37354SOL    HW213896  14.855   5.999   9.124
37355SOL     OW13897  10.025  14.738   7.953
37355SOL    HW113898   9.959  14.742   8.022
37355SOL    HW213899  10.054  14.829   7.944
37356SOL     OW13900   1.165   7.819  13.475
37356SOL    HW113901   1.180   7.826  13.381
37356SOL    HW213902   1.080   7.775  13.483
37357SOL     OW13903   8.882   2.390  10.380
37357SOL    HW113904   8.797   2.397  10.425
37357SOL    HW213905   8.941   2.353  10.446
37358SOL     OW13906   1.527   0.540   7.293
37358SOL    HW113907   1.600   0.602   7.297
37358SOL    HW213908   1.546   0.486   7.216
37359SOL     OW13909  11.827   0.824   8.540
37359SOL    HW113910  11.750   0.814   8.484
37359SOL    HW213911  11.837   0.918   8.550
37360SOL     OW13912  10.540   2.915   1.335
37360SOL    HW113913  10.446   2.926   1.321
37360SOL    HW213914  10.553   2.930   1.429
37361SOL     OW13915   0.274   6.896  10.932
37361SOL    HW113916   0.184   6.885  10.962
37361SOL    HW213917   0.290   6.820  10.876
37362SOL     OW13918   7.240   1.667  14.809
37362SOL    HW113919   7.298   1.604  14.851
37362SOL    HW213920   7.258   1.750  14.853
37363SOL     OW13921  11.540  10.052   0.803
37363SOL    HW113922  11.587   9.975   0.775
37363SOL    HW213923  11.522  10.101   0.723
37364SOL     OW13924  12.426   2.817  14.653
37364SOL    HW113925  12.380   2.871  14.717
37364SOL    HW213926  12.370   2.740  14.642
37365SOL     OW13927  14.077   7.243   9.456
37365SOL    HW113928  14.148   7.212   9.513
37365SOL    HW213929  14.115   7.245   9.368
37366SOL     OW13930  11.043   2.191  12.432
37366SOL    HW113931  11.021   2.114  12.380
37366SOL    HW213932  11.137   2.183  12.448
37367SOL     OW13933   1.223   8.405  12.093
37367SOL    HW113934   1.273   8.348  12.151
37367SOL    HW213935   1.282   8.419  12.018
37368SOL     OW13936   2.222   6.131  12.784
37368SOL    HW113937   2.129   6.152  12.795
37368SOL    HW213938   2.225   6.072  12.709
37369SOL     OW13939   8.455   2.066   6.125
37369SOL    HW113940   8.442   2.151   6.083
37369SOL    HW213941   8.400   2.070   6.204
37370SOL     OW13942   4.994   5.267   7.493
37370SOL    HW113943   4.942   5.246   7.415
37370SOL    HW213944   5.072   5.311   7.459
37371SOL     OW13945   5.149  13.234  11.099
37371SOL    HW113946   5.102  13.152  11.114
37371SOL    HW213947   5.083  13.295  11.069
37372SOL     OW13948   6.877  14.798  10.065
37372SOL    HW113949   6.919  14.792   9.979
37372SOL    HW213950   6.918   0.002  10.106
37373SOL     OW13951  10.366   7.747   5.088
37373SOL    HW113952  10.347   7.657   5.061
37373SOL    HW213953  10.307   7.763   5.161
37374SOL     OW13954   2.571   0.396  12.707
37374SOL    HW113955   2.562   0.301  12.711
37374SOL    HW213956   2.484   0.428  12.683
37375SOL     OW13957  12.920   8.485   1.697
37375SOL    HW113958  12.986   8.422   1.667
37375SOL    HW213959  12.959   8.524   1.775
37376SOL     OW13960   3.802   1.208   9.698
37376SOL    HW113961   3.713   1.185   9.673
37376SOL    HW213962   3.838   1.253   9.622
37377SOL     OW13963  14.050  10.685  13.184
37377SOL    HW113964  14.067  10.598  13.148
37377SOL    HW213965  14.136  10.717  13.212
37378SOL     OW13966   5.271   3.659   1.142
37378SOL    HW113967   5.359   3.621   1.144
37378SOL    HW213968   5.273   3.729   1.207
37379SOL     OW13969   7.523   4.303  11.720
37379SOL    HW113970   7.493   4.394  11.728
37379SOL    HW213971   7.555   4.281  11.807
37380SOL     OW13972  13.654   6.458   8.844
37380SOL    HW113973  13.630   6.376   8.886
37380SOL    HW213974  13.623   6.526   8.904
37381SOL     OW13975  14.132   8.270  14.633
37381SOL    HW113976  14.065   8.230  14.688
37381SOL    HW213977  14.106   8.248  14.544
37382SOL     OW13978   2.115   3.554   5.516
37382SOL    HW113979   2.138   3.463   5.536
37382SOL    HW213980   2.164   3.574   5.436
37383SOL     OW13981   8.561  14.692   7.483
37383SOL    HW113982   8.470  14.670   7.503
37383SOL    HW213983   8.604  14.697   7.568
37384SOL     OW13984  12.283   8.189   2.693
37384SOL    HW113985  12.258   8.281   2.698
37384SOL    HW213986  12.371   8.186   2.731
37385SOL     OW13987  14.228  14.096   4.101
37385SOL    HW113988  14.150  14.046   4.077
37385SOL    HW213989  14.194  14.172   4.149
37386SOL     OW13990  11.462  12.603   8.868
37386SOL    HW113991  11.443  12.697   8.863
37386SOL    HW213992  11.471  12.586   8.962
37387SOL     OW13993  11.192   5.135  10.124
37387SOL    HW113994  11.241   5.061  10.160
37387SOL    HW213995  11.151   5.175  10.201
37388SOL     OW13996   1.808   3.438   8.310
37388SOL    HW113997   1.764   3.401   8.234
37388SOL    HW213998   1.740   3.484   8.358
37389SOL     OW13999   3.590   4.386   5.976
37389SOL    HW114000   3.546   4.302   5.960
37389SOL    HW214001   3.616   4.382   6.068
37390SOL     OW14002   9.103   7.804  11.459
37390SOL    HW114003   9.110   7.767  11.547
37390SOL    HW214004   9.154   7.745  11.404
37391SOL     OW14005   7.122   8.331   1.834
37391SOL    HW114006   7.187   8.380   1.784
37391SOL    HW214007   7.055   8.396   1.855
37392SOL     OW14008   1.249   8.652   7.436
37392SOL    HW114009   1.206   8.729   7.398
37392SOL    HW214010   1.203   8.577   7.398
37393SOL     OW14011   3.016   0.670   8.889
37393SOL    HW114012   3.078   0.616   8.938
37393SOL    HW214013   2.980   0.730   8.954
37394SOL     OW14014   6.984   3.824  12.423
37394SOL    HW114015   7.055   3.861  12.371
37394SOL    HW214016   7.021   3.743  12.458
37395SOL     OW14017  13.226  12.922   8.048
37395SOL    HW114018  13.278  12.860   8.099
37395SOL    HW214019  13.235  13.005   8.096
37396SOL     OW14020  11.888   4.294   6.880
37396SOL    HW114021  11.944   4.368   6.857
37396SOL    HW214022  11.831   4.281   6.805
37397SOL     OW14023   4.153  13.288  14.321
37397SOL    HW114024   4.199  13.292  14.237
37397SOL    HW214025   4.195  13.354  14.375
37398SOL     OW14026   4.133  13.464   1.658
37398SOL    HW114027   4.121  13.518   1.736
37398SOL    HW214028   4.224  13.435   1.663
37399SOL     OW14029  11.785  14.275   9.189
37399SOL    HW114030  11.807  14.185   9.167
37399SOL    HW214031  11.815  14.326   9.114
37400SOL     OW14032   8.228   5.319   3.511
37400SOL    HW114033   8.265   5.407   3.524
37400SOL    HW214034   8.154   5.332   3.451
37401SOL     OW14035   7.648   6.025   6.931
37401SOL    HW114036   7.658   5.932   6.910
37401SOL    HW214037   7.566   6.051   6.889
37402SOL     OW14038   1.829   5.451   0.723
37402SOL    HW114039   1.736   5.431   0.713
37402SOL    HW214040   1.847   5.439   0.816
37403SOL     OW14041   9.489  13.854   1.755
37403SOL    HW114042   9.579  13.887   1.761
37403SOL    HW214043   9.434  13.929   1.779
37404SOL     OW14044   6.669   2.768   5.154
37404SOL    HW114045   6.695   2.756   5.063
37404SOL    HW214046   6.728   2.835   5.188
37405SOL     OW14047   1.022  11.719   8.938
37405SOL    HW114048   0.927  11.719   8.928
37405SOL    HW214049   1.038  11.675   9.021
37406SOL     OW14050  13.755   7.793  12.483
37406SOL    HW114051  13.833   7.829  12.524
37406SOL    HW214052  13.762   7.699  12.495
37407SOL     OW14053   4.094  11.476   1.530
37407SOL    HW114054   4.168  11.485   1.470
37407SOL    HW214055   4.029  11.427   1.478
37408SOL     OW14056   9.964  14.825   6.557
37408SOL    HW114057  10.017  14.792   6.630
37408SOL    HW214058  10.026  14.870   6.500
37409SOL     OW14059   0.369   2.192   9.232
37409SOL    HW114060   0.290   2.146   9.264
37409SOL    HW214061   0.434   2.122   9.223
37410SOL     OW14062  14.591  13.385  14.147
37410SOL    HW114063  14.620  13.465  14.190
37410SOL    HW214064  14.532  13.414  14.078
37411SOL     OW14065   8.753   4.581  14.604
37411SOL    HW114066   8.742   4.668  14.643
37411SOL    HW214067   8.797   4.598  14.521
37412SOL     OW14068   4.046   8.848   1.005
37412SOL    HW114069   4.096   8.773   0.975
37412SOL    HW214070   3.955   8.820   0.999
37413SOL     OW14071   3.435   8.203  10.910
37413SOL    HW114072   3.405   8.135  10.971
37413SOL    HW214073   3.355   8.233  10.867
37414SOL     OW14074  10.974  14.562   4.180
37414SOL    HW114075  10.975  14.648   4.138
37414SOL    HW214076  11.017  14.576   4.264
37415SOL     OW14077  13.889   6.157   3.216
37415SOL    HW114078  13.891   6.226   3.283
37415SOL    HW214079  13.977   6.118   3.220
37416SOL     OW14080   8.781  14.849   3.379
37416SOL    HW114081   8.859   0.019   3.341
37416SOL    HW214082   8.708   0.013   3.329
37417SOL     OW14083  14.783   4.984   3.311
37417SOL    HW114084   0.004   4.989   3.294
37417SOL    HW214085  14.753   5.074   3.309
37418SOL     OW14086  11.539  13.241   2.764
37418SOL    HW114087  11.529  13.174   2.831
37418SOL    HW214088  11.462  13.231   2.708
37419SOL     OW14089   5.791   0.235   0.269
37419SOL    HW114090   5.795   0.150   0.225
37419SOL    HW214091   5.706   0.271   0.243
37420SOL     OW14092   8.164   0.090  10.065
37420SOL    HW114093   8.136   0.002  10.090
37420SOL    HW214094   8.204   0.126  10.144
37421SOL     OW14095   7.424   8.453  11.252
37421SOL    HW114096   7.352   8.425  11.309
37421SOL    HW214097   7.501   8.453  11.310
37422SOL     OW14098  10.378   9.469  12.052
37422SOL    HW114099  10.441   9.415  12.005
37422SOL    HW214100  10.312   9.407  12.084
37423SOL     OW14101   8.905  11.748   1.151
37423SOL    HW114102   8.939  11.670   1.194
37423SOL    HW214103   8.876  11.718   1.065
37424SOL     OW14104  14.399   6.386  14.418
37424SOL    HW114105  14.436   6.299  14.430
37424SOL    HW214106  14.441   6.420  14.340
37425SOL     OW14107  14.807   2.911  13.223
37425SOL    HW114108   0.020   2.867  13.218
37425SOL    HW214109  14.746   2.848  13.186
37426SOL     OW14110  12.176  12.542   6.899
37426SOL    HW114111  12.242  12.516   6.964
37426SOL    HW214112  12.227  12.585   6.830
37427SOL     OW14113   3.873  11.980   2.080
37427SOL    HW114114   3.882  11.886   2.066
37427SOL    HW214115   3.797  12.006   2.027
37428SOL     OW14116   3.531   8.850  10.850
37428SOL    HW114117   3.513   8.791  10.777
37428SOL    HW214118   3.473   8.820  10.920
37429SOL     OW14119   8.011   8.568   1.925
37429SOL    HW114120   8.089   8.519   1.950
37429SOL    HW214121   7.971   8.593   2.008
37430SOL     OW14122  13.038   4.881  14.593
37430SOL    HW114123  12.970   4.846  14.535
37430SOL    HW214124  12.990   4.908  14.671
37431SOL     OW14125   8.128  14.525   5.604
37431SOL    HW114126   8.102  14.433   5.592
37431SOL    HW214127   8.223  14.523   5.597
37432SOL     OW14128   2.213  11.195  14.707
37432SOL    HW114129   2.162  11.115  14.718
37432SOL    HW214130   2.297  11.176  14.748
37433SOL     OW14131   0.046  11.572   0.764
37433SOL    HW114132   0.049  11.518   0.685
37433SOL    HW214133   0.121  11.631   0.755
37434SOL     OW14134   9.513  10.145  12.505
37434SOL    HW114135   9.551  10.059  12.486
37434SOL    HW214136   9.497  10.184  12.419
37435SOL     OW14137   6.852   1.472   3.482
37435SOL    HW114138   6.892   1.522   3.410
37435SOL    HW214139   6.918   1.474   3.551
37436SOL     OW14140  10.333   5.355  10.621
37436SOL    HW114141  10.391   5.387  10.552
37436SOL    HW214142  10.278   5.430  10.643
37437SOL     OW14143  13.022   3.597  10.414
37437SOL    HW114144  13.112   3.586  10.444
37437SOL    HW214145  12.998   3.686  10.441
37438SOL     OW14146   7.709  12.746   2.831
37438SOL    HW114147   7.773  12.817   2.842
37438SOL    HW214148   7.751  12.688   2.767
37439SOL     OW14149   9.151  11.778   3.213
37439SOL    HW114150   9.094  11.777   3.137
37439SOL    HW214151   9.168  11.871   3.230
37440SOL     OW14152   5.524   2.543   9.402
37440SOL    HW114153   5.520   2.622   9.455
37440SOL    HW214154   5.510   2.573   9.312
37441SOL     OW14155   3.420   2.060   2.332
37441SOL    HW114156   3.506   2.036   2.367
37441SOL    HW214157   3.395   1.984   2.279
37442SOL     OW14158   6.197   7.223   0.820
37442SOL    HW114159   6.276   7.243   0.771
37442SOL    HW214160   6.125   7.253   0.765
37443SOL     OW14161   0.073  12.067   9.577
37443SOL    HW114162   0.077  12.071   9.672
37443SOL    HW214163   0.157  12.102   9.547
37444SOL     OW14164  12.587  14.204  12.870
37444SOL    HW114165  12.632  14.271  12.819
37444SOL    HW214166  12.573  14.132  12.809
37445SOL     OW14167   6.603   3.325   8.199
37445SOL    HW114168   6.622   3.404   8.249
37445SOL    HW214169   6.513   3.303   8.221
37446SOL     OW14170  11.240   9.503   5.215
37446SOL    HW114171  11.172   9.506   5.282
37446SOL    HW214172  11.200   9.454   5.143
37447SOL     OW14173  10.661   1.701  10.516
37447SOL    HW114174  10.640   1.611  10.492
37447SOL    HW214175  10.619   1.713  10.601
37448SOL     OW14176  11.048   0.211   3.870
37448SOL    HW114177  10.982   0.235   3.804
37448SOL    HW214178  11.097   0.292   3.886
37449SOL     OW14179   7.311   5.457   7.867
37449SOL    HW114180   7.403   5.482   7.880
37449SOL    HW214181   7.291   5.487   7.778
37450SOL     OW14182   4.468  14.061   2.800
37450SOL    HW114183   4.540  14.121   2.781
37450SOL    HW214184   4.427  14.046   2.716
37451SOL     OW14185   2.640   6.350   5.466
37451SOL    HW114186   2.735   6.361   5.454
37451SOL    HW214187   2.619   6.272   5.415
37452SOL     OW14188   8.076  14.428  13.704
37452SOL    HW114189   8.025  14.353  13.672
37452SOL    HW214190   8.078  14.417  13.799
37453SOL     OW14191   6.260   2.471   2.455
37453SOL    HW114192   6.282   2.414   2.530
37453SOL    HW214193   6.275   2.560   2.487
37454SOL     OW14194   3.263   4.998   8.310
37454SOL    HW114195   3.314   4.937   8.257
37454SOL    HW214196   3.292   5.085   8.282
37455SOL     OW14197   6.302  13.679   8.543
37455SOL    HW114198   6.295  13.602   8.599
37455SOL    HW214199   6.396  13.696   8.537
37456SOL     OW14200  11.751   0.194  10.465
37456SOL    HW114201  11.664   0.156  10.455
37456SOL    HW214202  11.736   0.288  10.465
37457SOL     OW14203  13.717   2.571  11.785
37457SOL    HW114204  13.627   2.598  11.768
37457SOL    HW214205  13.760   2.577  11.700
37458SOL     OW14206   6.744  14.292   9.630
37458SOL    HW114207   6.684  14.223   9.603
37458SOL    HW214208   6.742  14.290   9.726
37459SOL     OW14209   1.053  14.490   0.217
37459SOL    HW114210   1.097  14.504   0.134
37459SOL    HW214211   1.063  14.396   0.234
37460SOL     OW14212   4.414  11.859  12.690
37460SOL    HW114213   4.330  11.844  12.733
37460SOL    HW214214   4.459  11.921  12.748
37461SOL     OW14215  13.072  10.254   4.903
37461SOL    HW114216  13.075  10.174   4.956
37461SOL    HW214217  13.164  10.275   4.887
37462SOL     OW14218   3.765   1.571   2.998
37462SOL    HW114219   3.739   1.585   3.089
37462SOL    HW214220   3.683   1.564   2.950
37463SOL     OW14221   7.740  12.829   3.201
37463SOL    HW114222   7.666  12.790   3.154
37463SOL    HW214223   7.779  12.756   3.250
37464SOL     OW14224  10.516   7.085   0.099
37464SOL    HW114225  10.549   7.115   0.183
37464SOL    HW214226  10.594   7.068   0.047
37465SOL     OW14227  10.506   8.303   7.469
37465SOL    HW114228  10.439   8.348   7.418
37465SOL    HW214229  10.459   8.260   7.540
37466SOL     OW14230   9.217  11.298   3.247
37466SOL    HW114231   9.242  11.211   3.218
37466SOL    HW214232   9.244  11.301   3.339
37467SOL     OW14233   0.829  14.818   1.604
37467SOL    HW114234   0.738  14.823   1.576
37467SOL    HW214235   0.827  14.758   1.679
37468SOL     OW14236   6.013   5.618  13.770
37468SOL    HW114237   5.929   5.612  13.724
37468SOL    HW214238   6.070   5.558  13.723
37469SOL     OW14239  14.610   2.490  12.675
37469SOL    HW114240  14.683   2.431  12.694
37469SOL    HW214241  14.636   2.535  12.595
37470SOL     OW14242   1.357   5.535   6.764
37470SOL    HW114243   1.356   5.620   6.808
37470SOL    HW214244   1.324   5.554   6.676
37471SOL     OW14245   2.849   5.213   7.499
37471SOL    HW114246   2.781   5.280   7.496
37471SOL    HW214247   2.908   5.242   7.569
37472SOL     OW14248  10.537   5.975   6.063
37472SOL    HW114249  10.499   5.994   5.977
37472SOL    HW214250  10.517   5.883   6.078
37473SOL     OW14251  13.440   8.382  11.898
37473SOL    HW114252  13.419   8.321  11.968
37473SOL    HW214253  13.496   8.333  11.838
37474SOL     OW14254   1.923   1.813   6.250
37474SOL    HW114255   1.991   1.807   6.183
37474SOL    HW214256   1.868   1.736   6.236
37475SOL     OW14257  10.237  11.328   8.723
37475SOL    HW114258  10.231  11.361   8.813
37475SOL    HW214259  10.152  11.288   8.706
37476SOL     OW14260   0.717   1.514  14.120
37476SOL    HW114261   0.674   1.430  14.136
37476SOL    HW214262   0.648   1.579  14.137
37477SOL     OW14263  13.283  11.252  10.866
37477SOL    HW114264  13.370  11.263  10.828
37477SOL    HW214265  13.238  11.192  10.806
37478SOL     OW14266  13.267  14.144   4.519
37478SOL    HW114267  13.311  14.224   4.490
37478SOL    HW214268  13.305  14.075   4.465
37479SOL     OW14269   8.966   7.216   0.865
37479SOL    HW114270   8.977   7.299   0.911
37479SOL    HW214271   8.895   7.172   0.912
37480SOL     OW14272  12.319  14.833   2.941
37480SOL    HW114273  12.228  14.806   2.929
37480SOL    HW214274  12.331  14.834   3.036
37481SOL     OW14275  12.688  11.294   4.666
37481SOL    HW114276  12.627  11.326   4.600
37481SOL    HW214277  12.695  11.200   4.648
37482SOL     OW14278   7.234   3.747   1.472
37482SOL    HW114279   7.234   3.777   1.381
37482SOL    HW214280   7.209   3.655   1.467
37483SOL     OW14281  11.828   9.253  13.574
37483SOL    HW114282  11.903   9.269  13.631
37483SOL    HW214283  11.825   9.329  13.515
37484SOL     OW14284   1.274   2.640  13.868
37484SOL    HW114285   1.298   2.575  13.935
37484SOL    HW214286   1.258   2.588  13.789
37485SOL     OW14287  13.901   7.763   0.475
37485SOL    HW114288  13.866   7.816   0.547
37485SOL    HW214289  13.977   7.812   0.444
37486SOL     OW14290   9.363   2.001   7.479
37486SOL    HW114291   9.335   2.031   7.565
37486SOL    HW214292   9.293   2.027   7.419
37487SOL     OW14293   9.051   0.024   8.148
37487SOL    HW114294   8.971   0.048   8.101
37487SOL    HW214295   9.100   0.106   8.156
37488SOL     OW14296   3.946  14.200   9.225
37488SOL    HW114297   3.891  14.265   9.180
37488SOL    HW214298   3.883  14.139   9.263
37489SOL     OW14299   7.196   7.195  13.559
37489SOL    HW114300   7.205   7.100  13.573
37489SOL    HW214301   7.268   7.233  13.608
37490SOL     OW14302   5.638  13.333   5.262
37490SOL    HW114303   5.568  13.279   5.225
37490SOL    HW214304   5.645  13.408   5.202
37491SOL     OW14305   7.790   3.107   2.379
37491SOL    HW114306   7.864   3.053   2.352
37491SOL    HW214307   7.724   3.044   2.409
37492SOL     OW14308   0.551   7.121  13.895
37492SOL    HW114309   0.458   7.145  13.892
37492SOL    HW214310   0.555   7.038  13.847
37493SOL     OW14311   7.414   5.713   2.863
37493SOL    HW114312   7.484   5.721   2.798
37493SOL    HW214313   7.370   5.631   2.840
37494SOL     OW14314  14.865   5.581  11.106
37494SOL    HW114315  14.804   5.636  11.155
37494SOL    HW214316  14.864   5.497  11.152
37495SOL     OW14317   7.565   3.769   4.529
37495SOL    HW114318   7.636   3.813   4.484
37495SOL    HW214319   7.485   3.808   4.492
37496SOL     OW14320   8.500   0.165   0.625
37496SOL    HW114321   8.415   0.126   0.607
37496SOL    HW214322   8.488   0.258   0.607
37497SOL     OW14323  12.908   8.691  12.351
37497SOL    HW114324  12.997   8.658  12.342
37497SOL    HW214325  12.856   8.637  12.293
37498SOL     OW14326   7.362   9.370   0.677
37498SOL    HW114327   7.284   9.385   0.730
37498SOL    HW214328   7.408   9.454   0.678
37499SOL     OW14329   6.115   3.235  13.381
37499SOL    HW114330   6.197   3.283  13.393
37499SOL    HW214331   6.141   3.143  13.384
37500SOL     OW14332   1.233   3.963   7.673
37500SOL    HW114333   1.201   3.900   7.738
37500SOL    HW214334   1.318   3.991   7.708
37501SOL     OW14335   5.063   4.392  12.592
37501SOL    HW114336   5.065   4.395  12.496
37501SOL    HW214337   5.046   4.483  12.618
37502SOL     OW14338   6.714   7.097  11.914
37502SOL    HW114339   6.712   7.191  11.931
37502SOL    HW214340   6.771   7.088  11.837
37503SOL     OW14341   9.442  11.833  12.712
37503SOL    HW114342   9.491  11.810  12.633
37503SOL    HW214343   9.474  11.774  12.779
37504SOL     OW14344   2.691   7.568   7.454
37504SOL    HW114345   2.754   7.552   7.524
37504SOL    HW214346   2.719   7.512   7.382
37505SOL     OW14347   7.962   4.979  12.880
37505SOL    HW114348   8.004   4.945  12.959
37505SOL    HW214349   8.035   4.996  12.820
37506SOL     OW14350   5.321   2.365  13.478
37506SOL    HW114351   5.249   2.424  13.501
37506SOL    HW214352   5.285   2.307  13.411
37507SOL     OW14353   7.669   8.023   9.281
37507SOL    HW114354   7.750   8.004   9.234
37507SOL    HW214355   7.600   7.998   9.220
37508SOL     OW14356   2.624   2.538   9.055
37508SOL    HW114357   2.671   2.518   9.135
37508SOL    HW214358   2.567   2.611   9.077
37509SOL     OW14359   7.159   5.346   2.267
37509SOL    HW114360   7.201   5.428   2.240
37509SOL    HW214361   7.162   5.347   2.362
37510SOL     OW14362   1.444   7.570   4.614
37510SOL    HW114363   1.500   7.644   4.588
37510SOL    HW214364   1.405   7.540   4.531
37511SOL     OW14365   2.565   3.514   4.976
37511SOL    HW114366   2.537   3.447   4.914
37511SOL    HW214367   2.660   3.519   4.965
37512SOL     OW14368   8.597   5.762  12.201
37512SOL    HW114369   8.502   5.774  12.205
37512SOL    HW214370   8.618   5.770  12.108
37513SOL     OW14371   0.354   9.410  14.620
37513SOL    HW114372   0.295   9.336  14.608
37513SOL    HW214373   0.350   9.458  14.537
37514SOL     OW14374  13.254  10.553  11.414
37514SOL    HW114375  13.272  10.641  11.381
37514SOL    HW214376  13.301  10.495  11.355
37515SOL     OW14377   1.991  11.612   3.494
37515SOL    HW114378   1.962  11.697   3.459
37515SOL    HW214379   2.049  11.634   3.566
37516SOL     OW14380   9.773  10.052  10.856
37516SOL    HW114381   9.696  10.007  10.822
37516SOL    HW214382   9.751  10.145  10.851
37517SOL     OW14383  14.650  11.529   2.571
37517SOL    HW114384  14.658  11.456   2.509
37517SOL    HW214385  14.601  11.595   2.522
37518SOL     OW14386   4.285   9.610  14.686
37518SOL    HW114387   4.279   9.650  14.600
37518SOL    HW214388   4.372   9.570  14.689
37519SOL     OW14389   9.107   4.673  11.154
37519SOL    HW114390   9.015   4.648  11.156
37519SOL    HW214391   9.106   4.768  11.137
37520SOL     OW14392  11.359   8.317   9.745
37520SOL    HW114393  11.291   8.275   9.692
37520SOL    HW214394  11.420   8.247   9.767
37521SOL     OW14395   8.986  14.176  11.150
37521SOL    HW114396   8.940  14.206  11.228
37521SOL    HW214397   8.977  14.080  11.153
37522SOL     OW14398   0.242  13.195   5.729
37522SOL    HW114399   0.148  13.210   5.734
37522SOL    HW214400   0.250  13.110   5.686
37523SOL     OW14401  12.718   4.448   2.111
37523SOL    HW114402  12.711   4.472   2.204
37523SOL    HW214403  12.713   4.531   2.064
37524SOL     OW14404   5.594   3.356   5.121
37524SOL    HW114405   5.548   3.358   5.037
37524SOL    HW214406   5.524   3.344   5.186
37525SOL     OW14407   6.584  11.737   5.652
37525SOL    HW114408   6.615  11.798   5.718
37525SOL    HW214409   6.610  11.651   5.685
37526SOL     OW14410   1.738   1.612   8.679
37526SOL    HW114411   1.750   1.658   8.596
37526SOL    HW214412   1.825   1.578   8.700
37527SOL     OW14413   8.095   3.018  12.898
37527SOL    HW114414   8.028   2.969  12.945
37527SOL    HW214415   8.143   3.065  12.966
37528SOL     OW14416  11.231   5.554  11.904
37528SOL    HW114417  11.277   5.480  11.943
37528SOL    HW214418  11.249   5.547  11.810
37529SOL     OW14419   5.606   2.084   8.911
37529SOL    HW114420   5.664   2.085   8.835
37529SOL    HW214421   5.656   2.040   8.980
37530SOL     OW14422   1.464  13.089   5.857
37530SOL    HW114423   1.410  13.081   5.935
37530SOL    HW214424   1.471  13.000   5.823
37531SOL     OW14425   0.150   8.645   0.891
37531SOL    HW114426   0.146   8.712   0.823
37531SOL    HW214427   0.062   8.645   0.929
37532SOL     OW14428   4.889   0.264   5.279
37532SOL    HW114429   4.903   0.232   5.190
37532SOL    HW214430   4.902   0.359   5.273
37533SOL     OW14431  11.373   4.546   3.917
37533SOL    HW114432  11.446   4.601   3.946
37533SOL    HW214433  11.408   4.457   3.919
37534SOL     OW14434   3.891   0.528   9.153
37534SOL    HW114435   3.820   0.535   9.217
37534SOL    HW214436   3.886   0.438   9.122
37535SOL     OW14437   0.929   0.195   8.570
37535SOL    HW114438   1.018   0.204   8.604
37535SOL    HW214439   0.874   0.195   8.648
37536SOL     OW14440  11.279   7.392   5.496
37536SOL    HW114441  11.346   7.402   5.563
37536SOL    HW214442  11.327   7.376   5.415
37537SOL     OW14443   4.596  14.009   7.412
37537SOL    HW114444   4.542  14.021   7.490
37537SOL    HW214445   4.533  14.008   7.340
37538SOL     OW14446  14.227  10.271   4.618
37538SOL    HW114447  14.216  10.364   4.597
37538SOL    HW214448  14.240  10.270   4.713
37539SOL     OW14449   0.518   1.715   1.478
37539SOL    HW114450   0.577   1.784   1.448
37539SOL    HW214451   0.570   1.635   1.477
37540SOL     OW14452   5.917   4.514   7.953
37540SOL    HW114453   5.838   4.461   7.965
37540SOL    HW214454   5.957   4.519   8.040
37541SOL     OW14455   3.600   6.072   9.407
37541SOL    HW114456   3.634   6.109   9.326
37541SOL    HW214457   3.677   6.047   9.457
37542SOL     OW14458  11.896   3.131   5.258
37542SOL    HW114459  11.922   3.194   5.325
37542SOL    HW214460  11.843   3.182   5.196
37543SOL     OW14461   0.262  10.533   6.864
37543SOL    HW114462   0.336  10.521   6.804
37543SOL    HW214463   0.264  10.456   6.921
37544SOL     OW14464  10.447   9.621   7.069
37544SOL    HW114465  10.371   9.585   7.024
37544SOL    HW214466  10.422   9.711   7.091
37545SOL     OW14467   1.248   7.239   1.738
37545SOL    HW114468   1.249   7.225   1.833
37545SOL    HW214469   1.331   7.282   1.719
37546SOL     OW14470  13.534  13.437  10.928
37546SOL    HW114471  13.615  13.386  10.926
37546SOL    HW214472  13.468  13.378  10.893
37547SOL     OW14473   3.692   3.510  13.896
37547SOL    HW114474   3.654   3.429  13.931
37547SOL    HW214475   3.661   3.579  13.955
37548SOL     OW14476   0.716  13.621   5.848
37548SOL    HW114477   0.791  13.585   5.800
37548SOL    HW214478   0.741  13.711   5.866
37549SOL     OW14479   2.792   0.672   7.540
37549SOL    HW114480   2.717   0.678   7.600
37549SOL    HW214481   2.855   0.616   7.586
37550SOL     OW14482  12.576   6.161   4.472
37550SOL    HW114483  12.516   6.231   4.446
37550SOL    HW214484  12.606   6.122   4.390
37551SOL     OW14485   7.905  13.010   3.913
37551SOL    HW114486   7.897  13.089   3.860
37551SOL    HW214487   7.909  12.939   3.849
37552SOL     OW14488   3.415  14.517   9.623
37552SOL    HW114489   3.376  14.590   9.576
37552SOL    HW214490   3.453  14.462   9.555
37553SOL     OW14491   3.070   9.968   9.537
37553SOL    HW114492   3.028   9.960   9.622
37553SOL    HW214493   3.070   9.879   9.502
37554SOL     OW14494   9.432   3.575   2.289
37554SOL    HW114495   9.518   3.547   2.258
37554SOL    HW214496   9.390   3.614   2.212
37555SOL     OW14497   2.238   4.551  11.749
37555SOL    HW114498   2.172   4.576  11.684
37555SOL    HW214499   2.322   4.572  11.707
37556SOL     OW14500   2.452   2.435   0.072
37556SOL    HW114501   2.497   2.520   0.068
37556SOL    HW214502   2.402   2.438   0.154
37557SOL     OW14503  13.755   3.709  12.264
37557SOL    HW114504  13.779   3.774  12.331
37557SOL    HW214505  13.838   3.676  12.232
37558SOL     OW14506   0.220   7.728   2.451
37558SOL    HW114507   0.236   7.635   2.435
37558SOL    HW214508   0.282   7.751   2.521
37559SOL     OW14509   4.355   2.514   8.577
37559SOL    HW114510   4.388   2.501   8.488
37559SOL    HW214511   4.387   2.438   8.626
37560SOL     OW14512  14.818   2.862   5.102
37560SOL    HW114513  14.759   2.937   5.109
37560SOL    HW214514  14.776   2.805   5.037
37561SOL     OW14515   5.554   7.189   9.993
37561SOL    HW114516   5.561   7.100  10.027
37561SOL    HW214517   5.486   7.229  10.047
37562SOL     OW14518   4.418   9.774  13.917
37562SOL    HW114519   4.398   9.862  13.948
37562SOL    HW214520   4.412   9.780  13.821
37563SOL     OW14521   6.058   0.116   2.443
37563SOL    HW114522   6.079   0.165   2.522
37563SOL    HW214523   5.966   0.091   2.454
37564SOL     OW14524  13.659  12.025   6.222
37564SOL    HW114525  13.711  12.095   6.261
37564SOL    HW214526  13.693  11.945   6.261
37565SOL     OW14527  13.659   2.157  10.568
37565SOL    HW114528  13.611   2.210  10.631
37565SOL    HW214529  13.750   2.186  10.576
37566SOL     OW14530  10.443  14.171   6.451
37566SOL    HW114531  10.404  14.146   6.534
37566SOL    HW214532  10.405  14.256   6.431
37567SOL     OW14533   5.862   3.769   8.426
37567SOL    HW114534   5.825   3.689   8.388
37567SOL    HW214535   5.858   3.755   8.521
37568SOL     OW14536   4.137   8.817   5.441
37568SOL    HW114537   4.154   8.797   5.349
37568SOL    HW214538   4.216   8.787   5.487
37569SOL     OW14539   5.785   4.979   5.652
37569SOL    HW114540   5.705   4.976   5.601
37569SOL    HW214541   5.768   4.922   5.727
37570SOL     OW14542   4.760   9.132   2.768
37570SOL    HW114543   4.714   9.052   2.740
37570SOL    HW214544   4.840   9.133   2.715
37571SOL     OW14545  14.270  11.234   3.170
37571SOL    HW114546  14.335  11.177   3.211
37571SOL    HW214547  14.321  11.307   3.135
37572SOL     OW14548   1.329   9.044   5.149
37572SOL    HW114549   1.296   9.131   5.128
37572SOL    HW214550   1.374   9.015   5.069
37573SOL     OW14551  11.037   4.885   9.050
37573SOL    HW114552  10.961   4.828   9.040
37573SOL    HW214553  11.013   4.944   9.122
37574SOL     OW14554   3.489   5.075   2.886
37574SOL    HW114555   3.575   5.072   2.844
37574SOL    HW214556   3.504   5.122   2.968
37575SOL     OW14557   1.829   2.649  11.760
37575SOL    HW114558   1.889   2.723  11.752
37575SOL    HW214559   1.746   2.689  11.789
37576SOL     OW14560   9.086   3.300   7.864
37576SOL    HW114561   9.062   3.227   7.807
37576SOL    HW214562   9.091   3.261   7.952
37577SOL     OW14563   4.729   6.130  10.057
37577SOL    HW114564   4.670   6.061  10.087
37577SOL    HW214565   4.740   6.187  10.133
37578SOL     OW14566   6.205   3.911   2.603
37578SOL    HW114567   6.279   3.909   2.664
37578SOL    HW214568   6.134   3.951   2.653
37579SOL     OW14569   0.815  11.406   9.980
37579SOL    HW114570   0.740  11.460  10.006
37579SOL    HW214571   0.885  11.469   9.962
37580SOL     OW14572   7.267   4.723   6.052
37580SOL    HW114573   7.339   4.762   6.102
37580SOL    HW214574   7.196   4.786   6.061
37581SOL     OW14575   4.293   7.219  14.849
37581SOL    HW114576   4.357   7.149  14.840
37581SOL    HW214577   4.333   7.282   0.037
37582SOL     OW14578  13.089   7.831   6.646
37582SOL    HW114579  13.003   7.812   6.608
37582SOL    HW214580  13.071   7.893   6.716
37583SOL     OW14581   9.489   8.607  13.866
37583SOL    HW114582   9.511   8.688  13.821
37583SOL    HW214583   9.453   8.636  13.951
37584SOL     OW14584   1.641   1.914   6.821
37584SOL    HW114585   1.621   1.841   6.762
37584SOL    HW214586   1.730   1.897   6.850
37585SOL     OW14587  10.665  11.206   4.199
37585SOL    HW114588  10.613  11.231   4.275
37585SOL    HW214589  10.621  11.129   4.164
37586SOL     OW14590   5.114  13.242   4.673
37586SOL    HW114591   5.057  13.241   4.596
37586SOL    HW214592   5.202  13.224   4.639
37587SOL     OW14593   7.011   2.529   7.295
37587SOL    HW114594   7.016   2.457   7.232
37587SOL    HW214595   7.101   2.561   7.302
37588SOL     OW14596   5.153   8.032   5.409
37588SOL    HW114597   5.144   8.093   5.336
37588SOL    HW214598   5.091   7.962   5.389
37589SOL     OW14599   8.112   8.344   6.777
37589SOL    HW114600   8.067   8.326   6.695
37589SOL    HW214601   8.203   8.319   6.760
37590SOL     OW14602   4.293   8.663   8.419
37590SOL    HW114603   4.223   8.671   8.484
37590SOL    HW214604   4.369   8.701   8.462
37591SOL     OW14605  13.599   4.899   0.345
37591SOL    HW114606  13.514   4.866   0.373
37591SOL    HW214607  13.619   4.970   0.407
37592SOL     OW14608   2.136  11.113  11.500
37592SOL    HW114609   2.134  11.209  11.498
37592SOL    HW214610   2.171  11.088  11.414
37593SOL     OW14611  14.139  13.720  12.273
37593SOL    HW114612  14.158  13.715  12.180
37593SOL    HW214613  14.049  13.690  12.281
37594SOL     OW14614   7.069  11.258   2.028
37594SOL    HW114615   6.977  11.231   2.027
37594SOL    HW214616   7.118  11.177   2.012
37595SOL     OW14617   9.594   1.377  11.823
37595SOL    HW114618   9.667   1.406  11.768
37595SOL    HW214619   9.536   1.330  11.763
37596SOL     OW14620  12.138   4.809   7.052
37596SOL    HW114621  12.080   4.791   7.126
37596SOL    HW214622  12.174   4.896   7.071
37597SOL     OW14623  12.845  12.197  10.387
37597SOL    HW114624  12.920  12.249  10.358
37597SOL    HW214625  12.819  12.147  10.310
37598SOL     OW14626   6.755  12.075   8.112
37598SOL    HW114627   6.847  12.055   8.097
37598SOL    HW214628   6.749  12.093   8.206
37599SOL     OW14629   4.454   8.687  10.898
37599SOL    HW114630   4.496   8.678  10.812
37599SOL    HW214631   4.421   8.599  10.917
37600SOL     OW14632   3.009  10.838  13.579
37600SOL    HW114633   2.962  10.912  13.618
37600SOL    HW214634   3.086  10.878  13.538
37601SOL     OW14635   5.669  11.613   3.653
37601SOL    HW114636   5.660  11.611   3.748
37601SOL    HW214637   5.589  11.657   3.622
37602SOL     OW14638   9.139  13.080   9.043
37602SOL    HW114639   9.190  13.117   8.971
37602SOL    HW214640   9.169  12.989   9.050
37603SOL     OW14641   5.745   8.445  10.336
37603SOL    HW114642   5.663   8.395  10.348
37603SOL    HW214643   5.735   8.522  10.392
37604SOL     OW14644  10.460  14.173   9.852
37604SOL    HW114645  10.434  14.203   9.765
37604SOL    HW214646  10.378  14.175   9.902
37605SOL     OW14647  12.376   4.081   8.679
37605SOL    HW114648  12.317   4.155   8.667
37605SOL    HW214649  12.318   4.005   8.687
37606SOL     OW14650   3.823  11.698  13.319
37606SOL    HW114651   3.892  11.649  13.274
37606SOL    HW214652   3.743  11.676  13.272
37607SOL     OW14653  12.427   9.365   4.275
37607SOL    HW114654  12.501   9.329   4.323
37607SOL    HW214655  12.399   9.441   4.327
37608SOL     OW14656   1.646   0.159   5.893
37608SOL    HW114657   1.557   0.164   5.858
37608SOL    HW214658   1.700   0.200   5.825
37609SOL     OW14659   2.658   9.712  11.538
37609SOL    HW114660   2.676   9.680  11.626
37609SOL    HW214661   2.660   9.807  11.546
37610SOL     OW14662  12.369   6.084   6.275
37610SOL    HW114663  12.434   6.035   6.224
37610SOL    HW214664  12.332   6.146   6.213
37611SOL     OW14665  10.265  13.854  13.459
37611SOL    HW114666  10.287  13.945  13.480
37611SOL    HW214667  10.180  13.859  13.415
37612SOL     OW14668  13.974   7.840   7.787
37612SOL    HW114669  13.924   7.904   7.838
37612SOL    HW214670  14.046   7.815   7.846
37613SOL     OW14671   1.648   8.843   2.433
37613SOL    HW114672   1.571   8.787   2.429
37613SOL    HW214673   1.703   8.814   2.360
37614SOL     OW14674  10.174   3.434  12.838
37614SOL    HW114675  10.135   3.410  12.754
37614SOL    HW214676  10.247   3.492  12.815
37615SOL     OW14677   9.669   5.520  14.179
37615SOL    HW114678   9.742   5.461  14.157
37615SOL    HW214679   9.711   5.602  14.205
37616SOL     OW14680   7.674   8.014   0.889
37616SOL    HW114681   7.710   8.030   0.802
37616SOL    HW214682   7.746   7.976   0.938
37617SOL     OW14683  10.353  10.993  10.350
37617SOL    HW114684  10.323  11.042  10.427
37617SOL    HW214685  10.285  11.008  10.285
37618SOL     OW14686  14.434   8.462   4.453
37618SOL    HW114687  14.444   8.383   4.506
37618SOL    HW214688  14.355   8.446   4.401
37619SOL     OW14689   0.187   0.867   6.320
37619SOL    HW114690   0.243   0.935   6.282
37619SOL    HW214691   0.226   0.785   6.292
37620SOL     OW14692   5.964   7.994   4.866
37620SOL    HW114693   6.002   7.984   4.954
37620SOL    HW214694   5.983   8.085   4.843
37621SOL     OW14695   2.651   3.336   5.318
37621SOL    HW114696   2.716   3.347   5.248
37621SOL    HW214697   2.702   3.336   5.399
37622SOL     OW14698   6.240   0.191  11.873
37622SOL    HW114699   6.196   0.216  11.954
37622SOL    HW214700   6.230   0.267  11.816
37623SOL     OW14701  11.798   8.838  11.135
37623SOL    HW114702  11.849   8.895  11.192
37623SOL    HW214703  11.721   8.815  11.186
37624SOL     OW14704   7.479   6.480   1.140
37624SOL    HW114705   7.529   6.431   1.076
37624SOL    HW214706   7.494   6.435   1.223
37625SOL     OW14707  14.509   0.595   1.189
37625SOL    HW114708  14.485   0.626   1.102
37625SOL    HW214709  14.605   0.599   1.190
37626SOL     OW14710  13.575   7.877  12.696
37626SOL    HW114711  13.632   7.858  12.621
37626SOL    HW214712  13.501   7.924  12.658
37627SOL     OW14713  11.566   1.905   8.232
37627SOL    HW114714  11.642   1.917   8.175
37627SOL    HW214715  11.556   1.810   8.238
37628SOL     OW14716   0.401  14.455   6.313
37628SOL    HW114717   0.331  14.395   6.340
37628SOL    HW214718   0.476  14.429   6.366
37629SOL     OW14719   1.441  12.755  14.808
37629SOL    HW114720   1.512  12.819  14.802
37629SOL    HW214721   1.417  12.753   0.028
37630SOL     OW14722   6.664   3.678   5.350
37630SOL    HW114723   6.597   3.737   5.315
37630SOL    HW214724   6.744   3.703   5.304
37631SOL     OW14725   9.840   0.710   3.833
37631SOL    HW114726   9.904   0.735   3.899
37631SOL    HW214727   9.876   0.743   3.751
37632SOL     OW14728   5.686   0.143  13.264
37632SOL    HW114729   5.657   0.208  13.201
37632SOL    HW214730   5.659   0.059  13.226
37633SOL     OW14731   1.920  11.297  13.145
37633SOL    HW114732   1.925  11.337  13.058
37633SOL    HW214733   2.006  11.258  13.159
37634SOL     OW14734  12.439  10.350   4.526
37634SOL    HW114735  12.411  10.280   4.584
37634SOL    HW214736  12.477  10.416   4.584
37635SOL     OW14737  11.075  13.104   0.912
37635SOL    HW114738  11.009  13.034   0.906
37635SOL    HW214739  11.052  13.152   0.991
37636SOL     OW14740   4.703   7.126   0.128
37636SOL    HW114741   4.651   7.206   0.136
37636SOL    HW214742   4.650   7.068   0.073
37637SOL     OW14743   4.710  10.846  11.313
37637SOL    HW114744   4.706  10.925  11.365
37637SOL    HW214745   4.761  10.784  11.367
37638SOL     OW14746   9.810   2.060   8.185
37638SOL    HW114747   9.899   2.027   8.199
37638SOL    HW214748   9.816   2.114   8.106
37639SOL     OW14749   8.801   7.544   6.651
37639SOL    HW114750   8.889   7.564   6.682
37639SOL    HW214751   8.802   7.451   6.631
37640SOL     OW14752   0.528   9.734   7.464
37640SOL    HW114753   0.559   9.818   7.431
37640SOL    HW214754   0.536   9.741   7.559
37641SOL     OW14755   3.439  14.369   2.943
37641SOL    HW114756   3.507  14.435   2.929
37641SOL    HW214757   3.470  14.318   3.018
37642SOL     OW14758   7.732   2.180  12.011
37642SOL    HW114759   7.651   2.226  11.987
37642SOL    HW214760   7.712   2.140  12.096
37643SOL     OW14761  12.423   7.519  14.643
37643SOL    HW114762  12.473   7.536  14.564
37643SOL    HW214763  12.428   7.601  14.693
37644SOL     OW14764  10.336   1.983  14.617
37644SOL    HW114765  10.324   1.949  14.706
37644SOL    HW214766  10.348   2.077  14.629
37645SOL     OW14767  14.077   5.673   1.460
37645SOL    HW114768  14.048   5.763   1.475
37645SOL    HW214769  14.169   5.672   1.488
37646SOL     OW14770   7.459   0.317  10.279
37646SOL    HW114771   7.457   0.298  10.185
37646SOL    HW214772   7.373   0.292  10.311
37647SOL     OW14773   1.490   0.735  10.896
37647SOL    HW114774   1.435   0.734  10.975
37647SOL    HW214775   1.579   0.723  10.929
37648SOL     OW14776   2.292   8.290   8.452
37648SOL    HW114777   2.342   8.291   8.533
37648SOL    HW214778   2.213   8.240   8.473
37649SOL     OW14779  12.549   0.309   0.297
37649SOL    HW114780  12.500   0.366   0.357
37649SOL    HW214781  12.597   0.250   0.354
37650SOL     OW14782   8.922   1.017   6.250
37650SOL    HW114783   8.919   1.064   6.333
37650SOL    HW214784   8.938   1.085   6.185
37651SOL     OW14785   4.273   2.489   4.295
37651SOL    HW114786   4.314   2.530   4.371
37651SOL    HW214787   4.327   2.516   4.221
37652SOL     OW14788  13.230   7.469  12.758
37652SOL    HW114789  13.276   7.507  12.833
37652SOL    HW214790  13.220   7.377  12.781
37653SOL     OW14791  11.877   2.062   2.567
37653SOL    HW114792  11.944   2.066   2.499
37653SOL    HW214793  11.796   2.089   2.524
37654SOL     OW14794   6.561   9.082   2.835
37654SOL    HW114795   6.547   8.991   2.811
37654SOL    HW214796   6.473   9.120   2.840
37655SOL     OW14797   2.144   3.769  11.815
37655SOL    HW114798   2.143   3.851  11.765
37655SOL    HW214799   2.235   3.758  11.841
37656SOL     OW14800  14.626  11.259  13.007
37656SOL    HW114801  14.694  11.327  13.010
37656SOL    HW214802  14.633  11.215  13.091
37657SOL     OW14803   0.649   1.148   4.090
37657SOL    HW114804   0.654   1.135   4.184
37657SOL    HW214805   0.676   1.064   4.052
37658SOL     OW14806  14.148   7.326   9.823
37658SOL    HW114807  14.180   7.352   9.737
37658SOL    HW214808  14.224   7.289   9.867
37659SOL     OW14809   1.735   2.113   4.059
37659SOL    HW114810   1.688   2.194   4.040
37659SOL    HW214811   1.666   2.046   4.063
37660SOL     OW14812   9.311   0.632   2.126
37660SOL    HW114813   9.267   0.650   2.210
37660SOL    HW214814   9.397   0.598   2.151
37661SOL     OW14815  13.248  11.306   8.251
37661SOL    HW114816  13.213  11.217   8.255
37661SOL    HW214817  13.244  11.330   8.158
37662SOL     OW14818   6.864  13.931  11.969
37662SOL    HW114819   6.798  13.992  12.003
37662SOL    HW214820   6.903  13.892  12.047
37663SOL     OW14821   3.484  12.772   0.051
37663SOL    HW114822   3.509  12.782   0.143
37663SOL    HW214823   3.398  12.813   0.046
37664SOL     OW14824  12.947   4.078   1.610
37664SOL    HW114825  12.929   4.102   1.701
37664SOL    HW214826  12.863   4.087   1.565
37665SOL     OW14827   5.295   4.890   1.477
37665SOL    HW114828   5.297   4.808   1.525
37665SOL    HW214829   5.225   4.879   1.413
37666SOL     OW14830  11.152   5.441   0.863
37666SOL    HW114831  11.173   5.500   0.935
37666SOL    HW214832  11.208   5.469   0.791
37667SOL     OW14833   1.998   8.928   4.541
37667SOL    HW114834   2.034   8.970   4.463
37667SOL    HW214835   1.985   8.837   4.516
37668SOL     OW14836   4.893  11.944   0.635
37668SOL    HW114837   4.857  11.978   0.554
37668SOL    HW214838   4.887  12.017   0.697
37669SOL     OW14839   1.089  10.489   2.127
37669SOL    HW114840   1.135  10.441   2.196
37669SOL    HW214841   1.024  10.542   2.174
37670SOL     OW14842  13.581  11.139   9.575
37670SOL    HW114843  13.488  11.117   9.572
37670SOL    HW214844  13.605  11.128   9.667
37671SOL     OW14845  12.062   5.156   1.862
37671SOL    HW114846  12.103   5.111   1.788
37671SOL    HW214847  11.995   5.212   1.821
37672SOL     OW14848   4.646   6.566   0.052
37672SOL    HW114849   4.717   6.556  14.861
37672SOL    HW214850   4.587   6.493   0.034
37673SOL     OW14851   7.479   8.383   4.020
37673SOL    HW114852   7.496   8.292   3.995
37673SOL    HW214853   7.449   8.379   4.111
37674SOL     OW14854   5.437  11.361  11.535
37674SOL    HW114855   5.363  11.348  11.476
37674SOL    HW214856   5.449  11.276  11.577
37675SOL     OW14857   2.635  14.814  10.850
37675SOL    HW114858   2.544  14.787  10.861
37675SOL    HW214859   2.655  14.861  10.931
37676SOL     OW14860   6.015   5.172   2.213
37676SOL    HW114861   6.027   5.079   2.191
37676SOL    HW214862   5.936   5.198   2.166
37677SOL     OW14863   8.977   8.450  11.711
37677SOL    HW114864   8.920   8.526  11.696
37677SOL    HW214865   8.922   8.388  11.758
37678SOL     OW14866  12.902  14.451   9.177
37678SOL    HW114867  12.940  14.533   9.147
37678SOL    HW214868  12.810  14.472   9.193
37679SOL     OW14869   3.378   3.772  10.915
37679SOL    HW114870   3.401   3.791  11.005
37679SOL    HW214871   3.384   3.856  10.870
37680SOL     OW14872   3.855   8.565  11.669
37680SOL    HW114873   3.773   8.537  11.631
37680SOL    HW214874   3.899   8.614  11.599
37681SOL     OW14875   1.795  10.253   6.546
37681SOL    HW114876   1.880  10.296   6.547
37681SOL    HW214877   1.783  10.225   6.455
37682SOL     OW14878  13.938   5.154   7.918
37682SOL    HW114879  13.946   5.061   7.941
37682SOL    HW214880  14.028   5.181   7.898
37683SOL     OW14881  12.145  13.471   7.401
37683SOL    HW114882  12.226  13.515   7.428
37683SOL    HW214883  12.159  13.451   7.308
37684SOL     OW14884   5.160   1.878  14.713
37684SOL    HW114885   5.168   1.810  14.781
37684SOL    HW214886   5.080   1.925  14.735
37685SOL     OW14887   8.151   7.474  10.415
37685SOL    HW114888   8.229   7.443  10.462
37685SOL    HW214889   8.172   7.458  10.323
37686SOL     OW14890  13.871  14.871   1.465
37686SOL    HW114891  13.963  14.848   1.481
37686SOL    HW214892  13.823  14.818   1.529
37687SOL     OW14893   9.931  14.479  12.062
37687SOL    HW114894   9.883  14.396  12.053
37687SOL    HW214895   9.925  14.501  12.155
37688SOL     OW14896   8.418   5.062   6.942
37688SOL    HW114897   8.484   5.018   6.889
37688SOL    HW214898   8.448   5.152   6.949
37689SOL     OW14899   3.802  12.890  14.823
37689SOL    HW114900   3.890  12.921  14.842
37689SOL    HW214901   3.745  12.959  14.857
37690SOL     OW14902  13.123  11.950   1.965
37690SOL    HW114903  13.167  11.990   1.890
37690SOL    HW214904  13.055  12.013   1.989
37691SOL     OW14905   9.328  10.222   8.017
37691SOL    HW114906   9.245  10.199   8.058
37691SOL    HW214907   9.389  10.154   8.046
37692SOL     OW14908   2.091   0.948   8.149
37692SOL    HW114909   2.090   1.034   8.191
37692SOL    HW214910   2.036   0.958   8.072
37693SOL     OW14911   2.315   0.891   2.796
37693SOL    HW114912   2.337   0.913   2.706
37693SOL    HW214913   2.398   0.893   2.843
37694SOL     OW14914   3.316   3.386   9.547
37694SOL    HW114915   3.385   3.339   9.593
37694SOL    HW214916   3.239   3.331   9.557
37695SOL     OW14917  13.256   4.866  10.467
37695SOL    HW114918  13.267   4.807  10.542
37695SOL    HW214919  13.345   4.888  10.440
37696SOL     OW14920   1.376  12.755  13.878
37696SOL    HW114921   1.354  12.671  13.919
37696SOL    HW214922   1.364  12.740  13.785
37697SOL     OW14923   6.766   1.147  13.837
37697SOL    HW114924   6.780   1.055  13.813
37697SOL    HW214925   6.781   1.196  13.756
37698SOL     OW14926   2.229  14.046   9.686
37698SOL    HW114927   2.269  14.126   9.721
37698SOL    HW214928   2.298  14.005   9.635
37699SOL     OW14929   5.544   5.856   5.586
37699SOL    HW114930   5.459   5.816   5.608
37699SOL    HW214931   5.604   5.781   5.581
37700SOL     OW14932   5.792   9.603   8.112
37700SOL    HW114933   5.773   9.545   8.038
37700SOL    HW214934   5.810   9.688   8.071
37701SOL     OW14935   2.436   1.202   0.658
37701SOL    HW114936   2.508   1.264   0.657
37701SOL    HW214937   2.357   1.256   0.653
37702SOL     OW14938   2.734  11.633  13.543
37702SOL    HW114939   2.814  11.651  13.494
37702SOL    HW214940   2.663  11.666  13.488
37703SOL     OW14941   9.792   0.949   4.115
37703SOL    HW114942   9.715   0.895   4.135
37703SOL    HW214943   9.861   0.913   4.170
37704SOL     OW14944   7.896   3.216   4.914
37704SOL    HW114945   7.874   3.269   4.837
37704SOL    HW214946   7.881   3.274   4.988
37705SOL     OW14947   7.070   9.167   2.431
37705SOL    HW114948   7.009   9.198   2.363
37705SOL    HW214949   7.040   9.079   2.451
37706SOL     OW14950  14.320  10.172   2.359
37706SOL    HW114951  14.225  10.178   2.366
37706SOL    HW214952  14.337  10.168   2.264
37707SOL     OW14953   8.360   1.695  12.148
37707SOL    HW114954   8.390   1.734  12.230
37707SOL    HW214955   8.298   1.758  12.112
37708SOL     OW14956   4.487  14.197   3.021
37708SOL    HW114957   4.467  14.148   3.101
37708SOL    HW214958   4.455  14.142   2.950
37709SOL     OW14959  10.025   1.115  11.050
37709SOL    HW114960  10.106   1.066  11.061
37709SOL    HW214961   9.962   1.049  11.020
37710SOL     OW14962   1.304   8.539   3.494
37710SOL    HW114963   1.383   8.551   3.441
37710SOL    HW214964   1.336   8.517   3.581
37711SOL     OW14965   8.419   4.892   8.564
37711SOL    HW114966   8.447   4.982   8.547
37711SOL    HW214967   8.459   4.840   8.494
37712SOL     OW14968   9.522  12.087   4.937
37712SOL    HW114969   9.456  12.103   4.870
37712SOL    HW214970   9.478  12.030   5.001
37713SOL     OW14971   5.966  12.691   6.619
37713SOL    HW114972   5.956  12.698   6.524
37713SOL    HW214973   5.976  12.781   6.649
37714SOL     OW14974   5.882   0.645   6.035
37714SOL    HW114975   5.811   0.581   6.040
37714SOL    HW214976   5.844   0.718   5.987
37715SOL     OW14977   5.275  10.714   4.279
37715SOL    HW114978   5.322  10.631   4.288
37715SOL    HW214979   5.183  10.689   4.278
37716SOL     OW14980  10.840   9.678   9.000
37716SOL    HW114981  10.808   9.645   8.916
37716SOL    HW214982  10.833   9.604   9.060
37717SOL     OW14983   0.064  13.521   9.433
37717SOL    HW114984  14.854  13.562   9.460
37717SOL    HW214985   0.037  13.443   9.384
37718SOL     OW14986   3.622   4.289  13.896
37718SOL    HW114987   3.592   4.220  13.955
37718SOL    HW214988   3.584   4.370  13.932
37719SOL     OW14989  10.423   0.795   9.862
37719SOL    HW114990  10.445   0.841   9.943
37719SOL    HW214991  10.327   0.796   9.859
37720SOL     OW14992   5.841   5.418   2.759
37720SOL    HW114993   5.895   5.484   2.803
37720SOL    HW214994   5.853   5.339   2.811
37721SOL     OW14995  11.699   6.031  11.442
37721SOL    HW114996  11.748   5.973  11.383
37721SOL    HW214997  11.627   5.976  11.474
37722SOL     OW14998   0.286  13.549   1.877
37722SOL    HW114999   0.254  13.562   1.788
37722SOL    HW215000   0.381  13.548   1.868
37723SOL     OW15001   4.094  14.576   0.801
37723SOL    HW115002   4.059  14.665   0.806
37723SOL    HW215003   4.135  14.571   0.715
37724SOL     OW15004  14.716   2.176   2.828
37724SOL    HW115005  14.765   2.120   2.888
37724SOL    HW215006  14.626   2.143   2.831
37725SOL     OW15007   3.929  10.682  10.694
37725SOL    HW115008   4.017  10.703  10.726
37725SOL    HW215009   3.926  10.720  10.606
37726SOL     OW15010   1.622  13.649  12.960
37726SOL    HW115011   1.612  13.685  13.048
37726SOL    HW215012   1.596  13.557  12.969
37727SOL     OW15013   6.894  10.263   0.102
37727SOL    HW115014   6.882  10.344   0.052
37727SOL    HW215015   6.850  10.279   0.185
37728SOL     OW15016   6.710   8.599  12.704
37728SOL    HW115017   6.652   8.669  12.731
37728SOL    HW215018   6.688   8.582  12.612
37729SOL     OW15019   0.308  11.746  11.000
37729SOL    HW115020   0.293  11.798  10.921
37729SOL    HW215021   0.350  11.807  11.061
37730SOL     OW15022  14.811   2.989   8.045
37730SOL    HW115023  14.778   3.075   8.071
37730SOL    HW215024  14.771   2.973   7.959
37731SOL     OW15025   9.907   9.149  13.754
37731SOL    HW115026   9.919   9.055  13.771
37731SOL    HW215027   9.947   9.163  13.668
37732SOL     OW15028   2.545   8.740  12.499
37732SOL    HW115029   2.626   8.693  12.520
37732SOL    HW215030   2.563   8.830  12.526
37733SOL     OW15031   5.659   2.249   1.953
37733SOL    HW115032   5.718   2.238   2.028
37733SOL    HW215033   5.658   2.343   1.937
37734SOL     OW15034   2.080   2.256   8.194
37734SOL    HW115035   2.065   2.328   8.133
37734SOL    HW215036   2.175   2.246   8.198
37735SOL     OW15037   6.891  11.861   3.404
37735SOL    HW115038   6.978  11.883   3.370
37735SOL    HW215039   6.841  11.943   3.398
37736SOL     OW15040  14.309   8.618   2.816
37736SOL    HW115041  14.288   8.524   2.816
37736SOL    HW215042  14.335   8.637   2.726
37737SOL     OW15043   7.668  14.292   7.083
37737SOL    HW115044   7.598  14.348   7.049
37737SOL    HW215045   7.734  14.291   7.014
37738SOL     OW15046   0.933  13.837   4.060
37738SOL    HW115047   0.839  13.819   4.054
37738SOL    HW215048   0.967  13.819   3.972
37739SOL     OW15049   2.019  12.444  13.568
37739SOL    HW115050   2.055  12.461  13.655
37739SOL    HW215051   1.979  12.357  13.574
37740SOL     OW15052   6.498   6.688   7.039
37740SOL    HW115053   6.533   6.600   7.049
37740SOL    HW215054   6.455   6.707   7.122
37741SOL     OW15055  13.522  14.391   5.371
37741SOL    HW115056  13.579  14.415   5.298
37741SOL    HW215057  13.548  14.448   5.443
37742SOL     OW15058   3.680   8.429   8.214
37742SOL    HW115059   3.702   8.519   8.189
37742SOL    HW215060   3.643   8.390   8.135
37743SOL     OW15061   7.460  10.371  13.030
37743SOL    HW115062   7.533  10.392  12.971
37743SOL    HW215063   7.401  10.446  13.024
37744SOL     OW15064  14.370   7.377  12.156
37744SOL    HW115065  14.344   7.299  12.206
37744SOL    HW215066  14.292   7.433  12.158
37745SOL     OW15067  11.379   5.925  10.606
37745SOL    HW115068  11.392   5.928  10.512
37745SOL    HW215069  11.431   5.997  10.641
37746SOL     OW15070   9.951  12.997   7.557
37746SOL    HW115071  10.044  13.012   7.573
37746SOL    HW215072   9.940  12.902   7.563
37747SOL     OW15073  12.837   5.527   9.734
37747SOL    HW115074  12.804   5.441   9.759
37747SOL    HW215075  12.847   5.574   9.816
37748SOL     OW15076   6.856  14.663  11.248
37748SOL    HW115077   6.910  14.587  11.227
37748SOL    HW215078   6.812  14.684  11.165
37749SOL     OW15079  14.057   5.457   6.646
37749SOL    HW115080  14.116   5.528   6.674
37749SOL    HW215081  14.030   5.482   6.557
37750SOL     OW15082   7.619   9.007   5.986
37750SOL    HW115083   7.636   8.921   5.947
37750SOL    HW215084   7.669   9.006   6.068
37751SOL     OW15085   7.997  10.292   3.766
37751SOL    HW115086   8.054  10.222   3.736
37751SOL    HW215087   7.938  10.309   3.693
37752SOL     OW15088  12.324   0.219   6.852
37752SOL    HW115089  12.285   0.202   6.937
37752SOL    HW215090  12.416   0.197   6.862
37753SOL     OW15091   7.059   5.561   5.648
37753SOL    HW115092   7.000   5.592   5.717
37753SOL    HW215093   7.015   5.485   5.611
37754SOL     OW15094   5.062   5.783   1.600
37754SOL    HW115095   4.971   5.814   1.604
37754SOL    HW215096   5.056   5.695   1.564
37755SOL     OW15097   8.512  13.349   4.614
37755SOL    HW115098   8.548  13.392   4.537
37755SOL    HW215099   8.487  13.421   4.672
37756SOL     OW15100   2.841   9.438  11.786
37756SOL    HW115101   2.762   9.439  11.733
37756SOL    HW215102   2.888   9.518  11.761
37757SOL     OW15103  14.712   4.743   8.676
37757SOL    HW115104  14.681   4.652   8.675
37757SOL    HW215105  14.657   4.786   8.741
37758SOL     OW15106   2.614   3.771   8.483
37758SOL    HW115107   2.699   3.800   8.516
37758SOL    HW215108   2.633   3.730   8.399
37759SOL     OW15109  13.336   5.896  13.475
37759SOL    HW115110  13.388   5.894  13.555
37759SOL    HW215111  13.324   5.804  13.451
37760SOL     OW15112   3.599   5.786   9.302
37760SOL    HW115113   3.680   5.807   9.256
37760SOL    HW215114   3.603   5.692   9.316
37761SOL     OW15115  13.698  12.253   1.758
37761SOL    HW115116  13.641  12.325   1.734
37761SOL    HW215117  13.785  12.279   1.727
37762SOL     OW15118   4.913  10.041  12.380
37762SOL    HW115119   4.863  10.079  12.308
37762SOL    HW215120   4.901  10.103  12.453
37763SOL     OW15121   9.006   9.088   4.943
37763SOL    HW115122   9.087   9.119   4.902
37763SOL    HW215123   9.035   9.050   5.026
37764SOL     OW15124   7.004   1.409   7.555
37764SOL    HW115125   7.078   1.413   7.495
37764SOL    HW215126   7.013   1.487   7.610
37765SOL     OW15127   9.359  13.578  13.752
37765SOL    HW115128   9.448  13.588  13.719
37765SOL    HW215129   9.350  13.484  13.769
37766SOL     OW15130   9.331   4.795   1.303
37766SOL    HW115131   9.249   4.755   1.332
37766SOL    HW215132   9.385   4.800   1.382
37767SOL     OW15133   6.997   0.987   6.489
37767SOL    HW115134   7.022   0.972   6.398
37767SOL    HW215135   6.934   0.917   6.507
37768SOL     OW15136  12.938   8.782  11.118
37768SOL    HW115137  13.019   8.788  11.168
37768SOL    HW215138  12.898   8.699  11.145
37769SOL     OW15139   8.310   3.281   4.381
37769SOL    HW115140   8.399   3.252   4.360
37769SOL    HW215141   8.316   3.377   4.384
37770SOL     OW15142  10.944  11.328  13.442
37770SOL    HW115143  10.936  11.233  13.454
37770SOL    HW215144  11.038  11.344  13.439
37771SOL     OW15145  13.133   9.684  12.410
37771SOL    HW115146  13.112   9.591  12.400
37771SOL    HW215147  13.080   9.713  12.484
37772SOL     OW15148   5.422   3.325  13.500
37772SOL    HW115149   5.345   3.361  13.543
37772SOL    HW215150   5.393   3.304  13.411
37773SOL     OW15151   0.366   6.592   0.878
37773SOL    HW115152   0.292   6.536   0.900
37773SOL    HW215153   0.330   6.659   0.820
37774SOL     OW15154   9.927  10.542  10.461
37774SOL    HW115155   9.847  10.580  10.496
37774SOL    HW215156   9.908  10.449  10.451
37775SOL     OW15157  13.712   3.682  11.924
37775SOL    HW115158  13.747   3.672  12.012
37775SOL    HW215159  13.776   3.639  11.868
37776SOL     OW15160  14.444   9.468   8.705
37776SOL    HW115161  14.373   9.487   8.767
37776SOL    HW215162  14.400   9.427   8.630
37777SOL     OW15163   5.864   5.173   9.628
37777SOL    HW115164   5.948   5.173   9.583
37777SOL    HW215165   5.831   5.263   9.617
37778SOL     OW15166   4.501   8.182   4.317
37778SOL    HW115167   4.488   8.179   4.411
37778SOL    HW215168   4.500   8.090   4.290
37779SOL     OW15169   3.694   3.664  13.669
37779SOL    HW115170   3.611   3.632  13.633
37779SOL    HW215171   3.706   3.614  13.750
37780SOL     OW15172   8.449  10.747   2.827
37780SOL    HW115173   8.494  10.689   2.766
37780SOL    HW215174   8.373  10.780   2.778
37781SOL     OW15175   1.144   4.727  11.909
37781SOL    HW115176   1.223   4.697  11.865
37781SOL    HW215177   1.155   4.822  11.915
37782SOL     OW15178  10.839   2.455  14.006
37782SOL    HW115179  10.803   2.376  14.047
37782SOL    HW215180  10.819   2.445  13.913
37783SOL     OW15181   8.017   0.776  11.713
37783SOL    HW115182   8.067   0.795  11.634
37783SOL    HW215183   7.998   0.861  11.751
37784SOL     OW15184   9.756   2.054  11.108
37784SOL    HW115185   9.711   2.042  11.192
37784SOL    HW215186   9.700   2.115  11.059
37785SOL     OW15187   2.270   4.157  11.376
37785SOL    HW115188   2.244   4.249  11.382
37785SOL    HW215189   2.212   4.120  11.311
37786SOL     OW15190   3.414  13.741   4.410
37786SOL    HW115191   3.346  13.690   4.455
37786SOL    HW215192   3.494  13.722   4.460
37787SOL     OW15193   4.193   9.950  13.676
37787SOL    HW115194   4.135   9.926  13.604
37787SOL    HW215195   4.279   9.916  13.651
37788SOL     OW15196  14.331   7.183  14.626
37788SOL    HW115197  14.285   7.149  14.703
37788SOL    HW215198  14.261   7.211  14.566
37789SOL     OW15199   6.634   9.880  11.451
37789SOL    HW115200   6.561   9.913  11.399
37789SOL    HW215201   6.594   9.815  11.510
37790SOL     OW15202   7.906   2.299   3.400
37790SOL    HW115203   7.860   2.283   3.483
37790SOL    HW215204   7.998   2.287   3.422
37791SOL     OW15205  10.428   4.608   9.346
37791SOL    HW115206  10.360   4.568   9.291
37791SOL    HW215207  10.459   4.535   9.401
37792SOL     OW15208   5.991   1.746   9.444
37792SOL    HW115209   6.022   1.657   9.431
37792SOL    HW215210   6.069   1.795   9.470
37793SOL     OW15211   3.001   9.453  12.472
37793SOL    HW115212   3.050   9.412  12.401
37793SOL    HW215213   3.043   9.538  12.485
37794SOL     OW15214   4.729  13.895  13.156
37794SOL    HW115215   4.695  13.905  13.245
37794SOL    HW215216   4.667  13.944  13.102
37795SOL     OW15217  14.603   1.371  14.441
37795SOL    HW115218  14.633   1.361  14.351
37795SOL    HW215219  14.543   1.445  14.438
37796SOL     OW15220   2.440  10.091   9.091
37796SOL    HW115221   2.391  10.016   9.126
37796SOL    HW215222   2.374  10.141   9.042
37797SOL     OW15223   0.065   1.773   9.876
37797SOL    HW115224   0.059   1.772   9.780
37797SOL    HW215225   0.110   1.855   9.896
37798SOL     OW15226   2.234  13.338  11.603
37798SOL    HW115227   2.196  13.426  11.610
37798SOL    HW215228   2.185  13.296  11.532
37799SOL     OW15229  13.460  12.414   1.707
37799SOL    HW115230  13.455  12.368   1.623
37799SOL    HW215231  13.370  12.419   1.738
37800SOL     OW15232   3.520   6.320   3.729
37800SOL    HW115233   3.434   6.359   3.717
37800SOL    HW215234   3.555   6.312   3.640
37801SOL     OW15235   2.233   9.098   2.973
37801SOL    HW115236   2.238   9.187   3.007
37801SOL    HW215237   2.214   9.044   3.049
37802SOL     OW15238   2.921   8.691   9.938
37802SOL    HW115239   2.943   8.770   9.989
37802SOL    HW215240   2.912   8.723   9.848
37803SOL     OW15241   8.643   1.760   5.103
37803SOL    HW115242   8.654   1.720   5.189
37803SOL    HW215243   8.690   1.844   5.108
37804SOL     OW15244   5.529  12.973   9.481
37804SOL    HW115245   5.576  12.951   9.401
37804SOL    HW215246   5.535  13.068   9.488
37805SOL     OW15247  11.185   4.159   8.562
37805SOL    HW115248  11.250   4.116   8.618
37805SOL    HW215249  11.237   4.211   8.501
37806SOL     OW15250  13.256   9.047   7.689
37806SOL    HW115251  13.209   8.965   7.708
37806SOL    HW215252  13.347   9.020   7.676
37807SOL     OW15253   8.685   8.624   7.312
37807SOL    HW115254   8.651   8.711   7.290
37807SOL    HW215255   8.704   8.583   7.228
37808SOL     OW15256   5.452   0.382  11.264
37808SOL    HW115257   5.380   0.372  11.325
37808SOL    HW215258   5.414   0.365  11.178
37809SOL     OW15259  14.287  11.145   1.498
37809SOL    HW115260  14.317  11.235   1.514
37809SOL    HW215261  14.338  11.092   1.559
37810SOL     OW15262   4.138  13.001   9.595
37810SOL    HW115263   4.209  13.052   9.632
37810SOL    HW215264   4.103  12.951   9.669
37811SOL     OW15265   7.841  13.071   4.638
37811SOL    HW115266   7.843  13.064   4.543
37811SOL    HW215267   7.874  12.986   4.669
37812SOL     OW15268   4.620   6.833   5.313
37812SOL    HW115269   4.715   6.839   5.305
37812SOL    HW215270   4.594   6.769   5.246
37813SOL     OW15271  13.022   7.556   2.321
37813SOL    HW115272  13.001   7.476   2.370
37813SOL    HW215273  12.965   7.623   2.359
37814SOL     OW15274  11.693  14.560   6.859
37814SOL    HW115275  11.737  14.644   6.845
37814SOL    HW215276  11.764  14.497   6.873
37815SOL     OW15277   4.010   2.199   5.296
37815SOL    HW115278   3.921   2.207   5.262
37815SOL    HW215279   4.013   2.111   5.334
37816SOL     OW15280  11.101  10.643   2.555
37816SOL    HW115281  11.070  10.732   2.573
37816SOL    HW215282  11.044  10.587   2.608
37817SOL     OW15283  11.429   6.260   6.712
37817SOL    HW115284  11.475   6.179   6.734
37817SOL    HW215285  11.352   6.231   6.663
37818SOL     OW15286   5.209   2.366   8.844
37818SOL    HW115287   5.196   2.460   8.837
37818SOL    HW215288   5.287   2.349   8.790
37819SOL     OW15289   2.948   2.021   8.543
37819SOL    HW115290   2.918   2.027   8.452
37819SOL    HW215291   2.878   2.062   8.594
37820SOL     OW15292  12.470   6.070  12.460
37820SOL    HW115293  12.538   6.043  12.523
37820SOL    HW215294  12.506   6.147  12.417
37821SOL     OW15295   2.431  13.215  13.584
37821SOL    HW115296   2.499  13.228  13.518
37821SOL    HW215297   2.474  13.235  13.667
37822SOL     OW15298  11.590   5.019  11.234
37822SOL    HW115299  11.665   4.992  11.180
37822SOL    HW215300  11.524   4.952  11.218
37823SOL     OW15301   1.501   4.562   5.072
37823SOL    HW115302   1.523   4.637   5.018
37823SOL    HW215303   1.437   4.513   5.021
37824SOL     OW15304  14.087   7.191  13.204
37824SOL    HW115305  14.180   7.212  13.200
37824SOL    HW215306  14.058   7.224  13.289
37825SOL     OW15307  10.957  13.241   2.317
37825SOL    HW115308  10.978  13.165   2.263
37825SOL    HW215309  11.025  13.305   2.295
37826SOL     OW15310   1.591   5.926  10.604
37826SOL    HW115311   1.596   5.884  10.690
37826SOL    HW215312   1.608   6.019  10.621
37827SOL     OW15313   7.949   6.375   7.924
37827SOL    HW115314   7.877   6.396   7.865
37827SOL    HW215315   7.967   6.283   7.908
37828SOL     OW15316   8.016  14.421   7.081
37828SOL    HW115317   7.976  14.376   7.007
37828SOL    HW215318   7.988  14.512   7.072
37829SOL     OW15319   9.771  12.548  12.558
37829SOL    HW115320   9.699  12.487  12.576
37829SOL    HW215321   9.728  12.630  12.534
37830SOL     OW15322   1.821  10.517  10.749
37830SOL    HW115323   1.861  10.479  10.671
37830SOL    HW215324   1.727  10.503  10.736
37831SOL     OW15325   1.771  12.232   4.475
37831SOL    HW115326   1.858  12.196   4.492
37831SOL    HW215327   1.779  12.325   4.499
37832SOL     OW15328   8.578   6.973   4.963
37832SOL    HW115329   8.490   6.965   4.999
37832SOL    HW215330   8.586   6.898   4.903
37833SOL     OW15331  13.557  11.348   2.107
37833SOL    HW115332  13.595  11.435   2.104
37833SOL    HW215333  13.464  11.363   2.128
37834SOL     OW15334   0.252   3.276  12.529
37834SOL    HW115335   0.281   3.186  12.544
37834SOL    HW215336   0.157   3.269  12.518
37835SOL     OW15337   7.967   5.165   1.340
37835SOL    HW115338   8.029   5.127   1.277
37835SOL    HW215339   7.994   5.257   1.346
37836SOL     OW15340  10.305  13.510   1.495
37836SOL    HW115341  10.394  13.475   1.504
37836SOL    HW215342  10.269  13.463   1.420
37837SOL     OW15343  12.018  12.905   1.360
37837SOL    HW115344  12.002  12.977   1.299
37837SOL    HW215345  11.940  12.850   1.353
37838SOL     OW15346  12.038  11.697  13.401
37838SOL    HW115347  12.094  11.622  13.379
37838SOL    HW215348  12.051  11.710  13.495
37839SOL     OW15349   5.736   4.332   2.851
37839SOL    HW115350   5.800   4.309   2.783
37839SOL    HW215351   5.662   4.273   2.835
37840SOL     OW15352  12.386  13.913   2.189
37840SOL    HW115353  12.365  13.824   2.214
37840SOL    HW215354  12.347  13.923   2.102
37841SOL     OW15355   4.341   4.702   1.026
37841SOL    HW115356   4.330   4.792   0.996
37841SOL    HW215357   4.379   4.656   0.951
37842SOL     OW15358   7.053  12.516  11.039
37842SOL    HW115359   7.084  12.605  11.022
37842SOL    HW215360   7.085  12.464  10.965
37843SOL     OW15361  12.734   4.151  10.955
37843SOL    HW115362  12.650   4.186  10.986
37843SOL    HW215363  12.710   4.072  10.906
37844SOL     OW15364  12.687  13.610   0.679
37844SOL    HW115365  12.661  13.697   0.646
37844SOL    HW215366  12.771  13.625   0.722
37845SOL     OW15367  11.471   7.359   0.795
37845SOL    HW115368  11.408   7.288   0.787
37845SOL    HW215369  11.422   7.438   0.771
37846SOL     OW15370   8.526  12.725  12.732
37846SOL    HW115371   8.450  12.778  12.707
37846SOL    HW215372   8.571  12.706  12.649
37847SOL     OW15373   0.446   2.872   7.423
37847SOL    HW115374   0.426   2.831   7.508
37847SOL    HW215375   0.524   2.925   7.440
37848SOL     OW15376  14.052  12.705   2.032
37848SOL    HW115377  13.999  12.717   1.953
37848SOL    HW215378  14.079  12.614   2.029
37849SOL     OW15379   7.620   4.505  11.290
37849SOL    HW115380   7.642   4.596  11.307
37849SOL    HW215381   7.668   4.455  11.356
37850SOL     OW15382   6.805   0.695   9.097
37850SOL    HW115383   6.762   0.727   9.176
37850SOL    HW215384   6.824   0.774   9.046
37851SOL     OW15385   8.971  13.464  14.046
37851SOL    HW115386   8.923  13.479  14.127
37851SOL    HW215387   9.061  13.446  14.074
37852SOL     OW15388   1.747  14.492   0.131
37852SOL    HW115389   1.737  14.583   0.104
37852SOL    HW215390   1.820  14.493   0.193
37853SOL     OW15391   7.949  12.685   8.728
37853SOL    HW115392   7.877  12.684   8.665
37853SOL    HW215393   8.017  12.632   8.687
37854SOL     OW15394   7.352   3.113   4.434
37854SOL    HW115395   7.272   3.065   4.415
37854SOL    HW215396   7.372   3.092   4.525
37855SOL     OW15397  13.409   9.440  12.731
37855SOL    HW115398  13.390   9.532  12.747
37855SOL    HW215399  13.401   9.430  12.636
37856SOL     OW15400   7.949   9.515   5.342
37856SOL    HW115401   7.909   9.428   5.351
37856SOL    HW215402   7.878   9.576   5.360
37857SOL     OW15403   4.158   3.907   8.979
37857SOL    HW115404   4.152   3.874   8.890
37857SOL    HW215405   4.239   3.869   9.013
37858SOL     OW15406   9.060  13.738   0.143
37858SOL    HW115407   9.079  13.725   0.050
37858SOL    HW215408   9.062  13.833   0.154
37859SOL     OW15409   4.036  11.718  13.943
37859SOL    HW115410   4.082  11.744  14.023
37859SOL    HW215411   3.952  11.763  13.947
37860SOL     OW15412  14.394   5.527  13.451
37860SOL    HW115413  14.333   5.495  13.384
37860SOL    HW215414  14.477   5.534  13.405
37861SOL     OW15415   6.303   9.251  12.725
37861SOL    HW115416   6.347   9.186  12.670
37861SOL    HW215417   6.236   9.288  12.668
37862SOL     OW15418  12.749  11.435  12.252
37862SOL    HW115419  12.783  11.359  12.205
37862SOL    HW215420  12.827  11.479  12.286
37863SOL     OW15421   5.690  12.182   7.971
37863SOL    HW115422   5.778  12.219   7.963
37863SOL    HW215423   5.704  12.088   7.977
37864SOL     OW15424  10.548   8.709  11.333
37864SOL    HW115425  10.520   8.791  11.293
37864SOL    HW215426  10.497   8.703  11.414
37865SOL     OW15427   4.003  11.517   2.474
37865SOL    HW115428   4.031  11.606   2.454
37865SOL    HW215429   3.908  11.524   2.486
37866SOL     OW15430   7.238   4.047  10.505
37866SOL    HW115431   7.268   4.096  10.428
37866SOL    HW215432   7.252   4.108  10.578
37867SOL     OW15433  11.267   6.284   1.371
37867SOL    HW115434  11.255   6.203   1.322
37867SOL    HW215435  11.226   6.268   1.456
37868SOL     OW15436   1.962  10.832   0.819
37868SOL    HW115437   1.991  10.910   0.865
37868SOL    HW215438   2.040  10.778   0.810
37869SOL     OW15439   7.868  13.483   6.162
37869SOL    HW115440   7.779  13.489   6.127
37869SOL    HW215441   7.856  13.475   6.257
37870SOL     OW15442   5.252  13.072   2.328
37870SOL    HW115443   5.294  13.090   2.243
37870SOL    HW215444   5.169  13.119   2.324
37871SOL     OW15445   0.241   9.549   7.104
37871SOL    HW115446   0.171   9.494   7.069
37871SOL    HW215447   0.314   9.489   7.118
37872SOL     OW15448  14.488   3.006   9.193
37872SOL    HW115449  14.409   3.025   9.244
37872SOL    HW215450  14.456   2.977   9.108
37873SOL     OW15451   3.841   4.723  11.739
37873SOL    HW115452   3.805   4.720  11.651
37873SOL    HW215453   3.845   4.631  11.766
37874SOL     OW15454  12.089   6.606   7.399
37874SOL    HW115455  12.074   6.582   7.490
37874SOL    HW215456  12.116   6.698   7.403
37875SOL     OW15457   7.404  12.878   0.798
37875SOL    HW115458   7.346  12.945   0.761
37875SOL    HW215459   7.431  12.914   0.882
37876SOL     OW15460   2.213  10.082  14.839
37876SOL    HW115461   2.254  10.169  14.844
37876SOL    HW215462   2.180  10.077  14.750
37877SOL     OW15463  10.578  14.594   0.465
37877SOL    HW115464  10.653  14.623   0.414
37877SOL    HW215465  10.526  14.541   0.403
37878SOL     OW15466   7.884   1.918   4.255
37878SOL    HW115467   7.942   1.966   4.196
37878SOL    HW215468   7.939   1.896   4.330
37879SOL     OW15469  10.059   5.497  14.686
37879SOL    HW115470  10.083   5.435  14.754
37879SOL    HW215471  10.060   5.583  14.730
37880SOL     OW15472   3.348   4.498  14.225
37880SOL    HW115473   3.344   4.589  14.256
37880SOL    HW215474   3.391   4.451  14.296
37881SOL     OW15475   4.631  10.960   5.763
37881SOL    HW115476   4.721  10.972   5.794
37881SOL    HW215477   4.582  10.934   5.840
37882SOL     OW15478  10.060   8.679   6.166
37882SOL    HW115479  10.098   8.620   6.101
37882SOL    HW215480   9.970   8.693   6.135
37883SOL     OW15481   0.916   5.096   3.142
37883SOL    HW115482   0.906   5.005   3.112
37883SOL    HW215483   1.003   5.122   3.110
37884SOL     OW15484  10.006   1.065  12.271
37884SOL    HW115485  10.082   1.022  12.232
37884SOL    HW215486  10.016   1.157  12.249
37885SOL     OW15487   5.637   5.589   7.071
37885SOL    HW115488   5.642   5.591   7.167
37885SOL    HW215489   5.692   5.515   7.045
37886SOL     OW15490   3.613   6.916   9.143
37886SOL    HW115491   3.617   7.009   9.165
37886SOL    HW215492   3.612   6.872   9.227
37887SOL     OW15493   6.448   8.236   0.116
37887SOL    HW115494   6.454   8.147   0.081
37887SOL    HW215495   6.372   8.274   0.073
37888SOL     OW15496   4.335   1.438   9.642
37888SOL    HW115497   4.418   1.392   9.651
37888SOL    HW215498   4.302   1.414   9.556
37889SOL     OW15499   3.485   2.769  10.823
37889SOL    HW115500   3.534   2.801  10.899
37889SOL    HW215501   3.405   2.822  10.821
37890SOL     OW15502   4.319   4.207   3.111
37890SOL    HW115503   4.272   4.136   3.065
37890SOL    HW215504   4.366   4.253   3.041
37891SOL     OW15505   3.103  10.351  11.138
37891SOL    HW115506   3.159  10.398  11.077
37891SOL    HW215507   3.078  10.271  11.092
37892SOL     OW15508   6.628   7.604  12.032
37892SOL    HW115509   6.703   7.661  12.017
37892SOL    HW215510   6.599   7.624  12.121
37893SOL     OW15511   3.880  11.667   2.754
37893SOL    HW115512   3.909  11.711   2.833
37893SOL    HW215513   3.863  11.577   2.782
37894SOL     OW15514   5.554   6.916  10.050
37894SOL    HW115515   5.643   6.919  10.017
37894SOL    HW215516   5.554   6.843  10.113
37895SOL     OW15517   7.122   2.375  13.120
37895SOL    HW115518   7.206   2.396  13.079
37895SOL    HW215519   7.084   2.460  13.142
37896SOL     OW15520  11.224   2.904   1.446
37896SOL    HW115521  11.182   2.969   1.501
37896SOL    HW215522  11.227   2.824   1.499
37897SOL     OW15523   6.478   3.296   4.454
37897SOL    HW115524   6.388   3.329   4.453
37897SOL    HW215525   6.469   3.201   4.459
37898SOL     OW15526  14.496   4.808   5.436
37898SOL    HW115527  14.439   4.882   5.415
37898SOL    HW215528  14.532   4.781   5.352
37899SOL     OW15529  12.372  14.209   2.354
37899SOL    HW115530  12.332  14.124   2.371
37899SOL    HW215531  12.460  14.188   2.322
37900SOL     OW15532   0.390  11.019   8.474
37900SOL    HW115533   0.337  10.950   8.513
37900SOL    HW215534   0.436  11.060   8.547
37901SOL     OW15535  13.272   7.293  10.468
37901SOL    HW115536  13.336   7.229  10.500
37901SOL    HW215537  13.325   7.366  10.435
37902SOL     OW15538   1.872  11.849   4.545
37902SOL    HW115539   1.894  11.909   4.617
37902SOL    HW215540   1.860  11.906   4.469
37903SOL     OW15541  12.529  10.591  13.008
37903SOL    HW115542  12.449  10.642  12.996
37903SOL    HW215543  12.587  10.621  12.938
37904SOL     OW15544   9.439   5.056   0.681
37904SOL    HW115545   9.383   5.003   0.736
37904SOL    HW215546   9.526   5.016   0.689
37905SOL     OW15547   0.050   8.346   5.167
37905SOL    HW115548  14.857   8.413   5.183
37905SOL    HW215549   0.057   8.299   5.250
37906SOL     OW15550   1.568  12.048  10.457
37906SOL    HW115551   1.565  11.977  10.522
37906SOL    HW215552   1.606  12.008  10.379
37907SOL     OW15553   8.131   6.670   3.483
37907SOL    HW115554   8.200   6.674   3.416
37907SOL    HW215555   8.169   6.617   3.553
37908SOL     OW15556   9.329   5.932   9.449
37908SOL    HW115557   9.388   5.943   9.374
37908SOL    HW215558   9.379   5.966   9.524
37909SOL     OW15559   9.360   1.912  10.538
37909SOL    HW115560   9.445   1.955  10.541
37909SOL    HW215561   9.374   1.833  10.485
37910SOL     OW15562   6.801   7.022   8.127
37910SOL    HW115563   6.771   7.104   8.088
37910SOL    HW215564   6.863   7.049   8.196
37911SOL     OW15565   8.000   7.366  12.129
37911SOL    HW115566   8.007   7.300  12.198
37911SOL    HW215567   7.990   7.449  12.177
37912SOL     OW15568   3.320  10.711   8.719
37912SOL    HW115569   3.238  10.735   8.761
37912SOL    HW215570   3.378  10.686   8.791
37913SOL     OW15571  10.487   4.693  14.132
37913SOL    HW115572  10.411   4.694  14.074
37913SOL    HW215573  10.520   4.783  14.129
37914SOL     OW15574   6.305  10.105  12.862
37914SOL    HW115575   6.381  10.049  12.879
37914SOL    HW215576   6.330  10.157  12.786
37915SOL     OW15577   4.510   1.595   8.064
37915SOL    HW115578   4.527   1.609   8.157
37915SOL    HW215579   4.459   1.671   8.037
37916SOL     OW15580   4.529   8.574  13.670
37916SOL    HW115581   4.444   8.533  13.652
37916SOL    HW215582   4.542   8.635  13.598
37917SOL     OW15583  14.213  10.960   3.918
37917SOL    HW115584  14.245  10.874   3.941
37917SOL    HW215585  14.241  11.017   3.989
37918SOL     OW15586  14.809   3.986   7.075
37918SOL    HW115587  14.719   4.021   7.074
37918SOL    HW215588  14.822   3.958   7.165
37919SOL     OW15589   2.422   3.718  14.674
37919SOL    HW115590   2.354   3.664  14.634
37919SOL    HW215591   2.482   3.656  14.714
37920SOL     OW15592  13.978  10.021  13.071
37920SOL    HW115593  14.063  10.037  13.030
37920SOL    HW215594  13.927  10.100  13.051
37921SOL     OW15595   4.468   4.990   7.279
37921SOL    HW115596   4.397   4.977   7.215
37921SOL    HW215597   4.470   5.084   7.294
37922SOL     OW15598  12.673  12.720   5.445
37922SOL    HW115599  12.718  12.698   5.364
37922SOL    HW215600  12.708  12.660   5.510
37923SOL     OW15601  10.828   2.722   5.504
37923SOL    HW115602  10.756   2.719   5.567
37923SOL    HW215603  10.798   2.667   5.431
37924SOL     OW15604   3.631   7.450   4.524
37924SOL    HW115605   3.544   7.411   4.527
37924SOL    HW215606   3.676   7.403   4.453
37925SOL     OW15607   1.463   1.998   2.981
37925SOL    HW115608   1.454   1.932   3.049
37925SOL    HW215609   1.438   2.080   3.023
37926SOL     OW15610   5.988  13.193  13.767
37926SOL    HW115611   6.046  13.209  13.841
37926SOL    HW215612   6.043  13.152  13.701
37927SOL     OW15613  14.457   4.276   5.919
37927SOL    HW115614  14.385   4.334   5.942
37927SOL    HW215615  14.536   4.330   5.928
37928SOL     OW15616   2.561   0.814   9.362
37928SOL    HW115617   2.499   0.873   9.405
37928SOL    HW215618   2.618   0.872   9.312
37929SOL     OW15619   2.262  13.667  12.894
37929SOL    HW115620   2.254  13.704  12.806
37929SOL    HW215621   2.259  13.743  12.952
37930SOL     OW15622   6.479   9.986   9.260
37930SOL    HW115623   6.413  10.031   9.206
37930SOL    HW215624   6.467   9.893   9.239
37931SOL     OW15625   6.523   6.380  13.941
37931SOL    HW115626   6.479   6.455  13.902
37931SOL    HW215627   6.480   6.369  14.026
37932SOL     OW15628  13.290  13.364   1.427
37932SOL    HW115629  13.347  13.433   1.391
37932SOL    HW215630  13.258  13.317   1.350
37933SOL     OW15631   5.592  12.451   2.887
37933SOL    HW115632   5.627  12.472   2.974
37933SOL    HW215633   5.508  12.495   2.883
37934SOL     OW15634   3.081   8.891  12.330
37934SOL    HW115635   3.164   8.856  12.297
37934SOL    HW215636   3.046   8.942  12.257
37935SOL     OW15637   2.401   4.893  10.908
37935SOL    HW115638   2.496   4.895  10.903
37935SOL    HW215639   2.373   4.975  10.868
37936SOL     OW15640   2.813   0.629   5.498
37936SOL    HW115641   2.824   0.706   5.554
37936SOL    HW215642   2.852   0.653   5.414
37937SOL     OW15643   5.868   4.370   1.348
37937SOL    HW115644   5.903   4.416   1.424
37937SOL    HW215645   5.845   4.439   1.286
37938SOL     OW15646   7.634   4.699   4.110
37938SOL    HW115647   7.579   4.637   4.063
37938SOL    HW215648   7.637   4.665   4.200
37939SOL     OW15649   3.866  10.631   9.127
37939SOL    HW115650   3.955  10.662   9.106
37939SOL    HW215651   3.824  10.621   9.042
37940SOL     OW15652   2.370  13.538   6.396
37940SOL    HW115653   2.366  13.563   6.489
37940SOL    HW215654   2.334  13.450   6.394
37941SOL     OW15655  11.358  14.328   5.562
37941SOL    HW115656  11.345  14.419   5.537
37941SOL    HW215657  11.294  14.314   5.633
37942SOL     OW15658  10.820   1.755   2.711
37942SOL    HW115659  10.736   1.774   2.670
37942SOL    HW215660  10.882   1.813   2.667
37943SOL     OW15661  11.963   0.922   4.184
37943SOL    HW115662  11.974   0.858   4.113
37943SOL    HW215663  11.967   0.869   4.264
37944SOL     OW15664   4.691   8.365  12.549
37944SOL    HW115665   4.767   8.422  12.545
37944SOL    HW215666   4.646   8.380  12.466
37945SOL     OW15667   8.891   7.331   5.981
37945SOL    HW115668   8.903   7.253   5.927
37945SOL    HW215669   8.797   7.346   5.981
37946SOL     OW15670   6.347  14.619   8.753
37946SOL    HW115671   6.362  14.559   8.680
37946SOL    HW215672   6.432  14.626   8.796
37947SOL     OW15673   6.777   8.695  10.910
37947SOL    HW115674   6.740   8.689  10.822
37947SOL    HW215675   6.805   8.786  10.919
37948SOL     OW15676   8.114   4.762   1.103
37948SOL    HW115677   8.091   4.742   1.013
37948SOL    HW215678   8.042   4.816   1.136
37949SOL     OW15679   6.812   5.651   3.065
37949SOL    HW115680   6.867   5.714   3.111
37949SOL    HW215681   6.722   5.681   3.082
37950SOL     OW15682   3.029  12.865   7.360
37950SOL    HW115683   2.942  12.898   7.384
37950SOL    HW215684   3.056  12.813   7.436
37951SOL     OW15685  12.537   8.480   8.058
37951SOL    HW115686  12.554   8.387   8.047
37951SOL    HW215687  12.545   8.516   7.969
37952SOL     OW15688   5.043   0.074   5.401
37952SOL    HW115689   4.982   0.143   5.375
37952SOL    HW215690   5.051   0.083   5.496
37953SOL     OW15691  10.329   0.065   8.080
37953SOL    HW115692  10.323   0.116   8.161
37953SOL    HW215693  10.362  14.853   8.107
37954SOL     OW15694   3.182  11.255   7.735
37954SOL    HW115695   3.217  11.168   7.753
37954SOL    HW215696   3.259  11.312   7.732
37955SOL     OW15697   2.112   8.497   2.910
37955SOL    HW115698   2.141   8.583   2.880
37955SOL    HW215699   2.183   8.438   2.885
37956SOL     OW15700   2.838   9.613   4.000
37956SOL    HW115701   2.835   9.518   4.001
37956SOL    HW215702   2.842   9.637   3.908
37957SOL     OW15703   3.099   1.805  12.029
37957SOL    HW115704   3.031   1.739  12.017
37957SOL    HW215705   3.104   1.851  11.945
37958SOL     OW15706   6.052   5.543   3.604
37958SOL    HW115707   5.965   5.575   3.627
37958SOL    HW215708   6.108   5.572   3.675
37959SOL     OW15709   1.301  13.055   0.146
37959SOL    HW115710   1.312  12.963   0.170
37959SOL    HW215711   1.245  13.053   0.068
37960SOL     OW15712   0.791   3.001   3.803
37960SOL    HW115713   0.863   2.998   3.739
37960SOL    HW215714   0.715   3.029   3.752
37961SOL     OW15715   9.814   6.689  11.435
37961SOL    HW115716   9.791   6.678  11.343
37961SOL    HW215717   9.847   6.603  11.462
37962SOL     OW15718  10.390  14.024  14.843
37962SOL    HW115719  10.445  13.946  14.847
37962SOL    HW215720  10.449  14.093  14.812
37963SOL     OW15721  11.211   8.229   2.268
37963SOL    HW115722  11.290   8.267   2.229
37963SOL    HW215723  11.235   8.139   2.287
37964SOL     OW15724   4.884   3.921   2.107
37964SOL    HW115725   4.861   3.890   2.019
37964SOL    HW215726   4.935   3.849   2.145
37965SOL     OW15727   3.031  13.924   8.704
37965SOL    HW115728   3.027  13.847   8.760
37965SOL    HW215729   3.002  13.996   8.760
37966SOL     OW15730   5.787   3.875   2.742
37966SOL    HW115731   5.694   3.879   2.719
37966SOL    HW215732   5.788   3.859   2.836
37967SOL     OW15733  10.873  10.883   7.085
37967SOL    HW115734  10.930  10.824   7.135
37967SOL    HW215735  10.818  10.925   7.151
37968SOL     OW15736  12.780   7.919   2.301
37968SOL    HW115737  12.861   7.970   2.294
37968SOL    HW215738  12.710   7.983   2.291
37969SOL     OW15739   1.025   3.448  12.968
37969SOL    HW115740   0.953   3.422  13.024
37969SOL    HW215741   1.046   3.538  12.994
37970SOL     OW15742  10.290   3.821   9.012
37970SOL    HW115743  10.269   3.872   9.091
37970SOL    HW215744  10.292   3.885   8.941
37971SOL     OW15745   4.879  13.022  10.282
37971SOL    HW115746   4.852  13.013  10.374
37971SOL    HW215747   4.941  12.951  10.268
37972SOL     OW15748   5.968   9.864   2.029
37972SOL    HW115749   6.038   9.922   2.001
37972SOL    HW215750   5.999   9.776   2.007
37973SOL     OW15751  12.806  11.386  12.810
37973SOL    HW115752  12.824  11.480  12.819
37973SOL    HW215753  12.710  11.380  12.810
37974SOL     OW15754   3.061  12.370   0.067
37974SOL    HW115755   3.008  12.292   0.080
37974SOL    HW215756   3.063  12.383  14.845
37975SOL     OW15757   8.705   3.869   1.558
37975SOL    HW115758   8.610   3.862   1.567
37975SOL    HW215759   8.738   3.783   1.585
37976SOL     OW15760   2.576  12.660  11.204
37976SOL    HW115761   2.520  12.644  11.128
37976SOL    HW215762   2.536  12.734  11.249
37977SOL     OW15763   6.734  12.843   3.003
37977SOL    HW115764   6.783  12.775   2.956
37977SOL    HW215765   6.700  12.798   3.081
37978SOL     OW15766  12.606  10.831   2.209
37978SOL    HW115767  12.533  10.830   2.272
37978SOL    HW215768  12.684  10.845   2.263
37979SOL     OW15769   8.204  11.392   8.348
37979SOL    HW115770   8.194  11.487   8.346
37979SOL    HW215771   8.263  11.372   8.275
37980SOL     OW15772   0.075   2.479  11.735
37980SOL    HW115773   0.059   2.395  11.692
37980SOL    HW215774   0.167   2.499  11.718
37981SOL     OW15775   6.655   6.743   2.768
37981SOL    HW115776   6.728   6.700   2.722
37981SOL    HW215777   6.629   6.814   2.709
37982SOL     OW15778   7.339  11.403  11.230
37982SOL    HW115779   7.298  11.316  11.229
37982SOL    HW215780   7.267  11.463  11.252
37983SOL     OW15781   8.043   5.728   9.777
37983SOL    HW115782   8.090   5.793   9.830
37983SOL    HW215783   8.081   5.645   9.804
37984SOL     OW15784  14.816   2.539   7.369
37984SOL    HW115785  14.754   2.602   7.332
37984SOL    HW215786   0.014   2.536   7.305
37985SOL     OW15787   0.383  14.308  10.914
37985SOL    HW115788   0.404  14.327  11.005
37985SOL    HW215789   0.300  14.354  10.898
37986SOL     OW15790   5.431  12.493  13.122
37986SOL    HW115791   5.461  12.536  13.042
37986SOL    HW215792   5.498  12.426  13.139
37987SOL     OW15793  11.796   7.260   9.149
37987SOL    HW115794  11.738   7.335   9.143
37987SOL    HW215795  11.884   7.298   9.157
37988SOL     OW15796   0.397   2.874   8.047
37988SOL    HW115797   0.389   2.918   7.962
37988SOL    HW215798   0.317   2.900   8.094
37989SOL     OW15799   3.986   5.092   3.406
37989SOL    HW115800   3.956   5.057   3.322
37989SOL    HW215801   4.049   5.027   3.437
37990SOL     OW15802   1.175   9.901   7.819
37990SOL    HW115803   1.080   9.904   7.825
37990SOL    HW215804   1.192   9.838   7.749
37991SOL     OW15805  12.260  12.223   4.002
37991SOL    HW115806  12.218  12.139   3.983
37991SOL    HW215807  12.301  12.211   4.088
37992SOL     OW15808   2.897   2.544   1.214
37992SOL    HW115809   2.805   2.518   1.209
37992SOL    HW215810   2.943   2.466   1.246
37993SOL     OW15811   0.449   9.167  10.912
37993SOL    HW115812   0.364   9.189  10.951
37993SOL    HW215813   0.429   9.098  10.849
37994SOL     OW15814  12.255   8.886   1.508
37994SOL    HW115815  12.331   8.878   1.566
37994SOL    HW215816  12.266   8.972   1.467
37995SOL     OW15817  11.609  13.388  10.322
37995SOL    HW115818  11.609  13.312  10.380
37995SOL    HW215819  11.521  13.391  10.286
37996SOL     OW15820   7.645  11.525   2.664
37996SOL    HW115821   7.612  11.484   2.744
37996SOL    HW215822   7.731  11.558   2.688
37997SOL     OW15823   8.264   8.143   0.520
37997SOL    HW115824   8.264   8.132   0.615
37997SOL    HW215825   8.171   8.147   0.496
37998SOL     OW15826   6.867  13.721  12.866
37998SOL    HW115827   6.900  13.808  12.847
37998SOL    HW215828   6.836  13.688  12.782
37999SOL     OW15829  14.219  13.351   8.800
37999SOL    HW115830  14.210  13.327   8.708
37999SOL    HW215831  14.240  13.444   8.799
38000SOL     OW15832  12.854   6.770  14.797
38000SOL    HW115833  12.791   6.763  14.725
38000SOL    HW215834  12.933   6.728  14.763
38001SOL     OW15835   7.234   3.424   0.489
38001SOL    HW115836   7.236   3.518   0.475
38001SOL    HW215837   7.233   3.386   0.402
38002SOL     OW15838   6.030   6.499   7.028
38002SOL    HW115839   6.002   6.587   7.003
38002SOL    HW215840   5.983   6.441   6.969
38003SOL     OW15841   8.470   2.973   4.802
38003SOL    HW115842   8.408   3.006   4.737
38003SOL    HW215843   8.415   2.933   4.869
38004SOL     OW15844  10.273   0.350   0.471
38004SOL    HW115845  10.224   0.396   0.540
38004SOL    HW215846  10.313   0.276   0.517
38005SOL     OW15847   6.818  13.717   6.288
38005SOL    HW115848   6.722  13.716   6.281
38005SOL    HW215849   6.839  13.803   6.322
38006SOL     OW15850  12.007   3.431  14.160
38006SOL    HW115851  11.934   3.385  14.201
38006SOL    HW215852  12.005   3.518  14.199
38007SOL     OW15853  12.661   6.555   9.397
38007SOL    HW115854  12.735   6.495   9.404
38007SOL    HW215855  12.661   6.583   9.306
38008SOL     OW15856   8.466   0.021   2.835
38008SOL    HW115857   8.392   0.063   2.791
38008SOL    HW215858   8.445   0.027   2.928
38009SOL     OW15859   0.514   4.651   1.693
38009SOL    HW115860   0.442   4.609   1.646
38009SOL    HW215861   0.485   4.653   1.785
38010SOL     OW15862   2.725   0.980  12.336
38010SOL    HW115863   2.638   1.011  12.362
38010SOL    HW215864   2.707   0.915  12.267
38011SOL     OW15865   7.159   7.521  14.066
38011SOL    HW115866   7.235   7.465  14.049
38011SOL    HW215867   7.093   7.462  14.102
38012SOL     OW15868   0.231   1.338   5.518
38012SOL    HW115869   0.210   1.431   5.522
38012SOL    HW215870   0.165   1.301   5.460
38013SOL     OW15871   9.603   8.254   4.887
38013SOL    HW115872   9.685   8.210   4.864
38013SOL    HW215873   9.599   8.329   4.828
38014SOL     OW15874   2.874   7.426   0.112
38014SOL    HW115875   2.966   7.448   0.122
38014SOL    HW215876   2.874   7.331   0.095
38015SOL     OW15877   3.521   8.111   5.298
38015SOL    HW115878   3.601   8.059   5.304
38015SOL    HW215879   3.453   8.048   5.275
38016SOL     OW15880   1.665   4.830   8.827
38016SOL    HW115881   1.695   4.762   8.767
38016SOL    HW215882   1.619   4.893   8.772
38017SOL     OW15883   5.714   1.848   4.288
38017SOL    HW115884   5.694   1.754   4.281
38017SOL    HW215885   5.796   1.851   4.337
38018SOL     OW15886  10.048  14.224   5.915
38018SOL    HW115887  10.133  14.234   5.870
38018SOL    HW215888  10.071  14.201   6.005
38019SOL     OW15889  12.305  14.285   5.200
38019SOL    HW115890  12.391  14.295   5.160
38019SOL    HW215891  12.255  14.360   5.168
38020SOL     OW15892  14.034   3.006   5.129
38020SOL    HW115893  13.973   3.027   5.200
38020SOL    HW215894  14.088   3.084   5.120
38021SOL     OW15895   7.226   8.683   9.412
38021SOL    HW115896   7.318   8.665   9.396
38021SOL    HW215897   7.193   8.720   9.330
38022SOL     OW15898   6.059   1.626  11.682
38022SOL    HW115899   6.010   1.552  11.716
38022SOL    HW215900   6.094   1.596  11.598
38023SOL     OW15901   8.403   2.202  13.597
38023SOL    HW115902   8.353   2.121  13.608
38023SOL    HW215903   8.474   2.194  13.661
38024SOL     OW15904  14.321   0.786   0.346
38024SOL    HW115905  14.366   0.836   0.414
38024SOL    HW215906  14.390   0.739   0.300
38025SOL     OW15907  11.626   9.162  13.776
38025SOL    HW115908  11.685   9.183  13.704
38025SOL    HW215909  11.673   9.191  13.854
38026SOL     OW15910   0.772   0.460   8.225
38026SOL    HW115911   0.719   0.381   8.211
38026SOL    HW215912   0.802   0.454   8.315
38027SOL     OW15913   8.386   9.949  12.798
38027SOL    HW115914   8.404   9.901  12.718
38027SOL    HW215915   8.471   9.980  12.828
38028SOL     OW15916  10.366  11.928   6.511
38028SOL    HW115917  10.353  11.953   6.603
38028SOL    HW215918  10.439  11.866   6.513
38029SOL     OW15919   5.311   0.829  12.134
38029SOL    HW115920   5.360   0.755  12.172
38029SOL    HW215921   5.219   0.802  12.140
38030SOL     OW15922  14.465  10.596   3.757
38030SOL    HW115923  14.428  10.648   3.828
38030SOL    HW215924  14.391  10.545   3.723
38031SOL     OW15925  12.530   6.179   1.542
38031SOL    HW115926  12.554   6.164   1.634
38031SOL    HW215927  12.587   6.251   1.515
38032SOL     OW15928  10.349  13.138   9.165
38032SOL    HW115929  10.287  13.208   9.184
38032SOL    HW215930  10.309  13.089   9.093
38033SOL     OW15931   2.227  10.792   6.964
38033SOL    HW115932   2.232  10.791   6.869
38033SOL    HW215933   2.258  10.705   6.991
38034SOL     OW15934  11.651   9.396   3.844
38034SOL    HW115935  11.575   9.360   3.798
38034SOL    HW215936  11.686   9.323   3.895
38035SOL     OW15937  12.541   2.694  12.815
38035SOL    HW115938  12.501   2.737  12.891
38035SOL    HW215939  12.491   2.728  12.740
38036SOL     OW15940   7.135  12.539  12.126
38036SOL    HW115941   7.071  12.501  12.067
38036SOL    HW215942   7.193  12.467  12.149
38037SOL     OW15943   4.770   3.978   4.588
38037SOL    HW115944   4.839   3.980   4.655
38037SOL    HW215945   4.805   3.922   4.519
38038SOL     OW15946  10.096  14.758  14.679
38038SOL    HW115947  10.154  14.745  14.603
38038SOL    HW215948  10.008  14.740  14.645
38039SOL     OW15949   8.455   1.181  11.378
38039SOL    HW115950   8.408   1.254  11.338
38039SOL    HW215951   8.410   1.103  11.346
38040SOL     OW15952  11.514  13.572   2.636
38040SOL    HW115953  11.426  13.543   2.660
38040SOL    HW215954  11.512  13.577   2.541
38041SOL     OW15955  14.337   6.454   3.839
38041SOL    HW115956  14.258   6.404   3.818
38041SOL    HW215957  14.304   6.537   3.872
38042SOL     OW15958   9.526   4.475   7.929
38042SOL    HW115959   9.547   4.563   7.898
38042SOL    HW215960   9.587   4.459   8.001
38043SOL     OW15961  13.587  10.614   6.314
38043SOL    HW115962  13.565  10.588   6.224
38043SOL    HW215963  13.678  10.588   6.325
38044SOL     OW15964   7.912   8.660  11.935
38044SOL    HW115965   7.887   8.752  11.921
38044SOL    HW215966   7.885   8.615  11.855
38045SOL     OW15967   5.531   6.840   5.212
38045SOL    HW115968   5.455   6.782   5.209
38045SOL    HW215969   5.543   6.869   5.122
38046SOL     OW15970   2.332  11.296   4.050
38046SOL    HW115971   2.336  11.203   4.027
38046SOL    HW215972   2.248  11.326   4.014
38047SOL     OW15973   7.832  13.117   4.156
38047SOL    HW115974   7.854  13.085   4.068
38047SOL    HW215975   7.881  13.059   4.215
38048SOL     OW15976  10.938   5.738  13.688
38048SOL    HW115977  10.915   5.732  13.595
38048SOL    HW215978  10.857   5.717  13.734
38049SOL     OW15979   6.869   6.244   6.939
38049SOL    HW115980   6.823   6.294   7.007
38049SOL    HW215981   6.950   6.216   6.981
38050SOL     OW15982   2.335   7.077   7.710
38050SOL    HW115983   2.400   7.008   7.692
38050SOL    HW215984   2.283   7.042   7.782
38051SOL     OW15985   4.433  14.429  12.321
38051SOL    HW115986   4.475  14.365  12.379
38051SOL    HW215987   4.506  14.472  12.276
38052SOL     OW15988  13.568   9.826   9.490
38052SOL    HW115989  13.569   9.882   9.412
38052SOL    HW215990  13.563   9.887   9.563
38053SOL     OW15991   1.354   0.634  11.504
38053SOL    HW115992   1.359   0.557  11.560
38053SOL    HW215993   1.433   0.684  11.527
38054SOL     OW15994   3.875   8.248   3.266
38054SOL    HW115995   3.934   8.240   3.340
38054SOL    HW215996   3.923   8.208   3.193
38055SOL     OW15997   6.637  14.749  10.201
38055SOL    HW115998   6.642  14.676  10.263
38055SOL    HW215999   6.715  14.740  10.146
38056SOL     OW16000   7.066   9.122   8.230
38056SOL    HW116001   7.011   9.070   8.172
38056SOL    HW216002   7.034   9.102   8.318
38057SOL     OW16003   4.084   5.649   9.850
38057SOL    HW116004   4.085   5.629   9.943
38057SOL    HW216005   4.071   5.743   9.846
38058SOL     OW16006  14.505  11.248   3.556
38058SOL    HW116007  14.457  11.325   3.586
38058SOL    HW216008  14.585  11.248   3.608
38059SOL     OW16009  14.624   0.327  14.197
38059SOL    HW116010  14.695   0.352  14.257
38059SOL    HW216011  14.637   0.382  14.120
38060SOL     OW16012   4.032   3.660   2.443
38060SOL    HW116013   4.014   3.602   2.517
38060SOL    HW216014   3.946   3.694   2.418
38061SOL     OW16015  13.954   5.607  14.111
38061SOL    HW116016  14.034   5.592  14.060
38061SOL    HW216017  13.975   5.574  14.199
38062SOL     OW16018   7.685   4.720  12.867
38062SOL    HW116019   7.616   4.753  12.925
38062SOL    HW216020   7.734   4.658  12.921
38063SOL     OW16021  10.472   7.421   5.587
38063SOL    HW116022  10.388   7.420   5.540
38063SOL    HW216023  10.488   7.513   5.605
38064SOL     OW16024  11.270   9.282   4.357
38064SOL    HW116025  11.270   9.371   4.321
38064SOL    HW216026  11.284   9.225   4.282
38065SOL     OW16027  10.880  11.777  14.618
38065SOL    HW116028  10.911  11.868  14.625
38065SOL    HW216029  10.839  11.759  14.703
38066SOL     OW16030  12.365  10.793  11.385
38066SOL    HW116031  12.453  10.795  11.423
38066SOL    HW216032  12.307  10.780  11.460
38067SOL     OW16033   7.258  13.522   3.465
38067SOL    HW116034   7.233  13.458   3.531
38067SOL    HW216035   7.261  13.606   3.512
38068SOL     OW16036   9.075  12.698   2.408
38068SOL    HW116037   9.012  12.634   2.442
38068SOL    HW216038   9.154  12.646   2.391
38069SOL     OW16039  13.448   6.001   5.256
38069SOL    HW116040  13.510   6.073   5.266
38069SOL    HW216041  13.498   5.932   5.211
38070SOL     OW16042   5.020  10.133   8.207
38070SOL    HW116043   5.071  10.198   8.255
38070SOL    HW216044   4.985  10.075   8.275
38071SOL     OW16045   7.739   7.484   6.040
38071SOL    HW116046   7.722   7.474   6.134
38071SOL    HW216047   7.762   7.396   6.011
38072SOL     OW16048  11.868   2.174  13.599
38072SOL    HW116049  11.942   2.233  13.588
38072SOL    HW216050  11.908   2.091  13.626
38073SOL     OW16051   3.013  11.917   2.599
38073SOL    HW116052   3.066  11.904   2.521
38073SOL    HW216053   3.076  11.917   2.671
38074SOL     OW16054   7.581  14.511   1.651
38074SOL    HW116055   7.576  14.447   1.722
38074SOL    HW216056   7.490  14.527   1.627
38075SOL     OW16057   9.220   7.471   6.614
38075SOL    HW116058   9.208   7.378   6.632
38075SOL    HW216059   9.180   7.485   6.528
38076SOL     OW16060  11.584   7.271   3.886
38076SOL    HW116061  11.522   7.269   3.813
38076SOL    HW216062  11.670   7.261   3.845
38077SOL     OW16063   9.449  12.084   8.446
38077SOL    HW116064   9.385  12.122   8.386
38077SOL    HW216065   9.524  12.143   8.443
38078SOL     OW16066  13.868  12.532  10.760
38078SOL    HW116067  13.897  12.569  10.843
38078SOL    HW216068  13.844  12.608  10.707
38079SOL     OW16069   4.803  13.471   5.735
38079SOL    HW116070   4.743  13.546   5.736
38079SOL    HW216071   4.747  13.395   5.721
38080SOL     OW16072  12.427  10.323   9.560
38080SOL    HW116073  12.400  10.234   9.581
38080SOL    HW216074  12.355  10.359   9.508
38081SOL     OW16075   0.132  14.536   8.467
38081SOL    HW116076   0.127  14.622   8.508
38081SOL    HW216077   0.224  14.527   8.441
38082SOL     OW16078  11.923   2.602  11.706
38082SOL    HW116079  11.963   2.615  11.620
38082SOL    HW216080  11.850   2.664  11.708
38083SOL     OW16081   8.618  11.542   3.741
38083SOL    HW116082   8.645  11.625   3.780
38083SOL    HW216083   8.698  11.489   3.741
38084SOL     OW16084   0.119  11.369   8.922
38084SOL    HW116085   0.215  11.366   8.914
38084SOL    HW216086   0.087  11.345   8.835
38085SOL     OW16087   8.728   3.453  14.255
38085SOL    HW116088   8.677   3.372  14.253
38085SOL    HW216089   8.815   3.425  14.283
38086SOL     OW16090  14.732   3.803   9.870
38086SOL    HW116091  14.758   3.717   9.904
38086SOL    HW216092  14.690   3.846   9.944
38087SOL     OW16093   1.823   4.496  13.062
38087SOL    HW116094   1.870   4.453  12.990
38087SOL    HW216095   1.840   4.440  13.138
38088SOL     OW16096   0.748   1.102   5.614
38088SOL    HW116097   0.775   1.136   5.528
38088SOL    HW216098   0.681   1.164   5.644
38089SOL     OW16099   2.213  12.427  13.853
38089SOL    HW116100   2.159  12.447  13.930
38089SOL    HW216101   2.194  12.335  13.835
38090SOL     OW16102   0.441  13.599   3.809
38090SOL    HW116103   0.506  13.536   3.781
38090SOL    HW216104   0.466  13.681   3.764
38091SOL     OW16105   2.004   8.618   3.393
38091SOL    HW116106   1.994   8.616   3.488
38091SOL    HW216107   1.940   8.555   3.361
38092SOL     OW16108   3.245  11.626   7.345
38092SOL    HW116109   3.313  11.612   7.279
38092SOL    HW216110   3.233  11.721   7.347
38093SOL     OW16111   6.998   6.336  10.536
38093SOL    HW116112   6.988   6.301  10.624
38093SOL    HW216113   6.981   6.430  10.545
38094SOL     OW16114  13.969   0.568   8.531
38094SOL    HW116115  13.945   0.588   8.622
38094SOL    HW216116  13.995   0.476   8.533
38095SOL     OW16117   1.178   3.216  10.143
38095SOL    HW116118   1.135   3.284  10.092
38095SOL    HW216119   1.271   3.223  10.119
38096SOL     OW16120   4.972   3.281   5.189
38096SOL    HW116121   4.962   3.375   5.201
38096SOL    HW216122   4.894   3.242   5.228
38097SOL     OW16123  11.240   8.298   2.874
38097SOL    HW116124  11.290   8.375   2.847
38097SOL    HW216125  11.301   8.225   2.864
38098SOL     OW16126  11.583   5.296  10.021
38098SOL    HW116127  11.594   5.208   9.986
38098SOL    HW216128  11.565   5.283  10.114
38099SOL     OW16129   7.924  12.945  14.788
38099SOL    HW116130   7.832  12.950  14.762
38099SOL    HW216131   7.924  12.885  14.863
38100SOL     OW16132   5.739   4.469   2.072
38100SOL    HW116133   5.760   4.563   2.078
38100SOL    HW216134   5.729   4.441   2.162
38101SOL     OW16135  10.200   7.212   2.016
38101SOL    HW116136  10.135   7.149   2.047
38101SOL    HW216137  10.251   7.234   2.093
38102SOL     OW16138   7.487   9.472   9.098
38102SOL    HW116139   7.432   9.446   9.171
38102SOL    HW216140   7.438   9.444   9.020
38103SOL     OW16141   3.022   5.043   9.397
38103SOL    HW116142   3.005   5.080   9.483
38103SOL    HW216143   2.938   5.051   9.350
38104SOL     OW16144  13.448   3.591   3.602
38104SOL    HW116145  13.399   3.635   3.533
38104SOL    HW216146  13.385   3.533   3.644
38105SOL     OW16147  10.733   7.493   1.473
38105SOL    HW116148  10.787   7.519   1.547
38105SOL    HW216149  10.765   7.406   1.449
38106SOL     OW16150   7.897  10.595   8.378
38106SOL    HW116151   7.932  10.554   8.457
38106SOL    HW216152   7.961  10.662   8.355
38107SOL     OW16153   4.316  11.670  11.685
38107SOL    HW116154   4.268  11.732  11.739
38107SOL    HW216155   4.262  11.591  11.686
38108SOL     OW16156  10.991   4.415   9.051
38108SOL    HW116157  11.048   4.340   9.031
38108SOL    HW216158  10.931   4.419   8.976
38109SOL     OW16159  12.956   8.678   6.483
38109SOL    HW116160  12.889   8.614   6.460
38109SOL    HW216161  12.983   8.716   6.400
38110SOL     OW16162   8.670   2.341   0.007
38110SOL    HW116163   8.577   2.338  14.857
38110SOL    HW216164   8.672   2.334   0.102
38111SOL     OW16165   1.439   5.202   4.356
38111SOL    HW116166   1.505   5.151   4.310
38111SOL    HW216167   1.385   5.137   4.400
38112SOL     OW16168   4.936   8.150  12.609
38112SOL    HW116169   4.891   8.203  12.543
38112SOL    HW216170   5.014   8.201  12.631
38113SOL     OW16171   2.778   2.540   4.209
38113SOL    HW116172   2.801   2.591   4.286
38113SOL    HW216173   2.699   2.492   4.234
38114SOL     OW16174  14.012   7.285  14.843
38114SOL    HW116175  14.099   7.325  14.843
38114SOL    HW216176  13.966   7.329   0.043
38115SOL     OW16177   3.266   3.406  14.801
38115SOL    HW116178   3.215   3.330  14.829
38115SOL    HW216179   3.317   3.431   0.006
38116SOL     OW16180   9.727   4.563   3.023
38116SOL    HW116181   9.793   4.615   3.070
38116SOL    HW216182   9.749   4.472   3.043
38117SOL     OW16183   1.403  10.251   8.724
38117SOL    HW116184   1.460  10.319   8.688
38117SOL    HW216185   1.436  10.169   8.685
38118SOL     OW16186   7.567  14.868   2.504
38118SOL    HW116187   7.545  14.784   2.543
38118SOL    HW216188   7.640   0.029   2.556
38119SOL     OW16189   1.204   1.509   5.213
38119SOL    HW116190   1.237   1.590   5.253
38119SOL    HW216191   1.174   1.456   5.287
38120SOL     OW16192  13.557  12.279   7.581
38120SOL    HW116193  13.636  12.333   7.592
38120SOL    HW216194  13.554  12.226   7.661
38121SOL     OW16195   4.622   7.889  11.767
38121SOL    HW116196   4.569   7.809  11.777
38121SOL    HW216197   4.620   7.929  11.854
38122SOL     OW16198  14.401  13.942   4.559
38122SOL    HW116199  14.442  14.022   4.526
38122SOL    HW216200  14.307  13.958   4.550
38123SOL     OW16201   1.843   4.454  10.393
38123SOL    HW116202   1.918   4.476  10.448
38123SOL    HW216203   1.825   4.534  10.344
38124SOL     OW16204   6.013   8.230  12.079
38124SOL    HW116205   5.929   8.241  12.035
38124SOL    HW216206   6.077   8.221  12.008
38125SOL     OW16207   0.115   8.320  13.271
38125SOL    HW116208   0.118   8.408  13.234
38125SOL    HW216209   0.088   8.264  13.198
38126SOL     OW16210   3.527   7.077   3.200
38126SOL    HW116211   3.479   7.086   3.117
38126SOL    HW216212   3.460   7.052   3.263
38127SOL     OW16213  13.595   0.080  10.163
38127SOL    HW116214  13.690   0.072  10.166
38127SOL    HW216215  13.562  14.868  10.192
38128SOL     OW16216  10.624   5.103   7.503
38128SOL    HW116217  10.561   5.032   7.514
38128SOL    HW216218  10.571   5.181   7.487
38129SOL     OW16219   0.415  14.366   8.664
38129SOL    HW116220   0.392  14.450   8.703
38129SOL    HW216221   0.402  14.378   8.570
38130SOL     OW16222   9.913   1.776  14.132
38130SOL    HW116223   9.879   1.864  14.148
38130SOL    HW216224   9.999   1.789  14.093
38131SOL     OW16225  11.924   7.487   3.945
38131SOL    HW116226  11.919   7.579   3.920
38131SOL    HW216227  11.885   7.483   4.033
38132SOL     OW16228   4.029   0.681   4.475
38132SOL    HW116229   4.071   0.616   4.420
38132SOL    HW216230   4.016   0.757   4.418
38133SOL     OW16231  10.586   2.680   6.304
38133SOL    HW116232  10.554   2.695   6.393
38133SOL    HW216233  10.533   2.738   6.249
38134SOL     OW16234   5.425   2.969   6.564
38134SOL    HW116235   5.375   2.920   6.629
38134SOL    HW216236   5.513   2.975   6.602
38135SOL     OW16237   0.517  12.843   5.442
38135SOL    HW116238   0.558  12.757   5.446
38135SOL    HW216239   0.576  12.900   5.490
38136SOL     OW16240   5.465   9.561  10.826
38136SOL    HW116241   5.543   9.549  10.773
38136SOL    HW216242   5.495   9.606  10.905
38137SOL     OW16243   9.545  12.886   8.872
38137SOL    HW116244   9.494  12.878   8.791
38137SOL    HW216245   9.510  12.965   8.914
38138SOL     OW16246   6.063  14.521  10.028
38138SOL    HW116247   6.086  14.514   9.935
38138SOL    HW216248   5.969  14.540  10.028
38139SOL     OW16249   9.647   3.950   1.927
38139SOL    HW116250   9.713   3.882   1.912
38139SOL    HW216251   9.575   3.926   1.869
38140SOL     OW16252   4.817  13.063   7.195
38140SOL    HW116253   4.744  13.050   7.256
38140SOL    HW216254   4.775  13.070   7.109
38141SOL     OW16255   9.643  13.245   2.715
38141SOL    HW116256   9.685  13.330   2.702
38141SOL    HW216257   9.623  13.242   2.809
38142SOL     OW16258   7.569   2.136   2.225
38142SOL    HW116259   7.533   2.051   2.249
38142SOL    HW216260   7.507   2.200   2.261
38143SOL     OW16261   5.282   8.445  12.184
38143SOL    HW116262   5.314   8.357  12.201
38143SOL    HW216263   5.246   8.474  12.268
38144SOL     OW16264   0.984   0.692   1.246
38144SOL    HW116265   0.914   0.692   1.312
38144SOL    HW216266   1.029   0.776   1.258
38145SOL     OW16267   1.551   4.771   9.704
38145SOL    HW116268   1.582   4.860   9.717
38145SOL    HW216269   1.463   4.781   9.667
38146SOL     OW16270  14.828   2.298   7.787
38146SOL    HW116271  14.819   2.385   7.825
38146SOL    HW216272  14.811   2.311   7.694
38147SOL     OW16273   1.164   9.870   2.900
38147SOL    HW116274   1.216   9.924   2.841
38147SOL    HW216275   1.228   9.826   2.955
38148SOL     OW16276  11.207   6.205   6.558
38148SOL    HW116277  11.192   6.247   6.473
38148SOL    HW216278  11.121   6.170   6.582
38149SOL     OW16279   4.631  12.756  13.769
38149SOL    HW116280   4.550  12.712  13.795
38149SOL    HW216281   4.700  12.702  13.807
38150SOL     OW16282  13.636   6.325   4.261
38150SOL    HW116283  13.685   6.272   4.323
38150SOL    HW216284  13.611   6.264   4.191
38151SOL     OW16285   2.052   5.567   8.207
38151SOL    HW116286   2.100   5.583   8.126
38151SOL    HW216287   2.094   5.624   8.271
38152SOL     OW16288   3.319  13.032   4.286
38152SOL    HW116289   3.274  13.008   4.205
38152SOL    HW216290   3.378  12.958   4.303
38153SOL     OW16291  10.998   9.359   7.746
38153SOL    HW116292  10.967   9.324   7.662
38153SOL    HW216293  11.020   9.451   7.727
38154SOL     OW16294  10.704  13.313   4.101
38154SOL    HW116295  10.661  13.232   4.076
38154SOL    HW216296  10.798  13.293   4.096
38155SOL     OW16297   7.878   1.998   3.846
38155SOL    HW116298   7.830   1.917   3.862
38155SOL    HW216299   7.949   1.998   3.910
38156SOL     OW16300   6.876  13.620   9.499
38156SOL    HW116301   6.952  13.613   9.558
38156SOL    HW216302   6.838  13.532   9.499
38157SOL     OW16303   3.745  11.337  10.601
38157SOL    HW116304   3.683  11.266  10.586
38157SOL    HW216305   3.715  11.408  10.545
38158SOL     OW16306  12.386   5.241  10.535
38158SOL    HW116307  12.376   5.326  10.580
38158SOL    HW216308  12.306   5.193  10.558
38159SOL     OW16309  14.089   4.567   9.396
38159SOL    HW116310  14.113   4.512   9.470
38159SOL    HW216311  14.155   4.547   9.329
38160SOL     OW16312   5.484  11.787   3.576
38160SOL    HW116313   5.391  11.794   3.555
38160SOL    HW216314   5.528  11.832   3.504
38161SOL     OW16315  12.596   8.337   9.263
38161SOL    HW116316  12.625   8.253   9.299
38161SOL    HW216317  12.580   8.392   9.341
38162SOL     OW16318   9.792  10.109   1.678
38162SOL    HW116319   9.707  10.073   1.655
38162SOL    HW216320   9.777  10.203   1.687
38163SOL     OW16321   7.422   1.791   5.533
38163SOL    HW116322   7.385   1.875   5.503
38163SOL    HW216323   7.516   1.808   5.539
38164SOL     OW16324  14.698   7.020   9.085
38164SOL    HW116325  14.780   6.988   9.047
38164SOL    HW216326  14.634   6.951   9.066
38165SOL     OW16327  14.692   7.357  12.001
38165SOL    HW116328  14.617   7.308  11.966
38165SOL    HW216329  14.717   7.416  11.930
38166SOL     OW16330   7.932   1.367   9.501
38166SOL    HW116331   7.986   1.291   9.481
38166SOL    HW216332   7.986   1.443   9.478
38167SOL     OW16333   1.851  13.362  11.259
38167SOL    HW116334   1.793  13.388  11.187
38167SOL    HW216335   1.850  13.267  11.257
38168SOL     OW16336   1.477   8.446   0.615
38168SOL    HW116337   1.515   8.524   0.654
38168SOL    HW216338   1.484   8.460   0.521
38169SOL     OW16339  14.731  12.410  12.032
38169SOL    HW116340  14.730  12.475  11.961
38169SOL    HW216341  14.766  12.457  12.107
38170SOL     OW16342   8.242  10.546   9.155
38170SOL    HW116343   8.332  10.525   9.181
38170SOL    HW216344   8.252  10.599   9.076
38171SOL     OW16345  11.115   7.928   6.804
38171SOL    HW116346  11.019   7.935   6.801
38171SOL    HW216347  11.145   8.016   6.824
38172SOL     OW16348   5.411  10.792   4.584
38172SOL    HW116349   5.479  10.763   4.645
38172SOL    HW216350   5.393  10.883   4.609
38173SOL     OW16351   0.042   6.943  13.795
38173SOL    HW116352   0.110   7.010  13.801
38173SOL    HW216353  14.842   6.986  13.751
38174SOL     OW16354  12.993  12.954  13.063
38174SOL    HW116355  12.984  12.970  12.969
38174SOL    HW216356  12.932  12.883  13.081
38175SOL     OW16357   2.519  10.180   6.130
38175SOL    HW116358   2.582  10.249   6.108
38175SOL    HW216359   2.560  10.131   6.200
38176SOL     OW16360   1.024   7.578   4.145
38176SOL    HW116361   0.970   7.554   4.069
38176SOL    HW216362   1.042   7.671   4.132
38177SOL     OW16363   5.355   8.622   6.523
38177SOL    HW116364   5.306   8.634   6.441
38177SOL    HW216365   5.294   8.575   6.580
38178SOL     OW16366  10.768  12.621  11.800
38178SOL    HW116367  10.758  12.587  11.889
38178SOL    HW216368  10.862  12.640  11.792
38179SOL     OW16369  13.347   7.870  12.241
38179SOL    HW116370  13.337   7.833  12.153
38179SOL    HW216371  13.438   7.899  12.245
38180SOL     OW16372   8.402   0.160   2.474
38180SOL    HW116373   8.352   0.128   2.399
38180SOL    HW216374   8.455   0.085   2.501
38181SOL     OW16375  14.707   3.719   0.551
38181SOL    HW116376  14.633   3.775   0.528
38181SOL    HW216377  14.694   3.699   0.644
38182SOL     OW16378   5.216   3.935   9.696
38182SOL    HW116379   5.305   3.970   9.698
38182SOL    HW216380   5.171   3.987   9.630
38183SOL     OW16381  14.750   3.734   9.362
38183SOL    HW116382  14.752   3.640   9.380
38183SOL    HW216383  14.841   3.762   9.374
38184SOL     OW16384  14.665   5.489   2.863
38184SOL    HW116385  14.669   5.473   2.769
38184SOL    HW216386  14.685   5.404   2.903
38185SOL     OW16387  13.620  10.441  12.363
38185SOL    HW116388  13.683  10.373  12.386
38185SOL    HW216389  13.623  10.502  12.437
38186SOL     OW16390   0.869  14.582   5.071
38186SOL    HW116391   0.785  14.557   5.108
38186SOL    HW216392   0.899  14.654   5.127
38187SOL     OW16393  12.503   1.425   2.014
38187SOL    HW116394  12.488   1.513   1.981
38187SOL    HW216395  12.557   1.438   2.092
38188SOL     OW16396   8.931   5.644   4.847
38188SOL    HW116397   8.875   5.569   4.831
38188SOL    HW216398   9.002   5.610   4.901
38189SOL     OW16399  13.042   9.505   5.231
38189SOL    HW116400  13.023   9.441   5.300
38189SOL    HW216401  13.002   9.587   5.263
38190SOL     OW16402  10.060  14.292  10.354
38190SOL    HW116403  10.013  14.369  10.323
38190SOL    HW216404  10.133  14.326  10.405
38191SOL     OW16405  10.785  14.155  14.518
38191SOL    HW116406  10.843  14.177  14.445
38191SOL    HW216407  10.842  14.155  14.595
38192SOL     OW16408   5.356  12.364   1.988
38192SOL    HW116409   5.300  12.438   1.963
38192SOL    HW216410   5.299  12.288   1.984
38193SOL     OW16411  13.393  10.001   5.700
38193SOL    HW116412  13.319  10.047   5.661
38193SOL    HW216413  13.357   9.916   5.727
38194SOL     OW16414  11.055   5.582   4.491
38194SOL    HW116415  11.092   5.543   4.412
38194SOL    HW216416  11.113   5.655   4.511
38195SOL     OW16417   6.063   1.785   0.039
38195SOL    HW116418   6.037   1.868  14.870
38195SOL    HW216419   5.980   1.740   0.057
38196SOL     OW16420  11.041   3.286   7.461
38196SOL    HW116421  11.046   3.192   7.473
38196SOL    HW216422  11.130   3.317   7.480
38197SOL     OW16423  14.262   9.813   4.896
38197SOL    HW116424  14.200   9.743   4.917
38197SOL    HW216425  14.324   9.772   4.835
38198SOL     OW16426  11.894   0.520   1.408
38198SOL    HW116427  11.931   0.520   1.496
38198SOL    HW216428  11.920   0.604   1.371
38199SOL     OW16429  14.461   0.200   6.614
38199SOL    HW116430  14.451   0.151   6.696
38199SOL    HW216431  14.463   0.292   6.641
38200SOL     OW16432  14.395   3.555   1.643
38200SOL    HW116433  14.441   3.636   1.666
38200SOL    HW216434  14.302   3.579   1.648
38201SOL     OW16435   5.224   1.502   8.897
38201SOL    HW116436   5.218   1.436   8.828
38201SOL    HW216437   5.189   1.459   8.975
38202SOL     OW16438  11.176   4.889   1.529
38202SOL    HW116439  11.110   4.875   1.461
38202SOL    HW216440  11.125   4.902   1.609
38203SOL     OW16441   0.402   2.184   0.285
38203SOL    HW116442   0.330   2.241   0.260
38203SOL    HW216443   0.391   2.106   0.231
38204SOL     OW16444  14.703   8.193   2.285
38204SOL    HW116445  14.653   8.201   2.204
38204SOL    HW216446  14.671   8.113   2.325
38205SOL     OW16447  10.499   1.386   2.329
38205SOL    HW116448  10.512   1.307   2.277
38205SOL    HW216449  10.441   1.441   2.276
38206SOL     OW16450  11.867   0.563  13.905
38206SOL    HW116451  11.819   0.645  13.913
38206SOL    HW216452  11.802   0.499  13.878
38207SOL     OW16453   2.602   8.523   7.097
38207SOL    HW116454   2.596   8.617   7.117
38207SOL    HW216455   2.585   8.480   7.181
38208SOL     OW16456  12.717   1.663  10.395
38208SOL    HW116457  12.695   1.692  10.483
38208SOL    HW216458  12.664   1.585  10.381
38209SOL     OW16459   2.699   4.103  14.039
38209SOL    HW116460   2.733   4.169  14.098
38209SOL    HW216461   2.748   4.116  13.958
38210SOL     OW16462   0.386  11.432   9.880
38210SOL    HW116463   0.378  11.429   9.976
38210SOL    HW216464   0.452  11.366   9.859
38211SOL     OW16465   5.250   0.176   3.179
38211SOL    HW116466   5.342   0.173   3.152
38211SOL    HW216467   5.238   0.264   3.214
38212SOL     OW16468  14.131  14.171   1.752
38212SOL    HW116469  14.037  14.158   1.758
38212SOL    HW216470  14.166  14.132   1.832
38213SOL     OW16471   2.989   9.605   1.008
38213SOL    HW116472   2.895   9.593   1.019
38213SOL    HW216473   3.015   9.663   1.080
38214SOL     OW16474  12.809   0.473   0.095
38214SOL    HW116475  12.846   0.424   0.168
38214SOL    HW216476  12.735   0.419   0.066
38215SOL     OW16477   2.455   4.459   6.942
38215SOL    HW116478   2.469   4.482   6.851
38215SOL    HW216479   2.484   4.368   6.949
38216SOL     OW16480   8.500  14.493   5.025
38216SOL    HW116481   8.427  14.454   5.073
38216SOL    HW216482   8.506  14.441   4.944
38217SOL     OW16483   3.112  11.200   1.647
38217SOL    HW116484   3.063  11.266   1.697
38217SOL    HW216485   3.064  11.192   1.565
38218SOL     OW16486   6.956  11.271   6.716
38218SOL    HW116487   6.968  11.247   6.625
38218SOL    HW216488   7.029  11.231   6.762
38219SOL     OW16489   8.368   7.645   9.278
38219SOL    HW116490   8.372   7.592   9.199
38219SOL    HW216491   8.284   7.622   9.318
38220SOL     OW16492  10.398   4.794   2.139
38220SOL    HW116493  10.378   4.842   2.220
38220SOL    HW216494  10.454   4.854   2.089
38221SOL     OW16495  14.439   2.040  12.144
38221SOL    HW116496  14.411   1.963  12.095
38221SOL    HW216497  14.527   2.059  12.111
38222SOL     OW16498   1.823   5.790   6.297
38222SOL    HW116499   1.894   5.854   6.299
38222SOL    HW216500   1.842   5.736   6.221
38223SOL     OW16501  13.346   5.152   7.529
38223SOL    HW116502  13.425   5.132   7.479
38223SOL    HW216503  13.306   5.067   7.546
38224SOL     OW16504  14.238  10.522  12.346
38224SOL    HW116505  14.289  10.593  12.308
38224SOL    HW216506  14.205  10.473  12.271
38225SOL     OW16507   1.294   7.056   0.043
38225SOL    HW116508   1.266   7.142   0.012
38225SOL    HW216509   1.374   7.073   0.093
38226SOL     OW16510   4.103   9.817  13.897
38226SOL    HW116511   4.156   9.867  13.959
38226SOL    HW216512   4.117   9.861  13.813
38227SOL     OW16513   5.684   2.423   9.751
38227SOL    HW116514   5.746   2.451   9.817
38227SOL    HW216515   5.601   2.465   9.775
38228SOL     OW16516  12.541   3.808   9.989
38228SOL    HW116517  12.552   3.897  10.024
38228SOL    HW216518  12.606   3.802   9.919
38229SOL     OW16519   6.788   8.710   2.781
38229SOL    HW116520   6.717   8.719   2.844
38229SOL    HW216521   6.827   8.797   2.775
38230SOL     OW16522  13.327   0.769   3.995
38230SOL    HW116523  13.232   0.760   3.993
38230SOL    HW216524  13.360   0.682   4.016
38231SOL     OW16525   5.176  10.187   3.862
38231SOL    HW116526   5.175  10.283   3.865
38231SOL    HW216527   5.269  10.165   3.864
38232SOL     OW16528  12.896   2.460   5.401
38232SOL    HW116529  12.802   2.443   5.409
38232SOL    HW216530  12.904   2.555   5.411
38233SOL     OW16531   3.634  10.676  11.962
38233SOL    HW116532   3.680  10.632  12.033
38233SOL    HW216533   3.543  10.649  11.972
38234SOL     OW16534  10.220   9.517   5.857
38234SOL    HW116535  10.224   9.602   5.901
38234SOL    HW216536  10.272   9.528   5.777
38235SOL     OW16537   1.455  13.733   4.243
38235SOL    HW116538   1.539  13.745   4.288
38235SOL    HW216539   1.477  13.677   4.168
38236SOL     OW16540   7.061   7.719  13.905
38236SOL    HW116541   7.140   7.768  13.882
38236SOL    HW216542   7.092   7.648  13.961
38237SOL     OW16543   6.711   0.264   5.593
38237SOL    HW116544   6.652   0.265   5.668
38237SOL    HW216545   6.695   0.347   5.548
38238SOL     OW16546   6.044   4.475   8.764
38238SOL    HW116547   6.118   4.419   8.740
38238SOL    HW216548   6.017   4.443   8.850
38239SOL     OW16549   8.036   9.368   3.106
38239SOL    HW116550   8.005   9.418   3.031
38239SOL    HW216551   8.014   9.278   3.086
38240SOL     OW16552   1.866   7.265  13.162
38240SOL    HW116553   1.846   7.173  13.178
38240SOL    HW216554   1.961   7.271  13.167
38241SOL     OW16555  10.429  12.361  10.178
38241SOL    HW116556  10.387  12.275  10.167
38241SOL    HW216557  10.514  12.340  10.218
38242SOL     OW16558  13.805   9.936   8.972
38242SOL    HW116559  13.829   9.875   9.043
38242SOL    HW216560  13.877   9.928   8.909
38243SOL     OW16561   8.973  11.438   7.087
38243SOL    HW116562   9.031  11.423   7.162
38243SOL    HW216563   8.889  11.461   7.127
38244SOL     OW16564   7.132  11.795  11.449
38244SOL    HW116565   7.043  11.811  11.480
38244SOL    HW216566   7.126  11.800  11.353
38245SOL     OW16567   6.843  10.753   3.090
38245SOL    HW116568   6.837  10.739   3.184
38245SOL    HW216569   6.866  10.667   3.054
38246SOL     OW16570  13.260  12.074  14.003
38246SOL    HW116571  13.207  12.019  14.061
38246SOL    HW216572  13.263  12.159  14.048
38247SOL     OW16573  13.013  12.107  11.250
38247SOL    HW116574  13.062  12.189  11.250
38247SOL    HW216575  13.068  12.046  11.298
38248SOL     OW16576   2.331  11.817   3.555
38248SOL    HW116577   2.426  11.811   3.549
38248SOL    HW216578   2.299  11.740   3.508
38249SOL     OW16579   9.982   9.117   2.359
38249SOL    HW116580  10.025   9.041   2.319
38249SOL    HW216581  10.027   9.192   2.319
38250SOL     OW16582  11.303   2.444   4.010
38250SOL    HW116583  11.331   2.373   4.068
38250SOL    HW216584  11.341   2.422   3.925
38251SOL     OW16585   7.041   7.117   2.328
38251SOL    HW116586   7.003   7.104   2.415
38251SOL    HW216587   7.132   7.142   2.345
38252SOL     OW16588   6.646  12.457   6.845
38252SOL    HW116589   6.630  12.474   6.938
38252SOL    HW216590   6.679  12.540   6.811
38253SOL     OW16591   9.774  12.339  10.953
38253SOL    HW116592   9.789  12.284  11.030
38253SOL    HW216593   9.685  12.373  10.964
38254SOL     OW16594  11.794   0.005   2.489
38254SOL    HW116595  11.885  14.853   2.472
38254SOL    HW216596  11.799   0.081   2.547
38255SOL     OW16597   4.091  12.277   2.397
38255SOL    HW116598   4.127  12.234   2.320
38255SOL    HW216599   4.118  12.368   2.389
38256SOL     OW16600  10.841   1.695   7.034
38256SOL    HW116601  10.764   1.726   7.080
38256SOL    HW216602  10.908   1.687   7.102
38257SOL     OW16603  12.848  14.377  10.450
38257SOL    HW116604  12.786  14.311  10.422
38257SOL    HW216605  12.915  14.329  10.498
38258SOL     OW16606   0.751   2.312   5.278
38258SOL    HW116607   0.809   2.335   5.351
38258SOL    HW216608   0.808   2.308   5.202
38259SOL     OW16609  14.330  14.376  13.355
38259SOL    HW116610  14.340  14.452  13.298
38259SOL    HW216611  14.391  14.311  13.319
38260SOL     OW16612   2.610   4.927   0.523
38260SOL    HW116613   2.650   4.845   0.492
38260SOL    HW216614   2.634   4.932   0.615
38261SOL     OW16615   4.706   0.509   7.382
38261SOL    HW116616   4.715   0.548   7.468
38261SOL    HW216617   4.686   0.417   7.400
38262SOL     OW16618  10.328   4.170   0.462
38262SOL    HW116619  10.260   4.237   0.476
38262SOL    HW216620  10.391   4.212   0.403
38263SOL     OW16621   2.970   6.359   3.215
38263SOL    HW116622   3.024   6.436   3.235
38263SOL    HW216623   2.909   6.353   3.289
38264SOL     OW16624   7.993   1.879  10.225
38264SOL    HW116625   7.965   1.932  10.300
38264SOL    HW216626   7.938   1.801  10.229
38265SOL     OW16627   7.737   4.090   9.458
38265SOL    HW116628   7.810   4.061   9.514
38265SOL    HW216629   7.758   4.181   9.437
38266SOL     OW16630  12.819   4.352  10.332
38266SOL    HW116631  12.730   4.385  10.345
38266SOL    HW216632  12.873   4.430  10.327
38267SOL     OW16633   3.442   5.318   8.993
38267SOL    HW116634   3.501   5.247   9.017
38267SOL    HW216635   3.466   5.339   8.903
38268SOL     OW16636   4.168  10.745  10.780
38268SOL    HW116637   4.238  10.695  10.737
38268SOL    HW216638   4.210  10.827  10.807
38269SOL     OW16639  10.890  10.604   8.714
38269SOL    HW116640  10.977  10.587   8.679
38269SOL    HW216641  10.830  10.556   8.657
38270SOL     OW16642   2.236   0.178   2.211
38270SOL    HW116643   2.328   0.170   2.189
38270SOL    HW216644   2.212   0.266   2.182
38271SOL     OW16645  14.314  14.783   7.797
38271SOL    HW116646  14.397  14.770   7.843
38271SOL    HW216647  14.313  14.716   7.729
38272SOL     OW16648   8.179  11.154  13.940
38272SOL    HW116649   8.230  11.116  14.011
38272SOL    HW216650   8.243  11.199  13.885
38273SOL     OW16651   0.415   6.162   4.491
38273SOL    HW116652   0.384   6.072   4.485
38273SOL    HW216653   0.447   6.171   4.580
38274SOL     OW16654   8.278   5.497   6.117
38274SOL    HW116655   8.191   5.529   6.093
38274SOL    HW216656   8.262   5.408   6.148
38275SOL     OW16657  13.744   3.594   4.815
38275SOL    HW116658  13.806   3.667   4.816
38275SOL    HW216659  13.782   3.530   4.876
38276SOL     OW16660  12.534   7.548  12.225
38276SOL    HW116661  12.571   7.464  12.199
38276SOL    HW216662  12.439   7.532  12.229
38277SOL     OW16663   4.956   7.288   9.434
38277SOL    HW116664   4.937   7.210   9.486
38277SOL    HW216665   5.039   7.269   9.391
38278SOL     OW16666   4.693   5.902   9.340
38278SOL    HW116667   4.694   5.998   9.339
38278SOL    HW216668   4.644   5.880   9.419
38279SOL     OW16669   8.427   1.892   5.356
38279SOL    HW116670   8.345   1.845   5.372
38279SOL    HW216671   8.417   1.929   5.268
38280SOL     OW16672  13.571   6.108  14.252
38280SOL    HW116673  13.549   6.077  14.164
38280SOL    HW216674  13.534   6.041  14.311
38281SOL     OW16675   7.332   1.980  11.806
38281SOL    HW116676   7.348   1.963  11.898
38281SOL    HW216677   7.338   1.894  11.764
38282SOL     OW16678  13.645   2.268   6.181
38282SOL    HW116679  13.580   2.292   6.115
38282SOL    HW216680  13.660   2.174   6.166
38283SOL     OW16681   6.309   5.709  10.193
38283SOL    HW116682   6.296   5.784  10.251
38283SOL    HW216683   6.403   5.707  10.177
38284SOL     OW16684  11.054   6.970   3.593
38284SOL    HW116685  11.123   6.945   3.531
38284SOL    HW216686  11.023   6.887   3.629
38285SOL     OW16687   8.292  11.535   7.460
38285SOL    HW116688   8.236  11.542   7.536
38285SOL    HW216689   8.318  11.443   7.457
38286SOL     OW16690   1.129   1.806   9.457
38286SOL    HW116691   1.064   1.869   9.488
38286SOL    HW216692   1.128   1.815   9.362
38287SOL     OW16693   0.822   1.756  12.789
38287SOL    HW116694   0.745   1.706  12.761
38287SOL    HW216695   0.786   1.826  12.844
38288SOL     OW16696  11.162   1.618  13.980
38288SOL    HW116697  11.165   1.579  13.892
38288SOL    HW216698  11.082   1.670  13.979
38289SOL     OW16699   2.496  12.845   4.126
38289SOL    HW116700   2.458  12.911   4.068
38289SOL    HW216701   2.520  12.893   4.205
38290SOL     OW16702   6.684   3.246   3.381
38290SOL    HW116703   6.656   3.291   3.461
38290SOL    HW216704   6.608   3.250   3.323
38291SOL     OW16705  14.615   3.102   1.394
38291SOL    HW116706  14.671   3.144   1.329
38291SOL    HW216707  14.567   3.175   1.434
38292SOL     OW16708  10.799   9.437   3.552
38292SOL    HW116709  10.734   9.485   3.501
38292SOL    HW216710  10.789   9.346   3.523
38293SOL     OW16711   3.711   8.155   0.897
38293SOL    HW116712   3.714   8.089   0.829
38293SOL    HW216713   3.620   8.156   0.926
38294SOL     OW16714  12.468  12.864   8.325
38294SOL    HW116715  12.491  12.944   8.372
38294SOL    HW216716  12.480  12.885   8.233
38295SOL     OW16717  14.665   5.232  11.225
38295SOL    HW116718  14.739   5.287  11.252
38295SOL    HW216719  14.612   5.288  11.168
38296SOL     OW16720  13.783   3.072   4.526
38296SOL    HW116721  13.727   3.040   4.455
38296SOL    HW216722  13.849   3.126   4.482
38297SOL     OW16723  14.596   5.463   4.967
38297SOL    HW116724  14.674   5.408   4.974
38297SOL    HW216725  14.613   5.537   5.026
38298SOL     OW16726  12.559   6.902   5.875
38298SOL    HW116727  12.510   6.824   5.850
38298SOL    HW216728  12.583   6.942   5.791
38299SOL     OW16729  12.631  13.058   2.851
38299SOL    HW116730  12.632  13.037   2.945
38299SOL    HW216731  12.608  12.975   2.809
38300SOL     OW16732  11.726   6.752   9.286
38300SOL    HW116733  11.693   6.753   9.376
38300SOL    HW216734  11.790   6.823   9.283
38301SOL     OW16735   8.530   2.359   3.832
38301SOL    HW116736   8.526   2.278   3.882
38301SOL    HW216737   8.503   2.427   3.894
38302SOL     OW16738   5.199   8.288   2.256
38302SOL    HW116739   5.247   8.228   2.199
38302SOL    HW216740   5.225   8.376   2.226
38303SOL     OW16741  12.995  13.064   5.662
38303SOL    HW116742  13.035  12.991   5.709
38303SOL    HW216743  12.903  13.040   5.653
38304SOL     OW16744  10.027   7.136   5.742
38304SOL    HW116745  10.001   7.218   5.701
38304SOL    HW216746   9.970   7.128   5.818
38305SOL     OW16747  10.866   4.321  11.566
38305SOL    HW116748  10.845   4.408  11.599
38305SOL    HW216749  10.830   4.319  11.477
38306SOL     OW16750   9.311  12.984   6.258
38306SOL    HW116751   9.307  12.995   6.354
38306SOL    HW216752   9.245  13.044   6.225
38307SOL     OW16753   2.380   2.448   1.433
38307SOL    HW116754   2.336   2.465   1.349
38307SOL    HW216755   2.404   2.356   1.429
38308SOL     OW16756   4.637  11.117  10.411
38308SOL    HW116757   4.707  11.178  10.438
38308SOL    HW216758   4.578  11.114  10.486
38309SOL     OW16759   8.930   1.423   8.734
38309SOL    HW116760   8.944   1.330   8.720
38309SOL    HW216761   9.013   1.455   8.771
38310SOL     OW16762  14.203   9.550  14.259
38310SOL    HW116763  14.267   9.592  14.201
38310SOL    HW216764  14.211   9.457  14.241
38311SOL     OW16765   0.801   2.105   2.133
38311SOL    HW116766   0.849   2.050   2.194
38311SOL    HW216767   0.798   2.054   2.052
38312SOL     OW16768  14.194   3.282  13.847
38312SOL    HW116769  14.223   3.284  13.756
38312SOL    HW216770  14.100   3.300  13.843
38313SOL     OW16771   4.013   5.483   5.517
38313SOL    HW116772   3.971   5.515   5.597
38313SOL    HW216773   3.977   5.538   5.448
38314SOL     OW16774  11.930   2.863   8.576
38314SOL    HW116775  11.890   2.854   8.663
38314SOL    HW216776  11.935   2.957   8.562
38315SOL     OW16777   8.600   8.273  10.138
38315SOL    HW116778   8.550   8.335  10.190
38315SOL    HW216779   8.608   8.196  10.193
38316SOL     OW16780  10.869  11.126   1.195
38316SOL    HW116781  10.808  11.200   1.203
38316SOL    HW216782  10.951  11.166   1.165
38317SOL     OW16783   5.366   1.792   2.671
38317SOL    HW116784   5.459   1.814   2.660
38317SOL    HW216785   5.331   1.793   2.582
38318SOL     OW16786  11.043   6.352  11.748
38318SOL    HW116787  11.088   6.368  11.665
38318SOL    HW216788  11.025   6.439  11.783
38319SOL     OW16789  13.208   6.907   1.450
38319SOL    HW116790  13.191   7.000   1.435
38319SOL    HW216791  13.259   6.879   1.374
38320SOL     OW16792   5.759   6.321   6.264
38320SOL    HW116793   5.673   6.345   6.229
38320SOL    HW216794   5.746   6.321   6.359
38321SOL     OW16795  12.231   9.741   8.671
38321SOL    HW116796  12.144   9.747   8.712
38321SOL    HW216797  12.277   9.675   8.723
38322SOL     OW16798   8.844  10.592  13.506
38322SOL    HW116799   8.880  10.674  13.540
38322SOL    HW216800   8.913  10.527  13.520
38323SOL     OW16801   9.761   8.616   5.707
38323SOL    HW116802   9.690   8.633   5.645
38323SOL    HW216803   9.727   8.546   5.763
38324SOL     OW16804  12.717   9.253   9.637
38324SOL    HW116805  12.639   9.221   9.683
38324SOL    HW216806  12.708   9.348   9.638
38325SOL     OW16807  12.777   1.339   1.513
38325SOL    HW116808  12.763   1.406   1.580
38325SOL    HW216809  12.872   1.335   1.503
38326SOL     OW16810  13.862   1.154  14.632
38326SOL    HW116811  13.870   1.245  14.602
38326SOL    HW216812  13.805   1.159  14.709
38327SOL     OW16813   9.693  13.498   2.636
38327SOL    HW116814   9.770  13.546   2.666
38327SOL    HW216815   9.622  13.529   2.692
38328SOL     OW16816   4.004   6.538   1.540
38328SOL    HW116817   3.952   6.532   1.620
38328SOL    HW216818   4.026   6.447   1.520
38329SOL     OW16819   8.153  12.593  10.747
38329SOL    HW116820   8.160  12.616  10.655
38329SOL    HW216821   8.087  12.654  10.782
38330SOL     OW16822   0.527   2.674   0.901
38330SOL    HW116823   0.588   2.611   0.941
38330SOL    HW216824   0.442   2.652   0.938
38331SOL     OW16825   2.779   3.991  10.749
38331SOL    HW116826   2.785   4.075  10.794
38331SOL    HW216827   2.800   4.011  10.658
38332SOL     OW16828  14.818   1.333   6.818
38332SOL    HW116829  14.750   1.394   6.790
38332SOL    HW216830   0.004   1.327   6.743
38333SOL     OW16831   8.008   7.294   8.389
38333SOL    HW116832   7.953   7.321   8.315
38333SOL    HW216833   7.956   7.314   8.466
38334SOL     OW16834   4.070   0.357   0.457
38334SOL    HW116835   3.998   0.417   0.438
38334SOL    HW216836   4.046   0.317   0.541
38335SOL     OW16837   7.730   7.738   9.187
38335SOL    HW116838   7.790   7.735   9.262
38335SOL    HW216839   7.644   7.720   9.225
38336SOL     OW16840   4.976   0.702   2.954
38336SOL    HW116841   5.052   0.646   2.968
38336SOL    HW216842   4.900   0.644   2.965
38337SOL     OW16843   5.334   9.256  14.594
38337SOL    HW116844   5.409   9.275  14.537
38337SOL    HW216845   5.264   9.313  14.561
38338SOL     OW16846   4.565  12.706   6.749
38338SOL    HW116847   4.599  12.657   6.824
38338SOL    HW216848   4.519  12.641   6.697
38339SOL     OW16849   7.600   9.713  10.782
38339SOL    HW116850   7.622   9.631  10.825
38339SOL    HW216851   7.558   9.687  10.700
38340SOL     OW16852   2.157   6.744   7.657
38340SOL    HW116853   2.102   6.817   7.628
38340SOL    HW216854   2.206   6.779   7.731
38341SOL     OW16855   0.300   0.344  11.850
38341SOL    HW116856   0.235   0.273  11.849
38341SOL    HW216857   0.381   0.303  11.820
38342SOL     OW16858  14.556  10.362   9.577
38342SOL    HW116859  14.485  10.301   9.556
38342SOL    HW216860  14.599  10.378   9.493
38343SOL     OW16861  12.697  12.952  11.424
38343SOL    HW116862  12.611  12.944  11.383
38343SOL    HW216863  12.694  12.893  11.499
38344SOL     OW16864  10.401   6.541  13.665
38344SOL    HW116865  10.327   6.602  13.663
38344SOL    HW216866  10.475   6.592  13.633
38345SOL     OW16867  11.101  11.040  13.841
38345SOL    HW116868  11.127  11.067  13.929
38345SOL    HW216869  11.084  11.122  13.795
38346SOL     OW16870   8.171   2.000   3.419
38346SOL    HW116871   8.111   1.946   3.471
38346SOL    HW216872   8.219   1.937   3.365
38347SOL     OW16873   3.265   6.331  11.948
38347SOL    HW116874   3.325   6.376  11.889
38347SOL    HW216875   3.277   6.238  11.929
38348SOL     OW16876   5.481   5.789   7.900
38348SOL    HW116877   5.428   5.791   7.821
38348SOL    HW216878   5.433   5.842   7.963
38349SOL     OW16879  12.511   8.995   8.101
38349SOL    HW116880  12.514   8.906   8.136
38349SOL    HW216881  12.599   9.011   8.066
38350SOL     OW16882  12.562  10.452   6.078
38350SOL    HW116883  12.581  10.532   6.029
38350SOL    HW216884  12.579  10.381   6.017
38351SOL     OW16885   3.866  14.313  10.036
38351SOL    HW116886   3.781  14.327  10.076
38351SOL    HW216887   3.902  14.401  10.023
38352SOL     OW16888  13.262   1.983  12.406
38352SOL    HW116889  13.341   2.032  12.429
38352SOL    HW216890  13.277   1.955  12.316
38353SOL     OW16891   0.760   9.300   6.916
38353SOL    HW116892   0.813   9.291   6.836
38353SOL    HW216893   0.782   9.388   6.949
38354SOL     OW16894   9.252   7.286   1.776
38354SOL    HW116895   9.201   7.318   1.701
38354SOL    HW216896   9.342   7.286   1.745
38355SOL     OW16897   4.965   2.074   4.344
38355SOL    HW116898   5.007   1.994   4.376
38355SOL    HW216899   4.904   2.098   4.414
38356SOL     OW16900   7.858  12.454  10.859
38356SOL    HW116901   7.871  12.370  10.903
38356SOL    HW216902   7.763  12.463  10.851
38357SOL     OW16903   0.811   8.357   3.895
38357SOL    HW116904   0.802   8.320   3.983
38357SOL    HW216905   0.738   8.419   3.888
38358SOL     OW16906  12.822  13.673  12.025
38358SOL    HW116907  12.859  13.739  11.967
38358SOL    HW216908  12.784  13.608  11.965
38359SOL     OW16909   5.613  13.577   8.324
38359SOL    HW116910   5.684  13.604   8.266
38359SOL    HW216911   5.603  13.484   8.307
38360SOL     OW16912   9.674  13.734   5.214
38360SOL    HW116913   9.690  13.828   5.211
38360SOL    HW216914   9.605  13.720   5.149
38361SOL     OW16915  13.078  10.680   9.053
38361SOL    HW116916  13.082  10.605   8.994
38361SOL    HW216917  13.005  10.733   9.020
38362SOL     OW16918   9.577   1.982  10.850
38362SOL    HW116919   9.533   1.914  10.901
38362SOL    HW216920   9.518   2.057  10.855
38363SOL     OW16921   4.191  10.688  14.773
38363SOL    HW116922   4.113  10.723  14.816
38363SOL    HW216923   4.165  10.602  14.742
38364SOL     OW16924  12.065  12.604   9.607
38364SOL    HW116925  12.094  12.588   9.517
38364SOL    HW216926  12.068  12.699   9.617
38365SOL     OW16927   9.704  14.625  10.984
38365SOL    HW116928   9.698  14.719  11.000
38365SOL    HW216929   9.737  14.589  11.066
38366SOL     OW16930  13.822  11.329   5.800
38366SOL    HW116931  13.780  11.369   5.723
38366SOL    HW216932  13.915  11.341   5.784
38367SOL     OW16933  14.358   9.589   9.382
38367SOL    HW116934  14.430   9.528   9.400
38367SOL    HW216935  14.373   9.616   9.291
38368SOL     OW16936   2.102   3.049   6.015
38368SOL    HW116937   2.072   3.105   6.087
38368SOL    HW216938   2.192   3.027   6.038
38369SOL     OW16939  12.195   7.203   8.540
38369SOL    HW116940  12.193   7.144   8.464
38369SOL    HW216941  12.111   7.190   8.583
38370SOL     OW16942  10.843   4.098   5.142
38370SOL    HW116943  10.853   4.167   5.208
38370SOL    HW216944  10.759   4.057   5.162
38371SOL     OW16945   5.677   9.999  11.744
38371SOL    HW116946   5.599   9.986  11.691
38371SOL    HW216947   5.660   9.950  11.825
38372SOL     OW16948  14.346   7.220   1.038
38372SOL    HW116949  14.307   7.307   1.024
38372SOL    HW216950  14.327   7.172   0.958
38373SOL     OW16951   0.804   5.630   9.042
38373SOL    HW116952   0.816   5.723   9.022
38373SOL    HW216953   0.754   5.596   8.967
38374SOL     OW16954  14.691   0.035  14.154
38374SOL    HW116955  14.673   0.125  14.183
38374SOL    HW216956  14.783   0.038  14.126
38375SOL     OW16957   3.737   2.305   2.330
38375SOL    HW116958   3.720   2.344   2.244
38375SOL    HW216959   3.719   2.212   2.318
38376SOL     OW16960  11.720   4.628   2.822
38376SOL    HW116961  11.705   4.543   2.864
38376SOL    HW216962  11.634   4.655   2.790
38377SOL     OW16963   2.189   5.309   0.461
38377SOL    HW116964   2.228   5.376   0.405
38377SOL    HW216965   2.261   5.251   0.483
38378SOL     OW16966  14.272   4.884   2.166
38378SOL    HW116967  14.241   4.974   2.164
38378SOL    HW216968  14.324   4.874   2.087
38379SOL     OW16969  12.808  10.880  13.245
38379SOL    HW116970  12.819  10.785  13.239
38379SOL    HW216971  12.714  10.895  13.236
38380SOL     OW16972   2.232   2.510   7.943
38380SOL    HW116973   2.286   2.534   7.868
38380SOL    HW216974   2.295   2.497   8.014
38381SOL     OW16975   3.088   9.616   1.653
38381SOL    HW116976   3.101   9.569   1.571
38381SOL    HW216977   3.176   9.645   1.679
38382SOL     OW16978  14.312  13.374   4.235
38382SOL    HW116979  14.370  13.449   4.221
38382SOL    HW216980  14.316  13.326   4.152
38383SOL     OW16981  12.054  13.614   0.112
38383SOL    HW116982  12.089  13.669   0.042
38383SOL    HW216983  12.010  13.676   0.171
38384SOL     OW16984   6.006   9.342   4.272
38384SOL    HW116985   5.960   9.313   4.193
38384SOL    HW216986   6.012   9.437   4.264
38385SOL     OW16987   8.763   8.233   4.577
38385SOL    HW116988   8.772   8.181   4.657
38385SOL    HW216989   8.842   8.286   4.574
38386SOL     OW16990  14.556   6.040   8.855
38386SOL    HW116991  14.631   5.981   8.867
38386SOL    HW216992  14.484   5.997   8.902
38387SOL     OW16993  11.641   4.844   3.667
38387SOL    HW116994  11.652   4.878   3.756
38387SOL    HW216995  11.559   4.882   3.637
38388SOL     OW16996   7.105   6.561   5.382
38388SOL    HW116997   7.169   6.609   5.435
38388SOL    HW216998   7.107   6.605   5.297
38389SOL     OW16999  11.691   4.163  10.677
38389SOL    HW117000  11.649   4.096  10.623
38389SOL    HW217001  11.633   4.239  10.671
38390SOL     OW17002   9.864   9.827   2.175
38390SOL    HW117003   9.828   9.826   2.087
38390SOL    HW217004   9.836   9.910   2.212
38391SOL     OW17005   1.438   9.542  11.974
38391SOL    HW117006   1.426   9.532  11.879
38391SOL    HW217007   1.449   9.637  11.986
38392SOL     OW17008   8.948   3.014   8.573
38392SOL    HW117009   8.958   3.061   8.655
38392SOL    HW217010   8.903   2.933   8.597
38393SOL     OW17011   7.137  12.211   7.791
38393SOL    HW117012   7.102  12.166   7.714
38393SOL    HW217013   7.072  12.279   7.810
38394SOL     OW17014  12.419   0.819  13.895
38394SOL    HW117015  12.500   0.804  13.944
38394SOL    HW217016  12.404   0.736  13.849
38395SOL     OW17017   2.896   3.451   8.528
38395SOL    HW117018   2.849   3.412   8.454
38395SOL    HW217019   2.913   3.378   8.588
38396SOL     OW17020   8.810   5.730  12.362
38396SOL    HW117021   8.748   5.738  12.290
38396SOL    HW217022   8.893   5.706  12.320
38397SOL     OW17023   3.148  12.227   9.579
38397SOL    HW117024   3.166  12.254   9.489
38397SOL    HW217025   3.215  12.271   9.631
38398SOL     OW17026   7.846   6.997   4.503
38398SOL    HW117027   7.890   7.051   4.569
38398SOL    HW217028   7.898   6.916   4.501
38399SOL     OW17029  14.241  12.215   6.449
38399SOL    HW117030  14.233  12.141   6.389
38399SOL    HW217031  14.260  12.175   6.534
38400SOL     OW17032  10.607  14.717   5.487
38400SOL    HW117033  10.564  14.649   5.435
38400SOL    HW217034  10.687  14.675   5.519
38401SOL     OW17035  13.246   1.046   5.459
38401SOL    HW117036  13.151   1.059   5.464
38401SOL    HW217037  13.257   0.977   5.394
38402SOL     OW17038  12.467   3.417   0.103
38402SOL    HW117039  12.438   3.503   0.071
38402SOL    HW217040  12.517   3.437   0.182
38403SOL     OW17041   3.591   3.945  14.873
38403SOL    HW117042   3.607   4.022  14.818
38403SOL    HW217043   3.623   3.971   0.087
38404SOL     OW17044   5.915  14.131   0.571
38404SOL    HW117045   5.862  14.054   0.549
38404SOL    HW217046   5.861  14.205   0.544
38405SOL     OW17047   2.733   9.535   2.844
38405SOL    HW117048   2.701   9.445   2.833
38405SOL    HW217049   2.660   9.581   2.886
38406SOL     OW17050   4.120   2.148   4.466
38406SOL    HW117051   4.074   2.123   4.386
38406SOL    HW217052   4.083   2.233   4.490
38407SOL     OW17053  11.691   4.289   9.410
38407SOL    HW117054  11.657   4.368   9.452
38407SOL    HW217055  11.771   4.269   9.458
38408SOL     OW17056  14.484  13.859   9.534
38408SOL    HW117057  14.478  13.944   9.576
38408SOL    HW217058  14.490  13.879   9.440
38409SOL     OW17059  11.984   3.983  10.060
38409SOL    HW117060  12.064   4.035  10.053
38409SOL    HW217061  12.014   3.892  10.057
38410SOL     OW17062   0.373  12.716   8.988
38410SOL    HW117063   0.292  12.668   8.972
38410SOL    HW217064   0.359  12.760   9.071
38411SOL     OW17065  12.671  12.475   6.642
38411SOL    HW117066  12.669  12.528   6.562
38411SOL    HW217067  12.764  12.451   6.652
38412SOL     OW17068   5.089   3.727  13.597
38412SOL    HW117069   5.094   3.652  13.656
38412SOL    HW217070   5.109   3.802  13.653
38413SOL     OW17071   3.850   9.941   0.252
38413SOL    HW117072   3.831   9.883   0.178
38413SOL    HW217073   3.768   9.945   0.301
38414SOL     OW17074   7.593  10.476   4.236
38414SOL    HW117075   7.529  10.419   4.278
38414SOL    HW217076   7.545  10.558   4.220
38415SOL     OW17077   3.496  10.077   0.982
38415SOL    HW117078   3.411  10.081   0.939
38415SOL    HW217079   3.493   9.996   1.033
38416SOL     OW17080  12.659   1.496   3.884
38416SOL    HW117081  12.575   1.485   3.929
38416SOL    HW217082  12.694   1.578   3.919
38417SOL     OW17083  10.725   6.615   4.744
38417SOL    HW117084  10.690   6.666   4.817
38417SOL    HW217085  10.669   6.537   4.739
38418SOL     OW17086  12.132  11.636   3.276
38418SOL    HW117087  12.159  11.723   3.248
38418SOL    HW217088  12.094  11.596   3.197
38419SOL     OW17089  14.669   8.008   7.656
38419SOL    HW117090  14.609   7.966   7.595
38419SOL    HW217091  14.691   7.939   7.719
38420SOL     OW17092   7.704   2.931   4.771
38420SOL    HW117093   7.669   2.960   4.687
38420SOL    HW217094   7.628   2.905   4.822
38421SOL     OW17095   6.487  13.599   5.510
38421SOL    HW117096   6.498  13.694   5.520
38421SOL    HW217097   6.396  13.589   5.481
38422SOL     OW17098   9.803  11.760   4.034
38422SOL    HW117099   9.796  11.773   3.940
38422SOL    HW217100   9.888  11.798   4.058
38423SOL     OW17101  13.422   7.468  11.339
38423SOL    HW117102  13.334   7.492  11.312
38423SOL    HW217103  13.433   7.378  11.308
38424SOL     OW17104   7.116   0.517  11.220
38424SOL    HW117105   7.175   0.442  11.207
38424SOL    HW217106   7.030   0.483  11.195
38425SOL     OW17107   0.963   3.357   9.528
38425SOL    HW117108   0.894   3.354   9.462
38425SOL    HW217109   1.043   3.332   9.481
38426SOL     OW17110   6.602   1.280   6.551
38426SOL    HW117111   6.535   1.277   6.619
38426SOL    HW217112   6.675   1.327   6.591
38427SOL     OW17113  14.498  13.998   4.040
38427SOL    HW117114  14.534  13.930   4.097
38427SOL    HW217115  14.411  14.015   4.075
38428SOL     OW17116   7.125   3.170  11.013
38428SOL    HW117117   7.205   3.126  10.984
38428SOL    HW217118   7.080   3.104  11.067
38429SOL     OW17119  13.809  14.770   4.810
38429SOL    HW117120  13.741  14.720   4.855
38429SOL    HW217121  13.783  14.861   4.818
38430SOL     OW17122   2.144  13.419   9.928
38430SOL    HW117123   2.086  13.477   9.978
38430SOL    HW217124   2.163  13.468   9.848
38431SOL     OW17125  13.499   3.038   4.011
38431SOL    HW117126  13.447   3.079   3.942
38431SOL    HW217127  13.473   2.946   4.010
38432SOL     OW17128   1.689   6.746   5.896
38432SOL    HW117129   1.608   6.699   5.877
38432SOL    HW217130   1.720   6.710   5.979
38433SOL     OW17131  12.537   2.739   2.015
38433SOL    HW117132  12.480   2.711   2.086
38433SOL    HW217133  12.624   2.707   2.039
38434SOL     OW17134  10.688  12.067  12.647
38434SOL    HW117135  10.643  12.117  12.715
38434SOL    HW217136  10.664  11.976  12.665
38435SOL     OW17137   0.357   5.755  12.536
38435SOL    HW117138   0.428   5.757  12.471
38435SOL    HW217139   0.376   5.829  12.594
38436SOL     OW17140   6.583   9.517   2.284
38436SOL    HW117141   6.574   9.609   2.259
38436SOL    HW217142   6.643   9.518   2.358
38437SOL     OW17143   4.721   8.294   9.557
38437SOL    HW117144   4.689   8.373   9.600
38437SOL    HW217145   4.693   8.222   9.613
38438SOL     OW17146   8.888  12.899  10.426
38438SOL    HW117147   8.896  12.904  10.522
38438SOL    HW217148   8.946  12.828  10.401
38439SOL     OW17149   8.043   2.456   1.131
38439SOL    HW117150   8.089   2.375   1.108
38439SOL    HW217151   7.978   2.429   1.196
38440SOL     OW17152   2.865   0.690  11.778
38440SOL    HW117153   2.815   0.771  11.778
38440SOL    HW217154   2.957   0.718  11.784
38441SOL     OW17155   8.002  13.330  10.817
38441SOL    HW117156   8.085  13.371  10.842
38441SOL    HW217157   7.938  13.369  10.877
38442SOL     OW17158   8.487   9.627   7.583
38442SOL    HW117159   8.506   9.573   7.660
38442SOL    HW217160   8.410   9.586   7.544
38443SOL     OW17161   8.276   9.917   0.505
38443SOL    HW117162   8.309   9.873   0.584
38443SOL    HW217163   8.233   9.996   0.539
38444SOL     OW17164  12.252  10.902   0.688
38444SOL    HW117165  12.235  10.988   0.725
38444SOL    HW217166  12.348  10.896   0.683
38445SOL     OW17167  14.476   3.236   4.016
38445SOL    HW117168  14.419   3.284   3.956
38445SOL    HW217169  14.557   3.222   3.967
38446SOL     OW17170   1.472  12.883  12.171
38446SOL    HW117171   1.517  12.947  12.227
38446SOL    HW217172   1.473  12.802  12.222
38447SOL     OW17173  10.496   1.540   3.130
38447SOL    HW117174  10.524   1.483   3.059
38447SOL    HW217175  10.563   1.531   3.197
38448SOL     OW17176   8.811   8.044  13.381
38448SOL    HW117177   8.796   8.098  13.303
38448SOL    HW217178   8.820   7.955  13.348
38449SOL     OW17179  14.362   2.277  11.238
38449SOL    HW117180  14.390   2.349  11.181
38449SOL    HW217181  14.324   2.320  11.315
38450SOL     OW17182  10.293   4.025   4.339
38450SOL    HW117183  10.294   3.939   4.296
38450SOL    HW217184  10.249   4.009   4.423
38451SOL     OW17185   7.501   4.380   0.673
38451SOL    HW117186   7.541   4.380   0.586
38451SOL    HW217187   7.561   4.433   0.726
38452SOL     OW17188   6.353   8.171   0.758
38452SOL    HW117189   6.290   8.100   0.767
38452SOL    HW217190   6.425   8.134   0.706
38453SOL     OW17191   0.749  11.733   3.859
38453SOL    HW117192   0.768  11.646   3.824
38453SOL    HW217193   0.707  11.717   3.944
38454SOL     OW17194   3.461   0.561  12.403
38454SOL    HW117195   3.493   0.471  12.407
38454SOL    HW217196   3.369   0.555  12.430
38455SOL     OW17197  10.337   2.271   1.177
38455SOL    HW117198  10.406   2.215   1.142
38455SOL    HW217199  10.269   2.210   1.207
38456SOL     OW17200   0.734   1.384   9.906
38456SOL    HW117201   0.696   1.471   9.894
38456SOL    HW217202   0.780   1.366   9.824
38457SOL     OW17203   4.636   4.641   8.134
38457SOL    HW117204   4.691   4.660   8.058
38457SOL    HW217205   4.594   4.724   8.156
38458SOL     OW17206   9.563  12.389  14.327
38458SOL    HW117207   9.521  12.305  14.346
38458SOL    HW217208   9.656  12.372  14.340
38459SOL     OW17209   7.950   2.033   0.724
38459SOL    HW117210   7.989   2.079   0.650
38459SOL    HW217211   7.974   1.941   0.711
38460SOL     OW17212   7.042   3.857  10.614
38460SOL    HW117213   7.103   3.917  10.571
38460SOL    HW217214   7.041   3.779  10.558
38461SOL     OW17215   1.882   8.213   2.124
38461SOL    HW117216   1.954   8.221   2.187
38461SOL    HW217217   1.827   8.144   2.160
38462SOL     OW17218   4.729  14.334  12.034
38462SOL    HW117219   4.732  14.424  12.069
38462SOL    HW217220   4.641  14.326  11.997
38463SOL     OW17221   4.490  13.615   0.038
38463SOL    HW117222   4.432  13.573   0.102
38463SOL    HW217223   4.434  13.677  14.864
38464SOL     OW17224   2.406   5.227   6.106
38464SOL    HW117225   2.385   5.307   6.056
38464SOL    HW217226   2.344   5.162   6.073
38465SOL     OW17227  12.641   1.273   5.783
38465SOL    HW117228  12.721   1.326   5.792
38465SOL    HW217229  12.570   1.332   5.810
38466SOL     OW17230   1.669  11.262   4.267
38466SOL    HW117231   1.625  11.179   4.250
38466SOL    HW217232   1.659  11.276   4.361
38467SOL     OW17233   1.076   1.333   8.778
38467SOL    HW117234   1.151   1.311   8.834
38467SOL    HW217235   1.114   1.384   8.706
38468SOL     OW17236   6.914   1.163  12.416
38468SOL    HW117237   6.941   1.081  12.374
38468SOL    HW217238   6.982   1.178  12.483
38469SOL     OW17239   1.882   9.332   7.806
38469SOL    HW117240   1.904   9.422   7.828
38469SOL    HW217241   1.859   9.292   7.889
38470SOL     OW17242   5.089  10.745   0.354
38470SOL    HW117243   5.087  10.718   0.262
38470SOL    HW217244   5.011  10.706   0.393
38471SOL     OW17245  10.190  10.705  11.780
38471SOL    HW117246  10.155  10.747  11.701
38471SOL    HW217247  10.219  10.778  11.835
38472SOL     OW17248  12.301   0.001  13.040
38472SOL    HW117249  12.372   0.057  13.010
38472SOL    HW217250  12.345  14.803  13.087
38473SOL     OW17251  14.166   9.999  13.790
38473SOL    HW117252  14.072  10.014  13.805
38473SOL    HW217253  14.210  10.062  13.847
38474SOL     OW17254   8.975   1.442   8.292
38474SOL    HW117255   8.917   1.434   8.367
38474SOL    HW217256   9.051   1.389   8.314
38475SOL     OW17257   6.960   3.504   3.488
38475SOL    HW117258   6.887   3.479   3.545
38475SOL    HW217259   6.996   3.583   3.530
38476SOL     OW17260   9.051  10.853  12.720
38476SOL    HW117261   8.980  10.918  12.720
38476SOL    HW217262   9.119  10.891  12.775
38477SOL     OW17263   7.775   4.506  10.331
38477SOL    HW117264   7.709   4.439  10.350
38477SOL    HW217265   7.783   4.555  10.413
38478SOL     OW17266  10.271   6.549   3.374
38478SOL    HW117267  10.319   6.610   3.430
38478SOL    HW217268  10.183   6.586   3.369
38479SOL     OW17269   3.549   0.711  10.868
38479SOL    HW117270   3.533   0.647  10.938
38479SOL    HW217271   3.477   0.774  10.877
38480SOL     OW17272  11.190  10.487   4.257
38480SOL    HW117273  11.134  10.468   4.332
38480SOL    HW217274  11.156  10.433   4.186
38481SOL     OW17275   4.658   1.066  12.764
38481SOL    HW117276   4.636   1.072  12.857
38481SOL    HW217277   4.606   1.135  12.723
38482SOL     OW17278   1.759   7.389   4.673
38482SOL    HW117279   1.723   7.472   4.643
38482SOL    HW217280   1.761   7.333   4.595
38483SOL     OW17281  12.782  12.076   5.679
38483SOL    HW117282  12.723  12.066   5.754
38483SOL    HW217283  12.723  12.080   5.603
38484SOL     OW17284   4.673   5.103  11.662
38484SOL    HW117285   4.614   5.153  11.719
38484SOL    HW217286   4.738   5.066  11.721
38485SOL     OW17287   3.531   0.066   8.194
38485SOL    HW117288   3.532   0.073   8.290
38485SOL    HW217289   3.570   0.148   8.164
38486SOL     OW17290  11.270   1.446  14.503
38486SOL    HW117291  11.260   1.355  14.531
38486SOL    HW217292  11.194   1.463  14.448
38487SOL     OW17293   0.048   5.306  10.089
38487SOL    HW117294  14.863   5.266  10.024
38487SOL    HW217295   0.082   5.232  10.140
38488SOL     OW17296   1.623   6.863   7.171
38488SOL    HW117297   1.641   6.780   7.215
38488SOL    HW217298   1.687   6.924   7.207
38489SOL     OW17299   1.673  10.253  13.581
38489SOL    HW117300   1.766  10.272  13.594
38489SOL    HW217301   1.637  10.244  13.669
38490SOL     OW17302   1.231   3.385   2.863
38490SOL    HW117303   1.255   3.369   2.772
38490SOL    HW217304   1.304   3.436   2.898
38491SOL     OW17305  13.431   0.998   5.078
38491SOL    HW117306  13.397   1.046   5.153
38491SOL    HW217307  13.360   0.999   5.014
38492SOL     OW17308   6.368   1.033   3.259
38492SOL    HW117309   6.320   0.953   3.238
38492SOL    HW217310   6.352   1.090   3.183
38493SOL     OW17311   6.741  11.659   6.612
38493SOL    HW117312   6.811  11.682   6.551
38493SOL    HW217313   6.767  11.698   6.695
38494SOL     OW17314  10.854   7.758  12.938
38494SOL    HW117315  10.822   7.711  12.861
38494SOL    HW217316  10.802   7.839  12.940
38495SOL     OW17317   1.331  14.510   9.535
38495SOL    HW117318   1.244  14.487   9.504
38495SOL    HW217319   1.366  14.568   9.468
38496SOL     OW17320   0.325   2.839  11.511
38496SOL    HW117321   0.413   2.820  11.478
38496SOL    HW217322   0.273   2.762  11.489
38497SOL     OW17323   7.871  13.094   5.467
38497SOL    HW117324   7.870  13.073   5.561
38497SOL    HW217325   7.779  13.106   5.444
38498SOL     OW17326   3.257   5.257   2.700
38498SOL    HW117327   3.330   5.278   2.641
38498SOL    HW217328   3.179   5.287   2.653
38499SOL     OW17329  13.064   0.580   9.801
38499SOL    HW117330  13.090   0.498   9.843
38499SOL    HW217331  12.988   0.610   9.850
38500SOL     OW17332  11.449   4.378  14.603
38500SOL    HW117333  11.538   4.376  14.567
38500SOL    HW217334  11.393   4.387  14.526
38501SOL     OW17335  14.657   3.947   8.390
38501SOL    HW117336  14.622   3.945   8.300
38501SOL    HW217337  14.668   3.855   8.413
38502SOL     OW17338   6.183   7.161   6.348
38502SOL    HW117339   6.089   7.169   6.365
38502SOL    HW217340   6.223   7.159   6.435
38503SOL     OW17341   8.862  13.873   3.449
38503SOL    HW117342   8.842  13.951   3.399
38503SOL    HW217343   8.791  13.812   3.429
38504SOL     OW17344   1.916  11.162  10.557
38504SOL    HW117345   1.951  11.210  10.631
38504SOL    HW217346   1.890  11.230  10.494
38505SOL     OW17347  12.360  10.219  12.223
38505SOL    HW117348  12.290  10.266  12.178
38505SOL    HW217349  12.328  10.129  12.230
38506SOL     OW17350   3.535   2.940   1.903
38506SOL    HW117351   3.457   2.986   1.934
38506SOL    HW217352   3.503   2.883   1.833
38507SOL     OW17353   4.364  14.395  12.709
38507SOL    HW117354   4.348  14.399  12.614
38507SOL    HW217355   4.399  14.481  12.731
38508SOL     OW17356  13.881   4.866   6.860
38508SOL    HW117357  13.836   4.792   6.819
38508SOL    HW217358  13.974   4.844   6.854
38509SOL     OW17359  14.633   7.989   2.460
38509SOL    HW117360  14.726   7.974   2.479
38509SOL    HW217361  14.597   7.901   2.447
38510SOL     OW17362   5.534  13.705   1.835
38510SOL    HW117363   5.600  13.770   1.810
38510SOL    HW217364   5.544  13.696   1.929
38511SOL     OW17365   8.104   4.691   1.801
38511SOL    HW117366   8.076   4.618   1.857
38511SOL    HW217367   8.199   4.696   1.814
38512SOL     OW17368   0.609  11.418   5.301
38512SOL    HW117369   0.590  11.330   5.332
38512SOL    HW217370   0.577  11.420   5.211
38513SOL     OW17371  14.108  12.631  11.239
38513SOL    HW117372  14.027  12.580  11.240
38513SOL    HW217373  14.090  12.705  11.297
38514SOL     OW17374   2.784  10.308  13.153
38514SOL    HW117375   2.877  10.315  13.177
38514SOL    HW217376   2.738  10.313  13.237
38515SOL     OW17377  13.418   6.897   6.066
38515SOL    HW117378  13.361   6.966   6.098
38515SOL    HW217379  13.463   6.864   6.144
38516SOL     OW17380   9.379   1.593   2.205
38516SOL    HW117381   9.377   1.499   2.225
38516SOL    HW217382   9.305   1.607   2.146
38517SOL     OW17383   9.007   8.495   9.809
38517SOL    HW117384   9.061   8.533   9.739
38517SOL    HW217385   9.024   8.401   9.804
38518SOL     OW17386   0.857   0.470   6.086
38518SOL    HW117387   0.847   0.546   6.144
38518SOL    HW217388   0.823   0.396   6.136
38519SOL     OW17389   8.305   0.307  11.212
38519SOL    HW117390   8.320   0.225  11.165
38519SOL    HW217391   8.245   0.283  11.283
38520SOL     OW17392   5.353   5.835   8.782
38520SOL    HW117393   5.439   5.862   8.750
38520SOL    HW217394   5.299   5.914   8.776
38521SOL     OW17395   3.676  10.816  10.250
38521SOL    HW117396   3.710  10.804  10.338
38521SOL    HW217397   3.660  10.728  10.218
38522SOL     OW17398  12.215  12.073  13.128
38522SOL    HW117399  12.243  12.105  13.214
38522SOL    HW217400  12.144  12.131  13.102
38523SOL     OW17401  11.827   8.958  12.900
38523SOL    HW117402  11.877   8.879  12.921
38523SOL    HW217403  11.890   9.030  12.908
38524SOL     OW17404   9.812   0.253   1.312
38524SOL    HW117405   9.725   0.284   1.285
38524SOL    HW217406   9.873   0.308   1.262
38525SOL     OW17407  11.408   8.038  13.742
38525SOL    HW117408  11.496   8.073  13.732
38525SOL    HW217409  11.418   7.964  13.802
38526SOL     OW17410   6.682   0.749   0.337
38526SOL    HW117411   6.744   0.802   0.388
38526SOL    HW217412   6.596   0.776   0.369
38527SOL     OW17413   2.956   4.061   0.408
38527SOL    HW117414   2.969   3.999   0.336
38527SOL    HW217415   2.872   4.102   0.388
38528SOL     OW17416   8.555  12.084  10.196
38528SOL    HW117417   8.632  12.036  10.226
38528SOL    HW217418   8.565  12.171  10.233
38529SOL     OW17419   7.907   5.959   3.908
38529SOL    HW117420   7.939   5.880   3.866
38529SOL    HW217421   7.938   6.030   3.852
38530SOL     OW17422   3.109   9.755   1.198
38530SOL    HW117423   3.189   9.703   1.203
38530SOL    HW217424   3.099   9.792   1.286
38531SOL     OW17425  14.435   7.108   9.361
38531SOL    HW117426  14.357   7.069   9.320
38531SOL    HW217427  14.466   7.173   9.298
38532SOL     OW17428   8.507   1.647   4.677
38532SOL    HW117429   8.435   1.710   4.668
38532SOL    HW217430   8.476   1.569   4.630
38533SOL     OW17431   8.723   5.641   5.049
38533SOL    HW117432   8.714   5.725   5.093
38533SOL    HW217433   8.770   5.586   5.112
38534SOL     OW17434   8.058   0.377   4.122
38534SOL    HW117435   8.029   0.289   4.147
38534SOL    HW217436   8.153   0.371   4.119
38535SOL     OW17437   7.848   1.729  13.131
38535SOL    HW117438   7.802   1.812  13.121
38535SOL    HW217439   7.807   1.687  13.207
38536SOL     OW17440   9.674   6.124   7.538
38536SOL    HW117441   9.607   6.155   7.477
38536SOL    HW217442   9.625   6.082   7.608
38537SOL     OW17443  13.453   6.223  12.206
38537SOL    HW117444  13.496   6.285  12.147
38537SOL    HW217445  13.372   6.200  12.161
38538SOL     OW17446   5.375   9.348  14.242
38538SOL    HW117447   5.283   9.334  14.262
38538SOL    HW217448   5.379   9.348  14.146
38539SOL     OW17449  14.050   7.159   3.502
38539SOL    HW117450  13.957   7.156   3.477
38539SOL    HW217451  14.096   7.179   3.421
38540SOL     OW17452   0.937  13.078  12.000
38540SOL    HW117453   0.872  13.082  11.930
38540SOL    HW217454   0.898  13.021  12.067
38541SOL     OW17455   1.086   6.372   8.626
38541SOL    HW117456   1.081   6.282   8.659
38541SOL    HW217457   1.173   6.378   8.588
38542SOL     OW17458  12.250  11.805   8.492
38542SOL    HW117459  12.213  11.893   8.498
38542SOL    HW217460  12.184  11.749   8.533
38543SOL     OW17461   9.302  10.841   0.186
38543SOL    HW117462   9.271  10.752   0.202
38543SOL    HW217463   9.240  10.877   0.123
38544SOL     OW17464   8.414  12.813  13.498
38544SOL    HW117465   8.505  12.839  13.488
38544SOL    HW217466   8.371  12.889  13.536
38545SOL     OW17467   5.982   7.126  13.943
38545SOL    HW117468   6.064   7.135  13.992
38545SOL    HW217469   5.970   7.210  13.900
38546SOL     OW17470  11.598   5.098   1.985
38546SOL    HW117471  11.514   5.052   1.977
38546SOL    HW217472  11.583   5.182   1.940
38547SOL     OW17473  12.317   9.227  14.224
38547SOL    HW117474  12.227   9.239  14.193
38547SOL    HW217475  12.309   9.221  14.319
38548SOL     OW17476   8.071  10.287  14.154
38548SOL    HW117477   8.020  10.298  14.234
38548SOL    HW217478   8.010  10.307  14.083
38549SOL     OW17479  12.182   7.860   3.994
38549SOL    HW117480  12.089   7.846   3.975
38549SOL    HW217481  12.196   7.820   4.079
38550SOL     OW17482   4.486   6.901   1.066
38550SOL    HW117483   4.581   6.907   1.070
38550SOL    HW217484   4.458   6.987   1.035
38551SOL     OW17485   3.309   6.145   9.843
38551SOL    HW117486   3.350   6.138   9.756
38551SOL    HW217487   3.383   6.158   9.903
38552SOL     OW17488  11.880   5.476  11.250
38552SOL    HW117489  11.909   5.447  11.337
38552SOL    HW217490  11.948   5.536  11.221
38553SOL     OW17491   8.553   2.604   0.099
38553SOL    HW117492   8.562   2.581   0.191
38553SOL    HW217493   8.518   2.525   0.058
38554SOL     OW17494   2.581   9.312  12.164
38554SOL    HW117495   2.538   9.385  12.209
38554SOL    HW217496   2.574   9.333  12.071
38555SOL     OW17497   5.696   0.665   4.166
38555SOL    HW117498   5.701   0.740   4.107
38555SOL    HW217499   5.640   0.694   4.238
38556SOL     OW17500  14.685   0.591  10.800
38556SOL    HW117501  14.780   0.580  10.798
38556SOL    HW217502  14.672   0.686  10.801
38557SOL     OW17503   3.090  11.972  14.391
38557SOL    HW117504   3.111  11.883  14.362
38557SOL    HW217505   3.018  11.961  14.452
38558SOL     OW17506  14.603   1.870   0.422
38558SOL    HW117507  14.694   1.897   0.406
38558SOL    HW217508  14.598   1.781   0.388
38559SOL     OW17509  13.274  13.535   6.503
38559SOL    HW117510  13.299  13.477   6.431
38559SOL    HW217511  13.256  13.475   6.576
38560SOL     OW17512   2.840  13.481  13.205
38560SOL    HW117513   2.849  13.576  13.192
38560SOL    HW217514   2.750  13.462  13.178
38561SOL     OW17515   2.393   0.231   5.056
38561SOL    HW117516   2.396   0.137   5.034
38561SOL    HW217517   2.478   0.249   5.096
38562SOL     OW17518   5.039   6.169   5.564
38562SOL    HW117519   5.126   6.177   5.602
38562SOL    HW217520   5.017   6.076   5.574
38563SOL     OW17521  14.245   1.204   5.977
38563SOL    HW117522  14.254   1.113   5.949
38563SOL    HW217523  14.174   1.239   5.923
38564SOL     OW17524   5.648   1.009  12.006
38564SOL    HW117525   5.651   1.029  12.099
38564SOL    HW217526   5.571   0.952  11.997
38565SOL     OW17527   4.963   6.405   9.168
38565SOL    HW117528   4.937   6.458   9.092
38565SOL    HW217529   5.019   6.337   9.132
38566SOL     OW17530  13.807   3.101   5.267
38566SOL    HW117531  13.767   3.107   5.180
38566SOL    HW217532  13.789   3.186   5.307
38567SOL     OW17533   1.402   1.090  14.033
38567SOL    HW117534   1.377   1.008  14.075
38567SOL    HW217535   1.495   1.080  14.013
38568SOL     OW17536   6.251  14.028  12.141
38568SOL    HW117537   6.289  14.064  12.061
38568SOL    HW217538   6.298  13.946  12.155
38569SOL     OW17539   4.459   0.494  11.558
38569SOL    HW117540   4.448   0.402  11.581
38569SOL    HW217541   4.545   0.517  11.593
38570SOL     OW17542  10.684  13.162   6.624
38570SOL    HW117543  10.701  13.254   6.606
38570SOL    HW217544  10.621  13.136   6.556
38571SOL     OW17545   1.893   4.836   0.074
38571SOL    HW117546   1.937   4.916   0.045
38571SOL    HW217547   1.804   4.845   0.040
38572SOL     OW17548  14.499   0.491   7.319
38572SOL    HW117549  14.532   0.576   7.347
38572SOL    HW217550  14.518   0.488   7.225
38573SOL     OW17551  14.692  10.427   9.358
38573SOL    HW117552  14.661  10.514   9.334
38573SOL    HW217553  14.681  10.375   9.278
38574SOL     OW17554   7.580   2.771   7.819
38574SOL    HW117555   7.574   2.850   7.874
38574SOL    HW217556   7.570   2.803   7.730
38575SOL     OW17557  12.037   5.599  14.752
38575SOL    HW117558  11.984   5.615  14.673
38575SOL    HW217559  12.021   5.675  14.808
38576SOL     OW17560  10.671  11.792   6.060
38576SOL    HW117561  10.605  11.818   6.124
38576SOL    HW217562  10.693  11.873   6.013
38577SOL     OW17563  10.859   8.525   9.864
38577SOL    HW117564  10.860   8.444   9.813
38577SOL    HW217565  10.937   8.571   9.837
38578SOL     OW17566  10.113   3.059   9.930
38578SOL    HW117567  10.073   3.083   9.846
38578SOL    HW217568  10.169   2.984   9.909
38579SOL     OW17569   7.346   6.684  10.605
38579SOL    HW117570   7.440   6.704  10.609
38579SOL    HW217571   7.339   6.597  10.644
38580SOL     OW17572   1.245   2.724  11.281
38580SOL    HW117573   1.203   2.774  11.352
38580SOL    HW217574   1.330   2.699  11.316
38581SOL     OW17575   7.363   5.449   0.164
38581SOL    HW117576   7.437   5.409   0.119
38581SOL    HW217577   7.294   5.452   0.099
38582SOL     OW17578  11.660  14.647   9.399
38582SOL    HW117579  11.746  14.669   9.365
38582SOL    HW217580  11.660  14.680   9.489
38583SOL     OW17581   5.101   8.022   7.466
38583SOL    HW117582   5.154   8.098   7.491
38583SOL    HW217583   5.019   8.059   7.433
38584SOL     OW17584  13.514   8.426  14.827
38584SOL    HW117585  13.440   8.487  14.821
38584SOL    HW217586  13.474   8.342  14.847
38585SOL     OW17587   4.639  10.784  14.777
38585SOL    HW117588   4.669  10.716  14.716
38585SOL    HW217589   4.551  10.805  14.747
38586SOL     OW17590  10.484   9.992   2.714
38586SOL    HW117591  10.411   9.950   2.668
38586SOL    HW217592  10.539   9.920   2.743
38587SOL     OW17593   9.456   2.185   1.889
38587SOL    HW117594   9.537   2.187   1.838
38587SOL    HW217595   9.420   2.097   1.874
38588SOL     OW17596  12.653   6.218   0.110
38588SOL    HW117597  12.685   6.128   0.109
38588SOL    HW217598  12.621   6.234   0.022
38589SOL     OW17599   3.145   3.195  14.620
38589SOL    HW117600   3.152   3.100  14.610
38589SOL    HW217601   3.219   3.218  14.676
38590SOL     OW17602   1.436   8.421  11.873
38590SOL    HW117603   1.459   8.484  11.804
38590SOL    HW217604   1.429   8.337  11.828
38591SOL     OW17605   9.866  10.794   1.176
38591SOL    HW117606   9.859  10.889   1.175
38591SOL    HW217607   9.953  10.776   1.140
38592SOL     OW17608  11.494   5.279   6.447
38592SOL    HW117609  11.460   5.224   6.377
38592SOL    HW217610  11.416   5.304   6.497
38593SOL     OW17611   3.463   0.323  10.324
38593SOL    HW117612   3.537   0.350  10.270
38593SOL    HW217613   3.390   0.377  10.294
38594SOL     OW17614  14.332   7.215   9.982
38594SOL    HW117615  14.424   7.231   9.965
38594SOL    HW217616  14.312   7.267  10.060
38595SOL     OW17617   1.823  13.375   8.310
38595SOL    HW117618   1.911  13.364   8.347
38595SOL    HW217619   1.834  13.355   8.217
38596SOL     OW17620   0.902   6.974  13.890
38596SOL    HW117621   0.986   7.001  13.925
38596SOL    HW217622   0.841   6.985  13.963
38597SOL     OW17623   1.090   5.798  11.204
38597SOL    HW117624   1.186   5.805  11.210
38597SOL    HW217625   1.075   5.744  11.127
38598SOL     OW17626   9.812   3.238   3.716
38598SOL    HW117627   9.778   3.206   3.633
38598SOL    HW217628   9.778   3.326   3.725
38599SOL     OW17629  12.430   0.794  12.162
38599SOL    HW117630  12.457   0.769  12.074
38599SOL    HW217631  12.497   0.856  12.191
38600SOL     OW17632   1.592   4.229  13.352
38600SOL    HW117633   1.501   4.257  13.344
38600SOL    HW217634   1.609   4.233  13.446
38601SOL     OW17635  10.323   6.386  10.621
38601SOL    HW117636  10.312   6.318  10.555
38601SOL    HW217637  10.260   6.363  10.690
38602SOL     OW17638   8.140  11.983   5.228
38602SOL    HW117639   8.116  12.015   5.315
38602SOL    HW217640   8.061  11.996   5.176
38603SOL     OW17641  10.404   7.071  10.070
38603SOL    HW117642  10.322   7.025  10.086
38603SOL    HW217643  10.431   7.105  10.155
38604SOL     OW17644   7.060   3.682   5.019
38604SOL    HW117645   7.148   3.677   5.058
38604SOL    HW217646   7.065   3.756   4.959
38605SOL     OW17647   9.923   2.587   2.679
38605SOL    HW117648   9.863   2.527   2.723
38605SOL    HW217649   9.990   2.531   2.642
38606SOL     OW17650   7.210   3.919  10.845
38606SOL    HW117651   7.165   3.888  10.766
38606SOL    HW217652   7.211   4.014  10.836
38607SOL     OW17653  10.867   2.738   1.136
38607SOL    HW117654  10.844   2.823   1.099
38607SOL    HW217655  10.785   2.690   1.138
38608SOL     OW17656   1.606  12.025   3.794
38608SOL    HW117657   1.696  11.995   3.784
38608SOL    HW217658   1.591  12.024   3.888
38609SOL     OW17659   8.769   9.006   8.359
38609SOL    HW117660   8.759   8.987   8.452
38609SOL    HW217661   8.787   8.922   8.318
38610SOL     OW17662   4.319   3.736   5.458
38610SOL    HW117663   4.367   3.758   5.538
38610SOL    HW217664   4.378   3.763   5.387
38611SOL     OW17665   2.377  10.923   2.199
38611SOL    HW117666   2.295  10.973   2.204
38611SOL    HW217667   2.439  10.973   2.251
38612SOL     OW17668  11.580   5.242   8.568
38612SOL    HW117669  11.627   5.302   8.626
38612SOL    HW217670  11.646   5.177   8.542
38613SOL     OW17671  14.386  11.257   4.357
38613SOL    HW117672  14.304  11.211   4.373
38613SOL    HW217673  14.415  11.286   4.444
38614SOL     OW17674  11.041   9.671   2.595
38614SOL    HW117675  11.027   9.736   2.526
38614SOL    HW217676  11.100   9.715   2.657
38615SOL     OW17677   1.382   5.112   0.809
38615SOL    HW117678   1.390   5.193   0.758
38615SOL    HW217679   1.309   5.128   0.868
38616SOL     OW17680   1.926   6.005   5.287
38616SOL    HW117681   1.990   5.982   5.355
38616SOL    HW217682   1.873   6.074   5.327
38617SOL     OW17683  11.922  10.881  12.147
38617SOL    HW117684  12.008  10.919  12.166
38617SOL    HW217685  11.870  10.897  12.226
38618SOL     OW17686   0.884   3.534   2.884
38618SOL    HW117687   0.826   3.481   2.829
38618SOL    HW217688   0.930   3.591   2.822
38619SOL     OW17689   6.056  11.463   4.566
38619SOL    HW117690   5.965  11.487   4.550
38619SOL    HW217691   6.105  11.504   4.495
38620SOL     OW17692   8.187  11.670  12.524
38620SOL    HW117693   8.173  11.601  12.589
38620SOL    HW217694   8.197  11.622  12.441
38621SOL     OW17695   2.958   0.901   5.674
38621SOL    HW117696   2.884   0.922   5.731
38621SOL    HW217697   2.929   0.927   5.587
38622SOL     OW17698   8.734   8.479  10.006
38622SOL    HW117699   8.687   8.396  10.015
38622SOL    HW217700   8.806   8.473  10.069
38623SOL     OW17701   1.720   0.615   9.871
38623SOL    HW117702   1.700   0.709   9.865
38623SOL    HW217703   1.664   0.575   9.804
38624SOL     OW17704   9.465  14.359   7.402
38624SOL    HW117705   9.438  14.431   7.459
38624SOL    HW217706   9.391  14.299   7.401
38625SOL     OW17707   6.639  10.299   1.607
38625SOL    HW117708   6.731  10.322   1.616
38625SOL    HW217709   6.592  10.365   1.657
38626SOL     OW17710  13.331   2.095  14.337
38626SOL    HW117711  13.322   2.169  14.398
38626SOL    HW217712  13.304   2.019  14.387
38627SOL     OW17713   1.303   1.035   8.236
38627SOL    HW117714   1.339   0.966   8.180
38627SOL    HW217715   1.215   1.051   8.201
38628SOL     OW17716   6.816   9.539  11.746
38628SOL    HW117717   6.800   9.633  11.732
38628SOL    HW217718   6.911   9.534  11.758
38629SOL     OW17719  14.385   0.286   2.228
38629SOL    HW117720  14.350   0.283   2.317
38629SOL    HW217721  14.401   0.379   2.212
38630SOL     OW17722   3.063   6.954  10.711
38630SOL    HW117723   3.080   6.860  10.719
38630SOL    HW217724   2.978   6.967  10.753
38631SOL     OW17725  10.496   5.918   3.206
38631SOL    HW117726  10.569   5.974   3.183
38631SOL    HW217727  10.433   5.929   3.135
38632SOL     OW17728  11.373   0.751  13.604
38632SOL    HW117729  11.317   0.820  13.568
38632SOL    HW217730  11.428   0.796  13.668
38633SOL     OW17731  10.330  11.957   0.026
38633SOL    HW117732  10.421  11.931   0.044
38633SOL    HW217733  10.338  12.045  14.862
38634SOL     OW17734   0.493   5.925  13.632
38634SOL    HW117735   0.577   5.932  13.586
38634SOL    HW217736   0.430   5.909  13.562
38635SOL     OW17737   5.737  11.550  12.094
38635SOL    HW117738   5.679  11.481  12.062
38635SOL    HW217739   5.825  11.511  12.089
38636SOL     OW17740  10.999   9.898   1.085
38636SOL    HW117741  10.950   9.827   1.128
38636SOL    HW217742  11.090   9.872   1.092
38637SOL     OW17743   3.611   9.983  13.545
38637SOL    HW117744   3.655  10.003  13.627
38637SOL    HW217745   3.600  10.068  13.502
38638SOL     OW17746   6.638  11.102   1.724
38638SOL    HW117747   6.552  11.063   1.711
38638SOL    HW217748   6.639  11.180   1.669
38639SOL     OW17749   2.832   6.512   6.314
38639SOL    HW117750   2.756   6.482   6.364
38639SOL    HW217751   2.858   6.593   6.357
38640SOL     OW17752  11.580  14.819   5.902
38640SOL    HW117753  11.648  14.795   5.839
38640SOL    HW217754  11.529   0.014   5.857
38641SOL     OW17755   3.653   8.897   1.931
38641SOL    HW117756   3.714   8.850   1.874
38641SOL    HW217757   3.590   8.830   1.958
38642SOL     OW17758   9.437   5.620   5.103
38642SOL    HW117759   9.372   5.558   5.136
38642SOL    HW217760   9.521   5.584   5.130
38643SOL     OW17761   4.123   0.812  10.470
38643SOL    HW117762   4.096   0.877  10.535
38643SOL    HW217763   4.043   0.791  10.422
38644SOL     OW17764  14.591   2.091   9.049
38644SOL    HW117765  14.539   2.010   9.051
38644SOL    HW217766  14.543   2.148   8.989
38645SOL     OW17767   9.878  11.827  14.475
38645SOL    HW117768   9.838  11.805  14.391
38645SOL    HW217769   9.972  11.813  14.461
38646SOL     OW17770  12.578  13.859   2.504
38646SOL    HW117771  12.667  13.885   2.526
38646SOL    HW217772  12.548  13.808   2.579
38647SOL     OW17773   5.763   5.784   2.653
38647SOL    HW117774   5.714   5.781   2.571
38647SOL    HW217775   5.851   5.756   2.630
38648SOL     OW17776   7.058   0.006  14.531
38648SOL    HW117777   7.097  14.837  14.454
38648SOL    HW217778   6.975  14.833  14.544
38649SOL     OW17779  10.451   1.294   7.280
38649SOL    HW117780  10.501   1.309   7.200
38649SOL    HW217781  10.481   1.209   7.312
38650SOL     OW17782   2.539   1.989  10.139
38650SOL    HW117783   2.542   2.062  10.078
38650SOL    HW217784   2.479   2.017  10.208
38651SOL     OW17785  11.074  10.270   8.285
38651SOL    HW117786  11.025  10.200   8.242
38651SOL    HW217787  11.101  10.327   8.213
38652SOL     OW17788   5.450   1.229  11.115
38652SOL    HW117789   5.521   1.194  11.168
38652SOL    HW217790   5.408   1.295  11.172
38653SOL     OW17791  12.090   2.221  14.626
38653SOL    HW117792  12.073   2.314  14.635
38653SOL    HW217793  12.007   2.179  14.650
38654SOL     OW17794  11.730   2.818   5.349
38654SOL    HW117795  11.736   2.749   5.416
38654SOL    HW217796  11.765   2.896   5.392
38655SOL     OW17797  11.041   1.373   3.800
38655SOL    HW117798  11.085   1.376   3.885
38655SOL    HW217799  11.081   1.298   3.755
38656SOL     OW17800   9.248   6.732   1.880
38656SOL    HW117801   9.241   6.824   1.856
38656SOL    HW217802   9.335   6.706   1.849
38657SOL     OW17803  14.392   6.345   2.178
38657SOL    HW117804  14.405   6.327   2.085
38657SOL    HW217805  14.443   6.279   2.223
38658SOL     OW17806   1.372  13.071   3.390
38658SOL    HW117807   1.373  13.002   3.456
38658SOL    HW217808   1.280  13.081   3.367
38659SOL     OW17809   8.887   5.027   6.816
38659SOL    HW117810   8.934   4.952   6.852
38659SOL    HW217811   8.802   4.991   6.791
38660SOL     OW17812  11.576   9.846  13.106
38660SOL    HW117813  11.546   9.842  13.197
38660SOL    HW217814  11.671   9.832  13.111
38661SOL     OW17815   5.243   9.384   1.688
38661SOL    HW117816   5.326   9.348   1.656
38661SOL    HW217817   5.176   9.324   1.656
38662SOL     OW17818   0.776   2.640   9.415
38662SOL    HW117819   0.827   2.573   9.369
38662SOL    HW217820   0.720   2.678   9.347
38663SOL     OW17821   0.595  10.068  10.572
38663SOL    HW117822   0.563  10.073  10.482
38663SOL    HW217823   0.670  10.127  10.573
38664SOL     OW17824   0.162  14.300   2.206
38664SOL    HW117825   0.240  14.265   2.165
38664SOL    HW217826   0.158  14.258   2.292
38665SOL     OW17827  14.078   7.898  10.020
38665SOL    HW117828  14.121   7.964  10.075
38665SOL    HW217829  14.145   7.872   9.957
38666SOL     OW17830   0.804   5.343   3.129
38666SOL    HW117831   0.791   5.347   3.223
38666SOL    HW217832   0.825   5.251   3.112
38667SOL     OW17833   1.220  11.051  10.428
38667SOL    HW117834   1.148  11.107  10.456
38667SOL    HW217835   1.269  11.033  10.508
38668SOL     OW17836  11.708   3.048  14.439
38668SOL    HW117837  11.676   3.051  14.349
38668SOL    HW217838  11.647   2.990  14.484
38669SOL     OW17839  12.998   5.989   2.162
38669SOL    HW117840  12.996   6.006   2.068
38669SOL    HW217841  12.963   5.901   2.171
38670SOL     OW17842   1.939   3.952   3.055
38670SOL    HW117843   1.892   4.014   2.999
38670SOL    HW217844   2.027   3.949   3.018
38671SOL     OW17845  14.512   7.465   2.183
38671SOL    HW117846  14.439   7.402   2.182
38671SOL    HW217847  14.529   7.480   2.275
38672SOL     OW17848  10.657  12.418  11.651
38672SOL    HW117849  10.697  12.500  11.680
38672SOL    HW217850  10.567  12.423  11.682
38673SOL     OW17851   0.471  14.474  11.728
38673SOL    HW117852   0.491  14.555  11.682
38673SOL    HW217853   0.410  14.501  11.797
38674SOL     OW17854   6.540  11.540  13.915
38674SOL    HW117855   6.489  11.497  13.847
38674SOL    HW217856   6.619  11.487  13.923
38675SOL     OW17857  11.780   2.379   5.177
38675SOL    HW117858  11.860   2.385   5.125
38675SOL    HW217859  11.811   2.374   5.268
38676SOL     OW17860   5.230   8.992   7.251
38676SOL    HW117861   5.156   8.999   7.191
38676SOL    HW217862   5.235   8.898   7.271
38677SOL     OW17863  11.665   8.127  13.755
38677SOL    HW117864  11.676   8.127  13.850
38677SOL    HW217865  11.725   8.195  13.724
38678SOL     OW17866   9.370   8.257  13.241
38678SOL    HW117867   9.277   8.253  13.263
38678SOL    HW217868   9.383   8.346  13.207
38679SOL     OW17869  12.729  14.777  12.142
38679SOL    HW117870  12.767  14.862  12.119
38679SOL    HW217871  12.637  14.785  12.117
38680SOL     OW17872   6.917   1.612  11.222
38680SOL    HW117873   6.882   1.569  11.300
38680SOL    HW217874   6.844   1.664  11.189
38681SOL     OW17875  14.652  12.286  11.041
38681SOL    HW117876  14.694  12.255  10.961
38681SOL    HW217877  14.708  12.357  11.072
38682SOL     OW17878   3.502   1.070   2.630
38682SOL    HW117879   3.542   1.113   2.706
38682SOL    HW217880   3.506   0.977   2.651
38683SOL     OW17881  11.653   7.019   4.501
38683SOL    HW117882  11.627   6.927   4.503
38683SOL    HW217883  11.659   7.044   4.594
38684SOL     OW17884   8.238   1.426  12.730
38684SOL    HW117885   8.177   1.362  12.768
38684SOL    HW217886   8.212   1.432  12.639
38685SOL     OW17887   2.533   1.400   3.047
38685SOL    HW117888   2.535   1.351   2.965
38685SOL    HW217889   2.442   1.397   3.075
38686SOL     OW17890   8.818   6.252   0.008
38686SOL    HW117891   8.827   6.312   0.083
38686SOL    HW217892   8.897   6.266  14.830
38687SOL     OW17893  12.172  14.182   5.684
38687SOL    HW117894  12.167  14.278   5.682
38687SOL    HW217895  12.095  14.153   5.636
38688SOL     OW17896  14.575   9.943   4.584
38688SOL    HW117897  14.512  10.014   4.595
38688SOL    HW217898  14.658   9.978   4.617
38689SOL     OW17899  11.988   0.749  10.499
38689SOL    HW117900  12.067   0.707  10.531
38689SOL    HW217901  11.920   0.726  10.563
38690SOL     OW17902   5.655   5.977   9.834
38690SOL    HW117903   5.727   6.038   9.818
38690SOL    HW217904   5.601   5.983   9.755
38691SOL     OW17905   6.578   6.072   6.747
38691SOL    HW117906   6.593   6.076   6.653
38691SOL    HW217907   6.664   6.055   6.784
38692SOL     OW17908   3.322   8.123   0.835
38692SOL    HW117909   3.345   8.155   0.748
38692SOL    HW217910   3.367   8.183   0.895
38693SOL     OW17911  11.781  11.477   3.826
38693SOL    HW117912  11.686  11.485   3.811
38693SOL    HW217913  11.820  11.539   3.765
38694SOL     OW17914   0.563   5.194   9.684
38694SOL    HW117915   0.590   5.273   9.637
38694SOL    HW217916   0.635   5.133   9.672
38695SOL     OW17917   7.513  10.687   9.452
38695SOL    HW117918   7.530  10.713   9.542
38695SOL    HW217919   7.450  10.752   9.420
38696SOL     OW17920   5.269  12.232  12.373
38696SOL    HW117921   5.346  12.217  12.317
38696SOL    HW217922   5.234  12.144  12.389
38697SOL     OW17923   5.758  14.009   9.276
38697SOL    HW117924   5.710  14.088   9.253
38697SOL    HW217925   5.735  13.946   9.208
38698SOL     OW17926  11.127   5.121   0.365
38698SOL    HW117927  11.057   5.095   0.425
38698SOL    HW217928  11.196   5.057   0.379
38699SOL     OW17929   3.468  14.243   6.361
38699SOL    HW117930   3.446  14.198   6.279
38699SOL    HW217931   3.523  14.180   6.408
38700SOL     OW17932  11.724   8.605  14.826
38700SOL    HW117933  11.721   8.539   0.023
38700SOL    HW217934  11.818   8.617  14.809
38701SOL     OW17935  10.652   0.360   4.877
38701SOL    HW117936  10.589   0.294   4.905
38701SOL    HW217937  10.727   0.348   4.936
38702SOL     OW17938  10.819  10.976   3.022
38702SOL    HW117939  10.835  10.906   2.960
38702SOL    HW217940  10.817  11.056   2.968
38703SOL     OW17941  11.310   4.815   6.670
38703SOL    HW117942  11.307   4.768   6.753
38703SOL    HW217943  11.365   4.762   6.614
38704SOL     OW17944   1.287   5.411   8.676
38704SOL    HW117945   1.234   5.338   8.709
38704SOL    HW217946   1.245   5.437   8.594
38705SOL     OW17947   1.381   5.394   4.147
38705SOL    HW117948   1.470   5.369   4.123
38705SOL    HW217949   1.371   5.366   4.238
38706SOL     OW17950   0.057   1.906   5.660
38706SOL    HW117951  14.870   1.832   5.677
38706SOL    HW217952   0.034   1.971   5.726
38707SOL     OW17953   5.698   8.555   5.287
38707SOL    HW117954   5.736   8.554   5.199
38707SOL    HW217955   5.751   8.618   5.335
38708SOL     OW17956  13.151   4.998  11.238
38708SOL    HW117957  13.082   4.996  11.171
38708SOL    HW217958  13.104   4.997  11.321
38709SOL     OW17959   7.319   0.706   2.474
38709SOL    HW117960   7.375   0.782   2.458
38709SOL    HW217961   7.235   0.730   2.436
38710SOL     OW17962   0.453  11.069   2.465
38710SOL    HW117963   0.491  10.986   2.436
38710SOL    HW217964   0.366  11.046   2.498
38711SOL     OW17965   0.739   9.088   6.134
38711SOL    HW117966   0.651   9.069   6.102
38711SOL    HW217967   0.774   9.153   6.072
38712SOL     OW17968  12.209  12.407   4.385
38712SOL    HW117969  12.172  12.399   4.473
38712SOL    HW217970  12.287  12.461   4.396
38713SOL     OW17971   7.227   1.185  13.253
38713SOL    HW117972   7.203   1.257  13.312
38713SOL    HW217973   7.204   1.106  13.301
38714SOL     OW17974   9.940  13.063  14.353
38714SOL    HW117975   9.931  13.091  14.262
38714SOL    HW217976   9.921  13.142  14.404
38715SOL     OW17977   4.511   5.842   9.054
38715SOL    HW117978   4.521   5.914   8.993
38715SOL    HW217979   4.532   5.879   9.139
38716SOL     OW17980  10.347   2.884   1.697
38716SOL    HW117981  10.304   2.970   1.693
38716SOL    HW217982  10.283   2.824   1.659
38717SOL     OW17983   2.001   6.831  11.595
38717SOL    HW117984   1.961   6.791  11.518
38717SOL    HW217985   2.055   6.762  11.633
38718SOL     OW17986  14.784   4.947   1.919
38718SOL    HW117987  14.709   4.971   1.865
38718SOL    HW217988  14.836   5.027   1.925
38719SOL     OW17989   4.422   2.919   7.606
38719SOL    HW117990   4.406   2.972   7.528
38719SOL    HW217991   4.509   2.945   7.636
38720SOL     OW17992   2.315   2.594   1.671
38720SOL    HW117993   2.342   2.532   1.604
38720SOL    HW217994   2.378   2.666   1.664
38721SOL     OW17995   8.781   7.686   6.402
38721SOL    HW117996   8.704   7.656   6.353
38721SOL    HW217997   8.776   7.640   6.485
38722SOL     OW17998   3.328   1.159  13.850
38722SOL    HW117999   3.264   1.122  13.911
38722SOL    HW218000   3.409   1.110  13.867
38723SOL     OW18001  13.604   4.092  13.776
38723SOL    HW118002  13.657   4.043  13.839
38723SOL    HW218003  13.523   4.042  13.768
38724SOL     OW18004   9.004  13.687   0.917
38724SOL    HW118005   9.031  13.767   0.871
38724SOL    HW218006   9.044  13.616   0.868
38725SOL     OW18007  11.779   8.169  11.551
38725SOL    HW118008  11.871   8.142  11.543
38725SOL    HW218009  11.740   8.141  11.468
38726SOL     OW18010  14.307  13.318  10.784
38726SOL    HW118011  14.383  13.375  10.798
38726SOL    HW218012  14.330  13.266  10.707
38727SOL     OW18013  12.742   8.842   9.566
38727SOL    HW118014  12.709   8.793   9.641
38727SOL    HW218015  12.828   8.874   9.593
38728SOL     OW18016  10.963   4.836  12.476
38728SOL    HW118017  10.993   4.870  12.561
38728SOL    HW218018  10.869   4.853  12.476
38729SOL     OW18019   7.459   5.711   1.987
38729SOL    HW118020   7.551   5.692   1.970
38729SOL    HW218021   7.459   5.802   2.017
38730SOL     OW18022   9.675   7.752  11.963
38730SOL    HW118023   9.723   7.731  12.043
38730SOL    HW218024   9.635   7.669  11.937
38731SOL     OW18025   0.008   8.337  10.467
38731SOL    HW118026   0.020   8.268  10.532
38731SOL    HW218027   0.032   8.418  10.512
38732SOL     OW18028   3.869   7.223  13.567
38732SOL    HW118029   3.782   7.249  13.597
38732SOL    HW218030   3.869   7.244  13.474
38733SOL     OW18031   8.950  11.835  11.700
38733SOL    HW118032   8.964  11.834  11.605
38733SOL    HW218033   8.959  11.927  11.724
38734SOL     OW18034  10.484  13.359   9.876
38734SOL    HW118035  10.512  13.336   9.965
38734SOL    HW218036  10.564  13.351   9.824
38735SOL     OW18037   7.834   4.528   1.013
38735SOL    HW118038   7.803   4.617   0.997
38735SOL    HW218039   7.777   4.494   1.082
38736SOL     OW18040   5.947   7.665   3.082
38736SOL    HW118041   5.940   7.694   3.172
38736SOL    HW218042   5.931   7.570   3.086
38737SOL     OW18043   4.104  11.282   3.278
38737SOL    HW118044   4.183  11.322   3.241
38737SOL    HW218045   4.052  11.355   3.309
38738SOL     OW18046   5.699   0.016   0.147
38738SOL    HW118047   5.615  14.847   0.164
38738SOL    HW218048   5.728  14.852   0.063
38739SOL     OW18049   3.203   7.616   1.402
38739SOL    HW118050   3.289   7.584   1.376
38739SOL    HW218051   3.214   7.641   1.494
38740SOL     OW18052  14.069   3.789   5.611
38740SOL    HW118053  14.147   3.840   5.591
38740SOL    HW218054  13.995   3.846   5.590
38741SOL     OW18055  14.484   7.092   3.180
38741SOL    HW118056  14.469   7.107   3.273
38741SOL    HW218057  14.574   7.119   3.164
38742SOL     OW18058   5.856   1.507  14.755
38742SOL    HW118059   5.840   1.579  14.815
38742SOL    HW218060   5.856   1.429  14.810
38743SOL     OW18061  13.921  11.660  10.715
38743SOL    HW118062  13.864  11.645  10.791
38743SOL    HW218063  13.967  11.741  10.735
38744SOL     OW18064   4.919  11.136   5.046
38744SOL    HW118065   4.958  11.066   4.993
38744SOL    HW218066   4.842  11.096   5.086
38745SOL     OW18067   9.152  11.031  10.972
38745SOL    HW118068   9.228  11.018  10.916
38745SOL    HW218069   9.171  10.982  11.051
38746SOL     OW18070  12.640  14.116  10.754
38746SOL    HW118071  12.570  14.157  10.702
38746SOL    HW218072  12.594  14.064  10.819
38747SOL     OW18073   8.779   1.954   7.471
38747SOL    HW118074   8.784   1.860   7.453
38747SOL    HW218075   8.685   1.972   7.474
38748SOL     OW18076   1.147   4.370   0.079
38748SOL    HW118077   1.190   4.365   0.164
38748SOL    HW218078   1.216   4.349   0.016
38749SOL     OW18079   1.411   0.103   1.422
38749SOL    HW118080   1.357   0.029   1.395
38749SOL    HW218081   1.492   0.093   1.372
38750SOL     OW18082   0.466   6.449  13.062
38750SOL    HW118083   0.464   6.400  12.980
38750SOL    HW218084   0.536   6.408  13.113
38751SOL     OW18085  11.030  13.486   8.274
38751SOL    HW118086  11.012  13.505   8.181
38751SOL    HW218087  10.978  13.407   8.292
38752SOL     OW18088   7.713  14.506   5.943
38752SOL    HW118089   7.673  14.509   5.856
38752SOL    HW218090   7.701  14.594   5.977
38753SOL     OW18091   9.025   3.654   3.877
38753SOL    HW118092   9.021   3.578   3.820
38753SOL    HW218093   9.088   3.713   3.835
38754SOL     OW18094   2.229   1.450  10.069
38754SOL    HW118095   2.233   1.472  10.162
38754SOL    HW218096   2.319   1.462  10.038
38755SOL     OW18097  12.935   5.923   5.845
38755SOL    HW118098  12.977   5.888   5.767
38755SOL    HW218099  12.898   6.007   5.817
38756SOL     OW18100   6.240  14.245  10.691
38756SOL    HW118101   6.209  14.187  10.761
38756SOL    HW218102   6.329  14.216  10.674
38757SOL     OW18103   8.537  13.891   1.548
38757SOL    HW118104   8.588  13.970   1.568
38757SOL    HW218105   8.480  13.879   1.623
38758SOL     OW18106   0.266   4.689  12.199
38758SOL    HW118107   0.293   4.611  12.152
38758SOL    HW218108   0.187   4.719  12.154
38759SOL     OW18109   4.240   8.011   9.919
38759SOL    HW118110   4.152   8.048   9.912
38759SOL    HW218111   4.298   8.080   9.888
38760SOL     OW18112   3.734   0.085  11.874
38760SOL    HW118113   3.709   0.080  11.782
38760SOL    HW218114   3.694   0.008  11.914
38761SOL     OW18115   1.943  13.181  13.072
38761SOL    HW118116   1.884  13.179  12.997
38761SOL    HW218117   1.966  13.089  13.087
38762SOL     OW18118   2.102  10.991   3.297
38762SOL    HW118119   2.138  10.905   3.276
38762SOL    HW218120   2.015  10.991   3.257
38763SOL     OW18121  14.345   8.973   4.340
38763SOL    HW118122  14.281   8.902   4.328
38763SOL    HW218123  14.402   8.967   4.263
38764SOL     OW18124   9.365  14.280  11.140
38764SOL    HW118125   9.443  14.235  11.107
38764SOL    HW218126   9.349  14.350  11.076
38765SOL     OW18127   5.033   2.254  13.715
38765SOL    HW118128   4.949   2.228  13.676
38765SOL    HW218129   5.058   2.332  13.666
38766SOL     OW18130  13.882   9.120  14.721
38766SOL    HW118131  13.884   9.027  14.702
38766SOL    HW218132  13.855   9.162  14.640
38767SOL     OW18133  14.367   9.506  12.646
38767SOL    HW118134  14.308   9.450  12.696
38767SOL    HW218135  14.437   9.447  12.616
38768SOL     OW18136   7.426   8.807  13.151
38768SOL    HW118137   7.481   8.732  13.176
38768SOL    HW218138   7.440   8.871  13.221
38769SOL     OW18139  10.038  13.220   0.111
38769SOL    HW118140  10.093  13.163   0.057
38769SOL    HW218141  10.090  13.299   0.122
38770SOL     OW18142   7.793   5.029  13.207
38770SOL    HW118143   7.766   4.938  13.195
38770SOL    HW218144   7.837   5.051  13.124
38771SOL     OW18145  12.950   4.159  13.766
38771SOL    HW118146  13.006   4.218  13.716
38771SOL    HW218147  12.916   4.213  13.838
38772SOL     OW18148  10.095  10.577   0.402
38772SOL    HW118149  10.092  10.628   0.483
38772SOL    HW218150  10.016  10.603   0.354
38773SOL     OW18151  10.934   1.518  14.767
38773SOL    HW118152  10.865   1.582  14.780
38773SOL    HW218153  10.915   1.478  14.682
38774SOL     OW18154   9.146   5.584   0.123
38774SOL    HW118155   9.226   5.596   0.073
38774SOL    HW218156   9.107   5.671   0.129
38775SOL     OW18157  10.065   8.932   0.430
38775SOL    HW118158  10.036   8.927   0.339
38775SOL    HW218159  10.117   8.853   0.444
38776SOL     OW18160   9.893   4.113   2.731
38776SOL    HW118161   9.924   4.148   2.647
38776SOL    HW218162   9.798   4.117   2.725
38777SOL     OW18163   7.193   0.299   1.595
38777SOL    HW118164   7.171   0.387   1.625
38777SOL    HW218165   7.219   0.311   1.504
38778SOL     OW18166   3.938   7.761   1.026
38778SOL    HW118167   3.982   7.774   0.942
38778SOL    HW218168   3.998   7.797   1.091
38779SOL     OW18169   8.970   3.986  11.058
38779SOL    HW118170   8.975   3.892  11.044
38779SOL    HW218171   9.049   4.021  11.018
38780SOL     OW18172   0.810  10.307   4.503
38780SOL    HW118173   0.827  10.400   4.518
38780SOL    HW218174   0.785  10.301   4.411
38781SOL     OW18175  12.832   3.182   3.678
38781SOL    HW118176  12.801   3.266   3.643
38781SOL    HW218177  12.908   3.204   3.731
38782SOL     OW18178   3.182   1.809   4.426
38782SOL    HW118179   3.086   1.803   4.430
38782SOL    HW218180   3.210   1.724   4.393
38783SOL     OW18181   5.572   0.762   5.813
38783SOL    HW118182   5.526   0.679   5.807
38783SOL    HW218183   5.575   0.782   5.907
38784SOL     OW18184   3.119   4.181  12.904
38784SOL    HW118185   3.148   4.243  12.838
38784SOL    HW218186   3.133   4.225  12.988
38785SOL     OW18187   9.702   0.258   7.392
38785SOL    HW118188   9.743   0.229   7.473
38785SOL    HW218189   9.750   0.337   7.368
38786SOL     OW18190   0.724  11.516   8.623
38786SOL    HW118191   0.724  11.548   8.533
38786SOL    HW218192   0.681  11.585   8.673
38787SOL     OW18193   4.132   9.951   1.938
38787SOL    HW118194   4.141  10.043   1.966
38787SOL    HW218195   4.194   9.943   1.865
38788SOL     OW18196  13.272   1.035   5.910
38788SOL    HW118197  13.184   1.068   5.890
38788SOL    HW218198  13.284   0.961   5.851
38789SOL     OW18199  12.818   6.948  14.007
38789SOL    HW118200  12.744   6.887  14.005
38789SOL    HW218201  12.876   6.912  14.074
38790SOL     OW18202   6.319   4.140   2.520
38790SOL    HW118203   6.398   4.115   2.473
38790SOL    HW218204   6.272   4.058   2.534
38791SOL     OW18205  13.372   5.679  11.445
38791SOL    HW118206  13.333   5.698  11.359
38791SOL    HW218207  13.314   5.723  11.507
38792SOL     OW18208   4.584  12.455   1.120
38792SOL    HW118209   4.512  12.453   1.183
38792SOL    HW218210   4.640  12.526   1.151
38793SOL     OW18211   4.187   8.261  14.249
38793SOL    HW118212   4.146   8.204  14.184
38793SOL    HW218213   4.139   8.244  14.330
38794SOL     OW18214  11.168   8.815   9.534
38794SOL    HW118215  11.113   8.760   9.590
38794SOL    HW218216  11.235   8.755   9.500
38795SOL     OW18217  10.736   2.787  12.345
38795SOL    HW118218  10.689   2.804  12.263
38795SOL    HW218219  10.824   2.761  12.317
38796SOL     OW18220   1.371  10.302   6.474
38796SOL    HW118221   1.298  10.337   6.525
38796SOL    HW218222   1.433  10.375   6.469
38797SOL     OW18223  10.910  11.704   5.948
38797SOL    HW118224  10.909  11.791   5.907
38797SOL    HW218225  10.824  11.696   5.990
38798SOL     OW18226  10.797   9.416  11.627
38798SOL    HW118227  10.746   9.497  11.627
38798SOL    HW218228  10.808   9.395  11.534
38799SOL     OW18229  11.807  14.495   5.752
38799SOL    HW118230  11.745  14.441   5.802
38799SOL    HW218231  11.752  14.555   5.702
38800SOL     OW18232  12.621  13.797  11.431
38800SOL    HW118233  12.644  13.793  11.339
38800SOL    HW218234  12.684  13.859  11.469
38801SOL     OW18235   8.697  11.889   2.169
38801SOL    HW118236   8.637  11.846   2.231
38801SOL    HW218237   8.758  11.938   2.225
38802SOL     OW18238   8.169   4.549   6.314
38802SOL    HW118239   8.088   4.596   6.328
38802SOL    HW218240   8.164   4.473   6.372
38803SOL     OW18241   5.720  11.398   7.702
38803SOL    HW118242   5.644  11.389   7.760
38803SOL    HW218243   5.760  11.311   7.702
38804SOL     OW18244   3.976   1.112   2.771
38804SOL    HW118245   3.973   1.097   2.676
38804SOL    HW218246   3.951   1.203   2.782
38805SOL     OW18247   6.995   0.000  13.449
38805SOL    HW118248   6.906   0.020  13.421
38805SOL    HW218249   6.994   0.016  13.544
38806SOL     OW18250   4.901   1.441   9.797
38806SOL    HW118251   4.941   1.362   9.834
38806SOL    HW218252   4.897   1.503   9.871
38807SOL     OW18253   1.764  11.724   1.968
38807SOL    HW118254   1.812  11.648   1.999
38807SOL    HW218255   1.752  11.709   1.874
38808SOL     OW18256   8.532   0.738   4.968
38808SOL    HW118257   8.465   0.752   4.901
38808SOL    HW218258   8.566   0.651   4.950
38809SOL     OW18259  13.569   3.104  12.605
38809SOL    HW118260  13.509   3.069  12.539
38809SOL    HW218261  13.645   3.132  12.556
38810SOL     OW18262   6.555   1.896   3.885
38810SOL    HW118263   6.620   1.832   3.857
38810SOL    HW218264   6.515   1.859   3.963
38811SOL     OW18265  13.924   6.068   8.264
38811SOL    HW118266  14.016   6.053   8.238
38811SOL    HW218267  13.882   5.983   8.252
38812SOL     OW18268   9.461   8.129  10.923
38812SOL    HW118269   9.408   8.098  10.997
38812SOL    HW218270   9.552   8.114  10.950
38813SOL     OW18271   8.461  14.585   2.682
38813SOL    HW118272   8.469  14.594   2.777
38813SOL    HW218273   8.491  14.669   2.647
38814SOL     OW18274   1.719   3.063  13.210
38814SOL    HW118275   1.758   3.057  13.123
38814SOL    HW218276   1.682   3.151  13.214
38815SOL     OW18277   9.913   7.975  10.583
38815SOL    HW118278   9.853   7.952  10.654
38815SOL    HW218279   9.959   8.052  10.614
38816SOL     OW18280  14.725   8.219   6.948
38816SOL    HW118281  14.709   8.289   6.885
38816SOL    HW218282  14.723   8.262   7.033
38817SOL     OW18283  12.720   1.696   4.902
38817SOL    HW118284  12.779   1.748   4.956
38817SOL    HW218285  12.774   1.625   4.868
38818SOL     OW18286   1.404   7.419  14.151
38818SOL    HW118287   1.468   7.402  14.220
38818SOL    HW218288   1.417   7.511  14.129
38819SOL     OW18289  12.113   3.048   7.150
38819SOL    HW118290  12.052   3.100   7.097
38819SOL    HW218291  12.148   2.983   7.090
38820SOL     OW18292   7.858  12.113  13.154
38820SOL    HW118293   7.822  12.175  13.217
38820SOL    HW218294   7.936  12.156  13.120
38821SOL     OW18295  12.185   3.254   8.953
38821SOL    HW118296  12.227   3.316   9.013
38821SOL    HW218297  12.235   3.262   8.871
38822SOL     OW18298  14.278   0.624   4.284
38822SOL    HW118299  14.370   0.610   4.260
38822SOL    HW218300  14.241   0.672   4.210
38823SOL     OW18301   4.696   3.518  10.704
38823SOL    HW118302   4.630   3.576  10.742
38823SOL    HW218303   4.730   3.469  10.779
38824SOL     OW18304   6.928  11.857   6.482
38824SOL    HW118305   6.968  11.929   6.433
38824SOL    HW218306   6.873  11.900   6.548
38825SOL     OW18307   2.326  11.000   5.567
38825SOL    HW118308   2.402  10.954   5.532
38825SOL    HW218309   2.257  10.934   5.571
38826SOL     OW18310  10.460  13.505   8.996
38826SOL    HW118311  10.365  13.498   9.007
38826SOL    HW218312  10.473  13.517   8.902
38827SOL     OW18313   2.041   7.944   0.808
38827SOL    HW118314   1.990   7.935   0.727
38827SOL    HW218315   2.106   7.873   0.803
38828SOL     OW18316   4.652  10.858   5.490
38828SOL    HW118317   4.635  10.764   5.493
38828SOL    HW218318   4.692  10.878   5.574
38829SOL     OW18319   9.416   8.491  11.498
38829SOL    HW118320   9.450   8.410  11.534
38829SOL    HW218321   9.380   8.538  11.573
38830SOL     OW18322   7.241   3.359   5.148
38830SOL    HW118323   7.255   3.403   5.064
38830SOL    HW218324   7.229   3.267   5.125
38831SOL     OW18325   8.957   1.236   9.474
38831SOL    HW118326   9.038   1.225   9.524
38831SOL    HW218327   8.986   1.251   9.384
38832SOL     OW18328  12.219   8.453   3.741
38832SOL    HW118329  12.175   8.368   3.733
38832SOL    HW218330  12.214   8.474   3.834
38833SOL     OW18331   7.688  11.140   6.682
38833SOL    HW118332   7.750  11.158   6.611
38833SOL    HW218333   7.605  11.125   6.638
38834SOL     OW18334   0.170   4.186   8.835
38834SOL    HW118335   0.122   4.104   8.846
38834SOL    HW218336   0.145   4.218   8.749
38835SOL     OW18337   7.691   7.119  12.583
38835SOL    HW118338   7.705   7.098  12.490
38835SOL    HW218339   7.730   7.205  12.595
38836SOL     OW18340   9.110   3.349   5.545
38836SOL    HW118341   9.016   3.355   5.562
38836SOL    HW218342   9.147   3.428   5.586
38837SOL     OW18343   2.546   4.820  11.943
38837SOL    HW118344   2.550   4.825  12.039
38837SOL    HW218345   2.534   4.910  11.915
38838SOL     OW18346   4.232   7.454  13.853
38838SOL    HW118347   4.250   7.536  13.805
38838SOL    HW218348   4.259   7.385  13.793
38839SOL     OW18349   1.184   8.333  11.684
38839SOL    HW118350   1.230   8.251  11.703
38839SOL    HW218351   1.115   8.309  11.623
38840SOL     OW18352   7.085  10.084  12.567
38840SOL    HW118353   7.070  10.165  12.616
38840SOL    HW218354   7.078  10.111  12.475
38841SOL     OW18355   7.982  12.386   1.550
38841SOL    HW118356   7.966  12.477   1.527
38841SOL    HW218357   7.932  12.372   1.630
38842SOL     OW18358  13.419   8.480   1.103
38842SOL    HW118359  13.330   8.452   1.085
38842SOL    HW218360  13.449   8.520   1.022
38843SOL     OW18361   0.391   7.543   8.414
38843SOL    HW118362   0.446   7.551   8.337
38843SOL    HW218363   0.435   7.477   8.468
38844SOL     OW18364   3.437  10.389   8.699
38844SOL    HW118365   3.425  10.479   8.729
38844SOL    HW218366   3.532  10.381   8.686
38845SOL     OW18367   1.120  14.348   1.637
38845SOL    HW118368   1.108  14.402   1.715
38845SOL    HW218369   1.062  14.273   1.649
38846SOL     OW18370   3.207  13.009  13.995
38846SOL    HW118371   3.180  13.101  13.998
38846SOL    HW218372   3.179  12.979  13.909
38847SOL     OW18373  11.480   5.671   5.789
38847SOL    HW118374  11.475   5.586   5.744
38847SOL    HW218375  11.571   5.698   5.780
38848SOL     OW18376   1.412   6.549   2.797
38848SOL    HW118377   1.439   6.611   2.864
38848SOL    HW218378   1.324   6.522   2.824
38849SOL     OW18379   7.411   0.181   6.298
38849SOL    HW118380   7.421   0.133   6.380
38849SOL    HW218381   7.445   0.122   6.231
38850SOL     OW18382  12.430   7.424   5.345
38850SOL    HW118383  12.387   7.409   5.430
38850SOL    HW218384  12.373   7.382   5.281
38851SOL     OW18385   3.531   3.156   4.830
38851SOL    HW118386   3.500   3.146   4.920
38851SOL    HW218387   3.488   3.236   4.799
38852SOL     OW18388  11.661   5.549   0.807
38852SOL    HW118389  11.588   5.607   0.827
38852SOL    HW218390  11.700   5.585   0.727
38853SOL     OW18391   6.692   6.488  11.250
38853SOL    HW118392   6.671   6.455  11.337
38853SOL    HW218393   6.787   6.504  11.253
38854SOL     OW18394  10.961   4.856   5.863
38854SOL    HW118395  11.056   4.855   5.857
38854SOL    HW218396  10.941   4.801   5.939
38855SOL     OW18397  12.327   3.360   8.726
38855SOL    HW118398  12.388   3.434   8.727
38855SOL    HW218399  12.259   3.385   8.664
38856SOL     OW18400   2.828   2.121   6.289
38856SOL    HW118401   2.923   2.130   6.297
38856SOL    HW218402   2.793   2.181   6.356
38857SOL     OW18403   0.314   7.612   4.784
38857SOL    HW118404   0.321   7.628   4.878
38857SOL    HW218405   0.226   7.642   4.761
38858SOL     OW18406   4.314  10.730   4.198
38858SOL    HW118407   4.336  10.705   4.288
38858SOL    HW218408   4.285  10.821   4.205
38859SOL     OW18409   6.662   5.776   4.716
38859SOL    HW118410   6.576   5.817   4.714
38859SOL    HW218411   6.673   5.738   4.629
38860SOL     OW18412   2.308   3.759  14.275
38860SOL    HW118413   2.270   3.846  14.285
38860SOL    HW218414   2.394   3.775  14.234
38861SOL     OW18415  13.421   6.671   2.370
38861SOL    HW118416  13.381   6.626   2.296
38861SOL    HW218417  13.354   6.671   2.438
38862SOL     OW18418   0.028   0.775   1.824
38862SOL    HW118419   0.030   0.814   1.736
38862SOL    HW218420  14.840   0.701   1.816
38863SOL     OW18421  12.162   8.521   5.589
38863SOL    HW118422  12.244   8.472   5.585
38863SOL    HW218423  12.094   8.454   5.588
38864SOL     OW18424   9.538   8.190   1.359
38864SOL    HW118425   9.444   8.178   1.373
38864SOL    HW218426   9.564   8.113   1.309
38865SOL     OW18427  10.868   4.095  14.013
38865SOL    HW118428  10.821   4.175  13.990
38865SOL    HW218429  10.901   4.110  14.101
38866SOL     OW18430  13.173   6.063   0.613
38866SOL    HW118431  13.079   6.049   0.625
38866SOL    HW218432  13.208   5.977   0.589
38867SOL     OW18433   9.352   8.293   6.074
38867SOL    HW118434   9.326   8.273   6.164
38867SOL    HW218435   9.436   8.248   6.063
38868SOL     OW18436   3.294   1.340  12.951
38868SOL    HW118437   3.300   1.282  13.027
38868SOL    HW218438   3.356   1.411  12.969
38869SOL     OW18439  12.299   6.672   4.714
38869SOL    HW118440  12.212   6.713   4.715
38869SOL    HW218441  12.358   6.741   4.684
38870SOL     OW18442  13.181  11.415   5.877
38870SOL    HW118443  13.230  11.394   5.957
38870SOL    HW218444  13.118  11.343   5.869
38871SOL     OW18445   7.089  12.743   9.328
38871SOL    HW118446   7.133  12.715   9.409
38871SOL    HW218447   7.142  12.816   9.297
38872SOL     OW18448   6.795   3.066  13.239
38872SOL    HW118449   6.841   3.118  13.304
38872SOL    HW218450   6.807   2.975  13.268
38873SOL     OW18451   6.553   7.921   9.091
38873SOL    HW118452   6.501   8.000   9.110
38873SOL    HW218453   6.490   7.861   9.051
38874SOL     OW18454   2.527   6.470   4.199
38874SOL    HW118455   2.539   6.501   4.289
38874SOL    HW218456   2.615   6.449   4.169
38875SOL     OW18457  12.651  10.026  12.817
38875SOL    HW118458  12.567  10.056  12.783
38875SOL    HW218459  12.672  10.087  12.888
38876SOL     OW18460   9.196   9.619   6.761
38876SOL    HW118461   9.193   9.641   6.668
38876SOL    HW218462   9.222   9.700   6.804
38877SOL     OW18463  13.064   4.212   9.325
38877SOL    HW118464  13.123   4.155   9.374
38877SOL    HW218465  12.977   4.194   9.362
38878SOL     OW18466  13.949  14.620   4.169
38878SOL    HW118467  13.994  14.617   4.084
38878SOL    HW218468  13.911  14.708   4.174
38879SOL     OW18469  12.075  10.440   9.917
38879SOL    HW118470  12.005  10.487   9.962
38879SOL    HW218471  12.079  10.481   9.830
38880SOL     OW18472   5.172   0.445  13.629
38880SOL    HW118473   5.238   0.495  13.581
38880SOL    HW218474   5.221   0.378  13.676
38881SOL     OW18475  12.304   9.187  10.785
38881SOL    HW118476  12.317   9.189  10.690
38881SOL    HW218477  12.327   9.097  10.810
38882SOL     OW18478   6.953   1.656   6.688
38882SOL    HW118479   6.978   1.669   6.780
38882SOL    HW218480   7.037   1.649   6.642
38883SOL     OW18481  10.043   2.759  12.749
38883SOL    HW118482  10.064   2.701  12.822
38883SOL    HW218483  10.126   2.772  12.704
38884SOL     OW18484  14.869  12.524   8.027
38884SOL    HW118485  14.861  12.604   7.974
38884SOL    HW218486   0.074  12.539   8.080
38885SOL     OW18487   9.851   9.447  13.651
38885SOL    HW118488   9.821   9.471  13.563
38885SOL    HW218489   9.857   9.352  13.649
38886SOL     OW18490   9.219   4.899  13.358
38886SOL    HW118491   9.139   4.847  13.356
38886SOL    HW218492   9.288   4.839  13.330
38887SOL     OW18493   0.243  13.750   5.785
38887SOL    HW118494   0.149  13.732   5.786
38887SOL    HW218495   0.280  13.685   5.846
38888SOL     OW18496  10.852   6.939   6.872
38888SOL    HW118497  10.873   7.023   6.830
38888SOL    HW218498  10.922   6.880   6.843
38889SOL     OW18499   9.516   3.392   8.327
38889SOL    HW118500   9.476   3.306   8.326
38889SOL    HW218501   9.573   3.394   8.250
38890SOL     OW18502  13.919   8.052   3.932
38890SOL    HW118503  13.929   8.054   4.027
38890SOL    HW218504  13.827   8.073   3.917
38891SOL     OW18505  12.738   8.915   8.688
38891SOL    HW118506  12.703   8.943   8.604
38891SOL    HW218507  12.674   8.852   8.720
38892SOL     OW18508   5.275   8.834   8.763
38892SOL    HW118509   5.232   8.881   8.691
38892SOL    HW218510   5.267   8.893   8.838
38893SOL     OW18511   3.478  13.692   3.267
38893SOL    HW118512   3.469  13.751   3.193
38893SOL    HW218513   3.572  13.688   3.284
38894SOL     OW18514   9.929   4.714   1.386
38894SOL    HW118515   9.891   4.802   1.393
38894SOL    HW218516   9.874   4.671   1.321
38895SOL     OW18517   5.367  12.307   1.180
38895SOL    HW118518   5.390  12.371   1.247
38895SOL    HW218519   5.288  12.342   1.139
38896SOL     OW18520   5.543   7.650  13.307
38896SOL    HW118521   5.510   7.727  13.354
38896SOL    HW218522   5.467   7.617  13.259
38897SOL     OW18523  10.358   9.080   5.627
38897SOL    HW118524  10.394   9.059   5.540
38897SOL    HW218525  10.263   9.081   5.614
38898SOL     OW18526  13.675  13.457   1.828
38898SOL    HW118527  13.743  13.452   1.760
38898SOL    HW218528  13.652  13.550   1.831
38899SOL     OW18529   2.536  10.252   4.145
38899SOL    HW118530   2.563  10.204   4.223
38899SOL    HW218531   2.491  10.187   4.091
38900SOL     OW18532   0.267   7.383   7.968
38900SOL    HW118533   0.278   7.430   7.885
38900SOL    HW218534   0.298   7.295   7.950
38901SOL     OW18535   8.289   6.875   4.023
38901SOL    HW118536   8.203   6.887   4.065
38901SOL    HW218537   8.271   6.887   3.930
38902SOL     OW18538   4.754   1.700   6.270
38902SOL    HW118539   4.751   1.793   6.294
38902SOL    HW218540   4.745   1.700   6.175
38903SOL     OW18541  13.252   7.723   7.822
38903SOL    HW118542  13.277   7.814   7.843
38903SOL    HW218543  13.163   7.730   7.788
38904SOL     OW18544  13.261   5.162   0.510
38904SOL    HW118545  13.340   5.107   0.505
38904SOL    HW218546  13.195   5.105   0.549
38905SOL     OW18547   3.869   3.827  14.034
38905SOL    HW118548   3.885   3.732  14.032
38905SOL    HW218549   3.815   3.840  14.112
38906SOL     OW18550   0.362  13.844   4.043
38906SOL    HW118551   0.421  13.809   4.109
38906SOL    HW218552   0.294  13.890   4.092
38907SOL     OW18553  13.847   2.384   2.551
38907SOL    HW118554  13.831   2.389   2.457
38907SOL    HW218555  13.877   2.294   2.566
38908SOL     OW18556  13.849   1.977   5.251
38908SOL    HW118557  13.905   1.939   5.183
38908SOL    HW218558  13.824   2.063   5.217
38909SOL     OW18559   6.727   3.308   9.908
38909SOL    HW118560   6.790   3.379   9.924
38909SOL    HW218561   6.675   3.339   9.834
38910SOL     OW18562   5.394   4.351   7.476
38910SOL    HW118563   5.309   4.318   7.506
38910SOL    HW218564   5.393   4.337   7.381
38911SOL     OW18565   5.027  13.949   3.827
38911SOL    HW118566   5.107  13.940   3.776
38911SOL    HW218567   5.056  13.950   3.918
38912SOL     OW18568  14.286   5.161  10.739
38912SOL    HW118569  14.274   5.089  10.801
38912SOL    HW218570  14.364   5.135  10.688
38913SOL     OW18571   3.664   7.212  14.857
38913SOL    HW118572   3.724   7.218   0.059
38913SOL    HW218573   3.721   7.198  14.782
38914SOL     OW18574  13.301  10.271   1.077
38914SOL    HW118575  13.284  10.225   0.995
38914SOL    HW218576  13.216  10.307   1.103
38915SOL     OW18577   4.825  11.244  14.367
38915SOL    HW118578   4.750  11.199  14.329
38915SOL    HW218579   4.888  11.252  14.296
38916SOL     OW18580   7.982   2.588   7.448
38916SOL    HW118581   7.947   2.676   7.432
38916SOL    HW218582   8.023   2.563   7.365
38917SOL     OW18583   5.084  10.258  12.990
38917SOL    HW118584   5.065  10.317  12.918
38917SOL    HW218585   5.149  10.197  12.955
38918SOL     OW18586   8.377   5.512   2.533
38918SOL    HW118587   8.340   5.521   2.445
38918SOL    HW218588   8.355   5.423   2.560
38919SOL     OW18589   9.740  13.536   7.284
38919SOL    HW118590   9.684  13.552   7.359
38919SOL    HW218591   9.829  13.550   7.316
38920SOL     OW18592  12.759   6.750   5.366
38920SOL    HW118593  12.768   6.723   5.458
38920SOL    HW218594  12.847   6.779   5.342
38921SOL     OW18595   5.488   8.371  10.023
38921SOL    HW118596   5.481   8.455  10.069
38921SOL    HW218597   5.580   8.364   9.999
38922SOL     OW18598   9.908  11.296   5.134
38922SOL    HW118599   9.943  11.314   5.221
38922SOL    HW218600   9.836  11.358   5.123
38923SOL     OW18601   1.854  11.415   3.848
38923SOL    HW118602   1.759  11.413   3.860
38923SOL    HW218603   1.869  11.366   3.767
38924SOL     OW18604   4.464   4.564   6.237
38924SOL    HW118605   4.437   4.619   6.163
38924SOL    HW218606   4.442   4.616   6.314
38925SOL     OW18607   3.881  14.605   6.247
38925SOL    HW118608   3.845  14.685   6.209
38925SOL    HW218609   3.962  14.590   6.198
38926SOL     OW18610   9.449  11.156   4.363
38926SOL    HW118611   9.477  11.203   4.285
38926SOL    HW218612   9.530  11.123   4.401
38927SOL     OW18613  12.060  12.318   6.825
38927SOL    HW118614  12.102  12.401   6.847
38927SOL    HW218615  11.967  12.339   6.819
38928SOL     OW18616   6.844  10.130   4.788
38928SOL    HW118617   6.791  10.072   4.734
38928SOL    HW218618   6.932  10.123   4.751
38929SOL     OW18619  14.380  10.216   0.824
38929SOL    HW118620  14.304  10.233   0.879
38929SOL    HW218621  14.348  10.228   0.735
38930SOL     OW18622   8.219   7.632   5.190
38930SOL    HW118623   8.296   7.581   5.164
38930SOL    HW218624   8.167   7.638   5.110
38931SOL     OW18625   1.486   1.195   0.077
38931SOL    HW118626   1.398   1.160   0.091
38931SOL    HW218627   1.479   1.288   0.099
38932SOL     OW18628  13.577  13.247   8.043
38932SOL    HW118629  13.605  13.333   8.011
38932SOL    HW218630  13.641  13.224   8.110
38933SOL     OW18631   8.369   9.460   3.945
38933SOL    HW118632   8.449   9.489   3.900
38933SOL    HW218633   8.335   9.540   3.986
38934SOL     OW18634  11.319  11.061   8.399
38934SOL    HW118635  11.333  11.020   8.485
38934SOL    HW218636  11.226  11.084   8.398
38935SOL     OW18637   6.305   6.204   7.387
38935SOL    HW118638   6.378   6.174   7.441
38935SOL    HW218639   6.254   6.125   7.370
38936SOL     OW18640   3.259  12.069  14.582
38936SOL    HW118641   3.194  12.051  14.513
38936SOL    HW218642   3.224  12.023  14.659
38937SOL     OW18643  13.702   3.465  11.281
38937SOL    HW118644  13.663   3.526  11.343
38937SOL    HW218645  13.741   3.397  11.336
38938SOL     OW18646   9.667   5.075   0.237
38938SOL    HW118647   9.600   5.085   0.169
38938SOL    HW218648   9.645   4.992   0.280
38939SOL     OW18649   9.910  10.666  11.755
38939SOL    HW118650   9.946  10.608  11.687
38939SOL    HW218651   9.920  10.754  11.719
38940SOL     OW18652   1.408   1.104   1.487
38940SOL    HW118653   1.497   1.097   1.521
38940SOL    HW218654   1.352   1.108   1.564
38941SOL     OW18655   5.402   3.450   1.408
38941SOL    HW118656   5.486   3.475   1.445
38941SOL    HW218657   5.413   3.461   1.314
38942SOL     OW18658   9.324  10.617   4.472
38942SOL    HW118659   9.341  10.649   4.383
38942SOL    HW218660   9.288  10.529   4.459
38943SOL     OW18661   6.206   6.352  12.653
38943SOL    HW118662   6.117   6.378  12.632
38943SOL    HW218663   6.226   6.282  12.591
38944SOL     OW18664   4.287   4.260  11.773
38944SOL    HW118665   4.287   4.356  11.771
38944SOL    HW218666   4.328   4.234  11.690
38945SOL     OW18667   3.053   4.432   8.665
38945SOL    HW118668   3.142   4.428   8.629
38945SOL    HW218669   3.024   4.341   8.667
38946SOL     OW18670  12.101   9.599  11.065
38946SOL    HW118671  12.133   9.638  10.984
38946SOL    HW218672  12.041   9.665  11.101
38947SOL     OW18673  14.750  12.134  11.342
38947SOL    HW118674  14.820  12.169  11.398
38947SOL    HW218675  14.683  12.202  11.344
38948SOL     OW18676  13.252   8.391   9.327
38948SOL    HW118677  13.227   8.483   9.332
38948SOL    HW218678  13.320   8.388   9.259
38949SOL     OW18679   9.456  13.205  11.517
38949SOL    HW118680   9.516  13.132  11.532
38949SOL    HW218681   9.390  13.194  11.586
38950SOL     OW18682  14.319   1.917   5.433
38950SOL    HW118683  14.346   1.832   5.468
38950SOL    HW218684  14.310   1.973   5.510
38951SOL     OW18685   3.695  11.200   4.242
38951SOL    HW118686   3.622  11.187   4.182
38951SOL    HW218687   3.743  11.118   4.239
38952SOL     OW18688  14.164   4.770  14.579
38952SOL    HW118689  14.122   4.738  14.659
38952SOL    HW218690  14.224   4.700  14.554
38953SOL     OW18691   0.885   2.347   1.990
38953SOL    HW118692   0.878   2.298   1.907
38953SOL    HW218693   0.850   2.287   2.056
38954SOL     OW18694   2.894   6.945  10.078
38954SOL    HW118695   2.977   6.920  10.039
38954SOL    HW218696   2.904   7.038  10.098
38955SOL     OW18697   3.729  10.123   9.663
38955SOL    HW118698   3.700  10.192   9.723
38955SOL    HW218699   3.725  10.164   9.576
38956SOL     OW18700   9.048   6.661  10.860
38956SOL    HW118701   9.040   6.569  10.836
38956SOL    HW218702   9.070   6.660  10.953
38957SOL     OW18703  11.435   2.236   8.519
38957SOL    HW118704  11.389   2.297   8.462
38957SOL    HW218705  11.434   2.278   8.605
38958SOL     OW18706   6.243  13.810  12.760
38958SOL    HW118707   6.219  13.898  12.790
38958SOL    HW218708   6.201  13.802  12.674
38959SOL     OW18709   2.347   6.113  10.553
38959SOL    HW118710   2.268   6.166  10.569
38959SOL    HW218711   2.314   6.029  10.522
38960SOL     OW18712  10.291   9.068   2.048
38960SOL    HW118713  10.272   9.149   2.096
38960SOL    HW218714  10.387   9.064   2.046
38961SOL     OW18715   3.075  10.547   8.309
38961SOL    HW118716   3.118  10.495   8.377
38961SOL    HW218717   3.127  10.627   8.304
38962SOL     OW18718   2.864   1.403  13.654
38962SOL    HW118719   2.904   1.320  13.680
38962SOL    HW218720   2.880   1.462  13.728
38963SOL     OW18721   0.461   8.219  14.725
38963SOL    HW118722   0.489   8.304  14.692
38963SOL    HW218723   0.495   8.216  14.815
38964SOL     OW18724   5.736   0.635   2.236
38964SOL    HW118725   5.777   0.579   2.302
38964SOL    HW218726   5.684   0.576   2.182
38965SOL     OW18727   9.144  10.617   9.920
38965SOL    HW118728   9.133  10.523   9.906
38965SOL    HW218729   9.056  10.653   9.914
38966SOL     OW18730   4.160   8.685   6.783
38966SOL    HW118731   4.166   8.607   6.728
38966SOL    HW218732   4.066   8.697   6.796
38967SOL     OW18733  12.792   6.084  11.512
38967SOL    HW118734  12.822   6.019  11.447
38967SOL    HW218735  12.766   6.032  11.588
38968SOL     OW18736  10.753   3.184   7.976
38968SOL    HW118737  10.787   3.231   8.052
38968SOL    HW218738  10.728   3.098   8.010
38969SOL     OW18739   3.404   1.836   9.514
38969SOL    HW118740   3.469   1.818   9.582
38969SOL    HW218741   3.454   1.838   9.432
38970SOL     OW18742   0.099  11.403  13.292
38970SOL    HW118743   0.045  11.479  13.315
38970SOL    HW218744   0.147  11.430  13.214
38971SOL     OW18745  14.233  11.037   7.765
38971SOL    HW118746  14.161  10.975   7.772
38971SOL    HW218747  14.275  11.016   7.682
38972SOL     OW18748   7.175   6.962   8.928
38972SOL    HW118749   7.188   6.922   8.842
38972SOL    HW218750   7.127   7.043   8.909
38973SOL     OW18751  13.668  11.351   6.227
38973SOL    HW118752  13.596  11.347   6.289
38973SOL    HW218753  13.647  11.426   6.171
38974SOL     OW18754  12.441  11.414   1.490
38974SOL    HW118755  12.481  11.331   1.466
38974SOL    HW218756  12.354  11.391   1.523
38975SOL     OW18757  12.451  11.479   2.326
38975SOL    HW118758  12.411  11.403   2.285
38975SOL    HW218759  12.545  11.464   2.319
38976SOL     OW18760  12.857  10.237   7.220
38976SOL    HW118761  12.821  10.289   7.148
38976SOL    HW218762  12.791  10.242   7.289
38977SOL     OW18763   2.740   3.059   0.260
38977SOL    HW118764   2.783   3.053   0.345
38977SOL    HW218765   2.720   3.152   0.250
38978SOL     OW18766  11.040  13.490   5.427
38978SOL    HW118767  10.991  13.565   5.395
38978SOL    HW218768  10.987  13.414   5.401
38979SOL     OW18769   3.055   4.310   9.906
38979SOL    HW118770   3.050   4.400   9.872
38979SOL    HW218771   3.026   4.255   9.833
38980SOL     OW18772   9.069   7.836   0.092
38980SOL    HW118773   9.019   7.867   0.016
38980SOL    HW218774   9.161   7.841   0.064
38981SOL     OW18775   5.911  10.736   1.500
38981SOL    HW118776   5.864  10.814   1.528
38981SOL    HW218777   5.972  10.717   1.572
38982SOL     OW18778  12.056   5.263   5.843
38982SOL    HW118779  11.970   5.235   5.874
38982SOL    HW218780  12.085   5.193   5.785
38983SOL     OW18781  12.825   4.519  11.954
38983SOL    HW118782  12.897   4.546  11.896
38983SOL    HW218783  12.773   4.599  11.966
38984SOL     OW18784   8.698   8.204   0.686
38984SOL    HW118785   8.634   8.273   0.702
38984SOL    HW218786   8.699   8.152   0.766
38985SOL     OW18787   9.582   7.304  11.071
38985SOL    HW118788   9.637   7.226  11.073
38985SOL    HW218789   9.585   7.333  10.980
38986SOL     OW18790   8.437   8.937  10.763
38986SOL    HW118791   8.347   8.934  10.732
38986SOL    HW218792   8.480   8.862  10.722
38987SOL     OW18793   9.436  12.035   8.049
38987SOL    HW118794   9.429  12.112   7.992
38987SOL    HW218795   9.353  11.989   8.037
38988SOL     OW18796  12.059   8.456   7.737
38988SOL    HW118797  11.973   8.421   7.713
38988SOL    HW218798  12.121   8.403   7.686
38989SOL     OW18799  13.715   6.698   7.208
38989SOL    HW118800  13.773   6.652   7.147
38989SOL    HW218801  13.647   6.735   7.152
38990SOL     OW18802   3.642   1.160   9.342
38990SOL    HW118803   3.695   1.084   9.364
38990SOL    HW218804   3.699   1.235   9.359
38991SOL     OW18805   9.930   9.303   2.995
38991SOL    HW118806   9.852   9.348   3.027
38991SOL    HW218807   9.916   9.295   2.901
38992SOL     OW18808   4.581  12.161   1.753
38992SOL    HW118809   4.560  12.238   1.700
38992SOL    HW218810   4.547  12.182   1.840
38993SOL     OW18811  13.519  10.144  11.157
38993SOL    HW118812  13.602  10.096  11.151
38993SOL    HW218813  13.467  10.110  11.084
38994SOL     OW18814  11.737   7.847  10.046
38994SOL    HW118815  11.657   7.809  10.010
38994SOL    HW218816  11.778   7.891   9.971
38995SOL     OW18817   8.859   8.941   7.492
38995SOL    HW118818   8.947   8.967   7.516
38995SOL    HW218819   8.855   8.953   7.397
38996SOL     OW18820   5.298   5.731  11.748
38996SOL    HW118821   5.254   5.760  11.828
38996SOL    HW218822   5.390   5.753  11.762
38997SOL     OW18823   0.788   3.197   1.913
38997SOL    HW118824   0.720   3.243   1.962
38997SOL    HW218825   0.741   3.150   1.845
38998SOL     OW18826   5.089   5.997   3.669
38998SOL    HW118827   5.104   6.063   3.602
38998SOL    HW218828   5.067   6.047   3.747
38999SOL     OW18829   8.158   7.108  14.234
38999SOL    HW118830   8.209   7.189  14.228
38999SOL    HW218831   8.126   7.107  14.325
39000SOL     OW18832   4.904   9.178  10.992
39000SOL    HW118833   4.862   9.124  10.925
39000SOL    HW218834   4.989   9.137  11.007
39001SOL     OW18835   3.815  11.705  12.687
39001SOL    HW118836   3.847  11.633  12.633
39001SOL    HW218837   3.740  11.740  12.639
39002SOL     OW18838   9.707   1.161   8.039
39002SOL    HW118839   9.709   1.103   8.115
39002SOL    HW218840   9.737   1.107   7.966
39003SOL     OW18841  12.687   4.762  13.036
39003SOL    HW118842  12.676   4.856  13.048
39003SOL    HW218843  12.630   4.723  13.103
39004SOL     OW18844  13.632   0.547   0.718
39004SOL    HW118845  13.716   0.589   0.738
39004SOL    HW218846  13.596   0.598   0.646
39005SOL     OW18847  13.660  13.884  12.740
39005SOL    HW118848  13.645  13.891  12.646
39005SOL    HW218849  13.628  13.967  12.776
39006SOL     OW18850   2.366  11.297   1.341
39006SOL    HW118851   2.283  11.332   1.372
39006SOL    HW218852   2.429  11.325   1.408
39007SOL     OW18853   5.200   0.040   3.599
39007SOL    HW118854   5.127  14.870   3.644
39007SOL    HW218855   5.166   0.126   3.576
39008SOL     OW18856   9.521   0.290   2.053
39008SOL    HW118857   9.428   0.305   2.039
39008SOL    HW218858   9.525   0.234   2.131
39009SOL     OW18859  14.022  13.094   6.041
39009SOL    HW118860  14.006  13.098   6.135
39009SOL    HW218861  14.114  13.069   6.033
39010SOL     OW18862   2.256  10.734   1.471
39010SOL    HW118863   2.267  10.812   1.525
39010SOL    HW218864   2.345  10.710   1.445
39011SOL     OW18865  12.748  12.139  13.164
39011SOL    HW118866  12.813  12.156  13.232
39011SOL    HW218867  12.668  12.118  13.211
39012SOL     OW18868  14.819   8.557  11.938
39012SOL    HW118869  14.770   8.486  11.978
39012SOL    HW218870  14.843   8.615  12.011
39013SOL     OW18871  12.006   0.158   8.865
39013SOL    HW118872  12.040   0.139   8.778
39013SOL    HW218873  12.061   0.229   8.898
39014SOL     OW18874  12.498   6.974  11.864
39014SOL    HW118875  12.491   6.947  11.956
39014SOL    HW218876  12.590   6.998  11.853
39015SOL     OW18877   9.014   6.144   1.765
39015SOL    HW118878   8.979   6.056   1.752
39015SOL    HW218879   8.939   6.202   1.754
39016SOL     OW18880  13.427   3.451  11.789
39016SOL    HW118881  13.443   3.377  11.847
39016SOL    HW218882  13.367   3.418  11.723
39017SOL     OW18883   9.011  14.048   0.589
39017SOL    HW118884   8.951  13.975   0.574
39017SOL    HW218885   9.045  14.033   0.677
39018SOL     OW18886   4.265  12.205   2.171
39018SOL    HW118887   4.292  12.266   2.103
39018SOL    HW218888   4.303  12.121   2.145
39019SOL     OW18889   8.570  14.836   9.275
39019SOL    HW118890   8.486  14.794   9.256
39019SOL    HW218891   8.550   0.057   9.275
39020SOL     OW18892  12.226  11.963   6.036
39020SOL    HW118893  12.196  11.937   5.948
39020SOL    HW218894  12.189  12.050   6.049
39021SOL     OW18895   3.327   1.931  12.408
39021SOL    HW118896   3.304   2.024  12.417
39021SOL    HW218897   3.419   1.933  12.379
39022SOL     OW18898   9.972  13.601   1.033
39022SOL    HW118899  10.051  13.628   0.986
39022SOL    HW218900   9.942  13.523   0.986
39023SOL     OW18901   7.385   0.121  11.557
39023SOL    HW118902   7.360   0.139  11.648
39023SOL    HW218903   7.373   0.204  11.511
39024SOL     OW18904   4.696   0.338   7.074
39024SOL    HW118905   4.628   0.326   7.141
39024SOL    HW218906   4.676   0.424   7.036
39025SOL     OW18907   5.588   7.234  14.686
39025SOL    HW118908   5.655   7.221  14.618
39025SOL    HW218909   5.531   7.158  14.679
39026SOL     OW18910   2.487   3.181  14.428
39026SOL    HW118911   2.397   3.149  14.415
39026SOL    HW218912   2.479   3.276  14.424
39027SOL     OW18913  12.001  13.644   2.387
39027SOL    HW118914  11.967  13.583   2.452
39027SOL    HW218915  12.033  13.718   2.439
39028SOL     OW18916   1.445  14.648   4.515
39028SOL    HW118917   1.447  14.680   4.426
39028SOL    HW218918   1.389  14.570   4.511
39029SOL     OW18919   6.623   4.172   6.970
39029SOL    HW118920   6.598   4.081   6.984
39029SOL    HW218921   6.606   4.216   7.054
39030SOL     OW18922   4.541   8.306  10.442
39030SOL    HW118923   4.570   8.226  10.397
39030SOL    HW218924   4.602   8.374  10.411
39031SOL     OW18925   0.892  11.600  14.035
39031SOL    HW118926   0.985  11.622  14.039
39031SOL    HW218927   0.874  11.591  13.941
39032SOL     OW18928   1.685   1.082   1.554
39032SOL    HW118929   1.705   0.991   1.574
39032SOL    HW218930   1.765   1.117   1.515
39033SOL     OW18931   6.254   7.925   7.887
39033SOL    HW118932   6.189   7.858   7.904
39033SOL    HW218933   6.208   7.990   7.834
39034SOL     OW18934  14.148  11.857   1.146
39034SOL    HW118935  14.100  11.912   1.208
39034SOL    HW218936  14.239  11.862   1.176
39035SOL     OW18937   6.438   2.891   5.218
39035SOL    HW118938   6.368   2.837   5.181
39035SOL    HW218939   6.517   2.840   5.203
39036SOL     OW18940  13.647   3.959   2.136
39036SOL    HW118941  13.645   3.874   2.179
39036SOL    HW218942  13.565   3.964   2.087
39037SOL     OW18943   2.423   4.274   9.119
39037SOL    HW118944   2.402   4.184   9.144
39037SOL    HW218945   2.433   4.321   9.202
39038SOL     OW18946   3.561   9.591  14.819
39038SOL    HW118947   3.518   9.506  14.824
39038SOL    HW218948   3.608   9.588  14.735
39039SOL     OW18949  13.357   7.060   4.019
39039SOL    HW118950  13.437   7.085   3.973
39039SOL    HW218951  13.310   7.143   4.031
39040SOL     OW18952  14.255   2.913  11.319
39040SOL    HW118953  14.242   3.007  11.305
39040SOL    HW218954  14.258   2.903  11.414
39041SOL     OW18955  11.247   2.516  13.068
39041SOL    HW118956  11.256   2.553  12.980
39041SOL    HW218957  11.210   2.587  13.120
39042SOL     OW18958   5.232   0.066   0.863
39042SOL    HW118959   5.266   0.153   0.842
39042SOL    HW218960   5.291   0.033   0.931
39043SOL     OW18961  12.128   4.308   9.604
39043SOL    HW118962  12.095   4.320   9.693
39043SOL    HW218963  12.216   4.271   9.616
39044SOL     OW18964  14.814  12.643   0.376
39044SOL    HW118965  14.762  12.568   0.406
39044SOL    HW218966   0.032  12.619   0.397
39045SOL     OW18967   5.030   0.351   2.560
39045SOL    HW118968   5.026   0.438   2.520
39045SOL    HW218969   5.025   0.291   2.485
39046SOL     OW18970  13.608   0.330   8.097
39046SOL    HW118971  13.682   0.284   8.138
39046SOL    HW218972  13.564   0.262   8.046
39047SOL     OW18973   9.907   8.307  11.632
39047SOL    HW118974   9.860   8.267  11.559
39047SOL    HW218975   9.969   8.367  11.591
39048SOL     OW18976  14.492   0.576   3.581
39048SOL    HW118977  14.453   0.489   3.592
39048SOL    HW218978  14.560   0.580   3.648
39049SOL     OW18979   7.611   5.295   5.825
39049SOL    HW118980   7.698   5.326   5.799
39049SOL    HW218981   7.626   5.206   5.859
39050SOL     OW18982   7.941   5.149   2.309
39050SOL    HW118983   7.868   5.204   2.281
39050SOL    HW218984   7.951   5.085   2.239
39051SOL     OW18985   6.401   7.882   6.530
39051SOL    HW118986   6.456   7.851   6.602
39051SOL    HW218987   6.357   7.803   6.499
39052SOL     OW18988   7.690   9.631   9.286
39052SOL    HW118989   7.654   9.703   9.339
39052SOL    HW218990   7.632   9.627   9.210
39053SOL     OW18991   0.348  14.639  11.906
39053SOL    HW118992   0.403  14.673  11.976
39053SOL    HW218993   0.285  14.582  11.950
39054SOL     OW18994   1.095  13.180  13.598
39054SOL    HW118995   1.171  13.172  13.656
39054SOL    HW218996   1.107  13.110  13.534
39055SOL     OW18997   4.640  10.084   6.429
39055SOL    HW118998   4.612  10.003   6.472
39055SOL    HW218999   4.716  10.059   6.378
39056SOL     OW19000   0.227  13.777   2.719
39056SOL    HW119001   0.315  13.782   2.681
39056SOL    HW219002   0.241  13.790   2.813
39057SOL     OW19003  12.031  12.609   4.941
39057SOL    HW119004  11.945  12.569   4.923
39057SOL    HW219005  12.030  12.691   4.892
39058SOL     OW19006   4.595   6.222   0.295
39058SOL    HW119007   4.532   6.209   0.224
39058SOL    HW219008   4.597   6.138   0.341
39059SOL     OW19009  10.566   1.013   7.064
39059SOL    HW119010  10.565   1.071   6.987
39059SOL    HW219011  10.532   0.929   7.031
39060SOL     OW19012   3.993   9.031  11.455
39060SOL    HW119013   4.043   9.102  11.496
39060SOL    HW219014   3.909   9.031  11.501
39061SOL     OW19015  12.304   9.420  13.495
39061SOL    HW119016  12.248   9.459  13.562
39061SOL    HW219017  12.392   9.425  13.533
39062SOL     OW19018  13.564   9.361   9.701
39062SOL    HW119019  13.508   9.296   9.744
39062SOL    HW219020  13.593   9.418   9.772
39063SOL     OW19021   3.814   1.058   6.080
39063SOL    HW119022   3.877   1.054   6.008
39063SOL    HW219023   3.767   1.140   6.066
39064SOL     OW19024   1.575   8.891  11.169
39064SOL    HW119025   1.668   8.867  11.175
39064SOL    HW219026   1.554   8.879  11.076
39065SOL     OW19027   3.501  10.032   6.950
39065SOL    HW119028   3.502   9.977   7.029
39065SOL    HW219029   3.588  10.022   6.912
39066SOL     OW19030   6.855   9.695   9.263
39066SOL    HW119031   6.804   9.626   9.305
39066SOL    HW219032   6.831   9.774   9.312
39067SOL     OW19033  12.382   0.069   0.418
39067SOL    HW119034  12.370   0.002   0.486
39067SOL    HW219035  12.477   0.071   0.403
39068SOL     OW19036   1.424   3.152   3.301
39068SOL    HW119037   1.465   3.066   3.295
39068SOL    HW219038   1.398   3.172   3.211
39069SOL     OW19039   2.863   3.804   4.086
39069SOL    HW119040   2.807   3.735   4.121
39069SOL    HW219041   2.821   3.885   4.112
39070SOL     OW19042   0.691  12.882   8.222
39070SOL    HW119043   0.680  12.812   8.159
39070SOL    HW219044   0.713  12.959   8.169
39071SOL     OW19045   7.936   8.096  12.627
39071SOL    HW119046   7.913   8.037  12.555
39071SOL    HW219047   7.980   8.039  12.691
39072SOL     OW19048  14.738   9.680   6.064
39072SOL    HW119049  14.795   9.755   6.078
39072SOL    HW219050  14.730   9.640   6.151
39073SOL     OW19051   3.534   9.352   9.298
39073SOL    HW119052   3.593   9.309   9.237
39073SOL    HW219053   3.494   9.280   9.347
39074SOL     OW19054   4.920   5.735   7.024
39074SOL    HW119055   4.974   5.813   7.020
39074SOL    HW219056   4.830   5.768   7.023
39075SOL     OW19057   7.423   5.813   8.706
39075SOL    HW119058   7.471   5.742   8.750
39075SOL    HW219059   7.490   5.860   8.657
39076SOL     OW19060   4.599   2.187  12.903
39076SOL    HW119061   4.653   2.147  12.835
39076SOL    HW219062   4.562   2.113  12.951
39077SOL     OW19063   7.279  13.752  10.743
39077SOL    HW119064   7.204  13.693  10.732
39077SOL    HW219065   7.331  13.740  10.664
39078SOL     OW19066   7.304   6.425   7.305
39078SOL    HW119067   7.251   6.362   7.353
39078SOL    HW219068   7.333   6.377   7.227
39079SOL     OW19069   5.489  11.833   6.710
39079SOL    HW119070   5.462  11.776   6.782
39079SOL    HW219071   5.408  11.868   6.675
39080SOL     OW19072  14.599  12.940  14.054
39080SOL    HW119073  14.603  12.846  14.040
39080SOL    HW219074  14.572  12.977  13.970
39081SOL     OW19075   1.044  13.746  14.847
39081SOL    HW119076   1.104  13.804  14.800
39081SOL    HW219077   1.006  13.690  14.779
39082SOL     OW19078  11.102  14.439   6.736
39082SOL    HW119079  11.124  14.532   6.742
39082SOL    HW219080  11.141  14.411   6.653
39083SOL     OW19081  14.416   4.949   7.045
39083SOL    HW119082  14.469   4.872   7.062
39083SOL    HW219083  14.391   4.981   7.131
39084SOL     OW19084  13.759   1.912   3.441
39084SOL    HW119085  13.798   1.872   3.364
39084SOL    HW219086  13.745   2.004   3.417
39085SOL     OW19087   9.358  11.803  14.618
39085SOL    HW119088   9.388  11.718  14.585
39085SOL    HW219089   9.437  11.848  14.646
39086SOL     OW19090   3.690  12.370   7.021
39086SOL    HW119091   3.597  12.348   7.018
39086SOL    HW219092   3.691  12.465   7.035
39087SOL     OW19093   9.488   5.678  11.375
39087SOL    HW119094   9.484   5.654  11.468
39087SOL    HW219095   9.549   5.615  11.337
39088SOL     OW19096   1.362   1.672   2.082
39088SOL    HW119097   1.362   1.590   2.034
39088SOL    HW219098   1.424   1.658   2.154
39089SOL     OW19099   8.895   7.737   4.850
39089SOL    HW119100   8.890   7.658   4.798
39089SOL    HW219101   8.962   7.790   4.807
39090SOL     OW19102  10.339   8.086  11.426
39090SOL    HW119103  10.348   8.124  11.514
39090SOL    HW219104  10.333   8.162  11.368
39091SOL     OW19105   8.238   0.092   8.927
39091SOL    HW119106   8.324   0.061   8.899
39091SOL    HW219107   8.177   0.049   8.867
39092SOL     OW19108   6.597   2.059  10.275
39092SOL    HW119109   6.661   2.120  10.240
39092SOL    HW219110   6.649   1.987  10.311
39093SOL     OW19111  10.372  13.938   4.846
39093SOL    HW119112  10.282  13.930   4.877
39093SOL    HW219113  10.411  13.852   4.862
39094SOL     OW19114   2.710   5.534  14.749
39094SOL    HW119115   2.704   5.492  14.835
39094SOL    HW219116   2.621   5.528  14.714
39095SOL     OW19117   7.916  12.706  12.926
39095SOL    HW119118   7.919  12.802  12.925
39095SOL    HW219119   7.869  12.684  13.006
39096SOL     OW19120   6.247   5.585   0.871
39096SOL    HW119121   6.174   5.618   0.922
39096SOL    HW219122   6.297   5.664   0.847
39097SOL     OW19123   4.962   8.340   7.252
39097SOL    HW119124   4.868   8.359   7.248
39097SOL    HW219125   4.986   8.319   7.162
39098SOL     OW19126   8.138   8.229   1.972
39098SOL    HW119127   8.192   8.151   1.985
39098SOL    HW219128   8.193   8.301   2.003
39099SOL     OW19129   0.160   2.448   3.997
39099SOL    HW119130   0.099   2.375   3.985
39099SOL    HW219131   0.144   2.506   3.922
39100SOL     OW19132  11.242   3.374   9.269
39100SOL    HW119133  11.280   3.462   9.266
39100SOL    HW219134  11.202   3.369   9.356
39101SOL     OW19135   3.261  12.259  12.835
39101SOL    HW119136   3.314  12.261  12.914
39101SOL    HW219137   3.175  12.291  12.862
39102SOL     OW19138   2.831  13.188   1.630
39102SOL    HW119139   2.904  13.225   1.679
39102SOL    HW219140   2.839  13.093   1.643
39103SOL     OW19141   2.351   9.243  10.004
39103SOL    HW119142   2.316   9.226  10.091
39103SOL    HW219143   2.392   9.161   9.977
39104SOL     OW19144   3.562   0.475   9.201
39104SOL    HW119145   3.511   0.434   9.271
39104SOL    HW219146   3.565   0.568   9.225
39105SOL     OW19147   1.056   1.252   6.456
39105SOL    HW119148   1.108   1.248   6.537
39105SOL    HW219149   1.113   1.298   6.394
39106SOL     OW19150   6.965   7.617   7.630
39106SOL    HW119151   6.950   7.525   7.608
39106SOL    HW219152   7.047   7.639   7.587
39107SOL     OW19153   2.119   7.566   7.847
39107SOL    HW119154   2.112   7.640   7.907
39107SOL    HW219155   2.093   7.490   7.900
39108SOL     OW19156   7.848  10.682   2.105
39108SOL    HW119157   7.913  10.672   2.036
39108SOL    HW219158   7.773  10.630   2.076
39109SOL     OW19159  10.937   4.392  12.732
39109SOL    HW119160  11.001   4.462  12.746
39109SOL    HW219161  10.871   4.406  12.800
39110SOL     OW19162   6.613  11.033   6.156
39110SOL    HW119163   6.586  10.985   6.234
39110SOL    HW219164   6.581  11.122   6.170
39111SOL     OW19165   2.279  13.947   2.701
39111SOL    HW119166   2.253  13.882   2.766
39111SOL    HW219167   2.236  13.918   2.620
39112SOL     OW19168   0.430   9.728  13.557
39112SOL    HW119169   0.487   9.653  13.575
39112SOL    HW219170   0.376   9.737  13.636
39113SOL     OW19171   9.348   8.778   5.439
39113SOL    HW119172   9.290   8.745   5.370
39113SOL    HW219173   9.291   8.789   5.515
39114SOL     OW19174   8.856   1.694   2.489
39114SOL    HW119175   8.920   1.763   2.506
39114SOL    HW219176   8.785   1.711   2.551
39115SOL     OW19177   6.082   2.716  12.415
39115SOL    HW119178   6.037   2.713  12.330
39115SOL    HW219179   6.164   2.671  12.400
39116SOL     OW19180   7.211   5.384  13.455
39116SOL    HW119181   7.150   5.433  13.400
39116SOL    HW219182   7.218   5.437  13.535
39117SOL     OW19183   5.535   5.095   6.025
39117SOL    HW119184   5.443   5.075   6.008
39117SOL    HW219185   5.554   5.049   6.107
39118SOL     OW19186   8.557   8.273   5.816
39118SOL    HW119187   8.487   8.291   5.753
39118SOL    HW219188   8.512   8.239   5.893
39119SOL     OW19189   2.165  11.307   7.776
39119SOL    HW119190   2.218  11.263   7.708
39119SOL    HW219191   2.212  11.388   7.794
39120SOL     OW19192  10.491   5.697   7.128
39120SOL    HW119193  10.571   5.744   7.102
39120SOL    HW219194  10.511   5.605   7.110
39121SOL     OW19195   2.463   0.555   0.321
39121SOL    HW119196   2.374   0.518   0.321
39121SOL    HW219197   2.515   0.493   0.270
39122SOL     OW19198   6.378   9.072  10.764
39122SOL    HW119199   6.446   9.019  10.722
39122SOL    HW219200   6.365   9.146  10.705
39123SOL     OW19201   1.610   4.515   8.813
39123SOL    HW119202   1.518   4.489   8.807
39123SOL    HW219203   1.647   4.494   8.728
39124SOL     OW19204   0.561   5.028  10.636
39124SOL    HW119205   0.470   5.037  10.664
39124SOL    HW219206   0.560   4.954  10.575
39125SOL     OW19207   0.803  10.874   7.278
39125SOL    HW119208   0.828  10.890   7.368
39125SOL    HW219209   0.715  10.912   7.270
39126SOL     OW19210  11.492   1.370   8.834
39126SOL    HW119211  11.439   1.396   8.760
39126SOL    HW219212  11.463   1.281   8.855
39127SOL     OW19213  12.611   8.365   4.805
39127SOL    HW119214  12.692   8.408   4.831
39127SOL    HW219215  12.545   8.434   4.806
39128SOL     OW19216   7.696   1.913   5.517
39128SOL    HW119217   7.680   1.988   5.574
39128SOL    HW219218   7.783   1.881   5.543
39129SOL     OW19219   6.586   5.404   2.134
39129SOL    HW119220   6.588   5.368   2.223
39129SOL    HW219221   6.598   5.498   2.146
39130SOL     OW19222   4.599   6.613   4.235
39130SOL    HW119223   4.580   6.531   4.190
39130SOL    HW219224   4.633   6.587   4.320
39131SOL     OW19225   3.459  11.666  10.301
39131SOL    HW119226   3.393  11.700  10.362
39131SOL    HW219227   3.516  11.741  10.285
39132SOL     OW19228   0.938   7.836   1.047
39132SOL    HW119229   0.921   7.753   1.091
39132SOL    HW219230   1.032   7.836   1.031
39133SOL     OW19231  11.638   7.496   7.422
39133SOL    HW119232  11.659   7.582   7.459
39133SOL    HW219233  11.578   7.516   7.350
39134SOL     OW19234   4.238   9.596   6.196
39134SOL    HW119235   4.307   9.603   6.262
39134SOL    HW219236   4.281   9.553   6.122
39135SOL     OW19237   1.606   2.710  13.314
39135SOL    HW119238   1.577   2.786  13.365
39135SOL    HW219239   1.568   2.723  13.227
39136SOL     OW19240   8.427   6.499   8.343
39136SOL    HW119241   8.366   6.534   8.277
39136SOL    HW219242   8.390   6.528   8.427
39137SOL     OW19243   6.063   6.701   9.869
39137SOL    HW119244   6.025   6.782   9.834
39137SOL    HW219245   6.130   6.676   9.806
39138SOL     OW19246   3.708   1.049   5.187
39138SOL    HW119247   3.660   0.987   5.133
39138SOL    HW219248   3.765   1.095   5.126
39139SOL     OW19249  11.765   3.137   6.516
39139SOL    HW119250  11.816   3.134   6.435
39139SOL    HW219251  11.764   3.047   6.547
39140SOL     OW19252   8.707   6.756   4.103
39140SOL    HW119253   8.685   6.845   4.130
39140SOL    HW219254   8.766   6.767   4.028
39141SOL     OW19255   9.611   4.898  14.709
39141SOL    HW119256   9.679   4.944  14.758
39141SOL    HW219257   9.627   4.923  14.617
39142SOL     OW19258  11.865   0.501   6.893
39142SOL    HW119259  11.787   0.474   6.844
39142SOL    HW219260  11.857   0.596   6.900
39143SOL     OW19261  13.750   0.255   2.708
39143SOL    HW119262  13.804   0.198   2.763
39143SOL    HW219263  13.713   0.196   2.642
39144SOL     OW19264   9.148  13.633  13.573
39144SOL    HW119265   9.176  13.700  13.511
39144SOL    HW219266   9.223  13.623  13.632
39145SOL     OW19267  14.637   7.843   7.034
39145SOL    HW119268  14.599   7.906   6.973
39145SOL    HW219269  14.624   7.883   7.120
39146SOL     OW19270   8.277  10.087  10.551
39146SOL    HW119271   8.313  10.004  10.518
39146SOL    HW219272   8.184  10.082  10.532
39147SOL     OW19273  14.810   9.026   6.598
39147SOL    HW119274  14.716   9.015   6.592
39147SOL    HW219275  14.828   9.030   6.692
39148SOL     OW19276  12.363   0.663  12.981
39148SOL    HW119277  12.414   0.587  13.007
39148SOL    HW219278  12.367   0.722  13.056
39149SOL     OW19279  13.425   3.901  13.731
39149SOL    HW119280  13.360   3.900  13.661
39149SOL    HW219281  13.449   3.809  13.743
39150SOL     OW19282   5.480  10.304   8.847
39150SOL    HW119283   5.427  10.227   8.869
39150SOL    HW219284   5.521  10.329   8.929
39151SOL     OW19285   5.674   8.167  13.006
39151SOL    HW119286   5.759   8.185  12.965
39151SOL    HW219287   5.657   8.075  12.986
39152SOL     OW19288   2.691   3.614   4.203
39152SOL    HW119289   2.639   3.568   4.137
39152SOL    HW219290   2.640   3.605   4.283
39153SOL     OW19291  14.390   9.666   8.063
39153SOL    HW119292  14.381   9.691   7.971
39153SOL    HW219293  14.437   9.739   8.103
39154SOL     OW19294   8.845   8.252  11.889
39154SOL    HW119295   8.834   8.180  11.950
39154SOL    HW219296   8.801   8.326  11.931
39155SOL     OW19297  13.983   3.851  14.217
39155SOL    HW119298  13.994   3.932  14.167
39155SOL    HW219299  13.942   3.878  14.299
39156SOL     OW19300   7.527   0.858   4.287
39156SOL    HW119301   7.560   0.926   4.347
39156SOL    HW219302   7.432   0.856   4.304
39157SOL     OW19303   8.114   4.465  11.603
39157SOL    HW119304   8.143   4.525  11.672
39157SOL    HW219305   8.095   4.383  11.650
39158SOL     OW19306   5.463   8.770  12.465
39158SOL    HW119307   5.447   8.684  12.426
39158SOL    HW219308   5.415   8.769  12.548
39159SOL     OW19309   9.719   5.236   0.616
39159SOL    HW119310   9.733   5.156   0.668
39159SOL    HW219311   9.636   5.272   0.649
39160SOL     OW19312   7.885   5.232   7.775
39160SOL    HW119313   7.791   5.219   7.791
39160SOL    HW219314   7.920   5.260   7.860
39161SOL     OW19315   1.214  12.782   4.873
39161SOL    HW119316   1.159  12.727   4.817
39161SOL    HW219317   1.199  12.871   4.842
39162SOL     OW19318   1.226  12.050  10.765
39162SOL    HW119319   1.260  12.136  10.738
39162SOL    HW219320   1.160  12.069  10.832
39163SOL     OW19321   7.908   1.061   1.335
39163SOL    HW119322   7.976   1.072   1.401
39163SOL    HW219323   7.914   0.968   1.310
39164SOL     OW19324   1.285   3.016  14.762
39164SOL    HW119325   1.281   3.065  14.844
39164SOL    HW219326   1.200   3.029  14.721
39165SOL     OW19327   4.551  12.329   0.500
39165SOL    HW119328   4.598  12.271   0.560
39165SOL    HW219329   4.480  12.275   0.465
39166SOL     OW19330   2.292   6.320   8.671
39166SOL    HW119331   2.366   6.295   8.614
39166SOL    HW219332   2.271   6.239   8.718
39167SOL     OW19333  12.193   9.166  10.085
39167SOL    HW119334  12.245   9.116  10.148
39167SOL    HW219335  12.257   9.216  10.035
39168SOL     OW19336   5.762  12.115   6.564
39168SOL    HW119337   5.802  12.132   6.650
39168SOL    HW219338   5.836  12.106   6.504
39169SOL     OW19339   2.193  13.164  12.467
39169SOL    HW119340   2.286  13.184  12.459
39169SOL    HW219341   2.158  13.176  12.379
39170SOL     OW19342   8.160   7.220  11.899
39170SOL    HW119343   8.068   7.202  11.880
39170SOL    HW219344   8.204   7.136  11.888
39171SOL     OW19345   0.058   5.863   6.701
39171SOL    HW119346   0.054   5.770   6.725
39171SOL    HW219347   0.032   5.910   6.780
39172SOL     OW19348  14.453  13.057   6.697
39172SOL    HW119349  14.362  13.034   6.679
39172SOL    HW219350  14.501  12.974   6.691
39173SOL     OW19351  12.416   2.651  10.279
39173SOL    HW119352  12.476   2.709  10.233
39173SOL    HW219353  12.404   2.576  10.221
39174SOL     OW19354  13.617   8.387   3.313
39174SOL    HW119355  13.556   8.359   3.244
39174SOL    HW219356  13.670   8.309   3.330
39175SOL     OW19357   3.350  11.271  10.243
39175SOL    HW119358   3.278  11.323  10.208
39175SOL    HW219359   3.424  11.289  10.185
39176SOL     OW19360   4.223  12.566  11.357
39176SOL    HW119361   4.231  12.610  11.272
39176SOL    HW219362   4.263  12.480  11.343
39177SOL     OW19363   6.377   0.872  11.945
39177SOL    HW119364   6.388   0.964  11.920
39177SOL    HW219365   6.463   0.845  11.978
39178SOL     OW19366   9.530   1.994   8.169
39178SOL    HW119367   9.493   2.080   8.188
39178SOL    HW219368   9.625   2.009   8.170
39179SOL     OW19369   9.431   5.109   3.248
39179SOL    HW119370   9.428   5.192   3.297
39179SOL    HW219371   9.345   5.069   3.264
39180SOL     OW19372  13.283   2.528   3.581
39180SOL    HW119373  13.255   2.617   3.602
39180SOL    HW219374  13.275   2.480   3.663
39181SOL     OW19375   0.010   2.905   0.358
39181SOL    HW119376  14.799   2.877   0.320
39181SOL    HW219377  14.862   2.925   0.450
39182SOL     OW19378   9.035  14.011   2.135
39182SOL    HW119379   8.968  14.004   2.203
39182SOL    HW219380   9.080  13.926   2.137
39183SOL     OW19381   3.121   4.260   4.078
39183SOL    HW119382   3.095   4.310   4.156
39183SOL    HW219383   3.041   4.256   4.025
39184SOL     OW19384   3.230  10.516   1.801
39184SOL    HW119385   3.225  10.444   1.738
39184SOL    HW219386   3.146  10.516   1.846
39185SOL     OW19387  10.320   2.289  13.273
39185SOL    HW119388  10.309   2.270  13.366
39185SOL    HW219389  10.403   2.247  13.250
39186SOL     OW19390   1.269   2.707   8.776
39186SOL    HW119391   1.301   2.621   8.749
39186SOL    HW219392   1.174   2.701   8.771
39187SOL     OW19393   1.023  13.145   6.592
39187SOL    HW119394   1.054  13.192   6.514
39187SOL    HW219395   0.985  13.064   6.558
39188SOL     OW19396  12.893  12.941  11.719
39188SOL    HW119397  12.843  13.021  11.703
39188SOL    HW219398  12.829  12.870  11.706
39189SOL     OW19399   8.516   5.355   2.249
39189SOL    HW119400   8.435   5.326   2.291
39189SOL    HW219401   8.584   5.340   2.315
39190SOL     OW19402  14.305   9.199  11.456
39190SOL    HW119403  14.308   9.286  11.415
39190SOL    HW219404  14.345   9.141  11.392
39191SOL     OW19405  13.964   8.515  13.129
39191SOL    HW119406  13.970   8.599  13.083
39191SOL    HW219407  14.052   8.477  13.119
39192SOL     OW19408  12.245  10.040   7.246
39192SOL    HW119409  12.242   9.944   7.244
39192SOL    HW219410  12.292  10.061   7.326
39193SOL     OW19411   0.114   6.638   1.771
39193SOL    HW119412   0.195   6.648   1.721
39193SOL    HW219413   0.131   6.685   1.853
39194SOL     OW19414   8.366  11.814   2.014
39194SOL    HW119415   8.290  11.759   2.030
39194SOL    HW219416   8.330  11.901   1.999
39195SOL     OW19417   4.976   9.568   5.905
39195SOL    HW119418   4.920   9.504   5.861
39195SOL    HW219419   5.065   9.543   5.880
39196SOL     OW19420  11.249   1.037   5.752
39196SOL    HW119421  11.250   1.090   5.672
39196SOL    HW219422  11.163   1.053   5.791
39197SOL     OW19423   4.852   9.800   5.765
39197SOL    HW119424   4.823   9.760   5.682
39197SOL    HW219425   4.877   9.725   5.820
39198SOL     OW19426   6.046  11.379   7.847
39198SOL    HW119427   6.091  11.294   7.847
39198SOL    HW219428   5.969  11.365   7.792
39199SOL     OW19429  12.316   7.748   3.750
39199SOL    HW119430  12.401   7.735   3.791
39199SOL    HW219431  12.273   7.815   3.803
39200SOL     OW19432   6.050   1.819  11.856
39200SOL    HW119433   6.046   1.733  11.814
39200SOL    HW219434   5.962   1.832  11.892
39201SOL     OW19435   1.349  11.386  13.498
39201SOL    HW119436   1.415  11.383  13.428
39201SOL    HW219437   1.268  11.411  13.453
39202SOL     OW19438   1.888   7.518  11.004
39202SOL    HW119439   1.845   7.448  10.954
39202SOL    HW219440   1.957   7.549  10.946
39203SOL     OW19441  12.425  12.171   5.680
39203SOL    HW119442  12.333  12.178   5.704
39203SOL    HW219443  12.438  12.078   5.660
39204SOL     OW19444   0.030   1.605  11.928
39204SOL    HW119445   0.089   1.533  11.950
39204SOL    HW219446   0.056   1.631  11.839
39205SOL     OW19447  10.036   4.775   2.882
39205SOL    HW119448   9.996   4.702   2.836
39205SOL    HW219449   9.963   4.822   2.922
39206SOL     OW19450   9.256   5.725   7.250
39206SOL    HW119451   9.217   5.770   7.176
39206SOL    HW219452   9.347   5.755   7.251
39207SOL     OW19453   8.521  10.492   9.159
39207SOL    HW119454   8.602  10.442   9.168
39207SOL    HW219455   8.540  10.559   9.093
39208SOL     OW19456   6.057  10.824   4.606
39208SOL    HW119457   6.029  10.783   4.524
39208SOL    HW219458   6.149  10.847   4.591
39209SOL     OW19459  14.423   6.947  14.543
39209SOL    HW119460  14.338   6.907  14.523
39209SOL    HW219461  14.401   7.034  14.576
39210SOL     OW19462   7.763  13.436  13.302
39210SOL    HW119463   7.848  13.397  13.321
39210SOL    HW219464   7.699  13.377  13.340
39211SOL     OW19465   4.967  12.429   1.989
39211SOL    HW119466   4.971  12.374   1.910
39211SOL    HW219467   4.887  12.479   1.979
39212SOL     OW19468   4.290   2.483  10.497
39212SOL    HW119469   4.299   2.418  10.567
39212SOL    HW219470   4.280   2.567  10.543
39213SOL     OW19471  10.751   9.739  13.157
39213SOL    HW119472  10.836   9.703  13.135
39213SOL    HW219473  10.737   9.808  13.092
39214SOL     OW19474   8.942   5.518   1.928
39214SOL    HW119475   8.979   5.536   1.842
39214SOL    HW219476   8.851   5.495   1.910
39215SOL     OW19477   9.218  14.075   0.423
39215SOL    HW119478   9.250  14.158   0.457
39215SOL    HW219479   9.154  14.045   0.488
39216SOL     OW19480   8.463  12.462  14.493
39216SOL    HW119481   8.404  12.531  14.463
39216SOL    HW219482   8.491  12.417  14.413
39217SOL     OW19483  12.108   4.473  10.662
39217SOL    HW119484  12.028   4.420  10.660
39217SOL    HW219485  12.165   4.427  10.724
39218SOL     OW19486   2.219  12.474   5.198
39218SOL    HW119487   2.203  12.434   5.284
39218SOL    HW219488   2.289  12.421   5.160
39219SOL     OW19489  10.806   3.082   0.239
39219SOL    HW119490  10.883   3.063   0.186
39219SOL    HW219491  10.840   3.103   0.326
39220SOL     OW19492   2.559  12.487  13.805
39220SOL    HW119493   2.508  12.486  13.724
39220SOL    HW219494   2.602  12.572  13.805
39221SOL     OW19495  13.051   2.085  14.611
39221SOL    HW119496  13.046   2.174  14.645
39221SOL    HW219497  13.116   2.042  14.667
39222SOL     OW19498   8.465   5.574   4.239
39222SOL    HW119499   8.544   5.520   4.241
39222SOL    HW219500   8.397   5.519   4.279
39223SOL     OW19501   3.317   7.743   3.459
39223SOL    HW119502   3.327   7.828   3.500
39223SOL    HW219503   3.234   7.709   3.493
39224SOL     OW19504   5.937   5.052   8.811
39224SOL    HW119505   5.895   4.994   8.748
39224SOL    HW219506   6.031   5.038   8.798
39225SOL     OW19507   2.717  12.492  13.353
39225SOL    HW119508   2.780  12.444  13.406
39225SOL    HW219509   2.633  12.448  13.369
39226SOL     OW19510  12.971   1.450  10.538
39226SOL    HW119511  12.894   1.494  10.503
39226SOL    HW219512  13.045   1.499  10.501
39227SOL     OW19513   8.348   7.031  11.772
39227SOL    HW119514   8.313   7.068  11.691
39227SOL    HW219515   8.424   7.086  11.792
39228SOL     OW19516   4.175  12.475   7.084
39228SOL    HW119517   4.098  12.419   7.070
39228SOL    HW219518   4.219  12.436   7.160
39229SOL     OW19519  14.101   5.017   2.681
39229SOL    HW119520  14.137   5.012   2.592
39229SOL    HW219521  14.036   5.087   2.676
39230SOL     OW19522   6.184  12.017  14.040
39230SOL    HW119523   6.091  12.020  14.065
39230SOL    HW219524   6.194  12.088  13.977
39231SOL     OW19525  12.892   3.634   8.692
39231SOL    HW119526  12.987   3.627   8.684
39231SOL    HW219527  12.862   3.657   8.604
39232SOL     OW19528   0.117   4.019   2.356
39232SOL    HW119529   0.041   4.021   2.415
39232SOL    HW219530   0.161   3.937   2.378
39233SOL     OW19531   0.112   7.065   6.339
39233SOL    HW119532   0.119   6.993   6.402
39233SOL    HW219533   0.144   7.141   6.387
39234SOL     OW19534   4.988  14.275  11.423
39234SOL    HW119535   5.077  14.300  11.445
39234SOL    HW219536   4.982  14.288  11.328
39235SOL     OW19537   4.383   0.260  10.175
39235SOL    HW119538   4.310   0.264  10.237
39235SOL    HW219539   4.423   0.174  10.191
39236SOL     OW19540   5.965   5.244   9.900
39236SOL    HW119541   5.939   5.160   9.938
39236SOL    HW219542   5.891   5.269   9.845
39237SOL     OW19543   6.816   6.047  10.481
39237SOL    HW119544   6.852   6.026  10.568
39237SOL    HW219545   6.891   6.041  10.422
39238SOL     OW19546   0.200   8.769  11.386
39238SOL    HW119547   0.213   8.754  11.293
39238SOL    HW219548   0.223   8.686  11.428
39239SOL     OW19549   5.650  14.252   5.375
39239SOL    HW119550   5.742  14.228   5.373
39239SOL    HW219551   5.636  14.302   5.294
39240SOL     OW19552  10.042  13.683   2.334
39240SOL    HW119553  10.101  13.638   2.394
39240SOL    HW219554  10.049  13.635   2.252
39241SOL     OW19555   4.384   0.585   1.619
39241SOL    HW119556   4.310   0.632   1.658
39241SOL    HW219557   4.459   0.608   1.674
39242SOL     OW19558   8.147   9.405   2.543
39242SOL    HW119559   8.076   9.346   2.568
39242SOL    HW219560   8.219   9.346   2.518
39243SOL     OW19561  11.550   7.552  12.842
39243SOL    HW119562  11.557   7.457  12.856
39243SOL    HW219563  11.585   7.591  12.922
39244SOL     OW19564   4.160  13.086   2.075
39244SOL    HW119565   4.078  13.122   2.108
39244SOL    HW219566   4.137  13.049   1.990
39245SOL     OW19567  12.534  11.051   3.287
39245SOL    HW119568  12.452  11.009   3.315
39245SOL    HW219569  12.602  11.007   3.338
39246SOL     OW19570   4.788   8.784   4.411
39246SOL    HW119571   4.730   8.736   4.351
39246SOL    HW219572   4.840   8.716   4.454
39247SOL     OW19573   9.003   9.909   4.452
39247SOL    HW119574   8.996   9.867   4.538
39247SOL    HW219575   9.028   9.999   4.472
39248SOL     OW19576   5.752   9.356  13.011
39248SOL    HW119577   5.662   9.326  13.019
39248SOL    HW219578   5.785   9.358  13.101
39249SOL     OW19579  11.535  12.313  14.378
39249SOL    HW119580  11.569  12.364  14.452
39249SOL    HW219581  11.613  12.283  14.332
39250SOL     OW19582  12.085   3.906  12.574
39250SOL    HW119583  12.097   3.968  12.502
39250SOL    HW219584  12.173   3.888  12.605
39251SOL     OW19585   4.543   0.112   1.424
39251SOL    HW119586   4.453   0.103   1.455
39251SOL    HW219587   4.545   0.062   1.342
39252SOL     OW19588   5.494   6.415   5.840
39252SOL    HW119589   5.399   6.405   5.843
39252SOL    HW219590   5.524   6.384   5.925
39253SOL     OW19591   6.317   9.710  12.445
39253SOL    HW119592   6.384   9.650  12.411
39253SOL    HW219593   6.364   9.790  12.465
39254SOL     OW19594  13.829   9.571   5.520
39254SOL    HW119595  13.877   9.488   5.531
39254SOL    HW219596  13.750   9.547   5.473
39255SOL     OW19597   3.274   4.817  13.630
39255SOL    HW119598   3.293   4.806  13.537
39255SOL    HW219599   3.283   4.911  13.645
39256SOL     OW19600  11.826  12.297   2.835
39256SOL    HW119601  11.868  12.381   2.857
39256SOL    HW219602  11.853  12.280   2.744
39257SOL     OW19603  14.842   4.741   6.410
39257SOL    HW119604  14.768   4.792   6.377
39257SOL    HW219605   0.045   4.798   6.397
39258SOL     OW19606   5.769  10.303   5.008
39258SOL    HW119607   5.863  10.324   5.004
39258SOL    HW219608   5.760  10.250   5.087
39259SOL     OW19609   3.958  10.878   3.199
39259SOL    HW119610   3.927  10.792   3.228
39259SOL    HW219611   3.920  10.940   3.261
39260SOL     OW19612   3.965   9.875   2.767
39260SOL    HW119613   3.915   9.932   2.825
39260SOL    HW219614   4.042   9.850   2.817
39261SOL     OW19615   0.810   4.949   1.957
39261SOL    HW119616   0.733   4.936   1.902
39261SOL    HW219617   0.872   4.996   1.901
39262SOL     OW19618  13.800   6.467   0.802
39262SOL    HW119619  13.884   6.421   0.803
39262SOL    HW219620  13.813   6.539   0.741
39263SOL     OW19621   9.690   0.662   8.391
39263SOL    HW119622   9.738   0.619   8.462
39263SOL    HW219623   9.752   0.727   8.357
39264SOL     OW19624   6.256  10.146   0.206
39264SOL    HW119625   6.333  10.201   0.194
39264SOL    HW219626   6.183  10.201   0.180
39265SOL     OW19627   0.611  12.956   9.259
39265SOL    HW119628   0.603  12.977   9.352
39265SOL    HW219629   0.644  13.037   9.219
39266SOL     OW19630   3.836  13.823   6.868
39266SOL    HW119631   3.867  13.890   6.807
39266SOL    HW219632   3.908  13.810   6.929
39267SOL     OW19633  11.995  11.430   6.083
39267SOL    HW119634  12.001  11.483   6.163
39267SOL    HW219635  11.909  11.388   6.089
39268SOL     OW19636   7.576  14.044   6.274
39268SOL    HW119637   7.658  13.995   6.264
39268SOL    HW219638   7.584  14.118   6.214
39269SOL     OW19639   9.460   0.764  12.601
39269SOL    HW119640   9.403   0.834  12.571
39269SOL    HW219641   9.402   0.702  12.644
39270SOL     OW19642   8.004   9.045   0.079
39270SOL    HW119643   8.076   9.107   0.075
39270SOL    HW219644   7.950   9.075   0.151
39271SOL     OW19645  11.650  11.032   1.311
39271SOL    HW119646  11.581  10.968   1.290
39271SOL    HW219647  11.633  11.106   1.254
39272SOL     OW19648   8.058  10.770  10.771
39272SOL    HW119649   8.059  10.736  10.682
39272SOL    HW219650   8.018  10.857  10.762
39273SOL     OW19651   5.858   5.502   6.371
39273SOL    HW119652   5.848   5.441   6.298
39273SOL    HW219653   5.848   5.589   6.332
39274SOL     OW19654   8.322   4.803   5.906
39274SOL    HW119655   8.249   4.789   5.847
39274SOL    HW219656   8.383   4.859   5.857
39275SOL     OW19657   0.429   6.769  13.336
39275SOL    HW119658   0.443   6.855  13.294
39275SOL    HW219659   0.334   6.757  13.333
39276SOL     OW19660   1.300   3.744   0.281
39276SOL    HW119661   1.292   3.652   0.306
39276SOL    HW219662   1.383   3.749   0.234
39277SOL     OW19663  14.319   2.902   3.607
39277SOL    HW119664  14.365   2.861   3.681
39277SOL    HW219665  14.355   2.859   3.530
39278SOL     OW19666   3.126  13.557  10.552
39278SOL    HW119667   3.163  13.474  10.582
39278SOL    HW219668   3.086  13.537  10.468
39279SOL     OW19669  11.354   4.414  10.199
39279SOL    HW119670  11.371   4.406  10.293
39279SOL    HW219671  11.292   4.343  10.180
39280SOL     OW19672   6.890  14.456  13.971
39280SOL    HW119673   6.985  14.445  13.962
39280SOL    HW219674   6.869  14.524  13.907
39281SOL     OW19675   8.736   4.848   7.463
39281SOL    HW119676   8.720   4.760   7.429
39281SOL    HW219677   8.653   4.872   7.505
39282SOL     OW19678   5.992   5.464  11.645
39282SOL    HW119679   6.050   5.539  11.633
39282SOL    HW219680   5.929   5.471  11.572
39283SOL     OW19681   3.385  10.992   1.083
39283SOL    HW119682   3.369  10.951   0.998
39283SOL    HW219683   3.441  11.067   1.063
39284SOL     OW19684   1.854   1.810   2.510
39284SOL    HW119685   1.812   1.750   2.572
39284SOL    HW219686   1.787   1.877   2.494
39285SOL     OW19687   0.302  12.500   0.858
39285SOL    HW119688   0.317  12.416   0.902
39285SOL    HW219689   0.247  12.478   0.783
39286SOL     OW19690   4.727   1.217  14.619
39286SOL    HW119691   4.664   1.198  14.550
39286SOL    HW219692   4.678   1.271  14.682
39287SOL     OW19693   3.360   4.603  12.261
39287SOL    HW119694   3.314   4.520  12.277
39287SOL    HW219695   3.302   4.670  12.296
39288SOL     OW19696   7.481   1.615  11.262
39288SOL    HW119697   7.414   1.555  11.294
39288SOL    HW219698   7.434   1.696  11.242
39289SOL     OW19699  12.057   6.448  13.169
39289SOL    HW119700  12.039   6.409  13.084
39289SOL    HW219701  12.037   6.541  13.158
39290SOL     OW19702   8.605   3.478   3.532
39290SOL    HW119703   8.605   3.388   3.566
39290SOL    HW219704   8.512   3.498   3.519
39291SOL     OW19705   3.775   2.590   9.414
39291SOL    HW119706   3.860   2.583   9.370
39291SOL    HW219707   3.751   2.500   9.434
39292SOL     OW19708  10.392   4.491   1.517
39292SOL    HW119709  10.390   4.572   1.568
39292SOL    HW219710  10.300   4.475   1.494
39293SOL     OW19711   0.159  13.732  12.960
39293SOL    HW119712   0.071  13.708  12.989
39293SOL    HW219713   0.160  13.709  12.867
39294SOL     OW19714  14.773   8.981   2.893
39294SOL    HW119715  14.843   9.039   2.865
39294SOL    HW219716  14.735   9.025   2.969
39295SOL     OW19717   9.191   4.928   8.776
39295SOL    HW119718   9.111   4.884   8.805
39295SOL    HW219719   9.213   4.886   8.693
39296SOL     OW19720  12.161   6.626   5.395
39296SOL    HW119721  12.236   6.613   5.337
39296SOL    HW219722  12.090   6.651   5.336
39297SOL     OW19723   3.426  13.522   2.986
39297SOL    HW119724   3.332  13.522   3.004
39297SOL    HW219725   3.465  13.486   3.066
39298SOL     OW19726  13.548   9.402  13.277
39298SOL    HW119727  13.527   9.309  13.287
39298SOL    HW219728  13.539   9.419  13.183
39299SOL     OW19729   2.330   4.075  13.179
39299SOL    HW119730   2.383   4.085  13.258
39299SOL    HW219731   2.273   4.152  13.178
39300SOL     OW19732   0.987   3.182   3.934
39300SOL    HW119733   0.995   3.277   3.928
39300SOL    HW219734   0.909   3.160   3.883
39301SOL     OW19735   9.965   0.161  13.574
39301SOL    HW119736   9.917   0.134  13.652
39301SOL    HW219737  10.010   0.241  13.600
39302SOL     OW19738   8.864   7.714   0.234
39302SOL    HW119739   8.946   7.746   0.197
39302SOL    HW219740   8.798   7.776   0.200
39303SOL     OW19741   3.973   7.649   6.947
39303SOL    HW119742   4.007   7.559   6.939
39303SOL    HW219743   4.005   7.678   7.033
39304SOL     OW19744  10.142   6.271  10.812
39304SOL    HW119745  10.048   6.260  10.793
39304SOL    HW219746  10.147   6.352  10.863
39305SOL     OW19747   2.365  10.471   6.524
39305SOL    HW119748   2.361  10.406   6.454
39305SOL    HW219749   2.457  10.497   6.527
39306SOL     OW19750   9.562   8.816   9.488
39306SOL    HW119751   9.495   8.770   9.538
39306SOL    HW219752   9.564   8.771   9.403
39307SOL     OW19753   8.875   9.615   6.183
39307SOL    HW119754   8.933   9.681   6.144
39307SOL    HW219755   8.806   9.603   6.118
39308SOL     OW19756   5.387   1.391   5.024
39308SOL    HW119757   5.416   1.404   4.934
39308SOL    HW219758   5.296   1.422   5.026
39309SOL     OW19759  13.169   7.314   8.329
39309SOL    HW119760  13.166   7.330   8.424
39309SOL    HW219761  13.223   7.236   8.319
39310SOL     OW19762   7.781   9.510   0.344
39310SOL    HW119763   7.746   9.433   0.388
39310SOL    HW219764   7.720   9.580   0.368
39311SOL     OW19765   8.079  10.957   0.325
39311SOL    HW119766   8.059  10.875   0.370
39311SOL    HW219767   8.087  11.021   0.396
39312SOL     OW19768   7.954   9.174   9.310
39312SOL    HW119769   7.923   9.088   9.280
39312SOL    HW219770   7.874   9.220   9.336
39313SOL     OW19771  10.433  14.739   3.695
39313SOL    HW119772  10.404  14.759   3.606
39313SOL    HW219773  10.352  14.740   3.747
39314SOL     OW19774   8.417   7.733   2.590
39314SOL    HW119775   8.437   7.675   2.663
39314SOL    HW219776   8.486   7.715   2.525
39315SOL     OW19777   9.858   8.061   6.307
39315SOL    HW119778   9.815   7.977   6.319
39315SOL    HW219779   9.951   8.040   6.299
39316SOL     OW19780   5.955  14.279   9.868
39316SOL    HW119781   5.962  14.367   9.830
39316SOL    HW219782   6.039  14.238   9.850
39317SOL     OW19783   5.381   8.823   5.110
39317SOL    HW119784   5.315   8.757   5.090
39317SOL    HW219785   5.401   8.809   5.203
39318SOL     OW19786   9.237  14.367  13.190
39318SOL    HW119787   9.180  14.323  13.253
39318SOL    HW219788   9.264  14.297  13.130
39319SOL     OW19789   5.252   5.348   3.327
39319SOL    HW119790   5.172   5.318   3.284
39319SOL    HW219791   5.239   5.326   3.419
39320SOL     OW19792  14.107   5.571   1.890
39320SOL    HW119793  14.024   5.603   1.853
39320SOL    HW219794  14.135   5.503   1.829
39321SOL     OW19795   0.222   5.360   2.860
39321SOL    HW119796   0.153   5.308   2.819
39321SOL    HW219797   0.281   5.382   2.788
39322SOL     OW19798   8.241   3.572   9.963
39322SOL    HW119799   8.273   3.640   9.903
39322SOL    HW219800   8.318   3.545  10.012
39323SOL     OW19801  14.029  13.237   7.463
39323SOL    HW119802  13.940  13.256   7.433
39323SOL    HW219803  14.079  13.226   7.382
39324SOL     OW19804  12.369   9.196   9.110
39324SOL    HW119805  12.441   9.161   9.057
39324SOL    HW219806  12.299   9.213   9.046
39325SOL     OW19807  10.948  11.056  14.842
39325SOL    HW119808  10.948  11.149  14.818
39325SOL    HW219809  11.005  11.015  14.778
39326SOL     OW19810   2.233  14.570   0.473
39326SOL    HW119811   2.235  14.493   0.416
39326SOL    HW219812   2.220  14.644   0.413
39327SOL     OW19813  12.114  12.807   5.396
39327SOL    HW119814  12.027  12.792   5.432
39327SOL    HW219815  12.128  12.901   5.402
39328SOL     OW19816  12.616   6.024  13.503
39328SOL    HW119817  12.655   5.940  13.525
39328SOL    HW219818  12.687   6.074  13.462
39329SOL     OW19819   6.978   2.081   1.476
39329SOL    HW119820   6.931   2.141   1.419
39329SOL    HW219821   7.068   2.079   1.441
39330SOL     OW19822   7.892   5.896   7.688
39330SOL    HW119823   7.863   5.840   7.616
39330SOL    HW219824   7.816   5.902   7.746
39331SOL     OW19825  13.498   9.205   7.169
39331SOL    HW119826  13.439   9.198   7.243
39331SOL    HW219827  13.567   9.265   7.199
39332SOL     OW19828   5.590  14.006  14.805
39332SOL    HW119829   5.545  14.086  14.831
39332SOL    HW219830   5.520  13.944  14.783
39333SOL     OW19831   6.399   9.092   0.502
39333SOL    HW119832   6.400   9.174   0.452
39333SOL    HW219833   6.475   9.097   0.559
39334SOL     OW19834   7.925  12.757   6.529
39334SOL    HW119835   7.909  12.822   6.461
39334SOL    HW219836   8.020  12.759   6.543
39335SOL     OW19837   5.179  10.200   6.399
39335SOL    HW119838   5.273  10.194   6.417
39335SOL    HW219839   5.143  10.116   6.426
39336SOL     OW19840  12.618  10.019  10.103
39336SOL    HW119841  12.643  10.110  10.086
39336SOL    HW219842  12.554   9.999  10.036
39337SOL     OW19843  10.476  10.136   4.296
39337SOL    HW119844  10.535  10.119   4.369
39337SOL    HW219845  10.394  10.093   4.320
39338SOL     OW19846   2.740  13.784   0.584
39338SOL    HW119847   2.757  13.760   0.493
39338SOL    HW219848   2.827  13.803   0.621
39339SOL     OW19849  10.139   2.079   6.385
39339SOL    HW119850  10.235   2.087   6.387
39339SOL    HW219851  10.122   2.009   6.322
39340SOL     OW19852   6.255   9.959  14.844
39340SOL    HW119853   6.264  10.028   0.038
39340SOL    HW219854   6.162   9.936  14.846
39341SOL     OW19855  14.283  14.059  13.424
39341SOL    HW119856  14.363  14.091  13.383
39341SOL    HW219857  14.213  14.098  13.372
39342SOL     OW19858  13.406   5.596   2.488
39342SOL    HW119859  13.481   5.649   2.463
39342SOL    HW219860  13.383   5.627   2.575
39343SOL     OW19861   1.103  11.719   7.805
39343SOL    HW119862   1.137  11.755   7.888
39343SOL    HW219863   1.011  11.701   7.823
39344SOL     OW19864   7.964  12.108   8.145
39344SOL    HW119865   7.879  12.110   8.188
39344SOL    HW219866   8.024  12.073   8.211
39345SOL     OW19867   7.333  14.336   5.657
39345SOL    HW119868   7.266  14.344   5.589
39345SOL    HW219869   7.388  14.264   5.626
39346SOL     OW19870  11.826   9.792   5.368
39346SOL    HW119871  11.895   9.853   5.393
39346SOL    HW219872  11.745   9.840   5.387
39347SOL     OW19873   3.653  13.390   6.858
39347SOL    HW119874   3.708  13.329   6.809
39347SOL    HW219875   3.599  13.433   6.791
39348SOL     OW19876   6.920   3.241   8.814
39348SOL    HW119877   7.010   3.268   8.796
39348SOL    HW219878   6.879   3.317   8.854
39349SOL     OW19879   0.385   5.413   3.965
39349SOL    HW119880   0.334   5.435   3.888
39349SOL    HW219881   0.407   5.320   3.955
39350SOL     OW19882   7.777   1.787   1.962
39350SOL    HW119883   7.793   1.792   2.057
39350SOL    HW219884   7.824   1.862   1.925
39351SOL     OW19885  14.732  12.271   2.708
39351SOL    HW119886  14.735  12.283   2.613
39351SOL    HW219887  14.681  12.191   2.720
39352SOL     OW19888   1.585   6.283   4.535
39352SOL    HW119889   1.663   6.227   4.537
39352SOL    HW219890   1.512   6.222   4.546
39353SOL     OW19891  13.806  12.941   1.760
39353SOL    HW119892  13.736  12.904   1.813
39353SOL    HW219893  13.863  12.867   1.739
39354SOL     OW19894   6.291  12.054  10.982
39354SOL    HW119895   6.243  11.998  10.922
39354SOL    HW219896   6.271  12.143  10.952
39355SOL     OW19897  14.819   2.251   5.390
39355SOL    HW119898  14.852   2.297   5.313
39355SOL    HW219899   0.012   2.267   5.458
39356SOL     OW19900   8.853   5.167   0.145
39356SOL    HW119901   8.888   5.153   0.233
39356SOL    HW219902   8.898   5.246   0.114
39357SOL     OW19903   6.762  11.696   0.182
39357SOL    HW119904   6.673  11.723   0.158
39357SOL    HW219905   6.804  11.777   0.211
39358SOL     OW19906   0.114  12.407   3.099
39358SOL    HW119907   0.020  12.422   3.098
39358SOL    HW219908   0.125  12.316   3.071
39359SOL     OW19909  11.514   5.437  13.057
39359SOL    HW119910  11.573   5.416  12.985
39359SOL    HW219911  11.462   5.358  13.070
39360SOL     OW19912   9.883  12.530   8.349
39360SOL    HW119913   9.955  12.585   8.379
39360SOL    HW219914   9.813  12.591   8.326
39361SOL     OW19915   5.517   0.946   6.329
39361SOL    HW119916   5.471   0.873   6.369
39361SOL    HW219917   5.460   1.022   6.345
39362SOL     OW19918   4.101   4.609   8.682
39362SOL    HW119919   4.195   4.621   8.690
39362SOL    HW219920   4.073   4.679   8.624
39363SOL     OW19921   4.733  11.916  11.417
39363SOL    HW119922   4.656  11.890  11.467
39363SOL    HW219923   4.716  12.006  11.391
39364SOL     OW19924   7.238   5.279   8.982
39364SOL    HW119925   7.145   5.262   8.994
39364SOL    HW219926   7.273   5.285   9.071
39365SOL     OW19927  11.093   5.797   2.181
39365SOL    HW119928  11.097   5.887   2.148
39365SOL    HW219929  11.178   5.784   2.223
39366SOL     OW19930  11.273   5.163   4.663
39366SOL    HW119931  11.264   5.139   4.756
39366SOL    HW219932  11.298   5.256   4.665
39367SOL     OW19933   4.061   7.676  12.025
39367SOL    HW119934   4.116   7.730  11.968
39367SOL    HW219935   3.980   7.726  12.033
39368SOL     OW19936   4.048   7.520   0.415
39368SOL    HW119937   4.040   7.449   0.352
39368SOL    HW219938   4.132   7.560   0.396
39369SOL     OW19939   1.900   2.553  13.219
39369SOL    HW119940   1.904   2.561  13.314
39369SOL    HW219941   1.811   2.523  13.201
39370SOL     OW19942  13.093   1.021   0.140
39370SOL    HW119943  13.140   1.090   0.187
39370SOL    HW219944  13.161   0.959   0.113
39371SOL     OW19945  10.443   0.370  12.526
39371SOL    HW119946  10.422   0.427  12.452
39371SOL    HW219947  10.524   0.326  12.500
39372SOL     OW19948   2.468  10.524   6.155
39372SOL    HW119949   2.515  10.607   6.160
39372SOL    HW219950   2.473  10.488   6.243
39373SOL     OW19951   3.113   5.947   9.840
39373SOL    HW119952   3.202   5.980   9.856
39373SOL    HW219953   3.094   5.972   9.750
39374SOL     OW19954   7.794   0.278   7.887
39374SOL    HW119955   7.763   0.221   7.816
39374SOL    HW219956   7.824   0.218   7.955
39375SOL     OW19957   5.431   4.588  13.955
39375SOL    HW119958   5.451   4.501  13.989
39375SOL    HW219959   5.377   4.629  14.023
39376SOL     OW19960   8.014  11.314   2.445
39376SOL    HW119961   8.006  11.387   2.505
39376SOL    HW219962   7.975  11.240   2.491
39377SOL     OW19963  10.364   0.304  11.914
39377SOL    HW119964  10.350   0.330  11.823
39377SOL    HW219965  10.281   0.267  11.942
39378SOL     OW19966   5.477   2.605   8.418
39378SOL    HW119967   5.557   2.655   8.435
39378SOL    HW219968   5.499   2.515   8.442
39379SOL     OW19969   2.092   1.093   9.093
39379SOL    HW119970   2.088   1.091   8.997
39379SOL    HW219971   2.126   1.008   9.118
39380SOL     OW19972  10.584   9.515  11.162
39380SOL    HW119973  10.601   9.442  11.221
39380SOL    HW219974  10.593   9.478  11.074
39381SOL     OW19975  10.438  10.579   0.437
39381SOL    HW119976  10.498  10.546   0.371
39381SOL    HW219977  10.374  10.631   0.389
39382SOL     OW19978   3.712  12.580   7.551
39382SOL    HW119979   3.802  12.548   7.562
39382SOL    HW219980   3.718  12.674   7.566
39383SOL     OW19981  12.044  12.944  11.890
39383SOL    HW119982  12.009  12.914  11.807
39383SOL    HW219983  12.002  12.890  11.956
39384SOL     OW19984   8.119  12.504  11.712
39384SOL    HW119985   8.046  12.523  11.653
39384SOL    HW219986   8.154  12.420  11.682
39385SOL     OW19987  11.483   9.770   4.648
39385SOL    HW119988  11.565   9.815   4.670
39385SOL    HW219989  11.502   9.677   4.660
39386SOL     OW19990  14.378   0.795  13.470
39386SOL    HW119991  14.290   0.823  13.492
39386SOL    HW219992  14.381   0.703  13.497
39387SOL     OW19993   7.657   2.271   6.726
39387SOL    HW119994   7.686   2.362   6.722
39387SOL    HW219995   7.707   2.226   6.659
39388SOL     OW19996   0.318  12.225   3.744
39388SOL    HW119997   0.382  12.295   3.729
39388SOL    HW219998   0.321  12.173   3.664
39389SOL     OW19999  10.542  10.935   0.552
39389SOL    HW120000  10.468  10.926   0.612
39389SOL    HW220001  10.570  11.026   0.562
39390SOL     OW20002   0.742   3.432   2.268
39390SOL    HW120003   0.688   3.433   2.189
39390SOL    HW220004   0.830   3.413   2.236
39391SOL     OW20005  12.388  13.609  10.276
39391SOL    HW120006  12.393  13.515  10.294
39391SOL    HW220007  12.456  13.648  10.331
39392SOL     OW20008   6.127  12.754   0.234
39392SOL    HW120009   6.150  12.812   0.307
39392SOL    HW220010   6.126  12.810   0.157
39393SOL     OW20011   0.845  12.007   4.189
39393SOL    HW120012   0.814  12.087   4.231
39393SOL    HW220013   0.778  11.942   4.211
39394SOL     OW20014   0.243   3.616   6.383
39394SOL    HW120015   0.270   3.556   6.313
39394SOL    HW220016   0.218   3.558   6.455
39395SOL     OW20017   4.014   2.737   3.659
39395SOL    HW120018   4.027   2.642   3.668
39395SOL    HW220019   4.102   2.772   3.646
39396SOL     OW20020   3.271   1.871   2.855
39396SOL    HW120021   3.182   1.840   2.842
39396SOL    HW220022   3.291   1.852   2.947
39397SOL     OW20023   2.393   6.373  13.192
39397SOL    HW120024   2.363   6.438  13.255
39397SOL    HW220025   2.315   6.322  13.171
39398SOL     OW20026   1.135   8.949   2.280
39398SOL    HW120027   1.079   8.872   2.277
39398SOL    HW220028   1.194   8.934   2.354
39399SOL     OW20029   2.944   2.587  13.176
39399SOL    HW120030   2.992   2.665  13.204
39399SOL    HW220031   2.867   2.584  13.234
39400SOL     OW20032   2.855   9.343   1.571
39400SOL    HW120033   2.935   9.340   1.623
39400SOL    HW220034   2.857   9.263   1.519
39401SOL     OW20035  12.725   7.280   2.307
39401SOL    HW120036  12.658   7.219   2.276
39401SOL    HW220037  12.789   7.285   2.235
39402SOL     OW20038  13.367  12.404   9.678
39402SOL    HW120039  13.345  12.398   9.771
39402SOL    HW220040  13.285  12.383   9.632
39403SOL     OW20041   2.437   0.890   6.254
39403SOL    HW120042   2.530   0.871   6.245
39403SOL    HW220043   2.393   0.818   6.210
39404SOL     OW20044   6.010   8.615   5.601
39404SOL    HW120045   5.986   8.647   5.515
39404SOL    HW220046   5.978   8.682   5.662
39405SOL     OW20047   2.174  10.247  10.423
39405SOL    HW120048   2.153  10.214  10.335
39405SOL    HW220049   2.103  10.215  10.478
39406SOL     OW20050  10.686  12.678   1.709
39406SOL    HW120051  10.776  12.698   1.735
39406SOL    HW220052  10.667  12.739   1.638
39407SOL     OW20053  10.687  11.948   0.862
39407SOL    HW120054  10.668  11.854   0.857
39407SOL    HW220055  10.719  11.961   0.951
39408SOL     OW20056   9.238   5.295  13.693
39408SOL    HW120057   9.327   5.264  13.711
39408SOL    HW220058   9.199   5.226  13.639
39409SOL     OW20059   0.848  10.673   9.505
39409SOL    HW120060   0.943  10.665   9.493
39409SOL    HW220061   0.837  10.693   9.599
39410SOL     OW20062   0.369  14.103   5.128
39410SOL    HW120063   0.427  14.042   5.082
39410SOL    HW220064   0.376  14.077   5.220
39411SOL     OW20065  12.414   9.946   4.623
39411SOL    HW120066  12.451   9.865   4.589
39411SOL    HW220067  12.488  10.007   4.627
39412SOL     OW20068   9.627  11.297   3.512
39412SOL    HW120069   9.602  11.265   3.598
39412SOL    HW220070   9.591  11.386   3.507
39413SOL     OW20071   0.183   8.836   9.280
39413SOL    HW120072   0.182   8.884   9.362
39413SOL    HW220073   0.264   8.784   9.284
39414SOL     OW20074  14.216   6.079   8.161
39414SOL    HW120075  14.284   6.139   8.190
39414SOL    HW220076  14.238   5.996   8.202
39415SOL     OW20077   7.087   1.831   3.561
39415SOL    HW120078   7.165   1.885   3.574
39415SOL    HW220079   7.115   1.763   3.501
39416SOL     OW20080   2.530   8.007  13.706
39416SOL    HW120081   2.447   8.055  13.696
39416SOL    HW220082   2.583   8.062  13.763
39417SOL     OW20083   5.552   4.617  13.654
39417SOL    HW120084   5.583   4.612  13.744
39417SOL    HW220085   5.614   4.563  13.604
39418SOL     OW20086  12.016   2.972  11.480
39418SOL    HW120087  12.066   2.996  11.402
39418SOL    HW220088  11.951   3.042  11.490
39419SOL     OW20089   3.515  13.241   0.796
39419SOL    HW120090   3.439  13.183   0.794
39419SOL    HW220091   3.566  13.210   0.871
39420SOL     OW20092  10.950   5.041   8.636
39420SOL    HW120093  10.991   5.058   8.551
39420SOL    HW220094  10.937   4.947   8.638
39421SOL     OW20095   7.363   5.899   7.868
39421SOL    HW120096   7.389   5.891   7.777
39421SOL    HW220097   7.347   5.993   7.881
39422SOL     OW20098  14.833   8.611  14.733
39422SOL    HW120099   0.026   8.680  14.741
39422SOL    HW220100  14.871   8.537  14.780
39423SOL     OW20101   5.586   6.228  11.148
39423SOL    HW120102   5.621   6.297  11.205
39423SOL    HW220103   5.528   6.275  11.088
39424SOL     OW20104   0.251   7.417   4.420
39424SOL    HW120105   0.174   7.360   4.417
39424SOL    HW220106   0.288   7.412   4.332
39425SOL     OW20107   3.696  10.585  13.873
39425SOL    HW120108   3.609  10.584  13.912
39425SOL    HW220109   3.686  10.637  13.794
39426SOL     OW20110   5.108   8.349   0.534
39426SOL    HW120111   5.070   8.437   0.532
39426SOL    HW220112   5.160   8.343   0.454
39427SOL     OW20113  12.705   1.158   0.538
39427SOL    HW120114  12.783   1.193   0.495
39427SOL    HW220115  12.740   1.095   0.601
39428SOL     OW20116   8.654   6.495  12.863
39428SOL    HW120117   8.727   6.451  12.818
39428SOL    HW220118   8.586   6.504  12.797
39429SOL     OW20119  14.007   8.426   1.429
39429SOL    HW120120  13.927   8.375   1.437
39429SOL    HW220121  14.078   8.363   1.443
39430SOL     OW20122   7.073  12.890  13.083
39430SOL    HW120123   7.034  12.823  13.028
39430SOL    HW220124   7.067  12.971  13.032
39431SOL     OW20125  10.835   2.972   8.424
39431SOL    HW120126  10.841   3.066   8.439
39431SOL    HW220127  10.897   2.934   8.488
39432SOL     OW20128   6.236  12.836   6.290
39432SOL    HW120129   6.269  12.841   6.200
39432SOL    HW220130   6.221  12.743   6.305
39433SOL     OW20131  14.435   6.721   9.000
39433SOL    HW120132  14.507   6.777   8.969
39433SOL    HW220133  14.358   6.778   8.997
39434SOL     OW20134   9.506   5.947   2.598
39434SOL    HW120135   9.592   5.933   2.558
39434SOL    HW220136   9.483   5.861   2.634
39435SOL     OW20137   6.669  14.768   8.233
39435SOL    HW120138   6.691  14.702   8.167
39435SOL    HW220139   6.617  14.720   8.298
39436SOL     OW20140   5.993   0.440   4.867
39436SOL    HW120141   6.057   0.420   4.935
39436SOL    HW220142   6.002   0.369   4.803
39437SOL     OW20143   9.829  14.606  12.917
39437SOL    HW120144   9.898  14.604  12.984
39437SOL    HW220145   9.768  14.537  12.944
39438SOL     OW20146   1.316   6.022  10.621
39438SOL    HW120147   1.398   6.021  10.571
39438SOL    HW220148   1.265   5.950  10.584
39439SOL     OW20149  14.179   8.109   7.163
39439SOL    HW120150  14.185   8.071   7.076
39439SOL    HW220151  14.270   8.130   7.187
39440SOL     OW20152   1.100   8.943   1.150
39440SOL    HW120153   1.044   8.908   1.219
39440SOL    HW220154   1.054   8.921   1.069
39441SOL     OW20155   4.763   2.131   2.511
39441SOL    HW120156   4.858   2.131   2.523
39441SOL    HW220157   4.749   2.185   2.433
39442SOL     OW20158   9.499   3.338  14.000
39442SOL    HW120159   9.516   3.418  13.951
39442SOL    HW220160   9.415   3.353  14.042
39443SOL     OW20161  14.228  11.523   2.116
39443SOL    HW120162  14.258  11.489   2.032
39443SOL    HW220163  14.223  11.446   2.173
39444SOL     OW20164   3.827  10.052   2.237
39444SOL    HW120165   3.827   9.991   2.310
39444SOL    HW220166   3.863  10.133   2.273
39445SOL     OW20167  13.999  14.799   2.980
39445SOL    HW120168  13.943  14.737   3.026
39445SOL    HW220169  14.077  14.805   3.035
39446SOL     OW20170  14.017   6.030  10.596
39446SOL    HW120171  14.001   6.108  10.543
39446SOL    HW220172  13.938   5.976  10.584
39447SOL     OW20173   6.563   8.716  11.635
39447SOL    HW120174   6.491   8.777  11.650
39447SOL    HW220175   6.584   8.682  11.722
39448SOL     OW20176   7.998   3.716   8.141
39448SOL    HW120177   8.071   3.762   8.100
39448SOL    HW220178   8.025   3.704   8.232
39449SOL     OW20179   9.027   5.781  11.867
39449SOL    HW120180   8.966   5.732  11.922
39449SOL    HW220181   9.111   5.777  11.914
39450SOL     OW20182   5.667   3.635  14.852
39450SOL    HW120183   5.737   3.698  14.840
39450SOL    HW220184   5.624   3.662   0.061
39451SOL     OW20185   3.850   2.842  10.340
39451SOL    HW120186   3.912   2.787  10.293
39451SOL    HW220187   3.764   2.809  10.315
39452SOL     OW20188  13.070   5.519  12.376
39452SOL    HW120189  13.033   5.567  12.301
39452SOL    HW220190  13.106   5.588  12.433
39453SOL     OW20191  10.065   8.008  11.484
39453SOL    HW120192  10.086   7.976  11.396
39453SOL    HW220193  10.151   8.025  11.525
39454SOL     OW20194   3.517   0.262  12.442
39454SOL    HW120195   3.466   0.248  12.362
39454SOL    HW220196   3.590   0.200  12.435
39455SOL     OW20197  12.608   2.429   8.167
39455SOL    HW120198  12.650   2.436   8.253
39455SOL    HW220199  12.666   2.371   8.117
39456SOL     OW20200   3.899  12.617  13.822
39456SOL    HW120201   3.915  12.685  13.888
39456SOL    HW220202   3.847  12.661  13.755
39457SOL     OW20203   8.728  14.041   8.011
39457SOL    HW120204   8.771  14.066   7.929
39457SOL    HW220205   8.733  14.119   8.066
39458SOL     OW20206  13.572   2.029  13.958
39458SOL    HW120207  13.570   2.122  13.980
39458SOL    HW220208  13.656   1.998  13.994
39459SOL     OW20209   5.181   9.292   6.435
39459SOL    HW120210   5.218   9.341   6.362
39459SOL    HW220211   5.248   9.297   6.504
39460SOL     OW20212   7.575   5.118   8.885
39460SOL    HW120213   7.581   5.048   8.949
39460SOL    HW220214   7.489   5.107   8.845
39461SOL     OW20215  13.287  13.398   7.421
39461SOL    HW120216  13.227  13.461   7.461
39461SOL    HW220217  13.374  13.439   7.429
39462SOL     OW20218  10.061  13.351   5.902
39462SOL    HW120219  10.029  13.403   5.829
39462SOL    HW220220   9.986  13.343   5.961
39463SOL     OW20221   5.760   1.087  11.050
39463SOL    HW120222   5.744   1.111  11.141
39463SOL    HW220223   5.720   1.000  11.041
39464SOL     OW20224  14.287  13.576  14.846
39464SOL    HW120225  14.303  13.536   0.059
39464SOL    HW220226  14.225  13.518  14.804
39465SOL     OW20227   4.556   3.969   9.758
39465SOL    HW120228   4.480   4.010   9.717
39465SOL    HW220229   4.533   3.963   9.851
39466SOL     OW20230   1.541   5.009  13.157
39466SOL    HW120231   1.456   5.033  13.119
39466SOL    HW220232   1.591   5.091  13.154
39467SOL     OW20233   9.601   8.167   2.189
39467SOL    HW120234   9.694   8.147   2.191
39467SOL    HW220235   9.561   8.098   2.243
39468SOL     OW20236  13.639   9.454   9.966
39468SOL    HW120237  13.628   9.383  10.028
39468SOL    HW220238  13.574   9.519   9.992
39469SOL     OW20239  13.855   0.914   6.889
39469SOL    HW120240  13.772   0.921   6.843
39469SOL    HW220241  13.832   0.916   6.982
39470SOL     OW20242   9.001   3.005   5.807
39470SOL    HW120243   8.913   2.971   5.821
39470SOL    HW220244   9.000   3.092   5.847
39471SOL     OW20245  11.036  10.091  10.781
39471SOL    HW120246  11.023  10.184  10.801
39471SOL    HW220247  10.955  10.048  10.809
39472SOL     OW20248   2.975   3.958  11.468
39472SOL    HW120249   3.052   3.986  11.517
39472SOL    HW220250   2.908   4.023  11.489
39473SOL     OW20251   9.030  12.244   6.820
39473SOL    HW120252   9.109  12.190   6.813
39473SOL    HW220253   9.002  12.257   6.730
39474SOL     OW20254   3.980   8.966   1.866
39474SOL    HW120255   3.906   8.910   1.842
39474SOL    HW220256   3.941   9.052   1.881
39475SOL     OW20257   4.872   3.198   3.985
39475SOL    HW120258   4.791   3.247   3.977
39475SOL    HW220259   4.940   3.257   3.953
39476SOL     OW20260   5.294   5.941   1.649
39476SOL    HW120261   5.227   5.874   1.635
39476SOL    HW220262   5.368   5.894   1.686
39477SOL     OW20263   5.956  11.302   5.291
39477SOL    HW120264   5.970  11.255   5.209
39477SOL    HW220265   5.971  11.394   5.270
39478SOL     OW20266   2.076   8.348   3.660
39478SOL    HW120267   2.060   8.311   3.747
39478SOL    HW220268   2.029   8.431   3.660
39479SOL     OW20269  13.596  10.173   3.254
39479SOL    HW120270  13.678  10.145   3.215
39479SOL    HW220271  13.528  10.129   3.201
39480SOL     OW20272   7.555   4.028   5.984
39480SOL    HW120273   7.580   4.024   5.892
39480SOL    HW220274   7.478   4.086   5.985
39481SOL     OW20275   0.641   0.140   0.418
39481SOL    HW120276   0.562   0.172   0.462
39481SOL    HW220277   0.690   0.220   0.397
39482SOL     OW20278  13.164   7.959   9.936
39482SOL    HW120279  13.076   7.990   9.956
39482SOL    HW220280  13.188   7.905  10.011
39483SOL     OW20281  11.665   7.221  14.143
39483SOL    HW120282  11.677   7.211  14.238
39483SOL    HW220283  11.677   7.132  14.108
39484SOL     OW20284  10.126  11.435  12.618
39484SOL    HW120285  10.187  11.452  12.546
39484SOL    HW220286  10.167  11.363  12.667
39485SOL     OW20287  13.303  13.772   3.234
39485SOL    HW120288  13.361  13.798   3.162
39485SOL    HW220289  13.362  13.746   3.305
39486SOL     OW20290   8.712   1.149   0.458
39486SOL    HW120291   8.688   1.060   0.482
39486SOL    HW220292   8.773   1.177   0.527
39487SOL     OW20293   5.736   8.703   8.491
39487SOL    HW120294   5.735   8.617   8.534
39487SOL    HW220295   5.815   8.701   8.436
39488SOL     OW20296   6.019  10.948   7.350
39488SOL    HW120297   6.048  10.945   7.259
39488SOL    HW220298   5.944  11.008   7.350
39489SOL     OW20299   5.123  14.794   6.558
39489SOL    HW120300   5.127   0.004   6.510
39489SOL    HW220301   5.132  14.820   6.650
39490SOL     OW20302  11.474   8.156  13.997
39490SOL    HW120303  11.460   8.222  13.929
39490SOL    HW220304  11.475   8.206  14.079
39491SOL     OW20305  11.994   6.328   4.555
39491SOL    HW120306  11.916   6.381   4.541
39491SOL    HW220307  12.063   6.374   4.507
39492SOL     OW20308  14.731  10.862   5.189
39492SOL    HW120309  14.817  10.833   5.159
39492SOL    HW220310  14.680  10.875   5.109
39493SOL     OW20311  13.416  14.595  12.419
39493SOL    HW120312  13.436  14.683  12.451
39493SOL    HW220313  13.414  14.540  12.498
39494SOL     OW20314   5.503   0.177   8.227
39494SOL    HW120315   5.559   0.100   8.229
39494SOL    HW220316   5.429   0.151   8.172
39495SOL     OW20317  12.745   4.672  11.506
39495SOL    HW120318  12.671   4.669  11.567
39495SOL    HW220319  12.803   4.602  11.535
39496SOL     OW20320  11.066  12.418  10.093
39496SOL    HW120321  11.017  12.472  10.155
39496SOL    HW220322  11.060  12.465  10.010
39497SOL     OW20323   9.958   7.569   1.877
39497SOL    HW120324  10.051   7.553   1.891
39497SOL    HW220325   9.913   7.497   1.921
39498SOL     OW20326   7.222   9.720   8.931
39498SOL    HW120327   7.276   9.642   8.943
39498SOL    HW220328   7.209   9.725   8.836
39499SOL     OW20329   8.047   0.785   4.587
39499SOL    HW120330   8.117   0.723   4.567
39499SOL    HW220331   7.997   0.791   4.506
39500SOL     OW20332  10.372   5.866   0.262
39500SOL    HW120333  10.290   5.853   0.308
39500SOL    HW220334  10.396   5.780   0.228
39501SOL     OW20335   0.461   9.105   0.732
39501SOL    HW120336   0.389   9.168   0.720
39501SOL    HW220337   0.419   9.029   0.772
39502SOL     OW20338  10.576  10.430   6.161
39502SOL    HW120339  10.601  10.433   6.254
39502SOL    HW220340  10.490  10.473   6.158
39503SOL     OW20341  10.940   5.032   1.988
39503SOL    HW120342  10.905   4.961   2.041
39503SOL    HW220343  10.865   5.091   1.976
39504SOL     OW20344   8.447   8.535   9.418
39504SOL    HW120345   8.404   8.569   9.496
39504SOL    HW220346   8.524   8.489   9.450
39505SOL     OW20347  13.928   6.280   2.301
39505SOL    HW120348  13.969   6.203   2.261
39505SOL    HW220349  13.988   6.352   2.283
39506SOL     OW20350  11.062   3.028   4.960
39506SOL    HW120351  11.032   2.937   4.955
39506SOL    HW220352  10.981   3.080   4.965
39507SOL     OW20353   9.775  11.238  11.995
39507SOL    HW120354   9.795  11.267  11.906
39507SOL    HW220355   9.716  11.164  11.983
39508SOL     OW20356   8.436   2.486  13.483
39508SOL    HW120357   8.361   2.480  13.424
39508SOL    HW220358   8.451   2.396  13.512
39509SOL     OW20359   4.018   7.662   9.746
39509SOL    HW120360   4.045   7.599   9.813
39509SOL    HW220361   3.960   7.722   9.792
39510SOL     OW20362   4.000   2.327   9.085
39510SOL    HW120363   4.027   2.308   9.175
39510SOL    HW220364   4.003   2.242   9.040
39511SOL     OW20365  11.547   6.177  11.979
39511SOL    HW120366  11.501   6.107  12.025
39511SOL    HW220367  11.516   6.257  12.019
39512SOL     OW20368   7.263   7.767   8.724
39512SOL    HW120369   7.247   7.862   8.723
39512SOL    HW220370   7.278   7.744   8.633
39513SOL     OW20371   4.685   3.098   5.215
39513SOL    HW120372   4.649   3.083   5.303
39513SOL    HW220373   4.715   3.012   5.186
39514SOL     OW20374   0.562   7.520  12.169
39514SOL    HW120375   0.616   7.441  12.163
39514SOL    HW220376   0.547   7.544  12.077
39515SOL     OW20377   4.039  12.680  12.535
39515SOL    HW120378   3.969  12.664  12.598
39515SOL    HW220379   4.113  12.629  12.568
39516SOL     OW20380  14.336   4.248   2.459
39516SOL    HW120381  14.317   4.257   2.552
39516SOL    HW220382  14.330   4.153   2.442
39517SOL     OW20383   7.548  13.691   9.783
39517SOL    HW120384   7.640  13.711   9.801
39517SOL    HW220385   7.512  13.774   9.749
39518SOL     OW20386  13.789   0.582   9.921
39518SOL    HW120387  13.770   0.671   9.949
39518SOL    HW220388  13.724   0.564   9.853
39519SOL     OW20389   3.727   8.490  10.790
39519SOL    HW120390   3.663   8.468  10.858
39519SOL    HW220391   3.720   8.419  10.727
39520SOL     OW20392   1.892  10.783   6.995
39520SOL    HW120393   1.905  10.796   6.901
39520SOL    HW220394   1.828  10.713   7.002
39521SOL     OW20395   8.466   7.346   8.758
39521SOL    HW120396   8.486   7.328   8.667
39521SOL    HW220397   8.451   7.441   8.761
39522SOL     OW20398   1.099   2.901  13.342
39522SOL    HW120399   1.061   2.815  13.321
39522SOL    HW220400   1.136   2.932  13.259
39523SOL     OW20401   7.368  11.424   8.255
39523SOL    HW120402   7.434  11.418   8.186
39523SOL    HW220403   7.396  11.360   8.321
39524SOL     OW20404  10.422  14.815  10.601
39524SOL    HW120405  10.351  14.751  10.591
39524SOL    HW220406  10.397   0.015  10.544
39525SOL     OW20407   5.581   7.096  12.148
39525SOL    HW120408   5.643   7.137  12.209
39525SOL    HW220409   5.619   7.111  12.061
39526SOL     OW20410   2.845   6.983  14.703
39526SOL    HW120411   2.800   6.898  14.706
39526SOL    HW220412   2.798   7.033  14.636
39527SOL     OW20413   9.669  11.765   0.118
39527SOL    HW120414   9.730  11.801   0.183
39527SOL    HW220415   9.597  11.729   0.170
39528SOL     OW20416   2.705  14.673   9.140
39528SOL    HW120417   2.723  14.612   9.212
39528SOL    HW220418   2.653  14.743   9.180
39529SOL     OW20419  11.234   1.960   5.276
39529SOL    HW120420  11.180   1.921   5.207
39529SOL    HW220421  11.172   1.984   5.344
39530SOL     OW20422  12.842   2.716   7.907
39530SOL    HW120423  12.781   2.704   7.980
39530SOL    HW220424  12.891   2.795   7.929
39531SOL     OW20425  13.886  10.879   6.677
39531SOL    HW120426  13.852  10.860   6.590
39531SOL    HW220427  13.967  10.829   6.682
39532SOL     OW20428  11.924   4.614  12.116
39532SOL    HW120429  11.856   4.679  12.101
39532SOL    HW220430  11.908   4.547  12.049
39533SOL     OW20431  13.699   6.691  13.645
39533SOL    HW120432  13.732   6.781  13.642
39533SOL    HW220433  13.608   6.700  13.675
39534SOL     OW20434  11.021   5.692   5.245
39534SOL    HW120435  11.103   5.674   5.290
39534SOL    HW220436  10.955   5.691   5.314
39535SOL     OW20437  12.922  14.306   9.663
39535SOL    HW120438  12.926  14.387   9.713
39535SOL    HW220439  12.983  14.320   9.590
39536SOL     OW20440   8.014  11.643   5.106
39536SOL    HW120441   8.088  11.684   5.061
39536SOL    HW220442   8.032  11.549   5.101
39537SOL     OW20443   8.358   7.607  10.642
39537SOL    HW120444   8.346   7.518  10.609
39537SOL    HW220445   8.451   7.613  10.665
39538SOL     OW20446   5.954   8.870  10.315
39538SOL    HW120447   5.962   8.870  10.220
39538SOL    HW220448   5.973   8.961  10.341
39539SOL     OW20449   4.847   1.801   1.609
39539SOL    HW120450   4.810   1.845   1.533
39539SOL    HW220451   4.794   1.722   1.620
39540SOL     OW20452  10.811   1.238   0.093
39540SOL    HW120453  10.892   1.261   0.139
39540SOL    HW220454  10.809   1.296   0.018
39541SOL     OW20455  13.318   7.503   2.343
39541SOL    HW120456  13.229   7.529   2.320
39541SOL    HW220457  13.373   7.540   2.274
39542SOL     OW20458   4.297   3.841   5.951
39542SOL    HW120459   4.322   3.932   5.933
39542SOL    HW220460   4.244   3.816   5.875
39543SOL     OW20461  10.457  12.693   6.656
39543SOL    HW120462  10.508  12.736   6.588
39543SOL    HW220463  10.503  12.712   6.737
39544SOL     OW20464   6.616  12.860  13.493
39544SOL    HW120465   6.603  12.932  13.431
39544SOL    HW220466   6.564  12.788  13.458
39545SOL     OW20467   9.196   5.619  14.314
39545SOL    HW120468   9.168   5.665  14.393
39545SOL    HW220469   9.292   5.616  14.321
39546SOL     OW20470   3.415   9.002   7.312
39546SOL    HW120471   3.492   9.030   7.262
39546SOL    HW220472   3.426   9.046   7.397
39547SOL     OW20473   7.339  14.417   0.760
39547SOL    HW120474   7.339  14.413   0.665
39547SOL    HW220475   7.252  14.389   0.786
39548SOL     OW20476  11.393  11.313   4.222
39548SOL    HW120477  11.434  11.285   4.304
39548SOL    HW220478  11.372  11.232   4.176
39549SOL     OW20479  12.868   0.638  12.088
39549SOL    HW120480  12.960   0.659  12.102
39549SOL    HW220481  12.822   0.721  12.102
39550SOL     OW20482   6.297  12.958   2.537
39550SOL    HW120483   6.351  12.903   2.595
39550SOL    HW220484   6.361  13.008   2.486
39551SOL     OW20485   8.674   8.467   8.911
39551SOL    HW120486   8.637   8.520   8.982
39551SOL    HW220487   8.750   8.424   8.950
39552SOL     OW20488   3.020   2.776   1.229
39552SOL    HW120489   3.100   2.770   1.176
39552SOL    HW220490   2.989   2.685   1.235
39553SOL     OW20491   1.762  12.032  14.574
39553SOL    HW120492   1.787  12.084  14.650
39553SOL    HW220493   1.793  11.944  14.593
39554SOL     OW20494  14.304   9.793   0.996
39554SOL    HW120495  14.298   9.717   0.938
39554SOL    HW220496  14.393   9.826   0.983
39555SOL     OW20497   1.037  14.081   4.133
39555SOL    HW120498   0.995  13.997   4.116
39555SOL    HW220499   1.069  14.075   4.223
39556SOL     OW20500  12.954   3.107  11.789
39556SOL    HW120501  13.015   3.053  11.738
39556SOL    HW220502  12.983   3.097  11.880
39557SOL     OW20503  10.924   6.350  10.517
39557SOL    HW120504  10.889   6.306  10.439
39557SOL    HW220505  11.019   6.348  10.505
39558SOL     OW20506   1.168   0.330   4.974
39558SOL    HW120507   1.079   0.307   4.948
39558SOL    HW220508   1.163   0.343   5.068
39559SOL     OW20509   6.735   5.873   1.715
39559SOL    HW120510   6.718   5.914   1.800
39559SOL    HW220511   6.713   5.780   1.729
39560SOL     OW20512   8.885  13.192   6.558
39560SOL    HW120513   8.880  13.112   6.610
39560SOL    HW220514   8.884  13.161   6.467
39561SOL     OW20515  13.374   6.544   7.060
39561SOL    HW120516  13.410   6.528   7.147
39561SOL    HW220517  13.449   6.570   7.006
39562SOL     OW20518   0.974  14.770   4.113
39562SOL    HW120519   0.955  14.701   4.177
39562SOL    HW220520   1.069  14.775   4.110
39563SOL     OW20521  10.024   1.843   4.599
39563SOL    HW120522  10.008   1.777   4.532
39563SOL    HW220523  10.117   1.833   4.620
39564SOL     OW20524  10.255  13.901  10.318
39564SOL    HW120525  10.193  13.856  10.261
39564SOL    HW220526  10.329  13.922  10.260
39565SOL     OW20527  13.702   9.863   7.850
39565SOL    HW120528  13.670   9.866   7.761
39565SOL    HW220529  13.624   9.855   7.904
39566SOL     OW20530   6.478  13.623  13.987
39566SOL    HW120531   6.431  13.609  14.069
39566SOL    HW220532   6.486  13.718  13.980
39567SOL     OW20533   3.409   6.412  13.813
39567SOL    HW120534   3.357   6.456  13.746
39567SOL    HW220535   3.456   6.483  13.857
39568SOL     OW20536   2.344   5.584   6.552
39568SOL    HW120537   2.296   5.663   6.580
39568SOL    HW220538   2.302   5.557   6.471
39569SOL     OW20539   4.356   1.449   1.894
39569SOL    HW120540   4.350   1.443   1.798
39569SOL    HW220541   4.449   1.462   1.912
39570SOL     OW20542  11.363  12.817  12.622
39570SOL    HW120543  11.327  12.798  12.709
39570SOL    HW220544  11.343  12.738  12.571
39571SOL     OW20545   1.676  14.028   5.661
39571SOL    HW120546   1.600  14.074   5.697
39571SOL    HW220547   1.648  14.001   5.574
39572SOL     OW20548   6.100   2.009   9.253
39572SOL    HW120549   6.068   1.927   9.216
39572SOL    HW220550   6.052   2.077   9.205
39573SOL     OW20551   6.883  13.365  12.835
39573SOL    HW120552   6.826  13.441  12.821
39573SOL    HW220553   6.880  13.317  12.752
39574SOL     OW20554   8.386   9.653  11.488
39574SOL    HW120555   8.315   9.588  11.494
39574SOL    HW220556   8.458   9.614  11.537
39575SOL     OW20557   4.620   3.791  12.390
39575SOL    HW120558   4.709   3.792  12.354
39575SOL    HW220559   4.630   3.754  12.477
39576SOL     OW20560   3.757   6.974   3.468
39576SOL    HW120561   3.787   7.044   3.410
39576SOL    HW220562   3.799   6.895   3.436
39577SOL     OW20563   3.557   5.529   9.339
39577SOL    HW120564   3.617   5.475   9.391
39577SOL    HW220565   3.546   5.481   9.257
39578SOL     OW20566  12.124  10.503   5.193
39578SOL    HW120567  12.208  10.549   5.193
39578SOL    HW220568  12.147  10.410   5.194
39579SOL     OW20569  13.990   4.948   1.783
39579SOL    HW120570  14.046   5.026   1.789
39579SOL    HW220571  13.990   4.911   1.871
39580SOL     OW20572   3.858   4.189  10.666
39580SOL    HW120573   3.868   4.244  10.589
39580SOL    HW220574   3.872   4.248  10.740
39581SOL     OW20575   4.433   0.670   2.781
39581SOL    HW120576   4.436   0.583   2.740
39581SOL    HW220577   4.513   0.675   2.833
39582SOL     OW20578   1.029   9.467   5.308
39582SOL    HW120579   1.076   9.400   5.258
39582SOL    HW220580   1.093   9.497   5.373
39583SOL     OW20581   8.896   0.399  14.667
39583SOL    HW120582   8.835   0.471  14.651
39583SOL    HW220583   8.981   0.442  14.679
39584SOL     OW20584   1.189   5.467  13.631
39584SOL    HW120585   1.097   5.489  13.648
39584SOL    HW220586   1.186   5.414  13.551
39585SOL     OW20587   3.522  11.798  13.551
39585SOL    HW120588   3.530  11.789  13.456
39585SOL    HW220589   3.519  11.892  13.566
39586SOL     OW20590   2.106   8.629   7.481
39586SOL    HW120591   2.079   8.685   7.553
39586SOL    HW220592   2.054   8.549   7.492
39587SOL     OW20593   8.582   8.724   0.898
39587SOL    HW120594   8.666   8.737   0.942
39587SOL    HW220595   8.524   8.790   0.937
39588SOL     OW20596   1.775   6.142   9.321
39588SOL    HW120597   1.837   6.206   9.288
39588SOL    HW220598   1.820   6.058   9.313
39589SOL     OW20599   2.584  13.857  12.916
39589SOL    HW120600   2.621  13.815  12.838
39589SOL    HW220601   2.658  13.902  12.957
39590SOL     OW20602   8.419  14.292  10.491
39590SOL    HW120603   8.338  14.256  10.454
39590SOL    HW220604   8.484  14.223  10.480
39591SOL     OW20605   1.860   4.667  11.069
39591SOL    HW120606   1.865   4.658  10.974
39591SOL    HW220607   1.769   4.649  11.091
39592SOL     OW20608   8.770   8.094   3.686
39592SOL    HW120609   8.699   8.098   3.622
39592SOL    HW220610   8.807   8.183   3.687
39593SOL     OW20611   3.738   7.612  10.657
39593SOL    HW120612   3.734   7.607  10.561
39593SOL    HW220613   3.647   7.610  10.685
39594SOL     OW20614   9.223   9.509   1.914
39594SOL    HW120615   9.242   9.449   1.841
39594SOL    HW220616   9.307   9.526   1.955
39595SOL     OW20617  10.938  10.420   3.739
39595SOL    HW120618  10.986  10.483   3.794
39595SOL    HW220619  10.877  10.474   3.689
39596SOL     OW20620   3.773   3.544   8.844
39596SOL    HW120621   3.718   3.469   8.823
39596SOL    HW220622   3.746   3.613   8.783
39597SOL     OW20623   4.165  13.650  14.148
39597SOL    HW120624   4.087  13.698  14.122
39597SOL    HW220625   4.184  13.594  14.073
39598SOL     OW20626   7.796   0.874  14.303
39598SOL    HW120627   7.772   0.965  14.319
39598SOL    HW220628   7.744   0.824  14.365
39599SOL     OW20629  12.204   9.472   6.627
39599SOL    HW120630  12.237   9.554   6.591
39599SOL    HW220631  12.265   9.405   6.595
39600SOL     OW20632   3.258  10.561   4.049
39600SOL    HW120633   3.282  10.477   4.087
39600SOL    HW220634   3.217  10.609   4.121
39601SOL     OW20635   8.338   8.110   4.752
39601SOL    HW120636   8.355   8.203   4.739
39601SOL    HW220637   8.337   8.099   4.847
39602SOL     OW20638   8.037   3.997   5.335
39602SOL    HW120639   8.061   4.036   5.251
39602SOL    HW220640   7.944   4.016   5.344
39603SOL     OW20641  13.090  11.479  14.331
39603SOL    HW120642  13.059  11.402  14.379
39603SOL    HW220643  13.057  11.467  14.242
39604SOL     OW20644   9.246  13.050  12.677
39604SOL    HW120645   9.269  13.139  12.654
39604SOL    HW220646   9.174  13.028  12.618
39605SOL     OW20647   8.397   4.964   8.844
39605SOL    HW120648   8.455   4.917   8.904
39605SOL    HW220649   8.417   4.928   8.758
39606SOL     OW20650   5.641  14.034   7.247
39606SOL    HW120651   5.685  13.973   7.307
39606SOL    HW220652   5.663  14.001   7.160
39607SOL     OW20653  13.167   9.473  13.145
39607SOL    HW120654  13.216   9.555  13.147
39607SOL    HW220655  13.092   9.491  13.088
39608SOL     OW20656   6.785   3.067   8.674
39608SOL    HW120657   6.749   3.123   8.605
39608SOL    HW220658   6.836   3.126   8.729
39609SOL     OW20659   6.055  12.429   1.334
39609SOL    HW120660   5.971  12.383   1.330
39609SOL    HW220661   6.077  12.429   1.427
39610SOL     OW20662  10.284  10.211  11.847
39610SOL    HW120663  10.228  10.285  11.869
39610SOL    HW220664  10.228  10.134  11.858
39611SOL     OW20665   2.141   4.845   5.232
39611SOL    HW120666   2.222   4.801   5.208
39611SOL    HW220667   2.128   4.822   5.324
39612SOL     OW20668  13.694   9.737  14.756
39612SOL    HW120669  13.770   9.796  14.755
39612SOL    HW220670  13.733   9.650  14.766
39613SOL     OW20671  14.814   1.487  10.891
39613SOL    HW120672  14.845   1.569  10.929
39613SOL    HW220673   0.010   1.460  10.831
39614SOL     OW20674   0.814   8.446   7.519
39614SOL    HW120675   0.723   8.436   7.492
39614SOL    HW220676   0.809   8.467   7.612
39615SOL     OW20677   7.436   4.525  11.874
39615SOL    HW120678   7.428   4.619  11.894
39615SOL    HW220679   7.483   4.488  11.948
39616SOL     OW20680   4.123   8.306   7.716
39616SOL    HW120681   4.049   8.359   7.686
39616SOL    HW220682   4.104   8.217   7.685
39617SOL     OW20683   6.144   8.491  14.670
39617SOL    HW120684   6.129   8.570  14.722
39617SOL    HW220685   6.110   8.513  14.583
39618SOL     OW20686   5.293   8.196   2.007
39618SOL    HW120687   5.298   8.291   1.996
39618SOL    HW220688   5.346   8.161   1.935
39619SOL     OW20689   7.453   5.667  10.578
39619SOL    HW120690   7.488   5.607  10.644
39619SOL    HW220691   7.385   5.716  10.623
39620SOL     OW20692   2.173   3.642   7.473
39620SOL    HW120693   2.196   3.648   7.565
39620SOL    HW220694   2.082   3.612   7.472
39621SOL     OW20695   6.788  12.585   5.416
39621SOL    HW120696   6.720  12.649   5.437
39621SOL    HW220697   6.813  12.548   5.500
39622SOL     OW20698  11.996   2.867   0.272
39622SOL    HW120699  12.004   2.782   0.229
39622SOL    HW220700  12.084   2.905   0.267
39623SOL     OW20701  13.447  12.305  12.193
39623SOL    HW120702  13.485  12.379  12.145
39623SOL    HW220703  13.518  12.241  12.199
39624SOL     OW20704   4.373   3.955   4.808
39624SOL    HW120705   4.279   3.973   4.811
39624SOL    HW220706   4.400   3.984   4.720
39625SOL     OW20707   9.453   4.992   2.181
39625SOL    HW120708   9.424   4.928   2.115
39625SOL    HW220709   9.540   4.962   2.206
39626SOL     OW20710   4.361  10.226   0.571
39626SOL    HW120711   4.407  10.180   0.501
39626SOL    HW220712   4.289  10.272   0.528
39627SOL     OW20713   9.677  10.926  14.109
39627SOL    HW120714   9.722  10.862  14.054
39627SOL    HW220715   9.597  10.882  14.138
39628SOL     OW20716  12.677  13.693   9.184
39628SOL    HW120717  12.736  13.642   9.127
39628SOL    HW220718  12.735  13.739   9.244
39629SOL     OW20719  10.315   3.872  10.760
39629SOL    HW120720  10.314   3.782  10.729
39629SOL    HW220721  10.298   3.925  10.682
39630SOL     OW20722   6.751   2.435   2.455
39630SOL    HW120723   6.813   2.371   2.419
39630SOL    HW220724   6.781   2.519   2.420
39631SOL     OW20725   7.541  11.133   3.355
39631SOL    HW120726   7.478  11.198   3.326
39631SOL    HW220727   7.487  11.062   3.391
39632SOL     OW20728  14.654   3.210   4.490
39632SOL    HW120729  14.654   3.138   4.552
39632SOL    HW220730  14.604   3.178   4.415
39633SOL     OW20731   3.125  13.292   5.935
39633SOL    HW120732   3.209  13.297   5.981
39633SOL    HW220733   3.145  13.250   5.852
39634SOL     OW20734   8.349   8.714   2.946
39634SOL    HW120735   8.439   8.684   2.938
39634SOL    HW220736   8.296   8.641   2.912
39635SOL     OW20737   7.781  10.557   6.489
39635SOL    HW120738   7.823  10.473   6.508
39635SOL    HW220739   7.721  10.571   6.562
39636SOL     OW20740  10.082   2.553   5.051
39636SOL    HW120741  10.014   2.607   5.091
39636SOL    HW220742  10.035   2.479   5.014
39637SOL     OW20743   2.618  13.234  13.407
39637SOL    HW120744   2.699  13.185  13.392
39637SOL    HW220745   2.572  13.229  13.323
39638SOL     OW20746   3.218   6.321  10.615
39638SOL    HW120747   3.247   6.310  10.706
39638SOL    HW220748   3.297   6.349  10.569
39639SOL     OW20749   7.010   6.230   6.493
39639SOL    HW120750   7.032   6.186   6.575
39639SOL    HW220751   7.089   6.279   6.470
39640SOL     OW20752  12.572   8.486   8.365
39640SOL    HW120753  12.527   8.463   8.283
39640SOL    HW220754  12.665   8.489   8.342
39641SOL     OW20755   9.183   3.258   4.060
39641SOL    HW120756   9.271   3.293   4.069
39641SOL    HW220757   9.165   3.263   3.966
39642SOL     OW20758  11.272   0.527  12.187
39642SOL    HW120759  11.288   0.618  12.165
39642SOL    HW220760  11.330   0.477  12.129
39643SOL     OW20761  12.168   2.784  11.092
39643SOL    HW120762  12.218   2.727  11.150
39643SOL    HW220763  12.079   2.747  11.093
39644SOL     OW20764   1.085   0.871  14.681
39644SOL    HW120765   0.997   0.836  14.698
39644SOL    HW220766   1.095   0.865  14.586
39645SOL     OW20767   6.115   2.502   3.224
39645SOL    HW120768   6.167   2.560   3.281
39645SOL    HW220769   6.107   2.422   3.275
39646SOL     OW20770   1.032  13.340  10.623
39646SOL    HW120771   0.957  13.399  10.618
39646SOL    HW220772   1.069  13.341  10.535
39647SOL     OW20773   1.780   9.507  13.236
39647SOL    HW120774   1.755   9.518  13.144
39647SOL    HW220775   1.855   9.448  13.234
39648SOL     OW20776   6.953  13.665  13.437
39648SOL    HW120777   6.877  13.676  13.379
39648SOL    HW220778   6.949  13.573  13.463
39649SOL     OW20779   8.827   7.203   6.290
39649SOL    HW120780   8.838   7.226   6.197
39649SOL    HW220781   8.734   7.182   6.299
39650SOL     OW20782   9.031   1.127   3.668
39650SOL    HW120783   9.041   1.222   3.670
39650SOL    HW220784   9.003   1.104   3.757
39651SOL     OW20785   7.781   3.907  14.179
39651SOL    HW120786   7.858   3.962  14.168
39651SOL    HW220787   7.808   3.821  14.146
39652SOL     OW20788   7.061  13.353   5.653
39652SOL    HW120789   7.007  13.285   5.693
39652SOL    HW220790   7.130  13.304   5.607
39653SOL     OW20791   8.939  10.977  12.141
39653SOL    HW120792   8.907  10.979  12.231
39653SOL    HW220793   8.869  10.935  12.091
39654SOL     OW20794  14.259   7.568  14.169
39654SOL    HW120795  14.270   7.660  14.144
39654SOL    HW220796  14.326   7.522  14.118
39655SOL     OW20797   8.856  13.689   7.899
39655SOL    HW120798   8.806  13.719   7.975
39655SOL    HW220799   8.924  13.755   7.887
39656SOL     OW20800   0.118  11.262   2.962
39656SOL    HW120801   0.177  11.207   2.909
39656SOL    HW220802   0.031  11.244   2.928
39657SOL     OW20803  11.462   5.715  10.400
39657SOL    HW120804  11.371   5.712  10.369
39657SOL    HW220805  11.515   5.695  10.324
39658SOL     OW20806   4.591   8.661   4.273
39658SOL    HW120807   4.499   8.687   4.281
39658SOL    HW220808   4.588   8.575   4.231
39659SOL     OW20809   0.463   6.849   0.533
39659SOL    HW120810   0.405   6.878   0.603
39659SOL    HW220811   0.475   6.756   0.549
39660SOL     OW20812   8.266   3.734   8.928
39660SOL    HW120813   8.228   3.791   8.860
39660SOL    HW220814   8.331   3.681   8.881
39661SOL     OW20815   2.897   0.513   9.363
39661SOL    HW120816   2.957   0.587   9.373
39661SOL    HW220817   2.937   0.460   9.294
39662SOL     OW20818   5.489   7.904   6.237
39662SOL    HW120819   5.534   7.935   6.159
39662SOL    HW220820   5.404   7.873   6.205
39663SOL     OW20821   0.347  11.955   3.567
39663SOL    HW120822   0.262  11.978   3.604
39663SOL    HW220823   0.358  11.862   3.584
39664SOL     OW20824   9.201   6.816   0.706
39664SOL    HW120825   9.139   6.766   0.759
39664SOL    HW220826   9.208   6.901   0.751
39665SOL     OW20827   9.239  10.793  12.512
39665SOL    HW120828   9.314  10.816  12.567
39665SOL    HW220829   9.163  10.814  12.566
39666SOL     OW20830   4.274  12.202   2.633
39666SOL    HW120831   4.225  12.221   2.553
39666SOL    HW220832   4.343  12.142   2.604
39667SOL     OW20833  11.542  10.170   6.720
39667SOL    HW120834  11.573  10.240   6.776
39667SOL    HW220835  11.591  10.093   6.749
39668SOL     OW20836   1.012  11.096  12.514
39668SOL    HW120837   0.997  11.073  12.422
39668SOL    HW220838   1.094  11.145  12.513
39669SOL     OW20839  12.530   5.287   4.082
39669SOL    HW120840  12.463   5.350   4.108
39669SOL    HW220841  12.485   5.229   4.020
39670SOL     OW20842   5.685   8.844   0.367
39670SOL    HW120843   5.594   8.859   0.391
39670SOL    HW220844   5.735   8.868   0.446
39671SOL     OW20845   3.671   7.899  11.420
39671SOL    HW120846   3.599   7.962  11.426
39671SOL    HW220847   3.734   7.940  11.361
39672SOL     OW20848   1.729   9.994  11.920
39672SOL    HW120849   1.775   9.913  11.943
39672SOL    HW220850   1.793  10.045  11.871
39673SOL     OW20851   8.677   7.541  13.259
39673SOL    HW120852   8.748   7.491  13.219
39673SOL    HW220853   8.651   7.604  13.192
39674SOL     OW20854  13.233  11.159   2.162
39674SOL    HW120855  13.256  11.252   2.154
39674SOL    HW220856  13.267  11.119   2.082
39675SOL     OW20857   3.600   5.633  11.574
39675SOL    HW120858   3.677   5.669  11.617
39675SOL    HW220859   3.549   5.709  11.548
39676SOL     OW20860   3.183   9.688   7.959
39676SOL    HW120861   3.181   9.702   7.864
39676SOL    HW220862   3.119   9.618   7.974
39677SOL     OW20863  12.069   3.286   9.305
39677SOL    HW120864  12.076   3.195   9.275
39677SOL    HW220865  12.020   3.281   9.387
39678SOL     OW20866   9.837   4.239   3.585
39678SOL    HW120867   9.839   4.175   3.513
39678SOL    HW220868   9.864   4.188   3.662
39679SOL     OW20869   2.120  13.761   3.292
39679SOL    HW120870   2.165  13.679   3.269
39679SOL    HW220871   2.161  13.826   3.235
39680SOL     OW20872  12.874   8.120   7.081
39680SOL    HW120873  12.851   8.211   7.062
39680SOL    HW220874  12.968   8.116   7.063
39681SOL     OW20875   6.024   7.926  13.118
39681SOL    HW120876   5.946   7.896  13.164
39681SOL    HW220877   6.034   8.017  13.144
39682SOL     OW20878   2.694  14.852   7.032
39682SOL    HW120879   2.722  14.851   7.123
39682SOL    HW220880   2.727  14.769   6.996
39683SOL     OW20881   4.493   3.257   7.069
39683SOL    HW120882   4.506   3.329   7.008
39683SOL    HW220883   4.569   3.200   7.055
39684SOL     OW20884   6.106   2.871   9.053
39684SOL    HW120885   6.173   2.808   9.079
39684SOL    HW220886   6.134   2.901   8.966
39685SOL     OW20887  14.118   4.953  10.555
39685SOL    HW120888  14.205   4.913  10.565
39685SOL    HW220889  14.057   4.881  10.563
39686SOL     OW20890   0.036   9.222  13.682
39686SOL    HW120891  14.823   9.243  13.644
39686SOL    HW220892   0.046   9.128  13.668
39687SOL     OW20893   0.619   5.667   0.982
39687SOL    HW120894   0.574   5.751   0.988
39687SOL    HW220895   0.684   5.679   0.912
39688SOL     OW20896  11.038   7.859   6.113
39688SOL    HW120897  10.950   7.897   6.108
39688SOL    HW220898  11.083   7.912   6.178
39689SOL     OW20899   1.292   6.380   8.436
39689SOL    HW120900   1.311   6.462   8.390
39689SOL    HW220901   1.369   6.325   8.419
39690SOL     OW20902   2.405   6.049  13.373
39690SOL    HW120903   2.436   6.128  13.417
39690SOL    HW220904   2.445   5.977  13.422
39691SOL     OW20905   2.839  11.921  11.952
39691SOL    HW120906   2.907  11.978  11.988
39691SOL    HW220907   2.766  11.928  12.014
39692SOL     OW20908   4.875   5.483   5.025
39692SOL    HW120909   4.912   5.408   4.980
39692SOL    HW220910   4.927   5.491   5.106
39693SOL     OW20911  14.333  11.123   2.897
39693SOL    HW120912  14.383  11.138   2.977
39693SOL    HW220913  14.243  11.110   2.927
39694SOL     OW20914  10.335   6.551   8.401
39694SOL    HW120915  10.249   6.592   8.407
39694SOL    HW220916  10.395   6.615   8.440
39695SOL     OW20917  12.768  13.101   6.276
39695SOL    HW120918  12.774  13.171   6.212
39695SOL    HW220919  12.842  13.116   6.335
39696SOL     OW20920   9.075   3.729   3.320
39696SOL    HW120921   9.024   3.662   3.366
39696SOL    HW220922   9.153   3.683   3.290
39697SOL     OW20923  10.204   1.400  14.428
39697SOL    HW120924  10.286   1.396  14.379
39697SOL    HW220925  10.149   1.460  14.377
39698SOL     OW20926   1.112   2.892   5.136
39698SOL    HW120927   1.036   2.934   5.177
39698SOL    HW220928   1.099   2.799   5.151
39699SOL     OW20929  11.467   7.854   1.398
39699SOL    HW120930  11.409   7.781   1.421
39699SOL    HW220931  11.507   7.827   1.315
39700SOL     OW20932   6.953   0.157   4.230
39700SOL    HW120933   6.923   0.225   4.290
39700SOL    HW220934   7.047   0.173   4.220
39701SOL     OW20935   6.648   7.646   7.794
39701SOL    HW120936   6.624   7.569   7.744
39701SOL    HW220937   6.575   7.707   7.779
39702SOL     OW20938   3.609   8.137   3.769
39702SOL    HW120939   3.642   8.160   3.682
39702SOL    HW220940   3.548   8.208   3.791
39703SOL     OW20941  10.898   1.259  10.207
39703SOL    HW120942  10.962   1.300  10.265
39703SOL    HW220943  10.950   1.199  10.153
39704SOL     OW20944   7.259   3.993   7.497
39704SOL    HW120945   7.240   3.983   7.590
39704SOL    HW220946   7.355   4.002   7.493
39705SOL     OW20947   5.702   0.953   1.363
39705SOL    HW120948   5.677   0.864   1.341
39705SOL    HW220949   5.765   0.944   1.435
39706SOL     OW20950   5.569   2.898   7.292
39706SOL    HW120951   5.588   2.961   7.222
39706SOL    HW220952   5.653   2.887   7.336
39707SOL     OW20953  14.464   7.407   4.766
39707SOL    HW120954  14.382   7.385   4.723
39707SOL    HW220955  14.490   7.490   4.727
39708SOL     OW20956   1.658   1.442   6.407
39708SOL    HW120957   1.599   1.516   6.425
39708SOL    HW220958   1.730   1.480   6.358
39709SOL     OW20959   9.195   2.287   6.900
39709SOL    HW120960   9.216   2.378   6.881
39709SOL    HW220961   9.250   2.265   6.976
39710SOL     OW20962   1.536   7.972  12.519
39710SOL    HW120963   1.572   8.050  12.477
39710SOL    HW220964   1.526   7.996  12.611
39711SOL     OW20965   1.846   2.358   6.609
39711SOL    HW120966   1.866   2.264   6.619
39711SOL    HW220967   1.926   2.402   6.638
39712SOL     OW20968   9.794   3.715   8.594
39712SOL    HW120969   9.783   3.714   8.689
39712SOL    HW220970   9.727   3.654   8.562
39713SOL     OW20971   5.840  11.555  13.730
39713SOL    HW120972   5.868  11.469  13.699
39713SOL    HW220973   5.911  11.585  13.787
39714SOL     OW20974   4.502   6.715  13.328
39714SOL    HW120975   4.552   6.704  13.408
39714SOL    HW220976   4.432   6.777  13.352
39715SOL     OW20977  14.060  13.192   2.557
39715SOL    HW120978  13.965  13.204   2.551
39715SOL    HW220979  14.082  13.140   2.479
39716SOL     OW20980   0.018   6.280  13.400
39716SOL    HW120981  14.846   6.279  13.315
39716SOL    HW220982   0.111   6.279  13.379
39717SOL     OW20983  13.406  10.654   1.599
39717SOL    HW120984  13.456  10.593   1.653
39717SOL    HW220985  13.407  10.616   1.512
39718SOL     OW20986   5.347   9.548  12.189
39718SOL    HW120987   5.299   9.472  12.156
39718SOL    HW220988   5.435   9.515  12.207
39719SOL     OW20989   2.159   6.859   5.021
39719SOL    HW120990   2.236   6.806   5.042
39719SOL    HW220991   2.147   6.915   5.098
39720SOL     OW20992  12.898  12.447  13.676
39720SOL    HW120993  12.823  12.435  13.735
39720SOL    HW220994  12.963  12.492  13.729
39721SOL     OW20995  11.722  10.917  12.321
39721SOL    HW120996  11.746  10.850  12.385
39721SOL    HW220997  11.627  10.912  12.315
39722SOL     OW20998   7.312  12.470   1.763
39722SOL    HW120999   7.334  12.553   1.806
39722SOL    HW221000   7.233  12.441   1.808
39723SOL     OW21001  13.404   2.298  14.191
39723SOL    HW121002  13.345   2.223  14.202
39723SOL    HW221003  13.474   2.283  14.255
39724SOL     OW21004   3.571  14.194  11.057
39724SOL    HW121005   3.501  14.190  11.122
39724SOL    HW221006   3.602  14.104  11.049
39725SOL     OW21007   8.789  11.397  11.329
39725SOL    HW121008   8.736  11.333  11.282
39725SOL    HW221009   8.851  11.429  11.264
39726SOL     OW21010   9.062   7.374  10.130
39726SOL    HW121011   9.019   7.320  10.196
39726SOL    HW221012   9.012   7.455  10.128
39727SOL     OW21013   0.989   5.563  14.020
39727SOL    HW121014   0.941   5.568  14.103
39727SOL    HW221015   0.944   5.623  13.962
39728SOL     OW21016   1.735  12.912   5.603
39728SOL    HW121017   1.772  12.833   5.564
39728SOL    HW221018   1.810  12.969   5.617
39729SOL     OW21019   9.369   4.336   4.041
39729SOL    HW121020   9.353   4.410   3.983
39729SOL    HW221021   9.447   4.361   4.090
39730SOL     OW21022   1.625  14.126   7.816
39730SOL    HW121023   1.566  14.122   7.741
39730SOL    HW221024   1.692  14.190   7.791
39731SOL     OW21025   5.807  11.214   3.291
39731SOL    HW121026   5.898  11.222   3.317
39731SOL    HW221027   5.760  11.274   3.349
39732SOL     OW21028   6.059   8.639   3.550
39732SOL    HW121029   6.106   8.704   3.498
39732SOL    HW221030   6.103   8.556   3.529
39733SOL     OW21031   8.231  13.913   2.513
39733SOL    HW121032   8.145  13.870   2.508
39733SOL    HW221033   8.250  13.938   2.422
39734SOL     OW21034  11.391   4.449   6.716
39734SOL    HW121035  11.300   4.429   6.739
39734SOL    HW221036  11.420   4.512   6.782
39735SOL     OW21037   4.207   9.317   6.363
39735SOL    HW121038   4.256   9.263   6.425
39735SOL    HW221039   4.231   9.407   6.385
39736SOL     OW21040   9.890  11.309   3.429
39736SOL    HW121041   9.797  11.302   3.453
39736SOL    HW221042   9.890  11.312   3.334
39737SOL     OW21043  12.774   0.335  13.698
39737SOL    HW121044  12.784   0.406  13.761
39737SOL    HW221045  12.811   0.369  13.617
39738SOL     OW21046   9.575   3.469  13.774
39738SOL    HW121047   9.506   3.515  13.726
39738SOL    HW221048   9.649   3.530  13.775
39739SOL     OW21049   5.780   3.356   7.221
39739SOL    HW121050   5.804   3.444   7.249
39739SOL    HW221051   5.728   3.370   7.142
39740SOL     OW21052   6.296  13.914  14.381
39740SOL    HW121053   6.390  13.897  14.380
39740SOL    HW221054   6.287  14.000  14.339
39741SOL     OW21055   7.007   6.116   3.855
39741SOL    HW121056   6.993   6.202   3.896
39741SOL    HW221057   7.082   6.129   3.797
39742SOL     OW21058   4.073  14.679  12.102
39742SOL    HW121059   4.082  14.584  12.102
39742SOL    HW221060   4.104  14.706  12.016
39743SOL     OW21061   4.571   0.433   5.264
39743SOL    HW121062   4.500   0.431   5.200
39743SOL    HW221063   4.647   0.399   5.217
39744SOL     OW21064   3.421   6.343   7.051
39744SOL    HW121065   3.402   6.431   7.018
39744SOL    HW221066   3.513   6.328   7.028
39745SOL     OW21067  12.887  13.108  11.320
39745SOL    HW121068  12.964  13.100  11.375
39745SOL    HW221069  12.828  13.038  11.350
39746SOL     OW21070   3.361   9.516   8.859
39746SOL    HW121071   3.342   9.486   8.948
39746SOL    HW221072   3.278   9.550   8.827
39747SOL     OW21073  13.317   5.342  13.856
39747SOL    HW121074  13.393   5.401  13.856
39747SOL    HW221075  13.294   5.332  13.764
39748SOL     OW21076  10.793   6.637   6.046
39748SOL    HW121077  10.842   6.575   6.100
39748SOL    HW221078  10.715   6.589   6.018
39749SOL     OW21079   4.136   1.687   6.284
39749SOL    HW121080   4.115   1.632   6.209
39749SOL    HW221081   4.068   1.754   6.285
39750SOL     OW21082  13.693   3.916   7.787
39750SOL    HW121083  13.652   4.003   7.782
39750SOL    HW221084  13.784   3.934   7.809
39751SOL     OW21085  13.421   2.777  12.083
39751SOL    HW121086  13.501   2.824  12.106
39751SOL    HW221087  13.451   2.689  12.060
39752SOL     OW21088   8.618   8.628  10.884
39752SOL    HW121089   8.673   8.551  10.872
39752SOL    HW221090   8.680   8.698  10.907
39753SOL     OW21091  13.508  11.574   6.134
39753SOL    HW121092  13.574  11.577   6.065
39753SOL    HW221093  13.444  11.509   6.104
39754SOL     OW21094  10.058  11.642   1.207
39754SOL    HW121095  10.128  11.596   1.160
39754SOL    HW221096   9.977  11.605   1.173
39755SOL     OW21097   1.948  13.061   4.587
39755SOL    HW121098   1.966  13.144   4.542
39755SOL    HW221099   2.026  13.008   4.569
39756SOL     OW21100   9.855  14.682   9.403
39756SOL    HW121101   9.817  14.685   9.316
39756SOL    HW221102   9.779  14.682   9.462
39757SOL     OW21103  13.940  11.838   9.329
39757SOL    HW121104  13.900  11.793   9.403
39757SOL    HW221105  13.934  11.931   9.352
39758SOL     OW21106   6.591  12.921   6.432
39758SOL    HW121107   6.684  12.902   6.430
39758SOL    HW221108   6.570  12.934   6.524
39759SOL     OW21109   4.398   0.171   6.849
39759SOL    HW121110   4.458   0.096   6.856
39759SOL    HW221111   4.440   0.229   6.786
39760SOL     OW21112   8.435   6.209   7.316
39760SOL    HW121113   8.444   6.216   7.411
39760SOL    HW221114   8.372   6.278   7.293
39761SOL     OW21115  11.114   4.086   0.340
39761SOL    HW121116  11.109   3.994   0.364
39761SOL    HW221117  11.188   4.091   0.279
39762SOL     OW21118  11.578   5.417   0.487
39762SOL    HW121119  11.534   5.383   0.409
39762SOL    HW221120  11.671   5.399   0.471
39763SOL     OW21121   7.037   3.168   2.938
39763SOL    HW121122   7.023   3.256   2.973
39763SOL    HW221123   7.093   3.125   3.002
39764SOL     OW21124   1.907   3.843  14.510
39764SOL    HW121125   1.849   3.834  14.435
39764SOL    HW221126   1.950   3.757  14.518
39765SOL     OW21127   2.260   4.136  11.963
39765SOL    HW121128   2.309   4.206  12.006
39765SOL    HW221129   2.323   4.066  11.951
39766SOL     OW21130   6.855   0.613   1.785
39766SOL    HW121131   6.836   0.696   1.829
39766SOL    HW221132   6.814   0.546   1.840
39767SOL     OW21133   5.951  13.021  12.196
39767SOL    HW121134   5.998  13.101  12.220
39767SOL    HW221135   5.929  13.034  12.103
39768SOL     OW21136   9.905   1.401   2.877
39768SOL    HW121137   9.819   1.360   2.868
39768SOL    HW221138   9.897   1.484   2.829
39769SOL     OW21139   5.237   6.064   9.784
39769SOL    HW121140   5.269   6.138   9.732
39769SOL    HW221141   5.192   6.105   9.858
39770SOL     OW21142   3.353  14.458   8.857
39770SOL    HW121143   3.347  14.369   8.891
39770SOL    HW221144   3.436  14.460   8.809
39771SOL     OW21145   4.836   3.313   9.234
39771SOL    HW121146   4.749   3.300   9.197
39771SOL    HW221147   4.829   3.286   9.325
39772SOL     OW21148  12.534   6.333   2.853
39772SOL    HW121149  12.616   6.285   2.847
39772SOL    HW221150  12.559   6.424   2.862
39773SOL     OW21151   5.871   4.794   8.938
39773SOL    HW121152   5.791   4.846   8.948
39773SOL    HW221153   5.854   4.739   8.862
39774SOL     OW21154   5.300   0.727   2.139
39774SOL    HW121155   5.380   0.714   2.088
39774SOL    HW221156   5.232   0.682   2.089
39775SOL     OW21157  13.612   0.542   9.717
39775SOL    HW121158  13.625   0.613   9.654
39775SOL    HW221159  13.645   0.464   9.674
39776SOL     OW21160   8.948   4.434  14.745
39776SOL    HW121161   8.868   4.452  14.696
39776SOL    HW221162   8.992   4.366  14.696
39777SOL     OW21163   8.667  12.585  13.512
39777SOL    HW121164   8.580  12.565  13.477
39777SOL    HW221165   8.688  12.671  13.477
39778SOL     OW21166  10.541   1.733  10.782
39778SOL    HW121167  10.460   1.774  10.752
39778SOL    HW221168  10.514   1.680  10.858
39779SOL     OW21169  14.445   5.150   3.563
39779SOL    HW121170  14.376   5.198   3.517
39779SOL    HW221171  14.516   5.213   3.571
39780SOL     OW21172  13.576   1.276   1.116
39780SOL    HW121173  13.594   1.186   1.090
39780SOL    HW221174  13.656   1.324   1.096
39781SOL     OW21175  14.366   1.849   0.841
39781SOL    HW121176  14.420   1.770   0.845
39781SOL    HW221177  14.299   1.829   0.775
39782SOL     OW21178   7.619  11.568   5.786
39782SOL    HW121179   7.655  11.531   5.706
39782SOL    HW221180   7.550  11.627   5.756
39783SOL     OW21181  11.521  12.516   0.262
39783SOL    HW121182  11.587  12.509   0.331
39783SOL    HW221183  11.480  12.601   0.277
39784SOL     OW21184   6.319  11.383   8.156
39784SOL    HW121185   6.351  11.470   8.135
39784SOL    HW221186   6.391  11.341   8.203
39785SOL     OW21187  12.653   0.161   1.944
39785SOL    HW121188  12.586   0.111   1.990
39785SOL    HW221189  12.726   0.167   2.006
39786SOL     OW21190   7.754   5.651   1.387
39786SOL    HW121191   7.684   5.689   1.440
39786SOL    HW221192   7.709   5.613   1.311
39787SOL     OW21193   1.584   5.088  12.859
39787SOL    HW121194   1.500   5.113  12.820
39787SOL    HW221195   1.583   5.129  12.946
39788SOL     OW21196  10.640   6.054   8.032
39788SOL    HW121197  10.735   6.044   8.027
39788SOL    HW221198  10.605   5.982   7.980
39789SOL     OW21199  14.515   6.398   7.306
39789SOL    HW121200  14.440   6.439   7.351
39789SOL    HW221201  14.475   6.349   7.234
39790SOL     OW21202   2.215   7.157  12.930
39790SOL    HW121203   2.304   7.137  12.961
39790SOL    HW221204   2.170   7.072  12.934
39791SOL     OW21205  10.503   4.363   2.318
39791SOL    HW121206  10.481   4.433   2.257
39791SOL    HW221207  10.430   4.363   2.380
39792SOL     OW21208   5.749  14.194   7.993
39792SOL    HW121209   5.824  14.171   7.938
39792SOL    HW221210   5.748  14.127   8.061
39793SOL     OW21211   9.233   3.507  11.719
39793SOL    HW121212   9.308   3.561  11.743
39793SOL    HW221213   9.173   3.568  11.675
39794SOL     OW21214  13.302   1.226   4.394
39794SOL    HW121215  13.369   1.202   4.330
39794SOL    HW221216  13.343   1.292   4.450
39795SOL     OW21217   7.605   8.333   5.704
39795SOL    HW121218   7.558   8.367   5.627
39795SOL    HW221219   7.536   8.300   5.761
39796SOL     OW21220   3.086  13.020  11.120
39796SOL    HW121221   3.084  13.086  11.050
39796SOL    HW221222   3.117  13.068  11.197
39797SOL     OW21223  11.977   2.531   6.368
39797SOL    HW121224  11.959   2.532   6.462
39797SOL    HW221225  12.070   2.514   6.361
39798SOL     OW21226   0.830   2.110  10.753
39798SOL    HW121227   0.742   2.075  10.763
39798SOL    HW221228   0.818   2.205  10.753
39799SOL     OW21229  11.023   0.807  11.253
39799SOL    HW121230  11.026   0.873  11.322
39799SOL    HW221231  10.938   0.820  11.210
39800SOL     OW21232  11.797   7.706   2.153
39800SOL    HW121233  11.778   7.713   2.247
39800SOL    HW221234  11.777   7.794   2.119
39801SOL     OW21235  12.849   1.787  10.187
39801SOL    HW121236  12.798   1.866  10.168
39801SOL    HW221237  12.806   1.749  10.264
39802SOL     OW21238   2.282   1.402   9.220
39802SOL    HW121239   2.227   1.481   9.220
39802SOL    HW221240   2.365   1.430   9.258
39803SOL     OW21241  13.376  14.614  14.211
39803SOL    HW121242  13.345  14.546  14.152
39803SOL    HW221243  13.307  14.680  14.210
39804SOL     OW21244   3.747  10.211   2.687
39804SOL    HW121245   3.776  10.299   2.710
39804SOL    HW221246   3.743  10.164   2.770
39805SOL     OW21247   7.991  11.562   6.245
39805SOL    HW121248   8.070  11.516   6.274
39805SOL    HW221249   8.021  11.651   6.227
39806SOL     OW21250   6.982   7.999   6.825
39806SOL    HW121251   6.919   7.927   6.835
39806SOL    HW221252   6.978   8.046   6.908
39807SOL     OW21253   3.746   9.556   2.449
39807SOL    HW121254   3.781   9.632   2.495
39807SOL    HW221255   3.754   9.484   2.512
39808SOL     OW21256  10.315   0.839   3.235
39808SOL    HW121257  10.350   0.879   3.156
39808SOL    HW221258  10.221   0.837   3.221
39809SOL     OW21259   2.895   8.941   4.733
39809SOL    HW121260   2.965   8.900   4.683
39809SOL    HW221261   2.841   8.985   4.667
39810SOL     OW21262  14.341   2.633   1.978
39810SOL    HW121263  14.388   2.645   1.895
39810SOL    HW221264  14.265   2.579   1.955
39811SOL     OW21265   6.599   6.435   0.528
39811SOL    HW121266   6.563   6.380   0.598
39811SOL    HW221267   6.595   6.379   0.450
39812SOL     OW21268   3.173  10.825   7.196
39812SOL    HW121269   3.107  10.784   7.251
39812SOL    HW221270   3.137  10.911   7.176
39813SOL     OW21271   4.895   9.378   5.473
39813SOL    HW121272   4.815   9.329   5.494
39813SOL    HW221273   4.910   9.360   5.380
39814SOL     OW21274  11.863   6.984   2.119
39814SOL    HW121275  11.869   6.992   2.214
39814SOL    HW221276  11.932   6.923   2.095
39815SOL     OW21277  13.419  10.040  11.998
39815SOL    HW121278  13.424  10.079  11.911
39815SOL    HW221279  13.326  10.043  12.020
39816SOL     OW21280  12.609  11.531  14.099
39816SOL    HW121281  12.685  11.587  14.079
39816SOL    HW221282  12.551  11.588  14.151
39817SOL     OW21283   1.669  10.079  10.161
39817SOL    HW121284   1.632  10.020  10.227
39817SOL    HW221285   1.763  10.058  10.160
39818SOL     OW21286  12.729  11.293  14.123
39818SOL    HW121287  12.679  11.372  14.105
39818SOL    HW221288  12.772  11.272  14.040
39819SOL     OW21289  13.240   1.559   8.849
39819SOL    HW121290  13.305   1.621   8.817
39819SOL    HW221291  13.261   1.548   8.942
39820SOL     OW21292   9.213   1.707   1.737
39820SOL    HW121293   9.260   1.642   1.685
39820SOL    HW221294   9.219   1.788   1.686
39821SOL     OW21295   6.285   3.731   4.507
39821SOL    HW121296   6.258   3.734   4.416
39821SOL    HW221297   6.381   3.729   4.503
39822SOL     OW21298   1.632   6.090   2.814
39822SOL    HW121299   1.721   6.099   2.848
39822SOL    HW221300   1.638   6.024   2.746
39823SOL     OW21301   4.763   4.409   1.280
39823SOL    HW121302   4.725   4.367   1.358
39823SOL    HW221303   4.723   4.363   1.206
39824SOL     OW21304  11.472  14.231   4.477
39824SOL    HW121305  11.547  14.178   4.451
39824SOL    HW221306  11.427  14.250   4.395
39825SOL     OW21307   4.869   8.428  14.622
39825SOL    HW121308   4.773   8.428  14.620
39825SOL    HW221309   4.894   8.516  14.593
39826SOL     OW21310  11.865   8.816   9.612
39826SOL    HW121311  11.861   8.868   9.692
39826SOL    HW221312  11.821   8.869   9.546
39827SOL     OW21313   9.924   7.109   8.305
39827SOL    HW121314   9.947   7.202   8.317
39827SOL    HW221315   9.938   7.071   8.392
39828SOL     OW21316   8.222  12.463   3.404
39828SOL    HW121317   8.229  12.517   3.326
39828SOL    HW221318   8.261  12.379   3.378
39829SOL     OW21319   2.296  12.707   7.084
39829SOL    HW121320   2.313  12.761   7.162
39829SOL    HW221321   2.217  12.657   7.107
39830SOL     OW21322   0.776   3.671   4.228
39830SOL    HW121323   0.718   3.742   4.200
39830SOL    HW221324   0.831   3.654   4.152
39831SOL     OW21325   1.821  13.202   5.491
39831SOL    HW121326   1.881  13.269   5.522
39831SOL    HW221327   1.764  13.185   5.566
39832SOL     OW21328  10.737   3.756  13.237
39832SOL    HW121329  10.810   3.714  13.283
39832SOL    HW221330  10.659   3.720  13.280
39833SOL     OW21331   2.793   6.504  12.490
39833SOL    HW121332   2.854   6.482  12.419
39833SOL    HW221333   2.708   6.470  12.460
39834SOL     OW21334  13.727  11.855  12.278
39834SOL    HW121335  13.821  11.870  12.274
39834SOL    HW221336  13.710  11.830  12.369
39835SOL     OW21337   0.125  13.047   3.265
39835SOL    HW121338   0.148  12.982   3.199
39835SOL    HW221339   0.206  13.058   3.316
39836SOL     OW21340   4.403  10.090   3.525
39836SOL    HW121341   4.441  10.165   3.572
39836SOL    HW221342   4.454  10.085   3.444
39837SOL     OW21343  11.471   8.486  13.317
39837SOL    HW121344  11.547   8.450  13.362
39837SOL    HW221345  11.443   8.416  13.258
39838SOL     OW21346   1.850   2.574   9.058
39838SOL    HW121347   1.919   2.615   9.111
39838SOL    HW221348   1.800   2.648   9.023
39839SOL     OW21349   2.649  14.375   4.508
39839SOL    HW121350   2.587  14.344   4.443
39839SOL    HW221351   2.651  14.470   4.496
39840SOL     OW21352  13.875   2.935   0.271
39840SOL    HW121353  13.837   3.012   0.228
39840SOL    HW221354  13.965   2.932   0.239
39841SOL     OW21355   7.284   9.558   5.666
39841SOL    HW121356   7.314   9.632   5.719
39841SOL    HW221357   7.190   9.552   5.683
39842SOL     OW21358   2.437   5.218  11.644
39842SOL    HW121359   2.429   5.178  11.558
39842SOL    HW221360   2.426   5.312  11.629
39843SOL     OW21361   4.062   2.720   2.073
39843SOL    HW121362   4.106   2.803   2.054
39843SOL    HW221363   3.980   2.725   2.025
39844SOL     OW21364   6.524   2.350   8.551
39844SOL    HW121365   6.499   2.335   8.642
39844SOL    HW221366   6.565   2.437   8.551
39845SOL     OW21367   7.042   0.454  14.476
39845SOL    HW121368   7.111   0.430  14.538
39845SOL    HW221369   7.072   0.418  14.392
39846SOL     OW21370   9.559  11.993   1.862
39846SOL    HW121371   9.645  11.951   1.866
39846SOL    HW221372   9.568  12.059   1.793
39847SOL     OW21373  13.997  11.563  13.290
39847SOL    HW121374  14.016  11.656  13.282
39847SOL    HW221375  13.903  11.556  13.276
39848SOL     OW21376   0.148   1.268   4.865
39848SOL    HW121377   0.172   1.194   4.809
39848SOL    HW221378   0.131   1.229   4.950
39849SOL     OW21379   3.144   2.363  14.749
39849SOL    HW121380   3.059   2.402  14.728
39849SOL    HW221381   3.155   2.378  14.843
39850SOL     OW21382   2.497   7.387  13.086
39850SOL    HW121383   2.457   7.300  13.083
39850SOL    HW221384   2.474   7.420  13.172
39851SOL     OW21385   9.956   6.424  14.445
39851SOL    HW121386   9.887   6.410  14.511
39851SOL    HW221387  10.002   6.503  14.476
39852SOL     OW21388   7.561   0.602   6.000
39852SOL    HW121389   7.508   0.576   5.925
39852SOL    HW221390   7.532   0.544   6.071
39853SOL     OW21391   8.944  10.048   0.846
39853SOL    HW121392   9.006   9.975   0.834
39853SOL    HW221393   8.862  10.014   0.812
39854SOL     OW21394  10.055   5.476   6.113
39854SOL    HW121395  10.027   5.386   6.128
39854SOL    HW221396   9.989   5.530   6.157
39855SOL     OW21397   8.129   4.529   6.716
39855SOL    HW121398   8.087   4.560   6.635
39855SOL    HW221399   8.077   4.569   6.786
39856SOL     OW21400   2.700  13.434  10.880
39856SOL    HW121401   2.672  13.357  10.832
39856SOL    HW221402   2.796  13.431  10.876
39857SOL     OW21403  13.004  13.403   7.233
39857SOL    HW121404  12.935  13.458   7.271
39857SOL    HW221405  13.018  13.333   7.297
39858SOL     OW21406   6.980   3.389   5.301
39858SOL    HW121407   6.925   3.323   5.342
39858SOL    HW221408   7.060   3.343   5.275
39859SOL     OW21409   8.162   0.019  12.623
39859SOL    HW121410   8.231   0.082  12.642
39859SOL    HW221411   8.171  14.825  12.691
39860SOL     OW21412   0.885  11.503  12.242
39860SOL    HW121413   0.861  11.548  12.323
39860SOL    HW221414   0.896  11.573  12.178
39861SOL     OW21415   2.590   7.341   6.933
39861SOL    HW121416   2.582   7.423   6.884
39861SOL    HW221417   2.549   7.275   6.877
39862SOL     OW21418   0.640  13.896   9.614
39862SOL    HW121419   0.664  13.987   9.593
39862SOL    HW221420   0.558  13.903   9.662
39863SOL     OW21421   7.678  13.812   6.652
39863SOL    HW121422   7.651  13.726   6.683
39863SOL    HW221423   7.597  13.857   6.630
39864SOL     OW21424   8.132   2.796   3.623
39864SOL    HW121425   8.110   2.843   3.703
39864SOL    HW221426   8.123   2.703   3.646
39865SOL     OW21427   2.129   0.655   1.073
39865SOL    HW121428   2.042   0.675   1.039
39865SOL    HW221429   2.190   0.699   1.014
39866SOL     OW21430   7.061  10.326   5.173
39866SOL    HW121431   7.104  10.343   5.089
39866SOL    HW221432   6.988  10.388   5.176
39867SOL     OW21433   1.377   8.554   8.774
39867SOL    HW121434   1.328   8.483   8.733
39867SOL    HW221435   1.399   8.613   8.701
39868SOL     OW21436  14.526  13.480  10.262
39868SOL    HW121437  14.609  13.525  10.251
39868SOL    HW221438  14.460  13.547  10.247
39869SOL     OW21439  11.004   5.606   8.567
39869SOL    HW121440  11.028   5.516   8.591
39869SOL    HW221441  10.952   5.596   8.487
39870SOL     OW21442   3.482  13.062   3.565
39870SOL    HW121443   3.470  13.034   3.474
39870SOL    HW221444   3.534  13.142   3.560
39871SOL     OW21445  13.625   1.160   9.805
39871SOL    HW121446  13.596   1.086   9.751
39871SOL    HW221447  13.565   1.160   9.880
39872SOL     OW21448   0.246  14.503  12.506
39872SOL    HW121449   0.330  14.480  12.467
39872SOL    HW221450   0.180  14.463  12.450
39873SOL     OW21451   3.244   3.053   0.513
39873SOL    HW121452   3.203   2.972   0.482
39873SOL    HW221453   3.179   3.121   0.497
39874SOL     OW21454   4.561   9.464   3.115
39874SOL    HW121455   4.607   9.443   3.196
39874SOL    HW221456   4.630   9.489   3.054
39875SOL     OW21457   7.915   4.486   1.870
39875SOL    HW121458   7.941   4.427   1.941
39875SOL    HW221459   7.873   4.430   1.806
39876SOL     OW21460   0.297  14.283  11.901
39876SOL    HW121461   0.225  14.345  11.912
39876SOL    HW221462   0.305  14.240  11.986
39877SOL     OW21463   3.776  13.837   5.475
39877SOL    HW121464   3.756  13.903   5.408
39877SOL    HW221465   3.745  13.875   5.557
39878SOL     OW21466   1.956   3.616   8.446
39878SOL    HW121467   2.035   3.574   8.480
39878SOL    HW221468   1.921   3.554   8.383
39879SOL     OW21469  11.065   6.714   1.087
39879SOL    HW121470  11.101   6.651   1.149
39879SOL    HW221471  11.106   6.797   1.111
39880SOL     OW21472   7.376   9.850   6.146
39880SOL    HW121473   7.289   9.861   6.183
39880SOL    HW221474   7.435   9.851   6.221
39881SOL     OW21475   3.272   0.828   4.631
39881SOL    HW121476   3.185   0.825   4.591
39881SOL    HW221477   3.317   0.898   4.584
39882SOL     OW21478  14.833   9.242   9.280
39882SOL    HW121479  14.866   9.236   9.369
39882SOL    HW221480  14.738   9.246   9.290
39883SOL     OW21481  11.240   4.819   2.189
39883SOL    HW121482  11.192   4.784   2.263
39883SOL    HW221483  11.331   4.822   2.218
39884SOL     OW21484  11.644  11.059   5.827
39884SOL    HW121485  11.676  11.021   5.909
39884SOL    HW221486  11.550  11.040   5.827
39885SOL     OW21487   8.206   1.915   5.917
39885SOL    HW121488   8.202   1.879   6.006
39885SOL    HW221489   8.223   1.840   5.861
39886SOL     OW21490   8.827   6.635  10.031
39886SOL    HW121491   8.851   6.725  10.053
39886SOL    HW221492   8.874   6.581  10.095
39887SOL     OW21493   5.021   2.728  11.572
39887SOL    HW121494   4.985   2.811  11.542
39887SOL    HW221495   4.944   2.670  11.581
39888SOL     OW21496   6.498   2.495   1.107
39888SOL    HW121497   6.450   2.461   1.032
39888SOL    HW221498   6.560   2.558   1.069
39889SOL     OW21499  12.892  10.937  14.169
39889SOL    HW121500  12.967  10.879  14.177
39889SOL    HW221501  12.926  11.023  14.193
39890SOL     OW21502   3.338   4.242   1.197
39890SOL    HW121503   3.354   4.312   1.260
39890SOL    HW221504   3.245   4.250   1.174
39891SOL     OW21505   9.660   2.267   8.010
39891SOL    HW121506   9.674   2.181   7.969
39891SOL    HW221507   9.573   2.261   8.049
39892SOL     OW21508   2.083  11.348   4.347
39892SOL    HW121509   2.010  11.330   4.406
39892SOL    HW221510   2.065  11.436   4.312
39893SOL     OW21511  12.714   9.957   3.423
39893SOL    HW121512  12.693   9.884   3.481
39893SOL    HW221513  12.629   9.999   3.405
39894SOL     OW21514   2.242  11.719   3.238
39894SOL    HW121515   2.284  11.722   3.151
39894SOL    HW221516   2.175  11.788   3.234
39895SOL     OW21517   4.398  14.043  14.719
39895SOL    HW121518   4.335  14.088  14.662
39895SOL    HW221519   4.474  14.101  14.722
39896SOL     OW21520   8.660  10.079  14.219
39896SOL    HW121521   8.646   9.985  14.229
39896SOL    HW221522   8.687  10.090  14.128
39897SOL     OW21523   2.930   5.680   9.066
39897SOL    HW121524   2.987   5.667   8.990
39897SOL    HW221525   2.943   5.772   9.091
39898SOL     OW21526  12.337  11.988  11.868
39898SOL    HW121527  12.273  12.018  11.803
39898SOL    HW221528  12.318  11.896  11.880
39899SOL     OW21529   0.209   4.469   1.899
39899SOL    HW121530   0.132   4.524   1.882
39899SOL    HW221531   0.193   4.389   1.849
39900SOL     OW21532  11.270   0.151   2.158
39900SOL    HW121533  11.329   0.207   2.208
39900SOL    HW221534  11.326   0.111   2.092
39901SOL     OW21535   9.500  13.030  12.237
39901SOL    HW121536   9.511  12.939  12.211
39901SOL    HW221537   9.471  13.026  12.328
39902SOL     OW21538   3.785   9.998   6.325
39902SOL    HW121539   3.849  10.035   6.386
39902SOL    HW221540   3.837   9.945   6.264
39903SOL     OW21541   5.954  11.583   2.160
39903SOL    HW121542   6.040  11.559   2.126
39903SOL    HW221543   5.949  11.539   2.246
39904SOL     OW21544   8.849   2.899  13.570
39904SOL    HW121545   8.848   2.994  13.561
39904SOL    HW221546   8.911   2.870  13.504
39905SOL     OW21547   6.862  14.592   6.539
39905SOL    HW121548   6.934  14.538   6.573
39905SOL    HW221549   6.873  14.589   6.444
39906SOL     OW21550   8.464   6.717   7.408
39906SOL    HW121551   8.373   6.689   7.408
39906SOL    HW221552   8.461   6.812   7.409
39907SOL     OW21553   2.481   6.172   2.374
39907SOL    HW121554   2.523   6.150   2.458
39907SOL    HW221555   2.387   6.171   2.393
39908SOL     OW21556  10.612   0.613  10.089
39908SOL    HW121557  10.560   0.584  10.164
39908SOL    HW221558  10.548   0.636  10.022
39909SOL     OW21559   8.715   9.891  11.038
39909SOL    HW121560   8.808   9.874  11.025
39909SOL    HW221561   8.690   9.948  10.965
39910SOL     OW21562   1.149   2.941   1.644
39910SOL    HW121563   1.088   3.010   1.618
39910SOL    HW221564   1.093   2.875   1.686
39911SOL     OW21565   6.497   7.232   6.908
39911SOL    HW121566   6.438   7.267   6.841
39911SOL    HW221567   6.445   7.166   6.953
39912SOL     OW21568  13.818   9.955   9.800
39912SOL    HW121569  13.833   9.897   9.725
39912SOL    HW221570  13.734   9.997   9.780
39913SOL     OW21571  10.704  14.634   3.410
39913SOL    HW121572  10.649  14.692   3.358
39913SOL    HW221573  10.789  14.679   3.416
39914SOL     OW21574  12.671   4.803   4.025
39914SOL    HW121575  12.624   4.880   4.058
39914SOL    HW221576  12.622   4.776   3.948
39915SOL     OW21577  13.648   9.568   1.838
39915SOL    HW121578  13.582   9.613   1.785
39915SOL    HW221579  13.658   9.483   1.796
39916SOL     OW21580   8.420   0.523   2.742
39916SOL    HW121581   8.403   0.540   2.835
39916SOL    HW221582   8.504   0.476   2.741
39917SOL     OW21583  12.083  14.309   3.166
39917SOL    HW121584  12.102  14.386   3.113
39917SOL    HW221585  11.989  14.293   3.152
39918SOL     OW21586  11.994   3.648  14.309
39918SOL    HW121587  12.089   3.650  14.319
39918SOL    HW221588  11.960   3.674  14.395
39919SOL     OW21589   2.287   0.100   4.315
39919SOL    HW121590   2.321   0.093   4.225
39919SOL    HW221591   2.362   0.128   4.367
39920SOL     OW21592   6.510   1.165  14.812
39920SOL    HW121593   6.559   1.095  14.768
39920SOL    HW221594   6.475   1.125   0.018
39921SOL     OW21595   8.985   9.703  13.742
39921SOL    HW121596   8.938   9.706  13.826
39921SOL    HW221597   8.966   9.616  13.707
39922SOL     OW21598   5.036   5.691   9.634
39922SOL    HW121599   5.065   5.660   9.720
39922SOL    HW221600   4.999   5.778   9.652
39923SOL     OW21601   3.648  12.259   6.671
39923SOL    HW121602   3.640  12.223   6.760
39923SOL    HW221603   3.706  12.334   6.681
39924SOL     OW21604  13.751   0.099   7.613
39924SOL    HW121605  13.719   0.180   7.652
39924SOL    HW221606  13.782   0.047   7.687
39925SOL     OW21607   5.263   0.518  14.693
39925SOL    HW121608   5.344   0.566  14.705
39925SOL    HW221609   5.279   0.462  14.617
39926SOL     OW21610   5.647  13.419  11.377
39926SOL    HW121611   5.563  13.458  11.352
39926SOL    HW221612   5.704  13.494  11.393
39927SOL     OW21613   8.888  14.522   9.569
39927SOL    HW121614   8.899  14.563   9.483
39927SOL    HW221615   8.841  14.587   9.621
39928SOL     OW21616   7.335   0.505   9.028
39928SOL    HW121617   7.283   0.523   8.950
39928SOL    HW221618   7.289   0.551   9.098
39929SOL     OW21619   2.941   9.673   6.172
39929SOL    HW121620   2.871   9.738   6.164
39929SOL    HW221621   2.896   9.594   6.203
39930SOL     OW21622   6.238   4.744   0.747
39930SOL    HW121623   6.275   4.828   0.774
39930SOL    HW221624   6.146   4.763   0.728
39931SOL     OW21625   4.535   1.899   5.359
39931SOL    HW121626   4.571   1.979   5.398
39931SOL    HW221627   4.607   1.864   5.306
39932SOL     OW21628   3.362  10.779   3.578
39932SOL    HW121629   3.428  10.767   3.510
39932SOL    HW221630   3.381  10.710   3.641
39933SOL     OW21631   7.108  11.513   4.514
39933SOL    HW121632   7.069  11.553   4.591
39933SOL    HW221633   7.086  11.572   4.442
39934SOL     OW21634  13.033  10.094  10.483
39934SOL    HW121635  13.042  10.189  10.476
39934SOL    HW221636  13.018  10.078  10.576
39935SOL     OW21637   8.216   7.411   3.490
39935SOL    HW121638   8.175   7.333   3.452
39935SOL    HW221639   8.165   7.484   3.458
39936SOL     OW21640   6.592   7.233   4.826
39936SOL    HW121641   6.578   7.222   4.920
39936SOL    HW221642   6.632   7.320   4.817
39937SOL     OW21643  14.163   4.345   0.907
39937SOL    HW121644  14.192   4.436   0.895
39937SOL    HW221645  14.189   4.300   0.827
39938SOL     OW21646  10.562   6.373   1.545
39938SOL    HW121647  10.592   6.358   1.635
39938SOL    HW221648  10.478   6.417   1.555
39939SOL     OW21649   6.572   8.132  13.192
39939SOL    HW121650   6.578   8.062  13.257
39939SOL    HW221651   6.661   8.165  13.184
39940SOL     OW21652   2.746  10.437   4.813
39940SOL    HW121653   2.661  10.407   4.844
39940SOL    HW221654   2.727  10.512   4.756
39941SOL     OW21655   2.854  14.264   4.972
39941SOL    HW121656   2.836  14.172   4.987
39941SOL    HW221657   2.908  14.266   4.892
39942SOL     OW21658   7.335  13.715   3.855
39942SOL    HW121659   7.424  13.716   3.818
39942SOL    HW221660   7.278  13.701   3.779
39943SOL     OW21661  10.655   3.213  13.203
39943SOL    HW121662  10.579   3.271  13.208
39943SOL    HW221663  10.717   3.260  13.147
39944SOL     OW21664   0.120  14.195   5.058
39944SOL    HW121665   0.195  14.139   5.077
39944SOL    HW221666   0.100  14.238   5.141
39945SOL     OW21667  11.123   5.682   6.965
39945SOL    HW121668  11.085   5.595   6.978
39945SOL    HW221669  11.210   5.666   6.928
39946SOL     OW21670   2.151   9.179   1.455
39946SOL    HW121671   2.114   9.167   1.367
39946SOL    HW221672   2.228   9.233   1.441
39947SOL     OW21673   8.215   5.512  13.442
39947SOL    HW121674   8.143   5.483  13.385
39947SOL    HW221675   8.188   5.484  13.529
39948SOL     OW21676   3.273   9.333   4.468
39948SOL    HW121677   3.240   9.419   4.443
39948SOL    HW221678   3.347   9.317   4.409
39949SOL     OW21679  10.553   1.315   5.988
39949SOL    HW121680  10.604   1.235   5.978
39949SOL    HW221681  10.463   1.286   6.000
39950SOL     OW21682  11.046   6.438   3.377
39950SOL    HW121683  11.031   6.456   3.470
39950SOL    HW221684  11.059   6.344   3.372
39951SOL     OW21685   7.882  14.370   8.387
39951SOL    HW121686   7.949  14.431   8.357
39951SOL    HW221687   7.886  14.376   8.483
39952SOL     OW21688   3.948   9.912   8.801
39952SOL    HW121689   3.898   9.959   8.869
39952SOL    HW221690   4.027   9.964   8.789
39953SOL     OW21691  12.055   3.106   1.744
39953SOL    HW121692  12.138   3.148   1.724
39953SOL    HW221693  12.054   3.098   1.840
39954SOL     OW21694   8.082   0.589   7.958
39954SOL    HW121695   8.060   0.679   7.981
39954SOL    HW221696   8.141   0.560   8.027
39955SOL     OW21697   3.763   2.686   0.844
39955SOL    HW121698   3.722   2.607   0.880
39955SOL    HW221699   3.818   2.654   0.772
39956SOL     OW21700   4.902  12.876  11.571
39956SOL    HW121701   4.889  12.971  11.569
39956SOL    HW221702   4.820  12.841  11.605
39957SOL     OW21703   5.467  12.863   7.988
39957SOL    HW121704   5.546  12.857   8.043
39957SOL    HW221705   5.501  12.865   7.899
39958SOL     OW21706  10.318   1.965  14.173
39958SOL    HW121707  10.347   1.876  14.194
39958SOL    HW221708  10.237   1.975  14.223
39959SOL     OW21709   8.752   7.409   2.454
39959SOL    HW121710   8.763   7.320   2.421
39959SOL    HW221711   8.745   7.463   2.375
39960SOL     OW21712  10.935   5.104   5.984
39960SOL    HW121713  10.927   5.023   5.935
39960SOL    HW221714  10.860   5.104   6.043
39961SOL     OW21715   7.804   8.832   7.014
39961SOL    HW121716   7.771   8.787   6.936
39961SOL    HW221717   7.872   8.774   7.048
39962SOL     OW21718   9.341   0.099   4.592
39962SOL    HW121719   9.345   0.143   4.507
39962SOL    HW221720   9.419   0.131   4.639
39963SOL     OW21721   0.200   3.247   6.863
39963SOL    HW121722   0.236   3.217   6.780
39963SOL    HW221723   0.217   3.341   6.864
39964SOL     OW21724   4.202   0.729  14.005
39964SOL    HW121725   4.168   0.805  13.957
39964SOL    HW221726   4.240   0.765  14.084
39965SOL     OW21727  10.324   5.949   0.941
39965SOL    HW121728  10.319   6.025   0.999
39965SOL    HW221729  10.247   5.957   0.885
39966SOL     OW21730   7.606   6.205   8.081
39966SOL    HW121731   7.577   6.244   8.164
39966SOL    HW221732   7.680   6.149   8.105
39967SOL     OW21733   3.174   6.894   0.291
39967SOL    HW121734   3.154   6.802   0.306
39967SOL    HW221735   3.215   6.923   0.373
39968SOL     OW21736  11.550   5.950   8.748
39968SOL    HW121737  11.619   5.904   8.700
39968SOL    HW221738  11.469   5.914   8.712
39969SOL     OW21739   9.615  11.465   8.928
39969SOL    HW121740   9.706  11.493   8.939
39969SOL    HW221741   9.569  11.504   9.003
39970SOL     OW21742  14.488   8.143   2.099
39970SOL    HW121743  14.434   8.074   2.061
39970SOL    HW221744  14.488   8.212   2.032
39971SOL     OW21745   6.649   1.090  13.343
39971SOL    HW121746   6.703   1.052  13.274
39971SOL    HW221747   6.584   1.143  13.297
39972SOL     OW21748   8.300   6.510  12.370
39972SOL    HW121749   8.231   6.447  12.393
39972SOL    HW221750   8.374   6.486  12.426
39973SOL     OW21751  14.238   2.408   2.956
39973SOL    HW121752  14.198   2.321   2.958
39973SOL    HW221753  14.169   2.467   2.985
39974SOL     OW21754   8.252  11.534  11.091
39974SOL    HW121755   8.190  11.471  11.128
39974SOL    HW221756   8.209  11.565  11.011
39975SOL     OW21757  12.534   0.066   9.136
39975SOL    HW121758  12.573   0.031   9.216
39975SOL    HW221759  12.535  14.865   9.075
39976SOL     OW21760   5.385  10.038   0.997
39976SOL    HW121761   5.417  10.128   0.992
39976SOL    HW221762   5.300  10.040   0.954
39977SOL     OW21763   0.422   1.568   4.048
39977SOL    HW121764   0.402   1.608   4.133
39977SOL    HW221765   0.476   1.632   4.003
39978SOL     OW21766   9.072  10.456   1.341
39978SOL    HW121767   9.128  10.530   1.363
39978SOL    HW221768   9.119  10.380   1.375
39979SOL     OW21769  11.450   5.585   0.147
39979SOL    HW121770  11.412   5.656   0.199
39979SOL    HW221771  11.374   5.538   0.112
39980SOL     OW21772   4.098   5.427   9.359
39980SOL    HW121773   4.122   5.495   9.296
39980SOL    HW221774   4.064   5.475   9.434
39981SOL     OW21775  11.961  13.633   5.964
39981SOL    HW121776  12.009  13.714   5.974
39981SOL    HW221777  11.892  13.637   6.031
39982SOL     OW21778   9.835  12.380   8.135
39982SOL    HW121779   9.754  12.430   8.124
39982SOL    HW221780   9.869  12.406   8.221
39983SOL     OW21781   3.545   7.825  14.064
39983SOL    HW121782   3.575   7.899  14.116
39983SOL    HW221783   3.510   7.763  14.129
39984SOL     OW21784  10.869   4.917   5.619
39984SOL    HW121785  10.814   4.995   5.627
39984SOL    HW221786  10.917   4.911   5.701
39985SOL     OW21787  13.863   8.462  10.811
39985SOL    HW121788  13.783   8.505  10.843
39985SOL    HW221789  13.838   8.424  10.727
39986SOL     OW21790  11.949   4.252  10.683
39986SOL    HW121791  11.862   4.216  10.667
39986SOL    HW221792  11.958   4.251  10.778
39987SOL     OW21793   8.047   7.517   4.420
39987SOL    HW121794   8.140   7.514   4.396
39987SOL    HW221795   8.027   7.610   4.425
39988SOL     OW21796   4.146   3.969  12.268
39988SOL    HW121797   4.202   3.903  12.308
39988SOL    HW221798   4.143   3.946  12.175
39989SOL     OW21799   1.671   7.132   2.150
39989SOL    HW121800   1.745   7.113   2.208
39989SOL    HW221801   1.598   7.081   2.186
39990SOL     OW21802  13.080   7.957  13.618
39990SOL    HW121803  13.086   7.866  13.590
39990SOL    HW221804  13.123   7.959  13.703
39991SOL     OW21805   6.189   7.520   6.907
39991SOL    HW121806   6.139   7.510   6.988
39991SOL    HW221807   6.172   7.610   6.879
39992SOL     OW21808   9.644   7.468   0.286
39992SOL    HW121809   9.736   7.457   0.308
39992SOL    HW221810   9.598   7.399   0.333
39993SOL     OW21811   7.642   2.781  12.365
39993SOL    HW121812   7.727   2.823  12.354
39993SOL    HW221813   7.620   2.748  12.278
39994SOL     OW21814   5.031   6.660  13.534
39994SOL    HW121815   5.051   6.683  13.444
39994SOL    HW221816   4.942   6.625  13.532
39995SOL     OW21817   9.167   0.574  12.694
39995SOL    HW121818   9.139   0.665  12.705
39995SOL    HW221819   9.085   0.526  12.681
39996SOL     OW21820   9.990   0.276   6.049
39996SOL    HW121821  10.029   0.189   6.063
39996SOL    HW221822  10.053   0.337   6.088
39997SOL     OW21823  12.742   7.819   0.475
39997SOL    HW121824  12.661   7.770   0.487
39997SOL    HW221825  12.796   7.793   0.549
39998SOL     OW21826   1.614   9.958   7.320
39998SOL    HW121827   1.547   9.998   7.265
39998SOL    HW221828   1.693   9.958   7.266
39999SOL     OW21829   5.555   0.680   1.947
39999SOL    HW121830   5.611   0.753   1.976
39999SOL    HW221831   5.617   0.616   1.911
40000SOL     OW21832  13.670   0.730   1.015
40000SOL    HW121833  13.727   0.730   0.938
40000SOL    HW221834  13.592   0.681   0.988
40001SOL     OW21835   5.662   9.741  10.560
40001SOL    HW121836   5.636   9.754  10.469
40001SOL    HW221837   5.681   9.829  10.593
40002SOL     OW21838   3.961   9.039   4.875
40002SOL    HW121839   3.982   8.998   4.959
40002SOL    HW221840   3.919   9.122   4.899
40003SOL     OW21841   9.106   0.107  14.840
40003SOL    HW121842   9.178   0.083  14.782
40003SOL    HW221843   9.035   0.046  14.818
40004SOL     OW21844  10.745  11.530   6.592
40004SOL    HW121845  10.840  11.543   6.584
40004SOL    HW221846  10.729  11.447   6.546
40005SOL     OW21847   5.885   0.664   9.287
40005SOL    HW121848   5.861   0.653   9.379
40005SOL    HW221849   5.974   0.628   9.280
40006SOL     OW21850  10.418   7.616   1.548
40006SOL    HW121851  10.333   7.638   1.510
40006SOL    HW221852  10.477   7.613   1.473
40007SOL     OW21853   7.070   7.606   9.434
40007SOL    HW121854   7.008   7.669   9.470
40007SOL    HW221855   7.028   7.521   9.445
40008SOL     OW21856   3.932   5.216   8.435
40008SOL    HW121857   3.956   5.279   8.366
40008SOL    HW221858   3.986   5.241   8.510
40009SOL     OW21859   9.020  12.295  10.087
40009SOL    HW121860   9.064  12.378  10.108
40009SOL    HW221861   9.080  12.252  10.025
40010SOL     OW21862  12.661  13.388   5.677
40010SOL    HW121863  12.578  13.340   5.672
40010SOL    HW221864  12.695  13.369   5.765
40011SOL     OW21865   8.798  14.434  14.222
40011SOL    HW121866   8.860  14.384  14.168
40011SOL    HW221867   8.789  14.383  14.302
40012SOL     OW21868  14.296   9.576  13.596
40012SOL    HW121869  14.259   9.613  13.676
40012SOL    HW221870  14.222   9.570  13.535
40013SOL     OW21871   4.431   5.636   3.454
40013SOL    HW121872   4.523   5.654   3.434
40013SOL    HW221873   4.385   5.716   3.430
40014SOL     OW21874   9.988   8.397  11.229
40014SOL    HW121875   9.927   8.369  11.298
40014SOL    HW221876   9.994   8.492  11.241
40015SOL     OW21877   2.739  10.148   5.602
40015SOL    HW121878   2.723  10.087   5.674
40015SOL    HW221879   2.711  10.101   5.524
40016SOL     OW21880  13.177   6.807   7.573
40016SOL    HW121881  13.264   6.766   7.574
40016SOL    HW221882  13.124   6.750   7.629
40017SOL     OW21883   0.950  14.847  11.119
40017SOL    HW121884   0.921   0.010  11.204
40017SOL    HW221885   1.036  14.809  11.137
40018SOL     OW21886   2.268   4.832   1.873
40018SOL    HW121887   2.354   4.790   1.879
40018SOL    HW221888   2.233   4.802   1.789
40019SOL     OW21889   2.832   1.175  11.813
40019SOL    HW121890   2.868   1.193  11.899
40019SOL    HW221891   2.852   1.253  11.761
40020SOL     OW21892   7.659  11.678   8.874
40020SOL    HW121893   7.607  11.721   8.806
40020SOL    HW221894   7.695  11.749   8.925
40021SOL     OW21895   6.187   5.970   1.577
40021SOL    HW121896   6.154   5.946   1.663
40021SOL    HW221897   6.281   5.953   1.581
40022SOL     OW21898   5.123   0.803   4.619
40022SOL    HW121899   5.116   0.747   4.697
40022SOL    HW221900   5.204   0.853   4.633
40023SOL     OW21901  14.866   6.744  11.410
40023SOL    HW121902  14.796   6.740  11.346
40023SOL    HW221903  14.835   6.806  11.476
40024SOL     OW21904   9.611   9.355   7.050
40024SOL    HW121905   9.618   9.387   7.140
40024SOL    HW221906   9.543   9.409   7.010
40025SOL     OW21907   2.830   2.954   3.704
40025SOL    HW121908   2.915   2.917   3.680
40025SOL    HW221909   2.774   2.878   3.721
40026SOL     OW21910   8.203   4.634  11.806
40026SOL    HW121911   8.234   4.723  11.824
40026SOL    HW221912   8.232   4.583  11.882
40027SOL     OW21913   6.165  12.564   6.311
40027SOL    HW121914   6.074  12.544   6.287
40027SOL    HW221915   6.217  12.500   6.264
40028SOL     OW21916   2.189   1.785   4.575
40028SOL    HW121917   2.145   1.861   4.536
40028SOL    HW221918   2.271   1.820   4.610
40029SOL     OW21919  10.961   4.994   3.494
40029SOL    HW121920  10.873   5.006   3.457
40029SOL    HW221921  10.959   5.043   3.576
40030SOL     OW21922   6.683  13.126   6.020
40030SOL    HW121923   6.595  13.109   6.056
40030SOL    HW221924   6.672  13.203   5.964
40031SOL     OW21925   6.383  11.611  14.214
40031SOL    HW121926   6.426  11.583  14.133
40031SOL    HW221927   6.325  11.538  14.236
40032SOL     OW21928  14.832  10.205   5.565
40032SOL    HW121929   0.025  10.268   5.536
40032SOL    HW221930  14.871  10.119   5.546
40033SOL     OW21931  11.568   1.066   9.204
40033SOL    HW121932  11.620   1.124   9.259
40033SOL    HW221933  11.632   1.011   9.158
40034SOL     OW21934   4.460  11.138  14.545
40034SOL    HW121935   4.425  11.070  14.603
40034SOL    HW221936   4.383  11.184  14.512
40035SOL     OW21937   4.649  14.572   6.214
40035SOL    HW121938   4.737  14.606   6.202
40035SOL    HW221939   4.649  14.535   6.302
40036SOL     OW21940  13.537  14.231  10.794
40036SOL    HW121941  13.582  14.208  10.875
40036SOL    HW221942  13.454  14.185  10.799
40037SOL     OW21943   3.392  12.486   1.580
40037SOL    HW121944   3.316  12.515   1.530
40037SOL    HW221945   3.446  12.439   1.517
40038SOL     OW21946  12.425   7.765   8.113
40038SOL    HW121947  12.496   7.704   8.130
40038SOL    HW221948  12.367   7.718   8.053
40039SOL     OW21949   0.894   7.407  10.145
40039SOL    HW121950   0.975   7.456  10.133
40039SOL    HW221951   0.919   7.316  10.128
40040SOL     OW21952   5.004  14.444   7.131
40040SOL    HW121953   4.919  14.410   7.104
40040SOL    HW221954   4.995  14.457   7.225
40041SOL     OW21955  13.033   6.466   4.747
40041SOL    HW121956  13.070   6.443   4.833
40041SOL    HW221957  13.059   6.558   4.734
40042SOL     OW21958  12.608   2.291   6.112
40042SOL    HW121959  12.703   2.299   6.106
40042SOL    HW221960  12.580   2.270   6.023
40043SOL     OW21961   2.120   3.856   2.221
40043SOL    HW121962   2.181   3.791   2.187
40043SOL    HW221963   2.102   3.827   2.311
40044SOL     OW21964  12.748   6.771  13.667
40044SOL    HW121965  12.667   6.806  13.630
40044SOL    HW221966  12.726   6.749  13.757
40045SOL     OW21967   4.096   3.976   4.975
40045SOL    HW121968   4.129   4.062   4.999
40045SOL    HW221969   4.001   3.987   4.971
40046SOL     OW21970   3.876  12.194   3.295
40046SOL    HW121971   3.802  12.134   3.308
40046SOL    HW221972   3.953  12.139   3.310
40047SOL     OW21973   3.340   1.143   9.864
40047SOL    HW121974   3.385   1.158   9.782
40047SOL    HW221975   3.389   1.072   9.906
40048SOL     OW21976  11.858   1.430  11.146
40048SOL    HW121977  11.849   1.460  11.056
40048SOL    HW221978  11.780   1.376  11.161
40049SOL     OW21979  11.621   0.252   9.735
40049SOL    HW121980  11.541   0.240   9.683
40049SOL    HW221981  11.633   0.168   9.780
40050SOL     OW21982   0.398  10.647   3.309
40050SOL    HW121983   0.423  10.738   3.294
40050SOL    HW221984   0.315  10.637   3.262
40051SOL     OW21985  11.661  11.364  13.493
40051SOL    HW121986  11.656  11.348  13.587
40051SOL    HW221987  11.596  11.304  13.456
40052SOL     OW21988   0.244   8.431   4.256
40052SOL    HW121989   0.274   8.459   4.170
40052SOL    HW221990   0.150   8.449   4.255
40053SOL     OW21991   3.511   5.052  14.150
40053SOL    HW121992   3.454   4.989  14.107
40053SOL    HW221993   3.492   5.135  14.107
40054SOL     OW21994   6.342  14.332   5.122
40054SOL    HW121995   6.290  14.259   5.154
40054SOL    HW221996   6.355  14.388   5.198
40055SOL     OW21997   0.923   8.609   1.394
40055SOL    HW121998   0.869   8.584   1.470
40055SOL    HW221999   0.931   8.704   1.402
40056SOL     OW22000   7.412   5.499   9.875
40056SOL    HW122001   7.434   5.468   9.788
40056SOL    HW222002   7.402   5.594   9.865
40057SOL     OW22003  13.933   9.205  10.674
40057SOL    HW122004  13.896   9.280  10.626
40057SOL    HW222005  13.912   9.129  10.620
40058SOL     OW22006  10.291   7.918   0.702
40058SOL    HW122007  10.232   7.901   0.775
40058SOL    HW222008  10.362   7.970   0.739
40059SOL     OW22009  11.860  14.784   3.664
40059SOL    HW122010  11.783  14.834   3.636
40059SOL    HW222011  11.925  14.800   3.596
40060SOL     OW22012   1.130  14.525  11.159
40060SOL    HW122013   1.150  14.608  11.203
40060SOL    HW222014   1.119  14.462  11.231
40061SOL     OW22015  12.186   9.362  11.185
40061SOL    HW122016  12.121   9.314  11.133
40061SOL    HW222017  12.191   9.448  11.143
40062SOL     OW22018  13.163  13.379  14.329
40062SOL    HW122019  13.203  13.363  14.244
40062SOL    HW222020  13.076  13.412  14.309
40063SOL     OW22021   2.924  14.366   9.873
40063SOL    HW122022   2.874  14.438   9.835
40063SOL    HW222023   2.966  14.322   9.799
40064SOL     OW22024   4.950   1.212   9.986
40064SOL    HW122025   5.026   1.256  10.023
40064SOL    HW222026   4.953   1.123  10.021
40065SOL     OW22027   9.362   9.039  11.193
40065SOL    HW122028   9.337   8.965  11.248
40065SOL    HW222029   9.301   9.035  11.119
40066SOL     OW22030   0.049   0.989   2.028
40066SOL    HW122031   0.073   0.925   1.962
40066SOL    HW222032  14.827   0.995   2.022
40067SOL     OW22033   5.235   3.198   8.110
40067SOL    HW122034   5.279   3.146   8.042
40067SOL    HW222035   5.300   3.205   8.180
40068SOL     OW22036   6.420  13.654  10.538
40068SOL    HW122037   6.492  13.592  10.552
40068SOL    HW222038   6.373  13.619  10.463
40069SOL     OW22039   3.175  12.220   8.068
40069SOL    HW122040   3.122  12.168   8.127
40069SOL    HW222041   3.265  12.196   8.087
40070SOL     OW22042  12.514   9.605   1.243
40070SOL    HW122043  12.428   9.586   1.205
40070SOL    HW222044  12.574   9.550   1.194
40071SOL     OW22045  14.469   7.856  13.114
40071SOL    HW122046  14.540   7.792  13.119
40071SOL    HW222047  14.425   7.849  13.199
40072SOL     OW22048   2.574   0.218   0.551
40072SOL    HW122049   2.489   0.178   0.565
40072SOL    HW222050   2.564   0.271   0.473
40073SOL     OW22051   9.425   1.447   3.137
40073SOL    HW122052   9.348   1.403   3.174
40073SOL    HW222053   9.393   1.534   3.113
40074SOL     OW22054  11.849   7.060   6.150
40074SOL    HW122055  11.889   7.065   6.064
40074SOL    HW222056  11.811   6.972   6.154
40075SOL     OW22057  14.139  11.699  14.174
40075SOL    HW122058  14.181  11.662  14.251
40075SOL    HW222059  14.059  11.649  14.163
40076SOL     OW22060   1.000  13.382   4.431
40076SOL    HW122061   1.026  13.369   4.339
40076SOL    HW222062   1.055  13.454   4.462
40077SOL     OW22063  13.913  13.669   8.356
40077SOL    HW122064  13.951  13.705   8.436
40077SOL    HW222065  13.988  13.661   8.296
40078SOL     OW22066  14.488   5.014  13.387
40078SOL    HW122067  14.400   5.051  13.376
40078SOL    HW222068  14.490   4.940  13.325
40079SOL     OW22069   3.546  14.556   1.892
40079SOL    HW122070   3.616  14.617   1.870
40079SOL    HW222071   3.523  14.578   1.982
40080SOL     OW22072  13.153   6.943  13.156
40080SOL    HW122073  13.203   6.993  13.091
40080SOL    HW222074  13.158   6.853  13.125
40081SOL     OW22075   3.105   0.388   0.439
40081SOL    HW122076   3.183   0.333   0.446
40081SOL    HW222077   3.136   0.467   0.394
40082SOL     OW22078  12.582   8.695   8.757
40082SOL    HW122079  12.526   8.654   8.691
40082SOL    HW222080  12.567   8.644   8.836
40083SOL     OW22081   4.408   7.795   0.677
40083SOL    HW122082   4.351   7.763   0.746
40083SOL    HW222083   4.488   7.822   0.722
40084SOL     OW22084   0.498   7.027   1.724
40084SOL    HW122085   0.460   7.061   1.643
40084SOL    HW222086   0.502   7.103   1.782
40085SOL     OW22087   1.798  14.293  10.798
40085SOL    HW122088   1.722  14.257  10.753
40085SOL    HW222089   1.854  14.218  10.815
40086SOL     OW22090  13.887   6.861   4.794
40086SOL    HW122091  13.857   6.895   4.878
40086SOL    HW222092  13.982   6.866   4.798
40087SOL     OW22093   1.959   9.583   0.143
40087SOL    HW122094   1.933   9.509   0.198
40087SOL    HW222095   1.969   9.656   0.204
40088SOL     OW22096   3.881  13.302  11.778
40088SOL    HW122097   3.885  13.249  11.858
40088SOL    HW222098   3.896  13.392  11.808
40089SOL     OW22099   4.418  10.149  12.173
40089SOL    HW122100   4.465  10.209  12.232
40089SOL    HW222101   4.466  10.067  12.180
40090SOL     OW22102   4.613  12.461   3.143
40090SOL    HW122103   4.562  12.539   3.166
40090SOL    HW222104   4.582  12.394   3.204
40091SOL     OW22105   5.371  13.314  11.696
40091SOL    HW122106   5.431  13.380  11.730
40091SOL    HW222107   5.346  13.263  11.773
40092SOL     OW22108   1.765   5.952  11.926
40092SOL    HW122109   1.716   5.903  11.860
40092SOL    HW222110   1.827   6.005  11.876
40093SOL     OW22111   9.991   5.203   3.436
40093SOL    HW122112   9.995   5.108   3.421
40093SOL    HW222113  10.066   5.238   3.387
40094SOL     OW22114  13.983   9.345  13.673
40094SOL    HW122115  14.033   9.330  13.753
40094SOL    HW222116  14.043   9.391  13.615
40095SOL     OW22117   5.646  11.932  14.494
40095SOL    HW122118   5.724  11.914  14.546
40095SOL    HW222119   5.600  11.848  14.492
40096SOL     OW22120   1.164  13.612   8.703
40096SOL    HW122121   1.161  13.596   8.798
40096SOL    HW222122   1.223  13.544   8.670
40097SOL     OW22123  12.189  14.075   9.616
40097SOL    HW122124  12.216  14.071   9.524
40097SOL    HW222125  12.095  14.056   9.614
40098SOL     OW22126  11.010  12.644   3.796
40098SOL    HW122127  11.088  12.590   3.806
40098SOL    HW222128  10.943  12.600   3.849
40099SOL     OW22129   4.419   2.809   1.019
40099SOL    HW122130   4.333   2.851   1.016
40099SOL    HW222131   4.421   2.753   0.942
40100SOL     OW22132  12.643   8.450   4.152
40100SOL    HW122133  12.674   8.362   4.174
40100SOL    HW222134  12.561   8.460   4.200
40101SOL     OW22135  13.540   1.050   1.652
40101SOL    HW122136  13.552   1.069   1.745
40101SOL    HW222137  13.476   0.978   1.650
40102SOL     OW22138  14.363  14.298   8.854
40102SOL    HW122139  14.380  14.384   8.892
40102SOL    HW222140  14.423  14.239   8.901
40103SOL     OW22141  10.273  12.554  12.103
40103SOL    HW122142  10.358  12.548  12.058
40103SOL    HW222143  10.245  12.645  12.089
40104SOL     OW22144   2.333   2.111   5.780
40104SOL    HW122145   2.400   2.061   5.733
40104SOL    HW222146   2.358   2.202   5.766
40105SOL     OW22147  11.821   5.900  13.870
40105SOL    HW122148  11.737   5.921  13.910
40105SOL    HW222149  11.800   5.878  13.780
40106SOL     OW22150  12.678   3.789   0.080
40106SOL    HW122151  12.695   3.765   0.171
40106SOL    HW222152  12.760   3.771   0.034
40107SOL     OW22153   1.176  13.510  12.058
40107SOL    HW122154   1.264  13.529  12.091
40107SOL    HW222155   1.155  13.424  12.093
40108SOL     OW22156   7.572   0.602   8.758
40108SOL    HW122157   7.501   0.666   8.762
40108SOL    HW222158   7.531   0.518   8.775
40109SOL     OW22159   6.008   9.178  14.198
40109SOL    HW122160   5.921   9.141  14.213
40109SOL    HW222161   6.044   9.191  14.285
40110SOL     OW22162  13.715   4.302   9.792
40110SOL    HW122163  13.699   4.369   9.859
40110SOL    HW222164  13.628   4.287   9.754
40111SOL     OW22165   2.174  12.932   4.514
40111SOL    HW122166   2.161  12.879   4.436
40111SOL    HW222167   2.206  13.016   4.482
40112SOL     OW22168  12.458   7.716  12.811
40112SOL    HW122169  12.372   7.758  12.816
40112SOL    HW222170  12.452   7.658  12.735
40113SOL     OW22171   6.425   5.639  14.658
40113SOL    HW122172   6.417   5.591  14.575
40113SOL    HW222173   6.342   5.623  14.703
40114SOL     OW22174   5.088  10.301   2.408
40114SOL    HW122175   5.035  10.346   2.474
40114SOL    HW222176   5.066  10.344   2.326
40115SOL     OW22177   3.526   7.325  10.015
40115SOL    HW122178   3.464   7.358   9.950
40115SOL    HW222179   3.578   7.260   9.968
40116SOL     OW22180  13.728  10.646  10.591
40116SOL    HW122181  13.799  10.705  10.617
40116SOL    HW222182  13.737  10.638  10.496
40117SOL     OW22183  13.377   7.898   1.278
40117SOL    HW122184  13.364   7.803   1.275
40117SOL    HW222185  13.462   7.912   1.237
40118SOL     OW22186   4.268   4.849   9.760
40118SOL    HW122187   4.180   4.887   9.766
40118SOL    HW222188   4.323   4.921   9.729
40119SOL     OW22189  13.398  12.934  12.255
40119SOL    HW122190  13.334  12.878  12.300
40119SOL    HW222191  13.348  12.976  12.185
40120SOL     OW22192   2.026   5.349   3.492
40120SOL    HW122193   2.103   5.390   3.453
40120SOL    HW222194   2.060   5.302   3.569
40121SOL     OW22195  12.257   3.655  12.049
40121SOL    HW122196  12.163   3.676  12.041
40121SOL    HW222197  12.282   3.689  12.134
40122SOL     OW22198  12.154   7.694   5.710
40122SOL    HW122199  12.081   7.748   5.740
40122SOL    HW222200  12.119   7.605   5.712
40123SOL     OW22201   9.345   9.235   4.540
40123SOL    HW122202   9.303   9.217   4.456
40123SOL    HW222203   9.417   9.295   4.519
40124SOL     OW22204   4.120   6.992  14.843
40124SOL    HW122205   4.154   7.082  14.845
40124SOL    HW222206   4.118   6.966   0.063
40125SOL     OW22207   9.931   3.894   7.598
40125SOL    HW122208   9.967   3.924   7.682
40125SOL    HW222209   9.935   3.971   7.542
40126SOL     OW22210   8.514   2.328   7.585
40126SOL    HW122211   8.455   2.400   7.607
40126SOL    HW222212   8.547   2.350   7.498
40127SOL     OW22213   5.974   8.108   5.780
40127SOL    HW122214   5.947   8.200   5.781
40127SOL    HW222215   5.933   8.071   5.701
40128SOL     OW22216   4.170   5.120   0.305
40128SOL    HW122217   4.229   5.136   0.380
40128SOL    HW222218   4.104   5.060   0.339
40129SOL     OW22219   5.466  14.681   9.862
40129SOL    HW122220   5.412  14.660   9.937
40129SOL    HW222221   5.456  14.606   9.803
40130SOL     OW22222  11.482  11.345   7.501
40130SOL    HW122223  11.393  11.346   7.534
40130SOL    HW222224  11.472  11.343   7.406
40131SOL     OW22225   7.846  10.511   2.875
40131SOL    HW122226   7.800  10.427   2.885
40131SOL    HW222227   7.878  10.509   2.785
40132SOL     OW22228   9.302   1.039   3.798
40132SOL    HW122229   9.370   1.004   3.855
40132SOL    HW222230   9.230   0.977   3.806
40133SOL     OW22231   8.382  10.980   5.678
40133SOL    HW122232   8.319  10.909   5.693
40133SOL    HW222233   8.415  11.002   5.765
40134SOL     OW22234   2.939   7.321  10.602
40134SOL    HW122235   2.871   7.275  10.652
40134SOL    HW222236   3.015   7.263  10.607
40135SOL     OW22237   9.796   9.867   7.509
40135SOL    HW122238   9.764   9.904   7.426
40135SOL    HW222239   9.721   9.818   7.543
40136SOL     OW22240   4.817   0.677  13.217
40136SOL    HW122241   4.900   0.723  13.207
40136SOL    HW222242   4.835   0.586  13.192
40137SOL     OW22243   4.016   5.937  13.067
40137SOL    HW122244   3.954   5.998  13.027
40137SOL    HW222245   4.093   5.990  13.088
40138SOL     OW22246   5.612  10.348   8.115
40138SOL    HW122247   5.552  10.287   8.158
40138SOL    HW222248   5.607  10.427   8.167
40139SOL     OW22249   9.654   9.264   9.557
40139SOL    HW122250   9.647   9.243   9.463
40139SOL    HW222251   9.747   9.284   9.570
40140SOL     OW22252   2.278  13.331  11.253
40140SOL    HW122253   2.223  13.263  11.292
40140SOL    HW222254   2.217  13.393  11.213
40141SOL     OW22255   0.758  10.523   2.040
40141SOL    HW122256   0.669  10.488   2.051
40141SOL    HW222257   0.812  10.472   2.099
40142SOL     OW22258   8.967   6.902   5.442
40142SOL    HW122259   8.946   6.815   5.475
40142SOL    HW222260   9.046   6.928   5.490
40143SOL     OW22261  11.883   2.995  13.243
40143SOL    HW122262  11.971   3.032  13.246
40143SOL    HW222263  11.826   3.067  13.271
40144SOL     OW22264  11.934   8.429  12.415
40144SOL    HW122265  11.880   8.452  12.340
40144SOL    HW222266  11.935   8.334  12.416
40145SOL     OW22267   3.892   9.318   4.668
40145SOL    HW122268   3.836   9.244   4.647
40145SOL    HW222269   3.865   9.345   4.756
40146SOL     OW22270   8.489  12.614  12.234
40146SOL    HW122271   8.474  12.536  12.181
40146SOL    HW222272   8.406  12.626  12.281
40147SOL     OW22273   5.287   6.269   0.336
40147SOL    HW122274   5.290   6.349   0.283
40147SOL    HW222275   5.311   6.297   0.424
40148SOL     OW22276  14.408   6.788   5.697
40148SOL    HW122277  14.466   6.720   5.661
40148SOL    HW222278  14.464   6.838   5.757
40149SOL     OW22279   0.617   6.245   9.583
40149SOL    HW122280   0.650   6.304   9.651
40149SOL    HW222281   0.537   6.288   9.551
40150SOL     OW22282  11.411  13.337   0.371
40150SOL    HW122283  11.365  13.310   0.292
40150SOL    HW222284  11.410  13.259   0.427
40151SOL     OW22285   0.167  13.541  14.806
40151SOL    HW122286   0.153  13.581   0.019
40151SOL    HW222287   0.128  13.603  14.744
40152SOL     OW22288   5.305   6.119  11.056
40152SOL    HW122289   5.212   6.111  11.034
40152SOL    HW222290   5.343   6.037  11.026
40153SOL     OW22291   2.914   2.007  14.048
40153SOL    HW122292   3.003   2.006  14.013
40153SOL    HW222293   2.872   2.082  14.005
40154SOL     OW22294   3.353   7.809   6.190
40154SOL    HW122295   3.369   7.715   6.194
40154SOL    HW222296   3.300   7.828   6.268
40155SOL     OW22297  14.577  13.531   6.834
40155SOL    HW122298  14.535  13.446   6.845
40155SOL    HW222299  14.524  13.575   6.767
40156SOL     OW22300  10.579   7.499   3.384
40156SOL    HW122301  10.605   7.464   3.299
40156SOL    HW222302  10.597   7.593   3.378
40157SOL     OW22303   9.925   5.313   1.636
40157SOL    HW122304  10.002   5.294   1.688
40157SOL    HW222305   9.947   5.393   1.588
40158SOL     OW22306   9.500   0.585   2.547
40158SOL    HW122307   9.594   0.585   2.532
40158SOL    HW222308   9.462   0.594   2.460
40159SOL     OW22309  14.208   8.556   3.424
40159SOL    HW122310  14.194   8.508   3.505
40159SOL    HW222311  14.203   8.648   3.450
40160SOL     OW22312   7.125  10.864  12.963
40160SOL    HW122313   7.215  10.845  12.935
40160SOL    HW222314   7.118  10.824  13.050
40161SOL     OW22315   3.290   6.354   4.431
40161SOL    HW122316   3.368   6.410   4.434
40161SOL    HW222317   3.295   6.302   4.511
40162SOL     OW22318   2.958  13.989   9.225
40162SOL    HW122319   3.026  14.046   9.259
40162SOL    HW222320   2.931  13.936   9.301
40163SOL     OW22321   0.991   5.257   9.413
40163SOL    HW122322   0.993   5.342   9.458
40163SOL    HW222323   0.924   5.268   9.345
40164SOL     OW22324   0.031  13.421   9.884
40164SOL    HW122325   0.020  13.336   9.841
40164SOL    HW222326  14.814  13.454   9.895
40165SOL     OW22327   4.670  14.080   4.929
40165SOL    HW122328   4.646  14.161   4.974
40165SOL    HW222329   4.663  14.101   4.836
40166SOL     OW22330   4.789   9.460   8.205
40166SOL    HW122331   4.835   9.430   8.283
40166SOL    HW222332   4.778   9.381   8.152
40167SOL     OW22333   6.100   4.458  14.418
40167SOL    HW122334   6.026   4.518  14.416
40167SOL    HW222335   6.176   4.515  14.432
40168SOL     OW22336   3.634  11.075   2.719
40168SOL    HW122337   3.590  11.138   2.662
40168SOL    HW222338   3.691  11.025   2.661
40169SOL     OW22339  14.354   5.880   8.937
40169SOL    HW122340  14.304   5.813   8.890
40169SOL    HW222341  14.346   5.855   9.029
40170SOL     OW22342   2.213   4.213   0.926
40170SOL    HW122343   2.203   4.139   0.866
40170SOL    HW222344   2.266   4.178   0.998
40171SOL     OW22345  14.085   0.476  12.710
40171SOL    HW122346  14.092   0.418  12.634
40171SOL    HW222347  13.999   0.457  12.747
40172SOL     OW22348   8.001   9.321  11.692
40172SOL    HW122349   8.070   9.292  11.752
40172SOL    HW222350   7.954   9.388  11.740
40173SOL     OW22351   7.077   3.038  13.340
40173SOL    HW122352   7.037   3.117  13.377
40173SOL    HW222353   7.132   3.004  13.411
40174SOL     OW22354   2.182   5.145  12.965
40174SOL    HW122355   2.184   5.095  13.047
40174SOL    HW222356   2.095   5.130  12.930
40175SOL     OW22357   3.962   8.133  14.383
40175SOL    HW122358   3.872   8.153  14.358
40175SOL    HW222359   3.966   8.037  14.382
40176SOL     OW22360  14.736   6.020  11.813
40176SOL    HW122361  14.660   6.077  11.799
40176SOL    HW222362  14.717   5.976  11.896
40177SOL     OW22363   3.448  10.327   0.123
40177SOL    HW122364   3.471  10.324   0.030
40177SOL    HW222365   3.527  10.301   0.169
40178SOL     OW22366  14.811   7.130   5.499
40178SOL    HW122367  14.842   7.139   5.589
40178SOL    HW222368  14.806   7.035   5.485
40179SOL     OW22369   1.023   4.246   5.814
40179SOL    HW122370   0.995   4.155   5.822
40179SOL    HW222371   1.086   4.246   5.742
40180SOL     OW22372   7.192   2.680   3.912
40180SOL    HW122373   7.186   2.771   3.942
40180SOL    HW222374   7.280   2.652   3.937
40181SOL     OW22375   6.754   8.140  14.378
40181SOL    HW122376   6.765   8.054  14.335
40181SOL    HW222377   6.832   8.189  14.354
40182SOL     OW22378   3.281   0.607  13.349
40182SOL    HW122379   3.298   0.634  13.259
40182SOL    HW222380   3.236   0.523  13.342
40183SOL     OW22381   3.133  14.134  12.326
40183SOL    HW122382   3.115  14.044  12.351
40183SOL    HW222383   3.229  14.138  12.320
40184SOL     OW22384  11.704   3.946   6.587
40184SOL    HW122385  11.703   3.964   6.493
40184SOL    HW222386  11.774   4.001   6.622
40185SOL     OW22387  11.704  11.759   3.380
40185SOL    HW122388  11.769  11.693   3.356
40185SOL    HW222389  11.621  11.711   3.383
40186SOL     OW22390   5.316   0.885   7.395
40186SOL    HW122391   5.380   0.949   7.362
40186SOL    HW222392   5.231   0.925   7.378
40187SOL     OW22393   2.703   7.871   8.265
40187SOL    HW122394   2.623   7.854   8.315
40187SOL    HW222395   2.673   7.906   8.182
40188SOL     OW22396   2.520   3.488   3.945
40188SOL    HW122397   2.491   3.457   4.031
40188SOL    HW222398   2.443   3.477   3.889
40189SOL     OW22399   2.993  13.870   2.768
40189SOL    HW122400   3.073  13.848   2.815
40189SOL    HW222401   2.929  13.807   2.799
40190SOL     OW22402  11.377  14.197   4.228
40190SOL    HW122403  11.368  14.252   4.150
40190SOL    HW222404  11.467  14.165   4.224
40191SOL     OW22405  14.775  14.315   5.816
40191SOL    HW122406  14.864  14.317   5.850
40191SOL    HW222407  14.721  14.349   5.888
40192SOL     OW22408  10.824   6.786  13.417
40192SOL    HW122409  10.813   6.881  13.420
40192SOL    HW222410  10.780   6.759  13.337
40193SOL     OW22411  14.272   6.708   5.411
40193SOL    HW122412  14.280   6.714   5.507
40193SOL    HW222413  14.182   6.734   5.393
40194SOL     OW22414  11.362   6.714   6.526
40194SOL    HW122415  11.374   6.698   6.619
40194SOL    HW222416  11.268   6.705   6.511
40195SOL     OW22417   7.054   8.010   8.073
40195SOL    HW122418   6.967   8.018   8.035
40195SOL    HW222419   7.089   8.099   8.072
40196SOL     OW22420   0.923   4.471  10.566
40196SOL    HW122421   0.865   4.546  10.552
40196SOL    HW222422   0.995   4.485  10.505
40197SOL     OW22423  13.604   1.729   0.095
40197SOL    HW122424  13.611   1.669   0.170
40197SOL    HW222425  13.658   1.804   0.119
40198SOL     OW22426  12.851   8.701   0.667
40198SOL    HW122427  12.785   8.669   0.728
40198SOL    HW222428  12.921   8.636   0.669
40199SOL     OW22429   2.440   6.986   0.800
40199SOL    HW122430   2.480   7.020   0.719
40199SOL    HW222431   2.360   7.036   0.810
40200SOL     OW22432  13.260   5.182   9.976
40200SOL    HW122433  13.312   5.223  10.046
40200SOL    HW222434  13.173   5.220   9.986
40201SOL     OW22435   3.955   0.877   7.755
40201SOL    HW122436   4.043   0.847   7.775
40201SOL    HW222437   3.954   0.886   7.660
40202SOL     OW22438   4.832  10.771   9.809
40202SOL    HW122439   4.914  10.796   9.851
40202SOL    HW222440   4.777  10.741   9.880
40203SOL     OW22441   0.441  13.317  11.359
40203SOL    HW122442   0.356  13.274  11.365
40203SOL    HW222443   0.437  13.387  11.425
40204SOL     OW22444  12.890   9.795   6.565
40204SOL    HW122445  12.921   9.878   6.526
40204SOL    HW222446  12.796   9.794   6.548
40205SOL     OW22447   7.548   1.740  12.968
40205SOL    HW122448   7.529   1.767  13.058
40205SOL    HW222449   7.466   1.755  12.921
40206SOL     OW22450  14.693  12.359  10.088
40206SOL    HW122451  14.663  12.364   9.998
40206SOL    HW222452  14.722  12.269  10.099
40207SOL     OW22453   2.369   7.570   2.023
40207SOL    HW122454   2.281   7.533   2.011
40207SOL    HW222455   2.373   7.643   1.961
40208SOL     OW22456   2.338  11.012   1.411
40208SOL    HW122457   2.340  11.108   1.407
40208SOL    HW222458   2.382  10.991   1.493
40209SOL     OW22459  11.239   6.161   0.163
40209SOL    HW122460  11.215   6.212   0.085
40209SOL    HW222461  11.308   6.102   0.133
40210SOL     OW22462  12.422   4.255  13.123
40210SOL    HW122463  12.352   4.249  13.058
40210SOL    HW222464  12.394   4.195  13.193
40211SOL     OW22465   9.713   1.456   4.138
40211SOL    HW122466   9.807   1.446   4.121
40211SOL    HW222467   9.691   1.384   4.197
40212SOL     OW22468  13.527  13.165   1.195
40212SOL    HW122469  13.580  13.193   1.269
40212SOL    HW222470  13.590  13.135   1.130
40213SOL     OW22471  10.567   1.203   2.161
40213SOL    HW122472  10.662   1.214   2.167
40213SOL    HW222473  10.541   1.259   2.088
40214SOL     OW22474   6.675  11.754  12.370
40214SOL    HW122475   6.736  11.811  12.322
40214SOL    HW222476   6.702  11.665  12.347
40215SOL     OW22477   4.338  12.169   5.770
40215SOL    HW122478   4.276  12.103   5.739
40215SOL    HW222479   4.320  12.176   5.864
40216SOL     OW22480   1.594   5.725  13.152
40216SOL    HW122481   1.645   5.769  13.220
40216SOL    HW222482   1.520   5.686  13.199
40217SOL     OW22483  10.069  12.312   9.650
40217SOL    HW122484  10.101  12.269   9.571
40217SOL    HW222485  10.017  12.386   9.617
40218SOL     OW22486   3.169   4.344   0.655
40218SOL    HW122487   3.150   4.259   0.695
40218SOL    HW222488   3.134   4.338   0.566
40219SOL     OW22489   3.948   0.111  13.586
40219SOL    HW122490   3.938   0.205  13.569
40219SOL    HW222491   3.907   0.098  13.672
40220SOL     OW22492  12.217   9.729   4.168
40220SOL    HW122493  12.124   9.726   4.191
40220SOL    HW222494  12.260   9.674   4.234
40221SOL     OW22495   7.510   4.169   3.583
40221SOL    HW122496   7.452   4.236   3.547
40221SOL    HW222497   7.453   4.095   3.604
40222SOL     OW22498   2.589   8.728   3.732
40222SOL    HW122499   2.605   8.635   3.719
40222SOL    HW222500   2.629   8.748   3.817
40223SOL     OW22501  12.947   8.167   1.370
40223SOL    HW122502  12.903   8.092   1.411
40223SOL    HW222503  13.001   8.128   1.300
40224SOL     OW22504   9.744   3.074  14.640
40224SOL    HW122505   9.710   3.133  14.572
40224SOL    HW222506   9.672   3.013  14.656
40225SOL     OW22507   3.365  12.342  12.589
40225SOL    HW122508   3.440  12.283  12.581
40225SOL    HW222509   3.325  12.319  12.673
40226SOL     OW22510   5.361   0.339  10.352
40226SOL    HW122511   5.414   0.393  10.294
40226SOL    HW222512   5.283   0.318  10.300
40227SOL     OW22513   9.888  13.627  13.206
40227SOL    HW122514   9.838  13.681  13.145
40227SOL    HW222515   9.885  13.675  13.288
40228SOL     OW22516  11.026  14.523   7.957
40228SOL    HW122517  10.998  14.485   7.873
40228SOL    HW222518  10.964  14.487   8.021
40229SOL     OW22519   4.114   5.975  12.024
40229SOL    HW122520   4.107   5.952  11.932
40229SOL    HW222521   4.116   5.891  12.070
40230SOL     OW22522   8.277  10.714  12.027
40230SOL    HW122523   8.302  10.801  11.997
40230SOL    HW222524   8.322  10.704  12.111
40231SOL     OW22525   6.842   4.625   7.048
40231SOL    HW122526   6.765   4.664   7.007
40231SOL    HW222527   6.814   4.604   7.137
40232SOL     OW22528   6.779   8.399  11.363
40232SOL    HW122529   6.691   8.422  11.393
40232SOL    HW222530   6.791   8.309  11.392
40233SOL     OW22531   1.391   3.523   5.959
40233SOL    HW122532   1.395   3.608   6.004
40233SOL    HW222533   1.435   3.462   6.019
40234SOL     OW22534   8.889   8.545  12.899
40234SOL    HW122535   8.879   8.632  12.939
40234SOL    HW222536   8.827   8.544  12.827
40235SOL     OW22537   6.375  10.221   5.280
40235SOL    HW122538   6.385  10.130   5.253
40235SOL    HW222539   6.404  10.223   5.371
40236SOL     OW22540  13.145   1.268  12.132
40236SOL    HW122541  13.165   1.255  12.039
40236SOL    HW222542  13.148   1.363  12.144
40237SOL     OW22543   1.039   0.055   7.494
40237SOL    HW122544   1.069   0.133   7.540
40237SOL    HW222545   0.955   0.033   7.535
40238SOL     OW22546  11.568   4.594  13.305
40238SOL    HW122547  11.608   4.595  13.392
40238SOL    HW222548  11.642   4.598  13.245
40239SOL     OW22549  11.260  12.473  13.965
40239SOL    HW122550  11.315  12.474  14.043
40239SOL    HW222551  11.173  12.453  13.998
40240SOL     OW22552   6.597   2.815  14.030
40240SOL    HW122553   6.660   2.879  13.997
40240SOL    HW222554   6.563   2.854  14.111
40241SOL     OW22555  12.121   4.117   8.376
40241SOL    HW122556  12.072   4.161   8.308
40241SOL    HW222557  12.054   4.078   8.433
40242SOL     OW22558   3.202   8.576  11.580
40242SOL    HW122559   3.177   8.616  11.663
40242SOL    HW222560   3.197   8.648  11.517
40243SOL     OW22561  13.828   6.982   5.351
40243SOL    HW122562  13.806   6.921   5.421
40243SOL    HW222563  13.782   7.062   5.373
40244SOL     OW22564   4.921   7.283   0.786
40244SOL    HW122565   4.828   7.272   0.767
40244SOL    HW222566   4.963   7.212   0.737
40245SOL     OW22567  12.457   1.942   8.900
40245SOL    HW122568  12.453   2.034   8.874
40245SOL    HW222569  12.370   1.924   8.936
40246SOL     OW22570   3.187  13.917   0.306
40246SOL    HW122571   3.189  14.001   0.258
40246SOL    HW222572   3.230  13.936   0.389
40247SOL     OW22573   2.373   2.270   8.233
40247SOL    HW122574   2.418   2.224   8.163
40247SOL    HW222575   2.414   2.239   8.313
40248SOL     OW22576   7.154   0.282   7.951
40248SOL    HW122577   7.109   0.357   7.991
40248SOL    HW222578   7.203   0.320   7.877
40249SOL     OW22579   1.867   4.180   8.332
40249SOL    HW122580   1.941   4.215   8.281
40249SOL    HW222581   1.863   4.236   8.410
40250SOL     OW22582   3.871  12.506   7.290
40250SOL    HW122583   3.802  12.442   7.272
40250SOL    HW222584   3.873  12.562   7.212
40251SOL     OW22585   1.372   8.218  12.258
40251SOL    HW122586   1.312   8.241  12.329
40251SOL    HW222587   1.454   8.261  12.281
40252SOL     OW22588  14.608  11.236   5.189
40252SOL    HW122589  14.538  11.242   5.254
40252SOL    HW222590  14.577  11.170   5.127
40253SOL     OW22591   7.429   6.745   8.761
40253SOL    HW122592   7.425   6.841   8.758
40253SOL    HW222593   7.340   6.717   8.738
40254SOL     OW22594   2.394   8.144   5.065
40254SOL    HW122595   2.333   8.187   5.005
40254SOL    HW222596   2.380   8.189   5.149
40255SOL     OW22597   7.762  13.046  11.605
40255SOL    HW122598   7.676  13.007  11.596
40255SOL    HW222599   7.805  12.995  11.673
40256SOL     OW22600   1.589   9.079  13.358
40256SOL    HW122601   1.582   9.112  13.269
40256SOL    HW222602   1.674   9.109  13.389
40257SOL     OW22603  12.107   1.805   7.101
40257SOL    HW122604  12.156   1.796   7.182
40257SOL    HW222605  12.134   1.890   7.066
40258SOL     OW22606  13.932   5.165  14.301
40258SOL    HW122607  13.963   5.214  14.377
40258SOL    HW222608  13.931   5.074  14.330
40259SOL     OW22609   6.331   8.022  12.830
40259SOL    HW122610   6.355   8.095  12.887
40259SOL    HW222611   6.414   7.992  12.793
40260SOL     OW22612   8.798   1.969   0.104
40260SOL    HW122613   8.866   1.947   0.168
40260SOL    HW222614   8.720   1.923   0.136
40261SOL     OW22615  11.877   6.996  10.185
40261SOL    HW122616  11.896   6.970  10.275
40261SOL    HW222617  11.782   7.008  10.183
40262SOL     OW22618   2.681   4.464  14.484
40262SOL    HW122619   2.656   4.460  14.576
40262SOL    HW222620   2.654   4.551  14.455
40263SOL     OW22621   0.358   0.160   8.750
40263SOL    HW122622   0.443   0.137   8.715
40263SOL    HW222623   0.360   0.256   8.758
40264SOL     OW22624  11.285   7.902   3.373
40264SOL    HW122625  11.357   7.942   3.324
40264SOL    HW222626  11.329   7.847   3.439
40265SOL     OW22627   8.432   0.310  13.429
40265SOL    HW122628   8.382   0.310  13.511
40265SOL    HW222629   8.403   0.231  13.383
40266SOL     OW22630   8.054  10.413   0.961
40266SOL    HW122631   7.984  10.350   0.979
40266SOL    HW222632   8.125  10.361   0.924
40267SOL     OW22633  12.599   4.606   5.896
40267SOL    HW122634  12.560   4.519   5.907
40267SOL    HW222635  12.603   4.619   5.802
40268SOL     OW22636   7.679  10.505   2.327
40268SOL    HW122637   7.626  10.426   2.317
40268SOL    HW222638   7.639  10.569   2.268
40269SOL     OW22639  12.373   8.724   3.730
40269SOL    HW122640  12.372   8.758   3.819
40269SOL    HW222641  12.424   8.643   3.735
40270SOL     OW22642  14.834  12.952  11.785
40270SOL    HW122643   0.043  12.916  11.818
40270SOL    HW222644  14.804  13.012  11.853
40271SOL     OW22645  14.194  13.054   1.305
40271SOL    HW122646  14.207  12.961   1.286
40271SOL    HW222647  14.210  13.098   1.222
40272SOL     OW22648   1.289   7.226   4.816
40272SOL    HW122649   1.229   7.291   4.852
40272SOL    HW222650   1.376   7.260   4.835
40273SOL     OW22651   3.345   8.411   9.948
40273SOL    HW122652   3.300   8.493   9.967
40273SOL    HW222653   3.412   8.404  10.016
40274SOL     OW22654   4.092   8.258  13.640
40274SOL    HW122655   4.092   8.193  13.570
40274SOL    HW222656   4.007   8.301  13.633
40275SOL     OW22657  13.617  11.270  13.059
40275SOL    HW122658  13.566  11.238  13.132
40275SOL    HW222659  13.556  11.272  12.985
40276SOL     OW22660  11.041   6.975   4.938
40276SOL    HW122661  11.059   6.906   5.001
40276SOL    HW222662  10.946   6.972   4.926
40277SOL     OW22663  11.956   6.524  12.919
40277SOL    HW122664  11.861   6.526  12.932
40277SOL    HW222665  11.968   6.543  12.826
40278SOL     OW22666   7.927   5.975  11.990
40278SOL    HW122667   7.853   5.918  12.010
40278SOL    HW222668   8.003   5.917  11.994
40279SOL     OW22669   3.821   9.082   2.961
40279SOL    HW122670   3.897   9.072   3.018
40279SOL    HW222671   3.854   9.134   2.887
40280SOL     OW22672   6.984   8.954   3.179
40280SOL    HW122673   7.012   8.862   3.180
40280SOL    HW222674   6.989   8.979   3.087
40281SOL     OW22675   7.874   7.310  11.387
40281SOL    HW122676   7.967   7.291  11.379
40281SOL    HW222677   7.854   7.296  11.479
40282SOL     OW22678  12.630  11.634   6.948
40282SOL    HW122679  12.598  11.711   6.994
40282SOL    HW222680  12.585  11.561   6.990
40283SOL     OW22681   4.430   8.655  11.544
40283SOL    HW122682   4.498   8.685  11.483
40283SOL    HW222683   4.458   8.567  11.570
40284SOL     OW22684  11.961   8.294   1.470
40284SOL    HW122685  12.042   8.295   1.523
40284SOL    HW222686  11.991   8.280   1.380
40285SOL     OW22687   0.103   9.869  12.655
40285SOL    HW122688   0.179   9.825  12.617
40285SOL    HW222689   0.136   9.911  12.734
40286SOL     OW22690   6.018   7.909   2.209
40286SOL    HW122691   6.049   7.852   2.279
40286SOL    HW222692   5.931   7.936   2.236
40287SOL     OW22693   8.003   3.968   2.810
40287SOL    HW122694   8.040   4.022   2.881
40287SOL    HW222695   7.938   3.913   2.854
40288SOL     OW22696   4.609   1.350   4.923
40288SOL    HW122697   4.620   1.389   4.836
40288SOL    HW222698   4.597   1.256   4.906
40289SOL     OW22699  12.012  13.707   0.371
40289SOL    HW122700  12.006  13.627   0.422
40289SOL    HW222701  12.000  13.777   0.435
40290SOL     OW22702   8.961   2.817   1.444
40290SOL    HW122703   9.049   2.793   1.471
40290SOL    HW222704   8.905   2.748   1.480
40291SOL     OW22705   1.813   3.149   3.159
40291SOL    HW122706   1.880   3.176   3.096
40291SOL    HW222707   1.806   3.054   3.148
40292SOL     OW22708   3.028   2.049  14.416
40292SOL    HW122709   2.960   2.034  14.483
40292SOL    HW222710   2.979   2.070  14.337
40293SOL     OW22711   3.576  14.308   5.113
40293SOL    HW122712   3.535  14.342   5.034
40293SOL    HW222713   3.508  14.317   5.180
40294SOL     OW22714   1.209  10.681  11.519
40294SOL    HW122715   1.138  10.623  11.546
40294SOL    HW222716   1.289  10.629  11.532
40295SOL     OW22717   3.283   0.021   2.232
40295SOL    HW122718   3.233   0.037   2.151
40295SOL    HW222719   3.372   0.049   2.210
40296SOL     OW22720  10.017   7.144   4.408
40296SOL    HW122721  10.067   7.218   4.375
40296SOL    HW222722  10.064   7.067   4.375
40297SOL     OW22723  11.072  13.057   9.444
40297SOL    HW122724  11.143  13.118   9.467
40297SOL    HW222725  11.118  12.976   9.418
40298SOL     OW22726   4.562   3.951   9.174
40298SOL    HW122727   4.514   3.900   9.109
40298SOL    HW222728   4.498   4.013   9.208
40299SOL     OW22729  12.945   2.495   7.731
40299SOL    HW122730  12.919   2.572   7.781
40299SOL    HW222731  12.953   2.527   7.641
40300SOL     OW22732  10.866   3.240   8.830
40300SOL    HW122733  10.884   3.268   8.920
40300SOL    HW222734  10.889   3.148   8.829
40301SOL     OW22735  12.277  14.791   8.936
40301SOL    HW122736  12.357  14.745   8.962
40301SOL    HW222737  12.283  14.797   8.841
40302SOL     OW22738  14.831   0.498   3.758
40302SOL    HW122739  14.757   0.443   3.732
40302SOL    HW222740  14.831   0.495   3.853
40303SOL     OW22741  10.629   6.018   2.553
40303SOL    HW122742  10.725   6.015   2.556
40303SOL    HW222743  10.603   5.927   2.534
40304SOL     OW22744   6.142   2.280  13.933
40304SOL    HW122745   6.104   2.304  14.017
40304SOL    HW222746   6.081   2.216  13.896
40305SOL     OW22747  11.266   9.100   2.017
40305SOL    HW122748  11.251   9.188   1.986
40305SOL    HW222749  11.239   9.043   1.945
40306SOL     OW22750  10.744   6.805  10.669
40306SOL    HW122751  10.715   6.789  10.759
40306SOL    HW222752  10.666   6.785  10.616
40307SOL     OW22753  12.537   3.195   7.358
40307SOL    HW122754  12.447   3.225   7.350
40307SOL    HW222755  12.589   3.263   7.316
40308SOL     OW22756   8.631   6.156   8.618
40308SOL    HW122757   8.637   6.083   8.556
40308SOL    HW222758   8.539   6.181   8.617
40309SOL     OW22759   8.581  14.192   3.072
40309SOL    HW122760   8.589  14.157   2.983
40309SOL    HW222761   8.518  14.264   3.063
40310SOL     OW22762   6.604  12.582  12.690
40310SOL    HW122763   6.535  12.590  12.756
40310SOL    HW222764   6.575  12.511  12.633
40311SOL     OW22765   1.859  12.492   3.455
40311SOL    HW122766   1.788  12.536   3.501
40311SOL    HW222767   1.889  12.424   3.516
40312SOL     OW22768   6.065   7.692   5.294
40312SOL    HW122769   5.984   7.737   5.273
40312SOL    HW222770   6.038   7.609   5.332
40313SOL     OW22771   3.518  12.536   4.212
40313SOL    HW122772   3.590  12.548   4.273
40313SOL    HW222773   3.558  12.493   4.136
40314SOL     OW22774   8.842   4.498   3.891
40314SOL    HW122775   8.830   4.550   3.811
40314SOL    HW222776   8.927   4.527   3.924
40315SOL     OW22777  10.899   8.179   3.622
40315SOL    HW122778  10.830   8.245   3.625
40315SOL    HW222779  10.970   8.216   3.673
40316SOL     OW22780   6.754   2.228  12.378
40316SOL    HW122781   6.658   2.229  12.378
40316SOL    HW222782   6.778   2.213  12.287
40317SOL     OW22783   8.129   1.871   4.407
40317SOL    HW122784   8.070   1.805   4.444
40317SOL    HW222785   8.188   1.821   4.351
40318SOL     OW22786   8.597   4.758   8.824
40318SOL    HW122787   8.590   4.663   8.832
40318SOL    HW222788   8.661   4.772   8.755
40319SOL     OW22789   4.002  11.281  12.001
40319SOL    HW122790   4.076  11.340  11.991
40319SOL    HW222791   4.039  11.193  11.997
40320SOL     OW22792   4.347   7.356   2.070
40320SOL    HW122793   4.283   7.396   2.012
40320SOL    HW222794   4.431   7.368   2.025
40321SOL     OW22795  11.626   5.083   6.643
40321SOL    HW122796  11.700   5.136   6.674
40321SOL    HW222797  11.575   5.143   6.588
40322SOL     OW22798   2.585  11.232  13.765
40322SOL    HW122799   2.645  11.268  13.830
40322SOL    HW222800   2.636  11.163  13.721
40323SOL     OW22801   5.121   2.599   8.684
40323SOL    HW122802   5.132   2.685   8.643
40323SOL    HW222803   5.164   2.538   8.624
40324SOL     OW22804   9.900   6.740   2.126
40324SOL    HW122805   9.817   6.789   2.130
40324SOL    HW222806   9.926   6.744   2.034
40325SOL     OW22807   3.628   3.574   4.588
40325SOL    HW122808   3.577   3.650   4.560
40325SOL    HW222809   3.581   3.499   4.552
40326SOL     OW22810  10.970   1.155   9.577
40326SOL    HW122811  10.918   1.186   9.651
40326SOL    HW222812  11.036   1.224   9.564
40327SOL     OW22813   4.950  14.186   4.701
40327SOL    HW122814   4.925  14.212   4.612
40327SOL    HW222815   4.873  14.139   4.734
40328SOL     OW22816  11.170  12.356   8.277
40328SOL    HW122817  11.257  12.327   8.250
40328SOL    HW222818  11.158  12.440   8.234
40329SOL     OW22819  11.003   0.174   7.834
40329SOL    HW122820  10.985   0.086   7.803
40329SOL    HW222821  11.088   0.196   7.795
40330SOL     OW22822  11.676  13.117   9.979
40330SOL    HW122823  11.584  13.093   9.978
40330SOL    HW222824  11.723  13.033   9.976
40331SOL     OW22825  14.569   3.258  10.717
40331SOL    HW122826  14.611   3.198  10.778
40331SOL    HW222827  14.530   3.201  10.650
40332SOL     OW22828   2.883   6.802   9.746
40332SOL    HW122829   2.913   6.892   9.751
40332SOL    HW222830   2.789   6.808   9.729
40333SOL     OW22831   1.713   3.859   7.251
40333SOL    HW122832   1.657   3.879   7.326
40333SOL    HW222833   1.653   3.826   7.184
40334SOL     OW22834  13.936   6.335   5.541
40334SOL    HW122835  13.867   6.270   5.525
40334SOL    HW222836  13.901   6.389   5.613
40335SOL     OW22837   1.692  12.724   3.374
40335SOL    HW122838   1.763  12.770   3.420
40335SOL    HW222839   1.655  12.665   3.441
40336SOL     OW22840   6.001   7.633   5.015
40336SOL    HW122841   5.911   7.612   4.990
40336SOL    HW222842   5.995   7.717   5.060
40337SOL     OW22843   8.813   9.457   4.939
40337SOL    HW122844   8.790   9.371   4.903
40337SOL    HW222845   8.816   9.443   5.034
40338SOL     OW22846   1.347   8.046   4.269
40338SOL    HW122847   1.386   8.055   4.356
40338SOL    HW222848   1.259   8.082   4.279
40339SOL     OW22849  12.483   3.667   5.640
40339SOL    HW122850  12.488   3.596   5.703
40339SOL    HW222851  12.454   3.625   5.559
40340SOL     OW22852  13.508   8.450   7.480
40340SOL    HW122853  13.584   8.504   7.499
40340SOL    HW222854  13.525   8.367   7.524
40341SOL     OW22855   3.131   6.898   1.048
40341SOL    HW122856   3.177   6.856   1.121
40341SOL    HW222857   3.144   6.838   0.975
40342SOL     OW22858  12.910   1.670   6.864
40342SOL    HW122859  12.886   1.578   6.864
40342SOL    HW222860  12.993   1.674   6.817
40343SOL     OW22861   8.297   4.415   7.242
40343SOL    HW122862   8.216   4.425   7.292
40343SOL    HW222863   8.297   4.491   7.183
40344SOL     OW22864   8.370   7.747   7.810
40344SOL    HW122865   8.453   7.794   7.801
40344SOL    HW222866   8.395   7.664   7.851
40345SOL     OW22867  10.886  11.100  11.954
40345SOL    HW122868  10.977  11.128  11.969
40345SOL    HW222869  10.858  11.153  11.879
40346SOL     OW22870   7.548   8.606   8.473
40346SOL    HW122871   7.515   8.644   8.392
40346SOL    HW222872   7.643   8.613   8.466
40347SOL     OW22873  12.329   6.701  13.565
40347SOL    HW122874  12.387   6.685  13.491
40347SOL    HW222875  12.338   6.794  13.584
40348SOL     OW22876   8.751  13.489  14.786
40348SOL    HW122877   8.718  13.577  14.804
40348SOL    HW222878   8.708  13.434  14.851
40349SOL     OW22879   6.032   6.510   1.217
40349SOL    HW122880   5.954   6.566   1.219
40349SOL    HW222881   6.084   6.540   1.292
40350SOL     OW22882   7.071   7.993   8.358
40350SOL    HW122883   7.035   8.032   8.278
40350SOL    HW222884   6.993   7.970   8.410
40351SOL     OW22885   7.172   6.788   7.951
40351SOL    HW122886   7.213   6.773   7.866
40351SOL    HW222887   7.108   6.717   7.959
40352SOL     OW22888   3.084   1.131   7.499
40352SOL    HW122889   3.023   1.068   7.538
40352SOL    HW222890   3.054   1.138   7.408
40353SOL     OW22891   6.227  14.361  12.795
40353SOL    HW122892   6.158  14.425  12.811
40353SOL    HW222893   6.298  14.412  12.755
40354SOL     OW22894  14.708   1.053  10.568
40354SOL    HW122895  14.733   1.140  10.598
40354SOL    HW222896  14.790   1.009  10.548
40355SOL     OW22897   8.538   3.123   0.346
40355SOL    HW122898   8.489   3.135   0.428
40355SOL    HW222899   8.470   3.108   0.280
40356SOL     OW22900  10.225   8.743  13.872
40356SOL    HW122901  10.235   8.703  13.786
40356SOL    HW222902  10.287   8.815  13.873
40357SOL     OW22903  12.727   3.327   9.127
40357SOL    HW122904  12.644   3.313   9.173
40357SOL    HW222905  12.715   3.409   9.079
40358SOL     OW22906   1.435   6.825  11.918
40358SOL    HW122907   1.345   6.807  11.947
40358SOL    HW222908   1.430   6.909  11.873
40359SOL     OW22909   6.926   0.082   7.990
40359SOL    HW122910   6.978   0.162   7.995
40359SOL    HW222911   6.862   0.099   7.921
40360SOL     OW22912   1.026   1.872  10.733
40360SOL    HW122913   1.118   1.897  10.739
40360SOL    HW222914   0.979   1.948  10.768
40361SOL     OW22915  14.534   1.028  13.468
40361SOL    HW122916  14.566   1.033  13.377
40361SOL    HW222917  14.477   0.951  13.469
40362SOL     OW22918  13.276  13.360   0.889
40362SOL    HW122919  13.210  13.375   0.822
40362SOL    HW222920  13.226  13.357   0.971
40363SOL     OW22921   5.094   6.395   0.041
40363SOL    HW122922   5.163   6.391  14.847
40363SOL    HW222923   5.101   6.313   0.089
40364SOL     OW22924   3.439  10.137   4.626
40364SOL    HW122925   3.531  10.127   4.599
40364SOL    HW222926   3.443  10.139   4.722
40365SOL     OW22927   8.128  12.756  14.555
40365SOL    HW122928   8.083  12.707  14.623
40365SOL    HW222929   8.075  12.743  14.476
40366SOL     OW22930  11.276  11.964   9.700
40366SOL    HW122931  11.204  12.025   9.714
40366SOL    HW222932  11.262  11.928   9.613
40367SOL     OW22933   1.065   7.415   1.549
40367SOL    HW122934   1.146   7.390   1.595
40367SOL    HW222935   1.060   7.510   1.559
40368SOL     OW22936   7.346  11.709   3.688
40368SOL    HW122937   7.399  11.673   3.758
40368SOL    HW222938   7.333  11.637   3.627
40369SOL     OW22939  10.676   9.158   6.014
40369SOL    HW122940  10.754   9.110   5.985
40369SOL    HW222941  10.702   9.250   6.010
40370SOL     OW22942   5.523  10.866   7.006
40370SOL    HW122943   5.596  10.834   6.952
40370SOL    HW222944   5.506  10.795   7.067
40371SOL     OW22945   5.540   4.436   8.924
40371SOL    HW122946   5.549   4.451   9.018
40371SOL    HW222947   5.609   4.373   8.903
40372SOL     OW22948   7.770   3.924  13.649
40372SOL    HW122949   7.854   3.879  13.651
40372SOL    HW222950   7.740   3.917  13.559
40373SOL     OW22951   3.679  14.250   2.140
40373SOL    HW122952   3.669  14.166   2.186
40373SOL    HW222953   3.743  14.233   2.072
40374SOL     OW22954   8.370   0.674  12.103
40374SOL    HW122955   8.393   0.675  12.196
40374SOL    HW222956   8.277   0.651  12.102
40375SOL     OW22957   2.906   0.653   0.360
40375SOL    HW122958   2.957   0.694   0.290
40375SOL    HW222959   2.964   0.586   0.395
40376SOL     OW22960   0.641   9.906   3.603
40376SOL    HW122961   0.574   9.906   3.671
40376SOL    HW222962   0.653   9.999   3.581
40377SOL     OW22963   2.397   2.803   5.873
40377SOL    HW122964   2.335   2.854   5.821
40377SOL    HW222965   2.483   2.829   5.840
40378SOL     OW22966   3.819   4.452  11.865
40378SOL    HW122967   3.902   4.465  11.911
40378SOL    HW222968   3.774   4.383  11.914
40379SOL     OW22969  11.955   8.681   1.216
40379SOL    HW122970  11.966   8.775   1.203
40379SOL    HW222971  11.882   8.657   1.160
40380SOL     OW22972   1.509   3.400   3.396
40380SOL    HW122973   1.479   3.321   3.351
40380SOL    HW222974   1.583   3.431   3.343
40381SOL     OW22975   9.616   7.161  11.323
40381SOL    HW122976   9.523   7.142  11.333
40381SOL    HW222977   9.619   7.231  11.257
40382SOL     OW22978   0.044   1.250  12.681
40382SOL    HW122979   0.133   1.258  12.648
40382SOL    HW222980   0.050   1.273  12.774
40383SOL     OW22981   0.297   4.918  10.576
40383SOL    HW122982   0.257   4.852  10.520
40383SOL    HW222983   0.244   4.996  10.562
40384SOL     OW22984   3.872   7.962   6.057
40384SOL    HW122985   3.914   7.899   6.116
40384SOL    HW222986   3.917   8.045   6.075
40385SOL     OW22987   3.168   3.222  13.793
40385SOL    HW122988   3.086   3.222  13.841
40385SOL    HW222989   3.212   3.141  13.820
40386SOL     OW22990   2.731   8.020  14.279
40386SOL    HW122991   2.803   7.957  14.274
40386SOL    HW222992   2.768   8.096  14.323
40387SOL     OW22993   4.644   4.919  14.188
40387SOL    HW122994   4.559   4.908  14.231
40387SOL    HW222995   4.641   4.860  14.113
40388SOL     OW22996   7.498   6.031   8.545
40388SOL    HW122997   7.403   6.041   8.551
40388SOL    HW222998   7.529   6.115   8.510
40389SOL     OW22999  12.612   7.830   1.564
40389SOL    HW123000  12.640   7.830   1.655
40389SOL    HW223001  12.525   7.870   1.566
40390SOL     OW23002   6.639  12.701   4.518
40390SOL    HW123003   6.562  12.710   4.575
40390SOL    HW223004   6.617  12.628   4.460
40391SOL     OW23005   3.645   7.000   8.363
40391SOL    HW123006   3.583   7.009   8.435
40391SOL    HW223007   3.687   6.916   8.378
40392SOL     OW23008   7.784  14.020  11.989
40392SOL    HW123009   7.743  14.082  12.050
40392SOL    HW223010   7.729  13.942  11.993
40393SOL     OW23011  12.282  13.587   5.477
40393SOL    HW123012  12.336  13.654   5.518
40393SOL    HW223013  12.270  13.617   5.387
40394SOL     OW23014  13.261   5.288   7.012
40394SOL    HW123015  13.282   5.213   7.068
40394SOL    HW223016  13.170   5.275   6.986
40395SOL     OW23017  10.990  11.944  14.868
40395SOL    HW123018  10.899  11.933   0.021
40395SOL    HW223019  11.036  11.872   0.039
40396SOL     OW23020  14.637   4.966   0.356
40396SOL    HW123021  14.657   4.961   0.263
40396SOL    HW223022  14.594   5.051   0.367
40397SOL     OW23023  11.897   8.814   6.020
40397SOL    HW123024  11.858   8.820   5.933
40397SOL    HW223025  11.837   8.861   6.077
40398SOL     OW23026  10.288   1.573   9.782
40398SOL    HW123027  10.279   1.559   9.876
40398SOL    HW223028  10.291   1.485   9.745
40399SOL     OW23029   1.293   3.430  11.493
40399SOL    HW123030   1.308   3.496  11.561
40399SOL    HW223031   1.354   3.360  11.514
40400SOL     OW23032   9.631  10.614  11.771
40400SOL    HW123033   9.643  10.558  11.694
40400SOL    HW223034   9.711  10.668  11.775
40401SOL     OW23035   4.635  13.016   9.484
40401SOL    HW123036   4.723  13.049   9.500
40401SOL    HW223037   4.581  13.095   9.477
40402SOL     OW23038   5.806   8.581  13.930
40402SOL    HW123039   5.829   8.488  13.935
40402SOL    HW223040   5.770   8.592  13.842
40403SOL     OW23041   5.081   6.987   4.252
40403SOL    HW123042   5.047   6.898   4.243
40403SOL    HW223043   5.166   6.984   4.208
40404SOL     OW23044   0.565  10.455  11.222
40404SOL    HW123045   0.640  10.487  11.172
40404SOL    HW223046   0.550  10.366  11.189
40405SOL     OW23047   8.616   8.695   5.845
40405SOL    HW123048   8.531   8.711   5.804
40405SOL    HW223049   8.597   8.687   5.938
40406SOL     OW23050  10.157   0.936   9.283
40406SOL    HW123051  10.137   1.005   9.220
40406SOL    HW223052  10.121   0.857   9.244
40407SOL     OW23053  12.460   1.968   6.109
40407SOL    HW123054  12.439   1.876   6.093
40407SOL    HW223055  12.528   1.989   6.045
40408SOL     OW23056   6.866   2.513  10.578
40408SOL    HW123057   6.800   2.525  10.509
40408SOL    HW223058   6.821   2.539  10.658
40409SOL     OW23059  12.052   6.327   0.044
40409SOL    HW123060  12.079   6.235   0.048
40409SOL    HW223061  12.046   6.354   0.136
40410SOL     OW23062   9.104   2.434  13.615
40410SOL    HW123063   9.055   2.471  13.542
40410SOL    HW223064   9.096   2.499  13.685
40411SOL     OW23065   2.368  13.844   9.911
40411SOL    HW123066   2.336  13.934   9.916
40411SOL    HW223067   2.451  13.846   9.959
40412SOL     OW23068   6.801   0.519   7.856
40412SOL    HW123069   6.877   0.527   7.798
40412SOL    HW223070   6.839   0.495   7.941
40413SOL     OW23071   5.698   6.427   8.753
40413SOL    HW123072   5.734   6.512   8.728
40413SOL    HW223073   5.604   6.435   8.738
40414SOL     OW23074   9.872  10.868   5.119
40414SOL    HW123075   9.849  10.806   5.050
40414SOL    HW223076   9.910  10.813   5.188
40415SOL     OW23077  13.474   5.505   4.534
40415SOL    HW123078  13.549   5.458   4.498
40415SOL    HW223079  13.513   5.565   4.599
40416SOL     OW23080  10.355  12.413   8.453
40416SOL    HW123081  10.430  12.415   8.512
40416SOL    HW223082  10.358  12.327   8.411
40417SOL     OW23083   5.694  12.386   7.765
40417SOL    HW123084   5.659  12.459   7.816
40417SOL    HW223085   5.677  12.309   7.819
40418SOL     OW23086   2.451   2.719   9.834
40418SOL    HW123087   2.443   2.814   9.838
40418SOL    HW223088   2.454   2.691   9.925
40419SOL     OW23089   0.879   4.467   5.853
40419SOL    HW123090   0.928   4.549   5.845
40419SOL    HW223091   0.942   4.400   5.825
40420SOL     OW23092  11.927   7.649  12.032
40420SOL    HW123093  11.911   7.587  11.961
40420SOL    HW223094  11.948   7.594  12.108
40421SOL     OW23095   2.107   6.345   0.183
40421SOL    HW123096   2.126   6.428   0.227
40421SOL    HW223097   2.095   6.369   0.091
40422SOL     OW23098   0.397   2.447   8.755
40422SOL    HW123099   0.378   2.368   8.806
40422SOL    HW223100   0.484   2.433   8.718
40423SOL     OW23101   4.622  13.364  14.844
40423SOL    HW123102   4.567  13.434   0.006
40423SOL    HW223103   4.665  13.403  14.768
40424SOL     OW23104   4.981   4.045   3.227
40424SOL    HW123105   4.949   4.012   3.311
40424SOL    HW223106   5.048   3.982   3.200
40425SOL     OW23107   3.038   8.964  10.591
40425SOL    HW123108   2.969   8.898  10.600
40425SOL    HW223109   3.113   8.927  10.638
40426SOL     OW23110   7.061  12.384   1.891
40426SOL    HW123111   7.072  12.339   1.974
40426SOL    HW223112   6.999  12.455   1.910
40427SOL     OW23113  14.819  11.432  13.029
40427SOL    HW123114   0.030  11.452  13.071
40427SOL    HW223115  14.842  11.409  12.939
40428SOL     OW23116   9.566   3.967   8.873
40428SOL    HW123117   9.535   4.037   8.931
40428SOL    HW223118   9.643   4.003   8.831
40429SOL     OW23119   5.856  12.885   0.053
40429SOL    HW123120   5.844  12.932   0.135
40429SOL    HW223121   5.901  12.947  14.868
40430SOL     OW23122   8.817  14.860  11.469
40430SOL    HW123123   8.909  14.867  11.492
40430SOL    HW223124   8.775  14.822  11.546
40431SOL     OW23125  14.487  12.964   2.212
40431SOL    HW123126  14.506  12.961   2.306
40431SOL    HW223127  14.401  12.922   2.204
40432SOL     OW23128   6.796   6.810  11.232
40432SOL    HW123129   6.891   6.800  11.232
40432SOL    HW223130   6.774   6.827  11.140
40433SOL     OW23131  11.280   6.546   8.292
40433SOL    HW123132  11.255   6.477   8.231
40433SOL    HW223133  11.280   6.504   8.378
40434SOL     OW23134  14.757   7.781   9.974
40434SOL    HW123135  14.794   7.813  10.057
40434SOL    HW223136  14.796   7.695   9.962
40435SOL     OW23137   8.538   9.369   8.996
40435SOL    HW123138   8.569   9.432   8.932
40435SOL    HW223139   8.596   9.293   8.985
40436SOL     OW23140  13.015   9.258   6.715
40436SOL    HW123141  12.982   9.332   6.766
40436SOL    HW223142  12.961   9.257   6.636
40437SOL     OW23143   8.525  14.312   5.686
40437SOL    HW123144   8.493  14.249   5.751
40437SOL    HW223145   8.618  14.292   5.677
40438SOL     OW23146   1.559   9.900   4.693
40438SOL    HW123147   1.588   9.980   4.649
40438SOL    HW223148   1.573   9.831   4.629
40439SOL     OW23149   4.585  14.633   5.944
40439SOL    HW123150   4.616  14.652   6.032
40439SOL    HW223151   4.501  14.588   5.956
40440SOL     OW23152   4.994   4.354   2.863
40440SOL    HW123153   4.984   4.286   2.796
40440SOL    HW223154   4.996   4.436   2.814
40441SOL     OW23155   6.362   4.234   6.822
40441SOL    HW123156   6.449   4.194   6.833
40441SOL    HW223157   6.303   4.160   6.813
40442SOL     OW23158   9.302   5.695   3.730
40442SOL    HW123159   9.263   5.714   3.816
40442SOL    HW223160   9.362   5.623   3.746
40443SOL     OW23161  13.996   4.616   1.705
40443SOL    HW123162  13.927   4.681   1.694
40443SOL    HW223163  14.075   4.667   1.719
40444SOL     OW23164  13.105   4.627   8.492
40444SOL    HW123165  13.093   4.538   8.524
40444SOL    HW223166  13.074   4.625   8.401
40445SOL     OW23167  14.812   1.298  10.627
40445SOL    HW123168   0.028   1.333  10.620
40445SOL    HW223169  14.803   1.273  10.719
40446SOL     OW23170   0.203   2.958   5.004
40446SOL    HW123171   0.122   2.929   5.047
40446SOL    HW223172   0.269   2.952   5.073
40447SOL     OW23173   7.004  11.438  11.046
40447SOL    HW123174   7.018  11.470  11.135
40447SOL    HW223175   7.053  11.356  11.042
40448SOL     OW23176  11.400  10.716   4.586
40448SOL    HW123177  11.469  10.660   4.622
40448SOL    HW223178  11.321  10.691   4.636
40449SOL     OW23179   7.563   5.352   4.502
40449SOL    HW123180   7.570   5.370   4.596
40449SOL    HW223181   7.509   5.273   4.497
40450SOL     OW23182   3.368  14.503   0.740
40450SOL    HW123183   3.288  14.461   0.708
40450SOL    HW223184   3.337  14.577   0.793
40451SOL     OW23185   5.382   6.441  14.251
40451SOL    HW123186   5.318   6.382  14.211
40451SOL    HW223187   5.409   6.500  14.180
40452SOL     OW23188   4.949   3.222   2.749
40452SOL    HW123189   5.035   3.263   2.762
40452SOL    HW223190   4.966   3.151   2.687
40453SOL     OW23191   3.587   8.850   9.476
40453SOL    HW123192   3.625   8.927   9.434
40453SOL    HW223193   3.662   8.794   9.494
40454SOL     OW23194  12.190  10.665   0.828
40454SOL    HW123195  12.159  10.609   0.757
40454SOL    HW223196  12.178  10.754   0.795
40455SOL     OW23197  13.022  13.740   3.791
40455SOL    HW123198  12.972  13.811   3.830
40455SOL    HW223199  13.019  13.670   3.857
40456SOL     OW23200   7.945   6.234   5.611
40456SOL    HW123201   7.914   6.227   5.702
40456SOL    HW223202   7.874   6.196   5.559
40457SOL     OW23203   8.959   3.098   5.535
40457SOL    HW123204   9.018   3.172   5.516
40457SOL    HW223205   9.000   3.053   5.609
40458SOL     OW23206   8.759   2.262   1.891
40458SOL    HW123207   8.849   2.231   1.876
40458SOL    HW223208   8.705   2.183   1.886
40459SOL     OW23209   9.588  12.339  12.587
40459SOL    HW123210   9.641  12.295  12.654
40459SOL    HW223211   9.510  12.369  12.635
40460SOL     OW23212   3.199   1.700   8.275
40460SOL    HW123213   3.239   1.689   8.362
40460SOL    HW223214   3.128   1.636   8.274
40461SOL     OW23215   9.829   9.352   9.189
40461SOL    HW123216   9.863   9.351   9.279
40461SOL    HW223217   9.888   9.294   9.140
40462SOL     OW23218   8.909   5.766   0.747
40462SOL    HW123219   8.891   5.674   0.732
40462SOL    HW223220   8.994   5.782   0.705
40463SOL     OW23221  14.004   4.775  11.528
40463SOL    HW123222  13.983   4.699  11.582
40463SOL    HW223223  13.999   4.849  11.587
40464SOL     OW23224  11.517  12.400   4.352
40464SOL    HW123225  11.600  12.431   4.315
40464SOL    HW223226  11.476  12.478   4.388
40465SOL     OW23227   2.486   2.063  11.041
40465SOL    HW123228   2.461   2.058  11.133
40465SOL    HW223229   2.504   2.156  11.026
40466SOL     OW23230  13.746   4.100   3.400
40466SOL    HW123231  13.777   4.154   3.473
40466SOL    HW223232  13.755   4.010   3.432
40467SOL     OW23233   5.270   1.265   4.659
40467SOL    HW123234   5.310   1.328   4.599
40467SOL    HW223235   5.335   1.253   4.727
40468SOL     OW23236   2.968   4.479  14.458
40468SOL    HW123237   2.884   4.468  14.501
40468SOL    HW223238   2.975   4.405  14.398
40469SOL     OW23239   6.403   6.237   8.324
40469SOL    HW123240   6.400   6.143   8.338
40469SOL    HW223241   6.333   6.272   8.380
40470SOL     OW23242   0.607   9.611  11.361
40470SOL    HW123243   0.664   9.540  11.390
40470SOL    HW223244   0.594   9.594  11.268
40471SOL     OW23245   0.462   8.595  13.822
40471SOL    HW123246   0.462   8.586  13.918
40471SOL    HW223247   0.511   8.519  13.791
40472SOL     OW23248   8.161   8.910  11.914
40472SOL    HW123249   8.106   8.987  11.927
40472SOL    HW223250   8.217   8.933  11.840
40473SOL     OW23251  12.446  13.085  10.302
40473SOL    HW123252  12.520  13.040  10.343
40473SOL    HW223253  12.372  13.026  10.315
40474SOL     OW23254  14.732   4.123  12.319
40474SOL    HW123255  14.713   4.039  12.276
40474SOL    HW223256  14.683   4.120  12.400
40475SOL     OW23257  12.956   4.282   2.140
40475SOL    HW123258  12.886   4.346   2.123
40475SOL    HW223259  12.994   4.265   2.053
40476SOL     OW23260   1.905   8.322  12.415
40476SOL    HW123261   1.855   8.359  12.487
40476SOL    HW223262   1.967   8.391  12.390
40477SOL     OW23263   5.919   3.264  10.927
40477SOL    HW123264   5.924   3.295  11.018
40477SOL    HW223265   6.004   3.287  10.889
40478SOL     OW23266   1.639   6.440   0.404
40478SOL    HW123267   1.723   6.406   0.373
40478SOL    HW223268   1.661   6.525   0.443
40479SOL     OW23269   1.089  12.445   6.607
40479SOL    HW123270   0.995  12.463   6.602
40479SOL    HW223271   1.095  12.362   6.654
40480SOL     OW23272  14.720   5.694   9.346
40480SOL    HW123273  14.717   5.770   9.287
40480SOL    HW223274  14.629   5.664   9.350
40481SOL     OW23275   6.841  11.714  12.013
40481SOL    HW123276   6.765  11.761  11.980
40481SOL    HW223277   6.875  11.668  11.937
40482SOL     OW23278   1.885  11.762   0.572
40482SOL    HW123279   1.831  11.715   0.509
40482SOL    HW223280   1.973  11.724   0.562
40483SOL     OW23281   7.951  13.560  14.177
40483SOL    HW123282   7.943  13.654  14.162
40483SOL    HW223283   8.040  13.549  14.211
40484SOL     OW23284   0.771   3.191   8.246
40484SOL    HW123285   0.721   3.131   8.190
40484SOL    HW223286   0.832   3.234   8.187
40485SOL     OW23287   0.342   4.513   1.541
40485SOL    HW123288   0.292   4.563   1.477
40485SOL    HW223289   0.281   4.446   1.572
40486SOL     OW23290  12.183   4.512   3.834
40486SOL    HW123291  12.207   4.571   3.763
40486SOL    HW223292  12.089   4.498   3.822
40487SOL     OW23293   8.395   8.655   4.817
40487SOL    HW123294   8.413   8.749   4.822
40487SOL    HW223295   8.371   8.631   4.907
40488SOL     OW23296   4.590   9.776   9.028
40488SOL    HW123297   4.594   9.849   9.089
40488SOL    HW223298   4.625   9.702   9.077
40489SOL     OW23299   5.725  13.472  10.443
40489SOL    HW123300   5.634  13.485  10.416
40489SOL    HW223301   5.776  13.519  10.378
40490SOL     OW23302  11.984  12.657   2.581
40490SOL    HW123303  12.048  12.721   2.552
40490SOL    HW223304  11.899  12.696   2.558
40491SOL     OW23305  10.555   2.674   6.621
40491SOL    HW123306  10.566   2.629   6.705
40491SOL    HW223307  10.630   2.646   6.568
40492SOL     OW23308   9.704  14.293   0.092
40492SOL    HW123309   9.799  14.289   0.079
40492SOL    HW223310   9.672  14.210   0.057
40493SOL     OW23311   8.250  11.715  10.452
40493SOL    HW123312   8.281  11.788  10.398
40493SOL    HW223313   8.206  11.757  10.526
40494SOL     OW23314   8.823   9.049   6.006
40494SOL    HW123315   8.849   9.097   6.085
40494SOL    HW223316   8.836   8.957   6.029
40495SOL     OW23317  11.659  14.800  14.047
40495SOL    HW123318  11.741  14.814  14.095
40495SOL    HW223319  11.683  14.815  13.955
40496SOL     OW23320   8.416   1.979   2.225
40496SOL    HW123321   8.496   1.929   2.238
40496SOL    HW223322   8.430   2.060   2.273
40497SOL     OW23323   4.389   4.483   3.983
40497SOL    HW123324   4.303   4.445   3.998
40497SOL    HW223325   4.400   4.483   3.888
40498SOL     OW23326   5.036   6.119   4.564
40498SOL    HW123327   4.951   6.077   4.579
40498SOL    HW223328   5.094   6.078   4.628
40499SOL     OW23329  10.633   2.283   1.770
40499SOL    HW123330  10.604   2.263   1.681
40499SOL    HW223331  10.701   2.349   1.758
40500SOL     OW23332  11.308   0.532  13.167
40500SOL    HW123333  11.365   0.515  13.241
40500SOL    HW223334  11.305   0.449  13.119
40501SOL     OW23335   7.562  14.225   3.308
40501SOL    HW123336   7.592  14.213   3.218
40501SOL    HW223337   7.625  14.287   3.346
40502SOL     OW23338   9.367   9.703  13.430
40502SOL    HW123339   9.273   9.719  13.444
40502SOL    HW223340   9.396   9.776  13.376
40503SOL     OW23341  13.321   8.135   3.316
40503SOL    HW123342  13.351   8.134   3.225
40503SOL    HW223343  13.340   8.224   3.346
40504SOL     OW23344   8.584   1.824  13.711
40504SOL    HW123345   8.491   1.815  13.691
40504SOL    HW223346   8.587   1.884  13.786
40505SOL     OW23347   4.889   0.608   6.881
40505SOL    HW123348   4.976   0.644   6.867
40505SOL    HW223349   4.904   0.514   6.893
40506SOL     OW23350   6.867   5.502  14.682
40506SOL    HW123351   6.802   5.553  14.731
40506SOL    HW223352   6.873   5.547  14.598
40507SOL     OW23353  11.092  12.328   1.014
40507SOL    HW123354  11.048  12.413   1.003
40507SOL    HW223355  11.059  12.275   0.942
40508SOL     OW23356   1.483   6.087  14.004
40508SOL    HW123357   1.434   6.025  13.950
40508SOL    HW223358   1.419   6.154  14.027
40509SOL     OW23359   0.582   7.927  12.161
40509SOL    HW123360   0.503   7.898  12.115
40509SOL    HW223361   0.633   7.971  12.093
40510SOL     OW23362   5.783  12.149  14.379
40510SOL    HW123363   5.785  12.060  14.413
40510SOL    HW223364   5.691  12.176  14.386
40511SOL     OW23365  13.906  12.400  12.414
40511SOL    HW123366  13.966  12.381  12.342
40511SOL    HW223367  13.957  12.455  12.473
40512SOL     OW23368  10.110   7.498   1.630
40512SOL    HW123369  10.151   7.561   1.570
40512SOL    HW223370  10.021   7.488   1.597
40513SOL     OW23371   2.043   9.012   7.324
40513SOL    HW123372   2.114   9.000   7.387
40513SOL    HW223373   2.080   9.068   7.255
40514SOL     OW23374   4.645   8.200   5.674
40514SOL    HW123375   4.737   8.196   5.701
40514SOL    HW223376   4.597   8.221   5.754
40515SOL     OW23377  10.615   0.149  10.497
40515SOL    HW123378  10.532   0.183  10.463
40515SOL    HW223379  10.632   0.071  10.444
40516SOL     OW23380   3.818   7.364  12.514
40516SOL    HW123381   3.891   7.317  12.553
40516SOL    HW223382   3.859   7.428  12.456
40517SOL     OW23383  13.611  11.438  12.330
40517SOL    HW123384  13.594  11.485  12.412
40517SOL    HW223385  13.532  11.452  12.278
40518SOL     OW23386  12.950   1.666   0.439
40518SOL    HW123387  13.025   1.618   0.475
40518SOL    HW223388  12.878   1.603   0.441
40519SOL     OW23389   0.729   8.190   3.312
40519SOL    HW123390   0.807   8.186   3.256
40519SOL    HW223391   0.763   8.209   3.399
40520SOL     OW23392   4.623   6.614  14.265
40520SOL    HW123393   4.544   6.641  14.312
40520SOL    HW223394   4.600   6.530  14.225
40521SOL     OW23395   7.041   5.326   1.152
40521SOL    HW123396   6.994   5.272   1.215
40521SOL    HW223397   6.978   5.393   1.127
40522SOL     OW23398   1.152   9.726   7.605
40522SOL    HW123399   1.167   9.776   7.525
40522SOL    HW223400   1.058   9.733   7.620
40523SOL     OW23401   1.192   7.284  14.817
40523SOL    HW123402   1.218   7.370  14.853
40523SOL    HW223403   1.238   7.278  14.734
40524SOL     OW23404   6.750   6.021   2.293
40524SOL    HW123405   6.733   5.929   2.314
40524SOL    HW223406   6.671   6.067   2.319
40525SOL     OW23407   1.402   8.394  12.682
40525SOL    HW123408   1.426   8.452  12.610
40525SOL    HW223409   1.390   8.308  12.641
40526SOL     OW23410   9.423  10.299   9.762
40526SOL    HW123411   9.332  10.277   9.780
40526SOL    HW223412   9.433  10.286   9.668
40527SOL     OW23413   0.448  11.337   1.113
40527SOL    HW123414   0.517  11.354   1.177
40527SOL    HW223415   0.375  11.304   1.165
40528SOL     OW23416  10.493   3.115  12.310
40528SOL    HW123417  10.468   3.206  12.325
40528SOL    HW223418  10.414   3.073  12.277
40529SOL     OW23419   8.801   0.983   1.067
40529SOL    HW123420   8.800   0.970   1.162
40529SOL    HW223421   8.808   1.078   1.056
40530SOL     OW23422   6.692   1.850   0.686
40530SOL    HW123423   6.782   1.867   0.656
40530SOL    HW223424   6.698   1.768   0.735
40531SOL     OW23425  11.856  13.554   0.657
40531SOL    HW123426  11.796  13.550   0.582
40531SOL    HW223427  11.808  13.513   0.729
40532SOL     OW23428  11.816   3.128  14.035
40532SOL    HW123429  11.848   3.082  14.113
40532SOL    HW223430  11.822   3.063  13.965
40533SOL     OW23431  12.316   3.412   9.196
40533SOL    HW123432  12.229   3.379   9.221
40533SOL    HW223433  12.325   3.493   9.246
40534SOL     OW23434   3.532   5.079   4.089
40534SOL    HW123435   3.469   5.034   4.034
40534SOL    HW223436   3.578   5.138   4.030
40535SOL     OW23437  10.905   3.697   1.977
40535SOL    HW123438  10.990   3.678   1.937
40535SOL    HW223439  10.900   3.637   2.052
40536SOL     OW23440   0.582   8.674   0.011
40536SOL    HW123441   0.676   8.685  14.865
40536SOL    HW223442   0.538   8.732  14.823
40537SOL     OW23443  12.119   2.533  12.330
40537SOL    HW123444  12.106   2.492  12.416
40537SOL    HW223445  12.033   2.528  12.288
40538SOL     OW23446   1.524   1.237   3.195
40538SOL    HW123447   1.460   1.211   3.262
40538SOL    HW223448   1.588   1.167   3.194
40539SOL     OW23449  13.406   9.606  14.060
40539SOL    HW123450  13.313   9.628  14.064
40539SOL    HW223451  13.408   9.510  14.062
40540SOL     OW23452   6.238   4.574  10.439
40540SOL    HW123453   6.218   4.562  10.346
40540SOL    HW223454   6.163   4.534  10.485
40541SOL     OW23455   1.388   9.687  13.388
40541SOL    HW123456   1.404   9.747  13.460
40541SOL    HW223457   1.464   9.698  13.331
40542SOL     OW23458  10.368   2.219   1.471
40542SOL    HW123459  10.450   2.205   1.423
40542SOL    HW223460  10.308   2.255   1.405
40543SOL     OW23461   8.029   7.146   1.869
40543SOL    HW123462   8.103   7.136   1.929
40543SOL    HW223463   8.029   7.066   1.816
40544SOL     OW23464   2.799  10.865   6.559
40544SOL    HW123465   2.880  10.897   6.601
40544SOL    HW223466   2.785  10.779   6.598
40545SOL     OW23467  10.845  14.016  13.779
40545SOL    HW123468  10.752  14.024  13.759
40545SOL    HW223469  10.883  13.973  13.702
40546SOL     OW23470  14.497   2.818   1.165
40546SOL    HW123471  14.522   2.732   1.131
40546SOL    HW223472  14.524   2.880   1.097
40547SOL     OW23473  12.516   2.528   3.693
40547SOL    HW123474  12.564   2.452   3.727
40547SOL    HW223475  12.510   2.512   3.599
40548SOL     OW23476  10.217   6.460   5.157
40548SOL    HW123477  10.195   6.464   5.251
40548SOL    HW223478  10.246   6.370   5.143
40549SOL     OW23479   5.119  11.270   7.702
40549SOL    HW123480   5.180  11.240   7.769
40549SOL    HW223481   5.117  11.365   7.713
40550SOL     OW23482   8.008  11.591   4.746
40550SOL    HW123483   8.044  11.653   4.809
40550SOL    HW223484   7.982  11.515   4.798
40551SOL     OW23485  13.494   7.013   5.492
40551SOL    HW123486  13.523   6.972   5.574
40551SOL    HW223487  13.450   6.943   5.445
40552SOL     OW23488  12.027   9.683   7.060
40552SOL    HW123489  12.081   9.617   7.017
40552SOL    HW223490  11.982   9.727   6.988
40553SOL     OW23491   9.027  12.067   5.888
40553SOL    HW123492   9.012  12.161   5.898
40553SOL    HW223493   9.108  12.051   5.936
40554SOL     OW23494   3.103   7.258   6.199
40554SOL    HW123495   3.184   7.209   6.213
40554SOL    HW223496   3.105   7.327   6.265
40555SOL     OW23497  13.692   5.347   1.119
40555SOL    HW123498  13.693   5.287   1.044
40555SOL    HW223499  13.650   5.297   1.189
40556SOL     OW23500   6.930  14.051   6.879
40556SOL    HW123501   6.937  14.114   6.808
40556SOL    HW223502   7.020  14.029   6.901
40557SOL     OW23503   1.310   2.021   9.278
40557SOL    HW123504   1.329   2.104   9.232
40557SOL    HW223505   1.396   1.989   9.304
40558SOL     OW23506  11.357  10.044   5.382
40558SOL    HW123507  11.401  10.120   5.418
40558SOL    HW223508  11.317  10.075   5.301
40559SOL     OW23509   3.250  14.237   7.972
40559SOL    HW123510   3.260  14.230   7.877
40559SOL    HW223511   3.275  14.328   7.992
40560SOL     OW23512   2.010  11.200  11.790
40560SOL    HW123513   2.099  11.229  11.772
40560SOL    HW223514   2.020  11.107  11.812
40561SOL     OW23515   9.315  12.838   4.304
40561SOL    HW123516   9.224  12.810   4.310
40561SOL    HW223517   9.355  12.776   4.244
40562SOL     OW23518   1.177   4.696  14.417
40562SOL    HW123519   1.236   4.632  14.379
40562SOL    HW223520   1.205   4.780  14.380
40563SOL     OW23521   3.906   7.939  11.017
40563SOL    HW123522   3.952   7.859  10.992
40563SOL    HW223523   3.931   8.003  10.951
40564SOL     OW23524   1.619   4.106   6.572
40564SOL    HW123525   1.689   4.163   6.541
40564SOL    HW223526   1.554   4.108   6.503
40565SOL     OW23527   2.777   1.273  11.196
40565SOL    HW123528   2.866   1.245  11.178
40565SOL    HW223529   2.742   1.299  11.110
40566SOL     OW23530   9.523   9.476  14.562
40566SOL    HW123531   9.541   9.429  14.480
40566SOL    HW223532   9.516   9.568  14.536
40567SOL     OW23533  11.119   7.392   7.348
40567SOL    HW123534  11.193   7.351   7.303
40567SOL    HW223535  11.146   7.396   7.440
40568SOL     OW23536  10.160  11.305   6.725
40568SOL    HW123537  10.245  11.339   6.699
40568SOL    HW223538  10.097  11.357   6.675
40569SOL     OW23539   1.309   7.570  13.784
40569SOL    HW123540   1.349   7.625  13.851
40569SOL    HW223541   1.334   7.610  13.701
40570SOL     OW23542   6.260  12.609   1.227
40570SOL    HW123543   6.173  12.575   1.245
40570SOL    HW223544   6.315  12.531   1.221
40571SOL     OW23545  13.042   5.043  10.551
40571SOL    HW123546  13.110   4.980  10.526
40571SOL    HW223547  13.079   5.128  10.525
40572SOL     OW23548  12.762   1.359   8.131
40572SOL    HW123549  12.674   1.322   8.130
40572SOL    HW223550  12.820   1.285   8.149
40573SOL     OW23551   2.838   6.416   9.314
40573SOL    HW123552   2.825   6.435   9.407
40573SOL    HW223553   2.786   6.483   9.269
40574SOL     OW23554  11.279  11.447   6.234
40574SOL    HW123555  11.309  11.378   6.175
40574SOL    HW223556  11.343  11.446   6.306
40575SOL     OW23557   5.209   2.503   7.366
40575SOL    HW123558   5.229   2.559   7.441
40575SOL    HW223559   5.261   2.540   7.295
40576SOL     OW23560   9.500   8.176  10.268
40576SOL    HW123561   9.537   8.168  10.356
40576SOL    HW223562   9.484   8.086  10.241
40577SOL     OW23563   6.828   5.087   5.965
40577SOL    HW123564   6.874   5.122   6.041
40577SOL    HW223565   6.741   5.067   5.997
40578SOL     OW23566   4.311   7.655  13.701
40578SOL    HW123567   4.335   7.649  13.608
40578SOL    HW223568   4.235   7.713  13.703
40579SOL     OW23569   5.941   1.363   8.085
40579SOL    HW123570   5.977   1.357   8.173
40579SOL    HW223571   5.900   1.277   8.071
40580SOL     OW23572   3.014   2.619   2.910
40580SOL    HW123573   2.980   2.567   2.837
40580SOL    HW223574   3.059   2.692   2.867
40581SOL     OW23575   8.805   3.980   2.769
40581SOL    HW123576   8.870   3.945   2.708
40581SOL    HW223577   8.741   4.024   2.712
40582SOL     OW23578  11.876  12.111  12.264
40582SOL    HW123579  11.856  12.043  12.200
40582SOL    HW223580  11.810  12.179  12.247
40583SOL     OW23581  14.362   1.799   4.708
40583SOL    HW123582  14.343   1.716   4.664
40583SOL    HW223583  14.352   1.779   4.801
40584SOL     OW23584   4.446   6.000  11.343
40584SOL    HW123585   4.401   6.056  11.280
40584SOL    HW223586   4.530   5.979  11.302
40585SOL     OW23587   4.125   3.861   2.992
40585SOL    HW123588   4.083   3.821   2.915
40585SOL    HW223589   4.204   3.810   3.006
40586SOL     OW23590   6.232  14.765   8.394
40586SOL    HW123591   6.260  14.856   8.392
40586SOL    HW223592   6.144  14.766   8.357
40587SOL     OW23593   6.466  13.418   7.602
40587SOL    HW123594   6.501  13.345   7.551
40587SOL    HW223595   6.533  13.486   7.597
40588SOL     OW23596  11.107   1.010   3.989
40588SOL    HW123597  11.036   1.028   3.928
40588SOL    HW223598  11.075   0.935   4.040
40589SOL     OW23599   4.236   8.537  12.675
40589SOL    HW123600   4.243   8.448  12.640
40589SOL    HW223601   4.154   8.538  12.723
40590SOL     OW23602   4.775   8.121   7.932
40590SOL    HW123603   4.832   8.047   7.953
40590SOL    HW223604   4.821   8.167   7.862
40591SOL     OW23605   1.083   3.306   8.781
40591SOL    HW123606   1.171   3.280   8.756
40591SOL    HW223607   1.095   3.358   8.861
40592SOL     OW23608   3.942  10.666   6.513
40592SOL    HW123609   4.009  10.712   6.564
40592SOL    HW223610   3.872  10.730   6.503
40593SOL     OW23611  12.421  10.781   9.653
40593SOL    HW123612  12.492  10.716   9.656
40593SOL    HW223613  12.416  10.807   9.561
40594SOL     OW23614   0.136   7.269   7.228
40594SOL    HW123615   0.071   7.226   7.283
40594SOL    HW223616   0.168   7.342   7.280
40595SOL     OW23617   8.194  11.958  12.447
40595SOL    HW123618   8.201  11.961  12.351
40595SOL    HW223619   8.225  11.871  12.471
40596SOL     OW23620   3.162   2.821   4.010
40596SOL    HW123621   3.171   2.740   3.961
40596SOL    HW223622   3.173   2.890   3.945
40597SOL     OW23623   1.010  11.523   4.214
40597SOL    HW123624   0.926  11.490   4.183
40597SOL    HW223625   1.007  11.617   4.196
40598SOL     OW23626   1.922   9.267   8.613
40598SOL    HW123627   1.881   9.183   8.591
40598SOL    HW223628   1.993   9.245   8.673
40599SOL     OW23629   3.213   2.988  12.889
40599SOL    HW123630   3.244   3.047  12.957
40599SOL    HW223631   3.291   2.968  12.837
40600SOL     OW23632   5.780   6.283   1.411
40600SOL    HW123633   5.723   6.227   1.463
40600SOL    HW223634   5.868   6.268   1.447
40601SOL     OW23635   4.213  14.021  13.722
40601SOL    HW123636   4.118  14.012  13.731
40601SOL    HW223637   4.230  14.115  13.731
40602SOL     OW23638  11.339   1.822  14.392
40602SOL    HW123639  11.392   1.745  14.414
40602SOL    HW223640  11.251   1.801  14.425
40603SOL     OW23641  13.910   8.392   8.359
40603SOL    HW123642  13.960   8.389   8.440
40603SOL    HW223643  13.972   8.423   8.293
40604SOL     OW23644   0.806   1.051   2.282
40604SOL    HW123645   0.752   1.097   2.218
40604SOL    HW223646   0.776   1.083   2.367
40605SOL     OW23647  13.620  13.991   1.010
40605SOL    HW123648  13.705  14.025   0.984
40605SOL    HW223649  13.557  14.053   0.974
40606SOL     OW23650   4.454   4.292   1.708
40606SOL    HW123651   4.397   4.241   1.651
40606SOL    HW223652   4.518   4.332   1.649
40607SOL     OW23653   3.018  13.196  10.881
40607SOL    HW123654   2.995  13.207  10.789
40607SOL    HW223655   2.961  13.258  10.927
40608SOL     OW23656   3.744   4.637   9.231
40608SOL    HW123657   3.802   4.561   9.228
40608SOL    HW223658   3.717   4.643   9.322
40609SOL     OW23659  11.328  10.752  14.033
40609SOL    HW123660  11.345  10.800  14.114
40609SOL    HW223661  11.238  10.774  14.011
40610SOL     OW23662   9.956   7.421   8.227
40610SOL    HW123663   9.920   7.370   8.155
40610SOL    HW223664   9.941   7.512   8.202
40611SOL     OW23665  14.370  13.693   7.919
40611SOL    HW123666  14.380  13.738   8.003
40611SOL    HW223667  14.288  13.729   7.883
40612SOL     OW23668   9.295   6.640  14.720
40612SOL    HW123669   9.246   6.598  14.650
40612SOL    HW223670   9.228   6.677  14.778
40613SOL     OW23671   0.243   8.383   2.111
40613SOL    HW123672   0.179   8.315   2.132
40613SOL    HW223673   0.191   8.463   2.105
40614SOL     OW23674   3.058   1.494  10.856
40614SOL    HW123675   3.052   1.474  10.763
40614SOL    HW223676   3.031   1.585  10.863
40615SOL     OW23677   9.471   1.549   7.291
40615SOL    HW123678   9.523   1.595   7.357
40615SOL    HW223679   9.394   1.605   7.278
40616SOL     OW23680   0.286   4.155   6.220
40616SOL    HW123681   0.239   4.127   6.142
40616SOL    HW223682   0.364   4.199   6.187
40617SOL     OW23683   5.355   5.601   4.883
40617SOL    HW123684   5.381   5.665   4.949
40617SOL    HW223685   5.309   5.652   4.817
40618SOL     OW23686   2.932   4.967   2.514
40618SOL    HW123687   2.854   4.919   2.486
40618SOL    HW223688   2.916   4.985   2.606
40619SOL     OW23689   6.656  14.402   4.944
40619SOL    HW123690   6.728  14.364   4.892
40619SOL    HW223691   6.686  14.395   5.035
40620SOL     OW23692   3.657   6.734   1.196
40620SOL    HW123693   3.748   6.744   1.168
40620SOL    HW223694   3.642   6.808   1.254
40621SOL     OW23695  11.467   9.509   7.705
40621SOL    HW123696  11.522   9.474   7.775
40621SOL    HW223697  11.449   9.599   7.732
40622SOL     OW23698   6.549   0.623  11.975
40622SOL    HW123699   6.454   0.636  11.984
40622SOL    HW223700   6.567   0.544  12.027
40623SOL     OW23701  14.290  14.847   6.203
40623SOL    HW123702  14.303  14.850   6.298
40623SOL    HW223703  14.330   0.056   6.171
40624SOL     OW23704   8.521   6.991   6.032
40624SOL    HW123705   8.492   7.081   6.015
40624SOL    HW223706   8.487   6.941   5.958
40625SOL     OW23707   5.923  11.870  10.215
40625SOL    HW123708   5.839  11.883  10.170
40625SOL    HW223709   5.955  11.786  10.183
40626SOL     OW23710   3.375  13.732  14.083
40626SOL    HW123711   3.300  13.696  14.130
40626SOL    HW223712   3.399  13.811  14.132
40627SOL     OW23713   6.419   7.278  11.017
40627SOL    HW123714   6.429   7.294  11.110
40627SOL    HW223715   6.482   7.337  10.975
40628SOL     OW23716   0.168   1.204   7.768
40628SOL    HW123717   0.109   1.134   7.795
40628SOL    HW223718   0.204   1.174   7.684
40629SOL     OW23719   6.295  11.157   5.566
40629SOL    HW123720   6.200  11.160   5.568
40629SOL    HW223721   6.319  11.189   5.479
40630SOL     OW23722   0.254   4.250   8.402
40630SOL    HW123723   0.187   4.241   8.469
40630SOL    HW223724   0.256   4.344   8.382
40631SOL     OW23725   9.698  10.538   1.952
40631SOL    HW123726   9.613  10.531   1.996
40631SOL    HW223727   9.755  10.478   2.000
40632SOL     OW23728  11.364  11.488   7.950
40632SOL    HW123729  11.436  11.490   7.887
40632SOL    HW223730  11.349  11.395   7.966
40633SOL     OW23731  11.696   8.897  12.296
40633SOL    HW123732  11.740   8.815  12.321
40633SOL    HW223733  11.768   8.957  12.275
40634SOL     OW23734   3.214   7.041  10.305
40634SOL    HW123735   3.280   7.000  10.248
40634SOL    HW223736   3.221   7.134  10.285
40635SOL     OW23737   3.527   0.069   2.059
40635SOL    HW123738   3.479   0.152   2.054
40635SOL    HW223739   3.490   0.016   1.988
40636SOL     OW23740  10.222  13.995   4.384
40636SOL    HW123741  10.242  13.929   4.317
40636SOL    HW223742  10.308  14.028   4.411
40637SOL     OW23743  12.931   1.467   9.394
40637SOL    HW123744  12.863   1.522   9.356
40637SOL    HW223745  12.891   1.379   9.396
40638SOL     OW23746   4.104   0.454   7.150
40638SOL    HW123747   4.175   0.446   7.214
40638SOL    HW223748   4.136   0.519   7.087
40639SOL     OW23749  12.497   6.565  10.611
40639SOL    HW123750  12.432   6.497  10.627
40639SOL    HW223751  12.453   6.646  10.637
40640SOL     OW23752  13.228   0.431  12.316
40640SOL    HW123753  13.280   0.447  12.237
40640SOL    HW223754  13.254   0.344  12.345
40641SOL     OW23755   2.317  13.819   5.853
40641SOL    HW123756   2.250  13.858   5.797
40641SOL    HW223757   2.320  13.876   5.930
40642SOL     OW23758  14.449  11.285   5.990
40642SOL    HW123759  14.417  11.198   5.967
40642SOL    HW223760  14.377  11.325   6.039
40643SOL     OW23761   3.445  14.029  14.834
40643SOL    HW123762   3.500  14.023   0.039
40643SOL    HW223763   3.399  13.945  14.829
40644SOL     OW23764   1.778  13.316   2.290
40644SOL    HW123765   1.858  13.265   2.305
40644SOL    HW223766   1.756  13.351   2.377
40645SOL     OW23767   9.305  14.852  11.627
40645SOL    HW123768   9.359  14.772  11.624
40645SOL    HW223769   9.337   0.027  11.703
40646SOL     OW23770   9.166   2.061   8.903
40646SOL    HW123771   9.185   1.978   8.948
40646SOL    HW223772   9.196   2.128   8.963
40647SOL     OW23773   4.967   3.023  12.989
40647SOL    HW123774   4.874   3.024  13.012
40647SOL    HW223775   4.979   3.099  12.932
40648SOL     OW23776   8.502   5.596   1.748
40648SOL    HW123777   8.430   5.576   1.689
40648SOL    HW223778   8.485   5.686   1.777
40649SOL     OW23779   6.620  12.765   5.197
40649SOL    HW123780   6.617  12.860   5.205
40649SOL    HW223781   6.550  12.734   5.255
40650SOL     OW23782  11.373   1.901   4.245
40650SOL    HW123783  11.298   1.925   4.300
40650SOL    HW223784  11.343   1.917   4.155
40651SOL     OW23785  11.646  11.007   2.075
40651SOL    HW123786  11.654  11.046   2.162
40651SOL    HW223787  11.556  10.975   2.071
40652SOL     OW23788  12.777  13.180   3.736
40652SOL    HW123789  12.703  13.124   3.760
40652SOL    HW223790  12.754  13.213   3.648
40653SOL     OW23791   3.708   7.957   5.018
40653SOL    HW123792   3.732   7.972   5.109
40653SOL    HW223793   3.771   7.891   4.988
40654SOL     OW23794   2.634   1.484  11.780
40654SOL    HW123795   2.576   1.429  11.727
40654SOL    HW223796   2.711   1.497  11.725
40655SOL     OW23797  14.013   7.472  10.158
40655SOL    HW123798  13.928   7.456  10.199
40655SOL    HW223799  13.995   7.538  10.091
40656SOL     OW23800  11.568  12.848   2.452
40656SOL    HW123801  11.602  12.908   2.386
40656SOL    HW223802  11.601  12.881   2.535
40657SOL     OW23803  12.534   9.686  12.430
40657SOL    HW123804  12.497   9.599  12.416
40657SOL    HW223805  12.461   9.739  12.460
40658SOL     OW23806   2.250   7.210   9.622
40658SOL    HW123807   2.213   7.222   9.534
40658SOL    HW223808   2.183   7.161   9.670
40659SOL     OW23809   2.336  11.117  10.629
40659SOL    HW123810   2.392  11.039  10.629
40659SOL    HW223811   2.397  11.191  10.630
40660SOL     OW23812  14.171   8.013   1.588
40660SOL    HW123813  14.202   7.961   1.662
40660SOL    HW223814  14.144   7.948   1.523
40661SOL     OW23815  11.491  11.673   7.707
40661SOL    HW123816  11.431  11.667   7.633
40661SOL    HW223817  11.577  11.688   7.667
40662SOL     OW23818   3.883   2.271   2.576
40662SOL    HW123819   3.827   2.216   2.631
40662SOL    HW223820   3.840   2.269   2.490
40663SOL     OW23821  11.999   4.898   1.255
40663SOL    HW123822  11.969   4.926   1.342
40663SOL    HW223823  11.919   4.880   1.207
40664SOL     OW23824   0.535  10.334   1.713
40664SOL    HW123825   0.610  10.315   1.770
40664SOL    HW223826   0.472  10.264   1.732
40665SOL     OW23827   7.286   8.851  11.306
40665SOL    HW123828   7.362   8.820  11.255
40665SOL    HW223829   7.316   8.931  11.348
40666SOL     OW23830   7.473   2.723   9.487
40666SOL    HW123831   7.445   2.666   9.415
40666SOL    HW223832   7.436   2.683   9.566
40667SOL     OW23833  12.811   9.078   1.468
40667SOL    HW123834  12.767   9.062   1.551
40667SOL    HW223835  12.832   9.172   1.470
40668SOL     OW23836   7.167   3.454   3.964
40668SOL    HW123837   7.097   3.419   3.910
40668SOL    HW223838   7.136   3.541   3.991
40669SOL     OW23839   6.442  11.565   5.458
40669SOL    HW123840   6.516  11.505   5.460
40669SOL    HW223841   6.480  11.651   5.479
40670SOL     OW23842   6.820  10.200   7.967
40670SOL    HW123843   6.758  10.272   7.957
40670SOL    HW223844   6.782  10.145   8.036
40671SOL     OW23845   8.690   1.200   4.261
40671SOL    HW123846   8.614   1.181   4.316
40671SOL    HW223847   8.652   1.220   4.175
40672SOL     OW23848   8.103   9.436   8.374
40672SOL    HW123849   8.194   9.449   8.399
40672SOL    HW223850   8.100   9.346   8.339
40673SOL     OW23851   8.662  11.047  13.263
40673SOL    HW123852   8.594  11.004  13.315
40673SOL    HW223853   8.621  11.128  13.232
40674SOL     OW23854  10.944  12.498   8.899
40674SOL    HW123855  10.907  12.411   8.884
40674SOL    HW223856  10.890  12.557   8.847
40675SOL     OW23857  12.789  11.227   4.046
40675SOL    HW123858  12.761  11.154   4.100
40675SOL    HW223859  12.708  11.268   4.016
40676SOL     OW23860   6.523   2.720  10.387
40676SOL    HW123861   6.472   2.648  10.349
40676SOL    HW223862   6.501   2.796  10.334
40677SOL     OW23863  14.620   3.350  10.104
40677SOL    HW123864  14.598   3.291  10.032
40677SOL    HW223865  14.537   3.366  10.148
40678SOL     OW23866   6.374   6.623   8.008
40678SOL    HW123867   6.345   6.533   8.022
40678SOL    HW223868   6.445   6.616   7.945
40679SOL     OW23869  10.523  13.802   4.308
40679SOL    HW123870  10.562  13.777   4.224
40679SOL    HW223871  10.429  13.795   4.294
40680SOL     OW23872  11.679   3.813  10.338
40680SOL    HW123873  11.637   3.777  10.260
40680SOL    HW223874  11.736   3.742  10.369
40681SOL     OW23875  14.103  10.869   9.611
40681SOL    HW123876  14.157  10.903   9.683
40681SOL    HW223877  14.051  10.944   9.583
40682SOL     OW23878  11.489   6.302  10.249
40682SOL    HW123879  11.508   6.227  10.305
40682SOL    HW223880  11.409   6.277  10.203
40683SOL     OW23881   4.621   3.093  12.352
40683SOL    HW123882   4.567   3.040  12.294
40683SOL    HW223883   4.559   3.141  12.407
40684SOL     OW23884   8.818   1.950   4.678
40684SOL    HW123885   8.844   2.038   4.651
40684SOL    HW223886   8.745   1.963   4.738
40685SOL     OW23887   5.820   7.688  13.268
40685SOL    HW123888   5.828   7.682  13.173
40685SOL    HW223889   5.727   7.676  13.286
40686SOL     OW23890   9.742  12.267  13.764
40686SOL    HW123891   9.712  12.197  13.707
40686SOL    HW223892   9.698  12.250  13.848
40687SOL     OW23893   5.200  10.405   9.198
40687SOL    HW123894   5.198  10.494   9.232
40687SOL    HW223895   5.109  10.386   9.174
40688SOL     OW23896  10.583   6.961   2.260
40688SOL    HW123897  10.666   6.913   2.261
40688SOL    HW223898  10.609   7.053   2.261
40689SOL     OW23899   3.073  11.859   1.739
40689SOL    HW123900   3.068  11.784   1.680
40689SOL    HW223901   3.005  11.842   1.805
40690SOL     OW23902   8.862   1.089  12.467
40690SOL    HW123903   8.928   1.156  12.448
40690SOL    HW223904   8.904   1.007  12.442
40691SOL     OW23905   2.198   8.038   3.035
40691SOL    HW123906   2.117   8.046   2.985
40691SOL    HW223907   2.189   7.956   3.083
40692SOL     OW23908  13.569  10.495  13.611
40692SOL    HW123909  13.645  10.451  13.649
40692SOL    HW223910  13.496  10.469  13.667
40693SOL     OW23911   6.548   9.921  10.443
40693SOL    HW123912   6.632   9.875  10.454
40693SOL    HW223913   6.507   9.877  10.368
40694SOL     OW23914  14.539   0.009   1.297
40694SOL    HW123915  14.584  14.799   1.309
40694SOL    HW223916  14.607   0.076   1.305
40695SOL     OW23917   0.552   0.643   9.138
40695SOL    HW123918   0.488   0.703   9.100
40695SOL    HW223919   0.636   0.670   9.101
40696SOL     OW23920  11.279   6.918   1.127
40696SOL    HW123921  11.265   6.873   1.211
40696SOL    HW223922  11.372   6.904   1.108
40697SOL     OW23923   1.368   5.990   3.953
40697SOL    HW123924   1.319   5.916   3.989
40697SOL    HW223925   1.459   5.962   3.956
40698SOL     OW23926  12.748   6.982   8.913
40698SOL    HW123927  12.759   6.948   9.002
40698SOL    HW223928  12.659   6.957   8.889
40699SOL     OW23929  11.392  14.081   3.907
40699SOL    HW123930  11.458  14.088   3.977
40699SOL    HW223931  11.309  14.099   3.951
40700SOL     OW23932   7.992   2.964  13.195
40700SOL    HW123933   8.042   2.884  13.214
40700SOL    HW223934   7.901   2.938  13.201
40701SOL     OW23935   7.219   1.814   1.290
40701SOL    HW123936   7.266   1.747   1.339
40701SOL    HW223937   7.129   1.782   1.286
40702SOL     OW23938   1.807  10.670  10.386
40702SOL    HW123939   1.824  10.763  10.399
40702SOL    HW223940   1.724  10.668  10.338
40703SOL     OW23941   9.042   9.509   8.859
40703SOL    HW123942   9.078   9.598   8.864
40703SOL    HW223943   9.074   9.467   8.939
40704SOL     OW23944   2.882   9.242  13.156
40704SOL    HW123945   2.903   9.268  13.245
40704SOL    HW223946   2.794   9.205  13.162
40705SOL     OW23947  14.104   8.604   7.765
40705SOL    HW123948  14.150   8.673   7.716
40705SOL    HW223949  14.147   8.523   7.736
40706SOL     OW23950   1.491   5.699   8.445
40706SOL    HW123951   1.507   5.680   8.353
40706SOL    HW223952   1.396   5.705   8.452
40707SOL     OW23953  14.001  10.732  14.232
40707SOL    HW123954  13.930  10.692  14.181
40707SOL    HW223955  14.009  10.676  14.309
40708SOL     OW23956   0.335  12.331   2.468
40708SOL    HW123957   0.393  12.407   2.473
40708SOL    HW223958   0.270  12.346   2.536
40709SOL     OW23959  12.397   9.030  11.844
40709SOL    HW123960  12.342   8.988  11.911
40709SOL    HW223961  12.436   9.105  11.888
40710SOL     OW23962   5.692   5.486   8.404
40710SOL    HW123963   5.631   5.560   8.402
40710SOL    HW223964   5.665   5.430   8.331
40711SOL     OW23965   1.442   3.547   3.981
40711SOL    HW123966   1.461   3.565   4.073
40711SOL    HW223967   1.472   3.457   3.968
40712SOL     OW23968   6.421   4.830   3.917
40712SOL    HW123969   6.482   4.768   3.875
40712SOL    HW223970   6.336   4.810   3.877
40713SOL     OW23971   9.049   5.576   0.959
40713SOL    HW123972   9.054   5.480   0.962
40713SOL    HW223973   8.994   5.594   0.882
40714SOL     OW23974   8.432   5.918  12.544
40714SOL    HW123975   8.384   5.840  12.572
40714SOL    HW223976   8.524   5.896  12.562
40715SOL     OW23977   9.188   9.719  14.564
40715SOL    HW123978   9.217   9.636  14.602
40715SOL    HW223979   9.268   9.757  14.527
40716SOL     OW23980  12.550  12.793   7.574
40716SOL    HW123981  12.515  12.748   7.651
40716SOL    HW223982  12.474  12.801   7.515
40717SOL     OW23983   3.494   1.035   7.959
40717SOL    HW123984   3.472   1.126   7.938
40717SOL    HW223985   3.435   0.983   7.905
40718SOL     OW23986   6.994  14.154   4.646
40718SOL    HW123987   6.941  14.076   4.630
40718SOL    HW223988   7.083  14.128   4.623
40719SOL     OW23989  14.072   0.065  12.001
40719SOL    HW123990  14.084   0.030  12.089
40719SOL    HW223991  14.063  14.861  11.945
40720SOL     OW23992   6.068  11.644  13.153
40720SOL    HW123993   6.034  11.565  13.110
40720SOL    HW223994   6.161  11.626  13.165
40721SOL     OW23995  11.423   0.622  11.091
40721SOL    HW123996  11.472   0.542  11.069
40721SOL    HW223997  11.343   0.590  11.132
40722SOL     OW23998   3.174   6.791   5.769
40722SOL    HW123999   3.088   6.782   5.811
40722SOL    HW224000   3.196   6.703   5.740
40723SOL     OW24001   9.627   0.779  10.978
40723SOL    HW124002   9.583   0.850  11.025
40723SOL    HW224003   9.599   0.699  11.023
40724SOL     OW24004  12.034   9.390   1.871
40724SOL    HW124005  12.026   9.485   1.858
40724SOL    HW224006  11.943   9.358   1.869
40725SOL     OW24007   4.685   7.767   0.022
40725SOL    HW124008   4.632   7.835   0.063
40725SOL    HW224009   4.749   7.814  14.841
40726SOL     OW24010   1.467  12.572   2.482
40726SOL    HW124011   1.548  12.526   2.506
40726SOL    HW224012   1.425  12.592   2.565
40727SOL     OW24013   2.368   3.228  13.855
40727SOL    HW124014   2.420   3.186  13.924
40727SOL    HW224015   2.407   3.195  13.774
40728SOL     OW24016  12.686  11.378   6.505
40728SOL    HW124017  12.768  11.421   6.532
40728SOL    HW224018  12.693  11.371   6.410
40729SOL     OW24019   2.645   3.042   7.894
40729SOL    HW124020   2.581   2.974   7.874
40729SOL    HW224021   2.699   3.048   7.815
40730SOL     OW24022  11.302   2.116  13.341
40730SOL    HW124023  11.327   2.144  13.429
40730SOL    HW224024  11.383   2.117  13.291
40731SOL     OW24025   5.900  11.897   6.965
40731SOL    HW124026   5.873  11.808   6.988
40731SOL    HW224027   5.968  11.885   6.898
40732SOL     OW24028   5.268  10.707   8.000
40732SOL    HW124029   5.195  10.726   7.942
40732SOL    HW224030   5.326  10.783   7.993
40733SOL     OW24031   6.857  14.189   5.776
40733SOL    HW124032   6.838  14.264   5.720
40733SOL    HW224033   6.951  14.195   5.795
40734SOL     OW24034  14.158   2.912   0.227
40734SOL    HW124035  14.135   2.820   0.243
40734SOL    HW224036  14.245   2.922   0.266
40735SOL     OW24037   6.123   2.979  14.866
40735SOL    HW124038   6.039   3.020   0.015
40735SOL    HW224039   6.170   2.975   0.077
40736SOL     OW24040  12.626   4.259   7.882
40736SOL    HW124041  12.672   4.184   7.845
40736SOL    HW224042  12.554   4.276   7.822
40737SOL     OW24043   8.456   1.063  12.879
40737SOL    HW124044   8.487   0.994  12.821
40737SOL    HW224045   8.423   1.131  12.820
40738SOL     OW24046   1.337   4.632  13.605
40738SOL    HW124047   1.390   4.641  13.526
40738SOL    HW224048   1.247   4.632  13.572
40739SOL     OW24049   3.364   6.240   2.061
40739SOL    HW124050   3.300   6.285   2.116
40739SOL    HW224051   3.418   6.310   2.025
40740SOL     OW24052   3.841   4.193   0.945
40740SOL    HW124053   3.776   4.134   0.907
40740SOL    HW224054   3.805   4.280   0.934
40741SOL     OW24055  13.132  10.390  12.532
40741SOL    HW124056  13.193  10.440  12.479
40741SOL    HW224057  13.051  10.389  12.480
40742SOL     OW24058  10.350  14.441   0.332
40742SOL    HW124059  10.263  14.463   0.298
40742SOL    HW224060  10.371  14.357   0.290
40743SOL     OW24061  11.471  11.290  11.796
40743SOL    HW124062  11.456  11.232  11.721
40743SOL    HW224063  11.503  11.233  11.865
40744SOL     OW24064   2.709  11.732   8.629
40744SOL    HW124065   2.637  11.684   8.669
40744SOL    HW224066   2.734  11.679   8.553
40745SOL     OW24067  12.600   1.237   2.388
40745SOL    HW124068  12.673   1.240   2.450
40745SOL    HW224069  12.533   1.293   2.427
40746SOL     OW24070  14.206  14.491  12.524
40746SOL    HW124071  14.145  14.526  12.589
40746SOL    HW224072  14.284  14.467  12.574
40747SOL     OW24073  10.303   9.757   2.302
40747SOL    HW124074  10.244   9.816   2.349
40747SOL    HW224075  10.260   9.744   2.217
40748SOL     OW24076   8.719   2.185   9.210
40748SOL    HW124077   8.757   2.102   9.182
40748SOL    HW224078   8.625   2.167   9.218
40749SOL     OW24079   0.990   9.521  13.856
40749SOL    HW124080   1.082   9.495  13.863
40749SOL    HW224081   0.992   9.616  13.851
40750SOL     OW24082   2.898   4.027  12.893
40750SOL    HW124083   2.981   4.072  12.873
40750SOL    HW224084   2.858   4.081  12.960
40751SOL     OW24085   6.265   3.535   5.195
40751SOL    HW124086   6.180   3.497   5.174
40751SOL    HW224087   6.273   3.611   5.138
40752SOL     OW24088  12.609   9.964   2.074
40752SOL    HW124089  12.581   9.973   1.983
40752SOL    HW224090  12.691  10.013   2.080
40753SOL     OW24091  12.653  10.598  14.637
40753SOL    HW124092  12.583  10.664  14.630
40753SOL    HW224093  12.610  10.522  14.677
40754SOL     OW24094   8.150   4.220   8.593
40754SOL    HW124095   8.114   4.304   8.567
40754SOL    HW224096   8.191   4.185   8.514
40755SOL     OW24097  12.452   3.588   8.029
40755SOL    HW124098  12.471   3.603   7.937
40755SOL    HW224099  12.404   3.666   8.057
40756SOL     OW24100   6.128  10.222  13.455
40756SOL    HW124101   6.097  10.138  13.488
40756SOL    HW224102   6.191  10.252  13.520
40757SOL     OW24103   2.235   5.986  11.527
40757SOL    HW124104   2.322   5.975  11.488
40757SOL    HW224105   2.203   6.068  11.490
40758SOL     OW24106   5.390  14.648  10.430
40758SOL    HW124107   5.330  14.716  10.398
40758SOL    HW224108   5.456  14.697  10.480
40759SOL     OW24109   7.385  13.947   8.995
40759SOL    HW124110   7.356  13.873   8.942
40759SOL    HW224111   7.350  14.024   8.950
40760SOL     OW24112   0.705  13.520   3.739
40760SOL    HW124113   0.737  13.585   3.677
40760SOL    HW224114   0.768  13.448   3.733
40761SOL     OW24115  12.572   9.475  13.194
40761SOL    HW124116  12.534   9.388  13.205
40761SOL    HW224117  12.666   9.461  13.195
40762SOL     OW24118   3.373   4.423   7.826
40762SOL    HW124119   3.345   4.440   7.737
40762SOL    HW224120   3.326   4.344   7.852
40763SOL     OW24121   3.613   9.581   7.320
40763SOL    HW124122   3.583   9.567   7.410
40763SOL    HW224123   3.664   9.662   7.324
40764SOL     OW24124  11.689   4.126   6.043
40764SOL    HW124125  11.690   4.135   5.948
40764SOL    HW224126  11.615   4.067   6.061
40765SOL     OW24127  12.369  12.529   9.323
40765SOL    HW124128  12.404  12.450   9.362
40765SOL    HW224129  12.274  12.521   9.333
40766SOL     OW24130  12.760   0.407   2.731
40766SOL    HW124131  12.829   0.436   2.790
40766SOL    HW224132  12.795   0.327   2.690
40767SOL     OW24133   6.908   5.340   8.789
40767SOL    HW124134   6.854   5.376   8.859
40767SOL    HW224135   6.940   5.417   8.742
40768SOL     OW24136   3.944   2.605  12.309
40768SOL    HW124137   3.941   2.678  12.247
40768SOL    HW224138   3.894   2.535  12.265
40769SOL     OW24139   8.063   1.631   6.587
40769SOL    HW124140   8.084   1.539   6.603
40769SOL    HW224141   8.058   1.638   6.492
40770SOL     OW24142  11.614  11.750   2.799
40770SOL    HW124143  11.594  11.691   2.872
40770SOL    HW224144  11.642  11.832   2.841
40771SOL     OW24145   6.286  13.308  12.784
40771SOL    HW124146   6.300  13.388  12.835
40771SOL    HW224147   6.345  13.316  12.709
40772SOL     OW24148   2.639   1.409   7.328
40772SOL    HW124149   2.623   1.448   7.242
40772SOL    HW224150   2.638   1.315   7.312
40773SOL     OW24151   4.823   2.556   8.718
40773SOL    HW124152   4.912   2.590   8.730
40773SOL    HW224153   4.829   2.505   8.637
40774SOL     OW24154   9.259   1.728   7.287
40774SOL    HW124155   9.198   1.773   7.345
40774SOL    HW224156   9.240   1.764   7.200
40775SOL     OW24157  12.470   7.363   0.329
40775SOL    HW124158  12.492   7.272   0.347
40775SOL    HW224159  12.428   7.361   0.243
40776SOL     OW24160   9.275   7.947   4.342
40776SOL    HW124161   9.208   7.890   4.301
40776SOL    HW224162   9.290   7.908   4.428
40777SOL     OW24163   4.125   5.858  11.744
40777SOL    HW124164   4.149   5.827  11.656
40777SOL    HW224165   4.058   5.924  11.728
40778SOL     OW24166   4.376   3.552   7.859
40778SOL    HW124167   4.453   3.539   7.803
40778SOL    HW224168   4.410   3.594   7.937
40779SOL     OW24169   1.297  11.457   6.604
40779SOL    HW124170   1.390  11.453   6.580
40779SOL    HW224171   1.297  11.462   6.700
40780SOL     OW24172   0.903  10.950   4.964
40780SOL    HW124173   0.874  10.923   5.051
40780SOL    HW224174   0.988  10.992   4.978
40781SOL     OW24175   9.946  12.877   5.837
40781SOL    HW124176   9.988  12.961   5.858
40781SOL    HW224177   9.901  12.852   5.918
40782SOL     OW24178   0.218   9.845   4.399
40782SOL    HW124179   0.138   9.821   4.446
40782SOL    HW224180   0.188   9.887   4.319
40783SOL     OW24181   6.361   7.588   8.318
40783SOL    HW124182   6.277   7.586   8.364
40783SOL    HW224183   6.426   7.594   8.388
40784SOL     OW24184   7.474   8.867   4.616
40784SOL    HW124185   7.379   8.876   4.617
40784SOL    HW224186   7.505   8.919   4.690
40785SOL     OW24187   6.116   3.068   4.193
40785SOL    HW124188   6.129   3.036   4.282
40785SOL    HW224189   6.026   3.043   4.172
40786SOL     OW24190  14.468  12.983  13.547
40786SOL    HW124191  14.430  13.070  13.535
40786SOL    HW224192  14.397  12.923  13.523
40787SOL     OW24193  13.682   7.121   9.150
40787SOL    HW124194  13.660   7.106   9.242
40787SOL    HW224195  13.667   7.215   9.137
40788SOL     OW24196   4.761  11.548   9.048
40788SOL    HW124197   4.693  11.486   9.076
40788SOL    HW224198   4.841  11.495   9.045
40789SOL     OW24199  12.307   7.609   4.519
40789SOL    HW124200  12.260   7.661   4.584
40789SOL    HW224201  12.314   7.522   4.559
40790SOL     OW24202   3.143  10.342   7.750
40790SOL    HW124203   3.058  10.363   7.711
40790SOL    HW224204   3.137  10.376   7.839
40791SOL     OW24205  12.375  11.838  10.843
40791SOL    HW124206  12.291  11.865  10.882
40791SOL    HW224207  12.436  11.907  10.870
40792SOL     OW24208   7.451   5.444  11.415
40792SOL    HW124209   7.394   5.438  11.339
40792SOL    HW224210   7.530   5.488  11.383
40793SOL     OW24211   6.303  12.946  13.794
40793SOL    HW124212   6.281  13.004  13.720
40793SOL    HW224213   6.354  13.002  13.853
40794SOL     OW24214   5.179  14.435   0.518
40794SOL    HW124215   5.100  14.470   0.477
40794SOL    HW224216   5.163  14.441   0.612
40795SOL     OW24217   6.509  13.873  13.377
40795SOL    HW124218   6.572  13.917  13.435
40795SOL    HW224219   6.432  13.929  13.380
40796SOL     OW24220   7.503   5.161   5.397
40796SOL    HW124221   7.500   5.253   5.424
40796SOL    HW224222   7.545   5.163   5.310
40797SOL     OW24223   9.557   7.742   5.529
40797SOL    HW124224   9.592   7.811   5.472
40797SOL    HW224225   9.462   7.750   5.523
40798SOL     OW24226   3.480   6.261   1.747
40798SOL    HW124227   3.519   6.307   1.822
40798SOL    HW224228   3.423   6.326   1.706
40799SOL     OW24229   2.251   2.620   0.484
40799SOL    HW124230   2.302   2.701   0.496
40799SOL    HW224231   2.200   2.612   0.564
40800SOL     OW24232   9.204   6.422  14.528
40800SOL    HW124233   9.173   6.423  14.437
40800SOL    HW224234   9.280   6.364  14.527
40801SOL     OW24235  10.368   9.165   0.699
40801SOL    HW124236  10.408   9.079   0.685
40801SOL    HW224237  10.300   9.150   0.764
40802SOL     OW24238   6.103   9.669  11.395
40802SOL    HW124239   6.073   9.745  11.444
40802SOL    HW224240   6.088   9.595  11.454
40803SOL     OW24241   6.862  13.730   4.413
40803SOL    HW124242   6.874  13.759   4.323
40803SOL    HW224243   6.771  13.700   4.416
40804SOL     OW24244   8.381  14.057   5.012
40804SOL    HW124245   8.327  13.983   4.985
40804SOL    HW224246   8.430  14.082   4.933
40805SOL     OW24247   3.403  14.036  10.737
40805SOL    HW124248   3.382  13.949  10.772
40805SOL    HW224249   3.483  14.022  10.686
40806SOL     OW24250  14.097  10.361  13.745
40806SOL    HW124251  14.136  10.374  13.659
40806SOL    HW224252  14.153  10.296  13.787
40807SOL     OW24253  10.670   6.969   9.022
40807SOL    HW124254  10.725   6.957   9.099
40807SOL    HW224255  10.581   6.950   9.051
40808SOL     OW24256   4.531   7.302  10.464
40808SOL    HW124257   4.585   7.349  10.527
40808SOL    HW224258   4.522   7.362  10.390
40809SOL     OW24259  10.500  13.180  13.805
40809SOL    HW124260  10.416  13.175  13.850
40809SOL    HW224261  10.556  13.232  13.863
40810SOL     OW24262   5.053   0.597   4.117
40810SOL    HW124263   4.974   0.585   4.169
40810SOL    HW224264   5.030   0.564   4.030
40811SOL     OW24265   4.593  13.641   5.511
40811SOL    HW124266   4.614  13.647   5.604
40811SOL    HW224267   4.498  13.645   5.507
40812SOL     OW24268   2.287  11.190   4.398
40812SOL    HW124269   2.269  11.138   4.320
40812SOL    HW224270   2.217  11.255   4.400
40813SOL     OW24271   5.042  10.370  14.387
40813SOL    HW124272   5.002  10.305  14.329
40813SOL    HW224273   5.098  10.422  14.330
40814SOL     OW24274   6.872  13.522   3.373
40814SOL    HW124275   6.821  13.475   3.307
40814SOL    HW224276   6.921  13.588   3.324
40815SOL     OW24277  13.019  12.871  13.336
40815SOL    HW124278  13.012  12.948  13.392
40815SOL    HW224279  13.021  12.907  13.247
40816SOL     OW24280   5.569  10.226   9.274
40816SOL    HW124281   5.514  10.158   9.312
40816SOL    HW224282   5.640  10.238   9.338
40817SOL     OW24283   8.124  10.134   6.818
40817SOL    HW124284   8.035  10.105   6.838
40817SOL    HW224285   8.179  10.058   6.840
40818SOL     OW24286   3.326  10.086   2.586
40818SOL    HW124287   3.351  10.039   2.507
40818SOL    HW224288   3.272  10.158   2.554
40819SOL     OW24289   8.507  13.662   8.471
40819SOL    HW124290   8.438  13.641   8.534
40819SOL    HW224291   8.532  13.752   8.491
40820SOL     OW24292  10.583   3.335   9.968
40820SOL    HW124293  10.624   3.376   9.892
40820SOL    HW224294  10.554   3.249   9.937
40821SOL     OW24295  12.803  12.810   8.922
40821SOL    HW124296  12.895  12.820   8.900
40821SOL    HW224297  12.792  12.715   8.935
40822SOL     OW24298   8.414   2.840   0.479
40822SOL    HW124299   8.474   2.772   0.507
40822SOL    HW224300   8.443   2.919   0.526
40823SOL     OW24301   6.089   1.666   4.510
40823SOL    HW124302   6.094   1.729   4.438
40823SOL    HW224303   6.102   1.581   4.469
40824SOL     OW24304  11.240   6.079   2.427
40824SOL    HW124305  11.193   5.996   2.430
40824SOL    HW224306  11.323   6.062   2.471
40825SOL     OW24307   5.890   6.892   4.867
40825SOL    HW124308   5.970   6.859   4.828
40825SOL    HW224309   5.850   6.816   4.910
40826SOL     OW24310  10.716   2.650   9.504
40826SOL    HW124311  10.727   2.562   9.467
40826SOL    HW224312  10.785   2.657   9.570
40827SOL     OW24313   2.281   2.510  10.706
40827SOL    HW124314   2.347   2.567  10.745
40827SOL    HW224315   2.310   2.499  10.616
40828SOL     OW24316   0.692   0.935   1.781
40828SOL    HW124317   0.646   0.958   1.862
40828SOL    HW224318   0.642   0.978   1.712
40829SOL     OW24319  14.648   1.009   1.460
40829SOL    HW124320  14.576   0.949   1.440
40829SOL    HW224321  14.683   1.033   1.374
40830SOL     OW24322   3.018   9.959   2.280
40830SOL    HW124323   2.947  10.006   2.236
40830SOL    HW224324   3.063   9.912   2.210
40831SOL     OW24325   4.974   5.338   2.033
40831SOL    HW124326   4.964   5.431   2.055
40831SOL    HW224327   4.912   5.323   1.962
40832SOL     OW24328  12.741   6.721   2.337
40832SOL    HW124329  12.658   6.715   2.289
40832SOL    HW224330  12.775   6.808   2.316
40833SOL     OW24331   2.669   3.858  13.645
40833SOL    HW124332   2.653   3.801  13.570
40833SOL    HW224333   2.585   3.901  13.661
40834SOL     OW24334  11.107  13.790   3.769
40834SOL    HW124335  11.060  13.708   3.754
40834SOL    HW224336  11.046  13.844   3.819
40835SOL     OW24337  11.474   7.893   6.231
40835SOL    HW124338  11.483   7.944   6.311
40835SOL    HW224339  11.473   7.958   6.161
40836SOL     OW24340  12.298   6.111   4.220
40836SOL    HW124341  12.269   6.079   4.305
40836SOL    HW224342  12.394   6.105   4.223
40837SOL     OW24343   8.867  13.029   2.413
40837SOL    HW124344   8.825  13.083   2.480
40837SOL    HW224345   8.951  13.073   2.396
40838SOL     OW24346   0.078   0.737  11.815
40838SOL    HW124347   0.033   0.665  11.771
40838SOL    HW224348   0.156   0.697  11.853
40839SOL     OW24349  12.946   1.460  11.568
40839SOL    HW124350  12.980   1.390  11.511
40839SOL    HW224351  12.884   1.507  11.513
40840SOL     OW24352  10.282  10.135  10.106
40840SOL    HW124353  10.310  10.195  10.176
40840SOL    HW224354  10.200  10.097  10.139
40841SOL     OW24355  10.906   9.509   2.979
40841SOL    HW124356  10.967   9.580   3.001
40841SOL    HW224357  10.928   9.439   3.041
40842SOL     OW24358  10.684   5.291   3.808
40842SOL    HW124359  10.592   5.302   3.832
40842SOL    HW224360  10.732   5.301   3.890
40843SOL     OW24361  14.821   4.481  13.227
40843SOL    HW124362  14.752   4.482  13.293
40843SOL    HW224363   0.028   4.462  13.276
40844SOL     OW24364  11.368   9.690  12.212
40844SOL    HW124365  11.311   9.627  12.256
40844SOL    HW224366  11.344   9.775  12.250
40845SOL     OW24367  13.225  12.474   8.319
40845SOL    HW124368  13.211  12.563   8.352
40845SOL    HW224369  13.232  12.485   8.224
40846SOL     OW24370   7.555   3.948  10.841
40846SOL    HW124371   7.552   3.988  10.754
40846SOL    HW224372   7.499   3.870  10.833
40847SOL     OW24373  13.777   7.125  13.596
40847SOL    HW124374  13.717   7.195  13.622
40847SOL    HW224375  13.814   7.093  13.679
40848SOL     OW24376   7.270   0.374   5.271
40848SOL    HW124377   7.202   0.309   5.256
40848SOL    HW224378   7.232   0.435   5.335
40849SOL     OW24379   3.192   0.357   1.779
40849SOL    HW124380   3.218   0.275   1.738
40849SOL    HW224381   3.253   0.422   1.743
40850SOL     OW24382  10.071  12.386   7.299
40850SOL    HW124383  10.096  12.300   7.334
40850SOL    HW224384  10.151  12.439   7.305
40851SOL     OW24385   6.786   9.786   3.562
40851SOL    HW124386   6.816   9.729   3.491
40851SOL    HW224387   6.728   9.731   3.615
40852SOL     OW24388  14.627   7.974   6.294
40852SOL    HW124389  14.620   7.970   6.389
40852SOL    HW224390  14.538   7.954   6.262
40853SOL     OW24391   1.261  14.146  11.902
40853SOL    HW124392   1.341  14.166  11.853
40853SOL    HW224393   1.286  14.156  11.994
40854SOL     OW24394   3.193  12.819   7.681
40854SOL    HW124395   3.277  12.831   7.725
40854SOL    HW224396   3.135  12.883   7.722
40855SOL     OW24397   4.460   0.905  13.739
40855SOL    HW124398   4.539   0.851  13.733
40855SOL    HW224399   4.470   0.971  13.670
40856SOL     OW24400  10.774   5.716   6.106
40856SOL    HW124401  10.741   5.715   6.016
40856SOL    HW224402  10.695   5.719   6.160
40857SOL     OW24403   3.784   4.628   8.244
40857SOL    HW124404   3.763   4.722   8.240
40857SOL    HW224405   3.740   4.591   8.168
40858SOL     OW24406  11.412   5.172  13.028
40858SOL    HW124407  11.457   5.130  13.101
40858SOL    HW224408  11.325   5.131  13.028
40859SOL     OW24409   4.408   4.167   1.386
40859SOL    HW124410   4.462   4.153   1.308
40859SOL    HW224411   4.318   4.165   1.354
40860SOL     OW24412   6.619  10.416  12.882
40860SOL    HW124413   6.608  10.348  12.948
40860SOL    HW224414   6.711  10.410  12.856
40861SOL     OW24415  11.548   1.581   2.057
40861SOL    HW124416  11.496   1.648   2.012
40861SOL    HW224417  11.509   1.498   2.029
40862SOL     OW24418   7.035   5.514   6.664
40862SOL    HW124419   6.984   5.557   6.732
40862SOL    HW224420   7.095   5.456   6.711
40863SOL     OW24421   0.940   1.933  14.727
40863SOL    HW124422   0.938   2.003  14.793
40863SOL    HW224423   0.881   1.963  14.658
40864SOL     OW24424   9.542  13.723   7.172
40864SOL    HW124425   9.556  13.740   7.078
40864SOL    HW224426   9.621  13.675   7.199
40865SOL     OW24427  12.810   3.182   8.311
40865SOL    HW124428  12.821   3.106   8.369
40865SOL    HW224429  12.774   3.145   8.230
40866SOL     OW24430   6.746   2.852  13.458
40866SOL    HW124431   6.701   2.914  13.514
40866SOL    HW224432   6.792   2.794  13.518
40867SOL     OW24433   1.546   0.917   2.239
40867SOL    HW124434   1.545   0.857   2.313
40867SOL    HW224435   1.530   1.003   2.277
40868SOL     OW24436   5.830  14.041   2.372
40868SOL    HW124437   5.793  13.953   2.365
40868SOL    HW224438   5.833  14.073   2.282
40869SOL     OW24439   9.990   2.730   0.672
40869SOL    HW124440  10.035   2.814   0.667
40869SOL    HW224441   9.931   2.730   0.597
40870SOL     OW24442   6.726  14.694   8.533
40870SOL    HW124443   6.776  14.658   8.607
40870SOL    HW224444   6.635  14.693   8.563
40871SOL     OW24445   8.305   9.579   5.805
40871SOL    HW124446   8.285   9.503   5.751
40871SOL    HW224447   8.220   9.620   5.822
40872SOL     OW24448  11.508   7.892  12.538
40872SOL    HW124449  11.417   7.918  12.555
40872SOL    HW224450  11.552   7.902  12.622
40873SOL     OW24451  12.243   0.888   0.098
40873SOL    HW124452  12.177   0.846   0.154
40873SOL    HW224453  12.316   0.906   0.158
40874SOL     OW24454   3.929   3.990  12.495
40874SOL    HW124455   3.965   3.955  12.413
40874SOL    HW224456   3.893   4.075  12.469
40875SOL     OW24457  11.550   2.472   7.311
40875SOL    HW124458  11.482   2.505   7.252
40875SOL    HW224459  11.592   2.550   7.346
40876SOL     OW24460   0.068   0.157   6.564
40876SOL    HW124461   0.054   0.242   6.522
40876SOL    HW224462   0.046   0.172   6.656
40877SOL     OW24463  10.162   1.720   8.870
40877SOL    HW124464  10.085   1.719   8.926
40877SOL    HW224465  10.187   1.813   8.864
40878SOL     OW24466  13.842   4.496   7.635
40878SOL    HW124467  13.858   4.422   7.694
40878SOL    HW224468  13.753   4.481   7.602
40879SOL     OW24469  11.221  10.787   0.703
40879SOL    HW124470  11.199  10.791   0.610
40879SOL    HW224471  11.311  10.757   0.706
40880SOL     OW24472  12.323  10.042   3.159
40880SOL    HW124473  12.410  10.004   3.142
40880SOL    HW224474  12.306  10.097   3.083
40881SOL     OW24475   9.777  12.197   9.976
40881SOL    HW124476   9.831  12.267  10.013
40881SOL    HW224477   9.783  12.126  10.040
40882SOL     OW24478   6.478   7.992   9.922
40882SOL    HW124479   6.471   7.956   9.834
40882SOL    HW224480   6.560   8.042   9.921
40883SOL     OW24481   6.336   2.525  10.303
40883SOL    HW124482   6.241   2.521  10.306
40883SOL    HW224483   6.364   2.435  10.319
40884SOL     OW24484   9.080   0.355   4.300
40884SOL    HW124485   9.015   0.309   4.353
40884SOL    HW224486   9.104   0.292   4.233
40885SOL     OW24487   6.924  10.124   6.645
40885SOL    HW124488   6.837  10.159   6.628
40885SOL    HW224489   6.977  10.201   6.668
40886SOL     OW24490   9.365   7.047   6.459
40886SOL    HW124491   9.406   7.130   6.435
40886SOL    HW224492   9.310   7.024   6.384
40887SOL     OW24493  13.435   1.638   0.996
40887SOL    HW124494  13.487   1.645   1.075
40887SOL    HW224495  13.394   1.552   1.002
40888SOL     OW24496  11.637   2.439  12.413
40888SOL    HW124497  11.627   2.476  12.500
40888SOL    HW224498  11.601   2.350  12.420
40889SOL     OW24499   1.966   9.987   1.313
40889SOL    HW124500   1.963  10.072   1.269
40889SOL    HW224501   1.971  10.008   1.406
40890SOL     OW24502   2.183  13.154   6.818
40890SOL    HW124503   2.166  13.122   6.906
40890SOL    HW224504   2.252  13.097   6.785
40891SOL     OW24505  11.164  13.773   0.775
40891SOL    HW124506  11.258  13.771   0.795
40891SOL    HW224507  11.146  13.688   0.735
40892SOL     OW24508  14.469   3.750   6.470
40892SOL    HW124509  14.399   3.730   6.408
40892SOL    HW224510  14.501   3.836   6.443
40893SOL     OW24511  11.316  14.001   6.459
40893SOL    HW124512  11.323  13.997   6.364
40893SOL    HW224513  11.253  14.072   6.476
40894SOL     OW24514  12.514   1.644  14.072
40894SOL    HW124515  12.512   1.606  14.160
40894SOL    HW224516  12.462   1.584  14.019
40895SOL     OW24517   4.434   9.637   3.338
40895SOL    HW124518   4.387   9.641   3.255
40895SOL    HW224519   4.525   9.618   3.314
40896SOL     OW24520  14.475  12.383   0.681
40896SOL    HW124521  14.511  12.296   0.698
40896SOL    HW224522  14.405  12.368   0.617
40897SOL     OW24523  14.592   1.348   0.158
40897SOL    HW124524  14.503   1.338   0.126
40897SOL    HW224525  14.620   1.259   0.181
40898SOL     OW24526   9.215   7.872   1.883
40898SOL    HW124527   9.293   7.920   1.857
40898SOL    HW224528   9.168   7.932   1.941
40899SOL     OW24529  12.833   5.547   7.717
40899SOL    HW124530  12.855   5.542   7.810
40899SOL    HW224531  12.870   5.467   7.679
40900SOL     OW24532   4.202   3.718   0.418
40900SOL    HW124533   4.177   3.640   0.467
40900SOL    HW224534   4.245   3.774   0.483
40901SOL     OW24535   0.054   1.507  14.163
40901SOL    HW124536   0.061   1.584  14.219
40901SOL    HW224537   0.142   1.496  14.128
40902SOL     OW24538   6.351  12.181   5.605
40902SOL    HW124539   6.357  12.095   5.647
40902SOL    HW224540   6.433  12.188   5.556
40903SOL     OW24541   8.401   4.131   4.331
40903SOL    HW124542   8.388   4.224   4.351
40903SOL    HW224543   8.452   4.131   4.250
40904SOL     OW24544   8.950   4.056   8.713
40904SOL    HW124545   8.864   4.098   8.721
40904SOL    HW224546   8.958   4.004   8.793
40905SOL     OW24547   4.002  13.872   7.565
40905SOL    HW124548   4.024  13.915   7.648
40905SOL    HW224549   3.925  13.819   7.584
40906SOL     OW24550   8.057  13.029  11.475
40906SOL    HW124551   8.076  12.953  11.529
40906SOL    HW224552   7.993  13.079  11.525
40907SOL     OW24553   2.627  11.036   2.672
40907SOL    HW124554   2.568  11.101   2.635
40907SOL    HW224555   2.591  10.952   2.641
40908SOL     OW24556  13.085  13.194  13.152
40908SOL    HW124557  13.177  13.223  13.149
40908SOL    HW224558  13.082  13.117  13.096
40909SOL     OW24559   0.859  12.574  12.402
40909SOL    HW124560   0.779  12.615  12.434
40909SOL    HW224561   0.844  12.564  12.308
40910SOL     OW24562   7.277   4.820  10.831
40910SOL    HW124563   7.194   4.866  10.843
40910SOL    HW224564   7.315   4.858  10.752
40911SOL     OW24565  12.034   3.925  10.857
40911SOL    HW124566  12.000   3.907  10.769
40911SOL    HW224567  12.008   3.848  10.909
40912SOL     OW24568   2.781  11.756   1.665
40912SOL    HW124569   2.719  11.797   1.725
40912SOL    HW224570   2.769  11.804   1.582
40913SOL     OW24571   2.437   7.479   7.497
40913SOL    HW124572   2.395   7.547   7.550
40913SOL    HW224573   2.522   7.515   7.473
40914SOL     OW24574  13.183   7.173  14.203
40914SOL    HW124575  13.145   7.171  14.115
40914SOL    HW224576  13.205   7.265  14.218
40915SOL     OW24577   6.288   0.277   6.620
40915SOL    HW124578   6.293   0.340   6.691
40915SOL    HW224579   6.306   0.193   6.662
40916SOL     OW24580   0.652   0.822   2.671
40916SOL    HW124581   0.568   0.788   2.639
40916SOL    HW224582   0.680   0.757   2.736
40917SOL     OW24583  12.428  13.249   2.611
40917SOL    HW124584  12.435  13.327   2.556
40917SOL    HW224585  12.396  13.181   2.552
40918SOL     OW24586   0.157   6.728  13.364
40918SOL    HW124587   0.090   6.661  13.376
40918SOL    HW224588   0.123   6.784  13.294
40919SOL     OW24589   4.394   6.395   1.542
40919SOL    HW124590   4.402   6.463   1.608
40919SOL    HW224591   4.304   6.405   1.509
40920SOL     OW24592  10.606   9.796   4.334
40920SOL    HW124593  10.623   9.747   4.415
40920SOL    HW224594  10.641   9.884   4.352
40921SOL     OW24595   2.583  12.633   7.069
40921SOL    HW124596   2.492  12.662   7.073
40921SOL    HW224597   2.582  12.556   7.013
40922SOL     OW24598   9.816   6.959   1.866
40922SOL    HW124599   9.737   6.937   1.915
40922SOL    HW224600   9.868   6.879   1.869
40923SOL     OW24601   7.559   4.136   1.550
40923SOL    HW124602   7.633   4.090   1.510
40923SOL    HW224603   7.489   4.071   1.553
40924SOL     OW24604   8.145   9.740   1.850
40924SOL    HW124605   8.127   9.726   1.757
40924SOL    HW224606   8.228   9.695   1.866
40925SOL     OW24607   7.815  11.169  12.271
40925SOL    HW124608   7.829  11.242  12.212
40925SOL    HW224609   7.903  11.140  12.296
40926SOL     OW24610  14.285  13.096   9.363
40926SOL    HW124611  14.329  13.181   9.359
40926SOL    HW224612  14.192  13.116   9.355
40927SOL     OW24613  10.293  12.939   5.341
40927SOL    HW124614  10.256  13.004   5.281
40927SOL    HW224615  10.333  12.992   5.410
40928SOL     OW24616  14.412   6.775  11.977
40928SOL    HW124617  14.373   6.831  12.045
40928SOL    HW224618  14.461   6.709  12.027
40929SOL     OW24619   5.257   0.068   4.995
40929SOL    HW124620   5.233  14.849   4.986
40929SOL    HW224621   5.338   0.077   4.945
40930SOL     OW24622   3.167  11.476   5.455
40930SOL    HW124623   3.115  11.396   5.469
40930SOL    HW224624   3.257  11.450   5.476
40931SOL     OW24625   7.023  11.616   9.509
40931SOL    HW124626   7.022  11.708   9.481
40931SOL    HW224627   7.052  11.620   9.600
40932SOL     OW24628  12.453   3.134   2.588
40932SOL    HW124629  12.386   3.087   2.638
40932SOL    HW224630  12.451   3.223   2.623
40933SOL     OW24631   4.804   4.233   1.748
40933SOL    HW124632   4.866   4.161   1.735
40933SOL    HW224633   4.733   4.194   1.798
40934SOL     OW24634   5.605   1.639   7.292
40934SOL    HW124635   5.537   1.703   7.311
40934SOL    HW224636   5.660   1.682   7.226
40935SOL     OW24637   1.714  14.292   2.194
40935SOL    HW124638   1.701  14.345   2.115
40935SOL    HW224639   1.678  14.206   2.172
40936SOL     OW24640   7.205  11.624   6.610
40936SOL    HW124641   7.252  11.708   6.608
40936SOL    HW224642   7.264  11.562   6.569
40937SOL     OW24643   1.863   9.736  13.038
40937SOL    HW124644   1.925   9.745  12.965
40937SOL    HW224645   1.913   9.693  13.107
40938SOL     OW24646  12.957   7.987   1.667
40938SOL    HW124647  13.026   8.005   1.603
40938SOL    HW224648  12.951   7.892   1.669
40939SOL     OW24649   0.337   6.558   6.251
40939SOL    HW124650   0.314   6.465   6.249
40939SOL    HW224651   0.403   6.568   6.183
40940SOL     OW24652   5.281   5.232   6.146
40940SOL    HW124653   5.199   5.189   6.119
40940SOL    HW224654   5.258   5.325   6.152
40941SOL     OW24655   7.873   6.653   6.184
40941SOL    HW124656   7.885   6.741   6.148
40941SOL    HW224657   7.778   6.640   6.183
40942SOL     OW24658   7.736  10.012  12.106
40942SOL    HW124659   7.641  10.022  12.119
40942SOL    HW224660   7.748  10.013  12.012
40943SOL     OW24661  11.123   7.175  13.150
40943SOL    HW124662  11.063   7.155  13.079
40943SOL    HW224663  11.082   7.248  13.197
40944SOL     OW24664  11.583   2.999   7.307
40944SOL    HW124665  11.646   2.963   7.245
40944SOL    HW224666  11.616   2.973   7.393
40945SOL     OW24667   3.569  14.599   0.010
40945SOL    HW124668   3.633  14.628  14.818
40945SOL    HW224669   3.606  14.519   0.046
40946SOL     OW24670   2.927   5.633  14.589
40946SOL    HW124671   2.846   5.602  14.628
40946SOL    HW224672   2.996   5.581  14.631
40947SOL     OW24673  11.295  11.858   0.048
40947SOL    HW124674  11.286  11.897   0.135
40947SOL    HW224675  11.384  11.882   0.020
40948SOL     OW24676  10.230   8.076  13.262
40948SOL    HW124677  10.281   8.149  13.227
40948SOL    HW224678  10.292   8.004  13.269
40949SOL     OW24679  13.979  10.938   7.462
40949SOL    HW124680  13.986  10.872   7.393
40949SOL    HW224681  13.952  10.889   7.540
40950SOL     OW24682   3.703  11.004   5.746
40950SOL    HW124683   3.785  11.032   5.708
40950SOL    HW224684   3.713  11.019   5.840
40951SOL     OW24685   2.775   4.238   5.892
40951SOL    HW124686   2.859   4.216   5.933
40951SOL    HW224687   2.730   4.291   5.958
40952SOL     OW24688   3.853   5.778   4.044
40952SOL    HW124689   3.949   5.778   4.043
40952SOL    HW224690   3.830   5.870   4.058
40953SOL     OW24691  13.484   9.791   7.976
40953SOL    HW124692  13.418   9.845   8.021
40953SOL    HW224693  13.458   9.701   7.994
40954SOL     OW24694   9.076  12.407   1.432
40954SOL    HW124695   8.997  12.398   1.486
40954SOL    HW224696   9.144  12.433   1.494
40955SOL     OW24697  11.087   6.065   6.853
40955SOL    HW124698  11.154   5.998   6.840
40955SOL    HW224699  11.117   6.114   6.929
40956SOL     OW24700   5.217   5.788   7.232
40956SOL    HW124701   5.261   5.854   7.285
40956SOL    HW224702   5.176   5.838   7.161
40957SOL     OW24703   1.680   4.470  14.575
40957SOL    HW124704   1.678   4.529  14.651
40957SOL    HW224705   1.709   4.524  14.502
40958SOL     OW24706   2.833   5.081   1.106
40958SOL    HW124707   2.884   5.079   1.187
40958SOL    HW224708   2.745   5.108   1.133
40959SOL     OW24709  10.080   6.486  13.352
40959SOL    HW124710  10.171   6.485  13.322
40959SOL    HW224711  10.051   6.575  13.335
40960SOL     OW24712  13.553   2.366  10.735
40960SOL    HW124713  13.484   2.426  10.705
40960SOL    HW224714  13.505   2.295  10.778
40961SOL     OW24715   4.767  14.814  10.560
40961SOL    HW124716   4.814  14.836  10.480
40961SOL    HW224717   4.684  14.778  10.529
40962SOL     OW24718  12.527   2.657  13.317
40962SOL    HW124719  12.554   2.616  13.399
40962SOL    HW224720  12.577   2.611  13.250
40963SOL     OW24721   0.670   5.387   0.003
40963SOL    HW124722   0.594   5.445   0.003
40963SOL    HW224723   0.671   5.348   0.090
40964SOL     OW24724   0.296   4.620  14.269
40964SOL    HW124725   0.202   4.639  14.266
40964SOL    HW224726   0.336   4.696  14.226
40965SOL     OW24727   6.218  12.569   6.657
40965SOL    HW124728   6.147  12.579   6.593
40965SOL    HW224729   6.289  12.624   6.623
40966SOL     OW24730  10.250   7.641  11.311
40966SOL    HW124731  10.305   7.563  11.313
40966SOL    HW224732  10.209   7.644  11.398
40967SOL     OW24733   2.912   0.785   2.149
40967SOL    HW124734   3.000   0.820   2.138
40967SOL    HW224735   2.891   0.744   2.065
40968SOL     OW24736   3.763  14.104   0.570
40968SOL    HW124737   3.787  14.189   0.606
40968SOL    HW224738   3.841  14.075   0.524
40969SOL     OW24739   9.239   6.271  12.794
40969SOL    HW124740   9.327   6.257  12.828
40969SOL    HW224741   9.244   6.244  12.702
40970SOL     OW24742   9.764   0.802   5.957
40970SOL    HW124743   9.830   0.747   5.914
40970SOL    HW224744   9.680   0.765   5.929
40971SOL     OW24745   2.077   3.446   1.862
40971SOL    HW124746   1.995   3.407   1.833
40971SOL    HW224747   2.141   3.375   1.854
40972SOL     OW24748   6.051   6.007   7.023
40972SOL    HW124749   6.105   5.989   7.100
40972SOL    HW224750   6.100   6.074   6.975
40973SOL     OW24751   7.482  10.187   2.860
40973SOL    HW124752   7.449  10.105   2.825
40973SOL    HW224753   7.575  10.172   2.875
40974SOL     OW24754  11.361  14.726   9.960
40974SOL    HW124755  11.301  14.755  10.030
40974SOL    HW224756  11.381  14.635   9.983
40975SOL     OW24757   1.202   2.781   9.645
40975SOL    HW124758   1.180   2.765   9.737
40975SOL    HW224759   1.180   2.873   9.631
40976SOL     OW24760   5.941  10.631  14.000
40976SOL    HW124761   5.980  10.642  14.087
40976SOL    HW224762   5.852  10.665  14.010
40977SOL     OW24763  13.174   3.335   1.416
40977SOL    HW124764  13.247   3.350   1.475
40977SOL    HW224765  13.152   3.242   1.428
40978SOL     OW24766  14.079  13.427   4.796
40978SOL    HW124767  14.054  13.499   4.737
40978SOL    HW224768  14.165  13.398   4.764
40979SOL     OW24769   6.729   9.187   0.908
40979SOL    HW124770   6.745   9.280   0.924
40979SOL    HW224771   6.634   9.178   0.915
40980SOL     OW24772   9.173   0.206  14.458
40980SOL    HW124773   9.117   0.194  14.382
40980SOL    HW224774   9.261   0.215  14.421
40981SOL     OW24775   6.188   1.863  11.084
40981SOL    HW124776   6.171   1.956  11.102
40981SOL    HW224777   6.163   1.818  11.164
40982SOL     OW24778  12.707   7.568  11.643
40982SOL    HW124779  12.795   7.588  11.676
40982SOL    HW224780  12.651   7.632  11.686
40983SOL     OW24781  14.488  12.282  11.234
40983SOL    HW124782  14.428  12.350  11.203
40983SOL    HW224783  14.555  12.276  11.166
40984SOL     OW24784  11.128   7.578   2.547
40984SOL    HW124785  11.108   7.643   2.480
40984SOL    HW224786  11.201   7.527   2.510
40985SOL     OW24787   1.851   7.712   3.250
40985SOL    HW124788   1.897   7.789   3.284
40985SOL    HW224789   1.810   7.672   3.327
40986SOL     OW24790   7.073   6.410   0.714
40986SOL    HW124791   7.165   6.399   0.689
40986SOL    HW224792   7.071   6.494   0.760
40987SOL     OW24793   8.389  10.777  10.814
40987SOL    HW124794   8.361  10.798  10.903
40987SOL    HW224795   8.327  10.824  10.758
40988SOL     OW24796  11.076   1.592   7.772
40988SOL    HW124797  11.050   1.525   7.836
40988SOL    HW224798  11.171   1.583   7.764
40989SOL     OW24799   5.661   6.922   5.592
40989SOL    HW124800   5.572   6.947   5.618
40989SOL    HW224801   5.718   6.981   5.641
40990SOL     OW24802   0.144   5.823  10.196
40990SOL    HW124803   0.070   5.877  10.224
40990SOL    HW224804   0.150   5.838  10.102
40991SOL     OW24805   4.292  13.438  13.183
40991SOL    HW124806   4.309  13.389  13.263
40991SOL    HW224807   4.363  13.414  13.124
40992SOL     OW24808   2.238   1.717  11.457
40992SOL    HW124809   2.312   1.739  11.400
40992SOL    HW224810   2.265   1.636  11.500
40993SOL     OW24811   0.661  14.720   6.800
40993SOL    HW124812   0.662  14.672   6.882
40993SOL    HW224813   0.583  14.776   6.806
40994SOL     OW24814  10.559   6.376  13.959
40994SOL    HW124815  10.534   6.323  13.883
40994SOL    HW224816  10.476   6.413  13.990
40995SOL     OW24817   0.187   7.787   8.170
40995SOL    HW124818   0.203   7.816   8.260
40995SOL    HW224819   0.251   7.716   8.157
40996SOL     OW24820   4.903   6.340   2.313
40996SOL    HW124821   4.972   6.337   2.379
40996SOL    HW224822   4.920   6.420   2.263
40997SOL     OW24823   6.646   8.334   1.663
40997SOL    HW124824   6.711   8.318   1.595
40997SOL    HW224825   6.628   8.247   1.699
40998SOL     OW24826   4.790   5.148   1.091
40998SOL    HW124827   4.833   5.063   1.097
40998SOL    HW224828   4.842   5.205   1.149
40999SOL     OW24829   6.792  11.509   8.849
40999SOL    HW124830   6.804  11.460   8.768
40999SOL    HW224831   6.871  11.563   8.856
41000SOL     OW24832  14.361   3.654  10.913
41000SOL    HW124833  14.294   3.592  10.940
41000SOL    HW224834  14.438   3.600  10.896
41001SOL     OW24835   9.788   9.227  14.750
41001SOL    HW124836   9.723   9.271  14.805
41001SOL    HW224837   9.743   9.149  14.717
41002SOL     OW24838   6.492   9.878  13.603
41002SOL    HW124839   6.403   9.884  13.566
41002SOL    HW224840   6.479   9.847  13.692
41003SOL     OW24841   1.098   4.058  13.252
41003SOL    HW124842   1.015   4.011  13.240
41003SOL    HW224843   1.107   4.066  13.347
41004SOL     OW24844  12.649  12.242  10.961
41004SOL    HW124845  12.723  12.183  10.974
41004SOL    HW224846  12.643  12.291  11.043
41005SOL     OW24847  13.748   4.179  14.861
41005SOL    HW124848  13.725   4.272  14.861
41005SOL    HW224849  13.820   4.171   0.051
41006SOL     OW24850  12.924   6.785   1.405
41006SOL    HW124851  12.828   6.787   1.405
41006SOL    HW224852  12.948   6.766   1.314
41007SOL     OW24853   2.141   3.498  10.615
41007SOL    HW124854   2.124   3.496  10.521
41007SOL    HW224855   2.233   3.474  10.624
41008SOL     OW24856   1.414   8.933  11.913
41008SOL    HW124857   1.507   8.939  11.892
41008SOL    HW224858   1.380   9.021  11.896
41009SOL     OW24859   0.283   9.498  14.325
41009SOL    HW124860   0.287   9.416  14.276
41009SOL    HW224861   0.207   9.544  14.289
41010SOL     OW24862  14.432   7.024   8.480
41010SOL    HW124863  14.485   7.060   8.409
41010SOL    HW224864  14.413   7.099   8.535
41011SOL     OW24865   3.094   8.432  10.558
41011SOL    HW124866   3.180   8.452  10.521
41011SOL    HW224867   3.032   8.484  10.506
41012SOL     OW24868  11.492   4.940   7.182
41012SOL    HW124869  11.493   4.958   7.276
41012SOL    HW224870  11.401   4.952   7.156
41013SOL     OW24871  10.006   8.724   6.565
41013SOL    HW124872  10.010   8.753   6.656
41013SOL    HW224873  10.085   8.759   6.524
41014SOL     OW24874  10.548  13.905  12.013
41014SOL    HW124875  10.587  13.821  11.987
41014SOL    HW224876  10.486  13.882  12.081
41015SOL     OW24877   0.443   7.985   7.105
41015SOL    HW124878   0.514   8.047   7.089
41015SOL    HW224879   0.411   7.962   7.018
41016SOL     OW24880   3.977   3.810  10.050
41016SOL    HW124881   3.973   3.831   9.957
41016SOL    HW224882   3.926   3.729  10.059
41017SOL     OW24883   9.829  13.617  11.727
41017SOL    HW124884   9.791  13.678  11.791
41017SOL    HW224885   9.757  13.559  11.704
41018SOL     OW24886   7.996   8.828  10.640
41018SOL    HW124887   7.912   8.868  10.660
41018SOL    HW224888   8.031   8.881  10.568
41019SOL     OW24889  12.319   1.422  12.644
41019SOL    HW124890  12.336   1.366  12.720
41019SOL    HW224891  12.401   1.420  12.594
41020SOL     OW24892  13.950   0.152   2.850
41020SOL    HW124893  13.992   0.203   2.918
41020SOL    HW224894  13.958   0.061   2.879
41021SOL     OW24895   6.584   6.701   1.715
41021SOL    HW124896   6.649   6.648   1.762
41021SOL    HW224897   6.628   6.783   1.696
41022SOL     OW24898   7.421  13.230   4.895
41022SOL    HW124899   7.469  13.302   4.854
41022SOL    HW224900   7.477  13.153   4.882
41023SOL     OW24901   2.483   1.430   7.822
41023SOL    HW124902   2.543   1.368   7.781
41023SOL    HW224903   2.442   1.477   7.749
41024SOL     OW24904   7.716  10.763  10.615
41024SOL    HW124905   7.798  10.810  10.631
41024SOL    HW224906   7.701  10.713  10.695
41025SOL     OW24907  14.496   3.558   6.021
41025SOL    HW124908  14.537   3.478   5.987
41025SOL    HW224909  14.559   3.591   6.086
41026SOL     OW24910   8.470   8.783   8.399
41026SOL    HW124911   8.505   8.700   8.432
41026SOL    HW224912   8.443   8.764   8.310
41027SOL     OW24913   0.732  10.104  12.005
41027SOL    HW124914   0.795  10.145  12.064
41027SOL    HW224915   0.785  10.074  11.931
41028SOL     OW24916  14.117   0.292   8.291
41028SOL    HW124917  14.032   0.262   8.258
41028SOL    HW224918  14.150   0.348   8.221
41029SOL     OW24919   4.881   4.562   6.687
41029SOL    HW124920   4.877   4.620   6.763
41029SOL    HW224921   4.792   4.527   6.679
41030SOL     OW24922   3.536  14.631   2.171
41030SOL    HW124923   3.495  14.645   2.256
41030SOL    HW224924   3.630  14.629   2.191
41031SOL     OW24925   8.180   2.887  14.857
41031SOL    HW124926   8.243   2.884   0.057
41031SOL    HW224927   8.203   2.967  14.809
41032SOL     OW24928  10.669  11.558  12.164
41032SOL    HW124929  10.752  11.603  12.177
41032SOL    HW224930  10.652  11.513  12.246
41033SOL     OW24931   7.246   6.838  12.111
41033SOL    HW124932   7.301   6.760  12.104
41033SOL    HW224933   7.273   6.893  12.037
41034SOL     OW24934   9.158   6.384   4.258
41034SOL    HW124935   9.065   6.394   4.242
41034SOL    HW224936   9.164   6.311   4.320
41035SOL     OW24937   8.845   5.373   1.649
41035SOL    HW124938   8.843   5.298   1.708
41035SOL    HW224939   8.801   5.443   1.698
41036SOL     OW24940   2.291   0.465   4.351
41036SOL    HW124941   2.381   0.431   4.352
41036SOL    HW224942   2.245   0.410   4.415
41037SOL     OW24943   4.162   0.723   5.034
41037SOL    HW124944   4.097   0.789   5.060
41037SOL    HW224945   4.141   0.705   4.942
41038SOL     OW24946   5.115  12.509   9.701
41038SOL    HW124947   5.185  12.574   9.691
41038SOL    HW224948   5.070  12.535   9.782
41039SOL     OW24949   5.288   4.688   7.717
41039SOL    HW124950   5.294   4.640   7.800
41039SOL    HW224951   5.348   4.763   7.729
41040SOL     OW24952   3.525  10.609   7.571
41040SOL    HW124953   3.440  10.603   7.616
41040SOL    HW224954   3.557  10.696   7.593
41041SOL     OW24955  11.285   1.103  11.865
41041SOL    HW124956  11.244   1.136  11.945
41041SOL    HW224957  11.350   1.040  11.895
41042SOL     OW24958   0.884   5.472   7.590
41042SOL    HW124959   0.943   5.543   7.562
41042SOL    HW224960   0.889   5.408   7.519
41043SOL     OW24961   5.383   9.098   3.032
41043SOL    HW124962   5.302   9.147   3.024
41043SOL    HW224963   5.405   9.073   2.942
41044SOL     OW24964  12.743   4.999  13.708
41044SOL    HW124965  12.693   5.076  13.737
41044SOL    HW224966  12.783   4.966  13.788
41045SOL     OW24967   4.837   8.630  10.927
41045SOL    HW124968   4.906   8.680  10.971
41045SOL    HW224969   4.809   8.687  10.854
41046SOL     OW24970   7.256   0.786   3.848
41046SOL    HW124971   7.166   0.796   3.817
41046SOL    HW224972   7.251   0.800   3.942
41047SOL     OW24973  11.314  11.383   3.547
41047SOL    HW124974  11.252  11.421   3.609
41047SOL    HW224975  11.274  11.299   3.521
41048SOL     OW24976   5.977  11.952  12.429
41048SOL    HW124977   5.938  12.039  12.422
41048SOL    HW224978   6.046  11.961  12.494
41049SOL     OW24979   4.543   0.155   5.835
41049SOL    HW124980   4.521   0.140   5.927
41049SOL    HW224981   4.520   0.073   5.791
41050SOL     OW24982   8.105   7.838   6.943
41050SOL    HW124983   8.060   7.811   6.863
41050SOL    HW224984   8.195   7.806   6.933
41051SOL     OW24985   6.940   6.963   1.047
41051SOL    HW124986   6.981   6.955   1.133
41051SOL    HW224987   7.009   6.998   0.991
41052SOL     OW24988   9.174   7.458   7.686
41052SOL    HW124989   9.107   7.409   7.734
41052SOL    HW224990   9.152   7.444   7.594
41053SOL     OW24991   4.832  10.212   7.047
41053SOL    HW124992   4.910  10.217   7.103
41053SOL    HW224993   4.760  10.193   7.107
41054SOL     OW24994  11.325   4.341  14.178
41054SOL    HW124995  11.299   4.411  14.239
41054SOL    HW224996  11.274   4.265  14.207
41055SOL     OW24997   8.302  14.670   8.327
41055SOL    HW124998   8.347  14.742   8.370
41055SOL    HW224999   8.366  14.599   8.324
41056SOL     OW25000   2.358  10.871  12.812
41056SOL    HW125001   2.276  10.836  12.849
41056SOL    HW225002   2.426  10.840  12.871
41057SOL     OW25003   5.875   1.865   3.203
41057SOL    HW125004   5.865   1.876   3.109
41057SOL    HW225005   5.793   1.822   3.231
41058SOL     OW25006  13.503   9.158   3.423
41058SOL    HW125007  13.444   9.204   3.482
41058SOL    HW225008  13.590   9.172   3.461
41059SOL     OW25009   0.171  14.503  10.902
41059SOL    HW125010   0.104  14.474  10.839
41059SOL    HW225011   0.216  14.575  10.858
41060SOL     OW25012   6.160   1.679   1.970
41060SOL    HW125013   6.163   1.609   1.905
41060SOL    HW225014   6.121   1.638   2.048
41061SOL     OW25015   5.323   7.952   3.565
41061SOL    HW125016   5.371   7.882   3.610
41061SOL    HW225017   5.362   8.033   3.598
41062SOL     OW25018   3.651  13.225   5.136
41062SOL    HW125019   3.604  13.144   5.157
41062SOL    HW225020   3.592  13.273   5.079
41063SOL     OW25021   8.308  12.375  14.705
41063SOL    HW125022   8.352  12.293  14.728
41063SOL    HW225023   8.353  12.404  14.626
41064SOL     OW25024  11.725   3.065  11.801
41064SOL    HW125025  11.800   3.076  11.858
41064SOL    HW225026  11.670   3.000  11.845
41065SOL     OW25027   3.421   2.578  10.429
41065SOL    HW125028   3.451   2.491  10.401
41065SOL    HW225029   3.357   2.560  10.498
41066SOL     OW25030   7.588   1.515   5.260
41066SOL    HW125031   7.663   1.457   5.254
41066SOL    HW225032   7.626   1.603   5.270
41067SOL     OW25033   3.326   7.807   5.595
41067SOL    HW125034   3.412   7.769   5.613
41067SOL    HW225035   3.283   7.810   5.680
41068SOL     OW25036   0.182   3.346  14.028
41068SOL    HW125037   0.232   3.278  14.072
41068SOL    HW225038   0.235   3.371  13.952
41069SOL     OW25039   9.856   7.755  13.497
41069SOL    HW125040   9.763   7.735  13.484
41069SOL    HW225041   9.857   7.819  13.568
41070SOL     OW25042   8.489   7.483   7.887
41070SOL    HW125043   8.458   7.408   7.836
41070SOL    HW225044   8.489   7.452   7.977
41071SOL     OW25045  14.518   5.672  12.054
41071SOL    HW125046  14.541   5.664  11.962
41071SOL    HW225047  14.591   5.719  12.094
41072SOL     OW25048  14.309  11.851   4.073
41072SOL    HW125049  14.386  11.907   4.065
41072SOL    HW225050  14.235  11.910   4.058
41073SOL     OW25051   5.758  10.011   2.901
41073SOL    HW125052   5.774  10.103   2.883
41073SOL    HW225053   5.674  10.009   2.946
41074SOL     OW25054  10.705   6.780   7.019
41074SOL    HW125055  10.734   6.836   6.946
41074SOL    HW225056  10.754   6.811   7.094
41075SOL     OW25057   8.254   7.956  10.730
41075SOL    HW125058   8.172   7.907  10.733
41075SOL    HW225059   8.302   7.917  10.657
41076SOL     OW25060  10.771   1.446  11.025
41076SOL    HW125061  10.807   1.455  10.937
41076SOL    HW225062  10.698   1.385  11.016
41077SOL     OW25063  14.711   2.073   3.826
41077SOL    HW125064  14.658   2.130   3.770
41077SOL    HW225065  14.683   1.984   3.804
41078SOL     OW25066   2.235   6.770   4.637
41078SOL    HW125067   2.324   6.800   4.619
41078SOL    HW225068   2.246   6.684   4.678
41079SOL     OW25069   5.984   8.509   4.334
41079SOL    HW125070   6.039   8.433   4.354
41079SOL    HW225071   5.908   8.472   4.289
41080SOL     OW25072   3.487   8.140   7.791
41080SOL    HW125073   3.493   8.045   7.795
41080SOL    HW225074   3.496   8.161   7.698
41081SOL     OW25075   3.491   4.534   1.050
41081SOL    HW125076   3.466   4.461   0.994
41081SOL    HW225077   3.447   4.516   1.133
41082SOL     OW25078   9.344   4.967   0.149
41082SOL    HW125079   9.320   5.016   0.228
41082SOL    HW225080   9.336   5.031   0.078
41083SOL     OW25081  11.067  12.586   6.970
41083SOL    HW125082  11.100  12.501   7.000
41083SOL    HW225083  11.122  12.609   6.896
41084SOL     OW25084   6.662   2.502   5.221
41084SOL    HW125085   6.637   2.588   5.187
41084SOL    HW225086   6.715   2.463   5.152
41085SOL     OW25087   3.427   2.485   8.416
41085SOL    HW125088   3.380   2.457   8.337
41085SOL    HW225089   3.469   2.567   8.392
41086SOL     OW25090  14.087   7.663   3.103
41086SOL    HW125091  14.099   7.603   3.177
41086SOL    HW225092  14.076   7.605   3.027
41087SOL     OW25093  12.030   8.892  10.638
41087SOL    HW125094  11.945   8.897  10.594
41087SOL    HW225095  12.018   8.938  10.721
41088SOL     OW25096   3.797  14.046   8.121
41088SOL    HW125097   3.892  14.052   8.113
41088SOL    HW225098   3.779  14.074   8.211
41089SOL     OW25099  13.631   4.182   4.559
41089SOL    HW125100  13.598   4.122   4.626
41089SOL    HW225101  13.601   4.145   4.476
41090SOL     OW25102   2.197  14.784   0.913
41090SOL    HW125103   2.214   0.005   0.926
41090SOL    HW225104   2.218  14.744   0.998
41091SOL     OW25105   1.299  12.605   5.638
41091SOL    HW125106   1.287  12.692   5.599
41091SOL    HW225107   1.280  12.544   5.567
41092SOL     OW25108   9.873   7.025  14.549
41092SOL    HW125109   9.817   6.987  14.616
41092SOL    HW225110   9.962   7.003  14.576
41093SOL     OW25111   3.426   2.992  11.024
41093SOL    HW125112   3.436   3.070  10.970
41093SOL    HW225113   3.333   2.969  11.015
41094SOL     OW25114   0.457  10.188   0.037
41094SOL    HW125115   0.411  10.107   0.056
41094SOL    HW225116   0.424  10.250   0.102
41095SOL     OW25117  14.771   2.956   8.742
41095SOL    HW125118  14.797   3.003   8.822
41095SOL    HW225119  14.823   2.875   8.745
41096SOL     OW25120   7.145   8.621   3.807
41096SOL    HW125121   7.065   8.590   3.850
41096SOL    HW225122   7.115   8.679   3.738
41097SOL     OW25123   1.568   6.335   9.494
41097SOL    HW125124   1.560   6.251   9.450
41097SOL    HW225125   1.619   6.316   9.573
41098SOL     OW25126   3.545  10.459   8.254
41098SOL    HW125127   3.457  10.446   8.288
41098SOL    HW225128   3.554  10.393   8.185
41099SOL     OW25129   9.633  14.170   8.414
41099SOL    HW125130   9.654  14.216   8.332
41099SOL    HW225131   9.642  14.078   8.392
41100SOL     OW25132   5.911   0.938   7.050
41100SOL    HW125133   5.977   0.963   6.984
41100SOL    HW225134   5.961   0.890   7.116
41101SOL     OW25135   0.757  10.509  11.028
41101SOL    HW125136   0.753  10.594  10.985
41101SOL    HW225137   0.711  10.449  10.969
41102SOL     OW25138   8.695   3.508  12.696
41102SOL    HW125139   8.611   3.466  12.715
41102SOL    HW225140   8.751   3.486  12.770
41103SOL     OW25141  10.454   1.011   5.862
41103SOL    HW125142  10.447   1.073   5.789
41103SOL    HW225143  10.365   0.981   5.877
41104SOL     OW25144  14.640   9.351   7.533
41104SOL    HW125145  14.729   9.367   7.504
41104SOL    HW225146  14.597   9.436   7.526
41105SOL     OW25147  14.493   7.814  14.017
41105SOL    HW125148  14.527   7.838  14.103
41105SOL    HW225149  14.398   7.810  14.029
41106SOL     OW25150  13.219   7.631   6.285
41106SOL    HW125151  13.141   7.585   6.254
41106SOL    HW225152  13.288   7.565   6.287
41107SOL     OW25153  13.215   1.091   6.326
41107SOL    HW125154  13.218   1.010   6.275
41107SOL    HW225155  13.121   1.110   6.335
41108SOL     OW25156   8.584  10.531   2.701
41108SOL    HW125157   8.636  10.544   2.780
41108SOL    HW225158   8.568  10.437   2.698
41109SOL     OW25159  12.542   9.805   7.531
41109SOL    HW125160  12.466   9.754   7.504
41109SOL    HW225161  12.603   9.799   7.457
41110SOL     OW25162   8.217  14.800   2.640
41110SOL    HW125163   8.150  14.756   2.587
41110SOL    HW225164   8.290  14.738   2.640
41111SOL     OW25165   7.345   9.386   2.827
41111SOL    HW125166   7.252   9.369   2.843
41111SOL    HW225167   7.347   9.433   2.744
41112SOL     OW25168   7.990   9.987  11.620
41112SOL    HW125169   7.995   9.898  11.584
41112SOL    HW225170   8.031   9.980  11.707
41113SOL     OW25171   9.397   8.945   2.568
41113SOL    HW125172   9.342   8.876   2.530
41113SOL    HW225173   9.486   8.914   2.553
41114SOL     OW25174   6.818  10.377   6.064
41114SOL    HW125175   6.760  10.310   6.025
41114SOL    HW225176   6.895  10.328   6.091
41115SOL     OW25177   5.116   8.761  11.321
41115SOL    HW125178   5.134   8.668  11.335
41115SOL    HW225179   5.158   8.805  11.395
41116SOL     OW25180   1.632   4.923   0.659
41116SOL    HW125181   1.675   4.950   0.740
41116SOL    HW225182   1.692   4.951   0.589
41117SOL     OW25183   0.770  11.659  12.447
41117SOL    HW125184   0.767  11.641  12.541
41117SOL    HW225185   0.793  11.752  12.442
41118SOL     OW25186   1.383  13.725   2.766
41118SOL    HW125187   1.462  13.733   2.820
41118SOL    HW225188   1.404  13.772   2.686
41119SOL     OW25189  10.261  13.493   5.338
41119SOL    HW125190  10.214  13.530   5.263
41119SOL    HW225191  10.213  13.413   5.359
41120SOL     OW25192   7.914   6.135   3.695
41120SOL    HW125193   7.915   6.230   3.707
41120SOL    HW225194   8.002   6.114   3.663
41121SOL     OW25195   8.163   0.306   4.480
41121SOL    HW125196   8.196   0.395   4.480
41121SOL    HW225197   8.093   0.305   4.545
41122SOL     OW25198  10.226   2.729   1.994
41122SOL    HW125199  10.300   2.675   2.020
41122SOL    HW225200  10.232   2.807   2.048
41123SOL     OW25201   2.224   0.458   6.236
41123SOL    HW125202   2.248   0.475   6.327
41123SOL    HW225203   2.176   0.375   6.239
41124SOL     OW25204   9.129   5.760   8.308
41124SOL    HW125205   9.068   5.744   8.380
41124SOL    HW225206   9.202   5.808   8.348
41125SOL     OW25207   4.399  14.150  12.157
41125SOL    HW125208   4.349  14.091  12.214
41125SOL    HW225209   4.476  14.174  12.208
41126SOL     OW25210  11.837   6.929   4.827
41126SOL    HW125211  11.760   6.880   4.854
41126SOL    HW225212  11.803   7.009   4.787
41127SOL     OW25213   3.817   0.524   4.592
41127SOL    HW125214   3.883   0.579   4.550
41127SOL    HW225215   3.750   0.512   4.524
41128SOL     OW25216   6.848   4.569   9.653
41128SOL    HW125217   6.854   4.656   9.693
41128SOL    HW225218   6.885   4.510   9.719
41129SOL     OW25219  12.529  11.490  13.839
41129SOL    HW125220  12.500  11.570  13.795
41129SOL    HW225221  12.543  11.516  13.930
41130SOL     OW25222   5.348   4.811   9.853
41130SOL    HW125223   5.418   4.861   9.811
41130SOL    HW225224   5.385   4.783   9.936
41131SOL     OW25225   9.348   5.376   8.372
41131SOL    HW125226   9.257   5.399   8.392
41131SOL    HW225227   9.344   5.344   8.281
41132SOL     OW25228  10.835   4.242   7.655
41132SOL    HW125229  10.831   4.191   7.736
41132SOL    HW225230  10.755   4.218   7.608
41133SOL     OW25231   6.716  11.009  12.831
41133SOL    HW125232   6.666  10.995  12.751
41133SOL    HW225233   6.669  11.077  12.878
41134SOL     OW25234  14.726   6.829   2.656
41134SOL    HW125235  14.813   6.839   2.620
41134SOL    HW225236  14.705   6.736   2.644
41135SOL     OW25237   7.583  13.549  11.466
41135SOL    HW125238   7.584  13.454  11.454
41135SOL    HW225239   7.508  13.565  11.523
41136SOL     OW25240  10.995  11.746   7.169
41136SOL    HW125241  10.907  11.774   7.143
41136SOL    HW225242  10.981  11.683   7.239
41137SOL     OW25243  11.147  12.015   8.825
41137SOL    HW125244  11.227  12.054   8.790
41137SOL    HW225245  11.139  11.931   8.779
41138SOL     OW25246   2.966  10.654  10.590
41138SOL    HW125247   3.060  10.644  10.581
41138SOL    HW225248   2.938  10.575  10.637
41139SOL     OW25249   7.148  10.039   3.620
41139SOL    HW125250   7.175   9.961   3.670
41139SOL    HW225251   7.221  10.099   3.628
41140SOL     OW25252  10.820   7.947   0.534
41140SOL    HW125253  10.884   7.991   0.590
41140SOL    HW225254  10.749   8.010   0.523
41141SOL     OW25255   1.203   9.419   2.140
41141SOL    HW125256   1.221   9.408   2.047
41141SOL    HW225257   1.158   9.338   2.165
41142SOL     OW25258  10.044   0.006   3.274
41142SOL    HW125259  10.018   0.079   3.329
41142SOL    HW225260   9.998  14.803   3.310
41143SOL     OW25261  13.720  10.959   4.125
41143SOL    HW125262  13.789  10.996   4.070
41143SOL    HW225263  13.766  10.910   4.193
41144SOL     OW25264  14.548   4.089   0.501
41144SOL    HW125265  14.585   4.148   0.435
41144SOL    HW225266  14.624   4.058   0.550
41145SOL     OW25267   7.668   9.815  11.366
41145SOL    HW125268   7.702   9.902  11.345
41145SOL    HW225269   7.712   9.757  11.305
41146SOL     OW25270  12.364   8.377   5.907
41146SOL    HW125271  12.303   8.441   5.945
41146SOL    HW225272  12.400   8.420   5.830
41147SOL     OW25273   9.367   4.842   7.365
41147SOL    HW125274   9.456   4.871   7.346
41147SOL    HW225275   9.378   4.779   7.436
41148SOL     OW25276  10.660   1.961  14.823
41148SOL    HW125277  10.620   2.029  14.768
41148SOL    HW225278  10.588   1.931   0.007
41149SOL     OW25279  12.869  13.470   2.602
41149SOL    HW125280  12.950  13.453   2.650
41149SOL    HW225281  12.828  13.542   2.649
41150SOL     OW25282   0.309  12.346   1.254
41150SOL    HW125283   0.359  12.414   1.299
41150SOL    HW225284   0.325  12.266   1.306
41151SOL     OW25285   0.110   6.301  14.258
41151SOL    HW125286   0.015   6.295  14.243
41151SOL    HW225287   0.128   6.395  14.259
41152SOL     OW25288   2.475  13.168   4.574
41152SOL    HW125289   2.499  13.131   4.659
41152SOL    HW225290   2.381  13.186   4.582
41153SOL     OW25291  11.758   4.397   2.985
41153SOL    HW125292  11.798   4.383   3.071
41153SOL    HW225293  11.665   4.380   2.999
41154SOL     OW25294   4.765  11.487   1.784
41154SOL    HW125295   4.776  11.556   1.849
41154SOL    HW225296   4.677  11.502   1.748
41155SOL     OW25297   4.233   2.582  11.163
41155SOL    HW125298   4.327   2.565  11.155
41155SOL    HW225299   4.225   2.634  11.243
41156SOL     OW25300  13.969  13.900   6.075
41156SOL    HW125301  13.936  13.987   6.054
41156SOL    HW225302  13.956  13.891   6.169
41157SOL     OW25303   0.871   6.387  11.884
41157SOL    HW125304   0.941   6.335  11.922
41157SOL    HW225305   0.793   6.364  11.934
41158SOL     OW25306  14.399   1.331   5.270
41158SOL    HW125307  14.364   1.289   5.349
41158SOL    HW225308  14.411   1.258   5.208
41159SOL     OW25309   9.181  14.151   0.963
41159SOL    HW125310   9.255  14.211   0.951
41159SOL    HW225311   9.106  14.209   0.979
41160SOL     OW25312  14.590   2.822   0.249
41160SOL    HW125313  14.612   2.757   0.315
41160SOL    HW225314  14.515   2.870   0.285
41161SOL     OW25315  10.778   2.127   6.918
41161SOL    HW125316  10.816   2.042   6.896
41161SOL    HW225317  10.781   2.131   7.013
41162SOL     OW25318  10.771   9.311   7.911
41162SOL    HW125319  10.859   9.311   7.872
41162SOL    HW225320  10.713   9.312   7.835
41163SOL     OW25321   5.985  12.001  12.766
41163SOL    HW125322   5.985  12.061  12.840
41163SOL    HW225323   6.049  11.933  12.791
41164SOL     OW25324  13.550  10.372   4.440
41164SOL    HW125325  13.509  10.395   4.356
41164SOL    HW225326  13.618  10.438   4.452
41165SOL     OW25327  13.428   9.611  10.042
41165SOL    HW125328  13.422   9.625   9.947
41165SOL    HW225329  13.340   9.627  10.075
41166SOL     OW25330   2.861  14.648   6.941
41166SOL    HW125331   2.836  14.556   6.939
41166SOL    HW225332   2.914  14.661   6.862
41167SOL     OW25333   3.320   9.247   3.456
41167SOL    HW125334   3.401   9.253   3.507
41167SOL    HW225335   3.318   9.329   3.406
41168SOL     OW25336   4.548   9.145   8.353
41168SOL    HW125337   4.557   9.096   8.435
41168SOL    HW225338   4.528   9.234   8.380
41169SOL     OW25339   6.590  12.529   3.830
41169SOL    HW125340   6.678  12.511   3.862
41169SOL    HW225341   6.535  12.459   3.865
41170SOL     OW25342  13.391  14.312   2.674
41170SOL    HW125343  13.308  14.296   2.630
41170SOL    HW225344  13.384  14.265   2.757
41171SOL     OW25345  12.725   9.822  12.656
41171SOL    HW125346  12.659   9.793  12.593
41171SOL    HW225347  12.692   9.905  12.690
41172SOL     OW25348   9.758  14.466  13.552
41172SOL    HW125349   9.826  14.469  13.484
41172SOL    HW225350   9.754  14.556  13.585
41173SOL     OW25351  12.419   4.314   7.732
41173SOL    HW125352  12.358   4.295   7.803
41173SOL    HW225353  12.380   4.388   7.686
41174SOL     OW25354  11.234  13.822  11.431
41174SOL    HW125355  11.260  13.821  11.523
41174SOL    HW225356  11.314  13.846  11.384
41175SOL     OW25357   0.029   1.711  11.648
41175SOL    HW125358  14.862   1.658  11.579
41175SOL    HW225359   0.123   1.704  11.633
41176SOL     OW25360   5.496   6.992   3.173
41176SOL    HW125361   5.449   7.046   3.110
41176SOL    HW225362   5.491   6.903   3.138
41177SOL     OW25363  10.252  14.065   3.536
41177SOL    HW125364  10.241  14.007   3.462
41177SOL    HW225365  10.220  14.015   3.611
41178SOL     OW25366   7.404  12.350   4.936
41178SOL    HW125367   7.315  12.376   4.959
41178SOL    HW225368   7.442  12.428   4.895
41179SOL     OW25369   1.777  10.463  13.996
41179SOL    HW125370   1.772  10.481  13.903
41179SOL    HW225371   1.811  10.373  14.001
41180SOL     OW25372   7.546   9.748  13.289
41180SOL    HW125373   7.522   9.655  13.295
41180SOL    HW225374   7.463   9.793  13.273
41181SOL     OW25375   0.850   3.550  10.485
41181SOL    HW125376   0.847   3.624  10.545
41181SOL    HW225377   0.924   3.497  10.515
41182SOL     OW25378   5.438   1.934   2.054
41182SOL    HW125379   5.483   1.884   2.123
41182SOL    HW225380   5.479   1.905   1.973
41183SOL     OW25381  11.667   2.837   1.756
41183SOL    HW125382  11.666   2.834   1.660
41183SOL    HW225383  11.718   2.915   1.776
41184SOL     OW25384   5.842  12.205   1.567
41184SOL    HW125385   5.926  12.250   1.576
41184SOL    HW225386   5.799  12.248   1.493
41185SOL     OW25387   2.633   9.017   6.506
41185SOL    HW125388   2.692   9.032   6.431
41185SOL    HW225389   2.635   8.922   6.518
41186SOL     OW25390  14.323  14.851   8.613
41186SOL    HW125391  14.280  14.810   8.538
41186SOL    HW225392  14.296   0.070   8.608
41187SOL     OW25393  12.944   9.971   0.435
41187SOL    HW125394  12.889  10.046   0.455
41187SOL    HW225395  12.936   9.960   0.340
41188SOL     OW25396   0.932   6.243   0.128
41188SOL    HW125397   0.984   6.322   0.116
41188SOL    HW225398   0.922   6.207   0.040
41189SOL     OW25399   6.189   8.683   9.513
41189SOL    HW125400   6.278   8.661   9.541
41189SOL    HW225401   6.174   8.628   9.436
41190SOL     OW25402   2.844  13.840   6.459
41190SOL    HW125403   2.768  13.821   6.403
41190SOL    HW225404   2.815  13.913   6.513
41191SOL     OW25405  14.042   1.773   1.051
41191SOL    HW125406  14.058   1.851   0.998
41191SOL    HW225407  14.084   1.793   1.135
41192SOL     OW25408   5.854   2.090   8.739
41192SOL    HW125409   5.899   2.052   8.663
41192SOL    HW225410   5.867   2.185   8.730
41193SOL     OW25411  10.864   4.650  14.706
41193SOL    HW125412  10.860   4.744  14.720
41193SOL    HW225413  10.945   4.622  14.748
41194SOL     OW25414   1.728   6.472  11.773
41194SOL    HW125415   1.699   6.549  11.822
41194SOL    HW225416   1.823   6.477  11.774
41195SOL     OW25417   2.289   9.783  14.531
41195SOL    HW125418   2.354   9.768  14.600
41195SOL    HW225419   2.300   9.710  14.471
41196SOL     OW25420  10.658  12.499   1.285
41196SOL    HW125421  10.684  12.506   1.193
41196SOL    HW225422  10.562  12.500   1.283
41197SOL     OW25423   6.841   5.207   6.926
41197SOL    HW125424   6.779   5.183   6.857
41197SOL    HW225425   6.869   5.123   6.963
41198SOL     OW25426   8.503  13.786   8.795
41198SOL    HW125427   8.432  13.727   8.769
41198SOL    HW225428   8.468  13.874   8.779
41199SOL     OW25429  12.291   0.252   0.626
41199SOL    HW125430  12.321   0.177   0.575
41199SOL    HW225431  12.270   0.216   0.712
41200SOL     OW25432   8.049   2.223   6.482
41200SOL    HW125433   8.079   2.242   6.571
41200SOL    HW225434   8.041   2.309   6.441
41201SOL     OW25435   6.947   4.192   3.378
41201SOL    HW125436   6.983   4.118   3.329
41201SOL    HW225437   6.858   4.165   3.401
41202SOL     OW25438   7.036   8.539  10.742
41202SOL    HW125439   6.951   8.502  10.766
41202SOL    HW225440   7.024   8.633  10.751
41203SOL     OW25441   4.803  13.406   1.317
41203SOL    HW125442   4.728  13.463   1.297
41203SOL    HW225443   4.765  13.334   1.367
41204SOL     OW25444   4.981   2.427   3.789
41204SOL    HW125445   5.026   2.511   3.782
41204SOL    HW225446   4.927   2.434   3.867
41205SOL     OW25447  11.325   4.380   6.102
41205SOL    HW125448  11.402   4.389   6.046
41205SOL    HW225449  11.324   4.459   6.156
41206SOL     OW25450  14.517  12.095  10.065
41206SOL    HW125451  14.444  12.043  10.097
41206SOL    HW225452  14.561  12.127  10.144
41207SOL     OW25453   3.322   2.599   4.832
41207SOL    HW125454   3.333   2.685   4.791
41207SOL    HW225455   3.276   2.617   4.913
41208SOL     OW25456  13.077  11.554  12.684
41208SOL    HW125457  13.094  11.605  12.763
41208SOL    HW225458  13.024  11.480  12.713
41209SOL     OW25459   2.024   6.546  11.495
41209SOL    HW125460   1.980   6.470  11.454
41209SOL    HW225461   1.973   6.621  11.465
41210SOL     OW25462   9.168  12.553   2.057
41210SOL    HW125463   9.238  12.587   2.112
41210SOL    HW225464   9.194  12.464   2.036
41211SOL     OW25465   6.973   2.406   9.235
41211SOL    HW125466   7.022   2.365   9.305
41211SOL    HW225467   6.914   2.467   9.279
41212SOL     OW25468   6.319   2.915   7.928
41212SOL    HW125469   6.316   2.820   7.915
41212SOL    HW225470   6.385   2.945   7.866
41213SOL     OW25471  13.506   0.215   9.474
41213SOL    HW125472  13.576   0.232   9.537
41213SOL    HW225473  13.445   0.287   9.486
41214SOL     OW25474   9.646   1.899   2.572
41214SOL    HW125475   9.565   1.923   2.527
41214SOL    HW225476   9.617   1.866   2.657
41215SOL     OW25477   3.702   9.570   2.777
41215SOL    HW125478   3.781   9.556   2.830
41215SOL    HW225479   3.684   9.484   2.739
41216SOL     OW25480  13.673  10.522   0.461
41216SOL    HW125481  13.663  10.440   0.413
41216SOL    HW225482  13.764  10.520   0.491
41217SOL     OW25483   7.591  11.971   0.189
41217SOL    HW125484   7.646  11.925   0.253
41217SOL    HW225485   7.553  11.901   0.136
41218SOL     OW25486   2.562   4.608  10.915
41218SOL    HW125487   2.499   4.597  10.844
41218SOL    HW225488   2.643   4.572  10.882
41219SOL     OW25489   4.881  14.381  10.126
41219SOL    HW125490   4.946  14.312  10.132
41219SOL    HW225491   4.914  14.440  10.059
41220SOL     OW25492   5.912   7.606   4.701
41220SOL    HW125493   5.840   7.596   4.638
41220SOL    HW225494   5.896   7.691   4.742
41221SOL     OW25495   2.405  10.674  11.792
41221SOL    HW125496   2.317  10.637  11.800
41221SOL    HW225497   2.392  10.757  11.746
41222SOL     OW25498   1.589  11.390   3.909
41222SOL    HW125499   1.536  11.370   3.987
41222SOL    HW225500   1.570  11.482   3.890
41223SOL     OW25501   3.621  11.076  10.879
41223SOL    HW125502   3.566  11.112  10.948
41223SOL    HW225503   3.624  10.982  10.897
41224SOL     OW25504   6.831   5.215  14.738
41224SOL    HW125505   6.902   5.223  14.802
41224SOL    HW225506   6.845   5.288  14.678
41225SOL     OW25507   9.220   6.349   0.916
41225SOL    HW125508   9.161   6.320   0.846
41225SOL    HW225509   9.167   6.410   0.968
41226SOL     OW25510   2.499   9.540   9.194
41226SOL    HW125511   2.532   9.496   9.273
41226SOL    HW225512   2.406   9.515   9.191
41227SOL     OW25513  13.714   5.272  10.815
41227SOL    HW125514  13.720   5.216  10.894
41227SOL    HW225515  13.795   5.254  10.768
41228SOL     OW25516  14.728   2.785   2.401
41228SOL    HW125517  14.708   2.822   2.487
41228SOL    HW225518  14.709   2.856   2.340
41229SOL     OW25519  11.367  11.347  12.629
41229SOL    HW125520  11.442  11.402  12.649
41229SOL    HW225521  11.384  11.265  12.675
41230SOL     OW25522   2.678  11.297   2.252
41230SOL    HW125523   2.737  11.343   2.312
41230SOL    HW225524   2.735  11.245   2.196
41231SOL     OW25525   9.768  11.276   9.145
41231SOL    HW125526   9.704  11.249   9.211
41231SOL    HW225527   9.753  11.370   9.133
41232SOL     OW25528   6.955  14.656   6.855
41232SOL    HW125529   6.871  14.688   6.888
41232SOL    HW225530   6.988  14.599   6.924
41233SOL     OW25531   0.083   2.755   7.957
41233SOL    HW125532   0.024   2.831   7.956
41233SOL    HW225533   0.151   2.779   8.020
41234SOL     OW25534  11.546  10.260  10.617
41234SOL    HW125535  11.460  10.229  10.587
41234SOL    HW225536  11.591  10.285  10.536
41235SOL     OW25537   8.372   8.634   0.284
41235SOL    HW125538   8.305   8.686   0.328
41235SOL    HW225539   8.423   8.595   0.355
41236SOL     OW25540   2.131   5.826  14.213
41236SOL    HW125541   2.098   5.908  14.249
41236SOL    HW225542   2.212   5.851  14.167
41237SOL     OW25543   6.590   5.390  14.152
41237SOL    HW125544   6.602   5.311  14.099
41237SOL    HW225545   6.618   5.365  14.240
41238SOL     OW25546   5.113  12.499   9.148
41238SOL    HW125547   5.026  12.460   9.154
41238SOL    HW225548   5.140  12.513   9.239
41239SOL     OW25549  12.485   1.699   8.308
41239SOL    HW125550  12.464   1.695   8.401
41239SOL    HW225551  12.456   1.615   8.272
41240SOL     OW25552   2.890   0.225  12.283
41240SOL    HW125553   2.859   0.138  12.259
41240SOL    HW225554   2.818   0.264  12.332
41241SOL     OW25555  10.910  13.652  12.164
41241SOL    HW125556  10.940  13.739  12.188
41241SOL    HW225557  10.837  13.668  12.104
41242SOL     OW25558  13.596  11.425   5.596
41242SOL    HW125559  13.628  11.515   5.596
41242SOL    HW225560  13.504  11.432   5.619
41243SOL     OW25561   7.091   8.319   5.386
41243SOL    HW125562   7.060   8.235   5.351
41243SOL    HW225563   7.079   8.381   5.315
41244SOL     OW25564  12.468   9.591  10.990
41244SOL    HW125565  12.389   9.623  11.034
41244SOL    HW225566  12.451   9.497  10.976
41245SOL     OW25567   9.947   3.902   0.690
41245SOL    HW125568   9.878   3.917   0.755
41245SOL    HW225569   9.982   3.815   0.711
41246SOL     OW25570   1.902   1.156   3.959
41246SOL    HW125571   1.878   1.093   4.027
41246SOL    HW225572   1.912   1.103   3.880
41247SOL     OW25573  10.375   5.876   4.500
41247SOL    HW125574  10.426   5.798   4.481
41247SOL    HW225575  10.427   5.924   4.565
41248SOL     OW25576   7.582   0.342  12.947
41248SOL    HW125577   7.548   0.429  12.969
41248SOL    HW225578   7.639   0.356  12.872
41249SOL     OW25579   6.311   1.722   1.143
41249SOL    HW125580   6.267   1.799   1.179
41249SOL    HW225581   6.283   1.650   1.200
41250SOL     OW25582   8.861  11.044   1.136
41250SOL    HW125583   8.918  11.095   1.192
41250SOL    HW225584   8.916  10.974   1.101
41251SOL     OW25585  12.275   8.965  12.429
41251SOL    HW125586  12.354   9.002  12.469
41251SOL    HW225587  12.238   9.036  12.378
41252SOL     OW25588   4.831  10.069  12.111
41252SOL    HW125589   4.921  10.048  12.085
41252SOL    HW225590   4.819  10.159  12.081
41253SOL     OW25591   1.724  14.716   2.155
41253SOL    HW125592   1.636  14.689   2.182
41253SOL    HW225593   1.776  14.710   2.235
41254SOL     OW25594   4.317  10.985  11.129
41254SOL    HW125595   4.373  11.053  11.166
41254SOL    HW225596   4.366  10.951  11.054
41255SOL     OW25597   6.172   1.551   3.908
41255SOL    HW125598   6.183   1.592   3.994
41255SOL    HW225599   6.094   1.497   3.917
41256SOL     OW25600   0.072   8.350   1.560
41256SOL    HW125601   0.024   8.433   1.558
41256SOL    HW225602   0.004   8.283   1.569
41257SOL     OW25603  10.736   6.398   5.836
41257SOL    HW125604  10.681   6.321   5.832
41257SOL    HW225605  10.689   6.459   5.893
41258SOL     OW25606   0.759  13.123  13.846
41258SOL    HW125607   0.723  13.067  13.778
41258SOL    HW225608   0.814  13.064  13.899
41259SOL     OW25609   6.346  10.903  13.321
41259SOL    HW125610   6.340  10.807  13.319
41259SOL    HW225611   6.264  10.931  13.363
41260SOL     OW25612   3.264   3.407   6.978
41260SOL    HW125613   3.170   3.413   6.997
41260SOL    HW225614   3.268   3.383   6.886
41261SOL     OW25615  10.222   2.942   2.154
41261SOL    HW125616  10.285   2.982   2.214
41261SOL    HW225617  10.186   3.016   2.105
41262SOL     OW25618   4.895   0.539  12.196
41262SOL    HW125619   4.816   0.568  12.243
41262SOL    HW225620   4.948   0.496  12.264
41263SOL     OW25621  13.623   5.490   5.847
41263SOL    HW125622  13.619   5.399   5.818
41263SOL    HW225623  13.556   5.496   5.915
41264SOL     OW25624   2.752  13.114   6.005
41264SOL    HW125625   2.719  13.032   6.041
41264SOL    HW225626   2.692  13.135   5.933
41265SOL     OW25627  11.992   2.987   7.660
41265SOL    HW125628  11.991   3.029   7.746
41265SOL    HW225629  12.073   2.936   7.660
41266SOL     OW25630   9.714   1.491  10.440
41266SOL    HW125631   9.638   1.478  10.382
41266SOL    HW225632   9.789   1.460  10.389
41267SOL     OW25633   9.082   4.434  13.232
41267SOL    HW125634   9.064   4.340  13.238
41267SOL    HW225635   9.144   4.442  13.160
41268SOL     OW25636   5.499  14.472   6.133
41268SOL    HW125637   5.560  14.433   6.071
41268SOL    HW225638   5.435  14.403   6.150
41269SOL     OW25639   2.586   7.401   9.273
41269SOL    HW125640   2.605   7.396   9.367
41269SOL    HW225641   2.609   7.490   9.248
41270SOL     OW25642   7.791   5.969   2.290
41270SOL    HW125643   7.703   5.971   2.327
41270SOL    HW225644   7.780   6.005   2.202
41271SOL     OW25645   1.799  12.105   4.239
41271SOL    HW125646   1.784  12.160   4.315
41271SOL    HW225647   1.893  12.114   4.221
41272SOL     OW25648   1.025   4.620  13.864
41272SOL    HW125649   1.098   4.559  13.856
41272SOL    HW225650   1.007   4.648  13.774
41273SOL     OW25651   7.440   6.272   3.657
41273SOL    HW125652   7.454   6.317   3.740
41273SOL    HW225653   7.491   6.322   3.593
41274SOL     OW25654   0.379   7.022  11.911
41274SOL    HW125655   0.298   7.002  11.864
41274SOL    HW225656   0.429   7.077  11.850
41275SOL     OW25657   2.085   9.934   4.961
41275SOL    HW125658   2.072  10.027   4.941
41275SOL    HW225659   2.161   9.932   5.019
41276SOL     OW25660  11.137  10.838   4.519
41276SOL    HW125661  11.070  10.770   4.527
41276SOL    HW225662  11.146  10.873   4.608
41277SOL     OW25663   1.705   7.015   0.717
41277SOL    HW125664   1.638   7.080   0.736
41277SOL    HW225665   1.679   6.939   0.770
41278SOL     OW25666  10.989   7.641   7.433
41278SOL    HW125667  10.905   7.624   7.392
41278SOL    HW225668  11.047   7.572   7.399
41279SOL     OW25669   2.136   6.033   4.583
41279SOL    HW125670   2.178   6.102   4.635
41279SOL    HW225671   2.146   6.063   4.492
41280SOL     OW25672   1.275  14.484   6.685
41280SOL    HW125673   1.285  14.415   6.750
41280SOL    HW225674   1.360  14.488   6.640
41281SOL     OW25675  10.013  13.583   7.373
41281SOL    HW125676  10.091  13.612   7.420
41281SOL    HW225677   9.997  13.651   7.308
41282SOL     OW25678   0.148  10.404   9.208
41282SOL    HW125679   0.215  10.438   9.149
41282SOL    HW225680   0.079  10.470   9.207
41283SOL     OW25681   6.562  10.268  13.760
41283SOL    HW125682   6.624  10.333  13.794
41283SOL    HW225683   6.601  10.238  13.678
41284SOL     OW25684   9.640  12.375   9.342
41284SOL    HW125685   9.616  12.434   9.414
41284SOL    HW225686   9.640  12.288   9.382
41285SOL     OW25687   4.783  13.580   3.490
41285SOL    HW125688   4.780  13.670   3.520
41285SOL    HW225689   4.719  13.534   3.544
41286SOL     OW25690   4.738   5.364   2.211
41286SOL    HW125691   4.760   5.398   2.124
41286SOL    HW225692   4.806   5.398   2.269
41287SOL     OW25693   5.202   0.187  13.345
41287SOL    HW125694   5.262   0.225  13.410
41287SOL    HW225695   5.202   0.250  13.273
41288SOL     OW25696   8.858   7.563  10.749
41288SOL    HW125697   8.904   7.510  10.684
41288SOL    HW225698   8.892   7.533  10.833
41289SOL     OW25699  11.782  14.656   9.026
41289SOL    HW125700  11.865  14.669   9.072
41289SOL    HW225701  11.765  14.562   9.032
41290SOL     OW25702   6.775  11.208  11.587
41290SOL    HW125703   6.846  11.201  11.524
41290SOL    HW225704   6.707  11.150  11.554
41291SOL     OW25705   2.655   6.066   9.034
41291SOL    HW125706   2.720   6.136   9.038
41291SOL    HW225707   2.580   6.100   9.082
41292SOL     OW25708  13.767  11.723  11.573
41292SOL    HW125709  13.806  11.691  11.491
41292SOL    HW225710  13.731  11.644  11.614
41293SOL     OW25711   7.388   0.130   4.604
41293SOL    HW125712   7.368   0.221   4.627
41293SOL    HW225713   7.309   0.098   4.561
41294SOL     OW25714   8.168   3.309   0.241
41294SOL    HW125715   8.122   3.336   0.321
41294SOL    HW225716   8.102   3.259   0.192
41295SOL     OW25717   2.495   6.819  11.214
41295SOL    HW125718   2.449   6.835  11.131
41295SOL    HW225719   2.534   6.903  11.236
41296SOL     OW25720   7.940  14.175  14.712
41296SOL    HW125721   7.876  14.167  14.781
41296SOL    HW225722   7.902  14.239  14.651
41297SOL     OW25723  10.633   2.978   4.308
41297SOL    HW125724  10.669   2.928   4.235
41297SOL    HW225725  10.710   3.019   4.349
41298SOL     OW25726   3.782  14.153  11.312
41298SOL    HW125727   3.759  14.074  11.361
41298SOL    HW225728   3.793  14.123  11.222
41299SOL     OW25729   9.130   3.231  11.976
41299SOL    HW125730   9.091   3.153  12.017
41299SOL    HW225731   9.109   3.223  11.883
41300SOL     OW25732   1.958  10.458   0.260
41300SOL    HW125733   1.958  10.496   0.173
41300SOL    HW225734   1.975  10.532   0.319
41301SOL     OW25735   7.449   3.755   0.760
41301SOL    HW125736   7.414   3.752   0.672
41301SOL    HW225737   7.407   3.682   0.805
41302SOL     OW25738   4.997   3.672   6.649
41302SOL    HW125739   5.080   3.694   6.606
41302SOL    HW225740   4.931   3.716   6.596
41303SOL     OW25741  12.529   0.280   3.260
41303SOL    HW125742  12.582   0.332   3.320
41303SOL    HW225743  12.449   0.262   3.309
41304SOL     OW25744   2.280   1.351  11.011
41304SOL    HW125745   2.264   1.445  11.001
41304SOL    HW225746   2.197   1.316  11.044
41305SOL     OW25747  10.558   7.543   6.493
41305SOL    HW125748  10.483   7.487   6.515
41305SOL    HW225749  10.616   7.487   6.442
41306SOL     OW25750   2.022   8.435  10.987
41306SOL    HW125751   1.970   8.515  10.973
41306SOL    HW225752   2.099   8.465  11.035
41307SOL     OW25753   8.646   8.685   2.688
41307SOL    HW125754   8.559   8.721   2.670
41307SOL    HW225755   8.647   8.671   2.783
41308SOL     OW25756   3.510   5.504   4.092
41308SOL    HW125757   3.488   5.594   4.068
41308SOL    HW225758   3.589   5.511   4.145
41309SOL     OW25759  10.006   8.106   8.779
41309SOL    HW125760   9.927   8.147   8.814
41309SOL    HW225761  10.076   8.167   8.801
41310SOL     OW25762   0.427  13.079   3.726
41310SOL    HW125763   0.367  13.014   3.688
41310SOL    HW225764   0.369  13.141   3.770
41311SOL     OW25765  12.067   8.028   8.396
41311SOL    HW125766  12.127   8.003   8.466
41311SOL    HW225767  12.077   8.123   8.389
41312SOL     OW25768   6.661   8.950   8.610
41312SOL    HW125769   6.607   8.893   8.664
41312SOL    HW225770   6.707   9.007   8.673
41313SOL     OW25771   2.794   1.563   1.769
41313SOL    HW125772   2.738   1.543   1.695
41313SOL    HW225773   2.864   1.498   1.765
41314SOL     OW25774   0.120   2.880   4.702
41314SOL    HW125775   0.034   2.861   4.664
41314SOL    HW225776   0.101   2.895   4.795
41315SOL     OW25777   7.539   8.913  14.706
41315SOL    HW125778   7.551   8.851  14.634
41315SOL    HW225779   7.572   8.866  14.783
41316SOL     OW25780   0.981  14.780  12.295
41316SOL    HW125781   0.984  14.800  12.201
41316SOL    HW225782   0.919  14.843  12.331
41317SOL     OW25783  14.221  10.078   7.726
41317SOL    HW125784  14.126  10.075   7.735
41317SOL    HW225785  14.241  10.012   7.659
41318SOL     OW25786   5.066  12.900   7.490
41318SOL    HW125787   5.015  12.947   7.556
41318SOL    HW225788   5.114  12.968   7.444
41319SOL     OW25789   8.238   8.716   9.166
41319SOL    HW125790   8.234   8.798   9.117
41319SOL    HW225791   8.231   8.743   9.258
41320SOL     OW25792  10.769   8.137   6.152
41320SOL    HW125793  10.839   8.201   6.163
41320SOL    HW225794  10.738   8.120   6.241
41321SOL     OW25795   9.075   5.981   5.977
41321SOL    HW125796   9.024   5.940   6.046
41321SOL    HW225797   9.116   5.908   5.930
41322SOL     OW25798   3.812   9.288   6.949
41322SOL    HW125799   3.804   9.367   7.003
41322SOL    HW225800   3.736   9.292   6.890
41323SOL     OW25801  11.386   5.606   9.924
41323SOL    HW125802  11.432   5.553   9.859
41323SOL    HW225803  11.365   5.544   9.994
41324SOL     OW25804   6.288  14.490   3.884
41324SOL    HW125805   6.367  14.496   3.938
41324SOL    HW225806   6.311  14.431   3.812
41325SOL     OW25807   5.161  11.019   1.171
41325SOL    HW125808   5.077  11.036   1.128
41325SOL    HW225809   5.200  11.106   1.182
41326SOL     OW25810  12.287  10.988  12.987
41326SOL    HW125811  12.324  11.075  12.971
41326SOL    HW225812  12.208  10.986  12.934
41327SOL     OW25813   8.760   7.423   4.463
41327SOL    HW125814   8.840   7.374   4.446
41327SOL    HW225815   8.713   7.423   4.380
41328SOL     OW25816   2.304  14.280   1.959
41328SOL    HW125817   2.214  14.247   1.961
41328SOL    HW225818   2.303  14.347   1.890
41329SOL     OW25819   0.053   6.086  13.824
41329SOL    HW125820   0.120   6.143  13.862
41329SOL    HW225821   0.019   6.136  13.750
41330SOL     OW25822  13.556   6.855   2.813
41330SOL    HW125823  13.544   6.915   2.887
41330SOL    HW225824  13.646   6.824   2.822
41331SOL     OW25825  14.352   5.850  14.453
41331SOL    HW125826  14.258   5.853  14.435
41331SOL    HW225827  14.359   5.822  14.544
41332SOL     OW25828   0.455  14.824   4.725
41332SOL    HW125829   0.462  14.730   4.708
41332SOL    HW225830   0.464  14.832   4.820
41333SOL     OW25831   5.660   5.852   6.081
41333SOL    HW125832   5.731   5.908   6.050
41333SOL    HW225833   5.686   5.764   6.055
41334SOL     OW25834   0.485   6.663  14.688
41334SOL    HW125835   0.431   6.717  14.747
41334SOL    HW225836   0.496   6.717  14.610
41335SOL     OW25837   8.334   7.341  14.828
41335SOL    HW125838   8.385   7.422  14.828
41335SOL    HW225839   8.399   7.272  14.845
41336SOL     OW25840   0.086  11.271   5.698
41336SOL    HW125841   0.090  11.241   5.607
41336SOL    HW225842   0.130  11.356   5.697
41337SOL     OW25843   0.015  10.308   0.960
41337SOL    HW125844   0.051  10.247   0.895
41337SOL    HW225845  14.793  10.303   0.946
41338SOL     OW25846  14.410   3.452   4.234
41338SOL    HW125847  14.499   3.466   4.266
41338SOL    HW225848  14.415   3.370   4.185
41339SOL     OW25849  13.714   0.945  11.450
41339SOL    HW125850  13.629   0.903  11.453
41339SOL    HW225851  13.774   0.882  11.489
41340SOL     OW25852   7.823   7.991   3.673
41340SOL    HW125853   7.867   8.015   3.755
41340SOL    HW225854   7.802   8.075   3.632
41341SOL     OW25855  13.675   2.728   8.820
41341SOL    HW125856  13.740   2.741   8.888
41341SOL    HW225857  13.678   2.807   8.767
41342SOL     OW25858  12.295   6.502   3.746
41342SOL    HW125859  12.367   6.555   3.710
41342SOL    HW225860  12.337   6.420   3.774
41343SOL     OW25861   1.843   8.702   1.396
41343SOL    HW125862   1.757   8.663   1.382
41343SOL    HW225863   1.826   8.796   1.405
41344SOL     OW25864  10.279   6.500   1.827
41344SOL    HW125865  10.254   6.425   1.772
41344SOL    HW225866  10.337   6.462   1.894
41345SOL     OW25867  10.861   4.594   4.553
41345SOL    HW125868  10.903   4.561   4.473
41345SOL    HW225869  10.808   4.668   4.524
41346SOL     OW25870   4.044  10.269   8.602
41346SOL    HW125871   4.077  10.219   8.677
41346SOL    HW225872   4.106  10.249   8.531
41347SOL     OW25873  13.652  10.529   5.659
41347SOL    HW125874  13.714  10.525   5.731
41347SOL    HW225875  13.680  10.603   5.607
41348SOL     OW25876   2.687   0.113   1.506
41348SOL    HW125877   2.696   0.202   1.473
41348SOL    HW225878   2.728   0.059   1.438
41349SOL     OW25879  13.595   6.995   9.928
41349SOL    HW125880  13.630   6.977   9.841
41349SOL    HW225881  13.651   6.945   9.987
41350SOL     OW25882  12.673   2.462   4.796
41350SOL    HW125883  12.720   2.397   4.744
41350SOL    HW225884  12.607   2.412   4.844
41351SOL     OW25885   5.947   0.740   4.777
41351SOL    HW125886   5.893   0.818   4.767
41351SOL    HW225887   5.890   0.677   4.821
41352SOL     OW25888  14.514   2.829  14.529
41352SOL    HW125889  14.571   2.801  14.600
41352SOL    HW225890  14.443   2.766  14.528
41353SOL     OW25891   6.923   7.046   5.267
41353SOL    HW125892   7.004   7.012   5.230
41353SOL    HW225893   6.942   7.061   5.359
41354SOL     OW25894   3.891  14.108   2.906
41354SOL    HW125895   3.962  14.139   2.963
41354SOL    HW225896   3.935  14.055   2.840
41355SOL     OW25897   4.615   2.255  13.238
41355SOL    HW125898   4.632   2.326  13.175
41355SOL    HW225899   4.627   2.175  13.187
41356SOL     OW25900   2.957   0.517   7.685
41356SOL    HW125901   3.048   0.534   7.708
41356SOL    HW225902   2.908   0.537   7.765
41357SOL     OW25903   3.670   5.510  11.347
41357SOL    HW125904   3.636   5.570  11.281
41357SOL    HW225905   3.678   5.563  11.426
41358SOL     OW25906   3.123   3.996   3.820
41358SOL    HW125907   3.031   3.974   3.830
41358SOL    HW225908   3.134   4.077   3.870
41359SOL     OW25909   9.420   8.080   7.530
41359SOL    HW125910   9.343   8.112   7.577
41359SOL    HW225911   9.421   8.130   7.448
41360SOL     OW25912   1.187   1.803   3.758
41360SOL    HW125913   1.189   1.828   3.850
41360SOL    HW225914   1.260   1.851   3.718
41361SOL     OW25915  13.259  12.855   6.429
41361SOL    HW125916  13.308  12.931   6.396
41361SOL    HW225917  13.207  12.826   6.355
41362SOL     OW25918  13.771   1.417   8.145
41362SOL    HW125919  13.761   1.364   8.224
41362SOL    HW225920  13.838   1.481   8.167
41363SOL     OW25921  11.522   0.650   8.865
41363SOL    HW125922  11.588   0.598   8.911
41363SOL    HW225923  11.471   0.585   8.816
41364SOL     OW25924   0.079   2.653  14.446
41364SOL    HW125925   0.094   2.649  14.540
41364SOL    HW225926   0.016   2.723  14.434
41365SOL     OW25927   6.981   8.940  12.884
41365SOL    HW125928   7.041   8.991  12.939
41365SOL    HW225929   7.038   8.893  12.823
41366SOL     OW25930  11.773   4.603   5.799
41366SOL    HW125931  11.809   4.630   5.715
41366SOL    HW225932  11.801   4.671   5.860
41367SOL     OW25933   9.637  12.675  10.740
41367SOL    HW125934   9.639  12.672  10.835
41367SOL    HW225935   9.601  12.762  10.720
41368SOL     OW25936   7.126   3.200   9.100
41368SOL    HW125937   7.131   3.235   9.189
41368SOL    HW225938   7.078   3.118   9.110
41369SOL     OW25939   8.225   1.516   4.065
41369SOL    HW125940   8.176   1.558   4.135
41369SOL    HW225941   8.158   1.479   4.007
41370SOL     OW25942   6.953   7.184   4.327
41370SOL    HW125943   6.858   7.195   4.314
41370SOL    HW225944   6.992   7.258   4.280
41371SOL     OW25945   5.295   8.046   0.032
41371SOL    HW125946   5.250   8.041   0.116
41371SOL    HW225947   5.387   8.031   0.054
41372SOL     OW25948  10.127   2.308   3.341
41372SOL    HW125949  10.094   2.305   3.431
41372SOL    HW225950  10.049   2.302   3.286
41373SOL     OW25951   3.701  11.836  10.250
41373SOL    HW125952   3.681  11.928  10.270
41373SOL    HW225953   3.771  11.841  10.185
41374SOL     OW25954  11.410  10.875   0.072
41374SOL    HW125955  11.481  10.887   0.134
41374SOL    HW225956  11.454  10.858  14.861
41375SOL     OW25957  13.929   6.069  14.528
41375SOL    HW125958  13.963   6.140  14.583
41375SOL    HW225959  13.879   6.013  14.588
41376SOL     OW25960  12.048   8.937  12.559
41376SOL    HW125961  12.023   8.845  12.566
41376SOL    HW225962  12.138   8.935  12.527
41377SOL     OW25963   8.922   3.440   0.183
41377SOL    HW125964   8.952   3.422   0.094
41377SOL    HW225965   8.970   3.518   0.210
41378SOL     OW25966  11.193   0.434  11.079
41378SOL    HW125967  11.166   0.371  11.146
41378SOL    HW225968  11.255   0.386  11.024
41379SOL     OW25969  14.764   4.482   4.978
41379SOL    HW125970  14.724   4.436   4.904
41379SOL    HW225971  14.740   4.430   5.055
41380SOL     OW25972   8.869   3.284   0.403
41380SOL    HW125973   8.888   3.338   0.326
41380SOL    HW225974   8.933   3.313   0.468
41381SOL     OW25975   6.922  12.381   8.751
41381SOL    HW125976   6.868  12.406   8.826
41381SOL    HW225977   6.990  12.448   8.747
41382SOL     OW25978   7.857   5.238   8.779
41382SOL    HW125979   7.912   5.159   8.778
41382SOL    HW225980   7.770   5.206   8.802
41383SOL     OW25981   0.466  11.892  14.025
41383SOL    HW125982   0.393  11.876  14.084
41383SOL    HW225983   0.538  11.839  14.061
41384SOL     OW25984   6.206   9.380  10.800
41384SOL    HW125985   6.250   9.346  10.721
41384SOL    HW225986   6.129   9.324  10.810
41385SOL     OW25987  13.720   1.617  10.451
41385SOL    HW125988  13.657   1.595  10.519
41385SOL    HW225989  13.666   1.643  10.376
41386SOL     OW25990  10.574   4.062   0.499
41386SOL    HW125991  10.580   3.992   0.433
41386SOL    HW225992  10.480   4.081   0.504
41387SOL     OW25993   4.038  11.835   0.926
41387SOL    HW125994   4.085  11.759   0.958
41387SOL    HW225995   4.029  11.820   0.832
41388SOL     OW25996   3.670  10.348  14.351
41388SOL    HW125997   3.678  10.259  14.384
41388SOL    HW225998   3.756  10.368  14.315
41389SOL     OW25999   4.354  12.974   0.355
41389SOL    HW126000   4.379  12.999   0.266
41389SOL    HW226001   4.279  12.915   0.344
41390SOL     OW26002   4.272  13.348   3.832
41390SOL    HW126003   4.194  13.391   3.867
41390SOL    HW226004   4.258  13.347   3.737
41391SOL     OW26005  14.025   2.371   8.786
41391SOL    HW126006  14.101   2.318   8.762
41391SOL    HW226007  14.062   2.455   8.814
41392SOL     OW26008   9.586   5.708   9.076
41392SOL    HW126009   9.604   5.632   9.131
41392SOL    HW226010   9.552   5.672   8.994
41393SOL     OW26011   3.496   7.368   2.768
41393SOL    HW126012   3.409   7.407   2.754
41393SOL    HW226013   3.487   7.318   2.849
41394SOL     OW26014   8.654  12.957   8.638
41394SOL    HW126015   8.654  13.053   8.632
41394SOL    HW226016   8.575  12.930   8.591
41395SOL     OW26017  11.268   9.838   5.867
41395SOL    HW126018  11.354   9.823   5.828
41395SOL    HW226019  11.269   9.785   5.947
41396SOL     OW26020   3.266   3.788  13.759
41396SOL    HW126021   3.232   3.864  13.713
41396SOL    HW226022   3.352   3.815  13.791
41397SOL     OW26023   1.833   3.773   8.632
41397SOL    HW126024   1.907   3.808   8.681
41397SOL    HW226025   1.873   3.719   8.563
41398SOL     OW26026   9.655  12.298   2.541
41398SOL    HW126027   9.720  12.367   2.526
41398SOL    HW226028   9.664  12.239   2.466
41399SOL     OW26029   6.681   6.254   1.644
41399SOL    HW126030   6.704   6.226   1.555
41399SOL    HW226031   6.615   6.192   1.673
41400SOL     OW26032   7.182   4.698   7.991
41400SOL    HW126033   7.147   4.739   8.071
41400SOL    HW226034   7.199   4.771   7.932
41401SOL     OW26035   3.100   5.582   1.690
41401SOL    HW126036   3.110   5.490   1.711
41401SOL    HW226037   3.043   5.617   1.758
41402SOL     OW26038   3.959   4.985   8.211
41402SOL    HW126039   3.891   4.931   8.170
41402SOL    HW226040   3.926   5.003   8.299
41403SOL     OW26041   6.819   8.680  14.015
41403SOL    HW126042   6.848   8.771  14.008
41403SOL    HW226043   6.890   8.629  13.977
41404SOL     OW26044   3.123  11.067   6.604
41404SOL    HW126045   3.065  11.127   6.557
41404SOL    HW226046   3.104  11.084   6.697
41405SOL     OW26047   1.671   8.293   8.132
41405SOL    HW126048   1.748   8.272   8.185
41405SOL    HW226049   1.609   8.331   8.194
41406SOL     OW26050  13.498   9.277   8.702
41406SOL    HW126051  13.410   9.298   8.733
41406SOL    HW226052  13.521   9.197   8.748
41407SOL     OW26053  11.775   6.388   2.894
41407SOL    HW126054  11.702   6.449   2.885
41407SOL    HW226055  11.787   6.351   2.807
41408SOL     OW26056  12.613   9.821   6.560
41408SOL    HW126057  12.560   9.846   6.484
41408SOL    HW226058  12.599   9.727   6.569
41409SOL     OW26059  10.475  11.455   1.080
41409SOL    HW126060  10.466  11.385   1.016
41409SOL    HW226061  10.407  11.436   1.145
41410SOL     OW26062   6.076   3.103   8.645
41410SOL    HW126063   6.079   3.178   8.705
41410SOL    HW226064   6.103   3.139   8.561
41411SOL     OW26065   8.722   9.366   4.339
41411SOL    HW126066   8.741   9.277   4.367
41411SOL    HW226067   8.674   9.356   4.257
41412SOL     OW26068   3.898   0.057  12.134
41412SOL    HW126069   3.843   0.050  12.055
41412SOL    HW226070   3.927  14.840  12.150
41413SOL     OW26071  13.134   6.635   5.094
41413SOL    HW126072  13.185   6.716   5.092
41413SOL    HW226073  13.127   6.615   5.188
41414SOL     OW26074   3.462   8.614   4.896
41414SOL    HW126075   3.483   8.529   4.856
41414SOL    HW226076   3.510   8.614   4.978
41415SOL     OW26077  13.737  12.997   7.782
41415SOL    HW126078  13.791  12.971   7.857
41415SOL    HW226079  13.756  13.090   7.770
41416SOL     OW26080   8.223   0.612   1.017
41416SOL    HW126081   8.298   0.553   1.018
41416SOL    HW226082   8.261   0.700   1.021
41417SOL     OW26083  13.686   5.593   7.476
41417SOL    HW126084  13.710   5.507   7.442
41417SOL    HW226085  13.611   5.575   7.534
41418SOL     OW26086   7.878   1.394   6.869
41418SOL    HW126087   7.925   1.478   6.863
41418SOL    HW226088   7.900   1.361   6.956
41419SOL     OW26089   0.153  12.132  13.359
41419SOL    HW126090   0.100  12.109  13.283
41419SOL    HW226091   0.169  12.049  13.404
41420SOL     OW26092  11.466   8.293  12.649
41420SOL    HW126093  11.385   8.262  12.689
41420SOL    HW226094  11.439   8.331  12.566
41421SOL     OW26095   5.266  13.244  10.566
41421SOL    HW126096   5.236  13.305  10.498
41421SOL    HW226097   5.186  13.200  10.595
41422SOL     OW26098  10.521   0.888   8.998
41422SOL    HW126099  10.602   0.850   8.964
41422SOL    HW226100  10.463   0.892   8.922
41423SOL     OW26101   2.134   3.787   4.428
41423SOL    HW126102   2.104   3.713   4.374
41423SOL    HW226103   2.055   3.818   4.472
41424SOL     OW26104   4.366  10.572  11.120
41424SOL    HW126105   4.392  10.647  11.174
41424SOL    HW226106   4.407  10.587  11.035
41425SOL     OW26107   5.411   2.514   4.411
41425SOL    HW126108   5.489   2.559   4.445
41425SOL    HW226109   5.337   2.558   4.453
41426SOL     OW26110   9.459   0.294  14.776
41426SOL    HW126111   9.447   0.310  14.870
41426SOL    HW226112   9.459   0.382  14.737
41427SOL     OW26113   2.276   9.255   4.251
41427SOL    HW126114   2.269   9.345   4.284
41427SOL    HW226115   2.327   9.209   4.317
41428SOL     OW26116   0.806   3.445   8.062
41428SOL    HW126117   0.876   3.498   8.099
41428SOL    HW226118   0.851   3.380   8.009
41429SOL     OW26119   1.103   8.680   3.130
41429SOL    HW126120   1.192   8.709   3.148
41429SOL    HW226121   1.080   8.623   3.203
41430SOL     OW26122  12.535   5.495   7.704
41430SOL    HW126123  12.564   5.586   7.701
41430SOL    HW226124  12.614   5.445   7.723
41431SOL     OW26125  10.865  13.281   6.417
41431SOL    HW126126  10.844  13.284   6.324
41431SOL    HW226127  10.935  13.216   6.424
41432SOL     OW26128  13.890  14.490  11.886
41432SOL    HW126129  13.980  14.509  11.861
41432SOL    HW226130  13.837  14.551  11.835
41433SOL     OW26131   5.544   6.384   7.084
41433SOL    HW126132   5.482   6.320   7.119
41433SOL    HW226133   5.504   6.414   7.003
41434SOL     OW26134   5.859   3.497   4.721
41434SOL    HW126135   5.942   3.490   4.674
41434SOL    HW226136   5.872   3.570   4.782
41435SOL     OW26137   8.938   7.529  10.450
41435SOL    HW126138   8.906   7.580  10.376
41435SOL    HW226139   8.913   7.439  10.430
41436SOL     OW26140  14.498   3.102   8.374
41436SOL    HW126141  14.592   3.089   8.388
41436SOL    HW226142  14.462   3.115   8.461
41437SOL     OW26143   9.839   6.715  11.911
41437SOL    HW126144   9.856   6.802  11.946
41437SOL    HW226145   9.919   6.665  11.931
41438SOL     OW26146   8.906   9.802   9.071
41438SOL    HW126147   8.833   9.864   9.077
41438SOL    HW226148   8.869   9.719   9.103
41439SOL     OW26149   9.051   6.755  11.526
41439SOL    HW126150   9.108   6.830  11.541
41439SOL    HW226151   8.962   6.789  11.539
41440SOL     OW26152   8.115  12.262   3.772
41440SOL    HW126153   8.204  12.235   3.749
41440SOL    HW226154   8.061  12.185   3.754
41441SOL     OW26155   2.472   4.143  12.682
41441SOL    HW126156   2.508   4.112  12.765
41441SOL    HW226157   2.441   4.063  12.638
41442SOL     OW26158  14.507  11.576   2.128
41442SOL    HW126159  14.544  11.605   2.211
41442SOL    HW226160  14.422  11.539   2.151
41443SOL     OW26161   8.922   2.669  10.383
41443SOL    HW126162   8.928   2.701  10.292
41443SOL    HW226163   8.932   2.574  10.375
41444SOL     OW26164  13.939   5.951   1.773
41444SOL    HW126165  13.867   5.936   1.835
41444SOL    HW226166  14.005   5.997   1.824
41445SOL     OW26167   5.981  10.762   2.013
41445SOL    HW126168   5.937  10.677   1.999
41445SOL    HW226169   5.964  10.782   2.105
41446SOL     OW26170   1.799  13.984  13.041
41446SOL    HW126171   1.752  14.040  13.104
41446SOL    HW226172   1.788  14.029  12.957
41447SOL     OW26173   3.392  10.359   1.480
41447SOL    HW126174   3.381  10.291   1.413
41447SOL    HW226175   3.313  10.354   1.533
41448SOL     OW26176  10.655  13.164   7.756
41448SOL    HW126177  10.644  13.239   7.815
41448SOL    HW226178  10.649  13.087   7.814
41449SOL     OW26179  11.873  14.303   1.681
41449SOL    HW126180  11.903  14.353   1.605
41449SOL    HW226181  11.865  14.213   1.649
41450SOL     OW26182  14.043   7.017   8.748
41450SOL    HW126183  13.950   6.995   8.741
41450SOL    HW226184  14.088   6.936   8.725
41451SOL     OW26185  13.741   4.550   8.576
41451SOL    HW126186  13.751   4.643   8.557
41451SOL    HW226187  13.724   4.510   8.490
41452SOL     OW26188   0.569   8.733   8.688
41452SOL    HW126189   0.515   8.668   8.732
41452SOL    HW226190   0.602   8.789   8.759
41453SOL     OW26191   9.082  13.129  10.431
41453SOL    HW126192   9.038  13.044  10.433
41453SOL    HW226193   9.172  13.108  10.407
41454SOL     OW26194   1.040   8.772  14.564
41454SOL    HW126195   1.039   8.736  14.475
41454SOL    HW226196   0.964   8.830  14.567
41455SOL     OW26197   1.833   4.075   5.301
41455SOL    HW126198   1.921   4.055   5.331
41455SOL    HW226199   1.846   4.132   5.225
41456SOL     OW26200   8.302  11.666   0.336
41456SOL    HW126201   8.256  11.747   0.357
41456SOL    HW226202   8.285  11.653   0.242
41457SOL     OW26203   6.998   2.772   4.942
41457SOL    HW126204   7.027   2.855   4.903
41457SOL    HW226205   7.062   2.753   5.010
41458SOL     OW26206   4.650   0.862   5.540
41458SOL    HW126207   4.721   0.799   5.546
41458SOL    HW226208   4.570   0.809   5.543
41459SOL     OW26209   5.155  14.446   0.804
41459SOL    HW126210   5.188  14.535   0.814
41459SOL    HW226211   5.233  14.391   0.811
41460SOL     OW26212   5.935   5.624  14.039
41460SOL    HW126213   5.989   5.616  13.960
41460SOL    HW226214   5.923   5.718  14.050
41461SOL     OW26215   0.133  13.866  10.509
41461SOL    HW126216   0.088  13.912  10.438
41461SOL    HW226217   0.207  13.922  10.532
41462SOL     OW26218   8.244   2.841  11.260
41462SOL    HW126219   8.277   2.929  11.280
41462SOL    HW226220   8.205   2.849  11.174
41463SOL     OW26221   5.946  12.052  13.087
41463SOL    HW126222   5.890  11.983  13.051
41463SOL    HW226223   5.886  12.121  13.113
41464SOL     OW26224   4.579   5.149   9.294
41464SOL    HW126225   4.581   5.059   9.328
41464SOL    HW226226   4.539   5.142   9.208
41465SOL     OW26227   5.149   6.815  14.431
41465SOL    HW126228   5.197   6.732  14.434
41465SOL    HW226229   5.101   6.819  14.514
41466SOL     OW26230  14.535   3.513   0.213
41466SOL    HW126231  14.590   3.438   0.235
41466SOL    HW226232  14.459   3.505   0.272
41467SOL     OW26233   9.596   1.769   1.267
41467SOL    HW126234   9.647   1.847   1.248
41467SOL    HW226235   9.604   1.715   1.188
41468SOL     OW26236  10.774  10.601   6.089
41468SOL    HW126237  10.696  10.547   6.077
41468SOL    HW226238  10.761  10.675   6.029
41469SOL     OW26239   5.620   2.968   9.725
41469SOL    HW126240   5.701   3.016   9.711
41469SOL    HW226241   5.551   3.030   9.702
41470SOL     OW26242  13.303  14.851   0.157
41470SOL    HW126243  13.310  14.757   0.174
41470SOL    HW226244  13.392   0.012   0.174
41471SOL     OW26245  12.149   2.144  12.746
41471SOL    HW126246  12.161   2.073  12.684
41471SOL    HW226247  12.237   2.162  12.780
41472SOL     OW26248   2.800   2.960   1.197
41472SOL    HW126249   2.868   2.894   1.210
41472SOL    HW226250   2.743   2.951   1.274
41473SOL     OW26251  10.908   1.425  14.507
41473SOL    HW126252  10.883   1.506  14.462
41473SOL    HW226253  10.855   1.357  14.465
41474SOL     OW26254  11.799   1.348   7.089
41474SOL    HW126255  11.812   1.346   6.994
41474SOL    HW226256  11.847   1.426   7.118
41475SOL     OW26257   8.225   2.731   7.198
41475SOL    HW126258   8.271   2.790   7.258
41475SOL    HW226259   8.271   2.742   7.115
41476SOL     OW26260   1.591   6.200  10.667
41476SOL    HW126261   1.587   6.277  10.610
41476SOL    HW226262   1.678   6.203  10.706
41477SOL     OW26263   0.636  14.565   5.286
41477SOL    HW126264   0.686  14.582   5.366
41477SOL    HW226265   0.634  14.470   5.278
41478SOL     OW26266   4.972  13.610   6.146
41478SOL    HW126267   4.908  13.681   6.155
41478SOL    HW226268   4.921  13.530   6.163
41479SOL     OW26269   5.649   6.074   6.521
41479SOL    HW126270   5.679   5.983   6.515
41479SOL    HW226271   5.614   6.093   6.434
41480SOL     OW26272  10.239  11.234  12.767
41480SOL    HW126273  10.166  11.180  12.799
41480SOL    HW226274  10.278  11.270  12.846
41481SOL     OW26275  14.507  10.072  11.073
41481SOL    HW126276  14.591  10.113  11.091
41481SOL    HW226277  14.482  10.030  11.155
41482SOL     OW26278   2.731   7.328   6.579
41482SOL    HW126279   2.681   7.246   6.577
41482SOL    HW226280   2.687   7.384   6.516
41483SOL     OW26281   7.594   8.017  11.885
41483SOL    HW126282   7.546   7.957  11.942
41483SOL    HW226283   7.640   7.959  11.823
41484SOL     OW26284   0.587   1.884   1.731
41484SOL    HW126285   0.556   1.807   1.683
41484SOL    HW226286   0.639   1.933   1.667
41485SOL     OW26287   5.271   6.564  14.472
41485SOL    HW126288   5.315   6.530  14.395
41485SOL    HW226289   5.229   6.487  14.512
41486SOL     OW26290  10.936   4.948  11.554
41486SOL    HW126291  10.878   5.018  11.585
41486SOL    HW226292  11.009   4.994  11.512
41487SOL     OW26293   6.078  13.893   6.971
41487SOL    HW126294   5.989  13.900   6.935
41487SOL    HW226295   6.134  13.927   6.901
41488SOL     OW26296  13.673   2.285   8.575
41488SOL    HW126297  13.632   2.267   8.491
41488SOL    HW226298  13.764   2.257   8.564
41489SOL     OW26299   9.873   3.622   2.394
41489SOL    HW126300   9.838   3.699   2.438
41489SOL    HW226301   9.855   3.550   2.454
41490SOL     OW26302   9.322   9.338   4.989
41490SOL    HW126303   9.270   9.373   5.062
41490SOL    HW226304   9.373   9.267   5.027
41491SOL     OW26305  11.313   5.360  13.435
41491SOL    HW126306  11.332   5.405  13.353
41491SOL    HW226307  11.253   5.418  13.481
41492SOL     OW26308   8.397  13.097   3.776
41492SOL    HW126309   8.344  13.052   3.710
41492SOL    HW226310   8.339  13.105   3.852
41493SOL     OW26311  12.018   5.214   7.017
41493SOL    HW126312  12.019   5.284   7.083
41493SOL    HW226313  11.929   5.179   7.021
41494SOL     OW26314  12.297   7.290   7.746
41494SOL    HW126315  12.249   7.250   7.673
41494SOL    HW226316  12.324   7.376   7.713
41495SOL     OW26317   6.333  11.602  13.207
41495SOL    HW126318   6.381  11.529  13.166
41495SOL    HW226319   6.376  11.615  13.291
41496SOL     OW26320   2.862  14.721  10.488
41496SOL    HW126321   2.873  14.682  10.575
41496SOL    HW226322   2.781  14.683  10.454
41497SOL     OW26323   5.628  13.410   4.856
41497SOL    HW126324   5.577  13.340   4.896
41497SOL    HW226325   5.583  13.490   4.881
41498SOL     OW26326   1.332   4.843  10.708
41498SOL    HW126327   1.401   4.828  10.772
41498SOL    HW226328   1.257   4.794  10.741
41499SOL     OW26329   0.821   0.357   0.420
41499SOL    HW126330   0.898   0.345   0.476
41499SOL    HW226331   0.857   0.355   0.331
41500SOL     OW26332   4.908   3.345  13.518
41500SOL    HW126333   4.824   3.372  13.555
41500SOL    HW226334   4.939   3.277  13.577
41501SOL     OW26335  14.382  12.606   5.574
41501SOL    HW126336  14.330  12.531   5.604
41501SOL    HW226337  14.451  12.568   5.520
41502SOL     OW26338   4.211  10.194   7.575
41502SOL    HW126339   4.302  10.166   7.569
41502SOL    HW226340   4.161  10.117   7.548
41503SOL     OW26341   6.986   4.714  10.521
41503SOL    HW126342   7.064   4.681  10.565
41503SOL    HW226343   6.940   4.765  10.587
41504SOL     OW26344   0.480   6.913  13.711
41504SOL    HW126345   0.533   6.960  13.646
41504SOL    HW226346   0.398   6.894  13.665
41505SOL     OW26347  10.904  11.478   6.129
41505SOL    HW126348  10.939  11.560   6.094
41505SOL    HW226349  10.982  11.428   6.154
41506SOL     OW26350   6.280   7.607   8.061
41506SOL    HW126351   6.209   7.670   8.048
41506SOL    HW226352   6.320   7.632   8.144
41507SOL     OW26353   5.071   6.073   2.130
41507SOL    HW126354   5.067   6.129   2.052
41507SOL    HW226355   4.984   6.082   2.170
41508SOL     OW26356   3.718   2.697   4.118
41508SOL    HW126357   3.771   2.618   4.111
41508SOL    HW226358   3.781   2.769   4.118
41509SOL     OW26359   7.585  14.075   9.896
41509SOL    HW126360   7.581  14.164   9.932
41509SOL    HW226361   7.541  14.020   9.960
41510SOL     OW26362  14.400  11.755  10.349
41510SOL    HW126363  14.426  11.834  10.397
41510SOL    HW226364  14.415  11.683  10.411
41511SOL     OW26365   3.871  11.477   6.440
41511SOL    HW126366   3.913  11.555   6.476
41511SOL    HW226367   3.777  11.495   6.447
41512SOL     OW26368   9.816   5.953  10.320
41512SOL    HW126369   9.741   5.906  10.283
41512SOL    HW226370   9.873   5.970  10.245
41513SOL     OW26371  14.602   2.505   9.260
41513SOL    HW126372  14.674   2.452   9.294
41513SOL    HW226373  14.632   2.596   9.269
41514SOL     OW26374   4.794  10.561  12.760
41514SOL    HW126375   4.737  10.489  12.787
41514SOL    HW226376   4.774  10.632  12.822
41515SOL     OW26377   2.278   4.065   3.738
41515SOL    HW126378   2.329   4.108   3.670
41515SOL    HW226379   2.226   4.135   3.777
41516SOL     OW26380   6.852   8.017   5.870
41516SOL    HW126381   6.897   8.024   5.954
41516SOL    HW226382   6.898   8.078   5.812
41517SOL     OW26383  11.131   8.757   2.898
41517SOL    HW126384  11.086   8.681   2.861
41517SOL    HW226385  11.063   8.823   2.906
41518SOL     OW26386  10.151   6.895  14.638
41518SOL    HW126387  10.208   6.970  14.620
41518SOL    HW226388  10.196   6.847  14.707
41519SOL     OW26389   9.983   5.974  10.074
41519SOL    HW126390   9.980   5.885  10.039
41519SOL    HW226391  10.034   6.024  10.009
41520SOL     OW26392  10.898  12.295  12.742
41520SOL    HW126393  10.825  12.278  12.683
41520SOL    HW226394  10.860  12.289  12.830
41521SOL     OW26395   2.712   6.927   1.788
41521SOL    HW126396   2.705   6.976   1.706
41521SOL    HW226397   2.626   6.938   1.829
41522SOL     OW26398   3.062   0.016  11.769
41522SOL    HW126399   3.017   0.095  11.799
41522SOL    HW226400   3.032  14.820  11.827
41523SOL     OW26401  10.697  12.527  13.567
41523SOL    HW126402  10.736  12.596  13.619
41523SOL    HW226403  10.603  12.546  13.569
41524SOL     OW26404  10.503  10.409  11.815
41524SOL    HW126405  10.514  10.475  11.884
41524SOL    HW226406  10.418  10.370  11.832
41525SOL     OW26407   2.649   6.194   7.868
41525SOL    HW126408   2.719   6.190   7.933
41525SOL    HW226409   2.670   6.271   7.815
41526SOL     OW26410   1.713   6.839   8.332
41526SOL    HW126411   1.737   6.755   8.370
41526SOL    HW226412   1.796   6.884   8.319
41527SOL     OW26413  12.498   4.580  10.938
41527SOL    HW126414  12.452   4.532  11.007
41527SOL    HW226415  12.512   4.667  10.974
41528SOL     OW26416  13.705  10.985   5.841
41528SOL    HW126417  13.612  11.007   5.850
41528SOL    HW226418  13.751  11.062   5.872
41529SOL     OW26419   8.753   6.267   7.943
41529SOL    HW126420   8.728   6.276   7.851
41529SOL    HW226421   8.723   6.348   7.984
41530SOL     OW26422  10.865   7.172  14.628
41530SOL    HW126423  10.810   7.134  14.560
41530SOL    HW226424  10.955   7.163  14.594
41531SOL     OW26425   3.693   8.784   1.269
41531SOL    HW126426   3.644   8.712   1.228
41531SOL    HW226427   3.740   8.825   1.197
41532SOL     OW26428  13.395   4.549  12.052
41532SOL    HW126429  13.390   4.638  12.016
41532SOL    HW226430  13.305   4.516  12.045
41533SOL     OW26431   0.884   2.869  14.733
41533SOL    HW126432   0.858   2.953  14.694
41533SOL    HW226433   0.870   2.882  14.827
41534SOL     OW26434   3.086   8.239   3.274
41534SOL    HW126435   3.131   8.206   3.196
41534SOL    HW226436   3.149   8.226   3.345
41535SOL     OW26437   6.889  10.533  11.944
41535SOL    HW126438   6.794  10.547  11.952
41535SOL    HW226439   6.928  10.610  11.986
41536SOL     OW26440  10.961  10.922   8.772
41536SOL    HW126441  11.056  10.924   8.783
41536SOL    HW226442  10.933  10.846   8.823
41537SOL     OW26443   3.247  12.159   0.098
41537SOL    HW126444   3.208  12.081   0.139
41537SOL    HW226445   3.196  12.232   0.130
41538SOL     OW26446   4.676   9.200  12.697
41538SOL    HW126447   4.750   9.206  12.637
41538SOL    HW226448   4.616   9.269  12.668
41539SOL     OW26449   5.457  10.508   0.251
41539SOL    HW126450   5.511  10.477   0.323
41539SOL    HW226451   5.457  10.603   0.260
41540SOL     OW26452  11.741   4.845  11.780
41540SOL    HW126453  11.728   4.750  11.771
41540SOL    HW226454  11.742   4.877  11.690
41541SOL     OW26455   7.498  11.905  13.721
41541SOL    HW126456   7.571  11.854  13.685
41541SOL    HW226457   7.461  11.849  13.790
41542SOL     OW26458   5.546   3.195   2.625
41542SOL    HW126459   5.484   3.124   2.644
41542SOL    HW226460   5.632   3.159   2.650
41543SOL     OW26461   3.444   1.393   7.583
41543SOL    HW126462   3.420   1.324   7.521
41543SOL    HW226463   3.428   1.475   7.536
41544SOL     OW26464   4.313  12.623  12.940
41544SOL    HW126465   4.244  12.557  12.936
41544SOL    HW226466   4.393  12.574  12.919
41545SOL     OW26467   9.317   4.011   3.239
41545SOL    HW126468   9.350   3.933   3.194
41545SOL    HW226469   9.234   3.983   3.278
41546SOL     OW26470   3.059   1.636   4.070
41546SOL    HW126471   2.964   1.631   4.081
41546SOL    HW226472   3.080   1.729   4.080
41547SOL     OW26473   8.067   9.805   1.581
41547SOL    HW126474   8.007   9.856   1.527
41547SOL    HW226475   8.099   9.735   1.524
41548SOL     OW26476   0.248   4.391  10.390
41548SOL    HW126477   0.172   4.346  10.427
41548SOL    HW226478   0.268   4.342  10.310
41549SOL     OW26479  13.039   4.024  12.646
41549SOL    HW126480  13.097   3.977  12.586
41549SOL    HW226481  13.000   4.094  12.593
41550SOL     OW26482   3.792  14.087   6.385
41550SOL    HW126483   3.862  14.022   6.379
41550SOL    HW226484   3.712  14.035   6.381
41551SOL     OW26485   3.328  10.879   0.829
41551SOL    HW126486   3.381  10.904   0.753
41551SOL    HW226487   3.241  10.863   0.793
41552SOL     OW26488   8.899   4.466   2.368
41552SOL    HW126489   8.981   4.501   2.334
41552SOL    HW226490   8.841   4.461   2.292
41553SOL     OW26491   8.611   7.282  12.024
41553SOL    HW126492   8.616   7.222  11.949
41553SOL    HW226493   8.545   7.243  12.081
41554SOL     OW26494  12.791   8.110   5.482
41554SOL    HW126495  12.821   8.106   5.573
41554SOL    HW226496  12.698   8.128   5.488
41555SOL     OW26497   7.763  10.985   1.087
41555SOL    HW126498   7.742  10.966   1.178
41555SOL    HW226499   7.833  10.923   1.064
41556SOL     OW26500  10.427  10.734   1.497
41556SOL    HW126501  10.356  10.782   1.452
41556SOL    HW226502  10.382  10.681   1.563
41557SOL     OW26503   1.637   5.991   3.153
41557SOL    HW126504   1.561   6.013   3.099
41557SOL    HW226505   1.683   5.924   3.103
41558SOL     OW26506   4.103  12.207  13.728
41558SOL    HW126507   4.167  12.249  13.671
41558SOL    HW226508   4.156  12.151  13.786
41559SOL     OW26509  13.904  13.900   4.321
41559SOL    HW126510  13.904  13.979   4.268
41559SOL    HW226511  13.976  13.847   4.286
41560SOL     OW26512   2.451   7.019   9.700
41560SOL    HW126513   2.388   7.089   9.687
41560SOL    HW226514   2.420   6.972   9.777
41561SOL     OW26515   9.033  11.427   4.945
41561SOL    HW126516   8.965  11.474   4.992
41561SOL    HW226517   9.030  11.338   4.979
41562SOL     OW26518   9.035  10.131  13.919
41562SOL    HW126519   9.085  10.135  14.001
41562SOL    HW226520   9.075  10.059  13.871
41563SOL     OW26521   0.773  11.760  10.687
41563SOL    HW126522   0.753  11.685  10.744
41563SOL    HW226523   0.794  11.721  10.602
41564SOL     OW26524   0.874  11.098   6.579
41564SOL    HW126525   0.938  11.068   6.644
41564SOL    HW226526   0.789  11.075   6.616
41565SOL     OW26527  13.526  10.442   9.539
41565SOL    HW126528  13.455  10.389   9.576
41565SOL    HW226529  13.575  10.382   9.483
41566SOL     OW26530   1.861   5.998  11.365
41566SOL    HW126531   1.885   5.946  11.289
41566SOL    HW226532   1.808   5.940  11.419
41567SOL     OW26533   9.947  13.365   4.658
41567SOL    HW126534  10.007  13.437   4.677
41567SOL    HW226535   9.905  13.391   4.575
41568SOL     OW26536  14.266  12.733   1.541
41568SOL    HW126537  14.262  12.746   1.447
41568SOL    HW226538  14.319  12.654   1.552
41569SOL     OW26539   1.432   5.898   3.557
41569SOL    HW126540   1.384   5.868   3.634
41569SOL    HW226541   1.524   5.891   3.581
41570SOL     OW26542   1.098   8.367   8.971
41570SOL    HW126543   1.132   8.438   8.917
41570SOL    HW226544   1.004   8.383   8.976
41571SOL     OW26545   1.871  11.918   9.983
41571SOL    HW126546   1.963  11.924   9.959
41571SOL    HW226547   1.854  11.825   9.993
41572SOL     OW26548   8.176   6.732   6.373
41572SOL    HW126549   8.253   6.771   6.415
41572SOL    HW226550   8.142   6.802   6.317
41573SOL     OW26551   4.849   7.986  14.783
41573SOL    HW126552   4.812   8.071  14.810
41573SOL    HW226553   4.934   8.008  14.746
41574SOL     OW26554   6.310  14.099   5.298
41574SOL    HW126555   6.291  14.035   5.366
41574SOL    HW226556   6.259  14.069   5.222
41575SOL     OW26557   4.706  12.840   6.136
41575SOL    HW126558   4.748  12.802   6.213
41575SOL    HW226559   4.738  12.930   6.133
41576SOL     OW26560   6.890   3.923  13.750
41576SOL    HW126561   6.852   4.010  13.756
41576SOL    HW226562   6.966   3.925  13.809
41577SOL     OW26563   7.481   1.502   3.862
41577SOL    HW126564   7.525   1.551   3.931
41577SOL    HW226565   7.492   1.555   3.783
41578SOL     OW26566  10.003  11.066   1.935
41578SOL    HW126567  10.059  11.023   1.871
41578SOL    HW226568   9.917  11.071   1.892
41579SOL     OW26569   1.001   0.390   6.459
41579SOL    HW126570   1.021   0.298   6.476
41579SOL    HW226571   1.059   0.415   6.387
41580SOL     OW26572   5.695   2.527   3.200
41580SOL    HW126573   5.633   2.528   3.126
41580SOL    HW226574   5.648   2.480   3.269
41581SOL     OW26575   9.314  10.027   4.609
41581SOL    HW126576   9.409  10.037   4.620
41581SOL    HW226577   9.280  10.031   4.699
41582SOL     OW26578   5.305   8.965   7.878
41582SOL    HW126579   5.330   9.048   7.919
41582SOL    HW226580   5.217   8.947   7.912
41583SOL     OW26581   0.813   5.145  12.700
41583SOL    HW126582   0.881   5.122  12.637
41583SOL    HW226583   0.733   5.111  12.662
41584SOL     OW26584   5.398  10.935   0.030
41584SOL    HW126585   5.353  10.914  14.822
41584SOL    HW226586   5.479  10.977   0.003
41585SOL     OW26587   6.336   5.558  12.296
41585SOL    HW126588   6.273   5.534  12.229
41585SOL    HW226589   6.383   5.476  12.316
41586SOL     OW26590   5.971   3.403  12.283
41586SOL    HW126591   5.982   3.402  12.378
41586SOL    HW226592   6.058   3.382  12.249
41587SOL     OW26593   1.287   3.481   1.723
41587SOL    HW126594   1.371   3.435   1.722
41587SOL    HW226595   1.252   3.465   1.810
41588SOL     OW26596   6.615   7.816   7.095
41588SOL    HW126597   6.621   7.886   7.160
41588SOL    HW226598   6.601   7.737   7.146
41589SOL     OW26599   5.971   1.283  12.482
41589SOL    HW126600   6.009   1.212  12.429
41589SOL    HW226601   5.881   1.290  12.450
41590SOL     OW26602  13.545   1.866   2.964
41590SOL    HW126603  13.455   1.838   2.944
41590SOL    HW226604  13.541   1.962   2.961
41591SOL     OW26605   5.935  10.855   2.246
41591SOL    HW126606   5.911  10.850   2.338
41591SOL    HW226607   5.892  10.934   2.213
41592SOL     OW26608   9.681   6.783   9.670
41592SOL    HW126609   9.743   6.766   9.599
41592SOL    HW226610   9.596   6.755   9.636
41593SOL     OW26611  13.011   6.227   2.516
41593SOL    HW126612  13.086   6.283   2.496
41593SOL    HW226613  12.951   6.240   2.442
41594SOL     OW26614   3.114  10.418  12.378
41594SOL    HW126615   3.091  10.370  12.458
41594SOL    HW226616   3.146  10.351  12.318
41595SOL     OW26617   5.664  10.527   6.886
41595SOL    HW126618   5.572  10.499   6.880
41595SOL    HW226619   5.664  10.617   6.855
41596SOL     OW26620   9.146   3.338  13.767
41596SOL    HW126621   9.137   3.433  13.768
41596SOL    HW226622   9.219   3.322  13.707
41597SOL     OW26623   1.096   0.795   8.048
41597SOL    HW126624   1.088   0.888   8.072
41597SOL    HW226625   1.094   0.749   8.132
41598SOL     OW26626  12.868   9.499   6.339
41598SOL    HW126627  12.947   9.473   6.386
41598SOL    HW226628  12.859   9.434   6.270
41599SOL     OW26629   8.905   1.358  14.137
41599SOL    HW126630   8.986   1.362  14.085
41599SOL    HW226631   8.839   1.326  14.076
41600SOL     OW26632   4.762  14.427   9.722
41600SOL    HW126633   4.785  14.359   9.659
41600SOL    HW226634   4.680  14.398   9.761
41601SOL     OW26635  12.397   6.972   8.558
41601SOL    HW126636  12.343   6.930   8.491
41601SOL    HW226637  12.356   7.058   8.571
41602SOL     OW26638  11.605  11.075   3.928
41602SOL    HW126639  11.621  10.988   3.965
41602SOL    HW226640  11.631  11.135   3.998
41603SOL     OW26641   2.807   7.126   9.173
41603SOL    HW126642   2.869   7.056   9.154
41603SOL    HW226643   2.749   7.129   9.098
41604SOL     OW26644   5.707   2.969   6.167
41604SOL    HW126645   5.620   2.928   6.166
41604SOL    HW226646   5.754   2.926   6.096
41605SOL     OW26647   9.866   2.287   9.160
41605SOL    HW126648   9.833   2.306   9.072
41605SOL    HW226649   9.917   2.365   9.184
41606SOL     OW26650   3.899  10.423   0.105
41606SOL    HW126651   3.876  10.331   0.116
41606SOL    HW226652   3.992  10.428   0.125
41607SOL     OW26653  12.037   2.262   6.517
41607SOL    HW126654  11.954   2.289   6.478
41607SOL    HW226655  12.102   2.321   6.478
41608SOL     OW26656  14.753   8.381  10.958
41608SOL    HW126657  14.707   8.298  10.950
41608SOL    HW226658  14.684   8.446  10.973
41609SOL     OW26659  13.481  12.168   9.570
41609SOL    HW126660  13.486  12.106   9.642
41609SOL    HW226661  13.443  12.247   9.609
41610SOL     OW26662  11.406   8.737  14.214
41610SOL    HW126663  11.460   8.751  14.292
41610SOL    HW226664  11.317   8.754  14.244
41611SOL     OW26665  12.856  11.742   3.102
41611SOL    HW126666  12.832  11.695   3.182
41611SOL    HW226667  12.949  11.762   3.113
41612SOL     OW26668   0.597   7.235   9.084
41612SOL    HW126669   0.504   7.214   9.095
41612SOL    HW226670   0.642   7.164   9.130
41613SOL     OW26671   4.254   2.465   1.705
41613SOL    HW126672   4.341   2.481   1.668
41613SOL    HW226673   4.253   2.371   1.724
41614SOL     OW26674   7.100  10.685   0.235
41614SOL    HW126675   7.172  10.632   0.268
41614SOL    HW226676   7.028  10.669   0.296
41615SOL     OW26677   0.140  10.532   0.271
41615SOL    HW126678   0.195  10.611   0.272
41615SOL    HW226679   0.072  10.550   0.336
41616SOL     OW26680   4.808  12.447  10.390
41616SOL    HW126681   4.804  12.351  10.389
41616SOL    HW226682   4.895  12.467  10.423
41617SOL     OW26683  13.763   6.609   1.705
41617SOL    HW126684  13.851   6.571   1.703
41617SOL    HW226685  13.772   6.693   1.660
41618SOL     OW26686  14.561  13.146   3.663
41618SOL    HW126687  14.528  13.089   3.732
41618SOL    HW226688  14.584  13.087   3.591
41619SOL     OW26689   7.562   0.332  10.642
41619SOL    HW126690   7.633   0.382  10.684
41619SOL    HW226691   7.595   0.315  10.554
41620SOL     OW26692  14.324  13.356   9.910
41620SOL    HW126693  14.305  13.450   9.910
41620SOL    HW226694  14.372  13.341   9.829
41621SOL     OW26695  10.399   5.994   5.827
41621SOL    HW126696  10.322   5.976   5.880
41621SOL    HW226697  10.377   5.959   5.740
41622SOL     OW26698   5.168   8.586  13.554
41622SOL    HW126699   5.153   8.679  13.568
41622SOL    HW226700   5.186   8.551  13.642
41623SOL     OW26701   9.785  10.216   9.557
41623SOL    HW126702   9.856  10.153   9.543
41623SOL    HW226703   9.827  10.301   9.548
41624SOL     OW26704  13.917  13.083   8.098
41624SOL    HW126705  13.940  13.154   8.040
41624SOL    HW226706  13.832  13.108   8.135
41625SOL     OW26707   9.778  13.641  11.287
41625SOL    HW126708   9.762  13.683  11.372
41625SOL    HW226709   9.870  13.613  11.291
41626SOL     OW26710   3.953  10.993  10.072
41626SOL    HW126711   3.859  10.974  10.078
41626SOL    HW226712   3.971  11.048  10.147
41627SOL     OW26713   2.210   5.503  10.614
41627SOL    HW126714   2.284   5.443  10.609
41627SOL    HW226715   2.248   5.590  10.598
41628SOL     OW26716   3.096  14.187   3.889
41628SOL    HW126717   3.099  14.157   3.980
41628SOL    HW226718   3.171  14.246   3.881
41629SOL     OW26719  10.872  13.008   3.675
41629SOL    HW126720  10.916  13.025   3.592
41629SOL    HW226721  10.870  12.912   3.681
41630SOL     OW26722   9.814   5.608   7.645
41630SOL    HW126723   9.811   5.523   7.600
41630SOL    HW226724   9.770   5.593   7.728
41631SOL     OW26725   9.346   0.828   9.463
41631SOL    HW126726   9.334   0.907   9.411
41631SOL    HW226727   9.353   0.757   9.399
41632SOL     OW26728  11.663  12.358   4.761
41632SOL    HW126729  11.700  12.270   4.766
41632SOL    HW226730  11.569  12.345   4.774
41633SOL     OW26731   9.841   5.022  13.414
41633SOL    HW126732   9.895   5.018  13.493
41633SOL    HW226733   9.770   4.961  13.430
41634SOL     OW26734   2.902   4.422  10.986
41634SOL    HW126735   2.955   4.348  10.955
41634SOL    HW226736   2.844   4.384  11.052
41635SOL     OW26737   6.136   6.081  11.095
41635SOL    HW126738   6.066   6.139  11.065
41635SOL    HW226739   6.192   6.137  11.149
41636SOL     OW26740  11.290   2.273   1.218
41636SOL    HW126741  11.312   2.287   1.310
41636SOL    HW226742  11.199   2.302   1.210
41637SOL     OW26743  13.728  10.484  10.191
41637SOL    HW126744  13.816  10.521  10.186
41637SOL    HW226745  13.722  10.450  10.281
41638SOL     OW26746  14.630   7.467  11.757
41638SOL    HW126747  14.667   7.433  11.676
41638SOL    HW226748  14.552   7.516  11.730
41639SOL     OW26749  10.155   0.613   9.389
41639SOL    HW126750  10.241   0.630   9.353
41639SOL    HW226751  10.155   0.656   9.474
41640SOL     OW26752   1.889   7.276  12.437
41640SOL    HW126753   1.883   7.294  12.531
41640SOL    HW226754   1.924   7.357  12.400
41641SOL     OW26755  13.287  10.469   9.209
41641SOL    HW126756  13.380  10.452   9.222
41641SOL    HW226757  13.283  10.560   9.180
41642SOL     OW26758   6.407   1.794   2.756
41642SOL    HW126759   6.397   1.699   2.757
41642SOL    HW226760   6.497   1.808   2.786
41643SOL     OW26761   7.984   7.156  13.474
41643SOL    HW126762   7.982   7.249  13.451
41643SOL    HW226763   8.069   7.143  13.515
41644SOL     OW26764  10.065   4.690   0.769
41644SOL    HW126765  10.143   4.635   0.778
41644SOL    HW226766  10.013   4.672   0.848
41645SOL     OW26767  11.388   7.578   3.981
41645SOL    HW126768  11.325   7.650   3.973
41645SOL    HW226769  11.335   7.499   3.972
41646SOL     OW26770   2.849  14.854   5.312
41646SOL    HW126771   2.754  14.850   5.305
41646SOL    HW226772   2.876   0.030   5.234
41647SOL     OW26773  12.113  10.542   8.630
41647SOL    HW126774  12.048  10.565   8.696
41647SOL    HW226775  12.082  10.584   8.550
41648SOL     OW26776   7.596   3.795   1.298
41648SOL    HW126777   7.632   3.834   1.378
41648SOL    HW226778   7.644   3.713   1.288
41649SOL     OW26779  11.706   0.028   7.938
41649SOL    HW126780  11.741   0.097   7.995
41649SOL    HW226781  11.774  14.834   7.937
41650SOL     OW26782   3.076   8.621  10.141
41650SOL    HW126783   3.018   8.629  10.065
41650SOL    HW226784   3.148   8.680  10.122
41651SOL     OW26785   9.762  11.163  12.293
41651SOL    HW126786   9.764  11.185  12.200
41651SOL    HW226787   9.716  11.079  12.297
41652SOL     OW26788   9.864   0.642   3.053
41652SOL    HW126789   9.824   0.558   3.072
41652SOL    HW226790   9.858   0.651   2.958
41653SOL     OW26791   9.273   7.434   4.991
41653SOL    HW126792   9.329   7.484   5.051
41653SOL    HW226793   9.247   7.357   5.042
41654SOL     OW26794   2.486   2.757  13.628
41654SOL    HW126795   2.447   2.820  13.568
41654SOL    HW226796   2.422   2.687  13.634
41655SOL     OW26797   7.767   7.601   7.533
41655SOL    HW126798   7.816   7.669   7.486
41655SOL    HW226799   7.747   7.641   7.618
41656SOL     OW26800   6.002   4.886  11.826
41656SOL    HW126801   5.945   4.942  11.879
41656SOL    HW226802   5.958   4.881  11.741
41657SOL     OW26803  13.047   1.243   4.548
41657SOL    HW126804  12.999   1.300   4.488
41657SOL    HW226805  13.131   1.227   4.504
41658SOL     OW26806   5.313   7.031   5.485
41658SOL    HW126807   5.256   6.956   5.500
41658SOL    HW226808   5.322   7.072   5.571
41659SOL     OW26809   3.289  14.757   1.914
41659SOL    HW126810   3.242  14.833   1.947
41659SOL    HW226811   3.283  14.692   1.983
41660SOL     OW26812   5.187   1.857   9.052
41660SOL    HW126813   5.172   1.948   9.078
41660SOL    HW226814   5.145   1.849   8.966
41661SOL     OW26815   2.195  14.686   7.431
41661SOL    HW126816   2.129  14.661   7.496
41661SOL    HW226817   2.274  14.639   7.458
41662SOL     OW26818   5.083   0.064   2.490
41662SOL    HW126819   5.058   0.017   2.410
41662SOL    HW226820   5.155   0.120   2.463
41663SOL     OW26821   6.248   1.022   1.351
41663SOL    HW126822   6.219   1.081   1.281
41663SOL    HW226823   6.313   1.072   1.400
41664SOL     OW26824   3.533  13.857   4.941
41664SOL    HW126825   3.621  13.831   4.914
41664SOL    HW226826   3.545  13.944   4.980
41665SOL     OW26827   2.785   1.719  12.273
41665SOL    HW126828   2.704   1.728  12.223
41665SOL    HW226829   2.831   1.647  12.231
41666SOL     OW26830   5.392  11.743  11.913
41666SOL    HW126831   5.377  11.836  11.930
41666SOL    HW226832   5.362  11.730  11.823
41667SOL     OW26833  11.725   8.439   0.522
41667SOL    HW126834  11.767   8.381   0.586
41667SOL    HW226835  11.789   8.508   0.506
41668SOL     OW26836  14.361  13.218   8.556
41668SOL    HW126837  14.397  13.187   8.639
41668SOL    HW226838  14.324  13.139   8.516
41669SOL     OW26839   8.805  12.114   8.591
41669SOL    HW126840   8.863  12.187   8.611
41669SOL    HW226841   8.752  12.102   8.669
41670SOL     OW26842   5.653   1.965   6.628
41670SOL    HW126843   5.708   2.012   6.564
41670SOL    HW226844   5.570   1.950   6.582
41671SOL     OW26845  12.611  13.154  13.550
41671SOL    HW126846  12.667  13.086  13.587
41671SOL    HW226847  12.645  13.236  13.587
41672SOL     OW26848  10.140  11.016   3.301
41672SOL    HW126849  10.102  10.928   3.294
41672SOL    HW226850  10.203  11.008   3.373
41673SOL     OW26851   5.672   9.694  11.397
41673SOL    HW126852   5.631   9.776  11.370
41673SOL    HW226853   5.725   9.668  11.322
41674SOL     OW26854   2.390   6.786   6.635
41674SOL    HW126855   2.486   6.783   6.641
41674SOL    HW226856   2.366   6.704   6.594
41675SOL     OW26857   5.136   9.233   3.599
41675SOL    HW126858   5.210   9.266   3.547
41675SOL    HW226859   5.094   9.313   3.632
41676SOL     OW26860   6.822   1.935   5.841
41676SOL    HW126861   6.781   1.850   5.859
41676SOL    HW226862   6.753   1.999   5.857
41677SOL     OW26863   5.774  13.758   1.164
41677SOL    HW126864   5.782  13.683   1.224
41677SOL    HW226865   5.854  13.754   1.111
41678SOL     OW26866  14.023  14.689   2.740
41678SOL    HW126867  14.044  14.735   2.821
41678SOL    HW226868  14.073  14.608   2.744
41679SOL     OW26869   3.801  12.506   3.723
41679SOL    HW126870   3.864  12.439   3.695
41679SOL    HW226871   3.806  12.505   3.818
41680SOL     OW26872   3.879   7.614  14.745
41680SOL    HW126873   3.811   7.636  14.681
41680SOL    HW226874   3.911   7.699  14.776
41681SOL     OW26875   3.149   5.832  14.358
41681SOL    HW126876   3.137   5.869  14.445
41681SOL    HW226877   3.166   5.739  14.373
41682SOL     OW26878   4.920   1.848   6.545
41682SOL    HW126879   4.866   1.894   6.609
41682SOL    HW226880   4.874   1.765   6.530
41683SOL     OW26881   0.867   2.566  11.551
41683SOL    HW126882   0.840   2.623  11.624
41683SOL    HW226883   0.962   2.561  11.560
41684SOL     OW26884   1.243   8.361   8.279
41684SOL    HW126885   1.246   8.269   8.253
41684SOL    HW226886   1.199   8.404   8.206
41685SOL     OW26887   0.852  11.292   2.305
41685SOL    HW126888   0.784  11.345   2.347
41685SOL    HW226889   0.884  11.346   2.233
41686SOL     OW26890  12.074  11.072   4.692
41686SOL    HW126891  12.067  11.042   4.783
41686SOL    HW226892  12.067  10.992   4.640
41687SOL     OW26893   0.892  10.615   7.515
41687SOL    HW126894   0.842  10.551   7.565
41687SOL    HW226895   0.902  10.576   7.429
41688SOL     OW26896   4.188   4.947   8.900
41688SOL    HW126897   4.217   4.887   8.968
41688SOL    HW226898   4.254   5.017   8.899
41689SOL     OW26899   4.555   9.584   4.369
41689SOL    HW126900   4.571   9.603   4.462
41689SOL    HW226901   4.536   9.670   4.330
41690SOL     OW26902  10.456  10.741  12.628
41690SOL    HW126903  10.420  10.727  12.540
41690SOL    HW226904  10.434  10.832  12.648
41691SOL     OW26905   9.364   1.444  14.605
41691SOL    HW126906   9.384   1.507  14.675
41691SOL    HW226907   9.448   1.433  14.559
41692SOL     OW26908   5.356   8.567  13.314
41692SOL    HW126909   5.320   8.571  13.403
41692SOL    HW226910   5.288   8.524  13.263
41693SOL     OW26911   4.532   2.794   2.026
41693SOL    HW126912   4.521   2.845   2.106
41693SOL    HW226913   4.455   2.736   2.023
41694SOL     OW26914   5.843  12.987   6.543
41694SOL    HW126915   5.791  13.040   6.604
41694SOL    HW226916   5.843  13.037   6.461
41695SOL     OW26917   4.079   5.777   4.419
41695SOL    HW126918   4.105   5.694   4.380
41695SOL    HW226919   4.117   5.844   4.362
41696SOL     OW26920  13.844   3.230  11.441
41696SOL    HW126921  13.893   3.198  11.365
41696SOL    HW226922  13.876   3.177  11.514
41697SOL     OW26923   9.356   2.817   3.487
41697SOL    HW126924   9.448   2.842   3.485
41697SOL    HW226925   9.354   2.732   3.442
41698SOL     OW26926   5.238   3.702   0.224
41698SOL    HW126927   5.152   3.725   0.259
41698SOL    HW226928   5.226   3.616   0.182
41699SOL     OW26929   5.982   2.463   2.419
41699SOL    HW126930   6.060   2.448   2.365
41699SOL    HW226931   6.011   2.524   2.487
41700SOL     OW26932   4.217   1.854   2.999
41700SOL    HW126933   4.130   1.814   2.992
41700SOL    HW226934   4.201   1.945   3.023
41701SOL     OW26935   7.134   4.008   1.981
41701SOL    HW126936   7.133   3.917   2.010
41701SOL    HW226937   7.224   4.022   1.951
41702SOL     OW26938  11.215   4.488   4.926
41702SOL    HW126939  11.147   4.518   4.865
41702SOL    HW226940  11.296   4.527   4.892
41703SOL     OW26941  14.872   4.192   8.092
41703SOL    HW126942   0.063   4.225   8.028
41703SOL    HW226943   0.049   4.131   8.147
41704SOL     OW26944   7.664   1.233   4.761
41704SOL    HW126945   7.700   1.243   4.849
41704SOL    HW226946   7.572   1.258   4.770
41705SOL     OW26947   2.082   9.985   5.904
41705SOL    HW126948   2.112   9.964   5.816
41705SOL    HW226949   2.094  10.079   5.912
41706SOL     OW26950  12.067  10.982   9.638
41706SOL    HW126951  12.093  10.971   9.546
41706SOL    HW226952  11.983  11.028   9.634
41707SOL     OW26953   0.680  13.399  14.837
41707SOL    HW126954   0.652  13.428   0.052
41707SOL    HW226955   0.775  13.409  14.839
41708SOL     OW26956   0.473   4.941   7.544
41708SOL    HW126957   0.556   4.969   7.505
41708SOL    HW226958   0.498   4.890   7.621
41709SOL     OW26959  10.158   1.709  13.754
41709SOL    HW126960  10.173   1.756  13.836
41709SOL    HW226961  10.068   1.678  13.759
41710SOL     OW26962  14.195   7.211  11.901
41710SOL    HW126963  14.228   7.139  11.847
41710SOL    HW226964  14.102   7.217  11.880
41711SOL     OW26965   8.031  11.550   5.503
41711SOL    HW126966   8.120  11.522   5.523
41711SOL    HW226967   8.009  11.507   5.421
41712SOL     OW26968   9.229   6.362   1.708
41712SOL    HW126969   9.287   6.333   1.778
41712SOL    HW226970   9.156   6.300   1.711
41713SOL     OW26971   3.383   5.870  13.640
41713SOL    HW126972   3.345   5.878  13.553
41713SOL    HW226973   3.425   5.955  13.656
41714SOL     OW26974   6.880   5.866  11.365
41714SOL    HW126975   6.864   5.789  11.310
41714SOL    HW226976   6.805   5.923  11.350
41715SOL     OW26977   8.437   8.684  13.521
41715SOL    HW126978   8.462   8.763  13.569
41715SOL    HW226979   8.510   8.623  13.536
41716SOL     OW26980   5.584   9.072   8.284
41716SOL    HW126981   5.661   9.045   8.334
41716SOL    HW226982   5.607   9.052   8.193
41717SOL     OW26983   9.137  13.041   5.611
41717SOL    HW126984   9.070  12.977   5.632
41717SOL    HW226985   9.152  13.087   5.694
41718SOL     OW26986   1.735   1.352  14.452
41718SOL    HW126987   1.683   1.431  14.469
41718SOL    HW226988   1.671   1.285  14.431
41719SOL     OW26989   0.316   1.413  14.623
41719SOL    HW126990   0.360   1.407  14.539
41719SOL    HW226991   0.292   1.506  14.631
41720SOL     OW26992   9.160   2.312  12.002
41720SOL    HW126993   9.222   2.383  11.987
41720SOL    HW226994   9.214   2.234  12.013
41721SOL     OW26995   4.608  10.293   3.982
41721SOL    HW126996   4.678  10.323   3.924
41721SOL    HW226997   4.554  10.371   3.997
41722SOL     OW26998  14.584   0.875   6.839
41722SOL    HW126999  14.666   0.908   6.800
41722SOL    HW227000  14.520   0.943   6.821
41723SOL     OW27001   5.596   1.585   6.891
41723SOL    HW127002   5.617   1.541   6.972
41723SOL    HW227003   5.652   1.662   6.889
41724SOL     OW27004  14.518  13.822   8.409
41724SOL    HW127005  14.583  13.757   8.381
41724SOL    HW227006  14.459  13.773   8.466
41725SOL     OW27007  10.593   8.646   9.874
41725SOL    HW127008  10.683   8.626   9.847
41725SOL    HW227009  10.540   8.625   9.797
41726SOL     OW27010  13.494  11.170   0.343
41726SOL    HW127011  13.466  11.108   0.409
41726SOL    HW227012  13.534  11.242   0.393
41727SOL     OW27013  13.696  13.118   9.123
41727SOL    HW127014  13.768  13.103   9.061
41727SOL    HW227015  13.701  13.044   9.184
41728SOL     OW27016   2.550  12.084   1.398
41728SOL    HW127017   2.539  12.178   1.386
41728SOL    HW227018   2.475  12.045   1.353
41729SOL     OW27019  11.848   1.896   2.782
41729SOL    HW127020  11.941   1.893   2.803
41729SOL    HW227021  11.844   1.943   2.699
41730SOL     OW27022   5.681   6.991  11.394
41730SOL    HW127023   5.658   6.947  11.476
41730SOL    HW227024   5.685   6.920  11.330
41731SOL     OW27025   0.558   7.507   5.822
41731SOL    HW127026   0.626   7.474   5.764
41731SOL    HW227027   0.501   7.432   5.838
41732SOL     OW27028  14.585   5.333   9.440
41732SOL    HW127029  14.519   5.340   9.371
41732SOL    HW227030  14.645   5.265   9.408
41733SOL     OW27031  14.786   3.476   8.851
41733SOL    HW127032  14.835   3.557   8.867
41733SOL    HW227033  14.824   3.440   8.771
41734SOL     OW27034   1.194   7.590  11.033
41734SOL    HW127035   1.226   7.590  10.943
41734SOL    HW227036   1.130   7.660  11.036
41735SOL     OW27037   5.610   9.276  13.752
41735SOL    HW127038   5.666   9.350  13.728
41735SOL    HW227039   5.596   9.229  13.670
41736SOL     OW27040   0.574   6.606   0.269
41736SOL    HW127041   0.579   6.595   0.174
41736SOL    HW227042   0.625   6.685   0.286
41737SOL     OW27043   1.940  11.916  13.566
41737SOL    HW127044   2.027  11.918  13.527
41737SOL    HW227045   1.955  11.932  13.659
41738SOL     OW27046   2.042   3.425   3.943
41738SOL    HW127047   1.960   3.470   3.922
41738SOL    HW227048   2.032   3.400   4.035
41739SOL     OW27049   6.246   9.544  13.546
41739SOL    HW127050   6.326   9.512  13.505
41739SOL    HW227051   6.266   9.546  13.640
41740SOL     OW27052  10.181   9.237  10.322
41740SOL    HW127053  10.147   9.178  10.390
41740SOL    HW227054  10.116   9.232  10.252
41741SOL     OW27055   7.964   0.399   5.417
41741SOL    HW127056   8.028   0.442   5.361
41741SOL    HW227057   7.912   0.470   5.453
41742SOL     OW27058   2.260   5.898  13.924
41742SOL    HW127059   2.174   5.857  13.913
41742SOL    HW227060   2.241   5.987  13.951
41743SOL     OW27061   2.334  10.093  12.520
41743SOL    HW127062   2.240  10.079  12.527
41743SOL    HW227063   2.351  10.099  12.426
41744SOL     OW27064  11.065  10.504   9.583
41744SOL    HW127065  10.981  10.477   9.546
41744SOL    HW227066  11.129  10.444   9.545
41745SOL     OW27067  11.440  14.341  13.319
41745SOL    HW127068  11.467  14.433  13.324
41745SOL    HW227069  11.470  14.303  13.401
41746SOL     OW27070  13.706   1.751   0.482
41746SOL    HW127071  13.651   1.716   0.552
41746SOL    HW227072  13.795   1.751   0.518
41747SOL     OW27073   0.540   9.041   5.694
41747SOL    HW127074   0.459   9.090   5.677
41747SOL    HW227075   0.583   9.036   5.608
41748SOL     OW27076  10.269   5.865   8.210
41748SOL    HW127077  10.266   5.937   8.148
41748SOL    HW227078  10.179   5.853   8.239
41749SOL     OW27079   8.973   8.869  14.182
41749SOL    HW127080   9.065   8.858  14.157
41749SOL    HW227081   8.935   8.920  14.111
41750SOL     OW27082  11.901   8.978  13.567
41750SOL    HW127083  11.903   9.074  13.570
41750SOL    HW227084  11.808   8.956  13.560
41751SOL     OW27085   0.193   9.035   0.939
41751SOL    HW127086   0.188   8.962   0.877
41751SOL    HW227087   0.135   9.009   1.010
41752SOL     OW27088  12.374   5.781   3.097
41752SOL    HW127089  12.389   5.739   3.182
41752SOL    HW227090  12.365   5.874   3.118
41753SOL     OW27091   3.428  14.119   7.518
41753SOL    HW127092   3.397  14.040   7.474
41753SOL    HW227093   3.475  14.167   7.451
41754SOL     OW27094   4.888   2.355  11.597
41754SOL    HW127095   4.970   2.361  11.549
41754SOL    HW227096   4.836   2.428  11.565
41755SOL     OW27097   3.941   9.145   8.150
41755SOL    HW127098   3.953   9.078   8.217
41755SOL    HW227099   3.888   9.212   8.192
41756SOL     OW27100   1.478  11.502  13.706
41756SOL    HW127101   1.429  11.454  13.639
41756SOL    HW227102   1.513  11.578  13.660
41757SOL     OW27103   9.539  13.571   3.361
41757SOL    HW127104   9.598  13.543   3.292
41757SOL    HW227105   9.482  13.636   3.320
41758SOL     OW27106   0.687   3.433  14.142
41758SOL    HW127107   0.771   3.478  14.149
41758SOL    HW227108   0.707   3.353  14.093
41759SOL     OW27109   4.658   4.780  13.952
41759SOL    HW127110   4.712   4.702  13.942
41759SOL    HW227111   4.651   4.817  13.864
41760SOL     OW27112   0.477   7.798   8.012
41760SOL    HW127113   0.501   7.864   7.946
41760SOL    HW227114   0.532   7.818   8.087
41761SOL     OW27115   4.555   0.904  11.770
41761SOL    HW127116   4.532   0.816  11.801
41761SOL    HW227117   4.645   0.896  11.738
41762SOL     OW27118  13.202  13.618   9.447
41762SOL    HW127119  13.151  13.641   9.369
41762SOL    HW227120  13.180  13.686   9.511
41763SOL     OW27121   7.012   3.831   4.772
41763SOL    HW127122   6.946   3.789   4.716
41763SOL    HW227123   6.979   3.919   4.786
41764SOL     OW27124   9.025  11.960  10.686
41764SOL    HW127125   9.090  11.925  10.626
41764SOL    HW227126   8.976  11.884  10.716
41765SOL     OW27127  13.447   7.986   6.645
41765SOL    HW127128  13.381   7.968   6.577
41765SOL    HW227129  13.426   8.074   6.675
41766SOL     OW27130   0.892   0.255   4.897
41766SOL    HW127131   0.827   0.192   4.864
41766SOL    HW227132   0.840   0.319   4.945
41767SOL     OW27133   3.896  10.270  10.004
41767SOL    HW127134   3.870  10.279  10.096
41767SOL    HW227135   3.937  10.184   9.998
41768SOL     OW27136   6.763   8.616   9.047
41768SOL    HW127137   6.762   8.711   9.042
41768SOL    HW227138   6.845   8.590   9.005
41769SOL     OW27139  12.604   1.271  11.316
41769SOL    HW127140  12.548   1.288  11.392
41769SOL    HW227141  12.568   1.190  11.278
41770SOL     OW27142   1.773   0.262   5.660
41770SOL    HW127143   1.853   0.289   5.614
41770SOL    HW227144   1.709   0.331   5.639
41771SOL     OW27145  11.447   6.803  13.946
41771SOL    HW127146  11.354   6.809  13.924
41771SOL    HW227147  11.454   6.724  13.999
41772SOL     OW27148   5.109   5.796   3.991
41772SOL    HW127149   5.039   5.856   4.017
41772SOL    HW227150   5.170   5.799   4.064
41773SOL     OW27151   8.606  12.423  14.253
41773SOL    HW127152   8.686  12.391  14.212
41773SOL    HW227153   8.536  12.383  14.203
41774SOL     OW27154  10.660   5.169   6.382
41774SOL    HW127155  10.730   5.123   6.335
41774SOL    HW227156  10.604   5.099   6.415
41775SOL     OW27157   7.845  10.660   7.115
41775SOL    HW127158   7.912  10.604   7.073
41775SOL    HW227159   7.836  10.623   7.203
41776SOL     OW27160  12.103   1.811   1.793
41776SOL    HW127161  12.122   1.717   1.795
41776SOL    HW227162  12.084   1.830   1.701
41777SOL     OW27163   4.090   9.872   4.118
41777SOL    HW127164   4.120   9.794   4.165
41777SOL    HW227165   4.076   9.841   4.028
41778SOL     OW27166   9.210  14.303   1.832
41778SOL    HW127167   9.161  14.260   1.902
41778SOL    HW227168   9.144  14.354   1.786
41779SOL     OW27169   0.059  14.718   7.443
41779SOL    HW127170   0.057  14.807   7.407
41779SOL    HW227171  14.850  14.710   7.493
41780SOL     OW27172   8.949   5.002   3.220
41780SOL    HW127173   9.037   5.025   3.188
41780SOL    HW227174   8.920   5.080   3.267
41781SOL     OW27175  10.454   1.352  11.284
41781SOL    HW127176  10.362   1.328  11.290
41781SOL    HW227177  10.501   1.280  11.325
41782SOL     OW27178  10.732   0.033  13.765
41782SOL    HW127179  10.761  14.815  13.768
41782SOL    HW227180  10.641   0.030  13.794
41783SOL     OW27181  13.726   4.225   6.932
41783SOL    HW127182  13.770   4.267   7.006
41783SOL    HW227183  13.651   4.180   6.972
41784SOL     OW27184   4.830   4.406  12.365
41784SOL    HW127185   4.874   4.482  12.403
41784SOL    HW227186   4.772   4.442  12.297
41785SOL     OW27187   6.045   8.939   1.791
41785SOL    HW127188   6.109   8.957   1.721
41785SOL    HW227189   6.039   9.021   1.840
41786SOL     OW27190  13.084   3.855   1.747
41786SOL    HW127191  13.029   3.860   1.825
41786SOL    HW227192  13.080   3.943   1.709
41787SOL     OW27193   0.650   7.950   1.123
41787SOL    HW127194   0.598   7.892   1.068
41787SOL    HW227195   0.732   7.903   1.137
41788SOL     OW27196  10.522   4.461  11.308
41788SOL    HW127197  10.585   4.409  11.358
41788SOL    HW227198  10.571   4.538  11.281
41789SOL     OW27199   4.899   9.722  12.034
41789SOL    HW127200   4.817   9.673  12.022
41789SOL    HW227201   4.878   9.785  12.103
41790SOL     OW27202  11.991   2.351  11.638
41790SOL    HW127203  12.063   2.320  11.692
41790SOL    HW227204  11.988   2.446  11.654
41791SOL     OW27205   3.503   1.997  14.411
41791SOL    HW127206   3.416   1.972  14.441
41791SOL    HW227207   3.507   1.966  14.321
41792SOL     OW27208   5.691   6.166   4.297
41792SOL    HW127209   5.642   6.106   4.352
41792SOL    HW227210   5.646   6.165   4.213
41793SOL     OW27211  11.519   6.601  14.364
41793SOL    HW127212  11.489   6.585  14.275
41793SOL    HW227213  11.525   6.514  14.404
41794SOL     OW27214   2.019  14.628   7.610
41794SOL    HW127215   1.963  14.662   7.680
41794SOL    HW227216   2.006  14.533   7.613
41795SOL     OW27217   8.814  14.537   2.135
41795SOL    HW127218   8.740  14.503   2.186
41795SOL    HW227219   8.888  14.537   2.195
41796SOL     OW27220   3.813  12.396   2.175
41796SOL    HW127221   3.740  12.451   2.147
41796SOL    HW227222   3.881  12.409   2.109
41797SOL     OW27223   0.428   0.270   0.790
41797SOL    HW127224   0.434   0.254   0.696
41797SOL    HW227225   0.459   0.359   0.802
41798SOL     OW27226   1.428   1.396   1.459
41798SOL    HW127227   1.408   1.304   1.471
41798SOL    HW227228   1.417   1.435   1.546
41799SOL     OW27229   9.457  10.973   6.337
41799SOL    HW127230   9.409  10.896   6.365
41799SOL    HW227231   9.529  10.939   6.285
41800SOL     OW27232   3.169  14.348  12.881
41800SOL    HW127233   3.147  14.359  12.788
41800SOL    HW227234   3.259  14.380  12.888
41801SOL     OW27235   9.353   7.411   1.268
41801SOL    HW127236   9.377   7.372   1.184
41801SOL    HW227237   9.266   7.377   1.286
41802SOL     OW27238   7.147   9.389   1.926
41802SOL    HW127239   7.223   9.362   1.978
41802SOL    HW227240   7.084   9.317   1.938
41803SOL     OW27241   2.315  10.430   4.090
41803SOL    HW127242   2.388  10.370   4.106
41803SOL    HW227243   2.268  10.434   4.173
41804SOL     OW27244   2.064   2.670  12.459
41804SOL    HW127245   2.014   2.675  12.540
41804SOL    HW227246   2.154   2.688  12.486
41805SOL     OW27247   6.126   2.181   2.536
41805SOL    HW127248   6.205   2.135   2.565
41805SOL    HW227249   6.134   2.268   2.574
41806SOL     OW27250  11.489   5.420   9.751
41806SOL    HW127251  11.538   5.375   9.682
41806SOL    HW227252  11.434   5.352   9.789
41807SOL     OW27253  12.671   5.511  14.480
41807SOL    HW127254  12.584   5.478  14.455
41807SOL    HW227255  12.720   5.432  14.505
41808SOL     OW27256  11.061   5.891   8.526
41808SOL    HW127257  11.039   5.804   8.557
41808SOL    HW227258  10.986   5.916   8.471
41809SOL     OW27259  14.418  12.852   2.475
41809SOL    HW127260  14.400  12.762   2.503
41809SOL    HW227261  14.340  12.901   2.502
41810SOL     OW27262   8.247   5.095   6.661
41810SOL    HW127263   8.288   5.097   6.748
41810SOL    HW227264   8.304   5.149   6.607
41811SOL     OW27265   7.857   0.626  14.764
41811SOL    HW127266   7.885   0.544  14.804
41811SOL    HW227267   7.778   0.603  14.714
41812SOL     OW27268   6.905  11.392   0.436
41812SOL    HW127269   6.835  11.457   0.437
41812SOL    HW227270   6.903  11.357   0.347
41813SOL     OW27271   8.809  14.176   2.611
41813SOL    HW127272   8.861  14.252   2.584
41813SOL    HW227273   8.719  14.206   2.607
41814SOL     OW27274  13.303   7.004   6.507
41814SOL    HW127275  13.266   7.080   6.553
41814SOL    HW227276  13.361   7.042   6.441
41815SOL     OW27277  11.639   6.151   2.396
41815SOL    HW127278  11.632   6.101   2.315
41815SOL    HW227279  11.625   6.087   2.466
41816SOL     OW27280   1.016   0.755   3.440
41816SOL    HW127281   0.962   0.692   3.488
41816SOL    HW227282   1.086   0.703   3.401
41817SOL     OW27283  12.809   1.053   1.667
41817SOL    HW127284  12.751   1.022   1.598
41817SOL    HW227285  12.816   0.979   1.727
41818SOL     OW27286   0.415   9.700   4.587
41818SOL    HW127287   0.417   9.772   4.651
41818SOL    HW227288   0.346   9.725   4.526
41819SOL     OW27289   3.143  12.540  13.215
41819SOL    HW127290   3.072  12.532  13.151
41819SOL    HW227291   3.108  12.500  13.294
41820SOL     OW27292   8.266   0.907   2.496
41820SOL    HW127293   8.204   0.839   2.521
41820SOL    HW227294   8.350   0.863   2.491
41821SOL     OW27295  12.983  13.772   0.858
41821SOL    HW127296  13.010  13.712   0.789
41821SOL    HW227297  13.034  13.745   0.935
41822SOL     OW27298   6.357  13.936   8.558
41822SOL    HW127299   6.357  13.978   8.644
41822SOL    HW227300   6.306  13.856   8.571
41823SOL     OW27301  11.766   4.565   9.162
41823SOL    HW127302  11.861   4.551   9.154
41823SOL    HW227303  11.759   4.647   9.212
41824SOL     OW27304   0.548   4.703   7.762
41824SOL    HW127305   0.466   4.660   7.736
41824SOL    HW227306   0.572   4.661   7.844
41825SOL     OW27307  13.413   3.277  14.348
41825SOL    HW127308  13.421   3.372  14.344
41825SOL    HW227309  13.329   3.262  14.392
41826SOL     OW27310   2.072   3.540  13.713
41826SOL    HW127311   2.067   3.625  13.668
41826SOL    HW227312   1.982   3.508  13.714
41827SOL     OW27313   8.000  14.765  13.597
41827SOL    HW127314   7.917  14.725  13.571
41827SOL    HW227315   7.998  14.852  13.556
41828SOL     OW27316   9.032  10.722   9.567
41828SOL    HW127317   8.937  10.733   9.567
41828SOL    HW227318   9.056  10.711   9.475
41829SOL     OW27319   6.640   8.404  13.380
41829SOL    HW127320   6.685   8.445  13.307
41829SOL    HW227321   6.574   8.347  13.339
41830SOL     OW27322   4.551  10.304   3.625
41830SOL    HW127323   4.574  10.267   3.710
41830SOL    HW227324   4.635  10.321   3.583
41831SOL     OW27325   8.377   8.368  11.896
41831SOL    HW127326   8.443   8.393  11.831
41831SOL    HW227327   8.310   8.436  11.890
41832SOL     OW27328   1.460   5.048  10.342
41832SOL    HW127329   1.502   4.994  10.275
41832SOL    HW227330   1.455   5.136  10.302
41833SOL     OW27331  10.012  12.618   6.398
41833SOL    HW127332  10.019  12.688   6.333
41833SOL    HW227333  10.044  12.540   6.352
41834SOL     OW27334   4.008   6.943  14.087
41834SOL    HW127335   3.980   7.001  14.016
41834SOL    HW227336   3.938   6.949  14.152
41835SOL     OW27337   5.678  12.666  13.323
41835SOL    HW127338   5.754  12.724  13.321
41835SOL    HW227339   5.634  12.688  13.406
41836SOL     OW27340   1.445   2.430   6.318
41836SOL    HW127341   1.394   2.511   6.317
41836SOL    HW227342   1.500   2.438   6.397
41837SOL     OW27343  12.360   5.724   1.333
41837SOL    HW127344  12.320   5.707   1.418
41837SOL    HW227345  12.362   5.819   1.325
41838SOL     OW27346   0.140  13.395  10.537
41838SOL    HW127347   0.185  13.480  10.534
41838SOL    HW227348   0.198  13.335  10.491
41839SOL     OW27349  11.001   2.412  11.873
41839SOL    HW127350  11.024   2.500  11.904
41839SOL    HW227351  11.013   2.356  11.950
41840SOL     OW27352   6.364   3.964   6.656
41840SOL    HW127353   6.293   4.001   6.707
41840SOL    HW227354   6.364   3.871   6.679
41841SOL     OW27355   8.135  10.730   0.732
41841SOL    HW127356   8.170  10.819   0.725
41841SOL    HW227357   8.213  10.674   0.732
41842SOL     OW27358  11.666  10.602  14.860
41842SOL    HW127359  11.720  10.657   0.044
41842SOL    HW227360  11.669  10.645  14.775
41843SOL     OW27361  14.258   8.137   0.262
41843SOL    HW127362  14.287   8.163   0.349
41843SOL    HW227363  14.303   8.197   0.202
41844SOL     OW27364  12.625   1.705   5.196
41844SOL    HW127365  12.564   1.659   5.138
41844SOL    HW227366  12.678   1.635   5.234
41845SOL     OW27367   6.069  11.367   0.922
41845SOL    HW127368   6.162  11.385   0.938
41845SOL    HW227369   6.068  11.274   0.899
41846SOL     OW27370  11.205   1.253   5.550
41846SOL    HW127371  11.178   1.250   5.458
41846SOL    HW227372  11.258   1.332   5.557
41847SOL     OW27373   9.471  13.343   7.017
41847SOL    HW127374   9.479  13.251   6.990
41847SOL    HW227375   9.540  13.388   6.968
41848SOL     OW27376   3.448   9.620   8.267
41848SOL    HW127377   3.496   9.611   8.350
41848SOL    HW227378   3.361   9.587   8.286
41849SOL     OW27379   8.927   2.875   9.146
41849SOL    HW127380   8.836   2.852   9.164
41849SOL    HW227381   8.977   2.828   9.212
41850SOL     OW27382  14.561   5.399  11.052
41850SOL    HW127383  14.478   5.419  11.009
41850SOL    HW227384  14.621   5.379  10.981
41851SOL     OW27385   0.826   3.407  14.561
41851SOL    HW127386   0.778   3.478  14.603
41851SOL    HW227387   0.903   3.450  14.523
41852SOL     OW27388   1.042  10.265  12.401
41852SOL    HW127389   0.969  10.322  12.424
41852SOL    HW227390   1.001  10.186  12.365
41853SOL     OW27391   5.003   0.058   4.619
41853SOL    HW127392   5.079   0.091   4.667
41853SOL    HW227393   4.933   0.054   4.684
41854SOL     OW27394  12.259   7.571   0.636
41854SOL    HW127395  12.266   7.645   0.696
41854SOL    HW227396  12.342   7.525   0.645
41855SOL     OW27397  12.378   5.687   5.041
41855SOL    HW127398  12.302   5.696   4.984
41855SOL    HW227399  12.342   5.691   5.129
41856SOL     OW27400   5.012   0.712   1.997
41856SOL    HW127401   4.960   0.727   2.077
41856SOL    HW227402   5.010   0.796   1.952
41857SOL     OW27403  13.522  14.366   8.299
41857SOL    HW127404  13.512  14.457   8.326
41857SOL    HW227405  13.598  14.367   8.241
41858SOL     OW27406  12.707  12.760  11.624
41858SOL    HW127407  12.646  12.735  11.694
41858SOL    HW227408  12.703  12.687  11.562
41859SOL     OW27409   5.167   0.172   6.471
41859SOL    HW127410   5.219   0.223   6.533
41859SOL    HW227411   5.129   0.238   6.413
41860SOL     OW27412  10.070  13.417  11.279
41860SOL    HW127413  10.057  13.328  11.246
41860SOL    HW227414  10.162  13.420  11.303
41861SOL     OW27415   2.277   1.177  11.875
41861SOL    HW127416   2.314   1.175  11.963
41861SOL    HW227417   2.218   1.252  11.875
41862SOL     OW27418  14.781   5.110   1.308
41862SOL    HW127419  14.740   5.032   1.271
41862SOL    HW227420  14.845   5.136   1.242
41863SOL     OW27421   2.682  10.627   2.272
41863SOL    HW127422   2.698  10.676   2.352
41863SOL    HW227423   2.619  10.559   2.298
41864SOL     OW27424   8.890   1.067  14.582
41864SOL    HW127425   8.947   1.116  14.641
41864SOL    HW227426   8.921   1.091  14.494
41865SOL     OW27427  11.136   4.206  10.156
41865SOL    HW127428  11.057   4.162  10.187
41865SOL    HW227429  11.104   4.268  10.090
41866SOL     OW27430   2.779   4.831   0.980
41866SOL    HW127431   2.756   4.766   1.047
41866SOL    HW227432   2.773   4.915   1.025
41867SOL     OW27433   6.518  14.572  12.873
41867SOL    HW127434   6.499  14.543  12.963
41867SOL    HW227435   6.552  14.494  12.830
41868SOL     OW27436   7.898  14.736  12.171
41868SOL    HW127437   7.813  14.693  12.177
41868SOL    HW227438   7.961  14.667  12.190
41869SOL     OW27439  10.139   8.058  13.547
41869SOL    HW127440  10.200   8.127  13.575
41869SOL    HW227441  10.125   8.076  13.454
41870SOL     OW27442   7.525   1.758   1.862
41870SOL    HW127443   7.563   1.789   1.779
41870SOL    HW227444   7.600   1.737   1.917
41871SOL     OW27445   2.530   9.990   4.476
41871SOL    HW127446   2.546  10.054   4.407
41871SOL    HW227447   2.594  10.011   4.544
41872SOL     OW27448  11.773  10.174   6.101
41872SOL    HW127449  11.837  10.161   6.171
41872SOL    HW227450  11.722  10.250   6.128
41873SOL     OW27451   0.373   0.410  14.494
41873SOL    HW127452   0.422   0.492  14.502
41873SOL    HW227453   0.396   0.361  14.573
41874SOL     OW27454   7.187   8.834   2.994
41874SOL    HW127455   7.093   8.828   2.976
41874SOL    HW227456   7.197   8.797   3.081
41875SOL     OW27457   4.649   6.916   2.996
41875SOL    HW127458   4.583   6.848   3.011
41875SOL    HW227459   4.654   6.962   3.080
41876SOL     OW27460  12.823   8.457   7.365
41876SOL    HW127461  12.781   8.372   7.379
41876SOL    HW227462  12.818   8.471   7.270
41877SOL     OW27463   7.955   1.233   5.720
41877SOL    HW127464   7.921   1.214   5.633
41877SOL    HW227465   8.000   1.153   5.746
41878SOL     OW27466   0.899   9.833   7.348
41878SOL    HW127467   0.994   9.826   7.339
41878SOL    HW227468   0.881   9.806   7.438
41879SOL     OW27469   4.482   5.580   7.474
41879SOL    HW127470   4.513   5.573   7.384
41879SOL    HW227471   4.561   5.575   7.527
41880SOL     OW27472  12.441   6.986  12.739
41880SOL    HW127473  12.457   6.963  12.831
41880SOL    HW227474  12.526   7.016  12.706
41881SOL     OW27475   2.362   1.708   5.709
41881SOL    HW127476   2.434   1.673   5.658
41881SOL    HW227477   2.288   1.709   5.648
41882SOL     OW27478   3.726   4.402   1.948
41882SOL    HW127479   3.816   4.371   1.934
41882SOL    HW227480   3.680   4.326   1.984
41883SOL     OW27481   2.955   0.251  11.843
41883SOL    HW127482   2.950   0.306  11.765
41883SOL    HW227483   2.864   0.224  11.859
41884SOL     OW27484   7.158   6.846   0.051
41884SOL    HW127485   7.066   6.870   0.055
41884SOL    HW227486   7.203   6.926   0.024
41885SOL     OW27487   5.351   1.825   4.691
41885SOL    HW127488   5.278   1.763   4.687
41885SOL    HW227489   5.311   1.909   4.712
41886SOL     OW27490   3.583  14.424  10.627
41886SOL    HW127491   3.528  14.402  10.551
41886SOL    HW227492   3.543  14.376  10.700
41887SOL     OW27493   6.880  14.800  10.951
41887SOL    HW127494   6.905  14.859  11.023
41887SOL    HW227495   6.792  14.828  10.926
41888SOL     OW27496   5.268   1.328   8.667
41888SOL    HW127497   5.213   1.392   8.622
41888SOL    HW227498   5.325   1.294   8.598
41889SOL     OW27499  13.861   6.118   7.519
41889SOL    HW127500  13.865   6.045   7.581
41889SOL    HW227501  13.767   6.133   7.506
41890SOL     OW27502   0.427   2.133   2.664
41890SOL    HW127503   0.395   2.220   2.687
41890SOL    HW227504   0.429   2.132   2.568
41891SOL     OW27505   3.221   2.253   9.867
41891SOL    HW127506   3.128   2.253   9.889
41891SOL    HW227507   3.266   2.259   9.951
41892SOL     OW27508   7.999   0.071   8.397
41892SOL    HW127509   7.931   0.138   8.403
41892SOL    HW227510   8.042   0.073   8.482
41893SOL     OW27511   0.860   9.716   1.118
41893SOL    HW127512   0.874   9.796   1.068
41893SOL    HW227513   0.872   9.645   1.055
41894SOL     OW27514   2.686   5.484  11.921
41894SOL    HW127515   2.755   5.424  11.950
41894SOL    HW227516   2.684   5.473  11.826
41895SOL     OW27517  13.116  14.561  13.199
41895SOL    HW127518  13.147  14.579  13.110
41895SOL    HW227519  13.085  14.646  13.231
41896SOL     OW27520  10.531  11.085   6.680
41896SOL    HW127521  10.530  11.167   6.730
41896SOL    HW227522  10.590  11.103   6.607
41897SOL     OW27523   6.577   9.477   0.815
41897SOL    HW127524   6.628   9.418   0.760
41897SOL    HW227525   6.583   9.562   0.770
41898SOL     OW27526  10.101   4.823  11.563
41898SOL    HW127527  10.043   4.780  11.626
41898SOL    HW227528  10.183   4.837  11.612
41899SOL     OW27529   8.912   9.734  11.334
41899SOL    HW127530   8.916   9.825  11.304
41899SOL    HW227531   8.999   9.716  11.368
41900SOL     OW27532   3.417   0.903   6.687
41900SOL    HW127533   3.458   0.975   6.735
41900SOL    HW227534   3.484   0.874   6.625
41901SOL     OW27535   8.013  10.686  11.915
41901SOL    HW127536   8.102  10.688  11.951
41901SOL    HW227537   8.024  10.657  11.825
41902SOL     OW27538  10.892   8.635   6.250
41902SOL    HW127539  10.828   8.582   6.202
41902SOL    HW227540  10.942   8.571   6.301
41903SOL     OW27541   2.413   5.801  12.749
41903SOL    HW127542   2.423   5.774  12.658
41903SOL    HW227543   2.501   5.800  12.784
41904SOL     OW27544   2.641   8.954  12.599
41904SOL    HW127545   2.601   9.039  12.582
41904SOL    HW227546   2.695   8.968  12.677
41905SOL     OW27547   8.011   4.185  12.280
41905SOL    HW127548   8.052   4.224  12.203
41905SOL    HW227549   7.964   4.258  12.321
41906SOL     OW27550   4.097   7.236   9.766
41906SOL    HW127551   4.142   7.210   9.686
41906SOL    HW227552   4.103   7.331   9.768
41907SOL     OW27553   7.762   9.495  14.773
41907SOL    HW127554   7.785   9.549  14.848
41907SOL    HW227555   7.838   9.500  14.715
41908SOL     OW27556  10.856   3.626   8.844
41908SOL    HW127557  10.865   3.722   8.843
41908SOL    HW227558  10.790   3.608   8.777
41909SOL     OW27559  14.117  11.810  11.647
41909SOL    HW127560  14.195  11.781  11.695
41909SOL    HW227561  14.068  11.729  11.629
41910SOL     OW27562   1.442  13.264  12.788
41910SOL    HW127563   1.375  13.196  12.783
41910SOL    HW227564   1.458  13.274  12.882
41911SOL     OW27565   6.001   4.680   4.808
41911SOL    HW127566   5.957   4.620   4.869
41911SOL    HW227567   5.975   4.767   4.837
41912SOL     OW27568   2.449   0.453   7.827
41912SOL    HW127569   2.384   0.456   7.898
41912SOL    HW227570   2.483   0.364   7.830
41913SOL     OW27571  13.492  12.384   5.955
41913SOL    HW127572  13.544  12.322   5.905
41913SOL    HW227573  13.518  12.470   5.921
41914SOL     OW27574   9.323   4.389  10.991
41914SOL    HW127575   9.240   4.430  10.969
41914SOL    HW227576   9.378   4.403  10.913
41915SOL     OW27577   8.152  10.297  12.189
41915SOL    HW127578   8.118  10.237  12.256
41915SOL    HW227579   8.197  10.240  12.127
41916SOL     OW27580   9.101   7.700   5.075
41916SOL    HW127581   9.101   7.792   5.104
41916SOL    HW227582   9.017   7.688   5.031
41917SOL     OW27583   0.935   7.289   2.323
41917SOL    HW127584   1.021   7.248   2.327
41917SOL    HW227585   0.917   7.298   2.230
41918SOL     OW27586   6.513   6.970   1.621
41918SOL    HW127587   6.497   6.979   1.715
41918SOL    HW227588   6.608   6.968   1.612
41919SOL     OW27589  10.179  14.253   0.647
41919SOL    HW127590  10.140  14.167   0.658
41919SOL    HW227591  10.176  14.269   0.553
41920SOL     OW27592   6.859  10.890  13.082
41920SOL    HW127593   6.893  10.821  13.024
41920SOL    HW227594   6.793  10.935  13.029
41921SOL     OW27595  10.757   5.085   2.338
41921SOL    HW127596  10.845   5.094   2.373
41921SOL    HW227597  10.759   5.129   2.254
41922SOL     OW27598   6.356   7.231   1.589
41922SOL    HW127599   6.396   7.150   1.556
41922SOL    HW227600   6.409   7.301   1.551
41923SOL     OW27601   8.445  12.609  10.804
41923SOL    HW127602   8.361  12.630  10.762
41923SOL    HW227603   8.487  12.694  10.818
41924SOL     OW27604   9.035   1.285   6.684
41924SOL    HW127605   9.103   1.353   6.693
41924SOL    HW227606   8.994   1.303   6.599
41925SOL     OW27607  11.994   4.482  11.153
41925SOL    HW127608  12.020   4.439  11.234
41925SOL    HW227609  11.990   4.412  11.088
41926SOL     OW27610   9.367  13.598   7.514
41926SOL    HW127611   9.329  13.674   7.469
41926SOL    HW227612   9.305  13.579   7.585
41927SOL     OW27613  10.809   6.890   6.210
41927SOL    HW127614  10.865   6.935   6.145
41927SOL    HW227615  10.774   6.815   6.163
41928SOL     OW27616  10.227   6.229   6.460
41928SOL    HW127617  10.183   6.254   6.379
41928SOL    HW227618  10.192   6.289   6.526
41929SOL     OW27619   9.292   5.304  10.622
41929SOL    HW127620   9.308   5.382  10.675
41929SOL    HW227621   9.222   5.329  10.562
41930SOL     OW27622   7.633  10.188   1.653
41930SOL    HW127623   7.708  10.151   1.700
41930SOL    HW227624   7.671  10.234   1.579
41931SOL     OW27625   4.501   9.880  14.472
41931SOL    HW127626   4.417   9.924  14.455
41931SOL    HW227627   4.566   9.937  14.431
41932SOL     OW27628   1.055   5.885   1.486
41932SOL    HW127629   1.151   5.891   1.490
41932SOL    HW227630   1.027   5.885   1.578
41933SOL     OW27631   1.376  12.376  14.413
41933SOL    HW127632   1.288  12.408  14.428
41933SOL    HW227633   1.426  12.453  14.385
41934SOL     OW27634  13.989   9.712   2.527
41934SOL    HW127635  13.988   9.691   2.621
41934SOL    HW227636  14.067   9.667   2.494
41935SOL     OW27637   4.185   1.233   4.514
41935SOL    HW127638   4.262   1.291   4.516
41935SOL    HW227639   4.113   1.288   4.546
41936SOL     OW27640   8.737  10.607   2.913
41936SOL    HW127641   8.743  10.697   2.945
41936SOL    HW227642   8.827  10.575   2.913
41937SOL     OW27643  13.060   3.365   0.203
41937SOL    HW127644  12.966   3.364   0.185
41937SOL    HW227645  13.068   3.321   0.288
41938SOL     OW27646  11.179   7.034   5.359
41938SOL    HW127647  11.131   6.965   5.311
41938SOL    HW227648  11.132   7.114   5.338
41939SOL     OW27649  11.691   1.791   0.101
41939SOL    HW127650  11.598   1.807   0.089
41939SOL    HW227651  11.701   1.697   0.090
41940SOL     OW27652   6.909   9.415   1.530
41940SOL    HW127653   6.845   9.379   1.468
41940SOL    HW227654   6.863   9.418   1.614
41941SOL     OW27655  12.431   9.425   7.119
41941SOL    HW127656  12.363   9.456   7.059
41941SOL    HW227657  12.425   9.329   7.114
41942SOL     OW27658   8.409   9.974   8.687
41942SOL    HW127659   8.391   9.895   8.738
41942SOL    HW227660   8.483   9.950   8.632
41943SOL     OW27661   9.418  10.824  14.190
41943SOL    HW127662   9.437  10.768  14.266
41943SOL    HW227663   9.326  10.805  14.169
41944SOL     OW27664  10.242  13.086   6.291
41944SOL    HW127665  10.231  12.995   6.263
41944SOL    HW227666  10.171  13.134   6.249
41945SOL     OW27667  11.588   0.725   0.625
41945SOL    HW127668  11.508   0.777   0.618
41945SOL    HW227669  11.654   0.786   0.655
41946SOL     OW27670   4.046   7.069   2.751
41946SOL    HW127671   4.017   6.995   2.804
41946SOL    HW227672   4.117   7.034   2.697
41947SOL     OW27673  11.780  11.320  12.982
41947SOL    HW127674  11.829  11.306  12.901
41947SOL    HW227675  11.769  11.232  13.019
41948SOL     OW27676   8.467  14.620   2.227
41948SOL    HW127677   8.383  14.580   2.202
41948SOL    HW227678   8.515  14.549   2.270
41949SOL     OW27679  11.696   0.748   0.152
41949SOL    HW127680  11.695   0.668   0.205
41949SOL    HW227681  11.649   0.724   0.072
41950SOL     OW27682   0.073  13.759   8.827
41950SOL    HW127683   0.088  13.675   8.871
41950SOL    HW227684   0.020  13.809   8.889
41951SOL     OW27685  14.495  14.154   5.699
41951SOL    HW127686  14.464  14.226   5.645
41951SOL    HW227687  14.542  14.096   5.638
41952SOL     OW27688   0.382   1.425   0.844
41952SOL    HW127689   0.320   1.425   0.771
41952SOL    HW227690   0.356   1.498   0.899
41953SOL     OW27691   3.231   2.048   8.099
41953SOL    HW127692   3.249   2.140   8.079
41953SOL    HW227693   3.200   2.048   8.189
41954SOL     OW27694  11.477  10.696   7.174
41954SOL    HW127695  11.418  10.638   7.223
41954SOL    HW227696  11.547  10.638   7.144
41955SOL     OW27697  12.112   3.720   3.458
41955SOL    HW127698  12.181   3.786   3.452
41955SOL    HW227699  12.081   3.710   3.368
41956SOL     OW27700   0.813   3.135   9.910
41956SOL    HW127701   0.876   3.086   9.963
41956SOL    HW227702   0.737   3.077   9.904
41957SOL     OW27703   2.973   8.501   7.102
41957SOL    HW127704   3.016   8.581   7.132
41957SOL    HW227705   2.938   8.461   7.181
41958SOL     OW27706   8.503   8.568   2.193
41958SOL    HW127707   8.461   8.652   2.179
41958SOL    HW227708   8.487   8.547   2.285
41959SOL     OW27709  14.603   3.754   1.725
41959SOL    HW127710  14.622   3.776   1.816
41959SOL    HW227711  14.557   3.831   1.691
41960SOL     OW27712   5.139  10.858   0.611
41960SOL    HW127713   5.216  10.824   0.564
41960SOL    HW227714   5.173  10.879   0.698
41961SOL     OW27715   4.140  10.225   2.167
41961SOL    HW127716   4.047  10.221   2.142
41961SOL    HW227717   4.158  10.141   2.209
41962SOL     OW27718  12.726   8.914  10.191
41962SOL    HW127719  12.744   8.866  10.272
41962SOL    HW227720  12.679   8.851  10.136
41963SOL     OW27721   8.743  13.412   2.820
41963SOL    HW127722   8.809  13.447   2.881
41963SOL    HW227723   8.693  13.489   2.794
41964SOL     OW27724   3.882   0.862  11.485
41964SOL    HW127725   3.956   0.879  11.544
41964SOL    HW227726   3.809   0.911  11.523
41965SOL     OW27727  14.722   3.139  11.164
41965SOL    HW127728  14.631   3.168  11.157
41965SOL    HW227729  14.772   3.211  11.126
41966SOL     OW27730   6.592   8.412   1.234
41966SOL    HW127731   6.592   8.373   1.147
41966SOL    HW227732   6.553   8.346   1.290
41967SOL     OW27733   9.409   0.116   8.509
41967SOL    HW127734   9.479   0.055   8.531
41967SOL    HW227735   9.344   0.064   8.462
41968SOL     OW27736   4.682  11.137   4.354
41968SOL    HW127737   4.742  11.096   4.291
41968SOL    HW227738   4.606  11.163   4.301
41969SOL     OW27739   1.020   0.472   5.860
41969SOL    HW127740   0.971   0.502   5.784
41969SOL    HW227741   0.956   0.471   5.931
41970SOL     OW27742   6.359   0.791  13.188
41970SOL    HW127743   6.353   0.699  13.162
41970SOL    HW227744   6.442   0.821  13.152
41971SOL     OW27745   6.674   1.155   6.289
41971SOL    HW127746   6.605   1.176   6.226
41971SOL    HW227747   6.646   1.197   6.371
41972SOL     OW27748   0.911   7.735  13.534
41972SOL    HW127749   0.891   7.647  13.564
41972SOL    HW227750   0.826   7.780  13.534
41973SOL     OW27751   5.788  12.932   8.086
41973SOL    HW127752   5.848  12.876   8.135
41973SOL    HW227753   5.818  12.924   7.995
41974SOL     OW27754   9.370   4.013   0.029
41974SOL    HW127755   9.348   3.940   0.087
41974SOL    HW227756   9.341   4.091   0.076
41975SOL     OW27757   9.693   3.969  14.151
41975SOL    HW127758   9.677   4.063  14.163
41975SOL    HW227759   9.696   3.933  14.239
41976SOL     OW27760   0.101   1.333  12.919
41976SOL    HW127761   0.136   1.257  12.965
41976SOL    HW227762   0.176   1.393  12.910
41977SOL     OW27763   5.588  14.248   3.171
41977SOL    HW127764   5.542  14.170   3.140
41977SOL    HW227765   5.525  14.293   3.227
41978SOL     OW27766  13.399  14.847   8.248
41978SOL    HW127767  13.476  14.835   8.193
41978SOL    HW227768  13.344  14.771   8.229
41979SOL     OW27769   7.116  11.069   9.265
41979SOL    HW127770   7.034  11.088   9.220
41979SOL    HW227771   7.154  11.155   9.285
41980SOL     OW27772   1.938   3.740   9.550
41980SOL    HW127773   1.885   3.789   9.488
41980SOL    HW227774   1.900   3.759   9.636
41981SOL     OW27775   8.937   1.880   8.369
41981SOL    HW127776   8.906   1.838   8.289
41981SOL    HW227777   9.009   1.824   8.399
41982SOL     OW27778   9.697   8.531   7.671
41982SOL    HW127779   9.654   8.612   7.646
41982SOL    HW227780   9.732   8.547   7.759
41983SOL     OW27781   5.063   5.821  12.345
41983SOL    HW127782   5.126   5.809  12.274
41983SOL    HW227783   5.112   5.868  12.413
41984SOL     OW27784   3.916   1.407   0.097
41984SOL    HW127785   3.949   1.495   0.078
41984SOL    HW227786   3.958   1.383   0.180
41985SOL     OW27787   6.767   6.466   0.771
41985SOL    HW127788   6.742   6.406   0.701
41985SOL    HW227789   6.689   6.518   0.787
41986SOL     OW27790  10.861  10.475  11.316
41986SOL    HW127791  10.809  10.526  11.379
41986SOL    HW227792  10.944  10.523  11.309
41987SOL     OW27793   4.177   3.288   1.631
41987SOL    HW127794   4.109   3.333   1.681
41987SOL    HW227795   4.161   3.195   1.649
41988SOL     OW27796  10.213   7.332   9.048
41988SOL    HW127797  10.199   7.412   8.997
41988SOL    HW227798  10.129   7.317   9.091
41989SOL     OW27799   9.348   0.227  12.142
41989SOL    HW127800   9.340   0.293  12.211
41989SOL    HW227801   9.351   0.144  12.189
41990SOL     OW27802   3.737   7.704   1.728
41990SOL    HW127803   3.818   7.674   1.687
41990SOL    HW227804   3.712   7.781   1.677
41991SOL     OW27805   0.261  14.353   4.062
41991SOL    HW127806   0.168  14.367   4.080
41991SOL    HW227807   0.294  14.307   4.139
41992SOL     OW27808  11.830  11.068  11.351
41992SOL    HW127809  11.798  10.992  11.303
41992SOL    HW227810  11.906  11.036  11.400
41993SOL     OW27811   3.273   9.536   2.753
41993SOL    HW127812   3.323   9.617   2.740
41993SOL    HW227813   3.183   9.559   2.729
41994SOL     OW27814   9.649   5.982  12.276
41994SOL    HW127815   9.702   5.999  12.354
41994SOL    HW227816   9.620   6.069  12.247
41995SOL     OW27817  11.345   5.925   7.382
41995SOL    HW127818  11.275   5.883   7.331
41995SOL    HW227819  11.393   5.852   7.420
41996SOL     OW27820   5.199   7.718   0.362
41996SOL    HW127821   5.244   7.647   0.317
41996SOL    HW227822   5.155   7.767   0.292
41997SOL     OW27823  11.318   8.762   5.000
41997SOL    HW127824  11.314   8.851   5.034
41997SOL    HW227825  11.398   8.726   5.038
41998SOL     OW27826  11.688   3.901   5.689
41998SOL    HW127827  11.767   3.880   5.739
41998SOL    HW227828  11.700   3.856   5.605
41999SOL     OW27829  11.401   0.179   0.217
41999SOL    HW127830  11.439   0.167   0.130
41999SOL    HW227831  11.410   0.273   0.234
42000SOL     OW27832  10.594   3.164  11.061
42000SOL    HW127833  10.678   3.150  11.104
42000SOL    HW227834  10.537   3.199  11.129
42001SOL     OW27835   4.058  10.247  13.092
42001SOL    HW127836   4.043  10.156  13.065
42001SOL    HW227837   4.108  10.239  13.173
42002SOL     OW27838  13.335  10.064   3.518
42002SOL    HW127839  13.351  10.079   3.611
42002SOL    HW227840  13.330  10.152   3.480
42003SOL     OW27841  10.565  10.027   9.057
42003SOL    HW127842  10.489  10.084   9.045
42003SOL    HW227843  10.528   9.943   9.086
42004SOL     OW27844   7.333   3.781   0.238
42004SOL    HW127845   7.351   3.826   0.156
42004SOL    HW227846   7.327   3.689   0.215
42005SOL     OW27847  13.463   8.320  10.567
42005SOL    HW127848  13.419   8.236  10.579
42005SOL    HW227849  13.393   8.385  10.576
42006SOL     OW27850   1.823   7.790   1.404
42006SOL    HW127851   1.839   7.796   1.499
42006SOL    HW227852   1.878   7.858   1.366
42007SOL     OW27853   2.000   8.281  11.373
42007SOL    HW127854   1.958   8.196  11.382
42007SOL    HW227855   1.971   8.331  11.449
42008SOL     OW27856  14.077   9.293   2.550
42008SOL    HW127857  14.091   9.200   2.564
42008SOL    HW227858  14.006   9.298   2.487
42009SOL     OW27859   9.547  11.476  12.219
42009SOL    HW127860   9.624  11.519  12.255
42009SOL    HW227861   9.486  11.470  12.292
42010SOL     OW27862   5.473   5.175   5.290
42010SOL    HW127863   5.427   5.183   5.206
42010SOL    HW227864   5.434   5.242   5.346
42011SOL     OW27865  10.369   2.252  12.099
42011SOL    HW127866  10.301   2.209  12.151
42011SOL    HW227867  10.345   2.233  12.008
42012SOL     OW27868   5.924   4.414  11.532
42012SOL    HW127869   5.990   4.471  11.492
42012SOL    HW227870   5.854   4.410  11.468
42013SOL     OW27871   8.375   0.461  14.555
42013SOL    HW127872   8.282   0.474  14.541
42013SOL    HW227873   8.381   0.397  14.626
42014SOL     OW27874  10.148   9.420   4.063
42014SOL    HW127875  10.196   9.480   4.006
42014SOL    HW227876  10.187   9.432   4.150
42015SOL     OW27877  14.268   8.413  12.000
42015SOL    HW127878  14.278   8.318  12.005
42015SOL    HW227879  14.265   8.432  11.906
42016SOL     OW27880   5.888   1.848  10.844
42016SOL    HW127881   5.919   1.816  10.928
42016SOL    HW227882   5.904   1.943  10.847
42017SOL     OW27883  10.672   0.610   6.388
42017SOL    HW127884  10.593   0.575   6.428
42017SOL    HW227885  10.743   0.584   6.448
42018SOL     OW27886   2.874   4.626   8.605
42018SOL    HW127887   2.950   4.571   8.627
42018SOL    HW227888   2.889   4.708   8.652
42019SOL     OW27889   3.400  11.285   0.171
42019SOL    HW127890   3.322  11.300   0.118
42019SOL    HW227891   3.391  11.195   0.204
42020SOL     OW27892   5.713   3.328   5.942
42020SOL    HW127893   5.778   3.293   5.882
42020SOL    HW227894   5.740   3.418   5.958
42021SOL     OW27895   7.184   7.620   4.268
42021SOL    HW127896   7.266   7.577   4.292
42021SOL    HW227897   7.196   7.643   4.176
42022SOL     OW27898  12.854   9.655  11.024
42022SOL    HW127899  12.937   9.617  11.054
42022SOL    HW227900  12.835   9.610  10.942
42023SOL     OW27901   4.125   9.692   4.573
42023SOL    HW127902   4.198   9.743   4.609
42023SOL    HW227903   4.166   9.613   4.539
42024SOL     OW27904   8.495   7.294   8.103
42024SOL    HW127905   8.590   7.309   8.105
42024SOL    HW227906   8.484   7.206   8.141
42025SOL     OW27907   0.550   4.900   0.275
42025SOL    HW127908   0.643   4.878   0.271
42025SOL    HW227909   0.519   4.889   0.185
42026SOL     OW27910   6.797   5.238   0.523
42026SOL    HW127911   6.731   5.301   0.552
42026SOL    HW227912   6.822   5.190   0.602
42027SOL     OW27913   7.220   6.265   2.600
42027SOL    HW127914   7.277   6.213   2.657
42027SOL    HW227915   7.131   6.237   2.623
42028SOL     OW27916   5.784  14.787   3.375
42028SOL    HW127917   5.693  14.780   3.404
42028SOL    HW227918   5.818  14.698   3.380
42029SOL     OW27919   3.378  12.729   5.802
42029SOL    HW127920   3.393  12.659   5.739
42029SOL    HW227921   3.284  12.747   5.796
42030SOL     OW27922   8.723  13.754  14.176
42030SOL    HW127923   8.802  13.770  14.124
42030SOL    HW227924   8.686  13.674  14.139
42031SOL     OW27925   2.639   7.790   8.751
42031SOL    HW127926   2.608   7.871   8.792
42031SOL    HW227927   2.568   7.727   8.767
42032SOL     OW27928  13.716  14.282  13.932
42032SOL    HW127929  13.757  14.346  13.873
42032SOL    HW227930  13.712  14.201  13.881
42033SOL     OW27931  11.878   3.275  12.884
42033SOL    HW127932  11.963   3.237  12.863
42033SOL    HW227933  11.818   3.200  12.888
42034SOL     OW27934   7.342   2.619  10.465
42034SOL    HW127935   7.257   2.604  10.507
42034SOL    HW227936   7.395   2.661  10.532
42035SOL     OW27937   2.751   9.229   0.923
42035SOL    HW127938   2.735   9.316   0.958
42035SOL    HW227939   2.698   9.171   0.977
42036SOL     OW27940  14.141   0.290   4.507
42036SOL    HW127941  14.137   0.243   4.424
42036SOL    HW227942  14.058   0.338   4.512
42037SOL     OW27943  10.107   1.073   8.756
42037SOL    HW127944  10.148   1.127   8.823
42037SOL    HW227945  10.016   1.062   8.785
42038SOL     OW27946   0.539   7.717  12.872
42038SOL    HW127947   0.559   7.802  12.913
42038SOL    HW227948   0.559   7.730  12.779
42039SOL     OW27949   8.195  10.770   5.670
42039SOL    HW127950   8.168  10.742   5.582
42039SOL    HW227951   8.228  10.690   5.711
42040SOL     OW27952   9.084   7.709  13.927
42040SOL    HW127953   9.042   7.680  14.008
42040SOL    HW227954   9.022   7.686  13.858
42041SOL     OW27955   5.756   7.037   8.577
42041SOL    HW127956   5.722   7.122   8.546
42041SOL    HW227957   5.768   7.049   8.671
42042SOL     OW27958  10.181  13.477   2.479
42042SOL    HW127959  10.266  13.434   2.480
42042SOL    HW227960  10.155  13.475   2.386
42043SOL     OW27961   4.064  14.745   1.426
42043SOL    HW127962   4.102  14.828   1.396
42043SOL    HW227963   3.973  14.766   1.446
42044SOL     OW27964   3.622   9.845   1.801
42044SOL    HW127965   3.708   9.839   1.840
42044SOL    HW227966   3.608   9.759   1.760
42045SOL     OW27967  12.880   0.960   6.051
42045SOL    HW127968  12.866   0.942   5.958
42045SOL    HW227969  12.833   0.890   6.096
42046SOL     OW27970   4.197   5.315  11.511
42046SOL    HW127971   4.200   5.289  11.603
42046SOL    HW227972   4.170   5.407  11.513
42047SOL     OW27973  11.320   7.045  14.717
42047SOL    HW127974  11.341   6.957  14.687
42047SOL    HW227975  11.251   7.033  14.783
42048SOL     OW27976  10.942  14.454  14.590
42048SOL    HW127977  11.000  14.430  14.517
42048SOL    HW227978  10.936  14.375  14.643
42049SOL     OW27979  14.602  14.386   6.107
42049SOL    HW127980  14.663  14.406   6.178
42049SOL    HW227981  14.542  14.460   6.106
42050SOL     OW27982   2.627   1.054   5.360
42050SOL    HW127983   2.570   1.078   5.287
42050SOL    HW227984   2.584   1.092   5.437
42051SOL     OW27985   6.440   3.962   3.379
42051SOL    HW127986   6.373   4.030   3.375
42051SOL    HW227987   6.442   3.934   3.470
42052SOL     OW27988   0.769  12.268   7.383
42052SOL    HW127989   0.692  12.260   7.439
42052SOL    HW227990   0.819  12.187   7.398
42053SOL     OW27991   7.841  12.770  13.508
42053SOL    HW127992   7.899  12.842  13.482
42053SOL    HW227993   7.760  12.787  13.460
42054SOL     OW27994   6.896  12.205  10.342
42054SOL    HW127995   6.944  12.155  10.409
42054SOL    HW227996   6.805  12.199  10.369
42055SOL     OW27997   3.872   3.108  11.756
42055SOL    HW127998   3.804   3.067  11.810
42055SOL    HW227999   3.953   3.091  11.804
42056SOL     OW28000   9.951   5.945   9.446
42056SOL    HW128001  10.016   5.916   9.509
42056SOL    HW228002   9.993   6.018   9.400
42057SOL     OW28003   7.655  12.964  14.763
42057SOL    HW128004   7.568  12.991  14.732
42057SOL    HW228005   7.682  13.034  14.822
42058SOL     OW28006  11.073   1.771   9.223
42058SOL    HW128007  11.124   1.841   9.262
42058SOL    HW228008  10.989   1.811   9.201
42059SOL     OW28009  12.751   4.654   8.797
42059SOL    HW128010  12.760   4.667   8.891
42059SOL    HW228011  12.688   4.721   8.769
42060SOL     OW28012   9.774  12.848  14.268
42060SOL    HW128013   9.702  12.851  14.331
42060SOL    HW228014   9.836  12.914  14.298
42061SOL     OW28015  12.007  10.261   5.431
42061SOL    HW128016  11.993  10.342   5.481
42061SOL    HW228017  11.934  10.259   5.369
42062SOL     OW28018  12.709   0.684   3.193
42062SOL    HW128019  12.734   0.642   3.275
42062SOL    HW228020  12.664   0.615   3.144
42063SOL     OW28021   0.509   7.190   4.916
42063SOL    HW128022   0.459   7.109   4.911
42063SOL    HW228023   0.586   7.174   4.861
42064SOL     OW28024  14.616  13.391   7.235
42064SOL    HW128025  14.589  13.314   7.284
42064SOL    HW228026  14.660  13.357   7.157
42065SOL     OW28027  12.925   4.456   7.745
42065SOL    HW128028  12.849   4.481   7.798
42065SOL    HW228029  12.978   4.536   7.740
42066SOL     OW28030  14.594  11.514   4.622
42066SOL    HW128031  14.566  11.531   4.532
42066SOL    HW228032  14.686  11.541   4.623
42067SOL     OW28033  11.221   3.614   0.030
42067SOL    HW128034  11.306   3.657   0.025
42067SOL    HW228035  11.226   3.562   0.111
42068SOL     OW28036   9.679   8.528   3.408
42068SOL    HW128037   9.748   8.506   3.346
42068SOL    HW228038   9.709   8.494   3.492
42069SOL     OW28039   7.426   7.645  12.712
42069SOL    HW128040   7.507   7.618  12.755
42069SOL    HW228041   7.378   7.694  12.778
42070SOL     OW28042   3.534   4.200   5.125
42070SOL    HW128043   3.487   4.116   5.125
42070SOL    HW228044   3.515   4.237   5.039
42071SOL     OW28045  13.630   2.618  12.248
42071SOL    HW128046  13.713   2.652  12.214
42071SOL    HW228047  13.630   2.643  12.341
42072SOL     OW28048   4.826   7.389  12.440
42072SOL    HW128049   4.775   7.311  12.463
42072SOL    HW228050   4.870   7.413  12.521
42073SOL     OW28051   3.079   9.791   6.700
42073SOL    HW128052   3.082   9.884   6.678
42073SOL    HW228053   2.990   9.777   6.731
42074SOL     OW28054   2.799   5.638   7.421
42074SOL    HW128055   2.833   5.722   7.390
42074SOL    HW228056   2.790   5.585   7.341
42075SOL     OW28057   2.077   7.869   1.913
42075SOL    HW128058   2.010   7.846   1.978
42075SOL    HW228059   2.053   7.817   1.835
42076SOL     OW28060   9.533  13.593   1.685
42076SOL    HW128061   9.494  13.668   1.731
42076SOL    HW228062   9.597  13.632   1.626
42077SOL     OW28063   8.740   5.736  13.249
42077SOL    HW128064   8.818   5.682  13.253
42077SOL    HW228065   8.683   5.703  13.318
42078SOL     OW28066  11.871   0.411   2.371
42078SOL    HW128067  11.929   0.349   2.328
42078SOL    HW228068  11.914   0.429   2.455
42079SOL     OW28069   6.636   3.603  14.371
42079SOL    HW128070   6.593   3.519  14.352
42079SOL    HW228071   6.588   3.667  14.319
42080SOL     OW28072  13.702   6.118   8.056
42080SOL    HW128073  13.737   6.114   7.967
42080SOL    HW228074  13.778   6.100   8.112
42081SOL     OW28075   4.855   1.674  10.418
42081SOL    HW128076   4.899   1.685  10.502
42081SOL    HW228077   4.784   1.737  10.419
42082SOL     OW28078   7.827   8.325   3.250
42082SOL    HW128079   7.876   8.374   3.315
42082SOL    HW228080   7.893   8.290   3.190
42083SOL     OW28081   6.567   7.950   9.404
42083SOL    HW128082   6.481   7.936   9.365
42083SOL    HW228083   6.598   8.032   9.365
42084SOL     OW28084  11.208   2.043  11.062
42084SOL    HW128085  11.118   2.016  11.046
42084SOL    HW228086  11.260   1.995  10.998
42085SOL     OW28087  10.282  11.895  10.874
42085SOL    HW128088  10.261  11.988  10.862
42085SOL    HW228089  10.360  11.896  10.930
42086SOL     OW28090   1.645   0.874  14.777
42086SOL    HW128091   1.552   0.858  14.791
42086SOL    HW228092   1.686   0.859  14.863
42087SOL     OW28093   9.210   3.260   2.952
42087SOL    HW128094   9.253   3.230   2.872
42087SOL    HW228095   9.191   3.181   3.001
42088SOL     OW28096   4.390   9.727   9.598
42088SOL    HW128097   4.393   9.800   9.660
42088SOL    HW228098   4.299   9.724   9.570
42089SOL     OW28099   5.312   4.283   7.209
42089SOL    HW128100   5.334   4.222   7.139
42089SOL    HW228101   5.232   4.326   7.179
42090SOL     OW28102  14.544   8.639  10.384
42090SOL    HW128103  14.627   8.686  10.395
42090SOL    HW228104  14.568   8.547  10.383
42091SOL     OW28105   2.824   6.096   0.620
42091SOL    HW128106   2.822   6.185   0.585
42091SOL    HW228107   2.803   6.106   0.712
42092SOL     OW28108   5.604   3.245   6.192
42092SOL    HW128109   5.624   3.258   6.100
42092SOL    HW228110   5.630   3.155   6.211
42093SOL     OW28111   9.306   9.261   9.925
42093SOL    HW128112   9.254   9.186   9.896
42093SOL    HW228113   9.291   9.266  10.019
42094SOL     OW28114   3.029   2.813   7.774
42094SOL    HW128115   3.059   2.781   7.690
42094SOL    HW228116   3.102   2.863   7.809
42095SOL     OW28117   7.558  11.255  11.460
42095SOL    HW128118   7.584  11.192  11.393
42095SOL    HW228119   7.593  11.338  11.429
42096SOL     OW28120  11.755   6.863   1.720
42096SOL    HW128121  11.707   6.891   1.797
42096SOL    HW228122  11.731   6.927   1.652
42097SOL     OW28123   5.837  13.507  11.783
42097SOL    HW128124   5.835  13.471  11.872
42097SOL    HW228125   5.861  13.433  11.727
42098SOL     OW28126   1.422   5.279   1.261
42098SOL    HW128127   1.404   5.315   1.174
42098SOL    HW228128   1.390   5.189   1.256
42099SOL     OW28129   0.298   8.100  13.317
42099SOL    HW128130   0.311   8.056  13.234
42099SOL    HW228131   0.242   8.175  13.297
42100SOL     OW28132   7.329   1.062  10.789
42100SOL    HW128133   7.259   1.009  10.827
42100SOL    HW228134   7.299   1.153  10.800
42101SOL     OW28135   6.131   2.962  12.963
42101SOL    HW128136   6.189   2.963  12.887
42101SOL    HW228137   6.186   2.992  13.035
42102SOL     OW28138   9.267   0.983  14.209
42102SOL    HW128139   9.216   0.920  14.260
42102SOL    HW228140   9.245   1.068  14.246
42103SOL     OW28141   1.594   9.377   1.355
42103SOL    HW128142   1.587   9.396   1.448
42103SOL    HW228143   1.559   9.288   1.346
42104SOL     OW28144  13.608   5.038   1.563
42104SOL    HW128145  13.579   5.110   1.619
42104SOL    HW228146  13.621   5.079   1.477
42105SOL     OW28147   6.790   2.408  13.132
42105SOL    HW128148   6.867   2.397  13.076
42105SOL    HW228149   6.729   2.459  13.080
42106SOL     OW28150  11.257   9.473  12.347
42106SOL    HW128151  11.173   9.431  12.330
42106SOL    HW228152  11.315   9.401  12.373
42107SOL     OW28153  11.220  12.645   7.621
42107SOL    HW128154  11.251  12.734   7.604
42107SOL    HW228155  11.253  12.594   7.546
42108SOL     OW28156   5.962   1.673  13.402
42108SOL    HW128157   5.988   1.692  13.492
42108SOL    HW228158   5.977   1.755  13.355
42109SOL     OW28159   3.211   7.135   7.053
42109SOL    HW128160   3.264   7.109   7.128
42109SOL    HW228161   3.217   7.061   6.993
42110SOL     OW28162   8.288   7.630  14.468
42110SOL    HW128163   8.224   7.589  14.526
42110SOL    HW228164   8.370   7.584  14.488
42111SOL     OW28165   5.844   3.963  12.644
42111SOL    HW128166   5.832   3.914  12.562
42111SOL    HW228167   5.787   4.039  12.635
42112SOL     OW28168   0.942   1.598  14.270
42112SOL    HW128169   1.017   1.569  14.218
42112SOL    HW228170   0.867   1.588  14.213
42113SOL     OW28171   2.955   2.679  11.787
42113SOL    HW128172   2.864   2.672  11.757
42113SOL    HW228173   3.001   2.610  11.740
42114SOL     OW28174   6.931  13.708  13.147
42114SOL    HW128175   6.897  13.653  13.076
42114SOL    HW228176   7.022  13.681  13.156
42115SOL     OW28177   9.587   3.647   4.530
42115SOL    HW128178   9.513   3.709   4.526
42115SOL    HW228179   9.556   3.577   4.586
42116SOL     OW28180   1.127  11.377   0.456
42116SOL    HW128181   1.087  11.330   0.529
42116SOL    HW228182   1.133  11.468   0.486
42117SOL     OW28183   4.057   7.260  13.979
42117SOL    HW128184   4.009   7.298  14.052
42117SOL    HW228185   4.142   7.302  13.982
42118SOL     OW28186  14.014   0.176  13.839
42118SOL    HW128187  13.928   0.205  13.868
42118SOL    HW228188  14.041   0.241  13.774
42119SOL     OW28189   1.715  13.945  13.898
42119SOL    HW128190   1.680  13.938  13.987
42119SOL    HW228191   1.670  13.875  13.850
42120SOL     OW28192   4.984  10.603  13.019
42120SOL    HW128193   4.962  10.564  13.104
42120SOL    HW228194   4.914  10.666  13.003
42121SOL     OW28195   3.321   0.913  10.027
42121SOL    HW128196   3.240   0.955  10.056
42121SOL    HW228197   3.359   0.877  10.107
42122SOL     OW28198   2.780   6.401  11.487
42122SOL    HW128199   2.713   6.455  11.447
42122SOL    HW228200   2.848   6.463  11.514
42123SOL     OW28201  12.431   2.298   7.245
42123SOL    HW128202  12.472   2.211   7.249
42123SOL    HW228203  12.391   2.309   7.331
42124SOL     OW28204   1.259   4.500   8.457
42124SOL    HW128205   1.300   4.585   8.470
42124SOL    HW228206   1.311   4.458   8.389
42125SOL     OW28207  10.117  14.016   0.092
42125SOL    HW128208  10.188  13.971   0.047
42125SOL    HW228209  10.113  14.102   0.051
42126SOL     OW28210   2.735   0.126   1.999
42126SOL    HW128211   2.729   0.146   1.905
42126SOL    HW228212   2.772   0.205   2.038
42127SOL     OW28213   8.436  10.631   0.719
42127SOL    HW128214   8.489  10.669   0.649
42127SOL    HW228215   8.500  10.600   0.783
42128SOL     OW28216   7.766   8.083   6.114
42128SOL    HW128217   7.759   8.020   6.185
42128SOL    HW228218   7.860   8.090   6.096
42129SOL     OW28219   7.757   1.217   7.385
42129SOL    HW128220   7.825   1.232   7.451
42129SOL    HW228221   7.699   1.151   7.424
42130SOL     OW28222   4.888  10.090  11.778
42130SOL    HW128223   4.848  10.164  11.732
42130SOL    HW228224   4.969  10.126  11.814
42131SOL     OW28225  12.547  13.884   4.895
42131SOL    HW128226  12.498  13.958   4.859
42131SOL    HW228227  12.496  13.855   4.970
42132SOL     OW28228   8.831   6.203  11.166
42132SOL    HW128229   8.785   6.178  11.246
42132SOL    HW228230   8.924   6.191  11.188
42133SOL     OW28231   7.347   7.667  13.469
42133SOL    HW128232   7.345   7.741  13.530
42133SOL    HW228233   7.278   7.608  13.500
42134SOL     OW28234   8.568   0.853   3.172
42134SOL    HW128235   8.567   0.781   3.108
42134SOL    HW228236   8.657   0.887   3.170
42135SOL     OW28237  10.851   6.147   8.276
42135SOL    HW128238  10.850   6.225   8.221
42135SOL    HW228239  10.932   6.155   8.327
42136SOL     OW28240   3.162  14.643   9.138
42136SOL    HW128241   3.252  14.654   9.108
42136SOL    HW228242   3.141  14.725   9.183
42137SOL     OW28243   9.477   4.582   4.869
42137SOL    HW128244   9.446   4.657   4.818
42137SOL    HW228245   9.399   4.530   4.886
42138SOL     OW28246  14.680   4.487  13.860
42138SOL    HW128247  14.740   4.523  13.926
42138SOL    HW228248  14.737   4.450  13.793
42139SOL     OW28249   2.572  11.791   0.685
42139SOL    HW128250   2.620  11.804   0.767
42139SOL    HW228251   2.589  11.700   0.661
42140SOL     OW28252   5.461  13.645  10.882
42140SOL    HW128253   5.520  13.571  10.894
42140SOL    HW228254   5.422  13.631  10.795
42141SOL     OW28255   8.279  13.937   3.151
42141SOL    HW128256   8.239  14.024   3.155
42141SOL    HW228257   8.221  13.886   3.094
42142SOL     OW28258  10.805   0.503  14.246
42142SOL    HW128259  10.893   0.526  14.216
42142SOL    HW228260  10.797   0.545  14.332
42143SOL     OW28261  14.290  10.285   9.540
42143SOL    HW128262  14.271  10.229   9.465
42143SOL    HW228263  14.211  10.279   9.594
42144SOL     OW28264   9.201   5.917   5.662
42144SOL    HW128265   9.296   5.911   5.655
42144SOL    HW228266   9.172   5.946   5.576
42145SOL     OW28267   9.421  10.681   0.474
42145SOL    HW128268   9.436  10.754   0.535
42145SOL    HW228269   9.356  10.626   0.518
42146SOL     OW28270   7.711   9.986   6.023
42146SOL    HW128271   7.789  10.021   5.982
42146SOL    HW228272   7.724   9.891   6.026
42147SOL     OW28273   1.222   6.310   7.323
42147SOL    HW128274   1.133   6.332   7.348
42147SOL    HW228275   1.256   6.258   7.396
42148SOL     OW28276   1.010  13.975   7.884
42148SOL    HW128277   1.092  14.011   7.851
42148SOL    HW228278   1.010  13.997   7.977
42149SOL     OW28279  11.165  10.166  11.933
42149SOL    HW128280  11.083  10.117  11.921
42149SOL    HW228281  11.183  10.204  11.847
42150SOL     OW28282  10.521   7.850  10.566
42150SOL    HW128283  10.439   7.818  10.528
42150SOL    HW228284  10.493   7.913  10.633
42151SOL     OW28285  13.075   5.600  10.198
42151SOL    HW128286  13.058   5.690  10.226
42151SOL    HW228287  13.101   5.554  10.277
42152SOL     OW28288  11.807   6.106   0.673
42152SOL    HW128289  11.816   6.116   0.578
42152SOL    HW228290  11.847   6.022   0.693
42153SOL     OW28291   0.363  10.393  12.085
42153SOL    HW128292   0.459  10.398  12.079
42153SOL    HW228293   0.341  10.312  12.038
42154SOL     OW28294   6.586   3.477   2.088
42154SOL    HW128295   6.529   3.402   2.074
42154SOL    HW228296   6.528   3.553   2.082
42155SOL     OW28297   4.117  10.430  10.682
42155SOL    HW128298   4.210  10.405  10.681
42155SOL    HW228299   4.104  10.476  10.600
42156SOL     OW28300   3.951  11.671   4.043
42156SOL    HW128301   4.023  11.612   4.019
42156SOL    HW228302   3.882  11.612   4.075
42157SOL     OW28303   1.295   0.694   0.289
42157SOL    HW128304   1.382   0.712   0.325
42157SOL    HW228305   1.245   0.774   0.307
42158SOL     OW28306   8.172   6.857  10.774
42158SOL    HW128307   8.263   6.828  10.775
42158SOL    HW228308   8.132   6.807  10.703
42159SOL     OW28309  13.992  11.615   7.686
42159SOL    HW128310  13.921  11.561   7.721
42159SOL    HW228311  14.051  11.553   7.643
42160SOL     OW28312   7.198  11.908   3.227
42160SOL    HW128313   7.281  11.929   3.185
42160SOL    HW228314   7.208  11.817   3.255
42161SOL     OW28315  12.176   6.299  13.702
42161SOL    HW128316  12.260   6.255  13.692
42161SOL    HW228317  12.157   6.333  13.614
42162SOL     OW28318  14.688   1.711   7.175
42162SOL    HW128319  14.655   1.688   7.088
42162SOL    HW228320  14.610   1.711   7.231
42163SOL     OW28321  14.468  14.373   3.237
42163SOL    HW128322  14.427  14.459   3.243
42163SOL    HW228323  14.422  14.328   3.166
42164SOL     OW28324   7.740  11.999  12.525
42164SOL    HW128325   7.816  11.942  12.532
42164SOL    HW228326   7.668  11.948  12.563
42165SOL     OW28327  10.780   8.480  14.793
42165SOL    HW128328  10.850   8.417  14.807
42165SOL    HW228329  10.790   8.508  14.702
42166SOL     OW28330   9.374  10.179  11.545
42166SOL    HW128331   9.349  10.193  11.454
42166SOL    HW228332   9.293  10.152  11.588
42167SOL     OW28333  11.354   0.373   7.893
42167SOL    HW128334  11.389   0.303   7.839
42167SOL    HW228335  11.418   0.444   7.887
42168SOL     OW28336  11.022   9.019   8.553
42168SOL    HW128337  10.965   8.963   8.607
42168SOL    HW228338  10.961   9.073   8.502
42169SOL     OW28339   9.419   5.446   6.568
42169SOL    HW128340   9.471   5.366   6.555
42169SOL    HW228341   9.328   5.418   6.558
42170SOL     OW28342  12.203  14.121  12.630
42170SOL    HW128343  12.250  14.204  12.640
42170SOL    HW228344  12.119  14.145  12.589
42171SOL     OW28345   3.767  14.747  14.431
42171SOL    HW128346   3.683  14.792  14.418
42171SOL    HW228347   3.758  14.665  14.382
42172SOL     OW28348   4.021  10.772  12.090
42172SOL    HW128349   4.070  10.836  12.142
42172SOL    HW228350   4.026  10.806  12.000
42173SOL     OW28351   0.157   1.491  10.713
42173SOL    HW128352   0.151   1.582  10.685
42173SOL    HW228353   0.245   1.464  10.687
42174SOL     OW28354   1.612   9.889   5.256
42174SOL    HW128355   1.582   9.837   5.182
42174SOL    HW228356   1.533   9.929   5.292
42175SOL     OW28357  12.002   9.033  13.232
42175SOL    HW128358  12.062   9.027  13.158
42175SOL    HW228359  12.042   9.096  13.291
42176SOL     OW28360   3.217   4.458   6.036
42176SOL    HW128361   3.124   4.481   6.040
42176SOL    HW228362   3.248   4.497   5.954
42177SOL     OW28363  12.584   1.992  14.266
42177SOL    HW128364  12.542   2.077  14.249
42177SOL    HW228365  12.619   1.999  14.355
42178SOL     OW28366   8.424   0.751   7.991
42178SOL    HW128367   8.427   0.727   8.084
42178SOL    HW228368   8.408   0.845   7.991
42179SOL     OW28369  14.613  14.359  10.068
42179SOL    HW128370  14.590  14.413   9.992
42179SOL    HW228371  14.584  14.410  10.143
42180SOL     OW28372  14.028  12.922   7.073
42180SOL    HW128373  14.015  13.011   7.040
42180SOL    HW228374  14.122  12.914   7.085
42181SOL     OW28375  14.870   7.248   1.769
42181SOL    HW128376   0.037   7.270   1.853
42181SOL    HW228377  14.777   7.265   1.782
42182SOL     OW28378  12.860   0.888   2.036
42182SOL    HW128379  12.817   0.927   2.112
42182SOL    HW228380  12.794   0.831   1.997
42183SOL     OW28381   8.805   4.493  13.206
42183SOL    HW128382   8.772   4.413  13.247
42183SOL    HW228383   8.899   4.478  13.197
42184SOL     OW28384   6.766  14.430   0.137
42184SOL    HW128385   6.751  14.517   0.099
42184SOL    HW228386   6.697  14.375   0.099
42185SOL     OW28387  11.427   5.084   0.422
42185SOL    HW128388  11.454   5.096   0.514
42185SOL    HW228389  11.420   5.173   0.388
42186SOL     OW28390   2.235  13.497  10.744
42186SOL    HW128391   2.162  13.507  10.682
42186SOL    HW228392   2.282  13.420  10.713
42187SOL     OW28393   9.981  13.287   2.684
42187SOL    HW128394  10.058  13.270   2.630
42187SOL    HW228395   9.970  13.382   2.681
42188SOL     OW28396  14.745  11.114  14.048
42188SOL    HW128397  14.693  11.194  14.056
42188SOL    HW228398  14.745  11.076  14.136
42189SOL     OW28399   7.858  13.992   5.104
42189SOL    HW128400   7.855  13.901   5.076
42189SOL    HW228401   7.768  14.023   5.095
42190SOL     OW28402  14.815   3.084   0.558
42190SOL    HW128403  14.768   3.136   0.623
42190SOL    HW228404   0.034   3.107   0.570
42191SOL     OW28405  11.054  11.685   1.093
42191SOL    HW128406  10.984  11.747   1.111
42191SOL    HW228407  11.119  11.701   1.161
42192SOL     OW28408   9.186   6.900   5.611
42192SOL    HW128409   9.281   6.912   5.602
42192SOL    HW228410   9.170   6.909   5.705
42193SOL     OW28411   0.439  12.781   2.863
42193SOL    HW128412   0.492  12.810   2.937
42193SOL    HW228413   0.501  12.742   2.803
42194SOL     OW28414  10.937   0.341  13.348
42194SOL    HW128415  10.946   0.257  13.392
42194SOL    HW228416  10.965   0.324  13.258
42195SOL     OW28417  12.977   9.153  11.711
42195SOL    HW128418  13.033   9.219  11.670
42195SOL    HW228419  13.030   9.074  11.714
42196SOL     OW28420   2.463  11.433  10.849
42196SOL    HW128421   2.465  11.433  10.753
42196SOL    HW228422   2.446  11.525  10.872
42197SOL     OW28423   8.757   3.433  11.944
42197SOL    HW128424   8.847   3.459  11.962
42197SOL    HW228425   8.762   3.381  11.863
42198SOL     OW28426   0.714   2.922  11.791
42198SOL    HW128427   0.620   2.902  11.791
42198SOL    HW228428   0.743   2.902  11.701
42199SOL     OW28429   5.741   7.601  12.306
42199SOL    HW128430   5.760   7.693  12.288
42199SOL    HW228431   5.799   7.578  12.379
42200SOL     OW28432   0.061   2.383   9.937
42200SOL    HW128433   0.084   2.300   9.896
42200SOL    HW228434   0.135   2.440   9.918
42201SOL     OW28435   1.287   0.118   8.295
42201SOL    HW128436   1.225   0.045   8.298
42201SOL    HW228437   1.365   0.082   8.252
42202SOL     OW28438   6.132   1.418   3.572
42202SOL    HW128439   6.197   1.430   3.641
42202SOL    HW228440   6.051   1.452   3.608
42203SOL     OW28441   7.784   7.491   5.234
42203SOL    HW128442   7.737   7.429   5.179
42203SOL    HW228443   7.827   7.437   5.300
42204SOL     OW28444   4.520   5.200   1.050
42204SOL    HW128445   4.605   5.158   1.037
42204SOL    HW228446   4.537   5.293   1.035
42205SOL     OW28447   2.070  14.100  13.024
42205SOL    HW128448   2.062  14.142  12.938
42205SOL    HW228449   1.987  14.117  13.067
42206SOL     OW28450   8.606   0.912  13.701
42206SOL    HW128451   8.544   0.848  13.667
42206SOL    HW228452   8.552   0.979  13.742
42207SOL     OW28453   7.213   9.598   3.813
42207SOL    HW128454   7.128   9.633   3.785
42207SOL    HW228455   7.277   9.644   3.759
42208SOL     OW28456  14.198   0.350   6.576
42208SOL    HW128457  14.278   0.383   6.617
42208SOL    HW228458  14.129   0.407   6.609
42209SOL     OW28459   1.528   3.315  11.632
42209SOL    HW128460   1.594   3.333  11.565
42209SOL    HW228461   1.556   3.367  11.708
42210SOL     OW28462   4.485  12.627   5.320
42210SOL    HW128463   4.425  12.646   5.392
42210SOL    HW228464   4.445  12.555   5.272
42211SOL     OW28465   8.915  14.442   8.919
42211SOL    HW128466   8.920  14.516   8.980
42211SOL    HW228467   8.992  14.389   8.938
42212SOL     OW28468   9.804   7.188   6.560
42212SOL    HW128469   9.884   7.156   6.602
42212SOL    HW228470   9.802   7.144   6.475
42213SOL     OW28471  10.545  11.236   5.368
42213SOL    HW128472  10.539  11.178   5.444
42213SOL    HW228473  10.474  11.298   5.379
42214SOL     OW28474  14.748   4.166   9.059
42214SOL    HW128475  14.722   4.183   9.149
42214SOL    HW228476  14.727   4.246   9.012
42215SOL     OW28477   6.669   1.540   4.982
42215SOL    HW128478   6.612   1.498   4.917
42215SOL    HW228479   6.755   1.543   4.939
42216SOL     OW28480   6.859  13.891   4.653
42216SOL    HW128481   6.905  13.846   4.582
42216SOL    HW228482   6.767  13.871   4.638
42217SOL     OW28483  13.379   7.561   5.970
42217SOL    HW128484  13.348   7.537   5.883
42217SOL    HW228485  13.459   7.509   5.983
42218SOL     OW28486   7.295   0.774  11.267
42218SOL    HW128487   7.219   0.717  11.253
42218SOL    HW228488   7.273   0.824  11.346
42219SOL     OW28489  13.129   3.573   3.215
42219SOL    HW128490  13.089   3.659   3.225
42219SOL    HW228491  13.152   3.546   3.305
42220SOL     OW28492   0.289  11.415   9.589
42220SOL    HW128493   0.323  11.431   9.677
42220SOL    HW228494   0.257  11.500   9.559
42221SOL     OW28495  12.412   4.334  10.541
42221SOL    HW128496  12.484   4.312  10.600
42221SOL    HW228497  12.337   4.285  10.575
42222SOL     OW28498   8.453   0.928   5.552
42222SOL    HW128499   8.465   0.879   5.471
42222SOL    HW228500   8.541   0.952   5.580
42223SOL     OW28501   1.692   6.964  14.238
42223SOL    HW128502   1.738   6.921  14.165
42223SOL    HW228503   1.759   7.016  14.282
42224SOL     OW28504  12.893   0.117   4.132
42224SOL    HW128505  12.838   0.061   4.187
42224SOL    HW228506  12.880   0.083   4.043
42225SOL     OW28507  12.042   7.299   9.533
42225SOL    HW128508  12.041   7.341   9.447
42225SOL    HW228509  12.134   7.274   9.546
42226SOL     OW28510  14.622   2.396   9.946
42226SOL    HW128511  14.718   2.389   9.951
42226SOL    HW228512  14.591   2.335  10.012
42227SOL     OW28513   8.956   1.712   4.727
42227SOL    HW128514   9.038   1.749   4.759
42227SOL    HW228515   8.897   1.787   4.721
42228SOL     OW28516   6.432   2.242   9.678
42228SOL    HW128517   6.374   2.317   9.683
42228SOL    HW228518   6.514   2.277   9.643
42229SOL     OW28519   5.733   8.812  13.516
42229SOL    HW128520   5.691   8.805  13.602
42229SOL    HW228521   5.825   8.787  13.533
42230SOL     OW28522   5.372  11.885   8.840
42230SOL    HW128523   5.350  11.957   8.898
42230SOL    HW228524   5.461  11.859   8.866
42231SOL     OW28525  10.943  10.678   4.603
42231SOL    HW128526  10.916  10.632   4.523
42231SOL    HW228527  10.861  10.711   4.640
42232SOL     OW28528   9.266  13.513   7.008
42232SOL    HW128529   9.323  13.436   7.004
42232SOL    HW228530   9.227  13.519   6.921
42233SOL     OW28531   3.206  13.702   2.561
42233SOL    HW128532   3.248  13.665   2.638
42233SOL    HW228533   3.239  13.649   2.488
42234SOL     OW28534   2.698   5.887   8.040
42234SOL    HW128535   2.733   5.867   7.953
42234SOL    HW228536   2.631   5.954   8.024
42235SOL     OW28537   0.895   7.199  13.682
42235SOL    HW128538   0.988   7.199  13.659
42235SOL    HW228539   0.877   7.109  13.711
42236SOL     OW28540  11.454   8.337  11.232
42236SOL    HW128541  11.382   8.400  11.232
42236SOL    HW228542  11.496   8.348  11.147
42237SOL     OW28543  13.319  11.137  11.336
42237SOL    HW128544  13.235  11.182  11.343
42237SOL    HW228545  13.358  11.171  11.255
42238SOL     OW28546  11.027   2.591   0.458
42238SOL    HW128547  11.006   2.658   0.393
42238SOL    HW228548  11.069   2.638   0.530
42239SOL     OW28549   6.329  12.814  11.031
42239SOL    HW128550   6.393  12.875  11.066
42239SOL    HW228551   6.376  12.731  11.024
42240SOL     OW28552   8.533  10.548   4.434
42240SOL    HW128553   8.561  10.477   4.376
42240SOL    HW228554   8.559  10.628   4.388
42241SOL     OW28555   1.556   4.377  10.850
42241SOL    HW128556   1.636   4.376  10.903
42241SOL    HW228557   1.585   4.355  10.762
42242SOL     OW28558   6.207   4.069  11.437
42242SOL    HW128559   6.290   4.038  11.401
42242SOL    HW228560   6.164   3.990  11.470
42243SOL     OW28561  13.176   8.001   0.643
42243SOL    HW128562  13.265   7.983   0.674
42243SOL    HW228563  13.151   7.921   0.597
42244SOL     OW28564  10.148   2.847   0.437
42244SOL    HW128565  10.186   2.760   0.425
42244SOL    HW228566  10.190   2.880   0.516
42245SOL     OW28567  10.828  11.235   0.230
42245SOL    HW128568  10.738  11.258   0.205
42245SOL    HW228569  10.817  11.171   0.301
42246SOL     OW28570   4.703   5.753  14.313
42246SOL    HW128571   4.645   5.680  14.335
42246SOL    HW228572   4.743   5.728  14.229
42247SOL     OW28573   3.726  13.859  12.882
42247SOL    HW128574   3.821  13.857  12.895
42247SOL    HW228575   3.714  13.835  12.790
42248SOL     OW28576   1.087   2.389  10.399
42248SOL    HW128577   1.140   2.366  10.323
42248SOL    HW228578   1.018   2.445  10.364
42249SOL     OW28579   3.235   1.980   0.852
42249SOL    HW128580   3.152   1.937   0.828
42249SOL    HW228581   3.300   1.910   0.849
42250SOL     OW28582   5.807   8.546  13.644
42250SOL    HW128583   5.715   8.541  13.619
42250SOL    HW228584   5.852   8.491  13.580
42251SOL     OW28585   6.120   0.400   0.421
42251SOL    HW128586   6.140   0.387   0.328
42251SOL    HW228587   6.118   0.495   0.432
42252SOL     OW28588   6.481   8.326   3.883
42252SOL    HW128589   6.553   8.294   3.829
42252SOL    HW228590   6.408   8.267   3.863
42253SOL     OW28591   1.938  12.152  11.364
42253SOL    HW128592   1.924  12.082  11.300
42253SOL    HW228593   1.850  12.179  11.390
42254SOL     OW28594  10.867   2.122   2.783
42254SOL    HW128595  10.939   2.118   2.846
42254SOL    HW228596  10.902   2.172   2.709
42255SOL     OW28597   0.180   0.005   3.517
42255SOL    HW128598   0.212   0.033   3.432
42255SOL    HW228599   0.117   0.073   3.543
42256SOL     OW28600   3.929   1.863  13.360
42256SOL    HW128601   3.914   1.936  13.421
42256SOL    HW228602   3.841   1.839  13.330
42257SOL     OW28603   7.717  11.489   5.547
42257SOL    HW128604   7.779  11.425   5.581
42257SOL    HW228605   7.722  11.480   5.452
42258SOL     OW28606   4.221   5.926   1.313
42258SOL    HW128607   4.179   5.890   1.235
42258SOL    HW228608   4.290   5.983   1.279
42259SOL     OW28609  13.546  10.557   5.186
42259SOL    HW128610  13.556  10.642   5.228
42259SOL    HW228611  13.523  10.497   5.257
42260SOL     OW28612   0.241  10.924   7.856
42260SOL    HW128613   0.283  11.009   7.842
42260SOL    HW228614   0.307  10.873   7.903
42261SOL     OW28615  10.690   2.399   7.511
42261SOL    HW128616  10.733   2.472   7.556
42261SOL    HW228617  10.601   2.430   7.495
42262SOL     OW28618   2.855  14.543   4.166
42262SOL    HW128619   2.838  14.481   4.096
42262SOL    HW228620   2.769  14.562   4.204
42263SOL     OW28621   7.539  14.204  11.808
42263SOL    HW128622   7.509  14.137  11.870
42263SOL    HW228623   7.469  14.209  11.742
42264SOL     OW28624   1.973   1.098   7.635
42264SOL    HW128625   2.057   1.134   7.664
42264SOL    HW228626   1.911   1.170   7.644
42265SOL     OW28627  11.854  10.619   4.900
42265SOL    HW128628  11.922  10.687   4.908
42265SOL    HW228629  11.802  10.629   4.980
42266SOL     OW28630   7.012   7.559   6.707
42266SOL    HW128631   6.945   7.569   6.639
42266SOL    HW228632   7.093   7.542   6.660
42267SOL     OW28633  11.018  10.507   6.017
42267SOL    HW128634  11.059  10.593   6.018
42267SOL    HW228635  10.934  10.521   6.062
42268SOL     OW28636   4.883   9.805  13.819
42268SOL    HW128637   4.963   9.842  13.783
42268SOL    HW228638   4.872   9.848  13.904
42269SOL     OW28639   3.876   8.267  11.516
42269SOL    HW128640   3.850   8.331  11.449
42269SOL    HW228641   3.969   8.285  11.531
42270SOL     OW28642  13.947   2.114   2.548
42270SOL    HW128643  13.927   2.036   2.600
42270SOL    HW228644  14.026   2.150   2.588
42271SOL     OW28645   4.325  10.492   0.993
42271SOL    HW128646   4.370  10.415   0.959
42271SOL    HW228647   4.263  10.458   1.058
42272SOL     OW28648   9.950   2.664  11.166
42272SOL    HW128649   9.867   2.695  11.130
42272SOL    HW228650  10.007   2.652  11.090
42273SOL     OW28651  10.073   6.281   5.619
42273SOL    HW128652   9.998   6.222   5.621
42273SOL    HW228653  10.053   6.349   5.684
42274SOL     OW28654   8.423   2.883   6.810
42274SOL    HW128655   8.459   2.924   6.889
42274SOL    HW228656   8.407   2.792   6.836
42275SOL     OW28657   3.414   4.793   7.585
42275SOL    HW128658   3.420   4.874   7.534
42275SOL    HW228659   3.364   4.817   7.663
42276SOL     OW28660  11.544   8.672   2.151
42276SOL    HW128661  11.537   8.747   2.092
42276SOL    HW228662  11.455   8.635   2.153
42277SOL     OW28663   3.862   7.109   0.212
42277SOL    HW128664   3.871   7.115   0.307
42277SOL    HW228665   3.933   7.163   0.178
42278SOL     OW28666  12.394   6.348   4.409
42278SOL    HW128667  12.451   6.416   4.374
42278SOL    HW228668  12.308   6.389   4.417
42279SOL     OW28669   1.977   3.711   4.820
42279SOL    HW128670   1.951   3.801   4.837
42279SOL    HW228671   2.032   3.688   4.895
42280SOL     OW28672   6.184   4.967   2.414
42280SOL    HW128673   6.174   4.884   2.368
42280SOL    HW228674   6.096   5.005   2.414
42281SOL     OW28675   2.755   6.206   4.894
42281SOL    HW128676   2.663   6.204   4.868
42281SOL    HW228677   2.752   6.225   4.988
42282SOL     OW28678   2.572  10.115   3.694
42282SOL    HW128679   2.530  10.043   3.646
42282SOL    HW228680   2.596  10.178   3.627
42283SOL     OW28681   4.832  13.360   3.338
42283SOL    HW128682   4.816  13.436   3.395
42283SOL    HW228683   4.751  13.348   3.290
42284SOL     OW28684  10.864   9.273   1.371
42284SOL    HW128685  10.839   9.253   1.462
42284SOL    HW228686  10.794   9.330   1.339
42285SOL     OW28687  12.062   6.501  11.929
42285SOL    HW128688  11.979   6.535  11.895
42285SOL    HW228689  12.058   6.407  11.915
42286SOL     OW28690   7.483   9.136  11.663
42286SOL    HW128691   7.492   9.069  11.731
42286SOL    HW228692   7.572   9.168  11.649
42287SOL     OW28693   3.054  14.508  10.319
42287SOL    HW128694   2.998  14.455  10.376
42287SOL    HW228695   3.085  14.447  10.253
42288SOL     OW28696   1.081  13.140   1.914
42288SOL    HW128697   1.177  13.140   1.923
42288SOL    HW228698   1.062  13.213   1.855
42289SOL     OW28699   1.240   5.922  12.957
42289SOL    HW128700   1.256   6.007  12.917
42289SOL    HW228701   1.325   5.895  12.992
42290SOL     OW28702   5.843  13.251   9.348
42290SOL    HW128703   5.901  13.322   9.319
42290SOL    HW228704   5.780  13.294   9.406
42291SOL     OW28705  13.097   0.432   1.324
42291SOL    HW128706  13.014   0.421   1.371
42291SOL    HW228707  13.155   0.473   1.387
42292SOL     OW28708   6.652   6.718   3.275
42292SOL    HW128709   6.644   6.654   3.346
42292SOL    HW228710   6.737   6.698   3.235
42293SOL     OW28711   0.671  10.147   1.906
42293SOL    HW128712   0.753  10.143   1.956
42293SOL    HW228713   0.608  10.099   1.960
42294SOL     OW28714  12.129   7.961   5.105
42294SOL    HW128715  12.090   7.988   5.021
42294SOL    HW228716  12.085   7.878   5.126
42295SOL     OW28717   5.262   2.904  13.087
42295SOL    HW128718   5.298   2.823  13.051
42295SOL    HW228719   5.169   2.901  13.064
42296SOL     OW28720  14.848  11.342   7.750
42296SOL    HW128721  14.822  11.250   7.762
42296SOL    HW228722  14.796  11.390   7.815
42297SOL     OW28723   9.828   7.207   2.212
42297SOL    HW128724   9.920   7.184   2.213
42297SOL    HW228725   9.783   7.128   2.242
42298SOL     OW28726   2.893   3.934   1.175
42298SOL    HW128727   2.838   4.002   1.136
42298SOL    HW228728   2.877   3.856   1.123
42299SOL     OW28729  11.828   0.162   0.238
42299SOL    HW128730  11.872   0.101   0.178
42299SOL    HW228731  11.804   0.108   0.313
42300SOL     OW28732   0.344   1.745  10.127
42300SOL    HW128733   0.276   1.780  10.069
42300SOL    HW228734   0.310   1.758  10.215
42301SOL     OW28735   1.752   5.805   7.094
42301SOL    HW128736   1.800   5.794   7.176
42301SOL    HW228737   1.805   5.760   7.028
42302SOL     OW28738   2.231  13.033   9.740
42302SOL    HW128739   2.163  12.965   9.741
42302SOL    HW228740   2.249  13.049   9.832
42303SOL     OW28741   5.120   9.726   6.772
42303SOL    HW128742   5.134   9.733   6.867
42303SOL    HW228743   5.156   9.807   6.737
42304SOL     OW28744   4.848   3.480   1.729
42304SOL    HW128745   4.797   3.399   1.733
42304SOL    HW228746   4.938   3.452   1.745
42305SOL     OW28747  12.351   2.981   1.436
42305SOL    HW128748  12.356   3.032   1.517
42305SOL    HW228749  12.440   2.947   1.423
42306SOL     OW28750  13.455   7.432   6.577
42306SOL    HW128751  13.419   7.520   6.565
42306SOL    HW228752  13.516   7.441   6.650
42307SOL     OW28753   7.191  12.098  10.301
42307SOL    HW128754   7.146  12.027  10.347
42307SOL    HW228755   7.220  12.157  10.370
42308SOL     OW28756  10.515   3.732   4.848
42308SOL    HW128757  10.557   3.818   4.853
42308SOL    HW228758  10.424   3.751   4.825
42309SOL     OW28759   5.068   6.897   0.168
42309SOL    HW128760   5.082   6.813   0.211
42309SOL    HW228761   4.997   6.938   0.217
42310SOL     OW28762   0.161  10.088   9.844
42310SOL    HW128763   0.095  10.152   9.815
42310SOL    HW228764   0.166  10.024   9.772
42311SOL     OW28765   0.917  13.803   5.490
42311SOL    HW128766   0.964  13.856   5.554
42311SOL    HW228767   0.961  13.822   5.407
42312SOL     OW28768   7.671  14.122  13.344
42312SOL    HW128769   7.632  14.062  13.407
42312SOL    HW228770   7.725  14.066  13.287
42313SOL     OW28771   4.532   4.280  13.268
42313SOL    HW128772   4.555   4.220  13.197
42313SOL    HW228773   4.481   4.225  13.328
42314SOL     OW28774  12.272   7.038   6.659
42314SOL    HW128775  12.204   7.101   6.684
42314SOL    HW228776  12.332   7.088   6.604
42315SOL     OW28777   1.521   0.534   1.119
42315SOL    HW128778   1.548   0.449   1.154
42315SOL    HW228779   1.448   0.561   1.174
42316SOL     OW28780   1.992   5.491   0.518
42316SOL    HW128781   2.070   5.437   0.530
42316SOL    HW228782   1.937   5.472   0.594
42317SOL     OW28783   7.381  14.169  11.577
42317SOL    HW128784   7.358  14.076  11.568
42317SOL    HW228785   7.400  14.198  11.488
42318SOL     OW28786   5.150  10.048   2.518
42318SOL    HW128787   5.109  10.129   2.487
42318SOL    HW228788   5.079   9.984   2.519
42319SOL     OW28789   6.089  11.730  14.545
42319SOL    HW128790   6.114  11.663  14.481
42319SOL    HW228791   6.075  11.809  14.493
42320SOL     OW28792   0.685   0.249  14.042
42320SOL    HW128793   0.648   0.170  14.080
42320SOL    HW228794   0.625   0.272  13.971
42321SOL     OW28795   0.885  12.547  10.749
42321SOL    HW128796   0.919  12.578  10.833
42321SOL    HW228797   0.795  12.581  10.746
42322SOL     OW28798  10.020   8.865  14.320
42322SOL    HW128799   9.926   8.877  14.330
42322SOL    HW228800  10.042   8.908  14.237
42323SOL     OW28801   3.234   2.458   5.736
42323SOL    HW128802   3.225   2.518   5.663
42323SOL    HW228803   3.244   2.372   5.695
42324SOL     OW28804  11.977  13.675  13.298
42324SOL    HW128805  11.942  13.617  13.365
42324SOL    HW228806  11.960  13.630  13.215
42325SOL     OW28807  10.563   8.667   5.070
42325SOL    HW128808  10.475   8.675   5.032
42325SOL    HW228809  10.621   8.662   4.994
42326SOL     OW28810   3.984   5.600  10.141
42326SOL    HW128811   3.924   5.572  10.211
42326SOL    HW228812   3.934   5.663  10.090
42327SOL     OW28813  13.280   3.071  12.863
42327SOL    HW128814  13.238   2.994  12.823
42327SOL    HW228815  13.374   3.056  12.849
42328SOL     OW28816   2.285  11.969   8.668
42328SOL    HW128817   2.365  11.965   8.720
42328SOL    HW228818   2.225  12.023   8.720
42329SOL     OW28819   1.616  14.767  11.980
42329SOL    HW128820   1.599  14.859  11.961
42329SOL    HW228821   1.529  14.726  11.983
42330SOL     OW28822   4.318  11.730   9.395
42330SOL    HW128823   4.366  11.731   9.478
42330SOL    HW228824   4.226  11.738   9.419
42331SOL     OW28825  14.304   4.015   2.707
42331SOL    HW128826  14.367   3.982   2.644
42331SOL    HW228827  14.276   3.938   2.756
42332SOL     OW28828   2.352   1.579  12.892
42332SOL    HW128829   2.292   1.556  12.820
42332SOL    HW228830   2.361   1.498  12.942
42333SOL     OW28831  13.725   0.386   2.282
42333SOL    HW128832  13.767   0.370   2.198
42333SOL    HW228833  13.691   0.475   2.275
42334SOL     OW28834  12.110  14.040   7.885
42334SOL    HW128835  12.081  13.956   7.850
42334SOL    HW228836  12.187  14.063   7.833
42335SOL     OW28837   5.565   5.830   2.429
42335SOL    HW128838   5.488   5.861   2.476
42335SOL    HW228839   5.585   5.902   2.368
42336SOL     OW28840   5.767   3.003   8.737
42336SOL    HW128841   5.783   3.070   8.803
42336SOL    HW228842   5.800   2.922   8.776
42337SOL     OW28843  10.341   0.658   7.093
42337SOL    HW128844  10.335   0.749   7.063
42337SOL    HW228845  10.250   0.629   7.099
42338SOL     OW28846   2.836   8.358   9.433
42338SOL    HW128847   2.843   8.446   9.468
42338SOL    HW228848   2.923   8.321   9.444
42339SOL     OW28849   1.348   3.687   8.982
42339SOL    HW128850   1.435   3.721   9.001
42339SOL    HW228851   1.364   3.603   8.939
42340SOL     OW28852   5.433   8.851   8.082
42340SOL    HW128853   5.367   8.888   8.023
42340SOL    HW228854   5.412   8.888   8.168
42341SOL     OW28855   2.910  10.581  10.936
42341SOL    HW128856   2.846  10.520  10.900
42341SOL    HW228857   2.994  10.552  10.899
42342SOL     OW28858  11.527   7.555   8.367
42342SOL    HW128859  11.457   7.552   8.433
42342SOL    HW228860  11.572   7.638   8.385
42343SOL     OW28861  11.863   9.036   2.509
42343SOL    HW128862  11.941   9.086   2.483
42343SOL    HW228863  11.896   8.972   2.573
42344SOL     OW28864   0.330  13.224  10.400
42344SOL    HW128865   0.308  13.133  10.421
42344SOL    HW228866   0.345  13.224  10.306
42345SOL     OW28867   4.548  12.630  11.859
42345SOL    HW128868   4.580  12.546  11.890
42345SOL    HW228869   4.505  12.669  11.935
42346SOL     OW28870  14.537  12.068   8.567
42346SOL    HW128871  14.465  12.131   8.559
42346SOL    HW228872  14.566  12.054   8.477
42347SOL     OW28873   3.360   4.171  12.725
42347SOL    HW128874   3.382   4.203  12.638
42347SOL    HW228875   3.375   4.246  12.783
42348SOL     OW28876   9.409  11.055   7.231
42348SOL    HW128877   9.330  11.102   7.204
42348SOL    HW228878   9.481  11.109   7.199
42349SOL     OW28879  10.764   5.309   9.714
42349SOL    HW128880  10.689   5.367   9.695
42349SOL    HW228881  10.766   5.248   9.640
42350SOL     OW28882   2.934  12.893   8.209
42350SOL    HW128883   3.019  12.936   8.196
42350SOL    HW228884   2.918  12.898   8.303
42351SOL     OW28885   4.506   6.157   7.586
42351SOL    HW128886   4.495   6.174   7.492
42351SOL    HW228887   4.441   6.213   7.628
42352SOL     OW28888   6.775   1.075   4.205
42352SOL    HW128889   6.858   1.114   4.231
42352SOL    HW228890   6.760   1.106   4.116
42353SOL     OW28891   0.255  13.233   7.050
42353SOL    HW128892   0.244  13.271   7.138
42353SOL    HW228893   0.212  13.296   6.992
42354SOL     OW28894  14.627   2.839   8.178
42354SOL    HW128895  14.563   2.909   8.193
42354SOL    HW228896  14.688   2.875   8.114
42355SOL     OW28897   2.642  10.371  13.384
42355SOL    HW128898   2.559  10.324  13.376
42355SOL    HW228899   2.654  10.381  13.478
42356SOL     OW28900   8.598   5.351   3.551
42356SOL    HW128901   8.604   5.374   3.644
42356SOL    HW228902   8.606   5.256   3.550
42357SOL     OW28903   0.504   3.402   4.858
42357SOL    HW128904   0.473   3.322   4.900
42357SOL    HW228905   0.560   3.372   4.787
42358SOL     OW28906  11.023  14.218   1.267
42358SOL    HW128907  11.074  14.286   1.223
42358SOL    HW228908  10.956  14.192   1.203
42359SOL     OW28909   1.348   7.025  12.158
42359SOL    HW128910   1.276   7.045  12.219
42359SOL    HW228911   1.328   6.938  12.124
42360SOL     OW28912   3.156   5.802   1.541
42360SOL    HW128913   3.227   5.842   1.591
42360SOL    HW228914   3.133   5.723   1.590
42361SOL     OW28915   5.486  13.536   0.481
42361SOL    HW128916   5.405  13.557   0.528
42361SOL    HW228917   5.459  13.530   0.389
42362SOL     OW28918   0.423   4.404  14.103
42362SOL    HW128919   0.371   4.485  14.107
42362SOL    HW228920   0.507   4.428  14.143
42363SOL     OW28921   3.102   8.532   3.565
42363SOL    HW128922   3.041   8.463   3.591
42363SOL    HW228923   3.124   8.513   3.474
42364SOL     OW28924  12.087   0.125   5.654
42364SOL    HW128925  12.018   0.062   5.678
42364SOL    HW228926  12.039   0.206   5.637
42365SOL     OW28927  10.004  12.917   2.095
42365SOL    HW128928  10.010  12.999   2.144
42365SOL    HW228929   9.994  12.945   2.004
42366SOL     OW28930  11.987   1.239   7.717
42366SOL    HW128931  12.006   1.146   7.700
42366SOL    HW228932  12.071   1.276   7.744
42367SOL     OW28933   3.044  10.145   6.923
42367SOL    HW128934   3.094  10.093   6.986
42367SOL    HW228935   3.054  10.236   6.953
42368SOL     OW28936  12.267   3.919   0.104
42368SOL    HW128937  12.206   3.884   0.039
42368SOL    HW228938  12.351   3.925   0.058
42369SOL     OW28939   4.522   5.542  14.304
42369SOL    HW128940   4.456   5.507  14.364
42369SOL    HW228941   4.474   5.560  14.223
42370SOL     OW28942   4.714  10.635   0.135
42370SOL    HW128943   4.644  10.575   0.163
42370SOL    HW228944   4.676  10.682   0.061
42371SOL     OW28945   1.634   4.273  12.342
42371SOL    HW128946   1.667   4.306  12.425
42371SOL    HW228947   1.544   4.246  12.361
42372SOL     OW28948   9.658   8.612  13.057
42372SOL    HW128949   9.751   8.629  13.046
42372SOL    HW228950   9.633   8.662  13.134
42373SOL     OW28951   5.939  11.747   5.596
42373SOL    HW128952   5.906  11.658   5.612
42373SOL    HW228953   5.977  11.773   5.680
42374SOL     OW28954   9.591  12.831  10.101
42374SOL    HW128955   9.517  12.844  10.041
42374SOL    HW228956   9.556  12.774  10.169
42375SOL     OW28957   3.859  11.661   2.106
42375SOL    HW128958   3.929  11.600   2.128
42375SOL    HW228959   3.876  11.688   2.017
42376SOL     OW28960   0.413   2.002   5.848
42376SOL    HW128961   0.452   1.985   5.762
42376SOL    HW228962   0.333   1.948   5.849
42377SOL     OW28963  11.834  12.058   8.192
42377SOL    HW128964  11.817  12.019   8.278
42377SOL    HW228965  11.871  12.144   8.212
42378SOL     OW28966   2.862   7.014   1.036
42378SOL    HW128967   2.804   6.996   1.111
42378SOL    HW228968   2.946   6.975   1.061
42379SOL     OW28969   0.832  11.164  11.446
42379SOL    HW128970   0.825  11.178  11.352
42379SOL    HW228971   0.866  11.247  11.480
42380SOL     OW28972   8.392  10.852   7.879
42380SOL    HW128973   8.309  10.808   7.902
42380SOL    HW228974   8.448  10.838   7.956
42381SOL     OW28975   5.940  14.550   0.934
42381SOL    HW128976   5.935  14.458   0.909
42381SOL    HW228977   5.864  14.563   0.991
42382SOL     OW28978   7.633   5.183  13.980
42382SOL    HW128979   7.569   5.197  13.910
42382SOL    HW228980   7.673   5.098  13.959
42383SOL     OW28981  10.520   8.787   7.300
42383SOL    HW128982  10.608   8.750   7.305
42383SOL    HW228983  10.477   8.758   7.380
42384SOL     OW28984  10.488   5.691   6.489
42384SOL    HW128985  10.506   5.785   6.499
42384SOL    HW228986  10.508   5.653   6.574
42385SOL     OW28987   3.362   7.035   8.743
42385SOL    HW128988   3.368   7.017   8.837
42385SOL    HW228989   3.439   6.992   8.706
42386SOL     OW28990   8.045   1.122   6.603
42386SOL    HW128991   8.068   1.048   6.658
42386SOL    HW228992   7.953   1.108   6.580
42387SOL     OW28993  10.073   0.214   7.078
42387SOL    HW128994  10.013   0.199   7.005
42387SOL    HW228995  10.078   0.309   7.086
42388SOL     OW28996  13.595   1.066   8.809
42388SOL    HW128997  13.522   1.005   8.813
42388SOL    HW228998  13.555   1.153   8.807
42389SOL     OW28999  11.182  10.385   8.877
42389SOL    HW129000  11.101  10.364   8.925
42389SOL    HW229001  11.210  10.468   8.914
42390SOL     OW29002  10.867   5.880   9.028
42390SOL    HW129003  10.954   5.846   9.007
42390SOL    HW229004  10.850   5.849   9.117
42391SOL     OW29005   9.608  14.003  12.244
42391SOL    HW129006   9.683  14.055  12.272
42391SOL    HW229007   9.613  13.923  12.297
42392SOL     OW29008  11.019  10.344   4.421
42392SOL    HW129009  10.924  10.350   4.424
42392SOL    HW229010  11.048  10.367   4.509
42393SOL     OW29011   8.586  11.536   0.811
42393SOL    HW129012   8.572  11.513   0.719
42393SOL    HW229013   8.517  11.490   0.858
42394SOL     OW29014  10.442   4.057  11.980
42394SOL    HW129015  10.353   4.044  11.949
42394SOL    HW229016  10.458   4.151  11.971
42395SOL     OW29017   4.974  14.381   5.819
42395SOL    HW129018   4.988  14.288   5.803
42395SOL    HW229019   4.958  14.388   5.913
42396SOL     OW29020  14.187  14.036  10.516
42396SOL    HW129021  14.203  13.991  10.433
42396SOL    HW229022  14.116  13.987  10.557
42397SOL     OW29023   4.844   1.297   7.187
42397SOL    HW129024   4.814   1.325   7.100
42397SOL    HW229025   4.779   1.333   7.247
42398SOL     OW29026   3.299  13.967   0.538
42398SOL    HW129027   3.272  13.892   0.591
42398SOL    HW229028   3.385  13.992   0.572
42399SOL     OW29029   9.925   2.733  10.230
42399SOL    HW129030   9.969   2.797  10.175
42399SOL    HW229031   9.849   2.780  10.265
42400SOL     OW29032   9.117   9.677  10.019
42400SOL    HW129033   9.089   9.588   9.997
42400SOL    HW229034   9.046   9.733   9.986
42401SOL     OW29035   6.094   4.832   7.464
42401SOL    HW129036   6.036   4.812   7.390
42401SOL    HW229037   6.047   4.900   7.513
42402SOL     OW29038   4.272   7.174   6.161
42402SOL    HW129039   4.301   7.084   6.173
42402SOL    HW229040   4.283   7.215   6.247
42403SOL     OW29041   4.959  13.695   5.806
42403SOL    HW129042   4.892  13.628   5.793
42403SOL    HW229043   4.919  13.756   5.869
42404SOL     OW29044  14.683  10.541   1.339
42404SOL    HW129045  14.758  10.580   1.382
42404SOL    HW229046  14.720  10.478   1.277
42405SOL     OW29047  12.565  12.451   2.443
42405SOL    HW129048  12.619  12.527   2.465
42405SOL    HW229049  12.625  12.377   2.449
42406SOL     OW29050   3.934   3.058   7.313
42406SOL    HW129051   3.954   3.128   7.251
42406SOL    HW229052   3.971   2.980   7.273
42407SOL     OW29053   6.072   8.064   7.346
42407SOL    HW129054   6.052   7.997   7.410
42407SOL    HW229055   6.142   8.116   7.386
42408SOL     OW29056  13.266  10.715   4.017
42408SOL    HW129057  13.361  10.717   4.003
42408SOL    HW229058  13.241  10.625   3.995
42409SOL     OW29059   9.383  14.618   0.231
42409SOL    HW129060   9.338  14.700   0.213
42409SOL    HW229061   9.314  14.552   0.229
42410SOL     OW29062  12.239   6.129  10.517
42410SOL    HW129063  12.239   6.040  10.482
42410SOL    HW229064  12.326   6.140  10.555
42411SOL     OW29065   1.757  14.044   7.310
42411SOL    HW129066   1.753  13.998   7.226
42411SOL    HW229067   1.821  13.995   7.362
42412SOL     OW29068   1.154   9.309   7.792
42412SOL    HW129069   1.215   9.377   7.761
42412SOL    HW229070   1.199   9.271   7.868
42413SOL     OW29071  14.363  10.357   0.109
42413SOL    HW129072  14.331  10.292   0.046
42413SOL    HW229073  14.284  10.393   0.148
42414SOL     OW29074   7.423   2.411   3.779
42414SOL    HW129075   7.376   2.418   3.697
42414SOL    HW229076   7.423   2.500   3.815
42415SOL     OW29077   9.800   8.212   8.907
42415SOL    HW129078   9.742   8.171   8.972
42415SOL    HW229079   9.746   8.280   8.866
42416SOL     OW29080   9.231   6.518   4.017
42416SOL    HW129081   9.230   6.473   4.101
42416SOL    HW229082   9.151   6.571   4.016
42417SOL     OW29083   1.772   9.536  11.131
42417SOL    HW129084   1.750   9.629  11.131
42417SOL    HW229085   1.831   9.525  11.058
42418SOL     OW29086   0.944  13.559   5.674
42418SOL    HW129087   0.916  13.611   5.598
42418SOL    HW229088   0.925  13.469   5.648
42419SOL     OW29089   0.988   3.626  11.752
42419SOL    HW129090   0.939   3.545  11.738
42419SOL    HW229091   0.921   3.694  11.760
42420SOL     OW29092  12.172   1.622   8.032
42420SOL    HW129093  12.103   1.586   7.976
42420SOL    HW229094  12.182   1.712   8.003
42421SOL     OW29095   8.025   9.475  13.694
42421SOL    HW129096   7.975   9.415  13.748
42421SOL    HW229097   8.094   9.421  13.656
42422SOL     OW29098  13.554  10.691  14.375
42422SOL    HW129099  13.495  10.698  14.450
42422SOL    HW229100  13.619  10.759  14.389
42423SOL     OW29101   4.137   1.236  14.781
42423SOL    HW129102   4.210   1.179  14.806
42423SOL    HW229103   4.165   1.324  14.809
42424SOL     OW29104   1.471  13.715   1.135
42424SOL    HW129105   1.485  13.693   1.042
42424SOL    HW229106   1.469  13.810   1.137
42425SOL     OW29107   9.030   7.786   3.640
42425SOL    HW129108   8.994   7.864   3.598
42425SOL    HW229109   9.112   7.816   3.679
42426SOL     OW29110  14.851   5.119   9.137
42426SOL    HW129111  14.762   5.096   9.109
42426SOL    HW229112  14.843   5.129   9.232
42427SOL     OW29113   8.550  14.039   5.833
42427SOL    HW129114   8.622  14.049   5.895
42427SOL    HW229115   8.589  13.995   5.758
42428SOL     OW29116   7.690   6.698  10.856
42428SOL    HW129117   7.624   6.629  10.852
42428SOL    HW229118   7.681   6.745  10.773
42429SOL     OW29119   9.998   7.329   9.483
42429SOL    HW129120  10.002   7.254   9.543
42429SOL    HW229121   9.981   7.404   9.540
42430SOL     OW29122   6.747   3.463  12.997
42430SOL    HW129123   6.808   3.392  13.017
42430SOL    HW229124   6.695   3.473  13.077
42431SOL     OW29125   7.798  14.828  13.914
42431SOL    HW129126   7.810  14.747  13.865
42431SOL    HW229127   7.721  14.812  13.969
42432SOL     OW29128   2.807   7.841   4.314
42432SOL    HW129129   2.847   7.759   4.286
42432SOL    HW229130   2.845   7.859   4.400
42433SOL     OW29131   6.394   2.747  10.714
42433SOL    HW129132   6.384   2.804  10.638
42433SOL    HW229133   6.487   2.750  10.735
42434SOL     OW29134  13.570   7.559   5.442
42434SOL    HW129135  13.628   7.498   5.487
42434SOL    HW229136  13.488   7.554   5.490
42435SOL     OW29137   2.929   7.441   5.216
42435SOL    HW129138   2.950   7.392   5.295
42435SOL    HW229139   2.930   7.533   5.244
42436SOL     OW29140  12.485   3.468   6.680
42436SOL    HW129141  12.519   3.503   6.598
42436SOL    HW229142  12.468   3.545   6.735
42437SOL     OW29143   9.735   2.814   3.890
42437SOL    HW129144   9.803   2.876   3.918
42437SOL    HW229145   9.784   2.737   3.860
42438SOL     OW29146  11.492   5.532   4.931
42438SOL    HW129147  11.556   5.566   4.868
42438SOL    HW229148  11.540   5.530   5.015
42439SOL     OW29149   8.249  10.300   7.649
42439SOL    HW129150   8.327  10.316   7.702
42439SOL    HW229151   8.281  10.301   7.558
42440SOL     OW29152   3.304   2.058   4.523
42440SOL    HW129153   3.291   1.966   4.499
42440SOL    HW229154   3.319   2.103   4.440
42441SOL     OW29155   9.180   6.970  12.078
42441SOL    HW129156   9.236   7.026  12.131
42441SOL    HW229157   9.159   7.022  12.001
42442SOL     OW29158   3.942   9.845   8.101
42442SOL    HW129159   3.908   9.780   8.164
42442SOL    HW229160   3.999   9.901   8.153
42443SOL     OW29161   3.360  10.530   7.364
42443SOL    HW129162   3.444  10.568   7.390
42443SOL    HW229163   3.340  10.467   7.433
42444SOL     OW29164  10.933   8.392   7.530
42444SOL    HW129165  10.840   8.411   7.524
42444SOL    HW229166  10.975   8.477   7.540
42445SOL     OW29167  11.597   9.601  12.323
42445SOL    HW129168  11.621   9.661  12.394
42445SOL    HW229169  11.516   9.637  12.288
42446SOL     OW29170   7.392   6.402  11.123
42446SOL    HW129171   7.403   6.344  11.199
42446SOL    HW229172   7.459   6.374  11.061
42447SOL     OW29173   3.807   2.579  14.048
42447SOL    HW129174   3.857   2.660  14.039
42447SOL    HW229175   3.874   2.512  14.064
42448SOL     OW29176   6.673  14.857   9.101
42448SOL    HW129177   6.696   0.053   9.164
42448SOL    HW229178   6.752  14.846   9.048
42449SOL     OW29179   8.554   1.842  10.674
42449SOL    HW129180   8.590   1.774  10.616
42449SOL    HW229181   8.475   1.872  10.629
42450SOL     OW29182   3.681   4.001  13.669
42450SOL    HW129183   3.760   4.052  13.652
42450SOL    HW229184   3.709   3.910  13.662
42451SOL     OW29185   5.477   0.612   0.136
42451SOL    HW129186   5.567   0.644   0.144
42451SOL    HW229187   5.445   0.651   0.054
42452SOL     OW29188   1.579   5.205   9.456
42452SOL    HW129189   1.582   5.264   9.532
42452SOL    HW229190   1.586   5.263   9.381
42453SOL     OW29191   2.992   2.572  14.439
42453SOL    HW129192   2.954   2.653  14.405
42453SOL    HW229193   3.081   2.571  14.406
42454SOL     OW29194   8.509  13.315  10.899
42454SOL    HW129195   8.545  13.227  10.909
42454SOL    HW229196   8.554  13.350  10.822
42455SOL     OW29197   6.662  14.057  12.132
42455SOL    HW129198   6.648  14.151  12.125
42455SOL    HW229199   6.691  14.044  12.222
42456SOL     OW29200   9.287  11.081   2.946
42456SOL    HW129201   9.318  11.056   3.033
42456SOL    HW229202   9.345  11.035   2.886
42457SOL     OW29203   6.103   1.574   2.448
42457SOL    HW129204   6.069   1.582   2.358
42457SOL    HW229205   6.147   1.488   2.449
42458SOL     OW29206  10.442   2.983   0.698
42458SOL    HW129207  10.532   3.010   0.714
42458SOL    HW229208  10.420   3.021   0.613
42459SOL     OW29209   5.454  10.602  14.238
42459SOL    HW129210   5.506  10.677  14.210
42459SOL    HW229211   5.383  10.640  14.290
42460SOL     OW29212   2.147   8.913   1.963
42460SOL    HW129213   2.194   8.963   1.896
42460SOL    HW229214   2.122   8.832   1.919
42461SOL     OW29215   8.237   3.921   9.670
42461SOL    HW129216   8.307   3.865   9.704
42461SOL    HW229217   8.241   4.000   9.724
42462SOL     OW29218   9.122   3.863   0.294
42462SOL    HW129219   9.083   3.795   0.349
42462SOL    HW229220   9.207   3.826   0.268
42463SOL     OW29221  13.864  13.439   7.005
42463SOL    HW129222  13.899  13.473   7.088
42463SOL    HW229223  13.805  13.508   6.975
42464SOL     OW29224  11.452  10.752   8.434
42464SOL    HW129225  11.461  10.670   8.483
42464SOL    HW229226  11.358  10.759   8.415
42465SOL     OW29227  13.442   4.475   8.617
42465SOL    HW129228  13.386   4.432   8.682
42465SOL    HW229229  13.477   4.552   8.662
42466SOL     OW29230   9.625   3.151  11.874
42466SOL    HW129231   9.644   3.066  11.913
42466SOL    HW229232   9.601   3.131  11.784
42467SOL     OW29233   5.896   4.757   3.022
42467SOL    HW129234   5.934   4.672   2.999
42467SOL    HW229235   5.829   4.736   3.087
42468SOL     OW29236   4.864   3.017   3.609
42468SOL    HW129237   4.858   3.112   3.610
42468SOL    HW229238   4.824   2.991   3.526
42469SOL     OW29239   5.957   8.860   4.991
42469SOL    HW129240   5.972   8.847   4.897
42469SOL    HW229241   5.873   8.818   5.008
42470SOL     OW29242  13.765   2.338   9.480
42470SOL    HW129243  13.760   2.410   9.543
42470SOL    HW229244  13.682   2.292   9.489
42471SOL     OW29245  13.762   6.482  12.759
42471SOL    HW129246  13.745   6.394  12.793
42471SOL    HW229247  13.732   6.540  12.829
42472SOL     OW29248   3.829   5.022  10.180
42472SOL    HW129249   3.859   4.961  10.113
42472SOL    HW229250   3.755   4.977  10.222
42473SOL     OW29251   3.960  13.870   9.058
42473SOL    HW129252   3.968  13.786   9.105
42473SOL    HW229253   4.042  13.915   9.074
42474SOL     OW29254  12.758   9.686  12.911
42474SOL    HW129255  12.673   9.675  12.955
42474SOL    HW229256  12.738   9.737  12.833
42475SOL     OW29257   7.215   2.661   7.924
42475SOL    HW129258   7.234   2.704   7.841
42475SOL    HW229259   7.178   2.730   7.979
42476SOL     OW29260   5.549  12.718   2.207
42476SOL    HW129261   5.455  12.723   2.187
42476SOL    HW229262   5.568  12.625   2.210
42477SOL     OW29263   8.275   5.395  10.962
42477SOL    HW129264   8.267   5.365  11.053
42477SOL    HW229265   8.343   5.339  10.924
42478SOL     OW29266   4.523   4.058   0.239
42478SOL    HW129267   4.505   4.151   0.252
42478SOL    HW229268   4.440   4.020   0.211
42479SOL     OW29269   2.986   4.916  12.818
42479SOL    HW129270   3.077   4.911  12.847
42479SOL    HW229271   2.988   4.879  12.729
42480SOL     OW29272   1.118   2.487   1.528
42480SOL    HW129273   1.163   2.572   1.524
42480SOL    HW229274   1.186   2.426   1.555
42481SOL     OW29275  11.211   1.283  10.902
42481SOL    HW129276  11.165   1.202  10.883
42481SOL    HW229277  11.222   1.283  10.997
42482SOL     OW29278  10.739   9.873   2.518
42482SOL    HW129279  10.706   9.825   2.594
42482SOL    HW229280  10.691   9.835   2.444
42483SOL     OW29281   4.986   0.361  11.119
42483SOL    HW129282   5.018   0.406  11.197
42483SOL    HW229283   5.035   0.279  11.117
42484SOL     OW29284   3.577  14.859   4.631
42484SOL    HW129285   3.583  14.821   4.544
42484SOL    HW229286   3.654  14.825   4.677
42485SOL     OW29287  12.464  12.745   8.817
42485SOL    HW129288  12.480  12.703   8.732
42485SOL    HW229289  12.487  12.677   8.881
42486SOL     OW29290   3.545   7.579  13.170
42486SOL    HW129291   3.553   7.571  13.265
42486SOL    HW229292   3.569   7.492  13.138
42487SOL     OW29293   0.618   1.287   6.733
42487SOL    HW129294   0.637   1.294   6.827
42487SOL    HW229295   0.639   1.373   6.698
42488SOL     OW29296   2.111  10.731   5.957
42488SOL    HW129297   2.034  10.691   5.918
42488SOL    HW229298   2.182  10.668   5.939
42489SOL     OW29299   4.090   9.033   2.193
42489SOL    HW129300   4.013   9.079   2.159
42489SOL    HW229301   4.073   9.023   2.286
42490SOL     OW29302   5.547  12.570   7.897
42490SOL    HW129303   5.502  12.560   7.813
42490SOL    HW229304   5.477  12.570   7.962
42491SOL     OW29305  13.020   9.477   0.376
42491SOL    HW129306  13.094   9.525   0.339
42491SOL    HW229307  12.943   9.526   0.347
42492SOL     OW29308   7.099   4.305  13.361
42492SOL    HW129309   7.175   4.362  13.366
42492SOL    HW229310   7.081   4.296  13.267
42493SOL     OW29311   3.675   7.834   5.871
42493SOL    HW129312   3.588   7.850   5.907
42493SOL    HW229313   3.733   7.888   5.925
42494SOL     OW29314  12.263   5.217   2.545
42494SOL    HW129315  12.331   5.210   2.611
42494SOL    HW229316  12.226   5.129   2.538
42495SOL     OW29317   3.828   5.360  13.841
42495SOL    HW129318   3.797   5.349  13.751
42495SOL    HW229319   3.751   5.388  13.890
42496SOL     OW29320  12.565  11.994   0.507
42496SOL    HW129321  12.509  12.016   0.581
42496SOL    HW229322  12.520  11.921   0.464
42497SOL     OW29323  11.109   9.255  10.296
42497SOL    HW129324  11.126   9.311  10.220
42497SOL    HW229325  11.167   9.180  10.284
42498SOL     OW29326   9.419   6.879  11.794
42498SOL    HW129327   9.430   6.973  11.808
42498SOL    HW229328   9.501   6.850  11.754
42499SOL     OW29329  13.987   4.137   1.206
42499SOL    HW129330  13.913   4.136   1.146
42499SOL    HW229331  13.956   4.187   1.281
42500SOL     OW29332   7.219   4.755   2.503
42500SOL    HW129333   7.175   4.671   2.513
42500SOL    HW229334   7.201   4.782   2.413
42501SOL     OW29335   0.115   9.655  14.115
42501SOL    HW129336   0.079   9.696  14.037
42501SOL    HW229337   0.183   9.715  14.146
42502SOL     OW29338   0.892  13.316   5.583
42502SOL    HW129339   0.815  13.276   5.623
42502SOL    HW229340   0.872  13.317   5.489
42503SOL     OW29341   5.309   6.723  13.455
42503SOL    HW129342   5.221   6.727  13.417
42503SOL    HW229343   5.329   6.629  13.456
42504SOL     OW29344  13.258   5.247   3.561
42504SOL    HW129345  13.258   5.331   3.607
42504SOL    HW229346  13.303   5.187   3.620
42505SOL     OW29347   1.637   5.825   8.045
42505SOL    HW129348   1.627   5.745   8.096
42505SOL    HW229349   1.724   5.859   8.069
42506SOL     OW29350   2.450  10.881  11.599
42506SOL    HW129351   2.418  10.966  11.631
42506SOL    HW229352   2.494  10.900  11.517
42507SOL     OW29353   7.243   4.218   6.588
42507SOL    HW129354   7.207   4.281   6.526
42507SOL    HW229355   7.169   4.162   6.611
42508SOL     OW29356  12.577   2.003  10.280
42508SOL    HW129357  12.490   1.965  10.289
42508SOL    HW229358  12.569   2.066  10.208
42509SOL     OW29359   5.672   5.180   4.582
42509SOL    HW129360   5.741   5.193   4.646
42509SOL    HW229361   5.627   5.101   4.610
42510SOL     OW29362   9.765   1.361  14.860
42510SOL    HW129363   9.824   1.411   0.043
42510SOL    HW229364   9.812   1.353  14.777
42511SOL     OW29365  11.484  13.254   5.426
42511SOL    HW129366  11.504  13.342   5.461
42511SOL    HW229367  11.487  13.265   5.331
42512SOL     OW29368   4.621   7.253   7.439
42512SOL    HW129369   4.617   7.158   7.450
42512SOL    HW229370   4.535   7.276   7.404
42513SOL     OW29371   8.901  14.501  10.659
42513SOL    HW129372   8.844  14.492  10.736
42513SOL    HW229373   8.913  14.411  10.628
42514SOL     OW29374  10.331   4.848  11.693
42514SOL    HW129375  10.385   4.885  11.763
42514SOL    HW229376  10.391   4.792  11.644
42515SOL     OW29377   1.760   2.270   2.917
42515SOL    HW129378   1.824   2.334   2.885
42515SOL    HW229379   1.808   2.188   2.923
42516SOL     OW29380   1.811  13.758  11.872
42516SOL    HW129381   1.809  13.771  11.777
42516SOL    HW229382   1.786  13.667  11.885
42517SOL     OW29383   0.005  11.410   4.390
42517SOL    HW129384   0.009  11.499   4.424
42517SOL    HW229385   0.021  11.354   4.465
42518SOL     OW29386   5.836  12.703   9.360
42518SOL    HW129387   5.929  12.717   9.345
42518SOL    HW229388   5.819  12.740   9.446
42519SOL     OW29389  14.161   8.623   1.025
42519SOL    HW129390  14.103   8.554   1.059
42519SOL    HW229391  14.202   8.584   0.947
42520SOL     OW29392   3.071   3.141  11.460
42520SOL    HW129393   3.111   3.222  11.493
42520SOL    HW229394   2.979   3.164  11.446
42521SOL     OW29395   8.123  14.681   6.632
42521SOL    HW129396   8.135  14.719   6.545
42521SOL    HW229397   8.212  14.669   6.665
42522SOL     OW29398   2.383  11.572   6.456
42522SOL    HW129399   2.333  11.564   6.537
42522SOL    HW229400   2.319  11.559   6.386
42523SOL     OW29401  12.466  10.065  14.494
42523SOL    HW129402  12.389  10.073  14.551
42523SOL    HW229403  12.461  10.142  14.437
42524SOL     OW29404  10.784   8.998   0.482
42524SOL    HW129405  10.762   8.974   0.571
42524SOL    HW229406  10.861   9.055   0.490
42525SOL     OW29407  10.714   2.851  11.338
42525SOL    HW129408  10.766   2.783  11.295
42525SOL    HW229409  10.625   2.834  11.310
42526SOL     OW29410   8.416  11.083   1.552
42526SOL    HW129411   8.454  11.061   1.636
42526SOL    HW229412   8.489  11.078   1.490
42527SOL     OW29413   1.843  10.936  10.897
42527SOL    HW129414   1.824  10.857  10.947
42527SOL    HW229415   1.924  10.917  10.850
42528SOL     OW29416  13.455  10.586  11.613
42528SOL    HW129417  13.378  10.558  11.564
42528SOL    HW229418  13.498  10.504  11.639
42529SOL     OW29419   3.326   6.274   5.335
42529SOL    HW129420   3.390   6.256   5.404
42529SOL    HW229421   3.241   6.265   5.378
42530SOL     OW29422   5.356   9.615   7.617
42530SOL    HW129423   5.353   9.611   7.521
42530SOL    HW229424   5.265   9.621   7.644
42531SOL     OW29425   4.751  11.028   7.617
42531SOL    HW129426   4.775  10.935   7.614
42531SOL    HW229427   4.670  11.034   7.567
42532SOL     OW29428   9.571   5.229   8.477
42532SOL    HW129429   9.550   5.200   8.566
42532SOL    HW229430   9.495   5.282   8.451
42533SOL     OW29431  14.694  12.245   9.312
42533SOL    HW129432  14.755  12.176   9.286
42533SOL    HW229433  14.672  12.290   9.231
42534SOL     OW29434  14.355   5.406  10.367
42534SOL    HW129435  14.335   5.479  10.309
42534SOL    HW229436  14.443   5.379  10.342
42535SOL     OW29437  14.310  13.374   9.392
42535SOL    HW129438  14.278  13.457   9.359
42535SOL    HW229439  14.231  13.324   9.413
42536SOL     OW29440   1.505  13.847   2.551
42536SOL    HW129441   1.577  13.785   2.541
42536SOL    HW229442   1.431  13.805   2.508
42537SOL     OW29443  12.980   6.900  12.680
42537SOL    HW129444  13.067   6.930  12.653
42537SOL    HW229445  12.946   6.971  12.734
42538SOL     OW29446  11.066   5.973  14.798
42538SOL    HW129447  11.090   6.061  14.768
42538SOL    HW229448  10.983   5.955  14.755
42539SOL     OW29449   2.924   0.379   7.457
42539SOL    HW129450   2.938   0.456   7.401
42539SOL    HW229451   2.939   0.412   7.546
42540SOL     OW29452   8.961   9.044   4.264
42540SOL    HW129453   8.869   9.038   4.291
42540SOL    HW229454   8.994   9.123   4.307
42541SOL     OW29455  10.209  11.601   9.596
42541SOL    HW129456  10.225  11.642   9.681
42541SOL    HW229457  10.237  11.666   9.532
42542SOL     OW29458  11.440   5.178   3.636
42542SOL    HW129459  11.502   5.116   3.675
42542SOL    HW229460  11.420   5.239   3.707
42543SOL     OW29461  12.781  11.043   4.600
42543SOL    HW129462  12.874  11.025   4.587
42543SOL    HW229463  12.739  11.016   4.518
42544SOL     OW29464  11.932  10.227   8.906
42544SOL    HW129465  11.891  10.228   8.993
42544SOL    HW229466  11.904  10.309   8.865
42545SOL     OW29467   0.888   1.257   2.518
42545SOL    HW129468   0.925   1.329   2.466
42545SOL    HW229469   0.959   1.193   2.522
42546SOL     OW29470   6.443  11.249   2.020
42546SOL    HW129471   6.418  11.187   1.952
42546SOL    HW229472   6.489  11.319   1.973
42547SOL     OW29473  11.760   7.001   3.863
42547SOL    HW129474  11.792   7.085   3.831
42547SOL    HW229475  11.673   7.019   3.898
42548SOL     OW29476  13.348  13.547  14.686
42548SOL    HW129477  13.281  13.600  14.642
42548SOL    HW229478  13.416  13.534  14.620
42549SOL     OW29479   9.702  10.465   6.823
42549SOL    HW129480   9.769  10.423   6.768
42549SOL    HW229481   9.634  10.398   6.832
42550SOL     OW29482  10.242   8.478   8.290
42550SOL    HW129483  10.276   8.565   8.310
42550SOL    HW229484  10.318   8.431   8.254
42551SOL     OW29485   7.603  12.088  11.064
42551SOL    HW129486   7.604  12.180  11.090
42551SOL    HW229487   7.692  12.071  11.032
42552SOL     OW29488  10.600  10.383   7.856
42552SOL    HW129489  10.541  10.424   7.793
42552SOL    HW229490  10.553  10.390   7.940
42553SOL     OW29491   4.650   4.451   4.471
42553SOL    HW129492   4.562   4.420   4.450
42553SOL    HW229493   4.697   4.373   4.501
42554SOL     OW29494   9.176   1.407   2.943
42554SOL    HW129495   9.156   1.374   2.855
42554SOL    HW229496   9.180   1.502   2.932
42555SOL     OW29497  10.575   1.039   3.232
42555SOL    HW129498  10.588   1.124   3.275
42555SOL    HW229499  10.645   1.034   3.167
42556SOL     OW29500   6.106   3.907  12.464
42556SOL    HW129501   6.091   3.987  12.415
42556SOL    HW229502   6.020   3.865  12.469
42557SOL     OW29503   3.774   0.677   6.738
42557SOL    HW129504   3.820   0.743   6.687
42557SOL    HW229505   3.715   0.726   6.794
42558SOL     OW29506  13.860   4.491   7.286
42558SOL    HW129507  13.794   4.423   7.271
42558SOL    HW229508  13.851   4.550   7.211
42559SOL     OW29509   1.398   5.702  12.401
42559SOL    HW129510   1.489   5.730  12.386
42559SOL    HW229511   1.348   5.784  12.401
42560SOL     OW29512  12.789   5.034   6.742
42560SOL    HW129513  12.836   5.109   6.706
42560SOL    HW229514  12.721   5.015   6.678
42561SOL     OW29515  11.364   1.944   5.721
42561SOL    HW129516  11.328   2.017   5.671
42561SOL    HW229517  11.287   1.898   5.755
42562SOL     OW29518  10.162   5.435   8.221
42562SOL    HW129519  10.198   5.425   8.309
42562SOL    HW229520  10.201   5.364   8.171
42563SOL     OW29521  10.776   8.827   1.133
42563SOL    HW129522  10.857   8.792   1.171
42563SOL    HW229523  10.754   8.767   1.062
42564SOL     OW29524   8.437  11.526  13.076
42564SOL    HW129525   8.448  11.607  13.126
42564SOL    HW229526   8.400  11.554  12.992
42565SOL     OW29527   0.444   6.145   1.112
42565SOL    HW129528   0.529   6.187   1.131
42565SOL    HW229529   0.380   6.214   1.128
42566SOL     OW29530  12.059  14.135  13.160
42566SOL    HW129531  12.138  14.188  13.168
42566SOL    HW229532  12.075  14.058  13.214
42567SOL     OW29533   0.217  12.178  11.810
42567SOL    HW129534   0.220  12.095  11.856
42567SOL    HW229535   0.144  12.170  11.750
42568SOL     OW29536  14.338   8.849   0.818
42568SOL    HW129537  14.387   8.858   0.900
42568SOL    HW229538  14.376   8.914   0.759
42569SOL     OW29539   2.915  10.640   9.331
42569SOL    HW129540   2.956  10.617   9.415
42569SOL    HW229541   2.890  10.732   9.340
42570SOL     OW29542   8.587   5.630   7.453
42570SOL    HW129543   8.532   5.570   7.502
42570SOL    HW229544   8.670   5.584   7.442
42571SOL     OW29545   4.859  10.133  13.645
42571SOL    HW129546   4.935  10.150  13.701
42571SOL    HW229547   4.883  10.170  13.561
42572SOL     OW29548  12.255   9.872  11.805
42572SOL    HW129549  12.300   9.805  11.856
42572SOL    HW229550  12.175   9.829  11.774
42573SOL     OW29551  11.399   4.127  10.317
42573SOL    HW129552  11.446   4.184  10.257
42573SOL    HW229553  11.315   4.111  10.275
42574SOL     OW29554  14.050   1.043   8.208
42574SOL    HW129555  13.965   1.020   8.245
42574SOL    HW229556  14.110   1.039   8.283
42575SOL     OW29557   9.107  10.671   0.486
42575SOL    HW129558   9.032  10.623   0.521
42575SOL    HW229559   9.150  10.708   0.563
42576SOL     OW29560  10.151   1.336   0.429
42576SOL    HW129561  10.156   1.258   0.374
42576SOL    HW229562  10.238   1.374   0.425
42577SOL     OW29563  12.868  13.864  13.971
42577SOL    HW129564  12.913  13.789  13.934
42577SOL    HW229565  12.843  13.917  13.895
42578SOL     OW29566   0.528   2.181   2.126
42578SOL    HW129567   0.523   2.227   2.042
42578SOL    HW229568   0.619   2.153   2.134
42579SOL     OW29569  10.757  10.363  14.685
42579SOL    HW129570  10.839  10.313  14.690
42579SOL    HW229571  10.693  10.306  14.728
42580SOL     OW29572   1.366   8.269  10.239
42580SOL    HW129573   1.311   8.345  10.221
42580SOL    HW229574   1.308   8.194  10.227
42581SOL     OW29575   3.839  10.299   8.426
42581SOL    HW129576   3.910  10.281   8.487
42581SOL    HW229577   3.877  10.287   8.339
42582SOL     OW29578  12.416   0.095   4.204
42582SOL    HW129579  12.443   0.165   4.263
42582SOL    HW229580  12.340   0.055   4.245
42583SOL     OW29581   4.137  13.788   8.114
42583SOL    HW129582   4.119  13.826   8.028
42583SOL    HW229583   4.231  13.769   8.113
42584SOL     OW29584  10.015  14.273   2.231
42584SOL    HW129585  10.109  14.276   2.243
42584SOL    HW229586   9.986  14.201   2.287
42585SOL     OW29587  11.392  14.715   5.532
42585SOL    HW129588  11.306  14.714   5.573
42585SOL    HW229589  11.373  14.707   5.438
42586SOL     OW29590   8.433   7.414  12.754
42586SOL    HW129591   8.378   7.492  12.759
42586SOL    HW229592   8.522   7.446  12.764
42587SOL     OW29593  13.474   9.511   9.496
42587SOL    HW129594  13.524   9.591   9.513
42587SOL    HW229595  13.488   9.457   9.573
42588SOL     OW29596   0.317  11.037  10.563
42588SOL    HW129597   0.358  10.952  10.581
42588SOL    HW229598   0.356  11.097  10.627
42589SOL     OW29599   0.946   6.324   2.708
42589SOL    HW129600   0.892   6.387   2.660
42589SOL    HW229601   0.993   6.376   2.772
42590SOL     OW29602   6.703   8.342   5.290
42590SOL    HW129603   6.618   8.383   5.302
42590SOL    HW229604   6.687   8.271   5.228
42591SOL     OW29605   1.477   9.370   4.175
42591SOL    HW129606   1.409   9.395   4.112
42591SOL    HW229607   1.457   9.279   4.196
42592SOL     OW29608   3.223   0.899   0.380
42592SOL    HW129609   3.178   0.964   0.326
42592SOL    HW229610   3.297   0.946   0.417
42593SOL     OW29611  14.470   1.927  10.633
42593SOL    HW129612  14.560   1.897  10.617
42593SOL    HW229613  14.474   1.969  10.718
42594SOL     OW29614  11.504   0.228   0.514
42594SOL    HW129615  11.459   0.168   0.575
42594SOL    HW229616  11.563   0.172   0.464
42595SOL     OW29617   1.238  13.187   2.823
42595SOL    HW129618   1.237  13.265   2.767
42595SOL    HW229619   1.154  13.144   2.807
42596SOL     OW29620  10.819   1.574   8.740
42596SOL    HW129621  10.726   1.590   8.726
42596SOL    HW229622  10.829   1.570   8.835
42597SOL     OW29623   9.652  13.238  11.753
42597SOL    HW129624   9.590  13.172  11.723
42597SOL    HW229625   9.629  13.317  11.705
42598SOL     OW29626   0.510   5.843  10.445
42598SOL    HW129627   0.531   5.932  10.419
42598SOL    HW229628   0.463   5.852  10.528
42599SOL     OW29629   2.379  14.244  10.922
42599SOL    HW129630   2.360  14.161  10.879
42599SOL    HW229631   2.322  14.245  10.999
42600SOL     OW29632   4.859   4.795  10.325
42600SOL    HW129633   4.934   4.851  10.344
42600SOL    HW229634   4.783   4.851  10.339
42601SOL     OW29635   8.711   5.202   4.841
42601SOL    HW129636   8.749   5.286   4.819
42601SOL    HW229637   8.618   5.221   4.858
42602SOL     OW29638   5.866  14.638   9.608
42602SOL    HW129639   5.815  14.687   9.673
42602SOL    HW229640   5.808  14.567   9.582
42603SOL     OW29641   9.637   0.773   5.441
42603SOL    HW129642   9.604   0.713   5.508
42603SOL    HW229643   9.692   0.835   5.489
42604SOL     OW29644   5.123   4.267  11.222
42604SOL    HW129645   5.189   4.336  11.215
42604SOL    HW229646   5.065   4.296  11.292
42605SOL     OW29647   4.981   5.048   1.414
42605SOL    HW129648   4.978   4.995   1.493
42605SOL    HW229649   4.954   4.988   1.344
42606SOL     OW29650  13.400  13.266  11.847
42606SOL    HW129651  13.375  13.353  11.816
42606SOL    HW229652  13.474  13.283  11.906
42607SOL     OW29653   2.964   1.404   2.670
42607SOL    HW129654   3.046   1.442   2.640
42607SOL    HW229655   2.978   1.387   2.763
42608SOL     OW29656   8.794   8.820  10.945
42608SOL    HW129657   8.748   8.900  10.920
42608SOL    HW229658   8.864   8.810  10.880
42609SOL     OW29659  11.309   4.075   7.528
42609SOL    HW129660  11.396   4.073   7.489
42609SOL    HW229661  11.325   4.076   7.623
42610SOL     OW29662   2.174   4.101  10.997
42610SOL    HW129663   2.117   4.105  11.074
42610SOL    HW229664   2.204   4.191  10.984
42611SOL     OW29665   5.632  13.899   5.854
42611SOL    HW129666   5.603  13.937   5.771
42611SOL    HW229667   5.567  13.928   5.918
42612SOL     OW29668   1.711   2.641   5.027
42612SOL    HW129669   1.736   2.692   5.105
42612SOL    HW229670   1.643   2.582   5.059
42613SOL     OW29671   0.055  12.864   9.513
42613SOL    HW129672   0.108  12.833   9.587
42613SOL    HW229673   0.048  12.788   9.455
42614SOL     OW29674   1.128   6.793   9.821
42614SOL    HW129675   1.070   6.866   9.842
42614SOL    HW229676   1.162   6.764   9.906
42615SOL     OW29677   4.256   3.248  13.446
42615SOL    HW129678   4.165   3.276  13.437
42615SOL    HW229679   4.300   3.324  13.485
42616SOL     OW29680   0.912  12.278  14.755
42616SOL    HW129681   0.846  12.217  14.721
42616SOL    HW229682   0.871  12.318  14.831
42617SOL     OW29683   3.164   0.942  11.933
42617SOL    HW129684   3.077   0.921  11.968
42617SOL    HW229685   3.224   0.928  12.007
42618SOL     OW29686   6.499   4.831  12.169
42618SOL    HW129687   6.571   4.770  12.154
42618SOL    HW229688   6.462   4.847  12.083
42619SOL     OW29689  11.046   4.378   0.147
42619SOL    HW129690  11.139   4.398   0.158
42619SOL    HW229691  11.024   4.409   0.059
42620SOL     OW29692  10.751  14.358   6.550
42620SOL    HW129693  10.712  14.279   6.513
42620SOL    HW229694  10.823  14.380   6.491
42621SOL     OW29695   2.674  14.217   1.021
42621SOL    HW129696   2.750  14.171   0.983
42621SOL    HW229697   2.613  14.226   0.948
42622SOL     OW29698   3.540   5.502  13.003
42622SOL    HW129699   3.581   5.419  13.028
42622SOL    HW229700   3.573   5.519  12.915
42623SOL     OW29701  14.302   7.497   8.884
42623SOL    HW129702  14.272   7.575   8.931
42623SOL    HW229703  14.282   7.425   8.943
42624SOL     OW29704   6.449   1.099   0.216
42624SOL    HW129705   6.482   1.013   0.242
42624SOL    HW229706   6.494   1.160   0.273
42625SOL     OW29707   0.644  10.198   3.534
42625SOL    HW129708   0.732  10.236   3.539
42625SOL    HW229709   0.586  10.274   3.523
42626SOL     OW29710   6.387   3.780  13.533
42626SOL    HW129711   6.457   3.723  13.565
42626SOL    HW229712   6.353   3.734  13.456
42627SOL     OW29713   3.998  14.335  14.669
42627SOL    HW129714   3.961  14.364  14.753
42627SOL    HW229715   4.042  14.413  14.634
42628SOL     OW29716  14.679  14.419   4.535
42628SOL    HW129717  14.771  14.446   4.525
42628SOL    HW229718  14.633  14.500   4.557
42629SOL     OW29719   0.936  11.020   0.010
42629SOL    HW129720   0.971  11.096   0.057
42629SOL    HW229721   0.999  10.950   0.028
42630SOL     OW29722  13.748   4.222   0.385
42630SOL    HW129723  13.723   4.131   0.398
42630SOL    HW229724  13.790   4.223   0.298
42631SOL     OW29725  14.838   9.297   0.029
42631SOL    HW129726  14.864   9.358  14.832
42631SOL    HW229727  14.748   9.322   0.050
42632SOL     OW29728  14.830   0.612  10.522
42632SOL    HW129729  14.783   0.650  10.448
42632SOL    HW229730   0.048   0.636  10.507
42633SOL     OW29731  13.830   4.270  10.439
42633SOL    HW129732  13.842   4.246  10.347
42633SOL    HW229733  13.737   4.294  10.446
42634SOL     OW29734   1.639   1.874   7.947
42634SOL    HW129735   1.676   1.939   8.007
42634SOL    HW229736   1.709   1.809   7.936
42635SOL     OW29737   5.539  13.155   2.780
42635SOL    HW129738   5.582  13.241   2.785
42635SOL    HW229739   5.484  13.161   2.702
42636SOL     OW29740  13.830   7.132   4.391
42636SOL    HW129741  13.793   7.146   4.478
42636SOL    HW229742  13.904   7.073   4.406
42637SOL     OW29743   4.514  10.969   2.599
42637SOL    HW129744   4.520  11.012   2.684
42637SOL    HW229745   4.549  11.032   2.537
42638SOL     OW29746   3.621   5.805  13.922
42638SOL    HW129747   3.621   5.837  13.832
42638SOL    HW229748   3.622   5.884  13.976
42639SOL     OW29749   8.757   3.006   5.369
42639SOL    HW129750   8.678   3.060   5.378
42639SOL    HW229751   8.821   3.047   5.427
42640SOL     OW29752   2.538   3.888  14.107
42640SOL    HW129753   2.595   3.947  14.058
42640SOL    HW229754   2.592   3.857  14.180
42641SOL     OW29755   3.081   3.603   5.370
42641SOL    HW129756   3.129   3.531   5.412
42641SOL    HW229757   3.010   3.622   5.431
42642SOL     OW29758  11.406   8.463   1.057
42642SOL    HW129759  11.415   8.367   1.058
42642SOL    HW229760  11.388   8.486   1.148
42643SOL     OW29761   2.594  12.249  10.490
42643SOL    HW129762   2.566  12.216  10.404
42643SOL    HW229763   2.531  12.211  10.551
42644SOL     OW29764  14.651   6.275   9.521
42644SOL    HW129765  14.602   6.335   9.465
42644SOL    HW229766  14.735   6.264   9.477
42645SOL     OW29767   4.337  14.655  13.518
42645SOL    HW129768   4.331  14.742  13.478
42645SOL    HW229769   4.327  14.595  13.445
42646SOL     OW29770   8.151   0.909   5.861
42646SOL    HW129771   8.225   0.866   5.903
42646SOL    HW229772   8.080   0.901   5.925
42647SOL     OW29773  12.281   0.020   4.836
42647SOL    HW129774  12.260   0.094   4.893
42647SOL    HW229775  12.296   0.060   4.750
42648SOL     OW29776  12.939   8.830   7.542
42648SOL    HW129777  13.006   8.826   7.609
42648SOL    HW229778  12.987   8.832   7.459
42649SOL     OW29779   9.486   8.049  12.370
42649SOL    HW129780   9.393   8.061  12.350
42649SOL    HW229781   9.528   8.041  12.284
42650SOL     OW29782   8.407   7.329   1.940
42650SOL    HW129783   8.386   7.391   2.010
42650SOL    HW229784   8.329   7.274   1.933
42651SOL     OW29785   5.959   5.703   0.189
42651SOL    HW129786   5.916   5.650   0.256
42651SOL    HW229787   5.915   5.681   0.108
42652SOL     OW29788   0.522   9.389   3.474
42652SOL    HW129789   0.558   9.311   3.432
42652SOL    HW229790   0.538   9.459   3.411
42653SOL     OW29791  14.372   3.846  13.160
42653SOL    HW129792  14.308   3.839  13.231
42653SOL    HW229793  14.457   3.830  13.202
42654SOL     OW29794   1.235   1.816   6.025
42654SOL    HW129795   1.321   1.803   5.986
42654SOL    HW229796   1.219   1.910   6.016
42655SOL     OW29797   2.008   5.334  10.534
42655SOL    HW129798   2.040   5.256  10.487
42655SOL    HW229799   2.087   5.386  10.550
42656SOL     OW29800   9.152   6.609  11.118
42656SOL    HW129801   9.096   6.569  11.184
42656SOL    HW229802   9.236   6.621  11.162
42657SOL     OW29803   3.903  12.131   2.840
42657SOL    HW129804   3.866  12.048   2.809
42657SOL    HW229805   3.880  12.194   2.772
42658SOL     OW29806  14.494   7.974  14.489
42658SOL    HW129807  14.463   8.050  14.538
42658SOL    HW229808  14.476   7.900  14.547
42659SOL     OW29809   2.321   8.387  13.722
42659SOL    HW129810   2.287   8.301  13.696
42659SOL    HW229811   2.352   8.426  13.641
42660SOL     OW29812   6.729   3.471  13.466
42660SOL    HW129813   6.664   3.424  13.516
42660SOL    HW229814   6.686   3.490  13.382
42661SOL     OW29815   8.812   8.217   9.621
42661SOL    HW129816   8.771   8.185   9.701
42661SOL    HW229817   8.881   8.153   9.603
42662SOL     OW29818  14.341  10.419   7.531
42662SOL    HW129819  14.375  10.508   7.540
42662SOL    HW229820  14.246  10.427   7.541
42663SOL     OW29821   3.083   6.028  10.267
42663SOL    HW129822   3.090   6.089  10.194
42663SOL    HW229823   2.996   6.044  10.304
42664SOL     OW29824   9.182   9.035  13.544
42664SOL    HW129825   9.121   9.023  13.471
42664SOL    HW229826   9.134   9.092  13.605
42665SOL     OW29827  13.514  11.713   7.723
42665SOL    HW129828  13.554  11.749   7.644
42665SOL    HW229829  13.422  11.702   7.700
42666SOL     OW29830  10.911   2.120   4.624
42666SOL    HW129831  10.843   2.053   4.628
42666SOL    HW229832  10.890   2.179   4.697
42667SOL     OW29833   4.681   1.872  10.617
42667SOL    HW129834   4.605   1.919  10.653
42667SOL    HW229835   4.643   1.803  10.563
42668SOL     OW29836   6.905   6.497   1.004
42668SOL    HW129837   6.835   6.549   1.043
42668SOL    HW229838   6.868   6.464   0.922
42669SOL     OW29839  11.655   7.874   2.755
42669SOL    HW129840  11.706   7.830   2.687
42669SOL    HW229841  11.683   7.965   2.752
42670SOL     OW29842   8.649   7.744  13.095
42670SOL    HW129843   8.614   7.714  13.011
42670SOL    HW229844   8.700   7.822  13.074
42671SOL     OW29845   8.807  10.619   5.224
42671SOL    HW129846   8.768  10.658   5.302
42671SOL    HW229847   8.733  10.584   5.175
42672SOL     OW29848  12.605  13.523   2.076
42672SOL    HW129849  12.694  13.490   2.090
42672SOL    HW229850  12.555  13.445   2.051
42673SOL     OW29851  11.115  14.638   4.427
42673SOL    HW129852  11.104  14.583   4.505
42673SOL    HW229853  11.200  14.612   4.391
42674SOL     OW29854   3.375   5.101   1.268
42674SOL    HW129855   3.459   5.121   1.308
42674SOL    HW229856   3.317   5.081   1.342
42675SOL     OW29857   6.095   3.696  10.768
42675SOL    HW129858   6.138   3.765  10.718
42675SOL    HW229859   6.018   3.739  10.806
42676SOL     OW29860   0.905  10.295   2.265
42676SOL    HW129861   0.978  10.235   2.281
42676SOL    HW229862   0.902  10.350   2.344
42677SOL     OW29863   5.075   8.869  13.845
42677SOL    HW129864   5.156   8.862  13.896
42677SOL    HW229865   5.005   8.850  13.907
42678SOL     OW29866   2.407   9.484  14.848
42678SOL    HW129867   2.434   9.490   0.067
42678SOL    HW229868   2.324   9.531  14.844
42679SOL     OW29869   8.299  14.859  12.365
42679SOL    HW129870   8.329   0.077  12.368
42679SOL    HW229871   8.226  14.856  12.428
42680SOL     OW29872  14.458   9.607  11.949
42680SOL    HW129873  14.415   9.653  11.877
42680SOL    HW229874  14.425   9.517  11.943
42681SOL     OW29875   4.579  14.605   5.459
42681SOL    HW129876   4.665  14.562   5.460
42681SOL    HW229877   4.529  14.560   5.528
42682SOL     OW29878   1.541   7.770   3.367
42682SOL    HW129879   1.466   7.731   3.321
42682SOL    HW229880   1.573   7.838   3.307
42683SOL     OW29881   5.374   9.585   3.921
42683SOL    HW129882   5.466   9.563   3.914
42683SOL    HW229883   5.327   9.506   3.894
42684SOL     OW29884   9.981   0.954   2.854
42684SOL    HW129885  10.025   0.869   2.854
42684SOL    HW229886  10.043   1.014   2.896
42685SOL     OW29887   8.249  11.721   5.290
42685SOL    HW129888   8.184  11.657   5.261
42685SOL    HW229889   8.207  11.806   5.275
42686SOL     OW29890   0.999  12.788  14.217
42686SOL    HW129891   1.062  12.824  14.280
42686SOL    HW229892   1.021  12.695  14.213
42687SOL     OW29893  14.056  10.497   2.519
42687SOL    HW129894  14.121  10.475   2.452
42687SOL    HW229895  14.062  10.592   2.527
42688SOL     OW29896   8.977  10.125  11.325
42688SOL    HW129897   8.948  10.205  11.282
42688SOL    HW229898   9.037  10.085  11.263
42689SOL     OW29899   7.009   8.618   6.950
42689SOL    HW129900   6.923   8.608   6.908
42689SOL    HW229901   7.049   8.692   6.904
42690SOL     OW29902  11.483   7.488   6.939
42690SOL    HW129903  11.529   7.522   6.863
42690SOL    HW229904  11.395   7.526   6.932
42691SOL     OW29905   3.419   3.099   8.487
42691SOL    HW129906   3.514   3.115   8.494
42691SOL    HW229907   3.388   3.164   8.424
42692SOL     OW29908   7.982  11.537   9.254
42692SOL    HW129909   7.968  11.443   9.244
42692SOL    HW229910   7.896  11.571   9.279
42693SOL     OW29911   7.914   9.135   3.437
42693SOL    HW129912   7.950   9.069   3.377
42693SOL    HW229913   7.990   9.180   3.473
42694SOL     OW29914   0.626   5.880   2.491
42694SOL    HW129915   0.683   5.839   2.555
42694SOL    HW229916   0.637   5.828   2.411
42695SOL     OW29917   1.929  12.746  14.079
42695SOL    HW129918   1.906  12.776  14.167
42695SOL    HW229919   2.018  12.711  14.088
42696SOL     OW29920   9.488   0.082   1.063
42696SOL    HW129921   9.524   0.149   1.120
42696SOL    HW229922   9.484   0.003   1.117
42697SOL     OW29923   9.452  12.859   0.515
42697SOL    HW129924   9.460  12.818   0.429
42697SOL    HW229925   9.522  12.820   0.566
42698SOL     OW29926   8.001  12.757   7.804
42698SOL    HW129927   8.043  12.716   7.879
42698SOL    HW229928   7.974  12.843   7.835
42699SOL     OW29929   3.733   2.815   7.077
42699SOL    HW129930   3.775   2.751   7.134
42699SOL    HW229931   3.803   2.845   7.018
42700SOL     OW29932  11.094   2.865  10.449
42700SOL    HW129933  11.011   2.878  10.402
42700SOL    HW229934  11.088   2.777  10.484
42701SOL     OW29935  10.037   9.422  11.821
42701SOL    HW129936   9.969   9.367  11.781
42701SOL    HW229937   9.990   9.501  11.849
42702SOL     OW29938   5.559   4.565  10.367
42702SOL    HW129939   5.580   4.474  10.388
42702SOL    HW229940   5.514   4.560  10.283
42703SOL     OW29941  14.114   9.695  10.510
42703SOL    HW129942  14.127   9.767  10.571
42703SOL    HW229943  14.164   9.721  10.432
42704SOL     OW29944  10.286   5.418  13.469
42704SOL    HW129945  10.218   5.481  13.494
42704SOL    HW229946  10.242   5.359  13.407
42705SOL     OW29947   5.605   5.309   6.258
42705SOL    HW129948   5.565   5.241   6.204
42705SOL    HW229949   5.696   5.314   6.227
42706SOL     OW29950   7.207  12.459   8.930
42706SOL    HW129951   7.249  12.462   8.844
42706SOL    HW229952   7.257  12.394   8.979
42707SOL     OW29953  11.123  14.565   6.218
42707SOL    HW129954  11.050  14.626   6.233
42707SOL    HW229955  11.201  14.621   6.218
42708SOL     OW29956   2.464   5.979  11.384
42708SOL    HW129957   2.482   6.051  11.323
42708SOL    HW229958   2.551   5.947  11.409
42709SOL     OW29959  12.321  10.613   8.388
42709SOL    HW129960  12.399  10.579   8.431
42709SOL    HW229961  12.349  10.635   8.300
42710SOL     OW29962   9.440   5.127   7.658
42710SOL    HW129963   9.398   5.150   7.741
42710SOL    HW229964   9.369   5.090   7.605
42711SOL     OW29965   5.514   9.193  13.505
42711SOL    HW129966   5.466   9.117  13.472
42711SOL    HW229967   5.450   9.264  13.504
42712SOL     OW29968   6.034   2.701   1.860
42712SOL    HW129969   6.019   2.740   1.774
42712SOL    HW229970   6.016   2.608   1.847
42713SOL     OW29971  12.702   6.430   0.900
42713SOL    HW129972  12.690   6.463   0.811
42713SOL    HW229973  12.739   6.505   0.948
42714SOL     OW29974   1.193  10.541  11.221
42714SOL    HW129975   1.121  10.557  11.160
42714SOL    HW229976   1.200  10.622  11.271
42715SOL     OW29977   8.588   6.697   3.734
42715SOL    HW129978   8.588   6.629   3.802
42715SOL    HW229979   8.659   6.756   3.760
42716SOL     OW29980   7.846   2.157   0.281
42716SOL    HW129981   7.879   2.076   0.240
42716SOL    HW229982   7.773   2.184   0.226
42717SOL     OW29983  12.141  12.751   8.114
42717SOL    HW129984  12.171  12.842   8.112
42717SOL    HW229985  12.220  12.699   8.129
42718SOL     OW29986  13.997   9.396   2.842
42718SOL    HW129987  14.053   9.377   2.917
42718SOL    HW229988  13.996   9.315   2.791
42719SOL     OW29989   7.691  10.620   1.097
42719SOL    HW129990   7.613  10.672   1.076
42719SOL    HW229991   7.764  10.680   1.086
42720SOL     OW29992   3.962  10.724   1.853
42720SOL    HW129993   3.964  10.812   1.892
42720SOL    HW229994   3.869  10.709   1.834
42721SOL     OW29995   6.529   4.600  10.084
42721SOL    HW129996   6.451   4.547  10.067
42721SOL    HW229997   6.538   4.600  10.179
42722SOL     OW29998   5.462   0.255   7.223
42722SOL    HW129999   5.491   0.334   7.268
42722SOL    HW230000   5.366   0.258   7.229
42723SOL     OW30001   1.654   7.746   0.025
42723SOL    HW130002   1.746   7.720   0.025
42723SOL    HW230003   1.624   7.729   0.114
42724SOL     OW30004   1.856   4.637   0.575
42724SOL    HW130005   1.914   4.710   0.598
42724SOL    HW230006   1.861   4.631   0.480
42725SOL     OW30007   1.560  12.534   1.608
42725SOL    HW130008   1.630  12.479   1.643
42725SOL    HW230009   1.583  12.622   1.636
42726SOL     OW30010   2.927   6.424   5.847
42726SOL    HW130011   2.834   6.442   5.837
42726SOL    HW230012   2.943   6.431   5.941
42727SOL     OW30013   9.378   5.052   7.001
42727SOL    HW130014   9.324   5.099   7.064
42727SOL    HW230015   9.424   5.121   6.953
42728SOL     OW30016  11.717   3.620   4.144
42728SOL    HW130017  11.675   3.706   4.134
42728SOL    HW230018  11.659   3.560   4.097
42729SOL     OW30019   6.737  14.839  12.519
42729SOL    HW130020   6.811  14.844  12.579
42729SOL    HW230021   6.755  14.762  12.466
42730SOL     OW30022  10.983   7.262  13.860
42730SOL    HW130023  11.041   7.197  13.821
42730SOL    HW230024  10.895   7.235  13.832
42731SOL     OW30025   5.470   7.205   0.235
42731SOL    HW130026   5.460   7.272   0.302
42731SOL    HW230027   5.387   7.205   0.188
42732SOL     OW30028  13.720   8.751   5.250
42732SOL    HW130029  13.749   8.750   5.158
42732SOL    HW230030  13.708   8.659   5.272
42733SOL     OW30031  12.575   9.408  10.380
42733SOL    HW130032  12.599   9.467  10.309
42733SOL    HW230033  12.655   9.395  10.430
42734SOL     OW30034   6.387   9.307   0.357
42734SOL    HW130035   6.326   9.332   0.287
42734SOL    HW230036   6.470   9.347   0.332
42735SOL     OW30037   0.016   4.615  11.701
42735SOL    HW130038  14.799   4.637  11.724
42735SOL    HW230039   0.057   4.592  11.784
42736SOL     OW30040  11.727   6.781   9.922
42736SOL    HW130041  11.632   6.780   9.926
42736SOL    HW230042  11.749   6.868   9.887
42737SOL     OW30043   3.060  10.833   6.090
42737SOL    HW130044   3.008  10.811   6.168
42737SOL    HW230045   3.051  10.928   6.081
42738SOL     OW30046  10.472  14.482  14.187
42738SOL    HW130047  10.424  14.506  14.267
42738SOL    HW230048  10.560  14.461  14.218
42739SOL     OW30049  10.329   4.047   0.138
42739SOL    HW130050  10.388   4.121   0.150
42739SOL    HW230051  10.245   4.077   0.174
42740SOL     OW30052   7.256   8.118  14.069
42740SOL    HW130053   7.296   8.161  14.144
42740SOL    HW230054   7.300   8.154  13.993
42741SOL     OW30055  12.799   3.846   5.574
42741SOL    HW130056  12.708   3.844   5.602
42741SOL    HW230057  12.807   3.777   5.509
42742SOL     OW30058  13.168   8.690  12.059
42742SOL    HW130059  13.102   8.659  11.997
42742SOL    HW230060  13.231   8.737  12.004
42743SOL     OW30061  11.877   3.394   6.519
42743SOL    HW130062  11.830   3.412   6.438
42743SOL    HW230063  11.844   3.309   6.548
42744SOL     OW30064   3.694   4.887  11.209
42744SOL    HW130065   3.644   4.967  11.192
42744SOL    HW230066   3.701   4.844  11.123
42745SOL     OW30067   2.161  14.741  12.250
42745SOL    HW130068   2.210  14.770  12.326
42745SOL    HW230069   2.205  14.781  12.176
42746SOL     OW30070   7.831   3.006   6.332
42746SOL    HW130071   7.848   3.085   6.382
42746SOL    HW230072   7.771   3.034   6.262
42747SOL     OW30073   7.638  13.677  13.375
42747SOL    HW130074   7.568  13.636  13.427
42747SOL    HW230075   7.703  13.608  13.365
42748SOL     OW30076  11.251   1.868  11.772
42748SOL    HW130077  11.306   1.841  11.698
42748SOL    HW230078  11.184   1.923  11.734
42749SOL     OW30079   4.355   5.488   6.429
42749SOL    HW130080   4.270   5.505   6.388
42749SOL    HW230081   4.413   5.467   6.356
42750SOL     OW30082  11.375   4.246  14.828
42750SOL    HW130083  11.359   4.313   0.021
42750SOL    HW230084  11.384   4.294  14.746
42751SOL     OW30085   6.050  11.841  14.221
42751SOL    HW130086   5.998  11.897  14.163
42751SOL    HW230087   6.049  11.886  14.305
42752SOL     OW30088   8.426  13.741   4.547
42752SOL    HW130089   8.449  13.668   4.490
42752SOL    HW230090   8.388  13.699   4.624
42753SOL     OW30091   6.904   6.913   4.013
42753SOL    HW130092   6.966   6.933   4.083
42753SOL    HW230093   6.951   6.933   3.932
42754SOL     OW30094  13.649  11.825   3.311
42754SOL    HW130095  13.593  11.855   3.383
42754SOL    HW230096  13.699  11.753   3.348
42755SOL     OW30097   8.882   0.066  13.389
42755SOL    HW130098   8.789   0.081  13.371
42755SOL    HW230099   8.926   0.098  13.310
42756SOL     OW30100   1.470   6.775   8.595
42756SOL    HW130101   1.550   6.723   8.600
42756SOL    HW230102   1.500   6.865   8.585
42757SOL     OW30103   5.656  14.223  14.355
42757SOL    HW130104   5.675  14.316  14.344
42757SOL    HW230105   5.572  14.221  14.401
42758SOL     OW30106   4.206  14.241   2.625
42758SOL    HW130107   4.167  14.154   2.616
42758SOL    HW230108   4.152  14.286   2.690
42759SOL     OW30109   5.448   6.534   8.675
42759SOL    HW130110   5.383   6.499   8.614
42759SOL    HW230111   5.409   6.615   8.708
42760SOL     OW30112   0.386  11.587  13.592
42760SOL    HW130113   0.325  11.516  13.571
42760SOL    HW230114   0.424  11.562  13.676
42761SOL     OW30115  10.658   4.624   3.391
42761SOL    HW130116  10.735   4.589   3.346
42761SOL    HW230117  10.658   4.581   3.476
42762SOL     OW30118   2.415  10.607  13.190
42762SOL    HW130119   2.500  10.573  13.220
42762SOL    HW230120   2.375  10.534  13.144
42763SOL     OW30121  11.376  11.093   0.811
42763SOL    HW130122  11.346  11.177   0.776
42763SOL    HW230123  11.453  11.072   0.758
42764SOL     OW30124   6.201   7.203  13.596
42764SOL    HW130125   6.266   7.258  13.552
42764SOL    HW230126   6.236   7.115  13.589
42765SOL     OW30127  12.086   9.746  13.084
42765SOL    HW130128  12.150   9.713  13.148
42765SOL    HW230129  12.135   9.807  13.030
42766SOL     OW30130   1.971   2.901  11.253
42766SOL    HW130131   1.889   2.894  11.302
42766SOL    HW230132   2.021   2.967  11.299
42767SOL     OW30133   9.921  10.926  13.787
42767SOL    HW130134   9.988  10.920  13.855
42767SOL    HW230135   9.924  10.841  13.743
42768SOL     OW30136   0.584   4.305   9.140
42768SOL    HW130137   0.632   4.300   9.223
42768SOL    HW230138   0.492   4.314   9.167
42769SOL     OW30139   2.972  11.164   1.383
42769SOL    HW130140   2.915  11.166   1.307
42769SOL    HW230141   3.033  11.093   1.366
42770SOL     OW30142  12.419   4.954  10.106
42770SOL    HW130143  12.451   5.006  10.180
42770SOL    HW230144  12.425   5.013  10.031
42771SOL     OW30145  13.118   0.628   0.632
42771SOL    HW130146  13.075   0.685   0.568
42771SOL    HW230147  13.053   0.616   0.701
42772SOL     OW30148   2.174   7.347   1.735
42772SOL    HW130149   2.250   7.332   1.679
42772SOL    HW230150   2.158   7.263   1.777
42773SOL     OW30151   0.553   5.594   0.557
42773SOL    HW130152   0.562   5.634   0.470
42773SOL    HW230153   0.525   5.666   0.614
42774SOL     OW30154   5.897   3.720   6.905
42774SOL    HW130155   5.971   3.761   6.950
42774SOL    HW230156   5.830   3.787   6.904
42775SOL     OW30157  14.325   2.962  14.734
42775SOL    HW130158  14.230   2.962  14.749
42775SOL    HW230159  14.334   2.938  14.642
42776SOL     OW30160   0.830   7.158   5.868
42776SOL    HW130161   0.803   7.115   5.949
42776SOL    HW230162   0.918   7.190   5.886
42777SOL     OW30163  10.865   9.489   9.907
42777SOL    HW130164  10.819   9.559   9.954
42777SOL    HW230165  10.820   9.409   9.935
42778SOL     OW30166  10.423  10.929  14.447
42778SOL    HW130167  10.352  10.945  14.385
42778SOL    HW230168  10.379  10.889  14.523
42779SOL     OW30169   6.020   8.169   2.100
42779SOL    HW130170   6.039   8.172   2.006
42779SOL    HW230171   6.023   8.075   2.122
42780SOL     OW30172   6.094  13.245  12.210
42780SOL    HW130173   6.177  13.291  12.204
42780SOL    HW230174   6.029  13.314  12.225
42781SOL     OW30175   2.721   5.163  11.660
42781SOL    HW130176   2.630   5.193  11.667
42781SOL    HW230177   2.716   5.084  11.606
42782SOL     OW30178  14.791  13.252   7.039
42782SOL    HW130179  14.832  13.231   7.122
42782SOL    HW230180  14.863  13.257   6.976
42783SOL     OW30181  13.881   4.314   2.209
42783SOL    HW130182  13.796   4.344   2.175
42783SOL    HW230183  13.942   4.383   2.185
42784SOL     OW30184   4.503   1.090   5.938
42784SOL    HW130185   4.569   1.030   5.972
42784SOL    HW230186   4.463   1.044   5.864
42785SOL     OW30187  11.059   2.913   3.433
42785SOL    HW130188  11.120   2.839   3.441
42785SOL    HW230189  11.047   2.924   3.339
42786SOL     OW30190  14.277  14.644  10.060
42786SOL    HW130191  14.239  14.723  10.097
42786SOL    HW230192  14.214  14.575  10.082
42787SOL     OW30193  13.302  12.958   0.544
42787SOL    HW130194  13.341  13.041   0.519
42787SOL    HW230195  13.356  12.926   0.617
42788SOL     OW30196   4.306   2.177   2.902
42788SOL    HW130197   4.292   2.122   2.825
42788SOL    HW230198   4.221   2.178   2.946
42789SOL     OW30199   9.701  10.402  13.807
42789SOL    HW130200   9.796  10.398  13.795
42789SOL    HW230201   9.689  10.402  13.902
42790SOL     OW30202   7.950  10.955   2.412
42790SOL    HW130203   7.995  10.947   2.496
42790SOL    HW230204   7.982  10.880   2.361
42791SOL     OW30205   1.391  10.903  12.762
42791SOL    HW130206   1.400  10.808  12.773
42791SOL    HW230207   1.341  10.932  12.839
42792SOL     OW30208   9.201   4.737   0.048
42792SOL    HW130209   9.296   4.733   0.044
42792SOL    HW230210   9.182   4.813   0.103
42793SOL     OW30211  13.731  14.261   3.370
42793SOL    HW130212  13.649  14.291   3.411
42793SOL    HW230213  13.703  14.223   3.287
42794SOL     OW30214   4.119   0.566   1.262
42794SOL    HW130215   4.091   0.491   1.313
42794SOL    HW230216   4.102   0.541   1.171
42795SOL     OW30217  10.563   8.113   2.140
42795SOL    HW130218  10.517   8.045   2.188
42795SOL    HW230219  10.535   8.102   2.049
42796SOL     OW30220  13.826   5.667  13.329
42796SOL    HW130221  13.909   5.692  13.368
42796SOL    HW230222  13.764   5.664  13.402
42797SOL     OW30223   2.367   0.957   1.271
42797SOL    HW130224   2.342   0.939   1.362
42797SOL    HW230225   2.420   1.036   1.276
42798SOL     OW30226   2.118   2.552  14.345
42798SOL    HW130227   2.104   2.639  14.382
42798SOL    HW230228   2.205   2.526  14.377
42799SOL     OW30229  11.689   8.733   6.652
42799SOL    HW130230  11.734   8.688   6.580
42799SOL    HW230231  11.690   8.825   6.626
42800SOL     OW30232  12.307  10.234  14.341
42800SOL    HW130233  12.324  10.327  14.349
42800SOL    HW230234  12.284  10.221  14.249
42801SOL     OW30235   4.606  11.351  12.968
42801SOL    HW130236   4.574  11.346  12.878
42801SOL    HW230237   4.529  11.337  13.022
42802SOL     OW30238   6.533  10.830   7.053
42802SOL    HW130239   6.463  10.798   6.995
42802SOL    HW230240   6.487  10.862   7.130
42803SOL     OW30241  11.956   3.149   8.141
42803SOL    HW130242  11.878   3.130   8.089
42803SOL    HW230243  12.026   3.156   8.076
42804SOL     OW30244  13.297  12.621   8.664
42804SOL    HW130245  13.243  12.553   8.625
42804SOL    HW230246  13.245  12.654   8.737
42805SOL     OW30247   5.623   2.359   0.715
42805SOL    HW130248   5.558   2.325   0.654
42805SOL    HW230249   5.600   2.451   0.727
42806SOL     OW30250  12.273   2.896   7.861
42806SOL    HW130251  12.186   2.864   7.885
42806SOL    HW230252  12.290   2.966   7.924
42807SOL     OW30253  13.435   5.825   1.891
42807SOL    HW130254  13.363   5.887   1.886
42807SOL    HW230255  13.505   5.873   1.936
42808SOL     OW30256   1.599   8.593   2.095
42808SOL    HW130257   1.522   8.634   2.055
42808SOL    HW230258   1.650   8.667   2.129
42809SOL     OW30259   9.386   1.391   7.531
42809SOL    HW130260   9.446   1.320   7.556
42809SOL    HW230261   9.442   1.454   7.485
42810SOL     OW30262   8.402   9.128  14.765
42810SOL    HW130263   8.382   9.161  14.852
42810SOL    HW230264   8.494   9.101  14.769
42811SOL     OW30265  14.660   6.205  11.174
42811SOL    HW130266  14.711   6.284  11.190
42811SOL    HW230267  14.691   6.173  11.089
42812SOL     OW30268   8.335  11.812   3.834
42812SOL    HW130269   8.330  11.903   3.865
42812SOL    HW230270   8.257  11.770   3.871
42813SOL     OW30271  12.525   3.278   9.289
42813SOL    HW130272  12.448   3.321   9.252
42813SOL    HW230273  12.515   3.186   9.268
42814SOL     OW30274  12.515   7.895   8.786
42814SOL    HW130275  12.482   7.811   8.819
42814SOL    HW230276  12.477   7.960   8.845
42815SOL     OW30277   3.911   5.863   3.371
42815SOL    HW130278   3.869   5.797   3.316
42815SOL    HW230279   3.863   5.858   3.454
42816SOL     OW30280   8.793  11.398   5.926
42816SOL    HW130281   8.790  11.308   5.894
42816SOL    HW230282   8.885  11.414   5.943
42817SOL     OW30283   8.196   2.193  14.223
42817SOL    HW130284   8.280   2.210  14.181
42817SOL    HW230285   8.164   2.280  14.249
42818SOL     OW30286  14.773   1.276  11.607
42818SOL    HW130287  14.711   1.345  11.586
42818SOL    HW230288  14.759   1.258  11.700
42819SOL     OW30289   6.754   8.803   1.871
42819SOL    HW130290   6.802   8.829   1.792
42819SOL    HW230291   6.799   8.848   1.943
42820SOL     OW30292   6.944  11.847   9.963
42820SOL    HW130293   6.923  11.807   9.878
42820SOL    HW230294   6.865  11.896   9.986
42821SOL     OW30295   4.243  13.964   8.360
42821SOL    HW130296   4.233  14.035   8.424
42821SOL    HW230297   4.171  13.904   8.378
42822SOL     OW30298   6.790   9.100   0.048
42822SOL    HW130299   6.811   9.108   0.141
42822SOL    HW230300   6.799   9.189   0.013
42823SOL     OW30301   8.967   9.454  13.630
42823SOL    HW130302   8.984   9.368  13.668
42823SOL    HW230303   8.990   9.445  13.538
42824SOL     OW30304  12.669   3.955   2.143
42824SOL    HW130305  12.688   4.030   2.199
42824SOL    HW230306  12.576   3.938   2.155
42825SOL     OW30307  14.035   8.742   1.945
42825SOL    HW130308  14.038   8.783   1.859
42825SOL    HW230309  13.948   8.762   1.979
42826SOL     OW30310   1.805   4.334   9.288
42826SOL    HW130311   1.874   4.273   9.262
42826SOL    HW230312   1.776   4.303   9.373
42827SOL     OW30313   2.287   8.356  14.141
42827SOL    HW130314   2.325   8.296  14.077
42827SOL    HW230315   2.280   8.440  14.095
42828SOL     OW30316  13.768   6.127   4.425
42828SOL    HW130317  13.734   6.044   4.459
42828SOL    HW230318  13.863   6.118   4.430
42829SOL     OW30319   2.997  14.679  11.914
42829SOL    HW130320   2.943  14.602  11.896
42829SOL    HW230321   3.046  14.656  11.993
42830SOL     OW30322  13.131   0.984   7.527
42830SOL    HW130323  13.161   0.922   7.461
42830SOL    HW230324  13.051   0.946   7.562
42831SOL     OW30325  14.571   2.432   7.141
42831SOL    HW130326  14.522   2.355   7.114
42831SOL    HW230327  14.663   2.407   7.133
42832SOL     OW30328   3.426   7.760   7.240
42832SOL    HW130329   3.403   7.842   7.195
42832SOL    HW230330   3.342   7.714   7.248
42833SOL     OW30331  10.280   3.265   5.744
42833SOL    HW130332  10.335   3.317   5.686
42833SOL    HW230333  10.209   3.232   5.688
42834SOL     OW30334   8.920   8.947   8.855
42834SOL    HW130335   8.954   8.861   8.876
42834SOL    HW230336   8.951   9.004   8.926
42835SOL     OW30337   2.510  11.426  13.480
42835SOL    HW130338   2.450  11.455  13.548
42835SOL    HW230339   2.494  11.486  13.407
42836SOL     OW30340   8.561   8.386   2.757
42836SOL    HW130341   8.564   8.461   2.697
42836SOL    HW230342   8.635   8.331   2.731
42837SOL     OW30343   5.684   5.476   6.562
42837SOL    HW130344   5.711   5.528   6.637
42837SOL    HW230345   5.744   5.501   6.492
42838SOL     OW30346   1.873   4.199   1.760
42838SOL    HW130347   1.888   4.226   1.850
42838SOL    HW230348   1.780   4.178   1.756
42839SOL     OW30349   9.685   9.365   5.181
42839SOL    HW130350   9.633   9.403   5.252
42839SOL    HW230351   9.621   9.334   5.117
42840SOL     OW30352   4.205   3.625   4.255
42840SOL    HW130353   4.287   3.576   4.257
42840SOL    HW230354   4.162   3.604   4.338
42841SOL     OW30355   8.843   9.461   5.221
42841SOL    HW130356   8.755   9.495   5.237
42841SOL    HW230357   8.901   9.536   5.238
42842SOL     OW30358   9.023   1.785  14.741
42842SOL    HW130359   9.077   1.795  14.663
42842SOL    HW230360   8.993   1.874  14.761
42843SOL     OW30361   1.768   7.001   6.393
42843SOL    HW130362   1.769   7.085   6.440
42843SOL    HW230363   1.844   7.007   6.334
42844SOL     OW30364  12.899  12.879   5.924
42844SOL    HW130365  12.965  12.922   5.978
42844SOL    HW230366  12.928  12.788   5.918
42845SOL     OW30367   6.761   0.866   1.160
42845SOL    HW130368   6.810   0.848   1.079
42845SOL    HW230369   6.764   0.961   1.169
42846SOL     OW30370   5.284   7.871  10.115
42846SOL    HW130371   5.337   7.907  10.043
42846SOL    HW230372   5.339   7.883  10.193
42847SOL     OW30373   9.455   5.760  14.072
42847SOL    HW130374   9.361   5.767  14.057
42847SOL    HW230375   9.465   5.757  14.167
42848SOL     OW30376  14.505   2.011   3.555
42848SOL    HW130377  14.521   1.930   3.604
42848SOL    HW230378  14.538   1.993   3.467
42849SOL     OW30379   9.591   7.653  13.397
42849SOL    HW130380   9.665   7.641  13.338
42849SOL    HW230381   9.526   7.700  13.344
42850SOL     OW30382   5.154   8.327   2.543
42850SOL    HW130383   5.138   8.272   2.619
42850SOL    HW230384   5.138   8.270   2.468
42851SOL     OW30385   5.848  13.109  10.222
42851SOL    HW130386   5.900  13.190  10.224
42851SOL    HW230387   5.873  13.067  10.139
42852SOL     OW30388   0.320   5.063   2.794
42852SOL    HW130389   0.407   5.031   2.817
42852SOL    HW230390   0.266   5.043   2.870
42853SOL     OW30391   7.960  11.614   2.795
42853SOL    HW130392   8.026  11.628   2.862
42853SOL    HW230393   7.877  11.638   2.837
42854SOL     OW30394  10.855  12.947   0.960
42854SOL    HW130395  10.834  12.895   0.882
42854SOL    HW230396  10.774  12.994   0.981
42855SOL     OW30397  11.891   7.436   3.565
42855SOL    HW130398  11.979   7.469   3.576
42855SOL    HW230399  11.835   7.497   3.613
42856SOL     OW30400   2.547  14.575   5.213
42856SOL    HW130401   2.589  14.539   5.134
42856SOL    HW230402   2.536  14.499   5.270
42857SOL     OW30403  13.792  12.070   5.286
42857SOL    HW130404  13.831  12.064   5.199
42857SOL    HW230405  13.763  11.981   5.306
42858SOL     OW30406  12.126   7.997   1.893
42858SOL    HW130407  12.037   8.028   1.910
42858SOL    HW230408  12.127   7.976   1.800
42859SOL     OW30409   4.200   7.602   4.333
42859SOL    HW130410   4.262   7.643   4.273
42859SOL    HW230411   4.253   7.571   4.406
42860SOL     OW30412   7.107  13.984   4.426
42860SOL    HW130413   7.182  14.030   4.463
42860SOL    HW230414   7.141  13.940   4.348
42861SOL     OW30415  14.695   1.589   0.641
42861SOL    HW130416  14.697   1.570   0.735
42861SOL    HW230417  14.684   1.504   0.599
42862SOL     OW30418   3.511  14.249   9.205
42862SOL    HW130419   3.510  14.161   9.241
42862SOL    HW230420   3.423  14.261   9.170
42863SOL     OW30421  10.261   1.782  11.438
42863SOL    HW130422  10.308   1.804  11.519
42863SOL    HW230423  10.329   1.750  11.379
42864SOL     OW30424   7.156   5.007  11.904
42864SOL    HW130425   7.078   5.059  11.881
42864SOL    HW230426   7.223   5.038  11.843
42865SOL     OW30427   7.032   6.832   6.718
42865SOL    HW130428   7.018   6.775   6.794
42865SOL    HW230429   6.959   6.812   6.659
42866SOL     OW30430  13.599   5.609   6.361
42866SOL    HW130431  13.554   5.693   6.349
42866SOL    HW230432  13.530   5.543   6.351
42867SOL     OW30433  13.847   6.305   0.050
42867SOL    HW130434  13.876   6.252   0.124
42867SOL    HW230435  13.905   6.281  14.851
42868SOL     OW30436   1.720   7.956  14.603
42868SOL    HW130437   1.785   7.886  14.604
42868SOL    HW230438   1.772   8.036  14.595
42869SOL     OW30439   5.519   3.050  13.407
42869SOL    HW130440   5.434   3.091  13.422
42869SOL    HW230441   5.582   3.118  13.426
42870SOL     OW30442   9.100  11.728   6.010
42870SOL    HW130443   9.160  11.791   5.969
42870SOL    HW230444   9.148  11.696   6.087
42871SOL     OW30445  12.096  12.638   1.137
42871SOL    HW130446  12.009  12.634   1.175
42871SOL    HW230447  12.155  12.635   1.212
42872SOL     OW30448  11.665   6.453   8.205
42872SOL    HW130449  11.650   6.362   8.233
42872SOL    HW230450  11.757   6.454   8.178
42873SOL     OW30451   3.892   9.938   8.406
42873SOL    HW130452   3.846   9.859   8.375
42873SOL    HW230453   3.863   9.949   8.496
42874SOL     OW30454  10.327   3.147   0.509
42874SOL    HW130455  10.350   3.197   0.430
42874SOL    HW230456  10.284   3.211   0.566
42875SOL     OW30457   4.586   1.001   3.223
42875SOL    HW130458   4.618   1.089   3.205
42875SOL    HW230459   4.628   0.947   3.156
42876SOL     OW30460   9.798   8.067   8.580
42876SOL    HW130461   9.728   8.024   8.629
42876SOL    HW230462   9.867   8.080   8.645
42877SOL     OW30463   5.390   0.378   4.735
42877SOL    HW130464   5.485   0.393   4.742
42877SOL    HW230465   5.361   0.439   4.666
42878SOL     OW30466   7.990   2.134  13.764
42878SOL    HW130467   7.970   2.041  13.763
42878SOL    HW230468   7.907   2.177  13.743
42879SOL     OW30469   4.658  14.619   1.101
42879SOL    HW130470   4.673  14.704   1.058
42879SOL    HW230471   4.565  14.603   1.089
42880SOL     OW30472   2.783   4.218  13.033
42880SOL    HW130473   2.742   4.254  12.954
42880SOL    HW230474   2.814   4.295  13.081
42881SOL     OW30475  10.983  11.739   5.071
42881SOL    HW130476  10.949  11.792   5.143
42881SOL    HW230477  10.932  11.767   4.995
42882SOL     OW30478   5.010   1.300   7.854
42882SOL    HW130479   5.020   1.210   7.887
42882SOL    HW230480   4.929   1.297   7.802
42883SOL     OW30481   8.748   2.614   4.062
42883SOL    HW130482   8.788   2.699   4.044
42883SOL    HW230483   8.777   2.558   3.990
42884SOL     OW30484   6.556   3.683  10.545
42884SOL    HW130485   6.532   3.753  10.605
42884SOL    HW230486   6.501   3.609  10.572
42885SOL     OW30487   6.080   8.230  12.542
42885SOL    HW130488   6.114   8.303  12.595
42885SOL    HW230489   6.072   8.266  12.454
42886SOL     OW30490  11.447   8.618  11.457
42886SOL    HW130491  11.520   8.565  11.487
42886SOL    HW230492  11.408   8.653  11.537
42887SOL     OW30493   7.248  10.768  11.119
42887SOL    HW130494   7.306  10.820  11.063
42887SOL    HW230495   7.307  10.723  11.179
42888SOL     OW30496   2.083   0.598   3.760
42888SOL    HW130497   2.066   0.628   3.849
42888SOL    HW230498   2.169   0.556   3.765
42889SOL     OW30499   5.790   9.416   7.920
42889SOL    HW130500   5.850   9.346   7.895
42889SOL    HW230501   5.785   9.472   7.843
42890SOL     OW30502   0.212   5.104  12.045
42890SOL    HW130503   0.202   5.192  12.009
42890SOL    HW230504   0.293   5.108  12.096
42891SOL     OW30505  12.086  10.036   9.256
42891SOL    HW130506  12.021  10.041   9.326
42891SOL    HW230507  12.171  10.036   9.302
42892SOL     OW30508  11.199   3.744   3.755
42892SOL    HW130509  11.123   3.794   3.727
42892SOL    HW230510  11.195   3.747   3.851
42893SOL     OW30511  14.665   9.568   4.049
42893SOL    HW130512  14.715   9.650   4.056
42893SOL    HW230513  14.732   9.500   4.040
42894SOL     OW30514   6.562   7.072   9.646
42894SOL    HW130515   6.515   7.099   9.724
42894SOL    HW230516   6.501   7.015   9.599
42895SOL     OW30517   8.014  13.392   8.101
42895SOL    HW130518   8.108  13.402   8.089
42895SOL    HW230519   7.978  13.478   8.080
42896SOL     OW30520   9.157  14.278  11.406
42896SOL    HW130521   9.192  14.307  11.322
42896SOL    HW230522   9.169  14.183  11.406
42897SOL     OW30523   2.090   9.924  10.783
42897SOL    HW130524   2.161   9.949  10.725
42897SOL    HW230525   2.084   9.829  10.774
42898SOL     OW30526   3.451  14.644  10.336
42898SOL    HW130527   3.464  14.702  10.262
42898SOL    HW230528   3.365  14.666  10.370
42899SOL     OW30529   4.761   0.336   1.480
42899SOL    HW130530   4.783   0.358   1.390
42899SOL    HW230531   4.697   0.265   1.473
42900SOL     OW30532  12.975  12.330   9.183
42900SOL    HW130533  12.891  12.318   9.139
42900SOL    HW230534  13.020  12.246   9.172
42901SOL     OW30535   1.835   4.111   1.148
42901SOL    HW130536   1.818   4.193   1.101
42901SOL    HW230537   1.929   4.112   1.166
42902SOL     OW30538   6.713   8.369  10.140
42902SOL    HW130539   6.629   8.415  10.149
42902SOL    HW230540   6.758   8.414  10.070
42903SOL     OW30541   6.455   5.478   4.156
42903SOL    HW130542   6.403   5.516   4.227
42903SOL    HW230543   6.394   5.473   4.082
42904SOL     OW30544   9.640   5.275   6.589
42904SOL    HW130545   9.633   5.290   6.683
42904SOL    HW230546   9.723   5.316   6.564
42905SOL     OW30547   8.798   8.607   6.803
42905SOL    HW130548   8.734   8.616   6.731
42905SOL    HW230549   8.794   8.515   6.826
42906SOL     OW30550   4.605   8.646   0.782
42906SOL    HW130551   4.635   8.737   0.780
42906SOL    HW230552   4.684   8.594   0.769
42907SOL     OW30553   5.330   7.517   1.725
42907SOL    HW130554   5.256   7.557   1.770
42907SOL    HW230555   5.292   7.471   1.651
42908SOL     OW30556   0.009  13.090   7.539
42908SOL    HW130557   0.045  13.008   7.572
42908SOL    HW230558  14.818  13.117   7.605
42909SOL     OW30559  11.274   7.835   5.466
42909SOL    HW130560  11.240   7.844   5.377
42909SOL    HW230561  11.199   7.851   5.522
42910SOL     OW30562   4.155   3.869   1.600
42910SOL    HW130563   4.152   3.846   1.693
42910SOL    HW230564   4.144   3.786   1.554
42911SOL     OW30565   4.704  11.416   6.884
42911SOL    HW130566   4.776  11.365   6.922
42911SOL    HW230567   4.635  11.351   6.867
42912SOL     OW30568   9.494   8.379  10.763
42912SOL    HW130569   9.585   8.404  10.748
42912SOL    HW230570   9.500   8.295  10.809
42913SOL     OW30571  14.105   1.053   9.736
42913SOL    HW130572  14.131   1.010   9.654
42913SOL    HW230573  14.044   1.121   9.710
42914SOL     OW30574  10.980  14.823   9.893
42914SOL    HW130575  10.914   0.004   9.938
42914SOL    HW230576  10.992  14.747   9.950
42915SOL     OW30577   8.411   3.006  14.221
42915SOL    HW130578   8.378   3.004  14.311
42915SOL    HW230579   8.464   3.086  14.217
42916SOL     OW30580   7.601   2.072  12.590
42916SOL    HW130581   7.509   2.056  12.568
42916SOL    HW230582   7.621   2.010  12.660
42917SOL     OW30583   8.488   5.823  11.223
42917SOL    HW130584   8.537   5.816  11.305
42917SOL    HW230585   8.457   5.913  11.220
42918SOL     OW30586  10.795  14.104   2.654
42918SOL    HW130587  10.849  14.025   2.660
42918SOL    HW230588  10.856  14.176   2.674
42919SOL     OW30589  13.459  10.663   9.654
42919SOL    HW130590  13.473  10.583   9.604
42919SOL    HW230591  13.435  10.729   9.589
42920SOL     OW30592  11.097   3.888   5.652
42920SOL    HW130593  11.046   3.855   5.726
42920SOL    HW230594  11.188   3.883   5.681
42921SOL     OW30595   5.881   8.076  10.183
42921SOL    HW130596   5.913   8.007  10.241
42921SOL    HW230597   5.932   8.154  10.207
42922SOL     OW30598  13.841   2.176   7.683
42922SOL    HW130599  13.823   2.125   7.761
42922SOL    HW230600  13.936   2.174   7.674
42923SOL     OW30601   9.070   6.195   5.315
42923SOL    HW130602   9.138   6.233   5.261
42923SOL    HW230603   8.997   6.180   5.255
42924SOL     OW30604   1.142   6.164   3.483
42924SOL    HW130605   1.131   6.215   3.564
42924SOL    HW230606   1.197   6.220   3.428
42925SOL     OW30607   7.137   9.989  12.989
42925SOL    HW130608   7.117  10.075  13.028
42925SOL    HW230609   7.224   9.968  13.021
42926SOL     OW30610   1.928   1.926   5.304
42926SOL    HW130611   2.003   1.973   5.338
42926SOL    HW230612   1.965   1.859   5.247
42927SOL     OW30613   8.060   5.710   9.501
42927SOL    HW130614   8.033   5.757   9.580
42927SOL    HW230615   8.110   5.635   9.534
42928SOL     OW30616   1.841  13.016  12.348
42928SOL    HW130617   1.852  13.065  12.266
42928SOL    HW230618   1.918  12.959  12.352
42929SOL     OW30619   3.733  14.734   1.209
42929SOL    HW130620   3.690  14.650   1.193
42929SOL    HW230621   3.732  14.743   1.305
42930SOL     OW30622   1.927   6.157   6.971
42930SOL    HW130623   1.923   6.075   7.019
42930SOL    HW230624   1.918   6.225   7.038
42931SOL     OW30625   2.645   4.619   3.299
42931SOL    HW130626   2.570   4.678   3.293
42931SOL    HW230627   2.712   4.670   3.346
42932SOL     OW30628   2.715   7.700   5.302
42932SOL    HW130629   2.728   7.639   5.374
42932SOL    HW230630   2.801   7.707   5.260
42933SOL     OW30631  11.209   2.136   9.029
42933SOL    HW130632  11.156   2.061   9.001
42933SOL    HW230633  11.293   2.124   8.983
42934SOL     OW30634   0.870  12.356   3.072
42934SOL    HW130635   0.814  12.282   3.095
42934SOL    HW230636   0.958  12.327   3.096
42935SOL     OW30637   1.142   2.295   4.770
42935SOL    HW130638   1.208   2.275   4.704
42935SOL    HW230639   1.097   2.212   4.786
42936SOL     OW30640   6.327  12.779   3.132
42936SOL    HW130641   6.320  12.696   3.179
42936SOL    HW230642   6.272  12.767   3.054
42937SOL     OW30643  11.608  12.855  11.534
42937SOL    HW130644  11.578  12.787  11.473
42937SOL    HW230645  11.650  12.807  11.605
42938SOL     OW30646  12.806   2.942   4.448
42938SOL    HW130647  12.815   2.854   4.485
42938SOL    HW230648  12.805   3.000   4.524
42939SOL     OW30649   4.974   2.383   7.447
42939SOL    HW130650   5.042   2.439   7.411
42939SOL    HW230651   4.949   2.325   7.375
42940SOL     OW30652   9.726   1.346   8.368
42940SOL    HW130653   9.652   1.323   8.423
42940SOL    HW230654   9.713   1.439   8.347
42941SOL     OW30655  14.133  10.149  14.870
42941SOL    HW130656  14.124  10.137  14.776
42941SOL    HW230657  14.053  10.194   0.024
42942SOL     OW30658  10.477  13.725  13.594
42942SOL    HW130659  10.393  13.771  13.590
42942SOL    HW230660  10.504  13.717  13.503
42943SOL     OW30661   1.235   4.265  13.680
42943SOL    HW130662   1.169   4.293  13.616
42943SOL    HW230663   1.265   4.181  13.647
42944SOL     OW30664   3.486   3.741   0.126
42944SOL    HW130665   3.524   3.801   0.062
42944SOL    HW230666   3.551   3.736   0.196
42945SOL     OW30667  14.144   9.548   4.881
42945SOL    HW130668  14.184   9.480   4.935
42945SOL    HW230669  14.182   9.535   4.794
42946SOL     OW30670  10.660   9.835   2.847
42946SOL    HW130671  10.629   9.747   2.868
42946SOL    HW230672  10.726   9.853   2.913
42947SOL     OW30673   0.162  12.789   2.584
42947SOL    HW130674   0.199  12.830   2.505
42947SOL    HW230675   0.068  12.804   2.577
42948SOL     OW30676   8.542  14.797  12.230
42948SOL    HW130677   8.458  14.826  12.267
42948SOL    HW230678   8.597   0.002  12.230
42949SOL     OW30679   2.709   7.885   9.932
42949SOL    HW130680   2.629   7.876   9.880
42949SOL    HW230681   2.764   7.812   9.905
42950SOL     OW30682   3.025   1.743   1.326
42950SOL    HW130683   2.934   1.727   1.302
42950SOL    HW230684   3.021   1.822   1.381
42951SOL     OW30685   2.590   0.611  10.403
42951SOL    HW130686   2.569   0.693  10.357
42951SOL    HW230687   2.598   0.546  10.333
42952SOL     OW30688   2.700   1.365   5.090
42952SOL    HW130689   2.744   1.305   5.029
42952SOL    HW230690   2.727   1.334   5.177
42953SOL     OW30691  14.540   6.508  11.196
42953SOL    HW130692  14.509   6.459  11.272
42953SOL    HW230693  14.635   6.493  11.196
42954SOL     OW30694  11.357   8.321  13.794
42954SOL    HW130695  11.327   8.382  13.726
42954SOL    HW230696  11.361   8.236  13.750
42955SOL     OW30697   4.991  11.629   5.472
42955SOL    HW130698   5.017  11.721   5.473
42955SOL    HW230699   4.911  11.628   5.419
42956SOL     OW30700  11.872   0.103  10.005
42956SOL    HW130701  11.881   0.199  10.005
42956SOL    HW230702  11.939   0.073  10.065
42957SOL     OW30703   7.783   3.540   9.101
42957SOL    HW130704   7.741   3.472   9.048
42957SOL    HW230705   7.875   3.535   9.076
42958SOL     OW30706   0.490   2.931  12.105
42958SOL    HW130707   0.569   2.981  12.086
42958SOL    HW230708   0.435   2.991  12.157
42959SOL     OW30709  14.194   1.371  12.126
42959SOL    HW130710  14.161   1.295  12.078
42959SOL    HW230711  14.205   1.439  12.060
42960SOL     OW30712  11.879   1.733  10.198
42960SOL    HW130713  11.831   1.672  10.255
42960SOL    HW230714  11.854   1.820  10.230
42961SOL     OW30715   1.143   1.826   9.198
42961SOL    HW130716   1.217   1.885   9.212
42961SOL    HW230717   1.152   1.798   9.107
42962SOL     OW30718   2.672   3.915   9.286
42962SOL    HW130719   2.583   3.942   9.307
42962SOL    HW230720   2.701   3.978   9.220
42963SOL     OW30721   5.998  12.219   7.965
42963SOL    HW130722   6.013  12.252   8.053
42963SOL    HW230723   6.006  12.296   7.909
42964SOL     OW30724   6.662  11.582   1.024
42964SOL    HW130725   6.617  11.655   0.982
42964SOL    HW230726   6.746  11.618   1.053
42965SOL     OW30727  12.654  10.191  10.586
42965SOL    HW130728  12.697  10.151  10.661
42965SOL    HW230729  12.703  10.160  10.510
42966SOL     OW30730   1.137   1.007  12.357
42966SOL    HW130731   1.184   1.090  12.354
42966SOL    HW230732   1.067   1.021  12.422
42967SOL     OW30733   9.402  10.748  11.847
42967SOL    HW130734   9.464  10.680  11.818
42967SOL    HW230735   9.421  10.759  11.940
42968SOL     OW30736   5.841   7.583   2.074
42968SOL    HW130737   5.749   7.608   2.067
42968SOL    HW230738   5.883   7.624   1.998
42969SOL     OW30739  12.937   8.361   2.580
42969SOL    HW130740  12.879   8.285   2.583
42969SOL    HW230741  12.925   8.397   2.491
42970SOL     OW30742   4.555  13.531  11.005
42970SOL    HW130743   4.493  13.566  11.068
42970SOL    HW230744   4.601  13.608  10.971
42971SOL     OW30745   7.833   1.527   6.271
42971SOL    HW130746   7.747   1.537   6.312
42971SOL    HW230747   7.858   1.437   6.290
42972SOL     OW30748   5.317   9.345   6.676
42972SOL    HW130749   5.255   9.347   6.749
42972SOL    HW230750   5.374   9.420   6.691
42973SOL     OW30751   9.192   3.947  12.906
42973SOL    HW130752   9.279   3.979  12.882
42973SOL    HW230753   9.167   3.888  12.835
42974SOL     OW30754  10.272   9.332   5.400
42974SOL    HW130755  10.243   9.328   5.309
42974SOL    HW230756  10.216   9.397   5.441
42975SOL     OW30757   5.551   6.472  11.508
42975SOL    HW130758   5.624   6.412  11.494
42975SOL    HW230759   5.550   6.485  11.603
42976SOL     OW30760   6.590  10.992  12.571
42976SOL    HW130761   6.671  11.039  12.553
42976SOL    HW230762   6.524  11.061  12.577
42977SOL     OW30763  12.495   6.009   2.620
42977SOL    HW130764  12.555   6.034   2.550
42977SOL    HW230765  12.551   6.002   2.697
42978SOL     OW30766  10.649   7.513  12.120
42978SOL    HW130767  10.702   7.451  12.070
42978SOL    HW230768  10.560   7.478  12.114
42979SOL     OW30769   8.056   4.804   3.588
42979SOL    HW130770   8.042   4.798   3.494
42979SOL    HW230771   8.137   4.853   3.598
42980SOL     OW30772   0.994  13.780   3.501
42980SOL    HW130773   1.089  13.794   3.509
42980SOL    HW230774   0.963  13.855   3.451
42981SOL     OW30775   6.060   9.509   8.173
42981SOL    HW130776   5.970   9.502   8.141
42981SOL    HW230777   6.053   9.566   8.250
42982SOL     OW30778   3.118   6.544   6.891
42982SOL    HW130779   3.202   6.578   6.920
42982SOL    HW230780   3.087   6.490   6.964
42983SOL     OW30781  12.685   7.426   3.935
42983SOL    HW130782  12.698   7.481   3.859
42983SOL    HW230783  12.626   7.357   3.905
42984SOL     OW30784   1.503  13.598   8.343
42984SOL    HW130785   1.438  13.667   8.327
42984SOL    HW230786   1.570  13.613   8.277
42985SOL     OW30787   1.760   0.043  11.228
42985SOL    HW130788   1.697   0.075  11.293
42985SOL    HW230789   1.776  14.824  11.253
42986SOL     OW30790   1.051   9.344  10.256
42986SOL    HW130791   1.071   9.288  10.181
42986SOL    HW230792   1.096   9.427  10.236
42987SOL     OW30793   4.101   8.909   7.456
42987SOL    HW130794   4.132   8.818   7.460
42987SOL    HW230795   4.009   8.904   7.481
42988SOL     OW30796   1.949   3.134  12.147
42988SOL    HW130797   1.999   3.210  12.178
42988SOL    HW230798   1.872   3.172  12.105
42989SOL     OW30799   6.957  12.938   0.147
42989SOL    HW130800   7.027  12.981   0.097
42989SOL    HW230801   6.913  13.010   0.192
42990SOL     OW30802  11.071   7.366  12.087
42990SOL    HW130803  11.060   7.432  12.155
42990SOL    HW230804  10.984   7.356  12.049
42991SOL     OW30805   3.664  10.910   7.419
42991SOL    HW130806   3.575  10.903   7.386
42991SOL    HW230807   3.713  10.842   7.371
42992SOL     OW30808   1.241   5.743   3.752
42992SOL    HW130809   1.165   5.724   3.697
42992SOL    HW230810   1.299   5.669   3.739
42993SOL     OW30811   3.058  14.801   0.326
42993SOL    HW130812   3.144  14.827   0.293
42993SOL    HW230813   3.076  14.725   0.382
42994SOL     OW30814  13.784   7.622   2.017
42994SOL    HW130815  13.818   7.545   1.970
42994SOL    HW230816  13.763   7.589   2.104
42995SOL     OW30817   1.878   7.934   9.687
42995SOL    HW130818   1.879   8.012   9.742
42995SOL    HW230819   1.907   7.965   9.601
42996SOL     OW30820   1.009   3.956  13.003
42996SOL    HW130821   0.929   4.006  12.986
42996SOL    HW230822   1.066   4.016  13.051
42997SOL     OW30823   0.003  10.006   8.983
42997SOL    HW130824   0.041  10.064   9.049
42997SOL    HW230825   0.074   9.990   8.922
42998SOL     OW30826   9.507  11.338   1.446
42998SOL    HW130827   9.518  11.353   1.540
42998SOL    HW230828   9.502  11.243   1.437
42999SOL     OW30829   3.991   9.880   1.602
42999SOL    HW130830   4.070   9.921   1.637
42999SOL    HW230831   4.012   9.786   1.599
43000SOL     OW30832  13.944   7.728   0.169
43000SOL    HW130833  13.960   7.798   0.232
43000SOL    HW230834  14.003   7.747   0.096
43001SOL     OW30835  11.802   8.370   6.299
43001SOL    HW130836  11.723   8.425   6.298
43001SOL    HW230837  11.872   8.430   6.323
43002SOL     OW30838   9.985   8.726   8.818
43002SOL    HW130839   9.947   8.644   8.849
43002SOL    HW230840   9.943   8.740   8.733
43003SOL     OW30841   7.771   2.145   4.459
43003SOL    HW130842   7.866   2.138   4.456
43003SOL    HW230843   7.741   2.108   4.375
43004SOL     OW30844   7.519   2.260   0.608
43004SOL    HW130845   7.427   2.260   0.632
43004SOL    HW230846   7.553   2.179   0.645
43005SOL     OW30847   4.083   3.501   7.502
43005SOL    HW130848   4.127   3.502   7.587
43005SOL    HW230849   4.134   3.440   7.449
43006SOL     OW30850   8.406   8.160   0.785
43006SOL    HW130851   8.460   8.216   0.841
43006SOL    HW230852   8.433   8.071   0.808
43007SOL     OW30853   0.146  11.331   4.631
43007SOL    HW130854   0.229  11.327   4.679
43007SOL    HW230855   0.091  11.388   4.685
43008SOL     OW30856   8.002  13.480  13.501
43008SOL    HW130857   8.023  13.549  13.438
43008SOL    HW230858   7.985  13.403  13.446
43009SOL     OW30859   2.210   4.679   0.953
43009SOL    HW130860   2.216   4.740   1.027
43009SOL    HW230861   2.164   4.602   0.989
43010SOL     OW30862   5.270   5.263  13.130
43010SOL    HW130863   5.219   5.326  13.079
43010SOL    HW230864   5.238   5.177  13.101
43011SOL     OW30865   0.838   5.981   4.556
43011SOL    HW130866   0.767   5.929   4.518
43011SOL    HW230867   0.807   6.071   4.549
43012SOL     OW30868  14.796   8.518   3.682
43012SOL    HW130869  14.811   8.428   3.713
43012SOL    HW230870  14.732   8.509   3.611
43013SOL     OW30871  11.293  14.411   6.492
43013SOL    HW130872  11.332  14.341   6.439
43013SOL    HW230873  11.323  14.491   6.450
43014SOL     OW30874   3.719  14.509   6.438
43014SOL    HW130875   3.654  14.579   6.448
43014SOL    HW230876   3.773  14.535   6.364
43015SOL     OW30877   3.521  11.504   4.672
43015SOL    HW130878   3.603  11.466   4.703
43015SOL    HW230879   3.518  11.480   4.579
43016SOL     OW30880  13.538   0.819   5.912
43016SOL    HW130881  13.487   0.740   5.932
43016SOL    HW230882  13.555   0.813   5.817
43017SOL     OW30883   9.588   7.151  10.321
43017SOL    HW130884   9.647   7.209  10.273
43017SOL    HW230885   9.516   7.208  10.348
43018SOL     OW30886   0.758  14.671   7.990
43018SOL    HW130887   0.750  14.596   7.931
43018SOL    HW230888   0.850  14.671   8.017
43019SOL     OW30889  11.056  13.511   6.335
43019SOL    HW130890  10.988  13.511   6.267
43019SOL    HW230891  11.114  13.439   6.312
43020SOL     OW30892   8.609  10.135   8.821
43020SOL    HW130893   8.552  10.201   8.862
43020SOL    HW230894   8.551  10.062   8.802
43021SOL     OW30895   9.685   0.305   4.055
43021SOL    HW130896   9.617   0.368   4.078
43021SOL    HW230897   9.713   0.331   3.968
43022SOL     OW30898   1.214  14.359   5.205
43022SOL    HW130899   1.141  14.368   5.144
43022SOL    HW230900   1.207  14.270   5.238
43023SOL     OW30901   7.708  10.198   3.301
43023SOL    HW130902   7.613  10.194   3.295
43023SOL    HW230903   7.730  10.288   3.276
43024SOL     OW30904   5.842   9.403  14.428
43024SOL    HW130905   5.897   9.412  14.350
43024SOL    HW230906   5.753   9.402  14.394
43025SOL     OW30907   6.630   9.091  13.881
43025SOL    HW130908   6.623   9.133  13.966
43025SOL    HW230909   6.557   9.029  13.879
43026SOL     OW30910  11.149  12.307   4.519
43026SOL    HW130911  11.170  12.398   4.498
43026SOL    HW230912  11.111  12.272   4.438
43027SOL     OW30913  14.224   6.995   9.255
43027SOL    HW130914  14.238   6.925   9.319
43027SOL    HW230915  14.224   6.951   9.170
43028SOL     OW30916   1.727   6.227  11.560
43028SOL    HW130917   1.666   6.155  11.576
43028SOL    HW230918   1.777   6.234  11.641
43029SOL     OW30919  13.877  11.262   6.370
43029SOL    HW130920  13.907  11.332   6.428
43029SOL    HW230921  13.805  11.300   6.321
43030SOL     OW30922   0.965   5.582  10.531
43030SOL    HW130923   0.876   5.580  10.564
43030SOL    HW230924   0.999   5.493  10.547
43031SOL     OW30925   1.682   5.893   3.671
43031SOL    HW130926   1.722   5.971   3.709
43031SOL    HW230927   1.725   5.820   3.715
43032SOL     OW30928  14.135   8.486   0.289
43032SOL    HW130929  14.077   8.530   0.226
43032SOL    HW230930  14.222   8.491   0.249
43033SOL     OW30931   2.942   2.780  10.582
43033SOL    HW130932   2.849   2.770  10.603
43033SOL    HW230933   2.949   2.868  10.545
43034SOL     OW30934  13.480   8.764   7.257
43034SOL    HW130935  13.558   8.783   7.309
43034SOL    HW230936  13.468   8.841   7.203
43035SOL     OW30937   0.788   6.497   2.558
43035SOL    HW130938   0.831   6.569   2.603
43035SOL    HW230939   0.700   6.530   2.539
43036SOL     OW30940   7.425   3.065   3.214
43036SOL    HW130941   7.478   3.112   3.150
43036SOL    HW230942   7.485   2.998   3.249
43037SOL     OW30943   5.324   4.819  10.256
43037SOL    HW130944   5.315   4.848  10.165
43037SOL    HW230945   5.366   4.733  10.250
43038SOL     OW30946   1.048   5.930   9.201
43038SOL    HW130947   1.066   6.023   9.187
43038SOL    HW230948   1.053   5.919   9.296
43039SOL     OW30949   5.178  10.322   1.720
43039SOL    HW130950   5.101  10.339   1.775
43039SOL    HW230951   5.252  10.354   1.772
43040SOL     OW30952   5.282   8.974  14.498
43040SOL    HW130953   5.295   9.063  14.532
43040SOL    HW230954   5.366   8.930  14.514
43041SOL     OW30955   5.939   2.017   1.372
43041SOL    HW130956   5.937   1.959   1.296
43041SOL    HW230957   5.859   1.997   1.420
43042SOL     OW30958   7.024  11.051  14.407
43042SOL    HW130959   6.973  11.096  14.475
43042SOL    HW230960   6.982  10.966  14.398
43043SOL     OW30961   0.181   2.784   6.176
43043SOL    HW130962   0.185   2.707   6.118
43043SOL    HW230963   0.090   2.812   6.171
43044SOL     OW30964   1.793   3.198  14.250
43044SOL    HW130965   1.769   3.135  14.317
43044SOL    HW230966   1.827   3.145  14.178
43045SOL     OW30967   9.550   2.617   9.711
43045SOL    HW130968   9.469   2.566   9.724
43045SOL    HW230969   9.558   2.625   9.616
43046SOL     OW30970   6.737  10.262   7.425
43046SOL    HW130971   6.759  10.318   7.499
43046SOL    HW230972   6.695  10.321   7.362
43047SOL     OW30973  13.175  14.471   0.035
43047SOL    HW130974  13.229  14.446  14.833
43047SOL    HW230975  13.085  14.460   0.005
43048SOL     OW30976   5.853   6.595   1.528
43048SOL    HW130977   5.788   6.570   1.463
43048SOL    HW230978   5.937   6.586   1.483
43049SOL     OW30979   6.152   9.122   0.024
43049SOL    HW130980   6.095   9.068  14.843
43049SOL    HW230981   6.229   9.139  14.842
43050SOL     OW30982   0.157   4.889  13.480
43050SOL    HW130983   0.194   4.967  13.439
43050SOL    HW230984   0.154   4.824  13.410
43051SOL     OW30985   8.049   4.946   1.489
43051SOL    HW130986   8.003   5.010   1.435
43051SOL    HW230987   7.979   4.892   1.527
43052SOL     OW30988   1.165   8.310   4.810
43052SOL    HW130989   1.223   8.365   4.862
43052SOL    HW230990   1.135   8.241   4.870
43053SOL     OW30991   9.339   5.497   7.948
43053SOL    HW130992   9.412   5.556   7.967
43053SOL    HW230993   9.263   5.539   7.990
43054SOL     OW30994   4.236  13.651   4.154
43054SOL    HW130995   4.169  13.622   4.091
43054SOL    HW230996   4.276  13.728   4.113
43055SOL     OW30997   2.385   9.220   8.202
43055SOL    HW130998   2.399   9.314   8.214
43055SOL    HW230999   2.457   9.194   8.144
43056SOL     OW31000   9.624   6.474   4.251
43056SOL    HW131001   9.608   6.554   4.202
43056SOL    HW231002   9.541   6.455   4.295
43057SOL     OW31003   2.164   1.594  10.290
43057SOL    HW131004   2.218   1.673  10.301
43057SOL    HW231005   2.086   1.625  10.244
43058SOL     OW31006   7.367   9.652   4.763
43058SOL    HW131007   7.444   9.675   4.815
43058SOL    HW231008   7.333   9.736   4.731
43059SOL     OW31009   8.074   6.056   2.119
43059SOL    HW131010   8.163   6.078   2.148
43059SOL    HW231011   8.055   6.118   2.050
43060SOL     OW31012   3.101   4.178   2.931
43060SOL    HW131013   3.113   4.215   2.844
43060SOL    HW231014   3.008   4.187   2.949
43061SOL     OW31015   8.613   1.168   8.466
43061SOL    HW131016   8.571   1.106   8.407
43061SOL    HW231017   8.560   1.248   8.458
43062SOL     OW31018  11.308   2.617  10.412
43062SOL    HW131019  11.344   2.529  10.402
43062SOL    HW231020  11.288   2.646  10.323
43063SOL     OW31021   3.929   9.587  10.402
43063SOL    HW131022   3.877   9.558  10.477
43063SOL    HW231023   3.963   9.506  10.364
43064SOL     OW31024   6.076   3.049  14.620
43064SOL    HW131025   6.056   2.962  14.587
43064SOL    HW231026   6.089   3.036  14.714
43065SOL     OW31027  14.653  10.361  14.209
43065SOL    HW131028  14.633  10.382  14.117
43065SOL    HW231029  14.608  10.278  14.224
43066SOL     OW31030  11.188   8.023  13.116
43066SOL    HW131031  11.096   8.001  13.127
43066SOL    HW231032  11.234   7.942  13.137
43067SOL     OW31033  12.561   8.788   6.896
43067SOL    HW131034  12.633   8.825   6.948
43067SOL    HW231035  12.485   8.790   6.954
43068SOL     OW31036   2.291   8.638   9.177
43068SOL    HW131037   2.303   8.733   9.168
43068SOL    HW231038   2.375   8.606   9.209
43069SOL     OW31039   4.201   2.021   4.974
43069SOL    HW131040   4.125   2.065   4.935
43069SOL    HW231041   4.273   2.083   4.962
43070SOL     OW31042  14.299   0.211  11.074
43070SOL    HW131043  14.252   0.141  11.029
43070SOL    HW231044  14.379   0.169  11.106
43071SOL     OW31045   5.051   0.111   1.770
43071SOL    HW131046   5.017   0.199   1.759
43071SOL    HW231047   4.995   0.072   1.837
43072SOL     OW31048   6.782   1.281   8.296
43072SOL    HW131049   6.731   1.292   8.215
43072SOL    HW231050   6.810   1.190   8.295
43073SOL     OW31051   7.082   1.745  11.392
43073SOL    HW131052   7.119   1.833  11.390
43073SOL    HW231053   7.017   1.745  11.321
43074SOL     OW31054   0.409   1.146   5.335
43074SOL    HW131055   0.428   1.207   5.264
43074SOL    HW231056   0.493   1.108   5.358
43075SOL     OW31057   9.515  11.578  11.002
43075SOL    HW131058   9.462  11.581  11.082
43075SOL    HW231059   9.472  11.511  10.948
43076SOL     OW31060   5.525   3.729   6.385
43076SOL    HW131061   5.530   3.825   6.379
43076SOL    HW231062   5.615   3.702   6.405
43077SOL     OW31063  11.662  14.641   5.584
43077SOL    HW131064  11.582  14.690   5.567
43077SOL    HW231065  11.673  14.585   5.507
43078SOL     OW31066   2.501   0.159  11.404
43078SOL    HW131067   2.577   0.110  11.371
43078SOL    HW231068   2.515   0.164  11.499
43079SOL     OW31069   2.369  14.872   8.706
43079SOL    HW131070   2.418   0.077   8.733
43079SOL    HW231071   2.349  14.826   8.788
43080SOL     OW31072   6.349  10.366   2.673
43080SOL    HW131073   6.291  10.310   2.621
43080SOL    HW231074   6.291  10.427   2.717
43081SOL     OW31075   8.462   7.796  11.630
43081SOL    HW131076   8.525   7.752  11.573
43081SOL    HW231077   8.503   7.794  11.717
43082SOL     OW31078   4.201  13.044   3.742
43082SOL    HW131079   4.172  12.982   3.676
43082SOL    HW231080   4.232  13.120   3.692
43083SOL     OW31081   3.678  10.967   8.869
43083SOL    HW131082   3.609  11.033   8.867
43083SOL    HW231083   3.647  10.901   8.931
43084SOL     OW31084   0.151  13.890  11.401
43084SOL    HW131085   0.220  13.952  11.376
43084SOL    HW231086   0.190  13.840  11.473
43085SOL     OW31087   8.183   3.833  12.059
43085SOL    HW131088   8.194   3.920  12.096
43085SOL    HW231089   8.224   3.774  12.122
43086SOL     OW31090  13.580   5.501   9.270
43086SOL    HW131091  13.666   5.523   9.306
43086SOL    HW231092  13.597   5.433   9.205
43087SOL     OW31093  11.551   4.381   4.869
43087SOL    HW131094  11.519   4.327   4.941
43087SOL    HW231095  11.489   4.365   4.797
43088SOL     OW31096  14.009  10.480  12.879
43088SOL    HW131097  14.070  10.461  12.950
43088SOL    HW231098  14.029  10.571  12.855
43089SOL     OW31099   5.385  11.575   9.530
43089SOL    HW131100   5.446  11.648   9.535
43089SOL    HW231101   5.366  11.566   9.437
43090SOL     OW31102  13.638  11.947  11.668
43090SOL    HW131103  13.701  11.996  11.720
43090SOL    HW231104  13.688  11.875  11.630
43091SOL     OW31105   3.937   3.230   4.615
43091SOL    HW131106   4.006   3.182   4.661
43091SOL    HW231107   3.957   3.217   4.522
43092SOL     OW31108   6.664  13.354   7.207
43092SOL    HW131109   6.730  13.288   7.186
43092SOL    HW231110   6.673  13.419   7.138
43093SOL     OW31111   4.229   8.654   7.497
43093SOL    HW131112   4.233   8.580   7.436
43093SOL    HW231113   4.302   8.639   7.558
43094SOL     OW31114   3.338   5.723   1.954
43094SOL    HW131115   3.313   5.812   1.980
43094SOL    HW231116   3.409   5.736   1.892
43095SOL     OW31117   5.134   1.527   3.901
43095SOL    HW131118   5.182   1.554   3.979
43095SOL    HW231119   5.192   1.465   3.857
43096SOL     OW31120   5.713   3.384   5.458
43096SOL    HW131121   5.626   3.346   5.464
43096SOL    HW231122   5.698   3.477   5.439
43097SOL     OW31123   2.834   1.271  11.451
43097SOL    HW131124   2.894   1.198  11.462
43097SOL    HW231125   2.831   1.286  11.356
43098SOL     OW31126  11.009   8.169   1.362
43098SOL    HW131127  10.955   8.115   1.304
43098SOL    HW231128  11.093   8.123   1.366
43099SOL     OW31129  11.337   9.461   8.452
43099SOL    HW131130  11.393   9.531   8.487
43099SOL    HW231131  11.303   9.416   8.530
43100SOL     OW31132  12.687   8.502   9.989
43100SOL    HW131133  12.644   8.454  10.060
43100SOL    HW231134  12.766   8.451   9.970
43101SOL     OW31135   2.766   1.447   1.348
43101SOL    HW131136   2.729   1.442   1.260
43101SOL    HW231137   2.830   1.518   1.344
43102SOL     OW31138   8.690   5.352  13.079
43102SOL    HW131139   8.702   5.347  13.174
43102SOL    HW231140   8.678   5.445  13.061
43103SOL     OW31141   7.597  13.370   0.813
43103SOL    HW131142   7.558  13.452   0.785
43103SOL    HW231143   7.631  13.388   0.901
43104SOL     OW31144   2.944   2.991  10.114
43104SOL    HW131145   3.023   2.975  10.062
43104SOL    HW231146   2.924   2.905  10.153
43105SOL     OW31147   6.528  14.528  13.142
43105SOL    HW131148   6.620  14.502  13.131
43105SOL    HW231149   6.522  14.563  13.230
43106SOL     OW31150   8.136   7.927   8.325
43106SOL    HW131151   8.205   7.964   8.380
43106SOL    HW231152   8.110   7.999   8.268
43107SOL     OW31153  10.821   8.374   7.840
43107SOL    HW131154  10.913   8.381   7.866
43107SOL    HW231155  10.793   8.465   7.826
43108SOL     OW31156  10.998  13.322   1.448
43108SOL    HW131157  10.935  13.381   1.491
43108SOL    HW231158  10.949  13.285   1.374
43109SOL     OW31159   1.206   2.391   1.800
43109SOL    HW131160   1.170   2.312   1.841
43109SOL    HW231161   1.149   2.461   1.832
43110SOL     OW31162  12.705  12.695  10.850
43110SOL    HW131163  12.652  12.618  10.827
43110SOL    HW231164  12.722  12.738  10.766
43111SOL     OW31165   7.229   9.480   7.405
43111SOL    HW131166   7.222   9.391   7.370
43111SOL    HW231167   7.146   9.494   7.451
43112SOL     OW31168   0.367   1.695   5.787
43112SOL    HW131169   0.462   1.703   5.777
43112SOL    HW231170   0.331   1.760   5.727
43113SOL     OW31171  13.087   2.425   7.945
43113SOL    HW131172  13.148   2.358   7.912
43113SOL    HW231173  13.040   2.455   7.867
43114SOL     OW31174   6.138   4.410   3.347
43114SOL    HW131175   6.082   4.338   3.374
43114SOL    HW231176   6.079   4.485   3.341
43115SOL     OW31177   1.146   4.176   1.166
43115SOL    HW131178   1.100   4.143   1.243
43115SOL    HW231179   1.106   4.130   1.092
43116SOL     OW31180   1.980  13.960   1.246
43116SOL    HW131181   2.039  13.907   1.299
43116SOL    HW231182   1.950  13.901   1.177
43117SOL     OW31183  12.212   1.900   8.978
43117SOL    HW131184  12.175   1.881   9.064
43117SOL    HW231185  12.145   1.953   8.935
43118SOL     OW31186   9.796   3.490  12.500
43118SOL    HW131187   9.816   3.408  12.545
43118SOL    HW231188   9.880   3.518  12.463
43119SOL     OW31189  11.139  11.729  12.175
43119SOL    HW131190  11.211  11.718  12.238
43119SOL    HW231191  11.181  11.717  12.090
43120SOL     OW31192  12.147   0.487  13.134
43120SOL    HW131193  12.189   0.527  13.058
43120SOL    HW231194  12.112   0.404  13.100
43121SOL     OW31195   5.323   2.786  11.352
43121SOL    HW131196   5.334   2.707  11.299
43121SOL    HW231197   5.411   2.821  11.362
43122SOL     OW31198  10.156   2.068  10.700
43122SOL    HW131199  10.239   2.043  10.659
43122SOL    HW231200  10.171   2.058  10.794
43123SOL     OW31201   9.008   9.127   8.413
43123SOL    HW131202   8.943   9.081   8.361
43123SOL    HW231203   8.957   9.177   8.477
43124SOL     OW31204   9.188   6.712   4.555
43124SOL    HW131205   9.111   6.660   4.532
43124SOL    HW231206   9.236   6.721   4.473
43125SOL     OW31207  12.876   6.879  13.430
43125SOL    HW131208  12.841   6.962  13.398
43125SOL    HW231209  12.834   6.866  13.515
43126SOL     OW31210  14.222   8.694   4.658
43126SOL    HW131211  14.311   8.699   4.622
43126SOL    HW231212  14.206   8.781   4.693
43127SOL     OW31213   1.080  11.562   9.202
43127SOL    HW131214   1.169  11.530   9.190
43127SOL    HW231215   1.070  11.571   9.296
43128SOL     OW31216  10.508  11.533  10.931
43128SOL    HW131217  10.466  11.615  10.906
43128SOL    HW231218  10.486  11.472  10.861
43129SOL     OW31219   0.521   7.833   0.893
43129SOL    HW131220   0.591   7.775   0.864
43129SOL    HW231221   0.445   7.776   0.902
43130SOL     OW31222  14.832   0.762   3.659
43130SOL    HW131223  14.781   0.825   3.709
43130SOL    HW231224  14.836   0.685   3.716
43131SOL     OW31225  12.750   1.697  13.950
43131SOL    HW131226  12.791   1.651  14.023
43131SOL    HW231227  12.659   1.708  13.977
43132SOL     OW31228   1.370   7.754  12.149
43132SOL    HW131229   1.392   7.847  12.152
43132SOL    HW231230   1.452   7.712  12.123
43133SOL     OW31231  14.625  13.567   7.462
43133SOL    HW131232  14.613  13.489   7.408
43133SOL    HW231233  14.635  13.534   7.551
43134SOL     OW31234  11.593  12.688  14.404
43134SOL    HW131235  11.655  12.754  14.374
43134SOL    HW231236  11.622  12.664  14.491
43135SOL     OW31237   8.019   7.415   6.990
43135SOL    HW131238   7.991   7.328   7.017
43135SOL    HW231239   8.004   7.470   7.066
43136SOL     OW31240   1.144   9.188   8.656
43136SOL    HW131241   1.121   9.199   8.748
43136SOL    HW231242   1.059   9.177   8.611
43137SOL     OW31243   0.331   9.287   1.714
43137SOL    HW131244   0.397   9.238   1.764
43137SOL    HW231245   0.259   9.301   1.777
43138SOL     OW31246  11.833   8.337   4.655
43138SOL    HW131247  11.826   8.326   4.750
43138SOL    HW231248  11.841   8.431   4.641
43139SOL     OW31249  10.016   7.791  11.173
43139SOL    HW131250  10.052   7.721  11.229
43139SOL    HW231251   9.925   7.764  11.158
43140SOL     OW31252  14.490  14.277  10.885
43140SOL    HW131253  14.442  14.269  10.802
43140SOL    HW231254  14.507  14.186  10.911
43141SOL     OW31255   7.768   8.135   2.348
43141SOL    HW131256   7.686   8.172   2.314
43141SOL    HW231257   7.836   8.190   2.309
43142SOL     OW31258  12.800  12.258  11.682
43142SOL    HW131259  12.894  12.240  11.675
43142SOL    HW231260  12.765  12.184  11.733
43143SOL     OW31261   7.277   9.355  11.367
43143SOL    HW131262   7.201   9.353  11.310
43143SOL    HW231263   7.346   9.394  11.314
43144SOL     OW31264   0.959   1.130  11.708
43144SOL    HW131265   0.909   1.163  11.633
43144SOL    HW231266   0.997   1.048  11.677
43145SOL     OW31267  13.768  13.634   3.400
43145SOL    HW131268  13.747  13.727   3.391
43145SOL    HW231269  13.863  13.631   3.408
43146SOL     OW31270   7.464   6.753   1.242
43146SOL    HW131271   7.557   6.771   1.246
43146SOL    HW231272   7.455   6.686   1.173
43147SOL     OW31273   1.521   3.002   4.384
43147SOL    HW131274   1.432   3.036   4.374
43147SOL    HW231275   1.530   2.982   4.477
43148SOL     OW31276   6.085   5.992   9.179
43148SOL    HW131277   6.025   6.001   9.254
43148SOL    HW231278   6.082   6.077   9.135
43149SOL     OW31279   8.879   9.080   6.480
43149SOL    HW131280   8.908   8.997   6.518
43149SOL    HW231281   8.784   9.076   6.482
43150SOL     OW31282  14.112  13.141   6.646
43150SOL    HW131283  14.079  13.182   6.725
43150SOL    HW231284  14.139  13.053   6.674
43151SOL     OW31285   7.043   5.702   9.599
43151SOL    HW131286   6.959   5.681   9.639
43151SOL    HW231287   7.108   5.666   9.660
43152SOL     OW31288   4.797   4.507   7.148
43152SOL    HW131289   4.848   4.525   7.226
43152SOL    HW231290   4.758   4.421   7.164
43153SOL     OW31291   5.125   0.787   1.230
43153SOL    HW131292   5.141   0.757   1.320
43153SOL    HW231293   5.208   0.773   1.185
43154SOL     OW31294   2.532  11.889  14.796
43154SOL    HW131295   2.572  11.847  14.720
43154SOL    HW231296   2.448  11.845  14.807
43155SOL     OW31297   6.860   4.485   1.405
43155SOL    HW131298   6.801   4.437   1.346
43155SOL    HW231299   6.934   4.425   1.418
43156SOL     OW31300   5.000   2.785  11.874
43156SOL    HW131301   5.031   2.703  11.837
43156SOL    HW231302   5.011   2.849  11.803
43157SOL     OW31303   4.285  12.351  10.833
43157SOL    HW131304   4.360  12.344  10.891
43157SOL    HW231305   4.307  12.295  10.758
43158SOL     OW31306   3.412   1.536  14.215
43158SOL    HW131307   3.317   1.543  14.221
43158SOL    HW231308   3.428   1.500  14.128
43159SOL     OW31309  14.125   8.935   0.363
43159SOL    HW131310  14.109   8.916   0.270
43159SOL    HW231311  14.219   8.919   0.374
43160SOL     OW31312   0.093   2.272  14.101
43160SOL    HW131313   0.077   2.347  14.158
43160SOL    HW231314   0.030   2.283  14.029
43161SOL     OW31315   8.180  14.564   2.179
43161SOL    HW131316   8.108  14.589   2.237
43161SOL    HW231317   8.141  14.500   2.120
43162SOL     OW31318   1.260   1.764  13.282
43162SOL    HW131319   1.173   1.774  13.322
43162SOL    HW231320   1.246   1.784  13.190
43163SOL     OW31321  12.029  13.785   6.573
43163SOL    HW131322  11.979  13.850   6.623
43163SOL    HW231323  11.976  13.705   6.578
43164SOL     OW31324   4.201  13.171   1.417
43164SOL    HW131325   4.255  13.185   1.339
43164SOL    HW231326   4.173  13.080   1.411
43165SOL     OW31327   2.875   3.700   3.160
43165SOL    HW131328   2.925   3.780   3.175
43165SOL    HW231329   2.863   3.661   3.246
43166SOL     OW31330   8.835   0.779   6.070
43166SOL    HW131331   8.827   0.855   6.127
43166SOL    HW231332   8.801   0.808   5.985
43167SOL     OW31333  11.349  11.868   6.316
43167SOL    HW131334  11.299  11.827   6.245
43167SOL    HW231335  11.330  11.815   6.393
43168SOL     OW31336   9.112  11.360   2.027
43168SOL    HW131337   9.203  11.380   2.008
43168SOL    HW231338   9.103  11.379   2.121
43169SOL     OW31339   3.078   0.401   3.031
43169SOL    HW131340   2.986   0.394   3.057
43169SOL    HW231341   3.123   0.339   3.088
43170SOL     OW31342   1.057   3.026  10.300
43170SOL    HW131343   1.095   2.939  10.287
43170SOL    HW231344   1.114   3.085  10.250
43171SOL     OW31345   4.296   5.527   2.022
43171SOL    HW131346   4.295   5.436   2.052
43171SOL    HW231347   4.264   5.577   2.097
43172SOL     OW31348   2.543  10.814   3.923
43172SOL    HW131349   2.583  10.729   3.905
43172SOL    HW231350   2.615  10.877   3.916
43173SOL     OW31351  13.410   9.865   1.349
43173SOL    HW131352  13.386   9.956   1.367
43173SOL    HW231353  13.482   9.847   1.409
43174SOL     OW31354   8.907   1.560  10.418
43174SOL    HW131355   8.993   1.556  10.377
43174SOL    HW231356   8.924   1.561  10.512
43175SOL     OW31357  10.847   4.419   3.357
43175SOL    HW131358  10.933   4.386   3.333
43175SOL    HW231359  10.786   4.352   3.324
43176SOL     OW31360  10.356   1.045   0.474
43176SOL    HW131361  10.387   0.961   0.441
43176SOL    HW231362  10.284   1.068   0.414
43177SOL     OW31363   4.121   8.706   5.205
43177SOL    HW131364   4.028   8.689   5.193
43177SOL    HW231365   4.154   8.727   5.117
43178SOL     OW31366   1.283   5.841  13.279
43178SOL    HW131367   1.209   5.862  13.335
43178SOL    HW231368   1.351   5.904  13.303
43179SOL     OW31369  10.903  14.567   9.997
43179SOL    HW131370  10.921  14.507   9.925
43179SOL    HW231371  10.807  14.565  10.006
43180SOL     OW31372   2.731   0.698   8.770
43180SOL    HW131373   2.800   0.694   8.704
43180SOL    HW231374   2.774   0.738   8.846
43181SOL     OW31375  13.698  13.238   7.137
43181SOL    HW131376  13.754  13.297   7.086
43181SOL    HW231377  13.611  13.248   7.099
43182SOL     OW31378   4.769   7.921   9.098
43182SOL    HW131379   4.798   7.853   9.160
43182SOL    HW231380   4.822   7.906   9.020
43183SOL     OW31381   1.038   4.465   9.917
43183SOL    HW131382   0.968   4.472   9.852
43183SOL    HW231383   1.113   4.507   9.876
43184SOL     OW31384  10.287   7.671   9.720
43184SOL    HW131385  10.246   7.624   9.647
43184SOL    HW231386  10.228   7.744   9.738
43185SOL     OW31387   3.726   9.266   8.601
43185SOL    HW131388   3.691   9.280   8.689
43185SOL    HW231389   3.795   9.200   8.613
43186SOL     OW31390   0.873  13.999   3.369
43186SOL    HW131391   0.830  14.085   3.365
43186SOL    HW231392   0.893  13.978   3.278
43187SOL     OW31393   3.540  13.231   2.944
43187SOL    HW131394   3.596  13.269   3.012
43187SOL    HW231395   3.595  13.230   2.866
43188SOL     OW31396   1.108   5.327   7.419
43188SOL    HW131397   1.146   5.340   7.332
43188SOL    HW231398   1.169   5.268   7.464
43189SOL     OW31399   4.359   3.555   8.946
43189SOL    HW131400   4.450   3.524   8.944
43189SOL    HW231401   4.307   3.475   8.952
43190SOL     OW31402  11.535  12.561  14.865
43190SOL    HW131403  11.459  12.518  14.827
43190SOL    HW231404  11.531  12.538   0.085
43191SOL     OW31405   4.928   0.367  13.461
43191SOL    HW131406   4.999   0.413  13.506
43191SOL    HW231407   4.961   0.278  13.452
43192SOL     OW31408  10.678  10.697  11.155
43192SOL    HW131409  10.639  10.696  11.067
43192SOL    HW231410  10.727  10.615  11.160
43193SOL     OW31411   8.351   6.796  10.240
43193SOL    HW131412   8.346   6.863  10.308
43193SOL    HW231413   8.260   6.781  10.214
43194SOL     OW31414   7.246  10.555  13.101
43194SOL    HW131415   7.291  10.564  13.184
43194SOL    HW231416   7.277  10.628  13.048
43195SOL     OW31417  14.508  11.439   2.821
43195SOL    HW131418  14.435  11.414   2.764
43195SOL    HW231419  14.557  11.503   2.770
43196SOL     OW31420   3.041  11.577  13.061
43196SOL    HW131421   3.119  11.533  13.028
43196SOL    HW231422   2.975  11.562  12.993
43197SOL     OW31423  14.312   7.110   8.848
43197SOL    HW131424  14.243   7.150   8.901
43197SOL    HW231425  14.283   7.019   8.836
43198SOL     OW31426  12.286   7.582   1.513
43198SOL    HW131427  12.260   7.637   1.587
43198SOL    HW231428  12.296   7.643   1.440
43199SOL     OW31429  11.589   2.215   7.156
43199SOL    HW131430  11.551   2.227   7.069
43199SOL    HW231431  11.542   2.277   7.212
43200SOL     OW31432   2.520   7.947   5.451
43200SOL    HW131433   2.425   7.942   5.445
43200SOL    HW231434   2.539   7.923   5.542
43201SOL     OW31435   8.049  14.460  13.980
43201SOL    HW131436   8.012  14.379  14.014
43201SOL    HW231437   8.138  14.462  14.014
43202SOL     OW31438   4.791   1.734  13.566
43202SOL    HW131439   4.809   1.775  13.650
43202SOL    HW231440   4.803   1.804  13.502
43203SOL     OW31441  14.870   5.018  10.014
43203SOL    HW131442  14.802   4.951  10.019
43203SOL    HW231443   0.025   5.030  10.105
43204SOL     OW31444  12.785   2.478   9.171
43204SOL    HW131445  12.793   2.436   9.257
43204SOL    HW231446  12.794   2.572   9.189
43205SOL     OW31447   7.703   5.030   8.407
43205SOL    HW131448   7.752   5.111   8.395
43205SOL    HW231449   7.686   4.999   8.318
43206SOL     OW31450  11.976   5.896  13.224
43206SOL    HW131451  11.907   5.880  13.288
43206SOL    HW231452  12.044   5.833  13.245
43207SOL     OW31453  10.451   6.099  11.328
43207SOL    HW131454  10.418   6.020  11.371
43207SOL    HW231455  10.546   6.092  11.334
43208SOL     OW31456   1.135   1.674   2.263
43208SOL    HW131457   1.216   1.673   2.213
43208SOL    HW231458   1.148   1.742   2.329
43209SOL     OW31459   7.000   1.690  13.945
43209SOL    HW131460   6.999   1.712  14.038
43209SOL    HW231461   6.985   1.773  13.901
43210SOL     OW31462   5.312  11.057   7.399
43210SOL    HW131463   5.232  11.040   7.450
43210SOL    HW231464   5.349  10.969   7.385
43211SOL     OW31465  10.745  11.018   7.285
43211SOL    HW131466  10.681  11.089   7.289
43211SOL    HW231467  10.785  11.016   7.371
43212SOL     OW31468   7.557   4.446  13.203
43212SOL    HW131469   7.549   4.540  13.220
43212SOL    HW231470   7.499   4.405  13.267
43213SOL     OW31471   3.782   9.773   1.039
43213SOL    HW131472   3.832   9.754   0.959
43213SOL    HW231473   3.822   9.718   1.106
43214SOL     OW31474  12.701  13.222   9.848
43214SOL    HW131475  12.628  13.165   9.872
43214SOL    HW231476  12.775  13.163   9.838
43215SOL     OW31477   8.957  12.675  14.335
43215SOL    HW131478   8.895  12.728  14.386
43215SOL    HW231479   8.944  12.704  14.245
43216SOL     OW31480   1.570  14.187  12.195
43216SOL    HW131481   1.588  14.095  12.216
43216SOL    HW231482   1.655  14.230  12.202
43217SOL     OW31483  13.465   9.501   2.027
43217SOL    HW131484  13.493   9.573   1.970
43217SOL    HW231485  13.530   9.432   2.013
43218SOL     OW31486  11.998   1.054   9.330
43218SOL    HW131487  11.917   1.069   9.379
43218SOL    HW231488  12.016   1.137   9.286
43219SOL     OW31489  14.630   3.659   4.544
43219SOL    HW131490  14.580   3.727   4.589
43219SOL    HW231491  14.662   3.702   4.465
43220SOL     OW31492   6.692   4.346   1.208
43220SOL    HW131493   6.684   4.381   1.120
43220SOL    HW231494   6.684   4.251   1.197
43221SOL     OW31495   6.056   8.934   2.892
43221SOL    HW131496   6.070   9.011   2.836
43221SOL    HW231497   5.977   8.954   2.942
43222SOL     OW31498   6.302  14.736  12.909
43222SOL    HW131499   6.239  14.674  12.947
43222SOL    HW231500   6.383  14.686  12.900
43223SOL     OW31501   2.273   2.417   7.056
43223SOL    HW131502   2.354   2.428   7.107
43223SOL    HW231503   2.283   2.331   7.014
43224SOL     OW31504   6.719   4.213   5.544
43224SOL    HW131505   6.639   4.231   5.592
43224SOL    HW231506   6.696   4.228   5.452
43225SOL     OW31507  12.297   4.377  10.830
43225SOL    HW131508  12.357   4.302  10.830
43225SOL    HW231509  12.353   4.453  10.842
43226SOL     OW31510   1.064  12.617   8.442
43226SOL    HW131511   1.120  12.611   8.519
43226SOL    HW231512   1.117  12.581   8.371
43227SOL     OW31513  11.848   8.252  14.337
43227SOL    HW131514  11.791   8.319  14.376
43227SOL    HW231515  11.794   8.173  14.334
43228SOL     OW31516  10.299   0.101   5.728
43228SOL    HW131517  10.329   0.134   5.813
43228SOL    HW231518  10.337   0.161   5.664
43229SOL     OW31519   3.377   7.880  13.402
43229SOL    HW131520   3.307   7.815  13.413
43229SOL    HW231521   3.361   7.917  13.315
43230SOL     OW31522  10.429   2.465   0.575
43230SOL    HW131523  10.429   2.557   0.603
43230SOL    HW231524  10.380   2.465   0.493
43231SOL     OW31525   4.455   3.881  11.705
43231SOL    HW131526   4.369   3.905  11.669
43231SOL    HW231527   4.516   3.902  11.635
43232SOL     OW31528  10.386  13.005   5.584
43232SOL    HW131529  10.412  13.082   5.635
43232SOL    HW231530  10.346  12.947   5.648
43233SOL     OW31531   6.394  12.524  12.836
43233SOL    HW131532   6.344  12.514  12.755
43233SOL    HW231533   6.338  12.488  12.904
43234SOL     OW31534  10.750  14.712  11.830
43234SOL    HW131535  10.836  14.687  11.864
43234SOL    HW231536  10.698  14.631  11.833
43235SOL     OW31537   8.830  10.839   4.961
43235SOL    HW131538   8.815  10.916   5.016
43235SOL    HW231539   8.752  10.834   4.906
43236SOL     OW31540   1.053   8.617  12.326
43236SOL    HW131541   0.979   8.662  12.368
43236SOL    HW231542   1.014   8.577  12.247
43237SOL     OW31543  10.427   6.790   4.522
43237SOL    HW131544  10.472   6.870   4.551
43237SOL    HW231545  10.344   6.821   4.485
43238SOL     OW31546   5.652   8.509  12.265
43238SOL    HW131547   5.704   8.502  12.345
43238SOL    HW231548   5.704   8.564  12.207
43239SOL     OW31549   9.814   3.242   5.366
43239SOL    HW131550   9.782   3.241   5.276
43239SOL    HW231551   9.888   3.181   5.365
43240SOL     OW31552  12.072   9.856   6.418
43240SOL    HW131553  11.981   9.847   6.444
43240SOL    HW231554  12.083   9.949   6.398
43241SOL     OW31555  10.407  11.014   4.801
43241SOL    HW131556  10.382  11.079   4.867
43241SOL    HW231557  10.495  11.040   4.773
43242SOL     OW31558   6.610  10.901  10.459
43242SOL    HW131559   6.649  10.826  10.413
43242SOL    HW231560   6.541  10.862  10.513
43243SOL     OW31561   6.309   6.506   4.166
43243SOL    HW131562   6.378   6.572   4.163
43243SOL    HW231563   6.355   6.425   4.191
43244SOL     OW31564  11.483   0.106   6.186
43244SOL    HW131565  11.404   0.067   6.148
43244SOL    HW231566  11.505   0.178   6.127
43245SOL     OW31567   1.733   9.340   2.891
43245SOL    HW131568   1.812   9.389   2.913
43245SOL    HW231569   1.765   9.255   2.863
43246SOL     OW31570  10.264  10.102   7.306
43246SOL    HW131571  10.249  10.188   7.344
43246SOL    HW231572  10.258  10.117   7.211
43247SOL     OW31573   7.760   6.091   2.044
43247SOL    HW131574   7.730   6.072   1.955
43247SOL    HW231575   7.852   6.115   2.034
43248SOL     OW31576   0.006   7.023   6.811
43248SOL    HW131577   0.048   7.094   6.860
43248SOL    HW231578   0.051   6.944   6.840
43249SOL     OW31579   0.990   5.656   9.861
43249SOL    HW131580   0.967   5.709   9.784
43249SOL    HW231581   0.907   5.619   9.890
43250SOL     OW31582   0.966   0.467   3.686
43250SOL    HW131583   0.914   0.530   3.736
43250SOL    HW231584   0.973   0.391   3.744
43251SOL     OW31585   3.472  13.432   3.747
43251SOL    HW131586   3.521  13.417   3.827
43251SOL    HW231587   3.465  13.527   3.741
43252SOL     OW31588   3.802  11.759  13.587
43252SOL    HW131589   3.708  11.776  13.580
43252SOL    HW231590   3.828  11.732  13.499
43253SOL     OW31591   5.601  11.581   1.653
43253SOL    HW131592   5.612  11.667   1.694
43253SOL    HW231593   5.508  11.562   1.661
43254SOL     OW31594  14.595   8.845   1.293
43254SOL    HW131595  14.509   8.804   1.300
43254SOL    HW231596  14.629   8.846   1.382
43255SOL     OW31597   4.781   8.265   5.219
43255SOL    HW131598   4.713   8.254   5.284
43255SOL    HW231599   4.786   8.180   5.174
43256SOL     OW31600  14.054   3.557   8.266
43256SOL    HW131601  13.995   3.482   8.274
43256SOL    HW231602  14.028   3.599   8.184
43257SOL     OW31603   4.660  13.803   8.610
43257SOL    HW131604   4.575  13.773   8.579
43257SOL    HW231605   4.717  13.799   8.533
43258SOL     OW31606   9.736   6.275  10.167
43258SOL    HW131607   9.738   6.370  10.158
43258SOL    HW231608   9.758   6.242  10.079
43259SOL     OW31609   2.599   3.299   0.032
43259SOL    HW131610   2.647   3.333   0.107
43259SOL    HW231611   2.665   3.250  14.855
43260SOL     OW31612  13.935  13.340   5.904
43260SOL    HW131613  13.965  13.274   5.967
43260SOL    HW231614  14.002  13.409   5.909
43261SOL     OW31615   9.314  12.076  12.747
43261SOL    HW131616   9.375  12.007  12.719
43261SOL    HW231617   9.282  12.047  12.832
43262SOL     OW31618   2.432   0.964  12.648
43262SOL    HW131619   2.481   0.936  12.725
43262SOL    HW231620   2.486   1.034  12.610
43263SOL     OW31621   5.504   0.762   4.343
43263SOL    HW131622   5.413   0.750   4.317
43263SOL    HW231623   5.500   0.802   4.429
43264SOL     OW31624  10.365   1.866  11.893
43264SOL    HW131625  10.371   1.785  11.841
43264SOL    HW231626  10.311   1.842  11.968
43265SOL     OW31627   3.131   9.187   0.001
43265SOL    HW131628   3.066   9.161  14.809
43265SOL    HW231629   3.174   9.105   0.026
43266SOL     OW31630   6.243   6.867  11.680
43266SOL    HW131631   6.309   6.857  11.611
43266SOL    HW231632   6.276   6.937  11.736
43267SOL     OW31633   4.877  11.698   2.778
43267SOL    HW131634   4.895  11.772   2.836
43267SOL    HW231635   4.782  11.684   2.785
43268SOL     OW31636   6.565  13.903  14.324
43268SOL    HW131637   6.625  13.887  14.397
43268SOL    HW231638   6.622  13.931  14.252
43269SOL     OW31639  11.826   7.163   6.380
43269SOL    HW131640  11.833   7.077   6.421
43269SOL    HW231641  11.830   7.144   6.286
43270SOL     OW31642  10.281   4.770  13.189
43270SOL    HW131643  10.346   4.753  13.257
43270SOL    HW231644  10.199   4.781  13.237
43271SOL     OW31645   7.464   2.601  12.437
43271SOL    HW131646   7.524   2.661  12.393
43271SOL    HW231647   7.516   2.523  12.457
43272SOL     OW31648   3.356  14.726   8.940
43272SOL    HW131649   3.331  14.639   8.908
43272SOL    HW231650   3.376  14.776   8.861
43273SOL     OW31651  12.066   6.876   3.778
43273SOL    HW131652  12.021   6.792   3.788
43273SOL    HW231653  12.001   6.932   3.736
43274SOL     OW31654   2.961  13.867   8.283
43274SOL    HW131655   2.921  13.914   8.209
43274SOL    HW231656   2.913  13.784   8.288
43275SOL     OW31657   7.411   4.914   7.235
43275SOL    HW131658   7.403   4.845   7.300
43275SOL    HW231659   7.498   4.951   7.249
43276SOL     OW31660   8.978   1.480   4.306
43276SOL    HW131661   9.018   1.567   4.308
43276SOL    HW231662   9.014   1.435   4.382
43277SOL     OW31663   1.387   5.028   9.420
43277SOL    HW131664   1.419   4.991   9.338
43277SOL    HW231665   1.445   5.102   9.438
43278SOL     OW31666  10.886   3.605   4.543
43278SOL    HW131667  10.794   3.616   4.565
43278SOL    HW231668  10.931   3.607   4.628
43279SOL     OW31669  10.410   3.392   4.074
43279SOL    HW131670  10.401   3.304   4.110
43279SOL    HW231671  10.474   3.435   4.130
43280SOL     OW31672   0.620   3.547  13.894
43280SOL    HW131673   0.639   3.515  13.982
43280SOL    HW231674   0.585   3.635  13.907
43281SOL     OW31675   7.837  10.844  12.018
43281SOL    HW131676   7.889  10.782  11.966
43281SOL    HW231677   7.786  10.788  12.077
43282SOL     OW31678  14.455   5.147  12.934
43282SOL    HW131679  14.390   5.193  12.881
43282SOL    HW231680  14.536   5.154  12.884
43283SOL     OW31681   5.234  13.294  12.866
43283SOL    HW131682   5.291  13.217  12.876
43283SOL    HW231683   5.229  13.306  12.771
43284SOL     OW31684   4.979   5.919   9.762
43284SOL    HW131685   5.074   5.929   9.761
43284SOL    HW231686   4.946   6.000   9.724
43285SOL     OW31687  11.053   0.661  10.589
43285SOL    HW131688  11.052   0.639  10.682
43285SOL    HW231689  11.058   0.756  10.587
43286SOL     OW31690   3.378  10.483   2.459
43286SOL    HW131691   3.472  10.468   2.465
43286SOL    HW231692   3.347  10.420   2.394
43287SOL     OW31693  14.133   8.343   0.809
43287SOL    HW131694  14.194   8.397   0.860
43287SOL    HW231695  14.178   8.329   0.726
43288SOL     OW31696  11.850   5.992   6.712
43288SOL    HW131697  11.918   6.011   6.647
43288SOL    HW231698  11.847   6.070   6.767
43289SOL     OW31699  12.658   2.577  11.920
43289SOL    HW131700  12.663   2.666  11.885
43289SOL    HW231701  12.595   2.582  11.991
43290SOL     OW31702   1.107   8.596   5.353
43290SOL    HW131703   1.062   8.549   5.283
43290SOL    HW231704   1.118   8.685   5.319
43291SOL     OW31705  10.134  14.208  12.244
43291SOL    HW131706  10.152  14.146  12.315
43291SOL    HW231707  10.213  14.262  12.240
43292SOL     OW31708   8.520   5.630   4.883
43292SOL    HW131709   8.566   5.608   4.964
43292SOL    HW231710   8.498   5.723   4.892
43293SOL     OW31711  12.952  13.942   8.668
43293SOL    HW131712  12.877  14.000   8.668
43293SOL    HW231713  13.027  13.998   8.647
43294SOL     OW31714  10.756  10.534  12.051
43294SOL    HW131715  10.774  10.443  12.027
43294SOL    HW231716  10.842  10.577  12.048
43295SOL     OW31717  12.423  14.269  11.874
43295SOL    HW131718  12.404  14.178  11.852
43295SOL    HW231719  12.352  14.294  11.933
43296SOL     OW31720   4.177   1.465  13.755
43296SOL    HW131721   4.183   1.494  13.664
43296SOL    HW231722   4.112   1.395  13.753
43297SOL     OW31723   2.791  12.516   4.630
43297SOL    HW131724   2.875  12.471   4.620
43297SOL    HW231725   2.812  12.609   4.626
43298SOL     OW31726  14.111   4.255  14.807
43298SOL    HW131727  14.157   4.337  14.822
43298SOL    HW231728  14.181   4.190  14.798
43299SOL     OW31729   8.088   0.856   8.431
43299SOL    HW131730   8.070   0.764   8.414
43299SOL    HW231731   8.182   0.859   8.447
43300SOL     OW31732   1.624   9.035  13.677
43300SOL    HW131733   1.684   9.085  13.621
43300SOL    HW231734   1.671   8.954  13.697
43301SOL     OW31735  13.206   5.562   9.623
43301SOL    HW131736  13.239   5.606   9.545
43301SOL    HW231737  13.262   5.486   9.634
43302SOL     OW31738   7.816  13.730   0.284
43302SOL    HW131739   7.866  13.783   0.222
43302SOL    HW231740   7.866  13.648   0.290
43303SOL     OW31741   9.524   3.344  12.526
43303SOL    HW131742   9.611   3.384  12.525
43303SOL    HW231743   9.506   3.324  12.434
43304SOL     OW31744   1.250  10.982   4.558
43304SOL    HW131745   1.316  11.051   4.553
43304SOL    HW231746   1.167  11.029   4.567
43305SOL     OW31747   3.489   3.420   2.437
43305SOL    HW131748   3.429   3.350   2.463
43305SOL    HW231749   3.432   3.496   2.421
43306SOL     OW31750   8.318  11.126  13.632
43306SOL    HW131751   8.364  11.042  13.643
43306SOL    HW231752   8.383  11.184  13.592
43307SOL     OW31753  11.953  14.439  13.554
43307SOL    HW131754  11.892  14.493  13.503
43307SOL    HW231755  11.912  14.353  13.559
43308SOL     OW31756   9.837  11.659  10.951
43308SOL    HW131757   9.823  11.637  11.043
43308SOL    HW231758   9.931  11.674  10.944
43309SOL     OW31759   9.313   1.961   3.083
43309SOL    HW131760   9.390   2.014   3.063
43309SOL    HW231761   9.274   1.942   2.998
43310SOL     OW31762   2.853  11.772  10.218
43310SOL    HW131763   2.902  11.815  10.147
43310SOL    HW231764   2.837  11.842  10.281
43311SOL     OW31765   7.522   3.161   2.951
43311SOL    HW131766   7.496   3.215   2.876
43311SOL    HW231767   7.610   3.192   2.973
43312SOL     OW31768  11.417  10.505  14.531
43312SOL    HW131769  11.390  10.488  14.621
43312SOL    HW231770  11.364  10.445  14.479
43313SOL     OW31771  10.319   0.736  13.821
43313SOL    HW131772  10.386   0.742  13.753
43313SOL    HW231773  10.252   0.798  13.794
43314SOL     OW31774   9.643   9.750   9.988
43314SOL    HW131775   9.576   9.790  10.044
43314SOL    HW231776   9.622   9.656   9.989
43315SOL     OW31777  13.951  14.761   0.855
43315SOL    HW131778  14.037  14.773   0.814
43315SOL    HW231779  13.892  14.813   0.801
43316SOL     OW31780   5.760   2.840  12.836
43316SOL    HW131781   5.803   2.828  12.751
43316SOL    HW231782   5.740   2.934  12.840
43317SOL     OW31783  10.744  14.481  13.039
43317SOL    HW131784  10.755  14.572  13.010
43317SOL    HW231785  10.760  14.429  12.959
43318SOL     OW31786   2.667  12.018  11.330
43318SOL    HW131787   2.662  12.008  11.235
43318SOL    HW231788   2.580  12.051  11.355
43319SOL     OW31789   6.433   3.927  11.341
43319SOL    HW131790   6.508   3.982  11.316
43319SOL    HW231791   6.395   3.898  11.259
43320SOL     OW31792  13.847   8.461   5.050
43320SOL    HW131793  13.886   8.526   4.992
43320SOL    HW231794  13.753   8.483   5.051
43321SOL     OW31795   2.590   4.955   6.347
43321SOL    HW131796   2.616   4.872   6.386
43321SOL    HW231797   2.620   5.021   6.409
43322SOL     OW31798   4.178   1.818  11.368
43322SOL    HW131799   4.125   1.739  11.375
43322SOL    HW231800   4.114   1.888  11.354
43323SOL     OW31801   5.857   8.168  13.694
43323SOL    HW131802   5.851   8.123  13.777
43323SOL    HW231803   5.903   8.250  13.714
43324SOL     OW31804  12.486   2.732  12.349
43324SOL    HW131805  12.494   2.693  12.262
43324SOL    HW231806  12.550   2.684  12.402
43325SOL     OW31807   9.473   9.020   2.262
43325SOL    HW131808   9.558   8.976   2.256
43325SOL    HW231809   9.491   9.110   2.234
43326SOL     OW31810   7.963  13.345   2.474
43326SOL    HW131811   8.018  13.356   2.396
43326SOL    HW231812   7.896  13.283   2.447
43327SOL     OW31813   0.976   8.025   8.609
43327SOL    HW131814   0.904   8.075   8.647
43327SOL    HW231815   1.036   8.009   8.682
43328SOL     OW31816  12.274  14.452   2.416
43328SOL    HW131817  12.361  14.494   2.413
43328SOL    HW231818  12.292  14.359   2.408
43329SOL     OW31819  11.713  12.979   9.035
43329SOL    HW131820  11.732  13.055   9.091
43329SOL    HW231821  11.793  12.927   9.039
43330SOL     OW31822   2.942  10.700   3.894
43330SOL    HW131823   2.876  10.766   3.911
43330SOL    HW231824   2.980  10.682   3.980
43331SOL     OW31825   6.580   3.809   0.387
43331SOL    HW131826   6.486   3.822   0.403
43331SOL    HW231827   6.593   3.836   0.296
43332SOL     OW31828   4.995  12.699  10.953
43332SOL    HW131829   4.907  12.694  10.914
43332SOL    HW231830   5.014  12.609  10.979
43333SOL     OW31831   0.173  12.802   1.321
43333SOL    HW131832   0.199  12.796   1.413
43333SOL    HW231833   0.103  12.736   1.311
43334SOL     OW31834   7.795   4.645   9.000
43334SOL    HW131835   7.880   4.635   8.958
43334SOL    HW231836   7.731   4.630   8.930
43335SOL     OW31837  13.457  11.062   5.920
43335SOL    HW131838  13.397  11.109   5.862
43335SOL    HW231839  13.440  11.098   6.007
43336SOL     OW31840   4.261   9.758   9.902
43336SOL    HW131841   4.273   9.817   9.975
43336SOL    HW231842   4.299   9.804   9.827
43337SOL     OW31843  12.234  12.652   3.170
43337SOL    HW131844  12.261  12.562   3.150
43337SOL    HW231845  12.202  12.648   3.260
43338SOL     OW31846   7.671  10.355   5.889
43338SOL    HW131847   7.703  10.284   5.944
43338SOL    HW231848   7.661  10.317   5.802
43339SOL     OW31849   1.362   1.891   3.229
43339SOL    HW131850   1.347   1.807   3.271
43339SOL    HW231851   1.294   1.897   3.162
43340SOL     OW31852  12.533   8.748   5.036
43340SOL    HW131853  12.566   8.838   5.040
43340SOL    HW231854  12.549   8.712   5.123
43341SOL     OW31855   0.123   6.431   0.067
43341SOL    HW131856   0.216   6.440   0.091
43341SOL    HW231857   0.107   6.337   0.066
43342SOL     OW31858  11.628   5.196  14.024
43342SOL    HW131859  11.570   5.268  13.999
43342SOL    HW231860  11.625   5.136  13.949
43343SOL     OW31861  10.424   8.723  10.324
43343SOL    HW131862  10.504   8.764  10.356
43343SOL    HW231863  10.383   8.687  10.403
43344SOL     OW31864  13.263   3.681   6.881
43344SOL    HW131865  13.287   3.771   6.856
43344SOL    HW231866  13.185   3.691   6.936
43345SOL     OW31867   8.851   8.664   3.462
43345SOL    HW131868   8.880   8.573   3.450
43345SOL    HW231869   8.915   8.716   3.413
43346SOL     OW31870   5.575   1.654   4.702
43346SOL    HW131871   5.488   1.694   4.705
43346SOL    HW231872   5.635   1.729   4.706
43347SOL     OW31873   0.603   2.405   4.921
43347SOL    HW131874   0.577   2.450   5.001
43347SOL    HW231875   0.672   2.460   4.884
43348SOL     OW31876   4.637  14.159   4.679
43348SOL    HW131877   4.671  14.231   4.626
43348SOL    HW231878   4.557  14.131   4.633
43349SOL     OW31879  13.669  10.131  13.300
43349SOL    HW131880  13.651  10.062  13.235
43349SOL    HW231881  13.612  10.203  13.274
43350SOL     OW31882   1.294   1.935   6.329
43350SOL    HW131883   1.206   1.908   6.305
43350SOL    HW231884   1.285   1.970   6.418
43351SOL     OW31885   1.621  14.691  14.822
43351SOL    HW131886   1.612  14.786  14.829
43351SOL    HW231887   1.533  14.658  14.839
43352SOL     OW31888  11.377   7.731   3.588
43352SOL    HW131889  11.387   7.676   3.510
43352SOL    HW231890  11.301   7.695   3.634
43353SOL     OW31891   7.569  12.042   9.857
43353SOL    HW131892   7.575  12.014   9.766
43353SOL    HW231893   7.649  12.093   9.872
43354SOL     OW31894   1.279   6.007   8.489
43354SOL    HW131895   1.219   5.939   8.458
43354SOL    HW231896   1.315   6.046   8.410
43355SOL     OW31897  11.988   3.532   9.056
43355SOL    HW131898  12.043   3.495   9.125
43355SOL    HW231899  11.956   3.615   9.092
43356SOL     OW31900   6.852  12.424   9.313
43356SOL    HW131901   6.887  12.442   9.401
43356SOL    HW231902   6.915  12.465   9.254
43357SOL     OW31903  12.677   6.790  11.465
43357SOL    HW131904  12.646   6.790  11.375
43357SOL    HW231905  12.622   6.726  11.510
43358SOL     OW31906   7.991  14.858  11.563
43358SOL    HW131907   7.947  14.867  11.648
43358SOL    HW231908   7.922  14.828  11.504
43359SOL     OW31909   8.721   9.230  10.628
43359SOL    HW131910   8.689   9.317  10.605
43359SOL    HW231911   8.759   9.196  10.547
43360SOL     OW31912   1.601   3.675  12.300
43360SOL    HW131913   1.688   3.704  12.271
43360SOL    HW231914   1.560   3.755  12.334
43361SOL     OW31915  13.804  14.347   0.486
43361SOL    HW131916  13.897  14.354   0.504
43361SOL    HW231917  13.768  14.305   0.565
43362SOL     OW31918  10.130   7.117   6.588
43362SOL    HW131919  10.114   7.122   6.494
43362SOL    HW231920  10.203   7.177   6.604
43363SOL     OW31921   3.133  12.423   1.800
43363SOL    HW131922   3.220  12.460   1.781
43363SOL    HW231923   3.093  12.411   1.714
43364SOL     OW31924   9.389   3.965   7.562
43364SOL    HW131925   9.333   3.896   7.526
43364SOL    HW231926   9.461   3.971   7.499
43365SOL     OW31927  14.808   5.156   7.173
43365SOL    HW131928  14.871   5.161   7.100
43365SOL    HW231929  14.725   5.183   7.134
43366SOL     OW31930   9.199   6.404   2.467
43366SOL    HW131931   9.139   6.443   2.530
43366SOL    HW231932   9.231   6.325   2.511
43367SOL     OW31933  10.314   3.978   7.880
43367SOL    HW131934  10.263   3.902   7.852
43367SOL    HW231935  10.309   3.976   7.975
43368SOL     OW31936   3.633   6.017   1.415
43368SOL    HW131937   3.663   6.036   1.504
43368SOL    HW231938   3.555   6.071   1.404
43369SOL     OW31939   8.013   7.685   8.772
43369SOL    HW131940   7.926   7.676   8.811
43369SOL    HW231941   8.033   7.779   8.778
43370SOL     OW31942   4.712   8.376   2.037
43370SOL    HW131943   4.800   8.394   2.004
43370SOL    HW231944   4.690   8.289   2.004
43371SOL     OW31945   1.990   3.001   9.236
43371SOL    HW131946   2.013   3.030   9.148
43371SOL    HW231947   1.920   2.936   9.223
43372SOL     OW31948  11.991  11.157   0.279
43372SOL    HW131949  12.081  11.128   0.296
43372SOL    HW231950  11.979  11.233   0.337
43373SOL     OW31951   9.972   2.336   8.366
43373SOL    HW131952   9.938   2.324   8.277
43373SOL    HW231953   9.926   2.413   8.399
43374SOL     OW31954  13.454   3.498  14.093
43374SOL    HW131955  13.405   3.522  14.014
43374SOL    HW231956  13.473   3.405  14.082
43375SOL     OW31957  14.497   9.334  14.832
43375SOL    HW131958  14.526   9.380  14.753
43375SOL    HW231959  14.468   9.405   0.017
43376SOL     OW31960  11.257   9.939   3.894
43376SOL    HW131961  11.343   9.980   3.901
43376SOL    HW231962  11.251   9.883   3.972
43377SOL     OW31963  11.424  10.348   3.785
43377SOL    HW131964  11.383  10.407   3.849
43377SOL    HW231965  11.516  10.373   3.784
43378SOL     OW31966   4.420   1.046   8.432
43378SOL    HW131967   4.402   1.111   8.500
43378SOL    HW231968   4.394   0.962   8.471
43379SOL     OW31969   6.315   0.752   1.388
43379SOL    HW131970   6.272   0.835   1.370
43379SOL    HW231971   6.408   0.771   1.379
43380SOL     OW31972   5.795  14.272   6.552
43380SOL    HW131973   5.739  14.349   6.541
43380SOL    HW231974   5.820  14.248   6.463
43381SOL     OW31975   9.492   7.111  12.926
43381SOL    HW131976   9.443   7.151  12.854
43381SOL    HW231977   9.440   7.035  12.951
43382SOL     OW31978   7.448  14.676  13.863
43382SOL    HW131979   7.484  14.746  13.918
43382SOL    HW231980   7.523  14.621  13.841
43383SOL     OW31981  10.136   2.897  10.394
43383SOL    HW131982  10.122   2.940  10.310
43383SOL    HW231983  10.124   2.804  10.376
43384SOL     OW31984  14.272   5.011   8.268
43384SOL    HW131985  14.272   5.061   8.186
43384SOL    HW231986  14.344   5.050   8.318
43385SOL     OW31987   4.539   3.176  11.240
43385SOL    HW131988   4.471   3.206  11.180
43385SOL    HW231989   4.532   3.235  11.316
43386SOL     OW31990   8.840   9.827   6.668
43386SOL    HW131991   8.880   9.851   6.584
43386SOL    HW231992   8.903   9.857   6.734
43387SOL     OW31993  13.768   1.969   0.062
43387SOL    HW131994  13.762   2.044   0.121
43387SOL    HW231995  13.721   1.997  14.856
43388SOL     OW31996  12.422   8.560   6.317
43388SOL    HW131997  12.414   8.465   6.330
43388SOL    HW231998  12.374   8.577   6.236
43389SOL     OW31999   7.821   5.058   3.609
43389SOL    HW132000   7.863   4.978   3.580
43389SOL    HW232001   7.740   5.029   3.652
43390SOL     OW32002   2.237   7.809   2.455
43390SOL    HW132003   2.200   7.836   2.371
43390SOL    HW232004   2.163   7.773   2.503
43391SOL     OW32005   5.989   1.290  13.205
43391SOL    HW132006   5.907   1.243  13.217
43391SOL    HW232007   5.997   1.300  13.110
43392SOL     OW32008   6.314  12.522   2.686
43392SOL    HW132009   6.351  12.574   2.615
43392SOL    HW232010   6.366  12.545   2.763
43393SOL     OW32011  13.788  14.560   1.256
43393SOL    HW132012  13.880  14.570   1.278
43393SOL    HW232013  13.768  14.636   1.201
43394SOL     OW32014   4.141  10.702   1.632
43394SOL    HW132015   4.170  10.792   1.622
43394SOL    HW232016   4.079  10.705   1.705
43395SOL     OW32017   7.378   4.542  12.285
43395SOL    HW132018   7.426   4.522  12.364
43395SOL    HW232019   7.429   4.503  12.214
43396SOL     OW32020   3.412   3.499   6.476
43396SOL    HW132021   3.387   3.574   6.423
43396SOL    HW232022   3.481   3.456   6.426
43397SOL     OW32023  11.251   8.695   1.589
43397SOL    HW132024  11.163   8.707   1.625
43397SOL    HW232025  11.300   8.652   1.659
43398SOL     OW32026   4.940   5.436   9.726
43398SOL    HW132027   4.993   5.497   9.778
43398SOL    HW232028   4.979   5.439   9.639
43399SOL     OW32029   9.822   1.815  14.417
43399SOL    HW132030   9.820   1.907  14.444
43399SOL    HW232031   9.794   1.767  14.494
43400SOL     OW32032   8.073   6.298   4.621
43400SOL    HW132033   8.134   6.225   4.611
43400SOL    HW232034   8.021   6.276   4.698
43401SOL     OW32035   5.051  11.998   7.995
43401SOL    HW132036   4.987  11.959   8.055
43401SOL    HW232037   4.999  12.052   7.936
43402SOL     OW32038  10.730   8.950   0.739
43402SOL    HW132039  10.719   9.043   0.758
43402SOL    HW232040  10.818   8.928   0.771
43403SOL     OW32041  10.853  13.047  11.003
43403SOL    HW132042  10.866  12.957  11.032
43403SOL    HW232043  10.779  13.079  11.056
43404SOL     OW32044   8.682   9.425  12.582
43404SOL    HW132045   8.628   9.421  12.503
43404SOL    HW232046   8.729   9.508  12.574
43405SOL     OW32047   9.045   3.247   1.816
43405SOL    HW132048   9.070   3.266   1.725
43405SOL    HW232049   9.032   3.152   1.818
43406SOL     OW32050   9.625   3.228   2.379
43406SOL    HW132051   9.638   3.254   2.288
43406SOL    HW232052   9.666   3.142   2.386
43407SOL     OW32053  12.913   4.857  11.706
43407SOL    HW132054  12.954   4.862  11.620
43407SOL    HW232055  12.865   4.940  11.714
43408SOL     OW32056   4.884   3.324   7.081
43408SOL    HW132057   4.960   3.363   7.039
43408SOL    HW232058   4.876   3.371   7.164
43409SOL     OW32059   1.133  14.065   5.293
43409SOL    HW132060   1.162  13.984   5.336
43409SOL    HW232061   1.150  14.049   5.200
43410SOL     OW32062   6.213   3.391   6.736
43410SOL    HW132063   6.214   3.387   6.832
43410SOL    HW232064   6.189   3.303   6.708
43411SOL     OW32065  11.006  14.313   8.759
43411SOL    HW132066  10.986  14.221   8.742
43411SOL    HW232067  11.065  14.338   8.689
43412SOL     OW32068  12.300   9.006   5.465
43412SOL    HW132069  12.272   8.933   5.409
43412SOL    HW232070  12.380   8.974   5.507
43413SOL     OW32071   0.325   6.705   5.982
43413SOL    HW132072   0.230   6.703   5.996
43413SOL    HW232073   0.345   6.621   5.940
43414SOL     OW32074   2.399   1.369   7.101
43414SOL    HW132075   2.488   1.401   7.085
43414SOL    HW232076   2.362   1.354   7.014
43415SOL     OW32077   4.636  10.729  10.532
43415SOL    HW132078   4.572  10.665  10.502
43415SOL    HW232079   4.702  10.731  10.463
43416SOL     OW32080  11.162   5.070   3.333
43416SOL    HW132081  11.098   5.030   3.391
43416SOL    HW232082  11.192   5.148   3.382
43417SOL     OW32083  14.795   7.492   4.735
43417SOL    HW132084  14.772   7.544   4.811
43417SOL    HW232085  14.864   7.433   4.766
43418SOL     OW32086  14.812   2.089  10.011
43418SOL    HW132087   0.033   2.071  10.016
43418SOL    HW232088  14.794   2.098   9.918
43419SOL     OW32089   0.805   8.437   9.764
43419SOL    HW132090   0.889   8.411   9.726
43419SOL    HW232091   0.740   8.410   9.700
43420SOL     OW32092   0.771   5.413   9.682
43420SOL    HW132093   0.849   5.359   9.674
43420SOL    HW232094   0.757   5.449   9.594
43421SOL     OW32095   5.082  14.030   9.086
43421SOL    HW132096   5.063  14.111   9.039
43421SOL    HW232097   5.075  14.053   9.179
43422SOL     OW32098   9.925  13.510  10.280
43422SOL    HW132099   9.977  13.542  10.206
43422SOL    HW232100   9.950  13.417  10.288
43423SOL     OW32101   3.204   4.882   9.281
43423SOL    HW132102   3.227   4.929   9.201
43423SOL    HW232103   3.133   4.934   9.319
43424SOL     OW32104  12.848  13.935   2.620
43424SOL    HW132105  12.883  13.897   2.700
43424SOL    HW232106  12.890  13.886   2.550
43425SOL     OW32107   8.025   4.173   3.707
43425SOL    HW132108   8.017   4.268   3.714
43425SOL    HW232109   7.935   4.140   3.718
43426SOL     OW32110   6.220  11.042   6.206
43426SOL    HW132111   6.159  11.055   6.133
43426SOL    HW232112   6.243  10.949   6.201
43427SOL     OW32113   7.196   7.269   5.292
43427SOL    HW132114   7.187   7.206   5.363
43427SOL    HW232115   7.108   7.277   5.255
43428SOL     OW32116   6.299  11.329   5.367
43428SOL    HW132117   6.336  11.412   5.397
43428SOL    HW232118   6.206  11.335   5.388
43429SOL     OW32119  13.208  10.687  13.214
43429SOL    HW132120  13.220  10.593  13.203
43429SOL    HW232121  13.122  10.706  13.176
43430SOL     OW32122   9.818   0.506  10.873
43430SOL    HW132123   9.791   0.429  10.823
43430SOL    HW232124   9.821   0.577  10.808
43431SOL     OW32125   1.587   3.451   0.007
43431SOL    HW132126   1.606   3.545   0.010
43431SOL    HW232127   1.660   3.410   0.054
43432SOL     OW32128   4.800  13.944   9.925
43432SOL    HW132129   4.838  13.971   9.842
43432SOL    HW232130   4.751  14.020   9.955
43433SOL     OW32131  11.435   8.554   9.019
43433SOL    HW132132  11.397   8.542   8.932
43433SOL    HW232133  11.443   8.465   9.054
43434SOL     OW32134   3.281  12.271   7.737
43434SOL    HW132135   3.348  12.337   7.718
43434SOL    HW232136   3.327  12.205   7.789
43435SOL     OW32137   2.922  12.173   8.654
43435SOL    HW132138   2.932  12.078   8.648
43435SOL    HW232139   2.828  12.188   8.659
43436SOL     OW32140   9.447   2.515  13.708
43436SOL    HW132141   9.541   2.496  13.699
43436SOL    HW232142   9.408   2.432  13.735
43437SOL     OW32143   3.362   9.038   0.950
43437SOL    HW132144   3.434   9.074   0.899
43437SOL    HW232145   3.337   9.108   1.010
43438SOL     OW32146   1.308  14.268  14.063
43438SOL    HW132147   1.292  14.173  14.063
43438SOL    HW232148   1.245  14.303  14.001
43439SOL     OW32149   7.800   2.233   2.723
43439SOL    HW132150   7.734   2.165   2.733
43439SOL    HW232151   7.881   2.185   2.705
43440SOL     OW32152   6.068   7.763   8.026
43440SOL    HW132153   5.997   7.786   8.085
43440SOL    HW232154   6.025   7.720   7.952
43441SOL     OW32155   3.151   9.106   9.159
43441SOL    HW132156   3.086   9.049   9.199
43441SOL    HW232157   3.152   9.081   9.066
43442SOL     OW32158   8.990   5.831  13.902
43442SOL    HW132159   9.041   5.846  13.823
43442SOL    HW232160   8.899   5.839  13.873
43443SOL     OW32161  10.792   4.672  13.444
43443SOL    HW132162  10.735   4.695  13.517
43443SOL    HW232163  10.866   4.733  13.450
43444SOL     OW32164   7.828   9.315   8.668
43444SOL    HW132165   7.804   9.279   8.753
43444SOL    HW232166   7.876   9.245   8.625
43445SOL     OW32167   7.297  12.995  14.378
43445SOL    HW132168   7.243  13.061  14.335
43445SOL    HW232169   7.239  12.953  14.440
43446SOL     OW32170   6.664   3.032   9.957
43446SOL    HW132171   6.578   3.028   9.998
43446SOL    HW232172   6.681   3.126   9.948
43447SOL     OW32173  13.756   8.153  12.166
43447SOL    HW132174  13.729   8.217  12.232
43447SOL    HW232175  13.849   8.170  12.154
43448SOL     OW32176  14.498  12.736   3.236
43448SOL    HW132177  14.587  12.766   3.218
43448SOL    HW232178  14.446  12.766   3.162
43449SOL     OW32179   8.017   0.106  12.301
43449SOL    HW132180   7.968   0.079  12.224
43449SOL    HW232181   8.095   0.150  12.267
43450SOL     OW32182   0.595   1.170   8.733
43450SOL    HW132183   0.620   1.080   8.710
43450SOL    HW232184   0.514   1.160   8.783
43451SOL     OW32185   6.002   7.382   6.036
43451SOL    HW132186   5.981   7.463   6.083
43451SOL    HW232187   6.062   7.410   5.967
43452SOL     OW32188   3.793   8.351  10.543
43452SOL    HW132189   3.745   8.280  10.498
43452SOL    HW232190   3.876   8.311  10.568
43453SOL     OW32191   3.905   7.129   4.725
43453SOL    HW132192   3.998   7.123   4.701
43453SOL    HW232193   3.896   7.073   4.802
43454SOL     OW32194   9.192   7.339  11.596
43454SOL    HW132195   9.139   7.259  11.608
43454SOL    HW232196   9.129   7.404  11.565
43455SOL     OW32197   5.792  10.112   8.198
43455SOL    HW132198   5.852  10.112   8.123
43455SOL    HW232199   5.848  10.130   8.273
43456SOL     OW32200   2.422   1.703   1.626
43456SOL    HW132201   2.362   1.713   1.552
43456SOL    HW232202   2.469   1.621   1.609
43457SOL     OW32203   7.250  10.008  13.761
43457SOL    HW132204   7.219   9.918  13.751
43457SOL    HW232205   7.170  10.060  13.764
43458SOL     OW32206   0.841  11.044   8.026
43458SOL    HW132207   0.789  10.964   8.021
43458SOL    HW232208   0.839  11.080   7.937
43459SOL     OW32209   5.739   6.354  11.777
43459SOL    HW132210   5.751   6.389  11.689
43459SOL    HW232211   5.702   6.427  11.827
43460SOL     OW32212  11.541  13.854   3.150
43460SOL    HW132213  11.587  13.898   3.079
43460SOL    HW232214  11.584  13.769   3.157
43461SOL     OW32215   3.597   8.187   3.210
43461SOL    HW132216   3.561   8.261   3.162
43461SOL    HW232217   3.686   8.213   3.232
43462SOL     OW32218   2.919   6.330   5.381
43462SOL    HW132219   2.959   6.256   5.428
43462SOL    HW232220   2.950   6.407   5.427
43463SOL     OW32221   7.824   6.797   4.175
43463SOL    HW132222   7.764   6.785   4.248
43463SOL    HW232223   7.768   6.826   4.103
43464SOL     OW32224  11.127  14.219  10.403
43464SOL    HW132225  11.040  14.255  10.418
43464SOL    HW232226  11.115  14.157  10.331
43465SOL     OW32227   9.535  13.108   1.531
43465SOL    HW132228   9.584  13.108   1.613
43465SOL    HW232229   9.522  13.200   1.510
43466SOL     OW32230   0.433  12.287   8.060
43466SOL    HW132231   0.351  12.241   8.074
43466SOL    HW232232   0.427  12.322   7.971
43467SOL     OW32233   3.206   0.205   5.837
43467SOL    HW132234   3.282   0.257   5.810
43467SOL    HW232235   3.179   0.243   5.921
43468SOL     OW32236   1.710  10.802   8.583
43468SOL    HW132237   1.694  10.723   8.635
43468SOL    HW232238   1.640  10.803   8.518
43469SOL     OW32239  11.145  14.255   9.957
43469SOL    HW132240  11.069  14.295   9.917
43469SOL    HW232241  11.212  14.257   9.889
43470SOL     OW32242   3.577  12.111   4.074
43470SOL    HW132243   3.638  12.046   4.108
43470SOL    HW232244   3.522  12.134   4.148
43471SOL     OW32245   4.601  12.201   4.775
43471SOL    HW132246   4.519  12.177   4.731
43471SOL    HW232247   4.669  12.163   4.720
43472SOL     OW32248   0.417   7.956   6.750
43472SOL    HW132249   0.338   7.928   6.796
43472SOL    HW232250   0.388   7.971   6.660
43473SOL     OW32251  13.355  10.308   7.502
43473SOL    HW132252  13.273  10.337   7.461
43473SOL    HW232253  13.354  10.349   7.588
43474SOL     OW32254   0.245   7.920   4.581
43474SOL    HW132255   0.217   7.957   4.497
43474SOL    HW232256   0.197   7.838   4.589
43475SOL     OW32257  12.848  12.842   2.722
43475SOL    HW132258  12.844  12.919   2.666
43475SOL    HW232259  12.931  12.800   2.700
43476SOL     OW32260  10.214   9.742   5.982
43476SOL    HW132261  10.260   9.805   6.038
43476SOL    HW232262  10.133   9.786   5.958
43477SOL     OW32263  10.024   2.281   9.717
43477SOL    HW132264  10.053   2.372   9.717
43477SOL    HW232265   9.939   2.283   9.673
43478SOL     OW32266  13.503   1.369  12.123
43478SOL    HW132267  13.509   1.349  12.030
43478SOL    HW232268  13.441   1.443  12.128
43479SOL     OW32269   4.805  12.290   7.491
43479SOL    HW132270   4.833  12.379   7.511
43479SOL    HW232271   4.859  12.263   7.417
43480SOL     OW32272   7.899   1.695  14.513
43480SOL    HW132273   7.862   1.783  14.516
43480SOL    HW232274   7.823   1.637  14.518
43481SOL     OW32275   3.667   7.875   7.024
43481SOL    HW132276   3.753   7.853   6.987
43481SOL    HW232277   3.609   7.876   6.949
43482SOL     OW32278   1.283  14.424   5.511
43482SOL    HW132279   1.247  14.339   5.538
43482SOL    HW232280   1.298  14.471   5.593
43483SOL     OW32281   9.089   2.858   5.181
43483SOL    HW132282   9.106   2.940   5.135
43483SOL    HW232283   9.128   2.791   5.126
43484SOL     OW32284   9.180  13.424   9.214
43484SOL    HW132285   9.258  13.372   9.196
43484SOL    HW232286   9.107  13.370   9.182
43485SOL     OW32287  11.737   7.971   1.211
43485SOL    HW132288  11.756   8.065   1.206
43485SOL    HW232289  11.810   7.936   1.262
43486SOL     OW32290   5.849   0.896  12.947
43486SOL    HW132291   5.882   0.808  12.927
43486SOL    HW232292   5.795   0.883  13.026
43487SOL     OW32293   8.250  12.797  12.902
43487SOL    HW132294   8.311  12.849  12.954
43487SOL    HW232295   8.240  12.847  12.821
43488SOL     OW32296   6.312   0.602   4.991
43488SOL    HW132297   6.244   0.581   4.927
43488SOL    HW232298   6.284   0.559   5.071
43489SOL     OW32299   3.681   2.553  13.338
43489SOL    HW132300   3.705   2.639  13.304
43489SOL    HW232301   3.587   2.546  13.321
43490SOL     OW32302  13.086  10.754  14.211
43490SOL    HW132303  13.127  10.769  14.296
43490SOL    HW232304  13.043  10.669  14.220
43491SOL     OW32305   6.343   5.465   3.505
43491SOL    HW132306   6.349   5.378   3.544
43491SOL    HW232307   6.389   5.458   3.422
43492SOL     OW32308   5.596  11.990   2.753
43492SOL    HW132309   5.657  11.935   2.705
43492SOL    HW232310   5.517  11.991   2.699
43493SOL     OW32311  11.744   6.384  10.431
43493SOL    HW132312  11.672   6.338  10.387
43493SOL    HW232313  11.820   6.366  10.376
43494SOL     OW32314  12.938   0.189   3.464
43494SOL    HW132315  12.865   0.127   3.454
43494SOL    HW232316  12.979   0.192   3.378
43495SOL     OW32317  12.839  13.048   9.046
43495SOL    HW132318  12.801  12.965   9.017
43495SOL    HW232319  12.774  13.083   9.107
43496SOL     OW32320   2.738   1.212   3.129
43496SOL    HW132321   2.674   1.276   3.097
43496SOL    HW232322   2.760   1.241   3.217
43497SOL     OW32323   6.755   0.644   9.613
43497SOL    HW132324   6.813   0.615   9.543
43497SOL    HW232325   6.699   0.569   9.631
43498SOL     OW32326  11.328  13.014  14.259
43498SOL    HW132327  11.417  13.045  14.243
43498SOL    HW232328  11.339  12.923  14.287
43499SOL     OW32329   4.425  13.969   4.959
43499SOL    HW132330   4.423  13.877   4.935
43499SOL    HW232331   4.518  13.988   4.974
43500SOL     OW32332  10.506   4.955   2.898
43500SOL    HW132333  10.485   4.985   2.809
43500SOL    HW232334  10.423   4.923   2.932
43501SOL     OW32335   1.986   0.908  12.084
43501SOL    HW132336   2.064   0.910  12.028
43501SOL    HW232337   2.018   0.937  12.170
43502SOL     OW32338   1.884   6.067   1.052
43502SOL    HW132339   1.842   5.997   1.001
43502SOL    HW232340   1.974   6.036   1.065
43503SOL     OW32341   1.931  13.534   2.878
43503SOL    HW132342   1.870  13.461   2.865
43503SOL    HW232343   2.005  13.496   2.925
43504SOL     OW32344   8.248  10.155   3.464
43504SOL    HW132345   8.154  10.148   3.481
43504SOL    HW232346   8.269  10.080   3.409
43505SOL     OW32347   7.533   0.869   9.689
43505SOL    HW132348   7.509   0.832   9.774
43505SOL    HW232349   7.552   0.793   9.634
43506SOL     OW32350  10.255   3.537   3.230
43506SOL    HW132351  10.326   3.525   3.168
43506SOL    HW232352  10.298   3.554   3.313
43507SOL     OW32353   3.615   3.923  12.606
43507SOL    HW132354   3.656   3.838  12.620
43507SOL    HW232355   3.533   3.902  12.560
43508SOL     OW32356  10.526   2.106   1.074
43508SOL    HW132357  10.486   2.085   0.989
43508SOL    HW232358  10.619   2.117   1.054
43509SOL     OW32359  12.381   1.896   2.446
43509SOL    HW132360  12.460   1.950   2.450
43509SOL    HW232361  12.413   1.810   2.417
43510SOL     OW32362   0.559   2.129  12.692
43510SOL    HW132363   0.606   2.098  12.615
43510SOL    HW232364   0.627   2.145  12.758
43511SOL     OW32365   0.808   6.283   4.281
43511SOL    HW132366   0.723   6.289   4.237
43511SOL    HW232367   0.868   6.251   4.213
43512SOL     OW32368   1.516   2.936   0.253
43512SOL    HW132369   1.593   2.884   0.276
43512SOL    HW232370   1.442   2.876   0.262
43513SOL     OW32371  12.803   9.812   4.414
43513SOL    HW132372  12.794   9.717   4.410
43513SOL    HW232373  12.737   9.845   4.353
43514SOL     OW32374   5.790   5.871   8.452
43514SOL    HW132375   5.721   5.834   8.507
43514SOL    HW232376   5.827   5.942   8.504
43515SOL     OW32377   2.279  14.726  13.166
43515SOL    HW132378   2.186  14.749  13.170
43515SOL    HW232379   2.295  14.704  13.074
43516SOL     OW32380   2.457   9.029   5.204
43516SOL    HW132381   2.537   9.072   5.176
43516SOL    HW232382   2.471   8.936   5.186
43517SOL     OW32383   3.530   7.532  13.899
43517SOL    HW132384   3.575   7.602  13.948
43517SOL    HW232385   3.484   7.482  13.966
43518SOL     OW32386   3.978   4.603  10.253
43518SOL    HW132387   3.891   4.638  10.234
43518SOL    HW232388   3.972   4.510  10.231
43519SOL     OW32389  11.287   2.690   1.608
43519SOL    HW132390  11.263   2.646   1.690
43519SOL    HW232391  11.278   2.623   1.541
43520SOL     OW32392   2.083   0.685   0.205
43520SOL    HW132393   2.059   0.764   0.253
43520SOL    HW232394   2.041   0.694   0.120
43521SOL     OW32395   5.005  14.039   8.722
43521SOL    HW132396   5.091  13.998   8.727
43521SOL    HW232397   4.945  13.973   8.758
43522SOL     OW32398   1.542   9.682   9.613
43522SOL    HW132399   1.550   9.648   9.524
43522SOL    HW232400   1.549   9.777   9.602
43523SOL     OW32401   5.502   4.710  14.356
43523SOL    HW132402   5.487   4.791  14.404
43523SOL    HW232403   5.584   4.725  14.308
43524SOL     OW32404   0.635  12.732   5.092
43524SOL    HW132405   0.709  12.792   5.101
43524SOL    HW232406   0.675  12.650   5.062
43525SOL     OW32407   8.490   0.352   4.139
43525SOL    HW132408   8.575   0.357   4.094
43525SOL    HW232409   8.468   0.443   4.158
43526SOL     OW32410   9.448   8.710  14.449
43526SOL    HW132411   9.398   8.643  14.402
43526SOL    HW232412   9.383   8.778  14.470
43527SOL     OW32413   3.112   8.561   4.841
43527SOL    HW132414   3.035   8.536   4.789
43527SOL    HW232415   3.177   8.588   4.776
43528SOL     OW32416   1.152   5.041   9.063
43528SOL    HW132417   1.088   5.020   8.995
43528SOL    HW232418   1.101   5.047   9.143
43529SOL     OW32419   2.359   4.343  12.084
43529SOL    HW132420   2.317   4.425  12.055
43529SOL    HW232421   2.445   4.370  12.115
43530SOL     OW32422  12.516   7.728   6.604
43530SOL    HW132423  12.438   7.713   6.658
43530SOL    HW232424  12.574   7.656   6.626
43531SOL     OW32425   8.557  13.564   0.292
43531SOL    HW132426   8.617  13.619   0.341
43531SOL    HW232427   8.543  13.487   0.347
43532SOL     OW32428   2.344  13.068   2.897
43532SOL    HW132429   2.361  13.156   2.863
43532SOL    HW232430   2.401  13.012   2.844
43533SOL     OW32431   6.891  12.344   5.853
43533SOL    HW132432   6.982  12.341   5.880
43533SOL    HW232433   6.842  12.307   5.927
43534SOL     OW32434  10.992  12.394   7.650
43534SOL    HW132435  10.963  12.321   7.594
43534SOL    HW232436  10.976  12.472   7.597
43535SOL     OW32437   7.296   9.656   1.933
43535SOL    HW132438   7.236   9.725   1.905
43535SOL    HW232439   7.246   9.575   1.923
43536SOL     OW32440   8.957  11.523   6.508
43536SOL    HW132441   8.955  11.428   6.512
43536SOL    HW232442   8.868  11.549   6.484
43537SOL     OW32443   6.484   0.089  12.091
43537SOL    HW132444   6.439   0.089  12.006
43537SOL    HW232445   6.560   0.146  12.078
43538SOL     OW32446   9.956   0.801  10.476
43538SOL    HW132447   9.930   0.863  10.408
43538SOL    HW232448  10.050   0.817  10.488
43539SOL     OW32449  14.870   7.148   9.598
43539SOL    HW132450  14.850   7.190   9.514
43539SOL    HW232451   0.023   7.221   9.655
43540SOL     OW32452   8.482   2.996   9.725
43540SOL    HW132453   8.396   3.038   9.727
43540SOL    HW232454   8.522   3.027   9.643
43541SOL     OW32455  11.265   0.435   5.665
43541SOL    HW132456  11.305   0.482   5.738
43541SOL    HW232457  11.284   0.489   5.589
43542SOL     OW32458  14.871   5.450  14.285
43542SOL    HW132459  14.853   5.435  14.378
43542SOL    HW232460   0.062   5.522  14.284
43543SOL     OW32461   9.787  14.368   2.807
43543SOL    HW132462   9.875  14.404   2.815
43543SOL    HW232463   9.767  14.334   2.895
43544SOL     OW32464   1.960   2.994   1.188
43544SOL    HW132465   1.916   2.990   1.272
43544SOL    HW232466   2.052   2.979   1.208
43545SOL     OW32467   5.174   3.507   0.646
43545SOL    HW132468   5.112   3.577   0.625
43545SOL    HW232469   5.204   3.476   0.560
43546SOL     OW32470   5.265  11.216   8.237
43546SOL    HW132471   5.275  11.246   8.327
43546SOL    HW232472   5.349  11.234   8.195
43547SOL     OW32473   4.701   0.872   5.275
43547SOL    HW132474   4.688   0.881   5.370
43547SOL    HW232475   4.781   0.820   5.266
43548SOL     OW32476   4.055   4.137  11.897
43548SOL    HW132477   4.139   4.173  11.925
43548SOL    HW232478   3.991   4.203  11.921
43549SOL     OW32479   0.592   6.550   4.118
43549SOL    HW132480   0.520   6.503   4.159
43549SOL    HW232481   0.646   6.579   4.191
43550SOL     OW32482   0.154   2.065  12.170
43550SOL    HW132483   0.128   1.989  12.117
43550SOL    HW232484   0.149   2.034  12.260
43551SOL     OW32485   7.571   1.898   8.728
43551SOL    HW132486   7.641   1.883   8.791
43551SOL    HW232487   7.507   1.952   8.775
43552SOL     OW32488   1.765   1.815   3.654
43552SOL    HW132489   1.734   1.753   3.588
43552SOL    HW232490   1.744   1.901   3.619
43553SOL     OW32491   9.265  12.121   2.449
43553SOL    HW132492   9.323  12.143   2.522
43553SOL    HW232493   9.219  12.202   2.430
43554SOL     OW32494   5.611  13.658  11.184
43554SOL    HW132495   5.559  13.668  11.104
43554SOL    HW232496   5.590  13.735  11.236
43555SOL     OW32497  11.726  12.021   3.451
43555SOL    HW132498  11.817  12.051   3.440
43555SOL    HW232499  11.729  11.927   3.433
43556SOL     OW32500   1.878   0.527   1.373
43556SOL    HW132501   1.924   0.610   1.367
43556SOL    HW232502   1.800   0.545   1.425
43557SOL     OW32503   6.259  11.995  13.442
43557SOL    HW132504   6.306  11.958  13.368
43557SOL    HW232505   6.236  11.919  13.495
43558SOL     OW32506   9.363   3.780  13.364
43558SOL    HW132507   9.377   3.794  13.270
43558SOL    HW232508   9.451   3.783  13.401
43559SOL     OW32509   2.673  11.146  13.077
43559SOL    HW132510   2.662  11.202  13.001
43559SOL    HW232511   2.756  11.101  13.062
43560SOL     OW32512   3.069  11.056  14.370
43560SOL    HW132513   3.085  11.066  14.276
43560SOL    HW232514   3.105  11.135  14.409
43561SOL     OW32515   0.236   5.533   8.923
43561SOL    HW132516   0.178   5.607   8.912
43561SOL    HW232517   0.180   5.462   8.955
43562SOL     OW32518   5.035   7.145   4.028
43562SOL    HW132519   4.943   7.120   4.034
43562SOL    HW232520   5.074   7.113   4.110
43563SOL     OW32521  14.084   3.106   4.135
43563SOL    HW132522  14.117   3.100   4.224
43563SOL    HW232523  14.040   3.022   4.120
43564SOL     OW32524   7.274  10.105   6.362
43564SOL    HW132525   7.248  10.038   6.299
43564SOL    HW232526   7.209  10.100   6.431
43565SOL     OW32527  11.794  13.513   0.074
43565SOL    HW132528  11.795  13.438   0.133
43565SOL    HW232529  11.885  13.541   0.068
43566SOL     OW32530  10.853  12.771   4.519
43566SOL    HW132531  10.787  12.832   4.487
43566SOL    HW232532  10.918  12.826   4.563
43567SOL     OW32533   2.059  12.582   2.467
43567SOL    HW132534   1.998  12.520   2.507
43567SOL    HW232535   2.048  12.571   2.373
43568SOL     OW32536  14.857  14.256   2.760
43568SOL    HW132537  14.836  14.166   2.736
43568SOL    HW232538  14.788  14.308   2.718
43569SOL     OW32539   2.260   4.233   5.908
43569SOL    HW132540   2.335   4.289   5.888
43569SOL    HW232541   2.290   4.144   5.888
43570SOL     OW32542   5.007   7.429  12.657
43570SOL    HW132543   5.064   7.406  12.584
43570SOL    HW232544   5.052   7.394  12.734
43571SOL     OW32545   3.112   2.764   2.610
43571SOL    HW132546   3.174   2.781   2.539
43571SOL    HW232547   3.151   2.808   2.686
43572SOL     OW32548   5.270   1.376  13.380
43572SOL    HW132549   5.188   1.385  13.429
43572SOL    HW232550   5.336   1.359  13.446
43573SOL     OW32551   0.186   1.017  11.768
43573SOL    HW132552   0.147   0.929  11.764
43573SOL    HW232553   0.112   1.076  11.755
43574SOL     OW32554   8.500  10.672   1.482
43574SOL    HW132555   8.442  10.748   1.480
43574SOL    HW232556   8.585  10.706   1.456
43575SOL     OW32557   4.394   3.772   6.444
43575SOL    HW132558   4.362   3.825   6.517
43575SOL    HW232559   4.388   3.830   6.368
43576SOL     OW32560   4.084  10.119   1.208
43576SOL    HW132561   4.049  10.169   1.282
43576SOL    HW232562   4.166  10.082   1.240
43577SOL     OW32563   4.364   1.116   7.187
43577SOL    HW132564   4.376   1.210   7.191
43577SOL    HW232565   4.452   1.080   7.177
43578SOL     OW32566   6.004  14.079   6.093
43578SOL    HW132567   5.963  13.996   6.069
43578SOL    HW232568   6.037  14.114   6.010
43579SOL     OW32569  12.174  11.926   0.164
43579SOL    HW132570  12.231  11.852   0.187
43579SOL    HW232571  12.221  11.971   0.094
43580SOL     OW32572  11.715   2.181   9.768
43580SOL    HW132573  11.744   2.112   9.827
43580SOL    HW232574  11.790   2.198   9.711
43581SOL     OW32575   5.696  12.969  14.544
43581SOL    HW132576   5.614  12.956  14.496
43581SOL    HW232577   5.739  13.040  14.498
43582SOL     OW32578  13.801   4.377  13.198
43582SOL    HW132579  13.803   4.457  13.145
43582SOL    HW232580  13.777   4.308  13.136
43583SOL     OW32581  10.437   4.148   5.380
43583SOL    HW132582  10.416   4.057   5.360
43583SOL    HW232583  10.513   4.144   5.438
43584SOL     OW32584   0.161  13.703  11.677
43584SOL    HW132585   0.227  13.762  11.713
43584SOL    HW232586   0.089  13.706  11.740
43585SOL     OW32587   1.220   5.716   4.891
43585SOL    HW132588   1.286   5.670   4.838
43585SOL    HW232589   1.183   5.781   4.832
43586SOL     OW32590   8.534   8.800   3.249
43586SOL    HW132591   8.587   8.878   3.265
43586SOL    HW232592   8.495   8.815   3.163
43587SOL     OW32593   3.019  10.339   6.513
43587SOL    HW132594   3.038  10.421   6.468
43587SOL    HW232595   2.934  10.311   6.478
43588SOL     OW32596   1.993  14.789   0.069
43588SOL    HW132597   1.963  14.708   0.027
43588SOL    HW232598   2.031  14.841  14.871
43589SOL     OW32599   6.661   5.101   6.746
43589SOL    HW132600   6.675   5.026   6.689
43589SOL    HW232601   6.590   5.150   6.704
43590SOL     OW32602  11.671   6.298   4.888
43590SOL    HW132603  11.711   6.383   4.867
43590SOL    HW232604  11.577   6.311   4.874
43591SOL     OW32605   2.029  12.036  11.603
43591SOL    HW132606   1.976  12.084  11.540
43591SOL    HW232607   2.027  11.946  11.571
43592SOL     OW32608   6.190  12.234   2.149
43592SOL    HW132609   6.102  12.197   2.138
43592SOL    HW232610   6.230  12.224   2.062
43593SOL     OW32611   8.610   7.290   0.869
43593SOL    HW132612   8.666   7.325   0.799
43593SOL    HW232613   8.664   7.225   0.913
43594SOL     OW32614   7.242  12.117  14.587
43594SOL    HW132615   7.184  12.060  14.637
43594SOL    HW232616   7.221  12.205  14.618
43595SOL     OW32617   7.667   1.949   3.372
43595SOL    HW132618   7.698   1.995   3.449
43595SOL    HW232619   7.671   2.014   3.302
43596SOL     OW32620   2.099   7.343   6.486
43596SOL    HW132621   2.108   7.358   6.392
43596SOL    HW232622   2.078   7.429   6.523
43597SOL     OW32623   4.837   0.170  10.090
43597SOL    HW132624   4.877   0.087  10.114
43597SOL    HW232625   4.901   0.211  10.032
43598SOL     OW32626   8.066  10.111  10.968
43598SOL    HW132627   8.137  10.154  10.919
43598SOL    HW232628   8.099  10.106  11.058
43599SOL     OW32629   2.695   6.880   1.247
43599SOL    HW132630   2.603   6.865   1.271
43599SOL    HW232631   2.731   6.793   1.233
43600SOL     OW32632  10.931   1.721  12.140
43600SOL    HW132633  11.008   1.714  12.083
43600SOL    HW232634  10.887   1.637  12.132
43601SOL     OW32635   6.756   0.720   3.188
43601SOL    HW132636   6.716   0.649   3.138
43601SOL    HW232637   6.847   0.694   3.199
43602SOL     OW32638   3.682  10.635   8.935
43602SOL    HW132639   3.587  10.626   8.928
43602SOL    HW232640   3.717  10.584   8.863
43603SOL     OW32641  11.634   1.767  11.741
43603SOL    HW132642  11.578   1.833  11.700
43603SOL    HW232643  11.582   1.735  11.815
43604SOL     OW32644  11.081   0.611  12.883
43604SOL    HW132645  11.097   0.520  12.908
43604SOL    HW232646  11.162   0.656  12.907
43605SOL     OW32647  14.112   4.045   0.528
43605SOL    HW132648  14.128   4.047   0.434
43605SOL    HW232649  14.059   3.966   0.541
43606SOL     OW32650  12.409   6.302   3.522
43606SOL    HW132651  12.372   6.390   3.531
43606SOL    HW232652  12.504   6.315   3.532
43607SOL     OW32653   6.773   6.433  10.884
43607SOL    HW132654   6.744   6.382  10.960
43607SOL    HW232655   6.850   6.481  10.915
43608SOL     OW32656  11.376   3.168   5.599
43608SOL    HW132657  11.429   3.206   5.529
43608SOL    HW232658  11.405   3.077   5.604
43609SOL     OW32659  10.345   0.662   4.831
43609SOL    HW132660  10.337   0.725   4.903
43609SOL    HW232661  10.439   0.654   4.816
43610SOL     OW32662  10.300  13.105  11.796
43610SOL    HW132663  10.231  13.150  11.747
43610SOL    HW232664  10.358  13.174  11.826
43611SOL     OW32665   4.689   2.925   9.220
43611SOL    HW132666   4.705   2.871   9.298
43611SOL    HW232667   4.650   3.005   9.255
43612SOL     OW32668  13.563   0.719   0.523
43612SOL    HW132669  13.500   0.770   0.575
43612SOL    HW232670  13.519   0.707   0.438
43613SOL     OW32671   7.479  10.621  14.370
43613SOL    HW132672   7.400  10.566  14.376
43613SOL    HW232673   7.459  10.697  14.424
43614SOL     OW32674   6.558   1.695  10.764
43614SOL    HW132675   6.484   1.711  10.823
43614SOL    HW232676   6.635   1.706  10.820
43615SOL     OW32677   2.276   0.882   0.504
43615SOL    HW132678   2.247   0.966   0.468
43615SOL    HW232679   2.219   0.817   0.463
43616SOL     OW32680   4.835  10.832   6.072
43616SOL    HW132681   4.904  10.768   6.090
43616SOL    HW232682   4.753  10.785   6.088
43617SOL     OW32683  10.989   3.319  13.996
43617SOL    HW132684  11.052   3.370  14.046
43617SOL    HW232685  11.030   3.305  13.911
43618SOL     OW32686   9.071   4.809   9.091
43618SOL    HW132687   9.037   4.787   9.004
43618SOL    HW232688   9.053   4.732   9.144
43619SOL     OW32689   7.069  14.505  12.957
43619SOL    HW132690   7.123  14.440  12.912
43619SOL    HW232691   7.102  14.589  12.924
43620SOL     OW32692   6.760  11.900   5.465
43620SOL    HW132693   6.719  11.901   5.552
43620SOL    HW232694   6.831  11.965   5.472
43621SOL     OW32695  11.278   9.020  12.905
43621SOL    HW132696  11.313   9.015  12.815
43621SOL    HW232697  11.324   9.095  12.944
43622SOL     OW32698  13.074   6.054   4.997
43622SOL    HW132699  13.058   6.062   4.903
43622SOL    HW232700  13.106   6.140   5.023
43623SOL     OW32701   1.036   7.203   7.900
43623SOL    HW132702   1.001   7.252   7.975
43623SOL    HW232703   0.969   7.212   7.832
43624SOL     OW32704   6.570   8.772  12.834
43624SOL    HW132705   6.484   8.793  12.870
43624SOL    HW232706   6.619   8.855  12.838
43625SOL     OW32707   2.835   6.215  14.804
43625SOL    HW132708   2.912   6.224  14.860
43625SOL    HW232709   2.761   6.223  14.864
43626SOL     OW32710   6.429   3.448   5.737
43626SOL    HW132711   6.351   3.433   5.791
43626SOL    HW232712   6.437   3.370   5.683
43627SOL     OW32713   2.436   4.445   9.327
43627SOL    HW132714   2.501   4.511   9.304
43627SOL    HW232715   2.465   4.411   9.411
43628SOL     OW32716  10.282  12.811   2.846
43628SOL    HW132717  10.230  12.856   2.779
43628SOL    HW232718  10.356  12.773   2.797
43629SOL     OW32719  13.150   5.245  14.451
43629SOL    HW132720  13.245   5.242  14.467
43629SOL    HW232721  13.125   5.335  14.469
43630SOL     OW32722  13.482  14.139  13.567
43630SOL    HW132723  13.526  14.105  13.644
43630SOL    HW232724  13.485  14.234  13.578
43631SOL     OW32725  14.134   0.629   7.296
43631SOL    HW132726  14.124   0.536   7.277
43631SOL    HW232727  14.179   0.664   7.219
43632SOL     OW32728   7.490  12.911  11.014
43632SOL    HW132729   7.459  12.987  10.964
43632SOL    HW232730   7.585  12.923  11.017
43633SOL     OW32731   3.081  13.507   6.249
43633SOL    HW132732   3.023  13.583   6.246
43633SOL    HW232733   3.034  13.438   6.202
43634SOL     OW32734  10.452  11.521   6.423
43634SOL    HW132735  10.393  11.524   6.347
43634SOL    HW232736  10.525  11.466   6.394
43635SOL     OW32737   9.563  12.050   7.032
43635SOL    HW132738   9.560  12.021   7.123
43635SOL    HW232739   9.535  11.973   6.981
43636SOL     OW32740   5.094  13.081  13.230
43636SOL    HW132741   5.038  13.114  13.301
43636SOL    HW232742   5.145  13.011  13.270
43637SOL     OW32743  14.774   9.948   5.049
43637SOL    HW132744  14.830  10.020   5.023
43637SOL    HW232745  14.700   9.989   5.093
43638SOL     OW32746   2.374   1.616   4.946
43638SOL    HW132747   2.416   1.702   4.941
43638SOL    HW232748   2.379   1.581   4.857
43639SOL     OW32749   5.129   4.332   7.941
43639SOL    HW132750   5.095   4.363   7.857
43639SOL    HW232751   5.104   4.239   7.944
43640SOL     OW32752  14.089   3.687   1.706
43640SOL    HW132753  14.001   3.657   1.731
43640SOL    HW232754  14.108   3.757   1.768
43641SOL     OW32755   1.610  10.703  11.936
43641SOL    HW132756   1.605  10.799  11.944
43641SOL    HW232757   1.703  10.685  11.926
43642SOL     OW32758   2.700   4.355  11.157
43642SOL    HW132759   2.617   4.397  11.134
43642SOL    HW232760   2.703   4.360  11.253
43643SOL     OW32761   7.992   4.768   3.898
43643SOL    HW132762   8.054   4.709   3.941
43643SOL    HW232763   8.046   4.820   3.839
43644SOL     OW32764  10.195   6.137  10.201
43644SOL    HW132765  10.119   6.086  10.174
43644SOL    HW232766  10.158   6.217  10.238
43645SOL     OW32767   6.458  12.584  11.045
43645SOL    HW132768   6.535  12.528  11.035
43645SOL    HW232769   6.386  12.523  11.059
43646SOL     OW32770   4.107  14.020   6.556
43646SOL    HW132771   4.180  13.976   6.598
43646SOL    HW232772   4.140  14.106   6.533
43647SOL     OW32773  13.879   6.748   7.490
43647SOL    HW132774  13.828   6.763   7.411
43647SOL    HW232775  13.918   6.661   7.477
43648SOL     OW32776  14.812   9.979  10.682
43648SOL    HW132777  14.871   9.975  10.607
43648SOL    HW232778  14.725   9.994  10.644
43649SOL     OW32779   6.417   0.579   0.039
43649SOL    HW132780   6.506   0.608   0.061
43649SOL    HW232781   6.360   0.642   0.082
43650SOL     OW32782   1.852  12.717  10.380
43650SOL    HW132783   1.764  12.727  10.418
43650SOL    HW232784   1.836  12.681  10.293
43651SOL     OW32785   5.256  11.811   0.013
43651SOL    HW132786   5.248  11.722   0.048
43651SOL    HW232787   5.264  11.866   0.091
43652SOL     OW32788  10.876  13.722   4.432
43652SOL    HW132789  10.801  13.722   4.490
43652SOL    HW232790  10.952  13.727   4.490
43653SOL     OW32791  13.712   1.163  13.030
43653SOL    HW132792  13.672   1.171  12.943
43653SOL    HW232793  13.639   1.150  13.090
43654SOL     OW32794  11.415   6.537   6.302
43654SOL    HW132795  11.433   6.598   6.231
43654SOL    HW232796  11.397   6.592   6.378
43655SOL     OW32797   5.441   4.048  10.082
43655SOL    HW132798   5.428   4.055   9.988
43655SOL    HW232799   5.413   3.959  10.103
43656SOL     OW32800  11.042   9.200   9.936
43656SOL    HW132801  11.058   9.139  10.008
43656SOL    HW232802  11.095   9.277   9.957
43657SOL     OW32803   1.716   1.336  14.002
43657SOL    HW132804   1.675   1.255  14.031
43657SOL    HW232805   1.810   1.319  14.011
43658SOL     OW32806   4.530  11.190   5.951
43658SOL    HW132807   4.454  11.245   5.933
43658SOL    HW232808   4.590  11.206   5.878
43659SOL     OW32809  13.565   1.968   8.032
43659SOL    HW132810  13.501   1.922   7.978
43659SOL    HW232811  13.640   1.982   7.975
43660SOL     OW32812   0.712   1.835  12.045
43660SOL    HW132813   0.668   1.766  11.996
43660SOL    HW232814   0.642   1.893  12.074
43661SOL     OW32815   6.511   6.534   7.785
43661SOL    HW132816   6.470   6.478   7.719
43661SOL    HW232817   6.539   6.612   7.736
43662SOL     OW32818   8.679   8.998   9.712
43662SOL    HW132819   8.747   8.971   9.774
43662SOL    HW232820   8.625   9.060   9.761
43663SOL     OW32821   1.423   5.331   6.006
43663SOL    HW132822   1.458   5.420   6.010
43663SOL    HW232823   1.378   5.327   5.922
43664SOL     OW32824  10.592  11.352   3.895
43664SOL    HW132825  10.642  11.361   3.975
43664SOL    HW232826  10.559  11.440   3.877
43665SOL     OW32827   2.718  11.360   9.198
43665SOL    HW132828   2.678  11.353   9.111
43665SOL    HW232829   2.652  11.405   9.251
43666SOL     OW32830   0.797   8.854   9.900
43666SOL    HW132831   0.737   8.822   9.968
43666SOL    HW232832   0.870   8.792   9.900
43667SOL     OW32833  12.736  11.006   0.069
43667SOL    HW132834  12.739  11.101   0.060
43667SOL    HW232835  12.648  10.982   0.039
43668SOL     OW32836   6.330   9.255  10.578
43668SOL    HW132837   6.370   9.260  10.492
43668SOL    HW232838   6.236   9.258  10.561
43669SOL     OW32839   6.805   3.216   9.341
43669SOL    HW132840   6.837   3.168   9.264
43669SOL    HW232841   6.881   3.224   9.398
43670SOL     OW32842  13.828   2.657   3.536
43670SOL    HW132843  13.789   2.645   3.623
43670SOL    HW232844  13.917   2.686   3.553
43671SOL     OW32845  11.456  12.124  14.117
43671SOL    HW132846  11.444  12.084  14.030
43671SOL    HW232847  11.529  12.184  14.106
43672SOL     OW32848   1.601  14.600  13.690
43672SOL    HW132849   1.516  14.566  13.714
43672SOL    HW232850   1.634  14.643  13.769
43673SOL     OW32851   7.186  12.761   7.341
43673SOL    HW132852   7.214  12.799   7.424
43673SOL    HW232853   7.135  12.684   7.366
43674SOL     OW32854   2.109   3.648   9.961
43674SOL    HW132855   2.023   3.663   9.921
43674SOL    HW232856   2.146   3.575   9.911
43675SOL     OW32857   8.403  14.602  12.516
43675SOL    HW132858   8.465  14.545  12.471
43675SOL    HW232859   8.390  14.676  12.456
43676SOL     OW32860   2.296   8.736   4.229
43676SOL    HW132861   2.204   8.759   4.242
43676SOL    HW232862   2.329   8.720   4.318
43677SOL     OW32863   4.341  11.599   9.157
43677SOL    HW132864   4.421  11.550   9.174
43677SOL    HW232865   4.326  11.649   9.238
43678SOL     OW32866  10.146   6.829   5.029
43678SOL    HW132867  10.237   6.851   5.052
43678SOL    HW232868  10.099   6.833   5.113
43679SOL     OW32869  12.727   3.624   8.981
43679SOL    HW132870  12.778   3.617   9.062
43679SOL    HW232871  12.788   3.661   8.918
43680SOL     OW32872  12.287   6.794  11.435
43680SOL    HW132873  12.342   6.749  11.370
43680SOL    HW232874  12.349   6.826  11.500
43681SOL     OW32875   2.746   1.317   8.057
43681SOL    HW132876   2.704   1.319   8.143
43681SOL    HW232877   2.692   1.374   8.002
43682SOL     OW32878  14.131  12.342   9.228
43682SOL    HW132879  14.097  12.263   9.187
43682SOL    HW232880  14.067  12.410   9.207
43683SOL     OW32881   2.093   3.338   5.978
43683SOL    HW132882   2.037   3.328   5.901
43683SOL    HW232883   2.118   3.431   5.977
43684SOL     OW32884   7.631   3.835   8.253
43684SOL    HW132885   7.610   3.918   8.210
43684SOL    HW232886   7.575   3.834   8.331
43685SOL     OW32887   9.939   0.580  13.244
43685SOL    HW132888   9.967   0.610  13.331
43685SOL    HW232889   9.845   0.567  13.252
43686SOL     OW32890  10.582   5.113   0.551
43686SOL    HW132891  10.623   5.071   0.475
43686SOL    HW232892  10.657   5.139   0.606
43687SOL     OW32893   3.426   1.109   8.813
43687SOL    HW132894   3.346   1.159   8.830
43687SOL    HW232895   3.399   1.018   8.818
43688SOL     OW32896   1.097  10.396  13.568
43688SOL    HW132897   1.109  10.374  13.475
43688SOL    HW232898   1.078  10.312  13.610
43689SOL     OW32899   2.331   3.997   4.325
43689SOL    HW132900   2.371   4.049   4.394
43689SOL    HW232901   2.299   3.919   4.369
43690SOL     OW32902   3.456   6.927   1.353
43690SOL    HW132903   3.503   6.909   1.434
43690SOL    HW232904   3.421   6.842   1.326
43691SOL     OW32905   2.749   7.177   3.941
43691SOL    HW132906   2.729   7.097   3.990
43691SOL    HW232907   2.663   7.213   3.918
43692SOL     OW32908   4.150  12.913  11.963
43692SOL    HW132909   4.165  12.988  11.906
43692SOL    HW232910   4.061  12.885  11.943
43693SOL     OW32911   5.713   1.286  10.826
43693SOL    HW132912   5.718   1.236  10.908
43693SOL    HW232913   5.638   1.247  10.780
43694SOL     OW32914   4.451   1.276   2.585
43694SOL    HW132915   4.425   1.268   2.677
43694SOL    HW232916   4.424   1.193   2.545
43695SOL     OW32917   9.454  11.652   5.263
43695SOL    HW132918   9.520  11.661   5.332
43695SOL    HW232919   9.394  11.585   5.296
43696SOL     OW32920  10.580  10.934   4.152
43696SOL    HW132921  10.580  10.926   4.247
43696SOL    HW232922  10.496  10.898   4.125
43697SOL     OW32923   3.851   4.675   5.918
43697SOL    HW132924   3.942   4.653   5.898
43697SOL    HW232925   3.856   4.766   5.949
43698SOL     OW32926   0.897   9.198   9.486
43698SOL    HW132927   0.804   9.214   9.502
43698SOL    HW232928   0.916   9.116   9.532
43699SOL     OW32929   3.833  12.909   5.613
43699SOL    HW132930   3.907  12.897   5.553
43699SOL    HW232931   3.832  13.003   5.631
43700SOL     OW32932  13.114   5.237   6.666
43700SOL    HW132933  13.197   5.281   6.684
43700SOL    HW232934  13.095   5.258   6.574
43701SOL     OW32935  14.253   2.286   4.549
43701SOL    HW132936  14.323   2.308   4.611
43701SOL    HW232937  14.284   2.319   4.465
43702SOL     OW32938   4.637  12.212  13.517
43702SOL    HW132939   4.672  12.299  13.535
43702SOL    HW232940   4.555  12.228  13.471
43703SOL     OW32941   2.374   3.226   9.142
43703SOL    HW132942   2.442   3.261   9.200
43703SOL    HW232943   2.418   3.161   9.089
43704SOL     OW32944   7.745   5.868  11.014
43704SOL    HW132945   7.717   5.943  11.067
43704SOL    HW232946   7.801   5.817  11.072
43705SOL     OW32947   0.318   0.386   6.212
43705SOL    HW132948   0.276   0.304   6.186
43705SOL    HW232949   0.401   0.386   6.165
43706SOL     OW32950  13.406  13.067  14.305
43706SOL    HW132951  13.415  13.148  14.356
43706SOL    HW232952  13.495  13.045  14.278
43707SOL     OW32953  14.283  12.108   5.998
43707SOL    HW132954  14.270  12.059   5.917
43707SOL    HW232955  14.227  12.185   5.989
43708SOL     OW32956   7.631  11.199   4.374
43708SOL    HW132957   7.609  11.170   4.463
43708SOL    HW232958   7.634  11.118   4.323
43709SOL     OW32959   8.145  12.997   5.557
43709SOL    HW132960   8.146  13.071   5.498
43709SOL    HW232961   8.090  13.025   5.630
43710SOL     OW32962  14.271   4.756   4.742
43710SOL    HW132963  14.348   4.720   4.700
43710SOL    HW232964  14.305   4.822   4.803
43711SOL     OW32965   6.925  10.404   1.528
43711SOL    HW132966   6.867  10.479   1.526
43711SOL    HW232967   6.913  10.362   1.443
43712SOL     OW32968  10.095  10.815  10.619
43712SOL    HW132969  10.171  10.789  10.567
43712SOL    HW232970  10.036  10.858  10.558
43713SOL     OW32971   6.646   8.556   6.481
43713SOL    HW132972   6.706   8.556   6.555
43713SOL    HW232973   6.559   8.542   6.520
43714SOL     OW32974   1.445   8.615  13.212
43714SOL    HW132975   1.472   8.694  13.165
43714SOL    HW232976   1.417   8.554  13.143
43715SOL     OW32977   4.825   6.974   0.456
43715SOL    HW132978   4.742   6.954   0.413
43715SOL    HW232979   4.869   7.035   0.398
43716SOL     OW32980  11.951   8.084  13.864
43716SOL    HW132981  11.928   8.171  13.832
43716SOL    HW232982  11.884   8.064  13.929
43717SOL     OW32983   0.493  10.258   4.061
43717SOL    HW132984   0.537  10.240   3.978
43717SOL    HW232985   0.447  10.177   4.081
43718SOL     OW32986   8.825  12.749   8.567
43718SOL    HW132987   8.750  12.808   8.568
43718SOL    HW232988   8.845  12.736   8.474
43719SOL     OW32989   1.586  11.257  13.676
43719SOL    HW132990   1.659  11.293  13.625
43719SOL    HW232991   1.542  11.334  13.713
43720SOL     OW32992  11.399   3.210   8.499
43720SOL    HW132993  11.483   3.177   8.530
43720SOL    HW232994  11.386   3.291   8.549
43721SOL     OW32995   0.805   7.673  10.125
43721SOL    HW132996   0.831   7.703  10.212
43721SOL    HW232997   0.832   7.581  10.122
43722SOL     OW32998  14.054   5.977  13.718
43722SOL    HW132999  14.077   6.070  13.719
43722SOL    HW233000  14.095   5.944  13.638
43723SOL     OW33001   0.694   8.863   8.891
43723SOL    HW133002   0.763   8.797   8.903
43723SOL    HW233003   0.710   8.928   8.959
43724SOL     OW33004   7.436  11.582  10.101
43724SOL    HW133005   7.456  11.527  10.177
43724SOL    HW233006   7.367  11.641  10.132
43725SOL     OW33007  12.432   3.918   5.577
43725SOL    HW133008  12.456   3.828   5.602
43725SOL    HW233009  12.388   3.953   5.654
43726SOL     OW33010   4.786   9.970   4.526
43726SOL    HW133011   4.861   9.910   4.521
43726SOL    HW233012   4.821  10.049   4.566
43727SOL     OW33013  10.814  13.984   6.521
43727SOL    HW133014  10.757  14.034   6.462
43727SOL    HW233015  10.841  13.908   6.469
43728SOL     OW33016  10.504   1.981   1.785
43728SOL    HW133017  10.551   2.065   1.787
43728SOL    HW233018  10.489   1.965   1.692
43729SOL     OW33019   9.962  13.823   0.222
43729SOL    HW133020  10.009  13.897   0.183
43729SOL    HW233021   9.976  13.832   0.316
43730SOL     OW33022   8.492   3.199   3.449
43730SOL    HW133023   8.414   3.222   3.500
43730SOL    HW233024   8.537   3.134   3.503
43731SOL     OW33025  12.711   1.714   7.266
43731SOL    HW133026  12.652   1.712   7.191
43731SOL    HW233027  12.798   1.720   7.229
43732SOL     OW33028   8.379   8.446   8.891
43732SOL    HW133029   8.390   8.539   8.870
43732SOL    HW233030   8.464   8.419   8.924
43733SOL     OW33031  10.216   3.611  11.646
43733SOL    HW133032  10.255   3.540  11.594
43733SOL    HW233033  10.263   3.689  11.618
43734SOL     OW33034  13.648  14.857   8.112
43734SOL    HW133035  13.708  14.791   8.077
43734SOL    HW233036  13.685   0.008   8.197
43735SOL     OW33037   0.096   4.471   9.447
43735SOL    HW133038   0.080   4.507   9.359
43735SOL    HW233039   0.189   4.487   9.462
43736SOL     OW33040  11.966  10.035   7.242
43736SOL    HW133041  11.975   9.940   7.253
43736SOL    HW233042  12.054  10.066   7.221
43737SOL     OW33043   9.550   3.260  13.492
43737SOL    HW133044   9.464   3.285  13.527
43737SOL    HW233045   9.600   3.342  13.490
43738SOL     OW33046   2.826   3.224  11.091
43738SOL    HW133047   2.901   3.273  11.057
43738SOL    HW233048   2.863   3.141  11.120
43739SOL     OW33049   3.066   1.953   9.559
43739SOL    HW133050   3.049   1.911   9.644
43739SOL    HW233051   3.159   1.939   9.544
43740SOL     OW33052   4.866   5.529   6.477
43740SOL    HW133053   4.830   5.441   6.478
43740SOL    HW233054   4.956   5.519   6.509
43741SOL     OW33055   6.312   9.660   7.929
43741SOL    HW133056   6.390   9.649   7.876
43741SOL    HW233057   6.245   9.606   7.886
43742SOL     OW33058   2.361   9.392  14.116
43742SOL    HW133059   2.429   9.435  14.065
43742SOL    HW233060   2.368   9.300  14.091
43743SOL     OW33061   3.358   1.977   5.841
43743SOL    HW133062   3.298   1.980   5.916
43743SOL    HW233063   3.443   2.002   5.877
43744SOL     OW33064  14.742   5.732   7.759
43744SOL    HW133065  14.732   5.819   7.718
43744SOL    HW233066  14.824   5.698   7.724
43745SOL     OW33067   5.367   0.953  13.022
43745SOL    HW133068   5.303   0.935  12.953
43745SOL    HW233069   5.315   0.988  13.095
43746SOL     OW33070   2.171   8.061  12.577
43746SOL    HW133071   2.078   8.048  12.555
43746SOL    HW233072   2.218   8.033  12.498
43747SOL     OW33073   2.632   6.551   5.080
43747SOL    HW133074   2.664   6.594   5.159
43747SOL    HW233075   2.648   6.458   5.096
43748SOL     OW33076   7.717   7.143   5.274
43748SOL    HW133077   7.760   7.201   5.338
43748SOL    HW233078   7.690   7.201   5.203
43749SOL     OW33079  10.946   7.166  10.327
43749SOL    HW133080  10.915   7.252  10.356
43749SOL    HW233081  10.900   7.104  10.384
43750SOL     OW33082  13.941  11.056   8.867
43750SOL    HW133083  13.937  11.101   8.951
43750SOL    HW233084  13.903  11.118   8.805
43751SOL     OW33085   5.743   5.618   6.813
43751SOL    HW133086   5.810   5.685   6.825
43751SOL    HW233087   5.690   5.622   6.893
43752SOL     OW33088   7.747  13.098   3.230
43752SOL    HW133089   7.725  13.123   3.140
43752SOL    HW233090   7.746  13.003   3.229
43753SOL     OW33091   6.076   3.386   3.174
43753SOL    HW133092   6.013   3.424   3.235
43753SOL    HW233093   6.028   3.316   3.130
43754SOL     OW33094   8.652  11.168   9.193
43754SOL    HW133095   8.614  11.097   9.244
43754SOL    HW233096   8.708  11.215   9.254
43755SOL     OW33097   1.906   7.582   0.015
43755SOL    HW133098   1.996   7.570  14.856
43755SOL    HW233099   1.890   7.506   0.070
43756SOL     OW33100   9.233   8.886  14.498
43756SOL    HW133101   9.234   8.893  14.402
43756SOL    HW233102   9.144   8.911  14.523
43757SOL     OW33103   7.733  11.112   4.894
43757SOL    HW133104   7.754  11.110   4.988
43757SOL    HW233105   7.639  11.131   4.891
43758SOL     OW33106  14.864   0.322   2.115
43758SOL    HW133107   0.069   0.331   2.169
43758SOL    HW233108  14.792   0.317   2.178
43759SOL     OW33109   9.924  12.571   1.939
43759SOL    HW133110   9.954  12.646   1.888
43759SOL    HW233111   9.833  12.559   1.913
43760SOL     OW33112  14.788  11.620   5.859
43760SOL    HW133113  14.706  11.575   5.881
43760SOL    HW233114  14.777  11.644   5.767
43761SOL     OW33115   4.040   7.917  11.860
43761SOL    HW133116   4.083   7.913  11.775
43761SOL    HW233117   3.971   7.982  11.848
43762SOL     OW33118  10.555   2.545   2.305
43762SOL    HW133119  10.634   2.598   2.321
43762SOL    HW233120  10.570   2.505   2.219
43763SOL     OW33121   4.696   8.973   1.046
43763SOL    HW133122   4.609   8.951   1.080
43763SOL    HW233123   4.682   8.988   0.953
43764SOL     OW33124   9.484   7.495  13.967
43764SOL    HW133125   9.556   7.556  13.982
43764SOL    HW233126   9.436   7.494  14.051
43765SOL     OW33127   2.326  11.785   0.797
43765SOL    HW133128   2.352  11.707   0.848
43765SOL    HW233129   2.395  11.795   0.732
43766SOL     OW33130   7.967   1.871   4.770
43766SOL    HW133131   8.045   1.819   4.788
43766SOL    HW233132   7.992   1.960   4.793
43767SOL     OW33133   6.844   9.914   7.186
43767SOL    HW133134   6.795   9.832   7.190
43767SOL    HW233135   6.886   9.914   7.101
43768SOL     OW33136   4.321   3.418   2.731
43768SOL    HW133137   4.410   3.388   2.749
43768SOL    HW233138   4.332   3.503   2.688
43769SOL     OW33139   6.345   0.624   0.713
43769SOL    HW133140   6.424   0.606   0.763
43769SOL    HW233141   6.345   0.560   0.643
43770SOL     OW33142   3.706   0.074   7.069
43770SOL    HW133143   3.774   0.012   7.043
43770SOL    HW233144   3.754   0.154   7.091
43771SOL     OW33145   9.651   9.095  10.750
43771SOL    HW133146   9.644   9.008  10.789
43771SOL    HW233147   9.590   9.149  10.800
43772SOL     OW33148  12.436   5.106   9.899
43772SOL    HW133149  12.484   5.180   9.936
43772SOL    HW233150  12.442   5.119   9.804
43773SOL     OW33151   6.139   5.727   4.042
43773SOL    HW133152   6.229   5.752   4.061
43773SOL    HW233153   6.108   5.793   3.980
43774SOL     OW33154   5.520   9.686   3.295
43774SOL    HW133155   5.434   9.704   3.257
43774SOL    HW233156   5.529   9.748   3.367
43775SOL     OW33157  11.518   1.025   6.947
43775SOL    HW133158  11.423   1.025   6.936
43775SOL    HW233159  11.531   1.052   7.038
43776SOL     OW33160   0.079  11.077  12.981
43776SOL    HW133161   0.017  11.036  12.920
43776SOL    HW233162   0.156  11.096  12.927
43777SOL     OW33163   8.328   5.998   5.915
43777SOL    HW133164   8.235   6.021   5.911
43777SOL    HW233165   8.353   6.013   6.006
43778SOL     OW33166   2.366  11.626   0.442
43778SOL    HW133167   2.301  11.648   0.508
43778SOL    HW233168   2.431  11.573   0.488
43779SOL     OW33169  14.324   4.303   2.158
43779SOL    HW133170  14.417   4.282   2.151
43779SOL    HW233171  14.301   4.281   2.248
43780SOL     OW33172  12.774   9.160   8.081
43780SOL    HW133173  12.849   9.115   8.120
43780SOL    HW233174  12.795   9.166   7.988
43781SOL     OW33175   8.616  13.886   2.518
43781SOL    HW133176   8.553  13.816   2.535
43781SOL    HW233177   8.691  13.866   2.573
43782SOL     OW33178   0.068   3.426   1.848
43782SOL    HW133179   0.038   3.471   1.770
43782SOL    HW233180   0.007   3.352   1.859
43783SOL     OW33181   5.613   5.439  10.166
43783SOL    HW133182   5.631   5.345  10.163
43783SOL    HW233183   5.700   5.480  10.164
43784SOL     OW33184   0.119   3.647   6.631
43784SOL    HW133185   0.159   3.664   6.716
43784SOL    HW233186   0.093   3.733   6.599
43785SOL     OW33187  12.389  11.621   7.894
43785SOL    HW133188  12.322  11.569   7.937
43785SOL    HW233189  12.341  11.671   7.828
43786SOL     OW33190  12.600   5.530   9.952
43786SOL    HW133191  12.548   5.588  10.008
43786SOL    HW233192  12.688   5.570   9.952
43787SOL     OW33193  11.827  11.838   7.129
43787SOL    HW133194  11.792  11.799   7.049
43787SOL    HW233195  11.826  11.767   7.193
43788SOL     OW33196   3.503   9.110   4.386
43788SOL    HW133197   3.579   9.063   4.351
43788SOL    HW233198   3.492   9.185   4.327
43789SOL     OW33199   5.897   9.818   8.662
43789SOL    HW133200   5.916   9.868   8.742
43789SOL    HW233201   5.921   9.728   8.684
43790SOL     OW33202  13.780   3.844  13.605
43790SOL    HW133203  13.857   3.787  13.614
43790SOL    HW233204  13.724   3.822  13.679
43791SOL     OW33205  12.438   0.458   0.491
43791SOL    HW133206  12.380   0.525   0.453
43791SOL    HW233207  12.383   0.414   0.556
43792SOL     OW33208   5.018   3.016  11.704
43792SOL    HW133209   4.926   3.045  11.703
43792SOL    HW233210   5.053   3.053  11.786
43793SOL     OW33211   6.221   0.201  10.960
43793SOL    HW133212   6.163   0.255  11.014
43793SOL    HW233213   6.257   0.137  11.022
43794SOL     OW33214  10.259  10.106  14.758
43794SOL    HW133215  10.164  10.103  14.770
43794SOL    HW233216  10.271  10.147  14.672
43795SOL     OW33217   2.985   3.029  10.857
43795SOL    HW133218   3.017   3.119  10.845
43795SOL    HW233219   2.890   3.036  10.850
43796SOL     OW33220   4.468   9.811   4.274
43796SOL    HW133221   4.550   9.852   4.247
43796SOL    HW233222   4.417   9.882   4.313
43797SOL     OW33223  10.680  13.075  10.355
43797SOL    HW133224  10.697  13.145  10.418
43797SOL    HW233225  10.601  13.103  10.309
43798SOL     OW33226   2.376  10.809   4.474
43798SOL    HW133227   2.382  10.795   4.380
43798SOL    HW233228   2.448  10.757   4.511
43799SOL     OW33229  10.337   7.471   7.327
43799SOL    HW133230  10.252   7.428   7.324
43799SOL    HW233231  10.322   7.556   7.285
43800SOL     OW33232   6.463   7.462  12.848
43800SOL    HW133233   6.453   7.547  12.893
43800SOL    HW233234   6.545   7.470  12.799
43801SOL     OW33235   9.051   9.060   3.635
43801SOL    HW133236   8.999   8.988   3.671
43801SOL    HW233237   9.100   9.093   3.710
43802SOL     OW33238   5.019   4.700   8.493
43802SOL    HW133239   5.029   4.620   8.441
43802SOL    HW233240   5.103   4.711   8.537
43803SOL     OW33241   9.657  10.514   2.270
43803SOL    HW133242   9.601  10.585   2.297
43803SOL    HW233243   9.743  10.554   2.259
43804SOL     OW33244   5.567   4.704   6.858
43804SOL    HW133245   5.626   4.760   6.910
43804SOL    HW233246   5.622   4.631   6.831
43805SOL     OW33247  13.586   8.557   3.549
43805SOL    HW133248  13.573   8.515   3.464
43805SOL    HW233249  13.579   8.650   3.530
43806SOL     OW33250  12.677   2.837  11.778
43806SOL    HW133251  12.670   2.927  11.810
43806SOL    HW233252  12.586   2.808  11.769
43807SOL     OW33253   5.448   9.985   4.813
43807SOL    HW133254   5.466   9.908   4.866
43807SOL    HW233255   5.398   9.952   4.738
43808SOL     OW33256  13.029  11.425  11.555
43808SOL    HW133257  13.118  11.456  11.546
43808SOL    HW233258  12.976  11.504  11.565
43809SOL     OW33259   3.722  10.100  14.417
43809SOL    HW133260   3.684  10.053  14.492
43809SOL    HW233261   3.727  10.033  14.348
43810SOL     OW33262   6.761   4.252   1.750
43810SOL    HW133263   6.792   4.201   1.675
43810SOL    HW233264   6.833   4.249   1.813
43811SOL     OW33265   1.159   0.681   5.287
43811SOL    HW133266   1.201   0.767   5.292
43811SOL    HW233267   1.180   0.639   5.371
43812SOL     OW33268   2.792   8.547   9.162
43812SOL    HW133269   2.811   8.453   9.154
43812SOL    HW233270   2.814   8.583   9.076
43813SOL     OW33271  10.579   1.870   2.536
43813SOL    HW133272  10.489   1.900   2.525
43813SOL    HW233273  10.584   1.789   2.484
43814SOL     OW33274   2.935  11.378  14.265
43814SOL    HW133275   2.996  11.429  14.212
43814SOL    HW233276   2.858  11.433  14.273
43815SOL     OW33277  12.036   7.950   1.609
43815SOL    HW133278  12.032   7.876   1.549
43815SOL    HW233279  11.950   7.990   1.602
43816SOL     OW33280  12.334   1.947  10.027
43816SOL    HW133281  12.259   1.961  10.084
43816SOL    HW233282  12.391   1.887  10.076
43817SOL     OW33283   4.666  10.646   9.963
43817SOL    HW133284   4.590  10.640   9.906
43817SOL    HW233285   4.664  10.565  10.014
43818SOL     OW33286   0.137   0.182  10.559
43818SOL    HW133287   0.187   0.226  10.628
43818SOL    HW233288   0.193   0.109  10.532
43819SOL     OW33289   3.684  14.637  13.165
43819SOL    HW133290   3.610  14.581  13.188
43819SOL    HW233291   3.704  14.685  13.246
43820SOL     OW33292   9.833   4.135   6.914
43820SOL    HW133293   9.846   4.040   6.906
43820SOL    HW233294   9.761   4.154   6.855
43821SOL     OW33295   6.053   1.101  10.225
43821SOL    HW133296   6.015   1.160  10.290
43821SOL    HW233297   6.138   1.141  10.204
43822SOL     OW33298  13.831   1.425   5.853
43822SOL    HW133299  13.758   1.422   5.792
43822SOL    HW233300  13.819   1.348   5.909
43823SOL     OW33301  10.343  12.872  12.517
43823SOL    HW133302  10.321  12.957  12.479
43823SOL    HW233303  10.433  12.882  12.549
43824SOL     OW33304   0.435   1.041   8.519
43824SOL    HW133305   0.354   1.005   8.557
43824SOL    HW233306   0.490   0.964   8.502
43825SOL     OW33307   9.557  12.816   8.003
43825SOL    HW133308   9.483  12.875   8.010
43825SOL    HW233309   9.631  12.872   7.983
43826SOL     OW33310   6.313   3.772  12.004
43826SOL    HW133311   6.267   3.722  12.072
43826SOL    HW233312   6.379   3.823  12.052
43827SOL     OW33313   8.008   2.397   7.896
43827SOL    HW133314   7.943   2.348   7.846
43827SOL    HW233315   7.989   2.374   7.987
43828SOL     OW33316   5.214   3.910   6.160
43828SOL    HW133317   5.125   3.886   6.132
43828SOL    HW233318   5.201   3.982   6.222
43829SOL     OW33319  11.047  11.693  13.756
43829SOL    HW133320  11.055  11.765  13.693
43829SOL    HW233321  11.093  11.620  13.715
43830SOL     OW33322  10.976   7.733   1.524
43830SOL    HW133323  11.014   7.653   1.488
43830SOL    HW233324  10.980   7.721   1.619
43831SOL     OW33325   7.166   7.484   4.940
43831SOL    HW133326   7.099   7.549   4.957
43831SOL    HW233327   7.215   7.518   4.865
43832SOL     OW33328   5.831   4.262   3.968
43832SOL    HW133329   5.769   4.326   4.005
43832SOL    HW233330   5.827   4.188   4.029
43833SOL     OW33331  14.438   0.888   6.343
43833SOL    HW133332  14.407   0.846   6.263
43833SOL    HW233333  14.530   0.907   6.327
43834SOL     OW33334   7.923  11.260  10.937
43834SOL    HW133335   7.879  11.267  11.022
43834SOL    HW233336   7.904  11.170  10.908
43835SOL     OW33337   0.342   3.382   3.714
43835SOL    HW133338   0.304   3.405   3.629
43835SOL    HW233339   0.287   3.428   3.778
43836SOL     OW33340  10.697   2.477  12.352
43836SOL    HW133341  10.785   2.502  12.321
43836SOL    HW233342  10.662   2.558  12.390
43837SOL     OW33343   5.927   7.341  12.541
43837SOL    HW133344   5.860   7.409  12.550
43837SOL    HW233345   5.951   7.318  12.631
43838SOL     OW33346   3.528  11.265   9.541
43838SOL    HW133347   3.547  11.279   9.449
43838SOL    HW233348   3.529  11.169   9.551
43839SOL     OW33349  11.752  11.360   0.224
43839SOL    HW133350  11.832  11.382   0.177
43839SOL    HW233351  11.743  11.265   0.215
43840SOL     OW33352   7.384   8.548   1.279
43840SOL    HW133353   7.293   8.546   1.250
43840SOL    HW233354   7.428   8.604   1.215
43841SOL     OW33355  14.192  10.161   4.889
43841SOL    HW133356  14.120  10.216   4.922
43841SOL    HW233357  14.208  10.099   4.960
43842SOL     OW33358  14.307  14.198  10.263
43842SOL    HW133359  14.346  14.214  10.178
43842SOL    HW233360  14.379  14.211  10.325
43843SOL     OW33361   8.351   3.181   2.581
43843SOL    HW133362   8.429   3.236   2.572
43843SOL    HW233363   8.278   3.240   2.562
43844SOL     OW33364  14.177   9.963  13.299
43844SOL    HW133365  14.167   9.972  13.393
43844SOL    HW233366  14.088   9.970  13.264
43845SOL     OW33367   7.266  12.933   5.629
43845SOL    HW133368   7.273  12.837   5.624
43845SOL    HW233369   7.199  12.955   5.566
43846SOL     OW33370  14.759   2.857   4.560
43846SOL    HW133371  14.669   2.886   4.571
43846SOL    HW233372  14.757   2.763   4.578
43847SOL     OW33373   3.270   0.007  11.296
43847SOL    HW133374   3.359  14.845  11.294
43847SOL    HW233375   3.230  14.840  11.373
43848SOL     OW33376  11.403   4.090   4.476
43848SOL    HW133377  11.327   4.052   4.520
43848SOL    HW233378  11.389   4.185   4.483
43849SOL     OW33379   5.076   8.268   9.600
43849SOL    HW133380   5.032   8.199   9.551
43849SOL    HW233381   5.075   8.238   9.690
43850SOL     OW33382  12.420  13.073   6.340
43850SOL    HW133383  12.504  13.035   6.361
43850SOL    HW233384  12.441  13.148   6.284
43851SOL     OW33385  12.076   6.420   3.538
43851SOL    HW133386  12.060   6.370   3.458
43851SOL    HW233387  12.156   6.383   3.574
43852SOL     OW33388   5.926  12.895   6.248
43852SOL    HW133389   6.014  12.917   6.218
43852SOL    HW233390   5.935  12.805   6.281
43853SOL     OW33391   6.759   3.451  13.966
43853SOL    HW133392   6.678   3.473  14.012
43853SOL    HW233393   6.778   3.528  13.912
43854SOL     OW33394  10.013  13.776   0.491
43854SOL    HW133395   9.970  13.737   0.567
43854SOL    HW233396  10.086  13.826   0.528
43855SOL     OW33397  11.717   8.511  13.723
43855SOL    HW133398  11.720   8.513  13.819
43855SOL    HW233399  11.629   8.541  13.702
43856SOL     OW33400   5.894   1.082   9.090
43856SOL    HW133401   5.890   0.989   9.068
43856SOL    HW233402   5.803   1.110   9.095
43857SOL     OW33403   5.883   6.674  12.229
43857SOL    HW133404   5.803   6.648  12.275
43857SOL    HW233405   5.888   6.769  12.243
43858SOL     OW33406   2.601  13.255  10.679
43858SOL    HW133407   2.620  13.162  10.677
43858SOL    HW233408   2.512  13.262  10.643
43859SOL     OW33409   2.865   5.686  11.578
43859SOL    HW133410   2.810   5.671  11.655
43859SOL    HW233411   2.954   5.693  11.613
43860SOL     OW33412  11.614   8.216  10.141
43860SOL    HW133413  11.551   8.183  10.076
43860SOL    HW233414  11.572   8.198  10.225
43861SOL     OW33415   4.115   8.674  12.084
43861SOL    HW133416   4.125   8.728  12.006
43861SOL    HW233417   4.116   8.735  12.157
43862SOL     OW33418  10.924  10.767   3.303
43862SOL    HW133419  10.859  10.729   3.362
43862SOL    HW233420  10.910  10.861   3.308
43863SOL     OW33421   4.508  11.926   4.293
43863SOL    HW133422   4.445  11.997   4.285
43863SOL    HW233423   4.509  11.884   4.206
43864SOL     OW33424  10.204   4.190   0.925
43864SOL    HW133425  10.200   4.118   0.988
43864SOL    HW233426  10.233   4.148   0.844
43865SOL     OW33427  12.636   0.954   2.895
43865SOL    HW133428  12.668   0.864   2.903
43865SOL    HW233429  12.612   0.962   2.802
43866SOL     OW33430   0.192   6.095  14.434
43866SOL    HW133431   0.115   6.058  14.392
43866SOL    HW233432   0.204   6.181  14.392
43867SOL     OW33433   8.315   7.176  12.537
43867SOL    HW133434   8.306   7.270  12.554
43867SOL    HW233435   8.226   7.142  12.545
43868SOL     OW33436  11.811   3.784   9.822
43868SOL    HW133437  11.769   3.698   9.830
43868SOL    HW233438  11.832   3.809   9.912
43869SOL     OW33439  13.156   3.614   3.757
43869SOL    HW133440  13.122   3.611   3.846
43869SOL    HW233441  13.185   3.524   3.740
43870SOL     OW33442  11.961   6.125   5.865
43870SOL    HW133443  12.017   6.135   5.788
43870SOL    HW233444  11.872   6.123   5.830
43871SOL     OW33445   8.332  14.325   4.080
43871SOL    HW133446   8.405  14.268   4.057
43871SOL    HW233447   8.264  14.265   4.111
43872SOL     OW33448   6.533   8.064   6.045
43872SOL    HW133449   6.454   8.034   6.090
43872SOL    HW233450   6.538   8.010   5.966
43873SOL     OW33451   8.900   6.414   4.212
43873SOL    HW133452   8.862   6.336   4.170
43873SOL    HW233453   8.830   6.447   4.269
43874SOL     OW33454   9.234  10.502   9.316
43874SOL    HW133455   9.308  10.560   9.334
43874SOL    HW233456   9.168  10.527   9.379
43875SOL     OW33457   3.601   9.276   5.243
43875SOL    HW133458   3.576   9.280   5.335
43875SOL    HW233459   3.681   9.328   5.237
43876SOL     OW33460   0.801   2.155  12.873
43876SOL    HW133461   0.751   2.216  12.927
43876SOL    HW233462   0.841   2.095  12.936
43877SOL     OW33463   4.238   6.974   6.385
43877SOL    HW133464   4.150   6.937   6.384
43877SOL    HW233465   4.232   7.050   6.443
43878SOL     OW33466   8.173  11.832  11.162
43878SOL    HW133467   8.168  11.788  11.247
43878SOL    HW233468   8.229  11.775  11.110
43879SOL     OW33469   1.194   7.885   2.702
43879SOL    HW133470   1.178   7.792   2.716
43879SOL    HW233471   1.189   7.923   2.790
43880SOL     OW33472   6.438  10.305  12.329
43880SOL    HW133473   6.464  10.391  12.297
43880SOL    HW233474   6.343  10.302  12.317
43881SOL     OW33475   2.742  13.681   1.512
43881SOL    HW133476   2.768  13.612   1.452
43881SOL    HW233477   2.814  13.686   1.575
43882SOL     OW33478   2.675   8.960   4.577
43882SOL    HW133479   2.611   8.993   4.513
43882SOL    HW233480   2.624   8.949   4.657
43883SOL     OW33481  13.242   3.745   6.576
43883SOL    HW133482  13.216   3.815   6.635
43883SOL    HW233483  13.314   3.701   6.621
43884SOL     OW33484  10.457   4.794   2.440
43884SOL    HW133485  10.479   4.729   2.507
43884SOL    HW233486  10.536   4.801   2.387
43885SOL     OW33487   3.477   1.291   7.821
43885SOL    HW133488   3.385   1.297   7.848
43885SOL    HW233489   3.479   1.334   7.735
43886SOL     OW33490  10.547   2.438   2.840
43886SOL    HW133491  10.587   2.387   2.911
43886SOL    HW233492  10.453   2.432   2.857
43887SOL     OW33493   6.930  12.558  13.120
43887SOL    HW133494   6.862  12.606  13.167
43887SOL    HW233495   6.930  12.597  13.032
43888SOL     OW33496   9.459   6.704   9.527
43888SOL    HW133497   9.481   6.610   9.528
43888SOL    HW233498   9.442   6.724   9.435
43889SOL     OW33499   2.359   7.023  13.877
43889SOL    HW133500   2.403   7.047  13.959
43889SOL    HW233501   2.393   6.936  13.856
43890SOL     OW33502   3.142   8.163   3.568
43890SOL    HW133503   3.141   8.210   3.652
43890SOL    HW233504   3.050   8.156   3.544
43891SOL     OW33505   1.352   3.918   5.678
43891SOL    HW133506   1.322   3.979   5.745
43891SOL    HW233507   1.295   3.842   5.687
43892SOL     OW33508  13.535  10.251  13.070
43892SOL    HW133509  13.497  10.332  13.106
43892SOL    HW233510  13.505  10.250  12.979
43893SOL     OW33511   5.186  13.010   8.779
43893SOL    HW133512   5.119  12.956   8.738
43893SOL    HW233513   5.169  13.002   8.873
43894SOL     OW33514  14.259   1.085  13.564
43894SOL    HW133515  14.294   1.098  13.475
43894SOL    HW233516  14.210   1.166  13.582
43895SOL     OW33517   0.826   9.811   8.928
43895SOL    HW133518   0.746   9.850   8.962
43895SOL    HW233519   0.853   9.870   8.858
43896SOL     OW33520   0.609  10.996  11.395
43896SOL    HW133521   0.558  11.073  11.371
43896SOL    HW233522   0.700  11.025  11.389
43897SOL     OW33523   3.962   4.815  10.816
43897SOL    HW133524   4.012   4.839  10.894
43897SOL    HW233525   3.917   4.896  10.791
43898SOL     OW33526   9.661  10.681   5.409
43898SOL    HW133527   9.699  10.637   5.333
43898SOL    HW233528   9.575  10.711   5.379
43899SOL     OW33529   5.237   0.758  12.589
43899SOL    HW133530   5.150   0.789  12.562
43899SOL    HW233531   5.252   0.799  12.674
43900SOL     OW33532  11.416  10.606   8.188
43900SOL    HW133533  11.342  10.664   8.209
43900SOL    HW233534  11.471  10.609   8.266
43901SOL     OW33535  11.384  12.014   2.853
43901SOL    HW133536  11.382  11.969   2.769
43901SOL    HW233537  11.383  11.943   2.918
43902SOL     OW33538   3.056   9.161   3.457
43902SOL    HW133539   3.043   9.085   3.400
43902SOL    HW233540   3.151   9.168   3.467
43903SOL     OW33541   8.759   8.088  14.637
43903SOL    HW133542   8.682   8.144  14.624
43903SOL    HW233543   8.745   8.014  14.579
43904SOL     OW33544   9.802   1.904   8.499
43904SOL    HW133545   9.777   1.983   8.450
43904SOL    HW233546   9.895   1.915   8.516
43905SOL     OW33547  12.182   5.331   1.021
43905SOL    HW133548  12.264   5.287   1.001
43905SOL    HW233549  12.143   5.279   1.092
43906SOL     OW33550   5.631   5.659  10.547
43906SOL    HW133551   5.566   5.603  10.590
43906SOL    HW233552   5.607   5.656  10.454
43907SOL     OW33553   1.009   1.596   9.989
43907SOL    HW133554   0.970   1.509   9.992
43907SOL    HW233555   1.040   1.612  10.079
43908SOL     OW33556  11.928  14.256   2.254
43908SOL    HW133557  11.940  14.177   2.305
43908SOL    HW233558  11.941  14.228   2.163
43909SOL     OW33559   3.017  13.228  13.735
43909SOL    HW133560   3.024  13.228  13.640
43909SOL    HW233561   2.998  13.137  13.757
43910SOL     OW33562  11.900   5.762  10.745
43910SOL    HW133563  11.828   5.784  10.687
43910SOL    HW233564  11.965   5.831  10.731
43911SOL     OW33565   1.953   7.707  11.378
43911SOL    HW133566   1.959   7.685  11.471
43911SOL    HW233567   1.992   7.631  11.333
43912SOL     OW33568   6.823  13.019  13.702
43912SOL    HW133569   6.900  13.076  13.713
43912SOL    HW233570   6.758  13.074  13.659
43913SOL     OW33571  12.127   7.545   3.639
43913SOL    HW133572  12.151   7.461   3.678
43913SOL    HW233573  12.174   7.610   3.691
43914SOL     OW33574  12.296   7.545   6.694
43914SOL    HW133575  12.339   7.476   6.744
43914SOL    HW233576  12.300   7.515   6.603
43915SOL     OW33577   0.441  13.170  12.117
43915SOL    HW133578   0.360  13.136  12.079
43915SOL    HW233579   0.482  13.219  12.046
43916SOL     OW33580  12.274   3.543  13.307
43916SOL    HW133581  12.358   3.514  13.344
43916SOL    HW233582  12.227   3.461  13.290
43917SOL     OW33583   7.004   0.844   4.384
43917SOL    HW133584   6.991   0.806   4.471
43917SOL    HW233585   6.948   0.792   4.326
43918SOL     OW33586  13.013   3.504   4.931
43918SOL    HW133587  13.060   3.433   4.887
43918SOL    HW233588  13.045   3.502   5.021
43919SOL     OW33589   9.947   1.292   4.141
43919SOL    HW133590  10.033   1.307   4.181
43919SOL    HW233591   9.957   1.209   4.094
43920SOL     OW33592   1.307   5.836   0.710
43920SOL    HW133593   1.341   5.925   0.717
43920SOL    HW233594   1.351   5.787   0.780
43921SOL     OW33595   0.639   2.419  11.487
43921SOL    HW133596   0.569   2.481  11.466
43921SOL    HW233597   0.719   2.472  11.484
43922SOL     OW33598   1.044  11.581  10.067
43922SOL    HW133599   1.027  11.666  10.108
43922SOL    HW233600   1.125  11.593  10.019
43923SOL     OW33601  14.117  10.849   9.175
43923SOL    HW133602  14.117  10.944   9.186
43923SOL    HW233603  14.189  10.831   9.114
43924SOL     OW33604   1.223   7.059   7.476
43924SOL    HW133605   1.146   7.023   7.434
43924SOL    HW233606   1.195   7.144   7.510
43925SOL     OW33607  12.115   3.210  14.538
43925SOL    HW133608  12.028   3.223  14.501
43925SOL    HW233609  12.145   3.127  14.500
43926SOL     OW33610  13.748   1.320  12.251
43926SOL    HW133611  13.727   1.241  12.300
43926SOL    HW233612  13.671   1.335  12.196
43927SOL     OW33613  12.407  11.136   8.464
43927SOL    HW133614  12.428  11.046   8.438
43927SOL    HW233615  12.467  11.155   8.537
43928SOL     OW33616  11.560   5.991   9.778
43928SOL    HW133617  11.546   6.059   9.844
43928SOL    HW233618  11.490   5.927   9.794
43929SOL     OW33619   4.483  13.791   2.811
43929SOL    HW133620   4.546  13.752   2.750
43929SOL    HW233621   4.498  13.885   2.803
43930SOL     OW33622   6.773   1.979  10.792
43930SOL    HW133623   6.752   2.043  10.860
43930SOL    HW233624   6.821   1.910  10.837
43931SOL     OW33625  12.379   6.531   1.268
43931SOL    HW133626  12.422   6.472   1.206
43931SOL    HW233627  12.364   6.611   1.218
43932SOL     OW33628  12.366   5.336  13.420
43932SOL    HW133629  12.272   5.351  13.420
43932SOL    HW233630  12.396   5.367  13.334
43933SOL     OW33631  12.402   8.710   9.692
43933SOL    HW133632  12.349   8.765   9.751
43933SOL    HW233633  12.354   8.712   9.609
43934SOL     OW33634   0.426   8.665   0.402
43934SOL    HW133635   0.370   8.738   0.377
43934SOL    HW233636   0.515   8.695   0.384
43935SOL     OW33637   7.055   6.667  14.344
43935SOL    HW133638   6.977   6.634  14.299
43935SOL    HW233639   7.128   6.623  14.301
43936SOL     OW33640   0.881   7.362   3.769
43936SOL    HW133641   0.826   7.396   3.698
43936SOL    HW233642   0.904   7.440   3.820
43937SOL     OW33643  14.419   2.913   0.682
43937SOL    HW133644  14.513   2.921   0.695
43937SOL    HW233645  14.404   2.819   0.671
43938SOL     OW33646   0.859   8.092   5.655
43938SOL    HW133647   0.771   8.065   5.680
43938SOL    HW233648   0.873   8.175   5.701
43939SOL     OW33649  12.185   3.900   2.965
43939SOL    HW133650  12.240   3.854   3.028
43939SOL    HW233651  12.096   3.871   2.984
43940SOL     OW33652   4.662  13.747  11.279
43940SOL    HW133653   4.573  13.713  11.289
43940SOL    HW233654   4.650  13.837  11.248
43941SOL     OW33655   8.403  12.167  10.979
43941SOL    HW133656   8.480  12.111  10.967
43941SOL    HW233657   8.329  12.107  10.975
43942SOL     OW33658   0.158  14.649   5.806
43942SOL    HW133659   0.184  14.565   5.844
43942SOL    HW233660   0.094  14.627   5.738
43943SOL     OW33661   6.255   4.572  10.016
43943SOL    HW133662   6.243   4.663  10.043
43943SOL    HW233663   6.201   4.521  10.076
43944SOL     OW33664   7.896   3.019   3.119
43944SOL    HW133665   7.908   3.089   3.182
43944SOL    HW233666   7.804   2.993   3.128
43945SOL     OW33667  14.819   3.127  14.281
43945SOL    HW133668   0.018   3.085  14.234
43945SOL    HW233669  14.828   3.220  14.261
43946SOL     OW33670   0.547   2.946   6.336
43946SOL    HW133671   0.530   2.969   6.428
43946SOL    HW233672   0.640   2.966   6.323
43947SOL     OW33673  12.017   9.508   9.908
43947SOL    HW133674  12.035   9.547   9.994
43947SOL    HW233675  11.956   9.436   9.927
43948SOL     OW33676   1.801   9.994  14.476
43948SOL    HW133677   1.824   9.999  14.568
43948SOL    HW233678   1.845  10.070  14.436
43949SOL     OW33679   6.433   4.124   7.540
43949SOL    HW133680   6.515   4.125   7.590
43949SOL    HW233681   6.397   4.037   7.555
43950SOL     OW33682   1.100  13.432   9.946
43950SOL    HW133683   1.010  13.406   9.966
43950SOL    HW233684   1.090  13.503   9.882
43951SOL     OW33685   5.800   8.753   4.430
43951SOL    HW133686   5.723   8.726   4.481
43951SOL    HW233687   5.808   8.685   4.362
43952SOL     OW33688  13.787   5.707  12.678
43952SOL    HW133689  13.768   5.724  12.586
43952SOL    HW233690  13.709   5.662  12.711
43953SOL     OW33691   2.540  14.059   4.434
43953SOL    HW133692   2.533  14.078   4.528
43953SOL    HW233693   2.618  14.003   4.427
43954SOL     OW33694  13.464  14.089   8.284
43954SOL    HW133695  13.430  14.178   8.272
43954SOL    HW233696  13.467  14.077   8.379
43955SOL     OW33697   0.680   3.953   9.823
43955SOL    HW133698   0.658   4.025   9.882
43955SOL    HW233699   0.595   3.912   9.803
43956SOL     OW33700   3.595   4.190   4.773
43956SOL    HW133701   3.668   4.252   4.775
43956SOL    HW233702   3.556   4.202   4.686
43957SOL     OW33703   2.477  10.554  11.163
43957SOL    HW133704   2.463  10.565  11.257
43957SOL    HW233705   2.390  10.531  11.129
43958SOL     OW33706   4.410   9.402   9.947
43958SOL    HW133707   4.479   9.438  10.002
43958SOL    HW233708   4.448   9.324   9.908
43959SOL     OW33709  11.314   0.703   7.769
43959SOL    HW133710  11.256   0.714   7.844
43959SOL    HW233711  11.390   0.657   7.803
43960SOL     OW33712  11.174   2.532   6.460
43960SOL    HW133713  11.185   2.550   6.554
43960SOL    HW233714  11.238   2.589   6.418
43961SOL     OW33715   2.526   7.925   8.514
43961SOL    HW133716   2.567   7.914   8.600
43961SOL    HW233717   2.519   7.837   8.478
43962SOL     OW33718  11.667   3.790   1.365
43962SOL    HW133719  11.671   3.703   1.405
43962SOL    HW233720  11.719   3.846   1.424
43963SOL     OW33721   4.477   8.663   2.658
43963SOL    HW133722   4.428   8.621   2.728
43963SOL    HW233723   4.492   8.594   2.593
43964SOL     OW33724   8.081   1.100   0.177
43964SOL    HW133725   8.131   1.086   0.097
43964SOL    HW233726   8.077   1.013   0.218
43965SOL     OW33727   1.979   2.684  10.437
43965SOL    HW133728   2.008   2.711  10.524
43965SOL    HW233729   1.886   2.666  10.447
43966SOL     OW33730   5.407  10.040   6.465
43966SOL    HW133731   5.471  10.100   6.503
43966SOL    HW233732   5.457   9.960   6.448
43967SOL     OW33733   7.507  10.297  11.833
43967SOL    HW133734   7.487  10.204  11.843
43967SOL    HW233735   7.599  10.299  11.806
43968SOL     OW33736   9.154   2.072   6.012
43968SOL    HW133737   9.125   1.982   5.999
43968SOL    HW233738   9.163   2.108   5.924
43969SOL     OW33739   0.746   1.259   6.221
43969SOL    HW133740   0.834   1.222   6.228
43969SOL    HW233741   0.702   1.230   6.301
43970SOL     OW33742   1.343  12.059   8.932
43970SOL    HW133743   1.289  12.074   8.855
43970SOL    HW233744   1.337  11.965   8.949
43971SOL     OW33745   9.725   1.008   6.151
43971SOL    HW133746   9.794   0.945   6.131
43971SOL    HW233747   9.728   1.072   6.080
43972SOL     OW33748  12.496   6.046   5.137
43972SOL    HW133749  12.481   5.984   5.065
43972SOL    HW233750  12.588   6.069   5.130
43973SOL     OW33751   7.872   9.606   0.112
43973SOL    HW133752   7.963   9.630   0.129
43973SOL    HW233753   7.839   9.577   0.197
43974SOL     OW33754   8.797   2.420   4.260
43974SOL    HW133755   8.743   2.460   4.327
43974SOL    HW233756   8.775   2.467   4.179
43975SOL     OW33757   3.378   3.567   2.933
43975SOL    HW133758   3.311   3.538   2.871
43975SOL    HW233759   3.339   3.550   3.019
43976SOL     OW33760   8.035  12.931  13.359
43976SOL    HW133761   8.075  12.865  13.302
43976SOL    HW233762   8.103  12.997  13.371
43977SOL     OW33763   7.574   8.678   9.780
43977SOL    HW133764   7.543   8.651   9.866
43977SOL    HW233765   7.525   8.623   9.719
43978SOL     OW33766   4.644   2.986   8.033
43978SOL    HW133767   4.555   3.010   8.057
43978SOL    HW233768   4.693   3.069   8.039
43979SOL     OW33769   9.908   1.775   1.726
43979SOL    HW133770   9.877   1.842   1.665
43979SOL    HW233771   9.832   1.756   1.781
43980SOL     OW33772   2.992   2.963   8.163
43980SOL    HW133773   3.008   2.892   8.225
43980SOL    HW233774   3.058   3.029   8.185
43981SOL     OW33775   5.935  14.312   6.951
43981SOL    HW133776   5.959  14.371   6.879
43981SOL    HW233777   5.983  14.346   7.027
43982SOL     OW33778   4.195   1.335  10.748
43982SOL    HW133779   4.139   1.320  10.671
43982SOL    HW233780   4.149   1.403  10.798
43983SOL     OW33781  12.969  13.517   2.355
43983SOL    HW133782  12.930  13.489   2.438
43983SOL    HW233783  13.037  13.453   2.338
43984SOL     OW33784   1.210   5.725   7.724
43984SOL    HW133785   1.128   5.710   7.770
43984SOL    HW233786   1.273   5.746   7.793
43985SOL     OW33787  11.135  13.634  10.117
43985SOL    HW133788  11.054  13.678  10.141
43985SOL    HW233789  11.107  13.552  10.076
43986SOL     OW33790   9.509   1.956  11.744
43986SOL    HW133791   9.566   2.033  11.733
43986SOL    HW233792   9.564   1.882  11.719
43987SOL     OW33793   4.625   3.697   1.423
43987SOL    HW133794   4.706   3.715   1.470
43987SOL    HW233795   4.568   3.772   1.441
43988SOL     OW33796   6.077  10.978  13.901
43988SOL    HW133797   5.994  11.013  13.868
43988SOL    HW233798   6.064  10.971  13.996
43989SOL     OW33799  10.845   4.014   9.196
43989SOL    HW133800  10.857   3.991   9.288
43989SOL    HW233801  10.899   3.951   9.149
43990SOL     OW33802   5.545  10.443   5.277
43990SOL    HW133803   5.629  10.488   5.284
43990SOL    HW233804   5.559  10.357   5.316
43991SOL     OW33805   5.604  13.520   6.346
43991SOL    HW133806   5.601  13.566   6.430
43991SOL    HW233807   5.696  13.496   6.336
43992SOL     OW33808   6.863   2.596  11.981
43992SOL    HW133809   6.845   2.633  11.895
43992SOL    HW233810   6.915   2.518  11.964
43993SOL     OW33811  14.765  12.079   7.845
43993SOL    HW133812  14.787  12.039   7.761
43993SOL    HW233813  14.786  12.172   7.833
43994SOL     OW33814  11.021   5.681  14.025
43994SOL    HW133815  11.078   5.605  14.008
43994SOL    HW233816  10.937   5.657  13.986
43995SOL     OW33817   9.124  10.273  10.362
43995SOL    HW133818   9.216  10.250  10.377
43995SOL    HW233819   9.079  10.189  10.360
43996SOL     OW33820   5.488  11.228   0.984
43996SOL    HW133821   5.544  11.304   1.001
43996SOL    HW233822   5.400  11.264   0.983
43997SOL     OW33823   2.863   4.892  14.191
43997SOL    HW133824   2.893   4.810  14.232
43997SOL    HW233825   2.778   4.909  14.231
43998SOL     OW33826   0.902  14.312   3.591
43998SOL    HW133827   0.919  14.241   3.652
43998SOL    HW233828   0.856  14.379   3.643
43999SOL     OW33829   5.586   0.576  11.393
43999SOL    HW133830   5.545   0.661  11.380
43999SOL    HW233831   5.540   0.517  11.334
44000SOL     OW33832   4.597   1.086   6.507
44000SOL    HW133833   4.526   1.150   6.507
44000SOL    HW233834   4.594   1.046   6.420
44001SOL     OW33835   5.956   1.234   2.432
44001SOL    HW133836   5.901   1.308   2.458
44001SOL    HW233837   6.045   1.263   2.451
44002SOL     OW33838   5.437   2.552   6.041
44002SOL    HW133839   5.487   2.611   6.097
44002SOL    HW233840   5.395   2.609   5.977
44003SOL     OW33841   5.561   0.538   2.600
44003SOL    HW133842   5.657   0.539   2.601
44003SOL    HW233843   5.536   0.624   2.567
44004SOL     OW33844   0.999   9.256   0.315
44004SOL    HW133845   0.980   9.276   0.223
44004SOL    HW233846   0.956   9.172   0.330
44005SOL     OW33847   9.802   9.821   4.041
44005SOL    HW133848   9.787   9.729   4.021
44005SOL    HW233849   9.714   9.858   4.048
44006SOL     OW33850  11.540  11.285   7.214
44006SOL    HW133851  11.618  11.319   7.170
44006SOL    HW233852  11.477  11.268   7.143
44007SOL     OW33853  13.891   5.158   5.386
44007SOL    HW133854  13.832   5.222   5.426
44007SOL    HW233855  13.947   5.210   5.328
44008SOL     OW33856   5.651  13.871   2.252
44008SOL    HW133857   5.671  13.788   2.208
44008SOL    HW233858   5.663  13.937   2.183
44009SOL     OW33859   6.666  10.667   6.435
44009SOL    HW133860   6.730  10.637   6.370
44009SOL    HW233861   6.591  10.608   6.424
44010SOL     OW33862   8.495   0.796   8.250
44010SOL    HW133863   8.585   0.763   8.244
44010SOL    HW233864   8.478   0.800   8.344
44011SOL     OW33865   7.948  10.801   1.013
44011SOL    HW133866   8.026  10.825   0.964
44011SOL    HW233867   7.979  10.739   1.079
44012SOL     OW33868   1.073  10.463   8.370
44012SOL    HW133869   1.003  10.507   8.322
44012SOL    HW233870   1.028  10.409   8.434
44013SOL     OW33871  13.312   2.384   6.854
44013SOL    HW133872  13.356   2.397   6.938
44013SOL    HW233873  13.270   2.298   6.860
44014SOL     OW33874  13.102  12.871   3.141
44014SOL    HW133875  13.141  12.783   3.141
44014SOL    HW233876  13.031  12.865   3.205
44015SOL     OW33877   3.404  12.230   0.446
44015SOL    HW133878   3.433  12.262   0.531
44015SOL    HW233879   3.355  12.302   0.408
44016SOL     OW33880   1.863   4.902   8.201
44016SOL    HW133881   1.884   4.966   8.269
44016SOL    HW233882   1.942   4.896   8.149
44017SOL     OW33883   8.868  10.471  12.242
44017SOL    HW133884   8.901  10.545  12.293
44017SOL    HW233885   8.773  10.482  12.242
44018SOL     OW33886  12.052   5.115   9.471
44018SOL    HW133887  11.989   5.168   9.519
44018SOL    HW233888  12.048   5.028   9.512
44019SOL     OW33889  14.651   5.066   9.401
44019SOL    HW133890  14.725   5.008   9.417
44019SOL    HW233891  14.574   5.011   9.415
44020SOL     OW33892  12.679   6.759   7.836
44020SOL    HW133893  12.681   6.735   7.928
44020SOL    HW233894  12.698   6.677   7.789
44021SOL     OW33895   0.617   8.808   0.710
44021SOL    HW133896   0.711   8.830   0.714
44021SOL    HW233897   0.615   8.713   0.706
44022SOL     OW33898   4.593   6.664   5.557
44022SOL    HW133899   4.526   6.597   5.548
44022SOL    HW233900   4.584   6.719   5.479
44023SOL     OW33901   6.642   0.369  13.920
44023SOL    HW133902   6.546   0.368  13.927
44023SOL    HW233903   6.663   0.459  13.895
44024SOL     OW33904   8.005  12.095   1.843
44024SOL    HW133905   8.016  12.190   1.843
44024SOL    HW233906   8.087  12.061   1.808
44025SOL     OW33907   6.165   8.113  14.001
44025SOL    HW133908   6.226   8.073  14.063
44025SOL    HW233909   6.202   8.200  13.984
44026SOL     OW33910   1.891  12.631   9.800
44026SOL    HW133911   1.949  12.572   9.849
44026SOL    HW233912   1.838  12.674   9.867
44027SOL     OW33913   5.208   3.409  13.718
44027SOL    HW133914   5.213   3.314  13.722
44027SOL    HW233915   5.139   3.432  13.780
44028SOL     OW33916  10.045   2.583  12.507
44028SOL    HW133917  10.049   2.511  12.444
44028SOL    HW233918  10.064   2.542  12.591
44029SOL     OW33919  11.343   9.422  11.582
44029SOL    HW133920  11.251   9.443  11.596
44029SOL    HW233921  11.381   9.504  11.549
44030SOL     OW33922   7.216   2.317   0.988
44030SOL    HW133923   7.255   2.232   0.972
44030SOL    HW233924   7.143   2.300   1.048
44031SOL     OW33925   7.664   6.323   5.061
44031SOL    HW133926   7.581   6.346   5.104
44031SOL    HW233927   7.673   6.387   4.990
44032SOL     OW33928   9.625   5.561   6.370
44032SOL    HW133929   9.572   5.544   6.448
44032SOL    HW233930   9.621   5.479   6.320
44033SOL     OW33931  11.938  10.088   6.901
44033SOL    HW133932  11.991  10.031   6.845
44033SOL    HW233933  11.874  10.030   6.942
44034SOL     OW33934  14.384   3.348   6.288
44034SOL    HW133935  14.397   3.254   6.273
44034SOL    HW233936  14.468   3.388   6.267
44035SOL     OW33937  11.360   9.378   9.128
44035SOL    HW133938  11.405   9.298   9.154
44035SOL    HW233939  11.309   9.403   9.205
44036SOL     OW33940  12.729   3.882   0.490
44036SOL    HW133941  12.655   3.875   0.550
44036SOL    HW233942  12.780   3.956   0.524
44037SOL     OW33943  13.122   3.144   7.233
44037SOL    HW133944  13.114   3.117   7.141
44037SOL    HW233945  13.094   3.235   7.233
44038SOL     OW33946   6.196   5.409   2.828
44038SOL    HW133947   6.241   5.453   2.756
44038SOL    HW233948   6.181   5.320   2.796
44039SOL     OW33949   6.253   2.607   9.337
44039SOL    HW133950   6.269   2.568   9.423
44039SOL    HW233951   6.166   2.575   9.312
44040SOL     OW33952   6.501   4.578   7.633
44040SOL    HW133953   6.543   4.625   7.705
44040SOL    HW233954   6.407   4.594   7.646
44041SOL     OW33955   3.169  12.561   1.439
44041SOL    HW133956   3.109  12.488   1.426
44041SOL    HW233957   3.117  12.639   1.417
44042SOL     OW33958   8.785  14.282   6.571
44042SOL    HW133959   8.753  14.260   6.483
44042SOL    HW233960   8.710  14.323   6.614
44043SOL     OW33961   8.745   4.958   4.007
44043SOL    HW133962   8.725   4.888   4.069
44043SOL    HW233963   8.813   4.922   3.950
44044SOL     OW33964   5.838  14.471  11.353
44044SOL    HW133965   5.839  14.526  11.276
44044SOL    HW233966   5.841  14.381  11.319
44045SOL     OW33967   2.122   4.594  13.728
44045SOL    HW133968   2.180   4.520  13.710
44045SOL    HW233969   2.156   4.665  13.675
44046SOL     OW33970   3.752   3.422   0.425
44046SOL    HW133971   3.675   3.388   0.470
44046SOL    HW233972   3.761   3.511   0.458
44047SOL     OW33973   4.995   3.214  11.340
44047SOL    HW133974   5.085   3.187  11.359
44047SOL    HW233975   4.993   3.308  11.358
44048SOL     OW33976   3.582  11.989   4.909
44048SOL    HW133977   3.562  11.917   4.848
44048SOL    HW233978   3.570  11.951   4.996
44049SOL     OW33979   3.200  11.440  13.862
44049SOL    HW133980   3.170  11.399  13.780
44049SOL    HW233981   3.277  11.390  13.887
44050SOL     OW33982  13.145   8.362  11.355
44050SOL    HW133983  13.230   8.405  11.354
44050SOL    HW233984  13.094   8.407  11.287
44051SOL     OW33985  11.711   3.660   8.785
44051SOL    HW133986  11.744   3.743   8.819
44051SOL    HW233987  11.788   3.605   8.775
44052SOL     OW33988   2.928   3.828   2.229
44052SOL    HW133989   2.876   3.752   2.203
44052SOL    HW233990   2.975   3.800   2.307
44053SOL     OW33991   8.110   9.462   9.775
44053SOL    HW133992   8.037   9.410   9.741
44053SOL    HW233993   8.152   9.498   9.698
44054SOL     OW33994  12.490   2.674   4.288
44054SOL    HW133995  12.544   2.595   4.295
44054SOL    HW233996  12.482   2.705   4.378
44055SOL     OW33997   3.692   4.913  12.322
44055SOL    HW133998   3.727   4.928  12.410
44055SOL    HW233999   3.726   4.986  12.271
44056SOL     OW34000   9.452   3.851   3.002
44056SOL    HW134001   9.536   3.810   2.981
44056SOL    HW234002   9.401   3.843   2.922
44057SOL     OW34003   8.596   2.235   1.614
44057SOL    HW134004   8.602   2.322   1.652
44057SOL    HW234005   8.673   2.227   1.558
44058SOL     OW34006  11.775  10.344   9.135
44058SOL    HW134007  11.823  10.427   9.136
44058SOL    HW234008  11.688  10.367   9.101
44059SOL     OW34009   6.079   2.469  10.288
44059SOL    HW134010   6.004   2.509  10.244
44059SOL    HW234011   6.075   2.376  10.263
44060SOL     OW34012  13.252   5.227   7.295
44060SOL    HW134013  13.199   5.302   7.322
44060SOL    HW234014  13.291   5.194   7.376
44061SOL     OW34015   8.212  13.387  13.201
44061SOL    HW134016   8.151  13.400  13.129
44061SOL    HW234017   8.237  13.475  13.228
44062SOL     OW34018   4.034   1.009   5.913
44062SOL    HW134019   4.071   1.009   5.824
44062SOL    HW234020   4.049   0.921   5.945
44063SOL     OW34021  13.327  13.858   6.405
44063SOL    HW134022  13.369  13.784   6.361
44063SOL    HW234023  13.249  13.876   6.351
44064SOL     OW34024   3.310   6.127   0.424
44064SOL    HW134025   3.249   6.196   0.397
44064SOL    HW234026   3.354   6.101   0.343
44065SOL     OW34027  13.827   2.894  12.677
44065SOL    HW134028  13.883   2.972  12.675
44065SOL    HW234029  13.880   2.827  12.719
44066SOL     OW34030  11.176   6.799   8.345
44066SOL    HW134031  11.201   6.707   8.341
44066SOL    HW234032  11.088   6.802   8.307
44067SOL     OW34033   0.318   2.485  13.657
44067SOL    HW134034   0.261   2.547  13.703
44067SOL    HW234035   0.341   2.530  13.576
44068SOL     OW34036   2.138   5.299   8.574
44068SOL    HW134037   2.203   5.359   8.610
44068SOL    HW234038   2.124   5.330   8.484
44069SOL     OW34039  14.039  11.337  10.402
44069SOL    HW134040  14.111  11.290  10.359
44069SOL    HW234041  14.074  11.358  10.489
44070SOL     OW34042   0.150   3.800   9.518
44070SOL    HW134043   0.186   3.746   9.589
44070SOL    HW234044   0.093   3.862   9.563
44071SOL     OW34045  12.599   8.549   6.577
44071SOL    HW134046  12.544   8.479   6.612
44071SOL    HW234047  12.540   8.625   6.571
44072SOL     OW34048  10.359  14.594   0.660
44072SOL    HW134049  10.389  14.546   0.583
44072SOL    HW234050  10.438  14.630   0.698
44073SOL     OW34051   1.853   3.337   3.474
44073SOL    HW134052   1.788   3.399   3.442
44073SOL    HW234053   1.813   3.297   3.551
44074SOL     OW34054  13.950   5.920   8.710
44074SOL    HW134055  13.987   5.853   8.653
44074SOL    HW234056  13.996   6.000   8.686
44075SOL     OW34057  14.389   0.564   8.607
44075SOL    HW134058  14.338   0.644   8.621
44075SOL    HW234059  14.386   0.518   8.691
44076SOL     OW34060   5.520   0.304   9.524
44076SOL    HW134061   5.450   0.343   9.576
44076SOL    HW234062   5.500   0.210   9.523
44077SOL     OW34063   2.631   7.897   6.272
44077SOL    HW134064   2.555   7.860   6.318
44077SOL    HW234065   2.595   7.970   6.222
44078SOL     OW34066   1.257   6.246   2.066
44078SOL    HW134067   1.251   6.160   2.108
44078SOL    HW234068   1.251   6.227   1.973
44079SOL     OW34069   3.379   2.138  13.103
44079SOL    HW134070   3.293   2.107  13.075
44079SOL    HW234071   3.371   2.147  13.198
44080SOL     OW34072   2.571  11.262  12.136
44080SOL    HW134073   2.543  11.221  12.218
44080SOL    HW234074   2.651  11.310  12.159
44081SOL     OW34075   0.135   6.550  14.181
44081SOL    HW134076   0.129   6.576  14.089
44081SOL    HW234077   0.090   6.620  14.228
44082SOL     OW34078  12.855  11.113  10.648
44082SOL    HW134079  12.808  11.128  10.730
44082SOL    HW234080  12.942  11.148  10.663
44083SOL     OW34081   6.003   3.316  13.145
44083SOL    HW134082   5.950   3.253  13.095
44083SOL    HW234083   6.012   3.275  13.232
44084SOL     OW34084   8.016   1.597  11.443
44084SOL    HW134085   7.983   1.590  11.353
44084SOL    HW234086   8.088   1.659  11.437
44085SOL     OW34087   7.853  10.553   4.267
44085SOL    HW134088   7.826  10.603   4.344
44085SOL    HW234089   7.772  10.515   4.233
44086SOL     OW34090   6.539   6.876   6.318
44086SOL    HW134091   6.493   6.859   6.236
44086SOL    HW234092   6.515   6.803   6.375
44087SOL     OW34093   2.665   9.165   0.223
44087SOL    HW134094   2.685   9.193   0.133
44087SOL    HW234095   2.590   9.219   0.248
44088SOL     OW34096  10.430   0.862   2.992
44088SOL    HW134097  10.513   0.816   2.976
44088SOL    HW234098  10.364   0.804   2.953
44089SOL     OW34099   8.080  14.619   8.070
44089SOL    HW134100   8.064  14.595   8.162
44089SOL    HW234101   8.134  14.547   8.036
44090SOL     OW34102   2.642   3.333   0.391
44090SOL    HW134103   2.637   3.339   0.486
44090SOL    HW234104   2.686   3.414   0.364
44091SOL     OW34105   2.324  12.084   0.827
44091SOL    HW134106   2.331  12.096   0.922
44091SOL    HW234107   2.310  11.989   0.816
44092SOL     OW34108  13.848  13.013   0.191
44092SOL    HW134109  13.828  13.016   0.098
44092SOL    HW234110  13.771  13.050   0.234
44093SOL     OW34111  10.135   1.681   7.811
44093SOL    HW134112  10.097   1.757   7.768
44093SOL    HW234113  10.116   1.608   7.751
44094SOL     OW34114   4.102  11.542   8.575
44094SOL    HW134115   4.180  11.594   8.597
44094SOL    HW234116   4.029  11.602   8.589
44095SOL     OW34117  10.044  11.850   7.584
44095SOL    HW134118  10.067  11.826   7.673
44095SOL    HW234119  10.051  11.945   7.581
44096SOL     OW34120   0.416   2.712  12.355
44096SOL    HW134121   0.367   2.723  12.274
44096SOL    HW234122   0.406   2.619  12.377
44097SOL     OW34123  11.738   9.872   4.354
44097SOL    HW134124  11.661   9.841   4.308
44097SOL    HW234125  11.722   9.966   4.367
44098SOL     OW34126  11.088   1.052   1.520
44098SOL    HW134127  11.028   1.007   1.579
44098SOL    HW234128  11.031   1.111   1.469
44099SOL     OW34129  13.448   4.056   0.078
44099SOL    HW134130  13.538   4.087   0.083
44099SOL    HW234131  13.437   4.027  14.860
44100SOL     OW34132  11.464   1.772  14.715
44100SOL    HW134133  11.454   1.713  14.640
44100SOL    HW234134  11.375   1.799  14.737
44101SOL     OW34135  10.471  12.405   3.587
44101SOL    HW134136  10.447  12.409   3.494
44101SOL    HW234137  10.400  12.451   3.632
44102SOL     OW34138  12.800  14.136  13.596
44102SOL    HW134139  12.803  14.231  13.606
44102SOL    HW234140  12.872  14.115  13.537
44103SOL     OW34141   2.949   8.614   4.205
44103SOL    HW134142   2.874   8.614   4.264
44103SOL    HW234143   2.930   8.682   4.141
44104SOL     OW34144   9.899  13.597   6.274
44104SOL    HW134145   9.805  13.613   6.269
44104SOL    HW234146   9.907  13.512   6.317
44105SOL     OW34147  12.912  11.856   6.377
44105SOL    HW134148  12.929  11.906   6.456
44105SOL    HW234149  12.834  11.804   6.398
44106SOL     OW34150   8.011   3.954   8.864
44106SOL    HW134151   7.915   3.958   8.867
44106SOL    HW234152   8.035   3.898   8.937
44107SOL     OW34153   9.119  10.509  10.244
44107SOL    HW134154   9.034  10.505  10.201
44107SOL    HW234155   9.120  10.434  10.303
44108SOL     OW34156   3.620  11.541  12.423
44108SOL    HW134157   3.598  11.473  12.360
44108SOL    HW234158   3.715  11.551  12.416
44109SOL     OW34159   3.797   3.399   0.048
44109SOL    HW134160   3.863   3.330   0.040
44109SOL    HW234161   3.716   3.359   0.019
44110SOL     OW34162  13.058  13.725   3.266
44110SOL    HW134163  13.053  13.772   3.349
44110SOL    HW234164  13.149  13.734   3.239
44111SOL     OW34165   3.943   4.505   6.534
44111SOL    HW134166   4.001   4.574   6.564
44111SOL    HW234167   3.905   4.539   6.453
44112SOL     OW34168   9.718  13.053   5.806
44112SOL    HW134169   9.729  12.959   5.797
44112SOL    HW234170   9.654  13.077   5.739
44113SOL     OW34171   4.725  13.799   6.654
44113SOL    HW134172   4.693  13.875   6.702
44113SOL    HW234173   4.673  13.798   6.573
44114SOL     OW34174  10.483   1.077  13.366
44114SOL    HW134175  10.521   1.020  13.299
44114SOL    HW234176  10.391   1.084  13.343
44115SOL     OW34177  10.302   1.105   3.357
44115SOL    HW134178  10.321   1.018   3.322
44115SOL    HW234179  10.312   1.164   3.283
44116SOL     OW34180   8.434   2.537   9.722
44116SOL    HW134181   8.507   2.556   9.782
44116SOL    HW234182   8.458   2.454   9.681
44117SOL     OW34183   6.489   5.929  13.900
44117SOL    HW134184   6.565   5.874  13.883
44117SOL    HW234185   6.414   5.869  13.895
44118SOL     OW34186   5.634   9.979   5.934
44118SOL    HW134187   5.663   9.992   5.844
44118SOL    HW234188   5.538   9.978   5.929
44119SOL     OW34189   3.701  12.971  13.726
44119SOL    HW134190   3.650  13.004  13.801
44119SOL    HW234191   3.781  13.023  13.726
44120SOL     OW34192  12.533  11.437  11.550
44120SOL    HW134193  12.503  11.492  11.623
44120SOL    HW234194  12.546  11.351  11.588
44121SOL     OW34195  13.535   0.545   6.010
44121SOL    HW134196  13.522   0.594   6.091
44121SOL    HW234197  13.561   0.458   6.040
44122SOL     OW34198  11.776  14.496  13.793
44122SOL    HW134199  11.871  14.505  13.793
44122SOL    HW234200  11.754  14.469  13.882
44123SOL     OW34201   7.078   9.894  12.237
44123SOL    HW134202   7.070   9.905  12.142
44123SOL    HW234203   7.069   9.982  12.272
44124SOL     OW34204  13.598  12.170  12.725
44124SOL    HW134205  13.630  12.147  12.638
44124SOL    HW234206  13.627  12.260  12.739
44125SOL     OW34207  14.737   8.510   5.284
44125SOL    HW134208  14.691   8.450   5.344
44125SOL    HW234209  14.681   8.588   5.283
44126SOL     OW34210   1.366  14.398   7.520
44126SOL    HW134211   1.447  14.412   7.568
44126SOL    HW234212   1.384  14.323   7.463
44127SOL     OW34213  13.875   5.174   6.152
44127SOL    HW134214  13.864   5.116   6.077
44127SOL    HW234215  13.965   5.206   6.144
44128SOL     OW34216  10.861   5.934   9.948
44128SOL    HW134217  10.783   5.889   9.916
44128SOL    HW234218  10.868   5.907  10.040
44129SOL     OW34219  12.237   5.396   5.526
44129SOL    HW134220  12.225   5.473   5.581
44129SOL    HW234221  12.242   5.432   5.437
44130SOL     OW34222  12.211   9.281   8.432
44130SOL    HW134223  12.153   9.247   8.499
44130SOL    HW234224  12.283   9.218   8.428
44131SOL     OW34225   6.992  10.449   8.943
44131SOL    HW134226   6.917  10.390   8.949
44131SOL    HW234227   7.039  10.438   9.026
44132SOL     OW34228  13.459   0.218  14.258
44132SOL    HW134229  13.549   0.193  14.236
44132SOL    HW234230  13.469   0.300  14.307
44133SOL     OW34231  14.778  12.262   0.611
44133SOL    HW134232  14.810  12.173   0.602
44133SOL    HW234233  14.752  12.269   0.703
44134SOL     OW34234   0.238  12.368   9.466
44134SOL    HW134235   0.249  12.426   9.390
44134SOL    HW234236   0.144  12.351   9.470
44135SOL     OW34237   4.836   1.595  12.722
44135SOL    HW134238   4.756   1.647  12.723
44135SOL    HW234239   4.826   1.537  12.645
44136SOL     OW34240  14.755   0.611   5.177
44136SOL    HW134241  14.744   0.700   5.212
44136SOL    HW234242  14.744   0.554   5.253
44137SOL     OW34243   1.086  10.104   8.506
44137SOL    HW134244   1.105  10.013   8.482
44137SOL    HW234245   1.148  10.124   8.575
44138SOL     OW34246  11.869   7.617  10.285
44138SOL    HW134247  11.892   7.672  10.360
44138SOL    HW234248  11.951   7.575  10.259
44139SOL     OW34249  11.500  14.531  12.667
44139SOL    HW134250  11.443  14.602  12.636
44139SOL    HW234251  11.580  14.540  12.614
44140SOL     OW34252   5.305  12.539   7.762
44140SOL    HW134253   5.335  12.464   7.711
44140SOL    HW234254   5.256  12.592   7.699
44141SOL     OW34255  13.748   2.130   6.460
44141SOL    HW134256  13.794   2.210   6.485
44141SOL    HW234257  13.687   2.158   6.392
44142SOL     OW34258  13.107   5.465   1.041
44142SOL    HW134259  13.189   5.514   1.039
44142SOL    HW234260  13.111   5.415   1.123
44143SOL     OW34261   8.928  14.796  12.724
44143SOL    HW134262   8.906   0.007  12.764
44143SOL    HW234263   8.850  14.742  12.737
44144SOL     OW34264   7.050  14.103   4.025
44144SOL    HW134265   7.028  14.183   4.073
44144SOL    HW234266   7.076  14.041   4.093
44145SOL     OW34267   4.919   7.695   6.645
44145SOL    HW134268   4.844   7.661   6.693
44145SOL    HW234269   4.951   7.621   6.594
44146SOL     OW34270   0.385   2.248  14.060
44146SOL    HW134271   0.404   2.277  14.149
44146SOL    HW234272   0.291   2.231  14.060
44147SOL     OW34273   1.176   0.804   6.404
44147SOL    HW134274   1.170   0.872   6.471
44147SOL    HW234275   1.185   0.723   6.454
44148SOL     OW34276   1.187  14.270   6.861
44148SOL    HW134277   1.174  14.197   6.923
44148SOL    HW234278   1.100  14.310   6.853
44149SOL     OW34279   2.861   7.963   9.503
44149SOL    HW134280   2.892   7.874   9.487
44149SOL    HW234281   2.907   7.991   9.582
44150SOL     OW34282   2.306   1.709   7.176
44150SOL    HW134283   2.336   1.722   7.087
44150SOL    HW234284   2.303   1.614   7.187
44151SOL     OW34285   0.286  11.244   1.307
44151SOL    HW134286   0.259  11.156   1.282
44151SOL    HW234287   0.318  11.234   1.397
44152SOL     OW34288   7.329   3.996  10.210
44152SOL    HW134289   7.338   3.940  10.133
44152SOL    HW234290   7.334   4.085  10.176
44153SOL     OW34291   4.227   9.064   5.371
44153SOL    HW134292   4.206   8.974   5.397
44153SOL    HW234293   4.223   9.114   5.452
44154SOL     OW34294   2.163   3.656   9.677
44154SOL    HW134295   2.164   3.714   9.753
44154SOL    HW234296   2.091   3.688   9.622
44155SOL     OW34297   1.074   5.737   2.104
44155SOL    HW134298   1.102   5.820   2.142
44155SOL    HW234299   1.147   5.710   2.049
44156SOL     OW34300   8.117  12.791   9.332
44156SOL    HW134301   8.146  12.876   9.299
44156SOL    HW234302   8.023  12.801   9.347
44157SOL     OW34303   2.832  11.948   7.841
44157SOL    HW134304   2.772  11.954   7.915
44157SOL    HW234305   2.873  12.034   7.837
44158SOL     OW34306  14.169  13.369  11.678
44158SOL    HW134307  14.255  13.331  11.657
44158SOL    HW234308  14.141  13.321  11.755
44159SOL     OW34309   9.211   3.269   5.302
44159SOL    HW134310   9.179   3.273   5.392
44159SOL    HW234311   9.304   3.291   5.309
44160SOL     OW34312   1.497   3.341   8.344
44160SOL    HW134313   1.534   3.376   8.263
44160SOL    HW234314   1.403   3.331   8.325
44161SOL     OW34315  13.311   4.017   3.284
44161SOL    HW134316  13.362   3.979   3.212
44161SOL    HW234317  13.360   3.993   3.363
44162SOL     OW34318   8.305  12.437   9.175
44162SOL    HW134319   8.284  12.514   9.122
44162SOL    HW234320   8.363  12.470   9.243
44163SOL     OW34321  13.520   7.972   5.718
44163SOL    HW134322  13.498   7.977   5.811
44163SOL    HW234323  13.616   7.964   5.717
44164SOL     OW34324  13.087   9.168  10.780
44164SOL    HW134325  13.155   9.154  10.846
44164SOL    HW234326  13.008   9.188  10.830
44165SOL     OW34327   3.873  14.391   3.204
44165SOL    HW134328   3.938  14.461   3.202
44165SOL    HW234329   3.915  14.320   3.252
44166SOL     OW34330  14.687  12.451   1.284
44166SOL    HW134331  14.757  12.413   1.231
44166SOL    HW234332  14.721  12.537   1.309
44167SOL     OW34333  13.540   3.887   1.735
44167SOL    HW134334  13.570   3.800   1.709
44167SOL    HW234335  13.460   3.900   1.686
44168SOL     OW34336  14.030  12.219   9.595
44168SOL    HW134337  14.084  12.292   9.563
44168SOL    HW234338  14.044  12.219   9.689
44169SOL     OW34339   8.882  10.876   3.540
44169SOL    HW134340   8.910  10.819   3.611
44169SOL    HW234341   8.933  10.847   3.464
44170SOL     OW34342  12.859   6.452   0.465
44170SOL    HW134343  12.851   6.357   0.470
44170SOL    HW234344  12.844   6.472   0.373
44171SOL     OW34345  12.317   1.472   4.623
44171SOL    HW134346  12.358   1.512   4.699
44171SOL    HW234347  12.378   1.490   4.551
44172SOL     OW34348  11.351   6.044  10.922
44172SOL    HW134349  11.418   5.978  10.904
44172SOL    HW234350  11.396   6.109  10.977
44173SOL     OW34351   4.665   2.409   0.721
44173SOL    HW134352   4.731   2.468   0.758
44173SOL    HW234353   4.611   2.383   0.796
44174SOL     OW34354   4.980   4.790   0.125
44174SOL    HW134355   5.048   4.765   0.062
44174SOL    HW234356   4.974   4.716   0.185
44175SOL     OW34357   6.051  11.601   0.674
44175SOL    HW134358   5.986  11.535   0.649
44175SOL    HW234359   6.045  11.668   0.606
44176SOL     OW34360  13.496  12.339   3.790
44176SOL    HW134361  13.506  12.433   3.803
44176SOL    HW234362  13.457  12.307   3.871
44177SOL     OW34363   3.889   1.513   8.189
44177SOL    HW134364   3.794   1.520   8.178
44177SOL    HW234365   3.922   1.504   8.099
44178SOL     OW34366   2.682   0.949   6.418
44178SOL    HW134367   2.638   1.035   6.422
44178SOL    HW234368   2.710   0.932   6.507
44179SOL     OW34369   9.102  14.784   3.005
44179SOL    HW134370   9.125  14.870   2.972
44179SOL    HW234371   9.162  14.724   2.960
44180SOL     OW34372   5.302   2.961   7.583
44180SOL    HW134373   5.289   2.954   7.489
44180SOL    HW234374   5.374   3.024   7.592
44181SOL     OW34375   2.126  10.745  12.131
44181SOL    HW134376   2.070  10.776  12.202
44181SOL    HW234377   2.213  10.778  12.153
44182SOL     OW34378  14.246   7.848  12.647
44182SOL    HW134379  14.303   7.795  12.590
44182SOL    HW234380  14.294   7.853  12.730
44183SOL     OW34381  14.617  11.215   8.884
44183SOL    HW134382  14.671  11.261   8.820
44183SOL    HW234383  14.540  11.271   8.894
44184SOL     OW34384   1.374   9.394  13.265
44184SOL    HW134385   1.409   9.408  13.353
44184SOL    HW234386   1.398   9.473  13.217
44185SOL     OW34387   4.413  12.558   4.531
44185SOL    HW134388   4.383  12.634   4.482
44185SOL    HW234389   4.348  12.546   4.600
44186SOL     OW34390  12.318   1.208   1.708
44186SOL    HW134391  12.398   1.155   1.704
44186SOL    HW234392  12.257   1.163   1.649
44187SOL     OW34393  11.907  14.325  14.833
44187SOL    HW134394  12.001  14.311  14.831
44187SOL    HW234395  11.869  14.240  14.812
44188SOL     OW34396  10.742   5.544   2.870
44188SOL    HW134397  10.824   5.584   2.839
44188SOL    HW234398  10.770   5.462   2.910
44189SOL     OW34399  10.590   3.211  11.917
44189SOL    HW134400  10.590   3.299  11.953
44189SOL    HW234401  10.622   3.155  11.988
44190SOL     OW34402   3.879  11.653   1.603
44190SOL    HW134403   3.876  11.732   1.550
44190SOL    HW234404   3.955  11.605   1.572
44191SOL     OW34405   2.880  10.066   3.437
44191SOL    HW134406   2.892   9.976   3.466
44191SOL    HW234407   2.933  10.118   3.497
44192SOL     OW34408   9.423   5.094   9.423
44192SOL    HW134409   9.336   5.058   9.440
44192SOL    HW234410   9.431   5.167   9.484
44193SOL     OW34411   8.357   9.842   3.393
44193SOL    HW134412   8.451   9.829   3.383
44193SOL    HW234413   8.333   9.788   3.468
44194SOL     OW34414  11.525  11.991   6.662
44194SOL    HW134415  11.465  12.061   6.635
44194SOL    HW234416  11.486  11.956   6.742
44195SOL     OW34417  14.173   9.303   3.017
44195SOL    HW134418  14.137   9.221   3.050
44195SOL    HW234419  14.267   9.287   3.010
44196SOL     OW34420  14.264   5.472  11.884
44196SOL    HW134421  14.320   5.450  11.958
44196SOL    HW234422  14.210   5.394  11.870
44197SOL     OW34423  13.040  14.560   0.560
44197SOL    HW134424  13.104  14.612   0.608
44197SOL    HW234425  12.957  14.607   0.573
44198SOL     OW34426   4.350   1.834   0.206
44198SOL    HW134427   4.334   1.926   0.226
44198SOL    HW234428   4.441   1.830   0.177
44199SOL     OW34429  13.930  14.143   4.106
44199SOL    HW134430  13.957  14.171   4.018
44199SOL    HW234431  13.934  14.222   4.159
44200SOL     OW34432   7.208  12.744   6.337
44200SOL    HW134433   7.289  12.704   6.367
44200SOL    HW234434   7.180  12.799   6.411
44201SOL     OW34435   0.089  10.367  12.050
44201SOL    HW134436   0.179  10.392  12.030
44201SOL    HW234437   0.080  10.383  12.144
44202SOL     OW34438  13.703   9.453   8.934
44202SOL    HW134439  13.782   9.507   8.944
44202SOL    HW234440  13.634   9.502   8.978
44203SOL     OW34441   9.753   6.677   2.701
44203SOL    HW134442   9.830   6.622   2.716
44203SOL    HW234443   9.789   6.763   2.678
44204SOL     OW34444   6.458   4.186   4.950
44204SOL    HW134445   6.438   4.211   5.040
44204SOL    HW234446   6.487   4.095   4.956
44205SOL     OW34447   5.150   0.012   5.934
44205SOL    HW134448   5.186  14.797   5.922
44205SOL    HW234449   5.124   0.015   6.026
44206SOL     OW34450   0.314   7.272   9.989
44206SOL    HW134451   0.282   7.184  10.010
44206SOL    HW234452   0.408   7.268  10.004
44207SOL     OW34453  13.580   2.067   1.310
44207SOL    HW134454  13.553   2.041   1.397
44207SOL    HW234455  13.655   2.012   1.290
44208SOL     OW34456   6.884   4.355  11.115
44208SOL    HW134457   6.842   4.342  11.200
44208SOL    HW234458   6.814   4.338  11.051
44209SOL     OW34459  11.906  10.046   1.675
44209SOL    HW134460  11.963  10.069   1.748
44209SOL    HW234461  11.879   9.956   1.692
44210SOL     OW34462   4.920  12.777   2.874
44210SOL    HW134463   4.960  12.766   2.960
44210SOL    HW234464   4.990  12.809   2.818
44211SOL     OW34465   6.868   1.403  12.204
44211SOL    HW134466   6.900   1.316  12.225
44211SOL    HW234467   6.889   1.457  12.280
44212SOL     OW34468   1.237   9.917   1.192
44212SOL    HW134469   1.172   9.977   1.229
44212SOL    HW234470   1.215   9.832   1.229
44213SOL     OW34471   1.380  13.506  12.327
44213SOL    HW134472   1.430  13.498  12.408
44213SOL    HW234473   1.418  13.581  12.282
44214SOL     OW34474   5.981   7.159  14.859
44214SOL    HW134475   5.915   7.209   0.034
44214SOL    HW234476   6.064   7.179   0.030
44215SOL     OW34477   4.054   9.766   3.820
44215SOL    HW134478   4.038   9.774   3.726
44215SOL    HW234479   3.968   9.751   3.858
44216SOL     OW34480   7.540  11.864  12.616
44216SOL    HW134481   7.523  11.780  12.575
44216SOL    HW234482   7.469  11.874  12.680
44217SOL     OW34483   7.498   7.820   3.935
44217SOL    HW134484   7.421   7.763   3.941
44217SOL    HW234485   7.571   7.761   3.918
44218SOL     OW34486   7.230   7.236  14.130
44218SOL    HW134487   7.224   7.140  14.126
44218SOL    HW234488   7.174   7.260  14.203
44219SOL     OW34489   8.508   0.962   4.091
44219SOL    HW134490   8.580   1.010   4.050
44219SOL    HW234491   8.510   0.876   4.050
44220SOL     OW34492   9.040   1.959  11.257
44220SOL    HW134493   9.119   1.904  11.253
44220SOL    HW234494   8.968   1.899  11.239
44221SOL     OW34495  11.838   7.198   1.718
44221SOL    HW134496  11.755   7.159   1.691
44221SOL    HW234497  11.845   7.277   1.664
44222SOL     OW34498  10.074   1.051   1.446
44222SOL    HW134499  10.016   0.989   1.402
44222SOL    HW234500  10.107   1.004   1.522
44223SOL     OW34501   6.084  14.575   5.400
44223SOL    HW134502   6.104  14.495   5.449
44223SOL    HW234503   6.170  14.608   5.371
44224SOL     OW34504  14.083   3.114   9.715
44224SOL    HW134505  14.078   3.119   9.811
44224SOL    HW234506  14.154   3.174   9.692
44225SOL     OW34507  10.903   8.335   4.069
44225SOL    HW134508  10.859   8.412   4.034
44225SOL    HW234509  10.832   8.274   4.089
44226SOL     OW34510   3.865   9.615  12.868
44226SOL    HW134511   3.820   9.592  12.949
44226SOL    HW234512   3.797   9.615  12.801
44227SOL     OW34513  14.788   7.901  14.677
44227SOL    HW134514  14.717   7.840  14.698
44227SOL    HW234515  14.835   7.858  14.605
44228SOL     OW34516  12.892  13.986   4.289
44228SOL    HW134517  12.832  13.940   4.349
44228SOL    HW234518  12.857  14.075   4.285
44229SOL     OW34519   6.820   0.858  13.263
44229SOL    HW134520   6.826   0.763  13.269
44229SOL    HW234521   6.818   0.876  13.169
44230SOL     OW34522   1.096   3.066   0.816
44230SOL    HW134523   1.144   3.036   0.893
44230SOL    HW234524   1.062   2.985   0.777
44231SOL     OW34525   2.298   1.302   6.848
44231SOL    HW134526   2.207   1.275   6.836
44231SOL    HW234527   2.349   1.233   6.807
44232SOL     OW34528   8.210   6.016   8.402
44232SOL    HW134529   8.127   5.968   8.411
44232SOL    HW234530   8.203   6.058   8.316
44233SOL     OW34531  10.762   7.290  11.256
44233SOL    HW134532  10.854   7.268  11.274
44233SOL    HW234533  10.725   7.312  11.342
44234SOL     OW34534   3.490  13.625   0.318
44234SOL    HW134535   3.525  13.665   0.239
44234SOL    HW234536   3.497  13.531   0.302
44235SOL     OW34537   8.011  10.720   3.312
44235SOL    HW134538   8.019  10.640   3.364
44235SOL    HW234539   8.101  10.745   3.292
44236SOL     OW34540   0.312   2.494   8.491
44236SOL    HW134541   0.347   2.584   8.497
44236SOL    HW234542   0.323   2.459   8.579
44237SOL     OW34543  13.250   4.480   1.842
44237SOL    HW134544  13.261   4.446   1.753
44237SOL    HW234545  13.320   4.544   1.852
44238SOL     OW34546   6.090   8.659  14.000
44238SOL    HW134547   6.107   8.612  14.082
44238SOL    HW234548   5.998   8.684  14.006
44239SOL     OW34549   3.165   1.723   3.775
44239SOL    HW134550   3.211   1.806   3.786
44239SOL    HW234551   3.184   1.675   3.856
44240SOL     OW34552   0.175  10.406   5.540
44240SOL    HW134553   0.183  10.497   5.511
44240SOL    HW234554   0.247  10.361   5.496
44241SOL     OW34555   1.371   3.069  11.844
44241SOL    HW134556   1.463   3.091  11.854
44241SOL    HW234557   1.359   3.061  11.749
44242SOL     OW34558   2.475   7.729   1.564
44242SOL    HW134559   2.426   7.796   1.613
44242SOL    HW234560   2.512   7.672   1.631
44243SOL     OW34561  11.611   0.977   3.400
44243SOL    HW134562  11.556   0.944   3.329
44243SOL    HW234563  11.555   1.038   3.448
44244SOL     OW34564  13.129  12.462   5.439
44244SOL    HW134565  13.048  12.413   5.428
44244SOL    HW234566  13.173  12.456   5.353
44245SOL     OW34567  14.651   6.656   3.403
44245SOL    HW134568  14.683   6.608   3.327
44245SOL    HW234569  14.557   6.639   3.405
44246SOL     OW34570   9.421   8.340   7.878
44246SOL    HW134571   9.474   8.300   7.946
44246SOL    HW234572   9.346   8.377   7.924
44247SOL     OW34573  14.582   4.040   3.566
44247SOL    HW134574  14.562   3.947   3.567
44247SOL    HW234575  14.519   4.079   3.627
44248SOL     OW34576   8.021   0.254   1.744
44248SOL    HW134577   8.075   0.323   1.783
44248SOL    HW234578   7.962   0.228   1.815
44249SOL     OW34579  14.763  14.666  13.805
44249SOL    HW134580  14.782  14.644  13.896
44249SOL    HW234581  14.801  14.752  13.792
44250SOL     OW34582   8.877  10.872   4.034
44250SOL    HW134583   8.949  10.877   4.098
44250SOL    HW234584   8.809  10.821   4.077
44251SOL     OW34585   4.943   9.885   2.142
44251SOL    HW134586   4.985   9.962   2.104
44251SOL    HW234587   4.850   9.907   2.142
44252SOL     OW34588   0.341   2.706  11.106
44252SOL    HW134589   0.265   2.761  11.125
44252SOL    HW234590   0.407   2.766  11.072
44253SOL     OW34591   9.852   3.554   7.743
44253SOL    HW134592   9.779   3.508   7.784
44253SOL    HW234593   9.810   3.622   7.690
44254SOL     OW34594  13.770   6.281  12.431
44254SOL    HW134595  13.859   6.247  12.428
44254SOL    HW234596  13.739   6.275  12.340
44255SOL     OW34597  13.142   9.060  14.668
44255SOL    HW134598  13.089   9.048  14.589
44255SOL    HW234599  13.106   8.997  14.731
44256SOL     OW34600   8.582   1.909  12.832
44256SOL    HW134601   8.606   1.957  12.911
44256SOL    HW234602   8.487   1.910  12.831
44257SOL     OW34603   9.606   3.413  11.549
44257SOL    HW134604   9.538   3.475  11.523
44257SOL    HW234605   9.676   3.469  11.583
44258SOL     OW34606   0.401  14.676   4.067
44258SOL    HW134607   0.394  14.726   3.985
44258SOL    HW234608   0.475  14.617   4.052
44259SOL     OW34609   6.258   5.897  10.689
44259SOL    HW134610   6.305   5.813  10.687
44259SOL    HW234611   6.303   5.952  10.625
44260SOL     OW34612   6.605  12.640   0.495
44260SOL    HW134613   6.542  12.603   0.433
44260SOL    HW234614   6.643  12.715   0.448
44261SOL     OW34615   0.031   4.822  10.304
44261SOL    HW134616  14.859   4.737  10.308
44261SOL    HW234617   0.108   4.806  10.249
44262SOL     OW34618   7.624   6.741  10.545
44262SOL    HW134619   7.662   6.708  10.464
44262SOL    HW234620   7.675   6.818  10.567
44263SOL     OW34621   5.906   2.961   6.440
44263SOL    HW134622   5.831   2.940   6.494
44263SOL    HW234623   5.883   2.930   6.352
44264SOL     OW34624   5.967   5.776  12.889
44264SOL    HW134625   5.955   5.775  12.794
44264SOL    HW234626   5.971   5.869  12.912
44265SOL     OW34627   1.061  14.335  14.542
44265SOL    HW134628   1.001  14.263  14.518
44265SOL    HW234629   1.098  14.363  14.459
44266SOL     OW34630  11.540  14.618  11.091
44266SOL    HW134631  11.572  14.538  11.050
44266SOL    HW234632  11.607  14.641  11.156
44267SOL     OW34633  13.475   3.409   1.356
44267SOL    HW134634  13.494   3.316   1.341
44267SOL    HW234635  13.559   3.447   1.378
44268SOL     OW34636   7.592   7.979  10.890
44268SOL    HW134637   7.681   7.968  10.857
44268SOL    HW234638   7.543   7.907  10.850
44269SOL     OW34639   5.035   5.508   1.490
44269SOL    HW134640   5.130   5.502   1.501
44269SOL    HW234641   5.012   5.428   1.442
44270SOL     OW34642   1.867   5.799   7.372
44270SOL    HW134643   1.825   5.724   7.413
44270SOL    HW234644   1.856   5.870   7.436
44271SOL     OW34645   9.240  10.932   8.466
44271SOL    HW134646   9.205  10.940   8.378
44271SOL    HW234647   9.204  11.006   8.514
44272SOL     OW34648   5.355   0.940   4.626
44272SOL    HW134649   5.354   1.023   4.579
44272SOL    HW234650   5.445   0.907   4.616
44273SOL     OW34651   1.494  10.728  10.368
44273SOL    HW134652   1.443  10.809  10.366
44273SOL    HW234653   1.571  10.749  10.421
44274SOL     OW34654  14.051   0.894   1.569
44274SOL    HW134655  13.995   0.824   1.535
44274SOL    HW234656  14.113   0.849   1.626
44275SOL     OW34657   3.130   9.108   4.798
44275SOL    HW134658   3.122   9.013   4.800
44275SOL    HW234659   3.225   9.124   4.801
44276SOL     OW34660   4.327   0.811   8.592
44276SOL    HW134661   4.292   0.884   8.643
44276SOL    HW234662   4.253   0.750   8.585
44277SOL     OW34663   0.152   4.447  12.708
44277SOL    HW134664   0.141   4.397  12.628
44277SOL    HW234665   0.166   4.381  12.776
44278SOL     OW34666   9.911   9.226   1.833
44278SOL    HW134667   9.985   9.260   1.782
44278SOL    HW234668   9.853   9.189   1.767
44279SOL     OW34669   4.804   0.540   5.113
44279SOL    HW134670   4.742   0.572   5.048
44279SOL    HW234671   4.853   0.471   5.068
44280SOL     OW34672   8.463   3.462  14.810
44280SOL    HW134673   8.397   3.491   0.000
44280SOL    HW234674   8.542   3.447  14.862
44281SOL     OW34675   9.672   7.774   8.775
44281SOL    HW134676   9.697   7.818   8.856
44281SOL    HW234677   9.716   7.690   8.778
44282SOL     OW34678   7.581   9.187  12.508
44282SOL    HW134679   7.627   9.191  12.592
44282SOL    HW234680   7.570   9.093  12.491
44283SOL     OW34681   6.358   2.756  13.572
44283SOL    HW134682   6.426   2.792  13.515
44283SOL    HW234683   6.382   2.787  13.659
44284SOL     OW34684   5.594   0.630   3.854
44284SOL    HW134685   5.650   0.553   3.844
44284SOL    HW234686   5.523   0.601   3.912
44285SOL     OW34687  11.685   1.910   1.883
44285SOL    HW134688  11.698   1.815   1.878
44285SOL    HW234689  11.650   1.924   1.971
44286SOL     OW34690  10.275  10.072  10.467
44286SOL    HW134691  10.370  10.062  10.462
44286SOL    HW234692  10.252  10.128  10.394
44287SOL     OW34693   6.737   9.740   7.443
44287SOL    HW134694   6.716   9.743   7.349
44287SOL    HW234695   6.772   9.827   7.462
44288SOL     OW34696   8.159   8.878   4.749
44288SOL    HW134697   8.069   8.868   4.716
44288SOL    HW234698   8.210   8.904   4.673
44289SOL     OW34699   3.885  13.746   0.585
44289SOL    HW134700   3.931  13.811   0.531
44289SOL    HW234701   3.932  13.664   0.569
44290SOL     OW34702   2.363  10.288   6.327
44290SOL    HW134703   2.316  10.216   6.371
44290SOL    HW234704   2.404  10.246   6.251
44291SOL     OW34705  11.223   6.184  12.326
44291SOL    HW134706  11.168   6.180  12.247
44291SOL    HW234707  11.160   6.191  12.398
44292SOL     OW34708   5.986   7.696  10.740
44292SOL    HW134709   5.991   7.784  10.778
44292SOL    HW234710   6.076   7.664  10.743
44293SOL     OW34711   6.110   2.294  14.200
44293SOL    HW134712   6.058   2.216  14.218
44293SOL    HW234713   6.063   2.364  14.246
44294SOL     OW34714   5.119   9.929  13.396
44294SOL    HW134715   5.129   9.925  13.491
44294SOL    HW234716   5.097  10.020  13.378
44295SOL     OW34717  14.449   4.060  11.008
44295SOL    HW134718  14.452   3.975  10.965
44295SOL    HW234719  14.366   4.099  10.979
44296SOL     OW34720  14.793  14.415  13.423
44296SOL    HW134721  14.841  14.335  13.448
44296SOL    HW234722  14.701  14.391  13.431
44297SOL     OW34723   7.690   5.939   0.850
44297SOL    HW134724   7.760   5.881   0.879
44297SOL    HW234725   7.619   5.925   0.913
44298SOL     OW34726  12.625   2.440   5.762
44298SOL    HW134727  12.575   2.364   5.791
44298SOL    HW234728  12.715   2.421   5.786
44299SOL     OW34729  10.982   8.288   6.179
44299SOL    HW134730  11.035   8.345   6.235
44299SOL    HW234731  11.039   8.214   6.159
44300SOL     OW34732  14.210   4.615   7.997
44300SOL    HW134733  14.170   4.682   7.941
44300SOL    HW234734  14.284   4.659   8.038
44301SOL     OW34735   8.030   7.098   3.636
44301SOL    HW134736   8.004   7.031   3.700
44301SOL    HW234737   8.125   7.088   3.628
44302SOL     OW34738   3.527   4.670   1.752
44302SOL    HW134739   3.556   4.755   1.786
44302SOL    HW234740   3.608   4.625   1.728
44303SOL     OW34741   9.558   5.303   0.108
44303SOL    HW134742   9.595   5.356   0.037
44303SOL    HW234743   9.464   5.320   0.104
44304SOL     OW34744   8.505   6.906   5.345
44304SOL    HW134745   8.558   6.838   5.302
44304SOL    HW234746   8.565   6.980   5.356
44305SOL     OW34747   7.961   7.269   1.110
44305SOL    HW134748   8.028   7.259   1.177
44305SOL    HW234749   7.919   7.183   1.105
44306SOL     OW34750   1.928  13.653   5.912
44306SOL    HW134751   2.012  13.675   5.951
44306SOL    HW234752   1.863  13.680   5.977
44307SOL     OW34753   7.226   7.086  10.626
44307SOL    HW134754   7.293   7.155  10.620
44307SOL    HW234755   7.145   7.134  10.642
44308SOL     OW34756  10.033   5.295   9.459
44308SOL    HW134757  10.090   5.338   9.395
44308SOL    HW234758  10.000   5.367   9.513
44309SOL     OW34759  14.118   5.589   7.861
44309SOL    HW134760  14.110   5.682   7.843
44309SOL    HW234761  14.051   5.548   7.807
44310SOL     OW34762  10.027   9.712   7.146
44310SOL    HW134763  10.032   9.619   7.126
44310SOL    HW234764  10.013   9.754   7.061
44311SOL     OW34765   0.410   8.509  12.567
44311SOL    HW134766   0.341   8.467  12.515
44311SOL    HW234767   0.490   8.494  12.517
44312SOL     OW34768  10.294   2.283   0.736
44312SOL    HW134769  10.200   2.284   0.716
44312SOL    HW234770  10.333   2.340   0.669
44313SOL     OW34771   7.141  11.310   8.475
44313SOL    HW134772   7.232  11.282   8.467
44313SOL    HW234773   7.144  11.387   8.532
44314SOL     OW34774   4.293  13.507  10.817
44314SOL    HW134775   4.257  13.595  10.829
44314SOL    HW234776   4.386  13.516  10.838
44315SOL     OW34777   6.430   3.698  13.879
44315SOL    HW134778   6.446   3.653  13.796
44315SOL    HW234779   6.346   3.742  13.867
44316SOL     OW34780  14.532  12.478  14.416
44316SOL    HW134781  14.613  12.488  14.467
44316SOL    HW234782  14.490  12.401  14.453
44317SOL     OW34783  13.701  14.598   9.914
44317SOL    HW134784  13.662  14.516   9.883
44317SOL    HW234785  13.634  14.664   9.898
44318SOL     OW34786   6.525  11.096   9.722
44318SOL    HW134787   6.471  11.030   9.766
44318SOL    HW234788   6.567  11.143   9.794
44319SOL     OW34789   0.899   1.553   5.079
44319SOL    HW134790   0.911   1.612   5.153
44319SOL    HW234791   0.810   1.519   5.090
44320SOL     OW34792  14.344   6.991  11.469
44320SOL    HW134793  14.315   7.082  11.461
44320SOL    HW234794  14.270   6.939  11.439
44321SOL     OW34795   6.544   3.918   0.909
44321SOL    HW134796   6.638   3.915   0.923
44321SOL    HW234797   6.531   3.883   0.821
44322SOL     OW34798   1.627   8.802  10.878
44322SOL    HW134799   1.659   8.892  10.867
44322SOL    HW234800   1.582   8.782  10.796
44323SOL     OW34801   2.613   2.081   9.221
44323SOL    HW134802   2.658   2.002   9.190
44323SOL    HW234803   2.616   2.140   9.146
44324SOL     OW34804   4.093   1.858   0.455
44324SOL    HW134805   4.024   1.793   0.468
44324SOL    HW234806   4.156   1.839   0.525
44325SOL     OW34807   9.615  11.977  10.102
44325SOL    HW134808   9.645  12.010  10.187
44325SOL    HW234809   9.536  11.928  10.122
44326SOL     OW34810  12.045   9.394   1.252
44326SOL    HW134811  12.076   9.485   1.252
44326SOL    HW234812  11.979   9.391   1.321
44327SOL     OW34813  12.367  13.033  13.614
44327SOL    HW134814  12.306  13.106  13.601
44327SOL    HW234815  12.448  13.061  13.571
44328SOL     OW34816   3.411  12.813  13.345
44328SOL    HW134817   3.460  12.895  13.340
44328SOL    HW234818   3.447  12.760  13.273
44329SOL     OW34819  14.721   5.592  10.050
44329SOL    HW134820  14.664   5.515  10.040
44329SOL    HW234821  14.806   5.562  10.019
44330SOL     OW34822   8.505   5.588   6.735
44330SOL    HW134823   8.438   5.607   6.800
44330SOL    HW234824   8.555   5.515   6.772
44331SOL     OW34825  14.668   3.218   9.363
44331SOL    HW134826  14.603   3.245   9.298
44331SOL    HW234827  14.618   3.167   9.427
44332SOL     OW34828   8.839   4.480   8.892
44332SOL    HW134829   8.782   4.518   8.958
44332SOL    HW234830   8.780   4.455   8.821
44333SOL     OW34831   9.919   9.658   7.385
44333SOL    HW134832   9.875   9.739   7.411
44333SOL    HW234833   9.967   9.681   7.305
44334SOL     OW34834   8.486  12.495   6.502
44334SOL    HW134835   8.437  12.563   6.457
44334SOL    HW234836   8.530  12.540   6.574
44335SOL     OW34837   1.163   2.392   5.675
44335SOL    HW134838   1.101   2.341   5.623
44335SOL    HW234839   1.207   2.449   5.611
44336SOL     OW34840   3.118   4.433  14.684
44336SOL    HW134841   3.082   4.470  14.604
44336SOL    HW234842   3.211   4.421  14.665
44337SOL     OW34843   2.677  10.217   7.967
44337SOL    HW134844   2.733  10.287   8.002
44337SOL    HW234845   2.727  10.180   7.894
44338SOL     OW34846   0.745   9.309   8.350
44338SOL    HW134847   0.753   9.214   8.354
44338SOL    HW234848   0.661   9.325   8.307
44339SOL     OW34849   4.196   9.495  12.642
44339SOL    HW134850   4.232   9.506  12.730
44339SOL    HW234851   4.253   9.547  12.585
44340SOL     OW34852   4.151   2.745   5.834
44340SOL    HW134853   4.141   2.732   5.739
44340SOL    HW234854   4.095   2.678   5.873
44341SOL     OW34855  11.492  14.311   9.224
44341SOL    HW134856  11.586  14.298   9.213
44341SOL    HW234857  11.482  14.405   9.239
44342SOL     OW34858   7.014   1.210  11.438
44342SOL    HW134859   6.926   1.201  11.476
44342SOL    HW234860   7.062   1.263  11.501
44343SOL     OW34861   7.991  11.386   5.880
44343SOL    HW134862   7.978  11.473   5.841
44343SOL    HW234863   7.955  11.394   5.968
44344SOL     OW34864  13.024   3.881   1.437
44344SOL    HW134865  13.120   3.881   1.431
44344SOL    HW234866  13.004   3.943   1.506
44345SOL     OW34867   8.814  11.961   0.237
44345SOL    HW134868   8.839  12.052   0.252
44345SOL    HW234869   8.721  11.957   0.260
44346SOL     OW34870   9.502   7.371   5.358
44346SOL    HW134871   9.421   7.407   5.323
44346SOL    HW234872   9.518   7.422   5.437
44347SOL     OW34873   5.449  14.829   9.098
44347SOL    HW134874   5.404   0.004   9.168
44347SOL    HW234875   5.542  14.837   9.118
44348SOL     OW34876   5.261   4.507   6.789
44348SOL    HW134877   5.304   4.543   6.711
44348SOL    HW234878   5.323   4.524   6.860
44349SOL     OW34879   0.783  12.526   4.020
44349SOL    HW134880   0.711  12.554   3.964
44349SOL    HW234881   0.742  12.507   4.104
44350SOL     OW34882  13.666   0.904   4.386
44350SOL    HW134883  13.620   0.920   4.304
44350SOL    HW234884  13.759   0.916   4.364
44351SOL     OW34885   4.427   1.478   6.147
44351SOL    HW134886   4.496   1.529   6.188
44351SOL    HW234887   4.452   1.387   6.163
44352SOL     OW34888  10.642   4.890   9.732
44352SOL    HW134889  10.636   4.948   9.808
44352SOL    HW234890  10.720   4.837   9.748
44353SOL     OW34891  13.951  12.288   6.690
44353SOL    HW134892  13.944  12.194   6.707
44353SOL    HW234893  13.866  12.313   6.654
44354SOL     OW34894   0.960   5.543  12.975
44354SOL    HW134895   0.889   5.579  13.028
44354SOL    HW234896   0.987   5.615  12.918
44355SOL     OW34897   1.453   8.866  10.139
44355SOL    HW134898   1.440   8.810  10.215
44355SOL    HW234899   1.365   8.898  10.118
44356SOL     OW34900   9.596  11.940  14.796
44356SOL    HW134901   9.519  11.983  14.833
44356SOL    HW234902   9.619  11.873  14.860
44357SOL     OW34903   1.181   2.355   8.364
44357SOL    HW134904   1.248   2.333   8.429
44357SOL    HW234905   1.136   2.430   8.400
44358SOL     OW34906   7.830   4.300   1.697
44358SOL    HW134907   7.807   4.352   1.621
44358SOL    HW234908   7.887   4.231   1.663
44359SOL     OW34909   6.340   0.326  10.309
44359SOL    HW134910   6.269   0.326  10.244
44359SOL    HW234911   6.355   0.233  10.328
44360SOL     OW34912   1.854   4.208   3.901
44360SOL    HW134913   1.931   4.233   3.850
44360SOL    HW234914   1.862   4.257   3.983
44361SOL     OW34915   9.738  10.092   7.948
44361SOL    HW134916   9.676  10.076   8.020
44361SOL    HW234917   9.823  10.099   7.991
44362SOL     OW34918  12.221   1.924  12.019
44362SOL    HW134919  12.189   1.964  11.937
44362SOL    HW234920  12.231   1.998  12.079
44363SOL     OW34921  11.434  10.846   9.062
44363SOL    HW134922  11.403  10.926   9.105
44363SOL    HW234923  11.497  10.808   9.124
44364SOL     OW34924   4.489   4.679   3.180
44364SOL    HW134925   4.513   4.749   3.120
44364SOL    HW234926   4.470   4.724   3.263
44365SOL     OW34927   1.400  14.505   2.545
44365SOL    HW134928   1.313  14.497   2.506
44365SOL    HW234929   1.384  14.543   2.632
44366SOL     OW34930   1.366   3.320   2.127
44366SOL    HW134931   1.376   3.410   2.096
44366SOL    HW234932   1.336   3.272   2.049
44367SOL     OW34933   5.117   7.490  10.115
44367SOL    HW134934   5.117   7.492  10.019
44367SOL    HW234935   5.025   7.503  10.139
44368SOL     OW34936  11.763  10.194   9.363
44368SOL    HW134937  11.764  10.256   9.291
44368SOL    HW234938  11.842  10.214   9.414
44369SOL     OW34939   7.864   5.798   6.744
44369SOL    HW134940   7.770   5.806   6.732
44369SOL    HW234941   7.877   5.804   6.839
44370SOL     OW34942  11.184   6.950  13.417
44370SOL    HW134943  11.233   7.024  13.384
44370SOL    HW234944  11.092   6.975  13.408
44371SOL     OW34945  14.023   0.150   6.985
44371SOL    HW134946  14.094   0.115   7.040
44371SOL    HW234947  13.970   0.201   7.046
44372SOL     OW34948   0.106   8.027   3.205
44372SOL    HW134949   0.194   8.008   3.237
44372SOL    HW234950   0.053   8.038   3.283
44373SOL     OW34951   6.835  12.248  13.459
44373SOL    HW134952   6.880  12.164  13.457
44373SOL    HW234953   6.903  12.313  13.443
44374SOL     OW34954   2.185  10.960  10.064
44374SOL    HW134955   2.097  10.997  10.064
44374SOL    HW234956   2.221  10.981   9.978
44375SOL     OW34957  12.091   2.517   7.829
44375SOL    HW134958  12.132   2.592   7.872
44375SOL    HW234959  12.154   2.446   7.841
44376SOL     OW34960  10.929  13.070  12.863
44376SOL    HW134961  10.899  13.004  12.925
44376SOL    HW234962  10.956  13.019  12.786
44377SOL     OW34963   2.623   5.006  10.036
44377SOL    HW134964   2.616   5.026  10.129
44377SOL    HW234965   2.660   4.918  10.032
44378SOL     OW34966   1.029   1.899   7.813
44378SOL    HW134967   1.004   1.807   7.807
44378SOL    HW234968   1.083   1.904   7.893
44379SOL     OW34969  12.641   1.585  12.756
44379SOL    HW134970  12.625   1.535  12.836
44379SOL    HW234971  12.626   1.677  12.781
44380SOL     OW34972   6.953  11.604   3.383
44380SOL    HW134973   6.923  11.572   3.299
44380SOL    HW234974   6.917  11.692   3.390
44381SOL     OW34975  13.497   6.829  11.471
44381SOL    HW134976  13.463   6.761  11.530
44381SOL    HW234977  13.557   6.879  11.526
44382SOL     OW34978   5.786   3.798   3.007
44382SOL    HW134979   5.763   3.872   3.064
44382SOL    HW234980   5.858   3.754   3.053
44383SOL     OW34981   0.496   7.509   7.487
44383SOL    HW134982   0.499   7.498   7.582
44383SOL    HW234983   0.588   7.516   7.460
44384SOL     OW34984  10.369   6.649   9.117
44384SOL    HW134985  10.310   6.576   9.100
44384SOL    HW234986  10.432   6.646   9.046
44385SOL     OW34987   9.791   8.409  12.712
44385SOL    HW134988   9.745   8.491  12.730
44385SOL    HW234989   9.765   8.386  12.623
44386SOL     OW34990  14.792   0.614   1.207
44386SOL    HW134991  14.806   0.528   1.168
44386SOL    HW234992  14.828   0.675   1.143
44387SOL     OW34993  14.641   4.963  10.229
44387SOL    HW134994  14.723   4.917  10.251
44387SOL    HW234995  14.623   5.019  10.304
44388SOL     OW34996   6.784   0.119   2.927
44388SOL    HW134997   6.811   0.210   2.915
44388SOL    HW234998   6.760   0.089   2.840
44389SOL     OW34999  12.951   3.358   9.333
44389SOL    HW135000  12.920   3.387   9.418
44389SOL    HW235001  12.872   3.333   9.285
44390SOL     OW35002   9.758   2.712   3.332
44390SOL    HW135003   9.817   2.661   3.276
44390SOL    HW235004   9.771   2.802   3.304
44391SOL     OW35005   4.952   5.827   6.378
44391SOL    HW135006   4.903   5.745   6.379
44391SOL    HW235007   5.029   5.808   6.325
44392SOL     OW35008   5.238   8.238  10.546
44392SOL    HW135009   5.155   8.277  10.519
44392SOL    HW235010   5.216   8.147  10.566
44393SOL     OW35011  11.088   1.613   6.193
44393SOL    HW135012  11.091   1.681   6.260
44393SOL    HW235013  11.179   1.587   6.180
44394SOL     OW35014  12.134  13.699   3.635
44394SOL    HW135015  12.067  13.689   3.702
44394SOL    HW235016  12.203  13.638   3.661
44395SOL     OW35017   2.357  14.582   8.826
44395SOL    HW135018   2.409  14.574   8.746
44395SOL    HW235019   2.298  14.507   8.824
44396SOL     OW35020   2.555  13.077  14.189
44396SOL    HW135021   2.629  13.084  14.249
44396SOL    HW235022   2.588  13.111  14.106
44397SOL     OW35023  12.667   9.395   3.642
44397SOL    HW135024  12.585   9.444   3.649
44397SOL    HW235025  12.680   9.356   3.728
44398SOL     OW35026   3.212   8.599   4.208
44398SOL    HW135027   3.116   8.600   4.210
44398SOL    HW235028   3.235   8.678   4.159
44399SOL     OW35029   5.251  11.649   4.738
44399SOL    HW135030   5.315  11.586   4.706
44399SOL    HW235031   5.202  11.676   4.660
44400SOL     OW35032   9.189  12.682  13.002
44400SOL    HW135033   9.232  12.747  13.058
44400SOL    HW235034   9.223  12.699  12.914
44401SOL     OW35035   6.881  10.512   0.006
44401SOL    HW135036   6.801  10.565   0.007
44401SOL    HW235037   6.925  10.537  14.798
44402SOL     OW35038   9.161  10.421  14.228
44402SOL    HW135039   9.087  10.478  14.207
44402SOL    HW235040   9.184  10.445  14.318
44403SOL     OW35041  12.120   1.407   0.522
44403SOL    HW135042  12.208   1.370   0.525
44403SOL    HW235043  12.134   1.501   0.537
44404SOL     OW35044  11.899   0.507   8.391
44404SOL    HW135045  11.827   0.518   8.453
44404SOL    HW235046  11.867   0.443   8.328
44405SOL     OW35047  11.790   8.273   4.230
44405SOL    HW135048  11.719   8.321   4.271
44405SOL    HW235049  11.869   8.305   4.273
44406SOL     OW35050   1.244   3.589  10.768
44406SOL    HW135051   1.312   3.524  10.750
44406SOL    HW235052   1.290   3.673  10.765
44407SOL     OW35053   6.546  13.644   8.786
44407SOL    HW135054   6.597  13.565   8.808
44407SOL    HW235055   6.569  13.662   8.694
44408SOL     OW35056   4.374   8.122   7.512
44408SOL    HW135057   4.316   8.048   7.500
44408SOL    HW235058   4.431   8.097   7.585
44409SOL     OW35059  10.391  13.738   1.351
44409SOL    HW135060  10.419  13.818   1.396
44409SOL    HW235061  10.350  13.685   1.419
44410SOL     OW35062  12.179  14.779   5.899
44410SOL    HW135063  12.261  14.830   5.901
44410SOL    HW235064  12.112  14.842   5.924
44411SOL     OW35065   8.171   5.901  10.198
44411SOL    HW135066   8.084   5.931  10.223
44411SOL    HW235067   8.195   5.837  10.265
44412SOL     OW35068   5.022   1.702   8.898
44412SOL    HW135069   5.094   1.639   8.894
44412SOL    HW235070   4.997   1.715   8.807
44413SOL     OW35071   9.484  12.141  10.511
44413SOL    HW135072   9.461  12.179  10.426
44413SOL    HW235073   9.462  12.209  10.574
44414SOL     OW35074   9.026  13.696   2.740
44414SOL    HW135075   9.081  13.640   2.685
44414SOL    HW235076   9.030  13.656   2.827
44415SOL     OW35077   7.824   5.196   4.054
44415SOL    HW135078   7.747   5.220   4.003
44415SOL    HW235079   7.814   5.102   4.070
44416SOL     OW35080  13.166   0.705  12.398
44416SOL    HW135081  13.073   0.729  12.406
44416SOL    HW235082  13.165   0.620  12.354
44417SOL     OW35083   0.177  14.841  12.332
44417SOL    HW135084   0.084  14.839  12.353
44417SOL    HW235085   0.220  14.800  12.407
44418SOL     OW35086  11.245   5.230   7.849
44418SOL    HW135087  11.254   5.291   7.776
44418SOL    HW235088  11.308   5.160   7.830
44419SOL     OW35089   1.692   6.417   1.821
44419SOL    HW135090   1.756   6.479   1.787
44419SOL    HW235091   1.719   6.401   1.911
44420SOL     OW35092  14.371   3.077   7.910
44420SOL    HW135093  14.346   3.162   7.946
44420SOL    HW235094  14.294   3.022   7.923
44421SOL     OW35095   6.590   6.971   1.891
44421SOL    HW135096   6.680   7.001   1.879
44421SOL    HW235097   6.547   7.041   1.940
44422SOL     OW35098   6.107   2.696   2.175
44422SOL    HW135099   6.034   2.706   2.237
44422SOL    HW235100   6.067   2.701   2.089
44423SOL     OW35101   6.801   4.042  12.475
44423SOL    HW135102   6.865   3.974  12.497
44423SOL    HW235103   6.840   4.123  12.508
44424SOL     OW35104   0.755   3.842   7.230
44424SOL    HW135105   0.694   3.856   7.304
44424SOL    HW235106   0.827   3.902   7.247
44425SOL     OW35107   7.217  13.325   1.947
44425SOL    HW135108   7.176  13.261   1.889
44425SOL    HW235109   7.146  13.385   1.970
44426SOL     OW35110   3.919  14.669   8.211
44426SOL    HW135111   4.008  14.645   8.186
44426SOL    HW235112   3.863  14.610   8.161
44427SOL     OW35113   5.411   3.587  11.348
44427SOL    HW135114   5.434   3.602  11.440
44427SOL    HW235115   5.397   3.493  11.341
44428SOL     OW35116   3.618   1.130  10.192
44428SOL    HW135117   3.679   1.095  10.128
44428SOL    HW235118   3.611   1.062  10.259
44429SOL     OW35119   0.132   0.437   6.448
44429SOL    HW135120   0.058   0.435   6.388
44429SOL    HW235121   0.206   0.403   6.397
44430SOL     OW35122   0.398   5.836   6.863
44430SOL    HW135123   0.351   5.752   6.863
44430SOL    HW235124   0.349   5.891   6.801
44431SOL     OW35125   0.480  13.950   8.199
44431SOL    HW135126   0.538  13.894   8.250
44431SOL    HW235127   0.398  13.901   8.194
44432SOL     OW35128  10.966   2.745  13.983
44432SOL    HW135129  10.950   2.660  14.023
44432SOL    HW235130  10.933   2.737  13.894
44433SOL     OW35131   3.566   8.897  11.505
44433SOL    HW135132   3.508   8.930  11.437
44433SOL    HW235133   3.597   8.813  11.471
44434SOL     OW35134   2.781   8.144  12.587
44434SOL    HW135135   2.828   8.174  12.510
44434SOL    HW235136   2.736   8.064  12.559
44435SOL     OW35137   9.631   2.497   1.814
44435SOL    HW135138   9.692   2.569   1.801
44435SOL    HW235139   9.604   2.472   1.726
44436SOL     OW35140  10.522   1.252   9.996
44436SOL    HW135141  10.601   1.223  10.042
44436SOL    HW235142  10.554   1.300   9.920
44437SOL     OW35143   0.078   2.018  14.268
44437SOL    HW135144   0.080   2.071  14.348
44437SOL    HW235145   0.093   2.082  14.197
44438SOL     OW35146  14.587   7.016  11.745
44438SOL    HW135147  14.668   7.038  11.790
44438SOL    HW235148  14.615   6.981  11.661
44439SOL     OW35149   8.905  13.790   3.101
44439SOL    HW135150   8.812  13.799   3.082
44439SOL    HW235151   8.938  13.879   3.105
44440SOL     OW35152  10.212  14.794   9.102
44440SOL    HW135153  10.211  14.765   9.011
44440SOL    HW235154  10.178  14.720   9.152
44441SOL     OW35155   2.786   1.888   5.702
44441SOL    HW135156   2.773   1.795   5.679
44441SOL    HW235157   2.881   1.899   5.705
44442SOL     OW35158  12.864   1.077   7.892
44442SOL    HW135159  12.776   1.074   7.929
44442SOL    HW235160  12.922   1.067   7.967
44443SOL     OW35161   4.019   1.408   0.341
44443SOL    HW135162   3.999   1.358   0.420
44443SOL    HW235163   4.105   1.445   0.356
44444SOL     OW35164   7.149   5.186   5.900
44444SOL    HW135165   7.179   5.256   5.841
44444SOL    HW235166   7.090   5.230   5.961
44445SOL     OW35167  13.182  12.224   3.600
44445SOL    HW135168  13.228  12.303   3.572
44445SOL    HW235169  13.116  12.256   3.662
44446SOL     OW35170   5.451   6.854   7.553
44446SOL    HW135171   5.500   6.912   7.610
44446SOL    HW235172   5.359   6.877   7.568
44447SOL     OW35173   5.011   4.123   7.320
44447SOL    HW135174   5.041   4.210   7.292
44447SOL    HW235175   4.941   4.101   7.258
44448SOL     OW35176  13.393  11.928   7.061
44448SOL    HW135177  13.352  12.002   7.016
44448SOL    HW235178  13.394  11.859   6.996
44449SOL     OW35179  14.652  10.205   1.352
44449SOL    HW135180  14.737  10.244   1.373
44449SOL    HW235181  14.589  10.277   1.360
44450SOL     OW35182  13.611   8.508   9.473
44450SOL    HW135183  13.655   8.553   9.546
44450SOL    HW235184  13.577   8.428   9.512
44451SOL     OW35185  13.560   6.596   7.809
44451SOL    HW135186  13.622   6.523   7.802
44451SOL    HW235187  13.602   6.668   7.763
44452SOL     OW35188   8.725   4.939   1.199
44452SOL    HW135189   8.687   4.925   1.112
44452SOL    HW235190   8.812   4.975   1.181
44453SOL     OW35191  14.121   5.146   3.816
44453SOL    HW135192  14.080   5.179   3.736
44453SOL    HW235193  14.109   5.216   3.880
44454SOL     OW35194  10.500   9.402   8.926
44454SOL    HW135195  10.497   9.487   8.970
44454SOL    HW235196  10.589   9.397   8.891
44455SOL     OW35197   8.738   6.191  11.467
44455SOL    HW135198   8.749   6.154  11.555
44455SOL    HW235199   8.666   6.140  11.429
44456SOL     OW35200   1.692  11.318   4.530
44456SOL    HW135201   1.697  11.288   4.621
44456SOL    HW235202   1.683  11.413   4.537
44457SOL     OW35203  11.396   1.857   0.184
44457SOL    HW135204  11.370   1.813   0.264
44457SOL    HW235205  11.448   1.932   0.214
44458SOL     OW35206  12.958  12.409  14.543
44458SOL    HW135207  12.897  12.360  14.598
44458SOL    HW235208  13.039  12.357  14.545
44459SOL     OW35209   4.898   4.598  13.553
44459SOL    HW135210   4.827   4.597  13.617
44459SOL    HW235211   4.870   4.538  13.484
44460SOL     OW35212  12.641  10.319   8.037
44460SOL    HW135213  12.710  10.382   8.056
44460SOL    HW235214  12.650  10.301   7.943
44461SOL     OW35215   1.178  12.331  10.255
44461SOL    HW135216   1.252  12.293  10.303
44461SOL    HW235217   1.214  12.407  10.210
44462SOL     OW35218   9.289   1.518  12.489
44462SOL    HW135219   9.341   1.534  12.568
44462SOL    HW235220   9.201   1.547  12.513
44463SOL     OW35221   0.770   4.137   6.531
44463SOL    HW135222   0.759   4.232   6.522
44463SOL    HW235223   0.862   4.122   6.507
44464SOL     OW35224   0.620   7.131  10.690
44464SOL    HW135225   0.655   7.084  10.766
44464SOL    HW235226   0.618   7.222  10.717
44465SOL     OW35227   7.757  11.285  10.265
44465SOL    HW135228   7.760  11.332  10.349
44465SOL    HW235229   7.814  11.336  10.208
44466SOL     OW35230   2.382   9.495   8.210
44466SOL    HW135231   2.417   9.582   8.227
44466SOL    HW235232   2.307   9.510   8.153
44467SOL     OW35233   1.076   6.761   7.678
44467SOL    HW135234   1.008   6.755   7.611
44467SOL    HW235235   1.039   6.818   7.746
44468SOL     OW35236  13.879   2.074   8.899
44468SOL    HW135237  13.817   2.103   8.966
44468SOL    HW235238  13.913   2.155   8.860
44469SOL     OW35239   5.189   3.505   7.498
44469SOL    HW135240   5.136   3.425   7.502
44469SOL    HW235241   5.166   3.545   7.415
44470SOL     OW35242  10.536   1.795   4.746
44470SOL    HW135243  10.546   1.850   4.824
44470SOL    HW235244  10.625   1.771   4.722
44471SOL     OW35245   8.186   1.400   1.379
44471SOL    HW135246   8.104   1.419   1.334
44471SOL    HW235247   8.231   1.485   1.383
44472SOL     OW35248   7.167   9.573   4.382
44472SOL    HW135249   7.225   9.515   4.431
44472SOL    HW235250   7.080   9.553   4.416
44473SOL     OW35251   3.241  11.850   0.225
44473SOL    HW135252   3.150  11.874   0.242
44473SOL    HW235253   3.291  11.895   0.294
44474SOL     OW35254   1.310   6.216   1.283
44474SOL    HW135255   1.398   6.178   1.280
44474SOL    HW235256   1.324   6.308   1.306
44475SOL     OW35257   5.835   3.805   9.948
44475SOL    HW135258   5.837   3.859  10.027
44475SOL    HW235259   5.835   3.715   9.981
44476SOL     OW35260   4.427   4.505   1.499
44476SOL    HW135261   4.490   4.434   1.485
44476SOL    HW235262   4.436   4.560   1.421
44477SOL     OW35263   6.795  13.561  12.627
44477SOL    HW135264   6.830  13.473  12.612
44477SOL    HW235265   6.769  13.591  12.539
44478SOL     OW35266  10.392   6.445  11.256
44478SOL    HW135267  10.375   6.377  11.191
44478SOL    HW235268  10.444   6.400  11.323
44479SOL     OW35269  12.263   6.385   9.602
44479SOL    HW135270  12.253   6.364   9.509
44479SOL    HW235271  12.357   6.397   9.614
44480SOL     OW35272   9.544  13.653   4.103
44480SOL    HW135273   9.476  13.676   4.166
44480SOL    HW235274   9.624  13.645   4.156
44481SOL     OW35275   4.708   0.038   5.534
44481SOL    HW135276   4.723   0.132   5.542
44481SOL    HW235277   4.625   0.023   5.581
44482SOL     OW35278   2.041  10.893   4.738
44482SOL    HW135279   1.951  10.917   4.716
44482SOL    HW235280   2.094  10.964   4.702
44483SOL     OW35281   6.582  12.097   6.803
44483SOL    HW135282   6.557  12.114   6.894
44483SOL    HW235283   6.543  12.169   6.754
44484SOL     OW35284  11.412   2.870  13.059
44484SOL    HW135285  11.475   2.940  13.042
44484SOL    HW235286  11.329   2.906  13.028
44485SOL     OW35287   8.182   9.301   6.388
44485SOL    HW135288   8.210   9.351   6.311
44485SOL    HW235289   8.106   9.348   6.421
44486SOL     OW35290   0.113   6.126   3.459
44486SOL    HW135291   0.052   6.175   3.405
44486SOL    HW235292   0.113   6.171   3.543
44487SOL     OW35293  14.790   6.457   5.407
44487SOL    HW135294  14.795   6.365   5.380
44487SOL    HW235295  14.803   6.506   5.326
44488SOL     OW35296  14.020   2.017   0.924
44488SOL    HW135297  14.083   2.068   0.873
44488SOL    HW235298  13.952   1.993   0.862
44489SOL     OW35299   5.635  10.453   9.692
44489SOL    HW135300   5.698  10.519   9.664
44489SOL    HW235301   5.668  10.371   9.655
44490SOL     OW35302   4.569   8.069   2.663
44490SOL    HW135303   4.662   8.045   2.659
44490SOL    HW235304   4.569   8.163   2.679
44491SOL     OW35305   3.250   7.690   8.072
44491SOL    HW135306   3.182   7.669   8.136
44491SOL    HW235307   3.325   7.637   8.100
44492SOL     OW35308  13.918   8.389   2.423
44492SOL    HW135309  13.833   8.426   2.398
44492SOL    HW235310  13.906   8.294   2.413
44493SOL     OW35311  12.910   4.411   6.420
44493SOL    HW135312  12.834   4.436   6.367
44493SOL    HW235313  12.955   4.346   6.367
44494SOL     OW35314  12.639   5.191   2.931
44494SOL    HW135315  12.715   5.160   2.881
44494SOL    HW235316  12.666   5.184   3.022
44495SOL     OW35317  10.360   4.828  11.069
44495SOL    HW135318  10.290   4.875  11.023
44495SOL    HW235319  10.401   4.895  11.125
44496SOL     OW35320  14.183   7.314   6.394
44496SOL    HW135321  14.118   7.312   6.464
44496SOL    HW235322  14.246   7.381   6.422
44497SOL     OW35323   2.203   5.654   5.303
44497SOL    HW135324   2.214   5.650   5.208
44497SOL    HW235325   2.211   5.747   5.324
44498SOL     OW35326  11.969  12.786  14.011
44498SOL    HW135327  12.025  12.773  13.934
44498SOL    HW235328  11.881  12.767  13.980
44499SOL     OW35329   1.771   0.978   4.711
44499SOL    HW135330   1.754   0.995   4.803
44499SOL    HW235331   1.865   0.959   4.707
44500SOL     OW35332   1.605  10.005   6.538
44500SOL    HW135333   1.663   9.943   6.583
44500SOL    HW235334   1.661  10.045   6.471
44501SOL     OW35335   3.791   2.458   1.251
44501SOL    HW135336   3.710   2.500   1.279
44501SOL    HW235337   3.812   2.396   1.320
44502SOL     OW35338   8.558  14.497  13.856
44502SOL    HW135339   8.508  14.478  13.777
44502SOL    HW235340   8.648  14.471  13.834
44503SOL     OW35341  13.932   4.645  11.268
44503SOL    HW135342  13.985   4.666  11.345
44503SOL    HW235343  13.876   4.722  11.257
44504SOL     OW35344  12.463   1.514   4.883
44504SOL    HW135345  12.420   1.591   4.920
44504SOL    HW235346  12.556   1.537   4.880
44505SOL     OW35347  11.492   8.475   3.492
44505SOL    HW135348  11.500   8.544   3.425
44505SOL    HW235349  11.504   8.522   3.575
44506SOL     OW35350   5.867  12.952  10.651
44506SOL    HW135351   5.921  12.936  10.574
44506SOL    HW235352   5.903  12.893  10.718
44507SOL     OW35353  13.475   3.026  14.529
44507SOL    HW135354  13.453   3.102  14.583
44507SOL    HW235355  13.504   3.064  14.446
44508SOL     OW35356  11.828  14.798   1.132
44508SOL    HW135357  11.822  14.793   1.227
44508SOL    HW235358  11.767  14.868   1.108
44509SOL     OW35359   8.453  14.633   1.916
44509SOL    HW135360   8.458  14.686   1.996
44509SOL    HW235361   8.371  14.659   1.875
44510SOL     OW35362   5.240   0.780   3.664
44510SOL    HW135363   5.209   0.786   3.754
44510SOL    HW235364   5.173   0.728   3.618
44511SOL     OW35365   8.589   7.145   9.734
44511SOL    HW135366   8.500   7.149   9.698
44511SOL    HW235367   8.595   7.058   9.774
44512SOL     OW35368  13.244  13.084   1.890
44512SOL    HW135369  13.287  13.150   1.837
44512SOL    HW235370  13.218  13.016   1.827
44513SOL     OW35371  12.835   2.285  11.118
44513SOL    HW135372  12.897   2.263  11.050
44513SOL    HW235373  12.806   2.374  11.097
44514SOL     OW35374   6.238   0.216   1.960
44514SOL    HW135375   6.197   0.180   2.039
44514SOL    HW235376   6.303   0.151   1.934
44515SOL     OW35377  14.436  10.174   2.725
44515SOL    HW135378  14.440  10.096   2.780
44515SOL    HW235379  14.348  10.173   2.689
44516SOL     OW35380   8.306   1.761   7.869
44516SOL    HW135381   8.323   1.847   7.907
44516SOL    HW235382   8.228   1.729   7.914
44517SOL     OW35383   9.958   2.638   7.967
44517SOL    HW135384   9.943   2.701   8.037
44517SOL    HW235385  10.047   2.656   7.937
44518SOL     OW35386   4.029   0.968  11.935
44518SOL    HW135387   3.948   0.932  11.899
44518SOL    HW235388   4.075   0.893  11.972
44519SOL     OW35389   2.217  12.418  14.480
44519SOL    HW135390   2.142  12.373  14.441
44519SOL    HW235391   2.186  12.444  14.567
44520SOL     OW35392   2.908   9.782   3.409
44520SOL    HW135393   2.938   9.801   3.320
44520SOL    HW235394   2.836   9.720   3.397
44521SOL     OW35395   6.280   0.520   5.417
44521SOL    HW135396   6.219   0.487   5.351
44521SOL    HW235397   6.360   0.469   5.403
44522SOL     OW35398   6.860  10.577   6.257
44522SOL    HW135399   6.948  10.614   6.259
44522SOL    HW235400   6.859  10.522   6.178
44523SOL     OW35401   5.339   9.907   4.120
44523SOL    HW135402   5.259   9.885   4.072
44523SOL    HW235403   5.404   9.923   4.052
44524SOL     OW35404   7.293   0.012  11.875
44524SOL    HW135405   7.286  14.859  11.967
44524SOL    HW235406   7.253  14.813  11.827
44525SOL     OW35407   3.197   4.989   3.136
44525SOL    HW135408   3.206   5.068   3.189
44525SOL    HW235409   3.278   4.940   3.151
44526SOL     OW35410   2.893  14.240  13.604
44526SOL    HW135411   2.805  14.251  13.638
44526SOL    HW235412   2.886  14.261  13.511
44527SOL     OW35413  13.334   3.958  14.699
44527SOL    HW135414  13.249   3.986  14.663
44527SOL    HW235415  13.318   3.870  14.732
44528SOL     OW35416  14.254   9.692  12.503
44528SOL    HW135417  14.306   9.713  12.426
44528SOL    HW235418  14.309   9.633  12.554
44529SOL     OW35419   3.398   7.173   4.098
44529SOL    HW135420   3.426   7.238   4.163
44529SOL    HW235421   3.478   7.152   4.050
44530SOL     OW35422  11.572   4.619   5.478
44530SOL    HW135423  11.552   4.570   5.558
44530SOL    HW235424  11.641   4.680   5.505
44531SOL     OW35425   7.513  13.647  14.385
44531SOL    HW135426   7.553  13.560  14.387
44531SOL    HW235427   7.420  13.630  14.399
44532SOL     OW35428   7.282  14.359  12.819
44532SOL    HW135429   7.261  14.392  12.731
44532SOL    HW235430   7.275  14.264  12.811
44533SOL     OW35431   4.086  12.462  14.151
44533SOL    HW135432   3.992  12.446  14.160
44533SOL    HW235433   4.102  12.544  14.197
44534SOL     OW35434  10.383   7.239  13.486
44534SOL    HW135435  10.373   7.201  13.573
44534SOL    HW235436  10.473   7.271  13.485
44535SOL     OW35437  14.607  13.540   8.911
44535SOL    HW135438  14.610  13.521   9.005
44535SOL    HW235439  14.607  13.453   8.869
44536SOL     OW35440   1.440   5.469   0.431
44536SOL    HW135441   1.436   5.415   0.352
44536SOL    HW235442   1.457   5.558   0.398
44537SOL     OW35443   7.261  14.516   6.231
44537SOL    HW135444   7.204  14.497   6.157
44537SOL    HW235445   7.348  14.489   6.202
44538SOL     OW35446   2.250   3.666  11.366
44538SOL    HW135447   2.275   3.574  11.354
44538SOL    HW235448   2.281   3.688  11.454
44539SOL     OW35449   8.404   8.003  12.571
44539SOL    HW135450   8.410   7.954  12.490
44539SOL    HW235451   8.313   7.991  12.600
44540SOL     OW35452   0.082   0.773  14.224
44540SOL    HW135453   0.103   0.764  14.317
44540SOL    HW235454   0.026   0.850  14.219
44541SOL     OW35455  12.023  10.930  11.493
44541SOL    HW135456  11.976  10.891  11.567
44541SOL    HW235457  12.115  10.914  11.512
44542SOL     OW35458   3.261   6.862   0.581
44542SOL    HW135459   3.232   6.952   0.593
44542SOL    HW235460   3.278   6.830   0.670
44543SOL     OW35461   9.634   4.604   9.049
44543SOL    HW135462   9.691   4.625   9.123
44543SOL    HW235463   9.552   4.575   9.088
44544SOL     OW35464  13.356   0.170  12.360
44544SOL    HW135465  13.320   0.139  12.443
44544SOL    HW235466  13.448   0.188  12.380
44545SOL     OW35467  10.935   5.562  10.790
44545SOL    HW135468  10.979   5.556  10.705
44545SOL    HW235469  11.006   5.562  10.853
44546SOL     OW35470   1.425  11.384   4.121
44546SOL    HW135471   1.383  11.305   4.153
44546SOL    HW235472   1.454  11.430   4.200
44547SOL     OW35473   7.273   3.958   9.016
44547SOL    HW135474   7.314   3.911   9.089
44547SOL    HW235475   7.252   4.044   9.052
44548SOL     OW35476   1.297   5.887   0.129
44548SOL    HW135477   1.332   5.976   0.121
44548SOL    HW235478   1.205   5.900   0.151
44549SOL     OW35479   9.178  14.485   4.528
44549SOL    HW135480   9.210  14.535   4.452
44549SOL    HW235481   9.088  14.514   4.539
44550SOL     OW35482   9.575   5.360   6.198
44550SOL    HW135483   9.573   5.354   6.102
44550SOL    HW235484   9.568   5.269   6.228
44551SOL     OW35485   6.239  10.652   8.937
44551SOL    HW135486   6.259  10.613   9.022
44551SOL    HW235487   6.273  10.741   8.943
44552SOL     OW35488   6.996   8.239  12.975
44552SOL    HW135489   6.997   8.161  12.919
44552SOL    HW235490   7.079   8.283  12.956
44553SOL     OW35491   9.232   2.681   1.773
44553SOL    HW135492   9.180   2.631   1.835
44553SOL    HW235493   9.318   2.687   1.814
44554SOL     OW35494   6.974  11.394   9.384
44554SOL    HW135495   6.994  11.473   9.435
44554SOL    HW235496   6.881  11.402   9.362
44555SOL     OW35497  13.336   8.684  14.224
44555SOL    HW135498  13.314   8.742  14.297
44555SOL    HW235499  13.257   8.684  14.169
44556SOL     OW35500   5.360   7.924   6.845
44556SOL    HW135501   5.272   7.915   6.808
44556SOL    HW235502   5.366   8.016   6.870
44557SOL     OW35503   8.572  11.935   9.542
44557SOL    HW135504   8.568  11.902   9.632
44557SOL    HW235505   8.485  11.916   9.506
44558SOL     OW35506   3.624   0.159  10.753
44558SOL    HW135507   3.607   0.195  10.840
44558SOL    HW235508   3.626   0.235  10.695
44559SOL     OW35509   1.273  13.920  11.300
44559SOL    HW135510   1.206  13.983  11.275
44559SOL    HW235511   1.235  13.873  11.375
44560SOL     OW35512   8.064  13.362   6.368
44560SOL    HW135513   8.092  13.431   6.308
44560SOL    HW235514   8.143  13.309   6.382
44561SOL     OW35515  11.917   9.433   8.379
44561SOL    HW135516  11.922   9.362   8.443
44561SOL    HW235517  12.007   9.461   8.366
44562SOL     OW35518  13.498  10.147   9.095
44562SOL    HW135519  13.417  10.168   9.141
44562SOL    HW235520  13.469  10.101   9.016
44563SOL     OW35521   2.939   7.019   4.359
44563SOL    HW135522   2.854   6.999   4.319
44563SOL    HW235523   3.003   6.971   4.306
44564SOL     OW35524   0.529   0.350   4.918
44564SOL    HW135525   0.468   0.419   4.894
44564SOL    HW235526   0.593   0.392   4.975
44565SOL     OW35527   0.396   3.326   6.666
44565SOL    HW135528   0.418   3.320   6.573
44565SOL    HW235529   0.463   3.385   6.703
44566SOL     OW35530   4.027  14.800   4.185
44566SOL    HW135531   4.020  14.726   4.245
44566SOL    HW235532   3.939  14.808   4.146
44567SOL     OW35533   8.168   1.377   6.559
44567SOL    HW135534   8.257   1.361   6.529
44567SOL    HW235535   8.135   1.290   6.585
44568SOL     OW35536  13.003  10.268  10.830
44568SOL    HW135537  13.046  10.337  10.881
44568SOL    HW235538  13.015  10.296  10.739
44569SOL     OW35539  10.274   5.669   1.854
44569SOL    HW135540  10.210   5.606   1.821
44569SOL    HW235541  10.289   5.729   1.781
44570SOL     OW35542   8.805  10.820   2.642
44570SOL    HW135543   8.730  10.769   2.610
44570SOL    HW235544   8.770  10.869   2.716
44571SOL     OW35545   4.067   5.797   7.546
44571SOL    HW135546   4.033   5.716   7.585
44571SOL    HW235547   4.156   5.805   7.580
44572SOL     OW35548  11.393  13.542   7.523
44572SOL    HW135549  11.311  13.516   7.564
44572SOL    HW235550  11.459  13.484   7.561
44573SOL     OW35551  10.523   5.766   2.173
44573SOL    HW135552  10.539   5.855   2.203
44573SOL    HW235553  10.431   5.750   2.195
44574SOL     OW35554   0.306  13.977  10.718
44574SOL    HW135555   0.356  13.915  10.770
44574SOL    HW235556   0.242  14.015  10.778
44575SOL     OW35557   6.022   5.919   1.799
44575SOL    HW135558   5.985   6.007   1.805
44575SOL    HW235559   5.962   5.864   1.849
44576SOL     OW35560  12.984  12.196  13.321
44576SOL    HW135561  13.007  12.286  13.344
44576SOL    HW235562  13.046  12.142  13.370
44577SOL     OW35563   5.362  10.966   1.863
44577SOL    HW135564   5.305  10.954   1.787
44577SOL    HW235565   5.415  10.886   1.866
44578SOL     OW35566  13.140  10.565   8.513
44578SOL    HW135567  13.056  10.559   8.469
44578SOL    HW235568  13.189  10.488   8.484
44579SOL     OW35569   2.199   5.226   5.779
44579SOL    HW135570   2.145   5.147   5.771
44579SOL    HW235571   2.283   5.201   5.741
44580SOL     OW35572  13.472   6.990   7.523
44580SOL    HW135573  13.426   6.935   7.460
44580SOL    HW235574  13.410   7.061   7.543
44581SOL     OW35575   8.995   0.896   9.603
44581SOL    HW135576   8.940   0.972   9.584
44581SOL    HW235577   8.940   0.839   9.657
44582SOL     OW35578   2.462  11.172  10.922
44582SOL    HW135579   2.511  11.240  10.876
44582SOL    HW235580   2.522  11.143  10.991
44583SOL     OW35581  10.320  13.210   9.637
44583SOL    HW135582  10.330  13.283   9.575
44583SOL    HW235583  10.406  13.202   9.677
44584SOL     OW35584  10.598  10.642   0.662
44584SOL    HW135585  10.557  10.656   0.577
44584SOL    HW235586  10.692  10.637   0.642
44585SOL     OW35587   1.707   0.806   7.128
44585SOL    HW135588   1.767   0.777   7.197
44585SOL    HW235589   1.624   0.821   7.174
44586SOL     OW35590   5.810   4.267  13.380
44586SOL    HW135591   5.851   4.208  13.443
44586SOL    HW235592   5.756   4.210  13.325
44587SOL     OW35593  14.501   5.979   8.555
44587SOL    HW135594  14.483   6.069   8.529
44587SOL    HW235595  14.498   5.981   8.651
44588SOL     OW35596   6.244   8.279  11.035
44588SOL    HW135597   6.293   8.354  11.069
44588SOL    HW235598   6.239   8.295  10.941
44589SOL     OW35599  14.124   1.330   4.430
44589SOL    HW135600  14.064   1.354   4.501
44589SOL    HW235601  14.199   1.290   4.475
44590SOL     OW35602   7.212  12.095   3.704
44590SOL    HW135603   7.193  12.137   3.787
44590SOL    HW235604   7.181  12.005   3.716
44591SOL     OW35605   2.145   5.306  11.299
44591SOL    HW135606   2.174   5.272  11.215
44591SOL    HW235607   2.143   5.401  11.287
44592SOL     OW35608  10.225   7.840  14.367
44592SOL    HW135609  10.144   7.790  14.378
44592SOL    HW235610  10.202   7.929  14.393
44593SOL     OW35611   8.225  11.700   6.187
44593SOL    HW135612   8.292  11.635   6.167
44593SOL    HW235613   8.193  11.729   6.102
44594SOL     OW35614   8.616   4.639   7.745
44594SOL    HW135615   8.650   4.725   7.723
44594SOL    HW235616   8.525   4.641   7.716
44595SOL     OW35617   9.868   4.493   0.429
44595SOL    HW135618   9.843   4.474   0.519
44595SOL    HW235619   9.922   4.572   0.436
44596SOL     OW35620   2.108   0.960  12.336
44596SOL    HW135621   2.107   0.896  12.407
44596SOL    HW235622   2.063   1.036  12.371
44597SOL     OW35623  13.757   8.681   1.980
44597SOL    HW135624  13.720   8.675   1.892
44597SOL    HW235625  13.792   8.594   1.998
44598SOL     OW35626   1.974   6.987   0.487
44598SOL    HW135627   1.915   6.984   0.562
44598SOL    HW235628   1.948   6.912   0.433
44599SOL     OW35629   0.545   7.226   1.337
44599SOL    HW135630   0.499   7.308   1.318
44599SOL    HW235631   0.477   7.168   1.373
44600SOL     OW35632   1.902   4.607  13.502
44600SOL    HW135633   1.926   4.550  13.575
44600SOL    HW235634   1.819   4.572  13.471
44601SOL     OW35635   8.611   1.341   0.039
44601SOL    HW135636   8.696   1.371   0.070
44601SOL    HW235637   8.588   1.268   0.097
44602SOL     OW35638  14.818   0.373  11.378
44602SOL    HW135639  14.871   0.430  11.433
44602SOL    HW235640  14.754   0.432  11.337
44603SOL     OW35641  13.440  14.281   2.994
44603SOL    HW135642  13.504  14.333   3.043
44603SOL    HW235643  13.371  14.343   2.972
44604SOL     OW35644  11.408   6.471  10.945
44604SOL    HW135645  11.363   6.507  11.021
44604SOL    HW235646  11.357   6.502  10.870
44605SOL     OW35647   3.136   4.021   6.477
44605SOL    HW135648   3.187   4.015   6.397
44605SOL    HW235649   3.179   3.962   6.538
44606SOL     OW35650   1.553   2.716   6.484
44606SOL    HW135651   1.555   2.634   6.534
44606SOL    HW235652   1.608   2.699   6.407
44607SOL     OW35653   4.632  11.107   0.408
44607SOL    HW135654   4.697  11.056   0.360
44607SOL    HW235655   4.643  11.197   0.377
44608SOL     OW35656   5.850   6.519  14.204
44608SOL    HW135657   5.857   6.614  14.203
44608SOL    HW235658   5.818   6.496  14.117
44609SOL     OW35659   7.504  14.846   7.651
44609SOL    HW135660   7.418   0.006   7.626
44609SOL    HW235661   7.493  14.813   7.740
44610SOL     OW35662  12.904   1.158   6.306
44610SOL    HW135663  12.831   1.212   6.336
44610SOL    HW235664  12.863   1.080   6.269
44611SOL     OW35665  12.503   9.748   4.299
44611SOL    HW135666  12.494   9.720   4.390
44611SOL    HW235667  12.460   9.833   4.295
44612SOL     OW35668  11.619   5.418   1.503
44612SOL    HW135669  11.635   5.353   1.434
44612SOL    HW235670  11.536   5.458   1.478
44613SOL     OW35671  12.747   2.826   6.667
44613SOL    HW135672  12.685   2.757   6.644
44613SOL    HW235673  12.815   2.822   6.599
44614SOL     OW35674   2.202   4.243   7.959
44614SOL    HW135675   2.244   4.181   8.018
44614SOL    HW235676   2.245   4.229   7.874
44615SOL     OW35677  11.052   6.633  11.760
44615SOL    HW135678  10.981   6.679  11.714
44615SOL    HW235679  11.120   6.623  11.693
44616SOL     OW35680   5.088   7.765   4.519
44616SOL    HW135681   5.022   7.698   4.539
44616SOL    HW235682   5.050   7.814   4.447
44617SOL     OW35683  13.864  11.788   6.936
44617SOL    HW135684  13.868  11.856   6.868
44617SOL    HW235685  13.880  11.835   7.018
44618SOL     OW35686  14.001   1.236   0.729
44618SOL    HW135687  14.052   1.166   0.770
44618SOL    HW235688  13.996   1.212   0.637
44619SOL     OW35689  13.922   3.386   1.095
44619SOL    HW135690  13.948   3.392   1.187
44619SOL    HW235691  13.916   3.478   1.067
44620SOL     OW35692   5.629   0.678   0.879
44620SOL    HW135693   5.687   0.711   0.948
44620SOL    HW235694   5.570   0.750   0.861
44621SOL     OW35695   8.842  13.578   6.550
44621SOL    HW135696   8.931  13.547   6.537
44621SOL    HW235697   8.788  13.523   6.494
44622SOL     OW35698   9.685   4.791   4.880
44622SOL    HW135699   9.630   4.840   4.819
44622SOL    HW235700   9.654   4.700   4.873
44623SOL     OW35701  12.782  12.325  12.330
44623SOL    HW135702  12.837  12.401  12.314
44623SOL    HW235703  12.695  12.362  12.346
44624SOL     OW35704   8.063  10.523   7.017
44624SOL    HW135705   8.106  10.519   6.931
44624SOL    HW235706   8.067  10.433   7.049
44625SOL     OW35707   8.142   0.895  10.464
44625SOL    HW135708   8.072   0.916  10.525
44625SOL    HW235709   8.104   0.907  10.377
44626SOL     OW35710  11.626   4.828  14.274
44626SOL    HW135711  11.562   4.883  14.319
44626SOL    HW235712  11.709   4.872  14.288
44627SOL     OW35713   0.284   0.021   5.867
44627SOL    HW135714   0.247   0.047   5.952
44627SOL    HW235715   0.245  14.808   5.850
44628SOL     OW35716   4.598  12.847  13.363
44628SOL    HW135717   4.691  12.862  13.348
44628SOL    HW235718   4.556  12.862  13.278
44629SOL     OW35719  12.884   9.125  13.641
44629SOL    HW135720  12.963   9.170  13.671
44629SOL    HW235721  12.917   9.045  13.599
44630SOL     OW35722   1.397  12.461   0.394
44630SOL    HW135723   1.413  12.509   0.475
44630SOL    HW235724   1.393  12.369   0.421
44631SOL     OW35725   8.054   1.901   9.058
44631SOL    HW135726   7.988   1.853   9.108
44631SOL    HW235727   8.069   1.981   9.108
44632SOL     OW35728   0.054   9.207   2.813
44632SOL    HW135729  14.870   9.272   2.853
44632SOL    HW235730   0.137   9.253   2.798
44633SOL     OW35731  11.839  13.899  14.279
44633SOL    HW135732  11.879  13.970  14.329
44633SOL    HW235733  11.808  13.837  14.345
44634SOL     OW35734   8.751   7.646   7.929
44634SOL    HW135735   8.676   7.585   7.925
44634SOL    HW235736   8.713   7.728   7.960
44635SOL     OW35737   6.491  13.200   5.132
44635SOL    HW135738   6.544  13.128   5.169
44635SOL    HW235739   6.541  13.279   5.152
44636SOL     OW35740  10.133   3.515  13.106
44636SOL    HW135741  10.162   3.486  13.020
44636SOL    HW235742  10.213   3.537  13.153
44637SOL     OW35743  11.659   2.617   7.817
44637SOL    HW135744  11.620   2.677   7.753
44637SOL    HW235745  11.674   2.536   7.768
44638SOL     OW35746   2.629   7.053   8.989
44638SOL    HW135747   2.543   7.047   8.948
44638SOL    HW235748   2.676   6.976   8.958
44639SOL     OW35749   0.016   0.734   7.359
44639SOL    HW135750   0.069   0.786   7.419
44639SOL    HW235751   0.007   0.790   7.281
44640SOL     OW35752  12.157   5.663   5.983
44640SOL    HW135753  12.080   5.610   6.002
44640SOL    HW235754  12.127   5.754   5.996
44641SOL     OW35755   1.181  11.765  13.624
44641SOL    HW135756   1.159  11.735  13.535
44641SOL    HW235757   1.166  11.860  13.621
44642SOL     OW35758   4.876   3.430   3.104
44642SOL    HW135759   4.879   3.395   3.015
44642SOL    HW235760   4.857   3.353   3.158
44643SOL     OW35761   6.857   4.595  10.319
44643SOL    HW135762   6.893   4.647  10.391
44643SOL    HW235763   6.795   4.535  10.360
44644SOL     OW35764   2.617   5.939   0.445
44644SOL    HW135765   2.690   5.989   0.409
44644SOL    HW235766   2.606   5.866   0.384
44645SOL     OW35767  13.268   0.130   4.207
44645SOL    HW135768  13.230   0.183   4.277
44645SOL    HW235769  13.220   0.156   4.128
44646SOL     OW35770   6.736   6.163   1.394
44646SOL    HW135771   6.775   6.077   1.410
44646SOL    HW235772   6.648   6.143   1.363
44647SOL     OW35773  12.858   1.646   0.765
44647SOL    HW135774  12.792   1.644   0.834
44647SOL    HW235775  12.811   1.615   0.687
44648SOL     OW35776   8.695   6.340   3.043
44648SOL    HW135777   8.685   6.244   3.039
44648SOL    HW235778   8.771   6.353   3.099
44649SOL     OW35779   7.743   5.194   9.764
44649SOL    HW135780   7.788   5.119   9.725
44649SOL    HW235781   7.811   5.239   9.814
44650SOL     OW35782   1.578   5.942   2.258
44650SOL    HW135783   1.604   5.954   2.166
44650SOL    HW235784   1.488   5.912   2.254
44651SOL     OW35785  13.516   9.492  10.310
44651SOL    HW135786  13.487   9.446  10.231
44651SOL    HW235787  13.446   9.476  10.374
44652SOL     OW35788  11.099   4.201   2.081
44652SOL    HW135789  11.012   4.161   2.084
44652SOL    HW235790  11.094   4.276   2.139
44653SOL     OW35791   7.642  13.467   3.690
44653SOL    HW135792   7.593  13.457   3.608
44653SOL    HW235793   7.585  13.431   3.757
44654SOL     OW35794  14.149   0.551   2.254
44654SOL    HW135795  14.239   0.573   2.228
44654SOL    HW235796  14.126   0.619   2.317
44655SOL     OW35797   2.171  10.741  13.905
44655SOL    HW135798   2.157  10.652  13.936
44655SOL    HW235799   2.261  10.741  13.872
44656SOL     OW35800   6.794   4.245   8.882
44656SOL    HW135801   6.874   4.218   8.837
44656SOL    HW235802   6.809   4.221   8.973
44657SOL     OW35803   0.443  14.703   7.964
44657SOL    HW135804   0.371  14.704   8.027
44657SOL    HW235805   0.496  14.779   7.989
44658SOL     OW35806   1.901   5.411  12.658
44658SOL    HW135807   1.830   5.351  12.679
44658SOL    HW235808   1.942   5.430  12.742
44659SOL     OW35809   6.311   4.465   6.713
44659SOL    HW135810   6.324   4.373   6.732
44659SOL    HW235811   6.400   4.501   6.708
44660SOL     OW35812   5.180   4.742   3.106
44660SOL    HW135813   5.217   4.659   3.138
44660SOL    HW235814   5.221   4.809   3.161
44661SOL     OW35815   6.358   9.133   7.628
44661SOL    HW135816   6.299   9.060   7.646
44661SOL    HW235817   6.330   9.166   7.543
44662SOL     OW35818   9.021  14.609   2.292
44662SOL    HW135819   9.106  14.635   2.327
44662SOL    HW235820   8.962  14.680   2.316
44663SOL     OW35821   5.448   6.206  13.350
44663SOL    HW135822   5.407   6.132  13.395
44663SOL    HW235823   5.380   6.273  13.347
44664SOL     OW35824   8.491  12.717   2.364
44664SOL    HW135825   8.439  12.647   2.403
44664SOL    HW235826   8.578  12.678   2.352
44665SOL     OW35827  14.440  14.003  14.496
44665SOL    HW135828  14.450  13.915  14.534
44665SOL    HW235829  14.530  14.035  14.485
44666SOL     OW35830  12.168   5.739  13.307
44666SOL    HW135831  12.160   5.686  13.387
44666SOL    HW235832  12.204   5.679  13.242
44667SOL     OW35833   3.812   6.572  14.693
44667SOL    HW135834   3.736   6.625  14.717
44667SOL    HW235835   3.869   6.633  14.645
44668SOL     OW35836   0.413   3.371   4.455
44668SOL    HW135837   0.384   3.446   4.507
44668SOL    HW235838   0.417   3.299   4.518
44669SOL     OW35839   9.496   5.266   9.952
44669SOL    HW135840   9.418   5.210   9.954
44669SOL    HW235841   9.567   5.208   9.981
44670SOL     OW35842  11.995   3.802   6.574
44670SOL    HW135843  11.938   3.795   6.497
44670SOL    HW235844  11.995   3.895   6.595
44671SOL     OW35845   8.583  11.739  12.755
44671SOL    HW135846   8.498  11.777  12.777
44671SOL    HW235847   8.569  11.645  12.757
44672SOL     OW35848   3.850   9.177   7.507
44672SOL    HW135849   3.799   9.206   7.431
44672SOL    HW235850   3.835   9.082   7.511
44673SOL     OW35851   2.079   5.611   1.713
44673SOL    HW135852   2.146   5.622   1.646
44673SOL    HW235853   2.066   5.517   1.719
44674SOL     OW35854   5.808  12.785  10.219
44674SOL    HW135855   5.827  12.874  10.189
44674SOL    HW235856   5.826  12.729  10.143
44675SOL     OW35857  11.656  14.098   6.517
44675SOL    HW135858  11.563  14.119   6.503
44675SOL    HW235859  11.688  14.073   6.430
44676SOL     OW35860   3.508   1.924   1.859
44676SOL    HW135861   3.561   1.853   1.896
44676SOL    HW235862   3.563   1.965   1.793
44677SOL     OW35863   4.666  12.771   0.329
44677SOL    HW135864   4.624  12.734   0.251
44677SOL    HW235865   4.623  12.726   0.402
44678SOL     OW35866  14.854   6.000  13.063
44678SOL    HW135867  14.800   6.074  13.094
44678SOL    HW235868  14.811   5.973  12.982
44679SOL     OW35869   1.303  13.673   5.600
44679SOL    HW135870   1.239  13.609   5.567
44679SOL    HW235871   1.342  13.629   5.676
44680SOL     OW35872   2.992  11.414   2.171
44680SOL    HW135873   2.956  11.349   2.231
44680SOL    HW235874   3.068  11.371   2.131
44681SOL     OW35875  13.027   2.941  12.375
44681SOL    HW135876  12.990   2.858  12.344
44681SOL    HW235877  12.955   2.983  12.423
44682SOL     OW35878   0.322  14.587   7.494
44682SOL    HW135879   0.240  14.631   7.517
44682SOL    HW235880   0.385  14.618   7.559
44683SOL     OW35881   5.633  14.668   4.631
44683SOL    HW135882   5.721  14.698   4.610
44683SOL    HW235883   5.592  14.652   4.546
44684SOL     OW35884  12.041   0.888  12.423
44684SOL    HW135885  11.991   0.910  12.344
44684SOL    HW235886  12.129   0.922  12.405
44685SOL     OW35887  11.721  14.498  14.835
44685SOL    HW135888  11.735  14.561  14.765
44685SOL    HW235889  11.800  14.445  14.836
44686SOL     OW35890  11.024   9.190   4.326
44686SOL    HW135891  11.105   9.241   4.323
44686SOL    HW235892  10.968   9.237   4.387
44687SOL     OW35893   7.581  10.751   5.266
44687SOL    HW135894   7.521  10.679   5.248
44687SOL    HW235895   7.531  10.811   5.320
44688SOL     OW35896  10.059   8.693  13.420
44688SOL    HW135897  10.121   8.620  13.429
44688SOL    HW235898  10.009   8.692  13.501
44689SOL     OW35899   8.433   3.264   2.230
44689SOL    HW135900   8.373   3.196   2.260
44689SOL    HW235901   8.476   3.297   2.309
44690SOL     OW35902   0.592  13.313  13.243
44690SOL    HW135903   0.629  13.263  13.170
44690SOL    HW235904   0.614  13.261  13.321
44691SOL     OW35905   8.217   8.658   6.574
44691SOL    HW135906   8.210   8.714   6.497
44691SOL    HW235907   8.275   8.705   6.634
44692SOL     OW35908   3.045   3.133  14.357
44692SOL    HW135909   3.096   3.174  14.427
44692SOL    HW235910   3.098   3.058  14.330
44693SOL     OW35911  13.350  12.038   4.655
44693SOL    HW135912  13.255  12.051   4.651
44693SOL    HW235913  13.379  12.095   4.725
44694SOL     OW35914   1.097   8.152   2.719
44694SOL    HW135915   1.107   8.149   2.814
44694SOL    HW235916   1.112   8.062   2.690
44695SOL     OW35917  11.878  10.556   3.942
44695SOL    HW135918  11.897  10.479   3.997
44695SOL    HW235919  11.934  10.625   3.979
44696SOL     OW35920   3.281   9.867   3.761
44696SOL    HW135921   3.356   9.908   3.718
44696SOL    HW235922   3.245   9.809   3.694
44697SOL     OW35923   4.436   6.290   3.355
44697SOL    HW135924   4.373   6.230   3.316
44697SOL    HW235925   4.385   6.340   3.419
44698SOL     OW35926  10.633  13.717   6.938
44698SOL    HW135927  10.703  13.769   6.899
44698SOL    HW235928  10.661  13.626   6.927
44699SOL     OW35929  13.831  13.350   9.259
44699SOL    HW135930  13.767  13.422   9.260
44699SOL    HW235931  13.792  13.285   9.200
44700SOL     OW35932   9.478   1.651   7.746
44700SOL    HW135933   9.544   1.653   7.815
44700SOL    HW235934   9.395   1.671   7.790
44701SOL     OW35935   2.730   3.331   7.683
44701SOL    HW135936   2.811   3.294   7.717
44701SOL    HW235937   2.751   3.422   7.662
44702SOL     OW35938   4.750   5.553   1.543
44702SOL    HW135939   4.808   5.480   1.567
44702SOL    HW235940   4.750   5.610   1.620
44703SOL     OW35941  14.475   9.116   1.068
44703SOL    HW135942  14.565   9.141   1.088
44703SOL    HW235943  14.469   9.024   1.094
44704SOL     OW35944  12.273   6.961   9.686
44704SOL    HW135945  12.312   6.876   9.705
44704SOL    HW235946  12.338   7.006   9.632
44705SOL     OW35947   9.625   2.919   2.929
44705SOL    HW135948   9.602   3.005   2.895
44705SOL    HW235949   9.711   2.900   2.892
44706SOL     OW35950   2.141  11.159  10.821
44706SOL    HW135951   2.210  11.161  10.754
44706SOL    HW235952   2.144  11.247  10.860
44707SOL     OW35953   3.958  14.244  12.288
44707SOL    HW135954   3.953  14.151  12.266
44707SOL    HW235955   3.892  14.256  12.356
44708SOL     OW35956   4.717   3.071   6.505
44708SOL    HW135957   4.778   3.016   6.554
44708SOL    HW235958   4.638   3.074   6.559
44709SOL     OW35959   5.273  12.614   6.576
44709SOL    HW135960   5.213  12.541   6.560
44709SOL    HW235961   5.216  12.687   6.602
44710SOL     OW35962   3.138  10.409   1.542
44710SOL    HW135963   3.162  10.493   1.503
44710SOL    HW235964   3.047  10.421   1.570
44711SOL     OW35965  10.385  11.870   0.967
44711SOL    HW135966  10.433  11.790   0.988
44711SOL    HW235967  10.415  11.933   1.032
44712SOL     OW35968   6.419   7.781   7.714
44712SOL    HW135969   6.351   7.714   7.708
44712SOL    HW235970   6.387   7.842   7.780
44713SOL     OW35971  11.297   6.210  13.014
44713SOL    HW135972  11.309   6.301  13.041
44713SOL    HW235973  11.216   6.182  13.059
44714SOL     OW35974   0.674   8.137  10.796
44714SOL    HW135975   0.581   8.149  10.782
44714SOL    HW235976   0.716   8.210  10.750
44715SOL     OW35977  14.449   3.375   0.816
44715SOL    HW135978  14.501   3.454   0.833
44715SOL    HW235979  14.377   3.380   0.878
44716SOL     OW35980   9.542   5.316  13.389
44716SOL    HW135981   9.571   5.359  13.469
44716SOL    HW235982   9.489   5.382  13.344
44717SOL     OW35983  13.371  14.373  11.464
44717SOL    HW135984  13.331  14.311  11.525
44717SOL    HW235985  13.345  14.459  11.497
44718SOL     OW35986  10.904  12.472   1.938
44718SOL    HW135987  10.911  12.568   1.942
44718SOL    HW235988  10.858  12.448   2.019
44719SOL     OW35989  14.452   8.379   6.215
44719SOL    HW135990  14.438   8.302   6.160
44719SOL    HW235991  14.365   8.405   6.243
44720SOL     OW35992   0.580   6.891   2.577
44720SOL    HW135993   0.558   6.982   2.556
44720SOL    HW235994   0.666   6.878   2.537
44721SOL     OW35995   5.638   7.795  12.659
44721SOL    HW135996   5.636   7.704  12.631
44721SOL    HW235997   5.724   7.827  12.632
44722SOL     OW35998   5.040   1.619   6.310
44722SOL    HW135999   4.965   1.641   6.255
44722SOL    HW236000   5.028   1.526   6.331
44723SOL     OW36001   6.336   5.675   1.991
44723SOL    HW136002   6.253   5.628   1.997
44723SOL    HW236003   6.311   5.767   1.987
44724SOL     OW36004   0.339   3.005   7.777
44724SOL    HW136005   0.306   2.919   7.749
44724SOL    HW236006   0.264   3.047   7.820
44725SOL     OW36007   0.559  11.991   6.323
44725SOL    HW136008   0.585  12.013   6.413
44725SOL    HW236009   0.490  11.925   6.334
44726SOL     OW36010   0.191   7.411  11.425
44726SOL    HW136011   0.099   7.437  11.429
44726SOL    HW236012   0.201   7.373  11.338
44727SOL     OW36013   4.939   5.420  11.302
44727SOL    HW136014   4.859   5.471  11.287
44727SOL    HW236015   4.925   5.380  11.388
44728SOL     OW36016  11.485  14.758  13.705
44728SOL    HW136017  11.421  14.790  13.769
44728SOL    HW236018  11.569  14.761  13.750
44729SOL     OW36019   3.409   7.737  12.454
44729SOL    HW136020   3.450   7.795  12.389
44729SOL    HW236021   3.483   7.697  12.500
44730SOL     OW36022   6.639   0.027   5.502
44730SOL    HW136023   6.681   0.108   5.532
44730SOL    HW236024   6.614   0.046   5.411
44731SOL     OW36025  11.353   8.105   5.178
44731SOL    HW136026  11.306   8.026   5.204
44731SOL    HW236027  11.313   8.175   5.229
44732SOL     OW36028  13.306  14.509  11.704
44732SOL    HW136029  13.318  14.430  11.755
44732SOL    HW236030  13.351  14.577  11.753
44733SOL     OW36031  14.024   3.619  14.029
44733SOL    HW136032  14.056   3.544  14.079
44733SOL    HW236033  14.021   3.691  14.092
44734SOL     OW36034   9.227   6.975   8.010
44734SOL    HW136035   9.299   6.913   7.996
44734SOL    HW236036   9.150   6.920   8.024
44735SOL     OW36037  12.812  11.277   0.099
44735SOL    HW136038  12.805  11.338   0.173
44735SOL    HW236039  12.868  11.323   0.036
44736SOL     OW36040  10.242   5.429   3.313
44736SOL    HW136041  10.319   5.376   3.293
44736SOL    HW236042  10.202   5.446   3.228
44737SOL     OW36043  10.234   2.460   8.806
44737SOL    HW136044  10.225   2.415   8.890
44737SOL    HW236045  10.164   2.425   8.752
44738SOL     OW36046   7.872  13.266   0.888
44738SOL    HW136047   7.803  13.237   0.948
44738SOL    HW236048   7.876  13.361   0.899
44739SOL     OW36049  12.215   6.869   5.893
44739SOL    HW136050  12.227   6.829   5.807
44739SOL    HW236051  12.266   6.814   5.952
44740SOL     OW36052  11.943   2.952   9.313
44740SOL    HW136053  11.877   3.021   9.319
44740SOL    HW236054  12.010   2.988   9.255
44741SOL     OW36055   7.990   8.979  12.388
44741SOL    HW136056   7.924   8.974  12.319
44741SOL    HW236057   7.941   8.964  12.469
44742SOL     OW36058   9.210   2.755  10.666
44742SOL    HW136059   9.122   2.789  10.654
44742SOL    HW236060   9.267   2.832  10.662
44743SOL     OW36061   8.991   4.893   0.211
44743SOL    HW136062   8.905   4.933   0.229
44743SOL    HW236063   9.015   4.928   0.124
44744SOL     OW36064   3.886   5.756  12.701
44744SOL    HW136065   3.975   5.736  12.732
44744SOL    HW236066   3.899   5.799  12.617
44745SOL     OW36067  14.111  14.595   0.048
44745SOL    HW136068  14.163  14.576   0.126
44745SOL    HW236069  14.020  14.586   0.077
44746SOL     OW36070   4.530  14.461   4.342
44746SOL    HW136071   4.545  14.390   4.279
44746SOL    HW236072   4.612  14.509   4.343
44747SOL     OW36073   8.845  10.394   3.963
44747SOL    HW136074   8.909  10.398   3.891
44747SOL    HW236075   8.839  10.301   3.984
44748SOL     OW36076   4.442  12.839   7.064
44748SOL    HW136077   4.510  12.786   7.107
44748SOL    HW236078   4.401  12.887   7.135
44749SOL     OW36079   2.190   9.304   7.604
44749SOL    HW136080   2.134   9.323   7.680
44749SOL    HW236081   2.198   9.388   7.559
44750SOL     OW36082   9.749   0.096  14.080
44750SOL    HW136083   9.677   0.032  14.073
44750SOL    HW236084   9.781   0.087  14.170
44751SOL     OW36085  10.323   8.592   1.053
44751SOL    HW136086  10.256   8.610   0.987
44751SOL    HW236087  10.278   8.605   1.137
44752SOL     OW36088   9.934  10.473   3.497
44752SOL    HW136089   9.860  10.415   3.478
44752SOL    HW236090   9.893  10.552   3.534
44753SOL     OW36091  12.802   1.294   9.106
44753SOL    HW136092  12.890   1.272   9.075
44753SOL    HW236093  12.813   1.313   9.199
44754SOL     OW36094  14.476   3.621   8.543
44754SOL    HW136095  14.415   3.605   8.471
44754SOL    HW236096  14.490   3.535   8.583
44755SOL     OW36097   7.768  11.609  12.420
44755SOL    HW136098   7.837  11.592  12.356
44755SOL    HW236099   7.815  11.642  12.497
44756SOL     OW36100  13.122   2.828  14.205
44756SOL    HW136101  13.193   2.826  14.140
44756SOL    HW236102  13.163   2.800  14.286
44757SOL     OW36103  14.107   0.851  13.533
44757SOL    HW136104  14.153   0.930  13.562
44757SOL    HW236105  14.021   0.883  13.506
44758SOL     OW36106   1.946   4.917   2.775
44758SOL    HW136107   2.007   4.854   2.737
44758SOL    HW236108   1.995   4.959   2.846
44759SOL     OW36109  12.986  10.730   4.137
44759SOL    HW136110  12.921  10.688   4.080
44759SOL    HW236111  13.053  10.762   4.077
44760SOL     OW36112   3.503   5.839   8.523
44760SOL    HW136113   3.574   5.781   8.496
44760SOL    HW236114   3.527   5.925   8.488
44761SOL     OW36115   9.859  11.639   1.982
44761SOL    HW136116   9.915  11.643   1.905
44761SOL    HW236117   9.907  11.583   2.044
44762SOL     OW36118   7.503   4.711   1.579
44762SOL    HW136119   7.458   4.673   1.503
44762SOL    HW236120   7.465   4.666   1.654
44763SOL     OW36121   7.494  14.766  13.391
44763SOL    HW136122   7.429  14.795  13.455
44763SOL    HW236123   7.443  14.713  13.329
44764SOL     OW36124   8.705   7.626   8.717
44764SOL    HW136125   8.751   7.637   8.800
44764SOL    HW236126   8.616   7.657   8.735
44765SOL     OW36127  10.685   4.557  10.077
44765SOL    HW136128  10.754   4.591  10.134
44765SOL    HW236129  10.606   4.557  10.132
44766SOL     OW36130  12.124   2.631   2.170
44766SOL    HW136131  12.054   2.567   2.186
44766SOL    HW236132  12.193   2.582   2.126
44767SOL     OW36133   7.681   5.350  13.628
44767SOL    HW136134   7.621   5.283  13.663
44767SOL    HW236135   7.673   5.423  13.689
44768SOL     OW36136  12.632   5.731   4.718
44768SOL    HW136137  12.611   5.687   4.635
44768SOL    HW236138  12.719   5.768   4.704
44769SOL     OW36139   1.945  10.307   5.953
44769SOL    HW136140   2.032  10.284   5.986
44769SOL    HW236141   1.945  10.275   5.863
44770SOL     OW36142   4.949   9.262   6.218
44770SOL    HW136143   4.980   9.268   6.128
44770SOL    HW236144   4.955   9.169   6.240
44771SOL     OW36145   7.961  14.054   8.679
44771SOL    HW136146   8.038  14.019   8.634
44771SOL    HW236147   7.889  13.996   8.652
44772SOL     OW36148  14.693   8.909   1.583
44772SOL    HW136149  14.637   8.971   1.536
44772SOL    HW236150  14.737   8.963   1.650
44773SOL     OW36151   6.965  12.535   3.686
44773SOL    HW136152   6.913  12.572   3.615
44773SOL    HW236153   6.906  12.474   3.731
44774SOL     OW36154   4.349   9.452  10.672
44774SOL    HW136155   4.386   9.377  10.624
44774SOL    HW236156   4.306   9.413  10.748
44775SOL     OW36157   4.237  12.476  12.195
44775SOL    HW136158   4.310  12.415  12.205
44775SOL    HW236159   4.213  12.470  12.103
44776SOL     OW36160  13.022   1.317   7.155
44776SOL    HW136161  13.008   1.228   7.121
44776SOL    HW236162  12.950   1.368   7.119
44777SOL     OW36163   7.327  12.204   6.987
44777SOL    HW136164   7.236  12.213   7.017
44777SOL    HW236165   7.356  12.294   6.972
44778SOL     OW36166   5.188   5.514   6.843
44778SOL    HW136167   5.157   5.601   6.869
44778SOL    HW236168   5.222   5.476   6.924
44779SOL     OW36169  11.235   9.353  10.677
44779SOL    HW136170  11.195   9.325  10.760
44779SOL    HW236171  11.328   9.329  10.686
44780SOL     OW36172  14.109  10.192  10.595
44780SOL    HW136173  14.111  10.203  10.500
44780SOL    HW236174  14.021  10.221  10.621
44781SOL     OW36175   0.088   3.360   7.223
44781SOL    HW136176   0.109   3.275   7.185
44781SOL    HW236177   0.039   3.406   7.155
44782SOL     OW36178   7.732   0.327   9.640
44782SOL    HW136179   7.743   0.311   9.734
44782SOL    HW236180   7.733   0.422   9.632
44783SOL     OW36181  12.077  13.159  10.370
44783SOL    HW136182  12.129  13.224  10.324
44783SOL    HW236183  12.136  13.085  10.383
44784SOL     OW36184   5.291   1.921   3.258
44784SOL    HW136185   5.356   1.978   3.300
44784SOL    HW236186   5.243   1.881   3.331
44785SOL     OW36187  14.462   4.338  12.085
44785SOL    HW136188  14.511   4.411  12.122
44785SOL    HW236189  14.440   4.366  11.996
44786SOL     OW36190   9.620   3.128   6.864
44786SOL    HW136191   9.703   3.084   6.884
44786SOL    HW236192   9.642   3.194   6.799
44787SOL     OW36193   0.590   1.481  11.689
44787SOL    HW136194   0.591   1.484  11.785
44787SOL    HW236195   0.560   1.392  11.668
44788SOL     OW36196   9.098   1.968   5.637
44788SOL    HW136197   9.092   2.060   5.662
44788SOL    HW236198   9.103   1.921   5.720
44789SOL     OW36199   2.181   1.951   9.820
44789SOL    HW136200   2.100   1.906   9.797
44789SOL    HW236201   2.181   1.953   9.916
44790SOL     OW36202  14.440  11.653   6.233
44790SOL    HW136203  14.400  11.577   6.276
44790SOL    HW236204  14.455  11.715   6.304
44791SOL     OW36205   2.456   1.218   2.811
44791SOL    HW136206   2.459   1.280   2.738
44791SOL    HW236207   2.363   1.197   2.820
44792SOL     OW36208  11.205   5.834  12.132
44792SOL    HW136209  11.177   5.798  12.047
44792SOL    HW236210  11.193   5.762  12.194
44793SOL     OW36211   6.482   2.733   3.183
44793SOL    HW136212   6.563   2.766   3.144
44793SOL    HW236213   6.500   2.731   3.277
44794SOL     OW36214  12.077   6.654   3.379
44794SOL    HW136215  12.086   6.578   3.321
44794SOL    HW236216  12.036   6.618   3.458
44795SOL     OW36217   1.557   5.356   9.230
44795SOL    HW136218   1.533   5.412   9.156
44795SOL    HW236219   1.614   5.289   9.192
44796SOL     OW36220   2.979  14.677   8.798
44796SOL    HW136221   2.889  14.648   8.812
44796SOL    HW236222   2.972  14.765   8.762
44797SOL     OW36223   6.569   4.271  11.623
44797SOL    HW136224   6.486   4.318  11.632
44797SOL    HW236225   6.555   4.187  11.667
44798SOL     OW36226  13.240   1.267   2.680
44798SOL    HW136227  13.320   1.318   2.693
44798SOL    HW236228  13.178   1.303   2.744
44799SOL     OW36229   9.601  14.784   5.604
44799SOL    HW136230   9.647  14.700   5.610
44799SOL    HW236231   9.581  14.807   5.694
44800SOL     OW36232   6.074  13.903   3.379
44800SOL    HW136233   6.164  13.874   3.360
44800SOL    HW236234   6.037  13.925   3.294
44801SOL     OW36235  10.923   8.008   3.400
44801SOL    HW136236  10.950   7.930   3.449
44801SOL    HW236237  10.886   8.066   3.467
44802SOL     OW36238   9.374  12.113   0.747
44802SOL    HW136239   9.321  12.073   0.816
44802SOL    HW236240   9.394  12.201   0.780
44803SOL     OW36241   9.457   3.121   8.332
44803SOL    HW136242   9.458   3.027   8.352
44803SOL    HW236243   9.452   3.126   8.237
44804SOL     OW36244   8.699   7.044  11.163
44804SOL    HW136245   8.767   6.985  11.130
44804SOL    HW236246   8.624   6.986  11.182
44805SOL     OW36247   6.694  10.643   8.941
44805SOL    HW136248   6.735  10.721   8.904
44805SOL    HW236249   6.681  10.664   9.034
44806SOL     OW36250   5.807   3.024  14.257
44806SOL    HW136251   5.796   2.955  14.322
44806SOL    HW236252   5.717   3.047  14.231
44807SOL     OW36253   8.549   4.958   1.435
44807SOL    HW136254   8.611   4.974   1.364
44807SOL    HW236255   8.464   4.957   1.393
44808SOL     OW36256  12.376   6.837   6.490
44808SOL    HW136257  12.343   6.884   6.566
44808SOL    HW236258  12.431   6.768   6.526
44809SOL     OW36259   8.643  11.486   4.834
44809SOL    HW136260   8.692  11.554   4.881
44809SOL    HW236261   8.555  11.523   4.825
44810SOL     OW36262  13.303   2.443   8.776
44810SOL    HW136263  13.338   2.399   8.853
44810SOL    HW236264  13.330   2.534   8.785
44811SOL     OW36265   1.986   9.450   2.947
44811SOL    HW136266   2.032   9.444   3.030
44811SOL    HW236267   2.046   9.411   2.883
44812SOL     OW36268   5.398  11.382   1.418
44812SOL    HW136269   5.351  11.461   1.445
44812SOL    HW236270   5.433  11.346   1.500
44813SOL     OW36271  11.434   5.298   5.203
44813SOL    HW136272  11.501   5.365   5.186
44813SOL    HW236273  11.459   5.260   5.287
44814SOL     OW36274   3.908   5.529   3.917
44814SOL    HW136275   3.938   5.527   3.826
44814SOL    HW236276   3.913   5.622   3.942
44815SOL     OW36277   1.135  14.099  10.958
44815SOL    HW136278   1.194  14.035  10.918
44815SOL    HW236279   1.155  14.096  11.052
44816SOL     OW36280  11.946   3.962  12.037
44816SOL    HW136281  11.945   4.001  11.949
44816SOL    HW236282  11.909   4.029  12.094
44817SOL     OW36283  12.232   2.548   5.096
44817SOL    HW136284  12.239   2.578   5.186
44817SOL    HW236285  12.236   2.628   5.043
44818SOL     OW36286   7.903  13.699  12.109
44818SOL    HW136287   7.816  13.678  12.076
44818SOL    HW236288   7.944  13.748  12.038
44819SOL     OW36289  14.115   5.451   1.309
44819SOL    HW136290  14.129   5.474   1.217
44819SOL    HW236291  14.105   5.536   1.353
44820SOL     OW36292   5.942   6.575  11.825
44820SOL    HW136293   5.947   6.480  11.813
44820SOL    HW236294   5.861   6.589  11.874
44821SOL     OW36295   8.506  11.777  11.505
44821SOL    HW136296   8.470  11.709  11.447
44821SOL    HW236297   8.470  11.859  11.470
44822SOL     OW36298   7.474  11.296  13.465
44822SOL    HW136299   7.464  11.352  13.543
44822SOL    HW236300   7.387  11.296  13.425
44823SOL     OW36301  14.743   5.296   4.587
44823SOL    HW136302  14.807   5.278   4.519
44823SOL    HW236303  14.675   5.348   4.543
44824SOL     OW36304   8.608  13.095  14.860
44824SOL    HW136305   8.605  13.134  14.773
44824SOL    HW236306   8.630  13.169   0.045
44825SOL     OW36307   2.721   6.142   1.919
44825SOL    HW136308   2.647   6.145   1.979
44825SOL    HW236309   2.795   6.174   1.970
44826SOL     OW36310   3.787  13.970   2.185
44826SOL    HW136311   3.740  13.946   2.105
44826SOL    HW236312   3.857  13.905   2.192
44827SOL     OW36313   8.993  12.068   5.112
44827SOL    HW136314   8.910  12.067   5.160
44827SOL    HW236315   8.969  12.049   5.022
44828SOL     OW36316  11.114  10.203   0.898
44828SOL    HW136317  11.181  10.139   0.874
44828SOL    HW236318  11.131  10.277   0.840
44829SOL     OW36319  12.480   5.538   3.004
44829SOL    HW136320  12.467   5.632   3.015
44829SOL    HW236321  12.575   5.527   3.010
44830SOL     OW36322   3.803  11.919  12.439
44830SOL    HW136323   3.833  12.002  12.401
44830SOL    HW236324   3.724  11.941  12.487
44831SOL     OW36325  10.607   0.344   8.979
44831SOL    HW136326  10.617   0.392   8.897
44831SOL    HW236327  10.685   0.288   8.984
44832SOL     OW36328  11.757   5.300   8.162
44832SOL    HW136329  11.711   5.319   8.243
44832SOL    HW236330  11.690   5.262   8.105
44833SOL     OW36331   8.571  13.139   9.335
44833SOL    HW136332   8.560  13.057   9.384
44833SOL    HW236333   8.485  13.157   9.299
44834SOL     OW36334   3.849   8.743   0.206
44834SOL    HW136335   3.902   8.819   0.228
44834SOL    HW236336   3.771   8.751   0.261
44835SOL     OW36337   7.319   6.647  12.852
44835SOL    HW136338   7.255   6.632  12.784
44835SOL    HW236339   7.287   6.597  12.927
44836SOL     OW36340  12.407   5.201   2.795
44836SOL    HW136341  12.479   5.200   2.859
44836SOL    HW236342  12.350   5.129   2.821
44837SOL     OW36343   6.885   1.878   6.261
44837SOL    HW136344   6.861   1.802   6.315
44837SOL    HW236345   6.979   1.869   6.246
44838SOL     OW36346   1.985   6.756  10.933
44838SOL    HW136347   1.923   6.724  10.998
44838SOL    HW236348   1.949   6.839  10.904
44839SOL     OW36349   6.126  12.166   1.238
44839SOL    HW136350   6.115  12.156   1.144
44839SOL    HW236351   6.124  12.261   1.253
44840SOL     OW36352   8.311   0.687   3.196
44840SOL    HW136353   8.327   0.776   3.167
44840SOL    HW236354   8.319   0.634   3.117
44841SOL     OW36355   6.099   8.946   6.711
44841SOL    HW136356   6.016   8.948   6.758
44841SOL    HW236357   6.142   8.865   6.740
44842SOL     OW36358   6.167   7.017  10.111
44842SOL    HW136359   6.198   7.108  10.112
44842SOL    HW236360   6.074   7.023  10.131
44843SOL     OW36361  10.360   9.930   9.457
44843SOL    HW136362  10.374  10.021   9.430
44843SOL    HW236363  10.276   9.907   9.418
44844SOL     OW36364  12.989   4.883   2.389
44844SOL    HW136365  13.044   4.834   2.450
44844SOL    HW236366  12.924   4.926   2.444
44845SOL     OW36367  11.810  14.335  12.961
44845SOL    HW136368  11.874  14.372  13.021
44845SOL    HW236369  11.829  14.241  12.960
44846SOL     OW36370  11.596   7.482   6.303
44846SOL    HW136371  11.588   7.560   6.248
44846SOL    HW236372  11.618   7.515   6.390
44847SOL     OW36373   6.550   3.612   9.843
44847SOL    HW136374   6.547   3.677   9.913
44847SOL    HW236375   6.601   3.654   9.774
44848SOL     OW36376   9.197   7.265   5.970
44848SOL    HW136377   9.113   7.240   6.006
44848SOL    HW236378   9.184   7.354   5.937
44849SOL     OW36379   3.064  11.872   5.824
44849SOL    HW136380   2.998  11.843   5.761
44849SOL    HW236381   3.024  11.946   5.869
44850SOL     OW36382  10.202   0.435   1.906
44850SOL    HW136383  10.186   0.342   1.920
44850SOL    HW236384  10.138   0.461   1.839
44851SOL     OW36385   9.501   7.059   1.703
44851SOL    HW136386   9.521   6.979   1.654
44851SOL    HW236387   9.581   7.111   1.698
44852SOL     OW36388  10.795   1.001   0.251
44852SOL    HW136389  10.801   1.076   0.192
44852SOL    HW236390  10.854   0.936   0.214
44853SOL     OW36391  14.541  10.583   4.971
44853SOL    HW136392  14.527  10.498   4.928
44853SOL    HW236393  14.475  10.640   4.933
44854SOL     OW36394   9.622  10.422  14.063
44854SOL    HW136395   9.527  10.421  14.051
44854SOL    HW236396   9.640  10.347  14.119
44855SOL     OW36397   0.226   5.462  11.558
44855SOL    HW136398   0.272   5.467  11.474
44855SOL    HW236399   0.205   5.369  11.568
44856SOL     OW36400  12.393   1.539   9.317
44856SOL    HW136401  12.413   1.521   9.409
44856SOL    HW236402  12.300   1.564   9.317
44857SOL     OW36403   2.454   3.056   8.942
44857SOL    HW136404   2.526   3.117   8.926
44857SOL    HW236405   2.412   3.046   8.857
44858SOL     OW36406  14.401  14.819  13.462
44858SOL    HW136407  14.326  14.836  13.518
44858SOL    HW236408  14.476  14.818  13.521
44859SOL     OW36409  13.065   4.158   4.754
44859SOL    HW136410  13.084   4.218   4.826
44859SOL    HW236411  13.101   4.202   4.676
44860SOL     OW36412  10.100  10.971   2.324
44860SOL    HW136413  10.178  10.945   2.372
44860SOL    HW236414  10.027  10.946   2.380
44861SOL     OW36415  11.004  12.796  13.662
44861SOL    HW136416  10.930  12.753  13.704
44861SOL    HW236417  11.075  12.733  13.668
44862SOL     OW36418   2.869  11.217   5.870
44862SOL    HW136419   2.961  11.225   5.895
44862SOL    HW236420   2.864  11.258   5.784
44863SOL     OW36421  14.310   6.054  13.027
44863SOL    HW136422  14.379   6.120  13.028
44863SOL    HW236423  14.281   6.051  12.935
44864SOL     OW36424   1.738  14.162  12.836
44864SOL    HW136425   1.755  14.256  12.842
44864SOL    HW236426   1.648  14.155  12.806
44865SOL     OW36427   0.894   8.065   7.375
44865SOL    HW136428   0.889   7.978   7.335
44865SOL    HW236429   0.972   8.105   7.338
44866SOL     OW36430  12.263   8.283  13.338
44866SOL    HW136431  12.254   8.188  13.348
44866SOL    HW236432  12.196   8.307  13.274
44867SOL     OW36433  11.650   5.429  11.855
44867SOL    HW136434  11.624   5.464  11.770
44867SOL    HW236435  11.567   5.414  11.901
44868SOL     OW36436  14.565  14.180   2.583
44868SOL    HW136437  14.618  14.101   2.571
44868SOL    HW236438  14.505  14.158   2.655
44869SOL     OW36439  14.635  10.558   2.970
44869SOL    HW136440  14.550  10.535   3.006
44869SOL    HW236441  14.659  10.482   2.917
44870SOL     OW36442  11.916   0.671  11.077
44870SOL    HW136443  11.869   0.753  11.063
44870SOL    HW236444  11.949   0.647  10.990
44871SOL     OW36445   9.644   2.693   9.437
44871SOL    HW136446   9.728   2.687   9.481
44871SOL    HW236447   9.647   2.624   9.371
44872SOL     OW36448  11.328  13.269  13.855
44872SOL    HW136449  11.405  13.303  13.900
44872SOL    HW236450  11.254  13.295  13.910
44873SOL     OW36451  14.520   7.251  10.517
44873SOL    HW136452  14.487   7.191  10.583
44873SOL    HW236453  14.527   7.335  10.561
44874SOL     OW36454   5.824   6.194  10.793
44874SOL    HW136455   5.784   6.192  10.880
44874SOL    HW236456   5.864   6.107  10.784
44875SOL     OW36457   4.544  13.203   4.971
44875SOL    HW136458   4.472  13.140   4.967
44875SOL    HW236459   4.578  13.194   5.060
44876SOL     OW36460   0.907   3.171   3.006
44876SOL    HW136461   0.840   3.231   3.038
44876SOL    HW236462   0.989   3.221   3.012
44877SOL     OW36463   8.200   1.262   0.922
44877SOL    HW136464   8.254   1.332   0.885
44877SOL    HW236465   8.120   1.263   0.870
44878SOL     OW36466   5.722  11.373  14.056
44878SOL    HW136467   5.785  11.439  14.029
44878SOL    HW236468   5.767  11.324  14.126
44879SOL     OW36469   0.126  11.364   3.753
44879SOL    HW136470   0.099  11.344   3.843
44879SOL    HW236471   0.221  11.365   3.756
44880SOL     OW36472   3.703  12.761   3.616
44880SOL    HW136473   3.701  12.676   3.660
44880SOL    HW236474   3.653  12.819   3.673
44881SOL     OW36475   3.891  12.900   2.533
44881SOL    HW136476   3.887  12.857   2.448
44881SOL    HW236477   3.912  12.830   2.595
44882SOL     OW36478  10.733   8.338   2.054
44882SOL    HW136479  10.818   8.296   2.044
44882SOL    HW236480  10.670   8.267   2.048
44883SOL     OW36481   1.339  14.464   3.334
44883SOL    HW136482   1.256  14.423   3.358
44883SOL    HW236483   1.406  14.410   3.378
44884SOL     OW36484   8.827   2.792  12.607
44884SOL    HW136485   8.754   2.828  12.657
44884SOL    HW236486   8.825   2.698  12.626
44885SOL     OW36487   9.963  14.378   8.310
44885SOL    HW136488   9.887  14.356   8.256
44885SOL    HW236489   9.992  14.294   8.345
44886SOL     OW36490  14.784   4.477   5.518
44886SOL    HW136491  14.833   4.453   5.596
44886SOL    HW236492  14.740   4.559   5.541
44887SOL     OW36493   8.706  13.541   8.867
44887SOL    HW136494   8.627  13.493   8.842
44887SOL    HW236495   8.755  13.553   8.785
44888SOL     OW36496   2.782   2.608   3.118
44888SOL    HW136497   2.853   2.617   3.054
44888SOL    HW236498   2.725   2.683   3.100
44889SOL     OW36499   7.793  13.235   3.757
44889SOL    HW136500   7.804  13.227   3.662
44889SOL    HW236501   7.699  13.251   3.769
44890SOL     OW36502   0.327  14.538  11.247
44890SOL    HW136503   0.406  14.539  11.193
44890SOL    HW236504   0.293  14.627  11.242
44891SOL     OW36505   3.554  12.260  14.121
44891SOL    HW136506   3.647  12.262  14.098
44891SOL    HW236507   3.550  12.210  14.202
44892SOL     OW36508  12.974   7.489   8.292
44892SOL    HW136509  12.987   7.533   8.208
44892SOL    HW236510  13.024   7.408   8.284
44893SOL     OW36511   0.986   5.042   9.582
44893SOL    HW136512   1.077   5.032   9.611
44893SOL    HW236513   0.986   5.122   9.529
44894SOL     OW36514   9.726   3.471   4.383
44894SOL    HW136515   9.679   3.552   4.404
44894SOL    HW236516   9.665   3.401   4.404
44895SOL     OW36517   5.544   2.302   5.907
44895SOL    HW136518   5.523   2.380   5.957
44895SOL    HW236519   5.490   2.308   5.828
44896SOL     OW36520   5.081   1.242  10.344
44896SOL    HW136521   5.083   1.290  10.261
44896SOL    HW236522   5.111   1.154  10.321
44897SOL     OW36523   7.543   1.450   0.622
44897SOL    HW136524   7.473   1.486   0.676
44897SOL    HW236525   7.557   1.516   0.554
44898SOL     OW36526   4.044  10.446  14.747
44898SOL    HW136527   4.024  10.399  14.666
44898SOL    HW236528   3.965  10.437  14.800
44899SOL     OW36529   5.243   7.830   6.078
44899SOL    HW136530   5.247   7.923   6.052
44899SOL    HW236531   5.287   7.784   6.006
44900SOL     OW36532  13.905  13.772   5.482
44900SOL    HW136533  13.916  13.791   5.389
44900SOL    HW236534  13.876  13.681   5.485
44901SOL     OW36535   1.281  11.804   5.609
44901SOL    HW136536   1.323  11.883   5.642
44901SOL    HW236537   1.282  11.814   5.514
44902SOL     OW36538   2.323   9.415   6.798
44902SOL    HW136539   2.365   9.330   6.809
44902SOL    HW236540   2.359   9.469   6.869
44903SOL     OW36541   4.010   3.765   3.612
44903SOL    HW136542   4.086   3.716   3.580
44903SOL    HW236543   4.012   3.753   3.707
44904SOL     OW36544   1.853  10.313   8.237
44904SOL    HW136545   1.934  10.364   8.233
44904SOL    HW236546   1.799  10.350   8.168
44905SOL     OW36547   1.627   9.285   9.427
44905SOL    HW136548   1.551   9.241   9.390
44905SOL    HW236549   1.684   9.215   9.456
44906SOL     OW36550   5.839   0.308  10.272
44906SOL    HW136551   5.911   0.353  10.228
44906SOL    HW236552   5.876   0.279  10.356
44907SOL     OW36553  12.762   9.110   9.418
44907SOL    HW136554  12.705   9.040   9.447
44907SOL    HW236555  12.759   9.174   9.489
44908SOL     OW36556   5.909   5.308   0.876
44908SOL    HW136557   5.981   5.250   0.853
44908SOL    HW236558   5.944   5.396   0.862
44909SOL     OW36559  12.999   0.816  11.680
44909SOL    HW136560  12.964   0.899  11.714
44909SOL    HW236561  12.945   0.749  11.722
44910SOL     OW36562   7.346   1.477   2.431
44910SOL    HW136563   7.321   1.569   2.421
44910SOL    HW236564   7.313   1.435   2.351
44911SOL     OW36565   4.781  11.162   3.505
44911SOL    HW136566   4.714  11.097   3.529
44911SOL    HW236567   4.736  11.221   3.445
44912SOL     OW36568  14.667   8.788   2.712
44912SOL    HW136569  14.704   8.845   2.780
44912SOL    HW236570  14.638   8.710   2.759
44913SOL     OW36571   7.144   9.880   1.874
44913SOL    HW136572   7.066   9.935   1.874
44913SOL    HW236573   7.201   9.919   1.940
44914SOL     OW36574   0.726  10.834   9.331
44914SOL    HW136575   0.634  10.811   9.343
44914SOL    HW236576   0.773  10.776   9.392
44915SOL     OW36577  12.460  14.197   3.558
44915SOL    HW136578  12.553  14.215   3.545
44915SOL    HW236579  12.436  14.142   3.483
44916SOL     OW36580  13.953   0.636  11.730
44916SOL    HW136581  13.957   0.692  11.807
44916SOL    HW236582  13.933   0.549  11.764
44917SOL     OW36583  11.958  10.691   6.997
44917SOL    HW136584  11.986  10.778   7.028
44917SOL    HW236585  12.029  10.663   6.939
44918SOL     OW36586  10.070   8.194   2.671
44918SOL    HW136587  10.113   8.114   2.699
44918SOL    HW236588  10.106   8.262   2.728
44919SOL     OW36589   7.621   3.002   9.153
44919SOL    HW136590   7.600   2.912   9.129
44919SOL    HW236591   7.678   3.033   9.083
44920SOL     OW36592   7.267   2.124   0.598
44920SOL    HW136593   7.302   2.147   0.512
44920SOL    HW236594   7.173   2.139   0.590
44921SOL     OW36595  12.429   6.329   0.999
44921SOL    HW136596  12.509   6.371   0.968
44921SOL    HW236597  12.369   6.334   0.925
44922SOL     OW36598   6.011  13.704  12.031
44922SOL    HW136599   6.057  13.723  12.113
44922SOL    HW236600   6.041  13.617  12.007
44923SOL     OW36601   8.846  12.654  11.631
44923SOL    HW136602   8.861  12.690  11.543
44923SOL    HW236603   8.808  12.728  11.680
44924SOL     OW36604   4.355  13.956   6.035
44924SOL    HW136605   4.291  13.986   6.100
44924SOL    HW236606   4.355  13.861   6.042
44925SOL     OW36607   0.070   1.802  11.010
44925SOL    HW136608   0.162   1.795  10.984
44925SOL    HW236609   0.041   1.885  10.972
44926SOL     OW36610   5.495  13.128   9.822
44926SOL    HW136611   5.487  13.074   9.901
44926SOL    HW236612   5.425  13.096   9.764
44927SOL     OW36613  10.640   7.791   2.417
44927SOL    HW136614  10.595   7.728   2.473
44927SOL    HW236615  10.711   7.825   2.471
44928SOL     OW36616   6.561   7.612   4.933
44928SOL    HW136617   6.471   7.630   4.908
44928SOL    HW236618   6.585   7.533   4.884
44929SOL     OW36619   2.313  10.888  14.321
44929SOL    HW136620   2.379  10.883  14.253
44929SOL    HW236621   2.230  10.897  14.274
44930SOL     OW36622   4.710   8.397   7.647
44930SOL    HW136623   4.791   8.447   7.641
44930SOL    HW236624   4.735   8.318   7.697
44931SOL     OW36625   8.089   9.852   6.613
44931SOL    HW136626   8.150   9.792   6.570
44931SOL    HW236627   8.072   9.811   6.698
44932SOL     OW36628   0.437   1.383  14.354
44932SOL    HW136629   0.414   1.361  14.264
44932SOL    HW236630   0.437   1.479  14.355
44933SOL     OW36631   3.049  13.309  13.196
44933SOL    HW136632   2.968  13.359  13.207
44933SOL    HW236633   3.034  13.256  13.117
44934SOL     OW36634  11.212  12.168   2.083
44934SOL    HW136635  11.194  12.258   2.055
44934SOL    HW236636  11.297  12.147   2.044
44935SOL     OW36637  10.666  11.367   5.015
44935SOL    HW136638  10.633  11.432   5.077
44935SOL    HW236639  10.751  11.401   4.988
44936SOL     OW36640   4.966  14.266  11.127
44936SOL    HW136641   5.013  14.188  11.096
44936SOL    HW236642   4.979  14.331  11.059
44937SOL     OW36643   4.125   7.766   5.501
44937SOL    HW136644   4.049   7.722   5.539
44937SOL    HW236645   4.200   7.731   5.550
44938SOL     OW36646   6.206   2.975   0.889
44938SOL    HW136647   6.143   2.986   0.818
44938SOL    HW236648   6.256   2.897   0.865
44939SOL     OW36649   8.167  14.034   7.259
44939SOL    HW136650   8.202  14.106   7.207
44939SOL    HW236651   8.123  13.978   7.195
44940SOL     OW36652   8.132   7.859   9.815
44940SOL    HW136653   8.113   7.945   9.852
44940SOL    HW236654   8.070   7.850   9.742
44941SOL     OW36655   0.694   4.948  14.829
44941SOL    HW136656   0.756   5.008  14.870
44941SOL    HW236657   0.747   4.893  14.771
44942SOL     OW36658   5.976  10.471   7.719
44942SOL    HW136659   6.016  10.391   7.753
44942SOL    HW236660   6.002  10.473   7.627
44943SOL     OW36661   5.759   0.413  12.900
44943SOL    HW136662   5.780   0.446  12.987
44943SOL    HW236663   5.834   0.358  12.877
44944SOL     OW36664   4.914   7.851   6.414
44944SOL    HW136665   4.898   7.788   6.484
44944SOL    HW236666   4.963   7.801   6.348
44945SOL     OW36667   1.373   2.296   3.903
44945SOL    HW136668   1.303   2.337   3.954
44945SOL    HW236669   1.347   2.312   3.812
44946SOL     OW36670   4.828   3.172   9.453
44946SOL    HW136671   4.899   3.149   9.513
44946SOL    HW236672   4.749   3.144   9.499
44947SOL     OW36673   6.472  10.834   4.101
44947SOL    HW136674   6.431  10.837   4.187
44947SOL    HW236675   6.400  10.849   4.039
44948SOL     OW36676  13.058   0.040  13.984
44948SOL    HW136677  12.974  14.868  13.976
44948SOL    HW236678  13.096   0.006  14.066
44949SOL     OW36679   8.712   2.412   0.865
44949SOL    HW136680   8.792   2.463   0.846
44949SOL    HW236681   8.670   2.401   0.780
44950SOL     OW36682  12.947  13.125  14.045
44950SOL    HW136683  13.031  13.090  14.075
44950SOL    HW236684  12.961  13.143  13.952
44951SOL     OW36685  10.939   2.019  11.049
44951SOL    HW136686  10.921   1.952  10.984
44951SOL    HW236687  10.852   2.050  11.076
44952SOL     OW36688   9.497  13.401  11.337
44952SOL    HW136689   9.583  13.381  11.300
44952SOL    HW236690   9.475  13.325  11.391
44953SOL     OW36691  11.946   6.193   3.055
44953SOL    HW136692  11.887   6.255   3.012
44953SOL    HW236693  12.012   6.172   2.988
44954SOL     OW36694   1.767   6.621   5.528
44954SOL    HW136695   1.805   6.533   5.525
44954SOL    HW236696   1.703   6.622   5.457
44955SOL     OW36697   4.911   8.504  12.621
44955SOL    HW136698   4.996   8.496  12.577
44955SOL    HW236699   4.911   8.593  12.656
44956SOL     OW36700   9.433   8.157   5.239
44956SOL    HW136701   9.394   8.243   5.253
44956SOL    HW236702   9.524   8.176   5.215
44957SOL     OW36703  13.579   6.437   3.553
44957SOL    HW136704  13.546   6.494   3.623
44957SOL    HW236705  13.572   6.491   3.474
44958SOL     OW36706   6.774   9.541   5.909
44958SOL    HW136707   6.815   9.574   5.829
44958SOL    HW236708   6.746   9.452   5.887
44959SOL     OW36709  10.313   2.566   4.849
44959SOL    HW136710  10.241   2.581   4.911
44959SOL    HW236711  10.383   2.624   4.878
44960SOL     OW36712  11.099   8.999   6.511
44960SOL    HW136713  11.070   8.918   6.554
44960SOL    HW236714  11.106   9.063   6.582
44961SOL     OW36715   1.869   6.292   0.349
44961SOL    HW136716   1.838   6.242   0.273
44961SOL    HW236717   1.937   6.349   0.313
44962SOL     OW36718  13.074   5.018  12.012
44962SOL    HW136719  13.109   4.984  12.094
44962SOL    HW236720  12.985   4.982  12.007
44963SOL     OW36721  11.231   2.843   0.375
44963SOL    HW136722  11.287   2.770   0.402
44963SOL    HW236723  11.290   2.903   0.330
44964SOL     OW36724  12.774   9.454  14.586
44964SOL    HW136725  12.696   9.451  14.642
44964SOL    HW236726  12.753   9.395  14.514
44965SOL     OW36727  12.568   1.369   7.382
44965SOL    HW136728  12.498   1.428   7.353
44965SOL    HW236729  12.550   1.286   7.338
44966SOL     OW36730   7.213   4.921   8.941
44966SOL    HW136731   7.280   4.978   8.903
44966SOL    HW236732   7.178   4.873   8.866
44967SOL     OW36733  11.756   6.251   9.074
44967SOL    HW136734  11.820   6.214   9.014
44967SOL    HW236735  11.793   6.335   9.100
44968SOL     OW36736  11.410  11.058   6.356
44968SOL    HW136737  11.318  11.032   6.352
44968SOL    HW236738  11.454  10.985   6.398
44969SOL     OW36739  12.212   5.146  14.858
44969SOL    HW136740  12.126   5.104  14.864
44969SOL    HW236741  12.272   5.083   0.025
44970SOL     OW36742   8.576   9.320   4.117
44970SOL    HW136743   8.518   9.375   4.065
44970SOL    HW236744   8.597   9.246   4.059
44971SOL     OW36745  13.436   2.613  10.251
44971SOL    HW136746  13.513   2.669  10.265
44971SOL    HW236747  13.472   2.530  10.220
44972SOL     OW36748   1.078   7.571   5.096
44972SOL    HW136749   1.086   7.586   5.190
44972SOL    HW236750   1.165   7.543   5.068
44973SOL     OW36751   4.615   8.000   3.745
44973SOL    HW136752   4.585   8.052   3.670
44973SOL    HW236753   4.664   7.928   3.705
44974SOL     OW36754  14.550  10.925  11.587
44974SOL    HW136755  14.597  10.908  11.669
44974SOL    HW236756  14.607  10.983  11.538
44975SOL     OW36757   3.823   0.078   2.120
44975SOL    HW136758   3.834   0.005   2.181
44975SOL    HW236759   3.729   0.080   2.101
44976SOL     OW36760   4.689   3.626  12.625
44976SOL    HW136761   4.657   3.645  12.713
44976SOL    HW236762   4.687   3.530  12.620
44977SOL     OW36763  14.031  10.547   9.136
44977SOL    HW136764  14.009  10.633   9.172
44977SOL    HW236765  14.010  10.485   9.207
44978SOL     OW36766  14.586  11.496   4.884
44978SOL    HW136767  14.491  11.495   4.889
44978SOL    HW236768  14.605  11.499   4.790
44979SOL     OW36769   7.638  13.170   2.997
44979SOL    HW136770   7.587  13.092   2.975
44979SOL    HW236771   7.657  13.211   2.913
44980SOL     OW36772  11.530  10.914  14.686
44980SOL    HW136773  11.594  10.984  14.700
44980SOL    HW236774  11.448  10.960  14.666
44981SOL     OW36775   6.108   9.862   8.445
44981SOL    HW136776   6.047   9.833   8.513
44981SOL    HW236777   6.194   9.829   8.474
44982SOL     OW36778  10.706   5.242   7.717
44982SOL    HW136779  10.795   5.205   7.719
44982SOL    HW236780  10.655   5.180   7.665
44983SOL     OW36781   5.673   1.267   9.733
44983SOL    HW136782   5.604   1.320   9.773
44983SOL    HW236783   5.629   1.220   9.662
44984SOL     OW36784   1.174   6.271   0.725
44984SOL    HW136785   1.204   6.337   0.788
44984SOL    HW236786   1.162   6.319   0.643
44985SOL     OW36787  13.131   9.502  10.097
44985SOL    HW136788  13.063   9.447  10.136
44985SOL    HW236789  13.087   9.585  10.078
44986SOL     OW36790   5.066  13.090   4.918
44986SOL    HW136791   4.971  13.098   4.906
44986SOL    HW236792   5.100  13.081   4.829
44987SOL     OW36793   2.055  12.693   8.565
44987SOL    HW136794   2.034  12.678   8.473
44987SOL    HW236795   1.984  12.747   8.598
44988SOL     OW36796  11.839  13.608   6.659
44988SOL    HW136797  11.794  13.655   6.729
44988SOL    HW236798  11.772  13.551   6.621
44989SOL     OW36799   8.438  14.054  12.482
44989SOL    HW136800   8.493  14.037  12.406
44989SOL    HW236801   8.462  13.985  12.545
44990SOL     OW36802   7.728  10.749  13.119
44990SOL    HW136803   7.813  10.790  13.135
44990SOL    HW236804   7.669  10.823  13.102
44991SOL     OW36805  10.788  10.358   1.110
44991SOL    HW136806  10.813  10.266   1.106
44991SOL    HW236807  10.720  10.362   1.177
44992SOL     OW36808  11.626   9.038   3.058
44992SOL    HW136809  11.609   8.949   3.028
44992SOL    HW236810  11.658   9.084   2.980
44993SOL     OW36811  13.208   1.154   3.301
44993SOL    HW136812  13.164   1.234   3.274
44993SOL    HW236813  13.234   1.113   3.218
44994SOL     OW36814  13.254   8.758  11.116
44994SOL    HW136815  13.233   8.703  11.040
44994SOL    HW236816  13.349   8.765  11.115
44995SOL     OW36817   4.049   2.311   6.752
44995SOL    HW136818   3.987   2.284   6.819
44995SOL    HW236819   4.010   2.390   6.714
44996SOL     OW36820   8.931   4.836   5.776
44996SOL    HW136821   8.908   4.919   5.733
44996SOL    HW236822   8.849   4.787   5.777
44997SOL     OW36823   7.099   4.810  12.525
44997SOL    HW136824   7.187   4.803  12.561
44997SOL    HW236825   7.108   4.872  12.452
44998SOL     OW36826  14.598  12.071   0.059
44998SOL    HW136827  14.630  12.031   0.139
44998SOL    HW236828  14.536  12.007   0.023
44999SOL     OW36829   4.448   9.064   6.317
44999SOL    HW136830   4.473   8.972   6.324
44999SOL    HW236831   4.530   9.109   6.296
45000SOL     OW36832   5.434  13.562  14.513
45000SOL    HW136833   5.365  13.574  14.447
45000SOL    HW236834   5.418  13.473  14.546
45001SOL     OW36835   7.525  12.242   5.705
45001SOL    HW136836   7.448  12.250   5.649
45001SOL    HW236837   7.544  12.148   5.705
45002SOL     OW36838   0.797  13.422   1.779
45002SOL    HW136839   0.783  13.433   1.685
45002SOL    HW236840   0.751  13.342   1.801
45003SOL     OW36841   1.633   8.288  12.293
45003SOL    HW136842   1.649   8.310  12.202
45003SOL    HW236843   1.720   8.285  12.333
45004SOL     OW36844   7.410   9.212  12.090
45004SOL    HW136845   7.388   9.286  12.032
45004SOL    HW236846   7.415   9.251  12.177
45005SOL     OW36847   7.406  10.607  11.330
45005SOL    HW136848   7.476  10.571  11.384
45005SOL    HW236849   7.379  10.535  11.273
45006SOL     OW36850   4.092   4.446  12.701
45006SOL    HW136851   4.136   4.491  12.774
45006SOL    HW236852   4.050   4.370  12.742
45007SOL     OW36853   3.033  14.758   3.662
45007SOL    HW136854   3.047  14.726   3.751
45007SOL    HW236855   2.974  14.693   3.623
45008SOL     OW36856   8.499   0.849  14.300
45008SOL    HW136857   8.572   0.868  14.358
45008SOL    HW236858   8.421   0.877  14.348
45009SOL     OW36859   8.809   6.044   1.422
45009SOL    HW136860   8.735   6.033   1.482
45009SOL    HW236861   8.841   6.132   1.439
45010SOL     OW36862   9.430   3.545  13.021
45010SOL    HW136863   9.382   3.468  12.992
45010SOL    HW236864   9.439   3.599  12.943
45011SOL     OW36865  13.451   5.474   6.076
45011SOL    HW136866  13.440   5.408   6.145
45011SOL    HW236867  13.406   5.551   6.109
45012SOL     OW36868  10.947   3.354   3.562
45012SOL    HW136869  11.008   3.414   3.519
45012SOL    HW236870  10.866   3.361   3.510
45013SOL     OW36871   2.589  14.682   0.516
45013SOL    HW136872   2.651  14.748   0.486
45013SOL    HW236873   2.553  14.717   0.597
45014SOL     OW36874   3.787   6.905  14.539
45014SOL    HW136875   3.862   6.930  14.484
45014SOL    HW236876   3.806   6.941  14.625
45015SOL     OW36877   2.117   8.325  14.587
45015SOL    HW136878   2.180   8.298  14.654
45015SOL    HW236879   2.167   8.380  14.527
45016SOL     OW36880  11.176  11.109   2.917
45016SOL    HW136881  11.131  11.152   2.844
45016SOL    HW236882  11.220  11.180   2.963
45017SOL     OW36883   8.372  14.672   9.247
45017SOL    HW136884   8.320  14.674   9.167
45017SOL    HW236885   8.387  14.579   9.264
45018SOL     OW36886   0.098   5.588   1.970
45018SOL    HW136887   0.049   5.650   1.916
45018SOL    HW236888   0.064   5.600   2.058
45019SOL     OW36889   8.683   4.620   0.738
45019SOL    HW136890   8.760   4.612   0.793
45019SOL    HW236891   8.718   4.635   0.650
45020SOL     OW36892  10.672  12.789  10.229
45020SOL    HW136893  10.583  12.753  10.228
45020SOL    HW236894  10.660  12.884  10.227
45021SOL     OW36895  11.446  11.215   6.662
45021SOL    HW136896  11.530  11.184   6.627
45021SOL    HW236897  11.400  11.135   6.688
45022SOL     OW36898  10.446   1.138   2.932
45022SOL    HW136899  10.406   1.195   2.997
45022SOL    HW236900  10.473   1.060   2.981
45023SOL     OW36901  13.549  10.953   5.034
45023SOL    HW136902  13.521  10.983   4.948
45023SOL    HW236903  13.506  10.868   5.046
45024SOL     OW36904   1.058   1.588   2.914
45024SOL    HW136905   1.031   1.507   2.871
45024SOL    HW236906   1.048   1.570   3.008
45025SOL     OW36907  12.924   4.446   0.952
45025SOL    HW136908  12.835   4.436   0.918
45025SOL    HW236909  12.979   4.456   0.875
45026SOL     OW36910  14.019   4.669  14.781
45026SOL    HW136911  13.930   4.680  14.748
45026SOL    HW236912  14.010   4.672   0.003
45027SOL     OW36913   1.739  10.176   9.226
45027SOL    HW136914   1.715  10.084   9.230
45027SOL    HW236915   1.813  10.179   9.166
45028SOL     OW36916   5.103   8.432   7.494
45028SOL    HW136917   5.144   8.348   7.518
45028SOL    HW236918   5.064   8.415   7.408
45029SOL     OW36919  10.580  11.129   5.622
45029SOL    HW136920  10.658  11.128   5.678
45029SOL    HW236921  10.506  11.136   5.684
45030SOL     OW36922   3.567   8.400   2.049
45030SOL    HW136923   3.657   8.378   2.073
45030SOL    HW236924   3.514   8.342   2.103
45031SOL     OW36925   3.554  10.166   8.140
45031SOL    HW136926   3.641  10.140   8.110
45031SOL    HW236927   3.521  10.089   8.186
45032SOL     OW36928   7.629   7.055  12.992
45032SOL    HW136929   7.704   6.998  12.975
45032SOL    HW236930   7.608   7.040  13.084
45033SOL     OW36931  12.960  14.130   6.072
45033SOL    HW136932  12.956  14.110   5.978
45033SOL    HW236933  12.988  14.221   6.076
45034SOL     OW36934  13.065  11.182  14.832
45034SOL    HW136935  13.045  11.150   0.047
45034SOL    HW236936  12.993  11.151  14.777
45035SOL     OW36937  13.948   4.703  10.649
45035SOL    HW136938  13.986   4.706  10.737
45035SOL    HW236939  13.975   4.618  10.614
45036SOL     OW36940   6.286   3.086  11.450
45036SOL    HW136941   6.278   3.172  11.408
45036SOL    HW236942   6.344   3.037  11.392
45037SOL     OW36943  14.477  10.260  12.825
45037SOL    HW136944  14.447  10.232  12.738
45037SOL    HW236945  14.438  10.196  12.885
45038SOL     OW36946   4.719   8.113   0.205
45038SOL    HW136947   4.735   8.176   0.136
45038SOL    HW236948   4.778   8.139   0.276
45039SOL     OW36949   0.848   2.275  11.343
45039SOL    HW136950   0.764   2.297  11.384
45039SOL    HW236951   0.843   2.182  11.325
45040SOL     OW36952   2.380  10.823   0.018
45040SOL    HW136953   2.286  10.806   0.020
45040SOL    HW236954   2.390  10.892  14.824
45041SOL     OW36955  13.162   8.887   2.603
45041SOL    HW136956  13.080   8.936   2.608
45041SOL    HW236957  13.222   8.945   2.556
45042SOL     OW36958   0.903  11.236   4.796
45042SOL    HW136959   0.969  11.185   4.842
45042SOL    HW236960   0.876  11.303   4.859
45043SOL     OW36961  14.706   4.886   2.636
45043SOL    HW136962  14.666   4.960   2.681
45043SOL    HW236963  14.791   4.919   2.606
45044SOL     OW36964   4.106   3.479   0.536
45044SOL    HW136965   4.073   3.399   0.578
45044SOL    HW236966   4.073   3.475   0.447
45045SOL     OW36967   7.053  13.157   8.595
45045SOL    HW136968   7.119  13.115   8.651
45045SOL    HW236969   7.019  13.086   8.540
45046SOL     OW36970   6.453   7.952   9.665
45046SOL    HW136971   6.524   7.940   9.602
45046SOL    HW236972   6.374   7.952   9.612
45047SOL     OW36973   0.376  14.046   5.385
45047SOL    HW136974   0.321  13.997   5.446
45047SOL    HW236975   0.466  14.020   5.407
45048SOL     OW36976   4.104   8.098   6.520
45048SOL    HW136977   4.029   8.117   6.576
45048SOL    HW236978   4.151   8.028   6.564
45049SOL     OW36979  11.812   8.566  10.962
45049SOL    HW136980  11.887   8.542  10.908
45049SOL    HW236981  11.845   8.633  11.022
45050SOL     OW36982  10.674  11.508   2.906
45050SOL    HW136983  10.632  11.482   2.824
45050SOL    HW236984  10.601  11.532   2.963
45051SOL     OW36985   7.275   1.337   6.132
45051SOL    HW136986   7.217   1.351   6.058
45051SOL    HW236987   7.357   1.379   6.107
45052SOL     OW36988  11.712   7.632   3.303
45052SOL    HW136989  11.721   7.665   3.214
45052SOL    HW236990  11.800   7.636   3.340
45053SOL     OW36991   7.831  11.033   9.800
45053SOL    HW136992   7.745  11.065   9.774
45053SOL    HW236993   7.875  11.012   9.718
45054SOL     OW36994   4.879   9.929   4.096
45054SOL    HW136995   4.823   9.959   4.167
45054SOL    HW236996   4.821   9.884   4.036
45055SOL     OW36997   2.284   6.041  11.117
45055SOL    HW136998   2.268   6.082  11.203
45055SOL    HW236999   2.267   5.948  11.132
45056SOL     OW37000   0.194   5.559  13.982
45056SOL    HW137001   0.224   5.612  13.909
45056SOL    HW237002   0.100   5.552  13.970
45057SOL     OW37003   1.888   9.725  14.556
45057SOL    HW137004   1.878   9.723  14.651
45057SOL    HW237005   1.868   9.815  14.531
45058SOL     OW37006  11.614   8.235   3.685
45058SOL    HW137007  11.578   8.322   3.667
45058SOL    HW237008  11.600   8.186   3.604
45059SOL     OW37009   4.963   5.108   6.346
45059SOL    HW137010   4.909   5.036   6.314
45059SOL    HW237011   5.005   5.073   6.425
45060SOL     OW37012   7.133   2.258   8.490
45060SOL    HW137013   7.224   2.241   8.514
45060SOL    HW237014   7.097   2.306   8.564
45061SOL     OW37015   7.341   3.875  11.737
45061SOL    HW137016   7.255   3.911  11.760
45061SOL    HW237017   7.352   3.800  11.796
45062SOL     OW37018   7.859   8.146   8.154
45062SOL    HW137019   7.817   8.114   8.074
45062SOL    HW237020   7.843   8.078   8.219
45063SOL     OW37021   9.236  10.146  13.205
45063SOL    HW137022   9.241  10.202  13.128
45063SOL    HW237023   9.235  10.206  13.279
45064SOL     OW37024   3.168  12.379   3.868
45064SOL    HW137025   3.185  12.455   3.812
45064SOL    HW237026   3.237  12.316   3.844
45065SOL     OW37027   6.066  12.116   4.752
45065SOL    HW137028   6.123  12.041   4.769
45065SOL    HW237029   6.122  12.192   4.769
45066SOL     OW37030   4.045   2.419   1.187
45066SOL    HW137031   4.039   2.326   1.167
45066SOL    HW237032   3.960   2.441   1.226
45067SOL     OW37033   5.476   2.583   0.124
45067SOL    HW137034   5.503   2.660   0.074
45067SOL    HW237035   5.381   2.578   0.111
45068SOL     OW37036   4.223   3.900   7.516
45068SOL    HW137037   4.156   3.856   7.568
45068SOL    HW237038   4.302   3.848   7.530
45069SOL     OW37039  12.552   2.451   3.424
45069SOL    HW137040  12.598   2.372   3.395
45069SOL    HW237041  12.479   2.459   3.363
45070SOL     OW37042   5.138   6.059   1.246
45070SOL    HW137043   5.143   6.155   1.241
45070SOL    HW237044   5.044   6.040   1.238
45071SOL     OW37045   6.442  10.252   5.542
45071SOL    HW137046   6.506  10.230   5.609
45071SOL    HW237047   6.461  10.344   5.520
45072SOL     OW37048   7.522   2.396  12.232
45072SOL    HW137049   7.548   2.485  12.210
45072SOL    HW237050   7.596   2.361  12.282
45073SOL     OW37051  13.490  12.945   4.647
45073SOL    HW137052  13.570  12.900   4.619
45073SOL    HW237053  13.482  13.019   4.586
45074SOL     OW37054   3.199   1.116   3.042
45074SOL    HW137055   3.197   1.120   2.946
45074SOL    HW237056   3.292   1.110   3.064
45075SOL     OW37057  11.773  10.699   3.188
45075SOL    HW137058  11.839  10.769   3.180
45075SOL    HW237059  11.716  10.712   3.112
45076SOL     OW37060   8.459   0.149  10.517
45076SOL    HW137061   8.491   0.070  10.560
45076SOL    HW237062   8.536   0.205  10.507
45077SOL     OW37063   1.914   2.073   2.793
45077SOL    HW137064   1.891   1.983   2.815
45077SOL    HW237065   2.010   2.074   2.795
45078SOL     OW37066  11.811   6.651   6.737
45078SOL    HW137067  11.780   6.592   6.668
45078SOL    HW237068  11.846   6.727   6.689
45079SOL     OW37069   0.159   1.157   4.083
45079SOL    HW137070   0.132   1.165   3.992
45079SOL    HW237071   0.244   1.202   4.088
45080SOL     OW37072  12.226   9.735   2.405
45080SOL    HW137073  12.162   9.791   2.362
45080SOL    HW237074  12.298   9.794   2.429
45081SOL     OW37075  13.271   9.302  14.256
45081SOL    HW137076  13.188   9.340  14.283
45081SOL    HW237077  13.334   9.332  14.320
45082SOL     OW37078   5.567   8.949  13.887
45082SOL    HW137079   5.658   8.974  13.870
45082SOL    HW237080   5.515   9.023  13.855
45083SOL     OW37081   0.821  10.853   9.074
45083SOL    HW137082   0.792  10.853   9.165
45083SOL    HW237083   0.843  10.762   9.055
45084SOL     OW37084  13.415   2.786   0.283
45084SOL    HW137085  13.486   2.731   0.248
45084SOL    HW237086  13.435   2.795   0.376
45085SOL     OW37087  10.159  13.241   3.083
45085SOL    HW137088  10.158  13.322   3.133
45085SOL    HW237089  10.229  13.189   3.121
45086SOL     OW37090  12.050  11.182   5.361
45086SOL    HW137091  11.960  11.191   5.391
45086SOL    HW237092  12.042  11.129   5.281
45087SOL     OW37093  11.179  12.744  12.832
45087SOL    HW137094  11.124  12.728  12.909
45087SOL    HW237095  11.217  12.659  12.812
45088SOL     OW37096   7.013   8.313  13.521
45088SOL    HW137097   7.048   8.323  13.432
45088SOL    HW237098   6.931   8.363  13.520
45089SOL     OW37099   0.744  12.417   9.131
45089SOL    HW137100   0.736  12.402   9.226
45089SOL    HW237101   0.739  12.512   9.121
45090SOL     OW37102   8.487   9.790   5.354
45090SOL    HW137103   8.580   9.794   5.332
45090SOL    HW237104   8.444   9.765   5.272
45091SOL     OW37105   8.039  10.066   0.075
45091SOL    HW137106   8.055  10.148   0.122
45091SOL    HW237107   8.118  10.014   0.089
45092SOL     OW37108  12.567  12.307   6.209
45092SOL    HW137109  12.513  12.385   6.194
45092SOL    HW237110  12.524  12.238   6.159
45093SOL     OW37111   5.956   4.904   6.696
45093SOL    HW137112   6.013   4.980   6.708
45093SOL    HW237113   5.869   4.935   6.722
45094SOL     OW37114  11.837   3.636   2.957
45094SOL    HW137115  11.876   3.705   2.904
45094SOL    HW237116  11.808   3.681   3.037
45095SOL     OW37117  13.193   5.733   3.635
45095SOL    HW137118  13.175   5.647   3.674
45095SOL    HW237119  13.288   5.739   3.633
45096SOL     OW37120   9.805  10.518   9.192
45096SOL    HW137121   9.870  10.477   9.135
45096SOL    HW237122   9.723  10.514   9.141
45097SOL     OW37123  13.599   1.554   7.904
45097SOL    HW137124  13.535   1.621   7.877
45097SOL    HW237125  13.666   1.604   7.951
45098SOL     OW37126   0.993   6.765   1.205
45098SOL    HW137127   1.041   6.834   1.159
45098SOL    HW237128   1.044   6.749   1.285
45099SOL     OW37129  13.177   9.073  11.397
45099SOL    HW137130  13.221   9.069  11.482
45099SOL    HW237131  13.202   9.158  11.361
45100SOL     OW37132  14.846   8.723  13.742
45100SOL    HW137133  14.773   8.731  13.804
45100SOL    HW237134   0.016   8.641  13.767
45101SOL     OW37135   1.137   2.031   8.653
45101SOL    HW137136   1.190   1.951   8.653
45101SOL    HW237137   1.133   2.057   8.745
45102SOL     OW37138   1.412  11.919   0.551
45102SOL    HW137139   1.402  11.848   0.614
45102SOL    HW237140   1.487  11.893   0.497
45103SOL     OW37141  11.567  13.488  12.709
45103SOL    HW137142  11.482  13.529  12.693
45103SOL    HW237143  11.548  13.394  12.717
45104SOL     OW37144   2.750   4.500   1.666
45104SOL    HW137145   2.827   4.557   1.660
45104SOL    HW237146   2.781   4.421   1.710
45105SOL     OW37147   2.259   1.414   3.034
45105SOL    HW137148   2.189   1.433   3.096
45105SOL    HW237149   2.223   1.441   2.949
45106SOL     OW37150   6.382  14.505   5.330
45106SOL    HW137151   6.388  14.493   5.424
45106SOL    HW237152   6.472  14.522   5.302
45107SOL     OW37153   7.020   7.932  10.462
45107SOL    HW137154   6.950   7.983  10.503
45107SOL    HW237155   7.064   7.994  10.404
45108SOL     OW37156   0.821   5.838   3.478
45108SOL    HW137157   0.853   5.776   3.411
45108SOL    HW237158   0.735   5.864   3.447
45109SOL     OW37159   7.384   6.226  12.852
45109SOL    HW137160   7.324   6.212  12.925
45109SOL    HW237161   7.471   6.232  12.892
45110SOL     OW37162  13.439   9.160  13.311
45110SOL    HW137163  13.345   9.164  13.294
45110SOL    HW237164  13.448   9.102  13.387
45111SOL     OW37165   1.260   9.157  10.197
45111SOL    HW137166   1.292   9.222  10.259
45111SOL    HW237167   1.209   9.095  10.250
45112SOL     OW37168  14.664   9.637   5.254
45112SOL    HW137169  14.660   9.552   5.297
45112SOL    HW237170  14.706   9.619   5.170
45113SOL     OW37171  12.824   2.851  13.410
45113SOL    HW137172  12.824   2.759  13.437
45113SOL    HW237173  12.828   2.848  13.315
45114SOL     OW37174  13.062   0.105   0.638
45114SOL    HW137175  13.120   0.181   0.649
45114SOL    HW237176  13.114   0.031   0.668
45115SOL     OW37177  14.159   6.389   3.498
45115SOL    HW137178  14.196   6.369   3.412
45115SOL    HW237179  14.067   6.410   3.480
45116SOL     OW37180   9.111   7.612  14.636
45116SOL    HW137181   9.205   7.620  14.655
45116SOL    HW237182   9.068   7.657  14.709
45117SOL     OW37183   0.314   7.116   1.449
45117SOL    HW137184   0.304   7.153   1.361
45117SOL    HW237185   0.225   7.104   1.481
45118SOL     OW37186   7.376   9.503   8.791
45118SOL    HW137187   7.321   9.507   8.713
45118SOL    HW237188   7.462   9.476   8.758
45119SOL     OW37189  10.505  14.516   9.565
45119SOL    HW137190  10.447  14.488   9.494
45119SOL    HW237191  10.593  14.492   9.535
45120SOL     OW37192  10.196  14.725   6.735
45120SOL    HW137193  10.129  14.706   6.801
45120SOL    HW237194  10.276  14.686   6.770
45121SOL     OW37195   4.145   3.775   9.616
45121SOL    HW137196   4.134   3.747   9.525
45121SOL    HW237197   4.239   3.769   9.632
45122SOL     OW37198  13.618   5.009   7.739
45122SOL    HW137199  13.550   4.994   7.804
45122SOL    HW237200  13.580   4.978   7.657
45123SOL     OW37201  12.055   7.338   0.938
45123SOL    HW137202  12.078   7.290   1.018
45123SOL    HW237203  12.049   7.270   0.871
45124SOL     OW37204   8.452   9.781   2.282
45124SOL    HW137205   8.511   9.780   2.207
45124SOL    HW237206   8.365   9.767   2.245
45125SOL     OW37207  13.722   4.956   8.826
45125SOL    HW137208  13.692   4.886   8.885
45125SOL    HW237209  13.649   5.018   8.824
45126SOL     OW37210  11.430   5.056  10.371
45126SOL    HW137211  11.511   5.057  10.422
45126SOL    HW237212  11.397   4.967  10.379
45127SOL     OW37213   9.618  12.206  14.029
45127SOL    HW137214   9.687  12.249  14.079
45127SOL    HW237215   9.541  12.209  14.086
45128SOL     OW37216  14.786   7.773   3.767
45128SOL    HW137217  14.823   7.776   3.855
45128SOL    HW237218  14.800   7.861   3.732
45129SOL     OW37219   9.773   4.839   6.240
45129SOL    HW137220   9.697   4.841   6.182
45129SOL    HW237221   9.816   4.756   6.221
45130SOL     OW37222   8.442   6.158  14.567
45130SOL    HW137223   8.474   6.158  14.657
45130SOL    HW237224   8.421   6.249  14.549
45131SOL     OW37225  12.209   5.422   5.156
45131SOL    HW137226  12.272   5.412   5.085
45131SOL    HW237227  12.200   5.334   5.192
45132SOL     OW37228   6.761   2.818   8.785
45132SOL    HW137229   6.787   2.910   8.775
45132SOL    HW237230   6.701   2.818   8.859
45133SOL     OW37231   7.620  12.759   3.939
45133SOL    HW137232   7.588  12.726   4.023
45133SOL    HW237233   7.691  12.818   3.962
45134SOL     OW37234   0.103   7.617  14.859
45134SOL    HW137235   0.106   7.533   0.032
45134SOL    HW237236   0.029   7.663   0.025
45135SOL     OW37237   6.387  10.381  11.846
45135SOL    HW137238   6.352  10.470  11.852
45135SOL    HW237239   6.370  10.353  11.756
45136SOL     OW37240   8.544   4.545   6.065
45136SOL    HW137241   8.474   4.580   6.119
45136SOL    HW237242   8.535   4.450   6.072
45137SOL     OW37243   0.761   1.013   3.643
45137SOL    HW137244   0.676   1.031   3.601
45137SOL    HW237245   0.746   1.031   3.735
45138SOL     OW37246   7.014   2.888  13.124
45138SOL    HW137247   7.043   2.940  13.199
45138SOL    HW237248   7.068   2.917  13.051
45139SOL     OW37249   0.522   5.827   7.623
45139SOL    HW137250   0.527   5.805   7.530
45139SOL    HW237251   0.508   5.921   7.625
45140SOL     OW37252   9.973  13.418   0.522
45140SOL    HW137253  10.055  13.387   0.484
45140SOL    HW237254  10.000  13.475   0.594
45141SOL     OW37255  11.630   2.912  12.598
45141SOL    HW137256  11.579   2.913  12.517
45141SOL    HW237257  11.593   2.985  12.649
45142SOL     OW37258   7.311  12.248   1.293
45142SOL    HW137259   7.382  12.277   1.349
45142SOL    HW237260   7.234  12.296   1.325
45143SOL     OW37261  11.360   7.777  11.578
45143SOL    HW137262  11.293   7.834  11.615
45143SOL    HW237263  11.387   7.721  11.650
45144SOL     OW37264  11.283  14.573  11.198
45144SOL    HW137265  11.251  14.531  11.118
45144SOL    HW237266  11.376  14.589  11.182
45145SOL     OW37267   5.380   2.305   5.017
45145SOL    HW137268   5.417   2.267   5.097
45145SOL    HW237269   5.299   2.255   5.002
45146SOL     OW37270   5.672  12.404   5.093
45146SOL    HW137271   5.757  12.365   5.074
45146SOL    HW237272   5.659  12.390   5.187
45147SOL     OW37273   3.987  11.109   1.135
45147SOL    HW137274   3.901  11.149   1.121
45147SOL    HW237275   3.986  11.082   1.227
45148SOL     OW37276   3.515   2.105  14.852
45148SOL    HW137277   3.514   2.036   0.046
45148SOL    HW237278   3.430   2.098  14.808
45149SOL     OW37279  10.147   4.218  10.857
45149SOL    HW137280  10.119   4.276  10.927
45149SOL    HW237281  10.243   4.219  10.862
45150SOL     OW37282   6.183   1.756   3.073
45150SOL    HW137283   6.239   1.807   3.131
45150SOL    HW237284   6.158   1.817   3.003
45151SOL     OW37285   8.397   5.804   8.413
45151SOL    HW137286   8.317   5.852   8.437
45151SOL    HW237287   8.396   5.803   8.317
45152SOL     OW37288  11.682  10.521  10.603
45152SOL    HW137289  11.756  10.515  10.663
45152SOL    HW237290  11.632  10.596  10.633
45153SOL     OW37291  14.677  12.010   8.330
45153SOL    HW137292  14.737  12.079   8.357
45153SOL    HW237293  14.718  11.971   8.253
45154SOL     OW37294   4.040  13.488   5.570
45154SOL    HW137295   3.971  13.434   5.609
45154SOL    HW237296   4.018  13.492   5.477
45155SOL     OW37297  12.250  14.240   7.297
45155SOL    HW137298  12.193  14.210   7.226
45155SOL    HW237299  12.306  14.165   7.316
45156SOL     OW37300  12.301   0.643   4.616
45156SOL    HW137301  12.227   0.703   4.621
45156SOL    HW237302  12.371   0.695   4.578
45157SOL     OW37303  10.666   1.641   2.012
45157SOL    HW137304  10.612   1.712   2.047
45157SOL    HW237305  10.677   1.664   1.920
45158SOL     OW37306   9.175   3.105   6.113
45158SOL    HW137307   9.253   3.156   6.089
45158SOL    HW237308   9.206   3.014   6.115
45159SOL     OW37309  11.805   4.604   7.115
45159SOL    HW137310  11.787   4.585   7.023
45159SOL    HW237311  11.828   4.696   7.116
45160SOL     OW37312   4.000   0.788   8.294
45160SOL    HW137313   3.985   0.794   8.200
45160SOL    HW237314   4.044   0.870   8.317
45161SOL     OW37315   8.249  11.836   6.428
45161SOL    HW137316   8.294  11.779   6.491
45161SOL    HW237317   8.241  11.783   6.349
45162SOL     OW37318   9.935   4.760  10.843
45162SOL    HW137319   9.971   4.738  10.929
45162SOL    HW237320   9.876   4.834  10.860
45163SOL     OW37321  14.281   1.020  11.330
45163SOL    HW137322  14.328   1.006  11.248
45163SOL    HW237323  14.327   1.094  11.371
45164SOL     OW37324   9.231   4.377   8.426
45164SOL    HW137325   9.295   4.436   8.468
45164SOL    HW237326   9.214   4.310   8.492
45165SOL     OW37327   7.327   7.141  14.865
45165SOL    HW137328   7.409   7.149   0.041
45165SOL    HW237329   7.326   7.216  14.806
45166SOL     OW37330   5.027   9.661   2.332
45166SOL    HW137331   4.988   9.589   2.282
45166SOL    HW237332   5.008   9.739   2.279
45167SOL     OW37333   9.476   7.909   3.538
45167SOL    HW137334   9.420   7.894   3.614
45167SOL    HW237335   9.559   7.868   3.561
45168SOL     OW37336  10.006  13.331   7.371
45168SOL    HW137337  10.007  13.426   7.379
45168SOL    HW237338  10.097  13.305   7.384
45169SOL     OW37339  12.550   8.280   8.558
45169SOL    HW137340  12.576   8.351   8.499
45169SOL    HW237341  12.549   8.202   8.504
45170SOL     OW37342   2.273   1.352  13.317
45170SOL    HW137343   2.276   1.287  13.247
45170SOL    HW237344   2.344   1.413  13.298
45171SOL     OW37345  11.152  12.855  12.400
45171SOL    HW137346  11.156  12.811  12.315
45171SOL    HW237347  11.228  12.823  12.448
45172SOL     OW37348   1.182   3.499  11.887
45172SOL    HW137349   1.145   3.564  11.827
45172SOL    HW237350   1.145   3.416  11.858
45173SOL     OW37351   5.457   5.325   4.636
45173SOL    HW137352   5.443   5.416   4.610
45173SOL    HW237353   5.536   5.298   4.588
45174SOL     OW37354   4.089   2.950   8.494
45174SOL    HW137355   4.070   2.944   8.588
45174SOL    HW237356   4.022   2.896   8.453
45175SOL     OW37357  12.446   8.608   4.811
45175SOL    HW137358  12.488   8.652   4.885
45175SOL    HW237359  12.392   8.540   4.851
45176SOL     OW37360   4.301   6.668   8.886
45176SOL    HW137361   4.274   6.712   8.806
45176SOL    HW237362   4.395   6.685   8.893
45177SOL     OW37363  13.195  10.445   0.486
45177SOL    HW137364  13.165  10.465   0.575
45177SOL    HW237365  13.139  10.497   0.429
45178SOL     OW37366   0.264  10.527   2.624
45178SOL    HW137367   0.300  10.445   2.591
45178SOL    HW237368   0.242  10.508   2.715
45179SOL     OW37369  12.492  14.532   5.365
45179SOL    HW137370  12.424  14.474   5.400
45179SOL    HW237371  12.492  14.607   5.425
45180SOL     OW37372  10.931   9.867  10.073
45180SOL    HW137373  10.950   9.955  10.105
45180SOL    HW237374  10.961   9.868   9.982
45181SOL     OW37375   5.794   9.706   3.212
45181SOL    HW137376   5.820   9.774   3.275
45181SOL    HW237377   5.708   9.677   3.242
45182SOL     OW37378   6.791   3.645   0.336
45182SOL    HW137379   6.812   3.682   0.250
45182SOL    HW237380   6.715   3.695   0.366
45183SOL     OW37381  11.001   8.884   0.813
45183SOL    HW137382  11.037   8.932   0.888
45183SOL    HW237383  11.009   8.792   0.837
45184SOL     OW37384  10.357  13.395  11.314
45184SOL    HW137385  10.423  13.453  11.276
45184SOL    HW237386  10.397  13.364  11.396
45185SOL     OW37387   2.783  12.315  13.729
45185SOL    HW137388   2.721  12.388  13.727
45185SOL    HW237389   2.831  12.323  13.647
45186SOL     OW37390   7.454   6.699  13.134
45186SOL    HW137391   7.439   6.789  13.164
45186SOL    HW237392   7.517   6.663  13.196
45187SOL     OW37393   6.545   7.302   8.582
45187SOL    HW137394   6.558   7.388   8.542
45187SOL    HW237395   6.544   7.241   8.508
45188SOL     OW37396   9.129   5.389   7.599
45188SOL    HW137397   9.220   5.398   7.571
45188SOL    HW237398   9.111   5.470   7.648
45189SOL     OW37399   5.172   1.131   0.585
45189SOL    HW137400   5.174   1.210   0.531
45189SOL    HW237401   5.079   1.114   0.599
45190SOL     OW37402   7.232   6.845   5.840
45190SOL    HW137403   7.291   6.811   5.773
45190SOL    HW237404   7.154   6.872   5.791
45191SOL     OW37405   6.547   8.548   4.970
45191SOL    HW137406   6.581   8.503   4.893
45191SOL    HW237407   6.465   8.503   4.990
45192SOL     OW37408  12.302   9.149   7.467
45192SOL    HW137409  12.312   9.075   7.527
45192SOL    HW237410  12.342   9.223   7.512
45193SOL     OW37411   1.987   1.844   7.761
45193SOL    HW137412   2.036   1.893   7.695
45193SOL    HW237413   2.017   1.880   7.845
45194SOL     OW37414  12.639   2.767  10.129
45194SOL    HW137415  12.702   2.719  10.075
45194SOL    HW237416  12.691   2.803  10.201
45195SOL     OW37417   1.475   8.785   7.452
45195SOL    HW137418   1.520   8.762   7.370
45195SOL    HW237419   1.387   8.748   7.442
45196SOL     OW37420   6.654   2.011   7.787
45196SOL    HW137421   6.741   1.981   7.761
45196SOL    HW237422   6.653   2.001   7.882
45197SOL     OW37423  11.117   7.658  11.916
45197SOL    HW137424  11.152   7.714  11.847
45197SOL    HW237425  11.193   7.635  11.969
45198SOL     OW37426   2.075  10.530  14.047
45198SOL    HW137427   2.031  10.465  14.101
45198SOL    HW237428   2.008  10.596  14.029
45199SOL     OW37429   0.577  13.463   0.607
45199SOL    HW137430   0.613  13.544   0.646
45199SOL    HW237431   0.520  13.494   0.537
45200SOL     OW37432   8.685  10.761   6.650
45200SOL    HW137433   8.615  10.697   6.664
45200SOL    HW237434   8.655  10.815   6.577
45201SOL     OW37435   7.627  14.477   0.480
45201SOL    HW137436   7.531  14.482   0.487
45201SOL    HW237437   7.656  14.568   0.481
45202SOL     OW37438  11.805   2.241   3.509
45202SOL    HW137439  11.758   2.310   3.556
45202SOL    HW237440  11.810   2.272   3.419
45203SOL     OW37441   7.895   2.722   2.167
45203SOL    HW137442   7.828   2.656   2.148
45203SOL    HW237443   7.870   2.797   2.113
45204SOL     OW37444   2.346   6.144   0.089
45204SOL    HW137445   2.283   6.186   0.147
45204SOL    HW237446   2.309   6.057   0.072
45205SOL     OW37447   0.060  14.180   1.162
45205SOL    HW137448   0.006  14.129   1.223
45205SOL    HW237449   0.036  14.271   1.179
45206SOL     OW37450   8.935  10.922   6.315
45206SOL    HW137451   8.920  11.002   6.366
45206SOL    HW237452   8.990  10.868   6.371
45207SOL     OW37453   0.517  14.295   4.742
45207SOL    HW137454   0.523  14.316   4.835
45207SOL    HW237455   0.495  14.201   4.740
45208SOL     OW37456  13.503   3.729  12.180
45208SOL    HW137457  13.498   3.639  12.212
45208SOL    HW237458  13.592   3.757  12.200
45209SOL     OW37459  14.375   7.329  13.201
45209SOL    HW137460  14.426   7.306  13.279
45209SOL    HW237461  14.399   7.262  13.137
45210SOL     OW37462   6.919  14.478   2.206
45210SOL    HW137463   6.834  14.459   2.166
45210SOL    HW237464   6.972  14.400   2.189
45211SOL     OW37465   6.522  13.049   1.228
45211SOL    HW137466   6.438  13.003   1.227
45211SOL    HW237467   6.587  12.980   1.214
45212SOL     OW37468   3.340  12.506   2.012
45212SOL    HW137469   3.308  12.583   2.059
45212SOL    HW237470   3.276  12.438   2.031
45213SOL     OW37471   8.087   0.003   9.709
45213SOL    HW137472   7.999   0.017   9.743
45213SOL    HW237473   8.083   0.031   9.617
45214SOL     OW37474  14.188   0.071   0.828
45214SOL    HW137475  14.200   0.112   0.914
45214SOL    HW237476  14.183   0.144   0.767
45215SOL     OW37477   1.245   3.325   9.695
45215SOL    HW137478   1.186   3.271   9.747
45215SOL    HW237479   1.248   3.282   9.610
45216SOL     OW37480   7.239   6.357   4.558
45216SOL    HW137481   7.164   6.398   4.602
45216SOL    HW237482   7.246   6.404   4.474
45217SOL     OW37483   2.199  12.472   9.248
45217SOL    HW137484   2.196  12.493   9.154
45217SOL    HW237485   2.196  12.557   9.291
45218SOL     OW37486   5.728   9.929  12.433
45218SOL    HW137487   5.675   9.859  12.471
45218SOL    HW237488   5.793   9.949  12.501
45219SOL     OW37489   2.622  12.419   8.375
45219SOL    HW137490   2.659  12.454   8.456
45219SOL    HW237491   2.691  12.432   8.310
45220SOL     OW37492   5.025   9.540   4.428
45220SOL    HW137493   5.007   9.458   4.382
45220SOL    HW237494   5.010   9.608   4.362
45221SOL     OW37495  14.170   1.958   8.464
45221SOL    HW137496  14.255   1.970   8.508
45221SOL    HW237497  14.192   1.940   8.373
45222SOL     OW37498  13.473  13.788   0.769
45222SOL    HW137499  13.464  13.748   0.856
45222SOL    HW237500  13.421  13.868   0.774
45223SOL     OW37501   9.605  13.476  11.620
45223SOL    HW137502   9.582  13.457  11.529
45223SOL    HW237503   9.544  13.545  11.646
45224SOL     OW37504  12.874  11.516   4.629
45224SOL    HW137505  12.839  11.605   4.623
45224SOL    HW237506  12.797  11.461   4.637
45225SOL     OW37507   6.386   8.729  10.617
45225SOL    HW137508   6.303   8.717  10.570
45225SOL    HW237509   6.419   8.813  10.585
45226SOL     OW37510   2.579   8.481   8.423
45226SOL    HW137511   2.559   8.387   8.423
45226SOL    HW237512   2.547   8.513   8.339
45227SOL     OW37513  11.336  10.893   2.840
45227SOL    HW137514  11.281  10.967   2.866
45227SOL    HW237515  11.341  10.900   2.744
45228SOL     OW37516   1.234  11.876   2.991
45228SOL    HW137517   1.286  11.798   2.974
45228SOL    HW237518   1.274  11.915   3.069
45229SOL     OW37519   5.384   8.744   7.132
45229SOL    HW137520   5.347   8.744   7.221
45229SOL    HW237521   5.471   8.705   7.143
45230SOL     OW37522   6.636  10.189   5.763
45230SOL    HW137523   6.650  10.195   5.857
45230SOL    HW237524   6.724  10.180   5.726
45231SOL     OW37525   5.775   2.060   3.450
45231SOL    HW137526   5.826   2.011   3.514
45231SOL    HW237527   5.832   2.067   3.374
45232SOL     OW37528  12.037   2.705  11.497
45232SOL    HW137529  12.132   2.707  11.509
45232SOL    HW237530  12.014   2.795  11.474
45233SOL     OW37531   4.356  12.322   7.542
45233SOL    HW137532   4.429  12.277   7.500
45233SOL    HW237533   4.367  12.304   7.635
45234SOL     OW37534   9.814   5.051  14.847
45234SOL    HW137535   9.879   5.121  14.851
45234SOL    HW237536   9.778   5.046   0.062
45235SOL     OW37537   7.059   4.297   1.422
45235SOL    HW137538   7.041   4.235   1.351
45235SOL    HW237539   7.147   4.330   1.404
45236SOL     OW37540   4.206   7.779  14.779
45236SOL    HW137541   4.281   7.835  14.756
45236SOL    HW237542   4.181   7.738  14.696
45237SOL     OW37543   4.930   4.902   0.858
45237SOL    HW137544   4.900   4.830   0.802
45237SOL    HW237545   4.868   4.973   0.840
45238SOL     OW37546   7.968  14.872   2.342
45238SOL    HW137547   7.960  14.783   2.375
45238SOL    HW237548   7.892   0.046   2.377
45239SOL     OW37549   6.836   5.173   2.509
45239SOL    HW137550   6.846   5.228   2.587
45239SOL    HW237551   6.760   5.209   2.464
45240SOL     OW37552  13.577   7.176   7.753
45240SOL    HW137553  13.658   7.225   7.742
45240SOL    HW237554  13.522   7.204   7.679
45241SOL     OW37555  12.038   7.512   9.353
45241SOL    HW137556  11.945   7.526   9.333
45241SOL    HW237557  12.085   7.567   9.290
45242SOL     OW37558   1.667   7.826  13.092
45242SOL    HW137559   1.646   7.804  13.183
45242SOL    HW237560   1.712   7.748  13.059
45243SOL     OW37561   1.201   5.320  13.401
45243SOL    HW137562   1.120   5.322  13.349
45243SOL    HW237563   1.214   5.228  13.422
45244SOL     OW37564  10.952   3.770   7.999
45244SOL    HW137565  11.044   3.755   7.975
45244SOL    HW237566  10.903   3.755   7.918
45245SOL     OW37567  10.738  13.841  12.708
45245SOL    HW137568  10.695  13.773  12.656
45245SOL    HW237569  10.730  13.810  12.798
45246SOL     OW37570   7.770  12.980   7.226
45246SOL    HW137571   7.796  12.926   7.152
45246SOL    HW237572   7.704  13.039   7.190
45247SOL     OW37573  14.872  12.177   4.124
45247SOL    HW137574  14.818  12.254   4.111
45247SOL    HW237575   0.086  12.202   4.091
45248SOL     OW37576   2.076   0.032   7.002
45248SOL    HW137577   1.980   0.037   6.995
45248SOL    HW237578   2.097  14.817   6.972
45249SOL     OW37579   2.195  13.704   6.273
45249SOL    HW137580   2.214  13.674   6.185
45249SOL    HW237581   2.229  13.634   6.330
45250SOL     OW37582   4.829   6.428  11.894
45250SOL    HW137583   4.775   6.506  11.881
45250SOL    HW237584   4.785   6.380  11.964
45251SOL     OW37585   4.587   5.268   0.047
45251SOL    HW137586   4.504   5.241   0.088
45251SOL    HW237587   4.562   5.294  14.831
45252SOL     OW37588   0.354   6.499   7.199
45252SOL    HW137589   0.263   6.505   7.228
45252SOL    HW237590   0.369   6.405   7.186
45253SOL     OW37591  14.055   6.222   7.983
45253SOL    HW137592  13.984   6.272   8.022
45253SOL    HW237593  14.102   6.183   8.057
45254SOL     OW37594   1.212   8.027   8.755
45254SOL    HW137595   1.279   8.084   8.794
45254SOL    HW237596   1.262   7.964   8.703
45255SOL     OW37597   4.516   3.892   3.740
45255SOL    HW137598   4.548   3.934   3.660
45255SOL    HW237599   4.576   3.922   3.808
45256SOL     OW37600   6.234   4.256   2.090
45256SOL    HW137601   6.313   4.305   2.067
45256SOL    HW237602   6.195   4.233   2.006
45257SOL     OW37603  10.027   9.171  10.959
45257SOL    HW137604  10.057   9.241  11.018
45257SOL    HW237605  10.105   9.121  10.940
45258SOL     OW37606  13.841   8.183  14.572
45258SOL    HW137607  13.817   8.255  14.629
45258SOL    HW237608  13.874   8.224  14.492
45259SOL     OW37609   0.467   9.814  11.134
45259SOL    HW137610   0.410   9.742  11.104
45259SOL    HW237611   0.512   9.843  11.055
45260SOL     OW37612  11.454   2.768   3.666
45260SOL    HW137613  11.518   2.753   3.735
45260SOL    HW237614  11.483   2.848   3.623
45261SOL     OW37615   1.259   4.013   3.313
45261SOL    HW137616   1.351   4.021   3.288
45261SOL    HW237617   1.251   4.064   3.394
45262SOL     OW37618   7.053  11.202   6.456
45262SOL    HW137619   7.126  11.259   6.431
45262SOL    HW237620   7.055  11.130   6.392
45263SOL     OW37621   0.398   0.947   4.827
45263SOL    HW137622   0.444   0.944   4.911
45263SOL    HW237623   0.306   0.931   4.850
45264SOL     OW37624   6.874   1.912  11.289
45264SOL    HW137625   6.866   1.955  11.374
45264SOL    HW237626   6.793   1.934  11.244
45265SOL     OW37627  11.409   5.855  11.196
45265SOL    HW137628  11.415   5.860  11.291
45265SOL    HW237629  11.459   5.930  11.164
45266SOL     OW37630   3.201  10.666   9.036
45266SOL    HW137631   3.204  10.668   9.132
45266SOL    HW237632   3.112  10.637   9.016
45267SOL     OW37633  11.266   6.158   8.636
45267SOL    HW137634  11.303   6.087   8.585
45267SOL    HW237635  11.254   6.122   8.724
45268SOL     OW37636   7.909   3.680  14.132
45268SOL    HW137637   7.962   3.601  14.119
45268SOL    HW237638   7.944   3.720  14.211
45269SOL     OW37639   3.024   2.258   9.172
45269SOL    HW137640   3.001   2.335   9.119
45269SOL    HW237641   3.062   2.197   9.109
45270SOL     OW37642  12.870   1.549  12.547
45270SOL    HW137643  12.948   1.506  12.512
45270SOL    HW237644  12.870   1.636  12.507
45271SOL     OW37645   0.599   4.115  10.111
45271SOL    HW137646   0.622   4.079  10.197
45271SOL    HW237647   0.682   4.140  10.072
45272SOL     OW37648  14.139   7.491   3.328
45272SOL    HW137649  14.105   7.413   3.284
45272SOL    HW237650  14.229   7.468   3.352
45273SOL     OW37651   2.305   8.283   2.828
45273SOL    HW137652   2.332   8.204   2.876
45273SOL    HW237653   2.384   8.337   2.825
45274SOL     OW37654   7.375   3.899  11.116
45274SOL    HW137655   7.328   3.973  11.154
45274SOL    HW237656   7.398   3.927  11.028
45275SOL     OW37657   9.393   3.745   8.916
45275SOL    HW137658   9.433   3.832   8.919
45275SOL    HW237659   9.466   3.684   8.930
45276SOL     OW37660   5.553  12.412   7.355
45276SOL    HW137661   5.649  12.406   7.352
45276SOL    HW237662   5.534  12.505   7.344
45277SOL     OW37663   6.674  10.699   1.819
45277SOL    HW137664   6.694  10.743   1.902
45277SOL    HW237665   6.743  10.727   1.759
45278SOL     OW37666   9.692   5.848  14.279
45278SOL    HW137667   9.713   5.936  14.249
45278SOL    HW237668   9.776   5.802  14.280
45279SOL     OW37669   1.731   3.808   6.265
45279SOL    HW137670   1.649   3.847   6.296
45279SOL    HW237671   1.706   3.719   6.238
45280SOL     OW37672   1.966   4.674  14.662
45280SOL    HW137673   1.975   4.764  14.692
45280SOL    HW237674   1.994   4.676  14.571
45281SOL     OW37675   4.837   4.691  11.176
45281SOL    HW137676   4.795   4.774  11.154
45281SOL    HW237677   4.868   4.657  11.091
45282SOL     OW37678   5.001   8.602   4.876
45282SOL    HW137679   4.913   8.629   4.899
45282SOL    HW237680   4.998   8.506   4.878
45283SOL     OW37681  11.283  13.403   2.722
45283SOL    HW137682  11.201  13.433   2.684
45283SOL    HW237683  11.296  13.315   2.686
45284SOL     OW37684   2.100   1.330   5.233
45284SOL    HW137685   2.009   1.333   5.202
45284SOL    HW237686   2.116   1.417   5.269
45285SOL     OW37687   1.593  13.527   9.054
45285SOL    HW137688   1.605  13.547   8.962
45285SOL    HW237689   1.503  13.495   9.062
45286SOL     OW37690   7.698   5.285  14.260
45286SOL    HW137691   7.646   5.275  14.180
45286SOL    HW237692   7.780   5.239  14.241
45287SOL     OW37693  13.556   7.519   0.629
45287SOL    HW137694  13.513   7.438   0.657
45287SOL    HW237695  13.637   7.490   0.587
45288SOL     OW37696  13.124   8.560   1.895
45288SOL    HW137697  13.173   8.597   1.969
45288SOL    HW237698  13.191   8.542   1.829
45289SOL     OW37699   7.757   7.140   7.986
45289SOL    HW137700   7.773   7.118   7.894
45289SOL    HW237701   7.839   7.179   8.016
45290SOL     OW37702  12.909   5.739  10.439
45290SOL    HW137703  12.883   5.744  10.531
45290SOL    HW237704  12.997   5.702  10.441
45291SOL     OW37705   4.665   5.313   8.397
45291SOL    HW137706   4.689   5.393   8.444
45291SOL    HW237707   4.731   5.249   8.424
45292SOL     OW37708  13.552  10.339   8.467
45292SOL    HW137709  13.531  10.431   8.480
45292SOL    HW237710  13.610  10.316   8.540
45293SOL     OW37711   9.886   3.305   5.983
45293SOL    HW137712   9.908   3.316   5.890
45293SOL    HW237713   9.891   3.393   6.019
45294SOL     OW37714   8.836   3.987   9.182
45294SOL    HW137715   8.746   3.958   9.173
45294SOL    HW237716   8.831   4.083   9.184
45295SOL     OW37717  13.600   1.909  10.514
45295SOL    HW137718  13.643   1.893  10.430
45295SOL    HW237719  13.624   1.999  10.535
45296SOL     OW37720  13.990   4.713  14.086
45296SOL    HW137721  13.911   4.756  14.053
45296SOL    HW237722  13.973   4.620  14.076
45297SOL     OW37723  13.853   0.003  13.578
45297SOL    HW137724  13.843  14.829  13.661
45297SOL    HW237725  13.833   0.094  13.599
45298SOL     OW37726   3.177   1.167  12.300
45298SOL    HW137727   3.180   1.262  12.315
45298SOL    HW237728   3.227   1.154  12.219
45299SOL     OW37729   2.762  14.375  10.216
45299SOL    HW137730   2.848  14.389  10.176
45299SOL    HW237731   2.781  14.338  10.302
45300SOL     OW37732   0.928   9.969   5.199
45300SOL    HW137733   1.020   9.986   5.179
45300SOL    HW237734   0.891   9.935   5.117
45301SOL     OW37735   5.327  11.164   7.883
45301SOL    HW137736   5.260  11.113   7.929
45301SOL    HW237737   5.378  11.098   7.836
45302SOL     OW37738  13.989   6.154  10.863
45302SOL    HW137739  14.012   6.108  10.782
45302SOL    HW237740  14.012   6.093  10.932
45303SOL     OW37741   3.338   7.331  14.357
45303SOL    HW137742   3.383   7.388  14.420
45303SOL    HW237743   3.275   7.388  14.313
45304SOL     OW37744  13.871   7.950  10.239
45304SOL    HW137745  13.832   8.013  10.178
45304SOL    HW237746  13.914   7.885  10.183
45305SOL     OW37747   8.674   8.831   0.060
45305SOL    HW137748   8.643   8.873   0.141
45305SOL    HW237749   8.725   8.899   0.016
45306SOL     OW37750   2.304   3.123   7.424
45306SOL    HW137751   2.334   3.046   7.473
45306SOL    HW237752   2.351   3.197   7.463
45307SOL     OW37753  12.521   1.752   7.501
45307SOL    HW137754  12.579   1.819   7.539
45307SOL    HW237755  12.570   1.718   7.426
45308SOL     OW37756   1.933   8.035  12.482
45308SOL    HW137757   1.858   7.997  12.435
45308SOL    HW237758   1.925   8.129  12.467
45309SOL     OW37759   2.131   1.528   2.075
45309SOL    HW137760   2.215   1.550   2.116
45309SOL    HW237761   2.068   1.586   2.119
45310SOL     OW37762  13.545   2.984  12.849
45310SOL    HW137763  13.561   2.890  12.859
45310SOL    HW237764  13.563   3.002  12.757
45311SOL     OW37765   9.265   4.221  10.157
45311SOL    HW137766   9.291   4.265  10.238
45311SOL    HW237767   9.337   4.238  10.096
45312SOL     OW37768   8.234   0.490   8.154
45312SOL    HW137769   8.326   0.483   8.182
45312SOL    HW237770   8.191   0.416   8.195
45313SOL     OW37771  14.006   2.170  10.068
45313SOL    HW137772  14.020   2.252  10.020
45313SOL    HW237773  14.053   2.183  10.150
45314SOL     OW37774   3.748   9.733   5.335
45314SOL    HW137775   3.796   9.800   5.286
45314SOL    HW237776   3.656   9.746   5.311
45315SOL     OW37777   8.072  13.154   2.652
45315SOL    HW137778   8.070  13.179   2.745
45315SOL    HW237779   8.049  13.234   2.605
45316SOL     OW37780   7.595   8.671  13.583
45316SOL    HW137781   7.652   8.723  13.527
45316SOL    HW237782   7.511   8.717  13.582
45317SOL     OW37783   9.602   7.310   7.738
45317SOL    HW137784   9.658   7.377   7.777
45317SOL    HW237785   9.622   7.231   7.787
45318SOL     OW37786   2.265   5.855   8.727
45318SOL    HW137787   2.353   5.823   8.747
45318SOL    HW237788   2.208   5.778   8.737
45319SOL     OW37789   9.002   6.521  13.091
45319SOL    HW137790   9.044   6.554  13.171
45319SOL    HW237791   8.909   6.543  13.103
45320SOL     OW37792  14.402   7.015  12.565
45320SOL    HW137793  14.397   6.963  12.645
45320SOL    HW237794  14.495   7.038  12.557
45321SOL     OW37795   3.126   6.032   9.589
45321SOL    HW137796   3.209   6.077   9.597
45321SOL    HW237797   3.063   6.101   9.565
45322SOL     OW37798   0.365   2.513  11.669
45322SOL    HW137799   0.334   2.516  11.579
45322SOL    HW237800   0.460   2.503  11.662
45323SOL     OW37801   6.526   9.799   2.585
45323SOL    HW137802   6.537   9.800   2.490
45323SOL    HW237803   6.447   9.746   2.599
45324SOL     OW37804   4.764  14.457   6.816
45324SOL    HW137805   4.848  14.418   6.795
45324SOL    HW237806   4.766  14.543   6.775
45325SOL     OW37807   4.565  10.354  14.252
45325SOL    HW137808   4.532  10.411  14.182
45325SOL    HW237809   4.619  10.412  14.306
45326SOL     OW37810   0.745   8.311   2.849
45326SOL    HW137811   0.758   8.217   2.865
45326SOL    HW237812   0.769   8.353   2.932
45327SOL     OW37813   6.179   7.694   0.324
45327SOL    HW137814   6.150   7.607   0.296
45327SOL    HW237815   6.274   7.689   0.320
45328SOL     OW37816   9.991   5.886  12.055
45328SOL    HW137817   9.978   5.877  12.150
45328SOL    HW237818   9.960   5.803  12.019
45329SOL     OW37819   2.110  12.247   2.669
45329SOL    HW137820   2.195  12.216   2.701
45329SOL    HW237821   2.093  12.326   2.720
45330SOL     OW37822   3.108   9.189   4.215
45330SOL    HW137823   3.147   9.254   4.274
45330SOL    HW237824   3.168   9.185   4.141
45331SOL     OW37825  12.863   2.430   5.916
45331SOL    HW137826  12.855   2.519   5.950
45331SOL    HW237827  12.924   2.387   5.976
45332SOL     OW37828  10.019   9.466  12.939
45332SOL    HW137829  10.029   9.518  12.860
45332SOL    HW237830   9.949   9.404  12.918
45333SOL     OW37831   9.920  11.452   9.724
45333SOL    HW137832   9.926  11.538   9.681
45333SOL    HW237833   9.919  11.389   9.652
45334SOL     OW37834   3.643   0.513   6.566
45334SOL    HW137835   3.561   0.549   6.534
45334SOL    HW237836   3.685   0.585   6.614
45335SOL     OW37837  11.903   5.609   6.300
45335SOL    HW137838  11.900   5.695   6.258
45335SOL    HW237839  11.819   5.601   6.344
45336SOL     OW37840  14.646   1.204   4.689
45336SOL    HW137841  14.612   1.115   4.694
45336SOL    HW237842  14.702   1.204   4.612
45337SOL     OW37843   0.826   2.219  14.242
45337SOL    HW137844   0.854   2.281  14.310
45337SOL    HW237845   0.908   2.187  14.204
45338SOL     OW37846  10.175  12.588   9.186
45338SOL    HW137847  10.132  12.543   9.114
45338SOL    HW237848  10.218  12.664   9.146
45339SOL     OW37849   1.834   4.860   4.980
45339SOL    HW137850   1.903   4.923   4.997
45339SOL    HW237851   1.867   4.806   4.908
45340SOL     OW37852  14.137   3.570  11.288
45340SOL    HW137853  14.062   3.626  11.266
45340SOL    HW237854  14.214   3.623  11.265
45341SOL     OW37855   5.000  12.932   1.491
45341SOL    HW137856   4.919  12.913   1.539
45341SOL    HW237857   5.066  12.876   1.532
45342SOL     OW37858   8.558   6.470   2.643
45342SOL    HW137859   8.550   6.425   2.559
45342SOL    HW237860   8.496   6.423   2.700
45343SOL     OW37861  14.235   9.980   5.105
45343SOL    HW137862  14.276   9.935   5.180
45343SOL    HW237863  14.234   9.914   5.036
45344SOL     OW37864  10.182   0.969  10.574
45344SOL    HW137865  10.197   0.912  10.649
45344SOL    HW237866  10.240   1.044  10.588
45345SOL     OW37867   4.245  11.590  10.339
45345SOL    HW137868   4.246  11.543  10.255
45345SOL    HW237869   4.249  11.682  10.314
45346SOL     OW37870  10.846   0.197   8.966
45346SOL    HW137871  10.927   0.187   8.916
45346SOL    HW237872  10.858   0.140   9.042
45347SOL     OW37873   4.724  14.358   7.213
45347SOL    HW137874   4.698  14.446   7.240
45347SOL    HW237875   4.648  14.322   7.168
45348SOL     OW37876  13.856   7.063   2.991
45348SOL    HW137877  13.807   6.981   2.998
45348SOL    HW237878  13.935   7.048   3.044
45349SOL     OW37879   2.181   7.803  13.532
45349SOL    HW137880   2.109   7.829  13.474
45349SOL    HW237881   2.259   7.840  13.492
45350SOL     OW37882   1.584   7.813   5.059
45350SOL    HW137883   1.679   7.800   5.063
45350SOL    HW237884   1.569   7.888   5.117
45351SOL     OW37885   6.149   5.337  11.826
45351SOL    HW137886   6.213   5.295  11.769
45351SOL    HW237887   6.090   5.383  11.767
45352SOL     OW37888   6.483  11.914   9.960
45352SOL    HW137889   6.514  11.938  10.047
45352SOL    HW237890   6.395  11.879   9.975
45353SOL     OW37891   7.422   5.359   9.631
45353SOL    HW137892   7.449   5.278   9.589
45353SOL    HW237893   7.344   5.387   9.584
45354SOL     OW37894   2.855  12.130   6.542
45354SOL    HW137895   2.949  12.110   6.537
45354SOL    HW237896   2.824  12.123   6.452
45355SOL     OW37897   0.632   1.466   8.299
45355SOL    HW137898   0.543   1.446   8.269
45355SOL    HW237899   0.633   1.436   8.390
45356SOL     OW37900   7.980   8.145  10.994
45356SOL    HW137901   7.972   8.148  11.090
45356SOL    HW237902   8.045   8.213  10.974
45357SOL     OW37903  11.048   0.713   1.921
45357SOL    HW137904  10.975   0.699   1.982
45357SOL    HW237905  11.126   0.709   1.976
45358SOL     OW37906   8.329   5.729   0.293
45358SOL    HW137907   8.325   5.820   0.262
45358SOL    HW237908   8.290   5.732   0.380
45359SOL     OW37909  11.342   2.990   0.121
45359SOL    HW137910  11.422   3.040   0.102
45359SOL    HW237911  11.360   2.902   0.089
45360SOL     OW37912  13.435   2.249   8.198
45360SOL    HW137913  13.412   2.204   8.117
45360SOL    HW237914  13.414   2.341   8.182
45361SOL     OW37915  12.045   2.290   6.959
45361SOL    HW137916  12.003   2.306   7.044
45361SOL    HW237917  12.136   2.318   6.972
45362SOL     OW37918   3.499   3.567   8.466
45362SOL    HW137919   3.512   3.592   8.375
45362SOL    HW237920   3.407   3.586   8.484
45363SOL     OW37921  10.609  11.473  10.406
45363SOL    HW137922  10.658  11.554  10.420
45363SOL    HW237923  10.565  11.455  10.489
45364SOL     OW37924  10.301   0.315  11.662
45364SOL    HW137925  10.363   0.272  11.604
45364SOL    HW237926  10.233   0.350  11.604
45365SOL     OW37927  14.807   7.342  10.542
45365SOL    HW137928  14.816   7.265  10.486
45365SOL    HW237929  14.724   7.382  10.514
45366SOL     OW37930   1.867  11.860   0.838
45366SOL    HW137931   1.855  11.810   0.757
45366SOL    HW237932   1.936  11.923   0.817
45367SOL     OW37933   0.094  14.397  11.147
45367SOL    HW137934   0.165  14.429  11.203
45367SOL    HW237935   0.116  14.431  11.060
45368SOL     OW37936   5.482   6.674   6.254
45368SOL    HW137937   5.466   6.764   6.281
45368SOL    HW237938   5.398   6.630   6.264
45369SOL     OW37939   1.744   4.055   9.980
45369SOL    HW137940   1.757   4.149   9.990
45369SOL    HW237941   1.832   4.019   9.970
45370SOL     OW37942  10.061  13.704   1.448
45370SOL    HW137943  10.127  13.680   1.513
45370SOL    HW237944  10.079  13.646   1.374
45371SOL     OW37945  10.023   5.729   8.494
45371SOL    HW137946  10.027   5.802   8.555
45371SOL    HW237947  10.072   5.659   8.537
45372SOL     OW37948  14.642   4.719  11.758
45372SOL    HW137949  14.580   4.647  11.770
45372SOL    HW237950  14.614   4.761  11.676
45373SOL     OW37951  14.314   4.862  12.248
45373SOL    HW137952  14.329   4.840  12.339
45373SOL    HW237953  14.285   4.953  12.249
45374SOL     OW37954   3.090   6.432   6.445
45374SOL    HW137955   3.012   6.488   6.448
45374SOL    HW237956   3.161   6.490   6.471
45375SOL     OW37957   9.367   2.716   4.562
45375SOL    HW137958   9.278   2.702   4.594
45375SOL    HW237959   9.398   2.629   4.537
45376SOL     OW37960   2.928  10.734   8.038
45376SOL    HW137961   2.955  10.816   7.995
45376SOL    HW237962   2.835  10.727   8.018
45377SOL     OW37963   7.283   8.485   1.710
45377SOL    HW137964   7.227   8.562   1.702
45377SOL    HW237965   7.283   8.447   1.622
45378SOL     OW37966  10.155   3.435   9.125
45378SOL    HW137967  10.116   3.374   9.062
45378SOL    HW237968  10.248   3.415   9.124
45379SOL     OW37969   3.112   6.893   4.180
45379SOL    HW137970   3.082   6.813   4.136
45379SOL    HW237971   3.189   6.920   4.131
45380SOL     OW37972   9.053   2.478   5.586
45380SOL    HW137973   8.971   2.528   5.584
45380SOL    HW237974   9.121   2.543   5.570
45381SOL     OW37975   9.549   2.117  14.478
45381SOL    HW137976   9.477   2.093  14.419
45381SOL    HW237977   9.531   2.207  14.503
45382SOL     OW37978   5.955   2.050  14.187
45382SOL    HW137979   5.910   2.087  14.111
45382SOL    HW237980   5.885   2.014  14.241
45383SOL     OW37981   7.834   0.600   9.847
45383SOL    HW137982   7.797   0.688   9.849
45383SOL    HW237983   7.928   0.613   9.863
45384SOL     OW37984   4.580   0.071  10.231
45384SOL    HW137985   4.668   0.108  10.238
45384SOL    HW237986   4.584  14.863  10.283
45385SOL     OW37987  11.759   2.244   0.790
45385SOL    HW137988  11.679   2.272   0.836
45385SOL    HW237989  11.825   2.309   0.815
45386SOL     OW37990  10.824  11.164   7.573
45386SOL    HW137991  10.832  11.234   7.638
45386SOL    HW237992  10.844  11.084   7.621
45387SOL     OW37993  14.648   4.423   3.339
45387SOL    HW137994  14.702   4.498   3.315
45387SOL    HW237995  14.711   4.355   3.361
45388SOL     OW37996   4.210   4.347  10.394
45388SOL    HW137997   4.207   4.255  10.420
45388SOL    HW237998   4.290   4.354  10.341
45389SOL     OW37999   1.138   2.019   2.752
45389SOL    HW138000   1.163   2.094   2.699
45389SOL    HW238001   1.214   1.961   2.749
45390SOL     OW38002  12.820   3.755   2.240
45390SOL    HW138003  12.768   3.833   2.220
45390SOL    HW238004  12.780   3.719   2.319
45391SOL     OW38005   9.137   9.982   8.112
45391SOL    HW138006   9.096   9.916   8.167
45391SOL    HW238007   9.078  10.058   8.118
45392SOL     OW38008   5.567  13.593   6.096
45392SOL    HW138009   5.582  13.556   6.183
45392SOL    HW238010   5.519  13.674   6.113
45393SOL     OW38011  11.117   7.823  12.879
45393SOL    HW138012  11.165   7.744  12.906
45393SOL    HW238013  11.029   7.812  12.915
45394SOL     OW38014  13.708  10.772  12.788
45394SOL    HW138015  13.798  10.769  12.819
45394SOL    HW238016  13.655  10.762  12.868
45395SOL     OW38017  10.410   4.512   0.206
45395SOL    HW138018  10.473   4.581   0.185
45395SOL    HW238019  10.325   4.550   0.182
45396SOL     OW38020   9.277  13.635  12.116
45396SOL    HW138021   9.248  13.573  12.049
45396SOL    HW238022   9.349  13.683  12.075
45397SOL     OW38023   4.202  11.037  10.503
45397SOL    HW138024   4.208  11.120  10.552
45397SOL    HW238025   4.272  10.983  10.539
45398SOL     OW38026   9.906   7.480  13.595
45398SOL    HW138027   9.991   7.493  13.636
45398SOL    HW238028   9.903   7.545  13.525
45399SOL     OW38029   6.980   2.253   6.209
45399SOL    HW138030   6.907   2.310   6.183
45399SOL    HW238031   7.008   2.213   6.127
45400SOL     OW38032  11.689  11.291   7.673
45400SOL    HW138033  11.622  11.326   7.615
45400SOL    HW238034  11.679  11.196   7.666
45401SOL     OW38035  12.967   4.788   5.159
45401SOL    HW138036  12.947   4.695   5.168
45401SOL    HW238037  12.887   4.825   5.121
45402SOL     OW38038   2.015   7.371   4.072
45402SOL    HW138039   2.068   7.451   4.063
45402SOL    HW238040   1.952   7.391   4.141
45403SOL     OW38041   6.810   9.038   6.454
45403SOL    HW138042   6.848   8.951   6.463
45403SOL    HW238043   6.718   9.026   6.480
45404SOL     OW38044   2.160   1.316   0.617
45404SOL    HW138045   2.080   1.267   0.638
45404SOL    HW238046   2.128   1.394   0.571
45405SOL     OW38047   9.063   1.846   7.417
45405SOL    HW138048   9.049   1.866   7.510
45405SOL    HW238049   8.977   1.820   7.385
45406SOL     OW38050  12.026   5.773   7.204
45406SOL    HW138051  11.997   5.823   7.128
45406SOL    HW238052  12.073   5.836   7.259
45407SOL     OW38053  14.702   1.270   3.759
45407SOL    HW138054  14.737   1.347   3.805
45407SOL    HW238055  14.648   1.226   3.825
45408SOL     OW38056   2.854   4.167   4.774
45408SOL    HW138057   2.949   4.170   4.760
45408SOL    HW238058   2.845   4.133   4.864
45409SOL     OW38059  14.679  13.518   1.759
45409SOL    HW138060  14.597  13.484   1.796
45409SOL    HW238061  14.704  13.452   1.695
45410SOL     OW38062   5.981  12.785   8.781
45410SOL    HW138063   6.035  12.707   8.775
45410SOL    HW238064   5.895  12.752   8.807
45411SOL     OW38065  13.810   5.637   2.959
45411SOL    HW138066  13.821   5.565   3.020
45411SOL    HW238067  13.715   5.646   2.949
45412SOL     OW38068  11.570   0.751  12.601
45412SOL    HW138069  11.583   0.701  12.681
45412SOL    HW238070  11.514   0.695  12.546
45413SOL     OW38071   4.186   9.160   4.105
45413SOL    HW138072   4.263   9.208   4.075
45413SOL    HW238073   4.217   9.108   4.179
45414SOL     OW38074  14.710  10.965   5.457
45414SOL    HW138075  14.722  11.059   5.444
45414SOL    HW238076  14.687  10.932   5.370
45415SOL     OW38077   7.979   4.055   0.785
45415SOL    HW138078   7.902   4.017   0.744
45415SOL    HW238079   7.952   4.144   0.809
45416SOL     OW38080  13.578   6.126   7.486
45416SOL    HW138081  13.492   6.156   7.516
45416SOL    HW238082  13.566   6.033   7.467
45417SOL     OW38083   1.836   5.707   8.781
45417SOL    HW138084   1.757   5.723   8.728
45417SOL    HW238085   1.802   5.696   8.870
45418SOL     OW38086   7.729   2.503   5.736
45418SOL    HW138087   7.695   2.546   5.658
45418SOL    HW238088   7.820   2.482   5.715
45419SOL     OW38089  12.590  11.066  12.698
45419SOL    HW138090  12.639  11.068  12.616
45419SOL    HW238091  12.623  10.988  12.743
45420SOL     OW38092   4.551  12.296   6.658
45420SOL    HW138093   4.569  12.382   6.621
45420SOL    HW238094   4.465  12.273   6.625
45421SOL     OW38095   3.638  10.200   0.272
45421SOL    HW138096   3.679  10.113   0.265
45421SOL    HW238097   3.636  10.218   0.365
45422SOL     OW38098   5.068   7.124  13.877
45422SOL    HW138099   4.996   7.068  13.903
45422SOL    HW238100   5.082   7.183  13.951
45423SOL     OW38101   7.483   1.656   7.266
45423SOL    HW138102   7.534   1.735   7.286
45423SOL    HW238103   7.392   1.682   7.281
45424SOL     OW38104  10.843   0.723   0.681
45424SOL    HW138105  10.843   0.628   0.690
45424SOL    HW238106  10.813   0.755   0.766
45425SOL     OW38107   8.506   5.932   0.070
45425SOL    HW138108   8.463   5.879   0.003
45425SOL    HW238109   8.484   6.022   0.049
45426SOL     OW38110  14.007  10.578   5.537
45426SOL    HW138111  13.975  10.495   5.572
45426SOL    HW238112  13.935  10.639   5.550
45427SOL     OW38113   9.213   4.888  11.442
45427SOL    HW138114   9.212   4.888  11.347
45427SOL    HW238115   9.202   4.980  11.467
45428SOL     OW38116   6.691   1.728   4.647
45428SOL    HW138117   6.672   1.723   4.554
45428SOL    HW238118   6.606   1.740   4.689
45429SOL     OW38119   9.170   4.361   3.705
45429SOL    HW138120   9.177   4.438   3.762
45429SOL    HW238121   9.226   4.296   3.748
45430SOL     OW38122  10.207  14.694   4.015
45430SOL    HW138123  10.191  14.600   4.022
45430SOL    HW238124  10.208  14.725   4.105
45431SOL     OW38125   3.098   6.801  10.282
45431SOL    HW138126   3.030   6.824  10.219
45431SOL    HW238127   3.152   6.880  10.289
45432SOL     OW38128   3.701   7.607   1.050
45432SOL    HW138129   3.779   7.652   1.016
45432SOL    HW238130   3.727   7.575   1.136
45433SOL     OW38131   4.027  13.232   2.703
45433SOL    HW138132   3.992  13.311   2.744
45433SOL    HW238133   3.964  13.210   2.634
45434SOL     OW38134   4.714   1.887   8.138
45434SOL    HW138135   4.658   1.839   8.199
45434SOL    HW238136   4.673   1.973   8.129
45435SOL     OW38137   9.333   3.086  11.652
45435SOL    HW138138   9.422   3.107  11.623
45435SOL    HW238139   9.317   2.998  11.617
45436SOL     OW38140  11.310  10.503  11.072
45436SOL    HW138141  11.400  10.471  11.081
45436SOL    HW238142  11.318  10.581  11.016
45437SOL     OW38143  12.319   2.963  13.614
45437SOL    HW138144  12.334   2.952  13.520
45437SOL    HW238145  12.349   2.881  13.653
45438SOL     OW38146   8.506   9.454  14.642
45438SOL    HW138147   8.490   9.497  14.726
45438SOL    HW238148   8.428   9.402  14.627
45439SOL     OW38149   0.626  14.192   0.696
45439SOL    HW138150   0.556  14.230   0.748
45439SOL    HW238151   0.690  14.264   0.686
45440SOL     OW38152   4.963   7.186   2.057
45440SOL    HW138153   5.028   7.150   1.997
45440SOL    HW238154   5.012   7.252   2.107
45441SOL     OW38155   7.597  13.844   9.466
45441SOL    HW138156   7.530  13.830   9.399
45441SOL    HW238157   7.552  13.892   9.535
45442SOL     OW38158   3.915  13.194  10.568
45442SOL    HW138159   3.950  13.278  10.598
45442SOL    HW238160   3.885  13.211  10.479
45443SOL     OW38161   3.037   1.886   1.604
45443SOL    HW138162   3.101   1.932   1.660
45443SOL    HW238163   3.055   1.793   1.618
45444SOL     OW38164  11.225   1.316   1.267
45444SOL    HW138165  11.177   1.237   1.239
45444SOL    HW238166  11.174   1.350   1.340
45445SOL     OW38167   6.929  12.216   9.650
45445SOL    HW138168   6.921  12.222   9.745
45445SOL    HW238169   6.843  12.186   9.620
45446SOL     OW38170  12.290   3.867   9.418
45446SOL    HW138171  12.344   3.946   9.415
45446SOL    HW238172  12.239   3.876   9.498
45447SOL     OW38173   1.132   1.663   4.672
45447SOL    HW138174   1.052   1.656   4.619
45447SOL    HW238175   1.101   1.685   4.759
45448SOL     OW38176  10.282   8.085  10.219
45448SOL    HW138177  10.303   8.009  10.164
45448SOL    HW238178  10.221   8.136  10.166
45449SOL     OW38179   6.269  14.557   9.456
45449SOL    HW138180   6.213  14.485   9.486
45449SOL    HW238181   6.209  14.632   9.447
45450SOL     OW38182   5.869   0.483   5.250
45450SOL    HW138183   5.866   0.413   5.315
45450SOL    HW238184   5.844   0.441   5.168
45451SOL     OW38185   3.850   0.562  10.794
45451SOL    HW138186   3.916   0.612  10.842
45451SOL    HW238187   3.791   0.529  10.862
45452SOL     OW38188   4.912  11.442   3.971
45452SOL    HW138189   4.940  11.383   3.901
45452SOL    HW238190   4.958  11.410   4.049
45453SOL     OW38191  14.400   3.853   7.430
45453SOL    HW138192  14.333   3.892   7.373
45453SOL    HW238193  14.471   3.917   7.431
45454SOL     OW38194   8.224   9.285   4.961
45454SOL    HW138195   8.135   9.260   4.937
45454SOL    HW238196   8.274   9.281   4.879
45455SOL     OW38197  11.684  13.767   0.014
45455SOL    HW138198  11.774  13.799   0.013
45455SOL    HW238199  11.691  13.674   0.037
45456SOL     OW38200   8.134   0.970  12.917
45456SOL    HW138201   8.131   0.965  13.012
45456SOL    HW238202   8.223   0.941  12.895
45457SOL     OW38203   6.985  10.065   6.951
45457SOL    HW138204   7.078  10.044   6.957
45457SOL    HW238205   6.972  10.091   6.860
45458SOL     OW38206  10.118  10.797   1.096
45458SOL    HW138207  10.108  10.807   1.001
45458SOL    HW238208  10.212  10.806   1.111
45459SOL     OW38209  11.610   5.011  13.829
45459SOL    HW138210  11.644   4.922  13.817
45459SOL    HW238211  11.552   5.024  13.754
45460SOL     OW38212   9.579  12.152  10.835
45460SOL    HW138213   9.647  12.188  10.779
45460SOL    HW238214   9.616  12.071  10.869
45461SOL     OW38215   1.352   0.410   0.139
45461SOL    HW138216   1.297   0.464   0.196
45461SOL    HW238217   1.386   0.341   0.195
45462SOL     OW38218  11.469   2.402   1.746
45462SOL    HW138219  11.483   2.307   1.744
45462SOL    HW238220  11.550   2.439   1.711
45463SOL     OW38221  13.065  12.987   0.989
45463SOL    HW138222  13.151  13.010   1.025
45463SOL    HW238223  13.007  13.057   1.020
45464SOL     OW38224   4.364   0.621   6.112
45464SOL    HW138225   4.447   0.648   6.074
45464SOL    HW238226   4.372   0.641   6.205
45465SOL     OW38227   8.829  11.739   5.983
45465SOL    HW138228   8.920  11.764   5.970
45465SOL    HW238229   8.822  11.725   6.078
45466SOL     OW38230   9.523   2.408  12.985
45466SOL    HW138231   9.440   2.434  13.023
45466SOL    HW238232   9.530   2.458  12.904
45467SOL     OW38233   4.593   6.891   5.941
45467SOL    HW138234   4.603   6.969   5.995
45467SOL    HW238235   4.645   6.908   5.863
45468SOL     OW38236   4.125  13.303   9.481
45468SOL    HW138237   4.164  13.352   9.554
45468SOL    HW238238   4.063  13.243   9.523
45469SOL     OW38239  10.180   5.052   0.458
45469SOL    HW138240  10.221   4.969   0.433
45469SOL    HW238241  10.216   5.070   0.545
45470SOL     OW38242   8.937  12.227   5.494
45470SOL    HW138243   9.026  12.244   5.462
45470SOL    HW238244   8.917  12.302   5.550
45471SOL     OW38245   8.446  13.184  12.726
45471SOL    HW138246   8.533  13.170  12.763
45471SOL    HW238247   8.461  13.237  12.648
45472SOL     OW38248   7.330   6.130   6.563
45472SOL    HW138249   7.256   6.100   6.614
45472SOL    HW238250   7.325   6.079   6.482
45473SOL     OW38251  10.424   9.233   3.178
45473SOL    HW138252  10.349   9.277   3.138
45473SOL    HW238253  10.501   9.279   3.143
45474SOL     OW38254   1.739   3.272   7.897
45474SOL    HW138255   1.684   3.302   7.970
45474SOL    HW238256   1.816   3.328   7.901
45475SOL     OW38257   4.382  12.935  14.779
45475SOL    HW138258   4.327  12.857  14.786
45475SOL    HW238259   4.428  12.939  14.863
45476SOL     OW38260  13.300   4.657   6.141
45476SOL    HW138261  13.266   4.746   6.151
45476SOL    HW238262  13.230   4.610   6.094
45477SOL     OW38263  10.411   2.920   0.019
45477SOL    HW138264  10.338   2.982   0.022
45477SOL    HW238265  10.466   2.944   0.093
45478SOL     OW38266  14.372  14.344   5.534
45478SOL    HW138267  14.316  14.334   5.457
45478SOL    HW238268  14.313  14.375   5.603
45479SOL     OW38269   8.352   7.459  13.039
45479SOL    HW138270   8.369   7.552  13.055
45479SOL    HW238271   8.418   7.433  12.975
45480SOL     OW38272   1.725   2.097   1.565
45480SOL    HW138273   1.715   2.002   1.573
45480SOL    HW238274   1.744   2.111   1.472
45481SOL     OW38275   8.969   0.475  12.209
45481SOL    HW138276   9.021   0.530  12.267
45481SOL    HW238277   9.004   0.493  12.122
45482SOL     OW38278  12.741  14.448  11.995
45482SOL    HW138279  12.812  14.507  12.019
45482SOL    HW238280  12.661  14.493  12.023
45483SOL     OW38281  12.249  12.529  12.048
45483SOL    HW138282  12.268  12.470  11.974
45483SOL    HW238283  12.335  12.546  12.087
45484SOL     OW38284  12.782   1.823   5.546
45484SOL    HW138285  12.717   1.770   5.500
45484SOL    HW238286  12.859   1.767   5.551
45485SOL     OW38287   8.354  10.711   3.673
45485SOL    HW138288   8.387  10.710   3.763
45485SOL    HW238289   8.422  10.758   3.624
45486SOL     OW38290   5.475  13.177  12.080
45486SOL    HW138291   5.538  13.105  12.075
45486SOL    HW238292   5.410  13.156  12.013
45487SOL     OW38293   0.403  12.496   5.204
45487SOL    HW138294   0.458  12.477   5.281
45487SOL    HW238295   0.329  12.544   5.240
45488SOL     OW38296   8.875   1.592  10.073
45488SOL    HW138297   8.879   1.539  10.153
45488SOL    HW238298   8.920   1.539  10.008
45489SOL     OW38299   2.157   9.845  12.249
45489SOL    HW138300   2.097   9.842  12.324
45489SOL    HW238301   2.143   9.932  12.212
45490SOL     OW38302   1.216  13.426   2.385
45490SOL    HW138303   1.162  13.494   2.424
45490SOL    HW238304   1.217  13.355   2.449
45491SOL     OW38305   5.432   7.369  11.923
45491SOL    HW138306   5.496   7.410  11.982
45491SOL    HW238307   5.469   7.282  11.905
45492SOL     OW38308   5.939   0.261   7.300
45492SOL    HW138309   6.027   0.298   7.286
45492SOL    HW238310   5.902   0.314   7.371
45493SOL     OW38311   5.116  10.747  10.894
45493SOL    HW138312   5.059  10.792  10.957
45493SOL    HW238313   5.187  10.809  10.878
45494SOL     OW38314  14.392   4.138  11.752
45494SOL    HW138315  14.429   4.101  11.672
45494SOL    HW238316  14.370   4.228  11.729
45495SOL     OW38317  14.454   6.047  13.528
45495SOL    HW138318  14.458   6.115  13.596
45495SOL    HW238319  14.543   6.041  13.494
45496SOL     OW38320  11.463  14.740  14.601
45496SOL    HW138321  11.477  14.789  14.520
45496SOL    HW238322  11.379  14.772  14.635
45497SOL     OW38323   8.866  13.156   3.898
45497SOL    HW138324   8.902  13.244   3.906
45497SOL    HW238325   8.942  13.099   3.885
45498SOL     OW38326   1.462   1.324   0.363
45498SOL    HW138327   1.504   1.382   0.300
45498SOL    HW238328   1.401   1.380   0.411
45499SOL     OW38329   4.520  13.895   9.600
45499SOL    HW138330   4.596  13.873   9.653
45499SOL    HW238331   4.508  13.989   9.612
45500SOL     OW38332   0.558  10.217  11.106
45500SOL    HW138333   0.601  10.132  11.095
45500SOL    HW238334   0.582  10.267  11.029
45501SOL     OW38335  13.790   7.980   5.034
45501SOL    HW138336  13.860   8.044   5.051
45501SOL    HW238337  13.738   7.981   5.114
45502SOL     OW38338   3.310   7.663   1.651
45502SOL    HW138339   3.297   7.757   1.662
45502SOL    HW238340   3.339   7.632   1.737
45503SOL     OW38341   6.947   8.848   4.823
45503SOL    HW138342   6.904   8.897   4.754
45503SOL    HW238343   6.939   8.903   4.901
45504SOL     OW38344   8.048   9.644   5.841
45504SOL    HW138345   7.981   9.658   5.774
45504SOL    HW238346   8.009   9.580   5.901
45505SOL     OW38347  10.407   0.016   3.434
45505SOL    HW138348  10.383   0.107   3.415
45505SOL    HW238349  10.476  14.868   3.372
45506SOL     OW38350  10.810   9.166  13.515
45506SOL    HW138351  10.831   9.167  13.422
45506SOL    HW238352  10.762   9.084  13.528
45507SOL     OW38353  12.417   8.057   0.844
45507SOL    HW138354  12.452   8.014   0.766
45507SOL    HW238355  12.493   8.095   0.887
45508SOL     OW38356  13.162   7.651   7.429
45508SOL    HW138357  13.157   7.733   7.379
45508SOL    HW238358  13.160   7.583   7.362
45509SOL     OW38359   3.959   3.885   4.116
45509SOL    HW138360   4.042   3.855   4.154
45509SOL    HW238361   3.892   3.854   4.176
45510SOL     OW38362   5.428   5.114  14.063
45510SOL    HW138363   5.476   5.134  13.982
45510SOL    HW238364   5.464   5.031  14.094
45511SOL     OW38365   6.531   0.194   3.052
45511SOL    HW138366   6.546   0.156   2.966
45511SOL    HW238367   6.605   0.165   3.105
45512SOL     OW38368   3.052  11.173  12.533
45512SOL    HW138369   3.093  11.114  12.469
45512SOL    HW238370   3.100  11.256  12.523
45513SOL     OW38371   0.591   2.936   4.875
45513SOL    HW138372   0.632   2.977   4.799
45513SOL    HW238373   0.506   2.906   4.844
45514SOL     OW38374   8.114   7.208  13.908
45514SOL    HW138375   8.204   7.217  13.941
45514SOL    HW238376   8.114   7.254  13.824
45515SOL     OW38377   2.993   6.144   3.534
45515SOL    HW138378   3.073   6.092   3.541
45515SOL    HW238379   2.945   6.105   3.461
45516SOL     OW38380   2.788  11.078   5.005
45516SOL    HW138381   2.848  11.009   5.035
45516SOL    HW238382   2.803  11.084   4.911
45517SOL     OW38383   5.121   8.819   7.027
45517SOL    HW138384   5.176   8.745   7.052
45517SOL    HW238385   5.126   8.821   6.931
45518SOL     OW38386  11.320  14.426   8.898
45518SOL    HW138387  11.311  14.376   8.816
45518SOL    HW238388  11.339  14.515   8.870
45519SOL     OW38389   1.985   1.708   5.137
45519SOL    HW138390   2.074   1.675   5.147
45519SOL    HW238391   1.948   1.654   5.067
45520SOL     OW38392   1.781   0.810  12.574
45520SOL    HW138393   1.748   0.749  12.508
45520SOL    HW238394   1.706   0.865  12.596
45521SOL     OW38395   2.782  11.757   2.992
45521SOL    HW138396   2.728  11.789   3.065
45521SOL    HW238397   2.871  11.783   3.015
45522SOL     OW38398  12.508   0.239   4.411
45522SOL    HW138399  12.444   0.309   4.425
45522SOL    HW238400  12.593   0.281   4.427
45523SOL     OW38401   3.916   7.673   5.718
45523SOL    HW138402   3.852   7.707   5.780
45523SOL    HW238403   3.937   7.586   5.750
45524SOL     OW38404   2.012   8.190   8.196
45524SOL    HW138405   2.100   8.191   8.158
45524SOL    HW238406   1.996   8.098   8.215
45525SOL     OW38407   9.878  14.056  10.742
45525SOL    HW138408   9.886  14.090  10.653
45525SOL    HW238409   9.871  14.133  10.798
45526SOL     OW38410  11.620  12.085  10.718
45526SOL    HW138411  11.639  11.996  10.749
45526SOL    HW238412  11.577  12.127  10.793
45527SOL     OW38413  13.273   4.897   9.343
45527SOL    HW138414  13.342   4.832   9.352
45527SOL    HW238415  13.232   4.902   9.429
45528SOL     OW38416   4.684   1.393   6.194
45528SOL    HW138417   4.725   1.448   6.128
45528SOL    HW238418   4.724   1.307   6.183
45529SOL     OW38419   4.881   6.411   9.429
45529SOL    HW138420   4.822   6.342   9.400
45529SOL    HW238421   4.939   6.427   9.354
45530SOL     OW38422   4.380  10.879   4.834
45530SOL    HW138423   4.412  10.968   4.825
45530SOL    HW238424   4.420  10.831   4.761
45531SOL     OW38425   4.969   6.791  13.762
45531SOL    HW138426   4.923   6.865  13.722
45531SOL    HW238427   5.001   6.740  13.689
45532SOL     OW38428  11.885  12.834   5.571
45532SOL    HW138429  11.841  12.750   5.583
45532SOL    HW238430  11.827  12.883   5.512
45533SOL     OW38431   9.765   9.814  13.486
45533SOL    HW138432   9.752   9.720  13.498
45533SOL    HW238433   9.742   9.830  13.395
45534SOL     OW38434   0.370  14.317  13.951
45534SOL    HW138435   0.379  14.297  14.044
45534SOL    HW238436   0.410  14.403  13.940
45535SOL     OW38437  14.655  11.367  14.446
45535SOL    HW138438  14.593  11.329  14.508
45535SOL    HW238439  14.732  11.388  14.498
45536SOL     OW38440   2.743  14.663   3.919
45536SOL    HW138441   2.692  14.656   3.838
45536SOL    HW238442   2.831  14.635   3.894
45537SOL     OW38443   5.047   7.993   7.831
45537SOL    HW138444   5.104   7.930   7.788
45537SOL    HW238445   5.095   8.076   7.827
45538SOL     OW38446   4.427  12.429   1.319
45538SOL    HW138447   4.353  12.484   1.345
45538SOL    HW238448   4.386  12.348   1.290
45539SOL     OW38449   8.024   3.663   1.133
45539SOL    HW138450   8.114   3.689   1.114
45539SOL    HW238451   7.987   3.640   1.048
45540SOL     OW38452  10.847   7.935   5.205
45540SOL    HW138453  10.763   7.938   5.160
45540SOL    HW238454  10.895   7.864   5.164
45541SOL     OW38455   8.090  11.323  11.219
45541SOL    HW138456   8.132  11.293  11.300
45541SOL    HW238457   8.007  11.360  11.248
45542SOL     OW38458   8.587  12.229  10.731
45542SOL    HW138459   8.617  12.228  10.640
45542SOL    HW238460   8.576  12.136  10.754
45543SOL     OW38461   7.466   5.185  13.739
45543SOL    HW138462   7.382   5.193  13.784
45543SOL    HW238463   7.468   5.095  13.706
45544SOL     OW38464  11.167  14.441   3.640
45544SOL    HW138465  11.087  14.412   3.683
45544SOL    HW238466  11.233  14.377   3.665
45545SOL     OW38467   6.608   2.732   1.568
45545SOL    HW138468   6.641   2.653   1.611
45545SOL    HW238469   6.540   2.700   1.509
45546SOL     OW38470   0.383  13.976   4.317
45546SOL    HW138471   0.411  13.887   4.298
45546SOL    HW238472   0.429  14.000   4.397
45547SOL     OW38473   8.520  14.062   4.760
45547SOL    HW138474   8.595  14.071   4.701
45547SOL    HW238475   8.448  14.103   4.713
45548SOL     OW38476   6.288   7.783  14.443
45548SOL    HW138477   6.202   7.742  14.436
45548SOL    HW238478   6.325   7.749  14.525
45549SOL     OW38479   4.525  10.714   4.653
45549SOL    HW138480   4.581  10.791   4.641
45549SOL    HW238481   4.579  10.640   4.627
45550SOL     OW38482   9.824  13.824   2.473
45550SOL    HW138483   9.869  13.835   2.557
45550SOL    HW238484   9.886  13.777   2.419
45551SOL     OW38485   0.502  13.871  10.523
45551SOL    HW138486   0.583  13.871  10.573
45551SOL    HW238487   0.438  13.912  10.581
45552SOL     OW38488   0.673   1.324   9.460
45552SOL    HW138489   0.697   1.308   9.369
45552SOL    HW238490   0.594   1.272   9.473
45553SOL     OW38491   8.314   7.033   4.784
45553SOL    HW138492   8.287   7.094   4.715
45553SOL    HW238493   8.300   7.081   4.865
45554SOL     OW38494   8.849  10.697   0.170
45554SOL    HW138495   8.775  10.679   0.112
45554SOL    HW238496   8.859  10.617   0.221
45555SOL     OW38497   3.581  11.039  13.755
45555SOL    HW138498   3.565  11.107  13.820
45555SOL    HW238499   3.662  11.067  13.711
45556SOL     OW38500   3.931   3.074   0.212
45556SOL    HW138501   3.898   3.014   0.145
45556SOL    HW238502   3.857   3.085   0.272
45557SOL     OW38503  14.697   1.427   7.341
45557SOL    HW138504  14.775   1.371   7.339
45557SOL    HW238505  14.731   1.515   7.324
45558SOL     OW38506   7.314  13.404  11.631
45558SOL    HW138507   7.339  13.315  11.606
45558SOL    HW238508   7.274  13.395  11.718
45559SOL     OW38509   3.943   8.551  11.149
45559SOL    HW138510   4.007   8.603  11.197
45559SOL    HW238511   3.861   8.600  11.158
45560SOL     OW38512   8.890   5.951   3.228
45560SOL    HW138513   8.862   6.000   3.150
45560SOL    HW238514   8.889   5.859   3.201
45561SOL     OW38515   6.707  12.655  10.791
45561SOL    HW138516   6.720  12.583  10.853
45561SOL    HW238517   6.687  12.730  10.846
45562SOL     OW38518   3.411   2.749   1.620
45562SOL    HW138519   3.319   2.758   1.643
45562SOL    HW238520   3.419   2.659   1.588
45563SOL     OW38521   0.697   7.244   0.971
45563SOL    HW138522   0.777   7.249   0.920
45563SOL    HW238523   0.709   7.167   1.027
45564SOL     OW38524  14.017   9.397   7.729
45564SOL    HW138525  14.112   9.389   7.719
45564SOL    HW238526  13.983   9.392   7.640
45565SOL     OW38527   2.442  13.767   1.142
45565SOL    HW138528   2.485  13.789   1.059
45565SOL    HW238529   2.419  13.675   1.133
45566SOL     OW38530   3.699   4.962   6.668
45566SOL    HW138531   3.679   4.952   6.574
45566SOL    HW238532   3.720   4.874   6.697
45567SOL     OW38533   3.621  12.042  11.934
45567SOL    HW138534   3.677  12.111  11.970
45567SOL    HW238535   3.634  11.968  11.992
45568SOL     OW38536   3.463   1.183  14.664
45568SOL    HW138537   3.406   1.248  14.623
45568SOL    HW238538   3.536   1.233  14.699
45569SOL     OW38539   3.792   6.308   9.309
45569SOL    HW138540   3.732   6.351   9.249
45569SOL    HW238541   3.856   6.265   9.253
45570SOL     OW38542   2.641  11.048  11.889
45570SOL    HW138543   2.637  11.063  11.795
45570SOL    HW238544   2.598  11.124  11.928
45571SOL     OW38545   1.540  14.741  11.369
45571SOL    HW138546   1.614  14.683  11.353
45571SOL    HW238547   1.512  14.769  11.282
45572SOL     OW38548   2.538   3.608   7.481
45572SOL    HW138549   2.613   3.648   7.436
45572SOL    HW238550   2.482   3.577   7.411
45573SOL     OW38551   1.961   3.933   6.881
45573SOL    HW138552   1.968   3.990   6.805
45573SOL    HW238553   1.906   3.982   6.943
45574SOL     OW38554   1.070   5.136  11.780
45574SOL    HW138555   1.113   5.058  11.745
45574SOL    HW238556   1.135   5.205  11.768
45575SOL     OW38557   9.287  12.244   8.919
45575SOL    HW138558   9.215  12.217   8.976
45575SOL    HW238559   9.256  12.225   8.830
45576SOL     OW38560  11.932   8.805   5.116
45576SOL    HW138561  11.928   8.876   5.052
45576SOL    HW238562  12.016   8.763   5.100
45577SOL     OW38563  10.513  11.611   8.447
45577SOL    HW138564  10.565  11.537   8.479
45577SOL    HW238565  10.428  11.601   8.490
45578SOL     OW38566  10.742   4.619  12.830
45578SOL    HW138567  10.684   4.629  12.905
45578SOL    HW238568  10.818   4.674  12.850
45579SOL     OW38569   3.700   7.765   7.261
45579SOL    HW138570   3.689   7.799   7.172
45579SOL    HW238571   3.614   7.729   7.284
45580SOL     OW38572  12.740   8.529   6.140
45580SOL    HW138573  12.757   8.545   6.232
45580SOL    HW238574  12.645   8.523   6.133
45581SOL     OW38575   1.385   9.467   3.822
45581SOL    HW138576   1.437   9.527   3.876
45581SOL    HW238577   1.450   9.418   3.771
45582SOL     OW38578  13.609  11.528   5.196
45582SOL    HW138579  13.694  11.485   5.189
45582SOL    HW238580  13.598  11.546   5.289
45583SOL     OW38581   2.535   6.578   1.339
45583SOL    HW138582   2.505   6.665   1.312
45583SOL    HW238583   2.617   6.594   1.385
45584SOL     OW38584  11.631   0.453   0.687
45584SOL    HW138585  11.595   0.406   0.612
45584SOL    HW238586  11.622   0.545   0.664
45585SOL     OW38587   6.605   8.818   8.168
45585SOL    HW138588   6.598   8.833   8.074
45585SOL    HW238589   6.515   8.801   8.196
45586SOL     OW38590  13.246   2.339   0.294
45586SOL    HW138591  13.295   2.403   0.345
45586SOL    HW238592  13.161   2.381   0.279
45587SOL     OW38593   0.251  12.244   6.305
45587SOL    HW138594   0.264  12.152   6.284
45587SOL    HW238595   0.171  12.269   6.259
45588SOL     OW38596   3.972   4.586   2.826
45588SOL    HW138597   4.012   4.653   2.771
45588SOL    HW238598   3.891   4.626   2.858
45589SOL     OW38599  12.045   4.272   2.043
45589SOL    HW138600  12.049   4.250   2.136
45589SOL    HW238601  12.070   4.364   2.038
45590SOL     OW38602  11.510   9.955   3.566
45590SOL    HW138603  11.436  10.015   3.576
45590SOL    HW238604  11.486   9.899   3.492
45591SOL     OW38605   5.403   8.998   2.774
45591SOL    HW138606   5.484   8.952   2.752
45591SOL    HW238607   5.335   8.953   2.723
45592SOL     OW38608   0.940   3.407  13.609
45592SOL    HW138609   0.939   3.314  13.632
45592SOL    HW238610   0.847   3.429  13.597
45593SOL     OW38611  10.038   5.023  11.385
45593SOL    HW138612  10.077   4.969  11.454
45593SOL    HW238613  10.111   5.074  11.351
45594SOL     OW38614   4.069   2.914  10.991
45594SOL    HW138615   4.160   2.889  11.010
45594SOL    HW238616   4.021   2.831  10.990
45595SOL     OW38617   4.723  10.206   3.115
45595SOL    HW138618   4.665  10.182   3.187
45595SOL    HW238619   4.796  10.251   3.157
45596SOL     OW38620   8.777   0.445   3.295
45596SOL    HW138621   8.843   0.399   3.244
45596SOL    HW238622   8.699   0.390   3.287
45597SOL     OW38623   2.405   3.365   6.216
45597SOL    HW138624   2.433   3.456   6.207
45597SOL    HW238625   2.450   3.333   6.295
45598SOL     OW38626   2.876   5.983   6.635
45598SOL    HW138627   2.876   5.934   6.553
45598SOL    HW238628   2.956   6.036   6.632
45599SOL     OW38629  10.742   4.519   4.809
45599SOL    HW138630  10.747   4.545   4.717
45599SOL    HW238631  10.735   4.601   4.857
45600SOL     OW38632   1.003   5.023   5.444
45600SOL    HW138633   0.971   5.062   5.363
45600SOL    HW238634   0.927   4.977   5.481
45601SOL     OW38635  11.004   9.396  12.275
45601SOL    HW138636  10.955   9.336  12.219
45601SOL    HW238637  10.940   9.462  12.301
45602SOL     OW38638  14.171   1.223  12.557
45602SOL    HW138639  14.128   1.285  12.499
45602SOL    HW238640  14.265   1.237  12.542
45603SOL     OW38641  14.516   2.817  11.776
45603SOL    HW138642  14.468   2.825  11.693
45603SOL    HW238643  14.576   2.744  11.761
45604SOL     OW38644   0.048  12.788  10.588
45604SOL    HW138645  14.851  12.779  10.523
45604SOL    HW238646   0.106  12.855  10.552
45605SOL     OW38647   2.546  12.033  10.318
45605SOL    HW138648   2.517  11.987  10.397
45605SOL    HW238649   2.473  12.022  10.256
45606SOL     OW38650   6.204   0.798   3.211
45606SOL    HW138651   6.185   0.720   3.264
45606SOL    HW238652   6.277   0.773   3.155
45607SOL     OW38653   8.514   4.209   5.615
45607SOL    HW138654   8.464   4.190   5.535
45607SOL    HW238655   8.604   4.184   5.594
45608SOL     OW38656  13.504   6.539  12.891
45608SOL    HW138657  13.487   6.616  12.836
45608SOL    HW238658  13.518   6.468  12.828
45609SOL     OW38659   6.188   8.017  13.682
45609SOL    HW138660   6.258   8.005  13.746
45609SOL    HW238661   6.113   7.970  13.718
45610SOL     OW38662   9.595  14.747  14.052
45610SOL    HW138663   9.624  14.672  14.000
45610SOL    HW238664   9.508  14.769  14.019
45611SOL     OW38665   0.427   5.582  10.858
45611SOL    HW138666   0.378   5.608  10.936
45611SOL    HW238667   0.452   5.491  10.874
45612SOL     OW38668  14.822  13.779   2.549
45612SOL    HW138669  14.736  13.736   2.554
45612SOL    HW238670   0.007  13.711   2.513
45613SOL     OW38671  11.835   4.191   2.656
45613SOL    HW138672  11.923   4.162   2.631
45613SOL    HW238673  11.842   4.214   2.748
45614SOL     OW38674   6.947  14.418   3.124
45614SOL    HW138675   6.857  14.386   3.117
45614SOL    HW238676   6.942  14.490   3.187
45615SOL     OW38677   4.268   9.482  13.644
45615SOL    HW138678   4.246   9.501  13.735
45615SOL    HW238679   4.363   9.488  13.640
45616SOL     OW38680   7.821   1.250  12.037
45616SOL    HW138681   7.746   1.273  11.981
45616SOL    HW238682   7.897   1.285  11.990
45617SOL     OW38683   3.154  14.168   9.290
45617SOL    HW138684   3.192  14.156   9.203
45617SOL    HW238685   3.178  14.257   9.315
45618SOL     OW38686   0.727   4.687   6.074
45618SOL    HW138687   0.807   4.642   6.100
45618SOL    HW238688   0.734   4.699   5.980
45619SOL     OW38689   1.193  14.053   7.463
45619SOL    HW138690   1.153  14.114   7.525
45619SOL    HW238691   1.248  13.997   7.518
45620SOL     OW38692  13.311  13.086   1.510
45620SOL    HW138693  13.381  13.042   1.558
45620SOL    HW238694  13.349  13.170   1.483
45621SOL     OW38695  13.594  11.697  13.250
45621SOL    HW138696  13.530  11.748  13.200
45621SOL    HW238697  13.581  11.726  13.341
45622SOL     OW38698  10.475  13.802   2.802
45622SOL    HW138699  10.448  13.713   2.777
45622SOL    HW238700  10.483  13.798   2.897
45623SOL     OW38701  10.779  11.974   9.683
45623SOL    HW138702  10.855  12.030   9.696
45623SOL    HW238703  10.707  12.035   9.666
45624SOL     OW38704   8.185   6.046   9.607
45624SOL    HW138705   8.153   6.094   9.683
45624SOL    HW238706   8.107   6.001   9.574
45625SOL     OW38707   1.549   5.537   1.518
45625SOL    HW138708   1.561   5.574   1.606
45625SOL    HW238709   1.627   5.564   1.470
45626SOL     OW38710   1.104  13.308  10.367
45626SOL    HW138711   1.140  13.224  10.338
45626SOL    HW238712   1.166  13.373  10.334
45627SOL     OW38713   7.177  14.815  10.336
45627SOL    HW138714   7.234  14.742  10.308
45627SOL    HW238715   7.089  14.788  10.310
45628SOL     OW38716   4.434   7.002  14.833
45628SOL    HW138717   4.487   6.967  14.762
45628SOL    HW238718   4.407   6.925   0.011
45629SOL     OW38719  10.406  10.937   2.950
45629SOL    HW138720  10.431  10.881   2.877
45629SOL    HW238721  10.442  10.893   3.027
45630SOL     OW38722   9.677  12.758   5.310
45630SOL    HW138723   9.771  12.772   5.298
45630SOL    HW238724   9.658  12.678   5.262
45631SOL     OW38725   1.264   4.544  13.116
45631SOL    HW138726   1.343   4.509  13.076
45631SOL    HW238727   1.200   4.473  13.110
45632SOL     OW38728  12.174   6.562   6.220
45632SOL    HW138729  12.095   6.559   6.166
45632SOL    HW238730  12.197   6.655   6.224
45633SOL     OW38731  11.345   8.379  10.853
45633SOL    HW138732  11.293   8.436  10.797
45633SOL    HW238733  11.288   8.359  10.927
45634SOL     OW38734  11.270   6.815   9.428
45634SOL    HW138735  11.348   6.769   9.459
45634SOL    HW238736  11.197   6.775   9.475
45635SOL     OW38737  12.823   9.352  10.484
45635SOL    HW138738  12.862   9.326  10.401
45635SOL    HW238739  12.878   9.424  10.515
45636SOL     OW38740   3.391  14.284  10.156
45636SOL    HW138741   3.346  14.200  10.168
45636SOL    HW238742   3.337  14.331  10.092
45637SOL     OW38743  14.060  10.851   0.341
45637SOL    HW138744  14.046  10.923   0.402
45637SOL    HW238745  14.136  10.805   0.376
45638SOL     OW38746  10.057  11.925  12.939
45638SOL    HW138747  10.028  11.856  12.999
45638SOL    HW238748  10.058  11.883  12.853
45639SOL     OW38749   4.177   3.444   1.211
45639SOL    HW138750   4.185   3.375   1.145
45639SOL    HW238751   4.248   3.426   1.273
45640SOL     OW38752   5.433   6.115  14.156
45640SOL    HW138753   5.425   6.034  14.206
45640SOL    HW238754   5.347   6.157  14.165
45641SOL     OW38755   5.657   4.233   5.624
45641SOL    HW138756   5.700   4.191   5.550
45641SOL    HW238757   5.653   4.166   5.691
45642SOL     OW38758   5.668   3.372   2.154
45642SOL    HW138759   5.757   3.342   2.136
45642SOL    HW238760   5.669   3.465   2.134
45643SOL     OW38761  13.312   2.024  12.931
45643SOL    HW138762  13.231   1.982  12.902
45643SOL    HW238763  13.354   2.054  12.851
45644SOL     OW38764   7.754   6.446   4.622
45644SOL    HW138765   7.790   6.391   4.691
45644SOL    HW238766   7.733   6.386   4.551
45645SOL     OW38767  13.794   9.188   4.049
45645SOL    HW138768  13.835   9.261   4.003
45645SOL    HW238769  13.744   9.143   3.981
45646SOL     OW38770   3.588   9.024  14.718
45646SOL    HW138771   3.634   8.948  14.752
45646SOL    HW238772   3.498   9.014  14.749
45647SOL     OW38773   0.765   7.995   2.627
45647SOL    HW138774   0.800   7.999   2.716
45647SOL    HW238775   0.818   7.928   2.584
45648SOL     OW38776   2.640   0.722   8.284
45648SOL    HW138777   2.568   0.749   8.226
45648SOL    HW238778   2.632   0.627   8.290
45649SOL     OW38779   3.913   6.715   1.081
45649SOL    HW138780   3.941   6.806   1.093
45649SOL    HW238781   3.973   6.678   1.017
45650SOL     OW38782   5.591   0.050   7.035
45650SOL    HW138783   5.503   0.018   7.016
45650SOL    HW238784   5.577   0.130   7.086
45651SOL     OW38785   8.246   1.812   7.340
45651SOL    HW138786   8.301   1.734   7.345
45651SOL    HW238787   8.259   1.856   7.424
45652SOL     OW38788   7.121  13.940   0.392
45652SOL    HW138789   7.082  14.027   0.399
45652SOL    HW238790   7.124  13.907   0.482
45653SOL     OW38791   1.570   8.425   2.293
45653SOL    HW138792   1.584   8.493   2.227
45653SOL    HW238793   1.505   8.366   2.254
45654SOL     OW38794   2.461   5.140   7.588
45654SOL    HW138795   2.475   5.151   7.682
45654SOL    HW238796   2.419   5.055   7.579
45655SOL     OW38797  12.938   8.506   8.822
45655SOL    HW138798  13.006   8.480   8.884
45655SOL    HW238799  12.882   8.567   8.871
45656SOL     OW38800   5.918  14.119   7.808
45656SOL    HW138801   5.908  14.125   7.713
45656SOL    HW238802   6.002  14.075   7.820
45657SOL     OW38803  13.821   4.176  12.988
45657SOL    HW138804  13.902   4.161  12.940
45657SOL    HW238805  13.788   4.088  13.008
45658SOL     OW38806  12.048   8.649   6.178
45658SOL    HW138807  12.001   8.696   6.110
45658SOL    HW238808  11.999   8.667   6.258
45659SOL     OW38809   7.356  11.231   5.200
45659SOL    HW138810   7.303  11.151   5.191
45659SOL    HW238811   7.424  11.223   5.133
45660SOL     OW38812   2.170  14.250  11.141
45660SOL    HW138813   2.148  14.243  11.234
45660SOL    HW238814   2.115  14.322  11.110
45661SOL     OW38815   9.297  13.511   6.159
45661SOL    HW138816   9.392  13.514   6.163
45661SOL    HW238817   9.269  13.599   6.184
45662SOL     OW38818  12.513  11.139   1.899
45662SOL    HW138819  12.418  11.144   1.908
45662SOL    HW238820  12.534  11.046   1.909
45663SOL     OW38821  13.383   6.505  10.452
45663SOL    HW138822  13.314   6.466  10.504
45663SOL    HW238823  13.350   6.502  10.362
45664SOL     OW38824   0.197   3.535  12.017
45664SOL    HW138825   0.207   3.628  12.033
45664SOL    HW238826   0.281   3.497  12.043
45665SOL     OW38827  12.287   9.717   6.513
45665SOL    HW138828  12.208   9.761   6.484
45665SOL    HW238829  12.353   9.739   6.447
45666SOL     OW38830   4.184   6.697  11.332
45666SOL    HW138831   4.216   6.766  11.390
45666SOL    HW238832   4.095   6.678  11.363
45667SOL     OW38833   5.117   7.872   6.730
45667SOL    HW138834   5.080   7.955   6.699
45667SOL    HW238835   5.042   7.813   6.737
45668SOL     OW38836   7.439   0.490   2.616
45668SOL    HW138837   7.377   0.434   2.663
45668SOL    HW238838   7.383   0.556   2.573
45669SOL     OW38839   9.346   5.573   9.355
45669SOL    HW138840   9.381   5.502   9.301
45669SOL    HW238841   9.415   5.589   9.420
45670SOL     OW38842  14.773  12.827   3.743
45670SOL    HW138843  14.817  12.891   3.799
45670SOL    HW238844  14.763  12.872   3.659
45671SOL     OW38845   8.358   8.551   7.433
45671SOL    HW138846   8.386   8.602   7.509
45671SOL    HW238847   8.271   8.518   7.458
45672SOL     OW38848  14.667   6.053  12.068
45672SOL    HW138849  14.718   6.134  12.078
45672SOL    HW238850  14.694   5.998  12.142
45673SOL     OW38851  10.277   8.066   0.476
45673SOL    HW138852  10.278   8.003   0.548
45673SOL    HW238853  10.184   8.087   0.465
45674SOL     OW38854   0.528   7.424  14.106
45674SOL    HW138855   0.496   7.374  14.181
45674SOL    HW238856   0.604   7.375  14.075
45675SOL     OW38857   9.722  13.485   2.347
45675SOL    HW138858   9.728  13.508   2.440
45675SOL    HW238859   9.634  13.512   2.321
45676SOL     OW38860   9.552  12.716   1.973
45676SOL    HW138861   9.488  12.709   2.044
45676SOL    HW238862   9.619  12.775   2.007
45677SOL     OW38863  13.979   6.182  10.339
45677SOL    HW138864  14.041   6.174  10.267
45677SOL    HW238865  13.893   6.182  10.297
45678SOL     OW38866   4.519   7.021   5.532
45678SOL    HW138867   4.425   7.004   5.520
45678SOL    HW238868   4.562   6.951   5.482
45679SOL     OW38869   0.253   1.951   7.172
45679SOL    HW138870   0.157   1.947   7.162
45679SOL    HW238871   0.266   1.991   7.258
45680SOL     OW38872   4.989   5.649  13.817
45680SOL    HW138873   5.082   5.629  13.805
45680SOL    HW238874   4.945   5.565  13.805
45681SOL     OW38875   2.352   9.620  12.877
45681SOL    HW138876   2.430   9.631  12.822
45681SOL    HW238877   2.306   9.545  12.839
45682SOL     OW38878   5.269   3.427   0.878
45682SOL    HW138879   5.231   3.464   0.798
45682SOL    HW238880   5.209   3.453   0.948
45683SOL     OW38881   8.857   6.134   9.185
45683SOL    HW138882   8.917   6.073   9.226
45683SOL    HW238883   8.904   6.166   9.108
45684SOL     OW38884   1.820   9.946  10.404
45684SOL    HW138885   1.836   9.858  10.368
45684SOL    HW238886   1.755   9.932  10.472
45685SOL     OW38887  10.157   4.321  14.734
45685SOL    HW138888  10.250   4.345  14.740
45685SOL    HW238889  10.158   4.225  14.724
45686SOL     OW38890   7.279   3.045   5.060
45686SOL    HW138891   7.317   2.994   4.990
45686SOL    HW238892   7.325   3.016   5.139
45687SOL     OW38893  12.718   5.946   2.444
45687SOL    HW138894  12.686   5.861   2.475
45687SOL    HW238895  12.711   5.941   2.348
45688SOL     OW38896  14.727   4.825   1.620
45688SOL    HW138897  14.779   4.903   1.636
45688SOL    HW238898  14.762   4.789   1.538
45689SOL     OW38899   7.878   6.918   5.869
45689SOL    HW138900   7.895   7.011   5.887
45689SOL    HW238901   7.876   6.912   5.773
45690SOL     OW38902   3.583   3.894  10.107
45690SOL    HW138903   3.542   3.973  10.070
45690SOL    HW238904   3.627   3.853  10.032
45691SOL     OW38905  12.840   5.009   4.819
45691SOL    HW138906  12.934   5.006   4.802
45691SOL    HW238907  12.804   5.061   4.748
45692SOL     OW38908  12.028   5.702   5.512
45692SOL    HW138909  11.952   5.644   5.519
45692SOL    HW238910  12.076   5.689   5.594
45693SOL     OW38911   0.586  11.542   3.443
45693SOL    HW138912   0.580  11.525   3.537
45693SOL    HW238913   0.608  11.635   3.436
45694SOL     OW38914   5.002  11.041   6.059
45694SOL    HW138915   4.969  11.096   5.987
45694SOL    HW238916   4.947  10.963   6.057
45695SOL     OW38917  11.747   2.668   0.722
45695SOL    HW138918  11.689   2.616   0.666
45695SOL    HW238919  11.830   2.669   0.675
45696SOL     OW38920  11.732   2.951   2.916
45696SOL    HW138921  11.723   2.988   3.004
45696SOL    HW238922  11.711   3.023   2.857
45697SOL     OW38923   3.961  10.910   4.584
45697SOL    HW138924   4.001  10.828   4.553
45697SOL    HW238925   4.000  10.924   4.671
45698SOL     OW38926   5.515   7.815  11.855
45698SOL    HW138927   5.574   7.747  11.822
45698SOL    HW238928   5.462   7.771  11.921
45699SOL     OW38929  13.267   1.822   8.310
45699SOL    HW138930  13.251   1.841   8.217
45699SOL    HW238931  13.272   1.727   8.315
45700SOL     OW38932   2.077   3.849   0.521
45700SOL    HW138933   1.989   3.826   0.549
45700SOL    HW238934   2.072   3.853   0.426
45701SOL     OW38935   4.786   4.099  13.846
45701SOL    HW138936   4.818   4.068  13.930
45701SOL    HW238937   4.774   4.193  13.858
45702SOL     OW38938  12.691   1.423   7.782
45702SOL    HW138939  12.784   1.432   7.802
45702SOL    HW238940  12.649   1.495   7.829
45703SOL     OW38941   7.420  12.345  11.748
45703SOL    HW138942   7.442  12.407  11.818
45703SOL    HW238943   7.327  12.359  11.732
45704SOL     OW38944   5.186  14.751  11.356
45704SOL    HW138945   5.146  14.700  11.426
45704SOL    HW238946   5.113  14.776  11.299
45705SOL     OW38947   0.968   1.081   8.742
45705SOL    HW138948   0.925   1.110   8.661
45705SOL    HW238949   1.033   1.149   8.760
45706SOL     OW38950   3.600  12.578   3.386
45706SOL    HW138951   3.522  12.578   3.441
45706SOL    HW238952   3.670  12.609   3.445
45707SOL     OW38953   1.681   4.297   7.404
45707SOL    HW138954   1.657   4.389   7.389
45707SOL    HW238955   1.655   4.252   7.323
45708SOL     OW38956   9.967  14.809   5.173
45708SOL    HW138957   9.905  14.841   5.239
45708SOL    HW238958   9.948  14.716   5.166
45709SOL     OW38959   0.420   4.070   4.426
45709SOL    HW138960   0.484   4.098   4.491
45709SOL    HW238961   0.462   3.996   4.381
45710SOL     OW38962  14.746  11.287   2.486
45710SOL    HW138963  14.687  11.213   2.500
45710SOL    HW238964  14.831  11.247   2.465
45711SOL     OW38965   8.090   5.115  13.193
45711SOL    HW138966   8.106   5.026  13.164
45711SOL    HW238967   8.008   5.110  13.243
45712SOL     OW38968   5.593   2.395   9.011
45712SOL    HW138969   5.538   2.389   8.933
45712SOL    HW238970   5.601   2.489   9.028
45713SOL     OW38971   8.044  10.279   0.229
45713SOL    HW138972   8.121  10.270   0.285
45713SOL    HW238973   8.045  10.370   0.200
45714SOL     OW38974   5.146  10.818   1.353
45714SOL    HW138975   5.125  10.911   1.366
45714SOL    HW238976   5.168  10.811   1.260
45715SOL     OW38977   5.342   7.779   7.271
45715SOL    HW138978   5.266   7.827   7.237
45715SOL    HW238979   5.410   7.792   7.205
45716SOL     OW38980   8.007  11.803   2.395
45716SOL    HW138981   7.943  11.867   2.364
45716SOL    HW238982   8.071  11.855   2.445
45717SOL     OW38983   4.323   1.463   2.238
45717SOL    HW138984   4.238   1.435   2.203
45717SOL    HW238985   4.384   1.395   2.211
45718SOL     OW38986   9.866   7.307   8.521
45718SOL    HW138987   9.901   7.346   8.601
45718SOL    HW238988   9.881   7.373   8.454
45719SOL     OW38989   0.511  14.245   2.943
45719SOL    HW138990   0.441  14.295   2.985
45719SOL    HW238991   0.592  14.280   2.981
45720SOL     OW38992   4.013   2.424  10.733
45720SOL    HW138993   3.965   2.354  10.690
45720SOL    HW238994   3.977   2.428  10.822
45721SOL     OW38995  10.884  14.101   9.064
45721SOL    HW138996  10.963  14.128   9.111
45721SOL    HW238997  10.848  14.030   9.116
45722SOL     OW38998   4.775  13.879  11.499
45722SOL    HW138999   4.716  13.856  11.427
45722SOL    HW239000   4.804  13.968  11.478
45723SOL     OW39001   3.278   2.841   8.435
45723SOL    HW139002   3.326   2.919   8.462
45723SOL    HW239003   3.323   2.769   8.480
45724SOL     OW39004   9.245   1.710   3.133
45724SOL    HW139005   9.280   1.799   3.127
45724SOL    HW239006   9.197   1.698   3.051
45725SOL     OW39007   0.385   0.503   5.288
45725SOL    HW139008   0.480   0.495   5.278
45725SOL    HW239009   0.371   0.514   5.382
45726SOL     OW39010  10.409   6.399   7.382
45726SOL    HW139011  10.316   6.376   7.386
45726SOL    HW239012  10.410   6.492   7.360
45727SOL     OW39013   8.449   0.560  13.816
45727SOL    HW139014   8.422   0.630  13.876
45727SOL    HW239015   8.487   0.493  13.873
45728SOL     OW39016   2.508  11.518   3.453
45728SOL    HW139017   2.528  11.453   3.521
45728SOL    HW239018   2.419  11.497   3.426
45729SOL     OW39019   4.961   9.705   1.431
45729SOL    HW139020   5.007   9.787   1.413
45729SOL    HW239021   4.988   9.681   1.520
45730SOL     OW39022   2.801   2.853   5.476
45730SOL    HW139023   2.829   2.865   5.566
45730SOL    HW239024   2.750   2.931   5.455
45731SOL     OW39025   7.525  10.050   0.931
45731SOL    HW139026   7.489  10.002   1.006
45731SOL    HW239027   7.542  10.138   0.965
45732SOL     OW39028   8.723  10.831   8.789
45732SOL    HW139029   8.797  10.774   8.810
45732SOL    HW239030   8.763  10.914   8.763
45733SOL     OW39031   4.578  12.394   1.573
45733SOL    HW139032   4.502  12.438   1.533
45733SOL    HW239033   4.636  12.376   1.499
45734SOL     OW39034   2.133   0.602   0.717
45734SOL    HW139035   2.099   0.538   0.779
45734SOL    HW239036   2.228   0.585   0.713
45735SOL     OW39037  12.409  10.832   6.779
45735SOL    HW139038  12.416  10.737   6.776
45735SOL    HW239039  12.451  10.862   6.699
45736SOL     OW39040   9.171   0.570   8.861
45736SOL    HW139041   9.185   0.490   8.911
45736SOL    HW239042   9.252   0.581   8.810
45737SOL     OW39043   2.155  10.855   1.242
45737SOL    HW139044   2.195  10.941   1.234
45737SOL    HW239045   2.185  10.821   1.326
45738SOL     OW39046   1.908   9.503   1.327
45738SOL    HW139047   1.866   9.478   1.244
45738SOL    HW239048   1.845   9.478   1.394
45739SOL     OW39049   0.905   7.984   4.296
45739SOL    HW139050   0.836   8.009   4.234
45739SOL    HW239051   0.861   7.985   4.381
45740SOL     OW39052   7.345  14.067   7.268
45740SOL    HW139053   7.417  14.097   7.213
45740SOL    HW239054   7.362  13.974   7.281
45741SOL     OW39055  12.405   4.904  14.113
45741SOL    HW139056  12.485   4.863  14.147
45741SOL    HW239057  12.352   4.830  14.083
45742SOL     OW39058   7.703   0.299  11.444
45742SOL    HW139059   7.770   0.297  11.513
45742SOL    HW239060   7.634   0.354  11.479
45743SOL     OW39061   3.061   6.043  11.544
45743SOL    HW139062   3.062   5.975  11.477
45743SOL    HW239063   2.983   6.095  11.525
45744SOL     OW39064   1.629   1.543   9.345
45744SOL    HW139065   1.589   1.497   9.271
45744SOL    HW239066   1.646   1.475   9.410
45745SOL     OW39067  13.905  12.197   3.736
45745SOL    HW139068  13.929  12.106   3.754
45745SOL    HW239069  13.988  12.244   3.733
45746SOL     OW39070   7.357   2.890   7.188
45746SOL    HW139071   7.429   2.922   7.134
45746SOL    HW239072   7.316   2.821   7.136
45747SOL     OW39073   7.211   0.638   8.501
45747SOL    HW139074   7.195   0.707   8.565
45747SOL    HW239075   7.123   0.606   8.479
45748SOL     OW39076   7.249   6.906   2.504
45748SOL    HW139077   7.212   6.854   2.432
45748SOL    HW239078   7.325   6.856   2.534
45749SOL     OW39079   1.823   6.923  11.806
45749SOL    HW139080   1.822   7.013  11.773
45749SOL    HW239081   1.908   6.889  11.780
45750SOL     OW39082   1.416  11.483  10.979
45750SOL    HW139083   1.496  11.524  11.013
45750SOL    HW239084   1.345  11.530  11.022
45751SOL     OW39085   9.282  11.507   9.358
45751SOL    HW139086   9.352  11.553   9.403
45751SOL    HW239087   9.323  11.428   9.323
45752SOL     OW39088   2.694   4.111   5.009
45752SOL    HW139089   2.688   4.059   5.089
45752SOL    HW239090   2.604   4.133   4.987
45753SOL     OW39091   6.520  10.175   0.977
45753SOL    HW139092   6.459  10.110   0.942
45753SOL    HW239093   6.466  10.228   1.036
45754SOL     OW39094   0.755  13.988   8.414
45754SOL    HW139095   0.746  13.928   8.488
45754SOL    HW239096   0.758  14.075   8.453
45755SOL     OW39097  10.743  13.222  12.734
45755SOL    HW139098  10.669  13.161  12.738
45755SOL    HW239099  10.806  13.186  12.796
45756SOL     OW39100   4.137   1.906   6.021
45756SOL    HW139101   4.093   1.874   6.100
45756SOL    HW239102   4.202   1.838   6.001
45757SOL     OW39103   0.862   7.890  11.188
45757SOL    HW139104   0.802   7.833  11.237
45757SOL    HW239105   0.919   7.928  11.255
45758SOL     OW39106   8.277  13.015   9.306
45758SOL    HW139107   8.228  13.096   9.323
45758SOL    HW239108   8.292  12.978   9.393
45759SOL     OW39109  10.611  10.476  13.312
45759SOL    HW139110  10.628  10.389  13.274
45759SOL    HW239111  10.613  10.536  13.237
45760SOL     OW39112   0.498   2.350   1.236
45760SOL    HW139113   0.529   2.383   1.321
45760SOL    HW239114   0.427   2.290   1.258
45761SOL     OW39115   9.635  11.093   2.635
45761SOL    HW139116   9.574  11.047   2.693
45761SOL    HW239117   9.606  11.185   2.640
45762SOL     OW39118  10.317   4.392   2.518
45762SOL    HW139119  10.239   4.434   2.554
45762SOL    HW239120  10.307   4.299   2.541
45763SOL     OW39121  14.699   5.656   7.235
45763SOL    HW139122  14.631   5.608   7.188
45763SOL    HW239123  14.681   5.638   7.327
45764SOL     OW39124   1.969   8.760   7.263
45764SOL    HW139125   1.991   8.853   7.268
45764SOL    HW239126   2.010   8.721   7.340
45765SOL     OW39127  14.667   6.656   0.141
45765SOL    HW139128  14.669   6.744   0.103
45765SOL    HW239129  14.759   6.636   0.159
45766SOL     OW39130   0.950   6.442   1.920
45766SOL    HW139131   1.026   6.459   1.975
45766SOL    HW239132   0.985   6.396   1.844
45767SOL     OW39133  12.213   6.732   6.969
45767SOL    HW139134  12.287   6.702   7.022
45767SOL    HW239135  12.139   6.732   7.029
45768SOL     OW39136  13.185   9.149   1.472
45768SOL    HW139137  13.107   9.198   1.496
45768SOL    HW239138  13.182   9.069   1.525
45769SOL     OW39139   8.753   5.318  13.363
45769SOL    HW139140   8.778   5.380  13.431
45769SOL    HW239141   8.836   5.296  13.320
45770SOL     OW39142   5.990   8.686   7.961
45770SOL    HW139143   5.996   8.766   7.908
45770SOL    HW239144   5.900   8.655   7.948
45771SOL     OW39145   0.938  13.115  10.777
45771SOL    HW139146   0.843  13.125  10.784
45771SOL    HW239147   0.968  13.195  10.733
45772SOL     OW39148  14.514  14.759   0.154
45772SOL    HW139149  14.492  14.671   0.184
45772SOL    HW239150  14.567  14.745   0.076
45773SOL     OW39151   9.065   7.508   8.762
45773SOL    HW139152   9.013   7.441   8.807
45773SOL    HW239153   9.104   7.560   8.833
45774SOL     OW39154   6.597   3.769   3.731
45774SOL    HW139155   6.508   3.797   3.712
45774SOL    HW239156   6.613   3.799   3.821
45775SOL     OW39157   8.031   0.172   0.389
45775SOL    HW139158   8.076   0.087   0.387
45775SOL    HW239159   8.014   0.188   0.481
45776SOL     OW39160   2.336  11.306  12.371
45776SOL    HW139161   2.249  11.325  12.336
45776SOL    HW239162   2.352  11.376  12.435
45777SOL     OW39163   3.684   1.184   8.732
45777SOL    HW139164   3.592   1.159   8.736
45777SOL    HW239165   3.716   1.172   8.821
45778SOL     OW39166   0.858   4.954   3.587
45778SOL    HW139167   0.821   5.042   3.586
45778SOL    HW239168   0.949   4.966   3.615
45779SOL     OW39169  12.860   0.702   7.963
45779SOL    HW139170  12.781   0.747   7.933
45779SOL    HW239171  12.851   0.612   7.930
45780SOL     OW39172   7.857  11.627  10.954
45780SOL    HW139173   7.938  11.587  10.922
45780SOL    HW239174   7.791  11.604  10.889
45781SOL     OW39175  10.368  10.255   5.616
45781SOL    HW139176  10.277  10.282   5.628
45781SOL    HW239177  10.419  10.319   5.666
45782SOL     OW39178   6.209  11.214  12.007
45782SOL    HW139179   6.266  11.252  11.940
45782SOL    HW239180   6.269  11.186  12.076
45783SOL     OW39181   4.633   5.001   7.598
45783SOL    HW139182   4.600   4.973   7.513
45783SOL    HW239183   4.575   5.073   7.624
45784SOL     OW39184   6.984   3.533   7.200
45784SOL    HW139185   7.025   3.607   7.243
45784SOL    HW239186   7.042   3.512   7.127
45785SOL     OW39187   2.577   2.203  13.325
45785SOL    HW139188   2.533   2.271  13.274
45785SOL    HW239189   2.623   2.150  13.260
45786SOL     OW39190   2.672   7.932   0.752
45786SOL    HW139191   2.674   8.028   0.747
45786SOL    HW239192   2.580   7.909   0.755
45787SOL     OW39193   1.226   7.840   9.285
45787SOL    HW139194   1.150   7.796   9.248
45787SOL    HW239195   1.301   7.790   9.253
45788SOL     OW39196   4.722   9.441   9.453
45788SOL    HW139197   4.635   9.480   9.445
45788SOL    HW239198   4.744   9.414   9.364
45789SOL     OW39199   0.717   2.052   8.542
45789SOL    HW139200   0.656   2.086   8.476
45789SOL    HW239201   0.663   2.000   8.601
45790SOL     OW39202   6.246   7.835   6.000
45790SOL    HW139203   6.282   7.841   6.088
45790SOL    HW239204   6.310   7.783   5.951
45791SOL     OW39205   1.166  14.636  13.818
45791SOL    HW139206   1.223  14.603  13.749
45791SOL    HW239207   1.096  14.571  13.824
45792SOL     OW39208  12.876   1.940  10.725
45792SOL    HW139209  12.795   1.893  10.705
45792SOL    HW239210  12.940   1.907  10.663
45793SOL     OW39211  10.132  14.564   9.996
45793SOL    HW139212  10.110  14.653  10.025
45793SOL    HW239213  10.215  14.545  10.039
45794SOL     OW39214   2.994   6.314   4.831
45794SOL    HW139215   2.903   6.283   4.833
45794SOL    HW239216   3.045   6.236   4.809
45795SOL     OW39217  10.612   0.655   3.553
45795SOL    HW139218  10.627   0.643   3.460
45795SOL    HW239219  10.571   0.741   3.561
45796SOL     OW39220   2.419   0.084   4.057
45796SOL    HW139221   2.502   0.128   4.036
45796SOL    HW239222   2.391   0.044   3.975
45797SOL     OW39223  14.243   4.008   5.193
45797SOL    HW139224  14.299   4.032   5.266
45797SOL    HW239225  14.249   4.081   5.132
45798SOL     OW39226   5.318   8.878  12.266
45798SOL    HW139227   5.368   8.842  12.339
45798SOL    HW239228   5.297   8.968  12.293
45799SOL     OW39229   8.505  12.367   8.470
45799SOL    HW139230   8.547  12.290   8.432
45799SOL    HW239231   8.550  12.380   8.554
45800SOL     OW39232   8.220  10.004   6.427
45800SOL    HW139233   8.227  10.098   6.445
45800SOL    HW239234   8.164   9.971   6.497
45801SOL     OW39235   5.912   4.034   9.454
45801SOL    HW139236   5.886   4.041   9.362
45801SOL    HW239237   5.849   4.090   9.500
45802SOL     OW39238   5.094  13.408  10.384
45802SOL    HW139239   5.003  13.419  10.410
45802SOL    HW239240   5.130  13.496  10.383
45803SOL     OW39241   7.707  12.443   5.326
45803SOL    HW139242   7.756  12.388   5.386
45803SOL    HW239243   7.675  12.384   5.258
45804SOL     OW39244   6.945  13.843  11.617
45804SOL    HW139245   7.017  13.784  11.596
45804SOL    HW239246   6.987  13.918  11.659
45805SOL     OW39247  14.495   9.195  14.043
45805SOL    HW139248  14.444   9.260  13.996
45805SOL    HW239249  14.472   9.208  14.135
45806SOL     OW39250   5.377  14.058   8.988
45806SOL    HW139251   5.284  14.064   9.010
45806SOL    HW239252   5.416  14.006   9.059
45807SOL     OW39253   8.440   1.388  13.873
45807SOL    HW139254   8.436   1.390  13.778
45807SOL    HW239255   8.511   1.448  13.896
45808SOL     OW39256   8.373  11.083  12.524
45808SOL    HW139257   8.325  11.062  12.605
45808SOL    HW239258   8.360  11.177  12.514
45809SOL     OW39259  14.016   5.021   5.952
45809SOL    HW139260  14.105   5.021   5.989
45809SOL    HW239261  13.980   4.937   5.979
45810SOL     OW39262  14.194   3.165  13.369
45810SOL    HW139263  14.166   3.074  13.357
45810SOL    HW239264  14.201   3.200  13.281
45811SOL     OW39265  12.308  14.726  14.350
45811SOL    HW139266  12.360  14.711  14.429
45811SOL    HW239267  12.327  14.650  14.295
45812SOL     OW39268  12.024  11.868   2.634
45812SOL    HW139269  12.077  11.792   2.610
45812SOL    HW239270  11.970  11.885   2.557
45813SOL     OW39271   5.788   8.340   4.235
45813SOL    HW139272   5.743   8.271   4.283
45813SOL    HW239273   5.795   8.306   4.145
45814SOL     OW39274   6.655   1.747   8.150
45814SOL    HW139275   6.706   1.695   8.212
45814SOL    HW239276   6.577   1.772   8.198
45815SOL     OW39277  11.770   9.918   9.852
45815SOL    HW139278  11.731   9.941   9.936
45815SOL    HW239279  11.815   9.998   9.823
45816SOL     OW39280   3.362  14.656  12.706
45816SOL    HW139281   3.325  14.629  12.790
45816SOL    HW239282   3.295  14.633  12.642
45817SOL     OW39283  14.145  13.732   4.248
45817SOL    HW139284  14.233  13.726   4.211
45817SOL    HW239285  14.145  13.668   4.320
45818SOL     OW39286  13.783   0.796  13.908
45818SOL    HW139287  13.773   0.842  13.991
45818SOL    HW239288  13.734   0.849  13.845
45819SOL     OW39289  13.298  11.068   7.636
45819SOL    HW139290  13.346  11.123   7.574
45819SOL    HW239291  13.354  10.991   7.647
45820SOL     OW39292   8.313  14.228   7.051
45820SOL    HW139293   8.268  14.262   6.974
45820SOL    HW239294   8.393  14.187   7.017
45821SOL     OW39295  10.359   3.529  11.429
45821SOL    HW139296  10.325   3.509  11.341
45821SOL    HW239297  10.452   3.548  11.415
45822SOL     OW39298  13.070   6.132   4.744
45822SOL    HW139299  12.984   6.161   4.712
45822SOL    HW239300  13.131   6.199   4.714
45823SOL     OW39301  14.775  12.715   7.532
45823SOL    HW139302  14.787  12.653   7.460
45823SOL    HW239303  14.681  12.733   7.532
45824SOL     OW39304   3.134   4.477   7.230
45824SOL    HW139305   3.132   4.554   7.287
45824SOL    HW239306   3.132   4.403   7.290
45825SOL     OW39307   9.451  10.990   5.010
45825SOL    HW139308   9.433  11.084   5.003
45825SOL    HW239309   9.365  10.951   5.028
45826SOL     OW39310   8.693  11.188   0.228
45826SOL    HW139311   8.616  11.225   0.271
45826SOL    HW239312   8.724  11.121   0.289
45827SOL     OW39313   0.118   8.199  10.665
45827SOL    HW139314   0.209   8.187  10.637
45827SOL    HW239315   0.110   8.143  10.742
45828SOL     OW39316   7.636   2.497   8.845
45828SOL    HW139317   7.609   2.411   8.813
45828SOL    HW239318   7.618   2.557   8.773
45829SOL     OW39319   4.489  12.802   2.306
45829SOL    HW139320   4.521  12.881   2.349
45829SOL    HW239321   4.554  12.784   2.238
45830SOL     OW39322   0.926  10.976   9.745
45830SOL    HW139323   0.912  11.019   9.830
45830SOL    HW239324   0.988  11.034   9.700
45831SOL     OW39325   2.659   4.876   8.246
45831SOL    HW139326   2.731   4.817   8.226
45831SOL    HW239327   2.599   4.867   8.172
45832SOL     OW39328   7.204   5.579   5.396
45832SOL    HW139329   7.165   5.608   5.479
45832SOL    HW239330   7.135   5.594   5.331
45833SOL     OW39331   2.841   9.083   2.615
45833SOL    HW139332   2.832   9.165   2.664
45833SOL    HW239333   2.754   9.045   2.614
45834SOL     OW39334   4.344  14.407  13.051
45834SOL    HW139335   4.347  14.486  12.998
45834SOL    HW239336   4.293  14.345  12.998
45835SOL     OW39337   5.902   1.712  12.572
45835SOL    HW139338   5.864   1.641  12.521
45835SOL    HW239339   5.944   1.669  12.646
45836SOL     OW39340   1.151   7.121  13.968
45836SOL    HW139341   1.153   7.120  14.063
45836SOL    HW239342   1.217   7.185  13.943
45837SOL     OW39343   2.520   5.670  11.540
45837SOL    HW139344   2.494   5.719  11.618
45837SOL    HW239345   2.579   5.729  11.493
45838SOL     OW39346  12.619   0.449  13.417
45838SOL    HW139347  12.627   0.362  13.457
45838SOL    HW239348  12.544   0.489  13.462
45839SOL     OW39349   7.482   6.456   4.909
45839SOL    HW139350   7.432   6.515   4.966
45839SOL    HW239351   7.539   6.514   4.858
45840SOL     OW39352   1.104  11.616   5.749
45840SOL    HW139353   1.062  11.673   5.813
45840SOL    HW239354   1.163  11.673   5.700
45841SOL     OW39355   0.473   0.184  11.635
45841SOL    HW139356   0.410   0.114  11.652
45841SOL    HW239357   0.423   0.250  11.586
45842SOL     OW39358  10.234   0.364   0.739
45842SOL    HW139359  10.166   0.298   0.753
45842SOL    HW239360  10.211   0.435   0.799
45843SOL     OW39361   5.212   3.055  10.326
45843SOL    HW139362   5.301   3.031  10.298
45843SOL    HW239363   5.158   3.040  10.248
45844SOL     OW39364   6.620  14.378  13.840
45844SOL    HW139365   6.690  14.377  13.774
45844SOL    HW239366   6.657  14.332  13.915
45845SOL     OW39367   1.851   2.652   1.925
45845SOL    HW139368   1.859   2.591   1.999
45845SOL    HW239369   1.909   2.616   1.858
45846SOL     OW39370   4.979  12.067  12.095
45846SOL    HW139371   4.976  12.126  12.170
45846SOL    HW239372   5.073  12.054  12.080
45847SOL     OW39373   0.662   9.443  11.129
45847SOL    HW139374   0.666   9.401  11.043
45847SOL    HW239375   0.753   9.441  11.160
45848SOL     OW39376   4.855   7.668   9.202
45848SOL    HW139377   4.834   7.578   9.226
45848SOL    HW239378   4.926   7.660   9.138
45849SOL     OW39379   2.078   4.707   2.667
45849SOL    HW139380   2.091   4.634   2.728
45849SOL    HW239381   2.062   4.665   2.582
45850SOL     OW39382  14.426   1.165  14.180
45850SOL    HW139383  14.348   1.219  14.191
45850SOL    HW239384  14.468   1.198  14.100
45851SOL     OW39385  13.987  14.763   3.634
45851SOL    HW139386  14.024  14.840   3.591
45851SOL    HW239387  13.926  14.727   3.570
45852SOL     OW39388   7.668  10.667   7.662
45852SOL    HW139389   7.737  10.600   7.657
45852SOL    HW239390   7.628  10.653   7.748
45853SOL     OW39391   0.409   7.349  14.754
45853SOL    HW139392   0.330   7.391  14.721
45853SOL    HW239393   0.379   7.267  14.793
45854SOL     OW39394   2.759   2.964   1.821
45854SOL    HW139395   2.749   2.896   1.754
45854SOL    HW239396   2.684   2.952   1.880
45855SOL     OW39397  14.689   6.816   1.850
45855SOL    HW139398  14.657   6.816   1.760
45855SOL    HW239399  14.759   6.881   1.851
45856SOL     OW39400   1.026   0.388  12.747
45856SOL    HW139401   1.022   0.480  12.773
45856SOL    HW239402   1.120   0.368  12.745
45857SOL     OW39403   2.267  14.430   5.245
45857SOL    HW139404   2.351  14.402   5.283
45857SOL    HW239405   2.203  14.416   5.315
45858SOL     OW39406   0.344  13.382   9.479
45858SOL    HW139407   0.261  13.336   9.488
45858SOL    HW239408   0.387  13.341   9.404
45859SOL     OW39409  12.105   5.736   2.999
45859SOL    HW139410  12.198   5.750   3.019
45859SOL    HW239411  12.104   5.705   2.909
45860SOL     OW39412   2.499  14.544   7.865
45860SOL    HW139413   2.564  14.602   7.904
45860SOL    HW239414   2.418  14.566   7.911
45861SOL     OW39415   1.614   3.603   9.213
45861SOL    HW139416   1.661   3.652   9.281
45861SOL    HW239417   1.632   3.650   9.132
45862SOL     OW39418  12.910   2.780   1.203
45862SOL    HW139419  12.866   2.699   1.177
45862SOL    HW239420  12.869   2.848   1.149
45863SOL     OW39421   1.577   2.684  10.135
45863SOL    HW139422   1.659   2.638  10.155
45863SOL    HW239423   1.548   2.645  10.053
45864SOL     OW39424   6.925   2.620   2.093
45864SOL    HW139425   6.835   2.633   2.062
45864SOL    HW239426   6.956   2.544   2.044
45865SOL     OW39427   0.050   2.209  10.373
45865SOL    HW139428  14.849   2.153  10.351
45865SOL    HW239429   0.057   2.270  10.300
45866SOL     OW39430   0.802  13.710   2.699
45866SOL    HW139431   0.847  13.720   2.615
45866SOL    HW239432   0.713  13.685   2.677
45867SOL     OW39433   7.823   0.704   4.785
45867SOL    HW139434   7.903   0.734   4.742
45867SOL    HW239435   7.775   0.784   4.806
45868SOL     OW39436   4.881  12.617  14.603
45868SOL    HW139437   4.818  12.663  14.660
45868SOL    HW239438   4.956  12.601  14.660
45869SOL     OW39439   9.125  13.011  11.108
45869SOL    HW139440   9.094  13.093  11.069
45869SOL    HW239441   9.159  13.037  11.194
45870SOL     OW39442   1.056   6.573   7.024
45870SOL    HW139443   1.084   6.647   6.971
45870SOL    HW239444   1.136   6.541   7.065
45871SOL     OW39445   3.343   6.662   4.112
45871SOL    HW139446   3.316   6.672   4.204
45871SOL    HW239447   3.324   6.748   4.073
45872SOL     OW39448   4.116  14.779  11.277
45872SOL    HW139449   4.099  14.869  11.306
45872SOL    HW239450   4.212  14.774  11.270
45873SOL     OW39451   3.122   7.778   2.676
45873SOL    HW139452   3.159   7.714   2.615
45873SOL    HW239453   3.134   7.862   2.632
45874SOL     OW39454   1.303   3.216   4.372
45874SOL    HW139455   1.247   3.206   4.295
45874SOL    HW239456   1.307   3.311   4.385
45875SOL     OW39457   3.967  10.624   8.536
45875SOL    HW139458   3.874  10.605   8.521
45875SOL    HW239459   3.970  10.662   8.624
45876SOL     OW39460   2.804  14.377  10.703
45876SOL    HW139461   2.779  14.337  10.787
45876SOL    HW239462   2.838  14.463  10.727
45877SOL     OW39463  10.727   5.897   0.981
45877SOL    HW139464  10.659   5.866   1.041
45877SOL    HW239465  10.802   5.915   1.037
45878SOL     OW39466  10.812   0.092   3.084
45878SOL    HW139467  10.892   0.109   3.134
45878SOL    HW239468  10.836   0.020   3.025
45879SOL     OW39469  10.991   1.346  12.076
45879SOL    HW139470  10.995   1.380  12.165
45879SOL    HW239471  11.078   1.364  12.039
45880SOL     OW39472   7.353   7.897   1.240
45880SOL    HW139473   7.322   7.869   1.154
45880SOL    HW239474   7.417   7.966   1.221
45881SOL     OW39475   8.401   4.333  14.438
45881SOL    HW139476   8.328   4.313  14.497
45881SOL    HW239477   8.377   4.417  14.398
45882SOL     OW39478   6.182  12.541   3.211
45882SOL    HW139479   6.134  12.532   3.294
45882SOL    HW239480   6.115  12.568   3.148
45883SOL     OW39481   0.293  13.611   3.157
45883SOL    HW139482   0.299  13.515   3.161
45883SOL    HW239483   0.321  13.640   3.244
45884SOL     OW39484  12.660   2.475   2.443
45884SOL    HW139485  12.606   2.446   2.517
45884SOL    HW239486  12.743   2.429   2.455
45885SOL     OW39487   1.135   7.924   6.616
45885SOL    HW139488   1.113   7.961   6.531
45885SOL    HW239489   1.052   7.922   6.664
45886SOL     OW39490  12.081   8.032   4.819
45886SOL    HW139491  12.089   8.027   4.724
45886SOL    HW239492  11.987   8.021   4.836
45887SOL     OW39493   0.532   8.208   3.715
45887SOL    HW139494   0.442   8.198   3.683
45887SOL    HW239495   0.559   8.119   3.738
45888SOL     OW39496   7.628   5.619   0.088
45888SOL    HW139497   7.610   5.529   0.115
45888SOL    HW239498   7.701   5.611   0.026
45889SOL     OW39499   9.850   5.554   5.461
45889SOL    HW139500   9.926   5.589   5.415
45889SOL    HW239501   9.792   5.629   5.474
45890SOL     OW39502   9.171   1.475  13.486
45890SOL    HW139503   9.185   1.392  13.441
45890SOL    HW239504   9.258   1.513  13.497
45891SOL     OW39505   3.132  10.761   2.135
45891SOL    HW139506   3.057  10.704   2.147
45891SOL    HW239507   3.190  10.740   2.208
45892SOL     OW39508   7.504  11.204   4.612
45892SOL    HW139509   7.434  11.140   4.600
45892SOL    HW239510   7.503  11.223   4.706
45893SOL     OW39511  14.374   2.898   8.959
45893SOL    HW139512  14.367   2.817   8.909
45893SOL    HW239513  14.389   2.966   8.893
45894SOL     OW39514  11.299  14.036   0.890
45894SOL    HW139515  11.244  14.103   0.849
45894SOL    HW239516  11.387  14.053   0.857
45895SOL     OW39517  14.739  11.104   1.944
45895SOL    HW139518  14.720  11.157   2.021
45895SOL    HW239519  14.721  11.161   1.869
45896SOL     OW39520   3.591   9.941  11.931
45896SOL    HW139521   3.625   9.890  11.857
45896SOL    HW239522   3.664   9.943  11.993
45897SOL     OW39523  12.224   6.106  14.455
45897SOL    HW139524  12.215   6.033  14.394
45897SOL    HW239525  12.142   6.155  14.447
45898SOL     OW39526   2.378   4.603  13.947
45898SOL    HW139527   2.403   4.653  13.869
45898SOL    HW239528   2.421   4.649  14.020
45899SOL     OW39529   3.224   0.753   2.884
45899SOL    HW139530   3.263   0.666   2.870
45899SOL    HW239531   3.145   0.735   2.935
45900SOL     OW39532   5.726   1.705   7.524
45900SOL    HW139533   5.740   1.629   7.580
45900SOL    HW239534   5.687   1.669   7.444
45901SOL     OW39535  12.537   5.215   0.240
45901SOL    HW139536  12.612   5.206   0.299
45901SOL    HW239537  12.558   5.291   0.186
45902SOL     OW39538  11.709   4.970   0.592
45902SOL    HW139539  11.787   4.957   0.645
45902SOL    HW239540  11.743   5.002   0.508
45903SOL     OW39541   0.228   4.642   0.595
45903SOL    HW139542   0.272   4.718   0.556
45903SOL    HW239543   0.137   4.671   0.608
45904SOL     OW39544   2.901   9.493  14.439
45904SOL    HW139545   2.994   9.508  14.456
45904SOL    HW239546   2.871   9.574  14.398
45905SOL     OW39547  11.988   1.867   2.059
45905SOL    HW139548  12.016   1.812   1.986
45905SOL    HW239549  12.001   1.957   2.028
45906SOL     OW39550  14.151   1.353  10.288
45906SOL    HW139551  14.165   1.383  10.377
45906SOL    HW239552  14.083   1.286  10.295
45907SOL     OW39553  13.340  11.594   0.986
45907SOL    HW139554  13.361  11.509   1.024
45907SOL    HW239555  13.344  11.655   1.059
45908SOL     OW39556   1.376   3.451   6.749
45908SOL    HW139557   1.322   3.429   6.673
45908SOL    HW239558   1.396   3.366   6.789
45909SOL     OW39559   7.940   3.098   2.691
45909SOL    HW139560   7.919   3.075   2.601
45909SOL    HW239561   7.913   3.022   2.742
45910SOL     OW39562   8.832   3.155   7.328
45910SOL    HW139563   8.763   3.101   7.366
45910SOL    HW239564   8.867   3.205   7.402
45911SOL     OW39565  14.549  10.877   0.320
45911SOL    HW139566  14.504  10.925   0.250
45911SOL    HW239567  14.634  10.855   0.282
45912SOL     OW39568   8.194  11.322  12.137
45912SOL    HW139569   8.182  11.265  12.213
45912SOL    HW239570   8.111  11.370  12.129
45913SOL     OW39571   9.123   1.516  13.766
45913SOL    HW139572   9.158   1.603  13.784
45913SOL    HW239573   9.134   1.505  13.672
45914SOL     OW39574   2.495  13.996  11.712
45914SOL    HW139575   2.461  14.069  11.763
45914SOL    HW239576   2.433  13.986  11.640
45915SOL     OW39577   2.938   7.087   8.875
45915SOL    HW139578   3.012   7.096   8.934
45915SOL    HW239579   2.943   7.163   8.817
45916SOL     OW39580  11.007  11.792   4.507
45916SOL    HW139581  10.964  11.857   4.450
45916SOL    HW239582  10.998  11.709   4.460
45917SOL     OW39583  10.343  14.458   8.639
45917SOL    HW139584  10.353  14.533   8.580
45917SOL    HW239585  10.432  14.434   8.663
45918SOL     OW39586  11.650   1.316  12.874
45918SOL    HW139587  11.573   1.286  12.827
45918SOL    HW239588  11.663   1.252  12.944
45919SOL     OW39589  14.057  10.221  12.677
45919SOL    HW139590  13.976  10.272  12.684
45919SOL    HW239591  14.107  10.264  12.607
45920SOL     OW39592   1.026   6.988  12.674
45920SOL    HW139593   1.064   7.075  12.662
45920SOL    HW239594   0.987   6.966  12.589
45921SOL     OW39595   6.942  13.503   7.374
45921SOL    HW139596   6.908  13.535   7.291
45921SOL    HW239597   6.983  13.419   7.353
45922SOL     OW39598   7.118  12.227   2.698
45922SOL    HW139599   7.126  12.321   2.714
45922SOL    HW239600   7.035  12.203   2.739
45923SOL     OW39601   0.940  13.344  11.782
45923SOL    HW139602   0.927  13.253  11.757
45923SOL    HW239603   0.897  13.352  11.867
45924SOL     OW39604   3.991  13.856   6.330
45924SOL    HW139605   4.049  13.828   6.401
45924SOL    HW239606   3.973  13.777   6.281
45925SOL     OW39607  14.288   6.364   0.843
45925SOL    HW139608  14.194   6.346   0.849
45925SOL    HW239609  14.311   6.343   0.753
45926SOL     OW39610   5.467  10.693   9.845
45926SOL    HW139611   5.406  10.623   9.869
45926SOL    HW239612   5.553  10.658   9.867
45927SOL     OW39613   6.966   3.887   6.214
45927SOL    HW139614   7.039   3.836   6.248
45927SOL    HW239615   6.892   3.865   6.271
45928SOL     OW39616   2.177   0.690   6.552
45928SOL    HW139617   2.096   0.698   6.501
45928SOL    HW239618   2.221   0.775   6.542
45929SOL     OW39619   9.154   3.504  13.178
45929SOL    HW139620   9.142   3.538  13.267
45929SOL    HW239621   9.248   3.489  13.170
45930SOL     OW39622   6.007   0.141   5.916
45930SOL    HW139623   6.036   0.057   5.950
45930SOL    HW239624   5.942   0.171   5.979
45931SOL     OW39625   9.047   2.049   3.895
45931SOL    HW139626   9.113   1.989   3.931
45931SOL    HW239627   9.098   2.120   3.856
45932SOL     OW39628  12.426  10.227  11.550
45932SOL    HW139629  12.354  10.285  11.575
45932SOL    HW239630  12.461  10.196  11.633
45933SOL     OW39631   2.586  12.150  12.962
45933SOL    HW139632   2.525  12.220  12.942
45933SOL    HW239633   2.586  12.095  12.884
45934SOL     OW39634   3.543   5.161   9.584
45934SOL    HW139635   3.636   5.151   9.563
45934SOL    HW239636   3.498   5.140   9.502
45935SOL     OW39637  10.895   9.259   6.642
45935SOL    HW139638  10.863   9.324   6.705
45935SOL    HW239639  10.927   9.311   6.568
45936SOL     OW39640  10.088   7.600   4.225
45936SOL    HW139641  10.177   7.631   4.239
45936SOL    HW239642  10.034   7.656   4.282
45937SOL     OW39643  13.565   6.490   2.808
45937SOL    HW139644  13.486   6.532   2.839
45937SOL    HW239645  13.585   6.534   2.725
45938SOL     OW39646   9.644   9.437   8.993
45938SOL    HW139647   9.719   9.438   9.052
45938SOL    HW239648   9.576   9.487   9.038
45939SOL     OW39649   3.302   5.838  14.759
45939SOL    HW139650   3.339   5.847  14.671
45939SOL    HW239651   3.208   5.846  14.746
45940SOL     OW39652   3.530  12.516   5.356
45940SOL    HW139653   3.554  12.445   5.296
45940SOL    HW239654   3.597  12.582   5.343
45941SOL     OW39655   7.956  13.895   0.075
45941SOL    HW139656   7.979  13.986   0.091
45941SOL    HW239657   8.036  13.855   0.041
45942SOL     OW39658   4.920   8.347   3.305
45942SOL    HW139659   4.970   8.321   3.228
45942SOL    HW239660   4.899   8.439   3.291
45943SOL     OW39661   0.116   9.770  10.226
45943SOL    HW139662   0.131   9.730  10.311
45943SOL    HW239663   0.101   9.862  10.244
45944SOL     OW39664   5.361  10.275   8.222
45944SOL    HW139665   5.315  10.280   8.305
45944SOL    HW239666   5.312  10.333   8.163
45945SOL     OW39667   6.507   2.804  12.833
45945SOL    HW139668   6.495   2.782  12.926
45945SOL    HW239669   6.445   2.876  12.818
45946SOL     OW39670   4.409  12.406   2.859
45946SOL    HW139671   4.468  12.375   2.927
45946SOL    HW239672   4.393  12.329   2.804
45947SOL     OW39673  10.663   9.220   9.200
45947SOL    HW139674  10.681   9.308   9.167
45947SOL    HW239675  10.702   9.219   9.287
45948SOL     OW39676   0.170   2.485   5.563
45948SOL    HW139677   0.141   2.431   5.637
45948SOL    HW239678   0.145   2.574   5.587
45949SOL     OW39679  12.089  14.469  10.113
45949SOL    HW139680  12.027  14.501  10.048
45949SOL    HW239681  12.083  14.374  10.107
45950SOL     OW39682   5.123   1.197  13.019
45950SOL    HW139683   5.088   1.135  12.955
45950SOL    HW239684   5.141   1.143  13.097
45951SOL     OW39685   8.853   6.589  14.422
45951SOL    HW139686   8.884   6.505  14.390
45951SOL    HW239687   8.932   6.634  14.451
45952SOL     OW39688   4.693   9.832   1.918
45952SOL    HW139689   4.726   9.919   1.937
45952SOL    HW239690   4.770   9.780   1.894
45953SOL     OW39691   0.947   1.019   4.468
45953SOL    HW139692   1.011   1.038   4.537
45953SOL    HW239693   1.000   0.995   4.392
45954SOL     OW39694   7.065  12.895   3.775
45954SOL    HW139695   7.093  12.972   3.826
45954SOL    HW239696   6.985  12.867   3.818
45955SOL     OW39697  12.494   7.400  11.820
45955SOL    HW139698  12.447   7.345  11.882
45955SOL    HW239699  12.582   7.408  11.856
45956SOL     OW39700   1.998  14.546   8.232
45956SOL    HW139701   1.925  14.545   8.170
45956SOL    HW239702   2.020  14.639   8.241
45957SOL     OW39703  12.841  11.613   9.975
45957SOL    HW139704  12.763  11.599  10.028
45957SOL    HW239705  12.841  11.541   9.912
45958SOL     OW39706   7.509   0.680   9.889
45958SOL    HW139707   7.487   0.610   9.827
45958SOL    HW239708   7.432   0.688   9.944
45959SOL     OW39709   8.591   1.986   1.084
45959SOL    HW139710   8.668   1.928   1.085
45959SOL    HW239711   8.628   2.074   1.076
45960SOL     OW39712  12.332   9.318   8.731
45960SOL    HW139713  12.343   9.409   8.757
45960SOL    HW239714  12.381   9.310   8.649
45961SOL     OW39715  12.775   4.627  10.026
45961SOL    HW139716  12.716   4.651  10.097
45961SOL    HW239717  12.775   4.703   9.968
45962SOL     OW39718   5.232   6.919   9.556
45962SOL    HW139719   5.215   7.008   9.588
45962SOL    HW239720   5.246   6.930   9.462
45963SOL     OW39721   7.150   4.107   6.209
45963SOL    HW139722   7.090   4.181   6.214
45963SOL    HW239723   7.094   4.030   6.217
45964SOL     OW39724   0.160   8.716   2.132
45964SOL    HW139725   0.101   8.780   2.172
45964SOL    HW239726   0.178   8.653   2.203
45965SOL     OW39727   1.195   5.345   7.144
45965SOL    HW139728   1.107   5.346   7.107
45965SOL    HW239729   1.228   5.257   7.126
45966SOL     OW39730   0.597   5.968   0.978
45966SOL    HW139731   0.543   6.027   1.030
45966SOL    HW239732   0.687   5.999   0.991
45967SOL     OW39733   4.157  14.696   5.350
45967SOL    HW139734   4.128  14.653   5.270
45967SOL    HW239735   4.115  14.782   5.347
45968SOL     OW39736   4.178   7.848   2.914
45968SOL    HW139737   4.236   7.923   2.899
45968SOL    HW239738   4.227   7.773   2.881
45969SOL     OW39739  11.410  14.578   9.309
45969SOL    HW139740  11.496  14.573   9.349
45969SOL    HW239741  11.394  14.672   9.297
45970SOL     OW39742   6.251   5.784   9.271
45970SOL    HW139743   6.198   5.841   9.215
45970SOL    HW239744   6.268   5.837   9.349
45971SOL     OW39745   1.074  13.987  12.756
45971SOL    HW139746   1.139  13.920  12.779
45971SOL    HW239747   1.116  14.040  12.689
45972SOL     OW39748   7.841   5.447  11.962
45972SOL    HW139749   7.848   5.391  12.040
45972SOL    HW239750   7.873   5.532  11.991
45973SOL     OW39751   6.966  10.771   1.873
45973SOL    HW139752   6.966  10.684   1.834
45973SOL    HW239753   7.050  10.809   1.846
45974SOL     OW39754   4.396  10.431   1.470
45974SOL    HW139755   4.343  10.374   1.526
45974SOL    HW239756   4.344  10.511   1.460
45975SOL     OW39757   3.299  13.996   8.104
45975SOL    HW139758   3.238  13.939   8.056
45975SOL    HW239759   3.283  14.083   8.069
45976SOL     OW39760  14.643   3.506  14.154
45976SOL    HW139761  14.567   3.460  14.190
45976SOL    HW239762  14.716   3.448  14.172
45977SOL     OW39763   1.498   5.034   8.380
45977SOL    HW139764   1.545   5.101   8.331
45977SOL    HW239765   1.431   5.082   8.428
45978SOL     OW39766   1.228   1.057   6.992
45978SOL    HW139767   1.264   1.033   7.077
45978SOL    HW239768   1.225   1.153   6.993
45979SOL     OW39769  14.601   6.035  12.917
45979SOL    HW139770  14.637   6.069  12.835
45979SOL    HW239771  14.511   6.009  12.895
45980SOL     OW39772   5.655   9.822  13.563
45980SOL    HW139773   5.633   9.907  13.525
45980SOL    HW239774   5.585   9.763  13.533
45981SOL     OW39775   2.043   9.066   5.786
45981SOL    HW139776   2.046   8.972   5.771
45981SOL    HW239777   2.078   9.105   5.705
45982SOL     OW39778  13.080  14.519  12.537
45982SOL    HW139779  13.072  14.428  12.566
45982SOL    HW239780  12.992  14.554  12.545
45983SOL     OW39781  12.488   0.708   0.148
45983SOL    HW139782  12.467   0.757   0.228
45983SOL    HW239783  12.431   0.632   0.151
45984SOL     OW39784  13.737  13.836  11.456
45984SOL    HW139785  13.811  13.790  11.416
45984SOL    HW239786  13.700  13.773  11.518
45985SOL     OW39787   0.220   4.335  14.674
45985SOL    HW139788   0.292   4.377  14.721
45985SOL    HW239789   0.187   4.402  14.615
45986SOL     OW39790  13.855   4.396   6.247
45986SOL    HW139791  13.843   4.306   6.276
45986SOL    HW239792  13.771   4.420   6.209
45987SOL     OW39793  13.480  13.682   4.363
45987SOL    HW139794  13.555  13.713   4.412
45987SOL    HW239795  13.513  13.607   4.313
45988SOL     OW39796   7.688   7.566  12.821
45988SOL    HW139797   7.728   7.479  12.813
45988SOL    HW239798   7.760   7.624  12.845
45989SOL     OW39799  14.029   4.832  12.535
45989SOL    HW139800  14.069   4.745  12.545
45989SOL    HW239801  14.102   4.893  12.547
45990SOL     OW39802   4.351   1.343   7.332
45990SOL    HW139803   4.256   1.327   7.331
45990SOL    HW239804   4.361   1.422   7.386
45991SOL     OW39805   8.068   4.227   7.976
45991SOL    HW139806   8.087   4.190   8.062
45991SOL    HW239807   7.973   4.224   7.969
45992SOL     OW39808   0.854  12.692   9.713
45992SOL    HW139809   0.931  12.701   9.657
45992SOL    HW239810   0.811  12.613   9.683
45993SOL     OW39811  13.034   6.386   6.886
45993SOL    HW139812  12.991   6.398   6.971
45993SOL    HW239813  12.963   6.388   6.822
45994SOL     OW39814   4.680  14.723  12.484
45994SOL    HW139815   4.685  14.782  12.559
45994SOL    HW239816   4.763  14.674  12.487
45995SOL     OW39817   3.405   5.755  12.322
45995SOL    HW139818   3.398   5.789  12.412
45995SOL    HW239819   3.490   5.712  12.320
45996SOL     OW39820   0.667   7.144   3.656
45996SOL    HW139821   0.605   7.088   3.704
45996SOL    HW239822   0.639   7.233   3.676
45997SOL     OW39823  14.546   0.661   3.331
45997SOL    HW139824  14.618   0.612   3.291
45997SOL    HW239825  14.540   0.626   3.420
45998SOL     OW39826   2.001   9.404   7.162
45998SOL    HW139827   1.970   9.484   7.204
45998SOL    HW239828   2.049   9.357   7.230
45999SOL     OW39829  13.532  11.528   8.582
45999SOL    HW139830  13.591  11.546   8.655
45999SOL    HW239831  13.583  11.551   8.504
46000SOL     OW39832  10.611  10.614  12.257
46000SOL    HW139833  10.661  10.593  12.178
46000SOL    HW239834  10.543  10.547  12.261
46001SOL     OW39835  14.366   3.496  10.066
46001SOL    HW139836  14.379   3.561   9.997
46001SOL    HW239837  14.427   3.523  10.135
46002SOL     OW39838   4.684   8.725  12.852
46002SOL    HW139839   4.626   8.649  12.854
46002SOL    HW239840   4.764   8.694  12.810
46003SOL     OW39841  11.253  14.844   6.471
46003SOL    HW139842  11.297  14.813   6.392
46003SOL    HW239843  11.246  14.766   6.527
46004SOL     OW39844  13.956   0.761   6.557
46004SOL    HW139845  13.868   0.784   6.586
46004SOL    HW239846  13.982   0.688   6.613
46005SOL     OW39847   5.612   1.774   3.303
46005SOL    HW139848   5.583   1.858   3.269
46005SOL    HW239849   5.533   1.721   3.309
46006SOL     OW39850   0.734   9.429  12.218
46006SOL    HW139851   0.793   9.397  12.286
46006SOL    HW239852   0.789   9.438  12.140
46007SOL     OW39853   9.545   4.529   6.370
46007SOL    HW139854   9.490   4.510   6.445
46007SOL    HW239855   9.486   4.526   6.295
46008SOL     OW39856  11.082   0.231   9.383
46008SOL    HW139857  11.064   0.321   9.357
46008SOL    HW239858  11.154   0.238   9.445
46009SOL     OW39859  13.397   5.290   6.272
46009SOL    HW139860  13.387   5.213   6.329
46009SOL    HW239861  13.377   5.365   6.329
46010SOL     OW39862   0.983   6.090   1.934
46010SOL    HW139863   1.048   6.086   2.004
46010SOL    HW239864   0.899   6.097   1.979
46011SOL     OW39865   1.775  14.305   7.343
46011SOL    HW139866   1.841  14.326   7.276
46011SOL    HW239867   1.765  14.210   7.339
46012SOL     OW39868   2.615   4.511  13.495
46012SOL    HW139869   2.648   4.601  13.491
46012SOL    HW239870   2.526   4.520  13.528
46013SOL     OW39871   5.666   0.477   6.063
46013SOL    HW139872   5.640   0.390   6.034
46013SOL    HW239873   5.588   0.512   6.106
46014SOL     OW39874   6.558  14.202   3.925
46014SOL    HW139875   6.639  14.178   3.969
46014SOL    HW239876   6.491  14.150   3.970
46015SOL     OW39877   1.679  14.588   1.742
46015SOL    HW139878   1.718  14.675   1.752
46015SOL    HW239879   1.621  14.596   1.666
46016SOL     OW39880   0.661   6.312   0.383
46016SOL    HW139881   0.609   6.387   0.412
46016SOL    HW239882   0.697   6.339   0.298
46017SOL     OW39883   0.423  11.457  11.907
46017SOL    HW139884   0.331  11.450  11.882
46017SOL    HW239885   0.437  11.383  11.966
46018SOL     OW39886   5.252   8.578  11.667
46018SOL    HW139887   5.204   8.548  11.744
46018SOL    HW239888   5.217   8.665  11.649
46019SOL     OW39889  12.354   3.360   2.695
46019SOL    HW139890  12.408   3.437   2.711
46019SOL    HW239891  12.307   3.345   2.777
46020SOL     OW39892  14.062   3.546   0.470
46020SOL    HW139893  14.061   3.522   0.562
46020SOL    HW239894  13.987   3.499   0.432
46021SOL     OW39895  14.596   1.701   7.721
46021SOL    HW139896  14.575   1.612   7.692
46021SOL    HW239897  14.592   1.754   7.641
46022SOL     OW39898   3.304   7.932   1.513
46022SOL    HW139899   3.338   7.974   1.433
46022SOL    HW239900   3.210   7.948   1.511
46023SOL     OW39901  10.188   3.174   9.428
46023SOL    HW139902  10.182   3.164   9.523
46023SOL    HW239903  10.124   3.242   9.406
46024SOL     OW39904   0.916  13.998   9.097
46024SOL    HW139905   0.895  14.075   9.045
46024SOL    HW239906   0.831  13.968   9.129
46025SOL     OW39907   7.023   0.945  13.686
46025SOL    HW139908   7.005   1.022  13.632
46025SOL    HW239909   6.936   0.913  13.711
46026SOL     OW39910  12.476  11.489   9.430
46026SOL    HW139911  12.490  11.417   9.492
46026SOL    HW239912  12.425  11.451   9.359
46027SOL     OW39913  13.922  13.887  13.934
46027SOL    HW139914  13.934  13.793  13.920
46027SOL    HW239915  13.828  13.897  13.947
46028SOL     OW39916   3.867   1.740   5.112
46028SOL    HW139917   3.940   1.685   5.140
46028SOL    HW239918   3.789   1.697   5.148
46029SOL     OW39919  14.711   8.782   8.709
46029SOL    HW139920  14.641   8.843   8.687
46029SOL    HW239921  14.728   8.735   8.628
46030SOL     OW39922   7.995   3.272   4.121
46030SOL    HW139923   7.994   3.282   4.026
46030SOL    HW239924   7.904   3.279   4.148
46031SOL     OW39925  11.092  14.835   7.342
46031SOL    HW139926  11.083   0.033   7.405
46031SOL    HW239927  11.113   0.005   7.259
46032SOL     OW39928   8.962   6.408   8.463
46032SOL    HW139929   9.001   6.465   8.530
46032SOL    HW239930   8.871   6.437   8.458
46033SOL     OW39931  13.654   8.986  14.760
46033SOL    HW139932  13.731   9.039  14.779
46033SOL    HW239933  13.683   8.926  14.691
46034SOL     OW39934   2.675   4.168  13.513
46034SOL    HW139935   2.679   4.177  13.608
46034SOL    HW239936   2.761   4.196  13.483
46035SOL     OW39937  13.784   6.254   8.985
46035SOL    HW139938  13.859   6.291   8.940
46035SOL    HW239939  13.797   6.159   8.980
46036SOL     OW39940  14.149  12.066  13.818
46036SOL    HW139941  14.087  12.134  13.790
46036SOL    HW239942  14.153  12.005  13.744
46037SOL     OW39943  14.824  10.694  10.996
46037SOL    HW139944  14.790  10.621  11.047
46037SOL    HW239945  14.762  10.765  11.012
46038SOL     OW39946   2.884   4.787   0.593
46038SOL    HW139947   2.909   4.719   0.530
46038SOL    HW239948   2.855   4.738   0.670
46039SOL     OW39949   6.084  12.974  13.992
46039SOL    HW139950   6.127  12.949  13.910
46039SOL    HW239951   6.081  13.069  13.989
46040SOL     OW39952   4.353   4.092   7.025
46040SOL    HW139953   4.433   4.122   6.981
46040SOL    HW239954   4.347   3.999   7.005
46041SOL     OW39955  10.071   2.027  14.311
46041SOL    HW139956   9.980   2.036  14.284
46041SOL    HW239957  10.095   2.113  14.345
46042SOL     OW39958  10.783   0.666  14.471
46042SOL    HW139959  10.689   0.666  14.492
46042SOL    HW239960  10.801   0.755  14.442
46043SOL     OW39961   6.314   9.228   8.465
46043SOL    HW139962   6.366   9.171   8.409
46043SOL    HW239963   6.378   9.288   8.503
46044SOL     OW39964   7.835   4.591   4.983
46044SOL    HW139965   7.742   4.568   4.976
46044SOL    HW239966   7.858   4.574   5.074
46045SOL     OW39967   8.569   3.941   9.103
46045SOL    HW139968   8.488   3.898   9.131
46045SOL    HW239969   8.549   4.035   9.110
46046SOL     OW39970   9.540   1.771  11.036
46046SOL    HW139971   9.510   1.688  11.001
46046SOL    HW239972   9.612   1.748  11.094
46047SOL     OW39973   1.397   2.357   3.628
46047SOL    HW139974   1.307   2.391   3.627
46047SOL    HW239975   1.430   2.373   3.540
46048SOL     OW39976  14.628  11.414  10.266
46048SOL    HW139977  14.562  11.370  10.212
46048SOL    HW239978  14.652  11.492  10.216
46049SOL     OW39979   4.864   9.836   7.302
46049SOL    HW139980   4.863   9.749   7.264
46049SOL    HW239981   4.908   9.891   7.237
46050SOL     OW39982  11.683   0.155   4.671
46050SOL    HW139983  11.645   0.109   4.597
46050SOL    HW239984  11.761   0.104   4.694
46051SOL     OW39985   2.061  14.452   3.169
46051SOL    HW139986   2.130  14.514   3.146
46051SOL    HW239987   2.088  14.370   3.130
46052SOL     OW39988   1.199  14.234   2.228
46052SOL    HW139989   1.157  14.223   2.143
46052SOL    HW239990   1.177  14.324   2.255
46053SOL     OW39991  12.765   7.859   7.869
46053SOL    HW139992  12.823   7.932   7.847
46053SOL    HW239993  12.764   7.857   7.965
46054SOL     OW39994  10.926   5.207  10.812
46054SOL    HW139995  10.874   5.275  10.854
46054SOL    HW239996  10.862   5.153  10.765
46055SOL     OW39997  14.617  10.791   2.739
46055SOL    HW139998  14.637  10.859   2.804
46055SOL    HW239999  14.695  10.736   2.737
46056SOL     OW40000   6.285   2.749   2.547
46056SOL    HW140001   6.360   2.789   2.501
46056SOL    HW240002   6.310   2.751   2.639
46057SOL     OW40003   4.107   8.200   5.890
46057SOL    HW140004   4.089   8.208   5.796
46057SOL    HW240005   4.085   8.286   5.926
46058SOL     OW40006  14.480  12.507   5.859
46058SOL    HW140007  14.475  12.476   5.949
46058SOL    HW240008  14.394  12.490   5.822
46059SOL     OW40009   0.319   3.493   7.304
46059SOL    HW140010   0.257   3.440   7.255
46059SOL    HW240011   0.303   3.470   7.396
46060SOL     OW40012   1.192   7.101   3.932
46060SOL    HW140013   1.237   7.134   4.009
46060SOL    HW240014   1.199   7.171   3.868
46061SOL     OW40015   8.019  10.161   2.297
46061SOL    HW140016   8.053  10.090   2.350
46061SOL    HW240017   8.011  10.125   2.208
46062SOL     OW40018   7.261   3.052   7.631
46062SOL    HW140019   7.186   3.087   7.583
46062SOL    HW240020   7.278   3.116   7.699
46063SOL     OW40021   9.561   3.151   4.079
46063SOL    HW140022   9.557   3.214   4.151
46063SOL    HW240023   9.644   3.170   4.035
46064SOL     OW40024   7.443   0.588   0.262
46064SOL    HW140025   7.502   0.663   0.266
46064SOL    HW240026   7.370   0.618   0.209
46065SOL     OW40027  12.489   1.519   4.410
46065SOL    HW140028  12.539   1.437   4.404
46065SOL    HW240029  12.518   1.570   4.335
46066SOL     OW40030   6.627   5.762   6.980
46066SOL    HW140031   6.613   5.729   7.068
46066SOL    HW240032   6.622   5.857   6.989
46067SOL     OW40033   0.385  12.595   0.515
46067SOL    HW140034   0.441  12.568   0.587
46067SOL    HW240035   0.301  12.553   0.532
46068SOL     OW40036   2.213  10.903   2.560
46068SOL    HW140037   2.143  10.869   2.616
46068SOL    HW240038   2.180  10.987   2.528
46069SOL     OW40039   7.150  10.319   4.653
46069SOL    HW140040   7.108  10.271   4.582
46069SOL    HW240041   7.243  10.318   4.630
46070SOL     OW40042  13.211   1.079  14.480
46070SOL    HW140043  13.231   1.075  14.573
46070SOL    HW240044  13.132   1.026  14.470
46071SOL     OW40045  13.867   6.312   4.649
46071SOL    HW140046  13.950   6.264   4.646
46071SOL    HW240047  13.817   6.275   4.576
46072SOL     OW40048   3.908   2.801   9.687
46072SOL    HW140049   3.825   2.755   9.699
46072SOL    HW240050   3.887   2.893   9.707
46073SOL     OW40051   4.576   9.213  11.743
46073SOL    HW140052   4.572   9.305  11.716
46073SOL    HW240053   4.612   9.167  11.667
46074SOL     OW40054   3.930   5.080  14.173
46074SOL    HW140055   3.925   5.069  14.078
46074SOL    HW240056   3.946   4.992  14.206
46075SOL     OW40057   9.479  12.242   7.891
46075SOL    HW140058   9.414  12.290   7.840
46075SOL    HW240059   9.556  12.299   7.892
46076SOL     OW40060   5.242   2.109  11.604
46076SOL    HW140061   5.153   2.103  11.637
46076SOL    HW240062   5.258   2.025  11.561
46077SOL     OW40063   2.795  13.726   0.321
46077SOL    HW140064   2.780  13.635   0.293
46077SOL    HW240065   2.890  13.732   0.333
46078SOL     OW40066   4.281   5.693  14.747
46078SOL    HW140067   4.315   5.773  14.708
46078SOL    HW240068   4.187   5.708  14.756
46079SOL     OW40069   0.274   0.008  14.576
46079SOL    HW140070   0.263   0.095  14.615
46079SOL    HW240071   0.300   0.024  14.486
46080SOL     OW40072  12.599  13.732   4.680
46080SOL    HW140073  12.597  13.785   4.759
46080SOL    HW240074  12.665  13.665   4.697
46081SOL     OW40075  11.842   5.697   3.146
46081SOL    HW140076  11.923   5.718   3.101
46081SOL    HW240077  11.855   5.731   3.235
46082SOL     OW40078  14.001   7.195   1.336
46082SOL    HW140079  14.052   7.182   1.416
46082SOL    HW240080  14.007   7.112   1.289
46083SOL     OW40081   8.679   7.196   5.566
46083SOL    HW140082   8.718   7.172   5.482
46083SOL    HW240083   8.663   7.112   5.610
46084SOL     OW40084   3.767   9.110   1.262
46084SOL    HW140085   3.674   9.095   1.276
46084SOL    HW240086   3.808   9.078   1.343
46085SOL     OW40087   1.036   5.943   0.151
46085SOL    HW140088   1.004   5.998   0.080
46085SOL    HW240089   0.996   5.980   0.230
46086SOL     OW40090   6.758   9.944  10.021
46086SOL    HW140091   6.677   9.897  10.006
46086SOL    HW240092   6.731  10.034  10.042
46087SOL     OW40093  11.393  10.997   4.506
46087SOL    HW140094  11.420  10.909   4.530
46087SOL    HW240095  11.298  10.994   4.508
46088SOL     OW40096   2.614  10.182  14.862
46088SOL    HW140097   2.694  10.221  14.829
46088SOL    HW240098   2.570  10.147  14.785
46089SOL     OW40099   4.885   7.558  12.117
46089SOL    HW140100   4.852   7.638  12.157
46089SOL    HW240101   4.876   7.572  12.023
46090SOL     OW40102   7.986   9.873  12.568
46090SOL    HW140103   7.983   9.792  12.619
46090SOL    HW240104   7.905   9.919  12.591
46091SOL     OW40105  12.781   2.834  11.537
46091SOL    HW140106  12.799   2.926  11.517
46091SOL    HW240107  12.748   2.834  11.626
46092SOL     OW40108   1.557   3.912   5.907
46092SOL    HW140109   1.522   3.823   5.915
46092SOL    HW240110   1.480   3.968   5.918
46093SOL     OW40111   5.601  12.849   0.731
46093SOL    HW140112   5.520  12.842   0.780
46093SOL    HW240113   5.646  12.766   0.745
46094SOL     OW40114   9.542   5.114  13.696
46094SOL    HW140115   9.592   5.060  13.756
46094SOL    HW240116   9.604   5.137  13.626
46095SOL     OW40117   4.984   6.432  10.523
46095SOL    HW140118   5.017   6.506  10.574
46095SOL    HW240119   4.970   6.467  10.435
46096SOL     OW40120   8.616  14.586   1.711
46096SOL    HW140121   8.543  14.572   1.771
46096SOL    HW240122   8.694  14.570   1.764
46097SOL     OW40123   0.730   3.203   5.789
46097SOL    HW140124   0.685   3.135   5.839
46097SOL    HW240125   0.704   3.189   5.698
46098SOL     OW40126   9.643   7.083   7.874
46098SOL    HW140127   9.659   7.047   7.961
46098SOL    HW240128   9.611   7.008   7.823
46099SOL     OW40129   2.730   8.651   8.614
46099SOL    HW140130   2.772   8.719   8.561
46099SOL    HW240131   2.685   8.596   8.551
46100SOL     OW40132   1.621   2.005  12.729
46100SOL    HW140133   1.566   2.059  12.672
46100SOL    HW240134   1.559   1.952  12.779
46101SOL     OW40135  11.815   6.876  10.966
46101SOL    HW140136  11.780   6.923  10.890
46101SOL    HW240137  11.743   6.820  10.996
46102SOL     OW40138   8.126   0.938  11.518
46102SOL    HW140139   8.084   1.016  11.482
46102SOL    HW240140   8.194   0.973  11.576
46103SOL     OW40141   6.856   8.760  13.052
46103SOL    HW140142   6.900   8.822  12.993
46103SOL    HW240143   6.841   8.682  12.999
46104SOL     OW40144   1.139   9.450  12.407
46104SOL    HW140145   1.189   9.405  12.475
46104SOL    HW240146   1.177   9.537  12.403
46105SOL     OW40147   8.431   9.676   5.127
46105SOL    HW140148   8.498   9.616   5.160
46105SOL    HW240149   8.481   9.742   5.078
46106SOL     OW40150   0.014  10.909   8.189
46106SOL    HW140151  14.826  10.982   8.199
46106SOL    HW240152   0.097  10.950   8.167
46107SOL     OW40153   1.087   2.919   4.352
46107SOL    HW140154   1.000   2.948   4.382
46107SOL    HW240155   1.134   2.897   4.432
46108SOL     OW40156  12.081   8.139  10.666
46108SOL    HW140157  11.992   8.142  10.701
46108SOL    HW240158  12.070   8.143  10.571
46109SOL     OW40159   0.724  14.276   5.356
46109SOL    HW140160   0.725  14.263   5.451
46109SOL    HW240161   0.804  14.326   5.338
46110SOL     OW40162   8.666   9.100   3.954
46110SOL    HW140163   8.623   9.116   3.870
46110SOL    HW240164   8.753   9.137   3.944
46111SOL     OW40165   7.058   2.370   9.849
46111SOL    HW140166   7.152   2.389   9.844
46111SOL    HW240167   7.047   2.324   9.932
46112SOL     OW40168  10.919   4.597   5.654
46112SOL    HW140169  10.920   4.685   5.617
46112SOL    HW240170  10.964   4.605   5.738
46113SOL     OW40171   4.472   2.730   5.113
46113SOL    HW140172   4.460   2.729   5.018
46113SOL    HW240173   4.541   2.795   5.128
46114SOL     OW40174   1.177   1.866  11.429
46114SOL    HW140175   1.253   1.854  11.486
46114SOL    HW240176   1.198   1.818  11.349
46115SOL     OW40177   2.832   0.932  11.645
46115SOL    HW140178   2.913   0.891  11.675
46115SOL    HW240179   2.825   1.012  11.697
46116SOL     OW40180   2.044   5.402   5.599
46116SOL    HW140181   2.023   5.359   5.682
46116SOL    HW240182   1.962   5.445   5.573
46117SOL     OW40183  14.612   2.165   3.197
46117SOL    HW140184  14.605   2.073   3.222
46117SOL    HW240185  14.593   2.167   3.104
46118SOL     OW40186  10.805  11.498   3.330
46118SOL    HW140187  10.715  11.527   3.343
46118SOL    HW240188  10.822  11.514   3.237
46119SOL     OW40189   8.149  13.947  14.321
46119SOL    HW140190   8.229  13.896  14.305
46119SOL    HW240191   8.128  13.931  14.413
46120SOL     OW40192   0.527   9.794  13.856
46120SOL    HW140193   0.576   9.787  13.938
46120SOL    HW240194   0.557   9.875  13.816
46121SOL     OW40195   4.244   7.208   1.665
46121SOL    HW140196   4.339   7.217   1.658
46121SOL    HW240197   4.216   7.285   1.715
46122SOL     OW40198  10.437   9.849   4.120
46122SOL    HW140199  10.501   9.899   4.070
46122SOL    HW240200  10.486   9.810   4.192
46123SOL     OW40201  10.321   8.848   6.012
46123SOL    HW140202  10.352   8.764   6.047
46123SOL    HW240203  10.338   8.911   6.082
46124SOL     OW40204   1.474   1.933  14.394
46124SOL    HW140205   1.489   1.987  14.316
46124SOL    HW240206   1.560   1.928  14.437
46125SOL     OW40207   7.596  11.671  10.767
46125SOL    HW140208   7.565  11.580  10.775
46125SOL    HW240209   7.540  11.710  10.700
46126SOL     OW40210  10.314  12.632  14.616
46126SOL    HW140211  10.389  12.594  14.661
46126SOL    HW240212  10.333  12.726  14.612
46127SOL     OW40213   8.033   6.522   1.367
46127SOL    HW140214   7.954   6.482   1.332
46127SOL    HW240215   8.038   6.607   1.324
46128SOL     OW40216  13.211   7.272   0.537
46128SOL    HW140217  13.194   7.220   0.459
46128SOL    HW240218  13.128   7.272   0.585
46129SOL     OW40219   4.762  13.194   0.286
46129SOL    HW140220   4.843  13.171   0.331
46129SOL    HW240221   4.780  13.175   0.194
46130SOL     OW40222   4.379   8.336   7.790
46130SOL    HW140223   4.401   8.296   7.874
46130SOL    HW240224   4.296   8.294   7.765
46131SOL     OW40225   3.781  13.437   5.669
46131SOL    HW140226   3.745  13.517   5.707
46131SOL    HW240227   3.714  13.407   5.607
46132SOL     OW40228   0.410   9.962   5.743
46132SOL    HW140229   0.387   9.874   5.775
46132SOL    HW240230   0.370  10.021   5.807
46133SOL     OW40231  14.185   7.119   1.576
46133SOL    HW140232  14.191   7.067   1.656
46133SOL    HW240233  14.247   7.078   1.516
46134SOL     OW40234   7.218   8.490   2.346
46134SOL    HW140235   7.191   8.398   2.342
46134SOL    HW240236   7.293   8.496   2.287
46135SOL     OW40237  12.382   0.226   8.353
46135SOL    HW140238  12.439   0.270   8.289
46135SOL    HW240239  12.436   0.217   8.431
46136SOL     OW40240   6.380  11.706   2.017
46136SOL    HW140241   6.390  11.680   1.925
46136SOL    HW240242   6.337  11.631   2.058
46137SOL     OW40243   5.913   3.770  12.271
46137SOL    HW140244   5.899   3.676  12.287
46137SOL    HW240245   5.901   3.781  12.177
46138SOL     OW40246   7.451  11.314  14.345
46138SOL    HW140247   7.506  11.312  14.267
46138SOL    HW240248   7.362  11.308  14.312
46139SOL     OW40249   3.152   2.291   2.871
46139SOL    HW140250   3.187   2.319   2.786
46139SOL    HW240251   3.209   2.332   2.936
46140SOL     OW40252  11.065   9.687  13.297
46140SOL    HW140253  11.104   9.709  13.382
46140SOL    HW240254  11.123   9.728  13.233
46141SOL     OW40255  11.689  14.530  13.549
46141SOL    HW140256  11.710  14.514  13.641
46141SOL    HW240257  11.598  14.502  13.539
46142SOL     OW40258   9.472   9.383   5.376
46142SOL    HW140259   9.451   9.466   5.420
46142SOL    HW240260   9.467   9.318   5.446
46143SOL     OW40261  12.231   3.881   4.056
46143SOL    HW140262  12.206   3.792   4.082
46143SOL    HW240263  12.287   3.912   4.127
46144SOL     OW40264  14.800   5.202  14.699
46144SOL    HW140265  14.730   5.136  14.701
46144SOL    HW240266   0.008   5.151  14.692
46145SOL     OW40267   3.264  13.039  10.823
46145SOL    HW140268   3.268  13.028  10.728
46145SOL    HW240269   3.170  13.049  10.842
46146SOL     OW40270   1.501   0.344   2.366
46146SOL    HW140271   1.475   0.281   2.433
46146SOL    HW240272   1.449   0.422   2.384
46147SOL     OW40273   8.039   0.147   7.552
46147SOL    HW140274   7.954   0.190   7.546
46147SOL    HW240275   8.026   0.063   7.509
46148SOL     OW40276  13.201  12.456   6.743
46148SOL    HW140277  13.140  12.490   6.808
46148SOL    HW240278  13.269  12.524   6.736
46149SOL     OW40279  11.473   7.061   0.402
46149SOL    HW140280  11.423   7.071   0.483
46149SOL    HW240281  11.462   7.144   0.356
46150SOL     OW40282  11.902   3.831   7.072
46150SOL    HW140283  11.822   3.818   7.022
46150SOL    HW240284  11.955   3.889   7.018
46151SOL     OW40285   1.187   2.341  12.471
46151SOL    HW140286   1.146   2.296  12.545
46151SOL    HW240287   1.211   2.427  12.505
46152SOL     OW40288  10.064   5.849  11.502
46152SOL    HW140289  10.078   5.916  11.435
46152SOL    HW240290  10.105   5.770  11.466
46153SOL     OW40291  13.727   2.138   5.810
46153SOL    HW140292  13.768   2.177   5.888
46153SOL    HW240293  13.634   2.131   5.833
46154SOL     OW40294  13.680  13.467  14.175
46154SOL    HW140295  13.695  13.453  14.082
46154SOL    HW240296  13.621  13.542  14.178
46155SOL     OW40297   3.134   2.448   3.347
46155SOL    HW140298   3.163   2.517   3.406
46155SOL    HW240299   3.040   2.442   3.361
46156SOL     OW40300  10.243  10.321   1.097
46156SOL    HW140301  10.321  10.274   1.067
46156SOL    HW240302  10.277  10.394   1.148
46157SOL     OW40303  14.713   4.081   2.465
46157SOL    HW140304  14.679   3.998   2.432
46157SOL    HW240305  14.717   4.138   2.388
46158SOL     OW40306   0.481   4.382   5.716
46158SOL    HW140307   0.440   4.468   5.728
46158SOL    HW240308   0.449   4.353   5.630
46159SOL     OW40309   5.340  10.742   0.436
46159SOL    HW140310   5.256  10.733   0.391
46159SOL    HW240311   5.361  10.654   0.465
46160SOL     OW40312   1.346  10.158   3.951
46160SOL    HW140313   1.387  10.128   3.870
46160SOL    HW240314   1.415  10.204   3.998
46161SOL     OW40315   0.601  13.067   2.464
46161SOL    HW140316   0.639  13.035   2.382
46161SOL    HW240317   0.670  13.052   2.529
46162SOL     OW40318   6.229  11.695   0.847
46162SOL    HW140319   6.165  11.765   0.861
46162SOL    HW240320   6.189  11.639   0.781
46163SOL     OW40321   5.755   7.256  12.902
46163SOL    HW140322   5.693   7.328  12.918
46163SOL    HW240323   5.839   7.299  12.887
46164SOL     OW40324  14.383   1.504   4.224
46164SOL    HW140325  14.290   1.495   4.202
46164SOL    HW240326  14.386   1.573   4.290
46165SOL     OW40327   5.636   9.211   5.948
46165SOL    HW140328   5.659   9.122   5.976
46165SOL    HW240329   5.563   9.199   5.887
46166SOL     OW40330  10.427   2.503   9.193
46166SOL    HW140331  10.507   2.544   9.161
46166SOL    HW240332  10.377   2.576   9.230
46167SOL     OW40333  14.067   2.242   7.284
46167SOL    HW140334  14.086   2.238   7.191
46167SOL    HW240335  14.044   2.152   7.308
46168SOL     OW40336  12.109   8.458  11.799
46168SOL    HW140337  12.102   8.507  11.881
46168SOL    HW240338  12.199   8.425  11.798
46169SOL     OW40339  10.468  13.479   0.551
46169SOL    HW140340  10.386  13.432   0.537
46169SOL    HW240341  10.452  13.531   0.630
46170SOL     OW40342  10.064   9.518  10.978
46170SOL    HW140343  10.115   9.548  10.903
46170SOL    HW240344  10.120   9.537  11.054
46171SOL     OW40345   2.158   2.425   9.952
46171SOL    HW140346   2.251   2.425   9.973
46171SOL    HW240347   2.115   2.434  10.037
46172SOL     OW40348   8.787   1.989  11.865
46172SOL    HW140349   8.724   2.048  11.824
46172SOL    HW240350   8.732   1.918  11.901
46173SOL     OW40351   4.943   9.220   6.567
46173SOL    HW140352   5.025   9.255   6.530
46173SOL    HW240353   4.936   9.132   6.530
46174SOL     OW40354   0.688   1.074  10.230
46174SOL    HW140355   0.723   1.069  10.319
46174SOL    HW240356   0.600   1.038  10.235
46175SOL     OW40357   7.106   5.647   0.807
46175SOL    HW140358   7.041   5.637   0.738
46175SOL    HW240359   7.183   5.599   0.775
46176SOL     OW40360   1.083   4.463   7.013
46176SOL    HW140361   1.097   4.479   7.106
46176SOL    HW240362   1.124   4.538   6.969
46177SOL     OW40363  11.797  11.504   4.504
46177SOL    HW140364  11.789  11.431   4.565
46177SOL    HW240365  11.710  11.514   4.466
46178SOL     OW40366  12.878   4.734   7.125
46178SOL    HW140367  12.796   4.686   7.137
46178SOL    HW240368  12.886   4.743   7.030
46179SOL     OW40369   3.413   0.954   3.259
46179SOL    HW140370   3.433   0.882   3.319
46179SOL    HW240371   3.334   0.994   3.296
46180SOL     OW40372   7.712   9.444   6.029
46180SOL    HW140373   7.638   9.409   5.978
46180SOL    HW240374   7.755   9.366   6.064
46181SOL     OW40375  11.123  13.689   1.106
46181SOL    HW140376  11.161  13.625   1.045
46181SOL    HW240377  11.122  13.644   1.190
46182SOL     OW40378   3.079  13.359   1.414
46182SOL    HW140379   3.118  13.412   1.484
46182SOL    HW240380   3.147  13.355   1.346
46183SOL     OW40381   1.232   7.742   5.744
46183SOL    HW140382   1.167   7.810   5.759
46183SOL    HW240383   1.304   7.763   5.804
46184SOL     OW40384   5.624   3.388   6.700
46184SOL    HW140385   5.551   3.447   6.680
46184SOL    HW240386   5.694   3.416   6.641
46185SOL     OW40387   4.608   0.421   5.771
46185SOL    HW140388   4.575   0.333   5.789
46185SOL    HW240389   4.631   0.419   5.678
46186SOL     OW40390  13.939   4.254   4.489
46186SOL    HW140391  13.950   4.348   4.505
46186SOL    HW240392  13.856   4.232   4.533
46187SOL     OW40393   5.772  10.254   3.606
46187SOL    HW140394   5.866  10.274   3.610
46187SOL    HW240395   5.768  10.165   3.571
46188SOL     OW40396   2.975  14.702   0.079
46188SOL    HW140397   3.009  14.752   0.154
46188SOL    HW240398   2.917  14.763   0.034
46189SOL     OW40399   3.619   9.093  10.718
46189SOL    HW140400   3.532   9.120  10.691
46189SOL    HW240401   3.610   9.001  10.740
46190SOL     OW40402   6.428  10.620  13.135
46190SOL    HW140403   6.479  10.629  13.215
46190SOL    HW240404   6.479  10.668  13.069
46191SOL     OW40405   7.894   3.169   8.218
46191SOL    HW140406   7.813   3.123   8.240
46191SOL    HW240407   7.867   3.256   8.190
46192SOL     OW40408   4.440   8.320  14.184
46192SOL    HW140409   4.480   8.312  14.271
46192SOL    HW240410   4.352   8.284  14.194
46193SOL     OW40411  11.020   7.507   0.651
46193SOL    HW140412  11.059   7.526   0.565
46193SOL    HW240413  10.942   7.455   0.631
46194SOL     OW40414   8.167   9.139   4.440
46194SOL    HW140415   8.119   9.059   4.459
46194SOL    HW240416   8.168   9.145   4.345
46195SOL     OW40417   5.201   4.020  10.855
46195SOL    HW140418   5.139   4.085  10.888
46195SOL    HW240419   5.147   3.949  10.823
46196SOL     OW40420   7.770  12.518   1.021
46196SOL    HW140421   7.783  12.575   0.946
46196SOL    HW240422   7.678  12.530   1.046
46197SOL     OW40423   8.791   8.681   7.564
46197SOL    HW140424   8.817   8.773   7.559
46197SOL    HW240425   8.738   8.667   7.486
46198SOL     OW40426   3.953   2.410  12.784
46198SOL    HW140427   3.923   2.456  12.706
46198SOL    HW240428   4.044   2.438  12.796
46199SOL     OW40429   8.344  13.966  12.826
46199SOL    HW140430   8.369  14.046  12.873
46199SOL    HW240431   8.251  13.954  12.845
46200SOL     OW40432   2.001  14.348   4.009
46200SOL    HW140433   1.988  14.339   4.104
46200SOL    HW240434   1.965  14.267   3.972
46201SOL     OW40435   4.343   1.409   0.468
46201SOL    HW140436   4.313   1.459   0.391
46201SOL    HW240437   4.340   1.318   0.439
46202SOL     OW40438   5.240  10.656   9.336
46202SOL    HW140439   5.150  10.661   9.368
46202SOL    HW240440   5.246  10.723   9.268
46203SOL     OW40441   2.662  10.244   1.523
46203SOL    HW140442   2.624  10.184   1.459
46203SOL    HW240443   2.756  10.226   1.521
46204SOL     OW40444   4.926   2.629   5.243
46204SOL    HW140445   5.002   2.574   5.225
46204SOL    HW240446   4.869   2.574   5.297
46205SOL     OW40447   0.120   1.790   9.600
46205SOL    HW140448   0.207   1.830   9.591
46205SOL    HW240449   0.064   1.842   9.542
46206SOL     OW40450  14.575  11.771   2.479
46206SOL    HW140451  14.482  11.792   2.475
46206SOL    HW240452  14.618  11.845   2.436
46207SOL     OW40453  12.896  13.537  11.337
46207SOL    HW140454  12.872  13.455  11.293
46207SOL    HW240455  12.857  13.605  11.282
46208SOL     OW40456   4.787  14.433   5.360
46208SOL    HW140457   4.870  14.386   5.351
46208SOL    HW240458   4.721  14.364   5.365
46209SOL     OW40459  14.473  13.329   9.673
46209SOL    HW140460  14.543  13.393   9.686
46209SOL    HW240461  14.406  13.376   9.624
46210SOL     OW40462  14.534   3.412   8.720
46210SOL    HW140463  14.489   3.462   8.789
46210SOL    HW240464  14.627   3.418   8.743
46211SOL     OW40465  11.371  13.283   9.833
46211SOL    HW140466  11.283  13.321   9.827
46211SOL    HW240467  11.419  13.325   9.761
46212SOL     OW40468   5.619   2.260   3.736
46212SOL    HW140469   5.638   2.331   3.798
46212SOL    HW240470   5.566   2.198   3.786
46213SOL     OW40471  13.631   5.127   3.262
46213SOL    HW140472  13.681   5.053   3.228
46213SOL    HW240473  13.542   5.093   3.273
46214SOL     OW40474   3.370  14.036   4.583
46214SOL    HW140475   3.296  14.017   4.641
46214SOL    HW240476   3.334  14.030   4.495
46215SOL     OW40477  11.860   5.086   8.362
46215SOL    HW140478  11.888   5.143   8.290
46215SOL    HW240479  11.881   4.998   8.331
46216SOL     OW40480   5.148   6.841  13.969
46216SOL    HW140481   5.160   6.921  13.919
46216SOL    HW240482   5.105   6.780  13.908
46217SOL     OW40483   5.297  12.126   9.034
46217SOL    HW140484   5.300  12.115   9.129
46217SOL    HW240485   5.204  12.128   9.013
46218SOL     OW40486   0.278   4.662   6.798
46218SOL    HW140487   0.265   4.586   6.855
46218SOL    HW240488   0.220   4.646   6.724
46219SOL     OW40489   8.261  10.343  11.886
46219SOL    HW140490   8.258  10.405  11.959
46219SOL    HW240491   8.245  10.258  11.926
46220SOL     OW40492   9.473   8.692   2.754
46220SOL    HW140493   9.530   8.674   2.679
46220SOL    HW240494   9.531   8.682   2.830
46221SOL     OW40495   0.037   9.465   1.117
46221SOL    HW140496   0.095   9.410   1.065
46221SOL    HW240497  14.852   9.507   1.052
46222SOL     OW40498   4.032  11.758  12.446
46222SOL    HW140499   3.944  11.797  12.444
46222SOL    HW240500   4.017  11.667  12.470
46223SOL     OW40501   2.430   3.981   7.030
46223SOL    HW140502   2.385   3.900   7.053
46223SOL    HW240503   2.367   4.030   6.978
46224SOL     OW40504  10.737   9.924  13.886
46224SOL    HW140505  10.710  10.012  13.913
46224SOL    HW240506  10.684   9.906  13.808
46225SOL     OW40507   6.134   0.713   2.903
46225SOL    HW140508   6.184   0.786   2.869
46225SOL    HW240509   6.050   0.751   2.929
46226SOL     OW40510   5.342   4.955  13.747
46226SOL    HW140511   5.369   4.866  13.769
46226SOL    HW240512   5.261   4.968  13.797
46227SOL     OW40513   2.507   8.947   4.801
46227SOL    HW140514   2.540   8.875   4.855
46227SOL    HW240515   2.412   8.940   4.807
46228SOL     OW40516  12.990   5.525   2.518
46228SOL    HW140517  13.047   5.505   2.591
46228SOL    HW240518  13.049   5.550   2.447
46229SOL     OW40519   5.741   5.770  14.815
46229SOL    HW140520   5.690   5.692  14.838
46229SOL    HW240521   5.695   5.806  14.739
46230SOL     OW40522  13.970   2.867   7.181
46230SOL    HW140523  13.892   2.818   7.156
46230SOL    HW240524  13.970   2.865   7.277
46231SOL     OW40525   7.510   3.653  11.514
46231SOL    HW140526   7.456   3.713  11.566
46231SOL    HW240527   7.484   3.671  11.423
46232SOL     OW40528   8.010  11.147   4.537
46232SOL    HW140529   8.074  11.087   4.500
46232SOL    HW240530   7.937  11.091   4.564
46233SOL     OW40531   4.960   9.375   5.195
46233SOL    HW140532   5.040   9.323   5.205
46233SOL    HW240533   4.930   9.356   5.106
46234SOL     OW40534  14.212   7.850   6.421
46234SOL    HW140535  14.132   7.817   6.381
46234SOL    HW240536  14.252   7.904   6.353
46235SOL     OW40537  11.311  14.418   9.488
46235SOL    HW140538  11.351  14.469   9.417
46235SOL    HW240539  11.347  14.455   9.568
46236SOL     OW40540   4.508   2.301  13.471
46236SOL    HW140541   4.555   2.308  13.388
46236SOL    HW240542   4.500   2.391  13.502
46237SOL     OW40543   2.913   4.585   0.086
46237SOL    HW140544   2.930   4.493   0.064
46237SOL    HW240545   2.953   4.597   0.172
46238SOL     OW40546   3.652  11.371  14.859
46238SOL    HW140547   3.565  11.357   0.025
46238SOL    HW240548   3.685  11.449   0.030
46239SOL     OW40549  11.280   7.424   4.358
46239SOL    HW140550  11.298   7.478   4.435
46239SOL    HW240551  11.198   7.460   4.323
46240SOL     OW40552  13.716  10.034   7.484
46240SOL    HW140553  13.762  10.115   7.504
46240SOL    HW240554  13.716  10.029   7.388
46241SOL     OW40555   8.473   9.291  14.002
46241SOL    HW140556   8.461   9.378  14.040
46241SOL    HW240557   8.534   9.247  14.061
46242SOL     OW40558  11.678  12.578   2.773
46242SOL    HW140559  11.616  12.532   2.830
46242SOL    HW240560  11.764  12.545   2.801
46243SOL     OW40561   8.909  13.143   9.850
46243SOL    HW140562   8.916  13.092   9.931
46243SOL    HW240563   8.893  13.232   9.879
46244SOL     OW40564   9.172  10.042  11.722
46244SOL    HW140565   9.205   9.952  11.716
46244SOL    HW240566   9.091  10.042  11.670
46245SOL     OW40567   1.840   7.150   7.895
46245SOL    HW140568   1.779   7.213   7.858
46245SOL    HW240569   1.785   7.077   7.923
46246SOL     OW40570  14.275   0.901   2.264
46246SOL    HW140571  14.234   0.913   2.179
46246SOL    HW240572  14.202   0.889   2.325
46247SOL     OW40573   6.671  11.534   9.591
46247SOL    HW140574   6.583  11.572   9.601
46247SOL    HW240575   6.676  11.511   9.499
46248SOL     OW40576   1.912  13.424  10.670
46248SOL    HW140577   1.933  13.330  10.667
46248SOL    HW240578   1.871  13.442  10.585
46249SOL     OW40579   8.797   2.996  11.675
46249SOL    HW140580   8.827   2.953  11.595
46249SOL    HW240581   8.712   2.956  11.694
46250SOL     OW40582  14.394   6.241   9.162
46250SOL    HW140583  14.346   6.282   9.090
46250SOL    HW240584  14.420   6.314   9.219
46251SOL     OW40585   8.514  13.047   6.623
46251SOL    HW140586   8.552  13.134   6.633
46251SOL    HW240587   8.491  13.020   6.712
46252SOL     OW40588   3.709   4.374   3.164
46252SOL    HW140589   3.762   4.318   3.220
46252SOL    HW240590   3.772   4.417   3.107
46253SOL     OW40591   0.942  12.848   6.392
46253SOL    HW140592   0.930  12.810   6.305
46253SOL    HW240593   1.036  12.865   6.399
46254SOL     OW40594   9.169   4.531   2.289
46254SOL    HW140595   9.220   4.612   2.282
46254SOL    HW240596   9.173   4.493   2.202
46255SOL     OW40597   8.763  10.883  14.320
46255SOL    HW140598   8.798  10.933  14.394
46255SOL    HW240599   8.674  10.861  14.347
46256SOL     OW40600  11.115   7.740  14.621
46256SOL    HW140601  11.160   7.735  14.706
46256SOL    HW240602  11.039   7.794  14.637
46257SOL     OW40603   2.925   4.045  12.616
46257SOL    HW140604   2.886   4.011  12.697
46257SOL    HW240605   3.006   4.087  12.645
46258SOL     OW40606   1.080   4.918   0.994
46258SOL    HW140607   1.114   4.898   0.907
46258SOL    HW240608   1.158   4.925   1.049
46259SOL     OW40609   8.230  10.772   4.152
46259SOL    HW140610   8.312  10.743   4.113
46259SOL    HW240611   8.226  10.729   4.237
46260SOL     OW40612   6.530   1.779   1.767
46260SOL    HW140613   6.508   1.780   1.674
46260SOL    HW240614   6.563   1.867   1.785
46261SOL     OW40615   1.310   5.970   1.451
46261SOL    HW140616   1.316   5.999   1.360
46261SOL    HW240617   1.400   5.951   1.476
46262SOL     OW40618   1.043   7.599   5.615
46262SOL    HW140619   1.122   7.629   5.659
46262SOL    HW240620   0.974   7.608   5.680
46263SOL     OW40621  12.931   9.551  10.642
46263SOL    HW140622  13.026   9.539  10.653
46263SOL    HW240623  12.893   9.517  10.722
46264SOL     OW40624  10.743   0.074   4.152
46264SOL    HW140625  10.681   0.146   4.162
46264SOL    HW240626  10.689  14.870   4.135
46265SOL     OW40627   6.647   1.676   7.744
46265SOL    HW140628   6.663   1.760   7.702
46265SOL    HW240629   6.555   1.657   7.727
46266SOL     OW40630   0.026   8.169  13.054
46266SOL    HW140631   0.081   8.149  12.978
46266SOL    HW240632  14.863   8.084  13.081
46267SOL     OW40633   0.662   8.937   4.740
46267SOL    HW140634   0.654   8.871   4.809
46267SOL    HW240635   0.679   8.887   4.661
46268SOL     OW40636   1.325   1.736  13.939
46268SOL    HW140637   1.303   1.785  14.018
46268SOL    HW240638   1.419   1.721  13.945
46269SOL     OW40639   2.863   0.211  10.108
46269SOL    HW140640   2.914   0.238  10.184
46269SOL    HW240641   2.781   0.178  10.144
46270SOL     OW40642  10.497  14.583   3.137
46270SOL    HW140643  10.476  14.580   3.044
46270SOL    HW240644  10.438  14.520   3.178
46271SOL     OW40645   8.005  11.638  12.228
46271SOL    HW140646   7.988  11.731  12.241
46271SOL    HW240647   8.072  11.635  12.159
46272SOL     OW40648   4.889   7.950  10.469
46272SOL    HW140649   4.830   7.972  10.397
46272SOL    HW240650   4.965   7.909  10.426
46273SOL     OW40651   2.467   7.826  11.890
46273SOL    HW140652   2.383   7.870  11.877
46273SOL    HW240653   2.481   7.827  11.985
46274SOL     OW40654   8.941   7.226  12.280
46274SOL    HW140655   8.994   7.193  12.353
46274SOL    HW240656   8.854   7.237  12.317
46275SOL     OW40657   4.491   1.873   6.912
46275SOL    HW140658   4.438   1.849   6.988
46275SOL    HW240659   4.482   1.968   6.904
46276SOL     OW40660  10.180   1.853   1.483
46276SOL    HW140661  10.174   1.766   1.523
46276SOL    HW240662  10.137   1.911   1.546
46277SOL     OW40663   4.100   7.022  13.006
46277SOL    HW140664   4.075   6.930  13.014
46277SOL    HW240665   4.196   7.020  13.000
46278SOL     OW40666   8.826  12.308   2.668
46278SOL    HW140667   8.800  12.308   2.760
46278SOL    HW240668   8.794  12.224   2.634
46279SOL     OW40669   8.286   7.645   4.852
46279SOL    HW140670   8.333   7.630   4.935
46279SOL    HW240671   8.327   7.584   4.790
46280SOL     OW40672   2.113   9.121  12.888
46280SOL    HW140673   2.091   9.194  12.830
46280SOL    HW240674   2.032   9.071  12.894
46281SOL     OW40675   8.099  14.009  10.339
46281SOL    HW140676   8.151  14.062  10.278
46281SOL    HW240677   8.088  14.065  10.416
46282SOL     OW40678   0.316   1.406  14.086
46282SOL    HW140679   0.315   1.495  14.051
46282SOL    HW240680   0.352   1.353  14.015
46283SOL     OW40681   0.341   9.016  10.021
46283SOL    HW140682   0.430   8.999   9.990
46283SOL    HW240683   0.321   9.104   9.990
46284SOL     OW40684   0.862   1.365   4.847
46284SOL    HW140685   0.825   1.276   4.852
46284SOL    HW240686   0.786   1.422   4.851
46285SOL     OW40687  14.054  10.612  11.454
46285SOL    HW140688  14.004  10.535  11.481
46285SOL    HW240689  14.076  10.657  11.535
46286SOL     OW40690   6.369   8.594   9.028
46286SOL    HW140691   6.382   8.675   9.076
46286SOL    HW240692   6.300   8.615   8.964
46287SOL     OW40693   5.684   6.480  14.004
46287SOL    HW140694   5.592   6.504  14.019
46287SOL    HW240695   5.712   6.539  13.934
46288SOL     OW40696   5.326   1.848   5.318
46288SOL    HW140697   5.406   1.825   5.366
46288SOL    HW240698   5.269   1.772   5.329
46289SOL     OW40699   3.888  12.029   5.543
46289SOL    HW140700   3.805  12.006   5.584
46289SOL    HW240701   3.877  12.004   5.451
46290SOL     OW40702  11.229   7.142  11.142
46290SOL    HW140703  11.265   7.200  11.209
46290SOL    HW240704  11.139   7.173  11.129
46291SOL     OW40705   6.478  13.072  13.955
46291SOL    HW140706   6.561  13.029  13.975
46291SOL    HW240707   6.479  13.153  14.006
46292SOL     OW40708   9.103   8.239   9.137
46292SOL    HW140709   9.148   8.302   9.082
46292SOL    HW240710   9.115   8.154   9.094
46293SOL     OW40711   1.613   0.603  10.156
46293SOL    HW140712   1.635   0.621  10.065
46293SOL    HW240713   1.660   0.670  10.206
46294SOL     OW40714   3.225   5.037   1.483
46294SOL    HW140715   3.250   5.103   1.547
46294SOL    HW240716   3.231   4.954   1.530
46295SOL     OW40717   6.859   7.771  14.844
46295SOL    HW140718   6.879   7.864  14.838
46295SOL    HW240719   6.886   7.734  14.760
46296SOL     OW40720   8.967  13.180  14.645
46296SOL    HW140721   8.978  13.144  14.734
46296SOL    HW240722   9.031  13.132  14.592
46297SOL     OW40723  14.520   3.072   8.756
46297SOL    HW140724  14.590   3.012   8.731
46297SOL    HW240725  14.551   3.116   8.835
46298SOL     OW40726   7.190  12.508   0.143
46298SOL    HW140727   7.181  12.416   0.168
46298SOL    HW240728   7.156  12.557   0.218
46299SOL     OW40729   0.533   5.413  12.503
46299SOL    HW140730   0.606   5.428  12.563
46299SOL    HW240731   0.475   5.353  12.550
46300SOL     OW40732   3.559  10.158   7.459
46300SOL    HW140733   3.616  10.230   7.432
46300SOL    HW240734   3.619  10.093   7.495
46301SOL     OW40735   6.144  13.012   7.323
46301SOL    HW140736   6.189  13.076   7.269
46301SOL    HW240737   6.179  12.927   7.294
46302SOL     OW40738   6.679   1.538   5.272
46302SOL    HW140739   6.610   1.473   5.287
46302SOL    HW240740   6.669   1.563   5.180
46303SOL     OW40741   0.284   9.121   5.638
46303SOL    HW140742   0.215   9.059   5.663
46303SOL    HW240743   0.267   9.139   5.545
46304SOL     OW40744   5.728  12.441   1.972
46304SOL    HW140745   5.672  12.389   2.030
46304SOL    HW240746   5.817  12.424   2.002
46305SOL     OW40747  13.239  11.102  14.405
46305SOL    HW140748  13.231  11.035  14.473
46305SOL    HW240749  13.333  11.112  14.391
46306SOL     OW40750  12.598  10.628  12.217
46306SOL    HW140751  12.667  10.683  12.256
46306SOL    HW240752  12.575  10.566  12.286
46307SOL     OW40753   5.504  11.535   8.383
46307SOL    HW140754   5.480  11.491   8.464
46307SOL    HW240755   5.452  11.615   8.382
46308SOL     OW40756  14.493  13.058   5.775
46308SOL    HW140757  14.442  12.979   5.759
46308SOL    HW240758  14.580  13.027   5.801
46309SOL     OW40759   3.016   4.583   7.009
46309SOL    HW140760   2.979   4.669   7.030
46309SOL    HW240761   3.056   4.554   7.091
46310SOL     OW40762   7.536   8.532  12.574
46310SOL    HW140763   7.478   8.601  12.607
46310SOL    HW240764   7.624   8.563  12.597
46311SOL     OW40765   1.287  11.160  12.518
46311SOL    HW140766   1.331  11.191  12.597
46311SOL    HW240767   1.311  11.067  12.511
46312SOL     OW40768   8.994   4.946   9.939
46312SOL    HW140769   8.932   5.001   9.891
46312SOL    HW240770   8.939   4.885   9.989
46313SOL     OW40771   1.709   0.627   3.044
46313SOL    HW140772   1.793   0.584   3.031
46313SOL    HW240773   1.683   0.656   2.957
46314SOL     OW40774   1.258   3.938   5.322
46314SOL    HW140775   1.208   3.902   5.249
46314SOL    HW240776   1.222   3.894   5.399
46315SOL     OW40777   9.248   6.014  10.303
46315SOL    HW140778   9.336   6.034  10.272
46315SOL    HW240779   9.242   6.055  10.389
46316SOL     OW40780   2.419  11.153   9.418
46316SOL    HW140781   2.407  11.177   9.326
46316SOL    HW240782   2.392  11.061   9.422
46317SOL     OW40783   0.380   4.174  10.274
46317SOL    HW140784   0.453   4.150  10.217
46317SOL    HW240785   0.421   4.188  10.360
46318SOL     OW40786  12.572   5.686   8.170
46318SOL    HW140787  12.562   5.591   8.166
46318SOL    HW240788  12.573   5.706   8.264
46319SOL     OW40789   2.448   8.328   5.294
46319SOL    HW140790   2.421   8.302   5.383
46319SOL    HW240791   2.542   8.343   5.302
46320SOL     OW40792   0.964   8.899   8.567
46320SOL    HW140793   0.886   8.947   8.594
46320SOL    HW240794   1.020   8.900   8.645
46321SOL     OW40795   0.890   2.334   0.455
46321SOL    HW140796   0.947   2.406   0.481
46321SOL    HW240797   0.949   2.268   0.418
46322SOL     OW40798   2.696  14.075   5.308
46322SOL    HW140799   2.745  14.001   5.344
46322SOL    HW240800   2.764  14.139   5.286
46323SOL     OW40801   3.472   6.395   4.650
46323SOL    HW140802   3.412   6.461   4.684
46323SOL    HW240803   3.553   6.443   4.632
46324SOL     OW40804   2.663   4.024  13.293
46324SOL    HW140805   2.657   4.071  13.376
46324SOL    HW240806   2.757   4.018  13.275
46325SOL     OW40807  12.645   0.125   6.784
46325SOL    HW140808  12.709   0.171   6.730
46325SOL    HW240809  12.614   0.053   6.729
46326SOL     OW40810   3.218  11.868   1.462
46326SOL    HW140811   3.171  11.791   1.493
46326SOL    HW240812   3.153  11.938   1.461
46327SOL     OW40813  13.751   6.790  12.510
46327SOL    HW140814  13.721   6.864  12.456
46327SOL    HW240815  13.679   6.728  12.507
46328SOL     OW40816  13.223  11.946   8.238
46328SOL    HW140817  13.248  11.854   8.237
46328SOL    HW240818  13.131  11.947   8.261
46329SOL     OW40819   6.176  13.819   1.545
46329SOL    HW140820   6.239  13.848   1.611
46329SOL    HW240821   6.115  13.763   1.593
46330SOL     OW40822   5.346   0.179  11.703
46330SOL    HW140823   5.291   0.104  11.679
46330SOL    HW240824   5.429   0.140  11.729
46331SOL     OW40825  14.503   0.597   0.227
46331SOL    HW140826  14.591   0.569   0.205
46331SOL    HW240827  14.448   0.521   0.207
46332SOL     OW40828  14.320   2.478  10.834
46332SOL    HW140829  14.291   2.387  10.834
46332SOL    HW240830  14.246   2.527  10.798
46333SOL     OW40831  14.682  13.423   7.693
46333SOL    HW140832  14.762  13.403   7.742
46333SOL    HW240833  14.613  13.424   7.758
46334SOL     OW40834   5.641   3.865   7.768
46334SOL    HW140835   5.673   3.882   7.679
46334SOL    HW240836   5.623   3.771   7.770
46335SOL     OW40837   7.274   2.778   0.426
46335SOL    HW140838   7.196   2.729   0.452
46335SOL    HW240839   7.307   2.732   0.349
46336SOL     OW40840   3.976  14.134  13.543
46336SOL    HW140841   4.068  14.155  13.556
46336SOL    HW240842   3.947  14.195  13.474
46337SOL     OW40843   2.529  12.577   4.051
46337SOL    HW140844   2.521  12.670   4.069
46337SOL    HW240845   2.443  12.541   4.071
46338SOL     OW40846   9.501   5.019   4.214
46338SOL    HW140847   9.423   5.043   4.164
46338SOL    HW240848   9.571   5.072   4.174
46339SOL     OW40849   1.068  12.843  10.128
46339SOL    HW140850   1.143  12.891  10.093
46339SOL    HW240851   1.002  12.910  10.146
46340SOL     OW40852   7.278   2.650   8.842
46340SOL    HW140853   7.227   2.617   8.916
46340SOL    HW240854   7.344   2.707   8.882
46341SOL     OW40855   9.055   6.227   4.503
46341SOL    HW140856   9.039   6.320   4.519
46341SOL    HW240857   8.977   6.197   4.457
46342SOL     OW40858   3.073  13.901   7.863
46342SOL    HW140859   3.017  13.974   7.890
46342SOL    HW240860   3.043  13.826   7.916
46343SOL     OW40861   7.751   1.206  13.908
46343SOL    HW140862   7.834   1.232  13.868
46343SOL    HW240863   7.720   1.285  13.952
46344SOL     OW40864   9.386   4.835  10.939
46344SOL    HW140865   9.479   4.835  10.918
46344SOL    HW240866   9.381   4.869  11.029
46345SOL     OW40867   6.448  11.897  13.107
46345SOL    HW140868   6.356  11.898  13.080
46345SOL    HW240869   6.446  11.872  13.199
46346SOL     OW40870  12.950   4.172  10.482
46346SOL    HW140871  12.912   4.228  10.415
46346SOL    HW240872  13.043   4.169  10.460
46347SOL     OW40873  13.548   7.571   7.198
46347SOL    HW140874  13.569   7.483   7.229
46347SOL    HW240875  13.633   7.613   7.185
46348SOL     OW40876   0.871   0.504  14.563
46348SOL    HW140877   0.815   0.435  14.528
46348SOL    HW240878   0.929   0.460  14.625
46349SOL     OW40879   6.790   1.077   4.514
46349SOL    HW140880   6.783   1.013   4.443
46349SOL    HW240881   6.876   1.117   4.502
46350SOL     OW40882  13.868   5.766   2.305
46350SOL    HW140883  13.815   5.824   2.360
46350SOL    HW240884  13.951   5.759   2.351
46351SOL     OW40885  14.322   4.839   0.782
46351SOL    HW140886  14.354   4.926   0.802
46351SOL    HW240887  14.338   4.827   0.688
46352SOL     OW40888  12.811  12.501  10.600
46352SOL    HW140889  12.788  12.594  10.602
46352SOL    HW240890  12.731  12.458  10.568
46353SOL     OW40891   5.354   0.152   2.284
46353SOL    HW140892   5.347   0.199   2.367
46353SOL    HW240893   5.362   0.221   2.218
46354SOL     OW40894   1.293  10.565   6.310
46354SOL    HW140895   1.346  10.632   6.267
46354SOL    HW240896   1.357  10.503   6.345
46355SOL     OW40897   2.764   1.973   4.650
46355SOL    HW140898   2.803   2.052   4.687
46355SOL    HW240899   2.777   1.906   4.716
46356SOL     OW40900   5.355   0.772   1.789
46356SOL    HW140901   5.424   0.736   1.845
46356SOL    HW240902   5.359   0.866   1.805
46357SOL     OW40903   8.097   3.723   5.858
46357SOL    HW140904   8.077   3.639   5.816
46357SOL    HW240905   8.192   3.723   5.868
46358SOL     OW40906   2.906   8.872   8.481
46358SOL    HW140907   2.973   8.876   8.412
46358SOL    HW240908   2.846   8.943   8.460
46359SOL     OW40909   0.727   4.401   3.700
46359SOL    HW140910   0.672   4.393   3.622
46359SOL    HW240911   0.704   4.325   3.753
46360SOL     OW40912  14.645  12.261   6.504
46360SOL    HW140913  14.587  12.281   6.430
46360SOL    HW240914  14.597  12.291   6.581
46361SOL     OW40915   1.113   0.366   9.576
46361SOL    HW140916   1.045   0.356   9.510
46361SOL    HW240917   1.192   0.331   9.535
46362SOL     OW40918  14.722   3.511   1.362
46362SOL    HW140919  14.638   3.466   1.360
46362SOL    HW240920  14.786   3.440   1.372
46363SOL     OW40921   1.025   8.645  10.636
46363SOL    HW140922   1.057   8.582  10.572
46363SOL    HW240923   1.060   8.729  10.607
46364SOL     OW40924   9.292   1.174   6.131
46364SOL    HW140925   9.363   1.193   6.193
46364SOL    HW240926   9.295   1.246   6.069
46365SOL     OW40927  14.853   9.793  12.984
46365SOL    HW140928  14.838   9.825  13.073
46365SOL    HW240929  14.865   9.872  12.931
46366SOL     OW40930  10.403   6.296   0.896
46366SOL    HW140931  10.456   6.284   0.817
46366SOL    HW240932  10.432   6.226   0.955
46367SOL     OW40933   4.070   5.941   8.656
46367SOL    HW140934   3.984   5.933   8.698
46367SOL    HW240935   4.063   6.021   8.604
46368SOL     OW40936   9.862  14.627   0.443
46368SOL    HW140937   9.886  14.702   0.389
46368SOL    HW240938   9.820  14.666   0.520
46369SOL     OW40939   1.678  14.453   4.991
46369SOL    HW140940   1.593  14.454   5.035
46369SOL    HW240941   1.660  14.488   4.904
46370SOL     OW40942   0.582   0.449   2.485
46370SOL    HW140943   0.641   0.519   2.512
46370SOL    HW240944   0.513   0.494   2.436
46371SOL     OW40945   7.656   9.874   2.059
46371SOL    HW140946   7.607   9.795   2.036
46371SOL    HW240947   7.742   9.861   2.019
46372SOL     OW40948   6.770  14.087  12.397
46372SOL    HW140949   6.723  14.171  12.403
46372SOL    HW240950   6.771  14.054  12.487
46373SOL     OW40951   9.093  13.508   6.497
46373SOL    HW140952   9.128  13.421   6.477
46373SOL    HW240953   9.155  13.569   6.456
46374SOL     OW40954   7.369   2.013   3.064
46374SOL    HW140955   7.456   1.981   3.043
46374SOL    HW240956   7.378   2.053   3.151
46375SOL     OW40957   7.647   6.620  14.719
46375SOL    HW140958   7.715   6.684  14.743
46375SOL    HW240959   7.571   6.673  14.697
46376SOL     OW40960   8.467  12.568   4.664
46376SOL    HW140961   8.474  12.663   4.656
46376SOL    HW240962   8.410  12.553   4.739
46377SOL     OW40963  14.508   8.359   7.407
46377SOL    HW140964  14.450   8.297   7.365
46377SOL    HW240965  14.545   8.312   7.482
46378SOL     OW40966  14.152  11.147   7.443
46378SOL    HW140967  14.097  11.069   7.432
46378SOL    HW240968  14.129  11.202   7.368
46379SOL     OW40969   6.697  11.170   2.534
46379SOL    HW140970   6.787  11.191   2.560
46379SOL    HW240971   6.703  11.155   2.440
46380SOL     OW40972   1.418   0.344  13.146
46380SOL    HW140973   1.328   0.345  13.114
46380SOL    HW240974   1.433   0.432  13.179
46381SOL     OW40975   6.958   8.257   3.063
46381SOL    HW140976   6.994   8.170   3.074
46381SOL    HW240977   7.034   8.315   3.058
46382SOL     OW40978   8.696  14.115   9.098
46382SOL    HW140979   8.777  14.163   9.115
46382SOL    HW240980   8.721  14.023   9.105
46383SOL     OW40981   8.209   3.002   4.908
46383SOL    HW140982   8.157   2.984   4.830
46383SOL    HW240983   8.229   3.095   4.903
46384SOL     OW40984   6.732  13.241   0.863
46384SOL    HW140985   6.638  13.260   0.856
46384SOL    HW240986   6.753  13.261   0.955
46385SOL     OW40987   6.582   0.213   6.979
46385SOL    HW140988   6.662   0.197   6.930
46385SOL    HW240989   6.562   0.306   6.964
46386SOL     OW40990   6.968   9.826  12.708
46386SOL    HW140991   6.962   9.764  12.635
46386SOL    HW240992   7.020   9.898  12.674
46387SOL     OW40993   5.496   5.773   0.195
46387SOL    HW140994   5.525   5.696   0.147
46387SOL    HW240995   5.574   5.804   0.241
46388SOL     OW40996   7.211  10.621   8.436
46388SOL    HW140997   7.200  10.587   8.524
46388SOL    HW240998   7.124  10.616   8.397
46389SOL     OW40999  12.235  11.882   0.642
46389SOL    HW141000  12.272  11.832   0.715
46389SOL    HW241001  12.210  11.816   0.578
46390SOL     OW41002   6.913  12.859   9.155
46390SOL    HW141003   6.987  12.803   9.178
46390SOL    HW241004   6.858  12.860   9.234
46391SOL     OW41005   9.531  11.688   9.868
46391SOL    HW141006   9.500  11.727   9.786
46391SOL    HW241007   9.489  11.602   9.872
46392SOL     OW41008   4.863   3.106   2.502
46392SOL    HW141009   4.938   3.048   2.486
46392SOL    HW241010   4.902   3.193   2.511
46393SOL     OW41011   0.478   5.248   9.373
46393SOL    HW141012   0.525   5.311   9.318
46393SOL    HW241013   0.444   5.301   9.445
46394SOL     OW41014  12.396  13.876   1.454
46394SOL    HW141015  12.482  13.851   1.422
46394SOL    HW241016  12.337  13.862   1.380
46395SOL     OW41017   4.367   0.663   1.139
46395SOL    HW141018   4.286   0.623   1.171
46395SOL    HW241019   4.352   0.677   1.046
46396SOL     OW41020   4.320  13.736   9.691
46396SOL    HW141021   4.410  13.769   9.690
46396SOL    HW241022   4.269  13.806   9.650
46397SOL     OW41023   9.253  10.664  13.192
46397SOL    HW141024   9.195  10.612  13.136
46397SOL    HW241025   9.333  10.676  13.139
46398SOL     OW41026   4.083   8.627   4.805
46398SOL    HW141027   4.020   8.691   4.774
46398SOL    HW241028   4.039   8.543   4.796
46399SOL     OW41029   8.913   0.551   7.186
46399SOL    HW141030   8.932   0.645   7.195
46399SOL    HW241031   8.855   0.531   7.259
46400SOL     OW41032   4.684  14.319   5.114
46400SOL    HW141033   4.642  14.400   5.084
46400SOL    HW241034   4.775  14.343   5.130
46401SOL     OW41035   1.285   8.172   6.233
46401SOL    HW141036   1.364   8.124   6.258
46401SOL    HW241037   1.304   8.207   6.146
46402SOL     OW41038   2.405  13.322   3.211
46402SOL    HW141039   2.485  13.306   3.161
46402SOL    HW241040   2.433  13.383   3.280
46403SOL     OW41041  14.084   9.990   8.846
46403SOL    HW141042  14.149   9.977   8.777
46403SOL    HW241043  14.097   9.916   8.905
46404SOL     OW41044  14.678   4.397   2.763
46404SOL    HW141045  14.633   4.478   2.740
46404SOL    HW241046  14.703   4.408   2.854
46405SOL     OW41047   0.606  14.431  10.092
46405SOL    HW141048   0.581  14.520  10.114
46405SOL    HW241049   0.702  14.434  10.082
46406SOL     OW41050   7.147   9.955   5.707
46406SOL    HW141051   7.206   9.900   5.656
46406SOL    HW241052   7.199  10.033   5.727
46407SOL     OW41053  10.375   7.004   5.670
46407SOL    HW141054  10.428   6.928   5.695
46407SOL    HW241055  10.286   6.982   5.695
46408SOL     OW41056   0.674  13.881  14.230
46408SOL    HW141057   0.708  13.864  14.142
46408SOL    HW241058   0.673  13.976  14.238
46409SOL     OW41059  10.882   3.324  13.065
46409SOL    HW141060  10.865   3.335  12.971
46409SOL    HW241061  10.976   3.310  13.071
46410SOL     OW41062  14.344   0.212  13.347
46410SOL    HW141063  14.250   0.229  13.338
46410SOL    HW241064  14.349   0.123  13.382
46411SOL     OW41065   1.377   8.604   0.137
46411SOL    HW141066   1.397   8.616   0.044
46411SOL    HW241067   1.283   8.619   0.143
46412SOL     OW41068   8.984  11.057   5.162
46412SOL    HW141069   9.032  11.131   5.200
46412SOL    HW241070   8.939  11.094   5.086
46413SOL     OW41071   5.338  14.509   5.605
46413SOL    HW141072   5.404  14.518   5.674
46413SOL    HW241073   5.289  14.430   5.628
46414SOL     OW41074  10.922  14.614   1.579
46414SOL    HW141075  10.914  14.534   1.630
46414SOL    HW241076  11.008  14.607   1.536
46415SOL     OW41077   1.505   9.526  14.764
46415SOL    HW141078   1.563   9.451  14.781
46415SOL    HW241079   1.525   9.588  14.834
46416SOL     OW41080  12.686   2.027   0.692
46416SOL    HW141081  12.678   2.032   0.788
46416SOL    HW241082  12.775   1.997   0.676
46417SOL     OW41083  12.647   5.808   5.281
46417SOL    HW141084  12.564   5.761   5.290
46417SOL    HW241085  12.675   5.791   5.191
46418SOL     OW41086   5.758   0.926   6.447
46418SOL    HW141087   5.670   0.941   6.415
46418SOL    HW241088   5.800   0.872   6.379
46419SOL     OW41089   9.843  10.340  13.036
46419SOL    HW141090   9.792  10.385  12.968
46419SOL    HW241091   9.780  10.285  13.082
46420SOL     OW41092  11.146   8.875  13.522
46420SOL    HW141093  11.158   8.880  13.617
46420SOL    HW241094  11.235   8.868  13.487
46421SOL     OW41095   7.761   2.032   1.200
46421SOL    HW141096   7.743   1.954   1.252
46421SOL    HW241097   7.694   2.032   1.132
46422SOL     OW41098   2.894  11.608  12.341
46422SOL    HW141099   2.905  11.647  12.255
46422SOL    HW241100   2.884  11.682  12.401
46423SOL     OW41101   0.153   8.160   2.479
46423SOL    HW141102   0.137   8.254   2.478
46423SOL    HW241103   0.245   8.152   2.505
46424SOL     OW41104   9.431   5.985   7.643
46424SOL    HW141105   9.458   5.893   7.642
46424SOL    HW241106   9.359   5.989   7.580
46425SOL     OW41107  10.144   5.951   4.152
46425SOL    HW141108  10.056   5.986   4.139
46425SOL    HW241109  10.187   5.962   4.067
46426SOL     OW41110  14.329   2.221   3.202
46426SOL    HW141111  14.408   2.189   3.246
46426SOL    HW241112  14.319   2.311   3.234
46427SOL     OW41113   7.956   7.015  10.832
46427SOL    HW141114   8.034   6.961  10.823
46427SOL    HW241115   7.971   7.066  10.911
46428SOL     OW41116   4.963   3.305   1.394
46428SOL    HW141117   4.991   3.343   1.477
46428SOL    HW241118   4.988   3.370   1.329
46429SOL     OW41119  13.116  12.915  10.532
46429SOL    HW141120  13.084  12.964  10.608
46429SOL    HW241121  13.112  12.823  10.559
46430SOL     OW41122   6.954   4.424   6.913
46430SOL    HW141123   6.942   4.516   6.938
46430SOL    HW241124   7.047   4.418   6.890
46431SOL     OW41125   0.865   1.548   4.022
46431SOL    HW141126   0.862   1.541   3.927
46431SOL    HW241127   0.774   1.561   4.048
46432SOL     OW41128   0.375   1.504   2.314
46432SOL    HW141129   0.327   1.441   2.368
46432SOL    HW241130   0.460   1.462   2.299
46433SOL     OW41131   9.736   3.325   5.094
46433SOL    HW141132   9.758   3.406   5.048
46433SOL    HW241133   9.659   3.292   5.048
46434SOL     OW41134  10.376  14.384  13.639
46434SOL    HW141135  10.413  14.357  13.723
46434SOL    HW241136  10.452  14.408  13.586
46435SOL     OW41137   3.752   7.644   3.064
46435SOL    HW141138   3.660   7.617   3.070
46435SOL    HW241139   3.767   7.656   2.970
46436SOL     OW41140   7.219  12.059   4.457
46436SOL    HW141141   7.241  11.968   4.477
46436SOL    HW241142   7.261  12.110   4.526
46437SOL     OW41143   9.308   4.164   3.842
46437SOL    HW141144   9.387   4.132   3.797
46437SOL    HW241145   9.340   4.201   3.924
46438SOL     OW41146  13.226   4.845   3.050
46438SOL    HW141147  13.313   4.815   3.023
46438SOL    HW241148  13.229   4.846   3.145
46439SOL     OW41149  12.943   4.097   5.928
46439SOL    HW141150  13.015   4.090   5.990
46439SOL    HW241151  12.879   4.152   5.973
46440SOL     OW41152   5.460   9.104   2.369
46440SOL    HW141153   5.518   9.039   2.330
46440SOL    HW241154   5.386   9.110   2.309
46441SOL     OW41155   3.101   8.682   2.627
46441SOL    HW141156   3.173   8.644   2.676
46441SOL    HW241157   3.098   8.774   2.654
46442SOL     OW41158   1.815   4.416   2.840
46442SOL    HW141159   1.876   4.451   2.905
46442SOL    HW241160   1.760   4.490   2.816
46443SOL     OW41161   1.952  10.983   1.577
46443SOL    HW141162   2.028  10.948   1.625
46443SOL    HW241163   1.877  10.960   1.632
46444SOL     OW41164   8.044   1.445   0.397
46444SOL    HW141165   8.088   1.439   0.312
46444SOL    HW241166   8.099   1.393   0.455
46445SOL     OW41167   8.687   0.575  11.208
46445SOL    HW141168   8.600   0.547  11.236
46445SOL    HW241169   8.671   0.639  11.138
46446SOL     OW41170  10.706   9.357   2.101
46446SOL    HW141171  10.647   9.305   2.047
46446SOL    HW241172  10.771   9.295   2.133
46447SOL     OW41173   7.111   7.449   2.334
46447SOL    HW141174   7.167   7.373   2.348
46447SOL    HW241175   7.136   7.510   2.404
46448SOL     OW41176   8.536   7.733   4.597
46448SOL    HW141177   8.458   7.788   4.602
46448SOL    HW241178   8.540   7.690   4.682
46449SOL     OW41179  10.617  11.037  14.603
46449SOL    HW141180  10.546  11.001  14.549
46449SOL    HW241181  10.642  10.965  14.661
46450SOL     OW41182   3.040  10.878   2.902
46450SOL    HW141183   3.038  10.819   2.977
46450SOL    HW241184   2.954  10.921   2.903
46451SOL     OW41185   5.643  12.404  10.108
46451SOL    HW141186   5.689  12.333  10.153
46451SOL    HW241187   5.712  12.464  10.080
46452SOL     OW41188  10.401   4.000  10.118
46452SOL    HW141189  10.346   4.070  10.151
46452SOL    HW241190  10.423   3.948  10.196
46453SOL     OW41191  14.567   1.588  10.927
46453SOL    HW141192  14.605   1.653  10.986
46453SOL    HW241193  14.643   1.540  10.893
46454SOL     OW41194   7.393   5.002   8.243
46454SOL    HW141195   7.467   4.969   8.193
46454SOL    HW241196   7.381   4.940   8.314
46455SOL     OW41197  10.562   7.592   4.381
46455SOL    HW141198  10.582   7.505   4.415
46455SOL    HW241199  10.495   7.626   4.441
46456SOL     OW41200  13.667  13.586   4.166
46456SOL    HW141201  13.718  13.667   4.167
46456SOL    HW241202  13.654  13.568   4.073
46457SOL     OW41203   2.336   8.725   7.137
46457SOL    HW141204   2.395   8.800   7.127
46457SOL    HW241205   2.265   8.741   7.076
46458SOL     OW41206   7.962   9.835   6.241
46458SOL    HW141207   7.918   9.789   6.170
46458SOL    HW241208   7.905   9.909   6.261
46459SOL     OW41209   7.767   2.415  10.970
46459SOL    HW141210   7.742   2.505  10.947
46459SOL    HW241211   7.742   2.406  11.062
46460SOL     OW41212   1.902   3.827   3.282
46460SOL    HW141213   1.821   3.861   3.318
46460SOL    HW241214   1.935   3.897   3.225
46461SOL     OW41215   4.433   6.698   9.916
46461SOL    HW141216   4.421   6.649   9.998
46461SOL    HW241217   4.365   6.663   9.858
46462SOL     OW41218  11.355  11.368   1.769
46462SOL    HW141219  11.297  11.422   1.716
46462SOL    HW241220  11.441  11.380   1.729
46463SOL     OW41221   2.628   6.196   0.124
46463SOL    HW141222   2.631   6.270   0.184
46463SOL    HW241223   2.545   6.152   0.143
46464SOL     OW41224   4.144  14.208   3.045
46464SOL    HW141225   4.165  14.160   3.126
46464SOL    HW241226   4.161  14.146   2.975
46465SOL     OW41227   0.030   8.468   0.259
46465SOL    HW141228  14.818   8.443   0.295
46465SOL    HW241229   0.012   8.547   0.209
46466SOL     OW41230  14.394   5.678   3.822
46466SOL    HW141231  14.404   5.599   3.875
46466SOL    HW241232  14.412   5.750   3.882
46467SOL     OW41233   8.242   6.230   4.011
46467SOL    HW141234   8.285   6.144   4.015
46467SOL    HW241235   8.165   6.221   4.067
46468SOL     OW41236   4.411  12.258  11.624
46468SOL    HW141237   4.385  12.264  11.716
46468SOL    HW241238   4.335  12.289  11.576
46469SOL     OW41239  14.347   2.950   7.593
46469SOL    HW141240  14.350   2.858   7.620
46469SOL    HW241241  14.371   2.949   7.500
46470SOL     OW41242   4.295  10.117  12.752
46470SOL    HW141243   4.285  10.182  12.682
46470SOL    HW241244   4.328  10.166  12.826
46471SOL     OW41245  10.904   8.477   0.666
46471SOL    HW141246  10.812   8.496   0.648
46471SOL    HW241247  10.904   8.389   0.704
46472SOL     OW41248   1.682   9.157   5.149
46472SOL    HW141249   1.750   9.108   5.195
46472SOL    HW241250   1.720   9.175   5.063
46473SOL     OW41251   2.591   7.213   2.112
46473SOL    HW141252   2.609   7.307   2.112
46473SOL    HW241253   2.669   7.173   2.074
46474SOL     OW41254  10.426  12.907  13.145
46474SOL    HW141255  10.420  12.998  13.118
46474SOL    HW241256  10.343  12.868  13.116
46475SOL     OW41257   2.261   3.468   9.393
46475SOL    HW141258   2.318   3.465   9.469
46475SOL    HW241259   2.176   3.437   9.425
46476SOL     OW41260   7.867  11.232  12.972
46476SOL    HW141261   7.866  11.282  12.890
46476SOL    HW241262   7.775  11.229  12.999
46477SOL     OW41263  11.109   5.511  12.785
46477SOL    HW141264  11.074   5.471  12.865
46477SOL    HW241265  11.200   5.481  12.782
46478SOL     OW41266   1.656   4.480   3.450
46478SOL    HW141267   1.705   4.517   3.523
46478SOL    HW241268   1.652   4.550   3.385
46479SOL     OW41269  11.602  10.337  14.366
46479SOL    HW141270  11.678  10.291  14.403
46479SOL    HW241271  11.566  10.386  14.439
46480SOL     OW41272   9.656   1.610   0.450
46480SOL    HW141273   9.746   1.585   0.470
46480SOL    HW241274   9.605   1.530   0.460
46481SOL     OW41275   9.557   8.327  12.224
46481SOL    HW141276   9.479   8.298  12.271
46481SOL    HW241277   9.545   8.294  12.135
46482SOL     OW41278  10.847   5.171   9.926
46482SOL    HW141279  10.870   5.230   9.998
46482SOL    HW241280  10.829   5.229   9.852
46483SOL     OW41281   4.831   1.285   9.159
46483SOL    HW141282   4.805   1.202   9.199
46483SOL    HW241283   4.760   1.305   9.097
46484SOL     OW41284  13.437   4.786   1.646
46484SOL    HW141285  13.515   4.793   1.703
46484SOL    HW241286  13.452   4.852   1.578
46485SOL     OW41287   9.811  11.075   1.143
46485SOL    HW141288   9.822  11.114   1.229
46485SOL    HW241289   9.800  11.150   1.084
46486SOL     OW41290   6.028  14.065   5.613
46486SOL    HW141291   6.085  14.104   5.547
46486SOL    HW241292   6.083  14.059   5.692
46487SOL     OW41293   2.559   6.243   8.567
46487SOL    HW141294   2.637   6.217   8.616
46487SOL    HW241295   2.594   6.285   8.488
46488SOL     OW41296   9.301  11.376  10.968
46488SOL    HW141297   9.233  11.419  10.916
46488SOL    HW241298   9.259  11.296  10.999
46489SOL     OW41299  14.825   7.923   4.741
46489SOL    HW141300  14.743   7.909   4.789
46489SOL    HW241301   0.020   7.918   4.808
46490SOL     OW41302   1.927  11.066   1.259
46490SOL    HW141303   1.955  11.127   1.328
46490SOL    HW241304   1.961  10.981   1.287
46491SOL     OW41305   1.618   7.842   3.813
46491SOL    HW141306   1.656   7.918   3.857
46491SOL    HW241307   1.589   7.785   3.883
46492SOL     OW41308   4.962   9.292  13.538
46492SOL    HW141309   4.868   9.274  13.536
46492SOL    HW241310   4.985   9.314  13.448
46493SOL     OW41311  13.950  13.814   8.865
46493SOL    HW141312  13.977  13.743   8.923
46493SOL    HW241313  13.859  13.795   8.843
46494SOL     OW41314   5.687  14.000  10.196
46494SOL    HW141315   5.737  13.993  10.115
46494SOL    HW241316   5.715  13.924  10.248
46495SOL     OW41317  10.050  12.263  12.678
46495SOL    HW141318  10.032  12.242  12.586
46495SOL    HW241319  10.040  12.358  12.682
46496SOL     OW41320  10.485  14.337   8.061
46496SOL    HW141321  10.537  14.312   8.138
46496SOL    HW241322  10.397  14.306   8.081
46497SOL     OW41323   0.758   5.969  12.436
46497SOL    HW141324   0.697   5.907  12.397
46497SOL    HW241325   0.796   5.922  12.510
46498SOL     OW41326   7.141  12.308  10.008
46498SOL    HW141327   7.229  12.279   9.983
46498SOL    HW241328   7.087  12.229  10.000
46499SOL     OW41329   3.682  12.503   9.196
46499SOL    HW141330   3.776  12.517   9.205
46499SOL    HW241331   3.647  12.590   9.173
46500SOL     OW41332   4.986  11.402   5.996
46500SOL    HW141333   4.913  11.411   5.935
46500SOL    HW241334   5.062  11.383   5.940
46501SOL     OW41335   4.056   0.218   8.193
46501SOL    HW141336   4.076   0.242   8.103
46501SOL    HW241337   4.085   0.294   8.245
46502SOL     OW41338   7.667   2.210   3.257
46502SOL    HW141339   7.667   2.243   3.168
46502SOL    HW241340   7.756   2.227   3.289
46503SOL     OW41341   9.700  14.096   7.897
46503SOL    HW141342   9.648  14.093   7.817
46503SOL    HW241343   9.775  14.039   7.880
46504SOL     OW41344   9.416  11.592  13.458
46504SOL    HW141345   9.330  11.632  13.448
46504SOL    HW241346   9.404  11.528  13.529
46505SOL     OW41347   7.168   6.705  12.411
46505SOL    HW141348   7.254   6.745  12.398
46505SOL    HW241349   7.162   6.692  12.506
46506SOL     OW41350  12.380  13.699   1.698
46506SOL    HW141351  12.391  13.728   1.607
46506SOL    HW241352  12.467  13.668   1.723
46507SOL     OW41353   1.952  10.396   9.813
46507SOL    HW141354   1.876  10.452   9.799
46507SOL    HW241355   1.959  10.388   9.908
46508SOL     OW41356   4.348   8.347  13.675
46508SOL    HW141357   4.391   8.306  13.599
46508SOL    HW241358   4.263   8.304  13.681
46509SOL     OW41359  10.831   8.703   7.077
46509SOL    HW141360  10.853   8.792   7.106
46509SOL    HW241361  10.804   8.714   6.986
46510SOL     OW41362  14.785   4.009   1.852
46510SOL    HW141363  14.870   3.978   1.823
46510SOL    HW241364  14.782   4.101   1.826
46511SOL     OW41365  12.273   3.516  11.747
46511SOL    HW141366  12.306   3.432  11.713
46511SOL    HW241367  12.306   3.520  11.837
46512SOL     OW41368   8.927  14.767   7.805
46512SOL    HW141369   8.969  14.689   7.839
46512SOL    HW241370   8.911  14.747   7.713
46513SOL     OW41371  12.902   4.900  14.834
46513SOL    HW141372  12.930   4.826   0.015
46513SOL    HW241373  12.916   4.977   0.017
46514SOL     OW41374   4.050   8.161   2.549
46514SOL    HW141375   4.039   8.104   2.626
46514SOL    HW241376   3.967   8.154   2.502
46515SOL     OW41377   3.569  12.763   2.536
46515SOL    HW141378   3.617  12.698   2.587
46515SOL    HW241379   3.622  12.775   2.457
46516SOL     OW41380   6.177  14.303   5.465
46516SOL    HW141381   6.221  14.308   5.550
46516SOL    HW241382   6.237  14.250   5.411
46517SOL     OW41383   9.386  11.882   6.924
46517SOL    HW141384   9.309  11.843   6.965
46517SOL    HW241385   9.429  11.810   6.879
46518SOL     OW41386   2.380   8.564   3.946
46518SOL    HW141387   2.470   8.541   3.923
46518SOL    HW241388   2.388   8.612   4.028
46519SOL     OW41389  12.721  13.938   3.596
46519SOL    HW141390  12.785  13.990   3.547
46519SOL    HW241391  12.707  13.987   3.677
46520SOL     OW41392   5.136   5.629   9.115
46520SOL    HW141393   5.187   5.594   9.042
46520SOL    HW241394   5.101   5.712   9.082
46521SOL     OW41395   1.315  11.692   3.886
46521SOL    HW141396   1.291  11.652   3.802
46521SOL    HW241397   1.239  11.747   3.908
46522SOL     OW41398  14.667   5.136  10.472
46522SOL    HW141399  14.751   5.108  10.507
46522SOL    HW241400  14.621   5.174  10.546
46523SOL     OW41401   7.399   1.879   4.081
46523SOL    HW141402   7.350   1.819   4.025
46523SOL    HW241403   7.356   1.872   4.166
46524SOL     OW41404   9.871   6.008   0.452
46524SOL    HW141405   9.855   5.963   0.534
46524SOL    HW241406   9.784   6.031   0.419
46525SOL     OW41407   4.415  10.109   4.085
46525SOL    HW141408   4.417  10.028   4.035
46525SOL    HW241409   4.496  10.155   4.059
46526SOL     OW41410   1.587   7.155  14.752
46526SOL    HW141411   1.575   7.138  14.659
46526SOL    HW241412   1.624   7.074  14.787
46527SOL     OW41413   7.246   4.148  11.140
46527SOL    HW141414   7.304   4.224  11.137
46527SOL    HW241415   7.203   4.154  11.226
46528SOL     OW41416   2.162   9.208  13.391
46528SOL    HW141417   2.170   9.117  13.362
46528SOL    HW241418   2.244   9.249  13.364
46529SOL     OW41419   3.924  11.340   8.276
46529SOL    HW141420   3.911  11.433   8.290
46529SOL    HW241421   3.843  11.310   8.235
46530SOL     OW41422   3.362   1.380  13.431
46530SOL    HW141423   3.267   1.377  13.427
46530SOL    HW241424   3.385   1.471  13.411
46531SOL     OW41425   2.786   6.648   5.646
46531SOL    HW141426   2.825   6.718   5.699
46531SOL    HW241427   2.729   6.601   5.708
46532SOL     OW41428   5.221   2.538   9.222
46532SOL    HW141429   5.190   2.571   9.138
46532SOL    HW241430   5.145   2.497   9.262
46533SOL     OW41431   1.579   1.345   4.470
46533SOL    HW141432   1.646   1.305   4.526
46533SOL    HW241433   1.522   1.392   4.531
46534SOL     OW41434   0.088   7.706   4.658
46534SOL    HW141435   0.031   7.630   4.664
46534SOL    HW241436   0.029   7.781   4.673
46535SOL     OW41437   3.365  14.277   0.024
46535SOL    HW141438   3.398  14.191  14.871
46535SOL    HW241439   3.439  14.321   0.063
46536SOL     OW41440   8.419   2.898  13.899
46536SOL    HW141441   8.429   2.989  13.925
46536SOL    HW241442   8.494   2.881  13.842
46537SOL     OW41443  12.738   2.811   7.661
46537SOL    HW141444  12.779   2.770   7.737
46537SOL    HW241445  12.644   2.798   7.675
46538SOL     OW41446   8.278   3.042  11.620
46538SOL    HW141447   8.222   3.116  11.644
46538SOL    HW241448   8.239   2.967  11.665
46539SOL     OW41449  10.919   0.579   2.110
46539SOL    HW141450  10.974   0.515   2.155
46539SOL    HW241451  10.836   0.534   2.097
46540SOL     OW41452  12.536   4.630  11.684
46540SOL    HW141453  12.532   4.551  11.737
46540SOL    HW241454  12.475   4.690  11.726
46541SOL     OW41455   3.286   2.240   3.237
46541SOL    HW141456   3.233   2.165   3.266
46541SOL    HW241457   3.243   2.316   3.276
46542SOL     OW41458  11.535   7.374  13.919
46542SOL    HW141459  11.608   7.355  13.861
46542SOL    HW241460  11.560   7.335  14.003
46543SOL     OW41461  12.445   1.387   2.537
46543SOL    HW141462  12.449   1.399   2.632
46543SOL    HW241463  12.352   1.401   2.515
46544SOL     OW41464   3.491  14.138   4.823
46544SOL    HW141465   3.529  14.209   4.771
46544SOL    HW241466   3.457  14.077   4.758
46545SOL     OW41467   3.206   3.702   1.247
46545SOL    HW141468   3.257   3.768   1.296
46545SOL    HW241469   3.115   3.727   1.262
46546SOL     OW41470  12.561   0.045   6.511
46546SOL    HW141471  12.648   0.010   6.490
46546SOL    HW241472  12.555   0.126   6.460
46547SOL     OW41473   5.670   5.010  14.726
46547SOL    HW141474   5.699   5.008  14.817
46547SOL    HW241475   5.740   4.966  14.678
46548SOL     OW41476   8.341   7.622   2.868
46548SOL    HW141477   8.275   7.593   2.806
46548SOL    HW241478   8.421   7.576   2.841
46549SOL     OW41479  12.647   5.255   3.195
46549SOL    HW141480  12.628   5.345   3.167
46549SOL    HW241481  12.561   5.218   3.215
46550SOL     OW41482   2.511  13.142  14.527
46550SOL    HW141483   2.530  13.143  14.620
46550SOL    HW241484   2.442  13.208  14.516
46551SOL     OW41485   9.894  10.092   2.002
46551SOL    HW141486   9.952  10.062   1.933
46551SOL    HW241487   9.806  10.071   1.970
46552SOL     OW41488   4.108  13.271   3.082
46552SOL    HW141489   4.031  13.218   3.064
46552SOL    HW241490   4.118  13.267   3.177
46553SOL     OW41491   0.617  11.589  12.068
46553SOL    HW141492   0.575  11.572  11.984
46553SOL    HW241493   0.648  11.503  12.098
46554SOL     OW41494   4.687   4.351  13.919
46554SOL    HW141495   4.753   4.409  13.956
46554SOL    HW241496   4.610   4.362  13.974
46555SOL     OW41497   7.405   2.235   4.541
46555SOL    HW141498   7.459   2.314   4.541
46555SOL    HW241499   7.455   2.173   4.594
46556SOL     OW41500   7.282  12.934   5.208
46556SOL    HW141501   7.298  13.024   5.179
46556SOL    HW241502   7.214  12.942   5.275
46557SOL     OW41503  12.333   4.010   5.812
46557SOL    HW141504  12.247   3.969   5.824
46557SOL    HW241505  12.358   4.038   5.900
46558SOL     OW41506   0.274   6.184  11.018
46558SOL    HW141507   0.283   6.236  10.938
46558SOL    HW241508   0.356   6.135  11.024
46559SOL     OW41509   1.880   5.184  11.019
46559SOL    HW141510   1.811   5.188  10.953
46559SOL    HW241511   1.955   5.146  10.973
46560SOL     OW41512   2.272   1.713  11.958
46560SOL    HW141513   2.365   1.713  11.933
46560SOL    HW241514   2.248   1.806  11.957
46561SOL     OW41515   1.921   0.585   6.024
46561SOL    HW141516   1.956   0.508   5.979
46561SOL    HW241517   1.846   0.552   6.073
46562SOL     OW41518   5.707  13.984   0.524
46562SOL    HW141519   5.639  13.934   0.479
46562SOL    HW241520   5.675  14.074   0.522
46563SOL     OW41521   4.589  13.483  13.981
46563SOL    HW141522   4.526  13.417  13.950
46563SOL    HW241523   4.673  13.437  13.982
46564SOL     OW41524  12.002   7.816   0.543
46564SOL    HW141525  11.966   7.884   0.599
46564SOL    HW241526  12.000   7.737   0.596
46565SOL     OW41527  14.713  14.006   1.808
46565SOL    HW141528  14.796  14.053   1.805
46565SOL    HW241529  14.738  13.913   1.807
46566SOL     OW41530   3.061  10.718   4.657
46566SOL    HW141531   3.131  10.741   4.596
46566SOL    HW241532   2.982  10.715   4.604
46567SOL     OW41533   0.449   2.554  10.673
46567SOL    HW141534   0.399   2.485  10.717
46567SOL    HW241535   0.404   2.635  10.697
46568SOL     OW41536  10.593   6.596   6.857
46568SOL    HW141537  10.592   6.518   6.913
46568SOL    HW241538  10.656   6.654   6.898
46569SOL     OW41539   6.460   0.828  11.113
46569SOL    HW141540   6.545   0.825  11.070
46569SOL    HW241541   6.400   0.855  11.043
46570SOL     OW41542   6.582   7.733   4.432
46570SOL    HW141543   6.616   7.776   4.511
46570SOL    HW241544   6.652   7.672   4.407
46571SOL     OW41545  14.261  14.280   6.685
46571SOL    HW141546  14.259  14.267   6.779
46571SOL    HW241547  14.335  14.339   6.670
46572SOL     OW41548   3.949  12.803   2.000
46572SOL    HW141549   3.952  12.886   1.952
46572SOL    HW241550   3.971  12.737   1.934
46573SOL     OW41551   9.701   5.875   2.431
46573SOL    HW141552   9.778   5.819   2.424
46573SOL    HW241553   9.716   5.946   2.369
46574SOL     OW41554  11.017  10.506   9.259
46574SOL    HW141555  10.970  10.517   9.177
46574SOL    HW241556  11.057  10.591   9.276
46575SOL     OW41557   2.809   5.467   9.192
46575SOL    HW141558   2.848   5.548   9.159
46575SOL    HW241559   2.851   5.398   9.140
46576SOL     OW41560   3.920  11.183   9.584
46576SOL    HW141561   3.897  11.178   9.491
46576SOL    HW241562   3.909  11.093   9.616
46577SOL     OW41563   4.218   5.941  12.735
46577SOL    HW141564   4.177   6.004  12.795
46577SOL    HW241565   4.179   5.856  12.759
46578SOL     OW41566   5.644  10.537   2.878
46578SOL    HW141567   5.635  10.554   2.972
46578SOL    HW241568   5.555  10.542   2.843
46579SOL     OW41569   1.156   2.049   4.570
46579SOL    HW141570   1.164   2.113   4.499
46579SOL    HW241571   1.205   1.973   4.540
46580SOL     OW41572  13.818   5.428   8.048
46580SOL    HW141573  13.841   5.485   7.975
46580SOL    HW241574  13.844   5.340   8.018
46581SOL     OW41575  12.507   2.843   5.345
46581SOL    HW141576  12.570   2.890   5.400
46581SOL    HW241577  12.544   2.754   5.338
46582SOL     OW41578  11.347   1.449  13.524
46582SOL    HW141579  11.270   1.414  13.478
46582SOL    HW241580  11.311   1.505  13.592
46583SOL     OW41581   2.631  10.639  14.356
46583SOL    HW141582   2.691  10.566  14.339
46583SOL    HW241583   2.632  10.691  14.276
46584SOL     OW41584   6.803   6.172  13.238
46584SOL    HW141585   6.842   6.085  13.244
46584SOL    HW241586   6.797   6.189  13.144
46585SOL     OW41587  12.247  14.055   8.495
46585SOL    HW141588  12.263  13.984   8.557
46585SOL    HW241589  12.171  14.025   8.445
46586SOL     OW41590  14.562   1.283   4.222
46586SOL    HW141591  14.498   1.354   4.205
46586SOL    HW241592  14.592   1.299   4.311
46587SOL     OW41593   8.829   8.013  12.721
46587SOL    HW141594   8.896   8.044  12.660
46587SOL    HW241595   8.749   8.058  12.693
46588SOL     OW41596   6.970  10.035  13.755
46588SOL    HW141597   6.946  10.012  13.844
46588SOL    HW241598   6.892  10.014  13.703
46589SOL     OW41599  10.616   5.062  14.356
46589SOL    HW141600  10.688   5.123  14.340
46589SOL    HW241601  10.659   4.982  14.385
46590SOL     OW41602   5.473   0.372   3.675
46590SOL    HW141603   5.389   0.350   3.717
46590SOL    HW241604   5.539   0.347   3.739
46591SOL     OW41605   8.076  14.478   6.360
46591SOL    HW141606   7.983  14.482   6.337
46591SOL    HW241607   8.122  14.505   6.281
46592SOL     OW41608   5.777  12.765   0.354
46592SOL    HW141609   5.849  12.703   0.371
46592SOL    HW241610   5.820  12.849   0.345
46593SOL     OW41611   7.256  11.706   4.940
46593SOL    HW141612   7.209  11.780   4.978
46593SOL    HW241613   7.310  11.671   5.012
46594SOL     OW41614   5.503   6.285   9.538
46594SOL    HW141615   5.525   6.371   9.575
46594SOL    HW241616   5.415   6.267   9.571
46595SOL     OW41617  12.351   4.780  10.352
46595SOL    HW141618  12.446   4.781  10.343
46595SOL    HW241619  12.336   4.752  10.443
46596SOL     OW41620   5.158   6.205  13.013
46596SOL    HW141621   5.094   6.151  12.967
46596SOL    HW241622   5.223   6.143  13.046
46597SOL     OW41623  14.290   2.436   2.689
46597SOL    HW141624  14.296   2.433   2.784
46597SOL    HW241625  14.359   2.496   2.662
46598SOL     OW41626   0.571   6.258   5.376
46598SOL    HW141627   0.573   6.202   5.453
46598SOL    HW241628   0.659   6.251   5.339
46599SOL     OW41629  12.344   0.103  14.503
46599SOL    HW141630  12.425   0.064  14.470
46599SOL    HW241631  12.294   0.123  14.424
46600SOL     OW41632   4.914   6.151  12.723
46600SOL    HW141633   4.822   6.127  12.713
46600SOL    HW241634   4.913   6.222  12.788
46601SOL     OW41635   1.456   5.876  14.389
46601SOL    HW141636   1.417   5.963  14.375
46601SOL    HW241637   1.412   5.843  14.467
46602SOL     OW41638  11.493   2.631  12.618
46602SOL    HW141639  11.547   2.709  12.622
46602SOL    HW241640  11.474   2.610  12.710
46603SOL     OW41641   6.225   9.135   8.874
46603SOL    HW141642   6.146   9.177   8.841
46603SOL    HW241643   6.243   9.064   8.812
46604SOL     OW41644  11.893   4.827  12.818
46604SOL    HW141645  11.867   4.746  12.774
46604SOL    HW241646  11.981   4.809  12.851
46605SOL     OW41647   5.236   2.035  12.321
46605SOL    HW141648   5.226   2.100  12.252
46605SOL    HW241649   5.151   1.992  12.327
46606SOL     OW41650   4.735  13.525  11.455
46606SOL    HW141651   4.672  13.457  11.432
46606SOL    HW241652   4.708  13.601  11.404
46607SOL     OW41653  12.065   2.067  11.362
46607SOL    HW141654  12.063   1.972  11.350
46607SOL    HW241655  11.982   2.088  11.404
46608SOL     OW41656   9.966   7.297  10.987
46608SOL    HW141657  10.027   7.289  10.914
46608SOL    HW241658   9.958   7.209  11.022
46609SOL     OW41659   7.286  13.326  10.672
46609SOL    HW141660   7.346  13.362  10.738
46609SOL    HW241661   7.344  13.284  10.608
46610SOL     OW41662   3.746   7.761  11.637
46610SOL    HW141663   3.696   7.817  11.576
46610SOL    HW241664   3.812   7.720  11.582
46611SOL     OW41665  11.483   4.528   3.398
46611SOL    HW141666  11.452   4.617   3.379
46611SOL    HW241667  11.519   4.497   3.315
46612SOL     OW41668  13.261   7.123   6.105
46612SOL    HW141669  13.291   7.170   6.027
46612SOL    HW241670  13.206   7.186   6.152
46613SOL     OW41671   3.738  13.344   7.927
46613SOL    HW141672   3.807  13.401   7.961
46613SOL    HW241673   3.663  13.401   7.916
46614SOL     OW41674   9.213   2.535   8.241
46614SOL    HW141675   9.188   2.446   8.267
46614SOL    HW241676   9.280   2.560   8.305
46615SOL     OW41677   9.411   1.445  14.250
46615SOL    HW141678   9.463   1.492  14.314
46615SOL    HW241679   9.466   1.372  14.223
46616SOL     OW41680   1.439   9.826   3.091
46616SOL    HW141681   1.397   9.856   3.171
46616SOL    HW241682   1.477   9.905   3.052
46617SOL     OW41683   8.956   6.810   4.297
46617SOL    HW141684   8.887   6.835   4.359
46617SOL    HW241685   8.910   6.798   4.214
46618SOL     OW41686   7.912   6.571   8.107
46618SOL    HW141687   7.930   6.501   8.044
46618SOL    HW241688   7.910   6.651   8.054
46619SOL     OW41689  13.210   7.230   0.033
46619SOL    HW141690  13.154   7.170  14.858
46619SOL    HW241691  13.207   7.199   0.124
46620SOL     OW41692  11.635   4.836   0.072
46620SOL    HW141693  11.592   4.900   0.130
46620SOL    HW241694  11.584   4.839  14.864
46621SOL     OW41695  13.167  14.106   4.030
46621SOL    HW141696  13.214  14.110   4.113
46621SOL    HW241697  13.213  14.166   3.972
46622SOL     OW41698  12.256   3.368   2.942
46622SOL    HW141699  12.207   3.310   3.001
46622SOL    HW241700  12.258   3.452   2.988
46623SOL     OW41701   8.043   6.962   6.199
46623SOL    HW141702   8.004   7.045   6.171
46623SOL    HW241703   8.077   6.923   6.119
46624SOL     OW41704  12.856  10.041  12.386
46624SOL    HW141705  12.920  10.010  12.450
46624SOL    HW241706  12.805   9.964  12.364
46625SOL     OW41707  10.011  12.767   4.607
46625SOL    HW141708   9.926  12.810   4.595
46625SOL    HW241709  10.045  12.805   4.688
46626SOL     OW41710   0.395   0.040   9.746
46626SOL    HW141711   0.346   0.094   9.684
46626SOL    HW241712   0.485   0.043   9.715
46627SOL     OW41713  11.663   4.698  14.640
46627SOL    HW141714  11.609   4.668  14.567
46627SOL    HW241715  11.726   4.759  14.600
46628SOL     OW41716  13.059  10.824  12.464
46628SOL    HW141717  13.154  10.821  12.461
46628SOL    HW241718  13.036  10.907  12.422
46629SOL     OW41719  10.714   8.883  10.982
46629SOL    HW141720  10.780   8.930  10.931
46629SOL    HW241721  10.758   8.803  11.009
46630SOL     OW41722  13.990   1.269  11.245
46630SOL    HW141723  14.011   1.331  11.176
46630SOL    HW241724  14.036   1.189  11.220
46631SOL     OW41725  10.109   5.959   5.380
46631SOL    HW141726  10.050   5.969   5.305
46631SOL    HW241727  10.195   5.942   5.340
46632SOL     OW41728   4.261   4.814   9.127
46632SOL    HW141729   4.296   4.811   9.216
46632SOL    HW241730   4.168   4.793   9.138
46633SOL     OW41731   3.354   0.678  10.452
46633SOL    HW141732   3.417   0.635  10.509
46633SOL    HW241733   3.273   0.681  10.503
46634SOL     OW41734   9.315   6.731  14.382
46634SOL    HW141735   9.357   6.816  14.369
46634SOL    HW241736   9.386   6.674  14.413
46635SOL     OW41737   2.264   9.755   7.285
46635SOL    HW141738   2.301   9.749   7.197
46635SOL    HW241739   2.309   9.829   7.325
46636SOL     OW41740   5.056   6.407  13.747
46636SOL    HW141741   4.990   6.448  13.691
46636SOL    HW241742   5.006   6.375  13.822
46637SOL     OW41743  12.412  12.153   9.863
46637SOL    HW141744  12.340  12.180   9.806
46637SOL    HW241745  12.375  12.154   9.951
46638SOL     OW41746   0.042   5.166   2.766
46638SOL    HW141747   0.071   5.114   2.841
46638SOL    HW241748   0.103   5.144   2.696
46639SOL     OW41749  12.933  10.632   0.780
46639SOL    HW141750  12.887  10.639   0.696
46639SOL    HW241751  12.891  10.558   0.823
46640SOL     OW41752   0.494  14.654   3.014
46640SOL    HW141753   0.558  14.707   3.063
46640SOL    HW241754   0.486  14.574   3.066
46641SOL     OW41755   3.139   4.134   9.394
46641SOL    HW141756   3.200   4.061   9.385
46641SOL    HW241757   3.172   4.184   9.468
46642SOL     OW41758  10.760   0.049   6.366
46642SOL    HW141759  10.707   0.090   6.434
46642SOL    HW241760  10.836   0.107   6.357
46643SOL     OW41761   6.019   0.801   7.988
46643SOL    HW141762   5.991   0.757   8.068
46643SOL    HW241763   6.040   0.890   8.016
46644SOL     OW41764   1.328   2.890  10.045
46644SOL    HW141765   1.358   2.820   9.987
46644SOL    HW241766   1.339   2.970   9.994
46645SOL     OW41767   0.477  12.120   6.666
46645SOL    HW141768   0.570  12.131   6.645
46645SOL    HW241769   0.436  12.201   6.639
46646SOL     OW41770   4.587   8.291   5.975
46646SOL    HW141771   4.579   8.234   6.052
46646SOL    HW241772   4.677   8.323   5.978
46647SOL     OW41773  10.418   0.498   3.357
46647SOL    HW141774  10.387   0.461   3.275
46647SOL    HW241775  10.458   0.582   3.333
46648SOL     OW41776  11.422  12.580  10.513
46648SOL    HW141777  11.479  12.538  10.448
46648SOL    HW241778  11.438  12.674  10.501
46649SOL     OW41779  12.838  14.041   4.998
46649SOL    HW141780  12.747  14.012   4.999
46649SOL    HW241781  12.861  14.051   5.090
46650SOL     OW41782   0.552  12.999  10.232
46650SOL    HW141783   0.549  13.093  10.212
46650SOL    HW241784   0.612  12.993  10.306
46651SOL     OW41785  10.171   6.586   3.743
46651SOL    HW141786  10.140   6.544   3.823
46651SOL    HW241787  10.099   6.643   3.716
46652SOL     OW41788  12.793   7.576   6.064
46652SOL    HW141789  12.784   7.552   5.972
46652SOL    HW241790  12.887   7.571   6.081
46653SOL     OW41791   6.981   1.337   2.382
46653SOL    HW141792   7.013   1.256   2.423
46653SOL    HW241793   7.044   1.404   2.408
46654SOL     OW41794   2.289   7.662   7.039
46654SOL    HW141795   2.289   7.731   7.104
46654SOL    HW241796   2.300   7.707   6.955
46655SOL     OW41797  11.910  11.823   6.675
46655SOL    HW141798  11.989  11.872   6.697
46655SOL    HW241799  11.941  11.756   6.613
46656SOL     OW41800  11.986   3.270  10.924
46656SOL    HW141801  12.035   3.187  10.917
46656SOL    HW241802  11.903   3.245  10.964
46657SOL     OW41803   9.586   6.246  10.411
46657SOL    HW141804   9.563   6.337  10.428
46657SOL    HW241805   9.638   6.249  10.331
46658SOL     OW41806  12.605   4.228   6.903
46658SOL    HW141807  12.701   4.224   6.910
46658SOL    HW241808  12.588   4.219   6.810
46659SOL     OW41809   4.227   6.756   4.191
46659SOL    HW141810   4.221   6.846   4.159
46659SOL    HW241811   4.247   6.765   4.284
46660SOL     OW41812   4.119   2.461   4.000
46660SOL    HW141813   4.055   2.466   4.071
46660SOL    HW241814   4.153   2.372   4.004
46661SOL     OW41815  11.037   8.826  10.381
46661SOL    HW141816  11.047   8.737  10.415
46661SOL    HW241817  11.038   8.815  10.286
46662SOL     OW41818   9.385   5.422   1.610
46662SOL    HW141819   9.370   5.418   1.704
46662SOL    HW241820   9.318   5.365   1.572
46663SOL     OW41821   1.788   9.129  14.126
46663SOL    HW141822   1.870   9.129  14.175
46663SOL    HW241823   1.753   9.041  14.138
46664SOL     OW41824   4.464   8.124   1.595
46664SOL    HW141825   4.514   8.045   1.613
46664SOL    HW241826   4.517   8.195   1.632
46665SOL     OW41827   0.940   0.902   1.694
46665SOL    HW141828   0.993   0.982   1.696
46665SOL    HW241829   0.866   0.921   1.752
46666SOL     OW41830   6.154  10.029  11.854
46666SOL    HW141831   6.082  10.058  11.798
46666SOL    HW241832   6.135   9.936  11.871
46667SOL     OW41833  12.393   7.611   0.076
46667SOL    HW141834  12.483   7.607   0.107
46667SOL    HW241835  12.361   7.521   0.081
46668SOL     OW41836  10.509   9.643   5.417
46668SOL    HW141837  10.459   9.721   5.396
46668SOL    HW241838  10.590   9.651   5.367
46669SOL     OW41839   1.035   5.717   7.507
46669SOL    HW141840   1.113   5.708   7.562
46669SOL    HW241841   0.999   5.803   7.531
46670SOL     OW41842   0.374   9.041  14.841
46670SOL    HW141843   0.417   9.007   0.047
46670SOL    HW241844   0.386   9.136  14.846
46671SOL     OW41845  14.675   4.110   7.927
46671SOL    HW141846  14.611   4.180   7.939
46671SOL    HW241847  14.753   4.140   7.975
46672SOL     OW41848   1.778   6.848   7.459
46672SOL    HW141849   1.814   6.795   7.388
46672SOL    HW241850   1.853   6.863   7.518
46673SOL     OW41851   2.051   8.187  12.200
46673SOL    HW141852   2.092   8.107  12.234
46673SOL    HW241853   2.018   8.231  12.278
46674SOL     OW41854   5.738   4.577  14.265
46674SOL    HW141855   5.816   4.548  14.217
46674SOL    HW241856   5.774   4.619  14.344
46675SOL     OW41857   2.411  14.854   7.071
46675SOL    HW141858   2.498  14.837   7.036
46675SOL    HW241859   2.351  14.822   7.004
46676SOL     OW41860   3.585   7.828   0.516
46676SOL    HW141861   3.652   7.774   0.475
46676SOL    HW241862   3.524   7.765   0.555
46677SOL     OW41863   8.318   3.610   6.167
46677SOL    HW141864   8.401   3.563   6.177
46677SOL    HW241865   8.291   3.629   6.257
46678SOL     OW41866   4.289  12.789   6.833
46678SOL    HW141867   4.380  12.797   6.861
46678SOL    HW241868   4.240  12.772   6.914
46679SOL     OW41869  12.391   4.783  14.776
46679SOL    HW141870  12.463   4.845  14.789
46679SOL    HW241871  12.357   4.767  14.864
46680SOL     OW41872   4.434   7.291   5.772
46680SOL    HW141873   4.430   7.311   5.865
46680SOL    HW241874   4.526   7.302   5.748
46681SOL     OW41875   2.023  10.598   8.066
46681SOL    HW141876   2.068  10.678   8.092
46681SOL    HW241877   1.930  10.621   8.072
46682SOL     OW41878   2.393  11.512   6.833
46682SOL    HW141879   2.348  11.434   6.866
46682SOL    HW241880   2.468  11.477   6.784
46683SOL     OW41881   1.114   7.070   6.063
46683SOL    HW141882   1.117   6.992   6.119
46683SOL    HW241883   1.123   7.143   6.124
46684SOL     OW41884  10.928   7.974   0.274
46684SOL    HW141885  11.020   7.978   0.249
46684SOL    HW241886  10.929   7.990   0.369
46685SOL     OW41887   1.466   8.788   9.381
46685SOL    HW141888   1.483   8.842   9.458
46685SOL    HW241889   1.551   8.750   9.359
46686SOL     OW41890   7.623   0.564  11.732
46686SOL    HW141891   7.530   0.577  11.714
46686SOL    HW241892   7.667   0.638  11.689
46687SOL     OW41893   9.119   4.207   6.457
46687SOL    HW141894   9.049   4.166   6.407
46687SOL    HW241895   9.075   4.276   6.507
46688SOL     OW41896   3.130   3.945   0.196
46688SOL    HW141897   3.196   3.929   0.264
46688SOL    HW241898   3.148   4.034   0.165
46689SOL     OW41899  14.759   3.177  14.711
46689SOL    HW141900  14.830   3.127  14.671
46689SOL    HW241901  14.763   3.154  14.804
46690SOL     OW41902   1.525   9.708  11.619
46690SOL    HW141903   1.593   9.649  11.652
46690SOL    HW241904   1.487   9.662  11.544
46691SOL     OW41905   5.004  11.994   3.951
46691SOL    HW141906   4.979  12.062   4.013
46691SOL    HW241907   5.093  11.969   3.977
46692SOL     OW41908   4.389   4.424   0.510
46692SOL    HW141909   4.321   4.356   0.516
46692SOL    HW241910   4.357   4.494   0.567
46693SOL     OW41911  14.173   6.768   9.710
46693SOL    HW141912  14.093   6.739   9.755
46693SOL    HW241913  14.181   6.861   9.732
46694SOL     OW41914   4.319   0.348  13.656
46694SOL    HW141915   4.253   0.389  13.711
46694SOL    HW241916   4.337   0.412  13.587
46695SOL     OW41917  10.685  10.180   6.141
46695SOL    HW141918  10.645  10.262   6.114
46695SOL    HW241919  10.669  10.174   6.235
46696SOL     OW41920   3.978   8.546   1.896
46696SOL    HW141921   3.938   8.462   1.872
46696SOL    HW241922   4.068   8.539   1.863
46697SOL     OW41923   9.068   4.459  11.654
46697SOL    HW141924   9.046   4.376  11.611
46697SOL    HW241925   9.058   4.525  11.586
46698SOL     OW41926   9.566   6.802  12.396
46698SOL    HW141927   9.560   6.897  12.388
46698SOL    HW241928   9.511   6.769  12.324
46699SOL     OW41929   4.099   6.023   1.607
46699SOL    HW141930   4.172   5.961   1.608
46699SOL    HW241931   4.031   5.980   1.554
46700SOL     OW41932   6.375  10.002   3.415
46700SOL    HW141933   6.458  10.050   3.416
46700SOL    HW241934   6.324  10.044   3.346
46701SOL     OW41935  11.447  10.584   0.194
46701SOL    HW141936  11.460  10.576   0.100
46701SOL    HW241937  11.466  10.676   0.213
46702SOL     OW41938   0.185   5.372   7.808
46702SOL    HW141939   0.261   5.412   7.851
46702SOL    HW241940   0.147   5.444   7.757
46703SOL     OW41941   6.295   1.482  12.274
46703SOL    HW141942   6.261   1.513  12.358
46703SOL    HW241943   6.218   1.443  12.231
46704SOL     OW41944  14.167   4.149  12.975
46704SOL    HW141945  14.258   4.133  12.950
46704SOL    HW241946  14.170   4.226  13.032
46705SOL     OW41947  12.415   9.051   7.705
46705SOL    HW141948  12.427   8.958   7.724
46705SOL    HW241949  12.505   9.086   7.702
46706SOL     OW41950   9.178   4.587   3.484
46706SOL    HW141951   9.168   4.508   3.536
46706SOL    HW241952   9.232   4.561   3.410
46707SOL     OW41953   1.979  14.434  13.568
46707SOL    HW141954   2.002  14.393  13.652
46707SOL    HW241955   1.976  14.361  13.507
46708SOL     OW41956  10.501   4.988  11.271
46708SOL    HW141957  10.520   5.039  11.193
46708SOL    HW241958  10.551   5.030  11.341
46709SOL     OW41959   0.079  13.981   1.587
46709SOL    HW141960   0.087  13.954   1.679
46709SOL    HW241961   0.163  14.024   1.568
46710SOL     OW41962   3.890   2.272  14.538
46710SOL    HW141963   3.824   2.243  14.601
46710SOL    HW241964   3.861   2.235  14.455
46711SOL     OW41965   5.747  12.224   2.778
46711SOL    HW141966   5.674  12.168   2.804
46711SOL    HW241967   5.714  12.313   2.790
46712SOL     OW41968  12.948   2.789   0.825
46712SOL    HW141969  13.024   2.789   0.767
46712SOL    HW241970  12.920   2.881   0.828
46713SOL     OW41971   2.727   4.086  11.548
46713SOL    HW141972   2.633   4.069  11.550
46713SOL    HW241973   2.763   4.033  11.619
46714SOL     OW41974   7.909   5.952   3.113
46714SOL    HW141975   7.870   5.867   3.136
46714SOL    HW241976   7.902   5.955   3.017
46715SOL     OW41977   6.281   6.729   0.487
46715SOL    HW141978   6.258   6.800   0.547
46715SOL    HW241979   6.253   6.761   0.401
46716SOL     OW41980   0.935  11.685   9.710
46716SOL    HW141981   0.949  11.743   9.784
46716SOL    HW241982   0.991  11.609   9.728
46717SOL     OW41983  14.791  11.994   9.243
46717SOL    HW141984  14.754  11.959   9.162
46717SOL    HW241985   0.013  11.999   9.226
46718SOL     OW41986   3.637   1.538   0.418
46718SOL    HW141987   3.563   1.540   0.478
46718SOL    HW241988   3.616   1.468   0.356
46719SOL     OW41989   7.038  13.789   5.649
46719SOL    HW141990   6.969  13.842   5.689
46719SOL    HW241991   7.078  13.846   5.583
46720SOL     OW41992   2.549  14.360   4.771
46720SOL    HW141993   2.576  14.413   4.696
46720SOL    HW241994   2.486  14.298   4.734
46721SOL     OW41995  13.490  10.245   2.373
46721SOL    HW141996  13.512  10.171   2.429
46721SOL    HW241997  13.547  10.234   2.296
46722SOL     OW41998   3.788   5.698   4.508
46722SOL    HW141999   3.807   5.657   4.424
46722SOL    HW242000   3.780   5.626   4.570
46723SOL     OW42001  14.857   1.984  12.854
46723SOL    HW142002  14.768   1.957  12.831
46723SOL    HW242003  14.858   1.986  12.949
46724SOL     OW42004  14.741   7.184   8.456
46724SOL    HW142005  14.802   7.243   8.413
46724SOL    HW242006  14.683   7.154   8.387
46725SOL     OW42007   0.737  10.719  13.900
46725SOL    HW142008   0.719  10.647  13.960
46725SOL    HW242009   0.833  10.721  13.894
46726SOL     OW42010  14.588   0.173  10.899
46726SOL    HW142011  14.528   0.192  10.827
46726SOL    HW242012  14.668   0.142  10.856
46727SOL     OW42013  11.016   3.533   9.475
46727SOL    HW142014  11.037   3.623   9.451
46727SOL    HW242015  11.101   3.492   9.493
46728SOL     OW42016  14.559  10.643  11.210
46728SOL    HW142017  14.472  10.612  11.236
46728SOL    HW242018  14.549  10.669  11.119
46729SOL     OW42019   8.571   9.360   1.170
46729SOL    HW142020   8.624   9.427   1.127
46729SOL    HW242021   8.501   9.340   1.108
46730SOL     OW42022   6.911   5.806  13.684
46730SOL    HW142023   6.990   5.794  13.737
46730SOL    HW242024   6.907   5.900  13.667
46731SOL     OW42025  13.521   5.890   9.688
46731SOL    HW142026  13.605   5.843   9.681
46731SOL    HW242027  13.463   5.828   9.731
46732SOL     OW42028  13.738   6.184  10.204
46732SOL    HW142029  13.710   6.146  10.121
46732SOL    HW242030  13.684   6.262  10.215
46733SOL     OW42031   9.808   7.326   7.435
46733SOL    HW142032   9.798   7.237   7.471
46733SOL    HW242033   9.729   7.339   7.383
46734SOL     OW42034   5.072   7.341   5.529
46734SOL    HW142035   4.976   7.345   5.526
46734SOL    HW242036   5.092   7.286   5.605
46735SOL     OW42037  14.825  10.957   0.970
46735SOL    HW142038   0.044  10.940   0.988
46735SOL    HW242039  14.778  10.892   1.023
46736SOL     OW42040  13.960  13.782   3.638
46736SOL    HW142041  13.994  13.799   3.726
46736SOL    HW242042  13.868  13.760   3.653
46737SOL     OW42043   1.404  14.692   7.721
46737SOL    HW142044   1.453  14.764   7.761
46737SOL    HW242045   1.348  14.735   7.656
46738SOL     OW42046  13.803  12.153  14.736
46738SOL    HW142047  13.719  12.137  14.692
46738SOL    HW242048  13.869  12.128  14.671
46739SOL     OW42049  11.542   0.980   0.234
46739SOL    HW142050  11.611   0.918   0.211
46739SOL    HW242051  11.584   1.040   0.296
46740SOL     OW42052   2.661   2.443  13.057
46740SOL    HW142053   2.646   2.504  12.985
46740SOL    HW242054   2.684   2.498  13.131
46741SOL     OW42055   8.492  14.607   2.969
46741SOL    HW142056   8.459  14.659   3.042
46741SOL    HW242057   8.469  14.517   2.992
46742SOL     OW42058  14.518   9.368   1.692
46742SOL    HW142059  14.435   9.401   1.725
46742SOL    HW242060  14.580   9.440   1.705
46743SOL     OW42061  10.895   5.564   8.323
46743SOL    HW142062  10.857   5.648   8.299
46743SOL    HW242063  10.850   5.500   8.268
46744SOL     OW42064  14.341   8.101  13.048
46744SOL    HW142065  14.371   8.010  13.041
46744SOL    HW242066  14.330   8.129  12.958
46745SOL     OW42067   4.157   5.000   8.626
46745SOL    HW142068   4.172   5.094   8.630
46745SOL    HW242069   4.186   4.968   8.712
46746SOL     OW42070  10.173   9.980   0.493
46746SOL    HW142071  10.265   9.955   0.502
46746SOL    HW242072  10.130   9.937   0.567
46747SOL     OW42073  11.991   3.027   0.663
46747SOL    HW142074  12.043   2.973   0.721
46747SOL    HW242075  12.050   3.048   0.590
46748SOL     OW42076   4.902  12.055  10.940
46748SOL    HW142077   4.992  12.055  10.972
46748SOL    HW242078   4.907  12.092  10.852
46749SOL     OW42079   9.863   1.156  10.097
46749SOL    HW142080   9.792   1.167  10.034
46749SOL    HW242081   9.855   1.066  10.128
46750SOL     OW42082   1.122  11.353   7.452
46750SOL    HW142083   1.054  11.413   7.421
46750SOL    HW242084   1.102  11.340   7.544
46751SOL     OW42085   4.415   3.470   8.619
46751SOL    HW142086   4.341   3.410   8.623
46751SOL    HW242087   4.402   3.521   8.539
46752SOL     OW42088  14.830   4.309   1.790
46752SOL    HW142089  14.752   4.364   1.803
46752SOL    HW242090  14.854   4.324   1.699
46753SOL     OW42091   1.946   3.415   7.450
46753SOL    HW142092   2.009   3.414   7.378
46753SOL    HW242093   1.999   3.398   7.529
46754SOL     OW42094   4.516   6.097  14.392
46754SOL    HW142095   4.481   6.010  14.376
46754SOL    HW242096   4.546   6.126  14.306
46755SOL     OW42097   8.788  11.919   1.343
46755SOL    HW142098   8.846  11.885   1.275
46755SOL    HW242099   8.749  11.840   1.382
46756SOL     OW42100  13.416   2.379  12.617
46756SOL    HW142101  13.481   2.419  12.674
46756SOL    HW242102  13.458   2.377  12.531
46757SOL     OW42103  13.893   7.772   2.787
46757SOL    HW142104  13.855   7.685   2.780
46757SOL    HW242105  13.839   7.816   2.853
46758SOL     OW42106   5.619   3.403  11.604
46758SOL    HW142107   5.625   3.496  11.624
46758SOL    HW242108   5.653   3.395  11.515
46759SOL     OW42109   5.350   6.542   1.283
46759SOL    HW142110   5.324   6.466   1.335
46759SOL    HW242111   5.382   6.505   1.201
46760SOL     OW42112  13.048   6.688  10.661
46760SOL    HW142113  12.960   6.650  10.663
46760SOL    HW242114  13.100   6.624  10.613
46761SOL     OW42115   5.834  13.156  14.428
46761SOL    HW142116   5.906  13.111  14.384
46761SOL    HW242117   5.792  13.207  14.359
46762SOL     OW42118   9.659   6.975  10.533
46762SOL    HW142119   9.636   7.028  10.457
46762SOL    HW242120   9.611   6.893  10.521
46763SOL     OW42121  10.714  12.046   4.406
46763SOL    HW142122  10.729  12.130   4.363
46763SOL    HW242123  10.653  12.066   4.477
46764SOL     OW42124   5.248   0.085   4.331
46764SOL    HW142125   5.266   0.053   4.420
46764SOL    HW242126   5.208   0.171   4.345
46765SOL     OW42127   4.881   4.663   5.783
46765SOL    HW142128   4.906   4.628   5.868
46765SOL    HW242129   4.920   4.750   5.780
46766SOL     OW42130   8.237  11.873   4.339
46766SOL    HW142131   8.237  11.881   4.435
46766SOL    HW242132   8.186  11.947   4.308
46767SOL     OW42133   5.134  10.281  11.778
46767SOL    HW142134   5.146  10.322  11.863
46767SOL    HW242135   5.209  10.221  11.770
46768SOL     OW42136   1.240   8.125   5.487
46768SOL    HW142137   1.148   8.150   5.480
46768SOL    HW242138   1.267   8.158   5.573
46769SOL     OW42139   7.697   7.696  13.786
46769SOL    HW142140   7.758   7.623  13.791
46769SOL    HW242141   7.687   7.713  13.692
46770SOL     OW42142   2.107   8.793   1.148
46770SOL    HW142143   2.045   8.862   1.173
46770SOL    HW242144   2.143   8.761   1.231
46771SOL     OW42145   9.536   0.483   1.848
46771SOL    HW142146   9.499   0.421   1.911
46771SOL    HW242147   9.462   0.512   1.795
46772SOL     OW42148  14.674   5.007   2.315
46772SOL    HW142149  14.757   4.968   2.344
46772SOL    HW242150  14.631   4.937   2.266
46773SOL     OW42151  12.933  11.646  13.617
46773SOL    HW142152  12.902  11.722  13.568
46773SOL    HW242153  12.937  11.675  13.708
46774SOL     OW42154  14.850  12.844   8.413
46774SOL    HW142155   0.018  12.893   8.342
46774SOL    HW242156   0.050  12.818   8.470
46775SOL     OW42157   2.235   7.032   2.215
46775SOL    HW142158   2.287   6.959   2.248
46775SOL    HW242159   2.176   6.992   2.152
46776SOL     OW42160  10.890   5.537   0.832
46776SOL    HW142161  10.853   5.469   0.889
46776SOL    HW242162  10.982   5.514   0.823
46777SOL     OW42163   8.433   8.182   6.019
46777SOL    HW142164   8.394   8.100   5.991
46777SOL    HW242165   8.443   8.173   6.114
46778SOL     OW42166  13.194   6.144   7.598
46778SOL    HW142167  13.257   6.213   7.619
46778SOL    HW242168  13.227   6.067   7.645
46779SOL     OW42169   9.786  13.248  14.495
46779SOL    HW142170   9.724  13.293  14.437
46779SOL    HW242171   9.734  13.220  14.570
46780SOL     OW42172   9.773   8.410   1.106
46780SOL    HW142173   9.730   8.377   1.026
46780SOL    HW242174   9.765   8.338   1.168
46781SOL     OW42175   9.404   2.261  10.390
46781SOL    HW142176   9.416   2.240  10.298
46781SOL    HW242177   9.422   2.179  10.436
46782SOL     OW42178   9.740  13.969   2.089
46782SOL    HW142179   9.772  13.994   2.176
46782SOL    HW242180   9.690  14.045   2.059
46783SOL     OW42181   9.088   3.215  11.088
46783SOL    HW142182   9.015   3.169  11.046
46783SOL    HW242183   9.077   3.198  11.182
46784SOL     OW42184   6.630   3.007  11.777
46784SOL    HW142185   6.578   2.957  11.840
46784SOL    HW242186   6.717   3.011  11.816
46785SOL     OW42187  10.295   4.904   8.045
46785SOL    HW142188  10.273   4.824   7.998
46785SOL    HW242189  10.244   4.973   8.003
46786SOL     OW42190   9.370   8.015   5.814
46786SOL    HW142191   9.304   7.971   5.867
46786SOL    HW242192   9.331   8.022   5.727
46787SOL     OW42193   3.545  10.515   2.905
46787SOL    HW142194   3.603  10.576   2.860
46787SOL    HW242195   3.561  10.430   2.864
46788SOL     OW42196   2.271   2.813  11.001
46788SOL    HW142197   2.304   2.823  11.091
46788SOL    HW242198   2.178   2.836  11.007
46789SOL     OW42199   7.397   7.761   2.784
46789SOL    HW142200   7.322   7.721   2.739
46789SOL    HW242201   7.443   7.687   2.824
46790SOL     OW42202   3.295   3.668  11.777
46790SOL    HW142203   3.210   3.680  11.734
46790SOL    HW242204   3.356   3.649  11.705
46791SOL     OW42205  11.933  11.478  10.876
46791SOL    HW142206  11.915  11.431  10.794
46791SOL    HW242207  11.875  11.437  10.940
46792SOL     OW42208   1.402   7.857   5.923
46792SOL    HW142209   1.372   7.849   6.013
46792SOL    HW242210   1.485   7.905   5.928
46793SOL     OW42211  11.409   5.794   2.872
46793SOL    HW142212  11.364   5.842   2.942
46793SOL    HW242213  11.502   5.800   2.895
46794SOL     OW42214  12.858   4.438   3.664
46794SOL    HW142215  12.764   4.450   3.654
46794SOL    HW242216  12.889   4.521   3.700
46795SOL     OW42217  13.204   7.971  14.063
46795SOL    HW142218  13.210   7.935  13.974
46795SOL    HW242219  13.290   7.953  14.102
46796SOL     OW42220   8.933  14.620  12.374
46796SOL    HW142221   8.973  14.576  12.449
46796SOL    HW242222   8.989  14.598  12.300
46797SOL     OW42223   1.843  12.110   1.191
46797SOL    HW142224   1.892  12.060   1.256
46797SOL    HW242225   1.804  12.043   1.134
46798SOL     OW42226   0.457   7.629  12.416
46798SOL    HW142227   0.499   7.593  12.338
46798SOL    HW242228   0.413   7.554  12.457
46799SOL     OW42229   6.792   7.530   1.664
46799SOL    HW142230   6.789   7.591   1.590
46799SOL    HW242231   6.761   7.581   1.738
46800SOL     OW42232   3.324   2.683  11.898
46800SOL    HW142233   3.297   2.641  11.816
46800SOL    HW242234   3.255   2.661  11.961
46801SOL     OW42235   2.289   6.842   6.876
46801SOL    HW142236   2.363   6.869   6.931
46801SOL    HW242237   2.329   6.816   6.793
46802SOL     OW42238   6.640   9.427   2.009
46802SOL    HW142239   6.568   9.484   2.037
46802SOL    HW242240   6.714   9.455   2.063
46803SOL     OW42241   7.381   4.037   1.885
46803SOL    HW142242   7.456   4.095   1.874
46803SOL    HW242243   7.387   3.976   1.812
46804SOL     OW42244   1.969  12.415  12.835
46804SOL    HW142245   1.883  12.451  12.857
46804SOL    HW242246   2.027  12.491  12.831
46805SOL     OW42247   4.425  13.170  11.786
46805SOL    HW142248   4.409  13.104  11.718
46805SOL    HW242249   4.517  13.194  11.774
46806SOL     OW42250  12.114   7.503   8.834
46806SOL    HW142251  12.077   7.497   8.746
46806SOL    HW242252  12.118   7.597   8.852
46807SOL     OW42253   3.253  10.488   9.723
46807SOL    HW142254   3.163  10.507   9.698
46807SOL    HW242255   3.305  10.555   9.679
46808SOL     OW42256   4.935   9.548  12.325
46808SOL    HW142257   4.845   9.546  12.292
46808SOL    HW242258   4.964   9.637  12.306
46809SOL     OW42259   6.353   5.823  14.288
46809SOL    HW142260   6.264   5.843  14.317
46809SOL    HW242261   6.352   5.728  14.272
46810SOL     OW42262   3.037   8.322   2.265
46810SOL    HW142263   2.975   8.265   2.220
46810SOL    HW242264   2.992   8.407   2.270
46811SOL     OW42265  12.276  13.635   7.641
46811SOL    HW142266  12.184  13.612   7.630
46811SOL    HW242267  12.313  13.631   7.553
46812SOL     OW42268   8.161  11.980   2.834
46812SOL    HW142269   8.106  11.928   2.892
46812SOL    HW242270   8.121  12.067   2.835
46813SOL     OW42271  11.478   2.924   5.845
46813SOL    HW142272  11.438   2.907   5.930
46813SOL    HW242273  11.411   2.899   5.781
46814SOL     OW42274   7.961   7.594  12.300
46814SOL    HW142275   7.887   7.601  12.360
46814SOL    HW242276   7.968   7.681  12.261
46815SOL     OW42277   8.685  13.109  10.603
46815SOL    HW142278   8.748  13.042  10.630
46815SOL    HW242279   8.605  13.061  10.585
46816SOL     OW42280   6.467  13.187   3.563
46816SOL    HW142281   6.496  13.141   3.485
46816SOL    HW242282   6.547  13.203   3.612
46817SOL     OW42283  12.618   1.789   9.519
46817SOL    HW142284  12.675   1.771   9.594
46817SOL    HW242285  12.531   1.761   9.548
46818SOL     OW42286   6.745  14.049   0.963
46818SOL    HW142287   6.767  14.022   0.874
46818SOL    HW242288   6.807  14.119   0.983
46819SOL     OW42289   3.904   9.140   5.513
46819SOL    HW142290   3.968   9.209   5.497
46819SOL    HW242291   3.915   9.080   5.439
46820SOL     OW42292   3.809   1.056   6.935
46820SOL    HW142293   3.881   1.103   6.892
46820SOL    HW242294   3.847   0.972   6.961
46821SOL     OW42295   9.686   0.984   1.126
46821SOL    HW142296   9.690   0.920   1.056
46821SOL    HW242297   9.606   0.961   1.174
46822SOL     OW42298   0.568   4.504  13.229
46822SOL    HW142299   0.599   4.416  13.249
46822SOL    HW242300   0.578   4.552  13.312
46823SOL     OW42301   8.821   0.419  10.769
46823SOL    HW142302   8.783   0.425  10.857
46823SOL    HW242303   8.813   0.326  10.747
46824SOL     OW42304  10.099   4.146   1.693
46824SOL    HW142305  10.103   4.153   1.598
46824SOL    HW242306  10.006   4.143   1.714
46825SOL     OW42307  11.730   8.356   1.587
46825SOL    HW142308  11.687   8.429   1.542
46825SOL    HW242309  11.815   8.349   1.543
46826SOL     OW42310  14.806   5.849   3.532
46826SOL    HW142311   0.005   5.912   3.530
46826SOL    HW242312  14.753   5.871   3.455
46827SOL     OW42313  10.308  13.741  12.845
46827SOL    HW142314  10.234  13.687  12.872
46827SOL    HW242315  10.343  13.777  12.927
46828SOL     OW42316   2.691   7.215   0.629
46828SOL    HW142317   2.767   7.251   0.677
46828SOL    HW242318   2.652   7.291   0.586
46829SOL     OW42319  11.353   2.295  12.674
46829SOL    HW142320  11.396   2.310  12.758
46829SOL    HW242321  11.353   2.200  12.664
46830SOL     OW42322   7.756  11.214   0.064
46830SOL    HW142323   7.778  11.163   0.143
46830SOL    HW242324   7.712  11.151   0.007
46831SOL     OW42325   3.812   9.794  10.562
46831SOL    HW142326   3.901   9.761  10.551
46831SOL    HW242327   3.820   9.864  10.626
46832SOL     OW42328   2.891   4.370   0.783
46832SOL    HW142329   2.930   4.452   0.752
46832SOL    HW242330   2.966   4.311   0.794
46833SOL     OW42331   5.366   5.850  10.957
46833SOL    HW142332   5.279   5.820  10.983
46833SOL    HW242333   5.398   5.782  10.897
46834SOL     OW42334  13.919   7.332   2.144
46834SOL    HW142335  13.916   7.388   2.222
46834SOL    HW242336  13.868   7.255   2.169
46835SOL     OW42337   6.035  13.238  14.036
46835SOL    HW142338   6.089  13.243  14.114
46835SOL    HW242339   5.970  13.307  14.046
46836SOL     OW42340   7.749  13.900   4.395
46836SOL    HW142341   7.810  13.949   4.340
46836SOL    HW242342   7.722  13.963   4.462
46837SOL     OW42343   8.165   9.770  10.109
46837SOL    HW142344   8.071   9.772  10.127
46837SOL    HW242345   8.182   9.679  10.083
46838SOL     OW42346   8.865  11.577   5.087
46838SOL    HW142347   8.799  11.531   5.138
46838SOL    HW242348   8.823  11.660   5.063
46839SOL     OW42349  14.243  13.008   2.683
46839SOL    HW142350  14.264  13.057   2.763
46839SOL    HW242351  14.170  13.055   2.644
46840SOL     OW42352   4.094   7.876   6.214
46840SOL    HW142353   4.136   7.796   6.243
46840SOL    HW242354   4.166   7.933   6.186
46841SOL     OW42355   9.644   1.820  12.426
46841SOL    HW142356   9.585   1.857  12.493
46841SOL    HW242357   9.730   1.856  12.448
46842SOL     OW42358  14.296   9.584   5.138
46842SOL    HW142359  14.365   9.574   5.072
46842SOL    HW242360  14.321   9.662   5.187
46843SOL     OW42361   4.364   3.824  10.261
46843SOL    HW142362   4.268   3.824  10.264
46843SOL    HW242363   4.390   3.769  10.335
46844SOL     OW42364  11.500   1.525  10.447
46844SOL    HW142365  11.406   1.542  10.448
46844SOL    HW242366  11.515   1.470  10.524
46845SOL     OW42367   7.269   2.166   8.267
46845SOL    HW142368   7.274   2.184   8.173
46845SOL    HW242369   7.247   2.073   8.273
46846SOL     OW42370   8.798   2.608  10.754
46846SOL    HW142371   8.765   2.603  10.844
46846SOL    HW242372   8.892   2.594  10.762
46847SOL     OW42373   4.267  13.574   6.116
46847SOL    HW142374   4.233  13.487   6.096
46847SOL    HW242375   4.198  13.616   6.166
46848SOL     OW42376   7.395   4.302   4.438
46848SOL    HW142377   7.336   4.240   4.481
46848SOL    HW242378   7.482   4.271   4.461
46849SOL     OW42379  13.898  11.247  13.851
46849SOL    HW142380  13.955  11.259  13.776
46849SOL    HW242381  13.810  11.263  13.817
46850SOL     OW42382   0.968  10.510  14.280
46850SOL    HW142383   0.879  10.489  14.253
46850SOL    HW242384   0.981  10.600  14.253
46851SOL     OW42385   7.446  12.518  10.306
46851SOL    HW142386   7.357  12.521  10.271
46851SOL    HW242387   7.463  12.425  10.321
46852SOL     OW42388   9.554   5.025  11.103
46852SOL    HW142389   9.628   5.081  11.124
46852SOL    HW242390   9.549   4.963  11.176
46853SOL     OW42391  10.767  10.926  13.809
46853SOL    HW142392  10.723  10.945  13.892
46853SOL    HW242393  10.715  10.855  13.770
46854SOL     OW42394  12.813   1.457   1.205
46854SOL    HW142395  12.900   1.438   1.169
46854SOL    HW242396  12.777   1.372   1.227
46855SOL     OW42397  11.775   3.511   8.321
46855SOL    HW142398  11.720   3.579   8.359
46855SOL    HW242399  11.713   3.450   8.280
46856SOL     OW42400   7.860   0.768   9.357
46856SOL    HW142401   7.810   0.780   9.276
46856SOL    HW242402   7.861   0.854   9.398
46857SOL     OW42403  11.484   3.752   7.836
46857SOL    HW142404  11.470   3.708   7.752
46857SOL    HW242405  11.523   3.685   7.892
46858SOL     OW42406  12.117  10.959  13.236
46858SOL    HW142407  12.105  10.971  13.142
46858SOL    HW242408  12.179  11.028  13.261
46859SOL     OW42409   8.189   6.551   8.214
46859SOL    HW142410   8.154   6.563   8.302
46859SOL    HW242411   8.125   6.594   8.157
46860SOL     OW42412  14.600   0.108  10.296
46860SOL    HW142413  14.671   0.082  10.238
46860SOL    HW242414  14.640   0.109  10.383
46861SOL     OW42415   9.307   6.734   5.330
46861SOL    HW142416   9.378   6.716   5.268
46861SOL    HW242417   9.349   6.734   5.416
46862SOL     OW42418   7.939  12.954   3.638
46862SOL    HW142419   7.879  13.028   3.625
46862SOL    HW242420   7.882  12.878   3.641
46863SOL     OW42421   1.978  13.334   7.610
46863SOL    HW142422   2.034  13.402   7.573
46863SOL    HW242423   1.889  13.367   7.597
46864SOL     OW42424  13.322   3.360   1.137
46864SOL    HW142425  13.257   3.331   1.201
46864SOL    HW242426  13.397   3.388   1.190
46865SOL     OW42427   2.305   8.245  14.784
46865SOL    HW142428   2.385   8.261  14.834
46865SOL    HW242429   2.266   8.167  14.824
46866SOL     OW42430   6.769   1.143   3.469
46866SOL    HW142431   6.753   1.049   3.479
46866SOL    HW242432   6.703   1.173   3.406
46867SOL     OW42433   6.049   7.681  14.753
46867SOL    HW142434   6.039   7.753  14.815
46867SOL    HW242435   6.114   7.624  14.793
46868SOL     OW42436   3.806   5.104   3.807
46868SOL    HW142437   3.857   5.152   3.742
46868SOL    HW242438   3.732   5.161   3.827
46869SOL     OW42439   3.409   0.622   5.033
46869SOL    HW142440   3.379   0.566   5.104
46869SOL    HW242441   3.388   0.574   4.953
46870SOL     OW42442  10.067   1.910   9.664
46870SOL    HW142443  10.088   1.923   9.756
46870SOL    HW242444   9.971   1.910   9.661
46871SOL     OW42445   1.817   2.862   9.439
46871SOL    HW142446   1.847   2.790   9.494
46871SOL    HW242447   1.898   2.902   9.405
46872SOL     OW42448   4.806   8.164   3.906
46872SOL    HW142449   4.741   8.233   3.895
46872SOL    HW242450   4.776   8.093   3.848
46873SOL     OW42451   5.658  10.950   7.502
46873SOL    HW142452   5.710  10.870   7.501
46873SOL    HW242453   5.710  11.013   7.453
46874SOL     OW42454  14.586   4.740   4.670
46874SOL    HW142455  14.571   4.818   4.618
46874SOL    HW242456  14.672   4.753   4.710
46875SOL     OW42457   6.367   0.315  12.813
46875SOL    HW142458   6.331   0.280  12.895
46875SOL    HW242459   6.460   0.295  12.817
46876SOL     OW42460  12.634   5.962  10.736
46876SOL    HW142461  12.558   5.909  10.763
46876SOL    HW242462  12.595   6.039  10.694
46877SOL     OW42463  13.024   4.490   9.250
46877SOL    HW142464  12.964   4.478   9.177
46877SOL    HW242465  13.069   4.572   9.230
46878SOL     OW42466   1.989   6.440  10.606
46878SOL    HW142467   2.047   6.399  10.541
46878SOL    HW242468   2.043   6.508  10.647
46879SOL     OW42469  12.334   9.590   5.125
46879SOL    HW142470  12.266   9.624   5.066
46879SOL    HW242471  12.307   9.618   5.212
46880SOL     OW42472   9.631   0.152   0.663
46880SOL    HW142473   9.582   0.197   0.732
46880SOL    HW242474   9.564   0.105   0.613
46881SOL     OW42475   2.794  11.971  10.381
46881SOL    HW142476   2.821  12.033  10.449
46881SOL    HW242477   2.702  11.994  10.364
46882SOL     OW42478   8.823   8.805  10.190
46882SOL    HW142479   8.748   8.776  10.138
46882SOL    HW242480   8.792   8.802  10.280
46883SOL     OW42481   2.495   8.143   2.456
46883SOL    HW142482   2.472   8.069   2.399
46883SOL    HW242483   2.449   8.125   2.538
46884SOL     OW42484  11.058   5.771   1.446
46884SOL    HW142485  11.129   5.753   1.384
46884SOL    HW242486  11.086   5.731   1.528
46885SOL     OW42487  12.788   7.435   0.353
46885SOL    HW142488  12.800   7.518   0.306
46885SOL    HW242489  12.698   7.410   0.334
46886SOL     OW42490   5.331   7.646   5.698
46886SOL    HW142491   5.276   7.721   5.675
46886SOL    HW242492   5.327   7.643   5.794
46887SOL     OW42493   0.447   4.872  13.899
46887SOL    HW142494   0.511   4.894  13.833
46887SOL    HW242495   0.377   4.828  13.851
46888SOL     OW42496   6.293   8.415   5.116
46888SOL    HW142497   6.231   8.352   5.155
46888SOL    HW242498   6.244   8.458   5.046
46889SOL     OW42499   3.486   8.596   7.275
46889SOL    HW142500   3.474   8.671   7.334
46889SOL    HW242501   3.546   8.628   7.208
46890SOL     OW42502   8.738  12.252   3.244
46890SOL    HW142503   8.698  12.333   3.212
46890SOL    HW242504   8.818  12.280   3.287
46891SOL     OW42505   8.326   1.083  13.154
46891SOL    HW142506   8.324   1.007  13.097
46891SOL    HW242507   8.251   1.070  13.213
46892SOL     OW42508   2.149   5.914  14.712
46892SOL    HW142509   2.214   5.875  14.653
46892SOL    HW242510   2.172   5.881  14.799
46893SOL     OW42511  12.513  11.190   0.093
46893SOL    HW142512  12.534  11.222   0.005
46893SOL    HW242513  12.506  11.269   0.147
46894SOL     OW42514   8.632   7.091  11.822
46894SOL    HW142515   8.670   7.017  11.869
46894SOL    HW242516   8.640   7.067  11.729
46895SOL     OW42517   4.736   1.965   6.313
46895SOL    HW142518   4.676   2.005   6.250
46895SOL    HW242519   4.810   2.025   6.317
46896SOL     OW42520   2.362  12.789   0.597
46896SOL    HW142521   2.428  12.824   0.656
46896SOL    HW242522   2.352  12.856   0.529
46897SOL     OW42523   3.991  10.122   6.475
46897SOL    HW142524   3.975  10.204   6.521
46897SOL    HW242525   4.032  10.149   6.393
46898SOL     OW42526  10.646   8.408   6.214
46898SOL    HW142527  10.686   8.321   6.205
46898SOL    HW242528  10.577   8.397   6.280
46899SOL     OW42529   6.348   2.721   2.815
46899SOL    HW142530   6.346   2.645   2.872
46899SOL    HW242531   6.410   2.781   2.856
46900SOL     OW42532   8.678  13.633   9.149
46900SOL    HW142533   8.643  13.598   9.067
46900SOL    HW242534   8.766  13.664   9.127
46901SOL     OW42535   2.294  14.106  14.307
46901SOL    HW142536   2.235  14.136  14.376
46901SOL    HW242537   2.329  14.023  14.338
46902SOL     OW42538  13.615   8.201   0.898
46902SOL    HW142539  13.536   8.250   0.880
46902SOL    HW242540  13.686   8.265   0.889
46903SOL     OW42541   0.938   9.269   0.039
46903SOL    HW142542   0.934   9.267  14.816
46903SOL    HW242543   0.847   9.272   0.067
46904SOL     OW42544   8.631   9.090   7.851
46904SOL    HW142545   8.644   9.019   7.914
46904SOL    HW242546   8.540   9.081   7.823
46905SOL     OW42547  13.487   0.259  12.829
46905SOL    HW142548  13.431   0.308  12.769
46905SOL    HW242549  13.537   0.327  12.875
46906SOL     OW42550   0.443   2.367   4.186
46906SOL    HW142551   0.385   2.388   4.259
46906SOL    HW242552   0.515   2.429   4.194
46907SOL     OW42553   3.953   1.786   8.213
46907SOL    HW142554   3.909   1.702   8.219
46907SOL    HW242555   3.916   1.827   8.135
46908SOL     OW42556   8.889  11.758  13.008
46908SOL    HW142557   8.853  11.752  13.097
46908SOL    HW242558   8.855  11.840  12.973
46909SOL     OW42559   0.747   7.015  10.258
46909SOL    HW142560   0.684   7.053  10.320
46909SOL    HW242561   0.785   6.940  10.304
46910SOL     OW42562   7.953   2.452  11.948
46910SOL    HW142563   7.879   2.440  11.889
46910SOL    HW242564   7.937   2.393  12.021
46911SOL     OW42565  12.894  14.638   1.691
46911SOL    HW142566  12.806  14.631   1.654
46911SOL    HW242567  12.902  14.564   1.750
46912SOL     OW42568   4.720   9.412   2.893
46912SOL    HW142569   4.803   9.451   2.866
46912SOL    HW242570   4.721   9.324   2.854
46913SOL     OW42571  13.816   8.918   9.841
46913SOL    HW142572  13.841   8.947   9.753
46913SOL    HW242573  13.827   8.823   9.839
46914SOL     OW42574  14.219   0.241  12.589
46914SOL    HW142575  14.288   0.176  12.602
46914SOL    HW242576  14.142   0.189  12.563
46915SOL     OW42577  11.710   3.972   4.061
46915SOL    HW142578  11.641   3.984   4.126
46915SOL    HW242579  11.781   3.927   4.108
46916SOL     OW42580   1.529  11.504   9.986
46916SOL    HW142581   1.501  11.413   9.993
46916SOL    HW242582   1.496  11.546  10.065
46917SOL     OW42583  11.849  10.260   5.855
46917SOL    HW142584  11.829  10.222   5.941
46917SOL    HW242585  11.832  10.354   5.867
46918SOL     OW42586  12.243   9.601  13.262
46918SOL    HW142587  12.293   9.557  13.330
46918SOL    HW242588  12.269   9.557  13.181
46919SOL     OW42589   5.914   0.138  12.416
46919SOL    HW142590   5.855   0.180  12.478
46919SOL    HW242591   5.911   0.045  12.438
46920SOL     OW42592  14.095   5.309   8.651
46920SOL    HW142593  14.003   5.322   8.629
46920SOL    HW242594  14.143   5.340   8.573
46921SOL     OW42595  12.116   2.183   0.938
46921SOL    HW142596  12.043   2.241   0.918
46921SOL    HW242597  12.077   2.096   0.941
46922SOL     OW42598   4.125  10.617   1.376
46922SOL    HW142599   4.113  10.612   1.471
46922SOL    HW242600   4.198  10.677   1.364
46923SOL     OW42601  14.383  12.387  13.977
46923SOL    HW142602  14.327  12.381  13.900
46923SOL    HW242603  14.390  12.297  14.009
46924SOL     OW42604  12.384  13.689   7.895
46924SOL    HW142605  12.305  13.685   7.949
46924SOL    HW242606  12.352  13.676   7.806
46925SOL     OW42607   4.053   5.798   6.854
46925SOL    HW142608   3.962   5.814   6.880
46925SOL    HW242609   4.101   5.873   6.889
46926SOL     OW42610   1.809   6.040   4.276
46926SOL    HW142611   1.887   5.985   4.263
46926SOL    HW242612   1.815   6.069   4.367
46927SOL     OW42613   0.109   5.623   7.213
46927SOL    HW142614   0.018   5.614   7.242
46927SOL    HW242615   0.108   5.699   7.155
46928SOL     OW42616   1.343  13.739  11.855
46928SOL    HW142617   1.367  13.671  11.791
46928SOL    HW242618   1.258  13.712  11.887
46929SOL     OW42619  14.559  12.090   1.605
46929SOL    HW142620  14.496  12.139   1.659
46929SOL    HW242621  14.592  12.155   1.543
46930SOL     OW42622   0.120   6.492   2.798
46930SOL    HW142623   0.116   6.434   2.874
46930SOL    HW242624   0.125   6.580   2.835
46931SOL     OW42625   3.367  13.346   4.733
46931SOL    HW142626   3.354  13.258   4.769
46931SOL    HW242627   3.295  13.398   4.769
46932SOL     OW42628   8.195  10.509   8.637
46932SOL    HW142629   8.108  10.493   8.600
46932SOL    HW242630   8.254  10.503   8.562
46933SOL     OW42631  12.674  10.440   2.722
46933SOL    HW142632  12.766  10.417   2.735
46933SOL    HW242633  12.643  10.466   2.808
46934SOL     OW42634   2.168  11.595   2.747
46934SOL    HW142635   2.090  11.629   2.792
46934SOL    HW242636   2.242  11.634   2.794
46935SOL     OW42637   0.607  11.099   8.688
46935SOL    HW142638   0.653  11.082   8.770
46935SOL    HW242639   0.670  11.074   8.620
46936SOL     OW42640   6.731   5.721   2.284
46936SOL    HW142641   6.675   5.660   2.332
46936SOL    HW242642   6.693   5.724   2.196
46937SOL     OW42643   7.012  12.359   1.630
46937SOL    HW142644   7.020  12.374   1.724
46937SOL    HW242645   6.948  12.287   1.623
46938SOL     OW42646   1.829   4.282  12.568
46938SOL    HW142647   1.906   4.309  12.518
46938SOL    HW242648   1.797   4.362  12.609
46939SOL     OW42649   7.742   3.421   5.899
46939SOL    HW142650   7.677   3.352   5.909
46939SOL    HW242651   7.783   3.429   5.986
46940SOL     OW42652  11.836   7.335  10.746
46940SOL    HW142653  11.748   7.371  10.757
46940SOL    HW242654  11.877   7.344  10.832
46941SOL     OW42655  13.547   9.741   0.366
46941SOL    HW142656  13.522   9.799   0.294
46941SOL    HW242657  13.621   9.690   0.332
46942SOL     OW42658   5.570   9.668  14.562
46942SOL    HW142659   5.558   9.735  14.629
46942SOL    HW242660   5.662   9.673  14.539
46943SOL     OW42661   6.643   4.126   0.413
46943SOL    HW142662   6.560   4.081   0.398
46943SOL    HW242663   6.666   4.163   0.328
46944SOL     OW42664  11.685  12.417  13.132
46944SOL    HW142665  11.674  12.500  13.177
46944SOL    HW242666  11.652  12.352  13.194
46945SOL     OW42667   5.920  13.312   4.659
46945SOL    HW142668   5.924  13.217   4.668
46945SOL    HW242669   5.836  13.337   4.698
46946SOL     OW42670  14.481   6.585  12.174
46946SOL    HW142671  14.471   6.652  12.241
46946SOL    HW242672  14.524   6.513  12.219
46947SOL     OW42673   2.008   5.999   1.413
46947SOL    HW142674   2.055   5.993   1.497
46947SOL    HW242675   2.075   5.980   1.347
46948SOL     OW42676  13.188  14.697   9.555
46948SOL    HW142677  13.227  14.705   9.468
46948SOL    HW242678  13.236  14.760   9.609
46949SOL     OW42679   8.949   4.320  13.736
46949SOL    HW142680   9.020   4.270  13.777
46949SOL    HW242681   8.971   4.411  13.755
46950SOL     OW42682   8.468   0.488   1.035
46950SOL    HW142683   8.545   0.521   0.989
46950SOL    HW242684   8.484   0.394   1.044
46951SOL     OW42685   3.328   3.845   3.122
46951SOL    HW142686   3.411   3.812   3.087
46951SOL    HW242687   3.338   3.839   3.217
46952SOL     OW42688   3.925  13.749   2.173
46952SOL    HW142689   3.856  13.723   2.234
46952SOL    HW242690   3.990  13.679   2.180
46953SOL     OW42691  10.079  10.720  11.139
46953SOL    HW142692  10.035  10.637  11.154
46953SOL    HW242693  10.016  10.772  11.089
46954SOL     OW42694   1.643   9.560   7.153
46954SOL    HW142695   1.679   9.649   7.145
46954SOL    HW242696   1.677   9.527   7.236
46955SOL     OW42697   8.401   3.106  10.000
46955SOL    HW142698   8.442   3.032  10.044
46955SOL    HW242699   8.473   3.166   9.981
46956SOL     OW42700   0.432   2.902   1.180
46956SOL    HW142701   0.453   2.940   1.265
46956SOL    HW242702   0.515   2.870   1.146
46957SOL     OW42703   8.220  12.480   5.973
46957SOL    HW142704   8.264  12.481   6.058
46957SOL    HW242705   8.199  12.572   5.957
46958SOL     OW42706  12.339   5.068  13.567
46958SOL    HW142707  12.322   5.158  13.539
46958SOL    HW242708  12.428   5.050  13.537
46959SOL     OW42709   1.591   5.595   2.663
46959SOL    HW142710   1.665   5.642   2.701
46959SOL    HW242711   1.590   5.622   2.571
46960SOL     OW42712   3.018   1.377   3.919
46960SOL    HW142713   2.979   1.463   3.937
46960SOL    HW242714   3.094   1.373   3.977
46961SOL     OW42715  11.241   2.052   6.216
46961SOL    HW142716  11.171   2.112   6.241
46961SOL    HW242717  11.308   2.064   6.284
46962SOL     OW42718  13.794  10.532   5.921
46962SOL    HW142719  13.719  10.496   5.967
46962SOL    HW242720  13.802  10.622   5.953
46963SOL     OW42721   7.622   6.683  12.215
46963SOL    HW142722   7.595   6.710  12.303
46963SOL    HW242723   7.540   6.669  12.167
46964SOL     OW42724   2.181   1.599   7.779
46964SOL    HW142725   2.231   1.605   7.697
46964SOL    HW242726   2.108   1.659   7.766
46965SOL     OW42727   9.684   5.118   7.586
46965SOL    HW142728   9.661   5.037   7.541
46965SOL    HW242729   9.605   5.142   7.635
46966SOL     OW42730  12.733  10.811  11.868
46966SOL    HW142731  12.781  10.806  11.785
46966SOL    HW242732  12.683  10.729  11.871
46967SOL     OW42733   9.522  13.371   0.008
46967SOL    HW142734   9.614  13.380   0.031
46967SOL    HW242735   9.486  13.459   0.017
46968SOL     OW42736  12.132   9.408  11.878
46968SOL    HW142737  12.066   9.433  11.943
46968SOL    HW242738  12.121   9.314  11.867
46969SOL     OW42739   2.746   3.422   4.711
46969SOL    HW142740   2.721   3.338   4.750
46969SOL    HW242741   2.678   3.439   4.645
46970SOL     OW42742  13.316   8.873   8.919
46970SOL    HW142743  13.361   8.791   8.940
46970SOL    HW242744  13.287   8.862   8.828
46971SOL     OW42745  12.966   3.972  14.192
46971SOL    HW142746  12.885   3.983  14.241
46971SOL    HW242747  12.980   4.056  14.148
46972SOL     OW42748   8.602  11.694   4.389
46972SOL    HW142749   8.675  11.680   4.449
46972SOL    HW242750   8.526  11.705   4.446
46973SOL     OW42751   7.264   0.573  12.740
46973SOL    HW142752   7.224   0.524  12.812
46973SOL    HW242753   7.298   0.505  12.682
46974SOL     OW42754   2.287   8.746   9.761
46974SOL    HW142755   2.199   8.742   9.725
46974SOL    HW242756   2.278   8.713   9.851
46975SOL     OW42757   5.894  11.062   8.958
46975SOL    HW142758   5.961  11.001   8.989
46975SOL    HW242759   5.816  11.041   9.009
46976SOL     OW42760   3.769  10.975   0.713
46976SOL    HW142761   3.695  10.931   0.669
46976SOL    HW242762   3.836  10.907   0.721
46977SOL     OW42763   5.586   1.100   5.490
46977SOL    HW142764   5.651   1.147   5.541
46977SOL    HW242765   5.548   1.167   5.432
46978SOL     OW42766   4.700   4.271  10.186
46978SOL    HW142767   4.756   4.327  10.133
46978SOL    HW242768   4.731   4.182  10.169
46979SOL     OW42769   8.907  13.851   9.357
46979SOL    HW142770   8.816  13.858   9.387
46979SOL    HW242771   8.900  13.839   9.262
46980SOL     OW42772   4.936   6.602   6.928
46980SOL    HW142773   4.872   6.626   6.995
46980SOL    HW242774   4.888   6.610   6.845
46981SOL     OW42775   3.215   9.921  10.530
46981SOL    HW142776   3.261   9.961  10.457
46981SOL    HW242777   3.285   9.897  10.592
46982SOL     OW42778   1.788   5.258   8.029
46982SOL    HW142779   1.709   5.276   7.978
46982SOL    HW242780   1.848   5.216   7.967
46983SOL     OW42781  11.597   9.785   5.165
46983SOL    HW142782  11.557   9.746   5.243
46983SOL    HW242783  11.683   9.814   5.194
46984SOL     OW42784  13.256   8.798   4.115
46984SOL    HW142785  13.216   8.881   4.137
46984SOL    HW242786  13.252   8.746   4.195
46985SOL     OW42787   4.804   3.409   7.418
46985SOL    HW142788   4.775   3.320   7.403
46985SOL    HW242789   4.821   3.414   7.512
46986SOL     OW42790   7.193   2.777   3.626
46986SOL    HW142791   7.178   2.747   3.715
46986SOL    HW242792   7.154   2.865   3.623
46987SOL     OW42793   4.866   5.287   1.469
46987SOL    HW142794   4.894   5.196   1.462
46987SOL    HW242795   4.785   5.291   1.417
46988SOL     OW42796   8.843   6.821  11.076
46988SOL    HW142797   8.936   6.826  11.051
46988SOL    HW242798   8.811   6.742  11.034
46989SOL     OW42799   3.618   8.802   6.063
46989SOL    HW142800   3.643   8.844   6.145
46989SOL    HW242801   3.580   8.873   6.011
46990SOL     OW42802   7.107   1.101   5.361
46990SOL    HW142803   7.154   1.177   5.395
46990SOL    HW242804   7.120   1.105   5.266
46991SOL     OW42805   0.487   9.115   4.581
46991SOL    HW142806   0.516   9.026   4.560
46991SOL    HW242807   0.415   9.104   4.642
46992SOL     OW42808   2.165  10.641   4.728
46992SOL    HW142809   2.258  10.664   4.734
46992SOL    HW242810   2.119  10.724   4.737
46993SOL     OW42811   9.936   6.570   2.880
46993SOL    HW142812  10.022   6.532   2.892
46993SOL    HW242813   9.924   6.628   2.955
46994SOL     OW42814  10.690   3.529   6.022
46994SOL    HW142815  10.776   3.552   6.057
46994SOL    HW242816  10.638   3.609   6.032
46995SOL     OW42817   7.238  10.115   0.853
46995SOL    HW142818   7.330  10.092   0.840
46995SOL    HW242819   7.192  10.031   0.853
46996SOL     OW42820   5.648   4.282   1.536
46996SOL    HW142821   5.712   4.228   1.583
46996SOL    HW242822   5.693   4.309   1.456
46997SOL     OW42823  11.598   8.209   4.026
46997SOL    HW142824  11.624   8.273   4.092
46997SOL    HW242825  11.676   8.155   4.013
46998SOL     OW42826   9.205   2.586  10.928
46998SOL    HW142827   9.147   2.661  10.945
46998SOL    HW242828   9.272   2.621  10.870
46999SOL     OW42829  10.068   8.074  14.505
46999SOL    HW142830  10.123   8.121  14.568
46999SOL    HW242831  10.023   8.007  14.557
47000SOL     OW42832   4.798   3.653   8.986
47000SOL    HW142833   4.855   3.597   8.933
47000SOL    HW242834   4.711   3.617   8.972
47001SOL     OW42835  13.376   4.201   9.129
47001SOL    HW142836  13.335   4.199   9.043
47001SOL    HW242837  13.352   4.286   9.165
47002SOL     OW42838   7.471   8.088   2.767
47002SOL    HW142839   7.429   8.088   2.853
47002SOL    HW242840   7.553   8.040   2.780
47003SOL     OW42841   9.872   5.116   6.978
47003SOL    HW142842   9.912   5.122   6.891
47003SOL    HW242843   9.944   5.133   7.039
47004SOL     OW42844   4.833   0.946  11.757
47004SOL    HW142845   4.915   0.900  11.775
47004SOL    HW242846   4.859   1.037  11.743
47005SOL     OW42847   2.078   7.358   6.214
47005SOL    HW142848   1.995   7.405   6.220
47005SOL    HW242849   2.126   7.402   6.144
47006SOL     OW42850  10.762   9.658  14.018
47006SOL    HW142851  10.771   9.602  13.941
47006SOL    HW242852  10.764   9.747  13.983
47007SOL     OW42853   0.430   8.224   5.054
47007SOL    HW142854   0.438   8.191   4.964
47007SOL    HW242855   0.368   8.164   5.095
47008SOL     OW42856  11.141   4.373  12.366
47008SOL    HW142857  11.053   4.385  12.402
47008SOL    HW242858  11.168   4.286  12.395
47009SOL     OW42859   9.860   5.711   2.669
47009SOL    HW142860   9.866   5.807   2.668
47009SOL    HW242861   9.910   5.683   2.593
47010SOL     OW42862   0.030  10.626   4.779
47010SOL    HW142863   0.094  10.661   4.840
47010SOL    HW242864   0.082  10.591   4.707
47011SOL     OW42865  11.186  11.423  11.663
47011SOL    HW142866  11.171  11.517  11.652
47011SOL    HW242867  11.152  11.403  11.750
47012SOL     OW42868   2.826   2.862  13.142
47012SOL    HW142869   2.848   2.828  13.055
47012SOL    HW242870   2.908   2.902  13.172
47013SOL     OW42871   2.521   5.511  10.098
47013SOL    HW142872   2.481   5.573  10.038
47013SOL    HW242873   2.530   5.430  10.048
47014SOL     OW42874  13.530  14.584   4.037
47014SOL    HW142875  13.497  14.552   3.953
47014SOL    HW242876  13.495  14.673   4.044
47015SOL     OW42877  12.473   2.192  11.913
47015SOL    HW142878  12.524   2.140  11.851
47015SOL    HW242879  12.391   2.145  11.924
47016SOL     OW42880  10.647   7.636  12.647
47016SOL    HW142881  10.663   7.641  12.553
47016SOL    HW242882  10.626   7.726  12.673
47017SOL     OW42883   9.448   1.255   9.060
47017SOL    HW142884   9.380   1.312   9.026
47017SOL    HW242885   9.485   1.212   8.983
47018SOL     OW42886   0.024   4.695   1.832
47018SOL    HW142887   0.007   4.770   1.888
47018SOL    HW242888  14.835   4.704   1.760
47019SOL     OW42889  14.381   0.317   3.578
47019SOL    HW142890  14.294   0.353   3.593
47019SOL    HW242891  14.390   0.248   3.644
47020SOL     OW42892   5.664   1.406  14.538
47020SOL    HW142893   5.756   1.397  14.512
47020SOL    HW242894   5.655   1.350  14.615
47021SOL     OW42895   6.585  12.219   6.487
47021SOL    HW142896   6.581  12.297   6.432
47021SOL    HW242897   6.502  12.220   6.535
47022SOL     OW42898   8.675  13.852  10.990
47022SOL    HW142899   8.590  13.849  11.035
47022SOL    HW242900   8.734  13.892  11.054
47023SOL     OW42901  10.981   1.894   1.734
47023SOL    HW142902  10.890   1.869   1.743
47023SOL    HW242903  10.995   1.903   1.640
47024SOL     OW42904   9.493   0.907   3.949
47024SOL    HW142905   9.515   0.854   4.026
47024SOL    HW242906   9.496   0.846   3.876
47025SOL     OW42907   0.181   3.030   1.348
47025SOL    HW142908   0.215   2.989   1.427
47025SOL    HW242909   0.196   2.965   1.279
47026SOL     OW42910  12.388  13.603   7.386
47026SOL    HW142911  12.331  13.659   7.333
47026SOL    HW242912  12.470  13.652   7.393
47027SOL     OW42913   2.088   9.470   5.026
47027SOL    HW142914   2.121   9.558   5.043
47027SOL    HW242915   2.010   9.463   5.082
47028SOL     OW42916  10.757   6.615   2.886
47028SOL    HW142917  10.718   6.551   2.945
47028SOL    HW242918  10.851   6.601   2.894
47029SOL     OW42919  12.744  14.721   3.782
47029SOL    HW142920  12.720  14.807   3.817
47029SOL    HW242921  12.778  14.672   3.857
47030SOL     OW42922   8.856   5.048   8.538
47030SOL    HW142923   8.935   5.043   8.485
47030SOL    HW242924   8.818   5.134   8.519
47031SOL     OW42925   9.903   5.519   7.010
47031SOL    HW142926   9.857   5.481   7.085
47031SOL    HW242927   9.932   5.605   7.040
47032SOL     OW42928   3.425   0.952  12.883
47032SOL    HW142929   3.452   1.041  12.906
47032SOL    HW242930   3.507   0.905  12.869
47033SOL     OW42931   6.211   2.269   8.326
47033SOL    HW142932   6.273   2.239   8.260
47033SOL    HW242933   6.138   2.306   8.277
47034SOL     OW42934   8.425   8.082  13.067
47034SOL    HW142935   8.380   8.124  12.993
47034SOL    HW242936   8.429   8.151  13.134
47035SOL     OW42937  13.990   6.725   6.867
47035SOL    HW142938  14.047   6.782   6.918
47035SOL    HW242939  13.921   6.784   6.834
47036SOL     OW42940  13.317  11.385   6.396
47036SOL    HW142941  13.405  11.364   6.427
47036SOL    HW242942  13.261  11.365   6.471
47037SOL     OW42943   5.906  10.914   7.031
47037SOL    HW142944   5.998  10.909   7.057
47037SOL    HW242945   5.860  10.861   7.096
47038SOL     OW42946   5.254   8.388   5.951
47038SOL    HW142947   5.279   8.305   5.909
47038SOL    HW242948   5.169   8.409   5.913
47039SOL     OW42949   6.841   9.263  12.581
47039SOL    HW142950   6.774   9.288  12.516
47039SOL    HW242951   6.868   9.345  12.621
47040SOL     OW42952  12.512  12.155   2.246
47040SOL    HW142953  12.490  12.074   2.199
47040SOL    HW242954  12.470  12.145   2.332
47041SOL     OW42955   3.740   9.859   8.640
47041SOL    HW142956   3.678   9.881   8.709
47041SOL    HW242957   3.826   9.866   8.682
47042SOL     OW42958   1.122   0.664   8.294
47042SOL    HW142959   1.174   0.592   8.257
47042SOL    HW242960   1.050   0.621   8.339
47043SOL     OW42961  10.466   3.340   1.616
47043SOL    HW142962  10.560   3.338   1.599
47043SOL    HW242963  10.434   3.414   1.564
47044SOL     OW42964  13.367   9.206   2.672
47044SOL    HW142965  13.421   9.151   2.616
47044SOL    HW242966  13.410   9.204   2.758
47045SOL     OW42967   2.772   2.567   8.804
47045SOL    HW142968   2.840   2.500   8.809
47045SOL    HW242969   2.733   2.567   8.892
47046SOL     OW42970  14.146   4.227   7.114
47046SOL    HW142971  14.134   4.300   7.052
47046SOL    HW242972  14.138   4.148   7.060
47047SOL     OW42973   1.503   2.760   5.701
47047SOL    HW142974   1.503   2.665   5.714
47047SOL    HW242975   1.585   2.778   5.655
47048SOL     OW42976  11.783  11.061   5.014
47048SOL    HW142977  11.835  11.038   5.091
47048SOL    HW242978  11.775  11.157   5.019
47049SOL     OW42979  14.669  14.112  10.194
47049SOL    HW142980  14.691  14.151  10.110
47049SOL    HW242981  14.632  14.184  10.245
47050SOL     OW42982   0.309   3.755   6.968
47050SOL    HW142983   0.253   3.798   7.033
47050SOL    HW242984   0.398   3.776   6.997
47051SOL     OW42985   9.870   6.686   2.372
47051SOL    HW142986   9.885   6.692   2.278
47051SOL    HW242987   9.792   6.739   2.388
47052SOL     OW42988  11.287   1.998   3.934
47052SOL    HW142989  11.192   2.011   3.943
47052SOL    HW242990  11.295   1.912   3.893
47053SOL     OW42991  13.338   0.875  12.216
47053SOL    HW142992  13.333   0.969  12.234
47053SOL    HW242993  13.301   0.833  12.294
47054SOL     OW42994  10.275  13.207  14.703
47054SOL    HW142995  10.220  13.285  14.715
47054SOL    HW242996  10.242  13.166  14.623
47055SOL     OW42997   7.324  13.480   4.772
47055SOL    HW142998   7.358  13.448   4.688
47055SOL    HW242999   7.284  13.564   4.751
47056SOL     OW43000   0.563   9.492   9.994
47056SOL    HW143001   0.528   9.542  10.068
47056SOL    HW243002   0.486   9.465   9.945
47057SOL     OW43003   7.811   3.049   1.481
47057SOL    HW143004   7.904   3.033   1.465
47057SOL    HW243005   7.803   3.054   1.576
47058SOL     OW43006  12.726   5.861  14.724
47058SOL    HW143007  12.722   5.896  14.813
47058SOL    HW243008  12.777   5.781  14.733
47059SOL     OW43009   8.794  10.228  12.756
47059SOL    HW143010   8.802  10.141  12.717
47059SOL    HW243011   8.765  10.284  12.685
47060SOL     OW43012   5.199   6.334   4.557
47060SOL    HW143013   5.133   6.392   4.595
47060SOL    HW243014   5.156   6.249   4.551
47061SOL     OW43015  10.379  10.886  11.621
47061SOL    HW143016  10.302  10.903  11.567
47061SOL    HW243017  10.378  10.955  11.687
47062SOL     OW43018   9.107   9.557   3.812
47062SOL    HW143019   9.080   9.639   3.852
47062SOL    HW243020   9.194   9.576   3.775
47063SOL     OW43021   2.477  11.356  11.480
47063SOL    HW143022   2.562  11.380  11.442
47063SOL    HW243023   2.413  11.395  11.420
47064SOL     OW43024  11.285   8.359   7.290
47064SOL    HW143025  11.279   8.410   7.209
47064SOL    HW243026  11.309   8.424   7.357
47065SOL     OW43027   1.617  12.570  12.647
47065SOL    HW143028   1.622  12.661  12.620
47065SOL    HW243029   1.639  12.572  12.741
47066SOL     OW43030   2.063   0.850  13.024
47066SOL    HW143031   2.068   0.754  13.015
47066SOL    HW243032   2.006   0.878  12.953
47067SOL     OW43033  11.343   3.707   1.856
47067SOL    HW143034  11.401   3.632   1.868
47067SOL    HW243035  11.396   3.783   1.878
47068SOL     OW43036   0.989   8.680  13.673
47068SOL    HW143037   0.951   8.750  13.620
47068SOL    HW243038   1.044   8.631  13.612
47069SOL     OW43039   9.628   7.158   6.814
47069SOL    HW143040   9.595   7.246   6.831
47069SOL    HW243041   9.676   7.165   6.731
47070SOL     OW43042   5.514   2.125   2.956
47070SOL    HW143043   5.440   2.186   2.950
47070SOL    HW243044   5.474   2.038   2.945
47071SOL     OW43045   4.055  10.925  13.504
47071SOL    HW143046   4.063  10.852  13.565
47071SOL    HW243047   4.143  10.938  13.470
47072SOL     OW43048   2.066   2.132   1.938
47072SOL    HW143049   2.014   2.105   1.862
47072SOL    HW243050   2.086   2.051   1.983
47073SOL     OW43051   6.300  11.613  12.874
47073SOL    HW143052   6.327  11.655  12.955
47073SOL    HW243053   6.364  11.642  12.809
47074SOL     OW43054  14.662   2.791   4.213
47074SOL    HW143055  14.752   2.802   4.243
47074SOL    HW243056  14.620   2.739   4.281
47075SOL     OW43057   6.292   5.435   0.102
47075SOL    HW143058   6.277   5.446   0.196
47075SOL    HW243059   6.356   5.364   0.097
47076SOL     OW43060   3.376  11.847  14.872
47076SOL    HW143061   3.436  11.921  14.861
47076SOL    HW243062   3.349  11.852   0.091
47077SOL     OW43063  11.046   5.518   6.136
47077SOL    HW143064  11.020   5.604   6.102
47077SOL    HW243065  10.963   5.476   6.160
47078SOL     OW43066  10.227  11.691   9.863
47078SOL    HW143067  10.296  11.753   9.838
47078SOL    HW243068  10.256  11.656   9.947
47079SOL     OW43069   3.035   9.668   9.668
47079SOL    HW143070   3.117   9.661   9.717
47079SOL    HW243071   3.062   9.664   9.576
47080SOL     OW43072  11.932   7.933   2.406
47080SOL    HW143073  11.974   8.018   2.396
47080SOL    HW243074  11.965   7.900   2.490
47081SOL     OW43075   2.698   2.196   6.544
47081SOL    HW143076   2.767   2.261   6.550
47081SOL    HW243077   2.735   2.117   6.583
47082SOL     OW43078  11.215   3.992   2.391
47082SOL    HW143079  11.206   3.952   2.305
47082SOL    HW243080  11.302   4.032   2.390
47083SOL     OW43081  10.823   7.249  14.317
47083SOL    HW143082  10.913   7.229  14.293
47083SOL    HW243083  10.777   7.256  14.233
47084SOL     OW43084  13.118   0.319  14.092
47084SOL    HW143085  13.116   0.303  14.186
47084SOL    HW243086  13.094   0.235  14.053
47085SOL     OW43087   5.193   8.225  11.998
47085SOL    HW143088   5.197   8.190  11.909
47085SOL    HW243089   5.229   8.156  12.053
47086SOL     OW43090   4.550  13.147   3.106
47086SOL    HW143091   4.493  13.129   3.031
47086SOL    HW243092   4.575  13.060   3.138
47087SOL     OW43093   6.541  11.779   2.233
47087SOL    HW143094   6.559  11.695   2.276
47087SOL    HW243095   6.497  11.754   2.152
47088SOL     OW43096   9.684   8.447   0.785
47088SOL    HW143097   9.602   8.443   0.735
47088SOL    HW243098   9.715   8.357   0.787
47089SOL     OW43099   4.967  14.468   1.239
47089SOL    HW143100   4.983  14.471   1.145
47089SOL    HW243101   5.039  14.517   1.278
47090SOL     OW43102  12.611  11.861   6.460
47090SOL    HW143103  12.649  11.949   6.459
47090SOL    HW243104  12.606  11.839   6.553
47091SOL     OW43105   2.630  13.199   6.886
47091SOL    HW143106   2.565  13.249   6.935
47091SOL    HW243107   2.631  13.113   6.928
47092SOL     OW43108  11.610   6.744   4.459
47092SOL    HW143109  11.648   6.713   4.377
47092SOL    HW243110  11.598   6.665   4.511
47093SOL     OW43111   8.538   2.677   1.925
47093SOL    HW143112   8.590   2.747   1.885
47093SOL    HW243113   8.449   2.711   1.925
47094SOL     OW43114  11.692  12.057   2.594
47094SOL    HW143115  11.615  12.017   2.554
47094SOL    HW243116  11.699  12.015   2.680
47095SOL     OW43117   7.428  14.254   8.521
47095SOL    HW143118   7.373  14.225   8.448
47095SOL    HW243119   7.516  14.224   8.498
47096SOL     OW43120   5.880   0.640   0.700
47096SOL    HW143121   5.807   0.597   0.745
47096SOL    HW243122   5.945   0.656   0.769
47097SOL     OW43123   8.875   4.571   8.440
47097SOL    HW143124   8.890   4.477   8.450
47097SOL    HW243125   8.959   4.606   8.409
47098SOL     OW43126   9.781   3.740   9.852
47098SOL    HW143127   9.852   3.747   9.916
47098SOL    HW243128   9.795   3.812   9.791
47099SOL     OW43129   3.987   4.108   7.288
47099SOL    HW143130   3.938   4.185   7.317
47099SOL    HW243131   3.962   4.039   7.349
47100SOL     OW43132  13.630   2.492   0.162
47100SOL    HW143133  13.708   2.460   0.207
47100SOL    HW243134  13.610   2.575   0.206
47101SOL     OW43135  10.225   3.114  13.750
47101SOL    HW143136  10.218   3.116  13.845
47101SOL    HW243137  10.146   3.158  13.719
47102SOL     OW43138   6.750   7.122   6.950
47102SOL    HW143139   6.684   7.160   6.892
47102SOL    HW243140   6.732   7.028   6.948
47103SOL     OW43141   9.472  10.906   8.648
47103SOL    HW143142   9.377  10.920   8.653
47103SOL    HW243143   9.495  10.869   8.733
47104SOL     OW43144   5.222   9.839  14.657
47104SOL    HW143145   5.136   9.872  14.683
47104SOL    HW243146   5.226   9.750  14.694
47105SOL     OW43147   7.697  12.466  13.644
47105SOL    HW143148   7.785  12.429  13.636
47105SOL    HW243149   7.641  12.391  13.662
47106SOL     OW43150  10.983   0.980  11.441
47106SOL    HW143151  11.065   1.022  11.467
47106SOL    HW243152  10.924   0.994  11.516
47107SOL     OW43153  10.434   8.646   6.881
47107SOL    HW143154  10.518   8.679   6.912
47107SOL    HW243155  10.443   8.551   6.883
47108SOL     OW43156   3.601   8.200   8.782
47108SOL    HW143157   3.571   8.127   8.728
47108SOL    HW243158   3.521   8.240   8.815
47109SOL     OW43159   8.371   5.075   0.152
47109SOL    HW143160   8.386   5.028   0.234
47109SOL    HW243161   8.452   5.124   0.136
47110SOL     OW43162  12.862   8.674  10.312
47110SOL    HW143163  12.818   8.589  10.315
47110SOL    HW243164  12.830   8.720  10.389
47111SOL     OW43165   7.996   9.210   4.904
47111SOL    HW143166   7.968   9.134   4.852
47111SOL    HW243167   7.930   9.277   4.886
47112SOL     OW43168   7.762  10.279   4.600
47112SOL    HW143169   7.771  10.257   4.507
47112SOL    HW243170   7.828  10.224   4.643
47113SOL     OW43171  13.714  13.263   4.698
47113SOL    HW143172  13.622  13.235   4.695
47113SOL    HW243173  13.730  13.282   4.791
47114SOL     OW43174   0.016   6.962   7.519
47114SOL    HW143175   0.080   6.902   7.480
47114SOL    HW243176  14.830   6.906   7.569
47115SOL     OW43177   7.788   8.364  14.119
47115SOL    HW143178   7.825   8.452  14.116
47115SOL    HW243179   7.782   8.337  14.028
47116SOL     OW43180  13.355  10.406   5.370
47116SOL    HW143181  13.273  10.358   5.379
47116SOL    HW243182  13.409  10.374   5.443
47117SOL     OW43183   0.668   6.446   6.806
47117SOL    HW143184   0.741   6.442   6.743
47117SOL    HW243185   0.623   6.528   6.784
47118SOL     OW43186   2.586   5.384  10.340
47118SOL    HW143187   2.584   5.446  10.267
47118SOL    HW243188   2.647   5.424  10.402
47119SOL     OW43189   3.080  12.676   4.938
47119SOL    HW143190   3.073  12.675   4.843
47119SOL    HW243191   2.989  12.676   4.969
47120SOL     OW43192   7.654   4.463  14.484
47120SOL    HW143193   7.739   4.433  14.453
47120SOL    HW243194   7.641   4.548  14.442
47121SOL     OW43195   7.601   3.146  12.875
47121SOL    HW143196   7.697   3.141  12.883
47121SOL    HW243197   7.569   3.109  12.957
47122SOL     OW43198   2.866   1.182   3.809
47122SOL    HW143199   2.916   1.243   3.862
47122SOL    HW243200   2.816   1.130   3.873
47123SOL     OW43201  14.704   3.056  12.140
47123SOL    HW143202  14.678   3.121  12.075
47123SOL    HW243203  14.633   3.057  12.205
47124SOL     OW43204   4.339   7.853  12.351
47124SOL    HW143205   4.372   7.826  12.437
47124SOL    HW243206   4.306   7.772  12.311
47125SOL     OW43207   7.622   4.183   0.995
47125SOL    HW143208   7.653   4.093   0.990
47125SOL    HW243209   7.621   4.202   1.089
47126SOL     OW43210   9.878   3.684   5.243
47126SOL    HW143211   9.893   3.742   5.317
47126SOL    HW243212   9.959   3.633   5.236
47127SOL     OW43213   9.208   5.350   6.927
47127SOL    HW143214   9.128   5.349   6.979
47127SOL    HW243215   9.186   5.300   6.848
47128SOL     OW43216  10.311   8.247   6.224
47128SOL    HW143217  10.255   8.319   6.253
47128SOL    HW243218  10.261   8.204   6.155
47129SOL     OW43219   3.947   4.425   8.393
47129SOL    HW143220   3.926   4.499   8.336
47129SOL    HW243221   3.950   4.463   8.481
47130SOL     OW43222  13.542   4.620   1.312
47130SOL    HW143223  13.530   4.533   1.275
47130SOL    HW243224  13.636   4.627   1.330
47131SOL     OW43225   6.105  14.366   9.567
47131SOL    HW143226   6.051  14.345   9.491
47131SOL    HW243227   6.130  14.281   9.603
47132SOL     OW43228   0.521   8.951   0.188
47132SOL    HW143229   0.545   8.862   0.214
47132SOL    HW243230   0.569   9.007   0.249
47133SOL     OW43231  11.731   8.372   2.686
47133SOL    HW143232  11.703   8.373   2.778
47133SOL    HW243233  11.690   8.450   2.648
47134SOL     OW43234   3.081  12.434  14.662
47134SOL    HW143235   3.119  12.466  14.580
47134SOL    HW243236   3.033  12.355  14.635
47135SOL     OW43237  10.782   9.694   6.532
47135SOL    HW143238  10.757   9.769   6.587
47135SOL    HW243239  10.876   9.683   6.548
47136SOL     OW43240   7.313   2.427   4.914
47136SOL    HW143241   7.381   2.361   4.902
47136SOL    HW243242   7.353   2.508   4.883
47137SOL     OW43243  14.545   5.929   0.526
47137SOL    HW143244  14.619   5.880   0.563
47137SOL    HW243245  14.546   6.012   0.574
47138SOL     OW43246  13.343   0.667   1.992
47138SOL    HW143247  13.344   0.575   2.017
47138SOL    HW243248  13.250   0.691   1.990
47139SOL     OW43249  10.300  12.623   5.587
47139SOL    HW143250  10.375  12.647   5.533
47139SOL    HW243251  10.300  12.687   5.659
47140SOL     OW43252  11.929  11.240  13.662
47140SOL    HW143253  11.845  11.194  13.661
47140SOL    HW243254  11.936  11.274  13.752
47141SOL     OW43255  10.005   5.627   9.357
47141SOL    HW143256  10.020   5.580   9.275
47141SOL    HW243257  10.019   5.719   9.335
47142SOL     OW43258   4.217  10.175   6.693
47142SOL    HW143259   4.123  10.171   6.676
47142SOL    HW243260   4.256  10.195   6.607
47143SOL     OW43261   7.010   7.994   0.287
47143SOL    HW143262   7.061   8.075   0.274
47143SOL    HW243263   6.994   7.990   0.381
47144SOL     OW43264   7.063  10.265  13.604
47144SOL    HW143265   7.026  10.229  13.523
47144SOL    HW243266   7.017  10.218  13.674
47145SOL     OW43267   0.656  12.032   1.199
47145SOL    HW143268   0.596  12.037   1.125
47145SOL    HW243269   0.659  11.939   1.222
47146SOL     OW43270   2.598  11.382  14.822
47146SOL    HW143271   2.577  11.295  14.789
47146SOL    HW243272   2.692  11.379  14.842
47147SOL     OW43273  12.711  11.933   8.256
47147SOL    HW143274  12.690  11.867   8.190
47147SOL    HW243275  12.627  11.953   8.298
47148SOL     OW43276  13.676   9.377   7.243
47148SOL    HW143277  13.700   9.419   7.160
47148SOL    HW243278  13.639   9.447   7.296
47149SOL     OW43279  10.740   4.960   1.544
47149SOL    HW143280  10.666   4.913   1.506
47149SOL    HW243281  10.817   4.918   1.506
47150SOL     OW43282   4.697  13.533   0.491
47150SOL    HW143283   4.631  13.601   0.499
47150SOL    HW243284   4.648  13.453   0.472
47151SOL     OW43285   6.255  12.292   4.375
47151SOL    HW143286   6.321  12.296   4.305
47151SOL    HW243287   6.185  12.237   4.339
47152SOL     OW43288  12.534   3.646  13.956
47152SOL    HW143289  12.504   3.556  13.970
47152SOL    HW243290  12.570   3.646  13.868
47153SOL     OW43291   0.707  12.813   3.892
47153SOL    HW143292   0.622  12.772   3.905
47153SOL    HW243293   0.739  12.774   3.810
47154SOL     OW43294  10.781  12.496   5.289
47154SOL    HW143295  10.750  12.571   5.338
47154SOL    HW243296  10.710  12.475   5.229
47155SOL     OW43297   1.907   6.868   3.313
47155SOL    HW143298   2.002   6.861   3.304
47155SOL    HW243299   1.893   6.915   3.395
47156SOL     OW43300   2.530   5.215   7.273
47156SOL    HW143301   2.440   5.241   7.255
47156SOL    HW243302   2.524   5.153   7.345
47157SOL     OW43303   7.353  13.822   2.642
47157SOL    HW143304   7.297  13.752   2.609
47157SOL    HW243305   7.442  13.792   2.622
47158SOL     OW43306  11.377  11.894   8.184
47158SOL    HW143307  11.457  11.933   8.149
47158SOL    HW243308  11.310  11.961   8.171
47159SOL     OW43309   3.306  14.288   7.705
47159SOL    HW143310   3.376  14.352   7.689
47159SOL    HW243311   3.327  14.214   7.647
47160SOL     OW43312   5.039   2.999   2.338
47160SOL    HW143313   5.120   2.968   2.297
47160SOL    HW243314   4.971   2.979   2.273
47161SOL     OW43315   5.929   3.451   3.419
47161SOL    HW143316   5.850   3.437   3.366
47161SOL    HW243317   5.921   3.389   3.490
47162SOL     OW43318   8.962   7.721  11.018
47162SOL    HW143319   8.980   7.634  10.982
47162SOL    HW243320   9.003   7.781  10.956
47163SOL     OW43321   7.969  11.062   8.624
47163SOL    HW143322   7.894  11.010   8.594
47163SOL    HW243323   7.934  11.150   8.635
47164SOL     OW43324  10.370   1.724   6.839
47164SOL    HW143325  10.341   1.709   6.929
47164SOL    HW243326  10.339   1.648   6.790
47165SOL     OW43327   6.111   4.776   4.375
47165SOL    HW143328   6.095   4.704   4.436
47165SOL    HW243329   6.033   4.831   4.383
47166SOL     OW43330  10.540  13.412   3.835
47166SOL    HW143331  10.590  13.425   3.916
47166SOL    HW243332  10.451  13.440   3.858
47167SOL     OW43333  10.822   8.188  14.100
47167SOL    HW143334  10.888   8.233  14.153
47167SOL    HW243335  10.761   8.152  14.164
47168SOL     OW43336   0.562   2.809   2.460
47168SOL    HW143337   0.655   2.832   2.466
47168SOL    HW243338   0.531   2.812   2.550
47169SOL     OW43339   5.933   2.672   7.233
47169SOL    HW143340   5.853   2.633   7.198
47169SOL    HW243341   5.999   2.604   7.221
47170SOL     OW43342   5.920   1.886   1.144
47170SOL    HW143343   5.899   1.965   1.096
47170SOL    HW243344   5.904   1.815   1.082
47171SOL     OW43345   0.334   7.988   3.343
47171SOL    HW143346   0.327   7.927   3.417
47171SOL    HW243347   0.421   7.971   3.306
47172SOL     OW43348  12.752   7.086  11.826
47172SOL    HW143349  12.742   7.094  11.731
47172SOL    HW243350  12.746   7.176  11.859
47173SOL     OW43351   4.091  12.367   1.119
47173SOL    HW143352   4.175  12.411   1.108
47173SOL    HW243353   4.108  12.276   1.093
47174SOL     OW43354   7.271   7.039   7.505
47174SOL    HW143355   7.213   7.000   7.439
47174SOL    HW243356   7.268   7.133   7.486
47175SOL     OW43357  11.999   1.457   6.080
47175SOL    HW143358  11.948   1.535   6.103
47175SOL    HW243359  11.934   1.386   6.076
47176SOL     OW43360  10.485   1.956   7.729
47176SOL    HW143361  10.451   1.899   7.660
47176SOL    HW243362  10.531   2.026   7.683
47177SOL     OW43363   5.407  12.306   7.153
47177SOL    HW143364   5.463  12.346   7.219
47177SOL    HW243365   5.321  12.301   7.194
47178SOL     OW43366   6.824   0.726  10.694
47178SOL    HW143367   6.767   0.695  10.624
47178SOL    HW243368   6.883   0.788  10.651
47179SOL     OW43369  11.773   2.716  13.823
47179SOL    HW143370  11.688   2.675  13.841
47179SOL    HW243371  11.825   2.699  13.902
47180SOL     OW43372   0.892  11.684   5.588
47180SOL    HW143373   0.944  11.653   5.662
47180SOL    HW243374   0.931  11.769   5.566
47181SOL     OW43375  13.440  12.226   3.028
47181SOL    HW143376  13.409  12.143   3.065
47181SOL    HW243377  13.495  12.264   3.096
47182SOL     OW43378  11.052  13.260  11.064
47182SOL    HW143379  11.005  13.183  11.032
47182SOL    HW243380  11.099  13.229  11.142
47183SOL     OW43381   5.076   5.466   5.472
47183SOL    HW143382   5.000   5.434   5.424
47183SOL    HW243383   5.088   5.556   5.441
47184SOL     OW43384   2.756   7.259  11.050
47184SOL    HW143385   2.722   7.196  11.114
47184SOL    HW243386   2.851   7.247  11.052
47185SOL     OW43387  10.893   7.190   9.313
47185SOL    HW143388  10.809   7.234   9.301
47185SOL    HW243389  10.951   7.259   9.347
47186SOL     OW43390   3.396   2.200   6.857
47186SOL    HW143391   3.455   2.254   6.803
47186SOL    HW243392   3.404   2.112   6.819
47187SOL     OW43393  12.700   5.601   9.371
47187SOL    HW143394  12.669   5.563   9.289
47187SOL    HW243395  12.785   5.640   9.349
47188SOL     OW43396   1.529  12.501   5.040
47188SOL    HW143397   1.531  12.589   5.002
47188SOL    HW243398   1.613  12.462   5.016
47189SOL     OW43399  12.076   1.449  13.190
47189SOL    HW143400  12.111   1.524  13.142
47189SOL    HW243401  12.004   1.417  13.135
47190SOL     OW43402   3.334   9.384   2.976
47190SOL    HW143403   3.287   9.407   3.056
47190SOL    HW243404   3.310   9.453   2.914
47191SOL     OW43405   4.794  10.796  13.604
47191SOL    HW143406   4.708  10.838  13.603
47191SOL    HW243407   4.791  10.734  13.531
47192SOL     OW43408   5.786   6.705   7.086
47192SOL    HW143409   5.733   6.663   7.154
47192SOL    HW243410   5.846   6.761   7.135
47193SOL     OW43411   2.437   0.398   8.404
47193SOL    HW143412   2.478   0.479   8.434
47193SOL    HW243413   2.510   0.341   8.382
47194SOL     OW43414   4.878   3.186  12.058
47194SOL    HW143415   4.802   3.240  12.083
47194SOL    HW243416   4.886   3.122  12.129
47195SOL     OW43417   0.936   2.982   1.989
47195SOL    HW143418   0.883   2.902   1.993
47195SOL    HW243419   0.875   3.051   1.964
47196SOL     OW43420   6.189   3.880  10.601
47196SOL    HW143421   6.213   3.888  10.509
47196SOL    HW243422   6.093   3.877  10.601
47197SOL     OW43423   3.947   1.479   7.919
47197SOL    HW143424   3.893   1.438   7.851
47197SOL    HW243425   4.037   1.462   7.892
47198SOL     OW43426   6.758   7.752   8.431
47198SOL    HW143427   6.827   7.736   8.368
47198SOL    HW243428   6.798   7.808   8.498
47199SOL     OW43429   8.274   9.767   7.295
47199SOL    HW143430   8.319   9.841   7.255
47199SOL    HW243431   8.220   9.805   7.364
47200SOL     OW43432  12.245   2.591  10.619
47200SOL    HW143433  12.257   2.600  10.713
47200SOL    HW243434  12.276   2.673  10.582
47201SOL     OW43435   7.128   1.663   3.101
47201SOL    HW143436   7.087   1.705   3.177
47201SOL    HW243437   7.207   1.622   3.135
47202SOL     OW43438   0.089  14.209   6.966
47202SOL    HW143439   0.027  14.146   6.929
47202SOL    HW243440   0.167  14.157   6.985
47203SOL     OW43441   3.706   0.986   5.455
47203SOL    HW143442   3.795   0.963   5.480
47203SOL    HW243443   3.713   1.010   5.363
47204SOL     OW43444   6.289  11.125  11.476
47204SOL    HW143445   6.255  11.102  11.562
47204SOL    HW243446   6.223  11.093  11.415
47205SOL     OW43447   2.877   9.614   0.524
47205SOL    HW143448   2.860   9.520   0.538
47205SOL    HW243449   2.873   9.651   0.612
47206SOL     OW43450   5.270  11.933   1.218
47206SOL    HW143451   5.321  11.874   1.273
47206SOL    HW243452   5.225  11.875   1.156
47207SOL     OW43453   8.474   4.572   5.780
47207SOL    HW143454   8.399   4.521   5.748
47207SOL    HW243455   8.455   4.586   5.873
47208SOL     OW43456  11.519   1.185  14.662
47208SOL    HW143457  11.544   1.169  14.570
47208SOL    HW243458  11.425   1.204  14.658
47209SOL     OW43459  14.538   9.170   9.371
47209SOL    HW143460  14.515   9.108   9.439
47209SOL    HW243461  14.548   9.254   9.417
47210SOL     OW43462   8.058   5.620   7.649
47210SOL    HW143463   8.039   5.672   7.728
47210SOL    HW243464   8.153   5.618   7.644
47211SOL     OW43465   6.411  14.721  10.546
47211SOL    HW143466   6.368  14.659  10.488
47211SOL    HW243467   6.340  14.756  10.601
47212SOL     OW43468   4.183   1.356   8.535
47212SOL    HW143469   4.186   1.447   8.564
47212SOL    HW243470   4.096   1.325   8.561
47213SOL     OW43471   5.255   4.933   8.590
47213SOL    HW143472   5.244   4.844   8.624
47213SOL    HW243473   5.344   4.958   8.616
47214SOL     OW43474   8.554   9.264  12.823
47214SOL    HW143475   8.594   9.325  12.761
47214SOL    HW243476   8.466   9.298  12.836
47215SOL     OW43477   8.258   5.430  10.422
47215SOL    HW143478   8.165   5.408  10.413
47215SOL    HW243479   8.298   5.352  10.460
47216SOL     OW43480   3.248  10.060   0.847
47216SOL    HW143481   3.259   9.966   0.854
47216SOL    HW243482   3.195  10.073   0.768
47217SOL     OW43483   9.122  13.662   7.183
47217SOL    HW143484   9.057  13.619   7.238
47217SOL    HW243485   9.172  13.590   7.144
47218SOL     OW43486   7.458  12.404   8.492
47218SOL    HW143487   7.452  12.388   8.397
47218SOL    HW243488   7.372  12.378   8.526
47219SOL     OW43489   8.632   0.858   6.795
47219SOL    HW143490   8.690   0.793   6.834
47219SOL    HW243491   8.561   0.869   6.859
47220SOL     OW43492  11.575   5.906  10.843
47220SOL    HW143493  11.580   5.845  10.770
47220SOL    HW243494  11.651   5.885  10.897
47221SOL     OW43495  10.052  13.752   9.226
47221SOL    HW143496  10.091  13.786   9.146
47221SOL    HW243497  10.011  13.828   9.267
47222SOL     OW43498   1.930   7.425  11.561
47222SOL    HW143499   1.894   7.338  11.574
47222SOL    HW243500   1.995   7.414  11.492
47223SOL     OW43501   7.651   9.200  14.465
47223SOL    HW143502   7.568   9.153  14.469
47223SOL    HW243503   7.718   9.132  14.469
47224SOL     OW43504   8.810   9.609   2.453
47224SOL    HW143505   8.883   9.625   2.394
47224SOL    HW243506   8.799   9.691   2.501
47225SOL     OW43507   1.994   1.983   8.490
47225SOL    HW143508   2.002   1.894   8.456
47225SOL    HW243509   1.928   2.024   8.434
47226SOL     OW43510   7.717   4.351  14.735
47226SOL    HW143511   7.702   4.259  14.760
47226SOL    HW243512   7.655   4.367  14.664
47227SOL     OW43513   0.826  11.332   3.424
47227SOL    HW143514   0.737  11.367   3.424
47227SOL    HW243515   0.845  11.317   3.331
47228SOL     OW43516   7.533   5.295   2.000
47228SOL    HW143517   7.489   5.210   2.003
47228SOL    HW243518   7.462   5.358   1.984
47229SOL     OW43519   1.949   1.154   1.758
47229SOL    HW143520   2.042   1.167   1.771
47229SOL    HW243521   1.908   1.185   1.838
47230SOL     OW43522  11.141  12.575  11.067
47230SOL    HW143523  11.146  12.661  11.108
47230SOL    HW243524  11.048  12.564  11.046
47231SOL     OW43525   0.340  10.022   4.105
47231SOL    HW143526   0.247  10.011   4.086
47231SOL    HW243527   0.366   9.940   4.148
47232SOL     OW43528   1.845   8.327   0.718
47232SOL    HW143529   1.814   8.414   0.741
47232SOL    HW243530   1.885   8.294   0.798
47233SOL     OW43531   4.019   3.986   0.903
47233SOL    HW143532   3.970   3.915   0.945
47233SOL    HW243533   3.968   4.065   0.923
47234SOL     OW43534   6.160   5.361   5.450
47234SOL    HW143535   6.138   5.419   5.377
47234SOL    HW243536   6.092   5.294   5.448
47235SOL     OW43537   4.347   4.003   8.244
47235SOL    HW143538   4.424   4.044   8.205
47235SOL    HW243539   4.275   4.063   8.225
47236SOL     OW43540   8.713  11.099   8.916
47236SOL    HW143541   8.624  11.080   8.885
47236SOL    HW243542   8.700  11.145   8.998
47237SOL     OW43543   9.837   7.531  11.340
47237SOL    HW143544   9.855   7.551  11.432
47237SOL    HW243545   9.891   7.455  11.321
47238SOL     OW43546   2.294  14.514  11.296
47238SOL    HW143547   2.265  14.584  11.354
47238SOL    HW243548   2.216  14.488  11.248
47239SOL     OW43549   7.183   5.282   1.648
47239SOL    HW143550   7.197   5.372   1.622
47239SOL    HW243551   7.087   5.272   1.650
47240SOL     OW43552   0.859  10.976   2.670
47240SOL    HW143553   0.929  11.030   2.708
47240SOL    HW243554   0.786  10.983   2.732
47241SOL     OW43555   6.248   0.476   1.416
47241SOL    HW143556   6.156   0.461   1.392
47241SOL    HW243557   6.259   0.571   1.409
47242SOL     OW43558  13.042   3.361   6.855
47242SOL    HW143559  13.022   3.291   6.794
47242SOL    HW243560  13.105   3.323   6.916
47243SOL     OW43561   2.938   2.235   9.575
47243SOL    HW143562   3.007   2.177   9.606
47243SOL    HW243563   2.909   2.282   9.653
47244SOL     OW43564   7.404   2.154   5.190
47244SOL    HW143565   7.367   2.201   5.115
47244SOL    HW243566   7.458   2.085   5.151
47245SOL     OW43567   0.794   7.421   0.617
47245SOL    HW143568   0.864   7.428   0.553
47245SOL    HW243569   0.836   7.392   0.697
47246SOL     OW43570   5.972   6.878   5.839
47246SOL    HW143571   6.035   6.948   5.822
47246SOL    HW243572   5.894   6.923   5.871
47247SOL     OW43573  14.611   6.577   2.677
47247SOL    HW143574  14.536   6.545   2.626
47247SOL    HW243575  14.680   6.513   2.659
47248SOL     OW43576   9.422   3.570   2.569
47248SOL    HW143577   9.419   3.560   2.474
47248SOL    HW243578   9.494   3.630   2.585
47249SOL     OW43579  14.458   8.371   3.160
47249SOL    HW143580  14.530   8.351   3.100
47249SOL    HW243581  14.393   8.303   3.143
47250SOL     OW43582   3.771   2.022   2.322
47250SOL    HW143583   3.747   1.931   2.342
47250SOL    HW243584   3.769   2.026   2.226
47251SOL     OW43585  12.685   1.072   5.611
47251SOL    HW143586  12.685   1.110   5.523
47251SOL    HW243587  12.651   1.142   5.667
47252SOL     OW43588   4.299   5.104  12.935
47252SOL    HW143589   4.247   5.122  13.013
47252SOL    HW243590   4.366   5.172  12.934
47253SOL     OW43591  11.213   5.051   6.036
47253SOL    HW143592  11.179   4.991   6.103
47253SOL    HW243593  11.143   5.057   5.971
47254SOL     OW43594   1.959  14.194   2.419
47254SOL    HW143595   1.926  14.108   2.391
47254SOL    HW243596   1.899  14.257   2.378
47255SOL     OW43597   2.244   7.422   5.998
47255SOL    HW143598   2.337   7.445   6.004
47255SOL    HW243599   2.244   7.330   5.969
47256SOL     OW43600   6.547   4.547   1.382
47256SOL    HW143601   6.599   4.625   1.359
47256SOL    HW243602   6.596   4.474   1.343
47257SOL     OW43603   4.524   0.673   6.741
47257SOL    HW143604   4.440   0.664   6.697
47257SOL    HW243605   4.583   0.709   6.674
47258SOL     OW43606   9.340   0.663   6.179
47258SOL    HW143607   9.245   0.656   6.177
47258SOL    HW243608   9.361   0.688   6.269
47259SOL     OW43609   7.181   1.170   2.932
47259SOL    HW143610   7.096   1.210   2.914
47259SOL    HW243611   7.188   1.171   3.027
47260SOL     OW43612  14.577   4.145  10.063
47260SOL    HW143613  14.580   4.217  10.126
47260SOL    HW243614  14.492   4.154  10.020
47261SOL     OW43615   5.328   4.604   0.345
47261SOL    HW143616   5.295   4.656   0.273
47261SOL    HW243617   5.334   4.515   0.310
47262SOL     OW43618  12.219   7.974   3.565
47262SOL    HW143619  12.195   7.899   3.618
47262SOL    HW243620  12.253   8.038   3.627
47263SOL     OW43621  11.182   4.115  14.237
47263SOL    HW143622  11.087   4.128  14.234
47263SOL    HW243623  11.195   4.054  14.309
47264SOL     OW43624   5.754   5.282   0.126
47264SOL    HW143625   5.778   5.203   0.079
47264SOL    HW243626   5.749   5.350   0.058
47265SOL     OW43627   6.393   1.202   1.488
47265SOL    HW143628   6.448   1.280   1.496
47265SOL    HW243629   6.404   1.156   1.571
47266SOL     OW43630  13.041   0.218  13.014
47266SOL    HW143631  12.965   0.169  13.045
47266SOL    HW243632  13.109   0.152  13.003
47267SOL     OW43633   0.451  11.776  12.512
47267SOL    HW143634   0.487  11.782  12.600
47267SOL    HW243635   0.447  11.682  12.493
47268SOL     OW43636   7.158   8.808   9.182
47268SOL    HW143637   7.198   8.750   9.118
47268SOL    HW243638   7.099   8.863   9.130
47269SOL     OW43639   2.948   3.007   0.096
47269SOL    HW143640   2.884   2.997   0.166
47269SOL    HW243641   2.997   2.924   0.095
47270SOL     OW43642  11.452   0.956   7.733
47270SOL    HW143643  11.397   0.881   7.755
47270SOL    HW243644  11.497   0.931   7.652
47271SOL     OW43645   4.070   6.127   6.910
47271SOL    HW143646   4.161   6.131   6.938
47271SOL    HW243647   4.025   6.079   6.980
47272SOL     OW43648  12.444   7.084   9.052
47272SOL    HW143649  12.410   7.134   8.978
47272SOL    HW243650  12.447   6.994   9.020
47273SOL     OW43651   3.341   8.060   4.360
47273SOL    HW143652   3.397   8.100   4.294
47273SOL    HW243653   3.394   7.990   4.397
47274SOL     OW43654  13.969  11.282  12.079
47274SOL    HW143655  13.995  11.192  12.057
47274SOL    HW243656  13.900  11.271  12.144
47275SOL     OW43657   0.741  10.113   8.311
47275SOL    HW143658   0.792  10.177   8.361
47275SOL    HW243659   0.652  10.121   8.345
47276SOL     OW43660   1.327   2.453   8.766
47276SOL    HW143661   1.368   2.394   8.829
47276SOL    HW243662   1.341   2.411   8.681
47277SOL     OW43663  11.033   8.556   7.154
47277SOL    HW143664  11.090   8.587   7.084
47277SOL    HW243665  10.949   8.599   7.138
47278SOL     OW43666  14.199  11.985  14.357
47278SOL    HW143667  14.271  11.929  14.386
47278SOL    HW243668  14.124  11.957  14.410
47279SOL     OW43669   5.660   4.975   8.943
47279SOL    HW143670   5.698   5.043   8.887
47279SOL    HW243671   5.567   4.996   8.947
47280SOL     OW43672  11.131  11.715   8.388
47280SOL    HW143673  11.141  11.623   8.363
47280SOL    HW243674  11.156  11.764   8.309
47281SOL     OW43675  13.222  13.579   5.299
47281SOL    HW143676  13.308  13.541   5.317
47281SOL    HW243677  13.186  13.527   5.228
47282SOL     OW43678   3.144   1.083  12.661
47282SOL    HW143679   3.175   1.172  12.645
47282SOL    HW243680   3.067   1.074  12.606
47283SOL     OW43681   3.254   4.242   7.477
47283SOL    HW143682   3.332   4.199   7.515
47283SOL    HW243683   3.254   4.330   7.516
47284SOL     OW43684  14.530   0.180   7.403
47284SOL    HW143685  14.550   0.243   7.334
47284SOL    HW243686  14.549   0.226   7.485
47285SOL     OW43687   6.328   6.009   0.968
47285SOL    HW143688   6.286   6.065   0.903
47285SOL    HW243689   6.390   6.066   1.013
47286SOL     OW43690   1.711  14.803   9.728
47286SOL    HW143691   1.790  14.855   9.712
47286SOL    HW243692   1.721  14.726   9.672
47287SOL     OW43693  14.364   8.710  13.611
47287SOL    HW143694  14.437   8.651  13.591
47287SOL    HW243695  14.289   8.672  13.565
47288SOL     OW43696   0.758   0.830  14.403
47288SOL    HW143697   0.796   0.914  14.379
47288SOL    HW243698   0.675   0.826  14.354
47289SOL     OW43699   4.501   4.433   5.331
47289SOL    HW143700   4.593   4.453   5.311
47289SOL    HW243701   4.482   4.484   5.409
47290SOL     OW43702   0.078   6.694   3.369
47290SOL    HW143703   0.045   6.653   3.289
47290SOL    HW243704   0.003   6.694   3.429
47291SOL     OW43705   5.561   4.423   1.737
47291SOL    HW143706   5.650   4.458   1.744
47291SOL    HW243707   5.565   4.362   1.663
47292SOL     OW43708   8.206   6.197   3.348
47292SOL    HW143709   8.294   6.208   3.311
47292SOL    HW243710   8.162   6.280   3.330
47293SOL     OW43711   4.747   6.012   7.361
47293SOL    HW143712   4.762   5.979   7.449
47293SOL    HW243713   4.755   5.935   7.305
47294SOL     OW43714   2.723   8.432   0.917
47294SOL    HW143715   2.814   8.409   0.936
47294SOL    HW243716   2.725   8.528   0.909
47295SOL     OW43717   4.028  10.126   4.850
47295SOL    HW143718   4.035  10.157   4.760
47295SOL    HW243719   3.972  10.191   4.893
47296SOL     OW43720   6.903  12.672   1.803
47296SOL    HW143721   6.974  12.692   1.742
47296SOL    HW243722   6.834  12.635   1.748
47297SOL     OW43723  14.528   8.112   9.038
47297SOL    HW143724  14.578   8.194   9.040
47297SOL    HW243725  14.445   8.136   8.997
47298SOL     OW43726   6.883   8.581   2.276
47298SOL    HW143727   6.907   8.543   2.361
47298SOL    HW243728   6.966   8.595   2.232
47299SOL     OW43729   6.963   0.563   5.667
47299SOL    HW143730   6.899   0.521   5.725
47299SOL    HW243731   6.977   0.650   5.705
47300SOL     OW43732   7.097   3.275   4.900
47300SOL    HW143733   7.043   3.353   4.911
47300SOL    HW243734   7.177   3.307   4.858
47301SOL     OW43735   3.842   9.331  13.366
47301SOL    HW143736   3.851   9.243  13.403
47301SOL    HW243737   3.884   9.388  13.431
47302SOL     OW43738   8.047   5.625   8.531
47302SOL    HW143739   7.990   5.697   8.502
47302SOL    HW243740   8.119   5.625   8.467
47303SOL     OW43741   9.766   4.349   1.644
47303SOL    HW143742   9.761   4.279   1.708
47303SOL    HW243743   9.737   4.427   1.691
47304SOL     OW43744  14.018   1.620   0.172
47304SOL    HW143745  14.046   1.710   0.190
47304SOL    HW243746  13.935   1.629   0.126
47305SOL     OW43747   4.520  13.466  10.444
47305SOL    HW143748   4.526  13.513  10.528
47305SOL    HW243749   4.568  13.385  10.459
47306SOL     OW43750  11.677   7.596   0.950
47306SOL    HW143751  11.672   7.512   0.995
47306SOL    HW243752  11.770   7.607   0.931
47307SOL     OW43753  14.578  10.803   8.603
47307SOL    HW143754  14.611  10.826   8.516
47307SOL    HW243755  14.594  10.709   8.610
47308SOL     OW43756   5.721   5.847  10.243
47308SOL    HW143757   5.765   5.788  10.182
47308SOL    HW243758   5.654   5.792  10.285
47309SOL     OW43759   9.495   1.387   9.848
47309SOL    HW143760   9.500   1.343   9.763
47309SOL    HW243761   9.579   1.369   9.889
47310SOL     OW43762   4.251   9.321  14.201
47310SOL    HW143763   4.302   9.273  14.266
47310SOL    HW243764   4.302   9.313  14.120
47311SOL     OW43765   6.758   1.625   9.730
47311SOL    HW143766   6.801   1.707   9.754
47311SOL    HW243767   6.678   1.652   9.684
47312SOL     OW43768  13.681   2.186   0.197
47312SOL    HW143769  13.594   2.146   0.202
47312SOL    HW243770  13.685   2.245   0.271
47313SOL     OW43771   6.200   4.771   3.748
47313SOL    HW143772   6.141   4.696   3.751
47313SOL    HW243773   6.143   4.847   3.736
47314SOL     OW43774  12.300   8.309   5.183
47314SOL    HW143775  12.374   8.248   5.191
47314SOL    HW243776  12.231   8.270   5.236
47315SOL     OW43777   2.951  12.108  12.120
47315SOL    HW143778   2.925  12.195  12.089
47315SOL    HW243779   3.035  12.123  12.163
47316SOL     OW43780  13.918  13.686  12.517
47316SOL    HW143781  13.859  13.637  12.575
47316SOL    HW243782  13.892  13.660  12.429
47317SOL     OW43783  12.057   5.212   0.394
47317SOL    HW143784  12.088   5.177   0.478
47317SOL    HW243785  12.132   5.257   0.356
47318SOL     OW43786   6.231   4.690   7.630
47318SOL    HW143787   6.190   4.744   7.562
47318SOL    HW243788   6.158   4.653   7.678
47319SOL     OW43789   5.312   0.244   2.771
47319SOL    HW143790   5.352   0.222   2.687
47319SOL    HW243791   5.349   0.330   2.793
47320SOL     OW43792   9.325   5.864  11.524
47320SOL    HW143793   9.390   5.836  11.460
47320SOL    HW243794   9.360   5.837  11.609
47321SOL     OW43795   8.042  12.918  10.192
47321SOL    HW143796   7.999  12.957  10.268
47321SOL    HW243797   7.988  12.842  10.170
47322SOL     OW43798  12.340   8.363   7.012
47322SOL    HW143799  12.353   8.369   6.917
47322SOL    HW243800  12.416   8.314   7.043
47323SOL     OW43801   5.884   6.182   8.246
47323SOL    HW143802   5.888   6.235   8.326
47323SOL    HW243803   5.821   6.228   8.190
47324SOL     OW43804   2.232  11.655   5.930
47324SOL    HW143805   2.290  11.677   5.857
47324SOL    HW243806   2.245  11.725   5.993
47325SOL     OW43807   2.321   8.825   2.432
47325SOL    HW143808   2.385   8.826   2.503
47325SOL    HW243809   2.331   8.739   2.391
47326SOL     OW43810   3.942  11.855  13.010
47326SOL    HW143811   3.951  11.765  13.041
47326SOL    HW243812   4.026  11.875  12.968
47327SOL     OW43813  14.117   5.902   7.214
47327SOL    HW143814  14.097   5.838   7.283
47327SOL    HW243815  14.204   5.877   7.183
47328SOL     OW43816  10.697  12.840  14.819
47328SOL    HW143817  10.705  12.748  14.843
47328SOL    HW243818  10.683  12.886   0.030
47329SOL     OW43819   1.888  11.343   5.710
47329SOL    HW143820   1.960  11.395   5.745
47329SOL    HW243821   1.911  11.253   5.730
47330SOL     OW43822   4.565   3.336  10.301
47330SOL    HW143823   4.601   3.271  10.241
47330SOL    HW243824   4.472   3.340  10.280
47331SOL     OW43825   7.846   4.561  13.041
47331SOL    HW143826   7.857   4.466  13.039
47331SOL    HW243827   7.924   4.595  12.996
47332SOL     OW43828   1.809   7.874   0.342
47332SOL    HW143829   1.715   7.877   0.325
47332SOL    HW243830   1.828   7.781   0.355
47333SOL     OW43831  12.728   3.479  10.095
47333SOL    HW143832  12.702   3.392  10.125
47333SOL    HW243833  12.649   3.532  10.106
47334SOL     OW43834  13.275   2.311   4.102
47334SOL    HW143835  13.252   2.262   4.181
47334SOL    HW243836  13.347   2.368   4.130
47335SOL     OW43837   7.459   4.645   0.283
47335SOL    HW143838   7.431   4.558   0.254
47335SOL    HW243839   7.379   4.697   0.285
47336SOL     OW43840  10.051  12.114  12.121
47336SOL    HW143841  10.126  12.137  12.176
47336SOL    HW243842  10.074  12.031  12.081
47337SOL     OW43843  11.405  10.379   4.406
47337SOL    HW143844  11.362  10.297   4.379
47337SOL    HW243845  11.362  10.447   4.354
47338SOL     OW43846   7.410  10.173   2.011
47338SOL    HW143847   7.444  10.218   1.934
47338SOL    HW243848   7.332  10.223   2.036
47339SOL     OW43849   6.913  14.536  11.810
47339SOL    HW143850   6.843  14.581  11.857
47339SOL    HW243851   6.919  14.581  11.726
47340SOL     OW43852   0.773   7.429  13.144
47340SOL    HW143853   0.821   7.356  13.105
47340SOL    HW243854   0.794   7.425  13.237
47341SOL     OW43855   0.196   9.485   3.079
47341SOL    HW143856   0.100   9.488   3.085
47341SOL    HW243857   0.219   9.397   3.109
47342SOL     OW43858   2.415  13.127   1.578
47342SOL    HW143859   2.353  13.094   1.643
47342SOL    HW243860   2.363  13.188   1.525
47343SOL     OW43861  10.430   4.307  14.157
47343SOL    HW143862  10.517   4.295  14.196
47343SOL    HW243863  10.375   4.243  14.202
47344SOL     OW43864  11.450  13.995   1.981
47344SOL    HW143865  11.418  14.080   1.950
47344SOL    HW243866  11.536  14.015   2.018
47345SOL     OW43867  10.264   4.645  13.968
47345SOL    HW143868  10.258   4.550  13.976
47345SOL    HW243869  10.206   4.678  14.036
47346SOL     OW43870   6.917   9.925  14.790
47346SOL    HW143871   6.861   9.857  14.827
47346SOL    HW243872   7.003   9.911  14.831
47347SOL     OW43873  11.070  12.437  10.446
47347SOL    HW143874  11.114  12.496  10.507
47347SOL    HW243875  10.979  12.467  10.445
47348SOL     OW43876   8.674   9.967   0.800
47348SOL    HW143877   8.635  10.052   0.822
47348SOL    HW243878   8.646   9.909   0.871
47349SOL     OW43879   7.975  13.733   6.043
47349SOL    HW143880   7.907  13.669   6.060
47349SOL    HW243881   7.928  13.812   6.014
47350SOL     OW43882  14.049   6.519   1.586
47350SOL    HW143883  14.076   6.466   1.661
47350SOL    HW243884  14.080   6.471   1.509
47351SOL     OW43885   8.564   4.885  11.014
47351SOL    HW143886   8.627   4.841  10.957
47351SOL    HW243887   8.546   4.969  10.971
47352SOL     OW43888   8.188  13.421   8.751
47352SOL    HW143889   8.110  13.470   8.776
47352SOL    HW243890   8.165  13.329   8.768
47353SOL     OW43891   9.565  11.236   8.808
47353SOL    HW143892   9.509  11.192   8.872
47353SOL    HW243893   9.585  11.320   8.848
47354SOL     OW43894   9.900   0.884   8.324
47354SOL    HW143895   9.985   0.842   8.310
47354SOL    HW243896   9.920   0.964   8.372
47355SOL     OW43897   7.719   3.313   0.192
47355SOL    HW143898   7.729   3.298   0.098
47355SOL    HW243899   7.808   3.302   0.227
47356SOL     OW43900  12.575   7.553   2.945
47356SOL    HW143901  12.651   7.592   2.987
47356SOL    HW243902  12.612   7.493   2.880
47357SOL     OW43903   8.621   1.660   0.035
47357SOL    HW143904   8.545   1.602   0.045
47357SOL    HW243905   8.616   1.691  14.818
47358SOL     OW43906  14.100   8.738  13.872
47358SOL    HW143907  14.187   8.720  13.908
47358SOL    HW243908  14.047   8.762  13.948
47359SOL     OW43909   7.869  13.035   5.021
47359SOL    HW143910   7.906  12.986   5.094
47359SOL    HW243911   7.896  12.985   4.943
47360SOL     OW43912   3.310  14.704   7.317
47360SOL    HW143913   3.320  14.726   7.225
47360SOL    HW243914   3.371  14.762   7.363
47361SOL     OW43915   5.037   5.188  14.437
47361SOL    HW143916   5.019   5.114  14.379
47361SOL    HW243917   5.128   5.211  14.420
47362SOL     OW43918   2.223  10.240   5.948
47362SOL    HW143919   2.297  10.181   5.932
47362SOL    HW243920   2.259  10.328   5.935
47363SOL     OW43921  14.395   6.020   5.422
47363SOL    HW143922  14.401   6.104   5.376
47363SOL    HW243923  14.425   6.040   5.511
47364SOL     OW43924   4.111   9.689   2.531
47364SOL    HW143925   4.120   9.784   2.545
47364SOL    HW243926   4.152   9.674   2.446
47365SOL     OW43927   7.537   8.509   2.988
47365SOL    HW143928   7.560   8.422   3.020
47365SOL    HW243929   7.493   8.551   3.062
47366SOL     OW43930   8.852   7.449   8.583
47366SOL    HW143931   8.799   7.511   8.633
47366SOL    HW243932   8.942   7.477   8.597
47367SOL     OW43933   9.131   3.485   3.659
47367SOL    HW143934   9.110   3.401   3.700
47367SOL    HW243935   9.070   3.491   3.586
47368SOL     OW43936   0.202   4.279  14.263
47368SOL    HW143937   0.205   4.184  14.258
47368SOL    HW243938   0.278   4.308  14.213
47369SOL     OW43939   6.054   4.702  12.198
47369SOL    HW143940   5.982   4.762  12.181
47369SOL    HW243941   6.019   4.616  12.174
47370SOL     OW43942  10.096   1.085   0.994
47370SOL    HW143943  10.081   1.000   1.036
47370SOL    HW243944  10.016   1.102   0.945
47371SOL     OW43945   3.438   8.253  10.424
47371SOL    HW143946   3.528   8.222  10.440
47371SOL    HW243947   3.383   8.181  10.456
47372SOL     OW43948  13.519   6.936  13.096
47372SOL    HW143949  13.525   6.842  13.112
47372SOL    HW243950  13.485   6.972  13.178
47373SOL     OW43951   8.623   1.383   7.452
47373SOL    HW143952   8.689   1.315   7.438
47373SOL    HW243953   8.572   1.352   7.527
47374SOL     OW43954  14.182   5.776   0.932
47374SOL    HW143955  14.106   5.832   0.916
47374SOL    HW243956  14.257   5.834   0.921
47375SOL     OW43957   5.086  14.509   2.402
47375SOL    HW143958   5.066  14.583   2.459
47375SOL    HW243959   5.133  14.547   2.328
47376SOL     OW43960   6.971  13.031   5.060
47376SOL    HW143961   6.971  13.058   4.968
47376SOL    HW243962   7.063  13.011   5.079
47377SOL     OW43963  10.303   1.288   1.936
47377SOL    HW143964  10.273   1.338   1.860
47377SOL    HW243965  10.390   1.323   1.954
47378SOL     OW43966   6.139  10.474   1.177
47378SOL    HW143967   6.130  10.483   1.083
47378SOL    HW243968   6.165  10.561   1.207
47379SOL     OW43969  10.107  11.191  12.195
47379SOL    HW143970  10.177  11.194  12.260
47379SOL    HW243971  10.057  11.272  12.210
47380SOL     OW43972   4.672   8.021  12.015
47380SOL    HW143973   4.601   7.971  12.056
47380SOL    HW243974   4.749   8.002  12.068
47381SOL     OW43975   1.766   6.772   6.165
47381SOL    HW143976   1.705   6.808   6.230
47381SOL    HW243977   1.804   6.849   6.123
47382SOL     OW43978  13.190  13.769  11.935
47382SOL    HW143979  13.228  13.833  11.876
47382SOL    HW243980  13.095  13.780  11.926
47383SOL     OW43981   2.026   5.874   4.242
47383SOL    HW143982   2.106   5.888   4.191
47383SOL    HW243983   1.977   5.808   4.193
47384SOL     OW43984   9.819   3.642   6.447
47384SOL    HW143985   9.768   3.571   6.409
47384SOL    HW243986   9.771   3.667   6.526
47385SOL     OW43987   2.764   0.382  12.499
47385SOL    HW143988   2.716   0.406  12.578
47385SOL    HW243989   2.856   0.387  12.524
47386SOL     OW43990   2.858   5.632  13.368
47386SOL    HW143991   2.948   5.641  13.398
47386SOL    HW243992   2.807   5.617  13.448
47387SOL     OW43993   8.008   8.656   0.129
47387SOL    HW143994   8.073   8.671   0.199
47387SOL    HW243995   7.959   8.579   0.158
47388SOL     OW43996   2.854   4.055   4.344
47388SOL    HW143997   2.795   4.087   4.412
47388SOL    HW243998   2.797   4.006   4.285
47389SOL     OW43999  12.818   4.727   9.598
47389SOL    HW144000  12.848   4.786   9.528
47389SOL    HW244001  12.743   4.771   9.637
47390SOL     OW44002   9.766   0.471   7.847
47390SOL    HW144003   9.696   0.463   7.912
47390SOL    HW244004   9.826   0.535   7.884
47391SOL     OW44005  10.166   7.236  10.251
47391SOL    HW144006  10.175   7.253  10.157
47391SOL    HW244007  10.182   7.142  10.260
47392SOL     OW44008   2.807   2.333  11.224
47392SOL    HW144009   2.821   2.415  11.176
47392SOL    HW244010   2.815   2.264  11.158
47393SOL     OW44011  10.571   7.583  10.296
47393SOL    HW144012  10.503   7.519  10.319
47393SOL    HW244013  10.567   7.589  10.200
47394SOL     OW44014  13.916   4.829  13.360
47394SOL    HW144015  13.854   4.890  13.320
47394SOL    HW244016  13.992   4.832  13.303
47395SOL     OW44017   3.644  12.104  10.256
47395SOL    HW144018   3.616  12.114  10.165
47395SOL    HW244019   3.642  12.193  10.291
47396SOL     OW44020   3.243  11.885   9.869
47396SOL    HW144021   3.303  11.890   9.795
47396SOL    HW244022   3.211  11.795   9.868
47397SOL     OW44023   7.567   8.697  11.828
47397SOL    HW144024   7.628   8.644  11.879
47397SOL    HW244025   7.504   8.634  11.792
47398SOL     OW44026   1.231  12.488   6.383
47398SOL    HW144027   1.163  12.515   6.321
47398SOL    HW244028   1.184  12.452   6.458
47399SOL     OW44029  14.531   1.083  12.466
47399SOL    HW144030  14.481   1.061  12.387
47399SOL    HW244031  14.553   0.998  12.505
47400SOL     OW44032  12.334   9.456  13.812
47400SOL    HW144033  12.255   9.444  13.865
47400SOL    HW244034  12.357   9.548  13.825
47401SOL     OW44035   3.419   1.564   7.167
47401SOL    HW144036   3.340   1.598   7.210
47401SOL    HW244037   3.489   1.580   7.231
47402SOL     OW44038  11.062   9.267   2.506
47402SOL    HW144039  11.098   9.261   2.418
47402SOL    HW244040  11.133   9.303   2.559
47403SOL     OW44041   4.554   8.585   0.106
47403SOL    HW144042   4.569   8.627   0.021
47403SOL    HW244043   4.487   8.519   0.088
47404SOL     OW44044   7.136   2.764   1.198
47404SOL    HW144045   7.062   2.758   1.137
47404SOL    HW244046   7.139   2.679   1.241
47405SOL     OW44047   2.942  13.844  11.203
47405SOL    HW144048   3.006  13.797  11.149
47405SOL    HW244049   2.920  13.921  11.152
47406SOL     OW44050  10.428   8.130  13.984
47406SOL    HW144051  10.465   8.076  14.053
47406SOL    HW244052  10.419   8.216  14.023
47407SOL     OW44053   9.221  14.084   7.162
47407SOL    HW144054   9.198  14.153   7.099
47407SOL    HW244055   9.229  14.005   7.109
47408SOL     OW44056   6.774  14.231   2.745
47408SOL    HW144057   6.822  14.292   2.689
47408SOL    HW244058   6.697  14.281   2.774
47409SOL     OW44059   5.707  11.850   6.546
47409SOL    HW144060   5.633  11.840   6.606
47409SOL    HW244061   5.728  11.943   6.550
47410SOL     OW44062   7.691   4.573   9.969
47410SOL    HW144063   7.687   4.509   9.897
47410SOL    HW244064   7.602   4.607   9.976
47411SOL     OW44065   3.803   0.320  10.379
47411SOL    HW144066   3.771   0.406  10.353
47411SOL    HW244067   3.855   0.337  10.458
47412SOL     OW44068   4.004   3.359  12.961
47412SOL    HW144069   4.089   3.385  12.924
47412SOL    HW244070   3.973   3.437  13.006
47413SOL     OW44071   5.804  14.667   1.829
47413SOL    HW144072   5.726  14.713   1.796
47413SOL    HW244073   5.821  14.600   1.762
47414SOL     OW44074   1.828  10.950  14.299
47414SOL    HW144075   1.857  11.017  14.237
47414SOL    HW244076   1.808  10.874  14.245
47415SOL     OW44077   8.278  10.205  10.813
47415SOL    HW144078   8.260  10.297  10.791
47415SOL    HW244079   8.282  10.161  10.728
47416SOL     OW44080  10.185   6.387   2.127
47416SOL    HW144081  10.130   6.387   2.048
47416SOL    HW244082  10.124   6.368   2.198
47417SOL     OW44083  13.249   7.080   4.302
47417SOL    HW144084  13.304   7.030   4.241
47417SOL    HW244085  13.310   7.139   4.346
47418SOL     OW44086   2.672   8.858   3.171
47418SOL    HW144087   2.645   8.770   3.145
47418SOL    HW244088   2.745   8.879   3.112
47419SOL     OW44089   0.260   1.692   1.549
47419SOL    HW144090   0.353   1.715   1.546
47419SOL    HW244091   0.223   1.751   1.614
47420SOL     OW44092  12.473  14.590   6.904
47420SOL    HW144093  12.394  14.539   6.920
47420SOL    HW244094  12.458  14.632   6.819
47421SOL     OW44095   9.584   0.519   9.662
47421SOL    HW144096   9.568   0.540   9.571
47421SOL    HW244097   9.497   0.518   9.702
47422SOL     OW44098  12.426   1.206   7.182
47422SOL    HW144099  12.354   1.265   7.163
47422SOL    HW244100  12.397   1.121   7.148
47423SOL     OW44101  13.149   1.906  11.102
47423SOL    HW144102  13.146   1.897  11.198
47423SOL    HW244103  13.209   1.837  11.074
47424SOL     OW44104  14.080  13.109   3.445
47424SOL    HW144105  14.016  13.164   3.400
47424SOL    HW244106  14.055  13.019   3.422
47425SOL     OW44107   2.144   8.921  14.120
47425SOL    HW144108   2.076   8.969  14.167
47425SOL    HW244109   2.194   8.877  14.189
47426SOL     OW44110  10.650  10.782   9.045
47426SOL    HW144111  10.650  10.689   9.071
47426SOL    HW244112  10.557  10.805   9.041
47427SOL     OW44113   5.632   2.605  10.129
47427SOL    HW144114   5.583   2.532  10.167
47427SOL    HW244115   5.568   2.676  10.121
47428SOL     OW44116   9.248   9.883   3.464
47428SOL    HW144117   9.219   9.794   3.486
47428SOL    HW244118   9.167   9.931   3.448
47429SOL     OW44119   7.608   0.559   7.034
47429SOL    HW144120   7.610   0.589   7.125
47429SOL    HW244121   7.599   0.639   6.982
47430SOL     OW44122   4.216  14.206   7.437
47430SOL    HW144123   4.189  14.121   7.403
47430SOL    HW244124   4.147  14.267   7.408
47431SOL     OW44125   2.658  12.373  14.854
47431SOL    HW144126   2.662  12.437  14.784
47431SOL    HW244127   2.614  12.297  14.814
47432SOL     OW44128   9.784  14.753   0.669
47432SOL    HW144129   9.816  14.835   0.707
47432SOL    HW244130   9.690  14.755   0.684
47433SOL     OW44131  14.777   6.236  14.012
47433SOL    HW144132  14.834   6.309  13.986
47433SOL    HW244133  14.805   6.164  13.956
47434SOL     OW44134  11.300   2.305  14.559
47434SOL    HW144135  11.350   2.242  14.508
47434SOL    HW244136  11.209   2.292  14.531
47435SOL     OW44137   0.839   4.668   3.618
47435SOL    HW144138   0.781   4.745   3.614
47435SOL    HW244139   0.779   4.594   3.627
47436SOL     OW44140   2.473   2.355  10.940
47436SOL    HW144141   2.472   2.438  10.988
47436SOL    HW244142   2.389   2.314  10.959
47437SOL     OW44143   5.511   0.480   4.443
47437SOL    HW144144   5.469   0.565   4.430
47437SOL    HW244145   5.490   0.430   4.364
47438SOL     OW44146  10.095  11.182  10.643
47438SOL    HW144147  10.188  11.183  10.618
47438SOL    HW244148  10.084  11.258  10.700
47439SOL     OW44149   9.347   4.677  14.323
47439SOL    HW144150   9.257   4.702  14.304
47439SOL    HW244151   9.358   4.697  14.416
47440SOL     OW44152  10.227   7.974   2.966
47440SOL    HW144153  10.245   7.964   3.059
47440SOL    HW244154  10.287   7.913   2.923
47441SOL     OW44155  13.225   4.146  12.042
47441SOL    HW144156  13.236   4.110  11.955
47441SOL    HW244157  13.292   4.103  12.095
47442SOL     OW44158  12.152   0.828   9.643
47442SOL    HW144159  12.135   0.760   9.709
47442SOL    HW244160  12.077   0.822   9.584
47443SOL     OW44161   5.071   0.498   8.717
47443SOL    HW144162   5.000   0.553   8.751
47443SOL    HW244163   5.148   0.555   8.717
47444SOL     OW44164   7.119   3.821   8.850
47444SOL    HW144165   7.185   3.878   8.887
47444SOL    HW244166   7.141   3.814   8.757
47445SOL     OW44167   0.827   4.087  14.006
47445SOL    HW144168   0.889   4.017  14.026
47445SOL    HW244169   0.841   4.152  14.075
47446SOL     OW44170   8.021   3.686   6.615
47446SOL    HW144171   8.044   3.687   6.708
47446SOL    HW244172   7.998   3.777   6.595
47447SOL     OW44173   3.367   1.456   0.127
47447SOL    HW144174   3.385   1.378   0.179
47447SOL    HW244175   3.438   1.459   0.063
47448SOL     OW44176   6.061  13.740  14.590
47448SOL    HW144177   6.074  13.672  14.656
47448SOL    HW244178   6.116  13.813  14.619
47449SOL     OW44179  10.392   3.036  13.547
47449SOL    HW144180  10.324   3.032  13.613
47449SOL    HW244181  10.463   3.085  13.588
47450SOL     OW44182   7.928  10.461   2.620
47450SOL    HW144183   7.981  10.451   2.541
47450SOL    HW244184   7.881  10.378   2.628
47451SOL     OW44185   4.451   7.612  10.067
47451SOL    HW144186   4.436   7.666   9.990
47451SOL    HW244187   4.494   7.670  10.129
47452SOL     OW44188   2.403   8.487   1.752
47452SOL    HW144189   2.429   8.488   1.845
47452SOL    HW244190   2.308   8.476   1.754
47453SOL     OW44191   0.658  11.737  14.122
47453SOL    HW144192   0.744  11.707  14.095
47453SOL    HW244193   0.640  11.689  14.203
47454SOL     OW44194   4.096   2.671   2.993
47454SOL    HW144195   4.064   2.581   2.983
47454SOL    HW244196   4.020   2.719   3.027
47455SOL     OW44197  13.590   4.479   4.572
47455SOL    HW144198  13.504   4.492   4.531
47455SOL    HW244199  13.598   4.384   4.580
47456SOL     OW44200   2.624   1.536   3.250
47456SOL    HW144201   2.668   1.466   3.298
47456SOL    HW244202   2.575   1.491   3.182
47457SOL     OW44203   3.564  13.059   3.852
47457SOL    HW144204   3.572  13.066   3.757
47457SOL    HW244205   3.481  13.102   3.872
47458SOL     OW44206   1.509   7.977   4.746
47458SOL    HW144207   1.570   8.038   4.787
47458SOL    HW244208   1.462   7.936   4.819
47459SOL     OW44209   4.265  11.803  10.629
47459SOL    HW144210   4.290  11.877  10.573
47459SOL    HW244211   4.345  11.781  10.676
47460SOL     OW44212  14.569  10.511   6.407
47460SOL    HW144213  14.603  10.557   6.484
47460SOL    HW244214  14.506  10.448   6.443
47461SOL     OW44215   6.267   7.636   5.060
47461SOL    HW144216   6.297   7.552   5.096
47461SOL    HW244217   6.172   7.630   5.060
47462SOL     OW44218  11.208   9.528  12.648
47462SOL    HW144219  11.289   9.480  12.663
47462SOL    HW244220  11.197   9.528  12.553
47463SOL     OW44221  10.579   4.640   2.876
47463SOL    HW144222  10.621   4.664   2.959
47463SOL    HW244223  10.492   4.609   2.901
47464SOL     OW44224   7.083   5.660  12.725
47464SOL    HW144225   7.008   5.604  12.740
47464SOL    HW244226   7.146   5.604  12.678
47465SOL     OW44227   7.166   6.146   5.779
47465SOL    HW144228   7.119   6.154   5.862
47465SOL    HW244229   7.257   6.165   5.802
47466SOL     OW44230   4.827   8.359   6.052
47466SOL    HW144231   4.899   8.295   6.054
47466SOL    HW244232   4.863   8.438   6.092
47467SOL     OW44233   6.802   7.512   9.303
47467SOL    HW144234   6.817   7.603   9.278
47467SOL    HW244235   6.710   7.496   9.283
47468SOL     OW44236  11.654  11.301   3.540
47468SOL    HW144237  11.716  11.360   3.498
47468SOL    HW244238  11.619  11.350   3.614
47469SOL     OW44239   3.858   4.656   8.852
47469SOL    HW144240   3.936   4.710   8.846
47469SOL    HW244241   3.885   4.579   8.902
47470SOL     OW44242   0.288   0.752  13.606
47470SOL    HW144243   0.376   0.790  13.602
47470SOL    HW244244   0.302   0.660  13.627
47471SOL     OW44245   4.064   9.799   3.540
47471SOL    HW144246   4.129   9.730   3.530
47471SOL    HW244247   3.992   9.774   3.483
47472SOL     OW44248   1.611   8.575  14.231
47472SOL    HW144249   1.591   8.484  14.207
47472SOL    HW244250   1.566   8.627  14.164
47473SOL     OW44251   0.687   1.909   7.078
47473SOL    HW144252   0.629   1.842   7.115
47473SOL    HW244253   0.630   1.962   7.022
47474SOL     OW44254  10.965   4.508   9.764
47474SOL    HW144255  10.886   4.548   9.726
47474SOL    HW244256  11.036   4.538   9.707
47475SOL     OW44257   7.003   0.851   3.794
47475SOL    HW144258   6.908   0.836   3.787
47475SOL    HW244259   7.014   0.893   3.879
47476SOL     OW44260   8.368  14.625   6.739
47476SOL    HW144261   8.417  14.582   6.669
47476SOL    HW244262   8.391  14.575   6.817
47477SOL     OW44263   1.954   5.441   1.443
47477SOL    HW144264   1.868   5.405   1.418
47477SOL    HW244265   1.950   5.449   1.538
47478SOL     OW44266  10.442   4.835   3.676
47478SOL    HW144267  10.516   4.891   3.696
47478SOL    HW244268  10.476   4.746   3.682
47479SOL     OW44269   6.553  14.386   0.941
47479SOL    HW144270   6.463  14.392   0.973
47479SOL    HW244271   6.551  14.423   0.853
47480SOL     OW44272   5.854   8.947  10.680
47480SOL    HW144273   5.945   8.927  10.703
47480SOL    HW244274   5.859   9.026  10.627
47481SOL     OW44275   1.975  12.616   6.290
47481SOL    HW144276   2.055  12.638   6.243
47481SOL    HW244277   1.906  12.665   6.245
47482SOL     OW44278   2.869  10.565   7.065
47482SOL    HW144279   2.833  10.647   7.099
47482SOL    HW244280   2.957  10.588   7.036
47483SOL     OW44281   8.859   1.204   2.268
47483SOL    HW144282   8.951   1.205   2.242
47483SOL    HW244283   8.812   1.220   2.186
47484SOL     OW44284   3.241   3.184  11.158
47484SOL    HW144285   3.168   3.244  11.174
47484SOL    HW244286   3.205   3.097  11.179
47485SOL     OW44287   5.077   0.269   8.557
47485SOL    HW144288   5.166   0.236   8.569
47485SOL    HW244289   5.066   0.334   8.627
47486SOL     OW44290   6.338  11.605   1.733
47486SOL    HW144291   6.373  11.664   1.665
47486SOL    HW244292   6.245  11.628   1.737
47487SOL     OW44293   5.044  10.627   2.226
47487SOL    HW144294   4.949  10.620   2.235
47487SOL    HW244295   5.059  10.717   2.196
47488SOL     OW44296   2.226   1.606   5.164
47488SOL    HW144297   2.272   1.624   5.082
47488SOL    HW244298   2.289   1.556   5.216
47489SOL     OW44299  14.014   8.470   9.141
47489SOL    HW144300  13.958   8.474   9.219
47489SOL    HW244301  14.006   8.380   9.110
47490SOL     OW44302   8.968   2.054   6.963
47490SOL    HW144303   8.962   2.025   6.873
47490SOL    HW244304   8.910   1.996   7.012
47491SOL     OW44305  10.782  11.643   3.682
47491SOL    HW144306  10.718  11.681   3.622
47491SOL    HW244307  10.752  11.668   3.769
47492SOL     OW44308   2.400   3.085   0.536
47492SOL    HW144309   2.406   3.171   0.578
47492SOL    HW244310   2.306   3.067   0.532
47493SOL     OW44311   4.317   3.561   1.787
47493SOL    HW144312   4.234   3.528   1.821
47493SOL    HW244313   4.300   3.579   1.694
47494SOL     OW44314  11.863  12.669   0.568
47494SOL    HW144315  11.823  12.663   0.654
47494SOL    HW244316  11.921  12.745   0.574
47495SOL     OW44317   5.939   2.004  14.777
47495SOL    HW144318   5.847   2.030  14.780
47495SOL    HW244319   5.958   1.995  14.683
47496SOL     OW44320  13.395  10.009   8.295
47496SOL    HW144321  13.360  10.023   8.383
47496SOL    HW244322  13.486  10.039   8.301
47497SOL     OW44323   0.148   6.342   8.502
47497SOL    HW144324   0.157   6.398   8.579
47497SOL    HW244325   0.109   6.397   8.435
47498SOL     OW44326   5.211   7.293   3.488
47498SOL    HW144327   5.176   7.382   3.492
47498SOL    HW244328   5.189   7.262   3.400
47499SOL     OW44329  13.344   1.187  14.241
47499SOL    HW144330  13.367   1.101  14.206
47499SOL    HW244331  13.299   1.167  14.324
47500SOL     OW44332   2.143  11.666   4.647
47500SOL    HW144333   2.061  11.616   4.642
47500SOL    HW244334   2.132  11.720   4.725
47501SOL     OW44335  12.942  14.663   5.311
47501SOL    HW144336  12.893  14.740   5.284
47501SOL    HW244337  13.016  14.697   5.361
47502SOL     OW44338   6.771   7.720   5.818
47502SOL    HW144339   6.678   7.723   5.839
47502SOL    HW244340   6.807   7.799   5.858
47503SOL     OW44341   7.537  11.446   6.554
47503SOL    HW144342   7.610  11.393   6.522
47503SOL    HW244343   7.573  11.534   6.561
47504SOL     OW44344   5.766   2.252   3.214
47504SOL    HW144345   5.776   2.222   3.123
47504SOL    HW244346   5.796   2.343   3.213
47505SOL     OW44347   8.285   7.155   7.528
47505SOL    HW144348   8.365   7.102   7.537
47505SOL    HW244349   8.307   7.238   7.572
47506SOL     OW44350   2.574  14.784  10.056
47506SOL    HW144351   2.592  14.857  10.115
47506SOL    HW244352   2.581  14.706  10.111
47507SOL     OW44353   6.946   3.968   3.145
47507SOL    HW144354   6.863   3.925   3.123
47507SOL    HW244355   6.971   3.927   3.228
47508SOL     OW44356   0.847   0.840   2.149
47508SOL    HW144357   0.840   0.926   2.190
47508SOL    HW244358   0.938   0.833   2.122
47509SOL     OW44359   4.530   9.439   3.828
47509SOL    HW144360   4.526   9.529   3.796
47509SOL    HW244361   4.577   9.391   3.761
47510SOL     OW44362   7.254  14.198   0.508
47510SOL    HW144363   7.244  14.108   0.537
47510SOL    HW244364   7.348  14.207   0.488
47511SOL     OW44365   0.555  13.342   8.859
47511SOL    HW144366   0.492  13.357   8.788
47511SOL    HW244367   0.534  13.409   8.924
47512SOL     OW44368  13.140   8.600   0.780
47512SOL    HW144369  13.190   8.672   0.820
47512SOL    HW244370  13.204   8.553   0.727
47513SOL     OW44371  13.017   4.962   7.192
47513SOL    HW144372  12.975   4.876   7.186
47513SOL    HW244373  12.948   5.023   7.168
47514SOL     OW44374  13.250   1.953   6.081
47514SOL    HW144375  13.230   1.863   6.053
47514SOL    HW244376  13.345   1.959   6.074
47515SOL     OW44377  14.023  14.832   9.849
47515SOL    HW144378  14.108  14.841   9.807
47515SOL    HW244379  14.043  14.828   9.943
47516SOL     OW44380   3.702  13.209  14.763
47516SOL    HW144381   3.635  13.277  14.776
47516SOL    HW244382   3.655  13.137  14.721
47517SOL     OW44383   2.018  11.351   4.935
47517SOL    HW144384   1.927  11.353   4.966
47517SOL    HW244385   2.047  11.261   4.952
47518SOL     OW44386   7.470   2.939   7.490
47518SOL    HW144387   7.393   2.988   7.519
47518SOL    HW244388   7.446   2.905   7.404
47519SOL     OW44389   1.381   8.395   4.545
47519SOL    HW144390   1.319   8.413   4.474
47519SOL    HW244391   1.382   8.476   4.597
47520SOL     OW44392   8.495   2.214  10.958
47520SOL    HW144393   8.538   2.136  10.993
47520SOL    HW244394   8.551   2.243  10.886
47521SOL     OW44395  14.010  13.772   8.589
47521SOL    HW144396  14.020  13.757   8.683
47521SOL    HW244397  14.099  13.791   8.559
47522SOL     OW44398   8.782   5.049   4.615
47522SOL    HW144399   8.877   5.047   4.630
47522SOL    HW244400   8.746   5.086   4.695
47523SOL     OW44401   9.697   2.977  10.215
47523SOL    HW144402   9.614   3.023  10.222
47523SOL    HW244403   9.697   2.940  10.126
47524SOL     OW44404  13.148   0.597   7.667
47524SOL    HW144405  13.082   0.622   7.601
47524SOL    HW244406  13.227   0.644   7.640
47525SOL     OW44407  11.517   4.298   7.165
47525SOL    HW144408  11.574   4.225   7.141
47525SOL    HW244409  11.568   4.348   7.229
47526SOL     OW44410  13.514   9.056   8.885
47526SOL    HW144411  13.448   8.988   8.900
47526SOL    HW244412  13.486   9.130   8.939
47527SOL     OW44413  10.434   9.491  14.167
47527SOL    HW144414  10.401   9.552  14.101
47527SOL    HW244415  10.510   9.535  14.205
47528SOL     OW44416   2.567  13.617  10.322
47528SOL    HW144417   2.650  13.572  10.335
47528SOL    HW244418   2.581  13.671  10.244
47529SOL     OW44419   2.454   6.290   1.531
47529SOL    HW144420   2.403   6.242   1.596
47529SOL    HW244421   2.545   6.276   1.558
47530SOL     OW44422   0.713   4.627   8.504
47530SOL    HW144423   0.784   4.595   8.560
47530SOL    HW244424   0.668   4.548   8.475
47531SOL     OW44425   0.043   2.585   2.376
47531SOL    HW144426   0.001   2.544   2.451
47531SOL    HW244427  14.868   2.667   2.363
47532SOL     OW44428   6.435   2.594   6.776
47532SOL    HW144429   6.458   2.540   6.700
47532SOL    HW244430   6.343   2.617   6.762
47533SOL     OW44431   1.778   6.382   6.059
47533SOL    HW144432   1.818   6.319   5.999
47533SOL    HW244433   1.686   6.357   6.063
47534SOL     OW44434  12.644  13.945  14.852
47534SOL    HW144435  12.706  13.872  14.854
47534SOL    HW244436  12.561  13.907   0.009
47535SOL     OW44437  14.535   4.308  12.537
47535SOL    HW144438  14.586   4.381  12.574
47535SOL    HW244439  14.461   4.299  12.598
47536SOL     OW44440   9.920   3.685   3.960
47536SOL    HW144441   9.871   3.646   3.887
47536SOL    HW244442   9.939   3.611   4.018
47537SOL     OW44443   4.918   0.032   2.908
47537SOL    HW144444   4.900  14.849   2.983
47537SOL    HW244445   5.012   0.049   2.912
47538SOL     OW44446   7.864  13.955  13.205
47538SOL    HW144447   7.885  13.873  13.159
47538SOL    HW244448   7.917  13.952  13.284
47539SOL     OW44449  12.951  12.196   0.922
47539SOL    HW144450  12.927  12.277   0.876
47539SOL    HW244451  12.925  12.212   1.013
47540SOL     OW44452   7.234  11.234   6.181
47540SOL    HW144453   7.247  11.307   6.242
47540SOL    HW244454   7.267  11.267   6.097
47541SOL     OW44455   0.829   5.189   6.566
47541SOL    HW144456   0.847   5.098   6.590
47541SOL    HW244457   0.773   5.182   6.488
47542SOL     OW44458   0.897   3.651   1.080
47542SOL    HW144459   0.828   3.632   1.144
47542SOL    HW244460   0.943   3.727   1.116
47543SOL     OW44461  13.542   3.393   0.289
47543SOL    HW144462  13.460   3.352   0.319
47543SOL    HW244463  13.514   3.474   0.248
47544SOL     OW44464   0.216   1.979   2.426
47544SOL    HW144465   0.309   1.991   2.407
47544SOL    HW244466   0.176   2.064   2.408
47545SOL     OW44467  11.685  10.224   4.855
47545SOL    HW144468  11.625  10.173   4.801
47545SOL    HW244469  11.652  10.215   4.944
47546SOL     OW44470   3.240   5.785  14.101
47546SOL    HW144471   3.193   5.816  14.179
47546SOL    HW244472   3.200   5.834  14.029
47547SOL     OW44473   7.651  10.947   4.262
47547SOL    HW144474   7.591  10.873   4.262
47547SOL    HW244475   7.738  10.908   4.250
47548SOL     OW44476  11.809  10.308  11.463
47548SOL    HW144477  11.827  10.399  11.487
47548SOL    HW244478  11.809  10.308  11.367
47549SOL     OW44479   7.335   0.174   8.573
47549SOL    HW144480   7.380   0.258   8.577
47549SOL    HW244481   7.396   0.112   8.614
47550SOL     OW44482  13.438   3.674   1.212
47550SOL    HW144483  13.425   3.635   1.299
47550SOL    HW244484  13.522   3.719   1.218
47551SOL     OW44485   9.734  10.261   2.987
47551SOL    HW144486   9.665  10.200   2.962
47551SOL    HW244487   9.704  10.346   2.955
47552SOL     OW44488  12.334   7.939   9.967
47552SOL    HW144489  12.290   7.885   9.901
47552SOL    HW244490  12.426   7.916   9.960
47553SOL     OW44491   3.606   9.423   1.916
47553SOL    HW144492   3.568   9.341   1.947
47553SOL    HW244493   3.660   9.453   1.989
47554SOL     OW44494   3.266   1.070   5.307
47554SOL    HW144495   3.294   1.091   5.217
47554SOL    HW244496   3.287   1.149   5.357
47555SOL     OW44497  12.950   1.875  11.696
47555SOL    HW144498  13.016   1.813  11.666
47555SOL    HW244499  12.999   1.940  11.746
47556SOL     OW44500   2.977  14.715   1.881
47556SOL    HW144501   2.988  14.644   1.817
47556SOL    HW244502   3.023  14.790   1.841
47557SOL     OW44503   0.553   4.159  13.513
47557SOL    HW144504   0.588   4.153  13.601
47557SOL    HW244505   0.520   4.248  13.506
47558SOL     OW44506  10.055  13.595   0.722
47558SOL    HW144507  10.094  13.639   0.798
47558SOL    HW244508   9.961  13.600   0.736
47559SOL     OW44509   8.450   1.941   4.269
47559SOL    HW144510   8.395   1.863   4.269
47559SOL    HW244511   8.507   1.931   4.192
47560SOL     OW44512   1.748  12.165   8.196
47560SOL    HW144513   1.784  12.211   8.272
47560SOL    HW244514   1.658  12.197   8.188
47561SOL     OW44515   8.989   1.391   0.543
47561SOL    HW144516   8.962   1.482   0.528
47561SOL    HW244517   9.058   1.375   0.479
47562SOL     OW44518  12.256   8.706   6.462
47562SOL    HW144519  12.333   8.655   6.435
47562SOL    HW244520  12.288   8.761   6.534
47563SOL     OW44521   0.715   0.692   9.641
47563SOL    HW144522   0.757   0.765   9.596
47563SOL    HW244523   0.648   0.662   9.580
47564SOL     OW44524  10.179   8.977   1.794
47564SOL    HW144525  10.241   8.912   1.760
47564SOL    HW244526  10.222   9.013   1.872
47565SOL     OW44527   0.116   4.946   2.557
47565SOL    HW144528   0.160   4.902   2.629
47565SOL    HW244529   0.170   4.926   2.480
47566SOL     OW44530   0.657  13.212   6.658
47566SOL    HW144531   0.722  13.175   6.598
47566SOL    HW244532   0.690  13.299   6.679
47567SOL     OW44533   4.180   7.058   9.314
47567SOL    HW144534   4.203   6.965   9.304
47567SOL    HW244535   4.085   7.060   9.305
47568SOL     OW44536   5.597  12.925  12.113
47568SOL    HW144537   5.676  12.907  12.063
47568SOL    HW244538   5.626  12.929  12.204
47569SOL     OW44539   6.712   1.588   4.151
47569SOL    HW144540   6.688   1.500   4.177
47569SOL    HW244541   6.683   1.595   4.060
47570SOL     OW44542   5.022   0.517   0.998
47570SOL    HW144543   4.955   0.573   1.039
47570SOL    HW244544   5.013   0.432   1.041
47571SOL     OW44545  11.216   2.859  13.999
47571SOL    HW144546  11.200   2.952  14.017
47571SOL    HW244547  11.129   2.821  13.993
47572SOL     OW44548   1.417  13.140   0.435
47572SOL    HW144549   1.450  13.050   0.439
47572SOL    HW244550   1.494  13.194   0.456
47573SOL     OW44551  12.687   5.636   7.438
47573SOL    HW144552  12.599   5.600   7.427
47573SOL    HW244553  12.721   5.592   7.516
47574SOL     OW44554   4.807   9.293   9.765
47574SOL    HW144555   4.865   9.219   9.746
47574SOL    HW244556   4.745   9.259   9.829
47575SOL     OW44557  10.411   5.290   4.985
47575SOL    HW144558  10.336   5.350   4.985
47575SOL    HW244559  10.486   5.346   4.961
47576SOL     OW44560   7.818  12.792  10.854
47576SOL    HW144561   7.777  12.856  10.796
47576SOL    HW244562   7.891  12.840  10.894
47577SOL     OW44563  10.598   3.592   4.625
47577SOL    HW144564  10.555   3.644   4.693
47577SOL    HW244565  10.644   3.524   4.673
47578SOL     OW44566  11.617   7.662   1.664
47578SOL    HW144567  11.658   7.746   1.686
47578SOL    HW244568  11.588   7.628   1.748
47579SOL     OW44569   3.980   5.281   9.649
47579SOL    HW144570   3.981   5.210   9.585
47579SOL    HW244571   4.071   5.310   9.655
47580SOL     OW44572  14.312   0.519   8.862
47580SOL    HW144573  14.332   0.513   8.956
47580SOL    HW244574  14.229   0.566   8.859
47581SOL     OW44575  11.556   6.343  11.132
47581SOL    HW144576  11.473   6.300  11.154
47581SOL    HW244577  11.537   6.394  11.054
47582SOL     OW44578   2.978  13.785   8.936
47582SOL    HW144579   2.978  13.720   9.007
47582SOL    HW244580   2.926  13.858   8.970
47583SOL     OW44581   7.602   7.576   3.775
47583SOL    HW144582   7.511   7.545   3.779
47583SOL    HW244583   7.633   7.572   3.866
47584SOL     OW44584   8.444   5.967   0.645
47584SOL    HW144585   8.522   5.935   0.691
47584SOL    HW244586   8.402   5.889   0.610
47585SOL     OW44587  11.906  13.716   1.002
47585SOL    HW144588  11.913  13.737   0.909
47585SOL    HW244589  11.815  13.689   1.013
47586SOL     OW44590  12.731  12.488   7.879
47586SOL    HW144591  12.745  12.429   7.954
47586SOL    HW244592  12.711  12.429   7.806
47587SOL     OW44593   0.570   3.268   3.811
47587SOL    HW144594   0.513   3.324   3.758
47587SOL    HW244595   0.511   3.201   3.846
47588SOL     OW44596   1.435   6.268  11.486
47588SOL    HW144597   1.479   6.209  11.424
47588SOL    HW244598   1.383   6.326  11.431
47589SOL     OW44599  12.829   9.702   1.092
47589SOL    HW144600  12.883   9.704   1.013
47589SOL    HW244601  12.880   9.751   1.157
47590SOL     OW44602   3.270   6.640  14.694
47590SOL    HW144603   3.260   6.670  14.604
47590SOL    HW244604   3.231   6.552  14.694
47591SOL     OW44605   5.590  13.305  11.121
47591SOL    HW144606   5.602  13.308  11.216
47591SOL    HW244607   5.496  13.319  11.108
47592SOL     OW44608   7.949  13.834   1.351
47592SOL    HW144609   7.972  13.742   1.338
47592SOL    HW244610   7.970  13.851   1.444
47593SOL     OW44611   5.336   0.467  11.832
47593SOL    HW144612   5.351   0.376  11.804
47593SOL    HW244613   5.415   0.490  11.881
47594SOL     OW44614   4.718   4.387   2.016
47594SOL    HW144615   4.745   4.339   2.094
47594SOL    HW244616   4.772   4.351   1.946
47595SOL     OW44617   9.643   1.662  14.232
47595SOL    HW144618   9.704   1.654  14.158
47595SOL    HW244619   9.697   1.697  14.303
47596SOL     OW44620   7.705   4.602  12.002
47596SOL    HW144621   7.741   4.567  11.920
47596SOL    HW244622   7.745   4.689  12.010
47597SOL     OW44623   5.353   3.998   5.923
47597SOL    HW144624   5.330   4.090   5.928
47597SOL    HW244625   5.307   3.957   5.996
47598SOL     OW44626   6.949   1.541   4.896
47598SOL    HW144627   7.019   1.514   4.955
47598SOL    HW244628   6.899   1.461   4.879
47599SOL     OW44629  12.541   7.242  12.530
47599SOL    HW144630  12.603   7.289  12.474
47599SOL    HW244631  12.560   7.275  12.618
47600SOL     OW44632   4.920   0.090   0.672
47600SOL    HW144633   4.920   0.087   0.577
47600SOL    HW244634   4.950   0.178   0.694
47601SOL     OW44635   2.511   5.839  11.737
47601SOL    HW144636   2.505   5.934  11.731
47601SOL    HW244637   2.505   5.820  11.830
47602SOL     OW44638  13.762   3.855  13.930
47602SOL    HW144639  13.783   3.765  13.955
47602SOL    HW244640  13.776   3.906  14.010
47603SOL     OW44641   6.175   1.104   9.939
47603SOL    HW144642   6.178   1.042   9.867
47603SOL    HW244643   6.083   1.129   9.947
47604SOL     OW44644  11.813   2.797  11.214
47604SOL    HW144645  11.768   2.779  11.297
47604SOL    HW244646  11.744   2.829  11.156
47605SOL     OW44647  11.863   6.225  12.227
47605SOL    HW144648  11.772   6.204  12.245
47605SOL    HW244649  11.909   6.142  12.239
47606SOL     OW44650  12.365   5.289   7.777
47606SOL    HW144651  12.424   5.360   7.750
47606SOL    HW244652  12.277   5.326   7.767
47607SOL     OW44653   1.580   3.354  14.325
47607SOL    HW144654   1.569   3.301  14.404
47607SOL    HW244655   1.629   3.298  14.265
47608SOL     OW44656  13.378   0.751   4.774
47608SOL    HW144657  13.395   0.821   4.711
47608SOL    HW244658  13.460   0.742   4.823
47609SOL     OW44659  11.209   4.030   1.392
47609SOL    HW144660  11.136   4.064   1.341
47609SOL    HW244661  11.279   4.018   1.328
47610SOL     OW44662   3.319   5.439  12.177
47610SOL    HW144663   3.345   5.521  12.135
47610SOL    HW244664   3.224   5.446  12.187
47611SOL     OW44665   3.721   6.109   4.024
47611SOL    HW144666   3.762   6.152   4.099
47611SOL    HW244667   3.627   6.120   4.038
47612SOL     OW44668  14.507   3.697   5.533
47612SOL    HW144669  14.443   3.768   5.529
47612SOL    HW244670  14.514   3.665   5.443
47613SOL     OW44671  13.808  10.032   2.928
47613SOL    HW144672  13.839  10.066   3.011
47613SOL    HW244673  13.867   9.959   2.908
47614SOL     OW44674   9.054   3.527   8.447
47614SOL    HW144675   9.132   3.519   8.503
47614SOL    HW244676   9.021   3.615   8.465
47615SOL     OW44677   2.114   7.394   2.027
47615SOL    HW144678   2.095   7.442   2.107
47615SOL    HW244679   2.196   7.348   2.046
47616SOL     OW44680   4.507   3.967   1.882
47616SOL    HW144681   4.454   3.996   1.807
47616SOL    HW244682   4.454   3.900   1.924
47617SOL     OW44683   5.569  10.492  13.935
47617SOL    HW144684   5.577  10.399  13.912
47617SOL    HW244685   5.580  10.537  13.851
47618SOL     OW44686   0.004   6.489  10.499
47618SOL    HW144687   0.031   6.513  10.588
47618SOL    HW244688   0.084   6.456  10.458
47619SOL     OW44689   4.370   1.892   4.636
47619SOL    HW144690   4.365   1.987   4.629
47619SOL    HW244691   4.364   1.860   4.546
47620SOL     OW44692   7.971  10.306   4.844
47620SOL    HW144693   7.999  10.396   4.827
47620SOL    HW244694   8.007  10.255   4.771
47621SOL     OW44695  13.060   7.356   5.322
47621SOL    HW144696  13.089   7.420   5.257
47621SOL    HW244697  12.978   7.322   5.287
47622SOL     OW44698  12.305   9.256   5.366
47622SOL    HW144699  12.324   9.239   5.274
47622SOL    HW244700  12.308   9.169   5.407
47623SOL     OW44701   6.002  13.181   9.009
47623SOL    HW144702   6.051  13.099   8.998
47623SOL    HW244703   6.070  13.245   9.030
47624SOL     OW44704   4.042  12.638   1.790
47624SOL    HW144705   4.041  12.548   1.757
47624SOL    HW244706   4.133  12.653   1.817
47625SOL     OW44707   7.333   0.881  11.729
47625SOL    HW144708   7.264   0.851  11.789
47625SOL    HW244709   7.320   0.976  11.724
47626SOL     OW44710   9.848  12.390   5.126
47626SOL    HW144711   9.890  12.323   5.180
47626SOL    HW244712   9.838  12.349   5.040
47627SOL     OW44713  10.390   2.881  14.184
47627SOL    HW144714  10.374   2.844  14.097
47627SOL    HW244715  10.413   2.806  14.238
47628SOL     OW44716  10.978  13.232   7.921
47628SOL    HW144717  10.899  13.285   7.915
47628SOL    HW244718  11.044  13.290   7.959
47629SOL     OW44719  11.290  11.549   4.820
47629SOL    HW144720  11.268  11.642   4.824
47629SOL    HW244721  11.306  11.532   4.727
47630SOL     OW44722  12.344   9.747   0.897
47630SOL    HW144723  12.375   9.752   0.807
47630SOL    HW244724  12.423   9.757   0.950
47631SOL     OW44725   3.777   2.199   1.425
47631SOL    HW144726   3.682   2.194   1.422
47631SOL    HW244727   3.805   2.174   1.336
47632SOL     OW44728   8.009   2.438   5.044
47632SOL    HW144729   7.925   2.400   5.072
47632SOL    HW244730   8.050   2.467   5.126
47633SOL     OW44731   5.756   8.629   0.167
47633SOL    HW144732   5.805   8.711   0.161
47633SOL    HW244733   5.703   8.638   0.246
47634SOL     OW44734   5.306   9.162   7.656
47634SOL    HW144735   5.396   9.182   7.683
47634SOL    HW244736   5.251   9.211   7.717
47635SOL     OW44737  13.338   6.866  11.867
47635SOL    HW144738  13.290   6.835  11.943
47635SOL    HW244739  13.366   6.787  11.822
47636SOL     OW44740   9.060   9.860   1.148
47636SOL    HW144741   8.997   9.912   1.198
47636SOL    HW244742   9.111   9.925   1.099
47637SOL     OW44743   9.388   4.721   4.249
47637SOL    HW144744   9.314   4.688   4.198
47637SOL    HW244745   9.391   4.815   4.228
47638SOL     OW44746   8.472   4.122   2.001
47638SOL    HW144747   8.468   4.214   2.027
47638SOL    HW244748   8.552   4.116   1.949
47639SOL     OW44749   7.716   4.492   3.472
47639SOL    HW144750   7.764   4.562   3.516
47639SOL    HW244751   7.779   4.454   3.411
47640SOL     OW44752  11.474  12.524   3.757
47640SOL    HW144753  11.536  12.539   3.686
47640SOL    HW244754  11.481  12.603   3.811
47641SOL     OW44755  10.630  11.987   9.302
47641SOL    HW144756  10.618  12.082   9.306
47641SOL    HW244757  10.544  11.952   9.280
47642SOL     OW44758   6.644  14.381  12.691
47642SOL    HW144759   6.644  14.297  12.739
47642SOL    HW244760   6.602  14.361  12.608
47643SOL     OW44761  10.373   4.765   5.649
47643SOL    HW144762  10.418   4.814   5.581
47643SOL    HW244763  10.285   4.803   5.652
47644SOL     OW44764   4.713   6.968  14.379
47644SOL    HW144765   4.630   6.932  14.411
47644SOL    HW244766   4.689   7.023  14.305
47645SOL     OW44767   3.120  10.982   5.799
47645SOL    HW144768   3.082  10.895   5.794
47645SOL    HW244769   3.206  10.973   5.756
47646SOL     OW44770  13.958   8.066  10.628
47646SOL    HW144771  13.869   8.095  10.645
47646SOL    HW244772  13.949   8.002  10.557
47647SOL     OW44773   7.084  12.229   0.649
47647SOL    HW144774   7.049  12.298   0.593
47647SOL    HW244775   7.168  12.206   0.609
47648SOL     OW44776   1.370   8.864   8.105
47648SOL    HW144777   1.348   8.772   8.120
47648SOL    HW244778   1.388   8.869   8.011
47649SOL     OW44779   8.068  10.052  10.250
47649SOL    HW144780   8.033  10.048  10.161
47649SOL    HW244781   8.096   9.963  10.269
47650SOL     OW44782   5.704   9.570   7.673
47650SOL    HW144783   5.649   9.648   7.672
47650SOL    HW244784   5.771   9.588   7.606
47651SOL     OW44785   0.338  11.144   5.562
47651SOL    HW144786   0.260  11.097   5.535
47651SOL    HW244787   0.411  11.087   5.538
47652SOL     OW44788   3.454   7.629   0.665
47652SOL    HW144789   3.522   7.590   0.720
47652SOL    HW244790   3.388   7.560   0.656
47653SOL     OW44791   5.078  13.979   9.602
47653SOL    HW144792   5.110  13.917   9.668
47653SOL    HW244793   5.139  13.971   9.530
47654SOL     OW44794   0.690   1.180   1.115
47654SOL    HW144795   0.662   1.263   1.155
47654SOL    HW244796   0.785   1.180   1.125
47655SOL     OW44797  14.268   5.116  11.431
47655SOL    HW144798  14.265   5.211  11.425
47655SOL    HW244799  14.345   5.091  11.380
47656SOL     OW44800  11.978  10.510   4.299
47656SOL    HW144801  12.044  10.516   4.368
47656SOL    HW244802  11.996  10.583   4.241
47657SOL     OW44803   2.443   4.997   3.124
47657SOL    HW144804   2.434   4.923   3.184
47657SOL    HW244805   2.533   4.991   3.091
47658SOL     OW44806   8.743   7.919  11.178
47658SOL    HW144807   8.687   7.953  11.108
47658SOL    HW244808   8.804   7.860  11.133
47659SOL     OW44809   9.627   5.847  13.517
47659SOL    HW144810   9.647   5.768  13.567
47659SOL    HW244811   9.534   5.840  13.496
47660SOL     OW44812   4.852   8.251   0.011
47660SOL    HW144813   4.926   8.287   0.061
47660SOL    HW244814   4.836   8.317  14.816
47661SOL     OW44815   6.213  12.537   9.076
47661SOL    HW144816   6.289  12.586   9.105
47661SOL    HW244817   6.148  12.549   9.145
47662SOL     OW44818   5.553   0.617   5.422
47662SOL    HW144819   5.540   0.682   5.353
47662SOL    HW244820   5.646   0.624   5.445
47663SOL     OW44821   9.773   1.408   7.967
47663SOL    HW144822   9.744   1.323   8.001
47663SOL    HW244823   9.817   1.387   7.885
47664SOL     OW44824  14.128   6.034   6.811
47664SOL    HW144825  14.204   6.005   6.860
47664SOL    HW244826  14.111   5.963   6.749
47665SOL     OW44827   0.564  11.936   5.834
47665SOL    HW144828   0.560  11.846   5.867
47665SOL    HW244829   0.477  11.953   5.799
47666SOL     OW44830   4.195  12.903   1.027
47666SOL    HW144831   4.272  12.932   1.077
47666SOL    HW244832   4.164  12.825   1.073
47667SOL     OW44833   4.792   5.382   0.167
47667SOL    HW144834   4.771   5.364   0.258
47667SOL    HW244835   4.723   5.337   0.117
47668SOL     OW44836  11.171  12.520   9.040
47668SOL    HW144837  11.210  12.440   9.073
47668SOL    HW244838  11.093  12.491   8.992
47669SOL     OW44839  11.164   0.977  14.379
47669SOL    HW144840  11.224   0.963  14.306
47669SOL    HW244841  11.173   1.070  14.401
47670SOL     OW44842   5.890   6.542  12.913
47670SOL    HW144843   5.809   6.566  12.960
47670SOL    HW244844   5.859   6.500  12.833
47671SOL     OW44845   8.982   6.348  10.831
47671SOL    HW144846   8.992   6.254  10.842
47671SOL    HW244847   8.888   6.363  10.840
47672SOL     OW44848  12.429   0.086  12.379
47672SOL    HW144849  12.519   0.113  12.357
47672SOL    HW244850  12.425  14.867  12.352
47673SOL     OW44851   4.302   2.827   2.803
47673SOL    HW144852   4.393   2.830   2.832
47673SOL    HW244853   4.260   2.765   2.863
47674SOL     OW44854   1.736   4.039   3.654
47674SOL    HW144855   1.683   4.091   3.594
47674SOL    HW244856   1.742   4.092   3.733
47675SOL     OW44857  14.044   6.656  10.633
47675SOL    HW144858  14.092   6.658  10.549
47675SOL    HW244859  14.067   6.571  10.670
47676SOL     OW44860  14.253  11.190  13.805
47676SOL    HW144861  14.258  11.204  13.711
47676SOL    HW244862  14.219  11.101  13.815
47677SOL     OW44863   9.313   8.127  12.598
47677SOL    HW144864   9.340   8.195  12.660
47677SOL    HW244865   9.391   8.113  12.544
47678SOL     OW44866  12.877   7.402  13.274
47678SOL    HW144867  12.849   7.474  13.219
47678SOL    HW244868  12.973   7.405  13.271
47679SOL     OW44869   1.877   5.192   9.362
47679SOL    HW144870   1.929   5.198   9.282
47679SOL    HW244871   1.825   5.273   9.364
47680SOL     OW44872  14.839   1.578  10.043
47680SOL    HW144873  14.865   1.658   9.998
47680SOL    HW244874   0.048   1.539  10.072
47681SOL     OW44875  13.467   9.365  13.698
47681SOL    HW144876  13.408   9.394  13.629
47681SOL    HW244877  13.552   9.402  13.675
47682SOL     OW44878   0.285   5.086   7.877
47682SOL    HW144879   0.292   5.181   7.876
47682SOL    HW244880   0.247   5.064   7.792
47683SOL     OW44881  14.163  13.082   0.628
47683SOL    HW144882  14.207  13.015   0.680
47683SOL    HW244883  14.090  13.111   0.682
47684SOL     OW44884  14.771   3.472   9.402
47684SOL    HW144885  14.726   3.387   9.405
47684SOL    HW244886  14.864   3.450   9.406
47685SOL     OW44887   9.980  13.238  10.300
47685SOL    HW144888  10.038  13.164  10.317
47685SOL    HW244889   9.979  13.246  10.205
47686SOL     OW44890   1.606  12.261  13.683
47686SOL    HW144891   1.681  12.247  13.740
47686SOL    HW244892   1.643  12.263  13.595
47687SOL     OW44893   9.332   7.302  14.564
47687SOL    HW144894   9.244   7.325  14.533
47687SOL    HW244895   9.369   7.385  14.595
47688SOL     OW44896   3.201  12.459  10.801
47688SOL    HW144897   3.119  12.467  10.751
47688SOL    HW244898   3.233  12.549  10.808
47689SOL     OW44899  14.444   1.137   5.103
47689SOL    HW144900  14.398   1.079   5.043
47689SOL    HW244901  14.510   1.180   5.049
47690SOL     OW44902   2.032  14.092   0.732
47690SOL    HW144903   2.101  14.138   0.780
47690SOL    HW244904   1.966  14.073   0.798
47691SOL     OW44905   9.204  12.579   0.630
47691SOL    HW144906   9.261  12.655   0.632
47691SOL    HW244907   9.155  12.582   0.713
47692SOL     OW44908   7.811   0.350  10.819
47692SOL    HW144909   7.867   0.357  10.896
47692SOL    HW244910   7.863   0.302  10.755
47693SOL     OW44911   3.921   1.671   4.639
47693SOL    HW144912   3.946   1.722   4.716
47693SOL    HW244913   3.946   1.726   4.565
47694SOL     OW44914   3.903   0.426   2.986
47694SOL    HW144915   3.931   0.354   2.929
47694SOL    HW244916   3.899   0.387   3.074
47695SOL     OW44917  13.602   1.487  11.403
47695SOL    HW144918  13.605   1.513  11.311
47695SOL    HW244919  13.666   1.416  11.410
47696SOL     OW44920   7.885  11.261   9.222
47696SOL    HW144921   7.946  11.205   9.270
47696SOL    HW244922   7.799  11.240   9.261
47697SOL     OW44923   2.783   2.406   2.688
47697SOL    HW144924   2.868   2.444   2.667
47697SOL    HW244925   2.732   2.478   2.723
47698SOL     OW44926   2.286  10.483  14.450
47698SOL    HW144927   2.261  10.432  14.526
47698SOL    HW244928   2.368  10.444  14.420
47699SOL     OW44929   2.839  14.500   5.315
47699SOL    HW144930   2.822  14.565   5.248
47699SOL    HW244931   2.802  14.537   5.395
47700SOL     OW44932   3.963   3.069   1.638
47700SOL    HW144933   3.908   3.138   1.601
47700SOL    HW244934   3.967   3.002   1.569
47701SOL     OW44935   6.834   1.785  11.915
47701SOL    HW144936   6.916   1.833  11.903
47701SOL    HW244937   6.812   1.753  11.827
47702SOL     OW44938   6.061   9.219   3.677
47702SOL    HW144939   6.091   9.298   3.632
47702SOL    HW244940   6.137   9.161   3.679
47703SOL     OW44941   5.910   1.110   9.537
47703SOL    HW144942   5.939   1.191   9.579
47703SOL    HW244943   5.926   1.124   9.443
47704SOL     OW44944   2.633   0.051   3.582
47704SOL    HW144945   2.692   0.108   3.533
47704SOL    HW244946   2.656   0.064   3.674
47705SOL     OW44947   9.186  14.032  13.825
47705SOL    HW144948   9.199  14.115  13.871
47705SOL    HW244949   9.122  14.053  13.757
47706SOL     OW44950  11.801   4.286   1.626
47706SOL    HW144951  11.785   4.238   1.707
47706SOL    HW244952  11.714   4.305   1.591
47707SOL     OW44953   5.148  14.749   0.327
47707SOL    HW144954   5.200  14.715   0.400
47707SOL    HW244955   5.189  14.832   0.305
47708SOL     OW44956   1.605  13.378   3.321
47708SOL    HW144957   1.592  13.283   3.320
47708SOL    HW244958   1.581  13.406   3.232
47709SOL     OW44959   9.799   9.270   5.513
47709SOL    HW144960   9.831   9.300   5.428
47709SOL    HW244961   9.866   9.297   5.575
47710SOL     OW44962   9.351  10.825  13.658
47710SOL    HW144963   9.339  10.736  13.690
47710SOL    HW244964   9.446  10.840  13.664
47711SOL     OW44965  12.482   2.110  12.241
47711SOL    HW144966  12.439   2.161  12.309
47711SOL    HW244967  12.521   2.175  12.182
47712SOL     OW44968   9.953   4.385   9.297
47712SOL    HW144969   9.943   4.290   9.305
47712SOL    HW244970   9.872   4.420   9.334
47713SOL     OW44971   4.322  14.129   3.558
47713SOL    HW144972   4.230  14.155   3.551
47713SOL    HW244973   4.320  14.033   3.554
47714SOL     OW44974   8.845   1.095  10.222
47714SOL    HW144975   8.793   1.063  10.148
47714SOL    HW244976   8.903   1.162  10.184
47715SOL     OW44977  13.270  14.046   9.910
47715SOL    HW144978  13.261  13.962   9.956
47715SOL    HW244979  13.244  14.111   9.974
47716SOL     OW44980   4.479  11.416   8.870
47716SOL    HW144981   4.465  11.507   8.841
47716SOL    HW244982   4.521  11.374   8.795
47717SOL     OW44983   5.407   6.901  12.255
47717SOL    HW144984   5.401   6.863  12.167
47717SOL    HW244985   5.472   6.971  12.247
47718SOL     OW44986   7.578  12.254   5.152
47718SOL    HW144987   7.544  12.270   5.064
47718SOL    HW244988   7.579  12.159   5.161
47719SOL     OW44989   5.597  13.593  12.967
47719SOL    HW144990   5.538  13.578  13.041
47719SOL    HW244991   5.644  13.510  12.957
47720SOL     OW44992   8.056   5.315   5.465
47720SOL    HW144993   7.971   5.321   5.423
47720SOL    HW244994   8.102   5.245   5.419
47721SOL     OW44995   5.132  12.438   1.092
47721SOL    HW144996   5.131  12.508   1.157
47721SOL    HW244997   5.068  12.464   1.026
47722SOL     OW44998   2.396  13.552  13.892
47722SOL    HW144999   2.374  13.514  13.807
47722SOL    HW245000   2.437  13.481  13.941
47723SOL     OW45001   6.738   5.604  10.530
47723SOL    HW145002   6.779   5.654  10.460
47723SOL    HW245003   6.725   5.517  10.494
47724SOL     OW45004   8.577   5.864  10.614
47724SOL    HW145005   8.624   5.786  10.585
47724SOL    HW245006   8.514   5.882  10.544
47725SOL     OW45007   8.234  13.267  12.032
47725SOL    HW145008   8.165  13.298  12.091
47725SOL    HW245009   8.204  13.182  12.002
47726SOL     OW45010   9.684  12.712   0.921
47726SOL    HW145011   9.676  12.740   0.830
47726SOL    HW245012   9.731  12.783   0.965
47727SOL     OW45013  10.509  14.600  11.181
47727SOL    HW145014  10.566  14.664  11.225
47727SOL    HW245015  10.436  14.651  11.148
47728SOL     OW45016   6.267  11.119   8.336
47728SOL    HW145017   6.300  11.165   8.259
47728SOL    HW245018   6.230  11.037   8.303
47729SOL     OW45019  14.702   5.989   3.301
47729SOL    HW145020  14.674   6.079   3.285
47729SOL    HW245021  14.629   5.935   3.269
47730SOL     OW45022   2.615   6.471   8.697
47730SOL    HW145023   2.699   6.477   8.742
47730SOL    HW245024   2.602   6.378   8.682
47731SOL     OW45025   7.543   1.235   0.504
47731SOL    HW145026   7.523   1.314   0.554
47731SOL    HW245027   7.636   1.221   0.518
47732SOL     OW45028   5.533   1.193   1.754
47732SOL    HW145029   5.586   1.265   1.720
47732SOL    HW245030   5.535   1.203   1.849
47733SOL     OW45031   0.035  11.887   5.691
47733SOL    HW145032   0.115  11.889   5.638
47733SOL    HW245033   0.066  11.902   5.780
47734SOL     OW45034   3.102   3.653   0.192
47734SOL    HW145035   3.093   3.746   0.175
47734SOL    HW245036   3.190   3.631   0.160
47735SOL     OW45037   3.845   6.034   4.612
47735SOL    HW145038   3.850   6.103   4.677
47735SOL    HW245039   3.751   6.026   4.593
47736SOL     OW45040   5.698   2.544  11.857
47736SOL    HW145041   5.782   2.514  11.892
47736SOL    HW245042   5.685   2.630  11.898
47737SOL     OW45043   3.772  14.498   3.538
47737SOL    HW145044   3.740  14.410   3.556
47737SOL    HW245045   3.809  14.492   3.450
47738SOL     OW45046  12.820   0.166   7.390
47738SOL    HW145047  12.876   0.122   7.326
47738SOL    HW245048  12.881   0.202   7.454
47739SOL     OW45049   2.133   2.184  10.841
47739SOL    HW145050   2.124   2.265  10.891
47739SOL    HW245051   2.112   2.115  10.904
47740SOL     OW45052   1.971   5.128   4.057
47740SOL    HW145053   1.950   5.221   4.055
47740SOL    HW245054   1.995   5.111   4.149
47741SOL     OW45055  14.622   8.091   8.691
47741SOL    HW145056  14.609   8.186   8.698
47741SOL    HW245057  14.716   8.081   8.681
47742SOL     OW45058   6.925  10.288   7.712
47742SOL    HW145059   6.895  10.256   7.797
47742SOL    HW245060   6.912  10.383   7.716
47743SOL     OW45061  13.927   3.947   2.725
47743SOL    HW145062  14.005   3.975   2.773
47743SOL    HW245063  13.873   3.903   2.790
47744SOL     OW45064   6.047  13.985   7.532
47744SOL    HW145065   5.991  13.918   7.571
47744SOL    HW245066   6.131  13.975   7.578
47745SOL     OW45067   8.208   0.514   6.869
47745SOL    HW145068   8.287   0.476   6.831
47745SOL    HW245069   8.139   0.499   6.804
47746SOL     OW45070   7.650   3.998  13.371
47746SOL    HW145071   7.558   4.003  13.345
47746SOL    HW245072   7.694   4.064  13.317
47747SOL     OW45073   4.375   8.045   2.867
47747SOL    HW145074   4.411   8.057   2.778
47747SOL    HW245075   4.452   8.025   2.921
47748SOL     OW45076  11.786   0.676   5.102
47748SOL    HW145077  11.825   0.601   5.057
47748SOL    HW245078  11.692   0.660   5.098
47749SOL     OW45079   2.705   5.345   1.087
47749SOL    HW145080   2.688   5.432   1.124
47749SOL    HW245081   2.791   5.353   1.047
47750SOL     OW45082   2.486   4.462   6.232
47750SOL    HW145083   2.478   4.440   6.325
47750SOL    HW245084   2.415   4.413   6.190
47751SOL     OW45085  12.579   1.968   8.434
47751SOL    HW145086  12.484   1.959   8.445
47751SOL    HW245087  12.616   1.922   8.509
47752SOL     OW45088  10.155   7.263   8.473
47752SOL    HW145089  10.163   7.357   8.458
47752SOL    HW245090  10.166   7.252   8.567
47753SOL     OW45091   4.884  13.438   8.898
47753SOL    HW145092   4.842  13.521   8.876
47753SOL    HW245093   4.895  13.393   8.814
47754SOL     OW45094   7.371  12.416   6.020
47754SOL    HW145095   7.463  12.391   6.019
47754SOL    HW245096   7.371  12.509   5.997
47755SOL     OW45097  13.901   9.751   8.634
47755SOL    HW145098  13.924   9.691   8.705
47755SOL    HW245099  13.850   9.697   8.573
47756SOL     OW45100  11.207  10.439  10.643
47756SOL    HW145101  11.149  10.378  10.690
47756SOL    HW245102  11.235  10.390  10.566
47757SOL     OW45103   4.950   6.295  11.563
47757SOL    HW145104   4.901   6.376  11.547
47757SOL    HW245105   5.040   6.315  11.537
47758SOL     OW45106   8.821  10.085   9.774
47758SOL    HW145107   8.835  10.087   9.679
47758SOL    HW245108   8.751  10.022   9.787
47759SOL     OW45109   8.378  12.864   6.128
47759SOL    HW145110   8.383  12.911   6.045
47759SOL    HW245111   8.426  12.782   6.112
47760SOL     OW45112  14.788  10.036   1.135
47760SOL    HW145113  14.740  10.086   1.202
47760SOL    HW245114  14.723   9.976   1.099
47761SOL     OW45115   1.526   3.940   5.321
47761SOL    HW145116   1.433   3.947   5.341
47761SOL    HW245117   1.545   4.017   5.268
47762SOL     OW45118   5.605   3.108   0.434
47762SOL    HW145119   5.570   3.104   0.346
47762SOL    HW245120   5.694   3.140   0.424
47763SOL     OW45121   3.003  10.756   0.786
47763SOL    HW145122   2.982  10.681   0.730
47763SOL    HW245123   3.003  10.719   0.875
47764SOL     OW45124   9.358  12.521   0.015
47764SOL    HW145125   9.443  12.550  14.856
47764SOL    HW245126   9.378  12.463   0.088
47765SOL     OW45127   3.564   2.158  11.715
47765SOL    HW145128   3.508   2.168  11.792
47765SOL    HW245129   3.514   2.199  11.644
47766SOL     OW45130   2.700   6.662   3.123
47766SOL    HW145131   2.614   6.629   3.149
47766SOL    HW245132   2.718   6.619   3.040
47767SOL     OW45133   3.920  14.729   6.482
47767SOL    HW145134   3.917  14.684   6.398
47767SOL    HW245135   3.845  14.694   6.530
47768SOL     OW45136   7.381   1.492   3.185
47768SOL    HW145137   7.392   1.398   3.168
47768SOL    HW245138   7.456   1.533   3.140
47769SOL     OW45139   8.971   9.159  12.450
47769SOL    HW145140   9.059   9.197  12.456
47769SOL    HW245141   8.980   9.085  12.391
47770SOL     OW45142   1.331  13.217   6.325
47770SOL    HW145143   1.423  13.220   6.302
47770SOL    HW245144   1.327  13.257   6.412
47771SOL     OW45145   5.856  12.628   0.941
47771SOL    HW145146   5.790  12.628   1.011
47771SOL    HW245147   5.892  12.539   0.943
47772SOL     OW45148  12.180   3.645   4.150
47772SOL    HW145149  12.193   3.591   4.227
47772SOL    HW245150  12.193   3.586   4.076
47773SOL     OW45151   8.576   3.447   4.781
47773SOL    HW145152   8.494   3.398   4.791
47773SOL    HW245153   8.615   3.446   4.868
47774SOL     OW45154  12.987   9.461   1.213
47774SOL    HW145155  12.928   9.535   1.205
47774SOL    HW245156  13.057   9.491   1.270
47775SOL     OW45157   0.517   0.097   1.499
47775SOL    HW145158   0.531   0.014   1.453
47775SOL    HW245159   0.538   0.077   1.590
47776SOL     OW45160   6.142  14.841   3.007
47776SOL    HW145161   6.158   0.061   3.022
47776SOL    HW245162   6.056  14.837   2.966
47777SOL     OW45163  13.643   0.417  10.698
47777SOL    HW145164  13.705   0.455  10.760
47777SOL    HW245165  13.650   0.472  10.620
47778SOL     OW45166  11.653   3.998   9.343
47778SOL    HW145167  11.679   4.089   9.359
47778SOL    HW245168  11.677   3.951   9.423
47779SOL     OW45169  10.896   1.209  13.354
47779SOL    HW145170  10.871   1.131  13.404
47779SOL    HW245171  10.850   1.199  13.271
47780SOL     OW45172   3.428  12.408  13.907
47780SOL    HW145173   3.454  12.370  13.991
47780SOL    HW245174   3.442  12.503  13.919
47781SOL     OW45175  13.511   5.027   4.400
47781SOL    HW145176  13.498   4.933   4.416
47781SOL    HW245177  13.557   5.030   4.316
47782SOL     OW45178   0.783  11.789  12.156
47782SOL    HW145179   0.708  11.846  12.177
47782SOL    HW245180   0.743  11.712  12.116
47783SOL     OW45181  13.409   2.828   9.073
47783SOL    HW145182  13.428   2.839   9.166
47783SOL    HW245183  13.449   2.904   9.031
47784SOL     OW45184   2.879   9.263   6.529
47784SOL    HW145185   2.860   9.171   6.548
47784SOL    HW245186   2.858   9.310   6.610
47785SOL     OW45187   4.677   5.319   9.500
47785SOL    HW145188   4.636   5.259   9.437
47785SOL    HW245189   4.624   5.311   9.579
47786SOL     OW45190   6.401   1.181   9.202
47786SOL    HW145191   6.471   1.147   9.257
47786SOL    HW245192   6.321   1.163   9.251
47787SOL     OW45193   9.454   4.147   9.083
47787SOL    HW145194   9.428   4.239   9.078
47787SOL    HW245195   9.375   4.098   9.063
47788SOL     OW45196   7.752   6.734  12.946
47788SOL    HW145197   7.827   6.674  12.945
47788SOL    HW245198   7.780   6.806  13.002
47789SOL     OW45199   4.272   6.459   0.857
47789SOL    HW145200   4.178   6.475   0.857
47789SOL    HW245201   4.281   6.371   0.820
47790SOL     OW45202   3.054  12.954   3.459
47790SOL    HW145203   3.020  12.957   3.369
47790SOL    HW245204   3.096  13.039   3.471
47791SOL     OW45205   8.318  11.429   2.880
47791SOL    HW145206   8.312  11.451   2.787
47791SOL    HW245207   8.235  11.459   2.917
47792SOL     OW45208  10.071   7.869   0.881
47792SOL    HW145209  10.076   7.954   0.923
47792SOL    HW245210  10.073   7.806   0.953
47793SOL     OW45211   0.601  10.634   9.091
47793SOL    HW145212   0.560  10.708   9.136
47793SOL    HW245213   0.647  10.586   9.160
47794SOL     OW45214   8.387  14.266   6.054
47794SOL    HW145215   8.373  14.272   6.148
47794SOL    HW245216   8.477  14.233   6.045
47795SOL     OW45217   2.499  13.615  12.985
47795SOL    HW145218   2.407  13.629  12.964
47795SOL    HW245219   2.539  13.702  12.975
47796SOL     OW45220   6.438   8.867   2.679
47796SOL    HW145221   6.344   8.852   2.683
47796SOL    HW245222   6.477   8.780   2.675
47797SOL     OW45223  13.043   5.324  10.046
47797SOL    HW145224  12.979   5.288  10.107
47797SOL    HW245225  13.016   5.415  10.033
47798SOL     OW45226   9.599  11.866   6.735
47798SOL    HW145227   9.694  11.869   6.725
47798SOL    HW245228   9.570  11.955   6.713
47799SOL     OW45229   1.224  12.952   3.117
47799SOL    HW145230   1.311  12.973   3.150
47799SOL    HW245231   1.179  13.036   3.109
47800SOL     OW45232  12.843  10.147   2.095
47800SOL    HW145233  12.810  10.195   2.019
47800SOL    HW245234  12.894  10.212   2.143
47801SOL     OW45235  13.537   2.568   1.004
47801SOL    HW145236  13.507   2.549   1.093
47801SOL    HW245237  13.527   2.663   0.995
47802SOL     OW45238   0.152   3.314  10.659
47802SOL    HW145239   0.076   3.370  10.640
47802SOL    HW245240   0.215   3.336  10.590
47803SOL     OW45241   5.077   1.654  12.394
47803SOL    HW145242   5.099   1.562  12.380
47803SOL    HW245243   4.990   1.664  12.355
47804SOL     OW45244   5.756  12.669  11.387
47804SOL    HW145245   5.776  12.737  11.323
47804SOL    HW245246   5.780  12.587  11.343
47805SOL     OW45247   0.066   6.576   0.751
47805SOL    HW145248   0.043   6.666   0.772
47805SOL    HW245249   0.042   6.526   0.829
47806SOL     OW45250   3.213  10.263   3.344
47806SOL    HW145251   3.248  10.346   3.313
47806SOL    HW245252   3.167  10.285   3.425
47807SOL     OW45253   3.524   9.632   3.945
47807SOL    HW145254   3.461   9.670   4.007
47807SOL    HW245255   3.504   9.538   3.945
47808SOL     OW45256   6.155  12.893  10.123
47808SOL    HW145257   6.126  12.967  10.069
47808SOL    HW245258   6.250  12.891  10.112
47809SOL     OW45259   8.627  11.821   9.806
47809SOL    HW145260   8.603  11.785   9.891
47809SOL    HW245261   8.672  11.903   9.827
47810SOL     OW45262   3.673   4.203   1.534
47810SOL    HW145263   3.707   4.125   1.489
47810SOL    HW245264   3.752   4.253   1.557
47811SOL     OW45265   0.064   7.314  13.531
47811SOL    HW145266   0.151   7.274  13.532
47811SOL    HW245267   0.013   7.258  13.473
47812SOL     OW45268  12.691   2.670   5.019
47812SOL    HW145269  12.680   2.595   4.960
47812SOL    HW245270  12.699   2.745   4.960
47813SOL     OW45271  11.867   3.330   5.071
47813SOL    HW145272  11.870   3.332   4.976
47813SOL    HW245273  11.870   3.422   5.097
47814SOL     OW45274   3.452   2.462   0.797
47814SOL    HW145275   3.427   2.385   0.746
47814SOL    HW245276   3.391   2.530   0.770
47815SOL     OW45277   3.342  12.342   5.754
47815SOL    HW145278   3.378  12.341   5.843
47815SOL    HW245279   3.418  12.357   5.697
47816SOL     OW45280   1.493   7.681   0.663
47816SOL    HW145281   1.531   7.735   0.733
47816SOL    HW245282   1.444   7.742   0.609
47817SOL     OW45283   4.537  14.244  12.830
47817SOL    HW145284   4.488  14.314  12.787
47817SOL    HW245285   4.588  14.288  12.898
47818SOL     OW45286  14.416   7.042   5.373
47818SOL    HW145287  14.473   7.105   5.330
47818SOL    HW245288  14.473   6.969   5.398
47819SOL     OW45289   2.426  10.768   9.629
47819SOL    HW145290   2.521  10.781   9.619
47819SOL    HW245291   2.419  10.712   9.706
47820SOL     OW45292  14.400   6.887  10.369
47820SOL    HW145293  14.325   6.921  10.319
47820SOL    HW245294  14.470   6.949  10.351
47821SOL     OW45295   2.837   5.819   1.319
47821SOL    HW145296   2.907   5.805   1.255
47821SOL    HW245297   2.781   5.885   1.279
47822SOL     OW45298   6.143   3.158   6.038
47822SOL    HW145299   6.048   3.175   6.037
47822SOL    HW245300   6.152   3.076   6.087
47823SOL     OW45301   4.935  14.379  11.837
47823SOL    HW145302   4.881  14.375  11.915
47823SOL    HW245303   4.892  14.321  11.774
47824SOL     OW45304   2.205  12.096  13.043
47824SOL    HW145305   2.153  12.108  12.964
47824SOL    HW245306   2.211  12.001  13.053
47825SOL     OW45307  12.118   1.893   2.406
47825SOL    HW145308  12.212   1.909   2.408
47825SOL    HW245309  12.086   1.947   2.334
47826SOL     OW45310   9.671   7.624  12.819
47826SOL    HW145311   9.695   7.585  12.903
47826SOL    HW245312   9.732   7.697  12.808
47827SOL     OW45313  13.104  13.124   4.486
47827SOL    HW145314  13.051  13.056   4.528
47827SOL    HW245315  13.041  13.176   4.436
47828SOL     OW45316   5.313   2.275   9.636
47828SOL    HW145317   5.382   2.217   9.670
47828SOL    HW245318   5.246   2.275   9.704
47829SOL     OW45319  13.528   0.399  14.459
47829SOL    HW145320  13.447   0.448  14.474
47829SOL    HW245321  13.598   0.462  14.478
47830SOL     OW45322   5.962   0.019   2.726
47830SOL    HW145323   5.915   0.068   2.794
47830SOL    HW245324   5.893  14.858   2.669
47831SOL     OW45325   8.299   7.422  12.045
47831SOL    HW145326   8.248   7.352  12.005
47831SOL    HW245327   8.358   7.377  12.105
47832SOL     OW45328   6.239  13.048   4.801
47832SOL    HW145329   6.198  13.102   4.870
47832SOL    HW245330   6.300  12.992   4.849
47833SOL     OW45331  11.529  12.492  11.802
47833SOL    HW145332  11.541  12.574  11.849
47833SOL    HW245333  11.600  12.436  11.833
47834SOL     OW45334  10.260   9.896   8.128
47834SOL    HW145335  10.323   9.837   8.086
47834SOL    HW245336  10.182   9.891   8.074
47835SOL     OW45337  12.452   7.818   6.937
47835SOL    HW145338  12.427   7.748   6.997
47835SOL    HW245339  12.546   7.831   6.953
47836SOL     OW45340   6.164  12.559  10.743
47836SOL    HW145341   6.259  12.570  10.749
47836SOL    HW245342   6.152  12.489  10.678
47837SOL     OW45343   0.398   5.170   6.767
47837SOL    HW145344   0.409   5.094   6.709
47837SOL    HW245345   0.485   5.184   6.805
47838SOL     OW45346   1.613   7.393  14.333
47838SOL    HW145347   1.670   7.318  14.352
47838SOL    HW245348   1.601   7.436  14.418
47839SOL     OW45349   1.785   7.353  12.889
47839SOL    HW145350   1.779   7.273  12.941
47839SOL    HW245351   1.868   7.344  12.842
47840SOL     OW45352   4.103   0.071  10.315
47840SOL    HW145353   4.019   0.080  10.360
47840SOL    HW245354   4.139   0.160  10.314
47841SOL     OW45355   6.137   0.327   1.738
47841SOL    HW145356   6.186   0.306   1.818
47841SOL    HW245357   6.202   0.320   1.668
47842SOL     OW45358   6.846   5.506  13.045
47842SOL    HW145359   6.826   5.422  13.004
47842SOL    HW245360   6.940   5.518  13.029
47843SOL     OW45361   6.330   1.418   1.223
47843SOL    HW145362   6.263   1.357   1.192
47843SOL    HW245363   6.413   1.377   1.200
47844SOL     OW45364   4.139  11.595  13.299
47844SOL    HW145365   4.212  11.607  13.359
47844SOL    HW245366   4.104  11.509  13.321
47845SOL     OW45367  10.962   7.955   2.929
47845SOL    HW145368  10.907   7.877   2.938
47845SOL    HW245369  11.019   7.953   3.006
47846SOL     OW45370   3.498   2.135   1.356
47846SOL    HW145371   3.489   2.057   1.301
47846SOL    HW245372   3.429   2.125   1.422
47847SOL     OW45373   1.595   8.104  10.952
47847SOL    HW145374   1.573   8.123  11.043
47847SOL    HW245375   1.671   8.158  10.933
47848SOL     OW45376  11.584   8.545   6.446
47848SOL    HW145377  11.502   8.587   6.473
47848SOL    HW245378  11.615   8.599   6.373
47849SOL     OW45379   0.692   9.067   8.048
47849SOL    HW145380   0.703   9.064   8.143
47849SOL    HW245381   0.653   9.153   8.031
47850SOL     OW45382  14.823   2.718   6.654
47850SOL    HW145383  14.827   2.799   6.705
47850SOL    HW245384   0.009   2.734   6.580
47851SOL     OW45385   8.523   7.916   8.955
47851SOL    HW145386   8.606   7.931   8.910
47851SOL    HW245387   8.547   7.891   9.044
47852SOL     OW45388   0.461   7.570   9.899
47852SOL    HW145389   0.431   7.495   9.950
47852SOL    HW245390   0.478   7.534   9.812
47853SOL     OW45391  11.805  11.374   5.533
47853SOL    HW145392  11.836  11.463   5.517
47853SOL    HW245393  11.789  11.370   5.627
47854SOL     OW45394   5.370   9.403  12.445
47854SOL    HW145395   5.385   9.350  12.366
47854SOL    HW245396   5.333   9.485  12.412
47855SOL     OW45397  11.291   5.974   7.805
47855SOL    HW145398  11.321   6.054   7.762
47855SOL    HW245399  11.196   5.985   7.812
47856SOL     OW45400  10.597  14.820   3.250
47856SOL    HW145401  10.548  14.755   3.199
47856SOL    HW245402  10.662  14.854   3.188
47857SOL     OW45403   4.760  12.891   8.340
47857SOL    HW145404   4.755  12.890   8.435
47857SOL    HW245405   4.705  12.965   8.314
47858SOL     OW45406  10.781   1.791   1.070
47858SOL    HW145407  10.815   1.706   1.098
47858SOL    HW245408  10.859   1.841   1.046
47859SOL     OW45409   9.716  12.756   9.595
47859SOL    HW145410   9.652  12.801   9.651
47859SOL    HW245411   9.797  12.756   9.647
47860SOL     OW45412   7.939   2.039   6.888
47860SOL    HW145413   7.905   1.973   6.828
47860SOL    HW245414   7.925   2.001   6.975
47861SOL     OW45415   9.040   6.711   2.426
47861SOL    HW145416   9.005   6.666   2.503
47861SOL    HW245417   9.134   6.693   2.429
47862SOL     OW45418   2.111   4.728   0.178
47862SOL    HW145419   2.149   4.793   0.237
47862SOL    HW245420   2.042   4.776   0.131
47863SOL     OW45421   4.048   3.518  10.227
47863SOL    HW145422   4.042   3.605  10.267
47863SOL    HW245423   3.999   3.461  10.286
47864SOL     OW45424   6.075   6.995   3.943
47864SOL    HW145425   6.058   6.938   4.018
47864SOL    HW245426   6.146   7.053   3.972
47865SOL     OW45427   9.495   8.180   3.582
47865SOL    HW145428   9.488   8.085   3.586
47865SOL    HW245429   9.419   8.208   3.532
47866SOL     OW45430   9.117   9.526   9.130
47866SOL    HW145431   9.109   9.458   9.197
47866SOL    HW245432   9.144   9.604   9.178
47867SOL     OW45433  11.678  12.566   7.770
47867SOL    HW145434  11.690  12.658   7.794
47867SOL    HW245435  11.600  12.539   7.817
47868SOL     OW45436   0.719   3.375   4.647
47868SOL    HW145437   0.812   3.380   4.671
47868SOL    HW245438   0.717   3.400   4.554
47869SOL     OW45439  11.780   2.341   0.550
47869SOL    HW145440  11.718   2.414   0.555
47869SOL    HW245441  11.776   2.300   0.636
47870SOL     OW45442   0.817   0.975  12.926
47870SOL    HW145443   0.865   1.039  12.979
47870SOL    HW245444   0.759   0.932  12.989
47871SOL     OW45445   4.219  13.924  10.166
47871SOL    HW145446   4.190  14.015  10.162
47871SOL    HW245447   4.275  13.920  10.243
47872SOL     OW45448   7.139   7.528  13.606
47872SOL    HW145449   7.144   7.528  13.701
47872SOL    HW245450   7.088   7.606  13.584
47873SOL     OW45451   6.960  13.781  13.927
47873SOL    HW145452   7.040  13.771  13.874
47873SOL    HW245453   6.896  13.819  13.867
47874SOL     OW45454   4.060   8.614  14.702
47874SOL    HW145455   4.071   8.621  14.608
47874SOL    HW245456   3.966   8.598  14.715
47875SOL     OW45457  11.210  10.820   0.401
47875SOL    HW145458  11.299  10.820   0.367
47875SOL    HW245459  11.164  10.886   0.349
47876SOL     OW45460   1.210   8.363   7.017
47876SOL    HW145461   1.233   8.426   7.086
47876SOL    HW245462   1.125   8.394   6.984
47877SOL     OW45463   8.691  10.223   4.694
47877SOL    HW145464   8.755  10.236   4.763
47877SOL    HW245465   8.679  10.128   4.689
47878SOL     OW45466   9.825   6.831   3.348
47878SOL    HW145467   9.799   6.922   3.358
47878SOL    HW245468   9.743   6.782   3.356
47879SOL     OW45469   2.809  11.157   8.004
47879SOL    HW145470   2.768  11.139   8.088
47879SOL    HW245471   2.898  11.122   8.012
47880SOL     OW45472  11.566  11.460  13.067
47880SOL    HW145473  11.650  11.420  13.043
47880SOL    HW245474  11.503  11.389  13.056
47881SOL     OW45475  10.375   9.169  12.702
47881SOL    HW145476  10.395   9.083  12.665
47881SOL    HW245477  10.363   9.225  12.626
47882SOL     OW45478  10.312   8.935   9.236
47882SOL    HW145479  10.232   8.897   9.198
47882SOL    HW245480  10.383   8.895   9.187
47883SOL     OW45481   5.444   4.964  12.315
47883SOL    HW145482   5.523   5.018  12.321
47883SOL    HW245483   5.394   5.003  12.243
47884SOL     OW45484   0.790   0.722   8.743
47884SOL    HW145485   0.816   0.771   8.664
47884SOL    HW245486   0.730   0.655   8.711
47885SOL     OW45487   2.695  12.553   3.819
47885SOL    HW145488   2.722  12.467   3.788
47885SOL    HW245489   2.632  12.535   3.889
47886SOL     OW45490  13.718   0.368   5.138
47886SOL    HW145491  13.748   0.397   5.224
47886SOL    HW245492  13.783   0.302   5.111
47887SOL     OW45493   3.046   0.080   1.754
47887SOL    HW145494   3.118   0.090   1.693
47887SOL    HW245495   2.989   0.155   1.737
47888SOL     OW45496  12.015   7.965   8.049
47888SOL    HW145497  12.004   7.872   8.031
47888SOL    HW245498  12.038   7.969   8.142
47889SOL     OW45499  10.787  13.058   2.470
47889SOL    HW145500  10.732  13.054   2.392
47889SOL    HW245501  10.876  13.068   2.436
47890SOL     OW45502  13.685   8.559   6.149
47890SOL    HW145503  13.665   8.653   6.148
47890SOL    HW245504  13.604   8.518   6.120
47891SOL     OW45505   3.404   2.375   2.714
47891SOL    HW145506   3.463   2.361   2.788
47891SOL    HW245507   3.391   2.470   2.712
47892SOL     OW45508   4.158   3.848   8.697
47892SOL    HW145509   4.243   3.842   8.653
47892SOL    HW245510   4.123   3.759   8.692
47893SOL     OW45511  12.562  11.221   6.079
47893SOL    HW145512  12.561  11.222   5.983
47893SOL    HW245513  12.470  11.230   6.105
47894SOL     OW45514   5.242   2.141  10.927
47894SOL    HW145515   5.225   2.188  11.009
47894SOL    HW245516   5.203   2.055  10.940
47895SOL     OW45517  12.442  14.050   7.364
47895SOL    HW145518  12.517  14.099   7.330
47895SOL    HW245519  12.448  13.964   7.321
47896SOL     OW45520  14.176   5.180   2.454
47896SOL    HW145521  14.261   5.182   2.496
47896SOL    HW245522  14.140   5.268   2.467
47897SOL     OW45523  12.881   0.029   7.704
47897SOL    HW145524  12.942  14.862   7.642
47897SOL    HW245525  12.869  14.836   7.771
47898SOL     OW45526   9.461  14.342   8.594
47898SOL    HW145527   9.510  14.396   8.532
47898SOL    HW245528   9.468  14.389   8.677
47899SOL     OW45529   8.088   3.064   1.585
47899SOL    HW145530   8.094   2.971   1.608
47899SOL    HW245531   8.115   3.068   1.494
47900SOL     OW45532   9.197   9.485   5.664
47900SOL    HW145533   9.194   9.500   5.759
47900SOL    HW245534   9.281   9.523   5.637
47901SOL     OW45535  12.264  11.199  13.275
47901SOL    HW145536  12.234  11.272  13.221
47901SOL    HW245537  12.242  11.226  13.365
47902SOL     OW45538  11.861   1.752   4.911
47902SOL    HW145539  11.766   1.758   4.919
47902SOL    HW245540  11.889   1.839   4.883
47903SOL     OW45541   6.570   7.312   3.587
47903SOL    HW145542   6.605   7.396   3.616
47903SOL    HW245543   6.492   7.335   3.536
47904SOL     OW45544  11.920   8.853   5.394
47904SOL    HW145545  11.924   8.867   5.299
47904SOL    HW245546  11.853   8.786   5.405
47905SOL     OW45547   4.380   9.496   1.791
47905SOL    HW145548   4.474   9.483   1.797
47905SOL    HW245549   4.360   9.558   1.861
47906SOL     OW45550  14.051   7.867  13.356
47906SOL    HW145551  14.122   7.893  13.298
47906SOL    HW245552  14.087   7.873  13.444
47907SOL     OW45553   8.953   8.914  10.712
47907SOL    HW145554   9.046   8.924  10.731
47907SOL    HW245555   8.918   9.004  10.718
47908SOL     OW45556   7.397  12.035   8.480
47908SOL    HW145557   7.310  12.007   8.511
47908SOL    HW245558   7.395  12.020   8.386
47909SOL     OW45559   1.507  10.837  11.067
47909SOL    HW145560   1.571  10.783  11.021
47909SOL    HW245561   1.427  10.829  11.014
47910SOL     OW45562   3.563   3.132  10.383
47910SOL    HW145563   3.580   3.044  10.414
47910SOL    HW245564   3.579   3.188  10.459
47911SOL     OW45565   4.909  14.544   3.281
47911SOL    HW145566   4.912  14.449   3.273
47911SOL    HW245567   4.956  14.563   3.362
47912SOL     OW45568  10.366   1.673  13.153
47912SOL    HW145569  10.345   1.677  13.247
47912SOL    HW245570  10.423   1.748  13.138
47913SOL     OW45571  12.542  12.227  11.504
47913SOL    HW145572  12.577  12.224  11.593
47913SOL    HW245573  12.618  12.211  11.448
47914SOL     OW45574   9.008   1.359   1.650
47914SOL    HW145575   8.950   1.432   1.671
47914SOL    HW245576   8.956   1.306   1.589
47915SOL     OW45577   2.996   7.843  10.818
47915SOL    HW145578   3.083   7.880  10.833
47915SOL    HW245579   3.013   7.761  10.771
47916SOL     OW45580   4.173  11.336   1.037
47916SOL    HW145581   4.131  11.371   0.958
47916SOL    HW245582   4.149  11.243   1.037
47917SOL     OW45583  10.564  12.163   9.607
47917SOL    HW145584  10.608  12.198   9.530
47917SOL    HW245585  10.520  12.085   9.576
47918SOL     OW45586  10.239   0.681   1.340
47918SOL    HW145587  10.215   0.670   1.432
47918SOL    HW245588  10.239   0.593   1.304
47919SOL     OW45589   3.072   8.009   9.718
47919SOL    HW145590   3.138   7.977   9.780
47919SOL    HW245591   3.111   8.086   9.677
47920SOL     OW45592  12.665   8.537  10.812
47920SOL    HW145593  12.711   8.454  10.802
47920SOL    HW245594  12.606   8.542  10.737
47921SOL     OW45595  13.911  14.765   7.748
47921SOL    HW145596  13.955  14.702   7.692
47921SOL    HW245597  13.972  14.839   7.752
47922SOL     OW45598   6.939  13.513  12.034
47922SOL    HW145599   6.871  13.464  12.079
47922SOL    HW245600   6.893  13.562  11.967
47923SOL     OW45601   4.019   7.730   9.254
47923SOL    HW145602   4.075   7.796   9.213
47923SOL    HW245603   4.065   7.707   9.335
47924SOL     OW45604   5.867   0.319  13.648
47924SOL    HW145605   5.819   0.250  13.603
47924SOL    HW245606   5.910   0.368  13.579
47925SOL     OW45607   8.865   7.694   3.418
47925SOL    HW145608   8.914   7.756   3.472
47925SOL    HW245609   8.782   7.682   3.464
47926SOL     OW45610   2.316   2.875   1.819
47926SOL    HW145611   2.256   2.940   1.856
47926SOL    HW245612   2.299   2.796   1.870
47927SOL     OW45613  11.589   3.320   5.155
47927SOL    HW145614  11.561   3.251   5.095
47927SOL    HW245615  11.656   3.368   5.106
47928SOL     OW45616   6.122   9.112  13.437
47928SOL    HW145617   6.065   9.167  13.491
47928SOL    HW245618   6.150   9.169  13.366
47929SOL     OW45619   6.889  14.286   4.858
47929SOL    HW145620   6.943  14.242   4.793
47929SOL    HW245621   6.934  14.273   4.941
47930SOL     OW45622   9.467   6.628   6.237
47930SOL    HW145623   9.477   6.665   6.325
47930SOL    HW245624   9.373   6.632   6.219
47931SOL     OW45625   7.711  12.088  14.833
47931SOL    HW145626   7.675  12.041   0.036
47931SOL    HW245627   7.645  12.077  14.765
47932SOL     OW45628   0.933  12.095   1.263
47932SOL    HW145629   0.911  12.061   1.349
47932SOL    HW245630   0.848  12.114   1.222
47933SOL     OW45631   6.960   2.278   7.734
47933SOL    HW145632   6.991   2.365   7.710
47933SOL    HW245633   6.865   2.282   7.722
47934SOL     OW45634   1.526  11.092   4.071
47934SOL    HW145635   1.603  11.038   4.086
47934SOL    HW245636   1.479  11.091   4.154
47935SOL     OW45637  13.169  10.300  12.241
47935SOL    HW145638  13.226  10.258  12.306
47935SOL    HW245639  13.132  10.227  12.192
47936SOL     OW45640   6.702  12.035   7.300
47936SOL    HW145641   6.658  11.965   7.351
47936SOL    HW245642   6.773  11.990   7.255
47937SOL     OW45643   1.214   9.849  11.373
47937SOL    HW145644   1.161   9.770  11.364
47937SOL    HW245645   1.304   9.817  11.385
47938SOL     OW45646  13.707   2.657   2.492
47938SOL    HW145647  13.721   2.571   2.533
47938SOL    HW245648  13.795   2.689   2.472
47939SOL     OW45649   1.675   5.669  12.799
47939SOL    HW145650   1.759   5.690  12.840
47939SOL    HW245651   1.672   5.573  12.800
47940SOL     OW45652   6.042   0.756  13.243
47940SOL    HW145653   6.113   0.695  13.225
47940SOL    HW245654   6.035   0.759  13.338
47941SOL     OW45655  10.934   4.775   8.691
47941SOL    HW145656  10.910   4.718   8.764
47941SOL    HW245657  10.870   4.755   8.623
47942SOL     OW45658   8.727  11.112   6.386
47942SOL    HW145659   8.690  11.041   6.438
47942SOL    HW245660   8.683  11.105   6.301
47943SOL     OW45661  13.536   8.018  14.344
47943SOL    HW145662  13.569   8.092  14.293
47943SOL    HW245663  13.441   8.028  14.342
47944SOL     OW45664  10.309   5.333   9.568
47944SOL    HW145665  10.243   5.265   9.553
47944SOL    HW245666  10.309   5.384   9.487
47945SOL     OW45667  13.347   6.533  14.496
47945SOL    HW145668  13.254   6.531  14.470
47945SOL    HW245669  13.393   6.564  14.418
47946SOL     OW45670  10.804  12.535  12.073
47946SOL    HW145671  10.786  12.456  12.123
47946SOL    HW245672  10.878  12.576  12.118
47947SOL     OW45673   6.159   9.160   4.849
47947SOL    HW145674   6.132   9.082   4.799
47947SOL    HW245675   6.197   9.219   4.784
47948SOL     OW45676   0.044   5.958   3.148
47948SOL    HW145677  14.834   5.980   3.190
47948SOL    HW245678   0.072   5.876   3.190
47949SOL     OW45679   3.235  13.901   1.550
47949SOL    HW145680   3.148  13.898   1.512
47949SOL    HW245681   3.231  13.969   1.616
47950SOL     OW45682   6.224   7.500  11.074
47950SOL    HW145683   6.226   7.451  10.992
47950SOL    HW245684   6.261   7.441  11.139
47951SOL     OW45685  14.359  10.885   4.202
47951SOL    HW145686  14.401  10.863   4.285
47951SOL    HW245687  14.266  10.896   4.224
47952SOL     OW45688   4.371   0.998   9.289
47952SOL    HW145689   4.441   1.020   9.228
47952SOL    HW245690   4.410   1.009   9.376
47953SOL     OW45691   9.689   6.895  10.194
47953SOL    HW145692   9.613   6.848  10.160
47953SOL    HW245693   9.655   6.981  10.219
47954SOL     OW45694  10.916  13.475  10.864
47954SOL    HW145695  10.938  13.437  10.779
47954SOL    HW245696  10.984  13.442  10.923
47955SOL     OW45697   3.661  12.696  14.746
47955SOL    HW145698   3.599  12.705  14.819
47955SOL    HW245699   3.714  12.775  14.750
47956SOL     OW45700   9.232   6.298   8.652
47956SOL    HW145701   9.186   6.222   8.615
47956SOL    HW245702   9.325   6.274   8.647
47957SOL     OW45703   3.354   3.994   4.397
47957SOL    HW145704   3.367   4.059   4.327
47957SOL    HW245705   3.268   3.956   4.379
47958SOL     OW45706   8.748  12.274   2.927
47958SOL    HW145707   8.734  12.179   2.932
47958SOL    HW245708   8.719  12.307   3.012
47959SOL     OW45709  14.664   2.844  14.738
47959SOL    HW145710  14.649   2.937  14.750
47959SOL    HW245711  14.754   2.831  14.768
47960SOL     OW45712  12.250   6.214   9.361
47960SOL    HW145713  12.305   6.179   9.291
47960SOL    HW245714  12.179   6.260   9.316
47961SOL     OW45715   1.332   4.491   2.612
47961SOL    HW145716   1.247   4.462   2.646
47961SOL    HW245717   1.330   4.467   2.520
47962SOL     OW45718   9.233   9.201  14.429
47962SOL    HW145719   9.177   9.156  14.365
47962SOL    HW245720   9.294   9.252  14.377
47963SOL     OW45721  12.112   5.103  11.067
47963SOL    HW145722  12.066   5.025  11.096
47963SOL    HW245723  12.051   5.147  11.007
47964SOL     OW45724   0.762   6.341  12.499
47964SOL    HW145725   0.690   6.303  12.549
47964SOL    HW245726   0.722   6.411  12.448
47965SOL     OW45727  14.213   8.805  13.312
47965SOL    HW145728  14.265   8.883  13.331
47965SOL    HW245729  14.268   8.754  13.252
47966SOL     OW45730   8.282   6.703   5.637
47966SOL    HW145731   8.305   6.613   5.617
47966SOL    HW245732   8.198   6.697   5.683
47967SOL     OW45733   5.748   4.045   8.433
47967SOL    HW145734   5.780   3.957   8.418
47967SOL    HW245735   5.781   4.096   8.359
47968SOL     OW45736  12.108   8.422   8.704
47968SOL    HW145737  12.058   8.405   8.624
47968SOL    HW245738  12.078   8.508   8.733
47969SOL     OW45739  13.260  13.686  11.614
47969SOL    HW145740  13.167  13.678  11.590
47969SOL    HW245741  13.266  13.773  11.653
47970SOL     OW45742  11.253   0.540   1.760
47970SOL    HW145743  11.222   0.628   1.778
47970SOL    HW245744  11.204   0.485   1.821
47971SOL     OW45745   8.773   2.801   5.785
47971SOL    HW145746   8.683   2.767   5.790
47971SOL    HW245747   8.816   2.742   5.722
47972SOL     OW45748  14.446   1.398  11.955
47972SOL    HW145749  14.427   1.304  11.948
47972SOL    HW245750  14.540   1.403  11.969
47973SOL     OW45751   3.397   0.338   3.380
47973SOL    HW145752   3.469   0.278   3.363
47973SOL    HW245753   3.391   0.342   3.476
47974SOL     OW45754   0.231   7.153  13.851
47974SOL    HW145755   0.248   7.176  13.759
47974SOL    HW245756   0.167   7.217  13.880
47975SOL     OW45757  14.512   5.868  10.569
47975SOL    HW145758  14.507   5.958  10.536
47975SOL    HW245759  14.434   5.859  10.624
47976SOL     OW45760   7.823  10.551   4.697
47976SOL    HW145761   7.841  10.467   4.656
47976SOL    HW245762   7.746  10.536   4.751
47977SOL     OW45763  10.996   0.383   6.473
47977SOL    HW145764  11.032   0.413   6.390
47977SOL    HW245765  11.022   0.291   6.478
47978SOL     OW45766   6.165  11.423  12.597
47978SOL    HW145767   6.216  11.397  12.674
47978SOL    HW245768   6.093  11.360  12.593
47979SOL     OW45769  11.808   8.342   8.213
47979SOL    HW145770  11.827   8.250   8.193
47979SOL    HW245771  11.716   8.342   8.237
47980SOL     OW45772   0.091   7.003   2.082
47980SOL    HW145773   0.129   7.019   2.168
47980SOL    HW245774   0.064   6.911   2.084
47981SOL     OW45775   0.579  12.848   2.167
47981SOL    HW145776   0.642  12.776   2.167
47981SOL    HW245777   0.633  12.927   2.160
47982SOL     OW45778   0.898   5.241  11.946
47982SOL    HW145779   0.964   5.201  11.891
47982SOL    HW245780   0.933   5.328  11.967
47983SOL     OW45781   1.155   4.297  10.264
47983SOL    HW145782   1.083   4.254  10.310
47983SOL    HW245783   1.146   4.268  10.173
47984SOL     OW45784   7.290   8.321  14.235
47984SOL    HW145785   7.312   8.315  14.328
47984SOL    HW245786   7.305   8.413  14.212
47985SOL     OW45787   8.364   5.456   4.596
47985SOL    HW145788   8.321   5.466   4.681
47985SOL    HW245789   8.291   5.454   4.533
47986SOL     OW45790  11.569   7.769   1.150
47986SOL    HW145791  11.639   7.830   1.176
47986SOL    HW245792  11.607   7.719   1.078
47987SOL     OW45793   3.506  10.033  13.160
47987SOL    HW145794   3.528  10.022  13.067
47987SOL    HW245795   3.523   9.948  13.199
47988SOL     OW45796   5.271  12.940   5.985
47988SOL    HW145797   5.261  13.000   6.059
47988SOL    HW245798   5.249  12.992   5.908
47989SOL     OW45799   6.706   3.657   4.964
47989SOL    HW145800   6.768   3.712   5.011
47989SOL    HW245801   6.728   3.568   4.990
47990SOL     OW45802   1.886   6.112   8.729
47990SOL    HW145803   1.912   6.035   8.780
47990SOL    HW245804   1.813   6.150   8.779
47991SOL     OW45805   7.079   9.778   0.241
47991SOL    HW145806   7.019   9.836   0.287
47991SOL    HW245807   7.122   9.834   0.177
47992SOL     OW45808   9.881   5.615   0.260
47992SOL    HW145809   9.850   5.524   0.266
47992SOL    HW245810   9.811   5.666   0.301
47993SOL     OW45811   7.770  14.866   6.116
47993SOL    HW145812   7.857  14.830   6.096
47993SOL    HW245813   7.788   0.080   6.152
47994SOL     OW45814   3.134   5.668   6.814
47994SOL    HW145815   3.124   5.760   6.838
47994SOL    HW245816   3.081   5.620   6.878
47995SOL     OW45817   3.234   2.614   5.499
47995SOL    HW145818   3.326   2.634   5.484
47995SOL    HW245819   3.189   2.642   5.420
47996SOL     OW45820   2.103   1.740   0.777
47996SOL    HW145821   2.063   1.814   0.821
47996SOL    HW245822   2.147   1.778   0.700
47997SOL     OW45823   0.002   3.646   6.155
47997SOL    HW145824   0.009   3.656   6.250
47997SOL    HW245825  14.811   3.712   6.129
47998SOL     OW45826   6.568   5.668  10.122
47998SOL    HW145827   6.588   5.575  10.110
47998SOL    HW245828   6.653   5.708  10.140
47999SOL     OW45829   2.970   1.159   4.122
47999SOL    HW145830   2.974   1.067   4.096
47999SOL    HW245831   3.033   1.202   4.065
48000SOL     OW45832   7.056   8.406   4.674
48000SOL    HW145833   6.998   8.480   4.690
48000SOL    HW245834   7.108   8.399   4.755
48001SOL     OW45835   1.242  12.836  12.592
48001SOL    HW145836   1.182  12.793  12.653
48001SOL    HW245837   1.190  12.906  12.553
48002SOL     OW45838   5.011   9.366  13.271
48002SOL    HW145839   4.982   9.336  13.184
48002SOL    HW245840   5.100   9.396  13.258
48003SOL     OW45841   2.239   6.891   0.518
48003SOL    HW145842   2.316   6.948   0.521
48003SOL    HW245843   2.208   6.897   0.428
48004SOL     OW45844   4.667  11.372   4.884
48004SOL    HW145845   4.652  11.458   4.845
48004SOL    HW245846   4.735  11.387   4.949
48005SOL     OW45847   8.437   0.631   4.157
48005SOL    HW145848   8.346   0.653   4.139
48005SOL    HW245849   8.482   0.647   4.074
48006SOL     OW45850   8.494   8.891  10.237
48006SOL    HW145851   8.522   8.851  10.319
48006SOL    HW245852   8.530   8.834  10.169
48007SOL     OW45853   0.229  13.103   5.075
48007SOL    HW145854   0.150  13.156   5.064
48007SOL    HW245855   0.240  13.096   5.170
48008SOL     OW45856   2.494   5.119  11.157
48008SOL    HW145857   2.583   5.147  11.181
48008SOL    HW245858   2.452   5.099  11.241
48009SOL     OW45859  14.492  13.830   3.603
48009SOL    HW145860  14.470  13.922   3.616
48009SOL    HW245861  14.587  13.826   3.612
48010SOL     OW45862   5.330   5.126  10.642
48010SOL    HW145863   5.376   5.076  10.709
48010SOL    HW245864   5.237   5.119  10.665
48011SOL     OW45865   9.470   6.144   5.054
48011SOL    HW145866   9.439   6.055   5.035
48011SOL    HW245867   9.400   6.182   5.107
48012SOL     OW45868   8.746   6.149   4.129
48012SOL    HW145869   8.753   6.118   4.220
48012SOL    HW245870   8.759   6.071   4.076
48013SOL     OW45871   1.806   9.502  11.968
48013SOL    HW145872   1.744   9.435  11.938
48013SOL    HW245873   1.874   9.452  12.014
48014SOL     OW45874   8.621  14.756   6.422
48014SOL    HW145875   8.717  14.753   6.421
48014SOL    HW245876   8.600  14.838   6.378
48015SOL     OW45877  13.969   9.360   5.623
48015SOL    HW145878  14.008   9.276   5.649
48015SOL    HW245879  14.016   9.425   5.675
48016SOL     OW45880   3.132   2.601   6.475
48016SOL    HW145881   3.074   2.558   6.413
48016SOL    HW245882   3.205   2.540   6.487
48017SOL     OW45883   3.223   2.187  12.486
48017SOL    HW145884   3.128   2.192  12.477
48017SOL    HW245885   3.244   2.243  12.561
48018SOL     OW45886   4.080   6.931   8.299
48018SOL    HW145887   4.090   6.921   8.393
48018SOL    HW245888   4.076   7.025   8.284
48019SOL     OW45889   7.509  11.349   0.890
48019SOL    HW145890   7.519  11.305   0.974
48019SOL    HW245891   7.473  11.435   0.912
48020SOL     OW45892   6.258  13.748   5.768
48020SOL    HW145893   6.275  13.700   5.849
48020SOL    HW245894   6.214  13.684   5.711
48021SOL     OW45895   3.113  10.284   2.744
48021SOL    HW145896   3.085  10.220   2.811
48021SOL    HW245897   3.059  10.361   2.761
48022SOL     OW45898   7.227   1.407   7.390
48022SOL    HW145899   7.313   1.422   7.430
48022SOL    HW245900   7.247   1.361   7.308
48023SOL     OW45901  11.672  11.787  12.723
48023SOL    HW145902  11.739  11.759  12.785
48023SOL    HW245903  11.704  11.758  12.638
48024SOL     OW45904   8.819  10.151   1.561
48024SOL    HW145905   8.733  10.128   1.594
48024SOL    HW245906   8.804  10.222   1.499
48025SOL     OW45907  12.752   5.507   3.028
48025SOL    HW145908  12.792   5.544   3.106
48025SOL    HW245909  12.812   5.438   3.001
48026SOL     OW45910   5.664   5.061   6.722
48026SOL    HW145911   5.608   5.125   6.767
48026SOL    HW245912   5.690   5.105   6.641
48027SOL     OW45913   1.229  10.575  13.990
48027SOL    HW145914   1.286  10.649  13.968
48027SOL    HW245915   1.281  10.498  13.968
48028SOL     OW45916   8.375   6.929  11.417
48028SOL    HW145917   8.355   6.876  11.340
48028SOL    HW245918   8.462   6.900  11.444
48029SOL     OW45919   7.562  12.258  13.059
48029SOL    HW145920   7.624  12.220  12.997
48029SOL    HW245921   7.508  12.317  13.007
48030SOL     OW45922   5.478   5.262   7.685
48030SOL    HW145923   5.474   5.187   7.625
48030SOL    HW245924   5.538   5.234   7.754
48031SOL     OW45925   6.955   3.199   2.457
48031SOL    HW145926   6.940   3.291   2.477
48031SOL    HW245927   7.047   3.184   2.477
48032SOL     OW45928   9.617   5.447   7.796
48032SOL    HW145929   9.636   5.493   7.877
48032SOL    HW245930   9.531   5.406   7.811
48033SOL     OW45931   8.862  14.599   1.825
48033SOL    HW145932   8.812  14.677   1.848
48033SOL    HW245933   8.938  14.600   1.883
48034SOL     OW45934   4.858   0.306   3.079
48034SOL    HW145935   4.869   0.386   3.131
48034SOL    HW245936   4.922   0.313   3.009
48035SOL     OW45937  11.934   0.203  12.529
48035SOL    HW145938  11.950   0.271  12.464
48035SOL    HW245939  12.017   0.156  12.536
48036SOL     OW45940  14.116   2.378   5.718
48036SOL    HW145941  14.208   2.358   5.699
48036SOL    HW245942  14.113   2.473   5.724
48037SOL     OW45943   0.033   1.304   3.447
48037SOL    HW145944   0.061   1.219   3.415
48037SOL    HW245945  14.812   1.294   3.464
48038SOL     OW45946   3.809   2.576   4.696
48038SOL    HW145947   3.837   2.658   4.656
48038SOL    HW245948   3.716   2.568   4.672
48039SOL     OW45949   6.664  13.201  14.419
48039SOL    HW145950   6.575  13.216  14.452
48039SOL    HW245951   6.680  13.108  14.434
48040SOL     OW45952  12.350  12.849  14.150
48040SOL    HW145953  12.268  12.882  14.188
48040SOL    HW245954  12.351  12.887  14.062
48041SOL     OW45955  13.805   6.455   2.102
48041SOL    HW145956  13.844   6.419   2.022
48041SOL    HW245957  13.875   6.451   2.166
48042SOL     OW45958   2.417  10.649  13.840
48042SOL    HW145959   2.405  10.571  13.894
48042SOL    HW245960   2.425  10.616  13.751
48043SOL     OW45961   4.678   5.182  13.177
48043SOL    HW145962   4.749   5.169  13.240
48043SOL    HW245963   4.630   5.099  13.177
48044SOL     OW45964   4.463   4.835  14.775
48044SOL    HW145965   4.448   4.844  14.870
48044SOL    HW245966   4.555   4.857  14.763
48045SOL     OW45967  14.126   6.939  10.562
48045SOL    HW145968  14.137   6.852  10.524
48045SOL    HW245969  14.085   6.923  10.647
48046SOL     OW45970  14.662   5.971   2.450
48046SOL    HW145971  14.699   5.929   2.372
48046SOL    HW245972  14.669   5.905   2.519
48047SOL     OW45973  10.574  14.803   5.768
48047SOL    HW145974  10.553  14.809   5.674
48047SOL    HW245975  10.644  14.866   5.781
48048SOL     OW45976   9.549   3.918  14.394
48048SOL    HW145977   9.496   3.841  14.375
48048SOL    HW245978   9.486   3.987  14.413
48049SOL     OW45979  11.212   6.247   7.653
48049SOL    HW145980  11.303   6.266   7.626
48049SOL    HW245981  11.164   6.242   7.571
48050SOL     OW45982  14.129  13.819   5.177
48050SOL    HW145983  14.133  13.887   5.110
48050SOL    HW245984  14.133  13.737   5.128
48051SOL     OW45985   2.449  10.961   7.415
48051SOL    HW145986   2.459  10.886   7.475
48051SOL    HW245987   2.534  10.967   7.371
48052SOL     OW45988   7.831   3.454   6.138
48052SOL    HW145989   7.920   3.425   6.155
48052SOL    HW245990   7.786   3.445   6.222
48053SOL     OW45991   1.192  13.648  10.457
48053SOL    HW145992   1.168  13.740  10.456
48053SOL    HW245993   1.201  13.624  10.365
48054SOL     OW45994   0.761  14.713   9.863
48054SOL    HW145995   0.717  14.707   9.779
48054SOL    HW245996   0.848  14.745   9.843
48055SOL     OW45997  12.248   2.780   6.239
48055SOL    HW145998  12.267   2.812   6.327
48055SOL    HW245999  12.287   2.846   6.181
48056SOL     OW46000   5.106  13.014   3.533
48056SOL    HW146001   5.184  13.012   3.588
48056SOL    HW246002   5.093  13.108   3.515
48057SOL     OW46003   4.809  10.389  12.294
48057SOL    HW146004   4.898  10.422  12.302
48057SOL    HW246005   4.772  10.397  12.382
48058SOL     OW46006   8.955   6.962  14.033
48058SOL    HW146007   8.956   7.023  14.108
48058SOL    HW246008   8.864   6.934  14.026
48059SOL     OW46009   8.450  11.752   2.609
48059SOL    HW146010   8.391  11.678   2.624
48059SOL    HW246011   8.489  11.769   2.695
48060SOL     OW46012   6.952  14.465  14.258
48060SOL    HW146013   6.876  14.477  14.202
48060SOL    HW246014   6.924  14.497  14.344
48061SOL     OW46015   4.458  13.145   6.778
48061SOL    HW146016   4.504  13.189   6.706
48061SOL    HW246017   4.528  13.109   6.832
48062SOL     OW46018   4.256   1.587   7.364
48062SOL    HW146019   4.192   1.647   7.325
48062SOL    HW246020   4.336   1.601   7.314
48063SOL     OW46021  14.371   8.475  13.293
48063SOL    HW146022  14.319   8.472  13.213
48063SOL    HW246023  14.462   8.470  13.262
48064SOL     OW46024   9.363   6.354  10.195
48064SOL    HW146025   9.380   6.448  10.199
48064SOL    HW246026   9.282   6.342  10.246
48065SOL     OW46027  11.274  11.438  11.080
48065SOL    HW146028  11.188  11.473  11.057
48065SOL    HW246029  11.299  11.485  11.160
48066SOL     OW46030   1.089  12.449  14.505
48066SOL    HW146031   1.048  12.381  14.558
48066SOL    HW246032   1.057  12.531  14.541
48067SOL     OW46033   5.768   9.542   1.943
48067SOL    HW146034   5.731   9.611   1.998
48067SOL    HW246035   5.775   9.581   1.856
48068SOL     OW46036   4.213   0.032  13.549
48068SOL    HW146037   4.244   0.058  13.636
48068SOL    HW246038   4.118   0.048  13.552
48069SOL     OW46039   1.048   9.290   8.917
48069SOL    HW146040   1.015   9.371   8.956
48069SOL    HW246041   0.989   9.222   8.948
48070SOL     OW46042   5.202   4.986   0.856
48070SOL    HW146043   5.194   5.066   0.908
48070SOL    HW246044   5.115   4.946   0.859
48071SOL     OW46045   8.439   7.453   3.625
48071SOL    HW146046   8.359   7.435   3.576
48071SOL    HW246047   8.425   7.540   3.663
48072SOL     OW46048   1.099   4.785   7.857
48072SOL    HW146049   1.059   4.871   7.864
48072SOL    HW246050   1.026   4.724   7.867
48073SOL     OW46051  14.592   3.745  12.573
48073SOL    HW146052  14.609   3.814  12.509
48073SOL    HW246053  14.518   3.778  12.624
48074SOL     OW46054  13.672  12.187   3.361
48074SOL    HW146055  13.762  12.155   3.353
48074SOL    HW246056  13.673  12.274   3.321
48075SOL     OW46057   8.282   2.001   3.901
48075SOL    HW146058   8.355   2.043   3.856
48075SOL    HW246059   8.255   1.929   3.844
48076SOL     OW46060   0.475   9.304   8.285
48076SOL    HW146061   0.473   9.324   8.191
48076SOL    HW246062   0.449   9.386   8.327
48077SOL     OW46063   4.836   5.668  10.644
48077SOL    HW146064   4.911   5.711  10.685
48077SOL    HW246065   4.822   5.714  10.562
48078SOL     OW46066   5.143  10.664   7.307
48078SOL    HW146067   5.117  10.755   7.317
48078SOL    HW246068   5.163  10.655   7.213
48079SOL     OW46069   1.006   9.781   3.320
48079SOL    HW146070   0.994   9.700   3.368
48079SOL    HW246071   0.963   9.766   3.236
48080SOL     OW46072   8.111   8.760   9.425
48080SOL    HW146073   8.143   8.793   9.509
48080SOL    HW246074   8.056   8.684   9.448
48081SOL     OW46075   3.028  13.241   3.838
48081SOL    HW146076   2.965  13.310   3.818
48081SOL    HW246077   2.976  13.161   3.839
48082SOL     OW46078  12.303  10.602   7.132
48082SOL    HW146079  12.259  10.611   7.047
48082SOL    HW246080  12.334  10.512   7.134
48083SOL     OW46081   0.386   3.930  13.503
48083SOL    HW146082   0.433   4.012  13.521
48083SOL    HW246083   0.437   3.889  13.433
48084SOL     OW46084  11.563   9.622   5.843
48084SOL    HW146085  11.654   9.644   5.822
48084SOL    HW246086  11.545   9.671   5.924
48085SOL     OW46087   8.666   4.176  10.139
48085SOL    HW146088   8.726   4.249  10.154
48085SOL    HW246089   8.722   4.101  10.121
48086SOL     OW46090  10.852   7.044   2.210
48086SOL    HW146091  10.923   7.019   2.152
48086SOL    HW246092  10.889   7.038   2.298
48087SOL     OW46093   2.869   2.122  11.504
48087SOL    HW146094   2.774   2.122  11.517
48087SOL    HW246095   2.905   2.132  11.593
48088SOL     OW46096   0.079  14.466   9.240
48088SOL    HW146097  14.870  14.486   9.286
48088SOL    HW246098   0.075  14.517   9.159
48089SOL     OW46099   4.273   5.911   8.093
48089SOL    HW146100   4.198   5.868   8.132
48089SOL    HW246101   4.243   5.942   8.008
48090SOL     OW46102  12.959   0.963   2.717
48090SOL    HW146103  13.051   0.937   2.715
48090SOL    HW246104  12.930   0.943   2.805
48091SOL     OW46105   0.741   8.078   8.309
48091SOL    HW146106   0.735   7.984   8.327
48091SOL    HW246107   0.702   8.089   8.223
48092SOL     OW46108   4.363   5.055   2.276
48092SOL    HW146109   4.453   5.024   2.290
48092SOL    HW246110   4.322   4.986   2.223
48093SOL     OW46111   6.952   3.884  11.258
48093SOL    HW146112   6.945   3.979  11.264
48093SOL    HW246113   6.991   3.868  11.172
48094SOL     OW46114  12.311  14.465  14.291
48094SOL    HW146115  12.335  14.407  14.218
48094SOL    HW246116  12.266  14.408  14.353
48095SOL     OW46117  12.021  10.314   6.719
48095SOL    HW146118  11.960  10.246   6.691
48095SOL    HW246119  12.084  10.268   6.775
48096SOL     OW46120  14.542  13.798   8.113
48096SOL    HW146121  14.466  13.838   8.156
48096SOL    HW246122  14.583  13.746   8.181
48097SOL     OW46123   6.643   5.246   3.831
48097SOL    HW146124   6.632   5.174   3.894
48097SOL    HW246125   6.559   5.249   3.784
48098SOL     OW46126   4.862   9.599  14.392
48098SOL    HW146127   4.891   9.548  14.468
48098SOL    HW246128   4.902   9.554  14.317
48099SOL     OW46129   8.184   7.681  12.782
48099SOL    HW146130   8.222   7.662  12.696
48099SOL    HW246131   8.257   7.669  12.843
48100SOL     OW46132   2.059   4.195  10.598
48100SOL    HW146133   2.022   4.108  10.613
48100SOL    HW246134   1.984   4.254  10.603
48101SOL     OW46135   8.612   1.710  10.044
48101SOL    HW146136   8.704   1.689  10.059
48101SOL    HW246137   8.575   1.629  10.008
48102SOL     OW46138   7.843   6.320   7.350
48102SOL    HW146139   7.844   6.411   7.318
48102SOL    HW246140   7.823   6.268   7.273
48103SOL     OW46141   9.514   2.143   3.012
48103SOL    HW146142   9.600   2.137   2.970
48103SOL    HW246143   9.501   2.237   3.026
48104SOL     OW46144  13.712   8.513   0.559
48104SOL    HW146145  13.740   8.604   0.567
48104SOL    HW246146  13.698   8.500   0.465
48105SOL     OW46147   9.700   5.362   4.489
48105SOL    HW146148   9.768   5.326   4.432
48105SOL    HW246149   9.667   5.438   4.441
48106SOL     OW46150  10.564   8.022   0.378
48106SOL    HW146151  10.477   8.043   0.414
48106SOL    HW246152  10.623   8.082   0.423
48107SOL     OW46153   8.674   4.646  13.429
48107SOL    HW146154   8.585   4.673  13.408
48107SOL    HW246155   8.702   4.593  13.355
48108SOL     OW46156  12.957  10.766   2.788
48108SOL    HW146157  12.915  10.728   2.712
48108SOL    HW246158  12.978  10.692   2.844
48109SOL     OW46159   2.199   3.538   1.199
48109SOL    HW146160   2.202   3.632   1.212
48109SOL    HW246161   2.233   3.501   1.280
48110SOL     OW46162  13.020   3.048   7.795
48110SOL    HW146163  13.087   3.006   7.850
48110SOL    HW246164  13.043   3.141   7.797
48111SOL     OW46165   3.918   7.560   3.293
48111SOL    HW146166   3.852   7.560   3.363
48111SOL    HW246167   3.874   7.602   3.219
48112SOL     OW46168   8.659   1.216   3.713
48112SOL    HW146169   8.570   1.188   3.694
48112SOL    HW246170   8.656   1.312   3.709
48113SOL     OW46171   7.378  12.281   5.442
48113SOL    HW146172   7.383  12.375   5.425
48113SOL    HW246173   7.422  12.240   5.368
48114SOL     OW46174   5.797  14.479   1.641
48114SOL    HW146175   5.833  14.406   1.591
48114SOL    HW246176   5.702  14.467   1.637
48115SOL     OW46177   0.047   3.867   5.434
48115SOL    HW146178   0.073   3.877   5.526
48115SOL    HW246179   0.022   3.775   5.426
48116SOL     OW46180  13.005   8.531   9.703
48116SOL    HW146181  13.048   8.480   9.772
48116SOL    HW246182  12.963   8.603   9.750
48117SOL     OW46183   6.340  12.699   5.298
48117SOL    HW146184   6.337  12.779   5.247
48117SOL    HW246185   6.250  12.665   5.297
48118SOL     OW46186   6.786   0.487  14.423
48118SOL    HW146187   6.878   0.462  14.433
48118SOL    HW246188   6.785   0.545  14.347
48119SOL     OW46189   1.135  11.747   7.383
48119SOL    HW146190   1.102  11.698   7.308
48119SOL    HW246191   1.089  11.712   7.458
48120SOL     OW46192   9.788   5.076  13.059
48120SOL    HW146193   9.796   5.127  12.978
48120SOL    HW246194   9.789   5.142  13.128
48121SOL     OW46195   5.397   6.005   8.066
48121SOL    HW146196   5.345   6.075   8.104
48121SOL    HW246197   5.346   5.976   7.990
48122SOL     OW46198   3.264   9.945   2.956
48122SOL    HW146199   3.339   9.983   2.911
48122SOL    HW246200   3.206  10.020   2.972
48123SOL     OW46201   8.282  11.905   4.635
48123SOL    HW146202   8.333  11.983   4.614
48123SOL    HW246203   8.232  11.929   4.713
48124SOL     OW46204   5.070   6.187   0.213
48124SOL    HW146205   5.144   6.217   0.266
48124SOL    HW246206   4.993   6.202   0.267
48125SOL     OW46207  11.065   6.568   1.496
48125SOL    HW146208  11.049   6.484   1.453
48125SOL    HW246209  10.997   6.575   1.562
48126SOL     OW46210  11.439   8.280   3.167
48126SOL    HW146211  11.357   8.328   3.164
48126SOL    HW246212  11.498   8.333   3.221
48127SOL     OW46213  10.347  10.813  12.137
48127SOL    HW146214  10.421  10.852  12.183
48127SOL    HW246215  10.385  10.775  12.058
48128SOL     OW46216  11.002  13.615   0.258
48128SOL    HW146217  11.038  13.547   0.200
48128SOL    HW246218  11.052  13.607   0.339
48129SOL     OW46219  14.384   8.312   0.110
48129SOL    HW146220  14.328   8.372   0.061
48129SOL    HW246221  14.473   8.339   0.090
48130SOL     OW46222   5.229   1.681  11.644
48130SOL    HW146223   5.257   1.665  11.734
48130SOL    HW246224   5.199   1.595  11.613
48131SOL     OW46225  13.287   3.346   5.313
48131SOL    HW146226  13.329   3.340   5.399
48131SOL    HW246227  13.262   3.256   5.292
48132SOL     OW46228   8.602   6.174   9.288
48132SOL    HW146229   8.695   6.155   9.280
48132SOL    HW246230   8.580   6.150   9.378
48133SOL     OW46231   9.558  11.982   7.741
48133SOL    HW146232   9.648  12.012   7.732
48133SOL    HW246233   9.520  12.040   7.807
48134SOL     OW46234   1.152   3.941   6.083
48134SOL    HW146235   1.190   3.957   6.169
48134SOL    HW246236   1.215   3.978   6.021
48135SOL     OW46237  13.031   8.025   0.246
48135SOL    HW146238  13.090   8.095   0.218
48135SOL    HW246239  13.090   7.956   0.278
48136SOL     OW46240   9.652   7.605   5.753
48136SOL    HW146241   9.625   7.637   5.667
48136SOL    HW246242   9.610   7.665   5.815
48137SOL     OW46243   4.656   9.672  14.576
48137SOL    HW146244   4.600   9.739  14.537
48137SOL    HW246245   4.717   9.648  14.505
48138SOL     OW46246  11.319   1.601   9.362
48138SOL    HW146247  11.254   1.610   9.432
48138SOL    HW246248  11.356   1.689   9.353
48139SOL     OW46249   7.737   7.632   0.244
48139SOL    HW146250   7.695   7.689   0.309
48139SOL    HW246251   7.686   7.551   0.246
48140SOL     OW46252   6.002  11.767   6.399
48140SOL    HW146253   6.035  11.744   6.312
48140SOL    HW246254   6.001  11.684   6.447
48141SOL     OW46255   0.152   1.640  12.503
48141SOL    HW146256   0.101   1.619  12.424
48141SOL    HW246257   0.087   1.671  12.566
48142SOL     OW46258   6.003  12.213  11.162
48142SOL    HW146259   5.973  12.128  11.196
48142SOL    HW246260   5.960  12.220  11.077
48143SOL     OW46261   6.377   6.122   7.938
48143SOL    HW146262   6.380   6.061   8.011
48143SOL    HW246263   6.366   6.208   7.978
48144SOL     OW46264   0.469  13.232   2.791
48144SOL    HW146265   0.521  13.153   2.777
48144SOL    HW246266   0.393  13.221   2.734
48145SOL     OW46267   9.246  12.961  13.121
48145SOL    HW146268   9.290  12.986  13.040
48145SOL    HW246269   9.156  12.993  13.110
48146SOL     OW46270   7.236   4.849   2.253
48146SOL    HW146271   7.254   4.943   2.246
48146SOL    HW246272   7.321   4.809   2.267
48147SOL     OW46273   7.992   0.453   5.741
48147SOL    HW146274   7.922   0.509   5.775
48147SOL    HW246275   8.066   0.513   5.728
48148SOL     OW46276   2.067   6.647  12.071
48148SOL    HW146277   2.030   6.607  11.992
48148SOL    HW246278   2.009   6.617  12.141
48149SOL     OW46279   1.448   7.067  11.786
48149SOL    HW146280   1.470   7.120  11.862
48149SOL    HW246281   1.498   7.106  11.714
48150SOL     OW46282  10.055  14.656  14.087
48150SOL    HW146283  10.013  14.572  14.108
48150SOL    HW246284  10.051  14.661  13.992
48151SOL     OW46285   4.117  12.027   5.697
48151SOL    HW146286   4.041  12.050   5.644
48151SOL    HW246287   4.081  11.989   5.777
48152SOL     OW46288   7.853  11.402   7.238
48152SOL    HW146289   7.813  11.445   7.162
48152SOL    HW246290   7.930  11.357   7.202
48153SOL     OW46291   5.165   2.297   5.885
48153SOL    HW146292   5.217   2.285   5.965
48153SOL    HW246293   5.227   2.331   5.821
48154SOL     OW46294  14.326  13.616   6.434
48154SOL    HW146295  14.255  13.643   6.376
48154SOL    HW246296  14.316  13.521   6.442
48155SOL     OW46297  12.475   5.131  10.300
48155SOL    HW146298  12.508   5.207  10.253
48155SOL    HW246299  12.438   5.166  10.381
48156SOL     OW46300   6.448   0.301   0.185
48156SOL    HW146301   6.376   0.282   0.245
48156SOL    HW246302   6.409   0.358   0.118
48157SOL     OW46303   5.096  14.066  10.966
48157SOL    HW146304   5.179  14.104  10.937
48157SOL    HW246305   5.119  13.977  10.995
48158SOL     OW46306   1.738   7.217   3.590
48158SOL    HW146307   1.706   7.168   3.514
48158SOL    HW246308   1.659   7.236   3.641
48159SOL     OW46309   8.125   0.792   7.650
48159SOL    HW146310   8.165   0.782   7.564
48159SOL    HW246311   8.166   0.723   7.703
48160SOL     OW46312   8.346   8.203   2.321
48160SOL    HW146313   8.306   8.164   2.399
48160SOL    HW246314   8.413   8.140   2.295
48161SOL     OW46315   8.287  13.537   6.017
48161SOL    HW146316   8.214  13.480   6.040
48161SOL    HW246317   8.248  13.605   5.962
48162SOL     OW46318   8.221   5.793   2.378
48162SOL    HW146319   8.142   5.799   2.432
48162SOL    HW246320   8.222   5.703   2.347
48163SOL     OW46321  11.243  13.913  14.412
48163SOL    HW146322  11.254  13.992  14.465
48163SOL    HW246323  11.207  13.849  14.474
48164SOL     OW46324  11.200   8.316   9.519
48164SOL    HW146325  11.172   8.396   9.474
48164SOL    HW246326  11.185   8.246   9.456
48165SOL     OW46327   4.997   5.632   7.261
48165SOL    HW146328   5.088   5.662   7.262
48165SOL    HW246329   4.969   5.646   7.171
48166SOL     OW46330   9.531   6.670   5.958
48166SOL    HW146331   9.518   6.763   5.945
48166SOL    HW246332   9.521   6.657   6.052
48167SOL     OW46333  11.739   3.876   9.569
48167SOL    HW146334  11.759   3.882   9.662
48167SOL    HW246335  11.741   3.782   9.550
48168SOL     OW46336   6.776  11.021   9.189
48168SOL    HW146337   6.807  11.003   9.278
48168SOL    HW246338   6.743  10.937   9.158
48169SOL     OW46339  12.369   1.674   2.856
48169SOL    HW146340  12.424   1.683   2.778
48169SOL    HW246341  12.426   1.699   2.929
48170SOL     OW46342   8.323   2.082  12.462
48170SOL    HW146343   8.337   1.995  12.500
48170SOL    HW246344   8.393   2.136  12.500
48171SOL     OW46345   0.325   7.425  12.560
48171SOL    HW146346   0.310   7.352  12.500
48171SOL    HW246347   0.260   7.413  12.629
48172SOL     OW46348   3.716  12.198  14.676
48172SOL    HW146349   3.736  12.292  14.668
48172SOL    HW246350   3.632  12.196  14.722
48173SOL     OW46351   2.529   0.289  14.028
48173SOL    HW146352   2.435   0.297  14.046
48173SOL    HW246353   2.535   0.222  13.960
48174SOL     OW46354   0.527  11.893   6.815
48174SOL    HW146355   0.511  11.975   6.769
48174SOL    HW246356   0.533  11.918   6.907
48175SOL     OW46357   0.461   3.847  10.140
48175SOL    HW146358   0.536   3.882  10.092
48175SOL    HW246359   0.393   3.914  10.131
48176SOL     OW46360   2.029   2.700   7.278
48176SOL    HW146361   2.102   2.758   7.261
48176SOL    HW246362   1.958   2.758   7.305
48177SOL     OW46363  12.152   6.280   0.719
48177SOL    HW146364  12.108   6.364   0.723
48177SOL    HW246365  12.245   6.301   0.734
48178SOL     OW46366   4.658   1.657   8.772
48178SOL    HW146367   4.637   1.744   8.806
48178SOL    HW246368   4.634   1.597   8.842
48179SOL     OW46369   8.562  12.698   2.906
48179SOL    HW146370   8.627  12.644   2.952
48179SOL    HW246371   8.534  12.644   2.833
48180SOL     OW46372   0.462   4.182   8.246
48180SOL    HW146373   0.384   4.213   8.290
48180SOL    HW246374   0.466   4.233   8.165
48181SOL     OW46375  13.154   9.676   9.490
48181SOL    HW146376  13.168   9.766   9.519
48181SOL    HW246377  13.123   9.685   9.400
48182SOL     OW46378   9.119  10.660   7.510
48182SOL    HW146379   9.100  10.588   7.571
48182SOL    HW246380   9.099  10.739   7.559
48183SOL     OW46381   5.765   1.528  11.382
48183SOL    HW146382   5.702   1.501  11.449
48183SOL    HW246383   5.819   1.594  11.426
48184SOL     OW46384  11.570  11.212  14.529
48184SOL    HW146385  11.560  11.274  14.457
48184SOL    HW246386  11.647  11.160  14.506
48185SOL     OW46387   0.743  10.222  11.654
48185SOL    HW146388   0.699  10.195  11.573
48185SOL    HW246389   0.711  10.311  11.669
48186SOL     OW46390   4.200   1.217   0.207
48186SOL    HW146391   4.159   1.132   0.192
48186SOL    HW246392   4.126   1.276   0.223
48187SOL     OW46393   6.754   7.105   4.130
48187SOL    HW146394   6.801   7.037   4.082
48187SOL    HW246395   6.776   7.186   4.086
48188SOL     OW46396  12.007  14.461  11.883
48188SOL    HW146397  11.920  14.500  11.884
48188SOL    HW246398  12.025  14.445  11.790
48189SOL     OW46399   7.890  14.622  10.369
48189SOL    HW146400   7.886  14.534  10.331
48189SOL    HW246401   7.801  14.638  10.401
48190SOL     OW46402  12.616  12.227   6.665
48190SOL    HW146403  12.600  12.225   6.759
48190SOL    HW246404  12.631  12.319   6.645
48191SOL     OW46405   5.120   3.096   3.710
48191SOL    HW146406   5.061   3.153   3.759
48191SOL    HW246407   5.062   3.032   3.668
48192SOL     OW46408  11.172   2.999  12.375
48192SOL    HW146409  11.088   3.010  12.420
48192SOL    HW246410  11.163   3.050  12.295
48193SOL     OW46411  11.917   7.828   3.572
48193SOL    HW146412  11.852   7.765   3.602
48193SOL    HW246413  11.964   7.782   3.503
48194SOL     OW46414   2.337   1.338   0.029
48194SOL    HW146415   2.308   1.386   0.107
48194SOL    HW246416   2.432   1.338   0.035
48195SOL     OW46417   6.213   6.309   2.751
48195SOL    HW146418   6.213   6.359   2.669
48195SOL    HW246419   6.132   6.258   2.747
48196SOL     OW46420   1.130   5.066   1.355
48196SOL    HW146421   1.065   4.995   1.355
48196SOL    HW246422   1.099   5.125   1.285
48197SOL     OW46423   3.340   2.183  13.369
48197SOL    HW146424   3.254   2.164  13.332
48197SOL    HW246425   3.328   2.175  13.463
48198SOL     OW46426   7.625   7.994  14.334
48198SOL    HW146427   7.556   7.944  14.290
48198SOL    HW246428   7.662   7.934  14.398
48199SOL     OW46429  11.782   2.857   7.151
48199SOL    HW146430  11.833   2.776   7.140
48199SOL    HW246431  11.821   2.918   7.088
48200SOL     OW46432   8.884  11.481  10.091
48200SOL    HW146433   8.831  11.501  10.168
48200SOL    HW246434   8.960  11.434  10.126
48201SOL     OW46435   4.210   0.056   4.651
48201SOL    HW146436   4.166  14.860   4.702
48201SOL    HW246437   4.139   0.107   4.613
48202SOL     OW46438   5.859   0.817   9.060
48202SOL    HW146439   5.894   0.757   9.126
48202SOL    HW246440   5.859   0.766   8.979
48203SOL     OW46441   7.905   7.640  13.319
48203SOL    HW146442   7.980   7.681  13.277
48203SOL    HW246443   7.860   7.594  13.248
48204SOL     OW46444   3.760   9.729  12.633
48204SOL    HW146445   3.840   9.730  12.580
48204SOL    HW246446   3.765   9.809  12.684
48205SOL     OW46447   7.679   2.453   7.690
48205SOL    HW146448   7.723   2.377   7.727
48205SOL    HW246449   7.723   2.528   7.730
48206SOL     OW46450   9.033   7.173   7.424
48206SOL    HW146451   9.000   7.141   7.340
48206SOL    HW246452   9.064   7.262   7.406
48207SOL     OW46453   0.600   2.397   8.191
48207SOL    HW146454   0.622   2.428   8.103
48207SOL    HW246455   0.620   2.471   8.248
48208SOL     OW46456  13.762   3.052   9.045
48208SOL    HW146457  13.783   3.111   9.118
48208SOL    HW246458  13.824   3.076   8.977
48209SOL     OW46459   6.099   1.903  10.431
48209SOL    HW146460   6.026   1.842  10.439
48209SOL    HW246461   6.144   1.876  10.351
48210SOL     OW46462   7.796   7.298  12.914
48210SOL    HW146463   7.881   7.257  12.897
48210SOL    HW246464   7.735   7.225  12.925
48211SOL     OW46465   5.289   3.574   8.137
48211SOL    HW146466   5.305   3.668   8.149
48211SOL    HW246467   5.304   3.558   8.044
48212SOL     OW46468   6.759  11.497  14.207
48212SOL    HW146469   6.823  11.531  14.145
48212SOL    HW246470   6.719  11.423  14.162
48213SOL     OW46471   7.653   0.250  12.426
48213SOL    HW146472   7.580   0.268  12.366
48213SOL    HW246473   7.731   0.276  12.377
48214SOL     OW46474  14.776  13.326   4.549
48214SOL    HW146475  14.796  13.287   4.464
48214SOL    HW246476  14.761  13.418   4.531
48215SOL     OW46477   9.460  13.702  11.658
48215SOL    HW146478   9.365  13.703  11.668
48215SOL    HW246479   9.480  13.783  11.613
48216SOL     OW46480   3.417  13.033   7.974
48216SOL    HW146481   3.322  13.034   7.962
48216SOL    HW246482   3.431  13.059   8.065
48217SOL     OW46483   6.690   2.920   6.430
48217SOL    HW146484   6.697   2.837   6.477
48217SOL    HW246485   6.780   2.945   6.411
48218SOL     OW46486  10.136   4.625   0.173
48218SOL    HW146487  10.079   4.576   0.114
48218SOL    HW246488  10.100   4.714   0.174
48219SOL     OW46489   9.967  12.002   0.354
48219SOL    HW146490   9.945  11.909   0.357
48219SOL    HW246491   9.896  12.042   0.305
48220SOL     OW46492  11.041   8.604   7.417
48220SOL    HW146493  11.064   8.589   7.325
48220SOL    HW246494  10.965   8.663   7.414
48221SOL     OW46495   2.470   4.023   9.668
48221SOL    HW146496   2.466   3.928   9.657
48221SOL    HW246497   2.432   4.040   9.753
48222SOL     OW46498  14.398  10.557  12.766
48222SOL    HW146499  14.325  10.610  12.734
48222SOL    HW246500  14.390  10.474  12.719
48223SOL     OW46501   3.302   9.600  10.591
48223SOL    HW146502   3.350   9.534  10.540
48223SOL    HW246503   3.369   9.664  10.616
48224SOL     OW46504   1.165   6.544   9.175
48224SOL    HW146505   1.222   6.597   9.231
48224SOL    HW246506   1.224   6.480   9.134
48225SOL     OW46507   1.393   7.845   6.552
48225SOL    HW146508   1.416   7.819   6.641
48225SOL    HW246509   1.300   7.865   6.556
48226SOL     OW46510   7.562   0.768   0.588
48226SOL    HW146511   7.639   0.812   0.553
48226SOL    HW246512   7.497   0.838   0.597
48227SOL     OW46513   6.041  14.644   7.708
48227SOL    HW146514   5.998  14.603   7.633
48227SOL    HW246515   6.053  14.573   7.771
48228SOL     OW46516   9.038   9.832   6.067
48228SOL    HW146517   9.110   9.785   6.026
48228SOL    HW246518   8.971   9.838   5.999
48229SOL     OW46519  11.710  14.659  11.312
48229SOL    HW146520  11.757  14.609  11.379
48229SOL    HW246521  11.768  14.733  11.293
48230SOL     OW46522   4.801  12.274   4.544
48230SOL    HW146523   4.747  12.304   4.471
48230SOL    HW246524   4.859  12.347   4.563
48231SOL     OW46525   1.476  14.168   5.734
48231SOL    HW146526   1.434  14.104   5.791
48231SOL    HW246527   1.406  14.201   5.679
48232SOL     OW46528  14.034   4.265   5.939
48232SOL    HW146529  14.046   4.182   5.893
48232SOL    HW246530  14.060   4.246   6.030
48233SOL     OW46531  11.417   8.884  12.246
48233SOL    HW146532  11.509   8.875  12.267
48233SOL    HW246533  11.371   8.849  12.322
48234SOL     OW46534   6.373   9.805   8.489
48234SOL    HW146535   6.408   9.762   8.567
48234SOL    HW246536   6.414   9.892   8.490
48235SOL     OW46537   0.675   7.933  13.612
48235SOL    HW146538   0.607   7.869  13.633
48235SOL    HW246539   0.628   8.008  13.577
48236SOL     OW46540   2.781  10.526   8.256
48236SOL    HW146541   2.775  10.467   8.331
48236SOL    HW246542   2.875  10.544   8.248
48237SOL     OW46543  10.591  10.855   3.161
48237SOL    HW146544  10.631  10.769   3.172
48237SOL    HW246545  10.661  10.909   3.125
48238SOL     OW46546   2.270  10.078   8.312
48238SOL    HW146547   2.234  10.021   8.379
48238SOL    HW246548   2.202  10.082   8.245
48239SOL     OW46549  10.801   8.737  11.198
48239SOL    HW146550  10.833   8.827  11.206
48239SOL    HW246551  10.735   8.729  11.267
48240SOL     OW46552   8.314  11.405  14.087
48240SOL    HW146553   8.310  11.400  14.183
48240SOL    HW246554   8.222  11.408  14.060
48241SOL     OW46555  11.916   2.686   4.849
48241SOL    HW146556  11.951   2.599   4.825
48241SOL    HW246557  11.825   2.669   4.874
48242SOL     OW46558   8.875   0.634   2.217
48242SOL    HW146559   8.822   0.634   2.297
48242SOL    HW246560   8.851   0.716   2.173
48243SOL     OW46561  12.342   1.547   1.475
48243SOL    HW146562  12.260   1.569   1.429
48243SOL    HW246563  12.320   1.555   1.568
48244SOL     OW46564   6.072   2.463   7.130
48244SOL    HW146565   6.164   2.463   7.102
48244SOL    HW246566   6.060   2.379   7.174
48245SOL     OW46567   8.515  14.105   3.825
48245SOL    HW146568   8.465  14.077   3.748
48245SOL    HW246569   8.592  14.150   3.789
48246SOL     OW46570  14.240   4.905   4.177
48246SOL    HW146571  14.150   4.895   4.208
48246SOL    HW246572  14.252   4.831   4.116
48247SOL     OW46573  11.387   0.505  13.733
48247SOL    HW146574  11.413   0.437  13.671
48247SOL    HW246575  11.368   0.582  13.678
48248SOL     OW46576   2.217  14.036   3.737
48248SOL    HW146577   2.171  13.974   3.681
48248SOL    HW246578   2.269  14.089   3.677
48249SOL     OW46579   8.450   3.165   0.046
48249SOL    HW146580   8.507   3.167  14.842
48249SOL    HW246581   8.419   3.075   0.052
48250SOL     OW46582   0.258   0.589  12.000
48250SOL    HW146583   0.254   0.501  11.962
48250SOL    HW246584   0.339   0.589  12.050
48251SOL     OW46585   8.520  11.083   9.799
48251SOL    HW146586   8.443  11.097   9.745
48251SOL    HW246587   8.519  11.154   9.863
48252SOL     OW46588  11.817  10.929   0.948
48252SOL    HW146589  11.872  10.996   0.906
48252SOL    HW246590  11.728  10.949   0.920
48253SOL     OW46591   3.590   7.816  10.409
48253SOL    HW146592   3.646   7.819  10.331
48253SOL    HW246593   3.504   7.789  10.376
48254SOL     OW46594   4.965  14.239   0.765
48254SOL    HW146595   4.882  14.257   0.809
48254SOL    HW246596   5.020  14.314   0.787
48255SOL     OW46597   5.426   8.932  12.036
48255SOL    HW146598   5.373   9.012  12.030
48255SOL    HW246599   5.391   8.886  12.112
48256SOL     OW46600   6.803   4.271   7.428
48256SOL    HW146601   6.787   4.176   7.420
48256SOL    HW246602   6.720   4.306   7.459
48257SOL     OW46603   8.680   0.528   7.384
48257SOL    HW146604   8.660   0.568   7.299
48257SOL    HW246605   8.603   0.548   7.438
48258SOL     OW46606  12.867   4.093   8.945
48258SOL    HW146607  12.865   4.029   8.874
48258SOL    HW246608  12.784   4.141   8.937
48259SOL     OW46609  14.508   6.562   4.399
48259SOL    HW146610  14.469   6.524   4.321
48259SOL    HW246611  14.438   6.558   4.465
48260SOL     OW46612   9.231   4.155   5.855
48260SOL    HW146613   9.305   4.121   5.805
48260SOL    HW246614   9.191   4.220   5.797
48261SOL     OW46615  12.844   9.382   0.889
48261SOL    HW146616  12.896   9.460   0.908
48261SOL    HW246617  12.909   9.313   0.875
48262SOL     OW46618   5.889   9.505   0.385
48262SOL    HW146619   5.876   9.438   0.318
48262SOL    HW246620   5.948   9.569   0.343
48263SOL     OW46621   7.829   4.338   5.860
48263SOL    HW146622   7.852   4.271   5.924
48263SOL    HW246623   7.869   4.308   5.779
48264SOL     OW46624   0.872   8.094   6.512
48264SOL    HW146625   0.959   8.084   6.474
48264SOL    HW246626   0.814   8.044   6.454
48265SOL     OW46627  11.543   1.401   1.080
48265SOL    HW146628  11.538   1.353   1.163
48265SOL    HW246629  11.624   1.370   1.039
48266SOL     OW46630   1.956   0.054   0.794
48266SOL    HW146631   2.033   0.005   0.823
48266SOL    HW246632   1.920   0.001   0.722
48267SOL     OW46633  13.672   5.369   0.143
48267SOL    HW146634  13.630   5.444   0.185
48267SOL    HW246635  13.747   5.406   0.097
48268SOL     OW46636   3.989   9.261   2.480
48268SOL    HW146637   4.014   9.169   2.478
48268SOL    HW246638   3.979   9.281   2.574
48269SOL     OW46639   4.072   9.102   1.381
48269SOL    HW146640   4.155   9.138   1.414
48269SOL    HW246641   4.085   9.097   1.286
48270SOL     OW46642  14.741   2.396   2.061
48270SOL    HW146643  14.646   2.397   2.046
48270SOL    HW246644  14.753   2.452   2.138
48271SOL     OW46645   2.114   6.690   6.679
48271SOL    HW146646   2.064   6.757   6.632
48271SOL    HW246647   2.173   6.739   6.737
48272SOL     OW46648   8.060  12.547   1.122
48272SOL    HW146649   7.995  12.508   1.063
48272SOL    HW246650   8.042  12.641   1.118
48273SOL     OW46651  12.673   2.008   3.860
48273SOL    HW146652  12.748   2.067   3.865
48273SOL    HW246653  12.617   2.034   3.933
48274SOL     OW46654   6.837   3.884   0.888
48274SOL    HW146655   6.841   3.810   0.827
48274SOL    HW246656   6.886   3.954   0.844
48275SOL     OW46657   5.110   8.039  14.693
48275SOL    HW146658   5.185   8.036  14.753
48275SOL    HW246659   5.109   8.129  14.660
48276SOL     OW46660   2.138   6.334  10.413
48276SOL    HW146661   2.075   6.395  10.373
48276SOL    HW246662   2.157   6.271  10.344
48277SOL     OW46663   2.828  11.943   0.630
48277SOL    HW146664   2.905  11.917   0.680
48277SOL    HW246665   2.813  11.871   0.569
48278SOL     OW46666  11.173   6.378   3.033
48278SOL    HW146667  11.159   6.457   3.086
48278SOL    HW246668  11.254   6.340   3.066
48279SOL     OW46669   7.749   4.468   8.161
48279SOL    HW146670   7.764   4.404   8.091
48279SOL    HW246671   7.667   4.511   8.137
48280SOL     OW46672   4.076   2.369   2.168
48280SOL    HW146673   4.127   2.295   2.200
48280SOL    HW246674   4.072   2.429   2.243
48281SOL     OW46675   9.413   2.718   6.157
48281SOL    HW146676   9.386   2.633   6.121
48281SOL    HW246677   9.330   2.763   6.174
48282SOL     OW46678  11.038   5.043   5.034
48282SOL    HW146679  10.974   5.074   5.098
48282SOL    HW246680  11.101   4.992   5.086
48283SOL     OW46681   8.173   7.534   2.346
48283SOL    HW146682   8.266   7.535   2.371
48283SOL    HW246683   8.135   7.609   2.391
48284SOL     OW46684  11.711   4.202   3.487
48284SOL    HW146685  11.700   4.245   3.572
48284SOL    HW246686  11.662   4.120   3.495
48285SOL     OW46687   7.383   0.023   1.507
48285SOL    HW146688   7.368   0.005   1.415
48285SOL    HW246689   7.458   0.082   1.509
48286SOL     OW46690  14.398   6.983   1.401
48286SOL    HW146691  14.409   6.908   1.343
48286SOL    HW246692  14.447   7.053   1.358
48287SOL     OW46693  13.262  10.337   8.379
48287SOL    HW146694  13.303  10.311   8.460
48287SOL    HW246695  13.249  10.255   8.331
48288SOL     OW46696   6.967  14.079   9.880
48288SOL    HW146697   6.978  14.087   9.785
48288SOL    HW246698   6.877  14.047   9.891
48289SOL     OW46699   1.171   1.804  10.432
48289SOL    HW146700   1.163   1.863  10.507
48289SOL    HW246701   1.239   1.844  10.377
48290SOL     OW46702   7.747   6.927   7.771
48290SOL    HW146703   7.743   6.840   7.733
48290SOL    HW246704   7.703   6.983   7.707
48291SOL     OW46705  13.332   1.962  11.326
48291SOL    HW146706  13.366   2.038  11.278
48291SOL    HW246707  13.388   1.889  11.298
48292SOL     OW46708  12.400   8.668  12.103
48292SOL    HW146709  12.458   8.727  12.151
48292SOL    HW246710  12.399   8.588  12.154
48293SOL     OW46711   3.161   6.434   5.032
48293SOL    HW146712   3.103   6.371   4.989
48293SOL    HW246713   3.102   6.501   5.067
48294SOL     OW46714   6.588   0.554   5.107
48294SOL    HW146715   6.681   0.538   5.126
48294SOL    HW246716   6.556   0.599   5.185
48295SOL     OW46717   3.955   3.462   9.959
48295SOL    HW146718   3.862   3.472   9.980
48295SOL    HW246719   3.999   3.458  10.044
48296SOL     OW46720   2.506   7.420   2.866
48296SOL    HW146721   2.560   7.410   2.944
48296SOL    HW246722   2.416   7.428   2.900
48297SOL     OW46723  10.687  10.489   7.255
48297SOL    HW146724  10.724  10.532   7.332
48297SOL    HW246725  10.618  10.548   7.225
48298SOL     OW46726   3.364   8.124   8.913
48298SOL    HW146727   3.432   8.092   8.973
48298SOL    HW246728   3.302   8.051   8.905
48299SOL     OW46729   9.374  13.439   5.261
48299SOL    HW146730   9.298  13.402   5.306
48299SOL    HW246731   9.338  13.490   5.189
48300SOL     OW46732   7.566   9.837   6.429
48300SOL    HW146733   7.623   9.914   6.430
48300SOL    HW246734   7.622   9.766   6.398
48301SOL     OW46735   1.906   1.060  10.425
48301SOL    HW146736   1.937   0.971  10.439
48301SOL    HW246737   1.970   1.115  10.472
48302SOL     OW46738   2.987  11.792   3.403
48302SOL    HW146739   2.943  11.716   3.442
48302SOL    HW246740   3.080  11.772   3.412
48303SOL     OW46741  13.260  10.467   0.772
48303SOL    HW146742  13.247  10.550   0.818
48303SOL    HW246743  13.347  10.475   0.732
48304SOL     OW46744   4.846   6.131   8.995
48304SOL    HW146745   4.770   6.096   8.948
48304SOL    HW246746   4.862   6.217   8.956
48305SOL     OW46747  14.378   5.925   2.309
48305SOL    HW146748  14.423   6.008   2.323
48305SOL    HW246749  14.364   5.891   2.397
48306SOL     OW46750  13.226  13.239  13.489
48306SOL    HW146751  13.251  13.253  13.580
48306SOL    HW246752  13.308  13.215  13.445
48307SOL     OW46753   3.201  11.341  11.596
48307SOL    HW146754   3.199  11.387  11.680
48307SOL    HW246755   3.240  11.403  11.535
48308SOL     OW46756  10.102   1.133  14.345
48308SOL    HW146757  10.157   1.210  14.356
48308SOL    HW246758  10.070   1.113  14.433
48309SOL     OW46759   8.049   2.676   8.829
48309SOL    HW146760   8.104   2.713   8.898
48309SOL    HW246761   7.996   2.609   8.873
48310SOL     OW46762   1.981   8.601   1.022
48310SOL    HW146763   2.016   8.674   1.073
48310SOL    HW246764   1.916   8.641   0.964
48311SOL     OW46765   2.822  13.609   2.628
48311SOL    HW146766   2.773  13.558   2.564
48311SOL    HW246767   2.867  13.675   2.575
48312SOL     OW46768   4.963   7.405   2.853
48312SOL    HW146769   4.983   7.312   2.858
48312SOL    HW246770   5.037   7.443   2.805
48313SOL     OW46771   9.641  10.922  13.735
48313SOL    HW146772   9.715  10.948  13.790
48313SOL    HW246773   9.612  10.838  13.772
48314SOL     OW46774   4.177  14.106   9.346
48314SOL    HW146775   4.224  14.189   9.331
48314SOL    HW246776   4.090  14.122   9.311
48315SOL     OW46777  11.744   4.527   5.170
48315SOL    HW146778  11.656   4.557   5.192
48315SOL    HW246779  11.769   4.470   5.242
48316SOL     OW46780   7.830   7.950   6.359
48316SOL    HW146781   7.798   7.862   6.335
48316SOL    HW246782   7.783   7.971   6.439
48317SOL     OW46783   7.223   1.214   8.084
48317SOL    HW146784   7.157   1.233   8.018
48317SOL    HW246785   7.184   1.245   8.166
48318SOL     OW46786   1.738   5.334   3.744
48318SOL    HW146787   1.696   5.329   3.659
48318SOL    HW246788   1.804   5.402   3.735
48319SOL     OW46789   9.600  14.569   9.946
48319SOL    HW146790   9.629  14.478   9.935
48319SOL    HW246791   9.660  14.605  10.010
48320SOL     OW46792  13.514   5.711   2.163
48320SOL    HW146793  13.434   5.721   2.110
48320SOL    HW246794  13.576   5.772   2.124
48321SOL     OW46795   7.467   2.409   1.370
48321SOL    HW146796   7.406   2.478   1.398
48321SOL    HW246797   7.455   2.404   1.275
48322SOL     OW46798   7.158   5.355   7.425
48322SOL    HW146799   7.118   5.401   7.499
48322SOL    HW246800   7.170   5.265   7.456
48323SOL     OW46801  14.259  10.420   3.994
48323SOL    HW146802  14.339  10.368   4.003
48323SOL    HW246803  14.211  10.378   3.923
48324SOL     OW46804  11.070   0.642  14.276
48324SOL    HW146805  11.080   0.685  14.360
48324SOL    HW246806  11.147   0.586  14.267
48325SOL     OW46807   2.030   0.569   3.137
48325SOL    HW146808   2.110   0.545   3.182
48325SOL    HW246809   1.992   0.640   3.190
48326SOL     OW46810  11.070   8.093   1.680
48326SOL    HW146811  11.038   8.054   1.599
48326SOL    HW246812  11.010   8.166   1.698
48327SOL     OW46813  12.670   4.300   5.730
48327SOL    HW146814  12.719   4.223   5.699
48327SOL    HW246815  12.668   4.359   5.655
48328SOL     OW46816  13.669   1.350   0.617
48328SOL    HW146817  13.675   1.268   0.666
48328SOL    HW246818  13.697   1.328   0.529
48329SOL     OW46819   5.134  11.606   6.206
48329SOL    HW146820   5.116  11.624   6.114
48329SOL    HW246821   5.205  11.666   6.229
48330SOL     OW46822   2.432  14.802   6.086
48330SOL    HW146823   2.440   0.020   6.114
48330SOL    HW246824   2.345  14.775   6.115
48331SOL     OW46825   1.340   4.850   3.916
48331SOL    HW146826   1.254   4.893   3.920
48331SOL    HW246827   1.381   4.884   3.837
48332SOL     OW46828   4.310   7.757   8.507
48332SOL    HW146829   4.391   7.805   8.489
48332SOL    HW246830   4.339   7.672   8.540
48333SOL     OW46831   8.323   6.612   2.429
48333SOL    HW146832   8.336   6.614   2.334
48333SOL    HW246833   8.334   6.520   2.453
48334SOL     OW46834   2.509   5.910   6.048
48334SOL    HW146835   2.569   5.875   5.981
48334SOL    HW246836   2.557   5.901   6.130
48335SOL     OW46837   1.266   3.424   6.371
48335SOL    HW146838   1.226   3.503   6.409
48335SOL    HW246839   1.192   3.377   6.332
48336SOL     OW46840   7.275   7.667  14.416
48336SOL    HW146841   7.219   7.634  14.486
48336SOL    HW246842   7.215   7.679  14.341
48337SOL     OW46843   9.141   3.741   0.975
48337SOL    HW146844   9.167   3.649   0.975
48337SOL    HW246845   9.118   3.760   0.884
48338SOL     OW46846   1.586   9.728   0.084
48338SOL    HW146847   1.560   9.815   0.054
48338SOL    HW246848   1.554   9.723   0.174
48339SOL     OW46849   0.327   6.202   5.216
48339SOL    HW146850   0.373   6.223   5.298
48339SOL    HW246851   0.395   6.166   5.159
48340SOL     OW46852  11.795   5.255   5.895
48340SOL    HW146853  11.765   5.311   5.966
48340SOL    HW246854  11.774   5.166   5.923
48341SOL     OW46855   0.791   1.515   0.299
48341SOL    HW146856   0.765   1.428   0.269
48341SOL    HW246857   0.711   1.568   0.292
48342SOL     OW46858  12.510   8.947   9.460
48342SOL    HW146859  12.576   8.878   9.468
48342SOL    HW246860  12.477   8.938   9.370
48343SOL     OW46861  11.635   3.272   8.270
48343SOL    HW146862  11.682   3.190   8.285
48343SOL    HW246863  11.543   3.249   8.281
48344SOL     OW46864  12.159  12.919   0.435
48344SOL    HW146865  12.144  12.854   0.504
48344SOL    HW246866  12.231  12.972   0.467
48345SOL     OW46867   6.111  14.332  13.178
48345SOL    HW146868   6.057  14.260  13.210
48345SOL    HW246869   6.201  14.300  13.185
48346SOL     OW46870   6.390   6.426  12.245
48346SOL    HW146871   6.481   6.419  12.272
48346SOL    HW246872   6.351   6.487  12.307
48347SOL     OW46873  13.781  10.483   8.363
48347SOL    HW146874  13.755  10.393   8.342
48347SOL    HW246875  13.700  10.534   8.351
48348SOL     OW46876  10.277  14.857   4.224
48348SOL    HW146877  10.301  14.822   4.310
48348SOL    HW246878  10.236   0.068   4.243
48349SOL     OW46879  13.263   6.244  10.798
48349SOL    HW146880  13.317   6.165  10.793
48349SOL    HW246881  13.226   6.242  10.887
48350SOL     OW46882   6.691  12.359   5.289
48350SOL    HW146883   6.726  12.441   5.323
48350SOL    HW246884   6.634  12.385   5.217
48351SOL     OW46885  13.621  12.430   9.826
48351SOL    HW146886  13.650  12.419   9.736
48351SOL    HW246887  13.598  12.341   9.855
48352SOL     OW46888  11.010   4.046   0.039
48352SOL    HW146889  11.096   4.053   0.080
48352SOL    HW246890  10.994   3.952   0.033
48353SOL     OW46891  11.462   9.467   8.906
48353SOL    HW146892  11.408   9.441   8.981
48353SOL    HW246893  11.542   9.502   8.945
48354SOL     OW46894   6.831  10.145   3.817
48354SOL    HW146895   6.844  10.116   3.727
48354SOL    HW246896   6.776  10.078   3.856
48355SOL     OW46897   1.787  14.369  14.016
48355SOL    HW146898   1.838  14.403  14.090
48355SOL    HW246899   1.707  14.335  14.055
48356SOL     OW46900   8.765  11.432   0.526
48356SOL    HW146901   8.693  11.489   0.501
48356SOL    HW246902   8.831  11.447   0.458
48357SOL     OW46903   9.881   8.819   1.033
48357SOL    HW146904   9.816   8.837   0.965
48357SOL    HW246905   9.937   8.897   1.033
48358SOL     OW46906  11.006  12.825  11.309
48358SOL    HW146907  10.954  12.904  11.314
48358SOL    HW246908  10.943  12.753  11.317
48359SOL     OW46909   3.850   3.435   8.200
48359SOL    HW146910   3.907   3.487   8.256
48359SOL    HW246911   3.763   3.474   8.211
48360SOL     OW46912   4.143   8.839  12.302
48360SOL    HW146913   4.227   8.801  12.328
48360SOL    HW246914   4.085   8.821  12.376
48361SOL     OW46915   1.197   0.432  11.169
48361SOL    HW146916   1.134   0.493  11.209
48361SOL    HW246917   1.143   0.358  11.141
48362SOL     OW46918   0.192   9.605  13.174
48362SOL    HW146919   0.177   9.511  13.169
48362SOL    HW246920   0.261   9.623  13.111
48363SOL     OW46921   2.222   0.465   0.291
48363SOL    HW146922   2.196   0.541   0.240
48363SOL    HW246923   2.143   0.441   0.340
48364SOL     OW46924  12.129   5.146   1.227
48364SOL    HW146925  12.081   5.067   1.250
48364SOL    HW246926  12.117   5.205   1.302
48365SOL     OW46927   6.774   0.498   5.486
48365SOL    HW146928   6.848   0.494   5.547
48365SOL    HW246929   6.752   0.591   5.482
48366SOL     OW46930   3.314  10.176   9.133
48366SOL    HW146931   3.307  10.152   9.226
48366SOL    HW246932   3.233  10.222   9.114
48367SOL     OW46933  12.109  11.750  10.542
48367SOL    HW146934  12.058  11.830  10.551
48367SOL    HW246935  12.196  11.780  10.514
48368SOL     OW46936  10.571   2.914   1.056
48368SOL    HW146937  10.517   2.839   1.031
48368SOL    HW246938  10.558   2.923   1.151
48369SOL     OW46939   6.368  10.027   6.255
48369SOL    HW146940   6.351   9.967   6.327
48369SOL    HW246941   6.419  10.098   6.294
48370SOL     OW46942  11.500   5.949   5.028
48370SOL    HW146943  11.481   5.900   5.108
48370SOL    HW246944  11.558   6.019   5.055
48371SOL     OW46945   9.845   9.741  11.186
48371SOL    HW146946   9.784   9.716  11.255
48371SOL    HW246947   9.919   9.681  11.196
48372SOL     OW46948  13.658   5.035   4.173
48372SOL    HW146949  13.660   5.073   4.085
48372SOL    HW246950  13.679   4.943   4.160
48373SOL     OW46951   6.212   2.140  13.086
48373SOL    HW146952   6.131   2.191  13.100
48373SOL    HW246953   6.273   2.175  13.152
48374SOL     OW46954   3.055  12.153   1.032
48374SOL    HW146955   3.098  12.073   1.061
48374SOL    HW246956   2.987  12.168   1.098
48375SOL     OW46957   7.992   2.213   0.515
48375SOL    HW146958   7.950   2.299   0.518
48375SOL    HW246959   7.941   2.164   0.451
48376SOL     OW46960   8.613   8.137   1.594
48376SOL    HW146961   8.666   8.156   1.516
48376SOL    HW246962   8.678   8.128   1.664
48377SOL     OW46963   0.260   0.304   6.784
48377SOL    HW146964   0.218   0.230   6.828
48377SOL    HW246965   0.208   0.380   6.810
48378SOL     OW46966   0.891   0.734  12.447
48378SOL    HW146967   0.928   0.762  12.363
48378SOL    HW246968   0.895   0.638  12.444
48379SOL     OW46969   9.391   3.033   4.765
48379SOL    HW146970   9.350   2.960   4.811
48379SOL    HW246971   9.332   3.052   4.692
48380SOL     OW46972   5.216   2.848   3.562
48380SOL    HW146973   5.311   2.854   3.552
48380SOL    HW246974   5.203   2.766   3.610
48381SOL     OW46975   3.441  12.375   6.377
48381SOL    HW146976   3.489  12.293   6.378
48381SOL    HW246977   3.379  12.368   6.449
48382SOL     OW46978  10.492   3.630   6.621
48382SOL    HW146979  10.520   3.705   6.673
48382SOL    HW246980  10.403   3.650   6.594
48383SOL     OW46981   1.341   3.528  14.533
48383SOL    HW146982   1.328   3.435  14.517
48383SOL    HW246983   1.266   3.570  14.492
48384SOL     OW46984   2.731   2.879   1.455
48384SOL    HW146985   2.659   2.825   1.423
48384SOL    HW246986   2.698   2.920   1.535
48385SOL     OW46987   7.512   0.041   5.684
48385SOL    HW146988   7.499   0.087   5.601
48385SOL    HW246989   7.588   0.083   5.724
48386SOL     OW46990   0.964   5.674   5.762
48386SOL    HW146991   0.944   5.615   5.835
48386SOL    HW246992   0.967   5.761   5.801
48387SOL     OW46993   8.668   0.069   8.605
48387SOL    HW146994   8.722   0.122   8.545
48387SOL    HW246995   8.688  14.851   8.581
48388SOL     OW46996  11.016   8.284  13.177
48388SOL    HW146997  10.927   8.253  13.198
48388SOL    HW246998  11.063   8.276  13.260
48389SOL     OW46999  10.060  14.032   1.387
48389SOL    HW147000  10.087  13.942   1.403
48389SOL    HW247001  10.011  14.028   1.304
48390SOL     OW47002   6.365   5.380   1.006
48390SOL    HW147003   6.338   5.288   1.000
48390SOL    HW247004   6.319   5.423   0.933
48391SOL     OW47005   6.192   5.907   9.602
48391SOL    HW147006   6.136   5.831   9.610
48391SOL    HW247007   6.161   5.967   9.670
48392SOL     OW47008   5.795   2.635  11.111
48392SOL    HW147009   5.864   2.595  11.164
48392SOL    HW247010   5.800   2.589  11.027
48393SOL     OW47011   5.685   5.033  14.379
48393SOL    HW147012   5.742   5.067  14.310
48393SOL    HW247013   5.741   4.972  14.427
48394SOL     OW47014  13.167  11.686   5.952
48394SOL    HW147015  13.176  11.594   5.926
48394SOL    HW247016  13.228  11.733   5.895
48395SOL     OW47017   5.696   1.493  13.035
48395SOL    HW147018   5.710   1.425  12.969
48395SOL    HW247019   5.608   1.475  13.069
48396SOL     OW47020   4.561  11.396   2.955
48396SOL    HW147021   4.539  11.479   2.997
48396SOL    HW247022   4.486  11.378   2.898
48397SOL     OW47023   9.166   7.234  14.222
48397SOL    HW147024   9.240   7.294  14.212
48397SOL    HW247025   9.195   7.153  14.181
48398SOL     OW47026   2.212  13.141   8.300
48398SOL    HW147027   2.239  13.049   8.304
48398SOL    HW247028   2.257  13.175   8.222
48399SOL     OW47029   5.825   3.027   1.067
48399SOL    HW147030   5.856   2.948   1.023
48399SOL    HW247031   5.730   3.023   1.059
48400SOL     OW47032   3.570   0.807   8.714
48400SOL    HW147033   3.505   0.811   8.783
48400SOL    HW247034   3.551   0.883   8.659
48401SOL     OW47035   9.196   0.697  14.518
48401SOL    HW147036   9.141   0.705  14.596
48401SOL    HW247037   9.139   0.723  14.446
48402SOL     OW47038   1.681  13.356   4.901
48402SOL    HW147039   1.673  13.269   4.862
48402SOL    HW247040   1.611  13.359   4.967
48403SOL     OW47041  12.930  11.858  10.305
48403SOL    HW147042  12.994  11.917  10.344
48403SOL    HW247043  12.980  11.804  10.245
48404SOL     OW47044   8.270   9.318   4.623
48404SOL    HW147045   8.274   9.405   4.583
48404SOL    HW247046   8.216   9.267   4.563
48405SOL     OW47047  10.729  11.044   3.933
48405SOL    HW147048  10.671  11.008   4.000
48405SOL    HW247049  10.792  11.097   3.982
48406SOL     OW47050  13.692   3.734  12.594
48406SOL    HW147051  13.733   3.818  12.617
48406SOL    HW247052  13.604   3.739  12.632
48407SOL     OW47053  10.413   3.188   8.540
48407SOL    HW147054  10.487   3.177   8.599
48407SOL    HW247055  10.449   3.234   8.464
48408SOL     OW47056   6.043   2.610  11.737
48408SOL    HW147057   5.962   2.630  11.690
48408SOL    HW247058   6.105   2.676  11.706
48409SOL     OW47059  11.090  11.395  12.645
48409SOL    HW147060  11.078  11.488  12.663
48409SOL    HW247061  11.185  11.383  12.646
48410SOL     OW47062  13.903   0.370  11.810
48410SOL    HW147063  13.916   0.361  11.904
48410SOL    HW247064  13.810   0.350  11.796
48411SOL     OW47065  12.071   7.554  10.743
48411SOL    HW147066  12.115   7.544  10.659
48411SOL    HW247067  12.103   7.480  10.796
48412SOL     OW47068  11.180   9.736  13.569
48412SOL    HW147069  11.251   9.794  13.542
48412SOL    HW247070  11.124   9.791  13.624
48413SOL     OW47071  12.375   6.022  14.092
48413SOL    HW147072  12.380   5.998  13.999
48413SOL    HW247073  12.294   5.981  14.123
48414SOL     OW47074   7.455   9.694   0.130
48414SOL    HW147075   7.453   9.789   0.130
48414SOL    HW247076   7.468   9.670   0.038
48415SOL     OW47077  10.759   8.247  12.014
48415SOL    HW147078  10.712   8.186  12.071
48415SOL    HW247079  10.705   8.325  12.011
48416SOL     OW47080   5.652   1.619  13.310
48416SOL    HW147081   5.661   1.607  13.215
48416SOL    HW247082   5.741   1.613  13.344
48417SOL     OW47083   9.969   3.258   8.969
48417SOL    HW147084   9.878   3.284   8.952
48417SOL    HW247085   9.984   3.185   8.910
48418SOL     OW47086   1.201   1.076   4.580
48418SOL    HW147087   1.198   1.151   4.639
48418SOL    HW247088   1.280   1.090   4.527
48419SOL     OW47089   8.774   0.741   2.747
48419SOL    HW147090   8.728   0.825   2.749
48419SOL    HW247091   8.800   0.727   2.838
48420SOL     OW47092  10.580  12.290   2.449
48420SOL    HW147093  10.674  12.309   2.450
48420SOL    HW247094  10.570  12.217   2.510
48421SOL     OW47095   0.969  14.533   7.853
48421SOL    HW147096   1.052  14.492   7.829
48421SOL    HW247097   0.917  14.531   7.773
48422SOL     OW47098   8.753   7.111  10.846
48422SOL    HW147099   8.679   7.154  10.888
48422SOL    HW247100   8.715   7.063  10.773
48423SOL     OW47101   6.670   7.228   5.708
48423SOL    HW147102   6.715   7.267   5.783
48423SOL    HW247103   6.636   7.303   5.659
48424SOL     OW47104   4.783  13.635   7.749
48424SOL    HW147105   4.777  13.566   7.814
48424SOL    HW247106   4.726  13.705   7.782
48425SOL     OW47107  13.280  12.746   1.962
48425SOL    HW147108  13.296  12.822   2.018
48425SOL    HW247109  13.357  12.690   1.976
48426SOL     OW47110   7.776   3.282  10.436
48426SOL    HW147111   7.756   3.215  10.502
48426SOL    HW247112   7.740   3.246  10.355
48427SOL     OW47113   1.213   6.762   1.378
48427SOL    HW147114   1.198   6.857   1.378
48427SOL    HW247115   1.256   6.744   1.461
48428SOL     OW47116   2.380   4.102   8.105
48428SOL    HW147117   2.357   4.150   8.184
48428SOL    HW247118   2.418   4.020   8.138
48429SOL     OW47119  10.285   1.760   4.645
48429SOL    HW147120  10.366   1.787   4.688
48429SOL    HW247121  10.294   1.666   4.632
48430SOL     OW47122  12.816   9.170  14.241
48430SOL    HW147123  12.808   9.265  14.234
48430SOL    HW247124  12.769   9.136  14.165
48431SOL     OW47125   3.407  14.386  10.422
48431SOL    HW147126   3.412  14.473  10.381
48431SOL    HW247127   3.412  14.325  10.348
48432SOL     OW47128   6.763  13.923  13.630
48432SOL    HW147129   6.772  13.956  13.719
48432SOL    HW247130   6.779  13.999  13.574
48433SOL     OW47131  10.030   3.675   4.639
48433SOL    HW147132   9.956   3.736   4.645
48433SOL    HW247133   9.990   3.588   4.635
48434SOL     OW47134   1.128   4.358   2.696
48434SOL    HW147135   1.078   4.429   2.734
48434SOL    HW247136   1.101   4.280   2.744
48435SOL     OW47137   6.567  13.614   9.191
48435SOL    HW147138   6.487  13.647   9.232
48435SOL    HW247139   6.585  13.675   9.120
48436SOL     OW47140   3.280   4.109  10.421
48436SOL    HW147141   3.334   4.035  10.395
48436SOL    HW247142   3.210   4.113  10.356
48437SOL     OW47143  13.798   4.653   2.213
48437SOL    HW147144  13.760   4.606   2.287
48437SOL    HW247145  13.746   4.732   2.205
48438SOL     OW47146   7.154   0.258  14.196
48438SOL    HW147147   7.121   0.346  14.215
48438SOL    HW247148   7.236   0.252  14.244
48439SOL     OW47149  12.195  13.395   1.787
48439SOL    HW147150  12.177  13.302   1.802
48439SOL    HW247151  12.132  13.441   1.841
48440SOL     OW47152   1.113  11.633  13.842
48440SOL    HW147153   1.204  11.628  13.871
48440SOL    HW247154   1.117  11.678  13.757
48441SOL     OW47155   7.629   3.367  14.573
48441SOL    HW147156   7.713   3.369  14.527
48441SOL    HW247157   7.571   3.421  14.519
48442SOL     OW47158   0.701  13.361   3.039
48442SOL    HW147159   0.617  13.340   3.078
48442SOL    HW247160   0.765  13.321   3.098
48443SOL     OW47161  14.695   3.042   6.866
48443SOL    HW147162  14.651   3.102   6.926
48443SOL    HW247163  14.724   3.097   6.793
48444SOL     OW47164   5.500   5.466   3.918
48444SOL    HW147165   5.502   5.536   3.853
48444SOL    HW247166   5.592   5.443   3.932
48445SOL     OW47167   2.650  14.283  12.728
48445SOL    HW147168   2.560  14.276  12.695
48445SOL    HW247169   2.648  14.238  12.813
48446SOL     OW47170  12.029  12.456  10.221
48446SOL    HW147171  12.059  12.478  10.309
48446SOL    HW247172  12.079  12.378  10.197
48447SOL     OW47173  10.041   7.747   6.752
48447SOL    HW147174  10.063   7.717   6.663
48447SOL    HW247175  10.024   7.840   6.742
48448SOL     OW47176   0.866   4.627   4.590
48448SOL    HW147177   0.845   4.549   4.538
48448SOL    HW247178   0.781   4.668   4.608
48449SOL     OW47179  13.859   2.172   3.131
48449SOL    HW147180  13.832   2.124   3.053
48449SOL    HW247181  13.954   2.175   3.125
48450SOL     OW47182  14.846  10.832   0.217
48450SOL    HW147183   0.061  10.794   0.218
48450SOL    HW247184  14.851  10.907   0.277
48451SOL     OW47185   4.902   5.857   2.687
48451SOL    HW147186   4.976   5.831   2.742
48451SOL    HW247187   4.867   5.935   2.729
48452SOL     OW47188  14.686  10.207  14.675
48452SOL    HW147189  14.739  10.128  14.670
48452SOL    HW247190  14.644  10.213  14.589
48453SOL     OW47191   3.332   0.942  12.454
48453SOL    HW147192   3.267   0.901  12.512
48453SOL    HW247193   3.282   1.006  12.403
48454SOL     OW47194   0.140  11.878  13.455
48454SOL    HW147195   0.115  11.799  13.504
48454SOL    HW247196   0.058  11.908  13.415
48455SOL     OW47197  12.029   0.542   1.639
48455SOL    HW147198  12.081   0.473   1.598
48455SOL    HW247199  12.031   0.521   1.732
48456SOL     OW47200  14.203   8.487  14.832
48456SOL    HW147201  14.120   8.536  14.835
48456SOL    HW247202  14.224   8.481  14.739
48457SOL     OW47203  13.755   9.852  11.181
48457SOL    HW147204  13.803   9.901  11.115
48457SOL    HW247205  13.682   9.813  11.134
48458SOL     OW47206   3.716   9.544   5.767
48458SOL    HW147207   3.786   9.492   5.807
48458SOL    HW247208   3.756   9.580   5.688
48459SOL     OW47209   3.273   8.837   5.641
48459SOL    HW147210   3.368   8.836   5.640
48459SOL    HW247211   3.249   8.925   5.669
48460SOL     OW47212   1.488  10.627  10.835
48460SOL    HW147213   1.430  10.553  10.852
48460SOL    HW247214   1.428  10.697  10.805
48461SOL     OW47215   3.844   1.075   6.401
48461SOL    HW147216   3.841   1.168   6.424
48461SOL    HW247217   3.813   1.072   6.311
48462SOL     OW47218   1.522   3.746  11.330
48462SOL    HW147219   1.435   3.724  11.297
48462SOL    HW247220   1.564   3.661  11.343
48463SOL     OW47221   0.090  10.835   6.976
48463SOL    HW147222   0.141  10.904   6.934
48463SOL    HW247223   0.029  10.806   6.908
48464SOL     OW47224   7.938  11.928  13.720
48464SOL    HW147225   8.034  11.924  13.724
48464SOL    HW247226   7.917  12.016  13.749
48465SOL     OW47227  14.413  10.367   8.076
48465SOL    HW147228  14.459  10.322   8.006
48465SOL    HW247229  14.346  10.306   8.105
48466SOL     OW47230   9.570   6.691  12.972
48466SOL    HW147231   9.575   6.720  13.063
48466SOL    HW247232   9.575   6.771  12.921
48467SOL     OW47233  12.079  12.041  10.614
48467SOL    HW147234  12.064  12.056  10.521
48467SOL    HW247235  12.168  12.006  10.619
48468SOL     OW47236  11.132  11.166   4.641
48468SOL    HW147237  11.173  11.252   4.629
48468SOL    HW247238  11.202  11.111   4.676
48469SOL     OW47239   9.501  11.006   2.399
48469SOL    HW147240   9.409  11.023   2.379
48469SOL    HW247241   9.511  11.033   2.490
48470SOL     OW47242  10.437   8.215  12.348
48470SOL    HW147243  10.431   8.123  12.322
48470SOL    HW247244  10.515   8.219  12.404
48471SOL     OW47245  12.941   7.001  10.970
48471SOL    HW147246  12.938   7.006  11.066
48471SOL    HW247247  12.901   6.917  10.949
48472SOL     OW47248   9.058  14.377  10.129
48472SOL    HW147249   9.057  14.436  10.053
48472SOL    HW247250   8.988  14.314  10.112
48473SOL     OW47251   5.036   1.484   2.776
48473SOL    HW147252   5.124   1.520   2.767
48473SOL    HW247253   5.049   1.389   2.777
48474SOL     OW47254   8.705   6.802   2.158
48474SOL    HW147255   8.798   6.801   2.137
48474SOL    HW247256   8.676   6.890   2.134
48475SOL     OW47257   0.131   3.871   1.717
48475SOL    HW147258   0.142   3.912   1.632
48475SOL    HW247259   0.210   3.895   1.766
48476SOL     OW47260   2.384   2.453  13.694
48476SOL    HW147261   2.388   2.359  13.712
48476SOL    HW247262   2.291   2.470  13.678
48477SOL     OW47263   3.019   8.346   0.899
48477SOL    HW147264   3.100   8.294   0.896
48477SOL    HW247265   3.050   8.437   0.902
48478SOL     OW47266   6.334   0.066   3.872
48478SOL    HW147267   6.244   0.069   3.842
48478SOL    HW247268   6.330   0.098   3.962
48479SOL     OW47269   8.917  14.851   2.436
48479SOL    HW147270   8.958   0.063   2.447
48479SOL    HW247271   8.877  14.831   2.521
48480SOL     OW47272  13.168   9.910   3.954
48480SOL    HW147273  13.198   9.885   4.041
48480SOL    HW247274  13.079   9.941   3.967
48481SOL     OW47275  13.630   9.983   5.963
48481SOL    HW147276  13.595   9.939   6.041
48481SOL    HW247277  13.598  10.072   5.969
48482SOL     OW47278  10.499   6.380   9.633
48482SOL    HW147279  10.580   6.425   9.607
48482SOL    HW247280  10.482   6.318   9.563
48483SOL     OW47281   6.091   1.055  11.624
48483SOL    HW147282   5.998   1.048  11.601
48483SOL    HW247283   6.126   1.121  11.565
48484SOL     OW47284   4.719   6.893  11.614
48484SOL    HW147285   4.695   6.953  11.543
48484SOL    HW247286   4.644   6.835  11.622
48485SOL     OW47287  12.048   5.010   7.423
48485SOL    HW147288  11.987   4.945   7.388
48485SOL    HW247289  12.125   4.960   7.450
48486SOL     OW47290  13.938   6.701   9.872
48486SOL    HW147291  13.888   6.783   9.864
48486SOL    HW247292  13.872   6.632   9.868
48487SOL     OW47293   9.186   6.841   4.943
48487SOL    HW147294   9.154   6.901   4.876
48487SOL    HW247295   9.162   6.883   5.026
48488SOL     OW47296  14.165   5.641   9.712
48488SOL    HW147297  14.206   5.626   9.798
48488SOL    HW247298  14.196   5.568   9.658
48489SOL     OW47299  10.734  11.321   1.641
48489SOL    HW147300  10.676  11.246   1.627
48489SOL    HW247301  10.821  11.282   1.655
48490SOL     OW47302   4.556   5.459   5.601
48490SOL    HW147303   4.466   5.456   5.569
48490SOL    HW247304   4.596   5.531   5.554
48491SOL     OW47305   4.068   9.807   5.123
48491SOL    HW147306   4.085   9.863   5.047
48491SOL    HW247307   4.152   9.804   5.170
48492SOL     OW47308   6.276   8.465   7.339
48492SOL    HW147309   6.297   8.533   7.404
48492SOL    HW247310   6.320   8.495   7.259
48493SOL     OW47311  12.678   1.794  11.627
48493SOL    HW147312  12.628   1.876  11.622
48493SOL    HW247313  12.764   1.821  11.659
48494SOL     OW47314   3.750   3.275   6.668
48494SOL    HW147315   3.828   3.329   6.660
48494SOL    HW247316   3.729   3.276   6.762
48495SOL     OW47317   4.413   3.191  12.504
48495SOL    HW147318   4.345   3.246  12.465
48495SOL    HW247319   4.371   3.106  12.517
48496SOL     OW47320  10.779   4.493   3.043
48496SOL    HW147321  10.841   4.422   3.060
48496SOL    HW247322  10.704   4.451   3.002
48497SOL     OW47323   3.338  12.116   8.248
48497SOL    HW147324   3.260  12.114   8.302
48497SOL    HW247325   3.402  12.167   8.298
48498SOL     OW47326   7.161  11.260   8.177
48498SOL    HW147327   7.211  11.340   8.198
48498SOL    HW247328   7.097  11.253   8.247
48499SOL     OW47329   9.316  12.423   9.305
48499SOL    HW147330   9.347  12.381   9.385
48499SOL    HW247331   9.369  12.502   9.298
48500SOL     OW47332   6.637  11.360   4.219
48500SOL    HW147333   6.682  11.414   4.284
48500SOL    HW247334   6.545  11.382   4.229
48501SOL     OW47335   8.055   7.477   5.333
48501SOL    HW147336   8.088   7.495   5.421
48501SOL    HW247337   8.087   7.550   5.280
48502SOL     OW47338   9.256   5.901  14.808
48502SOL    HW147339   9.307   5.979  14.829
48502SOL    HW247340   9.170   5.935  14.784
48503SOL     OW47341   8.253   2.397   9.012
48503SOL    HW147342   8.252   2.416   8.918
48503SOL    HW247343   8.331   2.442   9.045
48504SOL     OW47344  14.391   0.873   3.227
48504SOL    HW147345  14.440   0.817   3.288
48504SOL    HW247346  14.442   0.871   3.146
48505SOL     OW47347   5.752   4.738   4.350
48505SOL    HW147348   5.678   4.729   4.290
48505SOL    HW247349   5.718   4.710   4.435
48506SOL     OW47350   4.596   6.300   1.019
48506SOL    HW147351   4.665   6.357   1.053
48506SOL    HW247352   4.515   6.334   1.057
48507SOL     OW47353   6.960  11.047   0.386
48507SOL    HW147354   6.990  11.063   0.476
48507SOL    HW247355   6.931  11.133   0.355
48508SOL     OW47356   9.431   4.514  11.537
48508SOL    HW147357   9.353   4.532  11.590
48508SOL    HW247358   9.397   4.483  11.453
48509SOL     OW47359   5.147   1.931   6.922
48509SOL    HW147360   5.239   1.956   6.928
48509SOL    HW247361   5.104   1.981   6.992
48510SOL     OW47362   1.353  10.294   2.174
48510SOL    HW147363   1.314  10.225   2.121
48510SOL    HW247364   1.442  10.263   2.191
48511SOL     OW47365  14.058   0.210   0.539
48511SOL    HW147366  14.146   0.216   0.501
48511SOL    HW247367  14.031   0.301   0.550
48512SOL     OW47368   8.568   5.600   2.077
48512SOL    HW147369   8.555   5.539   2.150
48512SOL    HW247370   8.483   5.603   2.033
48513SOL     OW47371   5.382   5.158   9.419
48513SOL    HW147372   5.335   5.218   9.360
48513SOL    HW247373   5.451   5.120   9.364
48514SOL     OW47374  12.867   0.099  11.920
48514SOL    HW147375  12.812   0.059  11.853
48514SOL    HW247376  12.953   0.108  11.879
48515SOL     OW47377   8.444   4.969   2.706
48515SOL    HW147378   8.378   4.902   2.688
48515SOL    HW247379   8.506   4.926   2.765
48516SOL     OW47380   9.348   8.846  14.743
48516SOL    HW147381   9.306   8.842  14.657
48516SOL    HW247382   9.439   8.819  14.727
48517SOL     OW47383  13.463   8.962  12.398
48517SOL    HW147384  13.541   8.921  12.360
48517SOL    HW247385  13.467   8.939  12.491
48518SOL     OW47386   2.142   2.593   2.961
48518SOL    HW147387   2.230   2.556   2.959
48518SOL    HW247388   2.088   2.529   2.915
48519SOL     OW47389  12.815  11.386  10.265
48519SOL    HW147390  12.909  11.391  10.282
48519SOL    HW247391  12.785  11.313  10.318
48520SOL     OW47392   2.343  13.243   7.566
48520SOL    HW147393   2.430  13.214   7.539
48520SOL    HW247394   2.286  13.218   7.493
48521SOL     OW47395   5.324   0.748  10.885
48521SOL    HW147396   5.259   0.745  10.956
48521SOL    HW247397   5.396   0.800  10.920
48522SOL     OW47398   1.461   2.718  13.612
48522SOL    HW147399   1.419   2.804  13.603
48522SOL    HW247400   1.391   2.655  13.595
48523SOL     OW47401   8.342   0.124   6.450
48523SOL    HW147402   8.339   0.177   6.530
48523SOL    HW247403   8.434   0.125   6.424
48524SOL     OW47404   9.309   5.653   6.744
48524SOL    HW147405   9.332   5.576   6.692
48524SOL    HW247406   9.220   5.636   6.773
48525SOL     OW47407   0.561  10.453  10.047
48525SOL    HW147408   0.472  10.436  10.078
48525SOL    HW247409   0.589  10.370  10.007
48526SOL     OW47410   5.897   6.008   9.372
48526SOL    HW147411   5.861   6.092   9.400
48526SOL    HW247412   5.866   5.945   9.437
48527SOL     OW47413   2.285  14.210  13.692
48527SOL    HW147414   2.332  14.247  13.766
48527SOL    HW247415   2.343  14.141  13.660
48528SOL     OW47416   9.748  12.490   8.812
48528SOL    HW147417   9.673  12.542   8.840
48528SOL    HW247418   9.741  12.409   8.863
48529SOL     OW47419   0.649  10.611   5.326
48529SOL    HW147420   0.595  10.688   5.346
48529SOL    HW247421   0.690  10.632   5.242
48530SOL     OW47422  12.559   0.205  12.672
48530SOL    HW147423  12.527   0.152  12.599
48530SOL    HW247424  12.631   0.256  12.634
48531SOL     OW47425   7.964   6.916  13.654
48531SOL    HW147426   7.935   7.007  13.645
48531SOL    HW247427   8.059   6.921  13.664
48532SOL     OW47428   4.568   8.902   7.835
48532SOL    HW147429   4.617   8.984   7.839
48532SOL    HW247430   4.634   8.835   7.818
48533SOL     OW47431   0.363   6.976  12.512
48533SOL    HW147432   0.348   6.939  12.599
48533SOL    HW247433   0.435   6.924  12.476
48534SOL     OW47434  10.158   0.112   3.932
48534SOL    HW147435  10.173   0.148   4.020
48534SOL    HW247436  10.185   0.021   3.939
48535SOL     OW47437   5.499   7.130  14.142
48535SOL    HW147438   5.587   7.095  14.130
48535SOL    HW247439   5.444   7.054  14.157
48536SOL     OW47440   2.850   6.182   8.048
48536SOL    HW147441   2.878   6.273   8.057
48536SOL    HW247442   2.929   6.131   8.066
48537SOL     OW47443   3.596   7.176  10.306
48537SOL    HW147444   3.507   7.211  10.307
48537SOL    HW247445   3.593   7.104  10.243
48538SOL     OW47446   0.086  11.692  10.488
48538SOL    HW147447   0.113  11.774  10.448
48538SOL    HW247448  14.870  11.677  10.455
48539SOL     OW47449   7.414   6.426   2.435
48539SOL    HW147450   7.348   6.358   2.451
48539SOL    HW247451   7.434   6.418   2.342
48540SOL     OW47452  13.384   3.188  13.098
48540SOL    HW147453  13.300   3.218  13.132
48540SOL    HW247454  13.360   3.126  13.028
48541SOL     OW47455   0.534   7.254  11.084
48541SOL    HW147456   0.518   7.348  11.086
48541SOL    HW247457   0.579   7.236  11.166
48542SOL     OW47458  10.726  12.785   7.208
48542SOL    HW147459  10.709  12.692   7.217
48542SOL    HW247460  10.660  12.828   7.262
48543SOL     OW47461  14.398  11.202  12.522
48543SOL    HW147462  14.351  11.128  12.561
48543SOL    HW247463  14.386  11.191  12.428
48544SOL     OW47464   0.743  10.891  12.346
48544SOL    HW147465   0.654  10.857  12.345
48544SOL    HW247466   0.782  10.855  12.426
48545SOL     OW47467   4.910   7.128  13.495
48545SOL    HW147468   4.837   7.124  13.557
48545SOL    HW247469   4.988   7.111  13.549
48546SOL     OW47470   7.645  10.059   2.416
48546SOL    HW147471   7.727  10.071   2.464
48546SOL    HW247472   7.655  10.112   2.337
48547SOL     OW47473   2.512  12.435   7.716
48547SOL    HW147474   2.431  12.431   7.766
48547SOL    HW247475   2.551  12.348   7.726
48548SOL     OW47476   8.340  11.461  14.735
48548SOL    HW147477   8.295  11.441  14.653
48548SOL    HW247478   8.422  11.502  14.708
48549SOL     OW47479  11.461  10.493   0.719
48549SOL    HW147480  11.414  10.496   0.802
48549SOL    HW247481  11.476  10.400   0.702
48550SOL     OW47482   2.064   2.764  10.667
48550SOL    HW147483   2.151   2.726  10.678
48550SOL    HW247484   2.078   2.858  10.678
48551SOL     OW47485   6.483   8.167   1.331
48551SOL    HW147486   6.524   8.101   1.274
48551SOL    HW247487   6.526   8.154   1.416
48552SOL     OW47488   8.729   3.207   8.589
48552SOL    HW147489   8.761   3.179   8.503
48552SOL    HW247490   8.741   3.131   8.645
48553SOL     OW47491   6.223  13.074   6.406
48553SOL    HW147492   6.222  12.980   6.389
48553SOL    HW247493   6.282  13.109   6.338
48554SOL     OW47494   9.777  14.833   3.557
48554SOL    HW147495   9.822  14.772   3.497
48554SOL    HW247496   9.846  14.865   3.614
48555SOL     OW47497   9.870   3.819  14.728
48555SOL    HW147498   9.873   3.751  14.796
48555SOL    HW247499   9.952   3.867  14.739
48556SOL     OW47500   1.497   6.275  12.881
48556SOL    HW147501   1.569   6.216  12.856
48556SOL    HW247502   1.422   6.218  12.892
48557SOL     OW47503   6.699   8.279   3.149
48557SOL    HW147504   6.789   8.270   3.119
48557SOL    HW247505   6.676   8.370   3.128
48558SOL     OW47506  10.125  12.507   4.087
48558SOL    HW147507  10.029  12.505   4.086
48558SOL    HW247508  10.150  12.451   4.013
48559SOL     OW47509   0.594   8.541  14.052
48559SOL    HW147510   0.679   8.543  14.006
48559SOL    HW247511   0.585   8.450  14.081
48560SOL     OW47512  11.399   7.395   5.268
48560SOL    HW147513  11.376   7.450   5.194
48560SOL    HW247514  11.423   7.310   5.229
48561SOL     OW47515   9.645   2.401   5.977
48561SOL    HW147516   9.739   2.394   5.958
48561SOL    HW247517   9.620   2.487   5.943
48562SOL     OW47518   2.726  11.540  14.278
48562SOL    HW147519   2.726  11.635  14.294
48562SOL    HW247520   2.636  11.519  14.257
48563SOL     OW47521  12.781  10.903   7.924
48563SOL    HW147522  12.688  10.905   7.902
48563SOL    HW247523  12.786  10.855   8.007
48564SOL     OW47524   4.230   7.548   1.082
48564SOL    HW147525   4.268   7.565   0.996
48564SOL    HW247526   4.266   7.617   1.138
48565SOL     OW47527   4.188   8.084  13.825
48565SOL    HW147528   4.266   8.094  13.770
48565SOL    HW247529   4.122   8.139  13.782
48566SOL     OW47530   2.296   4.347   6.672
48566SOL    HW147531   2.300   4.288   6.748
48566SOL    HW247532   2.368   4.319   6.617
48567SOL     OW47533   3.681   5.479   1.543
48567SOL    HW147534   3.588   5.490   1.564
48567SOL    HW247535   3.714   5.568   1.530
48568SOL     OW47536   4.095  12.195  14.280
48568SOL    HW147537   4.079  12.142  14.202
48568SOL    HW247538   4.100  12.285  14.249
48569SOL     OW47539  12.151  11.449   1.875
48569SOL    HW147540  12.098  11.479   1.949
48569SOL    HW247541  12.236  11.490   1.889
48570SOL     OW47542   2.087   2.032  12.485
48570SOL    HW147543   2.119   1.948  12.518
48570SOL    HW247544   2.011   2.052  12.540
48571SOL     OW47545   6.654   2.653   1.997
48571SOL    HW147546   6.633   2.620   1.909
48571SOL    HW247547   6.578   2.707   2.021
48572SOL     OW47548   6.721   1.992   8.083
48572SOL    HW147549   6.812   1.967   8.071
48572SOL    HW247550   6.675   1.909   8.099
48573SOL     OW47551  11.252   1.639  11.123
48573SOL    HW147552  11.280   1.603  11.038
48573SOL    HW247553  11.283   1.575  11.187
48574SOL     OW47554   0.224   2.429   3.539
48574SOL    HW147555   0.242   2.343   3.501
48574SOL    HW247556   0.303   2.480   3.522
48575SOL     OW47557   6.367   3.640   1.519
48575SOL    HW147558   6.424   3.577   1.475
48575SOL    HW247559   6.280   3.622   1.485
48576SOL     OW47560  12.124   5.159   0.683
48576SOL    HW147561  12.065   5.228   0.716
48576SOL    HW247562  12.211   5.188   0.708
48577SOL     OW47563   2.928   7.965   2.113
48577SOL    HW147564   2.875   7.897   2.155
48577SOL    HW247565   2.878   8.046   2.125
48578SOL     OW47566  11.169  12.375   7.142
48578SOL    HW147567  11.241  12.360   7.080
48578SOL    HW247568  11.212  12.383   7.227
48579SOL     OW47569   1.935   2.258   3.179
48579SOL    HW147570   1.846   2.237   3.150
48579SOL    HW247571   1.940   2.225   3.268
48580SOL     OW47572  11.004   3.669   6.729
48580SOL    HW147573  10.962   3.632   6.807
48580SOL    HW247574  11.075   3.722   6.763
48581SOL     OW47575   1.909   3.960  11.412
48581SOL    HW147576   1.953   3.989  11.492
48581SOL    HW247577   1.816   3.960  11.435
48582SOL     OW47578  13.806  13.002   4.846
48582SOL    HW147579  13.869  12.966   4.907
48582SOL    HW247580  13.858  13.052   4.784
48583SOL     OW47581   1.327   1.277   5.027
48583SOL    HW147582   1.240   1.241   5.047
48583SOL    HW247583   1.310   1.367   5.000
48584SOL     OW47584  11.483   0.145   1.093
48584SOL    HW147585  11.496   0.074   1.030
48584SOL    HW247586  11.503   0.225   1.044
48585SOL     OW47587   1.119   9.425  14.288
48585SOL    HW147588   1.193   9.368  14.269
48585SOL    HW247589   1.053   9.401  14.223
48586SOL     OW47590   0.973   9.051   8.121
48586SOL    HW147591   0.905   9.088   8.065
48586SOL    HW247592   0.978   8.959   8.096
48587SOL     OW47593   6.461   9.757   7.006
48587SOL    HW147594   6.393   9.823   7.020
48587SOL    HW247595   6.414   9.674   7.000
48588SOL     OW47596  10.392   1.378   4.209
48588SOL    HW147597  10.326   1.310   4.220
48588SOL    HW247598  10.471   1.330   4.183
48589SOL     OW47599  14.289   9.834   7.478
48589SOL    HW147600  14.204   9.864   7.511
48589SOL    HW247601  14.266   9.767   7.413
48590SOL     OW47602   4.485   0.112  10.798
48590SOL    HW147603   4.567   0.144  10.836
48590SOL    HW247604   4.477   0.022  10.830
48591SOL     OW47605   4.571   1.522   1.309
48591SOL    HW147606   4.653   1.502   1.355
48591SOL    HW247607   4.593   1.594   1.251
48592SOL     OW47608  14.088   1.847   9.322
48592SOL    HW147609  14.108   1.940   9.333
48592SOL    HW247610  14.118   1.806   9.403
48593SOL     OW47611  14.173   8.948   2.106
48593SOL    HW147612  14.267   8.966   2.109
48593SOL    HW247613  14.162   8.886   2.035
48594SOL     OW47614   0.273   1.046  13.702
48594SOL    HW147615   0.303   0.955  13.699
48594SOL    HW247616   0.272   1.075  13.611
48595SOL     OW47617  13.509   3.130   6.732
48595SOL    HW147618  13.526   3.212   6.779
48595SOL    HW247619  13.579   3.124   6.667
48596SOL     OW47620   7.677   6.108  11.146
48596SOL    HW147621   7.687   6.043  11.216
48596SOL    HW247622   7.748   6.171  11.162
48597SOL     OW47623  11.500   7.307   1.973
48597SOL    HW147624  11.581   7.359   1.974
48597SOL    HW247625  11.530   7.216   1.970
48598SOL     OW47626   1.711  13.381  10.426
48598SOL    HW147627   1.764  13.380  10.347
48598SOL    HW247628   1.667  13.296  10.427
48599SOL     OW47629   0.055  14.044   8.969
48599SOL    HW147630   0.081  14.111   9.033
48599SOL    HW247631   0.018  14.094   8.896
48600SOL     OW47632  12.410   1.669   8.561
48600SOL    HW147633  12.454   1.585   8.572
48600SOL    HW247634  12.323   1.656   8.599
48601SOL     OW47635  11.984  12.216   4.570
48601SOL    HW147636  11.952  12.158   4.638
48601SOL    HW247637  12.050  12.271   4.613
48602SOL     OW47638  14.804  10.210   9.743
48602SOL    HW147639  14.780  10.260   9.665
48602SOL    HW247640  14.733  10.227   9.805
48603SOL     OW47641   1.176   3.799   4.107
48603SOL    HW147642   1.266   3.807   4.137
48603SOL    HW247643   1.174   3.843   4.023
48604SOL     OW47644  13.420  10.382   6.182
48604SOL    HW147645  13.416  10.456   6.121
48604SOL    HW247646  13.363  10.408   6.254
48605SOL     OW47647   6.034   0.799   3.905
48605SOL    HW147648   6.041   0.879   3.957
48605SOL    HW247649   6.074   0.731   3.959
48606SOL     OW47650  11.599   2.044  11.961
48606SOL    HW147651  11.659   2.119  11.965
48606SOL    HW247652  11.583   2.032  11.867
48607SOL     OW47653  12.616   5.914   7.446
48607SOL    HW147654  12.649   5.825   7.456
48607SOL    HW247655  12.531   5.904   7.402
48608SOL     OW47656   9.946   4.111   9.355
48608SOL    HW147657   9.872   4.060   9.323
48608SOL    HW247658  10.023   4.058   9.333
48609SOL     OW47659   8.166   1.971   5.055
48609SOL    HW147660   8.188   2.060   5.081
48609SOL    HW247661   8.248   1.934   5.023
48610SOL     OW47662  13.676   0.964   9.047
48610SOL    HW147663  13.770   0.956   9.031
48610SOL    HW247664  13.642   1.009   8.970
48611SOL     OW47665   9.392   4.975   1.123
48611SOL    HW147666   9.373   4.910   1.191
48611SOL    HW247667   9.346   5.054   1.152
48612SOL     OW47668   9.967   8.926   2.551
48612SOL    HW147669   9.971   9.011   2.506
48612SOL    HW247670  10.057   8.910   2.580
48613SOL     OW47671   8.349   1.587   2.821
48613SOL    HW147672   8.416   1.520   2.837
48613SOL    HW247673   8.355   1.605   2.728
48614SOL     OW47674  10.689   3.386   5.665
48614SOL    HW147675  10.605   3.430   5.656
48614SOL    HW247676  10.719   3.373   5.575
48615SOL     OW47677  13.189   4.325   5.402
48615SOL    HW147678  13.182   4.407   5.451
48615SOL    HW247679  13.251   4.272   5.453
48616SOL     OW47680   7.376  13.424  12.422
48616SOL    HW147681   7.351  13.347  12.473
48616SOL    HW247682   7.417  13.483  12.486
48617SOL     OW47683   7.012  14.727  11.566
48617SOL    HW147684   6.977  14.795  11.508
48617SOL    HW247685   6.975  14.645  11.532
48618SOL     OW47686   0.514   4.545  13.695
48618SOL    HW147687   0.514   4.486  13.770
48618SOL    HW247688   0.427   4.584  13.694
48619SOL     OW47689   3.042   1.653   2.300
48619SOL    HW147690   2.955   1.645   2.338
48619SOL    HW247691   3.050   1.745   2.276
48620SOL     OW47692   2.820  13.363  11.299
48620SOL    HW147693   2.739  13.346  11.348
48620SOL    HW247694   2.810  13.452  11.265
48621SOL     OW47695  11.414   9.817   3.321
48621SOL    HW147696  11.493   9.802   3.269
48621SOL    HW247697  11.357   9.743   3.299
48622SOL     OW47698  13.421   3.229  12.183
48622SOL    HW147699  13.442   3.232  12.277
48622SOL    HW247700  13.336   3.186  12.179
48623SOL     OW47701  11.694   0.929   4.634
48623SOL    HW147702  11.611   0.898   4.597
48623SOL    HW247703  11.729   0.853   4.680
48624SOL     OW47704   9.281  12.715  12.747
48624SOL    HW147705   9.304  12.803  12.717
48624SOL    HW247706   9.213  12.686  12.685
48625SOL     OW47707   6.065   4.336   9.728
48625SOL    HW147708   6.126   4.410   9.729
48625SOL    HW247709   5.979   4.375   9.742
48626SOL     OW47710   3.187   1.464   3.025
48626SOL    HW147711   3.114   1.402   3.032
48626SOL    HW247712   3.240   1.448   3.102
48627SOL     OW47713  12.923  13.118   0.562
48627SOL    HW147714  12.961  13.061   0.494
48627SOL    HW247715  12.917  13.062   0.639
48628SOL     OW47716   1.341  11.783   1.519
48628SOL    HW147717   1.269  11.721   1.507
48628SOL    HW247718   1.323  11.854   1.457
48629SOL     OW47719   0.193  14.202  13.775
48629SOL    HW147720   0.260  14.229  13.837
48629SOL    HW247721   0.136  14.278  13.766
48630SOL     OW47722  11.370   7.370   3.026
48630SOL    HW147723  11.358   7.367   2.931
48630SOL    HW247724  11.464   7.386   3.038
48631SOL     OW47725   5.435   1.816   1.391
48631SOL    HW147726   5.456   1.810   1.298
48631SOL    HW247727   5.386   1.736   1.410
48632SOL     OW47728  11.904  10.330   4.096
48632SOL    HW147729  11.898  10.235   4.107
48632SOL    HW247730  11.913  10.365   4.184
48633SOL     OW47731   6.259  10.415  14.749
48633SOL    HW147732   6.320  10.348  14.719
48633SOL    HW247733   6.303  10.456  14.824
48634SOL     OW47734   1.119   5.673   1.272
48634SOL    HW147735   1.100   5.724   1.351
48634SOL    HW247736   1.063   5.595   1.279
48635SOL     OW47737  12.580   8.987   3.443
48635SOL    HW147738  12.535   8.907   3.418
48635SOL    HW247739  12.671   8.973   3.417
48636SOL     OW47740   3.486   6.967  10.590
48636SOL    HW147741   3.487   7.058  10.622
48636SOL    HW247742   3.421   6.923  10.645
48637SOL     OW47743  12.158   3.627   9.315
48637SOL    HW147744  12.095   3.625   9.387
48637SOL    HW247745  12.185   3.719   9.309
48638SOL     OW47746  12.081   1.131  11.520
48638SOL    HW147747  12.168   1.113  11.486
48638SOL    HW247748  12.063   1.060  11.581
48639SOL     OW47749   9.084  13.400   4.444
48639SOL    HW147750   9.178  13.407   4.432
48639SOL    HW247751   9.072  13.333   4.511
48640SOL     OW47752   1.349   9.025  13.670
48640SOL    HW147753   1.436   9.062  13.684
48640SOL    HW247754   1.294   9.101  13.653
48641SOL     OW47755  10.383   8.551   3.776
48641SOL    HW147756  10.300   8.569   3.733
48641SOL    HW247757  10.360   8.501   3.854
48642SOL     OW47758  14.215   5.003   0.341
48642SOL    HW147759  14.208   5.085   0.390
48642SOL    HW247760  14.217   4.935   0.409
48643SOL     OW47761  10.686  10.220   7.187
48643SOL    HW147762  10.713  10.311   7.181
48643SOL    HW247763  10.654  10.210   7.277
48644SOL     OW47764  14.076   1.289   9.966
48644SOL    HW147765  14.082   1.380   9.998
48644SOL    HW247766  14.167   1.262   9.957
48645SOL     OW47767   4.315   0.963  12.216
48645SOL    HW147768   4.370   0.980  12.140
48645SOL    HW247769   4.271   1.046  12.234
48646SOL     OW47770   1.750   2.560  13.972
48646SOL    HW147771   1.791   2.643  13.995
48646SOL    HW247772   1.815   2.493  13.995
48647SOL     OW47773   9.364   3.505   5.071
48647SOL    HW147774   9.417   3.582   5.093
48647SOL    HW247775   9.278   3.540   5.049
48648SOL     OW47776  13.548   3.686   9.992
48648SOL    HW147777  13.480   3.749   9.967
48648SOL    HW247778  13.613   3.692   9.922
48649SOL     OW47779   4.534  12.616   0.118
48649SOL    HW147780   4.468  12.576   0.062
48649SOL    HW247781   4.556  12.548   0.182
48650SOL     OW47782   6.462  12.959  10.464
48650SOL    HW147783   6.484  13.013  10.540
48650SOL    HW247784   6.392  12.902  10.493
48651SOL     OW47785   1.283  10.571   4.539
48651SOL    HW147786   1.265  10.648   4.485
48651SOL    HW247787   1.229  10.502   4.499
48652SOL     OW47788   5.760   4.161   0.110
48652SOL    HW147789   5.706   4.182   0.034
48652SOL    HW247790   5.743   4.069   0.127
48653SOL     OW47791   8.181   0.317  13.197
48653SOL    HW147792   8.133   0.366  13.264
48653SOL    HW247793   8.112   0.275  13.145
48654SOL     OW47794   6.694  12.581  11.960
48654SOL    HW147795   6.761  12.592  11.892
48654SOL    HW247796   6.737  12.608  12.041
48655SOL     OW47797   0.001   4.746   3.831
48655SOL    HW147798  14.851   4.775   3.920
48655SOL    HW247799  14.800   4.775   3.777
48656SOL     OW47800   4.155   9.600  13.393
48656SOL    HW147801   4.231   9.640  13.351
48656SOL    HW247802   4.187   9.573  13.479
48657SOL     OW47803   5.394   8.695   3.631
48657SOL    HW147804   5.393   8.790   3.621
48657SOL    HW247805   5.324   8.664   3.573
48658SOL     OW47806   7.861   5.690   7.005
48658SOL    HW147807   7.911   5.619   7.044
48658SOL    HW247808   7.812   5.729   7.078
48659SOL     OW47809   9.505   5.664   6.942
48659SOL    HW147810   9.432   5.689   6.886
48659SOL    HW247811   9.553   5.745   6.958
48660SOL     OW47812   9.636  14.462   0.504
48660SOL    HW147813   9.712  14.410   0.531
48660SOL    HW247814   9.672  14.528   0.445
48661SOL     OW47815  13.741   6.220  10.782
48661SOL    HW147816  13.712   6.146  10.837
48661SOL    HW247817  13.834   6.229  10.802
48662SOL     OW47818  10.524   5.942   5.043
48662SOL    HW147819  10.534   6.031   5.010
48662SOL    HW247820  10.609   5.922   5.083
48663SOL     OW47821   8.440   8.720   6.742
48663SOL    HW147822   8.508   8.697   6.678
48663SOL    HW247823   8.479   8.698   6.826
48664SOL     OW47824  10.186   0.014  13.035
48664SOL    HW147825  10.160  14.795  13.040
48664SOL    HW247826  10.107   0.063  13.058
48665SOL     OW47827   7.328   6.549  13.916
48665SOL    HW147828   7.237   6.524  13.903
48665SOL    HW247829   7.359   6.577  13.830
48666SOL     OW47830   0.543   3.814  13.812
48666SOL    HW147831   0.523   3.867  13.889
48666SOL    HW247832   0.460   3.809  13.764
48667SOL     OW47833  13.430   6.759  10.575
48667SOL    HW147834  13.435   6.679  10.523
48667SOL    HW247835  13.430   6.728  10.666
48668SOL     OW47836   7.351   3.601  11.740
48668SOL    HW147837   7.343   3.604  11.645
48668SOL    HW247838   7.265   3.570  11.770
48669SOL     OW47839   2.510  13.487   6.660
48669SOL    HW147840   2.600  13.515   6.677
48669SOL    HW247841   2.463  13.568   6.639
48670SOL     OW47842   8.808  12.470  10.541
48670SOL    HW147843   8.844  12.548  10.496
48670SOL    HW247844   8.836  12.481  10.632
48671SOL     OW47845  12.478   1.855   5.415
48671SOL    HW147846  12.505   1.943   5.388
48671SOL    HW247847  12.514   1.798   5.347
48672SOL     OW47848   8.124   7.228   9.655
48672SOL    HW147849   8.086   7.289   9.718
48672SOL    HW247850   8.050   7.176   9.623
48673SOL     OW47851   2.277  14.378  10.417
48673SOL    HW147852   2.342  14.448  10.416
48673SOL    HW247853   2.327  14.300  10.442
48674SOL     OW47854  13.382   5.535   5.634
48674SOL    HW147855  13.450   5.468   5.648
48674SOL    HW247856  13.301   5.492   5.659
48675SOL     OW47857   6.752   2.260   3.127
48675SOL    HW147858   6.749   2.269   3.223
48675SOL    HW247859   6.787   2.343   3.096
48676SOL     OW47860   1.968   6.487   5.003
48676SOL    HW147861   2.032   6.426   4.967
48676SOL    HW247862   1.918   6.517   4.927
48677SOL     OW47863   4.437   7.073  13.191
48677SOL    HW147864   4.394   7.041  13.111
48677SOL    HW247865   4.367   7.116  13.240
48678SOL     OW47866   8.216  13.165  11.277
48678SOL    HW147867   8.307  13.172  11.308
48678SOL    HW247868   8.171  13.114  11.345
48679SOL     OW47869  12.778   9.351   1.479
48679SOL    HW147870  12.753   9.430   1.527
48679SOL    HW247871  12.872   9.361   1.464
48680SOL     OW47872   4.832  11.746   5.894
48680SOL    HW147873   4.857  11.680   5.829
48680SOL    HW247874   4.888  11.727   5.969
48681SOL     OW47875  12.431   5.672   0.320
48681SOL    HW147876  12.498   5.642   0.381
48681SOL    HW247877  12.452   5.628   0.238
48682SOL     OW47878   5.782   3.643   6.490
48682SOL    HW147879   5.816   3.656   6.578
48682SOL    HW247880   5.858   3.614   6.439
48683SOL     OW47881   9.731  10.397   5.610
48683SOL    HW147882   9.684  10.467   5.655
48683SOL    HW247883   9.706  10.317   5.657
48684SOL     OW47884   3.702   5.034  13.648
48684SOL    HW147885   3.638   5.023  13.718
48684SOL    HW247886   3.758   4.957  13.655
48685SOL     OW47887   2.075  14.257  11.414
48685SOL    HW147888   2.013  14.186  11.407
48685SOL    HW247889   2.106  14.255  11.505
48686SOL     OW47890   8.565  10.707   6.022
48686SOL    HW147891   8.653  10.737   6.044
48686SOL    HW247892   8.576  10.615   5.998
48687SOL     OW47893  14.496   5.535   4.732
48687SOL    HW147894  14.482   5.448   4.695
48687SOL    HW247895  14.530   5.518   4.820
48688SOL     OW47896  12.632   4.604  13.254
48688SOL    HW147897  12.645   4.511  13.232
48688SOL    HW247898  12.720   4.635  13.278
48689SOL     OW47899  11.280  12.821   5.592
48689SOL    HW147900  11.251  12.755   5.529
48689SOL    HW247901  11.275  12.904   5.545
48690SOL     OW47902   6.650  14.607  11.615
48690SOL    HW147903   6.688  14.522  11.638
48690SOL    HW247904   6.573  14.585  11.562
48691SOL     OW47905   7.764   8.279  13.837
48691SOL    HW147906   7.858   8.260  13.831
48691SOL    HW247907   7.721   8.197  13.815
48692SOL     OW47908   7.837   3.913   3.072
48692SOL    HW147909   7.798   3.993   3.109
48692SOL    HW247910   7.791   3.900   2.989
48693SOL     OW47911  14.796   1.049   6.811
48693SOL    HW147912  14.790   1.144   6.800
48693SOL    HW247913  14.858   1.037   6.883
48694SOL     OW47914   3.881   0.862   4.746
48694SOL    HW147915   3.964   0.819   4.762
48694SOL    HW247916   3.819   0.819   4.805
48695SOL     OW47917   2.929  11.725  14.111
48695SOL    HW147918   2.990  11.654  14.130
48695SOL    HW247919   2.959  11.762  14.029
48696SOL     OW47920  11.653   9.220   6.381
48696SOL    HW147921  11.710   9.294   6.360
48696SOL    HW247922  11.637   9.229   6.475
48697SOL     OW47923   7.902  12.410  12.890
48697SOL    HW147924   7.953  12.489  12.905
48697SOL    HW247925   7.894  12.369  12.976
48698SOL     OW47926   2.668  14.240  11.531
48698SOL    HW147927   2.604  14.290  11.480
48698SOL    HW247928   2.653  14.149  11.506
48699SOL     OW47929   6.574   2.126  13.196
48699SOL    HW147930   6.634   2.136  13.270
48699SOL    HW247931   6.502   2.185  13.216
48700SOL     OW47932   3.724   2.330   9.503
48700SOL    HW147933   3.755   2.245   9.534
48700SOL    HW247934   3.685   2.371   9.580
48701SOL     OW47935  14.084  10.377   7.643
48701SOL    HW147936  14.045  10.348   7.726
48701SOL    HW247937  14.018  10.355   7.577
48702SOL     OW47938  11.756  11.614  13.681
48702SOL    HW147939  11.748  11.686  13.618
48702SOL    HW247940  11.682  11.557  13.662
48703SOL     OW47941   6.573   7.917  10.555
48703SOL    HW147942   6.650   7.971  10.537
48703SOL    HW247943   6.506   7.949  10.495
48704SOL     OW47944   6.924   4.077   4.832
48704SOL    HW147945   6.885   4.137   4.768
48704SOL    HW247946   6.874   4.092   4.912
48705SOL     OW47947  11.650  13.323   9.370
48705SOL    HW147948  11.661  13.411   9.333
48705SOL    HW247949  11.601  13.337   9.451
48706SOL     OW47950   9.139   1.546   7.963
48706SOL    HW147951   9.080   1.472   7.979
48706SOL    HW247952   9.156   1.543   7.869
48707SOL     OW47953   3.567   9.644   0.671
48707SOL    HW147954   3.478   9.666   0.643
48707SOL    HW247955   3.609   9.729   0.686
48708SOL     OW47956   8.911   5.324   2.196
48708SOL    HW147957   8.890   5.282   2.280
48708SOL    HW247958   8.928   5.416   2.220
48709SOL     OW47959   4.512  14.215  11.413
48709SOL    HW147960   4.517  14.275  11.487
48709SOL    HW247961   4.496  14.129  11.452
48710SOL     OW47962  11.014   8.907   6.940
48710SOL    HW147963  10.954   8.929   7.012
48710SOL    HW247964  11.032   8.991   6.898
48711SOL     OW47965  11.269   0.077   2.520
48711SOL    HW147966  11.286   0.148   2.458
48711SOL    HW247967  11.354   0.061   2.562
48712SOL     OW47968   6.215   1.366   6.726
48712SOL    HW147969   6.284   1.306   6.756
48712SOL    HW247970   6.217   1.358   6.630
48713SOL     OW47971   6.250   0.115  13.003
48713SOL    HW147972   6.160   0.106  13.033
48713SOL    HW247973   6.279   0.025  12.987
48714SOL     OW47974  13.520   2.659   7.004
48714SOL    HW147975  13.467   2.686   7.079
48714SOL    HW247976  13.478   2.700   6.929
48715SOL     OW47977  11.038   9.523  12.858
48715SOL    HW147978  11.045   9.428  12.868
48715SOL    HW247979  11.113   9.547  12.804
48716SOL     OW47980  12.667  12.406   8.292
48716SOL    HW147981  12.618  12.448   8.221
48716SOL    HW247982  12.719  12.339   8.249
48717SOL     OW47983  11.249   9.106  12.232
48717SOL    HW147984  11.300   9.027  12.214
48717SOL    HW247985  11.250   9.155  12.150
48718SOL     OW47986   3.976  11.722   7.529
48718SOL    HW147987   4.037  11.714   7.603
48718SOL    HW247988   4.033  11.726   7.452
48719SOL     OW47989  11.594   7.128  11.025
48719SOL    HW147990  11.500   7.107  11.027
48719SOL    HW247991  11.635   7.060  11.079
48720SOL     OW47992  10.072   0.944   7.952
48720SOL    HW147993  10.076   1.002   7.877
48720SOL    HW247994  10.051   1.001   8.026
48721SOL     OW47995   3.793   9.341  10.155
48721SOL    HW147996   3.740   9.417  10.132
48721SOL    HW247997   3.881   9.361  10.122
48722SOL     OW47998   5.274  11.863   5.508
48722SOL    HW147999   5.290  11.781   5.459
48722SOL    HW248000   5.361  11.892   5.534
48723SOL     OW48001  10.244  10.533   2.853
48723SOL    HW148002  10.242  10.465   2.920
48723SOL    HW248003  10.172  10.511   2.794
48724SOL     OW48004   8.271  10.755   3.246
48724SOL    HW148005   8.333  10.743   3.174
48724SOL    HW248006   8.302  10.697   3.315
48725SOL     OW48007   9.334   7.152  10.723
48725SOL    HW148008   9.426   7.177  10.712
48725SOL    HW248009   9.336   7.080  10.785
48726SOL     OW48010  14.424   2.317   6.088
48726SOL    HW148011  14.468   2.302   6.172
48726SOL    HW248012  14.478   2.271   6.024
48727SOL     OW48013   0.880   5.813   3.785
48727SOL    HW148014   0.858   5.815   3.691
48727SOL    HW248015   0.882   5.905   3.810
48728SOL     OW48016   5.154  10.331   8.387
48728SOL    HW148017   5.167  10.338   8.482
48728SOL    HW248018   5.067  10.367   8.372
48729SOL     OW48019   0.781   6.734  11.233
48729SOL    HW148020   0.720   6.803  11.205
48729SOL    HW248021   0.833   6.775  11.302
48730SOL     OW48022  10.925   7.627   9.487
48730SOL    HW148023  10.942   7.602   9.396
48730SOL    HW248024  10.868   7.559   9.521
48731SOL     OW48025   3.135  10.590   5.214
48731SOL    HW148026   3.126  10.498   5.190
48731SOL    HW248027   3.188  10.628   5.144
48732SOL     OW48028   7.623   5.404   6.533
48732SOL    HW148029   7.614   5.332   6.595
48732SOL    HW248030   7.581   5.372   6.453
48733SOL     OW48031   5.644   3.386   7.475
48733SOL    HW148032   5.693   3.346   7.404
48733SOL    HW248033   5.664   3.480   7.468
48734SOL     OW48034  14.252   7.618   8.035
48734SOL    HW148035  14.215   7.706   8.040
48734SOL    HW248036  14.194   7.564   8.088
48735SOL     OW48037   8.661   9.788   7.423
48735SOL    HW148038   8.590   9.741   7.465
48735SOL    HW248039   8.739   9.767   7.475
48736SOL     OW48040   8.509   0.393  10.733
48736SOL    HW148041   8.508   0.433  10.646
48736SOL    HW248042   8.424   0.349  10.740
48737SOL     OW48043   5.787   3.526  12.123
48737SOL    HW148044   5.849   3.516  12.052
48737SOL    HW248045   5.820   3.469  12.193
48738SOL     OW48046  10.148   1.547  11.018
48738SOL    HW148047  10.103   1.584  10.941
48738SOL    HW248048  10.180   1.624  11.065
48739SOL     OW48049  13.136   3.962  10.344
48739SOL    HW148050  13.199   3.892  10.327
48739SOL    HW248051  13.071   3.923  10.402
48740SOL     OW48052   9.660   5.531   5.222
48740SOL    HW148053   9.714   5.452   5.219
48740SOL    HW248054   9.650   5.550   5.316
48741SOL     OW48055   4.722   3.763   2.339
48741SOL    HW148056   4.703   3.776   2.246
48741SOL    HW248057   4.798   3.819   2.356
48742SOL     OW48058   1.171   6.674  11.717
48742SOL    HW148059   1.146   6.688  11.808
48742SOL    HW248060   1.181   6.579  11.710
48743SOL     OW48061   7.188  10.282  10.071
48743SOL    HW148062   7.118  10.297  10.007
48743SOL    HW248063   7.265  10.324  10.034
48744SOL     OW48064   5.409   7.584  14.248
48744SOL    HW148065   5.365   7.661  14.211
48744SOL    HW248066   5.502   7.607  14.247
48745SOL     OW48067   4.923   0.700   7.806
48745SOL    HW148068   4.909   0.751   7.886
48745SOL    HW248069   4.927   0.766   7.736
48746SOL     OW48070   5.748   4.626   2.750
48746SOL    HW148071   5.684   4.690   2.781
48746SOL    HW248072   5.730   4.547   2.802
48747SOL     OW48073   3.581   1.796   2.328
48747SOL    HW148074   3.651   1.793   2.263
48747SOL    HW248075   3.501   1.809   2.277
48748SOL     OW48076  13.587  11.835  14.117
48748SOL    HW148077  13.621  11.775  14.051
48748SOL    HW248078  13.540  11.780  14.179
48749SOL     OW48079  10.840   3.057   0.502
48749SOL    HW148080  10.761   3.040   0.554
48749SOL    HW248081  10.911   3.017   0.552
48750SOL     OW48082  10.342   5.750  14.793
48750SOL    HW148083  10.390   5.766  14.712
48750SOL    HW248084  10.362   5.825  14.849
48751SOL     OW48085   9.445   5.124  11.851
48751SOL    HW148086   9.520   5.148  11.797
48751SOL    HW248087   9.484   5.092  11.933
48752SOL     OW48088   9.898   3.423   4.607
48752SOL    HW148089   9.821   3.468   4.572
48752SOL    HW248090   9.917   3.354   4.543
48753SOL     OW48091  12.314  10.089   6.574
48753SOL    HW148092  12.341  10.082   6.483
48753SOL    HW248093  12.378  10.147   6.614
48754SOL     OW48094  14.431  11.994  10.532
48754SOL    HW148095  14.490  11.964  10.601
48754SOL    HW248096  14.430  12.089  10.540
48755SOL     OW48097  14.199  14.223   1.397
48755SOL    HW148098  14.215  14.299   1.453
48755SOL    HW248099  14.148  14.163   1.452
48756SOL     OW48100  12.966   8.941   3.862
48756SOL    HW148101  13.002   8.858   3.894
48756SOL    HW248102  13.030   8.972   3.798
48757SOL     OW48103   9.963   1.460   0.181
48757SOL    HW148104   9.932   1.472   0.271
48757SOL    HW248105  10.038   1.519   0.174
48758SOL     OW48106   3.695  14.051  14.647
48758SOL    HW148107   3.708  14.129  14.593
48758SOL    HW248108   3.601  14.047  14.661
48759SOL     OW48109   0.425   4.022   5.161
48759SOL    HW148110   0.350   4.046   5.216
48759SOL    HW248111   0.478   3.965   5.216
48760SOL     OW48112   9.954   2.704   3.546
48760SOL    HW148113   9.887   2.680   3.482
48760SOL    HW248114   9.919   2.675   3.630
48761SOL     OW48115   5.339  12.240   4.729
48761SOL    HW148116   5.342  12.245   4.633
48761SOL    HW248117   5.320  12.148   4.747
48762SOL     OW48118   0.005  13.332   1.636
48762SOL    HW148119   0.073  13.399   1.627
48762SOL    HW248120   0.047  13.262   1.686
48763SOL     OW48121   8.567  14.831  13.517
48763SOL    HW148122   8.504   0.002  13.574
48763SOL    HW248123   8.582   0.020  13.446
48764SOL     OW48124   0.279   3.953   2.858
48764SOL    HW148125   0.213   3.942   2.927
48764SOL    HW248126   0.228   3.958   2.777
48765SOL     OW48127  10.514  13.506   8.112
48765SOL    HW148128  10.536  13.592   8.076
48765SOL    HW248129  10.503  13.522   8.205
48766SOL     OW48130   2.637  13.960   1.948
48766SOL    HW148131   2.552  13.924   1.923
48766SOL    HW248132   2.688  13.885   1.976
48767SOL     OW48133   3.956   4.546   9.882
48767SOL    HW148134   3.925   4.461   9.914
48767SOL    HW248135   3.939   4.543   9.788
48768SOL     OW48136   4.895   1.625   1.159
48768SOL    HW148137   4.812   1.667   1.180
48768SOL    HW248138   4.942   1.622   1.242
48769SOL     OW48139   5.966   7.944   4.308
48769SOL    HW148140   5.934   7.931   4.219
48769SOL    HW248141   5.911   8.015   4.342
48770SOL     OW48142   3.616   4.725   0.721
48770SOL    HW148143   3.702   4.739   0.761
48770SOL    HW248144   3.568   4.672   0.784
48771SOL     OW48145   4.168   6.387   4.080
48771SOL    HW148146   4.075   6.405   4.079
48771SOL    HW248147   4.201   6.431   4.159
48772SOL     OW48148   7.844  12.082   9.893
48772SOL    HW148149   7.884  12.009   9.940
48772SOL    HW248150   7.912  12.149   9.889
48773SOL     OW48151   0.426   9.293  11.414
48773SOL    HW148152   0.467   9.333  11.491
48773SOL    HW248153   0.452   9.201  11.419
48774SOL     OW48154   8.819   3.855  14.706
48774SOL    HW148155   8.734   3.899  14.707
48774SOL    HW248156   8.856   3.871  14.794
48775SOL     OW48157   3.752   1.896  12.780
48775SOL    HW148158   3.661   1.911  12.752
48775SOL    HW248159   3.785   1.983  12.802
48776SOL     OW48160  10.307  13.922   6.070
48776SOL    HW148161  10.292  13.833   6.037
48776SOL    HW248162  10.248  13.930   6.145
48777SOL     OW48163   8.116   5.866   2.728
48777SOL    HW148164   8.128   5.959   2.748
48777SOL    HW248165   8.059   5.865   2.652
48778SOL     OW48166  11.932  10.141   9.877
48778SOL    HW148167  11.940  10.188   9.960
48778SOL    HW248168  11.913  10.210   9.813
48779SOL     OW48169   5.782   3.880   3.794
48779SOL    HW148170   5.749   3.790   3.799
48779SOL    HW248171   5.866   3.872   3.748
48780SOL     OW48172   1.732   4.751  12.066
48780SOL    HW148173   1.792   4.691  12.021
48780SOL    HW248174   1.677   4.787  11.996
48781SOL     OW48175  11.691  14.218  13.276
48781SOL    HW148176  11.605  14.261  13.276
48781SOL    HW248177  11.693  14.168  13.194
48782SOL     OW48178   7.117   9.387  11.141
48782SOL    HW148179   7.125   9.475  11.103
48782SOL    HW248180   7.025   9.381  11.169
48783SOL     OW48181   0.507   7.012  14.716
48783SOL    HW148182   0.573   7.079  14.735
48783SOL    HW248183   0.553   6.945  14.667
48784SOL     OW48184  12.108   8.213   3.434
48784SOL    HW148185  12.179   8.278   3.437
48784SOL    HW248186  12.140   8.140   3.485
48785SOL     OW48187   3.189   4.239   1.745
48785SOL    HW148188   3.146   4.308   1.696
48785SOL    HW248189   3.276   4.233   1.706
48786SOL     OW48190   5.012   2.295   0.825
48786SOL    HW148191   5.012   2.199   0.822
48786SOL    HW248192   5.002   2.316   0.918
48787SOL     OW48193   2.965  12.988   8.594
48787SOL    HW148194   2.977  13.039   8.514
48787SOL    HW248195   2.913  13.044   8.651
48788SOL     OW48196   1.899   3.882   6.446
48788SOL    HW148197   1.848   3.873   6.526
48788SOL    HW248198   1.836   3.872   6.375
48789SOL     OW48199  14.637   0.218   7.095
48789SOL    HW148200  14.699   0.145   7.096
48789SOL    HW248201  14.552   0.177   7.076
48790SOL     OW48202  14.097   3.989   9.852
48790SOL    HW148203  14.045   3.993   9.932
48790SOL    HW248204  14.058   4.055   9.795
48791SOL     OW48205   5.384   7.247   6.710
48791SOL    HW148206   5.453   7.234   6.774
48791SOL    HW248207   5.422   7.218   6.627
48792SOL     OW48208   9.136  11.909   0.165
48792SOL    HW148209   9.125  11.830   0.216
48792SOL    HW248210   9.079  11.974   0.207
48793SOL     OW48211   2.536  13.011  12.232
48793SOL    HW148212   2.484  12.960  12.294
48793SOL    HW248213   2.559  13.090  12.280
48794SOL     OW48214   3.294   9.058   6.738
48794SOL    HW148215   3.389   9.045   6.742
48794SOL    HW248216   3.280   9.114   6.662
48795SOL     OW48217  12.174  11.796  10.211
48795SOL    HW148218  12.155  11.742  10.135
48795SOL    HW248219  12.237  11.861  10.178
48796SOL     OW48220  10.018   0.988   0.522
48796SOL    HW148221   9.935   0.957   0.485
48796SOL    HW248222  10.073   1.005   0.445
48797SOL     OW48223  13.628  10.156  13.809
48797SOL    HW148224  13.631  10.226  13.875
48797SOL    HW248225  13.541  10.117  13.820
48798SOL     OW48226  14.036   1.734  11.972
48798SOL    HW148227  13.973   1.748  12.043
48798SOL    HW248228  14.012   1.648  11.936
48799SOL     OW48229  12.622   7.045   3.686
48799SOL    HW148230  12.627   6.951   3.699
48799SOL    HW248231  12.711   7.071   3.660
48800SOL     OW48232   6.820   7.657  12.398
48800SOL    HW148233   6.837   7.576  12.349
48800SOL    HW248234   6.740   7.692  12.359
48801SOL     OW48235   5.206   6.523   9.385
48801SOL    HW148236   5.172   6.592   9.328
48801SOL    HW248237   5.239   6.456   9.324
48802SOL     OW48238   2.138  14.347   4.773
48802SOL    HW148239   2.197  14.304   4.835
48802SOL    HW248240   2.051  14.313   4.795
48803SOL     OW48241   0.650   1.033  13.747
48803SOL    HW148242   0.738   0.994  13.749
48803SOL    HW248243   0.654   1.100  13.679
48804SOL     OW48244  10.428   9.058   6.157
48804SOL    HW148245  10.480   9.100   6.088
48804SOL    HW248246  10.493   9.016   6.213
48805SOL     OW48247   4.089   6.174  12.443
48805SOL    HW148248   4.121   6.160  12.354
48805SOL    HW248249   3.995   6.154  12.437
48806SOL     OW48250   5.364   8.200   9.560
48806SOL    HW148251   5.277   8.161   9.573
48806SOL    HW248252   5.359   8.239   9.473
48807SOL     OW48253   6.742   8.210   0.111
48807SOL    HW148254   6.758   8.303   0.100
48807SOL    HW248255   6.653   8.204   0.143
48808SOL     OW48256  13.139  14.668   6.328
48808SOL    HW148257  13.082  14.598   6.359
48808SOL    HW248258  13.099  14.697   6.246
48809SOL     OW48259   2.305  13.001   0.437
48809SOL    HW148260   2.267  12.949   0.366
48809SOL    HW248261   2.229  13.045   0.477
48810SOL     OW48262   1.467  14.548   5.803
48810SOL    HW148263   1.400  14.611   5.778
48810SOL    HW248264   1.548  14.599   5.808
48811SOL     OW48265   7.813   2.456  12.220
48811SOL    HW148266   7.894   2.413  12.248
48811SOL    HW248267   7.840   2.545  12.196
48812SOL     OW48268   4.685   1.126   0.265
48812SOL    HW148269   4.666   1.186   0.194
48812SOL    HW248270   4.773   1.151   0.295
48813SOL     OW48271   9.641  14.562   0.075
48813SOL    HW148272   9.660  14.471   0.098
48813SOL    HW248273   9.573  14.589   0.137
48814SOL     OW48274  10.047   2.350  12.354
48814SOL    HW148275  10.138   2.363  12.326
48814SOL    HW248276  10.042   2.259  12.381
48815SOL     OW48277  13.324   6.389  10.190
48815SOL    HW148278  13.243   6.354  10.227
48815SOL    HW248279  13.298   6.425  10.105
48816SOL     OW48280  10.233   9.491  10.072
48816SOL    HW148281  10.227   9.523  10.162
48816SOL    HW248282  10.157   9.435  10.061
48817SOL     OW48283   3.989   0.934   1.646
48817SOL    HW148284   3.931   0.892   1.709
48817SOL    HW248285   4.003   0.867   1.578
48818SOL     OW48286   8.757  14.848   1.893
48818SOL    HW148287   8.805  14.854   1.975
48818SOL    HW248288   8.665  14.856   1.918
48819SOL     OW48289  11.648   0.701   1.130
48819SOL    HW148290  11.660   0.726   1.222
48819SOL    HW248291  11.737   0.687   1.097
48820SOL     OW48292  13.976  13.354   1.809
48820SOL    HW148293  14.003  13.270   1.847
48820SOL    HW248294  14.035  13.367   1.735
48821SOL     OW48295  12.281   2.331   2.867
48821SOL    HW148296  12.212   2.310   2.804
48821SOL    HW248297  12.343   2.258   2.860
48822SOL     OW48298  12.155   1.047  11.903
48822SOL    HW148299  12.095   1.110  11.942
48822SOL    HW248300  12.166   0.979  11.970
48823SOL     OW48301   0.575   3.526   8.193
48823SOL    HW148302   0.657   3.485   8.163
48823SOL    HW248303   0.548   3.583   8.122
48824SOL     OW48304  12.694  10.135  14.245
48824SOL    HW148305  12.676  10.045  14.219
48824SOL    HW248306  12.631  10.188  14.196
48825SOL     OW48307   0.758  14.565   3.657
48825SOL    HW148308   0.702  14.638   3.633
48825SOL    HW248309   0.847  14.599   3.647
48826SOL     OW48310  12.362  13.745  12.307
48826SOL    HW148311  12.399  13.832  12.289
48826SOL    HW248312  12.270  13.753  12.280
48827SOL     OW48313  13.727  14.363   1.416
48827SOL    HW148314  13.692  14.290   1.364
48827SOL    HW248315  13.762  14.424   1.351
48828SOL     OW48316   5.592  13.836  14.404
48828SOL    HW148317   5.654  13.799  14.467
48828SOL    HW248318   5.641  13.906  14.361
48829SOL     OW48319  14.041   5.325   4.442
48829SOL    HW148320  13.965   5.278   4.407
48829SOL    HW248321  14.044   5.407   4.392
48830SOL     OW48322   5.283   1.693   2.105
48830SOL    HW148323   5.336   1.747   2.047
48830SOL    HW248324   5.313   1.715   2.193
48831SOL     OW48325   5.089  12.691   1.680
48831SOL    HW148326   5.157  12.706   1.614
48831SOL    HW248327   5.010  12.673   1.629
48832SOL     OW48328  10.883   3.415  10.937
48832SOL    HW148329  10.872   3.326  10.905
48832SOL    HW248330  10.815   3.424  11.005
48833SOL     OW48331   5.718   9.557  10.744
48833SOL    HW148332   5.697   9.620  10.675
48833SOL    HW248333   5.787   9.503  10.707
48834SOL     OW48334   2.344  10.744  10.192
48834SOL    HW148335   2.296  10.673  10.149
48834SOL    HW248336   2.293  10.823  10.173
48835SOL     OW48337   7.116   9.092  14.217
48835SOL    HW148338   7.036   9.074  14.168
48835SOL    HW248339   7.166   9.150  14.160
48836SOL     OW48340  11.522   6.187   7.799
48836SOL    HW148341  11.522   6.275   7.762
48836SOL    HW248342  11.532   6.129   7.724
48837SOL     OW48343   7.757   9.851   4.127
48837SOL    HW148344   7.793   9.877   4.212
48837SOL    HW248345   7.742   9.933   4.081
48838SOL     OW48346   1.766   4.896  12.308
48838SOL    HW148347   1.741   4.860  12.222
48838SOL    HW248348   1.849   4.941  12.292
48839SOL     OW48349  13.065   0.480  10.324
48839SOL    HW148350  13.153   0.515  10.342
48839SOL    HW248351  13.076   0.427  10.245
48840SOL     OW48352  10.279  11.561   6.943
48840SOL    HW148353  10.317  11.530   6.860
48840SOL    HW248354  10.191  11.523   6.944
48841SOL     OW48355  12.077  11.142   1.603
48841SOL    HW148356  12.018  11.116   1.532
48841SOL    HW248357  12.136  11.068   1.615
48842SOL     OW48358  11.201  12.417   3.368
48842SOL    HW148359  11.175  12.485   3.430
48842SOL    HW248360  11.205  12.337   3.420
48843SOL     OW48361   5.254   7.584   0.887
48843SOL    HW148362   5.216   7.548   0.807
48843SOL    HW248363   5.345   7.552   0.886
48844SOL     OW48364   0.391  13.300   8.375
48844SOL    HW148365   0.377  13.302   8.280
48844SOL    HW248366   0.435  13.216   8.391
48845SOL     OW48367   1.935   6.153  12.767
48845SOL    HW148368   1.952   6.233  12.817
48845SOL    HW248369   1.853   6.120  12.802
48846SOL     OW48370   5.218   3.665   9.298
48846SOL    HW148371   5.198   3.748   9.342
48846SOL    HW248372   5.139   3.612   9.310
48847SOL     OW48373   0.578   8.514   0.987
48847SOL    HW148374   0.629   8.447   1.033
48847SOL    HW248375   0.487   8.487   1.001
48848SOL     OW48376   0.732  13.719   8.239
48848SOL    HW148377   0.770  13.807   8.242
48848SOL    HW248378   0.670  13.717   8.312
48849SOL     OW48379  11.921  14.138   5.182
48849SOL    HW148380  12.002  14.088   5.172
48849SOL    HW248381  11.865  14.108   5.111
48850SOL     OW48382   9.784  12.771   8.258
48850SOL    HW148383   9.772  12.833   8.330
48850SOL    HW248384   9.841  12.817   8.196
48851SOL     OW48385   0.604  11.771   7.079
48851SOL    HW148386   0.509  11.758   7.081
48851SOL    HW248387   0.637  11.694   7.033
48852SOL     OW48388   5.589   7.507   6.960
48852SOL    HW148389   5.606   7.426   6.911
48852SOL    HW248390   5.553   7.476   7.044
48853SOL     OW48391  14.408   5.693   0.710
48853SOL    HW148392  14.369   5.743   0.638
48853SOL    HW248393  14.466   5.755   0.754
48854SOL     OW48394  13.848   8.260   7.880
48854SOL    HW148395  13.858   8.276   7.973
48854SOL    HW248396  13.917   8.197   7.858
48855SOL     OW48397  12.849   5.550   7.233
48855SOL    HW148398  12.798   5.576   7.310
48855SOL    HW248399  12.934   5.592   7.246
48856SOL     OW48400   8.247  13.684  12.512
48856SOL    HW148401   8.326  13.664  12.563
48856SOL    HW248402   8.239  13.779  12.517
48857SOL     OW48403   6.329  13.243  10.182
48857SOL    HW148404   6.311  13.149  10.183
48857SOL    HW248405   6.422  13.249  10.160
48858SOL     OW48406   8.762   9.357   9.256
48858SOL    HW148407   8.776   9.331   9.346
48858SOL    HW248408   8.846   9.342   9.212
48859SOL     OW48409  10.023   3.169   6.567
48859SOL    HW148410  10.037   3.222   6.488
48859SOL    HW248411  10.069   3.217   6.636
48860SOL     OW48412  12.217   4.133   7.064
48860SOL    HW148413  12.208   4.228   7.070
48860SOL    HW248414  12.311   4.119   7.051
48861SOL     OW48415  10.698   0.878   1.972
48861SOL    HW148416  10.669   0.787   1.975
48861SOL    HW248417  10.759   0.882   1.899
48862SOL     OW48418   7.639  13.783  12.003
48862SOL    HW148419   7.627  13.723  11.930
48862SOL    HW248420   7.555  13.780  12.050
48863SOL     OW48421   3.525   6.934   3.827
48863SOL    HW148422   3.513   6.911   3.735
48863SOL    HW248423   3.620   6.941   3.838
48864SOL     OW48424   3.279  14.503   2.695
48864SOL    HW148425   3.321  14.421   2.721
48864SOL    HW248426   3.209  14.477   2.636
48865SOL     OW48427  11.037  12.421   0.611
48865SOL    HW148428  11.017  12.335   0.647
48865SOL    HW248429  11.127  12.414   0.580
48866SOL     OW48430  11.731   3.192  11.036
48866SOL    HW148431  11.730   3.123  10.970
48866SOL    HW248432  11.729   3.146  11.120
48867SOL     OW48433   4.154   2.431   3.624
48867SOL    HW148434   4.226   2.368   3.633
48867SOL    HW248435   4.088   2.400   3.686
48868SOL     OW48436   3.743   3.104   1.059
48868SOL    HW148437   3.818   3.120   1.116
48868SOL    HW248438   3.722   3.190   1.023
48869SOL     OW48439   4.489  13.960   6.626
48869SOL    HW148440   4.506  14.020   6.698
48869SOL    HW248441   4.455  14.016   6.556
48870SOL     OW48442  10.841  13.456   9.656
48870SOL    HW148443  10.775  13.388   9.644
48870SOL    HW248444  10.881  13.466   9.570
48871SOL     OW48445   1.562   7.435   3.414
48871SOL    HW148446   1.635   7.402   3.360
48871SOL    HW248447   1.573   7.530   3.414
48872SOL     OW48448  14.025  11.473  14.835
48872SOL    HW148449  14.008  11.399   0.022
48872SOL    HW248450  13.987  11.548   0.007
48873SOL     OW48451   4.196   4.932   3.479
48873SOL    HW148452   4.204   4.837   3.482
48873SOL    HW248453   4.241   4.958   3.399
48874SOL     OW48454   1.369   4.814   0.143
48874SOL    HW148455   1.404   4.812   0.232
48874SOL    HW248456   1.308   4.888   0.143
48875SOL     OW48457  11.870   8.639   5.722
48875SOL    HW148458  11.832   8.648   5.635
48875SOL    HW248459  11.911   8.553   5.721
48876SOL     OW48460   3.345  10.689   9.520
48876SOL    HW148461   3.350  10.781   9.545
48876SOL    HW248462   3.434  10.656   9.533
48877SOL     OW48463   4.731   6.742   0.765
48877SOL    HW148464   4.641   6.724   0.739
48877SOL    HW248465   4.741   6.697   0.849
48878SOL     OW48466  10.148   3.537   5.482
48878SOL    HW148467  10.229   3.586   5.469
48878SOL    HW248468  10.093   3.596   5.534
48879SOL     OW48469  12.162   3.612  12.476
48879SOL    HW148470  12.246   3.637  12.438
48879SOL    HW248471  12.145   3.679  12.542
48880SOL     OW48472   5.887   2.174   4.369
48880SOL    HW148473   5.902   2.179   4.274
48880SOL    HW248474   5.903   2.262   4.401
48881SOL     OW48475  10.091   1.583   7.404
48881SOL    HW148476  10.109   1.563   7.496
48881SOL    HW248477  10.061   1.500   7.367
48882SOL     OW48478   0.769   4.040   2.302
48882SOL    HW148479   0.799   4.098   2.232
48882SOL    HW248480   0.702   4.091   2.347
48883SOL     OW48481   2.695   4.953   5.506
48883SOL    HW148482   2.624   4.905   5.463
48883SOL    HW248483   2.706   4.910   5.591
48884SOL     OW48484  14.673   5.354   0.679
48884SOL    HW148485  14.760   5.385   0.653
48884SOL    HW248486  14.651   5.286   0.616
48885SOL     OW48487   0.901  12.717  13.920
48885SOL    HW148488   0.960  12.645  13.942
48885SOL    HW248489   0.818  12.694  13.961
48886SOL     OW48490   4.175   3.623  11.402
48886SOL    HW148491   4.255   3.616  11.454
48886SOL    HW248492   4.106   3.586  11.457
48887SOL     OW48493  14.016  10.826   0.046
48887SOL    HW148494  14.083  10.873  14.868
48887SOL    HW248495  14.036  10.846   0.137
48888SOL     OW48496   7.338   5.469   7.247
48888SOL    HW148497   7.319   5.442   7.158
48888SOL    HW248498   7.257   5.453   7.295
48889SOL     OW48499   4.126  13.451  11.958
48889SOL    HW148500   4.095  13.539  11.981
48889SOL    HW248501   4.080  13.393  12.019
48890SOL     OW48502   2.173  11.646   5.544
48890SOL    HW148503   2.106  11.600   5.594
48890SOL    HW248504   2.256  11.622   5.587
48891SOL     OW48505  10.175  14.358  10.982
48891SOL    HW148506  10.170  14.264  10.998
48891SOL    HW248507  10.113  14.374  10.911
48892SOL     OW48508   1.369  13.971   6.384
48892SOL    HW148509   1.318  13.923   6.319
48892SOL    HW248510   1.333  14.059   6.384
48893SOL     OW48511  13.240   0.526   8.446
48893SOL    HW148512  13.158   0.478   8.439
48893SOL    HW248513  13.224   0.607   8.396
48894SOL     OW48514   6.465   3.811  14.214
48894SOL    HW148515   6.423   3.831  14.298
48894SOL    HW248516   6.392   3.797  14.154
48895SOL     OW48517   5.553   1.296   5.297
48895SOL    HW148518   5.495   1.360   5.255
48895SOL    HW248519   5.600   1.346   5.363
48896SOL     OW48520  14.762   9.045  14.230
48896SOL    HW148521  14.720   9.093  14.301
48896SOL    HW248522  14.807   8.972  14.272
48897SOL     OW48523   4.237   2.336  13.399
48897SOL    HW148524   4.332   2.341  13.409
48897SOL    HW248525   4.207   2.290  13.477
48898SOL     OW48526   0.252  10.502  10.299
48898SOL    HW148527   0.229  10.459  10.217
48898SOL    HW248528   0.198  10.581  10.301
48899SOL     OW48529  10.994   6.007  10.808
48899SOL    HW148530  10.934   6.054  10.750
48899SOL    HW248531  11.020   6.071  10.873
48900SOL     OW48532   9.846   8.158  14.368
48900SOL    HW148533   9.867   8.114  14.286
48900SOL    HW248534   9.928   8.161  14.416
48901SOL     OW48535  11.828   1.417   3.066
48901SOL    HW148536  11.891   1.488   3.062
48901SOL    HW248537  11.797   1.417   3.157
48902SOL     OW48538   1.014   7.261   4.381
48902SOL    HW148539   0.986   7.195   4.445
48902SOL    HW248540   1.052   7.210   4.310
48903SOL     OW48541   0.065  13.808   3.324
48903SOL    HW148542   0.087  13.899   3.302
48903SOL    HW248543   0.136  13.779   3.381
48904SOL     OW48544   7.568   9.557   3.171
48904SOL    HW148545   7.657   9.531   3.197
48904SOL    HW248546   7.581   9.615   3.096
48905SOL     OW48547   4.035   1.738   7.303
48905SOL    HW148548   4.035   1.774   7.214
48905SOL    HW248549   3.949   1.696   7.312
48906SOL     OW48550   9.337   2.929   8.912
48906SOL    HW148551   9.382   3.004   8.874
48906SOL    HW248552   9.334   2.947   9.006
48907SOL     OW48553   8.844  12.866   3.728
48907SOL    HW148554   8.819  12.804   3.660
48907SOL    HW248555   8.924  12.908   3.695
48908SOL     OW48556  14.782   9.236  14.015
48908SOL    HW148557  14.691   9.264  14.014
48908SOL    HW248558  14.779   9.148  14.053
48909SOL     OW48559   5.178  13.543   1.589
48909SOL    HW148560   5.190  13.525   1.495
48909SOL    HW248561   5.225  13.625   1.604
48910SOL     OW48562   4.119  14.174   5.800
48910SOL    HW148563   4.048  14.144   5.856
48910SOL    HW248564   4.130  14.105   5.734
48911SOL     OW48565   5.234   6.344   5.248
48911SOL    HW148566   5.225   6.401   5.325
48911SOL    HW248567   5.146   6.309   5.235
48912SOL     OW48568   4.513   7.511  11.573
48912SOL    HW148569   4.591   7.543  11.528
48912SOL    HW248570   4.544   7.486  11.660
48913SOL     OW48571   2.389   9.087   6.995
48913SOL    HW148572   2.439   9.099   6.914
48913SOL    HW248573   2.454   9.096   7.065
48914SOL     OW48574   2.850  11.536  14.538
48914SOL    HW148575   2.937  11.556  14.504
48914SOL    HW248576   2.790  11.556  14.466
48915SOL     OW48577   8.068  11.492  11.810
48915SOL    HW148578   8.061  11.397  11.804
48915SOL    HW248579   8.083  11.509  11.903
48916SOL     OW48580  12.824   1.317  11.171
48916SOL    HW148581  12.754   1.316  11.236
48916SOL    HW248582  12.864   1.230  11.176
48917SOL     OW48583   7.505   4.256  13.005
48917SOL    HW148584   7.415   4.222  13.006
48917SOL    HW248585   7.506   4.322  13.074
48918SOL     OW48586   2.439  12.593   3.590
48918SOL    HW148587   2.465  12.501   3.592
48918SOL    HW248588   2.344  12.592   3.605
48919SOL     OW48589   9.858   3.764  10.233
48919SOL    HW148590   9.903   3.688  10.271
48919SOL    HW248591   9.876   3.835  10.294
48920SOL     OW48592   1.236   2.003   8.910
48920SOL    HW148593   1.192   2.065   8.968
48920SOL    HW248594   1.202   1.918   8.935
48921SOL     OW48595   2.123   2.297   1.231
48921SOL    HW148596   2.129   2.288   1.136
48921SOL    HW248597   2.117   2.208   1.264
48922SOL     OW48598   4.802   0.066   9.650
48922SOL    HW148599   4.754   0.076   9.567
48922SOL    HW248600   4.788  14.848   9.674
48923SOL     OW48601   0.154  13.281  13.001
48923SOL    HW148602   0.211  13.355  12.978
48923SOL    HW248603   0.066  13.309  12.977
48924SOL     OW48604  10.837  12.354   9.762
48924SOL    HW148605  10.803  12.392   9.682
48924SOL    HW248606  10.892  12.423   9.800
48925SOL     OW48607   4.916   8.533   5.397
48925SOL    HW148608   4.827   8.503   5.376
48925SOL    HW248609   4.973   8.474   5.349
48926SOL     OW48610  12.095  10.229   6.110
48926SOL    HW148611  12.076  10.211   6.202
48926SOL    HW248612  12.071  10.149   6.064
48927SOL     OW48613   3.714   5.901  12.887
48927SOL    HW148614   3.777   5.972  12.899
48927SOL    HW248615   3.757   5.840  12.827
48928SOL     OW48616   8.564  14.438   9.581
48928SOL    HW148617   8.515  14.404   9.505
48928SOL    HW248618   8.592  14.526   9.553
48929SOL     OW48619  12.347  13.903   0.068
48929SOL    HW148620  12.332  13.890   0.162
48929SOL    HW248621  12.318  13.993   0.052
48930SOL     OW48622   0.937   2.766  14.156
48930SOL    HW148623   1.005   2.815  14.110
48930SOL    HW248624   0.890   2.831  14.207
48931SOL     OW48625  10.213   7.390   3.610
48931SOL    HW148626  10.259   7.467   3.644
48931SOL    HW248627  10.228   7.392   3.516
48932SOL     OW48628   0.805   4.913   4.401
48932SOL    HW148629   0.720   4.891   4.439
48932SOL    HW248630   0.869   4.881   4.464
48933SOL     OW48631   0.474   1.351   1.474
48933SOL    HW148632   0.410   1.322   1.410
48933SOL    HW248633   0.422   1.376   1.550
48934SOL     OW48634   8.976  14.194  13.339
48934SOL    HW148635   8.994  14.156  13.253
48934SOL    HW248636   8.884  14.174  13.356
48935SOL     OW48637   4.700  14.414   0.224
48935SOL    HW148638   4.725  14.471   0.296
48935SOL    HW248639   4.765  14.432   0.156
48936SOL     OW48640   9.286   9.449  11.855
48936SOL    HW148641   9.330   9.394  11.790
48936SOL    HW248642   9.343   9.526  11.863
48937SOL     OW48643  14.354   1.616  11.741
48937SOL    HW148644  14.272   1.635  11.787
48937SOL    HW248645  14.422   1.633  11.807
48938SOL     OW48646   6.139  11.904   6.787
48938SOL    HW148647   6.133  11.985   6.735
48938SOL    HW248648   6.170  11.838   6.725
48939SOL     OW48649   6.236  11.726   3.614
48939SOL    HW148650   6.145  11.707   3.637
48939SOL    HW248651   6.259  11.801   3.669
48940SOL     OW48652  10.143  13.599  14.009
48940SOL    HW148653  10.219  13.550  14.040
48940SOL    HW248654  10.172  13.689  14.004
48941SOL     OW48655  12.555  12.339   1.938
48941SOL    HW148656  12.488  12.295   1.991
48941SOL    HW248657  12.582  12.414   1.991
48942SOL     OW48658  12.234   1.935  12.591
48942SOL    HW148659  12.289   1.932  12.513
48942SOL    HW248660  12.217   1.842  12.611
48943SOL     OW48661   0.374   6.136  14.844
48943SOL    HW148662   0.353   6.229  14.854
48943SOL    HW248663   0.310   6.103  14.781
48944SOL     OW48664  11.221   9.985   9.583
48944SOL    HW148665  11.316   9.975   9.576
48944SOL    HW248666  11.187   9.936   9.507
48945SOL     OW48667  11.442  10.412  10.816
48945SOL    HW148668  11.486  10.373  10.741
48945SOL    HW248669  11.356  10.437  10.783
48946SOL     OW48670   7.391  11.682   6.366
48946SOL    HW148671   7.481  11.702   6.390
48946SOL    HW248672   7.338  11.744   6.416
48947SOL     OW48673   6.742  10.028  14.631
48947SOL    HW148674   6.803   9.992  14.695
48947SOL    HW248675   6.733   9.959  14.565
48948SOL     OW48676   4.612   3.339   3.014
48948SOL    HW148677   4.585   3.259   2.969
48948SOL    HW248678   4.682   3.374   2.959
48949SOL     OW48679   2.049   9.683  10.726
48949SOL    HW148680   2.086   9.597  10.748
48949SOL    HW248681   2.050   9.685  10.630
48950SOL     OW48682   7.798  10.733   3.614
48950SOL    HW148683   7.775  10.813   3.567
48950SOL    HW248684   7.893  10.738   3.624
48951SOL     OW48685   5.439   2.825   0.768
48951SOL    HW148686   5.345   2.840   0.763
48951SOL    HW248687   5.475   2.905   0.805
48952SOL     OW48688  14.500   1.571   4.472
48952SOL    HW148689  14.537   1.489   4.440
48952SOL    HW248690  14.575   1.621   4.502
48953SOL     OW48691   5.485   3.586   2.883
48953SOL    HW148692   5.446   3.501   2.905
48953SOL    HW248693   5.550   3.565   2.816
48954SOL     OW48694   3.816   5.318   2.429
48954SOL    HW148695   3.759   5.395   2.423
48954SOL    HW248696   3.904   5.354   2.429
48955SOL     OW48697  11.424  12.266   8.128
48955SOL    HW148698  11.424  12.335   8.062
48955SOL    HW248699  11.461  12.308   8.206
48956SOL     OW48700   6.785   5.259  12.587
48956SOL    HW148701   6.790   5.285  12.495
48956SOL    HW248702   6.753   5.338  12.631
48957SOL     OW48703   6.817   2.079   5.485
48957SOL    HW148704   6.897   2.115   5.445
48957SOL    HW248705   6.822   2.107   5.576
48958SOL     OW48706   5.863   9.324   9.113
48958SOL    HW148707   5.945   9.279   9.130
48958SOL    HW248708   5.854   9.323   9.017
48959SOL     OW48709  12.119   3.985   3.304
48959SOL    HW148710  12.120   4.080   3.291
48959SOL    HW248711  12.028   3.966   3.328
48960SOL     OW48712   8.388   1.528   2.497
48960SOL    HW148713   8.354   1.498   2.413
48960SOL    HW248714   8.388   1.449   2.552
48961SOL     OW48715   3.099   9.874   5.069
48961SOL    HW148716   3.071   9.784   5.054
48961SOL    HW248717   3.042   9.928   5.015
48962SOL     OW48718   2.852  14.080   1.453
48962SOL    HW148719   2.784  14.109   1.392
48962SOL    HW248720   2.804  14.064   1.535
48963SOL     OW48721   6.350  14.054  11.365
48963SOL    HW148722   6.297  14.128  11.335
48963SOL    HW248723   6.298  13.976  11.341
48964SOL     OW48724   1.797  12.267  14.129
48964SOL    HW148725   1.808  12.194  14.190
48964SOL    HW248726   1.886  12.288  14.101
48965SOL     OW48727   8.986  13.450   9.477
48965SOL    HW148728   9.058  13.417   9.424
48965SOL    HW248729   8.997  13.407   9.562
48966SOL     OW48730   1.626   3.676   8.348
48966SOL    HW148731   1.650   3.730   8.423
48966SOL    HW248732   1.552   3.721   8.308
48967SOL     OW48733   7.094   5.196   9.189
48967SOL    HW148734   7.041   5.274   9.196
48967SOL    HW248735   7.071   5.143   9.265
48968SOL     OW48736  13.235   9.854   8.104
48968SOL    HW148737  13.275   9.890   8.183
48968SOL    HW248738  13.166   9.916   8.081
48969SOL     OW48739   6.884   3.350   8.085
48969SOL    HW148740   6.939   3.331   8.161
48969SOL    HW248741   6.798   3.315   8.107
48970SOL     OW48742   9.269   7.889   3.735
48970SOL    HW148743   9.249   7.835   3.811
48970SOL    HW248744   9.276   7.978   3.770
48971SOL     OW48745  13.523   1.855   1.843
48971SOL    HW148746  13.576   1.916   1.792
48971SOL    HW248747  13.444   1.843   1.791
48972SOL     OW48748   1.683   7.646  10.670
48972SOL    HW148749   1.678   7.574  10.733
48972SOL    HW248750   1.717   7.720  10.721
48973SOL     OW48751   9.361  12.695  11.337
48973SOL    HW148752   9.342  12.603  11.351
48973SOL    HW248753   9.325  12.714  11.251
48974SOL     OW48754  11.653   6.096  13.633
48974SOL    HW148755  11.746   6.118  13.644
48974SOL    HW248756  11.608   6.180  13.639
48975SOL     OW48757   1.700  13.484  10.013
48975SOL    HW148758   1.736  13.571  10.000
48975SOL    HW248759   1.607  13.493   9.992
48976SOL     OW48760  13.415   5.265  12.827
48976SOL    HW148761  13.432   5.183  12.781
48976SOL    HW248762  13.395   5.328  12.757
48977SOL     OW48763   7.276  10.302   1.044
48977SOL    HW148764   7.235  10.240   0.984
48977SOL    HW248765   7.206  10.365   1.064
48978SOL     OW48766   8.309   1.807   6.573
48978SOL    HW148767   8.254   1.734   6.543
48978SOL    HW248768   8.248   1.875   6.600
48979SOL     OW48769  11.115   8.589   2.613
48979SOL    HW148770  11.073   8.566   2.530
48979SOL    HW248771  11.051   8.563   2.680
48980SOL     OW48772   8.124   4.075  12.680
48980SOL    HW148773   8.193   4.010  12.692
48980SOL    HW248774   8.170   4.159  12.682
48981SOL     OW48775   7.066   8.044  11.314
48981SOL    HW148776   7.081   8.037  11.409
48981SOL    HW248777   7.122   8.116  11.286
48982SOL     OW48778  12.707   8.660  14.505
48982SOL    HW148779  12.662   8.651  14.421
48982SOL    HW248780  12.659   8.729  14.550
48983SOL     OW48781   2.518   2.745   8.057
48983SOL    HW148782   2.488   2.674   8.114
48983SOL    HW248783   2.599   2.712   8.018
48984SOL     OW48784   6.661   0.142  10.183
48984SOL    HW148785   6.753   0.154  10.204
48984SOL    HW248786   6.643   0.050  10.203
48985SOL     OW48787   7.265   0.348   6.125
48985SOL    HW148788   7.218   0.399   6.191
48985SOL    HW248789   7.327   0.295   6.175
48986SOL     OW48790   2.965   5.219  11.499
48986SOL    HW148791   2.962   5.311  11.476
48986SOL    HW248792   2.884   5.204  11.549
48987SOL     OW48793  11.435  13.725   7.863
48987SOL    HW148794  11.457  13.781   7.937
48987SOL    HW248795  11.399  13.784   7.797
48988SOL     OW48796   1.533  10.786  12.234
48988SOL    HW148797   1.518  10.751  12.322
48988SOL    HW248798   1.593  10.724  12.193
48989SOL     OW48799   7.176  10.020  13.434
48989SOL    HW148800   7.200  10.112  13.426
48989SOL    HW248801   7.209   9.993  13.520
48990SOL     OW48802  14.591   3.059   9.946
48990SOL    HW148803  14.658   3.112   9.902
48990SOL    HW248804  14.633   2.975   9.961
48991SOL     OW48805   9.620   7.324   9.067
48991SOL    HW148806   9.591   7.395   9.123
48991SOL    HW248807   9.567   7.332   8.987
48992SOL     OW48808   6.996   8.579  11.050
48992SOL    HW148809   6.999   8.624  11.134
48992SOL    HW248810   6.954   8.642  10.991
48993SOL     OW48811   7.878  13.306   4.929
48993SOL    HW148812   7.808  13.311   4.864
48993SOL    HW248813   7.878  13.214   4.956
48994SOL     OW48814   9.426   3.630   0.957
48994SOL    HW148815   9.334   3.604   0.962
48994SOL    HW248816   9.447   3.658   1.046
48995SOL     OW48817  14.730  14.696   3.218
48995SOL    HW148818  14.805  14.751   3.195
48995SOL    HW248819  14.719  14.639   3.142
48996SOL     OW48820  10.472   0.918   8.169
48996SOL    HW148821  10.554   0.881   8.138
48996SOL    HW248822  10.485   1.013   8.162
48997SOL     OW48823  10.760   4.011  13.553
48997SOL    HW148824  10.720   4.098  13.558
48997SOL    HW248825  10.833   4.015  13.615
48998SOL     OW48826  12.748   8.195   7.438
48998SOL    HW148827  12.717   8.157   7.520
48998SOL    HW248828  12.841   8.172   7.434
48999SOL     OW48829   3.362   9.333   6.599
48999SOL    HW148830   3.287   9.287   6.562
48999SOL    HW248831   3.361   9.419   6.556
49000SOL     OW48832   7.436   3.775   6.580
49000SOL    HW148833   7.520   3.752   6.620
49000SOL    HW248834   7.435   3.729   6.497
49001SOL     OW48835   2.551   7.456   6.388
49001SOL    HW148836   2.533   7.376   6.338
49001SOL    HW248837   2.597   7.513   6.327
49002SOL     OW48838   9.343  10.748   1.807
49002SOL    HW148839   9.343  10.659   1.842
49002SOL    HW248840   9.415  10.749   1.743
49003SOL     OW48841   3.672   3.474   9.992
49003SOL    HW148842   3.667   3.421   9.912
49003SOL    HW248843   3.628   3.421  10.058
49004SOL     OW48844   1.303   6.904  11.584
49004SOL    HW148845   1.255   6.830  11.623
49004SOL    HW248846   1.361   6.934  11.654
49005SOL     OW48847   9.409   3.216   6.037
49005SOL    HW148848   9.428   3.304   6.006
49005SOL    HW248849   9.488   3.191   6.086
49006SOL     OW48850   4.550  14.698   3.003
49006SOL    HW148851   4.569  14.633   3.070
49006SOL    HW248852   4.585  14.780   3.039
49007SOL     OW48853   0.274  11.479  13.109
49007SOL    HW148854   0.321  11.499  13.190
49007SOL    HW248855   0.307  11.394  13.083
49008SOL     OW48856   8.652  13.979   9.875
49008SOL    HW148857   8.725  13.973   9.813
49008SOL    HW248858   8.623  13.889   9.886
49009SOL     OW48859   3.038   9.244   6.912
49009SOL    HW148860   2.955   9.266   6.868
49009SOL    HW248861   3.046   9.149   6.902
49010SOL     OW48862   1.946   3.348  14.451
49010SOL    HW148863   1.897   3.267  14.432
49010SOL    HW248864   1.891   3.394  14.514
49011SOL     OW48865   0.305   6.121  12.066
49011SOL    HW148866   0.399   6.129  12.086
49011SOL    HW248867   0.303   6.079  11.980
49012SOL     OW48868   6.462   7.750   6.853
49012SOL    HW148869   6.508   7.776   6.933
49012SOL    HW248870   6.376   7.793   6.859
49013SOL     OW48871   5.320   8.835  10.895
49013SOL    HW148872   5.353   8.745  10.897
49013SOL    HW248873   5.366   8.876  10.822
49014SOL     OW48874   0.732   6.580   4.351
49014SOL    HW148875   0.688   6.605   4.432
49014SOL    HW248876   0.731   6.484   4.353
49015SOL     OW48877   0.096   3.098   8.891
49015SOL    HW148878   0.136   3.122   8.975
49015SOL    HW248879   0.099   3.178   8.839
49016SOL     OW48880  14.627   8.281   2.954
49016SOL    HW148881  14.706   8.232   2.979
49016SOL    HW248882  14.595   8.238   2.875
49017SOL     OW48883  13.535   1.410  14.133
49017SOL    HW148884  13.474   1.427  14.061
49017SOL    HW248885  13.512   1.322  14.163
49018SOL     OW48886   8.970   1.841   0.727
49018SOL    HW148887   9.003   1.931   0.727
49018SOL    HW248888   8.967   1.816   0.820
49019SOL     OW48889   5.103   8.176   2.753
49019SOL    HW148890   5.168   8.108   2.775
49019SOL    HW248891   5.092   8.225   2.834
49020SOL     OW48892  12.845   9.370   2.366
49020SOL    HW148893  12.773   9.316   2.337
49020SOL    HW248894  12.804   9.443   2.412
49021SOL     OW48895   6.013  11.053   8.535
49021SOL    HW148896   6.046  10.971   8.569
49021SOL    HW248897   5.976  11.031   8.449
49022SOL     OW48898   1.365   4.412   4.880
49022SOL    HW148899   1.356   4.390   4.787
49022SOL    HW248900   1.290   4.468   4.899
49023SOL     OW48901   7.746   6.171  13.999
49023SOL    HW148902   7.662   6.217  14.000
49023SOL    HW248903   7.809   6.234  14.034
49024SOL     OW48904  10.335  13.824  12.198
49024SOL    HW148905  10.301  13.735  12.198
49024SOL    HW248906  10.364  13.839  12.288
49025SOL     OW48907  14.641  13.292   1.988
49025SOL    HW148908  14.677  13.218   2.037
49025SOL    HW248909  14.683  13.286   1.902
49026SOL     OW48910   0.805  12.642   7.675
49026SOL    HW148911   0.751  12.565   7.656
49026SOL    HW248912   0.858  12.616   7.750
49027SOL     OW48913   2.206   6.834  13.280
49027SOL    HW148914   2.138   6.902  13.284
49027SOL    HW248915   2.249   6.839  13.365
49028SOL     OW48916   4.308   6.862   6.033
49028SOL    HW148917   4.248   6.884   5.962
49028SOL    HW248918   4.395   6.867   5.994
49029SOL     OW48919   5.691  14.313   4.870
49029SOL    HW148920   5.686  14.311   4.965
49029SOL    HW248921   5.638  14.389   4.845
49030SOL     OW48922   9.231   6.144  11.557
49030SOL    HW148923   9.282   6.152  11.638
49030SOL    HW248924   9.245   6.053  11.530
49031SOL     OW48925  14.516   2.655   1.761
49031SOL    HW148926  14.476   2.668   1.675
49031SOL    HW248927  14.610   2.653   1.744
49032SOL     OW48928   0.063  13.889   7.685
49032SOL    HW148929   0.046  13.946   7.760
49032SOL    HW248930   0.155  13.904   7.664
49033SOL     OW48931  13.681   4.295   3.218
49033SOL    HW148932  13.589   4.293   3.241
49033SOL    HW248933  13.721   4.224   3.268
49034SOL     OW48934   2.098   6.913   6.058
49034SOL    HW148935   2.056   6.844   6.006
49034SOL    HW248936   2.170   6.945   6.002
49035SOL     OW48937  13.145  14.507   2.025
49035SOL    HW148938  13.229  14.496   2.070
49035SOL    HW248939  13.121  14.598   2.041
49036SOL     OW48940   3.179   5.882  10.945
49036SOL    HW148941   3.182   5.908  11.036
49036SOL    HW248942   3.250   5.931  10.903
49037SOL     OW48943  12.862   9.745   0.563
49037SOL    HW148944  12.847   9.691   0.485
49037SOL    HW248945  12.903   9.825   0.530
49038SOL     OW48946   7.049   4.759   0.967
49038SOL    HW148947   6.987   4.828   0.991
49038SOL    HW248948   7.019   4.682   1.015
49039SOL     OW48949  13.464   9.926   4.623
49039SOL    HW148950  13.549   9.890   4.599
49039SOL    HW248951  13.481  10.020   4.637
49040SOL     OW48952   1.577   4.143  11.295
49040SOL    HW148953   1.625   4.089  11.358
49040SOL    HW248954   1.496   4.095  11.280
49041SOL     OW48955  12.160   8.468  14.462
49041SOL    HW148956  12.250   8.484  14.492
49041SOL    HW248957  12.139   8.381  14.496
49042SOL     OW48958  11.599  11.935  11.263
49042SOL    HW148959  11.643  12.012  11.299
49042SOL    HW248960  11.670  11.881  11.229
49043SOL     OW48961   2.151   0.129  12.844
49043SOL    HW148962   2.196   0.057  12.889
49043SOL    HW248963   2.195   0.208  12.874
49044SOL     OW48964   7.802   1.725   9.574
49044SOL    HW148965   7.732   1.676   9.528
49044SOL    HW248966   7.786   1.707   9.666
49045SOL     OW48967  12.924  14.799   6.707
49045SOL    HW148968  13.012  14.791   6.671
49045SOL    HW248969  12.893   0.012   6.677
49046SOL     OW48970  12.990  12.225   1.465
49046SOL    HW148971  12.992  12.279   1.545
49046SOL    HW248972  12.900  12.236   1.432
49047SOL     OW48973  12.266   1.749   1.136
49047SOL    HW148974  12.292   1.826   1.085
49047SOL    HW248975  12.336   1.739   1.201
49048SOL     OW48976   5.430   7.162  13.882
49048SOL    HW148977   5.402   7.072  13.865
49048SOL    HW248978   5.457   7.161  13.974
49049SOL     OW48979   8.764   1.413   9.540
49049SOL    HW148980   8.832   1.350   9.517
49049SOL    HW248981   8.746   1.395   9.633
49050SOL     OW48982  12.748  13.601  12.800
49050SOL    HW148983  12.796  13.675  12.836
49050SOL    HW248984  12.727  13.547  12.877
49051SOL     OW48985  10.638  12.246   9.272
49051SOL    HW148986  10.589  12.323   9.298
49051SOL    HW248987  10.730  12.273   9.280
49052SOL     OW48988   8.195  14.122   3.836
49052SOL    HW148989   8.253  14.198   3.831
49052SOL    HW248990   8.183  14.095   3.745
49053SOL     OW48991   3.769   3.817  11.681
49053SOL    HW148992   3.732   3.831  11.768
49053SOL    HW248993   3.761   3.902  11.637
49054SOL     OW48994  12.700   5.770   7.090
49054SOL    HW148995  12.680   5.694   7.145
49054SOL    HW248996  12.644   5.840   7.125
49055SOL     OW48997   0.441   7.514   2.785
49055SOL    HW148998   0.513   7.576   2.771
49055SOL    HW248999   0.441   7.459   2.707
49056SOL     OW49000   4.843   8.254   6.373
49056SOL    HW149001   4.837   8.187   6.441
49056SOL    HW249002   4.902   8.216   6.307
49057SOL     OW49003  14.503  11.341   7.772
49057SOL    HW149004  14.480  11.252   7.743
49057SOL    HW249005  14.475  11.398   7.700
49058SOL     OW49006  11.982   0.597   5.449
49058SOL    HW149007  12.042   0.661   5.410
49058SOL    HW249008  11.985   0.522   5.390
49059SOL     OW49009   6.433   7.527   9.808
49059SOL    HW149010   6.356   7.583   9.798
49059SOL    HW249011   6.456   7.500   9.719
49060SOL     OW49012  14.431  12.543  14.816
49060SOL    HW149013  14.392  12.600  14.749
49060SOL    HW249014  14.397  12.578   0.026
49061SOL     OW49015   6.262   2.600   7.559
49061SOL    HW149016   6.316   2.674   7.528
49061SOL    HW249017   6.174   2.619   7.526
49062SOL     OW49018   6.393  11.381  13.725
49062SOL    HW149019   6.386  11.449  13.658
49062SOL    HW249020   6.411  11.301  13.676
49063SOL     OW49021   2.511  13.505   3.002
49063SOL    HW149022   2.517  13.519   2.908
49063SOL    HW249023   2.499  13.411   3.012
49064SOL     OW49024   9.298   8.190  14.588
49064SOL    HW149025   9.213   8.231  14.608
49064SOL    HW249026   9.332   8.164  14.674
49065SOL     OW49027   5.613  12.058   5.196
49065SOL    HW149028   5.665  11.992   5.241
49065SOL    HW249029   5.615  12.134   5.255
49066SOL     OW49030  11.494  10.878  13.523
49066SOL    HW149031  11.570  10.917  13.567
49066SOL    HW249032  11.425  10.943  13.534
49067SOL     OW49033   8.969   7.428   1.052
49067SOL    HW149034   9.060   7.458   1.054
49067SOL    HW249035   8.941   7.432   1.143
49068SOL     OW49036  10.146   7.275  10.768
49068SOL    HW149037  10.240   7.293  10.764
49068SOL    HW249038  10.115   7.290  10.679
49069SOL     OW49039   5.849  14.513  11.096
49069SOL    HW149040   5.871  14.581  11.032
49069SOL    HW249041   5.826  14.437  11.043
49070SOL     OW49042   2.445   5.703   7.725
49070SOL    HW149043   2.359   5.740   7.705
49070SOL    HW249044   2.507   5.764   7.686
49071SOL     OW49045  12.394   2.175   3.853
49071SOL    HW149046  12.398   2.136   3.941
49071SOL    HW249047  12.386   2.101   3.794
49072SOL     OW49048   0.894  10.127   6.582
49072SOL    HW149049   0.859  10.102   6.497
49072SOL    HW249050   0.895  10.223   6.581
49073SOL     OW49051   5.816   0.659   8.250
49073SOL    HW149052   5.751   0.710   8.298
49073SOL    HW249053   5.766   0.587   8.211
49074SOL     OW49054   3.599   3.474   5.585
49074SOL    HW149055   3.687   3.498   5.615
49074SOL    HW249056   3.540   3.530   5.635
49075SOL     OW49057   7.828   8.416  12.303
49075SOL    HW149058   7.765   8.343  12.300
49075SOL    HW249059   7.844   8.430  12.396
49076SOL     OW49060   2.561   2.585   5.491
49076SOL    HW149061   2.603   2.664   5.526
49076SOL    HW249062   2.468   2.600   5.506
49077SOL     OW49063   9.567  11.312   5.253
49077SOL    HW149064   9.620  11.254   5.308
49077SOL    HW249065   9.562  11.394   5.302
49078SOL     OW49066   2.609   1.911   9.466
49078SOL    HW149067   2.533   1.920   9.524
49078SOL    HW249068   2.592   1.973   9.395
49079SOL     OW49069   7.131   8.905  12.278
49079SOL    HW149070   7.093   8.820  12.301
49079SOL    HW249071   7.075   8.969  12.322
49080SOL     OW49072   6.425  14.596   2.453
49080SOL    HW149073   6.421  14.545   2.373
49080SOL    HW249074   6.356  14.662   2.443
49081SOL     OW49075   3.135   9.016  10.346
49081SOL    HW149076   3.181   8.933  10.331
49081SOL    HW249077   3.117   9.017  10.440
49082SOL     OW49078  12.903   0.080  11.615
49082SOL    HW149079  12.899   0.071  11.520
49082SOL    HW249080  12.996   0.070  11.636
49083SOL     OW49081   0.135   2.892  13.618
49083SOL    HW149082   0.055   2.891  13.566
49083SOL    HW249083   0.108   2.925  13.703
49084SOL     OW49084   9.688  14.061   1.615
49084SOL    HW149085   9.649  14.111   1.544
49084SOL    HW249086   9.621  14.061   1.684
49085SOL     OW49087  14.193   5.128   0.567
49085SOL    HW149088  14.268   5.180   0.597
49085SOL    HW249089  14.130   5.132   0.640
49086SOL     OW49090   5.141  11.286   0.487
49086SOL    HW149091   5.102  11.207   0.524
49086SOL    HW249092   5.076  11.317   0.423
49087SOL     OW49093   5.881  12.916   7.794
49087SOL    HW149094   5.812  12.853   7.774
49087SOL    HW249095   5.962  12.870   7.776
49088SOL     OW49096  14.393   7.368   3.143
49088SOL    HW149097  14.297   7.367   3.149
49088SOL    HW249098  14.419   7.279   3.167
49089SOL     OW49099  11.060   1.804   5.073
49089SOL    HW149100  11.021   1.883   5.034
49089SOL    HW249101  11.144   1.795   5.028
49090SOL     OW49102   4.975  13.563   0.068
49090SOL    HW149103   4.910  13.492   0.059
49090SOL    HW249104   4.963  13.595   0.157
49091SOL     OW49105   1.445  11.764   9.126
49091SOL    HW149106   1.436  11.745   9.033
49091SOL    HW249107   1.357  11.756   9.162
49092SOL     OW49108   8.757   5.256   7.269
49092SOL    HW149109   8.831   5.239   7.328
49092SOL    HW249110   8.705   5.175   7.272
49093SOL     OW49111   5.482   2.714  12.803
49093SOL    HW149112   5.542   2.780  12.837
49093SOL    HW249113   5.539   2.650  12.759
49094SOL     OW49114  11.599   8.763  11.271
49094SOL    HW149115  11.544   8.714  11.333
49094SOL    HW249116  11.540   8.828  11.233
49095SOL     OW49117  11.406  12.543   6.253
49095SOL    HW149118  11.388  12.601   6.179
49095SOL    HW249119  11.324  12.498   6.268
49096SOL     OW49120  13.872  12.503  14.597
49096SOL    HW149121  13.860  12.415  14.562
49096SOL    HW249122  13.896  12.556  14.521
49097SOL     OW49123   3.085  13.092   1.371
49097SOL    HW149124   3.176  13.123   1.371
49097SOL    HW249125   3.034  13.169   1.396
49098SOL     OW49126  14.631   0.981   8.417
49098SOL    HW149127  14.572   1.020   8.481
49098SOL    HW249128  14.592   1.004   8.332
49099SOL     OW49129   6.319   6.313  11.692
49099SOL    HW149130   6.359   6.226  11.688
49099SOL    HW249131   6.278   6.325  11.607
49100SOL     OW49132   2.740   3.963  14.739
49100SOL    HW149133   2.750   4.015  14.659
49100SOL    HW249134   2.811   3.898  14.735
49101SOL     OW49135  13.055   8.961   4.980
49101SOL    HW149136  13.131   8.913   4.947
49101SOL    HW249137  13.092   9.020   5.046
49102SOL     OW49138   5.272   4.904   4.295
49102SOL    HW149139   5.181   4.905   4.264
49102SOL    HW249140   5.267   4.937   4.384
49103SOL     OW49141   7.033   3.127  12.073
49103SOL    HW149142   7.097   3.060  12.096
49103SOL    HW249143   7.043   3.194  12.140
49104SOL     OW49144  14.700  10.011   9.578
49104SOL    HW149145  14.783   9.968   9.559
49104SOL    HW249146  14.721  10.074   9.647
49105SOL     OW49147  12.880   7.836   3.454
49105SOL    HW149148  12.862   7.850   3.547
49105SOL    HW249149  12.971   7.866   3.442
49106SOL     OW49150   2.490   6.962  13.279
49106SOL    HW149151   2.535   6.885  13.244
49106SOL    HW249152   2.428   6.926  13.342
49107SOL     OW49153  14.130   2.408  14.700
49107SOL    HW149154  14.225   2.413  14.691
49107SOL    HW249155  14.103   2.498  14.716
49108SOL     OW49156   3.494  14.164   9.787
49108SOL    HW149157   3.512  14.254   9.812
49108SOL    HW249158   3.414  14.169   9.734
49109SOL     OW49159  11.366   8.784   6.446
49109SOL    HW149160  11.332   8.741   6.367
49109SOL    HW249161  11.375   8.876   6.421
49110SOL     OW49162  13.965   2.404   3.818
49110SOL    HW149163  13.973   2.366   3.730
49110SOL    HW249164  13.977   2.329   3.877
49111SOL     OW49165   5.240   5.128   5.535
49111SOL    HW149166   5.274   5.203   5.487
49111SOL    HW249167   5.145   5.131   5.521
49112SOL     OW49168   5.429   1.981   0.940
49112SOL    HW149169   5.389   1.943   0.862
49112SOL    HW249170   5.391   2.068   0.947
49113SOL     OW49171   8.146  11.698   2.110
49113SOL    HW149172   8.085  11.652   2.168
49113SOL    HW249173   8.092  11.762   2.064
49114SOL     OW49174   5.516   9.748   5.525
49114SOL    HW149175   5.501   9.798   5.605
49114SOL    HW249176   5.483   9.660   5.545
49115SOL     OW49177  13.440   5.868   4.882
49115SOL    HW149178  13.491   5.795   4.847
49115SOL    HW249179  13.502   5.940   4.891
49116SOL     OW49180   4.171   0.959   6.608
49116SOL    HW149181   4.185   0.957   6.703
49116SOL    HW249182   4.259   0.950   6.572
49117SOL     OW49183   5.836  14.542   4.052
49117SOL    HW149184   5.810  14.525   4.142
49117SOL    HW249185   5.926  14.511   4.046
49118SOL     OW49186   6.875   1.664   7.911
49118SOL    HW149187   6.868   1.748   7.956
49118SOL    HW249188   6.786   1.645   7.882
49119SOL     OW49189   1.067   2.118   7.645
49119SOL    HW149190   1.048   2.053   7.712
49119SOL    HW249191   1.162   2.121   7.639
49120SOL     OW49192  11.407   9.366  10.015
49120SOL    HW149193  11.480   9.421   9.986
49120SOL    HW249194  11.330   9.401   9.969
49121SOL     OW49195   7.576   7.788   4.849
49121SOL    HW149196   7.617   7.874   4.848
49121SOL    HW249197   7.622   7.738   4.782
49122SOL     OW49198   3.995   2.340   0.828
49122SOL    HW149199   4.059   2.412   0.833
49122SOL    HW249200   3.926   2.366   0.890
49123SOL     OW49201   0.741   2.491   6.929
49123SOL    HW149202   0.785   2.406   6.939
49123SOL    HW249203   0.798   2.541   6.871
49124SOL     OW49204   6.157   5.034  11.541
49124SOL    HW149205   6.110   4.953  11.520
49124SOL    HW249206   6.105   5.103  11.499
49125SOL     OW49207   5.989  14.678  13.975
49125SOL    HW149208   6.038  14.756  13.998
49125SOL    HW249209   5.934  14.705  13.901
49126SOL     OW49210   9.529   8.871  13.777
49126SOL    HW149211   9.464   8.897  13.712
49126SOL    HW249212   9.575   8.952  13.798
49127SOL     OW49213   6.805   3.685   4.575
49127SOL    HW149214   6.721   3.694   4.619
49127SOL    HW249215   6.803   3.750   4.505
49128SOL     OW49216   2.341   3.384  11.377
49128SOL    HW149217   2.401   3.369  11.450
49128SOL    HW249218   2.398   3.397  11.302
49129SOL     OW49219   9.601   0.409   6.776
49129SOL    HW149220   9.585   0.444   6.688
49129SOL    HW249221   9.696   0.418   6.788
49130SOL     OW49222   7.906   7.617   5.544
49130SOL    HW149223   7.873   7.529   5.564
49130SOL    HW249224   7.965   7.638   5.616
49131SOL     OW49225   3.405  10.939   4.012
49131SOL    HW149226   3.413  10.968   3.921
49131SOL    HW249227   3.336  10.873   4.011
49132SOL     OW49228   0.448  13.252   3.097
49132SOL    HW149229   0.363  13.284   3.126
49132SOL    HW249230   0.443  13.256   3.001
49133SOL     OW49231   5.115  14.109  12.561
49133SOL    HW149232   5.147  14.158  12.637
49133SOL    HW249233   5.159  14.024  12.567
49134SOL     OW49234   4.577  12.382   4.395
49134SOL    HW149235   4.514  12.437   4.443
49134SOL    HW249236   4.528  12.353   4.318
49135SOL     OW49237  10.507   3.360  13.853
49135SOL    HW149238  10.450   3.347  13.778
49135SOL    HW249239  10.596   3.349  13.818
49136SOL     OW49240  11.279   3.457   6.210
49136SOL    HW149241  11.190   3.424   6.223
49136SOL    HW249242  11.332   3.379   6.193
49137SOL     OW49243  13.799   1.866   5.672
49137SOL    HW149244  13.876   1.898   5.720
49137SOL    HW249245  13.724   1.894   5.724
49138SOL     OW49246  10.631   8.716  13.803
49138SOL    HW149247  10.678   8.682  13.880
49138SOL    HW249248  10.638   8.811  13.811
49139SOL     OW49249   0.553   9.111   4.985
49139SOL    HW149250   0.557   9.066   5.070
49139SOL    HW249251   0.582   9.045   4.922
49140SOL     OW49252   6.559  12.556   9.876
49140SOL    HW149253   6.474  12.538   9.917
49140SOL    HW249254   6.551  12.520   9.788
49141SOL     OW49255  11.689  12.320   3.700
49141SOL    HW149256  11.672  12.370   3.780
49141SOL    HW249257  11.778  12.344   3.674
49142SOL     OW49258   2.807   3.619   3.402
49142SOL    HW149259   2.801   3.525   3.418
49142SOL    HW249260   2.783   3.660   3.485
49143SOL     OW49261  11.934   6.105   8.928
49143SOL    HW149262  11.943   6.157   8.848
49143SOL    HW249263  12.024   6.089   8.956
49144SOL     OW49264   5.459  11.138  10.049
49144SOL    HW149265   5.549  11.163  10.029
49144SOL    HW249266   5.461  11.042  10.054
49145SOL     OW49267   9.331   0.512   1.653
49145SOL    HW149268   9.315   0.600   1.619
49145SOL    HW249269   9.248   0.466   1.640
49146SOL     OW49270  13.616   9.031   9.964
49146SOL    HW149271  13.689   8.996   9.913
49146SOL    HW249272  13.559   8.956   9.978
49147SOL     OW49273   2.887  10.975  11.022
49147SOL    HW149274   2.932  10.915  10.961
49147SOL    HW249275   2.794  10.957  11.008
49148SOL     OW49276   0.078  14.623  12.191
49148SOL    HW149277   0.080  14.708  12.235
49148SOL    HW249278   0.066  14.644  12.098
49149SOL     OW49279   7.300   3.589   8.588
49149SOL    HW149280   7.253   3.531   8.648
49149SOL    HW249281   7.391   3.559   8.591
49150SOL     OW49282   6.286  10.857   4.290
49150SOL    HW149283   6.289  10.844   4.385
49150SOL    HW249284   6.292  10.769   4.253
49151SOL     OW49285  13.388   2.910   4.513
49151SOL    HW149286  13.294   2.911   4.528
49151SOL    HW249287  13.407   2.997   4.477
49152SOL     OW49288  10.355   4.281  11.782
49152SOL    HW149289  10.447   4.283  11.758
49152SOL    HW249290  10.315   4.220  11.720
49153SOL     OW49291   2.420  11.222   9.150
49153SOL    HW149292   2.427  11.297   9.092
49153SOL    HW249293   2.479  11.156   9.112
49154SOL     OW49294   1.535   6.525   9.955
49154SOL    HW149295   1.511   6.433   9.966
49154SOL    HW249296   1.452   6.570   9.939
49155SOL     OW49297   0.320   3.972   0.911
49155SOL    HW149298   0.275   4.026   0.975
49155SOL    HW249299   0.413   3.988   0.927
49156SOL     OW49300   6.828  12.643  12.199
49156SOL    HW149301   6.846  12.736  12.210
49156SOL    HW249302   6.896  12.600  12.252
49157SOL     OW49303  13.139   3.392   9.157
49157SOL    HW149304  13.205   3.412   9.224
49157SOL    HW249305  13.057   3.382   9.206
49158SOL     OW49306  12.793  11.993   0.952
49158SOL    HW149307  12.859  12.060   0.937
49158SOL    HW249308  12.775  11.996   1.046
49159SOL     OW49309   8.586   4.468   5.239
49159SOL    HW149310   8.642   4.396   5.267
49159SOL    HW249311   8.498   4.442   5.269
49160SOL     OW49312   6.869  11.644   1.565
49160SOL    HW149313   6.879  11.706   1.493
49160SOL    HW249314   6.896  11.693   1.643
49161SOL     OW49315   7.693   2.420   8.302
49161SOL    HW149316   7.601   2.394   8.306
49161SOL    HW249317   7.690   2.511   8.270
49162SOL     OW49318   8.072  14.791   0.345
49162SOL    HW149319   8.136  14.729   0.381
49162SOL    HW249320   7.989  14.743   0.349
49163SOL     OW49321  10.767   3.289   7.020
49163SOL    HW149322  10.812   3.348   6.961
49163SOL    HW249323  10.762   3.337   7.103
49164SOL     OW49324  11.604   5.276  10.908
49164SOL    HW149325  11.632   5.368  10.909
49164SOL    HW249326  11.520   5.276  10.954
49165SOL     OW49327  11.959   9.995  11.416
49165SOL    HW149328  11.948   9.902  11.433
49165SOL    HW249329  11.878  10.023  11.374
49166SOL     OW49330   8.540   8.942   9.048
49166SOL    HW149331   8.494   8.982   9.122
49166SOL    HW249332   8.566   9.016   8.993
49167SOL     OW49333  10.054   0.697  11.188
49167SOL    HW149334  10.019   0.615  11.153
49167SOL    HW249335  10.013   0.765  11.135
49168SOL     OW49336   6.753   3.672  11.263
49168SOL    HW149337   6.705   3.716  11.193
49168SOL    HW249338   6.825   3.731  11.284
49169SOL     OW49339   3.094   4.078   2.206
49169SOL    HW149340   3.010   4.105   2.242
49169SOL    HW249341   3.117   3.999   2.254
49170SOL     OW49342  12.444  12.604  11.801
49170SOL    HW149343  12.499  12.627  11.876
49170SOL    HW249344  12.451  12.509  11.794
49171SOL     OW49345   2.775   2.950  12.673
49171SOL    HW149346   2.730   2.922  12.752
49171SOL    HW249347   2.846   3.006  12.706
49172SOL     OW49348   3.001   3.125  12.778
49172SOL    HW149349   3.072   3.076  12.820
49172SOL    HW249350   3.042   3.168  12.704
49173SOL     OW49351  12.427   5.500   2.236
49173SOL    HW149352  12.424   5.405   2.227
49173SOL    HW249353  12.485   5.515   2.310
49174SOL     OW49354   0.924  12.942   9.074
49174SOL    HW149355   0.848  12.995   9.096
49174SOL    HW249356   0.998  12.990   9.111
49175SOL     OW49357   4.149  10.207  13.659
49175SOL    HW149358   4.197  10.124  13.658
49175SOL    HW249359   4.083  10.197  13.727
49176SOL     OW49360  14.868   7.542   9.985
49176SOL    HW149361  14.850   7.499   9.902
49176SOL    HW249362  14.858   7.473  10.051
49177SOL     OW49363  14.236  12.777   2.839
49177SOL    HW149364  14.249  12.851   2.779
49177SOL    HW249365  14.236  12.700   2.782
49178SOL     OW49366   1.588   5.270  11.312
49178SOL    HW149367   1.566   5.212  11.239
49178SOL    HW249368   1.680   5.291  11.299
49179SOL     OW49369  11.482  13.756  13.940
49179SOL    HW149370  11.483  13.747  14.036
49179SOL    HW249371  11.396  13.723  13.914
49180SOL     OW49372  14.828  14.764  11.200
49180SOL    HW149373  14.775  14.690  11.171
49180SOL    HW249374  14.770  14.840  11.190
49181SOL     OW49375  11.152   8.595   9.828
49181SOL    HW149376  11.174   8.503   9.815
49181SOL    HW249377  11.235   8.641   9.814
49182SOL     OW49378   8.726   2.372   6.143
49182SOL    HW149379   8.809   2.324   6.145
49182SOL    HW249380   8.670   2.325   6.204
49183SOL     OW49381   9.210  11.918   7.934
49183SOL    HW149382   9.234  11.827   7.954
49183SOL    HW249383   9.128  11.932   7.982
49184SOL     OW49384   2.702   8.909   3.586
49184SOL    HW149385   2.787   8.910   3.630
49184SOL    HW249386   2.652   8.842   3.632
49185SOL     OW49387   0.486   5.195  13.362
49185SOL    HW149388   0.455   5.280  13.329
49185SOL    HW249389   0.480   5.202  13.457
49186SOL     OW49390  10.248   0.400   1.256
49186SOL    HW149391  10.293   0.363   1.180
49186SOL    HW249392  10.317   0.416   1.320
49187SOL     OW49393  14.489  12.054   9.366
49187SOL    HW149394  14.574  12.097   9.372
49187SOL    HW249395  14.454  12.059   9.455
49188SOL     OW49396   6.770   9.806   3.016
49188SOL    HW149397   6.835   9.874   3.030
49188SOL    HW249398   6.774   9.787   2.922
49189SOL     OW49399   9.987  11.166  11.011
49189SOL    HW149400   9.918  11.230  11.024
49189SOL    HW249401  10.065  11.219  10.991
49190SOL     OW49402   1.185   7.496   9.511
49190SOL    HW149403   1.224   7.482   9.425
49190SOL    HW249404   1.104   7.544   9.494
49191SOL     OW49405   9.176  13.624  10.498
49191SOL    HW149406   9.117  13.696  10.477
49191SOL    HW249407   9.228  13.612  10.418
49192SOL     OW49408   1.105   0.861   9.564
49192SOL    HW149409   1.046   0.819   9.502
49192SOL    HW249410   1.122   0.793   9.630
49193SOL     OW49411   9.535   2.939  10.830
49193SOL    HW149412   9.563   2.894  10.909
49193SOL    HW249413   9.607   3.000  10.810
49194SOL     OW49414  14.247   9.040  13.974
49194SOL    HW149415  14.244   9.038  13.878
49194SOL    HW249416  14.328   8.994  13.996
49195SOL     OW49417   0.291   8.888   0.304
49195SOL    HW149418   0.275   8.966   0.357
49195SOL    HW249419   0.348   8.918   0.233
49196SOL     OW49420   3.281  10.787   1.682
49196SOL    HW149421   3.358  10.738   1.653
49196SOL    HW249422   3.230  10.724   1.733
49197SOL     OW49423   6.140   5.232  14.328
49197SOL    HW149424   6.068   5.294  14.320
49197SOL    HW249425   6.131   5.197  14.417
49198SOL     OW49426   3.793  10.177  13.256
49198SOL    HW149427   3.810  10.087  13.229
49198SOL    HW249428   3.881  10.214  13.270
49199SOL     OW49429   1.994   3.764  13.588
49199SOL    HW149430   1.949   3.808  13.516
49199SOL    HW249431   1.999   3.831  13.657
49200SOL     OW49432  11.953   8.927   2.797
49200SOL    HW149433  12.027   8.963   2.749
49200SOL    HW249434  11.942   8.986   2.872
49201SOL     OW49435   5.796   0.029   1.537
49201SOL    HW149436   5.755   0.008   1.621
49201SOL    HW249437   5.733   0.086   1.493
49202SOL     OW49438   3.846  12.502  11.616
49202SOL    HW149439   3.805  12.421  11.587
49202SOL    HW249440   3.773  12.553  11.652
49203SOL     OW49441   2.710  14.452   6.151
49203SOL    HW149442   2.764  14.514   6.102
49203SOL    HW249443   2.724  14.368   6.107
49204SOL     OW49444   2.322   2.415  11.640
49204SOL    HW149445   2.289   2.356  11.707
49204SOL    HW249446   2.378   2.477  11.687
49205SOL     OW49447   5.938   4.226   3.358
49205SOL    HW149448   5.884   4.254   3.284
49205SOL    HW249449   5.875   4.205   3.427
49206SOL     OW49450   3.352   6.954   4.398
49206SOL    HW149451   3.282   7.005   4.357
49206SOL    HW249452   3.427   6.964   4.340
49207SOL     OW49453   4.361   8.898   6.621
49207SOL    HW149454   4.348   8.990   6.645
49207SOL    HW249455   4.281   8.855   6.651
49208SOL     OW49456   6.451   2.657  14.357
49208SOL    HW149457   6.535   2.617  14.376
49208SOL    HW249458   6.447   2.661  14.261
49209SOL     OW49459   4.998   8.371  11.341
49209SOL    HW149460   4.919   8.413  11.377
49209SOL    HW249461   4.977   8.358  11.248
49210SOL     OW49462   8.655   3.174  12.458
49210SOL    HW149463   8.567   3.202  12.483
49210SOL    HW249464   8.675   3.224  12.379
49211SOL     OW49465   8.112  13.382  12.537
49211SOL    HW149466   8.158  13.459  12.569
49211SOL    HW249467   8.181  13.323  12.507
49212SOL     OW49468   3.393  13.624   8.666
49212SOL    HW149469   3.318  13.633   8.607
49212SOL    HW249470   3.467  13.656   8.615
49213SOL     OW49471   9.998   4.677  13.037
49213SOL    HW149472  10.089   4.679  13.065
49213SOL    HW249473   9.984   4.588  13.005
49214SOL     OW49474   9.032   9.439   4.557
49214SOL    HW149475   9.090   9.432   4.633
49214SOL    HW249476   9.082   9.490   4.493
49215SOL     OW49477  11.433   8.075  11.218
49215SOL    HW149478  11.416   8.170  11.219
49215SOL    HW249479  11.528   8.068  11.205
49216SOL     OW49480  11.543  13.933  11.453
49216SOL    HW149481  11.520  13.869  11.521
49216SOL    HW249482  11.567  14.011  11.502
49217SOL     OW49483   9.484   8.679   9.896
49217SOL    HW149484   9.445   8.680   9.983
49217SOL    HW249485   9.552   8.612   9.900
49218SOL     OW49486   4.922   1.189  14.050
49218SOL    HW149487   4.900   1.224  13.964
49218SOL    HW249488   5.013   1.160  14.042
49219SOL     OW49489   4.467  12.316  14.769
49219SOL    HW149490   4.470  12.392  14.711
49219SOL    HW249491   4.552  12.274  14.758
49220SOL     OW49492   3.028  13.247   0.933
49220SOL    HW149493   3.027  13.152   0.926
49220SOL    HW249494   2.940  13.270   0.961
49221SOL     OW49495  14.597   9.359  13.035
49221SOL    HW149496  14.680   9.334  12.995
49221SOL    HW249497  14.617   9.373  13.127
49222SOL     OW49498   9.444   9.004  12.854
49222SOL    HW149499   9.531   9.006  12.895
49222SOL    HW249500   9.386   9.040  12.921
49223SOL     OW49501   2.078   1.133   3.716
49223SOL    HW149502   2.056   1.225   3.704
49223SOL    HW249503   2.078   1.096   3.627
49224SOL     OW49504   8.401   9.893   6.269
49224SOL    HW149505   8.451   9.816   6.296
49224SOL    HW249506   8.339   9.908   6.341
49225SOL     OW49507   4.130   9.104   1.109
49225SOL    HW149508   4.114   9.023   1.060
49225SOL    HW249509   4.089   9.172   1.057
49226SOL     OW49510   9.758   8.857   0.535
49226SOL    HW149511   9.823   8.806   0.487
49226SOL    HW249512   9.755   8.816   0.622
49227SOL     OW49513   4.037  10.779  11.378
49227SOL    HW149514   4.061  10.760  11.287
49227SOL    HW249515   4.118  10.806  11.420
49228SOL     OW49516   9.484   8.622  11.892
49228SOL    HW149517   9.571   8.582  11.880
49228SOL    HW249518   9.424   8.564  11.847
49229SOL     OW49519   9.113  10.662   2.110
49229SOL    HW149520   9.108  10.742   2.057
49229SOL    HW249521   9.205  10.656   2.135
49230SOL     OW49522  12.171   1.903   7.534
49230SOL    HW149523  12.136   1.814   7.545
49230SOL    HW249524  12.104   1.959   7.573
49231SOL     OW49525   7.530  10.633   6.055
49231SOL    HW149526   7.565  10.566   6.115
49231SOL    HW249527   7.505  10.584   5.977
49232SOL     OW49528  14.668   0.742   4.874
49232SOL    HW149529  14.668   0.784   4.960
49232SOL    HW249530  14.759   0.713   4.862
49233SOL     OW49531   3.841   6.432   2.540
49233SOL    HW149532   3.823   6.376   2.464
49233SOL    HW249533   3.817   6.378   2.615
49234SOL     OW49534   6.807   9.932   2.340
49234SOL    HW149535   6.848  10.000   2.286
49234SOL    HW249536   6.777   9.866   2.277
49235SOL     OW49537  13.886  10.301   4.006
49235SOL    HW149538  13.955  10.276   4.068
49235SOL    HW249539  13.929  10.363   3.947
49236SOL     OW49540   7.212   7.373   6.221
49236SOL    HW149541   7.177   7.421   6.146
49236SOL    HW249542   7.134   7.337   6.264
49237SOL     OW49543   1.166   2.188   3.430
49237SOL    HW149544   1.122   2.154   3.508
49237SOL    HW249545   1.149   2.282   3.432
49238SOL     OW49546   6.329  12.173  13.825
49238SOL    HW149547   6.414  12.133  13.846
49238SOL    HW249548   6.348  12.233  13.753
49239SOL     OW49549   6.007   5.063   6.271
49239SOL    HW149550   6.039   5.120   6.341
49239SOL    HW249551   6.086   5.039   6.222
49240SOL     OW49552   5.210  11.855  10.208
49240SOL    HW149553   5.126  11.828  10.247
49240SOL    HW249554   5.270  11.785  10.231
49241SOL     OW49555   1.118   9.678   5.105
49241SOL    HW149556   1.084   9.704   5.191
49241SOL    HW249557   1.049   9.621   5.069
49242SOL     OW49558   9.479   9.850   4.938
49242SOL    HW149559   9.519   9.895   4.863
49242SOL    HW249560   9.551   9.801   4.977
49243SOL     OW49561   3.019  10.315   4.496
49243SOL    HW149562   3.106  10.348   4.519
49243SOL    HW249563   3.009  10.336   4.403
49244SOL     OW49564  13.312   7.674   5.155
49244SOL    HW149565  13.233   7.624   5.175
49244SOL    HW249566  13.298   7.758   5.197
49245SOL     OW49567   6.377   3.313   7.293
49245SOL    HW149568   6.312   3.331   7.361
49245SOL    HW249569   6.457   3.356   7.324
49246SOL     OW49570   4.611  11.608   5.705
49246SOL    HW149571   4.642  11.633   5.792
49246SOL    HW249572   4.603  11.691   5.657
49247SOL     OW49573   7.451   2.071  13.015
49247SOL    HW149574   7.378   2.077  13.077
49247SOL    HW249575   7.428   1.997  12.959
49248SOL     OW49576   6.866  14.659  12.340
49248SOL    HW149577   6.926  14.629  12.408
49248SOL    HW249578   6.921  14.707  12.278
49249SOL     OW49579  12.092   0.802   5.745
49249SOL    HW149580  12.099   0.754   5.828
49249SOL    HW249581  12.000   0.794   5.720
49250SOL     OW49582  12.633   9.319   3.905
49250SOL    HW149583  12.698   9.366   3.957
49250SOL    HW249584  12.651   9.226   3.923
49251SOL     OW49585  14.078   4.521   6.179
49251SOL    HW149586  14.094   4.565   6.263
49251SOL    HW249587  13.990   4.486   6.187
49252SOL     OW49588  13.397  13.040  13.157
49252SOL    HW149589  13.473  13.017  13.103
49252SOL    HW249590  13.350  12.957  13.169
49253SOL     OW49591   7.397   3.732  10.864
49253SOL    HW149592   7.394   3.671  10.937
49253SOL    HW249593   7.313   3.778  10.866
49254SOL     OW49594   7.996   3.571  13.361
49254SOL    HW149595   8.064   3.603  13.302
49254SOL    HW249596   7.941   3.515  13.306
49255SOL     OW49597  10.870   2.902   7.880
49255SOL    HW149598  10.942   2.917   7.941
49255SOL    HW249599  10.912   2.889   7.795
49256SOL     OW49600  14.336   8.939   2.817
49256SOL    HW149601  14.305   8.896   2.737
49256SOL    HW249602  14.264   8.931   2.879
49257SOL     OW49603   5.901   1.820   2.200
49257SOL    HW149604   5.860   1.898   2.162
49257SOL    HW249605   5.974   1.855   2.251
49258SOL     OW49606   1.739   7.252  10.008
49258SOL    HW149607   1.705   7.269  10.096
49258SOL    HW249608   1.761   7.159  10.009
49259SOL     OW49609   3.216   0.552   9.037
49259SOL    HW149610   3.180   0.490   9.101
49259SOL    HW249611   3.245   0.626   9.090
49260SOL     OW49612   7.411   0.620   9.464
49260SOL    HW149613   7.478   0.568   9.420
49260SOL    HW249614   7.397   0.695   9.406
49261SOL     OW49615   3.088  14.621   9.783
49261SOL    HW149616   3.169  14.668   9.800
49261SOL    HW249617   3.026  14.658   9.846
49262SOL     OW49618   7.447   5.017  10.643
49262SOL    HW149619   7.538   5.021  10.613
49262SOL    HW249620   7.410   5.103  10.622
49263SOL     OW49621   3.332   3.729   9.148
49263SOL    HW149622   3.331   3.686   9.063
49263SOL    HW249623   3.348   3.658   9.211
49264SOL     OW49624   1.763   2.540   3.562
49264SOL    HW149625   1.743   2.497   3.645
49264SOL    HW249626   1.857   2.524   3.549
49265SOL     OW49627   4.001   1.134   1.464
49265SOL    HW149628   4.029   1.069   1.528
49265SOL    HW249629   4.031   1.098   1.380
49266SOL     OW49630   7.751   3.107  10.637
49266SOL    HW149631   7.747   3.015  10.614
49266SOL    HW249632   7.754   3.108  10.733
49267SOL     OW49633   9.079   8.791   4.300
49267SOL    HW149634   9.014   8.756   4.240
49267SOL    HW249635   9.049   8.880   4.319
49268SOL     OW49636   1.615   1.739  12.485
49268SOL    HW149637   1.543   1.681  12.459
49268SOL    HW249638   1.626   1.723  12.579
49269SOL     OW49639  12.133   0.634  13.851
49269SOL    HW149640  12.040   0.622  13.864
49269SOL    HW249641  12.159   0.698  13.917
49270SOL     OW49642   2.112   4.767   8.821
49270SOL    HW149643   2.122   4.842   8.763
49270SOL    HW249644   2.041   4.716   8.782
49271SOL     OW49645   3.856   3.730   5.882
49271SOL    HW149646   3.844   3.644   5.842
49271SOL    HW249647   3.767   3.757   5.906
49272SOL     OW49648  12.668  12.116   0.250
49272SOL    HW149649  12.641  12.104   0.341
49272SOL    HW249650  12.761  12.092   0.249
49273SOL     OW49651   4.622   6.214  12.844
49273SOL    HW149652   4.555   6.177  12.901
49273SOL    HW249653   4.692   6.240  12.904
49274SOL     OW49654  12.958  13.081   9.840
49274SOL    HW149655  13.029  13.130   9.799
49274SOL    HW249656  12.984  12.989   9.831
49275SOL     OW49657  11.848  10.768   5.950
49275SOL    HW149658  11.873  10.732   6.035
49275SOL    HW249659  11.764  10.726   5.930
49276SOL     OW49660  11.228   9.611   3.302
49276SOL    HW149661  11.249   9.529   3.257
49276SOL    HW249662  11.211   9.585   3.392
49277SOL     OW49663   3.724   2.296   8.245
49277SOL    HW149664   3.783   2.243   8.299
49277SOL    HW249665   3.683   2.356   8.307
49278SOL     OW49666   6.878   4.903  10.313
49278SOL    HW149667   6.787   4.882  10.333
49278SOL    HW249668   6.897   4.855  10.232
49279SOL     OW49669   6.883   9.927  10.820
49279SOL    HW149670   6.856   9.851  10.871
49279SOL    HW249671   6.828   9.999  10.851
49280SOL     OW49672   3.515   7.573   3.552
49280SOL    HW149673   3.453   7.641   3.526
49280SOL    HW249674   3.466   7.518   3.613
49281SOL     OW49675   6.741   9.380  11.518
49281SOL    HW149676   6.733   9.432  11.598
49281SOL    HW249677   6.795   9.433  11.460
49282SOL     OW49678  14.156   0.349   5.085
49282SOL    HW149679  14.226   0.402   5.046
49282SOL    HW249680  14.085   0.351   5.021
49283SOL     OW49681   4.502  11.559   6.632
49283SOL    HW149682   4.568  11.567   6.564
49283SOL    HW249683   4.439  11.496   6.597
49284SOL     OW49684   5.247   2.187   7.419
49284SOL    HW149685   5.234   2.164   7.510
49284SOL    HW249686   5.222   2.279   7.413
49285SOL     OW49687   3.357  11.451   9.655
49285SOL    HW149688   3.288  11.434   9.592
49285SOL    HW249689   3.427  11.391   9.631
49286SOL     OW49690   7.733   8.845  10.472
49286SOL    HW149691   7.783   8.839  10.391
49286SOL    HW249692   7.643   8.862  10.443
49287SOL     OW49693   5.395   2.703  10.893
49287SOL    HW149694   5.413   2.621  10.847
49287SOL    HW249695   5.411   2.772  10.829
49288SOL     OW49696   4.843  14.688   6.661
49288SOL    HW149697   4.868  14.644   6.580
49288SOL    HW249698   4.773  14.748   6.636
49289SOL     OW49699   6.209   6.911   0.672
49289SOL    HW149700   6.184   6.974   0.604
49289SOL    HW249701   6.287   6.948   0.712
49290SOL     OW49702   8.484  11.638   8.266
49290SOL    HW149703   8.575  11.613   8.282
49290SOL    HW249704   8.475  11.634   8.171
49291SOL     OW49705  14.374   3.003   0.369
49291SOL    HW149706  14.423   3.053   0.305
49291SOL    HW249707  14.370   3.059   0.446
49292SOL     OW49708   7.157   5.601   3.200
49292SOL    HW149709   7.124   5.515   3.175
49292SOL    HW249710   7.252   5.592   3.203
49293SOL     OW49711  10.489   4.577   3.621
49293SOL    HW149712  10.404   4.566   3.579
49293SOL    HW249713  10.505   4.493   3.665
49294SOL     OW49714   4.156  11.471  11.743
49294SOL    HW149715   4.118  11.384  11.730
49294SOL    HW249716   4.176  11.474  11.836
49295SOL     OW49717  10.292   5.260   5.824
49295SOL    HW149718  10.199   5.242   5.814
49295SOL    HW249719  10.299   5.355   5.829
49296SOL     OW49720   7.730   1.838  13.601
49296SOL    HW149721   7.743   1.743  13.604
49296SOL    HW249722   7.716   1.863  13.692
49297SOL     OW49723   2.618   4.996   8.707
49297SOL    HW149724   2.686   4.929   8.704
49297SOL    HW249725   2.651   5.061   8.768
49298SOL     OW49726   1.380   4.776   1.555
49298SOL    HW149727   1.376   4.827   1.475
49298SOL    HW249728   1.320   4.703   1.540
49299SOL     OW49729   2.069   9.930   4.377
49299SOL    HW149730   2.068   9.873   4.299
49299SOL    HW249731   2.081  10.018   4.342
49300SOL     OW49732   9.786  10.849   7.138
49300SOL    HW149733   9.730  10.772   7.142
49300SOL    HW249734   9.813  10.864   7.228
49301SOL     OW49735  12.976  13.331  10.946
49301SOL    HW149736  13.035  13.383  11.001
49301SOL    HW249737  12.920  13.284  11.008
49302SOL     OW49738   1.291   2.008   0.240
49302SOL    HW149739   1.213   2.040   0.284
49302SOL    HW249740   1.339   2.087   0.215
49303SOL     OW49741   3.239   2.023   1.791
49303SOL    HW149742   3.330   1.998   1.809
49303SOL    HW249743   3.227   2.106   1.837
49304SOL     OW49744   7.858   7.642  14.618
49304SOL    HW149745   7.945   7.640  14.579
49304SOL    HW249746   7.810   7.708  14.567
49305SOL     OW49747  10.322  13.662  11.571
49305SOL    HW149748  10.290  13.575  11.547
49305SOL    HW249749  10.276  13.721  11.511
49306SOL     OW49750   5.401  14.186  11.833
49306SOL    HW149751   5.349  14.113  11.799
49306SOL    HW249752   5.352  14.216  11.910
49307SOL     OW49753  12.017   8.016  11.571
49307SOL    HW149754  11.982   7.942  11.620
49307SOL    HW249755  12.040   7.979  11.485
49308SOL     OW49756  12.639  13.800  12.661
49308SOL    HW149757  12.621  13.761  12.576
49308SOL    HW249758  12.658  13.726  12.718
49309SOL     OW49759   2.627   1.641   2.015
49309SOL    HW149760   2.638   1.720   2.068
49309SOL    HW249761   2.715   1.604   2.009
49310SOL     OW49762   4.283   8.532   3.380
49310SOL    HW149763   4.308   8.580   3.459
49310SOL    HW249764   4.192   8.558   3.365
49311SOL     OW49765   7.638  10.864  11.547
49311SOL    HW149766   7.707  10.918  11.584
49311SOL    HW249767   7.630  10.790  11.607
49312SOL     OW49768   1.089  14.162  10.365
49312SOL    HW149769   1.114  14.206  10.284
49312SOL    HW249770   0.993  14.168  10.367
49313SOL     OW49771  13.249  13.528   3.637
49313SOL    HW149772  13.185  13.519   3.707
49313SOL    HW249773  13.323  13.473   3.664
49314SOL     OW49774   2.378  10.656  12.461
49314SOL    HW149775   2.330  10.734  12.487
49314SOL    HW249776   2.431  10.684  12.387
49315SOL     OW49777   6.274   2.248  12.245
49315SOL    HW149778   6.189   2.233  12.288
49315SOL    HW249779   6.337   2.247  12.317
49316SOL     OW49780   0.390   8.169   8.352
49316SOL    HW149781   0.403   8.138   8.262
49316SOL    HW249782   0.350   8.095   8.397
49317SOL     OW49783   1.432  14.160   3.772
49317SOL    HW149784   1.471  14.195   3.852
49317SOL    HW249785   1.403  14.072   3.796
49318SOL     OW49786  14.456   6.693   9.467
49318SOL    HW149787  14.377   6.747   9.467
49318SOL    HW249788  14.527   6.756   9.453
49319SOL     OW49789   1.830   3.854   3.899
49319SOL    HW149790   1.925   3.847   3.908
49319SOL    HW249791   1.817   3.900   3.816
49320SOL     OW49792   2.175  12.598  12.868
49320SOL    HW149793   2.185  12.682  12.822
49320SOL    HW249794   2.241  12.542  12.828
49321SOL     OW49795   6.059   5.226   4.999
49321SOL    HW149796   6.002   5.300   5.022
49321SOL    HW249797   6.104   5.205   5.081
49322SOL     OW49798   0.372  14.219  12.165
49322SOL    HW149799   0.449  14.162  12.155
49322SOL    HW249800   0.401  14.287  12.226
49323SOL     OW49801   8.990  14.778   8.725
49323SOL    HW149802   8.939  14.825   8.791
49323SOL    HW249803   9.079  14.777   8.760
49324SOL     OW49804  11.783   4.018   6.280
49324SOL    HW149805  11.715   4.081   6.257
49324SOL    HW249806  11.863   4.054   6.240
49325SOL     OW49807  14.549   3.043  12.356
49325SOL    HW149808  14.511   3.131  12.350
49325SOL    HW249809  14.618   3.052  12.422
49326SOL     OW49810   7.831   8.551  14.589
49326SOL    HW149811   7.845   8.551  14.494
49326SOL    HW249812   7.915   8.581  14.625
49327SOL     OW49813   7.171   1.714   0.291
49327SOL    HW149814   7.146   1.696   0.382
49327SOL    HW249815   7.209   1.632   0.260
49328SOL     OW49816   0.122  13.908  14.775
49328SOL    HW149817   0.129  13.993  14.731
49328SOL    HW249818   0.034  13.878  14.755
49329SOL     OW49819   0.894   9.347  10.502
49329SOL    HW149820   0.921   9.307  10.585
49329SOL    HW249821   0.971   9.341  10.447
49330SOL     OW49822   8.979   5.402   8.847
49330SOL    HW149823   8.926   5.324   8.861
49330SOL    HW249824   9.067   5.368   8.831
49331SOL     OW49825  12.161   6.637   2.211
49331SOL    HW149826  12.066   6.630   2.221
49331SOL    HW249827  12.194   6.555   2.248
49332SOL     OW49828  11.199  12.890   0.526
49332SOL    HW149829  11.123  12.944   0.548
49332SOL    HW249830  11.183  12.806   0.569
49333SOL     OW49831  12.562  13.852   6.273
49333SOL    HW149832  12.480  13.901   6.265
49333SOL    HW249833  12.631  13.918   6.264
49334SOL     OW49834   5.975   7.860   7.485
49334SOL    HW149835   5.974   7.767   7.461
49334SOL    HW249836   5.962   7.859   7.580
49335SOL     OW49837   4.531  11.564  13.688
49335SOL    HW149838   4.604  11.585  13.630
49335SOL    HW249839   4.512  11.646  13.733
49336SOL     OW49840   3.131  14.460   5.463
49336SOL    HW149841   3.052  14.425   5.503
49336SOL    HW249842   3.099  14.520   5.396
49337SOL     OW49843   7.753   3.796   3.300
49337SOL    HW149844   7.777   3.842   3.220
49337SOL    HW249845   7.659   3.780   3.291
49338SOL     OW49846  14.872  14.421   4.037
49338SOL    HW149847  14.789  14.459   4.008
49338SOL    HW249848  14.851  14.329   4.056
49339SOL     OW49849   5.465   2.847   3.106
49339SOL    HW149850   5.531   2.873   3.170
49339SOL    HW249851   5.412   2.781   3.151
49340SOL     OW49852   6.852  14.019   1.600
49340SOL    HW149853   6.829  14.107   1.569
49340SOL    HW249854   6.932  14.031   1.650
49341SOL     OW49855  14.137  13.485   3.651
49341SOL    HW149856  14.196  13.522   3.585
49341SOL    HW249857  14.051  13.523   3.631
49342SOL     OW49858   3.906  12.760   0.191
49342SOL    HW149859   3.840  12.814   0.146
49342SOL    HW249860   3.877  12.670   0.177
49343SOL     OW49861   2.398  13.802   2.217
49343SOL    HW149862   2.324  13.814   2.158
49343SOL    HW249863   2.384  13.867   2.286
49344SOL     OW49864   6.793   8.469  13.613
49344SOL    HW149865   6.740   8.442  13.538
49344SOL    HW249866   6.731   8.477  13.685
49345SOL     OW49867  10.438   7.739  14.259
49345SOL    HW149868  10.359   7.766  14.305
49345SOL    HW249869  10.485   7.820  14.241
49346SOL     OW49870  12.830  10.833   0.382
49346SOL    HW149871  12.773  10.800   0.312
49346SOL    HW249872  12.781  10.907   0.418
49347SOL     OW49873   3.119   5.655   9.834
49347SOL    HW149874   3.110   5.749   9.819
49347SOL    HW249875   3.212   5.641   9.848
49348SOL     OW49876   5.325   0.078   8.643
49348SOL    HW149877   5.400   0.033   8.604
49348SOL    HW249878   5.362   0.128   8.715
49349SOL     OW49879   4.527  11.723  13.185
49349SOL    HW149880   4.511  11.811  13.221
49349SOL    HW249881   4.482  11.723  13.101
49350SOL     OW49882   5.640  11.830   1.786
49350SOL    HW149883   5.681  11.800   1.867
49350SOL    HW249884   5.648  11.926   1.789
49351SOL     OW49885   6.403  10.365  11.567
49351SOL    HW149886   6.315  10.345  11.538
49351SOL    HW249887   6.455  10.289  11.541
49352SOL     OW49888  10.618  13.018   2.771
49352SOL    HW149889  10.545  13.001   2.830
49352SOL    HW249890  10.620  13.113   2.763
49353SOL     OW49891  14.212   7.891   8.056
49353SOL    HW149892  14.153   7.966   8.055
49353SOL    HW249893  14.265   7.903   8.135
49354SOL     OW49894   2.184  11.457  14.107
49354SOL    HW149895   2.153  11.378  14.151
49354SOL    HW249896   2.217  11.426  14.023
49355SOL     OW49897  14.446   8.155  12.321
49355SOL    HW149898  14.440   8.141  12.227
49355SOL    HW249899  14.519   8.215  12.333
49356SOL     OW49900   8.674  11.129   6.107
49356SOL    HW149901   8.733  11.054   6.111
49356SOL    HW249902   8.616  11.110   6.033
49357SOL     OW49903   1.318   9.800  11.782
49357SOL    HW149904   1.391   9.798  11.721
49357SOL    HW249905   1.343   9.865  11.847
49358SOL     OW49906   8.458  10.547   6.593
49358SOL    HW149907   8.364  10.530   6.597
49358SOL    HW249908   8.486  10.508   6.510
49359SOL     OW49909   1.975   8.635   3.668
49359SOL    HW149910   1.932   8.720   3.654
49359SOL    HW249911   2.028   8.648   3.747
49360SOL     OW49912  13.963   0.013   0.143
49360SOL    HW149913  14.009   0.095   0.125
49360SOL    HW249914  13.931   0.022   0.232
49361SOL     OW49915   7.763   9.376   3.284
49361SOL    HW149916   7.736   9.310   3.348
49361SOL    HW249917   7.810   9.327   3.217
49362SOL     OW49918   1.068   7.528  13.996
49362SOL    HW149919   1.087   7.589  13.924
49362SOL    HW249920   1.047   7.445  13.953
49363SOL     OW49921  10.110  13.504  14.379
49363SOL    HW149922  10.056  13.580  14.359
49363SOL    HW249923  10.172  13.535  14.446
49364SOL     OW49924   7.068   7.174   8.759
49364SOL    HW149925   6.973   7.161   8.762
49364SOL    HW249926   7.079   7.269   8.755
49365SOL     OW49927   5.659  12.751   3.136
49365SOL    HW149928   5.603  12.683   3.175
49365SOL    HW249929   5.598  12.808   3.089
49366SOL     OW49930   1.953   3.091  13.744
49366SOL    HW149931   2.021   3.034  13.710
49366SOL    HW249932   1.928   3.147  13.670
49367SOL     OW49933   3.287   3.336   3.658
49367SOL    HW149934   3.268   3.257   3.608
49367SOL    HW249935   3.343   3.388   3.601
49368SOL     OW49936   9.180  13.101   9.529
49368SOL    HW149937   9.111  13.035   9.538
49368SOL    HW249938   9.134  13.185   9.539
49369SOL     OW49939  11.900  11.386  13.412
49369SOL    HW149940  11.944  11.362  13.493
49369SOL    HW249941  11.809  11.403  13.437
49370SOL     OW49942  10.946   3.523   9.922
49370SOL    HW149943  10.960   3.604   9.972
49370SOL    HW249944  10.995   3.456   9.970
49371SOL     OW49945  12.112   6.459   2.530
49371SOL    HW149946  12.180   6.396   2.556
49371SOL    HW249947  12.120   6.465   2.435
49372SOL     OW49948   2.418   3.693   1.537
49372SOL    HW149949   2.418   3.690   1.633
49372SOL    HW249950   2.354   3.625   1.512
49373SOL     OW49951   7.930   8.849   7.925
49373SOL    HW149952   7.969   8.937   7.929
49373SOL    HW249953   7.872   8.852   7.849
49374SOL     OW49954   3.508  13.234  11.133
49374SOL    HW149955   3.469  13.317  11.105
49374SOL    HW249956   3.536  13.251  11.223
49375SOL     OW49957   5.256  11.235   4.240
49375SOL    HW149958   5.284  11.290   4.313
49375SOL    HW249959   5.290  11.148   4.262
49376SOL     OW49960   2.247  11.027  12.001
49376SOL    HW149961   2.311  10.956  12.006
49376SOL    HW249962   2.300  11.104  11.979
49377SOL     OW49963   3.343   3.878   1.964
49377SOL    HW149964   3.248   3.869   1.971
49377SOL    HW249965   3.358   3.972   1.963
49378SOL     OW49966   5.135  11.578   4.273
49378SOL    HW149967   5.088  11.495   4.266
49378SOL    HW249968   5.167  11.595   4.185
49379SOL     OW49969  11.240   6.481  14.255
49379SOL    HW149970  11.196   6.556  14.215
49379SOL    HW249971  11.250   6.418  14.184
49380SOL     OW49972   7.666   0.067  12.628
49380SOL    HW149973   7.755   0.042  12.602
49380SOL    HW249974   7.641   0.135  12.565
49381SOL     OW49975  14.333   4.160   6.836
49381SOL    HW149976  14.366   4.196   6.918
49381SOL    HW249977  14.385   4.202   6.768
49382SOL     OW49978   6.916   1.813   2.154
49382SOL    HW149979   6.826   1.802   2.185
49382SOL    HW249980   6.937   1.904   2.175
49383SOL     OW49981   2.979   2.201  12.040
49383SOL    HW149982   3.029   2.185  12.120
49383SOL    HW249983   2.893   2.162  12.058
49384SOL     OW49984   6.674   5.889   7.813
49384SOL    HW149985   6.678   5.974   7.770
49384SOL    HW249986   6.711   5.904   7.900
49385SOL     OW49987  10.861   8.261   8.530
49385SOL    HW149988  10.899   8.201   8.465
49385SOL    HW249989  10.821   8.330   8.477
49386SOL     OW49990   3.133  13.907  11.010
49386SOL    HW149991   3.111  14.001  11.008
49386SOL    HW249992   3.068  13.866  10.953
49387SOL     OW49993  11.307   4.029   0.159
49387SOL    HW149994  11.332   4.086   0.086
49387SOL    HW249995  11.356   3.948   0.143
49388SOL     OW49996   2.547   7.911   4.434
49388SOL    HW149997   2.631   7.912   4.388
49388SOL    HW249998   2.519   7.820   4.433
49389SOL     OW49999   6.330  13.023   5.941
49389SOL    HW150000   6.259  12.984   5.890
49389SOL    HW250001   6.356  12.954   6.002
49390SOL     OW50002   2.653   6.397   1.769
49390SOL    HW150003   2.734   6.422   1.723
49390SOL    HW250004   2.683   6.340   1.840
49391SOL     OW50005  10.916   1.476  11.552
49391SOL    HW150006  10.930   1.570  11.540
49391SOL    HW250007  10.922   1.439  11.464
49392SOL     OW50008   2.627   4.964   7.370
49392SOL    HW150009   2.594   4.898   7.431
49392SOL    HW250010   2.722   4.964   7.385
49393SOL     OW50011   3.702   5.598  12.795
49393SOL    HW150012   3.718   5.512  12.755
49393SOL    HW250013   3.758   5.658  12.745
49394SOL     OW50014   2.306   9.216  14.697
49394SOL    HW150015   2.319   9.307  14.721
49394SOL    HW250016   2.211   9.204  14.696
49395SOL     OW50017  10.965  11.281  13.751
49395SOL    HW150018  10.908  11.278  13.828
49395SOL    HW250019  10.910  11.247  13.680
49396SOL     OW50020   5.431  12.651   9.953
49396SOL    HW150021   5.335  12.658   9.951
49396SOL    HW250022   5.454  12.681  10.041
49397SOL     OW50023   3.522  12.630  10.027
49397SOL    HW150024   3.497  12.548  10.070
49397SOL    HW250025   3.585  12.670  10.087
49398SOL     OW50026  13.249   9.146  12.299
49398SOL    HW150027  13.165   9.101  12.289
49398SOL    HW250028  13.313   9.076  12.311
49399SOL     OW50029  11.766   1.543  10.374
49399SOL    HW150030  11.819   1.563  10.451
49399SOL    HW250031  11.679   1.524  10.409
49400SOL     OW50032   4.484  12.444   8.053
49400SOL    HW150033   4.520  12.362   8.019
49400SOL    HW250034   4.399  12.420   8.089
49401SOL     OW50035   8.408   8.779   4.352
49401SOL    HW150036   8.380   8.724   4.425
49401SOL    HW250037   8.345   8.760   4.282
49402SOL     OW50038   9.442  10.417   8.181
49402SOL    HW150039   9.513  10.382   8.235
49402SOL    HW250040   9.423  10.348   8.119
49403SOL     OW50041   2.925   2.196   5.840
49403SOL    HW150042   2.865   2.267   5.866
49403SOL    HW250043   2.871   2.136   5.789
49404SOL     OW50044   1.269   9.896  11.086
49404SOL    HW150045   1.341   9.959  11.092
49404SOL    HW250046   1.276   9.844  11.166
49405SOL     OW50047   9.861   8.493   8.091
49405SOL    HW150048   9.783   8.509   8.143
49405SOL    HW250049   9.918   8.441   8.148
49406SOL     OW50050   5.224   9.366   4.773
49406SOL    HW150051   5.250   9.288   4.724
49406SOL    HW250052   5.306   9.404   4.803
49407SOL     OW50053   8.217   6.486   2.992
49407SOL    HW150054   8.177   6.400   3.002
49407SOL    HW250055   8.161   6.532   2.930
49408SOL     OW50056   9.288   2.686   7.224
49408SOL    HW150057   9.240   2.610   7.256
49408SOL    HW250058   9.226   2.732   7.168
49409SOL     OW50059  12.750   3.513   1.131
49409SOL    HW150060  12.845   3.517   1.143
49409SOL    HW250061  12.716   3.493   1.218
49410SOL     OW50062  14.752  12.797   0.599
49410SOL    HW150063  14.684  12.861   0.577
49410SOL    HW250064  14.763  12.746   0.519
49411SOL     OW50065   5.434  11.899  12.240
49411SOL    HW150066   5.516  11.860  12.211
49411SOL    HW250067   5.440  11.898  12.336
49412SOL     OW50068  13.503  10.224   5.978
49412SOL    HW150069  13.479  10.264   6.062
49412SOL    HW250070  13.460  10.279   5.912
49413SOL     OW50071   1.924   8.689   4.996
49413SOL    HW150072   1.902   8.663   4.906
49413SOL    HW250073   1.846   8.735   5.027
49414SOL     OW50074  10.764   6.204   1.750
49414SOL    HW150075  10.733   6.294   1.738
49414SOL    HW250076  10.702   6.167   1.813
49415SOL     OW50077   0.870   3.018   0.366
49415SOL    HW150078   0.902   2.937   0.405
49415SOL    HW250079   0.816   2.989   0.292
49416SOL     OW50080   1.270   9.129  11.569
49416SOL    HW150081   1.357   9.107  11.603
49416SOL    HW250082   1.211   9.064  11.607
49417SOL     OW50083   5.066  11.001   3.271
49417SOL    HW150084   5.157  11.028   3.285
49417SOL    HW250085   5.029  10.994   3.359
49418SOL     OW50086  13.346   4.019  13.991
49418SOL    HW150087  13.311   4.096  13.947
49418SOL    HW250088  13.378   3.963  13.919
49419SOL     OW50089  10.166   9.654   3.580
49419SOL    HW150090  10.086   9.707   3.572
49419SOL    HW250091  10.237   9.716   3.563
49420SOL     OW50092  10.205   2.254  14.381
49420SOL    HW150093  10.283   2.209  14.349
49420SOL    HW250094  10.223   2.347  14.366
49421SOL     OW50095   0.670   9.146   3.387
49421SOL    HW150096   0.590   9.094   3.392
49421SOL    HW250097   0.730   9.094   3.334
49422SOL     OW50098   9.332  10.728  10.097
49422SOL    HW150099   9.262  10.689  10.044
49422SOL    HW250100   9.380  10.783  10.035
49423SOL     OW50101   6.175   6.260   3.500
49423SOL    HW150102   6.250   6.257   3.559
49423SOL    HW250103   6.143   6.350   3.506
49424SOL     OW50104  12.942   9.787   2.312
49424SOL    HW150105  13.018   9.730   2.299
49424SOL    HW250106  12.952   9.856   2.246
49425SOL     OW50107  10.324  10.815   9.459
49425SOL    HW150108  10.268  10.881   9.418
49425SOL    HW250109  10.339  10.848   9.547
49426SOL     OW50110  12.082   8.860   4.543
49426SOL    HW150111  12.162   8.909   4.526
49426SOL    HW250112  12.108   8.791   4.603
49427SOL     OW50113   9.903   0.700  12.817
49427SOL    HW150114   9.826   0.649  12.842
49427SOL    HW250115   9.939   0.654  12.742
49428SOL     OW50116   5.426   3.867   7.432
49428SOL    HW150117   5.425   3.946   7.486
49428SOL    HW250118   5.347   3.873   7.379
49429SOL     OW50119   5.705  10.794  11.628
49429SOL    HW150120   5.681  10.724  11.568
49429SOL    HW250121   5.684  10.875  11.581
49430SOL     OW50122   4.051   6.641   0.559
49430SOL    HW150123   4.011   6.694   0.490
49430SOL    HW250124   4.119   6.590   0.513
49431SOL     OW50125   5.472   1.247  10.392
49431SOL    HW150126   5.478   1.241  10.487
49431SOL    HW250127   5.488   1.158  10.361
49432SOL     OW50128   5.433   6.547   2.690
49432SOL    HW150129   5.368   6.547   2.620
49432SOL    HW250130   5.495   6.479   2.666
49433SOL     OW50131   4.392   5.213   0.778
49433SOL    HW150132   4.389   5.309   0.781
49433SOL    HW250133   4.398   5.187   0.870
49434SOL     OW50134   6.135  13.946   7.814
49434SOL    HW150135   6.220  13.905   7.800
49434SOL    HW250136   6.119  13.938   7.908
49435SOL     OW50137   1.733   1.388  13.276
49435SOL    HW150138   1.788   1.314  13.254
49435SOL    HW250139   1.749   1.404  13.369
49436SOL     OW50140   8.967   2.897   8.194
49436SOL    HW150141   9.030   2.872   8.127
49436SOL    HW250142   8.894   2.935   8.145
49437SOL     OW50143   6.701   6.909   1.150
49437SOL    HW150144   6.635   6.977   1.162
49437SOL    HW250145   6.765   6.948   1.091
49438SOL     OW50146   1.422   0.220   2.046
49438SOL    HW150147   1.461   0.134   2.029
49438SOL    HW250148   1.480   0.282   2.002
49439SOL     OW50149   5.595   1.802   3.904
49439SOL    HW150150   5.583   1.713   3.939
49439SOL    HW250151   5.603   1.789   3.809
49440SOL     OW50152  11.144   9.284   2.265
49440SOL    HW150153  11.237   9.309   2.259
49440SOL    HW250154  11.138   9.202   2.216
49441SOL     OW50155   7.267   0.004   7.427
49441SOL    HW150156   7.225   0.073   7.376
49441SOL    HW250157   7.265   0.036   7.517
49442SOL     OW50158   9.452   6.800   1.125
49442SOL    HW150159   9.520   6.793   1.058
49442SOL    HW250160   9.449   6.712   1.164
49443SOL     OW50161   0.437  14.813   8.370
49443SOL    HW150162   0.519  14.793   8.324
49443SOL    HW250163   0.371  14.763   8.322
49444SOL     OW50164   6.157  11.259  13.493
49444SOL    HW150165   6.132  11.166  13.490
49444SOL    HW250166   6.229  11.266  13.430
49445SOL     OW50167   2.215   2.030  11.311
49445SOL    HW150168   2.132   1.994  11.281
49445SOL    HW250169   2.209   2.027  11.406
49446SOL     OW50170  10.749  11.168  10.929
49446SOL    HW150171  10.821  11.230  10.943
49446SOL    HW250172  10.792  11.088  10.899
49447SOL     OW50173   5.288   5.928  13.680
49447SOL    HW150174   5.364   5.873  13.699
49447SOL    HW250175   5.267   5.969  13.764
49448SOL     OW50176   7.464   6.822   9.072
49448SOL    HW150177   7.513   6.765   9.131
49448SOL    HW250178   7.488   6.792   8.984
49449SOL     OW50179   8.921   0.680   8.926
49449SOL    HW150180   9.010   0.644   8.919
49449SOL    HW250181   8.864   0.604   8.925
49450SOL     OW50182   0.513   7.309   1.764
49450SOL    HW150183   0.449   7.380   1.755
49450SOL    HW250184   0.575   7.323   1.692
49451SOL     OW50185   9.076  12.924   3.585
49451SOL    HW150186   9.138  12.992   3.557
49451SOL    HW250187   9.044  12.886   3.503
49452SOL     OW50188  11.269   7.165  10.082
49452SOL    HW150189  11.330   7.237  10.073
49452SOL    HW250190  11.257   7.155  10.176
49453SOL     OW50191  12.620   2.312  12.117
49453SOL    HW150192  12.562   2.312  12.041
49453SOL    HW250193  12.705   2.340  12.083
49454SOL     OW50194  10.853   0.036   1.345
49454SOL    HW150195  10.938   0.040   1.302
49454SOL    HW250196  10.798  14.859   1.286
49455SOL     OW50197   2.887   5.736  10.447
49455SOL    HW150198   2.900   5.824  10.483
49455SOL    HW250199   2.825   5.748  10.375
49456SOL     OW50200   4.633  10.600   5.509
49456SOL    HW150201   4.550  10.568   5.473
49456SOL    HW250202   4.637  10.562   5.597
49457SOL     OW50203  12.739   3.656   5.133
49457SOL    HW150204  12.811   3.694   5.184
49457SOL    HW250205  12.664   3.659   5.192
49458SOL     OW50206   7.068   0.543   1.632
49458SOL    HW150207   7.140   0.600   1.659
49458SOL    HW250208   6.995   0.568   1.687
49459SOL     OW50209  11.666   5.894   9.310
49459SOL    HW150210  11.624   5.921   9.228
49459SOL    HW250211  11.633   5.955   9.375
49460SOL     OW50212   9.633   7.052  14.259
49460SOL    HW150213   9.724   7.025  14.251
49460SOL    HW250214   9.636   7.147  14.266
49461SOL     OW50215   7.111   0.432   6.667
49461SOL    HW150216   7.107   0.369   6.739
49461SOL    HW250217   7.040   0.494   6.684
49462SOL     OW50218   5.669   8.988   4.785
49462SOL    HW150219   5.600   8.938   4.742
49462SOL    HW250220   5.746   8.931   4.781
49463SOL     OW50221  10.443  10.945   9.933
49463SOL    HW150222  10.478  10.857   9.946
49463SOL    HW250223  10.352  10.939   9.964
49464SOL     OW50224   2.361   2.614   0.850
49464SOL    HW150225   2.452   2.640   0.840
49464SOL    HW250226   2.324   2.679   0.910
49465SOL     OW50227   3.358  13.939   3.515
49465SOL    HW150228   3.318  14.026   3.521
49465SOL    HW250229   3.422  13.948   3.443
49466SOL     OW50230   9.031   0.529   2.888
49466SOL    HW150231   8.978   0.502   2.813
49466SOL    HW250232   9.109   0.568   2.848
49467SOL     OW50233   2.089   7.744   5.236
49467SOL    HW150234   2.091   7.669   5.295
49467SOL    HW250235   2.131   7.713   5.156
49468SOL     OW50236   0.922   9.389   0.539
49468SOL    HW150237   0.979   9.465   0.550
49468SOL    HW250238   0.948   9.353   0.454
49469SOL     OW50239  14.630   9.141  13.415
49469SOL    HW150240  14.680   9.060  13.403
49469SOL    HW250241  14.547   9.113  13.453
49470SOL     OW50242   8.083  10.798   3.619
49470SOL    HW150243   8.149  10.864   3.596
49470SOL    HW250244   8.126  10.714   3.601
49471SOL     OW50245   5.911   8.387  14.450
49471SOL    HW150246   5.907   8.466  14.505
49471SOL    HW250247   5.856   8.409  14.375
49472SOL     OW50248   4.106  12.957  11.237
49472SOL    HW150249   4.088  13.036  11.289
49472SOL    HW250250   4.022  12.911  11.234
49473SOL     OW50251  11.766   3.139   4.801
49473SOL    HW150252  11.810   3.224   4.793
49473SOL    HW250253  11.836   3.075   4.791
49474SOL     OW50254   0.185  13.316   5.985
49474SOL    HW150255   0.194  13.248   5.918
49474SOL    HW250256   0.124  13.279   6.049
49475SOL     OW50257   3.455   4.524  13.627
49475SOL    HW150258   3.459   4.568  13.542
49475SOL    HW250259   3.373   4.553  13.665
49476SOL     OW50260   1.287   9.294   9.044
49476SOL    HW150261   1.193   9.303   9.027
49476SOL    HW250262   1.330   9.327   8.965
49477SOL     OW50263   2.325  12.522   0.208
49477SOL    HW150264   2.417  12.531   0.233
49477SOL    HW250265   2.319  12.436   0.168
49478SOL     OW50266   4.513   2.368  13.893
49478SOL    HW150267   4.579   2.429  13.927
49478SOL    HW250268   4.540   2.351  13.803
49479SOL     OW50269  13.130   3.921   0.745
49479SOL    HW150270  13.093   3.996   0.791
49479SOL    HW250271  13.098   3.845   0.794
49480SOL     OW50272   5.777   5.126   1.349
49480SOL    HW150273   5.777   5.199   1.287
49480SOL    HW250274   5.694   5.136   1.396
49481SOL     OW50275   5.927   8.297   3.419
49481SOL    HW150276   5.836   8.267   3.428
49481SOL    HW250277   5.922   8.374   3.363
49482SOL     OW50278   4.348  14.537   4.532
49482SOL    HW150279   4.378  14.497   4.614
49482SOL    HW250280   4.413  14.512   4.467
49483SOL     OW50281   4.454  10.827   0.309
49483SOL    HW150282   4.458  10.779   0.225
49483SOL    HW250283   4.364  10.859   0.313
49484SOL     OW50284  14.776  13.139   6.000
49484SOL    HW150285  14.728  13.059   5.979
49484SOL    HW250286  14.828  13.116   6.077
49485SOL     OW50287   7.384  12.184   2.295
49485SOL    HW150288   7.382  12.110   2.234
49485SOL    HW250289   7.304  12.174   2.346
49486SOL     OW50290   3.041  12.316   1.537
49486SOL    HW150291   2.946  12.322   1.534
49486SOL    HW250292   3.060  12.224   1.521
49487SOL     OW50293  14.598   2.269   3.555
49487SOL    HW150294  14.524   2.210   3.571
49487SOL    HW250295  14.654   2.221   3.494
49488SOL     OW50296   3.407   6.751  13.487
49488SOL    HW150297   3.433   6.771  13.397
49488SOL    HW250298   3.489   6.727  13.531
49489SOL     OW50299   0.662  14.766   8.220
49489SOL    HW150300   0.745  14.803   8.251
49489SOL    HW250301   0.675  14.753   8.126
49490SOL     OW50302   2.929   6.766   4.975
49490SOL    HW150303   2.925   6.750   5.069
49490SOL    HW250304   2.999   6.830   4.964
49491SOL     OW50305   2.655   0.777  12.143
49491SOL    HW150306   2.594   0.760  12.071
49491SOL    HW250307   2.660   0.695  12.191
49492SOL     OW50308  13.210   1.464  10.175
49492SOL    HW150309  13.289   1.411  10.185
49492SOL    HW250310  13.219   1.505  10.089
49493SOL     OW50311  12.793  10.928   3.136
49493SOL    HW150312  12.772  11.003   3.081
49493SOL    HW250313  12.791  10.962   3.226
49494SOL     OW50314   1.644  12.085  12.247
49494SOL    HW150315   1.594  12.006  12.268
49494SOL    HW250316   1.709  12.091  12.317
49495SOL     OW50317   3.128  13.804  10.126
49495SOL    HW150318   3.158  13.803  10.035
49495SOL    HW250319   3.200  13.763  10.175
49496SOL     OW50320   8.210   4.146   0.651
49496SOL    HW150321   8.232   4.239   0.645
49496SOL    HW250322   8.116   4.145   0.670
49497SOL     OW50323  14.153   0.030  10.116
49497SOL    HW150324  14.233   0.083  10.117
49497SOL    HW250325  14.096   0.072  10.180
49498SOL     OW50326  11.195  12.413   8.550
49498SOL    HW150327  11.165  12.500   8.576
49498SOL    HW250328  11.186  12.413   8.454
49499SOL     OW50329  10.293   0.934   9.528
49499SOL    HW150330  10.257   0.857   9.572
49499SOL    HW250331  10.247   0.937   9.444
49500SOL     OW50332   0.642  12.746   3.271
49500SOL    HW150333   0.641  12.824   3.216
49500SOL    HW250334   0.733  12.715   3.267
49501SOL     OW50335  10.107   4.429   6.440
49501SOL    HW150336  10.024   4.384   6.458
49501SOL    HW250337  10.104   4.507   6.497
49502SOL     OW50338   4.304   0.131   8.631
49502SOL    HW150339   4.374   0.123   8.696
49502SOL    HW250340   4.235   0.073   8.662
49503SOL     OW50341  13.723   8.786   2.237
49503SOL    HW150342  13.628   8.785   2.253
49503SOL    HW250343  13.734   8.733   2.158
49504SOL     OW50344  11.113   4.170   5.672
49504SOL    HW150345  11.033   4.220   5.659
49504SOL    HW250346  11.086   4.078   5.665
49505SOL     OW50347  12.859  11.544   7.663
49505SOL    HW150348  12.766  11.556   7.682
49505SOL    HW250349  12.892  11.492   7.736
49506SOL     OW50350  13.629   5.124   4.643
49506SOL    HW150351  13.594   5.076   4.568
49506SOL    HW250352  13.690   5.064   4.685
49507SOL     OW50353  10.086   4.760   5.259
49507SOL    HW150354  10.029   4.826   5.299
49507SOL    HW250355  10.172   4.778   5.296
49508SOL     OW50356   6.009   1.568   4.897
49508SOL    HW150357   6.023   1.649   4.849
49508SOL    HW250358   5.931   1.585   4.950
49509SOL     OW50359  12.966   1.114   8.409
49509SOL    HW150360  12.891   1.055   8.405
49509SOL    HW250361  13.006   1.107   8.322
49510SOL     OW50362   5.461  10.186   1.517
49510SOL    HW150363   5.368  10.174   1.533
49510SOL    HW250364   5.465  10.235   1.435
49511SOL     OW50365  12.392  13.804   8.886
49511SOL    HW150366  12.335  13.825   8.960
49511SOL    HW250367  12.416  13.890   8.850
49512SOL     OW50368   2.009   3.198   8.445
49512SOL    HW150369   1.986   3.115   8.402
49512SOL    HW250370   1.973   3.265   8.387
49513SOL     OW50371   4.897   8.943   0.040
49513SOL    HW150372   4.907   8.930  14.819
49513SOL    HW250373   4.987   8.940   0.074
49514SOL     OW50374   7.401   2.852   3.434
49514SOL    HW150375   7.411   2.796   3.511
49514SOL    HW250376   7.324   2.905   3.452
49515SOL     OW50377   5.954   5.036   3.061
49515SOL    HW150378   5.953   4.940   3.055
49515SOL    HW250379   5.917   5.055   3.147
49516SOL     OW50380  14.284   8.082  10.171
49516SOL    HW150381  14.356   8.140  10.146
49516SOL    HW250382  14.206   8.137  10.167
49517SOL     OW50383   1.104   1.174  12.113
49517SOL    HW150384   1.049   1.107  12.153
49517SOL    HW250385   1.058   1.256  12.131
49518SOL     OW50386   5.881   4.912   4.916
49518SOL    HW150387   5.911   5.003   4.905
49518SOL    HW250388   5.906   4.890   5.005
49519SOL     OW50389  12.194   6.411  10.503
49519SOL    HW150390  12.182   6.320  10.477
49519SOL    HW250391  12.251   6.448  10.435
49520SOL     OW50392   3.029   2.934   9.241
49520SOL    HW150393   2.943   2.955   9.203
49520SOL    HW250394   3.016   2.942   9.335
49521SOL     OW50395   8.504  11.016   0.464
49521SOL    HW150396   8.542  11.061   0.540
49521SOL    HW250397   8.431  11.072   0.437
49522SOL     OW50398   4.072   2.272  12.529
49522SOL    HW150399   4.165   2.285  12.510
49522SOL    HW250400   4.070   2.241  12.619
49523SOL     OW50401   4.529   9.182  11.079
49523SOL    HW150402   4.484   9.116  11.027
49523SOL    HW250403   4.622   9.162  11.068
49524SOL     OW50404   9.490  13.790   8.221
49524SOL    HW150405   9.428  13.767   8.290
49524SOL    HW250406   9.533  13.707   8.199
49525SOL     OW50407  11.107  11.659   4.073
49525SOL    HW150408  11.163  11.685   4.147
49525SOL    HW250409  11.110  11.563   4.073
49526SOL     OW50410   0.908   1.612   7.325
49526SOL    HW150411   0.955   1.661   7.392
49526SOL    HW250412   0.825   1.589   7.365
49527SOL     OW50413  12.928  12.573   8.634
49527SOL    HW150414  12.896  12.582   8.724
49527SOL    HW250415  12.858  12.610   8.580
49528SOL     OW50416   4.846  10.544   1.937
49528SOL    HW150417   4.761  10.508   1.915
49528SOL    HW250418   4.841  10.636   1.909
49529SOL     OW50419  11.326   7.487  12.315
49529SOL    HW150420  11.387   7.414  12.321
49529SOL    HW250421  11.299   7.503  12.405
49530SOL     OW50422   4.443   4.360  13.581
49530SOL    HW150423   4.502   4.405  13.521
49530SOL    HW250424   4.387   4.429  13.616
49531SOL     OW50425  12.477  12.960   7.259
49531SOL    HW150426  12.456  13.050   7.287
49531SOL    HW250427  12.409  12.906   7.301
49532SOL     OW50428   4.999   0.427  12.442
49532SOL    HW150429   4.972   0.469  12.524
49532SOL    HW250430   5.093   0.442  12.437
49533SOL     OW50431  11.103   7.320   9.418
49533SOL    HW150432  11.128   7.274   9.497
49533SOL    HW250433  11.175   7.382   9.402
49534SOL     OW50434   8.260  10.432   1.800
49534SOL    HW150435   8.215  10.408   1.881
49534SOL    HW250436   8.347  10.461   1.829
49535SOL     OW50437   4.140   1.609   9.787
49535SOL    HW150438   4.066   1.553   9.809
49535SOL    HW250439   4.204   1.550   9.747
49536SOL     OW50440   9.286   6.468   2.211
49536SOL    HW150441   9.257   6.461   2.301
49536SOL    HW250442   9.231   6.406   2.163
49537SOL     OW50443  11.797   4.172   7.143
49537SOL    HW150444  11.842   4.091   7.117
49537SOL    HW250445  11.827   4.238   7.080
49538SOL     OW50446  11.141   8.411   3.512
49538SOL    HW150447  11.143   8.370   3.599
49538SOL    HW250448  11.176   8.345   3.453
49539SOL     OW50449  11.709   7.772   7.349
49539SOL    HW150450  11.798   7.806   7.347
49539SOL    HW250451  11.654   7.850   7.355
49540SOL     OW50452   1.864   4.731   5.228
49540SOL    HW150453   1.827   4.731   5.140
49540SOL    HW250454   1.959   4.735   5.214
49541SOL     OW50455   8.884   9.302  10.838
49541SOL    HW150456   8.910   9.394  10.846
49541SOL    HW250457   8.832   9.299  10.758
49542SOL     OW50458  12.647   1.001   3.929
49542SOL    HW150459  12.684   1.085   3.901
49542SOL    HW250460  12.577   0.983   3.865
49543SOL     OW50461   7.017   8.260   4.263
49543SOL    HW150462   7.070   8.225   4.335
49543SOL    HW250463   7.054   8.221   4.184
49544SOL     OW50464   2.149  10.298  10.744
49544SOL    HW150465   2.072  10.274  10.691
49544SOL    HW250466   2.213  10.230  10.726
49545SOL     OW50467  12.690  12.872   6.396
49545SOL    HW150468  12.677  12.929   6.472
49545SOL    HW250469  12.674  12.928   6.321
49546SOL     OW50470   2.867  13.592   5.918
49546SOL    HW150471   2.818  13.652   5.974
49546SOL    HW250472   2.890  13.519   5.975
49547SOL     OW50473   0.605  14.062   3.697
49547SOL    HW150474   0.616  14.052   3.792
49547SOL    HW250475   0.583  14.154   3.685
49548SOL     OW50476   0.263   1.843   9.233
49548SOL    HW150477   0.305   1.795   9.305
49548SOL    HW250478   0.220   1.776   9.181
49549SOL     OW50479   7.379   2.154  10.181
49549SOL    HW150480   7.423   2.237  10.164
49549SOL    HW250481   7.289   2.178  10.205
49550SOL     OW50482  14.154   7.778   2.364
49550SOL    HW150483  14.139   7.842   2.295
49550SOL    HW250484  14.087   7.798   2.430
49551SOL     OW50485  14.096   9.418  13.929
49551SOL    HW150486  14.053   9.494  13.889
49551SOL    HW250487  14.056   9.411  14.016
49552SOL     OW50488   4.768  10.580   2.248
49552SOL    HW150489   4.749  10.603   2.157
49552SOL    HW250490   4.686  10.543   2.281
49553SOL     OW50491   7.530   3.213   8.642
49553SOL    HW150492   7.513   3.235   8.551
49553SOL    HW250493   7.448   3.175   8.673
49554SOL     OW50494   4.222  12.837   2.481
49554SOL    HW150495   4.178  12.784   2.414
49554SOL    HW250496   4.197  12.928   2.460
49555SOL     OW50497  10.063   3.681   1.704
49555SOL    HW150498  10.147   3.718   1.728
49555SOL    HW250499  10.067   3.673   1.608
49556SOL     OW50500   5.735   6.558  10.029
49556SOL    HW150501   5.679   6.605  10.089
49556SOL    HW250502   5.793   6.506  10.085
49557SOL     OW50503   1.289   8.681   9.634
49557SOL    HW150504   1.262   8.661   9.723
49557SOL    HW250505   1.366   8.625   9.619
49558SOL     OW50506  13.128  13.774   7.328
49558SOL    HW150507  13.137  13.693   7.378
49558SOL    HW250508  13.085  13.748   7.247
49559SOL     OW50509  10.839  10.969   7.746
49559SOL    HW150510  10.748  10.999   7.743
49559SOL    HW250511  10.833  10.874   7.757
49560SOL     OW50512   8.962   5.018   3.627
49560SOL    HW150513   8.975   4.928   3.596
49560SOL    HW250514   9.028   5.028   3.696
49561SOL     OW50515   7.306   4.342  11.508
49561SOL    HW150516   7.326   4.432  11.483
49561SOL    HW250517   7.384   4.312  11.555
49562SOL     OW50518   3.965  14.164   0.831
49562SOL    HW150519   3.926  14.246   0.800
49562SOL    HW250520   3.902  14.131   0.895
49563SOL     OW50521   3.119   2.475   2.327
49563SOL    HW150522   3.178   2.512   2.262
49563SOL    HW250523   3.176   2.440   2.395
49564SOL     OW50524   5.662  14.296   7.102
49564SOL    HW150525   5.713  14.278   7.023
49564SOL    HW250526   5.666  14.214   7.152
49565SOL     OW50527   1.857   9.541   3.377
49565SOL    HW150528   1.766   9.515   3.389
49565SOL    HW250529   1.853   9.621   3.324
49566SOL     OW50530   9.860  14.065   1.205
49566SOL    HW150531   9.785  14.074   1.263
49566SOL    HW250532   9.828  14.095   1.120
49567SOL     OW50533  13.706   9.314   2.089
49567SOL    HW150534  13.737   9.402   2.112
49567SOL    HW250535  13.762   9.287   2.017
49568SOL     OW50536  12.510   8.631   1.064
49568SOL    HW150537  12.508   8.541   1.033
49568SOL    HW250538  12.603   8.652   1.072
49569SOL     OW50539  12.546   0.020   9.907
49569SOL    HW150540  12.551  14.872  10.001
49569SOL    HW250541  12.620  14.844   9.869
49570SOL     OW50542   2.002   9.314  13.120
49570SOL    HW150543   2.010   9.315  13.025
49570SOL    HW250544   2.022   9.224  13.145
49571SOL     OW50545  12.950   7.868   4.794
49571SOL    HW150546  12.893   7.849   4.720
49571SOL    HW250547  13.039   7.858   4.759
49572SOL     OW50548   6.660   7.769  10.797
49572SOL    HW150549   6.642   7.779  10.704
49572SOL    HW250550   6.750   7.800  10.808
49573SOL     OW50551  12.247  14.417  10.957
49573SOL    HW150552  12.251  14.435  11.051
49573SOL    HW250553  12.184  14.480  10.923
49574SOL     OW50554  11.571  12.282  11.181
49574SOL    HW150555  11.537  12.224  11.112
49574SOL    HW250556  11.638  12.230  11.225
49575SOL     OW50557   4.238   5.055   3.734
49575SOL    HW150558   4.239   5.016   3.647
49575SOL    HW250559   4.187   5.135   3.725
49576SOL     OW50560  12.426   0.328  10.898
49576SOL    HW150561  12.396   0.395  10.836
49576SOL    HW250562  12.346   0.296  10.940
49577SOL     OW50563   6.194   4.301  11.609
49577SOL    HW150564   6.145   4.360  11.552
49577SOL    HW250565   6.200   4.220  11.559
49578SOL     OW50566   3.508  11.888  12.884
49578SOL    HW150567   3.542  11.804  12.915
49578SOL    HW250568   3.550  11.953  12.940
49579SOL     OW50569   8.222   8.332  13.480
49579SOL    HW150570   8.273   8.259  13.445
49579SOL    HW250571   8.144   8.291  13.518
49580SOL     OW50572  14.722  14.554   8.094
49580SOL    HW150573  14.794  14.617   8.084
49580SOL    HW250574  14.738  14.490   8.024
49581SOL     OW50575  10.611  13.057   0.986
49581SOL    HW150576  10.631  13.147   0.961
49581SOL    HW250577  10.519  13.059   1.013
49582SOL     OW50578   5.819   7.392  14.444
49582SOL    HW150579   5.793   7.465  14.499
49582SOL    HW250580   5.778   7.409  14.360
49583SOL     OW50581  12.723  13.577   3.012
49583SOL    HW150582  12.788  13.570   3.082
49583SOL    HW250583  12.705  13.486   2.987
49584SOL     OW50584   9.011   6.308  13.370
49584SOL    HW150585   9.030   6.393  13.329
49584SOL    HW250586   8.948   6.328  13.439
49585SOL     OW50587   3.179   9.329  14.503
49585SOL    HW150588   3.274   9.337  14.510
49585SOL    HW250589   3.163   9.236  14.487
49586SOL     OW50590   3.776   9.854   7.275
49586SOL    HW150591   3.792   9.945   7.251
49586SOL    HW250592   3.708   9.825   7.214
49587SOL     OW50593  10.509  10.656   3.978
49587SOL    HW150594  10.459  10.641   4.058
49587SOL    HW250595  10.585  10.707   4.007
49588SOL     OW50596   4.731  11.465  11.443
49588SOL    HW150597   4.637  11.457  11.428
49588SOL    HW250598   4.741  11.541  11.500
49589SOL     OW50599   5.519   5.749   4.231
49589SOL    HW150600   5.596   5.781   4.183
49589SOL    HW250601   5.461   5.716   4.162
49590SOL     OW50602   2.004   3.525   9.170
49590SOL    HW150603   1.911   3.504   9.156
49590SOL    HW250604   2.034   3.460   9.233
49591SOL     OW50605   8.709   7.844   0.046
49591SOL    HW150606   8.623   7.846   0.088
49591SOL    HW250607   8.735   7.936   0.040
49592SOL     OW50608   8.204   8.666   6.317
49592SOL    HW150609   8.209   8.571   6.329
49592SOL    HW250610   8.122   8.680   6.271
49593SOL     OW50611   6.714  14.753   3.059
49593SOL    HW150612   6.750  14.837   3.029
49593SOL    HW250613   6.619  14.766   3.057
49594SOL     OW50614   7.960   6.388   6.202
49594SOL    HW150615   7.929   6.474   6.229
49594SOL    HW250616   8.055   6.394   6.204
49595SOL     OW50617   4.076   0.262  12.055
49595SOL    HW150618   4.028   0.186  12.086
49595SOL    HW250619   4.168   0.240  12.071
49596SOL     OW50620  10.950   9.220   8.773
49596SOL    HW150621  10.865   9.176   8.764
49596SOL    HW250622  10.976   9.242   8.684
49597SOL     OW50623   3.971  10.448   8.905
49597SOL    HW150624   4.066  10.454   8.904
49597SOL    HW250625   3.952  10.383   8.973
49598SOL     OW50626   6.337   2.503   3.685
49598SOL    HW150627   6.428   2.478   3.701
49598SOL    HW250628   6.326   2.586   3.732
49599SOL     OW50629  10.002   1.580   9.816
49599SOL    HW150630  10.072   1.639   9.790
49599SOL    HW250631  10.044   1.495   9.827
49600SOL     OW50632   8.431   7.900  13.494
49600SOL    HW150633   8.454   7.807  13.501
49600SOL    HW250634   8.458   7.939  13.576
49601SOL     OW50635   0.058   3.018   3.293
49601SOL    HW150636   0.106   3.015   3.210
49601SOL    HW250637   0.091   2.943   3.342
49602SOL     OW50638   5.524  13.328   3.442
49602SOL    HW150639   5.492  13.291   3.360
49602SOL    HW250640   5.590  13.391   3.415
49603SOL     OW50641   1.447  11.621   5.733
49603SOL    HW150642   1.368  11.674   5.740
49603SOL    HW250643   1.493  11.657   5.657
49604SOL     OW50644  12.835  14.641  13.024
49604SOL    HW150645  12.817  14.707  12.956
49604SOL    HW250646  12.855  14.561  12.976
49605SOL     OW50647   6.633   1.287   2.363
49605SOL    HW150648   6.602   1.341   2.436
49605SOL    HW250649   6.710   1.333   2.331
49606SOL     OW50650  10.627   4.210  14.328
49606SOL    HW150651  10.686   4.136  14.341
49606SOL    HW250652  10.670   4.284  14.371
49607SOL     OW50653   3.134  10.807   9.862
49607SOL    HW150654   3.164  10.866   9.932
49607SOL    HW250655   3.095  10.733   9.908
49608SOL     OW50656  12.781   9.191   9.013
49608SOL    HW150657  12.811   9.246   8.941
49608SOL    HW250658  12.770   9.251   9.087
49609SOL     OW50659  11.472  14.275  12.546
49609SOL    HW150660  11.551  14.237  12.584
49609SOL    HW250661  11.457  14.355  12.596
49610SOL     OW50662   3.691   7.864   4.173
49610SOL    HW150663   3.659   7.841   4.260
49610SOL    HW250664   3.614   7.859   4.117
49611SOL     OW50665  12.647  12.499   3.308
49611SOL    HW150666  12.647  12.535   3.220
49611SOL    HW250667  12.573  12.541   3.351
49612SOL     OW50668   0.310   0.897   8.250
49612SOL    HW150669   0.311   0.815   8.300
49612SOL    HW250670   0.398   0.934   8.263
49613SOL     OW50671   3.668   8.173   6.811
49613SOL    HW150672   3.671   8.155   6.905
49613SOL    HW250673   3.618   8.254   6.804
49614SOL     OW50674  11.581   6.570   3.007
49614SOL    HW150675  11.633   6.567   3.087
49614SOL    HW250676  11.512   6.635   3.026
49615SOL     OW50677   5.242   3.906   8.985
49615SOL    HW150678   5.155   3.942   8.997
49615SOL    HW250679   5.227   3.816   8.956
49616SOL     OW50680  12.410   4.461  11.156
49616SOL    HW150681  12.327   4.449  11.202
49616SOL    HW250682  12.467   4.504  11.220
49617SOL     OW50683   7.505   9.908  10.129
49617SOL    HW150684   7.412   9.905  10.109
49617SOL    HW250685   7.525   9.822  10.165
49618SOL     OW50686  10.171   8.520   7.497
49618SOL    HW150687  10.114   8.483   7.429
49618SOL    HW250688  10.174   8.453   7.565
49619SOL     OW50689   5.652   1.180   9.103
49619SOL    HW150690   5.594   1.173   9.179
49619SOL    HW250691   5.620   1.258   9.056
49620SOL     OW50692  12.995  11.205   6.305
49620SOL    HW150693  12.956  11.283   6.266
49620SOL    HW250694  12.955  11.132   6.258
49621SOL     OW50695  14.165  12.090   3.892
49621SOL    HW150696  14.243  12.074   3.839
49621SOL    HW250697  14.169  12.184   3.913
49622SOL     OW50698   2.883   2.751  14.239
49622SOL    HW150699   2.826   2.817  14.278
49622SOL    HW250700   2.896   2.780  14.148
49623SOL     OW50701   8.188   5.901   6.359
49623SOL    HW150702   8.253   5.967   6.379
49623SOL    HW250703   8.184   5.846   6.438
49624SOL     OW50704   6.876  11.510   5.977
49624SOL    HW150705   6.884  11.471   6.064
49624SOL    HW250706   6.958  11.486   5.933
49625SOL     OW50707   4.077  10.682  13.152
49625SOL    HW150708   3.992  10.689  13.108
49625SOL    HW250709   4.129  10.625  13.096
49626SOL     OW50710   4.106  14.587   4.658
49626SOL    HW150711   4.081  14.499   4.685
49626SOL    HW250712   4.189  14.576   4.611
49627SOL     OW50713   2.110  14.226   3.022
49627SOL    HW150714   2.148  14.209   2.936
49627SOL    HW250715   2.016  14.209   3.010
49628SOL     OW50716  10.595  12.130  11.521
49628SOL    HW150717  10.620  12.208  11.570
49628SOL    HW250718  10.646  12.059  11.560
49629SOL     OW50719  10.582  12.185   5.379
49629SOL    HW150720  10.667  12.209   5.341
49629SOL    HW250721  10.521  12.189   5.305
49630SOL     OW50722   5.477   0.010  11.146
49630SOL    HW150723   5.555  14.836  11.117
49630SOL    HW250724   5.511   0.091  11.186
49631SOL     OW50725   4.034  14.352   1.176
49631SOL    HW150726   3.982  14.394   1.108
49631SOL    HW250727   4.106  14.310   1.128
49632SOL     OW50728   3.176   6.947  13.444
49632SOL    HW150729   3.202   7.019  13.386
49632SOL    HW250730   3.248   6.884  13.438
49633SOL     OW50731   6.530  13.338  14.668
49633SOL    HW150732   6.520  13.285  14.747
49633SOL    HW250733   6.442  13.367  14.647
49634SOL     OW50734  12.486   8.876   7.426
49634SOL    HW150735  12.405   8.834   7.456
49634SOL    HW250736  12.551   8.806   7.429
49635SOL     OW50737   1.450   2.898  14.073
49635SOL    HW150738   1.467   2.852  14.156
49635SOL    HW250739   1.408   2.980  14.099
49636SOL     OW50740   3.538   0.687  13.453
49636SOL    HW150741   3.464   0.633  13.424
49636SOL    HW250742   3.521   0.773  13.415
49637SOL     OW50743  13.259   4.988   1.210
49637SOL    HW150744  13.220   5.049   1.272
49637SOL    HW250745  13.237   4.901   1.244
49638SOL     OW50746   6.003   2.817   4.397
49638SOL    HW150747   5.964   2.884   4.341
49638SOL    HW250748   6.096   2.840   4.400
49639SOL     OW50749  12.405  13.896   5.196
49639SOL    HW150750  12.365  13.853   5.272
49639SOL    HW250751  12.487  13.932   5.230
49640SOL     OW50752  13.060   2.869   8.259
49640SOL    HW150753  13.102   2.786   8.235
49640SOL    HW250754  13.122   2.936   8.231
49641SOL     OW50755   8.741  11.039   0.014
49641SOL    HW150756   8.694  10.960   0.041
49641SOL    HW250757   8.706  11.108   0.071
49642SOL     OW50758  13.081   1.431  10.787
49642SOL    HW150759  13.004   1.446  10.842
49642SOL    HW250760  13.047   1.436  10.698
49643SOL     OW50761   0.817   0.834   5.361
49643SOL    HW150762   0.742   0.832   5.421
49643SOL    HW250763   0.892   0.854   5.418
49644SOL     OW50764  13.273   5.922  12.694
49644SOL    HW150765  13.194   5.888  12.737
49644SOL    HW250766  13.327   5.956  12.765
49645SOL     OW50767   1.526  13.690  11.570
49645SOL    HW150768   1.477  13.772  11.576
49645SOL    HW250769   1.615  13.713  11.596
49646SOL     OW50770   5.008   7.809   5.387
49646SOL    HW150771   4.919   7.815   5.351
49646SOL    HW250772   5.023   7.715   5.397
49647SOL     OW50773  11.617  14.387  10.972
49647SOL    HW150774  11.532  14.370  10.930
49647SOL    HW250775  11.628  14.315  11.033
49648SOL     OW50776   5.834   1.236   5.637
49648SOL    HW150777   5.884   1.164   5.598
49648SOL    HW250778   5.900   1.293   5.676
49649SOL     OW50779   4.466   5.792  13.754
49649SOL    HW150780   4.377   5.779  13.722
49649SOL    HW250781   4.514   5.715  13.724
49650SOL     OW50782   6.468   4.416   2.077
49650SOL    HW150783   6.424   4.451   2.153
49650SOL    HW250784   6.561   4.421   2.098
49651SOL     OW50785   2.542   3.294   9.363
49651SOL    HW150786   2.507   3.332   9.443
49651SOL    HW250787   2.636   3.289   9.378
49652SOL     OW50788   4.243  14.687   5.640
49652SOL    HW150789   4.195  14.693   5.557
49652SOL    HW250790   4.178  14.709   5.707
49653SOL     OW50791   9.395   2.480   6.345
49653SOL    HW150792   9.364   2.541   6.412
49653SOL    HW250793   9.410   2.534   6.268
49654SOL     OW50794   3.684   2.096  10.399
49654SOL    HW150795   3.700   2.022  10.457
49654SOL    HW250796   3.748   2.086  10.328
49655SOL     OW50797   1.293  10.318  10.665
49655SOL    HW150798   1.379  10.362  10.657
49655SOL    HW250799   1.306  10.254  10.735
49656SOL     OW50800   7.045   7.896   6.102
49656SOL    HW150801   7.088   7.940   6.029
49656SOL    HW250802   7.063   7.952   6.178
49657SOL     OW50803  12.364   1.214   3.266
49657SOL    HW150804  12.286   1.161   3.249
49657SOL    HW250805  12.411   1.166   3.334
49658SOL     OW50806   7.766   8.740  13.100
49658SOL    HW150807   7.845   8.719  13.050
49658SOL    HW250808   7.724   8.655  13.115
49659SOL     OW50809   6.935  12.249  13.973
49659SOL    HW150810   6.898  12.300  14.045
49659SOL    HW250811   6.863  12.236  13.912
49660SOL     OW50812   6.626  12.924   9.331
49660SOL    HW150813   6.592  12.958   9.414
49660SOL    HW250814   6.706  12.876   9.355
49661SOL     OW50815   4.696   5.788  10.937
49661SOL    HW150816   4.661   5.808  10.851
49661SOL    HW250817   4.790   5.799  10.928
49662SOL     OW50818  11.772   3.235   4.473
49662SOL    HW150819  11.832   3.161   4.473
49662SOL    HW250820  11.829   3.312   4.482
49663SOL     OW50821   0.671   4.885  10.391
49663SOL    HW150822   0.752   4.918  10.350
49663SOL    HW250823   0.602   4.937  10.352
49664SOL     OW50824   7.187   2.661  12.337
49664SOL    HW150825   7.271   2.659  12.383
49664SOL    HW250826   7.124   2.686  12.404
49665SOL     OW50827  13.826   5.991   8.958
49665SOL    HW150828  13.905   5.969   8.908
49665SOL    HW250829  13.838   5.946   9.042
49666SOL     OW50830   3.133   8.926  11.842
49666SOL    HW150831   3.152   8.833  11.827
49666SOL    HW250832   3.042   8.927  11.873
49667SOL     OW50833   1.257   3.915  11.977
49667SOL    HW150834   1.182   3.959  11.937
49667SOL    HW250835   1.289   3.978  12.042
49668SOL     OW50836  12.087  14.864  11.800
49668SOL    HW150837  12.053  14.819  11.877
49668SOL    HW250838  12.056  14.812  11.726
49669SOL     OW50839   3.566   6.541   4.095
49669SOL    HW150840   3.618   6.537   4.015
49669SOL    HW250841   3.497   6.605   4.075
49670SOL     OW50842  12.806  12.164   2.248
49670SOL    HW150843  12.838  12.091   2.300
49670SOL    HW250844  12.713  12.170   2.270
49671SOL     OW50845   5.771   9.979   0.418
49671SOL    HW150846   5.846  10.006   0.470
49671SOL    HW250847   5.743   9.896   0.456
49672SOL     OW50848  14.816   1.949   8.540
49672SOL    HW150849  14.775   1.881   8.486
49672SOL    HW250850  14.830   2.022   8.479
49673SOL     OW50851   3.597   5.944  13.393
49673SOL    HW150852   3.581   5.999  13.317
49673SOL    HW250853   3.692   5.932  13.395
49674SOL     OW50854   8.555   5.777   4.055
49674SOL    HW150855   8.611   5.731   3.992
49674SOL    HW250856   8.520   5.708   4.111
49675SOL     OW50857  12.297   9.235  11.564
49675SOL    HW150858  12.353   9.175  11.613
49675SOL    HW250859  12.323   9.322  11.593
49676SOL     OW50860   4.498   3.588   6.606
49676SOL    HW150861   4.473   3.511   6.554
49676SOL    HW250862   4.463   3.662   6.557
49677SOL     OW50863  12.501   9.635   9.731
49677SOL    HW150864  12.426   9.608   9.679
49677SOL    HW250865  12.484   9.600   9.818
49678SOL     OW50866   5.154   6.877  12.388
49678SOL    HW150867   5.166   6.926  12.470
49678SOL    HW250868   5.241   6.872  12.350
49679SOL     OW50869  13.492  13.184   0.513
49679SOL    HW150870  13.547  13.161   0.587
49679SOL    HW250871  13.494  13.280   0.511
49680SOL     OW50872   8.716   8.243   5.527
49680SOL    HW150873   8.757   8.309   5.583
49680SOL    HW250874   8.645   8.207   5.581
49681SOL     OW50875   7.209  11.614   7.236
49681SOL    HW150876   7.303  11.609   7.218
49681SOL    HW250877   7.202  11.659   7.320
49682SOL     OW50878   8.997  14.749   0.445
49682SOL    HW150879   8.914  14.707   0.466
49682SOL    HW250880   9.062  14.679   0.451
49683SOL     OW50881   1.148  10.961  13.997
49683SOL    HW150882   1.147  11.029  13.930
49683SOL    HW250883   1.139  11.007  14.080
49684SOL     OW50884  13.409  14.592   2.709
49684SOL    HW150885  13.450  14.610   2.794
49684SOL    HW250886  13.427  14.500   2.693
49685SOL     OW50887  11.906   0.549   4.167
49685SOL    HW150888  11.904   0.633   4.213
49685SOL    HW250889  11.829   0.551   4.110
49686SOL     OW50890  14.107   0.317   8.561
49686SOL    HW150891  14.101   0.323   8.466
49686SOL    HW250892  14.198   0.289   8.577
49687SOL     OW50893   2.357   2.410   0.329
49687SOL    HW150894   2.293   2.453   0.385
49687SOL    HW250895   2.325   2.320   0.320
49688SOL     OW50896   8.375   6.957   2.315
49688SOL    HW150897   8.392   6.885   2.255
49688SOL    HW250898   8.370   6.916   2.402
49689SOL     OW50899  12.758  10.208  11.746
49689SOL    HW150900  12.820  10.148  11.787
49689SOL    HW250901  12.677  10.157  11.739
49690SOL     OW50902  14.002  13.274   5.000
49690SOL    HW150903  14.028  13.322   4.921
49690SOL    HW250904  13.911  13.301   5.016
49691SOL     OW50905  12.416   2.637   8.774
49691SOL    HW150906  12.505   2.607   8.788
49691SOL    HW250907  12.371   2.563   8.733
49692SOL     OW50908   4.540   5.765   0.758
49692SOL    HW150909   4.605   5.831   0.736
49692SOL    HW250910   4.469   5.813   0.800
49693SOL     OW50911  11.499  13.192   8.920
49693SOL    HW150912  11.565  13.195   8.990
49693SOL    HW250913  11.544  13.151   8.846
49694SOL     OW50914   0.077  14.133  14.622
49694SOL    HW150915   0.129  14.204  14.584
49694SOL    HW250916   0.008  14.177  14.670
49695SOL     OW50917   6.778   0.854  13.805
49695SOL    HW150918   6.748   0.805  13.729
49695SOL    HW250919   6.784   0.788  13.875
49696SOL     OW50920  14.065   0.403   9.298
49696SOL    HW150921  14.074   0.460   9.221
49696SOL    HW250922  14.026   0.323   9.263
49697SOL     OW50923   1.336  13.293   9.987
49697SOL    HW150924   1.378  13.262   9.907
49697SOL    HW250925   1.276  13.362   9.958
49698SOL     OW50926  10.339   5.367   3.595
49698SOL    HW150927  10.297   5.412   3.521
49698SOL    HW250928  10.306   5.277   3.590
49699SOL     OW50929   8.520   2.928   4.112
49699SOL    HW150930   8.482   2.877   4.040
49699SOL    HW250931   8.468   2.904   4.188
49700SOL     OW50932  11.673   5.243  11.395
49700SOL    HW150933  11.757   5.262  11.353
49700SOL    HW250934  11.628   5.185  11.333
49701SOL     OW50935  12.936   9.985   2.847
49701SOL    HW150936  12.899   9.933   2.918
49701SOL    HW250937  12.941   9.925   2.773
49702SOL     OW50938  13.563  12.004   1.739
49702SOL    HW150939  13.608  12.089   1.749
49702SOL    HW250940  13.605  11.947   1.803
49703SOL     OW50941   0.754   2.855  13.931
49703SOL    HW150942   0.681   2.797  13.954
49703SOL    HW250943   0.788   2.817  13.850
49704SOL     OW50944   5.908   2.241  12.114
49704SOL    HW150945   5.903   2.304  12.042
49704SOL    HW250946   5.986   2.189  12.095
49705SOL     OW50947   1.978   9.532   2.191
49705SOL    HW150948   1.931   9.615   2.183
49705SOL    HW250949   1.910   9.465   2.190
49706SOL     OW50950   5.452  12.326   7.613
49706SOL    HW150951   5.497  12.341   7.530
49706SOL    HW250952   5.522  12.319   7.678
49707SOL     OW50953   5.893  13.058   0.707
49707SOL    HW150954   5.930  12.973   0.731
49707SOL    HW250955   5.934  13.119   0.768
49708SOL     OW50956   7.722  14.464  12.238
49708SOL    HW150957   7.647  14.509  12.199
49708SOL    HW250958   7.690  14.429  12.321
49709SOL     OW50959  14.183  11.107   8.746
49709SOL    HW150960  14.254  11.047   8.769
49709SOL    HW250961  14.103  11.059   8.766
49710SOL     OW50962   7.489  12.054  10.592
49710SOL    HW150963   7.487  11.959  10.592
49710SOL    HW250964   7.578  12.077  10.619
49711SOL     OW50965   7.710  13.173   5.212
49711SOL    HW150966   7.780  13.120   5.174
49711SOL    HW250967   7.655  13.197   5.137
49712SOL     OW50968   7.417   4.435  14.153
49712SOL    HW150969   7.367   4.372  14.100
49712SOL    HW250970   7.369   4.517  14.143
49713SOL     OW50971  12.386   1.477  13.725
49713SOL    HW150972  12.435   1.431  13.793
49713SOL    HW250973  12.379   1.414  13.654
49714SOL     OW50974   9.683  14.010   5.154
49714SOL    HW150975   9.763  14.012   5.101
49714SOL    HW250976   9.612  14.021   5.090
49715SOL     OW50977   9.363  12.014   0.050
49715SOL    HW150978   9.309  11.970   0.116
49715SOL    HW250979   9.304  12.030  14.849
49716SOL     OW50980   1.660   6.464  12.506
49716SOL    HW150981   1.736   6.477  12.562
49716SOL    HW250982   1.679   6.385  12.456
49717SOL     OW50983  14.281   0.372   8.083
49717SOL    HW150984  14.318   0.392   7.997
49717SOL    HW250985  14.325   0.291   8.110
49718SOL     OW50986   4.983  14.348   4.087
49718SOL    HW150987   4.930  14.426   4.070
49718SOL    HW250988   4.945  14.280   4.030
49719SOL     OW50989  13.379  12.202   9.190
49719SOL    HW150990  13.338  12.265   9.248
49719SOL    HW250991  13.456  12.172   9.238
49720SOL     OW50992   3.966   7.497   0.886
49720SOL    HW150993   3.975   7.568   0.949
49720SOL    HW250994   3.946   7.420   0.940
49721SOL     OW50995  14.137   3.161   5.786
49721SOL    HW150996  14.164   3.214   5.861
49721SOL    HW250997  14.204   3.093   5.779
49722SOL     OW50998   8.559  13.909   1.128
49722SOL    HW150999   8.541  13.917   1.035
49722SOL    HW251000   8.623  13.839   1.135
49723SOL     OW51001   3.864   2.647   7.196
49723SOL    HW151002   3.855   2.553   7.212
49723SOL    HW251003   3.952   2.656   7.158
49724SOL     OW51004   8.542  11.224   5.411
49724SOL    HW151005   8.553  11.283   5.485
49724SOL    HW251006   8.470  11.261   5.361
49725SOL     OW51007   3.967  14.047   5.997
49725SOL    HW151008   3.902  14.107   6.033
49725SOL    HW251009   4.034  14.040   6.065
49726SOL     OW51010   4.065   9.601  10.686
49726SOL    HW151011   4.037   9.517  10.649
49726SOL    HW251012   4.160   9.593  10.696
49727SOL     OW51013  10.384  12.769  10.153
49727SOL    HW151014  10.418  12.695  10.102
49727SOL    HW251015  10.290  12.751  10.161
49728SOL     OW51016  12.399  11.067   1.639
49728SOL    HW151017  12.428  10.977   1.647
49728SOL    HW251018  12.456  11.117   1.698
49729SOL     OW51019   0.544   5.157   0.414
49729SOL    HW151020   0.553   5.119   0.501
49729SOL    HW251021   0.559   5.085   0.354
49730SOL     OW51022   7.151  13.280   7.350
49730SOL    HW151023   7.178  13.233   7.270
49730SOL    HW251024   7.143  13.212   7.416
49731SOL     OW51025   7.243   2.892   9.249
49731SOL    HW151026   7.265   2.800   9.235
49731SOL    HW251027   7.189   2.891   9.329
49732SOL     OW51028   6.970   4.621   3.925
49732SOL    HW151029   6.980   4.559   3.853
49732SOL    HW251030   6.938   4.568   3.998
49733SOL     OW51031  13.280   0.849   0.415
49733SOL    HW151032  13.330   0.864   0.335
49733SOL    HW251033  13.195   0.890   0.399
49734SOL     OW51034   5.001   8.360   4.456
49734SOL    HW151035   4.921   8.314   4.431
49734SOL    HW251036   5.005   8.435   4.397
49735SOL     OW51037   8.256  10.746   5.029
49735SOL    HW151038   8.323  10.701   4.978
49735SOL    HW251039   8.236  10.825   4.978
49736SOL     OW51040  14.472   6.727   2.444
49736SOL    HW151041  14.435   6.798   2.391
49736SOL    HW251042  14.402   6.706   2.507
49737SOL     OW51043   8.430   6.680   2.169
49737SOL    HW151044   8.425   6.613   2.100
49737SOL    HW251045   8.521   6.707   2.169
49738SOL     OW51046   5.022   8.367   5.169
49738SOL    HW151047   5.043   8.365   5.076
49738SOL    HW251048   4.930   8.341   5.174
49739SOL     OW51049   9.552   7.682  14.345
49739SOL    HW151050   9.626   7.654  14.292
49739SOL    HW251051   9.572   7.772  14.369
49740SOL     OW51052   9.383   1.627  13.014
49740SOL    HW151053   9.423   1.653  13.097
49740SOL    HW251054   9.290   1.618  13.034
49741SOL     OW51055   8.971  10.623  11.482
49741SOL    HW151056   9.023  10.673  11.418
49741SOL    HW251057   8.903  10.581  11.429
49742SOL     OW51058   3.284   8.362   7.964
49742SOL    HW151059   3.370   8.328   7.941
49742SOL    HW251060   3.275   8.343   8.058
49743SOL     OW51061   9.560  11.535  12.950
49743SOL    HW151062   9.521  11.504  13.031
49743SOL    HW251063   9.485  11.549  12.892
49744SOL     OW51064   4.819   2.548   2.725
49744SOL    HW151065   4.733   2.581   2.699
49744SOL    HW251066   4.864   2.531   2.643
49745SOL     OW51067   2.931  10.359   4.230
49745SOL    HW151068   2.970  10.282   4.189
49745SOL    HW251069   2.876  10.397   4.161
49746SOL     OW51070   7.868   7.766   6.807
49746SOL    HW151071   7.879   7.703   6.735
49746SOL    HW251072   7.796   7.731   6.859
49747SOL     OW51073  10.491   5.665   6.766
49747SOL    HW151074  10.529   5.585   6.803
49747SOL    HW251075  10.397   5.648   6.767
49748SOL     OW51076   7.115   1.491   3.631
49748SOL    HW151077   7.180   1.444   3.683
49748SOL    HW251078   7.147   1.487   3.541
49749SOL     OW51079   1.260   9.726  12.305
49749SOL    HW151080   1.189   9.785  12.279
49749SOL    HW251081   1.305   9.706  12.223
49750SOL     OW51082   9.327  14.332   5.028
49750SOL    HW151083   9.316  14.344   4.934
49750SOL    HW251084   9.386  14.403   5.054
49751SOL     OW51085  12.423   1.846   1.735
49751SOL    HW151086  12.356   1.800   1.685
49751SOL    HW251087  12.505   1.824   1.691
49752SOL     OW51088  10.677   1.695   5.284
49752SOL    HW151089  10.646   1.693   5.194
49752SOL    HW251090  10.710   1.607   5.300
49753SOL     OW51091   1.705  14.154   6.944
49753SOL    HW151092   1.656  14.235   6.948
49753SOL    HW251093   1.757  14.161   6.864
49754SOL     OW51094   2.344   2.257   7.448
49754SOL    HW151095   2.362   2.178   7.397
49754SOL    HW251096   2.249   2.259   7.459
49755SOL     OW51097  12.285   5.586  13.046
49755SOL    HW151098  12.227   5.612  12.974
49755SOL    HW251099  12.303   5.494  13.030
49756SOL     OW51100   2.553  11.404   8.955
49756SOL    HW151101   2.552  11.498   8.970
49756SOL    HW251102   2.481  11.389   8.894
49757SOL     OW51103  11.169  13.196  12.543
49757SOL    HW151104  11.111  13.137  12.592
49757SOL    HW251105  11.257  13.174  12.575
49758SOL     OW51106   9.520  12.642  10.293
49758SOL    HW151107   9.443  12.622  10.239
49758SOL    HW251108   9.484  12.656  10.381
49759SOL     OW51109   6.730   2.485   7.392
49759SOL    HW151110   6.816   2.523   7.372
49759SOL    HW251111   6.725   2.407   7.337
49760SOL     OW51112   3.409   3.183   0.827
49760SOL    HW151113   3.388   3.094   0.798
49760SOL    HW251114   3.398   3.181   0.922
49761SOL     OW51115  13.962  11.627   4.855
49761SOL    HW151116  13.925  11.555   4.906
49761SOL    HW251117  13.907  11.632   4.777
49762SOL     OW51118   1.967  11.714  14.416
49762SOL    HW151119   1.967  11.679  14.327
49762SOL    HW251120   2.048  11.765  14.422
49763SOL     OW51121   2.140   2.891  13.713
49763SOL    HW151122   2.169   2.958  13.652
49763SOL    HW251123   2.180   2.915  13.797
49764SOL     OW51124   6.947  11.879   0.230
49764SOL    HW151125   6.970  11.972   0.236
49764SOL    HW251126   6.995  11.837   0.301
49765SOL     OW51127   8.427  12.891   3.115
49765SOL    HW151128   8.454  12.816   3.063
49765SOL    HW251129   8.478  12.965   3.080
49766SOL     OW51130  12.614   0.217   2.385
49766SOL    HW151131  12.564   0.271   2.323
49766SOL    HW251132  12.655   0.150   2.330
49767SOL     OW51133  12.348  14.763   2.543
49767SOL    HW151134  12.320  14.709   2.618
49767SOL    HW251135  12.285  14.741   2.474
49768SOL     OW51136   1.026   6.584   0.953
49768SOL    HW151137   1.074   6.517   1.001
49768SOL    HW251138   1.020   6.657   1.014
49769SOL     OW51139   9.269  14.225   2.373
49769SOL    HW151140   9.221  14.145   2.352
49769SOL    HW251141   9.335  14.198   2.437
49770SOL     OW51142   5.862   9.841   2.703
49770SOL    HW151143   5.832   9.891   2.779
49770SOL    HW251144   5.861   9.904   2.631
49771SOL     OW51145   6.648   3.595   9.377
49771SOL    HW151146   6.570   3.552   9.413
49771SOL    HW251147   6.680   3.652   9.447
49772SOL     OW51148   7.184   4.803  10.297
49772SOL    HW151149   7.146   4.854  10.225
49772SOL    HW251150   7.123   4.815  10.369
49773SOL     OW51151   3.738  11.054  11.899
49773SOL    HW151152   3.723  11.059  11.994
49773SOL    HW251153   3.818  11.003  11.890
49774SOL     OW51154   5.318  12.693   9.636
49774SOL    HW151155   5.408  12.670   9.658
49774SOL    HW251156   5.315  12.690   9.540
49775SOL     OW51157   6.611   7.355   7.306
49775SOL    HW151158   6.558   7.277   7.294
49775SOL    HW251159   6.552   7.428   7.290
49776SOL     OW51160  14.253   8.468  11.730
49776SOL    HW151161  14.168   8.441  11.696
49776SOL    HW251162  14.282   8.538  11.671
49777SOL     OW51163   2.845   8.888   4.323
49777SOL    HW151164   2.771   8.937   4.359
49777SOL    HW251165   2.852   8.917   4.232
49778SOL     OW51166   5.490   3.504  13.731
49778SOL    HW151167   5.396   3.489  13.734
49778SOL    HW251168   5.518   3.499  13.823
49779SOL     OW51169   5.855  14.025   0.219
49779SOL    HW151170   5.894  13.938   0.226
49779SOL    HW251171   5.812  14.039   0.304
49780SOL     OW51172  14.406   4.562  13.203
49780SOL    HW151173  14.329   4.509  13.185
49780SOL    HW251174  14.473   4.529  13.142
49781SOL     OW51175  10.418   7.763   9.077
49781SOL    HW151176  10.484   7.818   9.033
49781SOL    HW251177  10.454   7.748   9.164
49782SOL     OW51178   1.622   2.606   4.168
49782SOL    HW151179   1.618   2.697   4.140
49782SOL    HW251180   1.548   2.596   4.229
49783SOL     OW51181  10.139  11.464   3.886
49783SOL    HW151182  10.146  11.374   3.919
49783SOL    HW251183  10.155  11.456   3.792
49784SOL     OW51184  10.488  11.843   0.409
49784SOL    HW151185  10.408  11.875   0.367
49784SOL    HW251186  10.488  11.884   0.495
49785SOL     OW51187   1.633   4.402   3.071
49785SOL    HW151188   1.681   4.400   2.989
49785SOL    HW251189   1.542   4.383   3.046
49786SOL     OW51190  10.447   4.248  10.632
49786SOL    HW151191  10.384   4.176  10.624
49786SOL    HW251192  10.429   4.285  10.719
49787SOL     OW51193   0.437  13.880   9.350
49787SOL    HW151194   0.434  13.811   9.417
49787SOL    HW251195   0.530  13.893   9.333
49788SOL     OW51196   9.403   1.259   5.781
49788SOL    HW151197   9.311   1.243   5.761
49788SOL    HW251198   9.408   1.352   5.801
49789SOL     OW51199   4.327   2.043   2.000
49789SOL    HW151200   4.304   1.955   2.030
49789SOL    HW251201   4.346   2.091   2.081
49790SOL     OW51202  13.204   1.956   5.514
49790SOL    HW151203  13.238   2.041   5.485
49790SOL    HW251204  13.110   1.960   5.495
49791SOL     OW51205   2.161   5.547   6.326
49791SOL    HW151206   2.134   5.464   6.288
49791SOL    HW251207   2.180   5.603   6.251
49792SOL     OW51208  14.696   8.008  14.287
49792SOL    HW151209  14.776   7.964  14.315
49792SOL    HW251210  14.639   8.005  14.364
49793SOL     OW51211   9.400  10.677   8.206
49793SOL    HW151212   9.439  10.732   8.139
49793SOL    HW251213   9.410  10.588   8.173
49794SOL     OW51214   5.054   6.828   3.023
49794SOL    HW151215   4.984   6.774   3.060
49794SOL    HW251216   5.044   6.817   2.928
49795SOL     OW51217   2.304   6.339  10.921
49795SOL    HW151218   2.257   6.385  10.991
49795SOL    HW251219   2.322   6.252  10.958
49796SOL     OW51220   0.598  12.360  13.292
49796SOL    HW151221   0.635  12.280  13.255
49796SOL    HW251222   0.661  12.386  13.359
49797SOL     OW51223   4.264   2.290  14.584
49797SOL    HW151224   4.261   2.352  14.511
49797SOL    HW251225   4.192   2.317  14.641
49798SOL     OW51226  10.770  13.551   8.418
49798SOL    HW151227  10.799  13.549   8.509
49798SOL    HW251228  10.850  13.540   8.366
49799SOL     OW51229   8.683  13.793   7.003
49799SOL    HW151230   8.690  13.821   6.911
49799SOL    HW251231   8.759  13.833   7.045
49800SOL     OW51232   6.120   9.180   9.140
49800SOL    HW151233   6.064   9.109   9.172
49800SOL    HW251234   6.143   9.155   9.051
49801SOL     OW51235   5.986  10.783   3.103
49801SOL    HW151236   5.919  10.822   3.159
49801SOL    HW251237   6.036  10.858   3.071
49802SOL     OW51238  14.665  12.839   7.262
49802SOL    HW151239  14.652  12.921   7.214
49802SOL    HW251240  14.683  12.774   7.194
49803SOL     OW51241  12.535   4.140   0.255
49803SOL    HW151242  12.568   4.120   0.167
49803SOL    HW251243  12.613   4.166   0.304
49804SOL     OW51244   4.702   8.777   5.183
49804SOL    HW151245   4.686   8.728   5.102
49804SOL    HW251246   4.638   8.742   5.245
49805SOL     OW51247  11.183   7.684   7.730
49805SOL    HW151248  11.098   7.714   7.698
49805SOL    HW251249  11.208   7.749   7.797
49806SOL     OW51250   0.286   6.500   3.150
49806SOL    HW151251   0.333   6.417   3.152
49806SOL    HW251252   0.258   6.514   3.240
49807SOL     OW51253   7.740  11.489   4.005
49807SOL    HW151254   7.708  11.507   4.093
49807SOL    HW251255   7.756  11.395   4.004
49808SOL     OW51256   6.039   4.206   7.126
49808SOL    HW151257   5.950   4.241   7.136
49808SOL    HW251258   6.072   4.249   7.047
49809SOL     OW51259  10.560   9.601   0.916
49809SOL    HW151260  10.621   9.656   0.867
49809SOL    HW251261  10.562   9.517   0.871
49810SOL     OW51262  12.621   2.080   8.186
49810SOL    HW151263  12.711   2.058   8.163
49810SOL    HW251264  12.608   2.040   8.272
49811SOL     OW51265  14.546  11.192   5.673
49811SOL    HW151266  14.635  11.208   5.642
49811SOL    HW251267  14.556  11.123   5.739
49812SOL     OW51268   8.292  14.106   6.719
49812SOL    HW151269   8.205  14.081   6.687
49812SOL    HW251270   8.277  14.188   6.767
49813SOL     OW51271   5.928   1.870   7.469
49813SOL    HW151272   5.868   1.798   7.489
49813SOL    HW251273   5.887   1.917   7.397
49814SOL     OW51274  13.679   9.174   8.233
49814SOL    HW151275  13.615   9.104   8.241
49814SOL    HW251276  13.689   9.187   8.138
49815SOL     OW51277   1.370  14.504  10.534
49815SOL    HW151278   1.391  14.596  10.516
49815SOL    HW251279   1.361  14.464  10.447
49816SOL     OW51280   8.315   3.582   9.352
49816SOL    HW151281   8.362   3.499   9.350
49816SOL    HW251282   8.362   3.636   9.288
49817SOL     OW51283   7.799   5.643   3.966
49817SOL    HW151284   7.824   5.591   3.890
49817SOL    HW251285   7.711   5.674   3.947
49818SOL     OW51286   6.212   3.742   9.897
49818SOL    HW151287   6.193   3.830   9.864
49818SOL    HW251288   6.299   3.721   9.863
49819SOL     OW51289   9.366   6.455  14.083
49819SOL    HW151290   9.442   6.399  14.103
49819SOL    HW251291   9.403   6.543  14.076
49820SOL     OW51292   1.273   8.696   3.788
49820SOL    HW151293   1.197   8.641   3.771
49820SOL    HW251294   1.260   8.773   3.732
49821SOL     OW51295  11.548   3.617  11.212
49821SOL    HW151296  11.577   3.542  11.265
49821SOL    HW251297  11.558   3.586  11.121
49822SOL     OW51298   6.893   4.935  14.162
49822SOL    HW151299   6.954   5.008  14.171
49822SOL    HW251300   6.931   4.880  14.094
49823SOL     OW51301   0.074   6.069   6.543
49823SOL    HW151302   0.073   5.993   6.601
49823SOL    HW251303  14.859   6.071   6.504
49824SOL     OW51304   9.767  11.655  13.048
49824SOL    HW151305   9.697  11.617  12.996
49824SOL    HW251306   9.842  11.660  12.988
49825SOL     OW51307   9.325   7.661  11.825
49825SOL    HW151308   9.328   7.753  11.803
49825SOL    HW251309   9.246   7.628  11.781
49826SOL     OW51310  11.409   5.609   3.733
49826SOL    HW151311  11.424   5.629   3.825
49826SOL    HW251312  11.363   5.525   3.733
49827SOL     OW51313   6.216   0.222   3.538
49827SOL    HW151314   6.238   0.142   3.490
49827SOL    HW251315   6.282   0.286   3.509
49828SOL     OW51316   3.971   2.038   7.992
49828SOL    HW151317   4.036   2.093   7.950
49828SOL    HW251318   3.986   1.951   7.957
49829SOL     OW51319   1.310   1.171   3.671
49829SOL    HW151320   1.345   1.218   3.747
49829SOL    HW251321   1.303   1.080   3.700
49830SOL     OW51322  10.678   6.963  13.186
49830SOL    HW151323  10.717   6.877  13.175
49830SOL    HW251324  10.722   7.018  13.122
49831SOL     OW51325  10.650   5.823   1.233
49831SOL    HW151326  10.709   5.815   1.308
49831SOL    HW251327  10.574   5.870   1.267
49832SOL     OW51328   9.070   1.961  14.341
49832SOL    HW151329   9.113   1.894  14.394
49832SOL    HW251330   9.016   2.009  14.403
49833SOL     OW51331   4.841   1.112   3.755
49833SOL    HW151332   4.908   1.069   3.809
49833SOL    HW251333   4.878   1.198   3.736
49834SOL     OW51334   0.277   4.703  13.288
49834SOL    HW151335   0.234   4.641  13.229
49834SOL    HW251336   0.342   4.747  13.234
49835SOL     OW51337   5.119   2.157   3.854
49835SOL    HW151338   5.111   2.136   3.947
49835SOL    HW251339   5.066   2.236   3.843
49836SOL     OW51340   2.869   8.999   6.335
49836SOL    HW151341   2.810   8.963   6.268
49836SOL    HW251342   2.926   9.058   6.287
49837SOL     OW51343   6.223   0.596   8.746
49837SOL    HW151344   6.227   0.501   8.733
49837SOL    HW251345   6.313   0.622   8.761
49838SOL     OW51346   9.743   2.887   1.967
49838SOL    HW151347   9.829   2.867   1.930
49838SOL    HW251348   9.725   2.814   2.027
49839SOL     OW51349  14.408  11.152  10.506
49839SOL    HW151350  14.365  11.182  10.426
49839SOL    HW251351  14.448  11.068  10.483
49840SOL     OW51352  11.713   8.069  13.406
49840SOL    HW151353  11.772   7.993  13.400
49840SOL    HW251354  11.638   8.037  13.458
49841SOL     OW51355   1.566  13.848   8.626
49841SOL    HW151356   1.533  13.765   8.662
49841SOL    HW251357   1.658  13.849   8.650
49842SOL     OW51358   3.182  12.499  11.913
49842SOL    HW151359   3.242  12.542  11.974
49842SOL    HW251360   3.238  12.445  11.857
49843SOL     OW51361   0.340   8.958   2.521
49843SOL    HW151362   0.304   8.999   2.600
49843SOL    HW251363   0.434   8.951   2.539
49844SOL     OW51364  13.969   3.237   4.864
49844SOL    HW151365  14.047   3.183   4.878
49844SOL    HW251366  13.904   3.200   4.924
49845SOL     OW51367  10.734  13.537  11.412
49845SOL    HW151368  10.690  13.623  11.410
49845SOL    HW251369  10.781  13.532  11.330
49846SOL     OW51370  11.118   0.735   8.330
49846SOL    HW151371  11.172   0.813   8.316
49846SOL    HW251372  11.177   0.670   8.365
49847SOL     OW51373  12.920   1.932   0.756
49847SOL    HW151374  12.915   1.837   0.752
49847SOL    HW251375  13.011   1.952   0.732
49848SOL     OW51376   8.432  14.323  12.777
49848SOL    HW151377   8.351  14.375  12.780
49848SOL    HW251378   8.469  14.341  12.691
49849SOL     OW51379  12.820  12.510   2.602
49849SOL    HW151380  12.891  12.491   2.663
49849SOL    HW251381  12.845  12.465   2.521
49850SOL     OW51382  11.143   6.056  11.397
49850SOL    HW151383  11.067   6.059  11.455
49850SOL    HW251384  11.125   5.983  11.338
49851SOL     OW51385   7.689  14.350   3.923
49851SOL    HW151386   7.622  14.294   3.961
49851SOL    HW251387   7.745  14.291   3.873
49852SOL     OW51388  12.716   2.763   0.518
49852SOL    HW151389  12.658   2.726   0.585
49852SOL    HW251390  12.727   2.693   0.454
49853SOL     OW51391   9.892   0.422   4.203
49853SOL    HW151392   9.828   0.417   4.131
49853SOL    HW251393   9.967   0.466   4.164
49854SOL     OW51394   2.859  10.543   1.294
49854SOL    HW151395   2.792  10.479   1.270
49854SOL    HW251396   2.942  10.495   1.285
49855SOL     OW51397   3.368  10.925   3.072
49855SOL    HW151398   3.355  10.938   2.978
49855SOL    HW251399   3.305  10.857   3.096
49856SOL     OW51400   6.607  12.988   9.975
49856SOL    HW151401   6.677  13.053   9.967
49856SOL    HW251402   6.552  13.001   9.898
49857SOL     OW51403  13.631  11.791   6.491
49857SOL    HW151404  13.628  11.767   6.584
49857SOL    HW251405  13.558  11.744   6.451
49858SOL     OW51406  14.395  10.254   9.805
49858SOL    HW151407  14.374  10.308   9.729
49858SOL    HW251408  14.382  10.164   9.775
49859SOL     OW51409   5.235   3.451   8.691
49859SOL    HW151410   5.174   3.433   8.620
49859SOL    HW251411   5.264   3.364   8.720
49860SOL     OW51412   6.937  11.316   2.537
49860SOL    HW151413   6.938  11.332   2.443
49860SOL    HW251414   6.985  11.233   2.548
49861SOL     OW51415  11.620   3.582   6.394
49861SOL    HW151416  11.598   3.496   6.429
49861SOL    HW251417  11.566   3.590   6.316
49862SOL     OW51418   2.623  11.765  11.818
49862SOL    HW151419   2.710  11.793  11.847
49862SOL    HW251420   2.603  11.822  11.744
49863SOL     OW51421   6.164  13.408   6.920
49863SOL    HW151422   6.242  13.369   6.959
49863SOL    HW251423   6.191  13.497   6.897
49864SOL     OW51424   7.930  12.277  13.564
49864SOL    HW151425   7.894  12.238  13.644
49864SOL    HW251426   8.017  12.308  13.589
49865SOL     OW51427  13.921   6.100   0.617
49865SOL    HW151428  13.861   6.100   0.691
49865SOL    HW251429  13.917   6.011   0.582
49866SOL     OW51430  11.560   8.823  10.136
49866SOL    HW151431  11.572   8.759  10.066
49866SOL    HW251432  11.613   8.899  10.109
49867SOL     OW51433   0.036   4.709  12.028
49867SOL    HW151434  14.825   4.752  12.047
49867SOL    HW251435   0.013   4.617  12.014
49868SOL     OW51436   0.452   4.146   2.130
49868SOL    HW151437   0.479   4.234   2.103
49868SOL    HW251438   0.503   4.129   2.209
49869SOL     OW51439   4.437   9.067   2.427
49869SOL    HW151440   4.440   9.122   2.349
49869SOL    HW251441   4.463   9.126   2.498
49870SOL     OW51442   0.327  10.738  13.989
49870SOL    HW151443   0.313  10.731  14.083
49870SOL    HW251444   0.377  10.819  13.977
49871SOL     OW51445   3.719   1.673   0.671
49871SOL    HW151446   3.765   1.729   0.734
49871SOL    HW251447   3.788   1.636   0.617
49872SOL     OW51448   9.055  13.096   0.015
49872SOL    HW151449   9.129  13.111   0.074
49872SOL    HW251450   9.013  13.017   0.049
49873SOL     OW51451   5.770   2.398   3.933
49873SOL    HW151452   5.769   2.493   3.944
49873SOL    HW251453   5.855   2.379   3.894
49874SOL     OW51454   3.234  12.339  12.351
49874SOL    HW151455   3.268  12.333  12.440
49874SOL    HW251456   3.309  12.362  12.297
49875SOL     OW51457   1.991  14.356   7.510
49875SOL    HW151458   2.084  14.354   7.488
49875SOL    HW251459   1.947  14.323   7.432
49876SOL     OW51460  14.091   6.455   7.224
49876SOL    HW151461  14.004   6.494   7.218
49876SOL    HW251462  14.075   6.361   7.215
49877SOL     OW51463   4.587  10.050   1.369
49877SOL    HW151464   4.609  10.028   1.460
49877SOL    HW251465   4.661  10.015   1.318
49878SOL     OW51466   6.664   6.625  12.067
49878SOL    HW151467   6.713   6.682  12.007
49878SOL    HW251468   6.572   6.640  12.046
49879SOL     OW51469  14.763   6.395   4.767
49879SOL    HW151470  14.775   6.487   4.791
49879SOL    HW251471  14.696   6.363   4.827
49880SOL     OW51472   2.345   1.772   2.002
49880SOL    HW151473   2.372   1.860   1.978
49880SOL    HW251474   2.327   1.729   1.918
49881SOL     OW51475   4.257   1.776  12.846
49881SOL    HW151476   4.206   1.717  12.901
49881SOL    HW251477   4.191   1.830  12.801
49882SOL     OW51478   3.379   2.477   6.427
49882SOL    HW151479   3.472   2.456   6.417
49882SOL    HW251480   3.336   2.432   6.354
49883SOL     OW51481  11.673   8.090   9.544
49883SOL    HW151482  11.625   8.170   9.524
49883SOL    HW251483  11.608   8.033   9.586
49884SOL     OW51484   6.897  11.938   9.130
49884SOL    HW151485   6.985  11.924   9.093
49884SOL    HW251486   6.838  11.918   9.058
49885SOL     OW51487  12.205   4.543   2.010
49885SOL    HW151488  12.243   4.554   1.923
49885SOL    HW251489  12.167   4.628   2.031
49886SOL     OW51490  10.020   3.074   3.718
49886SOL    HW151491   9.949   3.136   3.731
49886SOL    HW251492  10.032   3.031   3.802
49887SOL     OW51493   4.661   2.153   8.124
49887SOL    HW151494   4.567   2.142   8.140
49887SOL    HW251495   4.668   2.163   8.029
49888SOL     OW51496   6.678  14.613   7.026
49888SOL    HW151497   6.719  14.535   6.991
49888SOL    HW251498   6.588  14.587   7.046
49889SOL     OW51499   1.761  10.695  10.992
49889SOL    HW151500   1.766  10.629  10.922
49889SOL    HW251501   1.768  10.644  11.073
49890SOL     OW51502   0.230  11.841  11.745
49890SOL    HW151503   0.197  11.865  11.832
49890SOL    HW251504   0.170  11.772  11.715
49891SOL     OW51505   2.307   9.887   1.320
49891SOL    HW151506   2.393   9.847   1.325
49891SOL    HW251507   2.246   9.813   1.322
49892SOL     OW51508   3.729   8.522   6.061
49892SOL    HW151509   3.695   8.433   6.052
49892SOL    HW251510   3.804   8.525   6.002
49893SOL     OW51511  11.787   2.120   6.537
49893SOL    HW151512  11.749   2.032   6.534
49893SOL    HW251513  11.757   2.161   6.456
49894SOL     OW51514  14.219   8.546   4.888
49894SOL    HW151515  14.299   8.585   4.924
49894SOL    HW251516  14.214   8.582   4.799
49895SOL     OW51517   1.775   0.052   5.070
49895SOL    HW151518   1.771  14.829   5.071
49895SOL    HW251519   1.769   0.077   5.162
49896SOL     OW51520   1.544  10.035  14.811
49896SOL    HW151521   1.455  10.004  14.799
49896SOL    HW251522   1.545  10.070   0.027
49897SOL     OW51523  13.805   2.892  14.384
49897SOL    HW151524  13.898   2.894  14.361
49897SOL    HW251525  13.786   2.981  14.412
49898SOL     OW51526  11.400  10.515   1.681
49898SOL    HW151527  11.330  10.476   1.627
49898SOL    HW251528  11.410  10.603   1.647
49899SOL     OW51529  13.651   4.667  10.881
49899SOL    HW151530  13.601   4.730  10.829
49899SOL    HW251531  13.655   4.589  10.825
49900SOL     OW51532   0.918   3.863   3.890
49900SOL    HW151533   0.931   3.775   3.926
49900SOL    HW251534   1.005   3.902   3.887
49901SOL     OW51535   2.743  13.265   0.984
49901SOL    HW151536   2.713  13.181   0.951
49901SOL    HW251537   2.727  13.261   1.078
49902SOL     OW51538   2.420   4.146   6.392
49902SOL    HW151539   2.419   4.237   6.361
49902SOL    HW251540   2.480   4.148   6.467
49903SOL     OW51541   5.416   9.570  13.881
49903SOL    HW151542   5.454   9.620  13.954
49903SOL    HW251543   5.376   9.637  13.825
49904SOL     OW51544   7.494   2.006   7.711
49904SOL    HW151545   7.575   1.968   7.677
49904SOL    HW251546   7.496   2.098   7.683
49905SOL     OW51547   1.604   3.296  13.220
49905SOL    HW151548   1.566   3.318  13.136
49905SOL    HW251549   1.641   3.378  13.252
49906SOL     OW51550   3.695  11.808   5.557
49906SOL    HW151551   3.771  11.774   5.605
49906SOL    HW251552   3.620  11.764   5.598
49907SOL     OW51553   8.228   7.870   1.412
49907SOL    HW151554   8.191   7.783   1.393
49907SOL    HW251555   8.155   7.921   1.445
49908SOL     OW51556  12.094  14.087   2.008
49908SOL    HW151557  12.156  14.101   2.080
49908SOL    HW251558  12.102  14.165   1.954
49909SOL     OW51559   2.162   7.215   3.010
49909SOL    HW151560   2.194   7.139   3.058
49909SOL    HW251561   2.099   7.179   2.948
49910SOL     OW51562   1.418   9.396  13.906
49910SOL    HW151563   1.474   9.318  13.907
49910SOL    HW251564   1.413   9.420  13.813
49911SOL     OW51565   7.535   7.218   7.662
49911SOL    HW151566   7.478   7.141   7.672
49911SOL    HW251567   7.486   7.277   7.605
49912SOL     OW51568   0.384   5.526  14.462
49912SOL    HW151569   0.365   5.435  14.484
49912SOL    HW251570   0.343   5.577  14.533
49913SOL     OW51571   6.804  13.480   9.938
49913SOL    HW151572   6.867  13.431   9.990
49913SOL    HW251573   6.790  13.561   9.987
49914SOL     OW51574  12.182   0.589   1.164
49914SOL    HW151575  12.136   0.506   1.160
49914SOL    HW251576  12.270   0.567   1.194
49915SOL     OW51577   0.715   6.612   6.522
49915SOL    HW151578   0.656   6.650   6.587
49915SOL    HW251579   0.660   6.552   6.472
49916SOL     OW51580  10.861   0.686   0.194
49916SOL    HW151581  10.914   0.723   0.264
49916SOL    HW251582  10.896   0.598   0.180
49917SOL     OW51583   3.012   0.027   8.351
49917SOL    HW151584   3.035   0.116   8.377
49917SOL    HW251585   3.094  14.851   8.355
49918SOL     OW51586   0.007   9.258   2.480
49918SOL    HW151587   0.011   9.171   2.521
49918SOL    HW251588   0.087   9.302   2.511
49919SOL     OW51589   1.032   6.648   2.402
49919SOL    HW151590   1.039   6.643   2.498
49919SOL    HW251591   0.992   6.564   2.378
49920SOL     OW51592  13.310   6.339   0.605
49920SOL    HW151593  13.337   6.284   0.532
49920SOL    HW251594  13.234   6.295   0.643
49921SOL     OW51595   0.958   4.596   9.650
49921SOL    HW151596   0.982   4.527   9.589
49921SOL    HW251597   1.034   4.654   9.652
49922SOL     OW51598   6.635   2.357   1.863
49922SOL    HW151599   6.696   2.420   1.901
49922SOL    HW251600   6.683   2.319   1.789
49923SOL     OW51601   1.198   1.738  10.957
49923SOL    HW151602   1.177   1.812  11.014
49923SOL    HW251603   1.140   1.747  10.882
49924SOL     OW51604   5.598   4.759  13.201
49924SOL    HW151605   5.548   4.689  13.244
49924SOL    HW251606   5.620   4.820  13.271
49925SOL     OW51607   6.584   8.281   0.966
49925SOL    HW151608   6.581   8.297   0.871
49925SOL    HW251609   6.616   8.191   0.974
49926SOL     OW51610   6.954   5.134   2.219
49926SOL    HW151611   7.015   5.204   2.244
49926SOL    HW251612   6.868   5.175   2.218
49927SOL     OW51613   1.301   3.707  14.289
49927SOL    HW151614   1.339   3.643  14.229
49927SOL    HW251615   1.349   3.788  14.270
49928SOL     OW51616  13.014   2.474   9.546
49928SOL    HW151617  13.016   2.553   9.600
49928SOL    HW251618  13.102   2.468   9.509
49929SOL     OW51619   3.478   4.928  13.845
49929SOL    HW151620   3.539   4.859  13.869
49929SOL    HW251621   3.393   4.896  13.874
49930SOL     OW51622  10.597   2.662   1.225
49930SOL    HW151623  10.588   2.746   1.269
49930SOL    HW251624  10.644   2.607   1.288
49931SOL     OW51625   9.018  13.998   0.216
49931SOL    HW151626   9.083  14.039   0.273
49931SOL    HW251627   8.934  14.028   0.250
49932SOL     OW51628  12.554  11.837  13.071
49932SOL    HW151629  12.489  11.899  13.038
49932SOL    HW251630  12.637  11.865  13.033
49933SOL     OW51631   0.226   7.515   5.543
49933SOL    HW151632   0.223   7.574   5.619
49933SOL    HW251633   0.134   7.495   5.526
49934SOL     OW51634  10.670  12.764   9.130
49934SOL    HW151635  10.711  12.746   9.215
49934SOL    HW251636  10.673  12.859   9.122
49935SOL     OW51637  12.157   0.609   9.259
49935SOL    HW151638  12.218   0.583   9.191
49935SOL    HW251639  12.071   0.588   9.224
49936SOL     OW51640   3.042   5.850  11.344
49936SOL    HW151641   2.958   5.809  11.323
49936SOL    HW251642   3.071   5.890  11.262
49937SOL     OW51643  11.758   9.422  10.821
49937SOL    HW151644  11.755   9.517  10.825
49937SOL    HW251645  11.737   9.402  10.729
49938SOL     OW51646   8.713  11.049   4.773
49938SOL    HW151647   8.674  10.963   4.791
49938SOL    HW251648   8.718  11.053   4.678
49939SOL     OW51649  13.291   8.394   0.226
49939SOL    HW151650  13.281   8.299   0.233
49939SOL    HW251651  13.220   8.429   0.279
49940SOL     OW51652  14.030   8.957   5.023
49940SOL    HW151653  14.055   8.966   5.115
49940SOL    HW251654  14.111   8.935   4.978
49941SOL     OW51655  11.303  12.258  14.593
49941SOL    HW151656  11.338  12.285  14.508
49941SOL    HW251657  11.312  12.163  14.594
49942SOL     OW51658   2.956   0.215  10.791
49942SOL    HW151659   2.922   0.168  10.715
49942SOL    HW251660   3.042   0.247  10.763
49943SOL     OW51661   8.518  13.983   4.462
49943SOL    HW151662   8.511  13.894   4.495
49943SOL    HW251663   8.464  14.035   4.522
49944SOL     OW51664   3.561  10.855   1.383
49944SOL    HW151665   3.543  10.880   1.474
49944SOL    HW251666   3.656  10.843   1.381
49945SOL     OW51667   9.557  11.351   2.724
49945SOL    HW151668   9.550  11.369   2.818
49945SOL    HW251669   9.594  11.431   2.687
49946SOL     OW51670  11.004  11.840   6.300
49946SOL    HW151671  10.982  11.782   6.372
49946SOL    HW251672  11.068  11.791   6.248
49947SOL     OW51673   7.689   8.552  11.440
49947SOL    HW151674   7.737   8.562  11.358
49947SOL    HW251675   7.699   8.636  11.485
49948SOL     OW51676   8.872   0.202   9.947
49948SOL    HW151677   8.801   0.266   9.951
49948SOL    HW251678   8.925   0.220  10.025
49949SOL     OW51679   6.930  10.892   9.905
49949SOL    HW151680   6.876  10.917   9.980
49949SOL    HW251681   7.000  10.957   9.903
49950SOL     OW51682   5.192  14.665  13.851
49950SOL    HW151683   5.236  14.598  13.903
49950SOL    HW251684   5.162  14.619  13.773
49951SOL     OW51685  11.385   8.571  12.829
49951SOL    HW151686  11.336   8.489  12.833
49951SOL    HW251687  11.387   8.603  12.920
49952SOL     OW51688  13.568   2.014   6.087
49952SOL    HW151689  13.546   1.998   5.995
49952SOL    HW251690  13.622   1.939   6.112
49953SOL     OW51691  11.115   0.920   7.699
49953SOL    HW151692  11.130   1.015   7.692
49953SOL    HW251693  11.198   0.881   7.674
49954SOL     OW51694   0.998  11.825   8.554
49954SOL    HW151695   0.996  11.812   8.459
49954SOL    HW251696   0.911  11.858   8.576
49955SOL     OW51697   7.741   8.872   9.572
49955SOL    HW151698   7.751   8.853   9.666
49955SOL    HW251699   7.825   8.847   9.534
49956SOL     OW51700  12.188   8.687  13.257
49956SOL    HW151701  12.239   8.767  13.269
49956SOL    HW251702  12.100   8.711  13.286
49957SOL     OW51703   9.578  10.012   0.223
49957SOL    HW151704   9.529  10.077   0.274
49957SOL    HW251705   9.633  10.064   0.165
49958SOL     OW51706  12.492   4.485  14.450
49958SOL    HW151707  12.427   4.457  14.514
49958SOL    HW251708  12.483   4.423  14.377
49959SOL     OW51709   7.666   9.953   5.449
49959SOL    HW151710   7.684   9.978   5.358
49959SOL    HW251711   7.725   9.879   5.465
49960SOL     OW51712   1.647   1.217   4.074
49960SOL    HW151713   1.646   1.195   4.168
49960SOL    HW251714   1.739   1.233   4.054
49961SOL     OW51715   0.406   9.850  14.522
49961SOL    HW151716   0.388   9.790  14.595
49961SOL    HW251717   0.459   9.799  14.461
49962SOL     OW51718   0.913   1.796   2.061
49962SOL    HW151719   0.945   1.802   2.151
49962SOL    HW251720   0.993   1.795   2.007
49963SOL     OW51721  14.688   8.315  12.896
49963SOL    HW151722  14.755   8.284  12.957
49963SOL    HW251723  14.666   8.238  12.842
49964SOL     OW51724  10.586  10.424   1.821
49964SOL    HW151725  10.667  10.462   1.857
49964SOL    HW251726  10.544  10.382   1.895
49965SOL     OW51727   0.977   3.049   7.595
49965SOL    HW151728   1.025   3.118   7.641
49965SOL    HW251729   0.936   2.997   7.665
49966SOL     OW51730  10.289   3.861   1.686
49966SOL    HW151731  10.377   3.825   1.696
49966SOL    HW251732  10.298   3.952   1.714
49967SOL     OW51733  12.065   9.219  13.723
49967SOL    HW151734  12.046   9.152  13.789
49967SOL    HW251735  12.160   9.216  13.712
49968SOL     OW51736   6.292   3.973   8.096
49968SOL    HW151737   6.251   3.963   8.010
49968SOL    HW251738   6.251   3.907   8.150
49969SOL     OW51739  11.988  11.475   9.683
49969SOL    HW151740  12.068  11.496   9.731
49969SOL    HW251741  12.014  11.408   9.620
49970SOL     OW51742   5.203   2.925   1.857
49970SOL    HW151743   5.161   2.972   1.785
49970SOL    HW251744   5.236   2.994   1.914
49971SOL     OW51745   7.018  14.022  12.319
49971SOL    HW151746   6.929  14.033  12.353
49971SOL    HW251747   7.009  14.039  12.225
49972SOL     OW51748  10.321   4.122  11.556
49972SOL    HW151749  10.302   4.195  11.497
49972SOL    HW251750  10.394   4.075  11.514
49973SOL     OW51751  12.976   2.196   8.849
49973SOL    HW151752  13.050   2.208   8.789
49973SOL    HW251753  12.999   2.248   8.926
49974SOL     OW51754  12.713   4.025   6.334
49974SOL    HW151755  12.707   3.938   6.293
49974SOL    HW251756  12.807   4.037   6.351
49975SOL     OW51757   5.040  14.854  10.881
49975SOL    HW151758   5.015  14.806  10.960
49975SOL    HW251759   4.962   0.033  10.859
49976SOL     OW51760   6.111   8.700   4.437
49976SOL    HW151761   6.067   8.710   4.521
49976SOL    HW251762   6.058   8.634   4.391
49977SOL     OW51763   7.012   6.644   4.399
49977SOL    HW151764   7.102   6.676   4.404
49977SOL    HW251765   6.983   6.670   4.311
49978SOL     OW51766  12.983  14.731  14.377
49978SOL    HW151767  12.976  14.717  14.472
49978SOL    HW251768  12.923  14.667  14.339
49979SOL     OW51769  12.707   4.633  14.775
49979SOL    HW151770  12.802   4.632  14.767
49979SOL    HW251771  12.682   4.721  14.745
49980SOL     OW51772  10.047   0.176  10.518
49980SOL    HW151773   9.994   0.174  10.438
49980SOL    HW251774  10.037   0.265  10.551
49981SOL     OW51775   2.746  10.074  10.259
49981SOL    HW151776   2.803  10.021  10.315
49981SOL    HW251777   2.663  10.078  10.307
49982SOL     OW51778   5.027   6.737   9.572
49982SOL    HW151779   5.104   6.794   9.572
49982SOL    HW251780   4.990   6.747   9.484
49983SOL     OW51781   0.989   4.260  10.892
49983SOL    HW151782   0.966   4.252  10.985
49983SOL    HW251783   1.078   4.294  10.893
49984SOL     OW51784  12.546   4.416   9.129
49984SOL    HW151785  12.508   4.503   9.122
49984SOL    HW251786  12.600   4.419   9.208
49985SOL     OW51787   8.268   0.739  11.391
49985SOL    HW151788   8.207   0.735  11.318
49985SOL    HW251789   8.221   0.785  11.460
49986SOL     OW51790   2.454  10.500   0.357
49986SOL    HW151791   2.427  10.408   0.355
49986SOL    HW251792   2.406  10.538   0.431
49987SOL     OW51793   7.059   6.042  13.487
49987SOL    HW151794   6.995   6.092  13.539
49987SOL    HW251795   7.141   6.090  13.498
49988SOL     OW51796   4.599   3.214   9.123
49988SOL    HW151797   4.561   3.206   9.210
49988SOL    HW251798   4.546   3.157   9.067
49989SOL     OW51799   8.163  14.098   5.930
49989SOL    HW151800   8.089  14.101   5.990
49989SOL    HW251801   8.217  14.173   5.954
49990SOL     OW51802   8.023  14.444  14.304
49990SOL    HW151803   8.006  14.376  14.369
49990SOL    HW251804   8.108  14.421  14.266
49991SOL     OW51805  12.825   3.946  12.765
49991SOL    HW151806  12.912   3.966  12.730
49991SOL    HW251807  12.792   4.029  12.799
49992SOL     OW51808   9.698  14.725   1.779
49992SOL    HW151809   9.789  14.717   1.751
49992SOL    HW251810   9.676  14.817   1.760
49993SOL     OW51811   4.789   8.070   3.170
49993SOL    HW151812   4.869   8.025   3.196
49993SOL    HW251813   4.746   8.095   3.252
49994SOL     OW51814  11.036  11.025  13.277
49994SOL    HW151815  10.984  10.997  13.352
49994SOL    HW251816  10.973  11.038  13.207
49995SOL     OW51817  14.376  10.013  10.832
49995SOL    HW151818  14.426  10.027  10.913
49995SOL    HW251819  14.383  10.096  10.785
49996SOL     OW51820   0.648  11.799   5.590
49996SOL    HW151821   0.704  11.721   5.598
49996SOL    HW251822   0.625  11.821   5.680
49997SOL     OW51823   7.669  10.996  11.859
49997SOL    HW151824   7.577  10.974  11.872
49997SOL    HW251825   7.713  10.959  11.936
49998SOL     OW51826   8.949   2.846   4.033
49998SOL    HW151827   8.942   2.850   3.938
49998SOL    HW251828   9.034   2.885   4.053
49999SOL     OW51829   0.245   6.013  13.166
49999SOL    HW151830   0.150   6.006  13.157
49999SOL    HW251831   0.261   6.108  13.169
50000SOL     OW51832  14.536  10.834   6.394
50000SOL    HW151833  14.564  10.803   6.480
50000SOL    HW251834  14.450  10.873   6.409
50001SOL     OW51835  11.296  13.839   7.013
50001SOL    HW151836  11.375  13.894   7.010
50001SOL    HW251837  11.227  13.898   7.041
50002SOL     OW51838   1.109  14.746   8.335
50002SOL    HW151839   1.163  14.713   8.407
50002SOL    HW251840   1.120  14.681   8.265
50003SOL     OW51841  13.978  13.785   3.053
50003SOL    HW151842  13.919  13.806   2.981
50003SOL    HW251843  13.956  13.849   3.121
50004SOL     OW51844   3.589  13.385   2.218
50004SOL    HW151845   3.539  13.379   2.299
50004SOL    HW251846   3.537  13.443   2.162
50005SOL     OW51847  11.116   5.923   0.796
50005SOL    HW151848  11.042   5.918   0.736
50005SOL    HW251849  11.193   5.931   0.739
50006SOL     OW51850   6.366   0.922   1.992
50006SOL    HW151851   6.386   1.013   2.017
50006SOL    HW251852   6.273   0.912   2.013
50007SOL     OW51853  12.391   7.340   3.064
50007SOL    HW151854  12.458   7.400   3.032
50007SOL    HW251855  12.351   7.385   3.138
50008SOL     OW51856   0.624  11.290  12.064
50008SOL    HW151857   0.570  11.258  12.136
50008SOL    HW251858   0.711  11.254  12.082
50009SOL     OW51859  14.088   5.680   3.104
50009SOL    HW151860  13.997   5.666   3.076
50009SOL    HW251861  14.082   5.714   3.192
50010SOL     OW51862  12.593   5.136  14.493
50010SOL    HW151863  12.501   5.127  14.516
50010SOL    HW251864  12.592   5.181  14.408
50011SOL     OW51865   0.726   7.778   9.721
50011SOL    HW151866   0.704   7.870   9.705
50011SOL    HW251867   0.796   7.782   9.786
50012SOL     OW51868  13.767  13.636   8.036
50012SOL    HW151869  13.739  13.595   7.954
50012SOL    HW251870  13.787  13.562   8.094
50013SOL     OW51871   2.954   3.383   1.811
50013SOL    HW151872   2.960   3.320   1.739
50013SOL    HW251873   2.928   3.465   1.769
50014SOL     OW51874  10.795   6.454  13.578
50014SOL    HW151875  10.854   6.398  13.527
50014SOL    HW251876  10.720   6.469  13.521
50015SOL     OW51877   6.154   1.599  13.028
50015SOL    HW151878   6.140   1.690  13.004
50015SOL    HW251879   6.126   1.593  13.119
50016SOL     OW51880   5.583  11.228   5.658
50016SOL    HW151881   5.595  11.308   5.607
50016SOL    HW251882   5.536  11.169   5.600
50017SOL     OW51883  11.675   8.728   7.868
50017SOL    HW151884  11.659   8.634   7.877
50017SOL    HW251885  11.750   8.746   7.924
50018SOL     OW51886   9.475   7.260  11.604
50018SOL    HW151887   9.513   7.324  11.544
50018SOL    HW251888   9.386   7.291  11.619
50019SOL     OW51889   3.474   1.727   2.570
50019SOL    HW151890   3.533   1.767   2.506
50019SOL    HW251891   3.386   1.748   2.538
50020SOL     OW51892  12.586  13.796   0.424
50020SOL    HW151893  12.547  13.859   0.485
50020SOL    HW251894  12.677  13.825   0.416
50021SOL     OW51895   3.983   7.181  12.629
50021SOL    HW151896   4.069   7.203  12.663
50021SOL    HW251897   3.973   7.088  12.646
50022SOL     OW51898   9.731  14.314   4.907
50022SOL    HW151899   9.727  14.406   4.881
50022SOL    HW251900   9.666  14.270   4.853
50023SOL     OW51901  11.198   3.829  12.465
50023SOL    HW151902  11.129   3.786  12.413
50023SOL    HW251903  11.250   3.756  12.500
50024SOL     OW51904  11.282   0.639   7.510
50024SOL    HW151905  11.306   0.635   7.603
50024SOL    HW251906  11.334   0.712   7.475
50025SOL     OW51907   6.206   2.983   2.023
50025SOL    HW151908   6.163   2.987   1.937
50025SOL    HW251909   6.135   2.994   2.086
50026SOL     OW51910  13.735  11.118   7.785
50026SOL    HW151911  13.799  11.145   7.851
50026SOL    HW251912  13.769  11.154   7.703
50027SOL     OW51913   4.374  14.329   9.128
50027SOL    HW151914   4.390  14.337   9.033
50027SOL    HW251915   4.326  14.409   9.151
50028SOL     OW51916   0.249   3.988  14.280
50028SOL    HW151917   0.177   3.926  14.291
50028SOL    HW251918   0.290   3.992  14.366
50029SOL     OW51919   4.252  13.721  13.792
50029SOL    HW151920   4.260  13.816  13.781
50029SOL    HW251921   4.321  13.699  13.855
50030SOL     OW51922   5.286   7.724   2.129
50030SOL    HW151923   5.204   7.761   2.097
50030SOL    HW251924   5.262   7.674   2.206
50031SOL     OW51925   0.511  13.527  10.217
50031SOL    HW151926   0.564  13.544  10.139
50031SOL    HW251927   0.423  13.556  10.193
50032SOL     OW51928   9.380   8.343  12.752
50032SOL    HW151929   9.408   8.409  12.689
50032SOL    HW251930   9.442   8.352  12.825
50033SOL     OW51931   2.636  10.941  13.356
50033SOL    HW151932   2.593  10.981  13.280
50033SOL    HW251933   2.686  11.012  13.396
50034SOL     OW51934  11.145  12.946   6.145
50034SOL    HW151935  11.084  12.963   6.073
50034SOL    HW251936  11.215  12.895   6.105
50035SOL     OW51937  13.468   3.901   5.223
50035SOL    HW151938  13.398   3.846   5.258
50035SOL    HW251939  13.512   3.936   5.300
50036SOL     OW51940   1.971   1.202  12.391
50036SOL    HW151941   1.887   1.231  12.427
50036SOL    HW251942   2.009   1.280  12.353
50037SOL     OW51943   9.616  11.957  13.895
50037SOL    HW151944   9.681  11.892  13.922
50037SOL    HW251945   9.645  12.038  13.937
50038SOL     OW51946  11.093  14.782  13.379
50038SOL    HW151947  11.092  14.699  13.428
50038SOL    HW251948  11.127  14.846  13.442
50039SOL     OW51949   1.953   8.369   7.171
50039SOL    HW151950   2.014   8.298   7.195
50039SOL    HW251951   1.868   8.339   7.203
50040SOL     OW51952   7.353  11.291   3.257
50040SOL    HW151953   7.285  11.289   3.324
50040SOL    HW251954   7.313  11.339   3.184
50041SOL     OW51955   6.327   0.213   5.852
50041SOL    HW151956   6.267   0.172   5.790
50041SOL    HW251957   6.333   0.151   5.924
50042SOL     OW51958   6.027  10.124   8.356
50042SOL    HW151959   6.080  10.045   8.347
50042SOL    HW251960   6.030  10.144   8.450
50043SOL     OW51961   4.019  13.408   0.270
50043SOL    HW151962   4.038  13.326   0.315
50043SOL    HW251963   3.951  13.386   0.207
50044SOL     OW51964  12.745  14.129   2.431
50044SOL    HW151965  12.757  14.042   2.469
50044SOL    HW251966  12.802  14.130   2.354
50045SOL     OW51967  10.622   0.905   6.210
50045SOL    HW151968  10.642   0.817   6.179
50045SOL    HW251969  10.561   0.892   6.283
50046SOL     OW51970   3.377   9.518   9.562
50046SOL    HW151971   3.330   9.559   9.489
50046SOL    HW251972   3.413   9.437   9.525
50047SOL     OW51973  12.462   0.530  11.769
50047SOL    HW151974  12.382   0.539  11.718
50047SOL    HW251975  12.449   0.450  11.820
50048SOL     OW51976  10.534   6.534  12.893
50048SOL    HW151977  10.546   6.511  12.985
50048SOL    HW251978  10.596   6.606  12.879
50049SOL     OW51979  10.072   1.606   1.534
50049SOL    HW151980  10.031   1.544   1.473
50049SOL    HW251981  10.005   1.622   1.600
50050SOL     OW51982   1.818   0.550   9.091
50050SOL    HW151983   1.898   0.506   9.119
50050SOL    HW251984   1.751   0.481   9.095
50051SOL     OW51985   7.219   9.704   2.847
50051SOL    HW151986   7.146   9.669   2.796
50051SOL    HW251987   7.247   9.631   2.902
50052SOL     OW51988   8.783   4.335   2.972
50052SOL    HW151989   8.818   4.289   2.896
50052SOL    HW251990   8.860   4.369   3.018
50053SOL     OW51991   9.951   3.330  11.882
50053SOL    HW151992  10.041   3.315  11.910
50053SOL    HW251993   9.905   3.250  11.906
50054SOL     OW51994  14.408   5.132   0.852
50054SOL    HW151995  14.442   5.134   0.763
50054SOL    HW251996  14.469   5.186   0.902
50055SOL     OW51997   9.490   7.910   8.619
50055SOL    HW151998   9.537   7.855   8.681
50055SOL    HW251999   9.454   7.848   8.555
50056SOL     OW52000   5.562   7.640  14.839
50056SOL    HW152001   5.538   7.547  14.844
50056SOL    HW252002   5.614   7.647  14.759
50057SOL     OW52003   5.054  12.750   0.629
50057SOL    HW152004   5.013  12.665   0.644
50057SOL    HW252005   4.989  12.798   0.577
50058SOL     OW52006   6.654   5.114   2.959
50058SOL    HW152007   6.696   5.182   3.012
50058SOL    HW252008   6.675   5.138   2.868
50059SOL     OW52009   7.702   9.154   1.250
50059SOL    HW152010   7.664   9.187   1.331
50059SOL    HW252011   7.718   9.061   1.266
50060SOL     OW52012  12.626   0.060   3.087
50060SOL    HW152013  12.648   0.065   2.994
50060SOL    HW252014  12.598   0.149   3.109
50061SOL     OW52015  12.933  14.482   9.878
50061SOL    HW152016  12.934  14.577   9.876
50061SOL    HW252017  12.868  14.459   9.944
50062SOL     OW52018   3.957   8.184   8.122
50062SOL    HW152019   3.896   8.111   8.121
50062SOL    HW252020   4.032   8.153   8.073
50063SOL     OW52021   9.068   5.809  10.360
50063SOL    HW152022   8.978   5.819  10.330
50063SOL    HW252023   9.111   5.891  10.338
50064SOL     OW52024   4.180   8.861  10.676
50064SOL    HW152025   4.271   8.890  10.678
50064SOL    HW252026   4.162   8.830  10.765
50065SOL     OW52027   1.439  11.555  12.108
50065SOL    HW152028   1.446  11.473  12.059
50065SOL    HW252029   1.503  11.548  12.178
50066SOL     OW52030   7.089  10.497   1.133
50066SOL    HW152031   7.056  10.457   1.213
50066SOL    HW252032   7.010  10.529   1.088
50067SOL     OW52033   8.425  11.076   2.771
50067SOL    HW152034   8.442  11.127   2.692
50067SOL    HW252035   8.393  10.992   2.739
50068SOL     OW52036   5.285   3.542   5.609
50068SOL    HW152037   5.326   3.573   5.690
50068SOL    HW252038   5.298   3.613   5.547
50069SOL     OW52039   0.631  14.022  10.052
50069SOL    HW152040   0.576  13.950  10.083
50069SOL    HW252041   0.573  14.075   9.998
50070SOL     OW52042   6.940   5.119  10.518
50070SOL    HW152043   6.912   5.055  10.453
50070SOL    HW252044   7.035   5.128  10.502
50071SOL     OW52045  13.169  14.568  13.816
50071SOL    HW152046  13.196  14.584  13.907
50071SOL    HW252047  13.080  14.604  13.811
50072SOL     OW52048   4.373   3.439   4.095
50072SOL    HW152049   4.385   3.418   4.002
50072SOL    HW252050   4.300   3.384   4.123
50073SOL     OW52051   4.234   1.623   8.622
50073SOL    HW152052   4.154   1.667   8.650
50073SOL    HW252053   4.279   1.687   8.567
50074SOL     OW52054  11.936   4.954  12.541
50074SOL    HW152055  11.975   4.885  12.488
50074SOL    HW252056  11.892   4.908  12.613
50075SOL     OW52057   1.912   0.963   5.784
50075SOL    HW152058   1.826   0.972   5.743
50075SOL    HW252059   1.958   1.044   5.761
50076SOL     OW52060   1.363  13.398  11.263
50076SOL    HW152061   1.417  13.437  11.193
50076SOL    HW252062   1.408  13.423  11.344
50077SOL     OW52063   7.437   4.728  10.409
50077SOL    HW152064   7.412   4.636  10.409
50077SOL    HW252065   7.362   4.773  10.368
50078SOL     OW52066  12.886   5.756   2.208
50078SOL    HW152067  12.884   5.723   2.119
50078SOL    HW252068  12.867   5.680   2.263
50079SOL     OW52069   4.608  13.525  12.078
50079SOL    HW152070   4.622  13.475  11.998
50079SOL    HW252071   4.513  13.525  12.090
50080SOL     OW52072   8.327  13.048  11.031
50080SOL    HW152073   8.313  13.126  11.084
50080SOL    HW252074   8.255  13.047  10.969
50081SOL     OW52075  10.890   7.515  12.731
50081SOL    HW152076  10.806   7.515  12.686
50081SOL    HW252077  10.937   7.591  12.696
50082SOL     OW52078   0.191  14.789  13.397
50082SOL    HW152079   0.173  14.767  13.488
50082SOL    HW252080   0.203  14.705  13.353
50083SOL     OW52081  12.856   3.931   9.224
50083SOL    HW152082  12.950   3.935   9.239
50083SOL    HW252083  12.844   3.966   9.136
50084SOL     OW52084   1.316  11.748   8.877
50084SOL    HW152085   1.223  11.746   8.899
50084SOL    HW252086   1.319  11.787   8.790
50085SOL     OW52087   0.136   0.421   3.039
50085SOL    HW152088   0.105   0.343   2.994
50085SOL    HW252089   0.203   0.458   2.981
50086SOL     OW52090   2.045   1.171   5.686
50086SOL    HW152091   2.105   1.140   5.618
50086SOL    HW252092   2.103   1.205   5.755
50087SOL     OW52093   6.946  12.589   6.278
50087SOL    HW152094   7.037  12.614   6.292
50087SOL    HW252095   6.903  12.669   6.250
50088SOL     OW52096   5.570   7.487   3.609
50088SOL    HW152097   5.577   7.453   3.698
50088SOL    HW252098   5.550   7.410   3.555
50089SOL     OW52099  13.630  12.116  14.028
50089SOL    HW152100  13.604  12.108  13.935
50089SOL    HW252101  13.600  12.034  14.067
50090SOL     OW52102   7.776   2.555  12.627
50090SOL    HW152103   7.734   2.570  12.712
50090SOL    HW252104   7.817   2.638  12.605
50091SOL     OW52105   6.223   4.610   0.508
50091SOL    HW152106   6.135   4.619   0.471
50091SOL    HW252107   6.211   4.629   0.601
50092SOL     OW52108  10.677  14.423   9.913
50092SOL    HW152109  10.685  14.371   9.833
50092SOL    HW252110  10.585  14.416   9.937
50093SOL     OW52111   4.138  14.439   9.837
50093SOL    HW152112   4.049  14.467   9.815
50093SOL    HW252113   4.170  14.398   9.757
50094SOL     OW52114   9.953   9.945   8.595
50094SOL    HW152115  10.015   9.955   8.523
50094SOL    HW252116   9.976   9.862   8.636
50095SOL     OW52117   7.526   0.033   8.715
50095SOL    HW152118   7.586   0.002   8.647
50095SOL    HW252119   7.580   0.085   8.773
50096SOL     OW52120   0.806   4.138  11.708
50096SOL    HW152121   0.729   4.193  11.695
50096SOL    HW252122   0.867   4.166  11.639
50097SOL     OW52123   1.277  12.522   7.713
50097SOL    HW152124   1.301  12.435   7.683
50097SOL    HW252125   1.358  12.558   7.749
50098SOL     OW52126   0.323   4.858   0.480
50098SOL    HW152127   0.370   4.890   0.403
50098SOL    HW252128   0.279   4.935   0.515
50099SOL     OW52129   7.822   4.317  13.542
50099SOL    HW152130   7.845   4.408  13.523
50099SOL    HW252131   7.877   4.294  13.616
50100SOL     OW52132   7.221   6.773   7.674
50100SOL    HW152133   7.302   6.754   7.627
50100SOL    HW252134   7.155   6.785   7.605
50101SOL     OW52135   4.284  13.282   5.178
50101SOL    HW152136   4.363  13.330   5.202
50101SOL    HW252137   4.281  13.286   5.083
50102SOL     OW52138   3.709   0.072  12.361
50102SOL    HW152139   3.640   0.005  12.368
50102SOL    HW252140   3.773   0.034  12.301
50103SOL     OW52141  14.417   4.634  12.481
50103SOL    HW152142  14.480   4.608  12.549
50103SOL    HW252143  14.463   4.619  12.399
50104SOL     OW52144   2.533  11.101   9.923
50104SOL    HW152145   2.456  11.115   9.977
50104SOL    HW252146   2.562  11.012   9.946
50105SOL     OW52147  12.425   5.658   3.327
50105SOL    HW152148  12.449   5.570   3.356
50105SOL    HW252149  12.430   5.712   3.406
50106SOL     OW52150   9.897   8.533   9.760
50106SOL    HW152151   9.992   8.519   9.755
50106SOL    HW252152   9.887   8.626   9.781
50107SOL     OW52153  13.481   3.454  10.408
50107SOL    HW152154  13.428   3.374  10.402
50107SOL    HW252155  13.479   3.490  10.319
50108SOL     OW52156   3.030  12.954   4.757
50108SOL    HW152157   3.048  13.034   4.807
50108SOL    HW252158   3.114  12.909   4.753
50109SOL     OW52159   9.885  11.497   1.379
50109SOL    HW152160   9.923  11.578   1.413
50109SOL    HW252161   9.815  11.527   1.320
50110SOL     OW52162   1.997   5.557   3.003
50110SOL    HW152163   1.923   5.593   3.050
50110SOL    HW252164   1.987   5.462   3.013
50111SOL     OW52165   4.179   9.545  13.922
50111SOL    HW152166   4.107   9.532  13.984
50111SOL    HW252167   4.170   9.636  13.893
50112SOL     OW52168   5.083   5.399   6.583
50112SOL    HW152169   5.110   5.451   6.658
50112SOL    HW252170   5.127   5.439   6.508
50113SOL     OW52171   9.647   5.781  11.940
50113SOL    HW152172   9.673   5.816  11.854
50113SOL    HW252173   9.623   5.858  11.991
50114SOL     OW52174  11.476   4.558  12.351
50114SOL    HW152175  11.414   4.574  12.423
50114SOL    HW252176  11.561   4.578  12.389
50115SOL     OW52177   6.429   9.922   5.326
50115SOL    HW152178   6.334   9.936   5.331
50115SOL    HW252179   6.439   9.828   5.316
50116SOL     OW52180  10.200   7.898   3.234
50116SOL    HW152181  10.273   7.904   3.295
50116SOL    HW252182  10.136   7.841   3.278
50117SOL     OW52183   5.743   0.078  10.198
50117SOL    HW152184   5.773   0.167  10.221
50117SOL    HW252185   5.656   0.072  10.236
50118SOL     OW52186   7.026   8.294  10.986
50118SOL    HW152187   7.020   8.389  10.974
50118SOL    HW252188   7.013   8.280  11.079
50119SOL     OW52189   1.583   3.718   1.347
50119SOL    HW152190   1.629   3.765   1.278
50119SOL    HW252191   1.609   3.627   1.336
50120SOL     OW52192   6.141   5.140  13.309
50120SOL    HW152193   6.159   5.056  13.351
50120SOL    HW252194   6.138   5.202  13.382
50121SOL     OW52195  12.158   4.042  11.120
50121SOL    HW152196  12.088   4.006  11.175
50121SOL    HW252197  12.238   4.030  11.172
50122SOL     OW52198  12.616   6.388  11.211
50122SOL    HW152199  12.689   6.444  11.184
50122SOL    HW252200  12.581   6.354  11.129
50123SOL     OW52201  12.615   3.148  14.597
50123SOL    HW152202  12.695   3.120  14.642
50123SOL    HW252203  12.582   3.069  14.555
50124SOL     OW52204   9.214   6.767   6.121
50124SOL    HW152205   9.186   6.717   6.198
50124SOL    HW252206   9.206   6.705   6.048
50125SOL     OW52207   3.822   5.825  10.790
50125SOL    HW152208   3.882   5.773  10.843
50125SOL    HW252209   3.765   5.762  10.747
50126SOL     OW52210  14.519  13.441  11.204
50126SOL    HW152211  14.551  13.384  11.273
50126SOL    HW252212  14.425  13.448  11.220
50127SOL     OW52213   7.088   5.276   6.834
50127SOL    HW152214   6.994   5.285   6.847
50127SOL    HW252215   7.122   5.250   6.920
50128SOL     OW52216   5.905   4.905  10.484
50128SOL    HW152217   5.843   4.910  10.411
50128SOL    HW252218   5.890   4.820  10.524
50129SOL     OW52219  11.128   8.250  11.624
50129SOL    HW152220  11.178   8.207  11.693
50129SOL    HW252221  11.040   8.211  11.631
50130SOL     OW52222   5.150   8.832   1.951
50130SOL    HW152223   5.135   8.906   1.893
50130SOL    HW252224   5.153   8.756   1.893
50131SOL     OW52225   6.575   3.335  14.347
50131SOL    HW152226   6.538   3.330  14.259
50131SOL    HW252227   6.512   3.289  14.403
50132SOL     OW52228   0.001   6.262  10.733
50132SOL    HW152229  14.857   6.205  10.658
50132SOL    HW252230  14.813   6.335  10.723
50133SOL     OW52231   1.112   4.172   6.983
50133SOL    HW152232   1.178   4.160   7.052
50133SOL    HW252233   1.101   4.267   6.976
50134SOL     OW52234   5.248   6.286   9.597
50134SOL    HW152235   5.227   6.247   9.512
50134SOL    HW252236   5.186   6.358   9.606
50135SOL     OW52237   4.074  14.789  12.872
50135SOL    HW152238   4.002  14.745  12.825
50135SOL    HW252239   4.080   0.002  12.830
50136SOL     OW52240   2.171   0.337   8.355
50136SOL    HW152241   2.250   0.384   8.381
50136SOL    HW252242   2.191   0.245   8.370
50137SOL     OW52243  11.053  13.133   9.736
50137SOL    HW152244  11.071  13.225   9.751
50137SOL    HW252245  11.064  13.121   9.642
50138SOL     OW52246   9.735   4.173   6.624
50138SOL    HW152247   9.765   4.098   6.572
50138SOL    HW252248   9.650   4.195   6.587
50139SOL     OW52249   6.134   8.906  14.503
50139SOL    HW152250   6.079   8.841  14.458
50139SOL    HW252251   6.087   8.989  14.492
50140SOL     OW52252  14.328   9.576  10.980
50140SOL    HW152253  14.286   9.490  10.975
50140SOL    HW252254  14.261   9.637  10.947
50141SOL     OW52255   6.603   7.777  12.252
50141SOL    HW152256   6.564   7.786  12.339
50141SOL    HW252257   6.578   7.857  12.206
50142SOL     OW52258  10.906   1.217   1.114
50142SOL    HW152259  10.973   1.151   1.098
50142SOL    HW252260  10.929   1.289   1.054
50143SOL     OW52261  10.567   6.259   7.585
50143SOL    HW152262  10.523   6.321   7.526
50143SOL    HW252263  10.535   6.282   7.672
50144SOL     OW52264   0.524   8.613   3.450
50144SOL    HW152265   0.551   8.535   3.403
50144SOL    HW252266   0.491   8.581   3.534
50145SOL     OW52267  14.849   1.559   1.525
50145SOL    HW152268  14.770   1.561   1.579
50145SOL    HW252269   0.038   1.616   1.571
50146SOL     OW52270   8.682   3.618   7.715
50146SOL    HW152271   8.604   3.646   7.667
50146SOL    HW252272   8.745   3.595   7.646
50147SOL     OW52273   1.116  13.384   6.722
50147SOL    HW152274   1.062  13.316   6.683
50147SOL    HW252275   1.202  13.374   6.680
50148SOL     OW52276  12.189  12.437   7.947
50148SOL    HW152277  12.260  12.407   7.890
50148SOL    HW252278  12.178  12.530   7.925
50149SOL     OW52279   6.624   0.381   1.921
50149SOL    HW152280   6.676   0.428   1.986
50149SOL    HW252281   6.670   0.298   1.908
50150SOL     OW52282  12.962   9.762   4.971
50150SOL    HW152283  12.890   9.744   5.031
50150SOL    HW252284  12.919   9.774   4.886
50151SOL     OW52285  12.708   1.406   9.637
50151SOL    HW152286  12.695   1.355   9.717
50151SOL    HW252287  12.754   1.346   9.578
50152SOL     OW52288  13.614  11.876   2.914
50152SOL    HW152289  13.586  11.960   2.878
50152SOL    HW252290  13.689  11.897   2.969
50153SOL     OW52291   6.369  12.102  12.863
50153SOL    HW152292   6.449  12.141  12.899
50153SOL    HW252293   6.298  12.142  12.912
50154SOL     OW52294   4.836  13.549   7.186
50154SOL    HW152295   4.765  13.614   7.187
50154SOL    HW252296   4.884  13.565   7.267
50155SOL     OW52297   7.058   7.532  11.146
50155SOL    HW152298   7.021   7.611  11.108
50155SOL    HW252299   7.153   7.543  11.137
50156SOL     OW52300   9.150  13.317  12.343
50156SOL    HW152301   9.072  13.266  12.365
50156SOL    HW252302   9.189  13.271  12.269
50157SOL     OW52303   1.393   4.154   3.851
50157SOL    HW152304   1.404   4.249   3.859
50157SOL    HW252305   1.473   4.118   3.889
50158SOL     OW52306   4.596  13.489   0.831
50158SOL    HW152307   4.601  13.555   0.762
50158SOL    HW252308   4.648  13.525   0.903
50159SOL     OW52309   2.105  12.838  10.367
50159SOL    HW152310   2.136  12.761  10.415
50159SOL    HW252311   2.015  12.816  10.343
50160SOL     OW52312  13.275  12.632  11.605
50160SOL    HW152313  13.335  12.696  11.568
50160SOL    HW252314  13.241  12.674  11.684
50161SOL     OW52315   7.256   5.264   7.069
50161SOL    HW152316   7.330   5.251   7.010
50161SOL    HW252317   7.235   5.176   7.101
50162SOL     OW52318   7.977  11.294   1.089
50162SOL    HW152319   8.066  11.269   1.066
50162SOL    HW252320   7.931  11.300   1.006
50163SOL     OW52321  11.067   0.883   9.128
50163SOL    HW152322  11.027   0.970   9.122
50163SOL    HW252323  11.034   0.847   9.210
50164SOL     OW52324  14.844   9.700   4.584
50164SOL    HW152325  14.794   9.624   4.614
50164SOL    HW252326  14.839   9.762   4.657
50165SOL     OW52327   6.100   8.062   6.770
50165SOL    HW152328   6.174   8.118   6.748
50165SOL    HW252329   6.094   8.066   6.865
50166SOL     OW52330   0.086  13.138   7.834
50166SOL    HW152331   0.110  13.062   7.780
50166SOL    HW252332   0.019  13.104   7.893
50167SOL     OW52333   1.466  14.120   9.421
50167SOL    HW152334   1.421  14.037   9.434
50167SOL    HW252335   1.436  14.176   9.492
50168SOL     OW52336   0.335   2.933   1.559
50168SOL    HW152337   0.411   2.948   1.503
50168SOL    HW252338   0.354   2.983   1.639
50169SOL     OW52339  14.586   3.386  11.443
50169SOL    HW152340  14.551   3.447  11.508
50169SOL    HW252341  14.559   3.422  11.359
50170SOL     OW52342  11.065  11.862  10.072
50170SOL    HW152343  11.118  11.942  10.068
50170SOL    HW252344  11.094  11.810   9.997
50171SOL     OW52345   7.869   3.205  12.973
50171SOL    HW152346   7.861   3.112  12.996
50171SOL    HW252347   7.852   3.252  13.054
50172SOL     OW52348  14.854  10.389  10.600
50172SOL    HW152349   0.062  10.436  10.623
50172SOL    HW252350  14.833  10.340  10.680
50173SOL     OW52351   4.825   8.591  10.259
50173SOL    HW152352   4.746   8.539  10.245
50173SOL    HW252353   4.797   8.665  10.313
50174SOL     OW52354   8.519  12.276   9.095
50174SOL    HW152355   8.490  12.195   9.137
50174SOL    HW252356   8.440  12.331   9.093
50175SOL     OW52357  14.747   0.467   7.088
50175SOL    HW152358  14.701   0.383   7.082
50175SOL    HW252359  14.765   0.479   7.181
50176SOL     OW52360   3.609  14.394   0.178
50176SOL    HW152361   3.660  14.314   0.190
50176SOL    HW252362   3.610  14.437   0.263
50177SOL     OW52363   9.974   6.140  11.318
50177SOL    HW152364   9.939   6.186  11.242
50177SOL    HW252365  10.004   6.056  11.284
50178SOL     OW52366  13.979   3.510   4.037
50178SOL    HW152367  14.031   3.590   4.031
50178SOL    HW252368  14.041   3.439   4.017
50179SOL     OW52369  11.436   6.006   0.051
50179SOL    HW152370  11.429   6.040  14.834
50179SOL    HW252371  11.518   5.956   0.051
50180SOL     OW52372  13.875  14.646   7.058
50180SOL    HW152373  13.834  14.699   6.989
50180SOL    HW252374  13.884  14.706   7.132
50181SOL     OW52375   3.952   1.878   6.244
50181SOL    HW152376   3.868   1.873   6.290
50181SOL    HW252377   3.943   1.955   6.187
50182SOL     OW52378   7.929   9.262  14.125
50182SOL    HW152379   7.928   9.308  14.209
50182SOL    HW252380   7.902   9.172  14.147
50183SOL     OW52381   3.396  10.073  11.794
50183SOL    HW152382   3.460  10.027  11.848
50183SOL    HW252383   3.316  10.074  11.846
50184SOL     OW52384  14.417  12.355  12.236
50184SOL    HW152385  14.429  12.299  12.313
50184SOL    HW252386  14.433  12.297  12.161
50185SOL     OW52387   2.634  13.438   7.437
50185SOL    HW152388   2.596  13.503   7.496
50185SOL    HW252389   2.590  13.453   7.354
50186SOL     OW52390  11.312   7.633   6.253
50186SOL    HW152391  11.356   7.718   6.245
50186SOL    HW252392  11.329   7.605   6.343
50187SOL     OW52393   3.493  14.672   2.754
50187SOL    HW152394   3.476  14.688   2.847
50187SOL    HW252395   3.424  14.612   2.727
50188SOL     OW52396   9.222  10.594   3.991
50188SOL    HW152397   9.148  10.582   4.050
50188SOL    HW252398   9.217  10.686   3.965
50189SOL     OW52399  14.065   9.206   6.273
50189SOL    HW152400  14.061   9.121   6.318
50189SOL    HW252401  14.078   9.270   6.343
50190SOL     OW52402   9.101  13.259  13.825
50190SOL    HW152403   9.170  13.295  13.769
50190SOL    HW252404   9.022  13.308  13.800
50191SOL     OW52405  14.649   4.949  13.973
50191SOL    HW152406  14.590   5.021  13.948
50191SOL    HW252407  14.724   4.958  13.915
50192SOL     OW52408   2.254   4.674   7.768
50192SOL    HW152409   2.244   4.597   7.711
50192SOL    HW252410   2.180   4.730   7.745
50193SOL     OW52411   0.015   7.656  14.133
50193SOL    HW152412   0.049   7.742  14.109
50193SOL    HW252413   0.078   7.623  14.197
50194SOL     OW52414  14.273   9.881   3.056
50194SOL    HW152415  14.352   9.930   3.034
50194SOL    HW252416  14.292   9.791   3.030
50195SOL     OW52417   4.201   1.908   8.824
50195SOL    HW152418   4.255   1.878   8.897
50195SOL    HW252419   4.260   1.962   8.771
50196SOL     OW52420   6.505   0.161  14.301
50196SOL    HW152421   6.467   0.084  14.343
50196SOL    HW252422   6.596   0.163  14.332
50197SOL     OW52423   9.589   3.878   7.360
50197SOL    HW152424   9.574   3.938   7.287
50197SOL    HW252425   9.564   3.792   7.326
50198SOL     OW52426   0.356  11.453   6.812
50198SOL    HW152427   0.380  11.411   6.894
50198SOL    HW252428   0.436  11.496   6.783
50199SOL     OW52429   9.851  13.257   9.769
50199SOL    HW152430   9.892  13.171   9.758
50199SOL    HW252431   9.912  13.318   9.727
50200SOL     OW52432   3.243   0.511   3.622
50200SOL    HW152433   3.266   0.576   3.688
50200SOL    HW252434   3.157   0.537   3.590
50201SOL     OW52435   4.214  11.663   6.736
50201SOL    HW152436   4.299  11.704   6.721
50201SOL    HW252437   4.157  11.702   6.669
50202SOL     OW52438  13.198   8.847   2.871
50202SOL    HW152439  13.189   8.861   2.776
50202SOL    HW252440  13.230   8.757   2.879
50203SOL     OW52441   1.698   9.203   1.609
50203SOL    HW152442   1.658   9.290   1.616
50203SOL    HW252443   1.774   9.207   1.667
50204SOL     OW52444  13.579   8.636   3.960
50204SOL    HW152445  13.513   8.675   3.903
50204SOL    HW252446  13.541   8.554   3.989
50205SOL     OW52447   7.895   0.343   2.865
50205SOL    HW152448   7.974   0.329   2.813
50205SOL    HW252449   7.875   0.256   2.901
50206SOL     OW52450   6.538   8.346  13.767
50206SOL    HW152451   6.519   8.307  13.682
50206SOL    HW252452   6.571   8.274  13.820
50207SOL     OW52453  10.898   6.679   4.524
50207SOL    HW152454  10.836   6.667   4.595
50207SOL    HW252455  10.880   6.767   4.490
50208SOL     OW52456   4.730   8.487  13.191
50208SOL    HW152457   4.808   8.517  13.145
50208SOL    HW252458   4.677   8.445  13.123
50209SOL     OW52459  10.301   7.126   1.485
50209SOL    HW152460  10.261   7.047   1.447
50209SOL    HW252461  10.235   7.160   1.545
50210SOL     OW52462   7.840   0.150   8.119
50210SOL    HW152463   7.925   0.192   8.136
50210SOL    HW252464   7.856   0.057   8.135
50211SOL     OW52465   7.367  11.644   1.210
50211SOL    HW152466   7.404  11.562   1.242
50211SOL    HW252467   7.433  11.711   1.231
50212SOL     OW52468  12.277   2.983   0.248
50212SOL    HW152469  12.363   2.949   0.274
50212SOL    HW252470  12.280   2.983   0.152
50213SOL     OW52471   2.463  12.912  13.000
50213SOL    HW152472   2.504  12.996  13.019
50213SOL    HW252473   2.535  12.854  12.977
50214SOL     OW52474   2.473  13.281  12.007
50214SOL    HW152475   2.411  13.208  12.003
50214SOL    HW252476   2.544  13.254  11.949
50215SOL     OW52477  11.845   9.751   5.804
50215SOL    HW152478  11.771   9.795   5.846
50215SOL    HW252479  11.874   9.812   5.736
50216SOL     OW52480  14.425  10.873   0.720
50216SOL    HW152481  14.464  10.791   0.749
50216SOL    HW252482  14.498  10.925   0.687
50217SOL     OW52483  11.596   8.742   8.770
50217SOL    HW152484  11.583   8.821   8.823
50217SOL    HW252485  11.585   8.669   8.832
50218SOL     OW52486   6.400  10.828   1.763
50218SOL    HW152487   6.495  10.838   1.771
50218SOL    HW252488   6.373  10.792   1.848
50219SOL     OW52489   1.713  10.249   8.876
50219SOL    HW152490   1.664  10.332   8.878
50219SOL    HW252491   1.788  10.264   8.934
50220SOL     OW52492   5.188   2.944   0.722
50220SOL    HW152493   5.161   2.861   0.684
50220SOL    HW252494   5.106   2.994   0.730
50221SOL     OW52495   4.242   2.607   0.276
50221SOL    HW152496   4.266   2.652   0.195
50221SOL    HW252497   4.193   2.530   0.247
50222SOL     OW52498   1.867   8.237  10.901
50222SOL    HW152499   1.791   8.288  10.872
50222SOL    HW252500   1.924   8.301  10.944
50223SOL     OW52501   3.648   9.194   3.425
50223SOL    HW152502   3.622   9.179   3.334
50223SOL    HW252503   3.729   9.244   3.419
50224SOL     OW52504   9.804  13.036   2.443
50224SOL    HW152505   9.779  13.098   2.511
50224SOL    HW252506   9.791  12.950   2.481
50225SOL     OW52507   1.761  13.734   5.033
50225SOL    HW152508   1.748  13.786   5.113
50225SOL    HW252509   1.854  13.714   5.031
50226SOL     OW52510   5.180   5.834   4.825
50226SOL    HW152511   5.140   5.818   4.910
50226SOL    HW252512   5.168   5.928   4.810
50227SOL     OW52513   2.244   9.218  12.285
50227SOL    HW152514   2.298   9.140  12.282
50227SOL    HW252515   2.165   9.195  12.236
50228SOL     OW52516   5.625   5.333   5.003
50228SOL    HW152517   5.552   5.272   4.995
50228SOL    HW252518   5.641   5.339   5.097
50229SOL     OW52519   4.025   3.375   6.299
50229SOL    HW152520   3.999   3.290   6.336
50229SOL    HW252521   4.068   3.354   6.217
50230SOL     OW52522   7.476   1.303  11.576
50230SOL    HW152523   7.407   1.248  11.538
50230SOL    HW252524   7.526   1.335  11.501
50231SOL     OW52525  13.831   9.492   3.820
50231SOL    HW152526  13.841   9.533   3.734
50231SOL    HW252527  13.752   9.532   3.856
50232SOL     OW52528   3.634  12.264   0.879
50232SOL    HW152529   3.668  12.342   0.923
50232SOL    HW252530   3.711  12.225   0.838
50233SOL     OW52531  11.265  13.284   7.180
50233SOL    HW152532  11.239  13.206   7.229
50233SOL    HW252533  11.256  13.260   7.088
50234SOL     OW52534   4.159   4.113   3.805
50234SOL    HW152535   4.160   4.019   3.789
50234SOL    HW252536   4.146   4.122   3.900
50235SOL     OW52537   6.496   5.417   4.902
50235SOL    HW152538   6.408   5.410   4.867
50235SOL    HW252539   6.534   5.330   4.893
50236SOL     OW52540   6.642   6.161  13.812
50236SOL    HW152541   6.589   6.084  13.835
50236SOL    HW252542   6.617   6.227  13.877
50237SOL     OW52543   9.492   5.619   2.139
50237SOL    HW152544   9.462   5.663   2.218
50237SOL    HW252545   9.422   5.634   2.075
50238SOL     OW52546   0.851   5.756  13.141
50238SOL    HW152547   0.943   5.780  13.142
50238SOL    HW252548   0.806   5.832  13.179
50239SOL     OW52549   9.983  10.770   0.555
50239SOL    HW152550   9.924  10.715   0.503
50239SOL    HW252551   9.960  10.860   0.529
50240SOL     OW52552   2.503  11.618   3.783
50240SOL    HW152553   2.531  11.706   3.760
50240SOL    HW252554   2.413  11.628   3.814
50241SOL     OW52555   9.518   1.265  14.797
50241SOL    HW152556   9.450   1.306  14.745
50241SOL    HW252557   9.587   1.330  14.802
50242SOL     OW52558   5.820   4.720  11.243
50242SOL    HW152559   5.862   4.709  11.157
50242SOL    HW252560   5.761   4.644  11.250
50243SOL     OW52561   1.142   7.119   5.313
50243SOL    HW152562   1.185   7.172   5.246
50243SOL    HW252563   1.117   7.182   5.381
50244SOL     OW52564   7.679  10.429   3.154
50244SOL    HW152565   7.583  10.432   3.154
50244SOL    HW252566   7.705  10.518   3.176
50245SOL     OW52567   5.488   8.197  11.661
50245SOL    HW152568   5.563   8.155  11.703
50245SOL    HW252569   5.507   8.291  11.666
50246SOL     OW52570  11.242   6.286   5.636
50246SOL    HW152571  11.316   6.250   5.588
50246SOL    HW252572  11.164   6.258   5.587
50247SOL     OW52573   1.736   2.212   9.283
50247SOL    HW152574   1.683   2.278   9.239
50247SOL    HW252575   1.684   2.186   9.359
50248SOL     OW52576   1.071   1.638   6.171
50248SOL    HW152577   1.132   1.694   6.123
50248SOL    HW252578   0.996   1.695   6.190
50249SOL     OW52579   1.092   4.006   8.914
50249SOL    HW152580   1.094   3.995   8.819
50249SOL    HW252581   1.119   4.097   8.927
50250SOL     OW52582   0.051  10.584  12.605
50250SOL    HW152583  14.847  10.631  12.640
50250SOL    HW252584   0.105  10.565  12.682
50251SOL     OW52585  12.849   5.636  10.018
50251SOL    HW152586  12.795   5.695  10.071
50251SOL    HW252587  12.938   5.652  10.048
50252SOL     OW52588  11.763   0.321   1.262
50252SOL    HW152589  11.724   0.282   1.341
50252SOL    HW252590  11.790   0.408   1.289
50253SOL     OW52591  13.040   4.552  12.885
50253SOL    HW152592  12.995   4.468  12.892
50253SOL    HW252593  12.973   4.613  12.855
50254SOL     OW52594  10.245  10.437   2.160
50254SOL    HW152595  10.233  10.516   2.108
50254SOL    HW252596  10.337  10.440   2.188
50255SOL     OW52597   4.088  13.722  10.286
50255SOL    HW152598   4.125  13.805  10.256
50255SOL    HW252599   3.994  13.738  10.291
50256SOL     OW52600  11.295   0.802  12.198
50256SOL    HW152601  11.308   0.893  12.170
50256SOL    HW252602  11.304   0.804  12.293
50257SOL     OW52603   5.461  10.503   6.630
50257SOL    HW152604   5.548  10.494   6.591
50257SOL    HW252605   5.459  10.593   6.663
50258SOL     OW52606   3.535   2.964   1.464
50258SOL    HW152607   3.597   2.918   1.407
50258SOL    HW252608   3.491   2.894   1.512
50259SOL     OW52609   6.661  10.195   1.266
50259SOL    HW152610   6.581  10.241   1.292
50259SOL    HW252611   6.648  10.177   1.172
50260SOL     OW52612   5.399   3.606   7.622
50260SOL    HW152613   5.328   3.568   7.570
50260SOL    HW252614   5.452   3.654   7.558
50261SOL     OW52615  12.828   9.078  13.071
50261SOL    HW152616  12.762   9.057  13.005
50261SOL    HW252617  12.891   9.006  13.066
50262SOL     OW52618   2.442   5.599   0.069
50262SOL    HW152619   2.489   5.520   0.043
50262SOL    HW252620   2.411   5.636  14.860
50263SOL     OW52621   5.057  11.788  10.823
50263SOL    HW152622   5.149  11.800  10.848
50263SOL    HW252623   5.055  11.801  10.729
50264SOL     OW52624   8.591   3.822   7.977
50264SOL    HW152625   8.569   3.868   7.896
50264SOL    HW252626   8.623   3.890   8.036
50265SOL     OW52627   9.468   5.562  14.386
50265SOL    HW152628   9.539   5.565  14.322
50265SOL    HW252629   9.512   5.570  14.471
50266SOL     OW52630   6.370   4.543   5.028
50266SOL    HW152631   6.398   4.536   5.119
50266SOL    HW252632   6.383   4.635   5.006
50267SOL     OW52633   0.566   2.896   0.197
50267SOL    HW152634   0.498   2.910   0.132
50267SOL    HW252635   0.558   2.971   0.256
50268SOL     OW52636   4.020   1.705   8.776
50268SOL    HW152637   4.066   1.788   8.788
50268SOL    HW252638   3.952   1.705   8.844
50269SOL     OW52639  13.362   0.974   0.140
50269SOL    HW152640  13.431   0.910   0.126
50269SOL    HW252641  13.408   1.054   0.166
50270SOL     OW52642  11.402  13.806   3.806
50270SOL    HW152643  11.320  13.769   3.839
50270SOL    HW252644  11.403  13.896   3.839
50271SOL     OW52645   8.208  10.682   8.063
50271SOL    HW152646   8.176  10.749   8.123
50271SOL    HW252647   8.139  10.615   8.064
50272SOL     OW52648   8.633   7.264  10.548
50272SOL    HW152649   8.719   7.295  10.520
50272SOL    HW252650   8.645   7.170  10.563
50273SOL     OW52651  13.230  13.458   8.054
50273SOL    HW152652  13.135  13.460   8.038
50273SOL    HW252653  13.250  13.366   8.071
50274SOL     OW52654   6.954  11.873   2.271
50274SOL    HW152655   6.967  11.936   2.201
50274SOL    HW252656   6.928  11.926   2.346
50275SOL     OW52657   0.673  11.596   0.320
50275SOL    HW152658   0.755  11.642   0.300
50275SOL    HW252659   0.651  11.551   0.239
50276SOL     OW52660   5.272   2.871  13.758
50276SOL    HW152661   5.348   2.838  13.710
50276SOL    HW252662   5.197   2.844  13.705
50277SOL     OW52663  14.817   0.476   5.436
50277SOL    HW152664   0.017   0.415   5.424
50277SOL    HW252665  14.784   0.457   5.524
50278SOL     OW52666   1.911  13.816   3.013
50278SOL    HW152667   1.903  13.893   2.957
50278SOL    HW252668   1.992  13.773   2.984
50279SOL     OW52669   6.645   1.849  14.266
50279SOL    HW152670   6.556   1.837  14.298
50279SOL    HW252671   6.636   1.905  14.189
50280SOL     OW52672   4.312   0.897   2.644
50280SOL    HW152673   4.340   0.812   2.679
50280SOL    HW252674   4.341   0.961   2.709
50281SOL     OW52675   9.959  11.080  11.706
50281SOL    HW152676   9.923  11.167  11.723
50281SOL    HW252677   9.883  11.026  11.683
50282SOL     OW52678   4.614   1.259   9.451
50282SOL    HW152679   4.656   1.191   9.397
50282SOL    HW252680   4.529   1.273   9.409
50283SOL     OW52681   6.271  13.491   2.525
50283SOL    HW152682   6.221  13.419   2.563
50283SOL    HW252683   6.217  13.521   2.451
50284SOL     OW52684   5.583   4.361   4.994
50284SOL    HW152685   5.528   4.403   5.060
50284SOL    HW252686   5.639   4.301   5.044
50285SOL     OW52687  10.512  13.056   7.971
50285SOL    HW152688  10.535  12.989   8.036
50285SOL    HW252689  10.421  13.036   7.948
50286SOL     OW52690   7.321  14.673  13.204
50286SOL    HW152691   7.237  14.716  13.218
50286SOL    HW252692   7.298  14.589  13.164
50287SOL     OW52693   3.875  13.391  14.645
50287SOL    HW152694   3.970  13.379  14.650
50287SOL    HW252695   3.839  13.306  14.672
50288SOL     OW52696  11.095   7.960   2.696
50288SOL    HW152697  11.164   7.899   2.721
50288SOL    HW252698  11.059   7.991   2.780
50289SOL     OW52699   1.072  12.284   7.157
50289SOL    HW152700   1.030  12.367   7.183
50289SOL    HW252701   1.097  12.243   7.240
50290SOL     OW52702   0.970   6.125  10.558
50290SOL    HW152703   1.035   6.187  10.592
50290SOL    HW252704   0.936   6.081  10.636
50291SOL     OW52705   9.820   8.889   5.181
50291SOL    HW152706   9.759   8.857   5.248
50291SOL    HW252707   9.789   8.978   5.162
50292SOL     OW52708  13.794  13.294   2.957
50292SOL    HW152709  13.837  13.350   3.022
50292SOL    HW252710  13.800  13.206   2.994
50293SOL     OW52711   6.371  12.367   3.866
50293SOL    HW152712   6.332  12.423   3.933
50293SOL    HW252713   6.297  12.320   3.829
50294SOL     OW52714   5.283   0.467  13.907
50294SOL    HW152715   5.282   0.545  13.851
50294SOL    HW252716   5.268   0.500  13.995
50295SOL     OW52717   7.207   0.651   5.968
50295SOL    HW152718   7.192   0.557   5.956
50295SOL    HW252719   7.237   0.682   5.883
50296SOL     OW52720  13.573   7.095   8.333
50296SOL    HW152721  13.562   7.003   8.311
50296SOL    HW252722  13.505   7.141   8.283
50297SOL     OW52723  12.367   7.665   8.869
50297SOL    HW152724  12.347   7.587   8.817
50297SOL    HW252725  12.287   7.717   8.866
50298SOL     OW52726  13.877  12.735   6.045
50298SOL    HW152727  13.929  12.753   5.966
50298SOL    HW252728  13.893  12.810   6.102
50299SOL     OW52729   3.439   4.806  10.834
50299SOL    HW152730   3.383   4.882  10.849
50299SOL    HW252731   3.512   4.839  10.783
50300SOL     OW52732   2.210   3.378  14.472
50300SOL    HW152733   2.210   3.468  14.505
50300SOL    HW252734   2.117   3.358  14.460
50301SOL     OW52735   3.943   5.052   8.941
50301SOL    HW152736   4.024   5.002   8.929
50301SOL    HW252737   3.965   5.115   9.010
50302SOL     OW52738   3.705   0.247   4.255
50302SOL    HW152739   3.677   0.296   4.332
50302SOL    HW252740   3.783   0.293   4.224
50303SOL     OW52741   8.734   8.351   0.282
50303SOL    HW152742   8.725   8.349   0.187
50303SOL    HW252743   8.648   8.323   0.315
50304SOL     OW52744   5.881   8.482  11.738
50304SOL    HW152745   5.789   8.502  11.754
50304SOL    HW252746   5.898   8.512  11.649
50305SOL     OW52747   4.371  11.624   7.292
50305SOL    HW152748   4.450  11.592   7.247
50305SOL    HW252749   4.324  11.673   7.224
50306SOL     OW52750   7.930   9.829  13.202
50306SOL    HW152751   7.964   9.787  13.282
50306SOL    HW252752   7.931   9.760  13.136
50307SOL     OW52753   7.818   8.199  13.260
50307SOL    HW152754   7.766   8.215  13.338
50307SOL    HW252755   7.768   8.240  13.189
50308SOL     OW52756   3.668   4.114  10.381
50308SOL    HW152757   3.721   4.151  10.310
50308SOL    HW252758   3.682   4.020  10.375
50309SOL     OW52759   9.316   0.790   0.980
50309SOL    HW152760   9.232   0.767   1.020
50309SOL    HW252761   9.377   0.725   1.015
50310SOL     OW52762   8.336   2.898   0.221
50310SOL    HW152763   8.383   2.880   0.302
50310SOL    HW252764   8.253   2.938   0.249
50311SOL     OW52765   7.848  12.413   9.919
50311SOL    HW152766   7.894  12.482   9.871
50311SOL    HW252767   7.916  12.369   9.969
50312SOL     OW52768  10.412   4.980   9.598
50312SOL    HW152769  10.371   5.047   9.653
50312SOL    HW252770  10.483   4.945   9.652
50313SOL     OW52771   7.942  12.549  11.105
50313SOL    HW152772   7.923  12.546  11.011
50313SOL    HW252773   7.933  12.458  11.134
50314SOL     OW52774   4.801  10.585   8.867
50314SOL    HW152775   4.836  10.588   8.956
50314SOL    HW252776   4.784  10.677   8.844
50315SOL     OW52777   5.036   6.306   1.965
50315SOL    HW152778   5.002   6.395   1.965
50315SOL    HW252779   5.104   6.306   1.898
50316SOL     OW52780  12.269   6.662  11.853
50316SOL    HW152781  12.178   6.630  11.851
50316SOL    HW252782  12.312   6.609  11.920
50317SOL     OW52783  14.320   9.446   8.956
50317SOL    HW152784  14.282   9.405   9.033
50317SOL    HW252785  14.410   9.414   8.953
50318SOL     OW52786   6.641   6.464  13.349
50318SOL    HW152787   6.732   6.491  13.339
50318SOL    HW252788   6.590   6.532  13.304
50319SOL     OW52789   8.247   1.430   6.917
50319SOL    HW152790   8.257   1.353   6.861
50319SOL    HW252791   8.280   1.502   6.863
50320SOL     OW52792   5.329   7.101   5.780
50320SOL    HW152793   5.345   7.190   5.748
50320SOL    HW252794   5.378   7.095   5.862
50321SOL     OW52795   9.010  13.339  10.268
50321SOL    HW152796   9.008  13.266  10.329
50321SOL    HW252797   8.995  13.416  10.322
50322SOL     OW52798   6.163  14.499   9.187
50322SOL    HW152799   6.231  14.564   9.172
50322SOL    HW252800   6.081  14.548   9.178
50323SOL     OW52801  14.287   5.095   6.042
50323SOL    HW152802  14.371   5.139   6.056
50323SOL    HW252803  14.222   5.162   6.062
50324SOL     OW52804   4.190   3.391   2.993
50324SOL    HW152805   4.144   3.308   3.003
50324SOL    HW252806   4.246   3.379   2.916
50325SOL     OW52807   9.384  14.262  12.212
50325SOL    HW152808   9.454  14.318  12.245
50325SOL    HW252809   9.426  14.208  12.145
50326SOL     OW52810  12.031   4.041   6.899
50326SOL    HW152811  12.115   4.066   6.937
50326SOL    HW252812  11.982   4.123   6.890
50327SOL     OW52813  12.545  11.110   5.295
50327SOL    HW152814  12.621  11.076   5.249
50327SOL    HW252815  12.511  11.036   5.345
50328SOL     OW52816  12.240  10.639  14.797
50328SOL    HW152817  12.200  10.559  14.832
50328SOL    HW252818  12.185  10.710  14.831
50329SOL     OW52819  14.101  13.984   4.552
50329SOL    HW152820  14.124  13.927   4.625
50329SOL    HW252821  14.041  13.931   4.499
50330SOL     OW52822   7.358   8.877   6.488
50330SOL    HW152823   7.398   8.927   6.418
50330SOL    HW252824   7.431   8.850   6.544
50331SOL     OW52825   4.180   3.192   5.787
50331SOL    HW152826   4.102   3.192   5.731
50331SOL    HW252827   4.213   3.281   5.783
50332SOL     OW52828   2.697   4.681   6.879
50332SOL    HW152829   2.644   4.760   6.889
50332SOL    HW252830   2.654   4.632   6.808
50333SOL     OW52831   8.789  12.878  14.448
50333SOL    HW152832   8.725  12.946  14.425
50333SOL    HW252833   8.757  12.842  14.530
50334SOL     OW52834  10.781   6.166  10.714
50334SOL    HW152835  10.739   6.142  10.631
50334SOL    HW252836  10.807   6.258  10.701
50335SOL     OW52837   5.543   3.704   4.574
50335SOL    HW152838   5.480   3.673   4.639
50335SOL    HW252839   5.491   3.755   4.512
50336SOL     OW52840   6.563   2.437   9.333
50336SOL    HW152841   6.555   2.493   9.256
50336SOL    HW252842   6.566   2.348   9.298
50337SOL     OW52843  14.381   5.536   0.248
50337SOL    HW152844  14.362   5.524   0.155
50337SOL    HW252845  14.471   5.569   0.249
50338SOL     OW52846   8.795  11.208   9.440
50338SOL    HW152847   8.836  11.192   9.526
50338SOL    HW252848   8.701  11.200   9.458
50339SOL     OW52849   2.419   8.698   3.521
50339SOL    HW152850   2.459   8.719   3.605
50339SOL    HW252851   2.410   8.603   3.522
50340SOL     OW52852  10.427  11.439  10.699
50340SOL    HW152853  10.427  11.534  10.686
50340SOL    HW252854  10.335  11.415  10.706
50341SOL     OW52855   5.107   4.363  11.703
50341SOL    HW152856   5.031   4.325  11.747
50341SOL    HW252857   5.180   4.346  11.762
50342SOL     OW52858  10.907   4.894   0.140
50342SOL    HW152859  10.993   4.927   0.116
50342SOL    HW252860  10.925   4.813   0.188
50343SOL     OW52861   3.596   9.143   4.044
50343SOL    HW152862   3.657   9.194   4.097
50343SOL    HW252863   3.634   9.145   3.956
50344SOL     OW52864  13.306  11.376   5.616
50344SOL    HW152865  13.277  11.364   5.706
50344SOL    HW252866  13.229  11.355   5.563
50345SOL     OW52867  12.420   6.487   6.298
50345SOL    HW152868  12.417   6.402   6.254
50345SOL    HW252869  12.336   6.528   6.276
50346SOL     OW52870   9.745   2.946  13.131
50346SOL    HW152871   9.834   2.909  13.136
50346SOL    HW252872   9.721   2.962  13.222
50347SOL     OW52873  10.901   4.505  10.842
50347SOL    HW152874  10.835   4.560  10.885
50347SOL    HW252875  10.909   4.541  10.754
50348SOL     OW52876  11.591   9.635   8.394
50348SOL    HW152877  11.563   9.660   8.482
50348SOL    HW252878  11.607   9.541   8.400
50349SOL     OW52879   7.295   6.265   0.135
50349SOL    HW152880   7.202   6.284   0.142
50349SOL    HW252881   7.338   6.350   0.141
50350SOL     OW52882   4.652  13.411   3.868
50350SOL    HW152883   4.642  13.466   3.790
50350SOL    HW252884   4.746  13.390   3.870
50351SOL     OW52885  11.528   9.278  10.702
50351SOL    HW152886  11.542   9.263  10.609
50351SOL    HW252887  11.541   9.193  10.743
50352SOL     OW52888   3.388   3.936   0.881
50352SOL    HW152889   3.350   3.918   0.795
50352SOL    HW252890   3.313   3.959   0.936
50353SOL     OW52891   2.562  11.469   2.822
50353SOL    HW152892   2.658  11.466   2.822
50353SOL    HW252893   2.541  11.560   2.800
50354SOL     OW52894   4.702   2.531   1.108
50354SOL    HW152895   4.746   2.556   1.027
50354SOL    HW252896   4.749   2.453   1.138
50355SOL     OW52897   6.667   8.845   5.044
50355SOL    HW152898   6.638   8.933   5.020
50355SOL    HW252899   6.613   8.787   4.990
50356SOL     OW52900  13.723   7.917   8.747
50356SOL    HW152901  13.786   7.960   8.690
50356SOL    HW252902  13.663   7.872   8.687
50357SOL     OW52903   2.516  11.632   1.416
50357SOL    HW152904   2.558  11.637   1.502
50357SOL    HW252905   2.580  11.668   1.355
50358SOL     OW52906  11.893   2.798   9.048
50358SOL    HW152907  11.887   2.858   9.122
50358SOL    HW252908  11.984   2.771   9.045
50359SOL     OW52909  11.036   4.008   6.760
50359SOL    HW152910  10.952   3.967   6.739
50359SOL    HW252911  11.054   3.979   6.850
50360SOL     OW52912   1.439   0.805   0.710
50360SOL    HW152913   1.406   0.894   0.704
50360SOL    HW252914   1.376   0.753   0.660
50361SOL     OW52915  14.470  10.001   0.977
50361SOL    HW152916  14.418  10.061   0.922
50361SOL    HW252917  14.540   9.971   0.919
50362SOL     OW52918   5.794  13.187   1.427
50362SOL    HW152919   5.708  13.209   1.392
50362SOL    HW252920   5.853  13.254   1.391
50363SOL     OW52921   6.676  13.756   1.308
50363SOL    HW152922   6.631  13.713   1.380
50363SOL    HW252923   6.615  13.824   1.278
50364SOL     OW52924  13.630   7.420  14.705
50364SOL    HW152925  13.714   7.405  14.662
50364SOL    HW252926  13.619   7.344  14.762
50365SOL     OW52927   9.308  10.137   3.094
50365SOL    HW152928   9.319  10.097   3.008
50365SOL    HW252929   9.305  10.064   3.155
50366SOL     OW52930  11.504  12.651  10.880
50366SOL    HW152931  11.592  12.630  10.911
50366SOL    HW252932  11.517  12.694  10.796
50367SOL     OW52933   8.422   5.375  11.358
50367SOL    HW152934   8.376   5.460  11.356
50367SOL    HW252935   8.474   5.379  11.438
50368SOL     OW52936  14.789  13.733   5.034
50368SOL    HW152937  14.720  13.680   5.073
50368SOL    HW252938  14.796  13.809   5.093
50369SOL     OW52939   5.580  11.125   5.019
50369SOL    HW152940   5.566  11.033   5.042
50369SOL    HW252941   5.626  11.162   5.095
50370SOL     OW52942  13.858  14.179   5.013
50370SOL    HW152943  13.914  14.257   5.016
50370SOL    HW252944  13.846  14.153   5.104
50371SOL     OW52945  11.127   3.384   0.563
50371SOL    HW152946  11.178   3.329   0.503
50371SOL    HW252947  11.118   3.331   0.642
50372SOL     OW52948  10.609   5.239   2.884
50372SOL    HW152949  10.699   5.265   2.867
50372SOL    HW252950  10.615   5.174   2.954
50373SOL     OW52951   1.599   0.245  14.345
50373SOL    HW152952   1.552   0.308  14.289
50373SOL    HW252953   1.691   0.263  14.330
50374SOL     OW52954   1.752   2.845  10.788
50374SOL    HW152955   1.795   2.931  10.786
50374SOL    HW252956   1.661   2.864  10.809
50375SOL     OW52957  12.427   3.207   5.343
50375SOL    HW152958  12.419   3.290   5.297
50375SOL    HW252959  12.522   3.193   5.351
50376SOL     OW52960  13.106   2.261  12.418
50376SOL    HW152961  13.179   2.228  12.366
50376SOL    HW252962  13.121   2.226  12.506
50377SOL     OW52963  13.319   5.497  11.674
50377SOL    HW152964  13.403   5.543  11.674
50377SOL    HW252965  13.340   5.411  11.710
50378SOL     OW52966  11.560  14.140   5.107
50378SOL    HW152967  11.478  14.104   5.074
50378SOL    HW252968  11.543  14.157   5.200
50379SOL     OW52969   4.087  10.439   3.162
50379SOL    HW152970   4.037  10.520   3.168
50379SOL    HW252971   4.160  10.452   3.222
50380SOL     OW52972   2.596   9.613   5.141
50380SOL    HW152973   2.645   9.585   5.063
50380SOL    HW252974   2.544   9.536   5.165
50381SOL     OW52975   3.336   1.431   1.272
50381SOL    HW152976   3.414   1.424   1.326
50381SOL    HW252977   3.329   1.346   1.228
50382SOL     OW52978   1.185   8.052  10.162
50382SOL    HW152979   1.145   8.002  10.091
50382SOL    HW252980   1.151   8.011  10.242
50383SOL     OW52981  10.042   7.214   6.346
50383SOL    HW152982  10.109   7.198   6.280
50383SOL    HW252983   9.974   7.262   6.300
50384SOL     OW52984   1.941   3.679  11.947
50384SOL    HW152985   2.001   3.644  12.013
50384SOL    HW252986   1.999   3.722  11.884
50385SOL     OW52987  13.191   7.027   1.986
50385SOL    HW152988  13.208   6.957   2.048
50385SOL    HW252989  13.272   7.035   1.936
50386SOL     OW52990   2.785   4.183   0.033
50386SOL    HW152991   2.770   4.155   0.123
50386SOL    HW252992   2.776   4.103  14.854
50387SOL     OW52993  13.034   6.108   7.242
50387SOL    HW152994  13.004   6.034   7.189
50387SOL    HW252995  12.997   6.185   7.199
50388SOL     OW52996   8.523   6.314   5.991
50388SOL    HW152997   8.557   6.373   6.058
50388SOL    HW252998   8.601   6.288   5.941
50389SOL     OW52999  11.834   8.980  10.464
50389SOL    HW153000  11.807   9.057  10.416
50389SOL    HW253001  11.827   8.908  10.401
50390SOL     OW53002   2.234   8.626   8.835
50390SOL    HW153003   2.319   8.669   8.839
50390SOL    HW253004   2.199   8.634   8.924
50391SOL     OW53005  12.660   3.355   9.493
50391SOL    HW153006  12.614   3.329   9.413
50391SOL    HW253007  12.672   3.449   9.484
50392SOL     OW53008   0.572   4.810  12.339
50392SOL    HW153009   0.608   4.888  12.382
50392SOL    HW253010   0.543   4.841  12.253
50393SOL     OW53011   4.811   6.878  12.899
50393SOL    HW153012   4.890   6.916  12.938
50393SOL    HW253013   4.753   6.953  12.885
50394SOL     OW53014   5.935   4.441  11.083
50394SOL    HW153015   6.023   4.406  11.089
50394SOL    HW253016   5.890   4.410  11.162
50395SOL     OW53017  12.934   0.786   5.593
50395SOL    HW153018  13.018   0.746   5.570
50395SOL    HW253019  12.868   0.727   5.556
50396SOL     OW53020   6.149   1.712  10.187
50396SOL    HW153021   6.175   1.629  10.147
50396SOL    HW253022   6.231   1.757  10.205
50397SOL     OW53023   3.961  12.743   4.389
50397SOL    HW153024   3.909  12.764   4.311
50397SOL    HW253025   4.014  12.821   4.404
50398SOL     OW53026   4.463   0.664  11.846
50398SOL    HW153027   4.482   0.571  11.835
50398SOL    HW253028   4.374   0.675  11.812
50399SOL     OW53029   2.689   2.155   5.092
50399SOL    HW153030   2.699   2.077   5.146
50399SOL    HW253031   2.746   2.220   5.133
50400SOL     OW53032   1.204   9.494   3.054
50400SOL    HW153033   1.147   9.569   3.073
50400SOL    HW253034   1.293   9.531   3.056
50401SOL     OW53035   8.312  14.368   1.870
50401SOL    HW153036   8.365  14.442   1.897
50401SOL    HW253037   8.368  14.319   1.810
50402SOL     OW53038   8.424   3.331  13.990
50402SOL    HW153039   8.413   3.292  13.903
50402SOL    HW253040   8.352   3.293  14.041
50403SOL     OW53041  11.450  14.613   8.452
50403SOL    HW153042  11.435  14.589   8.361
50403SOL    HW253043  11.399  14.550   8.502
50404SOL     OW53044   5.153   0.339   4.373
50404SOL    HW153045   5.182   0.409   4.314
50404SOL    HW253046   5.105   0.384   4.443
50405SOL     OW53047  14.152  13.419   1.224
50405SOL    HW153048  14.236  13.452   1.194
50405SOL    HW253049  14.129  13.349   1.163
50406SOL     OW53050   4.465  13.612   1.841
50406SOL    HW153051   4.460  13.641   1.749
50406SOL    HW253052   4.486  13.692   1.890
50407SOL     OW53053   3.990   7.419   4.658
50407SOL    HW153054   3.948   7.338   4.688
50407SOL    HW253055   3.952   7.435   4.571
50408SOL     OW53056   8.507  13.689   5.077
50408SOL    HW153057   8.533  13.734   4.997
50408SOL    HW253058   8.415  13.712   5.088
50409SOL     OW53059   4.149  13.665   5.060
50409SOL    HW153060   4.105  13.747   5.034
50409SOL    HW253061   4.209  13.691   5.129
50410SOL     OW53062   7.386  13.340   2.948
50410SOL    HW153063   7.333  13.357   3.026
50410SOL    HW253064   7.405  13.246   2.953
50411SOL     OW53065  11.046   8.802  10.082
50411SOL    HW153066  11.120   8.838  10.033
50411SOL    HW253067  10.974   8.863  10.065
50412SOL     OW53068   2.860   9.669  13.307
50412SOL    HW153069   2.861   9.759  13.339
50412SOL    HW253070   2.802   9.623  13.367
50413SOL     OW53071  14.147   5.640   4.925
50413SOL    HW153072  14.162   5.689   5.006
50413SOL    HW253073  14.185   5.553   4.942
50414SOL     OW53074  12.988   7.664   2.804
50414SOL    HW153075  12.921   7.637   2.741
50414SOL    HW253076  13.070   7.661   2.755
50415SOL     OW53077  14.653  11.966   4.585
50415SOL    HW153078  14.588  11.935   4.521
50415SOL    HW253079  14.728  11.994   4.532
50416SOL     OW53080   1.591   2.869   3.637
50416SOL    HW153081   1.587   2.783   3.594
50416SOL    HW253082   1.545   2.855   3.720
50417SOL     OW53083  14.173   2.748   3.981
50417SOL    HW153084  14.266   2.733   3.996
50417SOL    HW253085  14.165   2.757   3.886
50418SOL     OW53086  12.180  14.061   5.216
50418SOL    HW153087  12.232  13.989   5.253
50418SOL    HW253088  12.237  14.137   5.223
50419SOL     OW53089  13.745  10.956   2.986
50419SOL    HW153090  13.750  11.050   2.970
50419SOL    HW253091  13.695  10.921   2.913
50420SOL     OW53092  10.070  14.857   6.309
50420SOL    HW153093  10.143   0.043   6.292
50420SOL    HW253094  10.111  14.773   6.329
50421SOL     OW53095   1.445  11.069  10.621
50421SOL    HW153096   1.454  11.103  10.710
50421SOL    HW253097   1.531  11.085  10.581
50422SOL     OW53098   5.783   4.734   7.742
50422SOL    HW153099   5.836   4.809   7.768
50422SOL    HW253100   5.826   4.659   7.783
50423SOL     OW53101  10.595   2.623   8.913
50423SOL    HW153102  10.611   2.633   9.006
50423SOL    HW253103  10.651   2.549   8.887
50424SOL     OW53104   1.147   3.782   2.510
50424SOL    HW153105   1.062   3.821   2.494
50424SOL    HW253106   1.149   3.766   2.604
50425SOL     OW53107   1.340   3.338  12.279
50425SOL    HW153108   1.381   3.252  12.273
50425SOL    HW253109   1.329   3.366  12.188
50426SOL     OW53110   1.223   4.289   7.636
50426SOL    HW153111   1.227   4.193   7.642
50426SOL    HW253112   1.171   4.315   7.711
50427SOL     OW53113   0.107   2.047   8.962
50427SOL    HW153114   0.027   1.997   8.951
50427SOL    HW253115   0.108   2.070   9.055
50428SOL     OW53116   8.615  13.241   3.336
50428SOL    HW153117   8.523  13.267   3.340
50428SOL    HW253118   8.633  13.229   3.243
50429SOL     OW53119   7.807  13.828  10.664
50429SOL    HW153120   7.894  13.857  10.693
50429SOL    HW253121   7.749  13.901  10.687
50430SOL     OW53122  13.956   3.275  13.635
50430SOL    HW153123  13.875   3.268  13.585
50430SOL    HW253124  13.935   3.334  13.707
50431SOL     OW53125   2.169  10.300   2.152
50431SOL    HW153126   2.125  10.290   2.067
50431SOL    HW253127   2.254  10.337   2.130
50432SOL     OW53128  13.216   2.966  11.006
50432SOL    HW153129  13.252   2.945  10.919
50432SOL    HW253130  13.205   3.061  11.005
50433SOL     OW53131   0.514   3.466   2.929
50433SOL    HW153132   0.437   3.435   2.882
50433SOL    HW253133   0.479   3.527   2.994
50434SOL     OW53134   8.693   8.083   8.313
50434SOL    HW153135   8.700   7.992   8.340
50434SOL    HW253136   8.728   8.133   8.387
50435SOL     OW53137  14.801   7.686   6.583
50435SOL    HW153138   0.017   7.706   6.613
50435SOL    HW253139  14.805   7.694   6.488
50436SOL     OW53140  13.530   4.505   1.619
50436SOL    HW153141  13.609   4.474   1.574
50436SOL    HW253142  13.553   4.592   1.652
50437SOL     OW53143   8.399   4.278   2.562
50437SOL    HW153144   8.380   4.351   2.621
50437SOL    HW253145   8.439   4.319   2.485
50438SOL     OW53146   4.659   8.676   3.601
50438SOL    HW153147   4.700   8.591   3.612
50438SOL    HW253148   4.695   8.710   3.519
50439SOL     OW53149  14.001   4.873  10.968
50439SOL    HW153150  14.041   4.887  11.054
50439SOL    HW253151  14.051   4.929  10.909
50440SOL     OW53152  11.212   5.906  10.042
50440SOL    HW153153  11.186   5.936  10.129
50440SOL    HW253154  11.146   5.942   9.983
50441SOL     OW53155   7.456  12.807   8.249
50441SOL    HW153156   7.391  12.771   8.188
50441SOL    HW253157   7.470  12.897   8.218
50442SOL     OW53158   4.985  10.540   0.153
50442SOL    HW153159   4.895  10.569   0.143
50442SOL    HW253160   5.036  10.597   0.095
50443SOL     OW53161   8.427   7.868   0.152
50443SOL    HW153162   8.374   7.882   0.231
50443SOL    HW253163   8.417   7.775   0.133
50444SOL     OW53164  12.766  13.438   6.474
50444SOL    HW153165  12.678  13.436   6.510
50444SOL    HW253166  12.784  13.531   6.460
50445SOL     OW53167   1.574  10.636   7.758
50445SOL    HW153168   1.668  10.640   7.777
50445SOL    HW253169   1.539  10.718   7.792
50446SOL     OW53170   4.092   0.969   9.294
50446SOL    HW153171   4.187   0.975   9.300
50446SOL    HW253172   4.074   0.876   9.282
50447SOL     OW53173  13.563   4.168  13.295
50447SOL    HW153174  13.503   4.110  13.343
50447SOL    HW253175  13.588   4.118  13.218
50448SOL     OW53176  11.556   9.566   9.332
50448SOL    HW153177  11.574   9.484   9.287
50448SOL    HW253178  11.576   9.634   9.268
50449SOL     OW53179  14.509   1.914  10.185
50449SOL    HW153180  14.474   1.913  10.096
50449SOL    HW253181  14.536   1.824  10.202
50450SOL     OW53182  10.559   7.472  13.128
50450SOL    HW153183  10.526   7.556  13.095
50450SOL    HW253184  10.517   7.406  13.072
50451SOL     OW53185   3.137   1.915  12.729
50451SOL    HW153186   3.049   1.950  12.717
50451SOL    HW253187   3.151   1.859  12.652
50452SOL     OW53188  10.550  13.608  10.858
50452SOL    HW153189  10.607  13.597  10.934
50452SOL    HW253190  10.464  13.580  10.888
50453SOL     OW53191  10.048  13.102  10.602
50453SOL    HW153192  10.104  13.133  10.673
50453SOL    HW253193   9.996  13.179  10.578
50454SOL     OW53194   4.775   8.914  13.061
50454SOL    HW153195   4.718   8.863  13.003
50454SOL    HW253196   4.852   8.934  13.007
50455SOL     OW53197   4.414  12.968  11.585
50455SOL    HW153198   4.354  12.906  11.627
50455SOL    HW253199   4.446  12.920  11.508
50456SOL     OW53200   3.876   2.917   0.945
50456SOL    HW153201   3.812   2.976   0.984
50456SOL    HW253202   3.824   2.844   0.911
50457SOL     OW53203   7.411  12.013   5.170
50457SOL    HW153204   7.373  11.982   5.252
50457SOL    HW253205   7.342  12.064   5.128
50458SOL     OW53206  10.815   3.743   7.173
50458SOL    HW153207  10.811   3.706   7.261
50458SOL    HW253208  10.748   3.812   7.173
50459SOL     OW53209  13.180   5.799   5.771
50459SOL    HW153210  13.176   5.709   5.803
50459SOL    HW253211  13.182   5.853   5.850
50460SOL     OW53212   4.783   6.452   1.201
50460SOL    HW153213   4.869   6.454   1.242
50460SOL    HW253214   4.722   6.458   1.275
50461SOL     OW53215   4.674   4.153  14.139
50461SOL    HW153216   4.727   4.210  14.195
50461SOL    HW253217   4.603   4.210  14.109
50462SOL     OW53218  13.686   1.446   3.245
50462SOL    HW153219  13.626   1.518   3.221
50462SOL    HW253220  13.638   1.396   3.311
50463SOL     OW53221  11.181   4.893   5.202
50463SOL    HW153222  11.186   4.797   5.211
50463SOL    HW253223  11.240   4.925   5.271
50464SOL     OW53224   8.844   4.765   8.233
50464SOL    HW153225   8.883   4.760   8.320
50464SOL    HW253226   8.918   4.758   8.173
50465SOL     OW53227   5.887  12.314  10.948
50465SOL    HW153228   5.841  12.375  10.891
50465SOL    HW253229   5.818  12.255  10.981
50466SOL     OW53230   4.069  14.357   2.820
50466SOL    HW153231   4.056  14.333   2.912
50466SOL    HW253232   4.049  14.451   2.817
50467SOL     OW53233  13.916   1.152   7.053
50467SOL    HW153234  13.841   1.101   7.084
50467SOL    HW253235  13.992   1.100   7.078
50468SOL     OW53236  10.118  12.880   4.840
50468SOL    HW153237  10.163  12.812   4.890
50468SOL    HW253238  10.062  12.924   4.904
50469SOL     OW53239   8.221   6.527  10.341
50469SOL    HW153240   8.278   6.462  10.301
50469SOL    HW253241   8.187   6.578  10.268
50470SOL     OW53242   7.631   3.524   0.346
50470SOL    HW153243   7.658   3.450   0.400
50470SOL    HW253244   7.651   3.497   0.256
50471SOL     OW53245  12.161   4.345  13.817
50471SOL    HW153246  12.122   4.429  13.840
50471SOL    HW253247  12.086   4.286  13.806
50472SOL     OW53248   5.342  12.005  12.771
50472SOL    HW153249   5.305  12.092  12.783
50472SOL    HW253250   5.271  11.945  12.792
50473SOL     OW53251   4.940   0.754   5.225
50473SOL    HW153252   5.035   0.744   5.216
50473SOL    HW253253   4.904   0.677   5.181
50474SOL     OW53254  11.418   4.671   7.281
50474SOL    HW153255  11.325   4.646   7.284
50474SOL    HW253256  11.421   4.745   7.221
50475SOL     OW53257   9.728   7.280  13.467
50475SOL    HW153258   9.641   7.320  13.476
50475SOL    HW253259   9.787   7.355  13.460
50476SOL     OW53260  10.531  12.092  10.672
50476SOL    HW153261  10.559  12.077  10.582
50476SOL    HW253262  10.528  12.005  10.712
50477SOL     OW53263   7.628   6.927   5.415
50477SOL    HW153264   7.547   6.911   5.366
50477SOL    HW253265   7.668   7.002   5.372
50478SOL     OW53266  11.632   8.383   5.066
50478SOL    HW153267  11.541   8.376   5.038
50478SOL    HW253268  11.650   8.477   5.065
50479SOL     OW53269   3.938   0.468   4.240
50479SOL    HW153270   4.026   0.506   4.243
50479SOL    HW253271   3.879   0.544   4.244
50480SOL     OW53272  13.761   4.836  14.365
50480SOL    HW153273  13.774   4.741  14.373
50480SOL    HW253274  13.727   4.848  14.277
50481SOL     OW53275   9.707   6.702   7.829
50481SOL    HW153276   9.712   6.716   7.923
50481SOL    HW253277   9.635   6.640   7.817
50482SOL     OW53278  10.667   1.845  14.125
50482SOL    HW153279  10.586   1.811  14.163
50482SOL    HW253280  10.653   1.842  14.031
50483SOL     OW53281   1.382  13.390   5.500
50483SOL    HW153282   1.473  13.407   5.475
50483SOL    HW253283   1.388  13.345   5.584
50484SOL     OW53284  13.935   4.566   0.634
50484SOL    HW153285  13.970   4.479   0.612
50484SOL    HW253286  13.849   4.569   0.593
50485SOL     OW53287   7.402   5.674   1.003
50485SOL    HW153288   7.449   5.665   0.920
50485SOL    HW253289   7.345   5.597   1.007
50486SOL     OW53290   9.990   1.704   3.129
50486SOL    HW153291   9.980   1.796   3.151
50486SOL    HW253292   9.924   1.688   3.062
50487SOL     OW53293   7.700  10.336   8.806
50487SOL    HW153294   7.672  10.295   8.724
50487SOL    HW253295   7.626  10.325   8.866
50488SOL     OW53296   3.403  10.712   5.831
50488SOL    HW153297   3.326  10.658   5.812
50488SOL    HW253298   3.476  10.650   5.827
50489SOL     OW53299  11.609   4.553   3.661
50489SOL    HW153300  11.594   4.634   3.711
50489SOL    HW253301  11.593   4.579   3.570
50490SOL     OW53302   8.937   0.782  11.209
50490SOL    HW153303   8.924   0.796  11.303
50490SOL    HW253304   8.852   0.753  11.177
50491SOL     OW53305   6.212  12.110   6.423
50491SOL    HW153306   6.214  12.153   6.509
50491SOL    HW253307   6.123  12.079   6.415
50492SOL     OW53308  11.003   4.430  14.243
50492SOL    HW153309  11.029   4.462  14.329
50492SOL    HW253310  11.044   4.490  14.181
50493SOL     OW53311   7.033   2.604  13.174
50493SOL    HW153312   7.063   2.615  13.264
50493SOL    HW253313   7.022   2.694  13.142
50494SOL     OW53314   3.980  11.708   6.926
50494SOL    HW153315   4.049  11.698   6.861
50494SOL    HW253316   3.900  11.722   6.876
50495SOL     OW53317   4.085  11.176  13.824
50495SOL    HW153318   4.054  11.214  13.742
50495SOL    HW253319   4.081  11.248  13.887
50496SOL     OW53320  13.151  11.953  11.420
50496SOL    HW153321  13.238  11.990  11.433
50496SOL    HW253322  13.140  11.891  11.493
50497SOL     OW53323   9.415   6.655  13.736
50497SOL    HW153324   9.484   6.590  13.744
50497SOL    HW253325   9.410   6.697  13.822
50498SOL     OW53326   9.506  10.596   3.568
50498SOL    HW153327   9.475  10.517   3.612
50498SOL    HW253328   9.598  10.604   3.594
50499SOL     OW53329   9.640   6.851   2.293
50499SOL    HW153330   9.551   6.821   2.309
50499SOL    HW253331   9.631   6.924   2.232
50500SOL     OW53332   0.236   7.089   3.686
50500SOL    HW153333   0.268   7.067   3.598
50500SOL    HW253334   0.141   7.091   3.677
50501SOL     OW53335   8.464   3.482  12.954
50501SOL    HW153336   8.426   3.494  13.041
50501SOL    HW253337   8.486   3.571  12.926
50502SOL     OW53338  12.336   0.799  13.218
50502SOL    HW153339  12.308   0.793  13.309
50502SOL    HW253340  12.315   0.888  13.192
50503SOL     OW53341  12.794   4.192   9.463
50503SOL    HW153342  12.699   4.181   9.471
50503SOL    HW253343  12.825   4.198   9.553
50504SOL     OW53344   6.459   7.297  10.699
50504SOL    HW153345   6.496   7.380  10.730
50504SOL    HW253346   6.451   7.309  10.604
50505SOL     OW53347   4.469  10.693   7.088
50505SOL    HW153348   4.387  10.743   7.087
50505SOL    HW253349   4.525  10.741   7.148
50506SOL     OW53350  11.673   2.077  14.531
50506SOL    HW153351  11.649   2.075  14.624
50506SOL    HW253352  11.724   1.997  14.518
50507SOL     OW53353   4.326   4.792   6.331
50507SOL    HW153354   4.323   4.838   6.247
50507SOL    HW253355   4.410   4.818   6.369
50508SOL     OW53356   8.188   1.260   2.110
50508SOL    HW153357   8.129   1.188   2.133
50508SOL    HW253358   8.229   1.232   2.028
50509SOL     OW53359   0.520   3.444  13.007
50509SOL    HW153360   0.574   3.505  12.957
50509SOL    HW253361   0.446   3.496  13.037
50510SOL     OW53362   4.071   1.671   5.523
50510SOL    HW153363   4.016   1.594   5.504
50510SOL    HW253364   4.139   1.668   5.456
50511SOL     OW53365   4.810  13.845   3.597
50511SOL    HW153366   4.903  13.853   3.576
50511SOL    HW253367   4.777  13.935   3.594
50512SOL     OW53368   7.789   1.465   4.291
50512SOL    HW153369   7.728   1.398   4.259
50512SOL    HW253370   7.752   1.547   4.258
50513SOL     OW53371   1.912  11.508   0.119
50513SOL    HW153372   2.006  11.524   0.129
50513SOL    HW253373   1.873  11.538   0.202
50514SOL     OW53374  13.086   5.936  13.768
50514SOL    HW153375  13.182   5.938  13.760
50514SOL    HW253376  13.071   5.898  13.855
50515SOL     OW53377   4.075   1.212  13.976
50515SOL    HW153378   4.083   1.224  14.071
50515SOL    HW253379   4.018   1.283  13.947
50516SOL     OW53380   4.003   9.104   7.896
50516SOL    HW153381   3.966   9.101   7.984
50516SOL    HW253382   3.950   9.042   7.846
50517SOL     OW53383  12.501  11.641   0.426
50517SOL    HW153384  12.515  11.585   0.502
50517SOL    HW253385  12.589  11.653   0.389
50518SOL     OW53386  11.197   8.239   4.112
50518SOL    HW153387  11.217   8.196   4.196
50518SOL    HW253388  11.105   8.263   4.119
50519SOL     OW53389   1.217   2.755   7.200
50519SOL    HW153390   1.265   2.826   7.157
50519SOL    HW253391   1.142   2.798   7.241
50520SOL     OW53392  13.002   9.415  12.145
50520SOL    HW153393  12.994   9.336  12.093
50520SOL    HW253394  12.913   9.449  12.152
50521SOL     OW53395   1.841   0.773  11.754
50521SOL    HW153396   1.865   0.682  11.768
50521SOL    HW253397   1.785   0.795  11.828
50522SOL     OW53398  10.213   3.303   4.744
50522SOL    HW153399  10.166   3.313   4.661
50522SOL    HW253400  10.290   3.359   4.736
50523SOL     OW53401   3.365   8.500   7.648
50523SOL    HW153402   3.347   8.406   7.655
50523SOL    HW253403   3.456   8.505   7.617
50524SOL     OW53404  14.730   1.970  14.086
50524SOL    HW153405  14.800   1.975  14.151
50524SOL    HW253406  14.666   1.910  14.124
50525SOL     OW53407   7.443   8.700   5.527
50525SOL    HW153408   7.517   8.669   5.579
50525SOL    HW253409   7.446   8.796   5.536
50526SOL     OW53410   1.758  14.851  14.302
50526SOL    HW153411   1.780  14.835  14.393
50526SOL    HW253412   1.673   0.022  14.305
50527SOL     OW53413   8.445  11.168   3.464
50527SOL    HW153414   8.392  11.245   3.439
50527SOL    HW253415   8.528  11.205   3.494
50528SOL     OW53416   6.952  14.671   1.823
50528SOL    HW153417   6.938  14.678   1.728
50528SOL    HW253418   6.864  14.671   1.860
50529SOL     OW53419  10.954   3.254  11.302
50529SOL    HW153420  10.998   3.323  11.252
50529SOL    HW253421  10.956   3.286  11.393
50530SOL     OW53422   8.988   5.660   9.295
50530SOL    HW153423   8.959   5.603   9.224
50530SOL    HW253424   9.042   5.726   9.252
50531SOL     OW53425   3.898   0.836   3.531
50531SOL    HW153426   3.910   0.927   3.556
50531SOL    HW253427   3.987   0.802   3.520
50532SOL     OW53428  12.954   1.547   3.762
50532SOL    HW153429  12.989   1.634   3.741
50532SOL    HW253430  12.859   1.560   3.764
50533SOL     OW53431   7.848   0.720   1.381
50533SOL    HW153432   7.850   0.679   1.468
50533SOL    HW253433   7.876   0.651   1.321
50534SOL     OW53434   0.657   7.404   0.081
50534SOL    HW153435   0.585   7.466   0.090
50534SOL    HW253436   0.700   7.405   0.167
50535SOL     OW53437   5.436   0.103  12.166
50535SOL    HW153438   5.450   0.051  12.245
50535SOL    HW253439   5.353   0.148  12.181
50536SOL     OW53440   8.699   8.229  11.665
50536SOL    HW153441   8.636   8.160  11.644
50536SOL    HW253442   8.754   8.192  11.734
50537SOL     OW53443   0.195  11.869   4.652
50537SOL    HW153444   0.276  11.835   4.691
50537SOL    HW253445   0.148  11.908   4.725
50538SOL     OW53446   4.437   4.336   0.247
50538SOL    HW153447   4.364   4.299   0.197
50538SOL    HW253448   4.395   4.381   0.321
50539SOL     OW53449   9.155   2.898   7.106
50539SOL    HW153450   9.235   2.940   7.075
50539SOL    HW253451   9.085   2.936   7.052
50540SOL     OW53452  11.856  14.871  11.259
50540SOL    HW153453  11.837  14.865  11.166
50540SOL    HW253454  11.944  14.834  11.268
50541SOL     OW53455   4.248   9.819   1.205
50541SOL    HW153456   4.267   9.858   1.291
50541SOL    HW253457   4.313   9.750   1.195
50542SOL     OW53458   8.379   8.185   2.685
50542SOL    HW153459   8.404   8.274   2.710
50542SOL    HW253460   8.378   8.135   2.767
50543SOL     OW53461  13.751  12.362   0.807
50543SOL    HW153462  13.743  12.314   0.889
50543SOL    HW253463  13.845  12.361   0.788
50544SOL     OW53464   5.640   3.554   8.791
50544SOL    HW153465   5.597   3.510   8.865
50544SOL    HW253466   5.569   3.594   8.742
50545SOL     OW53467  10.291   5.603   6.059
50545SOL    HW153468  10.281   5.586   5.965
50545SOL    HW253469  10.236   5.538   6.101
50546SOL     OW53470   3.235   5.655   1.318
50546SOL    HW153471   3.198   5.681   1.402
50546SOL    HW253472   3.182   5.702   1.253
50547SOL     OW53473   7.895   9.088   3.743
50547SOL    HW153474   7.888   9.046   3.657
50547SOL    HW253475   7.805   9.092   3.776
50548SOL     OW53476   1.290   4.825   4.845
50548SOL    HW153477   1.209   4.836   4.795
50548SOL    HW253478   1.298   4.906   4.896
50549SOL     OW53479   8.615   1.765  10.915
50549SOL    HW153480   8.642   1.846  10.959
50549SOL    HW253481   8.585   1.793  10.829
50550SOL     OW53482   3.175   2.732   5.267
50550SOL    HW153483   3.163   2.689   5.182
50550SOL    HW253484   3.089   2.768   5.288
50551SOL     OW53485   5.393   6.849   2.358
50551SOL    HW153486   5.307   6.888   2.375
50551SOL    HW253487   5.438   6.913   2.302
50552SOL     OW53488  12.786   8.833  13.739
50552SOL    HW153489  12.867   8.854  13.692
50552SOL    HW253490  12.789   8.738  13.749
50553SOL     OW53491   4.444  13.043  14.011
50553SOL    HW153492   4.419  12.951  14.021
50553SOL    HW253493   4.367  13.092  14.040
50554SOL     OW53494  14.323   7.991   9.701
50554SOL    HW153495  14.298   7.919   9.759
50554SOL    HW253496  14.288   7.966   9.615
50555SOL     OW53497   9.348   1.033   9.282
50555SOL    HW153498   9.329   1.031   9.189
50555SOL    HW253499   9.444   1.038   9.287
50556SOL     OW53500   8.697  14.397   1.913
50556SOL    HW153501   8.650  14.363   1.989
50556SOL    HW253502   8.756  14.464   1.950
50557SOL     OW53503   4.877   1.899  13.773
50557SOL    HW153504   4.896   1.877  13.864
50557SOL    HW253505   4.796   1.950  13.778
50558SOL     OW53506  11.590  10.056  12.941
50558SOL    HW153507  11.576  10.004  12.862
50558SOL    HW253508  11.576   9.994  13.013
50559SOL     OW53509   0.452   3.174  12.982
50559SOL    HW153510   0.461   3.167  12.887
50559SOL    HW253511   0.475   3.264  13.001
50560SOL     OW53512   5.885  14.043  14.387
50560SOL    HW153513   5.808  14.096  14.366
50560SOL    HW253514   5.948  14.063  14.318
50561SOL     OW53515   8.430   8.359   4.803
50561SOL    HW153516   8.521   8.384   4.782
50561SOL    HW253517   8.385   8.443   4.813
50562SOL     OW53518   0.603  11.589  14.330
50562SOL    HW153519   0.596  11.634  14.414
50562SOL    HW253520   0.696  11.568  14.321
50563SOL     OW53521   0.043   8.192   3.473
50563SOL    HW153522   0.019   8.232   3.389
50563SOL    HW253523   0.102   8.255   3.514
50564SOL     OW53524  10.958   8.360   4.327
50564SOL    HW153525  10.936   8.374   4.235
50564SOL    HW253526  10.874   8.363   4.373
50565SOL     OW53527   5.778  13.039  13.244
50565SOL    HW153528   5.812  13.122  13.213
50565SOL    HW253529   5.710  13.015  13.181
50566SOL     OW53530   9.166   6.459   7.307
50566SOL    HW153531   9.137   6.442   7.397
50566SOL    HW253532   9.208   6.545   7.312
50567SOL     OW53533   2.932  13.157  11.461
50567SOL    HW153534   2.892  13.232  11.417
50567SOL    HW253535   2.861  13.121  11.515
50568SOL     OW53536  12.250   8.034   9.386
50568SOL    HW153537  12.229   8.073   9.471
50568SOL    HW253538  12.325   7.977   9.404
50569SOL     OW53539   6.183   2.453   4.481
50569SOL    HW153540   6.263   2.505   4.478
50569SOL    HW253541   6.211   2.365   4.454
50570SOL     OW53542   1.309  11.874  11.803
50570SOL    HW153543   1.382  11.817  11.826
50570SOL    HW253544   1.231  11.819  11.809
50571SOL     OW53545   3.843   7.658   5.300
50571SOL    HW153546   3.831   7.606   5.380
50571SOL    HW253547   3.870   7.595   5.234
50572SOL     OW53548  12.242  10.340  14.845
50572SOL    HW153549  12.248  10.255   0.017
50572SOL    HW253550  12.213  10.318  14.756
50573SOL     OW53551   2.483  14.764   0.743
50573SOL    HW153552   2.534  14.738   0.821
50573SOL    HW253553   2.417  14.824   0.777
50574SOL     OW53554  13.293   4.625   6.530
50574SOL    HW153555  13.200   4.647   6.534
50574SOL    HW253556  13.332   4.695   6.477
50575SOL     OW53557   6.425   1.463  13.352
50575SOL    HW153558   6.425   1.418  13.267
50575SOL    HW253559   6.333   1.483  13.368
50576SOL     OW53560   5.295  12.882  13.382
50576SOL    HW153561   5.341  12.804  13.413
50576SOL    HW253562   5.314  12.949  13.448
50577SOL     OW53563  11.674   7.344   6.654
50577SOL    HW153564  11.741   7.330   6.721
50577SOL    HW253565  11.650   7.255   6.626
50578SOL     OW53566  13.312  12.214   2.536
50578SOL    HW153567  13.220  12.206   2.560
50578SOL    HW253568  13.326  12.308   2.523
50579SOL     OW53569   3.927   7.148   5.049
50579SOL    HW153570   3.995   7.200   5.007
50579SOL    HW253571   3.962   7.128   5.136
50580SOL     OW53572  13.446   1.355   6.661
50580SOL    HW153573  13.525   1.384   6.706
50580SOL    HW253574  13.376   1.406   6.701
50581SOL     OW53575   5.539  14.500   0.157
50581SOL    HW153576   5.633  14.486   0.167
50581SOL    HW253577   5.525  14.589   0.189
50582SOL     OW53578   3.647  13.892   1.945
50582SOL    HW153579   3.554  13.904   1.926
50582SOL    HW253580   3.690  13.897   1.860
50583SOL     OW53581  14.141   4.006   2.938
50583SOL    HW153582  14.231   3.979   2.955
50583SOL    HW253583  14.128   4.083   2.993
50584SOL     OW53584  11.075  13.746   6.778
50584SOL    HW153585  11.092  13.709   6.692
50584SOL    HW253586  11.158  13.736   6.825
50585SOL     OW53587   7.714  10.157   5.613
50585SOL    HW153588   7.804  10.154   5.646
50585SOL    HW253589   7.711  10.086   5.548
50586SOL     OW53590   1.504  10.646   7.295
50586SOL    HW153591   1.522  10.600   7.376
50586SOL    HW253592   1.414  10.676   7.304
50587SOL     OW53593   0.480   1.027  14.093
50587SOL    HW153594   0.445   0.954  14.143
50587SOL    HW253595   0.557   0.991  14.049
50588SOL     OW53596  12.924   9.325   8.324
50588SOL    HW153597  12.993   9.341   8.389
50588SOL    HW253598  12.858   9.392   8.342
50589SOL     OW53599   5.804  10.046   2.223
50589SOL    HW153600   5.852   9.969   2.193
50589SOL    HW253601   5.831  10.116   2.163
50590SOL     OW53602  14.595  13.858  13.425
50590SOL    HW153603  14.633  13.873  13.339
50590SOL    HW253604  14.631  13.927  13.480
50591SOL     OW53605   8.413  11.290   0.335
50591SOL    HW153606   8.392  11.291   0.428
50591SOL    HW253607   8.328  11.293   0.291
50592SOL     OW53608   8.207   8.511   1.422
50592SOL    HW153609   8.210   8.427   1.377
50592SOL    HW253610   8.217   8.489   1.514
50593SOL     OW53611  11.976   2.343   7.646
50593SOL    HW153612  12.052   2.312   7.597
50593SOL    HW253613  12.012   2.401   7.713
50594SOL     OW53614  12.254  12.157   0.577
50594SOL    HW153615  12.193  12.150   0.503
50594SOL    HW253616  12.261  12.067   0.610
50595SOL     OW53617   2.711  11.143   3.138
50595SOL    HW153618   2.745  11.230   3.157
50595SOL    HW253619   2.640  11.157   3.076
50596SOL     OW53620   5.000   4.533  14.359
50596SOL    HW153621   4.947   4.526  14.439
50596SOL    HW253622   5.035   4.622  14.361
50597SOL     OW53623   5.571   8.000   0.068
50597SOL    HW153624   5.610   7.954  14.867
50597SOL    HW253625   5.635   8.068   0.090
50598SOL     OW53626   9.410   2.564   3.098
50598SOL    HW153627   9.332   2.546   3.046
50598SOL    HW253628   9.397   2.654   3.129
50599SOL     OW53629   9.642   0.934   8.207
50599SOL    HW153630   9.576   0.909   8.272
50599SOL    HW253631   9.726   0.910   8.247
50600SOL     OW53632  12.098   6.320   2.810
50600SOL    HW153633  12.142   6.236   2.808
50600SOL    HW253634  12.030   6.314   2.743
50601SOL     OW53635   3.779  10.277  12.237
50601SOL    HW153636   3.727  10.317  12.307
50601SOL    HW253637   3.728  10.290  12.158
50602SOL     OW53638   9.743   4.381  11.721
50602SOL    HW153639   9.769   4.439  11.793
50602SOL    HW253640   9.807   4.397  11.652
50603SOL     OW53641   7.539   7.352   2.351
50603SOL    HW153642   7.573   7.349   2.261
50603SOL    HW253643   7.615   7.372   2.405
50604SOL     OW53644   8.320   5.178  10.504
50604SOL    HW153645   8.280   5.118  10.566
50604SOL    HW253646   8.302   5.139  10.418
50605SOL     OW53647  13.715   1.815  12.136
50605SOL    HW153648  13.661   1.770  12.201
50605SOL    HW253649  13.653   1.842  12.068
50606SOL     OW53650   2.601  14.427   2.817
50606SOL    HW153651   2.624  14.462   2.731
50606SOL    HW253652   2.505  14.427   2.818
50607SOL     OW53653   9.505   2.165  14.053
50607SOL    HW153654   9.460   2.134  14.131
50607SOL    HW253655   9.518   2.086  14.000
50608SOL     OW53656  12.836   3.158   4.628
50608SOL    HW153657  12.902   3.200   4.573
50608SOL    HW253658  12.785   3.231   4.664
50609SOL     OW53659   8.491  12.528   7.101
50609SOL    HW153660   8.569  12.508   7.153
50609SOL    HW253661   8.435  12.452   7.111
50610SOL     OW53662   0.654   8.162   8.931
50610SOL    HW153663   0.730   8.158   8.872
50610SOL    HW253664   0.627   8.070   8.941
50611SOL     OW53665   9.007  11.882   6.364
50611SOL    HW153666   9.037  11.967   6.330
50611SOL    HW253667   9.066  11.818   6.325
50612SOL     OW53668  11.835  11.145   0.760
50612SOL    HW153669  11.758  11.123   0.708
50612SOL    HW253670  11.909  11.137   0.700
50613SOL     OW53671  12.965   6.923   2.697
50613SOL    HW153672  13.030   6.895   2.761
50613SOL    HW253673  12.976   6.863   2.623
50614SOL     OW53674  11.473   5.644   9.291
50614SOL    HW153675  11.537   5.701   9.334
50614SOL    HW253676  11.411   5.622   9.361
50615SOL     OW53677  13.613   7.516  13.344
50615SOL    HW153678  13.644   7.599  13.381
50615SOL    HW253679  13.684   7.488  13.286
50616SOL     OW53680   1.680   6.060  12.840
50616SOL    HW153681   1.644   6.002  12.907
50616SOL    HW253682   1.673   6.010  12.759
50617SOL     OW53683   3.158   2.389   0.135
50617SOL    HW153684   3.099   2.438   0.191
50617SOL    HW253685   3.219   2.346   0.195
50618SOL     OW53686   5.819   0.655  13.975
50618SOL    HW153687   5.760   0.610  13.914
50618SOL    HW253688   5.760   0.700  14.035
50619SOL     OW53689  10.382  10.621   4.594
50619SOL    HW153690  10.330  10.688   4.638
50619SOL    HW253691  10.451  10.669   4.549
50620SOL     OW53692  12.400  12.267   4.802
50620SOL    HW153693  12.313  12.236   4.826
50620SOL    HW253694  12.455  12.242   4.876
50621SOL     OW53695   7.395   0.450   3.075
50621SOL    HW153696   7.474   0.429   3.026
50621SOL    HW253697   7.355   0.523   3.027
50622SOL     OW53698  10.663  13.754  12.315
50622SOL    HW153699  10.715  13.682  12.350
50622SOL    HW253700  10.629  13.721  12.232
50623SOL     OW53701   6.748   5.758  12.103
50623SOL    HW153702   6.776   5.848  12.119
50623SOL    HW253703   6.666   5.766  12.055
50624SOL     OW53704   5.008   5.158  10.643
50624SOL    HW153705   4.930   5.112  10.674
50624SOL    HW253706   4.999   5.247  10.678
50625SOL     OW53707  10.298  10.189   6.231
50625SOL    HW153708  10.358  10.262   6.238
50625SOL    HW253709  10.212  10.226   6.252
50626SOL     OW53710  11.774   6.410   6.616
50626SOL    HW153711  11.732   6.385   6.533
50626SOL    HW253712  11.864   6.431   6.592
50627SOL     OW53713   2.487  11.964   5.073
50627SOL    HW153714   2.466  11.878   5.110
50627SOL    HW253715   2.469  11.955   4.980
50628SOL     OW53716   6.940   0.317  13.152
50628SOL    HW153717   6.853   0.300  13.187
50628SOL    HW253718   6.975   0.388  13.206
50629SOL     OW53719   1.818   4.213   7.637
50629SOL    HW153720   1.812   4.297   7.681
50629SOL    HW253721   1.769   4.225   7.555
50630SOL     OW53722   0.303  10.244   5.301
50630SOL    HW153723   0.234  10.205   5.247
50630SOL    HW253724   0.325  10.176   5.365
50631SOL     OW53725   3.335   0.754   3.447
50631SOL    HW153726   3.376   0.680   3.491
50631SOL    HW253727   3.269   0.787   3.508
50632SOL     OW53728   3.625   0.370   7.688
50632SOL    HW153729   3.617   0.280   7.719
50632SOL    HW253730   3.691   0.366   7.619
50633SOL     OW53731   8.483  12.805  12.054
50633SOL    HW153732   8.412  12.860  12.088
50633SOL    HW253733   8.486  12.730  12.113
50634SOL     OW53734   1.325   6.814  10.482
50634SOL    HW153735   1.354   6.738  10.431
50634SOL    HW253736   1.385   6.817  10.556
50635SOL     OW53737  12.185  13.825  12.671
50635SOL    HW153738  12.169  13.910  12.629
50635SOL    HW253739  12.115  13.769  12.639
50636SOL     OW53740   4.208  14.257  10.859
50636SOL    HW153741   4.151  14.280  10.932
50636SOL    HW253742   4.219  14.338  10.809
50637SOL     OW53743   7.348  13.471  11.194
50637SOL    HW153744   7.386  13.538  11.136
50637SOL    HW253745   7.285  13.425  11.138
50638SOL     OW53746  11.571   9.142  10.047
50638SOL    HW153747  11.512   9.216  10.050
50638SOL    HW253748  11.542   9.091   9.971
50639SOL     OW53749   4.337   4.112  13.365
50639SOL    HW153750   4.324   4.031  13.315
50639SOL    HW253751   4.395   4.086  13.437
50640SOL     OW53752   0.924  14.232  13.560
50640SOL    HW153753   0.887  14.162  13.614
50640SOL    HW253754   1.017  14.210  13.553
50641SOL     OW53755   1.634  13.822   6.432
50641SOL    HW153756   1.548  13.783   6.450
50641SOL    HW253757   1.685  13.803   6.510
50642SOL     OW53758   5.495  14.545  11.853
50642SOL    HW153759   5.507  14.640  11.862
50642SOL    HW253760   5.471  14.516  11.941
50643SOL     OW53761   0.276   3.679   8.557
50643SOL    HW153762   0.339   3.718   8.496
50643SOL    HW253763   0.330   3.637   8.624
50644SOL     OW53764   0.638  14.873  14.421
50644SOL    HW153765   0.717  14.819  14.418
50644SOL    HW253766   0.601  14.856  14.508
50645SOL     OW53767   1.698  11.532   4.169
50645SOL    HW153768   1.613  11.544   4.128
50645SOL    HW253769   1.713  11.437   4.166
50646SOL     OW53770   6.396   9.010   1.888
50646SOL    HW153771   6.323   9.026   1.948
50646SOL    HW253772   6.436   8.929   1.919
50647SOL     OW53773   1.052   9.736   8.270
50647SOL    HW153774   1.004   9.798   8.216
50647SOL    HW253775   1.047   9.773   8.359
50648SOL     OW53776   2.292  14.704  11.523
50648SOL    HW153777   2.241  14.769  11.475
50648SOL    HW253778   2.303  14.741  11.610
50649SOL     OW53779   8.024  14.273  10.124
50649SOL    HW153780   8.115  14.295  10.141
50649SOL    HW253781   8.024  14.238  10.035
50650SOL     OW53782   0.700  12.643   6.196
50650SOL    HW153783   0.653  12.662   6.115
50650SOL    HW253784   0.712  12.548   6.196
50651SOL     OW53785   9.925   2.419  11.551
50651SOL    HW153786   9.844   2.416  11.500
50651SOL    HW253787   9.994   2.424  11.485
50652SOL     OW53788  10.721   3.067   6.879
50652SOL    HW153789  10.799   3.062   6.824
50652SOL    HW253790  10.733   3.145   6.933
50653SOL     OW53791   3.176   8.136  12.157
50653SOL    HW153792   3.245   8.181  12.207
50653SOL    HW253793   3.162   8.191  12.080
50654SOL     OW53794   8.786   1.725   1.150
50654SOL    HW153795   8.732   1.714   1.229
50654SOL    HW253796   8.783   1.640   1.107
50655SOL     OW53797   4.295   8.435   8.224
50655SOL    HW153798   4.230   8.431   8.153
50655SOL    HW253799   4.243   8.448   8.303
50656SOL     OW53800   7.987  10.849  13.183
50656SOL    HW153801   7.940  10.874  13.263
50656SOL    HW253802   8.035  10.769  13.208
50657SOL     OW53803   8.218   0.346   9.057
50657SOL    HW153804   8.228   0.262   9.014
50657SOL    HW253805   8.203   0.325   9.149
50658SOL     OW53806   7.153   0.823  10.459
50658SOL    HW153807   7.083   0.854  10.517
50658SOL    HW253808   7.218   0.785  10.517
50659SOL     OW53809  10.752  10.923  10.780
50659SOL    HW153810  10.717  10.845  10.823
50659SOL    HW253811  10.841  10.899  10.755
50660SOL     OW53812   6.902  14.779   1.365
50660SOL    HW153813   6.882  14.872   1.366
50660SOL    HW253814   6.818  14.736   1.349
50661SOL     OW53815   3.878  14.641   8.766
50661SOL    HW153816   3.867  14.730   8.732
50661SOL    HW253817   3.911  14.591   8.692
50662SOL     OW53818   5.994   9.331   0.597
50662SOL    HW153819   6.041   9.383   0.662
50662SOL    HW253820   5.951   9.395   0.541
50663SOL     OW53821   0.160   4.689   4.649
50663SOL    HW153822   0.236   4.668   4.704
50663SOL    HW253823   0.171   4.636   4.571
50664SOL     OW53824  10.665  12.491   9.453
50664SOL    HW153825  10.596  12.501   9.388
50664SOL    HW253826  10.727  12.562   9.433
50665SOL     OW53827  13.519  11.396   0.170
50665SOL    HW153828  13.436  11.440   0.192
50665SOL    HW253829  13.506  11.306   0.198
50666SOL     OW53830   7.578   0.315  14.002
50666SOL    HW153831   7.652   0.295  13.944
50666SOL    HW253832   7.618   0.342  14.084
50667SOL     OW53833   3.906   9.423  12.518
50667SOL    HW153834   3.855   9.387  12.591
50667SOL    HW253835   3.991   9.443  12.555
50668SOL     OW53836   3.939   6.896   4.310
50668SOL    HW153837   3.880   6.914   4.237
50668SOL    HW253838   3.886   6.913   4.388
50669SOL     OW53839   9.935  11.649  13.653
50669SOL    HW153840   9.845  11.617  13.649
50669SOL    HW253841   9.934  11.731  13.604
50670SOL     OW53842   3.023   8.142   6.371
50670SOL    HW153843   2.988   8.155   6.459
50670SOL    HW253844   2.995   8.220   6.322
50671SOL     OW53845  13.314   7.164   5.851
50671SOL    HW153846  13.382   7.170   5.784
50671SOL    HW253847  13.272   7.079   5.834
50672SOL     OW53848  13.589   2.795  14.645
50672SOL    HW153849  13.565   2.874  14.598
50672SOL    HW253850  13.634   2.826  14.723
50673SOL     OW53851  10.194  10.966   9.974
50673SOL    HW153852  10.187  11.019  10.053
50673SOL    HW253853  10.128  10.897   9.986
50674SOL     OW53854   5.781  11.531   3.016
50674SOL    HW153855   5.788  11.594   2.944
50674SOL    HW253856   5.687  11.521   3.030
50675SOL     OW53857   6.352  13.912   3.973
50675SOL    HW153858   6.374  13.916   3.880
50675SOL    HW253859   6.273  13.858   3.977
50676SOL     OW53860  13.818  10.734  13.870
50676SOL    HW153861  13.849  10.721  13.780
50676SOL    HW253862  13.756  10.806  13.864
50677SOL     OW53863   6.191   8.770   3.324
50677SOL    HW153864   6.173   8.704   3.258
50677SOL    HW253865   6.283   8.756   3.349
50678SOL     OW53866   9.107   0.251   3.716
50678SOL    HW153867   9.084   0.338   3.683
50678SOL    HW253868   9.111   0.196   3.638
50679SOL     OW53869   5.744  13.148   8.712
50679SOL    HW153870   5.739  13.112   8.801
50679SOL    HW253871   5.652  13.159   8.686
50680SOL     OW53872   1.552  10.541   2.376
50680SOL    HW153873   1.629  10.596   2.364
50680SOL    HW253874   1.571  10.489   2.454
50681SOL     OW53875   7.294   3.957  14.184
50681SOL    HW153876   7.261   3.972  14.273
50681SOL    HW253877   7.369   3.899  14.197
50682SOL     OW53878   5.052   1.806   0.775
50682SOL    HW153879   5.006   1.725   0.750
50682SOL    HW253880   5.060   1.800   0.871
50683SOL     OW53881  11.585   2.327  11.669
50683SOL    HW153882  11.558   2.400  11.614
50683SOL    HW253883  11.587   2.363  11.758
50684SOL     OW53884  10.437  10.734   2.755
50684SOL    HW153885  10.367  10.675   2.784
50684SOL    HW253886  10.453  10.709   2.664
50685SOL     OW53887   9.808   3.220  13.080
50685SOL    HW153888   9.877   3.165  13.043
50685SOL    HW253889   9.761   3.162  13.140
50686SOL     OW53890   7.591  11.677   0.203
50686SOL    HW153891   7.594  11.581   0.205
50686SOL    HW253892   7.633  11.704   0.284
50687SOL     OW53893   5.881   7.951   5.539
50687SOL    HW153894   5.945   7.958   5.468
50687SOL    HW253895   5.798   7.976   5.499
50688SOL     OW53896   9.390  11.099   8.960
50688SOL    HW153897   9.337  11.025   8.930
50688SOL    HW253898   9.452  11.061   9.022
50689SOL     OW53899  14.781   0.839   9.460
50689SOL    HW153900  14.814   0.916   9.507
50689SOL    HW253901  14.704   0.812   9.509
50690SOL     OW53902   4.705   7.867   2.445
50690SOL    HW153903   4.624   7.833   2.483
50690SOL    HW253904   4.744   7.791   2.402
50691SOL     OW53905   5.142   4.274   7.540
50691SOL    HW153906   5.093   4.328   7.602
50691SOL    HW253907   5.081   4.205   7.514
50692SOL     OW53908   2.714  12.746   0.990
50692SOL    HW153909   2.705  12.667   0.937
50692SOL    HW253910   2.688  12.719   1.078
50693SOL     OW53911   7.017   0.791   3.488
50693SOL    HW153912   7.066   0.808   3.569
50693SOL    HW253913   7.009   0.876   3.445
50694SOL     OW53914   6.825   0.706  13.006
50694SOL    HW153915   6.806   0.724  12.915
50694SOL    HW253916   6.799   0.614  13.019
50695SOL     OW53917   3.110   3.681  11.572
50695SOL    HW153918   3.138   3.689  11.481
50695SOL    HW253919   3.041   3.746  11.582
50696SOL     OW53920  12.522   1.574  11.832
50696SOL    HW153921  12.567   1.627  11.766
50696SOL    HW253922  12.571   1.491  11.834
50697SOL     OW53923   5.631   2.716   7.908
50697SOL    HW153924   5.661   2.634   7.869
50697SOL    HW253925   5.580   2.759   7.840
50698SOL     OW53926   6.482   2.930   7.699
50698SOL    HW153927   6.575   2.945   7.682
50698SOL    HW253928   6.445   2.911   7.612
50699SOL     OW53929   5.445   5.605   5.329
50699SOL    HW153930   5.471   5.562   5.410
50699SOL    HW253931   5.514   5.584   5.267
50700SOL     OW53932   9.317   6.951   2.824
50700SOL    HW153933   9.355   6.864   2.820
50700SOL    HW253934   9.355   6.991   2.902
50701SOL     OW53935  14.203   7.021   9.769
50701SOL    HW153936  14.246   7.082   9.710
50701SOL    HW253937  14.224   7.054   9.857
50702SOL     OW53938   7.492   7.694   9.326
50702SOL    HW153939   7.446   7.681   9.243
50702SOL    HW253940   7.424   7.714   9.390
50703SOL     OW53941   6.985   3.121   1.839
50703SOL    HW153942   6.912   3.060   1.832
50703SOL    HW253943   7.046   3.079   1.900
50704SOL     OW53944  14.442   3.223  11.596
50704SOL    HW153945  14.394   3.302  11.619
50704SOL    HW253946  14.516   3.254  11.543
50705SOL     OW53947   5.777   6.997   5.978
50705SOL    HW153948   5.693   6.958   5.954
50705SOL    HW253949   5.777   6.996   6.073
50706SOL     OW53950  14.493   7.801  10.878
50706SOL    HW153951  14.555   7.737  10.843
50706SOL    HW253952  14.480   7.863  10.807
50707SOL     OW53953   3.484   7.803   5.005
50707SOL    HW153954   3.521   7.731   5.057
50707SOL    HW253955   3.547   7.874   5.014
50708SOL     OW53956  10.434   0.879   2.070
50708SOL    HW153957  10.392   0.883   1.983
50708SOL    HW253958  10.526   0.901   2.053
50709SOL     OW53959  13.527  13.356   6.958
50709SOL    HW153960  13.562  13.399   6.880
50709SOL    HW253961  13.457  13.414   6.989
50710SOL     OW53962  12.436   3.220   8.337
50710SOL    HW153963  12.490   3.292   8.368
50710SOL    HW253964  12.395   3.185   8.415
50711SOL     OW53965   2.421   5.358  14.371
50711SOL    HW153966   2.468   5.415  14.310
50711SOL    HW253967   2.489   5.301  14.407
50712SOL     OW53968   2.114   6.318   5.254
50712SOL    HW153969   2.109   6.261   5.177
50712SOL    HW253970   2.207   6.329   5.270
50713SOL     OW53971  14.324   8.533   9.134
50713SOL    HW153972  14.231   8.514   9.136
50713SOL    HW253973  14.330   8.621   9.097
50714SOL     OW53974  10.714   9.492  10.539
50714SOL    HW153975  10.788   9.476  10.598
50714SOL    HW253976  10.668   9.567  10.578
50715SOL     OW53977  13.929   6.059  12.972
50715SOL    HW153978  13.952   5.986  13.029
50715SOL    HW253979  13.878   6.019  12.901
50716SOL     OW53980   4.282   3.170   0.738
50716SOL    HW153981   4.321   3.092   0.778
50716SOL    HW253982   4.199   3.140   0.701
50717SOL     OW53983  10.122  11.884  12.011
50717SOL    HW153984  10.159  11.818  12.069
50717SOL    HW253985  10.168  11.871  11.928
50718SOL     OW53986   8.101   7.141   5.854
50718SOL    HW153987   8.163   7.129   5.782
50718SOL    HW253988   8.097   7.235   5.867
50719SOL     OW53989  13.320  14.561   9.322
50719SOL    HW153990  13.323  14.582   9.229
50719SOL    HW253991  13.362  14.475   9.329
50720SOL     OW53992   5.532   8.293  14.146
50720SOL    HW153993   5.496   8.363  14.092
50720SOL    HW253994   5.566   8.229  14.083
50721SOL     OW53995   8.629  13.880   2.222
50721SOL    HW153996   8.605  13.787   2.218
50721SOL    HW253997   8.662  13.892   2.311
50722SOL     OW53998   2.848   1.873   3.516
50722SOL    HW153999   2.940   1.852   3.503
50722SOL    HW254000   2.845   1.968   3.521
50723SOL     OW54001  11.876  13.411   3.993
50723SOL    HW154002  11.936  13.343   3.962
50723SOL    HW254003  11.924  13.455   4.064
50724SOL     OW54004   7.885  12.870   0.426
50724SOL    HW154005   7.895  12.920   0.507
50724SOL    HW254006   7.974  12.841   0.404
50725SOL     OW54007  13.904   7.512   9.085
50725SOL    HW154008  13.865   7.436   9.128
50725SOL    HW254009  13.874   7.507   8.994
50726SOL     OW54010  11.141   7.285   8.892
50726SOL    HW154011  11.067   7.303   8.834
50726SOL    HW254012  11.104   7.233   8.963
50727SOL     OW54013   7.900  12.487   6.551
50727SOL    HW154014   7.982  12.441   6.569
50727SOL    HW254015   7.924  12.579   6.549
50728SOL     OW54016   8.445   8.808   7.288
50728SOL    HW154017   8.504   8.861   7.341
50728SOL    HW254018   8.386   8.768   7.352
50729SOL     OW54019  12.523   6.873   8.822
50729SOL    HW154020  12.461   6.899   8.754
50729SOL    HW254021  12.593   6.828   8.774
50730SOL     OW54022   4.357   4.161   0.711
50730SOL    HW154023   4.411   4.121   0.643
50730SOL    HW254024   4.275   4.182   0.667
50731SOL     OW54025   9.893   2.903   2.861
50731SOL    HW154026   9.920   2.890   2.770
50731SOL    HW254027   9.971   2.884   2.912
50732SOL     OW54028   2.510   7.643   5.503
50732SOL    HW154029   2.482   7.721   5.456
50732SOL    HW254030   2.605   7.652   5.510
50733SOL     OW54031   0.418  14.777  12.807
50733SOL    HW154032   0.371  14.834  12.868
50733SOL    HW254033   0.468  14.718  12.863
50734SOL     OW54034   5.001   6.920   4.822
50734SOL    HW154035   5.031   6.930   4.912
50734SOL    HW254036   5.029   6.999   4.778
50735SOL     OW54037   5.777   1.493   2.049
50735SOL    HW154038   5.716   1.420   2.044
50735SOL    HW254039   5.805   1.508   1.959
50736SOL     OW54040   7.476  11.910   4.190
50736SOL    HW154041   7.438  11.840   4.138
50736SOL    HW254042   7.513  11.866   4.267
50737SOL     OW54043  11.559   7.745   4.296
50737SOL    HW154044  11.485   7.688   4.319
50737SOL    HW254045  11.523   7.805   4.231
50738SOL     OW54046  11.126   7.327  12.717
50738SOL    HW154047  11.198   7.329  12.780
50738SOL    HW254048  11.047   7.327  12.771
50739SOL     OW54049   2.148  11.140  13.169
50739SOL    HW154050   2.126  11.052  13.201
50739SOL    HW254051   2.235  11.130  13.130
50740SOL     OW54052  10.637  13.314  10.110
50740SOL    HW154053  10.699  13.380  10.141
50740SOL    HW254054  10.578  13.300  10.184
50741SOL     OW54055   6.394   3.478   0.977
50741SOL    HW154056   6.301   3.476   0.998
50741SOL    HW254057   6.412   3.391   0.941
50742SOL     OW54058   1.530  12.495   4.655
50742SOL    HW154059   1.602  12.553   4.631
50742SOL    HW254060   1.568  12.435   4.720
50743SOL     OW54061   5.154   5.010   7.417
50743SOL    HW154062   5.064   5.021   7.448
50743SOL    HW254063   5.199   5.090   7.443
50744SOL     OW54064   3.379   6.747   8.175
50744SOL    HW154065   3.310   6.780   8.233
50744SOL    HW254066   3.416   6.825   8.135
50745SOL     OW54067  13.381  10.497   8.785
50745SOL    HW154068  13.412  10.428   8.727
50745SOL    HW254069  13.460  10.544   8.812
50746SOL     OW54070   9.803  14.038  11.308
50746SOL    HW154071   9.899  14.038  11.308
50746SOL    HW254072   9.780  13.995  11.391
50747SOL     OW54073   5.526   1.385   8.966
50747SOL    HW154074   5.571   1.354   8.888
50747SOL    HW254075   5.500   1.475   8.945
50748SOL     OW54076   2.108  13.086  10.216
50748SOL    HW154077   2.098  13.138  10.295
50748SOL    HW254078   2.136  13.000  10.247
50749SOL     OW54079   2.691   7.446   8.135
50749SOL    HW154080   2.759   7.430   8.201
50749SOL    HW254081   2.636   7.368   8.137
50750SOL     OW54082   4.470  10.527  12.241
50750SOL    HW154083   4.505  10.445  12.277
50750SOL    HW254084   4.384  10.503  12.207
50751SOL     OW54085  11.624   6.219   8.757
50751SOL    HW154086  11.590   6.149   8.701
50751SOL    HW254087  11.579   6.206   8.841
50752SOL     OW54088   6.511   0.403  14.725
50752SOL    HW154089   6.483   0.473  14.784
50752SOL    HW254090   6.515   0.445  14.639
50753SOL     OW54091   7.413   2.855   4.845
50753SOL    HW154092   7.439   2.795   4.915
50753SOL    HW254093   7.364   2.800   4.784
50754SOL     OW54094   4.852   7.409  13.291
50754SOL    HW154095   4.805   7.337  13.248
50754SOL    HW254096   4.837   7.395  13.385
50755SOL     OW54097   2.816  11.711   4.247
50755SOL    HW154098   2.740  11.758   4.282
50755SOL    HW254099   2.785  11.671   4.166
50756SOL     OW54100   5.815   1.824   0.578
50756SOL    HW154101   5.829   1.760   0.509
50756SOL    HW254102   5.726   1.809   0.608
50757SOL     OW54103  12.022  12.124   3.485
50757SOL    HW154104  12.008  12.219   3.481
50757SOL    HW254105  12.049  12.100   3.397
50758SOL     OW54106   5.423   6.108  12.467
50758SOL    HW154107   5.440   6.061  12.549
50758SOL    HW254108   5.343   6.069  12.433
50759SOL     OW54109   3.487   3.721   5.659
50759SOL    HW154110   3.513   3.813   5.657
50759SOL    HW254111   3.392   3.723   5.665
50760SOL     OW54112  11.391  11.875  10.412
50760SOL    HW154113  11.396  11.966  10.443
50760SOL    HW254114  11.457  11.871  10.342
50761SOL     OW54115   4.978   9.416   3.711
50761SOL    HW154116   4.974   9.511   3.707
50761SOL    HW254117   4.922   9.392   3.786
50762SOL     OW54118   9.378   8.152   8.544
50762SOL    HW154119   9.405   8.064   8.570
50762SOL    HW254120   9.314   8.137   8.475
50763SOL     OW54121  12.027   0.474  12.835
50763SOL    HW154122  11.980   0.519  12.906
50763SOL    HW254123  12.071   0.401  12.879
50764SOL     OW54124   3.750   8.662  13.124
50764SOL    HW154125   3.724   8.634  13.036
50764SOL    HW254126   3.703   8.744  13.137
50765SOL     OW54127  11.340   4.754   1.890
50765SOL    HW154128  11.249   4.751   1.858
50765SOL    HW254129  11.341   4.827   1.952
50766SOL     OW54130   0.702  12.600   0.947
50766SOL    HW154131   0.741  12.688   0.946
50766SOL    HW254132   0.775  12.541   0.960
50767SOL     OW54133   8.551  14.550   0.237
50767SOL    HW154134   8.578  14.500   0.160
50767SOL    HW254135   8.547  14.641   0.207
50768SOL     OW54136  12.071   9.808   0.475
50768SOL    HW154137  12.045   9.752   0.548
50768SOL    HW254138  12.026   9.891   0.491
50769SOL     OW54139   8.344   5.938   1.131
50769SOL    HW154140   8.440   5.944   1.130
50769SOL    HW254141   8.316   5.985   1.052
50770SOL     OW54142  12.941   6.541   6.684
50770SOL    HW154143  12.912   6.499   6.603
50770SOL    HW254144  12.864   6.589   6.714
50771SOL     OW54145   7.783  12.385   6.338
50771SOL    HW154146   7.830  12.433   6.406
50771SOL    HW254147   7.849  12.330   6.297
50772SOL     OW54148  11.415  13.455  13.269
50772SOL    HW154149  11.422  13.542  13.229
50772SOL    HW254150  11.401  13.474  13.362
50773SOL     OW54151   8.910   2.471  14.790
50773SOL    HW154152   8.828   2.422  14.794
50773SOL    HW254153   8.906   2.517  14.706
50774SOL     OW54154   8.682  12.279   0.426
50774SOL    HW154155   8.697  12.368   0.457
50774SOL    HW254156   8.743  12.225   0.475
50775SOL     OW54157  10.620   1.665  12.776
50775SOL    HW154158  10.622   1.626  12.864
50775SOL    HW254159  10.632   1.759  12.791
50776SOL     OW54160   1.893   8.363   8.357
50776SOL    HW154161   1.914   8.450   8.322
50776SOL    HW254162   1.938   8.303   8.298
50777SOL     OW54163  12.232  14.607   4.845
50777SOL    HW154164  12.219  14.701   4.836
50777SOL    HW254165  12.204  14.587   4.935
50778SOL     OW54166   7.532   2.826  14.246
50778SOL    HW154167   7.484   2.873  14.177
50778SOL    HW254168   7.559   2.894  14.307
50779SOL     OW54169   2.252  12.095   7.690
50779SOL    HW154170   2.169  12.090   7.641
50779SOL    HW254171   2.253  12.183   7.726
50780SOL     OW54172  12.027   5.498   7.083
50780SOL    HW154173  11.945   5.479   7.038
50780SOL    HW254174  12.008   5.573   7.138
50781SOL     OW54175  10.498  12.757   1.011
50781SOL    HW154176  10.563  12.689   1.022
50781SOL    HW254177  10.549  12.837   0.997
50782SOL     OW54178   8.779   6.800   9.411
50782SOL    HW154179   8.794   6.710   9.380
50782SOL    HW254180   8.704   6.792   9.471
50783SOL     OW54181  14.843  12.780   7.908
50783SOL    HW154182   0.054  12.800   7.950
50783SOL    HW254183  14.785  12.851   7.935
50784SOL     OW54184  11.500   4.448   3.136
50784SOL    HW154185  11.482   4.361   3.173
50784SOL    HW254186  11.414   4.478   3.106
50785SOL     OW54187   5.194   6.927  13.057
50785SOL    HW154188   5.145   7.003  13.026
50785SOL    HW254189   5.211   6.946  13.150
50786SOL     OW54190   6.176   4.775   9.215
50786SOL    HW154191   6.228   4.701   9.245
50786SOL    HW254192   6.142   4.748   9.130
50787SOL     OW54193   1.576   2.748   8.456
50787SOL    HW154194   1.514   2.792   8.515
50787SOL    HW254195   1.662   2.766   8.494
50788SOL     OW54196   0.297   2.994  12.744
50788SOL    HW154197   0.280   2.900  12.748
50788SOL    HW254198   0.222   3.034  12.788
50789SOL     OW54199   3.831   0.591  14.572
50789SOL    HW154200   3.831   0.509  14.523
50789SOL    HW254201   3.821   0.659  14.505
50790SOL     OW54202  10.279  12.362  14.404
50790SOL    HW154203  10.370  12.350  14.433
50790SOL    HW254204  10.283  12.364  14.309
50791SOL     OW54205   0.280   0.233  11.205
50791SOL    HW154206   0.265   0.251  11.298
50791SOL    HW254207   0.203   0.184  11.177
50792SOL     OW54208   8.323   0.112  13.003
50792SOL    HW154209   8.294   0.024  13.026
50792SOL    HW254210   8.242   0.161  12.990
50793SOL     OW54211   4.544  10.453  12.845
50793SOL    HW154212   4.533  10.533  12.795
50793SOL    HW254213   4.552  10.482  12.936
50794SOL     OW54214   2.712  12.474  10.618
50794SOL    HW154215   2.799  12.480  10.577
50794SOL    HW254216   2.665  12.410  10.565
50795SOL     OW54217   1.181   7.622   2.703
50795SOL    HW154218   1.139   7.565   2.767
50795SOL    HW254219   1.274   7.603   2.711
50796SOL     OW54220  10.251  13.778   5.239
50796SOL    HW154221  10.270  13.861   5.282
50796SOL    HW254222  10.164  13.754   5.271
50797SOL     OW54223   4.381   6.464  10.385
50797SOL    HW154224   4.412   6.554  10.379
50797SOL    HW254225   4.436   6.425  10.454
50798SOL     OW54226   5.210  14.053  13.438
50798SOL    HW154227   5.147  13.987  13.411
50798SOL    HW254228   5.237  14.096  13.357
50799SOL     OW54229   3.329   7.815   4.662
50799SOL    HW154230   3.310   7.896   4.710
50799SOL    HW254231   3.334   7.748   4.730
50800SOL     OW54232   2.524  11.117   0.896
50800SOL    HW154233   2.456  11.167   0.941
50800SOL    HW254234   2.606  11.155   0.927
50801SOL     OW54235  11.693   7.952   2.073
50801SOL    HW154236  11.660   7.984   2.157
50801SOL    HW254237  11.726   8.030   2.029
50802SOL     OW54238   3.679   5.447   8.390
50802SOL    HW154239   3.728   5.387   8.334
50802SOL    HW254240   3.747   5.494   8.438
50803SOL     OW54241   6.204  11.644  12.436
50803SOL    HW154242   6.202  11.565  12.491
50803SOL    HW254243   6.214  11.716  12.499
50804SOL     OW54244   9.762   9.159  10.323
50804SOL    HW154245   9.842   9.166  10.271
50804SOL    HW254246   9.731   9.069  10.308
50805SOL     OW54247   8.847   0.164   6.196
50805SOL    HW154248   8.846   0.169   6.292
50805SOL    HW254249   8.937   0.184   6.172
50806SOL     OW54250  13.144  13.237  14.586
50806SOL    HW154251  13.154  13.293  14.509
50806SOL    HW254252  13.105  13.293  14.653
50807SOL     OW54253  14.006   9.834   6.560
50807SOL    HW154254  14.100   9.826   6.576
50807SOL    HW254255  13.997   9.823   6.465
50808SOL     OW54256  13.789   8.118  11.847
50808SOL    HW154257  13.831   8.035  11.871
50808SOL    HW254258  13.843   8.185  11.888
50809SOL     OW54259   9.490  11.142  13.610
50809SOL    HW154260   9.524  11.133  13.699
50809SOL    HW254261   9.504  11.055  13.570
50810SOL     OW54262   0.110   3.173   5.216
50810SOL    HW154263   0.125   3.219   5.134
50810SOL    HW254264   0.062   3.094   5.192
50811SOL     OW54265   2.136   4.833   9.216
50811SOL    HW154266   2.194   4.761   9.190
50811SOL    HW254267   2.055   4.790   9.242
50812SOL     OW54268   7.927   0.961   9.540
50812SOL    HW154269   7.948   0.880   9.585
50812SOL    HW254270   7.893   1.019   9.609
50813SOL     OW54271   8.854  12.149  13.791
50813SOL    HW154272   8.901  12.224  13.756
50813SOL    HW254273   8.833  12.096  13.714
50814SOL     OW54274   7.222  10.595  11.591
50814SOL    HW154275   7.136  10.570  11.556
50814SOL    HW254276   7.276  10.609  11.514
50815SOL     OW54277  12.516   1.012   7.701
50815SOL    HW154278  12.560   1.084   7.656
50815SOL    HW254279  12.426   1.016   7.669
50816SOL     OW54280  14.176   6.229  10.137
50816SOL    HW154281  14.232   6.189  10.071
50816SOL    HW254282  14.237   6.268  10.199
50817SOL     OW54283   3.186   5.109   6.644
50817SOL    HW154284   3.202   5.162   6.566
50817SOL    HW254285   3.274   5.085   6.674
50818SOL     OW54286   1.713  12.567  12.900
50818SOL    HW154287   1.622  12.583  12.924
50818SOL    HW254288   1.763  12.631  12.952
50819SOL     OW54289   7.372   8.821   2.206
50819SOL    HW154290   7.436   8.878   2.164
50819SOL    HW254291   7.417   8.786   2.283
50820SOL     OW54292   5.365   0.266   1.583
50820SOL    HW154293   5.290   0.322   1.564
50820SOL    HW254294   5.425   0.322   1.632
50821SOL     OW54295   7.468   5.268   7.424
50821SOL    HW154296   7.406   5.332   7.387
50821SOL    HW254297   7.455   5.274   7.518
50822SOL     OW54298   8.174  11.991  11.781
50822SOL    HW154299   8.122  12.069  11.801
50822SOL    HW254300   8.204  12.004  11.691
50823SOL     OW54301   2.701   7.367   7.185
50823SOL    HW154302   2.726   7.275   7.184
50823SOL    HW254303   2.661   7.382   7.100
50824SOL     OW54304   6.035   7.259   4.449
50824SOL    HW154305   5.968   7.285   4.512
50824SOL    HW254306   5.985   7.238   4.369
50825SOL     OW54307   8.869   4.478   6.897
50825SOL    HW154308   8.885   4.564   6.860
50825SOL    HW254309   8.890   4.488   6.990
50826SOL     OW54310   2.406   0.055   8.130
50826SOL    HW154311   2.403   0.097   8.216
50826SOL    HW254312   2.316   0.058   8.099
50827SOL     OW54313  13.716   9.567   5.106
50827SOL    HW154314  13.792   9.619   5.079
50827SOL    HW254315  13.653   9.632   5.137
50828SOL     OW54316   5.127   0.415   3.273
50828SOL    HW154317   5.037   0.447   3.266
50828SOL    HW254318   5.181   0.488   3.244
50829SOL     OW54319  11.204   1.970   0.027
50829SOL    HW154320  11.160   1.996   0.108
50829SOL    HW254321  11.265   1.901   0.054
50830SOL     OW54322   7.428   7.413   8.703
50830SOL    HW154323   7.418   7.441   8.612
50830SOL    HW254324   7.437   7.318   8.698
50831SOL     OW54325  12.340   4.938   0.736
50831SOL    HW154326  12.418   4.916   0.788
50831SOL    HW254327  12.281   4.980   0.798
50832SOL     OW54328  10.490  11.123  11.366
50832SOL    HW154329  10.420  11.148  11.306
50832SOL    HW254330  10.481  11.028  11.376
50833SOL     OW54331   7.940   7.652  12.911
50833SOL    HW154332   7.918   7.739  12.943
50833SOL    HW254333   8.029   7.661  12.876
50834SOL     OW54334   9.561   1.388   4.857
50834SOL    HW154335   9.555   1.365   4.764
50834SOL    HW254336   9.473   1.373   4.892
50835SOL     OW54337   6.510   7.677  13.879
50835SOL    HW154338   6.524   7.586  13.905
50835SOL    HW254339   6.595   7.719  13.893
50836SOL     OW54340   5.042   6.007   3.258
50836SOL    HW154341   4.950   5.988   3.275
50836SOL    HW254342   5.050   6.004   3.162
50837SOL     OW54343  10.694   7.051   0.911
50837SOL    HW154344  10.780   7.011   0.927
50837SOL    HW254345  10.688   7.058   0.816
50838SOL     OW54346   4.404   6.125  10.486
50838SOL    HW154347   4.499   6.113  10.484
50838SOL    HW254348   4.375   6.103  10.397
50839SOL     OW54349   9.406   0.167   3.700
50839SOL    HW154350   9.321   0.206   3.678
50839SOL    HW254351   9.386   0.074   3.715
50840SOL     OW54352   0.376  10.022   3.392
50840SOL    HW154353   0.290  10.060   3.409
50840SOL    HW254354   0.432  10.097   3.372
50841SOL     OW54355   3.079   6.217  12.436
50841SOL    HW154356   3.113   6.247  12.520
50841SOL    HW254357   3.137   6.145  12.411
50842SOL     OW54358   7.257  12.495   4.142
50842SOL    HW154359   7.258  12.591   4.142
50842SOL    HW254360   7.349  12.470   4.131
50843SOL     OW54361  13.331   6.832   5.356
50843SOL    HW154362  13.353   6.752   5.308
50843SOL    HW254363  13.273   6.802   5.426
50844SOL     OW54364  13.178   7.365   0.850
50844SOL    HW154365  13.253   7.361   0.791
50844SOL    HW254366  13.140   7.278   0.848
50845SOL     OW54367   4.221  10.075  11.996
50845SOL    HW154368   4.163  10.056  12.070
50845SOL    HW254369   4.298  10.115  12.036
50846SOL     OW54370   9.142   3.004   9.295
50846SOL    HW154371   9.084   2.974   9.224
50846SOL    HW254372   9.137   2.934   9.360
50847SOL     OW54373  11.853   5.474   7.801
50847SOL    HW154374  11.890   5.562   7.809
50847SOL    HW254375  11.786   5.471   7.869
50848SOL     OW54376  10.558   4.590  10.360
50848SOL    HW154377  10.624   4.524  10.380
50848SOL    HW254378  10.477   4.556  10.398
50849SOL     OW54379   8.302  12.619   3.682
50849SOL    HW154380   8.319  12.701   3.635
50849SOL    HW254381   8.219  12.635   3.728
50850SOL     OW54382   4.327   5.032  10.652
50850SOL    HW154383   4.338   5.121  10.617
50850SOL    HW254384   4.374   5.034  10.736
50851SOL     OW54385   3.466  10.925   9.935
50851SOL    HW154386   3.516  10.951   9.857
50851SOL    HW254387   3.525  10.945  10.008
50852SOL     OW54388   1.330   0.797   4.026
50852SOL    HW154389   1.371   0.726   4.075
50852SOL    HW254390   1.347   0.875   4.079
50853SOL     OW54391   6.091   4.743  10.740
50853SOL    HW154392   6.173   4.771  10.781
50853SOL    HW254393   6.043   4.824  10.724
50854SOL     OW54394   9.185   7.105  12.758
50854SOL    HW154395   9.122   7.036  12.780
50854SOL    HW254396   9.163   7.177  12.817
50855SOL     OW54397  12.685   4.775  10.553
50855SOL    HW154398  12.656   4.689  10.582
50855SOL    HW254399  12.623   4.836  10.592
50856SOL     OW54400   2.604   5.879   7.538
50856SOL    HW154401   2.687   5.906   7.500
50856SOL    HW254402   2.552   5.850   7.463
50857SOL     OW54403  10.095  11.961  10.170
50857SOL    HW154404  10.147  12.041  10.179
50857SOL    HW254405  10.100  11.940  10.077
50858SOL     OW54406  13.342  12.493   6.154
50858SOL    HW154407  13.258  12.450   6.162
50858SOL    HW254408  13.386  12.448   6.081
50859SOL     OW54409   6.934   6.812   2.501
50859SOL    HW154410   6.964   6.857   2.422
50859SOL    HW254411   6.843   6.839   2.511
50860SOL     OW54412   4.796   2.611   5.688
50860SOL    HW154413   4.845   2.591   5.767
50860SOL    HW254414   4.713   2.564   5.698
50861SOL     OW54415   3.716  10.565  10.551
50861SOL    HW154416   3.733  10.639  10.609
50861SOL    HW254417   3.741  10.488  10.601
50862SOL     OW54418  10.212   1.076  13.331
50862SOL    HW154419  10.223   1.169  13.308
50862SOL    HW254420  10.131   1.074  13.382
50863SOL     OW54421   2.291   6.526   4.785
50863SOL    HW154422   2.319   6.579   4.860
50863SOL    HW254423   2.362   6.463   4.772
50864SOL     OW54424   0.179   0.793  14.490
50864SOL    HW154425   0.117   0.861  14.517
50864SOL    HW254426   0.194   0.741  14.568
50865SOL     OW54427   6.438   3.723  13.113
50865SOL    HW154428   6.351   3.742  13.148
50865SOL    HW254429   6.481   3.808  13.109
50866SOL     OW54430   5.442  10.820   7.372
50866SOL    HW154431   5.465  10.756   7.305
50866SOL    HW254432   5.526  10.858   7.398
50867SOL     OW54433  11.521   7.222  12.427
50867SOL    HW154434  11.517   7.146  12.485
50867SOL    HW254435  11.461   7.200  12.355
50868SOL     OW54436  12.481   2.808  11.492
50868SOL    HW154437  12.460   2.827  11.583
50868SOL    HW254438  12.537   2.730  11.495
50869SOL     OW54439   2.008   4.503   3.083
50869SOL    HW154440   1.926   4.553   3.080
50869SOL    HW254441   2.075   4.567   3.060
50870SOL     OW54442   5.912  14.212   7.413
50870SOL    HW154443   5.819  14.203   7.430
50870SOL    HW254444   5.950  14.128   7.438
50871SOL     OW54445   8.159   4.775   2.777
50871SOL    HW154446   8.113   4.854   2.749
50871SOL    HW254447   8.127   4.707   2.718
50872SOL     OW54448   3.053   7.773   0.091
50872SOL    HW154449   3.054   7.868   0.074
50872SOL    HW254450   2.961   7.755   0.113
50873SOL     OW54451   3.673   9.946  11.261
50873SOL    HW154452   3.767   9.958  11.247
50873SOL    HW254453   3.656   9.993  11.343
50874SOL     OW54454   5.434   7.415   3.104
50874SOL    HW154455   5.341   7.395   3.092
50874SOL    HW254456   5.480   7.336   3.076
50875SOL     OW54457  12.766   0.193  14.643
50875SOL    HW154458  12.813   0.186  14.560
50875SOL    HW254459  12.699   0.260  14.628
50876SOL     OW54460   5.665  10.952   2.971
50876SOL    HW154461   5.597  10.944   2.904
50876SOL    HW254462   5.676  11.046   2.982
50877SOL     OW54463   7.369  13.768  10.434
50877SOL    HW154464   7.311  13.836  10.401
50877SOL    HW254465   7.449  13.814  10.458
50878SOL     OW54466   1.313  14.144   3.268
50878SOL    HW154467   1.391  14.162   3.320
50878SOL    HW254468   1.301  14.223   3.215
50879SOL     OW54469   8.662  12.959   4.592
50879SOL    HW154470   8.578  12.999   4.616
50879SOL    HW254471   8.649  12.930   4.501
50880SOL     OW54472   6.639  12.307   0.251
50880SOL    HW154473   6.567  12.337   0.195
50880SOL    HW254474   6.643  12.213   0.236
50881SOL     OW54475  10.104   5.865  13.586
50881SOL    HW154476  10.178   5.897  13.536
50881SOL    HW254477  10.027   5.889  13.534
50882SOL     OW54478   7.460   2.647   3.937
50882SOL    HW154479   7.455   2.583   4.007
50882SOL    HW254480   7.528   2.709   3.966
50883SOL     OW54481  14.540  12.474   3.315
50883SOL    HW154482  14.511  12.446   3.228
50883SOL    HW254483  14.521  12.568   3.316
50884SOL     OW54484   2.408   7.786  11.578
50884SOL    HW154485   2.444   7.793  11.666
50884SOL    HW254486   2.483   7.765  11.523
50885SOL     OW54487  11.076   7.830   0.537
50885SOL    HW154488  11.054   7.872   0.620
50885SOL    HW254489  10.997   7.840   0.484
50886SOL     OW54490  12.697   8.200   1.685
50886SOL    HW154491  12.769   8.142   1.709
50886SOL    HW254492  12.733   8.288   1.694
50887SOL     OW54493  10.579  11.652   5.805
50887SOL    HW154494  10.527  11.696   5.872
50887SOL    HW254495  10.517  11.637   5.733
50888SOL     OW54496   3.620  12.796  11.754
50888SOL    HW154497   3.670  12.818  11.676
50888SOL    HW254498   3.609  12.701  11.751
50889SOL     OW54499  10.567   9.721  10.284
50889SOL    HW154500  10.504   9.752  10.219
50889SOL    HW254501  10.529   9.640  10.317
50890SOL     OW54502  14.151   3.997   6.218
50890SOL    HW154503  14.216   4.067   6.212
50890SOL    HW254504  14.085   4.030   6.278
50891SOL     OW54505  10.808  12.315  12.222
50891SOL    HW154506  10.831  12.250  12.288
50891SOL    HW254507  10.873  12.302  12.153
50892SOL     OW54508  13.619   9.189   9.495
50892SOL    HW154509  13.611   9.259   9.559
50892SOL    HW254510  13.563   9.119   9.528
50893SOL     OW54511   8.205  14.520   2.525
50893SOL    HW154512   8.285  14.526   2.577
50893SOL    HW254513   8.234  14.530   2.435
50894SOL     OW54514   6.902  12.799   8.251
50894SOL    HW154515   6.815  12.836   8.234
50894SOL    HW254516   6.888  12.704   8.252
50895SOL     OW54517   1.729   5.731   2.393
50895SOL    HW154518   1.691   5.793   2.331
50895SOL    HW254519   1.768   5.787   2.461
50896SOL     OW54520  13.814   7.605   0.826
50896SOL    HW154521  13.851   7.634   0.742
50896SOL    HW254522  13.774   7.520   0.806
50897SOL     OW54523   2.821   1.359  14.357
50897SOL    HW154524   2.742   1.308  14.339
50897SOL    HW254525   2.893   1.296  14.349
50898SOL     OW54526   8.570   1.406   4.038
50898SOL    HW154527   8.665   1.407   4.049
50898SOL    HW254528   8.549   1.492   4.002
50899SOL     OW54529   9.478  14.832   6.614
50899SOL    HW154530   9.460   0.001   6.529
50899SOL    HW254531   9.548  14.770   6.595
50900SOL     OW54532   2.078   6.652   6.178
50900SOL    HW154533   2.018   6.713   6.222
50900SOL    HW254534   2.152   6.707   6.152
50901SOL     OW54535  13.036   8.867   7.054
50901SOL    HW154536  13.049   8.773   7.043
50901SOL    HW254537  13.043   8.903   6.966
50902SOL     OW54538   7.636   0.503   2.421
50902SOL    HW154539   7.560   0.485   2.476
50902SOL    HW254540   7.599   0.521   2.334
50903SOL     OW54541   0.771   7.412   7.680
50903SOL    HW154542   0.839   7.384   7.742
50903SOL    HW254543   0.731   7.331   7.650
50904SOL     OW54544   3.205   8.308  10.831
50904SOL    HW154545   3.109   8.307  10.821
50904SOL    HW254546   3.234   8.376  10.771
50905SOL     OW54547   6.584   8.659  14.362
50905SOL    HW154548   6.640   8.598  14.313
50905SOL    HW254549   6.547   8.716  14.294
50906SOL     OW54550  14.704   8.409   7.169
50906SOL    HW154551  14.693   8.495   7.129
50906SOL    HW254552  14.671   8.419   7.258
50907SOL     OW54553   1.383   3.839  10.938
50907SOL    HW154554   1.469   3.829  10.978
50907SOL    HW254555   1.400   3.833  10.844
50908SOL     OW54556   7.600   7.607   9.633
50908SOL    HW154557   7.506   7.591   9.622
50908SOL    HW254558   7.607   7.644   9.721
50909SOL     OW54559   4.570  13.272  11.154
50909SOL    HW154560   4.570  13.358  11.112
50909SOL    HW254561   4.513  13.219  11.099
50910SOL     OW54562  14.363  12.053  12.766
50910SOL    HW154563  14.347  11.976  12.821
50910SOL    HW254564  14.429  12.103  12.814
50911SOL     OW54565   3.194   8.730   6.133
50911SOL    HW154566   3.169   8.706   6.043
50911SOL    HW254567   3.290   8.728   6.132
50912SOL     OW54568   5.080  14.189   7.057
50912SOL    HW154569   5.059  14.281   7.072
50912SOL    HW254570   5.175  14.186   7.053
50913SOL     OW54571   8.769   1.369   8.954
50913SOL    HW154572   8.673   1.374   8.950
50913SOL    HW254573   8.798   1.385   8.865
50914SOL     OW54574  14.556  11.379  13.617
50914SOL    HW154575  14.520  11.303  13.663
50914SOL    HW254576  14.641  11.395  13.659
50915SOL     OW54577  14.100   1.871   2.388
50915SOL    HW154578  14.122   1.953   2.344
50915SOL    HW254579  14.174   1.814   2.371
50916SOL     OW54580   3.699  11.014   6.086
50916SOL    HW154581   3.682  10.927   6.122
50916SOL    HW254582   3.795  11.020   6.082
50917SOL     OW54583   7.427  10.608  10.629
50917SOL    HW154584   7.412  10.544  10.699
50917SOL    HW254585   7.521  10.609  10.617
50918SOL     OW54586   9.156  13.597   7.688
50918SOL    HW154587   9.074  13.561   7.656
50918SOL    HW254588   9.137  13.625   7.778
50919SOL     OW54589   7.909  13.467   9.080
50919SOL    HW154590   7.990  13.416   9.078
50919SOL    HW254591   7.894  13.492   8.989
50920SOL     OW54592  12.871   6.534   8.983
50920SOL    HW154593  12.906   6.448   8.962
50920SOL    HW254594  12.896   6.589   8.909
50921SOL     OW54595  12.482  13.242  14.557
50921SOL    HW154596  12.469  13.162  14.507
50921SOL    HW254597  12.577  13.246  14.572
50922SOL     OW54598  14.735   9.950   7.132
50922SOL    HW154599  14.800   9.997   7.184
50922SOL    HW254600  14.787   9.893   7.075
50923SOL     OW54601   9.646  13.677   6.203
50923SOL    HW154602   9.635  13.770   6.185
50923SOL    HW254603   9.609  13.633   6.126
50924SOL     OW54604  13.134   5.383   2.141
50924SOL    HW154605  13.152   5.459   2.197
50924SOL    HW254606  13.121   5.420   2.054
50925SOL     OW54607   7.512  11.516  12.758
50925SOL    HW154608   7.509  11.518  12.662
50925SOL    HW254609   7.579  11.581  12.781
50926SOL     OW54610  10.473   0.622   8.628
50926SOL    HW154611  10.474   0.699   8.571
50926SOL    HW254612  10.473   0.548   8.568
50927SOL     OW54613  11.331  14.631   8.741
50927SOL    HW154614  11.378  14.662   8.664
50927SOL    HW254615  11.264  14.697   8.757
50928SOL     OW54616   9.975   4.989   8.834
50928SOL    HW154617  10.054   4.977   8.887
50928SOL    HW254618   9.934   4.903   8.833
50929SOL     OW54619   3.216   0.687   8.701
50929SOL    HW154620   3.132   0.682   8.748
50929SOL    HW254621   3.259   0.604   8.722
50930SOL     OW54622   1.872   7.954   0.602
50930SOL    HW154623   1.842   7.951   0.511
50930SOL    HW254624   1.813   8.016   0.645
50931SOL     OW54625   3.574   9.027   3.628
50931SOL    HW154626   3.619   8.954   3.585
50931SOL    HW254627   3.599   9.104   3.577
50932SOL     OW54628   7.147  11.718   0.366
50932SOL    HW154629   7.197  11.638   0.382
50932SOL    HW254630   7.204  11.770   0.310
50933SOL     OW54631   6.487  10.256   0.176
50933SOL    HW154632   6.551  10.219   0.115
50933SOL    HW254633   6.499  10.350   0.171
50934SOL     OW54634  10.631  11.752   0.179
50934SOL    HW154635  10.570  11.684   0.151
50934SOL    HW254636  10.604  11.773   0.269
50935SOL     OW54637   0.918   9.764   9.368
50935SOL    HW154638   0.964   9.791   9.289
50935SOL    HW254639   0.980   9.782   9.439
50936SOL     OW54640  14.162  10.243   1.024
50936SOL    HW154641  14.076  10.245   0.983
50936SOL    HW254642  14.171  10.329   1.066
50937SOL     OW54643   1.027   6.040   0.664
50937SOL    HW154644   1.081   6.111   0.699
50937SOL    HW254645   1.087   5.990   0.609
50938SOL     OW54646  12.963   0.008   7.212
50938SOL    HW154647  12.938  14.790   7.232
50938SOL    HW254648  12.936   0.021   7.121
50939SOL     OW54649   6.792  10.822   5.337
50939SOL    HW154650   6.794  10.823   5.241
50939SOL    HW254651   6.863  10.880   5.363
50940SOL     OW54652  11.368   7.246   8.133
50940SOL    HW154653  11.318   7.327   8.121
50940SOL    HW254654  11.301   7.177   8.138
50941SOL     OW54655   6.176   7.725   7.227
50941SOL    HW154656   6.090   7.766   7.241
50941SOL    HW254657   6.156   7.634   7.206
50942SOL     OW54658  10.926   0.141   3.531
50942SOL    HW154659  10.983   0.209   3.495
50942SOL    HW254660  10.857   0.190   3.577
50943SOL     OW54661   3.496   4.229   6.413
50943SOL    HW154662   3.427   4.248   6.476
50943SOL    HW254663   3.559   4.300   6.424
50944SOL     OW54664   8.220  13.311   6.965
50944SOL    HW154665   8.150  13.251   6.992
50944SOL    HW254666   8.174  13.392   6.943
50945SOL     OW54667   6.132   2.808  13.440
50945SOL    HW154668   6.072   2.827  13.512
50945SOL    HW254669   6.211   2.775  13.482
50946SOL     OW54670   8.566   1.109  13.424
50946SOL    HW154671   8.572   1.047  13.496
50946SOL    HW254672   8.608   1.064  13.350
50947SOL     OW54673   5.671   3.495  10.483
50947SOL    HW154674   5.592   3.491  10.538
50947SOL    HW254675   5.742   3.468  10.541
50948SOL     OW54676   3.573   0.200  13.739
50948SOL    HW154677   3.529   0.115  13.749
50948SOL    HW254678   3.510   0.254  13.690
50949SOL     OW54679  12.884  10.145   6.803
50949SOL    HW154680  12.946  10.201   6.850
50949SOL    HW254681  12.799  10.186   6.817
50950SOL     OW54682  10.839  13.556   5.928
50950SOL    HW154683  10.861  13.628   5.869
50950SOL    HW254684  10.776  13.593   5.989
50951SOL     OW54685  10.440   5.321   7.455
50951SOL    HW154686  10.398   5.267   7.387
50951SOL    HW254687  10.439   5.409   7.418
50952SOL     OW54688  14.099   5.607   4.627
50952SOL    HW154689  14.141   5.684   4.588
50952SOL    HW254690  14.109   5.618   4.721
50953SOL     OW54691   0.976   6.556  11.419
50953SOL    HW154692   0.974   6.552  11.515
50953SOL    HW254693   0.889   6.526  11.393
50954SOL     OW54694  11.822   3.850   0.162
50954SOL    HW154695  11.883   3.866   0.090
50954SOL    HW254696  11.852   3.769   0.201
50955SOL     OW54697  13.011   9.734  12.986
50955SOL    HW154698  12.917   9.718  12.992
50955SOL    HW254699  13.040   9.683  12.911
50956SOL     OW54700   7.266   2.368  12.376
50956SOL    HW154701   7.349   2.414  12.384
50956SOL    HW254702   7.213   2.399  12.450
50957SOL     OW54703   3.783   1.625  14.010
50957SOL    HW154704   3.821   1.709  14.036
50957SOL    HW254705   3.701   1.648  13.967
50958SOL     OW54706   0.082   8.823  12.345
50958SOL    HW154707   0.103   8.908  12.307
50958SOL    HW254708   0.145   8.813  12.417
50959SOL     OW54709  11.293  10.627  11.884
50959SOL    HW154710  11.272  10.695  11.820
50959SOL    HW254711  11.223  10.563  11.876
50960SOL     OW54712   2.529   8.563   6.276
50960SOL    HW154713   2.490   8.478   6.296
50960SOL    HW254714   2.621   8.543   6.259
50961SOL     OW54715  11.329  11.730   0.581
50961SOL    HW154716  11.286  11.758   0.662
50961SOL    HW254717  11.402  11.792   0.571
50962SOL     OW54718   2.506   9.938   6.839
50962SOL    HW154719   2.526   9.845   6.838
50962SOL    HW254720   2.412   9.942   6.821
50963SOL     OW54721  11.157  12.953   4.945
50963SOL    HW154722  11.185  13.005   5.021
50963SOL    HW254723  11.167  12.862   4.973
50964SOL     OW54724   9.448  12.150   6.154
50964SOL    HW154725   9.402  12.228   6.122
50964SOL    HW254726   9.388  12.112   6.218
50965SOL     OW54727   3.233   4.109   1.423
50965SOL    HW154728   3.172   4.153   1.364
50965SOL    HW254729   3.271   4.180   1.474
50966SOL     OW54730   7.340   1.505   0.116
50966SOL    HW154731   7.247   1.486   0.110
50966SOL    HW254732   7.373   1.445   0.183
50967SOL     OW54733   5.982  13.005   9.310
50967SOL    HW154734   5.936  13.089   9.321
50967SOL    HW254735   6.055  13.025   9.251
50968SOL     OW54736   7.339   8.625  12.944
50968SOL    HW154737   7.424   8.582  12.938
50968SOL    HW254738   7.345   8.682  13.020
50969SOL     OW54739  14.622   7.853   2.832
50969SOL    HW154740  14.650   7.871   2.922
50969SOL    HW254741  14.582   7.935   2.803
50970SOL     OW54742   4.461  12.835   9.361
50970SOL    HW154743   4.388  12.890   9.332
50970SOL    HW254744   4.523  12.896   9.399
50971SOL     OW54745  14.271  14.576   6.505
50971SOL    HW154746  14.338  14.644   6.497
50971SOL    HW254747  14.216  14.606   6.578
50972SOL     OW54748  13.914   1.256   9.722
50972SOL    HW154749  13.958   1.308   9.789
50972SOL    HW254750  13.840   1.216   9.768
50973SOL     OW54751   1.214   9.345   3.473
50973SOL    HW154752   1.138   9.314   3.423
50973SOL    HW254753   1.290   9.318   3.421
50974SOL     OW54754   5.577  12.102   6.919
50974SOL    HW154755   5.572  12.068   7.008
50974SOL    HW254756   5.498  12.069   6.876
50975SOL     OW54757   6.590   8.797   9.947
50975SOL    HW154758   6.550   8.870   9.900
50975SOL    HW254759   6.560   8.719   9.902
50976SOL     OW54760   9.789  10.231   4.620
50976SOL    HW154761   9.815  10.322   4.632
50976SOL    HW254762   9.862  10.190   4.574
50977SOL     OW54763   5.583   3.457   9.673
50977SOL    HW154764   5.523   3.527   9.696
50977SOL    HW254765   5.598   3.466   9.579
50978SOL     OW54766  11.022   2.309   4.098
50978SOL    HW154767  11.082   2.384   4.097
50978SOL    HW254768  11.006   2.293   4.191
50979SOL     OW54769   2.133   3.637  14.075
50979SOL    HW154770   2.211   3.664  14.123
50979SOL    HW254771   2.167   3.592  13.997
50980SOL     OW54772   5.909   3.980   0.530
50980SOL    HW154773   5.959   4.050   0.573
50980SOL    HW254774   5.819   4.013   0.528
50981SOL     OW54775   3.777   9.532   7.104
50981SOL    HW154776   3.717   9.557   7.033
50981SOL    HW254777   3.724   9.538   7.183
50982SOL     OW54778  13.663   1.419  13.707
50982SOL    HW154779  13.623   1.334  13.727
50982SOL    HW254780  13.635   1.438  13.618
50983SOL     OW54781   4.149   3.670  13.158
50983SOL    HW154782   4.055   3.651  13.156
50983SOL    HW254783   4.187   3.606  13.096
50984SOL     OW54784  11.642   1.350   5.429
50984SOL    HW154785  11.632   1.282   5.363
50984SOL    HW254786  11.581   1.419   5.402
50985SOL     OW54787   0.008  13.642  11.913
50985SOL    HW154788   0.069  13.595  11.970
50985SOL    HW254789  14.800  13.591  11.916
50986SOL     OW54790  10.253   0.712   0.455
50986SOL    HW154791  10.237   0.733   0.547
50986SOL    HW254792  10.166   0.692   0.420
50987SOL     OW54793  13.880   0.032   6.782
50987SOL    HW154794  13.838   0.113   6.751
50987SOL    HW254795  13.919   0.056   6.866
50988SOL     OW54796  10.421   2.524  14.038
50988SOL    HW154797  10.426   2.617  14.015
50988SOL    HW254798  10.489   2.482  13.984
50989SOL     OW54799   3.313   4.291  10.619
50989SOL    HW154800   3.399   4.251  10.634
50989SOL    HW254801   3.274   4.237  10.551
50990SOL     OW54802  10.190   1.374   1.690
50990SOL    HW154803  10.174   1.414   1.605
50990SOL    HW254804  10.107   1.332   1.713
50991SOL     OW54805  10.649   9.699   8.530
50991SOL    HW154806  10.660   9.788   8.562
50991SOL    HW254807  10.625   9.709   8.438
50992SOL     OW54808   9.158   5.326   3.381
50992SOL    HW154809   9.250   5.340   3.403
50992SOL    HW254810   9.139   5.238   3.413
50993SOL     OW54811   2.236   9.899   8.514
50993SOL    HW154812   2.191   9.883   8.597
50993SOL    HW254813   2.220   9.821   8.462
50994SOL     OW54814  11.159  10.706   1.086
50994SOL    HW154815  11.156  10.724   1.180
50994SOL    HW254816  11.154  10.792   1.044
50995SOL     OW54817  12.371   2.809  14.204
50995SOL    HW154818  12.433   2.739  14.184
50995SOL    HW254819  12.391   2.878  14.140
50996SOL     OW54820   2.695   3.985   7.155
50996SOL    HW154821   2.688   4.041   7.232
50996SOL    HW254822   2.621   4.009   7.101
50997SOL     OW54823   0.122   2.330   6.722
50997SOL    HW154824   0.116   2.409   6.775
50997SOL    HW254825   0.187   2.276   6.767
50998SOL     OW54826  13.749  13.631   0.951
50998SOL    HW154827  13.786  13.599   1.033
50998SOL    HW254828  13.656  13.645   0.971
50999SOL     OW54829   3.549   7.157   9.261
50999SOL    HW154830   3.478   7.196   9.312
50999SOL    HW254831   3.626   7.210   9.283
51000SOL     OW54832   8.919   3.231   6.851
51000SOL    HW154833   8.958   3.306   6.806
51000SOL    HW254834   8.827   3.231   6.824
51001SOL     OW54835  10.340  14.255   3.703
51001SOL    HW154836  10.302  14.169   3.684
51001SOL    HW254837  10.373  14.286   3.619
51002SOL     OW54838  11.590  14.148  10.640
51002SOL    HW154839  11.522  14.121  10.578
51002SOL    HW254840  11.556  14.123  10.725
51003SOL     OW54841   5.788  13.385  12.978
51003SOL    HW154842   5.792  13.353  13.068
51003SOL    HW254843   5.857  13.452  12.974
51004SOL     OW54844  10.861  14.449   2.328
51004SOL    HW154845  10.832  14.381   2.267
51004SOL    HW254846  10.809  14.434   2.407
51005SOL     OW54847  13.645   5.373   9.924
51005SOL    HW154848  13.694   5.433   9.980
51005SOL    HW254849  13.621   5.426   9.848
51006SOL     OW54850  10.151   7.125   8.151
51006SOL    HW154851  10.062   7.130   8.186
51006SOL    HW254852  10.176   7.033   8.161
51007SOL     OW54853   7.255   9.397   8.555
51007SOL    HW154854   7.175   9.413   8.604
51007SOL    HW254855   7.261   9.302   8.548
51008SOL     OW54856   1.221   5.161   8.440
51008SOL    HW154857   1.168   5.087   8.468
51008SOL    HW254858   1.162   5.236   8.441
51009SOL     OW54859  10.680   3.768   0.792
51009SOL    HW154860  10.721   3.836   0.739
51009SOL    HW254861  10.596   3.752   0.749
51010SOL     OW54862   9.526   5.032   6.597
51010SOL    HW154863   9.554   5.120   6.573
51010SOL    HW254864   9.564   4.975   6.530
51011SOL     OW54865   2.916   8.322   7.351
51011SOL    HW154866   2.991   8.323   7.411
51011SOL    HW254867   2.934   8.249   7.292
51012SOL     OW54868   8.229  13.430  14.612
51012SOL    HW154869   8.173  13.378  14.554
51012SOL    HW254870   8.204  13.402  14.700
51013SOL     OW54871   4.375   2.732   6.457
51013SOL    HW154872   4.416   2.646   6.460
51013SOL    HW254873   4.401   2.768   6.373
51014SOL     OW54874  11.658  14.597  12.886
51014SOL    HW154875  11.688  14.519  12.932
51014SOL    HW254876  11.587  14.566  12.830
51015SOL     OW54877  10.256   4.508   1.109
51015SOL    HW154878  10.336   4.470   1.147
51015SOL    HW254879  10.278   4.522   1.017
51016SOL     OW54880   5.677   0.782   3.643
51016SOL    HW154881   5.708   0.703   3.597
51016SOL    HW254882   5.631   0.748   3.719
51017SOL     OW54883   6.090   0.359   2.608
51017SOL    HW154884   6.113   0.449   2.584
51017SOL    HW254885   6.163   0.329   2.662
51018SOL     OW54886   7.600   9.958  13.901
51018SOL    HW154887   7.574   9.991  13.987
51018SOL    HW254888   7.539   9.886  13.884
51019SOL     OW54889  12.656   9.472   8.374
51019SOL    HW154890  12.718   9.544   8.390
51019SOL    HW254891  12.581   9.492   8.431
51020SOL     OW54892   6.707   5.625   1.448
51020SOL    HW154893   6.782   5.567   1.462
51020SOL    HW254894   6.639   5.592   1.507
51021SOL     OW54895   9.055   2.500   8.914
51021SOL    HW154896   9.069   2.471   8.824
51021SOL    HW254897   9.088   2.590   8.916
51022SOL     OW54898   6.158   8.063   3.240
51022SOL    HW154899   6.233   8.025   3.285
51022SOL    HW254900   6.140   8.002   3.168
51023SOL     OW54901   5.537   8.654   1.861
51023SOL    HW154902   5.582   8.738   1.862
51023SOL    HW254903   5.606   8.589   1.870
51024SOL     OW54904   1.247   1.766  12.241
51024SOL    HW154905   1.169   1.784  12.189
51024SOL    HW254906   1.312   1.830  12.210
51025SOL     OW54907   0.308  13.485  11.722
51025SOL    HW154908   0.260  13.567  11.710
51025SOL    HW254909   0.244  13.417  11.706
51026SOL     OW54910   1.285  14.429   8.281
51026SOL    HW154911   1.331  14.347   8.303
51026SOL    HW254912   1.349  14.498   8.298
51027SOL     OW54913   8.010   4.995   0.029
51027SOL    HW154914   7.951   5.019   0.100
51027SOL    HW254915   8.069   4.930   0.067
51028SOL     OW54916  12.591   0.649  10.541
51028SOL    HW154917  12.669   0.702  10.560
51028SOL    HW254918  12.521   0.691  10.589
51029SOL     OW54919   4.586   6.911  10.163
51029SOL    HW154920   4.540   6.970  10.104
51029SOL    HW254921   4.616   6.967  10.235
51030SOL     OW54922  12.051   0.354   1.089
51030SOL    HW154923  11.982   0.288   1.083
51030SOL    HW254924  12.096   0.350   1.005
51031SOL     OW54925   7.407  11.469  13.674
51031SOL    HW154926   7.412  11.530  13.748
51031SOL    HW254927   7.316  11.442  13.671
51032SOL     OW54928   8.218   1.717   5.749
51032SOL    HW154929   8.166   1.696   5.672
51032SOL    HW254930   8.306   1.684   5.729
51033SOL     OW54931   7.018   6.943   6.259
51033SOL    HW154932   6.968   6.861   6.261
51033SOL    HW254933   6.980   6.996   6.328
51034SOL     OW54934   3.613   4.648   6.354
51034SOL    HW154935   3.545   4.591   6.317
51034SOL    HW254936   3.566   4.728   6.379
51035SOL     OW54937  11.391  10.387   7.965
51035SOL    HW154938  11.410  10.413   7.875
51035SOL    HW254939  11.427  10.457   8.019
51036SOL     OW54940   9.734   1.012  14.552
51036SOL    HW154941   9.737   0.973  14.465
51036SOL    HW254942   9.814   1.064  14.558
51037SOL     OW54943   7.129  11.675   2.310
51037SOL    HW154944   7.196  11.691   2.243
51037SOL    HW254945   7.061  11.740   2.292
51038SOL     OW54946  10.833   7.146   7.479
51038SOL    HW154947  10.923   7.127   7.508
51038SOL    HW254948  10.778   7.119   7.552
51039SOL     OW54949  11.686  12.284   6.088
51039SOL    HW154950  11.738  12.354   6.049
51039SOL    HW254951  11.734  12.258   6.166
51040SOL     OW54952   6.238   1.957  11.681
51040SOL    HW154953   6.164   1.914  11.724
51040SOL    HW254954   6.263   1.897  11.610
51041SOL     OW54955  13.722   3.844   1.031
51041SOL    HW154956  13.687   3.856   1.119
51041SOL    HW254957  13.741   3.932   1.000
51042SOL     OW54958  10.013  12.886  10.030
51042SOL    HW154959   9.947  12.913  10.094
51042SOL    HW254960  10.025  12.792  10.045
51043SOL     OW54961   7.209  12.112   9.587
51043SOL    HW154962   7.135  12.141   9.534
51043SOL    HW254963   7.258  12.192   9.605
51044SOL     OW54964  13.580   0.784   0.223
51044SOL    HW154965  13.670   0.763   0.199
51044SOL    HW254966  13.527   0.713   0.187
51045SOL     OW54967   8.747   3.314   4.644
51045SOL    HW154968   8.702   3.379   4.698
51045SOL    HW254969   8.718   3.229   4.679
51046SOL     OW54970   9.255  10.294   2.552
51046SOL    HW154971   9.344  10.270   2.525
51046SOL    HW254972   9.199  10.259   2.483
51047SOL     OW54973   8.802   5.511  13.550
51047SOL    HW154974   8.791   5.533  13.642
51047SOL    HW254975   8.897   5.501  13.539
51048SOL     OW54976   7.981   6.664   1.607
51048SOL    HW154977   7.989   6.633   1.516
51048SOL    HW254978   7.986   6.584   1.659
51049SOL     OW54979  11.732   8.538  10.437
51049SOL    HW154980  11.680   8.618  10.431
51049SOL    HW254981  11.714   8.504  10.525
51050SOL     OW54982   9.220   5.968   7.407
51050SOL    HW154983   9.223   5.878   7.374
51050SOL    HW254984   9.130   5.997   7.392
51051SOL     OW54985   5.598   9.163   4.082
51051SOL    HW154986   5.603   9.118   4.167
51051SOL    HW254987   5.521   9.125   4.040
51052SOL     OW54988   0.335  11.921   9.120
51052SOL    HW154989   0.391  11.997   9.139
51052SOL    HW254990   0.303  11.893   9.206
51053SOL     OW54991   9.319   5.091   1.905
51053SOL    HW154992   9.387   5.086   1.971
51053SOL    HW254993   9.268   5.168   1.928
51054SOL     OW54994   4.403   4.883  14.336
51054SOL    HW154995   4.355   4.955  14.377
51054SOL    HW254996   4.374   4.805  14.383
51055SOL     OW54997   8.120   1.820   6.156
51055SOL    HW154998   8.106   1.733   6.192
51055SOL    HW254999   8.048   1.873   6.191
51056SOL     OW55000  12.618  10.810  11.462
51056SOL    HW155001  12.664  10.747  11.517
51056SOL    HW255002  12.641  10.785  11.373
51057SOL     OW55003  12.922  10.872   5.488
51057SOL    HW155004  12.913  10.962   5.520
51057SOL    HW255005  12.864  10.821   5.544
51058SOL     OW55006  10.849   8.797   7.374
51058SOL    HW155007  10.791   8.833   7.440
51058SOL    HW255008  10.851   8.864   7.305
51059SOL     OW55009   4.462  12.696   2.549
51059SOL    HW155010   4.541  12.749   2.545
51059SOL    HW255011   4.399  12.742   2.493
51060SOL     OW55012  14.425  12.020  11.661
51060SOL    HW155013  14.333  12.002  11.683
51060SOL    HW255014  14.459  11.935  11.633
51061SOL     OW55015   4.402   4.607  10.119
51061SOL    HW155016   4.473   4.657  10.080
51061SOL    HW255017   4.328   4.618  10.059
51062SOL     OW55018  13.667   4.754   4.183
51062SOL    HW155019  13.726   4.679   4.169
51062SOL    HW255020  13.610   4.725   4.254
51063SOL     OW55021  12.199   2.984   8.188
51063SOL    HW155022  12.182   3.059   8.244
51063SOL    HW255023  12.284   3.002   8.148
51064SOL     OW55024   1.259   6.066   6.703
51064SOL    HW155025   1.324   6.012   6.748
51064SOL    HW255026   1.248   6.143   6.759
51065SOL     OW55027   1.672   4.299  12.870
51065SOL    HW155028   1.724   4.360  12.818
51065SOL    HW255029   1.735   4.234  12.902
51066SOL     OW55030   2.884  11.064   1.836
51066SOL    HW155031   2.839  11.090   1.916
51066SOL    HW255032   2.899  11.146   1.789
51067SOL     OW55033  12.741   5.878   5.556
51067SOL    HW155034  12.828   5.840   5.564
51067SOL    HW255035  12.716   5.862   5.465
51068SOL     OW55036   0.817   2.472   8.399
51068SOL    HW155037   0.754   2.540   8.377
51068SOL    HW255038   0.860   2.503   8.479
51069SOL     OW55039   9.925  12.326   2.055
51069SOL    HW155040   9.966  12.269   1.989
51069SOL    HW255041   9.912  12.409   2.010
51070SOL     OW55042   8.232   9.896   9.667
51070SOL    HW155043   8.267   9.937   9.588
51070SOL    HW255044   8.152   9.852   9.638
51071SOL     OW55045  12.468   3.682   6.287
51071SOL    HW155046  12.414   3.605   6.306
51071SOL    HW255047  12.533   3.683   6.357
51072SOL     OW55048  10.509   5.087  10.506
51072SOL    HW155049  10.473   4.998  10.507
51072SOL    HW255050  10.436   5.143  10.531
51073SOL     OW55051  11.791  10.274   5.233
51073SOL    HW155052  11.755  10.362   5.224
51073SOL    HW255053  11.720  10.216   5.209
51074SOL     OW55054   0.778   5.466   2.205
51074SOL    HW155055   0.691   5.431   2.188
51074SOL    HW255056   0.830   5.441   2.129
51075SOL     OW55057   1.989   6.034   0.106
51075SOL    HW155058   2.018   6.044   0.015
51075SOL    HW255059   1.940   6.114   0.124
51076SOL     OW55060   3.056   0.483   6.327
51076SOL    HW155061   3.088   0.533   6.402
51076SOL    HW255062   3.078   0.537   6.251
51077SOL     OW55063   3.908   5.266  10.286
51077SOL    HW155064   3.861   5.198  10.237
51077SOL    HW255065   3.885   5.251  10.377
51078SOL     OW55066  13.423   9.735  14.817
51078SOL    HW155067  13.375   9.654  14.796
51078SOL    HW255068  13.515   9.712  14.805
51079SOL     OW55069   0.261   5.177  12.439
51079SOL    HW155070   0.221   5.107  12.491
51079SOL    HW255071   0.235   5.258  12.483
51080SOL     OW55072   7.068   0.075   4.844
51080SOL    HW155073   7.013  14.871   4.861
51080SOL    HW255074   7.154   0.051   4.878
51081SOL     OW55075   2.007  10.114  11.160
51081SOL    HW155076   2.094  10.148  11.142
51081SOL    HW255077   2.009  10.024  11.129
51082SOL     OW55078   4.732  11.496   6.235
51082SOL    HW155079   4.813  11.523   6.193
51082SOL    HW255080   4.742  11.523   6.326
51083SOL     OW55081   5.488  12.500  13.802
51083SOL    HW155082   5.475  12.491  13.708
51083SOL    HW255083   5.400  12.508  13.838
51084SOL     OW55084  10.534   8.725   5.358
51084SOL    HW155085  10.520   8.706   5.265
51084SOL    HW255086  10.447   8.744   5.392
51085SOL     OW55087   3.689   7.941   7.519
51085SOL    HW155088   3.726   7.909   7.601
51085SOL    HW255089   3.701   7.869   7.457
51086SOL     OW55090  11.948   7.462  13.724
51086SOL    HW155091  11.905   7.523  13.784
51086SOL    HW255092  12.041   7.471  13.742
51087SOL     OW55093   2.540   6.471   2.500
51087SOL    HW155094   2.489   6.400   2.463
51087SOL    HW255095   2.507   6.480   2.590
51088SOL     OW55096  13.508   0.160  11.512
51088SOL    HW155097  13.520   0.069  11.485
51088SOL    HW255098  13.446   0.155  11.585
51089SOL     OW55099  13.783   0.387   1.925
51089SOL    HW155100  13.864   0.439   1.925
51089SOL    HW255101  13.725   0.434   1.985
51090SOL     OW55102   8.593  11.330   9.615
51090SOL    HW155103   8.579  11.366   9.702
51090SOL    HW255104   8.633  11.401   9.565
51091SOL     OW55105   5.787   2.318   1.126
51091SOL    HW155106   5.814   2.249   1.065
51091SOL    HW255107   5.832   2.297   1.208
51092SOL     OW55108   0.611   8.250   5.826
51092SOL    HW155109   0.686   8.310   5.824
51092SOL    HW255110   0.607   8.220   5.916
51093SOL     OW55111  11.707   4.901   3.103
51093SOL    HW155112  11.685   4.913   3.195
51093SOL    HW255113  11.705   4.807   3.089
51094SOL     OW55114   1.888   8.338  14.781
51094SOL    HW155115   1.811   8.376  14.822
51094SOL    HW255116   1.962   8.386  14.818
51095SOL     OW55117  10.039  11.644   2.528
51095SOL    HW155118  10.090  11.586   2.585
51095SOL    HW255119   9.968  11.590   2.496
51096SOL     OW55120   3.015   2.293   1.244
51096SOL    HW155121   3.108   2.286   1.265
51096SOL    HW255122   3.001   2.227   1.175
51097SOL     OW55123   3.711   2.811   5.636
51097SOL    HW155124   3.736   2.864   5.712
51097SOL    HW255125   3.616   2.825   5.628
51098SOL     OW55126  10.350   7.324  11.838
51098SOL    HW155127  10.356   7.343  11.931
51098SOL    HW255128  10.263   7.356  11.812
51099SOL     OW55129  11.372  11.345   4.624
51099SOL    HW155130  11.382  11.313   4.713
51099SOL    HW255131  11.460  11.341   4.586
51100SOL     OW55132   3.759   9.541   9.176
51100SOL    HW155133   3.779   9.545   9.082
51100SOL    HW255134   3.775   9.450   9.200
51101SOL     OW55135   7.512   8.754   2.692
51101SOL    HW155136   7.506   8.761   2.597
51101SOL    HW255137   7.421   8.762   2.722
51102SOL     OW55138   2.482   8.541   7.639
51102SOL    HW155139   2.455   8.587   7.559
51102SOL    HW255140   2.407   8.488   7.663
51103SOL     OW55141   5.166   2.489   5.183
51103SOL    HW155142   5.163   2.400   5.216
51103SOL    HW255143   5.258   2.515   5.189
51104SOL     OW55144  13.629   4.747  10.071
51104SOL    HW155145  13.618   4.834  10.033
51104SOL    HW255146  13.638   4.762  10.165
51105SOL     OW55147   2.437  11.466  10.265
51105SOL    HW155148   2.378  11.407  10.312
51105SOL    HW255149   2.519  11.418  10.259
51106SOL     OW55150  10.952   7.673  11.486
51106SOL    HW155151  11.012   7.601  11.504
51106SOL    HW255152  10.972   7.700  11.397
51107SOL     OW55153   2.690   9.826  14.053
51107SOL    HW155154   2.658   9.890  13.989
51107SOL    HW255155   2.631   9.752  14.044
51108SOL     OW55156   3.979   4.132  13.346
51108SOL    HW155157   3.960   4.066  13.279
51108SOL    HW255158   4.001   4.211  13.296
51109SOL     OW55159   4.100   4.564   3.349
51109SOL    HW155160   4.053   4.628   3.296
51109SOL    HW255161   4.067   4.479   3.319
51110SOL     OW55162   0.515   5.225  14.475
51110SOL    HW155163   0.491   5.176  14.554
51110SOL    HW255164   0.602   5.261  14.495
51111SOL     OW55165  14.646   3.042   5.726
51111SOL    HW155166  14.723   3.086   5.764
51111SOL    HW255167  14.591   3.114   5.695
51112SOL     OW55168   0.448   5.406   8.334
51112SOL    HW155169   0.458   5.410   8.429
51112SOL    HW255170   0.358   5.434   8.318
51113SOL     OW55171   9.352   6.888  10.969
51113SOL    HW155172   9.402   6.819  11.014
51113SOL    HW255173   9.285   6.912  11.033
51114SOL     OW55174  10.150   2.363   5.929
51114SOL    HW155175  10.207   2.309   5.983
51114SOL    HW255176  10.197   2.372   5.846
51115SOL     OW55177  14.184   5.064  12.665
51115SOL    HW155178  14.189   5.034  12.756
51115SOL    HW255179  14.222   5.151  12.667
51116SOL     OW55180   9.178   7.769   3.246
51116SOL    HW155181   9.259   7.776   3.195
51116SOL    HW255182   9.139   7.856   3.241
51117SOL     OW55183   6.089  10.223   7.462
51117SOL    HW155184   6.156  10.159   7.437
51117SOL    HW255185   6.070  10.271   7.381
51118SOL     OW55186  12.610   9.960   2.787
51118SOL    HW155187  12.683   9.999   2.739
51118SOL    HW255188  12.532  10.001   2.750
51119SOL     OW55189   4.478  12.875  11.300
51119SOL    HW155190   4.411  12.832  11.248
51119SOL    HW255191   4.545  12.902  11.237
51120SOL     OW55192  11.242   4.561   6.353
51120SOL    HW155193  11.282   4.646   6.335
51120SOL    HW255194  11.150   4.581   6.370
51121SOL     OW55195  11.077   5.456   6.407
51121SOL    HW155196  11.103   5.509   6.331
51121SOL    HW255197  10.988   5.485   6.427
51122SOL     OW55198   3.175   7.750  14.118
51122SOL    HW155199   3.203   7.825  14.170
51122SOL    HW255200   3.217   7.763  14.033
51123SOL     OW55201   7.503   6.839  12.701
51123SOL    HW155202   7.457   6.773  12.754
51123SOL    HW255203   7.460   6.922  12.724
51124SOL     OW55204   1.707  14.071  10.598
51124SOL    HW155205   1.657  14.141  10.556
51124SOL    HW255206   1.794  14.076  10.559
51125SOL     OW55207   5.189   0.988   3.008
51125SOL    HW155208   5.209   0.934   2.932
51125SOL    HW255209   5.245   0.954   3.078
51126SOL     OW55210   7.309  12.878   2.724
51126SOL    HW155211   7.219  12.859   2.700
51126SOL    HW255212   7.360  12.805   2.688
51127SOL     OW55213  13.676   6.163   2.098
51127SOL    HW155214  13.669   6.258   2.085
51127SOL    HW255215  13.610   6.143   2.164
51128SOL     OW55216  13.086   8.853  14.032
51128SOL    HW155217  13.163   8.890  14.075
51128SOL    HW255218  13.015   8.867  14.094
51129SOL     OW55219  10.618  13.703   9.104
51129SOL    HW155220  10.552  13.640   9.074
51129SOL    HW255221  10.686  13.699   9.036
51130SOL     OW55222   7.383   7.649   6.799
51130SOL    HW155223   7.293   7.621   6.819
51130SOL    HW255224   7.439   7.583   6.839
51131SOL     OW55225   1.807  13.780  11.596
51131SOL    HW155226   1.871  13.851  11.595
51131SOL    HW255227   1.823  13.732  11.515
51132SOL     OW55228   2.457  10.695   7.543
51132SOL    HW155229   2.388  10.676   7.479
51132SOL    HW255230   2.438  10.636   7.616
51133SOL     OW55231  13.755   0.585   7.159
51133SOL    HW155232  13.804   0.653   7.204
51133SOL    HW255233  13.667   0.621   7.150
51134SOL     OW55234  10.388  14.619   5.751
51134SOL    HW155235  10.445  14.694   5.771
51134SOL    HW255236  10.381  14.619   5.655
51135SOL     OW55237   2.032   4.789   7.647
51135SOL    HW155238   2.020   4.723   7.579
51135SOL    HW255239   1.949   4.791   7.694
51136SOL     OW55240   3.260   5.678  11.343
51136SOL    HW155241   3.203   5.752  11.362
51136SOL    HW255242   3.270   5.633  11.427
51137SOL     OW55243  10.275   2.477   0.353
51137SOL    HW155244  10.269   2.402   0.294
51137SOL    HW255245  10.254   2.552   0.297
51138SOL     OW55246  14.032   2.319   0.591
51138SOL    HW155247  14.081   2.400   0.604
51138SOL    HW255248  13.950   2.333   0.639
51139SOL     OW55249   2.196   2.746   9.408
51139SOL    HW155250   2.210   2.719   9.499
51139SOL    HW255251   2.280   2.783   9.382
51140SOL     OW55252   0.117  14.743   0.859
51140SOL    HW155253   0.133  14.762   0.766
51140SOL    HW255254   0.186  14.681   0.883
51141SOL     OW55255  11.069   9.621  14.114
51141SOL    HW155256  11.092   9.655  14.200
51141SOL    HW255257  10.978   9.649  14.101
51142SOL     OW55258  12.419   5.607  10.984
51142SOL    HW155259  12.485   5.546  10.952
51142SOL    HW255260  12.384   5.566  11.063
51143SOL     OW55261   9.029  12.942   1.994
51143SOL    HW155262   8.999  12.896   2.072
51143SOL    HW255263   9.124  12.943   2.001
51144SOL     OW55264   3.485   0.185   9.621
51144SOL    HW155265   3.573   0.205   9.652
51144SOL    HW255266   3.481   0.089   9.622
51145SOL     OW55267   1.650   9.075  10.433
51145SOL    HW155268   1.726   9.128  10.457
51145SOL    HW255269   1.633   9.096  10.341
51146SOL     OW55270  10.958  11.767   0.766
51146SOL    HW155271  10.956  11.747   0.672
51146SOL    HW255272  10.874  11.735   0.798
51147SOL     OW55273   4.238   0.375   3.766
51147SOL    HW155274   4.292   0.422   3.830
51147SOL    HW255275   4.148   0.397   3.790
51148SOL     OW55276  10.874  11.209  11.685
51148SOL    HW155277  10.881  11.144  11.614
51148SOL    HW255278  10.832  11.284  11.644
51149SOL     OW55279   9.402   3.718  14.280
51149SOL    HW155280   9.318   3.675  14.299
51149SOL    HW255281   9.382   3.779  14.209
51150SOL     OW55282  11.650   3.385   7.395
51150SOL    HW155283  11.731   3.341   7.369
51150SOL    HW255284  11.606   3.323   7.453
51151SOL     OW55285  11.614   0.246   2.948
51151SOL    HW155286  11.624   0.341   2.943
51151SOL    HW255287  11.570   0.231   3.032
51152SOL     OW55288   3.419   3.908   4.809
51152SOL    HW155289   3.402   3.885   4.900
51152SOL    HW255290   3.439   4.002   4.811
51153SOL     OW55291   9.331   4.551   3.843
51153SOL    HW155292   9.360   4.637   3.814
51153SOL    HW255293   9.406   4.493   3.827
51154SOL     OW55294  11.968   6.911  12.311
51154SOL    HW155295  11.988   6.876  12.224
51154SOL    HW255296  12.028   6.865  12.370
51155SOL     OW55297   9.368   6.168   1.285
51155SOL    HW155298   9.374   6.236   1.352
51155SOL    HW255299   9.281   6.130   1.297
51156SOL     OW55300   8.928   7.092  13.745
51156SOL    HW155301   8.996   7.148  13.707
51156SOL    HW255302   8.954   7.080  13.836
51157SOL     OW55303  10.660  12.165  13.813
51157SOL    HW155304  10.572  12.174  13.777
51157SOL    HW255305  10.647  12.163  13.908
51158SOL     OW55306   6.391   3.891   5.674
51158SOL    HW155307   6.402   3.963   5.612
51158SOL    HW255308   6.473   3.843   5.670
51159SOL     OW55309  14.417   2.273  10.329
51159SOL    HW155310  14.371   2.192  10.349
51159SOL    HW255311  14.510   2.252  10.342
51160SOL     OW55312  14.869   3.982  12.920
51160SOL    HW155313   0.005   3.948  12.831
51160SOL    HW255314  14.776   4.005  12.928
51161SOL     OW55315  11.538   4.238   3.940
51161SOL    HW155316  11.610   4.215   3.998
51161SOL    HW255317  11.461   4.198   3.980
51162SOL     OW55318   1.198   3.306  14.514
51162SOL    HW155319   1.159   3.302  14.601
51162SOL    HW255320   1.128   3.280  14.454
51163SOL     OW55321  11.694   1.662  11.501
51163SOL    HW155322  11.677   1.572  11.529
51163SOL    HW255323  11.716   1.708  11.581
51164SOL     OW55324   7.781   4.626   9.477
51164SOL    HW155325   7.836   4.655   9.405
51164SOL    HW255326   7.711   4.692   9.482
51165SOL     OW55327  10.899  10.722   7.855
51165SOL    HW155328  10.944  10.662   7.796
51165SOL    HW255329  10.852  10.664   7.915
51166SOL     OW55330   3.373   8.916  12.026
51166SOL    HW155331   3.364   8.920  11.931
51166SOL    HW255332   3.330   8.994  12.058
51167SOL     OW55333   6.160   9.085   7.151
51167SOL    HW155334   6.111   9.050   7.226
51167SOL    HW255335   6.200   9.008   7.110
51168SOL     OW55336   5.081   6.725   7.479
51168SOL    HW155337   5.086   6.782   7.555
51168SOL    HW255338   4.988   6.701   7.473
51169SOL     OW55339  12.463  13.411   0.746
51169SOL    HW155340  12.532  13.475   0.764
51169SOL    HW255341  12.505  13.345   0.691
51170SOL     OW55342  11.750  13.941   7.893
51170SOL    HW155343  11.667  13.936   7.939
51170SOL    HW255344  11.781  13.851   7.888
51171SOL     OW55345   8.927   2.484  11.222
51171SOL    HW155346   8.907   2.559  11.165
51171SOL    HW255347   9.020   2.469  11.211
51172SOL     OW55348   8.038   9.685  12.789
51172SOL    HW155349   7.954   9.713  12.826
51172SOL    HW255350   8.088   9.656  12.866
51173SOL     OW55351   1.053   9.858  13.360
51173SOL    HW155352   0.966   9.820  13.345
51173SOL    HW255353   1.109   9.814  13.296
51174SOL     OW55354   6.958   7.901   4.444
51174SOL    HW155355   6.909   7.965   4.391
51174SOL    HW255356   6.948   7.931   4.534
51175SOL     OW55357   2.164   2.536   5.394
51175SOL    HW155358   2.204   2.542   5.481
51175SOL    HW255359   2.231   2.494   5.340
51176SOL     OW55360   0.792   4.409   2.242
51176SOL    HW155361   0.854   4.372   2.305
51176SOL    HW255362   0.843   4.473   2.193
51177SOL     OW55363   6.814   1.096   5.402
51177SOL    HW155364   6.818   1.017   5.456
51177SOL    HW255365   6.905   1.113   5.376
51178SOL     OW55366  11.616   0.642   7.578
51178SOL    HW155367  11.709   0.643   7.558
51178SOL    HW255368  11.575   0.609   7.498
51179SOL     OW55369   6.468   6.751   7.303
51179SOL    HW155370   6.375   6.752   7.325
51179SOL    HW255371   6.507   6.814   7.362
51180SOL     OW55372   2.102   1.527   6.400
51180SOL    HW155373   2.131   1.601   6.347
51180SOL    HW255374   2.175   1.465   6.397
51181SOL     OW55375   4.337   8.798  12.556
51181SOL    HW155376   4.308   8.712  12.586
51181SOL    HW255377   4.353   8.847  12.636
51182SOL     OW55378   8.103   8.409   7.471
51182SOL    HW155379   8.019   8.418   7.425
51182SOL    HW255380   8.079   8.373   7.556
51183SOL     OW55381  10.333   5.897   2.572
51183SOL    HW155382  10.376   5.958   2.512
51183SOL    HW255383  10.398   5.881   2.641
51184SOL     OW55384   6.490  13.448  13.741
51184SOL    HW155385   6.527  13.525  13.698
51184SOL    HW255386   6.480  13.474  13.832
51185SOL     OW55387  12.940  12.449   3.001
51185SOL    HW155388  13.003  12.501   2.952
51185SOL    HW255389  12.993  12.394   3.059
51186SOL     OW55390   8.544  14.150   5.453
51186SOL    HW155391   8.599  14.078   5.485
51186SOL    HW255392   8.458  14.109   5.439
51187SOL     OW55393   8.170   4.671  10.703
51187SOL    HW155394   8.126   4.591  10.676
51187SOL    HW255395   8.256   4.667  10.662
51188SOL     OW55396  12.496   6.135   2.085
51188SOL    HW155397  12.503   6.198   2.157
51188SOL    HW255398  12.581   6.091   2.084
51189SOL     OW55399   8.289   3.274   7.176
51189SOL    HW155400   8.260   3.315   7.257
51189SOL    HW255401   8.367   3.323   7.151
51190SOL     OW55402  10.079   8.982   8.632
51190SOL    HW155403  10.032   9.022   8.558
51190SOL    HW255404  10.111   8.898   8.598
51191SOL     OW55405   3.000   1.520   8.289
51191SOL    HW155406   2.980   1.448   8.349
51191SOL    HW255407   2.942   1.590   8.315
51192SOL     OW55408   6.378  10.753  10.521
51192SOL    HW155409   6.284  10.747  10.500
51192SOL    HW255410   6.388  10.700  10.600
51193SOL     OW55411   5.941   7.764   7.761
51193SOL    HW155412   5.871   7.699   7.756
51193SOL    HW255413   5.902   7.837   7.809
51194SOL     OW55414  10.682  11.522   6.855
51194SOL    HW155415  10.696  11.538   6.761
51194SOL    HW255416  10.742  11.582   6.899
51195SOL     OW55417   3.957   9.301  14.536
51195SOL    HW155418   3.960   9.299  14.440
51195SOL    HW255419   3.869   9.335  14.556
51196SOL     OW55420   0.493   9.391   5.894
51196SOL    HW155421   0.575   9.355   5.929
51196SOL    HW255422   0.425   9.354   5.951
51197SOL     OW55423  13.106   4.585  13.870
51197SOL    HW155424  13.166   4.658  13.856
51197SOL    HW255425  13.108   4.537  13.787
51198SOL     OW55426  10.894   4.866   4.854
51198SOL    HW155427  10.954   4.922   4.904
51198SOL    HW255428  10.813   4.866   4.905
51199SOL     OW55429  10.939   1.694   8.477
51199SOL    HW155430  10.891   1.616   8.450
51199SOL    HW255431  10.886   1.731   8.548
51200SOL     OW55432   7.394  13.345   7.981
51200SOL    HW155433   7.330  13.279   7.953
51200SOL    HW255434   7.398  13.335   8.076
51201SOL     OW55435  14.634  10.033   6.702
51201SOL    HW155436  14.652   9.942   6.726
51201SOL    HW255437  14.575  10.027   6.627
51202SOL     OW55438   8.813  14.182  13.021
51202SOL    HW155439   8.751  14.250  13.047
51202SOL    HW255440   8.769  14.100  13.041
51203SOL     OW55441   7.416   8.415   0.413
51203SOL    HW155442   7.445   8.463   0.490
51203SOL    HW255443   7.405   8.481   0.345
51204SOL     OW55444   1.603   9.800   8.478
51204SOL    HW155445   1.630   9.851   8.402
51204SOL    HW255446   1.540   9.737   8.443
51205SOL     OW55447  14.769   7.144   6.157
51205SOL    HW155448  14.782   7.118   6.066
51205SOL    HW255449  14.822   7.083   6.207
51206SOL     OW55450   8.387  13.705   4.100
51206SOL    HW155451   8.335  13.756   4.039
51206SOL    HW255452   8.333  13.628   4.119
51207SOL     OW55453  14.824   9.956  13.200
51207SOL    HW155454  14.847  10.046  13.224
51207SOL    HW255455  14.730   9.951  13.214
51208SOL     OW55456  10.788  11.384   4.703
51208SOL    HW155457  10.830  11.404   4.787
51208SOL    HW255458  10.714  11.445   4.698
51209SOL     OW55459   7.775  13.213  14.060
51209SOL    HW155460   7.682  13.211  14.083
51209SOL    HW255461   7.801  13.304  14.072
51210SOL     OW55462   1.645   8.396  10.862
51210SOL    HW155463   1.662   8.417  10.770
51210SOL    HW255464   1.561   8.438  10.881
51211SOL     OW55465   2.477   6.032   7.729
51211SOL    HW155466   2.544   6.083   7.776
51211SOL    HW255467   2.522   6.001   7.650
51212SOL     OW55468   9.217   1.141   3.464
51212SOL    HW155469   9.297   1.162   3.513
51212SOL    HW255470   9.157   1.108   3.530
51213SOL     OW55471   3.831   1.979   9.300
51213SOL    HW155472   3.803   1.938   9.219
51213SOL    HW255473   3.838   1.906   9.362
51214SOL     OW55474   8.772  12.024   5.264
51214SOL    HW155475   8.817  12.039   5.347
51214SOL    HW255476   8.679  12.038   5.284
51215SOL     OW55477  14.782   0.587  13.106
51215SOL    HW155478  14.834   0.507  13.121
51215SOL    HW255479  14.692   0.560  13.122
51216SOL     OW55480  14.688   1.364  13.750
51216SOL    HW155481  14.731   1.446  13.728
51216SOL    HW255482  14.596   1.387  13.763
51217SOL     OW55483  11.167   3.576   5.140
51217SOL    HW155484  11.116   3.651   5.170
51217SOL    HW255485  11.200   3.535   5.220
51218SOL     OW55486  12.057   6.169   6.620
51218SOL    HW155487  12.042   6.249   6.569
51218SOL    HW255488  12.075   6.200   6.709
51219SOL     OW55489   9.431   4.334   3.068
51219SOL    HW155490   9.479   4.254   3.088
51219SOL    HW255491   9.463   4.360   2.982
51220SOL     OW55492   8.261   7.799  14.074
51220SOL    HW155493   8.198   7.858  14.116
51220SOL    HW255494   8.318   7.856  14.023
51221SOL     OW55495   8.846   8.782   5.714
51221SOL    HW155496   8.822   8.689   5.721
51221SOL    HW255497   8.762   8.827   5.700
51222SOL     OW55498   7.321   3.010   6.496
51222SOL    HW155499   7.416   3.017   6.495
51222SOL    HW255500   7.289   3.093   6.462
51223SOL     OW55501  11.048   0.595   9.825
51223SOL    HW155502  11.032   0.556   9.739
51223SOL    HW255503  10.973   0.566   9.879
51224SOL     OW55504  12.265   0.109   4.569
51224SOL    HW155505  12.269   0.203   4.549
51224SOL    HW255506  12.235   0.069   4.487
51225SOL     OW55507   7.307   1.756   3.871
51225SOL    HW155508   7.321   1.793   3.784
51225SOL    HW255509   7.218   1.722   3.869
51226SOL     OW55510   5.493  14.451  14.095
51226SOL    HW155511   5.502  14.376  14.154
51226SOL    HW255512   5.567  14.443  14.035
51227SOL     OW55513   9.181  11.309  13.908
51227SOL    HW155514   9.102  11.255  13.908
51227SOL    HW255515   9.165  11.375  13.841
51228SOL     OW55516  10.276  10.387   3.089
51228SOL    HW155517  10.359  10.378   3.135
51228SOL    HW255518  10.223  10.314   3.120
51229SOL     OW55519   3.005  13.948   7.022
51229SOL    HW155520   2.951  13.909   7.091
51229SOL    HW255521   3.086  13.896   7.022
51230SOL     OW55522  13.769   8.819  12.636
51230SOL    HW155523  13.852   8.786  12.671
51230SOL    HW255524  13.709   8.817  12.711
51231SOL     OW55525  13.286  10.672   4.721
51231SOL    HW155526  13.300  10.754   4.769
51231SOL    HW255527  13.298  10.696   4.629
51232SOL     OW55528   4.603   7.064  10.817
51232SOL    HW155529   4.571   7.061  10.727
51232SOL    HW255530   4.656   7.143  10.820
51233SOL     OW55531  12.879  13.527   7.629
51233SOL    HW155532  12.815  13.567   7.687
51233SOL    HW255533  12.913  13.452   7.678
51234SOL     OW55534   0.373   5.652   0.247
51234SOL    HW155535   0.343   5.602   0.170
51234SOL    HW255536   0.469   5.649   0.241
51235SOL     OW55537   0.557   0.887   1.441
51235SOL    HW155538   0.593   0.902   1.354
51235SOL    HW255539   0.555   0.792   1.451
51236SOL     OW55540   4.419   0.298   7.181
51236SOL    HW155541   4.382   0.341   7.258
51236SOL    HW255542   4.370   0.334   7.108
51237SOL     OW55543   9.353   2.242   9.489
51237SOL    HW155544   9.328   2.303   9.420
51237SOL    HW255545   9.408   2.177   9.445
51238SOL     OW55546   3.169   3.741   6.644
51238SOL    HW155547   3.112   3.665   6.628
51238SOL    HW255548   3.140   3.775   6.728
51239SOL     OW55549   8.466  10.008  13.416
51239SOL    HW155550   8.544  10.041  13.460
51239SOL    HW255551   8.488  10.012  13.322
51240SOL     OW55552  10.173   4.512   5.155
51240SOL    HW155553  10.243   4.481   5.212
51240SOL    HW255554  10.127   4.578   5.206
51241SOL     OW55555   8.960   2.561   8.124
51241SOL    HW155556   8.961   2.475   8.083
51241SOL    HW255557   9.047   2.570   8.163
51242SOL     OW55558   6.737   9.696  10.883
51242SOL    HW155559   6.723   9.648  10.964
51242SOL    HW255560   6.649   9.716  10.851
51243SOL     OW55561   5.668   7.011   6.977
51243SOL    HW155562   5.653   6.937   6.918
51243SOL    HW255563   5.633   6.982   7.061
51244SOL     OW55564  14.291  13.859  11.465
51244SOL    HW155565  14.286  13.789  11.530
51244SOL    HW255566  14.244  13.933  11.504
51245SOL     OW55567   0.663   5.390   4.166
51245SOL    HW155568   0.757   5.375   4.177
51245SOL    HW255569   0.633   5.321   4.108
51246SOL     OW55570  11.870  13.025   8.021
51246SOL    HW155571  11.911  13.070   8.095
51246SOL    HW255572  11.893  13.079   7.945
51247SOL     OW55573   5.623   0.410   1.970
51247SOL    HW155574   5.643   0.359   2.048
51247SOL    HW255575   5.529   0.428   1.975
51248SOL     OW55576  12.333   2.129  11.456
51248SOL    HW155577  12.242   2.113  11.430
51248SOL    HW255578  12.383   2.123  11.375
51249SOL     OW55579   5.882  12.626   5.101
51249SOL    HW155580   5.801  12.664   5.069
51249SOL    HW255581   5.862  12.534   5.114
51250SOL     OW55582   2.134   0.968   0.784
51250SOL    HW155583   2.229   0.964   0.770
51250SOL    HW255584   2.098   0.907   0.719
51251SOL     OW55585   7.675   8.253  14.347
51251SOL    HW155586   7.689   8.273  14.255
51251SOL    HW255587   7.645   8.162  14.348
51252SOL     OW55588   7.616  11.675  10.344
51252SOL    HW155589   7.531  11.701  10.309
51252SOL    HW255590   7.612  11.580  10.348
51253SOL     OW55591  11.779  13.140   5.647
51253SOL    HW155592  11.869  13.144   5.677
51253SOL    HW255593  11.785  13.114   5.555
51254SOL     OW55594   2.628   7.380   1.126
51254SOL    HW155595   2.717   7.412   1.143
51254SOL    HW255596   2.639   7.315   1.057
51255SOL     OW55597   3.087   7.421   8.058
51255SOL    HW155598   3.093   7.343   8.002
51255SOL    HW255599   3.083   7.386   8.147
51256SOL     OW55600  11.721  13.031  12.199
51256SOL    HW155601  11.688  12.943  12.180
51256SOL    HW255602  11.682  13.052  12.284
51257SOL     OW55603   8.668  14.170  14.675
51257SOL    HW155604   8.641  14.082  14.648
51257SOL    HW255605   8.744  14.190  14.621
51258SOL     OW55606   2.833  11.510   6.473
51258SOL    HW155607   2.831  11.572   6.546
51258SOL    HW255608   2.748  11.519   6.431
51259SOL     OW55609   7.188   8.236   4.487
51259SOL    HW155610   7.134   8.286   4.548
51259SOL    HW255611   7.232   8.171   4.543
51260SOL     OW55612   7.021  10.680   9.107
51260SOL    HW155613   6.931  10.656   9.126
51260SOL    HW255614   7.038  10.643   9.020
51261SOL     OW55615  13.300   2.793   1.846
51261SOL    HW155616  13.231   2.859   1.854
51261SOL    HW255617  13.351   2.801   1.927
51262SOL     OW55618   2.721   3.231  12.538
51262SOL    HW155619   2.642   3.263  12.583
51262SOL    HW255620   2.733   3.142  12.571
51263SOL     OW55621   4.845   4.662   4.266
51263SOL    HW155622   4.911   4.640   4.200
51263SOL    HW255623   4.774   4.601   4.249
51264SOL     OW55624  14.005   4.830   6.147
51264SOL    HW155625  14.054   4.752   6.174
51264SOL    HW255626  13.992   4.879   6.228
51265SOL     OW55627   5.883   0.282   0.749
51265SOL    HW155628   5.837   0.246   0.673
51265SOL    HW255629   5.871   0.216   0.817
51266SOL     OW55630  13.046   0.029  12.265
51266SOL    HW155631  12.993  14.826  12.239
51266SOL    HW255632  13.022   0.097  12.202
51267SOL     OW55633   8.176  14.416  12.810
51267SOL    HW155634   8.128  14.372  12.880
51267SOL    HW255635   8.110  14.434  12.743
51268SOL     OW55636  12.379  11.735  12.141
51268SOL    HW155637  12.339  11.812  12.181
51268SOL    HW255638  12.448  11.709  12.202
51269SOL     OW55639  11.515   1.337   0.618
51269SOL    HW155640  11.471   1.392   0.683
51269SOL    HW255641  11.606   1.365   0.620
51270SOL     OW55642   5.931   8.429   0.181
51270SOL    HW155643   5.960   8.415   0.270
51270SOL    HW255644   5.881   8.511   0.185
51271SOL     OW55645   5.699   3.626   1.246
51271SOL    HW155646   5.726   3.714   1.273
51271SOL    HW255647   5.780   3.574   1.250
51272SOL     OW55648   9.495   7.075   0.808
51272SOL    HW155649   9.495   6.980   0.819
51272SOL    HW255650   9.586   7.102   0.818
51273SOL     OW55651   7.887   5.417   8.569
51273SOL    HW155652   7.944   5.493   8.582
51273SOL    HW255653   7.898   5.365   8.649
51274SOL     OW55654   9.667  13.619   5.666
51274SOL    HW155655   9.705  13.612   5.578
51274SOL    HW255656   9.593  13.678   5.655
51275SOL     OW55657   8.896   8.809   3.695
51275SOL    HW155658   8.940   8.745   3.751
51275SOL    HW255659   8.868   8.758   3.618
51276SOL     OW55660   6.363   6.305   3.240
51276SOL    HW155661   6.311   6.325   3.162
51276SOL    HW255662   6.370   6.389   3.286
51277SOL     OW55663   9.796   0.395   3.136
51277SOL    HW155664   9.756   0.377   3.221
51277SOL    HW255665   9.828   0.310   3.106
51278SOL     OW55666   2.028   5.266   3.023
51278SOL    HW155667   2.104   5.222   3.062
51278SOL    HW255668   1.961   5.264   3.092
51279SOL     OW55669  13.168   6.413   6.243
51279SOL    HW155670  13.127   6.335   6.278
51279SOL    HW255671  13.243   6.428   6.301
51280SOL     OW55672   2.108  10.386  13.201
51280SOL    HW155673   2.083  10.332  13.276
51280SOL    HW255674   2.196  10.355  13.177
51281SOL     OW55675   0.165  12.931   1.008
51281SOL    HW155676   0.151  12.867   1.077
51281SOL    HW255677   0.166  12.880   0.927
51282SOL     OW55678   2.439  14.041  13.988
51282SOL    HW155679   2.525  14.012  13.959
51282SOL    HW255680   2.382  13.965  13.972
51283SOL     OW55681  13.156  12.714   0.907
51283SOL    HW155682  13.117  12.771   0.841
51283SOL    HW255683  13.210  12.772   0.960
51284SOL     OW55684  10.551   5.382  13.425
51284SOL    HW155685  10.554   5.314  13.357
51284SOL    HW255686  10.459   5.385  13.451
51285SOL     OW55687  13.598  11.097   9.018
51285SOL    HW155688  13.610  11.031   9.086
51285SOL    HW255689  13.687  11.124   8.995
51286SOL     OW55690   3.476   0.433  11.243
51286SOL    HW155691   3.529   0.512  11.226
51286SOL    HW255692   3.419   0.426  11.167
51287SOL     OW55693  11.960  10.809  11.888
51287SOL    HW155694  11.946  10.840  11.978
51287SOL    HW255695  12.039  10.854  11.859
51288SOL     OW55696   8.465   7.210  10.897
51288SOL    HW155697   8.396   7.214  10.831
51288SOL    HW255698   8.427   7.158  10.968
51289SOL     OW55699  13.403   0.092  10.596
51289SOL    HW155700  13.311   0.094  10.623
51289SOL    HW255701  13.422  14.871  10.587
51290SOL     OW55702  12.457   1.109   2.111
51290SOL    HW155703  12.438   1.142   2.199
51290SOL    HW255704  12.538   1.154   2.086
51291SOL     OW55705   9.040   3.395  14.804
51291SOL    HW155706   9.043   3.472  14.747
51291SOL    HW255707   9.132   3.369  14.814
51292SOL     OW55708  11.932   8.764  11.765
51292SOL    HW155709  11.859   8.802  11.716
51292SOL    HW255710  11.900   8.678  11.793
51293SOL     OW55711   9.094   6.016   8.724
51293SOL    HW155712   9.153   5.943   8.704
51293SOL    HW255713   9.064   6.047   8.638
51294SOL     OW55714   9.381  13.782   8.754
51294SOL    HW155715   9.314  13.846   8.780
51294SOL    HW255716   9.424  13.758   8.836
51295SOL     OW55717   7.441  10.002  14.532
51295SOL    HW155718   7.441  10.075  14.469
51295SOL    HW255719   7.513   9.947  14.503
51296SOL     OW55720   4.758   5.733   5.181
51296SOL    HW155721   4.762   5.825   5.156
51296SOL    HW255722   4.718   5.690   5.106
51297SOL     OW55723  12.422   4.609   0.985
51297SOL    HW155724  12.453   4.690   0.947
51297SOL    HW255725  12.493   4.579   1.042
51298SOL     OW55726  12.749  11.470   8.223
51298SOL    HW155727  12.712  11.515   8.299
51298SOL    HW255728  12.826  11.521   8.200
51299SOL     OW55729   1.131   7.912   9.535
51299SOL    HW155730   1.189   7.861   9.592
51299SOL    HW255731   1.172   7.905   9.448
51300SOL     OW55732  14.177   0.960   6.643
51300SOL    HW155733  14.124   0.901   6.590
51300SOL    HW255734  14.129   1.043   6.642
51301SOL     OW55735   8.902  13.696   4.417
51301SOL    HW155736   8.860  13.732   4.340
51301SOL    HW255737   8.904  13.601   4.402
51302SOL     OW55738  12.860  14.054   2.154
51302SOL    HW155739  12.888  14.146   2.161
51302SOL    HW255740  12.925  14.014   2.095
51303SOL     OW55741   1.400  12.975   6.764
51303SOL    HW155742   1.460  12.923   6.817
51303SOL    HW255743   1.313  12.945   6.791
51304SOL     OW55744  14.196   5.795   8.123
51304SOL    HW155745  14.111   5.829   8.096
51304SOL    HW255746  14.246   5.786   8.042
51305SOL     OW55747  11.051   2.141   0.493
51305SOL    HW155748  11.088   2.145   0.581
51305SOL    HW255749  10.997   2.219   0.486
51306SOL     OW55750   6.766   6.568   2.100
51306SOL    HW155751   6.672   6.554   2.091
51306SOL    HW255752   6.774   6.655   2.140
51307SOL     OW55753  13.075  10.394   9.380
51307SOL    HW155754  13.021  10.472   9.370
51307SOL    HW255755  13.142  10.402   9.312
51308SOL     OW55756   6.192   6.536   7.579
51308SOL    HW155757   6.147   6.484   7.646
51308SOL    HW255758   6.124   6.555   7.515
51309SOL     OW55759  14.643   0.375   0.105
51309SOL    HW155760  14.728   0.384   0.061
51309SOL    HW255761  14.613   0.288   0.081
51310SOL     OW55762  11.720  14.575  12.474
51310SOL    HW155763  11.691  14.528  12.396
51310SOL    HW255764  11.815  14.560  12.477
51311SOL     OW55765  10.732  12.669   3.024
51311SOL    HW155766  10.773  12.651   2.939
51311SOL    HW255767  10.777  12.611   3.085
51312SOL     OW55768  12.053   4.963   4.468
51312SOL    HW155769  12.118   4.981   4.401
51312SOL    HW255770  11.982   4.918   4.421
51313SOL     OW55771   1.272   8.187   5.765
51313SOL    HW155772   1.289   8.114   5.825
51313SOL    HW255773   1.220   8.249   5.816
51314SOL     OW55774   4.595   1.016   1.736
51314SOL    HW155775   4.549   1.021   1.653
51314SOL    HW255776   4.679   1.058   1.719
51315SOL     OW55777   3.707   1.819   2.776
51315SOL    HW155778   3.671   1.889   2.832
51315SOL    HW255779   3.633   1.792   2.722
51316SOL     OW55780   9.852  10.643   8.150
51316SOL    HW155781   9.776  10.655   8.093
51316SOL    HW255782   9.862  10.549   8.159
51317SOL     OW55783   7.851   9.693   2.215
51317SOL    HW155784   7.878   9.602   2.206
51317SOL    HW255785   7.781   9.691   2.280
51318SOL     OW55786   0.645   8.708  13.662
51318SOL    HW155787   0.567   8.712  13.718
51318SOL    HW255788   0.715   8.677  13.720
51319SOL     OW55789   6.591   5.346   1.196
51319SOL    HW155790   6.655   5.417   1.193
51319SOL    HW255791   6.519   5.376   1.140
51320SOL     OW55792   6.527   0.776   6.741
51320SOL    HW155793   6.523   0.707   6.675
51320SOL    HW255794   6.509   0.856   6.692
51321SOL     OW55795  10.999   9.851   1.500
51321SOL    HW155796  11.039   9.767   1.526
51321SOL    HW255797  11.066   9.893   1.446
51322SOL     OW55798   1.030   9.235   2.455
51322SOL    HW155799   0.957   9.227   2.517
51322SOL    HW255800   1.107   9.252   2.509
51323SOL     OW55801  12.614  14.179   8.178
51323SOL    HW155802  12.592  14.144   8.092
51323SOL    HW255803  12.532  14.215   8.211
51324SOL     OW55804   8.055   7.818   0.448
51324SOL    HW155805   8.010   7.861   0.376
51324SOL    HW255806   8.027   7.866   0.526
51325SOL     OW55807   9.079   5.154   7.848
51325SOL    HW155808   9.032   5.237   7.861
51325SOL    HW255809   9.171   5.178   7.853
51326SOL     OW55810   2.334   0.690   4.989
51326SOL    HW155811   2.397   0.762   4.982
51326SOL    HW255812   2.333   0.669   5.083
51327SOL     OW55813   1.755   9.419  13.840
51327SOL    HW155814   1.702   9.347  13.873
51327SOL    HW255815   1.808   9.380  13.770
51328SOL     OW55816   0.195  11.612  14.462
51328SOL    HW155817   0.268  11.613  14.523
51328SOL    HW255818   0.210  11.535  14.408
51329SOL     OW55819   1.650   0.704  12.186
51329SOL    HW155820   1.661   0.798  12.199
51329SOL    HW255821   1.722   0.678  12.130
51330SOL     OW55822   6.920   0.055   8.275
51330SOL    HW155823   6.952   0.069   8.186
51330SOL    HW255824   6.840   0.004   8.264
51331SOL     OW55825   3.277   1.632   9.226
51331SOL    HW155826   3.297   1.722   9.200
51331SOL    HW255827   3.278   1.634   9.321
51332SOL     OW55828   3.540   9.137   1.918
51332SOL    HW155829   3.558   9.161   1.827
51332SOL    HW255830   3.557   9.043   1.922
51333SOL     OW55831  13.213   7.701   9.587
51333SOL    HW155832  13.213   7.792   9.618
51333SOL    HW255833  13.121   7.675   9.590
51334SOL     OW55834   7.033   8.793  11.249
51334SOL    HW155835   7.121   8.823  11.272
51334SOL    HW255836   6.984   8.794  11.331
51335SOL     OW55837  14.311  11.447  14.198
51335SOL    HW155838  14.295  11.448  14.104
51335SOL    HW255839  14.228  11.419  14.237
51336SOL     OW55840   8.587   7.811   3.538
51336SOL    HW155841   8.498   7.775   3.537
51336SOL    HW255842   8.585   7.880   3.472
51337SOL     OW55843   0.843   3.415  13.241
51337SOL    HW155844   0.902   3.367  13.299
51337SOL    HW255845   0.814   3.491  13.293
51338SOL     OW55846   6.460   1.784   1.497
51338SOL    HW155847   6.449   1.858   1.437
51338SOL    HW255848   6.381   1.731   1.484
51339SOL     OW55849  11.765   8.557   9.487
51339SOL    HW155850  11.696   8.518   9.540
51339SOL    HW255851  11.793   8.634   9.537
51340SOL     OW55852   9.357   6.648  12.286
51340SOL    HW155853   9.351   6.576  12.349
51340SOL    HW255854   9.288   6.710  12.313
51341SOL     OW55855   9.376  10.249  14.640
51341SOL    HW155856   9.334  10.226  14.722
51341SOL    HW255857   9.470  10.248  14.660
51342SOL     OW55858   5.488  14.013  14.127
51342SOL    HW155859   5.479  14.076  14.199
51342SOL    HW255860   5.425  14.043  14.061
51343SOL     OW55861   4.717  13.171   1.783
51343SOL    HW155862   4.809  13.196   1.777
51343SOL    HW255863   4.677  13.238   1.837
51344SOL     OW55864   8.963   2.148  11.685
51344SOL    HW155865   8.905   2.211  11.728
51344SOL    HW255866   8.974   2.078  11.749
51345SOL     OW55867   6.289   4.458   1.298
51345SOL    HW155868   6.367   4.496   1.338
51345SOL    HW255869   6.237   4.425   1.372
51346SOL     OW55870  10.807  10.888   5.461
51346SOL    HW155871  10.738  10.872   5.396
51346SOL    HW255872  10.851  10.804   5.470
51347SOL     OW55873   6.546  13.313  11.137
51347SOL    HW155874   6.489  13.382  11.101
51347SOL    HW255875   6.519  13.305  11.229
51348SOL     OW55876   3.677  10.909   5.465
51348SOL    HW155877   3.624  10.830   5.460
51348SOL    HW255878   3.674  10.933   5.558
51349SOL     OW55879   9.694   3.251  14.176
51349SOL    HW155880   9.641   3.283  14.103
51349SOL    HW255881   9.783   3.249  14.141
51350SOL     OW55882  14.662  12.633  11.489
51350SOL    HW155883  14.731  12.592  11.437
51350SOL    HW255884  14.590  12.647  11.427
51351SOL     OW55885  14.361  10.020  14.337
51351SOL    HW155886  14.427  10.018  14.268
51351SOL    HW255887  14.323   9.933  14.336
51352SOL     OW55888   8.384   8.506   9.693
51352SOL    HW155889   8.440   8.584   9.690
51352SOL    HW255890   8.332   8.517   9.773
51353SOL     OW55891  10.801   4.975  11.020
51353SOL    HW155892  10.827   4.993  11.110
51353SOL    HW255893  10.870   5.014  10.967
51354SOL     OW55894  12.500   6.463  14.721
51354SOL    HW155895  12.479   6.552  14.749
51354SOL    HW255896  12.426   6.410  14.749
51355SOL     OW55897   6.458   9.456  12.817
51355SOL    HW155898   6.399   9.466  12.892
51355SOL    HW255899   6.424   9.382  12.769
51356SOL     OW55900   4.257  14.196   0.294
51356SOL    HW155901   4.344  14.232   0.275
51356SOL    HW255902   4.256  14.112   0.249
51357SOL     OW55903  10.756   7.256  10.747
51357SOL    HW155904  10.765   7.278  10.840
51357SOL    HW255905  10.789   7.333  10.701
51358SOL     OW55906   9.269   3.245   9.395
51358SOL    HW155907   9.222   3.168   9.361
51358SOL    HW255908   9.201   3.311   9.407
51359SOL     OW55909   9.058  12.687   4.370
51359SOL    HW155910   9.029  12.624   4.436
51359SOL    HW255911   9.069  12.636   4.290
51360SOL     OW55912   8.740  12.439  11.917
51360SOL    HW155913   8.715  12.524  11.880
51360SOL    HW255914   8.661  12.385  11.908
51361SOL     OW55915   6.268   0.942   8.224
51361SOL    HW155916   6.323   0.947   8.146
51361SOL    HW255917   6.194   1.000   8.207
51362SOL     OW55918   8.576   7.740   2.030
51362SOL    HW155919   8.606   7.669   2.087
51362SOL    HW255920   8.510   7.700   1.973
51363SOL     OW55921   1.895  10.790   6.727
51363SOL    HW155922   1.893  10.877   6.687
51363SOL    HW255923   1.967  10.746   6.683
51364SOL     OW55924   7.148  12.042  10.836
51364SOL    HW155925   7.073  12.056  10.894
51364SOL    HW255926   7.222  12.030  10.895
51365SOL     OW55927   9.257   9.296   9.293
51365SOL    HW155928   9.318   9.234   9.334
51365SOL    HW255929   9.286   9.382   9.324
51366SOL     OW55930   5.687  13.651   4.362
51366SOL    HW155931   5.717  13.657   4.272
51366SOL    HW255932   5.746  13.708   4.411
51367SOL     OW55933  12.580  13.449   2.495
51367SOL    HW155934  12.673  13.432   2.480
51367SOL    HW255935  12.563  13.532   2.450
51368SOL     OW55936   2.840  11.318   7.313
51368SOL    HW155937   2.841  11.377   7.239
51368SOL    HW255938   2.903  11.356   7.375
51369SOL     OW55939   0.474   2.963   0.840
51369SOL    HW155940   0.497   2.879   0.879
51369SOL    HW255941   0.482   3.026   0.911
51370SOL     OW55942   3.655  13.033  10.669
51370SOL    HW155943   3.710  13.109  10.689
51370SOL    HW255944   3.628  13.000  10.754
51371SOL     OW55945   5.325   4.473   6.181
51371SOL    HW155946   5.279   4.545   6.225
51371SOL    HW255947   5.412   4.508   6.163
51372SOL     OW55948   5.188   4.587  11.160
51372SOL    HW155949   5.225   4.654  11.103
51372SOL    HW255950   5.196   4.623  11.248
51373SOL     OW55951  13.172   1.613  14.001
51373SOL    HW155952  13.188   1.611  14.095
51373SOL    HW255953  13.161   1.521  13.976
51374SOL     OW55954   8.249  10.372  13.596
51374SOL    HW155955   8.268  10.296  13.542
51374SOL    HW255956   8.230  10.442  13.533
51375SOL     OW55957  10.785   8.620  10.151
51375SOL    HW155958  10.872   8.642  10.117
51375SOL    HW255959  10.742   8.573  10.080
51376SOL     OW55960  13.569   7.954   9.786
51376SOL    HW155961  13.542   7.869   9.750
51376SOL    HW255962  13.646   7.934   9.840
51377SOL     OW55963   4.321  11.246   4.663
51377SOL    HW155964   4.328  11.339   4.682
51377SOL    HW255965   4.229  11.225   4.679
51378SOL     OW55966   5.548   9.589   0.352
51378SOL    HW155967   5.625   9.619   0.401
51378SOL    HW255968   5.545   9.494   0.366
51379SOL     OW55969   3.499  12.591  13.700
51379SOL    HW155970   3.500  12.562  13.609
51379SOL    HW255971   3.475  12.513  13.750
51380SOL     OW55972  14.499  12.969  11.091
51380SOL    HW155973  14.413  13.001  11.119
51380SOL    HW255974  14.539  13.044  11.047
51381SOL     OW55975  10.767   4.480   7.378
51381SOL    HW155976  10.848   4.531   7.384
51381SOL    HW255977  10.700   4.538   7.415
51382SOL     OW55978   6.443   5.657   3.678
51382SOL    HW155979   6.534   5.658   3.650
51382SOL    HW255980   6.400   5.594   3.620
51383SOL     OW55981   4.893   3.657   4.444
51383SOL    HW155982   4.817   3.668   4.502
51383SOL    HW255983   4.909   3.744   4.408
51384SOL     OW55984   2.668  11.396   7.918
51384SOL    HW155985   2.728  11.326   7.943
51384SOL    HW255986   2.671  11.458   7.991
51385SOL     OW55987  12.913   3.880   9.623
51385SOL    HW155988  13.005   3.903   9.608
51385SOL    HW255989  12.888   3.931   9.700
51386SOL     OW55990  10.577   9.751   2.338
51386SOL    HW155991  10.485   9.777   2.332
51386SOL    HW255992  10.573   9.657   2.356
51387SOL     OW55993   4.141  12.836   6.428
51387SOL    HW155994   4.139  12.778   6.504
51387SOL    HW255995   4.052  12.872   6.423
51388SOL     OW55996   6.511   9.786   2.259
51388SOL    HW155997   6.583   9.828   2.212
51388SOL    HW255998   6.439   9.849   2.251
51389SOL     OW55999   8.834   0.761  12.121
51389SOL    HW156000   8.793   0.740  12.037
51389SOL    HW256001   8.881   0.681  12.145
51390SOL     OW56002  13.601   5.294  13.017
51390SOL    HW156003  13.527   5.293  12.957
51390SOL    HW256004  13.673   5.257  12.965
51391SOL     OW56005   9.277   7.577   0.140
51391SOL    HW156006   9.363   7.536   0.146
51391SOL    HW256007   9.285   7.640   0.069
51392SOL     OW56008   9.562   5.259   2.113
51392SOL    HW156009   9.532   5.169   2.126
51392SOL    HW256010   9.645   5.263   2.161
51393SOL     OW56011   7.065  10.458  11.020
51393SOL    HW156012   7.084  10.470  11.113
51393SOL    HW256013   6.973  10.432  11.017
51394SOL     OW56014  13.516   1.236  11.882
51394SOL    HW156015  13.550   1.154  11.916
51394SOL    HW256016  13.429   1.214  11.848
51395SOL     OW56017  13.108  12.319  11.901
51395SOL    HW156018  13.085  12.394  11.847
51395SOL    HW256019  13.092  12.348  11.991
51396SOL     OW56020   8.137   4.058   3.036
51396SOL    HW156021   8.114   4.150   3.025
51396SOL    HW256022   8.137   4.045   3.131
51397SOL     OW56023  11.927   6.632   1.217
51397SOL    HW156024  11.954   6.552   1.263
51397SOL    HW256025  11.840   6.651   1.253
51398SOL     OW56026   2.733   9.753   6.425
51398SOL    HW156027   2.671   9.816   6.389
51398SOL    HW256028   2.810   9.806   6.448
51399SOL     OW56029   9.378   1.734  11.922
51399SOL    HW156030   9.423   1.785  11.855
51399SOL    HW256031   9.425   1.754  12.003
51400SOL     OW56032  13.531  13.155   6.608
51400SOL    HW156033  13.584  13.229   6.578
51400SOL    HW256034  13.571  13.078   6.566
51401SOL     OW56035  13.470   2.532  14.379
51401SOL    HW156036  13.505   2.516  14.466
51401SOL    HW256037  13.538   2.500  14.320
51402SOL     OW56038  13.646   9.197  14.217
51402SOL    HW156039  13.621   9.190  14.125
51402SOL    HW256040  13.636   9.108  14.251
51403SOL     OW56041   4.220   5.251  14.659
51403SOL    HW156042   4.203   5.220  14.748
51403SOL    HW256043   4.139   5.296  14.634
51404SOL     OW56044   8.958  12.077  11.788
51404SOL    HW156045   9.034  12.135  11.799
51404SOL    HW256046   8.897  12.127  11.734
51405SOL     OW56047  13.166   0.970   8.569
51405SOL    HW156048  13.112   0.983   8.492
51405SOL    HW256049  13.241   0.920   8.537
51406SOL     OW56050  11.382  12.264   5.151
51406SOL    HW156051  11.303  12.244   5.202
51406SOL    HW256052  11.438  12.187   5.164
51407SOL     OW56053  11.238   9.754   4.495
51407SOL    HW156054  11.194   9.676   4.530
51407SOL    HW256055  11.321   9.758   4.542
51408SOL     OW56056   2.985   3.417   4.467
51408SOL    HW156057   3.049   3.484   4.443
51408SOL    HW256058   2.936   3.456   4.540
51409SOL     OW56059  10.675  12.350   8.063
51409SOL    HW156060  10.681  12.406   8.140
51409SOL    HW256061  10.714  12.401   7.992
51410SOL     OW56062   1.583   6.892  11.382
51410SOL    HW156063   1.593   6.864  11.473
51410SOL    HW256064   1.491   6.875  11.362
51411SOL     OW56065   3.747   9.886   6.025
51411SOL    HW156066   3.755   9.976   5.994
51411SOL    HW256067   3.824   9.842   5.990
51412SOL     OW56068   7.662   5.451   2.951
51412SOL    HW156069   7.735   5.474   3.009
51412SOL    HW256070   7.632   5.535   2.916
51413SOL     OW56071   6.420   4.189   5.210
51413SOL    HW156072   6.512   4.186   5.235
51413SOL    HW256073   6.381   4.254   5.268
51414SOL     OW56074  12.950  11.340   4.363
51414SOL    HW156075  12.997  11.266   4.323
51414SOL    HW256076  13.015  11.409   4.369
51415SOL     OW56077   5.998   4.069  14.089
51415SOL    HW156078   5.987   3.991  14.035
51415SOL    HW256079   5.990   4.142  14.028
51416SOL     OW56080   5.874  14.433   8.326
51416SOL    HW156081   5.850  14.405   8.414
51416SOL    HW256082   5.797  14.413   8.272
51417SOL     OW56083  14.276   9.721  10.273
51417SOL    HW156084  14.248   9.639  10.233
51417SOL    HW256085  14.371   9.715  10.276
51418SOL     OW56086  13.638   7.343   7.259
51418SOL    HW156087  13.699   7.355   7.331
51418SOL    HW256088  13.683   7.283   7.199
51419SOL     OW56089   3.664  12.614   7.119
51419SOL    HW156090   3.617  12.592   7.200
51419SOL    HW256091   3.629  12.699   7.093
51420SOL     OW56092  11.197   7.461   4.948
51420SOL    HW156093  11.240   7.400   4.888
51420SOL    HW256094  11.104   7.439   4.941
51421SOL     OW56095   4.496  13.792  10.120
51421SOL    HW156096   4.423  13.852  10.134
51421SOL    HW256097   4.466  13.709  10.157
51422SOL     OW56098   9.875   1.023  13.426
51422SOL    HW156099   9.921   1.106  13.412
51422SOL    HW256100   9.878   0.980  13.341
51423SOL     OW56101   6.686   1.861   5.338
51423SOL    HW156102   6.595   1.881   5.317
51423SOL    HW256103   6.724   1.945   5.363
51424SOL     OW56104   2.848   9.442   0.143
51424SOL    HW156105   2.839   9.388   0.064
51424SOL    HW256106   2.846   9.532   0.110
51425SOL     OW56107   5.038  13.340   0.754
51425SOL    HW156108   4.971  13.327   0.821
51425SOL    HW256109   5.021  13.428   0.719
51426SOL     OW56110  11.524   1.049  13.927
51426SOL    HW156111  11.564   0.993  13.861
51426SOL    HW256112  11.561   1.136  13.913
51427SOL     OW56113   4.355  12.525  14.105
51427SOL    HW156114   4.261  12.506  14.110
51427SOL    HW256115   4.396  12.459  14.161
51428SOL     OW56116   4.599   7.970  10.872
51428SOL    HW156117   4.541   7.984  10.946
51428SOL    HW256118   4.541   7.939  10.802
51429SOL     OW56119   1.286  11.079  11.853
51429SOL    HW156120   1.311  11.034  11.772
51429SOL    HW256121   1.307  11.016  11.923
51430SOL     OW56122  11.474   6.440   7.963
51430SOL    HW156123  11.544   6.377   7.978
51430SOL    HW256124  11.489   6.507   8.030
51431SOL     OW56125   1.774   1.357   9.846
51431SOL    HW156126   1.746   1.356   9.938
51431SOL    HW256127   1.868   1.375   9.850
51432SOL     OW56128   3.848   9.518  13.173
51432SOL    HW156129   3.849   9.448  13.239
51432SOL    HW256130   3.763   9.509  13.129
51433SOL     OW56131   5.134   2.658   9.723
51433SOL    HW156132   5.194   2.615   9.662
51433SOL    HW256133   5.066   2.593   9.740
51434SOL     OW56134   6.525   5.192   5.701
51434SOL    HW156135   6.445   5.175   5.652
51434SOL    HW256136   6.548   5.107   5.739
51435SOL     OW56137  13.075   6.486  11.024
51435SOL    HW156138  13.143   6.419  11.035
51435SOL    HW256139  13.123   6.563  10.993
51436SOL     OW56140   3.014   6.731  11.484
51436SOL    HW156141   2.927   6.749  11.519
51436SOL    HW256142   3.070   6.798  11.524
51437SOL     OW56143  11.427  13.996   6.189
51437SOL    HW156144  11.369  14.022   6.118
51437SOL    HW256145  11.457  13.908   6.164
51438SOL     OW56146   6.890  13.281  13.873
51438SOL    HW156147   6.840  13.335  13.811
51438SOL    HW256148   6.909  13.340  13.946
51439SOL     OW56149   4.356   0.328  12.041
51439SOL    HW156150   4.333   0.410  11.997
51439SOL    HW256151   4.379   0.354  12.130
51440SOL     OW56152   9.190   4.202   0.183
51440SOL    HW156153   9.102   4.182   0.151
51440SOL    HW256154   9.211   4.287   0.144
51441SOL     OW56155   6.514   1.147  12.008
51441SOL    HW156156   6.552   1.230  12.038
51441SOL    HW256157   6.458   1.118  12.079
51442SOL     OW56158   4.343  10.475   4.066
51442SOL    HW156159   4.262  10.452   4.020
51442SOL    HW256160   4.316  10.544   4.127
51443SOL     OW56161  14.571   7.333   4.361
51443SOL    HW156162  14.602   7.252   4.321
51443SOL    HW256163  14.613   7.335   4.447
51444SOL     OW56164   4.618  14.237   8.728
51444SOL    HW156165   4.703  14.259   8.691
51444SOL    HW256166   4.636  14.169   8.793
51445SOL     OW56167   8.568  13.581   2.709
51445SOL    HW156168   8.619  13.653   2.747
51445SOL    HW256169   8.517  13.622   2.639
51446SOL     OW56170   6.012   7.817  12.007
51446SOL    HW156171   6.087   7.758  11.996
51446SOL    HW256172   6.013   7.871  11.928
51447SOL     OW56173   9.575  12.799   6.048
51447SOL    HW156174   9.671  12.796   6.042
51447SOL    HW256175   9.545  12.734   5.984
51448SOL     OW56176  13.411  14.429  12.002
51448SOL    HW156177  13.409  14.442  12.097
51448SOL    HW256178  13.425  14.517  11.967
51449SOL     OW56179   0.262   5.217   0.745
51449SOL    HW156180   0.299   5.302   0.767
51449SOL    HW256181   0.284   5.205   0.652
51450SOL     OW56182   7.840   6.514   8.361
51450SOL    HW156183   7.914   6.522   8.422
51450SOL    HW256184   7.882   6.505   8.275
51451SOL     OW56185  10.874  10.523   4.905
51451SOL    HW156186  10.804  10.579   4.940
51451SOL    HW256187  10.954  10.575   4.915
51452SOL     OW56188   6.378   3.946  12.882
51452SOL    HW156189   6.440   3.874  12.898
51452SOL    HW256190   6.402   4.012  12.948
51453SOL     OW56191   7.801  12.280  12.420
51453SOL    HW156192   7.780  12.188  12.434
51453SOL    HW256193   7.855  12.281  12.342
51454SOL     OW56194   2.027   1.052   8.821
51454SOL    HW156195   1.957   0.998   8.857
51454SOL    HW256196   1.990   1.090   8.741
51455SOL     OW56197   6.272  10.037  12.163
51455SOL    HW156198   6.223  10.074  12.236
51455SOL    HW256199   6.249  10.093  12.088
51456SOL     OW56200   0.537  11.645   9.746
51456SOL    HW156201   0.576  11.710   9.805
51456SOL    HW256202   0.489  11.586   9.805
51457SOL     OW56203   8.747  11.990   4.209
51457SOL    HW156204   8.659  11.960   4.232
51457SOL    HW256205   8.748  11.992   4.113
51458SOL     OW56206   9.646   9.876   9.752
51458SOL    HW156207   9.627   9.812   9.820
51458SOL    HW256208   9.636   9.961   9.796
51459SOL     OW56209   3.871   2.125  12.406
51459SOL    HW156210   3.803   2.192  12.400
51459SOL    HW256211   3.948   2.172  12.439
51460SOL     OW56212   8.509   1.370   2.873
51460SOL    HW156213   8.498   1.277   2.853
51460SOL    HW256214   8.526   1.373   2.967
51461SOL     OW56215   9.784   6.566   6.893
51461SOL    HW156216   9.692   6.556   6.869
51461SOL    HW256217   9.815   6.639   6.840
51462SOL     OW56218   7.794   8.324  10.628
51462SOL    HW156219   7.701   8.303  10.629
51462SOL    HW256220   7.796   8.417  10.603
51463SOL     OW56221   3.654   0.343  14.663
51463SOL    HW156222   3.637   0.426  14.618
51463SOL    HW256223   3.638   0.362  14.756
51464SOL     OW56224   9.092   4.969  12.588
51464SOL    HW156225   9.045   5.051  12.607
51464SOL    HW256226   9.033   4.921  12.529
51465SOL     OW56227   2.411  14.451   4.382
51465SOL    HW156228   2.332  14.416   4.424
51465SOL    HW256229   2.390  14.543   4.365
51466SOL     OW56230   4.853   8.070   6.991
51466SOL    HW156231   4.812   8.156   6.980
51466SOL    HW256232   4.780   8.009   7.001
51467SOL     OW56233   4.208   9.164   8.419
51467SOL    HW156234   4.279   9.199   8.366
51467SOL    HW256235   4.138   9.229   8.411
51468SOL     OW56236   7.164  12.901  13.836
51468SOL    HW156237   7.111  12.823  13.850
51468SOL    HW256238   7.180  12.936  13.923
51469SOL     OW56239   1.630   1.809   8.296
51469SOL    HW156240   1.541   1.822   8.264
51469SOL    HW256241   1.680   1.784   8.218
51470SOL     OW56242  11.726  10.291   2.400
51470SOL    HW156243  11.798  10.340   2.440
51470SOL    HW256244  11.717  10.329   2.312
51471SOL     OW56245  14.001   0.192  10.289
51471SOL    HW156246  13.928   0.138  10.320
51471SOL    HW256247  13.968   0.282  10.295
51472SOL     OW56248   9.554   4.794   6.026
51472SOL    HW156249   9.518   4.877   5.993
51472SOL    HW256250   9.585   4.748   5.948
51473SOL     OW56251   2.321   4.388   4.484
51473SOL    HW156252   2.326   4.310   4.429
51473SOL    HW256253   2.410   4.423   4.486
51474SOL     OW56254  14.179   9.230   3.426
51474SOL    HW156255  14.104   9.220   3.366
51474SOL    HW256256  14.142   9.272   3.503
51475SOL     OW56257   1.938   1.677  10.149
51475SOL    HW156258   1.905   1.692  10.060
51475SOL    HW256259   1.860   1.668  10.203
51476SOL     OW56260   5.965   6.508   3.154
51476SOL    HW156261   5.889   6.531   3.207
51476SOL    HW256262   5.976   6.414   3.167
51477SOL     OW56263   3.492   7.152   5.118
51477SOL    HW156264   3.406   7.195   5.120
51477SOL    HW256265   3.548   7.208   5.172
51478SOL     OW56266   8.690  10.187   9.373
51478SOL    HW156267   8.737  10.145   9.445
51478SOL    HW256268   8.632  10.118   9.340
51479SOL     OW56269   5.339  12.201  10.479
51479SOL    HW156270   5.410  12.217  10.417
51479SOL    HW256271   5.368  12.126  10.530
51480SOL     OW56272   5.388   7.316  11.577
51480SOL    HW156273   5.339   7.235  11.591
51480SOL    HW256274   5.443   7.299  11.501
51481SOL     OW56275  14.448   4.315  10.304
51481SOL    HW156276  14.378   4.292  10.365
51481SOL    HW256277  14.456   4.410  10.311
51482SOL     OW56278   3.865   6.627  10.754
51482SOL    HW156279   3.918   6.553  10.782
51482SOL    HW256280   3.928   6.697  10.738
51483SOL     OW56281   6.076  14.745   7.329
51483SOL    HW156282   6.145  14.687   7.297
51483SOL    HW256283   6.034  14.779   7.250
51484SOL     OW56284  11.888   5.114  13.972
51484SOL    HW156285  11.950   5.154  14.033
51484SOL    HW256286  11.805   5.158  13.990
51485SOL     OW56287   1.364   9.945   5.379
51485SOL    HW156288   1.292  10.002   5.407
51485SOL    HW256289   1.329   9.856   5.389
51486SOL     OW56290   0.451   9.023   1.093
51486SOL    HW156291   0.490   8.942   1.062
51486SOL    HW256292   0.362   9.022   1.058
51487SOL     OW56293   7.026   2.191  14.651
51487SOL    HW156294   7.020   2.180  14.746
51487SOL    HW256295   7.109   2.152  14.627
51488SOL     OW56296  11.135   7.703   8.703
51488SOL    HW156297  11.042   7.726   8.705
51488SOL    HW256298  11.179   7.786   8.681
51489SOL     OW56299   7.479   3.989   2.350
51489SOL    HW156300   7.397   3.939   2.353
51489SOL    HW256301   7.519   3.963   2.267
51490SOL     OW56302   0.308   2.371   8.266
51490SOL    HW156303   0.309   2.401   8.357
51490SOL    HW256304   0.400   2.357   8.244
51491SOL     OW56305   9.592  13.036   9.808
51491SOL    HW156306   9.685  13.056   9.806
51491SOL    HW256307   9.565  13.056   9.898
51492SOL     OW56308   2.338   7.323   0.147
51492SOL    HW156309   2.355   7.330   0.053
51492SOL    HW256310   2.425   7.315   0.187
51493SOL     OW56311   7.058   0.332   5.942
51493SOL    HW156312   7.101   0.325   6.027
51493SOL    HW256313   7.096   0.260   5.891
51494SOL     OW56314   0.604   0.675   1.823
51494SOL    HW156315   0.651   0.651   1.903
51494SOL    HW256316   0.631   0.766   1.806
51495SOL     OW56317   9.641  12.417  11.310
51495SOL    HW156318   9.715  12.364  11.341
51495SOL    HW256319   9.613  12.466  11.387
51496SOL     OW56320  10.420   3.034   5.499
51496SOL    HW156321  10.490   3.052   5.562
51496SOL    HW256322  10.344   3.014   5.553
51497SOL     OW56323   3.965   0.224   0.655
51497SOL    HW156324   4.000   0.149   0.702
51497SOL    HW256325   3.873   0.201   0.640
51498SOL     OW56326   8.217   5.170  14.152
51498SOL    HW156327   8.252   5.205  14.234
51498SOL    HW256328   8.290   5.121  14.114
51499SOL     OW56329   1.211   3.387   8.401
51499SOL    HW156330   1.270   3.461   8.418
51499SOL    HW256331   1.124   3.421   8.421
51500SOL     OW56332   8.703   2.576   5.194
51500SOL    HW156333   8.691   2.613   5.107
51500SOL    HW256334   8.731   2.650   5.248
51501SOL     OW56335  11.550   8.208   0.811
51501SOL    HW156336  11.633   8.254   0.805
51501SOL    HW256337  11.524   8.217   0.903
51502SOL     OW56338   5.443   2.082   9.339
51502SOL    HW156339   5.428   2.160   9.285
51502SOL    HW256340   5.355   2.054   9.366
51503SOL     OW56341   8.188   5.045   7.306
51503SOL    HW156342   8.134   5.101   7.362
51503SOL    HW256343   8.169   4.956   7.337
51504SOL     OW56344   7.850  13.970   9.856
51504SOL    HW156345   7.762  13.997   9.884
51504SOL    HW256346   7.846  13.874   9.852
51505SOL     OW56347  13.062  13.973  14.151
51505SOL    HW156348  13.001  14.026  14.202
51505SOL    HW256349  13.010  13.940  14.078
51506SOL     OW56350   0.132   4.232  10.169
51506SOL    HW156351   0.217   4.189  10.169
51506SOL    HW256352   0.149   4.320  10.137
51507SOL     OW56353  12.640   1.229   7.001
51507SOL    HW156354  12.565   1.248   7.058
51507SOL    HW256355  12.674   1.146   7.033
51508SOL     OW56356  10.400   9.739   8.677
51508SOL    HW156357  10.390   9.829   8.644
51508SOL    HW256358  10.465   9.699   8.620
51509SOL     OW56359   3.880   4.866   1.871
51509SOL    HW156360   3.901   4.832   1.784
51509SOL    HW256361   3.842   4.792   1.917
51510SOL     OW56362  12.034   8.384   0.577
51510SOL    HW156363  12.110   8.329   0.599
51510SOL    HW256364  12.072   8.463   0.538
51511SOL     OW56365  10.362   3.700   3.008
51511SOL    HW156366  10.424   3.691   3.081
51511SOL    HW256367  10.338   3.792   3.007
51512SOL     OW56368   0.178   8.337   7.893
51512SOL    HW156369   0.170   8.360   7.985
51512SOL    HW256370   0.103   8.377   7.851
51513SOL     OW56371  11.637   6.333   6.375
51513SOL    HW156372  11.663   6.355   6.285
51513SOL    HW256373  11.542   6.350   6.377
51514SOL     OW56374  14.509   9.905   9.443
51514SOL    HW156375  14.480   9.822   9.481
51514SOL    HW256376  14.573   9.939   9.506
51515SOL     OW56377   6.569  10.670   5.665
51515SOL    HW156378   6.568  10.766   5.659
51515SOL    HW256379   6.657  10.649   5.696
51516SOL     OW56380   9.969  10.456  11.129
51516SOL    HW156381  10.007  10.400  11.196
51516SOL    HW256382   9.977  10.406  11.048
51517SOL     OW56383  13.224   9.331   2.460
51517SOL    HW156384  13.272   9.302   2.538
51517SOL    HW256385  13.248   9.268   2.392
51518SOL     OW56386   5.410   7.622   2.872
51518SOL    HW156387   5.401   7.715   2.895
51518SOL    HW256388   5.432   7.579   2.954
51519SOL     OW56389   8.235  10.976   0.811
51519SOL    HW156390   8.254  11.007   0.900
51519SOL    HW256391   8.321  10.958   0.773
51520SOL     OW56392   2.976   4.545   0.475
51520SOL    HW156393   2.999   4.452   0.474
51520SOL    HW256394   3.037   4.586   0.414
51521SOL     OW56395  10.024  13.868   5.928
51521SOL    HW156396  10.040  13.835   6.016
51521SOL    HW256397  10.068  13.953   5.926
51522SOL     OW56398   2.470   1.291  11.655
51522SOL    HW156399   2.459   1.262  11.745
51522SOL    HW256400   2.507   1.215  11.610
51523SOL     OW56401   7.504   3.993   4.326
51523SOL    HW156402   7.582   3.977   4.379
51523SOL    HW256403   7.438   4.021   4.390
51524SOL     OW56404  13.995   4.942   8.379
51524SOL    HW156405  14.082   4.948   8.339
51524SOL    HW256406  13.980   4.848   8.390
51525SOL     OW56407  10.802   4.239  10.734
51525SOL    HW156408  10.731   4.207  10.790
51525SOL    HW256409  10.839   4.312  10.782
51526SOL     OW56410  12.843   9.237   6.510
51526SOL    HW156411  12.773   9.197   6.563
51526SOL    HW256412  12.797   9.279   6.438
51527SOL     OW56413   2.206   9.441   9.255
51527SOL    HW156414   2.210   9.491   9.336
51527SOL    HW256415   2.142   9.372   9.272
51528SOL     OW56416   2.273   6.111   8.895
51528SOL    HW156417   2.334   6.125   8.968
51528SOL    HW256418   2.281   6.017   8.875
51529SOL     OW56419  13.637   7.494   1.412
51529SOL    HW156420  13.724   7.472   1.379
51529SOL    HW256421  13.650   7.509   1.506
51530SOL     OW56422   6.141   8.356   0.792
51530SOL    HW156423   6.165   8.405   0.871
51530SOL    HW256424   6.216   8.298   0.777
51531SOL     OW56425  11.960   3.631   1.445
51531SOL    HW156426  12.033   3.575   1.420
51531SOL    HW256427  11.882   3.575   1.437
51532SOL     OW56428  13.882  13.598   6.503
51532SOL    HW156429  13.936  13.676   6.517
51532SOL    HW256430  13.798  13.633   6.474
51533SOL     OW56431  12.712   4.818   3.394
51533SOL    HW156432  12.725   4.821   3.299
51533SOL    HW256433  12.666   4.899   3.415
51534SOL     OW56434   2.597   0.281   2.449
51534SOL    HW156435   2.556   0.206   2.492
51534SOL    HW256436   2.683   0.288   2.490
51535SOL     OW56437   2.265   1.103  10.220
51535SOL    HW156438   2.230   1.184  10.258
51535SOL    HW256439   2.217   1.034  10.265
51536SOL     OW56440   6.400   4.657  11.442
51536SOL    HW156441   6.388   4.750  11.461
51536SOL    HW256442   6.476   4.632  11.495
51537SOL     OW56443   4.801  11.580  13.280
51537SOL    HW156444   4.888  11.539  13.274
51537SOL    HW256445   4.780  11.604  13.189
51538SOL     OW56446   2.227   1.799   1.423
51538SOL    HW156447   2.141   1.839   1.416
51538SOL    HW256448   2.209   1.705   1.426
51539SOL     OW56449   8.935  14.649  13.610
51539SOL    HW156450   8.954  14.676  13.520
51539SOL    HW256451   9.001  14.694  13.663
51540SOL     OW56452   7.378   2.191   4.268
51540SOL    HW156453   7.364   2.239   4.350
51540SOL    HW256454   7.308   2.126   4.266
51541SOL     OW56455   0.304   3.858  11.295
51541SOL    HW156456   0.222   3.819  11.266
51541SOL    HW256457   0.299   3.949  11.264
51542SOL     OW56458   2.285  10.500  10.414
51542SOL    HW156459   2.251  10.412  10.405
51542SOL    HW256460   2.208  10.556  10.417
51543SOL     OW56461  10.797   5.263   0.949
51543SOL    HW156462  10.843   5.248   1.032
51543SOL    HW256463  10.769   5.176   0.922
51544SOL     OW56464   7.014   1.835   8.512
51544SOL    HW156465   6.976   1.762   8.464
51544SOL    HW256466   6.963   1.911   8.484
51545SOL     OW56467   1.296   8.465   3.056
51545SOL    HW156468   1.284   8.560   3.052
51545SOL    HW256469   1.236   8.430   2.991
51546SOL     OW56470  10.632  13.298  14.037
51546SOL    HW156471  10.572  13.346  14.094
51546SOL    HW256472  10.683  13.243  14.096
51547SOL     OW56473   1.579   2.219  13.906
51547SOL    HW156474   1.654   2.231  13.847
51547SOL    HW256475   1.608   2.258  13.989
51548SOL     OW56476  14.308   9.413   7.073
51548SOL    HW156477  14.261   9.404   7.156
51548SOL    HW256478  14.315   9.323   7.040
51549SOL     OW56479   4.378  13.173  10.949
51549SOL    HW156480   4.305  13.111  10.949
51549SOL    HW256481   4.343  13.250  10.903
51550SOL     OW56482   2.658   6.813   6.617
51550SOL    HW156483   2.701   6.886   6.573
51550SOL    HW256484   2.729   6.763   6.658
51551SOL     OW56485   1.388   9.414  11.733
51551SOL    HW156486   1.326   9.400  11.661
51551SOL    HW256487   1.471   9.432  11.689
51552SOL     OW56488   9.970  14.311   9.996
51552SOL    HW156489  10.026  14.385   9.972
51552SOL    HW256490   9.898  14.315   9.933
51553SOL     OW56491   2.538   3.923   2.301
51553SOL    HW156492   2.550   3.980   2.377
51553SOL    HW256493   2.497   3.844   2.337
51554SOL     OW56494   6.478   5.418   0.318
51554SOL    HW156495   6.459   5.374   0.401
51554SOL    HW256496   6.511   5.504   0.344
51555SOL     OW56497   3.750  10.927   8.215
51555SOL    HW156498   3.803  10.969   8.283
51555SOL    HW256499   3.812  10.905   8.146
51556SOL     OW56500   5.424   4.577  10.142
51556SOL    HW156501   5.477   4.641  10.093
51556SOL    HW256502   5.422   4.500  10.086
51557SOL     OW56503   1.694   9.328   9.906
51557SOL    HW156504   1.780   9.298   9.876
51557SOL    HW256505   1.636   9.315   9.831
51558SOL     OW56506   5.179   7.732  12.260
51558SOL    HW156507   5.117   7.764  12.326
51558SOL    HW256508   5.154   7.778  12.180
51559SOL     OW56509   8.488  13.675  11.175
51559SOL    HW156510   8.544  13.737  11.221
51559SOL    HW256511   8.399  13.704  11.195
51560SOL     OW56512   1.819   2.448   0.826
51560SOL    HW156513   1.864   2.526   0.856
51560SOL    HW256514   1.814   2.392   0.904
51561SOL     OW56515  10.545   0.909   9.259
51561SOL    HW156516  10.506   0.991   9.292
51561SOL    HW256517  10.521   0.907   9.167
51562SOL     OW56518   4.820  13.407   8.619
51562SOL    HW156519   4.775  13.462   8.554
51562SOL    HW256520   4.871  13.345   8.566
51563SOL     OW56521  14.282   4.645  11.527
51563SOL    HW156522  14.192   4.666  11.553
51563SOL    HW256523  14.333   4.722  11.553
51564SOL     OW56524  12.443   0.980   1.378
51564SOL    HW156525  12.393   1.062   1.379
51564SOL    HW256526  12.418   0.938   1.295
51565SOL     OW56527   7.634   9.262   1.490
51565SOL    HW156528   7.681   9.345   1.490
51565SOL    HW256529   7.612   9.246   1.582
51566SOL     OW56530   3.305   6.584   6.549
51566SOL    HW156531   3.306   6.679   6.546
51566SOL    HW256532   3.371   6.561   6.616
51567SOL     OW56533  14.760   0.085   5.675
51567SOL    HW156534  14.672   0.115   5.695
51567SOL    HW256535  14.779   0.019   5.742
51568SOL     OW56536   6.502  12.035   9.307
51568SOL    HW156537   6.566  11.970   9.337
51568SOL    HW256538   6.553  12.114   9.291
51569SOL     OW56539  13.824   7.174   0.225
51569SOL    HW156540  13.889   7.146   0.289
51569SOL    HW256541  13.831   7.270   0.224
51570SOL     OW56542  10.864  13.668   5.274
51570SOL    HW156543  10.889  13.742   5.330
51570SOL    HW256544  10.823  13.708   5.198
51571SOL     OW56545  12.869  10.526  14.166
51571SOL    HW156546  12.779  10.496  14.158
51571SOL    HW256547  12.874  10.601  14.106
51572SOL     OW56548   8.323  13.619   8.271
51572SOL    HW156549   8.408  13.625   8.314
51572SOL    HW256550   8.320  13.531   8.234
51573SOL     OW56551  14.479  10.889  12.634
51573SOL    HW156552  14.401  10.940  12.653
51573SOL    HW256553  14.500  10.845  12.717
51574SOL     OW56554   2.110   7.561   5.457
51574SOL    HW156555   2.166   7.558   5.534
51574SOL    HW256556   2.026   7.525   5.486
51575SOL     OW56557  10.349   9.248  13.849
51575SOL    HW156558  10.286   9.320  13.848
51575SOL    HW256559  10.347   9.213  13.760
51576SOL     OW56560  13.456   9.614   7.293
51576SOL    HW156561  13.378   9.661   7.322
51576SOL    HW256562  13.450   9.614   7.197
51577SOL     OW56563  14.148   9.710  13.778
51577SOL    HW156564  14.182   9.798  13.763
51577SOL    HW256565  14.054   9.718  13.764
51578SOL     OW56566   9.919   7.821  14.553
51578SOL    HW156567   9.829   7.851  14.549
51578SOL    HW256568   9.927   7.779  14.639
51579SOL     OW56569  10.252  13.157   5.175
51579SOL    HW156570  10.177  13.188   5.225
51579SOL    HW256571  10.325  13.211   5.204
51580SOL     OW56572   8.370   5.092  13.461
51580SOL    HW156573   8.417   5.071  13.542
51580SOL    HW256574   8.398   5.181  13.440
51581SOL     OW56575   6.191   1.020  13.176
51581SOL    HW156576   6.206   0.925  13.172
51581SOL    HW256577   6.130   1.031  13.249
51582SOL     OW56578   0.403   5.665   2.305
51582SOL    HW156579   0.374   5.751   2.335
51582SOL    HW256580   0.495   5.676   2.284
51583SOL     OW56581  13.029   6.850   0.660
51583SOL    HW156582  13.006   6.863   0.567
51583SOL    HW256583  13.054   6.758   0.665
51584SOL     OW56584  14.546   0.603   7.921
51584SOL    HW156585  14.479   0.638   7.862
51584SOL    HW256586  14.508   0.613   8.009
51585SOL     OW56587  14.165   8.147  13.279
51585SOL    HW156588  14.123   8.185  13.202
51585SOL    HW256589  14.250   8.117  13.247
51586SOL     OW56590   6.567   1.410  11.273
51586SOL    HW156591   6.499   1.415  11.340
51586SOL    HW256592   6.591   1.318  11.270
51587SOL     OW56593  11.056  11.647   9.232
51587SOL    HW156594  10.982  11.630   9.174
51587SOL    HW256595  11.027  11.616   9.318
51588SOL     OW56596   6.293   3.867  14.422
51588SOL    HW156597   6.257   3.871  14.510
51588SOL    HW256598   6.258   3.945  14.378
51589SOL     OW56599  12.820   5.899  12.804
51589SOL    HW156600  12.908   5.913  12.838
51589SOL    HW256601  12.779   5.839  12.866
51590SOL     OW56602  11.056   4.690   7.503
51590SOL    HW156603  11.064   4.632   7.427
51590SOL    HW256604  11.012   4.636   7.569
51591SOL     OW56605   3.349   8.807   9.230
51591SOL    HW156606   3.425   8.750   9.230
51591SOL    HW256607   3.355   8.854   9.147
51592SOL     OW56608  12.332   7.449  11.550
51592SOL    HW156609  12.424   7.424  11.565
51592SOL    HW256610  12.294   7.372  11.507
51593SOL     OW56611   5.162  10.810   6.323
51593SOL    HW156612   5.083  10.774   6.364
51593SOL    HW256613   5.163  10.902   6.350
51594SOL     OW56614  11.139   4.754   3.521
51594SOL    HW156615  11.131   4.663   3.550
51594SOL    HW256616  11.050   4.778   3.496
51595SOL     OW56617   4.213   0.144  14.095
51595SOL    HW156618   4.206   0.079  14.164
51595SOL    HW256619   4.153   0.214  14.122
51596SOL     OW56620   2.291   8.762   1.359
51596SOL    HW156621   2.300   8.857   1.374
51596SOL    HW256622   2.329   8.722   1.437
51597SOL     OW56623  12.051   6.559  14.630
51597SOL    HW156624  12.021   6.643  14.596
51597SOL    HW256625  11.971   6.517  14.664
51598SOL     OW56626   9.265   3.306   7.508
51598SOL    HW156627   9.343   3.290   7.456
51598SOL    HW256628   9.279   3.393   7.546
51599SOL     OW56629   3.795   1.185  13.473
51599SOL    HW156630   3.766   1.115  13.416
51599SOL    HW256631   3.714   1.221  13.511
51600SOL     OW56632   0.899  12.909  10.605
51600SOL    HW156633   0.908  12.967  10.681
51600SOL    HW256634   0.821  12.942  10.560
51601SOL     OW56635   3.965   6.192   1.254
51601SOL    HW156636   3.965   6.228   1.165
51601SOL    HW256637   4.038   6.130   1.255
51602SOL     OW56638   3.421  10.678  10.036
51602SOL    HW156639   3.361  10.708  10.104
51602SOL    HW256640   3.439  10.756   9.984
51603SOL     OW56641  13.504   7.650  13.128
51603SOL    HW156642  13.542   7.737  13.112
51603SOL    HW256643  13.526   7.631  13.219
51604SOL     OW56644   8.815   3.450   5.446
51604SOL    HW156645   8.727   3.481   5.425
51604SOL    HW256646   8.847   3.511   5.512
51605SOL     OW56647  10.135   4.109   5.714
51605SOL    HW156648  10.111   4.057   5.791
51605SOL    HW256649  10.159   4.044   5.648
51606SOL     OW56650  10.605   7.287   1.046
51606SOL    HW156651  10.638   7.204   1.013
51606SOL    HW256652  10.558   7.265   1.126
51607SOL     OW56653   0.594  13.563  14.027
51607SOL    HW156654   0.547  13.560  14.110
51607SOL    HW256655   0.614  13.471  14.007
51608SOL     OW56656   0.651  10.770   1.946
51608SOL    HW156657   0.702  10.811   2.015
51608SOL    HW256658   0.670  10.677   1.955
51609SOL     OW56659  10.049  12.572   6.706
51609SOL    HW156660   9.967  12.569   6.657
51609SOL    HW256661  10.022  12.566   6.797
51610SOL     OW56662  12.462   6.481  10.964
51610SOL    HW156663  12.491   6.404  10.914
51610SOL    HW256664  12.393   6.447  11.021
51611SOL     OW56665   6.867  13.610   5.534
51611SOL    HW156666   6.923  13.680   5.567
51611SOL    HW256667   6.925  13.557   5.479
51612SOL     OW56668   8.906  12.402  13.979
51612SOL    HW156669   8.846  12.345  13.931
51612SOL    HW256670   8.984  12.347  13.994
51613SOL     OW56671  11.136   4.992  10.496
51613SOL    HW156672  11.153   5.070  10.443
51613SOL    HW256673  11.042   4.976  10.485
51614SOL     OW56674  13.399   0.902   8.887
51614SOL    HW156675  13.324   0.880   8.832
51614SOL    HW256676  13.394   0.838   8.959
51615SOL     OW56677   1.947   5.708  14.418
51615SOL    HW156678   2.010   5.746  14.358
51615SOL    HW256679   1.921   5.780  14.475
51616SOL     OW56680   6.312   4.586   9.386
51616SOL    HW156681   6.395   4.555   9.423
51616SOL    HW256682   6.278   4.648   9.451
51617SOL     OW56683  13.738   6.256   8.374
51617SOL    HW156684  13.812   6.197   8.365
51617SOL    HW256685  13.736   6.278   8.467
51618SOL     OW56686   9.152   4.496   2.022
51618SOL    HW156687   9.218   4.499   1.952
51618SOL    HW256688   9.123   4.587   2.032
51619SOL     OW56689   3.117  14.546   7.133
51619SOL    HW156690   3.092  14.635   7.157
51619SOL    HW256691   3.212  14.546   7.137
51620SOL     OW56692   2.558  12.132   4.137
51620SOL    HW156693   2.651  12.148   4.127
51620SOL    HW256694   2.516  12.193   4.077
51621SOL     OW56695  12.480  11.281  10.595
51621SOL    HW156696  12.402  11.324  10.559
51621SOL    HW256697  12.477  11.301  10.689
51622SOL     OW56698   5.007  11.230   2.307
51622SOL    HW156699   5.070  11.212   2.376
51622SOL    HW256700   4.938  11.165   2.320
51623SOL     OW56701   8.900   4.401   1.984
51623SOL    HW156702   8.976   4.388   2.041
51623SOL    HW256703   8.936   4.443   1.906
51624SOL     OW56704   1.496   5.928   6.971
51624SOL    HW156705   1.527   6.015   6.948
51624SOL    HW256706   1.574   5.882   7.002
51625SOL     OW56707   7.215   0.065   8.126
51625SOL    HW156708   7.191  14.865   8.069
51625SOL    HW256709   7.198   0.143   8.073
51626SOL     OW56710  14.388   6.898  12.817
51626SOL    HW156711  14.467   6.845  12.827
51626SOL    HW256712  14.398   6.967  12.883
51627SOL     OW56713   2.145  11.732   5.066
51627SOL    HW156714   2.122  11.735   5.159
51627SOL    HW256715   2.207  11.660   5.059
51628SOL     OW56716   4.630  13.750   9.872
51628SOL    HW156717   4.579  13.760   9.952
51628SOL    HW256718   4.700  13.815   9.880
51629SOL     OW56719  11.325   5.061   1.881
51629SOL    HW156720  11.329   5.142   1.932
51629SOL    HW256721  11.242   5.068   1.833
51630SOL     OW56722   7.516   8.956  11.866
51630SOL    HW156723   7.498   8.863  11.851
51630SOL    HW256724   7.478   8.976  11.951
51631SOL     OW56725  12.359  10.348   6.273
51631SOL    HW156726  12.363  10.256   6.246
51631SOL    HW256727  12.416  10.394   6.211
51632SOL     OW56728   0.496   1.684   7.804
51632SOL    HW156729   0.497   1.688   7.900
51632SOL    HW256730   0.407   1.654   7.783
51633SOL     OW56731  11.306  13.969   1.441
51633SOL    HW156732  11.216  13.953   1.412
51633SOL    HW256733  11.297  14.021   1.521
51634SOL     OW56734  10.363  11.762   5.925
51634SOL    HW156735  10.313  11.821   5.869
51634SOL    HW256736  10.297  11.712   5.972
51635SOL     OW56737   4.301   6.681   9.688
51635SOL    HW156738   4.232   6.670   9.623
51635SOL    HW256739   4.373   6.625   9.657
51636SOL     OW56740  10.885  11.121   4.805
51636SOL    HW156741  10.853  11.210   4.792
51636SOL    HW256742  10.977  11.125   4.779
51637SOL     OW56743  13.526   6.305   9.556
51637SOL    HW156744  13.485   6.242   9.615
51637SOL    HW256745  13.461   6.319   9.487
51638SOL     OW56746   4.206   3.711   2.124
51638SOL    HW156747   4.156   3.630   2.136
51638SOL    HW256748   4.149   3.779   2.159
51639SOL     OW56749   0.392  13.433   4.043
51639SOL    HW156750   0.407  13.515   3.997
51639SOL    HW256751   0.441  13.442   4.124
51640SOL     OW56752   0.300   4.024   5.390
51640SOL    HW156753   0.345   4.027   5.475
51640SOL    HW256754   0.233   3.956   5.401
51641SOL     OW56755   2.173   9.281  13.674
51641SOL    HW156756   2.181   9.272  13.579
51641SOL    HW256757   2.112   9.211  13.699
51642SOL     OW56758   0.298   6.650   7.682
51642SOL    HW156759   0.253   6.699   7.612
51642SOL    HW256760   0.347   6.583   7.636
51643SOL     OW56761  10.385   9.083  14.735
51643SOL    HW156762  10.328   9.058  14.662
51643SOL    HW256763  10.451   9.139  14.695
51644SOL     OW56764   6.636   8.948   2.485
51644SOL    HW156765   6.548   8.913   2.497
51644SOL    HW256766   6.639   9.026   2.541
51645SOL     OW56767   9.987   2.368   4.132
51645SOL    HW156768  10.042   2.437   4.097
51645SOL    HW256769  10.025   2.348   4.218
51646SOL     OW56770   1.218  12.859   8.730
51646SOL    HW156771   1.155  12.918   8.771
51646SOL    HW256772   1.289  12.916   8.701
51647SOL     OW56773   6.279  12.700   1.869
51647SOL    HW156774   6.256  12.634   1.934
51647SOL    HW256775   6.352  12.747   1.908
51648SOL     OW56776  13.757  10.681   4.866
51648SOL    HW156777  13.790  10.619   4.932
51648SOL    HW256778  13.677  10.716   4.905
51649SOL     OW56779   2.325   2.993   2.834
51649SOL    HW156780   2.257   2.932   2.861
51649SOL    HW256781   2.352   2.961   2.747
51650SOL     OW56782   7.142  13.580   5.798
51650SOL    HW156783   7.088  13.505   5.774
51650SOL    HW256784   7.112  13.650   5.740
51651SOL     OW56785  11.229   5.963   3.029
51651SOL    HW156786  11.153   6.015   3.003
51651SOL    HW256787  11.202   5.918   3.109
51652SOL     OW56788   9.596  13.276   0.417
51652SOL    HW156789   9.511  13.304   0.382
51652SOL    HW256790   9.661  13.316   0.359
51653SOL     OW56791  12.460   0.460   1.590
51653SOL    HW156792  12.520   0.405   1.639
51653SOL    HW256793  12.403   0.499   1.656
51654SOL     OW56794  14.355   4.919   6.235
51654SOL    HW156795  14.316   4.968   6.163
51654SOL    HW256796  14.304   4.946   6.312
51655SOL     OW56797   3.682   5.508   3.762
51655SOL    HW156798   3.763   5.534   3.804
51655SOL    HW256799   3.704   5.498   3.670
51656SOL     OW56800   3.874  13.391   6.184
51656SOL    HW156801   3.882  13.365   6.092
51656SOL    HW256802   3.924  13.324   6.231
51657SOL     OW56803   8.293  13.501   7.298
51657SOL    HW156804   8.358  13.510   7.228
51657SOL    HW256805   8.210  13.523   7.256
51658SOL     OW56806  14.691   9.963   7.437
51658SOL    HW156807  14.625  10.031   7.421
51658SOL    HW256808  14.711   9.928   7.350
51659SOL     OW56809   7.627   6.904  13.462
51659SOL    HW156810   7.665   6.849  13.393
51659SOL    HW256811   7.654   6.861  13.543
51660SOL     OW56812   7.126   6.596  12.679
51660SOL    HW156813   7.048   6.625  12.727
51660SOL    HW256814   7.104   6.508  12.647
51661SOL     OW56815   9.634   1.031   3.497
51661SOL    HW156816   9.671   1.043   3.585
51661SOL    HW256817   9.613   1.119   3.468
51662SOL     OW56818   0.930   1.429  12.410
51662SOL    HW156819   0.908   1.436  12.317
51662SOL    HW256820   0.989   1.502  12.426
51663SOL     OW56821   8.605   7.912   4.348
51663SOL    HW156822   8.651   7.870   4.421
51663SOL    HW256823   8.540   7.969   4.391
51664SOL     OW56824   3.708   0.804   1.745
51664SOL    HW156825   3.686   0.880   1.691
51664SOL    HW256826   3.681   0.827   1.833
51665SOL     OW56827  14.643   9.900   0.779
51665SOL    HW156828  14.707   9.880   0.848
51665SOL    HW256829  14.635   9.819   0.729
51666SOL     OW56830  10.823   3.865  10.587
51666SOL    HW156831  10.805   3.781  10.629
51666SOL    HW256832  10.918   3.875  10.590
51667SOL     OW56833  14.790  11.289   4.990
51667SOL    HW156834  14.742  11.263   5.068
51667SOL    HW256835  14.730  11.345   4.942
51668SOL     OW56836  13.333   8.508   1.736
51668SOL    HW156837  13.428   8.512   1.746
51668SOL    HW256838  13.320   8.485   1.644
51669SOL     OW56839  14.682   4.515  12.682
51669SOL    HW156840  14.688   4.441  12.742
51669SOL    HW256841  14.749   4.576  12.713
51670SOL     OW56842  11.243   4.008   9.244
51670SOL    HW156843  11.217   4.023   9.153
51670SOL    HW256844  11.166   4.034   9.295
51671SOL     OW56845   8.265   3.488  12.068
51671SOL    HW156846   8.277   3.559  12.131
51671SOL    HW256847   8.330   3.505  11.999
51672SOL     OW56848   3.476   1.905  10.558
51672SOL    HW156849   3.568   1.890  10.539
51672SOL    HW256850   3.476   1.969  10.629
51673SOL     OW56851   6.059  13.936   4.580
51673SOL    HW156852   6.066  13.988   4.660
51673SOL    HW256853   6.132  13.965   4.526
51674SOL     OW56854   9.457  10.050  13.916
51674SOL    HW156855   9.382   9.991  13.908
51674SOL    HW256856   9.514  10.008  13.980
51675SOL     OW56857  13.931   8.305  10.374
51675SOL    HW156858  13.989   8.293  10.449
51675SOL    HW256859  13.959   8.388  10.335
51676SOL     OW56860   7.651   9.655   2.598
51676SOL    HW156861   7.713   9.588   2.570
51676SOL    HW256862   7.656   9.723   2.531
51677SOL     OW56863  12.732  13.503   8.352
51677SOL    HW156864  12.761  13.555   8.426
51677SOL    HW256865  12.812  13.463   8.317
51678SOL     OW56866   2.856   9.978  11.993
51678SOL    HW156867   2.794   9.905  11.995
51678SOL    HW256868   2.886   9.987  12.083
51679SOL     OW56869   5.923   9.741   6.581
51679SOL    HW156870   5.852   9.711   6.525
51679SOL    HW256871   5.961   9.661   6.617
51680SOL     OW56872  14.659   7.362  13.255
51680SOL    HW156873  14.603   7.438  13.272
51680SOL    HW256874  14.648   7.307  13.332
51681SOL     OW56875   6.068  11.882  12.084
51681SOL    HW156876   6.069  11.911  12.175
51681SOL    HW256877   6.083  11.787  12.089
51682SOL     OW56878   8.217   4.380   1.543
51682SOL    HW156879   8.201   4.311   1.479
51682SOL    HW256880   8.245   4.335   1.622
51683SOL     OW56881  11.131   2.380  14.014
51683SOL    HW156882  11.137   2.389  13.919
51683SOL    HW256883  11.110   2.468  14.045
51684SOL     OW56884  13.561   6.291  12.784
51684SOL    HW156885  13.580   6.252  12.869
51684SOL    HW256886  13.577   6.221  12.721
51685SOL     OW56887  13.575  14.352  12.756
51685SOL    HW156888  13.564  14.405  12.835
51685SOL    HW256889  13.510  14.386  12.694
51686SOL     OW56890   1.732   7.794  12.657
51686SOL    HW156891   1.749   7.782  12.564
51686SOL    HW256892   1.688   7.879  12.663
51687SOL     OW56893   9.013   5.520   7.093
51687SOL    HW156894   8.968   5.601   7.117
51687SOL    HW256895   9.103   5.532   7.123
51688SOL     OW56896  13.167  11.299   8.941
51688SOL    HW156897  13.221  11.265   9.013
51688SOL    HW256898  13.107  11.227   8.921
51689SOL     OW56899  14.072  10.059  13.533
51689SOL    HW156900  13.981  10.047  13.560
51689SOL    HW256901  14.124  10.029  13.608
51690SOL     OW56902   7.026  12.857   4.285
51690SOL    HW156903   6.995  12.822   4.368
51690SOL    HW256904   7.008  12.951   4.291
51691SOL     OW56905   0.822  11.905   0.488
51691SOL    HW156906   0.748  11.964   0.499
51691SOL    HW256907   0.873  11.943   0.416
51692SOL     OW56908   6.971   5.507   3.965
51692SOL    HW156909   6.886   5.495   3.923
51692SOL    HW256910   7.030   5.535   3.894
51693SOL     OW56911   5.652  14.332  11.015
51693SOL    HW156912   5.654  14.241  11.044
51693SOL    HW256913   5.633  14.328  10.921
51694SOL     OW56914  11.527  12.100   4.641
51694SOL    HW156915  11.486  12.016   4.618
51694SOL    HW256916  11.557  12.135   4.557
51695SOL     OW56917  10.061   3.149   6.938
51695SOL    HW156918   9.990   3.093   6.909
51695SOL    HW256919  10.137   3.119   6.888
51696SOL     OW56920   5.298   6.096  10.233
51696SOL    HW156921   5.358   6.063  10.166
51696SOL    HW256922   5.354   6.138  10.297
51697SOL     OW56923   2.115   7.628   9.488
51697SOL    HW156924   2.049   7.585   9.434
51697SOL    HW256925   2.067   7.697   9.534
51698SOL     OW56926   5.154   0.792   5.629
51698SOL    HW156927   5.190   0.879   5.611
51698SOL    HW256928   5.220   0.732   5.595
51699SOL     OW56929   7.058   4.487   2.626
51699SOL    HW156930   7.006   4.462   2.550
51699SOL    HW256931   7.120   4.415   2.638
51700SOL     OW56932   1.908   6.416   2.188
51700SOL    HW156933   1.981   6.405   2.128
51700SOL    HW256934   1.861   6.493   2.155
51701SOL     OW56935  10.411   0.464  14.113
51701SOL    HW156936  10.382   0.373  14.103
51701SOL    HW256937  10.472   0.478  14.041
51702SOL     OW56938   1.180   5.133  11.382
51702SOL    HW156939   1.174   5.037  11.375
51702SOL    HW256940   1.260   5.148  11.431
51703SOL     OW56941   2.642  10.928  12.664
51703SOL    HW156942   2.553  10.893  12.656
51703SOL    HW256943   2.673  10.934  12.574
51704SOL     OW56944  13.286   0.343   3.379
51704SOL    HW156945  13.303   0.416   3.439
51704SOL    HW256946  13.372   0.306   3.361
51705SOL     OW56947   8.179   2.691   4.221
51705SOL    HW156948   8.112   2.758   4.207
51705SOL    HW256949   8.261   2.739   4.219
51706SOL     OW56950   8.981  13.458  10.015
51706SOL    HW156951   8.996  13.551  10.032
51706SOL    HW256952   9.006  13.414  10.096
51707SOL     OW56953   2.251   0.090  11.306
51707SOL    HW156954   2.251   0.146  11.228
51707SOL    HW256955   2.344   0.075  11.325
51708SOL     OW56956   7.373  12.348  14.080
51708SOL    HW156957   7.324  12.399  14.145
51708SOL    HW256958   7.341  12.379  13.996
51709SOL     OW56959   9.275   2.008   0.452
51709SOL    HW156960   9.232   1.927   0.478
51709SOL    HW256961   9.230   2.035   0.371
51710SOL     OW56962   8.539  10.074  12.442
51710SOL    HW156963   8.578  10.145  12.494
51710SOL    HW256964   8.445  10.092  12.445
51711SOL     OW56965   4.844   6.914   2.802
51711SOL    HW156966   4.779   6.938   2.867
51711SOL    HW256967   4.822   6.825   2.777
51712SOL     OW56968   2.467  10.082  14.628
51712SOL    HW156969   2.385  10.038  14.605
51712SOL    HW256970   2.458  10.170  14.592
51713SOL     OW56971   8.847   9.916   8.812
51713SOL    HW156972   8.820  10.006   8.792
51713SOL    HW256973   8.771   9.878   8.857
51714SOL     OW56974   6.714  14.372  11.363
51714SOL    HW156975   6.657  14.310  11.409
51714SOL    HW256976   6.745  14.323  11.287
51715SOL     OW56977   0.588   2.053   6.845
51715SOL    HW156978   0.604   2.140   6.808
51715SOL    HW256979   0.496   2.036   6.826
51716SOL     OW56980  13.345   3.243  10.374
51716SOL    HW156981  13.253   3.240  10.344
51716SOL    HW256982  13.376   3.153  10.363
51717SOL     OW56983  10.036   0.577   8.737
51717SOL    HW156984  10.083   0.651   8.700
51717SOL    HW256985  10.005   0.608   8.822
51718SOL     OW56986   6.719   9.507  13.984
51718SOL    HW156987   6.645   9.499  13.924
51718SOL    HW256988   6.783   9.445  13.950
51719SOL     OW56989   4.870  14.664  13.741
51719SOL    HW156990   4.829  14.579  13.758
51719SOL    HW256991   4.862  14.711  13.824
51720SOL     OW56992   9.210   9.051  11.598
51720SOL    HW156993   9.200   9.109  11.523
51720SOL    HW256994   9.165   9.096  11.669
51721SOL     OW56995  11.522   2.634   0.945
51721SOL    HW156996  11.587   2.653   0.877
51721SOL    HW256997  11.480   2.719   0.962
51722SOL     OW56998   9.430  13.499  14.399
51722SOL    HW156999   9.475  13.578  14.368
51722SOL    HW257000   9.492  13.428  14.384
51723SOL     OW57001   1.564   6.684  14.399
51723SOL    HW157002   1.593   6.609  14.347
51723SOL    HW257003   1.643   6.717  14.441
51724SOL     OW57004  11.964   2.970  11.878
51724SOL    HW157005  12.014   2.896  11.911
51724SOL    HW257006  12.029   3.029  11.842
51725SOL     OW57007  11.379   8.594   2.931
51725SOL    HW157008  11.397   8.542   2.853
51725SOL    HW257009  11.289   8.625   2.919
51726SOL     OW57010   5.190  13.677  11.194
51726SOL    HW157011   5.202  13.736  11.268
51726SOL    HW257012   5.095  13.659  11.193
51727SOL     OW57013   0.056   5.219   8.374
51727SOL    HW157014  14.839   5.188   8.382
51727SOL    HW257015   0.063   5.250   8.284
51728SOL     OW57016  13.256   0.719   9.043
51728SOL    HW157017  13.179   0.774   9.055
51728SOL    HW257018  13.262   0.668   9.124
51729SOL     OW57019  11.224   6.661  12.906
51729SOL    HW157020  11.145   6.691  12.952
51729SOL    HW257021  11.242   6.730  12.842
51730SOL     OW57022  14.569   9.037  13.762
51730SOL    HW157023  14.507   8.975  13.801
51730SOL    HW257024  14.616   9.074  13.836
51731SOL     OW57025   9.808   6.711   0.056
51731SOL    HW157026   9.776   6.762   0.130
51731SOL    HW257027   9.749   6.636   0.050
51732SOL     OW57028  10.011   2.115   1.059
51732SOL    HW157029  10.037   2.206   1.042
51732SOL    HW257030  10.048   2.095   1.145
51733SOL     OW57031   3.913  12.014   6.611
51733SOL    HW157032   3.930  12.108   6.608
51733SOL    HW257033   3.870  12.001   6.696
51734SOL     OW57034   8.756   0.159   5.392
51734SOL    HW157035   8.804   0.096   5.446
51734SOL    HW257036   8.818   0.183   5.323
51735SOL     OW57037  13.502   6.532   6.152
51735SOL    HW157038  13.417   6.490   6.137
51735SOL    HW257039  13.485   6.597   6.220
51736SOL     OW57040  10.639  14.754  14.312
51736SOL    HW157041  10.572  14.756  14.380
51736SOL    HW257042  10.715  14.713  14.354
51737SOL     OW57043  13.707  10.903  14.502
51737SOL    HW157044  13.736  10.860  14.582
51737SOL    HW257045  13.779  10.891  14.440
51738SOL     OW57046   0.473   5.269   9.949
51738SOL    HW157047   0.384   5.267   9.914
51738SOL    HW257048   0.529   5.267   9.871
51739SOL     OW57049   5.711  13.255   7.562
51739SOL    HW157050   5.698  13.217   7.648
51739SOL    HW257051   5.770  13.195   7.517
51740SOL     OW57052   8.571   3.938  12.489
51740SOL    HW157053   8.622   3.865  12.525
51740SOL    HW257054   8.589   3.936  12.395
51741SOL     OW57055  11.721   2.662   7.474
51741SOL    HW157056  11.764   2.745   7.456
51741SOL    HW257057  11.649   2.684   7.534
51742SOL     OW57058  12.043   0.503   9.487
51742SOL    HW157059  12.108   0.484   9.555
51742SOL    HW257060  12.095   0.523   9.409
51743SOL     OW57061   4.547   1.603   8.534
51743SOL    HW157062   4.493   1.525   8.547
51743SOL    HW257063   4.581   1.624   8.622
51744SOL     OW57064  14.755   2.437   0.694
51744SOL    HW157065  14.807   2.445   0.614
51744SOL    HW257066  14.805   2.482   0.761
51745SOL     OW57067   3.773  11.315  13.407
51745SOL    HW157068   3.788  11.380  13.475
51745SOL    HW257069   3.683  11.286  13.422
51746SOL     OW57070   2.096   2.309  14.523
51746SOL    HW157071   2.184   2.345  14.535
51746SOL    HW257072   2.070   2.282  14.611
51747SOL     OW57073   6.830   0.124   6.893
51747SOL    HW157074   6.905   0.174   6.923
51747SOL    HW257075   6.817   0.056   6.960
51748SOL     OW57076   9.739  11.328  13.789
51748SOL    HW157077   9.712  11.415  13.759
51748SOL    HW257078   9.656  11.285  13.814
51749SOL     OW57079  10.486   2.426  10.271
51749SOL    HW157080  10.490   2.438  10.176
51749SOL    HW257081  10.514   2.336  10.285
51750SOL     OW57082  14.410   7.611   7.373
51750SOL    HW157083  14.432   7.525   7.406
51750SOL    HW257084  14.369   7.595   7.288
51751SOL     OW57085   8.446   7.298   6.777
51751SOL    HW157086   8.419   7.211   6.806
51751SOL    HW257087   8.484   7.339   6.854
51752SOL     OW57088   1.354   4.315  12.420
51752SOL    HW157089   1.279   4.268  12.455
51752SOL    HW257090   1.369   4.387  12.481
51753SOL     OW57091  10.623   5.987   7.534
51753SOL    HW157092  10.646   6.075   7.566
51753SOL    HW257093  10.671   5.978   7.452
51754SOL     OW57094   0.056   4.711  12.671
51754SOL    HW157095   0.083   4.620  12.679
51754SOL    HW257096   0.108   4.745  12.598
51755SOL     OW57097  13.836  10.850   9.442
51755SOL    HW157098  13.804  10.830   9.530
51755SOL    HW257099  13.886  10.931   9.452
51756SOL     OW57100   1.619  13.847  14.679
51756SOL    HW157101   1.614  13.759  14.718
51756SOL    HW257102   1.548  13.848  14.615
51757SOL     OW57103   8.092   1.491  10.020
51757SOL    HW157104   8.145   1.561  10.056
51757SOL    HW257105   8.150   1.415  10.018
51758SOL     OW57106   4.939   9.610   7.957
51758SOL    HW157107   4.997   9.649   8.022
51758SOL    HW257108   4.892   9.541   8.004
51759SOL     OW57109   3.001  11.518   3.031
51759SOL    HW157110   2.956  11.601   3.014
51759SOL    HW257111   2.946  11.474   3.096
51760SOL     OW57112   8.682  10.822  14.023
51760SOL    HW157113   8.702  10.909  13.988
51760SOL    HW257114   8.750  10.765  13.987
51761SOL     OW57115   2.133   4.841  11.492
51761SOL    HW157116   2.171   4.809  11.410
51761SOL    HW257117   2.154   4.934  11.493
51762SOL     OW57118  10.457  14.534   5.310
51762SOL    HW157119  10.513  14.593   5.261
51762SOL    HW257120  10.445  14.459   5.252
51763SOL     OW57121  11.735  11.479  10.641
51763SOL    HW157122  11.680  11.526  10.703
51763SOL    HW257123  11.731  11.388  10.670
51764SOL     OW57124   7.935   4.994   9.049
51764SOL    HW157125   7.970   4.912   9.015
51764SOL    HW257126   7.993   5.061   9.015
51765SOL     OW57127  12.880   6.032   2.704
51765SOL    HW157128  12.861   5.988   2.621
51765SOL    HW257129  12.974   6.051   2.700
51766SOL     OW57130  13.376   5.446  12.599
51766SOL    HW157131  13.404   5.439  12.507
51766SOL    HW257132  13.397   5.535  12.624
51767SOL     OW57133   4.032   7.091   0.461
51767SOL    HW157134   4.083   7.150   0.406
51767SOL    HW257135   4.094   7.059   0.526
51768SOL     OW57136  12.517   4.081   2.663
51768SOL    HW157137  12.568   4.070   2.743
51768SOL    HW257138  12.518   3.995   2.621
51769SOL     OW57139  13.759   2.404   8.889
51769SOL    HW157140  13.741   2.493   8.920
51769SOL    HW257141  13.839   2.413   8.837
51770SOL     OW57142   6.854   0.236   4.919
51770SOL    HW157143   6.912   0.168   4.883
51770SOL    HW257144   6.785   0.246   4.854
51771SOL     OW57145  12.614   2.644  14.203
51771SOL    HW157146  12.666   2.714  14.243
51771SOL    HW257147  12.678   2.589  14.159
51772SOL     OW57148   2.102   0.044   2.835
51772SOL    HW157149   2.101  14.822   2.824
51772SOL    HW257150   2.169   0.075   2.774
51773SOL     OW57151   2.521   1.634   8.899
51773SOL    HW157152   2.438   1.677   8.916
51773SOL    HW257153   2.514   1.604   8.808
51774SOL     OW57154   0.970   4.068   0.597
51774SOL    HW157155   0.951   4.099   0.686
51774SOL    HW257156   1.039   4.126   0.566
51775SOL     OW57157  14.823   7.644  12.590
51775SOL    HW157158  14.784   7.601  12.514
51775SOL    HW257159  14.756   7.707  12.618
51776SOL     OW57160  13.490   1.231   2.490
51776SOL    HW157161  13.467   1.292   2.420
51776SOL    HW257162  13.409   1.220   2.540
51777SOL     OW57163  10.769  13.522   0.806
51777SOL    HW157164  10.787  13.573   0.727
51777SOL    HW257165  10.723  13.583   0.863
51778SOL     OW57166   4.371  12.144   8.607
51778SOL    HW157167   4.321  12.226   8.608
51778SOL    HW257168   4.380  12.123   8.514
51779SOL     OW57169   6.685  11.938   8.536
51779SOL    HW157170   6.683  11.892   8.451
51779SOL    HW257171   6.636  11.880   8.595
51780SOL     OW57172  13.500  12.564   1.960
51780SOL    HW157173  13.581  12.512   1.959
51780SOL    HW257174  13.448  12.528   1.887
51781SOL     OW57175  10.786   3.198   4.499
51781SOL    HW157176  10.864   3.235   4.541
51781SOL    HW257177  10.719   3.201   4.567
51782SOL     OW57178   4.208   3.073  10.708
51782SOL    HW157179   4.245   2.988  10.684
51782SOL    HW257180   4.284   3.126  10.733
51783SOL     OW57181   8.541   9.894   4.985
51783SOL    HW157182   8.623   9.905   5.034
51783SOL    HW257183   8.560   9.929   4.898
51784SOL     OW57184   6.639  11.600   4.344
51784SOL    HW157185   6.734  11.595   4.358
51784SOL    HW257186   6.602  11.601   4.432
51785SOL     OW57187  14.087  11.683   9.009
51785SOL    HW157188  14.021  11.751   9.014
51785SOL    HW257189  14.071  11.627   9.084
51786SOL     OW57190   4.531  14.516   9.892
51786SOL    HW157191   4.494  14.541   9.807
51786SOL    HW257192   4.483  14.437   9.917
51787SOL     OW57193   4.277  12.853   5.039
51787SOL    HW157194   4.233  12.773   5.068
51787SOL    HW257195   4.234  12.875   4.956
51788SOL     OW57196  11.428  11.487   0.479
51788SOL    HW157197  11.406  11.580   0.482
51788SOL    HW257198  11.381  11.454   0.402
51789SOL     OW57199  11.386   1.769  11.538
51789SOL    HW157200  11.479   1.748  11.530
51789SOL    HW257201  11.368   1.824  11.462
51790SOL     OW57202  13.618   5.109  11.397
51790SOL    HW157203  13.549   5.174  11.410
51790SOL    HW257204  13.669   5.143  11.324
51791SOL     OW57205  11.883   8.783  10.294
51791SOL    HW157206  11.963   8.744  10.329
51791SOL    HW257207  11.844   8.714  10.240
51792SOL     OW57208   7.713   0.569   2.668
51792SOL    HW157209   7.700   0.540   2.578
51792SOL    HW257210   7.625   0.575   2.705
51793SOL     OW57211   1.528   6.039  14.871
51793SOL    HW157212   1.467   6.100   0.038
51793SOL    HW257213   1.558   5.985   0.071
51794SOL     OW57214  10.585   3.192   4.714
51794SOL    HW157215  10.507   3.138   4.725
51794SOL    HW257216  10.564   3.274   4.759
51795SOL     OW57217  10.063   3.762   0.990
51795SOL    HW157218   9.995   3.771   1.057
51795SOL    HW257219  10.019   3.716   0.918
51796SOL     OW57220   1.236   7.377  12.350
51796SOL    HW157221   1.185   7.456  12.370
51796SOL    HW257222   1.181   7.328  12.289
51797SOL     OW57223   5.783  14.863   8.303
51797SOL    HW157224   5.851  14.800   8.277
51797SOL    HW257225   5.799   0.067   8.248
51798SOL     OW57226  12.370  12.984   2.540
51798SOL    HW157227  12.327  12.978   2.625
51798SOL    HW257228  12.455  12.942   2.553
51799SOL     OW57229   2.261   7.904   5.429
51799SOL    HW157230   2.226   7.845   5.363
51799SOL    HW257231   2.198   7.899   5.501
51800SOL     OW57232   6.070  13.757   2.024
51800SOL    HW157233   6.144  13.695   2.022
51800SOL    HW257234   6.111  13.843   2.010
51801SOL     OW57235   8.088   3.532   2.334
51801SOL    HW157236   7.998   3.500   2.344
51801SOL    HW257237   8.098   3.544   2.239
51802SOL     OW57238   7.716   9.939   9.945
51802SOL    HW157239   7.649   9.921  10.011
51802SOL    HW257240   7.683  10.016   9.899
51803SOL     OW57241  10.037   6.611  12.277
51803SOL    HW157242  10.072   6.616  12.188
51803SOL    HW257243   9.949   6.647  12.270
51804SOL     OW57244   3.826   1.005   8.538
51804SOL    HW157245   3.778   1.075   8.582
51804SOL    HW257246   3.845   0.942   8.607
51805SOL     OW57247  10.176   1.455   7.620
51805SOL    HW157248  10.150   1.376   7.666
51805SOL    HW257249  10.259   1.432   7.578
51806SOL     OW57250  10.985   6.865  10.218
51806SOL    HW157251  10.989   6.898  10.308
51806SOL    HW257252  10.914   6.915  10.178
51807SOL     OW57253   5.056  11.522  12.948
51807SOL    HW157254   5.043  11.454  12.881
51807SOL    HW257255   4.971  11.529  12.991
51808SOL     OW57256  10.795  11.906   8.147
51808SOL    HW157257  10.732  11.834   8.147
51808SOL    HW257258  10.873  11.869   8.105
51809SOL     OW57259   2.649   9.827   7.798
51809SOL    HW157260   2.563   9.787   7.809
51809SOL    HW257261   2.654   9.847   7.705
51810SOL     OW57262   3.990  10.868   5.080
51810SOL    HW157263   4.006  10.958   5.110
51810SOL    HW257264   3.936  10.829   5.148
51811SOL     OW57265   6.455   0.867   0.410
51811SOL    HW157266   6.365   0.835   0.403
51811SOL    HW257267   6.446   0.958   0.438
51812SOL     OW57268  13.260   5.052   2.396
51812SOL    HW157269  13.299   4.996   2.328
51812SOL    HW257270  13.167   5.056   2.374
51813SOL     OW57271   3.895   3.227  13.992
51813SOL    HW157272   3.963   3.219  13.926
51813SOL    HW257273   3.820   3.265  13.946
51814SOL     OW57274   8.271  10.170  14.389
51814SOL    HW157275   8.182  10.137  14.398
51814SOL    HW257276   8.286  10.173  14.294
51815SOL     OW57277   8.601   3.793   9.403
51815SOL    HW157278   8.562   3.731   9.342
51815SOL    HW257279   8.633   3.738   9.475
51816SOL     OW57280   2.634   4.843  14.661
51816SOL    HW157281   2.593   4.791  14.730
51816SOL    HW257282   2.703   4.892  14.705
51817SOL     OW57283  14.101   1.611   8.471
51817SOL    HW157284  14.030   1.635   8.411
51817SOL    HW257285  14.181   1.635   8.424
51818SOL     OW57286  12.504  11.828   4.377
51818SOL    HW157287  12.506  11.891   4.305
51818SOL    HW257288  12.589  11.785   4.373
51819SOL     OW57289  10.056   7.052   8.868
51819SOL    HW157290   9.990   7.103   8.915
51819SOL    HW257291  10.092   6.993   8.934
51820SOL     OW57292   1.154  12.188  13.740
51820SOL    HW157293   1.239  12.142  13.738
51820SOL    HW257294   1.135  12.199  13.833
51821SOL     OW57295   9.616   4.669   2.094
51821SOL    HW157296   9.685   4.727   2.063
51821SOL    HW257297   9.535   4.707   2.059
51822SOL     OW57298   4.649   5.949  11.173
51822SOL    HW157299   4.651   5.900  11.091
51822SOL    HW257300   4.704   5.898  11.233
51823SOL     OW57301   8.717   7.970   4.033
51823SOL    HW157302   8.693   7.887   4.076
51823SOL    HW257303   8.633   8.009   4.009
51824SOL     OW57304   8.031  10.543  13.148
51824SOL    HW157305   8.082  10.527  13.068
51824SOL    HW257306   7.944  10.567  13.116
51825SOL     OW57307   7.620   1.305  13.572
51825SOL    HW157308   7.548   1.243  13.585
51825SOL    HW257309   7.690   1.253  13.533
51826SOL     OW57310  12.927  14.333  11.662
51826SOL    HW157311  12.950  14.406  11.604
51826SOL    HW257312  12.875  14.274  11.607
51827SOL     OW57313   7.107   8.128   1.664
51827SOL    HW157314   7.098   8.198   1.729
51827SOL    HW257315   7.201   8.110   1.661
51828SOL     OW57316   7.486   0.668   3.827
51828SOL    HW157317   7.402   0.712   3.825
51828SOL    HW257318   7.464   0.575   3.825
51829SOL     OW57319   4.770   5.699   4.132
51829SOL    HW157320   4.690   5.672   4.089
51829SOL    HW257321   4.824   5.619   4.135
51830SOL     OW57322   1.333  11.167   7.003
51830SOL    HW157323   1.289  11.147   7.086
51830SOL    HW257324   1.407  11.106   7.000
51831SOL     OW57325   9.322   9.382   1.689
51831SOL    HW157326   9.283   9.427   1.613
51831SOL    HW257327   9.264   9.307   1.704
51832SOL     OW57328  12.827   0.221   8.330
51832SOL    HW157329  12.767   0.152   8.360
51832SOL    HW257330  12.902   0.173   8.295
51833SOL     OW57331   1.724   9.023   3.069
51833SOL    HW157332   1.747   9.035   2.977
51833SOL    HW257333   1.806   8.999   3.112
51834SOL     OW57334  12.343   5.992   5.984
51834SOL    HW157335  12.249   5.984   5.998
51834SOL    HW257336  12.381   5.917   6.029
51835SOL     OW57337   3.290   8.887   5.289
51835SOL    HW157338   3.255   8.881   5.200
51835SOL    HW257339   3.285   8.798   5.322
51836SOL     OW57340  13.492  14.774   7.151
51836SOL    HW157341  13.555  14.709   7.119
51836SOL    HW257342  13.532  14.809   7.231
51837SOL     OW57343   7.877  10.027  11.381
51837SOL    HW157344   7.903   9.950  11.330
51837SOL    HW257345   7.936  10.026  11.457
51838SOL     OW57346   0.290   7.168  10.959
51838SOL    HW157347   0.375   7.185  10.998
51838SOL    HW257348   0.289   7.073  10.944
51839SOL     OW57349  14.076  11.614   9.605
51839SOL    HW157350  14.119  11.607   9.519
51839SOL    HW257351  14.144  11.650   9.663
51840SOL     OW57352   8.891  11.040   6.695
51840SOL    HW157353   8.918  11.081   6.777
51840SOL    HW257354   8.881  10.947   6.717
51841SOL     OW57355  14.416   0.725  11.774
51841SOL    HW157356  14.389   0.807  11.733
51841SOL    HW257357  14.430   0.665  11.701
51842SOL     OW57358   7.573  12.306   7.345
51842SOL    HW157359   7.539  12.254   7.272
51842SOL    HW257360   7.508  12.375   7.357
51843SOL     OW57361  13.214  14.339   3.895
51843SOL    HW157362  13.168  14.420   3.875
51843SOL    HW257363  13.305  14.357   3.875
51844SOL     OW57364  12.531  13.137   7.879
51844SOL    HW157365  12.511  13.051   7.914
51844SOL    HW257366  12.624  13.134   7.856
51845SOL     OW57367   8.927   8.482   4.622
51845SOL    HW157368   8.942   8.547   4.554
51845SOL    HW257369   9.015   8.456   4.651
51846SOL     OW57370   0.941  10.846  11.422
51846SOL    HW157371   1.030  10.817  11.443
51846SOL    HW257372   0.901  10.865  11.506
51847SOL     OW57373   2.563   6.066  10.758
51847SOL    HW157374   2.483   6.062  10.705
51847SOL    HW257375   2.625   6.008  10.713
51848SOL     OW57376   1.436  11.584   2.356
51848SOL    HW157377   1.462  11.532   2.432
51848SOL    HW257378   1.518  11.619   2.321
51849SOL     OW57379   7.755  11.197   3.529
51849SOL    HW157380   7.691  11.267   3.538
51849SOL    HW257381   7.704  11.120   3.504
51850SOL     OW57382   4.950   4.363   9.237
51850SOL    HW157383   4.910   4.287   9.195
51850SOL    HW257384   4.880   4.403   9.289
51851SOL     OW57385  11.278   0.905   8.642
51851SOL    HW157386  11.206   0.957   8.604
51851SOL    HW257387  11.243   0.876   8.727
51852SOL     OW57388  11.018   2.753   9.154
51852SOL    HW157389  10.969   2.834   9.154
51852SOL    HW257390  11.089   2.767   9.091
51853SOL     OW57391   3.174   6.604   8.864
51853SOL    HW157392   3.258   6.601   8.909
51853SOL    HW257393   3.187   6.665   8.792
51854SOL     OW57394   8.775   4.398   3.569
51854SOL    HW157395   8.725   4.387   3.488
51854SOL    HW257396   8.855   4.347   3.554
51855SOL     OW57397   8.655   1.671  10.507
51855SOL    HW157398   8.612   1.658  10.422
51855SOL    HW257399   8.748   1.657  10.489
51856SOL     OW57400   8.102  10.497   4.252
51856SOL    HW157401   8.122  10.512   4.160
51856SOL    HW257402   8.008  10.517   4.259
51857SOL     OW57403   7.650   2.811   1.830
51857SOL    HW157404   7.640   2.757   1.909
51857SOL    HW257405   7.725   2.774   1.785
51858SOL     OW57406  13.051   9.057  10.266
51858SOL    HW157407  13.065   8.997  10.339
51858SOL    HW257408  13.089   9.012  10.191
51859SOL     OW57409   9.620   8.654  12.742
51859SOL    HW157410   9.559   8.717  12.705
51859SOL    HW257411   9.615   8.668  12.837
51860SOL     OW57412   5.588   3.145  12.208
51860SOL    HW157413   5.664   3.190  12.171
51860SOL    HW257414   5.537   3.215  12.249
51861SOL     OW57415  14.129   6.368   9.730
51861SOL    HW157416  14.087   6.345   9.813
51861SOL    HW257417  14.056   6.388   9.671
51862SOL     OW57418   3.747   9.288   8.294
51862SOL    HW157419   3.820   9.304   8.354
51862SOL    HW257420   3.669   9.293   8.349
51863SOL     OW57421  12.404   8.918   2.724
51863SOL    HW157422  12.435   8.888   2.639
51863SOL    HW257423  12.477   8.901   2.783
51864SOL     OW57424  12.576   5.684   8.439
51864SOL    HW157425  12.647   5.680   8.503
51864SOL    HW257426  12.515   5.616   8.467
51865SOL     OW57427   1.576   7.059   1.897
51865SOL    HW157428   1.607   7.079   1.985
51865SOL    HW257429   1.540   7.142   1.865
51866SOL     OW57430   7.219  10.068   1.175
51866SOL    HW157431   7.224  10.161   1.154
51866SOL    HW257432   7.140  10.038   1.129
51867SOL     OW57433  13.555  14.388  13.648
51867SOL    HW157434  13.573  14.432  13.731
51867SOL    HW257435  13.570  14.455  13.582
51868SOL     OW57436   8.736   0.910  12.785
51868SOL    HW157437   8.736   0.904  12.689
51868SOL    HW257438   8.672   0.846  12.813
51869SOL     OW57439   4.383   0.943   3.376
51869SOL    HW157440   4.467   0.968   3.336
51869SOL    HW257441   4.331   0.911   3.302
51870SOL     OW57442   2.702   2.740  14.519
51870SOL    HW157443   2.621   2.776  14.484
51870SOL    HW257444   2.762   2.815  14.522
51871SOL     OW57445   4.851   0.165   3.298
51871SOL    HW157446   4.819   0.224   3.365
51871SOL    HW257447   4.853   0.218   3.218
51872SOL     OW57448   7.096   1.620  11.889
51872SOL    HW157449   7.115   1.542  11.837
51872SOL    HW257450   7.138   1.691  11.842
51873SOL     OW57451   3.365   4.767   6.154
51873SOL    HW157452   3.441   4.757   6.097
51873SOL    HW257453   3.354   4.681   6.195
51874SOL     OW57454  13.471   1.898   5.357
51874SOL    HW157455  13.403   1.865   5.416
51874SOL    HW257456  13.552   1.862   5.393
51875SOL     OW57457   5.262  11.596   5.272
51875SOL    HW157458   5.175  11.596   5.313
51875SOL    HW257459   5.244  11.609   5.179
51876SOL     OW57460   1.102  12.489   6.133
51876SOL    HW157461   1.082  12.582   6.143
51876SOL    HW257462   1.140  12.482   6.045
51877SOL     OW57463   8.962   4.202   4.607
51877SOL    HW157464   8.882   4.174   4.563
51877SOL    HW257465   8.933   4.269   4.669
51878SOL     OW57466   8.711   2.907   1.880
51878SOL    HW157467   8.695   2.950   1.964
51878SOL    HW257468   8.798   2.867   1.890
51879SOL     OW57469   7.600   2.420   4.617
51879SOL    HW157470   7.664   2.436   4.686
51879SOL    HW257471   7.643   2.448   4.536
51880SOL     OW57472   3.067  12.393   7.902
51880SOL    HW157473   3.125  12.392   7.825
51880SOL    HW257474   3.118  12.351   7.971
51881SOL     OW57475   1.680   9.539   0.912
51881SOL    HW157476   1.673   9.554   0.818
51881SOL    HW257477   1.643   9.618   0.952
51882SOL     OW57478  14.816   2.727   9.019
51882SOL    HW157479   0.037   2.741   9.035
51882SOL    HW257480  14.788   2.806   8.972
51883SOL     OW57481  10.649   9.446   1.333
51883SOL    HW157482  10.637   9.508   1.261
51883SOL    HW257483  10.643   9.500   1.412
51884SOL     OW57484  11.652   7.627   3.887
51884SOL    HW157485  11.678   7.534   3.891
51884SOL    HW257486  11.559   7.626   3.909
51885SOL     OW57487   4.693  10.991   0.049
51885SOL    HW157488   4.679  10.920  14.859
51885SOL    HW257489   4.610  11.037   0.052
51886SOL     OW57490   5.102   7.570  13.874
51886SOL    HW157491   5.090   7.634  13.804
51886SOL    HW257492   5.015   7.532  13.887
51887SOL     OW57493   7.905   7.971   7.052
51887SOL    HW157494   7.986   7.935   7.016
51887SOL    HW257495   7.838   7.952   6.987
51888SOL     OW57496   3.942  14.254  12.959
51888SOL    HW157497   4.018  14.256  12.901
51888SOL    HW257498   3.972  14.207  13.037
51889SOL     OW57499  10.019   2.957  10.635
51889SOL    HW157500  10.082   2.937  10.566
51889SOL    HW257501   9.935   2.961  10.590
51890SOL     OW57502  11.683  14.227   1.319
51890SOL    HW157503  11.599  14.182   1.333
51890SOL    HW257504  11.688  14.238   1.224
51891SOL     OW57505   7.093   9.450   5.957
51891SOL    HW157506   7.086   9.487   5.869
51891SOL    HW257507   7.105   9.356   5.943
51892SOL     OW57508   5.963   1.690  10.604
51892SOL    HW157509   5.941   1.763  10.662
51892SOL    HW257510   5.907   1.619  10.634
51893SOL     OW57511  11.781   9.950  10.772
51893SOL    HW157512  11.755   9.984  10.686
51893SOL    HW257513  11.751  10.016  10.834
51894SOL     OW57514   6.080   5.217  12.099
51894SOL    HW157515   6.117   5.130  12.116
51894SOL    HW257516   6.129   5.250  12.023
51895SOL     OW57517   4.662   9.076   0.102
51895SOL    HW157518   4.613   9.133   0.043
51895SOL    HW257519   4.739   9.050   0.052
51896SOL     OW57520   8.420   4.121   5.180
51896SOL    HW157521   8.503   4.154   5.146
51896SOL    HW257522   8.384   4.194   5.230
51897SOL     OW57523  13.586  11.010   7.228
51897SOL    HW157524  13.605  10.928   7.274
51897SOL    HW257525  13.491  11.011   7.218
51898SOL     OW57526   5.960   1.583   3.047
51898SOL    HW157527   6.049   1.617   3.050
51898SOL    HW257528   5.955   1.522   3.121
51899SOL     OW57529   9.070   8.353  14.356
51899SOL    HW157530   9.025   8.437  14.346
51899SOL    HW257531   9.035   8.298  14.286
51900SOL     OW57532   6.218   2.402   0.242
51900SOL    HW157533   6.225   2.445   0.156
51900SOL    HW257534   6.123   2.397   0.258
51901SOL     OW57535   2.996   6.414   8.064
51901SOL    HW157536   3.019   6.403   7.972
51901SOL    HW257537   3.072   6.383   8.113
51902SOL     OW57538   3.910   6.577  11.939
51902SOL    HW157539   3.858   6.562  11.860
51902SOL    HW257540   3.852   6.552  12.011
51903SOL     OW57541  12.238   4.161   0.320
51903SOL    HW157542  12.189   4.184   0.241
51903SOL    HW257543  12.326   4.143   0.289
51904SOL     OW57544  10.469  14.224  13.861
51904SOL    HW157545  10.464  14.134  13.894
51904SOL    HW257546  10.407  14.273  13.916
51905SOL     OW57547   2.993   2.104   6.876
51905SOL    HW157548   3.052   2.135   6.945
51905SOL    HW257549   2.916   2.161   6.882
51906SOL     OW57550   0.200   1.748   0.338
51906SOL    HW157551   0.232   1.749   0.247
51906SOL    HW257552   0.123   1.691   0.336
51907SOL     OW57553   6.702   3.164   2.869
51907SOL    HW157554   6.676   3.227   2.936
51907SOL    HW257555   6.796   3.151   2.883
51908SOL     OW57556   4.006  13.057   5.884
51908SOL    HW157557   4.089  13.011   5.894
51908SOL    HW257558   4.007  13.090   5.794
51909SOL     OW57559   1.326  12.963   1.129
51909SOL    HW157560   1.258  12.900   1.151
51909SOL    HW257561   1.403  12.910   1.108
51910SOL     OW57562   8.971   7.928  11.868
51910SOL    HW157563   8.960   7.834  11.855
51910SOL    HW257564   8.952   7.942  11.961
51911SOL     OW57565  14.580   6.216  11.740
51911SOL    HW157566  14.569   6.291  11.798
51911SOL    HW257567  14.491   6.182  11.728
51912SOL     OW57568  11.009   8.033   0.726
51912SOL    HW157569  11.065   8.103   0.693
51912SOL    HW257570  10.946   8.077   0.783
51913SOL     OW57571   0.659   6.426   8.478
51913SOL    HW157572   0.721   6.373   8.428
51913SOL    HW257573   0.578   6.374   8.480
51914SOL     OW57574   6.212  14.134   4.423
51914SOL    HW157575   6.138  14.194   4.426
51914SOL    HW257576   6.225  14.117   4.329
51915SOL     OW57577   0.701   9.759   8.523
51915SOL    HW157578   0.782   9.755   8.575
51915SOL    HW257579   0.717   9.701   8.449
51916SOL     OW57580   7.327   4.208   9.168
51916SOL    HW157581   7.400   4.151   9.190
51916SOL    HW257582   7.267   4.201   9.242
51917SOL     OW57583   4.161   4.939  12.413
51917SOL    HW157584   4.239   4.917  12.465
51917SOL    HW257585   4.091   4.949  12.477
51918SOL     OW57586  13.087   4.692   2.838
51918SOL    HW157587  12.992   4.681   2.846
51918SOL    HW257588  13.114   4.729   2.922
51919SOL     OW57589   3.005  12.574  13.706
51919SOL    HW157590   2.992  12.572  13.801
51919SOL    HW257591   3.015  12.667  13.685
51920SOL     OW57592   4.536  14.369  11.620
51920SOL    HW157593   4.519  14.457  11.654
51920SOL    HW257594   4.488  14.311  11.679
51921SOL     OW57595   6.486   4.558  12.387
51921SOL    HW157596   6.393   4.551  12.408
51921SOL    HW257597   6.491   4.622  12.317
51922SOL     OW57598  11.784  14.134   4.638
51922SOL    HW157599  11.850  14.174   4.695
51922SOL    HW257600  11.799  14.040   4.646
51923SOL     OW57601   5.155   0.506   6.707
51923SOL    HW157602   5.160   0.528   6.800
51923SOL    HW257603   5.180   0.586   6.661
51924SOL     OW57604   8.212   9.069   0.686
51924SOL    HW157605   8.161   8.988   0.673
51924SOL    HW257606   8.231   9.099   0.597
51925SOL     OW57607   5.687   4.381   7.972
51925SOL    HW157608   5.631   4.391   7.895
51925SOL    HW257609   5.689   4.286   7.987
51926SOL     OW57610  10.619  12.857   1.322
51926SOL    HW157611  10.650  12.795   1.256
51926SOL    HW257612  10.698  12.886   1.367
51927SOL     OW57613   3.795  13.782   1.714
51927SOL    HW157614   3.766  13.869   1.687
51927SOL    HW257615   3.733  13.722   1.672
51928SOL     OW57616   8.011   4.742   8.393
51928SOL    HW157617   8.085   4.684   8.374
51928SOL    HW257618   8.030   4.822   8.343
51929SOL     OW57619   0.395   6.941   4.872
51929SOL    HW157620   0.316   6.897   4.901
51929SOL    HW257621   0.407   6.912   4.781
51930SOL     OW57622   7.856   5.499  12.813
51930SOL    HW157623   7.875   5.587  12.848
51930SOL    HW257624   7.935   5.477  12.763
51931SOL     OW57625   8.010   9.550   7.640
51931SOL    HW157626   7.978   9.460   7.638
51931SOL    HW257627   7.978   9.589   7.558
51932SOL     OW57628   4.019   6.950   1.201
51932SOL    HW157629   4.043   7.035   1.238
51932SOL    HW257630   4.087   6.932   1.136
51933SOL     OW57631   3.473   0.956  13.384
51933SOL    HW157632   3.406   0.920  13.326
51933SOL    HW257633   3.426   1.019  13.439
51934SOL     OW57634   6.602   4.425   3.647
51934SOL    HW157635   6.641   4.442   3.561
51934SOL    HW257636   6.510   4.450   3.637
51935SOL     OW57637   3.929  13.046   0.535
51935SOL    HW157638   3.985  13.004   0.600
51935SOL    HW257639   3.850  13.070   0.583
51936SOL     OW57640  10.344  11.809   8.112
51936SOL    HW157641  10.325  11.831   8.203
51936SOL    HW257642  10.280  11.740   8.090
51937SOL     OW57643  13.770   2.038  11.491
51937SOL    HW157644  13.804   1.950  11.512
51937SOL    HW257645  13.821   2.096  11.547
51938SOL     OW57646  10.140   1.856   6.131
51938SOL    HW157647  10.060   1.818   6.167
51938SOL    HW257648  10.208   1.791   6.150
51939SOL     OW57649   9.488  11.932  11.471
51939SOL    HW157650   9.443  11.869  11.527
51939SOL    HW257651   9.454  12.017  11.498
51940SOL     OW57652   2.951   8.915   3.088
51940SOL    HW157653   2.918   9.002   3.066
51940SOL    HW257654   3.000   8.928   3.170
51941SOL     OW57655   0.113   7.226   3.390
51941SOL    HW157656   0.073   7.140   3.397
51941SOL    HW257657   0.188   7.214   3.332
51942SOL     OW57658   5.863   3.675  11.294
51942SOL    HW157659   5.821   3.754  11.328
51942SOL    HW257660   5.794   3.628  11.247
51943SOL     OW57661  11.566  12.735   6.353
51943SOL    HW157662  11.654  12.710   6.380
51943SOL    HW257663  11.530  12.656   6.312
51944SOL     OW57664   8.920   3.756   8.553
51944SOL    HW157665   8.934   3.848   8.575
51944SOL    HW257666   8.861   3.758   8.477
51945SOL     OW57667  11.201   7.149  10.351
51945SOL    HW157668  11.222   7.225  10.406
51945SOL    HW257669  11.106   7.152  10.342
51946SOL     OW57670  12.002   8.961   1.310
51946SOL    HW157671  11.966   9.042   1.274
51946SOL    HW257672  11.954   8.947   1.392
51947SOL     OW57673   3.739  12.565   6.107
51947SOL    HW157674   3.650  12.593   6.086
51947SOL    HW257675   3.793  12.642   6.091
51948SOL     OW57676   1.167   6.616   6.288
51948SOL    HW157677   1.081   6.581   6.311
51948SOL    HW257678   1.228   6.543   6.301
51949SOL     OW57679   3.400   3.768  12.011
51949SOL    HW157680   3.353   3.847  12.038
51949SOL    HW257681   3.358   3.742  11.929
51950SOL     OW57682   4.778  14.013   1.770
51950SOL    HW157683   4.794  13.976   1.857
51950SOL    HW257684   4.822  13.953   1.710
51951SOL     OW57685   8.663  13.806  13.753
51951SOL    HW157686   8.758  13.809  13.766
51951SOL    HW257687   8.641  13.892  13.717
51952SOL     OW57688   4.995  13.709   1.149
51952SOL    HW157689   5.037  13.793   1.168
51952SOL    HW257690   5.061  13.660   1.100
51953SOL     OW57691  13.715  10.570   3.402
51953SOL    HW157692  13.645  10.533   3.349
51953SOL    HW257693  13.786  10.587   3.341
51954SOL     OW57694   1.583  10.060   3.222
51954SOL    HW157695   1.611  10.060   3.131
51954SOL    HW257696   1.660  10.031   3.271
51955SOL     OW57697   7.451   7.057  13.603
51955SOL    HW157698   7.476   7.146  13.577
51955SOL    HW257699   7.515   7.000  13.560
51956SOL     OW57700   8.533   0.587   5.646
51956SOL    HW157701   8.530   0.640   5.566
51956SOL    HW257702   8.611   0.532   5.635
51957SOL     OW57703  12.644   4.280   4.293
51957SOL    HW157704  12.616   4.230   4.217
51957SOL    HW257705  12.628   4.372   4.269
51958SOL     OW57706   9.680  11.080   8.611
51958SOL    HW157707   9.600  11.029   8.598
51958SOL    HW257708   9.657  11.143   8.679
51959SOL     OW57709   4.510   5.269   9.763
51959SOL    HW157710   4.450   5.341   9.780
51959SOL    HW257711   4.474   5.195   9.812
51960SOL     OW57712   2.269   8.280   1.415
51960SOL    HW157713   2.268   8.217   1.487
51960SOL    HW257714   2.186   8.266   1.369
51961SOL     OW57715   7.704  12.491   7.047
51961SOL    HW157716   7.768  12.485   7.119
51961SOL    HW257717   7.756  12.513   6.970
51962SOL     OW57718   5.980   0.283   4.450
51962SOL    HW157719   6.004   0.373   4.473
51962SOL    HW257720   5.886   0.286   4.433
51963SOL     OW57721  11.245   2.263   1.524
51963SOL    HW157722  11.215   2.220   1.604
51963SOL    HW257723  11.340   2.254   1.526
51964SOL     OW57724   7.616  11.691   8.514
51964SOL    HW157725   7.663  11.753   8.458
51964SOL    HW257726   7.685  11.649   8.566
51965SOL     OW57727  12.003  13.950  13.932
51965SOL    HW157728  11.997  14.028  13.875
51965SOL    HW257729  11.912  13.926  13.948
51966SOL     OW57730   2.172   3.703  12.771
51966SOL    HW157731   2.243   3.639  12.786
51966SOL    HW257732   2.095   3.662  12.810
51967SOL     OW57733   2.553   7.535   4.939
51967SOL    HW157734   2.482   7.566   4.996
51967SOL    HW257735   2.514   7.462   4.890
51968SOL     OW57736  12.163   5.626   8.331
51968SOL    HW157737  12.102   5.552   8.326
51968SOL    HW257738  12.135   5.675   8.409
51969SOL     OW57739   2.552   6.906   7.706
51969SOL    HW157740   2.563   6.945   7.619
51969SOL    HW257741   2.586   6.817   7.697
51970SOL     OW57742   5.856  10.498  14.502
51970SOL    HW157743   5.847  10.414  14.548
51970SOL    HW257744   5.950  10.504  14.484
51971SOL     OW57745  11.472  14.482  14.454
51971SOL    HW157746  11.516  14.416  14.506
51971SOL    HW257747  11.487  14.564  14.501
51972SOL     OW57748  13.961   3.343  10.650
51972SOL    HW157749  13.955   3.252  10.623
51972SOL    HW257750  14.049   3.370  10.624
51973SOL     OW57751   6.561   4.872  10.056
51973SOL    HW157752   6.589   4.899  10.143
51973SOL    HW257753   6.552   4.777  10.061
51974SOL     OW57754  10.611   1.787   6.737
51974SOL    HW157755  10.616   1.703   6.691
51974SOL    HW257756  10.539   1.776   6.799
51975SOL     OW57757   1.277  13.137  12.531
51975SOL    HW157758   1.243  13.221  12.563
51975SOL    HW257759   1.365  13.157  12.498
51976SOL     OW57760   9.667   3.225   5.787
51976SOL    HW157761   9.674   3.167   5.863
51976SOL    HW257762   9.750   3.271   5.784
51977SOL     OW57763   6.715   5.371   3.210
51977SOL    HW157764   6.620   5.375   3.206
51977SOL    HW257765   6.739   5.436   3.276
51978SOL     OW57766   2.089   1.664   7.504
51978SOL    HW157767   2.112   1.750   7.469
51978SOL    HW257768   1.995   1.655   7.488
51979SOL     OW57769  11.362  12.056  12.115
51979SOL    HW157770  11.436  12.013  12.071
51979SOL    HW257771  11.387  12.058  12.207
51980SOL     OW57772   1.323   1.526   1.701
51980SOL    HW157773   1.406   1.545   1.744
51980SOL    HW257774   1.286   1.612   1.681
51981SOL     OW57775  12.235  13.186   1.475
51981SOL    HW157776  12.277  13.272   1.464
51981SOL    HW257777  12.149  13.196   1.434
51982SOL     OW57778  13.726  13.456  11.203
51982SOL    HW157779  13.794  13.515  11.170
51982SOL    HW257780  13.769  13.371  11.212
51983SOL     OW57781  12.062  10.102   1.939
51983SOL    HW157782  12.134  10.054   1.980
51983SOL    HW257783  12.021  10.151   2.010
51984SOL     OW57784   2.808  12.358   3.619
51984SOL    HW157785   2.835  12.297   3.688
51984SOL    HW257786   2.855  12.328   3.541
51985SOL     OW57787   6.298  10.001   8.235
51985SOL    HW157788   6.238   9.964   8.171
51985SOL    HW257789   6.326   9.927   8.288
51986SOL     OW57790  12.012   9.916   2.523
51986SOL    HW157791  12.074   9.989   2.516
51986SOL    HW257792  11.970   9.912   2.437
51987SOL     OW57793   0.917  11.523   6.419
51987SOL    HW157794   0.844  11.564   6.373
51987SOL    HW257795   0.876  11.473   6.490
51988SOL     OW57796   1.268  13.072  12.818
51988SOL    HW157797   1.246  13.036  12.733
51988SOL    HW257798   1.340  13.017  12.850
51989SOL     OW57799   6.163   6.177   7.796
51989SOL    HW157800   6.242   6.139   7.835
51989SOL    HW257801   6.094   6.157   7.858
51990SOL     OW57802  14.205   9.646   7.291
51990SOL    HW157803  14.210   9.553   7.272
51990SOL    HW257804  14.111   9.663   7.301
51991SOL     OW57805  13.820   6.760   9.014
51991SOL    HW157806  13.741   6.783   9.063
51991SOL    HW257807  13.794   6.765   8.922
51992SOL     OW57808   2.494  13.774   0.700
51992SOL    HW157809   2.573  13.788   0.648
51992SOL    HW257810   2.498  13.840   0.768
51993SOL     OW57811   4.804  12.196   8.762
51993SOL    HW157812   4.765  12.108   8.771
51993SOL    HW257813   4.797  12.216   8.669
51994SOL     OW57814  12.807   0.897  12.242
51994SOL    HW157815  12.852   0.973  12.206
51994SOL    HW257816  12.714   0.919  12.236
51995SOL     OW57817   9.227  13.399  11.875
51995SOL    HW157818   9.146  13.351  11.897
51995SOL    HW257819   9.255  13.361  11.792
51996SOL     OW57820  13.378   1.776  13.841
51996SOL    HW157821  13.314   1.728  13.893
51996SOL    HW257822  13.359   1.868  13.857
51997SOL     OW57823  14.859  12.684   4.840
51997SOL    HW157824   0.056  12.745   4.865
51997SOL    HW257825  14.810  12.731   4.772
51998SOL     OW57826  13.038  10.993   4.571
51998SOL    HW157827  13.077  11.008   4.485
51998SOL    HW257828  13.110  11.003   4.632
51999SOL     OW57829   2.696   0.968   1.059
51999SOL    HW157830   2.685   0.877   1.030
51999SOL    HW257831   2.769   1.001   1.007
52000SOL     OW57832   9.148   5.144  12.123
52000SOL    HW157833   9.072   5.149  12.181
52000SOL    HW257834   9.198   5.223  12.142
52001SOL     OW57835   8.567   0.735  11.419
52001SOL    HW157836   8.477   0.768  11.420
52001SOL    HW257837   8.557   0.640  11.419
52002SOL     OW57838  11.366  10.892  14.256
52002SOL    HW157839  11.432  10.861  14.318
52002SOL    HW257840  11.283  10.886  14.304
52003SOL     OW57841   6.385   4.126   8.472
52003SOL    HW157842   6.329   4.062   8.517
52003SOL    HW257843   6.417   4.079   8.395
52004SOL     OW57844   7.164   1.949   4.814
52004SOL    HW157845   7.156   2.035   4.772
52004SOL    HW257846   7.073   1.922   4.830
52005SOL     OW57847   8.444  12.126  12.854
52005SOL    HW157848   8.446  12.185  12.778
52005SOL    HW257849   8.533  12.131  12.889
52006SOL     OW57850  10.473  10.192  12.078
52006SOL    HW157851  10.449  10.123  12.140
52006SOL    HW257852  10.417  10.176  12.002
52007SOL     OW57853   6.325   3.943  11.059
52007SOL    HW157854   6.284   4.028  11.074
52007SOL    HW257855   6.326   3.933  10.963
52008SOL     OW57856   3.442   2.707   0.424
52008SOL    HW157857   3.522   2.761   0.420
52008SOL    HW257858   3.474   2.617   0.423
52009SOL     OW57859   5.359  12.841   3.079
52009SOL    HW157860   5.358  12.933   3.055
52009SOL    HW257861   5.339  12.840   3.172
52010SOL     OW57862   8.808  10.283   3.676
52010SOL    HW157863   8.774  10.336   3.748
52010SOL    HW257864   8.885  10.331   3.646
52011SOL     OW57865   7.548   6.481  10.874
52011SOL    HW157866   7.582   6.393  10.856
52011SOL    HW257867   7.477   6.492  10.811
52012SOL     OW57868   4.111  14.817   1.798
52012SOL    HW157869   4.139  14.794   1.887
52012SOL    HW257870   4.049   0.017   1.811
52013SOL     OW57871   6.151   6.132   6.802
52013SOL    HW157872   6.203   6.207   6.774
52013SOL    HW257873   6.065   6.146   6.762
52014SOL     OW57874  14.756   1.226   6.481
52014SOL    HW157875  14.817   1.247   6.551
52014SOL    HW257876  14.806   1.240   6.401
52015SOL     OW57877   6.099   6.680   7.867
52015SOL    HW157878   6.058   6.608   7.819
52015SOL    HW257879   6.180   6.697   7.819
52016SOL     OW57880   0.071   1.377  10.349
52016SOL    HW157881   0.137   1.395  10.416
52016SOL    HW257882   0.113   1.404  10.267
52017SOL     OW57883  14.346   3.265   8.187
52017SOL    HW157884  14.392   3.217   8.256
52017SOL    HW257885  14.259   3.224   8.184
52018SOL     OW57886  14.795   5.440   1.733
52018SOL    HW157887  14.861   5.405   1.673
52018SOL    HW257888  14.846   5.475   1.806
52019SOL     OW57889   2.698   7.315  12.346
52019SOL    HW157890   2.641   7.239  12.334
52019SOL    HW257891   2.758   7.312  12.272
52020SOL     OW57892   7.271   4.202  14.026
52020SOL    HW157893   7.268   4.116  14.070
52020SOL    HW257894   7.181   4.217  13.998
52021SOL     OW57895   5.062   5.848   5.746
52021SOL    HW157896   5.051   5.833   5.840
52021SOL    HW257897   5.135   5.910   5.741
52022SOL     OW57898   6.967   6.872   5.726
52022SOL    HW157899   6.926   6.879   5.640
52022SOL    HW257900   6.918   6.802   5.770
52023SOL     OW57901  10.253   2.867  13.331
52023SOL    HW157902  10.298   2.860  13.247
52023SOL    HW257903  10.288   2.946  13.371
52024SOL     OW57904  11.366   8.583   7.468
52024SOL    HW157905  11.298   8.637   7.508
52024SOL    HW257906  11.443   8.639   7.466
52025SOL     OW57907   4.819  10.901  14.245
52025SOL    HW157908   4.743  10.908  14.303
52025SOL    HW257909   4.893  10.922  14.302
52026SOL     OW57910  10.800  11.888  13.133
52026SOL    HW157911  10.836  11.956  13.190
52026SOL    HW257912  10.793  11.811  13.188
52027SOL     OW57913  10.902   5.124   9.550
52027SOL    HW157914  10.987   5.168   9.551
52027SOL    HW257915  10.921   5.034   9.579
52028SOL     OW57916   5.401   5.901   3.080
52028SOL    HW157917   5.461   5.905   3.155
52028SOL    HW257918   5.456   5.877   3.006
52029SOL     OW57919  12.439  14.086   8.746
52029SOL    HW157920  12.353  14.128   8.747
52029SOL    HW257921  12.484  14.122   8.822
52030SOL     OW57922   0.679   3.911  11.990
52030SOL    HW157923   0.659   3.842  12.054
52030SOL    HW257924   0.615   3.897  11.920
52031SOL     OW57925  12.464   9.030   5.048
52031SOL    HW157926  12.460   9.114   5.094
52031SOL    HW257927  12.378   9.021   5.008
52032SOL     OW57928  11.645   7.059   7.162
52032SOL    HW157929  11.577   7.086   7.100
52032SOL    HW257930  11.727   7.078   7.117
52033SOL     OW57931   9.931   9.837   4.759
52033SOL    HW157932   9.899   9.878   4.840
52033SOL    HW257933  10.020   9.808   4.781
52034SOL     OW57934   0.355   7.081   5.372
52034SOL    HW157935   0.415   7.089   5.298
52034SOL    HW257936   0.338   6.987   5.379
52035SOL     OW57937  14.464   4.431   3.535
52035SOL    HW157938  14.510   4.474   3.607
52035SOL    HW257939  14.526   4.433   3.462
52036SOL     OW57940  14.844   7.802   7.488
52036SOL    HW157941   0.040   7.799   7.421
52036SOL    HW257942  14.768   7.761   7.445
52037SOL     OW57943   1.925   6.280   7.206
52037SOL    HW157944   1.941   6.330   7.286
52037SOL    HW257945   1.948   6.190   7.229
52038SOL     OW57946   4.809  12.929   4.616
52038SOL    HW157947   4.804  12.991   4.689
52038SOL    HW257948   4.898  12.894   4.620
52039SOL     OW57949  11.382  14.512  13.652
52039SOL    HW157950  11.305  14.509  13.708
52039SOL    HW257951  11.427  14.593  13.676
52040SOL     OW57952   9.201   5.255   9.182
52040SOL    HW157953   9.192   5.174   9.232
52040SOL    HW257954   9.112   5.279   9.157
52041SOL     OW57955   8.793  13.721   0.266
52041SOL    HW157956   8.881  13.751   0.243
52041SOL    HW257957   8.743  13.730   0.184
52042SOL     OW57958  11.073  10.407   3.489
52042SOL    HW157959  11.045  10.414   3.580
52042SOL    HW257960  11.158  10.451   3.487
52043SOL     OW57961   6.758   5.964   5.723
52043SOL    HW157962   6.824   5.901   5.751
52043SOL    HW257963   6.675   5.930   5.757
52044SOL     OW57964   3.404   7.238  11.766
52044SOL    HW157965   3.449   7.164  11.725
52044SOL    HW257966   3.391   7.212  11.857
52045SOL     OW57967   6.804   8.309   7.730
52045SOL    HW157968   6.759   8.252   7.793
52045SOL    HW257969   6.839   8.248   7.665
52046SOL     OW57970   8.465  10.202   9.596
52046SOL    HW157971   8.442  10.127   9.542
52046SOL    HW257972   8.481  10.273   9.533
52047SOL     OW57973   0.509   1.397   3.510
52047SOL    HW157974   0.594   1.433   3.536
52047SOL    HW257975   0.526   1.303   3.495
52048SOL     OW57976  10.324  11.411  13.661
52048SOL    HW157977  10.229  11.399  13.666
52048SOL    HW257978  10.358  11.325  13.638
52049SOL     OW57979   7.259  13.062   2.259
52049SOL    HW157980   7.268  12.982   2.208
52049SOL    HW257981   7.165  13.075   2.268
52050SOL     OW57982   7.168  12.671   7.872
52050SOL    HW157983   7.233  12.654   7.940
52050SOL    HW257984   7.095  12.612   7.893
52051SOL     OW57985   9.667   1.100  10.831
52051SOL    HW157986   9.729   1.069  10.766
52051SOL    HW257987   9.602   1.149  10.781
52052SOL     OW57988   3.767   9.839   9.171
52052SOL    HW157989   3.674   9.848   9.192
52052SOL    HW257990   3.782   9.745   9.166
52053SOL     OW57991  14.241  13.915   1.323
52053SOL    HW157992  14.285  13.992   1.288
52053SOL    HW257993  14.188  13.948   1.396
52054SOL     OW57994   2.127   9.484   2.404
52054SOL    HW157995   2.075   9.414   2.443
52054SOL    HW257996   2.082   9.505   2.322
52055SOL     OW57997   9.072  14.566   8.550
52055SOL    HW157998   9.163  14.594   8.561
52055SOL    HW257999   9.022  14.628   8.603
52056SOL     OW58000  14.168  12.860   9.905
52056SOL    HW158001  14.176  12.791   9.970
52056SOL    HW258002  14.258  12.885   9.885
52057SOL     OW58003   0.794   8.346  10.689
52057SOL    HW158004   0.775   8.429  10.644
52057SOL    HW258005   0.872   8.365  10.742
52058SOL     OW58006   8.844   0.749   6.949
52058SOL    HW158007   8.836   0.844   6.940
52058SOL    HW258008   8.927   0.735   6.995
52059SOL     OW58009   9.279   3.950   2.604
52059SOL    HW158010   9.322   3.985   2.526
52059SOL    HW258011   9.315   4.001   2.677
52060SOL     OW58012   1.428   8.168   0.124
52060SOL    HW158013   1.342   8.177   0.083
52060SOL    HW258014   1.475   8.108   0.067
52061SOL     OW58015  12.470  10.157  13.363
52061SOL    HW158016  12.498  10.206  13.441
52061SOL    HW258017  12.374  10.156  13.369
52062SOL     OW58018   7.910   6.718   6.463
52062SOL    HW158019   7.838   6.748   6.408
52062SOL    HW258020   7.979   6.695   6.402
52063SOL     OW58021   2.605   9.713  10.335
52063SOL    HW158022   2.678   9.700  10.275
52063SOL    HW258023   2.646   9.736  10.419
52064SOL     OW58024   3.515  12.230   4.299
52064SOL    HW158025   3.584  12.232   4.366
52064SOL    HW258026   3.496  12.322   4.283
52065SOL     OW58027  12.022  13.006  12.484
52065SOL    HW158028  12.117  13.013  12.487
52065SOL    HW258029  12.000  13.009  12.391
52066SOL     OW58030   8.357   2.558   7.680
52066SOL    HW158031   8.269   2.523   7.664
52066SOL    HW258032   8.343   2.626   7.746
52067SOL     OW58033  10.732   7.427   9.570
52067SOL    HW158034  10.723   7.353   9.510
52067SOL    HW258035  10.660   7.415   9.633
52068SOL     OW58036   2.477   1.738   4.720
52068SOL    HW158037   2.522   1.703   4.797
52068SOL    HW258038   2.528   1.705   4.646
52069SOL     OW58039   5.100  12.461  12.441
52069SOL    HW158040   5.145  12.379  12.423
52069SOL    HW258041   5.112  12.476  12.535
52070SOL     OW58042   5.259   8.712   7.361
52070SOL    HW158043   5.269   8.634   7.415
52070SOL    HW258044   5.268   8.785   7.423
52071SOL     OW58045   3.710   6.335  12.091
52071SOL    HW158046   3.772   6.357  12.161
52071SOL    HW258047   3.670   6.418  12.068
52072SOL     OW58048   2.856  11.694  10.642
52072SOL    HW158049   2.806  11.698  10.561
52072SOL    HW258050   2.835  11.609  10.679
52073SOL     OW58051   2.059   9.284   0.294
52073SOL    HW158052   2.044   9.344   0.367
52073SOL    HW258053   2.051   9.197   0.334
52074SOL     OW58054   3.963   3.896   2.731
52074SOL    HW158055   4.001   3.808   2.731
52074SOL    HW258056   3.875   3.884   2.767
52075SOL     OW58057   7.214   8.391  12.869
52075SOL    HW158058   7.182   8.397  12.778
52075SOL    HW258059   7.251   8.478  12.886
52076SOL     OW58060   1.092   2.815   5.422
52076SOL    HW158061   1.097   2.827   5.517
52076SOL    HW258062   1.036   2.886   5.392
52077SOL     OW58063   2.686  12.656   7.928
52077SOL    HW158064   2.635  12.590   7.882
52077SOL    HW258065   2.632  12.735   7.924
52078SOL     OW58066   1.288   8.352  14.788
52078SOL    HW158067   1.298   8.436  14.744
52078SOL    HW258068   1.374   8.310  14.777
52079SOL     OW58069   7.952   1.044   0.626
52079SOL    HW158070   7.910   0.978   0.681
52079SOL    HW258071   8.042   1.014   0.617
52080SOL     OW58072   9.575  14.081   9.967
52080SOL    HW158073   9.493  14.075   9.919
52080SOL    HW258074   9.551  14.062  10.058
52081SOL     OW58075  12.497   5.339   0.530
52081SOL    HW158076  12.583   5.324   0.492
52081SOL    HW258077  12.443   5.367   0.457
52082SOL     OW58078   0.680  13.342   7.470
52082SOL    HW158079   0.664  13.327   7.377
52082SOL    HW258080   0.775  13.335   7.480
52083SOL     OW58081  10.167  11.443   1.657
52083SOL    HW158082  10.144  11.531   1.686
52083SOL    HW258083  10.237  11.415   1.716
52084SOL     OW58084   5.437   7.978  13.441
52084SOL    HW158085   5.525   8.015  13.434
52084SOL    HW258086   5.427   7.955  13.534
52085SOL     OW58087  10.681  14.843   1.940
52085SOL    HW158088  10.771  14.852   1.910
52085SOL    HW258089  10.629  14.855   1.860
52086SOL     OW58090  14.115  13.208  11.910
52086SOL    HW158091  14.161  13.124  11.903
52086SOL    HW258092  14.031  13.185  11.949
52087SOL     OW58093  10.702   5.804  13.087
52087SOL    HW158094  10.630   5.866  13.099
52087SOL    HW258095  10.684   5.735  13.150
52088SOL     OW58096  13.756  12.380   9.606
52088SOL    HW158097  13.807  12.300   9.622
52088SOL    HW258098  13.810  12.431   9.545
52089SOL     OW58099  14.740   7.346   3.438
52089SOL    HW158100  14.819   7.298   3.414
52089SOL    HW258101  14.771   7.432   3.466
52090SOL     OW58102   2.282  14.190  13.178
52090SOL    HW158103   2.233  14.174  13.258
52090SOL    HW258104   2.224  14.161  13.107
52091SOL     OW58105   4.956   5.203   0.496
52091SOL    HW158106   4.886   5.259   0.462
52091SOL    HW258107   4.953   5.125   0.441
52092SOL     OW58108   4.797   8.568  10.575
52092SOL    HW158109   4.778   8.646  10.523
52092SOL    HW258110   4.858   8.599  10.643
52093SOL     OW58111   2.440   7.916   6.437
52093SOL    HW158112   2.373   7.848   6.427
52093SOL    HW258113   2.391   7.997   6.451
52094SOL     OW58114   5.051   4.137  10.162
52094SOL    HW158115   5.041   4.048  10.129
52094SOL    HW258116   5.036   4.193  10.086
52095SOL     OW58117  10.527   6.730  10.507
52095SOL    HW158118  10.440   6.692  10.498
52095SOL    HW258119  10.570   6.710  10.424
52096SOL     OW58120   2.018   0.448   5.621
52096SOL    HW158121   1.963   0.525   5.629
52096SOL    HW258122   2.015   0.407   5.708
52097SOL     OW58123   3.192   3.617   5.009
52097SOL    HW158124   3.098   3.623   4.995
52097SOL    HW258125   3.211   3.683   5.075
52098SOL     OW58126   0.242  13.143   5.424
52098SOL    HW158127   0.241  13.072   5.489
52098SOL    HW258128   0.165  13.196   5.446
52099SOL     OW58129   2.931  11.129   3.402
52099SOL    HW158130   2.976  11.200   3.357
52099SOL    HW258131   2.841  11.160   3.412
52100SOL     OW58132   4.846  12.527   8.005
52100SOL    HW158133   4.758  12.559   7.990
52100SOL    HW258134   4.894  12.550   7.926
52101SOL     OW58135  12.183   4.915   3.489
52101SOL    HW158136  12.275   4.913   3.463
52101SOL    HW258137  12.156   4.823   3.490
52102SOL     OW58138  11.902   8.936  12.127
52102SOL    HW158139  11.893   8.841  12.127
52102SOL    HW258140  11.911   8.960  12.035
52103SOL     OW58141   8.869   1.987  10.252
52103SOL    HW158142   8.939   1.922  10.248
52103SOL    HW258143   8.867   2.014  10.344
52104SOL     OW58144   9.754  11.717   0.825
52104SOL    HW158145   9.706  11.799   0.813
52104SOL    HW258146   9.782  11.719   0.917
52105SOL     OW58147   3.289   2.376   9.614
52105SOL    HW158148   3.269   2.342   9.702
52105SOL    HW258149   3.321   2.300   9.566
52106SOL     OW58150   5.719   7.834   3.417
52106SOL    HW158151   5.794   7.893   3.428
52106SOL    HW258152   5.757   7.751   3.390
52107SOL     OW58153  12.070   6.073   8.009
52107SOL    HW158154  12.121   6.139   8.055
52107SOL    HW258155  12.125   6.046   7.935
52108SOL     OW58156   2.954  12.472   3.354
52108SOL    HW158157   3.032  12.443   3.305
52108SOL    HW258158   2.958  12.567   3.351
52109SOL     OW58159  13.466   2.520  11.678
52109SOL    HW158160  13.542   2.467  11.656
52109SOL    HW258161  13.396   2.457  11.691
52110SOL     OW58162   9.892  14.533  11.160
52110SOL    HW158163   9.857  14.517  11.248
52110SOL    HW258164   9.963  14.595  11.174
52111SOL     OW58165   1.560  12.429   6.945
52111SOL    HW158166   1.569  12.500   6.881
52111SOL    HW258167   1.474  12.391   6.927
52112SOL     OW58168   1.594  10.993  11.298
52112SOL    HW158169   1.542  10.943  11.234
52112SOL    HW258170   1.663  11.034  11.246
52113SOL     OW58171   9.364   7.256   4.042
52113SOL    HW158172   9.414   7.278   4.120
52113SOL    HW258173   9.428   7.254   3.971
52114SOL     OW58174   3.086   2.890   9.768
52114SOL    HW158175   3.162   2.948   9.761
52114SOL    HW258176   3.105   2.837   9.846
52115SOL     OW58177   4.595   0.725   4.970
52115SOL    HW158178   4.574   0.679   4.889
52115SOL    HW258179   4.681   0.765   4.954
52116SOL     OW58180   8.070   2.502  10.943
52116SOL    HW158181   8.027   2.452  11.013
52116SOL    HW258182   8.162   2.475  10.948
52117SOL     OW58183   6.411   5.302  11.015
52117SOL    HW158184   6.325   5.319  10.976
52117SOL    HW258185   6.463   5.265  10.944
52118SOL     OW58186   3.849   1.459  10.094
52118SOL    HW158187   3.811   1.547  10.104
52118SOL    HW258188   3.853   1.425  10.184
52119SOL     OW58189  10.296  13.901   3.314
52119SOL    HW158190  10.310  13.981   3.263
52119SOL    HW258191  10.333  13.831   3.260
52120SOL     OW58192   5.162   8.534  13.836
52120SOL    HW158193   5.207   8.578  13.907
52120SOL    HW258194   5.069   8.553  13.851
52121SOL     OW58195   0.770   2.524   5.486
52121SOL    HW158196   0.862   2.516   5.512
52121SOL    HW258197   0.772   2.577   5.406
52122SOL     OW58198   4.398   1.776  10.210
52122SOL    HW158199   4.431   1.686  10.204
52122SOL    HW258200   4.461   1.821  10.267
52123SOL     OW58201   7.007   6.626   1.793
52123SOL    HW158202   6.981   6.620   1.701
52123SOL    HW258203   6.939   6.578   1.840
52124SOL     OW58204   0.012   7.009   3.953
52124SOL    HW158205   0.065   6.939   3.912
52124SOL    HW258206   0.050   7.020   4.040
52125SOL     OW58207   5.939   5.239  10.180
52125SOL    HW158208   5.911   5.329  10.195
52125SOL    HW258209   5.967   5.238  10.088
52126SOL     OW58210  13.240   0.866  13.406
52126SOL    HW158211  13.326   0.852  13.365
52126SOL    HW258212  13.187   0.792  13.378
52127SOL     OW58213   2.064  12.020   9.813
52127SOL    HW158214   2.157  12.000   9.796
52127SOL    HW258215   2.032  12.056   9.730
52128SOL     OW58216   0.008  10.436  11.122
52128SOL    HW158217   0.065  10.468  11.191
52128SOL    HW258218   0.067  10.410  11.051
52129SOL     OW58219   7.527   4.524   7.848
52129SOL    HW158220   7.603   4.566   7.889
52129SOL    HW258221   7.455   4.586   7.861
52130SOL     OW58222  13.995  12.413   7.275
52130SOL    HW158223  13.981  12.434   7.182
52130SOL    HW258224  13.928  12.349   7.295
52131SOL     OW58225  11.708   7.580   0.147
52131SOL    HW158226  11.755   7.649   0.195
52131SOL    HW258227  11.722   7.501   0.200
52132SOL     OW58228  13.032  11.198   2.563
52132SOL    HW158229  13.048  11.286   2.527
52132SOL    HW258230  12.938  11.198   2.583
52133SOL     OW58231   1.993   3.011   3.352
52133SOL    HW158232   1.933   2.999   3.425
52133SOL    HW258233   1.946   3.071   3.293
52134SOL     OW58234   3.249   3.583   7.403
52134SOL    HW158235   3.335   3.565   7.364
52134SOL    HW258236   3.213   3.496   7.421
52135SOL     OW58237   7.775  14.590  13.793
52135SOL    HW158238   7.768  14.539  13.713
52135SOL    HW258239   7.797  14.526  13.861
52136SOL     OW58240  12.853  14.596  13.804
52136SOL    HW158241  12.764  14.577  13.774
52136SOL    HW258242  12.872  14.682  13.767
52137SOL     OW58243  12.893   8.755  13.162
52137SOL    HW158244  12.886   8.720  13.251
52137SOL    HW258245  12.970   8.811  13.165
52138SOL     OW58246   8.967   7.985   4.539
52138SOL    HW158247   8.923   7.907   4.506
52138SOL    HW258248   9.005   7.959   4.623
52139SOL     OW58249   9.924   2.898   0.050
52139SOL    HW158250  10.002   2.950   0.033
52139SOL    HW258251   9.950   2.808   0.031
52140SOL     OW58252  13.785   7.981   3.226
52140SOL    HW158253  13.791   8.052   3.290
52140SOL    HW258254  13.876   7.959   3.206
52141SOL     OW58255  10.435  14.381   1.646
52141SOL    HW158256  10.469  14.297   1.678
52141SOL    HW258257  10.374  14.357   1.576
52142SOL     OW58258   9.746  13.006  12.047
52142SOL    HW158259   9.744  13.001  12.142
52142SOL    HW258260   9.827  13.053  12.028
52143SOL     OW58261   5.894  14.392  11.601
52143SOL    HW158262   5.872  14.399  11.508
52143SOL    HW258263   5.902  14.298  11.616
52144SOL     OW58264  12.682  12.195   1.673
52144SOL    HW158265  12.728  12.130   1.726
52144SOL    HW258266  12.745  12.267   1.665
52145SOL     OW58267   0.911   2.602   9.017
52145SOL    HW158268   0.862   2.562   8.945
52145SOL    HW258269   0.848   2.658   9.062
52146SOL     OW58270  10.782   1.674   4.617
52146SOL    HW158271  10.818   1.612   4.680
52146SOL    HW258272  10.858   1.710   4.571
52147SOL     OW58273   7.152   5.549   3.790
52147SOL    HW158274   7.217   5.505   3.844
52147SOL    HW258275   7.153   5.503   3.706
52148SOL     OW58276   7.081   2.683   1.575
52148SOL    HW158277   7.084   2.675   1.480
52148SOL    HW258278   7.118   2.600   1.607
52149SOL     OW58279   7.768   5.085   6.447
52149SOL    HW158280   7.842   5.084   6.508
52149SOL    HW258281   7.792   5.151   6.381
52150SOL     OW58282   5.184   5.594   2.865
52150SOL    HW158283   5.237   5.565   2.940
52150SOL    HW258284   5.147   5.513   2.831
52151SOL     OW58285   0.317  12.782   7.459
52151SOL    HW158286   0.334  12.860   7.407
52151SOL    HW258287   0.264  12.813   7.533
52152SOL     OW58288  12.233   4.771  11.527
52152SOL    HW158289  12.158   4.714  11.510
52152SOL    HW258290  12.201   4.835  11.590
52153SOL     OW58291  11.295  12.550  12.533
52153SOL    HW158292  11.200  12.545  12.538
52153SOL    HW258293  11.325  12.461  12.551
52154SOL     OW58294   6.043   3.757   7.455
52154SOL    HW158295   6.111   3.705   7.499
52154SOL    HW258296   6.053   3.845   7.491
52155SOL     OW58297  10.150   4.631   8.536
52155SOL    HW158298  10.126   4.643   8.628
52155SOL    HW258299  10.078   4.581   8.499
52156SOL     OW58300   5.889   0.822  12.206
52156SOL    HW158301   5.835   0.868  12.271
52156SOL    HW258302   5.979   0.849  12.226
52157SOL     OW58303   9.801   2.461  12.319
52157SOL    HW158304   9.794   2.480  12.225
52157SOL    HW258305   9.866   2.391  12.325
52158SOL     OW58306  12.627   1.854   8.682
52158SOL    HW158307  12.579   1.775   8.656
52158SOL    HW258308  12.596   1.873   8.770
52159SOL     OW58309   8.788   4.796  11.258
52159SOL    HW158310   8.827   4.824  11.176
52159SOL    HW258311   8.778   4.701  11.249
52160SOL     OW58312  10.608   3.416  10.862
52160SOL    HW158313  10.628   3.337  10.913
52160SOL    HW258314  10.623   3.389  10.771
52161SOL     OW58315   8.883  12.382  10.981
52161SOL    HW158316   8.948  12.324  10.941
52161SOL    HW258317   8.830  12.325  11.036
52162SOL     OW58318   3.730  14.015   0.989
52162SOL    HW158319   3.802  13.956   0.964
52162SOL    HW258320   3.703  13.985   1.076
52163SOL     OW58321  10.709   1.250  13.116
52163SOL    HW158322  10.764   1.327  13.132
52163SOL    HW258323  10.625   1.286  13.087
52164SOL     OW58324  12.898  11.676  11.585
52164SOL    HW158325  12.881  11.764  11.552
52164SOL    HW258326  12.864  11.677  11.675
52165SOL     OW58327   8.470   2.841  10.853
52165SOL    HW158328   8.557   2.831  10.893
52165SOL    HW258329   8.487   2.834  10.759
52166SOL     OW58330   0.068   1.655   6.845
52166SOL    HW158331   0.011   1.632   6.919
52166SOL    HW258332   0.043   1.745   6.822
52167SOL     OW58333  14.671   1.732  14.627
52167SOL    HW158334  14.723   1.707  14.551
52167SOL    HW258335  14.685   1.662  14.690
52168SOL     OW58336   9.690   7.987   4.640
52168SOL    HW158337   9.646   7.956   4.719
52168SOL    HW258338   9.670   7.921   4.574
52169SOL     OW58339  11.417  13.116   4.467
52169SOL    HW158340  11.335  13.165   4.463
52169SOL    HW258341  11.456  13.126   4.380
52170SOL     OW58342   5.190   7.529   2.752
52170SOL    HW158343   5.155   7.618   2.746
52170SOL    HW258344   5.272   7.539   2.799
52171SOL     OW58345   0.589   7.499   1.066
52171SOL    HW158346   0.534   7.473   1.140
52171SOL    HW258347   0.627   7.418   1.035
52172SOL     OW58348   2.123  10.421   9.423
52172SOL    HW158349   2.132  10.326   9.429
52172SOL    HW258350   2.083  10.437   9.338
52173SOL     OW58351   0.763   2.640  11.804
52173SOL    HW158352   0.696   2.626  11.870
52173SOL    HW258353   0.773   2.735  11.800
52174SOL     OW58354  14.836   5.820   2.838
52174SOL    HW158355   0.025   5.747   2.844
52174SOL    HW258356   0.015   5.897   2.858
52175SOL     OW58357  11.744   7.036  14.695
52175SOL    HW158358  11.683   7.058  14.766
52175SOL    HW258359  11.828   7.023  14.739
52176SOL     OW58360   7.995   7.393   6.709
52176SOL    HW158361   7.951   7.410   6.793
52176SOL    HW258362   8.088   7.394   6.730
52177SOL     OW58363   6.888  11.275   0.202
52177SOL    HW158364   6.940  11.219   0.145
52177SOL    HW258365   6.883  11.358   0.156
52178SOL     OW58366   0.941  13.615  12.917
52178SOL    HW158367   1.004  13.645  12.983
52178SOL    HW258368   0.856  13.632  12.956
52179SOL     OW58369  12.148   5.488  12.503
52179SOL    HW158370  12.106   5.431  12.439
52179SOL    HW258371  12.166   5.569  12.455
52180SOL     OW58372   0.118   3.736  11.741
52180SOL    HW158373   0.188   3.720  11.678
52180SOL    HW258374   0.055   3.666  11.725
52181SOL     OW58375   2.506   1.040   0.156
52181SOL    HW158376   2.490   0.947   0.141
52181SOL    HW258377   2.431   1.070   0.207
52182SOL     OW58378   6.011   2.703   6.510
52182SOL    HW158379   5.975   2.789   6.531
52182SOL    HW258380   6.012   2.700   6.414
52183SOL     OW58381   2.427   2.467  14.292
52183SOL    HW158382   2.428   2.376  14.321
52183SOL    HW258383   2.511   2.503  14.322
52184SOL     OW58384  14.534   9.018   6.660
52184SOL    HW158385  14.455   9.029   6.608
52184SOL    HW258386  14.522   8.935   6.706
52185SOL     OW58387   8.133  14.804   4.177
52185SOL    HW158388   8.127  14.846   4.091
52185SOL    HW258389   8.211  14.843   4.218
52186SOL     OW58390   5.349   8.196  14.373
52186SOL    HW158391   5.428   8.151  14.343
52186SOL    HW258392   5.312   8.235  14.293
52187SOL     OW58393  10.145   6.694  13.030
52187SOL    HW158394  10.160   6.647  12.948
52187SOL    HW258395  10.057   6.668  13.058
52188SOL     OW58396   2.874   1.465   4.757
52188SOL    HW158397   2.781   1.469   4.779
52188SOL    HW258398   2.876   1.429   4.668
52189SOL     OW58399   0.649   9.120  14.647
52189SOL    HW158400   0.652   9.124  14.743
52189SOL    HW258401   0.739   9.142  14.620
52190SOL     OW58402  11.690  12.457  12.664
52190SOL    HW158403  11.621  12.484  12.725
52190SOL    HW258404  11.665  12.369  12.636
52191SOL     OW58405   9.955   8.878   3.620
52191SOL    HW158406   9.946   8.884   3.715
52191SOL    HW258407   9.871   8.910   3.586
52192SOL     OW58408   6.593   7.507   8.188
52192SOL    HW158409   6.633   7.583   8.146
52192SOL    HW258410   6.505   7.537   8.212
52193SOL     OW58411   2.810   4.804  12.997
52193SOL    HW158412   2.749   4.741  12.958
52193SOL    HW258413   2.865   4.833  12.925
52194SOL     OW58414  13.063   3.635   4.314
52194SOL    HW158415  13.083   3.653   4.406
52194SOL    HW258416  12.968   3.623   4.312
52195SOL     OW58417   7.621   4.149   1.842
52195SOL    HW158418   7.624   4.123   1.750
52195SOL    HW258419   7.688   4.217   1.849
52196SOL     OW58420   5.983   0.980   0.636
52196SOL    HW158421   5.905   1.027   0.666
52196SOL    HW258422   6.018   0.940   0.716
52197SOL     OW58423   7.215   5.380   9.427
52197SOL    HW158424   7.128   5.341   9.426
52197SOL    HW258425   7.199   5.474   9.415
52198SOL     OW58426   6.902   9.616   0.733
52198SOL    HW158427   6.978   9.673   0.726
52198SOL    HW258428   6.926   9.537   0.685
52199SOL     OW58429   4.872   4.595  10.631
52199SOL    HW158430   4.868   4.687  10.604
52199SOL    HW258431   4.869   4.546  10.549
52200SOL     OW58432  14.425  12.831   0.373
52200SOL    HW158433  14.340  12.875   0.383
52200SOL    HW258434  14.447  12.804   0.462
52201SOL     OW58435   8.056   6.734   0.555
52201SOL    HW158436   8.047   6.814   0.503
52201SOL    HW258437   8.104   6.673   0.499
52202SOL     OW58438  12.579  12.841   2.683
52202SOL    HW158439  12.675  12.833   2.685
52202SOL    HW258440  12.547  12.756   2.713
52203SOL     OW58441   8.828  10.888   8.165
52203SOL    HW158442   8.855  10.942   8.091
52203SOL    HW258443   8.898  10.823   8.173
52204SOL     OW58444  10.632   0.007  12.672
52204SOL    HW158445  10.666  14.831  12.747
52204SOL    HW258446  10.606   0.092  12.707
52205SOL     OW58447   6.363  10.902   5.059
52205SOL    HW158448   6.376  10.953   4.979
52205SOL    HW258449   6.414  10.947   5.126
52206SOL     OW58450   4.404   2.415  12.821
52206SOL    HW158451   4.322   2.391  12.779
52206SOL    HW258452   4.422   2.344  12.883
52207SOL     OW58453   6.455   1.447  14.737
52207SOL    HW158454   6.481   1.357  14.755
52207SOL    HW258455   6.481   1.496  14.815
52208SOL     OW58456   6.683   8.609   1.612
52208SOL    HW158457   6.681   8.653   1.697
52208SOL    HW258458   6.664   8.517   1.633
52209SOL     OW58459  13.730   4.953   1.175
52209SOL    HW158460  13.663   4.894   1.141
52209SOL    HW258461  13.789   4.967   1.101
52210SOL     OW58462   0.001   1.568   0.933
52210SOL    HW158463   0.027   1.644   0.882
52210SOL    HW258464   0.043   1.578   1.018
52211SOL     OW58465   5.871   6.248   4.040
52211SOL    HW158466   5.946   6.294   4.002
52211SOL    HW258467   5.806   6.247   3.970
52212SOL     OW58468   1.144  12.224   0.466
52212SOL    HW158469   1.140  12.307   0.514
52212SOL    HW258470   1.063  12.223   0.414
52213SOL     OW58471   2.350   3.737   8.029
52213SOL    HW158472   2.437   3.777   8.027
52213SOL    HW258473   2.348   3.688   8.111
52214SOL     OW58474   3.611   0.678   7.568
52214SOL    HW158475   3.635   0.721   7.651
52214SOL    HW258476   3.678   0.611   7.556
52215SOL     OW58477   9.033   5.206  11.323
52215SOL    HW158478   9.039   5.302  11.327
52215SOL    HW258479   8.969   5.189  11.254
52216SOL     OW58480   7.890   8.568  14.319
52216SOL    HW158481   7.903   8.591  14.227
52216SOL    HW258482   7.978   8.564  14.356
52217SOL     OW58483   5.795   5.516  13.633
52217SOL    HW158484   5.709   5.534  13.594
52217SOL    HW258485   5.829   5.442  13.584
52218SOL     OW58486  14.818   0.977  12.407
52218SOL    HW158487   0.001   0.900  12.394
52218SOL    HW258488  14.754   0.950  12.473
52219SOL     OW58489  14.072   6.854   5.332
52219SOL    HW158490  13.981   6.883   5.338
52219SOL    HW258491  14.120   6.932   5.305
52220SOL     OW58492  13.311   1.519   6.814
52220SOL    HW158493  13.314   1.535   6.908
52220SOL    HW258494  13.219   1.532   6.791
52221SOL     OW58495  12.052  11.798  12.145
52221SOL    HW158496  12.076  11.712  12.180
52221SOL    HW258497  12.117  11.857  12.182
52222SOL     OW58498  11.223   0.388  11.428
52222SOL    HW158499  11.178   0.340  11.359
52222SOL    HW258500  11.308   0.410  11.391
52223SOL     OW58501  10.908   0.477   6.185
52223SOL    HW158502  10.995   0.443   6.203
52223SOL    HW258503  10.864   0.406   6.137
52224SOL     OW58504   4.989   8.569  13.336
52224SOL    HW158505   4.925   8.511  13.377
52224SOL    HW258506   5.068   8.560  13.391
52225SOL     OW58507   2.855   6.280  10.117
52225SOL    HW158508   2.878   6.216  10.050
52225SOL    HW258509   2.761   6.267  10.132
52226SOL     OW58510  14.565  11.002   4.976
52226SOL    HW158511  14.634  10.967   4.918
52226SOL    HW258512  14.519  11.066   4.922
52227SOL     OW58513   2.152   5.580   7.949
52227SOL    HW158514   2.137   5.507   7.889
52227SOL    HW258515   2.198   5.645   7.896
52228SOL     OW58516   4.559   1.569   5.710
52228SOL    HW158517   4.483   1.624   5.694
52228SOL    HW258518   4.524   1.490   5.752
52229SOL     OW58519   0.097  12.304   1.634
52229SOL    HW158520   0.165  12.237   1.640
52229SOL    HW258521   0.051  12.297   1.718
52230SOL     OW58522   5.536   4.504  11.508
52230SOL    HW158523   5.464   4.498  11.570
52230SOL    HW258524   5.526   4.590  11.468
52231SOL     OW58525   2.858  13.306   4.406
52231SOL    HW158526   2.897  13.333   4.323
52231SOL    HW258527   2.887  13.215   4.417
52232SOL     OW58528  13.004   4.766   6.137
52232SOL    HW158529  12.922   4.815   6.136
52232SOL    HW258530  13.010   4.728   6.049
52233SOL     OW58531   6.435   8.706   3.396
52233SOL    HW158532   6.518   8.675   3.360
52233SOL    HW258533   6.433   8.671   3.485
52234SOL     OW58534   2.365  12.802  12.032
52234SOL    HW158535   2.308  12.725  12.021
52234SOL    HW258536   2.444  12.768  12.074
52235SOL     OW58537   1.299  14.229   1.442
52235SOL    HW158538   1.229  14.291   1.463
52235SOL    HW258539   1.330  14.255   1.355
52236SOL     OW58540   0.585   3.565   6.754
52236SOL    HW158541   0.613   3.606   6.836
52236SOL    HW258542   0.541   3.635   6.706
52237SOL     OW58543  13.926  10.144   0.875
52237SOL    HW158544  13.848  10.192   0.905
52237SOL    HW258545  13.894  10.088   0.805
52238SOL     OW58546   7.149   9.408   0.882
52238SOL    HW158547   7.112   9.393   0.969
52238SOL    HW258548   7.119   9.334   0.830
52239SOL     OW58549  12.218   2.282   7.541
52239SOL    HW158550  12.291   2.222   7.551
52239SOL    HW258551  12.258   2.369   7.537
52240SOL     OW58552   2.032  12.260   4.189
52240SOL    HW158553   2.037  12.247   4.284
52240SOL    HW258554   2.078  12.343   4.174
52241SOL     OW58555   6.586   8.015   0.581
52241SOL    HW158556   6.640   8.083   0.540
52241SOL    HW258557   6.549   7.967   0.507
52242SOL     OW58558   4.164   1.132  12.400
52242SOL    HW158559   4.256   1.157  12.395
52242SOL    HW258560   4.116   1.210  12.372
52243SOL     OW58561   0.469   0.611  14.110
52243SOL    HW158562   0.423   0.664  14.176
52243SOL    HW258563   0.561   0.637  14.119
52244SOL     OW58564  12.971   7.079  14.778
52244SOL    HW158565  13.028   7.047  14.708
52244SOL    HW258566  12.911   7.006  14.794
52245SOL     OW58567   0.398  10.700   4.303
52245SOL    HW158568   0.424  10.738   4.219
52245SOL    HW258569   0.321  10.750   4.330
52246SOL     OW58570   5.155   3.529   7.086
52246SOL    HW158571   5.107   3.546   7.005
52246SOL    HW258572   5.088   3.534   7.154
52247SOL     OW58573   4.263   8.704   9.217
52247SOL    HW158574   4.261   8.658   9.133
52247SOL    HW258575   4.212   8.784   9.202
52248SOL     OW58576   7.702   1.913  10.719
52248SOL    HW158577   7.712   1.823  10.688
52248SOL    HW258578   7.719   1.967  10.641
52249SOL     OW58579   0.598   5.429   6.596
52249SOL    HW158580   0.582   5.477   6.677
52249SOL    HW258581   0.592   5.337   6.621
52250SOL     OW58582   0.011   0.868   1.566
52250SOL    HW158583  14.807   0.921   1.544
52250SOL    HW258584   0.084   0.929   1.559
52251SOL     OW58585   2.229  12.792   2.547
52251SOL    HW158586   2.174  12.718   2.521
52251SOL    HW258587   2.192  12.822   2.630
52252SOL     OW58588  12.072   8.729   0.142
52252SOL    HW158589  12.159   8.704   0.111
52252SOL    HW258590  12.061   8.682   0.225
52253SOL     OW58591   2.206   0.715  10.721
52253SOL    HW158592   2.238   0.778  10.656
52253SOL    HW258593   2.137   0.667  10.676
52254SOL     OW58594   3.400  14.787   0.865
52254SOL    HW158595   3.391  14.804   0.958
52254SOL    HW258596   3.315  14.812   0.828
52255SOL     OW58597  11.099  11.266   3.882
52255SOL    HW158598  11.128  11.178   3.906
52255SOL    HW258599  11.042  11.253   3.806
52256SOL     OW58600   8.553   2.448  13.937
52256SOL    HW158601   8.508   2.503  13.873
52256SOL    HW258602   8.631   2.499  13.960
52257SOL     OW58603  10.617  14.628  10.583
52257SOL    HW158604  10.565  14.703  10.611
52257SOL    HW258605  10.659  14.596  10.663
52258SOL     OW58606  11.836  13.074   6.079
52258SOL    HW158607  11.796  13.023   6.149
52258SOL    HW258608  11.805  13.031   5.999
52259SOL     OW58609   5.691   8.730  14.312
52259SOL    HW158610   5.709   8.637  14.294
52259SOL    HW258611   5.618   8.752  14.253
52260SOL     OW58612  14.717   7.288   9.041
52260SOL    HW158613  14.789   7.301   8.980
52260SOL    HW258614  14.704   7.193   9.044
52261SOL     OW58615   8.283   3.414  14.398
52261SOL    HW158616   8.363   3.386  14.441
52261SOL    HW258617   8.230   3.452  14.468
52262SOL     OW58618   8.631   8.209  14.107
52262SOL    HW158619   8.622   8.215  14.012
52262SOL    HW258620   8.542   8.226  14.140
52263SOL     OW58621   4.106   9.514   5.152
52263SOL    HW158622   4.075   9.604   5.139
52263SOL    HW258623   4.129   9.510   5.244
52264SOL     OW58624   9.604  11.382   1.146
52264SOL    HW158625   9.525  11.408   1.098
52264SOL    HW258626   9.571  11.353   1.231
52265SOL     OW58627  10.057  14.570  14.869
52265SOL    HW158628  10.102  14.643   0.039
52265SOL    HW258629  10.066  14.586  14.776
52266SOL     OW58630  11.316  12.794   6.903
52266SOL    HW158631  11.289  12.716   6.854
52266SOL    HW258632  11.252  12.861   6.878
52267SOL     OW58633  10.267  11.800   1.960
52267SOL    HW158634  10.267  11.731   2.027
52267SOL    HW258635  10.201  11.772   1.897
52268SOL     OW58636   6.660  14.257  14.474
52268SOL    HW158637   6.661  14.348  14.445
52268SOL    HW258638   6.649  14.206  14.394
52269SOL     OW58639   9.330  13.755   2.705
52269SOL    HW158640   9.349  13.666   2.735
52269SOL    HW258641   9.297  13.743   2.616
52270SOL     OW58642   4.218   8.498   4.121
52270SOL    HW158643   4.229   8.433   4.191
52270SOL    HW258644   4.127   8.489   4.094
52271SOL     OW58645  10.220   5.117   2.220
52271SOL    HW158646  10.209   5.055   2.292
52271SOL    HW258647  10.312   5.108   2.195
52272SOL     OW58648   1.862  14.851   6.316
52272SOL    HW158649   1.882   0.000   6.408
52272SOL    HW258650   1.849  14.756   6.317
52273SOL     OW58651   6.324  12.075   1.380
52273SOL    HW158652   6.371  12.158   1.377
52273SOL    HW258653   6.243  12.091   1.331
52274SOL     OW58654   0.325   5.948   4.068
52274SOL    HW158655   0.303   5.875   4.126
52274SOL    HW258656   0.242   5.992   4.051
52275SOL     OW58657   5.130  10.204   7.908
52275SOL    HW158658   5.202  10.149   7.877
52275SOL    HW258659   5.051  10.162   7.874
52276SOL     OW58660   6.184   3.683  12.231
52276SOL    HW158661   6.115   3.747  12.250
52276SOL    HW258662   6.213   3.653  12.317
52277SOL     OW58663   7.831  14.199   4.421
52277SOL    HW158664   7.926  14.208   4.418
52277SOL    HW258665   7.808  14.162   4.336
52278SOL     OW58666  12.013   6.014  12.577
52278SOL    HW158667  11.991   6.081  12.642
52278SOL    HW258668  12.091   6.047  12.533
52279SOL     OW58669   6.404   4.922   6.422
52279SOL    HW158670   6.377   5.014   6.421
52279SOL    HW258671   6.327   4.874   6.394
52280SOL     OW58672  10.024   0.335   4.726
52280SOL    HW158673   9.990   0.260   4.774
52280SOL    HW258674  10.091   0.298   4.668
52281SOL     OW58675   8.222  14.361   6.819
52281SOL    HW158676   8.183  14.438   6.861
52281SOL    HW258677   8.214  14.379   6.725
52282SOL     OW58678   1.408  11.540  14.787
52282SOL    HW158679   1.503  11.541  14.780
52282SOL    HW258680   1.390  11.523   0.007
52283SOL     OW58681   4.630   3.252   7.769
52283SOL    HW158682   4.648   3.282   7.859
52283SOL    HW258683   4.535   3.244   7.765
52284SOL     OW58684  12.679  14.089   3.899
52284SOL    HW158685  12.764  14.132   3.894
52284SOL    HW258686  12.616  14.161   3.892
52285SOL     OW58687   1.727  11.607  14.824
52285SOL    HW158688   1.786  11.568   0.016
52285SOL    HW258689   1.696  11.687  14.867
52286SOL     OW58690   0.363  13.751   1.359
52286SOL    HW158691   0.400  13.798   1.434
52286SOL    HW258692   0.285  13.801   1.335
52287SOL     OW58693   1.638   7.651   9.023
52287SOL    HW158694   1.725   7.674   9.056
52287SOL    HW258695   1.648   7.562   8.990
52288SOL     OW58696   2.981   0.015  11.030
52288SOL    HW158697   3.030   0.033  10.950
52288SOL    HW258698   2.896   0.059  11.017
52289SOL     OW58699  12.042   6.034  10.717
52289SOL    HW158700  11.989   6.113  10.729
52289SOL    HW258701  12.103   6.056  10.647
52290SOL     OW58702   1.802   4.712  11.766
52290SOL    HW158703   1.723   4.667  11.736
52290SOL    HW258704   1.773   4.801  11.784
52291SOL     OW58705  13.372  14.639   8.717
52291SOL    HW158706  13.461  14.672   8.732
52291SOL    HW258707  13.384  14.567   8.655
52292SOL     OW58708   3.557   9.732   3.650
52292SOL    HW158709   3.545   9.725   3.744
52292SOL    HW258710   3.508   9.810   3.625
52293SOL     OW58711   1.334   4.910   8.916
52293SOL    HW158712   1.430   4.901   8.917
52293SOL    HW258713   1.310   4.923   9.007
52294SOL     OW58714   4.047  11.963  10.445
52294SOL    HW158715   4.014  12.025  10.380
52294SOL    HW258716   4.094  12.018  10.508
52295SOL     OW58717   7.307   6.538   9.775
52295SOL    HW158718   7.391   6.529   9.731
52295SOL    HW258719   7.246   6.488   9.721
52296SOL     OW58720   7.510   1.295   4.484
52296SOL    HW158721   7.422   1.271   4.515
52296SOL    HW258722   7.564   1.295   4.563
52297SOL     OW58723   2.117  13.376  10.399
52297SOL    HW158724   2.206  13.404  10.380
52297SOL    HW258725   2.066  13.402  10.322
52298SOL     OW58726   2.646  13.879  12.237
52298SOL    HW158727   2.717  13.820  12.261
52298SOL    HW258728   2.574  13.821  12.211
52299SOL     OW58729   0.708   1.122   4.858
52299SOL    HW158730   0.745   1.059   4.797
52299SOL    HW258731   0.657   1.068   4.919
52300SOL     OW58732  14.634   3.440   4.377
52300SOL    HW158733  14.642   3.505   4.447
52300SOL    HW258734  14.603   3.361   4.421
52301SOL     OW58735   2.582   1.069  13.309
52301SOL    HW158736   2.652   1.134  13.306
52301SOL    HW258737   2.591   1.028  13.395
52302SOL     OW58738  11.285  11.433   7.320
52302SOL    HW158739  11.313  11.510   7.272
52302SOL    HW258740  11.240  11.379   7.255
52303SOL     OW58741   7.922  11.030   6.024
52303SOL    HW158742   7.959  11.012   5.937
52303SOL    HW258743   7.838  10.983   6.024
52304SOL     OW58744   2.532   1.176   1.163
52304SOL    HW158745   2.563   1.107   1.104
52304SOL    HW258746   2.507   1.248   1.105
52305SOL     OW58747   5.072  10.213   9.389
52305SOL    HW158748   5.045  10.286   9.335
52305SOL    HW258749   5.017  10.140   9.361
52306SOL     OW58750  11.584   3.405  12.276
52306SOL    HW158751  11.643   3.329  12.277
52306SOL    HW258752  11.638   3.478  12.247
52307SOL     OW58753   9.384  13.660   9.789
52307SOL    HW158754   9.288  13.662   9.785
52307SOL    HW258755   9.412  13.645   9.699
52308SOL     OW58756  14.107  13.813   7.915
52308SOL    HW158757  14.140  13.889   7.866
52308SOL    HW258758  14.020  13.838   7.944
52309SOL     OW58759   7.136  13.027   7.190
52309SOL    HW158760   7.208  12.972   7.221
52309SOL    HW258761   7.172  13.073   7.114
52310SOL     OW58762   4.613  13.520   8.370
52310SOL    HW158763   4.558  13.594   8.346
52310SOL    HW258764   4.564  13.443   8.342
52311SOL     OW58765   0.814  12.071   5.817
52311SOL    HW158766   0.790  12.157   5.852
52311SOL    HW258767   0.731  12.023   5.813
52312SOL     OW58768   5.831   7.185   0.515
52312SOL    HW158769   5.770   7.128   0.469
52312SOL    HW258770   5.784   7.212   0.594
52313SOL     OW58771   5.890   2.358  13.532
52313SOL    HW158772   5.850   2.277  13.499
52313SOL    HW258773   5.857   2.426  13.473
52314SOL     OW58774  12.946   4.942   0.360
52314SOL    HW158775  12.983   5.028   0.342
52314SOL    HW258776  12.854   4.950   0.337
52315SOL     OW58777   9.589  11.634  13.973
52315SOL    HW158778   9.574  11.607  13.883
52315SOL    HW258779   9.677  11.601  13.994
52316SOL     OW58780   4.520   1.762   1.846
52316SOL    HW158781   4.582   1.831   1.869
52316SOL    HW258782   4.472   1.745   1.927
52317SOL     OW58783  13.731  11.192  12.647
52317SOL    HW158784  13.811  11.225  12.605
52317SOL    HW258785  13.759  11.167  12.735
52318SOL     OW58786   3.750   5.973   0.977
52318SOL    HW158787   3.788   6.054   1.012
52318SOL    HW258788   3.782   5.905   1.036
52319SOL     OW58789  12.259   2.170  14.390
52319SOL    HW158790  12.199   2.165  14.464
52319SOL    HW258791  12.245   2.088  14.342
52320SOL     OW58792   8.961  11.504  11.508
52320SOL    HW158793   8.932  11.518  11.598
52320SOL    HW258794   8.892  11.452  11.468
52321SOL     OW58795   9.708   8.092   9.132
52321SOL    HW158796   9.710   8.174   9.182
52321SOL    HW258797   9.683   8.026   9.196
52322SOL     OW58798   1.737  13.959   9.430
52322SOL    HW158799   1.688  13.979   9.350
52322SOL    HW258800   1.803  14.028   9.436
52323SOL     OW58801  12.905   3.937   4.697
52323SOL    HW158802  12.963   4.013   4.687
52323SOL    HW258803  12.897   3.926   4.792
52324SOL     OW58804   6.764   9.965  13.585
52324SOL    HW158805   6.713  10.046  13.579
52324SOL    HW258806   6.704   9.897  13.554
52325SOL     OW58807  14.191   2.771  10.328
52325SOL    HW158808  14.284   2.788  10.318
52325SOL    HW258809  14.157   2.767  10.239
52326SOL     OW58810   9.704  13.453   3.177
52326SOL    HW158811   9.674  13.468   3.088
52326SOL    HW258812   9.763  13.377   3.170
52327SOL     OW58813  11.596  14.688   8.077
52327SOL    HW158814  11.665  14.745   8.112
52327SOL    HW258815  11.629  14.661   7.991
52328SOL     OW58816   1.127   1.374   4.057
52328SOL    HW158817   1.044   1.415   4.034
52328SOL    HW258818   1.110   1.330   4.140
52329SOL     OW58819   7.868   0.658   3.300
52329SOL    HW158820   7.818   0.598   3.356
52329SOL    HW258821   7.951   0.670   3.345
52330SOL     OW58822   5.491  11.390   3.253
52330SOL    HW158823   5.542  11.362   3.330
52330SOL    HW258824   5.419  11.327   3.249
52331SOL     OW58825   3.216   3.342   9.996
52331SOL    HW158826   3.246   3.369  10.083
52331SOL    HW258827   3.159   3.413   9.967
52332SOL     OW58828   8.714   5.654  10.515
52332SOL    HW158829   8.704   5.673  10.421
52332SOL    HW258830   8.728   5.560  10.519
52333SOL     OW58831   5.492   5.061  11.920
52333SOL    HW158832   5.399   5.084  11.925
52333SOL    HW258833   5.528   5.120  11.854
52334SOL     OW58834  11.321   5.815   0.217
52334SOL    HW158835  11.390   5.848   0.159
52334SOL    HW258836  11.253   5.881   0.212
52335SOL     OW58837   2.837  10.726  12.248
52335SOL    HW158838   2.917  10.717  12.195
52335SOL    HW258839   2.826  10.820  12.259
52336SOL     OW58840   0.566   6.749   5.523
52336SOL    HW158841   0.564   6.820   5.459
52336SOL    HW258842   0.624   6.780   5.592
52337SOL     OW58843   9.997  14.087   8.165
52337SOL    HW158844   9.929  14.138   8.121
52337SOL    HW258845  10.026  14.023   8.099
52338SOL     OW58846   7.140  12.424   5.021
52338SOL    HW158847   7.127  12.382   4.936
52338SOL    HW258848   7.135  12.518   5.002
52339SOL     OW58849   9.445   9.967   8.916
52339SOL    HW158850   9.524   9.920   8.943
52339SOL    HW258851   9.472  10.015   8.837
52340SOL     OW58852   7.006  13.074   9.358
52340SOL    HW158853   7.044  13.155   9.391
52340SOL    HW258854   7.080  13.028   9.317
52341SOL     OW58855   8.487  10.561  14.380
52341SOL    HW158856   8.471  10.619  14.455
52341SOL    HW258857   8.514  10.620  14.310
52342SOL     OW58858   5.467   4.218   6.435
52342SOL    HW158859   5.497   4.305   6.410
52342SOL    HW258860   5.378   4.232   6.469
52343SOL     OW58861   6.007   0.160   6.643
52343SOL    HW158862   6.099   0.180   6.631
52343SOL    HW258863   5.991   0.173   6.737
52344SOL     OW58864  10.759   0.884   5.711
52344SOL    HW158865  10.681   0.890   5.767
52344SOL    HW258866  10.723   0.875   5.623
52345SOL     OW58867   5.417  12.000   6.492
52345SOL    HW158868   5.507  12.031   6.499
52345SOL    HW258869   5.363  12.073   6.522
52346SOL     OW58870  13.841   4.104   6.367
52346SOL    HW158871  13.926   4.141   6.388
52346SOL    HW258872  13.791   4.111   6.449
52347SOL     OW58873  11.884   8.932   0.087
52347SOL    HW158874  11.936   8.982   0.024
52347SOL    HW258875  11.947   8.876   0.133
52348SOL     OW58876   4.259   4.661   8.440
52348SOL    HW158877   4.322   4.733   8.444
52348SOL    HW258878   4.242   4.649   8.347
52349SOL     OW58879   9.285   9.835   7.369
52349SOL    HW158880   9.338   9.913   7.381
52349SOL    HW258881   9.254   9.839   7.279
52350SOL     OW58882   3.759  10.886   6.451
52350SOL    HW158883   3.788  10.909   6.539
52350SOL    HW258884   3.664  10.874   6.459
52351SOL     OW58885   5.674   1.704  11.638
52351SOL    HW158886   5.648   1.795  11.653
52351SOL    HW258887   5.743   1.688  11.702
52352SOL     OW58888   4.731   0.921   2.052
52352SOL    HW158889   4.689   0.876   2.125
52352SOL    HW258890   4.823   0.926   2.077
52353SOL     OW58891  11.638   7.622   4.967
52353SOL    HW158892  11.565   7.680   4.947
52353SOL    HW258893  11.705   7.644   4.903
52354SOL     OW58894  14.816   1.944   0.240
52354SOL    HW158895  14.761   1.910   0.169
52354SOL    HW258896   0.008   1.875   0.255
52355SOL     OW58897   9.345   7.629   3.445
52355SOL    HW158898   9.340   7.724   3.447
52355SOL    HW258899   9.257   7.600   3.423
52356SOL     OW58900   3.982   5.759  12.358
52356SOL    HW158901   3.912   5.823  12.343
52356SOL    HW258902   4.062   5.812  12.360
52357SOL     OW58903   4.112   9.638  11.390
52357SOL    HW158904   4.034   9.657  11.441
52357SOL    HW258905   4.097   9.680  11.305
52358SOL     OW58906  14.590  12.196   3.862
52358SOL    HW158907  14.681  12.224   3.863
52358SOL    HW258908  14.548  12.250   3.795
52359SOL     OW58909   8.681   0.667   0.186
52359SOL    HW158910   8.638   0.697   0.106
52359SOL    HW258911   8.744   0.601   0.156
52360SOL     OW58912   0.293   9.803   3.542
52360SOL    HW158913   0.357   9.758   3.598
52360SOL    HW258914   0.337   9.884   3.516
52361SOL     OW58915  14.586  10.058   5.236
52361SOL    HW158916  14.555  10.143   5.204
52361SOL    HW258917  14.605  10.074   5.329
52362SOL     OW58918   4.849   0.520   9.799
52362SOL    HW158919   4.788   0.495   9.868
52362SOL    HW258920   4.816   0.475   9.721
52363SOL     OW58921   7.931   9.618  13.037
52363SOL    HW158922   7.962   9.540  13.083
52363SOL    HW258923   7.836   9.605  13.029
52364SOL     OW58924   7.739   6.332   2.555
52364SOL    HW158925   7.769   6.304   2.469
52364SOL    HW258926   7.807   6.303   2.615
52365SOL     OW58927  12.668  13.872   2.964
52365SOL    HW158928  12.723  13.908   3.033
52365SOL    HW258929  12.629  13.793   3.002
52366SOL     OW58930  10.397   6.864   8.834
52366SOL    HW158931  10.426   6.899   8.918
52366SOL    HW258932  10.377   6.942   8.782
52367SOL     OW58933   6.082  12.150   8.743
52367SOL    HW158934   6.055  12.063   8.774
52367SOL    HW258935   6.097  12.200   8.823
52368SOL     OW58936   4.208  10.420   0.117
52368SOL    HW158937   4.298  10.391   0.123
52368SOL    HW258938   4.185  10.413   0.024
52369SOL     OW58939  10.295   8.616  14.130
52369SOL    HW158940  10.322   8.661  14.050
52369SOL    HW258941  10.329   8.670  14.201
52370SOL     OW58942   7.040  11.097   7.994
52370SOL    HW158943   7.101  11.045   7.942
52370SOL    HW258944   7.093  11.168   8.030
52371SOL     OW58945   2.778   0.883   9.024
52371SOL    HW158946   2.809   0.850   9.108
52371SOL    HW258947   2.752   0.973   9.041
52372SOL     OW58948   0.600   7.508   2.416
52372SOL    HW158949   0.686   7.513   2.459
52372SOL    HW258950   0.542   7.475   2.484
52373SOL     OW58951   1.963  14.651  10.182
52373SOL    HW158952   1.952  14.557  10.195
52373SOL    HW258953   2.050  14.661  10.142
52374SOL     OW58954   0.343  14.780   9.973
52374SOL    HW158955   0.266  14.735   9.939
52374SOL    HW258956   0.376  14.830   9.899
52375SOL     OW58957   4.023  10.065  12.176
52375SOL    HW158958   3.966  10.005  12.224
52375SOL    HW258959   3.974  10.086  12.096
52376SOL     OW58960   2.862   5.436   0.874
52376SOL    HW158961   2.894   5.481   0.795
52376SOL    HW258962   2.878   5.344   0.857
52377SOL     OW58963   6.453  13.091   7.319
52377SOL    HW158964   6.384  13.156   7.306
52377SOL    HW258965   6.479  13.065   7.231
52378SOL     OW58966   0.937   3.872  12.158
52378SOL    HW158967   0.954   3.815  12.233
52378SOL    HW258968   0.847   3.852  12.133
52379SOL     OW58969   1.129   5.621  13.181
52379SOL    HW158970   1.181   5.701  13.182
52379SOL    HW258971   1.188   5.554  13.148
52380SOL     OW58972   4.784  14.128   3.558
52380SOL    HW158973   4.700  14.170   3.579
52380SOL    HW258974   4.829  14.191   3.502
52381SOL     OW58975  12.245  10.890   3.450
52381SOL    HW158976  12.250  10.879   3.355
52381SOL    HW258977  12.151  10.896   3.468
52382SOL     OW58978  11.025  14.755   0.159
52382SOL    HW158979  10.996  14.680   0.108
52382SOL    HW258980  11.101  14.789   0.111
52383SOL     OW58981  14.062   5.144   1.963
52383SOL    HW158982  14.062   5.212   1.895
52383SOL    HW258983  14.155   5.125   1.978
52384SOL     OW58984   9.818   4.047  13.460
52384SOL    HW158985   9.779   4.079  13.542
52384SOL    HW258986   9.865   4.122  13.425
52385SOL     OW58987   7.080  12.059   9.337
52385SOL    HW158988   7.144  12.110   9.288
52385SOL    HW258989   7.024  12.020   9.270
52386SOL     OW58990   1.822  11.830   1.265
52386SOL    HW158991   1.908  11.871   1.260
52386SOL    HW258992   1.837  11.749   1.314
52387SOL     OW58993   3.802  11.951   1.021
52387SOL    HW158994   3.883  11.921   0.980
52387SOL    HW258995   3.733  11.918   0.964
52388SOL     OW58996   1.244   9.119   7.381
52388SOL    HW158997   1.271   9.168   7.303
52388SOL    HW258998   1.326   9.088   7.419
52389SOL     OW58999   9.564   0.722   3.778
52389SOL    HW159000   9.511   0.645   3.758
52389SOL    HW259001   9.643   0.687   3.818
52390SOL     OW59002  10.610   0.396   9.573
52390SOL    HW159003  10.565   0.324   9.528
52390SOL    HW259004  10.543   0.463   9.585
52391SOL     OW59005   1.065   8.282  13.535
52391SOL    HW159006   1.068   8.376  13.520
52391SOL    HW259007   0.984   8.254  13.493
52392SOL     OW59008  12.422   0.582   5.897
52392SOL    HW159009  12.366   0.555   5.825
52392SOL    HW259010  12.362   0.626   5.958
52393SOL     OW59011   5.199   4.377   5.776
52393SOL    HW159012   5.121   4.365   5.721
52393SOL    HW259013   5.234   4.462   5.750
52394SOL     OW59014   3.937   9.581  10.987
52394SOL    HW159015   4.008   9.525  11.019
52394SOL    HW259016   3.961   9.602  10.897
52395SOL     OW59017   8.402  10.303   5.425
52395SOL    HW159018   8.418  10.224   5.477
52395SOL    HW259019   8.357  10.271   5.347
52396SOL     OW59020  13.528   6.075   0.173
52396SOL    HW159021  13.444   6.030   0.164
52396SOL    HW259022  13.509   6.167   0.154
52397SOL     OW59023  14.094  13.753   2.007
52397SOL    HW159024  14.042  13.674   2.022
52397SOL    HW259025  14.105  13.791   2.094
52398SOL     OW59026   0.249  11.146   2.021
52398SOL    HW159027   0.254  11.132   1.927
52398SOL    HW259028   0.338  11.131   2.053
52399SOL     OW59029  12.344   7.609   7.078
52399SOL    HW159030  12.385   7.551   7.143
52399SOL    HW259031  12.252   7.583   7.077
52400SOL     OW59032  13.207   6.531  12.769
52400SOL    HW159033  13.216   6.491  12.855
52400SOL    HW259034  13.222   6.460  12.707
52401SOL     OW59035   2.452   1.594  14.570
52401SOL    HW159036   2.499   1.511  14.580
52401SOL    HW259037   2.360   1.572  14.582
52402SOL     OW59038  10.401   9.988   8.560
52402SOL    HW159039  10.497   9.988   8.567
52402SOL    HW259040  10.373  10.062   8.613
52403SOL     OW59041  11.058   2.588   4.953
52403SOL    HW159042  11.045   2.505   4.908
52403SOL    HW259043  10.983   2.642   4.927
52404SOL     OW59044   8.576  12.797   7.268
52404SOL    HW159045   8.492  12.756   7.247
52404SOL    HW259046   8.565  12.828   7.358
52405SOL     OW59047   7.076   1.683  12.531
52405SOL    HW159048   7.010   1.614  12.535
52405SOL    HW259049   7.044   1.743  12.463
52406SOL     OW59050  14.403   2.690  12.286
52406SOL    HW159051  14.404   2.775  12.329
52406SOL    HW259052  14.312   2.661  12.291
52407SOL     OW59053   3.695  12.252  13.610
52407SOL    HW159054   3.727  12.307  13.538
52407SOL    HW259055   3.757  12.266  13.681
52408SOL     OW59056   3.225  10.232  12.236
52408SOL    HW159057   3.314  10.197  12.230
52408SOL    HW259058   3.188  10.217  12.149
52409SOL     OW59059  10.069   4.689   6.095
52409SOL    HW159060  10.021   4.609   6.070
52409SOL    HW259061  10.100   4.672   6.184
52410SOL     OW59062  11.549   0.916  13.123
52410SOL    HW159063  11.574   1.003  13.154
52410SOL    HW259064  11.470   0.894  13.172
52411SOL     OW59065  12.562   4.214   7.337
52411SOL    HW159066  12.543   4.160   7.260
52411SOL    HW259067  12.477   4.231   7.376
52412SOL     OW59068   6.505   5.886   5.802
52412SOL    HW159069   6.508   5.879   5.707
52412SOL    HW259070   6.424   5.934   5.820
52413SOL     OW59071   2.951   2.021   3.936
52413SOL    HW159072   2.902   1.965   3.875
52413SOL    HW259073   2.982   2.094   3.882
52414SOL     OW59074  11.436  11.171   2.396
52414SOL    HW159075  11.341  11.159   2.399
52414SOL    HW259076  11.463  11.183   2.487
52415SOL     OW59077  13.934   7.904   7.299
52415SOL    HW159078  13.949   7.942   7.212
52415SOL    HW259079  14.010   7.847   7.313
52416SOL     OW59080   2.863   5.680   3.641
52416SOL    HW159081   2.903   5.624   3.707
52416SOL    HW259082   2.771   5.685   3.666
52417SOL     OW59083  12.117  12.994   6.302
52417SOL    HW159084  12.206  13.013   6.333
52417SOL    HW259085  12.061  13.052   6.353
52418SOL     OW59086   9.349   7.667   5.160
52418SOL    HW159087   9.383   7.749   5.125
52418SOL    HW259088   9.256   7.669   5.138
52419SOL     OW59089  13.047  12.193   2.587
52419SOL    HW159090  13.004  12.185   2.672
52419SOL    HW259091  13.017  12.277   2.553
52420SOL     OW59092   0.156  12.450  10.102
52420SOL    HW159093   0.083  12.453  10.165
52420SOL    HW259094   0.148  12.364  10.061
52421SOL     OW59095  14.804   1.615   8.671
52421SOL    HW159096  14.709   1.627   8.670
52421SOL    HW259097  14.830   1.625   8.579
52422SOL     OW59098   9.431   5.433   7.077
52422SOL    HW159099   9.368   5.395   7.015
52422SOL    HW259100   9.458   5.515   7.035
52423SOL     OW59101   7.120   9.683  13.376
52423SOL    HW159102   7.172   9.722  13.307
52423SOL    HW259103   7.040   9.735  13.379
52424SOL     OW59104   4.741   7.977  10.227
52424SOL    HW159105   4.808   7.929  10.179
52424SOL    HW259106   4.671   7.990  10.162
52425SOL     OW59107   7.107  13.050  13.596
52425SOL    HW159108   7.120  12.978  13.658
52425SOL    HW259109   7.061  13.011  13.522
52426SOL     OW59110  12.028   9.064   8.024
52426SOL    HW159111  12.110   9.100   7.989
52426SOL    HW259112  12.003   9.125   8.094
52427SOL     OW59113   8.580   5.427   0.675
52427SOL    HW159114   8.551   5.504   0.725
52427SOL    HW259115   8.501   5.376   0.662
52428SOL     OW59116   2.696   3.071  10.185
52428SOL    HW159117   2.781   3.032  10.166
52428SOL    HW259118   2.703   3.161  10.153
52429SOL     OW59119   4.696  13.195  10.176
52429SOL    HW159120   4.639  13.119  10.165
52429SOL    HW259121   4.784  13.158  10.187
52430SOL     OW59122  11.250   4.583  12.533
52430SOL    HW159123  11.161   4.596  12.502
52430SOL    HW259124  11.246   4.501  12.583
52431SOL     OW59125  12.664   9.950  14.023
52431SOL    HW159126  12.624   9.866  14.045
52431SOL    HW259127  12.607   9.988  13.956
52432SOL     OW59128   4.272  12.429   0.110
52432SOL    HW159129   4.179  12.442   0.088
52432SOL    HW259130   4.310  12.394   0.029
52433SOL     OW59131   0.299  10.449  13.719
52433SOL    HW159132   0.253  10.375  13.757
52433SOL    HW259133   0.327  10.502  13.794
52434SOL     OW59134   6.500   0.276  10.014
52434SOL    HW159135   6.548   0.217  10.073
52434SOL    HW259136   6.454   0.217   9.954
52435SOL     OW59137  10.932  12.201  11.968
52435SOL    HW159138  10.996  12.136  11.997
52435SOL    HW259139  10.853  12.150  11.948
52436SOL     OW59140   7.428  10.735   6.498
52436SOL    HW159141   7.507  10.763   6.452
52436SOL    HW259142   7.360  10.735   6.430
52437SOL     OW59143   9.875   5.175  11.545
52437SOL    HW159144   9.910   5.134  11.624
52437SOL    HW259145   9.931   5.143  11.474
52438SOL     OW59146  12.939  13.989   9.611
52438SOL    HW159147  12.994  13.911   9.622
52438SOL    HW259148  12.993  14.061   9.642
52439SOL     OW59149   2.863  12.249   7.955
52439SOL    HW159150   2.813  12.238   7.874
52439SOL    HW259151   2.939  12.301   7.929
52440SOL     OW59152  10.410   5.367   9.104
52440SOL    HW159153  10.489   5.312   9.110
52440SOL    HW259154  10.392   5.372   9.011
52441SOL     OW59155  12.594   8.191   6.991
52441SOL    HW159156  12.645   8.178   6.911
52441SOL    HW259157  12.629   8.128   7.053
52442SOL     OW59158   2.919   0.132  14.503
52442SOL    HW159159   2.890   0.048  14.469
52442SOL    HW259160   2.843   0.189  14.494
52443SOL     OW59161   4.342  10.013   5.152
52443SOL    HW159162   4.319  10.014   5.059
52443SOL    HW259163   4.418   9.955   5.156
52444SOL     OW59164   5.258   7.431   7.080
52444SOL    HW159165   5.265   7.508   7.024
52444SOL    HW259166   5.164   7.418   7.091
52445SOL     OW59167   2.866  13.292   9.546
52445SOL    HW159168   2.797  13.294   9.613
52445SOL    HW259169   2.892  13.200   9.542
52446SOL     OW59170  10.889  13.772  10.139
52446SOL    HW159171  10.856  13.804  10.223
52446SOL    HW259172  10.910  13.851  10.090
52447SOL     OW59173   4.408   7.721   6.484
52447SOL    HW159174   4.441   7.631   6.489
52447SOL    HW259175   4.313   7.712   6.485
52448SOL     OW59176   0.274   1.843   7.611
52448SOL    HW159177   0.242   1.778   7.673
52448SOL    HW259178   0.207   1.846   7.542
52449SOL     OW59179   3.191   4.303  13.795
52449SOL    HW159180   3.136   4.276  13.721
52449SOL    HW259181   3.188   4.399  13.793
52450SOL     OW59182  11.784   9.278   6.009
52450SOL    HW159183  11.816   9.306   5.923
52450SOL    HW259184  11.847   9.212   6.038
52451SOL     OW59185   8.805  11.272  11.797
52451SOL    HW159186   8.807  11.357  11.752
52451SOL    HW259187   8.895  11.255  11.821
52452SOL     OW59188   1.231  12.260  14.209
52452SOL    HW159189   1.247  12.284  14.300
52452SOL    HW259190   1.318  12.260  14.169
52453SOL     OW59191   9.549  10.656  12.522
52453SOL    HW159192   9.515  10.636  12.435
52453SOL    HW259193   9.636  10.617  12.523
52454SOL     OW59194   6.018   7.344  13.784
52454SOL    HW159195   6.062   7.280  13.730
52454SOL    HW259196   6.052   7.429  13.754
52455SOL     OW59197  10.953  11.314  14.718
52455SOL    HW159198  10.887  11.354  14.662
52455SOL    HW259199  11.028  11.374  14.712
52456SOL     OW59200   9.592  13.746  11.129
52456SOL    HW159201   9.656  13.706  11.188
52456SOL    HW259202   9.624  13.725  11.041
52457SOL     OW59203   3.189  12.094  12.267
52457SOL    HW159204   3.200  12.181  12.306
52457SOL    HW259205   3.229  12.100  12.181
52458SOL     OW59206  10.072   3.642   0.724
52458SOL    HW159207  10.025   3.567   0.759
52458SOL    HW259208  10.104   3.612   0.639
52459SOL     OW59209  12.869   1.391   6.907
52459SOL    HW159210  12.921   1.313   6.923
52459SOL    HW259211  12.783   1.371   6.945
52460SOL     OW59212   7.315  10.533  10.001
52460SOL    HW159213   7.374  10.596  10.041
52460SOL    HW259214   7.232  10.580   9.992
52461SOL     OW59215  11.086   8.628   0.812
52461SOL    HW159216  11.165   8.620   0.759
52461SOL    HW259217  11.025   8.565   0.775
52462SOL     OW59218   8.918   9.281  12.695
52462SOL    HW159219   8.930   9.210  12.632
52462SOL    HW259220   8.843   9.331  12.663
52463SOL     OW59221  13.133   6.351   8.093
52463SOL    HW159222  13.184   6.410   8.036
52463SOL    HW259223  13.127   6.269   8.044
52464SOL     OW59224   7.277  11.248   7.202
52464SOL    HW159225   7.229  11.311   7.148
52464SOL    HW259226   7.369  11.261   7.179
52465SOL     OW59227  14.640   2.700   5.256
52465SOL    HW159228  14.632   2.735   5.345
52465SOL    HW259229  14.689   2.767   5.208
52466SOL     OW59230  10.367  12.248   7.326
52466SOL    HW159231  10.449  12.202   7.344
52466SOL    HW259232  10.345  12.223   7.236
52467SOL     OW59233   2.317  14.872   8.392
52467SOL    HW159234   2.285   0.025   8.478
52467SOL    HW259235   2.252  14.811   8.358
52468SOL     OW59236   4.981  11.079   0.609
52468SOL    HW159237   4.903  11.023   0.602
52468SOL    HW259238   5.054  11.020   0.588
52469SOL     OW59239   5.363  13.494   7.021
52469SOL    HW159240   5.444  13.450   7.049
52469SOL    HW259241   5.356  13.570   7.079
52470SOL     OW59242  11.188  11.404  11.398
52470SOL    HW159243  11.189  11.397  11.493
52470SOL    HW259244  11.196  11.314  11.367
52471SOL     OW59245   4.680   1.236  14.146
52471SOL    HW159246   4.645   1.147  14.154
52471SOL    HW259247   4.769   1.223  14.113
52472SOL     OW59248   2.167   8.390   4.046
52472SOL    HW159249   2.222   8.460   4.011
52472SOL    HW259250   2.210   8.309   4.019
52473SOL     OW59251   6.394   5.553  14.233
52473SOL    HW159252   6.374   5.496  14.307
52473SOL    HW259253   6.467   5.509  14.188
52474SOL     OW59254   3.814   4.837  10.452
52474SOL    HW159255   3.820   4.754  10.500
52474SOL    HW259256   3.751   4.820  10.382
52475SOL     OW59257   9.564   0.275   1.603
52475SOL    HW159258   9.555   0.365   1.635
52475SOL    HW259259   9.482   0.233   1.624
52476SOL     OW59260   4.529   9.813   5.152
52476SOL    HW159261   4.452   9.786   5.203
52476SOL    HW259262   4.574   9.731   5.132
52477SOL     OW59263   0.191  13.482   1.098
52477SOL    HW159264   0.282  13.501   1.123
52477SOL    HW259265   0.192  13.392   1.066
52478SOL     OW59266   2.201  13.914   9.214
52478SOL    HW159267   2.239  13.836   9.256
52478SOL    HW259268   2.107  13.900   9.217
52479SOL     OW59269  10.646   2.948   7.529
52479SOL    HW159270  10.663   2.866   7.484
52479SOL    HW259271  10.552   2.948   7.545
52480SOL     OW59272  14.084   5.632  10.958
52480SOL    HW159273  14.024   5.598  10.891
52480SOL    HW259274  14.076   5.727  10.952
52481SOL     OW59275  13.023   2.485   0.331
52481SOL    HW159276  13.038   2.578   0.317
52481SOL    HW259277  13.031   2.472   0.425
52482SOL     OW59278   7.269  13.863  11.495
52482SOL    HW159279   7.227  13.790  11.540
52482SOL    HW259280   7.217  13.874  11.414
52483SOL     OW59281   9.114   6.177  12.141
52483SOL    HW159282   9.045   6.146  12.199
52483SOL    HW259283   9.076   6.253  12.096
52484SOL     OW59284   6.342   6.033  14.110
52484SOL    HW159285   6.383   6.020  14.025
52484SOL    HW259286   6.342   5.946  14.150
52485SOL     OW59287   5.227  12.965   4.299
52485SOL    HW159288   5.174  12.933   4.371
52485SOL    HW259289   5.310  12.919   4.308
52486SOL     OW59290   6.287   3.035   6.998
52486SOL    HW159291   6.271   2.940   6.991
52486SOL    HW259292   6.359   3.051   6.938
52487SOL     OW59293   4.625   1.587   9.393
52487SOL    HW159294   4.693   1.654   9.394
52487SOL    HW259295   4.673   1.505   9.405
52488SOL     OW59296   2.992   1.547   4.448
52488SOL    HW159297   2.963   1.523   4.360
52488SOL    HW259298   2.941   1.625   4.469
52489SOL     OW59299  12.306   9.955   4.023
52489SOL    HW159300  12.382   9.916   3.981
52489SOL    HW259301  12.264   9.883   4.069
52490SOL     OW59302  14.470   7.216   3.440
52490SOL    HW159303  14.545   7.276   3.446
52490SOL    HW259304  14.507   7.130   3.462
52491SOL     OW59305   2.669   7.647   0.934
52491SOL    HW159306   2.658   7.742   0.927
52491SOL    HW259307   2.582   7.615   0.956
52492SOL     OW59308  12.773   5.681   8.622
52492SOL    HW159309  12.724   5.713   8.697
52492SOL    HW259310  12.833   5.616   8.658
52493SOL     OW59311   4.382  11.859  13.602
52493SOL    HW159312   4.339  11.819  13.678
52493SOL    HW259313   4.460  11.900  13.638
52494SOL     OW59314   9.248   0.807   1.570
52494SOL    HW159315   9.288   0.893   1.583
52494SOL    HW259316   9.227   0.777   1.659
52495SOL     OW59317   9.310   0.159   5.630
52495SOL    HW159318   9.400   0.155   5.661
52495SOL    HW259319   9.270   0.078   5.660
52496SOL     OW59320   6.613  13.595   3.185
52496SOL    HW159321   6.624  13.611   3.279
52496SOL    HW259322   6.622  13.682   3.145
52497SOL     OW59323  11.905  12.959   4.310
52497SOL    HW159324  11.927  12.936   4.220
52497SOL    HW259325  11.903  12.876   4.357
52498SOL     OW59326   2.410   2.083   2.454
52498SOL    HW159327   2.422   2.017   2.385
52498SOL    HW259328   2.367   2.036   2.525
52499SOL     OW59329   0.160  10.912  12.566
52499SOL    HW159330   0.074  10.950  12.551
52499SOL    HW259331   0.194  10.893  12.479
52500SOL     OW59332   7.272  14.039   7.954
52500SOL    HW159333   7.275  14.017   7.860
52500SOL    HW259334   7.361  14.070   7.973
52501SOL     OW59335   7.420   6.219  11.303
52501SOL    HW159336   7.334   6.219  11.345
52501SOL    HW259337   7.478   6.180  11.368
52502SOL     OW59338  11.255   1.139   7.578
52502SOL    HW159339  11.341   1.179   7.569
52502SOL    HW259340  11.196   1.212   7.595
52503SOL     OW59341  13.218   9.909  12.975
52503SOL    HW159342  13.137   9.858  12.971
52503SOL    HW259343  13.191   9.994  13.009
52504SOL     OW59344   4.343  10.685   5.591
52504SOL    HW159345   4.374  10.680   5.681
52504SOL    HW259346   4.267  10.627   5.588
52505SOL     OW59347   6.115  10.834   8.671
52505SOL    HW159348   6.070  10.757   8.636
52505SOL    HW259349   6.174  10.799   8.737
52506SOL     OW59350  12.845  11.684   2.562
52506SOL    HW159351  12.811  11.733   2.637
52506SOL    HW259352  12.932  11.655   2.590
52507SOL     OW59353  10.195   8.594   1.322
52507SOL    HW159354  10.205   8.501   1.302
52507SOL    HW259355  10.109   8.601   1.363
52508SOL     OW59356  13.536   1.032   7.360
52508SOL    HW159357  13.497   1.099   7.303
52508SOL    HW259358  13.533   1.071   7.447
52509SOL     OW59359  13.470  10.593  12.651
52509SOL    HW159360  13.429  10.608  12.736
52509SOL    HW259361  13.528  10.668  12.639
52510SOL     OW59362   2.858   8.946  13.616
52510SOL    HW159363   2.862   8.855  13.586
52510SOL    HW259364   2.766   8.970  13.607
52511SOL     OW59365   2.731   9.475   4.909
52511SOL    HW159366   2.664   9.407   4.899
52511SOL    HW259367   2.813   9.430   4.888
52512SOL     OW59368   5.336   1.570   0.705
52512SOL    HW159369   5.353   1.592   0.797
52512SOL    HW259370   5.288   1.646   0.671
52513SOL     OW59371   5.427  12.242   5.652
52513SOL    HW159372   5.468  12.318   5.611
52513SOL    HW259373   5.335  12.265   5.660
52514SOL     OW59374   7.442   8.593  14.408
52514SOL    HW159375   7.468   8.509  14.446
52514SOL    HW259376   7.403   8.570  14.324
52515SOL     OW59377   7.792   0.287   2.505
52515SOL    HW159378   7.721   0.350   2.511
52515SOL    HW259379   7.782   0.232   2.583
52516SOL     OW59380   9.028   8.517   3.171
52516SOL    HW159381   9.069   8.513   3.085
52516SOL    HW259382   9.096   8.489   3.232
52517SOL     OW59383   3.518  10.303  14.734
52517SOL    HW159384   3.553  10.217  14.711
52517SOL    HW259385   3.477  10.335  14.654
52518SOL     OW59386   5.630   1.038   4.140
52518SOL    HW159387   5.673   0.975   4.082
52518SOL    HW259388   5.536   1.024   4.125
52519SOL     OW59389  11.341  10.032   4.720
52519SOL    HW159390  11.285   9.989   4.656
52519SOL    HW259391  11.388   9.960   4.763
52520SOL     OW59392  11.466   5.138   5.931
52520SOL    HW159393  11.548   5.103   5.964
52520SOL    HW259394  11.398   5.082   5.968
52521SOL     OW59395  12.221  11.713   5.336
52521SOL    HW159396  12.223  11.645   5.269
52521SOL    HW259397  12.129  11.737   5.345
52522SOL     OW59398   0.849   0.993  11.932
52522SOL    HW159399   0.863   1.032  11.845
52522SOL    HW259400   0.758   0.963  11.931
52523SOL     OW59401   8.200   3.333  13.615
52523SOL    HW159402   8.219   3.247  13.578
52523SOL    HW259403   8.232   3.329  13.705
52524SOL     OW59404  12.316   2.604   2.893
52524SOL    HW159405  12.386   2.621   2.956
52524SOL    HW259406  12.319   2.510   2.878
52525SOL     OW59407  13.707   0.144  10.924
52525SOL    HW159408  13.619   0.180  10.931
52525SOL    HW259409  13.719   0.128  10.830
52526SOL     OW59410   1.538   4.677   9.075
52526SOL    HW159411   1.444   4.659   9.072
52526SOL    HW259412   1.573   4.633   8.997
52527SOL     OW59413   6.079   9.404   3.315
52527SOL    HW159414   6.044   9.349   3.245
52527SOL    HW259415   6.171   9.380   3.321
52528SOL     OW59416  12.825   1.030   0.229
52528SOL    HW159417  12.914   1.038   0.196
52528SOL    HW259418  12.835   1.001   0.320
52529SOL     OW59419   2.688  13.722   8.458
52529SOL    HW159420   2.609  13.765   8.424
52529SOL    HW259421   2.730  13.686   8.380
52530SOL     OW59422  11.144   1.752   2.772
52530SOL    HW159423  11.185   1.810   2.836
52530SOL    HW259424  11.095   1.688   2.824
52531SOL     OW59425   6.772  11.017   7.603
52531SOL    HW159426   6.766  11.111   7.621
52531SOL    HW259427   6.692  10.997   7.553
52532SOL     OW59428  14.265   5.975  11.507
52532SOL    HW159429  14.184   6.021  11.486
52532SOL    HW259430  14.334   6.030  11.471
52533SOL     OW59431   1.024   0.234  11.089
52533SOL    HW159432   1.048   0.246  10.997
52533SOL    HW259433   0.966   0.158  11.089
52534SOL     OW59434  11.596  13.400   7.646
52534SOL    HW159435  11.594  13.455   7.724
52534SOL    HW259436  11.666  13.337   7.663
52535SOL     OW59437   6.475   3.199  14.120
52535SOL    HW159438   6.456   3.105  14.125
52535SOL    HW259439   6.412   3.233  14.056
52536SOL     OW59440  12.014  10.597  12.552
52536SOL    HW159441  11.930  10.577  12.511
52536SOL    HW259442  12.079  10.568  12.488
52537SOL     OW59443   5.457   1.967  13.076
52537SOL    HW159444   5.487   2.040  13.023
52537SOL    HW259445   5.527   1.953  13.140
52538SOL     OW59446   5.523  10.813   0.235
52538SOL    HW159447   5.467  10.833   0.310
52538SOL    HW259448   5.500  10.878   0.169
52539SOL     OW59449   9.941   4.276   3.979
52539SOL    HW159450   9.959   4.350   4.036
52539SOL    HW259451  10.012   4.278   3.914
52540SOL     OW59452   2.340   4.602   8.033
52540SOL    HW159453   2.296   4.647   7.961
52540SOL    HW259454   2.291   4.629   8.111
52541SOL     OW59455   8.354   9.874  14.353
52541SOL    HW159456   8.274   9.824  14.331
52541SOL    HW259457   8.330   9.965  14.337
52542SOL     OW59458  13.096   0.446   6.699
52542SOL    HW159459  13.026   0.422   6.639
52542SOL    HW259460  13.082   0.390   6.776
52543SOL     OW59461   7.169   5.108   8.168
52543SOL    HW159462   7.194   5.134   8.080
52543SOL    HW259463   7.248   5.069   8.205
52544SOL     OW59464  11.898   8.464   5.206
52544SOL    HW159465  11.837   8.391   5.213
52544SOL    HW259466  11.983   8.428   5.231
52545SOL     OW59467   9.794   0.066   4.013
52545SOL    HW159468   9.726   0.000   3.998
52545SOL    HW259469   9.747   0.149   4.016
52546SOL     OW59470   8.329   5.619   7.285
52546SOL    HW159471   8.296   5.705   7.313
52546SOL    HW259472   8.417   5.614   7.323
52547SOL     OW59473   4.280   8.892   2.587
52547SOL    HW159474   4.274   8.812   2.536
52547SOL    HW259475   4.365   8.929   2.565
52548SOL     OW59476  13.439   1.841   4.488
52548SOL    HW159477  13.471   1.930   4.470
52548SOL    HW259478  13.510   1.799   4.536
52549SOL     OW59479   0.384   6.461  14.510
52549SOL    HW159480   0.427   6.502  14.585
52549SOL    HW259481   0.305   6.513  14.496
52550SOL     OW59482  12.263   9.660  12.002
52550SOL    HW159483  12.230   9.578  11.967
52550SOL    HW259484  12.228   9.663  12.092
52551SOL     OW59485   3.410  14.770   7.796
52551SOL    HW159486   3.391  14.798   7.706
52551SOL    HW259487   3.497  14.805   7.814
52552SOL     OW59488   2.439   1.703  13.311
52552SOL    HW159489   2.449   1.612  13.286
52552SOL    HW259490   2.441   1.752  13.228
52553SOL     OW59491  12.178   5.941   6.421
52553SOL    HW159492  12.255   5.979   6.380
52553SOL    HW259493  12.132   6.015   6.460
52554SOL     OW59494   1.129   9.297   0.829
52554SOL    HW159495   1.185   9.219   0.828
52554SOL    HW259496   1.149   9.340   0.912
52555SOL     OW59497   2.121  10.824   8.332
52555SOL    HW159498   2.195  10.773   8.296
52555SOL    HW259499   2.081  10.865   8.255
52556SOL     OW59500   3.947   3.128  13.139
52556SOL    HW159501   3.864   3.144  13.184
52556SOL    HW259502   3.949   3.193  13.069
52557SOL     OW59503   1.054  11.830  12.120
52557SOL    HW159504   0.965  11.815  12.149
52557SOL    HW259505   1.080  11.749  12.076
52558SOL     OW59506  13.277   7.137   3.195
52558SOL    HW159507  13.225   7.214   3.219
52558SOL    HW259508  13.239   7.108   3.112
52559SOL     OW59509  11.976   6.378  10.318
52559SOL    HW159510  12.021   6.423  10.390
52559SOL    HW259511  11.942   6.449  10.263
52560SOL     OW59512   8.963  10.767   0.811
52560SOL    HW159513   8.895  10.817   0.766
52560SOL    HW259514   9.040  10.775   0.756
52561SOL     OW59515  10.283   4.697   9.044
52561SOL    HW159516  10.245   4.631   9.101
52561SOL    HW259517  10.366   4.660   9.015
52562SOL     OW59518   2.546  10.985  11.360
52562SOL    HW159519   2.600  10.914  11.326
52562SOL    HW259520   2.609  11.051  11.389
52563SOL     OW59521   3.590  11.666   2.494
52563SOL    HW159522   3.536  11.732   2.451
52563SOL    HW259523   3.680  11.689   2.471
52564SOL     OW59524   1.839   3.007   1.415
52564SOL    HW159525   1.899   3.002   1.489
52564SOL    HW259526   1.761   3.051   1.450
52565SOL     OW59527   6.765   3.698  13.855
52565SOL    HW159528   6.707   3.732  13.923
52565SOL    HW259529   6.830   3.768  13.842
52566SOL     OW59530   0.367   9.468  12.281
52566SOL    HW159531   0.424   9.485  12.206
52566SOL    HW259532   0.422   9.485  12.358
52567SOL     OW59533  14.419   0.757   5.689
52567SOL    HW159534  14.397   0.716   5.606
52567SOL    HW259535  14.420   0.685   5.752
52568SOL     OW59536   8.492   6.761   2.657
52568SOL    HW159537   8.435   6.731   2.587
52568SOL    HW259538   8.539   6.682   2.685
52569SOL     OW59539   4.972   1.425   5.460
52569SOL    HW159540   5.003   1.348   5.412
52569SOL    HW259541   4.877   1.422   5.453
52570SOL     OW59542   0.309   0.978  12.425
52570SOL    HW159543   0.398   0.943  12.416
52570SOL    HW259544   0.252   0.901  12.418
52571SOL     OW59545  14.729  12.359   8.739
52571SOL    HW159546  14.711  12.398   8.654
52571SOL    HW259547  14.659  12.393   8.796
52572SOL     OW59548  12.510  12.203  10.225
52572SOL    HW159549  12.575  12.189  10.157
52572SOL    HW259550  12.502  12.119  10.270
52573SOL     OW59551   6.822   9.653   5.634
52573SOL    HW159552   6.727   9.658   5.643
52573SOL    HW259553   6.853   9.739   5.663
52574SOL     OW59554  10.654  12.913  13.835
52574SOL    HW159555  10.696  12.917  13.921
52574SOL    HW259556  10.613  12.998  13.824
52575SOL     OW59557  14.238   6.127   0.392
52575SOL    HW159558  14.221   6.115   0.485
52575SOL    HW259559  14.152   6.126   0.351
52576SOL     OW59560  11.979   6.370   1.591
52576SOL    HW159561  11.897   6.413   1.612
52576SOL    HW259562  11.970   6.343   1.500
52577SOL     OW59563   2.446   3.564   8.834
52577SOL    HW159564   2.401   3.536   8.913
52577SOL    HW259565   2.539   3.566   8.858
52578SOL     OW59566   4.792  14.833   1.423
52578SOL    HW159567   4.722  14.768   1.417
52578SOL    HW259568   4.748   0.042   1.445
52579SOL     OW59569   8.264   0.491   0.486
52579SOL    HW159570   8.230   0.578   0.466
52579SOL    HW259571   8.274   0.449   0.400
52580SOL     OW59572   5.744   1.969   7.280
52580SOL    HW159573   5.659   1.960   7.322
52580SOL    HW259574   5.739   1.912   7.203
52581SOL     OW59575   6.275   1.593   9.118
52581SOL    HW159576   6.286   1.527   9.050
52581SOL    HW259577   6.188   1.631   9.101
52582SOL     OW59578  13.209   3.872   7.567
52582SOL    HW159579  13.231   3.873   7.474
52582SOL    HW259580  13.284   3.831   7.609
52583SOL     OW59581   8.283  13.159  10.724
52583SOL    HW159582   8.363  13.114  10.749
52583SOL    HW259583   8.288  13.244  10.767
52584SOL     OW59584  10.401   3.628   8.641
52584SOL    HW159585  10.351   3.566   8.694
52584SOL    HW259586  10.343   3.704   8.632
52585SOL     OW59587   6.843  13.758  10.488
52585SOL    HW159588   6.939  13.751  10.493
52585SOL    HW259589   6.816  13.679  10.441
52586SOL     OW59590  12.928   8.774   2.751
52586SOL    HW159591  13.002   8.815   2.797
52586SOL    HW259592  12.862   8.843   2.747
52587SOL     OW59593   6.430   9.662   5.306
52587SOL    HW159594   6.406   9.612   5.384
52587SOL    HW259595   6.380   9.620   5.235
52588SOL     OW59596  11.843   4.610   7.593
52588SOL    HW159597  11.878   4.679   7.650
52588SOL    HW259598  11.774   4.569   7.644
52589SOL     OW59599   3.471   5.529   3.085
52589SOL    HW159600   3.534   5.525   3.157
52589SOL    HW259601   3.421   5.609   3.101
52590SOL     OW59602   9.091   8.743  11.173
52590SOL    HW159603   9.098   8.830  11.212
52590SOL    HW259604   8.998   8.721  11.180
52591SOL     OW59605   2.208  13.466  13.656
52591SOL    HW159606   2.129  13.455  13.604
52591SOL    HW259607   2.207  13.392  13.717
52592SOL     OW59608  13.441   9.606   7.034
52592SOL    HW159609  13.518   9.551   7.019
52592SOL    HW259610  13.370   9.563   6.986
52593SOL     OW59611  10.673   0.329   3.247
52593SOL    HW159612  10.718   0.353   3.328
52593SOL    HW259613  10.713   0.246   3.221
52594SOL     OW59614   4.917   4.511   0.967
52594SOL    HW159615   4.844   4.568   0.944
52594SOL    HW259616   4.946   4.475   0.883
52595SOL     OW59617  11.147   5.516  13.568
52595SOL    HW159618  11.072   5.458  13.575
52595SOL    HW259619  11.110   5.604  13.563
52596SOL     OW59620   1.368  11.287   7.629
52596SOL    HW159621   1.456  11.325   7.623
52596SOL    HW259622   1.327  11.308   7.545
52597SOL     OW59623  10.874   2.306  13.340
52597SOL    HW159624  10.938   2.265  13.282
52597SOL    HW259625  10.881   2.400  13.322
52598SOL     OW59626   7.851   4.700  10.142
52598SOL    HW159627   7.854   4.636  10.214
52598SOL    HW259628   7.795   4.659  10.076
52599SOL     OW59629   8.625   3.192   1.387
52599SOL    HW159630   8.701   3.148   1.425
52599SOL    HW259631   8.552   3.133   1.404
52600SOL     OW59632  11.476   2.132  14.355
52600SOL    HW159633  11.534   2.103  14.426
52600SOL    HW259634  11.434   2.052  14.324
52601SOL     OW59635  11.592   5.625   2.132
52601SOL    HW159636  11.678   5.619   2.090
52601SOL    HW259637  11.608   5.600   2.223
52602SOL     OW59638   1.224   2.850   4.573
52602SOL    HW159639   1.203   2.757   4.562
52602SOL    HW259640   1.315   2.850   4.603
52603SOL     OW59641   1.670  11.867  10.176
52603SOL    HW159642   1.751  11.902  10.214
52603SOL    HW259643   1.682  11.876  10.081
52604SOL     OW59644   5.982  13.442   2.778
52604SOL    HW159645   5.920  13.437   2.706
52604SOL    HW259646   6.040  13.367   2.765
52605SOL     OW59647  14.069   1.016   3.800
52605SOL    HW159648  14.053   1.065   3.881
52605SOL    HW259649  14.163   1.026   3.784
52606SOL     OW59650  12.503   5.134   5.064
52606SOL    HW159651  12.457   5.214   5.037
52606SOL    HW259652  12.443   5.063   5.041
52607SOL     OW59653  14.126  14.002   7.184
52607SOL    HW159654  14.078  13.928   7.148
52607SOL    HW259655  14.215  13.970   7.196
52608SOL     OW59656   9.409   6.977   9.891
52608SOL    HW159657   9.365   7.029   9.823
52608SOL    HW259658   9.369   6.891   9.886
52609SOL     OW59659   7.856  12.323  14.563
52609SOL    HW159660   7.948  12.335  14.584
52609SOL    HW259661   7.855  12.264  14.488
52610SOL     OW59662   3.842   3.144   3.788
52610SOL    HW159663   3.761   3.180   3.825
52610SOL    HW259664   3.814   3.062   3.746
52611SOL     OW59665   2.519  10.470  12.581
52611SOL    HW159666   2.594  10.527  12.566
52611SOL    HW259667   2.453  10.500  12.518
52612SOL     OW59668   2.693  13.399  12.127
52612SOL    HW159669   2.732  13.439  12.050
52612SOL    HW259670   2.599  13.400  12.110
52613SOL     OW59671  14.555   7.325   6.807
52613SOL    HW159672  14.475   7.363   6.771
52613SOL    HW259673  14.557   7.236   6.773
52614SOL     OW59674  10.977   6.547   3.999
52614SOL    HW159675  11.038   6.521   3.929
52614SOL    HW259676  10.924   6.469   4.013
52615SOL     OW59677  12.940   2.934  14.455
52615SOL    HW159678  12.947   2.849  14.499
52615SOL    HW259679  13.025   2.976  14.472
52616SOL     OW59680  13.746   8.866   1.401
52616SOL    HW159681  13.740   8.849   1.495
52616SOL    HW259682  13.810   8.801   1.369
52617SOL     OW59683   5.244  13.142  11.885
52617SOL    HW159684   5.200  13.074  11.833
52617SOL    HW259685   5.192  13.148  11.965
52618SOL     OW59686   7.647   6.213  10.855
52618SOL    HW159687   7.686   6.210  10.943
52618SOL    HW259688   7.592   6.135  10.850
52619SOL     OW59689   9.069   8.391   5.328
52619SOL    HW159690   9.032   8.305   5.348
52619SOL    HW259691   9.017   8.423   5.254
52620SOL     OW59692   5.883  11.689   6.647
52620SOL    HW159693   5.828  11.756   6.605
52620SOL    HW259694   5.898  11.624   6.579
52621SOL     OW59695  14.428  11.729  13.939
52621SOL    HW159696  14.521  11.728  13.920
52621SOL    HW259697  14.417  11.666  14.010
52622SOL     OW59698   6.567   3.492  13.220
52622SOL    HW159699   6.482   3.452  13.235
52622SOL    HW259700   6.547   3.574  13.175
52623SOL     OW59701  14.495   0.009   9.371
52623SOL    HW159702  14.458   0.093   9.344
52623SOL    HW259703  14.588   0.026   9.382
52624SOL     OW59704  12.825  11.829  12.412
52624SOL    HW159705  12.770  11.893  12.366
52624SOL    HW259706  12.878  11.881  12.472
52625SOL     OW59707   2.229   4.580   4.798
52625SOL    HW159708   2.306   4.621   4.836
52625SOL    HW259709   2.228   4.612   4.707
52626SOL     OW59710   5.551   2.179  14.356
52626SOL    HW159711   5.521   2.091  14.378
52626SOL    HW259712   5.642   2.182  14.387
52627SOL     OW59713   1.715   8.874  14.083
52627SOL    HW159714   1.779   8.803  14.072
52627SOL    HW259715   1.647   8.855  14.019
52628SOL     OW59716   0.917   2.278   5.582
52628SOL    HW159717   0.824   2.257   5.596
52628SOL    HW259718   0.957   2.194   5.559
52629SOL     OW59719   1.900   6.834   1.346
52629SOL    HW159720   1.919   6.926   1.367
52629SOL    HW259721   1.972   6.785   1.387
52630SOL     OW59722   9.824  13.713  14.757
52630SOL    HW159723   9.796  13.798  14.790
52630SOL    HW259724   9.746  13.677  14.715
52631SOL     OW59725  13.792   5.475  11.986
52631SOL    HW159726  13.804   5.488  12.080
52631SOL    HW259727  13.857   5.532  11.945
52632SOL     OW59728   3.011   5.527   8.601
52632SOL    HW159729   2.930   5.516   8.551
52632SOL    HW259730   3.079   5.490   8.545
52633SOL     OW59731  11.404  12.306  14.864
52633SOL    HW159732  11.497  12.296   0.012
52633SOL    HW259733  11.401  12.301  14.768
52634SOL     OW59734   7.433   1.159   2.606
52634SOL    HW159735   7.490   1.117   2.541
52634SOL    HW259736   7.441   1.253   2.587
52635SOL     OW59737  12.768  11.773   2.809
52635SOL    HW159738  12.760  11.730   2.895
52635SOL    HW259739  12.858  11.805   2.806
52636SOL     OW59740   0.266   9.972   0.852
52636SOL    HW159741   0.347   9.928   0.878
52636SOL    HW259742   0.291  10.027   0.778
52637SOL     OW59743   6.138  10.788   9.840
52637SOL    HW159744   6.215  10.840   9.865
52637SOL    HW259745   6.076  10.852   9.805
52638SOL     OW59746   7.696   7.043   0.317
52638SOL    HW159747   7.619   7.023   0.371
52638SOL    HW259748   7.745   6.961   0.315
52639SOL     OW59749   9.453  13.969  11.556
52639SOL    HW159750   9.441  14.058  11.591
52639SOL    HW259751   9.547  13.961  11.543
52640SOL     OW59752   8.770  12.014   5.571
52640SOL    HW159753   8.830  12.089   5.577
52640SOL    HW259754   8.751  11.991   5.662
52641SOL     OW59755   7.029   0.534  10.717
52641SOL    HW159756   6.955   0.594  10.708
52641SOL    HW259757   7.077   0.568  10.792
52642SOL     OW59758   4.350  14.496  10.434
52642SOL    HW159759   4.269  14.534  10.401
52642SOL    HW259760   4.388  14.451  10.358
52643SOL     OW59761   2.439  13.856   0.350
52643SOL    HW159762   2.504  13.869   0.280
52643SOL    HW259763   2.470  13.913   0.421
52644SOL     OW59764  11.618   5.232  14.279
52644SOL    HW159765  11.610   5.217  14.185
52644SOL    HW259766  11.557   5.170  14.319
52645SOL     OW59767   9.172   3.715   9.185
52645SOL    HW159768   9.127   3.796   9.210
52645SOL    HW259769   9.265   3.732   9.199
52646SOL     OW59770  13.433   1.731  11.214
52646SOL    HW159771  13.526   1.714  11.228
52646SOL    HW259772  13.425   1.743  11.119
52647SOL     OW59773   0.572   0.354   8.456
52647SOL    HW159774   0.568   0.271   8.503
52647SOL    HW259775   0.590   0.330   8.366
52648SOL     OW59776   8.809   5.108   9.785
52648SOL    HW159777   8.753   5.126   9.710
52648SOL    HW259778   8.801   5.185   9.841
52649SOL     OW59779   4.941   0.130  11.617
52649SOL    HW159780   5.020   0.083  11.644
52649SOL    HW259781   4.870   0.089  11.667
52650SOL     OW59782   7.051  12.167   3.145
52650SOL    HW159783   7.079  12.085   3.186
52650SOL    HW259784   7.006  12.215   3.214
52651SOL     OW59785   7.313   4.778  11.942
52651SOL    HW159786   7.272   4.852  11.898
52651SOL    HW259787   7.365   4.817  12.012
52652SOL     OW59788   6.920   8.007   3.923
52652SOL    HW159789   6.992   8.000   3.861
52652SOL    HW259790   6.926   7.928   3.977
52653SOL     OW59791   3.309  14.614   2.996
52653SOL    HW159792   3.256  14.626   3.075
52653SOL    HW259793   3.315  14.519   2.986
52654SOL     OW59794   1.437   1.643  10.359
52654SOL    HW159795   1.377   1.601  10.420
52654SOL    HW259796   1.393   1.634  10.274
52655SOL     OW59797  11.126  13.305  11.566
52655SOL    HW159798  11.175  13.249  11.625
52655SOL    HW259799  11.035  13.297  11.594
52656SOL     OW59800   9.634   2.298   2.384
52656SOL    HW159801   9.608   2.287   2.292
52656SOL    HW259802   9.637   2.393   2.396
52657SOL     OW59803   6.549   6.948  12.598
52657SOL    HW159804   6.473   6.899  12.566
52657SOL    HW259805   6.512   7.013  12.658
52658SOL     OW59806   8.916   9.250  13.979
52658SOL    HW159807   8.856   9.306  13.929
52658SOL    HW259808   8.872   9.165  13.984
52659SOL     OW59809   3.716  12.001   8.899
52659SOL    HW159810   3.630  11.996   8.941
52659SOL    HW259811   3.779  12.004   8.971
52660SOL     OW59812   4.797  14.659  14.544
52660SOL    HW159813   4.740  14.724  14.501
52660SOL    HW259814   4.737  14.605  14.595
52661SOL     OW59815  14.662   1.091  14.726
52661SOL    HW159816  14.715   1.061  14.800
52661SOL    HW259817  14.715   1.069  14.649
52662SOL     OW59818   7.574  11.056   1.561
52662SOL    HW159819   7.659  11.079   1.600
52662SOL    HW259820   7.596  11.000   1.487
52663SOL     OW59821  12.026   2.175   8.613
52663SOL    HW159822  11.991   2.119   8.543
52663SOL    HW259823  11.960   2.244   8.624
52664SOL     OW59824   5.178  11.726   8.275
52664SOL    HW159825   5.147  11.681   8.353
52664SOL    HW259826   5.125  11.691   8.204
52665SOL     OW59827   6.327   3.572   1.824
52665SOL    HW159828   6.316   3.626   1.746
52665SOL    HW259829   6.395   3.616   1.875
52666SOL     OW59830   4.299  13.549   7.200
52666SOL    HW159831   4.315  13.456   7.214
52666SOL    HW259832   4.239  13.553   7.125
52667SOL     OW59833   0.160  13.413  10.190
52667SOL    HW159834   0.123  13.357  10.258
52667SOL    HW259835   0.165  13.357  10.113
52668SOL     OW59836   7.215  13.829   1.437
52668SOL    HW159837   7.248  13.919   1.440
52668SOL    HW259838   7.159  13.827   1.359
52669SOL     OW59839   8.120  13.087  12.320
52669SOL    HW159840   8.070  13.165  12.344
52669SOL    HW259841   8.131  13.039  12.402
52670SOL     OW59842   2.651  10.236   3.465
52670SOL    HW159843   2.598  10.232   3.385
52670SOL    HW259844   2.735  10.199   3.440
52671SOL     OW59845   0.207  11.098   2.745
52671SOL    HW159846   0.231  11.011   2.776
52671SOL    HW259847   0.198  11.089   2.651
52672SOL     OW59848   4.607   3.186  13.480
52672SOL    HW159849   4.517   3.216  13.464
52672SOL    HW259850   4.629   3.224  13.565
52673SOL     OW59851   6.113   3.076   8.141
52673SOL    HW159852   6.111   3.078   8.045
52673SOL    HW259853   6.104   2.984   8.163
52674SOL     OW59854  13.910  13.898   4.996
52674SOL    HW159855  13.936  13.956   4.925
52674SOL    HW259856  13.814  13.897   4.993
52675SOL     OW59857  14.690  12.643   8.832
52675SOL    HW159858  14.686  12.645   8.736
52675SOL    HW259859  14.602  12.669   8.859
52676SOL     OW59860   0.247  14.385   2.605
52676SOL    HW159861   0.199  14.452   2.556
52676SOL    HW259862   0.188  14.361   2.677
52677SOL     OW59863   5.096   3.142   3.323
52677SOL    HW159864   5.106   3.063   3.375
52677SOL    HW259865   5.010   3.133   3.282
52678SOL     OW59866  11.968   0.814   1.603
52678SOL    HW159867  11.990   0.721   1.596
52678SOL    HW259868  11.872   0.815   1.604
52679SOL     OW59869  13.648   8.010  12.954
52679SOL    HW159870  13.646   7.962  12.871
52679SOL    HW259871  13.637   8.101  12.928
52680SOL     OW59872   7.170   0.404   4.325
52680SOL    HW159873   7.139   0.401   4.416
52680SOL    HW259874   7.091   0.421   4.273
52681SOL     OW59875  13.406  14.203  14.169
52681SOL    HW159876  13.377  14.208  14.260
52681SOL    HW259877  13.393  14.111  14.145
52682SOL     OW59878   5.450  12.340   1.699
52682SOL    HW159879   5.418  12.392   1.773
52682SOL    HW259880   5.385  12.270   1.689
52683SOL     OW59881   4.365  10.339   5.532
52683SOL    HW159882   4.406  10.310   5.451
52683SOL    HW259883   4.438  10.356   5.592
52684SOL     OW59884  10.965   4.464  13.748
52684SOL    HW159885  11.006   4.506  13.672
52684SOL    HW259886  11.038   4.425  13.796
52685SOL     OW59887  10.699  11.502  13.995
52685SOL    HW159888  10.723  11.418  13.955
52685SOL    HW259889  10.737  11.568  13.936
52686SOL     OW59890  10.153  11.178   0.598
52686SOL    HW159891  10.077  11.202   0.545
52686SOL    HW259892  10.169  11.255   0.653
52687SOL     OW59893  10.816  11.059  14.419
52687SOL    HW159894  10.787  10.988  14.362
52687SOL    HW259895  10.741  11.078  14.474
52688SOL     OW59896   1.130   6.348   6.491
52688SOL    HW159897   1.222   6.327   6.474
52688SOL    HW259898   1.133   6.411   6.563
52689SOL     OW59899   1.746   3.892   9.719
52689SOL    HW159900   1.732   3.961   9.784
52689SOL    HW259901   1.772   3.939   9.640
52690SOL     OW59902  14.375  11.817   6.050
52690SOL    HW159903  14.451  11.853   6.004
52690SOL    HW259904  14.412  11.765   6.121
52691SOL     OW59905  14.319   4.677   9.005
52691SOL    HW159906  14.237   4.646   9.044
52691SOL    HW259907  14.328   4.627   8.923
52692SOL     OW59908   6.546   3.160   6.945
52692SOL    HW159909   6.623   3.179   6.891
52692SOL    HW259910   6.578   3.097   7.011
52693SOL     OW59911   2.894   5.179   0.839
52693SOL    HW159912   2.966   5.117   0.829
52693SOL    HW259913   2.861   5.163   0.928
52694SOL     OW59914   2.679   4.268   3.602
52694SOL    HW159915   2.729   4.311   3.532
52694SOL    HW259916   2.671   4.335   3.670
52695SOL     OW59917   2.328   1.322  13.022
52695SOL    HW159918   2.382   1.246  13.043
52695SOL    HW259919   2.245   1.285  12.991
52696SOL     OW59920   6.966   9.590  14.681
52696SOL    HW159921   7.037   9.596  14.744
52696SOL    HW259922   6.999   9.532  14.612
52697SOL     OW59923  11.034   8.076  12.651
52697SOL    HW159924  11.043   7.988  12.616
52697SOL    HW259925  10.996   8.064  12.738
52698SOL     OW59926   2.492   3.208   2.875
52698SOL    HW159927   2.550   3.167   2.811
52698SOL    HW259928   2.427   3.140   2.895
52699SOL     OW59929   9.005   4.045  10.466
52699SOL    HW159930   9.009   4.124  10.412
52699SOL    HW259931   8.964   3.979  10.409
52700SOL     OW59932   6.004   6.774  12.531
52700SOL    HW159933   5.933   6.744  12.587
52700SOL    HW259934   6.015   6.867  12.554
52701SOL     OW59935   7.218  13.600   6.599
52701SOL    HW159936   7.213  13.517   6.646
52701SOL    HW259937   7.219  13.575   6.506
52702SOL     OW59938  11.865   7.687   2.682
52702SOL    HW159939  11.939   7.748   2.680
52702SOL    HW259940  11.887   7.624   2.750
52703SOL     OW59941  11.717  14.278   7.608
52703SOL    HW159942  11.695  14.334   7.683
52703SOL    HW259943  11.642  14.220   7.599
52704SOL     OW59944   2.655   5.348   2.723
52704SOL    HW159945   2.644   5.443   2.731
52704SOL    HW259946   2.750   5.335   2.725
52705SOL     OW59947   4.512   2.169   8.388
52705SOL    HW159948   4.593   2.120   8.371
52705SOL    HW259949   4.478   2.133   8.470
52706SOL     OW59950   6.742  12.212   7.516
52706SOL    HW159951   6.732  12.146   7.447
52706SOL    HW259952   6.769  12.291   7.470
52707SOL     OW59953   1.595  13.006  14.801
52707SOL    HW159954   1.614  13.071  14.869
52707SOL    HW259955   1.544  13.053  14.735
52708SOL     OW59956   3.865   2.967  14.126
52708SOL    HW159957   3.842   3.049  14.083
52708SOL    HW259958   3.882   2.906  14.054
52709SOL     OW59959  13.584  10.191   1.589
52709SOL    HW159960  13.631  10.111   1.614
52709SOL    HW259961  13.566  10.179   1.495
52710SOL     OW59962   7.979   4.041   4.349
52710SOL    HW159963   7.996   4.134   4.334
52710SOL    HW259964   8.060   3.997   4.323
52711SOL     OW59965  12.736   4.204   3.915
52711SOL    HW159966  12.661   4.183   3.970
52711SOL    HW259967  12.745   4.299   3.921
52712SOL     OW59968   2.687   0.873  13.479
52712SOL    HW159969   2.599   0.837  13.491
52712SOL    HW259970   2.708   0.915  13.563
52713SOL     OW59971  12.978   9.637   0.862
52713SOL    HW159972  12.956   9.640   0.769
52713SOL    HW259973  13.035   9.712   0.875
52714SOL     OW59974   2.808  12.213  10.859
52714SOL    HW159975   2.847  12.141  10.909
52714SOL    HW259976   2.830  12.292  10.908
52715SOL     OW59977   4.693   1.572   1.623
52715SOL    HW159978   4.684   1.477   1.626
52715SOL    HW259979   4.619   1.601   1.569
52716SOL     OW59980   9.312   1.823   9.406
52716SOL    HW159981   9.271   1.835   9.491
52716SOL    HW259982   9.238   1.814   9.345
52717SOL     OW59983   8.188   9.256   9.144
52717SOL    HW159984   8.181   9.265   9.049
52717SOL    HW259985   8.101   9.278   9.177
52718SOL     OW59986   9.254   8.600   4.246
52718SOL    HW159987   9.233   8.544   4.321
52718SOL    HW259988   9.192   8.672   4.252
52719SOL     OW59989   2.379  12.197   4.388
52719SOL    HW159990   2.386  12.123   4.327
52719SOL    HW259991   2.468  12.209   4.421
52720SOL     OW59992  13.429  12.433  13.355
52720SOL    HW159993  13.424  12.356  13.298
52720SOL    HW259994  13.481  12.496  13.305
52721SOL     OW59995   7.360   6.969   0.334
52721SOL    HW159996   7.398   6.926   0.258
52721SOL    HW259997   7.279   6.920   0.351
52722SOL     OW59998   9.668   3.202   3.467
52722SOL    HW159999   9.585   3.244   3.487
52722SOL    HW260000   9.645   3.131   3.406
52723SOL     OW60001   4.452  10.740  11.313
52723SOL    HW160002   4.529  10.794  11.294
52723SOL    HW260003   4.395  10.798  11.365
52724SOL     OW60004  10.051  14.471   5.061
52724SOL    HW160005  10.058  14.398   5.123
52724SOL    HW260006   9.974  14.520   5.090
52725SOL     OW60007   4.827   4.323   0.520
52725SOL    HW160008   4.811   4.248   0.464
52725SOL    HW260009   4.769   4.391   0.486
52726SOL     OW60010   0.398  10.055   7.757
52726SOL    HW160011   0.490  10.073   7.736
52726SOL    HW260012   0.374   9.981   7.700
52727SOL     OW60013   4.703   4.278   4.132
52727SOL    HW160014   4.698   4.303   4.040
52727SOL    HW260015   4.796   4.282   4.153
52728SOL     OW60016   7.654  11.090   0.827
52728SOL    HW160017   7.720  11.154   0.801
52728SOL    HW260018   7.671  11.075   0.920
52729SOL     OW60019  10.019  11.777   0.624
52729SOL    HW160020  10.071  11.787   0.704
52729SOL    HW260021   9.968  11.857   0.618
52730SOL     OW60022  10.003   3.003  14.508
52730SOL    HW160023   9.999   3.066  14.580
52730SOL    HW260024   9.915   3.005  14.470
52731SOL     OW60025   3.534   8.087   2.621
52731SOL    HW160026   3.539   8.180   2.599
52731SOL    HW260027   3.623   8.054   2.610
52732SOL     OW60028  14.222   7.052  14.857
52732SOL    HW160029  14.203   6.962  14.831
52732SOL    HW260030  14.160   7.071   0.055
52733SOL     OW60031   7.434   0.940  10.557
52733SOL    HW160032   7.434   0.853  10.597
52733SOL    HW260033   7.408   0.999  10.627
52734SOL     OW60034   8.736  10.608   4.604
52734SOL    HW160035   8.667  10.615   4.539
52734SOL    HW260036   8.698  10.644   4.684
52735SOL     OW60037   0.100  13.730   0.594
52735SOL    HW160038   0.053  13.656   0.556
52735SOL    HW260039   0.145  13.692   0.670
52736SOL     OW60040  13.196   3.350   6.388
52736SOL    HW160041  13.286   3.318   6.394
52736SOL    HW260042  13.170   3.366   6.479
52737SOL     OW60043   4.974  10.763  12.626
52737SOL    HW160044   4.976  10.838  12.685
52737SOL    HW260045   4.911  10.703  12.665
52738SOL     OW60046   2.043   7.727  10.838
52738SOL    HW160047   2.000   7.750  10.757
52738SOL    HW260048   2.076   7.638  10.823
52739SOL     OW60049   0.792   5.497   9.415
52739SOL    HW160050   0.701   5.488   9.385
52739SOL    HW260051   0.845   5.492   9.336
52740SOL     OW60052   1.957  14.044  11.280
52740SOL    HW160053   1.972  13.949  11.285
52740SOL    HW260054   1.865  14.055  11.302
52741SOL     OW60055  10.713   4.829   2.322
52741SOL    HW160056  10.722   4.922   2.344
52741SOL    HW260057  10.747   4.822   2.233
52742SOL     OW60058   2.858  14.352   7.787
52742SOL    HW160059   2.888  14.413   7.720
52742SOL    HW260060   2.769  14.330   7.761
52743SOL     OW60061   6.931   8.358   5.699
52743SOL    HW160062   7.006   8.404   5.662
52743SOL    HW260063   6.908   8.293   5.632
52744SOL     OW60064  13.367  12.720   3.384
52744SOL    HW160065  13.443  12.739   3.439
52744SOL    HW260066  13.302  12.785   3.408
52745SOL     OW60067   7.561   6.911  14.833
52745SOL    HW160068   7.557   6.863   0.043
52745SOL    HW260069   7.478   6.892  14.790
52746SOL     OW60070  13.304  12.621   5.812
52746SOL    HW160071  13.399  12.614   5.822
52746SOL    HW260072  13.276  12.535   5.780
52747SOL     OW60073   0.393   4.865   6.676
52747SOL    HW160074   0.311   4.897   6.637
52747SOL    HW260075   0.367   4.790   6.729
52748SOL     OW60076   8.082   3.285   2.106
52748SOL    HW160077   8.177   3.281   2.103
52748SOL    HW260078   8.052   3.206   2.061
52749SOL     OW60079   1.965   8.668   4.434
52749SOL    HW160080   1.990   8.691   4.344
52749SOL    HW260081   1.887   8.614   4.424
52750SOL     OW60082  14.592   0.728   8.280
52750SOL    HW160083  14.525   0.754   8.217
52750SOL    HW260084  14.607   0.807   8.333
52751SOL     OW60085  14.798   9.635  11.312
52751SOL    HW160086   0.004   9.586  11.338
52751SOL    HW260087  14.728   9.598  11.365
52752SOL     OW60088   3.066   5.306   1.661
52752SOL    HW160089   2.997   5.273   1.604
52752SOL    HW260090   3.112   5.228   1.691
52753SOL     OW60091  10.072   8.132   1.493
52753SOL    HW160092   9.979   8.146   1.512
52753SOL    HW260093  10.114   8.215   1.514
52754SOL     OW60094   3.930   3.699   6.517
52754SOL    HW160095   3.863   3.743   6.570
52754SOL    HW260096   3.916   3.733   6.428
52755SOL     OW60097   0.304  10.810  12.769
52755SOL    HW160098   0.256  10.856  12.700
52755SOL    HW260099   0.371  10.872  12.797
52756SOL     OW60100   2.449   4.145   3.546
52756SOL    HW160101   2.524   4.185   3.591
52756SOL    HW260102   2.459   4.169   3.454
52757SOL     OW60103   4.479  14.806   5.695
52757SOL    HW160104   4.413  14.750   5.653
52757SOL    HW260105   4.511  14.755   5.769
52758SOL     OW60106  10.710   5.580   0.202
52758SOL    HW160107  10.711   5.644   0.273
52758SOL    HW260108  10.620   5.582   0.169
52759SOL     OW60109   8.507  11.642   9.612
52759SOL    HW160110   8.574  11.691   9.660
52759SOL    HW260111   8.554  11.599   9.541
52760SOL     OW60112   1.615   0.842   5.111
52760SOL    HW160113   1.552   0.913   5.111
52760SOL    HW260114   1.565   0.765   5.084
52761SOL     OW60115  12.853   6.739  10.879
52761SOL    HW160116  12.818   6.752  10.791
52761SOL    HW260117  12.834   6.648  10.899
52762SOL     OW60118   7.253   3.284  13.426
52762SOL    HW160119   7.195   3.224  13.473
52762SOL    HW260120   7.279   3.348  13.492
52763SOL     OW60121  14.650  14.837   6.822
52763SOL    HW160122  14.676   0.050   6.789
52763SOL    HW260123  14.650  14.781   6.744
52764SOL     OW60124  14.001   2.005   5.777
52764SOL    HW160125  13.948   2.070   5.823
52764SOL    HW260126  14.087   2.011   5.818
52765SOL     OW60127   6.024   9.051   1.062
52765SOL    HW160128   6.113   9.041   1.098
52765SOL    HW260129   5.982   8.967   1.079
52766SOL     OW60130   8.776   7.223  11.347
52766SOL    HW160131   8.751   7.169  11.271
52766SOL    HW260132   8.736   7.308  11.331
52767SOL     OW60133  14.372   3.295   3.625
52767SOL    HW160134  14.341   3.335   3.706
52767SOL    HW260135  14.301   3.312   3.562
52768SOL     OW60136   4.530  14.662   8.051
52768SOL    HW160137   4.603  14.637   7.994
52768SOL    HW260138   4.466  14.702   7.992
52769SOL     OW60139  10.891  14.263   2.102
52769SOL    HW160140  10.953  14.212   2.051
52769SOL    HW260141  10.891  14.222   2.189
52770SOL     OW60142  10.180   6.976   1.773
52770SOL    HW160143  10.177   7.071   1.762
52770SOL    HW260144  10.142   6.961   1.859
52771SOL     OW60145  12.333  14.740  11.932
52771SOL    HW160146  12.327  14.749  11.837
52771SOL    HW260147  12.243  14.720  11.960
52772SOL     OW60148   9.541  11.414   3.013
52772SOL    HW160149   9.533  11.492   3.068
52772SOL    HW260150   9.633  11.412   2.988
52773SOL     OW60151   9.597   4.573  12.011
52773SOL    HW160152   9.522   4.632  12.012
52773SOL    HW260153   9.673   4.632  12.020
52774SOL     OW60154   6.045  11.092   2.952
52774SOL    HW160155   6.132  11.131   2.947
52774SOL    HW260156   5.995  11.137   2.884
52775SOL     OW60157   6.374  13.718  11.975
52775SOL    HW160158   6.369  13.780  11.903
52775SOL    HW260159   6.358  13.632  11.935
52776SOL     OW60160   0.370   2.781  10.780
52776SOL    HW160161   0.387   2.810  10.870
52776SOL    HW260162   0.352   2.862  10.732
52777SOL     OW60163   7.470   9.613  13.576
52777SOL    HW160164   7.456   9.576  13.488
52777SOL    HW260165   7.556   9.655  13.570
52778SOL     OW60166   4.841   3.807  13.367
52778SOL    HW160167   4.841   3.893  13.327
52778SOL    HW260168   4.934   3.786  13.378
52779SOL     OW60169   8.306   2.782  14.456
52779SOL    HW160170   8.366   2.840  14.501
52779SOL    HW260171   8.360   2.707  14.430
52780SOL     OW60172  11.840   8.607   4.042
52780SOL    HW160173  11.854   8.678   3.979
52780SOL    HW260174  11.841   8.527   3.989
52781SOL     OW60175  14.577   4.206   2.236
52781SOL    HW160176  14.547   4.128   2.190
52781SOL    HW260177  14.593   4.270   2.167
52782SOL     OW60178   4.710  10.896  11.028
52782SOL    HW160179   4.804  10.893  11.010
52782SOL    HW260180   4.702  10.868  11.120
52783SOL     OW60181  13.498   0.746   2.263
52783SOL    HW160182  13.460   0.812   2.205
52783SOL    HW260183  13.549   0.689   2.204
52784SOL     OW60184   6.903   4.876   2.328
52784SOL    HW160185   6.965   4.835   2.268
52784SOL    HW260186   6.923   4.969   2.324
52785SOL     OW60187   6.149   9.666   2.841
52785SOL    HW160188   6.065   9.653   2.885
52785SOL    HW260189   6.147   9.757   2.811
52786SOL     OW60190   8.048   6.407   3.892
52786SOL    HW160191   8.113   6.343   3.922
52786SOL    HW260192   8.028   6.459   3.971
52787SOL     OW60193   9.440  12.235  12.962
52787SOL    HW160194   9.444  12.145  12.930
52787SOL    HW260195   9.438  12.289  12.883
52788SOL     OW60196   1.289   1.330   9.919
52788SOL    HW160197   1.217   1.292   9.969
52788SOL    HW260198   1.292   1.422   9.946
52789SOL     OW60199   9.102  12.203  13.979
52789SOL    HW160200   9.056  12.127  14.015
52789SOL    HW260201   9.195  12.183  13.991
52790SOL     OW60202   7.746   0.781  10.046
52790SOL    HW160203   7.727   0.874  10.048
52790SOL    HW260204   7.689   0.746   9.978
52791SOL     OW60205   6.380   4.027   2.225
52791SOL    HW160206   6.352   4.062   2.140
52791SOL    HW260207   6.425   4.100   2.267
52792SOL     OW60208  13.659   5.348   5.193
52792SOL    HW160209  13.745   5.357   5.152
52792SOL    HW260210  13.610   5.425   5.162
52793SOL     OW60211   6.703  12.027   4.981
52793SOL    HW160212   6.736  12.109   4.946
52793SOL    HW260213   6.657  12.052   5.061
52794SOL     OW60214  13.294   3.180   3.116
52794SOL    HW160215  13.316   3.263   3.074
52794SOL    HW260216  13.205   3.161   3.087
52795SOL     OW60217   9.503   7.066   9.104
52795SOL    HW160218   9.589   7.058   9.062
52795SOL    HW260219   9.495   7.160   9.122
52796SOL     OW60220   9.771  14.824   2.268
52796SOL    HW160221   9.787  14.756   2.334
52796SOL    HW260222   9.859  14.847   2.238
52797SOL     OW60223   3.091   8.711   7.229
52797SOL    HW160224   3.030   8.781   7.254
52797SOL    HW260225   3.122   8.676   7.312
52798SOL     OW60226   5.805  10.979   9.602
52798SOL    HW160227   5.719  10.939   9.609
52798SOL    HW260228   5.788  11.073   9.607
52799SOL     OW60229   7.749   5.257   1.737
52799SOL    HW160230   7.766   5.180   1.684
52799SOL    HW260231   7.655   5.272   1.728
52800SOL     OW60232   7.884  11.287   5.655
52800SOL    HW160233   7.941  11.238   5.597
52800SOL    HW260234   7.943  11.323   5.721
52801SOL     OW60235   3.960  14.572   9.137
52801SOL    HW160236   4.011  14.567   9.056
52801SOL    HW260237   3.874  14.604   9.110
52802SOL     OW60238   2.010   6.644   3.593
52802SOL    HW160239   2.072   6.642   3.666
52802SOL    HW260240   2.037   6.719   3.540
52803SOL     OW60241   9.834   4.368   7.067
52803SOL    HW160242   9.812   4.282   7.031
52803SOL    HW260243   9.900   4.350   7.134
52804SOL     OW60244   1.469   1.253   5.371
52804SOL    HW160245   1.497   1.166   5.398
52804SOL    HW260246   1.482   1.307   5.450
52805SOL     OW60247   8.425   1.811  12.453
52805SOL    HW160248   8.369   1.767  12.516
52805SOL    HW260249   8.508   1.762  12.456
52806SOL     OW60250  13.972  11.745   4.260
52806SOL    HW160251  13.963  11.839   4.243
52806SOL    HW260252  13.979  11.705   4.173
52807SOL     OW60253   8.053   8.414   4.265
52807SOL    HW160254   8.091   8.423   4.178
52807SOL    HW260255   7.989   8.343   4.257
52808SOL     OW60256   1.477  13.428   4.173
52808SOL    HW160257   1.545  13.460   4.113
52808SOL    HW260258   1.526  13.387   4.245
52809SOL     OW60259   5.803   2.251   9.141
52809SOL    HW160260   5.727   2.282   9.091
52809SOL    HW260261   5.765   2.211   9.219
52810SOL     OW60262  14.556   1.972   5.147
52810SOL    HW160263  14.601   1.971   5.231
52810SOL    HW260264  14.485   2.035   5.158
52811SOL     OW60265   8.475   5.009  11.337
52811SOL    HW160266   8.548   4.978  11.390
52811SOL    HW260267   8.446   4.932  11.288
52812SOL     OW60268  12.475   7.746  10.628
52812SOL    HW160269  12.437   7.830  10.654
52812SOL    HW260270  12.503   7.705  10.710
52813SOL     OW60271   6.303   9.432   1.509
52813SOL    HW160272   6.268   9.521   1.506
52813SOL    HW260273   6.393   9.442   1.540
52814SOL     OW60274   4.811  13.953   2.738
52814SOL    HW160275   4.779  14.040   2.758
52814SOL    HW260276   4.888  13.967   2.683
52815SOL     OW60277   1.758  14.160   4.167
52815SOL    HW160278   1.815  14.158   4.090
52815SOL    HW260279   1.748  14.068   4.192
52816SOL     OW60280   5.714   2.088   5.788
52816SOL    HW160281   5.723   2.010   5.843
52816SOL    HW260282   5.650   2.143   5.834
52817SOL     OW60283  10.023   1.465  11.737
52817SOL    HW160284  10.041   1.517  11.658
52817SOL    HW260285  10.066   1.514  11.807
52818SOL     OW60286  11.413  14.539   1.349
52818SOL    HW160287  11.396  14.453   1.386
52818SOL    HW260288  11.399  14.529   1.255
52819SOL     OW60289  12.067  14.571  14.196
52819SOL    HW160290  12.152  14.529  14.213
52819SOL    HW260291  12.090  14.658  14.164
52820SOL     OW60292  13.120   8.082  12.140
52820SOL    HW160293  13.061   8.026  12.088
52820SOL    HW260294  13.079   8.086  12.226
52821SOL     OW60295   5.496  11.582   6.077
52821SOL    HW160296   5.487  11.592   6.172
52821SOL    HW260297   5.516  11.671   6.046
52822SOL     OW60298  10.699   1.157   3.545
52822SOL    HW160299  10.612   1.185   3.570
52822SOL    HW260300  10.714   1.196   3.458
52823SOL     OW60301   9.670  14.246   5.677
52823SOL    HW160302   9.652  14.269   5.768
52823SOL    HW260303   9.659  14.328   5.629
52824SOL     OW60304  10.843   9.055  12.923
52824SOL    HW160305  10.830   9.103  12.841
52824SOL    HW260306  10.754   9.030  12.950
52825SOL     OW60307  14.669   1.773  14.269
52825SOL    HW160308  14.737   1.717  14.307
52825SOL    HW260309  14.587   1.734  14.300
52826SOL     OW60310   0.795   2.844  11.533
52826SOL    HW160311   0.746   2.824  11.453
52826SOL    HW260312   0.868   2.899  11.503
52827SOL     OW60313   0.901   6.593   2.978
52827SOL    HW160314   0.863   6.578   3.065
52827SOL    HW260315   0.827   6.619   2.923
52828SOL     OW60316  13.850   4.651   5.507
52828SOL    HW160317  13.762   4.629   5.536
52828SOL    HW260318  13.845   4.744   5.486
52829SOL     OW60319  12.871   2.245  11.412
52829SOL    HW160320  12.826   2.254  11.328
52829SOL    HW260321  12.921   2.164  11.404
52830SOL     OW60322   6.689  13.474   6.967
52830SOL    HW160323   6.723  13.443   6.883
52830SOL    HW260324   6.630  13.545   6.944
52831SOL     OW60325   5.584   8.914   0.747
52831SOL    HW160326   5.638   8.973   0.800
52831SOL    HW260327   5.647   8.855   0.705
52832SOL     OW60328  11.641   4.717  12.702
52832SOL    HW160329  11.628   4.779  12.774
52832SOL    HW260330  11.602   4.636  12.733
52833SOL     OW60331   1.852   1.377   7.592
52833SOL    HW160332   1.810   1.346   7.673
52833SOL    HW260333   1.873   1.469   7.609
52834SOL     OW60334   4.700   5.737   1.117
52834SOL    HW160335   4.657   5.817   1.086
52834SOL    HW260336   4.683   5.735   1.211
52835SOL     OW60337  13.992  13.171  12.462
52835SOL    HW160338  13.936  13.194  12.388
52835SOL    HW260339  14.081  13.169  12.426
52836SOL     OW60340  10.146  13.442   2.204
52836SOL    HW160341  10.165  13.349   2.219
52836SOL    HW260342  10.201  13.466   2.130
52837SOL     OW60343  11.164   6.529  13.516
52837SOL    HW160344  11.210   6.608  13.547
52837SOL    HW260345  11.144   6.548  13.425
52838SOL     OW60346  13.796   3.584   0.327
52838SOL    HW160347  13.810   3.578   0.233
52838SOL    HW260348  13.798   3.494   0.358
52839SOL     OW60349   4.225   4.400   6.344
52839SOL    HW160350   4.173   4.448   6.410
52839SOL    HW260351   4.199   4.439   6.261
52840SOL     OW60352   0.990  11.526  12.614
52840SOL    HW160353   1.014  11.458  12.551
52840SOL    HW260354   1.030  11.606  12.579
52841SOL     OW60355   8.718   9.163  10.308
52841SOL    HW160356   8.724   9.210  10.225
52841SOL    HW260357   8.624   9.156  10.324
52842SOL     OW60358  12.007   2.489   5.857
52842SOL    HW160359  11.913   2.487   5.840
52842SOL    HW260360  12.036   2.399   5.839
52843SOL     OW60361   6.091   3.050  11.610
52843SOL    HW160362   6.008   3.083  11.575
52843SOL    HW260363   6.157   3.077  11.545
52844SOL     OW60364   1.036   4.587   2.819
52844SOL    HW160365   1.083   4.601   2.901
52844SOL    HW260366   0.972   4.519   2.840
52845SOL     OW60367  14.415   3.489   4.686
52845SOL    HW160368  14.498   3.534   4.670
52845SOL    HW260369  14.350   3.559   4.685
52846SOL     OW60370   2.310  10.762   2.848
52846SOL    HW160371   2.346  10.760   2.760
52846SOL    HW260372   2.385  10.781   2.904
52847SOL     OW60373  10.496  11.738  13.649
52847SOL    HW160374  10.472  11.831  13.655
52847SOL    HW260375  10.582  11.733  13.691
52848SOL     OW60376   7.383  11.802   0.057
52848SOL    HW160377   7.424  11.749   0.126
52848SOL    HW260378   7.424  11.772  14.849
52849SOL     OW60379   0.520   1.137  14.456
52849SOL    HW160380   0.610   1.133  14.423
52849SOL    HW260381   0.485   1.220  14.422
52850SOL     OW60382   8.135   7.209   5.275
52850SOL    HW160383   8.130   7.304   5.276
52850SOL    HW260384   8.102   7.182   5.361
52851SOL     OW60385  13.421   5.350  13.547
52851SOL    HW160386  13.420   5.343  13.452
52851SOL    HW260387  13.402   5.261  13.578
52852SOL     OW60388   2.959   5.237   8.054
52852SOL    HW160389   2.929   5.190   8.131
52852SOL    HW260390   2.929   5.327   8.068
52853SOL     OW60391   9.323   2.367   3.525
52853SOL    HW160392   9.329   2.432   3.455
52853SOL    HW260393   9.260   2.403   3.587
52854SOL     OW60394   2.543  10.200   2.289
52854SOL    HW160395   2.588  10.189   2.206
52854SOL    HW260396   2.532  10.112   2.323
52855SOL     OW60397  12.100  12.952   5.672
52855SOL    HW160398  12.109  13.006   5.594
52855SOL    HW260399  12.030  12.891   5.651
52856SOL     OW60400   9.435   1.996   2.379
52856SOL    HW160401   9.366   1.935   2.354
52856SOL    HW260402   9.446   2.053   2.303
52857SOL     OW60403   1.090   8.467   2.836
52857SOL    HW160404   1.114   8.521   2.761
52857SOL    HW260405   1.009   8.423   2.810
52858SOL     OW60406   5.999   6.999   6.750
52858SOL    HW160407   5.990   7.027   6.841
52858SOL    HW260408   5.919   6.948   6.733
52859SOL     OW60409   0.839  10.741   6.220
52859SOL    HW160410   0.864  10.671   6.160
52859SOL    HW260411   0.752  10.767   6.191
52860SOL     OW60412   1.538   1.095   8.845
52860SOL    HW160413   1.552   1.034   8.773
52860SOL    HW260414   1.480   1.162   8.809
52861SOL     OW60415   5.198   0.803  10.497
52861SOL    HW160416   5.114   0.762  10.516
52861SOL    HW260417   5.262   0.733  10.510
52862SOL     OW60418   6.403   7.473   3.281
52862SOL    HW160419   6.345   7.417   3.332
52862SOL    HW260420   6.439   7.416   3.214
52863SOL     OW60421   9.499   1.701   6.243
52863SOL    HW160422   9.454   1.771   6.291
52863SOL    HW260423   9.469   1.712   6.152
52864SOL     OW60424   0.426  10.225   8.942
52864SOL    HW160425   0.470  10.219   8.857
52864SOL    HW260426   0.497  10.229   9.006
52865SOL     OW60427   4.636   2.925  13.699
52865SOL    HW160428   4.683   2.980  13.762
52865SOL    HW260429   4.702   2.903  13.633
52866SOL     OW60430   0.420  12.598   6.742
52866SOL    HW160431   0.435  12.556   6.657
52866SOL    HW260432   0.478  12.674   6.742
52867SOL     OW60433   3.947   5.935  13.826
52867SOL    HW160434   3.905   5.983  13.754
52867SOL    HW260435   3.886   5.864  13.846
52868SOL     OW60436   1.512   2.463   9.365
52868SOL    HW160437   1.544   2.543   9.407
52868SOL    HW260438   1.571   2.450   9.290
52869SOL     OW60439  10.610   2.253   6.075
52869SOL    HW160440  10.594   2.182   6.012
52869SOL    HW260441  10.642   2.209   6.153
52870SOL     OW60442   0.234  12.027  14.349
52870SOL    HW160443   0.182  12.071  14.417
52870SOL    HW260444   0.202  12.065  14.267
52871SOL     OW60445   3.262   2.002  14.786
52871SOL    HW160446   3.226   2.051  14.860
52871SOL    HW260447   3.267   1.912  14.817
52872SOL     OW60448  10.365   8.643  12.663
52872SOL    HW160449  10.295   8.606  12.609
52872SOL    HW260450  10.445   8.603  12.630
52873SOL     OW60451   2.591   4.220  10.744
52873SOL    HW160452   2.515   4.172  10.710
52873SOL    HW260453   2.641   4.243  10.666
52874SOL     OW60454   2.419   3.866   5.036
52874SOL    HW160455   2.379   3.943   4.996
52874SOL    HW260456   2.492   3.844   4.977
52875SOL     OW60457   6.435   2.533  14.110
52875SOL    HW160458   6.497   2.557  14.040
52875SOL    HW260459   6.438   2.437  14.112
52876SOL     OW60460   6.365  10.800   3.712
52876SOL    HW160461   6.401  10.712   3.722
52876SOL    HW260462   6.395  10.828   3.625
52877SOL     OW60463   3.935   4.580   4.731
52877SOL    HW160464   3.927   4.655   4.789
52877SOL    HW260465   4.024   4.547   4.745
52878SOL     OW60466  12.902   8.807   8.415
52878SOL    HW160467  12.885   8.739   8.481
52878SOL    HW260468  12.873   8.888   8.457
52879SOL     OW60469  14.824  14.174  12.545
52879SOL    HW160470   0.038  14.135  12.532
52879SOL    HW260471  14.766  14.098  12.557
52880SOL     OW60472   8.685   1.427   5.499
52880SOL    HW160473   8.617   1.374   5.457
52880SOL    HW260474   8.714   1.487   5.430
52881SOL     OW60475  13.957  11.709   0.109
52881SOL    HW160476  13.875  11.671   0.137
52881SOL    HW260477  13.997  11.744   0.188
52882SOL     OW60478   1.845   1.645  10.861
52882SOL    HW160479   1.819   1.690  10.941
52882SOL    HW260480   1.793   1.564  10.862
52883SOL     OW60481   4.520   9.473  14.691
52883SOL    HW160482   4.578   9.549  14.701
52883SOL    HW260483   4.536   9.443  14.602
52884SOL     OW60484   6.036   9.890   2.366
52884SOL    HW160485   6.094   9.962   2.341
52884SOL    HW260486   5.979   9.928   2.433
52885SOL     OW60487   3.001   5.883   8.727
52885SOL    HW160488   3.012   5.790   8.749
52885SOL    HW260489   3.081   5.906   8.679
52886SOL     OW60490   7.539   3.490   9.835
52886SOL    HW160491   7.514   3.406   9.872
52886SOL    HW260492   7.574   3.469   9.748
52887SOL     OW60493   9.560   7.479  11.445
52887SOL    HW160494   9.537   7.527  11.524
52887SOL    HW260495   9.655   7.486  11.439
52888SOL     OW60496   5.299   1.883   0.708
52888SOL    HW160497   5.303   1.943   0.634
52888SOL    HW260498   5.205   1.866   0.720
52889SOL     OW60499  12.107  13.234   6.130
52889SOL    HW160500  12.124  13.149   6.171
52889SOL    HW260501  12.048  13.214   6.057
52890SOL     OW60502   0.640  11.662   9.358
52890SOL    HW160503   0.619  11.632   9.270
52890SOL    HW260504   0.643  11.582   9.411
52891SOL     OW60505   4.690   0.299   8.062
52891SOL    HW160506   4.684   0.211   8.098
52891SOL    HW260507   4.601   0.332   8.062
52892SOL     OW60508  11.885   3.130   8.542
52892SOL    HW160509  11.935   3.167   8.614
52892SOL    HW260510  11.899   3.190   8.469
52893SOL     OW60511   5.540   6.341   5.009
52893SOL    HW160512   5.540   6.325   5.103
52893SOL    HW260513   5.632   6.357   4.987
52894SOL     OW60514  12.429   3.956   7.676
52894SOL    HW160515  12.515   3.923   7.702
52894SOL    HW260516  12.426   3.943   7.581
52895SOL     OW60517   9.539  13.623   5.927
52895SOL    HW160518   9.491  13.673   5.861
52895SOL    HW260519   9.594  13.563   5.875
52896SOL     OW60520   9.105   3.237  10.297
52896SOL    HW160521   9.119   3.202  10.209
52896SOL    HW260522   9.106   3.159  10.354
52897SOL     OW60523   9.513  12.059  11.891
52897SOL    HW160524   9.609  12.064  11.883
52897SOL    HW260525   9.496  11.969  11.918
52898SOL     OW60526   4.823  13.911   0.386
52898SOL    HW160527   4.730  13.922   0.368
52898SOL    HW260528   4.829  13.911   0.482
52899SOL     OW60529   8.800   4.417  12.379
52899SOL    HW160530   8.723   4.452  12.333
52899SOL    HW260531   8.851   4.494  12.402
52900SOL     OW60532  11.401   5.285   7.302
52900SOL    HW160533  11.364   5.263   7.217
52900SOL    HW260534  11.434   5.374   7.292
52901SOL     OW60535   2.197  10.714   6.280
52901SOL    HW160536   2.288  10.740   6.265
52901SOL    HW260537   2.146  10.777   6.229
52902SOL     OW60538   6.481   7.428  13.175
52902SOL    HW160539   6.475   7.510  13.224
52902SOL    HW260540   6.417   7.437  13.104
52903SOL     OW60541  14.810   8.048  13.598
52903SOL    HW160542  14.740   8.057  13.663
52903SOL    HW260543  14.836   8.139  13.579
52904SOL     OW60544  11.720   1.728   0.625
52904SOL    HW160545  11.752   1.691   0.707
52904SOL    HW260546  11.756   1.817   0.623
52905SOL     OW60547  13.435   8.958   1.366
52905SOL    HW160548  13.416   8.999   1.451
52905SOL    HW260549  13.525   8.926   1.375
52906SOL     OW60550   9.542   4.309   8.622
52906SOL    HW160551   9.550   4.326   8.715
52906SOL    HW260552   9.478   4.237   8.616
52907SOL     OW60553   0.575   1.627   9.898
52907SOL    HW160554   0.580   1.679   9.978
52907SOL    HW260555   0.489   1.649   9.861
52908SOL     OW60556   5.584   1.737   5.400
52908SOL    HW160557   5.612   1.661   5.452
52908SOL    HW260558   5.629   1.811   5.440
52909SOL     OW60559   3.174   2.322   7.299
52909SOL    HW160560   3.084   2.354   7.306
52909SOL    HW260561   3.178   2.248   7.360
52910SOL     OW60562  13.582   1.223   8.491
52910SOL    HW160563  13.610   1.281   8.562
52910SOL    HW260564  13.505   1.267   8.454
52911SOL     OW60565  11.040   4.396  13.080
52911SOL    HW160566  10.950   4.374  13.056
52911SOL    HW260567  11.064   4.467  13.020
52912SOL     OW60568   8.393   1.590   2.025
52912SOL    HW160569   8.351   1.676   2.019
52912SOL    HW260570   8.483   1.609   2.050
52913SOL     OW60571  12.020   2.914  14.471
52913SOL    HW160572  12.097   2.872  14.435
52913SOL    HW260573  11.971   2.945  14.394
52914SOL     OW60574  13.737   4.303   5.898
52914SOL    HW160575  13.663   4.329   5.953
52914SOL    HW260576  13.745   4.208   5.912
52915SOL     OW60577  13.011   3.687   4.609
52915SOL    HW160578  13.079   3.654   4.668
52915SOL    HW260579  12.991   3.774   4.643
52916SOL     OW60580   6.096  12.802   0.999
52916SOL    HW160581   6.068  12.795   0.908
52916SOL    HW260582   6.037  12.745   1.047
52917SOL     OW60583   4.810   4.710   3.957
52917SOL    HW160584   4.903   4.699   3.972
52917SOL    HW260585   4.795   4.805   3.961
52918SOL     OW60586  12.334   7.453   4.074
52918SOL    HW160587  12.369   7.364   4.082
52918SOL    HW260588  12.367   7.484   3.990
52919SOL     OW60589   1.733   2.400   1.086
52919SOL    HW160590   1.676   2.372   1.157
52919SOL    HW260591   1.705   2.490   1.066
52920SOL     OW60592  11.577   7.866   7.627
52920SOL    HW160593  11.544   7.921   7.556
52920SOL    HW260594  11.536   7.780   7.612
52921SOL     OW60595   7.890  13.035   0.654
52921SOL    HW160596   7.825  13.072   0.714
52921SOL    HW260597   7.966  13.093   0.663
52922SOL     OW60598  10.617   3.792   0.407
52922SOL    HW160599  10.712   3.803   0.412
52922SOL    HW260600  10.594   3.817   0.318
52923SOL     OW60601  12.153   6.877   7.436
52923SOL    HW160602  12.079   6.931   7.411
52923SOL    HW260603  12.150   6.874   7.532
52924SOL     OW60604   0.232  13.650   7.324
52924SOL    HW160605   0.303  13.681   7.381
52924SOL    HW260606   0.266  13.662   7.235
52925SOL     OW60607   3.802   1.713   2.172
52925SOL    HW160608   3.896   1.727   2.157
52925SOL    HW260609   3.797   1.626   2.212
52926SOL     OW60610  14.871   0.359   5.916
52926SOL    HW160611   0.085   0.395   5.933
52926SOL    HW260612  14.845   0.397   5.832
52927SOL     OW60613  13.924   0.879  14.742
52927SOL    HW160614  13.908   0.915  14.829
52927SOL    HW260615  13.945   0.954  14.687
52928SOL     OW60616   4.467  11.873   7.458
52928SOL    HW160617   4.510  11.869   7.543
52928SOL    HW260618   4.420  11.790   7.451
52929SOL     OW60619   1.420   3.140  12.784
52929SOL    HW160620   1.410   3.106  12.873
52929SOL    HW260621   1.358   3.213  12.779
52930SOL     OW60622  14.466  14.184   9.095
52930SOL    HW160623  14.557  14.192   9.068
52930SOL    HW260624  14.464  14.220   9.184
52931SOL     OW60625  13.613  11.377   4.462
52931SOL    HW160626  13.529  11.352   4.500
52931SOL    HW260627  13.658  11.426   4.531
52932SOL     OW60628   3.572   5.070   0.304
52932SOL    HW160629   3.641   5.087   0.368
52932SOL    HW260630   3.491   5.083   0.351
52933SOL     OW60631   9.586   9.518   3.473
52933SOL    HW160632   9.524   9.476   3.414
52933SOL    HW260633   9.563   9.610   3.471
52934SOL     OW60634   5.127   3.043   2.608
52934SOL    HW160635   5.138   3.036   2.513
52934SOL    HW260636   5.215   3.027   2.643
52935SOL     OW60637   2.039  12.913  14.672
52935SOL    HW160638   2.093  12.937  14.748
52935SOL    HW260639   2.078  12.959  14.599
52936SOL     OW60640  11.423   9.062   3.273
52936SOL    HW160641  11.515   9.067   3.247
52936SOL    HW260642  11.389   8.987   3.224
52937SOL     OW60643  10.807  13.492  10.175
52937SOL    HW160644  10.824  13.582  10.145
52937SOL    HW260645  10.843  13.489  10.263
52938SOL     OW60646   6.801   1.395   0.013
52938SOL    HW160647   6.778   1.330  14.820
52938SOL    HW260648   6.862   1.453  14.841
52939SOL     OW60649   4.799  11.789   7.080
52939SOL    HW160650   4.754  11.845   7.017
52939SOL    HW260651   4.789  11.835   7.164
52940SOL     OW60652   0.758   8.256   0.302
52940SOL    HW160653   0.733   8.224   0.388
52940SOL    HW260654   0.678   8.251   0.250
52941SOL     OW60655   9.478   1.629   9.246
52941SOL    HW160656   9.524   1.573   9.310
52941SOL    HW260657   9.410   1.672   9.298
52942SOL     OW60658  13.508   3.036   8.930
52942SOL    HW160659  13.602   3.049   8.945
52942SOL    HW260660  13.470   3.123   8.938
52943SOL     OW60661   3.172   0.855  12.839
52943SOL    HW160662   3.266   0.873  12.842
52943SOL    HW260663   3.134   0.936  12.806
52944SOL     OW60664   5.878   5.236   5.405
52944SOL    HW160665   5.811   5.213   5.470
52944SOL    HW260666   5.841   5.208   5.321
52945SOL     OW60667   0.132   7.313   0.107
52945SOL    HW160668   0.130   7.357   0.192
52945SOL    HW260669   0.213   7.262   0.109
52946SOL     OW60670  12.138  11.510  13.822
52946SOL    HW160671  12.161  11.420  13.801
52946SOL    HW260672  12.206  11.538  13.883
52947SOL     OW60673  11.983   2.352  10.039
52947SOL    HW160674  12.016   2.319   9.956
52947SOL    HW260675  11.899   2.392  10.017
52948SOL     OW60676   4.955  11.359   7.005
52948SOL    HW160677   4.989  11.313   7.083
52948SOL    HW260678   4.962  11.451   7.028
52949SOL     OW60679   4.981   3.913   3.848
52949SOL    HW160680   5.033   3.920   3.928
52949SOL    HW260681   5.027   3.969   3.785
52950SOL     OW60682   4.468  12.343  12.230
52950SOL    HW160683   4.513  12.427  12.216
52950SOL    HW260684   4.538  12.278  12.231
52951SOL     OW60685  14.475   9.098  14.567
52951SOL    HW160686  14.479   9.002  14.561
52951SOL    HW260687  14.390   9.116  14.607
52952SOL     OW60688   0.432  14.209   7.421
52952SOL    HW160689   0.451  14.139   7.483
52952SOL    HW260690   0.473  14.286   7.460
52953SOL     OW60691  11.853   8.112   9.777
52953SOL    HW160692  11.882   8.034   9.825
52953SOL    HW260693  11.819   8.078   9.695
52954SOL     OW60694   1.718  11.583  10.582
52954SOL    HW160695   1.727  11.678  10.593
52954SOL    HW260696   1.717  11.570  10.487
52955SOL     OW60697   2.312   7.774   9.293
52955SOL    HW160698   2.364   7.695   9.304
52955SOL    HW260699   2.360   7.827   9.229
52956SOL     OW60700  11.345  12.313  11.314
52956SOL    HW160701  11.368  12.372  11.385
52956SOL    HW260702  11.427  12.298  11.267
52957SOL     OW60703   2.859   1.149  12.674
52957SOL    HW160704   2.866   1.147  12.770
52957SOL    HW260705   2.905   1.229  12.649
52958SOL     OW60706   0.641   1.336  13.166
52958SOL    HW160707   0.639   1.335  13.071
52958SOL    HW260708   0.724   1.379  13.188
52959SOL     OW60709   0.656   4.226   1.206
52959SOL    HW160710   0.682   4.207   1.296
52959SOL    HW260711   0.571   4.269   1.214
52960SOL     OW60712   7.962   8.375   5.173
52960SOL    HW160713   7.896   8.431   5.132
52960SOL    HW260714   7.920   8.289   5.181
52961SOL     OW60715   6.638   7.274   5.125
52961SOL    HW160716   6.582   7.316   5.190
52961SOL    HW260717   6.618   7.181   5.133
52962SOL     OW60718  10.922   2.395   8.361
52962SOL    HW160719  10.899   2.330   8.295
52962SOL    HW260720  11.018   2.392   8.366
52963SOL     OW60721  12.012  12.727  14.697
52963SOL    HW160722  12.015  12.716  14.792
52963SOL    HW260723  12.088  12.782  14.677
52964SOL     OW60724   4.526  11.415   3.763
52964SOL    HW160725   4.510  11.480   3.831
52964SOL    HW260726   4.519  11.331   3.809
52965SOL     OW60727  11.159  12.266   2.626
52965SOL    HW160728  11.154  12.171   2.636
52965SOL    HW260729  11.200  12.279   2.541
52966SOL     OW60730   1.492  12.693   8.470
52966SOL    HW160731   1.436  12.732   8.403
52966SOL    HW260732   1.431  12.660   8.536
52967SOL     OW60733   7.918  10.388  11.537
52967SOL    HW160734   7.999  10.354  11.574
52967SOL    HW260735   7.917  10.357  11.446
52968SOL     OW60736   2.778   9.340   9.229
52968SOL    HW160737   2.793   9.249   9.257
52968SOL    HW260738   2.702   9.368   9.281
52969SOL     OW60739   2.371   9.374   3.907
52969SOL    HW160740   2.369   9.383   3.812
52969SOL    HW260741   2.414   9.290   3.923
52970SOL     OW60742  13.631   7.692   0.149
52970SOL    HW160743  13.721   7.722   0.138
52970SOL    HW260744  13.612   7.704   0.242
52971SOL     OW60745   0.831   6.839   9.506
52971SOL    HW160746   0.825   6.749   9.473
52971SOL    HW260747   0.920   6.846   9.540
52972SOL     OW60748   2.819   9.088   0.683
52972SOL    HW160749   2.783   9.144   0.752
52972SOL    HW260750   2.843   9.007   0.729
52973SOL     OW60751   2.974   6.012   7.478
52973SOL    HW160752   3.058   5.966   7.479
52973SOL    HW260753   2.932   5.984   7.397
52974SOL     OW60754  11.121  14.111  11.034
52974SOL    HW160755  11.080  14.092  11.119
52974SOL    HW260756  11.069  14.060  10.971
52975SOL     OW60757   2.906   7.752  10.143
52975SOL    HW160758   2.813   7.729  10.145
52975SOL    HW260759   2.908   7.846  10.161
52976SOL     OW60760   8.665   9.970   4.752
52976SOL    HW160761   8.630   9.896   4.704
52976SOL    HW260762   8.752   9.942   4.781
52977SOL     OW60763  12.407   6.160  13.672
52977SOL    HW160764  12.427   6.082  13.724
52977SOL    HW260765  12.433   6.138  13.583
52978SOL     OW60766  13.516   1.432   5.206
52978SOL    HW160767  13.467   1.356   5.239
52978SOL    HW260768  13.607   1.411   5.227
52979SOL     OW60769   2.791  13.470   0.241
52979SOL    HW160770   2.762  13.378   0.238
52979SOL    HW260771   2.884  13.466   0.218
52980SOL     OW60772   9.572  11.116   5.906
52980SOL    HW160773   9.510  11.079   5.969
52980SOL    HW260774   9.560  11.063   5.827
52981SOL     OW60775   3.174   0.913   1.865
52981SOL    HW160776   3.140   0.998   1.892
52981SOL    HW260777   3.097   0.866   1.833
52982SOL     OW60778   5.008   0.434   5.741
52982SOL    HW160779   5.090   0.421   5.693
52982SOL    HW260780   4.952   0.363   5.711
52983SOL     OW60781   0.133   2.630   5.169
52983SOL    HW160782   0.121   2.687   5.245
52983SOL    HW260783   0.164   2.688   5.100
52984SOL     OW60784   0.675   6.116   2.306
52984SOL    HW160785   0.610   6.095   2.373
52984SOL    HW260786   0.752   6.144   2.355
52985SOL     OW60787   5.834   9.984   5.745
52985SOL    HW160788   5.820   9.957   5.654
52985SOL    HW260789   5.922   9.952   5.766
52986SOL     OW60790   8.436   6.111   6.166
52986SOL    HW160791   8.428   6.198   6.128
52986SOL    HW260792   8.414   6.122   6.259
52987SOL     OW60793   4.527  12.661   9.165
52987SOL    HW160794   4.609  12.619   9.192
52987SOL    HW260795   4.499  12.711   9.242
52988SOL     OW60796   6.376   4.392   4.798
52988SOL    HW160797   6.359   4.456   4.867
52988SOL    HW260798   6.414   4.317   4.843
52989SOL     OW60799   7.089  14.301  11.348
52989SOL    HW160800   7.026  14.228  11.349
52989SOL    HW260801   7.151  14.278  11.278
52990SOL     OW60802   1.580   6.513  14.170
52990SOL    HW160803   1.561   6.598  14.130
52990SOL    HW260804   1.606   6.458  14.096
52991SOL     OW60805   1.643   4.686   9.329
52991SOL    HW160806   1.626   4.664   9.237
52991SOL    HW260807   1.659   4.780   9.328
52992SOL     OW60808  14.331   5.459   5.031
52992SOL    HW160809  14.314   5.446   5.124
52992SOL    HW260810  14.412   5.411   5.014
52993SOL     OW60811   2.118  10.864   1.778
52993SOL    HW160812   2.191  10.802   1.774
52993SOL    HW260813   2.046  10.814   1.818
52994SOL     OW60814   2.687   8.895   0.244
52994SOL    HW160815   2.666   8.988   0.237
52994SOL    HW260816   2.737   8.888   0.325
52995SOL     OW60817  10.383  13.658   2.583
52995SOL    HW160818  10.354  13.747   2.563
52995SOL    HW260819  10.306  13.603   2.567
52996SOL     OW60820  14.462  11.270  10.074
52996SOL    HW160821  14.511  11.192  10.048
52996SOL    HW260822  14.465  11.327   9.997
52997SOL     OW60823   9.716   5.657   1.630
52997SOL    HW160824   9.741   5.585   1.573
52997SOL    HW260825   9.635   5.629   1.671
52998SOL     OW60826  12.804   8.463   6.426
52998SOL    HW160827  12.782   8.370   6.421
52998SOL    HW260828  12.734   8.501   6.479
52999SOL     OW60829   0.781   8.363  11.008
52999SOL    HW160830   0.872   8.355  10.980
52999SOL    HW260831   0.734   8.294  10.961
53000SOL     OW60832  10.027   5.522   1.506
53000SOL    HW160833  10.074   5.603   1.486
53000SOL    HW260834   9.984   5.498   1.424
53001SOL     OW60835   0.409  13.788  11.140
53001SOL    HW160836   0.434  13.871  11.098
53001SOL    HW260837   0.451  13.791  11.226
53002SOL     OW60838   1.366  14.228  13.745
53002SOL    HW160839   1.425  14.199  13.815
53002SOL    HW260840   1.279  14.223  13.784
53003SOL     OW60841  14.580   2.771   5.789
53003SOL    HW160842  14.573   2.778   5.884
53003SOL    HW260843  14.604   2.859   5.760
53004SOL     OW60844  13.999   0.506   6.717
53004SOL    HW160845  13.920   0.497   6.770
53004SOL    HW260846  14.053   0.568   6.765
53005SOL     OW60847   9.092   4.943   1.824
53005SOL    HW160848   9.183   4.970   1.816
53005SOL    HW260849   9.043   5.025   1.827
53006SOL     OW60850   9.528   6.264   6.586
53006SOL    HW160851   9.564   6.263   6.675
53006SOL    HW260852   9.589   6.211   6.535
53007SOL     OW60853   8.318   5.635  11.354
53007SOL    HW160854   8.317   5.682  11.271
53007SOL    HW260855   8.381   5.683  11.408
53008SOL     OW60856   4.368   1.745   3.625
53008SOL    HW160857   4.327   1.679   3.569
53008SOL    HW260858   4.446   1.702   3.659
53009SOL     OW60859  13.046   7.139   0.875
53009SOL    HW160860  13.124   7.097   0.911
53009SOL    HW260861  12.973   7.094   0.918
53010SOL     OW60862   2.982   8.037   0.082
53010SOL    HW160863   2.893   8.002   0.078
53010SOL    HW260864   2.982   8.092   0.160
53011SOL     OW60865   2.952   0.948   3.028
53011SOL    HW160866   3.036   0.982   3.059
53011SOL    HW260867   2.952   0.968   2.934
53012SOL     OW60868  10.888  13.266   8.340
53012SOL    HW160869  10.961  13.205   8.351
53012SOL    HW260870  10.819  13.213   8.300
53013SOL     OW60871   7.127  14.131  10.250
53013SOL    HW160872   7.053  14.142  10.310
53013SOL    HW260873   7.104  14.185  10.174
53014SOL     OW60874  11.506  11.290   2.164
53014SOL    HW160875  11.476  11.252   2.246
53014SOL    HW260876  11.501  11.385   2.179
53015SOL     OW60877   8.764  12.668   4.600
53015SOL    HW160878   8.684  12.711   4.629
53015SOL    HW260879   8.783  12.604   4.669
53016SOL     OW60880   0.141   1.762  10.661
53016SOL    HW160881   0.136   1.827  10.731
53016SOL    HW260882   0.232   1.762  10.634
53017SOL     OW60883   9.785   6.325  12.760
53017SOL    HW160884   9.811   6.416  12.744
53017SOL    HW260885   9.779   6.319  12.856
53018SOL     OW60886  14.851   6.771   5.188
53018SOL    HW160887  14.844   6.676   5.180
53018SOL    HW260888   0.070   6.788   5.207
53019SOL     OW60889  14.721  10.702   0.774
53019SOL    HW160890  14.637  10.680   0.814
53019SOL    HW260891  14.703  10.780   0.721
53020SOL     OW60892  12.729  13.009   5.638
53020SOL    HW160893  12.651  13.063   5.648
53020SOL    HW260894  12.695  12.922   5.616
53021SOL     OW60895  13.470  11.266   7.515
53021SOL    HW160896  13.393  11.321   7.506
53021SOL    HW260897  13.519  11.280   7.434
53022SOL     OW60898   7.786  10.239   4.305
53022SOL    HW160899   7.691  10.228   4.312
53022SOL    HW260900   7.798  10.298   4.231
53023SOL     OW60901   0.323   4.958   5.759
53023SOL    HW160902   0.310   4.954   5.664
53023SOL    HW260903   0.416   4.979   5.769
53024SOL     OW60904   4.678  11.687  13.494
53024SOL    HW160905   4.711  11.633  13.422
53024SOL    HW260906   4.691  11.777  13.463
53025SOL     OW60907   6.307   0.436   6.402
53025SOL    HW160908   6.290   0.352   6.443
53025SOL    HW260909   6.323   0.416   6.310
53026SOL     OW60910  10.021   9.110   0.640
53026SOL    HW160911  10.064   9.090   0.723
53026SOL    HW260912  10.058   9.047   0.577
53027SOL     OW60913  11.635   5.690   7.715
53027SOL    HW160914  11.729   5.676   7.720
53027SOL    HW260915  11.609   5.707   7.806
53028SOL     OW60916  10.802   3.953   0.594
53028SOL    HW160917  10.721   4.002   0.577
53028SOL    HW260918  10.844   3.947   0.508
53029SOL     OW60919   4.571   3.990  14.314
53029SOL    HW160920   4.646   3.952  14.360
53029SOL    HW260921   4.609   4.044  14.245
53030SOL     OW60922   7.333   2.041   1.692
53030SOL    HW160923   7.356   2.009   1.605
53030SOL    HW260924   7.417   2.053   1.736
53031SOL     OW60925   0.074  10.770  11.504
53031SOL    HW160926   0.149  10.713  11.524
53031SOL    HW260927   0.086  10.793  11.412
53032SOL     OW60928   1.880   7.640   6.207
53032SOL    HW160929   1.833   7.627   6.125
53032SOL    HW260930   1.969   7.664   6.181
53033SOL     OW60931  14.041   3.024  13.621
53033SOL    HW160932  14.035   3.118  13.604
53033SOL    HW260933  14.018   2.983  13.537
53034SOL     OW60934   8.037  13.841   3.073
53034SOL    HW160935   7.951  13.884   3.073
53034SOL    HW260936   8.028  13.769   3.011
53035SOL     OW60937   0.256  11.049   8.168
53035SOL    HW160938   0.264  11.074   8.260
53035SOL    HW260939   0.300  11.119   8.120
53036SOL     OW60940   1.108   3.271   7.691
53036SOL    HW160941   1.181   3.326   7.717
53036SOL    HW260942   1.031   3.313   7.729
53037SOL     OW60943  12.675  14.825  13.514
53037SOL    HW160944  12.756  14.773  13.518
53037SOL    HW260945  12.663  14.842  13.420
53038SOL     OW60946   8.065  10.606   5.138
53038SOL    HW160947   8.140  10.644   5.091
53038SOL    HW260948   8.005  10.680   5.148
53039SOL     OW60949   8.873  10.248  13.045
53039SOL    HW160950   8.844  10.160  13.066
53039SOL    HW260951   8.824  10.271  12.966
53040SOL     OW60952   6.868   8.447   6.239
53040SOL    HW160953   6.818   8.386   6.293
53040SOL    HW260954   6.845   8.423   6.149
53041SOL     OW60955   1.690  13.253   1.546
53041SOL    HW160956   1.717  13.210   1.465
53041SOL    HW260957   1.600  13.282   1.528
53042SOL     OW60958   0.281   5.791  13.865
53042SOL    HW160959   0.328   5.863  13.823
53042SOL    HW260960   0.302   5.800  13.958
53043SOL     OW60961  10.341   1.788   3.929
53043SOL    HW160962  10.331   1.702   3.969
53043SOL    HW260963  10.341   1.770   3.835
53044SOL     OW60964  13.437   1.439   9.087
53044SOL    HW160965  13.445   1.466   9.178
53044SOL    HW260966  13.353   1.395   9.081
53045SOL     OW60967   2.703   8.856   6.153
53045SOL    HW160968   2.620   8.897   6.175
53045SOL    HW260969   2.694   8.832   6.060
53046SOL     OW60970   3.971   8.394  10.890
53046SOL    HW160971   3.981   8.424  10.980
53046SOL    HW260972   3.888   8.433  10.861
53047SOL     OW60973  10.948  11.286   5.784
53047SOL    HW160974  10.912  11.229   5.716
53047SOL    HW260975  10.943  11.374   5.746
53048SOL     OW60976   9.888   6.014   5.539
53048SOL    HW160977   9.971   6.009   5.492
53048SOL    HW260978   9.908   5.982   5.627
53049SOL     OW60979   8.661   2.061   2.609
53049SOL    HW160980   8.709   1.979   2.596
53049SOL    HW260981   8.701   2.101   2.686
53050SOL     OW60982  11.456  12.948   5.914
53050SOL    HW160983  11.551  12.950   5.913
53050SOL    HW260984  11.430  12.980   5.827
53051SOL     OW60985   1.229  14.420   3.629
53051SOL    HW160986   1.233  14.328   3.656
53051SOL    HW260987   1.316  14.455   3.652
53052SOL     OW60988   5.972  11.300   5.944
53052SOL    HW160989   5.916  11.323   5.870
53052SOL    HW260990   5.990  11.207   5.932
53053SOL     OW60991   8.353   2.441   1.926
53053SOL    HW160992   8.430   2.474   1.879
53053SOL    HW260993   8.333   2.358   1.883
53054SOL     OW60994   5.834  11.006  14.429
53054SOL    HW160995   5.790  10.969  14.352
53054SOL    HW260996   5.796  11.093  14.439
53055SOL     OW60997  10.391   4.932  13.890
53055SOL    HW160998  10.299   4.951  13.911
53055SOL    HW260999  10.439   4.955  13.969
53056SOL     OW61000   1.311   0.235   0.847
53056SOL    HW161001   1.288   0.328   0.856
53056SOL    HW261002   1.285   0.196   0.931
53057SOL     OW61003  10.628   0.044  10.985
53057SOL    HW161004  10.638   0.020  11.077
53057SOL    HW261005  10.686   0.119  10.973
53058SOL     OW61006   5.843   3.333   1.066
53058SOL    HW161007   5.752   3.313   1.092
53058SOL    HW261008   5.839   3.422   1.031
53059SOL     OW61009   3.955   9.922  11.160
53059SOL    HW161010   4.041   9.900  11.125
53059SOL    HW261011   3.911   9.838  11.173
53060SOL     OW61012   2.055   4.898  10.606
53060SOL    HW161013   1.994   4.916  10.534
53060SOL    HW261014   2.138   4.875  10.562
53061SOL     OW61015   6.261  11.756  13.570
53061SOL    HW161016   6.281  11.787  13.658
53061SOL    HW261017   6.310  11.674  13.561
53062SOL     OW61018   5.600  11.015  11.454
53062SOL    HW161019   5.558  11.057  11.529
53062SOL    HW261020   5.527  10.979  11.403
53063SOL     OW61021   3.340   0.777   7.715
53063SOL    HW161022   3.264   0.735   7.755
53063SOL    HW261023   3.403   0.706   7.703
53064SOL     OW61024  10.928   8.885   3.872
53064SOL    HW161025  10.932   8.955   3.937
53064SOL    HW261026  10.838   8.886   3.841
53065SOL     OW61027   7.292   5.923  10.364
53065SOL    HW161028   7.357   5.858  10.338
53065SOL    HW261029   7.261   5.893  10.449
53066SOL     OW61030   7.219  11.442   3.066
53066SOL    HW161031   7.146  11.498   3.040
53066SOL    HW261032   7.249  11.402   2.984
53067SOL     OW61033   2.401   3.447   3.109
53067SOL    HW161034   2.412   3.358   3.145
53067SOL    HW261035   2.439   3.504   3.176
53068SOL     OW61036   2.900   3.737   1.347
53068SOL    HW161037   2.813   3.716   1.382
53068SOL    HW261038   2.890   3.825   1.311
53069SOL     OW61039   2.415  10.720   4.766
53069SOL    HW161040   2.403  10.779   4.841
53069SOL    HW261041   2.510  10.710   4.759
53070SOL     OW61042  14.145   7.645  10.340
53070SOL    HW161043  14.178   7.597  10.416
53070SOL    HW261044  14.120   7.578  10.277
53071SOL     OW61045   4.681  13.190  14.211
53071SOL    HW161046   4.604  13.171  14.265
53071SOL    HW261047   4.662  13.147  14.128
53072SOL     OW61048   9.321   0.469   5.656
53072SOL    HW161049   9.267   0.462   5.735
53072SOL    HW261050   9.379   0.393   5.659
53073SOL     OW61051  10.627   8.837  12.843
53073SOL    HW161052  10.665   8.757  12.807
53073SOL    HW261053  10.585   8.879  12.768
53074SOL     OW61054  11.201  14.457   9.141
53074SOL    HW161055  11.262  14.509   9.194
53074SOL    HW261056  11.244  14.451   9.056
53075SOL     OW61057   1.112   8.286   9.983
53075SOL    HW161058   1.177   8.216   9.983
53075SOL    HW261059   1.043   8.255   9.925
53076SOL     OW61060   3.594   6.319  14.288
53076SOL    HW161061   3.546   6.371  14.354
53076SOL    HW261062   3.612   6.380  14.218
53077SOL     OW61063  14.140  12.288   5.565
53077SOL    HW161064  14.063  12.333   5.530
53077SOL    HW261065  14.198  12.278   5.490
53078SOL     OW61066  12.297   0.793   7.569
53078SOL    HW161067  12.258   0.789   7.656
53078SOL    HW261068  12.356   0.718   7.566
53079SOL     OW61069  12.501  13.096   5.036
53079SOL    HW161070  12.577  13.103   4.979
53079SOL    HW261071  12.443  13.034   4.992
53080SOL     OW61072   6.553   0.074   4.948
53080SOL    HW161073   6.524   0.160   4.979
53080SOL    HW261074   6.599   0.092   4.866
53081SOL     OW61075   3.847   1.273   8.322
53081SOL    HW161076   3.871   1.359   8.287
53081SOL    HW261077   3.895   1.211   8.268
53082SOL     OW61078   4.678   1.606  10.097
53082SOL    HW161079   4.758   1.597  10.045
53082SOL    HW261080   4.671   1.700  10.114
53083SOL     OW61081  14.051   0.465   6.377
53083SOL    HW161082  14.050   0.536   6.441
53083SOL    HW261083  14.122   0.408   6.406
53084SOL     OW61084   2.826   6.171  13.216
53084SOL    HW161085   2.750   6.212  13.175
53084SOL    HW261086   2.789   6.107  13.277
53085SOL     OW61087   8.762  11.428   1.074
53085SOL    HW161088   8.768  11.485   0.997
53085SOL    HW261089   8.705  11.476   1.135
53086SOL     OW61090   1.712   7.577   2.615
53086SOL    HW161091   1.770   7.525   2.669
53086SOL    HW261092   1.707   7.529   2.532
53087SOL     OW61093   3.225   8.237   1.856
53087SOL    HW161094   3.314   8.261   1.832
53087SOL    HW261095   3.169   8.297   1.805
53088SOL     OW61096   0.550  14.156   6.684
53088SOL    HW161097   0.468  14.178   6.728
53088SOL    HW261098   0.618  14.187   6.744
53089SOL     OW61099   5.077  12.161   1.127
53089SOL    HW161100   5.152  12.101   1.127
53089SOL    HW261101   5.115  12.246   1.104
53090SOL     OW61102  13.947   3.805   0.512
53090SOL    HW161103  13.863   3.822   0.469
53090SOL    HW261104  13.958   3.710   0.507
53091SOL     OW61105  10.701   6.033  12.448
53091SOL    HW161106  10.615   6.059  12.478
53091SOL    HW261107  10.718   6.088  12.372
53092SOL     OW61108   8.725  12.224   7.162
53092SOL    HW161109   8.768  12.295   7.115
53092SOL    HW261110   8.693  12.165   7.094
53093SOL     OW61111   6.846   7.519   6.372
53093SOL    HW161112   6.772   7.566   6.335
53093SOL    HW261113   6.917   7.582   6.374
53094SOL     OW61114   5.805   9.447  13.690
53094SOL    HW161115   5.815   9.496  13.772
53094SOL    HW261116   5.863   9.492  13.628
53095SOL     OW61117   2.922  11.285  10.007
53095SOL    HW161118   2.988  11.353  10.020
53095SOL    HW261119   2.926  11.266   9.913
53096SOL     OW61120  10.880   6.301  12.866
53096SOL    HW161121  10.925   6.323  12.784
53096SOL    HW261122  10.863   6.207  12.859
53097SOL     OW61123   3.822  11.773   2.387
53097SOL    HW161124   3.797  11.813   2.304
53097SOL    HW261125   3.917  11.784   2.391
53098SOL     OW61126   9.555   6.987   3.336
53098SOL    HW161127   9.513   6.979   3.421
53098SOL    HW261128   9.504   7.054   3.290
53099SOL     OW61129   2.575  13.239   7.996
53099SOL    HW161130   2.479  13.237   7.994
53099SOL    HW261131   2.598  13.184   8.070
53100SOL     OW61132   8.859   9.122   5.595
53100SOL    HW161133   8.906   9.190   5.546
53100SOL    HW261134   8.905   9.117   5.679
53101SOL     OW61135   3.364  12.348  14.510
53101SOL    HW161136   3.339  12.257  14.530
53101SOL    HW261137   3.371  12.390  14.595
53102SOL     OW61138   7.035   6.984   3.771
53102SOL    HW161139   7.111   6.931   3.748
53102SOL    HW261140   6.972   6.966   3.701
53103SOL     OW61141   8.141  12.508  13.226
53103SOL    HW161142   8.144  12.503  13.131
53103SOL    HW261143   8.177  12.594  13.247
53104SOL     OW61144  10.486   6.980  13.915
53104SOL    HW161145  10.447   6.971  14.002
53104SOL    HW261146  10.574   6.944  13.924
53105SOL     OW61147   2.424   2.731   9.046
53105SOL    HW161148   2.429   2.731   9.142
53105SOL    HW261149   2.386   2.816   9.024
53106SOL     OW61150   8.684  13.929  11.612
53106SOL    HW161151   8.678  13.975  11.528
53106SOL    HW261152   8.618  13.970  11.667
53107SOL     OW61153   9.926  12.197   5.313
53107SOL    HW161154   9.980  12.132   5.268
53107SOL    HW261155   9.924  12.169   5.404
53108SOL     OW61156   8.595   2.710   8.097
53108SOL    HW161157   8.679   2.756   8.092
53108SOL    HW261158   8.600   2.661   8.179
53109SOL     OW61159   0.167   5.353   5.481
53109SOL    HW161160   0.140   5.444   5.469
53109SOL    HW261161   0.088   5.308   5.511
53110SOL     OW61162  11.509  13.904   8.051
53110SOL    HW161163  11.535  13.932   8.139
53110SOL    HW261164  11.453  13.975   8.019
53111SOL     OW61165  10.408  12.012  13.627
53111SOL    HW161166  10.331  12.041  13.579
53111SOL    HW261167  10.390  12.032  13.719
53112SOL     OW61168   3.235  12.484   8.150
53112SOL    HW161169   3.194  12.400   8.128
53112SOL    HW261170   3.184  12.517   8.224
53113SOL     OW61171   8.779  10.180   2.698
53113SOL    HW161172   8.824  10.245   2.645
53113SOL    HW261173   8.691  10.217   2.711
53114SOL     OW61174  11.851   8.542   7.417
53114SOL    HW161175  11.839   8.633   7.389
53114SOL    HW261176  11.764   8.503   7.411
53115SOL     OW61177  10.039  12.274   8.601
53115SOL    HW161178  10.032  12.209   8.531
53115SOL    HW261179  10.105  12.238   8.660
53116SOL     OW61180   8.791   6.073   2.987
53116SOL    HW161181   8.802   6.106   2.898
53116SOL    HW261182   8.728   6.002   2.979
53117SOL     OW61183   9.990   1.068  14.093
53117SOL    HW161184  10.047   1.060  14.170
53117SOL    HW261185   9.977   1.163  14.083
53118SOL     OW61186   8.289   9.336   0.743
53118SOL    HW161187   8.350   9.345   0.669
53118SOL    HW261188   8.273   9.242   0.748
53119SOL     OW61189  12.664  10.593   1.915
53119SOL    HW161190  12.737  10.618   1.971
53119SOL    HW261191  12.703  10.573   1.831
53120SOL     OW61192  10.702  10.195   8.335
53120SOL    HW161193  10.613  10.163   8.322
53120SOL    HW261194  10.754  10.115   8.348
53121SOL     OW61195   7.054  10.216   8.106
53121SOL    HW161196   7.116  10.176   8.046
53121SOL    HW261197   6.968  10.193   8.072
53122SOL     OW61198  14.067   8.253  10.120
53122SOL    HW161199  13.979   8.226  10.145
53122SOL    HW261200  14.053   8.315  10.048
53123SOL     OW61201   7.429  11.340  12.947
53123SOL    HW161202   7.485  11.392  12.890
53123SOL    HW261203   7.365  11.300  12.888
53124SOL     OW61204   7.945   2.622   6.569
53124SOL    HW161205   7.936   2.650   6.660
53124SOL    HW261206   8.007   2.684   6.530
53125SOL     OW61207   3.565   3.238  13.958
53125SOL    HW161208   3.597   3.157  13.920
53125SOL    HW261209   3.495   3.211  14.018
53126SOL     OW61210   8.077   1.522  10.851
53126SOL    HW161211   7.984   1.545  10.852
53126SOL    HW261212   8.082   1.444  10.797
53127SOL     OW61213   4.473   4.156  13.812
53127SOL    HW161214   4.561   4.186  13.790
53127SOL    HW261215   4.415   4.227  13.785
53128SOL     OW61216  11.289   2.432   9.977
53128SOL    HW161217  11.362   2.449   9.917
53128SOL    HW261218  11.304   2.342  10.008
53129SOL     OW61219   9.013   9.376  13.338
53129SOL    HW161220   8.972   9.386  13.252
53129SOL    HW261221   9.022   9.281  13.349
53130SOL     OW61222   0.598  13.925   0.740
53130SOL    HW161223   0.581  13.885   0.655
53130SOL    HW261224   0.553  14.009   0.736
53131SOL     OW61225  12.758   3.710  12.467
53131SOL    HW161226  12.764   3.776  12.398
53131SOL    HW261227  12.793   3.630  12.427
53132SOL     OW61228   3.989   3.673  11.603
53132SOL    HW161229   4.057   3.693  11.668
53132SOL    HW261230   3.926   3.745  11.612
53133SOL     OW61231   0.399   0.634  11.661
53133SOL    HW161232   0.431   0.587  11.738
53133SOL    HW261233   0.454   0.604  11.589
53134SOL     OW61234   2.623   6.927   5.261
53134SOL    HW161235   2.568   6.890   5.192
53134SOL    HW261236   2.684   6.856   5.284
53135SOL     OW61237   3.041  12.617   7.523
53135SOL    HW161238   3.094  12.667   7.586
53135SOL    HW261239   3.048  12.526   7.553
53136SOL     OW61240  11.445   1.772   0.659
53136SOL    HW161241  11.440   1.857   0.702
53136SOL    HW261242  11.539   1.754   0.652
53137SOL     OW61243   1.231   5.423   0.611
53137SOL    HW161244   1.164   5.462   0.555
53137SOL    HW261245   1.313   5.431   0.561
53138SOL     OW61246   1.169   0.155  12.873
53138SOL    HW161247   1.079   0.124  12.861
53138SOL    HW261248   1.217   0.118  12.800
53139SOL     OW61249  12.980   5.033   8.081
53139SOL    HW161250  12.946   4.971   8.016
53139SOL    HW261251  13.070   5.049   8.055
53140SOL     OW61252   7.084  10.402   3.991
53140SOL    HW161253   6.988  10.398   3.985
53140SOL    HW261254   7.114  10.327   3.940
53141SOL     OW61255   5.556   1.146   9.501
53141SOL    HW161256   5.642   1.131   9.463
53141SOL    HW261257   5.509   1.199   9.437
53142SOL     OW61258   5.257   0.310   7.517
53142SOL    HW161259   5.192   0.378   7.535
53142SOL    HW261260   5.234   0.278   7.429
53143SOL     OW61261  12.251  13.701   0.553
53143SOL    HW161262  12.250  13.672   0.644
53143SOL    HW261263  12.236  13.622   0.501
53144SOL     OW61264  13.091   4.282   1.891
53144SOL    HW161265  13.153   4.356   1.891
53144SOL    HW261266  13.147   4.205   1.894
53145SOL     OW61267  10.163   9.519  10.338
53145SOL    HW161268  10.185   9.427  10.350
53145SOL    HW261269  10.210   9.565  10.407
53146SOL     OW61270  14.644   9.334  11.774
53146SOL    HW161271  14.556   9.344  11.810
53146SOL    HW261272  14.701   9.329  11.851
53147SOL     OW61273   0.570   8.784  11.747
53147SOL    HW161274   0.502   8.804  11.682
53147SOL    HW261275   0.652   8.802  11.702
53148SOL     OW61276  10.260  10.714  13.149
53148SOL    HW161277  10.336  10.771  13.160
53148SOL    HW261278  10.193  10.750  13.207
53149SOL     OW61279  12.896   6.269   8.410
53149SOL    HW161280  12.876   6.177   8.389
53149SOL    HW261281  12.878   6.275   8.504
53150SOL     OW61282   7.649   3.036   8.265
53150SOL    HW161283   7.617   2.947   8.256
53150SOL    HW261284   7.685   3.039   8.354
53151SOL     OW61285   7.394   2.398   6.647
53151SOL    HW161286   7.413   2.383   6.554
53151SOL    HW261287   7.461   2.348   6.694
53152SOL     OW61288  14.346   3.911   5.553
53152SOL    HW161289  14.373   3.990   5.507
53152SOL    HW261290  14.297   3.942   5.629
53153SOL     OW61291  11.414   1.097   8.867
53153SOL    HW161292  11.421   1.014   8.820
53153SOL    HW261293  11.410   1.073   8.959
53154SOL     OW61294   6.704  11.467   8.238
53154SOL    HW161295   6.767  11.402   8.269
53154SOL    HW261296   6.646  11.482   8.313
53155SOL     OW61297   0.638   9.932  10.304
53155SOL    HW161298   0.723   9.957  10.341
53155SOL    HW261299   0.659   9.885  10.224
53156SOL     OW61300   1.502  13.623  11.114
53156SOL    HW161301   1.577  13.604  11.058
53156SOL    HW261302   1.535  13.689  11.175
53157SOL     OW61303   6.085  10.195  12.961
53157SOL    HW161304   6.027  10.201  12.885
53157SOL    HW261305   6.166  10.159  12.926
53158SOL     OW61306   5.994   1.463   3.277
53158SOL    HW161307   5.915   1.481   3.329
53158SOL    HW261308   6.014   1.371   3.295
53159SOL     OW61309   6.536  12.380   8.468
53159SOL    HW161310   6.524  12.435   8.390
53159SOL    HW261311   6.448  12.351   8.491
53160SOL     OW61312   3.151   5.255   2.968
53160SOL    HW161313   3.233   5.257   3.017
53160SOL    HW261314   3.177   5.227   2.880
53161SOL     OW61315  13.395  10.479   8.173
53161SOL    HW161316  13.362  10.441   8.254
53161SOL    HW261317  13.381  10.410   8.107
53162SOL     OW61318   2.376  10.817  12.238
53162SOL    HW161319   2.406  10.900  12.275
53162SOL    HW261320   2.415  10.814  12.150
53163SOL     OW61321   0.700   2.782   1.900
53163SOL    HW161322   0.682   2.690   1.920
53163SOL    HW261323   0.614   2.823   1.898
53164SOL     OW61324   5.833   2.149  12.903
53164SOL    HW161325   5.869   2.236  12.922
53164SOL    HW261326   5.740   2.165  12.886
53165SOL     OW61327   2.292  11.109   0.173
53165SOL    HW161328   2.269  11.201   0.159
53165SOL    HW261329   2.386  11.105   0.159
53166SOL     OW61330   2.208   6.662   1.037
53166SOL    HW161331   2.135   6.613   1.075
53166SOL    HW261332   2.195   6.656   0.943
53167SOL     OW61333   4.980  11.976   7.452
53167SOL    HW161334   4.983  12.049   7.391
53167SOL    HW261335   4.888  11.949   7.454
53168SOL     OW61336   7.869  12.706   4.053
53168SOL    HW161337   7.928  12.722   3.980
53168SOL    HW261338   7.923  12.718   4.131
53169SOL     OW61339   6.265   9.282   4.069
53169SOL    HW161340   6.270   9.198   4.114
53169SOL    HW261341   6.317   9.270   3.989
53170SOL     OW61342   5.733   0.487  14.416
53170SOL    HW161343   5.702   0.427  14.484
53170SOL    HW261344   5.751   0.430  14.341
53171SOL     OW61345   6.435   7.049  14.760
53171SOL    HW161346   6.446   7.062  14.665
53171SOL    HW261347   6.491   7.116  14.799
53172SOL     OW61348   3.576   1.117   2.899
53172SOL    HW161349   3.583   1.154   2.987
53172SOL    HW261350   3.549   1.026   2.913
53173SOL     OW61351  10.152   8.421   8.687
53173SOL    HW161352  10.199   8.477   8.749
53173SOL    HW261353  10.218   8.359   8.656
53174SOL     OW61354  10.536   8.250   3.483
53174SOL    HW161355  10.596   8.214   3.417
53174SOL    HW261356  10.511   8.335   3.448
53175SOL     OW61357   6.538  14.197  10.715
53175SOL    HW161358   6.567  14.117  10.672
53175SOL    HW261359   6.585  14.198  10.798
53176SOL     OW61360   1.666  12.957   9.399
53176SOL    HW161361   1.621  13.017   9.459
53176SOL    HW261362   1.596  12.919   9.346
53177SOL     OW61363   8.589   1.803   5.548
53177SOL    HW161364   8.550   1.853   5.476
53177SOL    HW261365   8.626   1.869   5.606
53178SOL     OW61366   4.740  11.614   5.244
53178SOL    HW161367   4.715  11.526   5.218
53178SOL    HW261368   4.660  11.666   5.236
53179SOL     OW61369  11.238   4.173  11.058
53179SOL    HW161370  11.175   4.101  11.067
53179SOL    HW261371  11.306   4.154  11.122
53180SOL     OW61372  13.320   9.938   2.213
53180SOL    HW161373  13.357   9.890   2.287
53180SOL    HW261374  13.396   9.974   2.167
53181SOL     OW61375  11.158   4.411   1.614
53181SOL    HW161376  11.140   4.446   1.527
53181SOL    HW261377  11.115   4.326   1.616
53182SOL     OW61378  11.173   3.185   2.826
53182SOL    HW161379  11.143   3.101   2.861
53182SOL    HW261380  11.268   3.174   2.815
53183SOL     OW61381  11.193   3.798   3.144
53183SOL    HW161382  11.199   3.842   3.059
53183SOL    HW261383  11.176   3.707   3.122
53184SOL     OW61384  14.359  14.761   5.918
53184SOL    HW161385  14.384  14.790   6.006
53184SOL    HW261386  14.322  14.838   5.876
53185SOL     OW61387   2.638   9.354   5.315
53185SOL    HW161388   2.677   9.274   5.281
53185SOL    HW261389   2.707   9.393   5.369
53186SOL     OW61390  12.383   0.677   3.155
53186SOL    HW161391  12.457   0.730   3.182
53186SOL    HW261392  12.418   0.620   3.086
53187SOL     OW61393   2.324   1.288  12.532
53187SOL    HW161394   2.401   1.302  12.588
53187SOL    HW261395   2.279   1.372  12.532
53188SOL     OW61396  10.067  14.082   4.601
53188SOL    HW161397  10.096  14.174   4.600
53188SOL    HW261398  10.110  14.043   4.524
53189SOL     OW61399   6.379   7.809  10.832
53189SOL    HW161400   6.469   7.777  10.818
53189SOL    HW261401   6.386   7.864  10.910
53190SOL     OW61402   6.166   6.618   2.144
53190SOL    HW161403   6.197   6.581   2.062
53190SOL    HW261404   6.239   6.673   2.175
53191SOL     OW61405  10.431  11.509   0.456
53191SOL    HW161406  10.385  11.425   0.445
53191SOL    HW261407  10.372  11.574   0.418
53192SOL     OW61408  13.957   5.906   1.489
53192SOL    HW161409  13.921   5.990   1.462
53192SOL    HW261410  13.950   5.907   1.585
53193SOL     OW61411  14.811   7.429   8.385
53193SOL    HW161412  14.835   7.483   8.461
53193SOL    HW261413  14.811   7.489   8.311
53194SOL     OW61414   6.494   1.083   8.642
53194SOL    HW161415   6.509   1.087   8.547
53194SOL    HW261416   6.562   1.140   8.679
53195SOL     OW61417   0.957  11.959   1.574
53195SOL    HW161418   0.862  11.970   1.573
53195SOL    HW261419   0.981  11.970   1.666
53196SOL     OW61420   2.363  10.915   4.963
53196SOL    HW161421   2.279  10.960   4.972
53196SOL    HW261422   2.391  10.898   5.053
53197SOL     OW61423   1.628   0.554  13.953
53197SOL    HW161424   1.539   0.586  13.937
53197SOL    HW261425   1.678   0.583  13.877
53198SOL     OW61426  12.596   3.460   2.226
53198SOL    HW161427  12.664   3.423   2.169
53198SOL    HW261428  12.608   3.414   2.309
53199SOL     OW61429  13.866   3.198   6.686
53199SOL    HW161430  13.843   3.220   6.777
53199SOL    HW261431  13.826   3.112   6.672
53200SOL     OW61432  10.950   6.905   0.881
53200SOL    HW161433  10.982   6.822   0.844
53200SOL    HW261434  11.012   6.925   0.951
53201SOL     OW61435   0.815  11.774   0.121
53201SOL    HW161436   0.771  11.816   0.046
53201SOL    HW261437   0.842  11.847   0.176
53202SOL     OW61438   8.158   9.045  10.211
53202SOL    HW161439   8.151   8.959  10.170
53202SOL    HW261440   8.078   9.091  10.186
53203SOL     OW61441   8.257   4.978  11.682
53203SOL    HW161442   8.258   4.931  11.599
53203SOL    HW261443   8.167   5.010  11.690
53204SOL     OW61444   8.710   4.751   3.348
53204SOL    HW161445   8.694   4.813   3.277
53204SOL    HW261446   8.714   4.666   3.305
53205SOL     OW61447  11.532   1.631   6.858
53205SOL    HW161448  11.606   1.606   6.913
53205SOL    HW261449  11.564   1.706   6.808
53206SOL     OW61450   0.698   9.236   7.680
53206SOL    HW161451   0.728   9.280   7.599
53206SOL    HW261452   0.673   9.308   7.738
53207SOL     OW61453   3.991   9.318   8.434
53207SOL    HW161454   4.054   9.389   8.425
53207SOL    HW261455   3.974   9.314   8.529
53208SOL     OW61456  12.691   4.302  13.172
53208SOL    HW161457  12.734   4.226  13.211
53208SOL    HW261458  12.598   4.278  13.168
53209SOL     OW61459   8.420   4.078   5.839
53209SOL    HW161460   8.421   4.121   5.754
53209SOL    HW261461   8.505   4.034   5.844
53210SOL     OW61462   4.022  13.360  13.166
53210SOL    HW161463   4.022  13.314  13.250
53210SOL    HW261464   4.107  13.404  13.163
53211SOL     OW61465   3.546   0.054  13.263
53211SOL    HW161466   3.469   0.007  13.293
53211SOL    HW261467   3.595  14.863  13.211
53212SOL     OW61468  12.275  10.669   4.438
53212SOL    HW161469  12.240  10.757   4.455
53212SOL    HW261470  12.210  10.609   4.474
53213SOL     OW61471   6.709  13.019   2.088
53213SOL    HW161472   6.778  12.999   2.025
53213SOL    HW261473   6.703  13.115   2.087
53214SOL     OW61474  10.016   1.288  13.436
53214SOL    HW161475   9.940   1.340  13.411
53214SOL    HW261476  10.091   1.347  13.422
53215SOL     OW61477  10.520  12.711   5.273
53215SOL    HW161478  10.542  12.668   5.356
53215SOL    HW261479  10.499  12.801   5.297
53216SOL     OW61480   8.858   2.758   5.338
53216SOL    HW161481   8.823   2.847   5.338
53216SOL    HW261482   8.940   2.765   5.288
53217SOL     OW61483   2.912  12.933   9.687
53217SOL    HW161484   2.980  12.925   9.754
53217SOL    HW261485   2.863  12.851   9.693
53218SOL     OW61486   7.106   4.413   0.675
53218SOL    HW161487   7.054   4.455   0.606
53218SOL    HW261488   7.174   4.476   0.696
53219SOL     OW61489  13.607  10.592   8.892
53219SOL    HW161490  13.658  10.540   8.831
53219SOL    HW261491  13.652  10.676   8.896
53220SOL     OW61492  10.865  13.305   7.550
53220SOL    HW161493  10.798  13.237   7.552
53220SOL    HW261494  10.862  13.339   7.461
53221SOL     OW61495  12.577  13.621   3.332
53221SOL    HW161496  12.574  13.716   3.320
53221SOL    HW261497  12.666  13.597   3.308
53222SOL     OW61498   0.852  13.531   2.105
53222SOL    HW161499   0.943  13.541   2.077
53222SOL    HW261500   0.803  13.594   2.052
53223SOL     OW61501   5.405  14.615  14.351
53223SOL    HW161502   5.345  14.602  14.277
53223SOL    HW261503   5.358  14.578  14.426
53224SOL     OW61504   2.332   2.317  14.049
53224SOL    HW161505   2.236   2.315  14.050
53224SOL    HW261506   2.357   2.295  14.139
53225SOL     OW61507   3.839  13.233   6.704
53225SOL    HW161508   3.808  13.234   6.614
53225SOL    HW261509   3.841  13.141   6.729
53226SOL     OW61510  13.073   2.810   7.645
53226SOL    HW161511  13.129   2.844   7.575
53226SOL    HW261512  13.034   2.888   7.685
53227SOL     OW61513  13.357  13.427   9.891
53227SOL    HW161514  13.393  13.481   9.961
53227SOL    HW261515  13.332  13.346   9.934
53228SOL     OW61516   5.277  11.253  10.195
53228SOL    HW161517   5.208  11.187  10.199
53228SOL    HW261518   5.350  11.209  10.152
53229SOL     OW61519  14.461   1.156   8.858
53229SOL    HW161520  14.448   1.130   8.950
53229SOL    HW261521  14.464   1.252   8.861
53230SOL     OW61522  14.226   2.834   9.851
53230SOL    HW161523  14.273   2.833   9.768
53230SOL    HW261524  14.201   2.926   9.863
53231SOL     OW61525   5.635  13.353   2.403
53231SOL    HW161526   5.708  13.308   2.359
53231SOL    HW261527   5.570  13.284   2.417
53232SOL     OW61528   2.560   1.160  12.963
53232SOL    HW161529   2.653   1.180  12.963
53232SOL    HW261530   2.552   1.076  12.918
53233SOL     OW61531   8.823   9.582   7.757
53233SOL    HW161532   8.861   9.584   7.669
53233SOL    HW261533   8.738   9.540   7.745
53234SOL     OW61534   0.471  11.237   9.484
53234SOL    HW161535   0.498  11.175   9.553
53234SOL    HW261536   0.414  11.299   9.530
53235SOL     OW61537  13.561   0.997   6.135
53235SOL    HW161538  13.552   0.961   6.047
53235SOL    HW261539  13.624   0.940   6.178
53236SOL     OW61540  13.457   0.965   3.882
53236SOL    HW161541  13.413   0.893   3.928
53236SOL    HW261542  13.406   0.978   3.802
53237SOL     OW61543  11.746  14.220  14.473
53237SOL    HW161544  11.702  14.135  14.481
53237SOL    HW261545  11.716  14.269  14.550
53238SOL     OW61546  12.494  11.620   9.691
53238SOL    HW161547  12.518  11.548   9.749
53238SOL    HW261548  12.454  11.577   9.615
53239SOL     OW61549  13.901   3.893   1.846
53239SOL    HW161550  13.847   3.919   1.920
53239SOL    HW261551  13.928   3.975   1.805
53240SOL     OW61552  10.745   1.159   9.801
53240SOL    HW161553  10.673   1.132   9.744
53240SOL    HW261554  10.729   1.253   9.816
53241SOL     OW61555   7.840  10.325   8.222
53241SOL    HW161556   7.903  10.295   8.156
53241SOL    HW261557   7.853  10.420   8.226
53242SOL     OW61558   0.867   5.089   0.955
53242SOL    HW161559   0.947   5.038   0.946
53242SOL    HW261560   0.866   5.146   0.877
53243SOL     OW61561   1.658   0.309   1.170
53243SOL    HW161562   1.689   0.223   1.199
53243SOL    HW261563   1.731   0.345   1.120
53244SOL     OW61564   0.875  14.679   0.336
53244SOL    HW161565   0.832  14.604   0.379
53244SOL    HW261566   0.943  14.639   0.283
53245SOL     OW61567   9.168   7.589   2.505
53245SOL    HW161568   9.229   7.654   2.540
53245SOL    HW261569   9.089   7.599   2.558
53246SOL     OW61570  11.822  11.418  14.703
53246SOL    HW161571  11.797  11.326  14.710
53246SOL    HW261572  11.892  11.429  14.768
53247SOL     OW61573   3.699   0.005   9.038
53247SOL    HW161574   3.789   0.038   9.045
53247SOL    HW261575   3.659   0.028   9.122
53248SOL     OW61576   6.758   9.557  13.529
53248SOL    HW161577   6.799   9.629  13.576
53248SOL    HW261578   6.814   9.481  13.546
53249SOL     OW61579   2.869   1.872   7.351
53249SOL    HW161580   2.881   1.966   7.364
53249SOL    HW261581   2.895   1.857   7.260
53250SOL     OW61582  14.635   6.266   3.211
53250SOL    HW161583  14.706   6.305   3.159
53250SOL    HW261584  14.589   6.209   3.150
53251SOL     OW61585  10.022   0.207   0.975
53251SOL    HW161586   9.949   0.148   0.960
53251SOL    HW261587  10.002   0.285   0.923
53252SOL     OW61588   4.089   4.125   9.871
53252SOL    HW161589   4.147   4.119   9.946
53252SOL    HW261590   4.130   4.189   9.813
53253SOL     OW61591   0.836   9.349   9.713
53253SOL    HW161592   0.858   9.280   9.650
53253SOL    HW261593   0.752   9.383   9.683
53254SOL     OW61594  13.722  12.632   1.671
53254SOL    HW161595  13.678  12.586   1.742
53254SOL    HW261596  13.652  12.654   1.609
53255SOL     OW61597  13.327   2.732   5.861
53255SOL    HW161598  13.414   2.755   5.827
53255SOL    HW261599  13.301   2.656   5.810
53256SOL     OW61600  10.625  11.852  10.812
53256SOL    HW161601  10.702  11.905  10.792
53256SOL    HW261602  10.602  11.876  10.902
53257SOL     OW61603   6.185   1.107   3.011
53257SOL    HW161604   6.153   1.126   2.922
53257SOL    HW261605   6.108   1.074   3.057
53258SOL     OW61606  10.736   2.485   3.611
53258SOL    HW161607  10.743   2.578   3.590
53258SOL    HW261608  10.718   2.483   3.705
53259SOL     OW61609   0.324   7.847  12.026
53259SOL    HW161610   0.319   7.763  12.071
53259SOL    HW261611   0.233   7.870  12.008
53260SOL     OW61612  13.199  12.235  13.512
53260SOL    HW161613  13.294  12.234  13.522
53260SOL    HW261614  13.171  12.146  13.534
53261SOL     OW61615   0.799  11.487   3.769
53261SOL    HW161616   0.857  11.420   3.804
53261SOL    HW261617   0.722  11.439   3.739
53262SOL     OW61618   2.179   1.579   8.087
53262SOL    HW161619   2.183   1.575   7.991
53262SOL    HW261620   2.258   1.534   8.116
53263SOL     OW61621  13.161  11.774   4.571
53263SOL    HW161622  13.216  11.697   4.583
53263SOL    HW261623  13.177  11.827   4.649
53264SOL     OW61624  14.404   3.603   9.366
53264SOL    HW161625  14.446   3.663   9.427
53264SOL    HW261626  14.324   3.649   9.338
53265SOL     OW61627  13.367   5.661  13.004
53265SOL    HW161628  13.334   5.582  13.046
53265SOL    HW261629  13.290   5.718  12.996
53266SOL     OW61630  14.804   7.733   6.317
53266SOL    HW161631   0.009   7.753   6.265
53266SOL    HW261632  14.745   7.807   6.301
53267SOL     OW61633   5.504   5.620  13.529
53267SOL    HW161634   5.563   5.694  13.542
53267SOL    HW261635   5.455   5.642  13.450
53268SOL     OW61636  10.029  12.006   3.164
53268SOL    HW161637   9.964  11.961   3.218
53268SOL    HW261638  10.096  11.940   3.145
53269SOL     OW61639  12.692  10.852  10.811
53269SOL    HW161640  12.629  10.908  10.767
53269SOL    HW261641  12.651  10.765  10.812
53270SOL     OW61642   6.751   3.381   7.170
53270SOL    HW161643   6.717   3.395   7.259
53270SOL    HW261644   6.833   3.430   7.168
53271SOL     OW61645   6.210  13.707  12.212
53271SOL    HW161646   6.255  13.731  12.131
53271SOL    HW261647   6.274  13.652  12.258
53272SOL     OW61648   7.146  13.734  14.359
53272SOL    HW161649   7.179  13.645  14.353
53272SOL    HW261650   7.066  13.734  14.307
53273SOL     OW61651  11.320   4.751   9.702
53273SOL    HW161652  11.319   4.661   9.736
53273SOL    HW261653  11.344   4.742   9.610
53274SOL     OW61654   2.821   0.800   2.817
53274SOL    HW161655   2.802   0.753   2.735
53274SOL    HW261656   2.874   0.739   2.868
53275SOL     OW61657  12.976  14.224  13.912
53275SOL    HW161658  13.050  14.163  13.906
53275SOL    HW261659  12.986  14.282  13.837
53276SOL     OW61660   0.538  10.017  14.176
53276SOL    HW161661   0.488  10.097  14.192
53276SOL    HW261662   0.570  10.026  14.086
53277SOL     OW61663   6.693  12.885   8.771
53277SOL    HW161664   6.641  12.882   8.851
53277SOL    HW261665   6.699  12.978   8.750
53278SOL     OW61666   6.654   8.458   4.035
53278SOL    HW161667   6.593   8.416   3.974
53278SOL    HW261668   6.631   8.422   4.121
53279SOL     OW61669   0.118   5.103  10.278
53279SOL    HW161670   0.109   5.015  10.314
53279SOL    HW261671   0.146   5.157  10.352
53280SOL     OW61672   2.212  12.748   5.215
53280SOL    HW161673   2.224  12.654   5.198
53280SOL    HW261674   2.296  12.787   5.193
53281SOL     OW61675  10.036   9.026   5.304
53281SOL    HW161676   9.995   8.958   5.250
53281SOL    HW261677   9.983   9.104   5.290
53282SOL     OW61678  10.807   4.448   4.030
53282SOL    HW161679  10.811   4.367   3.979
53282SOL    HW261680  10.727   4.491   4.000
53283SOL     OW61681   0.986  14.270   0.670
53283SOL    HW161682   0.984  14.218   0.751
53283SOL    HW261683   1.069  14.318   0.675
53284SOL     OW61684   8.196   1.042  12.018
53284SOL    HW161685   8.190   1.129  11.978
53284SOL    HW261686   8.192   1.057  12.112
53285SOL     OW61687   1.771  10.198  11.552
53285SOL    HW161688   1.831  10.200  11.478
53285SOL    HW261689   1.706  10.265  11.533
53286SOL     OW61690   3.617   7.034  12.715
53286SOL    HW161691   3.705   7.006  12.692
53286SOL    HW261692   3.599   7.108  12.657
53287SOL     OW61693  14.495  14.400   6.708
53287SOL    HW161694  14.546  14.480   6.689
53287SOL    HW261695  14.479  14.404   6.802
53288SOL     OW61696   8.295   1.703   1.703
53288SOL    HW161697   8.299   1.752   1.785
53288SOL    HW261698   8.213   1.654   1.708
53289SOL     OW61699  10.579   7.995  12.100
53289SOL    HW161700  10.536   7.961  12.179
53289SOL    HW261701  10.626   7.919  12.064
53290SOL     OW61702  14.117   3.103   7.666
53290SOL    HW161703  14.117   3.157   7.745
53290SOL    HW261704  14.209   3.095   7.642
53291SOL     OW61705  11.654   6.222   8.021
53291SOL    HW161706  11.613   6.199   7.938
53291SOL    HW261707  11.650   6.142   8.073
53292SOL     OW61708   8.979   8.283   2.384
53292SOL    HW161709   8.951   8.273   2.293
53292SOL    HW261710   9.060   8.334   2.378
53293SOL     OW61711   9.948   2.957   3.967
53293SOL    HW161712   9.956   3.016   4.042
53293SOL    HW261713   9.971   2.871   4.002
53294SOL     OW61714  12.324  13.897   1.197
53294SOL    HW161715  12.263  13.837   1.153
53294SOL    HW261716  12.280  13.982   1.196
53295SOL     OW61717   1.499   2.852   8.759
53295SOL    HW161718   1.496   2.920   8.826
53295SOL    HW261719   1.415   2.807   8.766
53296SOL     OW61720  14.121   6.596  12.348
53296SOL    HW161721  14.185   6.533  12.381
53296SOL    HW261722  14.107   6.656  12.421
53297SOL     OW61723   7.216  14.450  14.524
53297SOL    HW161724   7.125  14.449  14.553
53297SOL    HW261725   7.257  14.518  14.578
53298SOL     OW61726   6.238  14.481   8.510
53298SOL    HW161727   6.157  14.473   8.560
53298SOL    HW261728   6.234  14.569   8.473
53299SOL     OW61729   2.117  10.806   4.413
53299SOL    HW161730   2.201  10.798   4.457
53299SOL    HW261731   2.138  10.845   4.328
53300SOL     OW61732   2.558   4.880   2.190
53300SOL    HW161733   2.559   4.941   2.264
53300SOL    HW261734   2.590   4.797   2.226
53301SOL     OW61735   5.798   0.530  12.275
53301SOL    HW161736   5.756   0.612  12.301
53301SOL    HW261737   5.788   0.527  12.180
53302SOL     OW61738   6.569   4.284   7.865
53302SOL    HW161739   6.606   4.249   7.783
53302SOL    HW261740   6.640   4.335   7.903
53303SOL     OW61741   9.822   5.355   4.072
53303SOL    HW161742   9.774   5.438   4.066
53303SOL    HW261743   9.889   5.362   4.003
53304SOL     OW61744   1.057   0.301  12.096
53304SOL    HW161745   0.995   0.312  12.024
53304SOL    HW261746   1.029   0.365  12.162
53305SOL     OW61747   1.475   8.285   1.384
53305SOL    HW161748   1.461   8.372   1.347
53305SOL    HW261749   1.435   8.289   1.471
53306SOL     OW61750   6.058   1.057   8.091
53306SOL    HW161751   6.026   1.120   8.155
53306SOL    HW261752   6.107   1.110   8.028
53307SOL     OW61753   5.070   2.341   2.816
53307SOL    HW161754   5.117   2.268   2.775
53307SOL    HW261755   4.983   2.338   2.778
53308SOL     OW61756   1.345   0.095   2.282
53308SOL    HW161757   1.363   0.136   2.367
53308SOL    HW261758   1.376   0.159   2.218
53309SOL     OW61759   0.314   6.639   1.580
53309SOL    HW161760   0.334   6.553   1.545
53309SOL    HW261761   0.381   6.697   1.544
53310SOL     OW61762  13.658   3.366   4.315
53310SOL    HW161763  13.743   3.323   4.324
53310SOL    HW261764  13.667   3.420   4.236
53311SOL     OW61765  13.023  13.484  12.082
53311SOL    HW161766  12.971  13.560  12.107
53311SOL    HW261767  12.958  13.416  12.063
53312SOL     OW61768  11.846  12.479   6.000
53312SOL    HW161769  11.922  12.507   5.948
53312SOL    HW261770  11.770  12.500   5.945
53313SOL     OW61771   1.115  10.353  13.311
53313SOL    HW161772   1.152  10.267  13.293
53313SOL    HW261773   1.065  10.374  13.232
53314SOL     OW61774   6.846  10.862   8.839
53314SOL    HW161775   6.934  10.844   8.807
53314SOL    HW261776   6.856  10.938   8.896
53315SOL     OW61777  11.106   5.425  14.059
53315SOL    HW161778  11.171   5.435  14.128
53315SOL    HW261779  11.093   5.331  14.051
53316SOL     OW61780   2.364   7.004   4.798
53316SOL    HW161781   2.316   6.926   4.825
53316SOL    HW261782   2.342   7.070   4.864
53317SOL     OW61783  13.007   9.817   3.697
53317SOL    HW161784  12.995   9.912   3.694
53317SOL    HW261785  13.089   9.802   3.649
53318SOL     OW61786   8.717   1.157   5.608
53318SOL    HW161787   8.699   1.167   5.701
53318SOL    HW261788   8.726   1.247   5.575
53319SOL     OW61789  11.290   9.225   5.439
53319SOL    HW161790  11.232   9.285   5.392
53319SOL    HW261791  11.232   9.179   5.500
53320SOL     OW61792  14.353  13.539   1.009
53320SOL    HW161793  14.410  13.513   1.081
53320SOL    HW261794  14.401  13.512   0.930
53321SOL     OW61795   0.255  12.541   4.376
53321SOL    HW161796   0.316  12.595   4.426
53321SOL    HW261797   0.243  12.462   4.429
53322SOL     OW61798   5.147  10.811  11.285
53322SOL    HW161799   5.227  10.775  11.246
53322SOL    HW261800   5.105  10.736  11.327
53323SOL     OW61801   4.324   4.785  11.261
53323SOL    HW161802   4.310   4.778  11.166
53323SOL    HW261803   4.371   4.867  11.272
53324SOL     OW61804   0.113   0.552   6.976
53324SOL    HW161805   0.035   0.511   7.014
53324SOL    HW261806   0.090   0.565   6.883
53325SOL     OW61807   0.908   2.893  12.168
53325SOL    HW161808   0.993   2.930  12.143
53325SOL    HW261809   0.846   2.963  12.150
53326SOL     OW61810  11.753  10.516   9.513
53326SOL    HW161811  11.688  10.491   9.448
53326SOL    HW261812  11.718  10.595   9.554
53327SOL     OW61813   6.556  12.616  13.401
53327SOL    HW161814   6.563  12.578  13.488
53327SOL    HW261815   6.473  12.582  13.366
53328SOL     OW61816  12.357   0.941   7.133
53328SOL    HW161817  12.323   0.958   7.045
53328SOL    HW261818  12.288   0.890   7.176
53329SOL     OW61819   1.217   7.804  13.178
53329SOL    HW161820   1.284   7.755  13.131
53329SOL    HW261821   1.137   7.751  13.168
53330SOL     OW61822   5.412   4.877   5.667
53330SOL    HW161823   5.471   4.884   5.593
53330SOL    HW261824   5.359   4.956   5.664
53331SOL     OW61825   5.535  11.541   4.892
53331SOL    HW161826   5.548  11.459   4.846
53331SOL    HW261827   5.564  11.523   4.982
53332SOL     OW61828  14.314  11.560  11.014
53332SOL    HW161829  14.227  11.554  11.055
53332SOL    HW261830  14.321  11.479  10.964
53333SOL     OW61831  11.850  11.866   3.055
53333SOL    HW161832  11.792  11.932   3.018
53333SOL    HW261833  11.927  11.867   2.997
53334SOL     OW61834   4.194  12.456   6.126
53334SOL    HW161835   4.208  12.381   6.068
53334SOL    HW261836   4.180  12.530   6.067
53335SOL     OW61837   2.803  14.816   1.278
53335SOL    HW161838   2.862   0.010   1.243
53335SOL    HW261839   2.718  14.836   1.239
53336SOL     OW61840   7.599   9.395   8.574
53336SOL    HW161841   7.685   9.363   8.600
53336SOL    HW261842   7.548   9.316   8.556
53337SOL     OW61843  14.233  14.009   7.526
53337SOL    HW161844  14.229  14.092   7.476
53337SOL    HW261845  14.314  13.968   7.496
53338SOL     OW61846  10.534   4.530   3.966
53338SOL    HW161847  10.478   4.608   3.962
53338SOL    HW261848  10.484   4.461   3.924
53339SOL     OW61849   1.584   5.369   7.120
53339SOL    HW161850   1.505   5.424   7.122
53339SOL    HW261851   1.609   5.360   7.212
53340SOL     OW61852   2.531   9.527   7.077
53340SOL    HW161853   2.583   9.448   7.066
53340SOL    HW261854   2.568   9.571   7.153
53341SOL     OW61855  12.391   6.027   3.191
53341SOL    HW161856  12.397   6.113   3.149
53341SOL    HW261857  12.473   6.018   3.239
53342SOL     OW61858   9.937  12.163   1.356
53342SOL    HW161859   9.869  12.178   1.421
53342SOL    HW261860   9.903  12.202   1.276
53343SOL     OW61861  10.593   5.123   7.995
53343SOL    HW161862  10.671   5.174   8.016
53343SOL    HW261863  10.574   5.074   8.075
53344SOL     OW61864   9.239   8.291   8.729
53344SOL    HW161865   9.168   8.227   8.732
53344SOL    HW261866   9.303   8.252   8.668
53345SOL     OW61867   5.109   1.659   6.807
53345SOL    HW161868   5.140   1.749   6.823
53345SOL    HW261869   5.098   1.622   6.895
53346SOL     OW61870   9.714  14.328   1.868
53346SOL    HW161871   9.639  14.384   1.848
53346SOL    HW261872   9.762  14.376   1.935
53347SOL     OW61873   2.883   7.288   9.378
53347SOL    HW161874   2.801   7.280   9.428
53347SOL    HW261875   2.862   7.253   9.292
53348SOL     OW61876   9.106   3.407   1.210
53348SOL    HW161877   9.011   3.410   1.202
53348SOL    HW261878   9.133   3.340   1.148
53349SOL     OW61879  13.522  12.237  10.541
53349SOL    HW161880  13.568  12.159  10.510
53349SOL    HW261881  13.558  12.309  10.488
53350SOL     OW61882   0.555   7.622   6.074
53350SOL    HW161883   0.548   7.615   5.979
53350SOL    HW261884   0.604   7.544   6.100
53351SOL     OW61885   9.033   3.421   6.705
53351SOL    HW161886   9.119   3.425   6.748
53351SOL    HW261887   9.054   3.408   6.612
53352SOL     OW61888  13.603   6.249  14.787
53352SOL    HW161889  13.636   6.320  14.732
53352SOL    HW261890  13.664   6.245  14.861
53353SOL     OW61891   2.508   1.444  10.067
53353SOL    HW161892   2.516   1.536  10.093
53353SOL    HW261893   2.576   1.398  10.116
53354SOL     OW61894   6.437  13.060  10.708
53354SOL    HW161895   6.524  13.051  10.748
53354SOL    HW261896   6.378  13.014  10.768
53355SOL     OW61897  14.258   6.115   1.486
53355SOL    HW161898  14.199   6.043   1.509
53355SOL    HW261899  14.319   6.121   1.559
53356SOL     OW61900   5.741  14.766  11.502
53356SOL    HW161901   5.756  14.679  11.539
53356SOL    HW261902   5.696  14.748  11.419
53357SOL     OW61903   4.290   2.017  10.146
53357SOL    HW161904   4.323   1.933  10.177
53357SOL    HW261905   4.250   2.057  10.224
53358SOL     OW61906  12.237   2.903   7.594
53358SOL    HW161907  12.313   2.924   7.539
53358SOL    HW261908  12.274   2.871   7.676
53359SOL     OW61909  11.712  10.932  13.673
53359SOL    HW161910  11.731  10.930  13.767
53359SOL    HW261911  11.798  10.928  13.632
53360SOL     OW61912   9.776   0.808   7.237
53360SOL    HW161913   9.746   0.851   7.157
53360SOL    HW261914   9.754   0.869   7.307
53361SOL     OW61915   5.242   0.307  11.480
53361SOL    HW161916   5.188   0.374  11.521
53361SOL    HW261917   5.287   0.264  11.553
53362SOL     OW61918  13.034   7.303   9.899
53362SOL    HW161919  12.954   7.302   9.951
53362SOL    HW261920  13.082   7.380   9.930
53363SOL     OW61921   3.161  10.601   3.444
53363SOL    HW161922   3.208  10.651   3.511
53363SOL    HW261923   3.084  10.568   3.490
53364SOL     OW61924   7.602   9.990  10.504
53364SOL    HW161925   7.513   9.976  10.536
53364SOL    HW261926   7.604  10.082  10.479
53365SOL     OW61927   2.203   4.279   1.586
53365SOL    HW161928   2.229   4.364   1.550
53365SOL    HW261929   2.112   4.290   1.612
53366SOL     OW61930   6.231   6.933   4.812
53366SOL    HW161931   6.307   6.981   4.845
53366SOL    HW261932   6.188   6.898   4.890
53367SOL     OW61933   5.728   7.203   7.369
53367SOL    HW161934   5.690   7.273   7.422
53367SOL    HW261935   5.659   7.136   7.366
53368SOL     OW61936   6.725   7.027   0.262
53368SOL    HW161937   6.792   6.997   0.323
53368SOL    HW261938   6.660   6.956   0.262
53369SOL     OW61939   9.926  12.153  12.436
53369SOL    HW161940   9.930  12.239  12.395
53369SOL    HW261941   9.847  12.113  12.401
53370SOL     OW61942   0.724  11.932   9.713
53370SOL    HW161943   0.739  11.844   9.680
53370SOL    HW261944   0.710  11.921   9.807
53371SOL     OW61945   9.589   2.358  10.863
53371SOL    HW161946   9.581   2.420  10.936
53371SOL    HW261947   9.683   2.351  10.847
53372SOL     OW61948   3.463  13.481   9.425
53372SOL    HW161949   3.535  13.426   9.456
53372SOL    HW261950   3.491  13.510   9.338
53373SOL     OW61951   3.401   4.833   8.149
53373SOL    HW161952   3.393   4.897   8.080
53373SOL    HW261953   3.386   4.749   8.106
53374SOL     OW61954   5.289   1.944  12.765
53374SOL    HW161955   5.226   1.977  12.829
53374SOL    HW261956   5.340   1.879  12.812
53375SOL     OW61957  11.132  14.136  13.629
53375SOL    HW161958  11.166  14.204  13.687
53375SOL    HW261959  11.149  14.168  13.541
53376SOL     OW61960  13.538   1.900   6.487
53376SOL    HW161961  13.504   1.970   6.431
53376SOL    HW261962  13.628   1.886   6.457
53377SOL     OW61963  12.153   5.060   8.612
53377SOL    HW161964  12.061   5.088   8.622
53377SOL    HW261965  12.177   5.088   8.523
53378SOL     OW61966  12.862  10.453   6.974
53378SOL    HW161967  12.901  10.532   7.009
53378SOL    HW261968  12.936  10.399   6.945
53379SOL     OW61969   9.177  10.729  14.140
53379SOL    HW161970   9.130  10.731  14.057
53379SOL    HW261971   9.109  10.730  14.207
53380SOL     OW61972   5.293   3.347   0.009
53380SOL    HW161973   5.318   3.278  14.820
53380SOL    HW261974   5.230   3.401  14.834
53381SOL     OW61975   0.084   9.951   4.166
53381SOL    HW161976   0.028   9.924   4.093
53381SOL    HW261977   0.041  10.029   4.202
53382SOL     OW61978   7.325  13.743   0.961
53382SOL    HW161979   7.390  13.681   0.993
53382SOL    HW261980   7.269  13.692   0.903
53383SOL     OW61981   0.761   6.923   8.801
53383SOL    HW161982   0.746   6.869   8.878
53383SOL    HW261983   0.855   6.917   8.784
53384SOL     OW61984   3.662   0.342   0.838
53384SOL    HW161985   3.606   0.305   0.907
53384SOL    HW261986   3.674   0.270   0.776
53385SOL     OW61987   2.119   8.955   9.941
53385SOL    HW161988   2.120   8.965   9.845
53385SOL    HW261989   2.209   8.975   9.967
53386SOL     OW61990   7.193  12.684   3.346
53386SOL    HW161991   7.236  12.603   3.318
53386SOL    HW261992   7.211  12.690   3.440
53387SOL     OW61993   5.937   9.317   1.302
53387SOL    HW161994   5.942   9.274   1.217
53387SOL    HW261995   5.891   9.399   1.285
53388SOL     OW61996  10.249  12.343   3.004
53388SOL    HW161997  10.318  12.408   3.016
53388SOL    HW261998  10.190  12.356   3.078
53389SOL     OW61999  14.780   0.265   6.325
53389SOL    HW162000  14.824   0.215   6.257
53389SOL    HW262001  14.730   0.331   6.278
53390SOL     OW62002   7.586   2.985   9.422
53390SOL    HW162003   7.551   2.897   9.430
53390SOL    HW262004   7.586   3.003   9.328
53391SOL     OW62005  14.686   3.019  10.851
53391SOL    HW162006  14.769   3.021  10.804
53391SOL    HW262007  14.699   3.079  10.925
53392SOL     OW62008   3.967  13.933  13.095
53392SOL    HW162009   3.943  13.865  13.158
53392SOL    HW262010   3.997  13.885  13.018
53393SOL     OW62011   3.205   5.336   5.507
53393SOL    HW162012   3.181   5.420   5.467
53393SOL    HW262013   3.283   5.355   5.558
53394SOL     OW62014   5.510  13.360   7.865
53394SOL    HW162015   5.589  13.410   7.845
53394SOL    HW262016   5.537  13.298   7.933
53395SOL     OW62017  10.158  11.736  11.062
53395SOL    HW162018  10.206  11.788  10.997
53395SOL    HW262019  10.110  11.800  11.114
53396SOL     OW62020   7.418   1.179   1.073
53396SOL    HW162021   7.502   1.136   1.089
53396SOL    HW262022   7.358   1.138   1.136
53397SOL     OW62023   4.479  10.146   8.480
53397SOL    HW162024   4.482  10.053   8.502
53397SOL    HW262025   4.530  10.188   8.550
53398SOL     OW62026   9.702   4.461  13.082
53398SOL    HW162027   9.748   4.474  13.165
53398SOL    HW262028   9.659   4.546  13.066
53399SOL     OW62029   0.572  11.352   3.667
53399SOL    HW162030   0.560  11.262   3.637
53399SOL    HW262031   0.503  11.365   3.731
53400SOL     OW62032   5.455   7.226   2.077
53400SOL    HW162033   5.467   7.299   2.138
53400SOL    HW262034   5.467   7.147   2.130
53401SOL     OW62035   3.847   9.022  13.076
53401SOL    HW162036   3.863   8.992  13.165
53401SOL    HW262037   3.894   9.106  13.070
53402SOL     OW62038  10.094   1.798  13.448
53402SOL    HW162039  10.171   1.852  13.464
53402SOL    HW262040  10.073   1.760  13.533
53403SOL     OW62041   0.229   3.656   4.914
53403SOL    HW162042   0.165   3.660   4.985
53403SOL    HW262043   0.310   3.626   4.955
53404SOL     OW62044   6.829   0.474   8.656
53404SOL    HW162045   6.766   0.418   8.612
53404SOL    HW262046   6.854   0.425   8.734
53405SOL     OW62047   2.762   7.361   8.870
53405SOL    HW162048   2.681   7.315   8.847
53405SOL    HW262049   2.770   7.349   8.964
53406SOL     OW62050   2.465   7.311  10.659
53406SOL    HW162051   2.462   7.395  10.705
53406SOL    HW262052   2.550   7.313  10.614
53407SOL     OW62053  10.939  10.625   7.196
53407SOL    HW162054  10.989  10.602   7.117
53407SOL    HW262055  10.934  10.543   7.245
53408SOL     OW62056   5.135  11.097  13.363
53408SOL    HW162057   5.085  11.168  13.404
53408SOL    HW262058   5.156  11.130  13.276
53409SOL     OW62059   0.034   3.774  10.569
53409SOL    HW162060   0.074   3.837  10.509
53409SOL    HW262061   0.089   3.696  10.563
53410SOL     OW62062   6.531  11.484   0.211
53410SOL    HW162063   6.582  11.483   0.292
53410SOL    HW262064   6.476  11.406   0.217
53411SOL     OW62065   4.509  11.490  12.478
53411SOL    HW162066   4.532  11.468  12.568
53411SOL    HW262067   4.549  11.575  12.462
53412SOL     OW62068   8.910   4.469   1.493
53412SOL    HW162069   8.822   4.501   1.471
53412SOL    HW262070   8.941   4.428   1.413
53413SOL     OW62071  13.419  13.879   9.730
53413SOL    HW162072  13.404  13.945   9.797
53413SOL    HW262073  13.508  13.849   9.745
53414SOL     OW62074   7.980   6.025   7.181
53414SOL    HW162075   8.019   5.985   7.258
53414SOL    HW262076   8.037   5.999   7.109
53415SOL     OW62077   1.994  12.244   0.980
53415SOL    HW162078   1.905  12.279   0.978
53415SOL    HW262079   1.984  12.153   1.008
53416SOL     OW62080  12.370   9.331  10.998
53416SOL    HW162081  12.335   9.316  11.087
53416SOL    HW262082  12.323   9.268  10.944
53417SOL     OW62083   7.668  11.857  14.028
53417SOL    HW162084   7.679  11.795  14.100
53417SOL    HW262085   7.670  11.943  14.070
53418SOL     OW62086  13.263  13.861  11.309
53418SOL    HW162087  13.241  13.822  11.224
53418SOL    HW262088  13.318  13.795  11.352
53419SOL     OW62089   5.351   7.348  10.569
53419SOL    HW162090   5.377   7.420  10.627
53419SOL    HW262091   5.377   7.377  10.482
53420SOL     OW62092  14.310   8.458   1.331
53420SOL    HW162093  14.253   8.386   1.357
53420SOL    HW262094  14.399   8.424   1.342
53421SOL     OW62095   8.372   6.937  14.281
53421SOL    HW162096   8.286   6.977  14.271
53421SOL    HW262097   8.363   6.880  14.358
53422SOL     OW62098   2.454   3.637   2.364
53422SOL    HW162099   2.396   3.633   2.440
53422SOL    HW262100   2.533   3.591   2.391
53423SOL     OW62101   2.852   5.772   7.799
53423SOL    HW162102   2.943   5.745   7.791
53423SOL    HW262103   2.802   5.694   7.779
53424SOL     OW62104   5.411   7.671  12.077
53424SOL    HW162105   5.336   7.625  12.116
53424SOL    HW262106   5.480   7.604  12.072
53425SOL     OW62107   0.346   9.967   6.147
53425SOL    HW162108   0.412  10.036   6.156
53425SOL    HW262109   0.395   9.886   6.160
53426SOL     OW62110   9.702   0.173   8.095
53426SOL    HW162111   9.684   0.219   8.177
53426SOL    HW262112   9.635   0.204   8.034
53427SOL     OW62113  11.853   1.997   4.110
53427SOL    HW162114  11.780   1.954   4.153
53427SOL    HW262115  11.850   1.967   4.019
53428SOL     OW62116  14.126   0.733   8.895
53428SOL    HW162117  14.156   0.751   8.806
53428SOL    HW262118  14.043   0.779   8.902
53429SOL     OW62119  12.478   0.036  12.075
53429SOL    HW162120  12.464  14.869  12.161
53429SOL    HW262121  12.438  14.847  12.014
53430SOL     OW62122   1.195   5.322   0.864
53430SOL    HW162123   1.104   5.350   0.860
53430SOL    HW262124   1.235   5.359   0.785
53431SOL     OW62125  10.857   9.177  10.621
53431SOL    HW162126  10.891   9.145  10.537
53431SOL    HW262127  10.857   9.272  10.612
53432SOL     OW62128   2.975  10.578   3.013
53432SOL    HW162129   2.959  10.602   2.922
53432SOL    HW262130   2.943  10.488   3.021
53433SOL     OW62131   7.976   8.253  13.581
53433SOL    HW162132   8.004   8.207  13.659
53433SOL    HW262133   7.901   8.203  13.548
53434SOL     OW62134   7.677  11.476   3.592
53434SOL    HW162135   7.693  11.565   3.624
53434SOL    HW262136   7.752  11.426   3.624
53435SOL     OW62137   2.416  10.922  13.580
53435SOL    HW162138   2.408  10.826  13.587
53435SOL    HW262139   2.469  10.936  13.501
53436SOL     OW62140   2.777   9.822   7.102
53436SOL    HW162141   2.738   9.841   7.187
53436SOL    HW262142   2.798   9.908   7.065
53437SOL     OW62143   6.348   7.868  10.152
53437SOL    HW162144   6.269   7.829  10.115
53437SOL    HW262145   6.402   7.890  10.075
53438SOL     OW62146   8.404   6.299   2.812
53438SOL    HW162147   8.497   6.277   2.812
53438SOL    HW262148   8.371   6.261   2.894
53439SOL     OW62149   7.352   9.809  12.331
53439SOL    HW162150   7.358   9.861  12.411
53439SOL    HW262151   7.264   9.827  12.297
53440SOL     OW62152   7.396   4.580  11.595
53440SOL    HW162153   7.368   4.671  11.584
53440SOL    HW262154   7.366   4.556  11.683
53441SOL     OW62155   1.897   5.054   7.897
53441SOL    HW162156   1.883   4.960   7.892
53441SOL    HW262157   1.982   5.063   7.941
53442SOL     OW62158  14.675   9.163  11.002
53442SOL    HW162159  14.627   9.169  10.919
53442SOL    HW262160  14.758   9.121  10.979
53443SOL     OW62161   9.214   0.427  14.648
53443SOL    HW162162   9.226   0.506  14.595
53443SOL    HW262163   9.231   0.355  14.587
53444SOL     OW62164  10.132   6.681   8.901
53444SOL    HW162165  10.137   6.587   8.882
53444SOL    HW262166  10.223   6.708   8.908
53445SOL     OW62167   7.987  10.431   9.127
53445SOL    HW162168   7.972  10.416   9.034
53445SOL    HW262169   8.080  10.453   9.134
53446SOL     OW62170   1.715   5.788   4.296
53446SOL    HW162171   1.702   5.880   4.272
53446SOL    HW262172   1.798   5.765   4.255
53447SOL     OW62173   1.534  14.271  10.558
53447SOL    HW162174   1.449  14.228  10.550
53447SOL    HW262175   1.518  14.343  10.620
53448SOL     OW62176   9.364   4.431   5.579
53448SOL    HW162177   9.280   4.449   5.537
53448SOL    HW262178   9.347   4.443   5.673
53449SOL     OW62179   4.153   2.572   8.391
53449SOL    HW162180   4.191   2.550   8.476
53449SOL    HW262181   4.219   2.544   8.328
53450SOL     OW62182   9.625   1.695   3.026
53450SOL    HW162183   9.666   1.756   3.086
53450SOL    HW262184   9.600   1.620   3.081
53451SOL     OW62185  12.972   1.115  11.527
53451SOL    HW162186  12.904   1.062  11.486
53451SOL    HW262187  12.990   1.185  11.464
53452SOL     OW62188  13.326   6.031   4.615
53452SOL    HW162189  13.386   6.095   4.654
53452SOL    HW262190  13.270   6.003   4.687
53453SOL     OW62191   0.333   1.323   6.318
53453SOL    HW162192   0.323   1.417   6.305
53453SOL    HW262193   0.352   1.314   6.412
53454SOL     OW62194   0.752  13.209   1.168
53454SOL    HW162195   0.760  13.293   1.121
53454SOL    HW262196   0.755  13.143   1.098
53455SOL     OW62197   8.266   8.001   4.152
53455SOL    HW162198   8.288   8.071   4.091
53455SOL    HW262199   8.264   8.044   4.238
53456SOL     OW62200   8.692   6.974   1.460
53456SOL    HW162201   8.673   7.003   1.549
53456SOL    HW262202   8.783   7.000   1.445
53457SOL     OW62203   8.816  13.805  11.856
53457SOL    HW162204   8.910  13.819  11.844
53457SOL    HW262205   8.775  13.859  11.790
53458SOL     OW62206   5.032   2.413  10.251
53458SOL    HW162207   5.096   2.475  10.216
53458SOL    HW262208   5.069   2.385  10.334
53459SOL     OW62209   8.229   5.706   9.261
53459SOL    HW162210   8.158   5.728   9.201
53459SOL    HW262211   8.186   5.688   9.344
53460SOL     OW62212  11.824  10.619   1.770
53460SOL    HW162213  11.915  10.628   1.800
53460SOL    HW262214  11.774  10.675   1.830
53461SOL     OW62215   4.984   7.078   5.676
53461SOL    HW162216   5.060   7.026   5.651
53461SOL    HW262217   4.916   7.053   5.615
53462SOL     OW62218   5.230  13.107   1.107
53462SOL    HW162219   5.152  13.061   1.137
53462SOL    HW262220   5.302  13.067   1.156
53463SOL     OW62221  10.593  13.081   3.718
53463SOL    HW162222  10.684  13.052   3.716
53463SOL    HW262223  10.577  13.101   3.810
53464SOL     OW62224  12.368   2.061   9.529
53464SOL    HW162225  12.283   2.105   9.525
53464SOL    HW262226  12.347   1.968   9.536
53465SOL     OW62227  11.495   4.001  14.676
53465SOL    HW162228  11.421   3.941  14.685
53465SOL    HW262229  11.460   4.086  14.701
53466SOL     OW62230  12.600   2.932  14.430
53466SOL    HW162231  12.566   2.876  14.499
53466SOL    HW262232  12.648   2.873  14.372
53467SOL     OW62233  10.457   8.404   8.125
53467SOL    HW162234  10.540   8.359   8.136
53467SOL    HW262235  10.481   8.495   8.106
53468SOL     OW62236   3.564   6.222   6.792
53468SOL    HW162237   3.582   6.162   6.721
53468SOL    HW262238   3.646   6.227   6.842
53469SOL     OW62239   0.313   2.931   7.177
53469SOL    HW162240   0.327   2.860   7.115
53469SOL    HW262241   0.363   2.906   7.254
53470SOL     OW62242   1.190  13.273   3.645
53470SOL    HW162243   1.220  13.184   3.666
53470SOL    HW262244   1.268  13.318   3.613
53471SOL     OW62245   5.924   8.951  14.793
53471SOL    HW162246   5.851   8.987  14.743
53471SOL    HW262247   5.889   8.936   0.007
53472SOL     OW62248  10.443  10.891   3.405
53472SOL    HW162249  10.457  10.985   3.408
53472SOL    HW262250  10.455  10.868   3.313
53473SOL     OW62251   8.453   1.238   6.802
53473SOL    HW162252   8.510   1.261   6.729
53473SOL    HW262253   8.505   1.258   6.880
53474SOL     OW62254  14.563   1.825   0.108
53474SOL    HW162255  14.519   1.789   0.031
53474SOL    HW262256  14.498   1.883   0.147
53475SOL     OW62257   3.040   8.061   3.936
53475SOL    HW162258   3.095   8.126   3.894
53475SOL    HW262259   2.953   8.076   3.900
53476SOL     OW62260   9.054   2.651   9.871
53476SOL    HW162261   9.026   2.605   9.950
53476SOL    HW262262   8.983   2.636   9.809
53477SOL     OW62263   4.276   0.992   1.742
53477SOL    HW162264   4.213   1.051   1.700
53477SOL    HW262265   4.348   0.986   1.679
53478SOL     OW62266  10.396  11.970  13.012
53478SOL    HW162267  10.322  12.024  13.040
53478SOL    HW262268  10.436  11.941  13.094
53479SOL     OW62269  11.724   3.569   3.554
53479SOL    HW162270  11.678   3.642   3.596
53479SOL    HW262271  11.722   3.499   3.619
53480SOL     OW62272   9.619   7.007   2.046
53480SOL    HW162273   9.606   7.101   2.043
53480SOL    HW262274   9.532   6.970   2.057
53481SOL     OW62275   8.052  12.486   3.620
53481SOL    HW162276   8.118  12.480   3.551
53481SOL    HW262277   8.061  12.403   3.668
53482SOL     OW62278   8.288   1.670  11.352
53482SOL    HW162279   8.376   1.685  11.316
53482SOL    HW262280   8.266   1.753  11.394
53483SOL     OW62281  14.666   9.555   7.044
53483SOL    HW162282  14.596   9.582   7.103
53483SOL    HW262283  14.664   9.460   7.047
53484SOL     OW62284   2.676   7.031   9.901
53484SOL    HW162285   2.623   6.951   9.911
53484SOL    HW262286   2.635   7.077   9.828
53485SOL     OW62287  10.563   5.736   8.158
53485SOL    HW162288  10.496   5.792   8.196
53485SOL    HW262289  10.517   5.657   8.132
53486SOL     OW62290   6.499  12.108   3.466
53486SOL    HW162291   6.509  12.142   3.377
53486SOL    HW262292   6.573  12.145   3.514
53487SOL     OW62293   5.958   5.354   6.793
53487SOL    HW162294   5.912   5.311   6.720
53487SOL    HW262295   6.017   5.415   6.751
53488SOL     OW62296  12.927   7.662   6.411
53488SOL    HW162297  12.848   7.633   6.366
53488SOL    HW262298  12.995   7.599   6.385
53489SOL     OW62299  14.448   3.292   5.899
53489SOL    HW162300  14.480   3.308   5.810
53489SOL    HW262301  14.516   3.238   5.940
53490SOL     OW62302   8.685  12.995   1.089
53490SOL    HW162303   8.649  12.910   1.114
53490SOL    HW262304   8.767  13.002   1.139
53491SOL     OW62305   6.586  14.644   4.874
53491SOL    HW162306   6.594  14.708   4.945
53491SOL    HW262307   6.588  14.559   4.918
53492SOL     OW62308   4.528   7.027   0.669
53492SOL    HW162309   4.559   6.937   0.658
53492SOL    HW262310   4.608   7.079   0.678
53493SOL     OW62311  12.663   1.780  10.695
53493SOL    HW162312  12.633   1.691  10.712
53493SOL    HW262313  12.605   1.836  10.746
53494SOL     OW62314   3.994   0.565   0.100
53494SOL    HW162315   3.944   0.618   0.039
53494SOL    HW262316   4.075   0.614   0.114
53495SOL     OW62317   6.503   5.006  10.615
53495SOL    HW162318   6.554   5.058  10.553
53495SOL    HW262319   6.424   4.982  10.568
53496SOL     OW62320   7.082   1.970   5.449
53496SOL    HW162321   7.109   2.049   5.403
53496SOL    HW262322   7.070   1.905   5.380
53497SOL     OW62323   8.700   4.015   8.173
53497SOL    HW162324   8.789   4.046   8.157
53497SOL    HW262325   8.645   4.093   8.166
53498SOL     OW62326   1.377   1.290   5.978
53498SOL    HW162327   1.286   1.318   5.969
53498SOL    HW262328   1.396   1.302   6.071
53499SOL     OW62329  12.812  14.376   3.050
53499SOL    HW162330  12.826  14.449   2.990
53499SOL    HW262331  12.879  14.311   3.025
53500SOL     OW62332   2.444  13.660  11.466
53500SOL    HW162333   2.377  13.670  11.399
53500SOL    HW262334   2.515  13.612  11.423
53501SOL     OW62335   5.530   4.980   0.585
53501SOL    HW162336   5.582   4.943   0.514
53501SOL    HW262337   5.586   4.973   0.662
53502SOL     OW62338   2.484   6.567  13.506
53502SOL    HW162339   2.445   6.483  13.527
53502SOL    HW262340   2.576   6.547  13.490
53503SOL     OW62341   4.192   9.543   3.871
53503SOL    HW162342   4.159   9.631   3.851
53503SOL    HW262343   4.276   9.559   3.913
53504SOL     OW62344  12.299   4.227   1.534
53504SOL    HW162345  12.333   4.312   1.504
53504SOL    HW262346  12.321   4.166   1.464
53505SOL     OW62347   7.535   3.822  14.729
53505SOL    HW162348   7.487   3.745  14.761
53505SOL    HW262349   7.480   3.856  14.658
53506SOL     OW62350   2.355  12.462   3.277
53506SOL    HW162351   2.262  12.483   3.288
53506SOL    HW262352   2.401  12.533   3.320
53507SOL     OW62353  12.860  11.786   3.550
53507SOL    HW162354  12.847  11.878   3.574
53507SOL    HW262355  12.853  11.785   3.455
53508SOL     OW62356   8.326   8.813  12.840
53508SOL    HW162357   8.318   8.783  12.930
53508SOL    HW262358   8.375   8.895  12.846
53509SOL     OW62359  10.175  10.602   3.446
53509SOL    HW162360  10.098  10.545   3.443
53509SOL    HW262361  10.159  10.667   3.377
53510SOL     OW62362   6.270   2.516  10.761
53510SOL    HW162363   6.308   2.601  10.740
53510SOL    HW262364   6.185   2.516  10.717
53511SOL     OW62365   1.789  11.638   7.997
53511SOL    HW162366   1.856  11.692   8.039
53511SOL    HW262367   1.794  11.554   8.042
53512SOL     OW62368  13.223   8.601   7.752
53512SOL    HW162369  13.209   8.534   7.684
53512SOL    HW262370  13.318   8.604   7.763
53513SOL     OW62371   3.723   9.324  12.729
53513SOL    HW162372   3.695   9.244  12.773
53513SOL    HW262373   3.642   9.363  12.697
53514SOL     OW62374   8.805   6.481  13.548
53514SOL    HW162375   8.846   6.562  13.517
53514SOL    HW262376   8.829   6.476  13.641
53515SOL     OW62377   8.989   9.716   5.233
53515SOL    HW162378   9.052   9.706   5.162
53515SOL    HW262379   9.042   9.733   5.311
53516SOL     OW62380  12.425   0.846   8.070
53516SOL    HW162381  12.484   0.840   7.995
53516SOL    HW262382  12.467   0.793   8.138
53517SOL     OW62383  11.652   1.298  13.871
53517SOL    HW162384  11.582   1.362  13.882
53517SOL    HW262385  11.690   1.318  13.786
53518SOL     OW62386  10.423   2.110   6.388
53518SOL    HW162387  10.438   2.033   6.333
53518SOL    HW262388  10.441   2.080   6.477
53519SOL     OW62389   4.245  12.987   3.135
53519SOL    HW162390   4.285  12.902   3.119
53519SOL    HW262391   4.186  12.999   3.060
53520SOL     OW62392   7.367   8.505  14.765
53520SOL    HW162393   7.390   8.592  14.798
53520SOL    HW262394   7.271   8.505  14.762
53521SOL     OW62395   2.867  10.285   1.951
53521SOL    HW162396   2.783  10.253   1.985
53521SOL    HW262397   2.921  10.207   1.943
53522SOL     OW62398   3.136   3.211   0.081
53522SOL    HW162399   3.081   3.132   0.076
53522SOL    HW262400   3.225   3.178   0.084
53523SOL     OW62401   8.838   5.655  14.686
53523SOL    HW162402   8.798   5.632  14.770
53523SOL    HW262403   8.889   5.577  14.663
53524SOL     OW62404  12.266   9.897  10.168
53524SOL    HW162405  12.361   9.889  10.155
53524SOL    HW262406  12.234   9.937  10.087
53525SOL     OW62407   9.862   5.839   7.488
53525SOL    HW162408   9.846   5.767   7.549
53525SOL    HW262409   9.780   5.888   7.487
53526SOL     OW62410  12.409   2.969   6.830
53526SOL    HW162411  12.343   2.924   6.884
53526SOL    HW262412  12.488   2.969   6.884
53527SOL     OW62413   9.256  14.043   5.270
53527SOL    HW162414   9.224  14.088   5.191
53527SOL    HW262415   9.214  14.089   5.342
53528SOL     OW62416   7.621   3.747  13.248
53528SOL    HW162417   7.652   3.821  13.301
53528SOL    HW262418   7.567   3.787  13.180
53529SOL     OW62419  14.328   0.966   1.137
53529SOL    HW162420  14.297   1.028   1.203
53529SOL    HW262421  14.287   0.883   1.161
53530SOL     OW62422   3.697  12.325  10.443
53530SOL    HW162423   3.616  12.374  10.461
53530SOL    HW262424   3.695  12.252  10.504
53531SOL     OW62425   2.653   4.768  14.395
53531SOL    HW162426   2.639   4.840  14.334
53531SOL    HW262427   2.626   4.803  14.480
53532SOL     OW62428   2.360   3.707  11.986
53532SOL    HW162429   2.395   3.796  11.987
53532SOL    HW262430   2.433   3.652  11.955
53533SOL     OW62431  10.519   6.787   9.471
53533SOL    HW162432  10.543   6.839   9.395
53533SOL    HW262433  10.525   6.696   9.441
53534SOL     OW62434   1.273   1.933   9.817
53534SOL    HW162435   1.190   1.889   9.801
53534SOL    HW262436   1.319   1.930   9.733
53535SOL     OW62437  14.088   5.285   4.719
53535SOL    HW162438  14.107   5.317   4.630
53535SOL    HW262439  14.010   5.334   4.745
53536SOL     OW62440   5.519   3.420   9.023
53536SOL    HW162441   5.493   3.443   9.112
53536SOL    HW262442   5.530   3.325   9.025
53537SOL     OW62443   6.564   0.319   5.821
53537SOL    HW162444   6.526   0.405   5.808
53537SOL    HW262445   6.489   0.260   5.833
53538SOL     OW62446  11.290   3.310   6.516
53538SOL    HW162447  11.383   3.330   6.502
53538SOL    HW262448  11.244   3.386   6.480
53539SOL     OW62449   1.779   7.614   3.496
53539SOL    HW162450   1.818   7.530   3.521
53539SOL    HW262451   1.767   7.661   3.578
53540SOL     OW62452   1.887   2.606  10.822
53540SOL    HW162453   1.966   2.626  10.772
53540SOL    HW262454   1.827   2.678  10.802
53541SOL     OW62455  12.182   7.064  12.659
53541SOL    HW162456  12.253   7.024  12.710
53541SOL    HW262457  12.211   7.054  12.568
53542SOL     OW62458   2.056   5.796   9.434
53542SOL    HW162459   2.060   5.703   9.458
53542SOL    HW262460   2.020   5.839   9.512
53543SOL     OW62461  13.476   4.587   0.651
53543SOL    HW162462  13.548   4.534   0.618
53543SOL    HW262463  13.447   4.541   0.730
53544SOL     OW62464   4.437   0.116   2.423
53544SOL    HW162465   4.486   0.199   2.424
53544SOL    HW262466   4.485   0.060   2.484
53545SOL     OW62467   9.979   3.192   4.443
53545SOL    HW162468   9.966   3.153   4.357
53545SOL    HW262469  10.073   3.211   4.446
53546SOL     OW62470   7.829  14.688   9.595
53546SOL    HW162471   7.890  14.658   9.527
53546SOL    HW262472   7.810  14.779   9.571
53547SOL     OW62473   0.297   1.613   1.041
53547SOL    HW162474   0.283   1.591   1.133
53547SOL    HW262475   0.327   1.704   1.043
53548SOL     OW62476   9.607   2.918   5.720
53548SOL    HW162477   9.563   2.992   5.678
53548SOL    HW262478   9.546   2.890   5.788
53549SOL     OW62479   5.539  12.967  13.097
53549SOL    HW162480   5.473  12.959  13.165
53549SOL    HW262481   5.498  13.022  13.030
53550SOL     OW62482  12.789   7.946   1.394
53550SOL    HW162483  12.750   7.978   1.312
53550SOL    HW262484  12.715   7.908   1.441
53551SOL     OW62485   2.383   1.854   2.260
53551SOL    HW162486   2.416   1.820   2.176
53551SOL    HW262487   2.428   1.802   2.326
53552SOL     OW62488   4.981  12.374   8.392
53552SOL    HW162489   4.935  12.448   8.431
53552SOL    HW262490   5.073  12.390   8.410
53553SOL     OW62491   7.837  10.906  13.435
53553SOL    HW162492   7.897  10.905  13.510
53553SOL    HW262493   7.780  10.981  13.450
53554SOL     OW62494   5.206   3.267  12.745
53554SOL    HW162495   5.216   3.182  12.702
53554SOL    HW262496   5.253   3.257  12.828
53555SOL     OW62497   6.467  14.377   5.561
53555SOL    HW162498   6.527  14.441   5.599
53555SOL    HW262499   6.437  14.326   5.637
53556SOL     OW62500  11.038   1.341   8.405
53556SOL    HW162501  11.035   1.371   8.495
53556SOL    HW262502  10.971   1.393   8.360
53557SOL     OW62503   6.986  10.330   6.948
53557SOL    HW162504   6.959  10.254   6.999
53557SOL    HW262505   6.913  10.391   6.956
53558SOL     OW62506   3.265  11.017   4.682
53558SOL    HW162507   3.176  11.052   4.687
53558SOL    HW262508   3.308  11.071   4.616
53559SOL     OW62509   8.688   5.823   2.942
53559SOL    HW162510   8.752   5.796   3.007
53559SOL    HW262511   8.618   5.758   2.949
53560SOL     OW62512  11.410   1.456  13.887
53560SOL    HW162513  11.419   1.499  13.973
53560SOL    HW262514  11.406   1.528  13.825
53561SOL     OW62515  10.053   1.251   4.491
53561SOL    HW162516   9.960   1.254   4.514
53561SOL    HW262517  10.096   1.213   4.569
53562SOL     OW62518  10.655   4.141   6.872
53562SOL    HW162519  10.706   4.184   6.803
53562SOL    HW262520  10.621   4.062   6.830
53563SOL     OW62521   3.572  13.713  11.246
53563SOL    HW162522   3.603  13.766  11.173
53563SOL    HW262523   3.599  13.624  11.224
53564SOL     OW62524   0.459   7.751   5.250
53564SOL    HW162525   0.438   7.824   5.308
53564SOL    HW262526   0.462   7.674   5.307
53565SOL     OW62527   1.434   2.382   7.262
53565SOL    HW162528   1.381   2.308   7.291
53565SOL    HW262529   1.505   2.343   7.211
53566SOL     OW62530   8.851  14.079   2.338
53566SOL    HW162531   8.893  14.153   2.383
53566SOL    HW262532   8.797  14.038   2.406
53567SOL     OW62533   0.911   7.938   9.070
53567SOL    HW162534   0.959   8.012   9.033
53567SOL    HW262535   0.975   7.868   9.075
53568SOL     OW62536   6.309  11.575   9.778
53568SOL    HW162537   6.337  11.498   9.729
53568SOL    HW262538   6.352  11.566   9.863
53569SOL     OW62539   6.437   9.773   0.025
53569SOL    HW162540   6.407   9.702  14.841
53569SOL    HW262541   6.370   9.841   0.015
53570SOL     OW62542   9.263   8.443   8.118
53570SOL    HW162543   9.304   8.447   8.204
53570SOL    HW262544   9.216   8.527   8.110
53571SOL     OW62545   5.796  11.059  13.465
53571SOL    HW162546   5.750  11.048  13.382
53571SOL    HW262547   5.812  11.153  13.471
53572SOL     OW62548   0.486  14.610   1.261
53572SOL    HW162549   0.464  14.525   1.224
53572SOL    HW262550   0.421  14.670   1.223
53573SOL     OW62551   6.965   1.724  12.783
53573SOL    HW162552   7.020   1.694  12.710
53573SOL    HW262553   6.880   1.683  12.768
53574SOL     OW62554   2.316   6.030  13.128
53574SOL    HW162555   2.361   6.051  13.210
53574SOL    HW262556   2.297   5.936  13.134
53575SOL     OW62557   0.368   5.930   0.389
53575SOL    HW162558   0.397   5.851   0.342
53575SOL    HW262559   0.448   5.966   0.427
53576SOL     OW62560  10.379   4.325   4.520
53576SOL    HW162561  10.424   4.406   4.543
53576SOL    HW262562  10.287   4.342   4.543
53577SOL     OW62563   8.860   5.315   9.942
53577SOL    HW162564   8.826   5.403   9.957
53577SOL    HW262565   8.927   5.326   9.875
53578SOL     OW62566   2.691  14.712   1.864
53578SOL    HW162567   2.687  14.739   1.956
53578SOL    HW262568   2.785  14.704   1.846
53579SOL     OW62569   4.398   9.822  13.611
53579SOL    HW162570   4.387   9.789  13.522
53579SOL    HW262571   4.481   9.868  13.609
53580SOL     OW62572   5.353   4.219   5.542
53580SOL    HW162573   5.405   4.279   5.488
53580SOL    HW262574   5.388   4.232   5.630
53581SOL     OW62575  12.810  14.393   4.065
53581SOL    HW162576  12.761  14.424   4.141
53581SOL    HW262577  12.743  14.372   4.000
53582SOL     OW62578  12.571   2.368   0.869
53582SOL    HW162579  12.537   2.449   0.830
53582SOL    HW262580  12.502   2.340   0.929
53583SOL     OW62581   7.662  11.810   4.384
53583SOL    HW162582   7.643  11.903   4.394
53583SOL    HW262583   7.755  11.807   4.362
53584SOL     OW62584  11.127  13.424   2.222
53584SOL    HW162585  11.151  13.490   2.287
53584SOL    HW262586  11.200  13.424   2.160
53585SOL     OW62587   6.035   4.205   5.934
53585SOL    HW162588   6.023   4.232   6.025
53585SOL    HW262589   6.001   4.277   5.882
53586SOL     OW62590   4.854  11.943   2.261
53586SOL    HW162591   4.898  12.010   2.312
53586SOL    HW262592   4.828  11.877   2.325
53587SOL     OW62593   4.910  13.568   0.658
53587SOL    HW162594   4.834  13.562   0.599
53587SOL    HW262595   4.907  13.658   0.691
53588SOL     OW62596   6.359   5.147   0.036
53588SOL    HW162597   6.438   5.176  14.864
53588SOL    HW262598   6.384   5.067   0.082
53589SOL     OW62599  14.346  14.339  14.307
53589SOL    HW162600  14.392  14.344  14.224
53589SOL    HW262601  14.289  14.263  14.299
53590SOL     OW62602   8.426   4.148   2.935
53590SOL    HW162603   8.354   4.180   2.989
53590SOL    HW262604   8.484   4.224   2.926
53591SOL     OW62605  13.242  11.088   2.453
53591SOL    HW162606  13.165  11.133   2.487
53591SOL    HW262607  13.252  11.122   2.364
53592SOL     OW62608   9.751   1.833   2.266
53592SOL    HW162609   9.705   1.878   2.337
53592SOL    HW262610   9.814   1.776   2.310
53593SOL     OW62611   7.037  12.764   2.343
53593SOL    HW162612   7.098  12.707   2.297
53593SOL    HW262613   7.044  12.848   2.298
53594SOL     OW62614  13.701   4.815   9.601
53594SOL    HW162615  13.645   4.749   9.641
53594SOL    HW262616  13.790   4.782   9.615
53595SOL     OW62617   2.067   1.709   6.863
53595SOL    HW162618   2.031   1.761   6.935
53595SOL    HW262619   2.028   1.623   6.874
53596SOL     OW62620  13.536   0.519   3.764
53596SOL    HW162621  13.600   0.495   3.697
53596SOL    HW262622  13.557   0.610   3.786
53597SOL     OW62623   9.924   2.450   1.293
53597SOL    HW162624  10.005   2.479   1.250
53597SOL    HW262625   9.954   2.398   1.367
53598SOL     OW62626   9.031   6.541  11.360
53598SOL    HW162627   9.049   6.634  11.378
53598SOL    HW262628   9.047   6.497  11.444
53599SOL     OW62629   8.550   3.498   1.292
53599SOL    HW162630   8.502   3.485   1.373
53599SOL    HW262631   8.595   3.582   1.304
53600SOL     OW62632  14.559  14.253   0.738
53600SOL    HW162633  14.534  14.176   0.686
53600SOL    HW262634  14.630  14.221   0.794
53601SOL     OW62635  10.063   8.494   4.078
53601SOL    HW162636  10.134   8.500   4.014
53601SOL    HW262637   9.996   8.554   4.047
53602SOL     OW62638   1.538  13.269  12.530
53602SOL    HW162639   1.590  13.344  12.501
53602SOL    HW262640   1.524  13.283  12.623
53603SOL     OW62641   4.951   6.879   7.750
53603SOL    HW162642   5.018   6.813   7.769
53603SOL    HW262643   4.905   6.891   7.833
53604SOL     OW62644   0.609   2.670   8.858
53604SOL    HW162645   0.555   2.648   8.934
53604SOL    HW262646   0.662   2.592   8.843
53605SOL     OW62647   7.893   5.282  13.883
53605SOL    HW162648   7.917   5.333  13.806
53605SOL    HW262649   7.799   5.265  13.872
53606SOL     OW62650   0.511   1.109   1.605
53606SOL    HW162651   0.531   1.044   1.537
53606SOL    HW262652   0.543   1.192   1.569
53607SOL     OW62653  12.370   8.695   1.297
53607SOL    HW162654  12.357   8.789   1.286
53607SOL    HW262655  12.425   8.670   1.223
53608SOL     OW62656   0.748   2.795   2.875
53608SOL    HW162657   0.685   2.865   2.861
53608SOL    HW262658   0.710   2.719   2.831
53609SOL     OW62659   0.882  12.636   5.486
53609SOL    HW162660   0.789  12.613   5.483
53609SOL    HW262661   0.926  12.567   5.437
53610SOL     OW62662   9.644   3.144   2.779
53610SOL    HW162663   9.731   3.178   2.799
53610SOL    HW262664   9.594   3.219   2.748
53611SOL     OW62665   3.073   1.480   1.331
53611SOL    HW162666   3.073   1.574   1.351
53611SOL    HW262667   3.139   1.444   1.390
53612SOL     OW62668  14.104   0.614   7.789
53612SOL    HW162669  14.065   0.545   7.734
53612SOL    HW262670  14.036   0.634   7.853
53613SOL     OW62671  12.313  11.940   2.113
53613SOL    HW162672  12.398  11.911   2.145
53613SOL    HW262673  12.331  11.979   2.028
53614SOL     OW62674   5.057   5.075   6.047
53614SOL    HW162675   5.003   5.071   6.126
53614SOL    HW262676   4.994   5.074   5.975
53615SOL     OW62677   6.115   3.594   4.655
53615SOL    HW162678   6.064   3.665   4.693
53615SOL    HW262679   6.181   3.637   4.601
53616SOL     OW62680   3.328  12.060   4.407
53616SOL    HW162681   3.388  12.114   4.355
53616SOL    HW262682   3.386  12.002   4.457
53617SOL     OW62683   1.347  11.403   2.837
53617SOL    HW162684   1.312  11.466   2.774
53617SOL    HW262685   1.277  11.393   2.902
53618SOL     OW62686   2.058  11.786   8.787
53618SOL    HW162687   1.996  11.750   8.723
53618SOL    HW262688   2.030  11.876   8.799
53619SOL     OW62689  14.530   8.778   6.816
53619SOL    HW162690  14.460   8.726   6.777
53619SOL    HW262691  14.568   8.721   6.883
53620SOL     OW62692  12.885   5.773  11.638
53620SOL    HW162693  12.966   5.724  11.652
53620SOL    HW262694  12.874   5.825  11.718
53621SOL     OW62695   0.595  11.443   0.077
53621SOL    HW162696   0.553  11.362   0.105
53621SOL    HW262697   0.654  11.416   0.006
53622SOL     OW62698   8.179   3.359  12.280
53622SOL    HW162699   8.193   3.404  12.197
53622SOL    HW262700   8.095   3.393  12.312
53623SOL     OW62701   3.528   2.091   8.936
53623SOL    HW162702   3.512   2.091   8.842
53623SOL    HW262703   3.475   2.165   8.969
53624SOL     OW62704  14.652   9.397   6.520
53624SOL    HW162705  14.609   9.483   6.518
53624SOL    HW262706  14.606   9.346   6.453
53625SOL     OW62707   1.111   9.070   4.381
53625SOL    HW162708   1.079   9.156   4.409
53625SOL    HW262709   1.150   9.086   4.295
53626SOL     OW62710   2.270  10.576   5.021
53626SOL    HW162711   2.225  10.606   5.100
53626SOL    HW262712   2.208  10.593   4.950
53627SOL     OW62713  14.763   2.164   2.557
53627SOL    HW162714  14.807   2.080   2.549
53627SOL    HW262715  14.732   2.166   2.648
53628SOL     OW62716   7.453   3.383   0.095
53628SOL    HW162717   7.414   3.440   0.161
53628SOL    HW262718   7.530   3.346   0.138
53629SOL     OW62719   1.131   8.873   5.240
53629SOL    HW162720   1.197   8.931   5.202
53629SOL    HW262721   1.109   8.913   5.324
53630SOL     OW62722   7.262   1.180   2.246
53630SOL    HW162723   7.317   1.136   2.181
53630SOL    HW262724   7.260   1.271   2.218
53631SOL     OW62725  13.409   0.706  13.843
53631SOL    HW162726  13.497   0.683  13.812
53631SOL    HW262727  13.411   0.686  13.936
53632SOL     OW62728  11.153  10.965   1.931
53632SOL    HW162729  11.080  11.018   1.962
53632SOL    HW262730  11.230  11.019   1.944
53633SOL     OW62731  10.687   6.174  12.104
53633SOL    HW162732  10.709   6.254  12.057
53633SOL    HW262733  10.723   6.104  12.050
53634SOL     OW62734  14.255   1.942   8.179
53634SOL    HW162735  14.330   1.989   8.144
53634SOL    HW262736  14.179   1.995   8.156
53635SOL     OW62737   5.279   2.218   2.368
53635SOL    HW162738   5.253   2.166   2.292
53635SOL    HW262739   5.342   2.281   2.333
53636SOL     OW62740   6.658   3.558   6.918
53636SOL    HW162741   6.650   3.536   7.010
53636SOL    HW262742   6.691   3.648   6.918
53637SOL     OW62743   4.885  13.642   0.330
53637SOL    HW162744   4.844  13.572   0.381
53637SOL    HW262745   4.834  13.720   0.351
53638SOL     OW62746   9.523   2.662  11.313
53638SOL    HW162747   9.447   2.662  11.255
53638SOL    HW262748   9.539   2.755  11.329
53639SOL     OW62749   4.283   5.910   0.097
53639SOL    HW162750   4.339   5.932   0.023
53639SOL    HW262751   4.276   5.992   0.147
53640SOL     OW62752   7.658   1.480  12.727
53640SOL    HW162753   7.680   1.387  12.722
53640SOL    HW262754   7.678   1.504  12.818
53641SOL     OW62755   8.489   6.998   7.399
53641SOL    HW162756   8.488   7.032   7.310
53641SOL    HW262757   8.545   7.060   7.447
53642SOL     OW62758   3.723   1.410   3.830
53642SOL    HW162759   3.676   1.335   3.794
53642SOL    HW262760   3.662   1.483   3.822
53643SOL     OW62761   9.711   7.121   8.631
53643SOL    HW162762   9.759   7.190   8.585
53643SOL    HW262763   9.628   7.115   8.584
53644SOL     OW62764   8.661   6.408   0.622
53644SOL    HW162765   8.691   6.433   0.534
53644SOL    HW262766   8.693   6.479   0.678
53645SOL     OW62767   6.336  11.324   8.502
53645SOL    HW162768   6.287  11.321   8.584
53645SOL    HW262769   6.323  11.238   8.463
53646SOL     OW62770  10.850   9.780  11.206
53646SOL    HW162771  10.885   9.692  11.197
53646SOL    HW262772  10.915   9.837  11.165
53647SOL     OW62773   7.451   8.647   3.586
53647SOL    HW162774   7.510   8.626   3.514
53647SOL    HW262775   7.428   8.562   3.624
53648SOL     OW62776   5.595   8.496  10.682
53648SOL    HW162777   5.591   8.552  10.760
53648SOL    HW262778   5.648   8.546  10.620
53649SOL     OW62779   6.765  13.454  14.341
53649SOL    HW162780   6.758  13.372  14.390
53649SOL    HW262781   6.856  13.482  14.355
53650SOL     OW62782  14.303   4.912   2.830
53650SOL    HW162783  14.240   4.947   2.767
53650SOL    HW262784  14.337   4.988   2.876
53651SOL     OW62785   5.430   0.550   0.389
53651SOL    HW162786   5.471   0.551   0.302
53651SOL    HW262787   5.443   0.638   0.423
53652SOL     OW62788   6.811   9.216  14.102
53652SOL    HW162789   6.755   9.291  14.127
53652SOL    HW262790   6.791   9.149  14.167
53653SOL     OW62791  12.894  11.914   4.738
53653SOL    HW162792  12.879  11.869   4.821
53653SOL    HW262793  12.961  11.980   4.758
53654SOL     OW62794  13.509   9.513   8.066
53654SOL    HW162795  13.477   9.459   7.995
53654SOL    HW262796  13.441   9.508   8.133
53655SOL     OW62797  12.884   1.482  10.202
53655SOL    HW162798  12.837   1.565  10.209
53655SOL    HW262799  12.977   1.508  10.196
53656SOL     OW62800   1.247  11.963   4.856
53656SOL    HW162801   1.152  11.966   4.840
53656SOL    HW262802   1.259  11.886   4.912
53657SOL     OW62803  12.333   9.067  14.563
53657SOL    HW162804  12.273   9.137  14.540
53657SOL    HW262805  12.318   8.999  14.497
53658SOL     OW62806   3.691   4.982   3.560
53658SOL    HW162807   3.627   4.925   3.602
53658SOL    HW262808   3.741   5.019   3.633
53659SOL     OW62809  14.211   4.073  11.934
53659SOL    HW162810  14.244   4.040  12.017
53659SOL    HW262811  14.287   4.110  11.889
53660SOL     OW62812   3.534   5.217  14.470
53660SOL    HW162813   3.460   5.157  14.475
53660SOL    HW262814   3.605   5.165  14.430
53661SOL     OW62815   6.498   2.385   8.879
53661SOL    HW162816   6.439   2.441   8.929
53661SOL    HW262817   6.501   2.303   8.928
53662SOL     OW62818   4.708   1.675   7.356
53662SOL    HW162819   4.637   1.702   7.412
53662SOL    HW262820   4.775   1.640   7.415
53663SOL     OW62821   0.544   4.936   4.801
53663SOL    HW162822   0.561   5.001   4.870
53663SOL    HW262823   0.472   4.883   4.836
53664SOL     OW62824   7.900   5.336   5.080
53664SOL    HW162825   7.866   5.412   5.127
53664SOL    HW262826   7.913   5.367   4.990
53665SOL     OW62827   8.684   4.917   9.028
53665SOL    HW162828   8.661   4.843   8.971
53665SOL    HW262829   8.600   4.948   9.062
53666SOL     OW62830   4.585   2.588   3.754
53666SOL    HW162831   4.607   2.507   3.708
53666SOL    HW262832   4.668   2.618   3.791
53667SOL     OW62833   5.236  13.509   8.672
53667SOL    HW162834   5.218  13.426   8.628
53667SOL    HW262835   5.207  13.576   8.611
53668SOL     OW62836   7.651   1.758  12.297
53668SOL    HW162837   7.564   1.719  12.295
53668SOL    HW262838   7.674   1.763  12.390
53669SOL     OW62839  10.918   6.825   3.199
53669SOL    HW162840  10.926   6.885   3.273
53669SOL    HW262841  10.836   6.778   3.215
53670SOL     OW62842   3.535   5.075  14.757
53670SOL    HW162843   3.620   5.102  14.720
53670SOL    HW262844   3.515   5.143  14.821
53671SOL     OW62845  12.751   7.505   8.740
53671SOL    HW162846  12.763   7.491   8.646
53671SOL    HW262847  12.804   7.582   8.759
53672SOL     OW62848  12.081  14.020   0.823
53672SOL    HW162849  12.017  13.972   0.770
53672SOL    HW262850  12.166  13.984   0.797
53673SOL     OW62851   2.635  11.264   8.616
53673SOL    HW162852   2.574  11.338   8.622
53673SOL    HW262853   2.578  11.187   8.608
53674SOL     OW62854   3.261   0.414   0.853
53674SOL    HW162855   3.214   0.432   0.935
53674SOL    HW262856   3.192   0.390   0.791
53675SOL     OW62857   4.292   0.113  13.827
53675SOL    HW162858   4.250   0.122  13.913
53675SOL    HW262859   4.332   0.198  13.811
53676SOL     OW62860   8.384  11.214  11.161
53676SOL    HW162861   8.295  11.193  11.134
53676SOL    HW262862   8.387  11.191  11.254
53677SOL     OW62863   4.592   4.162  12.349
53677SOL    HW162864   4.545   4.091  12.305
53677SOL    HW262865   4.567   4.241  12.302
53678SOL     OW62866  14.392   5.577   8.284
53678SOL    HW162867  14.446   5.616   8.353
53678SOL    HW262868  14.326   5.644   8.265
53679SOL     OW62869   7.982   1.703   0.485
53679SOL    HW162870   8.024   1.763   0.424
53679SOL    HW262871   8.015   1.617   0.460
53680SOL     OW62872   0.311   4.010   7.720
53680SOL    HW162873   0.259   3.940   7.680
53680SOL    HW262874   0.312   3.989   7.813
53681SOL     OW62875   9.459   7.577   6.143
53681SOL    HW162876   9.497   7.662   6.121
53681SOL    HW262877   9.365   7.594   6.148
53682SOL     OW62878  12.224   1.309  10.894
53682SOL    HW162879  12.213   1.342  10.984
53682SOL    HW262880  12.318   1.299  10.884
53683SOL     OW62881   1.184  12.418   3.810
53683SOL    HW162882   1.263  12.365   3.799
53683SOL    HW262883   1.124  12.387   3.742
53684SOL     OW62884   7.623   6.320   3.375
53684SOL    HW162885   7.698   6.288   3.326
53684SOL    HW262886   7.552   6.322   3.311
53685SOL     OW62887  10.424  13.588   5.529
53685SOL    HW162888  10.395  13.513   5.581
53685SOL    HW262889  10.380  13.577   5.444
53686SOL     OW62890   9.631   5.164   7.972
53686SOL    HW162891   9.657   5.233   8.032
53686SOL    HW262892   9.625   5.085   8.027
53687SOL     OW62893   7.115  11.529  10.407
53687SOL    HW162894   7.100  11.588  10.333
53687SOL    HW262895   7.081  11.575  10.483
53688SOL     OW62896  10.266   1.251  11.508
53688SOL    HW162897  10.228   1.334  11.538
53688SOL    HW262898  10.351   1.247  11.551
53689SOL     OW62899  10.339   4.405   5.338
53689SOL    HW162900  10.365   4.458   5.413
53689SOL    HW262901  10.384   4.321   5.351
53690SOL     OW62902   8.514   2.619  12.607
53690SOL    HW162903   8.560   2.676  12.544
53690SOL    HW262904   8.433   2.595  12.562
53691SOL     OW62905  11.716   2.966   6.228
53691SOL    HW162906  11.739   2.979   6.136
53691SOL    HW262907  11.772   3.027   6.275
53692SOL     OW62908  12.376   2.188  13.649
53692SOL    HW162909  12.358   2.267  13.700
53692SOL    HW262910  12.346   2.209  13.560
53693SOL     OW62911   7.382   5.683  13.875
53693SOL    HW162912   7.330   5.615  13.918
53693SOL    HW262913   7.425   5.729  13.947
53694SOL     OW62914   5.562   1.241   0.891
53694SOL    HW162915   5.471   1.240   0.862
53694SOL    HW262916   5.558   1.269   0.983
53695SOL     OW62917  12.695   8.139  13.983
53695SOL    HW162918  12.680   8.070  14.048
53695SOL    HW262919  12.790   8.143  13.973
53696SOL     OW62920   1.971  11.518   1.979
53696SOL    HW162921   2.049  11.485   1.935
53696SOL    HW262922   1.903  11.454   1.956
53697SOL     OW62923   0.132   5.928  12.385
53697SOL    HW162924   0.177   5.975  12.455
53697SOL    HW262925   0.150   5.836  12.403
53698SOL     OW62926   8.660  12.819   5.593
53698SOL    HW162927   8.633  12.817   5.501
53698SOL    HW262928   8.597  12.763   5.638
53699SOL     OW62929   7.613  13.400  14.449
53699SOL    HW162930   7.575  13.313  14.432
53699SOL    HW262931   7.671  13.386  14.524
53700SOL     OW62932  13.285   4.437  14.344
53700SOL    HW162933  13.211   4.426  14.404
53700SOL    HW262934  13.311   4.348  14.323
53701SOL     OW62935   0.570  12.881  14.627
53701SOL    HW162936   0.557  12.967  14.667
53701SOL    HW262937   0.499  12.872  14.564
53702SOL     OW62938   3.502   2.338   3.528
53702SOL    HW162939   3.468   2.395   3.460
53702SOL    HW262940   3.532   2.397   3.597
53703SOL     OW62941  13.805   7.631   1.116
53703SOL    HW162942  13.805   7.611   1.022
53703SOL    HW262943  13.809   7.546   1.159
53704SOL     OW62944   2.317   0.714   8.396
53704SOL    HW162945   2.245   0.655   8.419
53704SOL    HW262946   2.380   0.705   8.467
53705SOL     OW62947   8.735  13.931   6.444
53705SOL    HW162948   8.808  13.954   6.387
53705SOL    HW262949   8.660  13.925   6.385
53706SOL     OW62950   1.600  12.179   1.500
53706SOL    HW162951   1.587  12.254   1.443
53706SOL    HW262952   1.595  12.103   1.441
53707SOL     OW62953   7.007   4.154   4.053
53707SOL    HW162954   7.011   4.110   3.968
53707SOL    HW262955   6.928   4.119   4.094
53708SOL     OW62956   1.301   1.011   7.236
53708SOL    HW162957   1.288   1.105   7.249
53708SOL    HW262958   1.300   0.974   7.325
53709SOL     OW62959   6.075   7.497   1.112
53709SOL    HW162960   6.147   7.471   1.055
53709SOL    HW262961   6.051   7.416   1.158
53710SOL     OW62962   6.074   7.705   8.358
53710SOL    HW162963   6.059   7.611   8.351
53710SOL    HW262964   5.994   7.745   8.323
53711SOL     OW62965   1.610   4.127   1.308
53711SOL    HW162966   1.684   4.080   1.270
53711SOL    HW262967   1.564   4.164   1.234
53712SOL     OW62968   4.983  10.985  12.781
53712SOL    HW162969   4.988  10.976  12.876
53712SOL    HW262970   4.974  11.079  12.766
53713SOL     OW62971   3.596   7.577   2.321
53713SOL    HW162972   3.610   7.484   2.305
53713SOL    HW262973   3.522   7.600   2.265
53714SOL     OW62974   5.422   1.454   2.031
53714SOL    HW162975   5.455   1.520   2.092
53714SOL    HW262976   5.327   1.459   2.040
53715SOL     OW62977   4.970   3.000   9.826
53715SOL    HW162978   4.964   2.955   9.741
53715SOL    HW262979   4.885   2.985   9.867
53716SOL     OW62980   1.902   1.881   8.107
53716SOL    HW162981   1.970   1.830   8.152
53716SOL    HW262982   1.949   1.952   8.064
53717SOL     OW62983   4.684  14.458  14.088
53717SOL    HW162984   4.753  14.509  14.130
53717SOL    HW262985   4.731  14.395  14.033
53718SOL     OW62986   5.915   1.585   6.848
53718SOL    HW162987   6.006   1.598   6.874
53718SOL    HW262988   5.866   1.653   6.894
53719SOL     OW62989  11.500  11.728   9.136
53719SOL    HW162990  11.406  11.737   9.152
53719SOL    HW262991  11.508  11.724   9.041
53720SOL     OW62992  14.194   7.323   9.213
53720SOL    HW162993  14.164   7.290   9.128
53720SOL    HW262994  14.289   7.323   9.206
53721SOL     OW62995   6.961  14.459   9.208
53721SOL    HW162996   6.963  14.532   9.270
53721SOL    HW262997   6.963  14.380   9.263
53722SOL     OW62998   9.357   8.790   8.825
53722SOL    HW162999   9.416   8.853   8.784
53722SOL    HW263000   9.273   8.803   8.779
53723SOL     OW63001   2.162   9.027   0.560
53723SOL    HW163002   2.084   9.070   0.524
53723SOL    HW263003   2.162   8.940   0.519
53724SOL     OW63004   3.061   9.684  12.036
53724SOL    HW163005   2.978   9.671  12.082
53724SOL    HW263006   3.098   9.763  12.073
53725SOL     OW63007   1.524   1.901  10.391
53725SOL    HW163008   1.597   1.893  10.453
53725SOL    HW263009   1.510   1.812  10.359
53726SOL     OW63010   9.760  10.945  12.907
53726SOL    HW163011   9.755  10.957  13.001
53726SOL    HW263012   9.822  10.873  12.894
53727SOL     OW63013  13.362   3.935   0.311
53727SOL    HW163014  13.410   3.853   0.318
53727SOL    HW263015  13.414   3.989   0.252
53728SOL     OW63016  12.790   2.936   2.267
53728SOL    HW163017  12.706   2.952   2.308
53728SOL    HW263018  12.825   2.858   2.312
53729SOL     OW63019   8.557  13.661   0.809
53729SOL    HW163020   8.469  13.694   0.794
53729SOL    HW263021   8.611  13.739   0.820
53730SOL     OW63022  10.625   6.684   8.161
53730SOL    HW163023  10.676   6.763   8.145
53730SOL    HW263024  10.677   6.634   8.224
53731SOL     OW63025  10.021   4.560   3.370
53731SOL    HW163026   9.993   4.608   3.292
53731SOL    HW263027   9.957   4.490   3.380
53732SOL     OW63028  13.403   8.934   0.632
53732SOL    HW163029  13.431   9.010   0.683
53732SOL    HW263030  13.378   8.869   0.698
53733SOL     OW63031   3.430  11.697   9.705
53733SOL    HW163032   3.393  11.616   9.672
53733SOL    HW263033   3.476  11.672   9.786
53734SOL     OW63034   2.421   9.393   4.722
53734SOL    HW163035   2.430   9.479   4.683
53734SOL    HW263036   2.502   9.348   4.700
53735SOL     OW63037   6.319  13.467  14.556
53735SOL    HW163038   6.258  13.432  14.492
53735SOL    HW263039   6.386  13.511  14.503
53736SOL     OW63040   0.510   6.409  14.272
53736SOL    HW163041   0.475   6.452  14.350
53736SOL    HW263042   0.459   6.328  14.264
53737SOL     OW63043  11.159   2.584  11.085
53737SOL    HW163044  11.135   2.514  11.024
53737SOL    HW263045  11.230   2.631  11.040
53738SOL     OW63046   8.788   6.620  14.828
53738SOL    HW163047   8.784   6.637   0.050
53738SOL    HW263048   8.841   6.542  14.820
53739SOL     OW63049   0.892   1.584   2.472
53739SOL    HW163050   0.833   1.658   2.455
53739SOL    HW263051   0.912   1.549   2.385
53740SOL     OW63052   6.627   5.360  12.164
53740SOL    HW163053   6.555   5.297  12.172
53740SOL    HW263054   6.591   5.431  12.111
53741SOL     OW63055   5.662  10.164   5.348
53741SOL    HW163056   5.757  10.161   5.360
53741SOL    HW263057   5.643  10.091   5.290
53742SOL     OW63058  11.774   0.938  11.060
53742SOL    HW163059  11.803   0.982  11.139
53742SOL    HW263060  11.690   0.898  11.084
53743SOL     OW63061   9.043  10.971   9.382
53743SOL    HW163062   9.115  11.007   9.433
53743SOL    HW263063   8.969  11.030   9.399
53744SOL     OW63064   6.345   6.833  10.677
53744SOL    HW163065   6.254   6.858  10.696
53744SOL    HW263066   6.340   6.796  10.588
53745SOL     OW63067   5.695   1.386   8.746
53745SOL    HW163068   5.764   1.344   8.798
53745SOL    HW263069   5.742   1.425   8.672
53746SOL     OW63070   7.667   3.874  11.252
53746SOL    HW163071   7.683   3.909  11.340
53746SOL    HW263072   7.583   3.830  11.259
53747SOL     OW63073   8.303   5.178   4.160
53747SOL    HW163074   8.395   5.153   4.152
53747SOL    HW263075   8.268   5.170   4.071
53748SOL     OW63076   8.207  11.874  13.769
53748SOL    HW163077   8.239  11.962  13.747
53748SOL    HW263078   8.265  11.844  13.839
53749SOL     OW63079   8.153   6.745  12.853
53749SOL    HW163080   8.182   6.691  12.780
53749SOL    HW263081   8.093   6.689  12.903
53750SOL     OW63082   1.207   3.350   5.767
53750SOL    HW163083   1.233   3.400   5.844
53750SOL    HW263084   1.287   3.342   5.715
53751SOL     OW63085   5.521  10.955  12.527
53751SOL    HW163086   5.612  10.931  12.508
53751SOL    HW263087   5.501  10.910  12.609
53752SOL     OW63088   9.136  14.528   3.095
53752SOL    HW163089   9.217  14.577   3.082
53752SOL    HW263090   9.073  14.594   3.124
53753SOL     OW63091  11.462   8.598   6.753
53753SOL    HW163092  11.527   8.668   6.751
53753SOL    HW263093  11.380   8.642   6.774
53754SOL     OW63094   8.609   3.804   1.972
53754SOL    HW163095   8.625   3.886   1.926
53754SOL    HW263096   8.587   3.830   2.062
53755SOL     OW63097   6.197   6.188  14.666
53755SOL    HW163098   6.193   6.105  14.714
53755SOL    HW263099   6.114   6.231  14.686
53756SOL     OW63100   5.594   7.673   2.107
53756SOL    HW163101   5.618   7.735   2.176
53756SOL    HW263102   5.509   7.703   2.075
53757SOL     OW63103   3.407  10.448  13.972
53757SOL    HW163104   3.412  10.453  13.876
53757SOL    HW263105   3.397  10.355  13.991
53758SOL     OW63106   6.017  12.515  11.844
53758SOL    HW163107   6.042  12.547  11.931
53758SOL    HW263108   5.934  12.558  11.825
53759SOL     OW63109   5.772   9.901   5.486
53759SOL    HW163110   5.680   9.877   5.490
53759SOL    HW263111   5.780   9.953   5.407
53760SOL     OW63112   8.337   3.068  11.363
53760SOL    HW163113   8.272   3.062  11.433
53760SOL    HW263114   8.359   3.161  11.358
53761SOL     OW63115   9.822   1.787  12.022
53761SOL    HW163116   9.826   1.767  11.928
53761SOL    HW263117   9.728   1.789  12.042
53762SOL     OW63118   9.115  11.069  10.318
53762SOL    HW163119   9.091  11.137  10.255
53762SOL    HW263120   9.133  10.992  10.265
53763SOL     OW63121   5.354  12.327   5.249
53763SOL    HW163122   5.385  12.345   5.160
53763SOL    HW263123   5.357  12.232   5.257
53764SOL     OW63124   4.842   3.188   3.245
53764SOL    HW163125   4.785   3.114   3.221
53764SOL    HW263126   4.792   3.235   3.312
53765SOL     OW63127   0.022   9.940   2.392
53765SOL    HW163128  14.856   9.865   2.436
53765SOL    HW263129   0.054   9.905   2.309
53766SOL     OW63130  10.526   1.468   3.732
53766SOL    HW163131  10.470   1.416   3.675
53766SOL    HW263132  10.466   1.512   3.792
53767SOL     OW63133   7.849   7.667   0.920
53767SOL    HW163134   7.933   7.674   0.966
53767SOL    HW263135   7.858   7.725   0.845
53768SOL     OW63136   6.758   9.544   6.933
53768SOL    HW163137   6.791   9.466   6.889
53768SOL    HW263138   6.813   9.616   6.899
53769SOL     OW63139   0.220  12.664   3.981
53769SOL    HW163140   0.176  12.683   4.064
53769SOL    HW263141   0.163  12.600   3.938
53770SOL     OW63142   1.672   8.074   5.616
53770SOL    HW163143   1.675   8.022   5.697
53770SOL    HW263144   1.731   8.028   5.556
53771SOL     OW63145  14.345  13.131  14.473
53771SOL    HW163146  14.253  13.129  14.446
53771SOL    HW263147  14.394  13.139  14.391
53772SOL     OW63148  10.928  14.008   3.310
53772SOL    HW163149  10.975  13.930   3.280
53772SOL    HW263150  10.992  14.055   3.364
53773SOL     OW63151  11.237   9.353   6.381
53773SOL    HW163152  11.321   9.397   6.395
53773SOL    HW263153  11.242   9.322   6.290
53774SOL     OW63154   4.959  10.527   6.116
53774SOL    HW163155   4.887  10.517   6.179
53774SOL    HW263156   4.960  10.445   6.067
53775SOL     OW63157   9.303   0.851   2.958
53775SOL    HW163158   9.295   0.943   2.982
53775SOL    HW263159   9.397   0.836   2.951
53776SOL     OW63160   3.530   6.092  13.154
53776SOL    HW163161   3.441   6.058  13.142
53776SOL    HW263162   3.557   6.119  13.066
53777SOL     OW63163   9.872   1.658   5.833
53777SOL    HW163164   9.834   1.736   5.873
53777SOL    HW263165   9.797   1.612   5.794
53778SOL     OW63166  10.070   5.426   5.540
53778SOL    HW163167   9.994   5.482   5.525
53778SOL    HW263168  10.093   5.439   5.632
53779SOL     OW63169   1.424  14.240   3.506
53779SOL    HW163170   1.501  14.295   3.523
53779SOL    HW263171   1.403  14.202   3.591
53780SOL     OW63172   0.874   9.780   0.094
53780SOL    HW163173   0.896   9.708   0.035
53780SOL    HW263174   0.950   9.789   0.151
53781SOL     OW63175   2.079   5.692   9.157
53781SOL    HW163176   2.125   5.692   9.241
53781SOL    HW263177   2.148   5.692   9.091
53782SOL     OW63178   4.879   9.628  10.138
53782SOL    HW163179   4.878   9.655  10.230
53782SOL    HW263180   4.837   9.701  10.091
53783SOL     OW63181  10.443   7.098  12.507
53783SOL    HW163182  10.538   7.098  12.496
53783SOL    HW263183  10.422   7.008  12.531
53784SOL     OW63184   0.780   7.751   1.620
53784SOL    HW163185   0.830   7.776   1.543
53784SOL    HW263186   0.816   7.666   1.646
53785SOL     OW63187   7.222   9.885   3.865
53785SOL    HW163188   7.136   9.882   3.908
53785SOL    HW263189   7.275   9.820   3.913
53786SOL     OW63190  10.661   0.586  10.418
53786SOL    HW163191  10.719   0.510  10.411
53786SOL    HW263192  10.676   0.619  10.507
53787SOL     OW63193  13.820  11.979  10.745
53787SOL    HW163194  13.912  11.957  10.729
53787SOL    HW263195  13.821  12.071  10.772
53788SOL     OW63196  10.083   0.116   0.681
53788SOL    HW163197  10.001   0.148   0.644
53788SOL    HW263198  10.080   0.021   0.669
53789SOL     OW63199  13.058   3.744   1.195
53789SOL    HW163200  13.047   3.799   1.273
53789SOL    HW263201  13.010   3.664   1.215
53790SOL     OW63202   1.625   1.225   6.569
53790SOL    HW163203   1.562   1.184   6.510
53790SOL    HW263204   1.640   1.312   6.531
53791SOL     OW63205  10.908   2.519  13.569
53791SOL    HW163206  10.882   2.525  13.477
53791SOL    HW263207  10.840   2.466  13.611
53792SOL     OW63208  13.703   2.113   5.548
53792SOL    HW163209  13.785   2.136   5.505
53792SOL    HW263210  13.726   2.104   5.640
53793SOL     OW63211   0.754   0.735   2.429
53793SOL    HW163212   0.719   0.769   2.512
53793SOL    HW263213   0.733   0.803   2.365
53794SOL     OW63214   0.355   1.928  13.859
53794SOL    HW163215   0.359   1.939  13.954
53794SOL    HW263216   0.415   1.995  13.825
53795SOL     OW63217   1.429  13.737  10.153
53795SOL    HW163218   1.412  13.829  10.136
53795SOL    HW263219   1.491  13.736  10.226
53796SOL     OW63220   5.619   9.671  13.125
53796SOL    HW163221   5.614   9.597  13.185
53796SOL    HW263222   5.580   9.744  13.173
53797SOL     OW63223   5.008   4.459   5.975
53797SOL    HW163224   5.099   4.476   5.999
53797SOL    HW263225   5.013   4.383   5.917
53798SOL     OW63226   3.189   4.680   0.901
53798SOL    HW163227   3.231   4.627   0.833
53798SOL    HW263228   3.261   4.730   0.940
53799SOL     OW63229   8.254   5.941   8.682
53799SOL    HW163230   8.195   5.877   8.721
53799SOL    HW263231   8.334   5.892   8.663
53800SOL     OW63232   9.637   7.966  14.246
53800SOL    HW163233   9.543   7.955  14.236
53800SOL    HW263234   9.647   8.039  14.307
53801SOL     OW63235   5.127   8.055   6.968
53801SOL    HW163236   5.146   7.994   7.039
53801SOL    HW263237   5.032   8.048   6.955
53802SOL     OW63238   0.522  11.843   0.030
53802SOL    HW163239   0.589  11.851   0.098
53802SOL    HW263240   0.479  11.759   0.051
53803SOL     OW63241   1.448   8.857  12.984
53803SOL    HW163242   1.442   8.947  12.953
53803SOL    HW263243   1.471   8.807  12.906
53804SOL     OW63244  11.766   9.329  12.478
53804SOL    HW163245  11.806   9.264  12.536
53804SOL    HW263246  11.682   9.349  12.519
53805SOL     OW63247   2.809  14.031   8.112
53805SOL    HW163248   2.740  14.084   8.151
53805SOL    HW263249   2.848  14.088   8.046
53806SOL     OW63250   0.035   2.409   0.477
53806SOL    HW163251   0.087   2.335   0.446
53806SOL    HW263252  14.869   2.445   0.398
53807SOL     OW63253  13.133  11.872   0.437
53807SOL    HW163254  13.176  11.952   0.408
53807SOL    HW263255  13.137  11.814   0.362
53808SOL     OW63256   2.247   6.002   4.093
53808SOL    HW163257   2.336   5.966   4.090
53808SOL    HW263258   2.261   6.097   4.100
53809SOL     OW63259  11.648   1.975   5.741
53809SOL    HW163260  11.674   1.913   5.672
53809SOL    HW263261  11.553   1.969   5.744
53810SOL     OW63262   4.544   1.410  13.261
53810SOL    HW163263   4.591   1.491  13.277
53810SOL    HW263264   4.580   1.348  13.325
53811SOL     OW63265   3.263  10.635  12.273
53811SOL    HW163266   3.275  10.589  12.190
53811SOL    HW263267   3.204  10.579  12.324
53812SOL     OW63268   1.015   2.859   6.941
53812SOL    HW163269   0.990   2.946   6.972
53812SOL    HW263270   1.107   2.850   6.966
53813SOL     OW63271  10.856   3.054  13.840
53813SOL    HW163272  10.945   3.089  13.833
53813SOL    HW263273  10.800   3.131  13.842
53814SOL     OW63274  13.409  13.280  14.466
53814SOL    HW163275  13.384  13.265  14.558
53814SOL    HW263276  13.338  13.334  14.431
53815SOL     OW63277   3.871   2.267   6.281
53815SOL    HW163278   3.878   2.216   6.201
53815SOL    HW263279   3.927   2.343   6.266
53816SOL     OW63280   1.307   3.591   7.254
53816SOL    HW163281   1.356   3.525   7.304
53816SOL    HW263282   1.218   3.584   7.286
53817SOL     OW63283  11.546   0.700   9.340
53817SOL    HW163284  11.546   0.736   9.429
53817SOL    HW263285  11.633   0.660   9.331
53818SOL     OW63286  12.828   5.245  13.188
53818SOL    HW163287  12.871   5.303  13.251
53818SOL    HW263288  12.890   5.238  13.116
53819SOL     OW63289  12.778   7.711   9.852
53819SOL    HW163290  12.850   7.738   9.910
53819SOL    HW263291  12.770   7.616   9.867
53820SOL     OW63292  11.107   0.262  12.212
53820SOL    HW163293  11.182   0.319  12.230
53820SOL    HW263294  11.132   0.214  12.133
53821SOL     OW63295   4.219  10.396  12.183
53821SOL    HW163296   4.140  10.406  12.129
53821SOL    HW263297   4.187  10.358  12.265
53822SOL     OW63298   2.460   5.362   5.405
53822SOL    HW163299   2.540   5.327   5.445
53822SOL    HW263300   2.417   5.411   5.475
53823SOL     OW63301   4.476  11.718   7.994
53823SOL    HW163302   4.565  11.683   7.989
53823SOL    HW263303   4.426  11.650   8.039
53824SOL     OW63304   3.486  11.544   0.136
53824SOL    HW163305   3.451  11.455   0.135
53824SOL    HW263306   3.410  11.600   0.124
53825SOL     OW63307  11.972   9.893   1.396
53825SOL    HW163308  11.931   9.921   1.478
53825SOL    HW263309  11.902   9.849   1.348
53826SOL     OW63310   4.360  12.941   6.633
53826SOL    HW163311   4.376  13.005   6.702
53826SOL    HW263312   4.328  12.863   6.679
53827SOL     OW63313  12.019   0.495   2.604
53827SOL    HW163314  12.022   0.587   2.631
53827SOL    HW263315  11.983   0.449   2.681
53828SOL     OW63316   6.327  13.383  12.143
53828SOL    HW163317   6.417  13.400  12.116
53828SOL    HW263318   6.313  13.441  12.218
53829SOL     OW63319   5.755  13.790   0.008
53829SOL    HW163320   5.822  13.802   0.076
53829SOL    HW263321   5.728  13.879  14.859
53830SOL     OW63322   8.125   6.483   2.166
53830SOL    HW163323   8.043   6.499   2.118
53830SOL    HW263324   8.097   6.460   2.254
53831SOL     OW63325  10.195   2.695   1.546
53831SOL    HW163326  10.236   2.609   1.547
53831SOL    HW263327  10.114   2.683   1.496
53832SOL     OW63328  12.547   5.021  13.386
53832SOL    HW163329  12.542   5.062  13.299
53832SOL    HW263330  12.636   5.040  13.416
53833SOL     OW63331   5.815   0.433   6.566
53833SOL    HW163332   5.779   0.521   6.575
53833SOL    HW263333   5.791   0.405   6.478
53834SOL     OW63334   6.970   4.576   1.972
53834SOL    HW163335   6.969   4.485   1.942
53834SOL    HW263336   7.027   4.621   1.910
53835SOL     OW63337   3.522  12.431   0.111
53835SOL    HW163338   3.438  12.441   0.158
53835SOL    HW263339   3.558  12.349   0.143
53836SOL     OW63340  10.434  13.718  13.121
53836SOL    HW163341  10.340  13.712  13.139
53836SOL    HW263342  10.474  13.742  13.204
53837SOL     OW63343  13.092   6.128   7.931
53837SOL    HW163344  13.139   6.128   7.848
53837SOL    HW263345  13.052   6.041   7.936
53838SOL     OW63346  12.257  10.916   5.973
53838SOL    HW163347  12.306  10.922   6.055
53838SOL    HW263348  12.226  10.825   5.970
53839SOL     OW63349   8.169  14.236  11.406
53839SOL    HW163350   8.207  14.189  11.480
53839SOL    HW263351   8.162  14.327  11.435
53840SOL     OW63352   0.521  13.540  10.499
53840SOL    HW163353   0.439  13.588  10.511
53840SOL    HW263354   0.521  13.515  10.407
53841SOL     OW63355  12.076   2.253   9.763
53841SOL    HW163356  12.116   2.340   9.761
53841SOL    HW263357  12.091   2.218   9.675
53842SOL     OW63358   0.759   4.636   3.169
53842SOL    HW163359   0.824   4.655   3.237
53842SOL    HW263360   0.771   4.543   3.151
53843SOL     OW63361   3.341   1.851   2.174
53843SOL    HW163362   3.359   1.792   2.100
53843SOL    HW263363   3.247   1.867   2.168
53844SOL     OW63364   8.999   4.591   9.272
53844SOL    HW163365   9.039   4.516   9.316
53844SOL    HW263366   8.934   4.624   9.334
53845SOL     OW63367  14.790   0.148  11.217
53845SOL    HW163368  14.739   0.160  11.297
53845SOL    HW263369  14.820   0.236  11.195
53846SOL     OW63370   2.326   8.429   3.281
53846SOL    HW163371   2.271   8.503   3.257
53846SOL    HW263372   2.335   8.436   3.376
53847SOL     OW63373  11.492  11.447  10.280
53847SOL    HW163374  11.525  11.420  10.194
53847SOL    HW263375  11.452  11.533  10.265
53848SOL     OW63376   5.609  13.320   8.273
53848SOL    HW163377   5.677  13.253   8.274
53848SOL    HW263378   5.543  13.288   8.334
53849SOL     OW63379  10.025  10.150   3.642
53849SOL    HW163380  10.092  10.157   3.711
53849SOL    HW263381   9.943  10.139   3.690
53850SOL     OW63382  10.720   7.663  10.011
53850SOL    HW163383  10.683   7.647   9.924
53850SOL    HW263384  10.677   7.744  10.041
53851SOL     OW63385  13.910  10.548   0.596
53851SOL    HW163386  13.956  10.631   0.610
53851SOL    HW263387  13.940  10.491   0.666
53852SOL     OW63388  14.454  11.514   0.431
53852SOL    HW163389  14.546  11.493   0.412
53852SOL    HW263390  14.407  11.491   0.351
53853SOL     OW63391  13.622  14.271   2.544
53853SOL    HW163392  13.561  14.301   2.612
53853SOL    HW263393  13.578  14.196   2.504
53854SOL     OW63394   6.535  14.498   4.049
53854SOL    HW163395   6.611  14.449   4.079
53854SOL    HW263396   6.554  14.589   4.070
53855SOL     OW63397  11.511   5.656   1.664
53855SOL    HW163398  11.593   5.626   1.626
53855SOL    HW263399  11.444   5.632   1.600
53856SOL     OW63400  10.383   8.143   8.125
53856SOL    HW163401  10.301   8.125   8.079
53856SOL    HW263402  10.391   8.238   8.124
53857SOL     OW63403   2.513   5.078   7.886
53857SOL    HW163404   2.522   5.092   7.980
53857SOL    HW263405   2.594   5.112   7.848
53858SOL     OW63406   8.810   0.365   4.606
53858SOL    HW163407   8.877   0.308   4.568
53858SOL    HW263408   8.806   0.440   4.547
53859SOL     OW63409   9.145   7.496   3.338
53859SOL    HW163410   9.153   7.442   3.260
53859SOL    HW263411   9.093   7.572   3.310
53860SOL     OW63412   6.993   0.901   6.207
53860SOL    HW163413   7.009   0.899   6.112
53860SOL    HW263414   6.976   0.810   6.231
53861SOL     OW63415  13.292   8.022  13.211
53861SOL    HW163416  13.376   7.975  13.213
53861SOL    HW263417  13.237   7.969  13.153
53862SOL     OW63418  10.664  13.922   5.780
53862SOL    HW163419  10.597  13.922   5.711
53862SOL    HW263420  10.635  13.855   5.841
53863SOL     OW63421   3.331   4.747  14.308
53863SOL    HW163422   3.237   4.763  14.306
53863SOL    HW263423   3.370   4.830  14.336
53864SOL     OW63424   3.209   5.453   2.037
53864SOL    HW163425   3.124   5.447   2.081
53864SOL    HW263426   3.226   5.547   2.032
53865SOL     OW63427  14.740  10.724   6.273
53865SOL    HW163428  14.658  10.745   6.318
53865SOL    HW263429  14.712  10.678   6.193
53866SOL     OW63430   1.039   8.362   5.517
53866SOL    HW163431   1.079   8.433   5.466
53866SOL    HW263432   1.001   8.304   5.451
53867SOL     OW63433   0.741   4.390   6.500
53867SOL    HW163434   0.667   4.420   6.553
53867SOL    HW263435   0.761   4.463   6.442
53868SOL     OW63436   4.439   4.398  12.060
53868SOL    HW163437   4.373   4.467  12.070
53868SOL    HW263438   4.463   4.401  11.968
53869SOL     OW63439   4.168   2.736   7.385
53869SOL    HW163440   4.264   2.737   7.386
53869SOL    HW263441   4.143   2.767   7.472
53870SOL     OW63442   7.017  11.989  14.452
53870SOL    HW163443   6.996  12.080  14.432
53870SOL    HW263444   7.015  11.984  14.547
53871SOL     OW63445  11.774   2.351  14.359
53871SOL    HW163446  11.764   2.278  14.420
53871SOL    HW263447  11.798   2.310  14.276
53872SOL     OW63448   8.629   4.982  11.572
53872SOL    HW163449   8.637   5.076  11.588
53872SOL    HW263450   8.719   4.950  11.573
53873SOL     OW63451   9.273  10.795  14.766
53873SOL    HW163452   9.362  10.780  14.796
53873SOL    HW263453   9.257  10.727  14.701
53874SOL     OW63454   3.412   6.098  12.805
53874SOL    HW163455   3.378   6.031  12.864
53874SOL    HW263456   3.347   6.103  12.734
53875SOL     OW63457  14.006  11.660   3.998
53875SOL    HW163458  13.918  11.625   3.985
53875SOL    HW263459  14.022  11.715   3.922
53876SOL     OW63460   0.163   6.135   9.786
53876SOL    HW163461   0.149   6.226   9.759
53876SOL    HW263462   0.100   6.085   9.733
53877SOL     OW63463   4.421   3.939  13.574
53877SOL    HW163464   4.337   3.932  13.619
53877SOL    HW263465   4.481   3.974  13.639
53878SOL     OW63466  13.164   6.530   5.563
53878SOL    HW163467  13.243   6.544   5.615
53878SOL    HW263468  13.118   6.460   5.609
53879SOL     OW63469   7.586  14.172  12.169
53879SOL    HW163470   7.543  14.126  12.241
53879SOL    HW263471   7.573  14.264  12.188
53880SOL     OW63472  14.241   9.552   3.054
53880SOL    HW163473  14.183   9.476   3.043
53880SOL    HW263474  14.242   9.568   3.148
53881SOL     OW63475  10.110   8.939  14.831
53881SOL    HW163476  10.120   9.029  14.800
53881SOL    HW263477  10.118   8.885  14.752
53882SOL     OW63478  13.869  12.755  10.577
53882SOL    HW163479  13.919  12.752  10.495
53882SOL    HW263480  13.784  12.792  10.552
53883SOL     OW63481   7.180   9.224   3.993
53883SOL    HW163482   7.216   9.246   3.907
53883SOL    HW263483   7.198   9.301   4.047
53884SOL     OW63484  12.423  13.480  10.008
53884SOL    HW163485  12.388  13.462   9.921
53884SOL    HW263486  12.346  13.500  10.061
53885SOL     OW63487  10.251  13.669  14.608
53885SOL    HW163488  10.185  13.737  14.593
53885SOL    HW263489  10.334  13.713  14.592
53886SOL     OW63490  14.312   8.722  14.054
53886SOL    HW163491  14.399   8.720  14.094
53886SOL    HW263492  14.254   8.747  14.125
53887SOL     OW63493  10.946   1.139  11.202
53887SOL    HW163494  10.942   1.228  11.238
53887SOL    HW263495  10.913   1.083  11.273
53888SOL     OW63496   1.005   0.288   8.146
53888SOL    HW163497   0.993   0.212   8.204
53888SOL    HW263498   0.936   0.348   8.171
53889SOL     OW63499   4.329   0.187   9.911
53889SOL    HW163500   4.357   0.218   9.998
53889SOL    HW263501   4.404   0.138   9.878
53890SOL     OW63502   8.857   1.688   8.205
53890SOL    HW163503   8.879   1.595   8.212
53890SOL    HW263504   8.775   1.689   8.156
53891SOL     OW63505   8.629   7.210   4.829
53891SOL    HW163506   8.599   7.226   4.740
53891SOL    HW263507   8.602   7.121   4.848
53892SOL     OW63508   2.565   1.462   1.575
53892SOL    HW163509   2.498   1.446   1.508
53892SOL    HW263510   2.522   1.439   1.658
53893SOL     OW63511  10.438   8.061   4.597
53893SOL    HW163512  10.401   8.049   4.685
53893SOL    HW263513  10.499   8.134   4.607
53894SOL     OW63514   6.819   3.890   0.568
53894SOL    HW163515   6.734   3.921   0.537
53894SOL    HW263516   6.878   3.965   0.557
53895SOL     OW63517   3.451   9.378  10.973
53895SOL    HW163518   3.381   9.393  11.036
53895SOL    HW263519   3.461   9.283  10.971
53896SOL     OW63520  11.584   7.049   0.069
53896SOL    HW163521  11.538   7.132   0.076
53896SOL    HW263522  11.523   6.985   0.105
53897SOL     OW63523   0.620   0.482   0.567
53897SOL    HW163524   0.697   0.451   0.518
53897SOL    HW263525   0.656   0.517   0.648
53898SOL     OW63526  14.812  13.607  13.059
53898SOL    HW163527  14.849  13.629  13.145
53898SOL    HW263528  14.719  13.626  13.067
53899SOL     OW63529   4.968   9.174   7.402
53899SOL    HW163530   5.062   9.188   7.391
53899SOL    HW263531   4.941   9.123   7.326
53900SOL     OW63532  13.607  13.214  12.045
53900SOL    HW163533  13.592  13.302  12.081
53900SOL    HW263534  13.576  13.155  12.113
53901SOL     OW63535  12.734   3.898   1.367
53901SOL    HW163536  12.773   3.827   1.316
53901SOL    HW263537  12.789   3.904   1.445
53902SOL     OW63538   7.839   9.675   4.654
53902SOL    HW163539   7.832   9.581   4.635
53902SOL    HW263540   7.930   9.687   4.680
53903SOL     OW63541  13.008   9.486   2.700
53903SOL    HW163542  13.059   9.542   2.641
53903SOL    HW263543  12.976   9.545   2.768
53904SOL     OW63544   2.259   7.134  11.207
53904SOL    HW163545   2.213   7.104  11.129
53904SOL    HW263546   2.306   7.213  11.178
53905SOL     OW63547   8.396  11.425  14.357
53905SOL    HW163548   8.469  11.463  14.407
53905SOL    HW263549   8.335  11.394  14.424
53906SOL     OW63550   6.633   2.917   3.973
53906SOL    HW163551   6.614   2.950   3.885
53906SOL    HW263552   6.591   2.979   4.032
53907SOL     OW63553   4.069   1.539  10.854
53907SOL    HW163554   4.059   1.565  10.946
53907SOL    HW263555   3.979   1.526  10.823
53908SOL     OW63556  12.364  10.790   3.209
53908SOL    HW163557  12.402  10.746   3.133
53908SOL    HW263558  12.277  10.751   3.218
53909SOL     OW63559   3.094   8.547   0.481
53909SOL    HW163560   3.097   8.475   0.418
53909SOL    HW263561   3.082   8.625   0.427
53910SOL     OW63562   5.645   9.265  10.940
53910SOL    HW163563   5.731   9.232  10.916
53910SOL    HW263564   5.663   9.350  10.980
53911SOL     OW63565  10.871  12.765   2.312
53911SOL    HW163566  10.840  12.782   2.401
53911SOL    HW263567  10.796  12.725   2.268
53912SOL     OW63568   9.093  12.818  11.406
53912SOL    HW163569   9.175  12.799  11.452
53912SOL    HW263570   9.111  12.897  11.356
53913SOL     OW63571   8.366   1.273   7.412
53913SOL    HW163572   8.307   1.348   7.411
53913SOL    HW263573   8.453   1.311   7.398
53914SOL     OW63574  11.843   1.326   5.058
53914SOL    HW163575  11.822   1.408   5.103
53914SOL    HW263576  11.760   1.296   5.023
53915SOL     OW63577   7.636   3.611   4.229
53915SOL    HW163578   7.634   3.627   4.324
53915SOL    HW263579   7.647   3.517   4.221
53916SOL     OW63580   0.958   0.012   3.478
53916SOL    HW163581   0.959  14.800   3.522
53916SOL    HW263582   0.866   0.027   3.457
53917SOL     OW63583  12.579  11.717   8.122
53917SOL    HW163584  12.505  11.708   8.062
53917SOL    HW263585  12.544  11.689   8.207
53918SOL     OW63586   3.579   2.501   7.837
53918SOL    HW163587   3.529   2.446   7.777
53918SOL    HW263588   3.649   2.445   7.869
53919SOL     OW63589   6.113  14.746   1.913
53919SOL    HW163590   6.067  14.753   1.996
53919SOL    HW263591   6.074  14.814   1.858
53920SOL     OW63592   4.607   4.978   9.005
53920SOL    HW163593   4.699   4.959   8.990
53920SOL    HW263594   4.568   4.894   9.030
53921SOL     OW63595   7.949   1.603   1.148
53921SOL    HW163596   7.915   1.525   1.104
53921SOL    HW263597   8.043   1.600   1.133
53922SOL     OW63598  12.728   5.588  12.102
53922SOL    HW163599  12.701   5.567  12.013
53922SOL    HW263600  12.746   5.503  12.142
53923SOL     OW63601   4.711   2.164  11.129
53923SOL    HW163602   4.786   2.105  11.119
53923SOL    HW263603   4.729   2.214  11.208
53924SOL     OW63604   6.153   6.782  14.803
53924SOL    HW163605   6.170   6.858  14.748
53924SOL    HW263606   6.093   6.728  14.752
53925SOL     OW63607   1.186   6.542  14.337
53925SOL    HW163608   1.104   6.508  14.375
53925SOL    HW263609   1.189   6.633  14.367
53926SOL     OW63610  12.153   7.225   3.676
53926SOL    HW163611  12.091   7.156   3.653
53926SOL    HW263612  12.127   7.252   3.764
53927SOL     OW63613   8.996  14.284   6.127
53927SOL    HW163614   9.000  14.375   6.157
53927SOL    HW263615   8.944  14.287   6.047
53928SOL     OW63616   9.337   6.966   2.532
53928SOL    HW163617   9.292   7.002   2.608
53928SOL    HW263618   9.330   6.872   2.542
53929SOL     OW63619   2.849   6.801  12.837
53929SOL    HW163620   2.852   6.884  12.789
53929SOL    HW263621   2.821   6.737  12.771
53930SOL     OW63622  11.639   9.251   0.006
53930SOL    HW163623  11.591   9.334   0.001
53930SOL    HW263624  11.641   9.219  14.789
53931SOL     OW63625  10.229  13.158  12.128
53931SOL    HW163626  10.256  13.247  12.106
53931SOL    HW263627  10.277  13.138  12.208
53932SOL     OW63628  10.673   4.102   3.476
53932SOL    HW163629  10.597   4.046   3.458
53932SOL    HW263630  10.647   4.153   3.553
53933SOL     OW63631  12.804   7.042   6.024
53933SOL    HW163632  12.734   6.977   6.027
53933SOL    HW263633  12.843   7.032   5.937
53934SOL     OW63634   0.525  12.418   8.613
53934SOL    HW163635   0.580  12.407   8.536
53934SOL    HW263636   0.491  12.507   8.606
53935SOL     OW63637   5.469   3.288   2.932
53935SOL    HW163638   5.429   3.233   2.999
53935SOL    HW263639   5.453   3.242   2.850
53936SOL     OW63640   8.823   1.118   6.746
53936SOL    HW163641   8.898   1.177   6.736
53936SOL    HW263642   8.804   1.118   6.840
53937SOL     OW63643  12.752   6.135   5.049
53937SOL    HW163644  12.806   6.075   5.099
53937SOL    HW263645  12.798   6.219   5.054
53938SOL     OW63646   7.775  13.044   9.637
53938SOL    HW163647   7.854  13.096   9.651
53938SOL    HW263648   7.726  13.055   9.719
53939SOL     OW63649  11.075   7.373   5.657
53939SOL    HW163650  11.151   7.382   5.599
53939SOL    HW263651  11.035   7.289   5.632
53940SOL     OW63652  11.156  10.850   5.037
53940SOL    HW163653  11.120  10.917   5.096
53940SOL    HW263654  11.137  10.767   5.082
53941SOL     OW63655   1.099  12.386   7.962
53941SOL    HW163656   1.181  12.396   7.913
53941SOL    HW263657   1.042  12.337   7.903
53942SOL     OW63658   3.772  11.887   5.989
53942SOL    HW163659   3.740  11.958   6.045
53942SOL    HW263660   3.701  11.873   5.926
53943SOL     OW63661   4.673   1.444   7.887
53943SOL    HW163662   4.646   1.354   7.905
53943SOL    HW263663   4.624   1.497   7.950
53944SOL     OW63664   8.698   8.817   4.416
53944SOL    HW163665   8.605   8.799   4.406
53944SOL    HW263666   8.738   8.782   4.337
53945SOL     OW63667   2.961  12.425   4.039
53945SOL    HW163668   2.941  12.331   4.049
53945SOL    HW263669   3.044  12.427   3.992
53946SOL     OW63670   0.531  12.035  10.790
53946SOL    HW163671   0.619  12.038  10.753
53946SOL    HW263672   0.541  11.984  10.871
53947SOL     OW63673  12.478   7.242   3.818
53947SOL    HW163674  12.445   7.188   3.890
53947SOL    HW263675  12.512   7.179   3.754
53948SOL     OW63676  14.021   8.721   0.529
53948SOL    HW163677  13.942   8.693   0.482
53948SOL    HW263678  14.072   8.768   0.463
53949SOL     OW63679  13.878   0.489   4.492
53949SOL    HW163680  13.808   0.544   4.528
53949SOL    HW263681  13.869   0.498   4.397
53950SOL     OW63682   7.503   7.016   7.359
53950SOL    HW163683   7.442   7.012   7.433
53950SOL    HW263684   7.457   6.972   7.287
53951SOL     OW63685   8.916   6.335  14.315
53951SOL    HW163686   8.849   6.346  14.247
53951SOL    HW263687   8.993   6.381  14.281
53952SOL     OW63688  10.018  10.705   1.907
53952SOL    HW163689  10.017  10.711   1.812
53952SOL    HW263690   9.931  10.734   1.934
53953SOL     OW63691   4.390  11.715  13.909
53953SOL    HW163692   4.377  11.646  13.975
53953SOL    HW263693   4.451  11.776  13.949
53954SOL     OW63694   9.765   7.695   9.174
53954SOL    HW163695   9.777   7.738   9.089
53954SOL    HW263696   9.853   7.669   9.200
53955SOL     OW63697  10.985  13.279  14.739
53955SOL    HW163698  11.000  13.297  14.646
53955SOL    HW263699  11.021  13.192  14.752
53956SOL     OW63700  11.220  13.497  11.000
53956SOL    HW163701  11.146  13.452  11.041
53956SOL    HW263702  11.291  13.491  11.064
53957SOL     OW63703   8.942  14.102  14.525
53957SOL    HW163704   9.035  14.085  14.541
53957SOL    HW263705   8.911  14.023  14.480
53958SOL     OW63706   3.868   2.124  14.321
53958SOL    HW163707   3.950   2.120  14.272
53958SOL    HW263708   3.808   2.068  14.272
53959SOL     OW63709   5.880   3.936   5.317
53959SOL    HW163710   5.973   3.955   5.302
53959SOL    HW263711   5.850   3.897   5.234
53960SOL     OW63712   8.530   6.639   1.231
53960SOL    HW163713   8.508   6.565   1.289
53960SOL    HW263714   8.611   6.674   1.267
53961SOL     OW63715   7.881   7.672  10.366
53961SOL    HW163716   7.874   7.577  10.360
53961SOL    HW263717   7.796   7.700  10.402
53962SOL     OW63718   2.216   6.279   5.689
53962SOL    HW163719   2.270   6.311   5.616
53962SOL    HW263720   2.251   6.192   5.709
53963SOL     OW63721   7.739   8.871   2.914
53963SOL    HW163722   7.692   8.801   2.869
53963SOL    HW263723   7.676   8.944   2.916
53964SOL     OW63724  10.226   5.698   9.959
53964SOL    HW163725  10.173   5.711  10.038
53964SOL    HW263726  10.176   5.636   9.906
53965SOL     OW63727   2.265   0.608  14.069
53965SOL    HW163728   2.288   0.586  13.979
53965SOL    HW263729   2.261   0.523  14.114
53966SOL     OW63730  11.680   4.052   5.054
53966SOL    HW163731  11.743   4.094   5.113
53966SOL    HW263732  11.620   4.123   5.030
53967SOL     OW63733   1.194   8.643   8.355
53967SOL    HW163734   1.274   8.659   8.405
53967SOL    HW263735   1.174   8.728   8.315
53968SOL     OW63736   4.288   8.776   4.414
53968SOL    HW163737   4.207   8.749   4.458
53968SOL    HW263738   4.343   8.811   4.485
53969SOL     OW63739  10.843  14.114  12.618
53969SOL    HW163740  10.806  14.116  12.529
53969SOL    HW263741  10.812  14.032  12.655
53970SOL     OW63742   4.418  13.562  10.215
53970SOL    HW163743   4.354  13.494  10.195
53970SOL    HW263744   4.420  13.565  10.311
53971SOL     OW63745   2.125   4.492  13.213
53971SOL    HW163746   2.118   4.585  13.236
53971SOL    HW263747   2.045   4.453  13.249
53972SOL     OW63748   1.821  13.788   6.911
53972SOL    HW163749   1.780  13.823   6.832
53972SOL    HW263750   1.892  13.733   6.878
53973SOL     OW63751   7.132   2.579  13.427
53973SOL    HW163752   7.223   2.610  13.428
53973SOL    HW263753   7.131   2.507  13.490
53974SOL     OW63754  10.032   0.335  11.521
53974SOL    HW163755  10.006   0.264  11.462
53974SOL    HW263756  10.012   0.415  11.473
53975SOL     OW63757   4.354  13.775   1.625
53975SOL    HW163758   4.318  13.753   1.539
53975SOL    HW263759   4.434  13.824   1.605
53976SOL     OW63760   8.287   4.697   7.068
53976SOL    HW163761   8.197   4.728   7.074
53976SOL    HW263762   8.336   4.753   7.128
53977SOL     OW63763  10.172   4.281   9.918
53977SOL    HW163764  10.260   4.258   9.889
53977SOL    HW263765  10.146   4.209   9.975
53978SOL     OW63766  14.295   5.773  11.202
53978SOL    HW163767  14.234   5.827  11.251
53978SOL    HW263768  14.277   5.794  11.110
53979SOL     OW63769   4.212  12.754  10.556
53979SOL    HW163770   4.247  12.714  10.636
53979SOL    HW263771   4.120  12.773  10.578
53980SOL     OW63772   0.097  10.992   8.575
53980SOL    HW163773   0.063  11.077   8.548
53980SOL    HW263774   0.110  11.000   8.669
53981SOL     OW63775   6.102  12.790   7.727
53981SOL    HW163776   6.113  12.773   7.633
53981SOL    HW263777   6.160  12.727   7.769
53982SOL     OW63778   0.506   3.129   0.352
53982SOL    HW163779   0.484   3.143   0.444
53982SOL    HW263780   0.428   3.156   0.304
53983SOL     OW63781  12.900   0.864  13.348
53983SOL    HW163782  12.900   0.939  13.407
53983SOL    HW263783  12.889   0.902  13.261
53984SOL     OW63784   3.242  10.938   1.448
53984SOL    HW163785   3.279  10.927   1.536
53984SOL    HW263786   3.271  11.025   1.421
53985SOL     OW63787   7.152  11.151   6.870
53985SOL    HW163788   7.187  11.084   6.811
53985SOL    HW263789   7.133  11.105   6.951
53986SOL     OW63790  10.870   4.674  11.470
53986SOL    HW163791  10.826   4.645  11.549
53986SOL    HW263792  10.884   4.768  11.483
53987SOL     OW63793   0.454   4.295  13.817
53987SOL    HW163794   0.525   4.232  13.826
53987SOL    HW263795   0.430   4.318  13.906
53988SOL     OW63796   1.703   0.367   8.410
53988SOL    HW163797   1.777   0.400   8.359
53988SOL    HW263798   1.673   0.443   8.460
53989SOL     OW63799   5.369   4.876   7.324
53989SOL    HW163800   5.280   4.905   7.341
53989SOL    HW263801   5.370   4.784   7.349
53990SOL     OW63802   0.085   9.649   2.040
53990SOL    HW163803   0.077   9.573   2.096
53990SOL    HW263804   0.105   9.721   2.100
53991SOL     OW63805  14.203   1.379   9.429
53991SOL    HW163806  14.293   1.381   9.462
53991SOL    HW263807  14.195   1.457   9.375
53992SOL     OW63808   5.907   2.442   4.459
53992SOL    HW163809   5.998   2.470   4.450
53992SOL    HW263810   5.891   2.444   4.554
53993SOL     OW63811   4.316   6.437   4.324
53993SOL    HW163812   4.394   6.410   4.275
53993SOL    HW263813   4.347   6.510   4.378
53994SOL     OW63814   4.177  11.907   5.085
53994SOL    HW163815   4.097  11.880   5.040
53994SOL    HW263816   4.170  11.868   5.172
53995SOL     OW63817   6.278  10.941   3.910
53995SOL    HW163818   6.333  10.909   3.838
53995SOL    HW263819   6.189  10.918   3.884
53996SOL     OW63820  14.580   1.438   3.134
53996SOL    HW163821  14.553   1.362   3.185
53996SOL    HW263822  14.584   1.407   3.044
53997SOL     OW63823   3.367   3.212   7.159
53997SOL    HW163824   3.337   3.246   7.074
53997SOL    HW263825   3.463   3.217   7.154
53998SOL     OW63826   6.629   4.978   2.284
53998SOL    HW163827   6.704   4.955   2.339
53998SOL    HW263828   6.599   4.895   2.248
53999SOL     OW63829  10.055  14.252   5.213
53999SOL    HW163830  10.047  14.291   5.301
53999SOL    HW263831  10.104  14.171   5.228
54000SOL     OW63832  12.611  13.022   8.842
54000SOL    HW163833  12.543  12.954   8.848
54000SOL    HW263834  12.693  12.974   8.844
54001SOL     OW63835   6.837  11.767   6.846
54001SOL    HW163836   6.918  11.721   6.866
54001SOL    HW263837   6.790  11.771   6.929
54002SOL     OW63838   8.853   0.705   9.733
54002SOL    HW163839   8.922   0.642   9.755
54002SOL    HW263840   8.831   0.746   9.816
54003SOL     OW63841   4.212   6.156  13.448
54003SOL    HW163842   4.154   6.080  13.446
54003SOL    HW263843   4.300   6.119  13.443
54004SOL     OW63844  12.582   6.435  12.950
54004SOL    HW163845  12.514   6.380  12.911
54004SOL    HW263846  12.538   6.519  12.966
54005SOL     OW63847   9.117   0.858   3.899
54005SOL    HW163848   9.074   0.803   3.965
54005SOL    HW263849   9.082   0.827   3.816
54006SOL     OW63850  12.014   6.246   9.565
54006SOL    HW163851  12.034   6.327   9.518
54006SOL    HW263852  12.071   6.180   9.524
54007SOL     OW63853   6.318   7.306   3.485
54007SOL    HW163854   6.264   7.346   3.553
54007SOL    HW263855   6.320   7.213   3.507
54008SOL     OW63856   3.435   5.102   7.543
54008SOL    HW163857   3.524   5.110   7.507
54008SOL    HW263858   3.388   5.177   7.507
54009SOL     OW63859  11.528   4.493  10.999
54009SOL    HW163860  11.484   4.488  11.085
54009SOL    HW263861  11.566   4.406  10.987
54010SOL     OW63862  12.824   8.006  12.291
54010SOL    HW163863  12.809   8.069  12.361
54010SOL    HW263864  12.793   8.051  12.212
54011SOL     OW63865   3.840  13.328   5.917
54011SOL    HW163866   3.785  13.350   5.842
54011SOL    HW263867   3.825  13.234   5.931
54012SOL     OW63868  10.861   1.600  14.288
54012SOL    HW163869  10.851   1.690  14.259
54012SOL    HW263870  10.773   1.570  14.307
54013SOL     OW63871   9.892   7.112   1.127
54013SOL    HW163872   9.873   7.091   1.219
54013SOL    HW263873   9.970   7.167   1.131
54014SOL     OW63874  12.668   9.074  13.980
54014SOL    HW163875  12.613   9.121  13.918
54014SOL    HW263876  12.705   9.002  13.930
54015SOL     OW63877   6.405  13.028  11.545
54015SOL    HW163878   6.428  13.009  11.454
54015SOL    HW263879   6.332  13.090  11.539
54016SOL     OW63880   7.741   0.220  13.813
54016SOL    HW163881   7.680   0.199  13.742
54016SOL    HW263882   7.748   0.138  13.863
54017SOL     OW63883   6.023  11.056  11.631
54017SOL    HW163884   5.993  11.059  11.722
54017SOL    HW263885   6.011  10.964  11.605
54018SOL     OW63886  12.943   3.677   6.635
54018SOL    HW163887  13.030   3.650   6.606
54018SOL    HW263888  12.955   3.767   6.667
54019SOL     OW63889  13.812   5.594   1.047
54019SOL    HW163890  13.770   5.510   1.066
54019SOL    HW263891  13.803   5.643   1.129
54020SOL     OW63892   3.341   1.172   1.863
54020SOL    HW163893   3.252   1.183   1.896
54020SOL    HW263894   3.333   1.177   1.768
54021SOL     OW63895   9.366   7.290   9.228
54021SOL    HW163896   9.389   7.378   9.197
54021SOL    HW263897   9.271   7.285   9.219
54022SOL     OW63898  14.465   8.479  12.897
54022SOL    HW163899  14.498   8.562  12.933
54022SOL    HW263900  14.532   8.415  12.921
54023SOL     OW63901   2.377  14.597   4.802
54023SOL    HW163902   2.304  14.614   4.743
54023SOL    HW263903   2.374  14.503   4.818
54024SOL     OW63904   5.572   8.737  11.709
54024SOL    HW163905   5.620   8.786  11.776
54024SOL    HW263906   5.483   8.772  11.713
54025SOL     OW63907  10.873  10.846   4.083
54025SOL    HW163908  10.912  10.917   4.032
54025SOL    HW263909  10.842  10.887   4.163
54026SOL     OW63910  12.441  14.449   8.701
54026SOL    HW163911  12.504  14.520   8.698
54026SOL    HW263912  12.431  14.429   8.794
54027SOL     OW63913  13.921  11.475   9.119
54027SOL    HW163914  13.911  11.447   9.210
54027SOL    HW263915  13.848  11.536   9.105
54028SOL     OW63916   4.156   8.671  14.446
54028SOL    HW163917   4.061   8.673  14.432
54028SOL    HW263918   4.191   8.625  14.370
54029SOL     OW63919   7.570  10.425  11.474
54029SOL    HW163920   7.643  10.364  11.468
54029SOL    HW263921   7.497  10.372  11.507
54030SOL     OW63922   1.907   6.418  12.607
54030SOL    HW163923   1.940   6.374  12.685
54030SOL    HW263924   1.931   6.359  12.535
54031SOL     OW63925   2.658   8.014   1.341
54031SOL    HW163926   2.748   8.003   1.310
54031SOL    HW263927   2.665   8.078   1.412
54032SOL     OW63928   9.060   8.104   3.507
54032SOL    HW163929   9.115   8.180   3.525
54032SOL    HW263930   8.976   8.125   3.548
54033SOL     OW63931   6.667  13.736   2.786
54033SOL    HW163932   6.700  13.646   2.792
54033SOL    HW263933   6.575  13.729   2.813
54034SOL     OW63934  12.400   9.966  11.172
54034SOL    HW163935  12.348   9.990  11.249
54034SOL    HW263936  12.341   9.913  11.119
54035SOL     OW63937   8.390   2.453   8.057
54035SOL    HW163938   8.327   2.478   8.125
54035SOL    HW263939   8.444   2.530   8.044
54036SOL     OW63940  11.615   0.976  14.832
54036SOL    HW163941  11.562   0.966   0.039
54036SOL    HW263942  11.563   1.032  14.775
54037SOL     OW63943   0.752   6.372  10.093
54037SOL    HW163944   0.813   6.435  10.053
54037SOL    HW263945   0.733   6.310  10.023
54038SOL     OW63946  10.993   2.417   0.015
54038SOL    HW163947  11.069   2.362  14.868
54038SOL    HW263948  10.939   2.364   0.073
54039SOL     OW63949   6.068   8.527   4.939
54039SOL    HW163950   6.035   8.547   4.851
54039SOL    HW263951   5.999   8.558   4.998
54040SOL     OW63952  11.882  12.654  10.081
54040SOL    HW163953  11.938  12.593  10.130
54040SOL    HW263954  11.898  12.632   9.989
54041SOL     OW63955  12.646  11.517  11.308
54041SOL    HW163956  12.680  11.606  11.317
54041SOL    HW263957  12.620  11.493  11.397
54042SOL     OW63958   6.451   3.457   2.880
54042SOL    HW163959   6.478   3.405   2.956
54042SOL    HW263960   6.530   3.465   2.826
54043SOL     OW63961   6.030  12.057   0.679
54043SOL    HW163962   6.053  11.985   0.738
54043SOL    HW263963   6.097  12.053   0.610
54044SOL     OW63964   0.058   6.622   0.254
54044SOL    HW163965   0.114   6.676   0.310
54044SOL    HW263966   0.106   6.540   0.243
54045SOL     OW63967   4.040   2.409   2.946
54045SOL    HW163968   4.133   2.392   2.934
54045SOL    HW263969   4.013   2.350   3.016
54046SOL     OW63970   1.067  13.885  14.588
54046SOL    HW163971   1.112  13.968  14.605
54046SOL    HW263972   0.979  13.899  14.621
54047SOL     OW63973   3.688   2.962   8.522
54047SOL    HW163974   3.717   3.027   8.458
54047SOL    HW263975   3.714   2.999   8.606
54048SOL     OW63976   7.285  13.215   5.127
54048SOL    HW163977   7.204  13.257   5.095
54048SOL    HW263978   7.342  13.212   5.050
54049SOL     OW63979   1.900   7.562   6.651
54049SOL    HW163980   1.954   7.604   6.585
54049SOL    HW263981   1.940   7.586   6.735
54050SOL     OW63982  12.038   6.906   7.670
54050SOL    HW163983  11.943   6.908   7.659
54050SOL    HW263984  12.051   6.899   7.765
54051SOL     OW63985  14.570   9.289   3.166
54051SOL    HW163986  14.536   9.240   3.241
54051SOL    HW263987  14.544   9.236   3.090
54052SOL     OW63988  12.911   2.461  12.586
54052SOL    HW163989  12.960   2.479  12.666
54052SOL    HW263990  12.959   2.389  12.544
54053SOL     OW63991   9.942   9.424   5.261
54053SOL    HW163992   9.859   9.395   5.223
54053SOL    HW263993  10.007   9.411   5.192
54054SOL     OW63994   7.935   0.935   2.342
54054SOL    HW163995   7.923   0.841   2.355
54054SOL    HW263996   7.914   0.974   2.427
54055SOL     OW63997  14.061   8.276  10.958
54055SOL    HW163998  13.979   8.314  10.926
54055SOL    HW263999  14.050   8.182  10.946
54056SOL     OW64000   7.289  12.402   3.349
54056SOL    HW164001   7.289  12.332   3.414
54056SOL    HW264002   7.350  12.373   3.282
54057SOL     OW64003   6.428  11.955   8.323
54057SOL    HW164004   6.422  11.876   8.378
54057SOL    HW264005   6.339  11.991   8.324
54058SOL     OW64006   2.280   4.962   5.488
54058SOL    HW164007   2.225   4.884   5.491
54058SOL    HW264008   2.220   5.032   5.462
54059SOL     OW64009  10.758   0.955  14.192
54059SOL    HW164010  10.663   0.963  14.181
54059SOL    HW264011  10.794   0.972  14.105
54060SOL     OW64012  13.113   8.108   8.463
54060SOL    HW164013  13.109   8.148   8.550
54060SOL    HW264014  13.156   8.174   8.408
54061SOL     OW64015   9.960  12.639   2.221
54061SOL    HW164016   9.932  12.729   2.202
54061SOL    HW264017   9.979  12.602   2.135
54062SOL     OW64018   7.744   4.776   0.946
54062SOL    HW164019   7.696   4.837   0.891
54062SOL    HW264020   7.812   4.830   0.988
54063SOL     OW64021   0.148  11.256  11.587
54063SOL    HW164022   0.150  11.210  11.503
54063SOL    HW264023   0.171  11.189  11.652
54064SOL     OW64024  10.951  11.640   0.536
54064SOL    HW164025  10.978  11.548   0.533
54064SOL    HW264026  10.863  11.641   0.498
54065SOL     OW64027  14.609  13.844   0.949
54065SOL    HW164028  14.559  13.765   0.929
54065SOL    HW264029  14.673  13.850   0.879
54066SOL     OW64030   9.225  11.952  12.341
54066SOL    HW164031   9.187  11.908  12.417
54066SOL    HW264032   9.304  11.901  12.322
54067SOL     OW64033  11.145   0.359   3.398
54067SOL    HW164034  11.112   0.433   3.346
54067SOL    HW264035  11.206   0.314   3.340
54068SOL     OW64036   0.396   2.881  14.848
54068SOL    HW164037   0.314   2.923   0.003
54068SOL    HW264038   0.378   2.788  14.854
54069SOL     OW64039  14.410   1.956   6.678
54069SOL    HW164040  14.328   1.973   6.631
54069SOL    HW264041  14.441   2.043   6.704
54070SOL     OW64042   1.734  11.932  11.562
54070SOL    HW164043   1.806  11.946  11.623
54070SOL    HW264044   1.662  11.899  11.617
54071SOL     OW64045   6.673  14.752   6.658
54071SOL    HW164046   6.733  14.739   6.731
54071SOL    HW264047   6.701  14.688   6.592
54072SOL     OW64048   3.756   4.413  13.068
54072SOL    HW164049   3.740   4.456  12.984
54072SOL    HW264050   3.742   4.320  13.050
54073SOL     OW64051   7.846   5.739   0.942
54073SOL    HW164052   7.829   5.700   0.856
54073SOL    HW264053   7.875   5.666   0.996
54074SOL     OW64054   9.143  13.361  13.556
54074SOL    HW164055   9.053  13.332  13.538
54074SOL    HW264056   9.133  13.451  13.586
54075SOL     OW64057   6.229   2.365   8.644
54075SOL    HW164058   6.243   2.455   8.675
54075SOL    HW264059   6.250   2.368   8.551
54076SOL     OW64060   0.750  14.329   6.808
54076SOL    HW164061   0.805  14.356   6.881
54076SOL    HW264062   0.811  14.320   6.734
54077SOL     OW64063  12.531   8.665  13.567
54077SOL    HW164064  12.558   8.749  13.531
54077SOL    HW264065  12.581   8.600  13.516
54078SOL     OW64066   8.726   8.041   9.843
54078SOL    HW164067   8.730   7.957   9.798
54078SOL    HW264068   8.633   8.058   9.855
54079SOL     OW64069   3.712   4.641   3.871
54079SOL    HW164070   3.691   4.548   3.870
54079SOL    HW264071   3.696   4.669   3.962
54080SOL     OW64072   8.376  12.825   2.708
54080SOL    HW164073   8.415  12.911   2.724
54080SOL    HW264074   8.451  12.769   2.687
54081SOL     OW64075   4.757  13.950   0.962
54081SOL    HW164076   4.721  13.910   1.041
54081SOL    HW264077   4.799  14.030   0.993
54082SOL     OW64078   8.358   6.181   2.169
54082SOL    HW164079   8.440   6.161   2.214
54082SOL    HW264080   8.339   6.272   2.193
54083SOL     OW64081  12.886  13.900   3.124
54083SOL    HW164082  12.935  13.975   3.090
54083SOL    HW264083  12.953  13.837   3.150
54084SOL     OW64084   6.185  12.705   2.472
54084SOL    HW164085   6.261  12.670   2.425
54084SOL    HW264086   6.202  12.799   2.478
54085SOL     OW64087   4.416  12.461   6.903
54085SOL    HW164088   4.357  12.450   6.978
54085SOL    HW264089   4.461  12.544   6.919
54086SOL     OW64090   0.748  14.052  13.683
54086SOL    HW164091   0.670  14.086  13.639
54086SOL    HW264092   0.730  14.065  13.776
54087SOL     OW64093   6.207   9.350  11.106
54087SOL    HW164094   6.123   9.316  11.073
54087SOL    HW264095   6.273   9.301  11.058
54088SOL     OW64096   9.305   9.647   5.391
54088SOL    HW164097   9.246   9.709   5.434
54088SOL    HW264098   9.271   9.640   5.302
54089SOL     OW64099   6.909   6.535   7.185
54089SOL    HW164100   6.836   6.583   7.224
54089SOL    HW264101   6.886   6.443   7.199
54090SOL     OW64102   8.932  13.586   3.601
54090SOL    HW164103   8.874  13.539   3.541
54090SOL    HW264104   8.890  13.672   3.613
54091SOL     OW64105  14.525   5.544   3.093
54091SOL    HW164106  14.583   5.494   3.036
54091SOL    HW264107  14.534   5.634   3.062
54092SOL     OW64108  14.147   9.955   3.277
54092SOL    HW164109  14.077   9.898   3.308
54092SOL    HW264110  14.176   9.915   3.195
54093SOL     OW64111  11.765   7.934  11.271
54093SOL    HW164112  11.707   7.932  11.348
54093SOL    HW264113  11.770   8.026  11.247
54094SOL     OW64114   6.393  11.538   9.063
54094SOL    HW164115   6.418  11.630   9.059
54094SOL    HW264116   6.474  11.490   9.047
54095SOL     OW64117  14.347   8.520   0.855
54095SOL    HW164118  14.416   8.457   0.877
54095SOL    HW264119  14.393   8.589   0.806
54096SOL     OW64120   1.979   3.236   2.540
54096SOL    HW164121   1.977   3.154   2.492
54096SOL    HW264122   1.975   3.304   2.473
54097SOL     OW64123   8.868  10.697   1.689
54097SOL    HW164124   8.800  10.748   1.734
54097SOL    HW264125   8.940  10.760   1.677
54098SOL     OW64126  10.114  12.688  14.367
54098SOL    HW164127  10.204  12.719  14.382
54098SOL    HW264128  10.066  12.716  14.444
54099SOL     OW64129  13.372  11.893  13.193
54099SOL    HW164130  13.361  11.821  13.131
54099SOL    HW264131  13.287  11.938  13.193
54100SOL     OW64132   1.861   2.114   8.297
54100SOL    HW164133   1.921   2.167   8.245
54100SOL    HW264134   1.862   2.028   8.255
54101SOL     OW64135  13.519   7.341   3.445
54101SOL    HW164136  13.462   7.404   3.490
54101SOL    HW264137  13.599   7.390   3.427
54102SOL     OW64138   4.059  11.471   1.824
54102SOL    HW164139   3.967  11.447   1.826
54102SOL    HW264140   4.082  11.470   1.731
54103SOL     OW64141   0.255  13.216   9.992
54103SOL    HW164142   0.260  13.121  10.002
54103SOL    HW264143   0.229  13.229   9.901
54104SOL     OW64144   8.556  14.407  14.553
54104SOL    HW164145   8.650  14.389  14.557
54104SOL    HW264146   8.521  14.368  14.633
54105SOL     OW64147   8.633  12.864  11.363
54105SOL    HW164148   8.558  12.909  11.325
54105SOL    HW264149   8.699  12.933  11.374
54106SOL     OW64150  13.509   6.836   4.367
54106SOL    HW164151  13.559   6.809   4.444
54106SOL    HW264152  13.446   6.765   4.354
54107SOL     OW64153   3.644   8.135   1.809
54107SOL    HW164154   3.577   8.203   1.813
54107SOL    HW264155   3.602   8.062   1.764
54108SOL     OW64156  14.867   3.012  13.854
54108SOL    HW164157  14.791   2.968  13.815
54108SOL    HW264158  14.832   3.095  13.887
54109SOL     OW64159  12.415  10.413  13.817
54109SOL    HW164160  12.321  10.431  13.805
54109SOL    HW264161  12.445  10.482  13.876
54110SOL     OW64162   2.290  14.069   7.039
54110SOL    HW164163   2.304  14.094   7.131
54110SOL    HW264164   2.325  13.981   7.033
54111SOL     OW64165   5.373   6.495  11.305
54111SOL    HW164166   5.446   6.473  11.363
54111SOL    HW264167   5.402   6.575  11.261
54112SOL     OW64168   8.614  12.723  10.586
54112SOL    HW164169   8.706  12.750  10.592
54112SOL    HW264170   8.597  12.676  10.668
54113SOL     OW64171   7.075   3.031   8.538
54113SOL    HW164172   6.988   3.054   8.573
54113SOL    HW264173   7.067   2.939   8.513
54114SOL     OW64174  13.566  14.251   5.694
54114SOL    HW164175  13.548  14.217   5.606
54114SOL    HW264176  13.633  14.191   5.729
54115SOL     OW64177   7.322   6.628   9.304
54115SOL    HW164178   7.368   6.565   9.248
54115SOL    HW264179   7.269   6.680   9.243
54116SOL     OW64180   9.744   4.914   5.782
54116SOL    HW164181   9.788   4.947   5.860
54116SOL    HW264182   9.802   4.845   5.750
54117SOL     OW64183   6.875   4.692   0.333
54117SOL    HW164184   6.919   4.774   0.354
54117SOL    HW264185   6.860   4.650   0.418
54118SOL     OW64186   8.597  13.134   4.052
54118SOL    HW164187   8.685  13.111   4.021
54118SOL    HW264188   8.539  13.082   3.997
54119SOL     OW64189  11.554   5.114   7.608
54119SOL    HW164190  11.620   5.130   7.676
54119SOL    HW264191  11.518   5.201   7.589
54120SOL     OW64192   6.085  10.856   2.793
54120SOL    HW164193   6.003  10.811   2.812
54120SOL    HW264194   6.083  10.935   2.847
54121SOL     OW64195  11.678  10.169   7.516
54121SOL    HW164196  11.712  10.081   7.502
54121SOL    HW264197  11.697  10.216   7.435
54122SOL     OW64198   7.616   5.162   0.576
54122SOL    HW164199   7.580   5.094   0.518
54122SOL    HW264200   7.706   5.135   0.591
54123SOL     OW64201   2.013  10.948   8.064
54123SOL    HW164202   1.931  10.983   8.101
54123SOL    HW264203   2.074  11.021   8.069
54124SOL     OW64204   2.990   1.075   5.178
54124SOL    HW164205   3.005   1.081   5.083
54124SOL    HW264206   3.034   1.152   5.213
54125SOL     OW64207  12.717   6.407   1.835
54125SOL    HW164208  12.641   6.349   1.826
54125SOL    HW264209  12.791   6.354   1.804
54126SOL     OW64210   2.394  12.642   9.872
54126SOL    HW164211   2.337  12.681   9.806
54126SOL    HW264212   2.368  12.550   9.873
54127SOL     OW64213   7.273  13.547   2.183
54127SOL    HW164214   7.303  13.457   2.193
54127SOL    HW264215   7.183  13.539   2.151
54128SOL     OW64216   5.133   1.057   3.634
54128SOL    HW164217   5.060   1.035   3.576
54128SOL    HW264218   5.195   0.984   3.624
54129SOL     OW64219   3.532  10.346   9.053
54129SOL    HW164220   3.462  10.309   9.108
54129SOL    HW264221   3.551  10.277   8.990
54130SOL     OW64222   2.310   5.475   4.967
54130SOL    HW164223   2.301   5.520   5.051
54130SOL    HW264224   2.233   5.420   4.960
54131SOL     OW64225   5.163  13.487   8.240
54131SOL    HW164226   5.236  13.547   8.224
54131SOL    HW264227   5.108  13.533   8.304
54132SOL     OW64228  13.730  10.136  14.632
54132SOL    HW164229  13.716  10.120  14.538
54132SOL    HW264230  13.701  10.226  14.645
54133SOL     OW64231  13.288   8.903  14.391
54133SOL    HW164232  13.256   8.969  14.329
54133SOL    HW264233  13.370   8.940  14.424
54134SOL     OW64234   7.468  14.081   5.584
54134SOL    HW164235   7.547  14.103   5.534
54134SOL    HW264236   7.463  13.986   5.579
54135SOL     OW64237   5.280  12.056  11.449
54135SOL    HW164238   5.195  12.015  11.432
54135SOL    HW264239   5.340  12.012  11.388
54136SOL     OW64240   3.735   6.456   8.302
54136SOL    HW164241   3.700   6.453   8.391
54136SOL    HW264242   3.829   6.447   8.313
54137SOL     OW64243   9.963   6.523   7.110
54137SOL    HW164244   9.904   6.546   7.039
54137SOL    HW264245   9.988   6.432   7.093
54138SOL     OW64246   8.595   6.980   7.085
54138SOL    HW164247   8.677   7.000   7.040
54138SOL    HW264248   8.597   6.886   7.100
54139SOL     OW64249   2.928  12.780  10.196
54139SOL    HW164250   2.914  12.685  10.204
54139SOL    HW264251   2.926  12.812  10.286
54140SOL     OW64252   1.310   9.539   1.646
54140SOL    HW164253   1.301   9.460   1.699
54140SOL    HW264254   1.271   9.609   1.699
54141SOL     OW64255  11.562  11.190   8.879
54141SOL    HW164256  11.563  11.198   8.974
54141SOL    HW264257  11.653  11.202   8.852
54142SOL     OW64258  12.628   1.085   6.570
54142SOL    HW164259  12.640   1.166   6.521
54142SOL    HW264260  12.547   1.100   6.620
54143SOL     OW64261   2.931   7.210  10.108
54143SOL    HW164262   2.949   7.242  10.019
54143SOL    HW264263   2.952   7.284  10.165
54144SOL     OW64264   0.947   6.893  10.609
54144SOL    HW164265   1.031   6.848  10.621
54144SOL    HW264266   0.881   6.826  10.629
54145SOL     OW64267  14.195   0.216   8.846
54145SOL    HW164268  14.115   0.260   8.874
54145SOL    HW264269  14.242   0.281   8.795
54146SOL     OW64270   6.419   2.162   7.476
54146SOL    HW164271   6.350   2.223   7.502
54146SOL    HW264272   6.480   2.162   7.550
54147SOL     OW64273  14.361  14.684  12.404
54147SOL    HW164274  14.316  14.624  12.463
54147SOL    HW264275  14.398  14.628  12.336
54148SOL     OW64276  13.716   6.570   4.305
54148SOL    HW164277  13.655   6.642   4.290
54148SOL    HW264278  13.674   6.494   4.265
54149SOL     OW64279  12.721  12.592   1.580
54149SOL    HW164280  12.669  12.645   1.519
54149SOL    HW264281  12.656  12.547   1.634
54150SOL     OW64282  14.868   1.445   2.785
54150SOL    HW164283   0.083   1.470   2.756
54150SOL    HW264284  14.860   1.484   2.872
54151SOL     OW64285   8.742   2.354  10.642
54151SOL    HW164286   8.773   2.298  10.713
54151SOL    HW264287   8.749   2.443  10.676
54152SOL     OW64288  11.883   5.444  12.318
54152SOL    HW164289  11.841   5.402  12.243
54152SOL    HW264290  11.818   5.505  12.352
54153SOL     OW64291   6.996   0.730   4.633
54153SOL    HW164292   6.976   0.642   4.664
54153SOL    HW264293   7.073   0.757   4.684
54154SOL     OW64294   4.186   5.597  11.866
54154SOL    HW164295   4.141   5.529  11.816
54154SOL    HW264296   4.154   5.679  11.830
54155SOL     OW64297   1.745   6.017  13.804
54155SOL    HW164298   1.735   6.093  13.747
54155SOL    HW264299   1.818   6.040  13.862
54156SOL     OW64300   7.824   9.700   7.857
54156SOL    HW164301   7.916   9.674   7.852
54156SOL    HW264302   7.809   9.750   7.777
54157SOL     OW64303   2.346   8.018  10.917
54157SOL    HW164304   2.269   7.988  10.965
54157SOL    HW264305   2.346   7.967  10.836
54158SOL     OW64306   6.211   9.388   7.983
54158SOL    HW164307   6.284   9.392   8.045
54158SOL    HW264308   6.136   9.422   8.033
54159SOL     OW64309   8.073  11.393   5.037
54159SOL    HW164310   8.022  11.355   4.965
54159SOL    HW264311   8.164  11.386   5.008
54160SOL     OW64312  11.740   9.673  10.835
54160SOL    HW164313  11.777   9.752  10.796
54160SOL    HW264314  11.675   9.705  10.897
54161SOL     OW64315  14.610   0.393   2.789
54161SOL    HW164316  14.681   0.364   2.847
54161SOL    HW264317  14.532   0.346   2.821
54162SOL     OW64318   5.315   0.204   1.836
54162SOL    HW164319   5.326   0.234   1.746
54162SOL    HW264320   5.255   0.130   1.830
54163SOL     OW64321  13.564  12.134   7.804
54163SOL    HW164322  13.499  12.134   7.874
54163SOL    HW264323  13.630  12.071   7.832
54164SOL     OW64324   6.172  12.822  12.612
54164SOL    HW164325   6.244  12.836  12.674
54164SOL    HW264326   6.199  12.747  12.560
54165SOL     OW64327   7.864   1.044   3.560
54165SOL    HW164328   7.816   0.962   3.575
54165SOL    HW264329   7.903   1.065   3.645
54166SOL     OW64330   9.751   9.605  14.827
54166SOL    HW164331   9.727   9.668   0.022
54166SOL    HW264332   9.693   9.530  14.842
54167SOL     OW64333   8.050   9.540   6.331
54167SOL    HW164334   7.995   9.614   6.309
54167SOL    HW264335   8.128   9.579   6.371
54168SOL     OW64336   6.810   0.280   5.175
54168SOL    HW164337   6.836   0.368   5.203
54168SOL    HW264338   6.831   0.277   5.082
54169SOL     OW64339  13.325   6.168   5.085
54169SOL    HW164340  13.345   6.125   5.168
54169SOL    HW264341  13.359   6.109   5.018
54170SOL     OW64342   2.869   0.855  12.604
54170SOL    HW164343   2.846   0.937  12.648
54170SOL    HW264344   2.868   0.877  12.511
54171SOL     OW64345  10.799   7.128  13.020
54171SOL    HW164346  10.804   7.212  13.066
54171SOL    HW264347  10.781   7.152  12.929
54172SOL     OW64348  13.441  12.088   0.684
54172SOL    HW164349  13.525  12.042   0.687
54172SOL    HW264350  13.435  12.132   0.769
54173SOL     OW64351  13.397   0.837  10.194
54173SOL    HW164352  13.420   0.863  10.283
54173SOL    HW264353  13.476   0.853  10.143
54174SOL     OW64354   8.605   7.806  11.854
54174SOL    HW164355   8.546   7.814  11.930
54174SOL    HW264356   8.667   7.737  11.879
54175SOL     OW64357  13.695   8.460  12.592
54175SOL    HW164358  13.754   8.527  12.557
54175SOL    HW264359  13.625   8.510  12.635
54176SOL     OW64360  12.284  11.024   5.131
54176SOL    HW164361  12.322  11.026   5.043
54176SOL    HW264362  12.339  10.961   5.179
54177SOL     OW64363  11.387   8.913   6.095
54177SOL    HW164364  11.309   8.955   6.060
54177SOL    HW264365  11.459   8.948   6.042
54178SOL     OW64366  14.617   6.831   5.359
54178SOL    HW164367  14.679   6.825   5.431
54178SOL    HW264368  14.672   6.848   5.282
54179SOL     OW64369   5.126   5.789  12.725
54179SOL    HW164370   5.077   5.716  12.688
54179SOL    HW264371   5.088   5.802  12.812
54180SOL     OW64372  14.661   7.500  14.140
54180SOL    HW164373  14.723   7.571  14.122
54180SOL    HW264374  14.714   7.431  14.178
54181SOL     OW64375  12.453   3.292   8.074
54181SOL    HW164376  12.428   3.384   8.066
54181SOL    HW264377  12.450   3.274   8.168
54182SOL     OW64378  14.575   5.554   2.073
54182SOL    HW164379  14.522   5.519   2.145
54182SOL    HW264380  14.542   5.643   2.061
54183SOL     OW64381   7.713   0.876   3.313
54183SOL    HW164382   7.658   0.866   3.390
54183SOL    HW264383   7.779   0.807   3.321
54184SOL     OW64384   9.211   6.080   0.441
54184SOL    HW164385   9.156   6.158   0.437
54184SOL    HW264386   9.173   6.027   0.511
54185SOL     OW64387   3.998  13.654   9.241
54185SOL    HW164388   4.076  13.643   9.296
54185SOL    HW264389   3.925  13.654   9.303
54186SOL     OW64390   1.216   4.261  11.080
54186SOL    HW164391   1.231   4.322  11.008
54186SOL    HW264392   1.205   4.176  11.038
54187SOL     OW64393  13.417   3.165   3.796
54187SOL    HW164394  13.503   3.180   3.756
54187SOL    HW264395  13.407   3.236   3.860
54188SOL     OW64396  12.492  10.859  10.433
54188SOL    HW164397  12.401  10.838  10.413
54188SOL    HW264398  12.526  10.779  10.474
54189SOL     OW64399  11.923   8.386  14.640
54189SOL    HW164400  11.836   8.406  14.607
54189SOL    HW264401  11.943   8.457  14.701
54190SOL     OW64402   1.897   2.645   5.465
54190SOL    HW164403   1.978   2.646   5.416
54190SOL    HW264404   1.916   2.695   5.545
54191SOL     OW64405   2.456  10.184  11.161
54191SOL    HW164406   2.366  10.162  11.135
54191SOL    HW264407   2.507  10.173  11.081
54192SOL     OW64408   7.770   9.880   3.311
54192SOL    HW164409   7.807   9.959   3.350
54192SOL    HW264410   7.709   9.913   3.244
54193SOL     OW64411   9.209   8.997  10.712
54193SOL    HW164412   9.214   9.019  10.805
54193SOL    HW264413   9.261   8.918  10.702
54194SOL     OW64414   8.447  10.892   3.067
54194SOL    HW164415   8.368  10.935   3.036
54194SOL    HW264416   8.465  10.824   3.001
54195SOL     OW64417  13.400   0.565  10.559
54195SOL    HW164418  13.492   0.588  10.571
54195SOL    HW264419  13.386   0.570  10.465
54196SOL     OW64420   5.035  12.471   6.052
54196SOL    HW164421   5.100  12.404   6.029
54196SOL    HW264422   5.086  12.540   6.093
54197SOL     OW64423   0.175   6.256  11.560
54197SOL    HW164424   0.155   6.218  11.645
54197SOL    HW264425   0.092   6.252  11.511
54198SOL     OW64426   4.916   9.948   2.569
54198SOL    HW164427   4.889  10.015   2.633
54198SOL    HW264428   4.858   9.962   2.494
54199SOL     OW64429   4.928  12.123   2.766
54199SOL    HW164430   5.010  12.171   2.754
54199SOL    HW264431   4.866  12.190   2.795
54200SOL     OW64432   2.129   1.745   2.574
54200SOL    HW164433   2.047   1.792   2.558
54200SOL    HW264434   2.101   1.662   2.614
54201SOL     OW64435   6.326   3.184   8.525
54201SOL    HW164436   6.353   3.266   8.567
54201SOL    HW264437   6.344   3.116   8.590
54202SOL     OW64438  10.458   4.427  13.745
54202SOL    HW164439  10.392   4.469  13.801
54202SOL    HW264440  10.416   4.347  13.714
54203SOL     OW64441   6.262   2.097   4.668
54203SOL    HW164442   6.255   2.184   4.706
54203SOL    HW264443   6.265   2.112   4.574
54204SOL     OW64444  13.466  13.462   6.069
54204SOL    HW164445  13.508  13.479   5.985
54204SOL    HW264446  13.461  13.547   6.112
54205SOL     OW64447   8.717   8.581   9.731
54205SOL    HW164448   8.653   8.629   9.783
54205SOL    HW264449   8.770   8.533   9.794
54206SOL     OW64450   3.781  14.224   6.101
54206SOL    HW164451   3.780  14.171   6.181
54206SOL    HW264452   3.709  14.286   6.113
54207SOL     OW64453   3.907  11.160  10.918
54207SOL    HW164454   3.949  11.207  10.846
54207SOL    HW264455   3.815  11.153  10.891
54208SOL     OW64456   9.381  14.446   8.028
54208SOL    HW164457   9.374  14.507   7.954
54208SOL    HW264458   9.374  14.359   7.988
54209SOL     OW64459   4.956   2.710   7.053
54209SOL    HW164460   5.012   2.635   7.033
54209SOL    HW264461   4.937   2.749   6.968
54210SOL     OW64462  14.869   7.771  14.425
54210SOL    HW164463  14.805   7.719  14.376
54210SOL    HW264464   0.074   7.715  14.429
54211SOL     OW64465   7.037   3.981   3.637
54211SOL    HW164466   6.942   3.982   3.629
54211SOL    HW264467   7.054   3.975   3.731
54212SOL     OW64468   8.356   9.583   8.249
54212SOL    HW164469   8.350   9.611   8.341
54212SOL    HW264470   8.267   9.586   8.216
54213SOL     OW64471   4.776  14.313   0.944
54213SOL    HW164472   4.817  14.387   0.988
54213SOL    HW264473   4.824  14.236   0.975
54214SOL     OW64474   9.964   5.352   0.522
54214SOL    HW164475   9.987   5.349   0.429
54214SOL    HW264476   9.906   5.277   0.535
54215SOL     OW64477   9.478   4.007  11.079
54215SOL    HW164478   9.391   3.969  11.069
54215SOL    HW264479   9.523   3.948  11.139
54216SOL     OW64480  14.506   9.523   3.006
54216SOL    HW164481  14.412   9.533   3.019
54216SOL    HW264482  14.536   9.468   3.078
54217SOL     OW64483   4.636   5.023   4.862
54217SOL    HW164484   4.683   4.994   4.784
54217SOL    HW264485   4.608   5.112   4.842
54218SOL     OW64486   2.422   0.185   6.175
54218SOL    HW164487   2.508   0.226   6.167
54218SOL    HW264488   2.384   0.223   6.254
54219SOL     OW64489   9.493   1.019   5.927
54219SOL    HW164490   9.491   1.107   5.889
54219SOL    HW264491   9.453   1.030   6.014
54220SOL     OW64492  13.957   8.820  13.419
54220SOL    HW164493  13.968   8.911  13.444
54220SOL    HW264494  14.029   8.803  13.358
54221SOL     OW64495   7.544   2.942   0.608
54221SOL    HW164496   7.608   2.998   0.654
54221SOL    HW264497   7.508   2.998   0.539
54222SOL     OW64498  13.843   1.815  13.832
54222SOL    HW164499  13.770   1.759  13.806
54222SOL    HW264500  13.865   1.864  13.753
54223SOL     OW64501   3.415   4.244   1.595
54223SOL    HW164502   3.430   4.332   1.627
54223SOL    HW264503   3.502   4.209   1.577
54224SOL     OW64504  13.165   5.622   0.186
54224SOL    HW164505  13.200   5.580   0.265
54224SOL    HW264506  13.163   5.552   0.120
54225SOL     OW64507   9.722  13.399   0.958
54225SOL    HW164508   9.671  13.407   0.877
54225SOL    HW264509   9.681  13.461   1.018
54226SOL     OW64510  10.732   1.221  11.533
54226SOL    HW164511  10.765   1.154  11.592
54226SOL    HW264512  10.665   1.177  11.481
54227SOL     OW64513  14.003   3.876   8.755
54227SOL    HW164514  13.963   3.798   8.717
54227SOL    HW264515  14.089   3.846   8.784
54228SOL     OW64516   0.260   7.577   8.646
54228SOL    HW164517   0.341   7.624   8.664
54228SOL    HW264518   0.259   7.568   8.550
54229SOL     OW64519   7.630   9.932   9.117
54229SOL    HW164520   7.636   9.851   9.066
54229SOL    HW264521   7.536   9.948   9.124
54230SOL     OW64522   6.835   7.112   1.928
54230SOL    HW164523   6.918   7.160   1.932
54230SOL    HW264524   6.800   7.117   2.017
54231SOL     OW64525   4.228  10.849  10.262
54231SOL    HW164526   4.303  10.865  10.204
54231SOL    HW264527   4.247  10.900  10.340
54232SOL     OW64528   5.316   3.928  14.538
54232SOL    HW164529   5.366   3.847  14.552
54232SOL    HW264530   5.364   3.973  14.468
54233SOL     OW64531   0.889  11.576   2.477
54233SOL    HW164532   0.852  11.535   2.399
54233SOL    HW264533   0.984  11.570   2.464
54234SOL     OW64534   0.141  13.371  13.736
54234SOL    HW164535   0.110  13.287  13.703
54234SOL    HW264536   0.093  13.382  13.819
54235SOL     OW64537  11.935   0.020   5.081
54235SOL    HW164538  11.972  14.809   5.052
54235SOL    HW264539  11.922   0.070   5.001
54236SOL     OW64540   4.729   5.442  13.187
54236SOL    HW164541   4.820   5.446  13.218
54236SOL    HW264542   4.709   5.349  13.184
54237SOL     OW64543  14.082   7.398  10.770
54237SOL    HW164544  14.035   7.320  10.798
54237SOL    HW264545  14.015   7.466  10.766
54238SOL     OW64546   2.665   0.259   9.094
54238SOL    HW164547   2.685   0.181   9.041
54238SOL    HW264548   2.745   0.311   9.090
54239SOL     OW64549   4.051  13.814  11.149
54239SOL    HW164550   4.042  13.778  11.061
54239SOL    HW264551   4.042  13.909  11.136
54240SOL     OW64552  10.464   1.957  13.173
54240SOL    HW164553  10.526   2.017  13.216
54240SOL    HW264554  10.424   2.010  13.104
54241SOL     OW64555   7.905   8.713   1.735
54241SOL    HW164556   7.943   8.724   1.648
54241SOL    HW264557   7.969   8.659   1.782
54242SOL     OW64558   2.352   8.864   3.102
54242SOL    HW164559   2.363   8.912   3.184
54242SOL    HW264560   2.316   8.779   3.128
54243SOL     OW64561   7.093  12.936   8.090
54243SOL    HW164562   7.033  12.866   8.114
54243SOL    HW264563   7.059  13.014   8.135
54244SOL     OW64564  12.473  14.541   4.318
54244SOL    HW164565  12.386  14.553   4.355
54244SOL    HW264566  12.489  14.447   4.322
54245SOL     OW64567  11.681  11.325   3.107
54245SOL    HW164568  11.612  11.308   3.171
54245SOL    HW264569  11.705  11.416   3.121
54246SOL     OW64570  10.875  10.643   5.794
54246SOL    HW164571  10.918  10.621   5.877
54246SOL    HW264572  10.822  10.721   5.815
54247SOL     OW64573   3.940  12.631  14.561
54247SOL    HW164574   3.937  12.655  14.469
54247SOL    HW264575   3.955  12.713  14.607
54248SOL     OW64576  11.292   4.386   2.688
54248SOL    HW164577  11.229   4.351   2.751
54248SOL    HW264578  11.271   4.479   2.683
54249SOL     OW64579   4.362   9.576  11.491
54249SOL    HW164580   4.275   9.573  11.451
54249SOL    HW264581   4.383   9.669  11.497
54250SOL     OW64582  12.857  13.999   0.799
54250SOL    HW164583  12.909  14.047   0.735
54250SOL    HW264584  12.912  13.925   0.825
54251SOL     OW64585   3.188   7.199   2.370
54251SOL    HW164586   3.242   7.263   2.324
54251SOL    HW264587   3.245   7.165   2.439
54252SOL     OW64588  10.093   2.318   8.617
54252SOL    HW164589  10.019   2.326   8.556
54252SOL    HW264590  10.159   2.269   8.568
54253SOL     OW64591   7.460   8.688   1.774
54253SOL    HW164592   7.410   8.607   1.785
54253SOL    HW264593   7.440   8.716   1.684
54254SOL     OW64594   3.778  12.359  12.284
54254SOL    HW164595   3.851  12.412  12.253
54254SOL    HW264596   3.804  12.333  12.373
54255SOL     OW64597   4.192   3.032  11.619
54255SOL    HW164598   4.193   3.112  11.671
54255SOL    HW264599   4.245   3.053  11.542
54256SOL     OW64600   7.055  11.089   7.144
54256SOL    HW164601   7.027  11.057   7.230
54256SOL    HW264602   7.144  11.121   7.158
54257SOL     OW64603   6.345   5.588   1.508
54257SOL    HW164604   6.286   5.526   1.551
54257SOL    HW264605   6.313   5.592   1.418
54258SOL     OW64606   2.202  10.179   3.359
54258SOL    HW164607   2.185  10.180   3.265
54258SOL    HW264608   2.298  10.180   3.367
54259SOL     OW64609  10.456   1.401   8.969
54259SOL    HW164610  10.473   1.407   9.063
54259SOL    HW264611  10.464   1.492   8.938
54260SOL     OW64612   0.814   4.932   4.793
54260SOL    HW164613   0.821   4.839   4.817
54260SOL    HW264614   0.723   4.943   4.765
54261SOL     OW64615   8.384   2.919   8.461
54261SOL    HW164616   8.311   2.887   8.408
54261SOL    HW264617   8.346   2.940   8.546
54262SOL     OW64618   2.123   8.782   5.335
54262SOL    HW164619   2.127   8.813   5.245
54262SOL    HW264620   2.215   8.772   5.360
54263SOL     OW64621   5.870  13.433   6.296
54263SOL    HW164622   5.941  13.400   6.350
54263SOL    HW264623   5.910  13.448   6.210
54264SOL     OW64624   9.658   2.928   5.181
54264SOL    HW164625   9.663   2.833   5.190
54264SOL    HW264626   9.732   2.951   5.124
54265SOL     OW64627   1.031   1.910   0.874
54265SOL    HW164628   1.074   1.834   0.836
54265SOL    HW264629   0.999   1.960   0.799
54266SOL     OW64630   8.233   7.465   6.410
54266SOL    HW164631   8.294   7.399   6.375
54266SOL    HW264632   8.253   7.469   6.503
54267SOL     OW64633   5.849   0.243   5.448
54267SOL    HW164634   5.873   0.151   5.435
54267SOL    HW264635   5.905   0.272   5.520
54268SOL     OW64636   1.735  11.540  14.047
54268SOL    HW164637   1.711  11.584  14.129
54268SOL    HW264638   1.654  11.535  13.997
54269SOL     OW64639   7.179   5.749   6.583
54269SOL    HW164640   7.158   5.661   6.614
54269SOL    HW264641   7.112   5.769   6.517
54270SOL     OW64642  13.734   2.327   2.311
54270SOL    HW164643  13.681   2.248   2.324
54270SOL    HW264644  13.701   2.364   2.229
54271SOL     OW64645   1.313   0.511   4.856
54271SOL    HW164646   1.322   0.466   4.771
54271SOL    HW264647   1.268   0.448   4.911
54272SOL     OW64648   3.448   3.796   4.570
54272SOL    HW164649   3.419   3.831   4.655
54272SOL    HW264650   3.408   3.855   4.505
54273SOL     OW64651   4.478   3.083   9.324
54273SOL    HW164652   4.388   3.113   9.334
54273SOL    HW264653   4.489   3.018   9.393
54274SOL     OW64654   9.410   6.343   1.494
54274SOL    HW164655   9.353   6.361   1.569
54274SOL    HW264656   9.457   6.425   1.479
54275SOL     OW64657   7.004   5.829   3.143
54275SOL    HW164658   7.026   5.846   3.052
54275SOL    HW264659   7.083   5.790   3.180
54276SOL     OW64660  11.765   6.453   6.089
54276SOL    HW164661  11.850   6.413   6.073
54276SOL    HW264662  11.782   6.546   6.096
54277SOL     OW64663   7.020  13.426   9.637
54277SOL    HW164664   7.089  13.441   9.702
54277SOL    HW264665   6.951  13.380   9.685
54278SOL     OW64666   6.768   9.042  10.563
54278SOL    HW164667   6.802   8.954  10.580
54278SOL    HW264668   6.839   9.086  10.516
54279SOL     OW64669  11.490   4.804   2.315
54279SOL    HW164670  11.514   4.726   2.265
54279SOL    HW264671  11.569   4.829   2.362
54280SOL     OW64672   9.715  13.923  13.384
54280SOL    HW164673   9.703  13.847  13.441
54280SOL    HW264674   9.779  13.977  13.429
54281SOL     OW64675   0.667  10.187   1.487
54281SOL    HW164676   0.601  10.252   1.461
54281SOL    HW264677   0.695  10.147   1.405
54282SOL     OW64678   0.462  14.368  13.311
54282SOL    HW164679   0.537  14.329  13.266
54282SOL    HW264680   0.387  14.320  13.277
54283SOL     OW64681   3.036   3.279   0.521
54283SOL    HW164682   3.113   3.318   0.563
54283SOL    HW264683   3.040   3.309   0.430
54284SOL     OW64684  13.580  10.937   1.103
54284SOL    HW164685  13.519  11.004   1.132
54284SOL    HW264686  13.536  10.854   1.121
54285SOL     OW64687   3.064  11.036   2.146
54285SOL    HW164688   3.097  10.954   2.109
54285SOL    HW264689   3.123  11.103   2.111
54286SOL     OW64690   2.438  13.237   9.777
54286SOL    HW164691   2.366  13.192   9.733
54286SOL    HW264692   2.516  13.190   9.748
54287SOL     OW64693   1.913  10.352   4.744
54287SOL    HW164694   1.931  10.429   4.798
54287SOL    HW264695   1.919  10.278   4.804
54288SOL     OW64696  12.710   6.697   1.688
54288SOL    HW164697  12.688   6.626   1.749
54288SOL    HW264698  12.642   6.763   1.702
54289SOL     OW64699   6.222  11.819   3.899
54289SOL    HW164700   6.316  11.833   3.905
54289SOL    HW264701   6.197  11.783   3.984
54290SOL     OW64702  11.524   0.638   5.058
54290SOL    HW164703  11.514   0.704   5.127
54290SOL    HW264704  11.456   0.574   5.077
54291SOL     OW64705   5.983   4.195   9.999
54291SOL    HW164706   5.888   4.193   9.983
54291SOL    HW264707   6.020   4.227   9.917
54292SOL     OW64708   4.839  14.529   0.476
54292SOL    HW164709   4.821  14.436   0.492
54292SOL    HW264710   4.762  14.574   0.511
54293SOL     OW64711   4.422   4.842  11.564
54293SOL    HW164712   4.442   4.845  11.658
54293SOL    HW264713   4.506   4.857  11.521
54294SOL     OW64714   4.943  12.804  13.242
54294SOL    HW164715   5.016  12.771  13.189
54294SOL    HW264716   4.924  12.890  13.206
54295SOL     OW64717   7.017   3.951   4.380
54295SOL    HW164718   7.016   4.031   4.328
54295SOL    HW264719   6.924   3.926   4.387
54296SOL     OW64720   0.919   6.541   6.323
54296SOL    HW164721   0.862   6.571   6.394
54296SOL    HW264722   0.908   6.446   6.322
54297SOL     OW64723   8.155   3.939   6.115
54297SOL    HW164724   8.102   4.018   6.125
54297SOL    HW264725   8.116   3.877   6.177
54298SOL     OW64726   1.133   4.323  12.866
54298SOL    HW164727   1.095   4.382  12.931
54298SOL    HW264728   1.169   4.250  12.917
54299SOL     OW64729  11.175   1.774   0.548
54299SOL    HW164730  11.189   1.697   0.493
54299SOL    HW264731  11.261   1.793   0.585
54300SOL     OW64732   6.972   2.852   9.766
54300SOL    HW164733   6.909   2.801   9.716
54300SOL    HW264734   7.034   2.788   9.800
54301SOL     OW64735  11.192  11.099  11.369
54301SOL    HW164736  11.177  11.005  11.366
54301SOL    HW264737  11.106  11.136  11.388
54302SOL     OW64738  12.501   7.835  11.960
54302SOL    HW164739  12.551   7.822  12.041
54302SOL    HW264740  12.445   7.758  11.953
54303SOL     OW64741   0.663   7.641   0.710
54303SOL    HW164742   0.728   7.576   0.682
54303SOL    HW264743   0.602   7.647   0.637
54304SOL     OW64744   4.937   5.796   9.280
54304SOL    HW164745   4.848   5.814   9.310
54304SOL    HW264746   4.939   5.828   9.189
54305SOL     OW64747   6.329   9.117   5.305
54305SOL    HW164748   6.342   9.041   5.248
54305SOL    HW264749   6.235   9.115   5.326
54306SOL     OW64750   7.452  13.446   9.738
54306SOL    HW164751   7.497  13.416   9.659
54306SOL    HW264752   7.493  13.530   9.758
54307SOL     OW64753   1.147   4.290   6.055
54307SOL    HW164754   1.075   4.295   5.992
54307SOL    HW264755   1.111   4.243   6.130
54308SOL     OW64756   6.338  10.612   5.488
54308SOL    HW164757   6.407  10.613   5.555
54308SOL    HW264758   6.300  10.700   5.491
54309SOL     OW64759   3.272  14.075  10.246
54309SOL    HW164760   3.249  14.036  10.331
54309SOL    HW264761   3.318  14.005  10.199
54310SOL     OW64762   0.481   5.875   7.911
54310SOL    HW164763   0.482   5.866   7.816
54310SOL    HW264764   0.393   5.908   7.930
54311SOL     OW64765   3.796   7.200  10.498
54311SOL    HW164766   3.726   7.186  10.434
54311SOL    HW264767   3.804   7.117  10.543
54312SOL     OW64768   0.327   5.923   4.478
54312SOL    HW164769   0.307   5.850   4.537
54312SOL    HW264770   0.323   5.884   4.391
54313SOL     OW64771   2.266   0.415   9.032
54313SOL    HW164772   2.272   0.416   8.937
54313SOL    HW264773   2.319   0.489   9.060
54314SOL     OW64774   3.371   7.213   6.808
54314SOL    HW164775   3.320   7.265   6.870
54314SOL    HW264776   3.320   7.132   6.797
54315SOL     OW64777   0.314   1.767  12.969
54315SOL    HW164778   0.299   1.684  12.924
54315SOL    HW264779   0.314   1.832  12.898
54316SOL     OW64780  12.054   0.352  14.361
54316SOL    HW164781  12.014   0.395  14.285
54316SOL    HW264782  11.985   0.353  14.427
54317SOL     OW64783  13.466   1.831  12.018
54317SOL    HW164784  13.389   1.860  12.068
54317SOL    HW264785  13.466   1.886  11.940
54318SOL     OW64786   0.829   3.909  10.896
54318SOL    HW164787   0.914   3.866  10.883
54318SOL    HW264788   0.831   3.941  10.986
54319SOL     OW64789   6.961   4.063  11.576
54319SOL    HW164790   6.946   3.970  11.588
54319SOL    HW264791   6.877   4.104  11.595
54320SOL     OW64792  11.510   7.160   5.623
54320SOL    HW164793  11.603   7.179   5.636
54320SOL    HW264794  11.465   7.240   5.649
54321SOL     OW64795   8.525  10.096  10.859
54321SOL    HW164796   8.438  10.135  10.872
54321SOL    HW264797   8.542  10.106  10.765
54322SOL     OW64798   6.478  13.978   5.851
54322SOL    HW164799   6.427  13.936   5.782
54322SOL    HW264800   6.516  13.906   5.901
54323SOL     OW64801   3.053   5.003   7.927
54323SOL    HW164802   2.972   4.955   7.911
54323SOL    HW264803   3.026   5.082   7.973
54324SOL     OW64804  13.490   4.109   8.003
54324SOL    HW164805  13.445   4.178   8.053
54324SOL    HW264806  13.579   4.110   8.036
54325SOL     OW64807  14.642  14.637  13.297
54325SOL    HW164808  14.596  14.682  13.368
54325SOL    HW264809  14.689  14.566  13.341
54326SOL     OW64810   6.656  13.467  10.532
54326SOL    HW164811   6.680  13.516  10.611
54326SOL    HW264812   6.705  13.385  10.539
54327SOL     OW64813   6.142  13.198  13.250
54327SOL    HW164814   6.119  13.247  13.171
54327SOL    HW264815   6.091  13.239  13.320
54328SOL     OW64816  12.180   4.423  14.352
54328SOL    HW164817  12.230   4.391  14.427
54328SOL    HW264818  12.192   4.357  14.285
54329SOL     OW64819   9.664   2.170  11.438
54329SOL    HW164820   9.677   2.255  11.396
54329SOL    HW264821   9.571   2.167  11.458
54330SOL     OW64822  12.595   7.152  13.952
54330SOL    HW164823  12.556   7.115  14.031
54330SOL    HW264824  12.688   7.127  13.957
54331SOL     OW64825   1.891  14.373   6.055
54331SOL    HW164826   1.800  14.399   6.064
54331SOL    HW264827   1.938  14.428   6.117
54332SOL     OW64828  10.557  12.494  14.719
54332SOL    HW164829  10.646  12.528  14.723
54332SOL    HW264830  10.567  12.399  14.728
54333SOL     OW64831  10.281   8.875   8.026
54333SOL    HW164832  10.273   8.931   7.949
54333SOL    HW264833  10.243   8.926   8.097
54334SOL     OW64834   4.222   8.471   6.010
54334SOL    HW164835   4.247   8.563   6.022
54334SOL    HW264836   4.239   8.431   6.095
54335SOL     OW64837   0.683   9.590   3.355
54335SOL    HW164838   0.773   9.584   3.389
54335SOL    HW264839   0.668   9.683   3.343
54336SOL     OW64840   2.728   6.482  13.290
54336SOL    HW164841   2.787   6.409  13.269
54336SOL    HW264842   2.740   6.497  13.384
54337SOL     OW64843  10.215   0.093  13.885
54337SOL    HW164844  10.254   0.152  13.820
54337SOL    HW264845  10.235   0.134  13.969
54338SOL     OW64846   3.698   0.546   5.766
54338SOL    HW164847   3.661   0.533   5.854
54338SOL    HW264848   3.746   0.628   5.773
54339SOL     OW64849   2.510   8.308   6.425
54339SOL    HW164850   2.433   8.275   6.472
54339SOL    HW264851   2.563   8.350   6.492
54340SOL     OW64852   7.370  14.503   3.048
54340SOL    HW164853   7.434  14.515   3.119
54340SOL    HW264854   7.295  14.555   3.074
54341SOL     OW64855   7.182  12.838   9.596
54341SOL    HW164856   7.101  12.799   9.626
54341SOL    HW264857   7.175  12.931   9.620
54342SOL     OW64858  14.260  13.166  12.400
54342SOL    HW164859  14.318  13.115  12.457
54342SOL    HW264860  14.319  13.228  12.357
54343SOL     OW64861   9.903   5.677  14.262
54343SOL    HW164862   9.966   5.633  14.204
54343SOL    HW264863   9.937   5.661  14.350
54344SOL     OW64864   5.689   0.503   1.445
54344SOL    HW164865   5.714   0.565   1.513
54344SOL    HW264866   5.667   0.423   1.492
54345SOL     OW64867   3.486  12.311  10.759
54345SOL    HW164868   3.506  12.221  10.786
54345SOL    HW264869   3.406  12.304  10.707
54346SOL     OW64870  13.037  11.318   9.908
54346SOL    HW164871  13.099  11.260   9.864
54346SOL    HW264872  13.027  11.281   9.995
54347SOL     OW64873   7.127  11.761   5.334
54347SOL    HW164874   7.177  11.682   5.314
54347SOL    HW264875   7.037  11.731   5.343
54348SOL     OW64876   2.126   1.125   6.369
54348SOL    HW164877   2.191   1.071   6.414
54348SOL    HW264878   2.044   1.109   6.416
54349SOL     OW64879   0.444   6.341   8.129
54349SOL    HW164880   0.516   6.396   8.098
54349SOL    HW264881   0.449   6.347   8.224
54350SOL     OW64882  13.199   1.612   0.253
54350SOL    HW164883  13.127   1.639   0.196
54350SOL    HW264884  13.250   1.692   0.267
54351SOL     OW64885  10.574   7.113   8.330
54351SOL    HW164886  10.512   7.184   8.343
54351SOL    HW264887  10.634   7.119   8.405
54352SOL     OW64888   6.235  10.239  14.166
54352SOL    HW164889   6.198  10.195  14.243
54352SOL    HW264890   6.328  10.215  14.168
54353SOL     OW64891  11.591   7.173   2.713
54353SOL    HW164892  11.510   7.184   2.762
54353SOL    HW264893  11.647   7.119   2.769
54354SOL     OW64894   3.683   9.433   3.115
54354SOL    HW164895   3.665   9.341   3.134
54354SOL    HW264896   3.772   9.447   3.147
54355SOL     OW64897   6.197   3.296   0.211
54355SOL    HW164898   6.124   3.346   0.175
54355SOL    HW264899   6.272   3.356   0.208
54356SOL     OW64900   0.274   6.267   6.135
54356SOL    HW164901   0.351   6.211   6.150
54356SOL    HW264902   0.222   6.257   6.215
54357SOL     OW64903   5.045   1.327   4.285
54357SOL    HW164904   5.031   1.311   4.191
54357SOL    HW264905   5.140   1.323   4.296
54358SOL     OW64906   4.702  14.356  14.449
54358SOL    HW164907   4.758  14.409  14.392
54358SOL    HW264908   4.664  14.291  14.390
54359SOL     OW64909  13.919  11.307   8.176
54359SOL    HW164910  13.904  11.213   8.161
54359SOL    HW264911  13.996  11.328   8.125
54360SOL     OW64912   3.552  11.340   5.047
54360SOL    HW164913   3.536  11.256   5.090
54360SOL    HW264914   3.473  11.357   4.997
54361SOL     OW64915  13.054  11.263  11.027
54361SOL    HW164916  13.090  11.303  10.948
54361SOL    HW264917  13.102  11.181  11.037
54362SOL     OW64918   9.204   8.260   6.695
54362SOL    HW164919   9.144   8.279   6.767
54362SOL    HW264920   9.152   8.207   6.635
54363SOL     OW64921  12.493   1.332   1.398
54363SOL    HW164922  12.447   1.409   1.433
54363SOL    HW264923  12.578   1.333   1.442
54364SOL     OW64924  12.946   1.900  14.455
54364SOL    HW164925  12.912   1.955  14.384
54364SOL    HW264926  12.977   1.962  14.521
54365SOL     OW64927   6.310   1.613   7.103
54365SOL    HW164928   6.405   1.613   7.087
54365SOL    HW264929   6.271   1.609   7.016
54366SOL     OW64930   8.123  13.684   7.844
54366SOL    HW164931   8.033  13.663   7.866
54366SOL    HW264932   8.165  13.599   7.830
54367SOL     OW64933   0.788   1.045   0.138
54367SOL    HW164934   0.739   1.047   0.056
54367SOL    HW264935   0.879   1.029   0.111
54368SOL     OW64936   6.346   6.217   1.524
54368SOL    HW164937   6.424   6.245   1.572
54368SOL    HW264938   6.278   6.212   1.590
54369SOL     OW64939   4.273   8.486   1.309
54369SOL    HW164940   4.235   8.486   1.221
54369SOL    HW264941   4.327   8.564   1.312
54370SOL     OW64942   3.521  14.244  11.424
54370SOL    HW164943   3.608  14.222  11.390
54370SOL    HW264944   3.522  14.214  11.515
54371SOL     OW64945   6.596   3.572   3.411
54371SOL    HW164946   6.600   3.519   3.490
54371SOL    HW264947   6.530   3.529   3.356
54372SOL     OW64948  11.172   7.495  11.376
54372SOL    HW164949  11.156   7.574  11.325
54372SOL    HW264950  11.258   7.465  11.347
54373SOL     OW64951  10.999   9.576   9.233
54373SOL    HW164952  11.018   9.661   9.271
54373SOL    HW264953  10.943   9.533   9.298
54374SOL     OW64954  13.752   9.040   0.818
54374SOL    HW164955  13.683   9.100   0.790
54374SOL    HW264956  13.817   9.044   0.749
54375SOL     OW64957   9.022  10.808   3.319
54375SOL    HW164958   9.016  10.885   3.263
54375SOL    HW264959   9.114  10.783   3.316
54376SOL     OW64960   9.133  11.208   7.298
54376SOL    HW164961   9.159  11.220   7.390
54376SOL    HW264962   9.049  11.162   7.304
54377SOL     OW64963   3.351   8.168  12.658
54377SOL    HW164964   3.420   8.147  12.722
54377SOL    HW264965   3.321   8.082  12.627
54378SOL     OW64966  11.559  12.970   5.452
54378SOL    HW164967  11.580  13.061   5.431
54378SOL    HW264968  11.530  12.933   5.369
54379SOL     OW64969  13.587  12.846  11.704
54379SOL    HW164970  13.678  12.821  11.687
54379SOL    HW264971  13.590  12.941  11.714
54380SOL     OW64972   7.432   9.312   8.332
54380SOL    HW164973   7.400   9.376   8.396
54380SOL    HW264974   7.493   9.361   8.276
54381SOL     OW64975   3.598   3.343   8.784
54381SOL    HW164976   3.510   3.364   8.751
54381SOL    HW264977   3.631   3.278   8.723
54382SOL     OW64978   1.983  12.469   2.835
54382SOL    HW164979   1.962  12.469   2.928
54382SOL    HW264980   1.936  12.545   2.800
54383SOL     OW64981  13.936   4.375  10.821
54383SOL    HW164982  13.982   4.441  10.873
54383SOL    HW264983  13.860   4.352  10.875
54384SOL     OW64984  11.275  10.454   5.869
54384SOL    HW164985  11.366  10.462   5.839
54384SOL    HW264986  11.277  10.381   5.931
54385SOL     OW64987   1.466   0.171   0.368
54385SOL    HW164988   1.457   0.162   0.273
54385SOL    HW264989   1.429   0.090   0.403
54386SOL     OW64990   5.865   5.601   2.312
54386SOL    HW164991   5.924   5.568   2.244
54386SOL    HW264992   5.841   5.523   2.363
54387SOL     OW64993   6.129   1.873   2.401
54387SOL    HW164994   6.076   1.916   2.468
54387SOL    HW264995   6.126   1.780   2.425
54388SOL     OW64996  12.126  10.363   1.830
54388SOL    HW164997  12.190  10.361   1.901
54388SOL    HW264998  12.072  10.285   1.845
54389SOL     OW64999   4.421   2.071  14.610
54389SOL    HW165000   4.363   2.146  14.611
54389SOL    HW265001   4.362   1.995  14.607
54390SOL     OW65002   1.567   4.486   5.566
54390SOL    HW165003   1.647   4.531   5.591
54390SOL    HW265004   1.545   4.521   5.479
54391SOL     OW65005  14.184   1.239  13.881
54391SOL    HW165006  14.111   1.278  13.834
54391SOL    HW265007  14.143   1.182  13.946
54392SOL     OW65008   6.272   1.106   0.945
54392SOL    HW165009   6.351   1.157   0.964
54392SOL    HW265010   6.303   1.032   0.893
54393SOL     OW65011  12.256   0.164   6.460
54393SOL    HW165012  12.215   0.081   6.435
54393SOL    HW265013  12.350   0.147   6.453
54394SOL     OW65014   2.366  10.430   2.606
54394SOL    HW165015   2.275  10.455   2.618
54394SOL    HW265016   2.386  10.374   2.680
54395SOL     OW65017  11.801  10.373  10.415
54395SOL    HW165018  11.750  10.448  10.447
54395SOL    HW265019  11.851  10.344  10.491
54396SOL     OW65020   5.670   9.557   8.342
54396SOL    HW165021   5.700   9.468   8.324
54396SOL    HW265022   5.691   9.606   8.263
54397SOL     OW65023   7.339  12.953  13.094
54397SOL    HW165024   7.379  12.882  13.043
54397SOL    HW265025   7.245  12.934  13.092
54398SOL     OW65026   9.984  10.778   3.248
54398SOL    HW165027   9.917  10.839   3.218
54398SOL    HW265028   9.968  10.699   3.197
54399SOL     OW65029   5.977  14.226   9.396
54399SOL    HW165030   5.905  14.167   9.417
54399SOL    HW265031   5.941  14.287   9.333
54400SOL     OW65032   3.543  12.395   2.399
54400SOL    HW165033   3.612  12.454   2.427
54400SOL    HW265034   3.556  12.386   2.304
54401SOL     OW65035   0.332   5.030   8.172
54401SOL    HW165036   0.307   5.063   8.086
54401SOL    HW265037   0.249   5.020   8.219
54402SOL     OW65038   0.748   8.749   2.805
54402SOL    HW165039   0.841   8.756   2.781
54402SOL    HW265040   0.705   8.720   2.724
54403SOL     OW65041  13.393   1.946  10.760
54403SOL    HW165042  13.330   1.887  10.718
54403SOL    HW265043  13.475   1.932  10.712
54404SOL     OW65044  13.145  12.035  12.200
54404SOL    HW165045  13.236  12.007  12.193
54404SOL    HW265046  13.107  12.011  12.115
54405SOL     OW65047  14.482   2.677   0.013
54405SOL    HW165048  14.475   2.717   0.099
54405SOL    HW265049  14.552   2.727  14.842
54406SOL     OW65050   6.477  10.895  12.327
54406SOL    HW165051   6.435  10.919  12.244
54406SOL    HW265052   6.557  10.946  12.329
54407SOL     OW65053   8.781   3.661   6.035
54407SOL    HW165054   8.858   3.689   6.086
54407SOL    HW265055   8.813   3.590   5.981
54408SOL     OW65056   4.063   6.089   7.430
54408SOL    HW165057   4.079   6.078   7.523
54408SOL    HW265058   4.142   6.130   7.396
54409SOL     OW65059   8.975   1.107   3.950
54409SOL    HW165060   8.990   1.165   4.023
54409SOL    HW265061   9.036   1.034   3.963
54410SOL     OW65062   3.438   5.071  12.342
54410SOL    HW165063   3.511   5.016  12.315
54410SOL    HW265064   3.397   5.024  12.415
54411SOL     OW65065   4.243   5.069   3.121
54411SOL    HW165066   4.336   5.051   3.111
54411SOL    HW265067   4.238   5.165   3.129
54412SOL     OW65068   8.638   9.892   4.125
54412SOL    HW165069   8.561   9.948   4.119
54412SOL    HW265070   8.605   9.803   4.112
54413SOL     OW65071   1.479   9.121  10.619
54413SOL    HW165072   1.543   9.101  10.550
54413SOL    HW265073   1.531   9.127  10.699
54414SOL     OW65074  10.695   0.546   9.119
54414SOL    HW165075  10.644   0.468   9.097
54414SOL    HW265076  10.726   0.531   9.208
54415SOL     OW65077   9.522   5.505   3.876
54415SOL    HW165078   9.602   5.525   3.826
54415SOL    HW265079   9.541   5.534   3.965
54416SOL     OW65080   4.166  12.790   0.275
54416SOL    HW165081   4.074  12.768   0.259
54416SOL    HW265082   4.212  12.708   0.257
54417SOL     OW65083  14.588   7.801  12.426
54417SOL    HW165084  14.665   7.762  12.385
54417SOL    HW265085  14.615   7.816  12.517
54418SOL     OW65086  12.353   5.637  13.716
54418SOL    HW165087  12.410   5.588  13.657
54418SOL    HW265088  12.270   5.645  13.668
54419SOL     OW65089   4.923   8.416  11.730
54419SOL    HW165090   4.916   8.486  11.666
54419SOL    HW265091   4.985   8.449  11.795
54420SOL     OW65092   1.983   2.261   6.931
54420SOL    HW165093   1.993   2.336   6.989
54420SOL    HW265094   2.027   2.287   6.850
54421SOL     OW65095  12.817  10.432  12.216
54421SOL    HW165096  12.873  10.484  12.158
54421SOL    HW265097  12.735  10.480  12.220
54422SOL     OW65098   5.818   1.727   0.946
54422SOL    HW165099   5.782   1.746   0.859
54422SOL    HW265100   5.877   1.653   0.931
54423SOL     OW65101   3.483  13.736  10.741
54423SOL    HW165102   3.578  13.722  10.748
54423SOL    HW265103   3.456  13.682  10.667
54424SOL     OW65104   8.331   2.345  11.294
54424SOL    HW165105   8.374   2.427  11.322
54424SOL    HW265106   8.238   2.360  11.311
54425SOL     OW65107   5.742   7.941   7.306
54425SOL    HW165108   5.729   7.920   7.398
54425SOL    HW265109   5.814   7.884   7.279
54426SOL     OW65110  14.455   3.882  13.415
54426SOL    HW165111  14.534   3.930  13.441
54426SOL    HW265112  14.385   3.924  13.465
54427SOL     OW65113   6.970   4.407   0.954
54427SOL    HW165114   6.898   4.401   0.891
54427SOL    HW265115   7.048   4.418   0.900
54428SOL     OW65116  10.901   4.801  12.932
54428SOL    HW165117  10.923   4.784  13.024
54428SOL    HW265118  10.872   4.892  12.930
54429SOL     OW65119   4.714  10.757   8.623
54429SOL    HW165120   4.648  10.694   8.653
54429SOL    HW265121   4.663  10.834   8.598
54430SOL     OW65122   7.526   1.528   7.654
54430SOL    HW165123   7.605   1.489   7.692
54430SOL    HW265124   7.533   1.510   7.560
54431SOL     OW65125   4.299  10.989  12.427
54431SOL    HW165126   4.365  10.924  12.401
54431SOL    HW265127   4.345  11.073  12.422
54432SOL     OW65128   8.003   7.867  12.466
54432SOL    HW165129   8.089   7.884  12.427
54432SOL    HW265130   7.941   7.881  12.394
54433SOL     OW65131   3.449   4.086   5.411
54433SOL    HW165132   3.454   4.179   5.389
54433SOL    HW265133   3.356   4.069   5.425
54434SOL     OW65134   4.341   9.965  13.162
54434SOL    HW165135   4.261   9.965  13.111
54434SOL    HW265136   4.408   9.930  13.103
54435SOL     OW65137   5.310   9.142   3.995
54435SOL    HW165138   5.328   9.051   4.019
54435SOL    HW265139   5.299   9.187   4.078
54436SOL     OW65140   2.052   1.573   0.556
54436SOL    HW165141   1.966   1.536   0.535
54436SOL    HW265142   2.040   1.615   0.641
54437SOL     OW65143   3.818   4.645   4.483
54437SOL    HW165144   3.735   4.626   4.527
54437SOL    HW265145   3.883   4.641   4.553
54438SOL     OW65146   7.733  14.315   1.428
54438SOL    HW165147   7.648  14.360   1.426
54438SOL    HW265148   7.770  14.333   1.341
54439SOL     OW65149   0.147  13.940   3.570
54439SOL    HW165150   0.051  13.944   3.576
54439SOL    HW265151   0.173  13.887   3.645
54440SOL     OW65152   5.893   6.648  11.079
54440SOL    HW165153   5.896   6.676  10.988
54440SOL    HW265154   5.976   6.679  11.117
54441SOL     OW65155   2.151   4.737   3.364
54441SOL    HW165156   2.069   4.687   3.360
54441SOL    HW265157   2.128   4.817   3.412
54442SOL     OW65158  10.877  10.098   4.622
54442SOL    HW165159  10.918  10.030   4.569
54442SOL    HW265160  10.922  10.094   4.706
54443SOL     OW65161   0.275   2.726   6.991
54443SOL    HW165162   0.246   2.777   6.916
54443SOL    HW265163   0.368   2.708   6.974
54444SOL     OW65164  11.517   5.759   6.118
54444SOL    HW165165  11.517   5.666   6.096
54444SOL    HW265166  11.442   5.796   6.071
54445SOL     OW65167   9.187   2.752  10.101
54445SOL    HW165168   9.204   2.684  10.166
54445SOL    HW265169   9.202   2.710  10.017
54446SOL     OW65170  12.536   8.342   0.977
54446SOL    HW165171  12.447   8.341   0.940
54446SOL    HW265172  12.529   8.292   1.058
54447SOL     OW65173  13.102  14.148  10.968
54447SOL    HW165174  13.160  14.134  11.042
54447SOL    HW265175  13.033  14.206  11.002
54448SOL     OW65176  13.826   8.332   7.568
54448SOL    HW165177  13.775   8.281   7.631
54448SOL    HW265178  13.903   8.277   7.550
54449SOL     OW65179   9.786  10.815   2.092
54449SOL    HW165180   9.744  10.734   2.061
54449SOL    HW265181   9.844  10.786   2.162
54450SOL     OW65182  11.670  12.475   4.032
54450SOL    HW165183  11.731  12.456   4.104
54450SOL    HW265184  11.624  12.554   4.060
54451SOL     OW65185   0.586  11.134   1.398
54451SOL    HW165186   0.532  11.055   1.391
54451SOL    HW265187   0.552  11.179   1.476
54452SOL     OW65188   1.497   8.039  10.690
54452SOL    HW165189   1.465   8.127  10.671
54452SOL    HW265190   1.532   8.045  10.779
54453SOL     OW65191   4.863   7.435  13.864
54453SOL    HW165192   4.773   7.444  13.835
54453SOL    HW265193   4.861   7.366  13.930
54454SOL     OW65194   4.975  12.001  10.052
54454SOL    HW165195   5.022  11.928  10.011
54454SOL    HW265196   5.038  12.073  10.050
54455SOL     OW65197  11.044   7.136   9.083
54455SOL    HW165198  11.100   7.071   9.126
54455SOL    HW265199  10.986   7.167   9.152
54456SOL     OW65200  12.868  12.882   1.970
54456SOL    HW165201  12.925  12.954   1.996
54456SOL    HW265202  12.833  12.847   2.053
54457SOL     OW65203   0.540   6.482  11.503
54457SOL    HW165204   0.528   6.558  11.560
54457SOL    HW265205   0.494   6.506  11.422
54458SOL     OW65206   4.542  13.828   1.978
54458SOL    HW165207   4.628  13.827   2.020
54458SOL    HW265208   4.480  13.817   2.049
54459SOL     OW65209   6.625   0.895  11.685
54459SOL    HW165210   6.553   0.912  11.625
54459SOL    HW265211   6.682   0.835  11.638
54460SOL     OW65212   6.284  14.529   1.837
54460SOL    HW165213   6.293  14.546   1.744
54460SOL    HW265214   6.231  14.602   1.870
54461SOL     OW65215  13.972   1.280  12.744
54461SOL    HW165216  13.998   1.240  12.827
54461SOL    HW265217  14.039   1.254  12.682
54462SOL     OW65218   9.841  14.708  13.621
54462SOL    HW165219   9.779  14.781  13.623
54462SOL    HW265220   9.891  14.721  13.540
54463SOL     OW65221   0.773   1.216   3.277
54463SOL    HW165222   0.686   1.192   3.245
54463SOL    HW265223   0.816   1.254   3.201
54464SOL     OW65224   5.168   0.435   1.502
54464SOL    HW165225   5.107   0.480   1.444
54464SOL    HW265226   5.159   0.481   1.586
54465SOL     OW65227  13.430   1.573   3.538
54465SOL    HW165228  13.450   1.515   3.612
54465SOL    HW265229  13.439   1.517   3.461
54466SOL     OW65230   8.247   3.141  13.105
54466SOL    HW165231   8.291   3.062  13.135
54466SOL    HW265232   8.242   3.197  13.183
54467SOL     OW65233   2.275   9.501  12.168
54467SOL    HW165234   2.331   9.576  12.187
54467SOL    HW265235   2.299   9.436  12.235
54468SOL     OW65236  11.230   4.680  13.233
54468SOL    HW165237  11.293   4.645  13.169
54468SOL    HW265238  11.284   4.704  13.308
54469SOL     OW65239   3.292   0.146   3.116
54469SOL    HW165240   3.386   0.162   3.109
54469SOL    HW265241   3.284   0.080   3.184
54470SOL     OW65242   6.365  13.783   7.764
54470SOL    HW165243   6.299  13.714   7.758
54470SOL    HW265244   6.441  13.740   7.803
54471SOL     OW65245   3.415   4.143   5.888
54471SOL    HW165246   3.382   4.091   5.962
54471SOL    HW265247   3.451   4.079   5.828
54472SOL     OW65248   0.459  13.836  14.397
54472SOL    HW165249   0.408  13.782  14.337
54472SOL    HW265250   0.528  13.873  14.342
54473SOL     OW65251   6.940  13.185   0.311
54473SOL    HW165252   6.947  13.249   0.382
54473SOL    HW265253   7.016  13.201   0.257
54474SOL     OW65254  12.969  12.932   7.597
54474SOL    HW165255  12.994  12.885   7.676
54474SOL    HW265256  12.911  12.872   7.550
54475SOL     OW65257   5.761   2.072  11.782
54475SOL    HW165258   5.712   2.152  11.763
54475SOL    HW265259   5.702   2.001  11.757
54476SOL     OW65260   2.240   4.487   7.575
54476SOL    HW165261   2.251   4.524   7.487
54476SOL    HW265262   2.270   4.397   7.568
54477SOL     OW65263   5.155   4.504   0.084
54477SOL    HW165264   5.076   4.480   0.035
54477SOL    HW265265   5.193   4.575   0.033
54478SOL     OW65266   4.879  11.307   4.449
54478SOL    HW165267   4.816  11.252   4.404
54478SOL    HW265268   4.858  11.296   4.542
54479SOL     OW65269   6.578   4.713   4.733
54479SOL    HW165270   6.529   4.633   4.710
54479SOL    HW265271   6.519   4.784   4.708
54480SOL     OW65272   8.400   1.217   1.278
54480SOL    HW165273   8.355   1.295   1.311
54480SOL    HW265274   8.336   1.174   1.222
54481SOL     OW65275  11.557   3.901   8.059
54481SOL    HW165276  11.538   3.861   7.974
54481SOL    HW265277  11.540   3.832   8.122
54482SOL     OW65278  10.795   0.484  12.316
54482SOL    HW165279  10.756   0.550  12.373
54482SOL    HW265280  10.784   0.402  12.365
54483SOL     OW65281   6.007   0.061  11.103
54483SOL    HW165282   6.026   0.057  11.197
54483SOL    HW265283   6.092   0.046  11.061
54484SOL     OW65284   8.225   4.590  13.195
54484SOL    HW165285   8.275   4.509  13.198
54484SOL    HW265286   8.134   4.562  13.185
54485SOL     OW65287   8.863  12.689  12.299
54485SOL    HW165288   8.888  12.730  12.382
54485SOL    HW265289   8.843  12.598  12.322
54486SOL     OW65290  11.882   9.895   9.034
54486SOL    HW165291  11.916   9.969   9.084
54486SOL    HW265292  11.843   9.934   8.956
54487SOL     OW65293   8.536   0.014   7.816
54487SOL    HW165294   8.574   0.100   7.798
54487SOL    HW265295   8.441   0.030   7.817
54488SOL     OW65296   0.563  11.039   2.793
54488SOL    HW165297   0.505  11.016   2.720
54488SOL    HW265298   0.575  10.958   2.841
54489SOL     OW65299   0.575  12.423  14.582
54489SOL    HW165300   0.488  12.401  14.615
54489SOL    HW265301   0.626  12.342  14.593
54490SOL     OW65302   0.590   6.462   6.106
54490SOL    HW165303   0.572   6.425   6.193
54490SOL    HW265304   0.655   6.402   6.068
54491SOL     OW65305   4.361   7.482  12.921
54491SOL    HW165306   4.444   7.445  12.890
54491SOL    HW265307   4.358   7.460  13.014
54492SOL     OW65308   5.934  14.322   9.013
54492SOL    HW165309   6.012  14.358   8.970
54492SOL    HW265310   5.874  14.396   9.019
54493SOL     OW65311   1.152   6.855   1.931
54493SOL    HW165312   1.065   6.833   1.898
54493SOL    HW265313   1.164   6.797   2.005
54494SOL     OW65314  11.153  10.851   0.006
54494SOL    HW165315  11.231  10.820   0.052
54494SOL    HW265316  11.102  10.897   0.072
54495SOL     OW65317   6.320   6.181  12.082
54495SOL    HW165318   6.333   6.268  12.121
54495SOL    HW265319   6.382   6.178  12.010
54496SOL     OW65320   3.465   0.614  14.466
54496SOL    HW165321   3.510   0.553  14.408
54496SOL    HW265322   3.400   0.560  14.511
54497SOL     OW65323   0.426   9.697   5.209
54497SOL    HW165324   0.480   9.619   5.210
54497SOL    HW265325   0.456   9.747   5.133
54498SOL     OW65326   0.186   1.241   9.298
54498SOL    HW165327   0.248   1.309   9.326
54498SOL    HW265328   0.142   1.213   9.378
54499SOL     OW65329  12.137   1.484  10.103
54499SOL    HW165330  12.186   1.429  10.042
54499SOL    HW265331  12.063   1.517  10.052
54500SOL     OW65332   9.458   7.504  11.209
54500SOL    HW165333   9.487   7.430  11.156
54500SOL    HW265334   9.497   7.489  11.295
54501SOL     OW65335   7.136   2.415   8.044
54501SOL    HW165336   7.176   2.495   8.009
54501SOL    HW265337   7.154   2.418   8.138
54502SOL     OW65338   1.021  10.368   5.560
54502SOL    HW165339   1.016  10.459   5.533
54502SOL    HW265340   0.948  10.325   5.515
54503SOL     OW65341   7.447  10.210   3.284
54503SOL    HW165342   7.383  10.184   3.218
54503SOL    HW265343   7.398  10.266   3.344
54504SOL     OW65344   5.853   2.733   0.523
54504SOL    HW165345   5.858   2.776   0.608
54504SOL    HW265346   5.765   2.696   0.520
54505SOL     OW65347   2.764  10.862   0.035
54505SOL    HW165348   2.676  10.831   0.056
54505SOL    HW265349   2.763  10.872  14.813
54506SOL     OW65350   2.232   7.996   8.041
54506SOL    HW165351   2.237   8.089   8.018
54506SOL    HW265352   2.210   7.952   7.959
54507SOL     OW65353   1.024   3.861   2.970
54507SOL    HW165354   1.093   3.890   3.029
54507SOL    HW265355   1.040   3.910   2.889
54508SOL     OW65356  10.499  11.761   7.882
54508SOL    HW165357  10.555  11.828   7.843
54508SOL    HW265358  10.473  11.797   7.967
54509SOL     OW65359  10.126   5.811   9.202
54509SOL    HW165360  10.164   5.891   9.165
54509SOL    HW265361  10.201   5.753   9.218
54510SOL     OW65362   6.402   8.428   2.858
54510SOL    HW165363   6.368   8.350   2.901
54510SOL    HW265364   6.440   8.396   2.775
54511SOL     OW65365  14.451   1.645   8.407
54511SOL    HW165366  14.413   1.638   8.320
54511SOL    HW265367  14.498   1.562   8.420
54512SOL     OW65368   5.616   1.040  11.291
54512SOL    HW165369   5.700   1.016  11.331
54512SOL    HW265370   5.576   1.099  11.354
54513SOL     OW65371   8.965  13.588  11.127
54513SOL    HW165372   8.901  13.519  11.144
54513SOL    HW265373   9.010  13.560  11.048
54514SOL     OW65374  13.221   5.814   5.015
54514SOL    HW165375  13.295   5.827   4.955
54514SOL    HW265376  13.189   5.902   5.033
54515SOL     OW65377   5.407  13.851   9.636
54515SOL    HW165378   5.492  13.817   9.607
54515SOL    HW265379   5.347  13.829   9.565
54516SOL     OW65380   1.029   9.566   6.111
54516SOL    HW165381   1.061   9.653   6.135
54516SOL    HW265382   1.021   9.519   6.195
54517SOL     OW65383  12.400   2.477  14.333
54517SOL    HW165384  12.464   2.547  14.320
54517SOL    HW265385  12.446   2.412  14.386
54518SOL     OW65386   9.704  12.119   9.462
54518SOL    HW165387   9.662  12.038   9.492
54518SOL    HW265388   9.746  12.154   9.541
54519SOL     OW65389   1.951   3.979   7.849
54519SOL    HW165390   2.001   3.992   7.768
54519SOL    HW265391   2.017   3.971   7.917
54520SOL     OW65392   6.668   2.493   2.902
54520SOL    HW165393   6.751   2.537   2.920
54520SOL    HW265394   6.609   2.525   2.969
54521SOL     OW65395  13.332  12.404  11.479
54521SOL    HW165396  13.339  12.497  11.500
54521SOL    HW265397  13.322  12.361  11.563
54522SOL     OW65398   9.529   1.161   7.684
54522SOL    HW165399   9.606   1.144   7.738
54522SOL    HW265400   9.468   1.204   7.744
54523SOL     OW65401  12.908   2.156   3.829
54523SOL    HW165402  12.996   2.152   3.865
54523SOL    HW265403  12.920   2.171   3.735
54524SOL     OW65404  12.705   0.073   4.346
54524SOL    HW165405  12.627   0.127   4.343
54524SOL    HW265406  12.677  14.865   4.389
54525SOL     OW65407   9.897  14.161  10.506
54525SOL    HW165408   9.968  14.198  10.454
54525SOL    HW265409   9.850  14.103  10.446
54526SOL     OW65410   8.276  11.637   1.689
54526SOL    HW165411   8.370  11.618   1.685
54526SOL    HW265412   8.237  11.556   1.723
54527SOL     OW65413   7.683   3.918   1.019
54527SOL    HW165414   7.638   3.867   1.086
54527SOL    HW265415   7.681   3.862   0.941
54528SOL     OW65416   3.544  12.351   8.829
54528SOL    HW165417   3.524  12.306   8.911
54528SOL    HW265418   3.463  12.399   8.808
54529SOL     OW65419  10.480  13.089  12.809
54529SOL    HW165420  10.386  13.076  12.821
54529SOL    HW265421  10.516  13.086  12.897
54530SOL     OW65422   6.435   0.779   2.708
54530SOL    HW165423   6.415   0.750   2.619
54530SOL    HW265424   6.363   0.837   2.731
54531SOL     OW65425   8.052  10.245   5.514
54531SOL    HW165426   8.058  10.329   5.468
54531SOL    HW265427   8.069  10.267   5.606
54532SOL     OW65428   3.731   3.310   3.236
54532SOL    HW165429   3.815   3.322   3.280
54532SOL    HW265430   3.700   3.399   3.219
54533SOL     OW65431   4.707   5.829  11.723
54533SOL    HW165432   4.738   5.793  11.640
54533SOL    HW265433   4.732   5.922  11.719
54534SOL     OW65434  13.741   2.340  14.552
54534SOL    HW165435  13.746   2.436  14.547
54534SOL    HW265436  13.728   2.321  14.644
54535SOL     OW65437  12.327   0.850   6.658
54535SOL    HW165438  12.282   0.805   6.586
54535SOL    HW265439  12.420   0.833   6.643
54536SOL     OW65440   8.172  12.049  13.463
54536SOL    HW165441   8.227  12.061  13.540
54536SOL    HW265442   8.168  12.135  13.422
54537SOL     OW65443  14.218  13.384   7.040
54537SOL    HW165444  14.272  13.364   6.964
54537SOL    HW265445  14.258  13.462   7.078
54538SOL     OW65446  11.179  13.272   4.517
54538SOL    HW165447  11.140  13.233   4.595
54538SOL    HW265448  11.131  13.354   4.504
54539SOL     OW65449  13.870   6.116  14.252
54539SOL    HW165450  13.832   6.030  14.233
54539SOL    HW265451  13.850   6.131  14.344
54540SOL     OW65452  11.374  14.579   4.283
54540SOL    HW165453  11.432  14.551   4.354
54540SOL    HW265454  11.387  14.513   4.214
54541SOL     OW65455   7.851   1.640  10.202
54541SOL    HW165456   7.880   1.572  10.140
54541SOL    HW265457   7.778   1.683  10.158
54542SOL     OW65458   8.775   8.796  14.569
54542SOL    HW165459   8.755   8.881  14.608
54542SOL    HW265460   8.691   8.749  14.570
54543SOL     OW65461  11.790  12.378   6.810
54543SOL    HW165462  11.754  12.450   6.757
54543SOL    HW265463  11.758  12.299   6.766
54544SOL     OW65464  14.789   3.537  12.578
54544SOL    HW165465  14.711   3.585  12.608
54544SOL    HW265466  14.810   3.479  12.651
54545SOL     OW65467   3.649  11.453   8.743
54545SOL    HW165468   3.687  11.541   8.742
54545SOL    HW265469   3.618  11.439   8.654
54546SOL     OW65470   6.257   2.366   6.410
54546SOL    HW165471   6.345   2.401   6.428
54546SOL    HW265472   6.215   2.364   6.496
54547SOL     OW65473  14.373  12.710   6.985
54547SOL    HW165474  14.460  12.732   7.016
54547SOL    HW265475  14.387  12.644   6.917
54548SOL     OW65476  14.606  14.755  12.027
54548SOL    HW165477  14.511  14.767  12.020
54548SOL    HW265478  14.617  14.701  12.105
54549SOL     OW65479   9.006   6.258  12.500
54549SOL    HW165480   9.099   6.238  12.488
54549SOL    HW265481   8.970   6.179  12.541
54550SOL     OW65482   0.873   1.115   9.899
54550SOL    HW165483   0.922   1.163   9.833
54550SOL    HW265484   0.806   1.066   9.851
54551SOL     OW65485   6.305   3.035  12.224
54551SOL    HW165486   6.356   2.962  12.258
54551SOL    HW265487   6.344   3.113  12.265
54552SOL     OW65488   9.988   7.316   0.368
54552SOL    HW165489   9.998   7.269   0.285
54552SOL    HW265490   9.980   7.408   0.342
54553SOL     OW65491   9.401   1.726   4.707
54553SOL    HW165492   9.362   1.720   4.794
54553SOL    HW265493   9.328   1.751   4.650
54554SOL     OW65494   2.137  14.403   6.632
54554SOL    HW165495   2.064  14.347   6.607
54554SOL    HW265496   2.203  14.387   6.564
54555SOL     OW65497   2.482  11.944   8.849
54555SOL    HW165498   2.555  11.888   8.825
54555SOL    HW265499   2.508  11.984   8.933
54556SOL     OW65500  12.944   5.170  13.890
54556SOL    HW165501  12.909   5.175  13.801
54556SOL    HW265502  12.919   5.083  13.920
54557SOL     OW65503   4.422   7.849   9.288
54557SOL    HW165504   4.409   7.857   9.193
54557SOL    HW265505   4.467   7.765   9.298
54558SOL     OW65506   6.334   0.797  13.456
54558SOL    HW165507   6.387   0.872  13.485
54558SOL    HW265508   6.339   0.800  13.361
54559SOL     OW65509  14.614   2.979   7.842
54559SOL    HW165510  14.606   2.910   7.776
54559SOL    HW265511  14.523   3.003   7.861
54560SOL     OW65512  11.632  13.904   4.346
54560SOL    HW165513  11.711  13.850   4.338
54560SOL    HW265514  11.562  13.841   4.367
54561SOL     OW65515  14.385   2.158  14.136
54561SOL    HW165516  14.418   2.247  14.148
54561SOL    HW265517  14.380   2.121  14.224
54562SOL     OW65518  14.111  11.894  13.595
54562SOL    HW165519  14.041  11.916  13.534
54562SOL    HW265520  14.099  11.800  13.612
54563SOL     OW65521  14.682   0.898   3.845
54563SOL    HW165522  14.746   0.901   3.916
54563SOL    HW265523  14.627   0.975   3.859
54564SOL     OW65524   8.012  12.009   3.988
54564SOL    HW165525   7.995  11.917   4.008
54564SOL    HW265526   7.961  12.026   3.910
54565SOL     OW65527  14.313   3.914   4.791
54565SOL    HW165528  14.242   3.967   4.827
54565SOL    HW265529  14.270   3.851   4.734
54566SOL     OW65530   4.428   8.777   3.680
54566SOL    HW165531   4.504   8.732   3.644
54566SOL    HW265532   4.433   8.865   3.644
54567SOL     OW65533  12.170   9.267   9.296
54567SOL    HW165534  12.177   9.230   9.384
54567SOL    HW265535  12.246   9.234   9.249
54568SOL     OW65536   8.840   3.270  11.732
54568SOL    HW165537   8.813   3.180  11.719
54568SOL    HW265538   8.934   3.271  11.713
54569SOL     OW65539   1.226  14.141   8.158
54569SOL    HW165540   1.273  14.182   8.086
54569SOL    HW265541   1.282  14.152   8.234
54570SOL     OW65542   7.648   0.644   5.222
54570SOL    HW165543   7.602   0.563   5.201
54570SOL    HW265544   7.703   0.662   5.145
54571SOL     OW65545   7.301   4.480   7.573
54571SOL    HW165546   7.241   4.496   7.646
54571SOL    HW265547   7.349   4.401   7.599
54572SOL     OW65548  14.188  10.134  14.597
54572SOL    HW165549  14.149  10.205  14.546
54572SOL    HW265550  14.282  10.153  14.596
54573SOL     OW65551   7.356   4.933   1.591
54573SOL    HW165552   7.365   4.920   1.685
54573SOL    HW265553   7.379   4.848   1.552
54574SOL     OW65554   1.498  12.109  13.414
54574SOL    HW165555   1.485  12.015  13.421
54574SOL    HW265556   1.567  12.120  13.350
54575SOL     OW65557   3.685  10.522  13.481
54575SOL    HW165558   3.755  10.458  13.494
54575SOL    HW265559   3.642  10.496  13.400
54576SOL     OW65560  13.768  10.413  12.774
54576SOL    HW165561  13.722  10.497  12.767
54576SOL    HW265562  13.850  10.435  12.819
54577SOL     OW65563   8.306   9.249   2.965
54577SOL    HW165564   8.285   9.340   2.941
54577SOL    HW265565   8.272   9.197   2.893
54578SOL     OW65566   7.642  13.679   6.230
54578SOL    HW165567   7.547  13.688   6.243
54578SOL    HW265568   7.653  13.589   6.200
54579SOL     OW65569   5.020   1.202   4.742
54579SOL    HW165570   5.105   1.217   4.700
54579SOL    HW265571   4.962   1.268   4.702
54580SOL     OW65572  14.325   5.003   7.290
54580SOL    HW165573  14.355   4.950   7.364
54580SOL    HW265574  14.230   4.988   7.287
54581SOL     OW65575   3.221  10.993   0.536
54581SOL    HW165576   3.173  10.940   0.473
54581SOL    HW265577   3.313  10.968   0.524
54582SOL     OW65578   8.242   6.544   9.210
54582SOL    HW165579   8.280   6.462   9.241
54582SOL    HW265580   8.291   6.565   9.131
54583SOL     OW65581   5.547   8.356   4.004
54583SOL    HW165582   5.506   8.286   4.054
54583SOL    HW265583   5.588   8.312   3.929
54584SOL     OW65584   1.149   3.911   0.018
54584SOL    HW165585   1.189   3.867   0.093
54584SOL    HW265586   1.097   3.982   0.056
54585SOL     OW65587   9.622   9.149   3.841
54585SOL    HW165588   9.716   9.164   3.827
54585SOL    HW265589   9.595   9.095   3.766
54586SOL     OW65590   9.736   8.731  11.439
54586SOL    HW165591   9.691   8.660  11.394
54586SOL    HW265592   9.722   8.808  11.383
54587SOL     OW65593   4.602   5.184   2.643
54587SOL    HW165594   4.515   5.202   2.681
54587SOL    HW265595   4.657   5.163   2.719
54588SOL     OW65596   2.101   3.113  13.322
54588SOL    HW165597   2.174   3.095  13.262
54588SOL    HW265598   2.038   3.043  13.306
54589SOL     OW65599   0.419   5.308   1.513
54589SOL    HW165600   0.499   5.324   1.563
54589SOL    HW265601   0.410   5.386   1.457
54590SOL     OW65602   1.611   8.021   9.969
54590SOL    HW165603   1.602   7.935   9.927
54590SOL    HW265604   1.679   8.008  10.035
54591SOL     OW65605   4.659   7.266   2.563
54591SOL    HW165606   4.680   7.211   2.639
54591SOL    HW265607   4.670   7.356   2.595
54592SOL     OW65608   2.467  13.182   5.800
54592SOL    HW165609   2.501  13.213   5.716
54592SOL    HW265610   2.374  13.201   5.797
54593SOL     OW65611  12.060   1.482   9.770
54593SOL    HW165612  12.017   1.420   9.829
54593SOL    HW265613  12.080   1.558   9.825
54594SOL     OW65614  12.126  14.126   4.957
54594SOL    HW165615  12.076  14.056   4.915
54594SOL    HW265616  12.152  14.090   5.042
54595SOL     OW65617   4.044   0.529   9.671
54595SOL    HW165618   3.991   0.527   9.751
54595SOL    HW265619   4.101   0.453   9.679
54596SOL     OW65620   4.368   7.877   1.799
54596SOL    HW165621   4.381   7.784   1.779
54596SOL    HW265622   4.451   7.918   1.776
54597SOL     OW65623   5.131  13.808   6.000
54597SOL    HW165624   5.086  13.741   6.051
54597SOL    HW265625   5.137  13.771   5.912
54598SOL     OW65626  10.742   2.417   8.550
54598SOL    HW165627  10.806   2.398   8.482
54598SOL    HW265628  10.670   2.460   8.504
54599SOL     OW65629   8.592   2.098  13.330
54599SOL    HW165630   8.570   2.169  13.270
54599SOL    HW265631   8.525   2.105  13.399
54600SOL     OW65632   3.641   7.619   8.695
54600SOL    HW165633   3.685   7.704   8.695
54600SOL    HW265634   3.629   7.598   8.602
54601SOL     OW65635  11.729   1.720   4.573
54601SOL    HW165636  11.760   1.678   4.492
54601SOL    HW265637  11.741   1.653   4.640
54602SOL     OW65638  11.575   0.939   3.803
54602SOL    HW165639  11.554   0.963   3.713
54602SOL    HW265640  11.650   0.994   3.826
54603SOL     OW65641   8.355   8.102   1.615
54603SOL    HW165642   8.320   8.069   1.532
54603SOL    HW265643   8.449   8.110   1.600
54604SOL     OW65644   6.950   0.935  10.589
54604SOL    HW165645   6.947   0.984  10.671
54604SOL    HW265646   6.875   0.967  10.539
54605SOL     OW65647  12.363   5.940  11.192
54605SOL    HW165648  12.303   5.871  11.220
54605SOL    HW265649  12.416   5.959  11.269
54606SOL     OW65650   2.831   7.092   7.513
54606SOL    HW165651   2.866   7.004   7.508
54606SOL    HW265652   2.770   7.098   7.440
54607SOL     OW65653  11.011   5.410   3.419
54607SOL    HW165654  11.078   5.367   3.471
54607SOL    HW265655  11.006   5.499   3.456
54608SOL     OW65656  10.476   7.386   2.766
54608SOL    HW165657  10.381   7.390   2.755
54608SOL    HW265658  10.488   7.352   2.855
54609SOL     OW65659   7.062   8.539   5.223
54609SOL    HW165660   7.061   8.590   5.142
54609SOL    HW265661   6.981   8.562   5.267
54610SOL     OW65662  13.183  13.698   1.633
54610SOL    HW165663  13.196  13.607   1.660
54610SOL    HW265664  13.211  13.749   1.710
54611SOL     OW65665   8.686   5.523   6.536
54611SOL    HW165666   8.640   5.575   6.602
54611SOL    HW265667   8.640   5.541   6.454
54612SOL     OW65668   0.664  12.560  13.946
54612SOL    HW165669   0.658  12.619  14.022
54612SOL    HW265670   0.574  12.540  13.923
54613SOL     OW65671   0.730   2.418   8.856
54613SOL    HW165672   0.672   2.358   8.903
54613SOL    HW265673   0.745   2.376   8.771
54614SOL     OW65674   4.919   3.933   0.757
54614SOL    HW165675   4.986   3.987   0.715
54614SOL    HW265676   4.842   3.990   0.763
54615SOL     OW65677  12.710   7.555   7.822
54615SOL    HW165678  12.758   7.630   7.857
54615SOL    HW265679  12.720   7.562   7.727
54616SOL     OW65680  11.327  10.260  12.874
54616SOL    HW165681  11.338  10.295  12.786
54616SOL    HW265682  11.416  10.241  12.903
54617SOL     OW65683  11.048  13.849  11.213
54617SOL    HW165684  11.106  13.837  11.288
54617SOL    HW265685  10.997  13.927  11.234
54618SOL     OW65686  12.623   5.749   7.695
54618SOL    HW165687  12.636   5.843   7.683
54618SOL    HW265688  12.710   5.714   7.710
54619SOL     OW65689   3.836  12.036   9.215
54619SOL    HW165690   3.829  11.969   9.284
54619SOL    HW265691   3.887  11.995   9.146
54620SOL     OW65692   6.685  14.614   1.873
54620SOL    HW165693   6.675  14.640   1.781
54620SOL    HW265694   6.631  14.536   1.882
54621SOL     OW65695  13.346   9.720   9.807
54621SOL    HW165696  13.393   9.803   9.811
54621SOL    HW265697  13.284   9.730   9.734
54622SOL     OW65698  14.650   1.524   4.764
54622SOL    HW165699  14.742   1.505   4.744
54622SOL    HW265700  14.653   1.576   4.845
54623SOL     OW65701   1.558   7.295  13.577
54623SOL    HW165702   1.588   7.297  13.486
54623SOL    HW265703   1.624   7.346  13.624
54624SOL     OW65704  10.676   1.747   1.767
54624SOL    HW165705  10.606   1.802   1.803
54624SOL    HW265706  10.656   1.742   1.673
54625SOL     OW65707   0.221  11.359  14.361
54625SOL    HW165708   0.311  11.377  14.332
54625SOL    HW265709   0.208  11.266  14.340
54626SOL     OW65710   1.414  14.618  12.478
54626SOL    HW165711   1.485  14.627  12.541
54626SOL    HW265712   1.445  14.554  12.414
54627SOL     OW65713   7.997   1.390   3.927
54627SOL    HW165714   8.012   1.366   3.836
54627SOL    HW265715   7.904   1.372   3.942
54628SOL     OW65716   8.236   0.748   0.415
54628SOL    HW165717   8.192   0.805   0.352
54628SOL    HW265718   8.328   0.752   0.391
54629SOL     OW65719   5.593   6.691   4.318
54629SOL    HW165720   5.615   6.652   4.403
54629SOL    HW265721   5.497   6.692   4.316
54630SOL     OW65722   4.237   8.561   0.034
54630SOL    HW165723   4.233   8.637   0.092
54630SOL    HW265724   4.166   8.574  14.844
54631SOL     OW65725   6.672   3.074  12.441
54631SOL    HW165726   6.648   2.988  12.475
54631SOL    HW265727   6.685   3.060  12.347
54632SOL     OW65728   8.866   9.302   0.846
54632SOL    HW165729   8.906   9.382   0.812
54632SOL    HW265730   8.890   9.234   0.783
54633SOL     OW65731  10.388   6.368   4.733
54633SOL    HW165732  10.404   6.283   4.694
54633SOL    HW265733  10.418   6.431   4.667
54634SOL     OW65734   5.011   0.725   8.884
54634SOL    HW165735   4.980   0.807   8.846
54634SOL    HW265736   5.106   0.732   8.885
54635SOL     OW65737  14.725  13.877   9.764
54635SOL    HW165738  14.749  13.866   9.672
54635SOL    HW265739  14.792  13.828   9.812
54636SOL     OW65740  12.851   3.409   6.558
54636SOL    HW165741  12.911   3.340   6.588
54636SOL    HW265742  12.861   3.478   6.623
54637SOL     OW65743   0.417   0.822   4.361
54637SOL    HW165744   0.451   0.854   4.445
54637SOL    HW265745   0.374   0.898   4.322
54638SOL     OW65746   8.935  10.689  14.247
54638SOL    HW165747   8.882  10.653  14.176
54638SOL    HW265748   8.893  10.771  14.269
54639SOL     OW65749   4.265   3.120   6.855
54639SOL    HW165750   4.277   3.206   6.894
54639SOL    HW265751   4.242   3.137   6.764
54640SOL     OW65752  11.472  13.830   9.001
54640SOL    HW165753  11.416  13.759   8.968
54640SOL    HW265754  11.466  13.898   8.934
54641SOL     OW65755   6.206   6.331  10.292
54641SOL    HW165756   6.266   6.402  10.313
54641SOL    HW265757   6.142   6.332  10.364
54642SOL     OW65758  13.164   9.096   6.361
54642SOL    HW165759  13.112   9.021   6.332
54642SOL    HW265760  13.099   9.156   6.399
54643SOL     OW65761   2.267   4.308   6.192
54643SOL    HW165762   2.250   4.259   6.111
54643SOL    HW265763   2.209   4.267   6.257
54644SOL     OW65764   8.676   8.054  10.280
54644SOL    HW165765   8.733   7.984  10.312
54644SOL    HW265766   8.703   8.068  10.189
54645SOL     OW65767   4.516  11.759   1.980
54645SOL    HW165768   4.444  11.717   1.932
54645SOL    HW265769   4.531  11.702   2.055
54646SOL     OW65770   8.892   6.661   6.275
54646SOL    HW165771   8.938   6.581   6.252
54646SOL    HW265772   8.801   6.645   6.248
54647SOL     OW65773   3.467   4.341  12.941
54647SOL    HW165774   3.480   4.285  13.018
54647SOL    HW265775   3.446   4.427  12.977
54648SOL     OW65776   4.165   7.408   1.839
54648SOL    HW165777   4.186   7.500   1.856
54648SOL    HW265778   4.099   7.387   1.906
54649SOL     OW65779  13.925   7.820   2.525
54649SOL    HW165780  13.875   7.901   2.511
54649SOL    HW265781  13.912   7.799   2.617
54650SOL     OW65782   1.199   0.606   6.029
54650SOL    HW165783   1.154   0.545   5.970
54650SOL    HW265784   1.229   0.551   6.101
54651SOL     OW65785  12.075  11.035  10.473
54651SOL    HW165786  12.168  11.055  10.485
54651SOL    HW265787  12.065  11.018  10.379
54652SOL     OW65788  13.384  11.661   0.100
54652SOL    HW165789  13.445  11.729   0.070
54652SOL    HW265790  13.393  11.662   0.195
54653SOL     OW65791   1.323   0.649   2.667
54653SOL    HW165792   1.369   0.587   2.723
54653SOL    HW265793   1.280   0.709   2.728
54654SOL     OW65794   2.596   8.667   4.876
54654SOL    HW165795   2.502   8.650   4.881
54654SOL    HW265796   2.635   8.580   4.867
54655SOL     OW65797   8.307  10.616   8.870
54655SOL    HW165798   8.323  10.559   8.794
54655SOL    HW265799   8.229  10.665   8.847
54656SOL     OW65800   1.278   7.076   5.695
54656SOL    HW165801   1.292   7.022   5.772
54656SOL    HW265802   1.263   7.013   5.624
54657SOL     OW65803  14.454   7.514  12.876
54657SOL    HW165804  14.478   7.509  12.783
54657SOL    HW265805  14.405   7.433  12.892
54658SOL     OW65806  14.378   7.471   3.426
54658SOL    HW165807  14.385   7.377   3.408
54658SOL    HW265808  14.378   7.477   3.522
54659SOL     OW65809   2.749   9.457  11.121
54659SOL    HW165810   2.758   9.487  11.031
54659SOL    HW265811   2.728   9.537  11.170
54660SOL     OW65812  10.869   3.286   2.127
54660SOL    HW165813  10.927   3.229   2.076
54660SOL    HW265814  10.866   3.246   2.214
54661SOL     OW65815   8.430  11.517   9.186
54661SOL    HW165816   8.414  11.423   9.193
54661SOL    HW265817   8.459  11.530   9.096
54662SOL     OW65818   8.875   4.925   6.126
54662SOL    HW165819   8.842   4.865   6.059
54662SOL    HW265820   8.948   4.878   6.167
54663SOL     OW65821   3.728   1.388  11.391
54663SOL    HW165822   3.642   1.392  11.435
54663SOL    HW265823   3.780   1.330  11.447
54664SOL     OW65824   5.951  13.615  13.373
54664SOL    HW165825   5.876  13.567  13.409
54664SOL    HW265826   6.004  13.548  13.331
54665SOL     OW65827   7.493   1.072   7.410
54665SOL    HW165828   7.403   1.063   7.381
54665SOL    HW265829   7.486   1.105   7.500
54666SOL     OW65830  11.172   2.861   1.167
54666SOL    HW165831  11.117   2.784   1.165
54666SOL    HW265832  11.198   2.870   1.259
54667SOL     OW65833   0.219   0.023   2.757
54667SOL    HW165834   0.203  14.807   2.787
54667SOL    HW265835   0.301   0.019   2.709
54668SOL     OW65836   7.020  14.663   2.809
54668SOL    HW165837   7.026  14.744   2.859
54668SOL    HW265838   6.930  14.634   2.820
54669SOL     OW65839  14.243   3.116   0.775
54669SOL    HW165840  14.291   3.043   0.734
54669SOL    HW265841  14.295   3.193   0.754
54670SOL     OW65842  12.382  12.842   9.131
54670SOL    HW165843  12.436  12.915   9.163
54670SOL    HW265844  12.444  12.771   9.114
54671SOL     OW65845   5.092  12.680   0.014
54671SOL    HW165846   5.099  12.629  14.806
54671SOL    HW265847   5.183  12.696   0.039
54672SOL     OW65848   5.252   2.647   1.968
54672SOL    HW165849   5.160   2.630   1.986
54672SOL    HW265850   5.254   2.738   1.937
54673SOL     OW65851  12.512  10.311  13.579
54673SOL    HW165852  12.604  10.332  13.564
54673SOL    HW265853  12.490  10.358  13.660
54674SOL     OW65854   3.498   3.319   2.910
54674SOL    HW165855   3.543   3.348   2.830
54674SOL    HW265856   3.440   3.392   2.932
54675SOL     OW65857  14.831   1.177   2.350
54675SOL    HW165858  14.737   1.193   2.343
54675SOL    HW265859  14.852   1.193   2.442
54676SOL     OW65860   9.062  10.200   2.764
54676SOL    HW165861   8.993  10.191   2.698
54676SOL    HW265862   9.090  10.291   2.758
54677SOL     OW65863   0.670   7.176   6.883
54677SOL    HW165864   0.645   7.099   6.832
54677SOL    HW265865   0.672   7.248   6.821
54678SOL     OW65866   6.209   0.811  11.711
54678SOL    HW165867   6.205   0.903  11.685
54678SOL    HW265868   6.293   0.802  11.755
54679SOL     OW65869  12.639   8.581  11.661
54679SOL    HW165870  12.633   8.653  11.723
54679SOL    HW265871  12.711   8.527  11.693
54680SOL     OW65872   1.669  13.736   2.272
54680SOL    HW165873   1.667  13.642   2.253
54680SOL    HW265874   1.600  13.773   2.218
54681SOL     OW65875   1.805   9.717   2.060
54681SOL    HW165876   1.713   9.693   2.046
54681SOL    HW265877   1.840   9.730   1.972
54682SOL     OW65878   6.260   8.200   5.346
54682SOL    HW165879   6.229   8.275   5.396
54682SOL    HW265880   6.197   8.130   5.365
54683SOL     OW65881   8.810  14.827  11.873
54683SOL    HW165882   8.889  14.774  11.870
54683SOL    HW265883   8.739  14.765  11.855
54684SOL     OW65884  14.602   7.482   5.703
54684SOL    HW165885  14.508   7.476   5.719
54684SOL    HW265886  14.640   7.502   5.789
54685SOL     OW65887   5.376   1.757  10.502
54685SOL    HW165888   5.405   1.839  10.543
54685SOL    HW265889   5.432   1.748  10.424
54686SOL     OW65890  14.104   1.941  13.363
54686SOL    HW165891  14.095   2.020  13.417
54686SOL    HW265892  14.191   1.907  13.383
54687SOL     OW65893   9.512  12.406   2.228
54687SOL    HW165894   9.532  12.377   2.138
54687SOL    HW265895   9.592  12.388   2.277
54688SOL     OW65896  13.972   1.726  10.893
54688SOL    HW165897  13.879   1.723  10.914
54688SOL    HW265898  13.974   1.738  10.798
54689SOL     OW65899   8.313   3.418  11.346
54689SOL    HW165900   8.258   3.359  11.398
54689SOL    HW265901   8.260   3.437  11.268
54690SOL     OW65902   1.394   9.187   9.270
54690SOL    HW165903   1.328   9.143   9.324
54690SOL    HW265904   1.344   9.242   9.210
54691SOL     OW65905   0.694   7.229   3.378
54691SOL    HW165906   0.681   7.216   3.472
54691SOL    HW265907   0.783   7.263   3.371
54692SOL     OW65908   1.210   0.481   0.935
54692SOL    HW165909   1.129   0.432   0.945
54692SOL    HW265910   1.208   0.546   1.005
54693SOL     OW65911   3.371   0.993  11.771
54693SOL    HW165912   3.283   0.970  11.801
54693SOL    HW265913   3.382   1.085  11.798
54694SOL     OW65914   9.311   1.559   1.504
54694SOL    HW165915   9.319   1.464   1.500
54694SOL    HW265916   9.320   1.588   1.414
54695SOL     OW65917   5.079   3.493   6.143
54695SOL    HW165918   5.095   3.588   6.148
54695SOL    HW265919   5.049   3.469   6.231
54696SOL     OW65920   6.617   2.510   4.359
54696SOL    HW165921   6.566   2.497   4.439
54696SOL    HW265922   6.589   2.595   4.325
54697SOL     OW65923   4.320   8.233   5.585
54697SOL    HW165924   4.319   8.297   5.656
54697SOL    HW265925   4.323   8.148   5.630
54698SOL     OW65926   9.792  14.639   5.917
54698SOL    HW165927   9.773  14.550   5.885
54698SOL    HW265928   9.709  14.670   5.952
54699SOL     OW65929   2.364   3.894  12.624
54699SOL    HW165930   2.295   3.850  12.674
54699SOL    HW265931   2.368   3.847  12.541
54700SOL     OW65932   2.192  13.436  12.598
54700SOL    HW165933   2.234  13.505  12.546
54700SOL    HW265934   2.221  13.354  12.557
54701SOL     OW65935  14.857   5.490   4.104
54701SOL    HW165936  14.849   5.498   4.009
54701SOL    HW265937  14.824   5.402   4.123
54702SOL     OW65938   6.072   0.127   2.154
54702SOL    HW165939   6.070   0.125   2.250
54702SOL    HW265940   5.986   0.093   2.128
54703SOL     OW65941   3.808  11.441  11.568
54703SOL    HW165942   3.742  11.386  11.526
54703SOL    HW265943   3.827  11.509  11.504
54704SOL     OW65944   9.654   8.759   4.074
54704SOL    HW165945   9.672   8.851   4.092
54704SOL    HW265946   9.608   8.728   4.153
54705SOL     OW65947  14.737   6.223   8.574
54705SOL    HW165948  14.799   6.269   8.518
54705SOL    HW265949  14.665   6.286   8.586
54706SOL     OW65950   6.516  12.455  14.341
54706SOL    HW165951   6.575  12.424  14.410
54706SOL    HW265952   6.515  12.384  14.277
54707SOL     OW65953  10.122   5.835   2.352
54707SOL    HW165954  10.201   5.785   2.372
54707SOL    HW265955  10.050   5.773   2.362
54708SOL     OW65956   7.430   3.457   9.239
54708SOL    HW165957   7.401   3.432   9.326
54708SOL    HW265958   7.483   3.536   9.253
54709SOL     OW65959   1.788  14.298   8.348
54709SOL    HW165960   1.830  14.384   8.344
54709SOL    HW265961   1.745  14.288   8.263
54710SOL     OW65962   3.288   8.343  11.198
54710SOL    HW165963   3.330   8.268  11.240
54710SOL    HW265964   3.205   8.309  11.166
54711SOL     OW65965   8.768   9.742   8.118
54711SOL    HW165966   8.805   9.668   8.071
54711SOL    HW265967   8.749   9.709   8.205
54712SOL     OW65968  11.902  11.038   6.000
54712SOL    HW165969  11.879  10.948   5.977
54712SOL    HW265970  11.995  11.034   6.022
54713SOL     OW65971   1.065   6.195   9.187
54713SOL    HW165972   1.054   6.269   9.247
54713SOL    HW265973   1.116   6.230   9.114
54714SOL     OW65974   7.448   0.089   8.303
54714SOL    HW165975   7.367   0.140   8.304
54714SOL    HW265976   7.440   0.033   8.225
54715SOL     OW65977   2.212   9.263   1.856
54715SOL    HW165978   2.278   9.301   1.798
54715SOL    HW265979   2.178   9.188   1.807
54716SOL     OW65980  12.602   6.946   1.804
54716SOL    HW165981  12.518   6.993   1.804
54716SOL    HW265982  12.648   6.979   1.726
54717SOL     OW65983  11.837  10.007   8.772
54717SOL    HW165984  11.802  10.045   8.691
54717SOL    HW265985  11.856  10.083   8.827
54718SOL     OW65986   7.879   5.508   3.742
54718SOL    HW165987   7.796   5.501   3.694
54718SOL    HW265988   7.908   5.418   3.753
54719SOL     OW65989  12.810   1.477   6.636
54719SOL    HW165990  12.877   1.461   6.703
54719SOL    HW265991  12.859   1.493   6.556
54720SOL     OW65992   9.468   8.908   7.800
54720SOL    HW165993   9.400   8.845   7.826
54720SOL    HW265994   9.419   8.984   7.769
54721SOL     OW65995   6.105   3.176   6.634
54721SOL    HW165996   6.103   3.186   6.539
54721SOL    HW265997   6.151   3.094   6.648
54722SOL     OW65998  12.866   1.198   0.940
54722SOL    HW165999  12.908   1.160   1.018
54722SOL    HW266000  12.812   1.128   0.905
54723SOL     OW66001   2.406   6.167   8.268
54723SOL    HW166002   2.387   6.099   8.333
54723SOL    HW266003   2.500   6.158   8.251
54724SOL     OW66004  11.760  10.773   1.989
54724SOL    HW166005  11.791  10.722   2.064
54724SOL    HW266006  11.715  10.848   2.027
54725SOL     OW66007   7.329   8.828  11.613
54725SOL    HW166008   7.255   8.837  11.554
54725SOL    HW266009   7.308   8.884  11.688
54726SOL     OW66010   1.066  12.941  10.969
54726SOL    HW166011   1.031  12.978  11.050
54726SOL    HW266012   1.022  12.990  10.899
54727SOL     OW66013  10.322  14.739   8.551
54727SOL    HW166014  10.383  14.793   8.601
54727SOL    HW266015  10.237  14.756   8.592
54728SOL     OW66016  14.637   9.524   4.608
54728SOL    HW166017  14.588   9.453   4.648
54728SOL    HW266018  14.616   9.517   4.514
54729SOL     OW66019   6.943  13.653   2.562
54729SOL    HW166020   6.884  13.590   2.604
54729SOL    HW266021   6.968  13.713   2.633
54730SOL     OW66022  13.619   1.619   1.219
54730SOL    HW166023  13.604   1.525   1.232
54730SOL    HW266024  13.687   1.642   1.281
54731SOL     OW66025  10.682   1.784  10.226
54731SOL    HW166026  10.771   1.805  10.196
54731SOL    HW266027  10.696   1.738  10.308
54732SOL     OW66028  12.868   4.922  13.452
54732SOL    HW166029  12.935   4.990  13.456
54732SOL    HW266030  12.829   4.923  13.539
54733SOL     OW66031   4.213  13.633   3.588
54733SOL    HW166032   4.190  13.726   3.596
54733SOL    HW266033   4.273  13.618   3.661
54734SOL     OW66034  14.118   7.829  13.032
54734SOL    HW166035  14.180   7.815  12.960
54734SOL    HW266036  14.130   7.752  13.089
54735SOL     OW66037   7.275   5.889   4.553
54735SOL    HW166038   7.222   5.967   4.535
54735SOL    HW266039   7.366   5.920   4.546
54736SOL     OW66040   5.412   5.066   1.271
54736SOL    HW166041   5.492   5.108   1.303
54736SOL    HW266042   5.377   5.019   1.347
54737SOL     OW66043   8.968   8.370  13.231
54737SOL    HW166044   8.885   8.417  13.225
54737SOL    HW266045   8.975   8.321  13.149
54738SOL     OW66046  12.053   2.584   2.821
54738SOL    HW166047  12.129   2.591   2.878
54738SOL    HW266048  12.086   2.604   2.734
54739SOL     OW66049  12.233   8.297  12.897
54739SOL    HW166050  12.189   8.293  12.982
54739SOL    HW266051  12.314   8.248  12.908
54740SOL     OW66052   2.821   4.804   1.611
54740SOL    HW166053   2.747   4.822   1.669
54740SOL    HW266054   2.888   4.867   1.638
54741SOL     OW66055  12.330  13.508   2.977
54741SOL    HW166056  12.419  13.473   2.971
54741SOL    HW266057  12.286  13.474   2.899
54742SOL     OW66058   2.290   7.377   4.440
54742SOL    HW166059   2.321   7.301   4.490
54742SOL    HW266060   2.206   7.399   4.479
54743SOL     OW66061  10.536   0.269   9.242
54743SOL    HW166062  10.571   0.181   9.259
54743SOL    HW266063  10.544   0.279   9.147
54744SOL     OW66064  10.938   8.886   3.430
54744SOL    HW166065  10.932   8.836   3.512
54744SOL    HW266066  11.023   8.931   3.436
54745SOL     OW66067   4.998   9.316   4.293
54745SOL    HW166068   4.955   9.242   4.251
54745SOL    HW266069   5.089   9.311   4.264
54746SOL     OW66070   3.442   2.051   2.775
54746SOL    HW166071   3.396   1.969   2.791
54746SOL    HW266072   3.373   2.113   2.751
54747SOL     OW66073   9.535   9.399  14.854
54747SOL    HW166074   9.468   9.444   0.033
54747SOL    HW266075   9.508   9.414  14.763
54748SOL     OW66076   4.592   7.860  13.190
54748SOL    HW166077   4.633   7.815  13.117
54748SOL    HW266078   4.519   7.908  13.151
54749SOL     OW66079   7.915   9.141  10.619
54749SOL    HW166080   7.974   9.208  10.585
54749SOL    HW266081   7.846   9.133  10.553
54750SOL     OW66082   7.396   4.253   7.659
54750SOL    HW166083   7.386   4.251   7.754
54750SOL    HW266084   7.462   4.185   7.641
54751SOL     OW66085   0.614   5.384   5.945
54751SOL    HW166086   0.625   5.318   6.014
54751SOL    HW266087   0.657   5.347   5.869
54752SOL     OW66088   2.041   0.982   7.198
54752SOL    HW166089   2.021   0.934   7.118
54752SOL    HW266090   2.135   1.003   7.191
54753SOL     OW66091   5.291  13.858   0.780
54753SOL    HW166092   5.271  13.854   0.873
54753SOL    HW266093   5.214  13.900   0.741
54754SOL     OW66094   7.489   9.907  10.926
54754SOL    HW166095   7.421   9.927  10.862
54754SOL    HW266096   7.539   9.836  10.886
54755SOL     OW66097  10.292  10.308  10.311
54755SOL    HW166098  10.231  10.375  10.281
54755SOL    HW266099  10.345  10.352  10.377
54756SOL     OW66100  11.147   3.752   9.471
54756SOL    HW166101  11.157   3.833   9.420
54756SOL    HW266102  11.213   3.760   9.540
54757SOL     OW66103  11.448   7.680   5.900
54757SOL    HW166104  11.354   7.661   5.894
54757SOL    HW266105  11.474   7.696   5.809
54758SOL     OW66106   2.122  10.806  12.936
54758SOL    HW166107   2.115  10.720  12.977
54758SOL    HW266108   2.076  10.865  12.995
54759SOL     OW66109  11.249   3.795   8.267
54759SOL    HW166110  11.225   3.731   8.201
54759SOL    HW266111  11.230   3.880   8.227
54760SOL     OW66112   0.016   1.047   6.169
54760SOL    HW166113   0.010   1.125   6.225
54760SOL    HW266114   0.049   0.979   6.227
54761SOL     OW66115  10.022  11.497   0.682
54761SOL    HW166116  10.003  11.591   0.685
54761SOL    HW266117  10.117  11.492   0.695
54762SOL     OW66118   2.181  10.029   1.909
54762SOL    HW166119   2.210   9.940   1.929
54762SOL    HW266120   2.119  10.051   1.978
54763SOL     OW66121   3.800   8.570  14.745
54763SOL    HW166122   3.763   8.505  14.685
54763SOL    HW266123   3.794   8.529  14.832
54764SOL     OW66124   5.045  14.006   2.554
54764SOL    HW166125   5.104  13.950   2.503
54764SOL    HW266126   4.979  14.035   2.491
54765SOL     OW66127  12.499   7.744   3.951
54765SOL    HW166128  12.573   7.802   3.969
54765SOL    HW266129  12.435   7.765   4.019
54766SOL     OW66130  10.747   0.004   9.633
54766SOL    HW166131  10.664  14.841   9.600
54766SOL    HW266132  10.723   0.087   9.673
54767SOL     OW66133  13.564   6.674  14.615
54767SOL    HW166134  13.484   6.639  14.577
54767SOL    HW266135  13.560   6.648  14.707
54768SOL     OW66136  12.152   9.447  14.775
54768SOL    HW166137  12.151   9.378  14.841
54768SOL    HW266138  12.162   9.400  14.692
54769SOL     OW66139   7.914  14.427   5.362
54769SOL    HW166140   7.894  14.413   5.270
54769SOL    HW266141   7.891  14.519   5.378
54770SOL     OW66142   7.906   8.635   9.542
54770SOL    HW166143   7.928   8.688   9.619
54770SOL    HW266144   7.875   8.553   9.578
54771SOL     OW66145  10.947  12.386   4.065
54771SOL    HW166146  10.885  12.415   3.998
54771SOL    HW266147  10.957  12.461   4.123
54772SOL     OW66148  11.849  11.346   0.943
54772SOL    HW166149  11.916  11.309   1.002
54772SOL    HW266150  11.831  11.275   0.881
54773SOL     OW66151   8.320   7.717   7.452
54773SOL    HW166152   8.318   7.805   7.491
54773SOL    HW266153   8.286   7.730   7.363
54774SOL     OW66154   2.615   1.808   3.314
54774SOL    HW166155   2.644   1.821   3.405
54774SOL    HW266156   2.632   1.715   3.297
54775SOL     OW66157   3.569   6.097  11.493
54775SOL    HW166158   3.608   6.161  11.433
54775SOL    HW266159   3.558   6.145  11.575
54776SOL     OW66160  11.751   0.692  13.541
54776SOL    HW166161  11.833   0.643  13.537
54776SOL    HW266162  11.762   0.762  13.476
54777SOL     OW66163   2.588   0.639   9.721
54777SOL    HW166164   2.617   0.567   9.665
54777SOL    HW266165   2.661   0.654   9.781
54778SOL     OW66166   1.642  10.226  10.491
54778SOL    HW166167   1.624  10.312  10.528
54778SOL    HW266168   1.608  10.231  10.401
54779SOL     OW66169  10.031   1.251   0.670
54779SOL    HW166170  10.125   1.260   0.659
54779SOL    HW266171  10.009   1.171   0.623
54780SOL     OW66172  10.684   6.675   9.700
54780SOL    HW166173  10.655   6.720   9.622
54780SOL    HW266174  10.735   6.601   9.668
54781SOL     OW66175   2.587  14.040   2.924
54781SOL    HW166176   2.574  13.949   2.951
54781SOL    HW266177   2.628  14.033   2.837
54782SOL     OW66178  10.927   4.911  13.742
54782SOL    HW166179  10.945   4.873  13.656
54782SOL    HW266180  10.936   4.837  13.803
54783SOL     OW66181  12.529   5.095   9.629
54783SOL    HW166182  12.580   5.154   9.573
54783SOL    HW266183  12.442   5.093   9.589
54784SOL     OW66184  10.104   2.973   3.488
54784SOL    HW166185  10.087   3.016   3.572
54784SOL    HW266186  10.077   2.882   3.502
54785SOL     OW66187  10.675   2.373   0.639
54785SOL    HW166188  10.662   2.278   0.649
54785SOL    HW266189  10.591   2.405   0.608
54786SOL     OW66190   1.777   0.827   6.287
54786SOL    HW166191   1.777   0.920   6.266
54786SOL    HW266192   1.703   0.791   6.238
54787SOL     OW66193  13.202   8.092   7.622
54787SOL    HW166194  13.183   8.081   7.715
54787SOL    HW266195  13.260   8.019   7.601
54788SOL     OW66196  10.378   5.404   2.936
54788SOL    HW166197  10.432   5.333   2.902
54788SOL    HW266198  10.401   5.409   3.029
54789SOL     OW66199   0.193   9.914   7.438
54789SOL    HW166200   0.178  10.006   7.417
54789SOL    HW266201   0.232   9.878   7.358
54790SOL     OW66202   9.686  11.910  10.894
54790SOL    HW166203   9.746  11.837  10.881
54790SOL    HW266204   9.641  11.892  10.976
54791SOL     OW66205  12.953   1.201  14.671
54791SOL    HW166206  12.943   1.129  14.609
54791SOL    HW266207  13.009   1.264  14.625
54792SOL     OW66208   9.469  13.417   7.730
54792SOL    HW166209   9.513  13.373   7.803
54792SOL    HW266210   9.455  13.506   7.761
54793SOL     OW66211   2.258  11.900  12.483
54793SOL    HW166212   2.282  11.896  12.391
54793SOL    HW266213   2.340  11.882  12.530
54794SOL     OW66214   9.662  12.153  12.384
54794SOL    HW166215   9.637  12.211  12.456
54794SOL    HW266216   9.589  12.156  12.323
54795SOL     OW66217   2.951  14.657   7.987
54795SOL    HW166218   2.920  14.599   8.056
54795SOL    HW266219   3.032  14.618   7.956
54796SOL     OW66220   4.408   5.505   0.745
54796SOL    HW166221   4.461   5.584   0.754
54796SOL    HW266222   4.371   5.511   0.657
54797SOL     OW66223   6.008   9.123   2.739
54797SOL    HW166224   5.917   9.136   2.764
54797SOL    HW266225   6.036   9.208   2.703
54798SOL     OW66226   5.653   8.318   7.627
54798SOL    HW166227   5.632   8.230   7.596
54798SOL    HW266228   5.588   8.337   7.694
54799SOL     OW66229   7.062   2.338  14.029
54799SOL    HW166230   7.013   2.412  14.066
54799SOL    HW266231   6.995   2.286  13.983
54800SOL     OW66232   9.364   1.345  11.266
54800SOL    HW166233   9.387   1.253  11.257
54800SOL    HW266234   9.343   1.374  11.177
54801SOL     OW66235  14.432  13.713   2.194
54801SOL    HW166236  14.394  13.696   2.108
54801SOL    HW266237  14.480  13.633   2.216
54802SOL     OW66238   8.196  11.895   2.562
54802SOL    HW166239   8.175  11.902   2.655
54802SOL    HW266240   8.291  11.905   2.558
54803SOL     OW66241  12.266   5.211  12.485
54803SOL    HW166242  12.177   5.220  12.451
54803SOL    HW266243  12.258   5.154  12.561
54804SOL     OW66244  10.704   0.945  11.954
54804SOL    HW166245  10.769   0.907  12.013
54804SOL    HW266246  10.659   0.870  11.916
54805SOL     OW66247   9.838   6.788  13.967
54805SOL    HW166248   9.831   6.790  14.063
54805SOL    HW266249   9.887   6.867  13.945
54806SOL     OW66250   5.391  14.710   3.178
54806SOL    HW166251   5.387  14.754   3.263
54806SOL    HW266252   5.452  14.763   3.127
54807SOL     OW66253  13.732  13.808   5.956
54807SOL    HW166254  13.742  13.738   5.892
54807SOL    HW266255  13.818  13.818   5.995
54808SOL     OW66256  11.111  11.442   7.753
54808SOL    HW166257  11.175  11.479   7.813
54808SOL    HW266258  11.156  11.368   7.712
54809SOL     OW66259  13.883   6.579  14.809
54809SOL    HW166260  13.928   6.515  14.864
54809SOL    HW266261  13.833   6.526  14.746
54810SOL     OW66262   8.006   7.144  12.821
54810SOL    HW166263   8.051   7.121  12.740
54810SOL    HW266264   8.072   7.191  12.873
54811SOL     OW66265  13.804  10.899   5.052
54811SOL    HW166266  13.714  10.925   5.032
54811SOL    HW266267  13.805  10.888   5.147
54812SOL     OW66268  12.912   7.475   3.559
54812SOL    HW166269  12.872   7.477   3.472
54812SOL    HW266270  13.005   7.462   3.541
54813SOL     OW66271   8.662   7.475   5.614
54813SOL    HW166272   8.682   7.381   5.621
54813SOL    HW266273   8.618   7.484   5.530
54814SOL     OW66274   4.774   0.079   7.807
54814SOL    HW166275   4.798   0.059   7.897
54814SOL    HW266276   4.843   0.140   7.777
54815SOL     OW66277  14.866   1.142  14.417
54815SOL    HW166278   0.050   1.125  14.343
54815SOL    HW266279  14.784   1.097  14.395
54816SOL     OW66280   8.139   8.614   3.767
54816SOL    HW166281   8.126   8.709   3.758
54816SOL    HW266282   8.219   8.596   3.718
54817SOL     OW66283  13.600   2.375  12.377
54817SOL    HW166284  13.628   2.457  12.335
54817SOL    HW266285  13.676   2.317  12.368
54818SOL     OW66286  12.745   8.467   3.691
54818SOL    HW166287  12.729   8.386   3.740
54818SOL    HW266288  12.825   8.502   3.728
54819SOL     OW66289   8.939  13.054   6.324
54819SOL    HW166290   8.971  12.972   6.360
54819SOL    HW266291   9.018  13.101   6.297
54820SOL     OW66292  14.130  11.424   4.516
54820SOL    HW166293  14.059  11.481   4.487
54820SOL    HW266294  14.188  11.481   4.566
54821SOL     OW66295   5.771   9.091  13.476
54821SOL    HW166296   5.678   9.112  13.475
54821SOL    HW266297   5.774   8.995  13.474
54822SOL     OW66298   9.810   9.596   5.833
54822SOL    HW166299   9.883   9.634   5.784
54822SOL    HW266300   9.845   9.516   5.871
54823SOL     OW66301  12.221  12.919  10.417
54823SOL    HW166302  12.171  12.882  10.490
54823SOL    HW266303  12.199  12.863  10.342
54824SOL     OW66304   0.764   0.812   0.304
54824SOL    HW166305   0.764   0.761   0.223
54824SOL    HW266306   0.766   0.903   0.274
54825SOL     OW66307  14.016   2.783  10.092
54825SOL    HW166308  14.054   2.760  10.007
54825SOL    HW266309  13.928   2.813  10.071
54826SOL     OW66310  14.583  13.965  11.616
54826SOL    HW166311  14.621  13.886  11.654
54826SOL    HW266312  14.638  13.985  11.541
54827SOL     OW66313  13.870  12.994   4.416
54827SOL    HW166314  13.885  13.067   4.476
54827SOL    HW266315  13.811  12.936   4.465
54828SOL     OW66316   2.111   7.072  12.497
54828SOL    HW166317   2.043   7.116  12.446
54828SOL    HW266318   2.074   6.986  12.518
54829SOL     OW66319   7.808   2.661   1.427
54829SOL    HW166320   7.876   2.600   1.398
54829SOL    HW266321   7.848   2.747   1.420
54830SOL     OW66322   6.909   8.747   6.433
54830SOL    HW166323   6.967   8.686   6.479
54830SOL    HW266324   6.847   8.691   6.387
54831SOL     OW66325   8.406  11.963   5.906
54831SOL    HW166326   8.423  12.003   5.992
54831SOL    HW266327   8.439  11.874   5.914
54832SOL     OW66328   4.326  11.713   5.754
54832SOL    HW166329   4.350  11.794   5.709
54832SOL    HW266330   4.390  11.649   5.723
54833SOL     OW66331   2.047   1.951   9.048
54833SOL    HW166332   2.048   1.918   8.959
54833SOL    HW266333   1.960   1.929   9.082
54834SOL     OW66334  12.213   0.715   0.549
54834SOL    HW166335  12.197   0.644   0.610
54834SOL    HW266336  12.128   0.758   0.538
54835SOL     OW66337  14.244   2.719  14.264
54835SOL    HW166338  14.295   2.796  14.239
54835SOL    HW266339  14.293   2.680  14.336
54836SOL     OW66340   8.384   5.922  13.964
54836SOL    HW166341   8.444   5.848  13.975
54836SOL    HW266342   8.342   5.932  14.049
54837SOL     OW66343   1.142   4.578  10.437
54837SOL    HW166344   1.105   4.598  10.351
54837SOL    HW266345   1.180   4.661  10.466
54838SOL     OW66346   8.174   8.043  12.050
54838SOL    HW166347   8.109   8.007  11.989
54838SOL    HW266348   8.246   8.073  11.994
54839SOL     OW66349   9.206  10.142  13.527
54839SOL    HW166350   9.117  10.155  13.494
54839SOL    HW266351   9.243  10.230  13.529
54840SOL     OW66352   9.085   1.780   8.077
54840SOL    HW166353   9.008   1.773   8.134
54840SOL    HW266354   9.094   1.693   8.038
54841SOL     OW66355   7.769   5.499  14.760
54841SOL    HW166356   7.746   5.448  14.682
54841SOL    HW266357   7.833   5.443  14.806
54842SOL     OW66358  11.510  13.815  14.686
54842SOL    HW166359  11.445  13.762  14.732
54842SOL    HW266360  11.591  13.802  14.734
54843SOL     OW66361   7.463   9.898   9.757
54843SOL    HW166362   7.420   9.957   9.819
54843SOL    HW266363   7.400   9.827   9.743
54844SOL     OW66364  13.425  10.077   3.803
54844SOL    HW166365  13.430  10.023   3.883
54844SOL    HW266366  13.508  10.123   3.799
54845SOL     OW66367  10.468  13.862   6.467
54845SOL    HW166368  10.451  13.950   6.435
54845SOL    HW266369  10.429  13.860   6.555
54846SOL     OW66370  11.969  14.320  14.354
54846SOL    HW166371  11.949  14.309  14.261
54846SOL    HW266372  11.906  14.264  14.399
54847SOL     OW66373   1.715  13.928   5.261
54847SOL    HW166374   1.702  14.013   5.219
54847SOL    HW266375   1.629  13.906   5.297
54848SOL     OW66376  12.234  12.372   1.772
54848SOL    HW166377  12.202  12.445   1.720
54848SOL    HW266378  12.307  12.337   1.720
54849SOL     OW66379   4.817   0.803  10.904
54849SOL    HW166380   4.835   0.729  10.962
54849SOL    HW266381   4.896   0.811  10.850
54850SOL     OW66382   3.733  14.554  11.281
54850SOL    HW166383   3.735  14.508  11.197
54850SOL    HW266384   3.641  14.578  11.293
54851SOL     OW66385   4.328  12.673   8.795
54851SOL    HW166386   4.265  12.699   8.862
54851SOL    HW266387   4.321  12.740   8.727
54852SOL     OW66388   3.164   4.869   4.381
54852SOL    HW166389   3.074   4.894   4.358
54852SOL    HW266390   3.184   4.920   4.459
54853SOL     OW66391  11.312   9.925  13.289
54853SOL    HW166392  11.301   9.847  13.234
54853SOL    HW266393  11.295   9.998  13.230
54854SOL     OW66394   7.484   5.231   6.886
54854SOL    HW166395   7.496   5.203   6.795
54854SOL    HW266396   7.568   5.268   6.910
54855SOL     OW66397   8.368   3.815   5.999
54855SOL    HW166398   8.290   3.870   6.013
54855SOL    HW266399   8.350   3.736   6.050
54856SOL     OW66400  11.819  13.974   3.874
54856SOL    HW166401  11.899  13.984   3.926
54856SOL    HW266402  11.764  14.048   3.899
54857SOL     OW66403   5.566   8.003   4.546
54857SOL    HW166404   5.491   7.950   4.519
54857SOL    HW266405   5.564   8.000   4.641
54858SOL     OW66406   4.683  10.092   2.095
54858SOL    HW166407   4.659  10.175   2.053
54858SOL    HW266408   4.697  10.115   2.187
54859SOL     OW66409   5.457   4.255  13.294
54859SOL    HW166410   5.457   4.159  13.294
54859SOL    HW266411   5.383   4.279  13.351
54860SOL     OW66412  11.423   5.826  14.575
54860SOL    HW166413  11.403   5.787  14.490
54860SOL    HW266414  11.515   5.805  14.591
54861SOL     OW66415  13.552   2.898   9.794
54861SOL    HW166416  13.519   2.981   9.758
54861SOL    HW266417  13.523   2.832   9.731
54862SOL     OW66418  11.352   0.328   1.400
54862SOL    HW166419  11.394   0.414   1.399
54862SOL    HW266420  11.386   0.284   1.322
54863SOL     OW66421   5.400  13.112  14.067
54863SOL    HW166422   5.414  13.052  13.994
54863SOL    HW266423   5.305  13.112  14.080
54864SOL     OW66424   9.174  11.669   0.355
54864SOL    HW166425   9.198  11.611   0.427
54864SOL    HW266426   9.228  11.640   0.281
54865SOL     OW66427   9.986  12.542   4.428
54865SOL    HW166428  10.016  12.619   4.476
54865SOL    HW266429   9.896  12.529   4.458
54866SOL     OW66430   7.212  12.051  12.367
54866SOL    HW166431   7.227  11.974  12.421
54866SOL    HW266432   7.146  12.101  12.415
54867SOL     OW66433   3.043  12.810   1.392
54867SOL    HW166434   2.949  12.799   1.409
54867SOL    HW266435   3.058  12.904   1.403
54868SOL     OW66436  12.640   4.785  10.215
54868SOL    HW166437  12.604   4.844  10.149
54868SOL    HW266438  12.705   4.838  10.261
54869SOL     OW66439  11.604   6.463  14.670
54869SOL    HW166440  11.672   6.409  14.710
54869SOL    HW266441  11.651   6.538  14.634
54870SOL     OW66442  13.455   2.040   0.268
54870SOL    HW166443  13.371   2.058   0.226
54870SOL    HW266444  13.434   1.979   0.339
54871SOL     OW66445  12.412   3.272  11.967
54871SOL    HW166446  12.415   3.228  12.052
54871SOL    HW266447  12.483   3.337  11.972
54872SOL     OW66448   9.858   8.338   2.515
54872SOL    HW166449   9.930   8.325   2.577
54872SOL    HW266450   9.790   8.278   2.546
54873SOL     OW66451   5.648  12.505  12.081
54873SOL    HW166452   5.618  12.576  12.024
54873SOL    HW266453   5.698  12.550  12.150
54874SOL     OW66454   7.348   1.829  10.323
54874SOL    HW166455   7.262   1.808  10.360
54874SOL    HW266456   7.372   1.911  10.366
54875SOL     OW66457  12.506   5.837   6.196
54875SOL    HW166458  12.571   5.821   6.264
54875SOL    HW266459  12.474   5.749   6.173
54876SOL     OW66460  11.173   8.930   4.369
54876SOL    HW166461  11.121   9.010   4.377
54876SOL    HW266462  11.187   8.901   4.459
54877SOL     OW66463   2.885   9.797  14.718
54877SOL    HW166464   2.972   9.795  14.758
54877SOL    HW266465   2.855   9.707  14.721
54878SOL     OW66466  13.060   3.647   5.756
54878SOL    HW166467  13.098   3.666   5.671
54878SOL    HW266468  12.981   3.597   5.736
54879SOL     OW66469   9.036   9.678   3.564
54879SOL    HW166470   8.985   9.625   3.625
54879SOL    HW266471   8.999   9.657   3.478
54880SOL     OW66472  11.572   6.175   1.716
54880SOL    HW166473  11.507   6.224   1.765
54880SOL    HW266474  11.654   6.221   1.733
54881SOL     OW66475  12.524   0.337   3.998
54881SOL    HW166476  12.497   0.382   3.918
54881SOL    HW266477  12.454   0.356   4.060
54882SOL     OW66478  12.359   0.951   4.586
54882SOL    HW166479  12.445   0.993   4.593
54882SOL    HW266480  12.302   1.004   4.642
54883SOL     OW66481   0.907   3.388   9.797
54883SOL    HW166482   0.867   3.301   9.799
54883SOL    HW266483   0.950   3.392   9.711
54884SOL     OW66484  12.530  12.490  14.377
54884SOL    HW166485  12.624  12.476  14.368
54884SOL    HW266486  12.521  12.541  14.457
54885SOL     OW66487   5.676   6.740   6.846
54885SOL    HW166488   5.750   6.750   6.786
54885SOL    HW266489   5.716   6.727   6.932
54886SOL     OW66490  12.195   3.673  13.693
54886SOL    HW166491  12.160   3.615  13.625
54886SOL    HW266492  12.270   3.715  13.652
54887SOL     OW66493  10.894   5.531   5.478
54887SOL    HW166494  10.933   5.482   5.550
54887SOL    HW266495  10.892   5.469   5.405
54888SOL     OW66496   3.330   5.095  11.373
54888SOL    HW166497   3.317   5.038  11.296
54888SOL    HW266498   3.288   5.177  11.349
54889SOL     OW66499  10.178   2.644   3.371
54889SOL    HW166500  10.103   2.667   3.427
54889SOL    HW266501  10.200   2.554   3.397
54890SOL     OW66502   5.923   7.925   4.003
54890SOL    HW166503   5.890   7.892   3.919
54890SOL    HW266504   5.888   8.014   4.009
54891SOL     OW66505  10.236   9.101   6.945
54891SOL    HW166506  10.328   9.093   6.919
54891SOL    HW266507  10.188   9.108   6.862
54892SOL     OW66508   4.275   4.600   3.591
54892SOL    HW166509   4.208   4.588   3.524
54892SOL    HW266510   4.233   4.658   3.655
54893SOL     OW66511   2.424   1.188  13.976
54893SOL    HW166512   2.466   1.262  14.021
54893SOL    HW266513   2.399   1.223  13.891
54894SOL     OW66514   6.945   2.655   8.689
54894SOL    HW166515   6.885   2.725   8.665
54894SOL    HW266516   6.911   2.621   8.772
54895SOL     OW66517  14.393   9.128   0.428
54895SOL    HW166518  14.470   9.172   0.392
54895SOL    HW266519  14.319   9.171   0.386
54896SOL     OW66520   8.175  13.709   5.853
54896SOL    HW166521   8.205  13.782   5.800
54896SOL    HW266522   8.095  13.740   5.894
54897SOL     OW66523  12.303   4.555   9.624
54897SOL    HW166524  12.209   4.542   9.631
54897SOL    HW266525  12.319   4.638   9.670
54898SOL     OW66526   5.132  10.435   1.484
54898SOL    HW166527   5.045  10.396   1.482
54898SOL    HW266528   5.173  10.399   1.562
54899SOL     OW66529   1.649  13.074   3.394
54899SOL    HW166530   1.553  13.072   3.400
54899SOL    HW266531   1.674  12.984   3.376
54900SOL     OW66532   9.561   1.431   5.989
54900SOL    HW166533   9.648   1.438   6.028
54900SOL    HW266534   9.572   1.464   5.900
54901SOL     OW66535   4.058   4.812   2.408
54901SOL    HW166536   4.008   4.861   2.342
54901SOL    HW266537   4.014   4.831   2.491
54902SOL     OW66538   6.772  12.048   6.601
54902SOL    HW166539   6.716  12.055   6.678
54902SOL    HW266540   6.744  12.120   6.544
54903SOL     OW66541   8.893   6.999   7.880
54903SOL    HW166542   8.874   6.906   7.869
54903SOL    HW266543   8.902   7.010   7.974
54904SOL     OW66544   1.348  14.340   5.918
54904SOL    HW166545   1.374  14.343   6.010
54904SOL    HW266546   1.379  14.423   5.881
54905SOL     OW66547   5.745   5.181  13.004
54905SOL    HW166548   5.659   5.222  13.007
54905SOL    HW266549   5.795   5.222  13.074
54906SOL     OW66550  13.170   5.889   2.698
54906SOL    HW166551  13.186   5.982   2.715
54906SOL    HW266552  13.127   5.887   2.612
54907SOL     OW66553   0.836   6.343   6.030
54907SOL    HW166554   0.897   6.325   6.101
54907SOL    HW266555   0.868   6.425   5.992
54908SOL     OW66556  13.226  10.135   2.916
54908SOL    HW166557  13.236  10.113   3.009
54908SOL    HW266558  13.230  10.050   2.871
54909SOL     OW66559  14.630   0.861  12.863
54909SOL    HW166560  14.628   0.949  12.825
54909SOL    HW266561  14.688   0.868  12.938
54910SOL     OW66562   4.951   8.320   1.155
54910SOL    HW166563   4.944   8.410   1.123
54910SOL    HW266564   5.038   8.316   1.195
54911SOL     OW66565  14.194   6.721   3.015
54911SOL    HW166566  14.196   6.631   3.046
54911SOL    HW266567  14.286   6.745   3.007
54912SOL     OW66568  11.553   0.568   8.250
54912SOL    HW166569  11.462   0.538   8.245
54912SOL    HW266570  11.604   0.487   8.260
54913SOL     OW66571  10.147   7.050   5.421
54913SOL    HW166572  10.235   7.062   5.387
54913SOL    HW266573  10.139   7.114   5.492
54914SOL     OW66574   9.163   4.268   1.823
54914SOL    HW166575   9.254   4.293   1.837
54914SOL    HW266576   9.124   4.342   1.776
54915SOL     OW66577   5.406   0.516  11.024
54915SOL    HW166578   5.382   0.604  10.993
54915SOL    HW266579   5.502   0.514  11.016
54916SOL     OW66580  13.240  12.414   4.962
54916SOL    HW166581  13.229  12.413   4.867
54916SOL    HW266582  13.169  12.359   4.995
54917SOL     OW66583   6.891   3.078  10.734
54917SOL    HW166584   6.801   3.047  10.747
54917SOL    HW266585   6.946   3.005  10.760
54918SOL     OW66586  10.426   4.907   7.547
54918SOL    HW166587  10.410   4.817   7.520
54918SOL    HW266588  10.397   4.909   7.639
54919SOL     OW66589   9.435   1.604   0.913
54919SOL    HW166590   9.447   1.549   0.835
54919SOL    HW266591   9.410   1.690   0.878
54920SOL     OW66592   2.388  13.338   6.938
54920SOL    HW166593   2.446  13.378   6.873
54920SOL    HW266594   2.327  13.286   6.886
54921SOL     OW66595   3.059   7.697  12.881
54921SOL    HW166596   3.122   7.635  12.917
54921SOL    HW266597   3.027   7.746  12.957
54922SOL     OW66598   7.230   4.728   3.214
54922SOL    HW166599   7.318   4.720   3.177
54922SOL    HW266600   7.182   4.782   3.151
54923SOL     OW66601   6.873  10.724   2.717
54923SOL    HW166602   6.787  10.766   2.723
54923SOL    HW266603   6.934  10.788   2.754
54924SOL     OW66604  12.570   4.858   0.919
54924SOL    HW166605  12.606   4.937   0.958
54924SOL    HW266606  12.644   4.797   0.914
54925SOL     OW66607  14.170   6.842   9.020
54925SOL    HW166608  14.105   6.888   8.967
54925SOL    HW266609  14.145   6.750   9.015
54926SOL     OW66610   8.850   8.107  10.089
54926SOL    HW166611   8.876   8.199  10.082
54926SOL    HW266612   8.796   8.092  10.012
54927SOL     OW66613   0.277  11.750   0.733
54927SOL    HW166614   0.365  11.785   0.745
54927SOL    HW266615   0.288  11.680   0.668
54928SOL     OW66616   3.786  10.784   9.778
54928SOL    HW166617   3.864  10.741   9.741
54928SOL    HW266618   3.772  10.739   9.862
54929SOL     OW66619   0.822   0.535   4.731
54929SOL    HW166620   0.867   0.450   4.731
54929SOL    HW266621   0.742   0.519   4.680
54930SOL     OW66622   1.323   2.298   9.220
54930SOL    HW166623   1.397   2.316   9.277
54930SOL    HW266624   1.258   2.365   9.243
54931SOL     OW66625   4.407  14.819   4.898
54931SOL    HW166626   4.387  14.730   4.929
54931SOL    HW266627   4.348   0.003   4.947
54932SOL     OW66628  11.487  12.316   8.621
54932SOL    HW166629  11.457  12.297   8.710
54932SOL    HW266630  11.408  12.344   8.574
54933SOL     OW66631   6.881   7.239  13.283
54933SOL    HW166632   6.939   7.207  13.214
54933SOL    HW266633   6.927   7.314  13.320
54934SOL     OW66634  13.497   5.578  13.869
54934SOL    HW166635  13.575   5.606  13.822
54934SOL    HW266636  13.505   5.618  13.956
54935SOL     OW66637  11.568   5.300  10.614
54935SOL    HW166638  11.588   5.209  10.593
54935SOL    HW266639  11.649   5.336  10.650
54936SOL     OW66640  10.694   8.913  13.564
54936SOL    HW166641  10.735   8.828  13.547
54936SOL    HW266642  10.604   8.903  13.534
54937SOL     OW66643  10.057  10.015  10.210
54937SOL    HW166644  10.010  10.032  10.292
54937SOL    HW266645   9.991   9.977  10.152
54938SOL     OW66646   6.320   1.641  12.701
54938SOL    HW166647   6.294   1.733  12.708
54938SOL    HW266648   6.402   1.643  12.651
54939SOL     OW66649  12.192  11.564  13.139
54939SOL    HW166650  12.108  11.522  13.123
54939SOL    HW266651  12.209  11.547  13.232
54940SOL     OW66652   0.825  12.701   2.121
54940SOL    HW166653   0.874  12.762   2.066
54940SOL    HW266654   0.829  12.617   2.075
54941SOL     OW66655   9.490  14.499   2.638
54941SOL    HW166656   9.458  14.479   2.550
54941SOL    HW266657   9.506  14.414   2.678
54942SOL     OW66658   5.014   7.729   5.109
54942SOL    HW166659   5.037   7.720   5.201
54942SOL    HW266660   5.070   7.800   5.077
54943SOL     OW66661   7.662   6.779   7.191
54943SOL    HW166662   7.568   6.784   7.174
54943SOL    HW266663   7.703   6.793   7.105
54944SOL     OW66664   0.669   0.183   3.670
54944SOL    HW166665   0.760   0.212   3.663
54944SOL    HW266666   0.623   0.258   3.706
54945SOL     OW66667  11.557   8.140  12.158
54945SOL    HW166668  11.572   8.093  12.240
54945SOL    HW266669  11.645   8.155  12.122
54946SOL     OW66670  12.223  11.179   0.711
54946SOL    HW166671  12.308  11.190   0.669
54946SOL    HW266672  12.191  11.269   0.724
54947SOL     OW66673  11.682  11.790   2.302
54947SOL    HW166674  11.606  11.847   2.293
54947SOL    HW266675  11.740  11.836   2.362
54948SOL     OW66676   5.557  13.271   7.006
54948SOL    HW166677   5.567  13.208   7.077
54948SOL    HW266678   5.629  13.333   7.018
54949SOL     OW66679   2.550   5.651   4.148
54949SOL    HW166680   2.518   5.562   4.134
54949SOL    HW266681   2.644   5.641   4.164
54950SOL     OW66682   3.075   1.082   8.498
54950SOL    HW166683   3.051   1.053   8.586
54950SOL    HW266684   3.111   1.004   8.455
54951SOL     OW66685   6.033   6.235  10.485
54951SOL    HW166686   5.973   6.168  10.451
54951SOL    HW266687   5.986   6.275  10.557
54952SOL     OW66688   8.089   0.562   8.389
54952SOL    HW166689   8.119   0.536   8.302
54952SOL    HW266690   7.994   0.573   8.380
54953SOL     OW66691   3.778   2.488   8.759
54953SOL    HW166692   3.716   2.445   8.700
54953SOL    HW266693   3.780   2.579   8.729
54954SOL     OW66694  10.207   1.203   4.272
54954SOL    HW166695  10.135   1.213   4.334
54954SOL    HW266696  10.223   1.108   4.269
54955SOL     OW66697   2.801  13.907   9.536
54955SOL    HW166698   2.765  13.847   9.600
54955SOL    HW266699   2.873  13.951   9.581
54956SOL     OW66700  12.090  10.239   5.126
54956SOL    HW166701  12.087  10.145   5.110
54956SOL    HW266702  12.003  10.262   5.158
54957SOL     OW66703   9.541  11.944   5.908
54957SOL    HW166704   9.531  12.008   5.979
54957SOL    HW266705   9.632  11.952   5.880
54958SOL     OW66706  12.266   0.049   7.566
54958SOL    HW166707  12.238  14.837   7.532
54958SOL    HW266708  12.197   0.074   7.627
54959SOL     OW66709   9.856  12.776   6.061
54959SOL    HW166710   9.841  12.794   6.154
54959SOL    HW266711   9.944  12.738   6.058
54960SOL     OW66712  10.466  14.853  13.746
54960SOL    HW166713  10.381  14.857  13.702
54960SOL    HW266714  10.444  14.855  13.840
54961SOL     OW66715   7.728   4.917  14.759
54961SOL    HW166716   7.789   4.985  14.729
54961SOL    HW266717   7.758   4.895  14.847
54962SOL     OW66718   3.555   1.750   9.272
54962SOL    HW166719   3.517   1.666   9.298
54962SOL    HW266720   3.649   1.737   9.278
54963SOL     OW66721   6.018  12.914   2.645
54963SOL    HW166722   6.112  12.929   2.651
54963SOL    HW266723   5.978  12.989   2.689
54964SOL     OW66724   9.322  12.340   1.965
54964SOL    HW166725   9.417  12.345   1.955
54964SOL    HW266726   9.290  12.310   1.880
54965SOL     OW66727  11.946   4.291  10.375
54965SOL    HW166728  12.036   4.315  10.354
54965SOL    HW266729  11.954   4.239  10.455
54966SOL     OW66730   4.453  10.376   4.642
54966SOL    HW166731   4.476  10.352   4.732
54966SOL    HW266732   4.357  10.373   4.640
54967SOL     OW66733   4.109   3.117   8.282
54967SOL    HW166734   4.092   3.058   8.355
54967SOL    HW266735   4.127   3.059   8.208
54968SOL     OW66736   9.900   2.895  14.028
54968SOL    HW166737   9.857   2.916  13.945
54968SOL    HW266738   9.886   2.800  14.039
54969SOL     OW66739   0.884  13.127   6.061
54969SOL    HW166740   0.965  13.110   6.110
54969SOL    HW266741   0.911  13.121   5.969
54970SOL     OW66742   9.145  10.901   1.981
54970SOL    HW166743   9.152  10.994   2.003
54970SOL    HW266744   9.227  10.881   1.937
54971SOL     OW66745   7.536   8.119   3.933
54971SOL    HW166746   7.552   8.145   3.842
54971SOL    HW266747   7.539   8.024   3.931
54972SOL     OW66748   1.083  12.066  11.009
54972SOL    HW166749   1.016  12.020  11.060
54972SOL    HW266750   1.112  12.138  11.066
54973SOL     OW66751   4.491   6.751  14.678
54973SOL    HW166752   4.410   6.706  14.702
54973SOL    HW266753   4.491   6.752  14.582
54974SOL     OW66754   4.748  11.615   6.506
54974SOL    HW166755   4.818  11.556   6.481
54974SOL    HW266756   4.768  11.640   6.597
54975SOL     OW66757  10.397  12.563   9.576
54975SOL    HW166758  10.345  12.485   9.592
54975SOL    HW266759  10.487  12.536   9.594
54976SOL     OW66760   0.869   4.205  14.252
54976SOL    HW166761   0.951   4.253  14.263
54976SOL    HW266762   0.874   4.134  14.315
54977SOL     OW66763   8.342   4.644   5.436
54977SOL    HW166764   8.307   4.644   5.347
54977SOL    HW266765   8.381   4.730   5.447
54978SOL     OW66766  11.595   7.230  10.008
54978SOL    HW166767  11.578   7.171  10.081
54978SOL    HW266768  11.632   7.173   9.940
54979SOL     OW66769   0.720   4.597  13.042
54979SOL    HW166770   0.680   4.585  12.955
54979SOL    HW266771   0.653   4.565  13.103
54980SOL     OW66772   9.182   3.746   8.108
54980SOL    HW166773   9.178   3.747   8.012
54980SOL    HW266774   9.189   3.653   8.130
54981SOL     OW66775  13.040   1.182   5.879
54981SOL    HW166776  12.985   1.216   5.950
54981SOL    HW266777  12.983   1.121   5.831
54982SOL     OW66778  11.981   8.999  11.243
54982SOL    HW166779  11.926   9.076  11.228
54982SOL    HW266780  12.058   9.033  11.289
54983SOL     OW66781  14.176   9.208  10.276
54983SOL    HW166782  14.109   9.184  10.340
54983SOL    HW266783  14.147   9.166  10.195
54984SOL     OW66784  12.048   1.983   8.005
54984SOL    HW166785  12.056   1.952   8.095
54984SOL    HW266786  12.130   1.957   7.964
54985SOL     OW66787   9.387  12.807  12.408
54985SOL    HW166788   9.412  12.715  12.402
54985SOL    HW266789   9.447  12.843  12.473
54986SOL     OW66790   3.430  14.512  11.329
54986SOL    HW166791   3.343  14.492  11.296
54986SOL    HW266792   3.468  14.427  11.349
54987SOL     OW66793  13.469   8.208   2.553
54987SOL    HW166794  13.375   8.196   2.547
54987SOL    HW266795  13.505   8.120   2.554
54988SOL     OW66796  10.791   5.295  12.740
54988SOL    HW166797  10.816   5.346  12.662
54988SOL    HW266798  10.778   5.361  12.808
54989SOL     OW66799  13.617   7.974   6.365
54989SOL    HW166800  13.694   8.017   6.328
54989SOL    HW266801  13.561   8.046   6.395
54990SOL     OW66802  10.014  14.389   0.819
54990SOL    HW166803  10.065  14.467   0.842
54990SOL    HW266804  10.075  14.335   0.768
54991SOL     OW66805   6.616   9.673   3.753
54991SOL    HW166806   6.699   9.645   3.792
54991SOL    HW266807   6.550   9.643   3.815
54992SOL     OW66808   1.441   7.098   6.166
54992SOL    HW166809   1.519   7.073   6.116
54992SOL    HW266810   1.421   7.021   6.219
54993SOL     OW66811  13.843   4.998  10.101
54993SOL    HW166812  13.893   4.925  10.138
54993SOL    HW266813  13.879   5.075  10.146
54994SOL     OW66814  11.252   8.252   0.014
54994SOL    HW166815  11.291   8.207   0.089
54994SOL    HW266816  11.255   8.345   0.038
54995SOL     OW66817  11.041   2.343   1.205
54995SOL    HW166818  11.008   2.356   1.294
54995SOL    HW266819  11.011   2.255   1.181
54996SOL     OW66820   3.275   6.905   7.524
54996SOL    HW166821   3.359   6.921   7.567
54996SOL    HW266822   3.228   6.848   7.586
54997SOL     OW66823   5.814  12.204  10.213
54997SOL    HW166824   5.808  12.112  10.189
54997SOL    HW266825   5.798  12.205  10.308
54998SOL     OW66826   7.791   0.619   5.830
54998SOL    HW166827   7.722   0.611   5.896
54998SOL    HW266828   7.761   0.690   5.773
54999SOL     OW66829  12.664  11.936   3.128
54999SOL    HW166830  12.667  12.020   3.082
54999SOL    HW266831  12.734  11.885   3.089
55000SOL     OW66832   4.776   5.561   3.754
55000SOL    HW166833   4.767   5.634   3.693
55000SOL    HW266834   4.687   5.543   3.784
55001SOL     OW66835   8.344  11.589   6.830
55001SOL    HW166836   8.397  11.522   6.787
55001SOL    HW266837   8.357  11.573   6.924
55002SOL     OW66838   2.796  14.661   8.236
55002SOL    HW166839   2.751  14.721   8.296
55002SOL    HW266840   2.873  14.631   8.286
55003SOL     OW66841   2.408   4.882   7.230
55003SOL    HW166842   2.439   4.793   7.211
55003SOL    HW266843   2.483   4.925   7.271
55004SOL     OW66844   3.486   8.188   1.062
55004SOL    HW166845   3.459   8.270   1.103
55004SOL    HW266846   3.487   8.124   1.133
55005SOL     OW66847   5.181   0.458  12.823
55005SOL    HW166848   5.260   0.404  12.818
55005SOL    HW266849   5.111   0.396  12.841
55006SOL     OW66850   4.346   6.181   0.168
55006SOL    HW166851   4.269   6.217   0.210
55006SOL    HW266852   4.334   6.201   0.075
55007SOL     OW66853   2.133   7.024  11.748
55007SOL    HW166854   2.218   7.052  11.713
55007SOL    HW266855   2.104   6.956  11.688
55008SOL     OW66856  11.290   5.918  11.830
55008SOL    HW166857  11.248   6.004  11.841
55008SOL    HW266858  11.263   5.869  11.907
55009SOL     OW66859  12.888  11.678   0.245
55009SOL    HW166860  12.866  11.681   0.338
55009SOL    HW266861  12.983  11.664   0.243
55010SOL     OW66862  12.233   8.937  14.099
55010SOL    HW166863  12.220   8.842  14.101
55010SOL    HW266864  12.319   8.950  14.140
55011SOL     OW66865  13.063   4.787   0.842
55011SOL    HW166866  13.130   4.845   0.879
55011SOL    HW266867  13.111   4.732   0.780
55012SOL     OW66868   1.577  12.374  10.649
55012SOL    HW166869   1.510  12.428  10.690
55012SOL    HW266870   1.621  12.331  10.723
55013SOL     OW66871   9.821  11.966   1.662
55013SOL    HW166872   9.737  11.997   1.626
55013SOL    HW266873   9.825  12.007   1.749
55014SOL     OW66874  14.214  11.838   7.208
55014SOL    HW166875  14.159  11.903   7.253
55014SOL    HW266876  14.155  11.765   7.189
55015SOL     OW66877  10.602   4.274   5.592
55015SOL    HW166878  10.555   4.216   5.653
55015SOL    HW266879  10.557   4.358   5.599
55016SOL     OW66880   3.574  12.255   5.247
55016SOL    HW166881   3.661  12.217   5.262
55016SOL    HW266882   3.513  12.182   5.261
55017SOL     OW66883   5.182  12.487  12.705
55017SOL    HW166884   5.254  12.549  12.687
55017SOL    HW266885   5.218  12.427  12.770
55018SOL     OW66886   7.180  13.438  11.861
55018SOL    HW166887   7.193  13.533  11.854
55018SOL    HW266888   7.120  13.427  11.934
55019SOL     OW66889  11.551   8.388  12.355
55019SOL    HW166890  11.615   8.401  12.285
55019SOL    HW266891  11.598   8.414  12.435
55020SOL     OW66892   9.227   9.373   7.653
55020SOL    HW166893   9.236   9.461   7.616
55020SOL    HW266894   9.263   9.315   7.585
55021SOL     OW66895   7.781   0.109   0.624
55021SOL    HW166896   7.867   0.083   0.658
55021SOL    HW266897   7.740   0.155   0.698
55022SOL     OW66898   7.624   9.328   6.477
55022SOL    HW166899   7.537   9.342   6.440
55022SOL    HW266900   7.631   9.232   6.484
55023SOL     OW66901   9.463   2.907   7.231
55023SOL    HW166902   9.498   2.865   7.152
55023SOL    HW266903   9.388   2.853   7.256
55024SOL     OW66904  13.069   0.675   3.951
55024SOL    HW166905  13.053   0.581   3.949
55024SOL    HW266906  12.996   0.711   4.001
55025SOL     OW66907  13.095  12.786  11.793
55025SOL    HW166908  13.025  12.847  11.769
55025SOL    HW266909  13.109  12.803  11.886
55026SOL     OW66910   6.435  14.615   0.459
55026SOL    HW166911   6.503  14.681   0.447
55026SOL    HW266912   6.357  14.664   0.484
55027SOL     OW66913  12.490   3.732  14.239
55027SOL    HW166914  12.495   3.726  14.144
55027SOL    HW266915  12.581   3.742  14.267
55028SOL     OW66916   1.218   4.411   4.074
55028SOL    HW166917   1.186   4.454   4.153
55028SOL    HW266918   1.165   4.331   4.067
55029SOL     OW66919  10.676   5.617   9.618
55029SOL    HW166920  10.608   5.580   9.674
55029SOL    HW266921  10.657   5.581   9.531
55030SOL     OW66922   4.069  14.769   4.860
55030SOL    HW166923   4.048  14.721   4.941
55030SOL    HW266924   4.093  14.701   4.798
55031SOL     OW66925   6.382   9.237   9.211
55031SOL    HW166926   6.289   9.239   9.189
55031SOL    HW266927   6.427   9.271   9.133
55032SOL     OW66928   0.498   1.127   5.725
55032SOL    HW166929   0.527   1.085   5.806
55032SOL    HW266930   0.402   1.127   5.731
55033SOL     OW66931   7.375  11.817  10.316
55033SOL    HW166932   7.403  11.884  10.253
55033SOL    HW266933   7.280  11.815  10.307
55034SOL     OW66934   8.666  13.956   8.502
55034SOL    HW166935   8.690  14.044   8.531
55034SOL    HW266936   8.595  13.970   8.439
55035SOL     OW66937   0.611   9.052   0.512
55035SOL    HW166938   0.635   8.961   0.531
55035SOL    HW266939   0.534   9.068   0.565
55036SOL     OW66940   3.750  12.240  11.522
55036SOL    HW166941   3.699  12.231  11.443
55036SOL    HW266942   3.701  12.192  11.589
55037SOL     OW66943   7.741  12.128   0.433
55037SOL    HW166944   7.733  12.040   0.398
55037SOL    HW266945   7.711  12.120   0.524
55038SOL     OW66946  14.244  13.614   9.515
55038SOL    HW166947  14.232  13.629   9.609
55038SOL    HW266948  14.338  13.627   9.500
55039SOL     OW66949   2.630   3.452  13.276
55039SOL    HW166950   2.703   3.426  13.220
55039SOL    HW266951   2.615   3.377  13.333
55040SOL     OW66952   2.179   1.269   4.942
55040SOL    HW166953   2.129   1.188   4.954
55040SOL    HW266954   2.181   1.309   5.029
55041SOL     OW66955  11.673   6.007   5.959
55041SOL    HW166956  11.696   6.074   5.894
55041SOL    HW266957  11.589   6.036   5.995
55042SOL     OW66958  11.383   5.366  11.030
55042SOL    HW166959  11.296   5.350  11.067
55042SOL    HW266960  11.428   5.419  11.097
55043SOL     OW66961   6.578   8.031  12.086
55043SOL    HW166962   6.565   8.110  12.137
55043SOL    HW266963   6.515   8.037  12.015
55044SOL     OW66964   9.632   3.209  13.730
55044SOL    HW166965   9.625   3.285  13.788
55044SOL    HW266966   9.601   3.241  13.645
55045SOL     OW66967  13.110   6.675   6.267
55045SOL    HW166968  13.146   6.693   6.354
55045SOL    HW266969  13.148   6.590   6.243
55046SOL     OW66970   7.501  12.894  12.541
55046SOL    HW166971   7.464  12.807  12.526
55046SOL    HW266972   7.546  12.915  12.459
55047SOL     OW66973   0.237   7.233   8.631
55047SOL    HW166974   0.173   7.195   8.691
55047SOL    HW266975   0.224   7.328   8.637
55048SOL     OW66976  10.044   4.724   4.902
55048SOL    HW166977  10.015   4.803   4.858
55048SOL    HW266978  10.135   4.740   4.925
55049SOL     OW66979   9.253  10.324   5.256
55049SOL    HW166980   9.267  10.402   5.202
55049SOL    HW266981   9.317  10.333   5.327
55050SOL     OW66982   0.392   7.472   9.245
55050SOL    HW166983   0.330   7.541   9.223
55050SOL    HW266984   0.338   7.398   9.273
55051SOL     OW66985   9.395  13.886  14.065
55051SOL    HW166986   9.340  13.849  13.997
55051SOL    HW266987   9.482  13.847  14.049
55052SOL     OW66988   3.974  14.763  13.292
55052SOL    HW166989   3.962  14.690  13.232
55052SOL    HW266990   3.914  14.745  13.364
55053SOL     OW66991  13.286   0.390   5.856
55053SOL    HW166992  13.218   0.413   5.919
55053SOL    HW266993  13.368   0.414   5.899
55054SOL     OW66994   5.318  14.402  11.698
55054SOL    HW166995   5.395  14.459  11.697
55054SOL    HW266996   5.351  14.318  11.732
55055SOL     OW66997   4.947  11.402   0.383
55055SOL    HW166998   4.887  11.402   0.309
55055SOL    HW266999   4.985  11.490   0.382
55056SOL     OW67000   3.480  13.830   0.942
55056SOL    HW167001   3.536  13.802   0.870
55056SOL    HW267002   3.496  13.924   0.951
55057SOL     OW67003   1.982   7.843  13.331
55057SOL    HW167004   1.929   7.902  13.384
55057SOL    HW267005   1.928   7.825  13.254
55058SOL     OW67006  14.186  10.808   6.693
55058SOL    HW167007  14.237  10.745   6.742
55058SOL    HW267008  14.197  10.891   6.741
55059SOL     OW67009   3.113   2.098   0.117
55059SOL    HW167010   3.123   2.105   0.212
55059SOL    HW267011   3.118   2.188   0.085
55060SOL     OW67012   6.896   5.922  13.204
55060SOL    HW167013   6.881   5.873  13.123
55060SOL    HW267014   6.864   5.864  13.273
55061SOL     OW67015   5.931  13.147   2.766
55061SOL    HW167016   5.970  13.082   2.825
55061SOL    HW267017   5.857  13.183   2.816
55062SOL     OW67018   7.198  13.373   2.741
55062SOL    HW167019   7.227  13.445   2.685
55062SOL    HW267020   7.265  13.367   2.809
55063SOL     OW67021   8.352   0.100  11.034
55063SOL    HW167022   8.415   0.099  10.962
55063SOL    HW267023   8.268   0.081  10.993
55064SOL     OW67024   2.733  14.550   8.786
55064SOL    HW167025   2.752  14.461   8.815
55064SOL    HW267026   2.660  14.540   8.725
55065SOL     OW67027  12.029   1.659  12.882
55065SOL    HW167028  12.065   1.683  12.967
55065SOL    HW267029  11.940   1.629  12.901
55066SOL     OW67030   8.923  14.555   4.411
55066SOL    HW167031   8.962  14.633   4.372
55066SOL    HW267032   8.848  14.535   4.354
55067SOL     OW67033   8.598   2.749  10.594
55067SOL    HW167034   8.553   2.680  10.546
55067SOL    HW267035   8.668   2.704  10.641
55068SOL     OW67036   7.432   4.956   6.426
55068SOL    HW167037   7.433   4.869   6.466
55068SOL    HW267038   7.464   4.942   6.337
55069SOL     OW67039  10.183   8.355   3.862
55069SOL    HW167040  10.239   8.296   3.811
55069SOL    HW267041  10.094   8.327   3.842
55070SOL     OW67042   8.358   3.586   4.991
55070SOL    HW167043   8.373   3.494   4.968
55070SOL    HW267044   8.360   3.586   5.087
55071SOL     OW67045   6.347  10.632  10.779
55071SOL    HW167046   6.426  10.656  10.828
55071SOL    HW267047   6.274  10.657  10.837
55072SOL     OW67048   6.531   2.009  10.647
55072SOL    HW167049   6.618   1.980  10.675
55072SOL    HW267050   6.476   1.932  10.659
55073SOL     OW67051  14.689  14.583   5.670
55073SOL    HW167052  14.604  14.619   5.647
55073SOL    HW267053  14.675  14.488   5.670
55074SOL     OW67054  14.142  11.009   8.102
55074SOL    HW167055  14.171  10.918   8.111
55074SOL    HW267056  14.217  11.061   8.131
55075SOL     OW67057   7.323   2.387   5.414
55075SOL    HW167058   7.398   2.347   5.371
55075SOL    HW267059   7.247   2.343   5.375
55076SOL     OW67060  10.548   2.088  12.804
55076SOL    HW167061  10.542   2.093  12.709
55076SOL    HW267062  10.464   2.122  12.835
55077SOL     OW67063  10.119   8.009  12.316
55077SOL    HW167064  10.182   7.949  12.276
55077SOL    HW267065  10.158   8.096  12.305
55078SOL     OW67066   6.965   3.791   2.422
55078SOL    HW167067   6.907   3.791   2.499
55078SOL    HW267068   6.958   3.702   2.387
55079SOL     OW67069  14.728   2.087   6.934
55079SOL    HW167070  14.656   2.042   6.889
55079SOL    HW267071  14.742   2.167   6.883
55080SOL     OW67072   9.262   9.481   7.246
55080SOL    HW167073   9.299   9.499   7.332
55080SOL    HW267074   9.212   9.559   7.224
55081SOL     OW67075   5.801  12.304   1.316
55081SOL    HW167076   5.754  12.372   1.267
55081SOL    HW267077   5.773  12.222   1.277
55082SOL     OW67078  10.026  10.748   9.930
55082SOL    HW167079  10.079  10.680   9.889
55082SOL    HW267080  10.015  10.719  10.020
55083SOL     OW67081   0.520   7.975   9.806
55083SOL    HW167082   0.461   8.032   9.855
55083SOL    HW267083   0.558   7.917   9.872
55084SOL     OW67084   2.481   3.876   3.414
55084SOL    HW167085   2.533   3.945   3.456
55084SOL    HW267086   2.439   3.831   3.486
55085SOL     OW67087   5.639   3.953   9.034
55085SOL    HW167088   5.598   3.991   8.956
55085SOL    HW267089   5.693   3.882   9.000
55086SOL     OW67090  13.152  12.421   5.711
55086SOL    HW167091  13.152  12.328   5.735
55086SOL    HW267092  13.130  12.422   5.618
55087SOL     OW67093   5.968   2.187  11.649
55087SOL    HW167094   5.961   2.117  11.584
55087SOL    HW267095   5.899   2.168  11.712
55088SOL     OW67096   5.616   5.073   9.884
55088SOL    HW167097   5.543   5.127   9.914
55088SOL    HW267098   5.607   5.071   9.789
55089SOL     OW67099   3.031   0.479  10.558
55089SOL    HW167100   3.060   0.568  10.540
55089SOL    HW267101   3.001   0.480  10.649
55090SOL     OW67102  12.957   9.012  14.461
55090SOL    HW167103  12.908   9.060  14.394
55090SOL    HW267104  12.958   8.921  14.429
55091SOL     OW67105   0.678  14.432   4.586
55091SOL    HW167106   0.639  14.365   4.642
55091SOL    HW267107   0.696  14.386   4.503
55092SOL     OW67108  14.196   9.056  14.406
55092SOL    HW167109  14.193   9.139  14.358
55092SOL    HW267110  14.110   9.016  14.390
55093SOL     OW67111   5.184   5.526  11.542
55093SOL    HW167112   5.220   5.591  11.601
55093SOL    HW267113   5.241   5.528  11.465
55094SOL     OW67114   1.550   3.045  14.828
55094SOL    HW167115   1.456   3.046  14.810
55094SOL    HW267116   1.577   2.954  14.815
55095SOL     OW67117   1.412   0.515   8.877
55095SOL    HW167118   1.387   0.423   8.887
55095SOL    HW267119   1.384   0.557   8.958
55096SOL     OW67120   9.147   4.783  10.792
55096SOL    HW167121   9.232   4.765  10.832
55096SOL    HW267122   9.151   4.876  10.767
55097SOL     OW67123  10.659   2.978  10.078
55097SOL    HW167124  10.686   2.888  10.098
55097SOL    HW267125  10.570   2.969  10.043
55098SOL     OW67126  10.326   8.963   9.825
55098SOL    HW167127  10.323   8.923   9.739
55098SOL    HW267128  10.262   8.914   9.877
55099SOL     OW67129   9.450   7.615   8.821
55099SOL    HW167130   9.538   7.639   8.790
55099SOL    HW267131   9.402   7.593   8.741
55100SOL     OW67132   8.968  10.014   3.514
55100SOL    HW167133   9.034  10.073   3.553
55100SOL    HW267134   8.900  10.007   3.580
55101SOL     OW67135   7.859   4.950   1.169
55101SOL    HW167136   7.788   5.006   1.202
55101SOL    HW267137   7.899   5.002   1.099
55102SOL     OW67138  14.202   9.938  12.164
55102SOL    HW167139  14.190   9.845  12.147
55102SOL    HW267140  14.293   9.945  12.195
55103SOL     OW67141  14.007   4.072   4.270
55103SOL    HW167142  13.990   4.153   4.222
55103SOL    HW267143  14.004   4.098   4.362
55104SOL     OW67144   6.641   4.132   3.961
55104SOL    HW167145   6.682   4.176   3.887
55104SOL    HW267146   6.673   4.179   4.038
55105SOL     OW67147  11.730   1.053   0.608
55105SOL    HW167148  11.811   1.016   0.572
55105SOL    HW267149  11.717   1.134   0.560
55106SOL     OW67150  10.155   6.181   9.032
55106SOL    HW167151  10.233   6.138   9.068
55106SOL    HW267152  10.190   6.241   8.966
55107SOL     OW67153   2.826   7.359   1.776
55107SOL    HW167154   2.741   7.333   1.813
55107SOL    HW267155   2.891   7.323   1.837
55108SOL     OW67156  12.211   6.595   0.749
55108SOL    HW167157  12.187   6.662   0.686
55108SOL    HW267158  12.282   6.546   0.708
55109SOL     OW67159  12.472   9.278  11.958
55109SOL    HW167160  12.521   9.359  11.941
55109SOL    HW267161  12.406   9.304  12.023
55110SOL     OW67162   6.383   8.465  14.361
55110SOL    HW167163   6.450   8.523  14.324
55110SOL    HW267164   6.397   8.471  14.456
55111SOL     OW67165   7.081   9.631   5.044
55111SOL    HW167166   7.080   9.537   5.025
55111SOL    HW267167   7.000   9.664   5.006
55112SOL     OW67168  13.283  14.800   4.388
55112SOL    HW167169  13.262   0.000   4.331
55112SOL    HW267170  13.356  14.755   4.345
55113SOL     OW67171   1.365   9.423   8.804
55113SOL    HW167172   1.347   9.393   8.714
55113SOL    HW267173   1.285   9.469   8.830
55114SOL     OW67174   2.106   4.538  14.409
55114SOL    HW167175   2.120   4.620  14.362
55114SOL    HW267176   2.195   4.505  14.426
55115SOL     OW67177   5.158   8.256  13.877
55115SOL    HW167178   5.078   8.275  13.927
55115SOL    HW267179   5.191   8.341  13.851
55116SOL     OW67180   0.027  12.286   1.193
55116SOL    HW167181   0.020  12.234   1.113
55116SOL    HW267182   0.119  12.310   1.198
55117SOL     OW67183   8.432   8.934   1.040
55117SOL    HW167184   8.368   8.912   1.109
55117SOL    HW267185   8.505   8.974   1.087
55118SOL     OW67186   6.200   1.448   0.058
55118SOL    HW167187   6.202   1.354   0.042
55118SOL    HW267188   6.117   1.477   0.021
55119SOL     OW67189  13.589  10.402   7.352
55119SOL    HW167190  13.544  10.454   7.286
55119SOL    HW267191  13.520  10.352   7.394
55120SOL     OW67192  10.720   1.168   9.321
55120SOL    HW167193  10.722   1.092   9.262
55120SOL    HW267194  10.642   1.154   9.375
55121SOL     OW67195   4.395   4.615   6.663
55121SOL    HW167196   4.328   4.628   6.596
55121SOL    HW267197   4.349   4.632   6.746
55122SOL     OW67198   9.731   1.530  12.121
55122SOL    HW167199   9.783   1.479  12.059
55122SOL    HW267200   9.777   1.520  12.204
55123SOL     OW67201   1.511  11.224   9.730
55123SOL    HW167202   1.555  11.141   9.749
55123SOL    HW267203   1.558  11.261   9.656
55124SOL     OW67204  14.803   2.186  11.672
55124SOL    HW167205  14.838   2.206  11.759
55124SOL    HW267206  14.772   2.096  11.679
55125SOL     OW67207   9.792   7.456  14.344
55125SOL    HW167208   9.830   7.436  14.430
55125SOL    HW267209   9.817   7.547  14.328
55126SOL     OW67210  12.764  11.651   7.926
55126SOL    HW167211  12.853  11.654   7.960
55126SOL    HW267212  12.709  11.648   8.005
55127SOL     OW67213   5.473   8.392   1.639
55127SOL    HW167214   5.471   8.444   1.559
55127SOL    HW267215   5.473   8.457   1.710
55128SOL     OW67216   0.962   3.742  12.388
55128SOL    HW167217   0.942   3.654  12.355
55128SOL    HW267218   0.942   3.738  12.482
55129SOL     OW67219   1.825   9.633   6.596
55129SOL    HW167220   1.904   9.580   6.608
55129SOL    HW267221   1.799   9.618   6.505
55130SOL     OW67222  13.892   9.331  14.124
55130SOL    HW167223  13.885   9.265  14.055
55130SOL    HW267224  13.844   9.293  14.199
55131SOL     OW67225  10.237   7.650   0.059
55131SOL    HW167226  10.323   7.692   0.049
55131SOL    HW267227  10.214   7.665   0.150
55132SOL     OW67228  14.588  11.523   9.604
55132SOL    HW167229  14.540  11.488   9.529
55132SOL    HW267230  14.679  11.498   9.589
55133SOL     OW67231  13.815   0.887   5.972
55133SOL    HW167232  13.869   0.889   5.893
55133SOL    HW267233  13.738   0.836   5.947
55134SOL     OW67234   8.076   0.010   4.655
55134SOL    HW167235   8.098  14.814   4.718
55134SOL    HW267236   8.144   0.005   4.588
55135SOL     OW67237   1.366   1.181  12.081
55135SOL    HW167238   1.404   1.225  12.156
55135SOL    HW267239   1.272   1.175  12.101
55136SOL     OW67240   7.596  13.994   5.071
55136SOL    HW167241   7.542  14.030   5.001
55136SOL    HW267242   7.536  13.944   5.125
55137SOL     OW67243   8.541   0.249   7.389
55137SOL    HW167244   8.614   0.309   7.372
55137SOL    HW267245   8.495   0.242   7.306
55138SOL     OW67246   8.576   3.624   8.318
55138SOL    HW167247   8.619   3.538   8.316
55138SOL    HW267248   8.647   3.686   8.338
55139SOL     OW67249  12.575  11.594   7.457
55139SOL    HW167250  12.594  11.540   7.533
55139SOL    HW267251  12.499  11.553   7.416
55140SOL     OW67252  10.963   9.204  14.758
55140SOL    HW167253  10.979   9.295  14.779
55140SOL    HW267254  10.874   9.187  14.790
55141SOL     OW67255   0.789   7.677   7.783
55141SOL    HW167256   0.884   7.679   7.781
55141SOL    HW267257   0.766   7.592   7.746
55142SOL     OW67258   0.457  12.746  13.229
55142SOL    HW167259   0.462  12.840  13.246
55142SOL    HW267260   0.378  12.736  13.176
55143SOL     OW67261   4.527  10.024  12.598
55143SOL    HW167262   4.460  10.006  12.664
55143SOL    HW267263   4.557  10.113  12.618
55144SOL     OW67264   1.542   6.473   0.873
55144SOL    HW167265   1.565   6.478   0.781
55144SOL    HW267266   1.601   6.406   0.909
55145SOL     OW67267   0.369   7.569   7.188
55145SOL    HW167268   0.381   7.479   7.218
55145SOL    HW267269   0.315   7.562   7.110
55146SOL     OW67270  14.650   9.457   0.204
55146SOL    HW167271  14.686   9.545   0.211
55146SOL    HW267272  14.555   9.471   0.197
55147SOL     OW67273  14.549   2.917   2.563
55147SOL    HW167274  14.499   2.983   2.515
55147SOL    HW267275  14.531   2.934   2.655
55148SOL     OW67276   7.738   4.860   1.568
55148SOL    HW167277   7.648   4.831   1.581
55148SOL    HW267278   7.731   4.945   1.526
55149SOL     OW67279   7.912   9.109   2.813
55149SOL    HW167280   7.817   9.103   2.810
55149SOL    HW267281   7.934   9.093   2.905
55150SOL     OW67282   5.922   1.034   6.641
55150SOL    HW167283   5.843   1.018   6.589
55150SOL    HW267284   5.902   1.112   6.692
55151SOL     OW67285   5.424   2.182   7.081
55151SOL    HW167286   5.395   2.256   7.027
55151SOL    HW267287   5.470   2.124   7.021
55152SOL     OW67288   2.268  10.328   5.667
55152SOL    HW167289   2.212  10.300   5.738
55152SOL    HW267290   2.280  10.250   5.613
55153SOL     OW67291   3.544   3.579   6.728
55153SOL    HW167292   3.456   3.569   6.690
55153SOL    HW267293   3.603   3.559   6.656
55154SOL     OW67294   6.860  12.862   7.411
55154SOL    HW167295   6.815  12.793   7.363
55154SOL    HW267296   6.932  12.889   7.354
55155SOL     OW67297   2.494   7.268   6.052
55155SOL    HW167298   2.540   7.188   6.029
55155SOL    HW267299   2.471   7.258   6.145
55156SOL     OW67300   9.959   8.979  10.171
55156SOL    HW167301   9.875   8.937  10.187
55156SOL    HW267302  10.024   8.919  10.207
55157SOL     OW67303   7.396   8.822   7.631
55157SOL    HW167304   7.388   8.766   7.554
55157SOL    HW267305   7.313   8.809   7.678
55158SOL     OW67306   2.075   3.043  14.598
55158SOL    HW167307   2.101   3.130  14.627
55158SOL    HW267308   1.983   3.036  14.620
55159SOL     OW67309   3.731   9.984   1.578
55159SOL    HW167310   3.675   9.914   1.613
55159SOL    HW267311   3.819   9.946   1.578
55160SOL     OW67312   1.915  11.156  14.147
55160SOL    HW167313   1.995  11.190  14.186
55160SOL    HW267314   1.926  11.170  14.053
55161SOL     OW67315   1.381   7.253   3.021
55161SOL    HW167316   1.316   7.184   3.010
55161SOL    HW267317   1.385   7.267   3.116
55162SOL     OW67318   1.489  10.489  14.634
55162SOL    HW167319   1.479  10.503  14.729
55162SOL    HW267320   1.510  10.396  14.626
55163SOL     OW67321   9.520   6.794   6.441
55163SOL    HW167322   9.594   6.841   6.404
55163SOL    HW267323   9.456   6.862   6.463
55164SOL     OW67324   0.934   0.634   5.639
55164SOL    HW167325   0.920   0.687   5.717
55164SOL    HW267326   0.847   0.626   5.599
55165SOL     OW67327  11.229  11.540  10.554
55165SOL    HW167328  11.253  11.480  10.625
55165SOL    HW267329  11.224  11.626  10.596
55166SOL     OW67330   2.259   5.607   9.947
55166SOL    HW167331   2.226   5.639  10.031
55166SOL    HW267332   2.270   5.512   9.960
55167SOL     OW67333  10.830   5.342  10.140
55167SOL    HW167334  10.755   5.287  10.162
55167SOL    HW267335  10.869   5.364  10.225
55168SOL     OW67336  10.024  10.257  14.483
55168SOL    HW167337  10.113  10.291  14.495
55168SOL    HW267338  10.025  10.172  14.527
55169SOL     OW67339   5.408  13.601   7.662
55169SOL    HW167340   5.343  13.666   7.690
55169SOL    HW267341   5.474  13.604   7.730
55170SOL     OW67342   0.956  13.351  14.720
55170SOL    HW167343   0.944  13.445  14.708
55170SOL    HW267344   0.937  13.313  14.634
55171SOL     OW67345  13.872   7.280  10.478
55171SOL    HW167346  13.822   7.221  10.535
55171SOL    HW267347  13.961   7.244  10.479
55172SOL     OW67348  13.626   1.050  12.723
55172SOL    HW167349  13.585   0.985  12.666
55172SOL    HW267350  13.717   1.055  12.694
55173SOL     OW67351  14.494   4.712   7.587
55173SOL    HW167352  14.458   4.647   7.647
55173SOL    HW267353  14.425   4.778   7.578
55174SOL     OW67354   5.454  13.944  13.315
55174SOL    HW167355   5.391  14.013  13.294
55174SOL    HW267356   5.408  13.887  13.377
55175SOL     OW67357  12.367   4.605   6.278
55175SOL    HW167358  12.353   4.642   6.191
55175SOL    HW267359  12.364   4.510   6.265
55176SOL     OW67360   8.306   8.416   7.782
55176SOL    HW167361   8.284   8.348   7.719
55176SOL    HW267362   8.230   8.475   7.782
55177SOL     OW67363   4.692   3.933   5.537
55177SOL    HW167364   4.611   3.882   5.526
55177SOL    HW267365   4.664   4.014   5.580
55178SOL     OW67366  13.712   6.319  14.149
55178SOL    HW167367  13.795   6.277  14.127
55178SOL    HW267368  13.669   6.257  14.208
55179SOL     OW67369   7.678  14.161   5.414
55179SOL    HW167370   7.747  14.135   5.353
55179SOL    HW267371   7.656  14.250   5.389
55180SOL     OW67372  13.533   8.785   2.726
55180SOL    HW167373  13.545   8.769   2.819
55180SOL    HW267374  13.487   8.869   2.721
55181SOL     OW67375   3.308   8.877  12.932
55181SOL    HW167376   3.278   8.968  12.929
55181SOL    HW267377   3.375   8.872  12.863
55182SOL     OW67378   3.161  11.496   6.552
55182SOL    HW167379   3.145  11.440   6.628
55182SOL    HW267380   3.078  11.497   6.505
55183SOL     OW67381   7.698   8.559   4.002
55183SOL    HW167382   7.718   8.590   4.091
55183SOL    HW267383   7.625   8.499   4.013
55184SOL     OW67384   7.775  10.689  11.314
55184SOL    HW167385   7.816  10.748  11.378
55184SOL    HW267386   7.810  10.718  11.229
55185SOL     OW67387   9.457  14.430   6.406
55185SOL    HW167388   9.361  14.428   6.403
55185SOL    HW267389   9.477  14.429   6.500
55186SOL     OW67390   8.766   8.186   1.378
55186SOL    HW167391   8.683   8.167   1.334
55186SOL    HW267392   8.829   8.127   1.336
55187SOL     OW67393   4.279  11.779   1.541
55187SOL    HW167394   4.288  11.689   1.510
55187SOL    HW267395   4.185  11.798   1.532
55188SOL     OW67396  11.754   1.772   5.587
55188SOL    HW167397  11.816   1.744   5.654
55188SOL    HW267398  11.785   1.729   5.507
55189SOL     OW67399   6.420   1.515   3.269
55189SOL    HW167400   6.444   1.501   3.360
55189SOL    HW267401   6.336   1.470   3.259
55190SOL     OW67402  10.207   3.945  11.806
55190SOL    HW167403  10.274   3.936  11.738
55190SOL    HW267404  10.169   4.031  11.790
55191SOL     OW67405   4.094  12.645   4.095
55191SOL    HW167406   4.112  12.608   4.182
55191SOL    HW267407   4.172  12.696   4.074
55192SOL     OW67408   9.505   5.781  12.694
55192SOL    HW167409   9.554   5.788  12.776
55192SOL    HW267410   9.527   5.694  12.660
55193SOL     OW67411  10.161  11.118  11.518
55193SOL    HW167412  10.085  11.108  11.575
55193SOL    HW267413  10.213  11.188  11.558
55194SOL     OW67414   5.961   5.465  14.275
55194SOL    HW167415   5.971   5.515  14.195
55194SOL    HW267416   5.887   5.505  14.320
55195SOL     OW67417   7.685   6.243   9.142
55195SOL    HW167418   7.701   6.156   9.179
55195SOL    HW267419   7.743   6.301   9.192
55196SOL     OW67420  11.349   0.936   9.378
55196SOL    HW167421  11.300   1.018   9.377
55196SOL    HW267422  11.418   0.948   9.313
55197SOL     OW67423   3.576   2.172   4.936
55197SOL    HW167424   3.598   2.080   4.954
55197SOL    HW267425   3.611   2.187   4.848
55198SOL     OW67426   7.039  11.053   0.632
55198SOL    HW167427   7.133  11.033   0.627
55198SOL    HW267428   7.010  11.007   0.711
55199SOL     OW67429   0.319  11.200  13.890
55199SOL    HW167430   0.310  11.286  13.849
55199SOL    HW267431   0.267  11.142  13.834
55200SOL     OW67432   6.068  13.063   3.765
55200SOL    HW167433   6.122  12.991   3.733
55200SOL    HW267434   6.045  13.113   3.687
55201SOL     OW67435   8.084   5.288  11.939
55201SOL    HW167436   8.011   5.351  11.937
55201SOL    HW267437   8.151   5.328  11.884
55202SOL     OW67438   7.257   4.335   1.678
55202SOL    HW167439   7.339   4.318   1.632
55202SOL    HW267440   7.190   4.297   1.622
55203SOL     OW67441   7.661   9.025  10.954
55203SOL    HW167442   7.603   9.052  11.026
55203SOL    HW267443   7.654   9.096  10.890
55204SOL     OW67444  12.087   9.956   5.998
55204SOL    HW167445  12.062   9.883   6.055
55204SOL    HW267446  12.182   9.960   6.003
55205SOL     OW67447   4.493   7.808   2.667
55205SOL    HW167448   4.404   7.817   2.701
55205SOL    HW267449   4.532   7.894   2.678
55206SOL     OW67450   7.194   1.210  14.258
55206SOL    HW167451   7.273   1.180  14.214
55206SOL    HW267452   7.123   1.164  14.213
55207SOL     OW67453   3.260   9.259   2.088
55207SOL    HW167454   3.241   9.193   2.022
55207SOL    HW267455   3.356   9.258   2.097
55208SOL     OW67456   0.473  13.600   6.884
55208SOL    HW167457   0.480  13.541   6.809
55208SOL    HW267458   0.518  13.680   6.855
55209SOL     OW67459   0.637  11.666  14.593
55209SOL    HW167460   0.684  11.608  14.654
55209SOL    HW267461   0.653  11.754  14.627
55210SOL     OW67462   9.646   8.469   5.923
55210SOL    HW167463   9.638   8.374   5.933
55210SOL    HW267464   9.560   8.503   5.947
55211SOL     OW67465  11.509   2.382   4.632
55211SOL    HW167466  11.539   2.314   4.692
55211SOL    HW267467  11.414   2.386   4.645
55212SOL     OW67468  11.474   2.469   2.459
55212SOL    HW167469  11.490   2.521   2.539
55212SOL    HW267470  11.489   2.531   2.388
55213SOL     OW67471  13.795   4.909   7.926
55213SOL    HW167472  13.742   4.922   7.848
55213SOL    HW267473  13.754   4.966   7.992
55214SOL     OW67474  11.727  11.987  12.447
55214SOL    HW167475  11.757  11.936  12.522
55214SOL    HW267476  11.808  12.015  12.404
55215SOL     OW67477  13.114   4.879  13.694
55215SOL    HW167478  13.106   4.961  13.646
55215SOL    HW267479  13.068   4.895  13.777
55216SOL     OW67480   0.520  14.280   2.667
55216SOL    HW167481   0.512  14.257   2.759
55216SOL    HW267482   0.430  14.303   2.640
55217SOL     OW67483  12.614  12.448  13.134
55217SOL    HW167484  12.538  12.492  13.094
55217SOL    HW267485  12.636  12.378  13.073
55218SOL     OW67486   3.703   6.249  10.326
55218SOL    HW167487   3.701   6.269  10.232
55218SOL    HW267488   3.640   6.178  10.337
55219SOL     OW67489  12.283  13.182   0.410
55219SOL    HW167490  12.295  13.219   0.497
55219SOL    HW267491  12.222  13.243   0.367
55220SOL     OW67492  12.802   5.415   4.020
55220SOL    HW167493  12.768   5.494   4.062
55220SOL    HW267494  12.731   5.352   4.028
55221SOL     OW67495  12.916  11.859   4.460
55221SOL    HW167496  12.892  11.875   4.551
55221SOL    HW267497  12.996  11.807   4.464
55222SOL     OW67498   9.119   2.362   7.584
55222SOL    HW167499   9.060   2.298   7.544
55222SOL    HW267500   9.200   2.354   7.535
55223SOL     OW67501   2.034  13.428   6.876
55223SOL    HW167502   2.075  13.343   6.885
55223SOL    HW267503   2.103  13.491   6.900
55224SOL     OW67504  13.891  11.540   4.423
55224SOL    HW167505  13.824  11.581   4.478
55224SOL    HW267506  13.919  11.609   4.363
55225SOL     OW67507  11.862  10.566  11.499
55225SOL    HW167508  11.948  10.587  11.464
55225SOL    HW267509  11.836  10.644  11.549
55226SOL     OW67510  11.838   7.948   8.534
55226SOL    HW167511  11.776   8.008   8.491
55226SOL    HW267512  11.924   7.978   8.504
55227SOL     OW67513   1.795   3.123   1.866
55227SOL    HW167514   1.837   3.040   1.887
55227SOL    HW267515   1.764   3.156   1.950
55228SOL     OW67516   8.733  14.831  14.385
55228SOL    HW167517   8.658  14.778  14.412
55228SOL    HW267518   8.736   0.030  14.449
55229SOL     OW67519  13.969   1.711   5.914
55229SOL    HW167520  14.052   1.748   5.944
55229SOL    HW267521  13.986   1.617   5.908
55230SOL     OW67522   8.664   2.311   0.277
55230SOL    HW167523   8.583   2.260   0.270
55230SOL    HW267524   8.709   2.275   0.353
55231SOL     OW67525  13.445   7.401  12.562
55231SOL    HW167526  13.377   7.401  12.630
55231SOL    HW267527  13.421   7.473  12.505
55232SOL     OW67528  13.523  13.893   5.536
55232SOL    HW167529  13.488  13.834   5.602
55232SOL    HW267530  13.494  13.856   5.453
55233SOL     OW67531   5.211   4.910   9.332
55233SOL    HW167532   5.219   4.969   9.407
55233SOL    HW267533   5.231   4.823   9.367
55234SOL     OW67534  14.798   0.482   7.380
55234SOL    HW167535  14.829   0.569   7.353
55234SOL    HW267536  14.848   0.462   7.459
55235SOL     OW67537  14.843   8.666   6.872
55235SOL    HW167538   0.052   8.625   6.841
55235SOL    HW267539  14.854   8.671   6.967
55236SOL     OW67540   6.852   7.787   9.566
55236SOL    HW167541   6.844   7.736   9.647
55236SOL    HW267542   6.827   7.876   9.591
55237SOL     OW67543   0.857   5.590   8.614
55237SOL    HW167544   0.833   5.547   8.696
55237SOL    HW267545   0.784   5.650   8.596
55238SOL     OW67546   1.108  14.004   2.016
55238SOL    HW167547   1.128  14.011   1.923
55238SOL    HW267548   1.179  14.051   2.060
55239SOL     OW67549  14.632   2.095   5.654
55239SOL    HW167550  14.708   2.101   5.712
55239SOL    HW267551  14.629   2.004   5.628
55240SOL     OW67552  12.933   2.807   8.967
55240SOL    HW167553  12.875   2.786   8.894
55240SOL    HW267554  12.991   2.875   8.932
55241SOL     OW67555   6.861   4.746  13.529
55241SOL    HW167556   6.782   4.702  13.562
55241SOL    HW267557   6.888   4.694  13.454
55242SOL     OW67558  10.573  14.633   7.721
55242SOL    HW167559  10.602  14.699   7.785
55242SOL    HW267560  10.517  14.574   7.772
55243SOL     OW67561   7.035   0.796   8.287
55243SOL    HW167562   7.127   0.783   8.263
55243SOL    HW267563   7.009   0.714   8.328
55244SOL     OW67564  13.328  11.695   9.414
55244SOL    HW167565  13.268  11.621   9.410
55244SOL    HW267566  13.292  11.759   9.352
55245SOL     OW67567  12.969   1.882   1.460
55245SOL    HW167568  13.046   1.860   1.511
55245SOL    HW267569  12.962   1.977   1.465
55246SOL     OW67570   2.586   0.546  13.857
55246SOL    HW167571   2.633   0.463  13.865
55246SOL    HW267572   2.497   0.521  13.832
55247SOL     OW67573  12.787   9.678   1.885
55247SOL    HW167574  12.837   9.753   1.917
55247SOL    HW267575  12.703   9.684   1.930
55248SOL     OW67576  11.714  14.281   9.454
55248SOL    HW167577  11.648  14.214   9.471
55248SOL    HW267578  11.728  14.279   9.360
55249SOL     OW67579   4.153   1.208   7.044
55249SOL    HW167580   4.233   1.167   7.076
55249SOL    HW267581   4.091   1.202   7.117
55250SOL     OW67582  10.906  10.044  11.936
55250SOL    HW167583  10.842  10.030  11.867
55250SOL    HW267584  10.933   9.956  11.962
55251SOL     OW67585  11.552   1.579   1.431
55251SOL    HW167586  11.565   1.626   1.348
55251SOL    HW267587  11.574   1.488   1.411
55252SOL     OW67588   5.402  12.303   0.068
55252SOL    HW167589   5.366  12.282   0.154
55252SOL    HW267590   5.464  12.374   0.085
55253SOL     OW67591   9.769   6.304  11.687
55253SOL    HW167592   9.799   6.222  11.727
55253SOL    HW267593   9.758   6.364  11.760
55254SOL     OW67594  12.162   3.442   4.334
55254SOL    HW167595  12.067   3.450   4.341
55254SOL    HW267596  12.180   3.351   4.360
55255SOL     OW67597   0.876   4.616   9.106
55255SOL    HW167598   0.819   4.682   9.146
55255SOL    HW267599   0.936   4.666   9.051
55256SOL     OW67600   8.913   7.761   5.554
55256SOL    HW167601   8.827   7.773   5.594
55256SOL    HW267602   8.904   7.798   5.466
55257SOL     OW67603   0.106  12.151   2.014
55257SOL    HW167604   0.185  12.142   1.962
55257SOL    HW267605   0.061  12.227   1.978
55258SOL     OW67606   7.030  11.722   8.791
55258SOL    HW167607   7.051  11.816   8.791
55258SOL    HW267608   7.079  11.687   8.717
55259SOL     OW67609   2.689   2.523  14.388
55259SOL    HW167610   2.676   2.610  14.425
55259SOL    HW267611   2.774   2.495  14.420
55260SOL     OW67612  13.360   3.976   8.616
55260SOL    HW167613  13.327   4.024   8.540
55260SOL    HW267614  13.297   3.994   8.686
55261SOL     OW67615   5.199   7.053   2.412
55261SOL    HW167616   5.188   7.145   2.389
55261SOL    HW267617   5.244   7.055   2.497
55262SOL     OW67618   6.597   6.007  10.088
55262SOL    HW167619   6.555   5.993  10.173
55262SOL    HW267620   6.622   6.099  10.087
55263SOL     OW67621  10.307   9.382   1.066
55263SOL    HW167622  10.394   9.379   1.105
55263SOL    HW267623  10.303   9.466   1.021
55264SOL     OW67624   6.741   1.147  11.562
55264SOL    HW167625   6.749   1.063  11.608
55264SOL    HW267626   6.719   1.210  11.631
55265SOL     OW67627   2.243   3.208   1.835
55265SOL    HW167628   2.270   3.174   1.749
55265SOL    HW267629   2.198   3.134   1.876
55266SOL     OW67630   9.629  11.582  13.695
55266SOL    HW167631   9.552  11.557  13.643
55266SOL    HW267632   9.638  11.676  13.681
55267SOL     OW67633  11.649   0.613   4.299
55267SOL    HW167634  11.636   0.536   4.244
55267SOL    HW267635  11.632   0.687   4.241
55268SOL     OW67636  10.957   0.097  10.430
55268SOL    HW167637  10.890   0.130  10.489
55268SOL    HW267638  10.992   0.019  10.473
55269SOL     OW67639   4.847   5.653   0.146
55269SOL    HW167640   4.836   5.560   0.169
55269SOL    HW267641   4.851   5.653   0.050
55270SOL     OW67642   2.459   2.228   1.634
55270SOL    HW167643   2.390   2.220   1.699
55270SOL    HW267644   2.441   2.158   1.571
55271SOL     OW67645   0.459   5.436   3.231
55271SOL    HW167646   0.515   5.359   3.220
55271SOL    HW267647   0.520   5.506   3.254
55272SOL     OW67648   8.482   8.243   8.232
55272SOL    HW167649   8.566   8.208   8.262
55272SOL    HW267650   8.467   8.197   8.149
55273SOL     OW67651   6.966   1.728  13.488
55273SOL    HW167652   7.037   1.674  13.523
55273SOL    HW267653   6.965   1.806  13.544
55274SOL     OW67654   5.602   5.918   6.785
55274SOL    HW167655   5.659   5.952   6.855
55274SOL    HW267656   5.662   5.877   6.723
55275SOL     OW67657   3.438  12.504  10.463
55275SOL    HW167658   3.386  12.431  10.496
55275SOL    HW267659   3.458  12.556  10.540
55276SOL     OW67660  13.376   1.511   4.176
55276SOL    HW167661  13.455   1.473   4.137
55276SOL    HW267662  13.305   1.478   4.121
55277SOL     OW67663   6.921   7.360   7.548
55277SOL    HW167664   6.910   7.299   7.475
55277SOL    HW267665   6.982   7.316   7.607
55278SOL     OW67666   8.485   7.773   1.429
55278SOL    HW167667   8.486   7.736   1.518
55278SOL    HW267668   8.398   7.813   1.421
55279SOL     OW67669  10.868  11.556   9.065
55279SOL    HW167670  10.925  11.480   9.050
55279SOL    HW267671  10.858  11.596   8.979
55280SOL     OW67672   5.040   8.862  13.584
55280SOL    HW167673   5.048   8.874  13.678
55280SOL    HW267674   4.965   8.916  13.559
55281SOL     OW67675   9.577  12.519   7.793
55281SOL    HW167676   9.642  12.450   7.807
55281SOL    HW267677   9.595  12.551   7.705
55282SOL     OW67678   6.666  12.819   2.267
55282SOL    HW167679   6.665  12.895   2.209
55282SOL    HW267680   6.721  12.755   2.222
55283SOL     OW67681   4.187   3.914   2.308
55283SOL    HW167682   4.243   3.840   2.334
55283SOL    HW267683   4.112   3.909   2.366
55284SOL     OW67684  10.024  14.097  12.006
55284SOL    HW167685  10.063  14.136  12.084
55284SOL    HW267686  10.087  14.032  11.976
55285SOL     OW67687  12.539  11.918  14.042
55285SOL    HW167688  12.602  11.982  14.011
55285SOL    HW267689  12.469  11.969  14.082
55286SOL     OW67690  12.135   2.804  12.710
55286SOL    HW167691  12.119   2.739  12.780
55286SOL    HW267692  12.054   2.804  12.659
55287SOL     OW67693  12.388  12.025   7.884
55287SOL    HW167694  12.370  12.001   7.975
55287SOL    HW267695  12.463  11.970   7.859
55288SOL     OW67696   6.912   1.180   3.966
55288SOL    HW167697   6.975   1.241   4.003
55288SOL    HW267698   6.928   1.183   3.871
55289SOL     OW67699   4.218   9.816   6.983
55289SOL    HW167700   4.167   9.824   7.064
55289SOL    HW267701   4.269   9.736   6.994
55290SOL     OW67702   8.609   4.925   7.765
55290SOL    HW167703   8.545   4.915   7.836
55290SOL    HW267704   8.694   4.932   7.809
55291SOL     OW67705  13.006   8.891  13.559
55291SOL    HW167706  13.073   8.847  13.611
55291SOL    HW267707  13.054   8.929  13.486
55292SOL     OW67708   0.468  11.829   1.967
55292SOL    HW167709   0.409  11.889   2.013
55292SOL    HW267710   0.411  11.764   1.927
55293SOL     OW67711   9.090  14.857   9.613
55293SOL    HW167712   9.031   0.051   9.649
55293SOL    HW267713   9.177   0.021   9.623
55294SOL     OW67714   3.267   2.177  12.193
55294SOL    HW167715   3.277   2.192  12.287
55294SOL    HW267716   3.210   2.100  12.188
55295SOL     OW67717   1.985   9.564   3.625
55295SOL    HW167718   1.961   9.485   3.674
55295SOL    HW267719   1.966   9.543   3.534
55296SOL     OW67720  14.185   6.086   0.630
55296SOL    HW167721  14.197   6.065   0.723
55296SOL    HW267722  14.091   6.104   0.622
55297SOL     OW67723   3.122   6.992  13.706
55297SOL    HW167724   3.201   7.009  13.757
55297SOL    HW267725   3.153   6.977  13.617
55298SOL     OW67726   3.889   9.934  11.917
55298SOL    HW167727   3.901   9.857  11.973
55298SOL    HW267728   3.977   9.971  11.908
55299SOL     OW67729   3.449  10.439   4.597
55299SOL    HW167730   3.506  10.467   4.668
55299SOL    HW267731   3.449  10.344   4.602
55300SOL     OW67732   9.577   4.611  10.645
55300SOL    HW167733   9.548   4.537  10.699
55300SOL    HW267734   9.629   4.665  10.704
55301SOL     OW67735   8.552   9.232   5.479
55301SOL    HW167736   8.517   9.144   5.468
55301SOL    HW267737   8.531   9.277   5.397
55302SOL     OW67738   1.369  12.460   3.550
55302SOL    HW167739   1.376  12.394   3.619
55302SOL    HW267740   1.305  12.424   3.489
55303SOL     OW67741   5.262   1.783   2.408
55303SOL    HW167742   5.210   1.705   2.387
55303SOL    HW267743   5.197   1.853   2.417
55304SOL     OW67744   1.039   9.498   4.807
55304SOL    HW167745   0.952   9.473   4.837
55304SOL    HW267746   1.031   9.503   4.711
55305SOL     OW67747   3.019   2.192  11.730
55305SOL    HW167748   3.021   2.199  11.826
55305SOL    HW267749   3.097   2.141  11.708
55306SOL     OW67750  11.871  13.474  14.656
55306SOL    HW167751  11.944  13.431  14.701
55306SOL    HW267752  11.799  13.472  14.719
55307SOL     OW67753  10.855   1.475   4.156
55307SOL    HW167754  10.798   1.479   4.079
55307SOL    HW267755  10.936   1.436   4.123
55308SOL     OW67756   6.204  12.370  14.542
55308SOL    HW167757   6.143  12.335  14.478
55308SOL    HW267758   6.285  12.321  14.529
55309SOL     OW67759  10.548   9.828   1.740
55309SOL    HW167760  10.553   9.909   1.790
55309SOL    HW267761  10.472   9.783   1.775
55310SOL     OW67762   7.728   3.623  13.623
55310SOL    HW167763   7.807   3.582  13.659
55310SOL    HW267764   7.689   3.669  13.697
55311SOL     OW67765  10.015   9.138   6.075
55311SOL    HW167766  10.021   9.211   6.136
55311SOL    HW267767  10.015   9.060   6.131
55312SOL     OW67768   8.709   6.756   6.870
55312SOL    HW167769   8.741   6.678   6.915
55312SOL    HW267770   8.787   6.798   6.835
55313SOL     OW67771  12.804   2.063   9.972
55313SOL    HW167772  12.734   2.125   9.993
55313SOL    HW267773  12.758   1.985   9.942
55314SOL     OW67774   5.155  13.035  14.150
55314SOL    HW167775   5.184  12.946  14.128
55314SOL    HW267776   5.101  13.024  14.228
55315SOL     OW67777   1.248  11.966   8.320
55315SOL    HW167778   1.174  11.957   8.260
55315SOL    HW267779   1.248  12.059   8.344
55316SOL     OW67780   5.166  11.468  10.832
55316SOL    HW167781   5.188  11.416  10.754
55316SOL    HW267782   5.144  11.554  10.798
55317SOL     OW67783   7.281   6.758   6.529
55317SOL    HW167784   7.199   6.757   6.579
55317SOL    HW267785   7.347   6.780   6.594
55318SOL     OW67786   6.626  11.971   1.142
55318SOL    HW167787   6.597  11.908   1.075
55318SOL    HW267788   6.567  11.955   1.216
55319SOL     OW67789  13.461  14.055   2.451
55319SOL    HW167790  13.449  14.003   2.530
55319SOL    HW267791  13.452  13.991   2.379
55320SOL     OW67792  11.504  10.539  12.017
55320SOL    HW167793  11.558  10.616  12.036
55320SOL    HW267794  11.430  10.573  11.966
55321SOL     OW67795  12.090   4.086   4.817
55321SOL    HW167796  12.003   4.112   4.788
55321SOL    HW267797  12.101   3.997   4.783
55322SOL     OW67798   6.171   8.545   9.279
55322SOL    HW167799   6.241   8.521   9.218
55322SOL    HW267800   6.108   8.594   9.227
55323SOL     OW67801  13.491  11.129   2.699
55323SOL    HW167802  13.469  11.148   2.790
55323SOL    HW267803  13.442  11.049   2.679
55324SOL     OW67804   7.581   3.686   9.352
55324SOL    HW167805   7.550   3.657   9.438
55324SOL    HW267806   7.676   3.692   9.361
55325SOL     OW67807   0.968   4.034  10.640
55325SOL    HW167808   0.978   4.104  10.704
55325SOL    HW267809   0.992   3.954  10.687
55326SOL     OW67810   5.585   1.644  14.667
55326SOL    HW167811   5.588   1.555  14.631
55326SOL    HW267812   5.659   1.648  14.728
55327SOL     OW67813  11.020   6.869   2.041
55327SOL    HW167814  11.026   6.871   1.946
55327SOL    HW267815  10.978   6.785   2.061
55328SOL     OW67816   8.743   3.767  12.601
55328SOL    HW167817   8.821   3.726  12.564
55328SOL    HW267818   8.701   3.698  12.652
55329SOL     OW67819   6.288   0.589   9.068
55329SOL    HW167820   6.375   0.606   9.104
55329SOL    HW267821   6.244   0.673   9.071
55330SOL     OW67822   8.534   2.857  11.206
55330SOL    HW167823   8.518   2.895  11.293
55330SOL    HW267824   8.451   2.818  11.181
55331SOL     OW67825   8.072  12.072   4.258
55331SOL    HW167826   8.116  12.157   4.263
55331SOL    HW267827   8.061  12.057   4.164
55332SOL     OW67828   1.457   0.613   4.204
55332SOL    HW167829   1.421   0.657   4.281
55332SOL    HW267830   1.402   0.535   4.193
55333SOL     OW67831   5.140   2.634  10.974
55333SOL    HW167832   5.228   2.659  10.946
55333SOL    HW267833   5.100   2.715  11.005
55334SOL     OW67834  13.032  13.583   0.623
55334SOL    HW167835  13.109  13.606   0.571
55334SOL    HW267836  13.041  13.490   0.641
55335SOL     OW67837   1.427   2.276   8.508
55335SOL    HW167838   1.489   2.242   8.443
55335SOL    HW267839   1.405   2.200   8.562
55336SOL     OW67840   6.500  10.535   0.126
55336SOL    HW167841   6.414  10.576   0.123
55336SOL    HW267842   6.551  10.579   0.058
55337SOL     OW67843   1.749  12.013   0.506
55337SOL    HW167844   1.755  11.997   0.412
55337SOL    HW267845   1.795  11.939   0.546
55338SOL     OW67846  12.592   3.962   5.317
55338SOL    HW167847  12.568   4.018   5.391
55338SOL    HW267848  12.663   4.008   5.274
55339SOL     OW67849  10.232   2.794  12.543
55339SOL    HW167850  10.313   2.743  12.534
55339SOL    HW267851  10.163   2.728  12.548
55340SOL     OW67852  10.763   7.206   4.335
55340SOL    HW167853  10.803   7.216   4.248
55340SOL    HW267854  10.798   7.122   4.367
55341SOL     OW67855   3.673   2.694  12.117
55341SOL    HW167856   3.757   2.740  12.122
55341SOL    HW267857   3.693   2.613  12.071
55342SOL     OW67858  12.672   0.837  14.219
55342SOL    HW167859  12.747   0.896  14.227
55342SOL    HW267860  12.666   0.817  14.126
55343SOL     OW67861   7.261   1.871   2.070
55343SOL    HW167862   7.193   1.842   2.009
55343SOL    HW267863   7.332   1.904   2.014
55344SOL     OW67864   4.925   2.800   6.270
55344SOL    HW167865   4.859   2.780   6.204
55344SOL    HW267866   5.007   2.768   6.232
55345SOL     OW67867   8.285   7.068   4.261
55345SOL    HW167868   8.314   7.153   4.228
55345SOL    HW267869   8.251   7.023   4.184
55346SOL     OW67870   9.501  14.004   7.365
55346SOL    HW167871   9.548  13.994   7.282
55346SOL    HW267872   9.436  14.072   7.349
55347SOL     OW67873  11.324  13.839  10.586
55347SOL    HW167874  11.347  13.926  10.552
55347SOL    HW267875  11.265  13.857  10.659
55348SOL     OW67876   7.207  13.833  14.702
55348SOL    HW167877   7.256  13.907  14.667
55348SOL    HW267878   7.211  13.845  14.797
55349SOL     OW67879   0.226   4.051  12.674
55349SOL    HW167880   0.218   4.126  12.614
55349SOL    HW267881   0.147   3.999  12.658
55350SOL     OW67882   9.060  14.862   1.944
55350SOL    HW167883   9.075  14.770   1.966
55350SOL    HW267884   9.007   0.023   2.016
55351SOL     OW67885   4.103   5.163   9.892
55351SOL    HW167886   4.053   5.236   9.929
55351SOL    HW267887   4.194   5.183   9.914
55352SOL     OW67888  11.800   7.130  11.726
55352SOL    HW167889  11.712   7.166  11.713
55352SOL    HW267890  11.788   7.035  11.721
55353SOL     OW67891   4.071   0.332  14.218
55353SOL    HW167892   4.095   0.330  14.310
55353SOL    HW267893   3.982   0.368  14.217
55354SOL     OW67894   7.743   7.328   6.557
55354SOL    HW167895   7.836   7.333   6.580
55354SOL    HW267896   7.700   7.300   6.638
55355SOL     OW67897  14.112  12.646  11.870
55355SOL    HW167898  14.115  12.677  11.960
55355SOL    HW267899  14.080  12.556  11.876
55356SOL     OW67900  12.358   6.656   1.845
55356SOL    HW167901  12.341   6.735   1.794
55356SOL    HW267902  12.272   6.617   1.857
55357SOL     OW67903  13.582   2.384  10.351
55357SOL    HW167904  13.664   2.403  10.399
55357SOL    HW267905  13.527   2.340  10.416
55358SOL     OW67906   1.812   6.107   4.557
55358SOL    HW167907   1.907   6.116   4.565
55358SOL    HW267908   1.792   6.030   4.611
55359SOL     OW67909  13.982  10.854   2.270
55359SOL    HW167910  14.076  10.837   2.280
55359SOL    HW267911  13.948  10.777   2.225
55360SOL     OW67912   3.920   6.592  14.440
55360SOL    HW167913   3.942   6.503  14.467
55360SOL    HW267914   3.868   6.582  14.360
55361SOL     OW67915   2.914  12.472   1.119
55361SOL    HW167916   2.898  12.501   1.209
55361SOL    HW267917   2.923  12.553   1.069
55362SOL     OW67918  12.396   9.429  12.399
55362SOL    HW167919  12.469   9.406  12.456
55362SOL    HW267920  12.319   9.424  12.455
55363SOL     OW67921  10.944   1.249  11.760
55363SOL    HW167922  10.952   1.306  11.836
55363SOL    HW267923  10.910   1.305  11.690
55364SOL     OW67924  11.331   2.391   3.423
55364SOL    HW167925  11.278   2.322   3.461
55364SOL    HW267926  11.397   2.411   3.490
55365SOL     OW67927   8.183  10.608   4.566
55365SOL    HW167928   8.180  10.568   4.480
55365SOL    HW267929   8.098  10.652   4.575
55366SOL     OW67930   1.125   0.326  11.498
55366SOL    HW167931   1.141   0.319  11.404
55366SOL    HW267932   1.034   0.356  11.505
55367SOL     OW67933   4.986  10.187   5.168
55367SOL    HW167934   5.080  10.168   5.157
55367SOL    HW267935   4.970  10.262   5.110
55368SOL     OW67936  11.344  14.010   7.797
55368SOL    HW167937  11.416  14.023   7.734
55368SOL    HW267938  11.361  14.074   7.866
55369SOL     OW67939   4.719  10.044  14.409
55369SOL    HW167940   4.805  10.058  14.449
55369SOL    HW267941   4.735  10.054  14.315
55370SOL     OW67942   0.357   1.674   7.411
55370SOL    HW167943   0.287   1.642   7.354
55370SOL    HW267944   0.312   1.728   7.477
55371SOL     OW67945   2.285   2.561   6.222
55371SOL    HW167946   2.374   2.529   6.205
55371SOL    HW267947   2.299   2.644   6.270
55372SOL     OW67948   9.009   5.525   5.385
55372SOL    HW167949   9.096   5.520   5.346
55372SOL    HW267950   8.955   5.468   5.331
55373SOL     OW67951  11.099  12.427  12.198
55373SOL    HW167952  11.138  12.381  12.273
55373SOL    HW267953  11.150  12.398  12.123
55374SOL     OW67954   1.796   7.332   3.298
55374SOL    HW167955   1.850   7.256   3.274
55374SOL    HW267956   1.768   7.368   3.214
55375SOL     OW67957  11.903   1.368   7.463
55375SOL    HW167958  11.929   1.336   7.549
55375SOL    HW267959  11.905   1.463   7.471
55376SOL     OW67960   3.559  13.189   5.817
55376SOL    HW167961   3.512  13.171   5.736
55376SOL    HW267962   3.588  13.103   5.848
55377SOL     OW67963   3.249   2.979   7.459
55377SOL    HW167964   3.167   2.930   7.448
55377SOL    HW267965   3.287   2.982   7.371
55378SOL     OW67966   1.779   5.534   3.471
55378SOL    HW167967   1.861   5.485   3.477
55378SOL    HW267968   1.800   5.621   3.505
55379SOL     OW67969   6.300  10.241   7.886
55379SOL    HW167970   6.256  10.238   7.971
55379SOL    HW267971   6.235  10.207   7.824
55380SOL     OW67972   7.793   3.973  12.346
55380SOL    HW167973   7.822   3.957  12.256
55380SOL    HW267974   7.873   3.999  12.392
55381SOL     OW67975   5.183   2.141   8.561
55381SOL    HW167976   5.240   2.093   8.622
55381SOL    HW267977   5.195   2.096   8.478
55382SOL     OW67978   4.498   0.404   1.149
55382SOL    HW167979   4.470   0.485   1.190
55382SOL    HW267980   4.528   0.430   1.062
55383SOL     OW67981   7.702   7.982  13.815
55383SOL    HW167982   7.794   8.000  13.835
55383SOL    HW267983   7.700   7.887  13.800
55384SOL     OW67984   2.118  14.117   5.374
55384SOL    HW167985   2.203  14.133   5.415
55384SOL    HW267986   2.081  14.204   5.360
55385SOL     OW67987  13.425   0.904   1.342
55385SOL    HW167988  13.435   0.812   1.366
55385SOL    HW267989  13.413   0.904   1.247
55386SOL     OW67990  14.074   7.461  12.972
55386SOL    HW167991  14.098   7.460  12.880
55386SOL    HW267992  14.059   7.368  12.993
55387SOL     OW67993   3.384   7.912   7.479
55387SOL    HW167994   3.371   7.842   7.416
55387SOL    HW267995   3.476   7.903   7.505
55388SOL     OW67996   4.668   4.954   9.548
55388SOL    HW167997   4.709   4.892   9.488
55388SOL    HW267998   4.727   4.957   9.624
55389SOL     OW67999   3.714   0.786   4.506
55389SOL    HW168000   3.768   0.821   4.577
55389SOL    HW268001   3.638   0.750   4.550
55390SOL     OW68002  13.827  14.688  12.521
55390SOL    HW168003  13.824  14.599  12.485
55390SOL    HW268004  13.898  14.686  12.584
55391SOL     OW68005  10.805  12.472   3.854
55391SOL    HW168006  10.815  12.409   3.783
55391SOL    HW268007  10.716  12.507   3.844
55392SOL     OW68008   9.930  12.823   2.754
55392SOL    HW168009  10.015  12.842   2.714
55392SOL    HW268010   9.907  12.903   2.801
55393SOL     OW68011  14.683   3.707  12.211
55393SOL    HW168012  14.656   3.793  12.179
55393SOL    HW268013  14.608   3.650  12.195
55394SOL     OW68014  14.686   3.037   0.096
55394SOL    HW168015  14.669   2.942   0.098
55394SOL    HW268016  14.699   3.060   0.188
55395SOL     OW68017   3.351   7.167   7.796
55395SOL    HW168018   3.284   7.153   7.864
55395SOL    HW268019   3.367   7.079   7.761
55396SOL     OW68020   9.266  14.607   9.768
55396SOL    HW168021   9.331  14.666   9.805
55396SOL    HW268022   9.313  14.526   9.750
55397SOL     OW68023   2.921  12.085  12.666
55397SOL    HW168024   2.994  12.023  12.661
55397SOL    HW268025   2.909  12.100  12.760
55398SOL     OW68026   6.448  13.309   1.178
55398SOL    HW168027   6.502  13.230   1.185
55398SOL    HW268028   6.383  13.288   1.111
55399SOL     OW68029  14.038   1.605   6.663
55399SOL    HW168030  14.027   1.692   6.701
55399SOL    HW268031  13.951   1.582   6.631
55400SOL     OW68032   9.015  11.554   1.350
55400SOL    HW168033   8.951  11.538   1.418
55400SOL    HW268034   9.083  11.488   1.364
55401SOL     OW68035   3.040   3.602   4.085
55401SOL    HW168036   2.964   3.551   4.111
55401SOL    HW268037   3.003   3.680   4.043
55402SOL     OW68038   6.573  13.693   8.519
55402SOL    HW168039   6.609  13.667   8.434
55402SOL    HW268040   6.631  13.763   8.549
55403SOL     OW68041  11.627   2.377   3.823
55403SOL    HW168042  11.718   2.383   3.852
55403SOL    HW268043  11.600   2.289   3.848
55404SOL     OW68044   9.169   6.241   7.615
55404SOL    HW168045   9.129   6.168   7.663
55404SOL    HW268046   9.107   6.313   7.625
55405SOL     OW68047  13.999   9.765  12.452
55405SOL    HW168048  14.076   9.726  12.495
55405SOL    HW268049  14.035   9.837  12.400
55406SOL     OW68050   5.713   3.491  13.360
55406SOL    HW168051   5.642   3.554  13.369
55406SOL    HW268052   5.789   3.544  13.334
55407SOL     OW68053  14.764  12.794   3.177
55407SOL    HW168054  14.762  12.862   3.110
55407SOL    HW268055  14.857  12.779   3.194
55408SOL     OW68056  10.678   7.724   0.615
55408SOL    HW168057  10.727   7.792   0.569
55408SOL    HW268058  10.731   7.703   0.692
55409SOL     OW68059   3.162   8.972   1.543
55409SOL    HW168060   3.080   9.021   1.538
55409SOL    HW268061   3.135   8.883   1.568
55410SOL     OW68062   6.398  14.762   3.678
55410SOL    HW168063   6.377  14.814   3.756
55410SOL    HW268064   6.373  14.818   3.604
55411SOL     OW68065   0.336  10.645   4.603
55411SOL    HW168066   0.258  10.631   4.551
55411SOL    HW268067   0.375  10.725   4.568
55412SOL     OW68068  11.664  10.750   9.222
55412SOL    HW168069  11.741  10.738   9.166
55412SOL    HW268070  11.655  10.666   9.269
55413SOL     OW68071   0.004   6.387   1.278
55413SOL    HW168072  14.835   6.471   1.295
55413SOL    HW268073  14.830   6.325   1.334
55414SOL     OW68074  10.047   8.661   0.175
55414SOL    HW168075  10.007   8.724   0.115
55414SOL    HW268076   9.983   8.590   0.181
55415SOL     OW68077   4.764   9.831   3.292
55415SOL    HW168078   4.794   9.740   3.290
55415SOL    HW268079   4.821   9.877   3.231
55416SOL     OW68080   6.669   1.960   9.435
55416SOL    HW168081   6.645   1.949   9.343
55416SOL    HW268082   6.763   1.945   9.437
55417SOL     OW68083   9.014   8.740   6.204
55417SOL    HW168084   8.984   8.739   6.113
55417SOL    HW268085   9.110   8.741   6.197
55418SOL     OW68086   7.062   2.250   5.350
55418SOL    HW168087   7.064   2.314   5.421
55418SOL    HW268088   7.062   2.303   5.270
55419SOL     OW68089   9.375   2.326   8.560
55419SOL    HW168090   9.337   2.256   8.612
55419SOL    HW268091   9.445   2.284   8.511
55420SOL     OW68092  14.119   5.611  12.666
55420SOL    HW168093  14.074   5.541  12.713
55420SOL    HW268094  14.174   5.653  12.732
55421SOL     OW68095   6.468  14.836   9.352
55421SOL    HW168096   6.541   0.025   9.359
55421SOL    HW268097   6.416  14.853   9.431
55422SOL     OW68098  10.519  12.424  13.184
55422SOL    HW168099  10.591  12.385  13.233
55422SOL    HW268100  10.443  12.371  13.205
55423SOL     OW68101  12.001  12.064  10.341
55423SOL    HW168102  11.935  12.125  10.374
55423SOL    HW268103  11.951  11.988  10.311
55424SOL     OW68104  10.449   1.223  14.807
55424SOL    HW168105  10.479   1.216   0.025
55424SOL    HW268106  10.392   1.147  14.795
55425SOL     OW68107  11.289   4.932  12.779
55425SOL    HW168108  11.364   4.981  12.814
55425SOL    HW268109  11.314   4.910  12.689
55426SOL     OW68110   8.274   1.864   4.647
55426SOL    HW168111   8.237   1.869   4.559
55426SOL    HW268112   8.223   1.796   4.691
55427SOL     OW68113   5.515   9.823   3.931
55427SOL    HW168114   5.575   9.802   3.860
55427SOL    HW268115   5.461   9.745   3.943
55428SOL     OW68116  14.165  11.097   6.849
55428SOL    HW168117  14.254  11.094   6.813
55428SOL    HW268118  14.177  11.099   6.944
55429SOL     OW68119   0.525   9.563   2.509
55429SOL    HW168120   0.513   9.551   2.415
55429SOL    HW268121   0.487   9.649   2.527
55430SOL     OW68122   2.956   7.729   9.459
55430SOL    HW168123   3.031   7.698   9.408
55430SOL    HW268124   2.880   7.689   9.416
55431SOL     OW68125  14.102   7.097  14.468
55431SOL    HW168126  14.148   7.120  14.388
55431SOL    HW268127  14.138   7.011  14.492
55432SOL     OW68128  11.372  11.885   6.885
55432SOL    HW168129  11.369  11.905   6.978
55432SOL    HW268130  11.285  11.911   6.852
55433SOL     OW68131   5.653  10.248   6.888
55433SOL    HW168132   5.657  10.324   6.946
55433SOL    HW268133   5.594  10.187   6.931
55434SOL     OW68134   0.075  14.508   6.914
55434SOL    HW168135   0.045  14.544   6.998
55434SOL    HW268136   0.037  14.420   6.911
55435SOL     OW68137  11.555   1.977   7.021
55435SOL    HW168138  11.523   2.015   7.103
55435SOL    HW268139  11.650   1.981   7.029
55436SOL     OW68140   1.306   7.825   0.537
55436SOL    HW168141   1.273   7.869   0.458
55436SOL    HW268142   1.268   7.875   0.609
55437SOL     OW68143  11.948   3.696   8.247
55437SOL    HW168144  12.027   3.687   8.300
55437SOL    HW268145  11.897   3.618   8.266
55438SOL     OW68146   8.417  11.401   3.311
55438SOL    HW168147   8.376  11.473   3.359
55438SOL    HW268148   8.350  11.371   3.250
55439SOL     OW68149   2.962   9.853   0.361
55439SOL    HW168150   3.051   9.878   0.335
55439SOL    HW268151   2.973   9.813   0.447
55440SOL     OW68152   9.650   0.783   6.690
55440SOL    HW168153   9.609   0.790   6.604
55440SOL    HW268154   9.580   0.808   6.751
55441SOL     OW68155   8.208   9.243  12.659
55441SOL    HW168156   8.188   9.336  12.665
55441SOL    HW268157   8.243   9.231  12.570
55442SOL     OW68158   4.870   7.387   9.958
55442SOL    HW168159   4.941   7.325   9.940
55442SOL    HW268160   4.814   7.341  10.020
55443SOL     OW68161   1.391  11.389   9.452
55443SOL    HW168162   1.450  11.451   9.495
55443SOL    HW268163   1.303  11.422   9.471
55444SOL     OW68164  14.715  14.346   1.466
55444SOL    HW168165  14.751  14.277   1.410
55444SOL    HW268166  14.790  14.380   1.514
55445SOL     OW68167   9.073  12.583   4.075
55445SOL    HW168168   9.137  12.522   4.112
55445SOL    HW268169   8.991  12.533   4.071
55446SOL     OW68170   1.041  13.976  12.040
55446SOL    HW168171   1.046  13.931  12.124
55446SOL    HW268172   1.115  14.037  12.042
55447SOL     OW68173   7.161  13.723  11.908
55447SOL    HW168174   7.210  13.805  11.920
55447SOL    HW268175   7.083  13.735  11.962
55448SOL     OW68176   8.215  13.109   3.966
55448SOL    HW168177   8.218  13.186   4.023
55448SOL    HW268178   8.127  13.110   3.929
55449SOL     OW68179   6.948   5.800   5.766
55449SOL    HW168180   7.044   5.801   5.763
55449SOL    HW268181   6.927   5.721   5.815
55450SOL     OW68182   8.033  12.539   2.179
55450SOL    HW168183   8.098  12.473   2.152
55450SOL    HW268184   8.034  12.604   2.109
55451SOL     OW68185   6.318   2.988  12.753
55451SOL    HW168186   6.248   2.961  12.695
55451SOL    HW268187   6.358   3.064  12.710
55452SOL     OW68188  13.744  11.921   0.071
55452SOL    HW168189  13.652  11.923   0.047
55452SOL    HW268190  13.768  11.828   0.066
55453SOL     OW68191   9.436  10.365   4.613
55453SOL    HW168192   9.420  10.453   4.649
55453SOL    HW268193   9.350  10.324   4.611
55454SOL     OW68194   4.300   2.267  10.699
55454SOL    HW168195   4.394   2.247  10.705
55454SOL    HW268196   4.276   2.298  10.786
55455SOL     OW68197   9.467   2.437   2.756
55455SOL    HW168198   9.558   2.409   2.766
55455SOL    HW268199   9.426   2.370   2.702
55456SOL     OW68200   8.854   3.664   8.803
55456SOL    HW168201   8.844   3.571   8.780
55456SOL    HW268202   8.891   3.704   8.724
55457SOL     OW68203  12.603   5.718   8.850
55457SOL    HW168204  12.583   5.652   8.916
55457SOL    HW268205  12.524   5.724   8.797
55458SOL     OW68206   8.388   3.684  14.322
55458SOL    HW168207   8.448   3.686  14.397
55458SOL    HW268208   8.347   3.598  14.327
55459SOL     OW68209   7.383  12.245   9.882
55459SOL    HW168210   7.416  12.155   9.879
55459SOL    HW268211   7.461  12.300   9.874
55460SOL     OW68212   7.989  13.680   2.858
55460SOL    HW168213   7.918  13.617   2.848
55460SOL    HW268214   8.066  13.635   2.823
55461SOL     OW68215   5.357   4.349  10.791
55461SOL    HW168216   5.426   4.285  10.809
55461SOL    HW268217   5.395   4.433  10.814
55462SOL     OW68218  13.348   4.733   7.723
55462SOL    HW168219  13.317   4.795   7.657
55462SOL    HW268220  13.277   4.727   7.787
55463SOL     OW68221   0.683  11.267  12.891
55463SOL    HW168222   0.744  11.248  12.962
55463SOL    HW268223   0.721  11.344  12.848
55464SOL     OW68224  11.140  11.514   2.327
55464SOL    HW168225  11.087  11.577   2.279
55464SOL    HW268226  11.209  11.566   2.367
55465SOL     OW68227   9.189   0.453   6.383
55465SOL    HW168228   9.143   0.492   6.310
55465SOL    HW268229   9.140   0.481   6.460
55466SOL     OW68230  13.385  14.834  13.112
55466SOL    HW168231  13.305  14.793  13.078
55466SOL    HW268232  13.395   0.041  13.060
55467SOL     OW68233   5.616   6.257   8.948
55467SOL    HW168234   5.700   6.211   8.939
55467SOL    HW268235   5.621   6.329   8.885
55468SOL     OW68236   8.483   8.940   2.485
55468SOL    HW168237   8.478   8.879   2.411
55468SOL    HW268238   8.394   8.943   2.520
55469SOL     OW68239  14.855   0.122   6.080
55469SOL    HW168240  14.769   0.086   6.060
55469SOL    HW268241  14.865   0.196   6.021
55470SOL     OW68242   1.578   8.305   8.545
55470SOL    HW168243   1.667   8.321   8.578
55470SOL    HW268244   1.577   8.347   8.459
55471SOL     OW68245   2.695   2.168  13.074
55471SOL    HW168246   2.778   2.161  13.028
55471SOL    HW268247   2.681   2.263  13.083
55472SOL     OW68248  12.217   3.091   0.507
55472SOL    HW168249  12.243   3.050   0.424
55472SOL    HW268250  12.297   3.134   0.538
55473SOL     OW68251  13.937   8.426  13.384
55473SOL    HW168252  13.866   8.480  13.417
55473SOL    HW268253  13.968   8.472  13.306
55474SOL     OW68254  13.075   7.776  12.773
55474SOL    HW168255  13.079   7.836  12.698
55474SOL    HW268256  13.065   7.690  12.734
55475SOL     OW68257   9.252   7.661  11.278
55475SOL    HW168258   9.189   7.592  11.257
55475SOL    HW268259   9.336   7.628  11.246
55476SOL     OW68260   5.008   0.817   6.622
55476SOL    HW168261   4.976   0.844   6.708
55476SOL    HW268262   5.020   0.900   6.575
55477SOL     OW68263   7.652   1.102   3.909
55477SOL    HW168264   7.632   1.019   3.952
55477SOL    HW268265   7.747   1.108   3.911
55478SOL     OW68266  14.136   6.413  14.277
55478SOL    HW168267  14.207   6.427  14.341
55478SOL    HW268268  14.056   6.429  14.327
55479SOL     OW68269  12.707   7.618   7.533
55479SOL    HW168270  12.698   7.615   7.438
55479SOL    HW268271  12.724   7.710   7.553
55480SOL     OW68272   6.898  11.881   0.951
55480SOL    HW168273   6.836  11.823   0.907
55480SOL    HW268274   6.876  11.969   0.920
55481SOL     OW68275  14.441  10.336   4.859
55481SOL    HW168276  14.398  10.313   4.941
55481SOL    HW268277  14.371  10.375   4.806
55482SOL     OW68278   6.617   7.701   0.428
55482SOL    HW168279   6.666   7.773   0.387
55482SOL    HW268280   6.585   7.649   0.354
55483SOL     OW68281  13.039  14.602   1.254
55483SOL    HW168282  13.036  14.527   1.195
55483SOL    HW268283  13.100  14.575   1.323
55484SOL     OW68284   7.379  14.122   1.203
55484SOL    HW168285   7.377  14.075   1.120
55484SOL    HW268286   7.467  14.106   1.238
55485SOL     OW68287   5.341   1.808   0.328
55485SOL    HW168288   5.434   1.809   0.351
55485SOL    HW268289   5.302   1.747   0.391
55486SOL     OW68290   2.817  14.427   2.513
55486SOL    HW168291   2.860  14.346   2.540
55486SOL    HW268292   2.727  14.401   2.492
55487SOL     OW68293  11.867   5.956   7.870
55487SOL    HW168294  11.817   6.015   7.813
55487SOL    HW268295  11.926   6.013   7.919
55488SOL     OW68296   9.308   2.507   9.982
55488SOL    HW168297   9.364   2.584   9.996
55488SOL    HW268298   9.310   2.461  10.067
55489SOL     OW68299   3.288  12.238  11.339
55489SOL    HW168300   3.309  12.272  11.252
55489SOL    HW268301   3.223  12.299  11.374
55490SOL     OW68302   7.998  10.170   8.517
55490SOL    HW168303   8.084  10.186   8.478
55490SOL    HW268304   7.951  10.118   8.452
55491SOL     OW68305   3.585  12.558   4.616
55491SOL    HW168306   3.537  12.475   4.621
55491SOL    HW268307   3.584  12.591   4.706
55492SOL     OW68308  12.392   6.624   7.174
55492SOL    HW168309  12.374   6.542   7.129
55492SOL    HW268310  12.485   6.641   7.156
55493SOL     OW68311   4.970  14.627   8.553
55493SOL    HW168312   4.986  14.702   8.612
55493SOL    HW268313   4.875  14.623   8.546
55494SOL     OW68314  14.326   1.152   4.209
55494SOL    HW168315  14.414   1.189   4.203
55494SOL    HW268316  14.314   1.133   4.302
55495SOL     OW68317   9.997   3.914  13.086
55495SOL    HW168318   9.983   3.850  13.017
55495SOL    HW268319   9.974   3.868  13.167
55496SOL     OW68320   2.796   5.451   8.439
55496SOL    HW168321   2.819   5.483   8.351
55496SOL    HW268322   2.779   5.358   8.427
55497SOL     OW68323  13.385   5.011  11.097
55497SOL    HW168324  13.435   4.930  11.105
55497SOL    HW268325  13.309   4.998  11.153
55498SOL     OW68326   5.393   6.154  10.776
55498SOL    HW168327   5.327   6.123  10.714
55498SOL    HW268328   5.350   6.148  10.862
55499SOL     OW68329  12.757  10.726   8.451
55499SOL    HW168330  12.809  10.706   8.373
55499SOL    HW268331  12.822  10.737   8.520
55500SOL     OW68332  13.374   5.088   1.882
55500SOL    HW168333  13.426   5.043   1.948
55500SOL    HW268334  13.290   5.106   1.925
55501SOL     OW68335  11.143   3.710   7.775
55501SOL    HW168336  11.146   3.659   7.694
55501SOL    HW268337  11.106   3.794   7.749
55502SOL     OW68338   5.488  12.841   1.483
55502SOL    HW168339   5.577  12.867   1.461
55502SOL    HW268340   5.480  12.858   1.577
55503SOL     OW68341   4.644   1.966   7.218
55503SOL    HW168342   4.712   1.913   7.177
55503SOL    HW268343   4.570   1.963   7.157
55504SOL     OW68344   4.627   8.242  13.988
55504SOL    HW168345   4.592   8.153  13.984
55504SOL    HW268346   4.561   8.292  14.036
55505SOL     OW68347   0.409   6.340   1.724
55505SOL    HW168348   0.478   6.403   1.743
55505SOL    HW268349   0.371   6.369   1.641
55506SOL     OW68350  13.283  12.531  10.283
55506SOL    HW168351  13.287  12.625  10.263
55506SOL    HW268352  13.230  12.525  10.363
55507SOL     OW68353  13.747  11.711   1.702
55507SOL    HW168354  13.808  11.678   1.635
55507SOL    HW268355  13.751  11.646   1.772
55508SOL     OW68356   2.590   4.245  11.783
55508SOL    HW168357   2.529   4.201  11.725
55508SOL    HW268358   2.621   4.320  11.733
55509SOL     OW68359   5.774   8.901   6.452
55509SOL    HW168360   5.686   8.937   6.458
55509SOL    HW268361   5.785   8.851   6.533
55510SOL     OW68362   0.888  12.052   2.077
55510SOL    HW168363   0.813  12.104   2.051
55510SOL    HW268364   0.852  11.966   2.099
55511SOL     OW68365   5.772   6.395   4.884
55511SOL    HW168366   5.860   6.369   4.912
55511SOL    HW268367   5.768   6.371   4.791
55512SOL     OW68368   7.622  11.995   2.496
55512SOL    HW168369   7.559  12.039   2.438
55512SOL    HW268370   7.590  11.905   2.502
55513SOL     OW68371   5.777   7.128   8.942
55513SOL    HW168372   5.748   7.199   8.885
55513SOL    HW268373   5.819   7.172   9.016
55514SOL     OW68374   3.793   8.350  11.268
55514SOL    HW168375   3.873   8.378  11.223
55514SOL    HW268376   3.745   8.301  11.201
55515SOL     OW68377  13.453  12.667  11.893
55515SOL    HW168378  13.507  12.742  11.868
55515SOL    HW268379  13.429  12.627  11.809
55516SOL     OW68380   4.618   4.106   6.050
55516SOL    HW168381   4.688   4.170   6.033
55516SOL    HW268382   4.664   4.024   6.064
55517SOL     OW68383   9.198   3.157  14.009
55517SOL    HW168384   9.236   3.150  13.922
55517SOL    HW268385   9.222   3.245  14.039
55518SOL     OW68386   1.670  13.128  14.358
55518SOL    HW168387   1.633  13.210  14.326
55518SOL    HW268388   1.672  13.138  14.453
55519SOL     OW68389  12.708   2.943  12.114
55519SOL    HW168390  12.793   2.971  12.079
55519SOL    HW268391  12.728   2.862  12.162
55520SOL     OW68392   8.973   4.002  14.042
55520SOL    HW168393   8.920   4.080  14.055
55520SOL    HW268394   8.939   3.939  14.105
55521SOL     OW68395   5.610   0.912   6.686
55521SOL    HW168396   5.572   0.999   6.676
55521SOL    HW268397   5.673   0.905   6.613
55522SOL     OW68398   9.118   7.286   1.345
55522SOL    HW168399   9.167   7.281   1.427
55522SOL    HW268400   9.040   7.337   1.367
55523SOL     OW68401   8.761   7.346  14.354
55523SOL    HW168402   8.728   7.433  14.378
55523SOL    HW268403   8.701   7.285  14.396
55524SOL     OW68404   6.194  14.146  10.074
55524SOL    HW168405   6.228  14.064  10.109
55524SOL    HW268406   6.209  14.140   9.980
55525SOL     OW68407  11.015   0.885   2.475
55525SOL    HW168408  10.989   0.950   2.540
55525SOL    HW268409  10.945   0.886   2.411
55526SOL     OW68410   8.742   2.911   8.744
55526SOL    HW168411   8.691   2.930   8.823
55526SOL    HW268412   8.699   2.834   8.706
55527SOL     OW68413   8.370  12.118   6.964
55527SOL    HW168414   8.367  12.189   7.028
55527SOL    HW268415   8.280  12.109   6.933
55528SOL     OW68416   7.159  11.345   0.701
55528SOL    HW168417   7.153  11.357   0.795
55528SOL    HW268418   7.069  11.342   0.671
55529SOL     OW68419  11.966   1.183   0.233
55529SOL    HW168420  11.887   1.181   0.287
55529SOL    HW268421  12.033   1.140   0.286
55530SOL     OW68422   4.529   3.670   8.050
55530SOL    HW168423   4.596   3.738   8.041
55530SOL    HW268424   4.463   3.709   8.107
55531SOL     OW68425   7.414   8.862   8.948
55531SOL    HW168426   7.381   8.783   8.991
55531SOL    HW268427   7.413   8.841   8.855
55532SOL     OW68428  12.417   0.447   7.970
55532SOL    HW168429  12.330   0.487   7.971
55532SOL    HW268430  12.445   0.447   8.061
55533SOL     OW68431   7.163   5.391  12.916
55533SOL    HW168432   7.252   5.406  12.885
55533SOL    HW268433   7.119   5.349  12.843
55534SOL     OW68434   0.478   3.633   0.584
55534SOL    HW168435   0.471   3.685   0.504
55534SOL    HW268436   0.540   3.563   0.562
55535SOL     OW68437   6.021  13.652   5.578
55535SOL    HW168438   5.955  13.677   5.641
55535SOL    HW268439   6.021  13.556   5.579
55536SOL     OW68440  10.059   4.317   8.835
55536SOL    HW168441  10.121   4.304   8.763
55536SOL    HW268442   9.987   4.366   8.795
55537SOL     OW68443   2.175   7.513  14.839
55537SOL    HW168444   2.154   7.473   0.051
55537SOL    HW268445   2.157   7.443  14.775
55538SOL     OW68446  13.433   8.182   6.427
55538SOL    HW168447  13.453   8.235   6.350
55538SOL    HW268448  13.341   8.158   6.416
55539SOL     OW68449   5.344   2.293   4.264
55539SOL    HW168450   5.418   2.237   4.288
55539SOL    HW268451   5.357   2.373   4.315
55540SOL     OW68452  14.025  14.845   8.274
55540SOL    HW168453  14.059  14.829   8.186
55540SOL    HW268454  14.095  14.815   8.332
55541SOL     OW68455   9.511  13.621  10.026
55541SOL    HW168456   9.566  13.693  10.056
55541SOL    HW268457   9.461  13.658   9.953
55542SOL     OW68458   6.638   2.387   9.579
55542SOL    HW168459   6.633   2.426   9.492
55542SOL    HW268460   6.730   2.396   9.604
55543SOL     OW68461   5.831   6.242   4.660
55543SOL    HW168462   5.916   6.251   4.702
55543SOL    HW268463   5.829   6.151   4.629
55544SOL     OW68464   5.193   0.232   7.257
55544SOL    HW168465   5.210   0.138   7.254
55544SOL    HW268466   5.106   0.241   7.219
55545SOL     OW68467   8.357   0.993  10.069
55545SOL    HW168468   8.310   0.924  10.022
55545SOL    HW268469   8.299   1.015  10.143
55546SOL     OW68470   0.331   5.874  13.394
55546SOL    HW168471   0.323   5.927  13.314
55546SOL    HW268472   0.249   5.825  13.398
55547SOL     OW68473   0.490   7.531   7.786
55547SOL    HW168474   0.413   7.587   7.794
55547SOL    HW268475   0.555   7.572   7.842
55548SOL     OW68476  10.297   7.878  10.428
55548SOL    HW168477  10.284   7.950  10.366
55548SOL    HW268478  10.252   7.803  10.389
55549SOL     OW68479  12.579  13.103  11.846
55549SOL    HW168480  12.649  13.118  11.783
55549SOL    HW268481  12.505  13.071  11.794
55550SOL     OW68482   5.264   2.233  13.217
55550SOL    HW168483   5.236   2.185  13.139
55550SOL    HW268484   5.348   2.272  13.193
55551SOL     OW68485   7.020   0.137  13.941
55551SOL    HW168486   6.976   0.220  13.956
55551SOL    HW268487   7.074   0.124  14.018
55552SOL     OW68488  11.013   1.785  12.735
55552SOL    HW168489  10.941   1.723  12.749
55552SOL    HW268490  10.975   1.870  12.752
55553SOL     OW68491  10.295   2.762  11.089
55553SOL    HW168492  10.205   2.743  11.061
55553SOL    HW268493  10.339   2.792  11.009
55554SOL     OW68494   1.845  12.074  14.309
55554SOL    HW168495   1.774  12.037  14.256
55554SOL    HW268496   1.815  12.063  14.399
55555SOL     OW68497  11.004  12.130   1.189
55555SOL    HW168498  11.039  12.203   1.138
55555SOL    HW268499  10.910  12.131   1.172
55556SOL     OW68500   5.307   1.314   0.756
55556SOL    HW168501   5.310   1.402   0.720
55556SOL    HW268502   5.270   1.260   0.685
55557SOL     OW68503   1.406   5.014  12.112
55557SOL    HW168504   1.436   4.986  12.198
55557SOL    HW268505   1.336   5.077  12.131
55558SOL     OW68506   8.986   2.180  13.679
55558SOL    HW168507   9.038   2.252  13.644
55558SOL    HW268508   8.928   2.221  13.743
55559SOL     OW68509   0.704   1.115  13.299
55559SOL    HW168510   0.697   1.198  13.252
55559SOL    HW268511   0.692   1.139  13.391
55560SOL     OW68512  11.187  12.930   7.955
55560SOL    HW168513  11.185  12.944   7.860
55560SOL    HW268514  11.271  12.968   7.982
55561SOL     OW68515   1.278  10.285  14.207
55561SOL    HW168516   1.323  10.369  14.197
55561SOL    HW268517   1.212  10.285  14.138
55562SOL     OW68518  14.828  11.626   8.102
55562SOL    HW168519   0.037  11.601   8.145
55562SOL    HW268520  14.824  11.721   8.113
55563SOL     OW68521   8.253  10.879  12.377
55563SOL    HW168522   8.212  10.832  12.449
55563SOL    HW268523   8.260  10.969  12.408
55564SOL     OW68524   9.827   9.693  10.584
55564SOL    HW168525   9.854   9.609  10.622
55564SOL    HW268526   9.848   9.685  10.491
55565SOL     OW68527   1.244  13.805  13.301
55565SOL    HW168528   1.304  13.878  13.314
55565SOL    HW268529   1.163  13.832  13.343
55566SOL     OW68530  11.637   1.890   5.057
55566SOL    HW168531  11.681   1.965   5.097
55566SOL    HW268532  11.579   1.857   5.125
55567SOL     OW68533   8.707   4.075   8.475
55567SOL    HW168534   8.739   4.062   8.386
55567SOL    HW268535   8.614   4.050   8.471
55568SOL     OW68536  11.929   5.299  12.894
55568SOL    HW168537  11.895   5.304  12.805
55568SOL    HW268538  11.902   5.213  12.926
55569SOL     OW68539   1.116  10.922   1.388
55569SOL    HW168540   1.190  10.964   1.431
55569SOL    HW268541   1.144  10.910   1.298
55570SOL     OW68542   4.738   0.148  11.175
55570SOL    HW168543   4.725   0.067  11.125
55570SOL    HW268544   4.816   0.131  11.227
55571SOL     OW68545  11.142   5.077   2.851
55571SOL    HW168546  11.107   5.089   2.940
55571SOL    HW268547  11.218   5.135   2.848
55572SOL     OW68548  13.918   7.890  10.837
55572SOL    HW168549  13.933   7.805  10.795
55572SOL    HW268550  13.918   7.953  10.764
55573SOL     OW68551  12.763   4.782   3.105
55573SOL    HW168552  12.839   4.841   3.110
55573SOL    HW268553  12.797   4.704   3.062
55574SOL     OW68554   5.445  10.237   2.334
55574SOL    HW168555   5.381  10.303   2.361
55574SOL    HW268556   5.431  10.164   2.393
55575SOL     OW68557   2.045  10.122   8.112
55575SOL    HW168558   1.950  10.127   8.124
55575SOL    HW268559   2.078  10.204   8.149
55576SOL     OW68560   4.170   3.344   3.285
55576SOL    HW168561   4.181   3.438   3.272
55576SOL    HW268562   4.254   3.306   3.261
55577SOL     OW68563  12.801  14.565  10.758
55577SOL    HW168564  12.780  14.609  10.840
55577SOL    HW268565  12.809  14.472  10.782
55578SOL     OW68566  10.174  12.977   2.640
55578SOL    HW168567  10.226  13.036   2.695
55578SOL    HW268568  10.137  13.033   2.572
55579SOL     OW68569  11.436   5.344  12.017
55579SOL    HW168570  11.484   5.261  12.023
55579SOL    HW268571  11.448   5.385  12.103
55580SOL     OW68572  11.753   4.383  10.239
55580SOL    HW168573  11.690   4.424  10.298
55580SOL    HW268574  11.821   4.349  10.298
55581SOL     OW68575   8.551   3.482  10.446
55581SOL    HW168576   8.560   3.560  10.391
55581SOL    HW268577   8.581   3.410  10.389
55582SOL     OW68578   4.794   5.560  13.542
55582SOL    HW168579   4.868   5.613  13.572
55582SOL    HW268580   4.833   5.498  13.480
55583SOL     OW68581   1.607  10.756  10.618
55583SOL    HW168582   1.637  10.847  10.621
55583SOL    HW268583   1.596  10.731  10.709
55584SOL     OW68584   1.317   6.921   9.132
55584SOL    HW168585   1.383   6.880   9.076
55584SOL    HW268586   1.305   7.009   9.096
55585SOL     OW68587   3.292   9.894   8.148
55585SOL    HW168588   3.264   9.833   8.079
55585SOL    HW268589   3.263   9.853   8.230
55586SOL     OW68590  11.879   7.380   6.839
55586SOL    HW168591  11.826   7.381   6.918
55586SOL    HW268592  11.936   7.456   6.847
55587SOL     OW68593  10.616  10.525   9.108
55587SOL    HW168594  10.643  10.433   9.105
55587SOL    HW268595  10.521  10.522   9.094
55588SOL     OW68596   8.170   3.958   6.482
55588SOL    HW168597   8.157   3.943   6.576
55588SOL    HW268598   8.084   3.946   6.443
55589SOL     OW68599   7.255   4.518  10.267
55589SOL    HW168600   7.178   4.472  10.235
55589SOL    HW268601   7.233   4.610  10.259
55590SOL     OW68602   9.127  10.412   6.771
55590SOL    HW168603   9.205  10.377   6.728
55590SOL    HW268604   9.061  10.416   6.702
55591SOL     OW68605  13.145  13.330  10.303
55591SOL    HW168606  13.088  13.310  10.377
55591SOL    HW268607  13.186  13.413  10.327
55592SOL     OW68608   6.656   6.604   5.230
55592SOL    HW168609   6.573   6.558   5.247
55592SOL    HW268610   6.693   6.620   5.317
55593SOL     OW68611   3.221   8.645   9.445
55593SOL    HW168612   3.248   8.728   9.405
55593SOL    HW268613   3.154   8.611   9.386
55594SOL     OW68614   2.835  13.571   3.911
55594SOL    HW168615   2.918  13.581   3.864
55594SOL    HW268616   2.822  13.655   3.956
55595SOL     OW68617   1.685   4.971   1.155
55595SOL    HW168618   1.667   5.049   1.103
55595SOL    HW268619   1.770   4.988   1.197
55596SOL     OW68620   1.126   2.367  11.383
55596SOL    HW168621   1.037   2.333  11.392
55596SOL    HW268622   1.182   2.290  11.389
55597SOL     OW68623   4.859   8.607   0.493
55597SOL    HW168624   4.774   8.591   0.454
55597SOL    HW268625   4.846   8.592   0.587
55598SOL     OW68626  11.339   2.567   7.164
55598SOL    HW168627  11.279   2.587   7.236
55598SOL    HW268628  11.318   2.633   7.097
55599SOL     OW68629   4.239  10.494   8.954
55599SOL    HW168630   4.264  10.585   8.940
55599SOL    HW268631   4.292  10.466   9.029
55600SOL     OW68632   4.592   8.220   8.754
55600SOL    HW168633   4.632   8.270   8.825
55600SOL    HW268634   4.551   8.287   8.698
55601SOL     OW68635   2.350   8.468  14.521
55601SOL    HW168636   2.410   8.428  14.459
55601SOL    HW268637   2.406   8.519  14.579
55602SOL     OW68638  14.486  12.543   7.299
55602SOL    HW168639  14.506  12.597   7.223
55602SOL    HW268640  14.396  12.514   7.286
55603SOL     OW68641   2.732  11.568  11.143
55603SOL    HW168642   2.662  11.570  11.077
55603SOL    HW268643   2.808  11.536  11.095
55604SOL     OW68644  10.206   2.042  10.971
55604SOL    HW168645  10.161   2.055  11.055
55604SOL    HW268646  10.292   2.008  10.995
55605SOL     OW68647  10.384   2.318   2.038
55605SOL    HW168648  10.326   2.365   2.098
55605SOL    HW268649  10.465   2.368   2.038
55606SOL     OW68650  14.197  10.641   7.428
55606SOL    HW168651  14.252  10.653   7.351
55606SOL    HW268652  14.251  10.672   7.501
55607SOL     OW68653  14.220   2.206  10.852
55607SOL    HW168654  14.207   2.140  10.784
55607SOL    HW268655  14.155   2.185  10.919
55608SOL     OW68656   0.257   3.533   5.399
55608SOL    HW168657   0.169   3.553   5.432
55608SOL    HW268658   0.308   3.513   5.477
55609SOL     OW68659   9.221  13.745  13.915
55609SOL    HW168660   9.279  13.697  13.857
55609SOL    HW268661   9.186  13.815  13.861
55610SOL     OW68662   7.413   3.351   7.670
55610SOL    HW168663   7.382   3.362   7.581
55610SOL    HW268664   7.388   3.432   7.714
55611SOL     OW68665  13.860   6.352   0.474
55611SOL    HW168666  13.791   6.356   0.408
55611SOL    HW268667  13.880   6.259   0.482
55612SOL     OW68668   9.536   2.003  10.235
55612SOL    HW168669   9.444   1.987  10.214
55612SOL    HW268670   9.568   1.919  10.267
55613SOL     OW68671  10.266  10.743   8.822
55613SOL    HW168672  10.185  10.694   8.804
55613SOL    HW268673  10.236  10.833   8.833
55614SOL     OW68674  11.913   5.496   1.238
55614SOL    HW168675  12.001   5.515   1.204
55614SOL    HW268676  11.916   5.524   1.329
55615SOL     OW68677   8.511  11.152  14.637
55615SOL    HW168678   8.526  11.170  14.730
55615SOL    HW268679   8.549  11.065  14.624
55616SOL     OW68680   0.515   6.957   6.421
55616SOL    HW168681   0.476   7.033   6.463
55616SOL    HW268682   0.589   6.993   6.370
55617SOL     OW68683   3.302  11.023  10.349
55617SOL    HW168684   3.378  10.988  10.396
55617SOL    HW268685   3.332  11.108  10.316
55618SOL     OW68686   9.188  11.661   4.895
55618SOL    HW168687   9.183  11.698   4.982
55618SOL    HW268688   9.141  11.577   4.901
55619SOL     OW68689  10.552   3.354   6.533
55619SOL    HW168690  10.517   3.443   6.541
55619SOL    HW268691  10.482   3.306   6.489
55620SOL     OW68692  14.233   2.981   3.190
55620SOL    HW168693  14.190   2.896   3.184
55620SOL    HW268694  14.314   2.970   3.141
55621SOL     OW68695  10.319   1.883   3.574
55621SOL    HW168696  10.336   1.932   3.493
55621SOL    HW268697  10.277   1.946   3.632
55622SOL     OW68698   7.829  13.775  11.119
55622SOL    HW168699   7.756  13.779  11.058
55622SOL    HW268700   7.877  13.857  11.105
55623SOL     OW68701   6.768  13.849   1.826
55623SOL    HW168702   6.767  13.914   1.755
55623SOL    HW268703   6.805  13.771   1.786
55624SOL     OW68704   9.316   3.852   7.831
55624SOL    HW168705   9.352   3.780   7.780
55624SOL    HW268706   9.270   3.907   7.768
55625SOL     OW68707   8.940   0.699   1.734
55625SOL    HW168708   8.885   0.754   1.789
55625SOL    HW268709   9.017   0.681   1.788
55626SOL     OW68710   3.344   5.779   6.417
55626SOL    HW168711   3.364   5.867   6.387
55626SOL    HW268712   3.381   5.722   6.349
55627SOL     OW68713   4.855  13.518  14.662
55627SOL    HW168714   4.887  13.446  14.608
55627SOL    HW268715   4.785  13.558  14.609
55628SOL     OW68716   4.277  11.824   4.588
55628SOL    HW168717   4.371  11.840   4.600
55628SOL    HW268718   4.272  11.740   4.542
55629SOL     OW68719   1.532   4.675   3.886
55629SOL    HW168720   1.592   4.712   3.951
55629SOL    HW268721   1.450   4.723   3.898
55630SOL     OW68722  11.494  13.460   3.770
55630SOL    HW168723  11.563  13.394   3.775
55630SOL    HW268724  11.533  13.532   3.720
55631SOL     OW68725   0.823   6.484  14.675
55631SOL    HW168726   0.797   6.555  14.616
55631SOL    HW268727   0.904   6.515  14.716
55632SOL     OW68728   6.904   7.187   0.762
55632SOL    HW168729   6.942   7.112   0.808
55632SOL    HW268730   6.938   7.180   0.673
55633SOL     OW68731   7.488   4.699  13.214
55633SOL    HW168732   7.397   4.669  13.217
55633SOL    HW268733   7.487   4.783  13.260
55634SOL     OW68734   0.378   6.341   2.226
55634SOL    HW168735   0.427   6.355   2.145
55634SOL    HW268736   0.373   6.428   2.266
55635SOL     OW68737   4.222   9.169  13.848
55635SOL    HW168738   4.138   9.167  13.802
55635SOL    HW268739   4.210   9.112  13.924
55636SOL     OW68740   2.953   8.276   8.512
55636SOL    HW168741   2.965   8.187   8.478
55636SOL    HW268742   2.978   8.333   8.440
55637SOL     OW68743  13.783   7.106   0.612
55637SOL    HW168744  13.724   7.135   0.542
55637SOL    HW268745  13.838   7.040   0.571
55638SOL     OW68746   7.107   4.779  11.421
55638SOL    HW168747   7.051   4.784  11.343
55638SOL    HW268748   7.088   4.692  11.458
55639SOL     OW68749  14.520  10.633   2.166
55639SOL    HW168750  14.613  10.611   2.170
55639SOL    HW268751  14.478  10.553   2.135
55640SOL     OW68752  13.645   9.348   6.445
55640SOL    HW168753  13.717   9.397   6.485
55640SOL    HW268754  13.589   9.415   6.406
55641SOL     OW68755   2.541   9.340  11.883
55641SOL    HW168756   2.522   9.433  11.877
55641SOL    HW268757   2.579   9.318  11.798
55642SOL     OW68758   3.823   5.074  10.781
55642SOL    HW168759   3.755   5.126  10.825
55642SOL    HW268760   3.903   5.125  10.793
55643SOL     OW68761  11.478   5.606   4.276
55643SOL    HW168762  11.536   5.530   4.268
55643SOL    HW268763  11.457   5.610   4.369
55644SOL     OW68764  11.863   9.138  12.657
55644SOL    HW168765  11.919   9.063  12.637
55644SOL    HW268766  11.906   9.182  12.730
55645SOL     OW68767   5.925  11.075   8.127
55645SOL    HW168768   5.952  11.160   8.092
55645SOL    HW268769   5.883  11.031   8.054
55646SOL     OW68770  12.395  12.621   7.784
55646SOL    HW168771  12.329  12.641   7.718
55646SOL    HW268772  12.440  12.544   7.750
55647SOL     OW68773  13.102   8.851   5.516
55647SOL    HW168774  13.194   8.877   5.522
55647SOL    HW268775  13.101   8.759   5.542
55648SOL     OW68776  14.089   1.540  10.097
55648SOL    HW168777  14.015   1.590  10.130
55648SOL    HW268778  14.112   1.481  10.169
55649SOL     OW68779  14.207   1.598   6.445
55649SOL    HW168780  14.165   1.590   6.530
55649SOL    HW268781  14.141   1.640   6.389
55650SOL     OW68782  12.157   9.615  12.254
55650SOL    HW168783  12.145   9.576  12.340
55650SOL    HW268784  12.117   9.702  12.261
55651SOL     OW68785   8.197   1.338   4.314
55651SOL    HW168786   8.286   1.373   4.306
55651SOL    HW268787   8.173   1.355   4.406
55652SOL     OW68788   2.527  14.225   0.787
55652SOL    HW168789   2.584  14.189   0.719
55652SOL    HW268790   2.500  14.311   0.752
55653SOL     OW68791   8.251   8.984   4.991
55653SOL    HW168792   8.314   9.038   4.944
55653SOL    HW268793   8.199   8.942   4.923
55654SOL     OW68794  10.279  10.304   8.126
55654SOL    HW168795  10.190  10.299   8.091
55654SOL    HW268796  10.300  10.213   8.150
55655SOL     OW68797  14.455   0.561   9.784
55655SOL    HW168798  14.442   0.587   9.875
55655SOL    HW268799  14.468   0.644   9.737
55656SOL     OW68800   0.833  13.911   2.068
55656SOL    HW168801   0.852  13.924   2.161
55656SOL    HW268802   0.912  13.942   2.023
55657SOL     OW68803   6.916  12.887   1.994
55657SOL    HW168804   6.894  12.817   1.933
55657SOL    HW268805   6.946  12.842   2.073
55658SOL     OW68806  13.170  12.845   1.723
55658SOL    HW168807  13.238  12.869   1.661
55658SOL    HW268808  13.217  12.813   1.800
55659SOL     OW68809   8.040   6.119   2.437
55659SOL    HW168810   8.022   6.076   2.354
55659SOL    HW268811   7.982   6.076   2.500
55660SOL     OW68812   4.819   8.435  13.503
55660SOL    HW168813   4.791   8.440  13.595
55660SOL    HW268814   4.847   8.344  13.491
55661SOL     OW68815   3.299  10.102   9.385
55661SOL    HW168816   3.350  10.150   9.450
55661SOL    HW268817   3.218  10.078   9.432
55662SOL     OW68818  10.883   9.875   3.004
55662SOL    HW168819  10.958   9.934   3.005
55662SOL    HW268820  10.912   9.799   3.053
55663SOL     OW68821   5.516   8.812   7.754
55663SOL    HW168822   5.472   8.733   7.723
55663SOL    HW268823   5.446   8.868   7.786
55664SOL     OW68824  12.172  13.669  14.529
55664SOL    HW168825  12.217  13.717  14.460
55664SOL    HW268826  12.110  13.612  14.483
55665SOL     OW68827  12.301  11.008   6.269
55665SOL    HW168828  12.396  10.998   6.270
55665SOL    HW268829  12.268  10.920   6.289
55666SOL     OW68830  11.270   2.346   7.863
55666SOL    HW168831  11.191   2.347   7.918
55666SOL    HW268832  11.242   2.388   7.781
55667SOL     OW68833   5.462  12.632   4.824
55667SOL    HW168834   5.487  12.691   4.753
55667SOL    HW268835   5.410  12.563   4.782
55668SOL     OW68836   4.564   0.685   1.818
55668SOL    HW168837   4.595   0.646   1.900
55668SOL    HW268838   4.567   0.779   1.833
55669SOL     OW68839  10.775   1.986   2.355
55669SOL    HW168840  10.698   1.954   2.402
55669SOL    HW268841  10.844   1.989   2.422
55670SOL     OW68842   3.991   7.977   0.253
55670SOL    HW168843   4.013   8.070   0.252
55670SOL    HW268844   3.918   7.970   0.314
55671SOL     OW68845   7.902   6.108  13.031
55671SOL    HW168846   7.970   6.130  12.967
55671SOL    HW268847   7.947   6.052  13.095
55672SOL     OW68848   2.346   8.190  13.214
55672SOL    HW168849   2.342   8.192  13.118
55672SOL    HW268850   2.293   8.264  13.241
55673SOL     OW68851   1.976  12.070  13.241
55673SOL    HW168852   2.045  12.087  13.304
55673SOL    HW268853   2.009  11.997  13.188
55674SOL     OW68854  11.559  11.365   1.582
55674SOL    HW168855  11.514  11.282   1.566
55674SOL    HW268856  11.644  11.340   1.618
55675SOL     OW68857  13.736   6.452  14.623
55675SOL    HW168858  13.700   6.400  14.551
55675SOL    HW268859  13.692   6.537  14.615
55676SOL     OW68860   3.372  13.084   6.957
55676SOL    HW168861   3.339  13.166   6.920
55676SOL    HW268862   3.457  13.107   6.996
55677SOL     OW68863  13.840  10.160  12.006
55677SOL    HW168864  13.911  10.104  11.975
55677SOL    HW268865  13.762  10.126  11.962
55678SOL     OW68866  13.250   2.918  13.157
55678SOL    HW168867  13.170   2.971  13.161
55678SOL    HW268868  13.237   2.862  13.081
55679SOL     OW68869  12.003   8.172   4.071
55679SOL    HW168870  11.994   8.080   4.098
55679SOL    HW268871  11.924   8.215   4.104
55680SOL     OW68872  14.808   6.521  13.031
55680SOL    HW168873  14.763   6.527  12.947
55680SOL    HW268874   0.003   6.588  13.027
55681SOL     OW68875  11.071   1.758  13.543
55681SOL    HW168876  11.158   1.775  13.505
55681SOL    HW268877  11.046   1.841  13.583
55682SOL     OW68878   5.551   4.724   2.906
55682SOL    HW168879   5.498   4.664   2.854
55682SOL    HW268880   5.503   4.807   2.904
55683SOL     OW68881  11.417   2.125   1.022
55683SOL    HW168882  11.448   2.212   0.998
55683SOL    HW268883  11.355   2.140   1.094
55684SOL     OW68884   1.929   0.932  13.979
55684SOL    HW168885   1.979   0.852  13.995
55684SOL    HW268886   1.988   1.003  14.005
55685SOL     OW68887   9.813   0.117  14.854
55685SOL    HW168888   9.834   0.032   0.021
55685SOL    HW268889   9.896   0.146  14.815
55686SOL     OW68890   4.424   4.237   5.549
55686SOL    HW168891   4.340   4.218   5.507
55686SOL    HW268892   4.471   4.291   5.484
55687SOL     OW68893   5.400  13.968   5.963
55687SOL    HW168894   5.342  14.036   5.998
55687SOL    HW268895   5.350  13.929   5.891
55688SOL     OW68896   5.453   2.603   3.533
55688SOL    HW168897   5.455   2.540   3.461
55688SOL    HW268898   5.393   2.563   3.597
55689SOL     OW68899  12.077   3.868   2.117
55689SOL    HW168900  12.126   3.930   2.171
55689SOL    HW268901  12.136   3.792   2.109
55690SOL     OW68902   5.927  11.582   7.265
55690SOL    HW168903   5.976  11.571   7.184
55690SOL    HW268904   5.883  11.498   7.279
55691SOL     OW68905  13.259   1.948   3.207
55691SOL    HW168906  13.323   1.879   3.223
55691SOL    HW268907  13.304   2.009   3.149
55692SOL     OW68908   7.842  13.686   9.862
55692SOL    HW168909   7.899  13.644   9.926
55692SOL    HW268910   7.850  13.631   9.784
55693SOL     OW68911   7.751  10.139  13.247
55693SOL    HW168912   7.836  10.169  13.215
55693SOL    HW268913   7.719  10.210  13.302
55694SOL     OW68914  14.686   2.183   9.291
55694SOL    HW168915  14.757   2.244   9.271
55694SOL    HW268916  14.657   2.151   9.205
55695SOL     OW68917   8.148   1.106   5.160
55695SOL    HW168918   8.114   1.098   5.249
55695SOL    HW268919   8.085   1.060   5.106
55696SOL     OW68920   3.753  12.751   9.445
55696SOL    HW168921   3.723  12.661   9.455
55696SOL    HW268922   3.848  12.744   9.435
55697SOL     OW68923   3.468  12.480   7.727
55697SOL    HW168924   3.459  12.575   7.731
55697SOL    HW268925   3.524  12.464   7.651
55698SOL     OW68926   4.124  14.480   3.629
55698SOL    HW168927   4.206  14.528   3.632
55698SOL    HW268928   4.065  14.530   3.686
55699SOL     OW68929   8.056   6.697   2.875
55699SOL    HW168930   8.100   6.782   2.878
55699SOL    HW268931   7.972   6.712   2.919
55700SOL     OW68932  12.876   7.655   1.812
55700SOL    HW168933  12.792   7.699   1.799
55700SOL    HW268934  12.898   7.670   1.904
55701SOL     OW68935   2.892   4.814   7.077
55701SOL    HW168936   2.806   4.781   7.051
55701SOL    HW268937   2.909   4.887   7.018
55702SOL     OW68938  11.993   8.797   9.966
55702SOL    HW168939  12.041   8.798  10.049
55702SOL    HW268940  11.937   8.720   9.972
55703SOL     OW68941   5.294   6.963   1.541
55703SOL    HW168942   5.210   6.955   1.495
55703SOL    HW268943   5.309   6.876   1.578
55704SOL     OW68944  11.849  11.439   3.407
55704SOL    HW168945  11.846  11.469   3.316
55704SOL    HW268946  11.942  11.435   3.428
55705SOL     OW68947   0.142   4.400   5.999
55705SOL    HW168948   0.150   4.397   6.094
55705SOL    HW268949   0.209   4.339   5.968
55706SOL     OW68950   4.528   8.468   8.608
55706SOL    HW168951   4.536   8.456   8.513
55706SOL    HW268952   4.526   8.563   8.621
55707SOL     OW68953   9.232   2.665   5.505
55707SOL    HW168954   9.199   2.748   5.472
55707SOL    HW268955   9.290   2.632   5.436
55708SOL     OW68956   2.852   8.900   0.494
55708SOL    HW168957   2.918   8.857   0.548
55708SOL    HW268958   2.846   8.989   0.529
55709SOL     OW68959   3.783  12.576   5.261
55709SOL    HW168960   3.875  12.581   5.288
55709SOL    HW268961   3.786  12.542   5.172
55710SOL     OW68962   4.336  10.105   1.004
55710SOL    HW168963   4.275  10.032   1.015
55710SOL    HW268964   4.328  10.156   1.085
55711SOL     OW68965  10.195  12.374   0.101
55711SOL    HW168966  10.258  12.324   0.152
55711SOL    HW268967  10.236  12.382   0.014
55712SOL     OW68968   4.591  12.509   6.522
55712SOL    HW168969   4.683  12.518   6.500
55712SOL    HW268970   4.548  12.486   6.439
55713SOL     OW68971   3.721  12.697   1.258
55713SOL    HW168972   3.724  12.728   1.349
55713SOL    HW268973   3.786  12.627   1.255
55714SOL     OW68974  11.929   4.257  13.956
55714SOL    HW168975  11.851   4.284  14.005
55714SOL    HW268976  11.903   4.175  13.914
55715SOL     OW68977   7.983  11.267   0.363
55715SOL    HW168978   8.053  11.263   0.428
55715SOL    HW268979   7.903  11.250   0.413
55716SOL     OW68980   5.355  10.424  13.767
55716SOL    HW168981   5.361  10.425  13.863
55716SOL    HW268982   5.395  10.506  13.739
55717SOL     OW68983  14.437   0.018   2.825
55717SOL    HW168984  14.531   0.002   2.817
55717SOL    HW268985  14.403  14.814   2.870
55718SOL     OW68986   0.087   1.520  13.394
55718SOL    HW168987   0.124   1.562  13.316
55718SOL    HW268988   0.090   1.426  13.374
55719SOL     OW68989  10.942   8.018   9.404
55719SOL    HW168990  11.008   8.077   9.368
55719SOL    HW268991  10.914   7.965   9.329
55720SOL     OW68992  13.501  10.259  12.797
55720SOL    HW168993  13.503  10.217  12.711
55720SOL    HW268994  13.568  10.327  12.792
55721SOL     OW68995   9.974  10.402  13.850
55721SOL    HW168996  10.031  10.399  13.927
55721SOL    HW268997  10.018  10.346  13.786
55722SOL     OW68998  12.576   0.314   8.196
55722SOL    HW168999  12.597   0.260   8.121
55722SOL    HW269000  12.657   0.317   8.248
55723SOL     OW69001   4.497   5.637   4.078
55723SOL    HW169002   4.481   5.623   3.985
55723SOL    HW269003   4.410   5.646   4.116
55724SOL     OW69004  14.370  13.461   0.235
55724SOL    HW169005  14.354  13.438   0.326
55724SOL    HW269006  14.358  13.379   0.187
55725SOL     OW69007   2.583   6.328  10.147
55725SOL    HW169008   2.509   6.282  10.110
55725SOL    HW269009   2.561   6.340  10.239
55726SOL     OW69010   7.619  10.217  10.798
55726SOL    HW169011   7.582  10.223  10.711
55726SOL    HW269012   7.557  10.164  10.848
55727SOL     OW69013   1.353  11.565   6.204
55727SOL    HW169014   1.287  11.588   6.270
55727SOL    HW269015   1.316  11.489   6.159
55728SOL     OW69016  11.359  13.846   8.610
55728SOL    HW169017  11.418  13.791   8.559
55728SOL    HW269018  11.400  13.853   8.696
55729SOL     OW69019  13.696   1.920   1.630
55729SOL    HW169020  13.782   1.880   1.629
55729SOL    HW269021  13.713   2.014   1.639
55730SOL     OW69022  11.834   2.342   4.542
55730SOL    HW169023  11.843   2.247   4.542
55730SOL    HW269024  11.763   2.359   4.480
55731SOL     OW69025   3.185  13.291  14.071
55731SOL    HW169026   3.193  13.347  14.148
55731SOL    HW269027   3.099  13.310  14.035
55732SOL     OW69028  13.065  10.521  11.621
55732SOL    HW169029  13.022  10.443  11.587
55732SOL    HW269030  13.147  10.527  11.572
55733SOL     OW69031   2.119   5.660   8.453
55733SOL    HW169032   2.077   5.741   8.424
55733SOL    HW269033   2.139   5.676   8.546
55734SOL     OW69034   4.673   3.599  14.492
55734SOL    HW169035   4.703   3.668  14.551
55734SOL    HW269036   4.588   3.572  14.529
55735SOL     OW69037  10.498  14.798   4.010
55735SOL    HW169038  10.488  14.705   3.989
55735SOL    HW269039  10.409  14.829   4.026
55736SOL     OW69040  11.562   5.296   1.779
55736SOL    HW169041  11.539   5.336   1.695
55736SOL    HW269042  11.521   5.352   1.844
55737SOL     OW69043   9.252   2.957  11.227
55737SOL    HW169044   9.347   2.967  11.225
55737SOL    HW269045   9.218   3.045  11.244
55738SOL     OW69046   0.346   9.694   3.859
55738SOL    HW169047   0.390   9.775   3.884
55738SOL    HW269048   0.402   9.655   3.792
55739SOL     OW69049   4.949  11.612  14.542
55739SOL    HW169050   4.998  11.664  14.606
55739SOL    HW269051   4.939  11.526  14.583
55740SOL     OW69052  14.316  12.264   1.785
55740SOL    HW169053  14.274  12.252   1.700
55740SOL    HW269054  14.302  12.181   1.831
55741SOL     OW69055  10.409   7.861   2.281
55741SOL    HW169056  10.361   7.847   2.362
55741SOL    HW269057  10.501   7.855   2.307
55742SOL     OW69058   9.575   9.942   3.984
55742SOL    HW169059   9.506   9.905   4.040
55742SOL    HW269060   9.543   9.929   3.895
55743SOL     OW69061   1.164  13.804  12.529
55743SOL    HW169062   1.104  13.734  12.555
55743SOL    HW269063   1.237  13.796  12.591
55744SOL     OW69064  13.179   8.068   1.206
55744SOL    HW169065  13.170   8.032   1.118
55744SOL    HW269066  13.230   8.001   1.254
55745SOL     OW69067  14.686  11.702  10.394
55745SOL    HW169068  14.620  11.634  10.409
55745SOL    HW269069  14.703  11.698  10.300
55746SOL     OW69070   1.601  12.520   4.252
55746SOL    HW169071   1.592  12.592   4.190
55746SOL    HW269072   1.516  12.513   4.295
55747SOL     OW69073  11.993   3.641   7.440
55747SOL    HW169074  12.059   3.581   7.405
55747SOL    HW269075  12.007   3.639   7.535
55748SOL     OW69076   2.558   4.751  10.202
55748SOL    HW169077   2.639   4.760  10.153
55748SOL    HW269078   2.584   4.755  10.294
55749SOL     OW69079   0.853   9.747  12.114
55749SOL    HW169080   0.884   9.667  12.070
55749SOL    HW269081   0.932   9.798  12.128
55750SOL     OW69082   2.078  14.504  12.965
55750SOL    HW169083   2.120  14.499  13.050
55750SOL    HW269084   2.123  14.438  12.912
55751SOL     OW69085  13.803   9.907  14.072
55751SOL    HW169086  13.869   9.859  14.023
55751SOL    HW269087  13.720   9.880  14.033
55752SOL     OW69088   5.934   3.926   2.365
55752SOL    HW169089   6.014   3.976   2.348
55752SOL    HW269090   5.868   3.992   2.385
55753SOL     OW69091   9.003   2.027   7.816
55753SOL    HW169092   8.931   2.080   7.781
55753SOL    HW269093   8.985   1.939   7.782
55754SOL     OW69094  12.480  12.895   5.938
55754SOL    HW169095  12.564  12.924   5.972
55754SOL    HW269096  12.416  12.936   5.996
55755SOL     OW69097   0.735  13.758  10.889
55755SOL    HW169098   0.699  13.670  10.903
55755SOL    HW269099   0.824  13.753  10.923
55756SOL     OW69100   0.331   1.091   8.835
55756SOL    HW169101   0.250   1.059   8.794
55756SOL    HW269102   0.308   1.102   8.927
55757SOL     OW69103   9.461   1.727   5.972
55757SOL    HW169104   9.473   1.688   5.885
55757SOL    HW269105   9.529   1.795   5.977
55758SOL     OW69106   3.898   3.285   9.084
55758SOL    HW169107   3.919   3.378   9.079
55758SOL    HW269108   3.983   3.241   9.090
55759SOL     OW69109  10.652   6.856  12.897
55759SOL    HW169110  10.652   6.947  12.866
55759SOL    HW269111  10.669   6.805  12.818
55760SOL     OW69112   2.443  13.204   2.497
55760SOL    HW169113   2.370  13.208   2.436
55760SOL    HW269114   2.446  13.112   2.525
55761SOL     OW69115   9.350   2.926   2.425
55761SOL    HW169116   9.341   3.020   2.440
55761SOL    HW269117   9.276   2.888   2.473
55762SOL     OW69118   4.202   0.393   6.440
55762SOL    HW169119   4.154   0.464   6.399
55762SOL    HW269120   4.134   0.340   6.483
55763SOL     OW69121  14.179   6.684   7.573
55763SOL    HW169122  14.165   6.620   7.642
55763SOL    HW269123  14.186   6.768   7.619
55764SOL     OW69124   0.870  13.034  10.165
55764SOL    HW169125   0.813  13.080  10.227
55764SOL    HW269126   0.848  13.072  10.080
55765SOL     OW69127  14.445   7.547  12.616
55765SOL    HW169128  14.508   7.570  12.549
55765SOL    HW269129  14.414   7.460  12.591
55766SOL     OW69130   0.946   6.935   4.865
55766SOL    HW169131   0.915   7.016   4.905
55766SOL    HW269132   1.038   6.952   4.844
55767SOL     OW69133   1.266  10.720   0.781
55767SOL    HW169134   1.270  10.722   0.685
55767SOL    HW269135   1.188  10.772   0.803
55768SOL     OW69136   9.484  13.102   6.098
55768SOL    HW169137   9.549  13.043   6.061
55768SOL    HW269138   9.434  13.049   6.160
55769SOL     OW69139  13.957   8.730   4.147
55769SOL    HW169140  13.947   8.823   4.167
55769SOL    HW269141  13.979   8.727   4.054
55770SOL     OW69142  12.607   4.039  12.044
55770SOL    HW169143  12.629   4.132  12.045
55770SOL    HW269144  12.559   4.025  12.126
55771SOL     OW69145  11.136   1.342   4.068
55771SOL    HW169146  11.105   1.284   4.138
55771SOL    HW269147  11.230   1.351   4.085
55772SOL     OW69148  12.461   1.253   6.710
55772SOL    HW169149  12.403   1.211   6.774
55772SOL    HW269150  12.524   1.302   6.762
55773SOL     OW69151   6.998   5.584   5.231
55773SOL    HW169152   6.951   5.583   5.315
55773SOL    HW269153   6.987   5.674   5.199
55774SOL     OW69154   5.037  11.274   9.682
55774SOL    HW169155   5.125  11.308   9.665
55774SOL    HW269156   4.980  11.323   9.622
55775SOL     OW69157  12.342   1.729   7.713
55775SOL    HW169158  12.265   1.680   7.686
55775SOL    HW269159  12.395   1.736   7.633
55776SOL     OW69160   4.069  10.865   0.984
55776SOL    HW169161   4.163  10.873   1.003
55776SOL    HW269162   4.028  10.939   1.029
55777SOL     OW69163   0.694   1.939   1.459
55777SOL    HW169164   0.673   2.012   1.401
55777SOL    HW269165   0.773   1.901   1.422
55778SOL     OW69166  10.994  13.330  10.654
55778SOL    HW169167  10.963  13.246  10.687
55778SOL    HW269168  11.033  13.310  10.569
55779SOL     OW69169   9.796   2.105   2.151
55779SOL    HW169170   9.883   2.134   2.125
55779SOL    HW269171   9.794   2.011   2.131
55780SOL     OW69172   2.483   3.085   5.134
55780SOL    HW169173   2.461   3.089   5.041
55780SOL    HW269174   2.430   3.154   5.174
55781SOL     OW69175  12.378  10.513   2.408
55781SOL    HW169176  12.364  10.581   2.474
55781SOL    HW269177  12.295  10.510   2.359
55782SOL     OW69178   5.808   6.865   7.808
55782SOL    HW169179   5.869   6.913   7.865
55782SOL    HW269180   5.723   6.905   7.825
55783SOL     OW69181  10.820   9.960   8.924
55783SOL    HW169182  10.735   9.981   8.962
55783SOL    HW269183  10.832   9.867   8.941
55784SOL     OW69184  14.330  11.808   1.612
55784SOL    HW169185  14.240  11.839   1.608
55784SOL    HW269186  14.324  11.723   1.657
55785SOL     OW69187   2.158  10.632   2.374
55785SOL    HW169188   2.197  10.700   2.430
55785SOL    HW269189   2.134  10.679   2.294
55786SOL     OW69190   4.693   3.930   0.039
55786SOL    HW169191   4.628   3.966   0.099
55786SOL    HW269192   4.770   3.986   0.050
55787SOL     OW69193   3.979  12.272   6.948
55787SOL    HW169194   4.024  12.192   6.974
55787SOL    HW269195   3.886  12.250   6.954
55788SOL     OW69196   1.995   3.046   7.082
55788SOL    HW169197   1.936   3.117   7.058
55788SOL    HW269198   1.945   2.966   7.065
55789SOL     OW69199   8.141   9.645   4.083
55789SOL    HW169200   8.161   9.719   4.139
55789SOL    HW269201   8.109   9.577   4.143
55790SOL     OW69202   8.735   3.069  14.505
55790SOL    HW169203   8.640   3.074  14.499
55790SOL    HW269204   8.758   3.136  14.570
55791SOL     OW69205   3.938   8.846  12.876
55791SOL    HW169206   3.978   8.769  12.917
55791SOL    HW269207   3.925   8.907  12.949
55792SOL     OW69208   4.612   7.954   4.774
55792SOL    HW169209   4.600   7.949   4.869
55792SOL    HW269210   4.651   7.870   4.750
55793SOL     OW69211  13.950   5.488   5.121
55793SOL    HW169212  13.942   5.572   5.165
55793SOL    HW269213  14.009   5.437   5.176
55794SOL     OW69214  10.085  10.352   5.594
55794SOL    HW169215  10.082  10.418   5.663
55794SOL    HW269216  10.030  10.387   5.524
55795SOL     OW69217   9.005  12.151  13.478
55795SOL    HW169218   8.998  12.246  13.475
55795SOL    HW269219   9.092  12.133  13.442
55796SOL     OW69220   6.685   6.727  12.706
55796SOL    HW169221   6.774   6.754  12.729
55796SOL    HW269222   6.651   6.798  12.652
55797SOL     OW69223   1.318   9.438   8.514
55797SOL    HW169224   1.233   9.403   8.488
55797SOL    HW269225   1.379   9.403   8.449
55798SOL     OW69226   7.010   3.920  10.013
55798SOL    HW169227   7.022   3.914  10.108
55798SOL    HW269228   7.095   3.896   9.977
55799SOL     OW69229   7.142   8.997   7.835
55799SOL    HW169230   7.050   9.018   7.849
55799SOL    HW269231   7.141   8.907   7.802
55800SOL     OW69232  14.818   9.576   1.645
55800SOL    HW169233  14.739   9.595   1.695
55800SOL    HW269234  14.826   9.649   1.584
55801SOL     OW69235   9.515  13.663   3.048
55801SOL    HW169236   9.450  13.731   3.027
55801SOL    HW269237   9.581  13.709   3.100
55802SOL     OW69238  11.721   9.550   9.628
55802SOL    HW169239  11.661   9.624   9.636
55802SOL    HW269240  11.703   9.515   9.540
55803SOL     OW69241   5.497   7.554   4.230
55803SOL    HW169242   5.437   7.584   4.162
55803SOL    HW269243   5.444   7.499   4.287
55804SOL     OW69244   0.027  10.837   1.998
55804SOL    HW169245   0.067  10.921   1.976
55804SOL    HW269246  14.810  10.859   2.024
55805SOL     OW69247   1.709   1.816   1.132
55805SOL    HW169248   1.743   1.745   1.078
55805SOL    HW269249   1.719   1.895   1.078
55806SOL     OW69250   4.668  11.918   7.666
55806SOL    HW169251   4.729  11.849   7.692
55806SOL    HW269252   4.703  11.997   7.706
55807SOL     OW69253   0.150   7.247   2.716
55807SOL    HW169254   0.194   7.171   2.752
55807SOL    HW269255   0.125   7.221   2.627
55808SOL     OW69256   9.779   9.818  14.630
55808SOL    HW169257   9.752   9.744  14.684
55808SOL    HW269258   9.871   9.801  14.610
55809SOL     OW69259  13.834   6.903   5.059
55809SOL    HW169260  13.846   6.910   5.154
55809SOL    HW269261  13.797   6.816   5.046
55810SOL     OW69262   8.383   5.981   4.063
55810SOL    HW169263   8.449   5.912   4.061
55810SOL    HW269264   8.300   5.934   4.048
55811SOL     OW69265  11.569  14.468   2.326
55811SOL    HW169266  11.491  14.515   2.297
55811SOL    HW269267  11.558  14.379   2.292
55812SOL     OW69268   5.954   6.842   0.277
55812SOL    HW169269   5.877   6.854   0.221
55812SOL    HW269270   5.918   6.822   0.364
55813SOL     OW69271  11.397   4.886   3.567
55813SOL    HW169272  11.360   4.964   3.607
55813SOL    HW269273  11.321   4.831   3.548
55814SOL     OW69274   1.550   5.800  13.727
55814SOL    HW169275   1.556   5.867  13.795
55814SOL    HW269276   1.492   5.733  13.764
55815SOL     OW69277   3.529   5.251   0.104
55815SOL    HW169278   3.518   5.183   0.171
55815SOL    HW269279   3.590   5.314   0.144
55816SOL     OW69280  12.314  13.858  13.472
55816SOL    HW169281  12.367  13.913  13.529
55816SOL    HW269282  12.323  13.770  13.508
55817SOL     OW69283   1.363  12.369   8.529
55817SOL    HW169284   1.304  12.299   8.559
55817SOL    HW269285   1.317  12.450   8.550
55818SOL     OW69286  12.767   3.595  14.637
55818SOL    HW169287  12.816   3.561  14.563
55818SOL    HW269288  12.821   3.667  14.671
55819SOL     OW69289  14.127   3.318   1.473
55819SOL    HW169290  14.173   3.240   1.442
55819SOL    HW269291  14.084   3.290   1.554
55820SOL     OW69292   1.490   7.650   5.510
55820SOL    HW169293   1.461   7.562   5.489
55820SOL    HW269294   1.459   7.704   5.437
55821SOL     OW69295   7.652   0.828   5.681
55821SOL    HW169296   7.579   0.767   5.695
55821SOL    HW269297   7.627   0.906   5.731
55822SOL     OW69298   5.868   9.211   4.057
55822SOL    HW169299   5.914   9.136   4.094
55822SOL    HW269300   5.775   9.190   4.069
55823SOL     OW69301   0.730   2.334   7.245
55823SOL    HW169302   0.756   2.267   7.307
55823SOL    HW269303   0.635   2.340   7.255
55824SOL     OW69304   9.443  12.586  13.804
55824SOL    HW169305   9.469  12.529  13.876
55824SOL    HW269306   9.416  12.668  13.846
55825SOL     OW69307   5.809   5.751   8.861
55825SOL    HW169308   5.760   5.710   8.790
55825SOL    HW269309   5.819   5.682   8.926
55826SOL     OW69310  10.028  14.872   4.459
55826SOL    HW169311   9.977   0.068   4.417
55826SOL    HW269312   9.994  14.867   4.548
55827SOL     OW69313   1.940  12.501   3.972
55827SOL    HW169314   1.877  12.445   3.927
55827SOL    HW269315   2.024  12.480   3.933
55828SOL     OW69316   6.167  12.266   9.655
55828SOL    HW169317   6.180  12.222   9.571
55828SOL    HW269318   6.249  12.253   9.702
55829SOL     OW69319   0.376   8.260   0.908
55829SOL    HW169320   0.383   8.177   0.861
55829SOL    HW269321   0.433   8.250   0.984
55830SOL     OW69322   5.200   2.332   3.248
55830SOL    HW169323   5.113   2.347   3.209
55830SOL    HW269324   5.182   2.277   3.325
55831SOL     OW69325   8.914  10.346   9.779
55831SOL    HW169326   8.868  10.263   9.770
55831SOL    HW269327   8.849  10.412   9.756
55832SOL     OW69328  14.472  11.457  10.782
55832SOL    HW169329  14.533  11.495  10.845
55832SOL    HW269330  14.509  11.372  10.760
55833SOL     OW69331   0.185   3.195  14.492
55833SOL    HW169332   0.264   3.189  14.545
55833SOL    HW269333   0.131   3.121  14.520
55834SOL     OW69334   8.855   7.797  13.266
55834SOL    HW169335   8.930   7.749  13.231
55834SOL    HW269336   8.782   7.772  13.210
55835SOL     OW69337   2.034   9.679   0.697
55835SOL    HW169338   2.116   9.669   0.650
55835SOL    HW269339   1.966   9.671   0.630
55836SOL     OW69340   6.047  14.560   4.508
55836SOL    HW169341   5.993  14.621   4.558
55836SOL    HW269342   6.116  14.533   4.569
55837SOL     OW69343   8.724  13.135  11.485
55837SOL    HW169344   8.816  13.135  11.513
55837SOL    HW269345   8.675  13.123  11.567
55838SOL     OW69346   3.413  12.403   9.118
55838SOL    HW169347   3.415  12.310   9.097
55838SOL    HW269348   3.503  12.426   9.138
55839SOL     OW69349   3.867   3.752   2.007
55839SOL    HW169350   3.820   3.789   1.933
55839SOL    HW269351   3.938   3.701   1.967
55840SOL     OW69352   3.008   0.180   5.167
55840SOL    HW169353   3.091   0.209   5.203
55840SOL    HW269354   3.031   0.138   5.084
55841SOL     OW69355   6.622   5.664  13.038
55841SOL    HW169356   6.693   5.604  13.062
55841SOL    HW269357   6.666   5.746  13.015
55842SOL     OW69358  11.500   2.017   0.787
55842SOL    HW169359  11.593   2.023   0.809
55842SOL    HW269360  11.455   2.058   0.860
55843SOL     OW69361   5.498   1.095   8.547
55843SOL    HW169362   5.582   1.073   8.587
55843SOL    HW269363   5.469   1.173   8.595
55844SOL     OW69364   7.673   9.014   8.730
55844SOL    HW169365   7.725   9.064   8.793
55844SOL    HW269366   7.736   8.954   8.689
55845SOL     OW69367  12.017   6.098  13.918
55845SOL    HW169368  12.046   6.153  13.845
55845SOL    HW269369  11.976   6.022  13.877
55846SOL     OW69370  10.465   7.021   6.744
55846SOL    HW169371  10.420   6.945   6.781
55846SOL    HW269372  10.494   6.992   6.657
55847SOL     OW69373  13.110   2.232   5.164
55847SOL    HW169374  13.156   2.258   5.244
55847SOL    HW269375  13.179   2.207   5.103
55848SOL     OW69376   8.300   7.072   9.855
55848SOL    HW169377   8.346   7.036   9.779
55848SOL    HW269378   8.239   7.136   9.819
55849SOL     OW69379   5.555   2.054   1.266
55849SOL    HW169380   5.544   1.964   1.237
55849SOL    HW269381   5.598   2.048   1.351
55850SOL     OW69382  13.367  14.045   0.665
55850SOL    HW169383  13.320  14.122   0.634
55850SOL    HW269384  13.449  14.046   0.616
55851SOL     OW69385   5.195  11.179  13.092
55851SOL    HW169386   5.279  11.135  13.104
55851SOL    HW269387   5.215  11.272  13.105
55852SOL     OW69388   8.885   6.668  12.092
55852SOL    HW169389   8.868   6.759  12.118
55852SOL    HW269390   8.913   6.674  12.001
55853SOL     OW69391   5.732  11.959   9.167
55853SOL    HW169392   5.669  11.950   9.238
55853SOL    HW269393   5.709  12.042   9.125
55854SOL     OW69394   4.212   7.219   4.987
55854SOL    HW169395   4.234   7.193   5.077
55854SOL    HW269396   4.232   7.313   4.984
55855SOL     OW69397  11.645   2.019  14.048
55855SOL    HW169398  11.686   2.098  14.082
55855SOL    HW269399  11.665   1.952  14.113
55856SOL     OW69400   8.558   6.433  12.550
55856SOL    HW169401   8.653   6.426  12.550
55856SOL    HW269402   8.527   6.342  12.541
55857SOL     OW69403  10.114  10.304  13.046
55857SOL    HW169404  10.171  10.379  13.027
55857SOL    HW269405  10.026  10.335  13.025
55858SOL     OW69406   5.404   6.929   3.559
55858SOL    HW169407   5.361   6.876   3.492
55858SOL    HW269408   5.345   6.926   3.635
55859SOL     OW69409   2.213  10.852   5.277
55859SOL    HW169410   2.236  10.799   5.354
55859SOL    HW269411   2.132  10.813   5.244
55860SOL     OW69412  11.730   3.054   1.593
55860SOL    HW169413  11.717   3.147   1.610
55860SOL    HW269414  11.653   3.028   1.543
55861SOL     OW69415   5.399  10.839   8.680
55861SOL    HW169416   5.405  10.747   8.703
55861SOL    HW269417   5.408  10.841   8.584
55862SOL     OW69418   4.572   1.305   0.768
55862SOL    HW169419   4.533   1.323   0.854
55862SOL    HW269420   4.517   1.236   0.732
55863SOL     OW69421   5.016   0.746   3.854
55863SOL    HW169422   4.940   0.780   3.901
55863SOL    HW269423   4.980   0.707   3.774
55864SOL     OW69424   6.148   4.032   6.801
55864SOL    HW169425   6.077   4.019   6.739
55864SOL    HW269426   6.115   3.996   6.884
55865SOL     OW69427   8.719  12.311  13.327
55865SOL    HW169428   8.807  12.346  13.333
55865SOL    HW269429   8.727  12.220  13.357
55866SOL     OW69430  14.751   7.013   8.054
55866SOL    HW169431  14.754   7.064   7.973
55866SOL    HW269432  14.835   7.030   8.096
55867SOL     OW69433  11.432   1.677  13.711
55867SOL    HW169434  11.488   1.740  13.758
55867SOL    HW269435  11.380   1.730  13.651
55868SOL     OW69436   7.473   8.124   9.946
55868SOL    HW169437   7.425   8.089  10.020
55868SOL    HW269438   7.495   8.048   9.892
55869SOL     OW69439  13.694   0.321   1.038
55869SOL    HW169440  13.773   0.288   0.996
55869SOL    HW269441  13.723   0.398   1.087
55870SOL     OW69442   4.484  14.641  11.884
55870SOL    HW169443   4.549  14.669  11.948
55870SOL    HW269444   4.435  14.572  11.928
55871SOL     OW69445  10.466   5.351   0.531
55871SOL    HW169446  10.527   5.280   0.550
55871SOL    HW269447  10.511   5.430   0.562
55872SOL     OW69448  10.600   7.083   6.325
55872SOL    HW169449  10.669   7.049   6.269
55872SOL    HW269450  10.611   7.178   6.322
55873SOL     OW69451  14.704  14.233  14.711
55873SOL    HW169452  14.740  14.213  14.797
55873SOL    HW269453  14.663  14.319  14.722
55874SOL     OW69454   2.312  10.420   1.766
55874SOL    HW169455   2.335  10.432   1.674
55874SOL    HW269456   2.335  10.329   1.785
55875SOL     OW69457   8.353   4.254  11.101
55875SOL    HW169458   8.302   4.183  11.061
55875SOL    HW269459   8.381   4.219  11.185
55876SOL     OW69460   4.002   6.654   3.048
55876SOL    HW169461   4.028   6.562   3.052
55876SOL    HW269462   4.060   6.698   3.111
55877SOL     OW69463   1.359   7.638   1.759
55877SOL    HW169464   1.419   7.617   1.688
55877SOL    HW269465   1.400   7.601   1.837
55878SOL     OW69466   3.259   6.844   5.316
55878SOL    HW169467   3.286   6.928   5.279
55878SOL    HW269468   3.321   6.827   5.386
55879SOL     OW69469   2.294   9.523  10.492
55879SOL    HW169470   2.248   9.490  10.569
55879SOL    HW269471   2.363   9.579  10.527
55880SOL     OW69472   5.583   7.117  12.751
55880SOL    HW169473   5.645   7.178  12.792
55880SOL    HW269474   5.499   7.162  12.758
55881SOL     OW69475   6.480   8.746   1.946
55881SOL    HW169476   6.471   8.667   1.998
55881SOL    HW269477   6.574   8.753   1.928
55882SOL     OW69478   1.646   3.094  13.726
55882SOL    HW169479   1.646   2.999  13.735
55882SOL    HW269480   1.679   3.126  13.810
55883SOL     OW69481   9.086   9.340   8.105
55883SOL    HW169482   9.075   9.398   8.030
55883SOL    HW269483   9.021   9.370   8.168
55884SOL     OW69484  10.592   0.400  12.977
55884SOL    HW169485  10.608   0.427  13.067
55884SOL    HW269486  10.501   0.425  12.961
55885SOL     OW69487   5.406   1.916   5.610
55885SOL    HW169488   5.376   1.833   5.646
55885SOL    HW269489   5.350   1.982   5.652
55886SOL     OW69490  10.573  12.329   4.722
55886SOL    HW169491  10.633  12.322   4.796
55886SOL    HW269492  10.514  12.401   4.745
55887SOL     OW69493  14.848   8.132   5.008
55887SOL    HW169494  14.758   8.164   5.018
55887SOL    HW269495   0.029   8.209   5.029
55888SOL     OW69496   5.519  11.961   1.079
55888SOL    HW169497   5.520  11.924   0.991
55888SOL    HW269498   5.427  11.957   1.106
55889SOL     OW69499   4.673  11.929  12.499
55889SOL    HW169500   4.631  11.872  12.564
55889SOL    HW269501   4.706  11.869  12.432
55890SOL     OW69502   1.031   7.988  11.360
55890SOL    HW169503   1.084   7.914  11.389
55890SOL    HW269504   1.094   8.047  11.318
55891SOL     OW69505   2.367   4.060   3.167
55891SOL    HW169506   2.417   4.130   3.209
55891SOL    HW269507   2.423   4.032   3.095
55892SOL     OW69508   6.642   7.252  12.901
55892SOL    HW169509   6.563   7.305  12.895
55892SOL    HW269510   6.707   7.310  12.939
55893SOL     OW69511   2.200   6.071  11.909
55893SOL    HW169512   2.285   6.028  11.912
55893SOL    HW269513   2.156   6.044  11.990
55894SOL     OW69514   4.353   5.457   2.574
55894SOL    HW169515   4.401   5.413   2.503
55894SOL    HW269516   4.349   5.549   2.548
55895SOL     OW69517  11.309  12.895   2.538
55895SOL    HW169518  11.260  12.852   2.468
55895SOL    HW269519  11.401  12.880   2.515
55896SOL     OW69520  12.796  10.251  13.791
55896SOL    HW169521  12.808  10.255  13.696
55896SOL    HW269522  12.726  10.187  13.804
55897SOL     OW69523   2.699   5.178   8.455
55897SOL    HW169524   2.617   5.186   8.407
55897SOL    HW269525   2.675   5.135   8.537
55898SOL     OW69526   4.658   2.087   3.558
55898SOL    HW169527   4.628   1.996   3.557
55898SOL    HW269528   4.663   2.111   3.465
55899SOL     OW69529   1.816   0.844   3.770
55899SOL    HW169530   1.766   0.801   3.839
55899SOL    HW269531   1.905   0.849   3.805
55900SOL     OW69532   3.383  13.323   4.307
55900SOL    HW169533   3.292  13.338   4.336
55900SOL    HW269534   3.385  13.232   4.279
55901SOL     OW69535   8.150   3.320   4.669
55901SOL    HW169536   8.070   3.347   4.623
55901SOL    HW269537   8.191   3.257   4.610
55902SOL     OW69538   2.448   0.323   6.618
55902SOL    HW169539   2.393   0.343   6.694
55902SOL    HW269540   2.423   0.234   6.593
55903SOL     OW69541   5.263   9.718   5.174
55903SOL    HW169542   5.290   9.717   5.082
55903SOL    HW269543   5.176   9.679   5.174
55904SOL     OW69544   6.865  11.658   9.218
55904SOL    HW169545   6.935  11.618   9.166
55904SOL    HW269546   6.855  11.746   9.182
55905SOL     OW69547  11.737   7.261   0.777
55905SOL    HW169548  11.656   7.309   0.794
55905SOL    HW269549  11.792   7.324   0.729
55906SOL     OW69550   9.082   5.996   9.325
55906SOL    HW169551   9.146   5.955   9.382
55906SOL    HW269552   9.128   6.070   9.285
55907SOL     OW69553   7.439  13.634  13.574
55907SOL    HW169554   7.471  13.646  13.663
55907SOL    HW269555   7.396  13.548  13.575
55908SOL     OW69556   4.440   8.891   6.982
55908SOL    HW169557   4.377   8.836   7.028
55908SOL    HW269558   4.485   8.940   7.051
55909SOL     OW69559   4.822   9.837   8.244
55909SOL    HW169560   4.888   9.768   8.235
55909SOL    HW269561   4.861   9.899   8.305
55910SOL     OW69562   8.098   7.568   0.536
55910SOL    HW169563   8.026   7.510   0.511
55910SOL    HW269564   8.077   7.651   0.495
55911SOL     OW69565   1.981  11.629   6.302
55911SOL    HW169566   1.941  11.652   6.218
55911SOL    HW269567   2.031  11.707   6.327
55912SOL     OW69568   8.132   1.567   9.741
55912SOL    HW169569   8.106   1.570   9.833
55912SOL    HW269570   8.208   1.625   9.735
55913SOL     OW69571   6.287   7.009   5.337
55913SOL    HW169572   6.326   7.088   5.300
55913SOL    HW269573   6.264   6.956   5.261
55914SOL     OW69574  14.204   9.382  14.748
55914SOL    HW169575  14.290   9.341  14.758
55914SOL    HW269576  14.220   9.475  14.763
55915SOL     OW69577  12.992   0.441   4.996
55915SOL    HW169578  12.933   0.374   4.960
55915SOL    HW269579  12.954   0.524   4.965
55916SOL     OW69580   1.891   8.158   1.645
55916SOL    HW169581   1.866   8.166   1.553
55916SOL    HW269582   1.837   8.086   1.678
55917SOL     OW69583   0.691   9.908   4.523
55917SOL    HW169584   0.618   9.966   4.545
55917SOL    HW269585   0.762   9.937   4.580
55918SOL     OW69586  13.339   4.629  13.121
55918SOL    HW169587  13.404   4.585  13.176
55918SOL    HW269588  13.269   4.565  13.111
55919SOL     OW69589   3.025   8.460   1.733
55919SOL    HW169590   3.074   8.542   1.720
55919SOL    HW269591   3.049   8.406   1.658
55920SOL     OW69592   0.233  12.824   8.015
55920SOL    HW169593   0.245  12.772   8.094
55920SOL    HW269594   0.205  12.910   8.047
55921SOL     OW69595   3.628   5.510  13.960
55921SOL    HW169596   3.583   5.590  13.934
55921SOL    HW269597   3.559   5.454  13.994
55922SOL     OW69598  13.093  10.412   1.176
55922SOL    HW169599  13.159  10.463   1.222
55922SOL    HW269600  13.014  10.467   1.180
55923SOL     OW69601   5.579   4.148   7.541
55923SOL    HW169602   5.557   4.212   7.474
55923SOL    HW269603   5.498   4.136   7.591
55924SOL     OW69604   3.027  12.533   2.382
55924SOL    HW169605   3.114  12.504   2.409
55924SOL    HW269606   2.991  12.576   2.459
55925SOL     OW69607   3.682   9.076   2.216
55925SOL    HW169608   3.662   8.989   2.181
55925SOL    HW269609   3.751   9.110   2.158
55926SOL     OW69610  10.382  14.658   8.106
55926SOL    HW169611  10.411  14.592   8.043
55926SOL    HW269612  10.346  14.608   8.179
55927SOL     OW69613  10.655   5.429   8.587
55927SOL    HW169614  10.679   5.410   8.678
55927SOL    HW269615  10.679   5.521   8.575
55928SOL     OW69616   5.995   8.954   9.234
55928SOL    HW169617   6.012   8.866   9.198
55928SOL    HW269618   5.904   8.951   9.263
55929SOL     OW69619  11.345   9.500  13.738
55929SOL    HW169620  11.311   9.559  13.671
55929SOL    HW269621  11.315   9.414  13.711
55930SOL     OW69622  13.886   5.320   9.116
55930SOL    HW169623  13.796   5.294   9.137
55930SOL    HW269624  13.933   5.315   9.199
55931SOL     OW69625   7.520   1.271   9.258
55931SOL    HW169626   7.440   1.321   9.272
55931SOL    HW269627   7.500   1.211   9.187
55932SOL     OW69628   4.414  13.205  10.143
55932SOL    HW169629   4.463  13.235  10.066
55932SOL    HW269630   4.479  13.161  10.197
55933SOL     OW69631   0.911  14.284   1.201
55933SOL    HW169632   0.879  14.228   1.272
55933SOL    HW269633   0.835  14.295   1.143
55934SOL     OW69634   6.541  13.859   3.648
55934SOL    HW169635   6.602  13.828   3.582
55934SOL    HW269636   6.516  13.947   3.619
55935SOL     OW69637   4.863   7.590   4.517
55935SOL    HW169638   4.822   7.584   4.431
55935SOL    HW269639   4.868   7.499   4.548
55936SOL     OW69640  11.997  13.284   8.435
55936SOL    HW169641  11.975  13.194   8.410
55936SOL    HW269642  11.925  13.311   8.493
55937SOL     OW69643  14.722  10.585   7.846
55937SOL    HW169644  14.757  10.670   7.819
55937SOL    HW269645  14.634  10.604   7.879
55938SOL     OW69646  11.311   3.623  10.890
55938SOL    HW169647  11.372   3.553  10.915
55938SOL    HW269648  11.231   3.602  10.937
55939SOL     OW69649  12.298  11.837   9.660
55939SOL    HW169650  12.392  11.817   9.667
55939SOL    HW269651  12.285  11.857   9.567
55940SOL     OW69652   5.375   7.359   5.704
55940SOL    HW169653   5.387   7.364   5.610
55940SOL    HW269654   5.344   7.446   5.729
55941SOL     OW69655   8.740   8.505   5.690
55941SOL    HW169656   8.814   8.457   5.726
55941SOL    HW269657   8.681   8.518   5.764
55942SOL     OW69658  13.310   4.615  10.135
55942SOL    HW169659  13.306   4.702  10.095
55942SOL    HW269660  13.347   4.630  10.221
55943SOL     OW69661  13.020   5.086  12.614
55943SOL    HW169662  13.038   5.071  12.707
55943SOL    HW269663  12.994   5.000  12.581
55944SOL     OW69664  12.844  12.919  10.318
55944SOL    HW169665  12.864  13.013  10.310
55944SOL    HW269666  12.921  12.881  10.358
55945SOL     OW69667   2.211  13.802   0.511
55945SOL    HW169668   2.255  13.796   0.427
55945SOL    HW269669   2.281  13.804   0.576
55946SOL     OW69670   4.147   7.202   4.359
55946SOL    HW169671   4.145   7.246   4.274
55946SOL    HW269672   4.055   7.198   4.386
55947SOL     OW69673   0.810   2.969   2.466
55947SOL    HW169674   0.855   3.035   2.412
55947SOL    HW269675   0.765   3.020   2.533
55948SOL     OW69676   6.691   6.739  14.556
55948SOL    HW169677   6.742   6.758  14.635
55948SOL    HW269678   6.600   6.738  14.587
55949SOL     OW69679  12.083  12.392   8.712
55949SOL    HW169680  12.062  12.484   8.695
55949SOL    HW269681  12.100  12.389   8.807
55950SOL     OW69682   4.736  10.594   5.857
55950SOL    HW169683   4.652  10.640   5.861
55950SOL    HW269684   4.760  10.579   5.949
55951SOL     OW69685   5.763   1.450   4.595
55951SOL    HW169686   5.778   1.392   4.670
55951SOL    HW269687   5.760   1.538   4.633
55952SOL     OW69688  13.515   7.407  10.390
55952SOL    HW169689  13.586   7.443  10.443
55952SOL    HW269690  13.532   7.440  10.301
55953SOL     OW69691   2.901   8.025   2.921
55953SOL    HW169692   2.855   7.986   2.847
55953SOL    HW269693   2.924   7.952   2.977
55954SOL     OW69694  13.996   2.846   1.187
55954SOL    HW169695  14.079   2.890   1.168
55954SOL    HW269696  14.016   2.783   1.256
55955SOL     OW69697   4.184   0.609  12.590
55955SOL    HW169698   4.119   0.614  12.520
55955SOL    HW269699   4.182   0.518  12.620
55956SOL     OW69700  11.449   6.219   7.146
55956SOL    HW169701  11.489   6.133   7.146
55956SOL    HW269702  11.501   6.270   7.084
55957SOL     OW69703  11.931  10.258   3.755
55957SOL    HW169704  11.854  10.204   3.739
55957SOL    HW269705  11.905  10.317   3.826
55958SOL     OW69706   3.101  10.177   3.013
55958SOL    HW169707   3.030  10.187   3.076
55958SOL    HW269708   3.146  10.261   3.014
55959SOL     OW69709   6.226   5.095   7.702
55959SOL    HW169710   6.299   5.143   7.662
55959SOL    HW269711   6.268   5.020   7.744
55960SOL     OW69712   8.401   1.229   3.304
55960SOL    HW169713   8.470   1.285   3.339
55960SOL    HW269714   8.323   1.255   3.353
55961SOL     OW69715   6.088  14.736  10.236
55961SOL    HW169716   6.064  14.819  10.194
55961SOL    HW269717   6.065  14.669  10.172
55962SOL     OW69718   6.678   9.675  11.149
55962SOL    HW169719   6.618   9.655  11.221
55962SOL    HW269720   6.679   9.770  11.144
55963SOL     OW69721  10.438   1.325  10.267
55963SOL    HW169722  10.488   1.265  10.212
55963SOL    HW269723  10.347   1.298  10.256
55964SOL     OW69724  11.400  14.265   3.681
55964SOL    HW169725  11.430  14.342   3.728
55964SOL    HW269726  11.396  14.196   3.747
55965SOL     OW69727  13.910  10.232   6.110
55965SOL    HW169728  13.823  10.241   6.150
55965SOL    HW269729  13.968  10.284   6.166
55966SOL     OW69730   3.474  10.560  13.683
55966SOL    HW169731   3.564  10.550  13.654
55966SOL    HW269732   3.437  10.627  13.626
55967SOL     OW69733   2.107  11.235  13.505
55967SOL    HW169734   2.117  11.152  13.459
55967SOL    HW269735   2.178  11.236  13.569
55968SOL     OW69736   8.923   6.072  10.915
55968SOL    HW169737   8.866   6.013  10.865
55968SOL    HW269738   8.865   6.114  10.979
55969SOL     OW69739  12.277   1.058   6.826
55969SOL    HW169740  12.303   0.988   6.765
55969SOL    HW269741  12.184   1.042   6.841
55970SOL     OW69742   3.747  10.008   2.501
55970SOL    HW169743   3.755   9.932   2.558
55970SOL    HW269744   3.759  10.083   2.560
55971SOL     OW69745   7.088  10.945   4.799
55971SOL    HW169746   7.086  10.913   4.709
55971SOL    HW269747   7.163  11.005   4.801
55972SOL     OW69748  14.712   9.212   1.388
55972SOL    HW169749  14.665   9.159   1.452
55972SOL    HW269750  14.786   9.249   1.437
55973SOL     OW69751   6.719   3.302   4.825
55973SOL    HW169752   6.749   3.302   4.916
55973SOL    HW269753   6.792   3.339   4.775
55974SOL     OW69754  13.779  10.532   4.411
55974SOL    HW169755  13.829  10.454   4.433
55974SOL    HW269756  13.791  10.591   4.485
55975SOL     OW69757   0.315   2.945   8.857
55975SOL    HW169758   0.236   2.999   8.858
55975SOL    HW269759   0.284   2.856   8.840
55976SOL     OW69760   9.908   8.635  13.930
55976SOL    HW169761   9.871   8.634  14.019
55976SOL    HW269762  10.002   8.622  13.943
55977SOL     OW69763  11.676  10.868   8.301
55977SOL    HW169764  11.717  10.882   8.387
55977SOL    HW269765  11.585  10.846   8.322
55978SOL     OW69766  10.591  14.179  14.745
55978SOL    HW169767  10.620  14.234  14.817
55978SOL    HW269768  10.666  14.175  14.686
55979SOL     OW69769  12.048  13.934  14.473
55979SOL    HW169770  12.099  13.999  14.424
55979SOL    HW269771  12.108  13.860  14.484
55980SOL     OW69772  11.161   2.334   3.680
55980SOL    HW169773  11.079   2.303   3.641
55980SOL    HW269774  11.147   2.429   3.690
55981SOL     OW69775   1.546   6.993   2.748
55981SOL    HW169776   1.586   6.921   2.700
55981SOL    HW269777   1.452   6.976   2.742
55982SOL     OW69778  13.141   8.864   7.333
55982SOL    HW169779  13.085   8.870   7.255
55982SOL    HW269780  13.192   8.784   7.320
55983SOL     OW69781   0.130   6.238   0.586
55983SOL    HW169782   0.216   6.281   0.576
55983SOL    HW269783   0.134   6.197   0.672
55984SOL     OW69784  13.773   3.783   2.908
55984SOL    HW169785  13.781   3.802   3.001
55984SOL    HW269786  13.679   3.770   2.894
55985SOL     OW69787   2.898  11.243  11.047
55985SOL    HW169788   2.809  11.231  11.082
55985SOL    HW269789   2.930  11.155  11.033
55986SOL     OW69790   2.031   5.065  14.195
55986SOL    HW169791   2.084   5.004  14.144
55986SOL    HW269792   2.085   5.143  14.201
55987SOL     OW69793   9.955   7.379  13.271
55987SOL    HW169794   9.963   7.475  13.266
55987SOL    HW269795  10.016   7.353  13.340
55988SOL     OW69796  12.593   0.291  13.192
55988SOL    HW169797  12.634   0.356  13.250
55988SOL    HW269798  12.547   0.343  13.126
55989SOL     OW69799   1.656  14.071   2.589
55989SOL    HW169800   1.608  13.988   2.595
55989SOL    HW269801   1.715  14.060   2.515
55990SOL     OW69802   4.535   8.081   0.881
55990SOL    HW169803   4.471   8.150   0.863
55990SOL    HW269804   4.608   8.127   0.923
55991SOL     OW69805   7.264   0.700   8.203
55991SOL    HW169806   7.275   0.632   8.269
55991SOL    HW269807   7.266   0.653   8.119
55992SOL     OW69808   8.291  12.071   0.378
55992SOL    HW169809   8.197  12.081   0.393
55992SOL    HW269810   8.331  12.099   0.461
55993SOL     OW69811   8.249  10.114  12.025
55993SOL    HW169812   8.212  10.046  11.970
55993SOL    HW269813   8.315  10.069  12.078
55994SOL     OW69814   9.908  12.213   9.016
55994SOL    HW169815   9.841  12.177   9.074
55994SOL    HW269816   9.968  12.260   9.074
55995SOL     OW69817  12.869   0.132  14.377
55995SOL    HW169818  12.947   0.173  14.341
55995SOL    HW269819  12.896   0.043  14.400
55996SOL     OW69820   6.983   8.557  12.133
55996SOL    HW169821   6.915   8.499  12.167
55996SOL    HW269822   7.065   8.510  12.150
55997SOL     OW69823   9.861   8.622   0.432
55997SOL    HW169824   9.939   8.567   0.439
55997SOL    HW269825   9.815   8.589   0.355
55998SOL     OW69826   6.152  11.272   7.345
55998SOL    HW169827   6.149  11.195   7.403
55998SOL    HW269828   6.181  11.343   7.402
55999SOL     OW69829   4.404   2.289   8.756
55999SOL    HW169830   4.386   2.351   8.827
55999SOL    HW269831   4.499   2.291   8.746
56000SOL     OW69832   0.173  13.386   3.014
56000SOL    HW169833   0.219  13.454   2.964
56000SOL    HW269834   0.147  13.428   3.095
56001SOL     OW69835  14.391   0.775  11.408
56001SOL    HW169836  14.337   0.849  11.379
56001SOL    HW269837  14.350   0.699  11.367
56002SOL     OW69838   3.575   7.226  12.547
56002SOL    HW169839   3.651   7.284  12.535
56002SOL    HW269840   3.502   7.273  12.507
56003SOL     OW69841   8.983  13.712   3.858
56003SOL    HW169842   8.957  13.624   3.831
56003SOL    HW269843   9.056  13.734   3.800
56004SOL     OW69844  11.394  11.704  13.490
56004SOL    HW169845  11.470  11.664  13.448
56004SOL    HW269846  11.383  11.788  13.445
56005SOL     OW69847  12.532   8.748   0.320
56005SOL    HW169848  12.544   8.758   0.226
56005SOL    HW269849  12.590   8.815   0.358
56006SOL     OW69850   6.831   6.764   6.525
56006SOL    HW169851   6.854   6.673   6.544
56006SOL    HW269852   6.846   6.773   6.431
56007SOL     OW69853  12.146  12.673   6.148
56007SOL    HW169854  12.190  12.718   6.220
56007SOL    HW269855  12.132  12.741   6.082
56008SOL     OW69856  10.512   4.985   8.718
56008SOL    HW169857  10.548   4.897   8.712
56008SOL    HW269858  10.579   5.041   8.680
56009SOL     OW69859   8.533  10.299   8.064
56009SOL    HW169860   8.512  10.219   8.016
56009SOL    HW269861   8.451  10.326   8.103
56010SOL     OW69862   2.795  11.529   4.986
56010SOL    HW169863   2.702  11.505   4.985
56010SOL    HW269864   2.805  11.583   5.065
56011SOL     OW69865   2.084   1.159   9.764
56011SOL    HW169866   2.166   1.126   9.800
56011SOL    HW269867   2.083   1.252   9.787
56012SOL     OW69868  11.171   4.697  14.107
56012SOL    HW169869  11.237   4.681  14.176
56012SOL    HW269870  11.110   4.759  14.147
56013SOL     OW69871   3.592  11.516   1.861
56013SOL    HW169872   3.560  11.452   1.797
56013SOL    HW269873   3.586  11.600   1.815
56014SOL     OW69874   0.810   8.352   8.346
56014SOL    HW169875   0.746   8.370   8.415
56014SOL    HW269876   0.784   8.266   8.312
56015SOL     OW69877   5.918   9.393   7.358
56015SOL    HW169878   5.995   9.406   7.303
56015SOL    HW269879   5.888   9.305   7.336
56016SOL     OW69880   0.967   9.500   1.932
56016SOL    HW169881   0.989   9.520   1.841
56016SOL    HW269882   0.904   9.429   1.927
56017SOL     OW69883   9.527   5.451   2.500
56017SOL    HW169884   9.545   5.526   2.558
56017SOL    HW269885   9.451   5.479   2.449
56018SOL     OW69886   0.112  12.030   2.936
56018SOL    HW169887   0.200  12.066   2.926
56018SOL    HW269888   0.083  12.010   2.847
56019SOL     OW69889  10.368  12.490   1.292
56019SOL    HW169890  10.276  12.485   1.265
56019SOL    HW269891  10.364  12.519   1.383
56020SOL     OW69892   6.128  11.201   2.179
56020SOL    HW169893   6.163  11.112   2.183
56020SOL    HW269894   6.145  11.229   2.089
56021SOL     OW69895  10.284  14.509   4.704
56021SOL    HW169896  10.335  14.432   4.679
56021SOL    HW269897  10.349  14.576   4.721
56022SOL     OW69898   6.435  14.797   7.482
56022SOL    HW169899   6.389  14.751   7.412
56022SOL    HW269900   6.380   0.001   7.500
56023SOL     OW69901   2.879  14.835   0.800
56023SOL    HW169902   2.877   0.013   0.719
56023SOL    HW269903   2.863   0.027   0.869
56024SOL     OW69904  12.317  11.289  11.805
56024SOL    HW169905  12.245  11.352  11.805
56024SOL    HW269906  12.334  11.273  11.712
56025SOL     OW69907   7.849   7.236  14.011
56025SOL    HW169908   7.937   7.209  13.985
56025SOL    HW269909   7.833   7.191  14.094
56026SOL     OW69910  14.153   6.863   4.867
56026SOL    HW169911  14.243   6.894   4.868
56026SOL    HW269912  14.156   6.776   4.906
56027SOL     OW69913  14.678   1.180   9.365
56027SOL    HW169914  14.715   1.117   9.303
56027SOL    HW269915  14.718   1.158   9.449
56028SOL     OW69916   8.627   1.592   1.329
56028SOL    HW169917   8.672   1.643   1.396
56028SOL    HW269918   8.557   1.547   1.375
56029SOL     OW69919   5.718   5.895   4.097
56029SOL    HW169920   5.721   5.892   4.001
56029SOL    HW269921   5.803   5.930   4.122
56030SOL     OW69922   1.570  13.898  11.769
56030SOL    HW169923   1.634  13.842  11.812
56030SOL    HW269924   1.487  13.878  11.812
56031SOL     OW69925  14.182   7.881   4.911
56031SOL    HW169926  14.101   7.929   4.893
56031SOL    HW269927  14.163   7.791   4.884
56032SOL     OW69928  11.950   5.468   6.052
56032SOL    HW169929  11.884   5.402   6.074
56032SOL    HW269930  11.943   5.532   6.123
56033SOL     OW69931  12.722   8.081   6.086
56033SOL    HW169932  12.628   8.069   6.098
56033SOL    HW269933  12.749   8.006   6.033
56034SOL     OW69934   3.571  10.272  11.716
56034SOL    HW169935   3.510  10.207  11.751
56034SOL    HW269936   3.645  10.271  11.777
56035SOL     OW69937  14.838   8.830   5.217
56035SOL    HW169938  14.844   8.765   5.147
56035SOL    HW269939   0.050   8.823   5.263
56036SOL     OW69940   2.639  12.144   8.645
56036SOL    HW169941   2.625  12.142   8.550
56036SOL    HW269942   2.564  12.098   8.681
56037SOL     OW69943   3.441   5.370  14.098
56037SOL    HW169944   3.448   5.408  14.185
56037SOL    HW269945   3.378   5.426  14.052
56038SOL     OW69946   8.591   5.615   5.459
56038SOL    HW169947   8.639   5.619   5.541
56038SOL    HW269948   8.537   5.536   5.465
56039SOL     OW69949   7.115   1.662   4.107
56039SOL    HW169950   7.125   1.622   4.021
56039SOL    HW269951   7.047   1.610   4.150
56040SOL     OW69952   9.659   9.447  10.724
56040SOL    HW169953   9.654   9.407  10.638
56040SOL    HW269954   9.600   9.523  10.719
56041SOL     OW69955   5.451  14.246  11.476
56041SOL    HW169956   5.448  14.173  11.538
56041SOL    HW269957   5.489  14.319  11.526
56042SOL     OW69958  10.614   9.319  11.982
56042SOL    HW169959  10.629   9.289  12.072
56042SOL    HW269960  10.579   9.241  11.937
56043SOL     OW69961   4.998   7.206   7.392
56043SOL    HW169962   5.091   7.196   7.371
56043SOL    HW269963   4.953   7.159   7.323
56044SOL     OW69964   3.898  13.098   2.192
56044SOL    HW169965   3.809  13.069   2.174
56044SOL    HW269966   3.887  13.185   2.232
56045SOL     OW69967   4.882   0.425  13.187
56045SOL    HW169968   4.889   0.402  13.279
56045SOL    HW269969   4.931   0.357  13.141
56046SOL     OW69970   8.442   5.853  13.258
56046SOL    HW169971   8.396   5.924  13.303
56046SOL    HW269972   8.526   5.892  13.232
56047SOL     OW69973  11.168   4.145   4.630
56047SOL    HW169974  11.109   4.076   4.601
56047SOL    HW269975  11.150   4.155   4.723
56048SOL     OW69976  14.867   5.442  11.838
56048SOL    HW169977  14.800   5.379  11.813
56048SOL    HW269978  14.856   5.515  11.777
56049SOL     OW69979   1.904   7.354   2.661
56049SOL    HW169980   1.830   7.328   2.607
56049SOL    HW269981   1.974   7.372   2.598
56050SOL     OW69982   9.645  13.233  12.406
56050SOL    HW169983   9.553  13.255  12.416
56050SOL    HW269984   9.691  13.302  12.454
56051SOL     OW69985   0.027  14.757   8.073
56051SOL    HW169986   0.005  14.837   8.121
56051SOL    HW269987   0.076  14.787   7.997
56052SOL     OW69988   6.997   9.327  10.366
56052SOL    HW169989   7.028   9.304  10.278
56052SOL    HW269990   6.902   9.334  10.356
56053SOL     OW69991   1.192   5.382   9.891
56053SOL    HW169992   1.196   5.399   9.985
56053SOL    HW269993   1.201   5.287   9.884
56054SOL     OW69994   6.198   8.354   0.048
56054SOL    HW169995   6.118   8.352   0.102
56054SOL    HW269996   6.181   8.423  14.856
56055SOL     OW69997   7.732  11.960   3.261
56055SOL    HW169998   7.694  11.875   3.239
56055SOL    HW269999   7.700  12.019   3.193
56056SOL     OW70000  13.852   8.277   4.417
56056SOL    HW170001  13.848   8.362   4.373
56056SOL    HW270002  13.944   8.251   4.413
56057SOL     OW70003  13.632   3.239   4.681
56057SOL    HW170004  13.694   3.288   4.735
56057SOL    HW270005  13.687   3.183   4.626
56058SOL     OW70006   9.821   8.209   1.655
56058SOL    HW170007   9.758   8.139   1.638
56058SOL    HW270008   9.792   8.247   1.738
56059SOL     OW70009   4.568   0.469  10.771
56059SOL    HW170010   4.597   0.415  10.845
56059SOL    HW270011   4.648   0.488  10.722
56060SOL     OW70012   8.647   0.723   1.975
56060SOL    HW170013   8.675   0.814   1.982
56060SOL    HW270014   8.615   0.714   1.885
56061SOL     OW70015   3.443  10.090   6.514
56061SOL    HW170016   3.403  10.158   6.459
56061SOL    HW270017   3.370  10.033   6.539
56062SOL     OW70018   7.094   1.285   8.519
56062SOL    HW170019   7.039   1.271   8.596
56062SOL    HW270020   7.123   1.197   8.494
56063SOL     OW70021   2.821   3.198   1.028
56063SOL    HW170022   2.911   3.203   0.995
56063SOL    HW270023   2.827   3.145   1.107
56064SOL     OW70024  10.327   4.214   8.660
56064SOL    HW170025  10.286   4.261   8.587
56064SOL    HW270026  10.419   4.240   8.656
56065SOL     OW70027  12.527  14.591  10.204
56065SOL    HW170028  12.521  14.516  10.263
56065SOL    HW270029  12.551  14.664  10.260
56066SOL     OW70030   6.709  11.610   3.711
56066SOL    HW170031   6.678  11.567   3.631
56066SOL    HW270032   6.644  11.585   3.778
56067SOL     OW70033   3.868   7.354  13.324
56067SOL    HW170034   3.925   7.425  13.354
56067SOL    HW270035   3.907   7.325  13.241
56068SOL     OW70036   2.956  14.444   8.615
56068SOL    HW170037   2.891  14.401   8.670
56068SOL    HW270038   3.022  14.476   8.677
56069SOL     OW70039  13.039   1.164   3.883
56069SOL    HW170040  13.065   1.157   3.975
56069SOL    HW270041  12.952   1.206   3.886
56070SOL     OW70042   0.925   2.758   1.753
56070SOL    HW170043   0.976   2.709   1.817
56070SOL    HW270044   0.840   2.772   1.795
56071SOL     OW70045   1.354  10.595   5.925
56071SOL    HW170046   1.401  10.608   6.008
56071SOL    HW270047   1.268  10.634   5.941
56072SOL     OW70048   3.537  11.477   4.203
56072SOL    HW170049   3.593  11.527   4.144
56072SOL    HW270050   3.596  11.418   4.249
56073SOL     OW70051   6.006  13.731   4.841
56073SOL    HW170052   6.086  13.782   4.851
56073SOL    HW270053   6.027  13.663   4.777
56074SOL     OW70054   7.828   9.186  10.356
56074SOL    HW170055   7.895   9.207  10.291
56074SOL    HW270056   7.754   9.154  10.305
56075SOL     OW70057   0.883   0.646   5.139
56075SOL    HW170058   0.908   0.655   5.047
56075SOL    HW270059   0.935   0.712   5.184
56076SOL     OW70060  14.134  14.527   3.491
56076SOL    HW170061  14.174  14.601   3.445
56076SOL    HW270062  14.207  14.484   3.536
56077SOL     OW70063   1.702   8.482   6.799
56077SOL    HW170064   1.777   8.541   6.786
56077SOL    HW270065   1.644   8.530   6.858
56078SOL     OW70066   8.979   4.176   2.387
56078SOL    HW170067   9.024   4.179   2.303
56078SOL    HW270068   8.966   4.267   2.411
56079SOL     OW70069   9.908   4.468  12.540
56079SOL    HW170070   9.861   4.469  12.623
56079SOL    HW270071   9.843   4.439  12.476
56080SOL     OW70072   3.708   3.705  11.416
56080SOL    HW170073   3.757   3.719  11.497
56080SOL    HW270074   3.738   3.775  11.358
56081SOL     OW70075  11.834   6.498   3.667
56081SOL    HW170076  11.917   6.459   3.638
56081SOL    HW270077  11.860   6.562   3.733
56082SOL     OW70078   6.582  12.260  12.987
56082SOL    HW170079   6.555  12.352  12.976
56082SOL    HW270080   6.541  12.233  13.069
56083SOL     OW70081   4.542   1.693  12.640
56083SOL    HW170082   4.494   1.620  12.679
56083SOL    HW270083   4.493   1.771  12.666
56084SOL     OW70084  11.472   4.735   4.453
56084SOL    HW170085  11.392   4.784   4.474
56084SOL    HW270086  11.441   4.649   4.426
56085SOL     OW70087   3.056  11.632   1.562
56085SOL    HW170088   3.086  11.564   1.503
56085SOL    HW270089   2.962  11.636   1.549
56086SOL     OW70090   4.414   1.661   5.081
56086SOL    HW170091   4.434   1.638   4.990
56086SOL    HW270092   4.363   1.587   5.114
56087SOL     OW70093  11.505   2.207   1.495
56087SOL    HW170094  11.568   2.172   1.432
56087SOL    HW270095  11.532   2.170   1.579
56088SOL     OW70096   5.519  10.749   1.240
56088SOL    HW170097   5.473  10.689   1.299
56088SOL    HW270098   5.608  10.713   1.235
56089SOL     OW70099   3.398  12.568   6.793
56089SOL    HW170100   3.409  12.657   6.761
56089SOL    HW270101   3.379  12.578   6.886
56090SOL     OW70102   5.717  11.129   6.154
56090SOL    HW170103   5.628  11.116   6.187
56090SOL    HW270104   5.709  11.125   6.059
56091SOL     OW70105   4.025  12.109   6.157
56091SOL    HW170106   4.073  12.130   6.237
56091SOL    HW270107   3.978  12.190   6.135
56092SOL     OW70108   9.060   3.052   0.686
56092SOL    HW170109   9.025   3.019   0.603
56092SOL    HW270110   8.996   3.025   0.751
56093SOL     OW70111   2.907   1.782   1.890
56093SOL    HW170112   2.856   1.859   1.917
56093SOL    HW270113   2.842   1.725   1.848
56094SOL     OW70114   6.666   8.317  12.656
56094SOL    HW170115   6.590   8.287  12.705
56094SOL    HW270116   6.661   8.413  12.661
56095SOL     OW70117  13.275  10.972   3.322
56095SOL    HW170118  13.274  10.912   3.249
56095SOL    HW270119  13.215  11.043   3.296
56096SOL     OW70120   7.956   0.820   8.028
56096SOL    HW170121   7.866   0.852   8.030
56096SOL    HW270122   8.007   0.895   7.997
56097SOL     OW70123  10.663  11.123   8.724
56097SOL    HW170124  10.587  11.180   8.734
56097SOL    HW270125  10.692  11.106   8.813
56098SOL     OW70126   2.171  12.316  11.296
56098SOL    HW170127   2.246  12.271  11.336
56098SOL    HW270128   2.095  12.263  11.321
56099SOL     OW70129   1.617   4.905  11.875
56099SOL    HW170130   1.673   4.982  11.865
56099SOL    HW270131   1.534   4.939  11.906
56100SOL     OW70132  13.036   0.634   6.872
56100SOL    HW170133  13.003   0.693   6.804
56100SOL    HW270134  13.084   0.567   6.823
56101SOL     OW70135   7.421   9.125   8.987
56101SOL    HW170136   7.370   9.155   8.912
56101SOL    HW270137   7.419   9.029   8.980
56102SOL     OW70138   5.954   9.655   9.362
56102SOL    HW170139   6.023   9.605   9.318
56102SOL    HW270140   5.887   9.666   9.294
56103SOL     OW70141  10.829   5.920   2.282
56103SOL    HW170142  10.844   5.928   2.188
56103SOL    HW270143  10.848   5.829   2.303
56104SOL     OW70144  10.527   8.462  11.659
56104SOL    HW170145  10.593   8.418  11.605
56104SOL    HW270146  10.446   8.416  11.639
56105SOL     OW70147   0.654   6.485   1.325
56105SOL    HW170148   0.716   6.519   1.389
56105SOL    HW270149   0.650   6.551   1.256
56106SOL     OW70150   5.340   0.352   2.068
56106SOL    HW170151   5.253   0.386   2.088
56106SOL    HW270152   5.330   0.311   1.982
56107SOL     OW70153   5.975   8.923   3.295
56107SOL    HW170154   6.039   8.852   3.301
56107SOL    HW270155   5.948   8.940   3.385
56108SOL     OW70156   1.762  10.542   9.676
56108SOL    HW170157   1.808  10.516   9.596
56108SOL    HW270158   1.687  10.592   9.646
56109SOL     OW70159   4.106   3.455  10.552
56109SOL    HW170160   4.162   3.488  10.622
56109SOL    HW270161   4.154   3.381  10.515
56110SOL     OW70162   2.005   9.804   0.300
56110SOL    HW170163   2.100   9.798   0.302
56110SOL    HW270164   1.987   9.860   0.224
56111SOL     OW70165   9.905   2.682   9.494
56111SOL    HW170166   9.946   2.747   9.550
56111SOL    HW270167   9.930   2.707   9.405
56112SOL     OW70168   4.587   6.548   3.361
56112SOL    HW170169   4.526   6.495   3.309
56112SOL    HW270170   4.564   6.638   3.339
56113SOL     OW70171   6.294   6.308   9.852
56113SOL    HW170172   6.226   6.349   9.906
56113SOL    HW270173   6.368   6.296   9.911
56114SOL     OW70174   2.704   1.140   9.495
56114SOL    HW170175   2.621   1.111   9.533
56114SOL    HW270176   2.765   1.070   9.514
56115SOL     OW70177  10.204   3.498  14.589
56115SOL    HW170178  10.281   3.488  14.533
56115SOL    HW270179  10.189   3.411  14.626
56116SOL     OW70180   9.318   7.797  14.802
56116SOL    HW170181   9.348   7.734  14.737
56116SOL    HW270182   9.387   7.864  14.804
56117SOL     OW70183  11.488  11.840   8.445
56117SOL    HW170184  11.421  11.795   8.495
56117SOL    HW270185  11.449  11.853   8.358
56118SOL     OW70186   8.726   8.964   8.634
56118SOL    HW170187   8.804   8.991   8.682
56118SOL    HW270188   8.704   8.878   8.670
56119SOL     OW70189   8.781  14.761  10.956
56119SOL    HW170190   8.830  14.828  10.909
56119SOL    HW270191   8.828  14.752  11.039
56120SOL     OW70192   1.280   6.204   9.971
56120SOL    HW170193   1.259   6.220  10.063
56120SOL    HW270194   1.376   6.204   9.969
56121SOL     OW70195  10.796   8.988  12.078
56121SOL    HW170196  10.815   8.898  12.104
56121SOL    HW270197  10.734   9.020  12.143
56122SOL     OW70198   9.521   9.918   3.696
56122SOL    HW170199   9.494  10.006   3.670
56122SOL    HW270200   9.551   9.877   3.615
56123SOL     OW70201   7.488   9.131   0.652
56123SOL    HW170202   7.455   9.219   0.670
56123SOL    HW270203   7.415   9.086   0.609
56124SOL     OW70204   5.948  12.361   6.567
56124SOL    HW170205   5.869  12.380   6.516
56124SOL    HW270206   5.984  12.447   6.587
56125SOL     OW70207   3.250  11.537   7.879
56125SOL    HW170208   3.211  11.580   7.803
56125SOL    HW270209   3.320  11.483   7.842
56126SOL     OW70210   6.258   0.483  11.393
56126SOL    HW170211   6.335   0.538  11.377
56126SOL    HW270212   6.212   0.526  11.465
56127SOL     OW70213   5.779   9.158   2.386
56127SOL    HW170214   5.804   9.164   2.294
56127SOL    HW270215   5.808   9.240   2.425
56128SOL     OW70216   8.197   5.324  11.230
56128SOL    HW170217   8.253   5.322  11.307
56128SOL    HW270218   8.145   5.244  11.235
56129SOL     OW70219   6.893   0.060   0.990
56129SOL    HW170220   6.859   0.105   1.067
56129SOL    HW270221   6.817   0.017   0.951
56130SOL     OW70222  13.242   6.570   9.007
56130SOL    HW170223  13.213   6.497   9.062
56130SOL    HW270224  13.217   6.648   9.057
56131SOL     OW70225  14.456   4.247  11.485
56131SOL    HW170226  14.527   4.184  11.474
56131SOL    HW270227  14.392   4.222  11.418
56132SOL     OW70228   8.710  12.868  12.895
56132SOL    HW170229   8.640  12.816  12.857
56132SOL    HW270230   8.790  12.835  12.854
56133SOL     OW70231   0.237   2.603   2.654
56133SOL    HW170232   0.173   2.556   2.599
56133SOL    HW270233   0.212   2.581   2.744
56134SOL     OW70234   0.222  12.714  10.832
56134SOL    HW170235   0.143  12.769  10.831
56134SOL    HW270236   0.249  12.709  10.741
56135SOL     OW70237   9.136   0.743   2.353
56135SOL    HW170238   9.058   0.722   2.303
56135SOL    HW270239   9.104   0.762   2.441
56136SOL     OW70240   4.990  10.283   3.164
56136SOL    HW170241   5.003  10.342   3.238
56136SOL    HW270242   5.016  10.197   3.198
56137SOL     OW70243   0.533   6.168   9.833
56137SOL    HW170244   0.624   6.161   9.861
56137SOL    HW270245   0.537   6.176   9.738
56138SOL     OW70246  13.026  12.776  13.641
56138SOL    HW170247  13.016  12.865  13.607
56138SOL    HW270248  13.058  12.726  13.565
56139SOL     OW70249  14.797   0.423  13.974
56139SOL    HW170250  14.752   0.507  13.978
56139SOL    HW270251  14.791   0.396  13.883
56140SOL     OW70252   4.705  13.098  13.911
56140SOL    HW170253   4.701  13.173  13.852
56140SOL    HW270254   4.617  13.090  13.946
56141SOL     OW70255  14.229   3.258   9.283
56141SOL    HW170256  14.187   3.215   9.209
56141SOL    HW270257  14.161   3.315   9.320
56142SOL     OW70258   5.131   7.459  12.254
56142SOL    HW170259   5.046   7.460  12.211
56142SOL    HW270260   5.161   7.550  12.249
56143SOL     OW70261  10.856   2.501  14.625
56143SOL    HW170262  10.898   2.482  14.709
56143SOL    HW270263  10.921   2.475  14.559
56144SOL     OW70264  12.882   8.824   6.709
56144SOL    HW170265  12.921   8.791   6.628
56144SOL    HW270266  12.933   8.904   6.729
56145SOL     OW70267   3.218   3.590  13.949
56145SOL    HW170268   3.191   3.627  14.033
56145SOL    HW270269   3.207   3.661  13.886
56146SOL     OW70270   7.700  13.249  11.068
56146SOL    HW170271   7.766  13.190  11.105
56146SOL    HW270272   7.743  13.334  11.064
56147SOL     OW70273  11.527  11.555   2.187
56147SOL    HW170274  11.616  11.545   2.221
56147SOL    HW270275  11.540  11.593   2.099
56148SOL     OW70276   1.584   8.190   6.367
56148SOL    HW170277   1.537   8.203   6.449
56148SOL    HW270278   1.657   8.252   6.371
56149SOL     OW70279  12.020   3.316   7.039
56149SOL    HW170280  11.977   3.402   7.038
56149SOL    HW270281  12.112   3.336   7.021
56150SOL     OW70282   2.688  10.389   4.419
56150SOL    HW170283   2.691  10.418   4.328
56150SOL    HW270284   2.779  10.374   4.443
56151SOL     OW70285   7.850   1.667   0.056
56151SOL    HW170286   7.758   1.683   0.037
56151SOL    HW270287   7.849   1.592   0.116
56152SOL     OW70288   1.897  12.082   2.682
56152SOL    HW170289   1.906  12.045   2.594
56152SOL    HW270290   1.970  12.144   2.690
56153SOL     OW70291  12.840   8.940   3.384
56153SOL    HW170292  12.864   8.860   3.430
56153SOL    HW270293  12.914   8.999   3.398
56154SOL     OW70294   5.321   7.888   1.703
56154SOL    HW170295   5.369   7.943   1.764
56154SOL    HW270296   5.388   7.848   1.649
56155SOL     OW70297   9.413   0.131   9.344
56155SOL    HW170298   9.345   0.188   9.379
56155SOL    HW270299   9.492   0.186   9.343
56156SOL     OW70300   5.242   5.512  14.618
56156SOL    HW170301   5.183   5.485  14.548
56156SOL    HW270302   5.190   5.571  14.672
56157SOL     OW70303   6.278   5.928   8.132
56157SOL    HW170304   6.199   5.938   8.185
56157SOL    HW270305   6.328   5.859   8.175
56158SOL     OW70306   0.586   3.357   2.047
56158SOL    HW170307   0.521   3.408   1.999
56158SOL    HW270308   0.538   3.281   2.079
56159SOL     OW70309  10.721  11.631   1.825
56159SOL    HW170310  10.725  11.640   1.729
56159SOL    HW270311  10.813  11.631   1.852
56160SOL     OW70312   8.609   9.406   7.359
56160SOL    HW170313   8.599   9.499   7.377
56160SOL    HW270314   8.548   9.363   7.419
56161SOL     OW70315   1.558  10.126  12.681
56161SOL    HW170316   1.589  10.207  12.721
56161SOL    HW270317   1.462  10.134  12.681
56162SOL     OW70318  14.821   5.004  12.320
56162SOL    HW170319  14.835   5.034  12.230
56162SOL    HW270320   0.023   4.949  12.339
56163SOL     OW70321  10.516  11.905  13.284
56163SOL    HW170322  10.543  11.974  13.344
56163SOL    HW270323  10.581  11.836  13.297
56164SOL     OW70324   1.736  10.155  12.234
56164SOL    HW170325   1.733  10.145  12.139
56164SOL    HW270326   1.817  10.111  12.260
56165SOL     OW70327   7.055   8.808  10.729
56165SOL    HW170328   7.137   8.858  10.728
56165SOL    HW270329   6.994   8.864  10.778
56166SOL     OW70330  10.430   1.209  10.700
56166SOL    HW170331  10.461   1.190  10.611
56166SOL    HW270332  10.468   1.141  10.754
56167SOL     OW70333   0.888   0.253  10.513
56167SOL    HW170334   0.913   0.192  10.443
56167SOL    HW270335   0.843   0.324  10.468
56168SOL     OW70336   1.847   8.566   6.461
56168SOL    HW170337   1.770   8.622   6.454
56168SOL    HW270338   1.819   8.483   6.423
56169SOL     OW70339   9.764   9.702  13.059
56169SOL    HW170340   9.732   9.614  13.077
56169SOL    HW270341   9.837   9.689  12.998
56170SOL     OW70342  11.780  13.147   8.738
56170SOL    HW170343  11.797  13.218   8.801
56170SOL    HW270344  11.863  13.099   8.732
56171SOL     OW70345   1.827   7.480   2.359
56171SOL    HW170346   1.781   7.446   2.283
56171SOL    HW270347   1.918   7.487   2.331
56172SOL     OW70348   4.196   7.916  14.313
56172SOL    HW170349   4.198   7.892  14.406
56172SOL    HW270350   4.235   8.004  14.311
56173SOL     OW70351   4.308  10.510  14.331
56173SOL    HW170352   4.229  10.557  14.357
56173SOL    HW270353   4.375  10.541  14.391
56174SOL     OW70354   3.024  14.392   4.766
56174SOL    HW170355   2.959  14.455   4.735
56174SOL    HW270356   3.040  14.335   4.691
56175SOL     OW70357   1.232   5.222  12.201
56175SOL    HW170358   1.243   5.296  12.141
56175SOL    HW270359   1.224   5.262  12.287
56176SOL     OW70360   3.808   8.914   7.475
56176SOL    HW170361   3.755   8.856   7.530
56176SOL    HW270362   3.767   8.909   7.388
56177SOL     OW70363   8.144   5.674   6.907
56177SOL    HW170364   8.053   5.698   6.927
56177SOL    HW270365   8.138   5.632   6.821
56178SOL     OW70366   3.561   0.443   3.017
56178SOL    HW170367   3.531   0.512   3.076
56178SOL    HW270368   3.550   0.362   3.068
56179SOL     OW70369  10.317  10.559  11.361
56179SOL    HW170370  10.243  10.504  11.334
56179SOL    HW270371  10.331  10.539  11.453
56180SOL     OW70372   0.405   4.670  10.419
56180SOL    HW170373   0.363   4.583  10.416
56180SOL    HW270374   0.433   4.679  10.510
56181SOL     OW70375   6.981  14.504   7.314
56181SOL    HW170376   6.910  14.479   7.373
56181SOL    HW270377   7.030  14.424   7.299
56182SOL     OW70378   9.003   9.763   2.309
56182SOL    HW170379   8.966   9.806   2.232
56182SOL    HW270380   8.999   9.830   2.377
56183SOL     OW70381   7.754  12.467   3.491
56183SOL    HW170382   7.683  12.421   3.536
56183SOL    HW270383   7.823  12.475   3.557
56184SOL     OW70384   5.749   6.523   9.374
56184SOL    HW170385   5.816   6.576   9.416
56184SOL    HW270386   5.668   6.573   9.385
56185SOL     OW70387   7.522   8.548   5.872
56185SOL    HW170388   7.555   8.479   5.814
56185SOL    HW270389   7.434   8.568   5.838
56186SOL     OW70390  13.576   8.603   9.803
56186SOL    HW170391  13.669   8.581   9.810
56186SOL    HW270392  13.546   8.608   9.894
56187SOL     OW70393   6.542  13.894   4.178
56187SOL    HW170394   6.629  13.872   4.147
56187SOL    HW270395   6.485  13.882   4.102
56188SOL     OW70396  12.327  11.237  11.540
56188SOL    HW170397  12.327  11.319  11.491
56188SOL    HW270398  12.360  11.172  11.478
56189SOL     OW70399   1.676   9.832  12.227
56189SOL    HW170400   1.727   9.776  12.168
56189SOL    HW270401   1.733   9.907  12.244
56190SOL     OW70402  11.719   5.617  12.474
56190SOL    HW170403  11.642   5.660  12.511
56190SOL    HW270404  11.793   5.668  12.506
56191SOL     OW70405  11.148  10.455   0.698
56191SOL    HW170406  11.173  10.547   0.702
56191SOL    HW270407  11.181  10.425   0.613
56192SOL     OW70408  11.313   5.167  11.800
56192SOL    HW170409  11.370   5.195  11.872
56192SOL    HW270410  11.317   5.239  11.737
56193SOL     OW70411   7.704  13.586   8.196
56193SOL    HW170412   7.623  13.537   8.191
56193SOL    HW270413   7.684  13.670   8.153
56194SOL     OW70414   1.734  10.593   1.492
56194SOL    HW170415   1.679  10.515   1.495
56194SOL    HW270416   1.677  10.663   1.524
56195SOL     OW70417  12.954   8.347  12.564
56195SOL    HW170418  12.916   8.386  12.643
56195SOL    HW270419  12.889   8.282  12.536
56196SOL     OW70420   8.672   4.856  10.715
56196SOL    HW170421   8.738   4.787  10.711
56196SOL    HW270422   8.698   4.918  10.647
56197SOL     OW70423   8.330   6.340   2.472
56197SOL    HW170424   8.238   6.360   2.452
56197SOL    HW270425   8.339   6.247   2.454
56198SOL     OW70426   7.358   0.313   5.853
56198SOL    HW170427   7.338   0.344   5.941
56198SOL    HW270428   7.358   0.218   5.860
56199SOL     OW70429   7.715  11.741   5.106
56199SOL    HW170430   7.738  11.814   5.048
56199SOL    HW270431   7.789  11.682   5.100
56200SOL     OW70432   7.444  12.326  13.645
56200SOL    HW170433   7.439  12.313  13.550
56200SOL    HW270434   7.356  12.354  13.670
56201SOL     OW70435   4.439  12.147   9.143
56201SOL    HW170436   4.427  12.076   9.081
56201SOL    HW270437   4.439  12.105   9.229
56202SOL     OW70438   2.051   0.722   5.808
56202SOL    HW170439   1.993   0.685   5.874
56202SOL    HW270440   2.021   0.812   5.796
56203SOL     OW70441  12.030   8.814   7.493
56203SOL    HW170442  12.120   8.788   7.472
56203SOL    HW270443  12.028   8.821   7.588
56204SOL     OW70444   7.053   3.733   1.059
56204SOL    HW170445   7.095   3.717   1.144
56204SOL    HW270446   6.963   3.756   1.081
56205SOL     OW70447   3.810   2.865   5.168
56205SOL    HW170448   3.837   2.931   5.104
56205SOL    HW270449   3.714   2.865   5.163
56206SOL     OW70450   5.074   9.742   8.511
56206SOL    HW170451   5.079   9.647   8.521
56206SOL    HW270452   5.077   9.776   8.600
56207SOL     OW70453   9.550   9.157  13.963
56207SOL    HW170454   9.457   9.173  13.946
56207SOL    HW270455   9.551   9.080  14.020
56208SOL     OW70456   5.435   2.534   5.197
56208SOL    HW170457   5.484   2.615   5.183
56208SOL    HW270458   5.441   2.488   5.113
56209SOL     OW70459   2.301   2.858  14.149
56209SOL    HW170460   2.287   2.776  14.101
56209SOL    HW270461   2.215   2.881  14.183
56210SOL     OW70462   5.814   0.116   3.648
56210SOL    HW170463   5.871   0.069   3.587
56210SOL    HW270464   5.726   0.082   3.630
56211SOL     OW70465   2.847   8.839  14.142
56211SOL    HW170466   2.813   8.807  14.059
56211SOL    HW270467   2.826   8.770  14.205
56212SOL     OW70468   8.362   5.525   1.216
56212SOL    HW170469   8.424   5.496   1.282
56212SOL    HW270470   8.350   5.619   1.234
56213SOL     OW70471   5.469  13.104   5.257
56213SOL    HW170472   5.382  13.137   5.277
56213SOL    HW270473   5.460  13.009   5.261
56214SOL     OW70474  12.127   1.718  13.401
56214SOL    HW170475  12.140   1.632  13.361
56214SOL    HW270476  12.205   1.768  13.375
56215SOL     OW70477   4.349   2.032   5.755
56215SOL    HW170478   4.343   1.938   5.739
56215SOL    HW270479   4.258   2.060   5.767
56216SOL     OW70480   8.098   8.455   9.866
56216SOL    HW170481   8.185   8.482   9.897
56216SOL    HW270482   8.115   8.409   9.784
56217SOL     OW70483   7.986   4.235  13.769
56217SOL    HW170484   8.062   4.202  13.722
56217SOL    HW270485   7.957   4.161  13.823
56218SOL     OW70486   9.251  12.816   8.216
56218SOL    HW170487   9.190  12.890   8.221
56218SOL    HW270488   9.336  12.854   8.239
56219SOL     OW70489   4.497   0.394   2.797
56219SOL    HW170490   4.574   0.343   2.820
56219SOL    HW270491   4.424   0.348   2.840
56220SOL     OW70492   6.394   5.061   2.600
56220SOL    HW170493   6.316   5.036   2.551
56220SOL    HW270494   6.431   4.978   2.631
56221SOL     OW70495  14.630   6.980   2.192
56221SOL    HW170496  14.676   7.056   2.155
56221SOL    HW270497  14.671   6.904   2.150
56222SOL     OW70498   1.655   5.006  14.052
56222SOL    HW170499   1.645   5.099  14.070
56222SOL    HW270500   1.664   5.000  13.957
56223SOL     OW70501   0.600   1.771  10.145
56223SOL    HW170502   0.609   1.861  10.177
56223SOL    HW270503   0.506   1.760  10.131
56224SOL     OW70504   8.920  12.688  14.063
56224SOL    HW170505   8.918  12.595  14.038
56224SOL    HW270506   8.977  12.729  13.999
56225SOL     OW70507   6.128   9.619  13.214
56225SOL    HW170508   6.049   9.604  13.267
56225SOL    HW270509   6.095   9.648  13.129
56226SOL     OW70510   0.954   8.901   0.384
56226SOL    HW170511   1.024   8.919   0.322
56226SOL    HW270512   0.975   8.955   0.460
56227SOL     OW70513  12.960  12.670   4.395
56227SOL    HW170514  13.037  12.628   4.434
56227SOL    HW270515  12.994  12.750   4.355
56228SOL     OW70516  10.861   5.434   1.466
56228SOL    HW170517  10.945   5.389   1.470
56228SOL    HW270518  10.796   5.365   1.481
56229SOL     OW70519   1.964   1.293  11.598
56229SOL    HW170520   2.005   1.208  11.615
56229SOL    HW270521   1.981   1.309  11.506
56230SOL     OW70522  13.387   8.834   5.473
56230SOL    HW170523  13.370   8.828   5.379
56230SOL    HW270524  13.480   8.856   5.479
56231SOL     OW70525   6.332   9.463  14.268
56231SOL    HW170526   6.312   9.386  14.215
56231SOL    HW270527   6.253   9.517  14.263
56232SOL     OW70528  13.031   8.533   3.702
56232SOL    HW170529  13.125   8.546   3.694
56232SOL    HW270530  13.015   8.446   3.666
56233SOL     OW70531  13.307   8.512   3.174
56233SOL    HW170532  13.341   8.593   3.212
56233SOL    HW270533  13.279   8.460   3.249
56234SOL     OW70534  10.240   8.247   3.053
56234SOL    HW170535  10.289   8.174   3.016
56234SOL    HW270536  10.162   8.254   2.998
56235SOL     OW70537   0.502   4.360  12.030
56235SOL    HW170538   0.525   4.438  12.080
56235SOL    HW270539   0.548   4.371  11.947
56236SOL     OW70540   2.063  10.653  10.910
56236SOL    HW170541   2.082  10.710  10.836
56236SOL    HW270542   2.004  10.586  10.874
56237SOL     OW70543  12.626   1.203   8.884
56237SOL    HW170544  12.550   1.262   8.886
56237SOL    HW270545  12.686   1.239   8.949
56238SOL     OW70546   7.301   6.133   4.038
56238SOL    HW170547   7.325   6.129   3.946
56238SOL    HW270548   7.269   6.045   4.059
56239SOL     OW70549   4.045  14.472   7.630
56239SOL    HW170550   3.996  14.405   7.583
56239SOL    HW270551   4.015  14.555   7.593
56240SOL     OW70552   9.989   8.095   7.278
56240SOL    HW170553  10.085   8.093   7.282
56240SOL    HW270554   9.961   8.056   7.360
56241SOL     OW70555   5.619  13.866  12.910
56241SOL    HW170556   5.599  13.774  12.892
56241SOL    HW270557   5.627  13.871  13.005
56242SOL     OW70558   0.173   2.073  13.063
56242SOL    HW170559   0.232   2.138  13.025
56242SOL    HW270560   0.176   1.999  13.003
56243SOL     OW70561   1.095   8.008  13.868
56243SOL    HW170562   1.033   8.047  13.805
56243SOL    HW270563   1.100   7.916  13.842
56244SOL     OW70564  13.120   3.876   3.018
56244SOL    HW170565  13.172   3.942   2.971
56244SOL    HW270566  13.050   3.853   2.957
56245SOL     OW70567   6.862   7.592  11.663
56245SOL    HW170568   6.896   7.641  11.588
56245SOL    HW270569   6.773   7.569  11.639
56246SOL     OW70570  11.240   2.348   4.447
56246SOL    HW170571  11.249   2.437   4.481
56246SOL    HW270572  11.153   2.345   4.409
56247SOL     OW70573  10.546   9.665  10.665
56247SOL    HW170574  10.540   9.737  10.729
56247SOL    HW270575  10.481   9.687  10.599
56248SOL     OW70576  13.431   1.212   7.180
56248SOL    HW170577  13.497   1.214   7.111
56248SOL    HW270578  13.421   1.304   7.206
56249SOL     OW70579  10.420  13.601   4.523
56249SOL    HW170580  10.443  13.616   4.431
56249SOL    HW270581  10.486  13.648   4.573
56250SOL     OW70582   0.586   5.709  11.388
56250SOL    HW170583   0.668   5.751  11.363
56250SOL    HW270584   0.576   5.637  11.326
56251SOL     OW70585  13.576  11.893   4.674
56251SOL    HW170586  13.607  11.914   4.762
56251SOL    HW270587  13.487  11.929   4.670
56252SOL     OW70588   4.944  11.020   5.774
56252SOL    HW170589   4.951  10.936   5.728
56252SOL    HW270590   5.029  11.061   5.761
56253SOL     OW70591  10.906   4.963   4.375
56253SOL    HW170592  10.936   5.032   4.435
56253SOL    HW270593  10.984   4.939   4.326
56254SOL     OW70594   7.443   7.146   0.498
56254SOL    HW170595   7.418   7.223   0.447
56254SOL    HW270596   7.398   7.073   0.455
56255SOL     OW70597   4.160  13.603   1.896
56255SOL    HW170598   4.190  13.690   1.871
56255SOL    HW270599   4.069  13.616   1.925
56256SOL     OW70600   8.949   4.548   7.148
56256SOL    HW170601   8.969   4.637   7.179
56256SOL    HW270602   9.020   4.494   7.183
56257SOL     OW70603   5.306   2.125   6.693
56257SOL    HW170604   5.326   2.052   6.634
56257SOL    HW270605   5.356   2.106   6.772
56258SOL     OW70606   3.041  10.648   7.352
56258SOL    HW170607   3.072  10.677   7.437
56258SOL    HW270608   3.097  10.574   7.330
56259SOL     OW70609   4.509  11.080   7.454
56259SOL    HW170610   4.460  11.146   7.503
56259SOL    HW270611   4.517  11.117   7.366
56260SOL     OW70612   3.482   9.017  12.356
56260SOL    HW170613   3.445   9.105  12.348
56260SOL    HW270614   3.557   9.017  12.298
56261SOL     OW70615   8.062   2.405   1.478
56261SOL    HW170616   7.990   2.349   1.449
56261SOL    HW270617   8.104   2.357   1.549
56262SOL     OW70618   6.370   7.770   4.213
56262SOL    HW170619   6.294   7.711   4.207
56262SOL    HW270620   6.414   7.743   4.294
56263SOL     OW70621   4.762  10.595  14.618
56263SOL    HW170622   4.833  10.544  14.657
56263SOL    HW270623   4.791  10.609  14.527
56264SOL     OW70624   3.391   6.523  11.767
56264SOL    HW170625   3.441   6.602  11.745
56264SOL    HW270626   3.300   6.552  11.769
56265SOL     OW70627   8.803   3.558  11.384
56265SOL    HW170628   8.786   3.478  11.433
56265SOL    HW270629   8.896   3.552  11.360
56266SOL     OW70630   0.747  13.854  14.543
56266SOL    HW170631   0.663  13.840  14.585
56266SOL    HW270632   0.767  13.770  14.501
56267SOL     OW70633   8.567   5.187  10.611
56267SOL    HW170634   8.617   5.108  10.591
56267SOL    HW270635   8.477   5.166  10.587
56268SOL     OW70636   7.346   5.804  11.729
56268SOL    HW170637   7.378   5.888  11.762
56268SOL    HW270638   7.319   5.756  11.808
56269SOL     OW70639   5.892   1.245   4.886
56269SOL    HW170640   5.810   1.268   4.929
56269SOL    HW270641   5.959   1.294   4.932
56270SOL     OW70642  14.052   0.158   9.575
56270SOL    HW170643  13.965   0.151   9.612
56270SOL    HW270644  14.046   0.113   9.490
56271SOL     OW70645   3.579  12.032  10.835
56271SOL    HW170646   3.492  11.996  10.824
56271SOL    HW270647   3.632  11.990  10.767
56272SOL     OW70648   1.610   5.218   0.221
56272SOL    HW170649   1.632   5.195   0.311
56272SOL    HW270650   1.693   5.214   0.174
56273SOL     OW70651   5.777  11.984   0.067
56273SOL    HW170652   5.814  12.049   0.128
56273SOL    HW270653   5.687  12.013   0.054
56274SOL     OW70654   6.093  12.536   7.206
56274SOL    HW170655   6.018  12.512   7.152
56274SOL    HW270656   6.140  12.454   7.221
56275SOL     OW70657  10.615  11.316  14.518
56275SOL    HW170658  10.695  11.358  14.485
56275SOL    HW270659  10.644  11.230  14.548
56276SOL     OW70660  14.647  11.284  12.044
56276SOL    HW170661  14.632  11.196  12.012
56276SOL    HW270662  14.685  11.330  11.969
56277SOL     OW70663  12.151  13.891  10.231
56277SOL    HW170664  12.112  13.884  10.319
56277SOL    HW270665  12.117  13.974  10.197
56278SOL     OW70666  12.479  13.294  12.470
56278SOL    HW170667  12.542  13.336  12.528
56278SOL    HW270668  12.473  13.352  12.395
56279SOL     OW70669  11.257  10.408   2.777
56279SOL    HW170670  11.301  10.493   2.774
56279SOL    HW270671  11.327  10.344   2.786
56280SOL     OW70672  10.442   5.496   0.928
56280SOL    HW170673  10.411   5.518   0.840
56280SOL    HW270674  10.414   5.569   0.983
56281SOL     OW70675   2.879   5.803   9.631
56281SOL    HW170676   2.800   5.760   9.598
56281SOL    HW270677   2.948   5.777   9.570
56282SOL     OW70678  12.444   9.284   5.116
56282SOL    HW170679  12.384   9.355   5.095
56282SOL    HW270680  12.529   9.326   5.125
56283SOL     OW70681   6.523   4.821  12.940
56283SOL    HW170682   6.549   4.774  12.860
56283SOL    HW270683   6.441   4.780  12.967
56284SOL     OW70684   1.016   3.816   0.473
56284SOL    HW170685   1.095   3.779   0.433
56284SOL    HW270686   1.047   3.894   0.518
56285SOL     OW70687   6.577   0.381   4.370
56285SOL    HW170688   6.531   0.394   4.453
56285SOL    HW270689   6.670   0.381   4.394
56286SOL     OW70690  12.760   3.390   0.230
56286SOL    HW170691  12.753   3.482   0.254
56286SOL    HW270692  12.723   3.385   0.141
56287SOL     OW70693   4.137   0.360  12.641
56287SOL    HW170694   4.081   0.387  12.713
56287SOL    HW270695   4.092   0.285  12.601
56288SOL     OW70696   9.635   1.891  14.724
56288SOL    HW170697   9.683   1.972  14.711
56288SOL    HW270698   9.642   1.873  14.817
56289SOL     OW70699   3.921  14.295  11.516
56289SOL    HW170700   3.883  14.265  11.434
56289SOL    HW270701   3.884  14.382  11.530
56290SOL     OW70702  10.502   5.338   2.298
56290SOL    HW170703  10.588   5.371   2.270
56290SOL    HW270704  10.440   5.380   2.239
56291SOL     OW70705  13.060  13.287   6.185
56291SOL    HW170706  12.970  13.313   6.168
56291SOL    HW270707  13.052  13.213   6.246
56292SOL     OW70708  11.382   4.789  11.928
56292SOL    HW170709  11.448   4.722  11.943
56292SOL    HW270710  11.350   4.811  12.015
56293SOL     OW70711   6.260  10.588   1.502
56293SOL    HW170712   6.221  10.657   1.448
56293SOL    HW270713   6.192  10.569   1.567
56294SOL     OW70714  11.603   2.148   5.415
56294SOL    HW170715  11.520   2.179   5.380
56294SOL    HW270716  11.663   2.149   5.340
56295SOL     OW70717   0.992  11.003   0.954
56295SOL    HW170718   1.015  10.988   0.863
56295SOL    HW270719   0.951  11.090   0.955
56296SOL     OW70720  12.836  12.262   6.156
56296SOL    HW170721  12.831  12.278   6.061
56296SOL    HW270722  12.746  12.275   6.186
56297SOL     OW70723   8.433  12.604   9.388
56297SOL    HW170724   8.347  12.647   9.391
56297SOL    HW270725   8.440  12.560   9.473
56298SOL     OW70726   6.460   8.270   7.663
56298SOL    HW170727   6.503   8.354   7.648
56298SOL    HW270728   6.531   8.211   7.688
56299SOL     OW70729   4.383   9.262   3.063
56299SOL    HW170730   4.346   9.264   3.151
56299SOL    HW270731   4.442   9.337   3.061
56300SOL     OW70732   4.660   1.496   3.374
56300SOL    HW170733   4.575   1.541   3.377
56300SOL    HW270734   4.666   1.464   3.284
56301SOL     OW70735  14.120   3.317   8.617
56301SOL    HW170736  14.192   3.283   8.563
56301SOL    HW270737  14.050   3.333   8.554
56302SOL     OW70738  10.811  13.485   7.747
56302SOL    HW170739  10.718  13.463   7.756
56302SOL    HW270740  10.843  13.426   7.679
56303SOL     OW70741  10.907   9.073   5.885
56303SOL    HW170742  10.997   9.046   5.900
56303SOL    HW270743  10.873   9.011   5.821
56304SOL     OW70744   9.612   0.212   2.613
56304SOL    HW170745   9.519   0.215   2.635
56304SOL    HW270746   9.631   0.300   2.580
56305SOL     OW70747   8.287   7.098  11.060
56305SOL    HW170748   8.254   7.172  11.008
56305SOL    HW270749   8.208   7.046  11.079
56306SOL     OW70750   9.278  11.402  11.870
56306SOL    HW170751   9.188  11.385  11.897
56306SOL    HW270752   9.270  11.469  11.803
56307SOL     OW70753  14.053   4.052  13.392
56307SOL    HW170754  14.050   3.957  13.388
56307SOL    HW270755  13.984   4.081  13.331
56308SOL     OW70756  11.743   2.987   9.655
56308SOL    HW170757  11.755   2.892   9.652
56308SOL    HW270758  11.653   2.999   9.684
56309SOL     OW70759   3.016   4.650  13.127
56309SOL    HW170760   3.048   4.637  13.037
56309SOL    HW270761   2.954   4.722  13.120
56310SOL     OW70762   8.880   3.629  10.438
56310SOL    HW170763   8.812   3.696  10.447
56310SOL    HW270764   8.955   3.665  10.486
56311SOL     OW70765  13.972   1.585   9.242
56311SOL    HW170766  13.920   1.558   9.317
56311SOL    HW270767  13.921   1.655   9.201
56312SOL     OW70768   9.454  14.549   9.310
56312SOL    HW170769   9.415  14.584   9.390
56312SOL    HW270770   9.486  14.462   9.334
56313SOL     OW70771   5.281   1.859   4.032
56313SOL    HW170772   5.347   1.811   4.081
56313SOL    HW270773   5.256   1.932   4.089
56314SOL     OW70774   9.461   1.644   2.469
56314SOL    HW170775   9.422   1.569   2.424
56314SOL    HW270776   9.540   1.664   2.419
56315SOL     OW70777   5.629   7.454  13.043
56315SOL    HW170778   5.708   7.506  13.029
56315SOL    HW270779   5.639   7.417  13.130
56316SOL     OW70780  14.446   5.446   3.973
56316SOL    HW170781  14.452   5.350   3.970
56316SOL    HW270782  14.414   5.465   4.061
56317SOL     OW70783  10.066   4.658   8.018
56317SOL    HW170784  10.099   4.686   7.933
56317SOL    HW270785  10.129   4.694   8.081
56318SOL     OW70786  13.209  14.552   3.426
56318SOL    HW170787  13.174  14.465   3.406
56318SOL    HW270788  13.197  14.602   3.346
56319SOL     OW70789   3.636   3.358   1.173
56319SOL    HW170790   3.715   3.312   1.199
56319SOL    HW270791   3.612   3.411   1.249
56320SOL     OW70792  10.106   8.810   5.812
56320SOL    HW170793  10.159   8.855   5.878
56320SOL    HW270794  10.082   8.878   5.750
56321SOL     OW70795   5.497   1.105  12.820
56321SOL    HW170796   5.453   1.169  12.876
56321SOL    HW270797   5.472   1.020  12.857
56322SOL     OW70798   3.062   8.910   3.334
56322SOL    HW170799   3.001   8.844   3.366
56322SOL    HW270800   3.139   8.901   3.390
56323SOL     OW70801   0.244  10.425   1.365
56323SOL    HW170802   0.328  10.456   1.331
56323SOL    HW270803   0.255  10.425   1.460
56324SOL     OW70804   0.421   2.510   6.343
56324SOL    HW170805   0.403   2.600   6.369
56324SOL    HW270806   0.496   2.484   6.396
56325SOL     OW70807   0.625   2.205  13.302
56325SOL    HW170808   0.685   2.197  13.376
56325SOL    HW270809   0.663   2.274  13.248
56326SOL     OW70810   2.884  14.349  13.362
56326SOL    HW170811   2.799  14.369  13.320
56326SOL    HW270812   2.941  14.327  13.289
56327SOL     OW70813   4.189   0.773  11.251
56327SOL    HW170814   4.198   0.719  11.329
56327SOL    HW270815   4.278   0.798  11.228
56328SOL     OW70816   9.342   5.867   8.452
56328SOL    HW170817   9.316   5.806   8.521
56328SOL    HW270818   9.357   5.950   8.498
56329SOL     OW70819   8.681  10.944  14.600
56329SOL    HW170820   8.638  10.875  14.652
56329SOL    HW270821   8.773  10.938  14.625
56330SOL     OW70822   2.356  10.648   8.750
56330SOL    HW170823   2.416  10.692   8.811
56330SOL    HW270824   2.307  10.719   8.709
56331SOL     OW70825   5.594   3.562   9.931
56331SOL    HW170826   5.673   3.559   9.985
56331SOL    HW270827   5.607   3.497   9.863
56332SOL     OW70828   8.876  13.020   1.397
56332SOL    HW170829   8.907  13.024   1.487
56332SOL    HW270830   8.842  12.931   1.387
56333SOL     OW70831   0.900   0.475  11.567
56333SOL    HW170832   0.961   0.541  11.600
56333SOL    HW270833   0.855   0.443  11.645
56334SOL     OW70834   9.564   7.640  10.468
56334SOL    HW170835   9.650   7.623  10.430
56334SOL    HW270836   9.522   7.702  10.407
56335SOL     OW70837  14.194   8.928  13.707
56335SOL    HW170838  14.138   8.868  13.756
56335SOL    HW270839  14.256   8.871  13.662
56336SOL     OW70840  14.342   1.038   3.683
56336SOL    HW170841  14.285   1.107   3.651
56336SOL    HW270842  14.294   0.957   3.668
56337SOL     OW70843  10.263   2.185   9.393
56337SOL    HW170844  10.271   2.253   9.460
56337SOL    HW270845  10.353   2.171   9.363
56338SOL     OW70846  14.687   4.999   4.544
56338SOL    HW170847  14.729   5.083   4.564
56338SOL    HW270848  14.754   4.934   4.563
56339SOL     OW70849   9.590  12.661   1.453
56339SOL    HW170850   9.639  12.742   1.470
56339SOL    HW270851   9.569  12.665   1.360
56340SOL     OW70852  13.394  12.203   0.958
56340SOL    HW170853  13.347  12.151   1.023
56340SOL    HW270854  13.382  12.293   0.988
56341SOL     OW70855   1.778   4.503   1.235
56341SOL    HW170856   1.858   4.498   1.288
56341SOL    HW270857   1.789   4.434   1.169
56342SOL     OW70858   4.447   5.551   8.303
56342SOL    HW170859   4.471   5.636   8.339
56342SOL    HW270860   4.525   5.497   8.317
56343SOL     OW70861  14.555   9.075  11.671
56343SOL    HW170862  14.469   9.062  11.711
56343SOL    HW270863  14.580   9.164  11.694
56344SOL     OW70864   4.930   1.894  14.352
56344SOL    HW170865   4.870   1.836  14.399
56344SOL    HW270866   5.015   1.852  14.360
56345SOL     OW70867  12.616   2.968   7.011
56345SOL    HW170868  12.704   3.004   7.020
56345SOL    HW270869  12.616   2.890   7.066
56346SOL     OW70870   0.370   3.613   2.227
56346SOL    HW170871   0.331   3.681   2.282
56346SOL    HW270872   0.445   3.656   2.186
56347SOL     OW70873  13.826  14.682  10.688
56347SOL    HW170874  13.834  14.655  10.596
56347SOL    HW270875  13.878  14.762  10.694
56348SOL     OW70876   0.852  12.405  13.085
56348SOL    HW170877   0.888  12.478  13.137
56348SOL    HW270878   0.915  12.334  13.096
56349SOL     OW70879   7.329   0.811  13.161
56349SOL    HW170880   7.283   0.730  13.183
56349SOL    HW270881   7.391   0.785  13.093
56350SOL     OW70882   6.687   3.222   7.847
56350SOL    HW170883   6.610   3.271   7.877
56350SOL    HW270884   6.685   3.141   7.897
56351SOL     OW70885   6.814   0.344   8.295
56351SOL    HW170886   6.814   0.251   8.272
56351SOL    HW270887   6.743   0.353   8.359
56352SOL     OW70888   9.980   6.644   7.341
56352SOL    HW170889   9.987   6.563   7.391
56352SOL    HW270890   9.965   6.615   7.251
56353SOL     OW70891   2.055   6.922   4.770
56353SOL    HW170892   2.112   6.886   4.702
56353SOL    HW270893   2.095   6.893   4.852
56354SOL     OW70894   9.021  14.336   2.341
56354SOL    HW170895   9.009  14.431   2.333
56354SOL    HW270896   9.112  14.325   2.367
56355SOL     OW70897   3.534   2.745  13.728
56355SOL    HW170898   3.446   2.734  13.692
56355SOL    HW270899   3.589   2.686  13.677
56356SOL     OW70900  10.736  14.854   2.667
56356SOL    HW170901  10.707   0.069   2.693
56356SOL    HW270902  10.801  14.870   2.598
56357SOL     OW70903   2.556  14.031   0.519
56357SOL    HW170904   2.634  14.038   0.575
56357SOL    HW270905   2.576  14.088   0.444
56358SOL     OW70906   6.565  12.195  13.463
56358SOL    HW170907   6.542  12.230  13.549
56358SOL    HW270908   6.646  12.241  13.440
56359SOL     OW70909   9.514  11.015   1.414
56359SOL    HW170910   9.483  11.040   1.327
56359SOL    HW270911   9.556  10.930   1.402
56360SOL     OW70912   2.259  11.067  10.297
56360SOL    HW170913   2.241  11.019  10.216
56360SOL    HW270914   2.262  10.999  10.364
56361SOL     OW70915   0.348   0.408  10.413
56361SOL    HW170916   0.264   0.375  10.381
56361SOL    HW270917   0.344   0.398  10.508
56362SOL     OW70918  13.305   2.560  14.057
56362SOL    HW170919  13.347   2.505  14.124
56362SOL    HW270920  13.328   2.649  14.082
56363SOL     OW70921   4.930   2.826   8.552
56363SOL    HW170922   4.837   2.819   8.574
56363SOL    HW270923   4.970   2.858   8.633
56364SOL     OW70924   5.048  13.233   2.282
56364SOL    HW170925   5.019  13.226   2.191
56364SOL    HW270926   4.973  13.270   2.328
56365SOL     OW70927   8.228   4.967  10.699
56365SOL    HW170928   8.219   4.892  10.757
56365SOL    HW270929   8.144   5.011  10.703
56366SOL     OW70930  14.482   9.709   4.742
56366SOL    HW170931  14.496   9.648   4.669
56366SOL    HW270932  14.564   9.757   4.749
56367SOL     OW70933  14.308   9.538   0.878
56367SOL    HW170934  14.366   9.478   0.926
56367SOL    HW270935  14.225   9.492   0.875
56368SOL     OW70936   3.607   8.651   5.110
56368SOL    HW170937   3.612   8.738   5.150
56368SOL    HW270938   3.597   8.591   5.185
56369SOL     OW70939   3.091   9.852   5.791
56369SOL    HW170940   3.079   9.947   5.789
56369SOL    HW270941   3.094   9.830   5.884
56370SOL     OW70942   8.477   9.839   5.900
56370SOL    HW170943   8.431   9.828   5.817
56370SOL    HW270944   8.426   9.787   5.962
56371SOL     OW70945   3.317  10.320   7.534
56371SOL    HW170946   3.401  10.284   7.563
56371SOL    HW270947   3.258  10.303   7.608
56372SOL     OW70948  13.639   3.316   2.047
56372SOL    HW170949  13.623   3.223   2.028
56372SOL    HW270950  13.578   3.337   2.117
56373SOL     OW70951  13.319  14.618   7.323
56373SOL    HW170952  13.364  14.664   7.252
56373SOL    HW270953  13.297  14.686   7.386
56374SOL     OW70954  12.002   1.721  13.640
56374SOL    HW170955  12.054   1.713  13.560
56374SOL    HW270956  11.913   1.698  13.613
56375SOL     OW70957   0.703  12.815  13.397
56375SOL    HW170958   0.732  12.828  13.488
56375SOL    HW270959   0.608  12.819  13.401
56376SOL     OW70960   1.786   8.829   1.030
56376SOL    HW170961   1.745   8.802   0.947
56376SOL    HW270962   1.810   8.920   1.016
56377SOL     OW70963   8.928   5.506  14.253
56377SOL    HW170964   9.016   5.522  14.286
56377SOL    HW270965   8.876   5.578  14.287
56378SOL     OW70966  12.190   9.147   2.150
56378SOL    HW170967  12.269   9.098   2.173
56378SOL    HW270968  12.220   9.207   2.081
56379SOL     OW70969  14.630  11.585   5.150
56379SOL    HW170970  14.647  11.492   5.164
56379SOL    HW270971  14.577  11.587   5.070
56380SOL     OW70972  10.681   4.750   5.514
56380SOL    HW170973  10.743   4.709   5.454
56380SOL    HW270974  10.734   4.811   5.565
56381SOL     OW70975  11.477   1.175   1.801
56381SOL    HW170976  11.556   1.125   1.821
56381SOL    HW270977  11.475   1.245   1.866
56382SOL     OW70978   5.304   3.544   6.413
56382SOL    HW170979   5.320   3.454   6.383
56382SOL    HW270980   5.387   3.589   6.396
56383SOL     OW70981   1.258   7.886   0.227
56383SOL    HW170982   1.298   7.878   0.140
56383SOL    HW270983   1.259   7.797   0.262
56384SOL     OW70984   6.135  10.471  12.270
56384SOL    HW170985   6.045  10.493  12.246
56384SOL    HW270986   6.167  10.418  12.197
56385SOL     OW70987  11.047  14.272   4.220
56385SOL    HW170988  11.048  14.240   4.310
56385SOL    HW270989  11.037  14.367   4.228
56386SOL     OW70990   8.606   7.916   7.829
56386SOL    HW170991   8.619   7.919   7.924
56386SOL    HW270992   8.690   7.940   7.792
56387SOL     OW70993  14.719   4.322  11.743
56387SOL    HW170994  14.739   4.338  11.651
56387SOL    HW270995  14.743   4.231  11.758
56388SOL     OW70996  11.142   1.445   1.508
56388SOL    HW170997  11.178   1.372   1.559
56388SOL    HW270998  11.065   1.473   1.558
56389SOL     OW70999  11.191  14.159   5.712
56389SOL    HW171000  11.098  14.148   5.692
56389SOL    HW271001  11.224  14.070   5.723
56390SOL     OW71002  11.204  11.292   4.895
56390SOL    HW171003  11.209  11.387   4.891
56390SOL    HW271004  11.292  11.264   4.920
56391SOL     OW71005   8.477   8.082  11.623
56391SOL    HW171006   8.474   7.986  11.626
56391SOL    HW271007   8.429   8.105  11.544
56392SOL     OW71008  12.332   0.445   5.662
56392SOL    HW171009  12.383   0.366   5.648
56392SOL    HW271010  12.241   0.418   5.649
56393SOL     OW71011  14.627   1.750   9.047
56393SOL    HW171012  14.606   1.764   9.139
56393SOL    HW271013  14.720   1.727   9.046
56394SOL     OW71014   8.082   5.666   1.872
56394SOL    HW171015   8.022   5.604   1.831
56394SOL    HW271016   8.033   5.700   1.947
56395SOL     OW71017   5.614   1.160   4.649
56395SOL    HW171018   5.654   1.099   4.711
56395SOL    HW271019   5.638   1.126   4.562
56396SOL     OW71020   3.119  11.018   6.913
56396SOL    HW171021   3.200  11.064   6.934
56396SOL    HW271022   3.059  11.040   6.984
56397SOL     OW71023   2.630  13.252   1.463
56397SOL    HW171024   2.575  13.219   1.534
56397SOL    HW271025   2.720  13.246   1.498
56398SOL     OW71026   5.379  10.071   5.838
56398SOL    HW171027   5.308  10.008   5.842
56398SOL    HW271028   5.342  10.151   5.877
56399SOL     OW71029   3.262   2.994   5.175
56399SOL    HW171030   3.226   3.024   5.092
56399SOL    HW271031   3.244   2.900   5.175
56400SOL     OW71032  13.061   8.892   0.607
56400SOL    HW171033  13.068   8.932   0.694
56400SOL    HW271034  13.024   8.805   0.624
56401SOL     OW71035   0.026  13.125   8.688
56401SOL    HW171036   0.101  13.160   8.640
56401SOL    HW271037   0.064  13.085   8.766
56402SOL     OW71038   7.124   7.332  10.086
56402SOL    HW171039   7.128   7.356  10.179
56402SOL    HW271040   7.154   7.410  10.040
56403SOL     OW71041   4.834   0.757   3.429
56403SOL    HW171042   4.867   0.846   3.431
56403SOL    HW271043   4.746   0.763   3.467
56404SOL     OW71044   9.246   6.605  12.913
56404SOL    HW171045   9.222   6.534  12.972
56404SOL    HW271046   9.301   6.563  12.847
56405SOL     OW71047   4.551   8.138   3.317
56405SOL    HW171048   4.477   8.135   3.256
56405SOL    HW271049   4.563   8.231   3.335
56406SOL     OW71050   1.299  13.216   6.982
56406SOL    HW171051   1.255  13.169   6.912
56406SOL    HW271052   1.295  13.157   7.057
56407SOL     OW71053   7.407  11.969  10.896
56407SOL    HW171054   7.501  11.966  10.911
56407SOL    HW271055   7.397  11.996  10.805
56408SOL     OW71056   5.104   9.800   0.538
56408SOL    HW171057   5.176   9.765   0.485
56408SOL    HW271058   5.085   9.885   0.499
56409SOL     OW71059   9.480   4.502  13.852
56409SOL    HW171060   9.533   4.542  13.920
56409SOL    HW271061   9.393   4.541  13.863
56410SOL     OW71062   9.246   8.944  14.229
56410SOL    HW171063   9.181   9.013  14.211
56410SOL    HW271064   9.307   8.951  14.156
56411SOL     OW71065   0.472   0.413   1.764
56411SOL    HW171066   0.379   0.419   1.743
56411SOL    HW271067   0.508   0.498   1.740
56412SOL     OW71068  12.757   5.528  14.013
56412SOL    HW171069  12.694   5.566  13.951
56412SOL    HW271070  12.710   5.525  14.096
56413SOL     OW71071  14.202   8.890  11.848
56413SOL    HW171072  14.182   8.811  11.898
56413SOL    HW271073  14.117   8.920  11.816
56414SOL     OW71074   4.443   1.756   6.408
56414SOL    HW171075   4.386   1.723   6.338
56414SOL    HW271076   4.412   1.845   6.425
56415SOL     OW71077  10.663  12.526   8.994
56415SOL    HW171078  10.642  12.606   9.041
56415SOL    HW271079  10.755  12.509   9.016
56416SOL     OW71080  10.107   6.349  11.973
56416SOL    HW171081  10.081   6.320  11.885
56416SOL    HW271082  10.096   6.271  12.028
56417SOL     OW71083   7.098   1.949   4.067
56417SOL    HW171084   7.103   1.854   4.055
56417SOL    HW271085   7.156   1.967   4.141
56418SOL     OW71086   4.516   6.666   6.085
56418SOL    HW171087   4.544   6.578   6.061
56418SOL    HW271088   4.548   6.722   6.014
56419SOL     OW71089   3.839   4.517   5.374
56419SOL    HW171090   3.885   4.572   5.437
56419SOL    HW271091   3.778   4.466   5.427
56420SOL     OW71092   6.462   7.629   8.836
56420SOL    HW171093   6.537   7.570   8.825
56420SOL    HW271094   6.475   7.697   8.769
56421SOL     OW71095   2.057  11.566  13.148
56421SOL    HW171096   2.014  11.529  13.071
56421SOL    HW271097   2.123  11.501  13.172
56422SOL     OW71098   1.328  12.607  13.136
56422SOL    HW171099   1.321  12.612  13.231
56422SOL    HW271100   1.293  12.520  13.114
56423SOL     OW71101   8.669   3.960  11.563
56423SOL    HW171102   8.604   3.932  11.498
56423SOL    HW271103   8.685   4.052  11.543
56424SOL     OW71104   0.341   6.986   9.984
56424SOL    HW171105   0.406   6.933  10.029
56424SOL    HW271106   0.350   6.962   9.891
56425SOL     OW71107   2.420   9.540  11.451
56425SOL    HW171108   2.436   9.492  11.369
56425SOL    HW271109   2.507   9.566  11.481
56426SOL     OW71110   4.466   4.804  11.840
56426SOL    HW171111   4.551   4.846  11.851
56426SOL    HW271112   4.456   4.748  11.917
56427SOL     OW71113  14.706  13.778   6.387
56427SOL    HW171114  14.613  13.784   6.366
56427SOL    HW271115  14.734  13.869   6.398
56428SOL     OW71116  13.845  12.932   2.356
56428SOL    HW171117  13.890  13.009   2.319
56428SOL    HW271118  13.914  12.866   2.363
56429SOL     OW71119   4.644  11.328   2.674
56429SOL    HW171120   4.617  11.409   2.717
56429SOL    HW271121   4.727  11.305   2.716
56430SOL     OW71122   2.426   5.151   0.565
56430SOL    HW171123   2.481   5.074   0.562
56430SOL    HW271124   2.459   5.202   0.640
56431SOL     OW71125   8.544  10.601   1.907
56431SOL    HW171126   8.612  10.658   1.942
56431SOL    HW271127   8.589  10.547   1.842
56432SOL     OW71128   5.814   1.016   0.920
56432SOL    HW171129   5.729   1.058   0.932
56432SOL    HW271130   5.870   1.084   0.884
56433SOL     OW71131   1.573   6.611   5.343
56433SOL    HW171132   1.567   6.676   5.274
56433SOL    HW271133   1.560   6.527   5.299
56434SOL     OW71134   9.667   6.480   7.260
56434SOL    HW171135   9.637   6.497   7.350
56434SOL    HW271136   9.752   6.523   7.255
56435SOL     OW71137   9.011   1.617   6.765
56435SOL    HW171138   9.060   1.568   6.699
56435SOL    HW271139   9.065   1.610   6.845
56436SOL     OW71140  12.415  12.274   9.441
56436SOL    HW171141  12.443  12.217   9.369
56436SOL    HW271142  12.494  12.286   9.494
56437SOL     OW71143   6.645   1.830  11.548
56437SOL    HW171144   6.727   1.812  11.595
56437SOL    HW271145   6.653   1.921  11.520
56438SOL     OW71146   8.453   8.500   0.815
56438SOL    HW171147   8.477   8.577   0.867
56438SOL    HW271148   8.496   8.427   0.859
56439SOL     OW71149   0.417   0.828   9.525
56439SOL    HW171150   0.353   0.836   9.596
56439SOL    HW271151   0.435   0.919   9.499
56440SOL     OW71152  14.375  11.142  12.953
56440SOL    HW171153  14.459  11.173  12.987
56440SOL    HW271154  14.363  11.056  12.993
56441SOL     OW71155   1.477  12.211   9.114
56441SOL    HW171156   1.463  12.167   9.031
56441SOL    HW271157   1.513  12.144   9.172
56442SOL     OW71158  12.549  14.526   2.337
56442SOL    HW171159  12.552  14.622   2.339
56442SOL    HW271160  12.581  14.504   2.250
56443SOL     OW71161   3.559   1.809  12.059
56443SOL    HW171162   3.494   1.740  12.055
56443SOL    HW271163   3.555   1.841  12.150
56444SOL     OW71164  14.429  11.374   8.253
56444SOL    HW171165  14.493  11.436   8.217
56444SOL    HW271166  14.396  11.417   8.332
56445SOL     OW71167  14.671   6.752   7.282
56445SOL    HW171168  14.707   6.833   7.245
56445SOL    HW271169  14.576   6.765   7.281
56446SOL     OW71170   7.277   0.372  13.671
56446SOL    HW171171   7.241   0.337  13.590
56446SOL    HW271172   7.352   0.424  13.644
56447SOL     OW71173   7.342  10.305  12.146
56447SOL    HW171174   7.295  10.335  12.068
56447SOL    HW271175   7.412  10.370  12.158
56448SOL     OW71176   0.827   3.947  11.178
56448SOL    HW171177   0.878   3.871  11.207
56448SOL    HW271178   0.737   3.916  11.175
56449SOL     OW71179  11.926   7.221   1.966
56449SOL    HW171180  11.899   7.142   2.013
56449SOL    HW271181  11.889   7.210   1.878
56450SOL     OW71182   5.359   1.256   3.551
56450SOL    HW171183   5.392   1.168   3.571
56450SOL    HW271184   5.422   1.315   3.592
56451SOL     OW71185   9.189   6.618   5.903
56451SOL    HW171186   9.264   6.563   5.923
56451SOL    HW271187   9.176   6.608   5.809
56452SOL     OW71188  14.822  12.237   2.458
56452SOL    HW171189  14.859  12.306   2.403
56452SOL    HW271190   0.020  12.174   2.469
56453SOL     OW71191  13.327   7.620  12.383
56453SOL    HW171192  13.307   7.590  12.294
56453SOL    HW271193  13.331   7.715  12.376
56454SOL     OW71194  13.512   9.373   8.329
56454SOL    HW171195  13.593   9.323   8.316
56454SOL    HW271196  13.447   9.329   8.275
56455SOL     OW71197  11.792   8.999   6.203
56455SOL    HW171198  11.764   9.080   6.246
56455SOL    HW271199  11.806   8.938   6.276
56456SOL     OW71200   1.626   7.012  12.054
56456SOL    HW171201   1.657   6.925  12.030
56456SOL    HW271202   1.538   6.997  12.090
56457SOL     OW71203  11.437  11.374   6.437
56457SOL    HW171204  11.438  11.365   6.532
56457SOL    HW271205  11.425  11.285   6.404
56458SOL     OW71206  14.532   7.939   9.954
56458SOL    HW171207  14.566   8.023   9.985
56458SOL    HW271208  14.608   7.881   9.952
56459SOL     OW71209   6.407   7.801  12.488
56459SOL    HW171210   6.462   7.850  12.549
56459SOL    HW271211   6.325   7.851  12.486
56460SOL     OW71212  12.188   6.631   8.657
56460SOL    HW171213  12.183   6.690   8.732
56460SOL    HW271214  12.178   6.544   8.695
56461SOL     OW71215   6.607  14.492  10.916
56461SOL    HW171216   6.523  14.538  10.919
56461SOL    HW271217   6.631  14.493  10.823
56462SOL     OW71218   2.036   5.009   6.319
56462SOL    HW171219   2.127   4.983   6.305
56462SOL    HW271220   2.010   4.963   6.399
56463SOL     OW71221   3.971  13.376   8.825
56463SOL    HW171222   4.064  13.371   8.803
56463SOL    HW271223   3.931  13.306   8.773
56464SOL     OW71224   1.957  12.185   0.313
56464SOL    HW171225   1.907  12.176   0.394
56464SOL    HW271226   1.933  12.272   0.281
56465SOL     OW71227  14.852  12.483  11.238
56465SOL    HW171228   0.008  12.561  11.286
56465SOL    HW271229  14.829  12.516  11.151
56466SOL     OW71230   1.648   9.569   5.935
56466SOL    HW171231   1.716   9.520   5.889
56466SOL    HW271232   1.584   9.503   5.960
56467SOL     OW71233  11.012   0.753   7.167
56467SOL    HW171234  11.031   0.734   7.259
56467SOL    HW271235  11.032   0.846   7.157
56468SOL     OW71236   8.253   2.082  10.958
56468SOL    HW171237   8.284   1.997  10.992
56468SOL    HW271238   8.334   2.129  10.935
56469SOL     OW71239   2.654  11.155   8.933
56469SOL    HW171240   2.640  11.249   8.929
56469SOL    HW271241   2.570  11.116   8.908
56470SOL     OW71242   3.434  14.487   4.943
56470SOL    HW171243   3.470  14.546   4.877
56470SOL    HW271244   3.339  14.503   4.940
56471SOL     OW71245   4.404   1.577   3.238
56471SOL    HW171246   4.358   1.570   3.322
56471SOL    HW271247   4.335   1.584   3.173
56472SOL     OW71248   5.345   7.051   4.136
56472SOL    HW171249   5.337   7.134   4.089
56472SOL    HW271250   5.436   7.049   4.165
56473SOL     OW71251   7.095   0.001   1.551
56473SOL    HW171252   7.042  14.819   1.493
56473SOL    HW271253   7.181   0.005   1.509
56474SOL     OW71254  11.328   8.197   8.332
56474SOL    HW171255  11.305   8.109   8.361
56474SOL    HW271256  11.265   8.217   8.263
56475SOL     OW71257   0.321   1.611   6.878
56475SOL    HW171258   0.328   1.662   6.959
56475SOL    HW271259   0.229   1.618   6.853
56476SOL     OW71260  11.311   0.990   5.210
56476SOL    HW171261  11.227   0.946   5.202
56476SOL    HW271262  11.289   1.078   5.238
56477SOL     OW71263   4.819   7.678   3.905
56477SOL    HW171264   4.825   7.706   3.813
56477SOL    HW271265   4.775   7.594   3.901
56478SOL     OW71266   4.730  12.727  14.803
56478SOL    HW171267   4.669  12.691  14.867
56478SOL    HW271268   4.793  12.776  14.855
56479SOL     OW71269   7.354   8.768  14.852
56479SOL    HW171270   7.359   8.800  14.762
56479SOL    HW271271   7.420   8.820   0.027
56480SOL     OW71272   3.865   4.836  13.619
56480SOL    HW171273   3.880   4.745  13.594
56480SOL    HW271274   3.951   4.878  13.612
56481SOL     OW71275   3.834   3.784  12.622
56481SOL    HW171276   3.865   3.863  12.578
56481SOL    HW271277   3.833   3.717  12.554
56482SOL     OW71278   1.096   2.155  10.838
56482SOL    HW171279   1.136   2.216  10.777
56482SOL    HW271280   1.003   2.158  10.818
56483SOL     OW71281   2.809   6.972   3.332
56483SOL    HW171282   2.772   7.061   3.337
56483SOL    HW271283   2.794   6.936   3.420
56484SOL     OW71284   3.027   1.712   0.751
56484SOL    HW171285   2.991   1.665   0.676
56484SOL    HW271286   3.089   1.651   0.790
56485SOL     OW71287   0.466  11.409  14.201
56485SOL    HW171288   0.554  11.381  14.174
56485SOL    HW271289   0.477  11.500  14.227
56486SOL     OW71290  13.869   9.475   6.496
56486SOL    HW171291  13.871   9.533   6.572
56486SOL    HW271292  13.961   9.461   6.473
56487SOL     OW71293   8.022   9.081   6.511
56487SOL    HW171294   7.983   9.140   6.575
56487SOL    HW271295   8.046   9.137   6.437
56488SOL     OW71296   5.075   1.017   5.277
56488SOL    HW171297   5.081   1.027   5.182
56488SOL    HW271298   4.981   1.013   5.295
56489SOL     OW71299   1.096   5.095   9.980
56489SOL    HW171300   1.131   5.101  10.069
56489SOL    HW271301   1.030   5.164   9.975
56490SOL     OW71302   6.791   0.511   2.095
56490SOL    HW171303   6.754   0.590   2.135
56490SOL    HW271304   6.872   0.496   2.144
56491SOL     OW71305   0.633   1.907  10.834
56491SOL    HW171306   0.543   1.876  10.837
56491SOL    HW271307   0.666   1.894  10.924
56492SOL     OW71308   2.301  12.888  13.425
56492SOL    HW171309   2.245  12.886  13.502
56492SOL    HW271310   2.290  12.976  13.389
56493SOL     OW71311  11.263   3.163   3.768
56493SOL    HW171312  11.199   3.149   3.698
56493SOL    HW271313  11.211   3.171   3.847
56494SOL     OW71314  11.783  14.018   0.580
56494SOL    HW171315  11.794  14.113   0.587
56494SOL    HW271316  11.718  14.007   0.511
56495SOL     OW71317   7.544  12.073   6.317
56495SOL    HW171318   7.489  12.105   6.245
56495SOL    HW271319   7.487  12.073   6.393
56496SOL     OW71320   6.306   3.554   7.184
56496SOL    HW171321   6.335   3.463   7.193
56496SOL    HW271322   6.226   3.559   7.235
56497SOL     OW71323   4.956   0.072   8.050
56497SOL    HW171324   4.987   0.142   7.992
56497SOL    HW271325   4.988   0.098   8.137
56498SOL     OW71326   9.695   2.316  14.824
56498SOL    HW171327   9.657   2.318   0.039
56498SOL    HW271328   9.624   2.347  14.767
56499SOL     OW71329   0.036   3.882   3.797
56499SOL    HW171330  14.843   3.862   3.865
56499SOL    HW271331   0.113   3.831   3.823
56500SOL     OW71332   5.711  13.002   5.140
56500SOL    HW171333   5.678  12.971   5.056
56500SOL    HW271334   5.636  13.044   5.181
56501SOL     OW71335  12.260   2.193   0.703
56501SOL    HW171336  12.349   2.158   0.708
56501SOL    HW271337  12.222   2.172   0.788
56502SOL     OW71338   0.846  13.468   0.459
56502SOL    HW171339   0.842  13.561   0.438
56502SOL    HW271340   0.763  13.450   0.504
56503SOL     OW71341   3.686  11.792   7.936
56503SOL    HW171342   3.677  11.752   8.023
56503SOL    HW271343   3.631  11.871   7.941
56504SOL     OW71344   4.665  13.770   2.313
56504SOL    HW171345   4.670  13.866   2.306
56504SOL    HW271346   4.755  13.743   2.331
56505SOL     OW71347  10.284   1.639   8.650
56505SOL    HW171348  10.228   1.564   8.629
56505SOL    HW271349  10.243   1.679   8.726
56506SOL     OW71350   0.594   1.743   2.143
56506SOL    HW171351   0.499   1.755   2.130
56506SOL    HW271352   0.620   1.685   2.071
56507SOL     OW71353   6.803   4.710   1.591
56507SOL    HW171354   6.821   4.646   1.522
56507SOL    HW271355   6.889   4.742   1.617
56508SOL     OW71356   0.139   3.112   9.549
56508SOL    HW171357   0.083   3.063   9.609
56508SOL    HW271358   0.119   3.076   9.462
56509SOL     OW71359   0.146   0.105   5.053
56509SOL    HW171360   0.177   0.090   5.142
56509SOL    HW271361   0.155   0.020   5.009
56510SOL     OW71362   6.932  11.922   7.190
56510SOL    HW171363   6.874  11.858   7.149
56510SOL    HW271364   7.020  11.896   7.161
56511SOL     OW71365   9.773   1.549  12.407
56511SOL    HW171366   9.835   1.573  12.475
56511SOL    HW271367   9.733   1.632  12.381
56512SOL     OW71368  13.240   9.874  10.164
56512SOL    HW171369  13.326   9.886  10.122
56512SOL    HW271370  13.259   9.819  10.240
56513SOL     OW71371   3.853   1.871  14.456
56513SOL    HW171372   3.793   1.896  14.526
56513SOL    HW271373   3.848   1.944  14.394
56514SOL     OW71374  11.004   3.531   2.860
56514SOL    HW171375  11.098   3.517   2.855
56514SOL    HW271376  10.969   3.447   2.890
56515SOL     OW71377   5.898   2.786   0.928
56515SOL    HW171378   5.846   2.705   0.932
56515SOL    HW271379   5.982   2.758   0.892
56516SOL     OW71380   7.463   0.299  12.229
56516SOL    HW171381   7.388   0.351  12.200
56516SOL    HW271382   7.498   0.260  12.149
56517SOL     OW71383  13.080   4.407   3.999
56517SOL    HW171384  12.998   4.456   3.991
56517SOL    HW271385  13.137   4.465   4.049
56518SOL     OW71386   0.467   9.189   6.408
56518SOL    HW171387   0.546   9.157   6.452
56518SOL    HW271388   0.395   9.162   6.465
56519SOL     OW71389  14.456  13.438   5.712
56519SOL    HW171390  14.444  13.378   5.639
56519SOL    HW271391  14.539  13.412   5.752
56520SOL     OW71392   2.043   4.812  11.954
56520SOL    HW171393   2.000   4.757  12.021
56520SOL    HW271394   2.041   4.758  11.875
56521SOL     OW71395   0.651   1.710   4.409
56521SOL    HW171396   0.611   1.740   4.491
56521SOL    HW271397   0.579   1.705   4.347
56522SOL     OW71398   4.238   3.976  11.579
56522SOL    HW171399   4.243   3.987  11.484
56522SOL    HW271400   4.183   4.048  11.609
56523SOL     OW71401   1.301  11.221  11.025
56523SOL    HW171402   1.346  11.305  11.022
56523SOL    HW271403   1.356  11.163  10.973
56524SOL     OW71404   7.456  12.257  13.381
56524SOL    HW171405   7.552  12.257  13.388
56524SOL    HW271406   7.439  12.278  13.289
56525SOL     OW71407  13.674   3.132   5.570
56525SOL    HW171408  13.677   3.115   5.665
56525SOL    HW271409  13.762   3.162   5.549
56526SOL     OW71410  12.197   4.482   1.030
56526SOL    HW171411  12.273   4.540   1.017
56526SOL    HW271412  12.191   4.433   0.948
56527SOL     OW71413  10.713  14.449   0.666
56527SOL    HW171414  10.760  14.368   0.646
56527SOL    HW271415  10.646  14.455   0.598
56528SOL     OW71416  13.983   7.832  12.590
56528SOL    HW171417  14.077   7.851  12.591
56528SOL    HW271418  13.965   7.799  12.678
56529SOL     OW71419   6.914  14.081  10.437
56529SOL    HW171420   6.981  14.025  10.478
56529SOL    HW271421   6.904  14.154  10.498
56530SOL     OW71422   9.942   6.074   7.122
56530SOL    HW171423  10.003   6.140   7.087
56530SOL    HW271424   9.858   6.119   7.127
56531SOL     OW71425   6.356  11.817  10.793
56531SOL    HW171426   6.396  11.748  10.847
56531SOL    HW271427   6.301  11.769  10.731
56532SOL     OW71428   5.312   9.386   1.028
56532SOL    HW171429   5.296   9.428   0.944
56532SOL    HW271430   5.375   9.316   1.008
56533SOL     OW71431   3.775  13.965   9.248
56533SOL    HW171432   3.838  13.932   9.184
56533SOL    HW271433   3.689  13.948   9.208
56534SOL     OW71434   0.509  10.680   6.679
56534SOL    HW171435   0.461  10.755   6.644
56534SOL    HW271436   0.505  10.614   6.609
56535SOL     OW71437   1.602   5.809  11.432
56535SOL    HW171438   1.682   5.766  11.463
56535SOL    HW271439   1.570   5.858  11.507
56536SOL     OW71440   2.905  14.060   0.909
56536SOL    HW171441   2.951  14.005   0.846
56536SOL    HW271442   2.962  14.061   0.986
56537SOL     OW71443  13.412   6.548   4.033
56537SOL    HW171444  13.485   6.559   4.093
56537SOL    HW271445  13.350   6.616   4.058
56538SOL     OW71446   2.231   0.403   0.024
56538SOL    HW171447   2.265   0.451  14.820
56538SOL    HW271448   2.304   0.401   0.085
56539SOL     OW71449   9.609   1.226   5.083
56539SOL    HW171450   9.572   1.199   4.999
56539SOL    HW271451   9.642   1.145   5.122
56540SOL     OW71452   8.263  10.880   0.112
56540SOL    HW171453   8.223  10.793   0.112
56540SOL    HW271454   8.212  10.929   0.176
56541SOL     OW71455  10.004   3.318   3.517
56541SOL    HW171456  10.017   3.233   3.560
56541SOL    HW271457  10.057   3.312   3.438
56542SOL     OW71458  14.591   7.980   3.122
56542SOL    HW171459  14.617   8.022   3.204
56542SOL    HW271460  14.511   8.025   3.095
56543SOL     OW71461  14.733  12.604  12.860
56543SOL    HW171462  14.707  12.512  12.862
56543SOL    HW271463  14.828  12.602  12.848
56544SOL     OW71464  13.141  11.065  10.673
56544SOL    HW171465  13.234  11.047  10.680
56544SOL    HW271466  13.106  10.993  10.621
56545SOL     OW71467  13.247  10.589  12.378
56545SOL    HW171468  13.175  10.615  12.320
56545SOL    HW271469  13.323  10.637  12.346
56546SOL     OW71470   8.987   6.971   4.764
56546SOL    HW171471   8.894   6.987   4.779
56546SOL    HW271472   8.992   6.878   4.744
56547SOL     OW71473   1.476   0.548   9.291
56547SOL    HW171474   1.499   0.614   9.225
56547SOL    HW271475   1.476   0.597   9.374
56548SOL     OW71476   7.432  11.686  13.854
56548SOL    HW171477   7.513  11.638  13.872
56548SOL    HW271478   7.397  11.706  13.941
56549SOL     OW71479   6.232   6.570   9.263
56549SOL    HW171480   6.327   6.581   9.258
56549SOL    HW271481   6.197   6.655   9.235
56550SOL     OW71482   4.869   2.820   9.055
56550SOL    HW171483   4.807   2.860   9.116
56550SOL    HW271484   4.911   2.894   9.012
56551SOL     OW71485   9.858  14.450   7.784
56551SOL    HW171486   9.867  14.423   7.875
56551SOL    HW271487   9.765  14.435   7.764
56552SOL     OW71488   8.894   0.498  13.349
56552SOL    HW171489   8.839   0.474  13.423
56552SOL    HW271490   8.929   0.585  13.373
56553SOL     OW71491   2.012   2.275  11.739
56553SOL    HW171492   1.930   2.237  11.772
56553SOL    HW271493   1.984   2.346  11.681
56554SOL     OW71494   4.911   5.147   5.111
56554SOL    HW171495   4.919   5.186   5.024
56554SOL    HW271496   4.828   5.181   5.144
56555SOL     OW71497  12.285  10.995   2.875
56555SOL    HW171498  12.324  11.038   2.952
56555SOL    HW271499  12.323  11.041   2.800
56556SOL     OW71500   3.571   2.539   6.818
56556SOL    HW171501   3.582   2.449   6.789
56556SOL    HW271502   3.661   2.573   6.824
56557SOL     OW71503   9.971   4.566   5.422
56557SOL    HW171504  10.035   4.494   5.420
56557SOL    HW271505  10.008   4.632   5.365
56558SOL     OW71506  12.336   2.362   1.019
56558SOL    HW171507  12.360   2.379   1.110
56558SOL    HW271508  12.262   2.301   1.026
56559SOL     OW71509  12.439  13.050   1.374
56559SOL    HW171510  12.364  13.088   1.418
56559SOL    HW271511  12.514  13.099   1.408
56560SOL     OW71512   7.912  12.039   9.575
56560SOL    HW171513   7.980  11.972   9.584
56560SOL    HW271514   7.863  12.035   9.657
56561SOL     OW71515   5.095   3.929   2.684
56561SOL    HW171516   5.041   3.869   2.735
56561SOL    HW271517   5.167   3.952   2.743
56562SOL     OW71518  10.785   0.756   5.315
56562SOL    HW171519  10.768   0.787   5.226
56562SOL    HW271520  10.727   0.809   5.370
56563SOL     OW71521   9.222   7.882   2.973
56563SOL    HW171522   9.269   7.942   3.030
56563SOL    HW271523   9.260   7.896   2.886
56564SOL     OW71524   7.017   6.349   1.187
56564SOL    HW171525   6.983   6.418   1.130
56564SOL    HW271526   7.010   6.269   1.136
56565SOL     OW71527   8.121  11.017   3.266
56565SOL    HW171528   8.043  10.962   3.261
56565SOL    HW271529   8.179  10.981   3.199
56566SOL     OW71530   4.704   0.864   3.732
56566SOL    HW171531   4.750   0.947   3.723
56566SOL    HW271532   4.666   0.849   3.645
56567SOL     OW71533   1.607   7.332  13.310
56567SOL    HW171534   1.675   7.375  13.258
56567SOL    HW271535   1.538   7.310  13.247
56568SOL     OW71536   7.065  12.266   2.151
56568SOL    HW171537   7.007  12.310   2.213
56568SOL    HW271538   7.134  12.228   2.205
56569SOL     OW71539  10.642  14.760   9.903
56569SOL    HW171540  10.678  14.755   9.814
56569SOL    HW271541  10.699  14.822   9.949
56570SOL     OW71542  14.623  14.809   5.156
56570SOL    HW171543  14.644   0.022   5.119
56570SOL    HW271544  14.707  14.774   5.186
56571SOL     OW71545   2.429  10.085   3.931
56571SOL    HW171546   2.462  10.101   3.843
56571SOL    HW271547   2.394   9.996   3.928
56572SOL     OW71548   0.001   7.575   8.609
56572SOL    HW171549   0.005   7.668   8.585
56572SOL    HW271550   0.086   7.557   8.649
56573SOL     OW71551   8.512   0.808   8.724
56573SOL    HW171552   8.550   0.893   8.748
56573SOL    HW271553   8.572   0.744   8.762
56574SOL     OW71554   4.789  11.706   6.770
56574SOL    HW171555   4.753  11.787   6.806
56574SOL    HW271556   4.731  11.637   6.803
56575SOL     OW71557   3.263   1.083   0.023
56575SOL    HW171558   3.245   1.104   0.114
56575SOL    HW271559   3.356   1.098   0.012
56576SOL     OW71560  13.970   8.250   0.512
56576SOL    HW171561  14.062   8.272   0.518
56576SOL    HW271562  13.936   8.260   0.601
56577SOL     OW71563   1.411   0.669  11.820
56577SOL    HW171564   1.402   0.701  11.910
56577SOL    HW271565   1.327   0.626  11.802
56578SOL     OW71566   6.489  11.732   9.287
56578SOL    HW171567   6.520  11.641   9.285
56578SOL    HW271568   6.425  11.734   9.358
56579SOL     OW71569   7.695   6.172   1.232
56579SOL    HW171570   7.759   6.109   1.200
56579SOL    HW271571   7.628   6.119   1.275
56580SOL     OW71572   1.563  12.046   4.060
56580SOL    HW171573   1.657  12.055   4.078
56580SOL    HW271574   1.532  12.137   4.052
56581SOL     OW71575   3.271   6.595  13.686
56581SOL    HW171576   3.301   6.646  13.611
56581SOL    HW271577   3.190   6.554  13.656
56582SOL     OW71578   4.941   9.023   3.470
56582SOL    HW171579   4.963   9.019   3.377
56582SOL    HW271580   5.015   9.069   3.510
56583SOL     OW71581  12.477   1.604  10.978
56583SOL    HW171582  12.528   1.563  10.908
56583SOL    HW271583  12.527   1.682  11.002
56584SOL     OW71584   4.623   7.420  13.764
56584SOL    HW171585   4.550   7.366  13.733
56584SOL    HW271586   4.623   7.496  13.707
56585SOL     OW71587   6.946  14.522  14.568
56585SOL    HW171588   6.873  14.486  14.619
56585SOL    HW271589   6.906  14.591  14.515
56586SOL     OW71590   0.042   6.847   0.842
56586SOL    HW171591  14.869   6.817   0.920
56586SOL    HW271592   0.052   6.941   0.854
56587SOL     OW71593   3.060   5.559   0.097
56587SOL    HW171594   3.136   5.561   0.156
56587SOL    HW271595   3.097   5.558   0.009
56588SOL     OW71596   4.100  10.539   4.782
56588SOL    HW171597   4.046  10.596   4.728
56588SOL    HW271598   4.130  10.471   4.721
56589SOL     OW71599   8.941  10.175  13.438
56589SOL    HW171600   8.871  10.152  13.499
56589SOL    HW271601   8.950  10.099  13.381
56590SOL     OW71602  13.063  11.515   2.986
56590SOL    HW171603  13.059  11.425   3.018
56590SOL    HW271604  13.044  11.569   3.063
56591SOL     OW71605  10.176   9.279  12.086
56591SOL    HW171606  10.157   9.186  12.097
56591SOL    HW271607  10.103   9.314  12.036
56592SOL     OW71608  13.082  11.934   4.145
56592SOL    HW171609  13.116  11.962   4.060
56592SOL    HW271610  13.056  11.843   4.131
56593SOL     OW71611  13.174  10.167   6.443
56593SOL    HW171612  13.214  10.098   6.391
56593SOL    HW271613  13.092  10.130   6.474
56594SOL     OW71614  14.200   2.860   4.448
56594SOL    HW171615  14.134   2.800   4.416
56594SOL    HW271616  14.256   2.806   4.505
56595SOL     OW71617  11.016  14.489   0.663
56595SOL    HW171618  11.027  14.434   0.586
56595SOL    HW271619  10.921  14.500   0.672
56596SOL     OW71620   9.375   9.844   4.152
56596SOL    HW171621   9.285   9.860   4.124
56596SOL    HW271622   9.367   9.802   4.237
56597SOL     OW71623   6.880  10.554   2.520
56597SOL    HW171624   6.863  10.624   2.584
56597SOL    HW271625   6.795  10.511   2.510
56598SOL     OW71626   7.741   1.788   8.909
56598SOL    HW171627   7.739   1.734   8.987
56598SOL    HW271628   7.799   1.741   8.849
56599SOL     OW71629   4.852   1.444  14.235
56599SOL    HW171630   4.799   1.369  14.208
56599SOL    HW271631   4.868   1.431  14.328
56600SOL     OW71632   3.785   6.074   7.378
56600SOL    HW171633   3.733   6.049   7.454
56600SOL    HW271634   3.874   6.082   7.411
56601SOL     OW71635   5.808   2.771   5.992
56601SOL    HW171636   5.869   2.838   5.962
56601SOL    HW271637   5.751   2.754   5.917
56602SOL     OW71638   0.646   7.216   9.760
56602SOL    HW171639   0.583   7.250   9.697
56602SOL    HW271640   0.731   7.242   9.725
56603SOL     OW71641   2.342  10.044   1.576
56603SOL    HW171642   2.288   9.993   1.515
56603SOL    HW271643   2.413   9.984   1.600
56604SOL     OW71644  11.838   3.590   5.151
56604SOL    HW171645  11.779   3.661   5.125
56604SOL    HW271646  11.925   3.631   5.156
56605SOL     OW71647  10.490  11.534   2.726
56605SOL    HW171648  10.552  11.510   2.657
56605SOL    HW271649  10.420  11.469   2.719
56606SOL     OW71650   5.297  11.113   3.861
56606SOL    HW171651   5.272  11.023   3.882
56606SOL    HW271652   5.312  11.112   3.766
56607SOL     OW71653   8.769   0.827  12.514
56607SOL    HW171654   8.731   0.837  12.426
56607SOL    HW271655   8.773   0.732  12.527
56608SOL     OW71656   1.832   0.515   7.032
56608SOL    HW171657   1.881   0.576   6.977
56608SOL    HW271658   1.765   0.479   6.974
56609SOL     OW71659   8.487   7.195  10.049
56609SOL    HW171660   8.436   7.276  10.046
56609SOL    HW271661   8.449   7.140   9.981
56610SOL     OW71662   7.007   2.071   7.124
56610SOL    HW171663   6.972   2.140   7.069
56610SOL    HW271664   7.075   2.113   7.177
56611SOL     OW71665  14.050  10.788   4.866
56611SOL    HW171666  14.089  10.708   4.901
56611SOL    HW271667  13.973  10.802   4.920
56612SOL     OW71668   1.175  11.752  12.581
56612SOL    HW171669   1.241  11.753  12.511
56612SOL    HW271670   1.133  11.838  12.574
56613SOL     OW71671   7.177  10.347   3.399
56613SOL    HW171672   7.223  10.421   3.439
56613SOL    HW271673   7.094  10.343   3.447
56614SOL     OW71674   1.788   3.228   8.892
56614SOL    HW171675   1.770   3.263   8.979
56614SOL    HW271676   1.863   3.277   8.861
56615SOL     OW71677  11.778   3.467   0.526
56615SOL    HW171678  11.801   3.492   0.615
56615SOL    HW271679  11.729   3.542   0.491
56616SOL     OW71680   1.204   2.130   1.960
56616SOL    HW171681   1.291   2.117   1.923
56616SOL    HW271682   1.170   2.042   1.974
56617SOL     OW71683   0.741   0.901  11.020
56617SOL    HW171684   0.767   0.883  11.111
56617SOL    HW271685   0.713   0.992  11.021
56618SOL     OW71686   3.763  10.409   5.187
56618SOL    HW171687   3.733  10.500   5.195
56618SOL    HW271688   3.796  10.387   5.274
56619SOL     OW71689  13.907  13.966   2.100
56619SOL    HW171690  13.983  13.973   2.041
56619SOL    HW271691  13.926  14.028   2.170
56620SOL     OW71692   2.194  10.564  11.130
56620SOL    HW171693   2.113  10.578  11.083
56620SOL    HW271694   2.192  10.626  11.203
56621SOL     OW71695   2.147  10.993   6.614
56621SOL    HW171696   2.060  11.032   6.612
56621SOL    HW271697   2.145  10.925   6.547
56622SOL     OW71698  13.987   1.259   5.398
56622SOL    HW171699  13.990   1.353   5.416
56622SOL    HW271700  14.052   1.245   5.330
56623SOL     OW71701  12.229  11.217   6.487
56623SOL    HW171702  12.276  11.296   6.461
56623SOL    HW271703  12.168  11.201   6.415
56624SOL     OW71704   8.382   8.820  11.395
56624SOL    HW171705   8.410   8.747  11.339
56624SOL    HW271706   8.402   8.790  11.484
56625SOL     OW71707   4.919   9.250   1.118
56625SOL    HW171708   4.990   9.235   1.181
56625SOL    HW271709   4.917   9.345   1.106
56626SOL     OW71710   2.879   8.641   6.580
56626SOL    HW171711   2.818   8.637   6.506
56626SOL    HW271712   2.962   8.609   6.544
56627SOL     OW71713   5.801   2.968  11.047
56627SOL    HW171714   5.828   2.880  11.074
56627SOL    HW271715   5.795   2.963  10.952
56628SOL     OW71716  14.001  11.929  12.037
56628SOL    HW171717  14.007  11.894  12.126
56628SOL    HW271718  13.950  11.864  11.989
56629SOL     OW71719   1.163  13.232   7.900
56629SOL    HW171720   1.201  13.313   7.933
56629SOL    HW271721   1.215  13.211   7.822
56630SOL     OW71722   8.434  11.487   8.894
56630SOL    HW171723   8.514  11.437   8.877
56630SOL    HW271724   8.373  11.458   8.826
56631SOL     OW71725  11.997   4.976   4.722
56631SOL    HW171726  12.007   4.968   4.628
56631SOL    HW271727  11.904   4.958   4.739
56632SOL     OW71728   6.342  10.690   9.501
56632SOL    HW171729   6.334  10.784   9.520
56632SOL    HW271730   6.340  10.649   9.587
56633SOL     OW71731   1.458   7.533   2.735
56633SOL    HW171732   1.534   7.571   2.690
56633SOL    HW271733   1.435   7.457   2.682
56634SOL     OW71734   3.511   0.337   8.036
56634SOL    HW171735   3.503   0.404   7.968
56634SOL    HW271736   3.602   0.344   8.065
56635SOL     OW71737   1.883   7.136   1.826
56635SOL    HW171738   1.890   7.110   1.918
56635SOL    HW271739   1.923   7.064   1.778
56636SOL     OW71740   5.082   5.265   8.682
56636SOL    HW171741   5.164   5.306   8.712
56636SOL    HW271742   5.110   5.206   8.612
56637SOL     OW71743   2.643   5.606   0.409
56637SOL    HW171744   2.653   5.674   0.343
56637SOL    HW271745   2.695   5.533   0.376
56638SOL     OW71746  13.241   6.840  12.384
56638SOL    HW171747  13.284   6.843  12.298
56638SOL    HW271748  13.285   6.768  12.430
56639SOL     OW71749   8.963   6.173   8.920
56639SOL    HW171750   8.891   6.203   8.865
56639SOL    HW271751   8.998   6.097   8.874
56640SOL     OW71752   0.197   6.259   2.932
56640SOL    HW171753   0.194   6.166   2.914
56640SOL    HW271754   0.280   6.272   2.980
56641SOL     OW71755  14.477   7.121   6.141
56641SOL    HW171756  14.442   7.042   6.181
56641SOL    HW271757  14.572   7.107   6.137
56642SOL     OW71758  14.072  10.415   8.586
56642SOL    HW171759  14.081  10.501   8.545
56642SOL    HW271760  14.156  10.371   8.570
56643SOL     OW71761  14.869   2.423  10.206
56643SOL    HW171762  14.822   2.506  10.207
56643SOL    HW271763   0.028   2.414  10.117
56644SOL     OW71764  14.558  11.751   1.468
56644SOL    HW171765  14.491  11.786   1.527
56644SOL    HW271766  14.528  11.774   1.380
56645SOL     OW71767   8.221   9.873  13.183
56645SOL    HW171768   8.140   9.874  13.234
56645SOL    HW271769   8.193   9.850  13.094
56646SOL     OW71770   3.004   9.431   2.943
56646SOL    HW171771   2.934   9.495   2.933
56646SOL    HW271772   3.024   9.430   3.037
56647SOL     OW71773   8.477  12.412  13.244
56647SOL    HW171774   8.491  12.495  13.199
56647SOL    HW271775   8.564  12.389  13.278
56648SOL     OW71776  14.488   8.841   7.519
56648SOL    HW171777  14.524   8.929   7.525
56648SOL    HW271778  14.540   8.789   7.580
56649SOL     OW71779   1.598  12.692  10.443
56649SOL    HW171780   1.512  12.730  10.464
56649SOL    HW271781   1.579  12.601  10.421
56650SOL     OW71782   1.568   9.332   5.334
56650SOL    HW171783   1.623   9.337   5.412
56650SOL    HW271784   1.601   9.256   5.286
56651SOL     OW71785   5.835   5.236   6.569
56651SOL    HW171786   5.798   5.314   6.528
56651SOL    HW271787   5.923   5.228   6.530
56652SOL     OW71788   7.407   9.314   5.697
56652SOL    HW171789   7.360   9.253   5.640
56652SOL    HW271790   7.363   9.398   5.683
56653SOL     OW71791   2.405  14.480   9.835
56653SOL    HW171792   2.484  14.478   9.889
56653SOL    HW271793   2.379  14.572   9.834
56654SOL     OW71794  11.617   5.020   9.978
56654SOL    HW171795  11.596   4.957  10.048
56654SOL    HW271796  11.546   5.009   9.915
56655SOL     OW71797  12.483   1.574   0.828
56655SOL    HW171798  12.532   1.500   0.793
56655SOL    HW271799  12.539   1.609   0.898
56656SOL     OW71800  13.849   4.978   9.445
56656SOL    HW171801  13.936   4.950   9.470
56656SOL    HW271802  13.790   4.914   9.485
56657SOL     OW71803   8.331  10.971   9.091
56657SOL    HW171804   8.281  10.989   9.011
56657SOL    HW271805   8.403  10.915   9.063
56658SOL     OW71806  11.532  11.690  10.987
56658SOL    HW171807  11.601  11.694  11.053
56658SOL    HW271808  11.489  11.606  11.004
56659SOL     OW71809   0.582   4.127  14.735
56659SOL    HW171810   0.666   4.174  14.734
56659SOL    HW271811   0.526   4.177  14.677
56660SOL     OW71812   3.449  11.972   6.607
56660SOL    HW171813   3.454  11.957   6.701
56660SOL    HW271814   3.476  11.889   6.568
56661SOL     OW71815  12.219  10.749  14.403
56661SOL    HW171816  12.207  10.659  14.374
56661SOL    HW271817  12.297  10.779  14.357
56662SOL     OW71818   8.015   1.997   2.650
56662SOL    HW171819   8.040   1.949   2.729
56662SOL    HW271820   7.964   1.934   2.599
56663SOL     OW71821  14.257   4.183  11.303
56663SOL    HW171822  14.217   4.096  11.308
56663SOL    HW271823  14.183   4.241  11.285
56664SOL     OW71824  11.104   7.272  14.244
56664SOL    HW171825  11.070   7.346  14.194
56664SOL    HW271826  11.171   7.309  14.301
56665SOL     OW71827   4.261   0.984   6.886
56665SOL    HW171828   4.193   1.039   6.925
56665SOL    HW271829   4.335   1.043   6.873
56666SOL     OW71830  11.295  10.616   7.805
56666SOL    HW171831  11.255  10.659   7.881
56666SOL    HW271832  11.221  10.584   7.754
56667SOL     OW71833   5.499   2.755   9.588
56667SOL    HW171834   5.562   2.804   9.641
56667SOL    HW271835   5.417   2.805   9.598
56668SOL     OW71836   8.259  11.068  13.135
56668SOL    HW171837   8.203  11.029  13.068
56668SOL    HW271838   8.200  11.086  13.208
56669SOL     OW71839   4.531  10.136  10.913
56669SOL    HW171840   4.449  10.127  10.865
56669SOL    HW271841   4.589  10.181  10.852
56670SOL     OW71842   2.352   4.870   8.969
56670SOL    HW171843   2.426   4.822   9.008
56670SOL    HW271844   2.286   4.802   8.952
56671SOL     OW71845   6.275   6.180   9.511
56671SOL    HW171846   6.249   6.160   9.421
56671SOL    HW271847   6.264   6.097   9.557
56672SOL     OW71848   1.770   4.019   6.070
56672SOL    HW171849   1.694   3.992   6.019
56672SOL    HW271850   1.791   3.943   6.124
56673SOL     OW71851   7.755   3.747   0.744
56673SOL    HW171852   7.660   3.750   0.758
56673SOL    HW271853   7.785   3.673   0.797
56674SOL     OW71854   1.149   8.388  14.426
56674SOL    HW171855   1.100   8.361  14.348
56674SOL    HW271856   1.229   8.427  14.391
56675SOL     OW71857   7.259   2.516   6.869
56675SOL    HW171858   7.252   2.487   6.778
56675SOL    HW271859   7.325   2.459   6.908
56676SOL     OW71860   5.559  11.436   0.397
56676SOL    HW171861   5.494  11.382   0.441
56676SOL    HW271862   5.643  11.406   0.431
56677SOL     OW71863  11.775  13.817  12.008
56677SOL    HW171864  11.786  13.877  11.934
56677SOL    HW271865  11.792  13.730  11.971
56678SOL     OW71866   0.905   3.805   6.603
56678SOL    HW171867   0.896   3.847   6.689
56678SOL    HW271868   0.884   3.713   6.619
56679SOL     OW71869   5.485   2.579   9.831
56679SOL    HW171870   5.460   2.614   9.746
56679SOL    HW271871   5.482   2.655   9.890
56680SOL     OW71872  12.061  11.606   8.685
56680SOL    HW171873  12.110  11.524   8.682
56680SOL    HW271874  11.973  11.581   8.713
56681SOL     OW71875   4.610   2.852  11.066
56681SOL    HW171876   4.670   2.807  11.006
56681SOL    HW271877   4.656   2.933  11.088
56682SOL     OW71878  11.807   3.603   1.902
56682SOL    HW171879  11.856   3.626   1.823
56682SOL    HW271880  11.874   3.575   1.965
56683SOL     OW71881   3.477  14.014   8.341
56683SOL    HW171882   3.404  14.006   8.280
56683SOL    HW271883   3.442  14.066   8.414
56684SOL     OW71884   7.753   8.624   4.275
56684SOL    HW171885   7.842   8.647   4.251
56684SOL    HW271886   7.761   8.544   4.327
56685SOL     OW71887   2.832  11.424   3.213
56685SOL    HW171888   2.761  11.480   3.180
56685SOL    HW271889   2.819  11.421   3.308
56686SOL     OW71890   2.485  12.426   2.519
56686SOL    HW171891   2.406  12.450   2.567
56686SOL    HW271892   2.556  12.440   2.582
56687SOL     OW71893  10.294   1.787   9.570
56687SOL    HW171894  10.296   1.733   9.649
56687SOL    HW271895  10.219   1.846   9.584
56688SOL     OW71896  14.641   3.821   1.985
56688SOL    HW171897  14.672   3.818   2.075
56688SOL    HW271898  14.713   3.862   1.936
56689SOL     OW71899   0.012   9.854   3.683
56689SOL    HW171900   0.023   9.815   3.597
56689SOL    HW271901   0.049   9.942   3.674
56690SOL     OW71902   0.897  14.199   0.424
56690SOL    HW171903   0.964  14.194   0.492
56690SOL    HW271904   0.945  14.183   0.342
56691SOL     OW71905   2.226   5.668   6.980
56691SOL    HW171906   2.168   5.672   6.904
56691SOL    HW271907   2.265   5.581   6.976
56692SOL     OW71908   6.967   6.294  11.757
56692SOL    HW171909   6.911   6.225  11.721
56692SOL    HW271910   6.907   6.348  11.809
56693SOL     OW71911   7.816   2.051  14.291
56693SOL    HW171912   7.841   2.052  14.199
56693SOL    HW271913   7.899   2.039  14.338
56694SOL     OW71914   7.382   8.131  10.698
56694SOL    HW171915   7.418   8.219  10.688
56694SOL    HW271916   7.427   8.095  10.774
56695SOL     OW71917   0.140   1.041  10.507
56695SOL    HW171918   0.171   1.127  10.479
56695SOL    HW271919   0.157   1.039  10.601
56696SOL     OW71920   1.506   1.328  11.905
56696SOL    HW171921   1.445   1.267  11.946
56696SOL    HW271922   1.508   1.403  11.964
56697SOL     OW71923   5.363   9.875   9.159
56697SOL    HW171924   5.368   9.861   9.064
56697SOL    HW271925   5.301   9.947   9.169
56698SOL     OW71926   6.276  11.719   7.679
56698SOL    HW171927   6.260  11.812   7.664
56698SOL    HW271928   6.354  11.699   7.627
56699SOL     OW71929   8.332  13.357   8.237
56699SOL    HW171930   8.374  13.282   8.196
56699SOL    HW271931   8.340  13.341   8.331
56700SOL     OW71932   8.130   9.515   5.062
56700SOL    HW171933   8.181   9.461   5.002
56700SOL    HW271934   8.127   9.465   5.144
56701SOL     OW71935   3.631   2.488   0.218
56701SOL    HW171936   3.631   2.467   0.311
56701SOL    HW271937   3.678   2.571   0.213
56702SOL     OW71938   6.424   3.911   2.769
56702SOL    HW171939   6.490   3.966   2.726
56702SOL    HW271940   6.472   3.868   2.840
56703SOL     OW71941   0.093  11.070   1.475
56703SOL    HW171942   0.003  11.040   1.462
56703SOL    HW271943   0.084  11.154   1.519
56704SOL     OW71944  14.656   5.469   9.118
56704SOL    HW171945  14.564   5.444   9.110
56704SOL    HW271946  14.660   5.518   9.201
56705SOL     OW71947  11.505   2.394   5.155
56705SOL    HW171948  11.466   2.317   5.114
56705SOL    HW271949  11.596   2.369   5.170
56706SOL     OW71950  11.167   0.669   0.184
56706SOL    HW171951  11.117   0.595   0.218
56706SOL    HW271952  11.187   0.722   0.261
56707SOL     OW71953   2.970   1.451   3.586
56707SOL    HW171954   3.004   1.479   3.671
56707SOL    HW271955   2.979   1.356   3.586
56708SOL     OW71956  13.874   7.458   6.901
56708SOL    HW171957  13.807   7.525   6.884
56708SOL    HW271958  13.942   7.504   6.950
56709SOL     OW71959   8.726   3.202   1.808
56709SOL    HW171960   8.740   3.186   1.901
56709SOL    HW271961   8.757   3.122   1.765
56710SOL     OW71962  13.550   7.284   4.151
56710SOL    HW171963  13.623   7.299   4.091
56710SOL    HW271964  13.574   7.204   4.198
56711SOL     OW71965   8.816   2.237  14.252
56711SOL    HW171966   8.802   2.159  14.306
56711SOL    HW271967   8.911   2.252  14.256
56712SOL     OW71968  14.456  13.703   6.651
56712SOL    HW171969  14.395  13.772   6.678
56712SOL    HW271970  14.428  13.679   6.563
56713SOL     OW71971  14.518   4.815   0.577
56713SOL    HW171972  14.564   4.836   0.495
56713SOL    HW271973  14.548   4.727   0.600
56714SOL     OW71974   3.822  10.561  12.123
56714SOL    HW171975   3.906  10.592  12.090
56714SOL    HW271976   3.838  10.471  12.151
56715SOL     OW71977  13.954   8.891   6.654
56715SOL    HW171978  13.887   8.957   6.671
56715SOL    HW271979  13.914   8.809   6.685
56716SOL     OW71980   3.575  14.062   1.366
56716SOL    HW171981   3.620  13.995   1.315
56716SOL    HW271982   3.549  14.018   1.447
56717SOL     OW71983  10.476   7.134  11.145
56717SOL    HW171984  10.535   7.165  11.214
56717SOL    HW271985  10.391   7.172  11.167
56718SOL     OW71986  11.598  12.206   1.776
56718SOL    HW171987  11.692  12.217   1.790
56718SOL    HW271988  11.562  12.186   1.863
56719SOL     OW71989   3.592   2.354   4.025
56719SOL    HW171990   3.503   2.322   4.041
56719SOL    HW271991   3.579   2.438   3.980
56720SOL     OW71992  13.456  12.884   1.643
56720SOL    HW171993  13.489  12.806   1.598
56720SOL    HW271994  13.503  12.886   1.726
56721SOL     OW71995   1.110   2.703   3.937
56721SOL    HW171996   1.073   2.776   3.987
56721SOL    HW271997   1.054   2.697   3.859
56722SOL     OW71998  12.490   3.123  12.189
56722SOL    HW171999  12.570   3.094  12.145
56722SOL    HW272000  12.433   3.046  12.187
56723SOL     OW72001   8.307   2.942   6.564
56723SOL    HW172002   8.349   2.931   6.649
56723SOL    HW272003   8.287   2.853   6.535
56724SOL     OW72004   8.113   8.669   8.210
56724SOL    HW172005   8.055   8.613   8.262
56724SOL    HW272006   8.055   8.736   8.174
56725SOL     OW72007  14.717   9.155   4.805
56725SOL    HW172008  14.700   9.111   4.888
56725SOL    HW272009  14.807   9.133   4.784
56726SOL     OW72010  12.602  10.146   8.222
56726SOL    HW172011  12.649  10.221   8.187
56726SOL    HW272012  12.512  10.178   8.233
56727SOL     OW72013   1.035  13.435   6.102
56727SOL    HW172014   1.069  13.348   6.083
56727SOL    HW272015   0.947  13.420   6.138
56728SOL     OW72016   3.255  13.270  10.996
56728SOL    HW172017   3.176  13.253  10.946
56728SOL    HW272018   3.313  13.196  10.977
56729SOL     OW72019   7.985   5.587   5.784
56729SOL    HW172020   8.011   5.584   5.876
56729SOL    HW272021   7.942   5.503   5.769
56730SOL     OW72022   5.544   2.518   6.699
56730SOL    HW172023   5.599   2.444   6.672
56730SOL    HW272024   5.553   2.580   6.627
56731SOL     OW72025   3.849   0.800   2.478
56731SOL    HW172026   3.854   0.873   2.417
56731SOL    HW272027   3.755   0.786   2.492
56732SOL     OW72028  13.285  11.650   5.658
56732SOL    HW172029  13.288  11.557   5.638
56732SOL    HW272030  13.242  11.691   5.583
56733SOL     OW72031  10.635   7.748   0.287
56733SOL    HW172032  10.604   7.694   0.360
56733SOL    HW272033  10.658   7.832   0.328
56734SOL     OW72034   5.333  10.283   0.206
56734SOL    HW172035   5.382  10.233   0.270
56734SOL    HW272036   5.359  10.374   0.221
56735SOL     OW72037   8.834   2.060  11.431
56735SOL    HW172038   8.898   2.013  11.378
56735SOL    HW272039   8.884   2.091  11.507
56736SOL     OW72040  14.003  14.064   5.508
56736SOL    HW172041  13.932  14.039   5.449
56736SOL    HW272042  14.027  13.983   5.553
56737SOL     OW72043  12.487   4.598   0.565
56737SOL    HW172044  12.403   4.638   0.540
56737SOL    HW272045  12.536   4.669   0.606
56738SOL     OW72046   9.908   4.957   9.115
56738SOL    HW172047   9.951   4.959   9.029
56738SOL    HW272048   9.817   4.937   9.096
56739SOL     OW72049   5.796   1.591   7.983
56739SOL    HW172050   5.855   1.665   7.974
56739SOL    HW272051   5.847   1.525   8.029
56740SOL     OW72052   0.458  10.773   7.482
56740SOL    HW172053   0.498  10.852   7.445
56740SOL    HW272054   0.471  10.782   7.576
56741SOL     OW72055   4.298   0.001   2.997
56741SOL    HW172056   4.380  14.831   3.019
56741SOL    HW272057   4.312   0.036   2.909
56742SOL     OW72058   5.182  13.561  12.670
56742SOL    HW172059   5.273  13.562  12.699
56742SOL    HW272060   5.185  13.519  12.584
56743SOL     OW72061  13.225   2.707  10.125
56743SOL    HW172062  13.296   2.654  10.159
56743SOL    HW272063  13.194   2.660  10.048
56744SOL     OW72064   8.812   1.460   8.503
56744SOL    HW172065   8.724   1.456   8.541
56744SOL    HW272066   8.870   1.430   8.573
56745SOL     OW72067   6.578  11.893  10.214
56745SOL    HW172068   6.627  11.815  10.187
56745SOL    HW272069   6.512  11.860  10.275
56746SOL     OW72070   4.053   3.480  14.534
56746SOL    HW172071   3.972   3.430  14.532
56746SOL    HW272072   4.091   3.468  14.447
56747SOL     OW72073  11.643   8.689   7.127
56747SOL    HW172074  11.682   8.758   7.074
56747SOL    HW272075  11.664   8.713   7.217
56748SOL     OW72076   0.371  11.274   4.831
56748SOL    HW172077   0.361  11.188   4.872
56748SOL    HW272078   0.456  11.272   4.789
56749SOL     OW72079   5.663   7.771   0.203
56749SOL    HW172080   5.621   7.857   0.191
56749SOL    HW272081   5.643   7.723   0.123
56750SOL     OW72082  12.983   1.298  13.403
56750SOL    HW172083  13.078   1.294  13.395
56750SOL    HW272084  12.967   1.373  13.461
56751SOL     OW72085  12.500  10.228  14.057
56751SOL    HW172086  12.515  10.262  13.969
56751SOL    HW272087  12.408  10.246  14.074
56752SOL     OW72088   8.343  12.663   7.585
56752SOL    HW172089   8.305  12.672   7.672
56752SOL    HW272090   8.375  12.750   7.563
56753SOL     OW72091   0.053   2.771   1.260
56753SOL    HW172092   0.098   2.752   1.342
56753SOL    HW272093  14.859   2.835   1.284
56754SOL     OW72094  12.605   9.503  11.835
56754SOL    HW172095  12.688   9.548  11.820
56754SOL    HW272096  12.582   9.465  11.750
56755SOL     OW72097   9.440   6.719   0.234
56755SOL    HW172098   9.492   6.652   0.191
56755SOL    HW272099   9.438   6.792   0.172
56756SOL     OW72100  13.914   8.661   1.292
56756SOL    HW172101  13.980   8.708   1.241
56756SOL    HW272102  13.960   8.585   1.327
56757SOL     OW72103  10.555   4.811   6.695
56757SOL    HW172104  10.569   4.759   6.774
56757SOL    HW272105  10.479   4.865   6.715
56758SOL     OW72106   0.777  10.800  10.079
56758SOL    HW172107   0.858  10.847  10.101
56758SOL    HW272108   0.797  10.708  10.098
56759SOL     OW72109   0.456   4.480   4.629
56759SOL    HW172110   0.437   4.435   4.546
56759SOL    HW272111   0.429   4.418   4.697
56760SOL     OW72112   7.166   4.113   9.656
56760SOL    HW172113   7.088   4.065   9.685
56760SOL    HW272114   7.185   4.174   9.727
56761SOL     OW72115  10.298  14.226  14.207
56761SOL    HW172116  10.393  14.214  14.210
56761SOL    HW272117  10.284  14.282  14.130
56762SOL     OW72118   9.959   0.178  12.800
56762SOL    HW172119   9.989   0.200  12.889
56762SOL    HW272120  10.040   0.160  12.752
56763SOL     OW72121  10.443  14.582   1.961
56763SOL    HW172122  10.528  14.551   1.992
56763SOL    HW272123  10.459  14.610   1.871
56764SOL     OW72124   3.317   5.940  13.344
56764SOL    HW172125   3.408   5.912  13.339
56764SOL    HW272126   3.322   6.036  13.350
56765SOL     OW72127   0.569  10.055  13.896
56765SOL    HW172128   0.481  10.089  13.882
56765SOL    HW272129   0.623  10.104  13.834
56766SOL     OW72130   5.869   7.135   4.747
56766SOL    HW172131   5.825   7.125   4.663
56766SOL    HW272132   5.883   7.045   4.777
56767SOL     OW72133   9.396   2.066  11.183
56767SOL    HW172134   9.311   2.033  11.152
56767SOL    HW272135   9.434   1.992  11.231
56768SOL     OW72136   2.617   2.032   3.812
56768SOL    HW172137   2.601   2.085   3.890
56768SOL    HW272138   2.557   1.958   3.820
56769SOL     OW72139   9.103   7.681   9.398
56769SOL    HW172140   9.134   7.628   9.324
56769SOL    HW272141   9.022   7.721   9.366
56770SOL     OW72142  13.614   5.523  10.690
56770SOL    HW172143  13.665   5.503  10.611
56770SOL    HW272144  13.626   5.446  10.746
56771SOL     OW72145  10.773   1.061   2.463
56771SOL    HW172146  10.715   1.126   2.503
56771SOL    HW272147  10.716   0.988   2.441
56772SOL     OW72148  11.287  13.210   1.514
56772SOL    HW172149  11.272  13.206   1.419
56772SOL    HW272150  11.234  13.284   1.543
56773SOL     OW72151   0.489  12.866  10.758
56773SOL    HW172152   0.529  12.779  10.752
56773SOL    HW272153   0.520  12.900  10.842
56774SOL     OW72154  10.122  12.995   1.623
56774SOL    HW172155  10.165  13.054   1.560
56774SOL    HW272156  10.075  12.932   1.569
56775SOL     OW72157  12.117  10.495   4.571
56775SOL    HW172158  12.101  10.401   4.562
56775SOL    HW272159  12.181  10.502   4.642
56776SOL     OW72160  14.037   6.294   8.883
56776SOL    HW172161  14.070   6.204   8.892
56776SOL    HW272162  14.103   6.348   8.926
56777SOL     OW72163   6.293   6.332  10.998
56777SOL    HW172164   6.318   6.420  10.969
56777SOL    HW272165   6.253   6.292  10.921
56778SOL     OW72166  13.671  13.392  11.721
56778SOL    HW172167  13.622  13.456  11.671
56778SOL    HW272168  13.745  13.440  11.757
56779SOL     OW72169  10.140   6.422   8.752
56779SOL    HW172170  10.139   6.488   8.683
56779SOL    HW272171  10.218   6.371   8.735
56780SOL     OW72172   4.968   3.520   8.165
56780SOL    HW172173   5.041   3.504   8.225
56780SOL    HW272174   4.994   3.474   8.084
56781SOL     OW72175  12.236  10.755  10.395
56781SOL    HW172176  12.217  10.841  10.358
56781SOL    HW272177  12.205  10.693  10.329
56782SOL     OW72178  12.637   1.879   4.716
56782SOL    HW172179  12.553   1.903   4.755
56782SOL    HW272180  12.671   1.809   4.772
56783SOL     OW72181   9.012   1.035  12.775
56783SOL    HW172182   8.918   1.018  12.775
56783SOL    HW272183   9.020   1.130  12.779
56784SOL     OW72184   5.299   9.806  12.159
56784SOL    HW172185   5.204   9.804  12.146
56784SOL    HW272186   5.323   9.714  12.172
56785SOL     OW72187  11.702  13.324   8.057
56785SOL    HW172188  11.654  13.373   7.991
56785SOL    HW272189  11.782  13.297   8.012
56786SOL     OW72190   8.970   4.180   9.452
56786SOL    HW172191   9.015   4.261   9.476
56786SOL    HW272192   8.928   4.199   9.368
56787SOL     OW72193   7.179   6.919   9.793
56787SOL    HW172194   7.262   6.892   9.833
56787SOL    HW272195   7.199   6.925   9.700
56788SOL     OW72196   5.582   8.264   1.080
56788SOL    HW172197   5.565   8.210   1.003
56788SOL    HW272198   5.582   8.202   1.153
56789SOL     OW72199  14.180   5.926  13.471
56789SOL    HW172200  14.189   5.915  13.377
56789SOL    HW272201  14.254   5.982  13.496
56790SOL     OW72202   7.241   6.521   4.024
56790SOL    HW172203   7.311   6.569   4.069
56790SOL    HW272204   7.285   6.449   3.980
56791SOL     OW72205  13.476   8.836   6.898
56791SOL    HW172206  13.436   8.849   6.984
56791SOL    HW272207  13.560   8.882   6.904
56792SOL     OW72208   0.525  11.847   0.772
56792SOL    HW172209   0.609  11.827   0.813
56792SOL    HW272210   0.548  11.897   0.693
56793SOL     OW72211   2.406   6.513   6.532
56793SOL    HW172212   2.395   6.473   6.446
56793SOL    HW272213   2.323   6.498   6.576
56794SOL     OW72214   5.141  13.502   5.537
56794SOL    HW172215   5.234  13.515   5.553
56794SOL    HW272216   5.101  13.586   5.561
56795SOL     OW72217   4.800   0.074  10.800
56795SOL    HW172218   4.787   0.022  10.720
56795SOL    HW272219   4.782   0.164  10.773
56796SOL     OW72220   5.902   5.288   7.520
56796SOL    HW172221   5.835   5.293   7.452
56796SOL    HW272222   5.872   5.346   7.589
56797SOL     OW72223   1.782  14.794   8.061
56797SOL    HW172224   1.858  14.773   8.116
56797SOL    HW272225   1.746   0.001   8.098
56798SOL     OW72226   4.499   7.913   4.298
56798SOL    HW172227   4.504   7.854   4.374
56798SOL    HW272228   4.510   7.855   4.222
56799SOL     OW72229  14.100  14.041   3.633
56799SOL    HW172230  14.185  14.051   3.591
56799SOL    HW272231  14.067  13.957   3.601
56800SOL     OW72232  11.089   3.507   6.494
56800SOL    HW172233  11.085   3.532   6.586
56800SOL    HW272234  10.998   3.487   6.471
56801SOL     OW72235   3.427  14.420   3.359
56801SOL    HW172236   3.522  14.408   3.363
56801SOL    HW272237   3.392  14.332   3.347
56802SOL     OW72238  11.270  14.151   2.899
56802SOL    HW172239  11.298  14.067   2.862
56802SOL    HW272240  11.200  14.129   2.960
56803SOL     OW72241   5.732   7.047  13.492
56803SOL    HW172242   5.721   6.971  13.435
56803SOL    HW272243   5.812   7.090  13.460
56804SOL     OW72244   6.955  11.520   3.640
56804SOL    HW172245   6.874  11.564   3.667
56804SOL    HW272246   6.964  11.542   3.547
56805SOL     OW72247   2.578   1.109   1.627
56805SOL    HW172248   2.591   1.015   1.634
56805SOL    HW272249   2.537   1.134   1.710
56806SOL     OW72250   7.253   6.007   9.166
56806SOL    HW172251   7.266   5.924   9.120
56806SOL    HW272252   7.194   6.057   9.109
56807SOL     OW72253   2.211   3.330   2.331
56807SOL    HW172254   2.289   3.384   2.323
56807SOL    HW272255   2.140   3.393   2.344
56808SOL     OW72256   8.923  12.677   8.310
56808SOL    HW172257   8.951  12.732   8.237
56808SOL    HW272258   8.861  12.615   8.271
56809SOL     OW72259  10.349  14.144   5.893
56809SOL    HW172260  10.386  14.207   5.955
56809SOL    HW272261  10.340  14.063   5.943
56810SOL     OW72262   2.916  10.542   0.610
56810SOL    HW172263   2.840  10.504   0.567
56810SOL    HW272264   2.983  10.548   0.542
56811SOL     OW72265   6.997   6.917   9.148
56811SOL    HW172266   7.046   6.909   9.066
56811SOL    HW272267   6.986   7.012   9.160
56812SOL     OW72268   1.055  12.110  12.122
56812SOL    HW172269   1.101  12.111  12.205
56812SOL    HW272270   1.038  12.017  12.106
56813SOL     OW72271  14.670   9.387   5.402
56813SOL    HW172272  14.588   9.367   5.446
56813SOL    HW272273  14.714   9.450   5.460
56814SOL     OW72274  12.859  13.760   9.925
56814SOL    HW172275  12.916  13.718   9.860
56814SOL    HW272276  12.803  13.689   9.957
56815SOL     OW72277  11.025  12.843   3.952
56815SOL    HW172278  11.033  12.771   3.889
56815SOL    HW272279  10.930  12.855   3.962
56816SOL     OW72280   1.108  13.213   1.655
56816SOL    HW172281   1.147  13.127   1.664
56816SOL    HW272282   1.077  13.217   1.565
56817SOL     OW72283   7.318   0.021  13.554
56817SOL    HW172284   7.234  14.857  13.580
56817SOL    HW272285   7.350   0.066  13.633
56818SOL     OW72286   9.985   4.581   4.689
56818SOL    HW172287  10.006   4.621   4.774
56818SOL    HW272288   9.993   4.652   4.626
56819SOL     OW72289  12.505  10.731   2.958
56819SOL    HW172290  12.489  10.745   2.865
56819SOL    HW272291  12.582  10.786   2.978
56820SOL     OW72292  11.507   5.450   9.070
56820SOL    HW172293  11.586   5.479   9.116
56820SOL    HW272294  11.452   5.528   9.066
56821SOL     OW72295   5.438  14.360   4.790
56821SOL    HW172296   5.353  14.360   4.745
56821SOL    HW272297   5.465  14.268   4.791
56822SOL     OW72298   6.288  11.210  12.299
56822SOL    HW172299   6.219  11.144  12.307
56822SOL    HW272300   6.242  11.293  12.292
56823SOL     OW72301   7.358   5.436   2.697
56823SOL    HW172302   7.342   5.522   2.657
56823SOL    HW272303   7.429   5.398   2.645
56824SOL     OW72304   6.737   7.943  13.723
56824SOL    HW172305   6.791   7.972  13.796
56824SOL    HW272306   6.733   7.848  13.733
56825SOL     OW72307   5.504   3.449   3.978
56825SOL    HW172308   5.467   3.520   4.029
56825SOL    HW272309   5.586   3.483   3.943
56826SOL     OW72310  11.560  10.545  11.559
56826SOL    HW172311  11.627  10.539  11.490
56826SOL    HW272312  11.551  10.456  11.591
56827SOL     OW72313   4.232   7.552   5.321
56827SOL    HW172314   4.150   7.574   5.365
56827SOL    HW272315   4.218   7.579   5.230
56828SOL     OW72316   2.641   8.632   5.965
56828SOL    HW172317   2.567   8.575   5.947
56828SOL    HW272318   2.636   8.701   5.899
56829SOL     OW72319   3.634   7.432   4.235
56829SOL    HW172320   3.707   7.480   4.195
56829SOL    HW272321   3.556   7.467   4.192
56830SOL     OW72322  11.730   0.391   3.675
56830SOL    HW172323  11.728   0.399   3.579
56830SOL    HW272324  11.725   0.482   3.706
56831SOL     OW72325   1.840  11.967  10.363
56831SOL    HW172326   1.824  11.982  10.456
56831SOL    HW272327   1.928  11.931  10.359
56832SOL     OW72328   7.840   2.326  14.418
56832SOL    HW172329   7.769   2.274  14.382
56832SOL    HW272330   7.901   2.337  14.345
56833SOL     OW72331  12.924  10.074   6.535
56833SOL    HW172332  12.889  10.153   6.493
56833SOL    HW272333  12.902  10.084   6.627
56834SOL     OW72334   1.781  13.598   9.657
56834SOL    HW172335   1.849  13.543   9.620
56834SOL    HW272336   1.708  13.592   9.595
56835SOL     OW72337   5.600  12.499   1.541
56835SOL    HW172338   5.666  12.529   1.604
56835SOL    HW272339   5.536  12.452   1.593
56836SOL     OW72340  11.578  11.383   0.677
56836SOL    HW172341  11.514  11.428   0.622
56836SOL    HW272342  11.533  11.369   0.760
56837SOL     OW72343  11.299  10.108   2.408
56837SOL    HW172344  11.382  10.143   2.438
56837SOL    HW272345  11.234  10.143   2.468
56838SOL     OW72346   5.814   4.443  10.432
56838SOL    HW172347   5.880   4.438  10.502
56838SOL    HW272348   5.830   4.364  10.380
56839SOL     OW72349   3.406   7.163   2.570
56839SOL    HW172350   3.469   7.227   2.605
56839SOL    HW272351   3.415   7.087   2.627
56840SOL     OW72352   1.279   4.899   6.787
56840SOL    HW172353   1.334   4.836   6.741
56840SOL    HW272354   1.227   4.940   6.718
56841SOL     OW72355  10.100   0.561   4.041
56841SOL    HW172356  10.187   0.550   4.080
56841SOL    HW272357  10.102   0.504   3.964
56842SOL     OW72358  12.563  13.179   1.742
56842SOL    HW172359  12.568  13.239   1.667
56842SOL    HW272360  12.533  13.097   1.705
56843SOL     OW72361   7.792   0.062   2.959
56843SOL    HW172362   7.756   0.056   3.047
56843SOL    HW272363   7.826  14.847   2.941
56844SOL     OW72364  11.167  12.124   3.130
56844SOL    HW172365  11.139  12.061   3.197
56844SOL    HW272366  11.263  12.121   3.134
56845SOL     OW72367   1.639   4.551   6.017
56845SOL    HW172368   1.550   4.544   6.052
56845SOL    HW272369   1.658   4.464   5.982
56846SOL     OW72370  12.497   9.502   2.495
56846SOL    HW172371  12.440   9.579   2.491
56846SOL    HW272372  12.585   9.536   2.477
56847SOL     OW72373   3.717  10.073   4.636
56847SOL    HW172374   3.764  10.073   4.552
56847SOL    HW272375   3.737   9.987   4.674
56848SOL     OW72376  13.372   3.654   2.476
56848SOL    HW172377  13.331   3.738   2.456
56848SOL    HW272378  13.392   3.659   2.570
56849SOL     OW72379   8.883   2.432   4.864
56849SOL    HW172380   8.884   2.449   4.770
56849SOL    HW272381   8.921   2.510   4.903
56850SOL     OW72382  12.916  14.420   8.833
56850SOL    HW172383  12.969  14.492   8.800
56850SOL    HW272384  12.962  14.341   8.803
56851SOL     OW72385   8.912   1.637   3.502
56851SOL    HW172386   8.973   1.565   3.484
56851SOL    HW272387   8.964   1.702   3.549
56852SOL     OW72388   7.166  11.142   0.942
56852SOL    HW172389   7.207  11.160   0.857
56852SOL    HW272390   7.138  11.227   0.973
56853SOL     OW72391  10.748  13.875   1.121
56853SOL    HW172392  10.828  13.874   1.068
56853SOL    HW272393  10.699  13.950   1.088
56854SOL     OW72394   0.176   8.550  13.819
56854SOL    HW172395   0.192   8.558  13.913
56854SOL    HW272396   0.255   8.587  13.778
56855SOL     OW72397   3.563   0.657  12.954
56855SOL    HW172398   3.515   0.647  12.872
56855SOL    HW272399   3.592   0.749  12.954
56856SOL     OW72400   1.053   4.793   3.960
56856SOL    HW172401   0.970   4.793   4.008
56856SOL    HW272402   1.055   4.708   3.916
56857SOL     OW72403  14.244   1.567   3.084
56857SOL    HW172404  14.269   1.475   3.078
56857SOL    HW272405  14.270   1.593   3.172
56858SOL     OW72406   5.610  14.273   9.262
56858SOL    HW172407   5.657  14.356   9.258
56858SOL    HW272408   5.543  14.281   9.194
56859SOL     OW72409   8.051  12.244   2.805
56859SOL    HW172410   8.119  12.278   2.746
56859SOL    HW272411   7.972  12.244   2.752
56860SOL     OW72412   1.881  10.948   3.178
56860SOL    HW172413   1.796  10.984   3.154
56860SOL    HW272414   1.907  10.895   3.103
56861SOL     OW72415  13.301  10.273   1.657
56861SOL    HW172416  13.396  10.258   1.657
56861SOL    HW272417  13.291  10.368   1.653
56862SOL     OW72418  12.200   7.198   7.196
56862SOL    HW172419  12.265   7.185   7.265
56862SOL    HW272420  12.203   7.118   7.144
56863SOL     OW72421   9.121   4.053   2.965
56863SOL    HW172422   9.033   4.016   2.974
56863SOL    HW272423   9.158   4.046   3.053
56864SOL     OW72424   5.154   5.027   5.149
56864SOL    HW172425   5.115   4.952   5.194
56864SOL    HW272426   5.085   5.093   5.149
56865SOL     OW72427   3.701  13.999   7.358
56865SOL    HW172428   3.784  14.000   7.310
56865SOL    HW272429   3.671  14.090   7.356
56866SOL     OW72430  14.485   8.969   6.284
56866SOL    HW172431  14.428   8.900   6.249
56866SOL    HW272432  14.566   8.923   6.306
56867SOL     OW72433   0.497   1.650   8.981
56867SOL    HW172434   0.573   1.708   8.986
56867SOL    HW272435   0.422   1.708   8.969
56868SOL     OW72436   0.738   4.249   4.989
56868SOL    HW172437   0.784   4.209   5.062
56868SOL    HW272438   0.663   4.192   4.973
56869SOL     OW72439   1.761   4.319  10.038
56869SOL    HW172440   1.848   4.355  10.019
56869SOL    HW272441   1.749   4.334  10.132
56870SOL     OW72442   0.935   2.265   9.105
56870SOL    HW172443   0.999   2.256   9.034
56870SOL    HW272444   0.928   2.177   9.142
56871SOL     OW72445  10.103   1.721  10.361
56871SOL    HW172446  10.094   1.646  10.420
56871SOL    HW272447  10.123   1.795  10.419
56872SOL     OW72448  14.417   1.671   1.913
56872SOL    HW172449  14.372   1.668   1.998
56872SOL    HW272450  14.455   1.759   1.909
56873SOL     OW72451   3.162  11.379   9.051
56873SOL    HW172452   3.205  11.422   9.124
56873SOL    HW272453   3.226  11.382   8.980
56874SOL     OW72454  12.847   0.729  14.595
56874SOL    HW172455  12.767   0.709  14.643
56874SOL    HW272456  12.895   0.791  14.650
56875SOL     OW72457  11.903  12.230   8.561
56875SOL    HW172458  11.958  12.278   8.622
56875SOL    HW272459  11.813  12.247   8.590
56876SOL     OW72460  11.105   7.302   5.198
56876SOL    HW172461  11.155   7.279   5.119
56876SOL    HW272462  11.164   7.359   5.248
56877SOL     OW72463  11.167   5.744   5.633
56877SOL    HW172464  11.155   5.649   5.624
56877SOL    HW272465  11.087   5.775   5.674
56878SOL     OW72466  13.851  13.950  12.492
56878SOL    HW172467  13.757  13.944  12.479
56878SOL    HW272468  13.880  13.858  12.496
56879SOL     OW72469   0.311   3.221   3.171
56879SOL    HW172470   0.387   3.199   3.224
56879SOL    HW272471   0.299   3.315   3.186
56880SOL     OW72472   7.286   8.784   0.533
56880SOL    HW172473   7.217   8.729   0.570
56880SOL    HW272474   7.360   8.773   0.593
56881SOL     OW72475   6.742   9.566   8.828
56881SOL    HW172476   6.780   9.639   8.876
56881SOL    HW272477   6.728   9.497   8.894
56882SOL     OW72478   7.416   8.963   5.496
56882SOL    HW172479   7.323   8.981   5.485
56882SOL    HW272480   7.456   8.992   5.414
56883SOL     OW72481   7.008   1.737   4.487
56883SOL    HW172482   6.944   1.807   4.489
56883SOL    HW272483   7.068   1.757   4.559
56884SOL     OW72484  12.978   8.901  11.474
56884SOL    HW172485  12.902   8.954  11.500
56884SOL    HW272486  13.025   8.957  11.412
56885SOL     OW72487   9.483   1.255  12.054
56885SOL    HW172488   9.461   1.317  12.123
56885SOL    HW272489   9.535   1.305  11.991
56886SOL     OW72490  14.806   0.173   1.890
56886SOL    HW172491   0.011   0.125   1.864
56886SOL    HW272492  14.835   0.228   1.963
56887SOL     OW72493  12.219   6.880  14.239
56887SOL    HW172494  12.212   6.799  14.189
56887SOL    HW272495  12.174   6.945  14.185
56888SOL     OW72496   4.484  13.833  10.929
56888SOL    HW172497   4.407  13.872  10.888
56888SOL    HW272498   4.531  13.791  10.857
56889SOL     OW72499  11.392   6.825   1.593
56889SOL    HW172500  11.341   6.797   1.517
56889SOL    HW272501  11.422   6.744   1.633
56890SOL     OW72502  11.393  12.529   6.547
56890SOL    HW172503  11.424  12.619   6.545
56890SOL    HW272504  11.426  12.490   6.466
56891SOL     OW72505  14.436  14.133   9.585
56891SOL    HW172506  14.376  14.124   9.658
56891SOL    HW272507  14.511  14.181   9.620
56892SOL     OW72508   5.123   3.176   6.132
56892SOL    HW172509   5.087   3.259   6.101
56892SOL    HW272510   5.064   3.149   6.202
56893SOL     OW72511  13.950   6.535   1.189
56893SOL    HW172512  13.944   6.565   1.280
56893SOL    HW272513  13.873   6.479   1.177
56894SOL     OW72514   2.061  11.194  12.400
56894SOL    HW172515   2.048  11.137  12.324
56894SOL    HW272516   2.016  11.149  12.472
56895SOL     OW72517   2.390   0.480  10.769
56895SOL    HW172518   2.355   0.569  10.767
56895SOL    HW272519   2.455   0.479  10.698
56896SOL     OW72520   9.642  10.608   1.183
56896SOL    HW172521   9.683  10.522   1.187
56896SOL    HW272522   9.716  10.669   1.174
56897SOL     OW72523   1.663   7.232  11.027
56897SOL    HW172524   1.692   7.191  11.108
56897SOL    HW272525   1.569   7.215  11.023
56898SOL     OW72526   7.409  13.861   4.485
56898SOL    HW172527   7.393  13.793   4.420
56898SOL    HW272528   7.413  13.942   4.435
56899SOL     OW72529  12.200   6.476   3.020
56899SOL    HW172530  12.166   6.444   2.937
56899SOL    HW272531  12.123   6.489   3.075
56900SOL     OW72532  13.020   5.936   3.136
56900SOL    HW172533  12.935   5.907   3.102
56900SOL    HW272534  13.007   5.943   3.231
56901SOL     OW72535  10.422  10.009   6.656
56901SOL    HW172536  10.368   9.951   6.710
56901SOL    HW272537  10.422  10.092   6.703
56902SOL     OW72538   4.675   7.136   9.683
56902SOL    HW172539   4.681   7.102   9.772
56902SOL    HW272540   4.743   7.090   9.635
56903SOL     OW72541   0.867   4.848   3.031
56903SOL    HW172542   0.917   4.769   3.010
56903SOL    HW272543   0.775   4.822   3.022
56904SOL     OW72544   7.688   1.657   3.304
56904SOL    HW172545   7.662   1.646   3.212
56904SOL    HW272546   7.675   1.750   3.322
56905SOL     OW72547   4.030  11.463   4.660
56905SOL    HW172548   4.035  11.368   4.644
56905SOL    HW272549   3.995  11.470   4.749
56906SOL     OW72550   7.382   8.744   1.498
56906SOL    HW172551   7.367   8.670   1.439
56906SOL    HW272552   7.364   8.821   1.444
56907SOL     OW72553   0.742   4.354   1.710
56907SOL    HW172554   0.825   4.305   1.713
56907SOL    HW272555   0.757   4.429   1.767
56908SOL     OW72556   4.997   5.119   3.023
56908SOL    HW172557   5.057   5.080   2.961
56908SOL    HW272558   5.041   5.198   3.054
56909SOL     OW72559  14.138   2.027  10.691
56909SOL    HW172560  14.144   1.945  10.640
56909SOL    HW272561  14.050   2.024  10.729
56910SOL     OW72562  13.760  14.775   2.657
56910SOL    HW172563  13.821  14.753   2.727
56910SOL    HW272564  13.805  14.841   2.604
56911SOL     OW72565  14.042  14.346   2.478
56911SOL    HW172566  13.997  14.430   2.476
56911SOL    HW272567  14.134  14.368   2.494
56912SOL     OW72568   7.507   0.977  13.296
56912SOL    HW172569   7.524   1.014  13.210
56912SOL    HW272570   7.448   0.903  13.280
56913SOL     OW72571  11.240  13.852   3.517
56913SOL    HW172572  11.332  13.830   3.531
56913SOL    HW272573  11.197  13.829   3.600
56914SOL     OW72574   3.534   0.752   9.210
56914SOL    HW172575   3.581   0.787   9.134
56914SOL    HW272576   3.447   0.792   9.205
56915SOL     OW72577   5.914   9.290   9.404
56915SOL    HW172578   5.880   9.312   9.317
56915SOL    HW272579   5.858   9.338   9.465
56916SOL     OW72580   9.737   0.127  11.970
56916SOL    HW172581   9.753   0.219  11.950
56916SOL    HW272582   9.713   0.088  11.886
56917SOL     OW72583   4.504   3.002   0.687
56917SOL    HW172584   4.575   3.065   0.673
56917SOL    HW272585   4.436   3.027   0.625
56918SOL     OW72586   6.145   6.739   5.371
56918SOL    HW172587   6.090   6.731   5.449
56918SOL    HW272588   6.235   6.730   5.404
56919SOL     OW72589  14.286  13.147   1.550
56919SOL    HW172590  14.340  13.086   1.599
56919SOL    HW272591  14.254  13.098   1.475
56920SOL     OW72592   4.713   9.460   0.785
56920SOL    HW172593   4.754   9.375   0.797
56920SOL    HW272594   4.758   9.499   0.711
56921SOL     OW72595   0.303   4.346   2.820
56921SOL    HW172596   0.223   4.295   2.809
56921SOL    HW272597   0.279   4.435   2.795
56922SOL     OW72598   5.525   5.653  10.284
56922SOL    HW172599   5.553   5.570  10.246
56922SOL    HW272600   5.432   5.659  10.263
56923SOL     OW72601   4.682   0.708  13.654
56923SOL    HW172602   4.760   0.759  13.674
56923SOL    HW272603   4.654   0.738  13.568
56924SOL     OW72604   2.608   4.244   8.243
56924SOL    HW172605   2.564   4.325   8.219
56924SOL    HW272606   2.610   4.244   8.338
56925SOL     OW72607  14.564   6.608   5.521
56925SOL    HW172608  14.540   6.675   5.458
56925SOL    HW272609  14.596   6.535   5.467
56926SOL     OW72610  13.792  14.279   6.552
56926SOL    HW172611  13.880  14.245   6.570
56926SOL    HW272612  13.745  14.204   6.514
56927SOL     OW72613   4.486  14.485   7.630
56927SOL    HW172614   4.482  14.417   7.562
56927SOL    HW272615   4.578  14.511   7.632
56928SOL     OW72616  14.201  13.282   9.084
56928SOL    HW172617  14.209  13.289   8.989
56928SOL    HW272618  14.185  13.189   9.101
56929SOL     OW72619   6.301   0.591  13.647
56929SOL    HW172620   6.349   0.661  13.602
56929SOL    HW272621   6.228   0.636  13.688
56930SOL     OW72622   6.539  14.754  11.179
56930SOL    HW172623   6.488  14.673  11.174
56930SOL    HW272624   6.563  14.762  11.271
56931SOL     OW72625   5.741   5.604  14.366
56931SOL    HW172626   5.794   5.671  14.411
56931SOL    HW272627   5.683   5.570  14.434
56932SOL     OW72628   7.599  11.478   4.808
56932SOL    HW172629   7.513  11.516   4.788
56932SOL    HW272630   7.662  11.542   4.775
56933SOL     OW72631   9.755   1.004   7.803
56933SOL    HW172632   9.815   0.962   7.742
56933SOL    HW272633   9.712   0.932   7.848
56934SOL     OW72634   6.816  12.136   3.947
56934SOL    HW172635   6.727  12.153   3.918
56934SOL    HW272636   6.869  12.140   3.868
56935SOL     OW72637   9.869  10.805  11.480
56935SOL    HW172638   9.789  10.814  11.428
56935SOL    HW272639   9.931  10.866  11.440
56936SOL     OW72640   6.876   2.565  14.324
56936SOL    HW172641   6.859   2.563  14.230
56936SOL    HW272642   6.971   2.575  14.331
56937SOL     OW72643   7.270   9.948   7.201
56937SOL    HW172644   7.245   9.856   7.202
56937SOL    HW272645   7.236   9.981   7.118
56938SOL     OW72646   7.531   1.655   3.636
56938SOL    HW172647   7.475   1.717   3.589
56938SOL    HW272648   7.553   1.588   3.571
56939SOL     OW72649  14.692   1.939   4.399
56939SOL    HW172650  14.748   2.011   4.429
56939SOL    HW272651  14.693   1.946   4.304
56940SOL     OW72652   4.446   8.815   4.675
56940SOL    HW172653   4.517   8.876   4.656
56940SOL    HW272654   4.380   8.868   4.719
56941SOL     OW72655   3.835  14.871   8.620
56941SOL    HW172656   3.852   0.076   8.673
56941SOL    HW272657   3.896   0.005   8.547
56942SOL     OW72658  10.847  10.672   3.815
56942SOL    HW172659  10.845  10.708   3.904
56942SOL    HW272660  10.820  10.745   3.760
56943SOL     OW72661  13.755  10.384  14.286
56943SOL    HW172662  13.782  10.311  14.230
56943SOL    HW272663  13.783  10.462  14.238
56944SOL     OW72664   7.792  12.289   2.325
56944SOL    HW172665   7.713  12.339   2.308
56944SOL    HW272666   7.802  12.232   2.248
56945SOL     OW72667  13.004  13.417   8.277
56945SOL    HW172668  13.044  13.498   8.309
56945SOL    HW272669  13.059  13.347   8.313
56946SOL     OW72670   7.318  11.353  11.571
56946SOL    HW172671   7.347  11.444  11.572
56946SOL    HW272672   7.384  11.307  11.520
56947SOL     OW72673   9.775   5.223   3.659
56947SOL    HW172674   9.705   5.185   3.606
56947SOL    HW272675   9.854   5.211   3.607
56948SOL     OW72676  12.348  14.446  11.620
56948SOL    HW172677  12.268  14.395  11.605
56948SOL    HW272678  12.384  14.411  11.701
56949SOL     OW72679  14.308   1.157   4.533
56949SOL    HW172680  14.378   1.101   4.501
56949SOL    HW272681  14.310   1.145   4.628
56950SOL     OW72682   8.606   0.869  12.283
56950SOL    HW172683   8.544   0.809  12.323
56950SOL    HW272684   8.651   0.816  12.217
56951SOL     OW72685  12.012   1.845   1.217
56951SOL    HW172686  12.024   1.938   1.236
56951SOL    HW272687  12.100   1.813   1.197
56952SOL     OW72688   4.964   0.957  10.128
56952SOL    HW172689   4.916   0.911  10.196
56952SOL    HW272690   5.041   0.903  10.112
56953SOL     OW72691  14.803  13.314   9.020
56953SOL    HW172692  14.710  13.320   9.044
56953SOL    HW272693  14.813  13.223   8.989
56954SOL     OW72694  12.605   7.362  11.107
56954SOL    HW172695  12.620   7.410  11.189
56954SOL    HW272696  12.621   7.270  11.131
56955SOL     OW72697   6.758   5.354   5.983
56955SOL    HW172698   6.697   5.316   6.045
56955SOL    HW272699   6.796   5.279   5.937
56956SOL     OW72700  12.219   2.978   3.614
56956SOL    HW172701  12.304   2.983   3.570
56956SOL    HW272702  12.181   3.065   3.603
56957SOL     OW72703   9.826   4.552  13.298
56957SOL    HW172704   9.919   4.567  13.282
56957SOL    HW272705   9.798   4.628  13.349
56958SOL     OW72706  10.141   5.539  10.880
56958SOL    HW172707  10.196   5.472  10.919
56958SOL    HW272708  10.171   5.621  10.919
56959SOL     OW72709   5.406  13.311  10.200
56959SOL    HW172710   5.481  13.264  10.235
56959SOL    HW272711   5.334  13.248  10.201
56960SOL     OW72712  13.262   0.241   8.309
56960SOL    HW172713  13.299   0.317   8.263
56960SOL    HW272714  13.320   0.169   8.284
56961SOL     OW72715   9.846   7.062   1.407
56961SOL    HW172716   9.808   7.129   1.464
56961SOL    HW272717   9.914   7.021   1.459
56962SOL     OW72718  13.329  11.585   9.880
56962SOL    HW172719  13.364  11.497   9.863
56962SOL    HW272720  13.404  11.643   9.868
56963SOL     OW72721  12.887   8.649  11.417
56963SOL    HW172722  12.792   8.647  11.402
56963SOL    HW272723  12.902   8.732  11.462
56964SOL     OW72724   5.621  11.022   2.441
56964SOL    HW172725   5.711  11.016   2.471
56964SOL    HW272726   5.623  10.987   2.352
56965SOL     OW72727   3.272   9.598   9.818
56965SOL    HW172728   3.228   9.513   9.814
56965SOL    HW272729   3.354   9.585   9.771
56966SOL     OW72730   7.289   3.203   1.230
56966SOL    HW172731   7.305   3.127   1.174
56966SOL    HW272732   7.195   3.219   1.223
56967SOL     OW72733   6.658   2.131   3.797
56967SOL    HW172734   6.735   2.140   3.854
56967SOL    HW272735   6.620   2.046   3.820
56968SOL     OW72736  13.017  11.236  14.445
56968SOL    HW172737  13.105  11.199  14.433
56968SOL    HW272738  12.966  11.165  14.483
56969SOL     OW72739   7.868   3.106   1.018
56969SOL    HW172740   7.940   3.152   1.060
56969SOL    HW272741   7.900   3.018   1.002
56970SOL     OW72742   4.822   5.712  10.186
56970SOL    HW172743   4.899   5.766  10.203
56970SOL    HW272744   4.812   5.714  10.091
56971SOL     OW72745  10.279   0.049  12.785
56971SOL    HW172746  10.372   0.074  12.780
56971SOL    HW272747  10.263   0.038  12.879
56972SOL     OW72748   6.649   0.422  12.548
56972SOL    HW172749   6.744   0.425  12.554
56972SOL    HW272750   6.630   0.423  12.454
56973SOL     OW72751   4.619   8.634   1.447
56973SOL    HW172752   4.550   8.576   1.480
56973SOL    HW272753   4.667   8.581   1.384
56974SOL     OW72754   8.603   2.283  12.553
56974SOL    HW172755   8.682   2.237  12.526
56974SOL    HW272756   8.589   2.349  12.486
56975SOL     OW72757   6.853  14.134   8.390
56975SOL    HW172758   6.859  14.170   8.301
56975SOL    HW272759   6.899  14.051   8.385
56976SOL     OW72760   2.288   2.485  11.134
56976SOL    HW172761   2.234   2.454  11.062
56976SOL    HW272762   2.236   2.553  11.176
56977SOL     OW72763  11.755   0.208   2.694
56977SOL    HW172764  11.840   0.250   2.703
56977SOL    HW272765  11.710   0.228   2.776
56978SOL     OW72766   6.136   1.109  11.888
56978SOL    HW172767   6.215   1.159  11.869
56978SOL    HW272768   6.095   1.096  11.802
56979SOL     OW72769   2.045   3.610   3.204
56979SOL    HW172770   2.132   3.649   3.194
56979SOL    HW272771   1.987   3.685   3.218
56980SOL     OW72772   8.844  13.352   6.216
56980SOL    HW172773   8.767  13.330   6.269
56980SOL    HW272774   8.865  13.442   6.242
56981SOL     OW72775  13.431  10.795   1.914
56981SOL    HW172776  13.513  10.828   1.876
56981SOL    HW272777  13.456  10.716   1.961
56982SOL     OW72778   8.875  13.171   3.072
56982SOL    HW172779   8.816  13.246   3.066
56982SOL    HW272780   8.825  13.105   3.121
56983SOL     OW72781  14.639   1.348   2.877
56983SOL    HW172782  14.672   1.258   2.883
56983SOL    HW272783  14.715   1.399   2.848
56984SOL     OW72784   3.750  12.552   4.377
56984SOL    HW172785   3.698  12.571   4.455
56984SOL    HW272786   3.835  12.591   4.395
56985SOL     OW72787   7.030  13.501   6.991
56985SOL    HW172788   6.957  13.542   7.037
56985SOL    HW272789   7.100  13.566   6.995
56986SOL     OW72790   5.414   6.600   7.436
56986SOL    HW172791   5.404   6.680   7.488
56986SOL    HW272792   5.405   6.529   7.500
56987SOL     OW72793  11.786   7.496   5.323
56987SOL    HW172794  11.725   7.430   5.291
56987SOL    HW272795  11.795   7.477   5.416
56988SOL     OW72796   0.105   5.253  10.828
56988SOL    HW172797   0.136   5.334  10.788
56988SOL    HW272798   0.185   5.206  10.852
56989SOL     OW72799   6.088   0.551  14.026
56989SOL    HW172800   6.005   0.583  13.992
56989SOL    HW272801   6.093   0.587  14.115
56990SOL     OW72802   3.718   3.643   4.130
56990SOL    HW172803   3.669   3.688   4.198
56990SOL    HW272804   3.692   3.686   4.048
56991SOL     OW72805  11.064   1.221   3.475
56991SOL    HW172806  10.990   1.180   3.520
56991SOL    HW272807  11.131   1.231   3.542
56992SOL     OW72808  13.541  12.377  14.143
56992SOL    HW172809  13.519  12.442  14.075
56992SOL    HW272810  13.548  12.294  14.095
56993SOL     OW72811  13.652   8.680   2.510
56993SOL    HW172812  13.720   8.742   2.482
56993SOL    HW272813  13.625   8.711   2.596
56994SOL     OW72814   3.661   3.558  12.814
56994SOL    HW172815   3.623   3.529  12.897
56994SOL    HW272816   3.741   3.605  12.840
56995SOL     OW72817   3.229   3.765  11.329
56995SOL    HW172818   3.324   3.758  11.318
56995SOL    HW272819   3.199   3.812  11.252
56996SOL     OW72820   6.297   4.288   2.809
56996SOL    HW172821   6.290   4.356   2.742
56996SOL    HW272822   6.347   4.218   2.767
56997SOL     OW72823  12.282   7.848  11.058
56997SOL    HW172824  12.337   7.811  10.989
56997SOL    HW272825  12.193   7.820  11.035
56998SOL     OW72826  14.054   8.206   6.705
56998SOL    HW172827  14.004   8.132   6.670
56998SOL    HW272828  14.136   8.204   6.655
56999SOL     OW72829  13.340   1.405   1.075
56999SOL    HW172830  13.424   1.362   1.095
56999SOL    HW272831  13.274   1.348   1.116
57000SOL     OW72832   1.993   5.894   8.883
57000SOL    HW172833   2.089   5.894   8.886
57000SOL    HW272834   1.970   5.807   8.851
57001SOL     OW72835   0.729  10.714  10.467
57001SOL    HW172836   0.639  10.680  10.462
57001SOL    HW272837   0.748  10.745  10.379
57002SOL     OW72838   0.278   3.200   2.519
57002SOL    HW172839   0.293   3.233   2.430
57002SOL    HW272840   0.184   3.184   2.523
57003SOL     OW72841   2.757   2.916  11.394
57003SOL    HW172842   2.700   2.839  11.399
57003SOL    HW272843   2.784   2.932  11.485
57004SOL     OW72844  14.273   8.365   2.612
57004SOL    HW172845  14.366   8.365   2.636
57004SOL    HW272846  14.243   8.276   2.633
57005SOL     OW72847   7.324  12.608   9.855
57005SOL    HW172848   7.411  12.623   9.892
57005SOL    HW272849   7.325  12.657   9.772
57006SOL     OW72850   0.364   1.488  12.588
57006SOL    HW172851   0.281   1.529  12.562
57006SOL    HW272852   0.346   1.394  12.589
57007SOL     OW72853   9.534   4.009  11.528
57007SOL    HW172854   9.553   4.077  11.463
57007SOL    HW272855   9.443   3.984  11.510
57008SOL     OW72856   4.332   9.038   1.544
57008SOL    HW172857   4.297   9.103   1.605
57008SOL    HW272858   4.260   8.977   1.529
57009SOL     OW72859  14.036   2.277   4.054
57009SOL    HW172860  14.044   2.247   4.145
57009SOL    HW272861  14.119   2.322   4.037
57010SOL     OW72862  12.567   8.061   4.846
57010SOL    HW172863  12.622   8.054   4.768
57010SOL    HW272864  12.596   8.142   4.889
57011SOL     OW72865   9.548   6.889   3.086
57011SOL    HW172866   9.567   6.914   3.176
57011SOL    HW272867   9.587   6.802   3.076
57012SOL     OW72868   5.047   1.267   4.021
57012SOL    HW172869   5.026   1.324   3.947
57012SOL    HW272870   5.074   1.184   3.979
57013SOL     OW72871  14.016   0.462  14.572
57013SOL    HW172872  13.936   0.500  14.537
57013SOL    HW272873  14.009   0.369  14.550
57014SOL     OW72874  14.765   1.071   7.599
57014SOL    HW172875  14.708   1.051   7.673
57014SOL    HW272876  14.705   1.096   7.529
57015SOL     OW72877   1.612   4.796  14.865
57015SOL    HW172878   1.638   4.712  14.825
57015SOL    HW272879   1.550   4.772   0.061
57016SOL     OW72880  12.200   9.336   0.759
57016SOL    HW172881  12.282   9.374   0.727
57016SOL    HW272882  12.225   9.249   0.790
57017SOL     OW72883  12.171   1.346   0.166
57017SOL    HW172884  12.082   1.318   0.190
57017SOL    HW272885  12.224   1.268   0.176
57018SOL     OW72886   3.431  14.069   5.376
57018SOL    HW172887   3.413  14.040   5.465
57018SOL    HW272888   3.526  14.076   5.371
57019SOL     OW72889   7.003  10.806   3.613
57019SOL    HW172890   7.013  10.747   3.687
57019SOL    HW272891   7.055  10.883   3.637
57020SOL     OW72892   8.827   1.067   7.945
57020SOL    HW172893   8.742   1.084   7.905
57020SOL    HW272894   8.818   1.101   8.035
57021SOL     OW72895   9.182  12.211  12.309
57021SOL    HW172896   9.222  12.224  12.223
57021SOL    HW272897   9.186  12.117  12.323
57022SOL     OW72898   0.526   6.089   7.633
57022SOL    HW172899   0.564   6.134   7.558
57022SOL    HW272900   0.535   6.151   7.706
57023SOL     OW72901   0.502   4.367  10.853
57023SOL    HW172902   0.498   4.406  10.940
57023SOL    HW272903   0.595   4.372  10.829
57024SOL     OW72904  12.907   6.273   4.360
57024SOL    HW172905  12.894   6.240   4.272
57024SOL    HW272906  13.001   6.261   4.377
57025SOL     OW72907  12.835   0.530   1.475
57025SOL    HW172908  12.855   0.517   1.567
57025SOL    HW272909  12.750   0.488   1.462
57026SOL     OW72910   2.546   0.752   0.093
57026SOL    HW172911   2.640   0.758   0.079
57026SOL    HW272912   2.533   0.664   0.128
57027SOL     OW72913   2.281   2.931   0.801
57027SOL    HW172914   2.297   2.950   0.893
57027SOL    HW272915   2.368   2.932   0.761
57028SOL     OW72916   5.142   6.327  14.566
57028SOL    HW172917   5.147   6.245  14.515
57028SOL    HW272918   5.048   6.345  14.571
57029SOL     OW72919   0.822   7.483   1.684
57029SOL    HW172920   0.750   7.428   1.651
57029SOL    HW272921   0.901   7.436   1.658
57030SOL     OW72922  11.577   3.169  10.429
57030SOL    HW172923  11.660   3.155  10.475
57030SOL    HW272924  11.557   3.084  10.389
57031SOL     OW72925   4.850   2.715   4.284
57031SOL    HW172926   4.881   2.785   4.341
57031SOL    HW272927   4.822   2.760   4.204
57032SOL     OW72928   7.521   3.862  10.351
57032SOL    HW172929   7.442   3.896  10.309
57032SOL    HW272930   7.539   3.924  10.422
57033SOL     OW72931  14.293  11.111   0.369
57033SOL    HW172932  14.372  11.076   0.329
57033SOL    HW272933  14.259  11.173   0.305
57034SOL     OW72934   7.236   9.585  14.324
57034SOL    HW172935   7.186   9.534  14.388
57034SOL    HW272936   7.279   9.519  14.269
57035SOL     OW72937  12.081   0.532  10.887
57035SOL    HW172938  12.163   0.494  10.857
57035SOL    HW272939  12.026   0.536  10.808
57036SOL     OW72940   0.115  14.578   1.854
57036SOL    HW172941   0.072  14.644   1.799
57036SOL    HW272942   0.068  14.584   1.938
57037SOL     OW72943   4.696   0.204   7.423
57037SOL    HW172944   4.708   0.136   7.356
57037SOL    HW272945   4.773   0.196   7.479
57038SOL     OW72946   7.498   2.659   5.024
57038SOL    HW172947   7.477   2.634   5.114
57038SOL    HW272948   7.587   2.693   5.029
57039SOL     OW72949   5.040  14.427   7.389
57039SOL    HW172950   5.046  14.337   7.357
57039SOL    HW272951   5.128  14.448   7.420
57040SOL     OW72952  14.452   0.132  10.637
57040SOL    HW172953  14.483   0.221  10.621
57040SOL    HW272954  14.506   0.078  10.579
57041SOL     OW72955   2.982  10.893   1.658
57041SOL    HW172956   2.979  10.976   1.704
57041SOL    HW272957   3.064  10.896   1.608
57042SOL     OW72958   3.640   6.685   3.235
57042SOL    HW172959   3.570   6.678   3.170
57042SOL    HW272960   3.624   6.611   3.294
57043SOL     OW72961   4.746  13.277   7.450
57043SOL    HW172962   4.785  13.362   7.471
57043SOL    HW272963   4.779  13.218   7.519
57044SOL     OW72964   3.442   1.350   3.232
57044SOL    HW172965   3.370   1.315   3.284
57044SOL    HW272966   3.493   1.272   3.207
57045SOL     OW72967  13.194   1.434  14.288
57045SOL    HW172968  13.271   1.394  14.247
57045SOL    HW272969  13.205   1.528  14.274
57046SOL     OW72970   5.585   9.934   8.722
57046SOL    HW172971   5.669   9.894   8.746
57046SOL    HW272972   5.522   9.893   8.782
57047SOL     OW72973   1.483   5.664   5.200
57047SOL    HW172974   1.439   5.590   5.244
57047SOL    HW272975   1.510   5.629   5.116
57048SOL     OW72976   1.764  12.289   3.830
57048SOL    HW172977   1.804  12.302   3.744
57048SOL    HW272978   1.773  12.195   3.847
57049SOL     OW72979  13.794   9.538   2.237
57049SOL    HW172980  13.882   9.574   2.248
57049SOL    HW272981  13.740   9.589   2.296
57050SOL     OW72982   9.135  10.911   5.599
57050SOL    HW172983   9.112  10.823   5.570
57050SOL    HW272984   9.056  10.963   5.587
57051SOL     OW72985   1.408   9.158   9.729
57051SOL    HW172986   1.342   9.200   9.784
57051SOL    HW272987   1.450   9.230   9.682
57052SOL     OW72988  11.627   4.266   0.484
57052SOL    HW172989  11.695   4.331   0.503
57052SOL    HW272990  11.675   4.191   0.448
57053SOL     OW72991   1.275  13.663   3.184
57053SOL    HW172992   1.350  13.712   3.218
57053SOL    HW272993   1.232  13.723   3.123
57054SOL     OW72994   0.690   2.491   1.054
57054SOL    HW172995   0.631   2.465   1.124
57054SOL    HW272996   0.775   2.453   1.078
57055SOL     OW72997  13.349   1.512  11.654
57055SOL    HW172998  13.354   1.441  11.591
57055SOL    HW272999  13.386   1.588  11.609
57056SOL     OW73000  12.938   2.662  12.349
57056SOL    HW173001  12.926   2.620  12.434
57056SOL    HW273002  12.998   2.603  12.302
57057SOL     OW73003  12.625   4.026  10.165
57057SOL    HW173004  12.683   3.959  10.201
57057SOL    HW273005  12.565   4.046  10.237
57058SOL     OW73006   8.051  14.314   4.284
57058SOL    HW173007   8.049  14.225   4.249
57058SOL    HW273008   7.975  14.357   4.246
57059SOL     OW73009  14.673  12.331  13.884
57059SOL    HW173010  14.579  12.340  13.870
57059SOL    HW273011  14.711  12.336  13.796
57060SOL     OW73012  12.159  12.411   4.646
57060SOL    HW173013  12.129  12.500   4.668
57060SOL    HW273014  12.234  12.396   4.704
57061SOL     OW73015   3.958  14.543   8.508
57061SOL    HW173016   3.921  14.589   8.433
57061SOL    HW273017   4.023  14.484   8.470
57062SOL     OW73018   9.710  12.751  12.190
57062SOL    HW173019   9.748  12.668  12.163
57062SOL    HW273020   9.751  12.816  12.133
57063SOL     OW73021   6.966  11.367   5.081
57063SOL    HW173022   6.946  11.277   5.057
57063SOL    HW273023   6.928  11.420   5.011
57064SOL     OW73024   1.191   2.083  12.814
57064SOL    HW173025   1.240   2.133  12.878
57064SOL    HW273026   1.258   2.039  12.761
57065SOL     OW73027   2.629   1.407   0.405
57065SOL    HW173028   2.695   1.446   0.350
57065SOL    HW273029   2.629   1.459   0.485
57066SOL     OW73030   4.714   0.013   0.828
57066SOL    HW173031   4.638  14.863   0.774
57066SOL    HW273032   4.787   0.018   0.766
57067SOL     OW73033  11.664  13.394  11.680
57067SOL    HW173034  11.592  13.443  11.640
57067SOL    HW273035  11.638  13.302  11.674
57068SOL     OW73036  14.678  13.870   1.284
57068SOL    HW173037  14.620  13.809   1.329
57068SOL    HW273038  14.671  13.846   1.191
57069SOL     OW73039  12.535   7.777   4.794
57069SOL    HW173040  12.496   7.839   4.856
57069SOL    HW273041  12.515   7.814   4.708
57070SOL     OW73042  14.391  13.545   7.199
57070SOL    HW173043  14.470  13.495   7.217
57070SOL    HW273044  14.335  13.530   7.275
57071SOL     OW73045   5.806   0.785   4.417
57071SOL    HW173046   5.808   0.759   4.325
57071SOL    HW273047   5.757   0.867   4.418
57072SOL     OW73048   5.794   0.119   3.217
57072SOL    HW173049   5.809   0.202   3.262
57072SOL    HW273050   5.787   0.054   3.287
57073SOL     OW73051  12.739   8.640   3.261
57073SOL    HW173052  12.654   8.678   3.284
57073SOL    HW273053  12.734   8.625   3.167
57074SOL     OW73054   7.810   5.264   5.385
57074SOL    HW173055   7.831   5.192   5.445
57074SOL    HW273056   7.730   5.236   5.341
57075SOL     OW73057  12.857   6.526  11.302
57075SOL    HW173058  12.811   6.513  11.385
57075SOL    HW273059  12.927   6.461  11.303
57076SOL     OW73060  12.622   5.398  13.563
57076SOL    HW173061  12.622   5.338  13.638
57076SOL    HW273062  12.544   5.373  13.513
57077SOL     OW73063   7.647   2.448   5.372
57077SOL    HW173064   7.613   2.453   5.461
57077SOL    HW273065   7.592   2.508   5.322
57078SOL     OW73066   9.064   4.230   6.075
57078SOL    HW173067   9.069   4.143   6.114
57078SOL    HW273068   9.113   4.222   5.993
57079SOL     OW73069  10.310   5.368  11.052
57079SOL    HW173070  10.356   5.438  11.100
57079SOL    HW273071  10.372   5.340  10.986
57080SOL     OW73072   6.627   7.624   2.176
57080SOL    HW173073   6.666   7.640   2.091
57080SOL    HW273074   6.701   7.617   2.236
57081SOL     OW73075   2.152  12.611  11.785
57081SOL    HW173076   2.167  12.528  11.740
57081SOL    HW273077   2.176  12.594  11.876
57082SOL     OW73078   8.128   0.394   2.203
57082SOL    HW173079   8.037   0.407   2.229
57082SOL    HW273080   8.142   0.300   2.212
57083SOL     OW73081  11.314   1.068   2.565
57083SOL    HW173082  11.269   1.145   2.531
57083SOL    HW273083  11.397   1.102   2.599
57084SOL     OW73084   6.367   5.168   3.812
57084SOL    HW173085   6.333   5.096   3.865
57084SOL    HW273086   6.347   5.246   3.863
57085SOL     OW73087   3.439   3.749   2.717
57085SOL    HW173088   3.447   3.671   2.771
57085SOL    HW273089   3.385   3.809   2.769
57086SOL     OW73090   5.983   7.653   4.407
57086SOL    HW173091   5.981   7.735   4.359
57086SOL    HW273092   5.997   7.678   4.498
57087SOL     OW73093   7.843   1.136  13.538
57087SOL    HW173094   7.817   1.047  13.518
57087SOL    HW273095   7.841   1.141  13.633
57088SOL     OW73096   7.363   2.547  14.478
57088SOL    HW173097   7.444   2.575  14.521
57088SOL    HW273098   7.293   2.580  14.535
57089SOL     OW73099  13.407   9.852   5.379
57089SOL    HW173100  13.460   9.885   5.452
57089SOL    HW273101  13.318   9.881   5.399
57090SOL     OW73102   5.194   6.415  11.516
57090SOL    HW173103   5.147   6.492  11.548
57090SOL    HW273104   5.228   6.442  11.431
57091SOL     OW73105  10.689   5.742   5.826
57091SOL    HW173106  10.720   5.711   5.741
57091SOL    HW273107  10.595   5.726   5.825
57092SOL     OW73108   4.654   3.955  12.813
57092SOL    HW173109   4.616   4.042  12.825
57092SOL    HW273110   4.728   3.970  12.754
57093SOL     OW73111   1.704   1.843   1.501
57093SOL    HW173112   1.715   1.749   1.515
57093SOL    HW273113   1.638   1.848   1.432
57094SOL     OW73114  14.053   3.491   9.542
57094SOL    HW173115  14.086   3.581   9.533
57094SOL    HW273116  13.999   3.478   9.464
57095SOL     OW73117   6.702   6.484   6.791
57095SOL    HW173118   6.684   6.422   6.862
57095SOL    HW273119   6.621   6.534   6.783
57096SOL     OW73120   7.137   2.610  14.288
57096SOL    HW173121   7.163   2.702  14.284
57096SOL    HW273122   7.219   2.563  14.302
57097SOL     OW73123   4.135  12.548   4.340
57097SOL    HW173124   4.111  12.473   4.396
57097SOL    HW273125   4.071  12.615   4.362
57098SOL     OW73126  13.942  12.325  11.699
57098SOL    HW173127  13.861  12.280  11.677
57098SOL    HW273128  14.010  12.278  11.652
57099SOL     OW73129   9.898   7.454  13.903
57099SOL    HW173130   9.896   7.445  13.807
57099SOL    HW273131   9.833   7.522  13.921
57100SOL     OW73132   1.588  13.375  14.261
57100SOL    HW173133   1.598  13.471  14.265
57100SOL    HW273134   1.583  13.356  14.167
57101SOL     OW73135   6.027   1.549   2.721
57101SOL    HW173136   5.940   1.584   2.741
57101SOL    HW273137   6.041   1.571   2.629
57102SOL     OW73138   1.198  12.549   7.320
57102SOL    HW173139   1.103  12.539   7.316
57102SOL    HW273140   1.222  12.577   7.231
57103SOL     OW73141  10.330  11.898   2.858
57103SOL    HW173142  10.359  11.913   2.768
57103SOL    HW273143  10.361  11.974   2.907
57104SOL     OW73144   8.889  13.353  13.177
57104SOL    HW173145   8.851  13.283  13.230
57104SOL    HW273146   8.981  13.358  13.205
57105SOL     OW73147   1.515  10.822   0.764
57105SOL    HW173148   1.577  10.811   0.836
57105SOL    HW273149   1.438  10.773   0.792
57106SOL     OW73150   8.361  13.169  10.155
57106SOL    HW173151   8.360  13.162  10.251
57106SOL    HW273152   8.395  13.256  10.138
57107SOL     OW73153  14.265  11.407   1.873
57107SOL    HW173154  14.271  11.410   1.778
57107SOL    HW273155  14.341  11.355   1.901
57108SOL     OW73156   2.707   0.016  12.298
57108SOL    HW173157   2.701  14.871  12.392
57108SOL    HW273158   2.719  14.803  12.258
57109SOL     OW73159  11.345   4.481   9.790
57109SOL    HW173160  11.309   4.399   9.755
57109SOL    HW273161  11.411   4.453   9.854
57110SOL     OW73162  12.878   4.176  13.396
57110SOL    HW173163  12.877   4.271  13.407
57110SOL    HW273164  12.949   4.160  13.334
57111SOL     OW73165  13.860   9.086   2.721
57111SOL    HW173166  13.943   9.093   2.674
57111SOL    HW273167  13.793   9.095   2.652
57112SOL     OW73168   2.083  14.255   9.986
57112SOL    HW173169   2.172  14.232   9.957
57112SOL    HW273170   2.025  14.204   9.929
57113SOL     OW73171   4.455  11.839   1.086
57113SOL    HW173172   4.509  11.773   1.130
57113SOL    HW273173   4.500  11.922   1.102
57114SOL     OW73174   6.325  13.144   8.773
57114SOL    HW173175   6.247  13.104   8.812
57114SOL    HW273176   6.324  13.115   8.682
57115SOL     OW73177   7.476   8.147   5.360
57115SOL    HW173178   7.485   8.214   5.428
57115SOL    HW273179   7.484   8.196   5.278
57116SOL     OW73180   0.131   0.430   0.187
57116SOL    HW173181   0.096   0.342   0.180
57116SOL    HW273182   0.153   0.440   0.279
57117SOL     OW73183  10.023  13.284   6.876
57117SOL    HW173184  10.060  13.371   6.893
57117SOL    HW273185   9.935  13.288   6.913
57118SOL     OW73186  12.335  12.425   0.369
57118SOL    HW173187  12.316  12.344   0.416
57118SOL    HW273188  12.353  12.489   0.438
57119SOL     OW73189   0.795  12.693  12.773
57119SOL    HW173190   0.705  12.711  12.800
57119SOL    HW273191   0.787  12.656  12.685
57120SOL     OW73192   5.284   7.700   6.531
57120SOL    HW173193   5.333   7.645   6.593
57120SOL    HW273194   5.216   7.741   6.585
57121SOL     OW73195  10.939   0.726   6.315
57121SOL    HW173196  10.853   0.766   6.320
57121SOL    HW273197  10.929   0.654   6.254
57122SOL     OW73198   4.425  14.118   7.615
57122SOL    HW173199   4.356  14.183   7.599
57122SOL    HW273200   4.409  14.087   7.704
57123SOL     OW73201  13.444   1.234  11.318
57123SOL    HW173202  13.537   1.217  11.302
57123SOL    HW273203  13.401   1.152  11.294
57124SOL     OW73204   2.849   2.720   9.736
57124SOL    HW173205   2.833   2.732   9.829
57124SOL    HW273206   2.942   2.741   9.725
57125SOL     OW73207   3.952  11.029   6.292
57125SOL    HW173208   3.987  11.089   6.357
57125SOL    HW273209   3.868  11.001   6.328
57126SOL     OW73210   3.513   0.366  10.585
57126SOL    HW173211   3.429   0.352  10.628
57126SOL    HW273212   3.500   0.336  10.496
57127SOL     OW73213   8.540   7.433   1.115
57127SOL    HW173214   8.583   7.392   1.190
57127SOL    HW273215   8.566   7.380   1.040
57128SOL     OW73216   1.448   5.592   5.943
57128SOL    HW173217   1.514   5.635   5.997
57128SOL    HW273218   1.401   5.663   5.900
57129SOL     OW73219  13.633  12.312   0.558
57129SOL    HW173220  13.654  12.281   0.646
57129SOL    HW273221  13.689  12.390   0.546
57130SOL     OW73222  11.591  12.238   3.395
57130SOL    HW173223  11.517  12.228   3.455
57130SOL    HW273224  11.640  12.156   3.404
57131SOL     OW73225   0.807   2.457   6.263
57131SOL    HW173226   0.775   2.368   6.253
57131SOL    HW273227   0.853   2.476   6.181
57132SOL     OW73228   4.065   8.957  14.370
57132SOL    HW173229   4.116   8.877  14.374
57132SOL    HW273230   4.004   8.951  14.444
57133SOL     OW73231   9.166   4.469   0.096
57133SOL    HW173232   9.205   4.552   0.068
57133SOL    HW273233   9.072   4.482   0.086
57134SOL     OW73234   2.466   4.896   0.279
57134SOL    HW173235   2.535   4.897   0.345
57134SOL    HW273236   2.459   4.805   0.252
57135SOL     OW73237   4.952   7.965   4.357
57135SOL    HW173238   4.895   8.029   4.399
57135SOL    HW273239   4.932   7.972   4.264
57136SOL     OW73240   4.056   8.858   6.199
57136SOL    HW173241   4.138   8.815   6.221
57136SOL    HW273242   3.989   8.805   6.243
57137SOL     OW73243   4.025   2.527  13.317
57137SOL    HW173244   4.083   2.461  13.355
57137SOL    HW273245   3.937   2.494  13.334
57138SOL     OW73246   8.650   6.954   1.780
57138SOL    HW173247   8.740   6.928   1.799
57138SOL    HW273248   8.612   6.976   1.866
57139SOL     OW73249  13.304   1.240   5.207
57139SOL    HW173250  13.235   1.247   5.141
57139SOL    HW273251  13.279   1.164   5.260
57140SOL     OW73252   3.894   2.099   6.048
57140SOL    HW173253   3.830   2.044   6.002
57140SOL    HW273254   3.904   2.176   5.992
57141SOL     OW73255   5.800  13.589   0.705
57141SOL    HW173256   5.722  13.631   0.740
57141SOL    HW273257   5.771  13.503   0.676
57142SOL     OW73258   3.970   1.559   4.028
57142SOL    HW173259   3.995   1.619   4.099
57142SOL    HW273260   3.875   1.567   4.022
57143SOL     OW73261   9.120  11.215  13.517
57143SOL    HW173262   9.153  11.150  13.579
57143SOL    HW273263   9.199  11.249  13.475
57144SOL     OW73264  11.540   8.203   7.845
57144SOL    HW173265  11.456   8.198   7.891
57144SOL    HW273266  11.588   8.126   7.875
57145SOL     OW73267   7.366   8.498   7.079
57145SOL    HW173268   7.326   8.460   7.157
57145SOL    HW273269   7.320   8.457   7.006
57146SOL     OW73270   4.688   6.860  14.838
57146SOL    HW173271   4.621   6.815  14.787
57146SOL    HW273272   4.677   6.825   0.054
57147SOL     OW73273   7.518   3.998   6.830
57147SOL    HW173274   7.543   4.032   6.916
57147SOL    HW273275   7.446   3.937   6.848
57148SOL     OW73276   5.404  14.394   1.818
57148SOL    HW173277   5.349  14.325   1.781
57148SOL    HW273278   5.444  14.436   1.742
57149SOL     OW73279   3.349   9.589   1.988
57149SOL    HW173280   3.307   9.534   2.054
57149SOL    HW273281   3.431   9.617   2.029
57150SOL     OW73282   6.544   7.321  12.587
57150SOL    HW173283   6.510   7.271  12.661
57150SOL    HW273284   6.585   7.256  12.530
57151SOL     OW73285  14.806   0.673   2.811
57151SOL    HW173286  14.773   0.598   2.763
57151SOL    HW273287  14.863   0.718   2.748
57152SOL     OW73288   0.605   7.783  12.601
57152SOL    HW173289   0.585   7.722  12.531
57152SOL    HW273290   0.595   7.870  12.561
57153SOL     OW73291   9.433   9.568   9.096
57153SOL    HW173292   9.475   9.654   9.097
57153SOL    HW273293   9.352   9.580   9.145
57154SOL     OW73294   7.876  14.323   6.871
57154SOL    HW173295   7.886  14.375   6.791
57154SOL    HW273296   7.890  14.233   6.843
57155SOL     OW73297   3.124   5.573   7.847
57155SOL    HW173298   3.131   5.668   7.856
57155SOL    HW273299   3.212   5.540   7.865
57156SOL     OW73300   4.172   4.815   3.180
57156SOL    HW173301   4.246   4.759   3.157
57156SOL    HW273302   4.195   4.900   3.142
57157SOL     OW73303  13.129   0.565   0.043
57157SOL    HW173304  13.058   0.608   0.092
57157SOL    HW273305  13.084   0.503  14.859
57158SOL     OW73306  10.186   0.605  11.416
57158SOL    HW173307  10.169   0.616  11.322
57158SOL    HW273308  10.100   0.618  11.457
57159SOL     OW73309   4.923   1.228   0.355
57159SOL    HW173310   5.002   1.279   0.337
57159SOL    HW273311   4.921   1.220   0.450
57160SOL     OW73312  10.450   7.570   7.753
57160SOL    HW173313  10.410   7.513   7.687
57160SOL    HW273314  10.530   7.603   7.712
57161SOL     OW73315   6.727  13.514   2.944
57161SOL    HW173316   6.814  13.551   2.958
57161SOL    HW273317   6.685  13.516   3.030
57162SOL     OW73318  14.295  11.458   0.199
57162SOL    HW173319  14.223  11.396   0.184
57162SOL    HW273320  14.300  11.509   0.118
57163SOL     OW73321   0.137  14.643  10.663
57163SOL    HW173322   0.151  14.656  10.569
57163SOL    HW273323   0.042  14.641  10.673
57164SOL     OW73324  10.460   6.017  13.425
57164SOL    HW173325  10.526   5.990  13.489
57164SOL    HW273326  10.436   6.106  13.451
57165SOL     OW73327  13.481   8.750  10.480
57165SOL    HW173328  13.562   8.774  10.525
57165SOL    HW273329  13.416   8.746  10.549
57166SOL     OW73330  14.481   7.727   2.140
57166SOL    HW173331  14.567   7.762   2.162
57166SOL    HW273332  14.492   7.632   2.144
57167SOL     OW73333   2.962   2.238  12.937
57167SOL    HW173334   3.016   2.264  13.011
57167SOL    HW273335   2.924   2.320  12.905
57168SOL     OW73336  11.766   1.548  12.946
57168SOL    HW173337  11.724   1.487  12.886
57168SOL    HW273338  11.752   1.510  13.033
57169SOL     OW73339   5.779   9.037  14.243
57169SOL    HW173340   5.762   8.946  14.268
57169SOL    HW273341   5.692   9.073  14.225
57170SOL     OW73342   4.313  12.491  11.775
57170SOL    HW173343   4.387  12.551  11.785
57170SOL    HW273344   4.247  12.544  11.730
57171SOL     OW73345  14.692   7.889  13.818
57171SOL    HW173346  14.781   7.885  13.853
57171SOL    HW273347  14.636   7.865  13.892
57172SOL     OW73348   7.531   5.697   0.758
57172SOL    HW173349   7.501   5.782   0.724
57172SOL    HW273350   7.616   5.684   0.717
57173SOL     OW73351  11.768  13.601  10.846
57173SOL    HW173352  11.840  13.622  10.905
57173SOL    HW273353  11.793  13.517  10.806
57174SOL     OW73354   1.495   2.853   4.153
57174SOL    HW173355   1.520   2.913   4.224
57174SOL    HW273356   1.409   2.820   4.179
57175SOL     OW73357   8.723   0.856  10.732
57175SOL    HW173358   8.692   0.904  10.656
57175SOL    HW273359   8.777   0.919  10.780
57176SOL     OW73360   7.853   6.199   9.860
57176SOL    HW173361   7.843   6.154   9.776
57176SOL    HW273362   7.765   6.198   9.898
57177SOL     OW73363   0.148   4.462  11.495
57177SOL    HW173364   0.114   4.513  11.569
57177SOL    HW273365   0.081   4.394  11.481
57178SOL     OW73366   1.306   2.723  14.732
57178SOL    HW173367   1.230   2.729  14.790
57178SOL    HW273368   1.329   2.814  14.713
57179SOL     OW73369   8.559  13.610   6.078
57179SOL    HW173370   8.572  13.531   6.131
57179SOL    HW273371   8.466  13.609   6.056
57180SOL     OW73372  11.707   1.034   4.370
57180SOL    HW173373  11.788   0.986   4.350
57180SOL    HW273374  11.679   0.999   4.454
57181SOL     OW73375   7.300   1.343   3.729
57181SOL    HW173376   7.328   1.254   3.751
57181SOL    HW273377   7.360   1.400   3.776
57182SOL     OW73378  10.107  10.463   0.723
57182SOL    HW173379  10.168  10.536   0.713
57182SOL    HW273380  10.147  10.409   0.791
57183SOL     OW73381  11.932  13.709   3.427
57183SOL    HW173382  11.957  13.784   3.372
57183SOL    HW273383  11.991  13.712   3.502
57184SOL     OW73384   4.181   4.283  13.506
57184SOL    HW173385   4.273   4.280  13.532
57184SOL    HW273386   4.171   4.211  13.444
57185SOL     OW73387   6.021   6.192   1.523
57185SOL    HW173388   6.048   6.230   1.606
57185SOL    HW273389   6.043   6.100   1.529
57186SOL     OW73390   1.649   8.211   7.214
57186SOL    HW173391   1.719   8.150   7.195
57186SOL    HW273392   1.587   8.200   7.142
57187SOL     OW73393   8.699  14.085  13.644
57187SOL    HW173394   8.632  14.151  13.662
57187SOL    HW273395   8.717  14.093  13.550
57188SOL     OW73396   6.583   7.838  13.047
57188SOL    HW173397   6.566   7.861  13.138
57188SOL    HW273398   6.497   7.813  13.012
57189SOL     OW73399  11.447   9.589   8.166
57189SOL    HW173400  11.408   9.507   8.199
57189SOL    HW273401  11.504   9.619   8.238
57190SOL     OW73402   5.261   4.643   1.632
57190SOL    HW173403   5.242   4.575   1.568
57190SOL    HW273404   5.175   4.673   1.662
57191SOL     OW73405   8.941   5.179   8.100
57191SOL    HW173406   8.972   5.122   8.030
57191SOL    HW273407   8.955   5.268   8.067
57192SOL     OW73408  10.946   4.707   1.511
57192SOL    HW173409  11.007   4.705   1.584
57192SOL    HW273410  10.867   4.664   1.543
57193SOL     OW73411   4.547   4.389  14.763
57193SOL    HW173412   4.460   4.422  14.784
57193SOL    HW273413   4.596   4.396  14.845
57194SOL     OW73414   9.212   2.431   0.831
57194SOL    HW173415   9.118   2.446   0.826
57194SOL    HW273416   9.245   2.458   0.745
57195SOL     OW73417   2.591   6.462   7.730
57195SOL    HW173418   2.642   6.433   7.654
57195SOL    HW273419   2.509   6.414   7.724
57196SOL     OW73420   0.104  10.607  13.337
57196SOL    HW173421   0.138  10.649  13.258
57196SOL    HW273422   0.155  10.526  13.345
57197SOL     OW73423  10.874   0.762  13.142
57197SOL    HW173424  10.894   0.738  13.051
57197SOL    HW273425  10.929   0.838  13.160
57198SOL     OW73426   9.744   0.939  12.652
57198SOL    HW173427   9.717   1.026  12.623
57198SOL    HW273428   9.687   0.879  12.602
57199SOL     OW73429   3.824   4.024   4.943
57199SOL    HW173430   3.800   3.971   4.867
57199SOL    HW273431   3.757   4.093   4.946
57200SOL     OW73432  13.339   0.079  12.626
57200SOL    HW173433  13.402   0.009  12.640
57200SOL    HW273434  13.344   0.133  12.704
57201SOL     OW73435   1.944   5.876  13.231
57201SOL    HW173436   2.036   5.852  13.243
57201SOL    HW273437   1.908   5.880  13.320
57202SOL     OW73438  12.826   4.515   6.898
57202SOL    HW173439  12.917   4.533   6.872
57202SOL    HW273440  12.811   4.425   6.870
57203SOL     OW73441   2.338  13.647   0.153
57203SOL    HW173442   2.349  13.709   0.225
57203SOL    HW273443   2.319  13.564   0.196
57204SOL     OW73444   2.192   1.159   2.842
57204SOL    HW173445   2.117   1.155   2.782
57204SOL    HW273446   2.231   1.072   2.837
57205SOL     OW73447  12.481  10.281   1.637
57205SOL    HW173448  12.476  10.376   1.632
57205SOL    HW273449  12.391  10.251   1.629
57206SOL     OW73450  12.500   6.458   5.875
57206SOL    HW173451  12.425   6.399   5.886
57206SOL    HW273452  12.484   6.529   5.937
57207SOL     OW73453   1.954   3.463   4.517
57207SOL    HW173454   1.934   3.369   4.521
57207SOL    HW273455   1.958   3.482   4.423
57208SOL     OW73456   1.318   7.624   0.349
57208SOL    HW173457   1.238   7.590   0.310
57208SOL    HW273458   1.299   7.632   0.442
57209SOL     OW73459   9.243   2.433  11.305
57209SOL    HW173460   9.215   2.524  11.309
57209SOL    HW273461   9.195   2.390  11.376
57210SOL     OW73462   9.017  11.518   3.006
57210SOL    HW173463   9.096  11.466   2.994
57210SOL    HW273464   9.018  11.581   2.934
57211SOL     OW73465   9.455  12.522   8.288
57211SOL    HW173466   9.535  12.528   8.237
57211SOL    HW273467   9.483  12.535   8.379
57212SOL     OW73468  10.508   6.039   4.654
57212SOL    HW173469  10.533   6.114   4.600
57212SOL    HW273470  10.578   6.029   4.718
57213SOL     OW73471  14.262   7.654  10.685
57213SOL    HW173472  14.298   7.742  10.690
57213SOL    HW273473  14.167   7.667  10.679
57214SOL     OW73474   6.653   4.639   7.840
57214SOL    HW173475   6.675   4.547   7.827
57214SOL    HW273476   6.733   4.679   7.872
57215SOL     OW73477  10.952  10.153   6.184
57215SOL    HW173478  10.958  10.081   6.247
57215SOL    HW273479  10.860  10.177   6.183
57216SOL     OW73480   1.889  14.162   6.751
57216SOL    HW173481   1.940  14.176   6.671
57216SOL    HW273482   1.930  14.219   6.816
57217SOL     OW73483   4.250   4.031  10.423
57217SOL    HW173484   4.197   3.952  10.436
57217SOL    HW273485   4.325   4.020  10.481
57218SOL     OW73486   3.210  14.868   3.331
57218SOL    HW173487   3.237  14.777   3.340
57218SOL    HW273488   3.124  14.864   3.290
57219SOL     OW73489   7.857   6.809   9.767
57219SOL    HW173490   7.846   6.730   9.820
57219SOL    HW273491   7.863   6.778   9.677
57220SOL     OW73492  10.175   3.849  14.497
57220SOL    HW173493  10.260   3.888  14.519
57220SOL    HW273494  10.110   3.909  14.534
57221SOL     OW73495   7.506   8.688   1.096
57221SOL    HW173496   7.577   8.752   1.094
57221SOL    HW273497   7.429   8.737   1.067
57222SOL     OW73498   9.293  10.585  13.795
57222SOL    HW173499   9.267  10.497  13.765
57222SOL    HW273500   9.305  10.575  13.890
57223SOL     OW73501   8.251   9.634   3.570
57223SOL    HW173502   8.290   9.577   3.504
57223SOL    HW273503   8.164   9.654   3.536
57224SOL     OW73504  13.951   2.938   4.714
57224SOL    HW173505  13.894   2.997   4.664
57224SOL    HW273506  14.016   2.995   4.754
57225SOL     OW73507   7.259   3.573   1.764
57225SOL    HW173508   7.264   3.552   1.671
57225SOL    HW273509   7.209   3.501   1.802
57226SOL     OW73510   0.647   0.150   8.971
57226SOL    HW173511   0.582   0.171   9.038
57226SOL    HW273512   0.728   0.190   9.003
57227SOL     OW73513   9.620   5.919  11.196
57227SOL    HW173514   9.639   5.922  11.102
57227SOL    HW273515   9.639   5.829  11.221
57228SOL     OW73516   0.926  11.447   8.293
57228SOL    HW173517   1.008  11.496   8.283
57228SOL    HW273518   0.935  11.402   8.377
57229SOL     OW73519   7.320  12.596  12.431
57229SOL    HW173520   7.386  12.550  12.379
57229SOL    HW273521   7.270  12.526  12.473
57230SOL     OW73522   7.071   4.555  11.111
57230SOL    HW173523   7.079   4.492  11.039
57230SOL    HW273524   7.034   4.504  11.183
57231SOL     OW73525   0.936   8.974   1.638
57231SOL    HW173526   0.950   9.066   1.659
57231SOL    HW273527   0.979   8.926   1.709
57232SOL     OW73528   2.327   5.200   3.399
57232SOL    HW173529   2.257   5.140   3.424
57232SOL    HW273530   2.302   5.232   3.312
57233SOL     OW73531   0.531   8.829   4.494
57233SOL    HW173532   0.440   8.800   4.502
57233SOL    HW273533   0.583   8.749   4.496
57234SOL     OW73534   2.763   1.470  14.720
57234SOL    HW173535   2.721   1.389  14.688
57234SOL    HW273536   2.800   1.510  14.642
57235SOL     OW73537   6.190  12.828  11.358
57235SOL    HW173538   6.187  12.733  11.350
57235SOL    HW273539   6.283  12.847  11.370
57236SOL     OW73540   9.183   6.842   3.240
57236SOL    HW173541   9.219   6.906   3.178
57236SOL    HW273542   9.088   6.857   3.237
57237SOL     OW73543   0.410   6.321   9.416
57237SOL    HW173544   0.459   6.365   9.347
57237SOL    HW273545   0.388   6.236   9.380
57238SOL     OW73546   4.568   7.279  13.467
57238SOL    HW173547   4.500   7.304  13.529
57238SOL    HW273548   4.560   7.342  13.395
57239SOL     OW73549   3.031   2.497   2.650
57239SOL    HW173550   3.062   2.582   2.620
57239SOL    HW273551   3.073   2.434   2.592
57240SOL     OW73552   0.281   4.168   3.539
57240SOL    HW173553   0.271   4.262   3.520
57240SOL    HW273554   0.297   4.128   3.454
57241SOL     OW73555   1.689   9.408   4.698
57241SOL    HW173556   1.646   9.365   4.624
57241SOL    HW273557   1.729   9.487   4.660
57242SOL     OW73558   3.378  13.567  12.860
57242SOL    HW173559   3.434  13.516  12.801
57242SOL    HW273560   3.319  13.502  12.898
57243SOL     OW73561   6.358  12.252  14.866
57243SOL    HW173562   6.263  12.251  14.861
57243SOL    HW273563   6.386  12.191  14.797
57244SOL     OW73564   6.022   2.507  10.620
57244SOL    HW173565   6.011   2.464  10.536
57244SOL    HW273566   5.980   2.593  10.609
57245SOL     OW73567   0.420  13.331   3.514
57245SOL    HW173568   0.428  13.238   3.533
57245SOL    HW273569   0.510  13.364   3.517
57246SOL     OW73570   4.406  11.298   3.539
57246SOL    HW173571   4.454  11.339   3.611
57246SOL    HW273572   4.444  11.336   3.460
57247SOL     OW73573  13.305   1.594   5.139
57247SOL    HW173574  13.330   1.619   5.050
57247SOL    HW273575  13.376   1.539   5.170
57248SOL     OW73576   1.225   5.729   6.142
57248SOL    HW173577   1.246   5.783   6.065
57248SOL    HW273578   1.261   5.643   6.121
57249SOL     OW73579   5.294  11.548   0.070
57249SOL    HW173580   5.351  11.569   0.144
57249SOL    HW273581   5.267  11.457   0.085
57250SOL     OW73582   2.982  12.543   5.977
57250SOL    HW173583   2.901  12.506   6.011
57250SOL    HW273584   3.030  12.572   6.055
57251SOL     OW73585   5.050  13.792   8.262
57251SOL    HW173586   5.083  13.820   8.176
57251SOL    HW273587   5.027  13.874   8.306
57252SOL     OW73588   1.341   0.303   5.517
57252SOL    HW173589   1.414   0.347   5.560
57252SOL    HW273590   1.293   0.373   5.473
57253SOL     OW73591   6.405   6.078   6.955
57253SOL    HW173592   6.321   6.090   6.911
57253SOL    HW273593   6.470   6.090   6.886
57254SOL     OW73594  10.580   5.899  12.768
57254SOL    HW173595  10.493   5.939  12.776
57254SOL    HW273596  10.570   5.812  12.807
57255SOL     OW73597   7.837   5.192   8.113
57255SOL    HW173598   7.757   5.244   8.107
57255SOL    HW273599   7.905   5.249   8.077
57256SOL     OW73600   2.231   7.240  13.386
57256SOL    HW173601   2.308   7.183  13.385
57256SOL    HW273602   2.212   7.256  13.293
57257SOL     OW73603  12.700   4.117   0.016
57257SOL    HW173604  12.780   4.066   0.010
57257SOL    HW273605  12.721   4.201  14.850
57258SOL     OW73606   8.324  11.252   4.147
57258SOL    HW173607   8.229  11.262   4.143
57258SOL    HW273608   8.358  11.338   4.125
57259SOL     OW73609   9.127  11.291  14.733
57259SOL    HW173610   9.066  11.223  14.763
57259SOL    HW273611   9.082  11.373  14.751
57260SOL     OW73612   0.344  14.609   8.789
57260SOL    HW173613   0.295  14.656   8.721
57260SOL    HW273614   0.384  14.679   8.841
57261SOL     OW73615   6.703   6.847   6.939
57261SOL    HW173616   6.626   6.802   6.974
57261SOL    HW273617   6.677   6.877   6.852
57262SOL     OW73618  14.038  13.534   8.003
57262SOL    HW173619  14.083  13.552   8.085
57262SOL    HW273620  14.015  13.620   7.968
57263SOL     OW73621   0.038   4.611  12.975
57263SOL    HW173622   0.126   4.576  12.963
57263SOL    HW273623  14.868   4.550  13.036
57264SOL     OW73624   7.178  12.855   6.077
57264SOL    HW173625   7.202  12.820   6.163
57264SOL    HW273626   7.090  12.819   6.061
57265SOL     OW73627   3.296   4.257   9.946
57265SOL    HW173628   3.281   4.188  10.010
57265SOL    HW273629   3.208   4.276   9.912
57266SOL     OW73630  14.344   8.483   8.785
57266SOL    HW173631  14.361   8.460   8.876
57266SOL    HW273632  14.252   8.511   8.785
57267SOL     OW73633  13.319   7.684   6.572
57267SOL    HW173634  13.303   7.695   6.479
57267SOL    HW273635  13.239   7.715   6.614
57268SOL     OW73636  13.033  11.001  13.531
57268SOL    HW173637  13.042  11.040  13.444
57268SOL    HW273638  13.118  10.960  13.547
57269SOL     OW73639   7.391  14.789   5.382
57269SOL    HW173640   7.439  14.715   5.420
57269SOL    HW273641   7.459  14.853   5.361
57270SOL     OW73642   0.426   1.829   4.939
57270SOL    HW173643   0.479   1.861   5.013
57270SOL    HW273644   0.480   1.761   4.899
57271SOL     OW73645   8.303   7.795   0.644
57271SOL    HW173646   8.330   7.782   0.553
57271SOL    HW273647   8.232   7.732   0.657
57272SOL     OW73648   2.778  12.152  14.388
57272SOL    HW173649   2.788  12.138  14.294
57272SOL    HW273650   2.683  12.152  14.401
57273SOL     OW73651   1.042   1.891   0.567
57273SOL    HW173652   1.048   1.805   0.608
57273SOL    HW273653   0.978   1.880   0.497
57274SOL     OW73654  14.653  12.310   9.822
57274SOL    HW173655  14.685  12.223   9.796
57274SOL    HW273656  14.720  12.370   9.791
57275SOL     OW73657   1.474   1.911   5.319
57275SOL    HW173658   1.540   1.949   5.260
57275SOL    HW273659   1.522   1.844   5.368
57276SOL     OW73660  14.250   2.444  13.489
57276SOL    HW173661  14.205   2.515  13.535
57276SOL    HW273662  14.343   2.466  13.496
57277SOL     OW73663   6.224   5.444   4.796
57277SOL    HW173664   6.148   5.395   4.827
57277SOL    HW273665   6.207   5.459   4.703
57278SOL     OW73666  13.335   0.742  12.601
57278SOL    HW173667  13.274   0.745  12.675
57278SOL    HW273668  13.280   0.724  12.525
57279SOL     OW73669   9.257  12.232   3.802
57279SOL    HW173670   9.213  12.256   3.883
57279SOL    HW273671   9.338  12.284   3.803
57280SOL     OW73672   1.879   0.380   2.328
57280SOL    HW173673   1.864   0.286   2.341
57280SOL    HW273674   1.932   0.406   2.404
57281SOL     OW73675   8.312   1.505   7.171
57281SOL    HW173676   8.288   1.461   7.090
57281SOL    HW273677   8.255   1.467   7.237
57282SOL     OW73678  11.440   1.004   2.010
57282SOL    HW173679  11.428   1.072   1.943
57282SOL    HW273680  11.435   1.052   2.093
57283SOL     OW73681   0.609   4.738   4.558
57283SOL    HW173682   0.527   4.780   4.529
57283SOL    HW273683   0.586   4.647   4.573
57284SOL     OW73684   1.611   0.235   7.715
57284SOL    HW173685   1.602   0.271   7.627
57284SOL    HW273686   1.568   0.300   7.771
57285SOL     OW73687  11.301   7.855  10.608
57285SOL    HW173688  11.307   7.914  10.683
57285SOL    HW273689  11.353   7.897  10.539
57286SOL     OW73690   7.901  12.612   1.436
57286SOL    HW173691   7.872  12.553   1.367
57286SOL    HW273692   7.873  12.699   1.407
57287SOL     OW73693   9.024  11.152   3.544
57287SOL    HW173694   9.115  11.123   3.543
57287SOL    HW273695   8.973  11.071   3.540
57288SOL     OW73696  11.001  10.192   9.630
57288SOL    HW173697  10.975  10.210   9.540
57288SOL    HW273698  11.086  10.148   9.622
57289SOL     OW73699   5.398   2.199   5.268
57289SOL    HW173700   5.447   2.126   5.230
57289SOL    HW273701   5.462   2.246   5.322
57290SOL     OW73702   5.129   3.521   2.052
57290SOL    HW173703   5.143   3.597   1.995
57290SOL    HW273704   5.082   3.458   1.997
57291SOL     OW73705  10.400   9.470   3.732
57291SOL    HW173706  10.321   9.522   3.720
57291SOL    HW273707  10.406   9.457   3.827
57292SOL     OW73708   8.065   9.840  14.541
57292SOL    HW173709   8.088   9.824  14.449
57292SOL    HW273710   8.047   9.753  14.576
57293SOL     OW73711  14.418   6.918   6.687
57293SOL    HW173712  14.421   6.902   6.781
57293SOL    HW273713  14.481   6.989   6.673
57294SOL     OW73714  10.729   8.211   5.245
57294SOL    HW173715  10.773   8.288   5.280
57294SOL    HW273716  10.780   8.137   5.278
57295SOL     OW73717   9.723   7.946   1.645
57295SOL    HW173718   9.641   7.942   1.597
57295SOL    HW273719   9.746   7.854   1.661
57296SOL     OW73720   5.947   4.197   0.296
57296SOL    HW173721   5.941   4.121   0.353
57296SOL    HW273722   5.879   4.183   0.230
57297SOL     OW73723   7.002   3.549   1.292
57297SOL    HW173724   6.954   3.613   1.344
57297SOL    HW273725   6.937   3.484   1.267
57298SOL     OW73726  14.561  12.142  13.418
57298SOL    HW173727  14.501  12.089  13.470
57298SOL    HW273728  14.506  12.213  13.383
57299SOL     OW73729  13.949   6.993  10.068
57299SOL    HW173730  13.869   6.945  10.089
57299SOL    HW273731  13.918   7.076  10.033
57300SOL     OW73732   8.543  10.175   8.407
57300SOL    HW173733   8.612  10.218   8.357
57300SOL    HW273734   8.587  10.141   8.485
57301SOL     OW73735   6.528  10.458   9.198
57301SOL    HW173736   6.619  10.447   9.225
57301SOL    HW273737   6.497  10.532   9.250
57302SOL     OW73738  14.630  14.396   8.601
57302SOL    HW173739  14.712  14.393   8.551
57302SOL    HW273740  14.615  14.305   8.628
57303SOL     OW73741  12.546   7.374   4.333
57303SOL    HW173742  12.488   7.330   4.395
57303SOL    HW273743  12.590   7.303   4.287
57304SOL     OW73744   8.476   0.727   2.544
57304SOL    HW173745   8.445   0.661   2.482
57304SOL    HW273746   8.473   0.683   2.629
57305SOL     OW73747   5.373  12.623   2.878
57305SOL    HW173748   5.366  12.701   2.934
57305SOL    HW273749   5.290  12.577   2.891
57306SOL     OW73750   7.219  14.033   0.771
57306SOL    HW173751   7.260  14.029   0.858
57306SOL    HW273752   7.182  14.122   0.767
57307SOL     OW73753   8.293  12.866   5.349
57307SOL    HW173754   8.256  12.886   5.435
57307SOL    HW273755   8.245  12.923   5.289
57308SOL     OW73756   5.264   9.515  13.214
57308SOL    HW173757   5.225   9.530  13.128
57308SOL    HW273758   5.287   9.603  13.245
57309SOL     OW73759  13.727   6.417   5.163
57309SOL    HW173760  13.786   6.364   5.110
57309SOL    HW273761  13.770   6.502   5.170
57310SOL     OW73762   2.102   1.414   1.224
57310SOL    HW173763   2.152   1.395   1.144
57310SOL    HW273764   2.095   1.330   1.269
57311SOL     OW73765   2.809  11.190   7.023
57311SOL    HW173766   2.784  11.278   7.049
57311SOL    HW273767   2.726  11.143   7.016
57312SOL     OW73768   7.657   0.270   0.823
57312SOL    HW173769   7.618   0.355   0.801
57312SOL    HW273770   7.602   0.237   0.895
57313SOL     OW73771   8.967  13.041   4.230
57313SOL    HW173772   8.966  12.963   4.175
57313SOL    HW273773   8.986  13.113   4.170
57314SOL     OW73774  14.670   5.196   2.973
57314SOL    HW173775  14.621   5.144   3.037
57314SOL    HW273776  14.656   5.151   2.889
57315SOL     OW73777   1.320   7.475   3.975
57315SOL    HW173778   1.314   7.406   3.909
57315SOL    HW273779   1.297   7.431   4.057
57316SOL     OW73780  12.664  10.795  11.124
57316SOL    HW173781  12.699  10.862  11.066
57316SOL    HW273782  12.670  10.714  11.074
57317SOL     OW73783   0.994   7.293  11.510
57317SOL    HW173784   1.023   7.283  11.419
57317SOL    HW273785   0.986   7.204  11.543
57318SOL     OW73786  10.777   5.068   0.332
57318SOL    HW173787  10.817   5.000   0.277
57318SOL    HW273788  10.802   5.150   0.289
57319SOL     OW73789   9.595   7.867   6.726
57319SOL    HW173790   9.537   7.938   6.696
57319SOL    HW273791   9.537   7.792   6.739
57320SOL     OW73792   5.027   0.320   6.288
57320SOL    HW173793   4.952   0.373   6.260
57320SOL    HW273794   5.084   0.317   6.211
57321SOL     OW73795   1.705   2.575  12.156
57321SOL    HW173796   1.618   2.598  12.186
57321SOL    HW273797   1.752   2.658  12.151
57322SOL     OW73798   7.253   3.225   0.269
57322SOL    HW173799   7.325   3.251   0.212
57322SOL    HW273800   7.235   3.134   0.245
57323SOL     OW73801   6.976   5.447   4.661
57323SOL    HW173802   6.973   5.513   4.730
57323SOL    HW273803   7.069   5.427   4.650
57324SOL     OW73804  11.539   9.176   0.518
57324SOL    HW173805  11.510   9.123   0.591
57324SOL    HW273806  11.502   9.133   0.440
57325SOL     OW73807   3.612   3.214  10.116
57325SOL    HW173808   3.685   3.157  10.092
57325SOL    HW273809   3.603   3.203  10.211
57326SOL     OW73810   3.183   3.129   8.231
57326SOL    HW173811   3.242   3.165   8.165
57326SOL    HW273812   3.206   3.175   8.312
57327SOL     OW73813   3.141  14.841  10.753
57327SOL    HW173814   3.149   0.034  10.684
57327SOL    HW273815   3.185  14.764  10.718
57328SOL     OW73816   1.021   9.685   1.341
57328SOL    HW173817   1.037   9.768   1.384
57328SOL    HW273818   0.967   9.707   1.265
57329SOL     OW73819   8.096   9.107   1.385
57329SOL    HW173820   8.134   9.180   1.336
57329SOL    HW273821   8.155   9.094   1.459
57330SOL     OW73822   0.734   2.887   7.400
57330SOL    HW173823   0.729   2.802   7.354
57330SOL    HW273824   0.758   2.864   7.489
57331SOL     OW73825   6.370   3.558   0.222
57331SOL    HW173826   6.394   3.605   0.142
57331SOL    HW273827   6.446   3.503   0.241
57332SOL     OW73828  10.504  11.727   1.382
57332SOL    HW173829  10.428  11.722   1.441
57332SOL    HW273830  10.578  11.699   1.436
57333SOL     OW73831  12.147   7.749   9.213
57333SOL    HW173832  12.167   7.824   9.158
57333SOL    HW273833  12.105   7.786   9.291
57334SOL     OW73834   0.256   6.532  12.414
57334SOL    HW173835   0.212   6.458  12.371
57334SOL    HW273836   0.185   6.583  12.454
57335SOL     OW73837  10.499   9.263   4.581
57335SOL    HW173838  10.564   9.198   4.554
57335SOL    HW273839  10.420   9.212   4.598
57336SOL     OW73840   1.622  13.653  14.269
57336SOL    HW173841   1.634  13.721  14.335
57336SOL    HW273842   1.579  13.697  14.196
57337SOL     OW73843   2.185   9.308   2.764
57337SOL    HW173844   2.153   9.233   2.813
57337SOL    HW273845   2.139   9.304   2.680
57338SOL     OW73846   2.578  10.455   7.255
57338SOL    HW173847   2.542  10.400   7.185
57338SOL    HW273848   2.535  10.540   7.242
57339SOL     OW73849  12.459   4.941   3.220
57339SOL    HW173850  12.517   4.920   3.146
57339SOL    HW273851  12.371   4.930   3.185
57340SOL     OW73852   5.607   4.234  11.169
57340SOL    HW173853   5.574   4.318  11.137
57340SOL    HW273854   5.551   4.169  11.127
57341SOL     OW73855  10.303  10.645  14.285
57341SOL    HW173856  10.397  10.624  14.288
57341SOL    HW273857  10.277  10.649  14.377
57342SOL     OW73858  12.780  12.194  10.663
57342SOL    HW173859  12.803  12.282  10.692
57342SOL    HW273860  12.761  12.203  10.570
57343SOL     OW73861   5.854  13.020   5.398
57343SOL    HW173862   5.846  12.931   5.432
57343SOL    HW273863   5.812  13.016   5.312
57344SOL     OW73864   8.842  12.821   9.215
57344SOL    HW173865   8.774  12.767   9.175
57344SOL    HW273866   8.845  12.793   9.306
57345SOL     OW73867  12.831   4.875   5.753
57345SOL    HW173868  12.909   4.903   5.704
57345SOL    HW273869  12.762   4.936   5.725
57346SOL     OW73870  12.194   5.725   0.474
57346SOL    HW173871  12.213   5.693   0.562
57346SOL    HW273872  12.261   5.686   0.419
57347SOL     OW73873   4.091  14.154  13.192
57347SOL    HW173874   4.045  14.071  13.184
57347SOL    HW273875   4.181  14.134  13.165
57348SOL     OW73876   9.623   2.510   5.509
57348SOL    HW173877   9.615   2.457   5.429
57348SOL    HW273878   9.593   2.597   5.482
57349SOL     OW73879   0.246  12.724  13.846
57349SOL    HW173880   0.212  12.813  13.846
57349SOL    HW273881   0.179  12.673  13.799
57350SOL     OW73882  10.557   8.937  14.099
57350SOL    HW173883  10.644   8.953  14.135
57350SOL    HW273884  10.498   8.982  14.159
57351SOL     OW73885   1.861  10.637  11.822
57351SOL    HW173886   1.824  10.548  11.820
57351SOL    HW273887   1.897  10.651  11.735
57352SOL     OW73888  12.204   4.293   6.290
57352SOL    HW173889  12.215   4.220   6.351
57352SOL    HW273890  12.138   4.348   6.331
57353SOL     OW73891  10.656  10.571   2.533
57353SOL    HW173892  10.722  10.622   2.581
57353SOL    HW273893  10.595  10.637   2.499
57354SOL     OW73894   3.550   4.412  14.418
57354SOL    HW173895   3.589   4.381  14.336
57354SOL    HW273896   3.583   4.502  14.428
57355SOL     OW73897   3.368   3.917  12.459
57355SOL    HW173898   3.371   4.011  12.477
57355SOL    HW273899   3.276   3.898  12.443
57356SOL     OW73900  13.806  10.600  14.082
57356SOL    HW173901  13.831  10.656  14.009
57356SOL    HW273902  13.712  10.587  14.071
57357SOL     OW73903   2.407   8.688  10.190
57357SOL    HW173904   2.471   8.701  10.119
57357SOL    HW273905   2.399   8.774  10.231
57358SOL     OW73906  12.613   4.212   8.814
57358SOL    HW173907  12.657   4.294   8.790
57358SOL    HW273908  12.547   4.200   8.746
57359SOL     OW73909   1.285  13.863   8.760
57359SOL    HW173910   1.215  13.871   8.825
57359SOL    HW273911   1.273  13.776   8.722
57360SOL     OW73912   5.215   9.709   3.236
57360SOL    HW173913   5.220   9.748   3.149
57360SOL    HW273914   5.238   9.617   3.222
57361SOL     OW73915   0.739   8.956   9.157
57361SOL    HW173916   0.787   9.038   9.150
57361SOL    HW273917   0.808   8.890   9.171
57362SOL     OW73918   1.029  13.787  11.824
57362SOL    HW173919   1.057  13.868  11.867
57362SOL    HW273920   1.032  13.721  11.893
57363SOL     OW73921  12.694  14.380   3.639
57363SOL    HW173922  12.786  14.354   3.648
57363SOL    HW273923  12.664  14.391   3.729
57364SOL     OW73924   9.238   9.260  10.190
57364SOL    HW173925   9.241   9.183  10.247
57364SOL    HW273926   9.199   9.328  10.245
57365SOL     OW73927   2.837  14.182   9.430
57365SOL    HW173928   2.808  14.195   9.340
57365SOL    HW273929   2.817  14.090   9.448
57366SOL     OW73930   8.768  10.537   9.653
57366SOL    HW173931   8.682  10.547   9.694
57366SOL    HW273932   8.753  10.556   9.561
57367SOL     OW73933   1.393   6.380  14.340
57367SOL    HW173934   1.451   6.442  14.295
57367SOL    HW273935   1.311   6.428  14.351
57368SOL     OW73936   4.214   9.074   6.095
57368SOL    HW173937   4.186   8.987   6.125
57368SOL    HW273938   4.304   9.082   6.126
57369SOL     OW73939   3.117   5.995   0.895
57369SOL    HW173940   3.158   6.078   0.918
57369SOL    HW273941   3.122   5.990   0.800
57370SOL     OW73942   9.211   2.975   4.055
57370SOL    HW173943   9.188   3.064   4.081
57370SOL    HW273944   9.305   2.979   4.035
57371SOL     OW73945   1.671   1.031   3.147
57371SOL    HW173946   1.625   0.975   3.085
57371SOL    HW273947   1.736   0.974   3.187
57372SOL     OW73948  10.366   6.731   5.388
57372SOL    HW173949  10.371   6.658   5.450
57372SOL    HW273950  10.389   6.692   5.303
57373SOL     OW73951   6.864   3.460   1.868
57373SOL    HW173952   6.858   3.477   1.962
57373SOL    HW273953   6.788   3.506   1.830
57374SOL     OW73954  11.289   1.097   0.165
57374SOL    HW173955  11.370   1.057   0.198
57374SOL    HW273956  11.259   1.037   0.096
57375SOL     OW73957  10.973   2.021   4.939
57375SOL    HW173958  11.045   2.082   4.920
57375SOL    HW273959  10.894   2.074   4.929
57376SOL     OW73960   3.996   0.875   4.246
57376SOL    HW173961   4.080   0.859   4.202
57376SOL    HW273962   3.983   0.969   4.239
57377SOL     OW73963  14.223   9.913   6.880
57377SOL    HW173964  14.234   9.924   6.785
57377SOL    HW273965  14.312   9.902   6.913
57378SOL     OW73966  14.235  10.960   1.304
57378SOL    HW173967  14.170  10.995   1.244
57378SOL    HW273968  14.240  11.023   1.375
57379SOL     OW73969   1.268   0.385   8.274
57379SOL    HW173970   1.243   0.300   8.239
57379SOL    HW273971   1.239   0.383   8.365
57380SOL     OW73972  10.036  11.077   5.036
57380SOL    HW173973  10.006  11.168   5.037
57380SOL    HW273974   9.959  11.026   5.059
57381SOL     OW73975   9.760   5.259   2.282
57381SOL    HW173976   9.803   5.203   2.347
57381SOL    HW273977   9.811   5.340   2.282
57382SOL     OW73978   8.711   1.538   0.932
57382SOL    HW173979   8.673   1.506   0.850
57382SOL    HW273980   8.803   1.555   0.912
57383SOL     OW73981   9.232  12.440  13.944
57383SOL    HW173982   9.173  12.488  13.886
57383SOL    HW273983   9.219  12.348  13.921
57384SOL     OW73984   4.177   6.258  14.193
57384SOL    HW173985   4.194   6.332  14.252
57384SOL    HW273986   4.262   6.238  14.155
57385SOL     OW73987  14.216   7.690  14.642
57385SOL    HW173988  14.176   7.608  14.613
57385SOL    HW273989  14.217   7.745  14.563
57386SOL     OW73990   2.554   0.486   1.308
57386SOL    HW173991   2.548   0.529   1.223
57386SOL    HW273992   2.466   0.454   1.325
57387SOL     OW73993   9.390   3.716  12.809
57387SOL    HW173994   9.452   3.667  12.755
57387SOL    HW273995   9.404   3.807  12.785
57388SOL     OW73996  11.481   2.877   4.323
57388SOL    HW173997  11.479   2.930   4.403
57388SOL    HW273998  11.511   2.791   4.352
57389SOL     OW73999   8.966  13.897   7.105
57389SOL    HW174000   8.919  13.928   7.182
57389SOL    HW274001   9.016  13.822   7.136
57390SOL     OW74002   6.325   5.432   6.032
57390SOL    HW174003   6.379   5.494   5.983
57390SOL    HW274004   6.331   5.462   6.123
57391SOL     OW74005   4.158  14.003   5.597
57391SOL    HW174006   4.241  13.977   5.637
57391SOL    HW274007   4.106  13.923   5.594
57392SOL     OW74008   1.945   7.065  11.445
57392SOL    HW174009   2.001   6.992  11.472
57392SOL    HW274010   1.908   7.098  11.526
57393SOL     OW74011   0.763   9.424   4.313
57393SOL    HW174012   0.721   9.359   4.370
57393SOL    HW274013   0.691   9.467   4.268
57394SOL     OW74014   6.941  14.283   9.426
57394SOL    HW174015   6.880  14.283   9.500
57394SOL    HW274016   6.900  14.226   9.361
57395SOL     OW74017   9.817   6.882  13.045
57395SOL    HW174018   9.739   6.906  13.095
57395SOL    HW274019   9.874   6.959  13.051
57396SOL     OW74020   0.385   8.408  10.026
57396SOL    HW174021   0.306   8.426   9.976
57396SOL    HW274022   0.366   8.442  10.114
57397SOL     OW74023   0.509   4.905  14.478
57397SOL    HW174024   0.484   4.918  14.386
57397SOL    HW274025   0.605   4.907  14.476
57398SOL     OW74026  11.194   6.120   7.116
57398SOL    HW174027  11.215   6.070   7.195
57398SOL    HW274028  11.274   6.168   7.095
57399SOL     OW74029   0.813   6.101   3.589
57399SOL    HW174030   0.726   6.082   3.624
57399SOL    HW274031   0.841   6.019   3.548
57400SOL     OW74032   2.449   9.073   3.650
57400SOL    HW174033   2.484   9.160   3.669
57400SOL    HW274034   2.526   9.015   3.655
57401SOL     OW74035   9.633   7.154  10.736
57401SOL    HW174036   9.665   7.115  10.818
57401SOL    HW274037   9.654   7.089  10.669
57402SOL     OW74038  10.275   7.580   4.659
57402SOL    HW174039  10.188   7.561   4.696
57402SOL    HW274040  10.282   7.523   4.583
57403SOL     OW74041  12.988   5.093   1.206
57403SOL    HW174042  12.935   5.118   1.281
57403SOL    HW274043  12.997   4.998   1.214
57404SOL     OW74044   1.579   7.804   6.356
57404SOL    HW174045   1.514   7.800   6.427
57404SOL    HW274046   1.657   7.763   6.393
57405SOL     OW74047   3.740   0.584   8.727
57405SOL    HW174048   3.694   0.522   8.783
57405SOL    HW274049   3.692   0.666   8.736
57406SOL     OW74050   4.983   2.301  13.280
57406SOL    HW174051   5.057   2.348  13.243
57406SOL    HW274052   4.920   2.369  13.303
57407SOL     OW74053   9.191   8.294   2.018
57407SOL    HW174054   9.237   8.306   2.101
57407SOL    HW274055   9.216   8.371   1.965
57408SOL     OW74056   0.356  12.700  14.809
57408SOL    HW174057   0.325  12.672  14.722
57408SOL    HW274058   0.447  12.672  14.812
57409SOL     OW74059  12.097   1.311   1.467
57409SOL    HW174060  12.104   1.403   1.444
57409SOL    HW274061  12.003   1.297   1.483
57410SOL     OW74062   6.046  14.831   9.505
57410SOL    HW174063   5.988  14.761   9.535
57410SOL    HW274064   6.003   0.039   9.532
57411SOL     OW74065  11.121  12.301  11.761
57411SOL    HW174066  11.043  12.275  11.712
57411SOL    HW274067  11.107  12.266  11.849
57412SOL     OW74068   8.314  14.247   2.310
57412SOL    HW174069   8.330  14.157   2.281
57412SOL    HW274070   8.223  14.247   2.339
57413SOL     OW74071   5.509  10.621   7.168
57413SOL    HW174072   5.557  10.542   7.192
57413SOL    HW274073   5.455  10.595   7.093
57414SOL     OW74074   7.227   1.455   6.374
57414SOL    HW174075   7.267   1.414   6.298
57414SOL    HW274076   7.135   1.467   6.350
57415SOL     OW74077   3.802   7.779  13.520
57415SOL    HW174078   3.766   7.701  13.477
57415SOL    HW274079   3.811   7.753  13.611
57416SOL     OW74080   8.409   8.277  14.260
57416SOL    HW174081   8.356   8.237  14.191
57416SOL    HW274082   8.356   8.350  14.292
57417SOL     OW74083   0.254   1.386   8.807
57417SOL    HW174084   0.339   1.353   8.838
57417SOL    HW274085   0.206   1.308   8.780
57418SOL     OW74086   6.719  12.935  13.955
57418SOL    HW174087   6.767  12.945  13.873
57418SOL    HW274088   6.708  12.840  13.964
57419SOL     OW74089  14.267   1.522   0.047
57419SOL    HW174090  14.259   1.427   0.046
57419SOL    HW274091  14.178   1.555   0.034
57420SOL     OW74092   8.015   4.718   6.004
57420SOL    HW174093   8.100   4.692   6.039
57420SOL    HW274094   8.033   4.750   5.916
57421SOL     OW74095   5.945   2.503  14.286
57421SOL    HW174096   5.894   2.553  14.223
57421SOL    HW274097   5.930   2.548  14.370
57422SOL     OW74098  11.205   2.876   5.767
57422SOL    HW174099  11.144   2.819   5.814
57422SOL    HW274100  11.187   2.964   5.801
57423SOL     OW74101  11.947  12.814  12.685
57423SOL    HW174102  12.017  12.807  12.749
57423SOL    HW274103  11.978  12.878  12.621
57424SOL     OW74104  13.374   6.288   7.704
57424SOL    HW174105  13.364   6.372   7.748
57424SOL    HW274106  13.400   6.228   7.774
57425SOL     OW74107  10.826  11.809   1.206
57425SOL    HW174108  10.750  11.760   1.175
57425SOL    HW274109  10.794  11.898   1.220
57426SOL     OW74110   2.857   0.971  13.915
57426SOL    HW174111   2.787   0.906  13.905
57426SOL    HW274112   2.918   0.952  13.844
57427SOL     OW74113  14.061   6.690  12.103
57427SOL    HW174114  14.054   6.663  12.194
57427SOL    HW274115  14.116   6.623  12.063
57428SOL     OW74116   5.690  10.479   0.961
57428SOL    HW174117   5.745  10.507   1.034
57428SOL    HW274118   5.627  10.551   0.950
57429SOL     OW74119   1.077  11.456  13.379
57429SOL    HW174120   1.084  11.551  13.366
57429SOL    HW274121   0.984  11.441  13.397
57430SOL     OW74122   0.987   0.351   1.019
57430SOL    HW174123   0.983   0.265   0.979
57430SOL    HW274124   0.897   0.383   1.018
57431SOL     OW74125  12.841   0.733  12.458
57431SOL    HW174126  12.781   0.754  12.530
57431SOL    HW274127  12.804   0.778  12.382
57432SOL     OW74128  11.356  10.257  10.402
57432SOL    HW174129  11.347  10.266  10.307
57432SOL    HW274130  11.300  10.182  10.424
57433SOL     OW74131  11.857   7.738  13.158
57433SOL    HW174132  11.775   7.707  13.119
57433SOL    HW274133  11.841   7.737  13.253
57434SOL     OW74134  11.932   0.182   8.178
57434SOL    HW174135  11.985   0.120   8.128
57434SOL    HW274136  11.992   0.215   8.245
57435SOL     OW74137  11.406   7.268   4.812
57435SOL    HW174138  11.428   7.178   4.789
57435SOL    HW274139  11.451   7.283   4.895
57436SOL     OW74140  13.465   6.671   1.709
57436SOL    HW174141  13.553   6.684   1.745
57436SOL    HW274142  13.413   6.741   1.749
57437SOL     OW74143   7.645  11.997   2.772
57437SOL    HW174144   7.556  12.011   2.804
57437SOL    HW274145   7.641  12.016   2.679
57438SOL     OW74146  13.658   1.384   0.111
57438SOL    HW174147  13.669   1.409   0.203
57438SOL    HW274148  13.744   1.400   0.071
57439SOL     OW74149  14.107   5.898   7.824
57439SOL    HW174150  14.089   5.969   7.886
57439SOL    HW274151  14.203   5.898   7.816
57440SOL     OW74152   5.891   5.443   4.429
57440SOL    HW174153   5.951   5.464   4.358
57440SOL    HW274154   5.807   5.480   4.402
57441SOL     OW74155   0.387  11.670   3.890
57441SOL    HW174156   0.449  11.743   3.895
57441SOL    HW274157   0.311  11.700   3.941
57442SOL     OW74158   2.472   3.499   6.875
57442SOL    HW174159   2.521   3.424   6.909
57442SOL    HW274160   2.537   3.569   6.869
57443SOL     OW74161   3.731  14.445  11.039
57443SOL    HW174162   3.767  14.451  10.950
57443SOL    HW274163   3.703  14.354  11.047
57444SOL     OW74164   3.902  14.653   9.386
57444SOL    HW174165   3.940  14.622   9.304
57444SOL    HW274166   3.966  14.631   9.453
57445SOL     OW74167   7.751   8.044  10.567
57445SOL    HW174168   7.778   8.136  10.576
57445SOL    HW274169   7.802   7.998  10.634
57446SOL     OW74170  11.365   8.677   7.116
57446SOL    HW174171  11.460   8.667   7.109
57446SOL    HW274172  11.353   8.751   7.176
57447SOL     OW74173   8.330  12.754   8.209
57447SOL    HW174174   8.383  12.834   8.210
57447SOL    HW274175   8.381  12.691   8.261
57448SOL     OW74176   6.236  12.295   7.231
57448SOL    HW174177   6.330  12.285   7.243
57448SOL    HW274178   6.198  12.211   7.258
57449SOL     OW74179   9.558   2.163   5.907
57449SOL    HW174180   9.593   2.249   5.929
57449SOL    HW274181   9.522   2.172   5.819
57450SOL     OW74182   9.832  11.304   3.867
57450SOL    HW174183   9.794  11.307   3.955
57450SOL    HW274184   9.926  11.315   3.882
57451SOL     OW74185   6.214   7.722   8.612
57451SOL    HW174186   6.163   7.728   8.531
57451SOL    HW274187   6.224   7.628   8.627
57452SOL     OW74188   2.909   5.179  12.887
57452SOL    HW174189   2.930   5.097  12.844
57452SOL    HW274190   2.850   5.224  12.827
57453SOL     OW74191  12.099  12.354  14.321
57453SOL    HW174192  12.091  12.426  14.259
57453SOL    HW274193  12.175  12.378  14.375
57454SOL     OW74194   3.844   9.677   8.921
57454SOL    HW174195   3.825   9.771   8.913
57454SOL    HW274196   3.775   9.634   8.872
57455SOL     OW74197   3.328  12.747   7.447
57455SOL    HW174198   3.364  12.831   7.417
57455SOL    HW274199   3.302  12.763   7.537
57456SOL     OW74200   2.772   2.782  12.247
57456SOL    HW174201   2.838   2.774  12.178
57456SOL    HW274202   2.821   2.814  12.323
57457SOL     OW74203  12.350   7.191   6.403
57457SOL    HW174204  12.267   7.154   6.374
57457SOL    HW274205  12.332   7.283   6.418
57458SOL     OW74206   3.931   7.133   0.786
57458SOL    HW174207   3.956   7.169   0.871
57458SOL    HW274208   3.937   7.207   0.726
57459SOL     OW74209   7.447   5.134   1.021
57459SOL    HW174210   7.468   5.045   1.047
57459SOL    HW274211   7.352   5.133   1.005
57460SOL     OW74212   1.731   0.628  14.444
57460SOL    HW174213   1.732   0.625  14.349
57460SOL    HW274214   1.815   0.590  14.470
57461SOL     OW74215   3.855   2.332   5.000
57461SOL    HW174216   3.768   2.294   4.988
57461SOL    HW274217   3.841   2.426   5.002
57462SOL     OW74218   2.966   1.640   3.248
57462SOL    HW174219   3.031   1.673   3.186
57462SOL    HW274220   2.969   1.702   3.321
57463SOL     OW74221  12.682   0.212  11.460
57463SOL    HW174222  12.709   0.304  11.459
57463SOL    HW274223  12.652   0.198  11.550
57464SOL     OW74224  10.011   9.193   1.425
57464SOL    HW174225   9.980   9.275   1.465
57464SOL    HW274226   9.933   9.137   1.423
57465SOL     OW74227   4.372  11.259  14.042
57465SOL    HW174228   4.384  11.263  13.947
57465SOL    HW274229   4.459  11.275  14.078
57466SOL     OW74230  11.017   8.699   1.731
57466SOL    HW174231  11.003   8.763   1.800
57466SOL    HW274232  10.991   8.616   1.769
57467SOL     OW74233  12.782  13.691   6.375
57467SOL    HW174234  12.746  13.777   6.397
57467SOL    HW274235  12.876  13.705   6.369
57468SOL     OW74236  13.971   0.854   0.315
57468SOL    HW174237  13.936   0.806   0.240
57468SOL    HW274238  14.055   0.888   0.284
57469SOL     OW74239   4.271  11.862   8.580
57469SOL    HW174240   4.298  11.805   8.509
57469SOL    HW274241   4.320  11.942   8.567
57470SOL     OW74242  11.334  12.333   0.291
57470SOL    HW174243  11.319  12.307   0.200
57470SOL    HW274244  11.405  12.396   0.286
57471SOL     OW74245   7.334   5.179  14.313
57471SOL    HW174246   7.404   5.132  14.268
57471SOL    HW274247   7.365   5.269  14.317
57472SOL     OW74248  13.290  13.645  10.312
57472SOL    HW174249  13.310  13.735  10.339
57472SOL    HW274250  13.375  13.608  10.288
57473SOL     OW74251  14.529   7.660  10.229
57473SOL    HW174252  14.533   7.573  10.270
57473SOL    HW274253  14.509   7.642  10.137
57474SOL     OW74254   3.943   4.407   9.362
57474SOL    HW174255   3.864   4.371   9.321
57474SOL    HW274256   4.014   4.379   9.305
57475SOL     OW74257  11.163  13.460   5.098
57475SOL    HW174258  11.077  13.454   5.056
57475SOL    HW274259  11.159  13.395   5.168
57476SOL     OW74260  10.118  11.777  14.001
57476SOL    HW174261  10.172  11.723  13.944
57476SOL    HW274262  10.125  11.735  14.087
57477SOL     OW74263   0.301  14.022   6.812
57477SOL    HW174264   0.274  13.992   6.898
57477SOL    HW274265   0.275  13.952   6.752
57478SOL     OW74266   9.231   7.621  12.612
57478SOL    HW174267   9.274   7.701  12.642
57478SOL    HW274268   9.301   7.569  12.573
57479SOL     OW74269   0.608   1.364  10.698
57479SOL    HW174270   0.662   1.288  10.719
57479SOL    HW274271   0.657   1.409  10.629
57480SOL     OW74272   7.138   5.823   1.942
57480SOL    HW174273   7.093   5.742   1.964
57480SOL    HW274274   7.099   5.851   1.859
57481SOL     OW74275   9.846   8.860   9.542
57481SOL    HW174276   9.755   8.848   9.516
57481SOL    HW274277   9.863   8.953   9.525
57482SOL     OW74278   9.796   0.644   1.173
57482SOL    HW174279   9.816   0.659   1.266
57482SOL    HW274280   9.848   0.567   1.150
57483SOL     OW74281   2.166   3.542   3.598
57483SOL    HW174282   2.134   3.493   3.522
57483SOL    HW274283   2.100   3.611   3.611
57484SOL     OW74284  12.359  14.187   0.111
57484SOL    HW174285  12.311  14.190   0.194
57484SOL    HW274286  12.346  14.274   0.073
57485SOL     OW74287   3.878   3.231   4.138
57485SOL    HW174288   3.793   3.248   4.097
57485SOL    HW274289   3.908   3.317   4.167
57486SOL     OW74290   8.065  13.293   8.339
57486SOL    HW174291   8.040  13.319   8.250
57486SOL    HW274292   8.035  13.203   8.347
57487SOL     OW74293   5.240  10.221   6.781
57487SOL    HW174294   5.180  10.171   6.725
57487SOL    HW274295   5.326  10.206   6.742
57488SOL     OW74296  11.734   9.575  11.814
57488SOL    HW174297  11.818   9.604  11.850
57488SOL    HW274298  11.750   9.485  11.786
57489SOL     OW74299   1.459  12.302  13.932
57489SOL    HW174300   1.467  12.310  13.837
57489SOL    HW274301   1.529  12.357  13.967
57490SOL     OW74302   7.834   6.263   6.396
57490SOL    HW174303   7.743   6.280   6.372
57490SOL    HW274304   7.884   6.289   6.318
57491SOL     OW74305   8.279   4.369   2.165
57491SOL    HW174306   8.197   4.404   2.131
57491SOL    HW274307   8.340   4.375   2.091
57492SOL     OW74308   8.851   9.187   1.442
57492SOL    HW174309   8.864   9.099   1.478
57492SOL    HW274310   8.939   9.218   1.421
57493SOL     OW74311   3.338  10.312   1.108
57493SOL    HW174312   3.431  10.327   1.096
57493SOL    HW274313   3.329  10.287   1.200
57494SOL     OW74314   1.496   3.741   7.119
57494SOL    HW174315   1.416   3.699   7.151
57494SOL    HW274316   1.537   3.674   7.064
57495SOL     OW74317   0.538   7.284  13.317
57495SOL    HW174318   0.500   7.372  13.311
57495SOL    HW274319   0.556   7.272  13.410
57496SOL     OW74320   6.210   7.007   1.879
57496SOL    HW174321   6.284   7.067   1.893
57496SOL    HW274322   6.156   7.051   1.814
57497SOL     OW74323   5.040   7.133   2.821
57497SOL    HW174324   5.068   7.183   2.745
57497SOL    HW274325   5.000   7.054   2.786
57498SOL     OW74326   6.409   0.433   3.482
57498SOL    HW174327   6.444   0.522   3.470
57498SOL    HW274328   6.444   0.405   3.567
57499SOL     OW74329   7.339  12.977   8.911
57499SOL    HW174330   7.318  12.884   8.919
57499SOL    HW274331   7.431  12.983   8.936
57500SOL     OW74332   8.151   0.480   7.375
57500SOL    HW174333   8.201   0.443   7.448
57500SOL    HW274334   8.194   0.445   7.297
57501SOL     OW74335   5.387  11.535   2.467
57501SOL    HW174336   5.415  11.444   2.465
57501SOL    HW274337   5.291  11.531   2.466
57502SOL     OW74338  12.401  14.784   0.629
57502SOL    HW174339  12.491  14.759   0.612
57502SOL    HW274340  12.399  14.806   0.722
57503SOL     OW74341   1.927  10.138  10.546
57503SOL    HW174342   1.841  10.178  10.549
57503SOL    HW274343   1.914  10.056  10.499
57504SOL     OW74344   5.498   9.864   7.263
57504SOL    HW174345   5.459   9.876   7.350
57504SOL    HW274346   5.592   9.877   7.277
57505SOL     OW74347  10.382   1.845  13.445
57505SOL    HW174348  10.428   1.886  13.372
57505SOL    HW274349  10.385   1.910  13.515
57506SOL     OW74350   5.718  14.300  12.192
57506SOL    HW174351   5.671  14.378  12.163
57506SOL    HW274352   5.743  14.318  12.282
57507SOL     OW74353   2.592   4.335   0.795
57507SOL    HW174354   2.580   4.248   0.755
57507SOL    HW274355   2.687   4.345   0.802
57508SOL     OW74356   3.299  14.177  11.665
57508SOL    HW174357   3.219  14.130  11.690
57508SOL    HW274358   3.270  14.242  11.602
57509SOL     OW74359  11.097   1.670   5.595
57509SOL    HW174360  11.048   1.719   5.660
57509SOL    HW274361  11.040   1.667   5.518
57510SOL     OW74362   1.521   5.069   6.582
57510SOL    HW174363   1.518   5.104   6.671
57510SOL    HW274364   1.462   5.126   6.532
57511SOL     OW74365  10.863  12.300   8.608
57511SOL    HW174366  10.906  12.271   8.688
57511SOL    HW274367  10.835  12.389   8.627
57512SOL     OW74368   0.319  13.480   8.775
57512SOL    HW174369   0.265  13.502   8.851
57512SOL    HW274370   0.324  13.561   8.725
57513SOL     OW74371  13.116  12.390   4.188
57513SOL    HW174372  13.081  12.387   4.277
57513SOL    HW274373  13.040  12.370   4.132
57514SOL     OW74374  12.779  11.762   1.157
57514SOL    HW174375  12.700  11.809   1.183
57514SOL    HW274376  12.801  11.798   1.071
57515SOL     OW74377  13.957   8.927  14.384
57515SOL    HW174378  13.969   8.845  14.431
57515SOL    HW274379  13.914   8.985  14.447
57516SOL     OW74380   2.927   5.349  13.465
57516SOL    HW174381   2.948   5.346  13.372
57516SOL    HW274382   2.839   5.310  13.471
57517SOL     OW74383   8.507  14.615  13.099
57517SOL    HW174384   8.491  14.615  13.005
57517SOL    HW274385   8.556  14.534  13.115
57518SOL     OW74386   9.697  12.604   9.827
57518SOL    HW174387   9.736  12.575   9.910
57518SOL    HW274388   9.764  12.584   9.762
57519SOL     OW74389  11.810   1.595   5.386
57519SOL    HW174390  11.789   1.506   5.413
57519SOL    HW274391  11.806   1.592   5.290
57520SOL     OW74392  13.410   7.305   4.379
57520SOL    HW174393  13.451   7.296   4.294
57520SOL    HW274394  13.398   7.399   4.391
57521SOL     OW74395  10.669   4.504   8.305
57521SOL    HW174396  10.654   4.538   8.217
57521SOL    HW274397  10.581   4.491   8.342
57522SOL     OW74398  11.755  14.552   7.655
57522SOL    HW174399  11.725  14.539   7.744
57522SOL    HW274400  11.675  14.562   7.604
57523SOL     OW74401   2.284   0.829  12.056
57523SOL    HW174402   2.286   0.744  12.012
57523SOL    HW274403   2.234   0.814  12.136
57524SOL     OW74404   9.929   3.912   4.417
57524SOL    HW174405   9.883   3.920   4.333
57524SOL    HW274406   9.859   3.898   4.481
57525SOL     OW74407   0.676  12.168   8.135
57525SOL    HW174408   0.593  12.214   8.124
57525SOL    HW274409   0.741  12.237   8.145
57526SOL     OW74410   0.434  12.485   4.730
57526SOL    HW174411   0.384  12.476   4.811
57526SOL    HW274412   0.383  12.545   4.675
57527SOL     OW74413  12.795  10.265   1.868
57527SOL    HW174414  12.741  10.188   1.851
57527SOL    HW274415  12.749  10.336   1.824
57528SOL     OW74416  13.096   8.529  14.440
57528SOL    HW174417  13.070   8.529  14.348
57528SOL    HW274418  13.038   8.465  14.481
57529SOL     OW74419   9.299   6.556   5.009
57529SOL    HW174420   9.364   6.500   4.966
57529SOL    HW274421   9.296   6.635   4.955
57530SOL     OW74422  10.034   2.076  10.148
57530SOL    HW174423   9.940   2.095  10.155
57530SOL    HW274424  10.072   2.157  10.112
57531SOL     OW74425  10.378  12.928   4.132
57531SOL    HW174426  10.420  12.905   4.214
57531SOL    HW274427  10.350  12.844   4.095
57532SOL     OW74428   9.591   9.255   6.134
57532SOL    HW174429   9.593   9.218   6.222
57532SOL    HW274430   9.683   9.274   6.114
57533SOL     OW74431   7.585   1.172  10.777
57533SOL    HW174432   7.521   1.106  10.751
57533SOL    HW274433   7.655   1.122  10.820
57534SOL     OW74434  13.454  13.471   5.392
57534SOL    HW174435  13.405  13.406   5.443
57534SOL    HW274436  13.523  13.421   5.349
57535SOL     OW74437  12.387  10.360   5.189
57535SOL    HW174438  12.448  10.326   5.124
57535SOL    HW274439  12.340  10.283   5.220
57536SOL     OW74440   2.472   2.572  12.768
57536SOL    HW174441   2.562   2.589  12.795
57536SOL    HW274442   2.427   2.656  12.780
57537SOL     OW74443  12.696   8.096   7.690
57537SOL    HW174444  12.754   8.149   7.744
57537SOL    HW274445  12.609   8.109   7.727
57538SOL     OW74446   1.441  11.524   1.827
57538SOL    HW174447   1.503  11.533   1.754
57538SOL    HW274448   1.357  11.552   1.790
57539SOL     OW74449  12.598   6.871  12.376
57539SOL    HW174450  12.644   6.909  12.451
57539SOL    HW274451  12.593   6.778  12.395
57540SOL     OW74452   1.330   5.875  12.101
57540SOL    HW174453   1.293   5.870  12.012
57540SOL    HW274454   1.419   5.844  12.091
57541SOL     OW74455   3.093  12.837  13.751
57541SOL    HW174456   3.186  12.826  13.769
57541SOL    HW274457   3.087  12.849  13.657
57542SOL     OW74458   6.861   6.264   8.342
57542SOL    HW174459   6.919   6.213   8.285
57542SOL    HW274460   6.891   6.243   8.431
57543SOL     OW74461   0.602   2.276  10.246
57543SOL    HW174462   0.594   2.309  10.157
57543SOL    HW274463   0.564   2.345  10.301
57544SOL     OW74464   5.125  14.614   1.768
57544SOL    HW174465   5.137  14.541   1.829
57544SOL    HW274466   5.032  14.636   1.773
57545SOL     OW74467   1.047  14.859   7.231
57545SOL    HW174468   1.034  14.857   7.325
57545SOL    HW274469   1.101   0.064   7.216
57546SOL     OW74470   6.707  12.549   1.624
57546SOL    HW174471   6.695  12.629   1.572
57546SOL    HW274472   6.621  12.532   1.662
57547SOL     OW74473   7.724  13.267  14.648
57547SOL    HW174474   7.692  13.266  14.738
57547SOL    HW274475   7.749  13.176  14.631
57548SOL     OW74476   0.158   1.129   5.924
57548SOL    HW174477   0.102   1.108   5.999
57548SOL    HW274478   0.247   1.114   5.956
57549SOL     OW74479   2.189  11.606  12.179
57549SOL    HW174480   2.112  11.553  12.195
57549SOL    HW274481   2.238  11.558  12.111
57550SOL     OW74482   6.871  10.458   8.699
57550SOL    HW174483   6.776  10.465   8.706
57550SOL    HW274484   6.903  10.478   8.787
57551SOL     OW74485   8.809  13.159   9.453
57551SOL    HW174486   8.731  13.170   9.399
57551SOL    HW274487   8.878  13.204   9.404
57552SOL     OW74488  11.277   9.262  10.935
57552SOL    HW174489  11.348   9.202  10.911
57552SOL    HW274490  11.312   9.349  10.919
57553SOL     OW74491   4.272   9.537   6.532
57553SOL    HW174492   4.222   9.562   6.610
57553SOL    HW274493   4.335   9.473   6.564
57554SOL     OW74494  13.939   2.627  12.840
57554SOL    HW174495  14.009   2.667  12.891
57554SOL    HW274496  13.876   2.597  12.905
57555SOL     OW74497   9.227   7.431   5.285
57555SOL    HW174498   9.176   7.476   5.217
57555SOL    HW274499   9.173   7.356   5.309
57556SOL     OW74500   6.080   7.452  14.116
57556SOL    HW174501   6.121   7.531  14.080
57556SOL    HW274502   6.127   7.435  14.197
57557SOL     OW74503   8.414   1.597  10.614
57557SOL    HW174504   8.345   1.556  10.562
57557SOL    HW274505   8.490   1.599  10.555
57558SOL     OW74506   6.073  10.943   9.111
57558SOL    HW174507   6.166  10.926   9.121
57558SOL    HW274508   6.040  10.952   9.200
57559SOL     OW74509  10.455   5.695  11.437
57559SOL    HW174510  10.425   5.784  11.450
57559SOL    HW274511  10.536   5.688  11.488
57560SOL     OW74512   6.154   9.107   0.692
57560SOL    HW174513   6.114   9.193   0.676
57560SOL    HW274514   6.221   9.098   0.625
57561SOL     OW74515  13.220   1.386   9.460
57561SOL    HW174516  13.237   1.302   9.418
57561SOL    HW274517  13.165   1.433   9.397
57562SOL     OW74518  14.383   8.222  10.685
57562SOL    HW174519  14.392   8.197  10.777
57562SOL    HW274520  14.372   8.317  10.686
57563SOL     OW74521   2.135  12.786  13.645
57563SOL    HW174522   2.055  12.790  13.593
57563SOL    HW274523   2.109  12.815  13.732
57564SOL     OW74524   7.035  14.199  14.133
57564SOL    HW174525   7.057  14.190  14.225
57564SOL    HW274526   7.074  14.283  14.107
57565SOL     OW74527   9.701   1.927  13.920
57565SOL    HW174528   9.645   1.909  13.844
57565SOL    HW274529   9.744   1.844  13.938
57566SOL     OW74530   7.501  10.846   1.833
57566SOL    HW174531   7.593  10.821   1.821
57566SOL    HW274532   7.461  10.827   1.748
57567SOL     OW74533   7.689  13.424   5.884
57567SOL    HW174534   7.645  13.391   5.806
57567SOL    HW274535   7.622  13.474   5.930
57568SOL     OW74536  13.819   9.126   7.234
57568SOL    HW174537  13.814   9.069   7.311
57568SOL    HW274538  13.744   9.185   7.242
57569SOL     OW74539   3.457   2.507   1.068
57569SOL    HW174540   3.393   2.437   1.081
57569SOL    HW274541   3.492   2.492   0.980
57570SOL     OW74542  12.135   6.304   6.859
57570SOL    HW174543  12.204   6.333   6.919
57570SOL    HW274544  12.058   6.356   6.884
57571SOL     OW74545   6.395   1.160   2.110
57571SOL    HW174546   6.301   1.176   2.116
57571SOL    HW274547   6.434   1.226   2.169
57572SOL     OW74548   1.220  11.352   2.434
57572SOL    HW174549   1.195  11.440   2.405
57572SOL    HW274550   1.264  11.367   2.518
57573SOL     OW74551  11.140   8.221   3.754
57573SOL    HW174552  11.200   8.219   3.828
57573SOL    HW274553  11.165   8.146   3.700
57574SOL     OW74554   5.880   6.962  12.848
57574SOL    HW174555   5.897   7.014  12.769
57574SOL    HW274556   5.804   7.004  12.889
57575SOL     OW74557   1.657   3.054   8.126
57575SOL    HW174558   1.564   3.074   8.118
57575SOL    HW274559   1.667   2.969   8.084
57576SOL     OW74560  10.269   3.798   6.560
57576SOL    HW174561  10.244   3.776   6.650
57576SOL    HW274562  10.279   3.893   6.562
57577SOL     OW74563   2.751   6.910   6.141
57577SOL    HW174564   2.833   6.939   6.102
57577SOL    HW274565   2.683   6.947   6.085
57578SOL     OW74566   3.886  12.244   9.753
57578SOL    HW174567   3.971  12.253   9.710
57578SOL    HW274568   3.834  12.317   9.718
57579SOL     OW74569   8.359   0.999   6.148
57579SOL    HW174570   8.353   0.906   6.126
57579SOL    HW274571   8.322   1.005   6.237
57580SOL     OW74572   8.382   5.824   4.384
57580SOL    HW174573   8.335   5.766   4.324
57580SOL    HW274574   8.430   5.765   4.442
57581SOL     OW74575   4.409   3.710   7.519
57581SOL    HW174576   4.468   3.713   7.444
57581SOL    HW274577   4.454   3.655   7.583
57582SOL     OW74578   5.983   1.041   5.514
57582SOL    HW174579   5.990   0.949   5.538
57582SOL    HW274580   5.987   1.042   5.419
57583SOL     OW74581   1.627  10.847   5.817
57583SOL    HW174582   1.592  10.832   5.729
57583SOL    HW274583   1.551  10.875   5.868
57584SOL     OW74584   4.129   7.704  13.262
57584SOL    HW174585   4.094   7.670  13.179
57584SOL    HW274586   4.123   7.799  13.254
57585SOL     OW74587   8.328   1.016   6.950
57585SOL    HW174588   8.322   1.054   7.037
57585SOL    HW274589   8.354   1.089   6.893
57586SOL     OW74590   5.837   3.101   3.968
57586SOL    HW174591   5.753   3.146   3.973
57586SOL    HW274592   5.898   3.166   3.934
57587SOL     OW74593  13.498  11.112   3.211
57587SOL    HW174594  13.431  11.065   3.262
57587SOL    HW274595  13.581  11.084   3.248
57588SOL     OW74596   5.708   2.585   1.993
57588SOL    HW174597   5.757   2.540   2.061
57588SOL    HW274598   5.727   2.678   2.008
57589SOL     OW74599  12.167  11.266  13.526
57589SOL    HW174600  12.089  11.221  13.559
57589SOL    HW274601  12.227  11.268  13.601
57590SOL     OW74602   8.613  12.874  13.801
57590SOL    HW174603   8.524  12.851  13.829
57590SOL    HW274604   8.660  12.892  13.883
57591SOL     OW74605   0.161   3.976  10.431
57591SOL    HW174606   0.154   3.965  10.336
57591SOL    HW274607   0.254   3.969  10.449
57592SOL     OW74608   5.167  14.332  14.095
57592SOL    HW174609   5.127  14.403  14.146
57592SOL    HW274610   5.236  14.375  14.044
57593SOL     OW74611  13.635   9.712   9.218
57593SOL    HW174612  13.573   9.704   9.290
57593SOL    HW274613  13.580   9.714   9.139
57594SOL     OW74614  10.813   6.030  13.321
57594SOL    HW174615  10.837   6.043  13.413
57594SOL    HW274616  10.788   5.938  13.315
57595SOL     OW74617  12.028   4.833  10.052
57595SOL    HW174618  11.954   4.781  10.084
57595SOL    HW274619  12.050   4.890  10.126
57596SOL     OW74620   3.358  11.693   3.968
57596SOL    HW174621   3.418  11.756   3.928
57596SOL    HW274622   3.411  11.644   4.031
57597SOL     OW74623   4.358  14.224   4.871
57597SOL    HW174624   4.388  14.135   4.891
57597SOL    HW274625   4.306  14.214   4.791
57598SOL     OW74626   7.415   9.100  12.812
57598SOL    HW174627   7.346   9.121  12.875
57598SOL    HW274628   7.403   9.006  12.794
57599SOL     OW74629   0.046   1.116   4.382
57599SOL    HW174630   0.049   1.105   4.287
57599SOL    HW274631   0.066   1.209   4.396
57600SOL     OW74632   3.029   4.742   8.399
57600SOL    HW174633   3.058   4.820   8.446
57600SOL    HW274634   2.964   4.702   8.457
57601SOL     OW74635  11.798   5.601   1.629
57601SOL    HW174636  11.749   5.525   1.598
57601SOL    HW274637  11.877   5.602   1.576
57602SOL     OW74638   9.705  14.215   2.438
57602SOL    HW174639   9.701  14.310   2.434
57602SOL    HW274640   9.662  14.185   2.357
57603SOL     OW74641  10.726  11.738  10.470
57603SOL    HW174642  10.820  11.750  10.451
57603SOL    HW274643  10.725  11.689  10.552
57604SOL     OW74644   9.987  13.543   2.928
57604SOL    HW174645  10.066  13.595   2.938
57604SOL    HW274646   9.966  13.549   2.835
57605SOL     OW74647  14.460  12.451   6.114
57605SOL    HW174648  14.374  12.493   6.117
57605SOL    HW274649  14.458  12.386   6.185
57606SOL     OW74650  10.743   6.370   3.234
57606SOL    HW174651  10.770   6.447   3.284
57606SOL    HW274652  10.670   6.333   3.283
57607SOL     OW74653   2.911   9.665   5.235
57607SOL    HW174654   2.985   9.612   5.205
57607SOL    HW274655   2.846   9.601   5.265
57608SOL     OW74656   1.439   0.029   7.315
57608SOL    HW174657   1.518   0.083   7.316
57608SOL    HW274658   1.425   0.008   7.223
57609SOL     OW74659  14.825  10.269  13.540
57609SOL    HW174660  14.741  10.228  13.522
57609SOL    HW274661  14.823  10.350  13.488
57610SOL     OW74662  12.864   3.092   5.356
57610SOL    HW174663  12.873   3.062   5.266
57610SOL    HW274664  12.934   3.047   5.403
57611SOL     OW74665   9.878   7.904  14.084
57611SOL    HW174666   9.890   7.984  14.032
57611SOL    HW274667   9.795   7.917  14.129
57612SOL     OW74668  11.482   4.487   6.976
57612SOL    HW174669  11.577   4.494   6.965
57612SOL    HW274670  11.471   4.437   7.057
57613SOL     OW74671   2.253  14.725   5.297
57613SOL    HW174672   2.163  14.715   5.266
57613SOL    HW274673   2.298  14.647   5.265
57614SOL     OW74674  13.929   3.128   2.195
57614SOL    HW174675  13.980   3.092   2.123
57614SOL    HW274676  13.994   3.164   2.256
57615SOL     OW74677   0.342  14.599   6.858
57615SOL    HW174678   0.421  14.547   6.877
57615SOL    HW274679   0.270  14.544   6.886
57616SOL     OW74680  14.534   0.364   8.786
57616SOL    HW174681  14.617   0.389   8.826
57616SOL    HW274682  14.468   0.403   8.843
57617SOL     OW74683  12.600   8.651  14.244
57617SOL    HW174684  12.596   8.563  14.207
57617SOL    HW274685  12.583   8.710  14.171
57618SOL     OW74686   2.817   7.369  13.874
57618SOL    HW174687   2.910   7.377  13.852
57618SOL    HW274688   2.796   7.452  13.917
57619SOL     OW74689  10.650   2.232   7.887
57619SOL    HW174690  10.653   2.323   7.915
57619SOL    HW274691  10.581   2.229   7.821
57620SOL     OW74692   4.032  10.423   3.703
57620SOL    HW174693   4.074  10.337   3.705
57620SOL    HW274694   4.104  10.485   3.715
57621SOL     OW74695  13.990  11.869  12.305
57621SOL    HW174696  14.002  11.942  12.366
57621SOL    HW274697  14.047  11.800  12.340
57622SOL     OW74698   5.127   4.958   9.062
57622SOL    HW174699   5.186   4.901   9.011
57622SOL    HW274700   5.154   4.944   9.153
57623SOL     OW74701   4.119  14.500   1.727
57623SOL    HW174702   4.084  14.589   1.738
57623SOL    HW274703   4.083  14.471   1.644
57624SOL     OW74704   6.972  13.382   8.990
57624SOL    HW174705   6.990  13.290   9.011
57624SOL    HW274706   6.894  13.403   9.042
57625SOL     OW74707  13.708   1.069   5.076
57625SOL    HW174708  13.619   1.033   5.072
57625SOL    HW274709  13.730   1.086   4.985
57626SOL     OW74710   7.404  14.090   2.730
57626SOL    HW174711   7.393  13.996   2.715
57626SOL    HW274712   7.497  14.106   2.714
57627SOL     OW74713   3.345   2.311  11.642
57627SOL    HW174714   3.404   2.384  11.626
57627SOL    HW274715   3.259   2.352  11.653
57628SOL     OW74716   5.851  13.900  11.024
57628SOL    HW174717   5.858  13.887  11.118
57628SOL    HW274718   5.810  13.819  10.992
57629SOL     OW74719   6.760   3.572   2.493
57629SOL    HW174720   6.762   3.653   2.544
57629SOL    HW274721   6.684   3.581   2.436
57630SOL     OW74722   2.570  14.734   9.462
57630SOL    HW174723   2.640  14.672   9.439
57630SOL    HW274724   2.500  14.715   9.400
57631SOL     OW74725   4.104   5.667   3.150
57631SOL    HW174726   4.137   5.669   3.240
57631SOL    HW274727   4.011   5.685   3.158
57632SOL     OW74728   8.216   2.461   4.566
57632SOL    HW174729   8.285   2.416   4.517
57632SOL    HW274730   8.197   2.403   4.640
57633SOL     OW74731   2.921   3.859   4.831
57633SOL    HW174732   2.887   3.804   4.761
57633SOL    HW274733   2.991   3.910   4.790
57634SOL     OW74734   6.432   8.492  12.128
57634SOL    HW174735   6.364   8.551  12.098
57634SOL    HW274736   6.478   8.465  12.049
57635SOL     OW74737   1.574   2.210   5.382
57635SOL    HW174738   1.615   2.147   5.323
57635SOL    HW274739   1.615   2.195   5.467
57636SOL     OW74740   0.999   0.469   0.696
57636SOL    HW174741   0.986   0.376   0.677
57636SOL    HW274742   0.914   0.499   0.727
57637SOL     OW74743  14.135  13.169  11.451
57637SOL    HW174744  14.175  13.180  11.537
57637SOL    HW274745  14.058  13.115  11.466
57638SOL     OW74746   7.987   1.410  13.113
57638SOL    HW174747   8.050   1.355  13.066
57638SOL    HW274748   7.921   1.431  13.047
57639SOL     OW74749  10.900   4.434   2.701
57639SOL    HW174750  10.809   4.408   2.689
57639SOL    HW274751  10.895   4.521   2.740
57640SOL     OW74752  11.178  13.631  13.922
57640SOL    HW174753  11.178  13.593  13.834
57640SOL    HW274754  11.091  13.670  13.931
57641SOL     OW74755  14.593  14.216   8.349
57641SOL    HW174756  14.649  14.293   8.350
57641SOL    HW274757  14.587  14.188   8.440
57642SOL     OW74758   5.365  11.979   3.774
57642SOL    HW174759   5.356  12.051   3.712
57642SOL    HW274760   5.418  11.914   3.728
57643SOL     OW74761  11.416  11.834  12.763
57643SOL    HW174762  11.509  11.814  12.756
57643SOL    HW274763  11.380  11.762  12.815
57644SOL     OW74764   4.195   7.364   2.580
57644SOL    HW174765   4.138   7.372   2.656
57644SOL    HW274766   4.261   7.300   2.606
57645SOL     OW74767   0.984   0.364   5.453
57645SOL    HW174768   0.973   0.387   5.545
57645SOL    HW274769   0.895   0.351   5.421
57646SOL     OW74770   6.565   5.496   7.543
57646SOL    HW174771   6.616   5.576   7.539
57646SOL    HW274772   6.630   5.426   7.554
57647SOL     OW74773   7.853   2.428  13.916
57647SOL    HW174774   7.874   2.455  14.005
57647SOL    HW274775   7.768   2.469  13.897
57648SOL     OW74776  13.258   2.901   3.362
57648SOL    HW174777  13.262   2.965   3.433
57648SOL    HW274778  13.185   2.843   3.386
57649SOL     OW74779   1.953  10.821   2.960
57649SOL    HW174780   1.912  10.893   2.913
57649SOL    HW274781   2.036  10.806   2.915
57650SOL     OW74782  12.167   6.366   2.265
57650SOL    HW174783  12.230   6.298   2.286
57650SOL    HW274784  12.089   6.318   2.235
57651SOL     OW74785   9.414   4.038   4.947
57651SOL    HW174786   9.369   4.080   5.020
57651SOL    HW274787   9.346   4.022   4.882
57652SOL     OW74788   5.872   6.382   0.249
57652SOL    HW174789   5.803   6.430   0.202
57652SOL    HW274790   5.943   6.445   0.258
57653SOL     OW74791   8.241   3.280   8.653
57653SOL    HW174792   8.323   3.291   8.605
57653SOL    HW274793   8.182   3.344   8.614
57654SOL     OW74794   2.784   8.563  12.922
57654SOL    HW174795   2.847   8.611  12.869
57654SOL    HW274796   2.725   8.630  12.957
57655SOL     OW74797   8.799   8.126   0.028
57655SOL    HW174798   8.856   8.202   0.037
57655SOL    HW274799   8.772   8.126  14.809
57656SOL     OW74800   1.121  10.935  13.629
57656SOL    HW174801   1.186  10.962  13.564
57656SOL    HW274802   1.066  11.013  13.642
57657SOL     OW74803  11.892  13.334   7.405
57657SOL    HW174804  11.968  13.391   7.399
57657SOL    HW274805  11.895  13.282   7.325
57658SOL     OW74806   5.828   9.086   5.755
57658SOL    HW174807   5.907   9.095   5.809
57658SOL    HW274808   5.766   9.150   5.792
57659SOL     OW74809  13.339  11.506   2.434
57659SOL    HW174810  13.390  11.586   2.424
57659SOL    HW274811  13.403  11.439   2.457
57660SOL     OW74812   9.380   2.923  13.308
57660SOL    HW174813   9.340   2.859  13.367
57660SOL    HW274814   9.414   2.871  13.235
57661SOL     OW74815  10.062  11.709   5.138
57661SOL    HW174816  10.039  11.638   5.198
57661SOL    HW274817  10.115  11.666   5.070
57662SOL     OW74818  11.326  11.981  14.553
57662SOL    HW174819  11.274  11.901  14.559
57662SOL    HW274820  11.394  11.970  14.619
57663SOL     OW74821   7.925  13.289  12.356
57663SOL    HW174822   7.832  13.294  12.378
57663SOL    HW274823   7.969  13.323  12.434
57664SOL     OW74824   4.528  11.774   4.516
57664SOL    HW174825   4.517  11.833   4.442
57664SOL    HW274826   4.594  11.817   4.571
57665SOL     OW74827   3.510   2.074   3.258
57665SOL    HW174828   3.592   2.123   3.244
57665SOL    HW274829   3.441   2.141   3.249
57666SOL     OW74830  10.096  12.284   2.753
57666SOL    HW174831  10.122  12.366   2.711
57666SOL    HW274832  10.138  12.287   2.839
57667SOL     OW74833   0.932   7.289   7.294
57667SOL    HW174834   1.000   7.355   7.284
57667SOL    HW274835   0.862   7.316   7.234
57668SOL     OW74836   6.639   4.982   1.969
57668SOL    HW174837   6.614   4.908   1.913
57668SOL    HW274838   6.566   4.990   2.031
57669SOL     OW74839   7.460   2.575   7.973
57669SOL    HW174840   7.512   2.603   7.898
57669SOL    HW274841   7.371   2.605   7.954
57670SOL     OW74842   3.768   9.397   3.576
57670SOL    HW174843   3.804   9.449   3.648
57670SOL    HW274844   3.791   9.307   3.598
57671SOL     OW74845  14.697   1.355  13.029
57671SOL    HW174846  14.790   1.361  13.007
57671SOL    HW274847  14.685   1.419  13.099
57672SOL     OW74848  10.705   9.379   7.563
57672SOL    HW174849  10.699   9.298   7.511
57672SOL    HW274850  10.796   9.406   7.553
57673SOL     OW74851  12.374   2.894  12.037
57673SOL    HW174852  12.363   2.890  11.942
57673SOL    HW274853  12.415   2.810  12.060
57674SOL     OW74854  11.383  12.651   4.429
57674SOL    HW174855  11.425  12.715   4.486
57674SOL    HW274856  11.293  12.644   4.462
57675SOL     OW74857   8.414   4.688   9.742
57675SOL    HW174858   8.332   4.738   9.743
57675SOL    HW274859   8.483   4.755   9.740
57676SOL     OW74860   3.292  14.433   5.874
57676SOL    HW174861   3.369  14.390   5.837
57676SOL    HW274862   3.231  14.440   5.800
57677SOL     OW74863   2.725   7.241   3.358
57677SOL    HW174864   2.687   7.256   3.445
57677SOL    HW274865   2.676   7.300   3.301
57678SOL     OW74866   6.740   9.501   2.515
57678SOL    HW174867   6.750   9.577   2.573
57678SOL    HW274868   6.710   9.431   2.573
57679SOL     OW74869   4.462   3.973  12.209
57679SOL    HW174870   4.525   3.916  12.166
57679SOL    HW274871   4.397   3.992  12.141
57680SOL     OW74872  10.609   3.180   9.612
57680SOL    HW174873  10.695   3.199   9.649
57680SOL    HW274874  10.622   3.101   9.560
57681SOL     OW74875   2.671  10.340  13.673
57681SOL    HW174876   2.604  10.328  13.740
57681SOL    HW274877   2.712  10.423  13.695
57682SOL     OW74878   7.585   4.316  10.388
57682SOL    HW174879   7.587   4.297  10.294
57682SOL    HW274880   7.615   4.235  10.429
57683SOL     OW74881  13.638   2.132  13.441
57683SOL    HW174882  13.599   2.099  13.522
57683SOL    HW274883  13.638   2.057  13.381
57684SOL     OW74884   0.390   3.020   8.543
57684SOL    HW174885   0.417   3.067   8.464
57684SOL    HW274886   0.328   3.078   8.586
57685SOL     OW74887  11.927   6.136  11.093
57685SOL    HW174888  11.887   6.096  11.015
57685SOL    HW274889  11.979   6.065  11.132
57686SOL     OW74890  11.523   0.924   5.761
57686SOL    HW174891  11.465   0.996   5.786
57686SOL    HW274892  11.482   0.886   5.684
57687SOL     OW74893   3.203  13.540   2.117
57687SOL    HW174894   3.135  13.598   2.150
57687SOL    HW274895   3.157  13.459   2.094
57688SOL     OW74896   4.360  13.712   6.588
57688SOL    HW174897   4.334  13.656   6.661
57688SOL    HW274898   4.418  13.777   6.628
57689SOL     OW74899   3.053   1.213  13.713
57689SOL    HW174900   3.131   1.181  13.668
57689SOL    HW274901   3.077   1.215  13.805
57690SOL     OW74902   5.533   7.872   7.113
57690SOL    HW174903   5.508   7.941   7.051
57690SOL    HW274904   5.596   7.914   7.171
57691SOL     OW74905  14.145   1.138   7.765
57691SOL    HW174906  14.064   1.176   7.730
57691SOL    HW274907  14.116   1.063   7.816
57692SOL     OW74908  10.108  14.218  12.660
57692SOL    HW174909  10.048  14.207  12.733
57692SOL    HW274910  10.184  14.165  12.683
57693SOL     OW74911   4.270  10.399  14.073
57693SOL    HW174912   4.321  10.465  14.026
57693SOL    HW274913   4.269  10.430  14.164
57694SOL     OW74914   4.859  12.547  13.790
57694SOL    HW174915   4.893  12.632  13.761
57694SOL    HW274916   4.913  12.524  13.865
57695SOL     OW74917  14.812  11.802   8.596
57695SOL    HW174918  14.772  11.730   8.547
57695SOL    HW274919  14.857  11.759   8.669
57696SOL     OW74920   9.201   3.333  12.282
57696SOL    HW174921   9.166   3.256  12.328
57696SOL    HW274922   9.281   3.302  12.240
57697SOL     OW74923   7.862  10.085   0.357
57697SOL    HW174924   7.849  10.020   0.288
57697SOL    HW274925   7.880  10.166   0.310
57698SOL     OW74926   0.815   3.441   1.393
57698SOL    HW174927   0.770   3.361   1.421
57698SOL    HW274928   0.745   3.499   1.365
57699SOL     OW74929   3.579  14.799   3.136
57699SOL    HW174930   3.517  14.727   3.148
57699SOL    HW274931   3.635  14.796   3.213
57700SOL     OW74932   4.248   3.682   8.425
57700SOL    HW174933   4.286   3.768   8.445
57700SOL    HW274934   4.273   3.666   8.334
57701SOL     OW74935   8.540   0.668  14.835
57701SOL    HW174936   8.486   0.708  14.767
57701SOL    HW274937   8.491   0.591  14.863
57702SOL     OW74938   8.335   2.845   5.550
57702SOL    HW174939   8.335   2.866   5.456
57702SOL    HW274940   8.285   2.763   5.555
57703SOL     OW74941   0.795  13.800   6.175
57703SOL    HW174942   0.794  13.798   6.079
57703SOL    HW274943   0.702  13.794   6.200
57704SOL     OW74944  11.955  10.159   6.339
57704SOL    HW174945  11.971  10.253   6.341
57704SOL    HW274946  11.891  10.144   6.408
57705SOL     OW74947   5.655   0.972   8.944
57705SOL    HW174948   5.711   0.908   8.987
57705SOL    HW274949   5.637   1.037   9.012
57706SOL     OW74950   2.988   2.679   5.932
57706SOL    HW174951   2.989   2.716   5.844
57706SOL    HW274952   3.000   2.755   5.989
57707SOL     OW74953   8.504   0.440   8.210
57707SOL    HW174954   8.528   0.459   8.300
57707SOL    HW274955   8.545   0.356   8.191
57708SOL     OW74956   1.413   0.790   4.516
57708SOL    HW174957   1.490   0.742   4.548
57708SOL    HW274958   1.435   0.882   4.531
57709SOL     OW74959  10.399  12.987   6.857
57709SOL    HW174960  10.454  12.913   6.884
57709SOL    HW274961  10.459  13.062   6.858
57710SOL     OW74962  14.666   2.879   2.016
57710SOL    HW174963  14.737   2.889   2.079
57710SOL    HW274964  14.708   2.845   1.937
57711SOL     OW74965   5.586  14.496   8.756
57711SOL    HW174966   5.615  14.581   8.786
57711SOL    HW274967   5.576  14.444   8.835
57712SOL     OW74968   0.778   4.905   7.251
57712SOL    HW174969   0.754   4.868   7.335
57712SOL    HW274970   0.813   4.831   7.201
57713SOL     OW74971  13.626   7.244  10.966
57713SOL    HW174972  13.714   7.243  11.004
57713SOL    HW274973  13.589   7.158  10.988
57714SOL     OW74974   4.476   5.201   7.658
57714SOL    HW174975   4.420   5.271   7.625
57714SOL    HW274976   4.438   5.178   7.743
57715SOL     OW74977  10.107  10.169  11.088
57715SOL    HW174978  10.050  10.092  11.089
57715SOL    HW274979  10.072  10.225  11.019
57716SOL     OW74980   1.417  12.966  11.717
57716SOL    HW174981   1.373  13.039  11.675
57716SOL    HW274982   1.416  12.987  11.810
57717SOL     OW74983  14.276   1.257   2.454
57717SOL    HW174984  14.237   1.234   2.538
57717SOL    HW274985  14.370   1.250   2.468
57718SOL     OW74986   6.253  13.271   7.256
57718SOL    HW174987   6.280  13.304   7.171
57718SOL    HW274988   6.229  13.349   7.306
57719SOL     OW74989   5.288   8.220   7.540
57719SOL    HW174990   5.272   8.230   7.634
57719SOL    HW274991   5.379   8.191   7.534
57720SOL     OW74992   0.710   3.367   9.384
57720SOL    HW174993   0.681   3.399   9.469
57720SOL    HW274994   0.653   3.411   9.320
57721SOL     OW74995  13.341   9.635  13.766
57721SOL    HW174996  13.395   9.574  13.816
57721SOL    HW274997  13.251   9.615  13.793
57722SOL     OW74998  14.534   9.821   3.460
57722SOL    HW174999  14.567   9.849   3.546
57722SOL    HW275000  14.517   9.728   3.470
57723SOL     OW75001   4.375  11.619   2.620
57723SOL    HW175002   4.364  11.540   2.567
57723SOL    HW275003   4.293  11.666   2.610
57724SOL     OW75004   5.661  11.282  12.302
57724SOL    HW175005   5.740  11.246  12.261
57724SOL    HW275006   5.627  11.344  12.238
57725SOL     OW75007   9.915  11.172   8.960
57725SOL    HW175008   9.879  11.084   8.957
57725SOL    HW275009   9.859  11.219   9.022
57726SOL     OW75010   2.483   4.188   1.916
57726SOL    HW175011   2.425   4.129   1.869
57726SOL    HW275012   2.543   4.221   1.848
57727SOL     OW75013   7.462   6.946   6.238
57727SOL    HW175014   7.376   6.922   6.203
57727SOL    HW275015   7.461   7.042   6.239
57728SOL     OW75016   9.778   3.215  12.587
57728SOL    HW175017   9.738   3.130  12.608
57728SOL    HW275018   9.808   3.248  12.672
57729SOL     OW75019   7.464  10.004  11.835
57729SOL    HW175020   7.476   9.944  11.908
57729SOL    HW275021   7.376   9.984  11.803
57730SOL     OW75022  14.742  13.031   1.767
57730SOL    HW175023  14.771  13.008   1.678
57730SOL    HW275024  14.822  13.057   1.812
57731SOL     OW75025  11.310  14.013  12.547
57731SOL    HW175026  11.265  14.095  12.528
57731SOL    HW275027  11.390  14.017  12.495
57732SOL     OW75028   2.844   1.135   8.746
57732SOL    HW175029   2.919   1.075   8.741
57732SOL    HW275030   2.773   1.082   8.782
57733SOL     OW75031   6.180  13.932   5.116
57733SOL    HW175032   6.087  13.928   5.094
57733SOL    HW275033   6.224  13.897   5.039
57734SOL     OW75034   8.988  10.149   4.211
57734SOL    HW175035   9.026  10.067   4.179
57734SOL    HW275036   9.028  10.162   4.296
57735SOL     OW75037   9.211  14.759   4.874
57735SOL    HW175038   9.260  14.760   4.956
57735SOL    HW275039   9.279  14.769   4.806
57736SOL     OW75040   5.279   6.366   2.888
57736SOL    HW175041   5.315   6.439   2.838
57736SOL    HW275042   5.356   6.317   2.918
57737SOL     OW75043   1.249  13.346   8.927
57737SOL    HW175044   1.176  13.382   8.977
57737SOL    HW275045   1.305  13.305   8.992
57738SOL     OW75046  10.706   3.216   9.203
57738SOL    HW175047  10.615   3.217   9.232
57738SOL    HW275048  10.742   3.298   9.236
57739SOL     OW75049  14.493   5.290  10.611
57739SOL    HW175050  14.513   5.354  10.679
57739SOL    HW275051  14.432   5.334  10.552
57740SOL     OW75052   6.487   9.796  14.489
57740SOL    HW175053   6.546   9.742  14.542
57740SOL    HW275054   6.497   9.763  14.400
57741SOL     OW75055   7.756   5.568   5.522
57741SOL    HW175056   7.827   5.632   5.516
57741SOL    HW275057   7.780   5.500   5.459
57742SOL     OW75058  12.473   4.177   3.296
57742SOL    HW175059  12.494   4.254   3.242
57742SOL    HW275060  12.429   4.214   3.372
57743SOL     OW75061  10.009  14.731  10.959
57743SOL    HW175062   9.940  14.793  10.982
57743SOL    HW275063   9.965  14.647  10.950
57744SOL     OW75064  11.066   5.935   5.097
57744SOL    HW175065  11.057   5.853   5.146
57744SOL    HW275066  11.142   5.922   5.040
57745SOL     OW75067  13.414   8.472  12.694
57745SOL    HW175068  13.437   8.554  12.738
57745SOL    HW275069  13.329   8.490  12.654
57746SOL     OW75070   6.173   5.628   9.973
57746SOL    HW175071   6.220   5.666  10.048
57746SOL    HW275072   6.083   5.658   9.983
57747SOL     OW75073  13.731   1.572   6.513
57747SOL    HW175074  13.673   1.501   6.484
57747SOL    HW275075  13.757   1.616   6.432
57748SOL     OW75076   5.830  13.045   4.733
57748SOL    HW175077   5.905  12.997   4.770
57748SOL    HW275078   5.759  13.032   4.796
57749SOL     OW75079   9.935  11.750   2.830
57749SOL    HW175080   9.929  11.766   2.736
57749SOL    HW275081   9.884  11.820   2.870
57750SOL     OW75082  10.220  13.659  10.549
57750SOL    HW175083  10.279  13.651  10.473
57750SOL    HW275084  10.224  13.751  10.573
57751SOL     OW75085  14.646   6.127  12.672
57751SOL    HW175086  14.636   6.116  12.577
57751SOL    HW275087  14.636   6.221  12.686
57752SOL     OW75088   5.980   8.990   4.175
57752SOL    HW175089   5.918   8.920   4.156
57752SOL    HW275090   6.064   8.957   4.143
57753SOL     OW75091  13.756   4.909  10.593
57753SOL    HW175092  13.733   4.929  10.684
57753SOL    HW275093  13.820   4.838  10.600
57754SOL     OW75094  11.727   3.099   7.994
57754SOL    HW175095  11.755   3.011   7.972
57754SOL    HW275096  11.632   3.097   7.986
57755SOL     OW75097  13.068   6.839  10.308
57755SOL    HW175098  13.076   6.746  10.285
57755SOL    HW275099  13.143   6.855  10.366
57756SOL     OW75100   9.724   0.980   5.221
57756SOL    HW175101   9.700   0.913   5.285
57756SOL    HW275102   9.790   0.938   5.166
57757SOL     OW75103   0.435   8.962   1.369
57757SOL    HW175104   0.449   8.991   1.279
57757SOL    HW275105   0.386   9.033   1.410
57758SOL     OW75106   3.921   0.370   0.948
57758SOL    HW175107   3.920   0.300   1.013
57758SOL    HW275108   3.841   0.358   0.897
57759SOL     OW75109  11.982  13.165  13.389
57759SOL    HW175110  11.986  13.069  13.392
57759SOL    HW275111  12.033  13.189  13.311
57760SOL     OW75112   0.938   0.031  13.356
57760SOL    HW175113   1.026   0.066  13.370
57760SOL    HW275114   0.951  14.825  13.305
57761SOL     OW75115   0.959   2.492   2.274
57761SOL    HW175116   1.015   2.428   2.230
57761SOL    HW275117   0.876   2.445   2.288
57762SOL     OW75118  11.891  11.985  14.181
57762SOL    HW175119  11.851  12.011  14.264
57762SOL    HW275120  11.851  11.900  14.161
57763SOL     OW75121   0.841  11.225  13.116
57763SOL    HW175122   0.805  11.289  13.178
57763SOL    HW275123   0.935  11.229  13.128
57764SOL     OW75124   5.135  13.081  12.554
57764SOL    HW175125   5.041  13.101  12.544
57764SOL    HW275126   5.147  12.997  12.509
57765SOL     OW75127   8.366   8.354   2.082
57765SOL    HW175128   8.421   8.429   2.106
57765SOL    HW275129   8.336   8.319   2.166
57766SOL     OW75130   7.698  12.214   6.935
57766SOL    HW175131   7.707  12.300   6.977
57766SOL    HW275132   7.678  12.234   6.843
57767SOL     OW75133   9.663   8.031   9.927
57767SOL    HW175134   9.597   7.972   9.891
57767SOL    HW275135   9.710   7.977   9.992
57768SOL     OW75136   9.618   4.435   8.200
57768SOL    HW175137   9.545   4.375   8.214
57768SOL    HW275138   9.691   4.395   8.247
57769SOL     OW75139  12.791   9.950   8.888
57769SOL    HW175140  12.857   9.894   8.847
57769SOL    HW275141  12.774  10.018   8.822
57770SOL     OW75142  10.884  12.321  13.706
57770SOL    HW175143  10.880  12.393  13.642
57770SOL    HW275144  10.794  12.288  13.710
57771SOL     OW75145   3.202   9.467   5.996
57771SOL    HW175146   3.213   9.387   6.047
57771SOL    HW275147   3.291   9.490   5.969
57772SOL     OW75148   0.765   8.810  10.643
57772SOL    HW175149   0.858   8.815  10.623
57772SOL    HW275150   0.735   8.901  10.640
57773SOL     OW75151  14.005   2.029   1.894
57773SOL    HW175152  14.078   2.010   1.954
57773SOL    HW275153  14.020   1.972   1.819
57774SOL     OW75154   0.658   8.283   5.232
57774SOL    HW175155   0.670   8.196   5.269
57774SOL    HW275156   0.610   8.269   5.151
57775SOL     OW75157   1.239   3.163   3.037
57775SOL    HW175158   1.259   3.084   2.985
57775SOL    HW275159   1.253   3.235   2.976
57776SOL     OW75160   6.657   1.637  11.057
57776SOL    HW175161   6.582   1.646  11.116
57776SOL    HW275162   6.673   1.542  11.054
57777SOL     OW75163   7.888   4.850   1.781
57777SOL    HW175164   7.952   4.781   1.801
57777SOL    HW275165   7.843   4.819   1.703
57778SOL     OW75166  14.340   5.416  11.432
57778SOL    HW175167  14.365   5.472  11.505
57778SOL    HW275168  14.387   5.452  11.357
57779SOL     OW75169   8.928  13.424   8.498
57779SOL    HW175170   8.845  13.415   8.453
57779SOL    HW275171   8.907  13.473   8.578
57780SOL     OW75172   9.594   9.476   0.884
57780SOL    HW175173   9.580   9.567   0.858
57780SOL    HW275174   9.540   9.426   0.823
57781SOL     OW75175   1.935   3.672  10.480
57781SOL    HW175176   1.941   3.680  10.384
57781SOL    HW275177   2.009   3.723  10.512
57782SOL     OW75178   0.357   1.449   4.966
57782SOL    HW175179   0.436   1.404   4.936
57782SOL    HW275180   0.288   1.383   4.960
57783SOL     OW75181  10.211   0.868   6.208
57783SOL    HW175182  10.264   0.911   6.275
57783SOL    HW275183  10.143   0.821   6.257
57784SOL     OW75184  11.483  14.548   4.531
57784SOL    HW175185  11.499  14.589   4.616
57784SOL    HW275186  11.472  14.455   4.551
57785SOL     OW75187   8.922   6.076  10.065
57785SOL    HW175188   8.896   6.036  10.148
57785SOL    HW275189   8.966   6.157  10.090
57786SOL     OW75190   0.932   0.543   2.299
57786SOL    HW175191   0.859   0.604   2.311
57786SOL    HW275192   0.966   0.563   2.212
57787SOL     OW75193   3.916  11.174   2.806
57787SOL    HW175194   4.001  11.140   2.834
57787SOL    HW275195   3.852  11.112   2.843
57788SOL     OW75196   9.912  14.552  13.294
57788SOL    HW175197  10.005  14.532  13.294
57788SOL    HW275198   9.907  14.646  13.309
57789SOL     OW75199  11.515   1.279   7.592
57789SOL    HW175200  11.596   1.256   7.547
57789SOL    HW275201  11.536   1.268   7.685
57790SOL     OW75202   2.113  11.578   1.216
57790SOL    HW175203   2.152  11.629   1.287
57790SOL    HW275204   2.127  11.631   1.137
57791SOL     OW75205  14.360   9.702   9.099
57791SOL    HW175206  14.354   9.626   9.042
57791SOL    HW275207  14.452   9.729   9.095
57792SOL     OW75208   5.295   7.747  14.861
57792SOL    HW175209   5.377   7.701  14.843
57792SOL    HW275210   5.313   7.838  14.835
57793SOL     OW75211   6.695  12.621   3.164
57793SOL    HW175212   6.714  12.530   3.141
57793SOL    HW275213   6.749  12.639   3.241
57794SOL     OW75214   2.555   0.203   8.655
57794SOL    HW175215   2.575   0.289   8.691
57794SOL    HW275216   2.635   0.176   8.610
57795SOL     OW75217  13.267  11.257  12.062
57795SOL    HW175218  13.210  11.180  12.066
57795SOL    HW275219  13.274  11.277  11.969
57796SOL     OW75220   5.292   5.366   8.809
57796SOL    HW175221   5.360   5.361   8.743
57796SOL    HW275222   5.309   5.449   8.855
57797SOL     OW75223   0.100   2.144  11.893
57797SOL    HW175224   0.111   2.139  11.988
57797SOL    HW275225   0.141   2.065  11.860
57798SOL     OW75226  11.887   9.129   6.800
57798SOL    HW175227  11.833   9.204   6.824
57798SOL    HW275228  11.896   9.136   6.705
57799SOL     OW75229   7.909  14.122   0.921
57799SOL    HW175230   7.824  14.148   0.958
57799SOL    HW275231   7.965  14.198   0.934
57800SOL     OW75232   0.220  12.819   7.029
57800SOL    HW175233   0.274  12.766   7.088
57800SOL    HW275234   0.143  12.841   7.081
57801SOL     OW75235  14.457   2.847  10.808
57801SOL    HW175236  14.479   2.755  10.795
57801SOL    HW275237  14.540   2.888  10.833
57802SOL     OW75238   3.036   2.858   6.621
57802SOL    HW175239   2.970   2.874   6.554
57802SOL    HW275240   3.084   2.781   6.590
57803SOL     OW75241   8.684   8.081   7.340
57803SOL    HW175242   8.650   8.136   7.411
57803SOL    HW275243   8.654   8.125   7.260
57804SOL     OW75244   4.587   4.769   6.438
57804SOL    HW175245   4.660   4.729   6.485
57804SOL    HW275246   4.589   4.861   6.464
57805SOL     OW75247   2.879   9.721  11.715
57805SOL    HW175248   2.835   9.746  11.797
57805SOL    HW275249   2.969   9.752  11.727
57806SOL     OW75250   8.057   2.030   4.077
57806SOL    HW175251   8.113   2.091   4.124
57806SOL    HW275252   8.117   1.975   4.026
57807SOL     OW75253  10.649   1.325   6.267
57807SOL    HW175254  10.648   1.384   6.191
57807SOL    HW275255  10.671   1.381   6.341
57808SOL     OW75256  10.425   4.330   3.275
57808SOL    HW175257  10.399   4.420   3.297
57808SOL    HW275258  10.355   4.275   3.311
57809SOL     OW75259  14.798   6.177  11.476
57809SOL    HW175260  14.744   6.144  11.549
57809SOL    HW275261  14.760   6.137  11.398
57810SOL     OW75262   4.198   0.938   4.043
57810SOL    HW175263   4.240   0.960   3.960
57810SOL    HW275264   4.224   1.008   4.103
57811SOL     OW75265   1.534  10.524   6.436
57811SOL    HW175266   1.615  10.493   6.478
57811SOL    HW275267   1.552  10.615   6.414
57812SOL     OW75268   2.946  11.915  14.606
57812SOL    HW175269   2.851  11.922  14.597
57812SOL    HW275270   2.959  11.853  14.678
57813SOL     OW75271   5.853   2.767   8.853
57813SOL    HW175272   5.873   2.822   8.928
57813SOL    HW275273   5.880   2.679   8.880
57814SOL     OW75274   9.864   1.816   0.946
57814SOL    HW175275   9.888   1.809   0.854
57814SOL    HW275276   9.898   1.737   0.986
57815SOL     OW75277  11.990  13.656  12.609
57815SOL    HW175278  11.965  13.677  12.519
57815SOL    HW275279  12.009  13.562  12.607
57816SOL     OW75280   2.270   9.747   0.335
57816SOL    HW175281   2.323   9.824   0.356
57816SOL    HW275282   2.311   9.710   0.257
57817SOL     OW75283  10.422  12.861  11.880
57817SOL    HW175284  10.486  12.856  11.952
57817SOL    HW275285  10.378  12.945  11.894
57818SOL     OW75286   2.073   7.976   5.641
57818SOL    HW175287   2.010   7.906   5.661
57818SOL    HW275288   2.036   8.020   5.564
57819SOL     OW75289   1.991   3.448   9.490
57819SOL    HW175290   1.922   3.382   9.501
57819SOL    HW275291   1.951   3.530   9.517
57820SOL     OW75292   9.710   8.582   5.257
57820SOL    HW175293   9.773   8.514   5.283
57820SOL    HW275294   9.643   8.579   5.325
57821SOL     OW75295  12.644  11.422  11.930
57821SOL    HW175296  12.592  11.373  11.866
57821SOL    HW275297  12.678  11.356  11.989
57822SOL     OW75298   3.581   7.928   6.507
57822SOL    HW175299   3.638   7.992   6.548
57822SOL    HW275300   3.501   7.977   6.487
57823SOL     OW75301   6.975   6.426   5.691
57823SOL    HW175302   6.898   6.406   5.745
57823SOL    HW275303   6.957   6.513   5.656
57824SOL     OW75304   9.431   5.267   4.462
57824SOL    HW175305   9.385   5.331   4.408
57824SOL    HW275306   9.524   5.283   4.445
57825SOL     OW75307  12.882   8.516   2.831
57825SOL    HW175308  12.927   8.599   2.818
57825SOL    HW275309  12.916   8.459   2.762
57826SOL     OW75310   9.026   6.138  11.356
57826SOL    HW175311   9.087   6.140  11.430
57826SOL    HW275312   8.942   6.164  11.394
57827SOL     OW75313   8.730   8.761  14.099
57827SOL    HW175314   8.808   8.799  14.138
57827SOL    HW275315   8.754   8.670  14.081
57828SOL     OW75316   4.525   0.571   2.405
57828SOL    HW175317   4.607   0.541   2.444
57828SOL    HW275318   4.468   0.591   2.479
57829SOL     OW75319   9.873  13.083   3.350
57829SOL    HW175320   9.945  13.026   3.377
57829SOL    HW275321   9.820  13.027   3.293
57830SOL     OW75322  10.729   4.893   8.147
57830SOL    HW175323  10.699   4.971   8.195
57830SOL    HW275324  10.812   4.921   8.108
57831SOL     OW75325   9.904  14.402  14.133
57831SOL    HW175326   9.813  14.373  14.125
57831SOL    HW275327   9.923  14.396  14.227
57832SOL     OW75328   2.590  14.868   2.622
57832SOL    HW175329   2.677  14.867   2.662
57832SOL    HW275330   2.539  14.807   2.675
57833SOL     OW75331   5.695  11.852   8.244
57833SOL    HW175332   5.610  11.820   8.214
57833SOL    HW275333   5.724  11.788   8.308
57834SOL     OW75334   4.121   5.779   1.130
57834SOL    HW175335   4.165   5.737   1.055
57834SOL    HW275336   4.031   5.792   1.100
57835SOL     OW75337  11.094   7.297   6.759
57835SOL    HW175338  11.123   7.310   6.849
57835SOL    HW275339  11.038   7.373   6.741
57836SOL     OW75340  12.990   6.974   9.276
57836SOL    HW175341  12.931   6.924   9.219
57836SOL    HW275342  12.994   7.061   9.236
57837SOL     OW75343  13.017  12.858   7.297
57837SOL    HW175344  12.955  12.858   7.370
57837SOL    HW275345  13.093  12.809   7.329
57838SOL     OW75346   3.788   0.801   5.781
57838SOL    HW175347   3.856   0.832   5.721
57838SOL    HW275348   3.706   0.817   5.735
57839SOL     OW75349   4.611   7.385   4.834
57839SOL    HW175350   4.672   7.456   4.852
57839SOL    HW275351   4.652   7.307   4.872
57840SOL     OW75352   2.490   0.889  13.818
57840SOL    HW175353   2.405   0.851  13.794
57840SOL    HW275354   2.469   0.965  13.871
57841SOL     OW75355   7.480   4.682   1.079
57841SOL    HW175356   7.393   4.680   1.117
57841SOL    HW275357   7.538   4.654   1.150
57842SOL     OW75358   0.424   4.400   5.044
57842SOL    HW175359   0.401   4.352   4.964
57842SOL    HW275360   0.349   4.456   5.062
57843SOL     OW75361  12.872  11.786   6.762
57843SOL    HW175362  12.951  11.755   6.807
57843SOL    HW275363  12.878  11.881   6.767
57844SOL     OW75364   5.400   5.747  13.951
57844SOL    HW175365   5.336   5.818  13.954
57844SOL    HW275366   5.485   5.790  13.958
57845SOL     OW75367  11.623   8.797  13.289
57845SOL    HW175368  11.630   8.893  13.288
57845SOL    HW275369  11.540   8.780  13.332
57846SOL     OW75370  13.120  13.504   5.035
57846SOL    HW175371  13.155  13.456   4.960
57846SOL    HW275372  13.033  13.533   5.007
57847SOL     OW75373   2.894  13.444   3.468
57847SOL    HW175374   2.864  13.420   3.381
57847SOL    HW275375   2.847  13.524   3.489
57848SOL     OW75376   3.838   6.086   2.473
57848SOL    HW175377   3.880   6.108   2.557
57848SOL    HW275378   3.911   6.073   2.413
57849SOL     OW75379   6.869   5.071   0.737
57849SOL    HW175380   6.845   4.982   0.712
57849SOL    HW275381   6.843   5.078   0.829
57850SOL     OW75382   2.235  12.107   6.152
57850SOL    HW175383   2.199  12.130   6.238
57850SOL    HW275384   2.329  12.124   6.160
57851SOL     OW75385   5.168   8.053   1.529
57851SOL    HW175386   5.203   7.989   1.591
57851SOL    HW275387   5.212   8.032   1.446
57852SOL     OW75388   2.873   0.602   2.381
57852SOL    HW175389   2.839   0.654   2.308
57852SOL    HW275390   2.919   0.529   2.340
57853SOL     OW75391   3.583   1.587   4.435
57853SOL    HW175392   3.586   1.494   4.416
57853SOL    HW275393   3.664   1.622   4.398
57854SOL     OW75394   5.340   2.879   6.807
57854SOL    HW175395   5.322   2.926   6.889
57854SOL    HW275396   5.256   2.843   6.781
57855SOL     OW75397   6.782   8.076  12.617
57855SOL    HW175398   6.865   8.068  12.664
57855SOL    HW275399   6.755   8.167  12.633
57856SOL     OW75400   0.371   9.965   1.988
57856SOL    HW175401   0.434   9.900   2.018
57856SOL    HW275402   0.410  10.049   2.012
57857SOL     OW75403   6.128  10.765   1.709
57857SOL    HW175404   6.104  10.801   1.795
57857SOL    HW275405   6.223  10.780   1.703
57858SOL     OW75406   8.901   0.547   4.980
57858SOL    HW175407   8.894   0.459   4.944
57858SOL    HW275408   8.975   0.587   4.933
57859SOL     OW75409   1.167  10.198   1.541
57859SOL    HW175410   1.085  10.239   1.569
57859SOL    HW275411   1.163  10.198   1.446
57860SOL     OW75412  13.307  11.353   4.529
57860SOL    HW175413  13.235  11.331   4.588
57860SOL    HW275414  13.296  11.294   4.455
57861SOL     OW75415   9.025   1.585  12.808
57861SOL    HW175416   8.936   1.601  12.838
57861SOL    HW275417   9.079   1.589  12.887
57862SOL     OW75418  14.757  14.691  12.938
57862SOL    HW175419  14.829  14.719  12.883
57862SOL    HW275420  14.768  14.740  13.020
57863SOL     OW75421   9.942   3.608  10.528
57863SOL    HW175422   9.999   3.575  10.598
57863SOL    HW275423   9.979   3.571  10.448
57864SOL     OW75424   4.812   7.507   7.517
57864SOL    HW175425   4.783   7.526   7.428
57864SOL    HW275426   4.767   7.572   7.571
57865SOL     OW75427   9.548   5.931   6.269
57865SOL    HW175428   9.495   5.879   6.329
57865SOL    HW275429   9.536   6.022   6.297
57866SOL     OW75430   9.386   4.326   9.706
57866SOL    HW175431   9.423   4.398   9.757
57866SOL    HW275432   9.320   4.287   9.762
57867SOL     OW75433   7.233  10.946   3.287
57867SOL    HW175434   7.282  10.926   3.366
57867SOL    HW275435   7.273  10.891   3.219
57868SOL     OW75436   8.182   2.319   6.723
57868SOL    HW175437   8.152   2.353   6.807
57868SOL    HW275438   8.237   2.389   6.688
57869SOL     OW75439   4.762   6.483  11.512
57869SOL    HW175440   4.789   6.559  11.462
57869SOL    HW275441   4.701   6.437  11.453
57870SOL     OW75442   3.467   9.203   9.558
57870SOL    HW175443   3.434   9.113   9.552
57870SOL    HW275444   3.464   9.224   9.651
57871SOL     OW75445   5.799  11.331  13.472
57871SOL    HW175446   5.880  11.380  13.461
57871SOL    HW275447   5.736  11.375  13.415
57872SOL     OW75448  11.108   9.683   3.049
57872SOL    HW175449  11.161   9.673   3.128
57872SOL    HW275450  11.167   9.724   2.986
57873SOL     OW75451  10.500  12.289   1.939
57873SOL    HW175452  10.464  12.201   1.928
57873SOL    HW275453  10.428  12.340   1.979
57874SOL     OW75454  12.590   3.689   3.817
57874SOL    HW175455  12.511   3.741   3.803
57874SOL    HW275456  12.557   3.601   3.838
57875SOL     OW75457  10.074   4.184  11.768
57875SOL    HW175458  10.010   4.198  11.698
57875SOL    HW275459  10.051   4.249  11.834
57876SOL     OW75460   6.451   7.921   8.779
57876SOL    HW175461   6.530   7.966   8.809
57876SOL    HW275462   6.454   7.927   8.684
57877SOL     OW75463   5.858  10.485  12.946
57877SOL    HW175464   5.946  10.448  12.944
57877SOL    HW275465   5.800  10.409  12.940
57878SOL     OW75466   7.503   3.562   6.988
57878SOL    HW175467   7.481   3.472   6.962
57878SOL    HW275468   7.561   3.593   6.917
57879SOL     OW75469   0.742  11.815   2.097
57879SOL    HW175470   0.724  11.761   2.020
57879SOL    HW275471   0.657  11.827   2.139
57880SOL     OW75472   5.845   9.433   4.630
57880SOL    HW175473   5.876   9.450   4.541
57880SOL    HW275474   5.785   9.506   4.648
57881SOL     OW75475   2.784   9.280  14.783
57881SOL    HW175476   2.693   9.253  14.770
57881SOL    HW275477   2.834   9.198  14.785
57882SOL     OW75478  13.333   6.620   9.664
57882SOL    HW175479  13.260   6.643   9.723
57882SOL    HW275480  13.371   6.705   9.640
57883SOL     OW75481  11.716  14.683  14.657
57883SOL    HW175482  11.757  14.672  14.571
57883SOL    HW275483  11.622  14.683  14.640
57884SOL     OW75484   8.535   4.865   2.016
57884SOL    HW175485   8.616   4.880   2.065
57884SOL    HW275486   8.557   4.889   1.926
57885SOL     OW75487  11.775   4.101   2.258
57885SOL    HW175488  11.865   4.094   2.289
57885SOL    HW275489  11.746   4.010   2.251
57886SOL     OW75490  10.276   7.124   6.242
57886SOL    HW175491  10.259   7.067   6.167
57886SOL    HW275492  10.319   7.201   6.204
57887SOL     OW75493  12.416  11.978  12.866
57887SOL    HW175494  12.349  12.040  12.894
57887SOL    HW275495  12.427  11.995  12.772
57888SOL     OW75496   8.439   5.199   4.542
57888SOL    HW175497   8.459   5.153   4.623
57888SOL    HW275498   8.417   5.288   4.570
57889SOL     OW75499   3.998   9.756  11.613
57889SOL    HW175500   3.979   9.844  11.580
57889SOL    HW275501   4.085   9.763  11.653
57890SOL     OW75502  13.011   7.508   9.006
57890SOL    HW175503  13.042   7.573   9.069
57890SOL    HW275504  12.980   7.559   8.932
57891SOL     OW75505   3.539   1.979   0.288
57891SOL    HW175506   3.630   1.950   0.294
57891SOL    HW275507   3.505   1.969   0.378
57892SOL     OW75508   0.678  10.815   0.318
57892SOL    HW175509   0.726  10.804   0.236
57892SOL    HW275510   0.592  10.777   0.301
57893SOL     OW75511   4.631   6.346  13.723
57893SOL    HW175512   4.622   6.251  13.721
57893SOL    HW275513   4.544   6.380  13.702
57894SOL     OW75514  12.181   7.055   5.277
57894SOL    HW175515  12.175   6.972   5.229
57894SOL    HW275516  12.212   7.030   5.364
57895SOL     OW75517  13.339   4.836  14.807
57895SOL    HW175518  13.370   4.878  14.727
57895SOL    HW275519  13.244   4.835  14.798
57896SOL     OW75520   9.325   6.232   9.506
57896SOL    HW175521   9.365   6.175   9.571
57896SOL    HW275522   9.233   6.238   9.532
57897SOL     OW75523   2.330   4.814   8.259
57897SOL    HW175524   2.309   4.855   8.343
57897SOL    HW275525   2.425   4.813   8.255
57898SOL     OW75526   9.448   9.026   9.198
57898SOL    HW175527   9.355   9.018   9.219
57898SOL    HW275528   9.478   8.936   9.189
57899SOL     OW75529   8.619   0.458   1.687
57899SOL    HW175530   8.602   0.367   1.709
57899SOL    HW275531   8.687   0.455   1.620
57900SOL     OW75532   1.578   8.470   0.967
57900SOL    HW175533   1.498   8.521   0.961
57900SOL    HW275534   1.646   8.527   0.933
57901SOL     OW75535   3.216   1.460   2.593
57901SOL    HW175536   3.271   1.464   2.514
57901SOL    HW275537   3.273   1.423   2.660
57902SOL     OW75538  14.326  10.563   5.163
57902SOL    HW175539  14.413  10.545   5.129
57902SOL    HW275540  14.338  10.574   5.257
57903SOL     OW75541   5.975   5.933  11.868
57903SOL    HW175542   5.989   5.914  11.775
57903SOL    HW275543   5.885   5.967  11.872
57904SOL     OW75544  14.197   8.740  14.622
57904SOL    HW175545  14.164   8.673  14.562
57904SOL    HW275546  14.291   8.725  14.626
57905SOL     OW75547  10.427  10.051   8.248
57905SOL    HW175548  10.369   9.980   8.219
57905SOL    HW275549  10.475  10.014   8.322
57906SOL     OW75550   6.591   4.117  14.017
57906SOL    HW175551   6.556   4.105  14.105
57906SOL    HW275552   6.515   4.143  13.964
57907SOL     OW75553   7.455   6.694   3.790
57907SOL    HW175554   7.490   6.684   3.879
57907SOL    HW275555   7.398   6.617   3.778
57908SOL     OW75556  10.226  12.645   4.311
57908SOL    HW175557  10.203  12.607   4.226
57908SOL    HW275558  10.204  12.577   4.375
57909SOL     OW75559   9.493   6.605   2.077
57909SOL    HW175560   9.419   6.550   2.101
57909SOL    HW275561   9.568   6.564   2.120
57910SOL     OW75562   6.024   7.745   0.591
57910SOL    HW175563   5.990   7.765   0.504
57910SOL    HW275564   5.993   7.657   0.610
57911SOL     OW75565  10.326  12.870   7.778
57911SOL    HW175566  10.408  12.826   7.799
57911SOL    HW275567  10.294  12.903   7.862
57912SOL     OW75568  12.138   7.923  12.523
57912SOL    HW175569  12.222   7.932  12.568
57912SOL    HW275570  12.108   7.835  12.544
57913SOL     OW75571   0.540  13.751   8.462
57913SOL    HW175572   0.511  13.664   8.487
57913SOL    HW275573   0.483  13.810   8.512
57914SOL     OW75574  13.380   4.708  13.882
57914SOL    HW175575  13.335   4.785  13.848
57914SOL    HW275576  13.457   4.698  13.825
57915SOL     OW75577   0.723  11.097  11.797
57915SOL    HW175578   0.766  11.160  11.855
57915SOL    HW275579   0.794  11.051  11.754
57916SOL     OW75580   2.322   2.022   9.395
57916SOL    HW175581   2.363   1.990   9.315
57916SOL    HW275582   2.263   2.092   9.366
57917SOL     OW75583  12.276   9.326   3.039
57917SOL    HW175584  12.291   9.396   2.976
57917SOL    HW275585  12.345   9.262   3.020
57918SOL     OW75586  11.805   6.854   7.253
57918SOL    HW175587  11.734   6.903   7.212
57918SOL    HW275588  11.830   6.908   7.328
57919SOL     OW75589   7.667   0.951  13.895
57919SOL    HW175590   7.665   1.046  13.898
57919SOL    HW275591   7.751   0.927  13.935
57920SOL     OW75592   7.342  13.660   6.141
57920SOL    HW175593   7.379  13.727   6.083
57920SOL    HW275594   7.248  13.678   6.141
57921SOL     OW75595   0.975   1.380   2.207
57921SOL    HW175596   1.020   1.301   2.180
57921SOL    HW275597   1.005   1.447   2.146
57922SOL     OW75598   0.301  13.566   3.493
57922SOL    HW175599   0.343  13.482   3.476
57922SOL    HW275600   0.359  13.631   3.452
57923SOL     OW75601   7.041   1.381   8.276
57923SOL    HW175602   6.946   1.372   8.265
57923SOL    HW275603   7.058   1.352   8.366
57924SOL     OW75604  13.582  13.054   7.378
57924SOL    HW175605  13.632  13.134   7.395
57924SOL    HW275606  13.497  13.071   7.419
57925SOL     OW75607   3.614   0.342  11.503
57925SOL    HW175608   3.593   0.254  11.535
57925SOL    HW275609   3.556   0.354  11.428
57926SOL     OW75610  13.476   6.725  13.367
57926SOL    HW175611  13.401   6.753  13.419
57926SOL    HW275612  13.438   6.695  13.284
57927SOL     OW75613   3.402   9.323   0.780
57927SOL    HW175614   3.335   9.320   0.713
57927SOL    HW275615   3.456   9.245   0.763
57928SOL     OW75616   0.866   6.733   5.205
57928SOL    HW175617   0.921   6.809   5.185
57928SOL    HW275618   0.783   6.750   5.160
57929SOL     OW75619   2.697  10.208   9.948
57929SOL    HW175620   2.608  10.176   9.930
57929SOL    HW275621   2.686  10.263  10.026
57930SOL     OW75622  10.954   5.163   8.902
57930SOL    HW175623  10.963   5.102   8.829
57930SOL    HW275624  11.044   5.188   8.924
57931SOL     OW75625   7.133   5.277   2.547
57931SOL    HW175626   7.198   5.229   2.600
57931SOL    HW275627   7.071   5.210   2.519
57932SOL     OW75628   8.553   9.761   4.609
57932SOL    HW175629   8.600   9.678   4.624
57932SOL    HW275630   8.604   9.804   4.540
57933SOL     OW75631   6.559   9.701   8.048
57933SOL    HW175632   6.464   9.708   8.057
57933SOL    HW275633   6.577   9.609   8.067
57934SOL     OW75634   1.294  10.465   2.419
57934SOL    HW175635   1.376  10.514   2.427
57934SOL    HW275636   1.320  10.381   2.381
57935SOL     OW75637  11.062   2.604  12.852
57935SOL    HW175638  11.048   2.509  12.848
57935SOL    HW275639  11.065   2.632  12.761
57936SOL     OW75640   7.901   2.114   5.323
57936SOL    HW175641   7.814   2.100   5.361
57936SOL    HW275642   7.903   2.058   5.246
57937SOL     OW75643   5.681  10.319  11.469
57937SOL    HW175644   5.615  10.352  11.530
57937SOL    HW275645   5.635  10.253  11.417
57938SOL     OW75646   8.409  13.473   8.964
57938SOL    HW175647   8.322  13.458   8.927
57938SOL    HW275648   8.458  13.394   8.940
57939SOL     OW75649  10.106   8.798  14.587
57939SOL    HW175650  10.079   8.824  14.499
57939SOL    HW275651  10.052   8.722  14.607
57940SOL     OW75652  12.488  10.795   1.011
57940SOL    HW175653  12.472  10.889   1.007
57940SOL    HW275654  12.482  10.766   0.920
57941SOL     OW75655  14.299   1.336  10.868
57941SOL    HW175656  14.337   1.331  10.780
57941SOL    HW275657  14.316   1.426  10.896
57942SOL     OW75658  13.528  11.879   2.534
57942SOL    HW175659  13.467  11.920   2.595
57942SOL    HW275660  13.577  11.817   2.588
57943SOL     OW75661   0.503   6.675  14.143
57943SOL    HW175662   0.429   6.720  14.184
57943SOL    HW275663   0.506   6.590  14.186
57944SOL     OW75664   1.687   7.507  11.674
57944SOL    HW175665   1.769   7.472  11.639
57944SOL    HW275666   1.703   7.515  11.768
57945SOL     OW75667   1.940   4.755   1.112
57945SOL    HW175668   1.978   4.669   1.132
57945SOL    HW275669   1.951   4.806   1.191
57946SOL     OW75670   1.628   8.622   2.923
57946SOL    HW175671   1.599   8.650   2.836
57946SOL    HW275672   1.602   8.530   2.928
57947SOL     OW75673   7.883   1.966   5.105
57947SOL    HW175674   7.827   1.998   5.034
57947SOL    HW275675   7.971   1.965   5.067
57948SOL     OW75676   8.795   2.691  12.000
57948SOL    HW175677   8.850   2.645  12.064
57948SOL    HW275678   8.710   2.700  12.044
57949SOL     OW75679  11.773  13.581  12.830
57949SOL    HW175680  11.814  13.508  12.876
57949SOL    HW275681  11.692  13.544  12.793
57950SOL     OW75682   9.441   7.802  10.677
57950SOL    HW175683   9.499   7.739  10.636
57950SOL    HW275684   9.390   7.838  10.605
57951SOL     OW75685  13.586  10.452   9.186
57951SOL    HW175686  13.638  10.517   9.233
57951SOL    HW275687  13.566  10.494   9.102
57952SOL     OW75688  12.450   2.373   4.560
57952SOL    HW175689  12.355   2.380   4.558
57952SOL    HW275690  12.475   2.399   4.649
57953SOL     OW75691  12.022   5.187  12.381
57953SOL    HW175692  11.974   5.247  12.323
57953SOL    HW275693  11.954   5.139  12.427
57954SOL     OW75694   5.677   8.750   3.991
57954SOL    HW175695   5.601   8.699   3.964
57954SOL    HW275696   5.728   8.690   4.045
57955SOL     OW75697   1.409   6.698  14.784
57955SOL    HW175698   1.371   6.612  14.766
57955SOL    HW275699   1.504   6.683  14.781
57956SOL     OW75700  13.755  12.691   9.222
57956SOL    HW175701  13.717  12.770   9.261
57956SOL    HW275702  13.682  12.651   9.175
57957SOL     OW75703  13.610   0.065   7.382
57957SOL    HW175704  13.655   0.093   7.462
57957SOL    HW275705  13.541   0.129   7.369
57958SOL     OW75706  10.674   4.718   6.200
57958SOL    HW175707  10.588   4.699   6.163
57958SOL    HW275708  10.672   4.679   6.287
57959SOL     OW75709  14.737   6.520  12.783
57959SOL    HW175710  14.648   6.485  12.776
57959SOL    HW275711  14.769   6.525  12.692
57960SOL     OW75712   5.222  12.573   3.349
57960SOL    HW175713   5.216  12.669   3.350
57960SOL    HW275714   5.200  12.547   3.439
57961SOL     OW75715   0.392  10.698  11.252
57961SOL    HW175716   0.485  10.699  11.271
57961SOL    HW275717   0.362  10.611  11.280
57962SOL     OW75718   0.572  13.012   5.206
57962SOL    HW175719   0.536  13.072   5.271
57962SOL    HW275720   0.551  12.925   5.240
57963SOL     OW75721  10.731  10.546   7.527
57963SOL    HW175722  10.686  10.601   7.590
57963SOL    HW275723  10.812  10.593   7.507
57964SOL     OW75724   0.678   7.877   6.777
57964SOL    HW175725   0.712   7.960   6.811
57964SOL    HW275726   0.584   7.892   6.768
57965SOL     OW75727   4.997  11.835  12.239
57965SOL    HW175728   4.969  11.919  12.204
57965SOL    HW275729   5.015  11.781  12.162
57966SOL     OW75730   2.261   2.048  13.365
57966SOL    HW175731   2.212   2.005  13.294
57966SOL    HW275732   2.295   1.976  13.417
57967SOL     OW75733   0.663   9.438   5.377
57967SOL    HW175734   0.631   9.409   5.292
57967SOL    HW275735   0.594   9.414   5.438
57968SOL     OW75736   6.962  11.967  12.938
57968SOL    HW175737   6.942  12.045  12.990
57968SOL    HW275738   6.877  11.933  12.912
57969SOL     OW75739   6.244   6.841   1.531
57969SOL    HW175740   6.315   6.867   1.589
57969SOL    HW275741   6.209   6.923   1.497
57970SOL     OW75742   5.703   0.857   5.302
57970SOL    HW175743   5.772   0.811   5.349
57970SOL    HW275744   5.729   0.949   5.304
57971SOL     OW75745  12.959   1.042   5.642
57971SOL    HW175746  12.988   0.953   5.624
57971SOL    HW275747  12.865   1.041   5.629
57972SOL     OW75748   4.838   2.667   3.217
57972SOL    HW175749   4.753   2.687   3.255
57972SOL    HW275750   4.894   2.741   3.243
57973SOL     OW75751   6.053   9.496   9.765
57973SOL    HW175752   6.103   9.441   9.704
57973SOL    HW275753   5.984   9.534   9.711
57974SOL     OW75754   9.745   0.721   6.382
57974SOL    HW175755   9.708   0.685   6.302
57974SOL    HW275756   9.695   0.802   6.397
57975SOL     OW75757   8.627  11.452   2.013
57975SOL    HW175758   8.618  11.547   2.016
57975SOL    HW275759   8.539  11.420   1.991
57976SOL     OW75760  10.691  12.673   2.142
57976SOL    HW175761  10.684  12.578   2.145
57976SOL    HW275762  10.630  12.700   2.073
57977SOL     OW75763   7.068   0.204   5.265
57977SOL    HW175764   7.052   0.213   5.359
57977SOL    HW275765   6.988   0.237   5.224
57978SOL     OW75766  13.091   8.652   0.195
57978SOL    HW175767  13.000   8.651   0.167
57978SOL    HW275768  13.131   8.723   0.145
57979SOL     OW75769  14.081   1.277   2.248
57979SOL    HW175770  14.133   1.252   2.324
57979SOL    HW275771  14.048   1.194   2.212
57980SOL     OW75772   4.057   5.207   5.556
57980SOL    HW175773   4.061   5.300   5.535
57980SOL    HW275774   4.131   5.168   5.508
57981SOL     OW75775   5.881   5.814  14.491
57981SOL    HW175776   5.857   5.903  14.516
57981SOL    HW275777   5.960   5.824  14.438
57982SOL     OW75778  14.837  11.315   8.225
57982SOL    HW175779   0.018  11.393   8.213
57982SOL    HW275780  14.767  11.324   8.161
57983SOL     OW75781  10.357  10.256  10.947
57983SOL    HW175782  10.283  10.232  11.005
57983SOL    HW275783  10.326  10.234  10.859
57984SOL     OW75784   3.444   6.402   7.942
57984SOL    HW175785   3.456   6.413   7.847
57984SOL    HW275786   3.461   6.489   7.978
57985SOL     OW75787   6.110  11.174   1.310
57985SOL    HW175788   6.022  11.161   1.273
57985SOL    HW275789   6.169  11.160   1.235
57986SOL     OW75790   6.740   0.080  13.227
57986SOL    HW175791   6.725   0.054  13.136
57986SOL    HW275792   6.762  14.871  13.272
57987SOL     OW75793  11.494   4.820   3.304
57987SOL    HW175794  11.470   4.907   3.272
57987SOL    HW275795  11.493   4.828   3.399
57988SOL     OW75796   8.834   9.487   4.097
57988SOL    HW175797   8.751   9.463   4.054
57988SOL    HW275798   8.810   9.500   4.189
57989SOL     OW75799  11.338   5.653   9.040
57989SOL    HW175800  11.291   5.727   9.002
57989SOL    HW275801  11.404   5.692   9.096
57990SOL     OW75802   6.872  12.576   1.229
57990SOL    HW175803   6.795  12.530   1.265
57990SOL    HW275804   6.897  12.525   1.152
57991SOL     OW75805  11.306   9.696   9.745
57991SOL    HW175806  11.289   9.710   9.652
57991SOL    HW275807  11.398   9.722   9.757
57992SOL     OW75808   4.200  11.290   1.982
57992SOL    HW175809   4.276  11.345   1.963
57992SOL    HW275810   4.127  11.335   1.939
57993SOL     OW75811   4.432   4.380  10.957
57993SOL    HW175812   4.337   4.389  10.948
57993SOL    HW275813   4.447   4.378  11.052
57994SOL     OW75814   0.631   0.517   3.014
57994SOL    HW175815   0.583   0.577   3.072
57994SOL    HW275816   0.683   0.574   2.958
57995SOL     OW75817  10.025  12.984   0.428
57995SOL    HW175818  10.004  13.047   0.497
57995SOL    HW275819  10.117  13.000   0.407
57996SOL     OW75820   5.765   5.388   7.768
57996SOL    HW175821   5.697   5.433   7.818
57996SOL    HW275822   5.747   5.295   7.780
57997SOL     OW75823  10.827  10.186  11.373
57997SOL    HW175824  10.861  10.247  11.438
57997SOL    HW275825  10.738  10.216  11.355
57998SOL     OW75826   0.853   9.804   2.775
57998SOL    HW175827   0.833   9.799   2.682
57998SOL    HW275828   0.845   9.713   2.806
57999SOL     OW75829  13.947  10.630   4.031
57999SOL    HW175830  13.949  10.666   4.120
57999SOL    HW275831  13.867  10.576   4.030
58000SOL     OW75832   3.183   9.940   5.358
58000SOL    HW175833   3.175   9.892   5.275
58000SOL    HW275834   3.131  10.019   5.345
58001SOL     OW75835  10.635   7.269   5.456
58001SOL    HW175836  10.617   7.199   5.518
58001SOL    HW275837  10.586   7.344   5.488
58002SOL     OW75838  14.584   9.628  10.998
58002SOL    HW175839  14.491   9.610  11.008
58002SOL    HW275840  14.607   9.679  11.077
58003SOL     OW75841   2.600  12.939   6.977
58003SOL    HW175842   2.629  12.915   6.889
58003SOL    HW275843   2.601  12.857   7.027
58004SOL     OW75844   0.104   1.466   6.076
58004SOL    HW175845   0.180   1.502   6.122
58004SOL    HW275846   0.096   1.519   5.996
58005SOL     OW75847   6.979  14.497  12.083
58005SOL    HW175848   6.952  14.486  11.992
58005SOL    HW275849   6.979  14.592  12.096
58006SOL     OW75850  13.034  13.689   6.345
58006SOL    HW175851  13.074  13.655   6.425
58006SOL    HW275852  13.107  13.695   6.282
58007SOL     OW75853  13.587   0.002   1.358
58007SOL    HW175854  13.557   0.053   1.283
58007SOL    HW275855  13.668   0.046   1.386
58008SOL     OW75856  12.584   1.121  10.581
58008SOL    HW175857  12.621   1.133  10.668
58008SOL    HW275858  12.653   1.151  10.521
58009SOL     OW75859  11.486   4.228  10.943
58009SOL    HW175860  11.407   4.186  10.975
58009SOL    HW275861  11.557   4.171  10.973
58010SOL     OW75862  11.007   5.822   6.198
58010SOL    HW175863  10.925   5.789   6.162
58010SOL    HW275864  11.049   5.867   6.124
58011SOL     OW75865  12.658  13.195   0.686
58011SOL    HW175866  12.720  13.153   0.625
58011SOL    HW275867  12.710  13.260   0.732
58012SOL     OW75868   4.239   3.503  12.959
58012SOL    HW175869   4.279   3.525  12.875
58012SOL    HW275870   4.312   3.480  13.016
58013SOL     OW75871  11.984   2.864   3.413
58013SOL    HW175872  11.994   2.837   3.504
58013SOL    HW275873  11.891   2.886   3.405
58014SOL     OW75874   6.090   9.679   0.456
58014SOL    HW175875   6.169   9.626   0.465
58014SOL    HW275876   6.113   9.748   0.394
58015SOL     OW75877   2.760   3.473  14.255
58015SOL    HW175878   2.684   3.528  14.272
58015SOL    HW275879   2.788   3.498  14.167
58016SOL     OW75880   2.830  11.857   2.238
58016SOL    HW175881   2.890  11.833   2.308
58016SOL    HW275882   2.833  11.953   2.236
58017SOL     OW75883  14.561  13.378   6.398
58017SOL    HW175884  14.469  13.373   6.426
58017SOL    HW275885  14.561  13.443   6.328
58018SOL     OW75886   7.927  11.848   1.037
58018SOL    HW175887   7.907  11.893   0.955
58018SOL    HW275888   7.917  11.755   1.016
58019SOL     OW75889  13.621  13.049   2.069
58019SOL    HW175890  13.711  13.033   2.097
58019SOL    HW275891  13.620  13.142   2.044
58020SOL     OW75892  11.694   0.717  14.240
58020SOL    HW175893  11.632   0.790  14.234
58020SOL    HW275894  11.710   0.692  14.149
58021SOL     OW75895  12.596   5.123  11.526
58021SOL    HW175896  12.646   5.055  11.481
58021SOL    HW275897  12.562   5.178  11.455
58022SOL     OW75898   9.839   9.168   5.153
58022SOL    HW175899   9.884   9.186   5.071
58022SOL    HW275900   9.762   9.225   5.151
58023SOL     OW75901   5.807   5.550  12.184
58023SOL    HW175902   5.875   5.610  12.154
58023SOL    HW275903   5.726   5.599  12.175
58024SOL     OW75904  12.172   8.564   3.980
58024SOL    HW175905  12.108   8.633   3.963
58024SOL    HW275906  12.234   8.605   4.041
58025SOL     OW75907   2.436   9.464  11.189
58025SOL    HW175908   2.370   9.395  11.183
58025SOL    HW275909   2.490   9.453  11.111
58026SOL     OW75910  13.557   4.260  10.738
58026SOL    HW175911  13.607   4.301  10.809
58026SOL    HW275912  13.490   4.208  10.782
58027SOL     OW75913  11.280   5.439   4.761
58027SOL    HW175914  11.190   5.416   4.785
58027SOL    HW275915  11.322   5.463   4.843
58028SOL     OW75916   1.223   9.678  10.915
58028SOL    HW175917   1.281   9.619  10.962
58028SOL    HW275918   1.239   9.764  10.954
58029SOL     OW75919   3.782   4.377   4.688
58029SOL    HW175920   3.840   4.452   4.703
58029SOL    HW275921   3.753   4.388   4.598
58030SOL     OW75922   9.415   9.428   6.036
58030SOL    HW175923   9.369   9.354   5.997
58030SOL    HW275924   9.493   9.390   6.077
58031SOL     OW75925   9.288   8.450   3.247
58031SOL    HW175926   9.343   8.382   3.208
58031SOL    HW275927   9.349   8.519   3.270
58032SOL     OW75928   7.333   1.806   1.040
58032SOL    HW175929   7.310   1.837   1.127
58032SOL    HW275930   7.265   1.743   1.017
58033SOL     OW75931   7.581   0.310   4.024
58033SOL    HW175932   7.541   0.315   4.111
58033SOL    HW275933   7.669   0.278   4.041
58034SOL     OW75934   8.911   3.540   3.448
58034SOL    HW175935   8.839   3.523   3.387
58034SOL    HW275936   8.872   3.531   3.535
58035SOL     OW75937   7.219  12.273   7.524
58035SOL    HW175938   7.186  12.189   7.492
58035SOL    HW275939   7.307  12.254   7.555
58036SOL     OW75940  13.739   7.562   2.893
58036SOL    HW175941  13.692   7.584   2.974
58036SOL    HW275942  13.789   7.484   2.915
58037SOL     OW75943   0.654   3.731   2.633
58037SOL    HW175944   0.643   3.803   2.695
58037SOL    HW275945   0.743   3.742   2.599
58038SOL     OW75946   4.292   7.454  11.420
58038SOL    HW175947   4.366   7.441  11.480
58038SOL    HW275948   4.313   7.536  11.375
58039SOL     OW75949   3.907   5.260  11.917
58039SOL    HW175950   3.830   5.280  11.864
58039SOL    HW275951   3.969   5.219  11.856
58040SOL     OW75952   1.760  10.044   2.612
58040SOL    HW175953   1.668  10.070   2.614
58040SOL    HW275954   1.809  10.126   2.604
58041SOL     OW75955   6.587   4.577  11.648
58041SOL    HW175956   6.507   4.544  11.689
58041SOL    HW275957   6.651   4.580  11.719
58042SOL     OW75958   0.999   8.410   7.330
58042SOL    HW175959   0.929   8.431   7.393
58042SOL    HW275960   1.031   8.494   7.300
58043SOL     OW75961   4.324  10.959  10.826
58043SOL    HW175962   4.412  10.996  10.823
58043SOL    HW275963   4.270  11.029  10.862
58044SOL     OW75964   0.555   3.852   7.053
58044SOL    HW175965   0.613   3.921   7.020
58044SOL    HW275966   0.602   3.816   7.128
58045SOL     OW75967   1.847   2.540   0.138
58045SOL    HW175968   1.907   2.575   0.204
58045SOL    HW275969   1.894   2.549   0.056
58046SOL     OW75970   9.961  14.770  10.547
58046SOL    HW175971   9.873  14.802  10.529
58046SOL    HW275972  10.015  14.806  10.477
58047SOL     OW75973   2.091  11.330   9.198
58047SOL    HW175974   2.065  11.293   9.283
58047SOL    HW275975   2.098  11.424   9.214
58048SOL     OW75976   4.097   3.629  12.442
58048SOL    HW175977   4.174   3.685  12.428
58048SOL    HW275978   4.063   3.614  12.354
58049SOL     OW75979  14.866  12.352   6.619
58049SOL    HW175980  14.784  12.333   6.572
58049SOL    HW275981   0.053  12.382   6.551
58050SOL     OW75982   2.003   0.419  13.570
58050SOL    HW175983   2.065   0.347  13.581
58050SOL    HW275984   1.921   0.386  13.606
58051SOL     OW75985   7.876  10.194   2.646
58051SOL    HW175986   7.925  10.113   2.639
58051SOL    HW275987   7.824  10.184   2.726
58052SOL     OW75988   7.003   6.942  10.226
58052SOL    HW175989   6.997   6.990  10.143
58052SOL    HW275990   7.097   6.942  10.246
58053SOL     OW75991  10.667   9.760   7.635
58053SOL    HW175992  10.571   9.764   7.628
58053SOL    HW275993  10.691   9.681   7.587
58054SOL     OW75994   1.137  12.682   3.693
58054SOL    HW175995   1.119  12.685   3.786
58054SOL    HW275996   1.179  12.597   3.679
58055SOL     OW75997   4.855   2.290  10.714
58055SOL    HW175998   4.899   2.304  10.798
58055SOL    HW275999   4.885   2.203  10.686
58056SOL     OW76000   9.507   3.015   3.705
58056SOL    HW176001   9.522   2.964   3.785
58056SOL    HW276002   9.592   3.016   3.661
58057SOL     OW76003   0.659  14.597   1.790
58057SOL    HW176004   0.575  14.641   1.785
58057SOL    HW276005   0.638  14.507   1.816
58058SOL     OW76006   2.974  11.007  11.385
58058SOL    HW176007   3.016  11.093  11.390
58058SOL    HW276008   2.881  11.025  11.379
58059SOL     OW76009   8.852   0.927   8.984
58059SOL    HW176010   8.881   0.960   9.069
58059SOL    HW276011   8.863   0.832   8.990
58060SOL     OW76012   5.824   5.286  12.117
58060SOL    HW176013   5.916   5.269  12.099
58060SOL    HW276014   5.819   5.380  12.135
58061SOL     OW76015   2.292  13.531  11.985
58061SOL    HW176016   2.341  13.448  11.985
58061SOL    HW276017   2.286  13.555  11.892
58062SOL     OW76018   4.008   2.420   3.211
58062SOL    HW176019   3.989   2.511   3.235
58062SOL    HW276020   4.093   2.402   3.251
58063SOL     OW76021   0.644   7.351   0.409
58063SOL    HW176022   0.662   7.438   0.373
58063SOL    HW276023   0.672   7.357   0.501
58064SOL     OW76024  12.400  13.993   5.658
58064SOL    HW176025  12.350  14.074   5.668
58064SOL    HW276026  12.491  14.021   5.658
58065SOL     OW76027   9.821   1.375  11.292
58065SOL    HW176028   9.755   1.330  11.344
58065SOL    HW276029   9.779   1.390  11.208
58066SOL     OW76030   7.132   0.090   0.506
58066SOL    HW176031   7.181   0.160   0.464
58066SOL    HW276032   7.080   0.134   0.574
58067SOL     OW76033   5.899  13.346   4.997
58067SOL    HW176034   5.900  13.389   5.083
58067SOL    HW276035   5.807  13.323   4.983
58068SOL     OW76036  14.649   3.867   2.263
58068SOL    HW176037  14.570   3.836   2.308
58068SOL    HW276038  14.716   3.803   2.285
58069SOL     OW76039   3.611  11.225   2.941
58069SOL    HW176040   3.656  11.189   2.865
58069SOL    HW276041   3.527  11.256   2.907
58070SOL     OW76042   5.296   0.698   2.413
58070SOL    HW176043   5.213   0.654   2.426
58070SOL    HW276044   5.295   0.728   2.322
58071SOL     OW76045   8.709   1.635  11.514
58071SOL    HW176046   8.640   1.701  11.507
58071SOL    HW276047   8.695   1.595  11.600
58072SOL     OW76048   1.256  14.085   7.832
58072SOL    HW176049   1.339  14.043   7.855
58072SOL    HW276050   1.271  14.178   7.850
58073SOL     OW76051   1.731   2.421   7.159
58073SOL    HW176052   1.812   2.441   7.112
58073SOL    HW276053   1.685   2.505   7.165
58074SOL     OW76054   0.832  13.382   2.531
58074SOL    HW176055   0.790  13.451   2.479
58074SOL    HW276056   0.828  13.414   2.621
58075SOL     OW76057   3.692  10.862   9.182
58075SOL    HW176058   3.744  10.942   9.170
58075SOL    HW276059   3.756  10.791   9.177
58076SOL     OW76060  12.241  12.705   5.174
58076SOL    HW176061  12.179  12.634   5.156
58076SOL    HW276062  12.193  12.765   5.230
58077SOL     OW76063  14.757   0.902  11.959
58077SOL    HW176064  14.805   0.899  12.042
58077SOL    HW276065  14.810   0.850  11.899
58078SOL     OW76066   7.760   6.415   8.715
58078SOL    HW176067   7.673   6.439   8.746
58078SOL    HW276068   7.780   6.478   8.646
58079SOL     OW76069   1.038   3.416  13.878
58079SOL    HW176070   1.082   3.491  13.918
58079SOL    HW276071   1.009   3.447  13.792
58080SOL     OW76072   1.233   2.563   4.820
58080SOL    HW176073   1.188   2.479   4.823
58080SOL    HW276074   1.320   2.545   4.856
58081SOL     OW76075   2.413   0.437  12.955
58081SOL    HW176076   2.449   0.508  13.009
58081SOL    HW276077   2.487   0.407  12.903
58082SOL     OW76078   1.551  10.454   0.027
58082SOL    HW176079   1.623  10.397  14.872
58082SOL    HW276080   1.527  10.423   0.114
58083SOL     OW76081  14.453   8.237   8.462
58083SOL    HW176082  14.479   8.306   8.523
58083SOL    HW276083  14.445   8.158   8.515
58084SOL     OW76084   8.575   5.022   1.736
58084SOL    HW176085   8.578   5.008   1.641
58084SOL    HW276086   8.510   5.090   1.748
58085SOL     OW76087   4.389   4.216   2.038
58085SOL    HW176088   4.369   4.176   2.122
58085SOL    HW276089   4.455   4.159   1.998
58086SOL     OW76090   2.935   8.905   7.733
58086SOL    HW176091   2.917   8.997   7.754
58086SOL    HW276092   2.868   8.881   7.669
58087SOL     OW76093   4.124   7.687   9.497
58087SOL    HW176094   4.082   7.706   9.581
58087SOL    HW276095   4.195   7.626   9.519
58088SOL     OW76096   9.873   7.267   8.995
58088SOL    HW176097   9.778   7.279   9.002
58088SOL    HW276098   9.905   7.286   9.083
58089SOL     OW76099  11.889   4.760   6.408
58089SOL    HW176100  11.962   4.727   6.460
58089SOL    HW276101  11.832   4.804   6.471
58090SOL     OW76102  13.225   0.023  10.897
58090SOL    HW176103  13.294  14.832  10.875
58090SOL    HW276104  13.160  14.846  10.945
58091SOL     OW76105  10.890   4.985  10.411
58091SOL    HW176106  10.891   4.985  10.315
58091SOL    HW276107  10.814   4.931  10.434
58092SOL     OW76108   5.349   3.022   9.114
58092SOL    HW176109   5.271   3.074   9.131
58092SOL    HW276110   5.419   3.087   9.103
58093SOL     OW76111  10.734  10.580   3.142
58093SOL    HW176112  10.699  10.601   3.055
58093SOL    HW276113  10.787  10.502   3.128
58094SOL     OW76114   1.383   1.494   6.166
58094SOL    HW176115   1.460   1.538   6.129
58094SOL    HW276116   1.329   1.566   6.199
58095SOL     OW76117   4.282   5.431   5.476
58095SOL    HW176118   4.199   5.454   5.517
58095SOL    HW276119   4.329   5.514   5.468
58096SOL     OW76120   2.415   7.073   1.122
58096SOL    HW176121   2.338   7.085   1.067
58096SOL    HW276122   2.485   7.119   1.075
58097SOL     OW76123   8.182   4.345  11.901
58097SOL    HW176124   8.273   4.349  11.931
58097SOL    HW276125   8.175   4.261  11.857
58098SOL     OW76126   3.887   8.976  11.918
58098SOL    HW176127   3.957   8.922  11.881
58098SOL    HW276128   3.900   9.062  11.880
58099SOL     OW76129  11.431  10.063   8.750
58099SOL    HW176130  11.458  10.018   8.670
58099SOL    HW276131  11.375  10.000   8.795
58100SOL     OW76132  11.474  11.510   5.782
58100SOL    HW176133  11.410  11.528   5.713
58100SOL    HW276134  11.482  11.593   5.829
58101SOL     OW76135  14.184  14.054   7.806
58101SOL    HW176136  14.210  14.017   7.722
58101SOL    HW276137  14.155  14.143   7.786
58102SOL     OW76138   1.292   5.489   6.499
58102SOL    HW176139   1.221   5.506   6.437
58102SOL    HW276140   1.372   5.495   6.447
58103SOL     OW76141  12.624   8.398  12.485
58103SOL    HW176142  12.676   8.469  12.446
58103SOL    HW276143  12.555   8.381  12.420
58104SOL     OW76144   7.062  11.762  13.109
58104SOL    HW176145   7.117  11.811  13.171
58104SOL    HW276146   7.044  11.824  13.039
58105SOL     OW76147   3.371   3.456   5.907
58105SOL    HW176148   3.305   3.526   5.904
58105SOL    HW276149   3.433   3.485   5.975
58106SOL     OW76150  11.426  12.898  10.028
58106SOL    HW176151  11.384  12.898   9.942
58106SOL    HW276152  11.359  12.934  10.087
58107SOL     OW76153  14.772  10.931   4.819
58107SOL    HW176154  14.785  10.844   4.781
58107SOL    HW276155  14.810  10.991   4.755
58108SOL     OW76156   6.567   0.444  12.188
58108SOL    HW176157   6.628   0.507  12.226
58108SOL    HW276158   6.490   0.448  12.244
58109SOL     OW76159   3.527   8.041   8.315
58109SOL    HW176160   3.443   8.002   8.292
58109SOL    HW276161   3.590   8.002   8.255
58110SOL     OW76162   1.086   4.965  14.655
58110SOL    HW176163   1.093   4.905  14.729
58110SOL    HW276164   1.173   4.966  14.616
58111SOL     OW76165  11.906  10.499   1.313
58111SOL    HW176166  11.845  10.562   1.350
58111SOL    HW276167  11.875  10.414   1.346
58112SOL     OW76168   6.007  13.310  13.441
58112SOL    HW176169   6.076  13.362  13.482
58112SOL    HW276170   5.936  13.310  13.504
58113SOL     OW76171   6.106   4.236   9.496
58113SOL    HW176172   6.050   4.158   9.494
58113SOL    HW276173   6.077   4.284   9.573
58114SOL     OW76174   4.957   5.911  10.759
58114SOL    HW176175   5.028   5.942  10.703
58114SOL    HW276176   4.998   5.896  10.844
58115SOL     OW76177  10.022   5.315   7.754
58115SOL    HW176178   9.953   5.253   7.780
58115SOL    HW276179  10.001   5.395   7.803
58116SOL     OW76180   0.795   4.673  11.649
58116SOL    HW176181   0.827   4.655  11.737
58116SOL    HW276182   0.798   4.769  11.642
58117SOL     OW76183  11.836   2.949  10.904
58117SOL    HW176184  11.863   2.912  10.820
58117SOL    HW276185  11.780   2.882  10.943
58118SOL     OW76186  14.811   4.290   1.270
58118SOL    HW176187  14.754   4.233   1.220
58118SOL    HW276188  14.780   4.379   1.250
58119SOL     OW76189  10.553   0.885   1.107
58119SOL    HW176190  10.519   0.972   1.085
58119SOL    HW276191  10.638   0.902   1.148
58120SOL     OW76192  14.623   6.546  14.002
58120SOL    HW176193  14.691   6.515  13.943
58120SOL    HW276194  14.541   6.515  13.964
58121SOL     OW76195   1.108   0.340   6.714
58121SOL    HW176196   1.093   0.275   6.646
58121SOL    HW276197   1.021   0.356   6.751
58122SOL     OW76198   0.256   4.231   1.585
58122SOL    HW176199   0.345   4.205   1.560
58122SOL    HW276200   0.256   4.222   1.681
58123SOL     OW76201   8.528  11.497  11.044
58123SOL    HW176202   8.434  11.482  11.051
58123SOL    HW276203   8.568  11.413  11.068
58124SOL     OW76204   8.778  13.770  10.141
58124SOL    HW176205   8.734  13.747  10.060
58124SOL    HW276206   8.785  13.688  10.190
58125SOL     OW76207   9.438  14.555  14.674
58125SOL    HW176208   9.359  14.536  14.725
58125SOL    HW276209   9.508  14.559  14.740
58126SOL     OW76210   6.101   8.883   5.230
58126SOL    HW176211   6.148   8.801   5.216
58126SOL    HW276212   6.059   8.901   5.145
58127SOL     OW76213  12.705  10.571   0.617
58127SOL    HW176214  12.613  10.560   0.592
58127SOL    HW276215  12.754  10.552   0.536
58128SOL     OW76216   0.451  10.936   4.591
58128SOL    HW176217   0.459  10.912   4.684
58128SOL    HW276218   0.524  10.995   4.575
58129SOL     OW76219  14.509   1.177  10.996
58129SOL    HW176220  14.527   1.268  11.022
58129SOL    HW276221  14.507   1.128  11.078
58130SOL     OW76222  12.643   7.761  10.222
58130SOL    HW176223  12.682   7.680  10.253
58130SOL    HW276224  12.624   7.811  10.302
58131SOL     OW76225   4.450  11.697   7.739
58131SOL    HW176226   4.475  11.714   7.830
58131SOL    HW276227   4.467  11.604   7.727
58132SOL     OW76228  13.304   9.344   8.159
58132SOL    HW176229  13.238   9.318   8.223
58132SOL    HW276230  13.261   9.332   8.074
58133SOL     OW76231   6.627  12.568   9.241
58133SOL    HW176232   6.690  12.504   9.275
58133SOL    HW276233   6.592  12.611   9.319
58134SOL     OW76234   4.414   3.844   6.833
58134SOL    HW176235   4.490   3.895   6.806
58134SOL    HW276236   4.406   3.775   6.767
58135SOL     OW76237   8.503   5.321   6.935
58135SOL    HW176238   8.440   5.387   6.964
58135SOL    HW276239   8.587   5.351   6.970
58136SOL     OW76240   3.950   9.408   7.939
58136SOL    HW176241   3.939   9.447   7.852
58136SOL    HW276242   3.958   9.314   7.922
58137SOL     OW76243   4.992   8.644   1.084
58137SOL    HW176244   4.982   8.735   1.111
58137SOL    HW276245   5.085   8.634   1.067
58138SOL     OW76246   0.926   0.744  12.769
58138SOL    HW176247   0.855   0.767  12.829
58138SOL    HW276248   0.883   0.728  12.685
58139SOL     OW76249   1.950   0.059   9.677
58139SOL    HW176250   1.966   0.153   9.680
58139SOL    HW276251   2.008   0.027   9.607
58140SOL     OW76252   1.380   7.595   5.072
58140SOL    HW176253   1.443   7.667   5.077
58140SOL    HW276254   1.410   7.532   5.138
58141SOL     OW76255   8.298  12.729   9.833
58141SOL    HW176256   8.265  12.796   9.894
58141SOL    HW276257   8.382  12.764   9.803
58142SOL     OW76258  12.415   8.808   7.137
58142SOL    HW176259  12.433   8.839   7.225
58142SOL    HW276260  12.360   8.730   7.150
58143SOL     OW76261  10.711  13.079   7.389
58143SOL    HW176262  10.648  13.036   7.332
58143SOL    HW276263  10.789  13.091   7.335
58144SOL     OW76264   6.585   2.770   9.392
58144SOL    HW176265   6.497   2.802   9.372
58144SOL    HW276266   6.575   2.721   9.474
58145SOL     OW76267   1.492   2.957   5.222
58145SOL    HW176268   1.578   2.918   5.236
58145SOL    HW276269   1.430   2.887   5.243
58146SOL     OW76270  13.423   3.132   2.811
58146SOL    HW176271  13.506   3.179   2.814
58146SOL    HW276272  13.420   3.084   2.894
58147SOL     OW76273   3.757   2.006   8.666
58147SOL    HW176274   3.818   2.079   8.665
58147SOL    HW276275   3.800   1.938   8.613
58148SOL     OW76276   0.606  11.380   6.438
58148SOL    HW176277   0.556  11.462   6.434
58148SOL    HW276278   0.652  11.377   6.354
58149SOL     OW76279   4.941  13.024   6.734
58149SOL    HW176280   4.904  13.050   6.650
58149SOL    HW276281   5.018  13.079   6.745
58150SOL     OW76282   6.015   0.703  12.479
58150SOL    HW176283   5.929   0.722  12.442
58150SOL    HW276284   6.060   0.787  12.482
58151SOL     OW76285   2.632   8.936  10.711
58151SOL    HW176286   2.666   8.859  10.665
58151SOL    HW276287   2.710   8.979  10.746
58152SOL     OW76288   6.627  14.738   4.207
58152SOL    HW176289   6.601  14.829   4.221
58152SOL    HW276290   6.706  14.727   4.261
58153SOL     OW76291  10.904   7.795   1.101
58153SOL    HW176292  10.850   7.717   1.110
58153SOL    HW276293  10.929   7.797   1.009
58154SOL     OW76294  12.942  12.033   0.282
58154SOL    HW176295  13.006  12.024   0.212
58154SOL    HW276296  12.972  11.974   0.351
58155SOL     OW76297   7.921   4.434   2.477
58155SOL    HW176298   7.984   4.367   2.503
58155SOL    HW276299   7.878   4.399   2.400
58156SOL     OW76300   1.364  11.127  13.600
58156SOL    HW176301   1.415  11.204  13.576
58156SOL    HW276302   1.333  11.145  13.689
58157SOL     OW76303   4.906   8.337  13.983
58157SOL    HW176304   4.820   8.297  13.993
58157SOL    HW276305   4.891   8.414  13.928
58158SOL     OW76306   2.864   8.755  11.424
58158SOL    HW176307   2.826   8.697  11.489
58158SOL    HW276308   2.836   8.720  11.339
58159SOL     OW76309  11.395   3.311   4.820
58159SOL    HW176310  11.458   3.246   4.849
58159SOL    HW276311  11.396   3.306   4.724
58160SOL     OW76312   0.208  11.033  10.911
58160SOL    HW176313   0.238  10.977  10.839
58160SOL    HW276314   0.215  10.978  10.989
58161SOL     OW76315   2.851   0.226   0.915
58161SOL    HW176316   2.816   0.268   0.836
58161SOL    HW276317   2.946   0.231   0.904
58162SOL     OW76318   8.553   2.749   0.777
58162SOL    HW176319   8.497   2.680   0.814
58162SOL    HW276320   8.603   2.782   0.851
58163SOL     OW76321   6.597  12.104   7.881
58163SOL    HW176322   6.677  12.123   7.930
58163SOL    HW276323   6.612  12.143   7.795
58164SOL     OW76324   1.068  13.809   6.227
58164SOL    HW176325   0.976  13.792   6.207
58164SOL    HW276326   1.070  13.899   6.261
58165SOL     OW76327   3.412   9.633  14.471
58165SOL    HW176328   3.497   9.593  14.486
58165SOL    HW276329   3.398   9.689  14.548
58166SOL     OW76330   4.411   5.373   4.463
58166SOL    HW176331   4.381   5.416   4.543
58166SOL    HW276332   4.484   5.427   4.433
58167SOL     OW76333   1.402  10.062   7.856
58167SOL    HW176334   1.382  10.143   7.903
58167SOL    HW276335   1.317  10.030   7.826
58168SOL     OW76336  12.797   5.653   6.718
58168SOL    HW176337  12.770   5.585   6.779
58168SOL    HW276338  12.825   5.605   6.639
58169SOL     OW76339   9.535   4.452   4.514
58169SOL    HW176340   9.449   4.491   4.499
58169SOL    HW276341   9.516   4.361   4.536
58170SOL     OW76342   9.213  12.219  12.024
58170SOL    HW176343   9.153  12.281  11.982
58170SOL    HW276344   9.166  12.136  12.025
58171SOL     OW76345  12.500   2.416   2.660
58171SOL    HW176346  12.469   2.328   2.635
58171SOL    HW276347  12.426   2.454   2.708
58172SOL     OW76348   6.931   5.869   2.549
58172SOL    HW176349   6.851   5.829   2.584
58172SOL    HW276350   6.906   5.902   2.463
58173SOL     OW76351  11.095   2.090   9.841
58173SOL    HW176352  11.067   2.174   9.877
58173SOL    HW276353  11.019   2.033   9.854
58174SOL     OW76354   1.823   8.299   7.719
58174SOL    HW176355   1.736   8.330   7.692
58174SOL    HW276356   1.805   8.223   7.775
58175SOL     OW76357  10.489   3.994   8.534
58175SOL    HW176358  10.474   4.073   8.586
58175SOL    HW276359  10.573   4.010   8.491
58176SOL     OW76360  10.421   6.081  12.589
58176SOL    HW176361  10.355   6.015  12.608
58176SOL    HW276362  10.412   6.145  12.659
58177SOL     OW76363  13.991   5.439   3.423
58177SOL    HW176364  13.960   5.358   3.463
58177SOL    HW276365  13.941   5.447   3.342
58178SOL     OW76366   3.994   2.614  11.895
58178SOL    HW176367   3.958   2.534  11.858
58178SOL    HW276368   4.045   2.653  11.823
58179SOL     OW76369  10.816   7.164   0.653
58179SOL    HW176370  10.742   7.138   0.599
58179SOL    HW276371  10.873   7.087   0.655
58180SOL     OW76372  13.458   1.208  14.625
58180SOL    HW176373  13.383   1.236  14.677
58180SOL    HW276374  13.447   1.253  14.541
58181SOL     OW76375  13.506   5.339   2.430
58181SOL    HW176376  13.495   5.304   2.342
58181SOL    HW276377  13.490   5.433   2.420
58182SOL     OW76378   9.188  12.045   7.248
58182SOL    HW176379   9.202  12.088   7.164
58182SOL    HW276380   9.096  12.061   7.268
58183SOL     OW76381   1.635  14.812   3.183
58183SOL    HW176382   1.723  14.828   3.218
58183SOL    HW276383   1.582   0.011   3.218
58184SOL     OW76384   8.778  10.108   7.500
58184SOL    HW176385   8.683  10.098   7.508
58184SOL    HW276386   8.814  10.032   7.545
58185SOL     OW76387   4.558   7.978  14.007
58185SOL    HW176388   4.605   7.911  13.957
58185SOL    HW276389   4.482   7.932  14.044
58186SOL     OW76390   9.052   0.811   7.220
58186SOL    HW176391   9.137   0.812   7.177
58186SOL    HW276392   9.069   0.845   7.308
58187SOL     OW76393   3.333   0.587   1.723
58187SOL    HW176394   3.382   0.650   1.669
58187SOL    HW276395   3.394   0.563   1.792
58188SOL     OW76396  10.783  13.531   3.120
58188SOL    HW176397  10.866  13.513   3.164
58188SOL    HW276398  10.717  13.491   3.177
58189SOL     OW76399  11.065   3.874   4.582
58189SOL    HW176400  11.074   3.801   4.644
58189SOL    HW276401  10.976   3.905   4.594
58190SOL     OW76402  10.157   9.945   3.531
58190SOL    HW176403  10.114  10.019   3.574
58190SOL    HW276404  10.228   9.983   3.481
58191SOL     OW76405  13.280   7.518  13.040
58191SOL    HW176406  13.351   7.580  13.056
58191SOL    HW276407  13.261   7.481  13.126
58192SOL     OW76408   9.794   9.907  13.240
58192SOL    HW176409   9.833   9.971  13.180
58192SOL    HW276410   9.791   9.826  13.189
58193SOL     OW76411   3.900   5.209   7.890
58193SOL    HW176412   3.871   5.287   7.937
58193SOL    HW276413   3.848   5.209   7.809
58194SOL     OW76414  14.800   6.792   1.573
58194SOL    HW176415  14.792   6.878   1.614
58194SOL    HW276416  14.858   6.743   1.633
58195SOL     OW76417   1.576   2.744  11.883
58195SOL    HW176418   1.516   2.670  11.872
58195SOL    HW276419   1.619   2.728  11.967
58196SOL     OW76420  13.410   4.038   2.674
58196SOL    HW176421  13.437   4.128   2.691
58196SOL    HW276422  13.316   4.037   2.693
58197SOL     OW76423   7.413  10.635  12.596
58197SOL    HW176424   7.385  10.547  12.620
58197SOL    HW276425   7.379  10.647  12.507
58198SOL     OW76426  11.295   8.673   8.063
58198SOL    HW176427  11.348   8.593   8.060
58198SOL    HW276428  11.358   8.743   8.045
58199SOL     OW76429   7.131  14.711   3.183
58199SOL    HW176430   7.044  14.698   3.220
58199SOL    HW276431   7.119  14.775   3.114
58200SOL     OW76432   6.367   4.403  12.932
58200SOL    HW176433   6.360   4.498  12.936
58200SOL    HW276434   6.298   4.371  12.989
58201SOL     OW76435  14.449   0.493   3.927
58201SOL    HW176436  14.480   0.456   3.844
58201SOL    HW276437  14.457   0.421   3.990
58202SOL     OW76438   4.633   0.083  11.428
58202SOL    HW176439   4.599  14.867  11.415
58202SOL    HW276440   4.666   0.110  11.343
58203SOL     OW76441   5.902   0.378   1.651
58203SOL    HW176442   5.893   0.449   1.714
58203SOL    HW276443   5.995   0.353   1.655
58204SOL     OW76444  11.532   5.987   6.798
58204SOL    HW176445  11.611   5.999   6.746
58204SOL    HW276446  11.560   5.998   6.888
58205SOL     OW76447   0.854  11.099   9.386
58205SOL    HW176448   0.896  11.052   9.458
58205SOL    HW276449   0.786  11.040   9.355
58206SOL     OW76450  11.850  13.738   5.734
58206SOL    HW176451  11.907  13.683   5.789
58206SOL    HW276452  11.828  13.813   5.790
58207SOL     OW76453   0.702   4.753   9.635
58207SOL    HW176454   0.771   4.710   9.586
58207SOL    HW276455   0.689   4.837   9.591
58208SOL     OW76456   3.842  13.883   4.116
58208SOL    HW176457   3.891  13.931   4.184
58208SOL    HW276458   3.779  13.831   4.165
58209SOL     OW76459  12.880  12.959   0.792
58209SOL    HW176460  12.970  12.975   0.822
58209SOL    HW276461  12.835  12.923   0.869
58210SOL     OW76462   1.564  12.875  14.239
58210SOL    HW176463   1.603  12.958  14.268
58210SOL    HW276464   1.514  12.898  14.161
58211SOL     OW76465   2.855   0.194   5.615
58211SOL    HW176466   2.783   0.140   5.645
58211SOL    HW276467   2.818   0.282   5.610
58212SOL     OW76468   3.069   3.691   8.289
58212SOL    HW176469   3.015   3.696   8.368
58212SOL    HW276470   3.145   3.745   8.309
58213SOL     OW76471   5.229   4.478   3.215
58213SOL    HW176472   5.312   4.440   3.246
58213SOL    HW276473   5.188   4.407   3.165
58214SOL     OW76474   8.172   0.157   2.782
58214SOL    HW176475   8.181   0.073   2.737
58214SOL    HW276476   8.219   0.220   2.726
58215SOL     OW76477   8.966   7.308   5.351
58215SOL    HW176478   8.906   7.233   5.342
58215SOL    HW276479   9.011   7.293   5.434
58216SOL     OW76480   5.005   5.318   3.206
58216SOL    HW176481   4.931   5.373   3.231
58216SOL    HW276482   4.976   5.229   3.225
58217SOL     OW76483   7.750   0.058  10.932
58217SOL    HW176484   7.731   0.096  10.847
58217SOL    HW276485   7.795   0.127  10.980
58218SOL     OW76486  11.781   9.209   7.530
58218SOL    HW176487  11.707   9.270   7.524
58218SOL    HW276488  11.832   9.225   7.452
58219SOL     OW76489   2.344   5.850  14.524
58219SOL    HW176490   2.368   5.820  14.436
58219SOL    HW276491   2.420   5.902  14.553
58220SOL     OW76492   6.278  14.340   7.333
58220SOL    HW176493   6.290  14.280   7.407
58220SOL    HW276494   6.361  14.337   7.286
58221SOL     OW76495  11.710   3.994  10.135
58221SOL    HW176496  11.712   3.929  10.206
58221SOL    HW276497  11.801   3.997  10.104
58222SOL     OW76498   7.391   4.365  13.419
58222SOL    HW176499   7.377   4.280  13.460
58222SOL    HW276500   7.339   4.426  13.470
58223SOL     OW76501   0.357  14.252  14.220
58223SOL    HW176502   0.336  14.298  14.301
58223SOL    HW276503   0.383  14.164  14.248
58224SOL     OW76504   7.615  14.532   2.266
58224SOL    HW176505   7.565  14.569   2.339
58224SOL    HW276506   7.611  14.598   2.198
58225SOL     OW76507   3.438  13.596   6.109
58225SOL    HW176508   3.527  13.581   6.140
58225SOL    HW276509   3.405  13.509   6.085
58226SOL     OW76510   4.475  10.783   4.004
58226SOL    HW176511   4.424  10.743   4.074
58226SOL    HW276512   4.531  10.847   4.048
58227SOL     OW76513  10.240  13.932  11.959
58227SOL    HW176514  10.316  13.953  11.905
58227SOL    HW276515  10.276  13.916  12.046
58228SOL     OW76516  11.332   6.374  13.247
58228SOL    HW176517  11.247   6.364  13.292
58228SOL    HW276518  11.397   6.358  13.315
58229SOL     OW76519   7.143  13.928   5.977
58229SOL    HW176520   7.138  14.015   5.936
58229SOL    HW276521   7.223  13.890   5.942
58230SOL     OW76522  10.691   3.737   9.429
58230SOL    HW176523  10.759   3.754   9.363
58230SOL    HW276524  10.739   3.732   9.512
58231SOL     OW76525   6.965  13.837   3.719
58231SOL    HW176526   6.957  13.932   3.710
58231SOL    HW276527   6.880  13.808   3.751
58232SOL     OW76528   1.483  11.147   1.253
58232SOL    HW176529   1.574  11.133   1.278
58232SOL    HW276530   1.489  11.192   1.168
58233SOL     OW76531  10.701   0.451  13.467
58233SOL    HW176532  10.636   0.381  13.472
58233SOL    HW276533  10.780   0.408  13.433
58234SOL     OW76534   5.421  12.279   4.987
58234SOL    HW176535   5.515  12.264   4.976
58234SOL    HW276536   5.385  12.272   4.898
58235SOL     OW76537   1.085   3.606   7.720
58235SOL    HW176538   1.147   3.644   7.781
58235SOL    HW276539   1.019   3.564   7.775
58236SOL     OW76540   3.894  13.936   9.476
58236SOL    HW176541   3.828  14.000   9.501
58236SOL    HW276542   3.881  13.923   9.382
58237SOL     OW76543   3.851   5.713   0.785
58237SOL    HW176544   3.881   5.672   0.704
58237SOL    HW276545   3.825   5.801   0.760
58238SOL     OW76546  11.409   6.091  14.685
58238SOL    HW176547  11.429   6.157  14.619
58238SOL    HW276548  11.426   6.007  14.642
58239SOL     OW76549   8.278   5.417  14.528
58239SOL    HW176550   8.344   5.476  14.492
58239SOL    HW276551   8.306   5.403  14.619
58240SOL     OW76552  14.715  12.019   5.063
58240SOL    HW176553  14.728  12.101   5.110
58240SOL    HW276554  14.647  12.040   4.999
58241SOL     OW76555   4.263   5.523   0.122
58241SOL    HW176556   4.293   5.563   0.040
58241SOL    HW276557   4.170   5.545   0.126
58242SOL     OW76558   1.301  13.983  14.783
58242SOL    HW176559   1.338  13.930  14.853
58242SOL    HW276560   1.327  14.072  14.804
58243SOL     OW76561  13.087   1.331  11.317
58243SOL    HW176562  13.125   1.280  11.245
58243SOL    HW276563  13.076   1.419  11.281
58244SOL     OW76564  11.243  11.447   1.035
58244SOL    HW176565  11.173  11.386   1.060
58244SOL    HW276566  11.198  11.517   0.988
58245SOL     OW76567  10.038   0.968   9.908
58245SOL    HW176568   9.976   1.038   9.929
58245SOL    HW276569  10.121   1.013   9.891
58246SOL     OW76570   3.208  11.845   3.610
58246SOL    HW176571   3.165  11.819   3.692
58246SOL    HW276572   3.251  11.764   3.580
58247SOL     OW76573  11.424   9.279   2.356
58247SOL    HW176574  11.503   9.225   2.354
58247SOL    HW276575  11.397   9.279   2.448
58248SOL     OW76576   9.259   8.333  10.558
58248SOL    HW176577   9.291   8.252  10.597
58248SOL    HW276578   9.266   8.398  10.627
58249SOL     OW76579  14.793  12.179  14.741
58249SOL    HW176580  14.770  12.137  14.824
58249SOL    HW276581  14.722  12.242  14.726
58250SOL     OW76582  13.079   1.702  13.733
58250SOL    HW176583  13.085   1.784  13.782
58250SOL    HW276584  13.098   1.634  13.797
58251SOL     OW76585   3.468  11.007   3.766
58251SOL    HW176586   3.544  10.958   3.735
58251SOL    HW276587   3.438  11.055   3.690
58252SOL     OW76588  13.660   5.614   2.426
58252SOL    HW176589  13.610   5.638   2.348
58252SOL    HW276590  13.751   5.636   2.405
58253SOL     OW76591  10.705  12.509   6.104
58253SOL    HW176592  10.648  12.557   6.043
58253SOL    HW276593  10.652  12.499   6.182
58254SOL     OW76594  14.868   4.103   5.317
58254SOL    HW176595   0.020   4.033   5.379
58254SOL    HW276596  14.859   4.058   5.233
58255SOL     OW76597  11.725   7.073  11.302
58255SOL    HW176598  11.659   7.143  11.305
58255SOL    HW276599  11.678   6.995  11.331
58256SOL     OW76600   2.400   3.512   7.256
58256SOL    HW176601   2.310   3.538   7.278
58256SOL    HW276602   2.392   3.424   7.219
58257SOL     OW76603  11.855   0.775  11.861
58257SOL    HW176604  11.834   0.682  11.860
58257SOL    HW276605  11.875   0.795  11.952
58258SOL     OW76606   6.435  11.850  14.685
58258SOL    HW176607   6.430  11.781  14.619
58258SOL    HW276608   6.376  11.820  14.755
58259SOL     OW76609   1.467   0.202  12.220
58259SOL    HW176610   1.463   0.297  12.219
58259SOL    HW276611   1.434   0.175  12.134
58260SOL     OW76612   0.928  14.472  13.747
58260SOL    HW176613   0.930  14.410  13.674
58260SOL    HW276614   0.835  14.486  13.763
58261SOL     OW76615  13.943   2.129   4.286
58261SOL    HW176616  13.872   2.192   4.301
58261SOL    HW276617  13.899   2.051   4.251
58262SOL     OW76618   1.713  10.537   0.496
58262SOL    HW176619   1.758  10.499   0.572
58262SOL    HW276620   1.775  10.602   0.462
58263SOL     OW76621   0.525   6.311   8.791
58263SOL    HW176622   0.596   6.338   8.850
58263SOL    HW276623   0.568   6.261   8.722
58264SOL     OW76624  13.485   8.740   0.004
58264SOL    HW176625  13.444   8.756  14.791
58264SOL    HW276626  13.572   8.779  14.868
58265SOL     OW76627   3.006   4.011   3.510
58265SOL    HW176628   3.100   4.014   3.524
58265SOL    HW276629   2.996   4.010   3.415
58266SOL     OW76630   4.591  12.422   4.961
58266SOL    HW176631   4.591  12.489   4.894
58266SOL    HW276632   4.589  12.339   4.913
58267SOL     OW76633   5.933   4.693  14.420
58267SOL    HW176634   5.958   4.759  14.355
58267SOL    HW276635   5.961   4.729  14.504
58268SOL     OW76636   0.749   5.605   7.329
58268SOL    HW176637   0.758   5.510   7.325
58268SOL    HW276638   0.838   5.637   7.343
58269SOL     OW76639   7.448  11.263  13.959
58269SOL    HW176640   7.377  11.319  13.926
58269SOL    HW276641   7.428  11.177  13.923
58270SOL     OW76642  13.939   9.916  11.861
58270SOL    HW176643  13.844   9.927  11.856
58270SOL    HW276644  13.951   9.833  11.908
58271SOL     OW76645  11.569  12.637  13.249
58271SOL    HW176646  11.550  12.605  13.337
58271SOL    HW276647  11.500  12.702  13.232
58272SOL     OW76648  11.519  13.592   2.352
58272SOL    HW176649  11.466  13.629   2.281
58272SOL    HW276650  11.594  13.651   2.358
58273SOL     OW76651  14.032  11.858   4.955
58273SOL    HW176652  14.007  11.780   4.905
58273SOL    HW276653  14.120  11.879   4.923
58274SOL     OW76654  13.365   1.085   9.928
58274SOL    HW176655  13.319   1.166   9.905
58274SOL    HW276656  13.307   1.015   9.900
58275SOL     OW76657  11.519  14.219   0.470
58275SOL    HW176658  11.583  14.263   0.526
58275SOL    HW276659  11.487  14.287   0.412
58276SOL     OW76660  13.887   5.579   3.662
58276SOL    HW176661  13.946   5.579   3.587
58276SOL    HW276662  13.878   5.486   3.686
58277SOL     OW76663   8.819  10.811  11.649
58277SOL    HW176664   8.875  10.738  11.623
58277SOL    HW276665   8.869  10.857  11.716
58278SOL     OW76666  14.055   4.339   6.876
58278SOL    HW176667  14.038   4.247   6.855
58278SOL    HW276668  14.141   4.356   6.838
58279SOL     OW76669   4.896  11.812   8.638
58279SOL    HW176670   4.951  11.748   8.683
58279SOL    HW276671   4.954  11.850   8.571
58280SOL     OW76672  13.569   4.819  12.927
58280SOL    HW176673  13.510   4.750  12.957
58280SOL    HW276674  13.534   4.899  12.966
58281SOL     OW76675   1.017   4.682  13.210
58281SOL    HW176676   1.081   4.691  13.140
58281SOL    HW276677   0.942   4.734  13.181
58282SOL     OW76678   2.288   2.166   6.919
58282SOL    HW176679   2.257   2.130   6.836
58282SOL    HW276680   2.378   2.192   6.902
58283SOL     OW76681   6.651  11.921  11.657
58283SOL    HW176682   6.673  12.003  11.613
58283SOL    HW276683   6.557  11.909  11.642
58284SOL     OW76684  11.136   6.859  10.825
58284SOL    HW176685  11.120   6.935  10.769
58284SOL    HW276686  11.149   6.787  10.763
58285SOL     OW76687   1.634   9.446   6.456
58285SOL    HW176688   1.617   9.352   6.463
58285SOL    HW276689   1.627   9.479   6.546
58286SOL     OW76690   6.745   0.211  14.479
58286SOL    HW176691   6.795   0.182  14.403
58286SOL    HW276692   6.749   0.307  14.474
58287SOL     OW76693  12.447   3.042   3.864
58287SOL    HW176694  12.427   3.005   3.951
58287SOL    HW276695  12.361   3.058   3.825
58288SOL     OW76696  12.246   2.448   4.085
58288SOL    HW176697  12.252   2.523   4.144
58288SOL    HW276698  12.334   2.440   4.048
58289SOL     OW76699   2.229  12.380   7.418
58289SOL    HW176700   2.322  12.398   7.433
58289SOL    HW276701   2.226  12.287   7.394
58290SOL     OW76702   4.696  11.872   1.474
58290SOL    HW176703   4.790  11.883   1.484
58290SOL    HW276704   4.663  11.860   1.563
58291SOL     OW76705  12.699   1.597   9.317
58291SOL    HW176706  12.624   1.600   9.258
58291SOL    HW276707  12.683   1.667   9.380
58292SOL     OW76708  14.053   9.003   0.980
58292SOL    HW176709  13.962   9.016   1.004
58292SOL    HW276710  14.051   8.933   0.914
58293SOL     OW76711  11.163  13.886  13.720
58293SOL    HW176712  11.192  13.836  13.644
58293SOL    HW276713  11.140  13.972  13.685
58294SOL     OW76714  13.919   5.208   9.763
58294SOL    HW176715  13.844   5.248   9.808
58294SOL    HW276716  13.917   5.245   9.675
58295SOL     OW76717  12.647   5.193   0.873
58295SOL    HW176718  12.668   5.155   0.958
58295SOL    HW276719  12.657   5.287   0.885
58296SOL     OW76720   1.984   2.362   9.751
58296SOL    HW176721   2.060   2.373   9.809
58296SOL    HW276722   2.015   2.304   9.682
58297SOL     OW76723   7.847  13.709   5.070
58297SOL    HW176724   7.758  13.684   5.095
58297SOL    HW276725   7.902  13.637   5.100
58298SOL     OW76726   9.418   6.331   7.731
58298SOL    HW176727   9.462   6.249   7.753
58298SOL    HW276728   9.326   6.307   7.724
58299SOL     OW76729   2.094   2.490   3.220
58299SOL    HW176730   2.096   2.528   3.133
58299SOL    HW276731   2.010   2.445   3.225
58300SOL     OW76732   0.045   4.614   4.388
58300SOL    HW176733   0.139   4.631   4.399
58300SOL    HW276734   0.039   4.570   4.303
58301SOL     OW76735   7.030  10.072   7.363
58301SOL    HW176736   6.993  10.024   7.288
58301SOL    HW276737   7.032  10.163   7.334
58302SOL     OW76738   5.909   3.132   0.061
58302SOL    HW176739   5.908   3.059   0.123
58302SOL    HW276740   5.819   3.137   0.028
58303SOL     OW76741   5.177   7.973  13.836
58303SOL    HW176742   5.264   7.936  13.850
58303SOL    HW276743   5.185   8.065  13.858
58304SOL     OW76744   1.048   2.996  10.007
58304SOL    HW176745   1.067   2.911  10.047
58304SOL    HW276746   1.099   3.059  10.059
58305SOL     OW76747   3.345   9.719   1.721
58305SOL    HW176748   3.399   9.745   1.795
58305SOL    HW276749   3.370   9.628   1.704
58306SOL     OW76750   0.538   7.744  13.712
58306SOL    HW176751   0.449   7.716  13.689
58306SOL    HW276752   0.583   7.664  13.736
58307SOL     OW76753  13.277   5.554  13.396
58307SOL    HW176754  13.364   5.592  13.392
58307SOL    HW276755  13.267   5.525  13.487
58308SOL     OW76756   3.733  10.167   2.015
58308SOL    HW176757   3.747  10.097   2.079
58308SOL    HW276758   3.673  10.129   1.951
58309SOL     OW76759   4.680   6.186  11.054
58309SOL    HW176760   4.684   6.109  11.111
58309SOL    HW276761   4.593   6.223  11.070
58310SOL     OW76762   0.959   9.795  13.839
58310SOL    HW176763   1.021   9.784  13.767
58310SOL    HW276764   0.969   9.887  13.865
58311SOL     OW76765   5.010   2.827   7.303
58311SOL    HW176766   5.021   2.773   7.225
58311SOL    HW276767   5.089   2.880   7.308
58312SOL     OW76768   7.920   3.259   6.416
58312SOL    HW176769   7.917   3.342   6.464
58312SOL    HW276770   8.011   3.230   6.422
58313SOL     OW76771  11.459   8.337   2.200
58313SOL    HW176772  11.446   8.410   2.261
58313SOL    HW276773  11.521   8.279   2.245
58314SOL     OW76774   6.163   3.397  10.793
58314SOL    HW176775   6.118   3.472  10.753
58314SOL    HW276776   6.199   3.431  10.875
58315SOL     OW76777   0.809   9.677  12.498
58315SOL    HW176778   0.781   9.768  12.501
58315SOL    HW276779   0.904   9.681  12.486
58316SOL     OW76780  12.639   5.295   3.608
58316SOL    HW176781  12.569   5.309   3.544
58316SOL    HW276782  12.716   5.275   3.556
58317SOL     OW76783   7.410   4.638  14.691
58317SOL    HW176784   7.419   4.702  14.761
58317SOL    HW276785   7.492   4.589  14.693
58318SOL     OW76786   2.146   2.663  14.047
58318SOL    HW176787   2.211   2.606  14.004
58318SOL    HW276788   2.114   2.610  14.121
58319SOL     OW76789  10.920   8.846   1.934
58319SOL    HW176790  10.841   8.811   1.894
58319SOL    HW276791  10.911   8.941   1.928
58320SOL     OW76792   0.138   6.758   6.822
58320SOL    HW176793   0.058   6.716   6.855
58320SOL    HW276794   0.209   6.716   6.868
58321SOL     OW76795   1.481  13.861   5.475
58321SOL    HW176796   1.424  13.807   5.529
58321SOL    HW276797   1.465  13.951   5.505
58322SOL     OW76798  13.769   9.707   3.002
58322SOL    HW176799  13.769   9.720   3.096
58322SOL    HW276800  13.712   9.776   2.967
58323SOL     OW76801   8.916   1.360   5.210
58323SOL    HW176802   8.890   1.277   5.169
58323SOL    HW276803   8.966   1.406   5.142
58324SOL     OW76804   9.069   5.427   8.237
58324SOL    HW176805   9.032   5.355   8.185
58324SOL    HW276806   9.052   5.505   8.184
58325SOL     OW76807  12.874  11.112   1.033
58325SOL    HW176808  12.897  11.199   1.065
58325SOL    HW276809  12.817  11.076   1.100
58326SOL     OW76810   7.571   1.575  13.585
58326SOL    HW176811   7.580   1.485  13.617
58326SOL    HW276812   7.516   1.618  13.651
58327SOL     OW76813   5.543  13.939   4.574
58327SOL    HW176814   5.527  13.844   4.574
58327SOL    HW276815   5.577  13.957   4.486
58328SOL     OW76816  13.210   9.482   5.658
58328SOL    HW176817  13.201   9.401   5.607
58328SOL    HW276818  13.281   9.463   5.720
58329SOL     OW76819   7.922   7.819   9.583
58329SOL    HW176820   7.953   7.903   9.548
58329SOL    HW276821   7.826   7.827   9.583
58330SOL     OW76822  12.910   0.067   8.669
58330SOL    HW176823  12.990   0.104   8.631
58330SOL    HW276824  12.887   0.128   8.739
58331SOL     OW76825   4.228   5.559  14.369
58331SOL    HW176826   4.197   5.511  14.446
58331SOL    HW276827   4.168   5.632  14.360
58332SOL     OW76828  11.876   1.088   5.537
58332SOL    HW176829  11.894   1.063   5.447
58332SOL    HW276830  11.843   1.008   5.578
58333SOL     OW76831   1.625   3.752  13.777
58333SOL    HW176832   1.593   3.678  13.828
58333SOL    HW276833   1.609   3.728  13.686
58334SOL     OW76834   8.710  12.672   3.175
58334SOL    HW176835   8.635  12.613   3.187
58334SOL    HW276836   8.787  12.617   3.191
58335SOL     OW76837  10.774   9.740   0.847
58335SOL    HW176838  10.854   9.765   0.892
58335SOL    HW276839  10.804   9.694   0.768
58336SOL     OW76840  13.355  10.436  13.746
58336SOL    HW176841  13.324  10.351  13.717
58336SOL    HW276842  13.310  10.453  13.829
58337SOL     OW76843   4.501   2.315   3.391
58337SOL    HW176844   4.587   2.345   3.361
58337SOL    HW276845   4.502   2.220   3.375
58338SOL     OW76846   4.857   4.060  13.228
58338SOL    HW176847   4.777   4.112  13.241
58338SOL    HW276848   4.926   4.125  13.215
58339SOL     OW76849   5.936   7.064   0.789
58339SOL    HW176850   6.001   7.064   0.718
58339SOL    HW276851   5.936   7.153   0.823
58340SOL     OW76852   5.182   8.054   9.787
58340SOL    HW176853   5.199   7.960   9.785
58340SOL    HW276854   5.247   8.089   9.848
58341SOL     OW76855   3.786   8.814   5.495
58341SOL    HW176856   3.864   8.830   5.548
58341SOL    HW276857   3.800   8.727   5.459
58342SOL     OW76858   6.894   2.337   2.675
58342SOL    HW176859   6.863   2.378   2.595
58342SOL    HW276860   6.822   2.281   2.703
58343SOL     OW76861   5.554   6.260   8.087
58343SOL    HW176862   5.522   6.252   7.997
58343SOL    HW276863   5.531   6.177   8.128
58344SOL     OW76864   0.159   3.307  11.282
58344SOL    HW176865   0.169   3.226  11.331
58344SOL    HW276866   0.161   3.376  11.348
58345SOL     OW76867   8.226   0.594   5.686
58345SOL    HW176868   8.313   0.629   5.669
58345SOL    HW276869   8.167   0.662   5.653
58346SOL     OW76870  11.535  12.207   2.065
58346SOL    HW176871  11.516  12.123   2.107
58346SOL    HW276872  11.559  12.265   2.137
58347SOL     OW76873  10.907   3.969  12.184
58347SOL    HW176874  10.967   4.044  12.187
58347SOL    HW276875  10.838   3.992  12.246
58348SOL     OW76876   7.794  14.297  10.708
58348SOL    HW176877   7.853  14.286  10.783
58348SOL    HW276878   7.733  14.365  10.736
58349SOL     OW76879  14.517   9.486   7.782
58349SOL    HW176880  14.427   9.513   7.761
58349SOL    HW276881  14.557   9.565   7.819
58350SOL     OW76882  10.980  14.499  10.943
58350SOL    HW176883  10.957  14.590  10.958
58350SOL    HW276884  10.929  14.474  10.866
58351SOL     OW76885   8.181  13.553   4.213
58351SOL    HW176886   8.093  13.517   4.207
58351SOL    HW276887   8.169  13.642   4.246
58352SOL     OW76888  11.596   6.805   5.717
58352SOL    HW176889  11.649   6.743   5.667
58352SOL    HW276890  11.550   6.750   5.781
58353SOL     OW76891   7.872  11.249   2.932
58353SOL    HW176892   7.839  11.181   2.991
58353SOL    HW276893   7.865  11.330   2.982
58354SOL     OW76894  10.046  13.833   8.044
58354SOL    HW176895   9.964  13.791   8.020
58354SOL    HW276896  10.104  13.817   7.970
58355SOL     OW76897   0.932   5.462   5.963
58355SOL    HW176898   0.914   5.467   6.057
58355SOL    HW276899   0.881   5.387   5.933
58356SOL     OW76900   5.647   5.362   5.545
58356SOL    HW176901   5.629   5.453   5.568
58356SOL    HW276902   5.717   5.336   5.605
58357SOL     OW76903   9.184   4.158  11.668
58357SOL    HW176904   9.205   4.082  11.614
58357SOL    HW276905   9.217   4.233  11.618
58358SOL     OW76906   9.507   6.977   5.286
58358SOL    HW176907   9.494   7.036   5.213
58358SOL    HW276908   9.536   6.895   5.247
58359SOL     OW76909   1.221   0.764  11.050
58359SOL    HW176910   1.191   0.678  11.021
58359SOL    HW276911   1.147   0.823  11.033
58360SOL     OW76912   0.295   1.811   8.842
58360SOL    HW176913   0.254   1.872   8.780
58360SOL    HW276914   0.223   1.755   8.871
58361SOL     OW76915  13.594   7.711  11.059
58361SOL    HW176916  13.569   7.637  11.002
58361SOL    HW276917  13.594   7.674  11.147
58362SOL     OW76918  10.262   4.739   6.785
58362SOL    HW176919  10.322   4.715   6.856
58362SOL    HW276920  10.198   4.798   6.826
58363SOL     OW76921   9.911   8.390   2.110
58363SOL    HW176922   9.995   8.430   2.084
58363SOL    HW276923   9.880   8.445   2.182
58364SOL     OW76924   3.797  14.479   4.512
58364SOL    HW176925   3.850  14.473   4.432
58364SOL    HW276926   3.858  14.508   4.579
58365SOL     OW76927   2.146   3.632  12.139
58365SOL    HW176928   2.143   3.687  12.217
58365SOL    HW276929   2.207   3.678  12.081
58366SOL     OW76930   9.835   2.068   3.472
58366SOL    HW176931   9.894   2.122   3.525
58366SOL    HW276932   9.863   1.978   3.491
58367SOL     OW76933  12.710   9.769  10.585
58367SOL    HW176934  12.650   9.695  10.597
58367SOL    HW276935  12.692   9.826  10.660
58368SOL     OW76936   0.480   2.290   7.013
58368SOL    HW176937   0.551   2.348   6.985
58368SOL    HW276938   0.471   2.307   7.107
58369SOL     OW76939   6.231   0.221   7.255
58369SOL    HW176940   6.320   0.225   7.220
58369SOL    HW276941   6.242   0.191   7.345
58370SOL     OW76942   6.450   6.151   3.465
58370SOL    HW176943   6.409   6.199   3.393
58370SOL    HW276944   6.445   6.210   3.540
58371SOL     OW76945  11.201  12.798   1.794
58371SOL    HW176946  11.234  12.882   1.762
58371SOL    HW276947  11.187  12.746   1.714
58372SOL     OW76948   8.048   9.512   6.654
58372SOL    HW176949   8.006   9.431   6.625
58372SOL    HW276950   8.068   9.497   6.746
58373SOL     OW76951   0.041   6.959   3.444
58373SOL    HW176952   0.080   6.883   3.401
58373SOL    HW276953  14.839   6.924   3.493
58374SOL     OW76954   8.775   0.637  14.577
58374SOL    HW176955   8.720   0.712  14.601
58374SOL    HW276956   8.739   0.607  14.493
58375SOL     OW76957  12.780   9.092  10.617
58375SOL    HW176958  12.761   9.186  10.606
58375SOL    HW276959  12.852   9.076  10.556
58376SOL     OW76960  11.595  14.405   6.478
58376SOL    HW176961  11.539  14.354   6.420
58376SOL    HW276962  11.675  14.354   6.486
58377SOL     OW76963   2.549  14.150   8.327
58377SOL    HW176964   2.478  14.183   8.272
58377SOL    HW276965   2.591  14.228   8.362
58378SOL     OW76966   6.000  12.328   2.844
58378SOL    HW176967   5.920  12.305   2.796
58378SOL    HW276968   5.971  12.385   2.914
58379SOL     OW76969  13.530  13.458   1.187
58379SOL    HW176970  13.519  13.363   1.191
58379SOL    HW276971  13.619  13.470   1.152
58380SOL     OW76972   7.918  13.412   3.926
58380SOL    HW176973   7.879  13.349   3.866
58380SOL    HW276974   7.988  13.454   3.876
58381SOL     OW76975   0.813   0.954   8.069
58381SOL    HW176976   0.750   0.916   8.009
58381SOL    HW276977   0.776   1.040   8.091
58382SOL     OW76978   9.373   8.719   9.643
58382SOL    HW176979   9.322   8.646   9.608
58382SOL    HW276980   9.406   8.687   9.727
58383SOL     OW76981   9.161  13.933   5.664
58383SOL    HW176982   9.174  13.865   5.598
58383SOL    HW276983   9.145  14.013   5.613
58384SOL     OW76984  14.468   3.774   3.930
58384SOL    HW176985  14.383   3.755   3.890
58384SOL    HW276986  14.450   3.776   4.024
58385SOL     OW76987  11.744   7.175  12.011
58385SOL    HW176988  11.800   7.169  11.934
58385SOL    HW276989  11.722   7.084  12.031
58386SOL     OW76990   7.394  10.974   3.518
58386SOL    HW176991   7.429  10.890   3.549
58386SOL    HW276992   7.333  11.002   3.586
58387SOL     OW76993   0.722   2.894   8.233
58387SOL    HW176994   0.814   2.868   8.246
58387SOL    HW276995   0.704   2.953   8.306
58388SOL     OW76996  13.200   2.146   0.916
58388SOL    HW176997  13.256   2.154   0.839
58388SOL    HW276998  13.153   2.229   0.920
58389SOL     OW76999   6.746   9.396   9.045
58389SOL    HW177000   6.673   9.432   9.096
58389SOL    HW277001   6.799   9.349   9.109
58390SOL     OW77002   0.939   7.594   9.453
58390SOL    HW177003   0.947   7.673   9.507
58390SOL    HW277004   0.871   7.615   9.389
58391SOL     OW77005  12.389  12.923   5.690
58391SOL    HW177006  12.429  12.895   5.773
58391SOL    HW277007  12.301  12.951   5.715
58392SOL     OW77008   7.848  14.448   1.199
58392SOL    HW177009   7.817  14.538   1.202
58392SOL    HW277010   7.940  14.454   1.175
58393SOL     OW77011   6.692  11.928  12.932
58393SOL    HW177012   6.623  11.926  12.999
58393SOL    HW277013   6.654  11.979  12.860
58394SOL     OW77014  11.978  10.881   4.880
58394SOL    HW177015  11.925  10.918   4.950
58394SOL    HW277016  12.051  10.840   4.924
58395SOL     OW77017   0.287   9.616  11.109
58395SOL    HW177018   0.326   9.530  11.123
58395SOL    HW277019   0.217   9.601  11.045
58396SOL     OW77020  12.662   2.208  10.591
58396SOL    HW177021  12.605   2.160  10.530
58396SOL    HW277022  12.629   2.186  10.677
58397SOL     OW77023  10.894  10.696  13.113
58397SOL    HW177024  10.940  10.657  13.187
58397SOL    HW277025  10.962  10.736  13.060
58398SOL     OW77026   4.371   9.350   2.694
58398SOL    HW177027   4.442   9.301   2.652
58398SOL    HW277028   4.413   9.429   2.728
58399SOL     OW77029   4.323   9.862  10.881
58399SOL    HW177030   4.367   9.802  10.821
58399SOL    HW277031   4.342   9.949  10.847
58400SOL     OW77032   4.791   2.818   2.932
58400SOL    HW177033   4.866   2.821   2.872
58400SOL    HW277034   4.800   2.733   2.976
58401SOL     OW77035  10.392   0.228   8.584
58401SOL    HW177036  10.444   0.293   8.537
58401SOL    HW277037  10.446   0.205   8.660
58402SOL     OW77038   7.765   6.733   2.546
58402SOL    HW177039   7.828   6.689   2.603
58402SOL    HW277040   7.760   6.822   2.580
58403SOL     OW77041   5.912   6.983  12.276
58403SOL    HW177042   5.996   7.022  12.299
58403SOL    HW277043   5.879   6.945  12.358
58404SOL     OW77044   1.904   0.230   4.816
58404SOL    HW177045   1.836   0.267   4.873
58404SOL    HW277046   1.955   0.174   4.874
58405SOL     OW77047  11.322   4.808   7.525
58405SOL    HW177048  11.338   4.889   7.476
58405SOL    HW277049  11.332   4.738   7.460
58406SOL     OW77050  11.148  12.794  10.373
58406SOL    HW177051  11.172  12.733  10.442
58406SOL    HW277052  11.064  12.830  10.401
58407SOL     OW77053   0.134   4.072   5.961
58407SOL    HW177054   0.119   4.119   5.879
58407SOL    HW277055   0.189   3.998   5.936
58408SOL     OW77056   4.553   5.987  10.224
58408SOL    HW177057   4.534   5.920  10.290
58408SOL    HW277058   4.472   5.991  10.172
58409SOL     OW77059   5.198   1.273  12.143
58409SOL    HW177060   5.129   1.224  12.189
58409SOL    HW277061   5.251   1.206  12.101
58410SOL     OW77062  12.995   0.661  12.665
58410SOL    HW177063  12.936   0.696  12.598
58410SOL    HW277064  13.007   0.569  12.641
58411SOL     OW77065   8.173  12.741   5.888
58411SOL    HW177066   8.101  12.718   5.829
58411SOL    HW277067   8.182  12.836   5.880
58412SOL     OW77068  13.694  14.280   9.598
58412SOL    HW177069  13.662  14.370   9.605
58412SOL    HW277070  13.743  14.265   9.678
58413SOL     OW77071  13.243   1.059  11.943
58413SOL    HW177072  13.205   1.128  11.889
58413SOL    HW277073  13.220   0.978  11.897
58414SOL     OW77074  13.711  13.006  14.840
58414SOL    HW177075  13.737  12.992  14.749
58414SOL    HW277076  13.642  13.072  14.835
58415SOL     OW77077   0.698   1.097   4.369
58415SOL    HW177078   0.658   1.031   4.425
58415SOL    HW277079   0.790   1.096   4.392
58416SOL     OW77080   2.146   7.899  11.546
58416SOL    HW177081   2.240   7.877  11.544
58416SOL    HW277082   2.141   7.984  11.503
58417SOL     OW77083  12.871   3.913   8.734
58417SOL    HW177084  12.875   3.817   8.738
58417SOL    HW277085  12.779   3.932   8.715
58418SOL     OW77086  11.325   1.011  14.144
58418SOL    HW177087  11.359   1.061  14.069
58418SOL    HW277088  11.355   0.922  14.130
58419SOL     OW77089   0.140  14.618   3.915
58419SOL    HW177090   0.094  14.547   3.959
58419SOL    HW277091   0.226  14.622   3.958
58420SOL     OW77092  10.946   1.394   6.360
58420SOL    HW177093  10.970   1.443   6.439
58420SOL    HW277094  10.993   1.439   6.289
58421SOL     OW77095   0.173   0.302  12.336
58421SOL    HW177096   0.105   0.330  12.276
58421SOL    HW277097   0.190   0.211  12.314
58422SOL     OW77098   5.368  10.562   2.870
58422SOL    HW177099   5.331  10.629   2.813
58422SOL    HW277100   5.315  10.567   2.950
58423SOL     OW77101   7.989   7.789  10.132
58423SOL    HW177102   8.081   7.814  10.133
58423SOL    HW277103   7.976   7.741  10.214
58424SOL     OW77104   1.764   6.156   9.617
58424SOL    HW177105   1.847   6.112   9.638
58424SOL    HW277106   1.770   6.172   9.523
58425SOL     OW77107   4.391   8.034   3.979
58425SOL    HW177108   4.453   7.963   3.994
58425SOL    HW277109   4.427   8.081   3.904
58426SOL     OW77110   3.048   3.687  13.463
58426SOL    HW177111   3.014   3.762  13.512
58426SOL    HW277112   3.016   3.610  13.511
58427SOL     OW77113   7.881   2.852   5.427
58427SOL    HW177114   7.818   2.816   5.489
58427SOL    HW277115   7.829   2.907   5.369
58428SOL     OW77116   0.071   3.701   7.732
58428SOL    HW177117   0.155   3.716   7.690
58428SOL    HW277118   0.006   3.720   7.664
58429SOL     OW77119   1.290  13.154   8.348
58429SOL    HW177120   1.234  13.133   8.423
58429SOL    HW277121   1.291  13.250   8.345
58430SOL     OW77122   5.256  10.347   5.214
58430SOL    HW177123   5.333  10.381   5.259
58430SOL    HW277124   5.280  10.258   5.188
58431SOL     OW77125   9.667   2.427   0.844
58431SOL    HW177126   9.727   2.353   0.859
58431SOL    HW277127   9.631   2.410   0.757
58432SOL     OW77128   0.921  12.543   7.235
58432SOL    HW177129   0.826  12.533   7.227
58432SOL    HW277130   0.945  12.607   7.169
58433SOL     OW77131   8.307  13.284  12.918
58433SOL    HW177132   8.376  13.245  12.863
58433SOL    HW277133   8.231  13.227  12.904
58434SOL     OW77134  12.416   8.161   4.236
58434SOL    HW177135  12.411   8.256   4.240
58434SOL    HW277136  12.377   8.131   4.318
58435SOL     OW77137   3.062   4.466   8.963
58435SOL    HW177138   3.148   4.430   8.983
58435SOL    HW277139   3.078   4.532   8.896
58436SOL     OW77140  13.738  12.374   4.144
58436SOL    HW177141  13.739  12.301   4.082
58436SOL    HW277142  13.791  12.442   4.103
58437SOL     OW77143   7.822  14.618  11.667
58437SOL    HW177144   7.866  14.539  11.699
58437SOL    HW277145   7.775  14.588  11.589
58438SOL     OW77146   0.336   7.818   1.716
58438SOL    HW177147   0.376   7.808   1.802
58438SOL    HW277148   0.261   7.876   1.730
58439SOL     OW77149  11.409  11.488   8.894
58439SOL    HW177150  11.317  11.510   8.906
58439SOL    HW277151  11.443  11.476   8.983
58440SOL     OW77152  12.519  12.654  10.213
58440SOL    HW177153  12.573  12.599  10.157
58440SOL    HW277154  12.433  12.613  10.212
58441SOL     OW77155   6.218  13.914   0.251
58441SOL    HW177156   6.299  13.884   0.210
58441SOL    HW277157   6.180  13.834   0.288
58442SOL     OW77158  12.683  10.142   4.329
58442SOL    HW177159  12.691  10.176   4.418
58442SOL    HW277160  12.590  10.121   4.319
58443SOL     OW77161   0.607  11.207  14.481
58443SOL    HW177162   0.669  11.198  14.409
58443SOL    HW277163   0.556  11.126  14.479
58444SOL     OW77164   1.436  10.325  11.932
58444SOL    HW177165   1.373  10.389  11.896
58444SOL    HW277166   1.408  10.313  12.022
58445SOL     OW77167   3.979   4.835   7.935
58445SOL    HW177168   4.052   4.894   7.957
58445SOL    HW277169   3.983   4.766   8.000
58446SOL     OW77170   2.188   1.006   4.096
58446SOL    HW177171   2.122   1.040   4.036
58446SOL    HW277172   2.208   0.918   4.062
58447SOL     OW77173   8.268   9.566   8.676
58447SOL    HW177174   8.293   9.487   8.628
58447SOL    HW277175   8.174   9.574   8.663
58448SOL     OW77176  13.718   7.801   3.421
58448SOL    HW177177  13.654   7.861   3.457
58448SOL    HW277178  13.758   7.849   3.348
58449SOL     OW77179  13.164   8.752  11.612
58449SOL    HW177180  13.112   8.778  11.536
58449SOL    HW277181  13.102   8.753  11.685
58450SOL     OW77182   0.576   6.398   6.449
58450SOL    HW177183   0.499   6.350   6.480
58450SOL    HW277184   0.650   6.348   6.483
58451SOL     OW77185   1.723   7.403   2.092
58451SOL    HW177186   1.698   7.312   2.107
58451SOL    HW277187   1.775   7.401   2.012
58452SOL     OW77188   7.316   0.919   7.209
58452SOL    HW177189   7.229   0.893   7.180
58452SOL    HW277190   7.373   0.902   7.134
58453SOL     OW77191   7.341   7.594   8.501
58453SOL    HW177192   7.416   7.581   8.443
58453SOL    HW277193   7.272   7.538   8.465
58454SOL     OW77194   8.743  13.867   8.883
58454SOL    HW177195   8.753  13.930   8.812
58454SOL    HW277196   8.672  13.809   8.854
58455SOL     OW77197   6.752   9.949  11.094
58455SOL    HW177198   6.755  10.040  11.066
58455SOL    HW277199   6.664   9.919  11.072
58456SOL     OW77200   9.624   7.299   0.610
58456SOL    HW177201   9.560   7.354   0.654
58456SOL    HW277202   9.585   7.280   0.525
58457SOL     OW77203  13.514   5.357   2.895
58457SOL    HW177204  13.571   5.281   2.886
58457SOL    HW277205  13.527   5.406   2.814
58458SOL     OW77206   1.709   0.384   3.502
58458SOL    HW177207   1.627   0.410   3.544
58458SOL    HW277208   1.773   0.381   3.574
58459SOL     OW77209  10.358   2.467   7.941
58459SOL    HW177210  10.302   2.398   7.977
58459SOL    HW277211  10.382   2.434   7.854
58460SOL     OW77212   0.661  11.792   2.524
58460SOL    HW177213   0.697  11.707   2.550
58460SOL    HW277214   0.706  11.855   2.580
58461SOL     OW77215   1.699  14.343   5.616
58461SOL    HW177216   1.615  14.318   5.655
58461SOL    HW277217   1.757  14.358   5.690
58462SOL     OW77218  11.087   8.280  11.332
58462SOL    HW177219  11.062   8.372  11.335
58462SOL    HW277220  11.145   8.268  11.408
58463SOL     OW77221  11.225  10.322  10.092
58463SOL    HW177222  11.255  10.231  10.082
58463SOL    HW277223  11.138  10.323  10.051
58464SOL     OW77224   4.800   1.351   8.434
58464SOL    HW177225   4.795   1.333   8.340
58464SOL    HW277226   4.829   1.442   8.440
58465SOL     OW77227   1.835   7.535  13.213
58465SOL    HW177228   1.857   7.451  13.174
58465SOL    HW277229   1.873   7.600  13.154
58466SOL     OW77230  12.766  13.244   9.302
58466SOL    HW177231  12.855  13.279   9.292
58466SOL    HW277232  12.716  13.315   9.340
58467SOL     OW77233   0.418   0.609   0.194
58467SOL    HW177234   0.467   0.538   0.236
58467SOL    HW277235   0.345   0.626   0.254
58468SOL     OW77236  13.411   3.981  10.495
58468SOL    HW177237  13.409   4.075  10.473
58468SOL    HW277238  13.324   3.962  10.529
58469SOL     OW77239   0.033   7.131   5.751
58469SOL    HW177240   0.026   7.075   5.828
58469SOL    HW277241   0.124   7.122   5.722
58470SOL     OW77242   3.330   7.275  10.798
58470SOL    HW177243   3.276   7.219  10.743
58470SOL    HW277244   3.401   7.304  10.740
58471SOL     OW77245  11.409  11.036  13.770
58471SOL    HW177246  11.361  10.958  13.744
58471SOL    HW277247  11.350  11.081  13.831
58472SOL     OW77248  11.670   4.074  13.211
58472SOL    HW177249  11.743   4.103  13.266
58472SOL    HW277250  11.698   4.093  13.121
58473SOL     OW77251  14.217  11.789   5.240
58473SOL    HW177252  14.174  11.858   5.290
58473SOL    HW277253  14.263  11.835   5.170
58474SOL     OW77254   9.631   8.966  12.261
58474SOL    HW177255   9.703   8.956  12.324
58474SOL    HW277256   9.640   8.890  12.203
58475SOL     OW77257   1.705  11.801   2.699
58475SOL    HW177258   1.745  11.757   2.774
58475SOL    HW277259   1.665  11.879   2.735
58476SOL     OW77260   3.255  12.094   2.869
58476SOL    HW177261   3.302  12.011   2.864
58476SOL    HW277262   3.239  12.118   2.778
58477SOL     OW77263  14.740   5.047  12.569
58477SOL    HW177264  14.645   5.038  12.565
58477SOL    HW277265  14.769   5.045  12.478
58478SOL     OW77266   2.021  14.290  10.469
58478SOL    HW177267   2.111  14.323  10.459
58478SOL    HW277268   1.980  14.350  10.531
58479SOL     OW77269   6.023   2.698   6.239
58479SOL    HW177270   6.091   2.647   6.196
58479SOL    HW277271   5.951   2.700   6.176
58480SOL     OW77272  11.338   4.199   9.940
58480SOL    HW177273  11.386   4.242  10.010
58480SOL    HW277274  11.290   4.128   9.983
58481SOL     OW77275   8.409   9.325   9.974
58481SOL    HW177276   8.480   9.308   9.912
58481SOL    HW277277   8.407   9.247  10.030
58482SOL     OW77278  12.167   5.222   8.387
58482SOL    HW177279  12.130   5.253   8.305
58482SOL    HW277280  12.232   5.287   8.411
58483SOL     OW77281   1.497  10.233   8.132
58483SOL    HW177282   1.514  10.306   8.072
58483SOL    HW277283   1.406  10.245   8.159
58484SOL     OW77284   2.450  12.249   4.707
58484SOL    HW177285   2.437  12.269   4.614
58484SOL    HW277286   2.503  12.322   4.740
58485SOL     OW77287   4.524   1.487   8.943
58485SOL    HW177288   4.440   1.497   8.898
58485SOL    HW277289   4.556   1.401   8.915
58486SOL     OW77290  11.489  14.316   7.112
58486SOL    HW177291  11.396  14.306   7.133
58486SOL    HW277292  11.532  14.244   7.157
58487SOL     OW77293  13.547   3.636  13.708
58487SOL    HW177294  13.544   3.617  13.615
58487SOL    HW277295  13.566   3.551  13.749
58488SOL     OW77296   0.168  11.164   9.569
58488SOL    HW177297   0.189  11.136   9.657
58488SOL    HW277298   0.195  11.256   9.566
58489SOL     OW77299  10.901  13.435   5.064
58489SOL    HW177300  10.820  13.385   5.061
58489SOL    HW277301  10.877  13.519   5.103
58490SOL     OW77302  11.547  13.963  13.766
58490SOL    HW177303  11.473  14.022  13.750
58490SOL    HW277304  11.511  13.896  13.825
58491SOL     OW77305  13.500   1.341   7.596
58491SOL    HW177306  13.575   1.400   7.606
58491SOL    HW277307  13.425   1.394   7.625
58492SOL     OW77308   7.517   3.934  13.059
58492SOL    HW177309   7.425   3.960  13.057
58492SOL    HW277310   7.557   3.980  12.985
58493SOL     OW77311   1.183  10.338   5.963
58493SOL    HW177312   1.202  10.432   5.963
58493SOL    HW277313   1.241  10.303   6.031
58494SOL     OW77314   2.141   3.141   3.591
58494SOL    HW177315   2.100   3.107   3.512
58494SOL    HW277316   2.071   3.142   3.656
58495SOL     OW77317  13.353   5.640  10.088
58495SOL    HW177318  13.281   5.628  10.151
58495SOL    HW277319  13.414   5.700  10.133
58496SOL     OW77320   8.347   0.201  12.662
58496SOL    HW177321   8.390   0.224  12.580
58496SOL    HW277322   8.413   0.219  12.730
58497SOL     OW77323  13.169   6.389  12.373
58497SOL    HW177324  13.132   6.335  12.442
58497SOL    HW277325  13.127   6.360  12.293
58498SOL     OW77326  11.600   7.958   6.996
58498SOL    HW177327  11.553   7.996   6.921
58498SOL    HW277328  11.669   8.021   7.015
58499SOL     OW77329   8.575  11.189   2.545
58499SOL    HW177330   8.649  11.190   2.484
58499SOL    HW277331   8.609  11.231   2.624
58500SOL     OW77332  14.505   8.735  11.579
58500SOL    HW177333  14.417   8.748  11.545
58500SOL    HW277334  14.495   8.738  11.675
58501SOL     OW77335   6.035   7.448   8.223
58501SOL    HW177336   5.990   7.368   8.249
58501SOL    HW277337   6.070   7.429   8.136
58502SOL     OW77338  12.167  12.177   9.428
58502SOL    HW177339  12.120  12.179   9.511
58502SOL    HW277340  12.240  12.238   9.440
58503SOL     OW77341   3.376  11.771  14.366
58503SOL    HW177342   3.357  11.774  14.273
58503SOL    HW277343   3.467  11.742  14.372
58504SOL     OW77344   5.687   3.673   7.467
58504SOL    HW177345   5.674   3.767   7.460
58504SOL    HW277346   5.769   3.656   7.420
58505SOL     OW77347   9.829  13.134   6.425
58505SOL    HW177348   9.737  13.110   6.428
58505SOL    HW277349   9.876  13.053   6.447
58506SOL     OW77350  10.014   0.164  12.475
58506SOL    HW177351  10.044   0.073  12.475
58506SOL    HW277352  10.079   0.211  12.526
58507SOL     OW77353  12.515   7.223  14.816
58507SOL    HW177354  12.599   7.202  14.856
58507SOL    HW277355  12.536   7.288  14.748
58508SOL     OW77356   8.357   9.372   5.647
58508SOL    HW177357   8.444   9.358   5.683
58508SOL    HW277358   8.363   9.343   5.557
58509SOL     OW77359   2.505   1.813   3.692
58509SOL    HW177360   2.506   1.718   3.709
58509SOL    HW277361   2.568   1.825   3.621
58510SOL     OW77362   4.618   2.547  14.363
58510SOL    HW177363   4.599   2.462  14.403
58510SOL    HW277364   4.685   2.528  14.297
58511SOL     OW77365  12.118   7.490   4.236
58511SOL    HW177366  12.086   7.571   4.196
58511SOL    HW277367  12.201   7.473   4.191
58512SOL     OW77368   5.301   2.770  11.615
58512SOL    HW177369   5.207   2.786  11.617
58512SOL    HW277370   5.327   2.789  11.525
58513SOL     OW77371  13.076  14.028   7.219
58513SOL    HW177372  13.111  13.964   7.281
58513SOL    HW277373  13.053  13.976   7.142
58514SOL     OW77374   9.488   7.990   2.342
58514SOL    HW177375   9.419   7.929   2.316
58514SOL    HW277376   9.447   8.046   2.408
58515SOL     OW77377   4.245   5.827  12.349
58515SOL    HW177378   4.267   5.919  12.366
58515SOL    HW277379   4.329   5.783  12.341
58516SOL     OW77380   9.863  13.198   4.848
58516SOL    HW177381   9.784  13.160   4.810
58516SOL    HW277382   9.887  13.269   4.789
58517SOL     OW77383  11.780   7.616  11.474
58517SOL    HW177384  11.816   7.691  11.521
58517SOL    HW277385  11.855   7.573  11.435
58518SOL     OW77386   3.746  10.352   4.657
58518SOL    HW177387   3.770  10.384   4.743
58518SOL    HW277388   3.738  10.257   4.668
58519SOL     OW77389   3.446  12.556  12.037
58519SOL    HW177390   3.475  12.498  12.107
58519SOL    HW277391   3.389  12.620  12.081
58520SOL     OW77392   9.827   0.049  11.645
58520SOL    HW177393   9.889   0.109  11.686
58520SOL    HW277394   9.776   0.105  11.586
58521SOL     OW77395  13.289  11.286   1.012
58521SOL    HW177396  13.314  11.198   1.038
58521SOL    HW277397  13.227  11.314   1.079
58522SOL     OW77398   7.619   1.814  10.406
58522SOL    HW177399   7.677   1.890  10.401
58522SOL    HW277400   7.531   1.852  10.402
58523SOL     OW77401  11.125   1.377  10.624
58523SOL    HW177402  11.086   1.438  10.687
58523SOL    HW277403  11.181   1.320  10.676
58524SOL     OW77404  13.634   7.772  10.030
58524SOL    HW177405  13.605   7.856  10.067
58524SOL    HW277406  13.685   7.732  10.099
58525SOL     OW77407  10.567   3.843   5.412
58525SOL    HW177408  10.642   3.819   5.466
58525SOL    HW277409  10.604   3.893   5.340
58526SOL     OW77410   9.642  13.151   8.194
58526SOL    HW177411   9.719  13.162   8.249
58526SOL    HW277412   9.672  13.095   8.122
58527SOL     OW77413   9.877   7.558  10.393
58527SOL    HW177414   9.917   7.613  10.460
58527SOL    HW277415   9.918   7.588  10.311
58528SOL     OW77416   5.707   1.421   6.705
58528SOL    HW177417   5.667   1.476   6.772
58528SOL    HW277418   5.784   1.384   6.748
58529SOL     OW77419   0.222   5.421   9.915
58529SOL    HW177420   0.151   5.378   9.867
58529SOL    HW277421   0.204   5.402  10.007
58530SOL     OW77422  13.219   0.938  11.551
58530SOL    HW177423  13.199   1.031  11.562
58530SOL    HW277424  13.136   0.893  11.568
58531SOL     OW77425   7.774   7.031   8.450
58531SOL    HW177426   7.811   7.110   8.490
58531SOL    HW277427   7.835   6.962   8.474
58532SOL     OW77428  14.462   9.992   6.495
58532SOL    HW177429  14.491   9.976   6.405
58532SOL    HW277430  14.367   9.985   6.491
58533SOL     OW77431   0.209  12.737  13.124
58533SOL    HW177432   0.171  12.815  13.166
58533SOL    HW277433   0.145  12.668  13.139
58534SOL     OW77434  12.360   1.533  12.315
58534SOL    HW177435  12.352   1.620  12.275
58534SOL    HW277436  12.366   1.550  12.409
58535SOL     OW77437   8.193   3.537  10.868
58535SOL    HW177438   8.208   3.502  10.780
58535SOL    HW277439   8.098   3.550  10.873
58536SOL     OW77440   1.016   3.925   2.213
58536SOL    HW177441   1.078   3.959   2.278
58536SOL    HW277442   0.930   3.933   2.256
58537SOL     OW77443   2.456   4.532   0.652
58537SOL    HW177444   2.475   4.592   0.723
58537SOL    HW277445   2.503   4.452   0.674
58538SOL     OW77446  12.384  12.366   5.944
58538SOL    HW177447  12.441  12.307   5.895
58538SOL    HW277448  12.419  12.453   5.924
58539SOL     OW77449   3.178  10.189  10.030
58539SOL    HW177450   3.113  10.253  10.001
58539SOL    HW277451   3.244  10.188   9.960
58540SOL     OW77452   2.733   7.476  14.318
58540SOL    HW177453   2.813   7.529  14.323
58540SOL    HW277454   2.695   7.481  14.406
58541SOL     OW77455   9.164   2.911   8.376
58541SOL    HW177456   9.160   3.006   8.388
58541SOL    HW277457   9.089   2.890   8.321
58542SOL     OW77458  11.684   0.322  13.850
58542SOL    HW177459  11.741   0.310  13.926
58542SOL    HW277460  11.743   0.313  13.775
58543SOL     OW77461   6.029   3.908   5.672
58543SOL    HW177462   5.945   3.884   5.711
58543SOL    HW277463   6.090   3.840   5.701
58544SOL     OW77464   1.782   5.787   3.007
58544SOL    HW177465   1.727   5.712   3.026
58544SOL    HW277466   1.782   5.793   2.911
58545SOL     OW77467   6.523  11.791   0.108
58545SOL    HW177468   6.492  11.873   0.147
58545SOL    HW277469   6.446  11.755   0.063
58546SOL     OW77470   9.799   4.798   8.037
58546SOL    HW177471   9.820   4.877   8.087
58546SOL    HW277472   9.883   4.754   8.025
58547SOL     OW77473   1.195   1.003  13.826
58547SOL    HW177474   1.269   1.013  13.886
58547SOL    HW277475   1.233   0.961  13.748
58548SOL     OW77476   7.531   3.148  13.147
58548SOL    HW177477   7.446   3.190  13.157
58548SOL    HW277478   7.594   3.217  13.170
58549SOL     OW77479   5.039   0.635  14.464
58549SOL    HW177480   5.104   0.669  14.403
58549SOL    HW277481   5.090   0.597  14.535
58550SOL     OW77482   6.427  12.474  10.477
58550SOL    HW177483   6.412  12.501  10.387
58550SOL    HW277484   6.515  12.505  10.498
58551SOL     OW77485   5.006   9.961  14.792
58551SOL    HW177486   4.915   9.977  14.819
58551SOL    HW277487   5.057   9.970  14.872
58552SOL     OW77488   1.007   5.318   2.758
58552SOL    HW177489   0.971   5.397   2.798
58552SOL    HW277490   0.939   5.252   2.772
58553SOL     OW77491  13.374   7.914   5.292
58553SOL    HW177492  13.462   7.947   5.275
58553SOL    HW277493  13.359   7.934   5.385
58554SOL     OW77494   4.024   8.204  10.496
58554SOL    HW177495   4.046   8.127  10.547
58554SOL    HW277496   4.103   8.258  10.498
58555SOL     OW77497   8.477   3.236   8.849
58555SOL    HW177498   8.455   3.323   8.881
58555SOL    HW277499   8.412   3.219   8.780
58556SOL     OW77500   0.391  14.639   9.492
58556SOL    HW177501   0.480  14.655   9.522
58556SOL    HW277502   0.394  14.554   9.448
58557SOL     OW77503   1.276  13.271   0.777
58557SOL    HW177504   1.340  13.307   0.838
58557SOL    HW277505   1.262  13.340   0.713
58558SOL     OW77506   0.797  12.836   0.917
58558SOL    HW177507   0.819  12.886   0.995
58558SOL    HW277508   0.723  12.883   0.878
58559SOL     OW77509  14.721  14.166   3.831
58559SOL    HW177510  14.806  14.208   3.820
58559SOL    HW277511  14.742  14.072   3.835
58560SOL     OW77512   4.066   4.188   8.277
58560SOL    HW177513   4.142   4.214   8.224
58560SOL    HW277514   4.026   4.270   8.305
58561SOL     OW77515   0.761   4.780  11.160
58561SOL    HW177516   0.847   4.757  11.123
58561SOL    HW277517   0.782   4.834  11.237
58562SOL     OW77518   6.494  13.610   1.489
58562SOL    HW177519   6.418  13.638   1.438
58562SOL    HW277520   6.459  13.597   1.578
58563SOL     OW77521   3.758   6.853  13.045
58563SOL    HW177522   3.695   6.911  13.003
58563SOL    HW277523   3.751   6.873  13.139
58564SOL     OW77524   6.055   2.529   5.790
58564SOL    HW177525   5.965   2.497   5.785
58564SOL    HW277526   6.063   2.589   5.715
58565SOL     OW77527  14.278  13.453   7.435
58565SOL    HW177528  14.313  13.438   7.523
58565SOL    HW277529  14.213  13.523   7.446
58566SOL     OW77530   0.442   4.655  11.784
58566SOL    HW177531   0.465   4.739  11.743
58566SOL    HW277532   0.498   4.651  11.862
58567SOL     OW77533   6.467   4.792   2.180
58567SOL    HW177534   6.485   4.737   2.104
58567SOL    HW277535   6.439   4.731   2.248
58568SOL     OW77536  12.536  13.178  12.090
58568SOL    HW177537  12.549  13.159  11.998
58568SOL    HW277538  12.514  13.094  12.129
58569SOL     OW77539   2.136  11.719  10.044
58569SOL    HW177540   2.057  11.665  10.057
58569SOL    HW277541   2.205  11.655  10.027
58570SOL     OW77542   7.973  10.669   0.053
58570SOL    HW177543   7.891  10.697   0.011
58570SOL    HW277544   8.032  10.653  14.852
58571SOL     OW77545  10.162  11.336   9.605
58571SOL    HW177546  10.221  11.294   9.542
58571SOL    HW277547  10.172  11.429   9.588
58572SOL     OW77548   2.387   3.972  13.670
58572SOL    HW177549   2.358   4.034  13.736
58572SOL    HW277550   2.400   4.025  13.591
58573SOL     OW77551   2.171   2.507  13.298
58573SOL    HW177552   2.107   2.436  13.295
58573SOL    HW277553   2.157   2.548  13.383
58574SOL     OW77554  10.689  12.898  14.171
58574SOL    HW177555  10.684  12.991  14.193
58574SOL    HW277556  10.597  12.870  14.166
58575SOL     OW77557   9.504   5.708  12.201
58575SOL    HW177558   9.481   5.722  12.110
58575SOL    HW277559   9.562   5.781  12.222
58576SOL     OW77560   1.605   9.412  13.434
58576SOL    HW177561   1.656   9.449  13.362
58576SOL    HW277562   1.646   9.449  13.513
58577SOL     OW77563  11.602   0.080  12.194
58577SOL    HW177564  11.651   0.157  12.222
58577SOL    HW277565  11.538   0.065  12.263
58578SOL     OW77566  12.066   6.299   5.236
58578SOL    HW177567  12.155   6.284   5.203
58578SOL    HW277568  12.010   6.248   5.177
58579SOL     OW77569   4.160  13.012  10.424
58579SOL    HW177570   4.105  13.014  10.346
58579SOL    HW277571   4.194  12.922  10.427
58580SOL     OW77572  12.407   8.206   0.332
58580SOL    HW177573  12.355   8.126   0.340
58580SOL    HW277574  12.489   8.178   0.291
58581SOL     OW77575   4.502   3.700  10.772
58581SOL    HW177576   4.442   3.748  10.830
58581SOL    HW277577   4.501   3.751  10.691
58582SOL     OW77578   1.126   8.050   2.320
58582SOL    HW177579   1.158   8.046   2.230
58582SOL    HW277580   1.057   7.984   2.325
58583SOL     OW77581  12.785   7.047   4.921
58583SOL    HW177582  12.870   7.065   4.960
58583SOL    HW277583  12.784   6.953   4.906
58584SOL     OW77584  12.002   6.867  11.474
58584SOL    HW177585  12.086   6.865  11.428
58584SOL    HW277586  11.978   6.959  11.477
58585SOL     OW77587   5.370   5.200   9.916
58585SOL    HW177588   5.278   5.194   9.890
58585SOL    HW277589   5.373   5.274   9.976
58586SOL     OW77590  14.094   2.529   5.340
58586SOL    HW177591  14.103   2.601   5.278
58586SOL    HW277592  14.053   2.569   5.417
58587SOL     OW77593   6.331   3.730   6.974
58587SOL    HW177594   6.315   3.652   7.027
58587SOL    HW277595   6.311   3.703   6.885
58588SOL     OW77596   0.900   4.982   5.895
58588SOL    HW177597   0.924   4.940   5.813
58588SOL    HW277598   0.946   4.932   5.962
58589SOL     OW77599   9.867   4.150   0.537
58589SOL    HW177600   9.926   4.084   0.573
58589SOL    HW277601   9.862   4.217   0.606
58590SOL     OW77602  13.216  13.703   2.516
58590SOL    HW177603  13.236  13.657   2.435
58590SOL    HW277604  13.186  13.790   2.488
58591SOL     OW77605   3.462   5.608   8.335
58591SOL    HW177606   3.507   5.679   8.289
58591SOL    HW277607   3.530   5.542   8.350
58592SOL     OW77608   3.959   6.232  11.419
58592SOL    HW177609   3.933   6.179  11.343
58592SOL    HW277610   4.040   6.275  11.392
58593SOL     OW77611   8.452   8.081  10.424
58593SOL    HW177612   8.515   8.043  10.363
58593SOL    HW277613   8.374   8.026  10.415
58594SOL     OW77614   8.799   5.447  12.228
58594SOL    HW177615   8.829   5.512  12.165
58594SOL    HW277616   8.847   5.367  12.205
58595SOL     OW77617  12.659  14.649   7.779
58595SOL    HW177618  12.568  14.644   7.808
58595SOL    HW277619  12.698  14.717   7.834
58596SOL     OW77620  11.194   6.546  10.301
58596SOL    HW177621  11.192   6.455  10.333
58596SOL    HW277622  11.262   6.588  10.353
58597SOL     OW77623   6.196   6.224  11.332
58597SOL    HW177624   6.213   6.315  11.307
58597SOL    HW277625   6.101   6.216  11.332
58598SOL     OW77626   5.150   3.893  12.643
58598SOL    HW177627   5.064   3.856  12.625
58598SOL    HW277628   5.212   3.829  12.606
58599SOL     OW77629   7.043   3.115   5.635
58599SOL    HW177630   6.989   3.104   5.713
58599SOL    HW277631   6.981   3.129   5.564
58600SOL     OW77632  13.467   4.547   9.079
58600SOL    HW177633  13.414   4.539   9.159
58600SOL    HW277634  13.408   4.518   9.009
58601SOL     OW77635   4.282   3.056   4.144
58601SOL    HW177636   4.242   3.137   4.114
58601SOL    HW277637   4.253   2.989   4.082
58602SOL     OW77638   2.171  13.761   2.493
58602SOL    HW177639   2.110  13.815   2.542
58602SOL    HW277640   2.129  13.749   2.408
58603SOL     OW77641  11.781  10.761  13.367
58603SOL    HW177642  11.717  10.722  13.426
58603SOL    HW277643  11.833  10.818  13.423
58604SOL     OW77644   5.092   5.650  14.823
58604SOL    HW177645   4.999   5.656  14.800
58604SOL    HW277646   5.111   5.734  14.867
58605SOL     OW77647  14.493   2.645  11.394
58605SOL    HW177648  14.572   2.631  11.341
58605SOL    HW277649  14.478   2.739  11.390
58606SOL     OW77650   3.634  13.153   4.113
58606SOL    HW177651   3.698  13.145   4.183
58606SOL    HW277652   3.639  13.070   4.065
58607SOL     OW77653  11.520  10.907   4.799
58607SOL    HW177654  11.586  10.971   4.771
58607SOL    HW277655  11.528  10.835   4.737
58608SOL     OW77656   5.054   7.657   9.616
58608SOL    HW177657   5.077   7.706   9.537
58608SOL    HW277658   4.959   7.646   9.612
58609SOL     OW77659  13.825  11.943  13.894
58609SOL    HW177660  13.761  11.968  13.960
58609SOL    HW277661  13.903  11.994  13.916
58610SOL     OW77662  11.447   5.812   1.046
58610SOL    HW177663  11.460   5.800   0.952
58610SOL    HW277664  11.484   5.898   1.065
58611SOL     OW77665  14.387   3.564  10.628
58611SOL    HW177666  14.449   3.636  10.641
58611SOL    HW277667  14.301   3.605  10.636
58612SOL     OW77668  12.702   2.250  11.662
58612SOL    HW177669  12.651   2.326  11.635
58612SOL    HW277670  12.783   2.255  11.611
58613SOL     OW77671   6.351   6.258  13.360
58613SOL    HW177672   6.349   6.162  13.357
58613SOL    HW277673   6.348   6.279  13.454
58614SOL     OW77674  12.169   6.478   1.805
58614SOL    HW177675  12.144   6.438   1.722
58614SOL    HW277676  12.129   6.422   1.872
58615SOL     OW77677   8.364   1.548  12.936
58615SOL    HW177678   8.446   1.575  12.896
58615SOL    HW277679   8.301   1.546  12.864
58616SOL     OW77680   7.576   4.953   3.687
58616SOL    HW177681   7.492   4.969   3.729
58616SOL    HW277682   7.612   4.878   3.735
58617SOL     OW77683   1.067   8.885   7.862
58617SOL    HW177684   1.146   8.866   7.811
58617SOL    HW277685   1.024   8.956   7.814
58618SOL     OW77686   8.792  10.631  12.933
58618SOL    HW177687   8.794  10.703  12.995
58618SOL    HW277688   8.710  10.585  12.952
58619SOL     OW77689  12.357   0.303   4.866
58619SOL    HW177690  12.320   0.287   4.953
58619SOL    HW277691  12.448   0.330   4.883
58620SOL     OW77692   5.123   2.083  13.409
58620SOL    HW177693   5.103   2.171  13.378
58620SOL    HW277694   5.197   2.055  13.355
58621SOL     OW77695   3.882   1.036  14.453
58621SOL    HW177696   3.833   1.103  14.499
58621SOL    HW277697   3.924   0.984  14.522
58622SOL     OW77698   0.895   0.377   0.177
58622SOL    HW177699   0.933   0.306   0.125
58622SOL    HW277700   0.894   0.452   0.117
58623SOL     OW77701   3.931   8.283   4.173
58623SOL    HW177702   4.005   8.232   4.207
58623SOL    HW277703   3.882   8.221   4.119
58624SOL     OW77704   8.457   3.136   0.629
58624SOL    HW177705   8.419   3.075   0.692
58624SOL    HW277706   8.436   3.222   0.664
58625SOL     OW77707   2.440   8.964   2.101
58625SOL    HW177708   2.376   9.035   2.102
58625SOL    HW277709   2.430   8.920   2.185
58626SOL     OW77710   6.091   0.442  11.832
58626SOL    HW177711   6.180   0.452  11.867
58626SOL    HW277712   6.041   0.405  11.905
58627SOL     OW77713   3.559   6.069  14.054
58627SOL    HW177714   3.477   6.113  14.032
58627SOL    HW277715   3.607   6.132  14.107
58628SOL     OW77716   9.156   8.969   0.028
58628SOL    HW177717   9.233   8.940  14.852
58628SOL    HW277718   9.176   8.947   0.119
58629SOL     OW77719  10.238   3.909  11.000
58629SOL    HW177720  10.173   3.840  11.017
58629SOL    HW277721  10.262   3.897  10.908
58630SOL     OW77722   9.969  11.655   4.379
58630SOL    HW177723   9.947  11.681   4.468
58630SOL    HW277724   9.903  11.589   4.356
58631SOL     OW77725  13.896   6.331   3.709
58631SOL    HW177726  13.814   6.316   3.662
58631SOL    HW277727  13.869   6.352   3.799
58632SOL     OW77728   8.648   7.186   1.262
58632SOL    HW177729   8.663   7.178   1.357
58632SOL    HW277730   8.557   7.161   1.250
58633SOL     OW77731   5.518   5.154  11.534
58633SOL    HW177732   5.543   5.206  11.610
58633SOL    HW277733   5.423   5.143  11.542
58634SOL     OW77734   1.689  14.408   3.542
58634SOL    HW177735   1.698  14.502   3.554
58634SOL    HW277736   1.714  14.393   3.451
58635SOL     OW77737   5.429   2.799   9.996
58635SOL    HW177738   5.448   2.891  10.015
58635SOL    HW277739   5.334   2.793  10.003
58636SOL     OW77740  10.930   5.358   0.503
58636SOL    HW177741  10.990   5.303   0.552
58636SOL    HW277742  10.848   5.355   0.552
58637SOL     OW77743   4.192   0.927  13.004
58637SOL    HW177744   4.143   0.871  12.944
58637SOL    HW277745   4.127   0.989  13.036
58638SOL     OW77746  11.604   1.389   8.415
58638SOL    HW177747  11.526   1.378   8.470
58638SOL    HW277748  11.625   1.301   8.384
58639SOL     OW77749   7.572  13.567   4.916
58639SOL    HW177750   7.586  13.636   4.850
58639SOL    HW277751   7.513  13.505   4.873
58640SOL     OW77752  12.920   3.516  12.953
58640SOL    HW177753  12.850   3.485  13.011
58640SOL    HW277754  12.882   3.591  12.908
58641SOL     OW77755   7.240  11.929   1.909
58641SOL    HW177756   7.276  11.932   1.820
58641SOL    HW277757   7.147  11.949   1.897
58642SOL     OW77758  13.885   9.996  12.639
58642SOL    HW177759  13.889   9.909  12.600
58642SOL    HW277760  13.976  10.022  12.651
58643SOL     OW77761  13.779   1.526   5.394
58643SOL    HW177762  13.781   1.514   5.299
58643SOL    HW277763  13.728   1.606   5.408
58644SOL     OW77764   0.669  14.540   8.515
58644SOL    HW177765   0.651  14.510   8.605
58644SOL    HW277766   0.742  14.601   8.525
58645SOL     OW77767   8.773   0.795   4.628
58645SOL    HW177768   8.716   0.832   4.561
58645SOL    HW277769   8.770   0.858   4.700
58646SOL     OW77770   2.564   6.910   2.704
58646SOL    HW177771   2.597   6.867   2.625
58646SOL    HW277772   2.596   7.000   2.697
58647SOL     OW77773  13.476   2.823   0.559
58647SOL    HW177774  13.472   2.918   0.546
58647SOL    HW277775  13.553   2.810   0.615
58648SOL     OW77776  14.680   5.444  11.512
58648SOL    HW177777  14.630   5.509  11.561
58648SOL    HW277778  14.614   5.395  11.463
58649SOL     OW77779   1.253  11.815   8.035
58649SOL    HW177780   1.347  11.802   8.050
58649SOL    HW277781   1.238  11.907   8.054
58650SOL     OW77782  10.714  12.932  10.664
58650SOL    HW177783  10.643  12.974  10.614
58650SOL    HW277784  10.669  12.884  10.733
58651SOL     OW77785  12.966   3.989  11.769
58651SOL    HW177786  12.883   3.949  11.796
58651SOL    HW277787  13.032   3.923  11.791
58652SOL     OW77788   9.322   8.905   4.295
58652SOL    HW177789   9.305   8.999   4.295
58652SOL    HW277790   9.237   8.864   4.313
58653SOL     OW77791   5.541   6.010  10.061
58653SOL    HW177792   5.605   5.962  10.113
58653SOL    HW277793   5.566   5.992   9.970
58654SOL     OW77794   8.778   1.602  13.845
58654SOL    HW177795   8.873   1.597  13.850
58654SOL    HW277796   8.756   1.566  13.759
58655SOL     OW77797   8.960   5.576   8.445
58655SOL    HW177798   9.019   5.536   8.380
58655SOL    HW277799   8.880   5.524   8.440
58656SOL     OW77800  10.175   9.720   4.760
58656SOL    HW177801  10.184   9.739   4.667
58656SOL    HW277802  10.142   9.630   4.763
58657SOL     OW77803  10.517   2.904   6.851
58657SOL    HW177804  10.526   2.859   6.767
58657SOL    HW277805  10.589   2.968   6.851
58658SOL     OW77806  14.716  13.848   8.665
58658SOL    HW177807  14.749  13.891   8.586
58658SOL    HW277808  14.787  13.789   8.691
58659SOL     OW77809   4.051   9.386   9.162
58659SOL    HW177810   4.045   9.460   9.102
58659SOL    HW277811   4.087   9.314   9.109
58660SOL     OW77812   8.192   7.991  10.376
58660SOL    HW177813   8.151   7.917  10.422
58660SOL    HW277814   8.117   8.043  10.346
58661SOL     OW77815   7.123   5.660   9.084
58661SOL    HW177816   7.170   5.614   9.015
58661SOL    HW277817   7.093   5.741   9.042
58662SOL     OW77818   0.041   1.269   7.376
58662SOL    HW177819   0.127   1.287   7.414
58662SOL    HW277820   0.059   1.228   7.292
58663SOL     OW77821  11.622   7.395   2.257
58663SOL    HW177822  11.535   7.410   2.218
58663SOL    HW277823  11.676   7.369   2.183
58664SOL     OW77824   1.961  12.272   6.546
58664SOL    HW177825   1.891  12.208   6.554
58664SOL    HW277826   1.953  12.326   6.624
58665SOL     OW77827   7.678   0.639  13.322
58665SOL    HW177828   7.730   0.582  13.265
58665SOL    HW277829   7.629   0.579  13.378
58666SOL     OW77830  10.669   2.489   1.015
58666SOL    HW177831  10.644   2.538   1.093
58666SOL    HW277832  10.594   2.496   0.957
58667SOL     OW77833   8.890  13.611   8.672
58667SOL    HW177834   8.915  13.681   8.731
58667SOL    HW277835   8.894  13.650   8.584
58668SOL     OW77836   1.398   4.805   0.590
58668SOL    HW177837   1.473   4.847   0.633
58668SOL    HW277838   1.431   4.720   0.560
58669SOL     OW77839  10.078   0.822   5.653
58669SOL    HW177840  10.029   0.887   5.703
58669SOL    HW277841  10.165   0.860   5.641
58670SOL     OW77842   7.429   5.908   3.039
58670SOL    HW177843   7.406   5.838   2.977
58670SOL    HW277844   7.452   5.862   3.120
58671SOL     OW77845   5.173   9.985  13.698
58671SOL    HW177846   5.156   9.991  13.792
58671SOL    HW277847   5.228   9.907  13.689
58672SOL     OW77848   2.401  14.753  14.403
58672SOL    HW177849   2.313  14.750  14.366
58672SOL    HW277850   2.390  14.794  14.489
58673SOL     OW77851   0.947   7.281   3.324
58673SOL    HW177852   1.018   7.264   3.262
58673SOL    HW277853   0.973   7.362   3.368
58674SOL     OW77854   9.887   8.682  13.646
58674SOL    HW177855   9.861   8.648  13.732
58674SOL    HW277856   9.833   8.634  13.584
58675SOL     OW77857   4.372  10.328  10.567
58675SOL    HW177858   4.371  10.385  10.490
58675SOL    HW277859   4.450  10.274  10.555
58676SOL     OW77860  12.216   8.993   7.005
58676SOL    HW177861  12.182   8.962   6.921
58676SOL    HW277862  12.182   8.930   7.069
58677SOL     OW77863  13.301  14.227  11.879
58677SOL    HW177864  13.355  14.292  11.923
58677SOL    HW277865  13.217  14.230  11.924
58678SOL     OW77866   2.624  11.716  12.227
58678SOL    HW177867   2.668  11.801  12.233
58678SOL    HW277868   2.684  11.661  12.177
58679SOL     OW77869   9.843   9.896  10.073
58679SOL    HW177870   9.916   9.877  10.014
58679SOL    HW277871   9.775   9.833  10.047
58680SOL     OW77872   1.542   1.384   9.115
58680SOL    HW177873   1.622   1.385   9.062
58680SOL    HW277874   1.546   1.303   9.165
58681SOL     OW77875   7.736   1.327   9.708
58681SOL    HW177876   7.753   1.234   9.726
58681SOL    HW277877   7.795   1.348   9.636
58682SOL     OW77878  10.483   5.447   9.721
58682SOL    HW177879  10.430   5.477   9.794
58682SOL    HW277880  10.426   5.384   9.675
58683SOL     OW77881   8.695  14.655   6.772
58683SOL    HW177882   8.673  14.575   6.820
58683SOL    HW277883   8.783  14.638   6.737
58684SOL     OW77884   5.052   3.784   6.903
58684SOL    HW177885   5.042   3.699   6.859
58684SOL    HW277886   5.062   3.846   6.831
58685SOL     OW77887   2.490   9.809   9.944
58685SOL    HW177888   2.573   9.850   9.917
58685SOL    HW277889   2.440   9.799   9.863
58686SOL     OW77890  14.280  12.273  10.172
58686SOL    HW177891  14.278  12.236  10.084
58686SOL    HW277892  14.252  12.201  10.228
58687SOL     OW77893   3.394  11.865   2.999
58687SOL    HW177894   3.485  11.892   3.012
58687SOL    HW277895   3.400  11.782   2.953
58688SOL     OW77896   5.642   9.706  11.053
58688SOL    HW177897   5.678   9.631  11.101
58688SOL    HW277898   5.625   9.772  11.120
58689SOL     OW77899   1.686  11.182  14.381
58689SOL    HW177900   1.697  11.087  14.381
58689SOL    HW277901   1.736  11.212  14.305
58690SOL     OW77902  13.822  12.209   7.302
58690SOL    HW177903  13.859  12.151   7.369
58690SOL    HW277904  13.728  12.212   7.322
58691SOL     OW77905   0.700   2.598  14.037
58691SOL    HW177906   0.794   2.613  14.048
58691SOL    HW277907   0.689   2.503  14.044
58692SOL     OW77908  10.960  11.700   6.514
58692SOL    HW177909  11.029  11.694   6.580
58692SOL    HW277910  10.909  11.778   6.540
58693SOL     OW77911  12.172   9.267  14.473
58693SOL    HW177912  12.180   9.358  14.442
58693SOL    HW277913  12.079   9.255  14.489
58694SOL     OW77914  12.603   8.092   3.132
58694SOL    HW177915  12.533   8.027   3.137
58694SOL    HW277916  12.676   8.054   3.181
58695SOL     OW77917   3.948   1.829  14.129
58695SOL    HW177918   4.030   1.875  14.111
58695SOL    HW277919   3.883   1.898  14.137
58696SOL     OW77920  12.999  14.565   8.459
58696SOL    HW177921  13.011  14.577   8.553
58696SOL    HW277922  13.088  14.561   8.423
58697SOL     OW77923  10.264   3.145  12.163
58697SOL    HW177924  10.282   3.216  12.101
58697SOL    HW277925  10.200   3.089  12.117
58698SOL     OW77926   4.687   1.724   4.447
58698SOL    HW177927   4.736   1.683   4.375
58698SOL    HW277928   4.611   1.668   4.459
58699SOL     OW77929   7.154  14.443   7.591
58699SOL    HW177930   7.130  14.523   7.638
58699SOL    HW277931   7.222  14.471   7.530
58700SOL     OW77932  12.172  10.091  10.613
58700SOL    HW177933  12.226  10.098  10.534
58700SOL    HW277934  12.231  10.113  10.685
58701SOL     OW77935   3.574  14.803   4.013
58701SOL    HW177936   3.657  14.835   4.048
58701SOL    HW277937   3.599  14.751   3.936
58702SOL     OW77938   1.201  14.777   6.608
58702SOL    HW177939   1.197  14.777   6.703
58702SOL    HW277940   1.204  14.684   6.584
58703SOL     OW77941  13.103  14.006   2.379
58703SOL    HW177942  13.157  13.942   2.332
58703SOL    HW277943  13.013  13.979   2.362
58704SOL     OW77944   4.053   6.195   8.520
58704SOL    HW177945   4.148   6.193   8.506
58704SOL    HW277946   4.023   6.270   8.468
58705SOL     OW77947   8.860   7.335  13.191
58705SOL    HW177948   8.859   7.285  13.272
58705SOL    HW277949   8.953   7.343  13.169
58706SOL     OW77950   4.633  13.213   2.191
58706SOL    HW177951   4.662  13.228   2.101
58706SOL    HW277952   4.540  13.233   2.191
58707SOL     OW77953   5.050   5.720  13.249
58707SOL    HW177954   4.989   5.704  13.321
58707SOL    HW277955   5.104   5.793  13.278
58708SOL     OW77956   2.285   9.585   2.821
58708SOL    HW177957   2.279   9.490   2.820
58708SOL    HW277958   2.220   9.613   2.756
58709SOL     OW77959   0.426   5.116   2.534
58709SOL    HW177960   0.374   5.070   2.468
58709SOL    HW277961   0.387   5.089   2.618
58710SOL     OW77962   1.831   6.496   2.520
58710SOL    HW177963   1.883   6.573   2.498
58710SOL    HW277964   1.780   6.522   2.597
58711SOL     OW77965  13.228  13.526   3.128
58711SOL    HW177966  13.138  13.536   3.098
58711SOL    HW277967  13.231  13.439   3.168
58712SOL     OW77968   6.840   7.048   0.005
58712SOL    HW177969   6.793   7.046   0.088
58712SOL    HW277970   6.865   7.139  14.866
58713SOL     OW77971   5.054   3.630   1.586
58713SOL    HW177972   4.964   3.597   1.591
58713SOL    HW277973   5.075   3.658   1.675
58714SOL     OW77974   5.791  12.735   5.395
58714SOL    HW177975   5.847  12.700   5.464
58714SOL    HW277976   5.795  12.670   5.325
58715SOL     OW77977   6.838   3.730   1.451
58715SOL    HW177978   6.887   3.810   1.430
58715SOL    HW277979   6.783   3.715   1.374
58716SOL     OW77980  13.278  11.262   5.263
58716SOL    HW177981  13.367  11.266   5.227
58716SOL    HW277982  13.233  11.337   5.224
58717SOL     OW77983  12.233  10.971  10.233
58717SOL    HW177984  12.177  11.001  10.161
58717SOL    HW277985  12.308  10.931  10.190
58718SOL     OW77986   1.313   4.143   9.226
58718SOL    HW177987   1.299   4.167   9.318
58718SOL    HW277988   1.286   4.051   9.221
58719SOL     OW77989   3.329  12.673   2.633
58719SOL    HW177990   3.354  12.611   2.702
58719SOL    HW277991   3.412  12.714   2.607
58720SOL     OW77992   7.515   1.397  10.929
58720SOL    HW177993   7.559   1.327  10.881
58720SOL    HW277994   7.469   1.352  11.000
58721SOL     OW77995  10.867  12.144   7.621
58721SOL    HW177996  10.777  12.172   7.635
58721SOL    HW277997  10.861  12.050   7.605
58722SOL     OW77998   4.189   4.203   3.549
58722SOL    HW177999   4.257   4.269   3.566
58722SOL    HW278000   4.161   4.174   3.636
58723SOL     OW78001   2.576  12.999   0.295
58723SOL    HW178002   2.543  12.913   0.321
58723SOL    HW278003   2.610  12.986   0.207
58724SOL     OW78004   7.929   6.262   0.372
58724SOL    HW178005   7.855   6.204   0.391
58724SOL    HW278006   7.890   6.349   0.363
58725SOL     OW78007   4.594  12.964   1.927
58725SOL    HW178008   4.656  13.032   1.900
58725SOL    HW278009   4.590  12.970   2.022
58726SOL     OW78010   2.703   2.568  13.299
58726SOL    HW178011   2.716   2.586  13.392
58726SOL    HW278012   2.612   2.537  13.293
58727SOL     OW78013   8.318   9.609   2.647
58727SOL    HW178014   8.381   9.627   2.577
58727SOL    HW278015   8.248   9.559   2.605
58728SOL     OW78016   6.479   6.882  10.912
58728SOL    HW178017   6.531   6.801  10.913
58728SOL    HW278018   6.423   6.873  10.835
58729SOL     OW78019  14.513   1.795   2.953
58729SOL    HW178020  14.473   1.746   2.881
58729SOL    HW278021  14.586   1.841   2.912
58730SOL     OW78022   0.655  13.784  12.958
58730SOL    HW178023   0.633  13.742  13.042
58730SOL    HW278024   0.587  13.754  12.898
58731SOL     OW78025  14.672   6.506   5.743
58731SOL    HW178026  14.623   6.506   5.661
58731SOL    HW278027  14.744   6.567   5.728
58732SOL     OW78028   8.817  14.804  14.816
58732SOL    HW178029   8.801  14.836   0.032
58732SOL    HW278030   8.842  14.712  14.828
58733SOL     OW78031   9.647   0.554   0.240
58733SOL    HW178032   9.553   0.556   0.221
58733SOL    HW278033   9.674   0.465   0.218
58734SOL     OW78034  12.958   2.993  12.043
58734SOL    HW178035  13.024   2.981  12.112
58734SOL    HW278036  12.961   2.912  11.992
58735SOL     OW78037   5.458  10.413   9.103
58735SOL    HW178038   5.371  10.422   9.142
58735SOL    HW278039   5.508  10.363   9.168
58736SOL     OW78040   2.167  10.768  11.351
58736SOL    HW178041   2.207  10.849  11.323
58736SOL    HW278042   2.125  10.789  11.435
58737SOL     OW78043   2.638   0.587  10.655
58737SOL    HW178044   2.654   0.676  10.688
58737SOL    HW278045   2.645   0.597  10.559
58738SOL     OW78046   9.633  14.352  13.328
58738SOL    HW178047   9.705  14.380  13.271
58738SOL    HW278048   9.672  14.350  13.415
58739SOL     OW78049   0.837  11.406   6.643
58739SOL    HW178050   0.801  11.323   6.611
58739SOL    HW278051   0.856  11.390   6.735
58740SOL     OW78052   5.349   9.218   1.994
58740SOL    HW178053   5.380   9.301   1.957
58740SOL    HW278054   5.312   9.172   1.919
58741SOL     OW78055  12.830   1.926   6.349
58741SOL    HW178056  12.788   1.992   6.404
58741SOL    HW278057  12.919   1.959   6.336
58742SOL     OW78058   3.186  13.295  14.688
58742SOL    HW178059   3.142  13.272  14.770
58742SOL    HW278060   3.116  13.332  14.633
58743SOL     OW78061   4.466   2.066  13.608
58743SOL    HW178062   4.462   2.160  13.590
58743SOL    HW278063   4.492   2.027  13.525
58744SOL     OW78064   1.190   6.055   2.498
58744SOL    HW178065   1.172   5.984   2.560
58744SOL    HW278066   1.244   6.117   2.547
58745SOL     OW78067  12.546   4.770   2.113
58745SOL    HW178068  12.526   4.722   2.193
58745SOL    HW278069  12.469   4.825   2.098
58746SOL     OW78070   8.156  13.522   2.709
58746SOL    HW178071   8.139  13.462   2.636
58746SOL    HW278072   8.219  13.476   2.764
58747SOL     OW78073  14.375  13.979   6.657
58747SOL    HW178074  14.463  14.003   6.630
58747SOL    HW278075  14.319  14.008   6.586
58748SOL     OW78076  13.850   2.615   6.456
58748SOL    HW178077  13.934   2.653   6.430
58748SOL    HW278078  13.808   2.684   6.508
58749SOL     OW78079  12.816  14.771   2.748
58749SOL    HW178080  12.831  14.796   2.657
58749SOL    HW278081  12.721  14.778   2.760
58750SOL     OW78082   5.842   2.408   4.733
58750SOL    HW178083   5.835   2.317   4.763
58750SOL    HW278084   5.757   2.446   4.752
58751SOL     OW78085   0.454   1.881   3.139
58751SOL    HW178086   0.534   1.845   3.175
58751SOL    HW278087   0.436   1.828   3.062
58752SOL     OW78088   3.795  11.494   7.462
58752SOL    HW178089   3.865  11.554   7.487
58752SOL    HW278090   3.775  11.446   7.542
58753SOL     OW78091   9.584  10.980   8.141
58753SOL    HW178092   9.537  10.995   8.223
58753SOL    HW278093   9.658  11.041   8.145
58754SOL     OW78094   1.923  11.296   8.964
58754SOL    HW178095   1.983  11.301   9.038
58754SOL    HW278096   1.910  11.203   8.949
58755SOL     OW78097   9.460   7.682  10.209
58755SOL    HW178098   9.528   7.671  10.143
58755SOL    HW278099   9.424   7.594  10.220
58756SOL     OW78100   9.372  11.021   6.099
58756SOL    HW178101   9.284  11.045   6.128
58756SOL    HW278102   9.418  10.997   6.180
58757SOL     OW78103   2.010  14.760  13.059
58757SOL    HW178104   1.940  14.785  12.999
58757SOL    HW278105   2.057  14.690  13.013
58758SOL     OW78106   9.231  13.386   8.874
58758SOL    HW178107   9.142  13.389   8.910
58758SOL    HW278108   9.244  13.295   8.849
58759SOL     OW78109   5.107  14.517  10.278
58759SOL    HW178110   5.018  14.495  10.251
58759SOL    HW278111   5.123  14.463  10.356
58760SOL     OW78112   1.473   9.352  12.889
58760SOL    HW178113   1.386   9.350  12.928
58760SOL    HW278114   1.463   9.407  12.811
58761SOL     OW78115   1.675  11.184   1.429
58761SOL    HW178116   1.620  11.199   1.506
58761SOL    HW278117   1.753  11.141   1.463
58762SOL     OW78118  11.683   5.536   9.929
58762SOL    HW178119  11.685   5.444   9.956
58762SOL    HW278120  11.601   5.545   9.882
58763SOL     OW78121   4.925   6.795   7.166
58763SOL    HW178122   5.010   6.751   7.152
58763SOL    HW278123   4.945   6.888   7.157
58764SOL     OW78124   2.175   5.352  13.941
58764SOL    HW178125   2.127   5.397  14.011
58764SOL    HW278126   2.259   5.397  13.936
58765SOL     OW78127  13.114   5.729   1.425
58765SOL    HW178128  13.112   5.818   1.392
58765SOL    HW278129  13.207   5.706   1.429
58766SOL     OW78130   9.305   5.925   6.642
58766SOL    HW178131   9.344   5.967   6.718
58766SOL    HW278132   9.311   5.831   6.661
58767SOL     OW78133  14.759   3.652   0.065
58767SOL    HW178134  14.846   3.645   0.103
58767SOL    HW278135  14.700   3.626   0.136
58768SOL     OW78136   1.782   1.720  13.332
58768SOL    HW178137   1.873   1.706  13.357
58768SOL    HW278138   1.745   1.632  13.329
58769SOL     OW78139   3.086   7.380   0.909
58769SOL    HW178140   3.084   7.306   0.970
58769SOL    HW278141   3.029   7.446   0.950
58770SOL     OW78142  13.854   5.037   6.618
58770SOL    HW178143  13.934   5.078   6.651
58770SOL    HW278144  13.783   5.095   6.646
58771SOL     OW78145  12.707  11.157  13.026
58771SOL    HW178146  12.676  11.195  13.108
58771SOL    HW278147  12.646  11.190  12.960
58772SOL     OW78148  14.805  10.934  13.840
58772SOL    HW178149  14.780  10.992  13.768
58772SOL    HW278150  14.791  10.987  13.919
58773SOL     OW78151   2.462  14.330   8.679
58773SOL    HW178152   2.392  14.289   8.730
58773SOL    HW278153   2.426  14.340   8.591
58774SOL     OW78154   2.835   4.321   5.442
58774SOL    HW178155   2.782   4.275   5.508
58774SOL    HW278156   2.771   4.361   5.384
58775SOL     OW78157   3.732   8.437   2.715
58775SOL    HW178158   3.643   8.414   2.687
58775SOL    HW278159   3.753   8.516   2.666
58776SOL     OW78160   5.329  12.185   2.499
58776SOL    HW178161   5.354  12.093   2.483
58776SOL    HW278162   5.400  12.219   2.553
58777SOL     OW78163   6.136   4.100  10.906
58777SOL    HW178164   6.069   4.088  10.838
58777SOL    HW278165   6.218   4.081  10.862
58778SOL     OW78166   4.237  14.813  12.285
58778SOL    HW178167   4.176  14.773  12.224
58778SOL    HW278168   4.316  14.830  12.233
58779SOL     OW78169   7.145  13.624  11.595
58779SOL    HW178170   7.192  13.542  11.587
58779SOL    HW278171   7.134  13.637  11.690
58780SOL     OW78172  10.163  11.025   6.075
58780SOL    HW178173  10.118  10.977   6.144
58780SOL    HW278174  10.183  10.959   6.009
58781SOL     OW78175   7.104   4.889  13.973
58781SOL    HW178176   7.099   4.877  13.878
58781SOL    HW278177   7.195   4.915  13.990
58782SOL     OW78178   4.120   6.088  10.827
58782SOL    HW178179   4.073   6.032  10.766
58782SOL    HW278180   4.167   6.150  10.771
58783SOL     OW78181   4.278   4.053   1.042
58783SOL    HW178182   4.208   4.029   0.982
58783SOL    HW278183   4.252   4.015   1.126
58784SOL     OW78184   7.581   1.399  10.600
58784SOL    HW178185   7.596   1.326  10.661
58784SOL    HW278186   7.525   1.362  10.532
58785SOL     OW78187   5.603  14.785  13.131
58785SOL    HW178188   5.618  14.811  13.040
58785SOL    HW278189   5.510  14.803  13.146
58786SOL     OW78190  13.910  14.593   2.471
58786SOL    HW178191  13.862  14.636   2.542
58786SOL    HW278192  13.992  14.641   2.464
58787SOL     OW78193   3.494   4.766   9.100
58787SOL    HW178194   3.509   4.860   9.093
58787SOL    HW278195   3.441   4.745   9.023
58788SOL     OW78196   2.898   7.578   4.468
58788SOL    HW178197   2.961   7.534   4.526
58788SOL    HW278198   2.939   7.574   4.381
58789SOL     OW78199  14.594   0.641  12.677
58789SOL    HW178200  14.610   0.703  12.748
58789SOL    HW278201  14.630   0.558  12.709
58790SOL     OW78202   2.386   2.899   2.591
58790SOL    HW178203   2.434   2.831   2.544
58790SOL    HW278204   2.327   2.935   2.525
58791SOL     OW78205  11.582   8.850   1.005
58791SOL    HW178206  11.574   8.817   1.094
58791SOL    HW278207  11.492   8.864   0.976
58792SOL     OW78208  10.394  11.650   0.705
58792SOL    HW178209  10.369  11.602   0.626
58792SOL    HW278210  10.425  11.735   0.673
58793SOL     OW78211  14.766   0.411   8.917
58793SOL    HW178212  14.772   0.506   8.933
58793SOL    HW278213  14.801   0.372   8.997
58794SOL     OW78214  14.389  13.662   3.083
58794SOL    HW178215  14.317  13.616   3.127
58794SOL    HW278216  14.362  13.754   3.085
58795SOL     OW78217   3.216  14.725   8.345
58795SOL    HW178218   3.292  14.687   8.388
58795SOL    HW278219   3.163  14.649   8.320
58796SOL     OW78220   5.323  13.191  10.865
58796SOL    HW178221   5.267  13.217  10.792
58796SOL    HW278222   5.279  13.227  10.943
58797SOL     OW78223  12.870  12.360   5.378
58797SOL    HW178224  12.797  12.300   5.393
58797SOL    HW278225  12.831  12.434   5.331
58798SOL     OW78226   2.862  11.349   3.754
58798SOL    HW178227   2.912  11.421   3.793
58798SOL    HW278228   2.780  11.348   3.803
58799SOL     OW78229   6.671   7.885   4.677
58799SOL    HW178230   6.580   7.857   4.690
58799SOL    HW278231   6.665   7.980   4.668
58800SOL     OW78232  10.291  13.731  11.052
58800SOL    HW178233  10.354  13.675  11.097
58800SOL    HW278234  10.344  13.805  11.020
58801SOL     OW78235   1.671   1.728   4.990
58801SOL    HW178236   1.596   1.738   4.932
58801SOL    HW278237   1.716   1.813   4.987
58802SOL     OW78238   2.233  13.968   5.154
58802SOL    HW178239   2.181  14.013   5.220
58802SOL    HW278240   2.315  13.945   5.199
58803SOL     OW78241   7.155   1.444   5.066
58803SOL    HW178242   7.243   1.478   5.048
58803SOL    HW278243   7.148   1.444   5.161
58804SOL     OW78244   6.299   0.806   9.597
58804SOL    HW178245   6.355   0.874   9.634
58804SOL    HW278246   6.222   0.805   9.653
58805SOL     OW78247   2.652  13.463   9.650
58805SOL    HW178248   2.687  13.553   9.647
58805SOL    HW278249   2.592  13.464   9.724
58806SOL     OW78250   8.010   9.952   2.684
58806SOL    HW178251   8.105   9.937   2.690
58806SOL    HW278252   7.981   9.887   2.619
58807SOL     OW78253   8.177   1.399   5.100
58807SOL    HW178254   8.234   1.412   5.024
58807SOL    HW278255   8.148   1.308   5.093
58808SOL     OW78256   5.528   2.850   0.480
58808SOL    HW178257   5.492   2.884   0.562
58808SOL    HW278258   5.560   2.928   0.434
58809SOL     OW78259   7.097  11.086   2.560
58809SOL    HW178260   7.175  11.122   2.518
58809SOL    HW278261   7.121  10.996   2.583
58810SOL     OW78262  11.135   1.268   7.264
58810SOL    HW178263  11.040   1.274   7.254
58810SOL    HW278264  11.158   1.344   7.318
58811SOL     OW78265  11.119   3.131   5.819
58811SOL    HW178266  11.181   3.193   5.858
58811SOL    HW278267  11.039   3.142   5.870
58812SOL     OW78268   5.197  13.333   7.175
58812SOL    HW178269   5.118  13.331   7.121
58812SOL    HW278270   5.266  13.361   7.115
58813SOL     OW78271   1.605  11.763  11.978
58813SOL    HW178272   1.573  11.681  12.016
58813SOL    HW278273   1.586  11.829  12.044
58814SOL     OW78274   1.396   4.722   8.512
58814SOL    HW178275   1.408   4.763   8.426
58814SOL    HW278276   1.478   4.741   8.559
58815SOL     OW78277   5.526   0.836   0.578
58815SOL    HW178278   5.500   0.746   0.599
58815SOL    HW278279   5.493   0.887   0.652
58816SOL     OW78280   8.654  14.186  13.939
58816SOL    HW178281   8.671  14.253  13.873
58816SOL    HW278282   8.740  14.152  13.963
58817SOL     OW78283   4.901   9.496   2.707
58817SOL    HW178284   4.931   9.577   2.664
58817SOL    HW278285   4.981   9.445   2.718
58818SOL     OW78286  11.873   9.471   4.871
58818SOL    HW178287  11.808   9.529   4.832
58818SOL    HW278288  11.947   9.474   4.810
58819SOL     OW78289  12.890   2.697  10.758
58819SOL    HW178290  12.801   2.724  10.736
58819SOL    HW278291  12.914   2.753  10.832
58820SOL     OW78292  11.852   4.127  12.229
58820SOL    HW178293  11.785   4.065  12.259
58820SOL    HW278294  11.803   4.205  12.205
58821SOL     OW78295  13.462   6.213  13.092
58821SOL    HW178296  13.553   6.234  13.069
58821SOL    HW278297  13.466   6.186  13.183
58822SOL     OW78298   9.919  11.301   0.520
58822SOL    HW178299   9.936  11.373   0.581
58822SOL    HW278300   9.888  11.344   0.440
58823SOL     OW78301   8.522   6.210   0.001
58823SOL    HW178302   8.616   6.206   0.017
58823SOL    HW278303   8.483   6.215   0.089
58824SOL     OW78304   8.785   8.497   8.217
58824SOL    HW178305   8.850   8.450   8.270
58824SOL    HW278306   8.799   8.464   8.128
58825SOL     OW78307  10.317   5.252   8.004
58825SOL    HW178308  10.407   5.223   7.991
58825SOL    HW278309  10.301   5.314   7.933
58826SOL     OW78310   8.184  12.976   6.256
58826SOL    HW178311   8.268  12.934   6.238
58826SOL    HW278312   8.118  12.910   6.232
58827SOL     OW78313   1.232   7.760   0.952
58827SOL    HW178314   1.303   7.802   0.904
58827SOL    HW278315   1.224   7.811   1.033
58828SOL     OW78316   2.449   1.672   9.621
58828SOL    HW178317   2.375   1.722   9.658
58828SOL    HW278318   2.525   1.701   9.671
58829SOL     OW78319  14.815   6.721   1.074
58829SOL    HW178320  14.785   6.785   1.139
58829SOL    HW278321   0.029   6.693   1.105
58830SOL     OW78322   3.120   5.875  12.589
58830SOL    HW178323   3.211   5.894  12.570
58830SOL    HW278324   3.086   5.955  12.628
58831SOL     OW78325  12.578  12.715   9.418
58831SOL    HW178326  12.649  12.655   9.396
58831SOL    HW278327  12.498  12.664   9.403
58832SOL     OW78328   0.954  12.204   4.554
58832SOL    HW178329   0.893  12.134   4.531
58832SOL    HW278330   0.998  12.172   4.633
58833SOL     OW78331   9.482  11.723   9.374
58833SOL    HW178332   9.503  11.778   9.449
58833SOL    HW278333   9.390  11.743   9.355
58834SOL     OW78334  12.955   1.933   0.350
58834SOL    HW178335  12.983   1.850   0.388
58834SOL    HW278336  12.933   1.988   0.426
58835SOL     OW78337   8.104  12.932  12.541
58835SOL    HW178338   8.060  12.847  12.530
58835SOL    HW278339   8.052  12.977  12.608
58836SOL     OW78340   8.369   0.454  10.455
58836SOL    HW178341   8.363   0.449  10.359
58836SOL    HW278342   8.378   0.548  10.473
58837SOL     OW78343  13.737   8.129   4.122
58837SOL    HW178344  13.704   8.042   4.098
58837SOL    HW278345  13.822   8.112   4.161
58838SOL     OW78346   7.892   1.235   9.022
58838SOL    HW178347   7.838   1.266   9.095
58838SOL    HW278348   7.829   1.198   8.960
58839SOL     OW78349  11.756   8.285   8.985
58839SOL    HW178350  11.758   8.379   8.970
58839SOL    HW278351  11.824   8.250   8.928
58840SOL     OW78352   1.041   1.134   1.876
58840SOL    HW178353   1.061   1.212   1.929
58840SOL    HW278354   1.033   1.064   1.940
58841SOL     OW78355   9.437  13.593   7.922
58841SOL    HW178356   9.444  13.682   7.888
58841SOL    HW278357   9.345  13.584   7.946
58842SOL     OW78358  12.436   6.005   9.948
58842SOL    HW178359  12.390   5.926   9.978
58842SOL    HW278360  12.427   6.003   9.853
58843SOL     OW78361   9.130   0.145  10.103
58843SOL    HW178362   9.123   0.077  10.170
58843SOL    HW278363   9.161   0.099  10.025
58844SOL     OW78364  10.856   0.285   5.045
58844SOL    HW178365  10.858   0.355   5.110
58844SOL    HW278366  10.947   0.277   5.016
58845SOL     OW78367  10.674  13.779   7.768
58845SOL    HW178368  10.709  13.690   7.772
58845SOL    HW278369  10.735  13.826   7.711
58846SOL     OW78370   3.498  10.874   5.112
58846SOL    HW178371   3.433  10.885   5.042
58846SOL    HW278372   3.525  10.963   5.133
58847SOL     OW78373  12.507   6.527   9.680
58847SOL    HW178374  12.469   6.615   9.671
58847SOL    HW278375  12.599   6.538   9.660
58848SOL     OW78376  14.448   6.265   7.958
58848SOL    HW178377  14.446   6.255   8.053
58848SOL    HW278378  14.539   6.286   7.939
58849SOL     OW78379   4.286  14.691  13.955
58849SOL    HW178380   4.306  14.785  13.956
58849SOL    HW278381   4.241  14.675  14.037
58850SOL     OW78382  13.277  12.961   6.964
58850SOL    HW178383  13.193  12.929   6.931
58850SOL    HW278384  13.334  12.964   6.888
58851SOL     OW78385   0.433  14.070   7.925
58851SOL    HW178386   0.458  14.054   8.016
58851SOL    HW278387   0.515  14.084   7.879
58852SOL     OW78388   9.003   6.628   0.852
58852SOL    HW178389   9.024   6.579   0.772
58852SOL    HW278390   8.914   6.660   0.837
58853SOL     OW78391  10.916   2.105   1.165
58853SOL    HW178392  10.862   2.088   1.243
58853SOL    HW278393  10.855   2.139   1.100
58854SOL     OW78394  12.768   2.932  12.510
58854SOL    HW178395  12.684   2.951  12.469
58854SOL    HW278396  12.763   2.839  12.532
58855SOL     OW78397  12.578   3.276   3.049
58855SOL    HW178398  12.520   3.281   3.125
58855SOL    HW278399  12.521   3.291   2.973
58856SOL     OW78400   8.394  10.609   0.156
58856SOL    HW178401   8.457  10.658   0.208
58856SOL    HW278402   8.312  10.617   0.204
58857SOL     OW78403   1.310  12.621   4.168
58857SOL    HW178404   1.319  12.559   4.240
58857SOL    HW278405   1.239  12.679   4.195
58858SOL     OW78406  13.123   2.055   0.194
58858SOL    HW178407  13.160   2.127   0.246
58858SOL    HW278408  13.076   2.002   0.258
58859SOL     OW78409  11.988   1.651  12.336
58859SOL    HW178410  12.048   1.583  12.369
58859SOL    HW278411  12.013   1.661  12.244
58860SOL     OW78412   7.576  10.469  12.164
58860SOL    HW178413   7.612  10.466  12.075
58860SOL    HW278414   7.591  10.559  12.193
58861SOL     OW78415   3.012   0.593   4.221
58861SOL    HW178416   2.978   0.545   4.297
58861SOL    HW278417   3.072   0.532   4.178
58862SOL     OW78418  10.022   2.751   4.740
58862SOL    HW178419  10.037   2.841   4.767
58862SOL    HW278420  10.101   2.726   4.693
58863SOL     OW78421  12.580   3.701   4.196
58863SOL    HW178422  12.494   3.741   4.184
58863SOL    HW278423  12.624   3.712   4.111
58864SOL     OW78424  10.873  11.131   6.750
58864SOL    HW178425  10.807  11.066   6.773
58864SOL    HW278426  10.826  11.195   6.696
58865SOL     OW78427   9.109   2.371   9.285
58865SOL    HW178428   9.025   2.417   9.278
58865SOL    HW278429   9.103   2.323   9.368
58866SOL     OW78430  10.623   6.728   1.626
58866SOL    HW178431  10.533   6.710   1.654
58866SOL    HW278432  10.653   6.645   1.587
58867SOL     OW78433   5.350   5.613  11.316
58867SOL    HW178434   5.347   5.696  11.363
58867SOL    HW278435   5.442   5.586  11.320
58868SOL     OW78436   8.262   6.771   1.534
58868SOL    HW178437   8.179   6.758   1.578
58868SOL    HW278438   8.328   6.760   1.602
58869SOL     OW78439   5.929  12.552  14.677
58869SOL    HW178440   5.910  12.597  14.595
58869SOL    HW278441   5.913  12.459  14.658
58870SOL     OW78442  11.296  10.076   7.189
58870SOL    HW178443  11.354  10.149   7.172
58870SOL    HW278444  11.219  10.093   7.134
58871SOL     OW78445   3.594   2.477   6.083
58871SOL    HW178446   3.524   2.520   6.035
58871SOL    HW278447   3.564   2.387   6.094
58872SOL     OW78448  10.363   2.717   0.676
58872SOL    HW178449  10.405   2.799   0.699
58872SOL    HW278450  10.321   2.687   0.758
58873SOL     OW78451  12.868   1.682   3.082
58873SOL    HW178452  12.826   1.696   3.167
58873SOL    HW278453  12.798   1.646   3.027
58874SOL     OW78454  10.817   6.318   7.440
58874SOL    HW178455  10.744   6.304   7.501
58874SOL    HW278456  10.781   6.375   7.372
58875SOL     OW78457   8.372   9.653  11.207
58875SOL    HW178458   8.307   9.700  11.155
58875SOL    HW278459   8.393   9.712  11.279
58876SOL     OW78460   3.474   1.870   8.094
58876SOL    HW178461   3.436   1.951   8.127
58876SOL    HW278462   3.398   1.812   8.081
58877SOL     OW78463  14.675  14.009  12.710
58877SOL    HW178464  14.720  14.060  12.777
58877SOL    HW278465  14.637  13.935  12.758
58878SOL     OW78466   0.982  11.670   2.822
58878SOL    HW178467   1.048  11.738   2.814
58878SOL    HW278468   0.899  11.716   2.810
58879SOL     OW78469   2.436   7.130  13.608
58879SOL    HW178470   2.392   7.215  13.618
58879SOL    HW278471   2.421   7.086  13.691
58880SOL     OW78472   4.130   4.756   0.334
58880SOL    HW178473   4.064   4.822   0.354
58880SOL    HW278474   4.083   4.672   0.339
58881SOL     OW78475  14.412   8.399   6.961
58881SOL    HW178476  14.489   8.431   6.914
58881SOL    HW278477  14.403   8.457   7.036
58882SOL     OW78478   3.440   2.256   7.712
58882SOL    HW178479   3.521   2.207   7.696
58882SOL    HW278480   3.440   2.325   7.646
58883SOL     OW78481   9.286   9.715   6.007
58883SOL    HW178482   9.366   9.674   6.040
58883SOL    HW278483   9.235   9.643   5.971
58884SOL     OW78484  13.402   2.633   1.659
58884SOL    HW178485  13.395   2.675   1.573
58884SOL    HW278486  13.351   2.690   1.717
58885SOL     OW78487   1.914  12.041   2.403
58885SOL    HW178488   1.845  11.975   2.395
58885SOL    HW278489   1.987  12.004   2.354
58886SOL     OW78490   3.534   8.800   1.510
58886SOL    HW178491   3.597   8.825   1.443
58886SOL    HW278492   3.509   8.883   1.552
58887SOL     OW78493   5.813   8.854   3.786
58887SOL    HW178494   5.766   8.826   3.864
58887SOL    HW278495   5.771   8.937   3.761
58888SOL     OW78496   6.202   4.710   1.547
58888SOL    HW178497   6.150   4.772   1.598
58888SOL    HW278498   6.230   4.760   1.470
58889SOL     OW78499   7.771   1.225   2.667
58889SOL    HW178500   7.726   1.253   2.746
58889SOL    HW278501   7.773   1.302   2.611
58890SOL     OW78502   4.659   7.288   3.132
58890SOL    HW178503   4.735   7.231   3.143
58890SOL    HW278504   4.689   7.355   3.070
58891SOL     OW78505   5.659  14.230  12.963
58891SOL    HW178506   5.736  14.279  12.934
58891SOL    HW278507   5.679  14.203  13.052
58892SOL     OW78508   0.631   5.301  13.108
58892SOL    HW178509   0.669   5.380  13.147
58892SOL    HW278510   0.706   5.244  13.091
58893SOL     OW78511   6.332   4.416   8.002
58893SOL    HW178512   6.259   4.361   8.032
58893SOL    HW278513   6.375   4.363   7.934
58894SOL     OW78514   3.727  10.299   9.454
58894SOL    HW178515   3.807  10.348   9.474
58894SOL    HW278516   3.691  10.345   9.378
58895SOL     OW78517  11.343   4.166   5.812
58895SOL    HW178518  11.307   4.158   5.900
58895SOL    HW278519  11.268   4.151   5.754
58896SOL     OW78520   0.231   7.078   2.289
58896SOL    HW178521   0.271   7.001   2.330
58896SOL    HW278522   0.304   7.129   2.256
58897SOL     OW78523   7.977  14.363   3.658
58897SOL    HW178524   7.935  14.282   3.628
58897SOL    HW278525   7.920  14.395   3.727
58898SOL     OW78526   1.411   3.870   2.229
58898SOL    HW178527   1.401   3.907   2.317
58898SOL    HW278528   1.482   3.921   2.190
58899SOL     OW78529   8.610  10.349  11.758
58899SOL    HW178530   8.601  10.444  11.770
58899SOL    HW278531   8.563  10.330  11.676
58900SOL     OW78532   1.320  13.238  13.233
58900SOL    HW178533   1.236  13.270  13.265
58900SOL    HW278534   1.380  13.312  13.246
58901SOL     OW78535   0.531  11.953  14.425
58901SOL    HW178536   0.508  11.864  14.399
58901SOL    HW278537   0.449  12.003  14.420
58902SOL     OW78538   6.364  10.308   9.003
58902SOL    HW178539   6.423  10.352   9.064
58902SOL    HW278540   6.281  10.302   9.050
58903SOL     OW78541   3.054   0.207   3.944
58903SOL    HW178542   3.057   0.257   3.862
58903SOL    HW278543   3.140   0.164   3.948
58904SOL     OW78544   0.186   5.897  11.617
58904SOL    HW178545   0.106   5.848  11.597
58904SOL    HW278546   0.257   5.835  11.604
58905SOL     OW78547  11.707  14.661   5.292
58905SOL    HW178548  11.637  14.675   5.229
58905SOL    HW278549  11.705  14.567   5.310
58906SOL     OW78550   7.612   2.334   9.543
58906SOL    HW178551   7.673   2.382   9.599
58906SOL    HW278552   7.668   2.284   9.483
58907SOL     OW78553  10.446  11.884   7.548
58907SOL    HW178554  10.522  11.882   7.607
58907SOL    HW278555  10.390  11.953   7.582
58908SOL     OW78556   2.437  14.466   3.156
58908SOL    HW178557   2.481  14.391   3.116
58908SOL    HW278558   2.491  14.541   3.132
58909SOL     OW78559   5.661  12.333  11.638
58909SOL    HW178560   5.715  12.409  11.660
58909SOL    HW278561   5.664  12.279  11.717
58910SOL     OW78562   3.832   2.257  10.583
58910SOL    HW178563   3.815   2.349  10.560
58910SOL    HW278564   3.803   2.208  10.506
58911SOL     OW78565   4.143  14.343   5.555
58911SOL    HW178566   4.134  14.273   5.620
58911SOL    HW278567   4.090  14.414   5.590
58912SOL     OW78568  11.198  11.346   5.888
58912SOL    HW178569  11.118  11.319   5.842
58912SOL    HW278570  11.209  11.438   5.866
58913SOL     OW78571   9.752   1.047   2.976
58913SOL    HW178572   9.806   0.993   2.919
58913SOL    HW278573   9.729   1.123   2.923
58914SOL     OW78574   5.799  13.556   1.323
58914SOL    HW178575   5.858  13.503   1.378
58914SOL    HW278576   5.714  13.550   1.368
58915SOL     OW78577   1.638   5.194   0.979
58915SOL    HW178578   1.668   5.167   0.892
58915SOL    HW278579   1.555   5.239   0.964
58916SOL     OW78580   3.291  10.862   4.925
58916SOL    HW178581   3.201  10.882   4.951
58916SOL    HW278582   3.303  10.908   4.842
58917SOL     OW78583  12.085   8.096   0.441
58917SOL    HW178584  12.101   8.013   0.395
58917SOL    HW278585  12.101   8.163   0.375
58918SOL     OW78586   3.463   2.862   3.291
58918SOL    HW178587   3.371   2.871   3.267
58918SOL    HW278588   3.506   2.938   3.250
58919SOL     OW78589  12.748  10.651   6.213
58919SOL    HW178590  12.679  10.586   6.200
58919SOL    HW278591  12.803  10.644   6.135
58920SOL     OW78592  12.644  13.359  14.307
58920SOL    HW178593  12.563  13.320  14.276
58920SOL    HW278594  12.649  13.333  14.399
58921SOL     OW78595   6.908  12.054   3.672
58921SOL    HW178596   6.982  12.085   3.619
58921SOL    HW278597   6.940  11.974   3.714
58922SOL     OW78598  12.868   5.013  12.994
58922SOL    HW178599  12.913   4.928  12.996
58922SOL    HW278600  12.938   5.077  13.006
58923SOL     OW78601   2.196   5.793   7.667
58923SOL    HW178602   2.112   5.748   7.658
58923SOL    HW278603   2.185   5.875   7.620
58924SOL     OW78604   0.551   1.387   0.020
58924SOL    HW178605   0.491   1.313   0.009
58924SOL    HW278606   0.605   1.363   0.095
58925SOL     OW78607  14.575   7.594   7.726
58925SOL    HW178608  14.614   7.551   7.649
58925SOL    HW278609  14.649   7.617   7.781
58926SOL     OW78610   6.526  13.282  14.113
58926SOL    HW178611   6.606  13.285  14.165
58926SOL    HW278612   6.488  13.370  14.119
58927SOL     OW78613   2.756  13.748   5.156
58927SOL    HW178614   2.755  13.656   5.130
58927SOL    HW278615   2.848  13.773   5.153
58928SOL     OW78616  13.077   8.351  13.141
58928SOL    HW178617  13.110   8.324  13.228
58928SOL    HW278618  13.123   8.293  13.080
58929SOL     OW78619   1.383  10.965   3.106
58929SOL    HW178620   1.449  10.945   3.172
58929SOL    HW278621   1.346  11.049   3.133
58930SOL     OW78622   6.618   8.155  14.602
58930SOL    HW178623   6.652   8.161  14.513
58930SOL    HW278624   6.618   8.245  14.634
58931SOL     OW78625   8.199   8.594  13.414
58931SOL    HW178626   8.284   8.630  13.440
58931SOL    HW278627   8.200   8.504  13.446
58932SOL     OW78628   0.026   3.975   0.034
58932SOL    HW178629  14.819   3.934   0.068
58932SOL    HW278630   0.055   4.032   0.105
58933SOL     OW78631   5.860  11.907   7.646
58933SOL    HW178632   5.847  11.816   7.675
58933SOL    HW278633   5.941  11.934   7.687
58934SOL     OW78634   2.450   1.073   6.706
58934SOL    HW178635   2.486   1.118   6.629
58934SOL    HW278636   2.526   1.050   6.759
58935SOL     OW78637  12.529  12.531   8.062
58935SOL    HW178638  12.594  12.567   8.002
58935SOL    HW278639  12.525  12.438   8.040
58936SOL     OW78640   4.898   4.222   9.831
58936SOL    HW178641   4.877   4.129   9.839
58936SOL    HW278642   4.851   4.252   9.754
58937SOL     OW78643   9.042   8.157   6.507
58937SOL    HW178644   9.087   8.229   6.464
58937SOL    HW278645   8.973   8.132   6.446
58938SOL     OW78646   2.667   6.860   2.159
58938SOL    HW178647   2.651   6.794   2.226
58938SOL    HW278648   2.660   6.943   2.205
58939SOL     OW78649  13.347   1.958  11.774
58939SOL    HW178650  13.386   1.912  11.700
58939SOL    HW278651  13.414   2.021  11.800
58940SOL     OW78652   5.178   3.326  14.423
58940SOL    HW178653   5.231   3.247  14.432
58940SOL    HW278654   5.239   3.398  14.441
58941SOL     OW78655   7.797   9.149   2.110
58941SOL    HW178656   7.761   9.232   2.077
58941SOL    HW278657   7.892   9.160   2.105
58942SOL     OW78658  11.475   7.873   0.397
58942SOL    HW178659  11.539   7.938   0.426
58942SOL    HW278660  11.440   7.909   0.316
58943SOL     OW78661  10.568   5.363   6.576
58943SOL    HW178662  10.605   5.284   6.537
58943SOL    HW278663  10.479   5.368   6.542
58944SOL     OW78664   1.530  13.270  14.643
58944SOL    HW178665   1.579  13.349  14.620
58944SOL    HW278666   1.438  13.294  14.630
58945SOL     OW78667   1.071   1.167  13.576
58945SOL    HW178668   1.100   1.138  13.663
58945SOL    HW278669   1.151   1.175  13.525
58946SOL     OW78670   2.442   5.772  14.290
58946SOL    HW178671   2.428   5.680  14.267
58946SOL    HW278672   2.514   5.800  14.232
58947SOL     OW78673  11.363   1.893  13.018
58947SOL    HW178674  11.382   1.973  13.068
58947SOL    HW278675  11.435   1.885  12.956
58948SOL     OW78676   4.930   4.074   7.756
58948SOL    HW178677   5.008   4.025   7.732
58948SOL    HW278678   4.866   4.052   7.688
58949SOL     OW78679   9.421   1.396   1.799
58949SOL    HW178680   9.450   1.450   1.872
58949SOL    HW278681   9.476   1.318   1.803
58950SOL     OW78682   2.839   0.305   5.339
58950SOL    HW178683   2.891   0.260   5.272
58950SOL    HW278684   2.891   0.296   5.419
58951SOL     OW78685  13.613   2.963  12.171
58951SOL    HW178686  13.625   3.047  12.127
58951SOL    HW278687  13.699   2.921  12.165
58952SOL     OW78688  10.717   4.823   1.810
58952SOL    HW178689  10.772   4.854   1.738
58952SOL    HW278690  10.640   4.881   1.808
58953SOL     OW78691   4.366   7.998   5.345
58953SOL    HW178692   4.369   7.911   5.386
58953SOL    HW278693   4.284   8.036   5.375
58954SOL     OW78694   9.853   5.340   2.671
58954SOL    HW178695   9.811   5.292   2.600
58954SOL    HW278696   9.780   5.365   2.728
58955SOL     OW78697   4.698  14.854   3.563
58955SOL    HW178698   4.677  14.806   3.482
58955SOL    HW278699   4.625  14.833   3.621
58956SOL     OW78700   8.165   8.926   2.275
58956SOL    HW178701   8.236   8.868   2.248
58956SOL    HW278702   8.186   9.010   2.235
58957SOL     OW78703   9.518  14.474  13.760
58957SOL    HW178704   9.490  14.447  13.672
58957SOL    HW278705   9.519  14.569  13.756
58958SOL     OW78706  10.322   0.356   8.866
58958SOL    HW178707  10.409   0.317   8.881
58958SOL    HW278708  10.330   0.445   8.902
58959SOL     OW78709  13.797   3.450  13.074
58959SOL    HW178710  13.708   3.439  13.107
58959SOL    HW278711  13.786   3.494  12.990
58960SOL     OW78712  14.115   7.323   0.437
58960SOL    HW178713  14.203   7.359   0.429
58960SOL    HW278714  14.102   7.311   0.531
58961SOL     OW78715  11.221   8.261  12.757
58961SOL    HW178716  11.146   8.206  12.733
58961SOL    HW278717  11.189   8.315  12.829
58962SOL     OW78718  13.311  14.501   9.869
58962SOL    HW178719  13.273  14.422   9.906
58962SOL    HW278720  13.280  14.503   9.778
58963SOL     OW78721   6.308   9.554   0.500
58963SOL    HW178722   6.393   9.542   0.457
58963SOL    HW278723   6.307   9.489   0.570
58964SOL     OW78724   8.828  14.350  14.496
58964SOL    HW178725   8.894  14.407  14.534
58964SOL    HW278726   8.877  14.276  14.460
58965SOL     OW78727  10.265  12.473   9.992
58965SOL    HW178728  10.314  12.514   9.921
58965SOL    HW278729  10.332  12.452  10.058
58966SOL     OW78730   9.631  13.016  12.838
58966SOL    HW178731   9.539  13.035  12.853
58966SOL    HW278732   9.646  12.932  12.882
58967SOL     OW78733   2.450  12.561  10.709
58967SOL    HW178734   2.530  12.533  10.664
58967SOL    HW278735   2.461  12.532  10.799
58968SOL     OW78736  12.958  12.277  14.090
58968SOL    HW178737  12.970  12.368  14.061
58968SOL    HW278738  13.047  12.244  14.101
58969SOL     OW78739   4.544   7.422   0.862
58969SOL    HW178740   4.571   7.513   0.873
58969SOL    HW278741   4.596   7.374   0.927
58970SOL     OW78742   3.217   1.878   5.368
58970SOL    HW178743   3.252   1.904   5.453
58970SOL    HW278744   3.259   1.937   5.306
58971SOL     OW78745   5.635   2.927   1.718
58971SOL    HW178746   5.642   3.021   1.738
58971SOL    HW278747   5.723   2.902   1.689
58972SOL     OW78748   4.355   0.967   2.373
58972SOL    HW178749   4.344   0.950   2.467
58972SOL    HW278750   4.267   0.959   2.337
58973SOL     OW78751   8.241  12.074   8.270
58973SOL    HW178752   8.257  12.167   8.255
58973SOL    HW278753   8.260  12.032   8.187
58974SOL     OW78754  13.382   2.190  14.750
58974SOL    HW178755  13.391   2.249  14.824
58974SOL    HW278756  13.361   2.247  14.675
58975SOL     OW78757   9.221   7.605  10.472
58975SOL    HW178758   9.138   7.562  10.493
58975SOL    HW278759   9.220   7.613  10.377
58976SOL     OW78760  12.958   3.014   2.797
58976SOL    HW178761  12.897   3.018   2.723
58976SOL    HW278762  12.946   2.925   2.832
58977SOL     OW78763   2.407   9.584  10.851
58977SOL    HW178764   2.442   9.633  10.777
58977SOL    HW278765   2.393   9.649  10.919
58978SOL     OW78766  10.968  13.460   4.498
58978SOL    HW178767  10.917  13.499   4.427
58978SOL    HW278768  10.902  13.428   4.560
58979SOL     OW78769   3.797   5.308   7.286
58979SOL    HW178770   3.732   5.238   7.278
58979SOL    HW278771   3.746   5.389   7.285
58980SOL     OW78772   3.504  14.707   6.291
58980SOL    HW178773   3.432  14.736   6.235
58980SOL    HW278774   3.583  14.737   6.246
58981SOL     OW78775  12.991   1.123   3.072
58981SOL    HW178776  12.973   1.030   3.085
58981SOL    HW278777  12.961   1.165   3.153
58982SOL     OW78778  10.031   7.100   3.132
58982SOL    HW178779  10.000   7.172   3.077
58982SOL    HW278780  10.011   7.127   3.221
58983SOL     OW78781   6.077  11.150   3.237
58983SOL    HW178782   6.127  11.222   3.199
58983SOL    HW278783   6.052  11.095   3.163
58984SOL     OW78784   7.879   6.570   5.483
58984SOL    HW178785   7.912   6.660   5.482
58984SOL    HW278786   7.931   6.525   5.416
58985SOL     OW78787   4.106  12.780   9.801
58985SOL    HW178788   4.125  12.762   9.894
58985SOL    HW278789   4.045  12.712   9.775
58986SOL     OW78790   4.816  12.393   5.556
58986SOL    HW178791   4.895  12.444   5.573
58986SOL    HW278792   4.744  12.450   5.583
58987SOL     OW78793   9.643   4.406   1.224
58987SOL    HW178794   9.646   4.319   1.264
58987SOL    HW278795   9.609   4.463   1.293
58988SOL     OW78796  10.882  10.886  11.171
58988SOL    HW178797  10.831  10.808  11.190
58988SOL    HW278798  10.818  10.957  11.171
58989SOL     OW78799   9.285   2.487   9.669
58989SOL    HW178800   9.196   2.462   9.644
58989SOL    HW278801   9.289   2.472   9.763
58990SOL     OW78802  12.606  13.890  13.314
58990SOL    HW178803  12.581  13.938  13.394
58990SOL    HW278804  12.538  13.913  13.251
58991SOL     OW78805  10.583   6.441   1.161
58991SOL    HW178806  10.651   6.438   1.094
58991SOL    HW278807  10.598   6.363   1.214
58992SOL     OW78808   3.804   5.573   4.213
58992SOL    HW178809   3.816   5.618   4.129
58992SOL    HW278810   3.821   5.481   4.193
58993SOL     OW78811   8.906   2.999   4.857
58993SOL    HW178812   8.899   3.065   4.926
58993SOL    HW278813   8.843   3.027   4.791
58994SOL     OW78814   2.693   9.398  12.702
58994SOL    HW178815   2.752   9.382  12.628
58994SOL    HW278816   2.665   9.489  12.692
58995SOL     OW78817   0.249   0.075   6.146
58995SOL    HW178818   0.157   0.098   6.129
58995SOL    HW278819   0.255   0.066   6.241
58996SOL     OW78820   7.956   9.127   5.186
58996SOL    HW178821   8.015   9.156   5.116
58996SOL    HW278822   7.892   9.198   5.193
58997SOL     OW78823  13.524   2.069   8.967
58997SOL    HW178824  13.431   2.065   8.991
58997SOL    HW278825  13.525   2.050   8.873
58998SOL     OW78826  14.579   8.688  13.023
58998SOL    HW178827  14.561   8.779  13.049
58998SOL    HW278828  14.633   8.697  12.944
58999SOL     OW78829   1.907   6.896  13.796
58999SOL    HW178830   1.944   6.981  13.820
58999SOL    HW278831   1.868   6.911  13.710
59000SOL     OW78832  11.970  13.083  14.630
59000SOL    HW178833  12.065  13.094  14.632
59000SOL    HW278834  11.935  13.169  14.654
59001SOL     OW78835   4.073  11.135  14.759
59001SOL    HW178836   4.070  11.204  14.826
59001SOL    HW278837   4.130  11.068  14.796
59002SOL     OW78838   2.022  11.066  12.148
59002SOL    HW178839   1.972  11.115  12.083
59002SOL    HW278840   2.103  11.042  12.102
59003SOL     OW78841   4.110  11.760  11.417
59003SOL    HW178842   4.057  11.702  11.472
59003SOL    HW278843   4.157  11.815  11.479
59004SOL     OW78844   0.861   5.548   2.441
59004SOL    HW178845   0.848   5.527   2.349
59004SOL    HW278846   0.791   5.501   2.487
59005SOL     OW78847  10.700  14.147  13.093
59005SOL    HW178848  10.757  14.224  13.085
59005SOL    HW278849  10.760  14.075  13.110
59006SOL     OW78850   9.631   1.544  12.908
59006SOL    HW178851   9.607   1.499  12.827
59006SOL    HW278852   9.551   1.588  12.937
59007SOL     OW78853  14.481   3.217  14.648
59007SOL    HW178854  14.568   3.182  14.629
59007SOL    HW278855  14.433   3.143  14.686
59008SOL     OW78856   8.113   1.153   9.505
59008SOL    HW178857   8.087   1.065   9.531
59008SOL    HW278858   8.166   1.140   9.426
59009SOL     OW78859   5.695   7.755  13.576
59009SOL    HW178860   5.634   7.690  13.540
59009SOL    HW278861   5.666   7.768  13.666
59010SOL     OW78862   4.208   2.570   9.361
59010SOL    HW178863   4.278   2.507   9.343
59010SOL    HW278864   4.133   2.537   9.311
59011SOL     OW78865  13.305   8.530  10.660
59011SOL    HW178866  13.345   8.558  10.743
59011SOL    HW278867  13.221   8.492  10.686
59012SOL     OW78868   4.237   7.848   4.496
59012SOL    HW178869   4.182   7.770   4.503
59012SOL    HW278870   4.327   7.814   4.500
59013SOL     OW78871   2.870  11.002  12.013
59013SOL    HW178872   2.946  10.961  11.971
59013SOL    HW278873   2.798  10.983  11.953
59014SOL     OW78874   9.526   8.906  14.085
59014SOL    HW178875   9.460   8.847  14.048
59014SOL    HW278876   9.584   8.848  14.135
59015SOL     OW78877   0.221   8.237  11.970
59015SOL    HW178878   0.226   8.323  11.928
59015SOL    HW278879   0.311   8.204  11.966
59016SOL     OW78880   6.415   5.463   8.267
59016SOL    HW178881   6.499   5.448   8.312
59016SOL    HW278882   6.360   5.390   8.296
59017SOL     OW78883  14.788   6.383   2.638
59017SOL    HW178884  14.834   6.432   2.705
59017SOL    HW278885  14.804   6.291   2.660
59018SOL     OW78886  14.207  12.565   2.670
59018SOL    HW178887  14.286  12.519   2.641
59018SOL    HW278888  14.140  12.497   2.674
59019SOL     OW78889   8.039  10.464  12.371
59019SOL    HW178890   8.079  10.405  12.308
59019SOL    HW278891   7.960  10.496  12.328
59020SOL     OW78892   5.257  13.062   7.992
59020SOL    HW178893   5.323  13.001   8.024
59020SOL    HW278894   5.291  13.093   7.908
59021SOL     OW78895   1.876  11.530  13.424
59021SOL    HW178896   1.950  11.555  13.479
59021SOL    HW278897   1.914  11.512  13.338
59022SOL     OW78898   3.891   3.659   0.107
59022SOL    HW178899   3.943   3.679   0.029
59022SOL    HW278900   3.846   3.577   0.085
59023SOL     OW78901   2.570   5.592   8.504
59023SOL    HW178902   2.576   5.664   8.441
59023SOL    HW278903   2.645   5.536   8.484
59024SOL     OW78904   0.747   4.612   6.384
59024SOL    HW178905   0.782   4.592   6.297
59024SOL    HW278906   0.702   4.696   6.372
59025SOL     OW78907  10.798   5.336  11.050
59025SOL    HW178908  10.722   5.333  10.992
59025SOL    HW278909  10.761   5.341  11.138
59026SOL     OW78910   5.069  13.904   0.105
59026SOL    HW178911   4.981  13.866   0.108
59026SOL    HW278912   5.121  13.848   0.163
59027SOL     OW78913  14.537   9.980   2.942
59027SOL    HW178914  14.610  10.033   2.973
59027SOL    HW278915  14.578   9.901   2.907
59028SOL     OW78916   3.259   4.407   3.857
59028SOL    HW178917   3.214   4.333   3.897
59028SOL    HW278918   3.275   4.468   3.928
59029SOL     OW78919   4.287   6.656  12.313
59029SOL    HW178920   4.366   6.603  12.308
59029SOL    HW278921   4.306   6.735  12.262
59030SOL     OW78922   7.717   1.990  13.081
59030SOL    HW178923   7.638   2.038  13.055
59030SOL    HW278924   7.789   2.050  13.060
59031SOL     OW78925   9.817   9.611   4.623
59031SOL    HW178926   9.867   9.693   4.619
59031SOL    HW278927   9.857   9.555   4.556
59032SOL     OW78928  10.773  12.257  11.122
59032SOL    HW178929  10.799  12.227  11.035
59032SOL    HW278930  10.696  12.204  11.143
59033SOL     OW78931   7.251  12.426  11.233
59033SOL    HW178932   7.287  12.498  11.284
59033SOL    HW278933   7.182  12.465  11.179
59034SOL     OW78934  14.063   6.594  13.716
59034SOL    HW178935  14.019   6.511  13.731
59034SOL    HW278936  14.050   6.643  13.798
59035SOL     OW78937   8.724  13.513   9.415
59035SOL    HW178938   8.808  13.497   9.372
59035SOL    HW278939   8.676  13.567   9.352
59036SOL     OW78940   3.442   2.486  13.038
59036SOL    HW178941   3.438   2.401  12.996
59036SOL    HW278942   3.395   2.475  13.121
59037SOL     OW78943  13.344   1.983  13.404
59037SOL    HW178944  13.347   1.919  13.474
59037SOL    HW278945  13.435   1.987  13.371
59038SOL     OW78946   0.693  11.499   4.434
59038SOL    HW178947   0.733  11.574   4.479
59038SOL    HW278948   0.603  11.527   4.416
59039SOL     OW78949  14.775   1.127  14.081
59039SOL    HW178950  14.842   1.126  14.013
59039SOL    HW278951  14.692   1.122  14.033
59040SOL     OW78952   3.821   8.365   9.651
59040SOL    HW178953   3.857   8.277   9.660
59040SOL    HW278954   3.889   8.414   9.604
59041SOL     OW78955   9.156  10.156  14.188
59041SOL    HW178956   9.190  10.246  14.193
59041SOL    HW278957   9.223  10.104  14.233
59042SOL     OW78958  12.449   7.019   1.016
59042SOL    HW178959  12.538   6.989   1.034
59042SOL    HW278960  12.456   7.114   1.009
59043SOL     OW78961  10.735   2.832   8.170
59043SOL    HW178962  10.739   2.902   8.235
59043SOL    HW278963  10.806   2.851   8.109
59044SOL     OW78964   9.726  11.006   3.924
59044SOL    HW178965   9.789  11.026   3.854
59044SOL    HW278966   9.654  11.067   3.909
59045SOL     OW78967   3.163   2.938   5.550
59045SOL    HW178968   3.230   3.001   5.523
59045SOL    HW278969   3.128   2.904   5.467
59046SOL     OW78970   2.361   8.214   6.794
59046SOL    HW178971   2.433   8.203   6.857
59046SOL    HW278972   2.351   8.308   6.784
59047SOL     OW78973   6.839   8.043  14.807
59047SOL    HW178974   6.782   8.067  14.734
59047SOL    HW278975   6.806   8.094   0.008
59048SOL     OW78976  11.320  10.534   0.957
59048SOL    HW178977  11.356  10.507   1.041
59048SOL    HW278978  11.246  10.590   0.979
59049SOL     OW78979  12.620  14.344   0.218
59049SOL    HW178980  12.599  14.311   0.131
59049SOL    HW278981  12.675  14.276   0.257
59050SOL     OW78982   8.936   4.750  14.438
59050SOL    HW178983   8.887   4.732  14.359
59050SOL    HW278984   9.018   4.789  14.407
59051SOL     OW78985   9.462  13.839   7.747
59051SOL    HW178986   9.548  13.834   7.708
59051SOL    HW278987   9.412  13.898   7.690
59052SOL     OW78988   9.191   1.271   7.380
59052SOL    HW178989   9.176   1.183   7.416
59052SOL    HW278990   9.269   1.302   7.426
59053SOL     OW78991  14.771   6.242   8.850
59053SOL    HW178992  14.694   6.198   8.887
59053SOL    HW278993  14.770   6.217   8.757
59054SOL     OW78994  10.020   9.556   6.764
59054SOL    HW178995  10.087   9.606   6.719
59054SOL    HW278996   9.938   9.603   6.747
59055SOL     OW78997  12.682   9.590   9.380
59055SOL    HW178998  12.599   9.554   9.348
59055SOL    HW278999  12.710   9.529   9.448
59056SOL     OW79000   7.457   8.913   0.929
59056SOL    HW179001   7.368   8.897   0.900
59056SOL    HW279002   7.451   8.990   0.986
59057SOL     OW79003   3.537   6.107  11.109
59057SOL    HW179004   3.503   6.091  11.021
59057SOL    HW279005   3.616   6.052  11.114
59058SOL     OW79006   9.739   9.684   1.254
59058SOL    HW179007   9.643   9.685   1.260
59058SOL    HW279008   9.758   9.611   1.195
59059SOL     OW79009   0.131   9.120  11.716
59059SOL    HW179010   0.090   9.206  11.703
59059SOL    HW279011   0.087   9.063  11.652
59060SOL     OW79012  13.826   8.669   1.593
59060SOL    HW179013  13.881   8.728   1.644
59060SOL    HW279014  13.880   8.643   1.519
59061SOL     OW79015  14.128   2.514   1.860
59061SOL    HW179016  14.044   2.521   1.906
59061SOL    HW279017  14.145   2.420   1.858
59062SOL     OW79018   2.415   3.633  12.482
59062SOL    HW179019   2.470   3.627  12.560
59062SOL    HW279020   2.443   3.560  12.427
59063SOL     OW79021   0.509   9.526   0.385
59063SOL    HW179022   0.500   9.526   0.480
59063SOL    HW279023   0.426   9.562   0.353
59064SOL     OW79024   8.622   3.443   5.102
59064SOL    HW179025   8.570   3.499   5.159
59064SOL    HW279026   8.582   3.357   5.110
59065SOL     OW79027   0.901  12.222   3.412
59065SOL    HW179028   0.894  12.198   3.320
59065SOL    HW279029   0.838  12.166   3.456
59066SOL     OW79030   5.463  12.177  11.024
59066SOL    HW179031   5.424  12.184  11.111
59066SOL    HW279032   5.424  12.250  10.975
59067SOL     OW79033   7.058   8.669   1.674
59067SOL    HW179034   7.058   8.676   1.578
59067SOL    HW279035   6.995   8.600   1.693
59068SOL     OW79036  12.890   2.100   1.719
59068SOL    HW179037  12.936   2.022   1.750
59068SOL    HW279038  12.932   2.172   1.766
59069SOL     OW79039  11.626   8.072  14.323
59069SOL    HW179040  11.571   7.995  14.334
59069SOL    HW279041  11.566   8.141  14.296
59070SOL     OW79042  12.761   4.236   4.655
59070SOL    HW179043  12.762   4.329   4.674
59070SOL    HW279044  12.819   4.225   4.580
59071SOL     OW79045   9.466   8.653   3.249
59071SOL    HW179046   9.403   8.713   3.290
59071SOL    HW279047   9.551   8.684   3.279
59072SOL     OW79048   2.283   7.928  14.328
59072SOL    HW179049   2.326   7.846  14.307
59072SOL    HW279050   2.190   7.907  14.329
59073SOL     OW79051   8.810   2.886   3.459
59073SOL    HW179052   8.802   2.980   3.474
59073SOL    HW279053   8.894   2.875   3.414
59074SOL     OW79054  11.230   4.143   3.112
59074SOL    HW179055  11.169   4.128   3.185
59074SOL    HW279056  11.316   4.148   3.154
59075SOL     OW79057   6.237  12.630   7.913
59075SOL    HW179058   6.153  12.595   7.943
59075SOL    HW279059   6.281  12.555   7.871
59076SOL     OW79060   8.426  11.353  11.563
59076SOL    HW179061   8.429  11.408  11.642
59076SOL    HW279062   8.499  11.292  11.574
59077SOL     OW79063   7.638  14.667  10.428
59077SOL    HW179064   7.603  14.597  10.373
59077SOL    HW279065   7.635  14.745  10.372
59078SOL     OW79066  14.097  12.726  13.996
59078SOL    HW179067  14.030  12.729  13.928
59078SOL    HW279068  14.114  12.633  14.009
59079SOL     OW79069   3.430   4.759  10.003
59079SOL    HW179070   3.405   4.693   9.939
59079SOL    HW279071   3.477   4.825   9.952
59080SOL     OW79072   4.442   5.816   8.393
59080SOL    HW179073   4.509   5.858   8.340
59080SOL    HW279074   4.360   5.834   8.347
59081SOL     OW79075   6.802   9.839   6.489
59081SOL    HW179076   6.843   9.770   6.541
59081SOL    HW279077   6.759   9.895   6.553
59082SOL     OW79078   0.903   1.602   8.271
59082SOL    HW179079   0.844   1.625   8.342
59082SOL    HW279080   0.846   1.562   8.204
59083SOL     OW79081  12.179   1.136   8.200
59083SOL    HW179082  12.180   1.200   8.271
59083SOL    HW279083  12.168   1.051   8.244
59084SOL     OW79084   3.019  14.211   9.664
59084SOL    HW179085   2.990  14.239   9.577
59084SOL    HW279086   3.026  14.116   9.657
59085SOL     OW79087   0.397  11.642   8.015
59085SOL    HW179088   0.479  11.659   8.061
59085SOL    HW279089   0.422  11.591   7.938
59086SOL     OW79090   4.578  13.558   3.656
59086SOL    HW179091   4.501  13.575   3.710
59086SOL    HW279092   4.551  13.583   3.567
59087SOL     OW79093   3.345   7.805   7.823
59087SOL    HW179094   3.282   7.877   7.818
59087SOL    HW279095   3.300   7.737   7.874
59088SOL     OW79096   0.028  12.624  14.255
59088SOL    HW179097  14.841  12.668  14.317
59088SOL    HW279098  14.849  12.616  14.175
59089SOL     OW79099  14.339  12.290   8.974
59089SOL    HW179100  14.299  12.298   9.060
59089SOL    HW279101  14.376  12.201   8.973
59090SOL     OW79102  12.784   1.250   9.387
59090SOL    HW179103  12.793   1.160   9.417
59090SOL    HW279104  12.693   1.257   9.357
59091SOL     OW79105  14.062   9.917   2.882
59091SOL    HW179106  14.118   9.913   2.960
59091SOL    HW279107  14.046   9.825   2.860
59092SOL     OW79108   0.649   3.867   4.886
59092SOL    HW179109   0.687   3.781   4.900
59092SOL    HW279110   0.561   3.850   4.851
59093SOL     OW79111  10.898   2.288   3.550
59093SOL    HW179112  10.841   2.365   3.556
59093SOL    HW279113  10.838   2.214   3.560
59094SOL     OW79114  13.675   4.785   6.125
59094SOL    HW179115  13.770   4.771   6.119
59094SOL    HW279116  13.666   4.865   6.177
59095SOL     OW79117  11.020   2.062   3.969
59095SOL    HW179118  11.038   2.140   4.022
59095SOL    HW279119  10.967   2.006   4.026
59096SOL     OW79120   6.173   1.438   8.415
59096SOL    HW179121   6.193   1.470   8.503
59096SOL    HW279122   6.158   1.518   8.364
59097SOL     OW79123  12.946  12.369   6.653
59097SOL    HW179124  12.947  12.278   6.622
59097SOL    HW279125  13.038  12.389   6.669
59098SOL     OW79126  12.046   4.001   9.658
59098SOL    HW179127  11.991   3.961   9.725
59098SOL    HW279128  12.120   4.038   9.706
59099SOL     OW79129   8.813  11.837  10.844
59099SOL    HW179130   8.803  11.747  10.874
59099SOL    HW279131   8.834  11.886  10.923
59100SOL     OW79132   6.140  12.572   8.408
59100SOL    HW179133   6.205  12.506   8.388
59100SOL    HW279134   6.060  12.541   8.366
59101SOL     OW79135   6.394  11.902  14.177
59101SOL    HW179136   6.374  11.812  14.199
59101SOL    HW279137   6.311  11.938  14.145
59102SOL     OW79138   0.128  14.746   8.620
59102SOL    HW179139   0.122  14.841   8.612
59102SOL    HW279140   0.058  14.723   8.681
59103SOL     OW79141   7.961  12.701  12.447
59103SOL    HW179142   7.993  12.674  12.533
59103SOL    HW279143   7.878  12.656  12.437
59104SOL     OW79144   1.898  11.229   7.805
59104SOL    HW179145   1.923  11.151   7.756
59104SOL    HW279146   1.966  11.293   7.783
59105SOL     OW79147   3.899   8.789  13.317
59105SOL    HW179148   3.884   8.769  13.225
59105SOL    HW279149   3.898   8.704  13.361
59106SOL     OW79150   9.716  10.154  10.161
59106SOL    HW179151   9.761  10.116  10.086
59106SOL    HW279152   9.698  10.080  10.219
59107SOL     OW79153  12.080   7.783   8.286
59107SOL    HW179154  12.101   7.726   8.361
59107SOL    HW279155  12.080   7.871   8.323
59108SOL     OW79156   0.761  13.039   2.196
59108SOL    HW179157   0.853  13.014   2.190
59108SOL    HW279158   0.758  13.129   2.166
59109SOL     OW79159  14.684   4.553  12.418
59109SOL    HW179160  14.700   4.530  12.509
59109SOL    HW279161  14.691   4.649  12.415
59110SOL     OW79162   8.485  10.547   8.601
59110SOL    HW179163   8.463  10.477   8.540
59110SOL    HW279164   8.560  10.513   8.650
59111SOL     OW79165  12.782   8.572   4.914
59111SOL    HW179166  12.809   8.630   4.843
59111SOL    HW279167  12.713   8.621   4.960
59112SOL     OW79168   7.133  14.528   6.654
59112SOL    HW179169   7.221  14.565   6.646
59112SOL    HW279170   7.090  14.584   6.719
59113SOL     OW79171   3.768   6.186   2.038
59113SOL    HW179172   3.811   6.136   1.968
59113SOL    HW279173   3.709   6.123   2.079
59114SOL     OW79174   0.952   8.429   6.873
59114SOL    HW179175   0.993   8.500   6.824
59114SOL    HW279176   0.879   8.401   6.818
59115SOL     OW79177   8.315   7.561   9.004
59115SOL    HW179178   8.322   7.647   8.963
59115SOL    HW279179   8.222   7.553   9.026
59116SOL     OW79180   7.993  13.747  13.075
59116SOL    HW179181   7.959  13.673  13.026
59116SOL    HW279182   8.004  13.817  13.010
59117SOL     OW79183  10.274   8.529   2.948
59117SOL    HW179184  10.358   8.498   2.982
59117SOL    HW279185  10.227   8.562   3.025
59118SOL     OW79186  11.282   7.193  14.020
59118SOL    HW179187  11.213   7.222  14.080
59118SOL    HW279188  11.278   7.255  13.947
59119SOL     OW79189  13.814   2.927   7.939
59119SOL    HW179190  13.746   2.946   8.004
59119SOL    HW279191  13.823   3.008   7.890
59120SOL     OW79192   9.420   5.194   3.746
59120SOL    HW179193   9.437   5.274   3.696
59120SOL    HW279194   9.502   5.176   3.791
59121SOL     OW79195   4.021  14.466   1.459
59121SOL    HW179196   4.030  14.424   1.373
59121SOL    HW279197   4.057  14.554   1.446
59122SOL     OW79198  12.959   1.048   3.383
59122SOL    HW179199  13.053   1.064   3.371
59122SOL    HW279200  12.945   0.961   3.344
59123SOL     OW79201   4.641   1.621   0.884
59123SOL    HW179202   4.664   1.616   0.792
59123SOL    HW279203   4.545   1.614   0.886
59124SOL     OW79204   1.047  11.941  14.742
59124SOL    HW179205   1.048  11.989  14.659
59124SOL    HW279206   1.121  11.881  14.736
59125SOL     OW79207   3.414  13.576   1.258
59125SOL    HW179208   3.385  13.530   1.179
59125SOL    HW279209   3.333  13.610   1.297
59126SOL     OW79210   4.676  14.871   6.593
59126SOL    HW179211   4.582   0.012   6.580
59126SOL    HW279212   4.702   0.065   6.656
59127SOL     OW79213   4.448   0.878  13.177
59127SOL    HW179214   4.397   0.895  13.098
59127SOL    HW279215   4.383   0.870  13.247
59128SOL     OW79216  14.731   1.707   4.527
59128SOL    HW179217  14.707   1.794   4.497
59128SOL    HW279218  14.783   1.722   4.606
59129SOL     OW79219  13.419  14.637   3.588
59129SOL    HW179220  13.353  14.598   3.531
59129SOL    HW279221  13.415  14.731   3.570
59130SOL     OW79222  14.497   6.050   0.264
59130SOL    HW179223  14.550   6.036   0.343
59130SOL    HW279224  14.407   6.045   0.294
59131SOL     OW79225   7.453   9.407   3.524
59131SOL    HW179226   7.421   9.458   3.450
59131SOL    HW279227   7.508   9.339   3.485
59132SOL     OW79228   9.418  10.960  11.293
59132SOL    HW179229   9.406  10.930  11.203
59132SOL    HW279230   9.370  11.043  11.298
59133SOL     OW79231   9.491   4.784  11.271
59133SOL    HW179232   9.430   4.714  11.295
59133SOL    HW279233   9.575   4.740  11.258
59134SOL     OW79234   9.261   6.924  11.542
59134SOL    HW179235   9.295   6.835  11.535
59134SOL    HW279236   9.303   6.959  11.621
59135SOL     OW79237   6.127   4.019  14.854
59135SOL    HW179238   6.194   4.037   0.047
59135SOL    HW279239   6.044   4.036   0.026
59136SOL     OW79240   1.346   5.207  12.803
59136SOL    HW179241   1.289   5.258  12.746
59136SOL    HW279242   1.316   5.228  12.892
59137SOL     OW79243  11.389   5.419   8.792
59137SOL    HW179244  11.422   5.420   8.882
59137SOL    HW279245  11.467   5.434   8.738
59138SOL     OW79246  10.630   2.249  10.785
59138SOL    HW179247  10.586   2.273  10.703
59138SOL    HW279248  10.708   2.304  10.787
59139SOL     OW79249   5.994  11.836   2.359
59139SOL    HW179250   6.021  11.818   2.449
59139SOL    HW279251   6.051  11.780   2.306
59140SOL     OW79252   7.366   3.916   5.610
59140SOL    HW179253   7.294   3.890   5.553
59140SOL    HW279254   7.332   3.904   5.699
59141SOL     OW79255  12.180   2.018   0.261
59141SOL    HW179256  12.231   1.992   0.185
59141SOL    HW279257  12.127   1.941   0.283
59142SOL     OW79258   7.358   8.970   4.298
59142SOL    HW179259   7.440   8.926   4.317
59142SOL    HW279260   7.297   8.900   4.276
59143SOL     OW79261  10.228   5.041  12.637
59143SOL    HW179262  10.262   5.130  12.639
59143SOL    HW279263  10.209   5.024  12.545
59144SOL     OW79264   9.901   8.598  11.992
59144SOL    HW179265   9.831   8.640  12.041
59144SOL    HW279266   9.877   8.505  11.991
59145SOL     OW79267  13.907   0.768   1.150
59145SOL    HW179268  13.908   0.860   1.124
59145SOL    HW279269  13.820   0.737   1.127
59146SOL     OW79270   7.125   0.935  12.761
59146SOL    HW179271   7.170   0.942  12.845
59146SOL    HW279272   7.084   1.021  12.749
59147SOL     OW79273  11.061   8.970   8.083
59147SOL    HW179274  11.105   8.985   8.167
59147SOL    HW279275  11.058   9.056   8.042
59148SOL     OW79276   8.823   5.908  10.251
59148SOL    HW179277   8.771   5.980  10.287
59148SOL    HW279278   8.759   5.844  10.221
59149SOL     OW79279  14.772   8.062   4.058
59149SOL    HW179280  14.729   7.977   4.072
59149SOL    HW279281  14.726   8.122   4.117
59150SOL     OW79282   2.940   7.633   6.927
59150SOL    HW179283   2.917   7.542   6.946
59150SOL    HW279284   2.875   7.661   6.864
59151SOL     OW79285   6.541  11.534   3.921
59151SOL    HW179286   6.540  11.438   3.924
59151SOL    HW279287   6.567  11.560   4.010
59152SOL     OW79288   7.871  13.935   2.759
59152SOL    HW179289   7.950  13.937   2.706
59152SOL    HW279290   7.889  13.872   2.828
59153SOL     OW79291   1.787   5.435   9.463
59153SOL    HW179292   1.813   5.475   9.380
59153SOL    HW279293   1.734   5.501   9.507
59154SOL     OW79294   4.628   1.199   2.879
59154SOL    HW179295   4.662   1.285   2.852
59154SOL    HW279296   4.697   1.137   2.853
59155SOL     OW79297   6.757   2.048  14.478
59155SOL    HW179298   6.764   1.976  14.415
59155SOL    HW279299   6.743   2.126  14.424
59156SOL     OW79300   5.586   4.873  14.038
59156SOL    HW179301   5.557   4.788  14.005
59156SOL    HW279302   5.679   4.876  14.015
59157SOL     OW79303   1.865  13.975  14.760
59157SOL    HW179304   1.781  13.932  14.746
59157SOL    HW279305   1.930  13.909  14.737
59158SOL     OW79306   4.398  11.617  10.038
59158SOL    HW179307   4.314  11.576  10.017
59158SOL    HW279308   4.452  11.544  10.070
59159SOL     OW79309  14.185  13.935   2.819
59159SOL    HW179310  14.156  13.844   2.830
59159SOL    HW279311  14.109  13.987   2.845
59160SOL     OW79312   7.203   9.353   8.206
59160SOL    HW179313   7.295   9.340   8.229
59160SOL    HW279314   7.159   9.273   8.237
59161SOL     OW79315  12.049   9.948   7.755
59161SOL    HW179316  11.962   9.926   7.721
59161SOL    HW279317  12.032  10.004   7.831
59162SOL     OW79318   0.302  11.882  12.836
59162SOL    HW179319   0.331  11.897  12.926
59162SOL    HW279320   0.328  11.792  12.817
59163SOL     OW79321  12.227  14.001   8.123
59163SOL    HW179322  12.229  13.907   8.107
59163SOL    HW279323  12.198  14.039   8.039
59164SOL     OW79324  11.763   6.588   1.611
59164SOL    HW179325  11.811   6.671   1.609
59164SOL    HW279326  11.713   6.591   1.693
59165SOL     OW79327  13.476  12.684  14.005
59165SOL    HW179328  13.487  12.728  14.090
59165SOL    HW279329  13.381  12.685  13.990
59166SOL     OW79330   6.122  13.279   8.101
59166SOL    HW179331   6.095  13.240   8.017
59166SOL    HW279332   6.099  13.213   8.166
59167SOL     OW79333   3.262   5.060  14.754
59167SOL    HW179334   3.354   5.068  14.728
59167SOL    HW279335   3.265   5.019  14.840
59168SOL     OW79336  10.560   4.077   4.696
59168SOL    HW179337  10.510   4.156   4.677
59168SOL    HW279338  10.531   4.014   4.630
59169SOL     OW79339   6.908   4.589   7.580
59169SOL    HW179340   6.948   4.574   7.495
59169SOL    HW279341   6.835   4.648   7.561
59170SOL     OW79342   2.057  13.321   3.055
59170SOL    HW179343   1.989  13.269   3.011
59170SOL    HW279344   2.102  13.259   3.112
59171SOL     OW79345  11.727  11.904   2.065
59171SOL    HW179346  11.703  11.860   2.146
59171SOL    HW279347  11.653  11.890   2.006
59172SOL     OW79348   3.136   2.850   6.349
59172SOL    HW179349   3.112   2.763   6.380
59172SOL    HW279350   3.178   2.834   6.264
59173SOL     OW79351   2.979   0.497  14.863
59173SOL    HW179352   3.059   0.532   0.029
59173SOL    HW279353   3.007   0.415  14.821
59174SOL     OW79354  12.804   3.884   0.855
59174SOL    HW179355  12.796   3.978   0.864
59174SOL    HW279356  12.715   3.851   0.861
59175SOL     OW79357   3.208   5.053  12.082
59175SOL    HW179358   3.240   5.123  12.024
59175SOL    HW279359   3.134   5.092  12.128
59176SOL     OW79360   6.475   3.704   8.250
59176SOL    HW179361   6.423   3.638   8.296
59176SOL    HW279362   6.467   3.681   8.158
59177SOL     OW79363   5.874  10.941   3.959
59177SOL    HW179364   5.789  10.937   3.916
59177SOL    HW279365   5.934  10.973   3.892
59178SOL     OW79366  10.317   5.112   5.582
59178SOL    HW179367  10.285   5.176   5.646
59178SOL    HW279368  10.373   5.053   5.632
59179SOL     OW79369   8.367   0.507   0.129
59179SOL    HW179370   8.389   0.450   0.056
59179SOL    HW279371   8.283   0.474   0.161
59180SOL     OW79372   9.867   8.021   7.041
59180SOL    HW179373   9.924   8.056   7.109
59180SOL    HW279374   9.780   8.019   7.080
59181SOL     OW79375   5.078   3.339  10.091
59181SOL    HW179376   5.041   3.357  10.178
59181SOL    HW279377   5.075   3.424  10.046
59182SOL     OW79378   9.306   8.428   8.409
59182SOL    HW179379   9.366   8.470   8.470
59182SOL    HW279380   9.263   8.360   8.460
59183SOL     OW79381   7.684   0.162   8.962
59183SOL    HW179382   7.737   0.190   9.037
59183SOL    HW279383   7.747   0.147   8.892
59184SOL     OW79384  10.098  13.698   6.133
59184SOL    HW179385  10.032  13.646   6.178
59184SOL    HW279386  10.161  13.722   6.201
59185SOL     OW79387   4.425   5.594   4.662
59185SOL    HW179388   4.429   5.677   4.709
59185SOL    HW279389   4.349   5.549   4.699
59186SOL     OW79390   1.680  12.695  13.408
59186SOL    HW179391   1.722  12.659  13.331
59186SOL    HW279392   1.742  12.679  13.479
59187SOL     OW79393   2.872  10.115   3.181
59187SOL    HW179394   2.867  10.105   3.276
59187SOL    HW279395   2.856  10.027   3.147
59188SOL     OW79396  11.259  14.615   7.350
59188SOL    HW179397  11.191  14.682   7.338
59188SOL    HW279398  11.339  14.656   7.318
59189SOL     OW79399   6.088   1.997  12.594
59189SOL    HW179400   6.037   1.963  12.667
59189SOL    HW279401   6.178   1.971  12.614
59190SOL     OW79402   1.571  10.053  13.851
59190SOL    HW179403   1.552  10.090  13.937
59190SOL    HW279404   1.498   9.994  13.833
59191SOL     OW79405   0.691   2.768   9.182
59191SOL    HW179406   0.609   2.719   9.181
59191SOL    HW279407   0.664   2.860   9.190
59192SOL     OW79408   7.345  12.610   2.925
59192SOL    HW179409   7.340  12.516   2.945
59192SOL    HW279410   7.374  12.613   2.834
59193SOL     OW79411  14.544   3.138  14.237
59193SOL    HW179412  14.494   3.182  14.306
59193SOL    HW279413  14.633   3.133  14.271
59194SOL     OW79414  10.852  10.057   4.249
59194SOL    HW179415  10.856  10.091   4.339
59194SOL    HW279416  10.901  10.121   4.198
59195SOL     OW79417   2.670   1.355   0.946
59195SOL    HW179418   2.683   1.261   0.930
59195SOL    HW279419   2.715   1.398   0.873
59196SOL     OW79420   5.717   8.019   9.958
59196SOL    HW179421   5.685   7.935   9.992
59196SOL    HW279422   5.793   8.040  10.012
59197SOL     OW79423  14.364   7.529   6.429
59197SOL    HW179424  14.442   7.506   6.378
59197SOL    HW279425  14.316   7.591   6.373
59198SOL     OW79426   9.776   0.633  14.674
59198SOL    HW179427   9.767   0.678  14.758
59198SOL    HW279428   9.803   0.544  14.696
59199SOL     OW79429   9.181   5.658   9.854
59199SOL    HW179430   9.117   5.685   9.919
59199SOL    HW279431   9.183   5.730   9.791
59200SOL     OW79432  12.168   1.919   3.501
59200SOL    HW179433  12.093   1.859   3.501
59200SOL    HW279434  12.210   1.904   3.416
59201SOL     OW79435  11.129  10.579  11.260
59201SOL    HW179436  11.167  10.522  11.327
59201SOL    HW279437  11.170  10.551  11.178
59202SOL     OW79438   8.104   5.615  12.697
59202SOL    HW179439   8.110   5.617  12.793
59202SOL    HW279440   8.195   5.612  12.667
59203SOL     OW79441   1.019   9.806  12.744
59203SOL    HW179442   0.970   9.744  12.798
59203SOL    HW279443   1.083   9.752  12.698
59204SOL     OW79444   0.185   0.349  13.141
59204SOL    HW179445   0.163   0.421  13.201
59204SOL    HW279446   0.222   0.281  13.196
59205SOL     OW79447   5.598   1.657   2.153
59205SOL    HW179448   5.655   1.716   2.203
59205SOL    HW279449   5.656   1.584   2.128
59206SOL     OW79450  13.117  13.465  13.903
59206SOL    HW179451  13.204  13.443  13.870
59206SOL    HW279452  13.099  13.399  13.970
59207SOL     OW79453   8.729  12.424   6.076
59207SOL    HW179454   8.704  12.352   6.018
59207SOL    HW279455   8.713  12.390   6.164
59208SOL     OW79456   8.022   1.938  11.647
59208SOL    HW179457   8.018   1.939  11.743
59208SOL    HW279458   8.038   2.030  11.623
59209SOL     OW79459  11.492   7.751   2.381
59209SOL    HW179460  11.578   7.708   2.376
59209SOL    HW279461  11.435   7.696   2.326
59210SOL     OW79462  13.447   9.834  13.339
59210SOL    HW179463  13.533   9.834  13.296
59210SOL    HW279464  13.456   9.896  13.411
59211SOL     OW79465  11.718   5.157   7.809
59211SOL    HW179466  11.728   5.247   7.777
59211SOL    HW279467  11.676   5.167   7.894
59212SOL     OW79468   1.608   9.580   8.832
59212SOL    HW179469   1.663   9.559   8.757
59212SOL    HW279470   1.526   9.534   8.815
59213SOL     OW79471  11.146   9.124   4.856
59213SOL    HW179472  11.055   9.140   4.881
59213SOL    HW279473  11.152   9.154   4.765
59214SOL     OW79474  13.439  13.586   9.317
59214SOL    HW179475  13.356  13.600   9.363
59214SOL    HW279476  13.491  13.533   9.378
59215SOL     OW79477   8.267  13.868   3.923
59215SOL    HW179478   8.258  13.958   3.890
59215SOL    HW279479   8.330  13.827   3.864
59216SOL     OW79480  12.091   3.343   0.543
59216SOL    HW179481  11.999   3.325   0.521
59216SOL    HW279482  12.137   3.263   0.517
59217SOL     OW79483   5.491  13.233   8.761
59217SOL    HW179484   5.419  13.239   8.698
59217SOL    HW279485   5.497  13.321   8.799
59218SOL     OW79486  11.346  12.379   0.559
59218SOL    HW179487  11.424  12.431   0.543
59218SOL    HW279488  11.325  12.341   0.473
59219SOL     OW79489  13.158   4.414  10.222
59219SOL    HW179490  13.072   4.448  10.198
59219SOL    HW279491  13.220   4.476  10.183
59220SOL     OW79492  10.178   6.670   4.028
59220SOL    HW179493  10.135   6.720   3.959
59220SOL    HW279494  10.200   6.735   4.095
59221SOL     OW79495  13.981   3.485   8.979
59221SOL    HW179496  13.963   3.541   8.903
59221SOL    HW279497  13.967   3.541   9.055
59222SOL     OW79498  10.101   3.999   5.179
59222SOL    HW179499  10.167   3.993   5.110
59222SOL    HW279500  10.018   3.994   5.132
59223SOL     OW79501   6.134   0.464   5.193
59223SOL    HW179502   6.121   0.385   5.140
59223SOL    HW279503   6.046   0.499   5.207
59224SOL     OW79504   9.358   2.733   5.722
59224SOL    HW179505   9.429   2.671   5.737
59224SOL    HW279506   9.300   2.688   5.659
59225SOL     OW79507  11.052   0.323   1.041
59225SOL    HW179508  11.117   0.337   0.972
59225SOL    HW279509  11.081   0.379   1.113
59226SOL     OW79510   4.353   7.519   2.437
59226SOL    HW179511   4.437   7.506   2.480
59226SOL    HW279512   4.294   7.457   2.480
59227SOL     OW79513   1.855   1.555   5.352
59227SOL    HW179514   1.775   1.526   5.308
59227SOL    HW279515   1.894   1.618   5.292
59228SOL     OW79516   3.205   9.881   9.161
59228SOL    HW179517   3.166   9.902   9.076
59228SOL    HW279518   3.191   9.959   9.214
59229SOL     OW79519   6.354   8.203  10.074
59229SOL    HW179520   6.401   8.186   9.992
59229SOL    HW279521   6.319   8.117  10.100
59230SOL     OW79522  14.511   2.820   7.391
59230SOL    HW179523  14.577   2.791   7.328
59230SOL    HW279524  14.440   2.757   7.383
59231SOL     OW79525   1.793   1.205  11.243
59231SOL    HW179526   1.765   1.158  11.165
59231SOL    HW279527   1.744   1.163  11.315
59232SOL     OW79528  14.133   8.985   3.931
59232SOL    HW179529  14.062   8.996   3.994
59232SOL    HW279530  14.206   9.033   3.969
59233SOL     OW79531  14.347  12.666   8.347
59233SOL    HW179532  14.333  12.734   8.281
59233SOL    HW279533  14.441  12.664   8.360
59234SOL     OW79534   4.114  14.819   6.637
59234SOL    HW179535   4.047  14.796   6.573
59234SOL    HW279536   4.197  14.809   6.590
59235SOL     OW79537   2.534  12.003   0.525
59235SOL    HW179538   2.553  11.931   0.584
59235SOL    HW279539   2.448  12.035   0.553
59236SOL     OW79540  12.278   3.134  13.058
59236SOL    HW179541  12.209   3.133  12.991
59236SOL    HW279542  12.324   3.217  13.044
59237SOL     OW79543   9.658   9.400   0.591
59237SOL    HW179544   9.573   9.356   0.582
59237SOL    HW279545   9.722   9.328   0.590
59238SOL     OW79546   9.090   7.301   3.100
59238SOL    HW179547   9.124   7.214   3.081
59238SOL    HW279548   9.017   7.286   3.161
59239SOL     OW79549   1.157  13.527   5.840
59239SOL    HW179550   1.076  13.537   5.790
59239SOL    HW279551   1.129  13.493   5.925
59240SOL     OW79552   7.988   1.934   9.840
59240SOL    HW179553   8.063   1.881   9.867
59240SOL    HW279554   7.915   1.872   9.837
59241SOL     OW79555   8.602   0.542  12.035
59241SOL    HW179556   8.542   0.613  12.058
59241SOL    HW279557   8.583   0.523  11.943
59242SOL     OW79558   4.988  14.636  11.493
59242SOL    HW179559   4.908  14.602  11.454
59242SOL    HW279560   4.972  14.636  11.587
59243SOL     OW79561   8.298  12.736   7.306
59243SOL    HW179562   8.306  12.700   7.394
59243SOL    HW279563   8.231  12.683   7.264
59244SOL     OW79564  14.569  11.581   8.192
59244SOL    HW179565  14.513  11.657   8.175
59244SOL    HW279566  14.651  11.600   8.145
59245SOL     OW79567   4.223  10.945  13.127
59245SOL    HW179568   4.275  10.970  13.204
59245SOL    HW279569   4.180  10.864  13.152
59246SOL     OW79570  11.575  10.821   0.881
59246SOL    HW179571  11.500  10.867   0.919
59246SOL    HW279572  11.577  10.736   0.926
59247SOL     OW79573   8.161  13.517   6.641
59247SOL    HW179574   8.130  13.519   6.731
59247SOL    HW279575   8.084  13.494   6.588
59248SOL     OW79576   9.534  14.784   9.172
59248SOL    HW179577   9.493  14.850   9.229
59248SOL    HW279578   9.528  14.702   9.222
59249SOL     OW79579   6.594   7.963   5.773
59249SOL    HW179580   6.558   8.036   5.721
59249SOL    HW279581   6.689   7.975   5.769
59250SOL     OW79582   0.690   6.852  11.988
59250SOL    HW179583   0.721   6.931  11.945
59250SOL    HW279584   0.707   6.867  12.081
59251SOL     OW79585   3.341   0.205   8.910
59251SOL    HW179586   3.298   0.218   8.994
59251SOL    HW279587   3.419   0.153   8.931
59252SOL     OW79588   9.879  14.084   9.136
59252SOL    HW179589   9.810  14.092   9.203
59252SOL    HW279590   9.846  14.015   9.077
59253SOL     OW79591  14.477   1.361   9.458
59253SOL    HW179592  14.536   1.286   9.449
59253SOL    HW279593  14.523   1.420   9.518
59254SOL     OW79594   3.774  12.993   5.994
59254SOL    HW179595   3.715  12.948   5.934
59254SOL    HW279596   3.855  13.004   5.945
59255SOL     OW79597   0.142   3.833  13.296
59255SOL    HW179598   0.193   3.757  13.270
59255SOL    HW279599   0.068   3.797  13.345
59256SOL     OW79600  14.625  14.547  14.425
59256SOL    HW179601  14.577  14.574  14.504
59256SOL    HW279602  14.567  14.569  14.353
59257SOL     OW79603   8.289   2.363   0.885
59257SOL    HW179604   8.355   2.331   0.823
59257SOL    HW279605   8.260   2.285   0.932
59258SOL     OW79606   1.887  14.376  14.605
59258SOL    HW179607   1.860  14.365  14.514
59258SOL    HW279608   1.930  14.461  14.607
59259SOL     OW79609   5.590   4.170  10.828
59259SOL    HW179610   5.607   4.188  10.735
59259SOL    HW279611   5.585   4.074  10.833
59260SOL     OW79612   5.076  14.860   3.292
59260SOL    HW179613   5.006   0.052   3.303
59260SOL    HW279614   5.150   0.038   3.259
59261SOL     OW79615  14.830   3.690   5.682
59261SOL    HW179616  14.757   3.747   5.708
59261SOL    HW279617   0.033   3.748   5.678
59262SOL     OW79618   4.358   6.020  11.801
59262SOL    HW179619   4.291   5.952  11.798
59262SOL    HW279620   4.336   6.079  11.728
59263SOL     OW79621   2.139   9.588   4.308
59263SOL    HW179622   2.228   9.622   4.296
59263SOL    HW279623   2.114   9.554   4.222
59264SOL     OW79624   7.231  12.773  12.251
59264SOL    HW179625   7.168  12.726  12.196
59264SOL    HW279626   7.260  12.707  12.315
59265SOL     OW79627  11.539   3.632   9.565
59265SOL    HW179628  11.512   3.704   9.508
59265SOL    HW279629  11.602   3.583   9.514
59266SOL     OW79630   2.347   6.213  14.165
59266SOL    HW179631   2.431   6.168  14.177
59266SOL    HW279632   2.371   6.300  14.134
59267SOL     OW79633   8.442   9.713   3.743
59267SOL    HW179634   8.368   9.691   3.686
59267SOL    HW279635   8.512   9.653   3.715
59268SOL     OW79636  10.027  14.317   7.162
59268SOL    HW179637  10.017  14.297   7.069
59268SOL    HW279638  10.028  14.413   7.166
59269SOL     OW79639   9.994  12.854   8.110
59269SOL    HW179640  10.069  12.808   8.148
59269SOL    HW279641  10.028  12.890   8.028
59270SOL     OW79642   4.093   5.411   0.389
59270SOL    HW179643   4.046   5.365   0.459
59270SOL    HW279644   4.055   5.375   0.308
59271SOL     OW79645   5.024   8.966  14.630
59271SOL    HW179646   5.119   8.975  14.620
59271SOL    HW279647   4.987   9.033  14.572
59272SOL     OW79648   4.084  13.744   4.415
59272SOL    HW179649   4.143  13.707   4.349
59272SOL    HW279650   4.023  13.673   4.434
59273SOL     OW79651  13.808   3.183   0.944
59273SOL    HW179652  13.815   3.105   0.999
59273SOL    HW279653  13.864   3.248   0.987
59274SOL     OW79654   6.229  11.934   4.397
59274SOL    HW179655   6.273  11.866   4.346
59274SOL    HW279656   6.223  11.896   4.485
59275SOL     OW79657  11.111  14.252   7.796
59275SOL    HW179658  11.030  14.206   7.818
59275SOL    HW279659  11.139  14.292   7.878
59276SOL     OW79660   2.494   9.642   2.146
59276SOL    HW179661   2.426   9.576   2.156
59276SOL    HW279662   2.558   9.621   2.213
59277SOL     OW79663  11.236   1.309  11.192
59277SOL    HW179664  11.147   1.343  11.201
59277SOL    HW279665  11.291   1.371  11.241
59278SOL     OW79666   4.915  12.468   7.268
59278SOL    HW179667   4.952  12.555   7.280
59278SOL    HW279668   4.939  12.444   7.178
59279SOL     OW79669   2.290  12.187  14.129
59279SOL    HW179670   2.358  12.204  14.064
59279SOL    HW279671   2.229  12.129  14.084
59280SOL     OW79672   2.183   1.453  11.869
59280SOL    HW179673   2.199   1.538  11.908
59280SOL    HW279674   2.218   1.460  11.780
59281SOL     OW79675   3.767   4.707   1.189
59281SOL    HW179676   3.759   4.612   1.194
59281SOL    HW279677   3.701   4.741   1.250
59282SOL     OW79678  11.173  13.071   3.933
59282SOL    HW179679  11.133  12.985   3.918
59282SOL    HW279680  11.156  13.090   4.025
59283SOL     OW79681   8.593   4.225   9.860
59283SOL    HW179682   8.595   4.171   9.939
59283SOL    HW279683   8.518   4.282   9.872
59284SOL     OW79684   2.808  13.959  14.280
59284SOL    HW179685   2.872  13.965  14.351
59284SOL    HW279686   2.858  13.925  14.205
59285SOL     OW79687   2.678   0.682   2.615
59285SOL    HW179688   2.682   0.641   2.528
59285SOL    HW279689   2.678   0.609   2.676
59286SOL     OW79690   1.109   9.082   2.777
59286SOL    HW179691   1.024   9.110   2.742
59286SOL    HW279692   1.094   8.992   2.806
59287SOL     OW79693   7.990   9.501  10.583
59287SOL    HW179694   8.026   9.420  10.548
59287SOL    HW279695   8.064   9.542  10.628
59288SOL     OW79696   3.936   2.122  13.468
59288SOL    HW179697   3.888   2.185  13.415
59288SOL    HW279698   3.986   2.177  13.530
59289SOL     OW79699   1.416  10.151  11.094
59289SOL    HW179700   1.447  10.239  11.071
59289SOL    HW279701   1.327  10.165  11.126
59290SOL     OW79702   9.636   5.789   5.780
59290SOL    HW179703   9.644   5.759   5.871
59290SOL    HW279704   9.632   5.884   5.786
59291SOL     OW79705  12.353   4.134   6.082
59291SOL    HW179706  12.307   4.203   6.130
59291SOL    HW279707  12.346   4.057   6.138
59292SOL     OW79708  12.768   0.928  11.355
59292SOL    HW179709  12.698   0.870  11.324
59292SOL    HW279710  12.821   0.945  11.277
59293SOL     OW79711  10.086   0.859   6.625
59293SOL    HW179712  10.167   0.841   6.673
59293SOL    HW279713  10.109   0.933   6.568
59294SOL     OW79714   3.847  10.666  14.608
59294SOL    HW179715   3.819  10.575  14.622
59294SOL    HW279716   3.805  10.715  14.679
59295SOL     OW79717   7.843   4.311   6.759
59295SOL    HW179718   7.866   4.391   6.806
59295SOL    HW279719   7.911   4.248   6.785
59296SOL     OW79720  12.776  14.817   2.473
59296SOL    HW179721  12.843  14.761   2.432
59296SOL    HW279722  12.696  14.797   2.425
59297SOL     OW79723   7.429   5.716   9.160
59297SOL    HW179724   7.350   5.673   9.193
59297SOL    HW279725   7.494   5.704   9.230
59298SOL     OW79726   4.879  12.498   6.472
59298SOL    HW179727   4.883  12.444   6.393
59298SOL    HW279728   4.959  12.478   6.521
59299SOL     OW79729  13.701   4.438   8.329
59299SOL    HW179730  13.738   4.518   8.290
59299SOL    HW279731  13.607   4.457   8.336
59300SOL     OW79732  12.645   0.805   7.552
59300SOL    HW179733  12.599   0.889   7.563
59300SOL    HW279734  12.574   0.741   7.545
59301SOL     OW79735   5.675  10.760   0.513
59301SOL    HW179736   5.763  10.758   0.476
59301SOL    HW279737   5.641  10.847   0.490
59302SOL     OW79738   7.208  11.315  13.816
59302SOL    HW179739   7.178  11.400  13.783
59302SOL    HW279740   7.131  11.258  13.810
59303SOL     OW79741   7.090   8.481  14.812
59303SOL    HW179742   7.076   8.491  14.718
59303SOL    HW279743   7.064   8.565  14.849
59304SOL     OW79744   4.020  11.186   6.754
59304SOL    HW179745   3.932  11.201   6.788
59304SOL    HW279746   4.074  11.255   6.794
59305SOL     OW79747  11.362   1.506  11.324
59305SOL    HW179748  11.452   1.531  11.301
59305SOL    HW279749  11.365   1.489  11.418
59306SOL     OW79750  11.078   5.559   9.866
59306SOL    HW179751  11.052   5.580   9.956
59306SOL    HW279752  11.146   5.492   9.875
59307SOL     OW79753   1.517   8.981  14.794
59307SOL    HW179754   1.542   9.053  14.736
59307SOL    HW279755   1.500   8.907  14.735
59308SOL     OW79756   6.314   8.886  11.662
59308SOL    HW179757   6.291   8.978  11.650
59308SOL    HW279758   6.234   8.838  11.641
59309SOL     OW79759   0.068   7.924   7.986
59309SOL    HW179760   0.122   7.998   7.956
59309SOL    HW279761   0.117   7.888   8.059
59310SOL     OW79762   9.698   9.717   7.971
59310SOL    HW179763   9.654   9.643   7.929
59310SOL    HW279764   9.759   9.749   7.904
59311SOL     OW79765   3.041   0.104   2.496
59311SOL    HW179766   3.128   0.123   2.530
59311SOL    HW279767   3.047   0.015   2.461
59312SOL     OW79768   2.973  11.888   4.072
59312SOL    HW179769   2.905  11.845   4.124
59312SOL    HW279770   3.055  11.863   4.115
59313SOL     OW79771   6.499   9.838   0.448
59313SOL    HW179772   6.458   9.783   0.382
59313SOL    HW279773   6.544   9.777   0.506
59314SOL     OW79774  12.057  14.101  14.712
59314SOL    HW179775  12.151  14.093  14.695
59314SOL    HW279776  12.015  14.059  14.636
59315SOL     OW79777  11.557   4.405  10.419
59315SOL    HW179778  11.529   4.357  10.496
59315SOL    HW279779  11.625   4.464  10.451
59316SOL     OW79780   7.998   0.319   8.637
59316SOL    HW179781   8.081   0.279   8.612
59316SOL    HW279782   7.993   0.400   8.585
59317SOL     OW79783   9.888  12.439   7.527
59317SOL    HW179784   9.948  12.451   7.600
59317SOL    HW279785   9.944  12.406   7.456
59318SOL     OW79786   3.271   5.034  10.790
59318SOL    HW179787   3.214   5.081  10.729
59318SOL    HW279788   3.328   5.101  10.827
59319SOL     OW79789   3.627   4.736   2.508
59319SOL    HW179790   3.604   4.827   2.521
59319SOL    HW279791   3.547   4.695   2.475
59320SOL     OW79792   0.913   8.733   9.241
59320SOL    HW179793   0.980   8.759   9.305
59320SOL    HW279794   0.860   8.669   9.287
59321SOL     OW79795  10.791  10.363  10.449
59321SOL    HW179796  10.827  10.374  10.361
59321SOL    HW279797  10.858  10.399  10.507
59322SOL     OW79798   6.030  10.472   2.128
59322SOL    HW179799   6.043  10.485   2.034
59322SOL    HW279800   6.112  10.434   2.159
59323SOL     OW79801   7.836  12.849   7.009
59323SOL    HW179802   7.916  12.797   7.000
59323SOL    HW279803   7.788  12.833   6.927
59324SOL     OW79804   5.397   1.719   8.269
59324SOL    HW179805   5.448   1.642   8.244
59324SOL    HW279806   5.459   1.792   8.263
59325SOL     OW79807   6.318  13.453   8.694
59325SOL    HW179808   6.348  13.365   8.716
59325SOL    HW279809   6.286  13.489   8.777
59326SOL     OW79810   1.900   4.968   7.402
59326SOL    HW179811   1.861   4.880   7.397
59326SOL    HW279812   1.994   4.953   7.389
59327SOL     OW79813   0.586   6.886  11.606
59327SOL    HW179814   0.547   6.968  11.634
59327SOL    HW279815   0.515   6.822  11.611
59328SOL     OW79816   1.271  10.297   9.774
59328SOL    HW179817   1.200  10.272   9.715
59328SOL    HW279818   1.239  10.274   9.861
59329SOL     OW79819  11.764   4.348   2.194
59329SOL    HW179820  11.837   4.332   2.134
59329SOL    HW279821  11.742   4.262   2.229
59330SOL     OW79822   5.919  10.110   5.282
59330SOL    HW179823   5.969  10.185   5.314
59330SOL    HW279824   5.964  10.082   5.203
59331SOL     OW79825   0.040   9.450  14.688
59331SOL    HW179826  14.866   9.514  14.634
59331SOL    HW279827   0.093   9.400  14.626
59332SOL     OW79828   8.241   3.342  10.230
59332SOL    HW179829   8.180   3.277  10.196
59332SOL    HW279830   8.195   3.384  10.303
59333SOL     OW79831   1.694   1.110   6.232
59333SOL    HW179832   1.621   1.171   6.245
59333SOL    HW279833   1.697   1.097   6.137
59334SOL     OW79834   7.457  10.665   8.535
59334SOL    HW179835   7.386  10.661   8.472
59334SOL    HW279836   7.516  10.594   8.510
59335SOL     OW79837   8.196   7.121   8.413
59335SOL    HW179838   8.121   7.179   8.408
59335SOL    HW279839   8.190   7.082   8.500
59336SOL     OW79840   8.616   4.946   3.216
59336SOL    HW179841   8.639   4.966   3.126
59336SOL    HW279842   8.608   5.032   3.259
59337SOL     OW79843   7.855  13.529   3.385
59337SOL    HW179844   7.891  13.548   3.472
59337SOL    HW279845   7.785  13.593   3.374
59338SOL     OW79846   0.105  14.236   3.759
59338SOL    HW179847   0.176  14.256   3.820
59338SOL    HW279848   0.147  14.234   3.673
59339SOL     OW79849   0.455   8.679   7.108
59339SOL    HW179850   0.482   8.640   7.025
59339SOL    HW279851   0.418   8.764   7.083
59340SOL     OW79852   2.525   4.188  14.628
59340SOL    HW179853   2.559   4.253  14.690
59340SOL    HW279854   2.436   4.172  14.658
59341SOL     OW79855   4.670   4.646   0.878
59341SOL    HW179856   4.702   4.694   0.801
59341SOL    HW279857   4.620   4.573   0.842
59342SOL     OW79858   2.540   8.667   2.219
59342SOL    HW179859   2.562   8.616   2.142
59342SOL    HW279860   2.621   8.713   2.241
59343SOL     OW79861  14.268   8.365  13.991
59343SOL    HW179862  14.228   8.389  13.908
59343SOL    HW279863  14.362   8.377  13.977
59344SOL     OW79864   2.151   1.276   1.544
59344SOL    HW179865   2.235   1.309   1.515
59344SOL    HW279866   2.118   1.224   1.470
59345SOL     OW79867   2.455   8.472   5.909
59345SOL    HW179868   2.366   8.476   5.946
59345SOL    HW279869   2.455   8.394   5.854
59346SOL     OW79870   1.080   6.635   5.567
59346SOL    HW179871   1.005   6.690   5.546
59346SOL    HW279872   1.140   6.646   5.494
59347SOL     OW79873  11.315   4.449   0.160
59347SOL    HW179874  11.336   4.406   0.244
59347SOL    HW279875  11.393   4.502   0.141
59348SOL     OW79876   4.735  13.733   3.862
59348SOL    HW179877   4.785  13.751   3.782
59348SOL    HW279878   4.650  13.774   3.847
59349SOL     OW79879   9.648   7.670   4.816
59349SOL    HW179880   9.650   7.590   4.869
59349SOL    HW279881   9.709   7.653   4.744
59350SOL     OW79882   7.428   1.003   4.862
59350SOL    HW179883   7.370   0.928   4.871
59350SOL    HW279884   7.381   1.075   4.903
59351SOL     OW79885   9.197   8.168   8.079
59351SOL    HW179886   9.277   8.137   8.037
59351SOL    HW279887   9.216   8.258   8.104
59352SOL     OW79888   8.738   6.558  12.345
59352SOL    HW179889   8.783   6.624  12.292
59352SOL    HW279890   8.656   6.601  12.372
59353SOL     OW79891   7.815  14.390   9.429
59353SOL    HW179892   7.788  14.400   9.520
59353SOL    HW279893   7.854  14.302   9.425
59354SOL     OW79894   3.581   5.015   4.536
59354SOL    HW179895   3.643   4.978   4.599
59354SOL    HW279896   3.629   5.016   4.453
59355SOL     OW79897  10.250   0.347   2.666
59355SOL    HW179898  10.253   0.423   2.608
59355SOL    HW279899  10.173   0.361   2.721
59356SOL     OW79900   8.998   1.724  10.653
59356SOL    HW179901   9.006   1.808  10.608
59356SOL    HW279902   8.992   1.748  10.746
59357SOL     OW79903   5.531  10.524   0.503
59357SOL    HW179904   5.617  10.565   0.511
59357SOL    HW279905   5.503  10.508   0.593
59358SOL     OW79906  13.330   0.018   6.058
59358SOL    HW179907  13.281   0.099   6.067
59358SOL    HW279908  13.264  14.822   6.057
59359SOL     OW79909  11.962   6.184   5.024
59359SOL    HW179910  12.017   6.157   4.950
59359SOL    HW279911  11.874   6.190   4.987
59360SOL     OW79912  12.407   1.912  10.697
59360SOL    HW179913  12.403   1.892  10.604
59360SOL    HW279914  12.352   1.991  10.707
59361SOL     OW79915   6.817   4.211  13.231
59361SOL    HW179916   6.840   4.194  13.140
59361SOL    HW279917   6.849   4.135  13.280
59362SOL     OW79918   4.926  10.899   7.282
59362SOL    HW179919   4.972  10.920   7.201
59362SOL    HW279920   4.949  10.970   7.342
59363SOL     OW79921  11.048   9.995   3.346
59363SOL    HW179922  11.008   9.911   3.324
59363SOL    HW279923  11.019  10.014   3.435
59364SOL     OW79924   6.244   8.896   8.691
59364SOL    HW179925   6.278   8.842   8.620
59364SOL    HW279926   6.207   8.834   8.753
59365SOL     OW79927   4.363   7.737  12.607
59365SOL    HW179928   4.277   7.745  12.647
59365SOL    HW279929   4.376   7.642  12.598
59366SOL     OW79930   1.059   8.326   6.176
59366SOL    HW179931   1.137   8.275   6.201
59366SOL    HW279932   1.075   8.413   6.214
59367SOL     OW79933   6.141   7.790  11.123
59367SOL    HW179934   6.140   7.823  11.033
59367SOL    HW279935   6.101   7.703  11.118
59368SOL     OW79936   8.082   8.312   4.819
59368SOL    HW179937   7.989   8.292   4.827
59368SOL    HW279938   8.086   8.408   4.817
59369SOL     OW79939   1.701   7.302   1.240
59369SOL    HW179940   1.677   7.239   1.172
59369SOL    HW279941   1.633   7.370   1.235
59370SOL     OW79942  11.142   8.792   7.883
59370SOL    HW179943  11.194   8.734   7.940
59370SOL    HW279944  11.117   8.865   7.940
59371SOL     OW79945   9.093  14.417   5.731
59371SOL    HW179946   9.186  14.428   5.711
59371SOL    HW279947   9.048  14.437   5.649
59372SOL     OW79948   7.611  14.279   6.085
59372SOL    HW179949   7.535  14.337   6.086
59372SOL    HW279950   7.684  14.335   6.057
59373SOL     OW79951   1.929   9.868   1.060
59373SOL    HW179952   1.948   9.864   1.154
59373SOL    HW279953   1.841   9.905   1.055
59374SOL     OW79954   7.751   5.775  10.080
59374SOL    HW179955   7.773   5.793   9.988
59374SOL    HW279956   7.708   5.855  10.110
59375SOL     OW79957  11.017   0.933  11.923
59375SOL    HW179958  11.062   0.896  11.847
59375SOL    HW279959  11.086   0.976  11.973
59376SOL     OW79960  11.392   8.787   4.716
59376SOL    HW179961  11.455   8.721   4.686
59376SOL    HW279962  11.413   8.798   4.809
59377SOL     OW79963  14.823   7.810  13.373
59377SOL    HW179964  14.827   7.885  13.432
59377SOL    HW279965  14.837   7.734  13.429
59378SOL     OW79966   0.603  13.530   7.124
59378SOL    HW179967   0.658  13.451   7.119
59378SOL    HW279968   0.571  13.541   7.034
59379SOL     OW79969   4.968   1.143  11.418
59379SOL    HW179970   4.897   1.160  11.480
59379SOL    HW279971   4.923   1.121  11.336
59380SOL     OW79972   4.704   6.072   5.324
59380SOL    HW179973   4.756   6.020   5.386
59380SOL    HW279974   4.753   6.066   5.242
59381SOL     OW79975   1.201   1.464   0.977
59381SOL    HW179976   1.105   1.466   0.976
59381SOL    HW279977   1.222   1.377   1.012
59382SOL     OW79978   5.706  12.578   5.941
59382SOL    HW179979   5.641  12.644   5.965
59382SOL    HW279980   5.656  12.497   5.930
59383SOL     OW79981   3.365  14.554  13.203
59383SOL    HW179982   3.420  14.522  13.275
59383SOL    HW279983   3.278  14.562  13.242
59384SOL     OW79984  10.314  13.455  10.917
59384SOL    HW179985  10.259  13.531  10.938
59384SOL    HW279986  10.283  13.386  10.975
59385SOL     OW79987   7.434  12.710   8.630
59385SOL    HW179988   7.445  12.623   8.591
59385SOL    HW279989   7.364  12.750   8.578
59386SOL     OW79990  12.346  12.294   7.731
59386SOL    HW179991  12.433  12.259   7.751
59386SOL    HW279992  12.301  12.222   7.686
59387SOL     OW79993   5.386  13.610   1.207
59387SOL    HW179994   5.334  13.548   1.156
59387SOL    HW279995   5.446  13.648   1.143
59388SOL     OW79996  14.726   7.206   3.105
59388SOL    HW179997  14.752   7.253   3.026
59388SOL    HW279998  14.738   7.269   3.176
59389SOL     OW79999   9.612   9.527   2.242
59389SOL    HW180000   9.601   9.606   2.295
59389SOL    HW280001   9.693   9.488   2.272
59390SOL     OW80002   3.067   7.623  10.339
59390SOL    HW180003   3.083   7.692  10.403
59390SOL    HW280004   3.017   7.666  10.270
59391SOL     OW80005   7.903  13.500   9.670
59391SOL    HW180006   7.972  13.500   9.604
59391SOL    HW280007   7.911  13.415   9.713
59392SOL     OW80008   7.196   8.393  12.598
59392SOL    HW180009   7.145   8.327  12.551
59392SOL    HW280010   7.287   8.367  12.585
59393SOL     OW80011   4.441  14.684  11.451
59393SOL    HW180012   4.365  14.631  11.429
59393SOL    HW280013   4.425  14.714  11.541
59394SOL     OW80014   5.705   4.044  12.238
59394SOL    HW180015   5.711   4.139  12.250
59394SOL    HW280016   5.796   4.014  12.239
59395SOL     OW80017  14.419  13.743  14.667
59395SOL    HW180018  14.380  13.668  14.712
59395SOL    HW280019  14.460  13.704  14.589
59396SOL     OW80020  10.028   8.407   7.219
59396SOL    HW180021   9.989   8.320   7.229
59396SOL    HW280022   9.956   8.462   7.188
59397SOL     OW80023  11.066  12.110   6.589
59397SOL    HW180024  11.062  12.063   6.672
59397SOL    HW280025  10.998  12.070   6.535
59398SOL     OW80026  14.340   9.523   5.895
59398SOL    HW180027  14.422   9.535   5.849
59398SOL    HW280028  14.344   9.434   5.930
59399SOL     OW80029   6.827  13.528  13.732
59399SOL    HW180030   6.855  13.460  13.670
59399SOL    HW280031   6.756  13.574  13.687
59400SOL     OW80032  13.561   2.454  13.174
59400SOL    HW180033  13.640   2.503  13.153
59400SOL    HW280034  13.576   2.367  13.135
59401SOL     OW80035  14.451   9.458  12.276
59401SOL    HW180036  14.436   9.365  12.264
59401SOL    HW280037  14.540   9.464  12.310
59402SOL     OW80038   9.303  12.340   6.520
59402SOL    HW180039   9.221  12.351   6.472
59402SOL    HW280040   9.351  12.422   6.506
59403SOL     OW80041  14.102   5.228  11.922
59403SOL    HW180042  14.016   5.190  11.942
59403SOL    HW280043  14.150   5.157  11.879
59404SOL     OW80044  13.269   0.102  12.093
59404SOL    HW180045  13.363   0.085  12.095
59404SOL    HW280046  13.238   0.075  12.180
59405SOL     OW80047  10.036   5.845  12.323
59405SOL    HW180048  10.068   5.911  12.385
59405SOL    HW280049  10.064   5.762  12.361
59406SOL     OW80050   4.845  14.151  12.497
59406SOL    HW180051   4.798  14.070  12.517
59406SOL    HW280052   4.935  14.134  12.526
59407SOL     OW80053   8.892   5.029  14.241
59407SOL    HW180054   8.857   5.080  14.314
59407SOL    HW280055   8.822   4.968  14.219
59408SOL     OW80056   1.619  12.745   3.786
59408SOL    HW180057   1.694  12.770   3.841
59408SOL    HW280058   1.543  12.765   3.840
59409SOL     OW80059   0.091  11.365  11.194
59409SOL    HW180060   0.124  11.431  11.133
59409SOL    HW280061   0.030  11.413  11.251
59410SOL     OW80062   8.782   2.326  10.973
59410SOL    HW180063   8.807   2.312  11.064
59410SOL    HW280064   8.863   2.310  10.924
59411SOL     OW80065  13.356   2.226  12.274
59411SOL    HW180066  13.355   2.219  12.179
59411SOL    HW280067  13.447   2.246  12.296
59412SOL     OW80068   7.595   4.809   6.765
59412SOL    HW180069   7.561   4.858   6.840
59412SOL    HW280070   7.676   4.854   6.741
59413SOL     OW80071   0.011   8.972   2.565
59413SOL    HW180072   0.064   8.980   2.644
59413SOL    HW280073  14.819   8.905   2.586
59414SOL     OW80074  13.139  10.810   4.344
59414SOL    HW180075  13.085  10.759   4.284
59414SOL    HW280076  13.182  10.875   4.288
59415SOL     OW80077  10.774   3.907   9.870
59415SOL    HW180078  10.694   3.873   9.832
59415SOL    HW280079  10.843   3.883   9.807
59416SOL     OW80080  13.653   3.599   6.510
59416SOL    HW180081  13.690   3.512   6.527
59416SOL    HW280082  13.559   3.584   6.503
59417SOL     OW80083   1.556   7.462  12.992
59417SOL    HW180084   1.627   7.423  12.942
59417SOL    HW280085   1.488   7.395  12.994
59418SOL     OW80086  11.451  13.630   8.211
59418SOL    HW180087  11.447  13.725   8.200
59418SOL    HW280088  11.402  13.612   8.291
59419SOL     OW80089   5.045   4.522   8.117
59419SOL    HW180090   5.077   4.466   8.047
59419SOL    HW280091   4.975   4.472   8.159
59420SOL     OW80092   6.402   9.565   3.960
59420SOL    HW180093   6.463   9.496   3.985
59420SOL    HW280094   6.385   9.612   4.042
59421SOL     OW80095   0.448   3.164   9.028
59421SOL    HW180096   0.387   3.230   8.994
59421SOL    HW280097   0.412   3.080   8.999
59422SOL     OW80098  12.526   1.938   9.321
59422SOL    HW180099  12.555   1.893   9.400
59422SOL    HW280100  12.479   2.015   9.352
59423SOL     OW80101   2.516  10.589  10.328
59423SOL    HW180102   2.449  10.542  10.377
59423SOL    HW280103   2.469  10.658  10.282
59424SOL     OW80104   3.589  13.856  13.117
59424SOL    HW180105   3.613  13.764  13.130
59424SOL    HW280106   3.635  13.882  13.037
59425SOL     OW80107   3.700   5.907  13.664
59425SOL    HW180108   3.715   6.001  13.656
59425SOL    HW280109   3.653   5.883  13.585
59426SOL     OW80110  14.114  11.302  14.268
59426SOL    HW180111  14.106  11.238  14.198
59426SOL    HW280112  14.052  11.273  14.335
59427SOL     OW80113  14.383   9.081   4.598
59427SOL    HW180114  14.373   9.032   4.516
59427SOL    HW280115  14.371   9.015   4.667
59428SOL     OW80116   2.338  10.624   0.601
59428SOL    HW180117   2.313  10.558   0.665
59428SOL    HW280118   2.433  10.632   0.610
59429SOL     OW80119   6.374   8.067   2.730
59429SOL    HW180120   6.418   8.059   2.814
59429SOL    HW280121   6.394   8.157   2.701
59430SOL     OW80122   9.872   8.849   3.887
59430SOL    HW180123   9.892   8.757   3.877
59430SOL    HW280124   9.809   8.852   3.959
59431SOL     OW80125   0.579   9.908   9.353
59431SOL    HW180126   0.530   9.920   9.272
59431SOL    HW280127   0.649   9.973   9.348
59432SOL     OW80128   5.258   6.142  11.936
59432SOL    HW180129   5.201   6.202  11.888
59432SOL    HW280130   5.324   6.114  11.872
59433SOL     OW80131   0.972   5.175   8.730
59433SOL    HW180132   0.930   5.106   8.782
59433SOL    HW280133   1.066   5.161   8.743
59434SOL     OW80134   2.317   4.739  13.497
59434SOL    HW180135   2.395   4.789  13.473
59434SOL    HW280136   2.263   4.800  13.546
59435SOL     OW80137   4.270  11.711   7.062
59435SOL    HW180138   4.326  11.712   6.984
59435SOL    HW280139   4.181  11.715   7.027
59436SOL     OW80140   0.455   5.960  14.374
59436SOL    HW180141   0.505   5.925  14.448
59436SOL    HW280142   0.383   6.009  14.415
59437SOL     OW80143  14.650   4.374   8.919
59437SOL    HW180144  14.586   4.422   8.972
59437SOL    HW280145  14.707   4.442   8.883
59438SOL     OW80146  10.865  11.360   4.436
59438SOL    HW180147  10.902  11.279   4.400
59438SOL    HW280148  10.865  11.346   4.531
59439SOL     OW80149   7.417  14.437   5.975
59439SOL    HW180150   7.395  14.390   5.895
59439SOL    HW280151   7.426  14.528   5.947
59440SOL     OW80152   1.825   9.123   0.910
59440SOL    HW180153   1.750   9.169   0.947
59440SOL    HW280154   1.787   9.061   0.848
59441SOL     OW80155   4.946  12.563  11.255
59441SOL    HW180156   4.856  12.590  11.236
59441SOL    HW280157   4.980  12.632  11.313
59442SOL     OW80158   2.178   8.212   7.209
59442SOL    HW180159   2.229   8.136   7.181
59442SOL    HW280160   2.201   8.223   7.302
59443SOL     OW80161   2.068   1.199   2.567
59443SOL    HW180162   2.113   1.115   2.554
59443SOL    HW280163   2.109   1.259   2.505
59444SOL     OW80164   2.133  14.631   2.795
59444SOL    HW180165   2.096  14.544   2.779
59444SOL    HW280166   2.172  14.624   2.883
59445SOL     OW80167  12.862  11.032  11.392
59445SOL    HW180168  12.901  10.946  11.403
59445SOL    HW280169  12.802  11.022  11.318
59446SOL     OW80170   4.359  14.656   3.217
59446SOL    HW180171   4.343  14.588   3.282
59446SOL    HW280172   4.353  14.611   3.133
59447SOL     OW80173   6.566   6.628   8.404
59447SOL    HW180174   6.564   6.534   8.420
59447SOL    HW280175   6.532   6.667   8.484
59448SOL     OW80176   0.031   8.949   6.017
59448SOL    HW180177  14.834   8.934   6.080
59448SOL    HW280178   0.098   8.884   6.040
59449SOL     OW80179  10.168   2.619  10.217
59449SOL    HW180180  10.173   2.575  10.302
59449SOL    HW280181  10.075   2.628  10.199
59450SOL     OW80182  10.756   0.093   4.698
59450SOL    HW180183  10.781   0.130   4.613
59450SOL    HW280184  10.769  14.872   4.687
59451SOL     OW80185  13.109  10.590   9.612
59451SOL    HW180186  13.151  10.643   9.680
59451SOL    HW280187  13.072  10.516   9.659
59452SOL     OW80188   9.769   3.231  10.547
59452SOL    HW180189   9.829   3.273  10.486
59452SOL    HW280190   9.788   3.138  10.539
59453SOL     OW80191   1.583   3.842   0.261
59453SOL    HW180192   1.622   3.909   0.317
59453SOL    HW280193   1.631   3.762   0.281
59454SOL     OW80194   0.697   6.638   7.552
59454SOL    HW180195   0.641   6.600   7.484
59454SOL    HW280196   0.759   6.692   7.504
59455SOL     OW80197   9.889  11.695  10.109
59455SOL    HW180198   9.916  11.785  10.087
59455SOL    HW280199   9.834  11.705  10.187
59456SOL     OW80200   4.799   0.117   8.785
59456SOL    HW180201   4.850   0.184   8.831
59456SOL    HW280202   4.865   0.056   8.752
59457SOL     OW80203   0.316   0.541   4.991
59457SOL    HW180204   0.252   0.470   4.992
59457SOL    HW280205   0.324   0.568   5.082
59458SOL     OW80206  11.358   1.557   8.651
59458SOL    HW180207  11.381   1.558   8.558
59458SOL    HW280208  11.284   1.616   8.658
59459SOL     OW80209  13.848   9.598  14.006
59459SOL    HW180210  13.867   9.510  14.036
59459SOL    HW280211  13.782   9.631  14.067
59460SOL     OW80212   6.374  11.578  11.223
59460SOL    HW180213   6.288  11.538  11.209
59460SOL    HW280214   6.433  11.504  11.234
59461SOL     OW80215  14.664  11.560   8.458
59461SOL    HW180216  14.639  11.552   8.366
59461SOL    HW280217  14.607  11.629   8.492
59462SOL     OW80218   7.987  14.808   6.298
59462SOL    HW180219   8.015   0.023   6.273
59462SOL    HW280220   8.069  14.759   6.307
59463SOL     OW80221   0.831   7.082   7.414
59463SOL    HW180222   0.769   7.056   7.345
59463SOL    HW280223   0.880   7.155   7.377
59464SOL     OW80224   0.524  14.010   2.579
59464SOL    HW180225   0.534  14.099   2.612
59464SOL    HW280226   0.434  14.006   2.547
59465SOL     OW80227   1.624   4.951  10.114
59465SOL    HW180228   1.610   4.973  10.022
59465SOL    HW280229   1.616   4.855  10.116
59466SOL     OW80230   1.054  11.124  11.211
59466SOL    HW180231   1.042  11.201  11.267
59466SOL    HW280232   1.135  11.141  11.163
59467SOL     OW80233  10.277   3.733   0.328
59467SOL    HW180234  10.346   3.780   0.281
59467SOL    HW280235  10.210   3.715   0.261
59468SOL     OW80236   0.656   2.854   7.905
59468SOL    HW180237   0.671   2.764   7.878
59468SOL    HW280238   0.611   2.848   7.989
59469SOL     OW80239   8.451   6.621  12.694
59469SOL    HW180240   8.485   6.583  12.613
59469SOL    HW280241   8.356   6.608  12.688
59470SOL     OW80242   1.050  11.858   6.426
59470SOL    HW180243   1.076  11.767   6.435
59470SOL    HW280244   0.996  11.876   6.503
59471SOL     OW80245   6.742  14.682  11.991
59471SOL    HW180246   6.802  14.718  12.057
59471SOL    HW280247   6.718  14.757  11.937
59472SOL     OW80248   2.272   2.628   5.646
59472SOL    HW180249   2.190   2.625   5.694
59472SOL    HW280250   2.287   2.721   5.630
59473SOL     OW80251   7.980   0.833  12.093
59473SOL    HW180252   7.910   0.864  12.035
59473SOL    HW280253   8.055   0.889  12.073
59474SOL     OW80254   3.989   3.311  13.420
59474SOL    HW180255   3.983   3.280  13.329
59474SOL    HW280256   3.901   3.345  13.439
59475SOL     OW80257   7.134  13.174   6.633
59475SOL    HW180258   7.131  13.186   6.538
59475SOL    HW280259   7.206  13.113   6.647
59476SOL     OW80260   5.777   7.435  14.137
59476SOL    HW180261   5.740   7.383  14.067
59476SOL    HW280262   5.872   7.423  14.128
59477SOL     OW80263   8.909   9.547  11.735
59477SOL    HW180264   8.896   9.641  11.750
59477SOL    HW280265   8.876   9.532  11.647
59478SOL     OW80266   2.509  10.818  11.984
59478SOL    HW180267   2.516  10.750  11.916
59478SOL    HW280268   2.559  10.892  11.949
59479SOL     OW80269  13.614   4.316  12.785
59479SOL    HW180270  13.677   4.287  12.851
59479SOL    HW280271  13.621   4.411  12.785
59480SOL     OW80272   1.033  10.700  12.596
59480SOL    HW180273   1.049  10.736  12.509
59480SOL    HW280274   1.094  10.627  12.604
59481SOL     OW80275   2.011  13.187  10.582
59481SOL    HW180276   2.052  13.246  10.519
59481SOL    HW280277   1.951  13.134  10.529
59482SOL     OW80278  14.144  12.514   8.434
59482SOL    HW180279  14.155  12.441   8.373
59482SOL    HW280280  14.211  12.578   8.408
59483SOL     OW80281   1.316   2.177   5.330
59483SOL    HW180282   1.328   2.084   5.310
59483SOL    HW280283   1.403   2.208   5.354
59484SOL     OW80284  11.394  12.664   3.368
59484SOL    HW180285  11.321  12.640   3.426
59484SOL    HW280286  11.355  12.724   3.305
59485SOL     OW80287  13.828   3.153   1.359
59485SOL    HW180288  13.908   3.195   1.329
59485SOL    HW280289  13.838   3.147   1.454
59486SOL     OW80290   7.469  10.502  13.696
59486SOL    HW180291   7.548  10.450  13.684
59486SOL    HW280292   7.450  10.496  13.790
59487SOL     OW80293  14.838   0.381   1.073
59487SOL    HW180294   0.055   0.361   1.047
59487SOL    HW280295  14.791   0.299   1.062
59488SOL     OW80296   1.983   0.368   6.401
59488SOL    HW180297   1.982   0.460   6.375
59488SOL    HW280298   1.894   0.337   6.384
59489SOL     OW80299  10.717   4.335  13.944
59489SOL    HW180300  10.720   4.398  14.016
59489SOL    HW280301  10.715   4.389  13.865
59490SOL     OW80302   5.696   7.265   7.675
59490SOL    HW180303   5.735   7.296   7.593
59490SOL    HW280304   5.671   7.344   7.721
59491SOL     OW80305   1.948  10.421   2.905
59491SOL    HW180306   1.863  10.429   2.862
59491SOL    HW280307   1.928  10.414   2.998
59492SOL     OW80308  13.224   2.968   4.764
59492SOL    HW180309  13.131   2.976   4.743
59492SOL    HW280310  13.241   3.038   4.827
59493SOL     OW80311  14.122  12.456   3.052
59493SOL    HW180312  14.159  12.431   2.968
59493SOL    HW280313  14.172  12.406   3.117
59494SOL     OW80314   7.224   9.437  13.532
59494SOL    HW180315   7.232   9.479  13.446
59494SOL    HW280316   7.294   9.477  13.585
59495SOL     OW80317  12.513   7.881   6.358
59495SOL    HW180318  12.550   7.821   6.294
59495SOL    HW280319  12.509   7.829   6.439
59496SOL     OW80320  12.073  11.683   5.720
59496SOL    HW180321  12.160  11.717   5.698
59496SOL    HW280322  12.033  11.752   5.772
59497SOL     OW80323  12.038   9.306  14.151
59497SOL    HW180324  11.988   9.354  14.217
59497SOL    HW280325  12.080   9.374  14.098
59498SOL     OW80326  13.387   5.259  11.465
59498SOL    HW180327  13.394   5.335  11.407
59498SOL    HW280328  13.308   5.275  11.516
59499SOL     OW80329   1.865   4.782   7.877
59499SOL    HW180330   1.774   4.806   7.898
59499SOL    HW280331   1.884   4.707   7.934
59500SOL     OW80332   8.967   7.875   1.171
59500SOL    HW180333   8.927   7.830   1.246
59500SOL    HW280334   8.934   7.828   1.095
59501SOL     OW80335  11.326  10.490   6.380
59501SOL    HW180336  11.244  10.450   6.350
59501SOL    HW280337  11.383  10.416   6.401
59502SOL     OW80338   8.038   6.068  12.306
59502SOL    HW180339   7.972   6.011  12.266
59502SOL    HW280340   8.121   6.023  12.291
59503SOL     OW80341   0.991   7.754  10.913
59503SOL    HW180342   1.002   7.747  10.819
59503SOL    HW280343   0.901   7.784  10.925
59504SOL     OW80344   9.544   2.061   8.576
59504SOL    HW180345   9.606   2.120   8.532
59504SOL    HW280346   9.544   2.089   8.667
59505SOL     OW80347   7.772   9.285   9.890
59505SOL    HW180348   7.799   9.195   9.872
59505SOL    HW280349   7.775   9.329   9.805
59506SOL     OW80350   6.639  13.864   4.833
59506SOL    HW180351   6.553  13.826   4.811
59506SOL    HW280352   6.639  13.949   4.789
59507SOL     OW80353  10.863  13.242   3.806
59507SOL    HW180354  10.874  13.162   3.755
59507SOL    HW280355  10.820  13.303   3.746
59508SOL     OW80356   2.264   3.432   7.868
59508SOL    HW180357   2.350   3.402   7.837
59508SOL    HW280358   2.240   3.369   7.936
59509SOL     OW80359   0.891   4.136   2.617
59509SOL    HW180360   0.803   4.167   2.641
59509SOL    HW280361   0.914   4.187   2.540
59510SOL     OW80362  14.669   3.623   3.862
59510SOL    HW180363  14.595   3.576   3.901
59510SOL    HW280364  14.642   3.714   3.862
59511SOL     OW80365   2.381   3.621   0.233
59511SOL    HW180366   2.396   3.710   0.263
59511SOL    HW280367   2.437   3.612   0.156
59512SOL     OW80368   1.676   8.277   9.757
59512SOL    HW180369   1.736   8.308   9.825
59512SOL    HW280370   1.601   8.241   9.805
59513SOL     OW80371   2.131  12.254   4.717
59513SOL    HW180372   2.216  12.296   4.709
59513SOL    HW280373   2.069  12.320   4.688
59514SOL     OW80374   3.033  11.115   6.113
59514SOL    HW180375   3.024  11.193   6.058
59514SOL    HW280376   3.105  11.135   6.172
59515SOL     OW80377  12.954   5.213   4.179
59515SOL    HW180378  12.965   5.123   4.148
59515SOL    HW280379  12.967   5.267   4.101
59516SOL     OW80380  11.900   8.599   6.452
59516SOL    HW180381  11.931   8.686   6.477
59516SOL    HW280382  11.951   8.539   6.507
59517SOL     OW80383   9.366  13.412   0.325
59517SOL    HW180384   9.324  13.456   0.399
59517SOL    HW280385   9.310  13.433   0.250
59518SOL     OW80386  13.179   8.948   0.364
59518SOL    HW180387  13.133   8.919   0.442
59518SOL    HW280388  13.237   8.875   0.341
59519SOL     OW80389   2.846   4.330   1.875
59519SOL    HW180390   2.828   4.308   1.967
59519SOL    HW280391   2.933   4.370   1.876
59520SOL     OW80392  13.097   8.518   9.071
59520SOL    HW180393  13.089   8.598   9.122
59520SOL    HW280394  13.070   8.448   9.132
59521SOL     OW80395   9.946   2.588  13.602
59521SOL    HW180396  10.017   2.536  13.640
59521SOL    HW280397   9.987   2.673  13.582
59522SOL     OW80398   6.190  14.319   8.873
59522SOL    HW180399   6.220  14.262   8.802
59522SOL    HW280400   6.220  14.406   8.849
59523SOL     OW80401  10.361   6.823  11.558
59523SOL    HW180402  10.282   6.769  11.563
59523SOL    HW280403  10.331   6.912  11.576
59524SOL     OW80404  10.083  14.797   8.637
59524SOL    HW180405  10.034  14.859   8.692
59524SOL    HW280406  10.053  14.816   8.548
59525SOL     OW80407   9.155  13.130   3.074
59525SOL    HW180408   9.070  13.172   3.065
59525SOL    HW280409   9.210  13.195   3.118
59526SOL     OW80410   0.681   1.768   0.819
59526SOL    HW180411   0.615   1.712   0.779
59526SOL    HW280412   0.727   1.807   0.744
59527SOL     OW80413  13.501   9.586   8.481
59527SOL    HW180414  13.564   9.560   8.548
59527SOL    HW280415  13.509   9.519   8.413
59528SOL     OW80416  10.325   7.257   0.455
59528SOL    HW180417  10.235   7.247   0.422
59528SOL    HW280418  10.373   7.296   0.382
59529SOL     OW80419   2.423   3.138   4.855
59529SOL    HW180420   2.383   3.094   4.780
59529SOL    HW280421   2.419   3.231   4.833
59530SOL     OW80422  11.796   6.581   5.600
59530SOL    HW180423  11.703   6.556   5.598
59530SOL    HW280424  11.840   6.513   5.550
59531SOL     OW80425   4.682   0.953  14.199
59531SOL    HW180426   4.745   1.000  14.253
59531SOL    HW280427   4.660   0.875  14.249
59532SOL     OW80428  13.093   1.932   1.795
59532SOL    HW180429  13.177   1.960   1.758
59532SOL    HW280430  13.105   1.938   1.890
59533SOL     OW80431  10.705   1.307   1.803
59533SOL    HW180432  10.768   1.255   1.853
59533SOL    HW280433  10.753   1.333   1.724
59534SOL     OW80434   5.327  13.266  12.511
59534SOL    HW180435   5.308  13.307  12.427
59534SOL    HW280436   5.267  13.191  12.516
59535SOL     OW80437   6.947   1.549   9.057
59535SOL    HW180438   6.949   1.493   9.134
59535SOL    HW280439   6.988   1.631   9.085
59536SOL     OW80440   4.440  10.575  11.850
59536SOL    HW180441   4.410  10.491  11.886
59536SOL    HW280442   4.383  10.591  11.775
59537SOL     OW80443  13.599   0.538   5.744
59537SOL    HW180444  13.558   0.529   5.830
59537SOL    HW280445  13.684   0.578   5.763
59538SOL     OW80446  13.844   2.468  10.440
59538SOL    HW180447  13.911   2.400  10.439
59538SOL    HW280448  13.849   2.506  10.528
59539SOL     OW80449   3.551   3.377  11.743
59539SOL    HW180450   3.529   3.460  11.701
59539SOL    HW280451   3.620   3.340  11.688
59540SOL     OW80452  14.420   1.783  14.741
59540SOL    HW180453  14.405   1.877  14.749
59540SOL    HW280454  14.504   1.776  14.695
59541SOL     OW80455  13.853  13.104   4.153
59541SOL    HW180456  13.927  13.047   4.171
59541SOL    HW280457  13.882  13.191   4.177
59542SOL     OW80458   7.844   0.848   3.950
59542SOL    HW180459   7.750   0.844   3.967
59542SOL    HW280460   7.861   0.777   3.889
59543SOL     OW80461   9.865  12.381   1.689
59543SOL    HW180462   9.808  12.451   1.723
59543SOL    HW280463   9.819  12.348   1.612
59544SOL     OW80464   7.193  11.671   3.363
59544SOL    HW180465   7.116  11.616   3.375
59544SOL    HW280466   7.265  11.619   3.396
59545SOL     OW80467   4.493   5.329  10.255
59545SOL    HW180468   4.436   5.253  10.268
59545SOL    HW280469   4.556   5.302  10.189
59546SOL     OW80470  14.154  10.324  10.067
59546SOL    HW180471  14.223  10.296  10.007
59546SOL    HW280472  14.189  10.306  10.154
59547SOL     OW80473  14.328  14.456  11.040
59547SOL    HW180474  14.310  14.481  11.131
59547SOL    HW280475  14.396  14.390  11.047
59548SOL     OW80476   0.356  12.272   7.280
59548SOL    HW180477   0.404  12.285   7.198
59548SOL    HW280478   0.294  12.344   7.284
59549SOL     OW80479  13.212   5.809   9.439
59549SOL    HW180480  13.264   5.747   9.387
59549SOL    HW280481  13.261   5.890   9.435
59550SOL     OW80482  14.027   2.613   2.678
59550SOL    HW180483  14.102   2.560   2.650
59550SOL    HW280484  13.952   2.574   2.634
59551SOL     OW80485   8.787  13.093   3.490
59551SOL    HW180486   8.733  13.147   3.431
59551SOL    HW280487   8.724  13.055   3.551
59552SOL     OW80488   6.143  11.383  11.300
59552SOL    HW180489   6.087  11.460  11.297
59552SOL    HW280490   6.103  11.326  11.366
59553SOL     OW80491   2.032   6.361  12.905
59553SOL    HW180492   2.081   6.320  12.976
59553SOL    HW280493   2.006   6.447  12.938
59554SOL     OW80494   3.723  13.822   8.020
59554SOL    HW180495   3.764  13.902   8.052
59554SOL    HW280496   3.673  13.789   8.095
59555SOL     OW80497   4.735   1.352  10.866
59555SOL    HW180498   4.689   1.364  10.783
59555SOL    HW280499   4.766   1.261  10.863
59556SOL     OW80500  13.103  11.644   2.011
59556SOL    HW180501  13.124  11.727   1.970
59556SOL    HW280502  13.119  11.658   2.105
59557SOL     OW80503  13.816  13.888  13.560
59557SOL    HW180504  13.848  13.908  13.472
59557SOL    HW280505  13.891  13.849  13.604
59558SOL     OW80506   2.535  14.627   3.426
59558SOL    HW180507   2.596  14.601   3.357
59558SOL    HW280508   2.559  14.717   3.446
59559SOL     OW80509   3.145   9.206   6.479
59559SOL    HW180510   3.132   9.148   6.404
59559SOL    HW280511   3.057   9.228   6.509
59560SOL     OW80512   0.594   3.487   9.136
59560SOL    HW180513   0.565   3.572   9.102
59560SOL    HW280514   0.620   3.438   9.058
59561SOL     OW80515   0.493   1.645  13.736
59561SOL    HW180516   0.447   1.678  13.659
59561SOL    HW280517   0.446   1.683  13.810
59562SOL     OW80518   5.308   4.300   4.052
59562SOL    HW180519   5.236   4.308   3.990
59562SOL    HW280520   5.334   4.208   4.047
59563SOL     OW80521   9.386   5.827   0.503
59563SOL    HW180522   9.423   5.913   0.484
59563SOL    HW280523   9.413   5.809   0.593
59564SOL     OW80524  10.230   7.162   7.482
59564SOL    HW180525  10.213   7.181   7.390
59564SOL    HW280526  10.144   7.158   7.522
59565SOL     OW80527   0.471   7.684  10.381
59565SOL    HW180528   0.443   7.601  10.420
59565SOL    HW280529   0.424   7.689  10.298
59566SOL     OW80530   8.331   4.724  13.652
59566SOL    HW180531   8.359   4.741  13.562
59566SOL    HW280532   8.403   4.674  13.691
59567SOL     OW80533   4.288  12.005   1.680
59567SOL    HW180534   4.294  11.928   1.623
59567SOL    HW280535   4.361  11.996   1.741
59568SOL     OW80536  12.206  10.925   0.381
59568SOL    HW180537  12.245  11.008   0.408
59568SOL    HW280538  12.197  10.875   0.462
59569SOL     OW80539   1.176  12.283  14.817
59569SOL    HW180540   1.090  12.289  14.775
59569SOL    HW280541   1.221  12.214  14.769
59570SOL     OW80542   5.252   7.781   9.825
59570SOL    HW180543   5.232   7.783   9.918
59570SOL    HW280544   5.340   7.742   9.821
59571SOL     OW80545   6.839   1.228   9.190
59571SOL    HW180546   6.806   1.195   9.273
59571SOL    HW280547   6.788   1.181   9.123
59572SOL     OW80548   0.682   6.195   3.229
59572SOL    HW180549   0.713   6.230   3.145
59572SOL    HW280550   0.758   6.150   3.266
59573SOL     OW80551  11.244  13.756  11.780
59573SOL    HW180552  11.192  13.718  11.708
59573SOL    HW280553  11.334  13.733  11.758
59574SOL     OW80554   6.013   2.638   0.109
59574SOL    HW180555   5.986   2.547   0.093
59574SOL    HW280556   6.105   2.631   0.136
59575SOL     OW80557   6.479  13.933   1.224
59575SOL    HW180558   6.415  13.881   1.176
59575SOL    HW280559   6.463  14.023   1.195
59576SOL     OW80560  13.699   3.590   0.061
59576SOL    HW180561  13.730   3.522   0.001
59576SOL    HW280562  13.606   3.571   0.072
59577SOL     OW80563   8.740  11.309   1.420
59577SOL    HW180564   8.697  11.327   1.337
59577SOL    HW280565   8.726  11.388   1.472
59578SOL     OW80566   9.143  11.126   6.182
59578SOL    HW180567   9.169  11.119   6.274
59578SOL    HW280568   9.068  11.185   6.183
59579SOL     OW80569   6.068  12.131   2.993
59579SOL    HW180570   6.055  12.211   2.942
59579SOL    HW280571   6.052  12.060   2.932
59580SOL     OW80572   5.571   5.397  13.349
59580SOL    HW180573   5.595   5.332  13.416
59580SOL    HW280574   5.506   5.452  13.392
59581SOL     OW80575  11.214   1.775   8.495
59581SOL    HW180576  11.250   1.715   8.431
59581SOL    HW280577  11.119   1.768   8.484
59582SOL     OW80578   8.755   7.638  14.408
59582SOL    HW180579   8.695   7.712  14.421
59582SOL    HW280580   8.820   7.648  14.478
59583SOL     OW80581   2.330   4.088   6.780
59583SOL    HW180582   2.266   4.021   6.756
59583SOL    HW280583   2.408   4.067   6.728
59584SOL     OW80584   1.275   3.285  13.913
59584SOL    HW180585   1.270   3.241  13.829
59584SOL    HW280586   1.186   3.319  13.928
59585SOL     OW80587   2.278   2.262  11.862
59585SOL    HW180588   2.199   2.221  11.898
59585SOL    HW280589   2.330   2.284  11.939
59586SOL     OW80590  12.497   0.913   9.162
59586SOL    HW180591  12.420   0.919   9.107
59586SOL    HW280592  12.538   0.829   9.138
59587SOL     OW80593   0.429   0.655   4.778
59587SOL    HW180594   0.383   0.634   4.859
59587SOL    HW280595   0.393   0.740   4.751
59588SOL     OW80596  14.327   5.696   1.651
59588SOL    HW180597  14.370   5.612   1.670
59588SOL    HW280598  14.371   5.727   1.572
59589SOL     OW80599   8.045  14.138   7.622
59589SOL    HW180600   8.129  14.093   7.615
59589SOL    HW280601   7.986  14.073   7.660
59590SOL     OW80602   8.547  12.864   6.415
59590SOL    HW180603   8.621  12.821   6.459
59590SOL    HW280604   8.516  12.927   6.479
59591SOL     OW80605   4.448   1.749   2.936
59591SOL    HW180606   4.362   1.786   2.954
59591SOL    HW280607   4.438   1.704   2.852
59592SOL     OW80608  12.488   4.411  11.876
59592SOL    HW180609  12.398   4.380  11.867
59592SOL    HW280610  12.541   4.331  11.882
59593SOL     OW80611   4.772  13.510   1.635
59593SOL    HW180612   4.691  13.492   1.587
59593SOL    HW280613   4.809  13.587   1.592
59594SOL     OW80614   2.321   2.147  13.117
59594SOL    HW180615   2.356   2.059  13.105
59594SOL    HW280616   2.292   2.149  13.208
59595SOL     OW80617  12.439   3.154   2.247
59595SOL    HW180618  12.426   3.100   2.169
59595SOL    HW280619  12.469   3.092   2.314
59596SOL     OW80620   8.554   4.239   8.187
59596SOL    HW180621   8.538   4.278   8.102
59596SOL    HW280622   8.602   4.306   8.236
59597SOL     OW80623  12.410   0.777  11.190
59597SOL    HW180624  12.462   0.707  11.229
59597SOL    HW280625  12.320   0.757  11.215
59598SOL     OW80626   1.451   7.134   7.331
59598SOL    HW180627   1.388   7.092   7.389
59598SOL    HW280628   1.523   7.160   7.389
59599SOL     OW80629   7.050   4.470   5.569
59599SOL    HW180630   6.995   4.510   5.637
59599SOL    HW280631   7.139   4.474   5.605
59600SOL     OW80632   5.621   6.355  14.669
59600SOL    HW180633   5.600   6.418  14.600
59600SOL    HW280634   5.549   6.292  14.666
59601SOL     OW80635   7.225   1.113  10.397
59601SOL    HW180636   7.312   1.116  10.437
59601SOL    HW280637   7.187   1.031  10.429
59602SOL     OW80638  12.565   4.393   3.137
59602SOL    HW180639  12.615   4.410   3.216
59602SOL    HW280640  12.544   4.480   3.102
59603SOL     OW80641   8.173   5.140   8.943
59603SOL    HW180642   8.151   5.176   8.857
59603SOL    HW280643   8.253   5.090   8.928
59604SOL     OW80644   9.093  13.911  11.748
59604SOL    HW180645   9.151  13.835  11.738
59604SOL    HW280646   9.151  13.986  11.739
59605SOL     OW80647   8.199   4.325   6.473
59605SOL    HW180648   8.267   4.267   6.509
59605SOL    HW280649   8.118   4.294   6.513
59606SOL     OW80650  14.848  13.294   4.053
59606SOL    HW180651   0.060  13.294   4.008
59606SOL    HW280652  14.788  13.337   3.992
59607SOL     OW80653   0.124   8.724  10.195
59607SOL    HW180654   0.104   8.818  10.200
59607SOL    HW280655   0.206   8.720  10.145
59608SOL     OW80656   0.128  12.665  10.320
59608SOL    HW180657   0.116  12.576  10.352
59608SOL    HW280658   0.191  12.704  10.381
59609SOL     OW80659  10.670   1.809  13.869
59609SOL    HW180660  10.679   1.741  13.801
59609SOL    HW280661  10.626   1.882  13.824
59610SOL     OW80662   7.981   9.785  10.875
59610SOL    HW180663   7.921   9.829  10.816
59610SOL    HW280664   7.962   9.692  10.865
59611SOL     OW80665   1.902   1.411   4.830
59611SOL    HW180666   1.896   1.463   4.750
59611SOL    HW280667   1.994   1.384   4.834
59612SOL     OW80668   8.240  12.897  10.380
59612SOL    HW180669   8.201  12.816  10.414
59612SOL    HW280670   8.200  12.907  10.293
59613SOL     OW80671   0.403   1.036   2.338
59613SOL    HW180672   0.464   1.108   2.353
59613SOL    HW280673   0.336   1.073   2.281
59614SOL     OW80674  12.061   5.876   8.187
59614SOL    HW180675  12.062   5.950   8.126
59614SOL    HW280676  12.142   5.828   8.167
59615SOL     OW80677   3.119   2.719   4.979
59615SOL    HW180678   3.032   2.693   5.011
59615SOL    HW280679   3.103   2.799   4.929
59616SOL     OW80680   8.374   8.512   3.201
59616SOL    HW180681   8.395   8.461   3.122
59616SOL    HW280682   8.459   8.524   3.244
59617SOL     OW80683   1.174   9.392  11.528
59617SOL    HW180684   1.189   9.303  11.560
59617SOL    HW280685   1.141   9.381  11.439
59618SOL     OW80686   6.544  11.446   1.827
59618SOL    HW180687   6.461  11.486   1.802
59618SOL    HW280688   6.583  11.415   1.745
59619SOL     OW80689   6.983   3.277   7.799
59619SOL    HW180690   7.033   3.205   7.838
59619SOL    HW280691   6.894   3.266   7.835
59620SOL     OW80692  10.439   3.418   7.192
59620SOL    HW180693  10.525   3.408   7.233
59620SOL    HW280694  10.381   3.444   7.263
59621SOL     OW80695   3.146   4.185   7.905
59621SOL    HW180696   3.168   4.128   7.831
59621SOL    HW280697   3.066   4.229   7.878
59622SOL     OW80698  13.599   3.870   8.569
59622SOL    HW180699  13.665   3.914   8.623
59622SOL    HW280700  13.517   3.913   8.592
59623SOL     OW80701  11.707   5.661   6.918
59623SOL    HW180702  11.708   5.672   6.823
59623SOL    HW280703  11.726   5.568   6.932
59624SOL     OW80704  11.196  11.333   6.614
59624SOL    HW180705  11.283  11.292   6.615
59624SOL    HW280706  11.184  11.366   6.702
59625SOL     OW80707   5.764  11.328  12.559
59625SOL    HW180708   5.846  11.286  12.534
59625SOL    HW280709   5.716  11.337  12.477
59626SOL     OW80710   1.633  14.025   9.191
59626SOL    HW180711   1.616  14.016   9.098
59626SOL    HW280712   1.553  14.063   9.227
59627SOL     OW80713   7.844   4.918  14.189
59627SOL    HW180714   7.866   5.011  14.181
59627SOL    HW280715   7.870   4.879  14.105
59628SOL     OW80716  13.154   7.443   7.283
59628SOL    HW180717  13.103   7.388   7.341
59628SOL    HW280718  13.216   7.383   7.241
59629SOL     OW80719   1.957   6.554  12.302
59629SOL    HW180720   1.927   6.464  12.319
59629SOL    HW280721   2.015   6.574  12.376
59630SOL     OW80722   7.865   4.695   5.593
59630SOL    HW180723   7.811   4.633   5.543
59630SOL    HW280724   7.944   4.645   5.616
59631SOL     OW80725   6.643   4.419  12.766
59631SOL    HW180726   6.623   4.380  12.681
59631SOL    HW280727   6.574   4.388  12.824
59632SOL     OW80728  11.875   3.441   2.291
59632SOL    HW180729  11.834   3.509   2.344
59632SOL    HW280730  11.961   3.476   2.268
59633SOL     OW80731   0.806   8.254   6.057
59633SOL    HW180732   0.737   8.321   6.056
59633SOL    HW280733   0.877   8.294   6.107
59634SOL     OW80734   1.512   1.754   5.856
59634SOL    HW180735   1.460   1.705   5.793
59634SOL    HW280736   1.551   1.687   5.912
59635SOL     OW80737  12.651   1.855   9.832
59635SOL    HW180738  12.582   1.816   9.886
59635SOL    HW280739  12.711   1.782   9.815
59636SOL     OW80740   2.435   7.125  10.413
59636SOL    HW180741   2.484   7.198  10.451
59636SOL    HW280742   2.502   7.070  10.373
59637SOL     OW80743   7.749   6.942   7.450
59637SOL    HW180744   7.657   6.966   7.438
59637SOL    HW280745   7.763   6.869   7.391
59638SOL     OW80746   6.642  10.812   6.696
59638SOL    HW180747   6.644  10.737   6.637
59638SOL    HW280748   6.551  10.841   6.697
59639SOL     OW80749   4.345   1.131  10.050
59639SOL    HW180750   4.351   1.041  10.019
59639SOL    HW280751   4.311   1.180   9.975
59640SOL     OW80752   6.027   3.948   4.011
59640SOL    HW180753   5.969   4.012   4.052
59640SOL    HW280754   6.102   3.999   3.980
59641SOL     OW80755   3.920   3.485   1.689
59641SOL    HW180756   3.828   3.467   1.673
59641SOL    HW280757   3.961   3.482   1.602
59642SOL     OW80758  11.780   5.776  13.371
59642SOL    HW180759  11.741   5.863  13.380
59642SOL    HW280760  11.744   5.742  13.289
59643SOL     OW80761  11.314   2.813  10.912
59643SOL    HW180762  11.229   2.822  10.955
59643SOL    HW280763  11.297   2.755  10.838
59644SOL     OW80764   9.993  11.516   2.186
59644SOL    HW180765   9.955  11.519   2.273
59644SOL    HW280766  10.046  11.436   2.186
59645SOL     OW80767   0.903   6.054   2.739
59645SOL    HW180768   0.925   6.019   2.652
59645SOL    HW280769   0.894   6.148   2.725
59646SOL     OW80770  10.930   4.153   7.911
59646SOL    HW180771  10.952   4.081   7.970
59646SOL    HW280772  10.971   4.230   7.951
59647SOL     OW80773   1.094   9.227   5.120
59647SOL    HW180774   1.018   9.191   5.074
59647SOL    HW280775   1.143   9.273   5.051
59648SOL     OW80776   3.423   3.644   3.405
59648SOL    HW180777   3.341   3.634   3.356
59648SOL    HW280778   3.456   3.555   3.415
59649SOL     OW80779   1.362   2.937   7.878
59649SOL    HW180780   1.432   2.873   7.892
59649SOL    HW280781   1.346   2.935   7.784
59650SOL     OW80782   0.379   8.636   8.873
59650SOL    HW180783   0.336   8.720   8.887
59650SOL    HW280784   0.426   8.620   8.955
59651SOL     OW80785   7.517   5.347  11.021
59651SOL    HW180786   7.436   5.391  11.046
59651SOL    HW280787   7.490   5.258  10.998
59652SOL     OW80788   3.242   8.620   7.862
59652SOL    HW180789   3.276   8.584   7.780
59652SOL    HW280790   3.244   8.546   7.923
59653SOL     OW80791  11.779   3.300   1.308
59653SOL    HW180792  11.708   3.238   1.291
59653SOL    HW280793  11.858   3.246   1.303
59654SOL     OW80794   4.551   3.607   0.781
59654SOL    HW180795   4.469   3.565   0.754
59654SOL    HW280796   4.607   3.534   0.807
59655SOL     OW80797  14.103   4.393   8.649
59655SOL    HW180798  14.058   4.459   8.701
59655SOL    HW280799  14.071   4.309   8.684
59656SOL     OW80800  12.830   9.400   1.800
59656SOL    HW180801  12.837   9.491   1.829
59656SOL    HW280802  12.743   9.393   1.761
59657SOL     OW80803   4.200   3.451   2.444
59657SOL    HW180804   4.289   3.469   2.412
59657SOL    HW280805   4.155   3.535   2.435
59658SOL     OW80806   7.988   2.905   6.932
59658SOL    HW180807   8.066   2.938   6.887
59658SOL    HW280808   7.930   2.980   6.939
59659SOL     OW80809  14.526  10.282  11.360
59659SOL    HW180810  14.467  10.351  11.388
59659SOL    HW280811  14.527  10.287  11.264
59660SOL     OW80812   1.796   4.408   4.436
59660SOL    HW180813   1.751   4.483   4.398
59660SOL    HW280814   1.866   4.447   4.489
59661SOL     OW80815   7.373   2.196   3.519
59661SOL    HW180816   7.334   2.283   3.529
59661SOL    HW280817   7.444   2.209   3.457
59662SOL     OW80818   6.752  12.751   5.730
59662SOL    HW180819   6.674  12.780   5.683
59662SOL    HW280820   6.774  12.667   5.690
59663SOL     OW80821  10.645   2.444  11.699
59663SOL    HW180822  10.563   2.480  11.665
59663SOL    HW280823  10.656   2.485  11.785
59664SOL     OW80824   7.200  10.337  13.920
59664SOL    HW180825   7.283  10.292  13.903
59664SOL    HW280826   7.159  10.288  13.991
59665SOL     OW80827   9.310   2.129   4.599
59665SOL    HW180828   9.335   2.065   4.666
59665SOL    HW280829   9.394   2.165   4.569
59666SOL     OW80830   6.349  10.252   1.165
59666SOL    HW180831   6.396  10.268   1.247
59666SOL    HW280832   6.277  10.315   1.166
59667SOL     OW80833   6.953   0.808   2.305
59667SOL    HW180834   7.030   0.752   2.298
59667SOL    HW280835   6.906   0.796   2.222
59668SOL     OW80836   8.741   2.157  12.223
59668SOL    HW180837   8.659   2.109  12.234
59668SOL    HW280838   8.792   2.104  12.162
59669SOL     OW80839   3.144   7.388   1.712
59669SOL    HW180840   3.164   7.481   1.725
59669SOL    HW280841   3.090   7.365   1.788
59670SOL     OW80842   3.119   0.012  13.704
59670SOL    HW180843   3.119   0.062  13.622
59670SOL    HW280844   3.035   0.033  13.745
59671SOL     OW80845  13.182  14.507   2.337
59671SOL    HW180846  13.221  14.420   2.351
59671SOL    HW280847  13.236  14.547   2.269
59672SOL     OW80848   0.185   3.016   1.918
59672SOL    HW180849   0.108   2.972   1.882
59672SOL    HW280850   0.152   3.062   1.996
59673SOL     OW80851   4.390   9.461  11.937
59673SOL    HW180852   4.416   9.553  11.930
59673SOL    HW280853   4.323   9.449  11.870
59674SOL     OW80854  13.735   1.818   6.028
59674SOL    HW180855  13.790   1.883   6.073
59674SOL    HW280856  13.791   1.785   5.958
59675SOL     OW80857   7.745   2.446   7.421
59675SOL    HW180858   7.702   2.432   7.505
59675SOL    HW280859   7.812   2.512   7.438
59676SOL     OW80860   3.891   1.186   5.018
59676SOL    HW180861   3.951   1.182   4.944
59676SOL    HW280862   3.925   1.258   5.072
59677SOL     OW80863   7.775  10.021   0.056
59677SOL    HW180864   7.739  10.102   0.022
59677SOL    HW280865   7.869  10.028   0.042
59678SOL     OW80866   8.713   3.741   1.312
59678SOL    HW180867   8.787   3.749   1.252
59678SOL    HW280868   8.739   3.794   1.388
59679SOL     OW80869   7.791   3.330   7.873
59679SOL    HW180870   7.838   3.379   7.805
59679SOL    HW280871   7.785   3.390   7.947
59680SOL     OW80872  10.757   7.019   5.203
59680SOL    HW180873  10.747   7.062   5.288
59680SOL    HW280874  10.790   7.087   5.145
59681SOL     OW80875   2.810   0.705   0.059
59681SOL    HW180876   2.886   0.763   0.052
59681SOL    HW280877   2.842   0.619   0.033
59682SOL     OW80878  13.666   6.169   6.920
59682SOL    HW180879  13.744   6.118   6.942
59682SOL    HW280880  13.593   6.117   6.955
59683SOL     OW80881  13.208   0.293   4.422
59683SOL    HW180882  13.125   0.340   4.435
59683SOL    HW280883  13.254   0.305   4.505
59684SOL     OW80884  12.998  10.877   9.922
59684SOL    HW180885  12.959  10.893  10.008
59684SOL    HW280886  12.925  10.846   9.868
59685SOL     OW80887   6.953  11.974  11.866
59685SOL    HW180888   6.896  11.928  11.928
59685SOL    HW280889   6.912  12.059  11.852
59686SOL     OW80890   5.997  10.699  13.728
59686SOL    HW180891   5.965  10.671  13.813
59686SOL    HW280892   6.003  10.618  13.677
59687SOL     OW80893   1.083  14.583   1.806
59687SOL    HW180894   0.994  14.610   1.827
59687SOL    HW280895   1.136  14.662   1.822
59688SOL     OW80896   7.020   4.850  10.065
59688SOL    HW180897   7.107   4.840  10.025
59688SOL    HW280898   6.985   4.930  10.026
59689SOL     OW80899   4.243   9.644  12.136
59689SOL    HW180900   4.288   9.560  12.132
59689SOL    HW280901   4.293   9.702  12.079
59690SOL     OW80902  12.370   9.930   0.245
59690SOL    HW180903  12.407   9.891   0.166
59690SOL    HW280904  12.429   9.902   0.316
59691SOL     OW80905   1.750  11.960   3.080
59691SOL    HW180906   1.702  12.020   3.023
59691SOL    HW280907   1.732  11.990   3.169
59692SOL     OW80908   1.955   2.731  12.706
59692SOL    HW180909   1.940   2.669  12.777
59692SOL    HW280910   1.909   2.810  12.733
59693SOL     OW80911  14.413   2.660   8.830
59693SOL    HW180912  14.480   2.652   8.762
59693SOL    HW280913  14.460   2.649   8.912
59694SOL     OW80914   8.933   3.189   2.775
59694SOL    HW180915   8.975   3.237   2.703
59694SOL    HW280916   9.000   3.185   2.843
59695SOL     OW80917  13.552   3.737   0.372
59695SOL    HW180918  13.628   3.688   0.339
59695SOL    HW280919  13.531   3.696   0.456
59696SOL     OW80920   8.549   7.638  10.425
59696SOL    HW180921   8.593   7.714  10.386
59696SOL    HW280922   8.619   7.574  10.437
59697SOL     OW80923  13.318   2.585  13.170
59697SOL    HW180924  13.312   2.631  13.087
59697SOL    HW280925  13.412   2.574  13.185
59698SOL     OW80926   7.785  13.311  11.656
59698SOL    HW180927   7.788  13.218  11.632
59698SOL    HW280928   7.791  13.357  11.572
59699SOL     OW80929  13.427   4.375   6.688
59699SOL    HW180930  13.483   4.302   6.661
59699SOL    HW280931  13.488   4.443   6.716
59700SOL     OW80932   2.463   8.075   9.367
59700SOL    HW180933   2.518   8.009   9.324
59700SOL    HW280934   2.524   8.138   9.403
59701SOL     OW80935   7.702   9.437   2.302
59701SOL    HW180936   7.796   9.451   2.314
59701SOL    HW280937   7.675   9.385   2.378
59702SOL     OW80938   0.567   3.155   2.534
59702SOL    HW180939   0.587   3.248   2.545
59702SOL    HW280940   0.472   3.151   2.523
59703SOL     OW80941   3.090  11.654  14.383
59703SOL    HW180942   3.133  11.610  14.310
59703SOL    HW280943   3.162  11.681  14.440
59704SOL     OW80944  13.863   3.264   8.223
59704SOL    HW180945  13.773   3.232   8.220
59704SOL    HW280946  13.876   3.308   8.139
59705SOL     OW80947   3.679  12.569   2.692
59705SOL    HW180948   3.627  12.532   2.763
59705SOL    HW280949   3.754  12.510   2.683
59706SOL     OW80950   4.745  12.252  12.196
59706SOL    HW180951   4.791  12.324  12.152
59706SOL    HW280952   4.797  12.234  12.274
59707SOL     OW80953   0.504   4.324   7.956
59707SOL    HW180954   0.472   4.414   7.960
59707SOL    HW280955   0.497   4.301   7.863
59708SOL     OW80956   1.015   7.765  13.821
59708SOL    HW180957   0.933   7.802  13.854
59708SOL    HW280958   1.008   7.772  13.726
59709SOL     OW80959  11.400   7.586   2.190
59709SOL    HW180960  11.337   7.647   2.152
59709SOL    HW280961  11.460   7.566   2.117
59710SOL     OW80962   6.754   1.949   0.984
59710SOL    HW180963   6.668   1.916   1.010
59710SOL    HW280964   6.735   2.014   0.916
59711SOL     OW80965   2.888  13.858  14.849
59711SOL    HW180966   2.921  13.803   0.047
59711SOL    HW280967   2.878  13.797  14.775
59712SOL     OW80968   5.155   7.098  13.604
59712SOL    HW180969   5.126   7.121  13.692
59712SOL    HW280970   5.249   7.084  13.613
59713SOL     OW80971  13.648   2.339  12.781
59713SOL    HW180972  13.703   2.371  12.709
59713SOL    HW280973  13.709   2.296  12.840
59714SOL     OW80974  14.102   5.588   8.283
59714SOL    HW180975  14.106   5.494   8.264
59714SOL    HW280976  14.112   5.630   8.198
59715SOL     OW80977   6.858   3.429  11.361
59715SOL    HW180978   6.921   3.426  11.289
59715SOL    HW280979   6.807   3.508  11.345
59716SOL     OW80980  14.175  11.672  12.725
59716SOL    HW180981  14.262  11.711  12.726
59716SOL    HW280982  14.190  11.578  12.722
59717SOL     OW80983   2.999   3.275   2.886
59717SOL    HW180984   2.924   3.317   2.930
59717SOL    HW280985   3.069   3.340   2.891
59718SOL     OW80986   2.729   5.724  10.818
59718SOL    HW180987   2.770   5.789  10.874
59718SOL    HW280988   2.779   5.644  10.834
59719SOL     OW80989   1.287   2.556   0.737
59719SOL    HW180990   1.255   2.543   0.826
59719SOL    HW280991   1.226   2.618   0.698
59720SOL     OW80992  13.328   9.093   2.937
59720SOL    HW180993  13.277   9.018   2.906
59720SOL    HW280994  13.359   9.067   3.024
59721SOL     OW80995  10.272   4.281   4.841
59721SOL    HW180996  10.311   4.356   4.886
59721SOL    HW280997  10.235   4.318   4.761
59722SOL     OW80998  13.602  13.686  11.057
59722SOL    HW180999  13.693  13.708  11.039
59722SOL    HW281000  13.589  13.601  11.016
59723SOL     OW81001  10.846   0.752   6.729
59723SOL    HW181002  10.864   0.719   6.817
59723SOL    HW281003  10.807   0.678   6.683
59724SOL     OW81004   5.957  11.582   1.041
59724SOL    HW181005   5.993  11.510   0.989
59724SOL    HW281006   6.033  11.628   1.075
59725SOL     OW81007   7.615  12.726  10.353
59725SOL    HW181008   7.699  12.697  10.318
59725SOL    HW281009   7.551  12.667  10.314
59726SOL     OW81010   5.937  14.772   5.533
59726SOL    HW181011   5.995  14.724   5.474
59726SOL    HW281012   5.849  14.755   5.500
59727SOL     OW81013   2.394  13.083   5.075
59727SOL    HW181014   2.402  13.164   5.024
59727SOL    HW281015   2.305  13.087   5.111
59728SOL     OW81016   4.465   6.447  10.722
59728SOL    HW181017   4.559   6.447  10.706
59728SOL    HW281018   4.455   6.492  10.806
59729SOL     OW81019   8.025  13.872  11.914
59729SOL    HW181020   7.956  13.937  11.924
59729SOL    HW281021   8.106  13.922  11.928
59730SOL     OW81022  14.234  14.828   4.575
59730SOL    HW181023  14.152  14.782   4.594
59730SOL    HW281024  14.260  14.796   4.489
59731SOL     OW81025   1.319   0.294  11.964
59731SOL    HW181026   1.230   0.293  12.001
59731SOL    HW281027   1.369   0.351  12.022
59732SOL     OW81028   9.414  12.527   9.903
59732SOL    HW181029   9.504  12.556   9.888
59732SOL    HW281030   9.403  12.451   9.846
59733SOL     OW81031   6.243  14.395  14.609
59733SOL    HW181032   6.156  14.357  14.612
59733SOL    HW281033   6.295  14.340  14.668
59734SOL     OW81034   5.762  10.763   2.788
59734SOL    HW181035   5.749  10.813   2.868
59734SOL    HW281036   5.731  10.675   2.810
59735SOL     OW81037   6.627  13.499   1.094
59735SOL    HW181038   6.566  13.434   1.130
59735SOL    HW281039   6.618  13.575   1.152
59736SOL     OW81040   0.859  11.235   0.875
59736SOL    HW181041   0.875  11.272   0.788
59736SOL    HW281042   0.764  11.241   0.886
59737SOL     OW81043   9.033   2.399   9.592
59737SOL    HW181044   8.950   2.388   9.547
59737SOL    HW281045   9.009   2.412   9.684
59738SOL     OW81046  13.463   8.344   6.075
59738SOL    HW181047  13.521   8.269   6.058
59738SOL    HW281048  13.391   8.332   6.014
59739SOL     OW81049   2.401   7.433   4.202
59739SOL    HW181050   2.468   7.489   4.241
59739SOL    HW281051   2.348   7.404   4.276
59740SOL     OW81052   7.472   9.108  10.019
59740SOL    HW181053   7.414   9.036   9.996
59740SOL    HW281054   7.452   9.177   9.956
59741SOL     OW81055  13.900   7.348   4.176
59741SOL    HW181056  13.843   7.369   4.251
59741SOL    HW281057  13.964   7.286   4.211
59742SOL     OW81058   9.565  12.866  11.254
59742SOL    HW181059   9.505  12.821  11.313
59742SOL    HW281060   9.564  12.814  11.174
59743SOL     OW81061  10.753   2.143  11.469
59743SOL    HW181062  10.708   2.157  11.553
59743SOL    HW281063  10.845   2.137  11.492
59744SOL     OW81064   7.982  12.709   5.005
59744SOL    HW181065   8.077  12.720   5.005
59744SOL    HW281066   7.967  12.626   5.050
59745SOL     OW81067   6.781   4.910   6.582
59745SOL    HW181068   6.836   4.985   6.605
59745SOL    HW281069   6.832   4.833   6.607
59746SOL     OW81070   6.643  12.259  10.408
59746SOL    HW181071   6.619  12.285  10.497
59746SOL    HW281072   6.561  12.232  10.367
59747SOL     OW81073   5.588   8.663   1.432
59747SOL    HW181074   5.649   8.719   1.384
59747SOL    HW281075   5.522   8.724   1.466
59748SOL     OW81076   5.850  11.425   4.162
59748SOL    HW181077   5.882  11.360   4.100
59748SOL    HW281078   5.888  11.507   4.132
59749SOL     OW81079  11.317   9.427   4.092
59749SOL    HW181080  11.333   9.334   4.106
59749SOL    HW281081  11.235   9.430   4.041
59750SOL     OW81082   9.976  13.482   8.329
59750SOL    HW181083  10.045  13.493   8.264
59750SOL    HW281084   9.921  13.560   8.319
59751SOL     OW81085  12.505   4.237   5.402
59751SOL    HW181086  12.467   4.202   5.482
59751SOL    HW281087  12.442   4.303   5.372
59752SOL     OW81088   9.800   2.756   5.547
59752SOL    HW181089   9.708   2.781   5.553
59752SOL    HW281090   9.848   2.834   5.575
59753SOL     OW81091   8.060  12.488   5.257
59753SOL    HW181092   8.014  12.564   5.292
59753SOL    HW281093   8.107  12.451   5.332
59754SOL     OW81094   7.204   6.669   0.441
59754SOL    HW181095   7.265   6.680   0.514
59754SOL    HW281096   7.123   6.712   0.470
59755SOL     OW81097  10.808   7.761   9.055
59755SOL    HW181098  10.829   7.720   8.971
59755SOL    HW281099  10.821   7.854   9.039
59756SOL     OW81100   9.232   5.442   7.277
59756SOL    HW181101   9.305   5.427   7.217
59756SOL    HW281102   9.259   5.517   7.330
59757SOL     OW81103  14.011   6.030   4.157
59757SOL    HW181104  13.985   5.987   4.076
59757SOL    HW281105  13.976   6.119   4.150
59758SOL     OW81106  11.469   6.435  12.052
59758SOL    HW181107  11.504   6.476  11.973
59758SOL    HW281108  11.394   6.490  12.076
59759SOL     OW81109   4.736   3.618   5.769
59759SOL    HW181110   4.645   3.604   5.742
59759SOL    HW281111   4.733   3.617   5.865
59760SOL     OW81112   0.696   0.737  12.185
59760SOL    HW181113   0.782   0.769  12.212
59760SOL    HW281114   0.699   0.738  12.089
59761SOL     OW81115   6.428   3.237   2.158
59761SOL    HW181116   6.371   3.173   2.203
59761SOL    HW281117   6.438   3.202   2.070
59762SOL     OW81118   9.853   4.976   3.025
59762SOL    HW181119   9.924   5.007   2.969
59762SOL    HW281120   9.774   5.009   2.983
59763SOL     OW81121  12.046   4.532   8.577
59763SOL    HW181122  12.064   4.438   8.573
59763SOL    HW281123  12.133   4.572   8.584
59764SOL     OW81124   9.142  14.811   4.513
59764SOL    HW181125   9.185  14.776   4.436
59764SOL    HW281126   9.212  14.853   4.563
59765SOL     OW81127  14.058   4.121   8.653
59765SOL    HW181128  14.093   4.134   8.565
59765SOL    HW281129  14.087   4.034   8.678
59766SOL     OW81130   7.765   5.964  12.632
59766SOL    HW181131   7.754   6.042  12.687
59766SOL    HW281132   7.713   5.982  12.554
59767SOL     OW81133   0.721   7.346   5.416
59767SOL    HW181134   0.804   7.362   5.371
59767SOL    HW281135   0.655   7.389   5.360
59768SOL     OW81136  10.487   3.336   5.921
59768SOL    HW181137  10.551   3.398   5.884
59768SOL    HW281138  10.422   3.325   5.852
59769SOL     OW81139   3.185   2.538  12.530
59769SOL    HW181140   3.113   2.516  12.470
59769SOL    HW281141   3.192   2.463  12.588
59770SOL     OW81142   5.229   1.406   6.407
59770SOL    HW181143   5.143   1.374   6.379
59770SOL    HW281144   5.228   1.499   6.387
59771SOL     OW81145   1.813   9.797   0.507
59771SOL    HW181146   1.759   9.876   0.504
59771SOL    HW281147   1.870   9.804   0.430
59772SOL     OW81148   5.697   1.034   4.412
59772SOL    HW181149   5.666   1.021   4.323
59772SOL    HW281150   5.759   1.107   4.405
59773SOL     OW81151   1.398   5.639  12.694
59773SOL    HW181152   1.412   5.630  12.600
59773SOL    HW281153   1.483   5.619  12.733
59774SOL     OW81154  13.253   9.034   9.336
59774SOL    HW181155  13.189   9.098   9.303
59774SOL    HW281156  13.338   9.069   9.308
59775SOL     OW81157   0.060   3.419  13.292
59775SOL    HW181158  14.864   3.486  13.296
59775SOL    HW281159   0.017   3.343  13.251
59776SOL     OW81160   6.636   7.418   6.531
59776SOL    HW181161   6.725   7.445   6.508
59776SOL    HW281162   6.597   7.496   6.571
59777SOL     OW81163   0.302   1.031   3.629
59777SOL    HW181164   0.306   0.935   3.637
59777SOL    HW281165   0.315   1.063   3.718
59778SOL     OW81166   0.527   3.878   7.370
59778SOL    HW181167   0.486   3.801   7.410
59778SOL    HW281168   0.493   3.952   7.420
59779SOL     OW81169  10.424  14.534   7.284
59779SOL    HW181170  10.353  14.510   7.343
59779SOL    HW281171  10.487  14.462   7.291
59780SOL     OW81172   7.686   1.893   6.127
59780SOL    HW181173   7.622   1.821   6.128
59780SOL    HW281174   7.752   1.865   6.064
59781SOL     OW81175   5.577   6.129   2.922
59781SOL    HW181176   5.518   6.083   2.982
59781SOL    HW281177   5.576   6.075   2.843
59782SOL     OW81178  10.961   4.455   1.194
59782SOL    HW181179  10.894   4.394   1.163
59782SOL    HW281180  11.021   4.463   1.120
59783SOL     OW81181   6.887   6.477   6.602
59783SOL    HW181182   6.887   6.388   6.567
59783SOL    HW281183   6.822   6.475   6.672
59784SOL     OW81184   4.747  13.753  12.845
59784SOL    HW181185   4.829  13.750  12.894
59784SOL    HW281186   4.759  13.822  12.781
59785SOL     OW81187  12.794   0.608  14.332
59785SOL    HW181188  12.834   0.618  14.419
59785SOL    HW281189  12.745   0.689  14.318
59786SOL     OW81190   5.843  11.451  12.795
59786SOL    HW181191   5.812  11.421  12.880
59786SOL    HW281192   5.792  11.401  12.732
59787SOL     OW81193  14.264  12.783  13.505
59787SOL    HW181194  14.182  12.735  13.515
59787SOL    HW281195  14.293  12.762  13.416
59788SOL     OW81196   6.263  10.437  12.545
59788SOL    HW181197   6.240  10.346  12.526
59788SOL    HW281198   6.238  10.485  12.466
59789SOL     OW81199   4.901   3.328   7.699
59789SOL    HW181200   4.825   3.284   7.738
59789SOL    HW281201   4.949   3.258   7.654
59790SOL     OW81202   1.576   5.707  12.165
59790SOL    HW181203   1.583   5.618  12.201
59790SOL    HW281204   1.592   5.764  12.240
59791SOL     OW81205   7.725   0.924   0.417
59791SOL    HW181206   7.712   0.856   0.351
59791SOL    HW281207   7.650   0.982   0.406
59792SOL     OW81208   5.185  14.512  12.649
59792SOL    HW181209   5.263  14.566  12.659
59792SOL    HW281210   5.201  14.436  12.705
59793SOL     OW81211   8.278   4.978   4.700
59793SOL    HW181212   8.258   5.066   4.732
59793SOL    HW281213   8.351   4.949   4.754
59794SOL     OW81214   2.035   2.515   7.496
59794SOL    HW181215   1.995   2.484   7.415
59794SOL    HW281216   2.059   2.606   7.479
59795SOL     OW81217   7.499   6.467   8.846
59795SOL    HW181218   7.469   6.553   8.816
59795SOL    HW281219   7.505   6.476   8.941
59796SOL     OW81220   1.398  12.648   3.310
59796SOL    HW181221   1.467  12.588   3.336
59796SOL    HW281222   1.400  12.717   3.375
59797SOL     OW81223   0.269   2.461  12.887
59797SOL    HW181224   0.323   2.507  12.950
59797SOL    HW281225   0.183   2.504  12.892
59798SOL     OW81226   5.017   0.501   8.324
59798SOL    HW181227   5.010   0.436   8.394
59798SOL    HW281228   5.108   0.495   8.296
59799SOL     OW81229   8.707   3.105   2.068
59799SOL    HW181230   8.642   3.117   2.137
59799SOL    HW281231   8.791   3.104   2.114
59800SOL     OW81232  11.739   7.420   1.980
59800SOL    HW181233  11.747   7.514   1.965
59800SOL    HW281234  11.819   7.382   1.943
59801SOL     OW81235   5.825   6.059   8.941
59801SOL    HW181236   5.770   6.006   8.999
59801SOL    HW281237   5.887   5.997   8.904
59802SOL     OW81238   5.712  10.420   4.070
59802SOL    HW181239   5.654  10.406   4.145
59802SOL    HW281240   5.717  10.516   4.061
59803SOL     OW81241   7.939   6.670   8.874
59803SOL    HW181242   7.932   6.670   8.969
59803SOL    HW281243   7.949   6.578   8.850
59804SOL     OW81244   9.794  13.024  12.320
59804SOL    HW181245   9.736  13.097  12.341
59804SOL    HW281246   9.879  13.049  12.356
59805SOL     OW81247   1.559   5.022  14.352
59805SOL    HW181248   1.638   4.969  14.355
59805SOL    HW281249   1.562   5.065  14.266
59806SOL     OW81250   8.895   5.079   5.610
59806SOL    HW181251   8.975   5.123   5.640
59806SOL    HW281252   8.838   5.150   5.580
59807SOL     OW81253  14.499  10.616   9.281
59807SOL    HW181254  14.415  10.572   9.292
59807SOL    HW281255  14.477  10.700   9.240
59808SOL     OW81256   2.801   6.085   6.928
59808SOL    HW181257   2.792   6.172   6.967
59808SOL    HW281258   2.780   6.097   6.835
59809SOL     OW81259   7.597  11.991   4.641
59809SOL    HW181260   7.583  12.076   4.682
59809SOL    HW281261   7.509  11.961   4.617
59810SOL     OW81262   6.529   2.066   4.807
59810SOL    HW181263   6.507   2.013   4.884
59810SOL    HW281264   6.455   2.055   4.749
59811SOL     OW81265  12.679   1.155   5.266
59811SOL    HW181266  12.681   1.073   5.217
59811SOL    HW281267  12.771   1.179   5.277
59812SOL     OW81268   1.185   3.740  11.536
59812SOL    HW181269   1.109   3.749  11.592
59812SOL    HW281270   1.257   3.716  11.595
59813SOL     OW81271   6.705   4.641   2.100
59813SOL    HW181272   6.731   4.620   2.189
59813SOL    HW281273   6.769   4.595   2.045
59814SOL     OW81274  13.233   6.142  12.077
59814SOL    HW181275  13.220   6.217  12.019
59814SOL    HW281276  13.217   6.065  12.022
59815SOL     OW81277  11.516   2.069  11.695
59815SOL    HW181278  11.530   2.151  11.648
59815SOL    HW281279  11.427   2.043  11.671
59816SOL     OW81280  11.523   4.147   6.906
59816SOL    HW181281  11.462   4.117   6.839
59816SOL    HW281282  11.474   4.214   6.954
59817SOL     OW81283   6.953  14.398   7.939
59817SOL    HW181284   7.037  14.392   7.985
59817SOL    HW281285   6.977  14.427   7.851
59818SOL     OW81286  12.839   5.527   0.973
59818SOL    HW181287  12.785   5.518   1.051
59818SOL    HW281288  12.919   5.478   0.992
59819SOL     OW81289   6.393   6.591   0.001
59819SOL    HW181290   6.324   6.658  14.868
59819SOL    HW281291   6.474   6.640  14.865
59820SOL     OW81292   1.160  11.346   8.826
59820SOL    HW181293   1.088  11.289   8.797
59820SOL    HW281294   1.229  11.286   8.853
59821SOL     OW81295   8.376   0.386   2.991
59821SOL    HW181296   8.287   0.362   3.020
59821SOL    HW281297   8.419   0.302   2.975
59822SOL     OW81298  13.312   2.729  12.945
59822SOL    HW181299  13.400   2.702  12.921
59822SOL    HW281300  13.287   2.790  12.875
59823SOL     OW81301   1.072   7.690  11.687
59823SOL    HW181302   1.166   7.697  11.704
59823SOL    HW281303   1.032   7.747  11.753
59824SOL     OW81304  12.423   1.653   0.077
59824SOL    HW181305  12.380   1.582   0.028
59824SOL    HW281306  12.421   1.624   0.168
59825SOL     OW81307   3.231  14.643  14.018
59825SOL    HW181308   3.269  14.587  13.951
59825SOL    HW281309   3.293  14.715  14.028
59826SOL     OW81310   3.109  11.280   5.934
59826SOL    HW181311   3.182  11.228   5.899
59826SOL    HW281312   3.147  11.366   5.950
59827SOL     OW81313   9.411   3.104   7.677
59827SOL    HW181314   9.373   3.166   7.615
59827SOL    HW281315   9.506   3.116   7.668
59828SOL     OW81316  12.222   9.777  10.434
59828SOL    HW181317  12.290   9.750  10.495
59828SOL    HW281318  12.270   9.816  10.361
59829SOL     OW81319  11.789   7.512   8.074
59829SOL    HW181320  11.712   7.568   8.070
59829SOL    HW281321  11.761   7.431   8.031
59830SOL     OW81322  13.120  14.451   4.745
59830SOL    HW181323  13.207  14.427   4.713
59830SOL    HW281324  13.095  14.528   4.694
59831SOL     OW81325   2.003  10.257  11.392
59831SOL    HW181326   1.974  10.344  11.367
59831SOL    HW281327   1.995  10.204  11.312
59832SOL     OW81328  12.816   9.752   4.759
59832SOL    HW181329  12.840   9.799   4.679
59832SOL    HW281330  12.783   9.668   4.727
59833SOL     OW81331   5.698   4.485   2.348
59833SOL    HW181332   5.751   4.565   2.354
59833SOL    HW281333   5.611   4.511   2.380
59834SOL     OW81334   2.718  12.821  12.876
59834SOL    HW181335   2.749  12.794  12.962
59834SOL    HW281336   2.788  12.793  12.816
59835SOL     OW81337  14.254   6.530  14.642
59835SOL    HW181338  14.336   6.526  14.691
59835SOL    HW281339  14.274   6.488  14.558
59836SOL     OW81340   9.336  14.742   5.137
59836SOL    HW181341   9.392  14.758   5.212
59836SOL    HW281342   9.261  14.800   5.150
59837SOL     OW81343   7.315  14.073   9.994
59837SOL    HW181344   7.313  14.107  10.083
59837SOL    HW281345   7.321  13.978  10.004
59838SOL     OW81346   8.403   4.781  11.215
59838SOL    HW181347   8.470   4.808  11.152
59838SOL    HW281348   8.411   4.686  11.219
59839SOL     OW81349   3.486   1.028  14.374
59839SOL    HW181350   3.462   1.105  14.426
59839SOL    HW281351   3.477   0.954  14.435
59840SOL     OW81352   2.073   9.729  12.848
59840SOL    HW181353   2.150   9.698  12.895
59840SOL    HW281354   2.097   9.722  12.755
59841SOL     OW81355   0.487   0.188   6.669
59841SOL    HW181356   0.398   0.224   6.668
59841SOL    HW281357   0.485   0.122   6.739
59842SOL     OW81358   1.494   5.391   0.699
59842SOL    HW181359   1.484   5.465   0.759
59842SOL    HW281360   1.481   5.429   0.612
59843SOL     OW81361   5.606   4.505   6.155
59843SOL    HW181362   5.605   4.601   6.153
59843SOL    HW281363   5.697   4.483   6.178
59844SOL     OW81364   7.122   3.883  13.947
59844SOL    HW181365   7.052   3.837  13.994
59844SOL    HW281366   7.186   3.904  14.015
59845SOL     OW81367   1.971   6.637   0.121
59845SOL    HW181368   2.023   6.633   0.201
59845SOL    HW281369   2.015   6.575   0.061
59846SOL     OW81370   7.120   4.819   4.616
59846SOL    HW181371   7.192   4.798   4.675
59846SOL    HW281372   7.145   4.779   4.533
59847SOL     OW81373  10.127   7.189  11.242
59847SOL    HW181374  10.134   7.099  11.273
59847SOL    HW281375  10.124   7.183  11.147
59848SOL     OW81376   9.798   0.709  10.694
59848SOL    HW181377   9.833   0.736  10.609
59848SOL    HW281378   9.708   0.741  10.695
59849SOL     OW81379  10.477   7.857   6.192
59849SOL    HW181380  10.516   7.873   6.278
59849SOL    HW281381  10.517   7.776   6.162
59850SOL     OW81382  12.137   6.422   5.621
59850SOL    HW181383  12.055   6.407   5.574
59850SOL    HW281384  12.181   6.490   5.570
59851SOL     OW81385  11.211  12.202  14.212
59851SOL    HW181386  11.294  12.162  14.184
59851SOL    HW281387  11.179  12.143  14.280
59852SOL     OW81388   2.590  14.423   2.040
59852SOL    HW181389   2.624  14.454   1.956
59852SOL    HW281390   2.516  14.481   2.059
59853SOL     OW81391   9.975   0.128   7.741
59853SOL    HW181392  10.012   0.118   7.829
59853SOL    HW281393  10.034   0.079   7.685
59854SOL     OW81394   3.961   0.029   8.362
59854SOL    HW181395   3.933  14.820   8.321
59854SOL    HW281396   3.980   0.087   8.288
59855SOL     OW81397   4.904  12.717   9.079
59855SOL    HW181398   4.878  12.695   8.990
59855SOL    HW281399   4.845  12.666   9.134
59856SOL     OW81400  13.939   4.837   8.740
59856SOL    HW181401  13.889   4.868   8.816
59856SOL    HW281402  13.983   4.916   8.707
59857SOL     OW81403   6.876  14.493   3.791
59857SOL    HW181404   6.918  14.541   3.862
59857SOL    HW281405   6.911  14.533   3.711
59858SOL     OW81406   3.366   5.450   7.681
59858SOL    HW181407   3.354   5.542   7.656
59858SOL    HW281408   3.380   5.404   7.598
59859SOL     OW81409   6.491  10.142  14.164
59859SOL    HW181410   6.519  10.058  14.128
59859SOL    HW281411   6.540  10.151  14.246
59860SOL     OW81412   9.893  11.129   6.244
59860SOL    HW181413   9.957  11.193   6.276
59860SOL    HW281414   9.940  11.045   6.248
59861SOL     OW81415  12.081   6.849   4.736
59861SOL    HW181416  12.012   6.865   4.801
59861SOL    HW281417  12.033   6.823   4.657
59862SOL     OW81418   8.861  14.437   0.277
59862SOL    HW181419   8.910  14.373   0.330
59862SOL    HW281420   8.824  14.498   0.341
59863SOL     OW81421   7.686   1.054   8.903
59863SOL    HW181422   7.641   1.026   8.823
59863SOL    HW281423   7.619   1.103   8.952
59864SOL     OW81424   3.976   0.077   3.778
59864SOL    HW181425   4.005   0.136   3.708
59864SOL    HW281426   4.057   0.055   3.825
59865SOL     OW81427   7.598   8.624   7.289
59865SOL    HW181428   7.625   8.591   7.204
59865SOL    HW281429   7.586   8.718   7.276
59866SOL     OW81430   8.121   1.353   8.335
59866SOL    HW181431   8.093   1.308   8.256
59866SOL    HW281432   8.130   1.445   8.309
59867SOL     OW81433   9.818   3.985   3.121
59867SOL    HW181434   9.793   3.988   3.213
59867SOL    HW281435   9.904   4.026   3.117
59868SOL     OW81436   2.737   1.634   3.573
59868SOL    HW181437   2.798   1.563   3.553
59868SOL    HW281438   2.789   1.714   3.561
59869SOL     OW81439   0.537   4.203   2.371
59869SOL    HW181440   0.566   4.190   2.461
59869SOL    HW281441   0.527   4.298   2.363
59870SOL     OW81442   4.742  14.560   2.751
59870SOL    HW181443   4.656  14.566   2.794
59870SOL    HW281444   4.803  14.538   2.821
59871SOL     OW81445   3.311  13.152  12.705
59871SOL    HW181446   3.242  13.204  12.665
59871SOL    HW281447   3.301  13.065  12.664
59872SOL     OW81448   5.420   4.002  11.041
59872SOL    HW181449   5.372   4.001  11.123
59872SOL    HW281450   5.354   4.018  10.974
59873SOL     OW81451  10.145   3.113   5.953
59873SOL    HW181452  10.049   3.120   5.955
59873SOL    HW281453  10.173   3.183   5.895
59874SOL     OW81454   1.528   2.670  11.387
59874SOL    HW181455   1.509   2.715  11.469
59874SOL    HW281456   1.558   2.583  11.413
59875SOL     OW81457   2.332   0.621   3.562
59875SOL    HW181458   2.315   0.593   3.652
59875SOL    HW281459   2.339   0.539   3.513
59876SOL     OW81460  11.588   5.120   2.960
59876SOL    HW181461  11.517   5.096   3.020
59876SOL    HW281462  11.655   5.054   2.976
59877SOL     OW81463  14.621  13.925   2.317
59877SOL    HW181464  14.698  13.909   2.262
59877SOL    HW281465  14.561  13.855   2.293
59878SOL     OW81466   8.832  10.747  13.758
59878SOL    HW181467   8.842  10.841  13.749
59878SOL    HW281468   8.744  10.728  13.726
59879SOL     OW81469   6.840   5.394   2.001
59879SOL    HW181470   6.860   5.310   1.960
59879SOL    HW281471   6.746   5.404   1.989
59880SOL     OW81472   7.454  11.969  10.106
59880SOL    HW181473   7.504  11.965  10.024
59880SOL    HW281474   7.363  11.972  10.078
59881SOL     OW81475  12.618   0.703   8.747
59881SOL    HW181476  12.685   0.771   8.743
59881SOL    HW281477  12.558   0.731   8.816
59882SOL     OW81478   2.162   3.038   0.056
59882SOL    HW181479   2.127   3.102   0.117
59882SOL    HW281480   2.245   3.076   0.027
59883SOL     OW81481  10.032   6.070  13.003
59883SOL    HW181482  10.001   5.987  13.038
59883SOL    HW281483  10.074   6.114  13.077
59884SOL     OW81484   8.933   5.701   6.613
59884SOL    HW181485   8.893   5.619   6.583
59884SOL    HW281486   8.959   5.683   6.703
59885SOL     OW81487  14.036   2.045  11.931
59885SOL    HW181488  13.973   2.049  12.003
59885SOL    HW281489  14.064   1.953  11.929
59886SOL     OW81490   3.615   6.642   8.092
59886SOL    HW181491   3.649   6.585   8.162
59886SOL    HW281492   3.528   6.668   8.122
59887SOL     OW81493   8.385  12.095   5.659
59887SOL    HW181494   8.419  12.053   5.738
59887SOL    HW281495   8.351  12.179   5.689
59888SOL     OW81496   8.677  11.067  13.889
59888SOL    HW181497   8.717  11.154  13.891
59888SOL    HW281498   8.589  11.080  13.924
59889SOL     OW81499   8.463   7.244  11.518
59889SOL    HW181500   8.374   7.276  11.536
59889SOL    HW281501   8.476   7.259  11.425
59890SOL     OW81502   8.264   6.833   9.474
59890SOL    HW181503   8.181   6.839   9.522
59890SOL    HW281504   8.239   6.847   9.382
59891SOL     OW81505   9.157   8.752   1.631
59891SOL    HW181506   9.165   8.729   1.723
59891SOL    HW281507   9.247   8.749   1.598
59892SOL     OW81508  13.391   9.475  14.747
59892SOL    HW181509  13.354   9.391  14.776
59892SOL    HW281510  13.478   9.452  14.713
59893SOL     OW81511   8.813  11.126  10.113
59893SOL    HW181512   8.764  11.044  10.116
59893SOL    HW281513   8.799  11.159  10.025
59894SOL     OW81514   9.004   0.862   5.315
59894SOL    HW181515   9.005   0.955   5.335
59894SOL    HW281516   8.919   0.846   5.274
59895SOL     OW81517   8.825   2.106   0.419
59895SOL    HW181518   8.905   2.069   0.383
59895SOL    HW281519   8.782   2.032   0.463
59896SOL     OW81520  12.698   4.446   0.799
59896SOL    HW181521  12.617   4.491   0.776
59896SOL    HW281522  12.759   4.469   0.729
59897SOL     OW81523   6.405  14.454  14.019
59897SOL    HW181524   6.496  14.441  13.992
59897SOL    HW281525   6.401  14.545  14.049
59898SOL     OW81526  11.097   4.546  10.154
59898SOL    HW181527  11.187   4.511  10.156
59898SOL    HW281528  11.043   4.471  10.133
59899SOL     OW81529   4.524   8.388   7.412
59899SOL    HW181530   4.582   8.380   7.488
59899SOL    HW281531   4.557   8.324   7.349
59900SOL     OW81532  12.292   1.847   7.941
59900SOL    HW181533  12.295   1.797   7.860
59900SOL    HW281534  12.381   1.840   7.977
59901SOL     OW81535  11.193   5.391   5.180
59901SOL    HW181536  11.283   5.358   5.190
59901SOL    HW281537  11.187   5.462   5.244
59902SOL     OW81538   8.128  12.018   4.833
59902SOL    HW181539   8.132  12.109   4.802
59902SOL    HW281540   8.066  12.021   4.906
59903SOL     OW81541  10.180   7.790  13.459
59903SOL    HW181542  10.088   7.785  13.434
59903SOL    HW281543  10.191   7.881  13.488
59904SOL     OW81544   0.825   2.596   3.412
59904SOL    HW181545   0.763   2.526   3.392
59904SOL    HW281546   0.793   2.634   3.494
59905SOL     OW81547   1.790   7.572   5.964
59905SOL    HW181548   1.773   7.550   5.872
59905SOL    HW281549   1.739   7.507   6.013
59906SOL     OW81550  14.822  13.874   9.179
59906SOL    HW181551  14.851  13.899   9.092
59906SOL    HW281552  14.728  13.895   9.180
59907SOL     OW81553   0.213   6.475   5.720
59907SOL    HW181554   0.274   6.502   5.652
59907SOL    HW281555   0.268   6.455   5.796
59908SOL     OW81556   4.490  14.739   2.173
59908SOL    HW181557   4.452  14.672   2.116
59908SOL    HW281558   4.424  14.809   2.174
59909SOL     OW81559  14.658  11.598   7.037
59909SOL    HW181560  14.573  11.635   7.061
59909SOL    HW281561  14.673  11.529   7.102
59910SOL     OW81562   0.852  13.582   7.633
59910SOL    HW181563   0.863  13.534   7.715
59910SOL    HW281564   0.757  13.579   7.616
59911SOL     OW81565   5.583   8.497   3.638
59911SOL    HW181566   5.510   8.557   3.651
59911SOL    HW281567   5.657   8.553   3.617
59912SOL     OW81568   6.982   9.373   0.611
59912SOL    HW181569   7.049   9.391   0.545
59912SOL    HW281570   6.996   9.283   0.637
59913SOL     OW81571   2.949  14.691  11.203
59913SOL    HW181572   2.942  14.781  11.170
59913SOL    HW281573   2.946  14.636  11.125
59914SOL     OW81574  14.857  14.749   4.688
59914SOL    HW181575  14.797  14.816   4.719
59914SOL    HW281576   0.069  14.794   4.680
59915SOL     OW81577  11.516   3.986   8.488
59915SOL    HW181578  11.594   4.037   8.509
59915SOL    HW281579  11.481   4.028   8.409
59916SOL     OW81580   8.086  12.025  12.700
59916SOL    HW181581   8.035  12.105  12.714
59916SOL    HW281582   8.120  12.034  12.611
59917SOL     OW81583   4.635   7.843  13.686
59917SOL    HW181584   4.649   7.768  13.627
59917SOL    HW281585   4.631   7.804  13.773
59918SOL     OW81586   7.457  10.960  12.232
59918SOL    HW181587   7.476  11.054  12.235
59918SOL    HW281588   7.461  10.938  12.139
59919SOL     OW81589  13.674   3.365   5.954
59919SOL    HW181590  13.627   3.356   6.037
59919SOL    HW281591  13.764   3.338   5.975
59920SOL     OW81592   9.769   0.021   9.751
59920SOL    HW181593   9.830   0.004   9.823
59920SOL    HW281594   9.770  14.813   9.699
59921SOL     OW81595   2.519   5.449  11.073
59921SOL    HW181596   2.478   5.366  11.097
59921SOL    HW281597   2.455   5.516  11.097
59922SOL     OW81598  11.859   0.722  14.460
59922SOL    HW181599  11.945   0.720  14.417
59922SOL    HW281600  11.797   0.734  14.388
59923SOL     OW81601   8.543   7.837  14.474
59923SOL    HW181602   8.462   7.885  14.459
59923SOL    HW281603   8.522   7.773  14.541
59924SOL     OW81604   0.587   5.091   7.141
59924SOL    HW181605   0.653   5.036   7.184
59924SOL    HW281606   0.627   5.115   7.058
59925SOL     OW81607   9.182  11.176   1.623
59925SOL    HW181608   9.222  11.240   1.564
59925SOL    HW281609   9.247  11.162   1.691
59926SOL     OW81610   8.216   0.490   1.483
59926SOL    HW181611   8.234   0.583   1.487
59926SOL    HW281612   8.123   0.482   1.504
59927SOL     OW81613   9.223  14.134  13.447
59927SOL    HW181614   9.148  14.155  13.392
59927SOL    HW281615   9.235  14.039  13.436
59928SOL     OW81616  12.267   2.236   1.571
59928SOL    HW181617  12.330   2.219   1.500
59928SOL    HW281618  12.295   2.319   1.608
59929SOL     OW81619   1.447  11.944   1.083
59929SOL    HW181620   1.537  11.971   1.069
59929SOL    HW281621   1.396  11.998   1.023
59930SOL     OW81622   0.239  13.821   4.467
59930SOL    HW181623   0.245  13.891   4.403
59930SOL    HW281624   0.179  13.757   4.428
59931SOL     OW81625  11.375   0.170   1.644
59931SOL    HW181626  11.371   0.219   1.562
59931SOL    HW281627  11.303   0.108   1.639
59932SOL     OW81628   1.762   3.389  10.333
59932SOL    HW181629   1.755   3.414  10.241
59932SOL    HW281630   1.678   3.415  10.371
59933SOL     OW81631  12.780   5.093   2.236
59933SOL    HW181632  12.712   5.119   2.173
59933SOL    HW281633  12.849   5.055   2.182
59934SOL     OW81634  13.095   8.585   7.055
59934SOL    HW181635  13.040   8.517   7.017
59934SOL    HW281636  13.184   8.550   7.048
59935SOL     OW81637  11.852   4.751   6.049
59935SOL    HW181638  11.809   4.748   6.134
59935SOL    HW281639  11.944   4.731   6.069
59936SOL     OW81640   0.155  14.285   7.465
59936SOL    HW181641   0.172  14.279   7.559
59936SOL    HW281642   0.224  14.232   7.425
59937SOL     OW81643  11.362  12.229   4.205
59937SOL    HW181644  11.308  12.162   4.247
59937SOL    HW281645  11.376  12.295   4.273
59938SOL     OW81646  11.768   9.419  14.230
59938SOL    HW181647  11.678   9.451  14.219
59938SOL    HW281648  11.815   9.494  14.266
59939SOL     OW81649   0.506   5.134   5.005
59939SOL    HW181650   0.464   5.200   4.949
59939SOL    HW281651   0.538   5.184   5.081
59940SOL     OW81652   3.399  10.556  12.012
59940SOL    HW181653   3.449  10.479  12.039
59940SOL    HW281654   3.350  10.527  11.935
59941SOL     OW81655  11.250   7.441   0.258
59941SOL    HW181656  11.160   7.409   0.250
59941SOL    HW281657  11.241   7.531   0.287
59942SOL     OW81658   7.562   5.187  12.114
59942SOL    HW181659   7.625   5.179  12.043
59942SOL    HW281660   7.564   5.280  12.138
59943SOL     OW81661   4.914  11.113   9.093
59943SOL    HW181662   4.859  11.162   9.032
59943SOL    HW281663   4.885  11.140   9.180
59944SOL     OW81664   2.681   4.733   0.056
59944SOL    HW181665   2.761   4.680   0.053
59944SOL    HW281666   2.617   4.678   0.101
59945SOL     OW81667   4.744   0.441   4.649
59945SOL    HW181668   4.709   0.362   4.606
59945SOL    HW281669   4.702   0.442   4.734
59946SOL     OW81670  14.540   7.645   8.055
59946SOL    HW181671  14.485   7.640   7.977
59946SOL    HW281672  14.479   7.646   8.129
59947SOL     OW81673   9.795   6.686  14.494
59947SOL    HW181674   9.837   6.714  14.413
59947SOL    HW281675   9.797   6.763  14.550
59948SOL     OW81676   8.058   4.995   8.231
59948SOL    HW181677   8.004   4.980   8.154
59948SOL    HW281678   8.008   5.056   8.285
59949SOL     OW81679   2.897   3.023   0.526
59949SOL    HW181680   2.851   3.007   0.609
59949SOL    HW281681   2.927   3.114   0.533
59950SOL     OW81682  11.290   8.246   5.547
59950SOL    HW181683  11.275   8.277   5.458
59950SOL    HW281684  11.205   8.211   5.575
59951SOL     OW81685  10.321   2.703   9.346
59951SOL    HW181686  10.266   2.775   9.379
59951SOL    HW281687  10.369   2.673   9.423
59952SOL     OW81688   1.815  11.432   0.650
59952SOL    HW181689   1.887  11.428   0.588
59952SOL    HW281690   1.856  11.415   0.735
59953SOL     OW81691  13.631   6.857  12.852
59953SOL    HW181692  13.581   6.896  12.924
59953SOL    HW281693  13.567   6.840  12.784
59954SOL     OW81694  14.834   0.879   2.389
59954SOL    HW181695  14.844   0.972   2.372
59954SOL    HW281696  14.739   0.866   2.398
59955SOL     OW81697  14.301   5.382  12.447
59955SOL    HW181698  14.328   5.290  12.443
59955SOL    HW281699  14.291   5.401  12.540
59956SOL     OW81700   3.136   9.678   7.660
59956SOL    HW181701   3.059   9.625   7.636
59956SOL    HW281702   3.190   9.679   7.582
59957SOL     OW81703   2.499   6.453   2.189
59957SOL    HW181704   2.574   6.507   2.164
59957SOL    HW281705   2.513   6.369   2.145
59958SOL     OW81706   1.374   3.522   9.376
59958SOL    HW181707   1.408   3.470   9.304
59958SOL    HW281708   1.375   3.612   9.344
59959SOL     OW81709  10.484  13.068   6.460
59959SOL    HW181710  10.400  13.098   6.424
59959SOL    HW281711  10.479  12.973   6.456
59960SOL     OW81712   7.174  11.824  10.657
59960SOL    HW181713   7.158  11.904  10.707
59960SOL    HW281714   7.136  11.754  10.711
59961SOL     OW81715   7.762   4.229   8.941
59961SOL    HW181716   7.714   4.151   8.914
59961SOL    HW281717   7.839   4.196   8.988
59962SOL     OW81718   6.955  14.453   7.037
59962SOL    HW181719   6.918  14.451   7.125
59962SOL    HW281720   6.910  14.382   6.990
59963SOL     OW81721   1.264   8.751   4.073
59963SOL    HW181722   1.178   8.789   4.091
59963SOL    HW281723   1.264   8.736   3.978
59964SOL     OW81724  11.937   1.563  14.520
59964SOL    HW181725  11.987   1.510  14.582
59964SOL    HW281726  11.993   1.570  14.443
59965SOL     OW81727  14.133   6.378   4.833
59965SOL    HW181728  14.152   6.472   4.827
59965SOL    HW281729  14.151   6.344   4.746
59966SOL     OW81730   2.388   9.042   5.526
59966SOL    HW181731   2.381   8.950   5.500
59966SOL    HW281732   2.458   9.042   5.592
59967SOL     OW81733  14.452  10.289   6.537
59967SOL    HW181734  14.433  10.207   6.491
59967SOL    HW281735  14.449  10.266   6.630
59968SOL     OW81736   2.843   9.764   2.699
59968SOL    HW181737   2.851   9.701   2.627
59968SOL    HW281738   2.897   9.726   2.769
59969SOL     OW81739  10.347   2.205   8.730
59969SOL    HW181740  10.287   2.279   8.739
59969SOL    HW281741  10.431   2.238   8.761
59970SOL     OW81742  10.259   2.857   2.847
59970SOL    HW181743  10.214   2.937   2.876
59970SOL    HW281744  10.226   2.789   2.905
59971SOL     OW81745  12.516   8.897   2.069
59971SOL    HW181746  12.463   8.899   2.149
59971SOL    HW281747  12.472   8.833   2.013
59972SOL     OW81748   2.453   9.857   5.619
59972SOL    HW181749   2.543   9.824   5.613
59972SOL    HW281750   2.426   9.837   5.708
59973SOL     OW81751   0.753   3.168  10.508
59973SOL    HW181752   0.673   3.219  10.502
59973SOL    HW281753   0.779   3.152  10.417
59974SOL     OW81754   1.654  14.739  12.265
59974SOL    HW181755   1.614  14.653  12.274
59974SOL    HW281756   1.655  14.755  12.170
59975SOL     OW81757   9.620  10.094   6.248
59975SOL    HW181758   9.627  10.159   6.177
59975SOL    HW281759   9.546  10.039   6.222
59976SOL     OW81760   4.768   3.574   2.589
59976SOL    HW181761   4.839   3.595   2.529
59976SOL    HW281762   4.719   3.656   2.599
59977SOL     OW81763   1.325   3.471   0.308
59977SOL    HW181764   1.409   3.451   0.348
59977SOL    HW281765   1.309   3.399   0.247
59978SOL     OW81766   8.116  11.964   3.437
59978SOL    HW181767   8.038  12.019   3.447
59978SOL    HW281768   8.086  11.876   3.458
59979SOL     OW81769   1.441   1.456  14.749
59979SOL    HW181770   1.501   1.411  14.809
59979SOL    HW281771   1.485   1.453  14.664
59980SOL     OW81772   1.874   5.854  12.165
59980SOL    HW181773   1.813   5.859  12.092
59980SOL    HW281774   1.832   5.904  12.235
59981SOL     OW81775   2.631  13.605   8.084
59981SOL    HW181776   2.582  13.674   8.129
59981SOL    HW281777   2.598  13.524   8.123
59982SOL     OW81778  10.094  10.325   2.370
59982SOL    HW181779  10.102  10.235   2.338
59982SOL    HW281780  10.148  10.376   2.310
59983SOL     OW81781   5.826   3.062   3.154
59983SOL    HW181782   5.803   3.154   3.165
59983SOL    HW281783   5.766   3.015   3.211
59984SOL     OW81784   8.136   7.608   1.375
59984SOL    HW181785   8.190   7.551   1.320
59984SOL    HW281786   8.047   7.576   1.364
59985SOL     OW81787   7.373   0.553   6.825
59985SOL    HW181788   7.293   0.574   6.777
59985SOL    HW281789   7.433   0.625   6.805
59986SOL     OW81790   7.822   7.223  10.734
59986SOL    HW181791   7.874   7.146  10.760
59986SOL    HW281792   7.785   7.256  10.816
59987SOL     OW81793   8.935  10.398   5.065
59987SOL    HW181794   9.026  10.413   5.038
59987SOL    HW281795   8.917  10.469   5.127
59988SOL     OW81796  14.797  12.587   9.076
59988SOL    HW181797  14.721  12.575   9.132
59988SOL    HW281798  14.761  12.599   8.988
59989SOL     OW81799   1.440  11.155   8.314
59989SOL    HW181800   1.507  11.217   8.343
59989SOL    HW281801   1.469  11.129   8.226
59990SOL     OW81802   3.103   1.789  14.202
59990SOL    HW181803   3.039   1.720  14.222
59990SOL    HW281804   3.054   1.870  14.213
59991SOL     OW81805   4.905   8.705   7.187
59991SOL    HW181806   4.874   8.621   7.151
59991SOL    HW281807   4.993   8.716   7.151
59992SOL     OW81808   5.746  13.842   7.402
59992SOL    HW181809   5.710  13.761   7.366
59992SOL    HW281810   5.781  13.817   7.487
59993SOL     OW81811   7.686   7.668   4.629
59993SOL    HW181812   7.631   7.700   4.558
59993SOL    HW281813   7.718   7.583   4.598
59994SOL     OW81814  10.349   3.327   0.325
59994SOL    HW181815  10.398   3.401   0.360
59994SOL    HW281816  10.324   3.354   0.237
59995SOL     OW81817   2.130   7.808   0.485
59995SOL    HW181818   2.135   7.789   0.579
59995SOL    HW281819   2.051   7.762   0.456
59996SOL     OW81820   3.844  12.040  10.619
59996SOL    HW181821   3.915  12.038  10.555
59996SOL    HW281822   3.886  12.063  10.701
59997SOL     OW81823   8.126   0.480  14.459
59997SOL    HW181824   8.059   0.528  14.411
59997SOL    HW281825   8.079   0.413  14.507
59998SOL     OW81826   5.185   0.926  14.729
59998SOL    HW181827   5.126   1.002  14.734
59998SOL    HW281828   5.136   0.855  14.771
59999SOL     OW81829   5.544   9.804   2.525
59999SOL    HW181830   5.627   9.768   2.558
59999SOL    HW281831   5.543   9.780   2.432
60000SOL     OW81832   4.729  14.715   9.796
60000SOL    HW181833   4.714  14.676   9.709
60000SOL    HW281834   4.733  14.640   9.855
60001SOL     OW81835   9.528  12.439  11.667
60001SOL    HW181836   9.565  12.505  11.609
60001SOL    HW281837   9.458  12.484  11.714
60002SOL     OW81838  11.320   1.129   9.144
60002SOL    HW181839  11.407   1.102   9.175
60002SOL    HW281840  11.282   1.049   9.107
60003SOL     OW81841   9.669   9.331   1.365
60003SOL    HW181842   9.575   9.316   1.357
60003SOL    HW281843   9.702   9.322   1.275
60004SOL     OW81844  13.019   5.360   8.531
60004SOL    HW181845  12.983   5.445   8.504
60004SOL    HW281846  13.085   5.382   8.596
60005SOL     OW81847   7.493   2.976   3.873
60005SOL    HW181848   7.567   2.935   3.829
60005SOL    HW281849   7.428   2.905   3.882
60006SOL     OW81850   3.991   0.991   0.843
60006SOL    HW181851   4.059   0.943   0.795
60006SOL    HW281852   3.915   0.988   0.786
60007SOL     OW81853   3.170   2.072  14.012
60007SOL    HW181854   3.180   2.125  14.092
60007SOL    HW281855   3.207   2.126  13.943
60008SOL     OW81856   7.918   1.546  10.443
60008SOL    HW181857   7.875   1.584  10.366
60008SOL    HW281858   7.864   1.574  10.516
60009SOL     OW81859  10.868  12.119   5.553
60009SOL    HW181860  10.910  12.178   5.491
60009SOL    HW281861  10.811  12.064   5.500
60010SOL     OW81862   0.694  13.037  10.477
60010SOL    HW181863   0.755  13.110  10.465
60010SOL    HW281864   0.621  13.074  10.528
60011SOL     OW81865   1.633   6.099  12.126
60011SOL    HW181866   1.702   6.065  12.069
60011SOL    HW281867   1.563   6.125  12.067
60012SOL     OW81868  13.826  12.956   8.790
60012SOL    HW181869  13.816  12.913   8.875
60012SOL    HW281870  13.857  13.044   8.811
60013SOL     OW81871   7.197   1.360  11.630
60013SOL    HW181872   7.185   1.443  11.582
60013SOL    HW281873   7.291   1.345  11.629
60014SOL     OW81874   3.172  11.826   2.367
60014SOL    HW181875   3.184  11.859   2.278
60014SOL    HW281876   3.159  11.732   2.357
60015SOL     OW81877  13.929  14.051   3.239
60015SOL    HW181878  14.009  14.104   3.233
60015SOL    HW281879  13.861  14.105   3.200
60016SOL     OW81880  12.680   6.961  10.640
60016SOL    HW181881  12.726   7.003  10.567
60016SOL    HW281882  12.604   6.919  10.599
60017SOL     OW81883  10.862  11.012   9.866
60017SOL    HW181884  10.897  10.989   9.952
60017SOL    HW281885  10.828  11.101   9.876
60018SOL     OW81886  10.842   8.017   8.938
60018SOL    HW181887  10.748   8.005   8.952
60018SOL    HW281888  10.868   8.083   9.002
60019SOL     OW81889  13.198   1.770   1.158
60019SOL    HW181890  13.244   1.727   1.086
60019SOL    HW281891  13.135   1.828   1.114
60020SOL     OW81892   8.380  13.375   1.351
60020SOL    HW181893   8.417  13.382   1.440
60020SOL    HW281894   8.366  13.281   1.339
60021SOL     OW81895  12.585   8.557   7.780
60021SOL    HW181896  12.680   8.545   7.787
60021SOL    HW281897  12.553   8.477   7.739
60022SOL     OW81898  12.253  11.909   1.530
60022SOL    HW181899  12.334  11.959   1.538
60022SOL    HW281900  12.238  11.874   1.618
60023SOL     OW81901  14.586   1.605   0.283
60023SOL    HW181902  14.597   1.514   0.257
60023SOL    HW281903  14.574   1.652   0.200
60024SOL     OW81904   6.631  13.727   0.397
60024SOL    HW181905   6.674  13.714   0.313
60024SOL    HW281906   6.646  13.819   0.418
60025SOL     OW81907  12.103   0.943  12.687
60025SOL    HW181908  12.039   0.910  12.624
60025SOL    HW281909  12.126   0.867  12.740
60026SOL     OW81910   4.347  11.854   6.183
60026SOL    HW181911   4.304  11.803   6.252
60026SOL    HW281912   4.308  11.822   6.102
60027SOL     OW81913  11.013   4.621   4.793
60027SOL    HW181914  10.945   4.616   4.726
60027SOL    HW281915  10.985   4.694   4.849
60028SOL     OW81916   6.929  11.832  14.246
60028SOL    HW181917   6.966  11.900  14.302
60028SOL    HW281918   6.897  11.766  14.308
60029SOL     OW81919   8.250  10.262   6.241
60029SOL    HW181920   8.264  10.312   6.321
60029SOL    HW281921   8.193  10.190   6.267
60030SOL     OW81922   6.285   6.590  12.995
60030SOL    HW181923   6.208   6.598  12.939
60030SOL    HW281924   6.337   6.668  12.976
60031SOL     OW81925   3.720   0.643   4.859
60031SOL    HW181926   3.640   0.644   4.806
60031SOL    HW281927   3.784   0.597   4.805
60032SOL     OW81928   7.302   8.039  10.209
60032SOL    HW181929   7.307   8.083  10.293
60032SOL    HW281930   7.208   8.036  10.189
60033SOL     OW81931   7.040  14.041   6.306
60033SOL    HW181932   6.976  14.065   6.239
60033SOL    HW281933   7.125  14.061   6.267
60034SOL     OW81934   5.790   9.160   6.658
60034SOL    HW181935   5.864   9.175   6.599
60034SOL    HW281936   5.808   9.215   6.734
60035SOL     OW81937   0.867   8.281   1.711
60035SOL    HW181938   0.878   8.188   1.731
60035SOL    HW281939   0.937   8.325   1.760
60036SOL     OW81940  14.170   7.979   3.884
60036SOL    HW181941  14.076   7.998   3.889
60036SOL    HW281942  14.200   7.985   3.975
60037SOL     OW81943   9.320  12.189   5.711
60037SOL    HW181944   9.309  12.278   5.744
60037SOL    HW281945   9.279  12.133   5.777
60038SOL     OW81946   1.798   8.865  12.259
60038SOL    HW181947   1.731   8.820  12.207
60038SOL    HW281948   1.773   8.958  12.254
60039SOL     OW81949   7.365  14.321   2.482
60039SOL    HW181950   7.332  14.376   2.411
60039SOL    HW281951   7.291  14.313   2.542
60040SOL     OW81952  12.161  13.377   7.794
60040SOL    HW181953  12.232  13.347   7.851
60040SOL    HW281954  12.187  13.347   7.707
60041SOL     OW81955  12.821   4.999  10.294
60041SOL    HW181956  12.884   4.955  10.351
60041SOL    HW281957  12.829   5.092  10.317
60042SOL     OW81958   7.736   5.277  13.276
60042SOL    HW181959   7.696   5.311  13.196
60042SOL    HW281960   7.728   5.182  13.268
60043SOL     OW81961   1.856   7.315   0.977
60043SOL    HW181962   1.892   7.282   0.895
60043SOL    HW281963   1.900   7.264   1.045
60044SOL     OW81964  14.227  12.975   0.053
60044SOL    HW181965  14.228  13.001   0.146
60044SOL    HW281966  14.319  12.957   0.033
60045SOL     OW81967   7.689   1.613  11.928
60045SOL    HW181968   7.689   1.708  11.920
60045SOL    HW281969   7.707   1.581  11.839
60046SOL     OW81970  14.598   8.706   1.864
60046SOL    HW181971  14.539   8.772   1.827
60046SOL    HW281972  14.638   8.748   1.940
60047SOL     OW81973   2.521  12.173  11.854
60047SOL    HW181974   2.489  12.111  11.919
60047SOL    HW281975   2.611  12.193  11.881
60048SOL     OW81976  14.454   4.248   4.956
60048SOL    HW181977  14.362   4.252   4.980
60048SOL    HW281978  14.483   4.340   4.955
60049SOL     OW81979  10.948   5.336  13.594
60049SOL    HW181980  10.959   5.279  13.670
60049SOL    HW281981  10.876   5.395  13.619
60050SOL     OW81982  12.254   9.016   4.904
60050SOL    HW181983  12.234   9.108   4.885
60050SOL    HW281984  12.184   8.967   4.862
60051SOL     OW81985   1.364   9.073   1.794
60051SOL    HW181986   1.309   9.082   1.716
60051SOL    HW281987   1.418   8.996   1.777
60052SOL     OW81988   9.588   8.117  13.359
60052SOL    HW181989   9.574   8.117  13.454
60052SOL    HW281990   9.516   8.170  13.324
60053SOL     OW81991   9.026   4.792   6.591
60053SOL    HW181992   9.017   4.713   6.644
60053SOL    HW281993   9.115   4.822   6.607
60054SOL     OW81994   5.314  14.480   8.652
60054SOL    HW181995   5.400  14.501   8.687
60054SOL    HW281996   5.280  14.412   8.709
60055SOL     OW81997   1.378  14.411  10.236
60055SOL    HW181998   1.417  14.323  10.234
60055SOL    HW281999   1.416  14.456  10.161
60056SOL     OW82000   1.751   3.345   5.348
60056SOL    HW182001   1.723   3.396   5.271
60056SOL    HW282002   1.807   3.277   5.312
60057SOL     OW82003  12.156  12.701   7.232
60057SOL    HW182004  12.064  12.677   7.239
60057SOL    HW282005  12.161  12.753   7.152
60058SOL     OW82006   4.068   5.067  12.652
60058SOL    HW182007   4.125   5.139  12.622
60058SOL    HW282008   4.119   5.024  12.721
60059SOL     OW82009  11.250   8.792   1.118
60059SOL    HW182010  11.255   8.721   1.182
60059SOL    HW282011  11.170   8.773   1.068
60060SOL     OW82012  10.235   3.940   9.297
60060SOL    HW182013  10.209   3.848   9.301
60060SOL    HW282014  10.324   3.941   9.333
60061SOL     OW82015  11.547   0.219  10.128
60061SOL    HW182016  11.460   0.188  10.104
60061SOL    HW282017  11.600   0.140  10.134
60062SOL     OW82018  10.242   7.754  12.636
60062SOL    HW182019  10.183   7.705  12.579
60062SOL    HW282020  10.252   7.698  12.713
60063SOL     OW82021   5.264  13.742   7.098
60063SOL    HW182022   5.231  13.678   7.035
60063SOL    HW282023   5.186  13.771   7.145
60064SOL     OW82024  10.827   0.239  12.129
60064SOL    HW182025  10.740   0.270  12.103
60064SOL    HW282026  10.876   0.318  12.151
60065SOL     OW82027  14.035  12.727   2.343
60065SOL    HW182028  14.034  12.644   2.390
60065SOL    HW282029  14.058  12.703   2.253
60066SOL     OW82030   9.261   2.930   5.409
60066SOL    HW182031   9.345   2.974   5.403
60066SOL    HW282032   9.204   2.977   5.348
60067SOL     OW82033   1.123   3.827   5.117
60067SOL    HW182034   1.205   3.799   5.076
60067SOL    HW282035   1.065   3.846   5.043
60068SOL     OW82036   3.444   6.161   9.599
60068SOL    HW182037   3.395   6.230   9.555
60068SOL    HW282038   3.515   6.139   9.539
60069SOL     OW82039   0.869   1.411   2.745
60069SOL    HW182040   0.825   1.472   2.686
60069SOL    HW282041   0.881   1.332   2.693
60070SOL     OW82042   8.701   9.853   4.398
60070SOL    HW182043   8.788   9.883   4.423
60070SOL    HW282044   8.686   9.890   4.311
60071SOL     OW82045   4.760   4.308   5.439
60071SOL    HW182046   4.727   4.371   5.504
60071SOL    HW282047   4.772   4.360   5.359
60072SOL     OW82048   1.045   8.362   9.646
60072SOL    HW182049   1.062   8.402   9.561
60072SOL    HW282050   1.130   8.363   9.691
60073SOL     OW82051  14.791   5.537  13.916
60073SOL    HW182052  14.743   5.457  13.901
60073SOL    HW282053  14.743   5.604  13.867
60074SOL     OW82054   5.874   1.847   1.835
60074SOL    HW182055   5.926   1.912   1.883
60074SOL    HW282056   5.797   1.832   1.891
60075SOL     OW82057  12.479   8.109   5.144
60075SOL    HW182058  12.440   8.033   5.187
60075SOL    HW282059  12.529   8.073   5.071
60076SOL     OW82060  10.115   8.443   4.922
60076SOL    HW182061  10.036   8.437   4.867
60076SOL    HW282062  10.146   8.532   4.908
60077SOL     OW82063   5.017   7.707  12.959
60077SOL    HW182064   4.981   7.792  12.986
60077SOL    HW282065   5.022   7.656  13.040
60078SOL     OW82066  10.216   1.253  12.649
60078SOL    HW182067  10.279   1.288  12.711
60078SOL    HW282068  10.135   1.244  12.699
60079SOL     OW82069  12.033   0.092   6.122
60079SOL    HW182070  11.938   0.106   6.114
60079SOL    HW282071  12.046   0.064   6.213
60080SOL     OW82072   2.146  12.673   1.754
60080SOL    HW182073   2.083  12.685   1.683
60080SOL    HW282074   2.115  12.594   1.799
60081SOL     OW82075   0.835   9.272  12.926
60081SOL    HW182076   0.889   9.194  12.915
60081SOL    HW282077   0.875   9.319  12.999
60082SOL     OW82078   8.540  11.385   7.569
60082SOL    HW182079   8.542  11.296   7.534
60082SOL    HW282080   8.506  11.374   7.658
60083SOL     OW82081   3.153  12.645   9.737
60083SOL    HW182082   3.111  12.615   9.817
60083SOL    HW282083   3.084  12.692   9.689
60084SOL     OW82084   9.203   4.583   9.652
60084SOL    HW182085   9.197   4.657   9.713
60084SOL    HW282086   9.297   4.566   9.644
60085SOL     OW82087   8.754   4.481   6.500
60085SOL    HW182088   8.748   4.411   6.435
60085SOL    HW282089   8.704   4.448   6.575
60086SOL     OW82090   7.633  11.085  14.069
60086SOL    HW182091   7.553  11.042  14.100
60086SOL    HW282092   7.601  11.166  14.029
60087SOL     OW82093  14.253   3.448   0.992
60087SOL    HW182094  14.181   3.445   1.056
60087SOL    HW282095  14.270   3.541   0.981
60088SOL     OW82096   6.764   7.032  12.164
60088SOL    HW182097   6.761   7.059  12.073
60088SOL    HW282098   6.832   6.964  12.168
60089SOL     OW82099  14.461   3.165  13.968
60089SOL    HW182100  14.371   3.198  13.976
60089SOL    HW282101  14.500   3.181  14.053
60090SOL     OW82102   6.339   0.382  14.297
60090SOL    HW182103   6.401   0.310  14.285
60090SOL    HW282104   6.389   0.450  14.341
60091SOL     OW82105   1.162   8.667   5.642
60091SOL    HW182106   1.155   8.762   5.634
60091SOL    HW282107   1.131   8.632   5.559
60092SOL     OW82108  12.559   9.146   1.875
60092SOL    HW182109  12.487   9.091   1.907
60092SOL    HW282110  12.515   9.224   1.840
60093SOL     OW82111  14.650   7.096   3.864
60093SOL    HW182112  14.622   7.155   3.934
60093SOL    HW282113  14.730   7.055   3.897
60094SOL     OW82114   2.294   5.646   2.672
60094SOL    HW182115   2.324   5.623   2.584
60094SOL    HW282116   2.359   5.605   2.730
60095SOL     OW82117   1.747   3.765   3.005
60095SOL    HW182118   1.824   3.814   3.034
60095SOL    HW282119   1.680   3.784   3.070
60096SOL     OW82120   7.116   6.497   6.760
60096SOL    HW182121   7.046   6.469   6.702
60096SOL    HW282122   7.076   6.562   6.817
60097SOL     OW82123  11.919   9.219   9.992
60097SOL    HW182124  11.900   9.176   9.909
60097SOL    HW282125  12.000   9.179  10.023
60098SOL     OW82126   0.104  13.805  12.457
60098SOL    HW182127   0.176  13.754  12.421
60098SOL    HW282128   0.066  13.850  12.382
60099SOL     OW82129  10.572  12.516   6.367
60099SOL    HW182130  10.573  12.438   6.422
60099SOL    HW282131  10.653  12.563   6.391
60100SOL     OW82132  12.638  11.086   0.361
60100SOL    HW182133  12.708  11.127   0.411
60100SOL    HW282134  12.650  11.118   0.271
60101SOL     OW82135  10.587  11.615   2.073
60101SOL    HW182136  10.625  11.623   1.985
60101SOL    HW282137  10.500  11.653   2.065
60102SOL     OW82138   1.302  14.861  10.817
60102SOL    HW182139   1.307  14.803  10.892
60102SOL    HW282140   1.215  14.846  10.780
60103SOL     OW82141  10.649   2.680   9.195
60103SOL    HW182142  10.610   2.762   9.224
60103SOL    HW282143  10.706   2.653   9.267
60104SOL     OW82144  12.151  12.475   9.826
60104SOL    HW182145  12.114  12.523   9.751
60104SOL    HW282146  12.091  12.402   9.839
60105SOL     OW82147   2.770  13.678   3.504
60105SOL    HW182148   2.717  13.680   3.583
60105SOL    HW282149   2.737  13.751   3.451
60106SOL     OW82150   5.650   8.869  11.490
60106SOL    HW182151   5.704   8.809  11.438
60106SOL    HW282152   5.625   8.819  11.567
60107SOL     OW82153   0.593   4.673   3.993
60107SOL    HW182154   0.655   4.600   3.987
60107SOL    HW282155   0.624   4.736   3.928
60108SOL     OW82156   2.209   5.499   0.864
60108SOL    HW182157   2.197   5.411   0.830
60108SOL    HW282158   2.289   5.531   0.821
60109SOL     OW82159   6.444   4.629  14.015
60109SOL    HW182160   6.459   4.562  14.082
60109SOL    HW282161   6.518   4.688  14.023
60110SOL     OW82162   1.191   9.520  10.452
60110SOL    HW182163   1.193   9.566  10.535
60110SOL    HW282164   1.118   9.561  10.404
60111SOL     OW82165  14.310  12.568  12.941
60111SOL    HW182166  14.373  12.632  12.974
60111SOL    HW282167  14.248  12.620  12.890
60112SOL     OW82168   9.776   2.622  10.744
60112SOL    HW182169   9.737   2.613  10.658
60112SOL    HW282170   9.822   2.540  10.760
60113SOL     OW82171   4.900   5.997  13.129
60113SOL    HW182172   4.962   6.035  13.192
60113SOL    HW282173   4.823   6.054  13.135
60114SOL     OW82174  12.321   9.701   5.435
60114SOL    HW182175  12.263   9.624   5.437
60114SOL    HW282176  12.270   9.768   5.390
60115SOL     OW82177   2.923  13.729  12.228
60115SOL    HW182178   2.952  13.735  12.137
60115SOL    HW282179   2.970  13.800  12.272
60116SOL     OW82180   1.721   6.134  14.701
60116SOL    HW182181   1.667   6.097  14.771
60116SOL    HW282182   1.660   6.148  14.628
60117SOL     OW82183  13.968   3.687  14.601
60117SOL    HW182184  14.055   3.678  14.562
60117SOL    HW282185  13.908   3.689  14.526
60118SOL     OW82186  14.456   8.955   8.156
60118SOL    HW182187  14.414   9.038   8.180
60118SOL    HW282188  14.528   8.947   8.219
60119SOL     OW82189  12.563   9.132  10.997
60119SOL    HW182190  12.504   9.206  11.010
60119SOL    HW282191  12.539   9.070  11.066
60120SOL     OW82192   0.231   6.620  10.015
60120SOL    HW182193   0.251   6.689  10.077
60120SOL    HW282194   0.310   6.566  10.012
60121SOL     OW82195  11.485  10.736  12.545
60121SOL    HW182196  11.487  10.777  12.459
60121SOL    HW282197  11.409  10.678  12.542
60122SOL     OW82198   4.085   4.123   6.360
60122SOL    HW182199   4.008   4.151   6.409
60122SOL    HW282200   4.105   4.196   6.302
60123SOL     OW82201   3.438   9.439   7.188
60123SOL    HW182202   3.485   9.509   7.232
60123SOL    HW282203   3.368   9.483   7.139
60124SOL     OW82204   0.876  14.657   2.972
60124SOL    HW182205   0.956  14.709   2.965
60124SOL    HW282206   0.838  14.660   2.884
60125SOL     OW82207   2.613   1.200  14.242
60125SOL    HW182208   2.526   1.201  14.281
60125SOL    HW282209   2.649   1.115  14.266
60126SOL     OW82210  11.445   6.640   6.039
60126SOL    HW182211  11.465   6.559   5.991
60126SOL    HW282212  11.363   6.670   6.000
60127SOL     OW82213   5.269   7.124  10.350
60127SOL    HW182214   5.209   7.157  10.417
60127SOL    HW282215   5.321   7.200  10.324
60128SOL     OW82216   5.113   2.767   5.478
60128SOL    HW182217   5.109   2.725   5.392
60128SOL    HW282218   5.077   2.854   5.464
60129SOL     OW82219   8.049  12.719   3.861
60129SOL    HW182220   8.061  12.807   3.824
60129SOL    HW282221   8.007  12.669   3.791
60130SOL     OW82222  13.441   2.452   0.765
60130SOL    HW182223  13.493   2.476   0.842
60130SOL    HW282224  13.502   2.403   0.710
60131SOL     OW82225   1.779  12.362   1.222
60131SOL    HW182226   1.751  12.364   1.130
60131SOL    HW282227   1.812  12.274   1.235
60132SOL     OW82228  14.612   8.116  12.716
60132SOL    HW182229  14.643   8.052  12.780
60132SOL    HW282230  14.662   8.097  12.637
60133SOL     OW82231   4.185  13.112   6.918
60133SOL    HW182232   4.262  13.159   6.949
60133SOL    HW282233   4.219  13.040   6.865
60134SOL     OW82234   6.432   9.366  10.042
60134SOL    HW182235   6.401   9.322   9.962
60134SOL    HW282236   6.403   9.456  10.031
60135SOL     OW82237   8.012   4.044   1.586
60135SOL    HW182238   7.987   3.961   1.626
60135SOL    HW282239   8.064   4.089   1.653
60136SOL     OW82240  13.147  13.527   2.037
60136SOL    HW182241  13.091  13.572   1.974
60136SOL    HW282242  13.121  13.435   2.030
60137SOL     OW82243  11.797  12.444  13.478
60137SOL    HW182244  11.851  12.402  13.411
60137SOL    HW282245  11.747  12.372  13.517
60138SOL     OW82246   0.662  12.847   8.864
60138SOL    HW182247   0.574  12.871   8.891
60138SOL    HW282248   0.720  12.894   8.923
60139SOL     OW82249   4.862  11.325  11.839
60139SOL    HW182250   4.914  11.399  11.873
60139SOL    HW282251   4.849  11.268  11.915
60140SOL     OW82252  13.705   2.865  14.088
60140SOL    HW182253  13.767   2.803  14.049
60140SOL    HW282254  13.745   2.889  14.172
60141SOL     OW82255  13.448   8.009   7.282
60141SOL    HW182256  13.499   8.068   7.338
60141SOL    HW282257  13.484   7.922   7.300
60142SOL     OW82258   5.016  11.439  13.228
60142SOL    HW182259   5.043  11.435  13.136
60142SOL    HW282260   4.977  11.353  13.245
60143SOL     OW82261   6.894   8.231  10.304
60143SOL    HW182262   6.818   8.243  10.247
60143SOL    HW282263   6.898   8.312  10.355
60144SOL     OW82264   1.306   7.278   5.141
60144SOL    HW182265   1.388   7.308   5.181
60144SOL    HW282266   1.331   7.252   5.052
60145SOL     OW82267   1.562  13.503   5.150
60145SOL    HW182268   1.581  13.426   5.204
60145SOL    HW282269   1.634  13.563   5.167
60146SOL     OW82270   0.227   0.753   3.626
60146SOL    HW182271   0.137   0.785   3.633
60146SOL    HW282272   0.233   0.685   3.693
60147SOL     OW82273   1.705   3.671   2.145
60147SOL    HW182274   1.767   3.598   2.139
60147SOL    HW282275   1.642   3.643   2.212
60148SOL     OW82276   2.984   4.513   7.745
60148SOL    HW182277   2.946   4.437   7.790
60148SOL    HW282278   2.951   4.589   7.794
60149SOL     OW82279  10.423   4.986  11.900
60149SOL    HW182280  10.367   5.012  11.972
60149SOL    HW282281  10.512   4.992  11.935
60150SOL     OW82282   8.604  11.481  14.519
60150SOL    HW182283   8.683  11.430  14.538
60150SOL    HW282284   8.637  11.564  14.484
60151SOL     OW82285   8.272   4.633   8.211
60151SOL    HW182286   8.294   4.614   8.302
60151SOL    HW282287   8.292   4.552   8.164
60152SOL     OW82288  11.067  12.582  13.308
60152SOL    HW182289  11.042  12.668  13.342
60152SOL    HW282290  10.984  12.535  13.298
60153SOL     OW82291  14.253  13.324   0.441
60153SOL    HW182292  14.250  13.258   0.510
60153SOL    HW282293  14.163  13.329   0.408
60154SOL     OW82294   2.277   6.073   6.082
60154SOL    HW182295   2.291   6.135   6.154
60154SOL    HW282296   2.357   6.021   6.079
60155SOL     OW82297   8.699   6.683   5.565
60155SOL    HW182298   8.787   6.693   5.527
60155SOL    HW282299   8.713   6.628   5.642
60156SOL     OW82300   6.199   2.025   7.025
60156SOL    HW182301   6.224   2.114   6.999
60156SOL    HW282302   6.247   1.969   6.965
60157SOL     OW82303   1.612   2.869   0.788
60157SOL    HW182304   1.566   2.816   0.723
60157SOL    HW282305   1.598   2.959   0.759
60158SOL     OW82306   8.789   7.790   0.986
60158SOL    HW182307   8.715   7.756   1.036
60158SOL    HW282308   8.818   7.716   0.932
60159SOL     OW82309   9.192   8.917   9.208
60159SOL    HW182310   9.185   8.826   9.178
60159SOL    HW282311   9.106   8.936   9.247
60160SOL     OW82312  12.586  14.733  14.169
60160SOL    HW182313  12.570  14.777  14.253
60160SOL    HW282314  12.509  14.754  14.116
60161SOL     OW82315  10.440  12.730  13.771
60161SOL    HW182316  10.433  12.705  13.679
60161SOL    HW282317  10.529  12.706  13.796
60162SOL     OW82318   0.464   1.767   7.168
60162SOL    HW182319   0.411   1.846   7.179
60162SOL    HW282320   0.459   1.723   7.253
60163SOL     OW82321   0.949   6.565  10.027
60163SOL    HW182322   0.954   6.536   9.936
60163SOL    HW282323   0.940   6.660  10.021
60164SOL     OW82324   0.946   0.823  12.188
60164SOL    HW182325   0.965   0.813  12.094
60164SOL    HW282326   1.011   0.887  12.219
60165SOL     OW82327   9.131   4.428   7.291
60165SOL    HW182328   9.177   4.485   7.353
60165SOL    HW282329   9.198   4.406   7.225
60166SOL     OW82330   7.683   2.755   4.060
60166SOL    HW182331   7.681   2.797   4.146
60166SOL    HW282332   7.732   2.674   4.073
60167SOL     OW82333   0.789   4.587  14.356
60167SOL    HW182334   0.767   4.655  14.293
60167SOL    HW282335   0.837   4.633  14.425
60168SOL     OW82336  12.959  14.371  13.681
60168SOL    HW182337  12.942  14.449  13.733
60168SOL    HW282338  12.952  14.400  13.590
60169SOL     OW82339   3.571   9.882   8.879
60169SOL    HW182340   3.559   9.932   8.960
60169SOL    HW282341   3.494   9.903   8.826
60170SOL     OW82342   5.882   8.434  11.069
60170SOL    HW182343   5.936   8.408  10.995
60170SOL    HW282344   5.819   8.496  11.032
60171SOL     OW82345   9.505   3.743   1.190
60171SOL    HW182346   9.469   3.830   1.207
60171SOL    HW282347   9.556   3.723   1.269
60172SOL     OW82348   1.679   0.161   6.217
60172SOL    HW182349   1.738   0.107   6.271
60172SOL    HW282350   1.591   0.135   6.244
60173SOL     OW82351   9.069   6.810  14.780
60173SOL    HW182352   9.067   6.903  14.758
60173SOL    HW282353   9.061   6.765  14.696
60174SOL     OW82354   0.414   7.064   8.503
60174SOL    HW182355   0.341   7.003   8.500
60174SOL    HW282356   0.385   7.134   8.561
60175SOL     OW82357   1.778   8.429   9.539
60175SOL    HW182358   1.792   8.367   9.467
60175SOL    HW282359   1.773   8.375   9.617
60176SOL     OW82360   4.267   9.388   1.018
60176SOL    HW182361   4.278   9.443   1.095
60176SOL    HW282362   4.328   9.423   0.954
60177SOL     OW82363  12.290   6.405  11.160
60177SOL    HW182364  12.220   6.470  11.172
60177SOL    HW282365  12.294   6.359  11.244
60178SOL     OW82366   1.507   2.726  12.263
60178SOL    HW182367   1.415   2.746  12.279
60178SOL    HW282368   1.554   2.783  12.323
60179SOL     OW82369  12.832   0.783   8.960
60179SOL    HW182370  12.794   0.851   9.016
60179SOL    HW282371  12.922   0.813   8.944
60180SOL     OW82372   3.284   2.600   7.849
60180SOL    HW182373   3.244   2.614   7.935
60180SOL    HW282374   3.377   2.589   7.867
60181SOL     OW82375   7.863  14.148  12.232
60181SOL    HW182376   7.768  14.156  12.231
60181SOL    HW282377   7.893  14.195  12.154
60182SOL     OW82378   0.905   5.959  10.031
60182SOL    HW182379   0.975   5.959   9.966
60182SOL    HW282380   0.949   5.977  10.114
60183SOL     OW82381  14.432   5.636   9.240
60183SOL    HW182382  14.451   5.728   9.256
60183SOL    HW282383  14.337   5.633   9.228
60184SOL     OW82384  14.785   0.188   3.935
60184SOL    HW182385  14.826   0.122   3.991
60184SOL    HW282386  14.796   0.270   3.983
60185SOL     OW82387   9.643  13.578  12.725
60185SOL    HW182388   9.553  13.569  12.757
60185SOL    HW282389   9.653  13.672  12.706
60186SOL     OW82390   3.257   6.303  10.876
60186SOL    HW182391   3.306   6.294  10.958
60186SOL    HW282392   3.181   6.356  10.899
60187SOL     OW82393  11.080   7.228   2.663
60187SOL    HW182394  11.014   7.289   2.695
60187SOL    HW282395  11.151   7.233   2.728
60188SOL     OW82396   7.295   3.416   8.343
60188SOL    HW182397   7.297   3.472   8.421
60188SOL    HW282398   7.375   3.365   8.348
60189SOL     OW82399  12.766   5.395   2.044
60189SOL    HW182400  12.829   5.441   1.989
60189SOL    HW282401  12.787   5.423   2.133
60190SOL     OW82402  11.992  12.178   7.661
60190SOL    HW182403  11.955  12.256   7.702
60190SOL    HW282404  12.054  12.144   7.725
60191SOL     OW82405   8.053   1.230  12.858
60191SOL    HW182406   8.056   1.137  12.881
60191SOL    HW282407   8.017   1.232  12.769
60192SOL     OW82408  12.194  12.024   1.273
60192SOL    HW182409  12.200  12.004   1.366
60192SOL    HW282410  12.235  12.110   1.265
60193SOL     OW82411   6.298   0.204   4.092
60193SOL    HW182412   6.315   0.292   4.125
60193SOL    HW282413   6.232   0.168   4.151
60194SOL     OW82414  13.208   9.479   4.037
60194SOL    HW182415  13.137   9.476   4.101
60194SOL    HW282416  13.169   9.517   3.959
60195SOL     OW82417   4.923  14.775  12.750
60195SOL    HW182418   4.963  14.760  12.835
60195SOL    HW282419   4.868  14.698  12.736
60196SOL     OW82420  13.080  12.483  12.695
60196SOL    HW182421  13.073  12.388  12.701
60196SOL    HW282422  13.174  12.500  12.694
60197SOL     OW82423   8.296   0.738   6.032
60197SOL    HW182424   8.248   0.655   6.041
60197SOL    HW282425   8.385   0.711   6.012
60198SOL     OW82426   8.038   6.696  13.913
60198SOL    HW182427   7.973   6.660  13.973
60198SOL    HW282428   8.059   6.782  13.950
60199SOL     OW82429   3.925   4.560   0.400
60199SOL    HW182430   3.910   4.478   0.447
60199SOL    HW282431   3.839   4.600   0.391
60200SOL     OW82432   2.542   1.638  13.703
60200SOL    HW182433   2.583   1.683  13.629
60200SOL    HW282434   2.501   1.708  13.753
60201SOL     OW82435   3.382   7.193   1.682
60201SOL    HW182436   3.324   7.268   1.673
60201SOL    HW282437   3.454   7.210   1.622
60202SOL     OW82438   4.864  11.266   4.721
60202SOL    HW182439   4.921  11.220   4.782
60202SOL    HW282440   4.798  11.307   4.776
60203SOL     OW82441  13.955   5.158   3.033
60203SOL    HW182442  13.967   5.086   2.972
60203SOL    HW282443  14.033   5.213   3.020
60204SOL     OW82444   3.112  13.215  11.829
60204SOL    HW182445   3.100  13.285  11.765
60204SOL    HW282446   3.049  13.148  11.804
60205SOL     OW82447   7.194  13.955   3.288
60205SOL    HW182448   7.182  14.050   3.295
60205SOL    HW282449   7.286  13.941   3.312
60206SOL     OW82450  10.386   8.815   1.926
60206SOL    HW182451  10.370   8.806   2.020
60206SOL    HW282452  10.311   8.771   1.884
60207SOL     OW82453  14.357   8.015   4.114
60207SOL    HW182454  14.385   8.107   4.113
60207SOL    HW282455  14.429   7.968   4.072
60208SOL     OW82456  11.861   7.709  10.741
60208SOL    HW182457  11.813   7.721  10.822
60208SOL    HW282458  11.916   7.632  10.757
60209SOL     OW82459   8.021  10.517   1.689
60209SOL    HW182460   8.111  10.532   1.718
60209SOL    HW282461   7.969  10.517   1.770
60210SOL     OW82462  10.032  11.070  12.825
60210SOL    HW182463   9.953  11.112  12.860
60210SOL    HW282464  10.003  10.981  12.803
60211SOL     OW82465   3.126   3.876   1.600
60211SOL    HW182466   3.156   3.956   1.557
60211SOL    HW282467   3.074   3.907   1.675
60212SOL     OW82468   7.369   0.017   9.834
60212SOL    HW182469   7.405   0.106   9.831
60212SOL    HW282470   7.276   0.027   9.815
60213SOL     OW82471  13.084   9.142   5.200
60213SOL    HW182472  13.177   9.149   5.223
60213SOL    HW282473  13.040   9.201   5.261
60214SOL     OW82474   7.916   1.648   3.981
60214SOL    HW182475   7.933   1.557   3.959
60214SOL    HW282476   7.821   1.652   3.996
60215SOL     OW82477   4.280   2.732   3.190
60215SOL    HW182478   4.291   2.663   3.255
60215SOL    HW282479   4.217   2.695   3.127
60216SOL     OW82480   1.367  11.289  14.009
60216SOL    HW182481   1.390  11.280  14.101
60216SOL    HW282482   1.418  11.222  13.964
60217SOL     OW82483   3.652   1.038  11.534
60217SOL    HW182484   3.588   1.062  11.467
60217SOL    HW282485   3.693   1.121  11.559
60218SOL     OW82486   7.999   1.560  11.155
60218SOL    HW182487   8.092   1.549  11.174
60218SOL    HW282488   7.987   1.518  11.070
60219SOL     OW82489  11.397   1.337   4.126
60219SOL    HW182490  11.482   1.294   4.134
60219SOL    HW282491  11.413   1.428   4.149
60220SOL     OW82492   5.144  13.740   4.484
60220SOL    HW182493   5.140  13.813   4.546
60220SOL    HW282494   5.132  13.662   4.537
60221SOL     OW82495   7.854  13.370  11.904
60221SOL    HW182496   7.931  13.427  11.899
60221SOL    HW282497   7.837  13.344  11.814
60222SOL     OW82498   5.306   9.818   2.243
60222SOL    HW182499   5.243   9.798   2.312
60222SOL    HW282500   5.373   9.750   2.251
60223SOL     OW82501  10.501   8.216   3.919
60223SOL    HW182502  10.579   8.221   3.974
60223SOL    HW282503  10.428   8.219   3.982
60224SOL     OW82504   0.273   6.891  14.048
60224SOL    HW182505   0.193   6.840  14.052
60224SOL    HW282506   0.245   6.978  14.020
60225SOL     OW82507  13.867   5.237   7.044
60225SOL    HW182508  13.821   5.208   6.965
60225SOL    HW282509  13.956   5.254   7.015
60226SOL     OW82510   4.705   8.391   1.319
60226SOL    HW182511   4.788   8.379   1.274
60226SOL    HW282512   4.659   8.307   1.310
60227SOL     OW82513  14.150   4.701   6.382
60227SOL    HW182514  14.142   4.796   6.373
60227SOL    HW282515  14.123   4.683   6.472
60228SOL     OW82516  14.160   9.296  10.778
60228SOL    HW182517  14.169   9.245  10.858
60228SOL    HW282518  14.072   9.277  10.746
60229SOL     OW82519  14.655   5.787   4.487
60229SOL    HW182520  14.625   5.872   4.455
60229SOL    HW282521  14.583   5.756   4.542
60230SOL     OW82522   7.124   6.792   2.739
60230SOL    HW182523   7.135   6.841   2.657
60230SOL    HW282524   7.140   6.701   2.715
60231SOL     OW82525   3.748   0.193   0.408
60231SOL    HW182526   3.704   0.141   0.341
60231SOL    HW282527   3.798   0.258   0.359
60232SOL     OW82528  13.690   0.367   8.656
60232SOL    HW182529  13.604   0.393   8.624
60232SOL    HW282530  13.710   0.429   8.727
60233SOL     OW82531   6.764   3.157   0.169
60233SOL    HW182532   6.824   3.107   0.114
60233SOL    HW282533   6.810   3.168   0.252
60234SOL     OW82534  11.498  12.274   1.542
60234SOL    HW182535  11.410  12.236   1.539
60234SOL    HW282536  11.539  12.234   1.618
60235SOL     OW82537   7.134   8.089   5.883
60235SOL    HW182538   7.174   8.169   5.917
60235SOL    HW282539   7.196   8.057   5.817
60236SOL     OW82540  13.612   5.344   4.803
60236SOL    HW182541  13.615   5.259   4.760
60236SOL    HW282542  13.519   5.368   4.801
60237SOL     OW82543   0.387   7.280   4.682
60237SOL    HW182544   0.388   7.373   4.659
60237SOL    HW282545   0.436   7.275   4.764
60238SOL     OW82546   6.782  14.252   8.617
60238SOL    HW182547   6.842  14.218   8.682
60238SOL    HW282548   6.811  14.214   8.534
60239SOL     OW82549   9.447   3.417   9.975
60239SOL    HW182550   9.495   3.486  10.021
60239SOL    HW282551   9.362   3.456   9.956
60240SOL     OW82552   9.560   9.807   3.438
60240SOL    HW182553   9.622   9.868   3.397
60240SOL    HW282554   9.478   9.822   3.392
60241SOL     OW82555  13.989   6.216  13.319
60241SOL    HW182556  13.945   6.136  13.292
60241SOL    HW282557  14.058   6.187  13.379
60242SOL     OW82558   6.292  12.843   1.386
60242SOL    HW182559   6.310  12.754   1.356
60242SOL    HW282560   6.210  12.836   1.434
60243SOL     OW82561  11.566  14.858  13.453
60243SOL    HW182562  11.653   0.021  13.469
60243SOL    HW282563  11.531  14.842  13.540
60244SOL     OW82564   4.471   8.614   1.847
60244SOL    HW182565   4.403   8.680   1.860
60244SOL    HW282566   4.553   8.658   1.868
60245SOL     OW82567   3.211   4.061   6.853
60245SOL    HW182568   3.136   4.007   6.876
60245SOL    HW282569   3.201   4.140   6.905
60246SOL     OW82570   6.448   1.745   4.761
60246SOL    HW182571   6.400   1.819   4.723
60246SOL    HW282572   6.431   1.751   4.855
60247SOL     OW82573  12.212   6.834   5.574
60247SOL    HW182574  12.202   6.767   5.506
60247SOL    HW282575  12.128   6.836   5.619
60248SOL     OW82576   0.307   0.066   3.757
60248SOL    HW182577   0.251   0.046   3.682
60248SOL    HW282578   0.367  14.865   3.764
60249SOL     OW82579   3.309   5.358  12.794
60249SOL    HW182580   3.255   5.317  12.862
60249SOL    HW282581   3.249   5.369  12.720
60250SOL     OW82582   3.988   7.346   2.807
60250SOL    HW182583   4.035   7.267   2.781
60250SOL    HW282584   3.896   7.318   2.811
60251SOL     OW82585  11.532   9.237   0.822
60251SOL    HW182586  11.502   9.211   0.910
60251SOL    HW282587  11.586   9.164   0.793
60252SOL     OW82588   8.932   3.992   6.800
60252SOL    HW182589   8.972   4.077   6.782
60252SOL    HW282590   8.882   3.972   6.721
60253SOL     OW82591  11.341   3.726  10.431
60253SOL    HW182592  11.373   3.669  10.360
60253SOL    HW282593  11.282   3.787  10.388
60254SOL     OW82594  12.076  11.934   4.811
60254SOL    HW182595  12.099  11.856   4.861
60254SOL    HW282596  12.055  11.901   4.723
60255SOL     OW82597   0.993   2.097  10.183
60255SOL    HW182598   0.933   2.034  10.143
60255SOL    HW282599   0.945   2.130  10.259
60256SOL     OW82600  10.695   6.462  11.570
60256SOL    HW182601  10.612   6.441  11.528
60256SOL    HW282602  10.761   6.419  11.516
60257SOL     OW82603   4.203   1.353   2.782
60257SOL    HW182604   4.154   1.320   2.707
60257SOL    HW282605   4.166   1.440   2.799
60258SOL     OW82606   0.683  11.958   1.857
60258SOL    HW182607   0.713  11.878   1.813
60258SOL    HW282608   0.592  11.938   1.882
60259SOL     OW82609   7.778   4.965  13.902
60259SOL    HW182610   7.760   4.874  13.880
60259SOL    HW282611   7.871   4.966  13.926
60260SOL     OW82612   1.479  12.222   4.473
60260SOL    HW182613   1.462  12.206   4.566
60260SOL    HW282614   1.574  12.229   4.467
60261SOL     OW82615   1.418   3.848   2.505
60261SOL    HW182616   1.325   3.826   2.512
60261SOL    HW282617   1.431   3.917   2.571
60262SOL     OW82618   5.481   2.042   4.850
60262SOL    HW182619   5.438   1.994   4.921
60262SOL    HW282620   5.410   2.075   4.796
60263SOL     OW82621   1.340   0.195  11.222
60263SOL    HW182622   1.374   0.162  11.139
60263SOL    HW282623   1.331   0.289  11.208
60264SOL     OW82624   0.198  13.674   9.636
60264SOL    HW182625   0.143  13.630   9.571
60264SOL    HW282626   0.286  13.643   9.618
60265SOL     OW82627   4.157  14.567   7.907
60265SOL    HW182628   4.105  14.644   7.927
60265SOL    HW282629   4.188  14.581   7.817
60266SOL     OW82630  14.023  11.783   7.933
60266SOL    HW182631  14.019  11.772   7.838
60266SOL    HW282632  14.065  11.868   7.946
60267SOL     OW82633  14.153   0.389  13.691
60267SOL    HW182634  14.129   0.418  13.603
60267SOL    HW282635  14.116   0.456  13.749
60268SOL     OW82636   8.330  11.137  14.279
60268SOL    HW182637   8.258  11.131  14.342
60268SOL    HW282638   8.387  11.206  14.314
60269SOL     OW82639  11.612   2.754   3.867
60269SOL    HW182640  11.600   2.679   3.925
60269SOL    HW282641  11.645   2.823   3.924
60270SOL     OW82642   4.729   0.392   2.483
60270SOL    HW182643   4.763   0.310   2.519
60270SOL    HW282644   4.755   0.458   2.548
60271SOL     OW82645   8.792  13.912  12.678
60271SOL    HW182646   8.732  13.986  12.676
60271SOL    HW282647   8.737  13.836  12.697
60272SOL     OW82648  10.456   7.891  12.677
60272SOL    HW182649  10.401   7.966  12.702
60272SOL    HW282650  10.394   7.820  12.660
60273SOL     OW82651  12.949  10.839   8.639
60273SOL    HW182652  12.991  10.917   8.602
60273SOL    HW282653  13.018  10.798   8.692
60274SOL     OW82654  14.657   1.822   5.630
60274SOL    HW182655  14.628   1.769   5.704
60274SOL    HW282656  14.648   1.764   5.554
60275SOL     OW82657   3.023   1.865   9.799
60275SOL    HW182658   2.937   1.890   9.833
60275SOL    HW282659   3.076   1.850   9.877
60276SOL     OW82660  12.953  11.121  13.251
60276SOL    HW182661  12.916  11.032  13.250
60276SOL    HW282662  12.893  11.172  13.197
60277SOL     OW82663   5.882   8.328   5.347
60277SOL    HW182664   5.906   8.277   5.270
60277SOL    HW282665   5.829   8.400   5.313
60278SOL     OW82666  13.192  10.438   6.353
60278SOL    HW182667  13.141  10.489   6.417
60278SOL    HW282668  13.204  10.353   6.395
60279SOL     OW82669   0.614  10.579   5.947
60279SOL    HW182670   0.547  10.644   5.968
60279SOL    HW282671   0.566  10.509   5.903
60280SOL     OW82672   0.565   5.880   8.160
60280SOL    HW182673   0.533   5.867   8.071
60280SOL    HW282674   0.624   5.955   8.155
60281SOL     OW82675   6.682  11.150   8.726
60281SOL    HW182676   6.668  11.083   8.660
60281SOL    HW282677   6.629  11.121   8.801
60282SOL     OW82678   8.052  12.711   3.008
60282SOL    HW182679   8.050  12.725   2.914
60282SOL    HW282680   7.987  12.643   3.024
60283SOL     OW82681  12.123   8.404  13.153
60283SOL    HW182682  12.154   8.495  13.154
60283SOL    HW282683  12.028   8.411  13.160
60284SOL     OW82684   7.045  11.636  12.404
60284SOL    HW182685   7.021  11.676  12.321
60284SOL    HW282686   7.015  11.545  12.397
60285SOL     OW82687  13.165   7.050   2.959
60285SOL    HW182688  13.081   7.017   2.993
60285SOL    HW282689  13.200   6.977   2.908
60286SOL     OW82690  10.081   8.300   7.651
60286SOL    HW182691  10.058   8.302   7.744
60286SOL    HW282692   9.997   8.288   7.606
60287SOL     OW82693   0.524  10.422  14.042
60287SOL    HW182694   0.482  10.382  14.118
60287SOL    HW282695   0.455  10.427  13.975
60288SOL     OW82696  14.370   1.295   7.829
60288SOL    HW182697  14.311   1.229   7.794
60288SOL    HW282698  14.331   1.379   7.804
60289SOL     OW82699  13.932   9.369  11.996
60289SOL    HW182700  14.016   9.346  12.036
60289SOL    HW282701  13.867   9.324  12.049
60290SOL     OW82702   0.690   8.734   8.379
60290SOL    HW182703   0.637   8.755   8.456
60290SOL    HW282704   0.763   8.683   8.413
60291SOL     OW82705   6.338   3.603   9.076
60291SOL    HW182706   6.368   3.694   9.069
60291SOL    HW282707   6.414   3.551   9.054
60292SOL     OW82708   1.051  12.621   3.980
60292SOL    HW182709   1.084  12.543   3.935
60292SOL    HW282710   0.956  12.608   3.984
60293SOL     OW82711   2.157  12.854   0.252
60293SOL    HW182712   2.064  12.864   0.273
60293SOL    HW282713   2.159  12.794   0.177
60294SOL     OW82714  11.101   5.361   9.504
60294SOL    HW182715  11.108   5.337   9.412
60294SOL    HW282716  11.071   5.452   9.503
60295SOL     OW82717  13.303   6.568   2.120
60295SOL    HW182718  13.241   6.564   2.048
60295SOL    HW282719  13.376   6.513   2.093
60296SOL     OW82720  10.338   6.034   9.180
60296SOL    HW182721  10.431   6.042   9.162
60296SOL    HW282722  10.334   5.980   9.259
60297SOL     OW82723  13.431   3.150   9.708
60297SOL    HW182724  13.453   3.165   9.616
60297SOL    HW282725  13.506   3.183   9.757
60298SOL     OW82726   1.786  14.608   4.398
60298SOL    HW182727   1.722  14.672   4.366
60298SOL    HW282728   1.755  14.525   4.363
60299SOL     OW82729  14.770   7.778   7.800
60299SOL    HW182730  14.813   7.791   7.715
60299SOL    HW282731  14.836   7.804   7.864
60300SOL     OW82732  14.290  12.713  12.122
60300SOL    HW182733  14.353  12.762  12.175
60300SOL    HW282734  14.344  12.672  12.054
60301SOL     OW82735  12.096  12.133   2.668
60301SOL    HW182736  12.092  12.038   2.654
60301SOL    HW282737  12.172  12.146   2.723
60302SOL     OW82738  12.472   2.561   5.568
60302SOL    HW182739  12.528   2.565   5.490
60302SOL    HW282740  12.530   2.530   5.637
60303SOL     OW82741  10.202   9.533  12.460
60303SOL    HW182742  10.290   9.535  12.496
60303SOL    HW282743  10.152   9.478  12.521
60304SOL     OW82744  10.388   5.695   9.141
60304SOL    HW182745  10.398   5.604   9.111
60304SOL    HW282746  10.354   5.742   9.065
60305SOL     OW82747  11.624   9.231  12.770
60305SOL    HW182748  11.564   9.195  12.835
60305SOL    HW282749  11.675   9.156  12.739
60306SOL     OW82750  14.553   7.274   9.834
60306SOL    HW182751  14.540   7.367   9.818
60306SOL    HW282752  14.529   7.232   9.751
60307SOL     OW82753  12.488   8.129   3.723
60307SOL    HW182754  12.532   8.188   3.785
60307SOL    HW282755  12.470   8.050   3.775
60308SOL     OW82756  14.641   8.191   0.326
60308SOL    HW182757  14.630   8.283   0.299
60308SOL    HW282758  14.585   8.182   0.403
60309SOL     OW82759  14.806   4.715   4.826
60309SOL    HW182760   0.028   4.714   4.815
60309SOL    HW282761  14.786   4.630   4.865
60310SOL     OW82762  12.913   4.323  12.972
60310SOL    HW182763  12.963   4.343  13.052
60310SOL    HW282764  12.822   4.324  13.001
60311SOL     OW82765   1.518   5.195  11.965
60311SOL    HW182766   1.480   5.130  12.024
60311SOL    HW282767   1.469   5.275  11.982
60312SOL     OW82768   9.084   2.891   3.369
60312SOL    HW182769   9.156   2.844   3.325
60312SOL    HW282770   9.116   2.981   3.377
60313SOL     OW82771  13.266   5.558   7.492
60313SOL    HW182772  13.338   5.526   7.547
60313SOL    HW282773  13.200   5.489   7.499
60314SOL     OW82774   1.187   1.957  14.239
60314SOL    HW182775   1.230   1.891  14.293
60314SOL    HW282776   1.212   2.040  14.279
60315SOL     OW82777  13.898   7.202  11.581
60315SOL    HW182778  13.894   7.182  11.675
60315SOL    HW282779  13.946   7.285  11.577
60316SOL     OW82780   3.594  12.816  11.280
60316SOL    HW182781   3.590  12.731  11.323
60316SOL    HW282782   3.564  12.799  11.190
60317SOL     OW82783   9.493   5.566   4.382
60317SOL    HW182784   9.496   5.655   4.417
60317SOL    HW282785   9.400   5.543   4.384
60318SOL     OW82786  13.771   2.887   9.981
60318SOL    HW182787  13.695   2.890   9.922
60318SOL    HW282788  13.794   2.979   9.995
60319SOL     OW82789   3.462  12.587   8.365
60319SOL    HW182790   3.414  12.661   8.328
60319SOL    HW282791   3.394  12.524   8.388
60320SOL     OW82792   8.368  11.257  11.934
60320SOL    HW182793   8.357  11.319  11.862
60320SOL    HW282794   8.298  11.278  11.995
60321SOL     OW82795   9.585   7.829   5.894
60321SOL    HW182796   9.552   7.901   5.840
60321SOL    HW282797   9.553   7.849   5.982
60322SOL     OW82798   5.920   8.477   7.313
60322SOL    HW182799   5.906   8.382   7.310
60322SOL    HW282800   5.986   8.489   7.381
60323SOL     OW82801   8.491  13.939  11.825
60323SOL    HW182802   8.483  13.859  11.877
60323SOL    HW282803   8.418  13.994  11.852
60324SOL     OW82804  10.143  13.902  13.940
60324SOL    HW182805  10.235  13.928  13.944
60324SOL    HW282806  10.096  13.968  13.992
60325SOL     OW82807   7.679   8.921   5.037
60325SOL    HW182808   7.759   8.892   5.081
60325SOL    HW282809   7.655   8.848   4.980
60326SOL     OW82810   9.412   5.745  11.755
60326SOL    HW182811   9.491   5.733  11.808
60326SOL    HW282812   9.346   5.691  11.798
60327SOL     OW82813   9.657  11.726   1.430
60327SOL    HW182814   9.751  11.739   1.443
60327SOL    HW282815   9.625  11.698   1.515
60328SOL     OW82816  10.520   7.228   5.758
60328SOL    HW182817  10.470   7.163   5.708
60328SOL    HW282818  10.509   7.310   5.709
60329SOL     OW82819   4.708   3.972   3.565
60329SOL    HW182820   4.692   3.884   3.532
60329SOL    HW282821   4.803   3.983   3.559
60330SOL     OW82822   6.626   5.629   6.259
60330SOL    HW182823   6.654   5.609   6.349
60330SOL    HW282824   6.702   5.608   6.205
60331SOL     OW82825   9.491   5.617   1.782
60331SOL    HW182826   9.478   5.526   1.810
60331SOL    HW282827   9.405   5.647   1.755
60332SOL     OW82828  11.521   3.972  10.495
60332SOL    HW182829  11.497   4.047  10.440
60332SOL    HW282830  11.565   3.912  10.435
60333SOL     OW82831   1.691  10.344   3.655
60333SOL    HW182832   1.718  10.264   3.701
60333SOL    HW282833   1.693  10.411   3.723
60334SOL     OW82834  12.420  10.616  11.716
60334SOL    HW182835  12.508  10.609  11.678
60334SOL    HW282836  12.427  10.571  11.800
60335SOL     OW82837  13.395   9.463   3.304
60335SOL    HW182838  13.307   9.424   3.302
60335SOL    HW282839  13.447   9.409   3.245
60336SOL     OW82840   2.973  13.631   2.291
60336SOL    HW182841   3.006  13.554   2.338
60336SOL    HW282842   2.930  13.595   2.214
60337SOL     OW82843   5.679  14.296   4.556
60337SOL    HW182844   5.661  14.215   4.509
60337SOL    HW282845   5.665  14.274   4.648
60338SOL     OW82846   2.580   7.024   0.244
60338SOL    HW182847   2.584   7.119   0.235
60338SOL    HW282848   2.625   7.006   0.327
60339SOL     OW82849  10.152   2.457  13.131
60339SOL    HW182850  10.097   2.474  13.208
60339SOL    HW282851  10.213   2.389  13.160
60340SOL     OW82852   7.349   9.924   5.289
60340SOL    HW182853   7.266   9.882   5.267
60340SOL    HW282854   7.364   9.903   5.381
60341SOL     OW82855   3.820  13.608   8.316
60341SOL    HW182856   3.854  13.697   8.318
60341SOL    HW282857   3.879  13.561   8.257
60342SOL     OW82858  12.794   8.962   6.306
60342SOL    HW182859  12.882   8.936   6.332
60342SOL    HW282860  12.806   9.045   6.261
60343SOL     OW82861   9.469   6.100   3.024
60343SOL    HW182862   9.550   6.063   2.987
60343SOL    HW282863   9.488   6.111   3.117
60344SOL     OW82864  10.086   0.240  11.993
60344SOL    HW182865  10.042   0.222  11.910
60344SOL    HW282866  10.056   0.327  12.018
60345SOL     OW82867  14.464  11.263  11.413
60345SOL    HW182868  14.373  11.293  11.419
60345SOL    HW282869  14.494  11.294  11.328
60346SOL     OW82870  11.209   1.191   8.279
60346SOL    HW182871  11.281   1.196   8.341
60346SOL    HW282872  11.141   1.246   8.317
60347SOL     OW82873   1.329   8.347   1.906
60347SOL    HW182874   1.417   8.383   1.916
60347SOL    HW282875   1.307   8.361   1.814
60348SOL     OW82876   5.322  14.198  13.630
60348SOL    HW182877   5.314  14.293  13.624
60348SOL    HW282878   5.254  14.165  13.571
60349SOL     OW82879   5.582   2.108   1.707
60349SOL    HW182880   5.607   2.129   1.797
60349SOL    HW282881   5.579   2.192   1.662
60350SOL     OW82882  11.270   9.738  13.100
60350SOL    HW182883  11.260   9.646  13.072
60350SOL    HW282884  11.326   9.777  13.033
60351SOL     OW82885  12.023   5.065  13.627
60351SOL    HW182886  11.972   5.145  13.624
60351SOL    HW282887  12.058   5.055  13.538
60352SOL     OW82888  13.611   3.547   7.578
60352SOL    HW182889  13.688   3.581   7.533
60352SOL    HW282890  13.561   3.501   7.510
60353SOL     OW82891   6.592   5.016  12.409
60353SOL    HW182892   6.507   4.971  12.415
60353SOL    HW282893   6.646   4.958  12.355
60354SOL     OW82894   1.409   5.648   1.281
60354SOL    HW182895   1.318   5.622   1.295
60354SOL    HW282896   1.460   5.591   1.339
60355SOL     OW82897   4.722   5.477   3.123
60355SOL    HW182898   4.740   5.553   3.067
60355SOL    HW282899   4.628   5.462   3.114
60356SOL     OW82900   9.633   0.047  13.650
60356SOL    HW182901   9.638   0.129  13.699
60356SOL    HW282902   9.582  14.861  13.706
60357SOL     OW82903   0.881   5.542  11.172
60357SOL    HW182904   0.964   5.537  11.124
60357SOL    HW282905   0.814   5.528  11.105
60358SOL     OW82906  12.527   0.287   1.094
60358SOL    HW182907  12.432   0.277   1.106
60358SOL    HW282908  12.537   0.368   1.045
60359SOL     OW82909   0.261   7.733  11.405
60359SOL    HW182910   0.186   7.675  11.421
60359SOL    HW282911   0.225   7.822  11.416
60360SOL     OW82912   9.012   9.704  14.816
60360SOL    HW182913   9.058   9.705  14.732
60360SOL    HW282914   8.925   9.738  14.795
60361SOL     OW82915  12.294   2.027   3.257
60361SOL    HW182916  12.258   2.082   3.187
60361SOL    HW282917  12.298   2.084   3.333
60362SOL     OW82918  12.123   6.115   2.508
60362SOL    HW182919  12.049   6.098   2.450
60362SOL    HW282920  12.199   6.122   2.450
60363SOL     OW82921   8.057  14.859  10.377
60363SOL    HW182922   8.020  14.771  10.371
60363SOL    HW282923   8.145  14.847  10.413
60364SOL     OW82924   9.669   4.829   7.602
60364SOL    HW182925   9.607   4.827   7.529
60364SOL    HW282926   9.744   4.777   7.571
60365SOL     OW82927  12.544  12.431   1.315
60365SOL    HW182928  12.622  12.378   1.329
60365SOL    HW282929  12.576  12.506   1.264
60366SOL     OW82930   2.449   8.115   7.155
60366SOL    HW182931   2.442   8.196   7.205
60366SOL    HW282932   2.509   8.136   7.084
60367SOL     OW82933   9.950   0.623   6.620
60367SOL    HW182934   9.998   0.704   6.640
60367SOL    HW282935   9.885   0.649   6.555
60368SOL     OW82936  10.567  10.687   7.696
60368SOL    HW182937  10.597  10.725   7.779
60368SOL    HW282938  10.480  10.723   7.684
60369SOL     OW82939   3.833   7.017   7.340
60369SOL    HW182940   3.741   7.043   7.336
60369SOL    HW282941   3.869   7.044   7.255
60370SOL     OW82942   0.066  10.630   2.182
60370SOL    HW182943   0.147  10.617   2.132
60370SOL    HW282944   0.024  10.705   2.141
60371SOL     OW82945  11.916   4.137   1.316
60371SOL    HW182946  11.958   4.191   1.249
60371SOL    HW282947  11.964   4.055   1.314
60372SOL     OW82948  14.346  11.424   1.594
60372SOL    HW182949  14.317  11.449   1.506
60372SOL    HW282950  14.435  11.458   1.601
60373SOL     OW82951  13.029   7.525   4.643
60373SOL    HW182952  13.022   7.433   4.620
60373SOL    HW282953  12.943   7.562   4.624
60374SOL     OW82954  14.407   4.729   6.028
60374SOL    HW182955  14.394   4.799   6.091
60374SOL    HW282956  14.501   4.728   6.011
60375SOL     OW82957   8.985   2.920  13.324
60375SOL    HW182958   8.976   2.844  13.266
60375SOL    HW282959   8.976   2.996  13.266
60376SOL     OW82960   3.899  10.933   4.152
60376SOL    HW182961   3.916  10.855   4.098
60376SOL    HW282962   3.804  10.933   4.164
60377SOL     OW82963   5.816  11.927   3.824
60377SOL    HW182964   5.814  11.831   3.824
60377SOL    HW282965   5.842  11.950   3.735
60378SOL     OW82966   6.062   3.590  13.058
60378SOL    HW182967   6.126   3.589  12.987
60378SOL    HW282968   6.054   3.498  13.084
60379SOL     OW82969  12.883  14.784   7.971
60379SOL    HW182970  12.967  14.829   7.961
60379SOL    HW282971  12.900  14.718   8.039
60380SOL     OW82972   6.955  12.655   7.583
60380SOL    HW182973   6.876  12.642   7.637
60380SOL    HW282974   6.931  12.725   7.522
60381SOL     OW82975   9.336   4.693  10.536
60381SOL    HW182976   9.326   4.788  10.526
60381SOL    HW282977   9.403   4.684  10.603
60382SOL     OW82978   3.883  10.339  13.503
60382SOL    HW182979   3.914  10.281  13.573
60382SOL    HW282980   3.816  10.288  13.458
60383SOL     OW82981   1.007   1.525   0.495
60383SOL    HW182982   0.922   1.503   0.532
60383SOL    HW282983   0.988   1.549   0.404
60384SOL     OW82984   5.280   3.883   8.130
60384SOL    HW182985   5.194   3.921   8.114
60384SOL    HW282986   5.317   3.867   8.043
60385SOL     OW82987  11.622   1.901  10.504
60385SOL    HW182988  11.578   1.816  10.506
60385SOL    HW282989  11.680   1.899  10.580
60386SOL     OW82990  11.141   4.687  11.848
60386SOL    HW182991  11.207   4.733  11.899
60386SOL    HW282992  11.114   4.750  11.781
60387SOL     OW82993   4.809   9.130  13.276
60387SOL    HW182994   4.797   9.058  13.214
60387SOL    HW282995   4.870   9.190  13.233
60388SOL     OW82996  11.130  13.020  14.824
60388SOL    HW182997  11.050  13.035   0.002
60388SOL    HW282998  11.195  12.994   0.017
60389SOL     OW82999   6.208   7.670   3.385
60389SOL    HW183000   6.114   7.657   3.369
60389SOL    HW283001   6.250   7.598   3.338
60390SOL     OW83002   4.875  11.897   6.403
60390SOL    HW183003   4.800  11.952   6.379
60390SOL    HW283004   4.838  11.810   6.414
60391SOL     OW83005   8.002   9.542   8.605
60391SOL    HW183006   7.952   9.467   8.636
60391SOL    HW283007   8.030   9.517   8.517
60392SOL     OW83008  10.964  14.541   7.583
60392SOL    HW183009  10.899  14.546   7.513
60392SOL    HW283010  11.016  14.464   7.562
60393SOL     OW83011  11.015   8.493   0.414
60393SOL    HW183012  11.002   8.576   0.369
60393SOL    HW283013  10.944   8.488   0.478
60394SOL     OW83014   4.245   8.970   4.786
60394SOL    HW183015   4.157   8.958   4.749
60394SOL    HW283016   4.251   9.064   4.803
60395SOL     OW83017   1.293  14.706   2.145
60395SOL    HW183018   1.305  14.796   2.176
60395SOL    HW283019   1.274  14.715   2.052
60396SOL     OW83020   5.015   0.276   6.721
60396SOL    HW183021   5.020   0.329   6.642
60396SOL    HW283022   5.089   0.304   6.774
60397SOL     OW83023   3.576  11.761   6.492
60397SOL    HW183024   3.565  11.668   6.470
60397SOL    HW283025   3.605  11.801   6.411
60398SOL     OW83026   9.628   9.225  11.137
60398SOL    HW183027   9.576   9.242  11.059
60398SOL    HW283028   9.625   9.308  11.186
60399SOL     OW83029   0.567   1.241  13.556
60399SOL    HW183030   0.599   1.325  13.521
60399SOL    HW283031   0.483   1.228  13.514
60400SOL     OW83032   4.590   8.182   5.399
60400SOL    HW183033   4.506   8.136   5.391
60400SOL    HW283034   4.608   8.183   5.493
60401SOL     OW83035   4.242  10.981   0.054
60401SOL    HW183036   4.321  10.978  14.873
60401SOL    HW283037   4.250  10.906   0.112
60402SOL     OW83038   0.160   8.507  12.847
60402SOL    HW183039   0.234   8.482  12.902
60402SOL    HW283040   0.170   8.454  12.768
60403SOL     OW83041   7.346   2.367   2.568
60403SOL    HW183042   7.291   2.304   2.614
60403SOL    HW283043   7.333   2.449   2.616
60404SOL     OW83044  11.945   7.765   5.090
60404SOL    HW183045  11.994   7.685   5.073
60404SOL    HW283046  11.865   7.736   5.133
60405SOL     OW83047   9.646   9.774   9.319
60405SOL    HW183048   9.579   9.841   9.330
60405SOL    HW283049   9.628   9.711   9.388
60406SOL     OW83050   2.753   9.691  13.752
60406SOL    HW183051   2.757   9.781  13.718
60406SOL    HW283052   2.814   9.690  13.825
60407SOL     OW83053   8.991   4.281  10.751
60407SOL    HW183054   8.913   4.323  10.716
60407SOL    HW283055   9.015   4.334  10.827
60408SOL     OW83056   7.491   6.813  12.413
60408SOL    HW183057   7.479   6.889  12.356
60408SOL    HW283058   7.478   6.847  12.502
60409SOL     OW83059   3.182  14.259  14.032
60409SOL    HW183060   3.195  14.233  14.123
60409SOL    HW283061   3.088  14.244  14.016
60410SOL     OW83062  12.265   1.763   4.853
60410SOL    HW183063  12.315   1.840   4.825
60410SOL    HW283064  12.236   1.785   4.942
60411SOL     OW83065   0.679   9.241   0.064
60411SOL    HW183066   0.653   9.240   0.157
60411SOL    HW283067   0.612   9.295   0.022
60412SOL     OW83068   5.878   3.068   4.501
60412SOL    HW183069   5.788   3.076   4.471
60412SOL    HW283070   5.875   3.003   4.571
60413SOL     OW83071  11.696   9.857   3.203
60413SOL    HW183072  11.764   9.917   3.234
60413SOL    HW283073  11.736   9.771   3.206
60414SOL     OW83074   7.007   9.401   7.788
60414SOL    HW183075   6.984   9.470   7.726
60414SOL    HW283076   7.035   9.327   7.734
60415SOL     OW83077   3.336   9.495   3.341
60415SOL    HW183078   3.319   9.589   3.339
60415SOL    HW283079   3.427   9.488   3.370
60416SOL     OW83080   9.772  10.817  11.090
60416SOL    HW183081   9.834  10.835  11.019
60416SOL    HW283082   9.797  10.878  11.159
60417SOL     OW83083  12.127  11.153   2.380
60417SOL    HW183084  12.198  11.207   2.346
60417SOL    HW283085  12.126  11.171   2.474
60418SOL     OW83086   9.519   6.955   0.127
60418SOL    HW183087   9.611   6.952   0.151
60418SOL    HW283088   9.516   7.013   0.050
60419SOL     OW83089  10.389  11.222   0.931
60419SOL    HW183090  10.468  11.171   0.948
60419SOL    HW283091  10.317  11.160   0.940
60420SOL     OW83092   0.118   0.980  10.235
60420SOL    HW183093   0.142   1.013  10.321
60420SOL    HW283094   0.024   0.959  10.242
60421SOL     OW83095  12.807  13.101   7.789
60421SOL    HW183096  12.858  13.047   7.728
60421SOL    HW283097  12.858  13.181   7.798
60422SOL     OW83098   7.072   7.574   3.493
60422SOL    HW183099   7.130   7.600   3.421
60422SOL    HW283100   7.090   7.482   3.507
60423SOL     OW83101  14.353  14.556   4.391
60423SOL    HW183102  14.357  14.528   4.300
60423SOL    HW283103  14.415  14.500   4.437
60424SOL     OW83104   4.664   8.455   9.752
60424SOL    HW183105   4.589   8.499   9.793
60424SOL    HW283106   4.690   8.388   9.816
60425SOL     OW83107   8.479  11.590  12.391
60425SOL    HW183108   8.452  11.682  12.383
60425SOL    HW283109   8.574  11.593  12.386
60426SOL     OW83110   5.205   6.382  10.163
60426SOL    HW183111   5.235   6.299  10.199
60426SOL    HW283112   5.215   6.372  10.068
60427SOL     OW83113   8.338   3.280   0.936
60427SOL    HW183114   8.376   3.228   1.007
60427SOL    HW283115   8.346   3.371   0.967
60428SOL     OW83116   5.858  14.037   6.847
60428SOL    HW183117   5.880  14.028   6.755
60428SOL    HW283118   5.869  14.130   6.867
60429SOL     OW83119  10.398   8.618  13.676
60429SOL    HW183120  10.398   8.544  13.737
60429SOL    HW283121  10.474   8.671  13.701
60430SOL     OW83122   9.472   7.740   2.887
60430SOL    HW183123   9.525   7.812   2.921
60430SOL    HW283124   9.450   7.689   2.965
60431SOL     OW83125   6.306   3.612  12.895
60431SOL    HW183126   6.331   3.647  12.980
60431SOL    HW283127   6.388   3.580  12.857
60432SOL     OW83128   5.048  11.301   1.646
60432SOL    HW183129   4.968  11.251   1.660
60432SOL    HW283130   5.112  11.237   1.616
60433SOL     OW83131  11.311  13.246   9.404
60433SOL    HW183132  11.360  13.214   9.328
60433SOL    HW283133  11.251  13.311   9.368
60434SOL     OW83134   4.889  13.249   9.129
60434SOL    HW183135   4.866  13.293   9.047
60434SOL    HW283136   4.926  13.165   9.102
60435SOL     OW83137   8.020   2.384   0.153
60435SOL    HW183138   7.936   2.428   0.169
60435SOL    HW283139   8.086   2.449   0.178
60436SOL     OW83140   8.525  14.249   1.749
60436SOL    HW183141   8.570  14.171   1.716
60436SOL    HW283142   8.590  14.295   1.802
60437SOL     OW83143   5.741   8.973   7.758
60437SOL    HW183144   5.661   8.925   7.776
60437SOL    HW283145   5.721   9.024   7.679
60438SOL     OW83146  10.607   5.597  13.275
60438SOL    HW183147  10.524   5.615  13.230
60438SOL    HW283148  10.585   5.535  13.344
60439SOL     OW83149   3.963   1.316   3.701
60439SOL    HW183150   3.999   1.403   3.713
60439SOL    HW283151   3.871   1.324   3.723
60440SOL     OW83152   2.570   9.566   3.957
60440SOL    HW183153   2.595   9.581   3.866
60440SOL    HW283154   2.512   9.490   3.953
60441SOL     OW83155   3.377   9.672  10.104
60441SOL    HW183156   3.303   9.720  10.140
60441SOL    HW283157   3.346   9.638  10.020
60442SOL     OW83158   7.854   4.471   4.072
60442SOL    HW183159   7.900   4.504   3.995
60442SOL    HW283160   7.766   4.509   4.066
60443SOL     OW83161   4.600  10.936  13.895
60443SOL    HW183162   4.694  10.957  13.897
60443SOL    HW283163   4.568  10.980  13.816
60444SOL     OW83164  13.639   1.505   4.754
60444SOL    HW183165  13.678   1.566   4.816
60444SOL    HW283166  13.711   1.478   4.698
60445SOL     OW83167  12.268   0.413   9.624
60445SOL    HW183168  12.360   0.439   9.620
60445SOL    HW283169  12.263   0.333   9.572
60446SOL     OW83170  13.787   2.733  12.456
60446SOL    HW183171  13.771   2.804  12.519
60446SOL    HW283172  13.868   2.759  12.412
60447SOL     OW83173   0.741  11.410  13.303
60447SOL    HW183174   0.708  11.371  13.384
60447SOL    HW283175   0.741  11.504  13.319
60448SOL     OW83176   8.354  11.278  10.661
60448SOL    HW183177   8.291  11.216  10.626
60448SOL    HW283178   8.395  11.232  10.734
60449SOL     OW83179  10.711   6.311   4.702
60449SOL    HW183180  10.807   6.305   4.700
60449SOL    HW283181  10.686   6.333   4.613
60450SOL     OW83182   9.158  11.574   2.770
60450SOL    HW183183   9.202  11.525   2.839
60450SOL    HW283184   9.201  11.659   2.770
60451SOL     OW83185  11.565   4.935   5.150
60451SOL    HW183186  11.536   4.844   5.153
60451SOL    HW283187  11.541   4.971   5.235
60452SOL     OW83188   4.146  12.101   6.398
60452SOL    HW183189   4.077  12.147   6.444
60452SOL    HW283190   4.227  12.139   6.432
60453SOL     OW83191   8.272   9.401  12.343
60453SOL    HW183192   8.231   9.447  12.416
60453SOL    HW283193   8.230   9.315  12.342
60454SOL     OW83194   2.568  10.615  10.895
60454SOL    HW183195   2.549  10.598  10.987
60454SOL    HW283196   2.503  10.563  10.847
60455SOL     OW83197   6.443  13.280   0.690
60455SOL    HW183198   6.487  13.364   0.678
60455SOL    HW283199   6.368  13.283   0.631
60456SOL     OW83200   4.292   5.542   0.498
60456SOL    HW183201   4.216   5.501   0.455
60456SOL    HW283202   4.332   5.595   0.430
60457SOL     OW83203   0.933  14.548   5.800
60457SOL    HW183204   0.992  14.474   5.787
60457SOL    HW283205   0.848  14.509   5.820
60458SOL     OW83206  12.158  10.255  12.533
60458SOL    HW183207  12.102  10.317  12.487
60458SOL    HW283208  12.246  10.288  12.520
60459SOL     OW83209   4.805   2.049   4.571
60459SOL    HW183210   4.723   2.071   4.614
60459SOL    HW283211   4.846   1.984   4.628
60460SOL     OW83212  14.135   4.364   9.189
60460SOL    HW183213  14.220   4.339   9.154
60460SOL    HW283214  14.113   4.293   9.250
60461SOL     OW83215   9.015   1.399   6.389
60461SOL    HW183216   9.055   1.312   6.392
60461SOL    HW283217   9.086   1.457   6.359
60462SOL     OW83218   3.841  11.909   0.360
60462SOL    HW183219   3.801  11.868   0.437
60462SOL    HW283220   3.804  11.861   0.285
60463SOL     OW83221  11.889  14.169   7.963
60463SOL    HW183222  11.975  14.131   7.948
60463SOL    HW283223  11.827  14.103   7.932
60464SOL     OW83224   8.964   3.142  14.209
60464SOL    HW183225   9.024   3.146  14.135
60464SOL    HW283226   9.019   3.156  14.286
60465SOL     OW83227  11.711  12.756  13.907
60465SOL    HW183228  11.672  12.841  13.928
60465SOL    HW283229  11.646  12.714  13.851
60466SOL     OW83230   7.787   1.104   3.161
60466SOL    HW183231   7.757   1.025   3.205
60466SOL    HW283232   7.876   1.084   3.134
60467SOL     OW83233  10.271   4.822   3.037
60467SOL    HW183234  10.213   4.795   2.965
60467SOL    HW283235  10.311   4.741   3.068
60468SOL     OW83236   5.885  11.238  12.184
60468SOL    HW183237   5.912  11.325  12.214
60468SOL    HW283238   5.912  11.234  12.093
60469SOL     OW83239   9.088   6.838   8.326
60469SOL    HW183240   9.137   6.921   8.320
60469SOL    HW283241   9.102   6.796   8.241
60470SOL     OW83242   8.872   5.878   4.023
60470SOL    HW183243   8.938   5.901   3.957
60470SOL    HW283244   8.796   5.849   3.973
60471SOL     OW83245   6.668   5.604   4.962
60471SOL    HW183246   6.669   5.645   4.875
60471SOL    HW283247   6.617   5.524   4.949
60472SOL     OW83248   0.097  12.144   4.872
60472SOL    HW183249   0.160  12.205   4.911
60472SOL    HW283250   0.106  12.065   4.924
60473SOL     OW83251   6.723  14.433   5.223
60473SOL    HW183252   6.672  14.353   5.212
60473SOL    HW283253   6.815  14.403   5.219
60474SOL     OW83254  13.348   8.532  11.412
60474SOL    HW183255  13.363   8.627  11.410
60474SOL    HW283256  13.321   8.515  11.503
60475SOL     OW83257  11.150   8.141  10.503
60475SOL    HW183258  11.191   8.104  10.424
60475SOL    HW283259  11.207   8.114  10.575
60476SOL     OW83260   1.257   2.922   8.435
60476SOL    HW183261   1.311   2.939   8.512
60476SOL    HW283262   1.181   2.980   8.446
60477SOL     OW83263   1.093  12.198  13.994
60477SOL    HW183264   1.096  12.105  14.016
60477SOL    HW283265   1.105  12.243  14.078
60478SOL     OW83266   3.505  12.535   7.351
60478SOL    HW183267   3.567  12.548   7.422
60478SOL    HW283268   3.425  12.579   7.380
60479SOL     OW83269   4.302  12.457   1.002
60479SOL    HW183270   4.396  12.476   0.993
60479SOL    HW283271   4.263  12.488   0.920
60480SOL     OW83272  14.563   6.927   3.522
60480SOL    HW183273  14.566   6.875   3.602
60480SOL    HW283274  14.536   6.866   3.454
60481SOL     OW83275   4.451   8.672   7.978
60481SOL    HW183276   4.434   8.622   7.898
60481SOL    HW283277   4.495   8.752   7.947
60482SOL     OW83278  11.321   2.211   9.697
60482SOL    HW183279  11.234   2.217   9.737
60482SOL    HW283280  11.356   2.129   9.730
60483SOL     OW83281   9.638  14.102  14.323
60483SOL    HW183282   9.710  14.051  14.287
60483SOL    HW283283   9.602  14.149  14.248
60484SOL     OW83284  13.520   3.301   3.520
60484SOL    HW183285  13.438   3.290   3.471
60484SOL    HW283286  13.532   3.396   3.527
60485SOL     OW83287   3.906  14.869  12.635
60485SOL    HW183288   3.813   0.010  12.618
60485SOL    HW283289   3.920  14.776  12.618
60486SOL     OW83290   7.015  12.898  10.043
60486SOL    HW183291   7.087  12.834  10.048
60486SOL    HW283292   6.939  12.851  10.078
60487SOL     OW83293   9.486   8.371   7.615
60487SOL    HW183294   9.568   8.415   7.640
60487SOL    HW283295   9.452   8.335   7.697
60488SOL     OW83296   0.770  13.619   6.849
60488SOL    HW183297   0.798  13.543   6.900
60488SOL    HW283298   0.768  13.691   6.913
60489SOL     OW83299  11.856   8.320   6.655
60489SOL    HW183300  11.762   8.334   6.664
60489SOL    HW283301  11.878   8.262   6.729
60490SOL     OW83302   6.627  12.461  10.194
60490SOL    HW183303   6.661  12.377  10.226
60490SOL    HW283304   6.687  12.485  10.123
60491SOL     OW83305   0.503   8.961   3.047
60491SOL    HW183306   0.502   8.913   3.130
60491SOL    HW283307   0.462   9.045   3.067
60492SOL     OW83308  10.100   7.644   3.852
60492SOL    HW183309  10.111   7.727   3.898
60492SOL    HW283310  10.029   7.600   3.899
60493SOL     OW83311   8.824   1.561  10.887
60493SOL    HW183312   8.883   1.594  10.954
60493SOL    HW283313   8.760   1.630  10.875
60494SOL     OW83314   4.052   3.135   3.413
60494SOL    HW183315   4.113   3.078   3.459
60494SOL    HW283316   4.107   3.199   3.368
60495SOL     OW83317   1.020  14.643   5.461
60495SOL    HW183318   1.060  14.674   5.380
60495SOL    HW283319   0.996  14.722   5.509
60496SOL     OW83320  14.314   3.870   6.708
60496SOL    HW183321  14.313   3.807   6.636
60496SOL    HW283322  14.273   3.949   6.673
60497SOL     OW83323   2.364   6.666   8.805
60497SOL    HW183324   2.330   6.670   8.894
60497SOL    HW283325   2.400   6.577   8.798
60498SOL     OW83326   2.601  12.311  12.708
60498SOL    HW183327   2.646  12.369  12.648
60498SOL    HW283328   2.617  12.223  12.674
60499SOL     OW83329  14.316  12.943   7.117
60499SOL    HW183330  14.397  12.993   7.110
60499SOL    HW283331  14.340  12.855   7.087
60500SOL     OW83332  11.327   3.319  12.683
60500SOL    HW183333  11.313   3.354  12.771
60500SOL    HW283334  11.330   3.397  12.626
60501SOL     OW83335   7.873   9.779   8.543
60501SOL    HW183336   7.783   9.753   8.561
60501SOL    HW283337   7.925   9.702   8.566
60502SOL     OW83338   6.922   4.863   8.952
60502SOL    HW183339   6.935   4.779   8.994
60502SOL    HW283340   6.853   4.848   8.887
60503SOL     OW83341   8.334   4.636   8.725
60503SOL    HW183342   8.400   4.701   8.700
60503SOL    HW283343   8.330   4.643   8.821
60504SOL     OW83344   5.140   4.274   9.400
60504SOL    HW183345   5.107   4.192   9.438
60504SOL    HW283346   5.072   4.301   9.339
60505SOL     OW83347  10.790   0.993   4.119
60505SOL    HW183348  10.796   0.964   4.027
60505SOL    HW283349  10.877   0.974   4.154
60506SOL     OW83350   6.875   1.009   0.770
60506SOL    HW183351   6.894   1.101   0.785
60506SOL    HW283352   6.784   0.998   0.797
60507SOL     OW83353   0.518  10.825  10.156
60507SOL    HW183354   0.546  10.901  10.207
60507SOL    HW283355   0.599  10.788  10.121
60508SOL     OW83356   3.309   9.842   6.525
60508SOL    HW183357   3.226   9.804   6.553
60508SOL    HW283358   3.316   9.818   6.432
60509SOL     OW83359   5.175  14.485   8.411
60509SOL    HW183360   5.105  14.532   8.456
60509SOL    HW283361   5.242  14.472   8.479
60510SOL     OW83362   0.574   3.985  12.337
60510SOL    HW183363   0.556   3.898  12.301
60510SOL    HW283364   0.499   4.038  12.310
60511SOL     OW83365   8.337   4.421   0.230
60511SOL    HW183366   8.405   4.489   0.229
60511SOL    HW283367   8.364   4.359   0.163
60512SOL     OW83368   1.442   6.377   3.214
60512SOL    HW183369   1.514   6.383   3.276
60512SOL    HW283370   1.480   6.407   3.131
60513SOL     OW83371   4.046  13.931  12.154
60513SOL    HW183372   4.050  13.991  12.079
60513SOL    HW283373   3.958  13.944  12.190
60514SOL     OW83374  13.042   4.243   9.898
60514SOL    HW183375  13.104   4.192   9.950
60514SOL    HW283376  12.982   4.281   9.963
60515SOL     OW83377   7.606   2.928   8.705
60515SOL    HW183378   7.701   2.923   8.719
60515SOL    HW283379   7.597   2.971   8.620
60516SOL     OW83380   8.388   5.176  14.378
60516SOL    HW183381   8.381   5.265  14.413
60516SOL    HW283382   8.471   5.176  14.331
60517SOL     OW83383   9.116   4.497   6.115
60517SOL    HW183384   9.093   4.411   6.081
60517SOL    HW283385   9.065   4.506   6.195
60518SOL     OW83386   9.997  11.227   8.409
60518SOL    HW183387  10.028  11.269   8.329
60518SOL    HW283388  10.042  11.273   8.480
60519SOL     OW83389  12.711   3.083   4.242
60519SOL    HW183390  12.763   3.044   4.312
60519SOL    HW283391  12.690   3.010   4.183
60520SOL     OW83392   9.821   3.432   3.327
60520SOL    HW183393   9.884   3.456   3.260
60520SOL    HW283394   9.846   3.343   3.353
60521SOL     OW83395   1.530   2.489   5.699
60521SOL    HW183396   1.583   2.410   5.699
60521SOL    HW283397   1.454   2.467   5.645
60522SOL     OW83398  10.311   1.763   8.390
60522SOL    HW183399  10.367   1.840   8.400
60522SOL    HW283400  10.322   1.714   8.472
60523SOL     OW83401   8.972   7.308   2.150
60523SOL    HW183402   8.919   7.258   2.213
60523SOL    HW283403   9.049   7.335   2.200
60524SOL     OW83404   0.201   3.422  11.683
60524SOL    HW183405   0.263   3.461  11.744
60524SOL    HW283406   0.139   3.375  11.738
60525SOL     OW83407  12.964  14.426  13.408
60525SOL    HW183408  13.006  14.467  13.333
60525SOL    HW283409  12.896  14.371  13.370
60526SOL     OW83410   3.352   5.783   0.781
60526SOL    HW183411   3.435   5.831   0.786
60526SOL    HW283412   3.356   5.722   0.855
60527SOL     OW83413   0.532   9.974   8.605
60527SOL    HW183414   0.552   9.894   8.556
60527SOL    HW283415   0.501  10.036   8.539
60528SOL     OW83416  14.595   4.557   5.810
60528SOL    HW183417  14.652   4.619   5.765
60528SOL    HW283418  14.513   4.561   5.762
60529SOL     OW83419   4.223  10.274   3.468
60529SOL    HW183420   4.271  10.356   3.471
60529SOL    HW283421   4.290  10.206   3.475
60530SOL     OW83422   2.994   0.371   9.146
60530SOL    HW183423   2.964   0.394   9.058
60530SOL    HW283424   3.060   0.303   9.132
60531SOL     OW83425  13.693   3.324   6.499
60531SOL    HW183426  13.605   3.286   6.496
60531SOL    HW283427  13.741   3.269   6.561
60532SOL     OW83428   4.425   0.058  12.075
60532SOL    HW183429   4.519   0.069  12.057
60532SOL    HW283430   4.392   0.148  12.083
60533SOL     OW83431  10.431  11.543   4.528
60533SOL    HW183432  10.428  11.517   4.436
60533SOL    HW283433  10.517  11.584   4.539
60534SOL     OW83434   3.813  12.079   8.009
60534SOL    HW183435   3.820  12.087   8.104
60534SOL    HW283436   3.886  12.024   7.984
60535SOL     OW83437   5.255   9.167  12.581
60535SOL    HW183438   5.255   9.247  12.528
60535SOL    HW283439   5.342   9.165  12.622
60536SOL     OW83440  10.424  10.877   5.648
60536SOL    HW183441  10.483  10.952   5.642
60536SOL    HW283442  10.402  10.855   5.558
60537SOL     OW83443   7.074   5.194   0.009
60537SOL    HW183444   7.122   5.111   0.002
60537SOL    HW283445   7.072   5.213   0.102
60538SOL     OW83446   6.696   3.282   4.294
60538SOL    HW183447   6.618   3.332   4.319
60538SOL    HW283448   6.747   3.275   4.375
60539SOL     OW83449  12.455   2.253   8.422
60539SOL    HW183450  12.384   2.277   8.481
60539SOL    HW283451  12.466   2.158   8.435
60540SOL     OW83452  10.587  10.895  10.505
60540SOL    HW183453  10.506  10.935  10.474
60540SOL    HW283454  10.575  10.887  10.600
60541SOL     OW83455   7.265  12.686  14.773
60541SOL    HW183456   7.350  12.730  14.784
60541SOL    HW283457   7.244  12.654  14.860
60542SOL     OW83458   0.983   8.235   5.078
60542SOL    HW183459   1.074   8.228   5.108
60542SOL    HW283460   0.978   8.173   5.004
60543SOL     OW83461   5.005  14.154  10.032
60543SOL    HW183462   4.957  14.099   9.970
60543SOL    HW283463   5.003  14.105  10.114
60544SOL     OW83464   5.792   8.097   2.307
60544SOL    HW183465   5.711   8.131   2.269
60544SOL    HW283466   5.853   8.171   2.301
60545SOL     OW83467  10.171   2.492  11.717
60545SOL    HW183468  10.161   2.425  11.785
60545SOL    HW283469  10.088   2.492  11.670
60546SOL     OW83470   3.020   1.319   6.755
60546SOL    HW183471   2.986   1.375   6.826
60546SOL    HW283472   3.086   1.373   6.712
60547SOL     OW83473   2.040   2.383   9.032
60547SOL    HW183474   1.961   2.435   9.018
60547SOL    HW283475   2.082   2.379   8.946
60548SOL     OW83476   5.152   5.542  12.323
60548SOL    HW183477   5.191   5.503  12.401
60548SOL    HW283478   5.126   5.630  12.351
60549SOL     OW83479  12.621  14.872   1.159
60549SOL    HW183480  12.672  14.804   1.203
60549SOL    HW283481  12.581   0.049   1.230
60550SOL     OW83482   4.922  12.348   0.156
60550SOL    HW183483   4.933  12.432   0.201
60550SOL    HW283484   4.994  12.345   0.093
60551SOL     OW83485  11.132   0.203   5.009
60551SOL    HW183486  11.120   0.119   4.965
60551SOL    HW283487  11.218   0.232   4.982
60552SOL     OW83488   0.462  10.269   7.960
60552SOL    HW183489   0.403  10.203   7.924
60552SOL    HW283490   0.548  10.245   7.928
60553SOL     OW83491   2.285   3.397  11.967
60553SOL    HW183492   2.373   3.378  11.999
60553SOL    HW283493   2.271   3.489  11.989
60554SOL     OW83494   9.612   3.327  11.301
60554SOL    HW183495   9.588   3.355  11.389
60554SOL    HW283496   9.644   3.407  11.258
60555SOL     OW83497   5.159  11.575   4.007
60555SOL    HW183498   5.068  11.558   3.983
60555SOL    HW283499   5.203  11.490   3.999
60556SOL     OW83500   1.104   3.125   5.920
60556SOL    HW183501   1.068   3.049   5.875
60556SOL    HW283502   1.124   3.188   5.850
60557SOL     OW83503  10.492  13.783  14.575
60557SOL    HW183504  10.535  13.793  14.660
60557SOL    HW283505  10.550  13.726  14.525
60558SOL     OW83506   5.716  11.466   3.439
60558SOL    HW183507   5.705  11.500   3.528
60558SOL    HW283508   5.726  11.543   3.385
60559SOL     OW83509   5.357   1.162   6.345
60559SOL    HW183510   5.345   1.187   6.253
60559SOL    HW283511   5.376   1.244   6.390
60560SOL     OW83512   8.976   6.887  12.254
60560SOL    HW183513   9.002   6.938  12.330
60560SOL    HW283514   9.058   6.859  12.214
60561SOL     OW83515  11.932   1.018   3.731
60561SOL    HW183516  11.917   0.950   3.666
60561SOL    HW283517  11.862   1.082   3.716
60562SOL     OW83518   2.101   0.079   7.582
60562SOL    HW183519   2.169   0.015   7.606
60562SOL    HW283520   2.140   0.164   7.604
60563SOL     OW83521  10.799   6.735  13.144
60563SOL    HW183522  10.807   6.650  13.100
60563SOL    HW283523  10.857   6.793  13.094
60564SOL     OW83524  13.515  14.047   6.207
60564SOL    HW183525  13.424  14.043   6.234
60564SOL    HW283526  13.524  13.978   6.141
60565SOL     OW83527   3.892   4.350   0.586
60565SOL    HW183528   3.937   4.330   0.668
60565SOL    HW283529   3.811   4.300   0.590
60566SOL     OW83530   0.784  13.741   9.428
60566SOL    HW183531   0.810  13.786   9.348
60566SOL    HW283532   0.748  13.810   9.484
60567SOL     OW83533  10.344  11.207  10.533
60567SOL    HW183534  10.349  11.281  10.474
60567SOL    HW283535  10.435  11.182  10.549
60568SOL     OW83536  10.106   1.966   0.539
60568SOL    HW183537  10.138   1.877   0.526
60568SOL    HW283538  10.095   1.975   0.633
60569SOL     OW83539  13.841   7.440   3.612
60569SOL    HW183540  13.931   7.454   3.639
60569SOL    HW283541  13.804   7.382   3.678
60570SOL     OW83542   3.756   2.386   2.061
60570SOL    HW183543   3.719   2.317   2.006
60570SOL    HW283544   3.846   2.396   2.030
60571SOL     OW83545  14.462   7.565   9.265
60571SOL    HW183546  14.513   7.623   9.208
60571SOL    HW283547  14.442   7.620   9.341
60572SOL     OW83548   8.007   4.771   8.674
60572SOL    HW183549   8.014   4.754   8.580
60572SOL    HW283550   7.937   4.837   8.681
60573SOL     OW83551   1.476  12.448  10.343
60573SOL    HW183552   1.455  12.386  10.413
60573SOL    HW283553   1.435  12.410  10.265
60574SOL     OW83554  10.454   5.192   1.573
60574SOL    HW183555  10.366   5.186   1.536
60574SOL    HW283556  10.507   5.228   1.502
60575SOL     OW83557   6.259  10.939   0.692
60575SOL    HW183558   6.176  10.941   0.645
60575SOL    HW283559   6.250  11.007   0.759
60576SOL     OW83560   8.367  13.953   4.232
60576SOL    HW183561   8.399  13.870   4.197
60576SOL    HW283562   8.432  13.979   4.297
60577SOL     OW83563   3.207  14.223  14.336
60577SOL    HW183564   3.211  14.315  14.313
60577SOL    HW283565   3.178  14.222  14.427
60578SOL     OW83566   4.846  13.717   6.914
60578SOL    HW183567   4.786  13.726   6.988
60578SOL    HW283568   4.796  13.748   6.839
60579SOL     OW83569   9.567   4.726   0.063
60579SOL    HW183570   9.659   4.700   0.062
60579SOL    HW283571   9.558   4.784  14.860
60580SOL     OW83572   2.781   4.479   3.102
60580SOL    HW183573   2.731   4.553   3.136
60580SOL    HW283574   2.816   4.510   3.018
60581SOL     OW83575   0.165   6.592   0.509
60581SOL    HW183576   0.208   6.507   0.521
60581SOL    HW283577   0.124   6.611   0.593
60582SOL     OW83578   7.343  14.587   7.439
60582SOL    HW183579   7.314  14.678   7.437
60582SOL    HW283580   7.437  14.592   7.455
60583SOL     OW83581  10.227  12.870  14.810
60583SOL    HW183582  10.205  12.941  14.750
60583SOL    HW283583  10.143  12.845  14.849
60584SOL     OW83584   9.666   3.624   4.837
60584SOL    HW183585   9.698   3.694   4.780
60584SOL    HW283586   9.627   3.670   4.911
60585SOL     OW83587   3.196   0.152   7.356
60585SOL    HW183588   3.138   0.185   7.288
60585SOL    HW283589   3.269   0.214   7.358
60586SOL     OW83590   0.232  13.658  13.651
60586SOL    HW183591   0.213  13.575  13.695
60586SOL    HW283592   0.291  13.704  13.710
60587SOL     OW83593   7.132   2.114   9.503
60587SOL    HW183594   7.212   2.165   9.491
60587SOL    HW283595   7.125   2.103   9.598
60588SOL     OW83596   9.050   3.710   7.634
60588SOL    HW183597   9.008   3.790   7.665
60588SOL    HW283598   9.061   3.656   7.713
60589SOL     OW83599  11.303   3.328  10.976
60589SOL    HW183600  11.272   3.297  10.891
60589SOL    HW283601  11.398   3.322  10.971
60590SOL     OW83602  14.389   5.274   2.718
60590SOL    HW183603  14.353   5.225   2.792
60590SOL    HW283604  14.469   5.227   2.694
60591SOL     OW83605  13.624   6.651   2.555
60591SOL    HW183606  13.548   6.664   2.498
60591SOL    HW283607  13.658   6.739   2.572
60592SOL     OW83608   1.551   3.410   1.706
60592SOL    HW183609   1.629   3.359   1.684
60592SOL    HW283610   1.583   3.480   1.763
60593SOL     OW83611   5.329  12.025   7.999
60593SOL    HW183612   5.341  12.101   7.943
60593SOL    HW283613   5.234  12.011   8.001
60594SOL     OW83614  14.461   8.704   5.011
60594SOL    HW183615  14.417   8.782   5.046
60594SOL    HW283616  14.424   8.631   5.060
60595SOL     OW83617  10.658   0.344   1.758
60595SOL    HW183618  10.646   0.292   1.679
60595SOL    HW283619  10.598   0.305   1.822
60596SOL     OW83620   2.230  11.128   0.733
60596SOL    HW183621   2.300  11.094   0.677
60596SOL    HW283622   2.243  11.082   0.816
60597SOL     OW83623   0.517   0.604   3.946
60597SOL    HW183624   0.483   0.600   4.036
60597SOL    HW283625   0.612   0.596   3.956
60598SOL     OW83626  11.643  14.667   8.758
60598SOL    HW183627  11.673  14.577   8.745
60598SOL    HW283628  11.668  14.688   8.848
60599SOL     OW83629   0.570   5.152   3.024
60599SOL    HW183630   0.576   5.107   2.940
60599SOL    HW283631   0.643   5.214   3.024
60600SOL     OW83632   2.864   9.847   3.056
60600SOL    HW183633   2.940   9.809   3.100
60600SOL    HW283634   2.884   9.838   2.963
60601SOL     OW83635   5.065   4.277  13.296
60601SOL    HW183636   5.150   4.304  13.331
60601SOL    HW283637   5.051   4.335  13.222
60602SOL     OW83638  11.096   0.837   4.501
60602SOL    HW183639  11.154   0.782   4.554
60602SOL    HW283640  11.044   0.886   4.565
60603SOL     OW83641   3.665  13.725   8.635
60603SOL    HW183642   3.671  13.715   8.730
60603SOL    HW283643   3.731  13.665   8.601
60604SOL     OW83644  10.214  10.823   4.715
60604SOL    HW183645  10.174  10.881   4.651
60604SOL    HW283646  10.282  10.876   4.756
60605SOL     OW83647  10.060  10.428   5.065
60605SOL    HW183648  10.142  10.408   5.109
60605SOL    HW283649  10.072  10.516   5.029
60606SOL     OW83650  11.789   6.319   0.836
60606SOL    HW183651  11.797   6.366   0.753
60606SOL    HW283652  11.800   6.226   0.812
60607SOL     OW83653   2.958   4.460  12.383
60607SOL    HW183654   3.032   4.411  12.420
60607SOL    HW283655   2.997   4.512  12.313
60608SOL     OW83656   4.651   0.359   2.219
60608SOL    HW183657   4.662   0.392   2.308
60608SOL    HW283658   4.615   0.433   2.170
60609SOL     OW83659  12.743   4.445   5.473
60609SOL    HW183660  12.784   4.367   5.436
60609SOL    HW283661  12.816   4.497   5.505
60610SOL     OW83662  12.475   8.795   8.347
60610SOL    HW183663  12.495   8.774   8.438
60610SOL    HW283664  12.471   8.711   8.303
60611SOL     OW83665  13.104   3.831   8.004
60611SOL    HW183666  13.184   3.829   7.951
60611SOL    HW283667  13.121   3.769   8.075
60612SOL     OW83668   8.285   8.104  13.323
60612SOL    HW183669   8.322   8.024  13.360
60612SOL    HW283670   8.199   8.079  13.291
60613SOL     OW83671   3.771   4.069  14.265
60613SOL    HW183672   3.849   4.053  14.213
60613SOL    HW283673   3.792   4.145  14.319
60614SOL     OW83674   3.489   7.077   2.291
60614SOL    HW183675   3.464   7.103   2.380
60614SOL    HW283676   3.495   6.982   2.294
60615SOL     OW83677  10.782   0.785   8.994
60615SOL    HW183678  10.747   0.708   9.038
60615SOL    HW283679  10.857   0.752   8.944
60616SOL     OW83680  13.886  12.556   9.446
60616SOL    HW183681  13.972  12.595   9.429
60616SOL    HW283682  13.830  12.591   9.376
60617SOL     OW83683   3.768   2.106   5.800
60617SOL    HW183684   3.836   2.095   5.734
60617SOL    HW283685   3.715   2.179   5.767
60618SOL     OW83686  10.274   2.428   2.847
60618SOL    HW183687  10.237   2.421   2.759
60618SOL    HW283688  10.280   2.338   2.878
60619SOL     OW83689   1.689  12.314   4.816
60619SOL    HW183690   1.616  12.262   4.849
60619SOL    HW283691   1.744  12.330   4.892
60620SOL     OW83692   3.950   7.845   0.002
60620SOL    HW183693   3.947   7.868   0.095
60620SOL    HW283694   4.043   7.838  14.854
60621SOL     OW83695  14.848   7.907  13.113
60621SOL    HW183696  14.820   7.870  13.197
60621SOL    HW283697   0.071   7.898  13.114
60622SOL     OW83698   3.601   8.664   0.687
60622SOL    HW183699   3.508   8.685   0.685
60622SOL    HW283700   3.605   8.569   0.694
60623SOL     OW83701   9.696   0.115   6.024
60623SOL    HW183702   9.631   0.179   6.055
60623SOL    HW283703   9.755   0.103   6.099
60624SOL     OW83704   8.056   8.640  14.738
60624SOL    HW183705   8.028   8.648  14.829
60624SOL    HW283706   8.149   8.618  14.743
60625SOL     OW83707   9.275  14.008   4.087
60625SOL    HW183708   9.276  13.912   4.085
60625SOL    HW283709   9.216  14.033   4.016
60626SOL     OW83710  12.724   7.187   4.230
60626SOL    HW183711  12.707   7.154   4.142
60626SOL    HW283712  12.813   7.222   4.226
60627SOL     OW83713   9.405   5.005   4.488
60627SOL    HW183714   9.425   4.981   4.398
60627SOL    HW283715   9.413   5.100   4.491
60628SOL     OW83716   7.662   7.633   2.111
60628SOL    HW183717   7.681   7.549   2.070
60628SOL    HW283718   7.693   7.698   2.049
60629SOL     OW83719   3.032  12.672   7.993
60629SOL    HW183720   2.966  12.706   7.932
60629SOL    HW283721   3.027  12.577   7.983
60630SOL     OW83722   7.684   9.671  12.161
60630SOL    HW183723   7.761   9.724  12.181
60630SOL    HW283724   7.622   9.733  12.122
60631SOL     OW83725   4.022   5.738  14.360
60631SOL    HW183726   3.959   5.780  14.419
60631SOL    HW283727   3.992   5.762  14.273
60632SOL     OW83728  10.796   7.340  10.998
60632SOL    HW183729  10.759   7.337  11.086
60632SOL    HW283730  10.888   7.364  11.011
60633SOL     OW83731  12.631   5.140   2.645
60633SOL    HW183732  12.688   5.099   2.710
60633SOL    HW283733  12.548   5.151   2.691
60634SOL     OW83734  10.052   5.700   0.008
60634SOL    HW183735  10.039   5.722   0.100
60634SOL    HW283736  10.137   5.738  14.859
60635SOL     OW83737   5.717   3.122   5.036
60635SOL    HW183738   5.701   3.196   5.095
60635SOL    HW283739   5.795   3.148   4.986
60636SOL     OW83740  10.479   0.385  14.656
60636SOL    HW183741  10.490   0.398  14.562
60636SOL    HW283742  10.460   0.473  14.690
60637SOL     OW83743  14.488   4.825   8.461
60637SOL    HW183744  14.530   4.798   8.543
60637SOL    HW283745  14.404   4.862   8.489
60638SOL     OW83746   7.968   4.404  14.646
60638SOL    HW183747   7.918   4.440  14.573
60638SOL    HW283748   7.903   4.387  14.713
60639SOL     OW83749   6.831   6.838   5.480
60639SOL    HW183750   6.774   6.766   5.507
60639SOL    HW283751   6.864   6.812   5.394
60640SOL     OW83752   8.452   3.819  10.087
60640SOL    HW183753   8.539   3.860  10.090
60640SOL    HW283754   8.455   3.752  10.155
60641SOL     OW83755  12.644   9.919  11.088
60641SOL    HW183756  12.691   9.883  11.163
60641SOL    HW283757  12.559   9.945  11.124
60642SOL     OW83758  11.939   4.969   0.725
60642SOL    HW183759  11.997   5.028   0.675
60642SOL    HW283760  11.996   4.930   0.791
60643SOL     OW83761  10.037  12.738  10.666
60643SOL    HW183762  10.094  12.661  10.663
60643SOL    HW283763  10.095  12.811  10.687
60644SOL     OW83764  12.189   8.628   3.071
60644SOL    HW183765  12.121   8.583   3.122
60644SOL    HW283766  12.248   8.558   3.044
60645SOL     OW83767   7.647  10.763  10.368
60645SOL    HW183768   7.657  10.769  10.463
60645SOL    HW283769   7.595  10.840  10.345
60646SOL     OW83770   8.205   7.356   9.425
60646SOL    HW183771   8.196   7.323   9.515
60646SOL    HW283772   8.122   7.399   9.407
60647SOL     OW83773   4.326  13.096   9.269
60647SOL    HW183774   4.239  13.107   9.230
60647SOL    HW283775   4.337  13.174   9.323
60648SOL     OW83776   8.531   0.936   9.030
60648SOL    HW183777   8.566   0.870   8.970
60648SOL    HW283778   8.465   0.982   8.979
60649SOL     OW83779  11.259  10.750   4.289
60649SOL    HW183780  11.229  10.659   4.289
60649SOL    HW283781  11.234  10.783   4.376
60650SOL     OW83782  13.677   1.785   4.601
60650SOL    HW183783  13.756   1.839   4.596
60650SOL    HW283784  13.696   1.724   4.673
60651SOL     OW83785   4.913   6.690   2.399
60651SOL    HW183786   4.910   6.785   2.408
60651SOL    HW283787   4.846   6.658   2.458
60652SOL     OW83788   1.913   7.854   8.624
60652SOL    HW183789   1.905   7.763   8.651
60652SOL    HW283790   1.835   7.897   8.660
60653SOL     OW83791  10.380  10.365  12.812
60653SOL    HW183792  10.458  10.408  12.777
60653SOL    HW283793  10.333  10.435  12.858
60654SOL     OW83794   5.695   3.084   5.662
60654SOL    HW183795   5.614   3.132   5.677
60654SOL    HW283796   5.761   3.130   5.714
60655SOL     OW83797  10.140   4.928   0.154
60655SOL    HW183798  10.148   4.895   0.064
60655SOL    HW283799  10.051   4.907   0.179
60656SOL     OW83800   3.164   4.633   3.355
60656SOL    HW183801   3.074   4.658   3.375
60656SOL    HW283802   3.172   4.544   3.389
60657SOL     OW83803   0.088  14.030  10.288
60657SOL    HW183804   0.159  14.064  10.234
60657SOL    HW283805   0.011  14.079  10.259
60658SOL     OW83806   6.839   5.545   8.562
60658SOL    HW183807   6.827   5.625   8.511
60658SOL    HW283808   6.751   5.507   8.568
60659SOL     OW83809  11.306   8.415   6.992
60659SOL    HW183810  11.401   8.424   6.985
60659SOL    HW283811  11.272   8.502   6.971
60660SOL     OW83812   3.547   8.555  12.190
60660SOL    HW183813   3.606   8.616  12.146
60660SOL    HW283814   3.491   8.612  12.244
60661SOL     OW83815  11.084   7.741   1.782
60661SOL    HW183816  11.125   7.823   1.811
60661SOL    HW283817  11.107   7.678   1.849
60662SOL     OW83818   5.049   7.491   6.508
60662SOL    HW183819   5.101   7.489   6.427
60662SOL    HW283820   5.081   7.416   6.559
60663SOL     OW83821   0.285   6.064  11.404
60663SOL    HW183822   0.299   6.156  11.425
60663SOL    HW283823   0.249   6.026  11.485
60664SOL     OW83824   9.114  13.262   7.308
60664SOL    HW183825   9.185  13.325   7.310
60664SOL    HW283826   9.035  13.314   7.301
60665SOL     OW83827   6.341   2.188   3.210
60665SOL    HW183828   6.346   2.241   3.130
60665SOL    HW283829   6.366   2.247   3.280
60666SOL     OW83830  13.280   0.669   8.665
60666SOL    HW183831  13.330   0.606   8.613
60666SOL    HW283832  13.192   0.634   8.668
60667SOL     OW83833   2.458   2.029   7.363
60667SOL    HW183834   2.431   1.956   7.420
60667SOL    HW283835   2.413   2.013   7.281
60668SOL     OW83836   5.838   9.060  11.574
60668SOL    HW183837   5.768   8.999  11.554
60668SOL    HW283838   5.875   9.084  11.489
60669SOL     OW83839  13.601  10.374  11.076
60669SOL    HW183840  13.580  10.291  11.118
60669SOL    HW283841  13.534  10.384  11.008
60670SOL     OW83842   8.652   1.353   5.167
60670SOL    HW183843   8.631   1.425   5.106
60670SOL    HW283844   8.742   1.370   5.194
60671SOL     OW83845   1.374  11.773  14.132
60671SOL    HW183846   1.401  11.703  14.073
60671SOL    HW283847   1.382  11.734  14.220
60672SOL     OW83848   1.148   9.326   1.488
60672SOL    HW183849   1.208   9.397   1.461
60672SOL    HW283850   1.101   9.303   1.408
60673SOL     OW83851  11.170   0.222  10.297
60673SOL    HW183852  11.095   0.171  10.327
60673SOL    HW283853  11.213   0.165  10.233
60674SOL     OW83854  11.489  11.136   8.193
60674SOL    HW183855  11.431  11.137   8.269
60674SOL    HW283856  11.577  11.151   8.229
60675SOL     OW83857  11.773  10.696  14.015
60675SOL    HW183858  11.746  10.670  14.103
60675SOL    HW283859  11.698  10.744  13.980
60676SOL     OW83860   4.157  10.553   0.769
60676SOL    HW183861   4.210  10.520   0.842
60676SOL    HW283862   4.069  10.562   0.805
60677SOL     OW83863   0.829   0.806  14.739
60677SOL    HW183864   0.767   0.879  14.735
60677SOL    HW283865   0.823   0.764  14.653
60678SOL     OW83866  10.954   6.932   0.600
60678SOL    HW183867  10.990   6.856   0.553
60678SOL    HW283868  10.964   6.910   0.692
60679SOL     OW83869   3.183   2.831   0.342
60679SOL    HW183870   3.171   2.846   0.248
60679SOL    HW283871   3.274   2.801   0.349
60680SOL     OW83872   7.242   0.666   7.602
60680SOL    HW183873   7.297   0.741   7.581
60680SOL    HW283874   7.237   0.616   7.521
60681SOL     OW83875  12.952   6.708   2.534
60681SOL    HW183876  12.904   6.630   2.563
60681SOL    HW283877  12.906   6.736   2.456
60682SOL     OW83878  12.795   9.783   0.083
60682SOL    HW183879  12.845   9.748   0.009
60682SOL    HW283880  12.821   9.875   0.088
60683SOL     OW83881   4.103   2.093  10.615
60683SOL    HW183882   4.030   2.144  10.581
60683SOL    HW283883   4.171   2.158  10.635
60684SOL     OW83884  10.128   3.397   1.755
60684SOL    HW183885  10.159   3.487   1.770
60684SOL    HW283886  10.043   3.408   1.713
60685SOL     OW83887   9.046  10.784   5.225
60685SOL    HW183888   9.018  10.876   5.215
60685SOL    HW283889   8.970  10.733   5.196
60686SOL     OW83890   7.467   7.677  11.993
60686SOL    HW183891   7.473   7.758  12.044
60686SOL    HW283892   7.534   7.620  12.031
60687SOL     OW83893   3.784   9.687   8.347
60687SOL    HW183894   3.846   9.627   8.306
60687SOL    HW283895   3.785   9.662   8.440
60688SOL     OW83896   1.381  11.701  12.405
60688SOL    HW183897   1.387  11.749  12.322
60688SOL    HW283898   1.467  11.712  12.445
60689SOL     OW83899   5.707   9.816   3.747
60689SOL    HW183900   5.778   9.752   3.733
60689SOL    HW283901   5.752   9.900   3.754
60690SOL     OW83902  10.073  11.591  11.375
60690SOL    HW183903  10.114  11.676  11.389
60690SOL    HW283904  10.118  11.554  11.299
60691SOL     OW83905  11.672   0.145  12.574
60691SOL    HW183906  11.697   0.054  12.593
60691SOL    HW283907  11.754   0.185  12.543
60692SOL     OW83908   1.015   0.268   9.307
60692SOL    HW183909   1.085   0.213   9.272
60692SOL    HW283910   0.988   0.323   9.233
60693SOL     OW83911  13.588   8.819   6.093
60693SOL    HW183912  13.495   8.840   6.101
60693SOL    HW283913  13.598   8.793   6.001
60694SOL     OW83914   3.239   7.607   2.546
60694SOL    HW183915   3.324   7.596   2.503
60694SOL    HW283916   3.248   7.563   2.630
60695SOL     OW83917   7.336  11.563   4.685
60695SOL    HW183918   7.413  11.545   4.631
60695SOL    HW283919   7.263  11.566   4.623
60696SOL     OW83920  10.481  13.938   7.190
60696SOL    HW183921  10.497  13.883   7.113
60696SOL    HW283922  10.490  14.027   7.158
60697SOL     OW83923  13.007   7.018  12.341
60697SOL    HW183924  12.986   7.061  12.424
60697SOL    HW283925  13.082   6.963  12.361
60698SOL     OW83926  14.652   4.805  12.321
60698SOL    HW183927  14.707   4.878  12.349
60698SOL    HW283928  14.655   4.807  12.225
60699SOL     OW83929   6.015  11.186  12.886
60699SOL    HW183930   6.029  11.274  12.920
60699SOL    HW283931   6.101  11.144  12.892
60700SOL     OW83932  13.556   9.942   2.864
60700SOL    HW183933  13.514   9.971   2.945
60700SOL    HW283934  13.647   9.970   2.872
60701SOL     OW83935  10.341   1.812   0.354
60701SOL    HW183936  10.377   1.769   0.431
60701SOL    HW283937  10.357   1.906   0.369
60702SOL     OW83938   8.921   0.492  12.664
60702SOL    HW183939   8.828   0.509  12.648
60702SOL    HW283940   8.947   0.430  12.596
60703SOL     OW83941  13.892   7.093  11.083
60703SOL    HW183942  13.857   7.025  11.142
60703SOL    HW283943  13.951   7.144  11.138
60704SOL     OW83944  13.754   7.708  14.560
60704SOL    HW183945  13.809   7.772  14.605
60704SOL    HW283946  13.685   7.687  14.623
60705SOL     OW83947  14.334  11.493   8.497
60705SOL    HW183948  14.290  11.465   8.577
60705SOL    HW283949  14.304  11.583   8.484
60706SOL     OW83950   2.815   6.556   1.202
60706SOL    HW183951   2.835   6.548   1.108
60706SOL    HW283952   2.719   6.553   1.206
60707SOL     OW83953   9.693   4.449   6.045
60707SOL    HW183954   9.668   4.522   5.988
60707SOL    HW283955   9.747   4.490   6.113
60708SOL     OW83956  11.163   1.747   9.909
60708SOL    HW183957  11.235   1.690   9.882
60708SOL    HW283958  11.133   1.710   9.992
60709SOL     OW83959  11.869   1.507   2.641
60709SOL    HW183960  11.812   1.571   2.684
60709SOL    HW283961  11.928   1.560   2.587
60710SOL     OW83962   3.386  13.660   9.610
60710SOL    HW183963   3.459  13.720   9.592
60710SOL    HW283964   3.410  13.579   9.566
60711SOL     OW83965   4.013   0.013   9.598
60711SOL    HW183966   4.071  14.852   9.529
60711SOL    HW283967   4.051   0.098   9.621
60712SOL     OW83968   0.239   4.502  11.856
60712SOL    HW183969   0.299   4.430  11.836
60712SOL    HW283970   0.290   4.581  11.838
60713SOL     OW83971   8.442   6.008   3.182
60713SOL    HW183972   8.472   6.063   3.254
60713SOL    HW283973   8.488   5.925   3.194
60714SOL     OW83974  13.953  13.564   0.577
60714SOL    HW183975  13.977  13.577   0.669
60714SOL    HW283976  13.910  13.645   0.552
60715SOL     OW83977  12.606  13.026  13.894
60715SOL    HW183978  12.667  12.958  13.922
60715SOL    HW283979  12.631  13.048  13.805
60716SOL     OW83980  10.155   6.276   7.335
60716SOL    HW183981  10.070   6.250   7.370
60716SOL    HW283982  10.211   6.200   7.351
60717SOL     OW83983   1.747   4.219   5.008
60717SOL    HW183984   1.678   4.223   4.941
60717SOL    HW283985   1.714   4.272   5.080
60718SOL     OW83986   2.284   3.982   8.834
60718SOL    HW183987   2.370   3.945   8.853
60718SOL    HW283988   2.282   4.065   8.882
60719SOL     OW83989   5.784   1.479  10.656
60719SOL    HW183990   5.775   1.395  10.701
60719SOL    HW283991   5.716   1.477  10.588
60720SOL     OW83992   0.401   7.009   0.274
60720SOL    HW183993   0.486   7.051   0.281
60720SOL    HW283994   0.397   6.950   0.349
60721SOL     OW83995   3.975   4.254  12.829
60721SOL    HW183996   3.893   4.261  12.877
60721SOL    HW283997   3.992   4.160  12.823
60722SOL     OW83998  13.355   8.504   6.743
60722SOL    HW183999  13.413   8.543   6.808
60722SOL    HW284000  13.273   8.552   6.752
60723SOL     OW84001   5.604   5.727   8.127
60723SOL    HW184002   5.591   5.760   8.038
60723SOL    HW284003   5.698   5.708   8.132
60724SOL     OW84004   0.739   4.874  11.970
60724SOL    HW184005   0.750   4.907  11.881
60724SOL    HW284006   0.644   4.875  11.985
60725SOL     OW84007   6.753   0.610   1.254
60725SOL    HW184008   6.774   0.599   1.347
60725SOL    HW284009   6.739   0.704   1.243
60726SOL     OW84010  12.407  12.929   9.483
60726SOL    HW184011  12.482  12.870   9.483
60726SOL    HW284012  12.405  12.967   9.395
60727SOL     OW84013  12.454   6.338  12.349
60727SOL    HW184014  12.407   6.371  12.425
60727SOL    HW284015  12.486   6.416  12.303
60728SOL     OW84016  10.466  13.788   7.551
60728SOL    HW184017  10.503  13.768   7.637
60728SOL    HW284018  10.408  13.863   7.567
60729SOL     OW84019   5.880  12.571  12.237
60729SOL    HW184020   5.888  12.651  12.289
60729SOL    HW284021   5.880  12.500  12.301
60730SOL     OW84022   7.427   2.268  13.328
60730SOL    HW184023   7.360   2.247  13.263
60730SOL    HW284024   7.484   2.191  13.329
60731SOL     OW84025   0.137  13.954   5.981
60731SOL    HW184026   0.180  14.003   5.911
60731SOL    HW284027   0.137  13.863   5.950
60732SOL     OW84028  13.340  14.742  13.656
60732SOL    HW184029  13.261  14.791  13.678
60732SOL    HW284030  13.310  14.676  13.593
60733SOL     OW84031  11.200   9.484   9.903
60733SOL    HW184032  11.122   9.510   9.953
60733SOL    HW284033  11.221   9.562   9.850
60734SOL     OW84034   0.889   5.580   4.423
60734SOL    HW184035   0.797   5.600   4.409
60734SOL    HW284036   0.898   5.569   4.518
60735SOL     OW84037  12.161   4.329   4.265
60735SOL    HW184038  12.240   4.356   4.311
60735SOL    HW284039  12.106   4.408   4.263
60736SOL     OW84040   6.463   9.462   2.786
60736SOL    HW184041   6.423   9.375   2.791
60736SOL    HW284042   6.422   9.503   2.710
60737SOL     OW84043   9.009   2.467   5.944
60737SOL    HW184044   8.964   2.495   5.864
60737SOL    HW284045   9.091   2.517   5.944
60738SOL     OW84046   5.625   9.323   3.032
60738SOL    HW184047   5.684   9.265   3.081
60738SOL    HW284048   5.596   9.271   2.957
60739SOL     OW84049   5.589   0.623  11.823
60739SOL    HW184050   5.607   0.576  11.742
60739SOL    HW284051   5.675   0.655  11.851
60740SOL     OW84052   6.319  12.060   7.757
60740SOL    HW184053   6.379  12.022   7.822
60740SOL    HW284054   6.376  12.097   7.690
60741SOL     OW84055   5.476  14.208   7.403
60741SOL    HW184056   5.504  14.130   7.355
60741SOL    HW284057   5.405  14.245   7.351
60742SOL     OW84058   9.002  12.940   1.108
60742SOL    HW184059   9.090  12.931   1.071
60742SOL    HW284060   9.002  13.026   1.150
60743SOL     OW84061   4.925   3.883  11.541
60743SOL    HW184062   4.976   3.814  11.500
60743SOL    HW284063   4.989   3.952  11.561
60744SOL     OW84064  13.490   9.099  14.553
60744SOL    HW184065  13.401   9.113  14.586
60744SOL    HW284066  13.530   9.043  14.619
60745SOL     OW84067   9.918   8.416   5.324
60745SOL    HW184068   9.955   8.376   5.245
60745SOL    HW284069   9.926   8.348   5.391
60746SOL     OW84070  10.147   7.354   4.262
60746SOL    HW184071  10.144   7.309   4.177
60746SOL    HW284072  10.126   7.445   4.241
60747SOL     OW84073   5.897  10.848  13.312
60747SOL    HW184074   5.823  10.797  13.278
60747SOL    HW284075   5.860  10.934  13.331
60748SOL     OW84076  11.928  13.050   0.321
60748SOL    HW184077  11.986  12.996   0.375
60748SOL    HW284078  11.964  13.044   0.233
60749SOL     OW84079   0.536   7.065   4.603
60749SOL    HW184080   0.490   7.132   4.654
60749SOL    HW284081   0.609   7.112   4.562
60750SOL     OW84082   8.200   1.081   7.944
60750SOL    HW184083   8.289   1.097   7.974
60750SOL    HW284084   8.202   1.101   7.851
60751SOL     OW84085  13.696   6.099  13.602
60751SOL    HW184086  13.731   6.173  13.553
60751SOL    HW284087  13.731   6.110  13.690
60752SOL     OW84088  13.246   6.562   6.779
60752SOL    HW184089  13.165   6.528   6.743
60752SOL    HW284090  13.305   6.486   6.783
60753SOL     OW84091   6.239  12.505   6.914
60753SOL    HW184092   6.228  12.526   6.822
60753SOL    HW284093   6.151  12.514   6.952
60754SOL     OW84094   3.175   2.593   7.324
60754SOL    HW184095   3.140   2.645   7.252
60754SOL    HW284096   3.210   2.515   7.282
60755SOL     OW84097   8.416  11.862   8.002
60755SOL    HW184098   8.327  11.842   8.032
60755SOL    HW284099   8.405  11.917   7.925
60756SOL     OW84100   3.642   0.046  12.880
60756SOL    HW184101   3.555   0.086  12.875
60756SOL    HW284102   3.702   0.119  12.895
60757SOL     OW84103   6.681  14.725   0.644
60757SOL    HW184104   6.699  14.755   0.555
60757SOL    HW284105   6.750  14.662   0.663
60758SOL     OW84106   0.706   3.817   6.389
60758SOL    HW184107   0.759   3.814   6.468
60758SOL    HW284108   0.620   3.785   6.417
60759SOL     OW84109  11.102   1.449  14.239
60759SOL    HW184110  11.016   1.490  14.246
60759SOL    HW284111  11.130   1.469  14.150
60760SOL     OW84112  13.027   5.563   8.744
60760SOL    HW184113  13.103   5.541   8.798
60760SOL    HW284114  13.057   5.637   8.691
60761SOL     OW84115   5.202   9.157  13.640
60761SOL    HW184116   5.246   9.224  13.589
60761SOL    HW284117   5.111   9.160  13.611
60762SOL     OW84118   5.355   1.922   1.646
60762SOL    HW184119   5.392   1.880   1.568
60762SOL    HW284120   5.413   1.996   1.663
60763SOL     OW84121   5.610  12.040  12.050
60763SOL    HW184122   5.575  12.039  12.139
60763SOL    HW284123   5.658  11.958  12.042
60764SOL     OW84124   6.527   0.122  14.647
60764SOL    HW184125   6.604   0.144  14.594
60764SOL    HW284126   6.499   0.207  14.683
60765SOL     OW84127   0.549   4.111  14.243
60765SOL    HW184128   0.507   4.068  14.168
60765SOL    HW284129   0.621   4.162  14.204
60766SOL     OW84130   9.778   1.944   1.562
60766SOL    HW184131   9.728   1.997   1.500
60766SOL    HW284132   9.724   1.866   1.575
60767SOL     OW84133   1.735  14.748   8.838
60767SOL    HW184134   1.794  14.764   8.912
60767SOL    HW284135   1.761  14.662   8.805
60768SOL     OW84136   2.413   1.407   4.149
60768SOL    HW184137   2.335   1.382   4.099
60768SOL    HW284138   2.462   1.464   4.089
60769SOL     OW84139   4.869   7.828  12.486
60769SOL    HW184140   4.902   7.766  12.551
60769SOL    HW284141   4.878   7.914  12.528
60770SOL     OW84142   5.977  11.392   6.200
60770SOL    HW184143   5.893  11.434   6.181
60770SOL    HW284144   5.996  11.339   6.123
60771SOL     OW84145  11.679   1.844   6.522
60771SOL    HW184146  11.626   1.858   6.600
60771SOL    HW284147  11.686   1.749   6.515
60772SOL     OW84148  14.560  10.886  10.781
60772SOL    HW184149  14.612  10.918  10.854
60772SOL    HW284150  14.609  10.913  10.703
60773SOL     OW84151   0.753   8.830  10.323
60773SOL    HW184152   0.816   8.893  10.357
60773SOL    HW284153   0.803   8.749  10.312
60774SOL     OW84154   7.321   3.052   8.659
60774SOL    HW184155   7.339   2.969   8.704
60774SOL    HW284156   7.229   3.046   8.633
60775SOL     OW84157  11.391   0.420   9.284
60775SOL    HW184158  11.440   0.499   9.305
60775SOL    HW284159  11.412   0.403   9.192
60776SOL     OW84160  10.375  12.825  14.403
60776SOL    HW184161  10.379  12.818  14.307
60776SOL    HW284162  10.465  12.813  14.432
60777SOL     OW84163  12.649   2.840   4.101
60777SOL    HW184164  12.615   2.832   4.012
60777SOL    HW284165  12.590   2.785   4.153
60778SOL     OW84166   9.821  14.866   0.984
60778SOL    HW184167   9.793  14.784   0.943
60778SOL    HW284168   9.829  14.845   1.077
60779SOL     OW84169   6.299  13.046  13.382
60779SOL    HW184170   6.386  13.068  13.348
60779SOL    HW284171   6.238  13.084  13.319
60780SOL     OW84172  12.857   4.506   1.580
60780SOL    HW184173  12.919   4.559   1.631
60780SOL    HW284174  12.841   4.430   1.636
60781SOL     OW84175  13.807   0.738  10.280
60781SOL    HW184176  13.864   0.796  10.330
60781SOL    HW284177  13.825   0.759  10.188
60782SOL     OW84178  13.291   8.128   0.201
60782SOL    HW184179  13.321   8.102   0.288
60782SOL    HW284180  13.370   8.133   0.148
60783SOL     OW84181   2.991  14.140   7.403
60783SOL    HW184182   3.077  14.125   7.364
60783SOL    HW284183   2.983  14.235   7.408
60784SOL     OW84184  13.628   0.113  12.419
60784SOL    HW184185  13.640   0.084  12.509
60784SOL    HW284186  13.687   0.057  12.368
60785SOL     OW84187   1.570   4.139   7.201
60785SOL    HW184188   1.541   4.106   7.286
60785SOL    HW284189   1.630   4.072   7.169
60786SOL     OW84190  13.540   0.439   6.315
60786SOL    HW184191  13.636   0.434   6.315
60786SOL    HW284192  13.512   0.352   6.342
60787SOL     OW84193   4.781  12.185   7.742
60787SOL    HW184194   4.767  12.231   7.659
60787SOL    HW284195   4.869  12.148   7.734
60788SOL     OW84196   5.167   8.879   0.045
60788SOL    HW184197   5.201   8.962   0.013
60788SOL    HW284198   5.201   8.813  14.858
60789SOL     OW84199   9.685   7.816   7.806
60789SOL    HW184200   9.659   7.824   7.715
60789SOL    HW284201   9.651   7.895   7.848
60790SOL     OW84202   2.133   4.727   5.501
60790SOL    HW184203   2.159   4.699   5.588
60790SOL    HW284204   2.070   4.661   5.472
60791SOL     OW84205   3.151   3.795   2.675
60791SOL    HW184206   3.068   3.842   2.663
60791SOL    HW284207   3.188   3.830   2.756
60792SOL     OW84208  12.073   3.716  10.047
60792SOL    HW184209  12.160   3.687  10.021
60792SOL    HW284210  12.019   3.636  10.042
60793SOL     OW84211   2.402  14.248   8.120
60793SOL    HW184212   2.318  14.293   8.118
60793SOL    HW284213   2.433  14.250   8.030
60794SOL     OW84214   5.530  10.607   4.404
60794SOL    HW184215   5.503  10.546   4.472
60794SOL    HW284216   5.499  10.692   4.434
60795SOL     OW84217  13.530  11.253   8.293
60795SOL    HW184218  13.586  11.309   8.239
60795SOL    HW284219  13.442  11.290   8.284
60796SOL     OW84220   8.372   8.029  14.379
60796SOL    HW184221   8.397   8.121  14.367
60796SOL    HW284222   8.300   8.015  14.317
60797SOL     OW84223   2.273  13.122   4.313
60797SOL    HW184224   2.254  13.214   4.297
60797SOL    HW284225   2.241  13.077   4.235
60798SOL     OW84226   0.102   8.966  13.677
60798SOL    HW184227   0.194   8.949  13.698
60798SOL    HW284228   0.059   8.881  13.685
60799SOL     OW84229   0.951  14.469   7.025
60799SOL    HW184230   1.020  14.531   7.050
60799SOL    HW284231   0.951  14.403   7.094
60800SOL     OW84232  13.530  13.521  14.482
60800SOL    HW184233  13.619  13.529  14.516
60800SOL    HW284234  13.522  13.429  14.455
60801SOL     OW84235  13.171   4.737  13.432
60801SOL    HW184236  13.250   4.684  13.426
60801SOL    HW284237  13.162   4.759  13.524
60802SOL     OW84238   9.142   1.893   4.816
60802SOL    HW184239   9.176   1.958   4.876
60802SOL    HW284240   9.140   1.938   4.731
60803SOL     OW84241  14.260  11.503  13.168
60803SOL    HW184242  14.196  11.564  13.203
60803SOL    HW284243  14.331  11.503  13.232
60804SOL     OW84244  12.241   5.504   9.974
60804SOL    HW184245  12.307   5.455  10.022
60804SOL    HW284246  12.158   5.475  10.012
60805SOL     OW84247   7.657   1.691   3.966
60805SOL    HW184248   7.599   1.755   3.925
60805SOL    HW284249   7.652   1.710   4.059
60806SOL     OW84250   1.785   7.034  11.214
60806SOL    HW184251   1.847   7.026  11.287
60806SOL    HW284252   1.713   6.976  11.238
60807SOL     OW84253  14.203   9.312  13.489
60807SOL    HW184254  14.239   9.386  13.440
60807SOL    HW284255  14.279   9.265  13.522
60808SOL     OW84256  14.280   3.164  12.162
60808SOL    HW184257  14.300   3.211  12.244
60808SOL    HW284258  14.312   3.222  12.093
60809SOL     OW84259   8.916   6.979   9.853
60809SOL    HW184260   8.978   6.944   9.917
60809SOL    HW284261   8.831   6.947   9.882
60810SOL     OW84262   3.519   5.311   0.500
60810SOL    HW184263   3.549   5.299   0.591
60810SOL    HW284264   3.592   5.354   0.456
60811SOL     OW84265  11.665   9.830   0.159
60811SOL    HW184266  11.672   9.898   0.226
60811SOL    HW284267  11.706   9.753   0.199
60812SOL     OW84268  13.869   2.754  12.176
60812SOL    HW184269  13.882   2.840  12.137
60812SOL    HW284270  13.896   2.693  12.107
60813SOL     OW84271   9.415   7.247   1.526
60813SOL    HW184272   9.438   7.160   1.560
60813SOL    HW284273   9.421   7.238   1.431
60814SOL     OW84274   5.199   2.631   4.217
60814SOL    HW184275   5.161   2.610   4.131
60814SOL    HW284276   5.216   2.725   4.212
60815SOL     OW84277   6.326   7.391   7.632
60815SOL    HW184278   6.412   7.418   7.601
60815SOL    HW284279   6.267   7.459   7.601
60816SOL     OW84280   8.628   1.980   9.513
60816SOL    HW184281   8.632   1.963   9.607
60816SOL    HW284282   8.566   1.915   9.480
60817SOL     OW84283  14.631  13.570   2.502
60817SOL    HW184284  14.644  13.517   2.581
60817SOL    HW284285  14.537  13.592   2.503
60818SOL     OW84286   2.818   7.706   8.563
60818SOL    HW184287   2.843   7.618   8.591
60818SOL    HW284288   2.745   7.730   8.621
60819SOL     OW84289   4.019   1.426   2.258
60819SOL    HW184290   4.057   1.424   2.170
60819SOL    HW284291   3.927   1.403   2.246
60820SOL     OW84292   6.266   6.011   8.433
60820SOL    HW184293   6.178   5.979   8.410
60820SOL    HW284294   6.323   5.936   8.416
60821SOL     OW84295   3.684   2.761   4.423
60821SOL    HW184296   3.691   2.850   4.389
60821SOL    HW284297   3.770   2.722   4.409
60822SOL     OW84298   1.101  10.045  11.562
60822SOL    HW184299   1.171   9.988  11.530
60822SOL    HW284300   1.026  10.026  11.505
60823SOL     OW84301   2.996  11.865   3.811
60823SOL    HW184302   3.012  11.887   3.903
60823SOL    HW284303   2.976  11.949   3.769
60824SOL     OW84304   1.568   9.225  14.307
60824SOL    HW184305   1.539   9.234  14.398
60824SOL    HW284306   1.658   9.257  14.306
60825SOL     OW84307   8.146   6.325  10.971
60825SOL    HW184308   8.069   6.296  11.018
60825SOL    HW284309   8.218   6.275  11.009
60826SOL     OW84310  14.831   2.594   4.686
60826SOL    HW184311   0.031   2.555   4.734
60826SOL    HW284312  14.800   2.525   4.628
60827SOL     OW84313  14.186   6.715  10.393
60827SOL    HW184314  14.280   6.728  10.401
60827SOL    HW284315  14.164   6.749  10.307
60828SOL     OW84316  11.587   2.625   6.096
60828SOL    HW184317  11.656   2.560   6.110
60828SOL    HW284318  11.628   2.708   6.122
60829SOL     OW84319  12.638  14.343  11.011
60829SOL    HW184320  12.694  14.275  10.973
60829SOL    HW284321  12.564  14.295  11.047
60830SOL     OW84322  10.244  14.453  11.228
60830SOL    HW184323  10.214  14.430  11.140
60830SOL    HW284324  10.332  14.486  11.215
60831SOL     OW84325   5.352   0.270  10.897
60831SOL    HW184326   5.265   0.308  10.885
60831SOL    HW284327   5.398   0.331  10.956
60832SOL     OW84328   4.529   9.203  13.356
60832SOL    HW184329   4.623   9.207  13.339
60832SOL    HW284330   4.516   9.115  13.392
60833SOL     OW84331   4.429   3.817   9.003
60833SOL    HW184332   4.390   3.733   8.977
60833SOL    HW284333   4.449   3.860   8.920
60834SOL     OW84334  11.336   5.371   7.014
60834SOL    HW184335  11.393   5.443   6.986
60834SOL    HW284336  11.262   5.374   6.954
60835SOL     OW84337   4.300  13.422   2.889
60835SOL    HW184338   4.387  13.388   2.873
60835SOL    HW284339   4.248  13.345   2.913
60836SOL     OW84340   4.239   4.129  10.090
60836SOL    HW184341   4.299   4.202  10.108
60836SOL    HW284342   4.241   4.076  10.170
60837SOL     OW84343   6.000  13.774   2.322
60837SOL    HW184344   5.985  13.680   2.310
60837SOL    HW284345   6.063  13.797   2.254
60838SOL     OW84346   0.757   7.570   0.283
60838SOL    HW184347   0.698   7.634   0.243
60838SOL    HW284348   0.836   7.620   0.304
60839SOL     OW84349  12.681   5.478  10.743
60839SOL    HW184350  12.730   5.437  10.814
60839SOL    HW284351  12.727   5.560  10.725
60840SOL     OW84352  11.540   9.543   0.077
60840SOL    HW184353  11.588   9.574   0.000
60840SOL    HW284354  11.574   9.597   0.149
60841SOL     OW84355   8.617  14.291  10.143
60841SOL    HW184356   8.688  14.277  10.081
60841SOL    HW284357   8.544  14.241  10.107
60842SOL     OW84358  14.536   2.751   3.750
60842SOL    HW184359  14.528   2.725   3.841
60842SOL    HW284360  14.565   2.672   3.704
60843SOL     OW84361  10.645  10.089   6.471
60843SOL    HW184362  10.702  10.070   6.544
60843SOL    HW284363  10.559  10.056   6.498
60844SOL     OW84364  11.482   8.687  13.695
60844SOL    HW184365  11.419   8.631  13.651
60844SOL    HW284366  11.447   8.697  13.784
60845SOL     OW84367  13.465   8.226   1.229
60845SOL    HW184368  13.380   8.196   1.261
60845SOL    HW284369  13.451   8.318   1.206
60846SOL     OW84370   4.432   7.705   5.401
60846SOL    HW184371   4.493   7.654   5.455
60846SOL    HW284372   4.354   7.649   5.395
60847SOL     OW84373  11.840  12.635   1.575
60847SOL    HW184374  11.761  12.681   1.602
60847SOL    HW284375  11.811  12.546   1.554
60848SOL     OW84376  11.452   7.800   4.876
60848SOL    HW184377  11.360   7.803   4.850
60848SOL    HW284378  11.459   7.862   4.949
60849SOL     OW84379  12.298  12.866  10.024
60849SOL    HW184380  12.335  12.785   9.989
60849SOL    HW284381  12.266  12.841  10.111
60850SOL     OW84382   2.235   2.233   6.240
60850SOL    HW184383   2.190   2.159   6.282
60850SOL    HW284384   2.271   2.283   6.314
60851SOL     OW84385   8.784  13.516   7.055
60851SOL    HW184386   8.818  13.462   6.984
60851SOL    HW284387   8.771  13.602   7.015
60852SOL     OW84388  14.279  14.356   1.644
60852SOL    HW184389  14.369  14.324   1.637
60852SOL    HW284390  14.230  14.282   1.680
60853SOL     OW84391   2.139  13.056   4.054
60853SOL    HW184392   2.226  13.019   4.037
60853SOL    HW284393   2.132  13.130   3.993
60854SOL     OW84394   0.761   2.733   4.365
60854SOL    HW184395   0.793   2.747   4.454
60854SOL    HW284396   0.750   2.822   4.330
60855SOL     OW84397  12.159  12.461   4.106
60855SOL    HW184398  12.145  12.441   4.198
60855SOL    HW284399  12.191  12.380   4.068
60856SOL     OW84400   7.263  10.949   4.214
60856SOL    HW184401   7.253  11.033   4.171
60856SOL    HW284402   7.187  10.898   4.185
60857SOL     OW84403   5.757   9.035   9.353
60857SOL    HW184404   5.801   9.109   9.396
60857SOL    HW284405   5.670   9.069   9.331
60858SOL     OW84406   6.454   6.321   1.883
60858SOL    HW184407   6.403   6.401   1.895
60858SOL    HW284408   6.459   6.310   1.788
60859SOL     OW84409   0.785   5.266   1.429
60859SOL    HW184410   0.732   5.224   1.361
60859SOL    HW284411   0.813   5.193   1.485
60860SOL     OW84412  11.836   4.835   4.346
60860SOL    HW184413  11.848   4.905   4.281
60860SOL    HW284414  11.769   4.778   4.309
60861SOL     OW84415  10.981   0.571   4.063
60861SOL    HW184416  11.068   0.612   4.060
60861SOL    HW284417  10.955   0.566   3.971
60862SOL     OW84418   3.113   0.467   1.077
60862SOL    HW184419   3.029   0.485   1.119
60862SOL    HW284420   3.171   0.440   1.148
60863SOL     OW84421   6.197  11.024   6.648
60863SOL    HW184422   6.179  11.054   6.559
60863SOL    HW284423   6.172  11.097   6.704
60864SOL     OW84424   9.806  14.523  12.621
60864SOL    HW184425   9.857  14.544  12.700
60864SOL    HW284426   9.759  14.604  12.601
60865SOL     OW84427  13.546   2.074   2.337
60865SOL    HW184428  13.507   2.151   2.379
60865SOL    HW284429  13.515   2.079   2.246
60866SOL     OW84430   5.525   0.101  10.354
60866SOL    HW184431   5.487   0.184  10.381
60866SOL    HW284432   5.524   0.047  10.433
60867SOL     OW84433  11.480   0.130   9.160
60867SOL    HW184434  11.567   0.092   9.147
60867SOL    HW284435  11.485   0.216   9.119
60868SOL     OW84436   0.556   1.084   7.369
60868SOL    HW184437   0.584   1.006   7.321
60868SOL    HW284438   0.636   1.118   7.408
60869SOL     OW84439   3.277  12.455   2.470
60869SOL    HW184440   3.363  12.429   2.437
60869SOL    HW284441   3.296  12.527   2.531
60870SOL     OW84442  12.324   4.983   4.634
60870SOL    HW184443  12.242   5.032   4.638
60870SOL    HW284444  12.367   5.001   4.717
60871SOL     OW84445  10.058   1.468   8.633
60871SOL    HW184446  10.023   1.519   8.560
60871SOL    HW284447  10.019   1.508   8.711
60872SOL     OW84448   6.732  11.555  13.106
60872SOL    HW184449   6.722  11.606  13.025
60872SOL    HW284450   6.792  11.485  13.083
60873SOL     OW84451   3.845   0.967   9.439
60873SOL    HW184452   3.853   0.875   9.464
60873SOL    HW284453   3.930   0.989   9.401
60874SOL     OW84454  13.877   6.458   2.569
60874SOL    HW184455  13.852   6.369   2.544
60874SOL    HW284456  13.809   6.513   2.531
60875SOL     OW84457   1.710   2.967   6.871
60875SOL    HW184458   1.755   2.988   6.789
60875SOL    HW284459   1.759   2.892   6.906
60876SOL     OW84460   8.948   8.700   1.866
60876SOL    HW184461   8.923   8.724   1.777
60876SOL    HW284462   8.920   8.609   1.875
60877SOL     OW84463   3.138   9.859  13.062
60877SOL    HW184464   3.142   9.873  12.968
60877SOL    HW284465   3.049   9.828  13.078
60878SOL     OW84466   4.787   0.972   2.456
60878SOL    HW184467   4.732   0.898   2.430
60878SOL    HW284468   4.732   1.049   2.442
60879SOL     OW84469   8.246   9.259   3.251
60879SOL    HW184470   8.160   9.301   3.252
60879SOL    HW284471   8.275   9.267   3.161
60880SOL     OW84472   7.125  12.796  10.976
60880SOL    HW184473   7.037  12.831  10.962
60880SOL    HW284474   7.177  12.833  10.904
60881SOL     OW84475   9.735  12.825   4.601
60881SOL    HW184476   9.646  12.794   4.585
60881SOL    HW284477   9.740  12.835   4.696
60882SOL     OW84478  12.753   5.816   3.551
60882SOL    HW184479  12.828   5.843   3.498
60882SOL    HW284480  12.791   5.790   3.635
60883SOL     OW84481  11.357  13.714   4.813
60883SOL    HW184482  11.405  13.796   4.824
60883SOL    HW284483  11.265  13.740   4.819
60884SOL     OW84484   8.723   5.427   7.685
60884SOL    HW184485   8.750   5.335   7.687
60884SOL    HW284486   8.628   5.424   7.673
60885SOL     OW84487  13.654  11.569   9.355
60885SOL    HW184488  13.704  11.627   9.413
60885SOL    HW284489  13.621  11.501   9.413
60886SOL     OW84490  11.226  10.622   9.013
60886SOL    HW184491  11.167  10.696   8.997
60886SOL    HW284492  11.288  10.656   9.078
60887SOL     OW84493   2.973   0.667  12.899
60887SOL    HW184494   3.008   0.754  12.919
60887SOL    HW284495   2.893   0.684  12.849
60888SOL     OW84496  11.204  13.467   0.985
60888SOL    HW184497  11.254  13.410   0.926
60888SOL    HW284498  11.264  13.485   1.058
60889SOL     OW84499   6.634  14.108   4.741
60889SOL    HW184500   6.549  14.126   4.700
60889SOL    HW284501   6.657  14.190   4.784
60890SOL     OW84502  13.013   7.259   9.197
60890SOL    HW184503  12.946   7.283   9.262
60890SOL    HW284504  13.061   7.340   9.181
60891SOL     OW84505   2.109   2.581   8.563
60891SOL    HW184506   2.081   2.663   8.520
60891SOL    HW284507   2.064   2.512   8.514
60892SOL     OW84508   2.923   5.883   6.390
60892SOL    HW184509   2.985   5.813   6.374
60892SOL    HW284510   2.945   5.950   6.325
60893SOL     OW84511  12.865   3.480  13.687
60893SOL    HW184512  12.950   3.522  13.678
60893SOL    HW284513  12.879   3.411  13.752
60894SOL     OW84514  11.345   6.840   8.786
60894SOL    HW184515  11.365   6.933   8.786
60894SOL    HW284516  11.429   6.796   8.777
60895SOL     OW84517   2.017  13.275   4.437
60895SOL    HW184518   2.095  13.319   4.404
60895SOL    HW284519   1.951  13.288   4.368
60896SOL     OW84520   0.679   4.007   5.558
60896SOL    HW184521   0.719   4.091   5.535
60896SOL    HW284522   0.697   3.950   5.484
60897SOL     OW84523   6.376   6.673   5.517
60897SOL    HW184524   6.419   6.618   5.583
60897SOL    HW284525   6.322   6.734   5.568
60898SOL     OW84526   2.049   0.302   9.750
60898SOL    HW184527   2.114   0.253   9.800
60898SOL    HW284528   2.084   0.391   9.744
60899SOL     OW84529  13.185  12.044   1.599
60899SOL    HW184530  13.107  12.097   1.582
60899SOL    HW284531  13.213  12.069   1.687
60900SOL     OW84532  12.565   4.532   6.541
60900SOL    HW184533  12.561   4.581   6.623
60900SOL    HW284534  12.507   4.580   6.481
60901SOL     OW84535   9.817   3.801   5.652
60901SOL    HW184536   9.771   3.855   5.587
60901SOL    HW284537   9.796   3.711   5.627
60902SOL     OW84538   9.852   2.981   6.914
60902SOL    HW184539   9.840   2.941   6.828
60902SOL    HW284540   9.856   2.907   6.975
60903SOL     OW84541  14.419  13.152   3.237
60903SOL    HW184542  14.453  13.089   3.173
60903SOL    HW284543  14.488  13.219   3.243
60904SOL     OW84544   9.157   5.423   9.507
60904SOL    HW184545   9.137   5.394   9.419
60904SOL    HW284546   9.223   5.492   9.495
60905SOL     OW84547  12.548   7.100  11.135
60905SOL    HW184548  12.582   7.076  11.049
60905SOL    HW284549  12.453   7.101  11.124
60906SOL     OW84550  10.910   4.558   7.027
60906SOL    HW184551  10.892   4.474   7.068
60906SOL    HW284552  10.857   4.558   6.948
60907SOL     OW84553   0.201  10.593  12.878
60907SOL    HW184554   0.249  10.571  12.958
60907SOL    HW284555   0.242  10.673  12.847
60908SOL     OW84556   1.063   3.335   1.025
60908SOL    HW184557   1.130   3.318   0.959
60908SOL    HW284558   1.107   3.387   1.092
60909SOL     OW84559  13.336   6.964  10.232
60909SOL    HW184560  13.427   6.987  10.250
60909SOL    HW284561  13.311   7.021  10.158
60910SOL     OW84562   7.258   2.990   1.053
60910SOL    HW184563   7.214   2.920   1.101
60910SOL    HW284564   7.307   2.944   0.984
60911SOL     OW84565  13.807   0.108   9.767
60911SOL    HW184566  13.851   0.170   9.825
60911SOL    HW284567  13.855   0.026   9.780
60912SOL     OW84568   2.394   8.743   5.445
60912SOL    HW184569   2.470   8.700   5.484
60912SOL    HW284570   2.412   8.745   5.351
60913SOL     OW84571  11.979   5.502   7.377
60913SOL    HW184572  12.008   5.497   7.286
60913SOL    HW284573  11.992   5.413   7.411
60914SOL     OW84574   3.585   6.710   8.961
60914SOL    HW184575   3.593   6.784   9.022
60914SOL    HW284576   3.515   6.657   8.997
60915SOL     OW84577   0.410   6.885   9.141
60915SOL    HW184578   0.389   6.849   9.227
60915SOL    HW284579   0.490   6.839   9.115
60916SOL     OW84580   4.504   9.342   9.183
60916SOL    HW184581   4.433   9.279   9.198
60916SOL    HW284582   4.478   9.419   9.234
60917SOL     OW84583   9.879   1.649  10.588
60917SOL    HW184584   9.818   1.586  10.549
60917SOL    HW284585   9.843   1.735  10.566
60918SOL     OW84586   7.816   0.249   3.260
60918SOL    HW184587   7.732   0.255   3.304
60918SOL    HW284588   7.814   0.319   3.195
60919SOL     OW84589   2.731  11.857  12.520
60919SOL    HW184590   2.786  11.910  12.462
60919SOL    HW284591   2.792  11.799  12.565
60920SOL     OW84592  10.852  12.796  13.032
60920SOL    HW184593  10.903  12.732  13.082
60920SOL    HW284594  10.762  12.782  13.060
60921SOL     OW84595   5.842   7.579  13.873
60921SOL    HW184596   5.875   7.529  13.798
60921SOL    HW284597   5.777   7.522  13.913
60922SOL     OW84598  14.860   8.449  12.447
60922SOL    HW184599   0.046   8.489  12.384
60922SOL    HW284600  14.826   8.522  12.498
60923SOL     OW84601   4.873   3.301   3.668
60923SOL    HW184602   4.792   3.352   3.660
60923SOL    HW284603   4.906   3.322   3.755
60924SOL     OW84604   4.724   3.240   1.738
60924SOL    HW184605   4.672   3.238   1.818
60924SOL    HW284606   4.670   3.287   1.675
60925SOL     OW84607   8.756  12.266  12.147
60925SOL    HW184608   8.751  12.322  12.069
60925SOL    HW284609   8.832  12.210  12.131
60926SOL     OW84610   1.527   5.413   5.574
60926SOL    HW184611   1.527   5.491   5.628
60926SOL    HW284612   1.603   5.363   5.603
60927SOL     OW84613  14.091  12.578   0.525
60927SOL    HW184614  13.997  12.568   0.537
60927SOL    HW284615  14.100  12.637   0.451
60928SOL     OW84616   9.122  11.130   8.599
60928SOL    HW184617   9.037  11.150   8.560
60928SOL    HW284618   9.104  11.119   8.692
60929SOL     OW84619   0.650   8.417  11.446
60929SOL    HW184620   0.720   8.372  11.400
60929SOL    HW284621   0.688   8.502  11.470
60930SOL     OW84622   4.476  11.434  10.847
60930SOL    HW184623   4.491  11.473  10.933
60930SOL    HW284624   4.418  11.496  10.803
60931SOL     OW84625  11.378   8.598   1.324
60931SOL    HW184626  11.333   8.645   1.394
60931SOL    HW284627  11.364   8.505   1.345
60932SOL     OW84628   8.473   6.040   5.209
60932SOL    HW184629   8.425   6.042   5.292
60932SOL    HW284630   8.458   6.127   5.171
60933SOL     OW84631   8.696   7.432  11.205
60933SOL    HW184632   8.701   7.493  11.131
60933SOL    HW284633   8.636   7.474  11.266
60934SOL     OW84634   2.887   6.147  13.953
60934SOL    HW184635   2.928   6.118  13.872
60934SOL    HW284636   2.800   6.106  13.953
60935SOL     OW84637  14.438   1.323  12.567
60935SOL    HW184638  14.476   1.342  12.653
60935SOL    HW284639  14.482   1.243  12.538
60936SOL     OW84640   1.832   2.516   9.934
60936SOL    HW184641   1.800   2.440   9.983
60936SOL    HW284642   1.890   2.478   9.868
60937SOL     OW84643   4.137   0.302  14.489
60937SOL    HW184644   4.139   0.360  14.565
60937SOL    HW284645   4.228   0.275  14.477
60938SOL     OW84646  12.873   4.808   6.864
60938SOL    HW184647  12.832   4.885   6.825
60938SOL    HW284648  12.916   4.764   6.791
60939SOL     OW84649   6.250   0.489   9.601
60939SOL    HW184650   6.251   0.449   9.688
60939SOL    HW284651   6.248   0.584   9.618
60940SOL     OW84652   8.827  10.332   0.973
60940SOL    HW184653   8.857  10.255   0.924
60940SOL    HW284654   8.905  10.364   1.019
60941SOL     OW84655  12.150   0.590   4.997
60941SOL    HW184656  12.243   0.570   4.989
60941SOL    HW284657  12.148   0.681   5.027
60942SOL     OW84658   5.722   1.998   4.043
60942SOL    HW184659   5.674   1.937   3.987
60942SOL    HW284660   5.752   1.944   4.117
60943SOL     OW84661   2.914   9.941  14.492
60943SOL    HW184662   2.825   9.974  14.484
60943SOL    HW284663   2.909   9.873  14.559
60944SOL     OW84664   8.762  13.265   2.568
60944SOL    HW184665   8.761  13.290   2.661
60944SOL    HW284666   8.812  13.333   2.525
60945SOL     OW84667   2.869   3.305  11.364
60945SOL    HW184668   2.951   3.338  11.325
60945SOL    HW284669   2.812   3.289  11.289
60946SOL     OW84670  11.714   1.857   5.968
60946SOL    HW184671  11.707   1.912   5.889
60946SOL    HW284672  11.706   1.767   5.936
60947SOL     OW84673  10.279   3.795   4.742
60947SOL    HW184674  10.299   3.857   4.672
60947SOL    HW284675  10.195   3.757   4.718
60948SOL     OW84676  14.660   8.225   4.227
60948SOL    HW184677  14.701   8.280   4.294
60948SOL    HW284678  14.572   8.261   4.216
60949SOL     OW84679   7.687  10.741   7.408
60949SOL    HW184680   7.731  10.659   7.383
60949SOL    HW284681   7.634  10.717   7.484
60950SOL     OW84682   3.756  12.778   1.534
60950SOL    HW184683   3.706  12.712   1.583
60950SOL    HW284684   3.694  12.848   1.518
60951SOL     OW84685   1.698   2.467  13.046
60951SOL    HW184686   1.648   2.516  12.982
60951SOL    HW284687   1.643   2.465  13.124
60952SOL     OW84688  13.708  11.533   5.957
60952SOL    HW184689  13.788  11.583   5.974
60952SOL    HW284690  13.737  11.457   5.907
60953SOL     OW84691   0.899   4.722   5.662
60953SOL    HW184692   0.989   4.729   5.694
60953SOL    HW284693   0.886   4.628   5.649
60954SOL     OW84694   7.003   3.962   9.291
60954SOL    HW184695   6.977   3.872   9.272
60954SOL    HW284696   7.095   3.955   9.318
60955SOL     OW84697   3.983  12.280   6.543
60955SOL    HW184698   3.935  12.326   6.612
60955SOL    HW284699   4.019  12.350   6.487
60956SOL     OW84700   8.952   6.350   6.460
60956SOL    HW184701   8.977   6.431   6.504
60956SOL    HW284702   8.990   6.280   6.514
60957SOL     OW84703   6.153   7.954   8.889
60957SOL    HW184704   6.163   7.983   8.980
60957SOL    HW284705   6.243   7.933   8.862
60958SOL     OW84706   4.493  11.645   8.589
60958SOL    HW184707   4.577  11.648   8.635
60958SOL    HW284708   4.514  11.675   8.500
60959SOL     OW84709  10.456   8.081   9.171
60959SOL    HW184710  10.504   8.097   9.252
60959SOL    HW284711  10.367   8.059   9.199
60960SOL     OW84712  13.119   8.796  14.842
60960SOL    HW184713  13.045   8.761  14.792
60960SOL    HW284714  13.196   8.777  14.788
60961SOL     OW84715  14.554   4.264   0.801
60961SOL    HW184716  14.587   4.180   0.768
60961SOL    HW284717  14.459   4.258   0.791
60962SOL     OW84718  13.896   9.471   9.975
60962SOL    HW184719  13.925   9.562   9.966
60962SOL    HW284720  13.802   9.476   9.991
60963SOL     OW84721   5.042  12.524  10.513
60963SOL    HW184722   5.110  12.497  10.575
60963SOL    HW284723   5.010  12.608  10.548
60964SOL     OW84724   9.453   5.924   9.186
60964SOL    HW184725   9.488   6.007   9.153
60964SOL    HW284726   9.518   5.859   9.159
60965SOL     OW84727   5.491  13.530   8.783
60965SOL    HW184728   5.522  13.597   8.722
60965SOL    HW284729   5.398  13.519   8.761
60966SOL     OW84730  10.100  14.445   7.685
60966SOL    HW184731  10.141  14.457   7.771
60966SOL    HW284732  10.007  14.462   7.701
60967SOL     OW84733   6.252   9.624   6.533
60967SOL    HW184734   6.181   9.559   6.534
60967SOL    HW284735   6.221   9.691   6.472
60968SOL     OW84736   5.954   5.949   7.532
60968SOL    HW184737   6.033   5.904   7.562
60968SOL    HW284738   5.979   6.042   7.530
60969SOL     OW84739   8.225  11.850   6.846
60969SOL    HW184740   8.281  11.901   6.787
60969SOL    HW284741   8.242  11.759   6.823
60970SOL     OW84742   4.182  12.468  14.543
60970SOL    HW184743   4.104  12.515  14.515
60970SOL    HW284744   4.151  12.378  14.559
60971SOL     OW84745  11.678   9.628   1.263
60971SOL    HW184746  11.730   9.662   1.191
60971SOL    HW284747  11.645   9.706   1.308
60972SOL     OW84748   4.820   8.224   3.540
60972SOL    HW184749   4.880   8.253   3.472
60972SOL    HW284750   4.849   8.134   3.560
60973SOL     OW84751   5.811   1.875  11.984
60973SOL    HW184752   5.775   1.956  11.947
60973SOL    HW284753   5.831   1.896  12.075
60974SOL     OW84754   8.242  10.865   6.328
60974SOL    HW184755   8.227  10.957   6.350
60974SOL    HW284756   8.309  10.867   6.261
60975SOL     OW84757  10.461   4.335  10.162
60975SOL    HW184758  10.377   4.353  10.205
60975SOL    HW284759  10.517   4.303  10.232
60976SOL     OW84760   4.678  10.187   0.481
60976SOL    HW184761   4.626  10.118   0.440
60976SOL    HW284762   4.670  10.170   0.575
60977SOL     OW84763   4.426  11.242  11.200
60977SOL    HW184764   4.514  11.205  11.207
60977SOL    HW284765   4.439  11.325  11.154
60978SOL     OW84766  14.684   1.601   4.219
60978SOL    HW184767  14.777   1.617   4.202
60978SOL    HW284768  14.670   1.634   4.308
60979SOL     OW84769   3.266  11.949   1.066
60979SOL    HW184770   3.301  11.966   0.979
60979SOL    HW284771   3.338  11.971   1.125
60980SOL     OW84772   9.596   7.512   3.501
60980SOL    HW184773   9.508   7.543   3.479
60980SOL    HW284774   9.636   7.586   3.547
60981SOL     OW84775  12.667  10.566  11.604
60981SOL    HW184776  12.709  10.500  11.549
60981SOL    HW284777  12.699  10.546  11.692
60982SOL     OW84778   5.467  10.739  12.745
60982SOL    HW184779   5.499  10.768  12.831
60982SOL    HW284780   5.385  10.788  12.733
60983SOL     OW84781   3.439  14.798   1.701
60983SOL    HW184782   3.529  14.784   1.732
60983SOL    HW284783   3.384  14.763   1.771
60984SOL     OW84784   6.688   4.260   5.257
60984SOL    HW184785   6.783   4.256   5.269
60984SOL    HW284786   6.672   4.347   5.220
60985SOL     OW84787   6.089   9.564  14.001
60985SOL    HW184788   6.001   9.525  13.995
60985SOL    HW284789   6.100   9.583  14.095
60986SOL     OW84790   0.316   4.625  12.865
60986SOL    HW184791   0.266   4.706  12.871
60986SOL    HW284792   0.282   4.581  12.787
60987SOL     OW84793   7.559   3.862   9.777
60987SOL    HW184794   7.644   3.866   9.732
60987SOL    HW284795   7.534   3.954   9.788
60988SOL     OW84796   1.815   8.631  12.815
60988SOL    HW184797   1.769   8.567  12.868
60988SOL    HW284798   1.834   8.585  12.733
60989SOL     OW84799   2.091   8.698   2.551
60989SOL    HW184800   2.123   8.700   2.460
60989SOL    HW284801   2.130   8.775   2.592
60990SOL     OW84802   9.216   5.471   4.923
60990SOL    HW184803   9.214   5.486   5.018
60990SOL    HW284804   9.303   5.498   4.896
60991SOL     OW84805  12.032   0.914  10.290
60991SOL    HW184806  12.124   0.917  10.267
60991SOL    HW284807  12.029   0.868  10.374
60992SOL     OW84808   1.950   0.811   3.481
60992SOL    HW184809   2.038   0.838   3.507
60992SOL    HW284810   1.909   0.782   3.562
60993SOL     OW84811   4.225  12.155   9.700
60993SOL    HW184812   4.224  12.234   9.645
60993SOL    HW284813   4.232  12.189   9.789
60994SOL     OW84814   1.535   7.543   1.138
60994SOL    HW184815   1.447   7.557   1.104
60994SOL    HW284816   1.540   7.598   1.217
60995SOL     OW84817   1.599  13.354   8.625
60995SOL    HW184818   1.661  13.281   8.629
60995SOL    HW284819   1.596  13.377   8.532
60996SOL     OW84820  11.924   7.053   4.397
60996SOL    HW184821  11.837   7.062   4.436
60996SOL    HW284822  11.938   7.136   4.351
60997SOL     OW84823   1.955  14.081  10.872
60997SOL    HW184824   1.931  14.070  10.964
60997SOL    HW284825   1.949  13.992  10.835
60998SOL     OW84826   9.354   2.053   4.925
60998SOL    HW184827   9.440   2.024   4.895
60998SOL    HW284828   9.356   2.039   5.019
60999SOL     OW84829   3.068   2.943   1.452
60999SOL    HW184830   3.032   2.883   1.387
60999SOL    HW284831   3.148   2.977   1.413
61000SOL     OW84832   3.938   8.561   4.086
61000SOL    HW184833   3.909   8.598   4.170
61000SOL    HW284834   3.930   8.466   4.097
61001SOL     OW84835   8.205   2.878  10.993
61001SOL    HW184836   8.153   2.935  10.937
61001SOL    HW284837   8.277   2.849  10.936
61002SOL     OW84838   1.649   2.169   6.401
61002SOL    HW184839   1.608   2.145   6.318
61002SOL    HW284840   1.742   2.182   6.379
61003SOL     OW84841  11.258  12.185   5.395
61003SOL    HW184842  11.233  12.203   5.485
61003SOL    HW284843  11.254  12.090   5.387
61004SOL     OW84844  12.405   6.181   5.568
61004SOL    HW184845  12.365   6.134   5.494
61004SOL    HW284846  12.451   6.113   5.617
61005SOL     OW84847  14.338   8.077   3.169
61005SOL    HW184848  14.361   8.084   3.261
61005SOL    HW284849  14.251   8.117   3.162
61006SOL     OW84850  14.236   8.815   0.023
61006SOL    HW184851  14.234   8.793  14.803
61006SOL    HW284852  14.144   8.828   0.047
61007SOL     OW84853  10.262   2.293   9.090
61007SOL    HW184854  10.310   2.366   9.129
61007SOL    HW284855  10.268   2.223   9.156
61008SOL     OW84856  13.635  13.943  14.276
61008SOL    HW184857  13.555  13.960  14.326
61008SOL    HW284858  13.612  13.870  14.219
61009SOL     OW84859  10.094   9.079  10.590
61009SOL    HW184860  10.023   9.121  10.638
61009SOL    HW284861  10.058   8.995  10.562
61010SOL     OW84862   6.835   6.167  11.398
61010SOL    HW184863   6.846   6.150  11.492
61010SOL    HW284864   6.742   6.154  11.382
61011SOL     OW84865   9.341  11.970  13.942
61011SOL    HW184866   9.314  11.930  14.024
61011SOL    HW284867   9.436  11.957  13.939
61012SOL     OW84868   1.791   3.258   4.301
61012SOL    HW184869   1.768   3.171   4.334
61012SOL    HW284870   1.773   3.254   4.207
61013SOL     OW84871   9.219   1.275   3.248
61013SOL    HW184872   9.205   1.366   3.274
61013SOL    HW284873   9.194   1.224   3.325
61014SOL     OW84874  11.371   7.276   9.118
61014SOL    HW184875  11.425   7.240   9.048
61014SOL    HW284876  11.286   7.291   9.076
61015SOL     OW84877   6.622   3.203  12.068
61015SOL    HW184878   6.658   3.291  12.080
61015SOL    HW284879   6.544   3.217  12.014
61016SOL     OW84880  11.881   5.205   4.498
61016SOL    HW184881  11.834   5.190   4.580
61016SOL    HW284882  11.951   5.139   4.498
61017SOL     OW84883   2.309   6.260   6.293
61017SOL    HW184884   2.314   6.215   6.377
61017SOL    HW284885   2.224   6.305   6.295
61018SOL     OW84886   1.847   3.484   5.578
61018SOL    HW184887   1.921   3.536   5.548
61018SOL    HW284888   1.798   3.463   5.498
61019SOL     OW84889   9.217   4.459  13.523
61019SOL    HW184890   9.151   4.401  13.485
61019SOL    HW284891   9.269   4.488  13.448
61020SOL     OW84892   1.770   3.349  12.887
61020SOL    HW184893   1.811   3.263  12.890
61020SOL    HW284894   1.713   3.346  12.810
61021SOL     OW84895   6.404   5.165  14.175
61021SOL    HW184896   6.478   5.162  14.237
61021SOL    HW284897   6.328   5.183  14.230
61022SOL     OW84898   7.177   3.394  10.551
61022SOL    HW184899   7.237   3.381  10.477
61022SOL    HW284900   7.105   3.333  10.534
61023SOL     OW84901   2.861   9.348   9.576
61023SOL    HW184902   2.948   9.312   9.559
61023SOL    HW284903   2.876   9.442   9.590
61024SOL     OW84904   8.064   2.995  10.778
61024SOL    HW184905   8.065   2.921  10.718
61024SOL    HW284906   8.076   3.072  10.722
61025SOL     OW84907   3.092   6.344   0.431
61025SOL    HW184908   3.127   6.414   0.486
61025SOL    HW284909   3.028   6.299   0.487
61026SOL     OW84910   3.674   8.518  13.747
61026SOL    HW184911   3.622   8.588  13.707
61026SOL    HW284912   3.617   8.441  13.744
61027SOL     OW84913   5.549   8.189   0.808
61027SOL    HW184914   5.456   8.205   0.794
61027SOL    HW284915   5.593   8.258   0.758
61028SOL     OW84916   4.499   3.010   8.991
61028SOL    HW184917   4.569   2.970   9.043
61028SOL    HW284918   4.449   2.937   8.957
61029SOL     OW84919   4.236  12.933   5.932
61029SOL    HW184920   4.271  12.895   5.851
61029SOL    HW284921   4.205  12.858   5.982
61030SOL     OW84922   8.543   3.713   4.749
61030SOL    HW184923   8.510   3.738   4.835
61030SOL    HW284924   8.556   3.618   4.755
61031SOL     OW84925   0.496  12.522  11.016
61031SOL    HW184926   0.418  12.573  11.037
61031SOL    HW284927   0.513  12.470  11.095
61032SOL     OW84928   8.814  11.069   3.843
61032SOL    HW184929   8.729  11.042   3.809
61032SOL    HW284930   8.824  11.019   3.924
61033SOL     OW84931  10.384  14.830  14.759
61033SOL    HW184932  10.450   0.026  14.762
61033SOL    HW284933  10.302   0.002  14.778
61034SOL     OW84934   7.151   1.536   7.153
61034SOL    HW184935   7.181   1.580   7.233
61034SOL    HW284936   7.055   1.534   7.162
61035SOL     OW84937   1.410   5.811   1.018
61035SOL    HW184938   1.393   5.822   1.111
61035SOL    HW284939   1.456   5.890   0.992
61036SOL     OW84940   4.860  10.953  11.950
61036SOL    HW184941   4.799  10.944  11.877
61036SOL    HW284942   4.945  10.925  11.914
61037SOL     OW84943  12.885  14.560   7.083
61037SOL    HW184944  12.831  14.534   7.008
61037SOL    HW284945  12.975  14.561   7.049
61038SOL     OW84946  12.530  10.998  13.640
61038SOL    HW184947  12.625  11.000  13.631
61038SOL    HW284948  12.500  11.079  13.599
61039SOL     OW84949   0.946   3.844   5.820
61039SOL    HW184950   1.031   3.814   5.853
61039SOL    HW284951   0.950   3.828   5.726
61040SOL     OW84952  13.609   2.552   2.102
61040SOL    HW184953  13.565   2.615   2.159
61040SOL    HW284954  13.638   2.604   2.026
61041SOL     OW84955  12.674   6.450   6.877
61041SOL    HW184956  12.621   6.444   6.798
61041SOL    HW284957  12.685   6.543   6.892
61042SOL     OW84958   4.205   6.326   2.469
61042SOL    HW184959   4.126   6.351   2.423
61042SOL    HW284960   4.224   6.237   2.439
61043SOL     OW84961   6.916   4.963  14.593
61043SOL    HW184962   6.858   5.036  14.616
61043SOL    HW284963   7.003   5.002  14.585
61044SOL     OW84964   7.413   8.047   7.854
61044SOL    HW184965   7.388   8.133   7.886
61044SOL    HW284966   7.485   8.020   7.912
61045SOL     OW84967   4.733   2.377  11.297
61045SOL    HW184968   4.820   2.377  11.257
61045SOL    HW284969   4.734   2.450  11.358
61046SOL     OW84970   6.405   6.362   0.257
61046SOL    HW184971   6.383   6.337   0.167
61046SOL    HW284972   6.485   6.313   0.276
61047SOL     OW84973   0.778   5.408  10.275
61047SOL    HW184974   0.718   5.479  10.253
61047SOL    HW284975   0.734   5.360  10.346
61048SOL     OW84976   6.542   4.300   9.321
61048SOL    HW184977   6.501   4.224   9.362
61048SOL    HW284978   6.610   4.326   9.383
61049SOL     OW84979   4.477  14.709  12.690
61049SOL    HW184980   4.411  14.735  12.626
61049SOL    HW284981   4.523  14.791  12.712
61050SOL     OW84982   4.403  14.519   3.956
61050SOL    HW184983   4.440  14.445   3.908
61050SOL    HW284984   4.470  14.587   3.951
61051SOL     OW84985   4.143   3.284   2.103
61051SOL    HW184986   4.072   3.256   2.046
61051SOL    HW284987   4.115   3.258   2.191
61052SOL     OW84988  13.180   9.494   8.437
61052SOL    HW184989  13.154   9.580   8.404
61052SOL    HW284990  13.276   9.499   8.442
61053SOL     OW84991   7.150   7.385   1.481
61053SOL    HW184992   7.155   7.359   1.389
61053SOL    HW284993   7.074   7.338   1.515
61054SOL     OW84994   6.674   6.470   9.480
61054SOL    HW184995   6.721   6.390   9.458
61054SOL    HW284996   6.599   6.441   9.533
61055SOL     OW84997  13.904   3.389   7.959
61055SOL    HW184998  13.874   3.332   7.888
61055SOL    HW284999  13.883   3.477   7.929
61056SOL     OW85000  11.377  14.343   0.819
61056SOL    HW185001  11.299  14.289   0.834
61056SOL    HW285002  11.343  14.433   0.819
61057SOL     OW85003  13.353   2.714   2.986
61057SOL    HW185004  13.339   2.722   3.080
61057SOL    HW285005  13.398   2.631   2.975
61058SOL     OW85006   0.956   4.803   1.693
61058SOL    HW185007   1.043   4.788   1.729
61058SOL    HW285008   0.957   4.759   1.608
61059SOL     OW85009   1.908   0.377   4.229
61059SOL    HW185010   1.932   0.288   4.204
61059SOL    HW285011   1.913   0.377   4.324
61060SOL     OW85012  12.687  11.521   9.150
61060SOL    HW185013  12.669  11.491   9.239
61060SOL    HW285014  12.719  11.442   9.104
61061SOL     OW85015  14.637   7.454   1.288
61061SOL    HW185016  14.551   7.489   1.265
61061SOL    HW285017  14.689   7.532   1.310
61062SOL     OW85018  13.541  10.840  11.186
61062SOL    HW185019  13.518  10.748  11.201
61062SOL    HW285020  13.561  10.874  11.273
61063SOL     OW85021   2.573   5.225   1.611
61063SOL    HW185022   2.663   5.212   1.581
61063SOL    HW285023   2.559   5.319   1.604
61064SOL     OW85024  10.341  11.427  10.335
61064SOL    HW185025  10.319  11.438  10.243
61064SOL    HW285026  10.434  11.450  10.341
61065SOL     OW85027  12.176   1.022   3.567
61065SOL    HW185028  12.084   1.036   3.590
61065SOL    HW285029  12.213   1.111   3.562
61066SOL     OW85030   3.013  12.110   7.490
61066SOL    HW185031   3.017  12.114   7.394
61066SOL    HW285032   2.977  12.023   7.508
61067SOL     OW85033   5.570   0.716   7.949
61067SOL    HW185034   5.605   0.702   7.861
61067SOL    HW285035   5.549   0.629   7.981
61068SOL     OW85036   9.768  11.982  11.779
61068SOL    HW185037   9.708  11.920  11.738
61068SOL    HW285038   9.850  11.934  11.788
61069SOL     OW85039   9.416   8.843   6.937
61069SOL    HW185040   9.436   8.931   6.970
61069SOL    HW285041   9.384   8.858   6.848
61070SOL     OW85042  13.730  11.658   2.165
61070SOL    HW185043  13.669  11.664   2.239
61070SOL    HW285044  13.815  11.640   2.206
61071SOL     OW85045  14.187   2.839  12.073
61071SOL    HW185046  14.166   2.784  12.148
61071SOL    HW285047  14.283   2.840  12.070
61072SOL     OW85048   9.836   9.776   6.246
61072SOL    HW185049   9.833   9.848   6.183
61072SOL    HW285050   9.791   9.809   6.323
61073SOL     OW85051   6.264   7.177  11.471
61073SOL    HW185052   6.296   7.088  11.454
61073SOL    HW285053   6.230   7.174  11.560
61074SOL     OW85054   6.566   2.334   5.664
61074SOL    HW185055   6.561   2.327   5.569
61074SOL    HW285056   6.494   2.392   5.688
61075SOL     OW85057   7.297   0.622  14.536
61075SOL    HW185058   7.323   0.537  14.573
61075SOL    HW285059   7.310   0.684  14.608
61076SOL     OW85060   8.972   9.721  14.402
61076SOL    HW185061   9.044   9.732  14.464
61076SOL    HW285062   8.988   9.787  14.334
61077SOL     OW85063  11.852  12.736   8.071
61077SOL    HW185064  11.834  12.830   8.066
61077SOL    HW285065  11.940  12.731   8.110
61078SOL     OW85066   5.053  10.463  12.365
61078SOL    HW185067   5.077  10.522  12.437
61078SOL    HW285068   5.124  10.398  12.364
61079SOL     OW85069  10.198   6.905   1.352
61079SOL    HW185070  10.119   6.909   1.406
61079SOL    HW285071  10.222   6.812   1.354
61080SOL     OW85072  14.479   6.887   6.960
61080SOL    HW185073  14.483   6.799   6.998
61080SOL    HW285074  14.488   6.945   7.035
61081SOL     OW85075  10.895   9.444   4.207
61081SOL    HW185076  10.889   9.497   4.127
61081SOL    HW285077  10.805   9.416   4.223
61082SOL     OW85078   1.522   9.150   8.756
61082SOL    HW185079   1.610   9.152   8.795
61082SOL    HW285080   1.503   9.242   8.737
61083SOL     OW85081   9.775   6.275  13.021
61083SOL    HW185082   9.816   6.309  13.100
61083SOL    HW285083   9.682   6.264  13.045
61084SOL     OW85084  14.345  14.521  13.615
61084SOL    HW185085  14.304  14.467  13.683
61084SOL    HW285086  14.285  14.593  13.602
61085SOL     OW85087   8.081   3.146  10.418
61085SOL    HW185088   8.150   3.080  10.431
61085SOL    HW285089   8.067   3.182  10.505
61086SOL     OW85090  13.523   6.907   6.676
61086SOL    HW185091  13.482   6.849   6.741
61086SOL    HW285092  13.450   6.936   6.621
61087SOL     OW85093   4.519   3.241   1.248
61087SOL    HW185094   4.514   3.201   1.161
61087SOL    HW285095   4.535   3.334   1.230
61088SOL     OW85096   1.118   6.197   7.087
61088SOL    HW185097   1.164   6.241   7.015
61088SOL    HW285098   1.159   6.231   7.166
61089SOL     OW85099   8.288   9.142   3.952
61089SOL    HW185100   8.293   9.192   3.871
61089SOL    HW285101   8.335   9.061   3.933
61090SOL     OW85102   6.337   8.066   6.946
61090SOL    HW185103   6.306   7.976   6.952
61090SOL    HW285104   6.329   8.101   7.034
61091SOL     OW85105   5.465  13.137   6.367
61091SOL    HW185106   5.539  13.193   6.346
61091SOL    HW285107   5.458  13.077   6.292
61092SOL     OW85108   8.385  11.274   1.222
61092SOL    HW185109   8.386  11.360   1.181
61092SOL    HW285110   8.329  11.285   1.299
61093SOL     OW85111   0.929   1.080   7.306
61093SOL    HW185112   0.999   1.050   7.364
61093SOL    HW285113   0.878   1.001   7.287
61094SOL     OW85114   6.466   0.315   5.079
61094SOL    HW185115   6.501   0.404   5.086
61094SOL    HW285116   6.459   0.285   5.169
61095SOL     OW85117   7.598   7.223   4.786
61095SOL    HW185118   7.608   7.222   4.691
61095SOL    HW285119   7.668   7.166   4.818
61096SOL     OW85120  11.406  10.734   2.039
61096SOL    HW185121  11.445  10.654   2.004
61096SOL    HW285122  11.416  10.799   1.969
61097SOL     OW85123   6.921  10.335   3.509
61097SOL    HW185124   6.910  10.382   3.591
61097SOL    HW285125   6.884  10.249   3.525
61098SOL     OW85126   0.376   2.937   5.219
61098SOL    HW185127   0.336   2.941   5.306
61098SOL    HW285128   0.448   2.874   5.228
61099SOL     OW85129   5.165   5.470   5.872
61099SOL    HW185130   5.167   5.496   5.964
61099SOL    HW285131   5.234   5.404   5.864
61100SOL     OW85132   0.787   0.291   2.905
61100SOL    HW185133   0.774   0.281   2.810
61100SOL    HW285134   0.729   0.364   2.929
61101SOL     OW85135   7.779  13.560  12.327
61101SOL    HW185136   7.826  13.608  12.259
61101SOL    HW285137   7.835  13.566  12.404
61102SOL     OW85138  13.138  12.731   5.513
61102SOL    HW185139  13.123  12.782   5.593
61102SOL    HW285140  13.136  12.640   5.543
61103SOL     OW85141  10.259  13.909   2.519
61103SOL    HW185142  10.266  13.998   2.554
61103SOL    HW285143  10.269  13.919   2.424
61104SOL     OW85144  14.764   5.588   5.508
61104SOL    HW185145  14.840   5.599   5.451
61104SOL    HW285146  14.715   5.670   5.499
61105SOL     OW85147   9.812  12.462   2.413
61105SOL    HW185148   9.849  12.533   2.361
61105SOL    HW285149   9.876  12.391   2.407
61106SOL     OW85150  13.125  12.828  11.286
61106SOL    HW185151  13.109  12.901  11.346
61106SOL    HW285152  13.104  12.750  11.337
61107SOL     OW85153   0.032   8.827  14.371
61107SOL    HW185154   0.002   8.737  14.361
61107SOL    HW285155   0.127   8.821  14.373
61108SOL     OW85156   6.576   2.796   5.754
61108SOL    HW185157   6.584   2.754   5.840
61108SOL    HW285158   6.652   2.767   5.705
61109SOL     OW85159   7.343   2.255   1.977
61109SOL    HW185160   7.417   2.195   1.973
61109SOL    HW285161   7.372   2.333   1.928
61110SOL     OW85162  10.201   3.923   3.325
61110SOL    HW185163  10.155   3.917   3.242
61110SOL    HW285164  10.172   3.846   3.374
61111SOL     OW85165   4.024  14.188   3.335
61111SOL    HW185166   4.072  14.107   3.346
61111SOL    HW285167   4.075  14.253   3.383
61112SOL     OW85168   9.486  14.702   4.801
61112SOL    HW185169   9.432  14.625   4.784
61112SOL    HW285170   9.568  14.684   4.755
61113SOL     OW85171  10.805   9.809  12.721
61113SOL    HW185172  10.735   9.873  12.715
61113SOL    HW285173  10.785   9.744  12.654
61114SOL     OW85174   7.692  12.771   7.690
61114SOL    HW185175   7.782  12.761   7.659
61114SOL    HW285176   7.641  12.791   7.612
61115SOL     OW85177   9.649   0.514  13.202
61115SOL    HW185178   9.621   0.600  13.170
61115SOL    HW285179   9.625   0.454  13.132
61116SOL     OW85180   4.953  10.297   2.869
61116SOL    HW185181   4.959  10.291   2.964
61116SOL    HW285182   5.029  10.350   2.843
61117SOL     OW85183  14.692   4.621   9.470
61117SOL    HW185184  14.731   4.668   9.396
61117SOL    HW285185  14.599   4.611   9.446
61118SOL     OW85186   0.542  12.546   6.480
61118SOL    HW185187   0.630  12.535   6.516
61118SOL    HW285188   0.544  12.631   6.437
61119SOL     OW85189  11.220  13.279   8.926
61119SOL    HW185190  11.190  13.205   8.980
61119SOL    HW285191  11.312  13.260   8.909
61120SOL     OW85192   7.154   0.503   0.298
61120SOL    HW185193   7.175   0.588   0.258
61120SOL    HW285194   7.109   0.455   0.228
61121SOL     OW85195  10.255  10.755   2.076
61121SOL    HW185196  10.273  10.848   2.084
61121SOL    HW285197  10.161  10.750   2.059
61122SOL     OW85198  12.643   6.083   6.621
61122SOL    HW185199  12.625   5.993   6.651
61122SOL    HW285200  12.593   6.138   6.680
61123SOL     OW85201   5.261   6.620   2.013
61123SOL    HW185202   5.187   6.599   2.070
61123SOL    HW285203   5.337   6.622   2.072
61124SOL     OW85204  10.988  14.347   8.286
61124SOL    HW185205  10.942  14.430   8.300
61124SOL    HW285206  10.943  14.306   8.212
61125SOL     OW85207   8.143   3.885   3.629
61125SOL    HW185208   8.095   3.823   3.575
61125SOL    HW285209   8.088   3.964   3.629
61126SOL     OW85210   1.397  12.644  14.255
61126SOL    HW185211   1.469  12.707  14.245
61126SOL    HW285212   1.370  12.625  14.165
61127SOL     OW85213   9.822   7.721   8.466
61127SOL    HW185214   9.884   7.702   8.536
61127SOL    HW285215   9.736   7.704   8.504
61128SOL     OW85216   9.371   4.303  13.700
61128SOL    HW185217   9.314   4.352  13.641
61128SOL    HW285218   9.433   4.368  13.732
61129SOL     OW85219  10.692   8.435   4.367
61129SOL    HW185220  10.612   8.409   4.323
61129SOL    HW285221  10.708   8.525   4.338
61130SOL     OW85222   2.625   2.355   4.005
61130SOL    HW185223   2.562   2.422   4.033
61130SOL    HW285224   2.578   2.272   4.017
61131SOL     OW85225   5.998   1.578   2.188
61131SOL    HW185226   5.961   1.666   2.188
61131SOL    HW285227   5.926   1.522   2.160
61132SOL     OW85228   6.013   7.352  12.851
61132SOL    HW185229   6.078   7.420  12.832
61132SOL    HW285230   6.061   7.287  12.903
61133SOL     OW85231  13.387   6.603  12.107
61133SOL    HW185232  13.473   6.635  12.135
61133SOL    HW285233  13.326   6.672  12.134
61134SOL     OW85234   3.788   4.017   5.818
61134SOL    HW185235   3.798   4.102   5.774
61134SOL    HW285236   3.817   3.953   5.753
61135SOL     OW85237   2.192  12.569  10.570
61135SOL    HW185238   2.231  12.557  10.657
61135SOL    HW285239   2.263  12.550  10.509
61136SOL     OW85240   2.321   2.261   1.935
61136SOL    HW185241   2.229   2.242   1.953
61136SOL    HW285242   2.349   2.315   2.009
61137SOL     OW85243   0.089  14.163   1.848
61137SOL    HW185244   0.142  14.225   1.899
61137SOL    HW285245   0.137  14.081   1.854
61138SOL     OW85246   2.204   0.399   1.017
61138SOL    HW185247   2.174   0.481   1.057
61138SOL    HW285248   2.255   0.427   0.941
61139SOL     OW85249  10.839  13.911  10.382
61139SOL    HW185250  10.821  13.963  10.459
61139SOL    HW285251  10.923  13.868  10.400
61140SOL     OW85252   1.087   5.712   8.794
61140SOL    HW185253   1.044   5.626   8.793
61140SOL    HW285254   1.139   5.711   8.874
61141SOL     OW85255   1.059   7.560   8.779
61141SOL    HW185256   1.134   7.538   8.834
61141SOL    HW285257   0.991   7.498   8.806
61142SOL     OW85258  10.413   1.111   6.822
61142SOL    HW185259  10.322   1.138   6.807
61142SOL    HW285260  10.455   1.117   6.736
61143SOL     OW85261   3.451   7.232   0.243
61143SOL    HW185262   3.433   7.326   0.246
61143SOL    HW285263   3.381   7.196   0.188
61144SOL     OW85264  11.162   2.313  12.087
61144SOL    HW185265  11.112   2.236  12.116
61144SOL    HW285266  11.242   2.277  12.048
61145SOL     OW85267   6.945   9.662  14.042
61145SOL    HW185268   6.856   9.658  14.007
61145SOL    HW285269   6.955   9.581  14.091
61146SOL     OW85270  11.755   0.061   9.091
61146SOL    HW185271  11.766  14.839   9.093
61146SOL    HW285272  11.738   0.081   8.999
61147SOL     OW85273   1.872  11.042   6.600
61147SOL    HW185274   1.788  11.088   6.602
61147SOL    HW285275   1.903  11.055   6.510
61148SOL     OW85276  12.048   3.246  10.065
61148SOL    HW185277  12.083   3.295  10.140
61148SOL    HW285278  12.081   3.157  10.077
61149SOL     OW85279  14.728   6.075  14.590
61149SOL    HW185280  14.778   6.082  14.509
61149SOL    HW285281  14.718   6.165  14.620
61150SOL     OW85282   1.966   1.701  13.741
61150SOL    HW185283   2.027   1.653  13.797
61150SOL    HW285284   1.901   1.636  13.715
61151SOL     OW85285   7.808   0.289  13.393
61151SOL    HW185286   7.859   0.367  13.373
61151SOL    HW285287   7.774   0.259  13.309
61152SOL     OW85288  10.908   7.797   4.651
61152SOL    HW185289  10.825   7.819   4.693
61152SOL    HW285290  10.893   7.711   4.611
61153SOL     OW85291   6.452   8.714   7.353
61153SOL    HW185292   6.514   8.787   7.360
61153SOL    HW285293   6.366   8.756   7.351
61154SOL     OW85294  11.990  12.073  13.409
61154SOL    HW185295  11.950  12.134  13.347
61154SOL    HW285296  12.070  12.117  13.438
61155SOL     OW85297  12.876   8.566   5.253
61155SOL    HW185298  12.848   8.624   5.324
61155SOL    HW285299  12.806   8.501   5.247
61156SOL     OW85300   0.942  11.322  14.434
61156SOL    HW185301   0.974  11.305  14.522
61156SOL    HW285302   0.887  11.247  14.413
61157SOL     OW85303   0.696   4.925   6.596
61157SOL    HW185304   0.729   4.922   6.686
61157SOL    HW285305   0.618   4.870   6.597
61158SOL     OW85306   6.986   4.868   4.140
61158SOL    HW185307   7.056   4.803   4.148
61158SOL    HW285308   6.959   4.862   4.048
61159SOL     OW85309  10.960   0.659  11.875
61159SOL    HW185310  10.969   0.752  11.895
61159SOL    HW285311  10.964   0.615  11.960
61160SOL     OW85312   2.361   7.361   3.782
61160SOL    HW185313   2.267   7.350   3.766
61160SOL    HW285314   2.369   7.449   3.819
61161SOL     OW85315   9.306   1.293   4.956
61161SOL    HW185316   9.257   1.334   5.027
61161SOL    HW285317   9.309   1.200   4.980
61162SOL     OW85318  10.533   7.161  11.474
61162SOL    HW185319  10.593   7.111  11.419
61162SOL    HW285320  10.567   7.151  11.563
61163SOL     OW85321   5.631  12.157   9.011
61163SOL    HW185322   5.706  12.215   8.996
61163SOL    HW285323   5.561  12.193   8.958
61164SOL     OW85324   3.557   2.091   9.262
61164SOL    HW185325   3.636   2.039   9.245
61164SOL    HW285326   3.586   2.182   9.253
61165SOL     OW85327   4.110  14.546   6.101
61165SOL    HW185328   4.103  14.641   6.091
61165SOL    HW285329   4.200  14.526   6.076
61166SOL     OW85330   8.591   1.160   9.198
61166SOL    HW185331   8.547   1.232   9.154
61166SOL    HW285332   8.604   1.094   9.130
61167SOL     OW85333   5.763  13.789   3.186
61167SOL    HW185334   5.835  13.832   3.141
61167SOL    HW285335   5.801  13.708   3.221
61168SOL     OW85336  10.337   4.313  12.766
61168SOL    HW185337  10.242   4.319  12.760
61168SOL    HW285338  10.366   4.403  12.780
61169SOL     OW85339   3.846  12.842   9.969
61169SOL    HW185340   3.764  12.884   9.996
61169SOL    HW285341   3.914  12.905   9.991
61170SOL     OW85342  11.313  13.296   0.793
61170SOL    HW185343  11.234  13.288   0.739
61170SOL    HW285344  11.352  13.208   0.791
61171SOL     OW85345  11.044   3.357   0.868
61171SOL    HW185346  10.990   3.435   0.854
61171SOL    HW285347  10.984   3.292   0.904
61172SOL     OW85348   0.310   3.506   5.146
61172SOL    HW185349   0.277   3.511   5.235
61172SOL    HW285350   0.397   3.467   5.155
61173SOL     OW85351  14.286  14.444  12.093
61173SOL    HW185352  14.334  14.394  12.160
61173SOL    HW285353  14.287  14.387  12.016
61174SOL     OW85354  12.677   6.415   1.451
61174SOL    HW185355  12.660   6.508   1.436
61174SOL    HW285356  12.766   6.411   1.484
61175SOL     OW85357  13.758   9.880  10.283
61175SOL    HW185358  13.745   9.973  10.299
61175SOL    HW285359  13.851   9.872  10.260
61176SOL     OW85360   2.761   3.704   7.329
61176SOL    HW185361   2.829   3.668   7.272
61176SOL    HW285362   2.772   3.799   7.321
61177SOL     OW85363   8.732  12.667   3.502
61177SOL    HW185364   8.639  12.662   3.480
61177SOL    HW285365   8.759  12.576   3.515
61178SOL     OW85366   4.390   7.102   3.794
61178SOL    HW185367   4.320   7.166   3.781
61178SOL    HW285368   4.346   7.024   3.827
61179SOL     OW85369  11.600   7.828   9.249
61179SOL    HW185370  11.656   7.888   9.199
61179SOL    HW285371  11.590   7.752   9.193
61180SOL     OW85372  14.251  14.074  14.304
61180SOL    HW185373  14.192  14.002  14.324
61180SOL    HW285374  14.322  14.065  14.368
61181SOL     OW85375  10.981  10.294  11.615
61181SOL    HW185376  11.074  10.304  11.598
61181SOL    HW285377  10.955  10.374  11.662
61182SOL     OW85378   5.577   4.703   3.796
61182SOL    HW185379   5.593   4.652   3.717
61182SOL    HW285380   5.501   4.758   3.774
61183SOL     OW85381  10.624   7.745  11.182
61183SOL    HW185382  10.532   7.766  11.197
61183SOL    HW285383  10.658   7.721  11.268
61184SOL     OW85384   6.139   1.842   6.041
61184SOL    HW185385   6.228   1.864   6.017
61184SOL    HW285386   6.147   1.760   6.090
61185SOL     OW85387   3.555   8.829   3.312
61185SOL    HW185388   3.531   8.922   3.314
61185SOL    HW285389   3.488   8.788   3.258
61186SOL     OW85390  14.388   5.535   4.222
61186SOL    HW185391  14.439   5.487   4.287
61186SOL    HW285392  14.376   5.622   4.260
61187SOL     OW85393   1.501  12.024  13.989
61187SOL    HW185394   1.478  12.111  13.958
61187SOL    HW285395   1.447  11.964  13.936
61188SOL     OW85396   3.500  12.152   7.287
61188SOL    HW185397   3.425  12.208   7.308
61188SOL    HW285398   3.518  12.104   7.368
61189SOL     OW85399   5.656   4.941   4.760
61189SOL    HW185400   5.611   4.856   4.762
61189SOL    HW285401   5.738   4.925   4.806
61190SOL     OW85402   8.292  11.608  12.835
61190SOL    HW185403   8.271  11.700  12.816
61190SOL    HW285404   8.219  11.577  12.888
61191SOL     OW85405   9.345   7.956   0.703
61191SOL    HW185406   9.260   7.913   0.716
61191SOL    HW285407   9.334   8.007   0.623
61192SOL     OW85408   0.459   7.877   4.234
61192SOL    HW185409   0.502   7.795   4.258
61192SOL    HW285410   0.366   7.860   4.249
61193SOL     OW85411   7.489  14.557  12.908
61193SOL    HW185412   7.398  14.545  12.881
61193SOL    HW285413   7.509  14.648  12.886
61194SOL     OW85414   5.160  13.011  14.596
61194SOL    HW185415   5.186  13.074  14.529
61194SOL    HW285416   5.193  12.927  14.564
61195SOL     OW85417   8.802   7.831   8.503
61195SOL    HW185418   8.748   7.758   8.533
61195SOL    HW285419   8.851   7.794   8.428
61196SOL     OW85420   2.436  14.651   2.068
61196SOL    HW185421   2.343  14.639   2.089
61196SOL    HW285422   2.452  14.744   2.084
61197SOL     OW85423   0.483  13.632   9.497
61197SOL    HW185424   0.545  13.588   9.555
61197SOL    HW285425   0.426  13.561   9.465
61198SOL     OW85426  13.380   8.173  11.132
61198SOL    HW185427  13.436   8.244  11.163
61198SOL    HW285428  13.290   8.206  11.143
61199SOL     OW85429   2.769  13.172   5.702
61199SOL    HW185430   2.849  13.185   5.753
61199SOL    HW285431   2.791  13.101   5.641
61200SOL     OW85432  13.945  13.159   0.904
61200SOL    HW185433  14.025  13.213   0.903
61200SOL    HW285434  13.892  13.195   0.833
61201SOL     OW85435   2.418   9.003   8.738
61201SOL    HW185436   2.423   9.041   8.650
61201SOL    HW285437   2.505   9.016   8.776
61202SOL     OW85438   1.221   8.053   3.502
61202SOL    HW185439   1.187   8.132   3.459
61202SOL    HW285440   1.297   8.029   3.450
61203SOL     OW85441   6.530   6.189   1.050
61203SOL    HW185442   6.507   6.271   1.007
61203SOL    HW285443   6.608   6.159   1.005
61204SOL     OW85444   9.140   8.524   5.568
61204SOL    HW185445   9.129   8.619   5.559
61204SOL    HW285446   9.118   8.489   5.481
61205SOL     OW85447   4.738   3.006   4.861
61205SOL    HW185448   4.696   3.044   4.784
61205SOL    HW285449   4.742   3.078   4.924
61206SOL     OW85450   8.085  14.191   5.098
61206SOL    HW185451   8.026  14.116   5.102
61206SOL    HW285452   8.121  14.197   5.186
61207SOL     OW85453   4.188  14.144  14.593
61207SOL    HW185454   4.177  14.147  14.498
61207SOL    HW285455   4.106  14.179  14.628
61208SOL     OW85456   0.894   8.909  13.950
61208SOL    HW185457   0.880   8.876  14.039
61208SOL    HW285458   0.985   8.940  13.950
61209SOL     OW85459  10.487   3.652   9.290
61209SOL    HW185460  10.559   3.693   9.338
61209SOL    HW285461  10.477   3.705   9.211
61210SOL     OW85462  10.953  11.673  10.832
61210SOL    HW185463  11.041  11.678  10.793
61210SOL    HW285464  10.912  11.756  10.810
61211SOL     OW85465   7.410   5.668  10.234
61211SOL    HW185466   7.338   5.611  10.263
61211SOL    HW285467   7.485   5.639  10.286
61212SOL     OW85468   2.858  12.165   2.708
61212SOL    HW185469   2.944  12.171   2.667
61212SOL    HW285470   2.800  12.132   2.639
61213SOL     OW85471   4.841   2.388  11.882
61213SOL    HW185472   4.777   2.459  11.887
61213SOL    HW285473   4.849   2.370  11.788
61214SOL     OW85474   2.310   6.587   1.601
61214SOL    HW185475   2.349   6.500   1.615
61214SOL    HW285476   2.382   6.648   1.613
61215SOL     OW85477   1.884   5.070   8.937
61215SOL    HW185478   1.932   5.087   8.856
61215SOL    HW285479   1.895   4.976   8.953
61216SOL     OW85480   9.525  10.190   9.529
61216SOL    HW185481   9.537  10.273   9.483
61216SOL    HW285482   9.613  10.166   9.558
61217SOL     OW85483  10.974   2.729   1.382
61217SOL    HW185484  10.947   2.746   1.292
61217SOL    HW285485  11.050   2.671   1.373
61218SOL     OW85486  10.140  12.320   3.903
61218SOL    HW185487  10.209  12.254   3.909
61218SOL    HW285488  10.061  12.269   3.884
61219SOL     OW85489   4.455   0.503  13.010
61219SOL    HW185490   4.482   0.580  12.960
61219SOL    HW285491   4.362   0.516  13.026
61220SOL     OW85492   5.958   6.020   2.806
61220SOL    HW185493   5.891   6.086   2.789
61220SOL    HW285494   5.940   5.950   2.744
61221SOL     OW85495   8.790  12.102  10.573
61221SOL    HW185496   8.855  12.107  10.504
61221SOL    HW285497   8.841  12.084  10.653
61222SOL     OW85498   2.609   0.475  14.238
61222SOL    HW185499   2.523   0.511  14.259
61222SOL    HW285500   2.591   0.400  14.181
61223SOL     OW85501   1.604   3.773   8.987
61223SOL    HW185502   1.636   3.818   9.065
61223SOL    HW285503   1.682   3.735   8.947
61224SOL     OW85504   1.339   2.893   7.546
61224SOL    HW185505   1.358   2.865   7.456
61224SOL    HW285506   1.333   2.988   7.541
61225SOL     OW85507   1.518  12.618   8.118
61225SOL    HW185508   1.565  12.686   8.165
61225SOL    HW285509   1.586  12.568   8.073
61226SOL     OW85510  12.467  12.557   4.472
61226SOL    HW185511  12.538  12.558   4.408
61226SOL    HW285512  12.476  12.473   4.517
61227SOL     OW85513   3.820  13.569   4.718
61227SOL    HW185514   3.814  13.651   4.766
61227SOL    HW285515   3.772  13.506   4.772
61228SOL     OW85516   6.930   2.656  10.111
61228SOL    HW185517   6.991   2.663  10.185
61228SOL    HW285518   6.983   2.679  10.035
61229SOL     OW85519   9.526   6.159   4.080
61229SOL    HW185520   9.619   6.180   4.080
61229SOL    HW285521   9.489   6.212   4.009
61230SOL     OW85522  12.207  14.789   7.058
61230SOL    HW185523  12.169  14.758   6.975
61230SOL    HW285524  12.296  14.815   7.035
61231SOL     OW85525   3.646   5.550   2.437
61231SOL    HW185526   3.582   5.558   2.507
61231SOL    HW285527   3.665   5.640   2.411
61232SOL     OW85528  11.000   3.515  12.090
61232SOL    HW185529  11.050   3.497  12.011
61232SOL    HW285530  10.908   3.512  12.062
61233SOL     OW85531   8.062  12.254  13.045
61233SOL    HW185532   8.148  12.258  13.086
61233SOL    HW285533   8.072  12.300  12.962
61234SOL     OW85534   1.545  10.845  13.398
61234SOL    HW185535   1.638  10.844  13.417
61234SOL    HW285536   1.529  10.766  13.347
61235SOL     OW85537   1.738   1.233   3.446
61235SOL    HW185538   1.717   1.154   3.495
61235SOL    HW285539   1.660   1.288   3.453
61236SOL     OW85540  14.473  10.237   3.971
61236SOL    HW185541  14.405  10.169   3.970
61236SOL    HW285542  14.522  10.219   4.051
61237SOL     OW85543   1.830   9.308   4.051
61237SOL    HW185544   1.808   9.305   4.144
61237SOL    HW285545   1.908   9.253   4.044
61238SOL     OW85546   3.281  10.920   1.966
61238SOL    HW185547   3.220  10.870   2.020
61238SOL    HW285548   3.340  10.854   1.929
61239SOL     OW85549  10.157   1.518   3.247
61239SOL    HW185550  10.151   1.446   3.185
61239SOL    HW285551  10.091   1.581   3.217
61240SOL     OW85552   9.193   8.381  13.890
61240SOL    HW185553   9.267   8.355  13.944
61240SOL    HW285554   9.199   8.324  13.813
61241SOL     OW85555   3.123   3.755  10.009
61241SOL    HW185556   3.208   3.792   9.985
61241SOL    HW285557   3.059   3.820   9.981
61242SOL     OW85558  11.228   6.382   8.046
61242SOL    HW185559  11.171   6.325   7.994
61242SOL    HW285560  11.314   6.375   8.004
61243SOL     OW85561   1.501   7.540   1.976
61243SOL    HW185562   1.453   7.596   2.037
61243SOL    HW285563   1.582   7.518   2.022
61244SOL     OW85564   2.463  13.513   0.518
61244SOL    HW185565   2.486  13.605   0.529
61244SOL    HW285566   2.546  13.468   0.506
61245SOL     OW85567   8.120   8.287   2.760
61245SOL    HW185568   8.193   8.266   2.702
61245SOL    HW285569   8.068   8.207   2.763
61246SOL     OW85570   0.136   0.631   9.128
61246SOL    HW185571   0.191   0.554   9.118
61246SOL    HW285572   0.169   0.693   9.062
61247SOL     OW85573   3.245   6.695   4.353
61247SOL    HW185574   3.192   6.654   4.421
61247SOL    HW285575   3.276   6.777   4.392
61248SOL     OW85576   0.941  11.398   5.052
61248SOL    HW185577   1.024  11.407   5.006
61248SOL    HW285578   0.949  11.455   5.128
61249SOL     OW85579  11.285   9.054   8.633
61249SOL    HW185580  11.276   9.081   8.724
61249SOL    HW285581  11.196   9.036   8.604
61250SOL     OW85582  10.194   7.988   3.698
61250SOL    HW185583  10.149   8.003   3.615
61250SOL    HW285584  10.267   8.049   3.697
61251SOL     OW85585  13.873   4.533   5.872
61251SOL    HW185586  13.835   4.446   5.876
61251SOL    HW285587  13.966   4.520   5.889
61252SOL     OW85588  11.807   9.786   4.619
61252SOL    HW185589  11.777   9.695   4.621
61252SOL    HW285590  11.779   9.818   4.533
61253SOL     OW85591   3.421   0.363   4.857
61253SOL    HW185592   3.366   0.423   4.806
61253SOL    HW285593   3.362   0.326   4.922
61254SOL     OW85594  14.783  10.330   7.025
61254SOL    HW185595  14.834  10.407   7.050
61254SOL    HW285596  14.762  10.287   7.108
61255SOL     OW85597  14.013   4.688   8.464
61255SOL    HW185598  13.986   4.611   8.514
61255SOL    HW285599  14.027   4.656   8.375
61256SOL     OW85600   5.333  10.084   8.910
61256SOL    HW185601   5.279  10.072   8.989
61256SOL    HW285602   5.353   9.996   8.881
61257SOL     OW85603  14.858  11.976   3.950
61257SOL    HW185604  14.858  11.903   4.011
61257SOL    HW285605  14.863  12.054   4.005
61258SOL     OW85606   5.040   4.398   3.926
61258SOL    HW185607   4.986   4.356   3.860
61258SOL    HW285608   5.060   4.484   3.890
61259SOL     OW85609   2.180   3.741  12.379
61259SOL    HW185610   2.192   3.834  12.398
61259SOL    HW285611   2.265   3.702  12.399
61260SOL     OW85612   0.022  12.332   9.072
61260SOL    HW185613   0.092  12.317   9.008
61260SOL    HW285614  14.854  12.414   9.044
61261SOL     OW85615   1.963   6.431  11.145
61261SOL    HW185616   1.914   6.512  11.155
61261SOL    HW285617   1.970   6.397  11.235
61262SOL     OW85618   0.691   4.181   3.843
61262SOL    HW185619   0.620   4.120   3.823
61262SOL    HW285620   0.709   4.167   3.936
61263SOL     OW85621  11.378  10.873  11.115
61263SOL    HW185622  11.364  10.965  11.094
61263SOL    HW285623  11.351  10.865  11.206
61264SOL     OW85624  12.464   7.838   2.673
61264SOL    HW185625  12.426   7.759   2.635
61264SOL    HW285626  12.558   7.832   2.653
61265SOL     OW85627   6.661  10.051   0.745
61265SOL    HW185628   6.626   9.988   0.807
61265SOL    HW285629   6.589  10.068   0.685
61266SOL     OW85630   2.172  14.832   5.841
61266SOL    HW185631   2.214   0.026   5.895
61266SOL    HW285632   2.187  14.863   5.751
61267SOL     OW85633   3.692   5.731   8.737
61267SOL    HW185634   3.605   5.757   8.705
61267SOL    HW285635   3.732   5.813   8.766
61268SOL     OW85636   9.205  14.044   7.994
61268SOL    HW185637   9.291  14.004   8.007
61268SOL    HW285638   9.177  14.067   8.083
61269SOL     OW85639   3.174   6.769   1.978
61269SOL    HW185640   3.111   6.841   1.968
61269SOL    HW285641   3.155   6.711   1.904
61270SOL     OW85642   8.208   7.111   9.338
61270SOL    HW185643   8.202   7.201   9.371
61270SOL    HW285644   8.121   7.074   9.354
61271SOL     OW85645   6.233   7.078   6.630
61271SOL    HW185646   6.145   7.057   6.659
61271SOL    HW285647   6.254   7.161   6.673
61272SOL     OW85648   2.357   1.584  14.283
61272SOL    HW185649   2.378   1.492  14.265
61272SOL    HW285650   2.386   1.598  14.373
61273SOL     OW85651   7.782  12.500   3.864
61273SOL    HW185652   7.850  12.447   3.905
61273SOL    HW285653   7.776  12.579   3.918
61274SOL     OW85654   9.986   4.908  12.647
61274SOL    HW185655   9.933   4.887  12.724
61274SOL    HW285656  10.057   4.962  12.681
61275SOL     OW85657   6.322  13.493   4.699
61275SOL    HW185658   6.378  13.507   4.623
61275SOL    HW285659   6.233  13.503   4.665
61276SOL     OW85660  13.713   2.449   7.662
61276SOL    HW185661  13.781   2.388   7.633
61276SOL    HW285662  13.748   2.487   7.742
61277SOL     OW85663   9.150   1.558   8.865
61277SOL    HW185664   9.162   1.616   8.940
61277SOL    HW285665   9.236   1.519   8.851
61278SOL     OW85666  10.417  13.661  10.348
61278SOL    HW185667  10.459  13.746  10.336
61278SOL    HW285668  10.465  13.620  10.419
61279SOL     OW85669  11.048  13.489   2.558
61279SOL    HW185670  10.984  13.550   2.595
61279SOL    HW285671  10.996  13.413   2.531
61280SOL     OW85672  13.642   3.728  10.753
61280SOL    HW185673  13.666   3.813  10.789
61280SOL    HW285674  13.665   3.732  10.661
61281SOL     OW85675   6.170   8.094   4.635
61281SOL    HW185676   6.257   8.129   4.654
61281SOL    HW285677   6.185   8.006   4.602
61282SOL     OW85678   6.909   8.679   1.399
61282SOL    HW185679   6.819   8.673   1.432
61282SOL    HW285680   6.922   8.771   1.379
61283SOL     OW85681   5.590   8.481   7.119
61283SOL    HW185682   5.561   8.401   7.162
61283SOL    HW285683   5.614   8.539   7.191
61284SOL     OW85684  11.056   1.913   1.020
61284SOL    HW185685  11.018   1.986   1.068
61284SOL    HW285686  11.124   1.879   1.078
61285SOL     OW85687   2.386  10.168   1.815
61285SOL    HW185688   2.317  10.122   1.863
61285SOL    HW285689   2.379  10.134   1.725
61286SOL     OW85690  13.496   5.872  14.418
61286SOL    HW185691  13.566   5.808  14.413
61286SOL    HW285692  13.503   5.909  14.506
61287SOL     OW85693  13.539  13.491   0.031
61287SOL    HW185694  13.469  13.509  14.840
61287SOL    HW285695  13.598  13.431  14.857
61288SOL     OW85696   6.558   8.083   3.408
61288SOL    HW185697   6.522   8.015   3.351
61288SOL    HW285698   6.513   8.163   3.384
61289SOL     OW85699   4.727  13.895  14.151
61289SOL    HW185700   4.670  13.960  14.191
61289SOL    HW285701   4.738  13.924  14.060
61290SOL     OW85702  10.745   0.859  12.227
61290SOL    HW185703  10.730   0.949  12.255
61290SOL    HW285704  10.828   0.834  12.270
61291SOL     OW85705   6.961   0.546   9.444
61291SOL    HW185706   6.916   0.482   9.389
61291SOL    HW285707   7.049   0.509   9.458
61292SOL     OW85708   9.689  13.972  12.878
61292SOL    HW185709   9.663  14.049  12.827
61292SOL    HW285710   9.698  13.903  12.812
61293SOL     OW85711   4.445   4.064  11.918
61293SOL    HW185712   4.391   4.135  11.882
61293SOL    HW285713   4.431   3.990  11.858
61294SOL     OW85714   3.242  10.697  10.564
61294SOL    HW185715   3.282  10.725  10.646
61294SOL    HW285716   3.307  10.639  10.524
61295SOL     OW85717   2.363   9.107  14.100
61295SOL    HW185718   2.279   9.061  14.102
61295SOL    HW285719   2.415   9.065  14.168
61296SOL     OW85720  14.350   6.851  13.232
61296SOL    HW185721  14.272   6.811  13.269
61296SOL    HW285722  14.406   6.778  13.206
61297SOL     OW85723  10.312   3.201   5.032
61297SOL    HW185724  10.306   3.134   5.099
61297SOL    HW285725  10.223   3.236   5.025
61298SOL     OW85726  11.491   4.279   8.968
61298SOL    HW185727  11.459   4.331   9.041
61298SOL    HW285728  11.564   4.229   9.003
61299SOL     OW85729   1.240   6.286   6.859
61299SOL    HW185730   1.211   6.357   6.802
61299SOL    HW285731   1.324   6.316   6.894
61300SOL     OW85732   2.904  12.477  14.365
61300SOL    HW185733   2.957  12.401  14.342
61300SOL    HW285734   2.824  12.466  14.314
61301SOL     OW85735   7.435  13.137   0.501
61301SOL    HW185736   7.383  13.060   0.476
61301SOL    HW285737   7.462  13.176   0.417
61302SOL     OW85738   9.565   0.329   6.147
61302SOL    HW185739   9.611   0.413   6.139
61302SOL    HW285740   9.527   0.331   6.235
61303SOL     OW85741   6.984  14.046   1.331
61303SOL    HW185742   6.950  13.977   1.387
61303SOL    HW285743   7.071  14.064   1.366
61304SOL     OW85744   4.461   5.344   0.334
61304SOL    HW185745   4.392   5.390   0.382
61304SOL    HW285746   4.468   5.392   0.251
61305SOL     OW85747   4.723  12.037   4.969
61305SOL    HW185748   4.813  12.031   4.940
61305SOL    HW285749   4.676  12.077   4.896
61306SOL     OW85750  10.288   6.805   6.851
61306SOL    HW185751  10.256   6.803   6.941
61306SOL    HW285752  10.210   6.827   6.799
61307SOL     OW85753   3.967   5.987   8.335
61307SOL    HW185754   3.998   6.048   8.268
61307SOL    HW285755   3.921   6.043   8.398
61308SOL     OW85756  11.455   1.251   9.779
61308SOL    HW185757  11.458   1.163   9.742
61308SOL    HW285758  11.527   1.298   9.736
61309SOL     OW85759   8.251  13.987  11.960
61309SOL    HW185760   8.290  13.962  12.043
61309SOL    HW285761   8.254  14.083  11.960
61310SOL     OW85762   2.191   7.003   5.248
61310SOL    HW185763   2.165   7.081   5.297
61310SOL    HW285764   2.156   6.930   5.299
61311SOL     OW85765   8.143   5.036   8.628
61311SOL    HW185766   8.190   5.111   8.664
61311SOL    HW285767   8.210   4.968   8.617
61312SOL     OW85768   8.555   6.810   1.000
61312SOL    HW185769   8.536   6.747   1.069
61312SOL    HW285770   8.628   6.771   0.951
61313SOL     OW85771  13.211   0.664   5.671
61313SOL    HW185772  13.264   0.592   5.637
61313SOL    HW285773  13.270   0.739   5.672
61314SOL     OW85774   1.055  11.792   4.125
61314SOL    HW185775   1.009  11.868   4.160
61314SOL    HW285776   1.132  11.830   4.081
61315SOL     OW85777   2.507   2.279   6.812
61315SOL    HW185778   2.528   2.225   6.735
61315SOL    HW285779   2.458   2.353   6.776
61316SOL     OW85780   2.386   9.147  11.636
61316SOL    HW185781   2.336   9.128  11.557
61316SOL    HW285782   2.320   9.154  11.706
61317SOL     OW85783   5.701   6.341   6.551
61317SOL    HW185784   5.612   6.374   6.549
61317SOL    HW285785   5.693   6.247   6.568
61318SOL     OW85786   3.258  12.897   0.541
61318SOL    HW185787   3.183  12.873   0.594
61318SOL    HW285788   3.250  12.992   0.529
61319SOL     OW85789   8.136   0.635   4.187
61319SOL    HW185790   8.078   0.702   4.151
61319SOL    HW285791   8.090   0.552   4.171
61320SOL     OW85792   9.864   3.928   4.125
61320SOL    HW185793   9.919   3.854   4.099
61320SOL    HW285794   9.809   3.945   4.048
61321SOL     OW85795  10.593   1.446   9.223
61321SOL    HW185796  10.655   1.379   9.252
61321SOL    HW285797  10.646   1.524   9.208
61322SOL     OW85798  12.597   8.827   0.038
61322SOL    HW185799  12.642   8.895   0.089
61322SOL    HW285800  12.594   8.862  14.822
61323SOL     OW85801   4.835   3.650  12.120
61323SOL    HW185802   4.831   3.734  12.166
61323SOL    HW285803   4.745   3.617  12.123
61324SOL     OW85804  12.371  11.900   4.669
61324SOL    HW185805  12.386  11.909   4.575
61324SOL    HW285806  12.308  11.969   4.690
61325SOL     OW85807  11.590   1.019   2.962
61325SOL    HW185808  11.519   1.081   2.949
61325SOL    HW285809  11.624   1.039   3.049
61326SOL     OW85810   3.938   5.568  14.796
61326SOL    HW185811   3.888   5.585   0.003
61326SOL    HW285812   3.974   5.653  14.772
61327SOL     OW85813   5.115   0.356  10.594
61327SOL    HW185814   5.164   0.326  10.670
61327SOL    HW285815   5.172   0.421  10.552
61328SOL     OW85816   0.495  14.731  12.087
61328SOL    HW185817   0.473  14.817  12.124
61328SOL    HW285818   0.510  14.675  12.163
61329SOL     OW85819   9.495  13.710  10.726
61329SOL    HW185820   9.482  13.779  10.791
61329SOL    HW285821   9.539  13.754  10.653
61330SOL     OW85822   6.889   6.608  10.044
61330SOL    HW185823   6.826   6.636   9.977
61330SOL    HW285824   6.959   6.673  10.039
61331SOL     OW85825   5.110   6.207   6.712
61331SOL    HW185826   5.061   6.127   6.729
61331SOL    HW285827   5.195   6.193   6.754
61332SOL     OW85828   8.012   0.169  13.045
61332SOL    HW185829   7.968   0.153  12.961
61332SOL    HW285830   7.969   0.111  13.107
61333SOL     OW85831  13.989   2.418   4.559
61333SOL    HW185832  14.080   2.389   4.549
61333SOL    HW285833  13.995   2.514   4.563
61334SOL     OW85834   4.690  14.090   4.311
61334SOL    HW185835   4.731  14.109   4.396
61334SOL    HW285836   4.751  14.033   4.266
61335SOL     OW85837   9.786   4.249   5.337
61335SOL    HW185838   9.882   4.248   5.339
61335SOL    HW285839   9.761   4.253   5.430
61336SOL     OW85840  12.150   5.589   3.323
61336SOL    HW185841  12.210   5.642   3.270
61336SOL    HW285842  12.201   5.564   3.399
61337SOL     OW85843  12.561   6.150   4.192
61337SOL    HW185844  12.622   6.105   4.133
61337SOL    HW285845  12.577   6.244   4.176
61338SOL     OW85846   3.225   7.226   0.055
61338SOL    HW185847   3.167   7.152   0.072
61338SOL    HW285848   3.182   7.275  14.858
61339SOL     OW85849   9.669   4.626  10.115
61339SOL    HW185850   9.597   4.684  10.088
61339SOL    HW285851   9.670   4.633  10.210
61340SOL     OW85852   5.711  11.102   4.567
61340SOL    HW185853   5.805  11.118   4.575
61340SOL    HW285854   5.697  11.020   4.615
61341SOL     OW85855   3.810  11.558   4.324
61341SOL    HW185856   3.830  11.620   4.394
61341SOL    HW285857   3.831  11.472   4.362
61342SOL     OW85858   5.937   4.443   6.264
61342SOL    HW185859   5.933   4.358   6.220
61342SOL    HW285860   5.909   4.425   6.354
61343SOL     OW85861  13.174  12.089   3.897
61343SOL    HW185862  13.090  12.129   3.876
61343SOL    HW285863  13.227  12.160   3.933
61344SOL     OW85864   2.336   1.341   1.001
61344SOL    HW185865   2.332   1.415   0.939
61344SOL    HW285866   2.330   1.264   0.945
61345SOL     OW85867  10.318   8.069   0.182
61345SOL    HW185868  10.269   8.117   0.248
61345SOL    HW285869  10.380   8.132   0.146
61346SOL     OW85870   7.600  14.673   9.361
61346SOL    HW185871   7.530  14.628   9.314
61346SOL    HW285872   7.623  14.614   9.433
61347SOL     OW85873  13.678   6.881   3.703
61347SOL    HW185874  13.627   6.962   3.707
61347SOL    HW285875  13.764   6.905   3.737
61348SOL     OW85876   4.634   0.297  10.970
61348SOL    HW185877   4.692   0.263  11.038
61348SOL    HW285878   4.564   0.341  11.019
61349SOL     OW85879  13.240  10.785   8.338
61349SOL    HW185880  13.239  10.775   8.433
61349SOL    HW285881  13.150  10.808   8.315
61350SOL     OW85882   4.961   6.613  11.194
61350SOL    HW185883   4.931   6.536  11.242
61350SOL    HW285884   4.968   6.681  11.261
61351SOL     OW85885   2.911   2.264   3.421
61351SOL    HW185886   2.860   2.212   3.483
61351SOL    HW285887   2.888   2.229   3.335
61352SOL     OW85888   6.219   1.035   7.014
61352SOL    HW185889   6.235   0.946   6.982
61352SOL    HW285890   6.304   1.078   7.009
61353SOL     OW85891   7.148   9.070   5.295
61353SOL    HW185892   7.080   9.088   5.231
61353SOL    HW285893   7.173   8.979   5.278
61354SOL     OW85894   9.666  13.966   3.969
61354SOL    HW185895   9.602  13.920   3.915
61354SOL    HW285896   9.615  14.031   4.017
61355SOL     OW85897  14.747   4.919  13.481
61355SOL    HW185898  14.708   4.836  13.452
61355SOL    HW285899  14.841   4.902  13.482
61356SOL     OW85900   3.036   1.451   8.694
61356SOL    HW185901   3.125   1.484   8.686
61356SOL    HW285902   2.995   1.470   8.610
61357SOL     OW85903   6.026  11.100   0.772
61357SOL    HW185904   5.984  11.020   0.739
61357SOL    HW285905   5.966  11.170   0.749
61358SOL     OW85906   4.815   0.905  10.569
61358SOL    HW185907   4.885   0.945  10.621
61358SOL    HW285908   4.842   0.814  10.559
61359SOL     OW85909   3.311  12.426   2.773
61359SOL    HW185910   3.399  12.388   2.765
61359SOL    HW285911   3.256  12.353   2.801
61360SOL     OW85912   5.310   5.748  13.032
61360SOL    HW185913   5.327   5.697  12.952
61360SOL    HW285914   5.214   5.756  13.034
61361SOL     OW85915   3.277   1.916   9.181
61361SOL    HW185916   3.362   1.960   9.182
61361SOL    HW285917   3.222   1.970   9.125
61362SOL     OW85918  14.310   1.028  11.646
61362SOL    HW185919  14.299   1.089  11.573
61362SOL    HW285920  14.223   1.022  11.686
61363SOL     OW85921  11.843  11.989   8.749
61363SOL    HW185922  11.847  12.065   8.806
61363SOL    HW285923  11.932  11.954   8.750
61364SOL     OW85924   6.891   1.311  11.158
61364SOL    HW185925   6.947   1.357  11.221
61364SOL    HW285926   6.802   1.328  11.188
61365SOL     OW85927   6.794  13.294   4.013
61365SOL    HW185928   6.733  13.226   3.982
61365SOL    HW285929   6.739  13.354   4.063
61366SOL     OW85930   6.967  12.487  10.431
61366SOL    HW185931   7.056  12.467  10.460
61366SOL    HW285932   6.938  12.407  10.387
61367SOL     OW85933   3.173   9.858   8.405
61367SOL    HW185934   3.103   9.906   8.449
61367SOL    HW285935   3.250   9.871   8.461
61368SOL     OW85936   4.257  12.914   8.652
61368SOL    HW185937   4.264  13.008   8.671
61368SOL    HW285938   4.344  12.889   8.623
61369SOL     OW85939  13.087  10.229  13.542
61369SOL    HW185940  13.086  10.263  13.631
61369SOL    HW285941  13.000  10.249  13.507
61370SOL     OW85942   3.162   9.862  14.511
61370SOL    HW185943   3.213   9.914  14.573
61370SOL    HW285944   3.081   9.911  14.500
61371SOL     OW85945  13.746  12.493   1.967
61371SOL    HW185946  13.776  12.403   1.955
61371SOL    HW285947  13.792  12.523   2.046
61372SOL     OW85948  13.848   1.011  10.382
61372SOL    HW185949  13.924   1.003  10.325
61372SOL    HW285950  13.878   1.066  10.455
61373SOL     OW85951   6.001  11.873   1.898
61373SOL    HW185952   6.020  11.930   1.823
61373SOL    HW285953   5.970  11.933   1.966
61374SOL     OW85954   1.617   8.546  13.838
61374SOL    HW185955   1.562   8.603  13.784
61374SOL    HW285956   1.555   8.490  13.885
61375SOL     OW85957   0.042  13.323   5.098
61375SOL    HW185958   0.004  13.402   5.059
61375SOL    HW285959   0.117  13.355   5.148
61376SOL     OW85960   0.094   0.768   2.590
61376SOL    HW185961   0.147   0.691   2.570
61376SOL    HW285962   0.063   0.798   2.505
61377SOL     OW85963  13.060   3.242   6.183
61377SOL    HW185964  13.125   3.277   6.244
61377SOL    HW285965  12.995   3.199   6.238
61378SOL     OW85966   1.989   0.675   7.253
61378SOL    HW185967   1.985   0.753   7.197
61378SOL    HW285968   2.031   0.609   7.199
61379SOL     OW85969  10.335   2.784  13.919
61379SOL    HW185970  10.241   2.797  13.933
61379SOL    HW285971  10.341   2.743  13.833
61380SOL     OW85972   8.422   5.010   4.921
61380SOL    HW185973   8.437   5.104   4.911
61380SOL    HW285974   8.459   4.989   5.007
61381SOL     OW85975  12.385  11.383   4.959
61381SOL    HW185976  12.335  11.442   5.016
61381SOL    HW285977  12.414  11.438   4.886
61382SOL     OW85978  12.750  12.384   6.941
61382SOL    HW185979  12.726  12.422   6.857
61382SOL    HW285980  12.679  12.408   7.000
61383SOL     OW85981   3.095   9.061  12.076
61383SOL    HW185982   3.163   9.066  12.009
61383SOL    HW285983   3.014   9.078  12.028
61384SOL     OW85984  13.980   9.416  14.394
61384SOL    HW185985  13.989   9.363  14.315
61384SOL    HW285986  14.035   9.492  14.378
61385SOL     OW85987   9.714  13.824   2.769
61385SOL    HW185988   9.763  13.758   2.818
61385SOL    HW285989   9.776  13.896   2.757
61386SOL     OW85990  10.604   6.631  10.255
61386SOL    HW185991  10.671   6.563  10.266
61386SOL    HW285992  10.599   6.644  10.161
61387SOL     OW85993   6.374  13.711   1.097
61387SOL    HW185994   6.329  13.664   1.027
61387SOL    HW285995   6.459  13.734   1.060
61388SOL     OW85996  14.542  13.722  13.069
61388SOL    HW185997  14.556  13.759  12.982
61388SOL    HW285998  14.488  13.787  13.114
61389SOL     OW85999  10.393   3.357   1.900
61389SOL    HW186000  10.487   3.354   1.916
61389SOL    HW286001  10.385   3.353   1.804
61390SOL     OW86002   1.266  11.981   7.405
61390SOL    HW186003   1.204  12.054   7.415
61390SOL    HW286004   1.211  11.905   7.385
61391SOL     OW86005   5.658   0.454   8.151
61391SOL    HW186006   5.706   0.371   8.141
61391SOL    HW286007   5.579   0.442   8.099
61392SOL     OW86008  13.841  14.061   1.733
61392SOL    HW186009  13.751  14.060   1.700
61392SOL    HW286010  13.857  13.970   1.760
61393SOL     OW86011  10.349   8.269   8.583
61393SOL    HW186012  10.343   8.218   8.502
61393SOL    HW286013  10.407   8.342   8.561
61394SOL     OW86014   6.812  12.182   1.315
61394SOL    HW186015   6.773  12.198   1.229
61394SOL    HW286016   6.889  12.128   1.297
61395SOL     OW86017   2.450   7.065   0.521
61395SOL    HW186018   2.518   7.128   0.543
61395SOL    HW286019   2.374   7.118   0.497
61396SOL     OW86020  13.251  10.360  13.984
61396SOL    HW186021  13.210  10.329  13.903
61396SOL    HW286022  13.177  10.383  14.040
61397SOL     OW86023  10.863   4.095   2.166
61397SOL    HW186024  10.794   4.158   2.184
61397SOL    HW286025  10.822   4.009   2.180
61398SOL     OW86026   0.145   9.363  14.019
61398SOL    HW186027   0.058   9.323  14.012
61398SOL    HW286028   0.128   9.456  14.009
61399SOL     OW86029   8.743   3.703   5.094
61399SOL    HW186030   8.787   3.707   5.009
61399SOL    HW286031   8.714   3.612   5.103
61400SOL     OW86032   8.335  12.007   7.804
61400SOL    HW186033   8.414  12.038   7.759
61400SOL    HW286034   8.279  12.085   7.810
61401SOL     OW86035   9.283  10.874   9.174
61401SOL    HW186036   9.268  10.895   9.082
61401SOL    HW286037   9.196  10.873   9.213
61402SOL     OW86038   2.762   5.957  13.759
61402SOL    HW186039   2.713   5.980  13.680
61402SOL    HW286040   2.789   5.866  13.745
61403SOL     OW86041  11.164   3.260  13.118
61403SOL    HW186042  11.246   3.291  13.078
61403SOL    HW286043  11.184   3.255  13.211
61404SOL     OW86044  12.235   4.302   8.562
61404SOL    HW186045  12.292   4.328   8.490
61404SOL    HW286046  12.180   4.232   8.526
61405SOL     OW86047   1.212   5.056   7.025
61405SOL    HW186048   1.117   5.040   7.025
61405SOL    HW286049   1.240   5.030   6.937
61406SOL     OW86050  12.248   4.544  14.013
61406SOL    HW186051  12.260   4.562  14.107
61406SOL    HW286052  12.292   4.460  13.999
61407SOL     OW86053  13.133  12.740   9.850
61407SOL    HW186054  13.088  12.786   9.921
61407SOL    HW286055  13.161  12.657   9.889
61408SOL     OW86056   5.573   9.109  11.319
61408SOL    HW186057   5.557   9.101  11.225
61408SOL    HW286058   5.619   9.028  11.343
61409SOL     OW86059  12.764  10.055  10.376
61409SOL    HW186060  12.851  10.069  10.413
61409SOL    HW286061  12.767  10.095  10.290
61410SOL     OW86062   7.177  12.520   5.509
61410SOL    HW186063   7.272  12.529   5.517
61410SOL    HW286064   7.164  12.479   5.424
61411SOL     OW86065   1.418  11.461  10.689
61411SOL    HW186066   1.500  11.438  10.646
61411SOL    HW286067   1.442  11.471  10.781
61412SOL     OW86068  13.281   4.383   1.592
61412SOL    HW186069  13.356   4.442   1.589
61412SOL    HW286070  13.268   4.355   1.502
61413SOL     OW86071   0.836   2.209  12.390
61413SOL    HW186072   0.907   2.273  12.383
61413SOL    HW286073   0.861   2.154  12.465
61414SOL     OW86074   9.606   2.054  10.572
61414SOL    HW186075   9.688   2.018  10.537
61414SOL    HW286076   9.611   2.036  10.666
61415SOL     OW86077   4.150   0.720   5.896
61415SOL    HW186078   4.104   0.636   5.894
61415SOL    HW286079   4.223   0.706   5.955
61416SOL     OW86080   0.573  13.051   6.244
61416SOL    HW186081   0.664  13.067   6.268
61416SOL    HW286082   0.540  13.137   6.218
61417SOL     OW86083   3.872   6.013   7.760
61417SOL    HW186084   3.963   5.984   7.751
61417SOL    HW286085   3.876   6.083   7.825
61418SOL     OW86086  14.518   0.844   2.969
61418SOL    HW186087  14.486   0.762   2.931
61418SOL    HW286088  14.612   0.832   2.977
61419SOL     OW86089  10.518   9.378   8.298
61419SOL    HW186090  10.568   9.335   8.229
61419SOL    HW286091  10.575   9.374   8.375
61420SOL     OW86092   2.448   9.128  11.319
61420SOL    HW186093   2.402   9.179  11.252
61420SOL    HW286094   2.523   9.183  11.343
61421SOL     OW86095  14.779   1.372   9.105
61421SOL    HW186096  14.725   1.349   9.181
61421SOL    HW286097  14.852   1.423   9.142
61422SOL     OW86098   5.883   9.746   7.067
61422SOL    HW186099   5.835   9.776   7.144
61422SOL    HW286100   5.972   9.729   7.098
61423SOL     OW86101   2.531   5.144   1.075
61423SOL    HW186102   2.581   5.225   1.085
61423SOL    HW286103   2.470   5.143   1.149
61424SOL     OW86104  12.017   7.844  13.700
61424SOL    HW186105  11.998   7.933  13.730
61424SOL    HW286106  11.992   7.788  13.774
61425SOL     OW86107  12.408  10.781   6.450
61425SOL    HW186108  12.473  10.851   6.459
61425SOL    HW286109  12.460  10.701   6.442
61426SOL     OW86110   5.965  14.872  12.072
61426SOL    HW186111   5.898  14.858  12.138
61426SOL    HW286112   5.933  14.826  11.995
61427SOL     OW86113  13.538  13.687  13.006
61427SOL    HW186114  13.588  13.745  13.063
61427SOL    HW286115  13.447  13.714  13.018
61428SOL     OW86116   3.447   5.654  11.159
61428SOL    HW186117   3.430   5.735  11.111
61428SOL    HW286118   3.383   5.654  11.230
61429SOL     OW86119   4.162   1.734  13.800
61429SOL    HW186120   4.156   1.640  13.782
61429SOL    HW286121   4.148   1.775  13.715
61430SOL     OW86122   3.151   0.755  12.600
61430SOL    HW186123   3.163   0.783  12.691
61430SOL    HW286124   3.061   0.779  12.579
61431SOL     OW86125  14.562  11.575   3.785
61431SOL    HW186126  14.507  11.526   3.724
61431SOL    HW286127  14.506  11.592   3.861
61432SOL     OW86128  12.674   1.181  11.885
61432SOL    HW186129  12.583   1.181  11.857
61432SOL    HW286130  12.687   1.267  11.925
61433SOL     OW86131   3.057   5.856  14.628
61433SOL    HW186132   3.012   5.774  14.605
61433SOL    HW286133   2.987   5.922  14.629
61434SOL     OW86134   7.726   6.620   4.919
61434SOL    HW186135   7.639   6.634   4.958
61434SOL    HW286136   7.779   6.584   4.991
61435SOL     OW86137   6.113  10.223   9.423
61435SOL    HW186138   6.199  10.259   9.447
61435SOL    HW286139   6.057  10.300   9.415
61436SOL     OW86140  13.124   2.510  12.763
61436SOL    HW186141  13.166   2.593  12.781
61436SOL    HW286142  13.190   2.444  12.783
61437SOL     OW86143   2.310  10.075  10.705
61437SOL    HW186144   2.380  10.040  10.761
61437SOL    HW286145   2.335  10.049  10.616
61438SOL     OW86146   6.773   9.718   2.728
61438SOL    HW186147   6.693   9.763   2.703
61438SOL    HW286148   6.839   9.749   2.665
61439SOL     OW86149   7.398  10.761  12.982
61439SOL    HW186150   7.400  10.799  12.894
61439SOL    HW286151   7.453  10.819  13.035
61440SOL     OW86152  14.202   9.386   4.617
61440SOL    HW186153  14.198   9.463   4.561
61440SOL    HW286154  14.222   9.314   4.557
61441SOL     OW86155   8.751  14.767   7.125
61441SOL    HW186156   8.661  14.787   7.150
61441SOL    HW286157   8.777  14.695   7.182
61442SOL     OW86158  10.044   6.970  13.923
61442SOL    HW186159  10.115   6.987  13.861
61442SOL    HW286160  10.013   7.057  13.949
61443SOL     OW86161   3.324   8.694   3.114
61443SOL    HW186162   3.234   8.680   3.086
61443SOL    HW286163   3.361   8.752   3.048
61444SOL     OW86164   7.262  12.145   3.437
61444SOL    HW186165   7.285  12.117   3.526
61444SOL    HW286166   7.208  12.073   3.403
61445SOL     OW86167  14.678   5.584  13.471
61445SOL    HW186168  14.646   5.496  13.490
61445SOL    HW286169  14.773   5.576  13.471
61446SOL     OW86170   6.658   8.029   5.224
61446SOL    HW186171   6.591   7.980   5.271
61446SOL    HW286172   6.662   7.987   5.138
61447SOL     OW86173  10.513   8.560   9.632
61447SOL    HW186174  10.471   8.608   9.561
61447SOL    HW286175  10.552   8.483   9.590
61448SOL     OW86176  12.044  10.913  14.170
61448SOL    HW186177  12.024  10.900  14.262
61448SOL    HW286178  11.968  10.960  14.135
61449SOL     OW86179   5.605   7.794  11.464
61449SOL    HW186180   5.644   7.847  11.395
61449SOL    HW286181   5.511   7.796  11.446
61450SOL     OW86182   9.114   0.573  13.058
61450SOL    HW186183   9.044   0.552  13.120
61450SOL    HW286184   9.070   0.622  12.988
61451SOL     OW86185   0.038   9.882   9.343
61451SOL    HW186186   0.048   9.787   9.330
61451SOL    HW286187  14.835   9.906   9.290
61452SOL     OW86188   4.874  14.262   3.218
61452SOL    HW186189   4.963  14.249   3.183
61452SOL    HW286190   4.830  14.179   3.200
61453SOL     OW86191  14.561   2.650  12.070
61453SOL    HW186192  14.500   2.635  12.142
61453SOL    HW286193  14.542   2.740  12.041
61454SOL     OW86194   5.732   4.016   3.170
61454SOL    HW186195   5.640   4.042   3.172
61454SOL    HW286196   5.779   4.097   3.150
61455SOL     OW86197  13.360  10.844   9.448
61455SOL    HW186198  13.356  10.928   9.494
61455SOL    HW286199  13.269  10.825   9.426
61456SOL     OW86200   5.224  10.439   8.625
61456SOL    HW186201   5.149  10.490   8.655
61456SOL    HW286202   5.214  10.354   8.668
61457SOL     OW86203   2.873  10.539  11.708
61457SOL    HW186204   2.800  10.493  11.749
61457SOL    HW286205   2.838  10.570  11.624
61458SOL     OW86206   0.767   5.786   2.687
61458SOL    HW186207   0.862   5.796   2.674
61458SOL    HW286208   0.757   5.784   2.782
61459SOL     OW86209   4.513   2.653  10.122
61459SOL    HW186210   4.539   2.569  10.083
61459SOL    HW286211   4.593   2.688  10.161
61460SOL     OW86212   8.845  12.041   9.491
61460SOL    HW186213   8.813  11.966   9.541
61460SOL    HW286214   8.766  12.087   9.463
61461SOL     OW86215   6.332   8.380  14.031
61461SOL    HW186216   6.382   8.431  13.968
61461SOL    HW286217   6.396   8.347  14.093
61462SOL     OW86218  10.167  13.822  12.623
61462SOL    HW186219  10.204  13.910  12.632
61462SOL    HW286220  10.200  13.774  12.699
61463SOL     OW86221   1.694   0.246   3.837
61463SOL    HW186222   1.636   0.316   3.866
61463SOL    HW286223   1.768   0.291   3.797
61464SOL     OW86224  10.153   1.260   4.805
61464SOL    HW186225  10.228   1.291   4.854
61464SOL    HW286226  10.112   1.339   4.770
61465SOL     OW86227   1.908   0.378  13.140
61465SOL    HW186228   1.998   0.346  13.131
61465SOL    HW286229   1.856   0.299  13.151
61466SOL     OW86230   0.031  11.838  13.998
61466SOL    HW186231   0.080  11.905  14.045
61466SOL    HW286232   0.097  11.785  13.955
61467SOL     OW86233   9.797   9.322   4.387
61467SOL    HW186234   9.821   9.289   4.300
61467SOL    HW286235   9.871   9.376   4.414
61468SOL     OW86236  10.910  12.752   3.369
61468SOL    HW186237  10.872  12.712   3.290
61468SOL    HW286238  10.834  12.775   3.422
61469SOL     OW86239  12.978   6.667   7.683
61469SOL    HW186240  12.916   6.640   7.751
61469SOL    HW286241  13.005   6.585   7.642
61470SOL     OW86242   9.734  14.028   5.521
61470SOL    HW186243   9.715  14.094   5.588
61470SOL    HW286244   9.648  14.003   5.487
61471SOL     OW86245  10.640  12.820   5.678
61471SOL    HW186246  10.566  12.878   5.658
61471SOL    HW286247  10.690  12.868   5.745
61472SOL     OW86248   8.205   2.367  12.607
61472SOL    HW186249   8.271   2.334  12.668
61472SOL    HW286250   8.249   2.368  12.522
61473SOL     OW86251   5.444   2.360   8.682
61473SOL    HW186252   5.455   2.271   8.715
61473SOL    HW286253   5.469   2.355   8.590
61474SOL     OW86254  13.731   0.321   9.604
61474SOL    HW186255  13.810   0.368   9.578
61474SOL    HW286256  13.758   0.267   9.678
61475SOL     OW86257  11.179   0.491   2.190
61475SOL    HW186258  11.163   0.451   2.104
61475SOL    HW286259  11.234   0.427   2.236
61476SOL     OW86260  11.401   0.619   1.488
61476SOL    HW186261  11.414   0.624   1.582
61476SOL    HW286262  11.328   0.680   1.471
61477SOL     OW86263  11.536   6.963   3.554
61477SOL    HW186264  11.529   7.058   3.553
61477SOL    HW286265  11.447   6.932   3.572
61478SOL     OW86266   5.984   9.290   5.507
61478SOL    HW186267   5.999   9.199   5.483
61478SOL    HW286268   6.066   9.319   5.547
61479SOL     OW86269   4.693   2.295   5.917
61479SOL    HW186270   4.744   2.305   5.997
61479SOL    HW286271   4.603   2.282   5.947
61480SOL     OW86272  14.097   9.725   0.583
61480SOL    HW186273  14.033   9.655   0.566
61480SOL    HW286274  14.176   9.679   0.612
61481SOL     OW86275  11.977   8.393   2.539
61481SOL    HW186276  11.975   8.471   2.483
61481SOL    HW286277  11.892   8.394   2.583
61482SOL     OW86278   7.699   6.110   5.332
61482SOL    HW186279   7.670   6.038   5.276
61482SOL    HW286280   7.694   6.187   5.276
61483SOL     OW86281   7.396   3.328  12.621
61483SOL    HW186282   7.411   3.263  12.690
61483SOL    HW286283   7.480   3.372  12.611
61484SOL     OW86284   7.891   1.866  13.889
61484SOL    HW186285   7.934   1.863  13.974
61484SOL    HW286286   7.799   1.883  13.910
61485SOL     OW86287   9.043   6.420   0.646
61485SOL    HW186288   8.993   6.371   0.711
61485SOL    HW286289   9.035   6.369   0.566
61486SOL     OW86290   4.030  14.598  12.605
61486SOL    HW186291   4.034  14.551  12.688
61486SOL    HW286292   4.084  14.547  12.545
61487SOL     OW86293   5.635  12.108   3.298
61487SOL    HW186294   5.637  12.033   3.357
61487SOL    HW286295   5.707  12.092   3.236
61488SOL     OW86296  14.605   7.921   0.524
61488SOL    HW186297  14.620   8.003   0.572
61488SOL    HW286298  14.510   7.908   0.529
61489SOL     OW86299   8.436  13.561   0.046
61489SOL    HW186300   8.363  13.499   0.047
61489SOL    HW286301   8.453  13.579   0.138
61490SOL     OW86302   1.097   6.274   1.750
61490SOL    HW186303   1.059   6.239   1.670
61490SOL    HW286304   1.069   6.215   1.819
61491SOL     OW86305   4.756  13.683   8.831
61491SOL    HW186306   4.722  13.698   8.742
61491SOL    HW286307   4.776  13.770   8.864
61492SOL     OW86308   9.537   9.884  14.145
61492SOL    HW186309   9.548   9.789  14.146
61492SOL    HW286310   9.621   9.918  14.113
61493SOL     OW86311   9.854   0.604  10.288
61493SOL    HW186312   9.878   0.666  10.358
61493SOL    HW286313   9.760   0.615  10.278
61494SOL     OW86314   1.806   5.172   4.933
61494SOL    HW186315   1.846   5.164   4.846
61494SOL    HW286316   1.880   5.175   4.993
61495SOL     OW86317  11.763   5.742  14.097
61495SOL    HW186318  11.829   5.787  14.044
61495SOL    HW286319  11.703   5.704  14.033
61496SOL     OW86320  12.879   8.268  14.509
61496SOL    HW186321  12.814   8.305  14.568
61496SOL    HW286322  12.942   8.224  14.567
61497SOL     OW86323   4.096   1.883   1.290
61497SOL    HW186324   4.170   1.908   1.345
61497SOL    HW286325   4.022   1.880   1.350
61498SOL     OW86326   7.157  13.044   2.915
61498SOL    HW186327   7.169  12.995   2.996
61498SOL    HW286328   7.207  12.996   2.850
61499SOL     OW86329  12.312   1.886   0.037
61499SOL    HW186330  12.316   1.889  14.814
61499SOL    HW286331  12.344   1.799   0.060
61500SOL     OW86332   8.326  12.899   1.537
61500SOL    HW186333   8.297  12.826   1.482
61500SOL    HW286334   8.417  12.878   1.558
61501SOL     OW86335   7.002   8.348   3.780
61501SOL    HW186336   7.013   8.285   3.709
61501SOL    HW286337   7.075   8.330   3.840
61502SOL     OW86338   5.764   7.003  14.145
61502SOL    HW186339   5.824   7.076  14.128
61502SOL    HW286340   5.779   6.942  14.073
61503SOL     OW86341   5.592  12.915   2.473
61503SOL    HW186342   5.655  12.866   2.419
61503SOL    HW286343   5.535  12.848   2.510
61504SOL     OW86344   8.666   8.396   3.663
61504SOL    HW186345   8.604   8.323   3.657
61504SOL    HW286346   8.637   8.458   3.596
61505SOL     OW86347   3.938  11.895   6.363
61505SOL    HW186348   3.904  11.952   6.432
61505SOL    HW286349   4.001  11.950   6.316
61506SOL     OW86350   7.335   4.021   5.204
61506SOL    HW186351   7.380   4.073   5.270
61506SOL    HW286352   7.402   3.999   5.140
61507SOL     OW86353   7.753   6.186   4.213
61507SOL    HW186354   7.765   6.098   4.175
61507SOL    HW286355   7.734   6.170   4.305
61508SOL     OW86356   9.432   6.465  11.516
61508SOL    HW186357   9.472   6.380  11.498
61508SOL    HW286358   9.362   6.446  11.578
61509SOL     OW86359   3.449   9.290   7.450
61509SOL    HW186360   3.464   9.316   7.359
61509SOL    HW286361   3.499   9.353   7.502
61510SOL     OW86362   3.535   9.979  11.029
61510SOL    HW186363   3.585   9.907  10.991
61510SOL    HW286364   3.571   9.990  11.117
61511SOL     OW86365   3.515   6.213   5.508
61511SOL    HW186366   3.507   6.130   5.459
61511SOL    HW286367   3.603   6.209   5.546
61512SOL     OW86368   1.639   3.767   0.858
61512SOL    HW186369   1.584   3.766   0.779
61512SOL    HW286370   1.593   3.709   0.919
61513SOL     OW86371   8.515  10.404  14.704
61513SOL    HW186372   8.604  10.438  14.705
61513SOL    HW286373   8.508  10.359  14.620
61514SOL     OW86374   9.365   5.882   4.993
61514SOL    HW186375   9.290   5.854   4.940
61514SOL    HW286376   9.379   5.810   5.054
61515SOL     OW86377   9.962  13.550   6.718
61515SOL    HW186378   9.959  13.562   6.813
61515SOL    HW286379   9.979  13.638   6.684
61516SOL     OW86380   3.969   1.796   0.767
61516SOL    HW186381   4.040   1.769   0.709
61516SOL    HW286382   3.965   1.891   0.757
61517SOL     OW86383  13.729   2.844   1.694
61517SOL    HW186384  13.816   2.873   1.722
61517SOL    HW286385  13.736   2.834   1.599
61518SOL     OW86386   7.518   2.740  13.227
61518SOL    HW186387   7.450   2.730  13.294
61518SOL    HW286388   7.536   2.651  13.198
61519SOL     OW86389  13.503   5.437   8.700
61519SOL    HW186390  13.496   5.514   8.645
61519SOL    HW286391  13.541   5.469   8.782
61520SOL     OW86392   8.002  13.958  13.439
61520SOL    HW186393   8.044  14.022  13.496
61520SOL    HW286394   7.922  13.933  13.485
61521SOL     OW86395   1.172   2.935  13.068
61521SOL    HW186396   1.176   2.883  12.987
61521SOL    HW286397   1.093   2.988  13.058
61522SOL     OW86398  11.541   8.474   9.588
61522SOL    HW186399  11.496   8.403   9.542
61522SOL    HW286400  11.531   8.453   9.681
61523SOL     OW86401   1.217   0.223   7.226
61523SOL    HW186402   1.253   0.273   7.153
61523SOL    HW286403   1.274   0.146   7.233
61524SOL     OW86404   0.025   7.430  10.999
61524SOL    HW186405  14.821   7.472  11.038
61524SOL    HW286406   0.027   7.463  10.909
61525SOL     OW86407   8.740   3.384   8.075
61525SOL    HW186408   8.763   3.391   8.168
61525SOL    HW286409   8.774   3.465   8.036
61526SOL     OW86410   6.183  12.024   5.963
61526SOL    HW186411   6.245  11.989   6.028
61526SOL    HW286412   6.208  11.982   5.881
61527SOL     OW86413  11.348   1.344   2.657
61527SOL    HW186414  11.294   1.323   2.581
61527SOL    HW286415  11.433   1.370   2.621
61528SOL     OW86416   5.968   7.149  14.459
61528SOL    HW186417   5.926   7.234  14.443
61528SOL    HW286418   5.911   7.105  14.522
61529SOL     OW86419  13.033   8.289   0.099
61529SOL    HW186420  12.978   8.307   0.175
61529SOL    HW286421  13.006   8.355   0.035
61530SOL     OW86422  10.619   8.478   7.024
61530SOL    HW186423  10.658   8.500   7.108
61530SOL    HW286424  10.692   8.452   6.969
61531SOL     OW86425   2.085   9.492   5.967
61531SOL    HW186426   2.172   9.453   5.967
61531SOL    HW286427   2.025   9.419   5.982
61532SOL     OW86428   0.709   4.075   6.930
61532SOL    HW186429   0.695   4.116   6.845
61532SOL    HW286430   0.656   4.126   6.991
61533SOL     OW86431  10.667  12.625   0.164
61533SOL    HW186432  10.702  12.551   0.115
61533SOL    HW286433  10.576  12.633   0.133
61534SOL     OW86434  13.118   8.076  11.432
61534SOL    HW186435  13.080   8.037  11.353
61534SOL    HW286436  13.150   8.162  11.404
61535SOL     OW86437   2.809   8.124  10.048
61535SOL    HW186438   2.752   8.196  10.019
61535SOL    HW286439   2.773   8.046  10.007
61536SOL     OW86440   5.410  12.356   6.886
61536SOL    HW186441   5.376  12.445   6.873
61536SOL    HW286442   5.420  12.348   6.980
61537SOL     OW86443   7.023   6.720  11.567
61537SOL    HW186444   7.017   6.711  11.662
61537SOL    HW286445   7.044   6.633  11.535
61538SOL     OW86446  12.266   3.778  14.554
61538SOL    HW186447  12.278   3.719  14.480
61538SOL    HW286448  12.284   3.865  14.518
61539SOL     OW86449   3.873   1.662   0.439
61539SOL    HW186450   3.784   1.625   0.435
61539SOL    HW286451   3.929   1.592   0.406
61540SOL     OW86452   9.956   2.183   5.438
61540SOL    HW186453   9.897   2.239   5.488
61540SOL    HW286454   9.910   2.099   5.431
61541SOL     OW86455   1.958   1.034   1.120
61541SOL    HW186456   1.865   1.057   1.127
61541SOL    HW286457   1.958   0.949   1.076
61542SOL     OW86458   2.002   5.987   7.208
61542SOL    HW186459   1.960   5.931   7.273
61542SOL    HW286460   2.090   5.949   7.197
61543SOL     OW86461   2.849  11.672  12.078
61543SOL    HW186462   2.872  11.595  12.025
61543SOL    HW286463   2.883  11.746  12.029
61544SOL     OW86464  13.367  12.097   0.425
61544SOL    HW186465  13.456  12.128   0.408
61544SOL    HW286466  13.357  12.104   0.520
61545SOL     OW86467   7.727   3.480   2.058
61545SOL    HW186468   7.763   3.567   2.070
61545SOL    HW286469   7.770   3.426   2.125
61546SOL     OW86470   0.933   1.714   4.438
61546SOL    HW186471   0.844   1.702   4.405
61546SOL    HW286472   0.988   1.717   4.360
61547SOL     OW86473  10.828  14.707  12.809
61547SOL    HW186474  10.820  14.647  12.734
61547SOL    HW286475  10.922  14.718  12.821
61548SOL     OW86476  14.104   6.725   3.321
61548SOL    HW186477  14.063   6.664   3.261
61548SOL    HW286478  14.061   6.709   3.405
61549SOL     OW86479   1.824  14.625  12.461
61549SOL    HW186480   1.910  14.667  12.457
61549SOL    HW286481   1.781  14.648  12.379
61550SOL     OW86482   1.569   3.395   8.083
61550SOL    HW186483   1.509   3.326   8.055
61550SOL    HW286484   1.523   3.476   8.063
61551SOL     OW86485   9.027   2.858   4.365
61551SOL    HW186486   8.939   2.881   4.334
61551SOL    HW286487   9.069   2.942   4.381
61552SOL     OW86488   7.559   5.254  14.721
61552SOL    HW186489   7.583   5.299  14.640
61552SOL    HW286490   7.506   5.180  14.692
61553SOL     OW86491  11.263   7.257  10.917
61553SOL    HW186492  11.261   7.340  10.965
61553SOL    HW286493  11.244   7.191  10.983
61554SOL     OW86494   0.317  11.836  10.744
61554SOL    HW186495   0.371  11.915  10.743
61554SOL    HW286496   0.274  11.836  10.658
61555SOL     OW86497  12.210   5.067   7.154
61555SOL    HW186498  12.133   5.104   7.111
61555SOL    HW286499  12.275   5.137   7.151
61556SOL     OW86500   1.805   1.194   4.554
61556SOL    HW186501   1.797   1.115   4.608
61556SOL    HW286502   1.894   1.226   4.573
61557SOL     OW86503  10.060  11.362   8.165
61557SOL    HW186504  10.051  11.279   8.119
61557SOL    HW286505  10.154  11.370   8.181
61558SOL     OW86506   7.666   5.391   8.997
61558SOL    HW186507   7.639   5.346   9.077
61558SOL    HW286508   7.673   5.321   8.931
61559SOL     OW86509   6.239  13.248  14.208
61559SOL    HW186510   6.219  13.230  14.300
61559SOL    HW286511   6.316  13.304  14.209
61560SOL     OW86512  10.153   3.864  12.446
61560SOL    HW186513  10.058   3.863  12.437
61560SOL    HW286514  10.170   3.807  12.521
61561SOL     OW86515   4.199  10.345  10.186
61561SOL    HW186516   4.255  10.268  10.195
61561SOL    HW286517   4.156  10.333  10.101
61562SOL     OW86518  12.405   7.932   5.374
61562SOL    HW186519  12.357   7.855   5.408
61562SOL    HW286520  12.495   7.902   5.366
61563SOL     OW86521   1.366  10.589  12.031
61563SOL    HW186522   1.341  10.563  11.942
61563SOL    HW286523   1.458  10.614  12.023
61564SOL     OW86524   3.025   5.190  10.117
61564SOL    HW186525   2.963   5.153  10.054
61564SOL    HW286526   2.970   5.223  10.188
61565SOL     OW86527   2.005   9.753   1.821
61565SOL    HW186528   2.065   9.766   1.894
61565SOL    HW286529   2.021   9.828   1.764
61566SOL     OW86530  10.100   8.649   3.146
61566SOL    HW186531  10.152   8.728   3.140
61566SOL    HW286532  10.010   8.679   3.135
61567SOL     OW86533  10.065   4.684  14.187
61567SOL    HW186534  10.054   4.758  14.247
61567SOL    HW286535  10.039   4.607  14.239
61568SOL     OW86536   1.881   7.069  12.861
61568SOL    HW186537   1.963   7.119  12.862
61568SOL    HW286538   1.886   7.017  12.781
61569SOL     OW86539   2.722   9.984  12.625
61569SOL    HW186540   2.745   9.897  12.592
61569SOL    HW286541   2.627   9.983  12.630
61570SOL     OW86542   2.416   6.038   3.814
61570SOL    HW186543   2.457   5.991   3.888
61570SOL    HW286544   2.432   5.982   3.738
61571SOL     OW86545   8.128  12.267   7.366
61571SOL    HW186546   8.143  12.347   7.416
61571SOL    HW286547   8.032  12.260   7.359
61572SOL     OW86548   2.395  12.010   8.129
61572SOL    HW186549   2.347  12.004   8.212
61572SOL    HW286550   2.350  11.948   8.072
61573SOL     OW86551   5.926  13.550  10.256
61573SOL    HW186552   5.926  13.547  10.160
61573SOL    HW286553   5.985  13.622  10.278
61574SOL     OW86554  12.266   1.175   7.445
61574SOL    HW186555  12.244   1.160   7.537
61574SOL    HW286556  12.345   1.121   7.431
61575SOL     OW86557   2.425  12.846  12.435
61575SOL    HW186558   2.417  12.816  12.525
61575SOL    HW286559   2.356  12.799  12.388
61576SOL     OW86560   2.482   9.223  12.700
61576SOL    HW186561   2.494   9.203  12.608
61576SOL    HW286562   2.550   9.287  12.720
61577SOL     OW86563   6.065  12.436  13.335
61577SOL    HW186564   6.023  12.516  13.365
61577SOL    HW286565   6.058  12.375  13.409
61578SOL     OW86566   3.685  11.342   0.330
61578SOL    HW186567   3.619  11.349   0.262
61578SOL    HW286568   3.636  11.338   0.412
61579SOL     OW86569   4.883   1.489  11.999
61579SOL    HW186570   4.937   1.447  11.932
61579SOL    HW286571   4.872   1.422  12.066
61580SOL     OW86572   0.642  13.005   1.379
61580SOL    HW186573   0.687  13.043   1.303
61580SOL    HW286574   0.575  12.949   1.340
61581SOL     OW86575  13.515   2.866   5.487
61581SOL    HW186576  13.519   2.957   5.516
61581SOL    HW286577  13.605   2.843   5.467
61582SOL     OW86578  14.643   0.318   3.744
61582SOL    HW186579  14.690   0.277   3.817
61582SOL    HW286580  14.589   0.248   3.708
61583SOL     OW86581  13.223  11.038  13.072
61583SOL    HW186582  13.202  10.991  12.992
61583SOL    HW286583  13.229  10.970  13.139
61584SOL     OW86584  11.396  10.880   1.306
61584SOL    HW186585  11.310  10.862   1.344
61584SOL    HW286586  11.379  10.941   1.234
61585SOL     OW86587  12.613   3.515   0.889
61585SOL    HW186588  12.687   3.464   0.856
61585SOL    HW286589  12.629   3.524   0.982
61586SOL     OW86590   1.911  13.926   3.759
61586SOL    HW186591   1.874  13.838   3.773
61586SOL    HW286592   1.912  13.936   3.664
61587SOL     OW86593  13.844   6.241  11.233
61587SOL    HW186594  13.827   6.329  11.200
61587SOL    HW286595  13.757   6.206  11.255
61588SOL     OW86596   8.485   0.254  11.921
61588SOL    HW186597   8.407   0.230  11.971
61588SOL    HW286598   8.468   0.343  11.890
61589SOL     OW86599   8.231   9.449  14.366
61589SOL    HW186600   8.263   9.483  14.449
61589SOL    HW286601   8.278   9.366  14.354
61590SOL     OW86602  13.351   2.829   2.111
61590SOL    HW186603  13.423   2.813   2.172
61590SOL    HW286604  13.290   2.885   2.160
61591SOL     OW86605   7.567   0.224   2.133
61591SOL    HW186606   7.514   0.167   2.188
61591SOL    HW286607   7.514   0.237   2.054
61592SOL     OW86608   9.084  13.299   5.011
61592SOL    HW186609   9.174  13.268   5.017
61592SOL    HW286610   9.091  13.389   4.979
61593SOL     OW86611   6.503  11.654  12.708
61593SOL    HW186612   6.592  11.625  12.724
61593SOL    HW286613   6.460  11.579  12.666
61594SOL     OW86614  14.480  14.571   9.014
61594SOL    HW186615  14.546  14.604   9.076
61594SOL    HW286616  14.481  14.634   8.942
61595SOL     OW86617   5.520   2.658   9.088
61595SOL    HW186618   5.544   2.707   9.166
61595SOL    HW286619   5.512   2.725   9.019
61596SOL     OW86620   0.527   5.802   1.332
61596SOL    HW186621   0.591   5.869   1.355
61596SOL    HW286622   0.442   5.843   1.353
61597SOL     OW86623   5.111  10.286   6.142
61597SOL    HW186624   5.153  10.257   6.223
61597SOL    HW286625   5.183  10.301   6.082
61598SOL     OW86626   6.617   3.530   1.096
61598SOL    HW186627   6.664   3.547   1.015
61598SOL    HW286628   6.525   3.525   1.070
61599SOL     OW86629   3.520  14.696  10.967
61599SOL    HW186630   3.529  14.790  10.983
61599SOL    HW286631   3.426  14.680  10.974
61600SOL     OW86632  14.133   3.182   2.357
61600SOL    HW186633  14.197   3.185   2.428
61600SOL    HW286634  14.137   3.092   2.324
61601SOL     OW86635   2.004   6.337  14.506
61601SOL    HW186636   2.082   6.322  14.453
61601SOL    HW286637   1.934   6.290  14.460
61602SOL     OW86638  10.263  12.750  11.059
61602SOL    HW186639  10.328  12.815  11.033
61602SOL    HW286640  10.276  12.677  10.998
61603SOL     OW86641  14.218   8.472  10.009
61603SOL    HW186642  14.270   8.539  10.052
61603SOL    HW286643  14.247   8.390  10.049
61604SOL     OW86644   9.789   4.941   2.731
61604SOL    HW186645   9.774   4.847   2.735
61604SOL    HW286646   9.707   4.980   2.761
61605SOL     OW86647  12.980   9.836  10.626
61605SOL    HW186648  13.023   9.864  10.545
61605SOL    HW286649  12.905   9.784  10.597
61606SOL     OW86650  11.349   0.165   3.852
61606SOL    HW186651  11.353   0.197   3.762
61606SOL    HW286652  11.255   0.160   3.871
61607SOL     OW86653   5.952  12.563   0.561
61607SOL    HW186654   5.991  12.540   0.476
61607SOL    HW286655   5.884  12.497   0.574
61608SOL     OW86656   7.291   5.166   4.773
61608SOL    HW186657   7.315   5.080   4.805
61608SOL    HW286658   7.205   5.153   4.732
61609SOL     OW86659   3.923  11.014   5.418
61609SOL    HW186660   3.831  10.987   5.422
61609SOL    HW286661   3.934  11.047   5.328
61610SOL     OW86662   7.341  12.984  10.749
61610SOL    HW186663   7.384  12.922  10.691
61610SOL    HW286664   7.407  13.053  10.764
61611SOL     OW86665   6.388  14.871   8.143
61611SOL    HW186666   6.460  14.813   8.169
61611SOL    HW286667   6.384   0.063   8.214
61612SOL     OW86668  12.972   5.360  12.750
61612SOL    HW186669  12.978   5.284  12.693
61612SOL    HW286670  12.998   5.328  12.837
61613SOL     OW86671   6.592  11.342   8.999
61613SOL    HW186672   6.641  11.410   8.954
61613SOL    HW286673   6.638  11.331   9.082
61614SOL     OW86674  10.165   9.070  12.837
61614SOL    HW186675  10.249   9.104  12.807
61614SOL    HW286676  10.188   9.008  12.907
61615SOL     OW86677   2.549   7.497   2.203
61615SOL    HW186678   2.552   7.571   2.264
61615SOL    HW286679   2.488   7.525   2.135
61616SOL     OW86680   3.375  12.126   9.336
61616SOL    HW186681   3.394  12.192   9.402
61616SOL    HW286682   3.451  12.127   9.278
61617SOL     OW86683   7.945   4.585   6.462
61617SOL    HW186684   7.862   4.631   6.474
61617SOL    HW286685   7.920   4.496   6.438
61618SOL     OW86686   6.271  13.499  10.340
61618SOL    HW186687   6.274  13.417  10.388
61618SOL    HW286688   6.262  13.473  10.248
61619SOL     OW86689   2.613  10.789  10.494
61619SOL    HW186690   2.561  10.781  10.573
61619SOL    HW286691   2.580  10.720  10.436
61620SOL     OW86692   3.421   0.608   8.287
61620SOL    HW186693   3.366   0.531   8.270
61620SOL    HW286694   3.483   0.579   8.355
61621SOL     OW86695   4.488   1.420  14.226
61621SOL    HW186696   4.446   1.373  14.298
61621SOL    HW286697   4.557   1.360  14.196
61622SOL     OW86698   3.945  10.262   0.399
61622SOL    HW186699   3.960  10.202   0.326
61622SOL    HW286700   3.959  10.208   0.477
61623SOL     OW86701   2.420   8.110   7.667
61623SOL    HW186702   2.497   8.054   7.661
61623SOL    HW286703   2.451   8.187   7.715
61624SOL     OW86704   4.788   7.550   0.334
61624SOL    HW186705   4.867   7.520   0.290
61624SOL    HW286706   4.795   7.516   0.423
61625SOL     OW86707   0.358   2.099   8.492
61625SOL    HW186708   0.310   2.090   8.574
61625SOL    HW286709   0.301   2.060   8.426
61626SOL     OW86710  12.133   0.299   8.364
61626SOL    HW186711  12.130   0.394   8.363
61626SOL    HW286712  12.226   0.278   8.352
61627SOL     OW86713   4.801   5.712   2.990
61627SOL    HW186714   4.738   5.778   2.962
61627SOL    HW286715   4.815   5.730   3.083
61628SOL     OW86716  14.432   6.228   8.516
61628SOL    HW186717  14.412   6.252   8.426
61628SOL    HW286718  14.459   6.310   8.557
61629SOL     OW86719  14.434   8.577   3.874
61629SOL    HW186720  14.435   8.614   3.786
61629SOL    HW286721  14.445   8.483   3.862
61630SOL     OW86722   9.780   4.630   7.169
61630SOL    HW186723   9.735   4.612   7.251
61630SOL    HW286724   9.802   4.544   7.134
61631SOL     OW86725  13.432   3.878   0.771
61631SOL    HW186726  13.346   3.854   0.736
61631SOL    HW286727  13.446   3.817   0.843
61632SOL     OW86728  12.054   0.720   8.454
61632SOL    HW186729  11.993   0.765   8.512
61632SOL    HW286730  12.015   0.634   8.439
61633SOL     OW86731   2.537   4.824   8.017
61633SOL    HW186732   2.520   4.740   7.975
61633SOL    HW286733   2.525   4.888   7.946
61634SOL     OW86734   5.224   0.666   5.266
61634SOL    HW186735   5.288   0.730   5.296
61634SOL    HW286736   5.218   0.602   5.338
61635SOL     OW86737   8.964   9.125  11.926
61635SOL    HW186738   8.984   9.034  11.905
61635SOL    HW286739   9.044   9.157  11.969
61636SOL     OW86740  11.897   4.720   0.517
61636SOL    HW186741  11.830   4.777   0.555
61636SOL    HW286742  11.922   4.662   0.589
61637SOL     OW86743   6.307  13.429   2.844
61637SOL    HW186744   6.395  13.391   2.842
61637SOL    HW286745   6.262  13.390   2.769
61638SOL     OW86746   4.054   1.620   0.966
61638SOL    HW186747   3.995   1.685   0.928
61638SOL    HW286748   4.024   1.536   0.930
61639SOL     OW86749   0.318   4.155  11.262
61639SOL    HW186750   0.262   4.148  11.339
61639SOL    HW286751   0.257   4.159  11.188
61640SOL     OW86752   9.983   4.317   4.323
61640SOL    HW186753   9.938   4.396   4.292
61640SOL    HW286754  10.068   4.320   4.280
61641SOL     OW86755  10.150  14.403   5.547
61641SOL    HW186756  10.166  14.316   5.584
61641SOL    HW286757  10.055  14.412   5.548
61642SOL     OW86758   9.238  14.027  11.111
61642SOL    HW186759   9.257  14.121  11.115
61642SOL    HW286760   9.233  14.001  11.203
61643SOL     OW86761   0.825   6.769   4.191
61643SOL    HW186762   0.820   6.852   4.239
61643SOL    HW286763   0.794   6.703   4.253
61644SOL     OW86764   5.809   5.479  12.467
61644SOL    HW186765   5.883   5.419  12.462
61644SOL    HW286766   5.782   5.491  12.376
61645SOL     OW86767   8.694   6.013   6.160
61645SOL    HW186768   8.601   6.017   6.137
61645SOL    HW286769   8.730   6.096   6.131
61646SOL     OW86770   4.495   7.684  11.868
61646SOL    HW186771   4.532   7.596  11.865
61646SOL    HW286772   4.505   7.711  11.959
61647SOL     OW86773  12.726  13.651   2.744
61647SOL    HW186774  12.721  13.623   2.836
61647SOL    HW286775  12.636  13.648   2.713
61648SOL     OW86776   1.196   2.616   6.196
61648SOL    HW186777   1.153   2.700   6.178
61648SOL    HW286778   1.227   2.586   6.110
61649SOL     OW86779  12.546   2.609   5.977
61649SOL    HW186780  12.453   2.598   5.998
61649SOL    HW286781  12.562   2.549   5.904
61650SOL     OW86782   3.137   4.752  11.530
61650SOL    HW186783   3.217   4.709  11.499
61650SOL    HW286784   3.168   4.813  11.597
61651SOL     OW86785   1.168   5.239   3.251
61651SOL    HW186786   1.096   5.219   3.311
61651SOL    HW286787   1.165   5.334   3.241
61652SOL     OW86788   0.433   5.253  13.907
61652SOL    HW186789   0.374   5.204  13.965
61652SOL    HW286790   0.479   5.313  13.966
61653SOL     OW86791   4.396   1.149   0.371
61653SOL    HW186792   4.327   1.181   0.312
61653SOL    HW286793   4.452   1.096   0.315
61654SOL     OW86794  12.738   1.411   3.245
61654SOL    HW186795  12.687   1.366   3.177
61654SOL    HW286796  12.675   1.425   3.316
61655SOL     OW86797   0.768   3.779  13.621
61655SOL    HW186798   0.708   3.757  13.692
61655SOL    HW286799   0.762   3.875  13.614
61656SOL     OW86800   9.317  12.729  10.789
61656SOL    HW186801   9.283  12.664  10.728
61656SOL    HW286802   9.324  12.809  10.737
61657SOL     OW86803   3.367  10.812  13.560
61657SOL    HW186804   3.447  10.853  13.526
61657SOL    HW286805   3.318  10.786  13.483
61658SOL     OW86806   1.813  14.429   1.407
61658SOL    HW186807   1.725  14.391   1.404
61658SOL    HW286808   1.862  14.381   1.341
61659SOL     OW86809   7.378   5.434  14.621
61659SOL    HW186810   7.286   5.420  14.598
61659SOL    HW286811   7.397   5.368  14.688
61660SOL     OW86812  12.999   4.258  11.078
61660SOL    HW186813  13.083   4.217  11.055
61660SOL    HW286814  12.934   4.211  11.026
61661SOL     OW86815  13.423   7.987  12.533
61661SOL    HW186816  13.402   8.081  12.535
61661SOL    HW286817  13.457   7.972  12.445
61662SOL     OW86818   3.513   8.178  12.306
61662SOL    HW186819   3.545   8.231  12.233
61662SOL    HW286820   3.487   8.241  12.373
61663SOL     OW86821  12.894   2.529   8.347
61663SOL    HW186822  12.951   2.561   8.417
61663SOL    HW286823  12.846   2.457   8.388
61664SOL     OW86824   4.831   6.636  14.424
61664SOL    HW186825   4.893   6.653  14.353
61664SOL    HW286826   4.745   6.649  14.384
61665SOL     OW86827   9.400  13.545   3.595
61665SOL    HW186828   9.322  13.503   3.559
61665SOL    HW286829   9.454  13.567   3.519
61666SOL     OW86830   8.103   1.018   3.113
61666SOL    HW186831   8.082   0.932   3.077
61666SOL    HW286832   8.198   1.021   3.113
61667SOL     OW86833   4.905   0.519   0.281
61667SOL    HW186834   4.960   0.597   0.271
61667SOL    HW286835   4.953   0.463   0.342
61668SOL     OW86836  14.072  10.077   9.751
61668SOL    HW186837  14.118  10.049   9.671
61668SOL    HW286838  13.986  10.034   9.745
61669SOL     OW86839  14.827   7.462   6.314
61669SOL    HW186840  14.812   7.556   6.325
61669SOL    HW286841  14.868   7.454   6.228
61670SOL     OW86842   0.675   2.629  10.818
61670SOL    HW186843   0.598   2.587  10.779
61670SOL    HW286844   0.640   2.677  10.893
61671SOL     OW86845   3.755   3.836   6.720
61671SOL    HW186846   3.768   3.750   6.760
61671SOL    HW286847   3.673   3.869   6.757
61672SOL     OW86848   0.145  12.284   6.826
61672SOL    HW186849   0.083  12.326   6.766
61672SOL    HW286850   0.180  12.211   6.776
61673SOL     OW86851   3.395  12.043  14.283
61673SOL    HW186852   3.428  11.986  14.353
61673SOL    HW286853   3.330  11.990  14.238
61674SOL     OW86854   2.574   5.818   9.128
61674SOL    HW186855   2.647   5.834   9.187
61674SOL    HW286856   2.584   5.884   9.059
61675SOL     OW86857   8.427   9.101   3.476
61675SOL    HW186858   8.337   9.110   3.447
61675SOL    HW286859   8.480   9.119   3.398
61676SOL     OW86860  14.737   1.887  12.290
61676SOL    HW186861  14.711   1.801  12.257
61676SOL    HW286862  14.740   1.943  12.213
61677SOL     OW86863  14.853   4.609  13.583
61677SOL    HW186864   0.003   4.517  13.567
61677SOL    HW286865   0.062   4.656  13.570
61678SOL     OW86866  13.023   6.801   5.901
61678SOL    HW186867  12.955   6.776   5.838
61678SOL    HW286868  12.989   6.771   5.985
61679SOL     OW86869   5.028   9.220   1.557
61679SOL    HW186870   5.055   9.245   1.468
61679SOL    HW286871   4.934   9.239   1.560
61680SOL     OW86872  12.072   4.068   2.572
61680SOL    HW186873  12.158   4.083   2.612
61680SOL    HW286874  12.062   3.973   2.571
61681SOL     OW86875  13.347   6.982  12.611
61681SOL    HW186876  13.313   6.955  12.526
61681SOL    HW286877  13.385   6.903  12.648
61682SOL     OW86878  10.093   4.892   1.585
61682SOL    HW186879  10.123   4.963   1.528
61682SOL    HW286880  10.090   4.815   1.528
61683SOL     OW86881   9.974  10.752  12.909
61683SOL    HW186882   9.995  10.668  12.867
61683SOL    HW286883   9.973  10.732  13.002
61684SOL     OW86884   3.576   7.199   3.699
61684SOL    HW186885   3.518   7.130   3.669
61684SOL    HW286886   3.518   7.275   3.710
61685SOL     OW86887  12.113   0.447   3.849
61685SOL    HW186888  12.091   0.373   3.792
61685SOL    HW286889  12.132   0.519   3.789
61686SOL     OW86890   9.454   0.037   3.238
61686SOL    HW186891   9.514   0.064   3.308
61686SOL    HW286892   9.473   0.097   3.166
61687SOL     OW86893   2.196  11.972   4.588
61687SOL    HW186894   2.219  11.883   4.564
61687SOL    HW286895   2.170  11.967   4.680
61688SOL     OW86896  12.989  12.551   7.798
61688SOL    HW186897  12.905  12.515   7.827
61688SOL    HW286898  12.992  12.533   7.704
61689SOL     OW86899   1.423   1.323  13.242
61689SOL    HW186900   1.421   1.390  13.311
61689SOL    HW286901   1.514   1.297  13.236
61690SOL     OW86902   8.686   0.366   9.181
61690SOL    HW186903   8.768   0.378   9.230
61690SOL    HW286904   8.637   0.301   9.231
61691SOL     OW86905  13.234   4.562   0.277
61691SOL    HW186906  13.202   4.478   0.311
61691SOL    HW286907  13.158   4.620   0.284
61692SOL     OW86908   7.994   3.954  10.926
61692SOL    HW186909   8.025   3.902  10.852
61692SOL    HW286910   7.915   3.909  10.956
61693SOL     OW86911   5.378  13.159   1.369
61693SOL    HW186912   5.407  13.136   1.458
61693SOL    HW286913   5.283  13.169   1.377
61694SOL     OW86914   7.843   5.687  11.196
61694SOL    HW186915   7.935   5.682  11.169
61694SOL    HW286916   7.844   5.673  11.290
61695SOL     OW86917   0.114   1.877   5.987
61695SOL    HW186918   0.026   1.866   6.022
61695SOL    HW286919   0.117   1.819   5.911
61696SOL     OW86920   9.788   5.320   3.021
61696SOL    HW186921   9.784   5.338   3.115
61696SOL    HW286922   9.874   5.280   3.008
61697SOL     OW86923   6.883   4.797  13.174
61697SOL    HW186924   6.932   4.739  13.232
61697SOL    HW286925   6.879   4.749  13.091
61698SOL     OW86926   5.691  11.969  10.127
61698SOL    HW186927   5.638  11.922  10.063
61698SOL    HW286928   5.628  12.010  10.186
61699SOL     OW86929  14.427  10.701   7.302
61699SOL    HW186930  14.498  10.755   7.268
61699SOL    HW286931  14.470  10.639   7.361
61700SOL     OW86932   6.152   0.325   8.278
61700SOL    HW186933   6.116   0.412   8.292
61700SOL    HW286934   6.118   0.298   8.193
61701SOL     OW86935  13.524  13.143  11.388
61701SOL    HW186936  13.479  13.221  11.422
61701SOL    HW286937  13.455  13.077  11.383
61702SOL     OW86938  11.208   5.386   0.288
61702SOL    HW186939  11.152   5.315   0.318
61702SOL    HW286940  11.181   5.462   0.341
61703SOL     OW86941   3.746   7.967   5.611
61703SOL    HW186942   3.739   8.026   5.686
61703SOL    HW286943   3.780   7.885   5.646
61704SOL     OW86944   6.171   6.164   6.267
61704SOL    HW186945   6.239   6.178   6.201
61704SOL    HW286946   6.089   6.186   6.222
61705SOL     OW86947   0.640   5.447   1.181
61705SOL    HW186948   0.639   5.522   1.122
61705SOL    HW286949   0.732   5.432   1.200
61706SOL     OW86950  12.152   1.990   5.117
61706SOL    HW186951  12.103   2.014   5.195
61706SOL    HW286952  12.161   1.895   5.122
61707SOL     OW86953   6.493   6.048  13.173
61707SOL    HW186954   6.419   5.995  13.146
61707SOL    HW286955   6.567   6.014  13.122
61708SOL     OW86956   4.349  10.385  13.746
61708SOL    HW186957   4.288  10.336  13.690
61708SOL    HW286958   4.322  10.477  13.736
61709SOL     OW86959   2.094   5.123  10.833
61709SOL    HW186960   2.175   5.131  10.782
61709SOL    HW286961   2.047   5.050  10.793
61710SOL     OW86962  14.792   2.495   4.361
61710SOL    HW186963   0.001   2.524   4.320
61710SOL    HW286964  14.816   2.416   4.409
61711SOL     OW86965  12.251   9.843  14.609
61711SOL    HW186966  12.225   9.812  14.696
61711SOL    HW286967  12.305   9.772  14.573
61712SOL     OW86968   4.429  11.749   3.687
61712SOL    HW186969   4.455  11.837   3.712
61712SOL    HW286970   4.481  11.692   3.744
61713SOL     OW86971   9.294  12.583   8.066
61713SOL    HW186972   9.278  12.650   8.132
61713SOL    HW286973   9.371  12.536   8.099
61714SOL     OW86974   8.935   9.236   9.805
61714SOL    HW186975   8.908   9.169   9.867
61714SOL    HW286976   8.952   9.189   9.724
61715SOL     OW86977   8.716  12.317  10.322
61715SOL    HW186978   8.787  12.253  10.329
61715SOL    HW286979   8.738  12.383  10.387
61716SOL     OW86980  14.107  11.819  11.083
61716SOL    HW186981  14.062  11.894  11.043
61716SOL    HW286982  14.174  11.859  11.139
61717SOL     OW86983  12.053  13.555   6.837
61717SOL    HW186984  11.996  13.534   6.764
61717SOL    HW286985  12.140  13.524   6.810
61718SOL     OW86986  11.769  11.472   0.499
61718SOL    HW186987  11.761  11.415   0.423
61718SOL    HW286988  11.689  11.458   0.548
61719SOL     OW86989   6.389   0.718   5.991
61719SOL    HW186990   6.353   0.794   5.945
61719SOL    HW286991   6.313   0.676   6.031
61720SOL     OW86992  14.773   3.599   4.897
61720SOL    HW186993  14.705   3.663   4.876
61720SOL    HW286994  14.782   3.546   4.818
61721SOL     OW86995   4.870   2.607  12.461
61721SOL    HW186996   4.902   2.564  12.382
61721SOL    HW286997   4.943   2.603  12.523
61722SOL     OW86998  12.252   0.055  13.496
61722SOL    HW186999  12.171   0.081  13.540
61722SOL    HW287000  12.230  14.847  13.450
61723SOL     OW87001   2.968   6.512   2.415
61723SOL    HW187002   2.945   6.422   2.389
61723SOL    HW287003   2.995   6.553   2.333
61724SOL     OW87004   3.310   9.563  12.600
61724SOL    HW187005   3.229   9.612  12.614
61724SOL    HW287006   3.379   9.624  12.627
61725SOL     OW87007  13.938  11.175  14.443
61725SOL    HW187008  13.883  11.233  14.494
61725SOL    HW287009  13.885  11.097  14.429
61726SOL     OW87010   4.733   3.935   1.173
61726SOL    HW187011   4.723   4.020   1.131
61726SOL    HW287012   4.711   3.872   1.103
61727SOL     OW87013   9.133   3.269  11.712
61727SOL    HW187014   9.189   3.199  11.679
61727SOL    HW287015   9.189   3.346  11.714
61728SOL     OW87016   7.759   7.226  11.669
61728SOL    HW187017   7.667   7.201  11.663
61728SOL    HW287018   7.763   7.287  11.742
61729SOL     OW87019  10.874   7.169   4.075
61729SOL    HW187020  10.969   7.159   4.081
61729SOL    HW287021  10.850   7.122   3.995
61730SOL     OW87022  13.871   5.119   0.264
61730SOL    HW187023  13.807   5.056   0.296
61730SOL    HW287024  13.905   5.081   0.183
61731SOL     OW87025   2.345   4.230   7.305
61731SOL    HW187026   2.420   4.176   7.331
61731SOL    HW287027   2.360   4.314   7.348
61732SOL     OW87028  12.305   9.341  12.162
61732SOL    HW187029  12.352   9.349  12.245
61732SOL    HW287030  12.242   9.413  12.164
61733SOL     OW87031   7.011  10.526   1.769
61733SOL    HW187032   6.983  10.501   1.681
61733SOL    HW287033   7.015  10.444   1.817
61734SOL     OW87034   5.857   1.252   4.384
61734SOL    HW187035   5.949   1.273   4.397
61734SOL    HW287036   5.810   1.320   4.431
61735SOL     OW87037   9.904  10.743  12.299
61735SOL    HW187038   9.969  10.810  12.318
61735SOL    HW287039   9.886  10.752  12.206
61736SOL     OW87040   8.315   1.841  11.044
61736SOL    HW187041   8.344   1.769  10.988
61736SOL    HW287042   8.237   1.807  11.089
61737SOL     OW87043   5.991   7.412   7.784
61737SOL    HW187044   5.980   7.340   7.846
61737SOL    HW287045   5.912   7.464   7.793
61738SOL     OW87046   7.490   0.550   1.890
61738SOL    HW187047   7.477   0.456   1.902
61738SOL    HW287048   7.560   0.556   1.825
61739SOL     OW87049   2.252  12.103   0.315
61739SOL    HW187050   2.158  12.120   0.308
61739SOL    HW287051   2.272  12.115   0.407
61740SOL     OW87052   6.296   5.608   5.724
61740SOL    HW187053   6.359   5.603   5.795
61740SOL    HW287054   6.278   5.702   5.714
61741SOL     OW87055  14.480  12.661  11.734
61741SOL    HW187056  14.542  12.631  11.668
61741SOL    HW287057  14.434  12.581  11.762
61742SOL     OW87058  10.474   5.615   2.840
61742SOL    HW187059  10.426   5.536   2.865
61742SOL    HW287060  10.564   5.599   2.867
61743SOL     OW87061  11.184   5.158  14.176
61743SOL    HW187062  11.190   5.105  14.255
61743SOL    HW287063  11.233   5.108  14.110
61744SOL     OW87064   8.679   6.759   9.063
61744SOL    HW187065   8.746   6.703   9.101
61744SOL    HW287066   8.689   6.843   9.108
61745SOL     OW87067   4.459   7.106  12.677
61745SOL    HW187068   4.432   7.086  12.588
61745SOL    HW287069   4.554   7.113  12.673
61746SOL     OW87070   3.914   4.343   1.568
61746SOL    HW187071   3.973   4.268   1.578
61746SOL    HW287072   3.950   4.391   1.493
61747SOL     OW87073   2.553   9.677   1.891
61747SOL    HW187074   2.539   9.661   1.984
61747SOL    HW287075   2.546   9.591   1.849
61748SOL     OW87076  11.466   5.890  13.853
61748SOL    HW187077  11.390   5.947  13.843
61748SOL    HW287078  11.524   5.937  13.913
61749SOL     OW87079   0.795   2.211  11.042
61749SOL    HW187080   0.849   2.207  11.121
61749SOL    HW287081   0.813   2.297  11.005
61750SOL     OW87082  13.605  14.690   7.575
61750SOL    HW187083  13.518  14.719   7.546
61750SOL    HW287084  13.656  14.771   7.582
61751SOL     OW87085   9.052   2.630   3.216
61751SOL    HW187086   9.067   2.656   3.125
61751SOL    HW287087   8.982   2.688   3.246
61752SOL     OW87088   8.542   8.651  13.875
61752SOL    HW187089   8.454   8.627  13.902
61752SOL    HW287090   8.530   8.724  13.814
61753SOL     OW87091   9.384   3.137   2.090
61753SOL    HW187092   9.327   3.077   2.139
61753SOL    HW287093   9.329   3.214   2.075
61754SOL     OW87094  10.348  12.494   5.138
61754SOL    HW187095  10.287  12.421   5.149
61754SOL    HW287096  10.339  12.546   5.218
61755SOL     OW87097   5.938  10.652   8.221
61755SOL    HW187098   5.929  10.557   8.218
61755SOL    HW287099   5.905  10.678   8.307
61756SOL     OW87100   9.202   5.582   6.385
61756SOL    HW187101   9.183   5.519   6.455
61756SOL    HW287102   9.224   5.527   6.309
61757SOL     OW87103  13.859   1.093  10.670
61757SOL    HW187104  13.865   1.119  10.762
61757SOL    HW287105  13.941   1.124  10.630
61758SOL     OW87106   2.363   8.993  12.851
61758SOL    HW187107   2.436   9.048  12.820
61758SOL    HW287108   2.286   9.049  12.842
61759SOL     OW87109  10.415   8.273   9.425
61759SOL    HW187110  10.501   8.294   9.461
61759SOL    HW287111  10.353   8.319   9.481
61760SOL     OW87112   0.044  13.666  10.153
61760SOL    HW187113   0.133  13.687  10.123
61760SOL    HW287114   0.050  13.576  10.185
61761SOL     OW87115   7.520  11.607  12.513
61761SOL    HW187116   7.607  11.613  12.474
61761SOL    HW287117   7.461  11.594  12.439
61762SOL     OW87118  14.509   7.956   1.752
61762SOL    HW187119  14.564   8.035   1.755
61762SOL    HW287120  14.444   7.969   1.821
61763SOL     OW87121   6.002  11.386   9.358
61763SOL    HW187122   6.077  11.443   9.343
61763SOL    HW287123   5.942  11.440   9.411
61764SOL     OW87124  12.397  11.602  10.706
61764SOL    HW187125  12.365  11.676  10.758
61764SOL    HW287126  12.470  11.567  10.757
61765SOL     OW87127  12.010   9.163   6.340
61765SOL    HW187128  12.049   9.189   6.423
61765SOL    HW287129  12.034   9.070   6.330
61766SOL     OW87130   7.929   9.887  13.632
61766SOL    HW187131   7.917   9.959  13.693
61766SOL    HW287132   7.843   9.875  13.592
61767SOL     OW87133   5.973   0.622   4.149
61767SOL    HW187134   5.879   0.633   4.133
61767SOL    HW287135   5.996   0.542   4.103
61768SOL     OW87136   1.826  14.567  12.025
61768SOL    HW187137   1.899  14.571  11.962
61768SOL    HW287138   1.813  14.658  12.051
61769SOL     OW87139  10.976   6.701   8.179
61769SOL    HW187140  10.915   6.773   8.170
61769SOL    HW287141  11.022   6.697   8.096
61770SOL     OW87142   9.791   2.113   2.931
61770SOL    HW187143   9.777   2.063   2.851
61770SOL    HW287144   9.845   2.187   2.903
61771SOL     OW87145   2.604  14.169   6.184
61771SOL    HW187146   2.654  14.163   6.266
61771SOL    HW287147   2.661  14.131   6.118
61772SOL     OW87148   5.905  14.571  11.829
61772SOL    HW187149   5.869  14.542  11.912
61772SOL    HW287150   5.894  14.496  11.771
61773SOL     OW87151   3.380   3.136  14.160
61773SOL    HW187152   3.339   3.222  14.158
61773SOL    HW287153   3.437   3.139  14.236
61774SOL     OW87154  14.212   0.087  11.621
61774SOL    HW187155  14.211   0.166  11.674
61774SOL    HW287156  14.298   0.086  11.580
61775SOL     OW87157   6.777   7.189   3.121
61775SOL    HW187158   6.717   7.147   3.183
61775SOL    HW287159   6.756   7.148   3.036
61776SOL     OW87160   5.252   6.048   5.793
61776SOL    HW187161   5.258   5.984   5.863
61776SOL    HW287162   5.338   6.048   5.752
61777SOL     OW87163   7.448   9.118   1.108
61777SOL    HW187164   7.435   9.202   1.063
61777SOL    HW287165   7.523   9.134   1.166
61778SOL     OW87166   4.337   7.201   4.549
61778SOL    HW187167   4.278   7.207   4.474
61778SOL    HW287168   4.282   7.169   4.621
61779SOL     OW87169  14.757  11.725  12.340
61779SOL    HW187170  14.678  11.755  12.295
61779SOL    HW287171  14.793  11.804  12.381
61780SOL     OW87172   2.760  12.731  10.733
61780SOL    HW187173   2.772  12.795  10.663
61780SOL    HW287174   2.743  12.649  10.687
61781SOL     OW87175  11.878   8.106  12.933
61781SOL    HW187176  11.870   8.194  12.896
61781SOL    HW287177  11.823   8.107  13.011
61782SOL     OW87178   8.852   3.111   0.117
61782SOL    HW187179   8.819   3.151   0.037
61782SOL    HW287180   8.882   3.024   0.091
61783SOL     OW87181   2.160   3.502   6.502
61783SOL    HW187182   2.092   3.437   6.486
61783SOL    HW287183   2.191   3.482   6.591
61784SOL     OW87184   0.005   8.918   9.718
61784SOL    HW187185  14.812   8.897   9.652
61784SOL    HW287186  14.828   8.932   9.799
61785SOL     OW87187   0.108   8.116   4.446
61785SOL    HW187188   0.020   8.131   4.480
61785SOL    HW287189   0.165   8.163   4.507
61786SOL     OW87190  12.964   6.696  13.269
61786SOL    HW187191  12.952   6.775  13.322
61786SOL    HW287192  12.968   6.625  13.333
61787SOL     OW87193   4.358   0.731   4.157
61787SOL    HW187194   4.454   0.730   4.150
61787SOL    HW287195   4.331   0.811   4.113
61788SOL     OW87196   9.243   0.093   8.950
61788SOL    HW187197   9.230   0.030   8.878
61788SOL    HW287198   9.227   0.042   9.029
61789SOL     OW87199  10.918  12.969   5.525
61789SOL    HW187200  10.889  13.047   5.572
61789SOL    HW287201  10.839  12.936   5.483
61790SOL     OW87202  14.325   0.965   0.704
61790SOL    HW187203  14.366   1.050   0.721
61790SOL    HW287204  14.238   0.972   0.744
61791SOL     OW87205   6.867   4.606  12.955
61791SOL    HW187206   6.772   4.603  12.969
61791SOL    HW287207   6.880   4.570  12.867
61792SOL     OW87208   2.670   1.919   0.597
61792SOL    HW187209   2.695   1.896   0.687
61792SOL    HW287210   2.723   1.997   0.578
61793SOL     OW87211   9.993   5.643   2.061
61793SOL    HW187212   9.971   5.572   2.001
61793SOL    HW287213  10.007   5.598   2.145
61794SOL     OW87214   0.751   3.628   9.573
61794SOL    HW187215   0.779   3.697   9.633
61794SOL    HW287216   0.832   3.583   9.549
61795SOL     OW87217  14.643   9.932  13.578
61795SOL    HW187218  14.630  10.023  13.549
61795SOL    HW287219  14.569   9.884  13.541
61796SOL     OW87220   0.297  10.668   0.012
61796SOL    HW187221   0.271  10.579  14.863
61796SOL    HW287222   0.279  10.719  14.806
61797SOL     OW87223  13.994   3.628   2.870
61797SOL    HW187224  13.923   3.691   2.872
61797SOL    HW287225  14.044   3.650   2.791
61798SOL     OW87226  13.206   0.902   6.718
61798SOL    HW187227  13.272   0.969   6.700
61798SOL    HW287228  13.122   0.949   6.715
61799SOL     OW87229   4.667   3.301  12.614
61799SOL    HW187230   4.722   3.224  12.631
61799SOL    HW287231   4.580   3.266  12.597
61800SOL     OW87232   2.594   1.257  14.861
61800SOL    HW187233   2.687   1.239  14.853
61800SOL    HW287234   2.562   1.190   0.049
61801SOL     OW87235   3.092  13.594   6.935
61801SOL    HW187236   3.139  13.511   6.928
61801SOL    HW287237   3.082  13.624   6.845
61802SOL     OW87238   6.410  13.346   7.047
61802SOL    HW187239   6.455  13.429   7.066
61802SOL    HW287240   6.473  13.295   6.996
61803SOL     OW87241  13.839   4.403  11.586
61803SOL    HW187242  13.755   4.426  11.545
61803SOL    HW287243  13.872   4.486  11.620
61804SOL     OW87244  11.726   0.479   3.421
61804SOL    HW187245  11.809   0.444   3.389
61804SOL    HW287246  11.718   0.565   3.381
61805SOL     OW87247   9.102  12.285   4.031
61805SOL    HW187248   9.137  12.337   4.104
61805SOL    HW287249   9.058  12.211   4.073
61806SOL     OW87250   2.052   4.058   7.624
61806SOL    HW187251   1.979   4.119   7.636
61806SOL    HW287252   2.062   4.052   7.529
61807SOL     OW87253   1.637  13.470   5.565
61807SOL    HW187254   1.614  13.544   5.622
61807SOL    HW287255   1.657  13.398   5.625
61808SOL     OW87256   4.353  10.935   9.592
61808SOL    HW187257   4.382  10.980   9.512
61808SOL    HW287258   4.433  10.912   9.638
61809SOL     OW87259   0.917   3.663   4.779
61809SOL    HW187260   0.921   3.654   4.684
61809SOL    HW287261   0.838   3.616   4.805
61810SOL     OW87262   9.661   6.943   2.622
61810SOL    HW187263   9.693   7.030   2.647
61810SOL    HW287264   9.605   6.959   2.546
61811SOL     OW87265  12.008  10.909   1.172
61811SOL    HW187266  11.930  10.887   1.120
61811SOL    HW287267  12.065  10.956   1.110
61812SOL     OW87268   9.874   0.202   0.524
61812SOL    HW187269   9.784   0.202   0.556
61812SOL    HW287270   9.869   0.243   0.437
61813SOL     OW87271   8.731   1.680   8.800
61813SOL    HW187272   8.703   1.590   8.782
61813SOL    HW287273   8.791   1.701   8.728
61814SOL     OW87274   2.575   8.440   0.665
61814SOL    HW187275   2.633   8.408   0.734
61814SOL    HW287276   2.544   8.361   0.621
61815SOL     OW87277   1.240   1.445  12.877
61815SOL    HW187278   1.319   1.462  12.826
61815SOL    HW287279   1.188   1.525  12.870
61816SOL     OW87280   7.888  13.570  13.740
61816SOL    HW187281   7.926  13.516  13.670
61816SOL    HW287282   7.941  13.549  13.817
61817SOL     OW87283   6.935   9.558  13.171
61817SOL    HW187284   7.007   9.595  13.119
61817SOL    HW287285   6.866   9.624  13.169
61818SOL     OW87286   5.322  13.871  10.988
61818SOL    HW187287   5.362  13.805  10.932
61818SOL    HW287288   5.303  13.825  11.069
61819SOL     OW87289   8.262   7.324   4.148
61819SOL    HW187290   8.252   7.400   4.204
61819SOL    HW287291   8.310   7.357   4.072
61820SOL     OW87292   7.566   3.347  13.790
61820SOL    HW187293   7.618   3.268  13.810
61820SOL    HW287294   7.619   3.419  13.822
61821SOL     OW87295   8.020   0.812  13.455
61821SOL    HW187296   7.931   0.847  13.452
61821SOL    HW287297   8.021   0.757  13.533
61822SOL     OW87298   1.868   1.530   6.281
61822SOL    HW187299   1.894   1.488   6.199
61822SOL    HW287300   1.950   1.537   6.331
61823SOL     OW87301   8.378   4.241   3.838
61823SOL    HW187302   8.423   4.306   3.783
61823SOL    HW287303   8.361   4.168   3.779
61824SOL     OW87304   0.841   7.779  14.696
61824SOL    HW187305   0.902   7.706  14.705
61824SOL    HW287306   0.765   7.742  14.651
61825SOL     OW87307   0.187   3.927  10.141
61825SOL    HW187308   0.194   3.835  10.114
61825SOL    HW287309   0.101   3.954  10.108
61826SOL     OW87310   4.604   9.870   2.494
61826SOL    HW187311   4.587   9.776   2.486
61826SOL    HW287312   4.562   9.894   2.577
61827SOL     OW87313   8.743   6.148   8.196
61827SOL    HW187314   8.776   6.196   8.120
61827SOL    HW287315   8.651   6.174   8.202
61828SOL     OW87316   3.839   8.313  12.879
61828SOL    HW187317   3.925   8.328  12.840
61828SOL    HW287318   3.857   8.287  12.969
61829SOL     OW87319   7.643  12.931   6.124
61829SOL    HW187320   7.645  12.836   6.111
61829SOL    HW287321   7.641  12.967   6.036
61830SOL     OW87322  14.770  14.426   7.502
61830SOL    HW187323  14.864  14.422   7.483
61830SOL    HW287324  14.757  14.513   7.539
61831SOL     OW87325   8.768  14.232   4.422
61831SOL    HW187326   8.861  14.229   4.401
61831SOL    HW287327   8.736  14.311   4.379
61832SOL     OW87328   2.810   0.828   3.494
61832SOL    HW187329   2.723   0.789   3.492
61832SOL    HW287330   2.804   0.896   3.562
61833SOL     OW87331   0.189   3.000   0.107
61833SOL    HW187332   0.216   3.091   0.119
61833SOL    HW287333   0.140   2.979   0.186
61834SOL     OW87334   1.816   4.786   0.854
61834SOL    HW187335   1.722   4.765   0.852
61834SOL    HW287336   1.838   4.786   0.948
61835SOL     OW87337  11.919   3.700  13.244
61835SOL    HW187338  11.862   3.773  13.269
61835SOL    HW287339  12.006   3.727  13.272
61836SOL     OW87340   4.107  10.823   9.636
61836SOL    HW187341   4.129  10.779   9.718
61836SOL    HW287342   4.190  10.864   9.608
61837SOL     OW87343   1.545   8.585   5.729
61837SOL    HW187344   1.542   8.489   5.736
61837SOL    HW287345   1.505   8.605   5.645
61838SOL     OW87346  12.706  11.499  10.937
61838SOL    HW187347  12.700  11.578  10.883
61838SOL    HW287348  12.778  11.518  10.998
61839SOL     OW87349  12.674  14.159   1.814
61839SOL    HW187350  12.680  14.085   1.875
61839SOL    HW287351  12.754  14.153   1.762
61840SOL     OW87352  12.531   7.077  14.269
61840SOL    HW187353  12.511   6.984  14.266
61840SOL    HW287354  12.597   7.086  14.338
61841SOL     OW87355   8.450   7.062   0.990
61841SOL    HW187356   8.498   6.979   0.997
61841SOL    HW287357   8.515   7.125   0.960
61842SOL     OW87358   1.662  11.721   5.027
61842SOL    HW187359   1.636  11.771   4.950
61842SOL    HW287360   1.740  11.768   5.060
61843SOL     OW87361   4.290   0.557   2.562
61843SOL    HW187362   4.276   0.463   2.552
61843SOL    HW287363   4.243   0.596   2.488
61844SOL     OW87364  12.291  13.796  14.328
61844SOL    HW187365  12.382  13.766  14.330
61844SOL    HW287366  12.260  13.770  14.242
61845SOL     OW87367  10.041  10.835   8.236
61845SOL    HW187368   9.968  10.786   8.197
61845SOL    HW287369  10.031  10.821   8.330
61846SOL     OW87370   9.839   6.095   8.300
61846SOL    HW187371   9.893   6.027   8.260
61846SOL    HW287372   9.801   6.053   8.377
61847SOL     OW87373   4.376   6.934   9.648
61847SOL    HW187374   4.297   6.984   9.671
61847SOL    HW287375   4.351   6.843   9.663
61848SOL     OW87376   0.802   1.113  10.760
61848SOL    HW187377   0.721   1.076  10.794
61848SOL    HW287378   0.843   1.155  10.836
61849SOL     OW87379   9.535   1.984   7.273
61849SOL    HW187380   9.577   2.069   7.272
61849SOL    HW287381   9.476   1.986   7.348
61850SOL     OW87382   5.986   6.319  13.448
61850SOL    HW187383   5.930   6.390  13.478
61850SOL    HW287384   6.042   6.359  13.381
61851SOL     OW87385   9.607   9.487  12.864
61851SOL    HW187386   9.629   9.470  12.956
61851SOL    HW287387   9.600   9.582  12.858
61852SOL     OW87388   7.328   4.688   5.126
61852SOL    HW187389   7.270   4.765   5.131
61852SOL    HW287390   7.274   4.616   5.158
61853SOL     OW87391   6.371  10.017  11.667
61853SOL    HW187392   6.306  10.038  11.734
61853SOL    HW287393   6.331  10.047  11.585
61854SOL     OW87394   9.364   3.840   4.465
61854SOL    HW187395   9.297   3.839   4.533
61854SOL    HW287396   9.390   3.932   4.459
61855SOL     OW87397   0.317  13.158  12.652
61855SOL    HW187398   0.235  13.195  12.682
61855SOL    HW287399   0.325  13.186  12.560
61856SOL     OW87400   7.284   9.969   2.528
61856SOL    HW187401   7.209  10.022   2.502
61856SOL    HW287402   7.353   9.994   2.466
61857SOL     OW87403  10.490   5.665  10.727
61857SOL    HW187404  10.565   5.724  10.720
61857SOL    HW287405  10.430   5.709  10.787
61858SOL     OW87406   9.796   3.213   1.176
61858SOL    HW187407   9.847   3.240   1.100
61858SOL    HW287408   9.829   3.267   1.247
61859SOL     OW87409   5.207   4.632  10.793
61859SOL    HW187410   5.199   4.538  10.773
61859SOL    HW287411   5.168   4.676  10.717
61860SOL     OW87412   2.835   6.545   3.922
61860SOL    HW187413   2.872   6.497   3.847
61860SOL    HW287414   2.784   6.479   3.970
61861SOL     OW87415   9.165   6.297   7.077
61861SOL    HW187416   9.120   6.347   7.009
61861SOL    HW287417   9.153   6.349   7.157
61862SOL     OW87418  10.075  10.790   2.748
61862SOL    HW187419  10.084  10.819   2.839
61862SOL    HW287420  10.131  10.713   2.742
61863SOL     OW87421  12.372  12.877   4.926
61863SOL    HW187422  12.339  12.807   4.983
61863SOL    HW287423  12.459  12.847   4.899
61864SOL     OW87424   0.096  11.417   8.636
61864SOL    HW187425   0.072  11.349   8.572
61864SOL    HW287426   0.192  11.417   8.636
61865SOL     OW87427   1.367   4.429  12.703
61865SOL    HW187428   1.418   4.362  12.749
61865SOL    HW287429   1.278   4.418  12.737
61866SOL     OW87430   3.904   6.147   4.281
61866SOL    HW187431   3.868   6.211   4.342
61866SOL    HW287432   3.922   6.070   4.335
61867SOL     OW87433  14.134  12.597   7.607
61867SOL    HW187434  14.182  12.625   7.685
61867SOL    HW287435  14.058  12.654   7.603
61868SOL     OW87436  10.302   3.061   5.267
61868SOL    HW187437  10.268   2.972   5.268
61868SOL    HW287438  10.360   3.065   5.344
61869SOL     OW87439   5.302   1.874   9.747
61869SOL    HW187440   5.394   1.888   9.769
61869SOL    HW287441   5.296   1.894   9.654
61870SOL     OW87442  13.758  11.862   9.899
61870SOL    HW187443  13.687  11.809   9.864
61870SOL    HW287444  13.834  11.841   9.844
61871SOL     OW87445   0.144   8.881  10.895
61871SOL    HW187446   0.061   8.844  10.865
61871SOL    HW287447   0.190   8.806  10.934
61872SOL     OW87448   9.163   4.980   3.031
61872SOL    HW187449   9.196   5.058   3.075
61872SOL    HW287450   9.234   4.952   2.974
61873SOL     OW87451   7.660   8.224   9.750
61873SOL    HW187452   7.604   8.189   9.820
61873SOL    HW287453   7.631   8.178   9.671
61874SOL     OW87454   4.275   5.796   1.543
61874SOL    HW187455   4.257   5.704   1.522
61874SOL    HW287456   4.266   5.842   1.460
61875SOL     OW87457   6.497   3.908   5.309
61875SOL    HW187458   6.485   3.921   5.215
61875SOL    HW287459   6.510   3.996   5.345
61876SOL     OW87460   0.925  11.292   3.907
61876SOL    HW187461   0.994  11.351   3.937
61876SOL    HW287462   0.950  11.206   3.942
61877SOL     OW87463   9.160   7.832  14.400
61877SOL    HW187464   9.160   7.865  14.490
61877SOL    HW287465   9.097   7.888  14.354
61878SOL     OW87466  14.722   8.606  14.490
61878SOL    HW187467  14.663   8.531  14.503
61878SOL    HW287468  14.761   8.620  14.575
61879SOL     OW87469   7.697  14.395  11.058
61879SOL    HW187470   7.762  14.371  11.123
61879SOL    HW287471   7.711  14.489  11.042
61880SOL     OW87472   0.905  14.755   0.610
61880SOL    HW187473   0.876  14.753   0.519
61880SOL    HW287474   1.000  14.759   0.605
61881SOL     OW87475  10.885   3.253   2.386
61881SOL    HW187476  10.806   3.267   2.438
61881SOL    HW287477  10.957   3.278   2.445
61882SOL     OW87478  13.667   7.875   3.005
61882SOL    HW187479  13.651   7.789   3.043
61882SOL    HW287480  13.709   7.925   3.075
61883SOL     OW87481  10.994   5.782   4.100
61883SOL    HW187482  10.951   5.860   4.136
61883SOL    HW287483  11.078   5.779   4.145
61884SOL     OW87484   2.211   4.294   2.533
61884SOL    HW187485   2.222   4.272   2.440
61884SOL    HW287486   2.116   4.304   2.544
61885SOL     OW87487   9.711  11.125   4.536
61885SOL    HW187488   9.629  11.077   4.548
61885SOL    HW287489   9.762  11.106   4.615
61886SOL     OW87490  10.705   7.644  12.371
61886SOL    HW187491  10.679   7.613  12.285
61886SOL    HW287492  10.753   7.725  12.354
61887SOL     OW87493  13.279   2.979   6.446
61887SOL    HW187494  13.186   2.961   6.435
61887SOL    HW287495  13.322   2.893   6.441
61888SOL     OW87496  11.640   1.276   4.253
61888SOL    HW187497  11.601   1.309   4.334
61888SOL    HW287498  11.659   1.184   4.272
61889SOL     OW87499  12.155  14.048   4.356
61889SOL    HW187500  12.160  13.985   4.427
61889SOL    HW287501  12.127  14.130   4.398
61890SOL     OW87502   7.092   0.110  13.095
61890SOL    HW187503   7.090   0.028  13.143
61890SOL    HW287504   7.018   0.160  13.128
61891SOL     OW87505   6.626  10.122   3.416
61891SOL    HW187506   6.611  10.208   3.456
61891SOL    HW287507   6.711  10.094   3.449
61892SOL     OW87508   2.390  10.260   0.376
61892SOL    HW187509   2.442  10.184   0.350
61892SOL    HW287510   2.332  10.228   0.445
61893SOL     OW87511   7.021   1.071  14.102
61893SOL    HW187512   6.996   1.138  14.039
61893SOL    HW287513   7.069   1.006  14.050
61894SOL     OW87514   2.554  13.157   6.409
61894SOL    HW187515   2.625  13.098   6.436
61894SOL    HW287516   2.593  13.210   6.339
61895SOL     OW87517   8.884  11.094   7.965
61895SOL    HW187518   8.949  11.113   7.897
61895SOL    HW287519   8.801  11.086   7.917
61896SOL     OW87520   5.402   6.547  10.377
61896SOL    HW187521   5.440   6.597  10.449
61896SOL    HW287522   5.308   6.544  10.397
61897SOL     OW87523  11.019   8.552  11.336
61897SOL    HW187524  10.945   8.568  11.278
61897SOL    HW287525  11.020   8.626  11.396
61898SOL     OW87526   2.059   6.693  13.937
61898SOL    HW187527   2.099   6.730  14.016
61898SOL    HW287528   2.013   6.767  13.897
61899SOL     OW87529   0.637  12.939  13.678
61899SOL    HW187530   0.557  12.889  13.665
61899SOL    HW287531   0.707  12.873  13.682
61900SOL     OW87532   9.096   7.507  12.242
61900SOL    HW187533   9.073   7.415  12.249
61900SOL    HW287534   9.148   7.513  12.162
61901SOL     OW87535   0.760   4.852  12.805
61901SOL    HW187536   0.833   4.885  12.857
61901SOL    HW287537   0.684   4.900  12.837
61902SOL     OW87538  10.598   0.343   4.211
61902SOL    HW187539  10.589   0.325   4.117
61902SOL    HW287540  10.693   0.343   4.226
61903SOL     OW87541  12.490  14.237   6.004
61903SOL    HW187542  12.543  14.188   5.942
61903SOL    HW287543  12.461  14.172   6.067
61904SOL     OW87544   1.902   9.097  10.080
61904SOL    HW187545   1.824   9.056  10.117
61904SOL    HW287546   1.953   9.024  10.045
61905SOL     OW87547   8.364   8.677  14.060
61905SOL    HW187548   8.412   8.631  14.129
61905SOL    HW287549   8.395   8.768  14.065
61906SOL     OW87550   5.485   5.466   0.995
61906SOL    HW187551   5.482   5.562   0.997
61906SOL    HW287552   5.398   5.439   1.023
61907SOL     OW87553   3.040   7.741   6.336
61907SOL    HW187554   3.045   7.693   6.419
61907SOL    HW287555   3.112   7.804   6.340
61908SOL     OW87556   9.830   3.256   0.497
61908SOL    HW187557   9.843   3.178   0.551
61908SOL    HW287558   9.909   3.261   0.443
61909SOL     OW87559   3.773   2.133  10.816
61909SOL    HW187560   3.796   2.202  10.879
61909SOL    HW287561   3.793   2.171  10.731
61910SOL     OW87562   8.165   6.162  11.475
61910SOL    HW187563   8.187   6.203  11.559
61910SOL    HW287564   8.123   6.232  11.425
61911SOL     OW87565   8.266   1.191   1.868
61911SOL    HW187566   8.310   1.118   1.825
61911SOL    HW287567   8.237   1.247   1.797
61912SOL     OW87568   6.684   6.783   8.890
61912SOL    HW187569   6.659   6.868   8.926
61912SOL    HW287570   6.646   6.783   8.802
61913SOL     OW87571   7.726   9.081   5.470
61913SOL    HW187572   7.754   8.990   5.466
61913SOL    HW287573   7.685   9.089   5.556
61914SOL     OW87574   6.900   9.744   8.968
61914SOL    HW187575   6.917   9.701   9.052
61914SOL    HW287576   6.986   9.777   8.941
61915SOL     OW87577  14.636   4.172   7.673
61915SOL    HW187578  14.676   4.133   7.750
61915SOL    HW287579  14.651   4.266   7.683
61916SOL     OW87580   4.389   5.371  11.150
61916SOL    HW187581   4.378   5.450  11.097
61916SOL    HW287582   4.481   5.374  11.178
61917SOL     OW87583   1.517   6.155  11.240
61917SOL    HW187584   1.584   6.111  11.188
61917SOL    HW287585   1.473   6.085  11.288
61918SOL     OW87586   7.542  10.831   4.626
61918SOL    HW187587   7.470  10.847   4.566
61918SOL    HW287588   7.519  10.882   4.704
61919SOL     OW87589  10.737   5.494  13.632
61919SOL    HW187590  10.710   5.586  13.635
61919SOL    HW287591  10.665   5.449  13.589
61920SOL     OW87592  12.182  11.187   2.630
61920SOL    HW187593  12.278  11.187   2.626
61920SOL    HW287594  12.160  11.236   2.709
61921SOL     OW87595  10.583  14.566  10.893
61921SOL    HW187596  10.584  14.660  10.876
61921SOL    HW287597  10.572  14.559  10.988
61922SOL     OW87598  11.855   9.791   1.675
61922SOL    HW187599  11.876   9.725   1.609
61922SOL    HW287600  11.817   9.741   1.747
61923SOL     OW87601   0.952   8.494   5.152
61923SOL    HW187602   0.969   8.403   5.126
61923SOL    HW287603   0.894   8.528   5.084
61924SOL     OW87604   9.636   6.142   2.217
61924SOL    HW187605   9.641   6.123   2.123
61924SOL    HW287606   9.721   6.115   2.252
61925SOL     OW87607   2.446  13.620  13.283
61925SOL    HW187608   2.408  13.598  13.198
61925SOL    HW287609   2.394  13.694  13.314
61926SOL     OW87610  14.799   6.267  12.112
61926SOL    HW187611   0.001   6.254  12.171
61926SOL    HW287612  14.838   6.294  12.029
61927SOL     OW87613   4.042   8.230   5.626
61927SOL    HW187614   4.064   8.311   5.581
61927SOL    HW287615   4.110   8.168   5.598
61928SOL     OW87616   5.619   3.645  11.149
61928SOL    HW187617   5.533   3.647  11.191
61928SOL    HW287618   5.633   3.553  11.126
61929SOL     OW87619   7.106  10.719   4.540
61929SOL    HW187620   7.046  10.761   4.479
61929SOL    HW287621   7.189  10.714   4.493
61930SOL     OW87622   5.697   6.153  14.218
61930SOL    HW187623   5.713   6.241  14.252
61930SOL    HW287624   5.602   6.149  14.205
61931SOL     OW87625  12.175   8.435   2.780
61931SOL    HW187626  12.100   8.494   2.788
61931SOL    HW287627  12.216   8.437   2.867
61932SOL     OW87628  10.127   9.798   6.352
61932SOL    HW187629  10.190   9.726   6.346
61932SOL    HW287630  10.047   9.764   6.312
61933SOL     OW87631   2.898   0.245   6.299
61933SOL    HW187632   2.942   0.330   6.309
61933SOL    HW287633   2.831   0.245   6.367
61934SOL     OW87634   7.732  10.000  14.183
61934SOL    HW187635   7.713  10.046  14.264
61934SOL    HW287636   7.744  10.069  14.118
61935SOL     OW87637   6.109  13.054   1.357
61935SOL    HW187638   6.057  13.059   1.437
61935SOL    HW287639   6.198  13.039   1.388
61936SOL     OW87640   3.018   0.467   1.928
61936SOL    HW187641   3.073   0.412   1.873
61936SOL    HW287642   3.076   0.537   1.959
61937SOL     OW87643  14.117  11.378   1.037
61937SOL    HW187644  14.121  11.470   1.066
61937SOL    HW287645  14.201  11.341   1.063
61938SOL     OW87646   7.008   7.788  12.713
61938SOL    HW187647   6.914   7.775  12.729
61938SOL    HW287648   7.047   7.702  12.727
61939SOL     OW87649   5.989   8.356  10.257
61939SOL    HW187650   5.900   8.384  10.279
61939SOL    HW287651   6.038   8.363  10.339
61940SOL     OW87652  14.835   3.414   4.157
61940SOL    HW187653  14.798   3.328   4.138
61940SOL    HW287654  14.768   3.457   4.210
61941SOL     OW87655  10.124   8.077   6.892
61941SOL    HW187656  10.125   8.172   6.903
61941SOL    HW287657  10.037   8.051   6.922
61942SOL     OW87658   4.326  11.997   5.491
61942SOL    HW187659   4.274  11.945   5.430
61942SOL    HW287660   4.261  12.050   5.538
61943SOL     OW87661  11.002   1.268   9.309
61943SOL    HW187662  10.987   1.358   9.281
61943SOL    HW287663  10.918   1.239   9.343
61944SOL     OW87664   5.356   7.224  13.160
61944SOL    HW187665   5.429   7.178  13.200
61944SOL    HW287666   5.285   7.159  13.158
61945SOL     OW87667   7.414   0.176  14.780
61945SOL    HW187668   7.507   0.169  14.760
61945SOL    HW287669   7.407   0.148  14.871
61946SOL     OW87670   2.705   6.371   0.517
61946SOL    HW187671   2.661   6.361   0.432
61946SOL    HW287672   2.724   6.465   0.523
61947SOL     OW87673   6.679  10.634   7.913
61947SOL    HW187674   6.714  10.663   7.829
61947SOL    HW287675   6.717  10.694   7.977
61948SOL     OW87676   9.927   5.784   6.427
61948SOL    HW187677   9.869   5.858   6.412
61948SOL    HW287678  10.013   5.823   6.438
61949SOL     OW87679  13.155   8.898  10.088
61949SOL    HW187680  13.162   8.807  10.116
61949SOL    HW287681  13.149   8.894   9.993
61950SOL     OW87682  13.371  11.791   0.627
61950SOL    HW187683  13.282  11.826   0.636
61950SOL    HW287684  13.428  11.867   0.633
61951SOL     OW87685   9.606   4.988   3.856
61951SOL    HW187686   9.654   5.026   3.930
61951SOL    HW287687   9.663   4.919   3.822
61952SOL     OW87688  10.234  13.012  12.720
61952SOL    HW187689  10.207  13.071  12.649
61952SOL    HW287690  10.256  12.930  12.677
61953SOL     OW87691   6.821   2.751  10.397
61953SOL    HW187692   6.830   2.831  10.346
61953SOL    HW287693   6.740   2.711  10.364
61954SOL     OW87694   7.163  11.674   7.488
61954SOL    HW187695   7.137  11.702   7.576
61954SOL    HW287696   7.185  11.581   7.497
61955SOL     OW87697   3.711   3.534   6.496
61955SOL    HW187698   3.694   3.528   6.402
61955SOL    HW287699   3.797   3.577   6.501
61956SOL     OW87700   9.210  10.869   7.044
61956SOL    HW187701   9.207  10.956   7.003
61956SOL    HW287702   9.297  10.865   7.084
61957SOL     OW87703  12.433   1.284  12.879
61957SOL    HW187704  12.483   1.202  12.875
61957SOL    HW287705  12.495   1.349  12.911
61958SOL     OW87706   4.082   8.103   1.301
61958SOL    HW187707   3.999   8.086   1.256
61958SOL    HW287708   4.059   8.163   1.372
61959SOL     OW87709   1.002   6.679  14.755
61959SOL    HW187710   1.030   6.744  14.820
61959SOL    HW287711   1.030   6.716  14.672
61960SOL     OW87712  10.304  10.949   0.681
61960SOL    HW187713  10.244  10.909   0.743
61960SOL    HW287714  10.248  10.997   0.621
61961SOL     OW87715   7.673  14.476   3.648
61961SOL    HW187716   7.628  14.558   3.628
61961SOL    HW287717   7.670  14.470   3.744
61962SOL     OW87718   8.281   3.164   5.374
61962SOL    HW187719   8.242   3.244   5.340
61962SOL    HW287720   8.226   3.141   5.449
61963SOL     OW87721   4.496  13.209   4.000
61963SOL    HW187722   4.542  13.285   3.964
61963SOL    HW287723   4.406  13.219   3.970
61964SOL     OW87724  13.818  14.287   0.026
61964SOL    HW187725  13.841  14.269  14.808
61964SOL    HW287726  13.895  14.258   0.076
61965SOL     OW87727   2.819   0.096  13.385
61965SOL    HW187728   2.827   0.005  13.355
61965SOL    HW287729   2.780   0.142  13.310
61966SOL     OW87730  13.816  12.478  10.032
61966SOL    HW187731  13.742  12.458   9.974
61966SOL    HW287732  13.872  12.536   9.980
61967SOL     OW87733   8.854   7.170   2.354
61967SOL    HW187734   8.785   7.134   2.409
61967SOL    HW287735   8.919   7.099   2.348
61968SOL     OW87736   1.059   2.858   6.097
61968SOL    HW187737   1.115   2.911   6.153
61968SOL    HW287738   1.031   2.917   6.027
61969SOL     OW87739   8.372  14.768   6.096
61969SOL    HW187740   8.351  14.824   6.022
61969SOL    HW287741   8.444  14.813   6.141
61970SOL     OW87742   9.533   7.156   7.417
61970SOL    HW187743   9.459   7.189   7.467
61970SOL    HW287744   9.606   7.157   7.479
61971SOL     OW87745   9.450   0.898   6.824
61971SOL    HW187746   9.436   0.984   6.784
61971SOL    HW287747   9.361   0.868   6.847
61972SOL     OW87748  14.120  14.764  11.421
61972SOL    HW187749  14.138  14.712  11.499
61972SOL    HW287750  14.183  14.836  11.425
61973SOL     OW87751   9.166   9.851  10.236
61973SOL    HW187752   9.163   9.782  10.169
61973SOL    HW287753   9.180   9.805  10.318
61974SOL     OW87754  12.165   6.572  12.266
61974SOL    HW187755  12.206   6.635  12.325
61974SOL    HW287756  12.128   6.625  12.196
61975SOL     OW87757  10.620   8.501   3.371
61975SOL    HW187758  10.665   8.586   3.377
61975SOL    HW287759  10.679   8.447   3.318
61976SOL     OW87760   6.158   0.699   1.827
61976SOL    HW187761   6.240   0.731   1.790
61976SOL    HW287762   6.177   0.688   1.920
61977SOL     OW87763  10.461   5.577   5.661
61977SOL    HW187764  10.469   5.638   5.588
61977SOL    HW287765  10.479   5.491   5.624
61978SOL     OW87766   7.751   8.774   5.427
61978SOL    HW187767   7.735   8.679   5.424
61978SOL    HW287768   7.785   8.795   5.340
61979SOL     OW87769   4.356  10.340  11.952
61979SOL    HW187770   4.311  10.263  11.919
61979SOL    HW287771   4.299  10.374  12.021
61980SOL     OW87772   9.188   7.552   4.478
61980SOL    HW187773   9.214   7.577   4.567
61980SOL    HW287774   9.112   7.495   4.491
61981SOL     OW87775  12.369  10.852  13.971
61981SOL    HW187776  12.308  10.854  13.898
61981SOL    HW287777  12.445  10.804  13.937
61982SOL     OW87778   5.049  10.795   1.890
61982SOL    HW187779   5.125  10.741   1.867
61982SOL    HW287780   5.061  10.814   1.984
61983SOL     OW87781  14.529   5.942  14.239
61983SOL    HW187782  14.513   5.892  14.158
61983SOL    HW287783  14.458   5.916  14.297
61984SOL     OW87784  10.363   4.567  14.346
61984SOL    HW187785  10.417   4.497  14.382
61984SOL    HW287786  10.409   4.596  14.268
61985SOL     OW87787   3.528   3.265   9.056
61985SOL    HW187788   3.605   3.250   9.111
61985SOL    HW287789   3.565   3.296   8.973
61986SOL     OW87790  13.692   4.916  12.569
61986SOL    HW187791  13.783   4.944  12.557
61986SOL    HW287792  13.688   4.829  12.529
61987SOL     OW87793  10.946   1.767  11.577
61987SOL    HW187794  10.852   1.786  11.578
61987SOL    HW287795  10.988   1.851  11.596
61988SOL     OW87796  11.749   8.623   5.477
61988SOL    HW187797  11.670   8.643   5.527
61988SOL    HW287798  11.732   8.536   5.439
61989SOL     OW87799   6.645  11.575  13.537
61989SOL    HW187800   6.687  11.658  13.560
61989SOL    HW287801   6.704  11.535  13.473
61990SOL     OW87802   7.830   2.803   5.975
61990SOL    HW187803   7.750   2.776   5.930
61990SOL    HW287804   7.899   2.795   5.910
61991SOL     OW87805   0.201   6.645   4.910
61991SOL    HW187806   0.118   6.674   4.873
61991SOL    HW287807   0.210   6.554   4.881
61992SOL     OW87808  10.339   7.272   2.263
61992SOL    HW187809  10.262   7.301   2.312
61992SOL    HW287810  10.386   7.214   2.323
61993SOL     OW87811  10.519  10.492  14.688
61993SOL    HW187812  10.611  10.476  14.665
61993SOL    HW287813  10.523  10.557  14.758
61994SOL     OW87814   9.011  11.569   9.651
61994SOL    HW187815   9.081  11.507   9.671
61994SOL    HW287816   9.012  11.577   9.556
61995SOL     OW87817  14.178   5.460   5.790
61995SOL    HW187818  14.165   5.367   5.774
61995SOL    HW287819  14.104   5.485   5.846
61996SOL     OW87820   9.652   7.957  11.150
61996SOL    HW187821   9.607   7.951  11.235
61996SOL    HW287822   9.681   7.868  11.132
61997SOL     OW87823   3.006   8.073  12.719
61997SOL    HW187824   3.030   8.090  12.810
61997SOL    HW287825   2.918   8.109  12.711
61998SOL     OW87826   2.446  14.171   3.584
61998SOL    HW187827   2.495  14.103   3.630
61998SOL    HW287828   2.480  14.169   3.495
61999SOL     OW87829   5.591   7.531   1.248
61999SOL    HW187830   5.519   7.585   1.281
61999SOL    HW287831   5.662   7.546   1.310
62000SOL     OW87832   1.723   3.628   0.348
62000SOL    HW187833   1.727   3.553   0.407
62000SOL    HW287834   1.782   3.606   0.276
62001SOL     OW87835  12.885  12.860   3.668
62001SOL    HW187836  12.850  12.904   3.590
62001SOL    HW287837  12.830  12.783   3.679
62002SOL     OW87838   8.501   8.001   3.354
62002SOL    HW187839   8.433   7.935   3.344
62002SOL    HW287840   8.515   8.035   3.265
62003SOL     OW87841  10.087   9.711  14.025
62003SOL    HW187842  10.025   9.683  13.956
62003SOL    HW287843  10.032   9.724  14.102
62004SOL     OW87844  13.771  10.474   8.708
62004SOL    HW187845  13.823  10.522   8.773
62004SOL    HW287846  13.832  10.457   8.637
62005SOL     OW87847   8.665  12.075   1.120
62005SOL    HW187848   8.738  12.019   1.145
62005SOL    HW287849   8.643  12.123   1.200
62006SOL     OW87850  11.544   6.096  10.404
62006SOL    HW187851  11.606   6.075  10.473
62006SOL    HW287852  11.571   6.042  10.330
62007SOL     OW87853   5.595  10.397  14.450
62007SOL    HW187854   5.560  10.433  14.369
62007SOL    HW287855   5.668  10.454  14.473
62008SOL     OW87856   2.098   6.480  14.794
62008SOL    HW187857   2.139   6.559  14.761
62008SOL    HW287858   2.046   6.448  14.721
62009SOL     OW87859  14.274   1.721   7.131
62009SOL    HW187860  14.204   1.778   7.099
62009SOL    HW287861  14.286   1.657   7.061
62010SOL     OW87862  10.566   9.233   7.164
62010SOL    HW187863  10.491   9.246   7.223
62010SOL    HW287864  10.612   9.317   7.165
62011SOL     OW87865  11.695  10.749  10.227
62011SOL    HW187866  11.771  10.753  10.285
62011SOL    HW287867  11.660  10.838  10.227
62012SOL     OW87868   0.718  14.668   3.924
62012SOL    HW187869   0.711  14.647   4.017
62012SOL    HW287870   0.646  14.619   3.883
62013SOL     OW87871   0.960  11.244   0.155
62013SOL    HW187872   1.025  11.296   0.202
62013SOL    HW287873   0.893  11.225   0.220
62014SOL     OW87874   6.617   7.073  10.759
62014SOL    HW187875   6.569   6.995  10.788
62014SOL    HW287876   6.550   7.140  10.747
62015SOL     OW87877   5.014   3.188  13.275
62015SOL    HW187878   4.939   3.128  13.279
62015SOL    HW287879   4.989   3.261  13.332
62016SOL     OW87880   3.643  11.644  11.716
62016SOL    HW187881   3.679  11.576  11.660
62016SOL    HW287882   3.703  11.648  11.791
62017SOL     OW87883  13.599   6.474  13.958
62017SOL    HW187884  13.662   6.458  13.888
62017SOL    HW287885  13.635   6.426  14.033
62018SOL     OW87886   4.526   9.975   6.796
62018SOL    HW187887   4.565  10.062   6.784
62018SOL    HW287888   4.539   9.931   6.712
62019SOL     OW87889   2.911   2.185  12.484
62019SOL    HW187890   2.869   2.189  12.570
62019SOL    HW287891   2.884   2.101  12.448
62020SOL     OW87892  14.751  12.995  11.288
62020SOL    HW187893  14.656  12.983  11.294
62020SOL    HW287894  14.764  13.039  11.204
62021SOL     OW87895  11.679  11.981  13.058
62021SOL    HW187896  11.625  11.916  13.015
62021SOL    HW287897  11.742  11.930  13.110
62022SOL     OW87898   1.963   3.247  14.785
62022SOL    HW187899   1.936   3.274  14.873
62022SOL    HW287900   2.040   3.301  14.766
62023SOL     OW87901   1.858  12.501  13.866
62023SOL    HW187902   1.867  12.542  13.952
62023SOL    HW287903   1.764  12.483  13.858
62024SOL     OW87904  10.631  10.051   4.514
62024SOL    HW187905  10.571  10.032   4.586
62024SOL    HW287906  10.714  10.072   4.557
62025SOL     OW87907   8.390  14.227  11.921
62025SOL    HW187908   8.477  14.255  11.894
62025SOL    HW287909   8.370  14.281  11.997
62026SOL     OW87910   9.897  12.264  11.909
62026SOL    HW187911   9.930  12.175  11.919
62026SOL    HW287912   9.975  12.319  11.911
62027SOL     OW87913   2.869   0.423  11.647
62027SOL    HW187914   2.866   0.497  11.708
62027SOL    HW287915   2.824   0.455  11.568
62028SOL     OW87916   9.242   6.803  10.721
62028SOL    HW187917   9.281   6.849  10.796
62028SOL    HW287918   9.179   6.743  10.760
62029SOL     OW87919   0.667   8.001   4.085
62029SOL    HW187920   0.588   8.030   4.131
62029SOL    HW287921   0.679   7.911   4.113
62030SOL     OW87922   3.492  10.658  13.035
62030SOL    HW187923   3.517  10.565  13.038
62030SOL    HW287924   3.396  10.657  13.045
62031SOL     OW87925  12.813   8.108   0.408
62031SOL    HW187926  12.738   8.076   0.357
62031SOL    HW287927  12.888   8.059   0.374
62032SOL     OW87928  10.178   1.276  12.180
62032SOL    HW187929  10.217   1.253  12.265
62032SOL    HW287930  10.205   1.367  12.166
62033SOL     OW87931   5.332   6.324  14.751
62033SOL    HW187932   5.352   6.418  14.749
62033SOL    HW287933   5.257   6.314  14.693
62034SOL     OW87934   5.107   4.026   8.557
62034SOL    HW187935   5.162   4.103   8.543
62034SOL    HW287936   5.062   4.013   8.473
62035SOL     OW87937   1.030   7.472   2.914
62035SOL    HW187938   1.010   7.383   2.943
62035SOL    HW287939   1.102   7.500   2.970
62036SOL     OW87940   0.514   8.279   1.385
62036SOL    HW187941   0.431   8.324   1.399
62036SOL    HW287942   0.580   8.347   1.396
62037SOL     OW87943   3.717  14.693   6.699
62037SOL    HW187944   3.640  14.729   6.653
62037SOL    HW287945   3.741  14.761   6.762
62038SOL     OW87946   5.621   6.699  12.351
62038SOL    HW187947   5.605   6.669  12.440
62038SOL    HW287948   5.564   6.775  12.340
62039SOL     OW87949  14.155  12.133   8.457
62039SOL    HW187950  14.114  12.056   8.498
62039SOL    HW287951  14.123  12.131   8.367
62040SOL     OW87952  10.823   0.257   2.591
62040SOL    HW187953  10.872   0.176   2.579
62040SOL    HW287954  10.803   0.259   2.684
62041SOL     OW87955   6.988  13.403   0.820
62041SOL    HW187956   6.934  13.325   0.826
62041SOL    HW287957   6.992  13.436   0.910
62042SOL     OW87958  13.628   4.915   2.824
62042SOL    HW187959  13.576   4.944   2.749
62042SOL    HW287960  13.632   4.991   2.882
62043SOL     OW87961   9.883   0.427  13.856
62043SOL    HW187962   9.912   0.346  13.897
62043SOL    HW287963   9.795   0.408  13.824
62044SOL     OW87964  10.779   5.218  11.949
62044SOL    HW187965  10.772   5.292  12.008
62044SOL    HW287966  10.869   5.223  11.915
62045SOL     OW87967   8.053   9.391  11.052
62045SOL    HW187968   8.028   9.380  11.144
62045SOL    HW287969   8.091   9.306  11.027
62046SOL     OW87970  13.211   7.042   8.460
62046SOL    HW187971  13.132   7.057   8.512
62046SOL    HW287972  13.179   7.008   8.377
62047SOL     OW87973  14.679  13.802  10.264
62047SOL    HW187974  14.746  13.742  10.231
62047SOL    HW287975  14.690  13.882  10.212
62048SOL     OW87976   4.278   1.052   3.589
62048SOL    HW187977   4.314   1.141   3.590
62048SOL    HW287978   4.309   1.015   3.507
62049SOL     OW87979   2.472  14.371  13.517
62049SOL    HW187980   2.390  14.334  13.550
62049SOL    HW287981   2.445  14.442  13.459
62050SOL     OW87982   4.944  11.685  10.514
62050SOL    HW187983   5.017  11.745  10.534
62050SOL    HW287984   4.956  11.663  10.422
62051SOL     OW87985  11.683  12.857   2.713
62051SOL    HW187986  11.680  12.763   2.729
62051SOL    HW287987  11.662  12.896   2.798
62052SOL     OW87988  11.169  10.570  13.830
62052SOL    HW187989  11.151  10.646  13.886
62052SOL    HW287990  11.084  10.531  13.815
62053SOL     OW87991   0.239   2.259   7.791
62053SOL    HW187992   0.151   2.250   7.755
62053SOL    HW287993   0.282   2.176   7.767
62054SOL     OW87994   1.496   3.457  13.869
62054SOL    HW187995   1.421   3.401  13.851
62054SOL    HW287996   1.567   3.396  13.890
62055SOL     OW87997   8.508  13.254  13.948
62055SOL    HW187998   8.595  13.237  13.984
62055SOL    HW287999   8.464  13.305  14.015
62056SOL     OW88000   3.191  12.395  11.535
62056SOL    HW188001   3.153  12.476  11.501
62056SOL    HW288002   3.117  12.346  11.570
62057SOL     OW88003   6.381   8.569  11.093
62057SOL    HW188004   6.382   8.571  10.997
62057SOL    HW288005   6.473   8.569  11.118
62058SOL     OW88006   6.603   9.296  14.328
62058SOL    HW188007   6.554   9.278  14.248
62058SOL    HW288008   6.550   9.258  14.398
62059SOL     OW88009   0.249   8.910   9.581
62059SOL    HW188010   0.194   8.910   9.659
62059SOL    HW288011   0.272   8.818   9.568
62060SOL     OW88012  14.621   6.910   0.069
62060SOL    HW188013  14.537   6.956   0.065
62060SOL    HW288014  14.670   6.957   0.137
62061SOL     OW88015   9.604   6.594   4.950
62061SOL    HW188016   9.521   6.607   4.905
62061SOL    HW288017   9.617   6.499   4.950
62062SOL     OW88018   2.667   1.845   5.168
62062SOL    HW188019   2.667   1.776   5.102
62062SOL    HW288020   2.687   1.800   5.250
62063SOL     OW88021  12.134  13.546   1.078
62063SOL    HW188022  12.059  13.606   1.074
62063SOL    HW288023  12.100  13.464   1.043
62064SOL     OW88024   6.259   1.138   4.300
62064SOL    HW188025   6.353   1.121   4.298
62064SOL    HW288026   6.233   1.139   4.208
62065SOL     OW88027   6.685  13.611  12.382
62065SOL    HW188028   6.635  13.682  12.422
62065SOL    HW288029   6.710  13.646  12.296
62066SOL     OW88030   6.871  12.145   0.832
62066SOL    HW188031   6.790  12.190   0.808
62066SOL    HW288032   6.938  12.186   0.777
62067SOL     OW88033   3.121   2.073   8.983
62067SOL    HW188034   3.173   2.129   8.927
62067SOL    HW288035   3.095   2.000   8.927
62068SOL     OW88036  12.579  14.120   2.181
62068SOL    HW188037  12.523  14.053   2.141
62068SOL    HW288038  12.666  14.081   2.183
62069SOL     OW88039   2.587   6.450   8.364
62069SOL    HW188040   2.666   6.481   8.320
62069SOL    HW288041   2.562   6.371   8.315
62070SOL     OW88042   3.018   6.569   8.558
62070SOL    HW188043   3.110   6.597   8.550
62070SOL    HW288044   3.021   6.474   8.544
62071SOL     OW88045   0.424   4.979   6.085
62071SOL    HW188046   0.380   5.063   6.102
62071SOL    HW288047   0.487   4.999   6.016
62072SOL     OW88048   3.600   1.593   3.221
62072SOL    HW188049   3.604   1.628   3.310
62072SOL    HW288050   3.536   1.523   3.225
62073SOL     OW88051   1.217   0.925   3.068
62073SOL    HW188052   1.280   0.901   3.135
62073SOL    HW288053   1.150   0.975   3.115
62074SOL     OW88054   7.573  11.910  14.469
62074SOL    HW188055   7.590  11.989  14.418
62074SOL    HW288056   7.526  11.852  14.408
62075SOL     OW88057   1.112   5.846   3.967
62075SOL    HW188058   1.110   5.798   3.884
62075SOL    HW288059   1.104   5.938   3.942
62076SOL     OW88060   2.708  10.786   1.522
62076SOL    HW188061   2.698  10.731   1.599
62076SOL    HW288062   2.792  10.760   1.484
62077SOL     OW88063   7.974   6.353  10.041
62077SOL    HW188064   7.930   6.304   9.971
62077SOL    HW288065   7.938   6.317  10.122
62078SOL     OW88066   6.515  11.855   4.369
62078SOL    HW188067   6.573  11.870   4.445
62078SOL    HW288068   6.548  11.775   4.329
62079SOL     OW88069   0.886  12.631   3.182
62079SOL    HW188070   0.981  12.625   3.195
62079SOL    HW288071   0.863  12.553   3.131
62080SOL     OW88072   9.169  13.486   3.399
62080SOL    HW188073   9.106  13.418   3.424
62080SOL    HW288074   9.115  13.563   3.381
62081SOL     OW88075   2.192   9.780   2.971
62081SOL    HW188076   2.245   9.716   2.923
62081SOL    HW288077   2.184   9.743   3.059
62082SOL     OW88078   6.834   9.117  11.594
62082SOL    HW188079   6.807   9.205  11.568
62082SOL    HW288080   6.756   9.063  11.580
62083SOL     OW88081   7.105  14.549   4.873
62083SOL    HW188082   7.122  14.533   4.967
62083SOL    HW288083   7.032  14.610   4.872
62084SOL     OW88084   4.419  13.686   1.100
62084SOL    HW188085   4.493  13.717   1.152
62084SOL    HW288086   4.343  13.704   1.155
62085SOL     OW88087   7.183  13.771   3.592
62085SOL    HW188088   7.161  13.815   3.510
62085SOL    HW288089   7.121  13.807   3.655
62086SOL     OW88090   7.583   4.642   7.333
62086SOL    HW188091   7.509   4.583   7.319
62086SOL    HW288092   7.660   4.589   7.314
62087SOL     OW88093   7.730   6.706  11.724
62087SOL    HW188094   7.711   6.720  11.816
62087SOL    HW288095   7.774   6.787  11.696
62088SOL     OW88096   8.377   0.880   9.720
62088SOL    HW188097   8.446   0.816   9.738
62088SOL    HW288098   8.300   0.827   9.702
62089SOL     OW88099   2.389   2.193  14.320
62089SOL    HW188100   2.467   2.142  14.300
62089SOL    HW288101   2.321   2.128  14.334
62090SOL     OW88102   6.184   7.814   6.960
62090SOL    HW188103   6.179   7.810   7.056
62090SOL    HW288104   6.094   7.802   6.930
62091SOL     OW88105   8.415  11.748   3.132
62091SOL    HW188106   8.362  11.827   3.120
62091SOL    HW288107   8.438  11.748   3.225
62092SOL     OW88108  12.518   2.522  13.904
62092SOL    HW188109  12.579   2.448  13.906
62092SOL    HW288110  12.573   2.599  13.917
62093SOL     OW88111   7.912  11.463  14.212
62093SOL    HW188112   7.931  11.386  14.160
62093SOL    HW288113   7.959  11.448  14.295
62094SOL     OW88114   6.326   4.631   4.620
62094SOL    HW188115   6.230   4.630   4.616
62094SOL    HW288116   6.348   4.722   4.639
62095SOL     OW88117   8.633  14.436   4.254
62095SOL    HW188118   8.584  14.380   4.195
62095SOL    HW288119   8.676  14.500   4.197
62096SOL     OW88120   8.155   3.581   4.624
62096SOL    HW188121   8.060   3.583   4.622
62096SOL    HW288122   8.176   3.496   4.663
62097SOL     OW88123  10.670  14.085   1.314
62097SOL    HW188124  10.695  14.154   1.253
62097SOL    HW288125  10.689  14.003   1.268
62098SOL     OW88126   1.055   5.953   6.988
62098SOL    HW188127   0.993   5.954   6.915
62098SOL    HW288128   1.060   6.045   7.016
62099SOL     OW88129   2.393   4.947   6.767
62099SOL    HW188130   2.303   4.931   6.797
62099SOL    HW288131   2.445   4.941   6.847
62100SOL     OW88132  10.936   1.794   3.083
62100SOL    HW188133  10.950   1.720   3.023
62100SOL    HW288134  11.024   1.822   3.106
62101SOL     OW88135   6.347   4.571   4.307
62101SOL    HW188136   6.357   4.658   4.269
62101SOL    HW288137   6.382   4.579   4.395
62102SOL     OW88138   2.952   1.713   7.553
62102SOL    HW188139   2.937   1.775   7.625
62102SOL    HW288140   2.919   1.758   7.475
62103SOL     OW88141   4.920   0.867   0.878
62103SOL    HW188142   4.855   0.929   0.846
62103SOL    HW288143   4.870   0.806   0.933
62104SOL     OW88144  12.108  11.501   7.160
62104SOL    HW188145  12.134  11.410   7.172
62104SOL    HW288146  12.165  11.532   7.089
62105SOL     OW88147  13.433  14.362   4.712
62105SOL    HW188148  13.447  14.356   4.617
62105SOL    HW288149  13.436  14.271   4.742
62106SOL     OW88150   5.468   7.124   9.690
62106SOL    HW188151   5.496   7.151   9.778
62106SOL    HW288152   5.375   7.144   9.688
62107SOL     OW88153  12.892  13.155  14.353
62107SOL    HW188154  12.831  13.094  14.312
62107SOL    HW288155  12.970  13.103  14.371
62108SOL     OW88156   0.114   3.970   8.220
62108SOL    HW188157   0.142   3.879   8.223
62108SOL    HW288158   0.065   3.983   8.301
62109SOL     OW88159   4.658  11.008   4.976
62109SOL    HW188160   4.567  11.024   4.953
62109SOL    HW288161   4.698  10.977   4.895
62110SOL     OW88162   1.910  14.865  12.784
62110SOL    HW188163   1.964   0.070  12.801
62110SOL    HW288164   1.949  14.825  12.707
62111SOL     OW88165  14.182   0.784   7.520
62111SOL    HW188166  14.175   0.729   7.597
62111SOL    HW288167  14.177   0.723   7.446
62112SOL     OW88168   3.739   4.729   8.576
62112SOL    HW188169   3.759   4.667   8.646
62112SOL    HW288170   3.824   4.753   8.539
62113SOL     OW88171   0.174  13.194   9.735
62113SOL    HW188172   0.081  13.189   9.716
62113SOL    HW288173   0.216  13.148   9.663
62114SOL     OW88174   9.887   8.615  14.624
62114SOL    HW188175   9.906   8.565  14.544
62114SOL    HW288176   9.856   8.550  14.686
62115SOL     OW88177   5.862  10.658   3.891
62115SOL    HW188178   5.863  10.751   3.911
62115SOL    HW288179   5.951  10.638   3.864
62116SOL     OW88180  12.225   0.277   7.124
62116SOL    HW188181  12.311   0.320   7.117
62116SOL    HW288182  12.237   0.209   7.190
62117SOL     OW88183   0.894   0.306  14.188
62117SOL    HW188184   0.950   0.320  14.111
62117SOL    HW288185   0.810   0.280  14.152
62118SOL     OW88186   5.775  13.357  14.216
62118SOL    HW188187   5.719  13.416  14.266
62118SOL    HW288188   5.775  13.394  14.127
62119SOL     OW88189   7.777   5.749   9.815
62119SOL    HW188190   7.716   5.686   9.777
62119SOL    HW288191   7.863   5.721   9.783
62120SOL     OW88192  12.263  10.318   8.646
62120SOL    HW188193  12.232  10.408   8.638
62120SOL    HW288194  12.199  10.266   8.598
62121SOL     OW88195  12.238   4.324  10.065
62121SOL    HW188196  12.201   4.306   9.978
62121SOL    HW288197  12.318   4.373  10.047
62122SOL     OW88198   3.416   4.115   8.994
62122SOL    HW188199   3.465   4.066   9.060
62122SOL    HW288200   3.386   4.049   8.932
62123SOL     OW88201   8.241   7.010   0.790
62123SOL    HW188202   8.299   7.043   0.858
62123SOL    HW288203   8.169   7.073   0.787
62124SOL     OW88204  12.437   7.068  11.398
62124SOL    HW188205  12.482   7.139  11.354
62124SOL    HW288206  12.432   6.998  11.333
62125SOL     OW88207   2.365   7.377  10.192
62125SOL    HW188208   2.395   7.377  10.283
62125SOL    HW288209   2.436   7.335  10.144
62126SOL     OW88210   2.527   0.138  14.301
62126SOL    HW188211   2.510   0.160  14.210
62126SOL    HW288212   2.444   0.101  14.333
62127SOL     OW88213   8.318  11.088  10.222
62127SOL    HW188214   8.288  11.098  10.131
62127SOL    HW288215   8.351  10.998  10.226
62128SOL     OW88216   2.619   2.928  12.896
62128SOL    HW188217   2.588   2.882  12.974
62128SOL    HW288218   2.598   3.020  12.912
62129SOL     OW88219   7.266   1.779   4.301
62129SOL    HW188220   7.208   1.849   4.331
62129SOL    HW288221   7.209   1.722   4.250
62130SOL     OW88222   0.124   8.421   9.912
62130SOL    HW188223   0.035   8.395   9.933
62130SOL    HW288224   0.116   8.512   9.881
62131SOL     OW88225   7.479   2.131   0.351
62131SOL    HW188226   7.494   2.183   0.430
62131SOL    HW288227   7.542   2.165   0.287
62132SOL     OW88228  10.189  14.561  10.308
62132SOL    HW188229  10.187  14.608  10.392
62132SOL    HW288230  10.178  14.630  10.242
62133SOL     OW88231   3.371   9.771  11.184
62133SOL    HW188232   3.442   9.709  11.172
62133SOL    HW288233   3.410   9.844  11.233
62134SOL     OW88234   1.773   9.910  11.527
62134SOL    HW188235   1.780   9.898  11.432
62134SOL    HW288236   1.736   9.997  11.537
62135SOL     OW88237  11.558   2.549  13.802
62135SOL    HW188238  11.560   2.458  13.771
62135SOL    HW288239  11.472   2.582  13.775
62136SOL     OW88240   9.262   8.150  12.256
62136SOL    HW188241   9.261   8.093  12.179
62136SOL    HW288242   9.181   8.202  12.248
62137SOL     OW88243   3.874   7.840  12.392
62137SOL    HW188244   3.844   7.923  12.430
62137SOL    HW288245   3.846   7.845  12.300
62138SOL     OW88246   8.923   8.825  12.925
62138SOL    HW188247   8.901   8.888  12.857
62138SOL    HW288248   9.018   8.832  12.935
62139SOL     OW88249   8.243   8.272   1.278
62139SOL    HW188250   8.153   8.261   1.249
62139SOL    HW288251   8.286   8.189   1.258
62140SOL     OW88252  11.451   9.124  14.496
62140SOL    HW188253  11.430   9.107  14.405
62140SOL    HW288254  11.383   9.078  14.546
62141SOL     OW88255  12.180  10.036   3.538
62141SOL    HW188256  12.128   9.976   3.591
62141SOL    HW288257  12.218   9.981   3.470
62142SOL     OW88258   6.051  14.426   0.385
62142SOL    HW188259   6.052  14.412   0.480
62142SOL    HW288260   6.130  14.383   0.353
62143SOL     OW88261   3.056   8.795   1.223
62143SOL    HW188262   2.992   8.866   1.213
62143SOL    HW288263   3.004   8.715   1.214
62144SOL     OW88264  10.949   5.142   6.379
62144SOL    HW188265  10.922   5.112   6.466
62144SOL    HW288266  11.015   5.208   6.396
62145SOL     OW88267   0.517   3.781   4.652
62145SOL    HW188268   0.600   3.734   4.647
62145SOL    HW288269   0.454   3.724   4.607
62146SOL     OW88270   0.541   7.274   7.282
62146SOL    HW188271   0.525   7.320   7.365
62146SOL    HW288272   0.523   7.182   7.302
62147SOL     OW88273   7.713  10.844   6.021
62147SOL    HW188274   7.738  10.791   5.945
62147SOL    HW288275   7.638  10.799   6.058
62148SOL     OW88276  13.761  12.256  10.739
62148SOL    HW188277  13.786  12.346  10.717
62148SOL    HW288278  13.667  12.252  10.720
62149SOL     OW88279  12.210   2.839   6.964
62149SOL    HW188280  12.209   2.762   7.021
62149SOL    HW288281  12.194   2.804   6.877
62150SOL     OW88282  12.373  10.151   5.634
62150SOL    HW188283  12.400  10.223   5.577
62150SOL    HW288284  12.278  10.149   5.629
62151SOL     OW88285   9.524   4.082   0.539
62151SOL    HW188286   9.524   4.090   0.634
62151SOL    HW288287   9.516   3.988   0.522
62152SOL     OW88288   0.200  10.550  14.375
62152SOL    HW188289   0.179  10.458  14.386
62152SOL    HW288290   0.183  10.589  14.460
62153SOL     OW88291   4.377   7.003  12.938
62153SOL    HW188292   4.388   7.048  12.854
62153SOL    HW288293   4.395   6.911  12.918
62154SOL     OW88294   5.678  14.237   7.584
62154SOL    HW188295   5.640  14.298   7.647
62154SOL    HW288296   5.620  14.241   7.508
62155SOL     OW88297  11.072   6.645   2.552
62155SOL    HW188298  11.008   6.698   2.505
62155SOL    HW288299  11.151   6.699   2.553
62156SOL     OW88300   9.019  13.562   1.200
62156SOL    HW188301   9.035  13.597   1.112
62156SOL    HW288302   8.958  13.623   1.240
62157SOL     OW88303   1.227  10.240  10.032
62157SOL    HW188304   1.134  10.258  10.015
62157SOL    HW288305   1.229  10.208  10.122
62158SOL     OW88306   0.530   7.642  10.790
62158SOL    HW188307   0.441   7.621  10.819
62158SOL    HW288308   0.524   7.732  10.758
62159SOL     OW88309   7.459  12.932   2.424
62159SOL    HW188310   7.438  13.009   2.370
62159SOL    HW288311   7.386  12.926   2.486
62160SOL     OW88312   8.269   8.333   3.442
62160SOL    HW188313   8.219   8.279   3.381
62160SOL    HW288314   8.283   8.415   3.395
62161SOL     OW88315  12.257   3.605  14.337
62161SOL    HW188316  12.290   3.519  14.365
62161SOL    HW288317  12.327   3.640  14.281
62162SOL     OW88318   9.940   3.937  11.477
62162SOL    HW188319  10.004   3.891  11.423
62162SOL    HW288320   9.986   3.952  11.560
62163SOL     OW88321   4.724   9.157  14.136
62163SOL    HW188322   4.730   9.080  14.080
62163SOL    HW288323   4.739   9.231  14.076
62164SOL     OW88324   4.579   2.120   4.742
62164SOL    HW188325   4.583   2.080   4.829
62164SOL    HW288326   4.486   2.139   4.728
62165SOL     OW88327   0.675  12.561   9.409
62165SOL    HW188328   0.757  12.609   9.397
62165SOL    HW288329   0.699  12.469   9.402
62166SOL     OW88330   9.904  11.064   3.720
62166SOL    HW188331   9.995  11.065   3.690
62166SOL    HW288332   9.871  11.152   3.701
62167SOL     OW88333   7.929  11.459  14.650
62167SOL    HW188334   7.908  11.545  14.613
62167SOL    HW288335   7.878  11.398  14.597
62168SOL     OW88336   4.264   9.847   6.668
62168SOL    HW188337   4.253   9.889   6.583
62168SOL    HW288338   4.266   9.754   6.648
62169SOL     OW88339   0.009   1.024   8.453
62169SOL    HW188340  14.789   1.008   8.438
62169SOL    HW288341   0.051   0.940   8.436
62170SOL     OW88342   3.200   4.551   3.073
62170SOL    HW188343   3.215   4.573   3.165
62170SOL    HW288344   3.251   4.471   3.059
62171SOL     OW88345   8.349   7.240   6.031
62171SOL    HW188346   8.295   7.193   5.967
62171SOL    HW288347   8.286   7.269   6.097
62172SOL     OW88348  11.574  10.729   0.615
62172SOL    HW188349  11.525  10.646   0.619
62172SOL    HW288350  11.578  10.758   0.707
62173SOL     OW88351   0.887  14.058  12.550
62173SOL    HW188352   0.951  14.126  12.529
62173SOL    HW288353   0.923  14.016  12.628
62174SOL     OW88354  13.568   0.238  11.947
62174SOL    HW188355  13.591   0.149  11.972
62174SOL    HW288356  13.535   0.231  11.857
62175SOL     OW88357   4.650  13.546   6.748
62175SOL    HW188358   4.572  13.570   6.797
62175SOL    HW288359   4.675  13.626   6.702
62176SOL     OW88360  10.573  12.455  13.922
62176SOL    HW188361  10.667  12.467  13.931
62176SOL    HW288362  10.541  12.443  14.012
62177SOL     OW88363   2.201  11.043   1.065
62177SOL    HW188364   2.230  10.953   1.053
62177SOL    HW288365   2.108  11.042   1.041
62178SOL     OW88366   3.771  14.763  10.891
62178SOL    HW188367   3.737  14.785  10.805
62178SOL    HW288368   3.704  14.707  10.930
62179SOL     OW88369   7.848   7.982  10.842
62179SOL    HW188370   7.881   8.055  10.895
62179SOL    HW288371   7.921   7.921  10.838
62180SOL     OW88372   0.447   0.267   0.527
62180SOL    HW188373   0.355   0.285   0.509
62180SOL    HW288374   0.494   0.342   0.491
62181SOL     OW88375  14.457  11.579   7.365
62181SOL    HW188376  14.443  11.518   7.437
62181SOL    HW288377  14.474  11.663   7.407
62182SOL     OW88378  13.866   3.892  13.178
62182SOL    HW188379  13.919   3.840  13.239
62182SOL    HW288380  13.776   3.876  13.206
62183SOL     OW88381   7.224   1.332  10.077
62183SOL    HW188382   7.288   1.305  10.012
62183SOL    HW288383   7.198   1.251  10.121
62184SOL     OW88384   5.274   5.368  12.842
62184SOL    HW188385   5.339   5.315  12.796
62184SOL    HW288386   5.190   5.340  12.805
62185SOL     OW88387  10.648   8.987   7.960
62185SOL    HW188388  10.590   8.918   7.926
62185SOL    HW288389  10.722   8.986   7.900
62186SOL     OW88390   5.218   6.268  12.239
62186SOL    HW188391   5.148   6.297  12.180
62186SOL    HW288392   5.228   6.340  12.301
62187SOL     OW88393   6.114   9.623  14.281
62187SOL    HW188394   6.149   9.673  14.356
62187SOL    HW288395   6.019   9.625  14.293
62188SOL     OW88396   1.195   5.273  13.035
62188SOL    HW188397   1.127   5.340  13.038
62188SOL    HW288398   1.151   5.193  13.063
62189SOL     OW88399  10.398   3.801   1.324
62189SOL    HW188400  10.442   3.815   1.408
62189SOL    HW288401  10.416   3.881   1.274
62190SOL     OW88402   1.612   3.344   3.102
62190SOL    HW188403   1.597   3.284   3.029
62190SOL    HW288404   1.646   3.288   3.172
62191SOL     OW88405  12.661   0.890   1.491
62191SOL    HW188406  12.585   0.918   1.440
62191SOL    HW288407  12.719   0.849   1.426
62192SOL     OW88408  12.673  10.228   0.396
62192SOL    HW188409  12.622  10.213   0.316
62192SOL    HW288410  12.609  10.216   0.467
62193SOL     OW88411   4.277  13.076   7.408
62193SOL    HW188412   4.295  12.985   7.383
62193SOL    HW288413   4.187  13.075   7.440
62194SOL     OW88414   3.120  10.357  11.837
62194SOL    HW188415   3.085  10.310  11.762
62194SOL    HW288416   3.146  10.442  11.801
62195SOL     OW88417   6.880   4.374  14.812
62195SOL    HW188418   6.940   4.306  14.782
62195SOL    HW288419   6.932   4.426   0.000
62196SOL     OW88420  10.439  13.317  11.894
62196SOL    HW188421  10.378  13.356  11.958
62196SOL    HW288422  10.451  13.384  11.828
62197SOL     OW88423   2.052   4.821   0.728
62197SOL    HW188424   2.074   4.748   0.787
62197SOL    HW288425   1.962   4.844   0.750
62198SOL     OW88426  12.756   6.232   9.258
62198SOL    HW188427  12.681   6.255   9.202
62198SOL    HW288428  12.805   6.314   9.267
62199SOL     OW88429   7.263  11.862   9.798
62199SOL    HW188430   7.252  11.924   9.726
62199SOL    HW288431   7.233  11.909   9.876
62200SOL     OW88432   0.199   7.823   1.168
62200SOL    HW188433   0.211   7.729   1.182
62200SOL    HW288434   0.238   7.863   1.246
62201SOL     OW88435   3.724  13.906   7.607
62201SOL    HW188436   3.802  13.944   7.647
62201SOL    HW288437   3.714  13.954   7.525
62202SOL     OW88438  12.626   6.393   4.106
62202SOL    HW188439  12.571   6.470   4.118
62202SOL    HW288440  12.703   6.425   4.059
62203SOL     OW88441   4.291   0.595   6.622
62203SOL    HW188442   4.304   0.633   6.536
62203SOL    HW288443   4.248   0.511   6.605
62204SOL     OW88444   0.592   8.836   3.283
62204SOL    HW188445   0.687   8.839   3.270
62204SOL    HW288446   0.579   8.764   3.345
62205SOL     OW88447   9.976   6.200   0.304
62205SOL    HW188448   9.946   6.129   0.361
62205SOL    HW288449  10.072   6.195   0.310
62206SOL     OW88450   8.849   1.155   1.522
62206SOL    HW188451   8.786   1.178   1.590
62206SOL    HW288452   8.832   1.063   1.503
62207SOL     OW88453   1.702   5.353   5.097
62207SOL    HW188454   1.785   5.364   5.143
62207SOL    HW288455   1.725   5.307   5.016
62208SOL     OW88456   3.657   8.641  11.201
62208SOL    HW188457   3.620   8.573  11.144
62208SOL    HW288458   3.598   8.716  11.191
62209SOL     OW88459  11.752   3.503   5.445
62209SOL    HW188460  11.714   3.570   5.503
62209SOL    HW288461  11.750   3.543   5.358
62210SOL     OW88462   4.173  14.540  14.608
62210SOL    HW188463   4.255  14.491  14.600
62210SOL    HW288464   4.174  14.574  14.698
62211SOL     OW88465  11.802   5.774   3.953
62211SOL    HW188466  11.725   5.722   3.934
62211SOL    HW288467  11.773   5.839   4.017
62212SOL     OW88468   3.083   0.839  11.692
62212SOL    HW188469   3.146   0.831  11.620
62212SOL    HW288470   3.135   0.870  11.766
62213SOL     OW88471  14.332   3.467  13.328
62213SOL    HW188472  14.422   3.436  13.334
62213SOL    HW288473  14.289   3.433  13.407
62214SOL     OW88474   4.994   8.338  13.005
62214SOL    HW188475   4.952   8.274  13.062
62214SOL    HW288476   4.922   8.390  12.969
62215SOL     OW88477   9.358   6.718  13.467
62215SOL    HW188478   9.388   6.809  13.466
62215SOL    HW288479   9.384   6.686  13.553
62216SOL     OW88480  10.360   6.128   3.656
62216SOL    HW188481  10.354   6.088   3.569
62216SOL    HW288482  10.359   6.222   3.640
62217SOL     OW88483   8.095  14.702   4.866
62217SOL    HW188484   8.170  14.736   4.914
62217SOL    HW288485   8.096  14.608   4.883
62218SOL     OW88486   1.573   3.356   7.162
62218SOL    HW188487   1.498   3.308   7.128
62218SOL    HW288488   1.545   3.385   7.249
62219SOL     OW88489   6.198   7.657   7.705
62219SOL    HW188490   6.186   7.600   7.781
62219SOL    HW288491   6.111   7.690   7.685
62220SOL     OW88492   3.936   3.435   9.663
62220SOL    HW188493   3.953   3.477   9.747
62220SOL    HW288494   3.946   3.342   9.680
62221SOL     OW88495  11.257   7.531  12.567
62221SOL    HW188496  11.188   7.467  12.584
62221SOL    HW288497  11.304   7.539  12.650
62222SOL     OW88498   9.281  11.414   8.942
62222SOL    HW188499   9.347  11.349   8.966
62222SOL    HW288500   9.326  11.471   8.880
62223SOL     OW88501   0.251   8.914   8.438
62223SOL    HW188502   0.174   8.868   8.473
62223SOL    HW288503   0.218   8.961   8.361
62224SOL     OW88504   1.115   8.637   6.744
62224SOL    HW188505   1.141   8.717   6.790
62224SOL    HW288506   1.197   8.595   6.719
62225SOL     OW88507   1.202  10.796   6.715
62225SOL    HW188508   1.249  10.873   6.746
62225SOL    HW288509   1.192  10.811   6.621
62226SOL     OW88510   9.919  13.175  11.705
62226SOL    HW188511   9.839  13.226  11.717
62226SOL    HW288512   9.957  13.169  11.792
62227SOL     OW88513   7.762   7.104   9.224
62227SOL    HW188514   7.774   7.138   9.135
62227SOL    HW288515   7.680   7.143   9.254
62228SOL     OW88516  12.415   2.385  11.179
62228SOL    HW188517  12.478   2.315  11.200
62228SOL    HW288518  12.331   2.349  11.206
62229SOL     OW88519   1.360   9.453  13.634
62229SOL    HW188520   1.441   9.457  13.583
62229SOL    HW288521   1.337   9.544  13.650
62230SOL     OW88522   2.061  10.249  12.389
62230SOL    HW188523   2.108  10.305  12.451
62230SOL    HW288524   1.969  10.259  12.414
62231SOL     OW88525   0.173  12.851  11.924
62231SOL    HW188526   0.235  12.787  11.890
62231SOL    HW288527   0.197  12.862  12.016
62232SOL     OW88528   5.869   1.771   9.158
62232SOL    HW188529   5.781   1.806   9.149
62232SOL    HW288530   5.892   1.786   9.249
62233SOL     OW88531   1.941   8.162   6.649
62233SOL    HW188532   1.921   8.131   6.561
62233SOL    HW288533   1.856   8.173   6.691
62234SOL     OW88534   1.846   4.775   6.997
62234SOL    HW188535   1.759   4.815   7.003
62234SOL    HW288536   1.828   4.681   6.992
62235SOL     OW88537  11.632   6.002  10.165
62235SOL    HW188538  11.687   6.012  10.088
62235SOL    HW288539  11.554   5.958  10.134
62236SOL     OW88540   8.833   1.497   5.719
62236SOL    HW188541   8.764   1.467   5.659
62236SOL    HW288542   8.786   1.548   5.785
62237SOL     OW88543   5.168   7.841   7.652
62237SOL    HW188544   5.128   7.906   7.595
62237SOL    HW288545   5.170   7.761   7.600
62238SOL     OW88546  10.989   8.710   5.311
62238SOL    HW188547  11.059   8.749   5.363
62238SOL    HW288548  10.908   8.738   5.353
62239SOL     OW88549  11.933   8.128  12.508
62239SOL    HW188550  12.004   8.066  12.494
62239SOL    HW288551  11.951   8.167  12.594
62240SOL     OW88552   5.617  11.047   3.897
62240SOL    HW188553   5.556  11.033   3.969
62240SOL    HW288554   5.568  11.023   3.819
62241SOL     OW88555   4.678  12.819   0.957
62241SOL    HW188556   4.677  12.875   1.035
62241SOL    HW288557   4.593  12.835   0.915
62242SOL     OW88558  12.093  13.954  10.542
62242SOL    HW188559  12.094  14.036  10.592
62242SOL    HW288560  12.005  13.949  10.505
62243SOL     OW88561  10.932   3.538  12.539
62243SOL    HW188562  10.950   3.627  12.569
62243SOL    HW288563  10.843   3.541  12.504
62244SOL     OW88564   7.558   1.572   2.997
62244SOL    HW188565   7.635   1.515   3.001
62244SOL    HW288566   7.491   1.518   2.953
62245SOL     OW88567   6.110   3.247   9.677
62245SOL    HW188568   6.189   3.268   9.627
62245SOL    HW288569   6.056   3.326   9.670
62246SOL     OW88570   5.230  11.823   3.468
62246SOL    HW188571   5.170  11.754   3.495
62246SOL    HW288572   5.176  11.886   3.422
62247SOL     OW88573   2.385   7.111   7.112
62247SOL    HW188574   2.361   7.160   7.190
62247SOL    HW288575   2.463   7.061   7.137
62248SOL     OW88576  11.700  10.017   0.370
62248SOL    HW188577  11.793  10.018   0.350
62248SOL    HW288578  11.659  10.061   0.295
62249SOL     OW88579  13.984   6.359  13.828
62249SOL    HW188580  14.000   6.316  13.912
62249SOL    HW288581  13.893   6.389  13.833
62250SOL     OW88582   5.243   6.209   8.171
62250SOL    HW188583   5.281   6.296   8.182
62250SOL    HW288584   5.200   6.191   8.254
62251SOL     OW88585   5.654   2.594   6.199
62251SOL    HW188586   5.698   2.510   6.189
62251SOL    HW288587   5.707   2.655   6.147
62252SOL     OW88588   4.170  13.596   6.400
62252SOL    HW188589   4.083  13.576   6.434
62252SOL    HW288590   4.209  13.653   6.467
62253SOL     OW88591  11.848   7.320   7.308
62253SOL    HW188592  11.802   7.334   7.391
62253SOL    HW288593  11.786   7.348   7.241
62254SOL     OW88594   4.433   0.921   8.910
62254SOL    HW188595   4.368   0.990   8.897
62254SOL    HW288596   4.514   0.958   8.876
62255SOL     OW88597   7.394   0.834   5.380
62255SOL    HW188598   7.415   0.903   5.444
62255SOL    HW288599   7.299   0.837   5.371
62256SOL     OW88600   6.660   6.689  10.837
62256SOL    HW188601   6.690   6.600  10.858
62256SOL    HW288602   6.664   6.693  10.742
62257SOL     OW88603   1.107   8.377   5.907
62257SOL    HW188604   1.075   8.346   5.992
62257SOL    HW288605   1.106   8.472   5.914
62258SOL     OW88606  12.309   5.163   9.463
62258SOL    HW188607  12.315   5.254   9.492
62258SOL    HW288608  12.217   5.151   9.439
62259SOL     OW88609   3.405  10.156  11.312
62259SOL    HW188610   3.366  10.159  11.224
62259SOL    HW288611   3.401  10.246  11.343
62260SOL     OW88612   1.524   2.929   7.092
62260SOL    HW188613   1.519   3.010   7.142
62260SOL    HW288614   1.584   2.949   7.020
62261SOL     OW88615  11.741   8.046  14.035
62261SOL    HW188616  11.744   8.092  14.119
62261SOL    HW288617  11.749   7.954  14.058
62262SOL     OW88618   9.271   5.560  12.584
62262SOL    HW188619   9.355   5.546  12.628
62262SOL    HW288620   9.286   5.635  12.527
62263SOL     OW88621   6.490  14.622   8.359
62263SOL    HW188622   6.485  14.527   8.343
62263SOL    HW288623   6.402  14.646   8.389
62264SOL     OW88624  11.196   0.219  14.770
62264SOL    HW188625  11.203   0.217  14.674
62264SOL    HW288626  11.249   0.294  14.796
62265SOL     OW88627   1.459   9.426  10.035
62265SOL    HW188628   1.533   9.422   9.975
62265SOL    HW288629   1.472   9.508  10.083
62266SOL     OW88630  14.732  12.369  12.460
62266SOL    HW188631  14.746  12.313  12.384
62266SOL    HW288632  14.723  12.457  12.424
62267SOL     OW88633   6.198   4.064  12.714
62267SOL    HW188634   6.268   4.016  12.758
62267SOL    HW288635   6.190   4.022  12.629
62268SOL     OW88636   1.662  12.315   1.738
62268SOL    HW188637   1.755  12.319   1.717
62268SOL    HW288638   1.622  12.271   1.663
62269SOL     OW88639   5.026   7.156  10.794
62269SOL    HW188640   4.940   7.198  10.796
62269SOL    HW288641   5.084   7.219  10.836
62270SOL     OW88642  10.902  12.304   4.736
62270SOL    HW188643  10.890  12.397   4.721
62270SOL    HW288644  10.950  12.273   4.659
62271SOL     OW88645   5.423  14.589   5.855
62271SOL    HW188646   5.342  14.608   5.808
62271SOL    HW288647   5.395  14.545   5.935
62272SOL     OW88648   7.393  11.372   8.544
62272SOL    HW188649   7.413  11.294   8.595
62272SOL    HW288650   7.433  11.444   8.593
62273SOL     OW88651   2.700   3.610   8.916
62273SOL    HW188652   2.776   3.657   8.881
62273SOL    HW288653   2.727   3.519   8.919
62274SOL     OW88654   7.837  10.341   4.042
62274SOL    HW188655   7.860  10.303   3.957
62274SOL    HW288656   7.817  10.432   4.023
62275SOL     OW88657  13.004   4.272   2.681
62275SOL    HW188658  13.092   4.308   2.692
62275SOL    HW288659  12.986   4.281   2.588
62276SOL     OW88660  13.400   7.723  10.639
62276SOL    HW188661  13.429   7.793  10.698
62276SOL    HW288662  13.318   7.754  10.602
62277SOL     OW88663  14.690  11.269   2.189
62277SOL    HW188664  14.708  11.340   2.127
62277SOL    HW288665  14.621  11.304   2.246
62278SOL     OW88666   3.568   8.482  14.584
62278SOL    HW188667   3.517   8.462  14.663
62278SOL    HW288668   3.552   8.575  14.568
62279SOL     OW88669  13.402   0.958  14.097
62279SOL    HW188670  13.494   0.978  14.079
62279SOL    HW288671  13.402   0.864  14.118
62280SOL     OW88672   5.028   4.373   0.741
62280SOL    HW188673   5.037   4.284   0.774
62280SOL    HW288674   4.969   4.365   0.666
62281SOL     OW88675   3.116  11.461  12.510
62281SOL    HW188676   3.041  11.505  12.469
62281SOL    HW288677   3.134  11.513  12.588
62282SOL     OW88678   3.354   3.672   2.433
62282SOL    HW188679   3.407   3.715   2.499
62282SOL    HW288680   3.397   3.693   2.350
62283SOL     OW88681  10.757   2.155   6.349
62283SOL    HW188682  10.735   2.248   6.344
62283SOL    HW288683  10.735   2.130   6.439
62284SOL     OW88684   1.046  11.661   0.456
62284SOL    HW188685   1.055  11.642   0.363
62284SOL    HW288686   0.995  11.742   0.459
62285SOL     OW88687   0.183   2.810   9.100
62285SOL    HW188688   0.172   2.778   9.190
62285SOL    HW288689   0.216   2.899   9.111
62286SOL     OW88690   5.767  13.450  13.507
62286SOL    HW188691   5.767  13.521  13.572
62286SOL    HW288692   5.726  13.376  13.552
62287SOL     OW88693   6.491   8.566  13.898
62287SOL    HW188694   6.568   8.569  13.955
62287SOL    HW288695   6.517   8.508  13.826
62288SOL     OW88696   2.700  12.550  12.592
62288SOL    HW188697   2.654  12.606  12.654
62288SOL    HW288698   2.661  12.572  12.507
62289SOL     OW88699   1.809   1.896  13.955
62289SOL    HW188700   1.880   1.845  13.916
62289SOL    HW288701   1.783   1.846  14.032
62290SOL     OW88702   7.911   4.618   3.132
62290SOL    HW188703   7.888   4.592   3.043
62290SOL    HW288704   7.944   4.537   3.172
62291SOL     OW88705   4.461  14.853   3.353
62291SOL    HW188706   4.415  14.785   3.303
62291SOL    HW288707   4.548  14.857   3.313
62292SOL     OW88708  13.944   5.365  12.573
62292SOL    HW188709  13.862   5.400  12.608
62292SOL    HW288710  13.970   5.429  12.506
62293SOL     OW88711   8.295  12.456   6.710
62293SOL    HW188712   8.378  12.442   6.663
62293SOL    HW288713   8.234  12.395   6.670
62294SOL     OW88714   3.996   3.476   9.405
62294SOL    HW188715   3.978   3.457   9.497
62294SOL    HW288716   4.038   3.562   9.407
62295SOL     OW88717   0.887   7.469   6.501
62295SOL    HW188718   0.958   7.532   6.490
62295SOL    HW288719   0.871   7.435   6.413
62296SOL     OW88720  10.369   5.410   8.831
62296SOL    HW188721  10.427   5.345   8.791
62296SOL    HW288722  10.281   5.374   8.819
62297SOL     OW88723   3.189   1.470  12.251
62297SOL    HW188724   3.118   1.524  12.287
62297SOL    HW288725   3.255   1.467  12.320
62298SOL     OW88726   4.065  12.241   8.298
62298SOL    HW188727   3.971  12.221   8.300
62298SOL    HW288728   4.088  12.258   8.390
62299SOL     OW88729   7.464   9.898   7.754
62299SOL    HW188730   7.425   9.849   7.826
62299SOL    HW288731   7.495   9.979   7.794
62300SOL     OW88732  11.278  10.558   5.542
62300SOL    HW188733  11.309  10.615   5.612
62300SOL    HW288734  11.241  10.618   5.477
62301SOL     OW88735   5.404   0.869  14.550
62301SOL    HW188736   5.321   0.884  14.596
62301SOL    HW288737   5.411   0.942  14.489
62302SOL     OW88738  11.194  12.834   9.364
62302SOL    HW188739  11.211  12.816   9.272
62302SOL    HW288740  11.242  12.766   9.411
62303SOL     OW88741   3.121  12.547   6.456
62303SOL    HW188742   3.109  12.625   6.510
62303SOL    HW288743   3.142  12.580   6.369
62304SOL     OW88744  12.257  12.883  10.850
62304SOL    HW188745  12.314  12.928  10.787
62304SOL    HW288746  12.317  12.832  10.905
62305SOL     OW88747   2.110  10.097   4.027
62305SOL    HW188748   2.155  10.153   4.090
62305SOL    HW288749   2.079  10.023   4.079
62306SOL     OW88750   3.276   1.713   8.005
62306SOL    HW188751   3.253   1.699   8.097
62306SOL    HW288752   3.192   1.713   7.959
62307SOL     OW88753   1.826   3.186   7.383
62307SOL    HW188754   1.870   3.270   7.398
62307SOL    HW288755   1.875   3.123   7.436
62308SOL     OW88756  11.552  14.448   3.831
62308SOL    HW188757  11.574  14.541   3.831
62308SOL    HW288758  11.630  14.404   3.798
62309SOL     OW88759  12.773   6.487  14.732
62309SOL    HW188760  12.777   6.507  14.825
62309SOL    HW288761  12.680   6.485  14.712
62310SOL     OW88762   2.161   4.415   5.490
62310SOL    HW188763   2.098   4.439   5.557
62310SOL    HW288764   2.110   4.412   5.409
62311SOL     OW88765   4.028   9.421   1.684
62311SOL    HW188766   4.049   9.505   1.725
62311SOL    HW288767   4.111   9.373   1.684
62312SOL     OW88768   5.864   2.793  14.796
62312SOL    HW188769   5.846   2.716  14.743
62312SOL    HW288770   5.884   2.759   0.010
62313SOL     OW88771   1.693   8.647   8.117
62313SOL    HW188772   1.768   8.629   8.174
62313SOL    HW288773   1.731   8.658   8.030
62314SOL     OW88774   5.812   9.034   0.539
62314SOL    HW188775   5.843   9.038   0.629
62314SOL    HW288776   5.887   9.062   0.486
62315SOL     OW88777   0.874   8.376  12.970
62315SOL    HW188778   0.950   8.356  12.916
62315SOL    HW288779   0.831   8.449  12.925
62316SOL     OW88780   0.482  13.711   3.348
62316SOL    HW188781   0.526  13.781   3.396
62316SOL    HW288782   0.520  13.714   3.260
62317SOL     OW88783   6.142   3.071   2.916
62317SOL    HW188784   6.222   3.036   2.955
62317SOL    HW288785   6.078   3.000   2.926
62318SOL     OW88786  13.670  14.739  10.919
62318SOL    HW188787  13.684  14.833  10.930
62318SOL    HW288788  13.721  14.716  10.842
62319SOL     OW88789  13.072   7.578  12.558
62319SOL    HW188790  13.116   7.653  12.519
62319SOL    HW288791  13.143   7.526  12.597
62320SOL     OW88792   7.909   2.432   2.985
62320SOL    HW188793   7.880   2.432   2.894
62320SOL    HW288794   7.952   2.347   2.997
62321SOL     OW88795   7.558   0.419   6.220
62321SOL    HW188796   7.632   0.422   6.281
62321SOL    HW288797   7.522   0.331   6.228
62322SOL     OW88798   8.514   1.787   8.670
62322SOL    HW188799   8.490   1.850   8.738
62322SOL    HW288800   8.581   1.732   8.711
62323SOL     OW88801   3.358  13.343  10.468
62323SOL    HW188802   3.395  13.254  10.470
62323SOL    HW288803   3.317  13.350  10.382
62324SOL     OW88804   1.866   5.145   7.634
62324SOL    HW188805   1.865   5.100   7.719
62324SOL    HW288806   1.889   5.076   7.571
62325SOL     OW88807   3.812   0.747  12.647
62325SOL    HW188808   3.872   0.727  12.575
62325SOL    HW288809   3.757   0.669  12.655
62326SOL     OW88810  14.273   3.465   7.627
62326SOL    HW188811  14.196   3.468   7.685
62326SOL    HW288812  14.326   3.394   7.663
62327SOL     OW88813  13.122  10.175  11.672
62327SOL    HW188814  13.094  10.201  11.584
62327SOL    HW288815  13.100  10.082  11.677
62328SOL     OW88816   3.994  10.367  12.658
62328SOL    HW188817   4.046  10.350  12.579
62328SOL    HW288818   3.995  10.462  12.667
62329SOL     OW88819   1.373  11.635   2.961
62329SOL    HW188820   1.398  11.543   2.949
62329SOL    HW288821   1.444  11.684   2.919
62330SOL     OW88822   9.972  12.989   1.846
62330SOL    HW188823   9.921  13.066   1.820
62330SOL    HW288824  10.032  12.974   1.772
62331SOL     OW88825   3.305   6.196   7.425
62331SOL    HW188826   3.398   6.221   7.424
62331SOL    HW288827   3.299   6.133   7.496
62332SOL     OW88828   6.369   8.008  10.390
62332SOL    HW188829   6.391   8.096  10.361
62332SOL    HW288830   6.379   7.954  10.312
62333SOL     OW88831   3.482   4.498   9.246
62333SOL    HW188832   3.505   4.577   9.197
62333SOL    HW288833   3.402   4.467   9.204
62334SOL     OW88834   6.609   7.282  13.360
62334SOL    HW188835   6.696   7.272  13.322
62334SOL    HW288836   6.556   7.315  13.287
62335SOL     OW88837   4.961   5.304  13.045
62335SOL    HW188838   4.950   5.391  13.005
62335SOL    HW288839   4.967   5.244  12.971
62336SOL     OW88840   9.304  14.841   7.408
62336SOL    HW188841   9.231  14.796   7.366
62336SOL    HW288842   9.383  14.799   7.372
62337SOL     OW88843   1.767   9.674   3.140
62337SOL    HW188844   1.821   9.662   3.062
62337SOL    HW288845   1.733   9.587   3.160
62338SOL     OW88846   9.926  14.833   7.401
62338SOL    HW188847   9.995  14.834   7.335
62338SOL    HW288848   9.969  14.865   7.481
62339SOL     OW88849  10.923   2.873   9.613
62339SOL    HW188850  10.916   2.939   9.544
62339SOL    HW288851  11.016   2.854   9.620
62340SOL     OW88852   2.516  14.232   3.964
62340SOL    HW188853   2.426  14.202   3.952
62340SOL    HW288854   2.523  14.250   4.057
62341SOL     OW88855   4.314  13.515   2.107
62341SOL    HW188856   4.406  13.543   2.113
62341SOL    HW288857   4.284  13.551   2.023
62342SOL     OW88858  11.501  12.422   8.319
62342SOL    HW188859  11.509  12.462   8.406
62342SOL    HW288860  11.540  12.486   8.259
62343SOL     OW88861  12.203   9.186  12.628
62343SOL    HW188862  12.163   9.143  12.553
62343SOL    HW288863  12.253   9.117  12.671
62344SOL     OW88864  13.357   9.894   4.872
62344SOL    HW188865  13.419   9.927   4.938
62344SOL    HW288866  13.411   9.883   4.793
62345SOL     OW88867   8.222  14.844   8.110
62345SOL    HW188868   8.256  14.799   8.187
62345SOL    HW288869   8.183  14.774   8.057
62346SOL     OW88870  10.498  14.868   8.730
62346SOL    HW188871  10.564  14.834   8.670
62346SOL    HW288872  10.538  14.859   8.817
62347SOL     OW88873   6.357   5.648   7.456
62347SOL    HW188874   6.348   5.618   7.365
62347SOL    HW288875   6.417   5.585   7.496
62348SOL     OW88876  13.948   0.060  11.135
62348SOL    HW188877  13.862   0.069  11.094
62348SOL    HW288878  13.929   0.054  11.229
62349SOL     OW88879   6.391   2.195  13.629
62349SOL    HW188880   6.434   2.266  13.582
62349SOL    HW288881   6.303   2.227  13.646
62350SOL     OW88882   4.420   7.096   4.254
62350SOL    HW188883   4.336   7.068   4.215
62350SOL    HW288884   4.441   7.026   4.316
62351SOL     OW88885   7.089   7.678   3.082
62351SOL    HW188886   7.086   7.583   3.092
62351SOL    HW288887   7.120   7.692   2.992
62352SOL     OW88888   7.515   5.590   5.959
62352SOL    HW188889   7.420   5.594   5.967
62352SOL    HW288890   7.532   5.616   5.868
62353SOL     OW88891   9.725   5.530   0.613
62353SOL    HW188892   9.653   5.484   0.657
62353SOL    HW288893   9.753   5.469   0.544
62354SOL     OW88894   9.928   6.012   9.041
62354SOL    HW188895   9.985   6.085   9.015
62354SOL    HW288896   9.933   6.010   9.136
62355SOL     OW88897   5.348   4.909   6.706
62355SOL    HW188898   5.313   4.887   6.793
62355SOL    HW288899   5.369   5.003   6.712
62356SOL     OW88900  11.342  10.903   5.603
62356SOL    HW188901  11.405  10.942   5.542
62356SOL    HW288902  11.268  10.878   5.547
62357SOL     OW88903   8.743  14.258  12.107
62357SOL    HW188904   8.795  14.181  12.086
62357SOL    HW288905   8.791  14.331  12.067
62358SOL     OW88906   5.437  12.664   7.082
62358SOL    HW188907   5.446  12.662   6.987
62358SOL    HW288908   5.346  12.690   7.097
62359SOL     OW88909   2.391   5.865   7.337
62359SOL    HW188910   2.447   5.795   7.304
62359SOL    HW288911   2.305   5.847   7.300
62360SOL     OW88912   9.942   4.501   8.430
62360SOL    HW188913   9.893   4.582   8.443
62360SOL    HW288914   9.947   4.491   8.335
62361SOL     OW88915  10.258   9.697  12.760
62361SOL    HW188916  10.323   9.641  12.803
62361SOL    HW288917  10.298   9.720  12.676
62362SOL     OW88918  12.597   0.421   3.490
62362SOL    HW188919  12.663   0.489   3.503
62362SOL    HW288920  12.634   0.343   3.531
62363SOL     OW88921   4.052   8.330   6.732
62363SOL    HW188922   4.003   8.349   6.811
62363SOL    HW288923   4.112   8.259   6.757
62364SOL     OW88924   3.037   2.427   7.774
62364SOL    HW188925   2.954   2.460   7.739
62364SOL    HW288926   3.099   2.499   7.761
62365SOL     OW88927   7.204  12.434  10.507
62365SOL    HW188928   7.216  12.343  10.534
62365SOL    HW288929   7.286  12.456  10.462
62366SOL     OW88930  14.579   0.440   4.593
62366SOL    HW188931  14.601   0.527   4.559
62366SOL    HW288932  14.486   0.446   4.616
62367SOL     OW88933   9.813   6.556   5.330
62367SOL    HW188934   9.862   6.477   5.311
62367SOL    HW288935   9.840   6.618   5.263
62368SOL     OW88936   3.089   0.842  13.427
62368SOL    HW188937   3.156   0.792  13.380
62368SOL    HW288938   3.106   0.933  13.404
62369SOL     OW88939   7.322   1.588  10.887
62369SOL    HW188940   7.363   1.663  10.844
62369SOL    HW288941   7.394   1.529  10.906
62370SOL     OW88942  13.553   9.032  11.428
62370SOL    HW188943  13.496   8.959  11.402
62370SOL    HW288944  13.574   9.076  11.346
62371SOL     OW88945  13.774  11.229   7.291
62371SOL    HW188946  13.709  11.160   7.279
62371SOL    HW288947  13.841  11.211   7.224
62372SOL     OW88948   0.962  14.339  12.475
62372SOL    HW188949   1.029  14.407  12.487
62372SOL    HW288950   0.933  14.350  12.385
62373SOL     OW88951   1.952   2.294   5.807
62373SOL    HW188952   1.990   2.378   5.834
62373SOL    HW288953   1.981   2.232   5.874
62374SOL     OW88954   4.636  12.189   5.869
62374SOL    HW188955   4.543  12.184   5.844
62374SOL    HW288956   4.683  12.160   5.792
62375SOL     OW88957   0.704   7.691   3.941
62375SOL    HW188958   0.707   7.736   4.026
62375SOL    HW288959   0.633   7.628   3.950
62376SOL     OW88960   3.174   8.548  14.633
62376SOL    HW188961   3.183   8.627  14.579
62376SOL    HW288962   3.257   8.502  14.620
62377SOL     OW88963   0.992   6.951   3.067
62377SOL    HW188964   1.005   6.886   3.136
62377SOL    HW288965   0.910   6.924   3.025
62378SOL     OW88966   4.530   3.602  10.433
62378SOL    HW188967   4.527   3.507  10.449
62378SOL    HW288968   4.569   3.611  10.346
62379SOL     OW88969   0.570   6.123   4.064
62379SOL    HW188970   0.479   6.125   4.093
62379SOL    HW288971   0.583   6.034   4.031
62380SOL     OW88972  10.789  12.876   0.558
62380SOL    HW188973  10.770  12.786   0.531
62380SOL    HW288974  10.703  12.914   0.579
62381SOL     OW88975  14.508   0.524   2.498
62381SOL    HW188976  14.463   0.442   2.516
62381SOL    HW288977  14.594   0.498   2.464
62382SOL     OW88978   1.745  13.849  14.433
62382SOL    HW188979   1.727  13.862  14.527
62382SOL    HW288980   1.826  13.898  14.418
62383SOL     OW88981  11.860  13.317  12.952
62383SOL    HW188982  11.871  13.228  12.984
62383SOL    HW288983  11.938  13.333  12.898
62384SOL     OW88984   9.676   4.952   1.977
62384SOL    HW188985   9.681   5.012   1.903
62384SOL    HW288986   9.765   4.951   2.014
62385SOL     OW88987   3.494   3.625   1.221
62385SOL    HW188988   3.527   3.689   1.284
62385SOL    HW288989   3.401   3.646   1.212
62386SOL     OW88990  12.968  11.509   0.674
62386SOL    HW188991  13.014  11.581   0.630
62386SOL    HW288992  13.038  11.450   0.703
62387SOL     OW88993   6.155   6.046   0.499
62387SOL    HW188994   6.103   6.001   0.565
62387SOL    HW288995   6.169   6.134   0.534
62388SOL     OW88996   8.439   4.392  14.116
62388SOL    HW188997   8.361   4.347  14.084
62388SOL    HW288998   8.494   4.322  14.153
62389SOL     OW88999   1.164   4.262   9.030
62389SOL    HW189000   1.217   4.209   9.089
62389SOL    HW289001   1.095   4.299   9.085
62390SOL     OW89002  13.121  12.356   6.225
62390SOL    HW189003  13.164  12.343   6.309
62390SOL    HW289004  13.081  12.271   6.205
62391SOL     OW89005   9.970   6.359   1.915
62391SOL    HW189006   9.984   6.338   1.823
62391SOL    HW289007   9.903   6.427   1.914
62392SOL     OW89008  13.647   5.301   9.580
62392SOL    HW189009  13.645   5.380   9.635
62392SOL    HW289010  13.715   5.319   9.515
62393SOL     OW89011   3.690   5.246   4.313
62393SOL    HW189012   3.769   5.262   4.261
62393SOL    HW289013   3.664   5.157   4.290
62394SOL     OW89014   3.062   1.464  14.611
62394SOL    HW189015   3.105   1.548  14.593
62394SOL    HW289016   3.010   1.480  14.689
62395SOL     OW89017   7.381  13.234   9.560
62395SOL    HW189018   7.356  13.277   9.641
62395SOL    HW289019   7.470  13.264   9.542
62396SOL     OW89020   4.976   4.450   7.717
62396SOL    HW189021   4.956   4.543   7.714
62396SOL    HW289022   4.908   4.409   7.663
62397SOL     OW89023  13.498   0.810  11.525
62397SOL    HW189024  13.417   0.837  11.568
62397SOL    HW289025  13.515   0.722  11.560
62398SOL     OW89026   4.498   6.690  11.594
62398SOL    HW189027   4.411   6.716  11.626
62398SOL    HW289028   4.512   6.603  11.631
62399SOL     OW89029  13.314  10.184   8.060
62399SOL    HW189030  13.320  10.112   8.124
62399SOL    HW289031  13.405  10.210   8.045
62400SOL     OW89032  10.816   5.322   7.144
62400SOL    HW189033  10.813   5.246   7.202
62400SOL    HW289034  10.871   5.385   7.190
62401SOL     OW89035   1.280   7.321  11.476
62401SOL    HW189036   1.335   7.372  11.536
62401SOL    HW289037   1.190   7.337  11.506
62402SOL     OW89038   0.897   2.004   5.333
62402SOL    HW189039   0.940   2.014   5.417
62402SOL    HW289040   0.967   2.017   5.268
62403SOL     OW89041   5.040  12.787   9.320
62403SOL    HW189042   4.998  12.767   9.236
62403SOL    HW289043   5.131  12.759   9.309
62404SOL     OW89044   2.926   1.587   0.536
62404SOL    HW189045   2.970   1.540   0.465
62404SOL    HW289046   2.855   1.634   0.493
62405SOL     OW89047  14.190   7.297   4.468
62405SOL    HW189048  14.244   7.360   4.516
62405SOL    HW289049  14.213   7.311   4.376
62406SOL     OW89050   0.059  12.409  10.378
62406SOL    HW189051   0.097  12.322  10.365
62406SOL    HW289052  14.842  12.392  10.407
62407SOL     OW89053   1.365   4.619   1.158
62407SOL    HW189054   1.310   4.690   1.189
62407SOL    HW289055   1.454   4.648   1.175
62408SOL     OW89056   0.231  11.668  11.423
62408SOL    HW189057   0.257  11.759  11.435
62408SOL    HW289058   0.194  11.642  11.508
62409SOL     OW89059   4.773   0.938   2.997
62409SOL    HW189060   4.801   0.969   2.911
62409SOL    HW289061   4.832   0.983   3.058
62410SOL     OW89062  10.537   0.250  11.553
62410SOL    HW189063  10.599   0.314  11.518
62410SOL    HW289064  10.590   0.195  11.610
62411SOL     OW89065  14.329  12.775   3.450
62411SOL    HW189066  14.379  12.747   3.373
62411SOL    HW289067  14.351  12.867   3.460
62412SOL     OW89068   0.854  11.492  11.473
62412SOL    HW189069   0.922  11.471  11.408
62412SOL    HW289070   0.869  11.585  11.494
62413SOL     OW89071   1.513  10.468  10.550
62413SOL    HW189072   1.528  10.562  10.542
62413SOL    HW289073   1.448  10.448  10.482
62414SOL     OW89074   2.760   1.856   4.232
62414SOL    HW189075   2.673   1.890   4.211
62414SOL    HW289076   2.819   1.929   4.214
62415SOL     OW89077  13.937   7.990  12.985
62415SOL    HW189078  13.855   7.943  12.974
62415SOL    HW289079  14.003   7.922  12.996
62416SOL     OW89080   7.819   6.162   3.294
62416SOL    HW189081   7.887   6.149   3.360
62416SOL    HW289082   7.834   6.092   3.230
62417SOL     OW89083  12.880   4.744  14.436
62417SOL    HW189084  12.884   4.707  14.348
62417SOL    HW289085  12.791   4.724  14.466
62418SOL     OW89086   3.997  12.269   3.023
62418SOL    HW189087   3.979  12.213   2.947
62418SOL    HW289088   3.949  12.227   3.095
62419SOL     OW89089   8.688   2.271   2.808
62419SOL    HW189090   8.780   2.275   2.834
62419SOL    HW289091   8.675   2.347   2.752
62420SOL     OW89092   8.324  12.223   0.934
62420SOL    HW189093   8.282  12.219   1.020
62420SOL    HW289094   8.384  12.148   0.934
62421SOL     OW89095  13.669  13.287   3.990
62421SOL    HW189096  13.610  13.334   4.048
62421SOL    HW289097  13.689  13.206   4.037
62422SOL     OW89098  10.547   0.296   2.168
62422SOL    HW189099  10.639   0.271   2.163
62422SOL    HW289100  10.528   0.298   2.262
62423SOL     OW89101  11.084   3.866  10.604
62423SOL    HW189102  11.141   3.871  10.527
62423SOL    HW289103  11.135   3.905  10.675
62424SOL     OW89104   1.929  12.009   4.758
62424SOL    HW189105   1.928  12.104   4.748
62424SOL    HW289106   2.015  11.991   4.796
62425SOL     OW89107   0.570   5.014  12.605
62425SOL    HW189108   0.477   5.017  12.628
62425SOL    HW289109   0.588   4.921  12.591
62426SOL     OW89110   3.246   3.890   9.341
62426SOL    HW189111   3.276   3.833   9.270
62426SOL    HW289112   3.311   3.879   9.410
62427SOL     OW89113   6.258  13.570   9.508
62427SOL    HW189114   6.171  13.532   9.517
62427SOL    HW289115   6.242  13.663   9.489
62428SOL     OW89116   5.535   9.209  13.131
62428SOL    HW189117   5.539   9.134  13.190
62428SOL    HW289118   5.443   9.213  13.104
62429SOL     OW89119  12.500  11.387   0.290
62429SOL    HW189120  12.572  11.446   0.268
62429SOL    HW289121  12.491  11.394   0.385
62430SOL     OW89122   4.335   3.459   0.712
62430SOL    HW189123   4.288   3.459   0.628
62430SOL    HW289124   4.354   3.366   0.728
62431SOL     OW89125   9.870   7.416   1.506
62431SOL    HW189126   9.808   7.397   1.435
62431SOL    HW289127   9.841   7.360   1.578
62432SOL     OW89128   5.968   7.526  13.396
62432SOL    HW189129   5.909   7.584  13.348
62432SOL    HW289130   6.015   7.584  13.456
62433SOL     OW89131   6.374   0.431  12.393
62433SOL    HW189132   6.285   0.399  12.406
62433SOL    HW289133   6.421   0.403  12.472
62434SOL     OW89134   8.040   7.917   5.222
62434SOL    HW189135   7.968   7.862   5.251
62434SOL    HW289136   8.065   7.967   5.299
62435SOL     OW89137   3.459   6.154  14.709
62435SOL    HW189138   3.511   6.217  14.658
62435SOL    HW289139   3.417   6.099  14.644
62436SOL     OW89140  10.002   7.159   7.615
62436SOL    HW189141   9.912   7.160   7.581
62436SOL    HW289142   9.999   7.096   7.687
62437SOL     OW89143  11.407  11.664   3.716
62437SOL    HW189144  11.316  11.658   3.745
62437SOL    HW289145  11.437  11.574   3.710
62438SOL     OW89146  11.536   2.884  10.335
62438SOL    HW189147  11.564   2.879  10.244
62438SOL    HW289148  11.449   2.925  10.331
62439SOL     OW89149  14.034   2.530   7.181
62439SOL    HW189150  13.950   2.555   7.142
62439SOL    HW289151  14.022   2.439   7.209
62440SOL     OW89152   5.838   6.675   5.355
62440SOL    HW189153   5.883   6.658   5.272
62440SOL    HW289154   5.868   6.604   5.413
62441SOL     OW89155   9.832  14.182   7.611
62441SOL    HW189156   9.872  14.174   7.698
62441SOL    HW289157   9.878  14.255   7.570
62442SOL     OW89158   3.371   8.142  14.444
62442SOL    HW189159   3.401   8.224  14.405
62442SOL    HW289160   3.336   8.167  14.530
62443SOL     OW89161  14.759   6.243  13.649
62443SOL    HW189162  14.809   6.258  13.568
62443SOL    HW289163  14.678   6.293  13.636
62444SOL     OW89164   7.742  14.713   1.234
62444SOL    HW189165   7.663  14.701   1.183
62444SOL    HW289166   7.753  14.808   1.240
62445SOL     OW89167   9.761   2.482  10.435
62445SOL    HW189168   9.703   2.503  10.363
62445SOL    HW289169   9.703   2.469  10.510
62446SOL     OW89170   1.805   6.834   5.661
62446SOL    HW189171   1.772   6.761   5.608
62446SOL    HW289172   1.744   6.840   5.734
62447SOL     OW89173   0.447   0.566  13.392
62447SOL    HW189174   0.399   0.512  13.329
62447SOL    HW289175   0.407   0.546  13.476
62448SOL     OW89176  13.827   2.623   8.390
62448SOL    HW189177  13.783   2.626   8.475
62448SOL    HW289178  13.771   2.676   8.333
62449SOL     OW89179  13.804   0.469   1.277
62449SOL    HW189180  13.875   0.428   1.229
62449SOL    HW289181  13.805   0.426   1.363
62450SOL     OW89182  11.790   2.621   8.244
62450SOL    HW189183  11.832   2.589   8.165
62450SOL    HW289184  11.851   2.599   8.315
62451SOL     OW89185  10.878   2.539   6.525
62451SOL    HW189186  10.954   2.588   6.494
62451SOL    HW289187  10.914   2.475   6.587
62452SOL     OW89188  10.307   4.264   9.618
62452SOL    HW189189  10.338   4.218   9.696
62452SOL    HW289190  10.214   4.280   9.634
62453SOL     OW89191  11.407   9.704  14.718
62453SOL    HW189192  11.479   9.646  14.693
62453SOL    HW289193  11.329   9.648  14.718
62454SOL     OW89194   8.339  10.526  10.244
62454SOL    HW189195   8.365  10.452  10.299
62454SOL    HW289196   8.257  10.498  10.202
62455SOL     OW89197  14.176   9.719   3.971
62455SOL    HW189198  14.266   9.692   3.989
62455SOL    HW289199  14.185   9.793   3.912
62456SOL     OW89200   3.278  12.299  13.512
62456SOL    HW189201   3.247  12.320  13.600
62456SOL    HW289202   3.345  12.365  13.494
62457SOL     OW89203   7.905  13.835   2.267
62457SOL    HW189204   7.950  13.850   2.184
62457SOL    HW289205   7.849  13.912   2.278
62458SOL     OW89206   7.221   5.979   5.414
62458SOL    HW189207   7.206   6.073   5.418
62458SOL    HW289208   7.137   5.942   5.387
62459SOL     OW89209  12.197  13.143   2.302
62459SOL    HW189210  12.112  13.131   2.262
62459SOL    HW289211  12.180  13.193   2.382
62460SOL     OW89212   4.919  12.373   1.728
62460SOL    HW189213   4.859  12.447   1.715
62460SOL    HW289214   4.880  12.301   1.677
62461SOL     OW89215   9.303   1.482   6.074
62461SOL    HW189216   9.275   1.534   5.999
62461SOL    HW289217   9.396   1.464   6.058
62462SOL     OW89218  10.776  14.376   3.312
62462SOL    HW189219  10.750  14.468   3.308
62462SOL    HW289220  10.865  14.378   3.347
62463SOL     OW89221   6.200   7.978  12.460
62463SOL    HW189222   6.141   8.041  12.503
62463SOL    HW289223   6.166   7.971  12.371
62464SOL     OW89224   5.768   7.368  13.257
62464SOL    HW189225   5.801   7.444  13.306
62464SOL    HW289226   5.817   7.294  13.292
62465SOL     OW89227   3.883  10.409   6.294
62465SOL    HW189228   3.848  10.498   6.288
62465SOL    HW289229   3.831  10.367   6.363
62466SOL     OW89230   1.015  12.585  13.219
62466SOL    HW189231   0.981  12.675  13.214
62466SOL    HW289232   1.075  12.587  13.293
62467SOL     OW89233  11.260   2.708  12.316
62467SOL    HW189234  11.284   2.787  12.365
62467SOL    HW289235  11.266   2.637  12.380
62468SOL     OW89236   5.694  13.875  12.375
62468SOL    HW189237   5.707  13.906  12.285
62468SOL    HW289238   5.604  13.845  12.377
62469SOL     OW89239  11.168  14.428  12.085
62469SOL    HW189240  11.232  14.399  12.151
62469SOL    HW289241  11.200  14.389  12.003
62470SOL     OW89242  14.216   2.984  11.583
62470SOL    HW189243  14.199   2.903  11.632
62470SOL    HW289244  14.291   3.023  11.628
62471SOL     OW89245  12.706   0.126   8.066
62471SOL    HW189246  12.702   0.176   7.985
62471SOL    HW289247  12.760   0.049   8.045
62472SOL     OW89248  12.722   2.042  11.126
62472SOL    HW189249  12.808   2.005  11.147
62472SOL    HW289250  12.739   2.133  11.104
62473SOL     OW89251   3.654  14.285   1.243
62473SOL    HW189252   3.632  14.203   1.286
62473SOL    HW289253   3.667  14.347   1.316
62474SOL     OW89254  13.542   9.515   2.813
62474SOL    HW189255  13.469   9.470   2.856
62474SOL    HW289256  13.619   9.492   2.864
62475SOL     OW89257  14.037   2.264   5.308
62475SOL    HW189258  14.050   2.359   5.307
62475SOL    HW289259  14.013   2.244   5.398
62476SOL     OW89260   4.819   6.064  11.705
62476SOL    HW189261   4.762   6.116  11.762
62476SOL    HW289262   4.852   6.126  11.641
62477SOL     OW89263   4.264   0.683  12.244
62477SOL    HW189264   4.246   0.776  12.229
62477SOL    HW289265   4.187   0.638  12.210
62478SOL     OW89266  13.384   6.563   5.759
62478SOL    HW189267  13.352   6.476   5.782
62478SOL    HW289268  13.347   6.621   5.826
62479SOL     OW89269   5.922   8.208  10.732
62479SOL    HW189270   5.888   8.215  10.643
62479SOL    HW289271   5.961   8.294  10.749
62480SOL     OW89272  12.549   7.790  14.606
62480SOL    HW189273  12.590   7.850  14.543
62480SOL    HW289274  12.622   7.741  14.644
62481SOL     OW89275   3.873   1.126   4.190
62481SOL    HW189276   3.855   1.091   4.103
62481SOL    HW289277   3.934   1.199   4.174
62482SOL     OW89278   6.667   1.935  12.754
62482SOL    HW189279   6.705   1.868  12.696
62482SOL    HW289280   6.651   2.010  12.696
62483SOL     OW89281   7.619   6.072   1.794
62483SOL    HW189282   7.668   5.995   1.766
62483SOL    HW289283   7.566   6.096   1.718
62484SOL     OW89284   4.059   0.711  11.044
62484SOL    HW189285   3.973   0.748  11.065
62484SOL    HW289286   4.114   0.733  11.119
62485SOL     OW89287  13.361   6.889   8.914
62485SOL    HW189288  13.278   6.870   8.957
62485SOL    HW289289  13.347   6.862   8.823
62486SOL     OW89290   4.221  11.676   0.516
62486SOL    HW189291   4.149  11.731   0.546
62486SOL    HW289292   4.180  11.597   0.482
62487SOL     OW89293   3.385  11.836  10.490
62487SOL    HW189294   3.430  11.906  10.539
62487SOL    HW289295   3.293  11.860  10.494
62488SOL     OW89296   9.668   8.089   4.030
62488SOL    HW189297   9.719   8.015   4.062
62488SOL    HW289298   9.577   8.066   4.049
62489SOL     OW89299  13.333   1.849   9.898
62489SOL    HW189300  13.281   1.821   9.973
62489SOL    HW289301  13.307   1.940   9.883
62490SOL     OW89302   4.318   4.220  14.872
62490SOL    HW189303   4.369   4.225  14.791
62490SOL    HW289304   4.228   4.204  14.843
62491SOL     OW89305   9.578   5.544   5.666
62491SOL    HW189306   9.489   5.548   5.702
62491SOL    HW289307   9.627   5.611   5.715
62492SOL     OW89308   1.890  14.112   1.460
62492SOL    HW189309   1.912  14.040   1.400
62492SOL    HW289310   1.799  14.134   1.439
62493SOL     OW89311   2.313   6.213   3.173
62493SOL    HW189312   2.390   6.192   3.225
62493SOL    HW289313   2.259   6.267   3.230
62494SOL     OW89314  13.356   0.778   7.536
62494SOL    HW189315  13.371   0.771   7.442
62494SOL    HW289316  13.359   0.873   7.553
62495SOL     OW89317  12.834  12.646   3.927
62495SOL    HW189318  12.792  12.645   3.841
62495SOL    HW289319  12.791  12.717   3.974
62496SOL     OW89320   5.592   4.675   9.281
62496SOL    HW189321   5.551   4.634   9.357
62496SOL    HW289322   5.519   4.699   9.224
62497SOL     OW89323   9.546   6.367  14.599
62497SOL    HW189324   9.502   6.330  14.676
62497SOL    HW289325   9.616   6.305  14.579
62498SOL     OW89326  12.412   8.117   8.951
62498SOL    HW189327  12.363   8.165   8.884
62498SOL    HW289328  12.492   8.169   8.963
62499SOL     OW89329  11.448   7.683   9.559
62499SOL    HW189330  11.484   7.602   9.594
62499SOL    HW289331  11.415   7.659   9.472
62500SOL     OW89332   4.771   0.516  14.493
62500SOL    HW189333   4.856   0.504  14.453
62500SOL    HW289334   4.763   0.443  14.556
62501SOL     OW89335  11.095   3.888   9.843
62501SOL    HW189336  11.083   3.963   9.784
62501SOL    HW289337  11.155   3.830   9.796
62502SOL     OW89338   4.932   0.669   7.279
62502SOL    HW189339   4.880   0.600   7.322
62502SOL    HW289340   5.023   0.640   7.289
62503SOL     OW89341   9.377   3.163  12.654
62503SOL    HW189342   9.423   3.219  12.592
62503SOL    HW289343   9.357   3.220  12.728
62504SOL     OW89344  11.349  10.996   9.490
62504SOL    HW189345  11.359  10.943   9.569
62504SOL    HW289346  11.255  10.998   9.474
62505SOL     OW89347   8.877   3.710   7.306
62505SOL    HW189348   8.818   3.753   7.368
62505SOL    HW289349   8.938   3.779   7.279
62506SOL     OW89350  14.679   5.769  13.783
62506SOL    HW189351  14.612   5.740  13.721
62506SOL    HW289352  14.745   5.812  13.728
62507SOL     OW89353   1.734  13.396   1.859
62507SOL    HW189354   1.808  13.356   1.814
62507SOL    HW289355   1.698  13.326   1.914
62508SOL     OW89356  12.425   4.760  11.328
62508SOL    HW189357  12.515   4.784  11.349
62508SOL    HW289358  12.377   4.773  11.409
62509SOL     OW89359   2.057   8.830  11.874
62509SOL    HW189360   2.115   8.764  11.913
62509SOL    HW289361   1.986   8.779  11.836
62510SOL     OW89362   7.937   9.367   1.812
62510SOL    HW189363   7.876   9.294   1.812
62510SOL    HW289364   7.897   9.432   1.755
62511SOL     OW89365   2.985   6.838  12.327
62511SOL    HW189366   3.054   6.845  12.393
62511SOL    HW289367   2.905   6.824  12.377
62512SOL     OW89368   3.850   9.271  11.065
62512SOL    HW189369   3.784   9.286  11.133
62512SOL    HW289370   3.921   9.226  11.110
62513SOL     OW89371  10.941   8.165  12.900
62513SOL    HW189372  11.005   8.208  12.957
62513SOL    HW289373  10.862   8.219  12.908
62514SOL     OW89374   8.972   2.969   6.903
62514SOL    HW189375   8.918   3.029   6.851
62514SOL    HW289376   8.983   2.892   6.847
62515SOL     OW89377   2.993  11.829  10.868
62515SOL    HW189378   3.082  11.796  10.878
62515SOL    HW289379   2.962  11.790  10.787
62516SOL     OW89380   3.743   5.852   2.126
62516SOL    HW189381   3.820   5.883   2.078
62516SOL    HW289382   3.773   5.771   2.168
62517SOL     OW89383   5.044  14.133  14.346
62517SOL    HW189384   4.981  14.163  14.280
62517SOL    HW289385   5.067  14.045  14.319
62518SOL     OW89386   0.864   6.789  13.480
62518SOL    HW189387   0.869   6.884  13.473
62518SOL    HW289388   0.842   6.773  13.572
62519SOL     OW89389   8.421   8.376  13.748
62519SOL    HW189390   8.360   8.428  13.801
62519SOL    HW289391   8.408   8.408  13.659
62520SOL     OW89392   6.603  10.743   2.154
62520SOL    HW189393   6.669  10.798   2.112
62520SOL    HW289394   6.555  10.802   2.211
62521SOL     OW89395   7.458   1.794  13.211
62521SOL    HW189396   7.371   1.804  13.173
62521SOL    HW289397   7.450   1.831  13.299
62522SOL     OW89398  14.769  11.019  14.705
62522SOL    HW189399  14.697  11.035  14.644
62522SOL    HW289400  14.736  10.948  14.761
62523SOL     OW89401   0.412   4.920  13.159
62523SOL    HW189402   0.399   5.009  13.193
62523SOL    HW289403   0.341   4.909  13.095
62524SOL     OW89404   1.798   0.800  10.570
62524SOL    HW189405   1.795   0.862  10.643
62524SOL    HW289406   1.754   0.722  10.603
62525SOL     OW89407  14.779   6.790   8.589
62525SOL    HW189408  14.804   6.761   8.501
62525SOL    HW289409  14.683   6.784   8.590
62526SOL     OW89410   2.306  11.804   9.473
62526SOL    HW189411   2.382  11.758   9.509
62526SOL    HW289412   2.231  11.756   9.507
62527SOL     OW89413   1.054   2.881   3.110
62527SOL    HW189414   1.048   2.967   3.067
62527SOL    HW289415   1.057   2.818   3.037
62528SOL     OW89416  10.839  10.466   0.443
62528SOL    HW189417  10.822  10.456   0.536
62528SOL    HW289418  10.914  10.526   0.438
62529SOL     OW89419  13.646  10.257   6.276
62529SOL    HW189420  13.646  10.275   6.370
62529SOL    HW289421  13.563  10.291   6.245
62530SOL     OW89422  10.851   5.538   1.199
62530SOL    HW189423  10.856   5.511   1.291
62530SOL    HW289424  10.768   5.504   1.168
62531SOL     OW89425   8.576   2.667   7.117
62531SOL    HW189426   8.659   2.648   7.075
62531SOL    HW289427   8.598   2.723   7.191
62532SOL     OW89428   4.001   6.389   8.328
62532SOL    HW189429   4.067   6.456   8.309
62532SOL    HW289430   4.009   6.326   8.257
62533SOL     OW89431   2.776  12.496  14.636
62533SOL    HW189432   2.759  12.495  14.542
62533SOL    HW289433   2.838  12.425  14.650
62534SOL     OW89434  13.721  14.220   7.565
62534SOL    HW189435  13.798  14.213   7.508
62534SOL    HW289436  13.750  14.182   7.649
62535SOL     OW89437   0.494  12.356  10.741
62535SOL    HW189438   0.564  12.293  10.751
62535SOL    HW289439   0.443  12.349  10.822
62536SOL     OW89440   6.800   8.734   0.185
62536SOL    HW189441   6.729   8.763   0.127
62536SOL    HW289442   6.878   8.734   0.129
62537SOL     OW89443   1.500   3.609   1.043
62537SOL    HW189444   1.543   3.562   1.115
62537SOL    HW289445   1.407   3.601   1.061
62538SOL     OW89446   3.262  11.295  10.546
62538SOL    HW189447   3.338  11.242  10.569
62538SOL    HW289448   3.254  11.285  10.451
62539SOL     OW89449   2.297   4.628  12.730
62539SOL    HW189450   2.347   4.561  12.684
62539SOL    HW289451   2.268   4.585  12.810
62540SOL     OW89452   6.104   0.992   9.689
62540SOL    HW189453   6.027   1.019   9.638
62540SOL    HW289454   6.178   1.027   9.640
62541SOL     OW89455   2.352   0.658   6.128
62541SOL    HW189456   2.442   0.626   6.121
62541SOL    HW289457   2.302   0.583   6.160
62542SOL     OW89458  13.007  11.196   3.820
62542SOL    HW189459  12.957  11.195   3.739
62542SOL    HW289460  12.942  11.207   3.889
62543SOL     OW89461   1.521   7.635   4.331
62543SOL    HW189462   1.605   7.681   4.338
62543SOL    HW289463   1.543   7.543   4.345
62544SOL     OW89464   0.364   2.206  12.877
62544SOL    HW189465   0.447   2.224  12.833
62544SOL    HW289466   0.322   2.292  12.886
62545SOL     OW89467   7.875   4.595   5.266
62545SOL    HW189468   7.779   4.594   5.266
62545SOL    HW289469   7.898   4.687   5.282
62546SOL     OW89470  14.774   2.920  13.492
62546SOL    HW189471  14.780   2.915  13.397
62546SOL    HW289472  14.755   3.012  13.510
62547SOL     OW89473   8.628   9.246  13.587
62547SOL    HW189474   8.689   9.197  13.532
62547SOL    HW289475   8.589   9.311  13.529
62548SOL     OW89476  10.824   1.986  13.516
62548SOL    HW189477  10.899   2.001  13.459
62548SOL    HW289478  10.810   2.069  13.561
62549SOL     OW89479   1.111   2.602   5.150
62549SOL    HW189480   1.119   2.556   5.233
62549SOL    HW289481   1.140   2.539   5.084
62550SOL     OW89482   6.036   3.246   1.876
62550SOL    HW189483   6.097   3.247   1.949
62550SOL    HW289484   6.071   3.180   1.816
62551SOL     OW89485   0.600   2.034   4.133
62551SOL    HW189486   0.562   1.968   4.075
62551SOL    HW289487   0.556   2.115   4.110
62552SOL     OW89488  14.473   6.454   9.324
62552SOL    HW189489  14.444   6.525   9.381
62552SOL    HW289490  14.514   6.499   9.250
62553SOL     OW89491  12.949   1.351   2.299
62553SOL    HW189492  13.018   1.287   2.318
62553SOL    HW289493  12.975   1.430   2.346
62554SOL     OW89494  12.630   2.012  13.033
62554SOL    HW189495  12.662   2.100  13.053
62554SOL    HW289496  12.623   1.969  13.118
62555SOL     OW89497  10.229   3.957  12.946
62555SOL    HW189498  10.308   3.928  12.992
62555SOL    HW289499  10.158   3.944  13.010
62556SOL     OW89500   6.042   1.757   4.081
62556SOL    HW189501   6.102   1.707   4.136
62556SOL    HW289502   5.955   1.725   4.106
62557SOL     OW89503  11.056   6.274   5.010
62557SOL    HW189504  10.991   6.330   4.967
62557SOL    HW289505  11.094   6.223   4.938
62558SOL     OW89506  12.302  13.356   5.113
62558SOL    HW189507  12.357  13.297   5.062
62558SOL    HW289508  12.235  13.299   5.152
62559SOL     OW89509   2.622   6.498   0.259
62559SOL    HW189510   2.571   6.497   0.178
62559SOL    HW289511   2.598   6.580   0.301
62560SOL     OW89512   3.775   1.335   6.437
62560SOL    HW189513   3.821   1.371   6.361
62560SOL    HW289514   3.695   1.296   6.400
62561SOL     OW89515   1.957   3.542   6.881
62561SOL    HW189516   2.020   3.606   6.914
62561SOL    HW289517   1.964   3.548   6.786
62562SOL     OW89518  11.926   5.379  11.513
62562SOL    HW189519  11.911   5.444  11.582
62562SOL    HW289520  11.998   5.325  11.547
62563SOL     OW89521  13.662   1.325  11.676
62563SOL    HW189522  13.610   1.364  11.606
62563SOL    HW289523  13.598   1.291  11.738
62564SOL     OW89524  11.524   0.572  13.434
62564SOL    HW189525  11.615   0.589  13.458
62564SOL    HW289526  11.473   0.632  13.489
62565SOL     OW89527   9.529  14.067   6.657
62565SOL    HW189528   9.465  14.125   6.698
62565SOL    HW289529   9.484  13.982   6.651
62566SOL     OW89530  10.548   9.181   6.468
62566SOL    HW189531  10.561   9.270   6.501
62566SOL    HW289532  10.623   9.167   6.410
62567SOL     OW89533   7.201  14.669  13.765
62567SOL    HW189534   7.285  14.695  13.804
62567SOL    HW289535   7.222  14.650  13.673
62568SOL     OW89536   3.281  12.742   3.292
62568SOL    HW189537   3.226  12.811   3.256
62568SOL    HW289538   3.224  12.697   3.355
62569SOL     OW89539   0.320  13.481   9.839
62569SOL    HW189540   0.299  13.422   9.766
62569SOL    HW289541   0.236  13.497   9.882
62570SOL     OW89542  14.459   0.240  11.828
62570SOL    HW189543  14.395   0.274  11.766
62570SOL    HW289544  14.411   0.232  11.911
62571SOL     OW89545   3.615   5.889   7.220
62571SOL    HW189546   3.640   5.945   7.294
62571SOL    HW289547   3.687   5.825   7.214
62572SOL     OW89548   0.930   7.259   8.298
62572SOL    HW189549   0.930   7.171   8.337
62572SOL    HW289550   1.019   7.270   8.265
62573SOL     OW89551  13.202  10.602   5.497
62573SOL    HW189552  13.188  10.557   5.580
62573SOL    HW289553  13.249  10.539   5.443
62574SOL     OW89554  12.580  10.576   7.824
62574SOL    HW189555  12.495  10.559   7.864
62574SOL    HW289556  12.593  10.503   7.763
62575SOL     OW89557   3.926  13.667   9.629
62575SOL    HW189558   4.001  13.724   9.642
62575SOL    HW289559   3.895  13.688   9.541
62576SOL     OW89560   3.436   9.203   7.065
62576SOL    HW189561   3.459   9.224   6.974
62576SOL    HW289562   3.440   9.286   7.111
62577SOL     OW89563   9.646   2.682   2.120
62577SOL    HW189564   9.587   2.706   2.191
62577SOL    HW289565   9.724   2.649   2.164
62578SOL     OW89566   4.590   2.779   8.694
62578SOL    HW189567   4.645   2.705   8.721
62578SOL    HW289568   4.593   2.777   8.599
62579SOL     OW89569   4.095   0.794  14.491
62579SOL    HW189570   4.009   0.776  14.451
62579SOL    HW289571   4.147   0.717  14.471
62580SOL     OW89572   7.325  10.375  11.219
62580SOL    HW189573   7.237  10.404  11.244
62580SOL    HW289574   7.356  10.325  11.295
62581SOL     OW89575   2.760   5.003  13.608
62581SOL    HW189576   2.755   4.929  13.547
62581SOL    HW289577   2.854   5.016  13.623
62582SOL     OW89578   3.387  13.382  13.135
62582SOL    HW189579   3.347  13.342  13.212
62582SOL    HW289580   3.330  13.357  13.062
62583SOL     OW89581   0.828   0.470  12.124
62583SOL    HW189582   0.816   0.389  12.173
62583SOL    HW289583   0.770   0.533  12.167
62584SOL     OW89584   5.328   5.834  11.472
62584SOL    HW189585   5.385   5.906  11.501
62584SOL    HW289586   5.257   5.833  11.536
62585SOL     OW89587   3.419   7.560   6.280
62585SOL    HW189588   3.445   7.564   6.372
62585SOL    HW289589   3.371   7.477   6.272
62586SOL     OW89590  10.032  11.935   9.888
62586SOL    HW189591   9.942  11.919   9.915
62586SOL    HW289592  10.057  11.857   9.838
62587SOL     OW89593  10.145  14.811  12.534
62587SOL    HW189594  10.105  14.762  12.606
62587SOL    HW289595  10.236  14.822  12.560
62588SOL     OW89596   9.663   1.905   5.917
62588SOL    HW189597   9.609   1.981   5.939
62588SOL    HW289598   9.703   1.928   5.833
62589SOL     OW89599   5.305  13.380   2.626
62589SOL    HW189600   5.239  13.412   2.564
62589SOL    HW289601   5.361  13.322   2.575
62590SOL     OW89602   5.686   8.075   4.980
62590SOL    HW189603   5.649   8.099   5.065
62590SOL    HW289604   5.723   8.157   4.947
62591SOL     OW89605   9.125   9.218   2.554
62591SOL    HW189606   9.165   9.135   2.583
62591SOL    HW289607   9.080   9.251   2.632
62592SOL     OW89608  11.478  10.290  13.184
62592SOL    HW189609  11.461  10.209  13.135
62592SOL    HW289610  11.566  10.277  13.221
62593SOL     OW89611   8.248   8.706  12.136
62593SOL    HW189612   8.176   8.646  12.156
62593SOL    HW289613   8.221   8.749  12.055
62594SOL     OW89614  14.235   3.567   8.681
62594SOL    HW189615  14.211   3.621   8.607
62594SOL    HW289616  14.201   3.480   8.660
62595SOL     OW89617   8.162   6.596  10.925
62595SOL    HW189618   8.084   6.605  10.871
62595SOL    HW289619   8.163   6.503  10.950
62596SOL     OW89620  12.574  13.645  14.564
62596SOL    HW189621  12.545  13.562  14.602
62596SOL    HW289622  12.546  13.711  14.628
62597SOL     OW89623   3.556   6.607  12.591
62597SOL    HW189624   3.511   6.613  12.506
62597SOL    HW289625   3.648   6.593  12.569
62598SOL     OW89626   3.642   4.095   9.351
62598SOL    HW189627   3.601   4.088   9.437
62598SOL    HW289628   3.592   4.034   9.296
62599SOL     OW89629   2.919   9.179   2.965
62599SOL    HW189630   2.947   9.266   2.937
62599SOL    HW289631   2.981   9.119   2.924
62600SOL     OW89632   9.130  13.591   1.832
62600SOL    HW189633   9.162  13.619   1.747
62600SOL    HW289634   9.190  13.521   1.859
62601SOL     OW89635   9.099   9.209   1.305
62601SOL    HW189636   9.146   9.245   1.229
62601SOL    HW289637   9.137   9.123   1.318
62602SOL     OW89638  10.312  13.156   3.996
62602SOL    HW189639  10.336  13.225   4.059
62602SOL    HW289640  10.316  13.075   4.048
62603SOL     OW89641  11.682   9.489  12.941
62603SOL    HW189642  11.685   9.405  12.895
62603SOL    HW289643  11.723   9.472  13.025
62604SOL     OW89644   2.963   2.866   5.724
62604SOL    HW189645   3.038   2.893   5.671
62604SOL    HW289646   2.959   2.930   5.795
62605SOL     OW89647  11.602   0.446   4.086
62605SOL    HW189648  11.637   0.441   3.997
62605SOL    HW289649  11.507   0.432   4.075
62606SOL     OW89650  12.778  13.088   2.582
62606SOL    HW189651  12.717  13.051   2.518
62606SOL    HW289652  12.722  13.113   2.656
62607SOL     OW89653   8.644   6.166   2.167
62607SOL    HW189654   8.723   6.177   2.115
62607SOL    HW289655   8.656   6.226   2.241
62608SOL     OW89656   8.578  10.646   7.673
62608SOL    HW189657   8.575  10.552   7.691
62608SOL    HW289658   8.486  10.672   7.667
62609SOL     OW89659   6.551   4.172  10.961
62609SOL    HW189660   6.499   4.118  10.901
62609SOL    HW289661   6.529   4.262  10.937
62610SOL     OW89662  10.977   7.851  12.079
62610SOL    HW189663  11.060   7.891  12.105
62610SOL    HW289664  10.999   7.798  12.002
62611SOL     OW89665   5.116   4.646  14.705
62611SOL    HW189666   5.202   4.603  14.709
62611SOL    HW289667   5.129   4.722  14.650
62612SOL     OW89668   6.864   9.175   8.471
62612SOL    HW189669   6.884   9.083   8.485
62612SOL    HW289670   6.798   9.175   8.402
62613SOL     OW89671   4.139  12.034  12.667
62613SOL    HW189672   4.218  12.083  12.690
62613SOL    HW289673   4.127  12.051  12.574
62614SOL     OW89674  12.747  10.598   6.490
62614SOL    HW189675  12.741  10.640   6.404
62614SOL    HW289676  12.662  10.555   6.502
62615SOL     OW89677   7.822   7.444   4.534
62615SOL    HW189678   7.905   7.439   4.487
62615SOL    HW289679   7.780   7.359   4.519
62616SOL     OW89680  11.093  12.993   3.473
62616SOL    HW189681  11.159  12.952   3.529
62616SOL    HW289682  11.046  12.920   3.433
62617SOL     OW89683   5.173   5.734  12.004
62617SOL    HW189684   5.249   5.744  12.061
62617SOL    HW289685   5.158   5.639  12.000
62618SOL     OW89686   7.836  13.568   1.176
62618SOL    HW189687   7.913  13.544   1.228
62618SOL    HW289688   7.763  13.559   1.237
62619SOL     OW89689   1.236   9.664   4.449
62619SOL    HW189690   1.303   9.599   4.473
62619SOL    HW289691   1.194   9.627   4.371
62620SOL     OW89692   8.820   3.522  12.270
62620SOL    HW189693   8.892   3.572  12.232
62620SOL    HW289694   8.837   3.432  12.245
62621SOL     OW89695   8.513   1.577   7.019
62621SOL    HW189696   8.453   1.576   7.094
62621SOL    HW289697   8.458   1.603   6.945
62622SOL     OW89698   5.734   0.993  13.945
62622SOL    HW189699   5.698   0.970  14.031
62622SOL    HW289700   5.671   1.056  13.909
62623SOL     OW89701   1.789   6.415   9.897
62623SOL    HW189702   1.806   6.360   9.820
62623SOL    HW289703   1.705   6.456   9.878
62624SOL     OW89704  12.260   6.259  12.097
62624SOL    HW189705  12.291   6.222  12.180
62624SOL    HW289706  12.234   6.183  12.045
62625SOL     OW89707   7.006   8.849   9.788
62625SOL    HW189708   7.027   8.760   9.758
62625SOL    HW289709   6.943   8.835   9.859
62626SOL     OW89710   2.770  13.333   6.305
62626SOL    HW189711   2.722  13.414   6.324
62626SOL    HW289712   2.801  13.344   6.215
62627SOL     OW89713  10.640   7.645   7.589
62627SOL    HW189714  10.630   7.702   7.513
62627SOL    HW289715  10.656   7.558   7.553
62628SOL     OW89716   7.700   0.929   8.042
62628SOL    HW189717   7.630   0.884   7.994
62628SOL    HW289718   7.655   0.999   8.089
62629SOL     OW89719   5.179   0.281   8.918
62629SOL    HW189720   5.091   0.281   8.957
62629SOL    HW289721   5.192   0.372   8.891
62630SOL     OW89722  11.624   8.120  10.626
62630SOL    HW189723  11.575   8.115  10.708
62630SOL    HW289724  11.690   8.188  10.641
62631SOL     OW89725   9.714  10.919   3.594
62631SOL    HW189726   9.639  10.975   3.611
62631SOL    HW289727   9.787  10.962   3.638
62632SOL     OW89728  12.594  12.381   9.876
62632SOL    HW189729  12.630  12.362   9.790
62632SOL    HW289730  12.575  12.295   9.914
62633SOL     OW89731   2.979   3.772   6.341
62633SOL    HW189732   3.025   3.794   6.422
62633SOL    HW289733   3.008   3.839   6.278
62634SOL     OW89734  11.086  14.318   1.526
62634SOL    HW189735  11.031  14.307   1.448
62634SOL    HW289736  11.059  14.248   1.585
62635SOL     OW89737   9.974  11.839   6.506
62635SOL    HW189738   9.911  11.860   6.436
62635SOL    HW289739   9.921  11.838   6.586
62636SOL     OW89740   2.021   9.611  10.428
62636SOL    HW189741   2.107   9.581  10.399
62636SOL    HW289742   1.971   9.621  10.348
62637SOL     OW89743   1.274   6.428   5.061
62637SOL    HW189744   1.353   6.442   5.114
62637SOL    HW289745   1.286   6.342   5.022
62638SOL     OW89746   2.140   0.966   4.500
62638SOL    HW189747   2.079   0.948   4.428
62638SOL    HW289748   2.214   1.010   4.459
62639SOL     OW89749  10.561   4.066  11.339
62639SOL    HW189750  10.588   4.117  11.263
62639SOL    HW289751  10.643   4.027  11.371
62640SOL     OW89752   7.022   6.532   6.251
62640SOL    HW189753   7.086   6.571   6.192
62640SOL    HW289754   7.074   6.473   6.306
62641SOL     OW89755   2.058  11.025   3.602
62641SOL    HW189756   2.090  10.936   3.612
62641SOL    HW289757   2.068  11.044   3.509
62642SOL     OW89758   8.197   4.439   7.599
62642SOL    HW189759   8.283   4.401   7.618
62642SOL    HW289760   8.183   4.504   7.668
62643SOL     OW89761   9.599   5.369  14.601
62643SOL    HW189762   9.512   5.370  14.641
62643SOL    HW289763   9.641   5.449  14.633
62644SOL     OW89764   0.458   2.648   7.249
62644SOL    HW189765   0.541   2.615   7.281
62644SOL    HW289766   0.427   2.707   7.318
62645SOL     OW89767   8.917  10.241   6.607
62645SOL    HW189768   8.944  10.311   6.547
62645SOL    HW289769   8.870  10.179   6.551
62646SOL     OW89770   1.622  11.161   4.960
62646SOL    HW189771   1.631  11.246   4.916
62646SOL    HW289772   1.556  11.114   4.909
62647SOL     OW89773   4.650   6.272   2.367
62647SOL    HW189774   4.645   6.192   2.418
62647SOL    HW289775   4.744   6.284   2.352
62648SOL     OW89776   2.992  14.165   7.947
62648SOL    HW189777   3.078  14.207   7.954
62648SOL    HW289778   2.939  14.227   7.896
62649SOL     OW89779   6.646   8.354  10.593
62649SOL    HW189780   6.657   8.333  10.686
62649SOL    HW289781   6.705   8.428  10.578
62650SOL     OW89782   7.542   5.501  10.789
62650SOL    HW189783   7.480   5.472  10.856
62650SOL    HW289784   7.564   5.591  10.813
62651SOL     OW89785  12.312   5.932  11.999
62651SOL    HW189786  12.341   5.921  12.089
62651SOL    HW289787  12.381   5.893  11.946
62652SOL     OW89788  10.081   3.545  10.003
62652SOL    HW189789  10.120   3.499   9.929
62652SOL    HW289790   9.998   3.499  10.019
62653SOL     OW89791   2.504  14.114  10.155
62653SOL    HW189792   2.540  14.195  10.120
62653SOL    HW289793   2.469  14.138  10.240
62654SOL     OW89794   3.191   0.342   6.114
62654SOL    HW189795   3.150   0.417   6.072
62654SOL    HW289796   3.144   0.333   6.197
62655SOL     OW89797   9.363   1.298   0.976
62655SOL    HW189798   9.299   1.289   0.905
62655SOL    HW289799   9.311   1.292   1.056
62656SOL     OW89800  12.881   2.534   6.359
62656SOL    HW189801  12.955   2.476   6.376
62656SOL    HW289802  12.907   2.584   6.282
62657SOL     OW89803   3.647  11.693   4.068
62657SOL    HW189804   3.665  11.748   3.992
62657SOL    HW289805   3.697  11.732   4.139
62658SOL     OW89806  10.592   4.800  14.862
62658SOL    HW189807  10.590   4.787  14.768
62658SOL    HW289808  10.598   4.895   0.002
62659SOL     OW89809   1.515   8.186  13.478
62659SOL    HW189810   1.578   8.143  13.535
62659SOL    HW289811   1.430   8.170  13.519
62660SOL     OW89812   5.461   6.879  13.047
62660SOL    HW189813   5.370   6.865  13.073
62660SOL    HW289814   5.487   6.960  13.092
62661SOL     OW89815  12.136   3.248   3.147
62661SOL    HW189816  12.188   3.272   3.223
62661SOL    HW289817  12.117   3.155   3.158
62662SOL     OW89818  11.106   2.189  14.224
62662SOL    HW189819  11.131   2.260  14.165
62662SOL    HW289820  11.170   2.120  14.208
62663SOL     OW89821  13.196   9.923  10.759
62663SOL    HW189822  13.266   9.907  10.695
62663SOL    HW289823  13.121   9.875  10.725
62664SOL     OW89824   6.506   9.175   6.044
62664SOL    HW189825   6.435   9.158   6.106
62664SOL    HW289826   6.586   9.155   6.093
62665SOL     OW89827   5.070  14.701  13.024
62665SOL    HW189828   5.127  14.739  13.091
62665SOL    HW289829   5.119  14.625  12.991
62666SOL     OW89830  11.982  11.885   5.843
62666SOL    HW189831  11.918  11.837   5.897
62666SOL    HW289832  11.944  11.973   5.834
62667SOL     OW89833  14.542   9.715   8.652
62667SOL    HW189834  14.637   9.719   8.668
62667SOL    HW289835  14.519   9.624   8.672
62668SOL     OW89836   6.924   8.969   2.248
62668SOL    HW189837   6.908   8.913   2.324
62668SOL    HW289838   6.975   8.914   2.189
62669SOL     OW89839   4.309   9.113   0.158
62669SOL    HW189840   4.363   9.165   0.098
62669SOL    HW289841   4.371   9.057   0.204
62670SOL     OW89842  14.640   2.764   2.846
62670SOL    HW189843  14.674   2.698   2.906
62670SOL    HW289844  14.713   2.825   2.833
62671SOL     OW89845  10.888  13.571   8.035
62671SOL    HW189846  10.955  13.605   7.976
62671SOL    HW289847  10.820  13.535   7.978
62672SOL     OW89848   6.957   9.604   9.535
62672SOL    HW189849   6.948   9.631   9.443
62672SOL    HW289850   6.996   9.680   9.578
62673SOL     OW89851   8.653   8.773  11.852
62673SOL    HW189852   8.606   8.856  11.856
62673SOL    HW289853   8.682   8.757  11.942
62674SOL     OW89854  11.118  11.465   8.951
62674SOL    HW189855  11.045  11.472   8.889
62674SOL    HW289856  11.127  11.371   8.968
62675SOL     OW89857   5.944   5.158  11.411
62675SOL    HW189858   5.941   5.240  11.360
62675SOL    HW289859   5.928   5.089  11.346
62676SOL     OW89860   1.166   5.393  10.543
62676SOL    HW189861   1.135   5.417  10.455
62676SOL    HW289862   1.122   5.310  10.562
62677SOL     OW89863  11.799  13.102   3.218
62677SOL    HW189864  11.728  13.038   3.226
62677SOL    HW289865  11.756  13.187   3.227
62678SOL     OW89866   2.258   6.448   9.200
62678SOL    HW189867   2.352   6.467   9.197
62678SOL    HW289868   2.218   6.521   9.152
62679SOL     OW89869  14.715  13.071   2.128
62679SOL    HW189870  14.769  13.111   2.196
62679SOL    HW289871  14.647  13.024   2.176
62680SOL     OW89872   3.425   9.984  10.051
62680SOL    HW189873   3.447   9.893  10.072
62680SOL    HW289874   3.374   9.978   9.971
62681SOL     OW89875  14.466   7.570  11.555
62681SOL    HW189876  14.424   7.618  11.627
62681SOL    HW289877  14.394   7.550  11.495
62682SOL     OW89878  14.815   7.228   7.425
62682SOL    HW189879  14.834   7.140   7.458
62682SOL    HW289880  14.732   7.219   7.378
62683SOL     OW89881   1.525  11.956   6.415
62683SOL    HW189882   1.565  11.929   6.333
62683SOL    HW289883   1.473  12.033   6.392
62684SOL     OW89884  14.650   6.091  10.923
62684SOL    HW189885  14.623   5.999  10.923
62684SOL    HW289886  14.629   6.123  10.836
62685SOL     OW89887   8.968  13.268   5.824
62685SOL    HW189888   8.878  13.276   5.856
62685SOL    HW289889   9.016  13.337   5.870
62686SOL     OW89890   4.200   0.107  14.699
62686SOL    HW189891   4.173   0.086  14.610
62686SOL    HW289892   4.148   0.184  14.722
62687SOL     OW89893   4.558   0.563   1.429
62687SOL    HW189894   4.480   0.568   1.484
62687SOL    HW289895   4.591   0.474   1.441
62688SOL     OW89896   7.565  10.448   7.326
62688SOL    HW189897   7.555  10.431   7.420
62688SOL    HW289898   7.512  10.525   7.309
62689SOL     OW89899   9.820   2.275   8.857
62689SOL    HW189900   9.868   2.273   8.774
62689SOL    HW289901   9.829   2.365   8.888
62690SOL     OW89902   1.667  13.201   5.730
62690SOL    HW189903   1.585  13.174   5.771
62690SOL    HW289904   1.705  13.264   5.792
62691SOL     OW89905  11.911   7.715   5.526
62691SOL    HW189906  11.863   7.635   5.549
62691SOL    HW289907  11.873   7.742   5.443
62692SOL     OW89908   0.772   7.714   1.918
62692SOL    HW189909   0.825   7.792   1.901
62692SOL    HW289910   0.785   7.659   1.841
62693SOL     OW89911  14.737  11.320   3.694
62693SOL    HW189912  14.708  11.408   3.716
62693SOL    HW289913  14.830  11.329   3.674
62694SOL     OW89914  11.493   2.499  11.485
62694SOL    HW189915  11.475   2.577  11.537
62694SOL    HW289916  11.428   2.501  11.415
62695SOL     OW89917   0.918   2.277  13.287
62695SOL    HW189918   0.906   2.203  13.346
62695SOL    HW289919   0.926   2.237  13.200
62696SOL     OW89920   0.142   1.138  13.942
62696SOL    HW189921   0.192   1.163  14.020
62696SOL    HW289922   0.207   1.099  13.883
62697SOL     OW89923  13.856   7.182   4.959
62697SOL    HW189924  13.851   7.099   5.006
62697SOL    HW289925  13.940   7.178   4.912
62698SOL     OW89926  10.613  13.216   8.581
62698SOL    HW189927  10.642  13.133   8.619
62698SOL    HW289928  10.628  13.205   8.487
62699SOL     OW89929   7.653  14.088   1.268
62699SOL    HW189930   7.689  14.140   1.196
62699SOL    HW289931   7.661  14.145   1.344
62700SOL     OW89932   3.218  13.509  11.116
62700SOL    HW189933   3.242  13.578  11.055
62700SOL    HW289934   3.225  13.428  11.065
62701SOL     OW89935  11.243  14.851   2.987
62701SOL    HW189936  11.300  14.775   2.979
62701SOL    HW289937  11.302   0.051   3.005
62702SOL     OW89938  11.399   9.214   8.240
62702SOL    HW189939  11.487   9.181   8.222
62702SOL    HW289940  11.412   9.282   8.306
62703SOL     OW89941   5.993   5.917  12.357
62703SOL    HW189942   6.014   5.972  12.282
62703SOL    HW289943   6.076   5.876  12.381
62704SOL     OW89944  13.035  11.993   9.675
62704SOL    HW189945  12.986  11.911   9.683
62704SOL    HW289946  12.997  12.037   9.599
62705SOL     OW89947  11.869   7.777  12.757
62705SOL    HW189948  11.855   7.870  12.773
62705SOL    HW289949  11.788   7.747  12.715
62706SOL     OW89950   2.714  13.499  13.754
62706SOL    HW189951   2.687  13.584  13.718
62706SOL    HW289952   2.807  13.494  13.735
62707SOL     OW89953   7.918   2.223   9.061
62707SOL    HW189954   8.005   2.206   9.097
62707SOL    HW289955   7.926   2.306   9.015
62708SOL     OW89956   3.757   6.893  13.757
62708SOL    HW189957   3.686   6.954  13.737
62708SOL    HW289958   3.830   6.949  13.782
62709SOL     OW89959   4.561   4.760  12.911
62709SOL    HW189960   4.556   4.670  12.942
62709SOL    HW289961   4.648   4.790  12.937
62710SOL     OW89962   3.139   0.969   2.161
62710SOL    HW189963   3.158   1.040   2.100
62710SOL    HW289964   3.225   0.937   2.189
62711SOL     OW89965   8.896   7.908   1.613
62711SOL    HW189966   8.872   7.832   1.667
62711SOL    HW289967   8.859   7.983   1.659
62712SOL     OW89968   2.223   9.030   8.310
62712SOL    HW189969   2.303   8.981   8.329
62712SOL    HW289970   2.253   9.113   8.274
62713SOL     OW89971  10.714  14.067  12.366
62713SOL    HW189972  10.717  14.097  12.276
62713SOL    HW289973  10.714  13.971  12.359
62714SOL     OW89974  10.443  12.545   9.302
62714SOL    HW189975  10.418  12.571   9.391
62714SOL    HW289976  10.362  12.555   9.251
62715SOL     OW89977   5.835  10.348   4.459
62715SOL    HW189978   5.798  10.378   4.542
62715SOL    HW289979   5.855  10.429   4.411
62716SOL     OW89980   1.160  12.727   7.552
62716SOL    HW189981   1.186  12.666   7.483
62716SOL    HW289982   1.160  12.673   7.632
62717SOL     OW89983   5.753   7.616   0.413
62717SOL    HW189984   5.735   7.672   0.338
62717SOL    HW289985   5.693   7.647   0.481
62718SOL     OW89986   9.584   5.162   8.935
62718SOL    HW189987   9.660   5.180   8.879
62718SOL    HW289988   9.623   5.148   9.022
62719SOL     OW89989   4.538   2.281   7.010
62719SOL    HW189990   4.476   2.342   7.050
62719SOL    HW289991   4.611   2.276   7.072
62720SOL     OW89992   9.188   0.326  12.913
62720SOL    HW189993   9.177   0.419  12.932
62720SOL    HW289994   9.275   0.305  12.948
62721SOL     OW89995  13.338  13.004   4.246
62721SOL    HW189996  13.433  13.007   4.249
62721SOL    HW289997  13.312  12.973   4.332
62722SOL     OW89998  14.589   8.348   9.746
62722SOL    HW189999  14.611   8.329   9.837
62722SOL    HW290000  14.655   8.411   9.718
62723SOL     OW90001   6.482   2.836  12.310
62723SOL    HW190002   6.530   2.761  12.275
62723SOL    HW290003   6.460   2.811  12.399
62724SOL     OW90004  10.029  11.460   6.992
62724SOL    HW190005   9.991  11.380   6.957
62724SOL    HW290006  10.047  11.439   7.084
62725SOL     OW90007   9.018   3.670   0.470
62725SOL    HW190008   8.936   3.634   0.503
62725SOL    HW290009   9.084   3.639   0.532
62726SOL     OW90010   0.571   1.805  14.029
62726SOL    HW190011   0.592   1.848  14.112
62726SOL    HW290012   0.615   1.858  13.963
62727SOL     OW90013   4.027   4.402  11.499
62727SOL    HW190014   3.938   4.435  11.516
62727SOL    HW290015   4.083   4.477  11.519
62728SOL     OW90016  14.862   0.275  12.130
62728SOL    HW190017   0.024   0.250  12.044
62728SOL    HW290018  14.773   0.240  12.131
62729SOL     OW90019  11.278   2.015  10.328
62729SOL    HW190020  11.242   2.009  10.416
62729SOL    HW290021  11.359   2.065  10.339
62730SOL     OW90022   3.318  13.193   3.845
62730SOL    HW190023   3.349  13.277   3.880
62730SOL    HW290024   3.223  13.202   3.844
62731SOL     OW90025  12.559   9.362  10.722
62731SOL    HW190026  12.493   9.422  10.686
62731SOL    HW290027  12.511   9.312  10.788
62732SOL     OW90028   1.497  13.542   7.832
62732SOL    HW190029   1.454  13.458   7.816
62732SOL    HW290030   1.426  13.606   7.838
62733SOL     OW90031   7.536  14.410  10.359
62733SOL    HW190032   7.494  14.335  10.399
62733SOL    HW290033   7.598  14.372  10.296
62734SOL     OW90034  10.342   0.698   5.824
62734SOL    HW190035  10.430   0.733   5.814
62734SOL    HW290036  10.293   0.768   5.868
62735SOL     OW90037   5.696   1.317  12.828
62735SOL    HW190038   5.785   1.290  12.805
62735SOL    HW290039   5.647   1.235  12.834
62736SOL     OW90040   9.242   8.509   7.684
62736SOL    HW190041   9.325   8.481   7.645
62736SOL    HW290042   9.236   8.602   7.662
62737SOL     OW90043  13.209  12.731  14.182
62737SOL    HW190044  13.149  12.689  14.243
62737SOL    HW290045  13.295  12.725  14.225
62738SOL     OW90046   2.814   1.888   9.979
62738SOL    HW190047   2.737   1.945   9.982
62738SOL    HW290048   2.867   1.917  10.053
62739SOL     OW90049   3.704  11.601   8.150
62739SOL    HW190050   3.779  11.585   8.207
62739SOL    HW290051   3.709  11.532   8.084
62740SOL     OW90052   0.299   8.379   5.445
62740SOL    HW190053   0.345   8.295   5.442
62740SOL    HW290054   0.206   8.355   5.444
62741SOL     OW90055  12.624   2.226   0.495
62741SOL    HW190056  12.628   2.151   0.555
62741SOL    HW290057  12.685   2.289   0.532
62742SOL     OW90058   7.410   1.101   3.790
62742SOL    HW190059   7.352   1.068   3.859
62742SOL    HW290060   7.497   1.101   3.829
62743SOL     OW90061   5.576  11.511   2.041
62743SOL    HW190062   5.542  11.570   2.108
62743SOL    HW290063   5.632  11.567   1.986
62744SOL     OW90064   3.573   4.247   7.318
62744SOL    HW190065   3.557   4.285   7.405
62744SOL    HW290066   3.527   4.163   7.320
62745SOL     OW90067   1.316  11.361  11.532
62745SOL    HW190068   1.290  11.277  11.494
62745SOL    HW290069   1.242  11.385  11.588
62746SOL     OW90070   3.138  11.423   1.414
62746SOL    HW190071   3.228  11.402   1.387
62746SOL    HW290072   3.103  11.340   1.446
62747SOL     OW90073  11.942   5.507  13.098
62747SOL    HW190074  11.927   5.429  13.044
62747SOL    HW290075  11.967   5.575  13.035
62748SOL     OW90076   8.743   2.197   5.894
62748SOL    HW190077   8.821   2.252   5.890
62748SOL    HW290078   8.670   2.258   5.907
62749SOL     OW90079   4.554   1.048  13.520
62749SOL    HW190080   4.618   1.000  13.467
62749SOL    HW290081   4.469   1.013  13.494
62750SOL     OW90082   5.862  11.625   6.911
62750SOL    HW190083   5.874  11.530   6.902
62750SOL    HW290084   5.837  11.654   6.823
62751SOL     OW90085  13.801  10.758   5.583
62751SOL    HW190086  13.723  10.813   5.580
62751SOL    HW290087  13.855  10.796   5.652
62752SOL     OW90088  14.547   2.779   1.464
62752SOL    HW190089  14.572   2.820   1.382
62752SOL    HW290090  14.611   2.709   1.476
62753SOL     OW90091   0.381  13.573   7.740
62753SOL    HW190092   0.374  13.479   7.726
62753SOL    HW290093   0.438  13.603   7.669
62754SOL     OW90094   3.989   2.930   2.721
62754SOL    HW190095   4.022   2.951   2.634
62754SOL    HW290096   4.033   2.848   2.744
62755SOL     OW90097   0.125   8.964  11.963
62755SOL    HW190098   0.038   8.936  11.992
62755SOL    HW290099   0.113   8.989  11.871
62756SOL     OW90100   4.794   3.021   0.358
62756SOL    HW190101   4.731   2.958   0.391
62756SOL    HW290102   4.747   3.104   0.358
62757SOL     OW90103   9.250  14.866   6.269
62757SOL    HW190104   9.244   0.086   6.245
62757SOL    HW290105   9.246  14.820   6.185
62758SOL     OW90106   2.848  14.463  12.226
62758SOL    HW190107   2.784  14.470  12.297
62758SOL    HW290108   2.806  14.405  12.162
62759SOL     OW90109  10.697  11.999   5.050
62759SOL    HW190110  10.723  12.001   4.958
62759SOL    HW290111  10.738  12.076   5.089
62760SOL     OW90112  14.223  10.058   6.397
62760SOL    HW190113  14.137  10.032   6.364
62760SOL    HW290114  14.273  10.080   6.318
62761SOL     OW90115  12.265   8.319  14.855
62761SOL    HW190116  12.247   8.409  14.828
62761SOL    HW290117  12.184   8.291   0.027
62762SOL     OW90118   9.790   9.063  14.135
62762SOL    HW190119   9.883   9.043  14.128
62762SOL    HW290120   9.760   9.070  14.044
62763SOL     OW90121   1.019  11.725   6.148
62763SOL    HW190122   1.034  11.697   6.238
62763SOL    HW290123   0.962  11.802   6.156
62764SOL     OW90124  12.326   5.585  11.298
62764SOL    HW190125  12.387   5.659  11.305
62764SOL    HW290126  12.314   5.555  11.388
62765SOL     OW90127   7.695  12.100  11.864
62765SOL    HW190128   7.638  12.034  11.901
62765SOL    HW290129   7.714  12.159  11.937
62766SOL     OW90130  10.967   7.892   8.441
62766SOL    HW190131  10.968   7.879   8.536
62766SOL    HW290132  10.910   7.822   8.408
62767SOL     OW90133   2.168   9.537   7.873
62767SOL    HW190134   2.191   9.449   7.904
62767SOL    HW290135   2.088   9.559   7.921
62768SOL     OW90136   9.743   0.684   1.817
62768SOL    HW190137   9.665   0.628   1.814
62768SOL    HW290138   9.815   0.626   1.792
62769SOL     OW90139   0.959   9.084   0.652
62769SOL    HW190140   1.009   9.165   0.658
62769SOL    HW290141   0.875   9.105   0.692
62770SOL     OW90142   9.402   8.074   6.398
62770SOL    HW190143   9.465   8.114   6.339
62770SOL    HW290144   9.351   8.014   6.342
62771SOL     OW90145  10.048   5.696  13.317
62771SOL    HW190146   9.969   5.669  13.364
62771SOL    HW290147  10.061   5.787  13.343
62772SOL     OW90148  13.230   5.156  13.215
62772SOL    HW190149  13.207   5.064  13.200
62772SOL    HW290150  13.321   5.153  13.245
62773SOL     OW90151  14.486   9.022   0.667
62773SOL    HW190152  14.446   9.032   0.580
62773SOL    HW290153  14.508   9.111   0.693
62774SOL     OW90154  14.565   7.308  11.282
62774SOL    HW190155  14.517   7.331  11.203
62774SOL    HW290156  14.651   7.279  11.250
62775SOL     OW90157   7.676  11.824  12.217
62775SOL    HW190158   7.623  11.759  12.264
62775SOL    HW290159   7.624  11.846  12.139
62776SOL     OW90160   6.893   0.539   5.159
62776SOL    HW190161   6.892   0.631   5.135
62776SOL    HW290162   6.940   0.537   5.243
62777SOL     OW90163  12.771   7.458   9.971
62777SOL    HW190164  12.681   7.425   9.979
62777SOL    HW290165  12.800   7.468  10.062
62778SOL     OW90166   3.165  13.034   8.177
62778SOL    HW190167   3.199  13.091   8.245
62778SOL    HW290168   3.132  13.093   8.109
62779SOL     OW90169  10.273   0.699  12.470
62779SOL    HW190170  10.197   0.757  12.471
62779SOL    HW290171  10.321   0.721  12.550
62780SOL     OW90172   3.713   3.747   0.292
62780SOL    HW190173   3.760   3.695   0.226
62780SOL    HW290174   3.777   3.761   0.361
62781SOL     OW90175   6.184   8.472   3.797
62781SOL    HW190176   6.106   8.482   3.743
62781SOL    HW290177   6.212   8.381   3.783
62782SOL     OW90178   9.077   0.940  10.723
62782SOL    HW190179   9.027   0.863  10.696
62782SOL    HW290180   9.016   0.990  10.777
62783SOL     OW90181  13.224   9.828   3.479
62783SOL    HW190182  13.153   9.832   3.415
62783SOL    HW290183  13.237   9.919   3.506
62784SOL     OW90184   4.639   3.096   8.671
62784SOL    HW190185   4.639   3.010   8.713
62784SOL    HW290186   4.555   3.135   8.694
62785SOL     OW90187   5.639  10.256   6.049
62785SOL    HW190188   5.594  10.246   6.133
62785SOL    HW290189   5.672  10.168   6.029
62786SOL     OW90190   2.115  11.729   1.007
62786SOL    HW190191   2.187  11.718   0.944
62786SOL    HW290192   2.048  11.777   0.958
62787SOL     OW90193   6.879   0.107   7.680
62787SOL    HW190194   6.941   0.180   7.685
62787SOL    HW290195   6.881   0.079   7.589
62788SOL     OW90196  13.494   7.312  13.006
62788SOL    HW190197  13.457   7.380  13.062
62788SOL    HW290198  13.562   7.356  12.956
62789SOL     OW90199   3.614  14.418   6.180
62789SOL    HW190200   3.559  14.368   6.241
62789SOL    HW290201   3.585  14.509   6.190
62790SOL     OW90202  12.951   4.564  10.238
62790SOL    HW190203  12.891   4.575  10.164
62790SOL    HW290204  12.999   4.647  10.242
62791SOL     OW90205   6.198   7.846  11.757
62791SOL    HW190206   6.273   7.793  11.785
62791SOL    HW290207   6.131   7.781  11.735
62792SOL     OW90208   7.792   8.886   0.538
62792SOL    HW190209   7.714   8.917   0.492
62792SOL    HW290210   7.777   8.792   0.547
62793SOL     OW90211   2.668   6.636   9.256
62793SOL    HW190212   2.680   6.725   9.290
62793SOL    HW290213   2.665   6.647   9.161
62794SOL     OW90214  12.117   7.146   8.954
62794SOL    HW190215  12.169   7.180   8.881
62794SOL    HW290216  12.080   7.224   8.996
62795SOL     OW90217  10.042  12.037   8.468
62795SOL    HW190218  10.076  11.954   8.434
62795SOL    HW290219   9.962  12.013   8.516
62796SOL     OW90220  13.059  11.298   4.651
62796SOL    HW190221  13.006  11.371   4.617
62796SOL    HW290222  12.996  11.227   4.663
62797SOL     OW90223   5.741  13.620  13.703
62797SOL    HW190224   5.688  13.559  13.755
62797SOL    HW290225   5.831  13.591  13.716
62798SOL     OW90226  13.417   9.756  12.425
62798SOL    HW190227  13.330   9.718  12.414
62798SOL    HW290228  13.414   9.801  12.509
62799SOL     OW90229   6.411   0.306   2.365
62799SOL    HW190230   6.471   0.380   2.374
62799SOL    HW290231   6.327   0.339   2.397
62800SOL     OW90232   8.122   1.971   2.168
62800SOL    HW190233   8.066   1.895   2.182
62800SOL    HW290234   8.193   1.961   2.232
62801SOL     OW90235  14.038  14.000  11.574
62801SOL    HW190236  14.025  14.078  11.628
62801SOL    HW290237  13.970  14.006  11.507
62802SOL     OW90238  13.626   2.812   8.330
62802SOL    HW190239  13.582   2.790   8.248
62802SOL    HW290240  13.575   2.768   8.397
62803SOL     OW90241  10.763   9.355   1.659
62803SOL    HW190242  10.773   9.447   1.635
62803SOL    HW290243  10.669   9.343   1.670
62804SOL     OW90244  10.028   7.312  10.489
62804SOL    HW190245  10.052   7.293  10.398
62804SOL    HW290246   9.969   7.387  10.483
62805SOL     OW90247  12.977   1.753   7.146
62805SOL    HW190248  12.970   1.733   7.053
62805SOL    HW290249  13.056   1.707   7.175
62806SOL     OW90250   4.370  13.630   3.819
62806SOL    HW190251   4.330  13.707   3.859
62806SOL    HW290252   4.345  13.557   3.876
62807SOL     OW90253   8.757  12.830   8.894
62807SOL    HW190254   8.764  12.913   8.941
62807SOL    HW290255   8.728  12.855   8.806
62808SOL     OW90256   0.124  11.426   5.357
62808SOL    HW190257   0.081  11.511   5.358
62808SOL    HW290258   0.206  11.440   5.405
62809SOL     OW90259  13.166   2.454   5.358
62809SOL    HW190260  13.182   2.534   5.409
62809SOL    HW290261  13.089   2.415   5.399
62810SOL     OW90262   8.212   5.221   3.064
62810SOL    HW190263   8.204   5.278   3.141
62810SOL    HW290264   8.155   5.262   2.999
62811SOL     OW90265  13.704   2.016   6.768
62811SOL    HW190266  13.674   2.057   6.849
62811SOL    HW290267  13.674   2.075   6.698
62812SOL     OW90268  10.594   3.276   6.182
62812SOL    HW190269  10.655   3.350   6.179
62812SOL    HW290270  10.552   3.277   6.096
62813SOL     OW90271   3.306   0.482   2.862
62813SOL    HW190272   3.368   0.479   2.935
62813SOL    HW290273   3.223   0.453   2.899
62814SOL     OW90274  14.135  14.762  11.809
62814SOL    HW190275  14.097  14.694  11.754
62814SOL    HW290276  14.177  14.822  11.747
62815SOL     OW90277   1.309   5.527   4.728
62815SOL    HW190278   1.345   5.521   4.639
62815SOL    HW290279   1.260   5.446   4.739
62816SOL     OW90280   5.486   1.358   3.350
62816SOL    HW190281   5.476   1.295   3.422
62816SOL    HW290282   5.466   1.307   3.271
62817SOL     OW90283   7.077   5.574  10.619
62817SOL    HW190284   7.098   5.493  10.667
62817SOL    HW290285   7.062   5.545  10.529
62818SOL     OW90286   1.429   7.027   2.207
62818SOL    HW190287   1.367   7.092   2.174
62818SOL    HW290288   1.410   7.021   2.301
62819SOL     OW90289   2.850   9.836   8.961
62819SOL    HW190290   2.788   9.841   8.888
62819SOL    HW290291   2.839   9.748   8.996
62820SOL     OW90292   7.261   9.974   8.348
62820SOL    HW190293   7.302   9.971   8.261
62820SOL    HW290294   7.297  10.052   8.389
62821SOL     OW90295  10.695  14.399   7.580
62821SOL    HW190296  10.658  14.479   7.618
62821SOL    HW290297  10.656  14.395   7.492
62822SOL     OW90298   7.255   8.181  10.429
62822SOL    HW190299   7.209   8.262  10.453
62822SOL    HW290300   7.296   8.152  10.511
62823SOL     OW90301   4.597  13.697  14.287
62823SOL    HW190302   4.531  13.758  14.320
62823SOL    HW290303   4.654  13.751  14.232
62824SOL     OW90304   2.430  10.368   7.507
62824SOL    HW190305   2.486  10.415   7.445
62824SOL    HW290306   2.349  10.352   7.459
62825SOL     OW90307   9.569   3.141  11.574
62825SOL    HW190308   9.579   3.236  11.582
62825SOL    HW290309   9.653   3.110  11.541
62826SOL     OW90310   5.639  10.597   5.915
62826SOL    HW190311   5.679  10.676   5.878
62826SOL    HW290312   5.599  10.554   5.839
62827SOL     OW90313   6.318  12.834   9.212
62827SOL    HW190314   6.308  12.925   9.238
62827SOL    HW290315   6.408  12.811   9.238
62828SOL     OW90316  10.032   7.488   4.760
62828SOL    HW190317  10.003   7.507   4.849
62828SOL    HW290318  10.023   7.393   4.751
62829SOL     OW90319  14.871   1.562   1.251
62829SOL    HW190320  14.777   1.554   1.236
62829SOL    HW290321   0.007   1.564   1.347
62830SOL     OW90322   6.682   9.102  12.349
62830SOL    HW190323   6.747   9.123  12.282
62830SOL    HW290324   6.725   9.036  12.404
62831SOL     OW90325   6.371  11.504   3.702
62831SOL    HW190326   6.419  11.533   3.779
62831SOL    HW290327   6.320  11.581   3.675
62832SOL     OW90328  12.023   2.470   0.398
62832SOL    HW190329  11.984   2.525   0.465
62832SOL    HW290330  11.951   2.448   0.340
62833SOL     OW90331  13.738  11.783   5.773
62833SOL    HW190332  13.757  11.855   5.834
62833SOL    HW290333  13.643  11.778   5.772
62834SOL     OW90334   0.740  10.816  10.950
62834SOL    HW190335   0.652  10.838  10.980
62834SOL    HW290336   0.794  10.823  11.028
62835SOL     OW90337   5.065   5.740   0.364
62835SOL    HW190338   5.086   5.822   0.320
62835SOL    HW290339   4.979   5.716   0.331
62836SOL     OW90340  11.070   2.253   6.343
62836SOL    HW190341  11.072   2.328   6.403
62836SOL    HW290342  10.977   2.230   6.337
62837SOL     OW90343   3.650   3.970   3.258
62837SOL    HW190344   3.635   3.907   3.188
62837SOL    HW290345   3.578   3.955   3.319
62838SOL     OW90346  11.154   7.161   6.363
62838SOL    HW190347  11.236   7.210   6.378
62838SOL    HW290348  11.140   7.113   6.444
62839SOL     OW90349  11.090   8.167   5.916
62839SOL    HW190350  11.139   8.162   5.998
62839SOL    HW290351  11.065   8.259   5.908
62840SOL     OW90352   3.368   3.412   1.652
62840SOL    HW190353   3.320   3.493   1.636
62840SOL    HW290354   3.337   3.381   1.737
62841SOL     OW90355   1.229   0.588   3.358
62841SOL    HW190356   1.203   0.519   3.419
62841SOL    HW290357   1.278   0.542   3.290
62842SOL     OW90358  12.852   7.141   6.353
62842SOL    HW190359  12.785   7.168   6.290
62842SOL    HW290360  12.891   7.063   6.314
62843SOL     OW90361   5.572   5.645   5.949
62843SOL    HW190362   5.552   5.573   6.008
62843SOL    HW290363   5.505   5.711   5.968
62844SOL     OW90364  10.226   9.911  10.967
62844SOL    HW190365  10.131   9.919  10.977
62844SOL    HW290366  10.243   9.817  10.966
62845SOL     OW90367   6.266   8.467   0.429
62845SOL    HW190368   6.298   8.377   0.435
62845SOL    HW290369   6.343   8.518   0.404
62846SOL     OW90370   2.156   5.760   7.235
62846SOL    HW190371   2.104   5.686   7.266
62846SOL    HW290372   2.183   5.736   7.147
62847SOL     OW90373  11.764  11.096  14.728
62847SOL    HW190374  11.747  11.127  14.639
62847SOL    HW290375  11.857  11.112  14.742
62848SOL     OW90376  11.755   8.602   1.394
62848SOL    HW190377  11.720   8.682   1.432
62848SOL    HW290378  11.837   8.629   1.352
62849SOL     OW90379   9.986  10.511   8.402
62849SOL    HW190380  10.063  10.460   8.426
62849SOL    HW290381   9.962  10.478   8.315
62850SOL     OW90382   1.038   1.327   3.723
62850SOL    HW190383   1.125   1.286   3.722
62850SOL    HW290384   0.998   1.301   3.640
62851SOL     OW90385   2.859   2.590  11.148
62851SOL    HW190386   2.870   2.651  11.076
62851SOL    HW290387   2.766   2.595  11.170
62852SOL     OW90388   7.038   0.094   6.510
62852SOL    HW190389   6.950   0.128   6.528
62852SOL    HW290390   7.063   0.048   6.590
62853SOL     OW90391   4.777   9.110  11.923
62853SOL    HW190392   4.767   9.017  11.900
62853SOL    HW290393   4.714   9.155  11.867
62854SOL     OW90394   5.890   2.649   1.261
62854SOL    HW190395   5.938   2.626   1.182
62854SOL    HW290396   5.813   2.593   1.260
62855SOL     OW90397   0.711  13.175   4.145
62855SOL    HW190398   0.700  13.166   4.050
62855SOL    HW290399   0.700  13.087   4.179
62856SOL     OW90400   7.543   0.936  12.161
62856SOL    HW190401   7.480   0.882  12.208
62856SOL    HW290402   7.492   1.010  12.128
62857SOL     OW90403   9.049   2.436   1.667
62857SOL    HW190404   9.000   2.513   1.637
62857SOL    HW290405   9.068   2.453   1.759
62858SOL     OW90406  10.846   2.752   8.684
62858SOL    HW190407  10.887   2.722   8.603
62858SOL    HW290408  10.759   2.712   8.682
62859SOL     OW90409   9.124   6.335   5.605
62859SOL    HW190410   9.127   6.325   5.510
62859SOL    HW290411   9.127   6.430   5.620
62860SOL     OW90412   3.327   1.446   2.157
62860SOL    HW190413   3.242   1.406   2.140
62860SOL    HW290414   3.330   1.455   2.253
62861SOL     OW90415  13.260  13.448  13.107
62861SOL    HW190416  13.266  13.542  13.091
62861SOL    HW290417  13.310  13.433  13.187
62862SOL     OW90418   1.823   5.817   9.619
62862SOL    HW190419   1.816   5.729   9.656
62862SOL    HW290420   1.733   5.843   9.603
62863SOL     OW90421   1.067   1.262  10.131
62863SOL    HW190422   1.093   1.296  10.216
62863SOL    HW290423   1.012   1.186  10.151
62864SOL     OW90424   9.993   2.475   0.474
62864SOL    HW190425   9.992   2.434   0.561
62864SOL    HW290426  10.073   2.527   0.472
62865SOL     OW90427  12.626   5.015   1.787
62865SOL    HW190428  12.601   5.030   1.878
62865SOL    HW290429  12.640   4.921   1.780
62866SOL     OW90430   3.754  10.635  11.473
62866SOL    HW190431   3.703  10.684  11.538
62866SOL    HW290432   3.835  10.685  11.463
62867SOL     OW90433  11.097  11.009  14.328
62867SOL    HW190434  11.113  11.056  14.410
62867SOL    HW290435  11.003  11.013  14.316
62868SOL     OW90436   5.393   3.700   0.783
62868SOL    HW190437   5.405   3.615   0.825
62868SOL    HW290438   5.406   3.683   0.690
62869SOL     OW90439  10.265  10.804   0.154
62869SOL    HW190440  10.200  10.737   0.134
62869SOL    HW290441  10.216  10.873   0.199
62870SOL     OW90442   8.308  12.318  10.367
62870SOL    HW190443   8.237  12.316  10.431
62870SOL    HW290444   8.387  12.337  10.418
62871SOL     OW90445   7.712  10.609   1.388
62871SOL    HW190446   7.662  10.551   1.445
62871SOL    HW290447   7.675  10.594   1.301
62872SOL     OW90448  10.445   8.343   1.087
62872SOL    HW190449  10.432   8.438   1.085
62872SOL    HW290450  10.380   8.312   1.150
62873SOL     OW90451   8.220   9.349   3.740
62873SOL    HW190452   8.127   9.334   3.759
62873SOL    HW290453   8.255   9.388   3.819
62874SOL     OW90454  12.522   0.896   5.769
62874SOL    HW190455  12.560   0.816   5.804
62874SOL    HW290456  12.596   0.942   5.729
62875SOL     OW90457  13.287   6.291   6.921
62875SOL    HW190458  13.313   6.368   6.972
62875SOL    HW290459  13.200   6.313   6.888
62876SOL     OW90460   2.406   2.898   7.871
62876SOL    HW190461   2.447   2.847   7.940
62876SOL    HW290462   2.380   2.834   7.805
62877SOL     OW90463   5.440   0.613   3.532
62877SOL    HW190464   5.357   0.644   3.568
62877SOL    HW290465   5.466   0.541   3.590
62878SOL     OW90466  10.428   7.266  12.968
62878SOL    HW190467  10.459   7.186  13.011
62878SOL    HW290468  10.378   7.234  12.893
62879SOL     OW90469  13.244   1.057   7.074
62879SOL    HW190470  13.196   1.118   7.017
62879SOL    HW290471  13.299   1.113   7.128
62880SOL     OW90472  13.657  12.299  11.586
62880SOL    HW190473  13.604  12.276  11.509
62880SOL    HW290474  13.665  12.394  11.582
62881SOL     OW90475   9.730  13.034   7.952
62881SOL    HW190476   9.672  13.050   7.877
62881SOL    HW290477   9.806  13.089   7.936
62882SOL     OW90478  12.874   6.376  10.675
62882SOL    HW190479  12.825   6.447  10.634
62882SOL    HW290480  12.850   6.379  10.767
62883SOL     OW90481   6.000  13.730   2.854
62883SOL    HW190482   5.908  13.756   2.854
62883SOL    HW290483   6.002  13.646   2.808
62884SOL     OW90484   3.936   6.290  10.568
62884SOL    HW190485   3.982   6.345  10.504
62884SOL    HW290486   4.005   6.234  10.604
62885SOL     OW90487   7.632   6.424  13.790
62885SOL    HW190488   7.587   6.501  13.756
62885SOL    HW290489   7.577   6.393  13.862
62886SOL     OW90490  10.310  10.087   1.656
62886SOL    HW190491  10.343  10.164   1.702
62886SOL    HW290492  10.226  10.115   1.619
62887SOL     OW90493   6.392   7.554   4.730
62887SOL    HW190494   6.467   7.520   4.682
62887SOL    HW290495   6.328   7.484   4.728
62888SOL     OW90496   6.197   1.557  10.676
62888SOL    HW190497   6.123   1.614  10.653
62888SOL    HW290498   6.223   1.587  10.763
62889SOL     OW90499   1.407   2.273   8.956
62889SOL    HW190500   1.355   2.262   9.036
62889SOL    HW290501   1.456   2.191   8.948
62890SOL     OW90502  14.727   6.914   0.640
62890SOL    HW190503  14.728   6.837   0.583
62890SOL    HW290504  14.811   6.910   0.686
62891SOL     OW90505   6.466  10.943   2.288
62891SOL    HW190506   6.381  10.986   2.278
62891SOL    HW290507   6.478  10.935   2.383
62892SOL     OW90508  10.961  14.077   7.140
62892SOL    HW190509  11.013  14.010   7.185
62892SOL    HW290510  11.023  14.147   7.120
62893SOL     OW90511   3.037  13.012  10.395
62893SOL    HW190512   3.093  12.998  10.319
62893SOL    HW290513   2.961  13.060  10.360
62894SOL     OW90514   5.036   3.035  14.278
62894SOL    HW190515   5.043   3.072  14.366
62894SOL    HW290516   5.046   2.940  14.290
62895SOL     OW90517  13.601   3.177   8.229
62895SOL    HW190518  13.574   3.256   8.182
62895SOL    HW290519  13.566   3.105   8.176
62896SOL     OW90520   5.651  13.031  12.386
62896SOL    HW190521   5.700  13.030  12.468
62896SOL    HW290522   5.649  13.123  12.359
62897SOL     OW90523  14.640  10.882   2.067
62897SOL    HW190524  14.556  10.845   2.039
62897SOL    HW290525  14.647  10.964   2.018
62898SOL     OW90526   9.182   8.783   7.590
62898SOL    HW190527   9.177   8.869   7.632
62898SOL    HW290528   9.091   8.761   7.568
62899SOL     OW90529   7.055   1.859   1.903
62899SOL    HW190530   7.002   1.864   1.983
62899SOL    HW290531   6.991   1.862   1.832
62900SOL     OW90532   9.953  13.156   0.606
62900SOL    HW190533   9.871  13.141   0.653
62900SOL    HW290534   9.952  13.249   0.584
62901SOL     OW90535  13.348   5.551   1.054
62901SOL    HW190536  13.402   5.584   0.982
62901SOL    HW290537  13.409   5.537   1.126
62902SOL     OW90538   1.138  11.891  11.396
62902SOL    HW190539   1.190  11.966  11.370
62902SOL    HW290540   1.202  11.823  11.416
62903SOL     OW90541   5.879  11.144   7.736
62903SOL    HW190542   5.971  11.145   7.762
62903SOL    HW290543   5.880  11.168   7.643
62904SOL     OW90544   0.602   6.256  10.825
62904SOL    HW190545   0.552   6.314  10.768
62904SOL    HW290546   0.647   6.315  10.886
62905SOL     OW90547   2.007   8.767  13.304
62905SOL    HW190548   1.960   8.711  13.242
62905SOL    HW290549   2.042   8.705  13.369
62906SOL     OW90550   2.015  12.857   9.697
62906SOL    HW190551   2.026  12.843   9.603
62906SOL    HW290552   1.968  12.779   9.728
62907SOL     OW90553   2.731   0.974   8.347
62907SOL    HW190554   2.824   0.953   8.355
62907SOL    HW290555   2.692   0.897   8.307
62908SOL     OW90556  13.979  13.659  14.805
62908SOL    HW190557  14.014  13.682  14.718
62908SOL    HW290558  14.045  13.693  14.866
62909SOL     OW90559  11.642   5.042   1.677
62909SOL    HW190560  11.588   5.117   1.701
62909SOL    HW290561  11.579   4.971   1.666
62910SOL     OW90562  10.043   1.148   7.467
62910SOL    HW190563  10.073   1.221   7.413
62910SOL    HW290564   9.948   1.162   7.476
62911SOL     OW90565   5.246   9.363  10.686
62911SOL    HW190566   5.294   9.293  10.730
62911SOL    HW290567   5.156   9.331  10.681
62912SOL     OW90568  11.334   9.769  10.868
62912SOL    HW190569  11.352   9.797  10.779
62912SOL    HW290570  11.333   9.673  10.863
62913SOL     OW90571   3.948   8.515   8.807
62913SOL    HW190572   3.880   8.460   8.767
62913SOL    HW290573   3.935   8.601   8.766
62914SOL     OW90574  13.908   9.106   1.346
62914SOL    HW190575  13.894   9.097   1.252
62914SOL    HW290576  13.854   9.036   1.384
62915SOL     OW90577  11.527   6.038   0.505
62915SOL    HW190578  11.486   6.108   0.453
62915SOL    HW290579  11.613   6.074   0.529
62916SOL     OW90580   7.412  10.603   1.955
62916SOL    HW190581   7.429  10.689   1.916
62916SOL    HW290582   7.455  10.541   1.896
62917SOL     OW90583  11.984  11.478  10.547
62917SOL    HW190584  12.008  11.571  10.542
62917SOL    HW290585  11.890  11.478  10.566
62918SOL     OW90586   7.469   8.631   8.721
62918SOL    HW190587   7.544   8.592   8.767
62918SOL    HW290588   7.480   8.602   8.630
62919SOL     OW90589  13.470  13.603  12.441
62919SOL    HW190590  13.476  13.600  12.345
62919SOL    HW290591  13.532  13.537  12.471
62920SOL     OW90592   0.323   1.562   1.297
62920SOL    HW190593   0.385   1.620   1.343
62920SOL    HW290594   0.237   1.586   1.332
62921SOL     OW90595   9.705   5.301   5.499
62921SOL    HW190596   9.618   5.342   5.497
62921SOL    HW290597   9.766   5.374   5.494
62922SOL     OW90598  10.514  13.910   3.087
62922SOL    HW190599  10.562  13.956   3.018
62922SOL    HW290600  10.579  13.897   3.157
62923SOL     OW90601   0.210   2.524   0.726
62923SOL    HW190602   0.178   2.444   0.685
62923SOL    HW290603   0.289   2.546   0.677
62924SOL     OW90604   4.898  11.039   3.059
62924SOL    HW190605   4.877  11.128   3.031
62924SOL    HW290606   4.954  11.050   3.136
62925SOL     OW90607   7.016   7.081  12.413
62925SOL    HW190608   6.947   7.074  12.347
62925SOL    HW290609   6.970   7.088  12.496
62926SOL     OW90610   7.882   7.132  10.399
62926SOL    HW190611   7.910   7.160  10.312
62926SOL    HW290612   7.803   7.080  10.382
62927SOL     OW90613  10.078   5.572  12.426
62927SOL    HW190614  10.002   5.549  12.480
62927SOL    HW290615  10.142   5.607  12.488
62928SOL     OW90616   0.298  12.121   8.621
62928SOL    HW190617   0.265  12.051   8.677
62928SOL    HW290618   0.357  12.171   8.678
62929SOL     OW90619   2.980   3.242   6.583
62929SOL    HW190620   2.989   3.192   6.501
62929SOL    HW290621   3.051   3.209   6.639
62930SOL     OW90622   5.105  13.071   7.699
62930SOL    HW190623   5.191  13.113   7.690
62930SOL    HW290624   5.121  12.997   7.759
62931SOL     OW90625  12.078  10.393   6.349
62931SOL    HW190626  12.168  10.379   6.320
62931SOL    HW290627  12.084  10.404   6.444
62932SOL     OW90628  10.032   3.136  12.919
62932SOL    HW190629  10.118   3.174  12.902
62932SOL    HW290630  10.050   3.054  12.966
62933SOL     OW90631   8.368   4.815   4.159
62933SOL    HW190632   8.453   4.771   4.156
62933SOL    HW290633   8.375   4.873   4.235
62934SOL     OW90634   7.569  12.339   3.885
62934SOL    HW190635   7.648  12.389   3.865
62934SOL    HW290636   7.535  12.378   3.965
62935SOL     OW90637   0.903   6.967   6.627
62935SOL    HW190638   0.975   6.977   6.689
62935SOL    HW290639   0.824   6.972   6.681
62936SOL     OW90640  10.571   2.282   0.181
62936SOL    HW190641  10.588   2.359   0.235
62936SOL    HW290642  10.654   2.236   0.177
62937SOL     OW90643   1.444  13.882   5.791
62937SOL    HW190644   1.525  13.894   5.742
62937SOL    HW290645   1.432  13.788   5.796
62938SOL     OW90646  11.738   0.892  13.367
62938SOL    HW190647  11.767   0.968  13.417
62938SOL    HW290648  11.726   0.925  13.278
62939SOL     OW90649   0.634   0.995  14.789
62939SOL    HW190650   0.591   0.931  14.846
62939SOL    HW290651   0.574   1.006  14.715
62940SOL     OW90652  12.674   5.961  13.888
62940SOL    HW190653  12.678   5.933  13.979
62940SOL    HW290654  12.683   5.880  13.838
62941SOL     OW90655  10.941   9.968  14.294
62941SOL    HW190656  10.956  10.024  14.370
62941SOL    HW290657  10.919  10.029  14.223
62942SOL     OW90658   3.189  11.635   5.822
62942SOL    HW190659   3.230  11.607   5.740
62942SOL    HW290660   3.150  11.720   5.802
62943SOL     OW90661   7.608  14.418   0.860
62943SOL    HW190662   7.513  14.408   0.863
62943SOL    HW290663   7.622  14.492   0.801
62944SOL     OW90664  12.394  10.255   1.994
62944SOL    HW190665  12.447  10.214   1.926
62944SOL    HW290666  12.395  10.348   1.972
62945SOL     OW90667   1.853  12.332   9.890
62945SOL    HW190668   1.822  12.361   9.804
62945SOL    HW290669   1.920  12.395   9.915
62946SOL     OW90670   7.778  13.484   6.464
62946SOL    HW190671   7.798  13.431   6.541
62946SOL    HW290672   7.682  13.486   6.461
62947SOL     OW90673  12.022   6.749  12.071
62947SOL    HW190674  12.007   6.677  12.009
62947SOL    HW290675  12.079   6.809  12.023
62948SOL     OW90676   8.130   0.232  11.427
62948SOL    HW190677   8.173   0.247  11.511
62948SOL    HW290678   8.042   0.203  11.449
62949SOL     OW90679   4.815  10.686   0.388
62949SOL    HW190680   4.777  10.668   0.302
62949SOL    HW290681   4.787  10.613   0.443
62950SOL     OW90682   4.282   1.277  11.751
62950SOL    HW190683   4.310   1.347  11.693
62950SOL    HW290684   4.363   1.231  11.773
62951SOL     OW90685   1.021   8.732  11.541
62951SOL    HW190686   1.101   8.700  11.499
62951SOL    HW290687   1.000   8.666  11.606
62952SOL     OW90688  10.352   1.891   5.205
62952SOL    HW190689  10.403   1.818   5.169
62952SOL    HW290690  10.341   1.869   5.298
62953SOL     OW90691  10.324   4.050   4.974
62953SOL    HW190692  10.406   4.060   4.926
62953SOL    HW290693  10.287   4.138   4.976
62954SOL     OW90694  10.244  12.367   4.346
62954SOL    HW190695  10.186  12.399   4.277
62954SOL    HW290696  10.266  12.278   4.318
62955SOL     OW90697  10.817  14.050   0.147
62955SOL    HW190698  10.762  14.121   0.181
62955SOL    HW290699  10.906  14.082   0.159
62956SOL     OW90700   0.043   5.441   0.574
62956SOL    HW190701   0.024   5.530   0.545
62956SOL    HW290702   0.123   5.417   0.528
62957SOL     OW90703  10.047  14.052  11.714
62957SOL    HW190704  10.077  14.132  11.758
62957SOL    HW290705  10.109  13.985  11.740
62958SOL     OW90706   6.049   8.761   2.218
62958SOL    HW190707   6.097   8.771   2.135
62958SOL    HW290708   6.111   8.716   2.276
62959SOL     OW90709   7.474   5.232   3.212
62959SOL    HW190710   7.452   5.161   3.153
62959SOL    HW290711   7.562   5.211   3.244
62960SOL     OW90712  14.153   6.252   6.462
62960SOL    HW190713  14.079   6.283   6.411
62960SOL    HW290714  14.162   6.159   6.440
62961SOL     OW90715  10.177   0.548  10.775
62961SOL    HW190716  10.177   0.468  10.828
62961SOL    HW290717  10.145   0.519  10.689
62962SOL     OW90718   2.361   2.421   5.238
62962SOL    HW190719   2.384   2.335   5.272
62962SOL    HW290720   2.440   2.453   5.196
62963SOL     OW90721  12.148  12.621  10.935
62963SOL    HW190722  12.173  12.710  10.908
62963SOL    HW290723  12.231  12.575  10.946
62964SOL     OW90724   1.737   2.267  14.152
62964SOL    HW190725   1.785   2.235  14.075
62964SOL    HW290726   1.783   2.227  14.226
62965SOL     OW90727   1.818  10.991   1.986
62965SOL    HW190728   1.727  10.984   1.957
62965SOL    HW290729   1.866  10.932   1.928
62966SOL     OW90730  14.678  11.567  11.687
62966SOL    HW190731  14.685  11.571  11.783
62966SOL    HW290732  14.661  11.475  11.669
62967SOL     OW90733   6.788   8.074  10.514
62967SOL    HW190734   6.805   8.130  10.589
62967SOL    HW290735   6.810   8.128  10.438
62968SOL     OW90736   9.113   4.409   9.483
62968SOL    HW190737   9.107   4.479   9.548
62968SOL    HW290738   9.204   4.412   9.453
62969SOL     OW90739   1.162  13.567   6.328
62969SOL    HW190740   1.121  13.641   6.372
62969SOL    HW290741   1.114  13.558   6.245
62970SOL     OW90742   1.161   9.615  13.248
62970SOL    HW190743   1.128   9.552  13.312
62970SOL    HW290744   1.246   9.642  13.282
62971SOL     OW90745  13.563   9.912   1.941
62971SOL    HW190746  13.476   9.885   1.911
62971SOL    HW290747  13.612   9.830   1.947
62972SOL     OW90748   0.339   0.664   6.183
62972SOL    HW190749   0.328   0.570   6.197
62972SOL    HW290750   0.432   0.681   6.199
62973SOL     OW90751   2.286   4.629  11.034
62973SOL    HW190752   2.229   4.645  10.959
62973SOL    HW290753   2.375   4.628  10.998
62974SOL     OW90754  12.039   4.883   1.593
62974SOL    HW190755  12.021   4.818   1.661
62974SOL    HW290756  11.952   4.909   1.561
62975SOL     OW90757   2.879  14.462  14.308
62975SOL    HW190758   2.926  14.531  14.262
62975SOL    HW290759   2.803  14.444  14.253
62976SOL     OW90760  11.279  11.592   1.647
62976SOL    HW190761  11.243  11.555   1.566
62976SOL    HW290762  11.230  11.673   1.660
62977SOL     OW90763   0.110  14.456  14.826
62977SOL    HW190764   0.195  14.412  14.820
62977SOL    HW290765   0.078  14.456  14.736
62978SOL     OW90766  10.846   6.908   9.231
62978SOL    HW190767  10.835   7.003   9.228
62978SOL    HW290768  10.941   6.894   9.233
62979SOL     OW90769   7.592   5.652  13.451
62979SOL    HW190770   7.685   5.643  13.469
62979SOL    HW290771   7.557   5.564  13.460
62980SOL     OW90772   8.055  12.316  14.765
62980SOL    HW190773   8.147  12.327  14.740
62980SOL    HW290774   8.041  12.383  14.832
62981SOL     OW90775   0.812  11.129   3.671
62981SOL    HW190776   0.865  11.166   3.742
62981SOL    HW290777   0.831  11.183   3.595
62982SOL     OW90778  13.705   3.332   9.784
62982SOL    HW190779  13.775   3.291   9.733
62982SOL    HW290780  13.747   3.402   9.832
62983SOL     OW90781   7.699   8.280  11.508
62983SOL    HW190782   7.622   8.270  11.563
62983SOL    HW290783   7.707   8.374  11.494
62984SOL     OW90784  11.883  13.196   7.150
62984SOL    HW190785  11.853  13.192   7.059
62984SOL    HW290786  11.970  13.155   7.149
62985SOL     OW90787  13.241  11.748  14.155
62985SOL    HW190788  13.192  11.706  14.084
62985SOL    HW290789  13.311  11.686  14.175
62986SOL     OW90790   7.953  11.101   2.171
62986SOL    HW190791   7.984  11.188   2.195
62986SOL    HW290792   7.956  11.051   2.252
62987SOL     OW90793  10.989   1.084  10.948
62987SOL    HW190794  11.002   1.136  11.028
62987SOL    HW290795  10.914   1.126  10.905
62988SOL     OW90796  13.363   4.950   6.778
62988SOL    HW190797  13.269   4.964   6.769
62988SOL    HW290798  13.372   4.858   6.801
62989SOL     OW90799   7.049   6.119   2.755
62989SOL    HW190800   7.121   6.122   2.819
62989SOL    HW290801   7.031   6.026   2.743
62990SOL     OW90802   2.455  12.525   0.524
62990SOL    HW190803   2.434  12.518   0.431
62990SOL    HW290804   2.402  12.599   0.555
62991SOL     OW90805   7.298  10.369  13.529
62991SOL    HW190806   7.220  10.333  13.571
62991SOL    HW290807   7.358  10.388  13.601
62992SOL     OW90808  13.467  11.925   4.226
62992SOL    HW190809  13.422  12.005   4.201
62992SOL    HW290810  13.556  11.936   4.193
62993SOL     OW90811   7.502   2.014  14.665
62993SOL    HW190812   7.411   1.997  14.642
62993SOL    HW290813   7.505   2.108  14.682
62994SOL     OW90814  11.869   4.794   3.549
62994SOL    HW190815  11.850   4.858   3.481
62994SOL    HW290816  11.792   4.795   3.606
62995SOL     OW90817   1.677  14.130   8.074
62995SOL    HW190818   1.661  14.115   7.980
62995SOL    HW290819   1.630  14.211   8.093
62996SOL     OW90820   2.169   9.718  13.801
62996SOL    HW190821   2.134   9.753  13.883
62996SOL    HW290822   2.186   9.626  13.819
62997SOL     OW90823  13.910  12.159   5.748
62997SOL    HW190824  13.907  12.212   5.828
62997SOL    HW290825  13.933  12.221   5.679
62998SOL     OW90826   4.177   9.292   6.666
62998SOL    HW190827   4.231   9.235   6.721
62998SOL    HW290828   4.196   9.381   6.697
62999SOL     OW90829  10.837   7.667   8.806
62999SOL    HW190830  10.839   7.591   8.747
62999SOL    HW290831  10.765   7.720   8.774
63000SOL     OW90832   6.592   3.294   2.616
63000SOL    HW190833   6.624   3.383   2.632
63000SOL    HW290834   6.596   3.252   2.702
63001SOL     OW90835  11.066  14.070   5.243
63001SOL    HW190836  11.065  14.019   5.324
63001SOL    HW290837  10.978  14.061   5.208
63002SOL     OW90838   6.006  11.459   6.460
63002SOL    HW190839   6.041  11.374   6.487
63002SOL    HW290840   5.959  11.441   6.378
63003SOL     OW90841   1.684   0.865   2.689
63003SOL    HW190842   1.743   0.790   2.681
63003SOL    HW290843   1.741   0.938   2.714
63004SOL     OW90844   3.851  11.287  13.028
63004SOL    HW190845   3.808  11.202  13.025
63004SOL    HW290846   3.887  11.299  12.940
63005SOL     OW90847   7.029   7.601   1.094
63005SOL    HW190848   6.958   7.626   1.034
63005SOL    HW290849   7.057   7.515   1.064
63006SOL     OW90850   8.926   2.212  12.439
63006SOL    HW190851   9.014   2.184  12.415
63006SOL    HW290852   8.886   2.240  12.357
63007SOL     OW90853   5.051   1.025  13.628
63007SOL    HW190854   5.130   1.028  13.681
63007SOL    HW290855   5.034   1.116  13.605
63008SOL     OW90856  13.873  10.134   3.188
63008SOL    HW190857  13.931  10.090   3.250
63008SOL    HW290858  13.901  10.226   3.190
63009SOL     OW90859   8.059   4.320   3.139
63009SOL    HW190860   8.128   4.375   3.175
63009SOL    HW290861   8.073   4.322   3.044
63010SOL     OW90862   0.629   4.656  13.449
63010SOL    HW190863   0.713   4.693  13.476
63010SOL    HW290864   0.584   4.637  13.532
63011SOL     OW90865   7.144   2.710   2.973
63011SOL    HW190866   7.201   2.676   2.904
63011SOL    HW290867   7.154   2.805   2.968
63012SOL     OW90868  10.417   4.657   8.489
63012SOL    HW190869  10.417   4.735   8.434
63012SOL    HW290870  10.328   4.653   8.525
63013SOL     OW90871  11.235   5.949   5.472
63013SOL    HW190872  11.209   5.876   5.529
63013SOL    HW290873  11.152   5.991   5.448
63014SOL     OW90874   2.457  11.417   8.318
63014SOL    HW190875   2.403  11.397   8.241
63014SOL    HW290876   2.398  11.404   8.392
63015SOL     OW90877   2.068  12.152  12.538
63015SOL    HW190878   2.093  12.060  12.532
63015SOL    HW290879   1.980  12.155  12.500
63016SOL     OW90880  10.807   9.941   0.039
63016SOL    HW190881  10.789   9.847   0.027
63016SOL    HW290882  10.798   9.955   0.133
63017SOL     OW90883   0.555   3.700  10.967
63017SOL    HW190884   0.501   3.622  10.978
63017SOL    HW290885   0.644   3.666  10.959
63018SOL     OW90886   8.190   3.776   2.770
63018SOL    HW190887   8.153   3.862   2.791
63018SOL    HW290888   8.177   3.768   2.675
63019SOL     OW90889   4.991   4.322   1.944
63019SOL    HW190890   4.936   4.260   1.896
63019SOL    HW290891   5.003   4.396   1.885
63020SOL     OW90892  11.364   5.026   8.799
63020SOL    HW190893  11.290   4.965   8.800
63020SOL    HW290894  11.369   5.055   8.708
63021SOL     OW90895   4.404  11.442   5.023
63021SOL    HW190896   4.474  11.386   5.056
63021SOL    HW290897   4.450  11.509   4.971
63022SOL     OW90898  10.531  14.203   6.990
63022SOL    HW190899  10.463  14.217   6.924
63022SOL    HW290900  10.613  14.218   6.944
63023SOL     OW90901   9.505   1.667   5.540
63023SOL    HW190902   9.429   1.660   5.482
63023SOL    HW290903   9.543   1.753   5.520
63024SOL     OW90904   4.308  12.174   6.043
63024SOL    HW190905   4.389  12.219   6.066
63024SOL    HW290906   4.270  12.148   6.127
63025SOL     OW90907   2.912   0.242   1.175
63025SOL    HW190908   2.865   0.217   1.095
63025SOL    HW290909   2.877   0.328   1.198
63026SOL     OW90910   4.742   1.130  10.182
63026SOL    HW190911   4.733   1.211  10.132
63026SOL    HW290912   4.821   1.089  10.147
63027SOL     OW90913   7.777   6.801  12.675
63027SOL    HW190914   7.774   6.786  12.770
63027SOL    HW290915   7.688   6.827  12.653
63028SOL     OW90916  10.145   9.465  13.765
63028SOL    HW190917  10.163   9.440  13.674
63028SOL    HW290918  10.075   9.530  13.759
63029SOL     OW90919   5.467  11.643   1.056
63029SOL    HW190920   5.419  11.674   1.133
63029SOL    HW290921   5.557  11.631   1.087
63030SOL     OW90922  10.585   7.205   7.629
63030SOL    HW190923  10.529   7.283   7.633
63030SOL    HW290924  10.557   7.160   7.550
63031SOL     OW90925   0.027  11.275   4.008
63031SOL    HW190926  14.833  11.299   4.073
63031SOL    HW290927  14.863  11.199   3.963
63032SOL     OW90928   9.271  10.368   7.179
63032SOL    HW190929   9.213  10.325   7.242
63032SOL    HW290930   9.285  10.455   7.215
63033SOL     OW90931   9.558   6.717   4.121
63033SOL    HW190932   9.502   6.684   4.051
63033SOL    HW290933   9.543   6.811   4.121
63034SOL     OW90934   9.080  10.544   4.237
63034SOL    HW190935   9.136  10.469   4.217
63034SOL    HW290936   9.038  10.521   4.320
63035SOL     OW90937   0.143   5.704   9.366
63035SOL    HW190938   0.065   5.760   9.368
63035SOL    HW290939   0.110   5.616   9.383
63036SOL     OW90940  12.822   2.941  14.711
63036SOL    HW190941  12.897   2.994  14.684
63036SOL    HW290942  12.824   2.865  14.653
63037SOL     OW90943   8.727   2.748  10.074
63037SOL    HW190944   8.801   2.808  10.080
63037SOL    HW290945   8.765   2.662  10.089
63038SOL     OW90946  11.301  11.483  14.605
63038SOL    HW190947  11.251  11.563  14.625
63038SOL    HW290948  11.354  11.506  14.529
63039SOL     OW90949  12.614   5.948   0.714
63039SOL    HW190950  12.663   6.001   0.776
63039SOL    HW290951  12.585   5.872   0.764
63040SOL     OW90952   5.103  14.172  12.194
63040SOL    HW190953   5.157  14.094  12.193
63040SOL    HW290954   5.116  14.209  12.282
63041SOL     OW90955   3.934   0.977  14.172
63041SOL    HW190956   3.842   1.003  14.165
63041SOL    HW290957   3.948   0.963  14.266
63042SOL     OW90958  14.597   4.507   8.621
63042SOL    HW190959  14.606   4.526   8.528
63042SOL    HW290960  14.614   4.413   8.629
63043SOL     OW90961   7.259   3.494   4.554
63043SOL    HW190962   7.330   3.452   4.506
63043SOL    HW290963   7.301   3.528   4.633
63044SOL     OW90964   3.593   4.703   4.114
63044SOL    HW190965   3.540   4.624   4.102
63044SOL    HW290966   3.533   4.765   4.156
63045SOL     OW90967   1.901   8.145  14.564
63045SOL    HW190968   1.887   8.234  14.597
63045SOL    HW290969   1.995   8.138  14.553
63046SOL     OW90970   0.857   7.487  13.629
63046SOL    HW190971   0.875   7.393  13.642
63046SOL    HW290972   0.798   7.509  13.701
63047SOL     OW90973   5.577   6.723   2.485
63047SOL    HW190974   5.542   6.657   2.546
63047SOL    HW290975   5.499   6.759   2.442
63048SOL     OW90976   1.225   6.207  13.405
63048SOL    HW190977   1.178   6.291  13.404
63048SOL    HW290978   1.247   6.193  13.496
63049SOL     OW90979   2.598   6.587   9.746
63049SOL    HW190980   2.551   6.551   9.820
63049SOL    HW290981   2.608   6.680   9.767
63050SOL     OW90982   4.137  13.224   0.489
63050SOL    HW190983   4.056  13.175   0.501
63050SOL    HW290984   4.199  13.161   0.454
63051SOL     OW90985  10.407   4.301  10.899
63051SOL    HW190986  10.391   4.378  10.953
63051SOL    HW290987  10.399   4.227  10.960
63052SOL     OW90988   8.608   6.498   6.199
63052SOL    HW190989   8.588   6.547   6.279
63052SOL    HW290990   8.686   6.447   6.221
63053SOL     OW90991   3.397   4.768   1.097
63053SOL    HW190992   3.441   4.686   1.071
63053SOL    HW290993   3.392   4.764   1.192
63054SOL     OW90994   8.426  13.944   0.884
63054SOL    HW190995   8.354  13.894   0.922
63054SOL    HW290996   8.387  13.990   0.810
63055SOL     OW90997   8.966   5.308  10.284
63055SOL    HW190998   8.965   5.267  10.197
63055SOL    HW290999   9.056   5.336  10.297
63056SOL     OW91000  10.618   7.920   3.225
63056SOL    HW191001  10.684   7.986   3.246
63056SOL    HW291002  10.627   7.854   3.294
63057SOL     OW91003   0.739   1.960   7.550
63057SOL    HW191004   0.702   1.990   7.633
63057SOL    HW291005   0.736   1.865   7.556
63058SOL     OW91006   5.357   2.678   2.443
63058SOL    HW191007   5.393   2.729   2.371
63058SOL    HW291008   5.296   2.617   2.402
63059SOL     OW91009  11.368   3.757   3.361
63059SOL    HW191010  11.342   3.774   3.270
63059SOL    HW291011  11.366   3.662   3.369
63060SOL     OW91012   3.790  13.170   4.851
63060SOL    HW191013   3.732  13.155   4.776
63060SOL    HW291014   3.789  13.088   4.899
63061SOL     OW91015   0.612  13.541   8.091
63061SOL    HW191016   0.665  13.600   8.144
63061SOL    HW291017   0.629  13.454   8.128
63062SOL     OW91018   8.002   0.304   4.719
63062SOL    HW191019   8.009   0.209   4.726
63062SOL    HW291020   7.913   0.324   4.748
63063SOL     OW91021   3.049   9.614   6.461
63063SOL    HW191022   3.041   9.709   6.474
63063SOL    HW291023   3.027   9.600   6.369
63064SOL     OW91024  12.224   7.784   4.239
63064SOL    HW191025  12.221   7.856   4.302
63064SOL    HW291026  12.285   7.721   4.278
63065SOL     OW91027   5.500  10.050   8.278
63065SOL    HW191028   5.456  10.135   8.271
63065SOL    HW291029   5.590  10.067   8.252
63066SOL     OW91030   1.203  12.920  12.162
63066SOL    HW191031   1.186  12.878  12.078
63066SOL    HW291032   1.296  12.943  12.159
63067SOL     OW91033   6.262   1.122   8.802
63067SOL    HW191034   6.337   1.123   8.743
63067SOL    HW291035   6.202   1.058   8.764
63068SOL     OW91036   9.453   8.276   4.596
63068SOL    HW191037   9.429   8.225   4.518
63068SOL    HW291038   9.457   8.366   4.565
63069SOL     OW91039   6.245   4.368   8.346
63069SOL    HW191040   6.311   4.313   8.391
63069SOL    HW291041   6.218   4.315   8.271
63070SOL     OW91042  12.628   2.893   8.519
63070SOL    HW191043  12.580   2.831   8.464
63070SOL    HW291044  12.566   2.965   8.532
63071SOL     OW91045  14.813  12.758   1.977
63071SOL    HW191046  14.848  12.794   2.058
63071SOL    HW291047  14.724  12.795   1.971
63072SOL     OW91048   1.133   0.203  10.626
63072SOL    HW191049   1.063   0.191  10.562
63072SOL    HW291050   1.205   0.150  10.592
63073SOL     OW91051   1.530   5.740   4.710
63073SOL    HW191052   1.497   5.726   4.621
63073SOL    HW291053   1.517   5.656   4.755
63074SOL     OW91054  13.895   6.308   4.993
63074SOL    HW191055  13.907   6.324   4.899
63074SOL    HW291056  13.975   6.341   5.033
63075SOL     OW91057   7.885  12.652  12.095
63075SOL    HW191058   7.799  12.670  12.135
63075SOL    HW291059   7.903  12.729  12.042
63076SOL     OW91060  12.176   8.659   9.260
63076SOL    HW191061  12.228   8.703   9.193
63076SOL    HW291062  12.237   8.600   9.303
63077SOL     OW91063  14.491   6.512   4.096
63077SOL    HW191064  14.490   6.605   4.075
63077SOL    HW291065  14.459   6.469   4.017
63078SOL     OW91066   0.487  14.197  10.688
63078SOL    HW191067   0.457  14.248  10.763
63078SOL    HW291068   0.448  14.110  10.700
63079SOL     OW91069   8.293   6.377   1.777
63079SOL    HW191070   8.243   6.349   1.700
63079SOL    HW291071   8.235   6.437   1.824
63080SOL     OW91072   2.631   4.914   1.810
63080SOL    HW191073   2.666   4.963   1.885
63080SOL    HW291074   2.612   4.982   1.745
63081SOL     OW91075   0.332   5.619  11.108
63081SOL    HW191076   0.239   5.632  11.088
63081SOL    HW291077   0.361   5.703  11.145
63082SOL     OW91078   0.395   9.094  10.417
63082SOL    HW191079   0.303   9.078  10.438
63082SOL    HW291080   0.435   9.007  10.415
63083SOL     OW91081  12.115   2.479   9.464
63083SOL    HW191082  12.192   2.525   9.497
63083SOL    HW291083  12.138   2.452   9.375
63084SOL     OW91084   7.423  12.922   3.830
63084SOL    HW191085   7.484  12.869   3.879
63084SOL    HW291086   7.457  12.923   3.740
63085SOL     OW91087  13.306   7.092  12.980
63085SOL    HW191088  13.319   7.163  13.042
63085SOL    HW291089  13.370   7.025  13.005
63086SOL     OW91090   3.857   1.213   7.433
63086SOL    HW191091   3.804   1.260   7.498
63086SOL    HW291092   3.809   1.131   7.419
63087SOL     OW91093   3.394   1.235   0.393
63087SOL    HW191094   3.401   1.168   0.324
63087SOL    HW291095   3.435   1.194   0.469
63088SOL     OW91096  11.379   3.279   9.034
63088SOL    HW191097  11.345   3.338   9.102
63088SOL    HW291098  11.452   3.327   8.995
63089SOL     OW91099  13.953   0.197  14.523
63089SOL    HW191100  14.001   0.115  14.517
63089SOL    HW291101  13.873   0.175  14.570
63090SOL     OW91102   5.588  12.912  14.109
63090SOL    HW191103   5.586  12.895  14.015
63090SOL    HW291104   5.552  13.001  14.118
63091SOL     OW91105   0.666  11.495   9.581
63091SOL    HW191106   0.669  11.421   9.642
63091SOL    HW291107   0.620  11.564   9.629
63092SOL     OW91108   5.566   1.634  10.244
63092SOL    HW191109   5.586   1.693  10.172
63092SOL    HW291110   5.496   1.578  10.210
63093SOL     OW91111  12.773   1.425  11.770
63093SOL    HW191112  12.833   1.430  11.696
63093SOL    HW291113  12.818   1.472  11.840
63094SOL     OW91114   1.628   7.208   2.902
63094SOL    HW191115   1.542   7.227   2.939
63094SOL    HW291116   1.619   7.120   2.866
63095SOL     OW91117   3.681   6.896   3.036
63095SOL    HW191118   3.645   6.870   3.121
63095SOL    HW291119   3.727   6.978   3.053
63096SOL     OW91120  10.942   9.993   6.582
63096SOL    HW191121  10.987  10.075   6.566
63096SOL    HW291122  10.876  10.015   6.648
63097SOL     OW91123   4.235   7.218   2.289
63097SOL    HW191124   4.314   7.166   2.301
63097SOL    HW291125   4.266   7.301   2.253
63098SOL     OW91126   2.622   7.666  10.127
63098SOL    HW191127   2.589   7.746  10.085
63098SOL    HW291128   2.603   7.597  10.064
63099SOL     OW91129   8.945   4.227   2.791
63099SOL    HW191130   8.903   4.160   2.737
63099SOL    HW291131   9.003   4.177   2.850
63100SOL     OW91132   6.279   4.107   9.161
63100SOL    HW191133   6.249   4.197   9.171
63100SOL    HW291134   6.307   4.101   9.070
63101SOL     OW91135   6.097   4.632   5.100
63101SOL    HW191136   6.117   4.723   5.077
63101SOL    HW291137   6.173   4.582   5.071
63102SOL     OW91138   4.487   9.294  10.495
63102SOL    HW191139   4.583   9.301  10.490
63102SOL    HW291140   4.467   9.212  10.450
63103SOL     OW91141  12.107  10.767   2.933
63103SOL    HW191142  12.152  10.847   2.906
63103SOL    HW291143  12.131  10.756   3.025
63104SOL     OW91144   4.672   3.020  13.027
63104SOL    HW191145   4.641   2.977  13.107
63104SOL    HW291146   4.616   3.097  13.018
63105SOL     OW91147   5.573   2.084   4.380
63105SOL    HW191148   5.649   2.110   4.433
63105SOL    HW291149   5.608   2.019   4.319
63106SOL     OW91150  13.168  11.548  10.528
63106SOL    HW191151  13.198  11.488  10.460
63106SOL    HW291152  13.089  11.588  10.492
63107SOL     OW91153   9.374   7.018  14.115
63107SOL    HW191154   9.440   7.007  14.183
63107SOL    HW291155   9.410   7.086  14.058
63108SOL     OW91156   8.899   1.256   0.223
63108SOL    HW191157   8.823   1.230   0.275
63108SOL    HW291158   8.897   1.197   0.147
63109SOL     OW91159  10.806   3.100   9.887
63109SOL    HW191160  10.824   3.023   9.833
63109SOL    HW291161  10.766   3.065   9.967
63110SOL     OW91162   4.507   1.754   4.174
63110SOL    HW191163   4.470   1.683   4.121
63110SOL    HW291164   4.560   1.805   4.114
63111SOL     OW91165   8.398   9.519   6.247
63111SOL    HW191166   8.367   9.536   6.336
63111SOL    HW291167   8.477   9.573   6.238
63112SOL     OW91168   5.237  13.435  14.856
63112SOL    HW191169   5.170  13.502  14.870
63112SOL    HW291170   5.187  13.359  14.826
63113SOL     OW91171  11.455   6.817  14.542
63113SOL    HW191172  11.536   6.866  14.557
63113SOL    HW291173  11.480   6.750  14.479
63114SOL     OW91174  10.728   8.946   9.131
63114SOL    HW191175  10.728   9.030   9.177
63114SOL    HW291176  10.707   8.882   9.198
63115SOL     OW91177  14.872  14.364  11.580
63115SOL    HW191178   0.002  14.387  11.673
63115SOL    HW291179   0.076  14.407  11.543
63116SOL     OW91180   1.867  10.649   5.833
63116SOL    HW191181   1.891  10.592   5.759
63116SOL    HW291182   1.774  10.668   5.820
63117SOL     OW91183   2.615  10.566   3.827
63117SOL    HW191184   2.630  10.541   3.736
63117SOL    HW291185   2.670  10.506   3.878
63118SOL     OW91186  13.641   3.453   3.268
63118SOL    HW191187  13.668   3.470   3.178
63118SOL    HW291188  13.599   3.534   3.296
63119SOL     OW91189   4.297   0.397   4.815
63119SOL    HW191190   4.330   0.325   4.761
63119SOL    HW291191   4.211   0.416   4.778
63120SOL     OW91192   9.533   6.607  14.459
63120SOL    HW191193   9.624   6.634  14.469
63120SOL    HW291194   9.529   6.519  14.496
63121SOL     OW91195   0.298   6.135   7.491
63121SOL    HW191196   0.270   6.048   7.463
63121SOL    HW291197   0.370   6.119   7.552
63122SOL     OW91198  10.418   2.506  10.844
63122SOL    HW191199  10.444   2.414  10.839
63122SOL    HW291200  10.463   2.538  10.922
63123SOL     OW91201  10.419  13.039  10.132
63123SOL    HW191202  10.354  13.059  10.065
63123SOL    HW291203  10.418  12.944  10.139
63124SOL     OW91204   9.779   9.510  10.971
63124SOL    HW191205   9.870   9.530  10.949
63124SOL    HW291206   9.747   9.461  10.895
63125SOL     OW91207  14.281  10.922   6.442
63125SOL    HW191208  14.216  10.973   6.393
63125SOL    HW291209  14.235  10.843   6.467
63126SOL     OW91210  10.079   8.055  12.819
63126SOL    HW191211  10.170   8.061  12.790
63126SOL    HW291212  10.060   8.141  12.857
63127SOL     OW91213   0.437   0.815   8.932
63127SOL    HW191214   0.402   0.902   8.914
63127SOL    HW291215   0.429   0.768   8.849
63128SOL     OW91216  12.851  13.558   3.303
63128SOL    HW191217  12.877  13.543   3.394
63128SOL    HW291218  12.910  13.626   3.271
63129SOL     OW91219  12.538   3.071  14.219
63129SOL    HW191220  12.613   3.038  14.169
63129SOL    HW291221  12.543   3.024  14.303
63130SOL     OW91222  14.228   0.095   6.472
63130SOL    HW191223  14.320   0.112   6.452
63130SOL    HW291224  14.196   0.177   6.509
63131SOL     OW91225  12.816  14.207  12.133
63131SOL    HW191226  12.735  14.157  12.141
63131SOL    HW291227  12.789  14.291  12.097
63132SOL     OW91228  11.923   0.359   2.863
63132SOL    HW191229  11.996   0.397   2.912
63132SOL    HW291230  11.847   0.412   2.887
63133SOL     OW91231   4.866   1.037  13.114
63133SOL    HW191232   4.886   0.958  13.164
63133SOL    HW291233   4.930   1.037  13.043
63134SOL     OW91234   9.444   8.352   2.562
63134SOL    HW191235   9.465   8.433   2.515
63134SOL    HW291236   9.527   8.325   2.601
63135SOL     OW91237   6.366  14.162   7.511
63135SOL    HW191238   6.367  14.067   7.516
63135SOL    HW291239   6.450  14.190   7.547
63136SOL     OW91240  10.920  13.775  11.817
63136SOL    HW191241  10.902  13.824  11.897
63136SOL    HW291242  11.001  13.813  11.784
63137SOL     OW91243  11.596   8.397   7.438
63137SOL    HW191244  11.587   8.345   7.358
63137SOL    HW291245  11.521   8.456   7.436
63138SOL     OW91246  10.474   8.485   3.124
63138SOL    HW191247  10.398   8.432   3.149
63138SOL    HW291248  10.497   8.534   3.203
63139SOL     OW91249   6.631   4.521  11.037
63139SOL    HW191250   6.578   4.466  11.094
63139SOL    HW291251   6.618   4.610  11.070
63140SOL     OW91252  12.704  14.213   0.858
63140SOL    HW191253  12.770  14.272   0.823
63140SOL    HW291254  12.747  14.128   0.861
63141SOL     OW91255  12.922  14.691  10.201
63141SOL    HW191256  12.939  14.731  10.287
63141SOL    HW291257  12.964  14.605  10.206
63142SOL     OW91258  10.447   2.301   4.307
63142SOL    HW191259  10.395   2.222   4.321
63142SOL    HW291260  10.395   2.371   4.348
63143SOL     OW91261  14.441  10.618   8.304
63143SOL    HW191262  14.456  10.531   8.266
63143SOL    HW291263  14.449  10.605   8.398
63144SOL     OW91264  12.243   7.722   2.123
63144SOL    HW191265  12.191   7.802   2.109
63144SOL    HW291266  12.179   7.651   2.119
63145SOL     OW91267   8.207   0.127   2.270
63145SOL    HW191268   8.128   0.091   2.311
63145SOL    HW291269   8.243   0.055   2.218
63146SOL     OW91270   0.902  13.666   0.706
63146SOL    HW191271   0.894  13.709   0.621
63146SOL    HW291272   0.849  13.720   0.765
63147SOL     OW91273   8.304  11.446   8.624
63147SOL    HW191274   8.383  11.394   8.612
63147SOL    HW291275   8.238  11.403   8.569
63148SOL     OW91276   4.126   3.345   8.414
63148SOL    HW191277   4.144   3.390   8.331
63148SOL    HW291278   4.102   3.256   8.388
63149SOL     OW91279  10.438   0.934  12.379
63149SOL    HW191280  10.389   0.855  12.355
63149SOL    HW291281  10.484   0.959  12.298
63150SOL     OW91282  14.844   2.284   6.248
63150SOL    HW191283   0.004   2.339   6.319
63150SOL    HW291284   0.013   2.319   6.169
63151SOL     OW91285   2.314   8.588   8.559
63151SOL    HW191286   2.295   8.598   8.652
63151SOL    HW291287   2.355   8.502   8.552
63152SOL     OW91288  13.453   7.086  14.270
63152SOL    HW191289  13.436   7.031  14.346
63152SOL    HW291290  13.379   7.146  14.266
63153SOL     OW91291   7.696  13.439  14.200
63153SOL    HW191292   7.670  13.412  14.288
63153SOL    HW291293   7.784  13.475  14.211
63154SOL     OW91294  14.205   2.500   7.931
63154SOL    HW191295  14.120   2.542   7.947
63154SOL    HW291296  14.257   2.522   8.008
63155SOL     OW91297   7.394   5.820  14.102
63155SOL    HW191298   7.431   5.814  14.190
63155SOL    HW291299   7.305   5.786  14.111
63156SOL     OW91300  10.438  11.299   9.106
63156SOL    HW191301  10.501  11.232   9.135
63156SOL    HW291302  10.488  11.380   9.104
63157SOL     OW91303   8.808   2.887   2.868
63157SOL    HW191304   8.713   2.876   2.881
63157SOL    HW291305   8.815   2.960   2.807
63158SOL     OW91306   3.613   8.415   6.888
63158SOL    HW191307   3.702   8.426   6.921
63158SOL    HW291308   3.589   8.501   6.854
63159SOL     OW91309   3.089   6.701  10.718
63159SOL    HW191310   3.040   6.666  10.644
63159SOL    HW291311   3.045   6.665  10.795
63160SOL     OW91312   7.989   1.038   2.072
63160SOL    HW191313   7.956   1.054   2.161
63160SOL    HW291314   7.915   1.060   2.015
63161SOL     OW91315   4.569   8.109   6.174
63161SOL    HW191316   4.591   8.016   6.179
63161SOL    HW291317   4.546   8.134   6.263
63162SOL     OW91318  14.388   8.968   5.280
63162SOL    HW191319  14.448   9.019   5.334
63162SOL    HW291320  14.330   9.034   5.241
63163SOL     OW91321   0.492   6.466   5.195
63163SOL    HW191322   0.408   6.421   5.186
63163SOL    HW291323   0.543   6.412   5.255
63164SOL     OW91324   8.347   3.386   2.013
63164SOL    HW191325   8.410   3.449   1.977
63164SOL    HW291326   8.395   3.338   2.080
63165SOL     OW91327   7.415   4.040   6.480
63165SOL    HW191328   7.433   3.968   6.541
63165SOL    HW291329   7.356   4.098   6.528
63166SOL     OW91330   3.338   3.853   9.909
63166SOL    HW191331   3.421   3.873   9.953
63166SOL    HW291332   3.329   3.920   9.842
63167SOL     OW91333   6.913  11.103   4.977
63167SOL    HW191334   6.975  11.039   4.939
63167SOL    HW291335   6.835  11.096   4.921
63168SOL     OW91336   4.852   2.671   6.510
63168SOL    HW191337   4.920   2.605   6.522
63168SOL    HW291338   4.873   2.712   6.426
63169SOL     OW91339   3.645   4.271  11.698
63169SOL    HW191340   3.715   4.328  11.729
63169SOL    HW291341   3.577   4.331  11.668
63170SOL     OW91342   6.661  14.731   7.323
63170SOL    HW191343   6.641  14.638   7.324
63170SOL    HW291344   6.599  14.769   7.385
63171SOL     OW91345   7.247   5.864   4.850
63171SOL    HW191346   7.180   5.885   4.784
63171SOL    HW291347   7.325   5.910   4.820
63172SOL     OW91348   2.719   6.899   8.666
63172SOL    HW191349   2.760   6.845   8.598
63172SOL    HW291350   2.764   6.874   8.746
63173SOL     OW91351   0.710  12.135  14.533
63173SOL    HW191352   0.651  12.073  14.488
63173SOL    HW291353   0.757  12.178  14.462
63174SOL     OW91354  10.464  11.652  14.310
63174SOL    HW191355  10.424  11.683  14.391
63174SOL    HW291356  10.550  11.694  14.307
63175SOL     OW91357   1.138  10.909   7.856
63175SOL    HW191358   1.113  10.826   7.814
63175SOL    HW291359   1.130  10.892   7.949
63176SOL     OW91360   8.584   5.328   4.341
63176SOL    HW191361   8.533   5.267   4.394
63176SOL    HW291362   8.601   5.280   4.259
63177SOL     OW91363  14.613   7.394   8.076
63177SOL    HW191364  14.709   7.393   8.081
63177SOL    HW291365  14.590   7.486   8.078
63178SOL     OW91366  12.782  12.566   5.649
63178SOL    HW191367  12.756  12.587   5.738
63178SOL    HW291368  12.808  12.474   5.652
63179SOL     OW91369   8.675   0.922  14.491
63179SOL    HW191370   8.757   0.970  14.498
63179SOL    HW291371   8.608   0.987  14.514
63180SOL     OW91372   8.712   4.487   4.964
63180SOL    HW191373   8.618   4.501   4.958
63180SOL    HW291374   8.723   4.423   5.035
63181SOL     OW91375   2.113   9.286   8.859
63181SOL    HW191376   2.154   9.279   8.773
63181SOL    HW291377   2.186   9.297   8.919
63182SOL     OW91378   0.248   1.421   0.609
63182SOL    HW191379   0.270   1.439   0.518
63182SOL    HW291380   0.180   1.354   0.605
63183SOL     OW91381   6.893  14.206  12.124
63183SOL    HW191382   6.955  14.277  12.141
63183SOL    HW291383   6.810  14.251  12.107
63184SOL     OW91384   1.255   8.835   6.136
63184SOL    HW191385   1.190   8.852   6.205
63184SOL    HW291386   1.330   8.799   6.183
63185SOL     OW91387  13.810  11.687   8.315
63185SOL    HW191388  13.731  11.738   8.298
63185SOL    HW291389  13.798  11.654   8.404
63186SOL     OW91390   0.537   0.203   0.069
63186SOL    HW191391   0.458   0.156   0.096
63186SOL    HW291392   0.583   0.141   0.012
63187SOL     OW91393   9.332   1.783  11.453
63187SOL    HW191394   9.340   1.710  11.514
63187SOL    HW291395   9.239   1.807  11.456
63188SOL     OW91396   6.102   6.160  14.251
63188SOL    HW191397   6.172   6.146  14.186
63188SOL    HW291398   6.121   6.246  14.288
63189SOL     OW91399   1.544   6.266   8.931
63189SOL    HW191400   1.624   6.229   8.968
63189SOL    HW291401   1.477   6.201   8.949
63190SOL     OW91402  10.624   8.585   5.866
63190SOL    HW191403  10.694   8.644   5.894
63190SOL    HW291404  10.567   8.578   5.943
63191SOL     OW91405   4.004  11.723   3.231
63191SOL    HW191406   3.922  11.707   3.278
63191SOL    HW291407   4.068  11.665   3.273
63192SOL     OW91408   1.231  12.439  11.908
63192SOL    HW191409   1.269  12.358  11.877
63192SOL    HW291410   1.305  12.500  11.912
63193SOL     OW91411  14.385  11.623   7.113
63193SOL    HW191412  14.410  11.601   7.202
63193SOL    HW291413  14.335  11.704   7.121
63194SOL     OW91414  10.272   5.909  12.731
63194SOL    HW191415  10.205   5.925  12.797
63194SOL    HW291416  10.307   5.823  12.752
63195SOL     OW91417   9.130  10.793  10.265
63195SOL    HW191418   9.113  10.699  10.259
63195SOL    HW291419   9.203  10.808  10.205
63196SOL     OW91420   7.349   7.410   7.577
63196SOL    HW191421   7.305   7.432   7.658
63196SOL    HW291422   7.410   7.482   7.562
63197SOL     OW91423  12.501   8.723  10.989
63197SOL    HW191424  12.450   8.649  11.021
63197SOL    HW291425  12.581   8.683  10.954
63198SOL     OW91426  10.617   2.455   2.039
63198SOL    HW191427  10.691   2.509   2.066
63198SOL    HW291428  10.637   2.431   1.949
63199SOL     OW91429   3.467   5.010   8.881
63199SOL    HW191430   3.551   4.988   8.921
63199SOL    HW291431   3.487   5.022   8.789
63200SOL     OW91432  13.167  14.202  11.625
63200SOL    HW191433  13.089  14.254  11.610
63200SOL    HW291434  13.199  14.229  11.712
63201SOL     OW91435   1.866   3.387   6.505
63201SOL    HW191436   1.775   3.363   6.526
63201SOL    HW291437   1.876   3.476   6.539
63202SOL     OW91438   7.797  14.125  11.727
63202SOL    HW191439   7.807  14.096  11.818
63202SOL    HW291440   7.709  14.163  11.724
63203SOL     OW91441   0.606   0.529  12.790
63203SOL    HW191442   0.613   0.609  12.738
63203SOL    HW291443   0.515   0.526  12.819
63204SOL     OW91444   0.503   8.640  14.318
63204SOL    HW191445   0.515   8.638  14.223
63204SOL    HW291446   0.591   8.638  14.354
63205SOL     OW91447   3.552   3.825  12.250
63205SOL    HW191448   3.489   3.857  12.315
63205SOL    HW291449   3.498   3.789  12.180
63206SOL     OW91450   6.644  10.192  13.505
63206SOL    HW191451   6.576  10.253  13.476
63206SOL    HW291452   6.713  10.199  13.440
63207SOL     OW91453  14.803   4.337   0.894
63207SOL    HW191454  14.709   4.320   0.900
63207SOL    HW291455  14.824   4.319   0.802
63208SOL     OW91456  10.034   3.829  14.196
63208SOL    HW191457  10.102   3.827  14.263
63208SOL    HW291458   9.955   3.857  14.243
63209SOL     OW91459   5.761   4.583   5.854
63209SOL    HW191460   5.797   4.616   5.937
63209SOL    HW291461   5.666   4.595   5.863
63210SOL     OW91462   3.849   1.171   0.988
63210SOL    HW191463   3.896   1.100   0.945
63210SOL    HW291464   3.824   1.135   1.073
63211SOL     OW91465   7.534   3.814  14.229
63211SOL    HW191466   7.552   3.741  14.288
63211SOL    HW291467   7.615   3.864  14.226
63212SOL     OW91468  11.771   5.533  10.992
63212SOL    HW191469  11.844   5.573  10.946
63212SOL    HW291470  11.784   5.555  11.084
63213SOL     OW91471   8.409   8.981  14.449
63213SOL    HW191472   8.368   8.961  14.533
63213SOL    HW291473   8.422   8.896  14.407
63214SOL     OW91474  10.914   7.994  14.496
63214SOL    HW191475  10.842   7.935  14.474
63214SOL    HW291476  10.935   7.973  14.587
63215SOL     OW91477   1.600  11.428   6.574
63215SOL    HW191478   1.625  11.460   6.487
63215SOL    HW291479   1.626  11.336   6.573
63216SOL     OW91480   9.572   5.990  10.493
63216SOL    HW191481   9.627   5.937  10.435
63216SOL    HW291482   9.587   6.080  10.463
63217SOL     OW91483  14.532   0.047   3.993
63217SOL    HW191484  14.545   0.028   4.086
63217SOL    HW291485  14.615   0.022   3.952
63218SOL     OW91486   6.608   6.321   9.927
63218SOL    HW191487   6.686   6.306   9.981
63218SOL    HW291488   6.587   6.414   9.940
63219SOL     OW91489   3.209   6.852  11.215
63219SOL    HW191490   3.179   6.873  11.126
63219SOL    HW291491   3.176   6.924  11.269
63220SOL     OW91492   7.387   0.043   7.159
63220SOL    HW191493   7.419  14.828   7.137
63220SOL    HW291494   7.404   0.051   7.253
63221SOL     OW91495   0.610   0.695  11.432
63221SOL    HW191496   0.637   0.605  11.417
63221SOL    HW291497   0.557   0.717  11.355
63222SOL     OW91498   4.650  13.020   2.372
63222SOL    HW191499   4.670  13.086   2.306
63222SOL    HW291500   4.723  13.027   2.435
63223SOL     OW91501  10.934   6.564  10.707
63223SOL    HW191502  10.869   6.531  10.646
63223SOL    HW291503  10.956   6.651  10.675
63224SOL     OW91504  14.799   6.578  14.700
63224SOL    HW191505  14.835   6.584  14.789
63224SOL    HW291506  14.819   6.663  14.661
63225SOL     OW91507   3.889  10.525   0.904
63225SOL    HW191508   3.953  10.457   0.925
63225SOL    HW291509   3.805  10.479   0.900
63226SOL     OW91510   6.528   3.172   9.449
63226SOL    HW191511   6.552   3.092   9.496
63226SOL    HW291512   6.612   3.211   9.424
63227SOL     OW91513   2.562   5.116   3.486
63227SOL    HW191514   2.477   5.137   3.446
63227SOL    HW291515   2.560   5.161   3.571
63228SOL     OW91516  11.799  11.337   7.141
63228SOL    HW191517  11.806  11.429   7.168
63228SOL    HW291518  11.873  11.294   7.183
63229SOL     OW91519   4.933   4.097   8.790
63229SOL    HW191520   5.012   4.110   8.738
63229SOL    HW291521   4.945   4.011   8.830
63230SOL     OW91522   5.385  11.959  14.324
63230SOL    HW191523   5.394  11.988  14.414
63230SOL    HW291524   5.463  11.992  14.280
63231SOL     OW91525  13.532   2.685  13.839
63231SOL    HW191526  13.486   2.616  13.791
63231SOL    HW291527  13.472   2.709  13.910
63232SOL     OW91528  11.987   0.874   0.825
63232SOL    HW191529  12.066   0.908   0.785
63232SOL    HW291530  11.923   0.945   0.817
63233SOL     OW91531   2.010   0.877   9.277
63233SOL    HW191532   2.102   0.867   9.250
63233SOL    HW291533   1.969   0.923   9.204
63234SOL     OW91534  13.601  13.846   6.631
63234SOL    HW191535  13.565  13.776   6.685
63234SOL    HW291536  13.629  13.913   6.693
63235SOL     OW91537   1.527  10.507   7.515
63235SOL    HW191538   1.512  10.424   7.561
63235SOL    HW291539   1.567  10.564   7.580
63236SOL     OW91540   3.616   1.419  12.784
63236SOL    HW191541   3.661   1.502  12.775
63236SOL    HW291542   3.622   1.378  12.698
63237SOL     OW91543  12.044  14.467  13.826
63237SOL    HW191544  12.058  14.404  13.896
63237SOL    HW291545  12.047  14.416  13.745
63238SOL     OW91546  13.738   5.751   6.570
63238SOL    HW191547  13.686   5.739   6.650
63238SOL    HW291548  13.707   5.683   6.511
63239SOL     OW91549   5.161   4.053   0.938
63239SOL    HW191550   5.082   4.022   0.892
63239SOL    HW291551   5.229   3.990   0.913
63240SOL     OW91552   7.300  13.449   8.457
63240SOL    HW191553   7.238  13.505   8.504
63240SOL    HW291554   7.349  13.404   8.526
63241SOL     OW91555  10.656  10.039   7.651
63241SOL    HW191556  10.587  10.077   7.597
63241SOL    HW291557  10.658   9.947   7.625
63242SOL     OW91558  12.094   8.308   9.906
63242SOL    HW191559  12.012   8.310   9.955
63242SOL    HW291560  12.107   8.399   9.879
63243SOL     OW91561   0.791   5.040  10.200
63243SOL    HW191562   0.699   5.041  10.175
63243SOL    HW291563   0.828   5.117  10.156
63244SOL     OW91564  12.843   7.302   5.183
63244SOL    HW191565  12.842   7.363   5.109
63244SOL    HW291566  12.774   7.333   5.241
63245SOL     OW91567   3.793  12.512   0.105
63245SOL    HW191568   3.702  12.509   0.077
63245SOL    HW291569   3.800  12.444   0.173
63246SOL     OW91570   7.111  12.853   6.589
63246SOL    HW191571   7.043  12.821   6.648
63246SOL    HW291572   7.182  12.880   6.647
63247SOL     OW91573   4.659   0.428   8.961
63247SOL    HW191574   4.730   0.479   9.002
63247SOL    HW291575   4.649   0.468   8.875
63248SOL     OW91576   9.395  12.593   6.247
63248SOL    HW191577   9.388  12.591   6.342
63248SOL    HW291578   9.475  12.643   6.229
63249SOL     OW91579   2.810   1.580   2.965
63249SOL    HW191580   2.728   1.590   3.014
63249SOL    HW291581   2.877   1.572   3.033
63250SOL     OW91582  12.867  11.714   4.023
63250SOL    HW191583  12.824  11.662   4.091
63250SOL    HW291584  12.939  11.659   3.993
63251SOL     OW91585  14.424   8.163   2.465
63251SOL    HW191586  14.346   8.132   2.419
63251SOL    HW291587  14.485   8.089   2.461
63252SOL     OW91588   8.023  11.591   4.179
63252SOL    HW191589   8.015  11.598   4.274
63252SOL    HW291590   8.012  11.498   4.161
63253SOL     OW91591  10.005   5.953   8.646
63253SOL    HW191592   9.924   5.997   8.618
63253SOL    HW291593   9.980   5.905   8.725
63254SOL     OW91594  10.456  12.624  13.532
63254SOL    HW191595  10.389  12.581  13.479
63254SOL    HW291596  10.487  12.697  13.478
63255SOL     OW91597   5.603   1.173   2.768
63255SOL    HW191598   5.655   1.153   2.690
63255SOL    HW291599   5.664   1.218   2.827
63256SOL     OW91600   4.596  10.001  11.853
63256SOL    HW191601   4.665   9.978  11.791
63256SOL    HW291602   4.629  10.078  11.899
63257SOL     OW91603   4.023  11.116  10.299
63257SOL    HW191604   4.079  11.065  10.358
63257SOL    HW291605   3.999  11.194  10.350
63258SOL     OW91606   3.955   3.638  11.005
63258SOL    HW191607   3.918   3.713  11.052
63258SOL    HW291608   3.969   3.670  10.915
63259SOL     OW91609   9.198   6.108   4.137
63259SOL    HW191610   9.203   6.076   4.047
63259SOL    HW291611   9.131   6.175   4.136
63260SOL     OW91612   2.958  14.794   3.238
63260SOL    HW191613   2.945  14.870   3.181
63260SOL    HW291614   2.981  14.722   3.179
63261SOL     OW91615   2.657  11.225   3.995
63261SOL    HW191616   2.612  11.223   4.079
63261SOL    HW291617   2.588  11.242   3.931
63262SOL     OW91618   2.363  10.916  10.933
63262SOL    HW191619   2.352  11.008  10.908
63262SOL    HW291620   2.288  10.898  10.990
63263SOL     OW91621  14.153  11.863   9.835
63263SOL    HW191622  14.237  11.908   9.842
63263SOL    HW291623  14.176  11.770   9.828
63264SOL     OW91624  11.722   3.906  13.607
63264SOL    HW191625  11.677   3.946  13.682
63264SOL    HW291626  11.700   3.813  13.613
63265SOL     OW91627   3.491   8.619   0.341
63265SOL    HW191628   3.525   8.539   0.300
63265SOL    HW291629   3.555   8.686   0.319
63266SOL     OW91630   8.713   5.255   3.968
63266SOL    HW191631   8.760   5.174   3.951
63266SOL    HW291632   8.627   5.241   3.928
63267SOL     OW91633   5.277   1.006  13.796
63267SOL    HW191634   5.251   1.043  13.881
63267SOL    HW291635   5.353   1.059  13.770
63268SOL     OW91636   5.549  14.827   5.121
63268SOL    HW191637   5.564   0.027   5.181
63268SOL    HW291638   5.528  14.753   5.178
63269SOL     OW91639   0.391   9.888   4.796
63269SOL    HW191640   0.360   9.918   4.882
63269SOL    HW291641   0.440   9.962   4.760
63270SOL     OW91642   1.764   4.358   7.132
63270SOL    HW191643   1.847   4.355   7.180
63270SOL    HW291644   1.710   4.419   7.183
63271SOL     OW91645  10.588  11.710   1.133
63271SOL    HW191646  10.550  11.714   1.221
63271SOL    HW291647  10.560  11.625   1.098
63272SOL     OW91648   1.044   5.521  11.695
63272SOL    HW191649   1.089   5.510  11.611
63272SOL    HW291650   0.966   5.573  11.674
63273SOL     OW91651   2.245   5.864   0.105
63273SOL    HW191652   2.161   5.843   0.146
63273SOL    HW291653   2.309   5.855   0.175
63274SOL     OW91654   0.757   2.992   4.281
63274SOL    HW191655   0.691   3.012   4.214
63274SOL    HW291656   0.779   3.077   4.319
63275SOL     OW91657   3.784  14.178   8.398
63275SOL    HW191658   3.694  14.161   8.425
63275SOL    HW291659   3.837  14.138   8.467
63276SOL     OW91660  12.320  10.764   8.635
63276SOL    HW191661  12.302  10.698   8.568
63276SOL    HW291662  12.242  10.819   8.636
63277SOL     OW91663   4.046  12.296  11.070
63277SOL    HW191664   4.140  12.281  11.058
63277SOL    HW291665   4.025  12.253  11.152
63278SOL     OW91666  12.259   6.591  14.445
63278SOL    HW191667  12.212   6.540  14.512
63278SOL    HW291668  12.192   6.609  14.379
63279SOL     OW91669  14.590   7.145   1.112
63279SOL    HW191670  14.643   7.137   1.033
63279SOL    HW291671  14.506   7.179   1.081
63280SOL     OW91672  11.543  11.765  12.139
63280SOL    HW191673  11.520  11.712  12.215
63280SOL    HW291674  11.523  11.710  12.064
63281SOL     OW91675  13.014  14.235  12.563
63281SOL    HW191676  13.050  14.178  12.495
63281SOL    HW291677  12.942  14.184  12.601
63282SOL     OW91678   0.515   2.481   5.496
63282SOL    HW191679   0.609   2.500   5.497
63282SOL    HW291680   0.505   2.403   5.551
63283SOL     OW91681   4.030   5.462   6.666
63283SOL    HW191682   4.016   5.379   6.620
63283SOL    HW291683   4.113   5.495   6.632
63284SOL     OW91684   4.052   8.989   2.482
63284SOL    HW191685   4.022   8.904   2.450
63284SOL    HW291686   4.129   8.969   2.535
63285SOL     OW91687   1.926   5.513   3.771
63285SOL    HW191688   1.888   5.598   3.794
63285SOL    HW291689   1.997   5.501   3.834
63286SOL     OW91690  13.636   3.070  10.731
63286SOL    HW191691  13.546   3.092  10.708
63286SOL    HW291692  13.676   3.154  10.755
63287SOL     OW91693   5.960  12.071   2.181
63287SOL    HW191694   5.864  12.078   2.177
63287SOL    HW291695   5.976  12.006   2.249
63288SOL     OW91696   9.041  14.565   5.283
63288SOL    HW191697   9.092  14.488   5.261
63288SOL    HW291698   9.025  14.608   5.199
63289SOL     OW91699   3.182   9.896  12.197
63289SOL    HW191700   3.216   9.981  12.168
63289SOL    HW291701   3.254   9.835  12.181
63290SOL     OW91702  12.095  10.654   1.866
63290SOL    HW191703  12.148  10.666   1.787
63290SOL    HW291704  12.121  10.569   1.900
63291SOL     OW91705  14.244  11.641  14.828
63291SOL    HW191706  14.194  11.716  14.860
63291SOL    HW291707  14.181  11.591  14.776
63292SOL     OW91708   1.025  12.687  14.634
63292SOL    HW191709   1.093  12.714  14.696
63292SOL    HW291710   0.943  12.701  14.681
63293SOL     OW91711   1.028  12.515  14.253
63293SOL    HW191712   1.050  12.483  14.340
63293SOL    HW291713   0.942  12.478  14.234
63294SOL     OW91714   1.797   1.086   2.849
63294SOL    HW191715   1.734   1.122   2.912
63294SOL    HW291716   1.871   1.057   2.903
63295SOL     OW91717  13.914  10.307   4.544
63295SOL    HW191718  13.861  10.302   4.624
63295SOL    HW291719  14.004  10.298   4.574
63296SOL     OW91720   4.135   5.883   2.066
63296SOL    HW191721   4.158   5.823   2.136
63296SOL    HW291722   4.193   5.860   1.994
63297SOL     OW91723  11.848  10.679  14.631
63297SOL    HW191724  11.875  10.612  14.569
63297SOL    HW291725  11.872  10.762  14.589
63298SOL     OW91726  14.112  11.170   4.419
63298SOL    HW191727  14.052  11.133   4.484
63298SOL    HW291728  14.121  11.262   4.445
63299SOL     OW91729  13.057  14.051   3.741
63299SOL    HW191730  13.084  13.997   3.668
63299SOL    HW291731  13.126  14.042   3.806
63300SOL     OW91732  11.168   9.327   7.089
63300SOL    HW191733  11.164   9.422   7.077
63300SOL    HW291734  11.087   9.306   7.134
63301SOL     OW91735   4.238  14.722  14.816
63301SOL    HW191736   4.215  14.809  14.782
63301SOL    HW291737   4.333  14.725  14.826
63302SOL     OW91738   0.649   7.132   0.246
63302SOL    HW191739   0.738   7.117   0.216
63302SOL    HW291740   0.649   7.221   0.282
63303SOL     OW91741   4.267  13.238   4.905
63303SOL    HW191742   4.232  13.320   4.870
63303SOL    HW291743   4.198  13.174   4.887
63304SOL     OW91744  12.001  14.392   5.329
63304SOL    HW191745  11.958  14.323   5.277
63304SOL    HW291746  11.999  14.359   5.419
63305SOL     OW91747   2.857   1.118  12.936
63305SOL    HW191748   2.906   1.181  12.989
63305SOL    HW291749   2.880   1.033  12.973
63306SOL     OW91750   6.841   0.349  14.089
63306SOL    HW191751   6.769   0.337  14.028
63306SOL    HW291752   6.825   0.283  14.157
63307SOL     OW91753   5.020  11.982  11.342
63307SOL    HW191754   4.939  11.934  11.351
63307SOL    HW291755   4.993  12.072  11.320
63308SOL     OW91756   8.964   7.407   9.855
63308SOL    HW191757   9.017   7.412   9.934
63308SOL    HW291758   8.975   7.492   9.813
63309SOL     OW91759  10.653   5.169   6.875
63309SOL    HW191760  10.693   5.151   6.961
63309SOL    HW291761  10.655   5.264   6.867
63310SOL     OW91762  10.904  13.047  11.417
63310SOL    HW191763  10.955  13.029  11.496
63310SOL    HW291764  10.837  13.109  11.446
63311SOL     OW91765   6.610  12.486   0.964
63311SOL    HW191766   6.702  12.483   0.989
63311SOL    HW291767   6.589  12.396   0.938
63312SOL     OW91768  14.601   4.595   3.104
63312SOL    HW191769  14.563   4.642   3.178
63312SOL    HW291770  14.544   4.614   3.030
63313SOL     OW91771   6.942  14.333   6.386
63313SOL    HW191772   6.941  14.415   6.337
63313SOL    HW291773   7.000  14.275   6.336
63314SOL     OW91774   0.489   1.798   5.326
63314SOL    HW191775   0.548   1.827   5.256
63314SOL    HW291776   0.423   1.868   5.333
63315SOL     OW91777   5.202  11.462   0.698
63315SOL    HW191778   5.141  11.535   0.702
63315SOL    HW291779   5.184  11.420   0.614
63316SOL     OW91780   6.434   4.112   5.530
63316SOL    HW191781   6.422   4.191   5.583
63316SOL    HW291782   6.357   4.109   5.473
63317SOL     OW91783   2.368   4.362   5.027
63317SOL    HW191784   2.291   4.402   5.066
63317SOL    HW291785   2.416   4.435   4.987
63318SOL     OW91786   2.954  10.027  12.253
63318SOL    HW191787   3.043   9.993  12.240
63318SOL    HW291788   2.948  10.042  12.347
63319SOL     OW91789   7.582   6.131  14.677
63319SOL    HW191790   7.618   6.193  14.613
63319SOL    HW291791   7.511   6.088  14.630
63320SOL     OW91792   6.882  14.313  13.647
63320SOL    HW191793   6.926  14.294  13.730
63320SOL    HW291794   6.859  14.227  13.611
63321SOL     OW91795  14.698   1.380   4.435
63321SOL    HW191796  14.695   1.433   4.515
63321SOL    HW291797  14.777   1.410   4.389
63322SOL     OW91798   0.798  10.195   0.468
63322SOL    HW191799   0.872  10.216   0.523
63322SOL    HW291800   0.830  10.206   0.378
63323SOL     OW91801   8.417   4.806  10.537
63323SOL    HW191802   8.482   4.822  10.605
63323SOL    HW291803   8.340   4.855  10.566
63324SOL     OW91804   7.586  13.051  12.293
63324SOL    HW191805   7.676  13.043  12.325
63324SOL    HW291806   7.574  13.145  12.280
63325SOL     OW91807   5.246   8.903   7.564
63325SOL    HW191808   5.226   8.845   7.638
63325SOL    HW291809   5.263   8.988   7.605
63326SOL     OW91810  10.097  11.294  13.161
63326SOL    HW191811  10.052  11.297  13.246
63326SOL    HW291812  10.031  11.262  13.100
63327SOL     OW91813   1.674   1.405   5.876
63327SOL    HW191814   1.591   1.445   5.852
63327SOL    HW291815   1.714   1.467   5.936
63328SOL     OW91816   2.791   1.917   6.630
63328SOL    HW191817   2.869   1.876   6.668
63328SOL    HW291818   2.768   1.862   6.555
63329SOL     OW91819   4.868   5.391   0.910
63329SOL    HW191820   4.873   5.463   0.847
63329SOL    HW291821   4.785   5.403   0.955
63330SOL     OW91822  10.370  10.227   6.796
63330SOL    HW191823  10.371  10.203   6.889
63330SOL    HW291824  10.300  10.292   6.789
63331SOL     OW91825   0.085   6.917   7.052
63331SOL    HW191826   0.076   6.823   7.062
63331SOL    HW291827   0.153   6.942   7.116
63332SOL     OW91828  13.597   2.517   5.915
63332SOL    HW191829  13.560   2.448   5.971
63332SOL    HW291830  13.568   2.494   5.827
63333SOL     OW91831  10.520   8.427   0.364
63333SOL    HW191832  10.560   8.487   0.427
63333SOL    HW291833  10.478   8.360   0.418
63334SOL     OW91834   9.006  10.030   7.317
63334SOL    HW191835   9.038  10.099   7.375
63334SOL    HW291836   8.936   9.988   7.367
63335SOL     OW91837   9.112   3.229   3.785
63335SOL    HW191838   9.023   3.216   3.754
63335SOL    HW291839   9.162   3.157   3.745
63336SOL     OW91840   7.109   5.365   8.238
63336SOL    HW191841   7.048   5.342   8.309
63336SOL    HW291842   7.154   5.282   8.219
63337SOL     OW91843   9.862  13.234  12.955
63337SOL    HW191844   9.848  13.141  12.974
63337SOL    HW291845   9.859  13.277  13.040
63338SOL     OW91846   9.404   3.933   8.079
63338SOL    HW191847   9.336   3.887   8.128
63338SOL    HW291848   9.364   3.953   7.994
63339SOL     OW91849   7.502   8.922   0.156
63339SOL    HW191850   7.589   8.959   0.144
63339SOL    HW291851   7.473   8.956   0.241
63340SOL     OW91852  12.942   4.706   7.477
63340SOL    HW191853  12.979   4.619   7.494
63340SOL    HW291854  12.909   4.702   7.387
63341SOL     OW91855  14.211   5.681   6.507
63341SOL    HW191856  14.264   5.673   6.586
63341SOL    HW291857  14.218   5.773   6.482
63342SOL     OW91858  11.517   5.058   4.357
63342SOL    HW191859  11.578   4.984   4.357
63342SOL    HW291860  11.491   5.068   4.449
63343SOL     OW91861   0.028   3.902  12.582
63343SOL    HW191862  14.814   3.941  12.590
63343SOL    HW291863   0.041   3.890  12.487
63344SOL     OW91864   7.899   1.766   2.522
63344SOL    HW191865   7.849   1.726   2.594
63344SOL    HW291866   7.957   1.697   2.492
63345SOL     OW91867   8.854   0.954   8.560
63345SOL    HW191868   8.779   1.005   8.527
63345SOL    HW291869   8.825   0.863   8.552
63346SOL     OW91870  11.276   5.607   5.335
63346SOL    HW191871  11.336   5.679   5.318
63346SOL    HW291872  11.326   5.547   5.391
63347SOL     OW91873  13.757  12.683  12.193
63347SOL    HW191874  13.831  12.644  12.239
63347SOL    HW291875  13.724  12.613  12.137
63348SOL     OW91876   1.542   6.696   4.221
63348SOL    HW191877   1.501   6.751   4.287
63348SOL    HW291878   1.515   6.607   4.243
63349SOL     OW91879  11.269   6.731   9.029
63349SOL    HW191880  11.357   6.732   9.067
63349SOL    HW291881  11.283   6.754   8.937
63350SOL     OW91882  13.753  13.521   2.814
63350SOL    HW191883  13.780  13.454   2.877
63350SOL    HW291884  13.825  13.525   2.752
63351SOL     OW91885  12.692   1.121  14.592
63351SOL    HW191886  12.654   1.054  14.649
63351SOL    HW291887  12.762   1.159  14.644
63352SOL     OW91888   4.854  13.164   9.617
63352SOL    HW191889   4.918  13.093   9.615
63352SOL    HW291890   4.843  13.189   9.525
63353SOL     OW91891   6.098   1.812  13.896
63353SOL    HW191892   6.163   1.882  13.893
63353SOL    HW291893   6.141   1.742  13.944
63354SOL     OW91894  14.634  10.351   0.883
63354SOL    HW191895  14.553  10.300   0.894
63354SOL    HW291896  14.604  10.442   0.879
63355SOL     OW91897   3.044   2.738   8.355
63355SOL    HW191898   3.129   2.769   8.386
63355SOL    HW291899   3.008   2.687   8.427
63356SOL     OW91900   2.130   3.405   9.826
63356SOL    HW191901   2.115   3.426   9.733
63356SOL    HW291902   2.181   3.325   9.825
63357SOL     OW91903  12.923   6.821   7.422
63357SOL    HW191904  12.970   6.780   7.349
63357SOL    HW291905  12.980   6.807   7.498
63358SOL     OW91906   9.801  10.045   5.550
63358SOL    HW191907   9.852   9.982   5.497
63358SOL    HW291908   9.729  10.071   5.493
63359SOL     OW91909  10.433   9.709   4.834
63359SOL    HW191910  10.476   9.729   4.751
63359SOL    HW291911  10.340   9.710   4.813
63360SOL     OW91912   1.910  14.297   3.648
63360SOL    HW191913   1.973  14.370   3.642
63360SOL    HW291914   1.825  14.338   3.633
63361SOL     OW91915  13.919   1.500   2.877
63361SOL    HW191916  13.870   1.533   2.802
63361SOL    HW291917  14.011   1.507   2.851
63362SOL     OW91918   1.625  12.084   9.320
63362SOL    HW191919   1.681  12.007   9.306
63362SOL    HW291920   1.588  12.072   9.408
63363SOL     OW91921   1.513  11.428  12.372
63363SOL    HW191922   1.579  11.496  12.356
63363SOL    HW291923   1.433  11.476  12.391
63364SOL     OW91924   8.345   7.248  14.084
63364SOL    HW191925   8.399   7.327  14.073
63364SOL    HW291926   8.391   7.181  14.034
63365SOL     OW91927  12.931   3.110  13.825
63365SOL    HW191928  13.019   3.075  13.812
63365SOL    HW291929  12.942   3.184  13.884
63366SOL     OW91930   0.808  10.228   3.953
63366SOL    HW191931   0.785  10.309   3.908
63366SOL    HW291932   0.901  10.236   3.972
63367SOL     OW91933   3.894   4.556   7.191
63367SOL    HW191934   3.815   4.516   7.227
63367SOL    HW291935   3.962   4.535   7.255
63368SOL     OW91936  11.603   1.321   6.191
63368SOL    HW191937  11.549   1.246   6.216
63368SOL    HW291938  11.565   1.394   6.241
63369SOL     OW91939  10.962   1.972   6.611
63369SOL    HW191940  10.868   1.976   6.593
63369SOL    HW291941  10.968   1.946   6.703
63370SOL     OW91942  12.190   8.930  13.561
63370SOL    HW191943  12.208   8.952  13.652
63370SOL    HW291944  12.098   8.954  13.548
63371SOL     OW91945   1.112  12.646   9.221
63371SOL    HW191946   1.092  12.573   9.163
63371SOL    HW291947   1.205  12.637   9.240
63372SOL     OW91948  10.596   1.873   2.133
63372SOL    HW191949  10.615   1.948   2.076
63372SOL    HW291950  10.629   1.899   2.219
63373SOL     OW91951   4.863   7.277  14.077
63373SOL    HW191952   4.876   7.182  14.079
63373SOL    HW291953   4.891   7.307  14.163
63374SOL     OW91954   5.832  10.480   8.760
63374SOL    HW191955   5.776  10.419   8.808
63374SOL    HW291956   5.885  10.522   8.828
63375SOL     OW91957  10.676   7.208   6.871
63375SOL    HW191958  10.705   7.169   6.789
63375SOL    HW291959  10.620   7.141   6.911
63376SOL     OW91960   9.693   6.899   6.889
63376SOL    HW191961   9.680   6.989   6.859
63376SOL    HW291962   9.702   6.848   6.808
63377SOL     OW91963   5.042   3.025  14.700
63377SOL    HW191964   4.960   2.993  14.664
63377SOL    HW291965   5.110   2.978  14.651
63378SOL     OW91966  11.704   3.399  10.280
63378SOL    HW191967  11.659   3.326  10.323
63378SOL    HW291968  11.692   3.473  10.338
63379SOL     OW91969   7.914   9.847   1.972
63379SOL    HW191970   7.927   9.818   2.062
63379SOL    HW291971   7.970   9.789   1.920
63380SOL     OW91972   7.459   9.267   9.572
63380SOL    HW191973   7.507   9.184   9.568
63380SOL    HW291974   7.476   9.300   9.660
63381SOL     OW91975   4.951  12.939   5.175
63381SOL    HW191976   4.919  12.864   5.125
63381SOL    HW291977   4.952  13.011   5.113
63382SOL     OW91978  13.449   2.350   3.244
63382SOL    HW191979  13.540   2.368   3.222
63382SOL    HW291980  13.415   2.434   3.276
63383SOL     OW91981   7.496   2.327   7.875
63383SOL    HW191982   7.525   2.351   7.787
63383SOL    HW291983   7.484   2.410   7.920
63384SOL     OW91984  10.682   8.335   8.704
63384SOL    HW191985  10.615   8.377   8.649
63384SOL    HW291986  10.749   8.306   8.642
63385SOL     OW91987  11.218  14.163  14.196
63385SOL    HW191988  11.195  14.098  14.130
63385SOL    HW291989  11.305  14.137  14.227
63386SOL     OW91990   0.168  13.693  14.547
63386SOL    HW191991   0.222  13.733  14.615
63386SOL    HW291992   0.151  13.764  14.485
63387SOL     OW91993   3.810   8.776  11.382
63387SOL    HW191994   3.797   8.857  11.333
63387SOL    HW291995   3.769   8.708  11.328
63388SOL     OW91996   0.773  11.567  13.769
63388SOL    HW191997   0.690  11.593  13.809
63388SOL    HW291998   0.804  11.645  13.725
63389SOL     OW91999   0.874  14.593   7.348
63389SOL    HW192000   0.864  14.578   7.254
63389SOL    HW292001   0.838  14.680   7.363
63390SOL     OW92002   6.356  12.502  12.071
63390SOL    HW192003   6.347  12.425  12.016
63390SOL    HW292004   6.269  12.544  12.067
63391SOL     OW92005  11.815   6.178   0.416
63391SOL    HW192006  11.788   6.270   0.424
63391SOL    HW292007  11.769   6.147   0.338
63392SOL     OW92008  11.946   4.406   5.359
63392SOL    HW192009  12.016   4.377   5.417
63392SOL    HW292010  11.906   4.324   5.328
63393SOL     OW92011   1.026   9.185   2.193
63393SOL    HW192012   0.994   9.197   2.283
63393SOL    HW292013   1.098   9.122   2.202
63394SOL     OW92014   6.742   4.010   3.615
63394SOL    HW192015   6.647   4.024   3.621
63394SOL    HW292016   6.752   3.940   3.550
63395SOL     OW92017  12.007   0.682   7.722
63395SOL    HW192018  11.948   0.638   7.783
63395SOL    HW292019  12.088   0.693   7.771
63396SOL     OW92020   2.717   0.566   6.461
63396SOL    HW192021   2.622   0.583   6.460
63396SOL    HW292022   2.733   0.525   6.546
63397SOL     OW92023   3.916   0.365  11.855
63397SOL    HW192024   3.946   0.304  11.923
63397SOL    HW292025   3.824   0.382  11.877
63398SOL     OW92026  14.704  14.118   9.902
63398SOL    HW192027  14.709  14.034   9.856
63398SOL    HW292028  14.689  14.183   9.833
63399SOL     OW92029   0.787   7.712  10.676
63399SOL    HW192030   0.761   7.674  10.592
63399SOL    HW292031   0.707   7.716  10.727
63400SOL     OW92032  12.776   7.639  14.704
63400SOL    HW192033  12.855   7.689  14.725
63400SOL    HW292034  12.805   7.575  14.639
63401SOL     OW92035  13.367  12.077   8.031
63401SOL    HW192036  13.343  12.022   8.106
63401SOL    HW292037  13.298  12.144   8.027
63402SOL     OW92038   3.707   7.837   0.183
63402SOL    HW192039   3.775   7.842   0.115
63402SOL    HW292040   3.626   7.822   0.134
63403SOL     OW92041   0.368  10.646   9.402
63403SOL    HW192042   0.335  10.657   9.313
63403SOL    HW292043   0.447  10.594   9.393
63404SOL     OW92044   3.617   0.676   3.576
63404SOL    HW192045   3.693   0.723   3.542
63404SOL    HW292046   3.544   0.737   3.566
63405SOL     OW92047   3.026   3.447  12.948
63405SOL    HW192048   2.974   3.448  12.868
63405SOL    HW292049   3.034   3.539  12.973
63406SOL     OW92050  12.732   2.373  14.012
63406SOL    HW192051  12.817   2.410  14.035
63406SOL    HW292052  12.752   2.298  13.957
63407SOL     OW92053   3.759   6.113  11.931
63407SOL    HW192054   3.746   6.195  11.978
63407SOL    HW292055   3.711   6.048  11.982
63408SOL     OW92056  10.220  13.852   1.812
63408SOL    HW192057  10.133  13.813   1.813
63408SOL    HW292058  10.234  13.883   1.902
63409SOL     OW92059   8.363   6.915   6.531
63409SOL    HW192060   8.431   6.889   6.468
63409SOL    HW292061   8.402   6.900   6.617
63410SOL     OW92062   9.535  11.450  11.943
63410SOL    HW192063   9.544  11.458  12.038
63410SOL    HW292064   9.443  11.428  11.930
63411SOL     OW92065  12.085   9.727   8.930
63411SOL    HW192066  12.150   9.778   8.978
63411SOL    HW292067  12.002   9.746   8.975
63412SOL     OW92068  11.718   0.690   5.507
63412SOL    HW192069  11.666   0.721   5.434
63412SOL    HW292070  11.797   0.654   5.467
63413SOL     OW92071   2.743   1.965   2.633
63413SOL    HW192072   2.669   2.006   2.678
63413SOL    HW292073   2.803   1.940   2.703
63414SOL     OW92074  12.586   4.684   5.526
63414SOL    HW192075  12.600   4.769   5.486
63414SOL    HW292076  12.652   4.627   5.486
63415SOL     OW92077   3.349   5.511   6.942
63415SOL    HW192078   3.263   5.530   6.905
63415SOL    HW292079   3.405   5.581   6.907
63416SOL     OW92080   4.922  13.736   2.460
63416SOL    HW192081   4.995  13.723   2.521
63416SOL    HW292082   4.964  13.762   2.378
63417SOL     OW92083  10.965   2.280   2.531
63417SOL    HW192084  11.039   2.219   2.527
63417SOL    HW292085  10.960   2.318   2.443
63418SOL     OW92086  11.909   4.755   0.088
63418SOL    HW192087  11.895   4.674   0.039
63418SOL    HW292088  11.824   4.799   0.085
63419SOL     OW92089   8.608   2.748   9.831
63419SOL    HW192090   8.625   2.768   9.923
63419SOL    HW292091   8.552   2.820   9.801
63420SOL     OW92092  10.140  12.317   5.922
63420SOL    HW192093  10.175  12.236   5.958
63420SOL    HW292094  10.190  12.332   5.842
63421SOL     OW92095   5.971   9.896   0.076
63421SOL    HW192096   5.905   9.843   0.032
63421SOL    HW292097   6.019   9.834   0.130
63422SOL     OW92098   5.492   6.235  10.387
63422SOL    HW192099   5.556   6.215  10.455
63422SOL    HW292100   5.453   6.318  10.414
63423SOL     OW92101  10.886   8.694  13.553
63423SOL    HW192102  10.886   8.627  13.620
63423SOL    HW292103  10.977   8.722  13.547
63424SOL     OW92104   5.693   7.489  12.608
63424SOL    HW192105   5.641   7.418  12.569
63424SOL    HW292106   5.654   7.503  12.694
63425SOL     OW92107  11.945   4.902   2.783
63425SOL    HW192108  11.960   4.859   2.867
63425SOL    HW292109  11.871   4.855   2.745
63426SOL     OW92110   8.093   6.738   7.827
63426SOL    HW192111   8.082   6.764   7.736
63426SOL    HW292112   8.027   6.789   7.875
63427SOL     OW92113   2.967   0.902  13.095
63427SOL    HW192114   2.986   0.931  13.184
63427SOL    HW292115   3.050   0.909  13.048
63428SOL     OW92116   0.853   2.626   1.521
63428SOL    HW192117   0.922   2.568   1.489
63428SOL    HW292118   0.892   2.670   1.596
63429SOL     OW92119   1.725   2.342   1.752
63429SOL    HW192120   1.720   2.293   1.671
63429SOL    HW292121   1.642   2.389   1.757
63430SOL     OW92122  10.470   2.424   7.088
63430SOL    HW192123  10.441   2.362   7.155
63430SOL    HW292124  10.498   2.501   7.137
63431SOL     OW92125  11.012   0.813  12.335
63431SOL    HW192126  11.076   0.821  12.264
63431SOL    HW292127  11.065   0.803  12.414
63432SOL     OW92128   3.599   1.389   6.767
63432SOL    HW192129   3.559   1.448   6.703
63432SOL    HW292130   3.625   1.312   6.717
63433SOL     OW92131   6.834   5.215   5.279
63433SOL    HW192132   6.869   5.133   5.313
63433SOL    HW292133   6.856   5.214   5.186
63434SOL     OW92134   7.721   1.254  12.922
63434SOL    HW192135   7.788   1.253  12.854
63434SOL    HW292136   7.708   1.347  12.942
63435SOL     OW92137   8.802   9.334  14.865
63435SOL    HW192138   8.775   9.412   0.041
63435SOL    HW292139   8.890   9.314   0.024
63436SOL     OW92140  10.260   0.685   2.881
63436SOL    HW192141  10.224   0.680   2.793
63436SOL    HW292142  10.249   0.597   2.916
63437SOL     OW92143   0.356   3.166   4.892
63437SOL    HW192144   0.306   3.087   4.914
63437SOL    HW292145   0.290   3.235   4.889
63438SOL     OW92146   9.957  14.575  12.362
63438SOL    HW192147   9.879  14.607  12.408
63438SOL    HW292148   9.998  14.514  12.424
63439SOL     OW92149   8.797  13.691   1.329
63439SOL    HW192150   8.832  13.776   1.355
63439SOL    HW292151   8.762  13.654   1.410
63440SOL     OW92152   4.720   4.682   1.169
63440SOL    HW192153   4.755   4.603   1.209
63440SOL    HW292154   4.669   4.650   1.094
63441SOL     OW92155   0.862   0.469  12.463
63441SOL    HW192156   0.841   0.447  12.554
63441SOL    HW292157   0.793   0.429  12.412
63442SOL     OW92158  14.532  12.205  12.907
63442SOL    HW192159  14.596  12.234  12.842
63442SOL    HW292160  14.584  12.162  12.975
63443SOL     OW92161   6.049   9.828  13.904
63443SOL    HW192162   5.963   9.817  13.864
63443SOL    HW292163   6.070   9.742  13.941
63444SOL     OW92164   3.144   4.100   2.642
63444SOL    HW192165   3.185   4.022   2.681
63444SOL    HW292166   3.050   4.080   2.642
63445SOL     OW92167   5.967  11.743   1.521
63445SOL    HW192168   5.971  11.826   1.474
63445SOL    HW292169   5.892  11.697   1.482
63446SOL     OW92170   5.890   0.727   6.632
63446SOL    HW192171   5.856   0.761   6.549
63446SOL    HW292172   5.922   0.804   6.679
63447SOL     OW92173   8.552  12.555  10.213
63447SOL    HW192174   8.606  12.494  10.164
63447SOL    HW292175   8.593  12.641  10.200
63448SOL     OW92176   9.291   3.752   6.890
63448SOL    HW192177   9.300   3.657   6.887
63448SOL    HW292178   9.282   3.772   6.983
63449SOL     OW92179   0.453  14.475  14.527
63449SOL    HW192180   0.416  14.523  14.601
63449SOL    HW292181   0.405  14.508  14.451
63450SOL     OW92182   1.229   6.281  10.700
63450SOL    HW192183   1.259   6.195  10.672
63450SOL    HW292184   1.260   6.340  10.631
63451SOL     OW92185   7.498  12.866  13.712
63451SOL    HW192186   7.527  12.793  13.767
63451SOL    HW292187   7.464  12.930  13.774
63452SOL     OW92188   4.663  13.991   6.863
63452SOL    HW192189   4.755  14.000   6.840
63452SOL    HW292190   4.662  13.976   6.957
63453SOL     OW92191   2.959   9.374   9.942
63453SOL    HW192192   3.031   9.423   9.982
63453SOL    HW292193   2.980   9.374   9.848
63454SOL     OW92194  11.266   7.236   4.163
63454SOL    HW192195  11.298   7.152   4.197
63454SOL    HW292196  11.273   7.296   4.237
63455SOL     OW92197  10.898   1.556   0.217
63455SOL    HW192198  10.938   1.470   0.226
63455SOL    HW292199  10.916   1.581   0.126
63456SOL     OW92200   7.526   3.365  11.567
63456SOL    HW192201   7.526   3.458  11.546
63456SOL    HW292202   7.437   3.348  11.599
63457SOL     OW92203  11.034   2.440   7.477
63457SOL    HW192204  10.949   2.430   7.433
63457SOL    HW292205  11.018   2.409   7.566
63458SOL     OW92206   4.376   5.287  10.549
63458SOL    HW192207   4.410   5.362  10.598
63458SOL    HW292208   4.312   5.325  10.489
63459SOL     OW92209   2.945   9.678   8.617
63459SOL    HW192210   2.956   9.772   8.624
63459SOL    HW292211   2.851   9.666   8.602
63460SOL     OW92212   3.391  14.805   4.825
63460SOL    HW192213   3.344  14.727   4.797
63460SOL    HW292214   3.450  14.825   4.753
63461SOL     OW92215   8.646   1.631   2.101
63461SOL    HW192216   8.724   1.589   2.065
63461SOL    HW292217   8.680   1.707   2.150
63462SOL     OW92218  12.806  10.305   9.311
63462SOL    HW192219  12.806  10.237   9.243
63462SOL    HW292220  12.899  10.317   9.332
63463SOL     OW92221   7.743   0.599   9.567
63463SOL    HW192222   7.678   0.568   9.503
63463SOL    HW292223   7.808   0.645   9.514
63464SOL     OW92224  10.844   8.539  12.429
63464SOL    HW192225  10.901   8.599  12.381
63464SOL    HW292226  10.901   8.465  12.452
63465SOL     OW92227   8.931   6.823   3.095
63465SOL    HW192228   8.861   6.768   3.130
63465SOL    HW292229   9.002   6.763   3.076
63466SOL     OW92230   1.455   9.644  12.834
63466SOL    HW192231   1.361   9.632  12.821
63466SOL    HW292232   1.472   9.734  12.804
63467SOL     OW92233   8.551   3.879   2.952
63467SOL    HW192234   8.623   3.890   3.015
63467SOL    HW292235   8.496   3.957   2.965
63468SOL     OW92236  12.341   0.218   7.818
63468SOL    HW192237  12.370   0.224   7.727
63468SOL    HW292238  12.393   0.284   7.864
63469SOL     OW92239   4.194  14.127   1.719
63469SOL    HW192240   4.173  14.108   1.628
63469SOL    HW292241   4.212  14.041   1.758
63470SOL     OW92242   9.845   9.473   3.404
63470SOL    HW192243   9.880   9.493   3.491
63470SOL    HW292244   9.750   9.478   3.414
63471SOL     OW92245  10.728   7.322   1.949
63471SOL    HW192246  10.723   7.237   1.906
63471SOL    HW292247  10.639   7.339   1.979
63472SOL     OW92248  14.374  12.432   4.606
63472SOL    HW192249  14.332  12.508   4.567
63472SOL    HW292250  14.430  12.468   4.675
63473SOL     OW92251   7.149   9.519  12.784
63473SOL    HW192252   7.149   9.593  12.844
63473SOL    HW292253   7.059   9.517  12.749
63474SOL     OW92254   2.165   0.377   9.414
63474SOL    HW192255   2.116   0.327   9.479
63474SOL    HW292256   2.214   0.441   9.465
63475SOL     OW92257  12.640  14.787   7.495
63475SOL    HW192258  12.722  14.749   7.462
63475SOL    HW292259  12.612  14.727   7.564
63476SOL     OW92260   2.890   8.413   1.988
63476SOL    HW192261   2.893   8.319   2.007
63476SOL    HW292262   2.902   8.419   1.894
63477SOL     OW92263   7.882  13.582   3.642
63477SOL    HW192264   7.960  13.533   3.667
63477SOL    HW292265   7.811  13.543   3.692
63478SOL     OW92266   0.471   4.249   7.696
63478SOL    HW192267   0.418   4.312   7.647
63478SOL    HW292268   0.418   4.170   7.698
63479SOL     OW92269   8.737  14.615   4.984
63479SOL    HW192270   8.658  14.591   5.032
63479SOL    HW292271   8.712  14.609   4.892
63480SOL     OW92272   5.734   3.140  10.636
63480SOL    HW192273   5.694   3.151  10.550
63480SOL    HW292274   5.744   3.229  10.670
63481SOL     OW92275  10.021   1.571  13.284
63481SOL    HW192276  10.004   1.658  13.319
63481SOL    HW292277  10.115   1.570  13.266
63482SOL     OW92278   3.883   4.884   2.166
63482SOL    HW192279   3.871   4.795   2.200
63482SOL    HW292280   3.946   4.873   2.094
63483SOL     OW92281   0.795   7.464  11.861
63483SOL    HW192282   0.705   7.495  11.874
63483SOL    HW292283   0.845   7.544  11.843
63484SOL     OW92284  11.527   2.362   0.899
63484SOL    HW192285  11.461   2.364   0.830
63484SOL    HW292286  11.526   2.450   0.936
63485SOL     OW92287   1.801   4.091   7.020
63485SOL    HW192288   1.803   4.182   7.047
63485SOL    HW292289   1.724   4.083   6.965
63486SOL     OW92290  14.330   5.406   7.652
63486SOL    HW192291  14.308   5.497   7.633
63486SOL    HW292292  14.425   5.407   7.667
63487SOL     OW92293   8.978   9.910   9.908
63487SOL    HW192294   9.058   9.950   9.944
63487SOL    HW292295   8.938   9.980   9.857
63488SOL     OW92296   1.293  12.825   8.285
63488SOL    HW192297   1.336  12.909   8.271
63488SOL    HW292298   1.211  12.848   8.330
63489SOL     OW92299  14.742   2.061   0.904
63489SOL    HW192300  14.737   1.978   0.952
63489SOL    HW292301  14.650   2.088   0.894
63490SOL     OW92302   2.036   2.245  14.780
63490SOL    HW192303   1.954   2.197  14.772
63490SOL    HW292304   2.069   2.222  14.867
63491SOL     OW92305  10.344   5.929   5.569
63491SOL    HW192306  10.411   5.877   5.523
63491SOL    HW292307  10.271   5.934   5.507
63492SOL     OW92308  13.798   7.813  13.247
63492SOL    HW192309  13.817   7.781  13.159
63492SOL    HW292310  13.879   7.857  13.273
63493SOL     OW92311   2.106  11.691   0.196
63493SOL    HW192312   2.067  11.774   0.223
63493SOL    HW292313   2.184  11.682   0.252
63494SOL     OW92314   4.314   1.875   9.071
63494SOL    HW192315   4.243   1.887   9.135
63494SOL    HW292316   4.367   1.804   9.107
63495SOL     OW92317   3.664   3.819   7.446
63495SOL    HW192318   3.745   3.868   7.434
63495SOL    HW292319   3.691   3.727   7.447
63496SOL     OW92320  10.377   2.446   8.277
63496SOL    HW192321  10.345   2.494   8.353
63496SOL    HW292322  10.472   2.453   8.282
63497SOL     OW92323   0.389   5.798   8.359
63497SOL    HW192324   0.436   5.802   8.276
63497SOL    HW292325   0.297   5.810   8.336
63498SOL     OW92326  14.652  12.902  11.577
63498SOL    HW192327  14.707  12.915  11.655
63498SOL    HW292328  14.669  12.811  11.551
63499SOL     OW92329   8.348  13.393   5.765
63499SOL    HW192330   8.436  13.389   5.728
63499SOL    HW292331   8.357  13.447   5.844
63500SOL     OW92332  12.892   5.166  14.548
63500SOL    HW192333  12.835   5.129  14.480
63500SOL    HW292334  12.977   5.178  14.505
63501SOL     OW92335   7.423  12.342  14.719
63501SOL    HW192336   7.461  12.259  14.691
63501SOL    HW292337   7.455  12.354  14.808
63502SOL     OW92338  12.665   6.866   1.164
63502SOL    HW192339  12.587   6.810   1.169
63502SOL    HW292340  12.665   6.914   1.247
63503SOL     OW92341   9.102   0.622  12.376
63503SOL    HW192342   9.142   0.557  12.435
63503SOL    HW292343   9.088   0.699  12.432
63504SOL     OW92344   2.421   2.180   7.748
63504SOL    HW192345   2.377   2.202   7.666
63504SOL    HW292346   2.512   2.163   7.722
63505SOL     OW92347   5.630  13.140  14.759
63505SOL    HW192348   5.565  13.084  14.801
63505SOL    HW292349   5.677  13.082  14.699
63506SOL     OW92350  12.233  10.429   9.052
63506SOL    HW192351  12.224  10.345   9.008
63506SOL    HW292352  12.209  10.493   8.985
63507SOL     OW92353  12.303   4.919  10.763
63507SOL    HW192354  12.390   4.882  10.751
63507SOL    HW292355  12.243   4.846  10.747
63508SOL     OW92356  14.591   8.163  13.171
63508SOL    HW192357  14.611   8.241  13.120
63508SOL    HW292358  14.506   8.133  13.138
63509SOL     OW92359  14.166   2.580   0.993
63509SOL    HW192360  14.179   2.487   1.013
63509SOL    HW292361  14.210   2.626   1.064
63510SOL     OW92362   3.480  13.099   6.635
63510SOL    HW192363   3.466  13.057   6.720
63510SOL    HW292364   3.575  13.110   6.629
63511SOL     OW92365  14.230   3.068  13.119
63511SOL    HW192366  14.145   3.058  13.077
63511SOL    HW292367  14.291   3.022  13.062
63512SOL     OW92368   5.360   1.086  12.043
63512SOL    HW192369   5.455   1.092  12.051
63512SOL    HW292370   5.336   1.007  12.093
63513SOL     OW92371   7.205   8.255   8.040
63513SOL    HW192372   7.284   8.275   7.990
63513SOL    HW292373   7.222   8.292   8.127
63514SOL     OW92374   8.834   2.443   9.072
63514SOL    HW192375   8.811   2.352   9.052
63514SOL    HW292376   8.898   2.467   9.005
63515SOL     OW92377   5.505   8.016   8.386
63515SOL    HW192378   5.529   7.924   8.377
63515SOL    HW292379   5.415   8.015   8.417
63516SOL     OW92380  12.781  11.715   2.082
63516SOL    HW192381  12.852  11.748   2.027
63516SOL    HW292382  12.816  11.635   2.122
63517SOL     OW92383   3.199   2.625   3.577
63517SOL    HW192384   3.187   2.718   3.594
63517SOL    HW292385   3.253   2.594   3.650
63518SOL     OW92386  10.562   8.079  14.498
63518SOL    HW192387  10.514   8.044  14.573
63518SOL    HW292388  10.579   8.170  14.520
63519SOL     OW92389  11.462   8.185   1.065
63519SOL    HW192390  11.468   8.168   1.160
63519SOL    HW292391  11.392   8.127   1.035
63520SOL     OW92392   2.894  14.196  13.948
63520SOL    HW192393   2.895  14.103  13.928
63520SOL    HW292394   2.819  14.231  13.900
63521SOL     OW92395   7.823   5.722   3.466
63521SOL    HW192396   7.777   5.789   3.516
63521SOL    HW292397   7.772   5.642   3.478
63522SOL     OW92398   1.782  14.637  11.262
63522SOL    HW192399   1.824  14.555  11.288
63522SOL    HW292400   1.727  14.613  11.188
63523SOL     OW92401   1.166  11.114   5.663
63523SOL    HW192402   1.218  11.119   5.583
63523SOL    HW292403   1.080  11.084   5.633
63524SOL     OW92404   5.051   8.715  10.687
63524SOL    HW192405   5.095   8.723  10.772
63524SOL    HW292406   5.122   8.712  10.623
63525SOL     OW92407  12.136  12.551   5.477
63525SOL    HW192408  12.213  12.573   5.530
63525SOL    HW292409  12.102  12.636   5.448
63526SOL     OW92410   1.866   9.113  11.073
63526SOL    HW192411   1.870   9.195  11.124
63526SOL    HW292412   1.793   9.127  11.012
63527SOL     OW92413   1.590   1.588   5.212
63527SOL    HW192414   1.570   1.507   5.164
63527SOL    HW292415   1.625   1.647   5.145
63528SOL     OW92416   3.910  11.316   1.420
63528SOL    HW192417   3.851  11.257   1.467
63528SOL    HW292418   3.937  11.267   1.342
63529SOL     OW92419   6.533   4.466   4.121
63529SOL    HW192420   6.487   4.479   4.204
63529SOL    HW292421   6.471   4.495   4.055
63530SOL     OW92422   3.796  10.064   2.956
63530SOL    HW192423   3.836  10.136   3.004
63530SOL    HW292424   3.721  10.038   3.010
63531SOL     OW92425  10.560  13.441  12.140
63531SOL    HW192426  10.641  13.401  12.170
63531SOL    HW292427  10.497  13.421  12.209
63532SOL     OW92428   5.502  14.693   6.553
63532SOL    HW192429   5.498  14.775   6.602
63532SOL    HW292430   5.474  14.626   6.615
63533SOL     OW92431   1.090   9.910   1.449
63533SOL    HW192432   1.117   9.943   1.535
63533SOL    HW292433   1.050   9.986   1.406
63534SOL     OW92434   1.765  13.385   1.196
63534SOL    HW192435   1.718  13.458   1.236
63534SOL    HW292436   1.702  13.346   1.136
63535SOL     OW92437   1.211   1.469   8.229
63535SOL    HW192438   1.190   1.515   8.310
63535SOL    HW292439   1.228   1.539   8.166
63536SOL     OW92440   7.212  12.466  10.208
63536SOL    HW192441   7.147  12.441  10.273
63536SOL    HW292442   7.184  12.422  10.128
63537SOL     OW92443   1.797  10.497   7.004
63537SOL    HW192444   1.829  10.457   6.923
63537SOL    HW292445   1.818  10.433   7.072
63538SOL     OW92446   9.773  11.868   6.316
63538SOL    HW192447   9.770  11.954   6.274
63538SOL    HW292448   9.694  11.823   6.285
63539SOL     OW92449   1.745  11.814  10.901
63539SOL    HW192450   1.674  11.770  10.947
63539SOL    HW292451   1.824  11.769  10.930
63540SOL     OW92452  14.792   6.134   5.460
63540SOL    HW192453  14.762   6.131   5.551
63540SOL    HW292454   0.005   6.091   5.461
63541SOL     OW92455   4.906   5.473  12.480
63541SOL    HW192456   4.817   5.440  12.494
63541SOL    HW292457   4.907   5.504  12.390
63542SOL     OW92458   2.454  10.983  13.062
63542SOL    HW192459   2.494  10.904  13.026
63542SOL    HW292460   2.523  11.049  13.060
63543SOL     OW92461   5.330   8.981  13.410
63543SOL    HW192462   5.262   8.989  13.344
63543SOL    HW292463   5.284   8.957  13.490
63544SOL     OW92464   6.497   1.548   6.760
63544SOL    HW192465   6.500   1.528   6.853
63544SOL    HW292466   6.589   1.557   6.734
63545SOL     OW92467   3.377   6.103   5.783
63545SOL    HW192468   3.345   6.115   5.694
63545SOL    HW292469   3.298   6.103   5.837
63546SOL     OW92470   1.048   4.844   9.855
63546SOL    HW192471   0.959   4.808   9.859
63546SOL    HW292472   1.040   4.932   9.891
63547SOL     OW92473   8.749  14.378   1.552
63547SOL    HW192474   8.826  14.417   1.512
63547SOL    HW292475   8.701  14.451   1.590
63548SOL     OW92476   1.576   7.467   0.516
63548SOL    HW192477   1.667   7.464   0.547
63548SOL    HW292478   1.540   7.547   0.554
63549SOL     OW92479  12.012   2.824   1.890
63549SOL    HW192480  12.027   2.913   1.922
63549SOL    HW292481  12.098   2.792   1.863
63550SOL     OW92482   0.840   2.739   2.146
63550SOL    HW192483   0.841   2.651   2.183
63550SOL    HW292484   0.929   2.772   2.160
63551SOL     OW92485  14.300  11.347  11.728
63551SOL    HW192486  14.393  11.339  11.706
63551SOL    HW292487  14.259  11.272  11.684
63552SOL     OW92488  10.855   9.267   5.689
63552SOL    HW192489  10.850   9.228   5.776
63552SOL    HW292490  10.765   9.289   5.667
63553SOL     OW92491  12.656   6.723   8.284
63553SOL    HW192492  12.716   6.769   8.226
63553SOL    HW292493  12.677   6.630   8.271
63554SOL     OW92494  13.546  13.892  12.473
63554SOL    HW192495  13.497  13.816  12.441
63554SOL    HW292496  13.492  13.967  12.449
63555SOL     OW92497   4.388   5.888   7.186
63555SOL    HW192498   4.482   5.903   7.174
63555SOL    HW292499   4.382   5.799   7.220
63556SOL     OW92500  11.645  11.731  14.326
63556SOL    HW192501  11.707  11.741  14.253
63556SOL    HW292502  11.608  11.818  14.338
63557SOL     OW92503   8.456   5.163   8.517
63557SOL    HW192504   8.419   5.131   8.434
63557SOL    HW292505   8.391   5.225   8.550
63558SOL     OW92506   7.113   5.387   3.540
63558SOL    HW192507   7.118   5.365   3.447
63558SOL    HW292508   7.019   5.390   3.558
63559SOL     OW92509  13.403   8.539  13.095
63559SOL    HW192510  13.497   8.533  13.083
63559SOL    HW292511  13.374   8.448  13.105
63560SOL     OW92512   9.656   3.319   3.128
63560SOL    HW192513   9.678   3.391   3.188
63560SOL    HW292514   9.739   3.294   3.088
63561SOL     OW92515   3.547   1.601   7.881
63561SOL    HW192516   3.466   1.633   7.919
63561SOL    HW292517   3.551   1.509   7.908
63562SOL     OW92518  13.563   0.750   7.903
63562SOL    HW192519  13.499   0.820   7.889
63562SOL    HW292520  13.522   0.692   7.966
63563SOL     OW92521   3.891   0.570   7.978
63563SOL    HW192522   3.893   0.666   7.985
63563SOL    HW292523   3.944   0.540   8.052
63564SOL     OW92524  10.087   7.010   9.808
63564SOL    HW192525  10.040   6.972   9.882
63564SOL    HW292526  10.148   7.072   9.847
63565SOL     OW92527  14.670  10.141   0.660
63565SOL    HW192528  14.656  10.210   0.724
63565SOL    HW292529  14.658  10.060   0.709
63566SOL     OW92530   0.721  13.654   4.495
63566SOL    HW192531   0.641  13.603   4.511
63566SOL    HW292532   0.747  13.629   4.406
63567SOL     OW92533   2.768  11.736   5.232
63567SOL    HW192534   2.679  11.724   5.263
63567SOL    HW292535   2.821  11.679   5.287
63568SOL     OW92536   9.771   7.717  13.200
63568SOL    HW192537   9.734   7.790  13.149
63568SOL    HW292538   9.845   7.756  13.247
63569SOL     OW92539  11.241   1.378   6.015
63569SOL    HW192540  11.292   1.309   5.973
63569SOL    HW292541  11.180   1.331   6.071
63570SOL     OW92542   0.517   4.975   3.593
63570SOL    HW192543   0.422   4.968   3.598
63570SOL    HW292544   0.541   4.921   3.518
63571SOL     OW92545  12.820   5.124   5.399
63571SOL    HW192546  12.762   5.154   5.328
63571SOL    HW292547  12.885   5.194   5.407
63572SOL     OW92548   1.956   8.074   0.251
63572SOL    HW192549   1.964   8.131   0.327
63572SOL    HW292550   1.882   8.017   0.273
63573SOL     OW92551   2.323  13.852  13.352
63573SOL    HW192552   2.302  13.943  13.373
63573SOL    HW292553   2.289  13.801  13.426
63574SOL     OW92554   8.430  10.886  13.707
63574SOL    HW192555   8.502  10.823  13.699
63574SOL    HW292556   8.376  10.853  13.779
63575SOL     OW92557   1.102   8.029   6.367
63575SOL    HW192558   1.137   8.100   6.314
63575SOL    HW292559   1.108   7.952   6.311
63576SOL     OW92560  12.277   8.462   4.954
63576SOL    HW192561  12.240   8.402   4.889
63576SOL    HW292562  12.299   8.405   5.028
63577SOL     OW92563   4.931   4.754   3.020
63577SOL    HW192564   4.935   4.779   2.928
63577SOL    HW292565   5.020   4.727   3.041
63578SOL     OW92566   4.834   7.444   1.407
63578SOL    HW192567   4.740   7.425   1.415
63578SOL    HW292568   4.865   7.384   1.339
63579SOL     OW92569  10.264  11.633   4.078
63579SOL    HW192570  10.246  11.719   4.039
63579SOL    HW292571  10.206  11.573   4.032
63580SOL     OW92572   9.799   9.034  11.053
63580SOL    HW192573   9.738   9.100  11.087
63580SOL    HW292574   9.877   9.083  11.028
63581SOL     OW92575   3.768   2.120  13.859
63581SOL    HW192576   3.809   2.206  13.847
63581SOL    HW292577   3.812   2.064  13.795
63582SOL     OW92578  13.450   4.724   2.921
63582SOL    HW192579  13.493   4.801   2.884
63582SOL    HW292580  13.518   4.657   2.921
63583SOL     OW92581  14.514   5.479   3.389
63583SOL    HW192582  14.423   5.506   3.399
63583SOL    HW292583  14.527   5.476   3.294
63584SOL     OW92584   2.850   0.129   3.052
63584SOL    HW192585   2.827   0.221   3.062
63584SOL    HW292586   2.892   0.124   2.966
63585SOL     OW92587  12.597   2.586   6.651
63585SOL    HW192588  12.529   2.545   6.704
63585SOL    HW292589  12.653   2.514   6.623
63586SOL     OW92590   9.141   1.372  13.990
63586SOL    HW192591   9.225   1.328  13.981
63586SOL    HW292592   9.136   1.431  13.915
63587SOL     OW92593   5.936   6.465   5.522
63587SOL    HW192594   6.001   6.457   5.592
63587SOL    HW292595   5.853   6.442   5.564
63588SOL     OW92596   3.934   5.472  10.874
63588SOL    HW192597   4.013   5.419  10.882
63588SOL    HW292598   3.940   5.535  10.946
63589SOL     OW92599   1.534  12.550   1.943
63589SOL    HW192600   1.627  12.554   1.965
63589SOL    HW292601   1.516  12.457   1.931
63590SOL     OW92602  12.634   4.093   1.565
63590SOL    HW192603  12.593   4.149   1.499
63590SOL    HW292604  12.635   4.006   1.526
63591SOL     OW92605  10.281  13.663   5.931
63591SOL    HW192606  10.293  13.571   5.907
63591SOL    HW292607  10.196  13.666   5.974
63592SOL     OW92608   0.328   5.074   1.782
63592SOL    HW192609   0.294   5.159   1.756
63592SOL    HW292610   0.309   5.016   1.708
63593SOL     OW92611   7.886   7.143   7.372
63593SOL    HW192612   7.847   7.058   7.394
63593SOL    HW292613   7.837   7.206   7.426
63594SOL     OW92614  11.920   3.532  13.791
63594SOL    HW192615  11.971   3.539  13.711
63594SOL    HW292616  11.951   3.452  13.833
63595SOL     OW92617   0.778  13.181  11.210
63595SOL    HW192618   0.825  13.127  11.273
63595SOL    HW292619   0.844  13.244  11.179
63596SOL     OW92620   0.067   1.562   3.308
63596SOL    HW192621   0.043   1.490   3.366
63596SOL    HW292622  14.862   1.616   3.303
63597SOL     OW92623   4.346  12.163  12.800
63597SOL    HW192624   4.395  12.218  12.861
63597SOL    HW292625   4.402  12.156  12.723
63598SOL     OW92626   9.127   0.628   4.859
63598SOL    HW192627   9.179   0.549   4.867
63598SOL    HW292628   9.150   0.663   4.773
63599SOL     OW92629   4.690   9.050   5.239
63599SOL    HW192630   4.682   8.956   5.224
63599SOL    HW292631   4.729   9.057   5.326
63600SOL     OW92632  13.715   8.542   9.222
63600SOL    HW192633  13.661   8.529   9.300
63600SOL    HW292634  13.794   8.585   9.254
63601SOL     OW92635  14.356   2.066   6.355
63601SOL    HW192636  14.309   2.024   6.427
63601SOL    HW292637  14.356   2.001   6.285
63602SOL     OW92638   5.045   4.344   7.100
63602SOL    HW192639   5.007   4.360   7.014
63602SOL    HW292640   5.023   4.422   7.151
63603SOL     OW92641   6.022   4.693  12.631
63603SOL    HW192642   5.992   4.622  12.688
63603SOL    HW292643   6.089   4.738  12.683
63604SOL     OW92644   2.118   8.800  14.584
63604SOL    HW192645   2.044   8.860  14.578
63604SOL    HW292646   2.172   8.835  14.655
63605SOL     OW92647   3.985   9.283  12.824
63605SOL    HW192648   3.892   9.301  12.810
63605SOL    HW292649   4.011   9.228  12.750
63606SOL     OW92650  13.998  11.362   4.226
63606SOL    HW192651  14.023  11.278   4.265
63606SOL    HW292652  13.969  11.415   4.300
63607SOL     OW92653   2.477   4.572  14.703
63607SOL    HW192654   2.507   4.506  14.766
63607SOL    HW292655   2.437   4.640  14.757
63608SOL     OW92656   9.446  13.258  13.748
63608SOL    HW192657   9.469  13.165  13.747
63608SOL    HW292658   9.492  13.293  13.824
63609SOL     OW92659  11.433   4.371  13.239
63609SOL    HW192660  11.356   4.395  13.291
63609SOL    HW292661  11.496   4.441  13.256
63610SOL     OW92662  14.146   5.112  12.958
63610SOL    HW192663  14.194   5.068  13.028
63610SOL    HW292664  14.146   5.205  12.984
63611SOL     OW92665   9.658  10.709   4.293
63611SOL    HW192666   9.636  10.750   4.210
63611SOL    HW292667   9.619  10.621   4.287
63612SOL     OW92668   2.272  11.396   2.593
63612SOL    HW192669   2.238  11.402   2.503
63612SOL    HW292670   2.212  11.451   2.644
63613SOL     OW92671   5.041  13.639   9.564
63613SOL    HW192672   5.000  13.577   9.624
63613SOL    HW292673   4.967  13.686   9.524
63614SOL     OW92674  13.878   6.795  14.319
63614SOL    HW192675  13.854   6.833  14.404
63614SOL    HW292676  13.811   6.730  14.302
63615SOL     OW92677   3.182   8.661   5.846
63615SOL    HW192678   3.239   8.718   5.795
63615SOL    HW292679   3.095   8.675   5.809
63616SOL     OW92680  12.887   0.367   9.611
63616SOL    HW192681  12.895   0.323   9.696
63616SOL    HW292682  12.857   0.456   9.632
63617SOL     OW92683  13.448   2.436   6.579
63617SOL    HW192684  13.543   2.429   6.572
63617SOL    HW292685  13.431   2.434   6.673
63618SOL     OW92686   0.518  11.486   4.161
63618SOL    HW192687   0.570  11.409   4.139
63618SOL    HW292688   0.427  11.457   4.152
63619SOL     OW92689  13.713   7.411   5.668
63619SOL    HW192690  13.770   7.377   5.599
63619SOL    HW292691  13.664   7.335   5.698
63620SOL     OW92692  14.395   8.422   7.925
63620SOL    HW192693  14.342   8.411   7.846
63620SOL    HW292694  14.462   8.354   7.919
63621SOL     OW92695   9.610   4.092   2.675
63621SOL    HW192696   9.621   3.997   2.676
63621SOL    HW292697   9.537   4.109   2.735
63622SOL     OW92698   5.279   5.195  10.265
63622SOL    HW192699   5.308   5.258  10.199
63622SOL    HW292700   5.357   5.176  10.316
63623SOL     OW92701   7.154   2.533   8.296
63623SOL    HW192702   7.106   2.477   8.356
63623SOL    HW292703   7.135   2.622   8.326
63624SOL     OW92704   0.651  11.851   9.961
63624SOL    HW192705   0.582  11.914   9.982
63624SOL    HW292706   0.687  11.825  10.046
63625SOL     OW92707  14.855  12.718   6.563
63625SOL    HW192708   0.076  12.728   6.580
63625SOL    HW292709  14.850  12.649   6.496
63626SOL     OW92710  14.603   0.948  11.693
63626SOL    HW192711  14.583   0.866  11.738
63626SOL    HW292712  14.525   0.966  11.641
63627SOL     OW92713  11.306   6.316  13.977
63627SOL    HW192714  11.216   6.347  13.966
63627SOL    HW292715  11.301   6.221  13.969
63628SOL     OW92716  13.834   7.482  11.204
63628SOL    HW192717  13.822   7.408  11.145
63628SOL    HW292718  13.910   7.528  11.169
63629SOL     OW92719   5.138   6.088   9.426
63629SOL    HW192720   5.184   6.006   9.444
63629SOL    HW292721   5.049   6.073   9.458
63630SOL     OW92722  10.822   1.835   0.243
63630SOL    HW192723  10.837   1.751   0.200
63630SOL    HW292724  10.909   1.865   0.267
63631SOL     OW92725   3.197  10.187   1.758
63631SOL    HW192726   3.131  10.140   1.810
63631SOL    HW292727   3.161  10.189   1.670
63632SOL     OW92728  10.363   5.077   7.282
63632SOL    HW192729  10.346   5.053   7.373
63632SOL    HW292730  10.294   5.033   7.232
63633SOL     OW92731   4.770   8.698  11.866
63633SOL    HW192732   4.794   8.684  11.774
63633SOL    HW292733   4.697   8.637  11.881
63634SOL     OW92734  10.337   0.015   7.369
63634SOL    HW192735  10.387   0.081   7.319
63634SOL    HW292736  10.404  14.834   7.411
63635SOL     OW92737  11.424   6.992  14.163
63635SOL    HW192738  11.394   7.077  14.130
63635SOL    HW292739  11.423   6.934  14.087
63636SOL     OW92740   4.878   9.099   6.804
63636SOL    HW192741   4.906   9.165   6.741
63636SOL    HW292742   4.876   9.018   6.754
63637SOL     OW92743  10.002   5.805   8.879
63637SOL    HW192744  10.096   5.816   8.868
63637SOL    HW292745   9.975   5.879   8.933
63638SOL     OW92746  12.655   6.824   3.300
63638SOL    HW192747  12.638   6.752   3.361
63638SOL    HW292748  12.572   6.873   3.297
63639SOL     OW92749  13.837   8.408  14.039
63639SOL    HW192750  13.757   8.356  14.040
63639SOL    HW292751  13.844   8.439  13.949
63640SOL     OW92752  10.281   5.638   3.824
63640SOL    HW192753  10.232   5.662   3.746
63640SOL    HW292754  10.356   5.697   3.824
63641SOL     OW92755  13.257   3.785   3.457
63641SOL    HW192756  13.182   3.815   3.406
63641SOL    HW292757  13.249   3.832   3.540
63642SOL     OW92758   6.275  13.764   3.666
63642SOL    HW192759   6.364  13.781   3.634
63642SOL    HW292760   6.220  13.769   3.588
63643SOL     OW92761  13.373   2.891  10.794
63643SOL    HW192762  13.380   2.969  10.739
63643SOL    HW292763  13.321   2.829  10.743
63644SOL     OW92764  11.123   4.555   1.386
63644SOL    HW192765  11.059   4.617   1.421
63644SOL    HW292766  11.074   4.507   1.319
63645SOL     OW92767  11.469  13.186   1.926
63645SOL    HW192768  11.426  13.148   1.849
63645SOL    HW292769  11.559  13.155   1.921
63646SOL     OW92770   6.667   8.567  11.143
63646SOL    HW192771   6.735   8.504  11.167
63646SOL    HW292772   6.713   8.633  11.092
63647SOL     OW92773  14.374  10.367   8.858
63647SOL    HW192774  14.350  10.351   8.949
63647SOL    HW292775  14.352  10.285   8.813
63648SOL     OW92776   0.736   7.392   6.745
63648SOL    HW192777   0.806   7.363   6.687
63648SOL    HW292778   0.711   7.478   6.712
63649SOL     OW92779  10.073   8.379  10.269
63649SOL    HW192780  10.009   8.349  10.205
63649SOL    HW292781  10.078   8.309  10.334
63650SOL     OW92782  10.239  10.199   4.683
63650SOL    HW192783  10.312  10.259   4.697
63650SOL    HW292784  10.164  10.256   4.665
63651SOL     OW92785   9.593   6.238   8.220
63651SOL    HW192786   9.527   6.269   8.282
63651SOL    HW292787   9.666   6.210   8.274
63652SOL     OW92788   3.069   2.656  11.350
63652SOL    HW192789   3.040   2.726  11.409
63652SOL    HW292790   2.988   2.626  11.308
63653SOL     OW92791  13.710  11.915   0.355
63653SOL    HW192792  13.731  11.949   0.268
63653SOL    HW292793  13.618  11.891   0.350
63654SOL     OW92794   1.017  13.734   3.835
63654SOL    HW192795   1.092  13.775   3.793
63654SOL    HW292796   1.006  13.650   3.790
63655SOL     OW92797   2.085   3.900   3.875
63655SOL    HW192798   2.102   3.958   3.802
63655SOL    HW292799   2.141   3.933   3.946
63656SOL     OW92800   8.782  13.138   4.366
63656SOL    HW192801   8.790  13.106   4.456
63656SOL    HW292802   8.852  13.093   4.318
63657SOL     OW92803   9.878   9.804   3.577
63657SOL    HW192804   9.833   9.777   3.498
63657SOL    HW292805   9.946   9.864   3.547
63658SOL     OW92806  11.886   0.927  14.797
63658SOL    HW192807  11.796   0.947  14.823
63658SOL    HW292808  11.933   1.010  14.808
63659SOL     OW92809  14.724  12.131  12.306
63659SOL    HW192810  14.736  12.092  12.219
63659SOL    HW292811  14.785  12.083  12.362
63660SOL     OW92812   5.808   4.897   3.788
63660SOL    HW192813   5.852   4.886   3.872
63660SOL    HW292814   5.739   4.831   3.788
63661SOL     OW92815   3.285   8.774   2.262
63661SOL    HW192816   3.223   8.711   2.298
63661SOL    HW292817   3.302   8.835   2.334
63662SOL     OW92818   0.974   3.075   2.265
63662SOL    HW192819   0.948   3.093   2.175
63662SOL    HW292820   1.043   3.009   2.258
63663SOL     OW92821   7.820   1.548   5.643
63663SOL    HW192822   7.731   1.513   5.639
63663SOL    HW292823   7.849   1.530   5.733
63664SOL     OW92824   6.410   7.849  14.143
63664SOL    HW192825   6.401   7.912  14.215
63664SOL    HW292826   6.480   7.790  14.172
63665SOL     OW92827   5.779   9.507  11.212
63665SOL    HW192828   5.775   9.442  11.283
63665SOL    HW292829   5.857   9.485  11.163
63666SOL     OW92830   6.640   1.585  10.473
63666SOL    HW192831   6.545   1.575  10.485
63666SOL    HW292832   6.676   1.570  10.561
63667SOL     OW92833  10.921   0.214   1.840
63667SOL    HW192834  10.924   0.148   1.770
63667SOL    HW292835  10.852   0.275   1.813
63668SOL     OW92836   7.553  14.565   5.499
63668SOL    HW192837   7.639  14.577   5.539
63668SOL    HW292838   7.525  14.478   5.528
63669SOL     OW92839   6.033   8.263   4.796
63669SOL    HW192840   6.074   8.203   4.734
63669SOL    HW292841   6.063   8.350   4.769
63670SOL     OW92842   4.267   4.354  13.098
63670SOL    HW192843   4.298   4.441  13.071
63670SOL    HW292844   4.339   4.319  13.150
63671SOL     OW92845  13.133   3.886   9.155
63671SOL    HW192846  13.221   3.925   9.151
63671SOL    HW292847  13.141   3.816   9.219
63672SOL     OW92848   6.207   5.309   8.936
63672SOL    HW192849   6.229   5.217   8.947
63672SOL    HW292850   6.270   5.355   8.990
63673SOL     OW92851   0.846  14.541   3.347
63673SOL    HW192852   0.931  14.524   3.304
63673SOL    HW292853   0.862  14.524   3.439
63674SOL     OW92854   5.103   1.900  13.600
63674SOL    HW192855   5.039   1.908  13.671
63674SOL    HW292856   5.109   1.988  13.563
63675SOL     OW92857   3.055   8.107   7.251
63675SOL    HW192858   3.029   8.018   7.277
63675SOL    HW292859   3.099   8.142   7.329
63676SOL     OW92860   2.430   2.014   1.964
63676SOL    HW192861   2.502   2.040   2.022
63676SOL    HW292862   2.378   2.093   1.954
63677SOL     OW92863   1.270   1.090   1.710
63677SOL    HW192864   1.292   1.051   1.795
63677SOL    HW292865   1.183   1.126   1.722
63678SOL     OW92866   8.271   2.451  12.012
63678SOL    HW192867   8.218   2.402  12.075
63678SOL    HW292868   8.259   2.403  11.930
63679SOL     OW92869  11.814  11.286  12.445
63679SOL    HW192870  11.805  11.228  12.520
63679SOL    HW292871  11.899  11.328  12.456
63680SOL     OW92872  12.360   8.254  10.445
63680SOL    HW192873  12.265   8.245  10.439
63680SOL    HW292874  12.392   8.217  10.362
63681SOL     OW92875   7.753   2.025   7.543
63681SOL    HW192876   7.784   2.093   7.603
63681SOL    HW292877   7.756   1.944   7.595
63682SOL     OW92878  12.489   0.257   7.598
63682SOL    HW192879  12.465   0.181   7.545
63682SOL    HW292880  12.552   0.305   7.545
63683SOL     OW92881  11.812   3.226   7.202
63683SOL    HW192882  11.827   3.146   7.252
63683SOL    HW292883  11.889   3.236   7.146
63684SOL     OW92884   4.017   8.332   6.375
63684SOL    HW192885   3.946   8.299   6.320
63684SOL    HW292886   4.064   8.254   6.404
63685SOL     OW92887  12.625  14.510   0.773
63685SOL    HW192888  12.635  14.471   0.860
63685SOL    HW292889  12.541  14.476   0.741
63686SOL     OW92890  14.352   8.639   2.380
63686SOL    HW192891  14.267   8.643   2.337
63686SOL    HW292892  14.384   8.551   2.362
63687SOL     OW92893   4.908   3.343  14.441
63687SOL    HW192894   4.921   3.437  14.435
63687SOL    HW292895   4.987   3.311  14.485
63688SOL     OW92896  12.682   8.906  11.834
63688SOL    HW192897  12.691   8.822  11.880
63688SOL    HW292898  12.591   8.931  11.848
63689SOL     OW92899   3.083  13.433   2.433
63689SOL    HW192900   3.055  13.387   2.512
63689SOL    HW292901   3.146  13.373   2.392
63690SOL     OW92902   7.591   6.393  13.421
63690SOL    HW192903   7.553   6.324  13.368
63690SOL    HW292904   7.658   6.349  13.474
63691SOL     OW92905   4.216  14.307  13.711
63691SOL    HW192906   4.166  14.386  13.732
63691SOL    HW292907   4.237  14.317  13.618
63692SOL     OW92908  14.722   0.899   3.444
63692SOL    HW192909  14.764   0.836   3.503
63692SOL    HW292910  14.651   0.851   3.403
63693SOL     OW92911   6.904   0.593   0.834
63693SOL    HW192912   6.860   0.538   0.899
63693SOL    HW292913   6.851   0.584   0.755
63694SOL     OW92914  13.992   7.425  11.461
63694SOL    HW192915  14.082   7.424  11.430
63694SOL    HW292916  13.940   7.409  11.382
63695SOL     OW92917  10.529   8.627   1.493
63695SOL    HW192918  10.538   8.580   1.575
63695SOL    HW292919  10.510   8.559   1.428
63696SOL     OW92920  11.751   2.798  11.713
63696SOL    HW192921  11.767   2.886  11.746
63696SOL    HW292922  11.707   2.753  11.785
63697SOL     OW92923  13.613  10.037  14.855
63697SOL    HW192924  13.658  10.039  14.770
63697SOL    HW292925  13.596  10.129   0.002
63698SOL     OW92926   1.575   9.839  14.105
63698SOL    HW192927   1.525   9.914  14.137
63698SOL    HW292928   1.550   9.767  14.163
63699SOL     OW92929   3.257   5.086   6.316
63699SOL    HW192930   3.246   5.144   6.241
63699SOL    HW292931   3.324   5.129   6.370
63700SOL     OW92932   8.772  11.120  14.168
63700SOL    HW192933   8.751  11.031  14.195
63700SOL    HW292934   8.689  11.155  14.135
63701SOL     OW92935   8.914  11.224   8.408
63701SOL    HW192936   8.867  11.265   8.335
63701SOL    HW292937   8.947  11.297   8.459
63702SOL     OW92938   0.831  10.504   7.245
63702SOL    HW192939   0.746  10.474   7.212
63702SOL    HW292940   0.884  10.518   7.167
63703SOL     OW92941   4.108   0.680   9.229
63703SOL    HW192942   4.152   0.709   9.149
63703SOL    HW292943   4.044   0.616   9.200
63704SOL     OW92944  13.970  12.091  13.311
63704SOL    HW192945  14.019  12.054  13.238
63704SOL    HW292946  13.975  12.186  13.298
63705SOL     OW92947  12.004  11.185  14.769
63705SOL    HW192948  12.075  11.244  14.745
63705SOL    HW292949  12.047  11.114  14.817
63706SOL     OW92950   6.053   1.445   9.302
63706SOL    HW192951   6.077   1.353   9.287
63706SOL    HW292952   6.136   1.488   9.322
63707SOL     OW92953  10.182   0.623  10.346
63707SOL    HW192954  10.156   0.676  10.271
63707SOL    HW292955  10.243   0.559  10.309
63708SOL     OW92956   6.853  13.767   2.091
63708SOL    HW192957   6.937  13.809   2.110
63708SOL    HW292958   6.816  13.819   2.020
63709SOL     OW92959   3.772  13.156   1.671
63709SOL    HW192960   3.783  13.246   1.700
63709SOL    HW292961   3.861  13.123   1.661
63710SOL     OW92962  10.357  13.084   3.213
63710SOL    HW192963  10.317  12.998   3.218
63710SOL    HW292964  10.393  13.100   3.300
63711SOL     OW92965   7.746  10.063   4.815
63711SOL    HW192966   7.770  10.153   4.837
63711SOL    HW292967   7.817  10.011   4.851
63712SOL     OW92968   1.489  10.411   7.920
63712SOL    HW192969   1.404  10.369   7.904
63712SOL    HW292970   1.488  10.488   7.864
63713SOL     OW92971  13.213   3.058  12.129
63713SOL    HW192972  13.203   3.096  12.042
63713SOL    HW292973  13.233   2.966  12.113
63714SOL     OW92974   8.351  10.880  10.476
63714SOL    HW192975   8.421  10.945  10.481
63714SOL    HW292976   8.272  10.927  10.502
63715SOL     OW92977   6.056   3.593  14.746
63715SOL    HW192978   6.053   3.540  14.666
63715SOL    HW292979   6.032   3.533  14.816
63716SOL     OW92980   8.886  12.094   4.809
63716SOL    HW192981   8.881  12.112   4.715
63716SOL    HW292982   8.954  12.028   4.818
63717SOL     OW92983   9.498  12.285  13.519
63717SOL    HW192984   9.458  12.259  13.602
63717SOL    HW292985   9.498  12.381  13.522
63718SOL     OW92986  11.899   7.107   7.055
63718SOL    HW192987  11.923   7.188   7.099
63718SOL    HW292988  11.981   7.074   7.018
63719SOL     OW92989   7.852  12.817   9.466
63719SOL    HW192990   7.777  12.762   9.441
63719SOL    HW292991   7.814  12.900   9.493
63720SOL     OW92992   6.026   9.968  10.482
63720SOL    HW192993   5.948  10.022  10.468
63720SOL    HW292994   5.999   9.880  10.456
63721SOL     OW92995   7.688   5.376  13.003
63721SOL    HW192996   7.723   5.424  12.928
63721SOL    HW292997   7.693   5.284  12.977
63722SOL     OW92998  12.273   2.388   7.056
63722SOL    HW192999  12.340   2.339   7.102
63722SOL    HW293000  12.263   2.469   7.106
63723SOL     OW93001  12.611  14.599  13.667
63723SOL    HW193002  12.537  14.638  13.713
63723SOL    HW293003  12.620  14.651  13.587
63724SOL     OW93004   4.791   6.671   9.874
63724SOL    HW193005   4.716   6.730   9.867
63724SOL    HW293006   4.867   6.730   9.882
63725SOL     OW93007   1.139   1.989  11.064
63725SOL    HW193008   1.149   2.057  10.997
63725SOL    HW293009   1.059   2.013  11.111
63726SOL     OW93010   9.221  14.489  12.648
63726SOL    HW193011   9.207  14.532  12.732
63726SOL    HW293012   9.134  14.486  12.607
63727SOL     OW93013   4.209  12.332  13.163
63727SOL    HW193014   4.256  12.404  13.203
63727SOL    HW293015   4.128  12.371  13.131
63728SOL     OW93016   7.295  10.417   6.899
63728SOL    HW193017   7.218  10.360   6.896
63728SOL    HW293018   7.263  10.499   6.939
63729SOL     OW93019   9.834   4.312   7.499
63729SOL    HW193020   9.742   4.314   7.524
63729SOL    HW293021   9.881   4.289   7.580
63730SOL     OW93022   1.596  10.393   5.327
63730SOL    HW193023   1.668  10.348   5.283
63730SOL    HW293024   1.579  10.341   5.405
63731SOL     OW93025   6.303   5.519   6.967
63731SOL    HW193026   6.249   5.563   6.901
63731SOL    HW293027   6.375   5.480   6.916
63732SOL     OW93028  12.801   9.822  14.378
63732SOL    HW193029  12.858   9.802  14.452
63732SOL    HW293030  12.848   9.789  14.302
63733SOL     OW93031   8.823   8.338  12.205
63733SOL    HW193032   8.792   8.392  12.133
63733SOL    HW293033   8.745   8.320  12.257
63734SOL     OW93034   4.748   0.630   4.462
63734SOL    HW193035   4.753   0.703   4.524
63734SOL    HW293036   4.742   0.552   4.518
63735SOL     OW93037   5.123   2.203   5.209
63735SOL    HW193038   5.214   2.206   5.239
63735SOL    HW293039   5.080   2.142   5.268
63736SOL     OW93040  12.902   0.016   9.348
63736SOL    HW193041  12.902  14.842   9.264
63736SOL    HW293042  12.947   0.099   9.328
63737SOL     OW93043  12.652   7.618   1.350
63737SOL    HW193044  12.656   7.632   1.444
63737SOL    HW293045  12.564   7.646   1.325
63738SOL     OW93046   3.130   8.257  13.746
63738SOL    HW193047   3.171   8.343  13.751
63738SOL    HW293048   3.036   8.275  13.757
63739SOL     OW93049   4.380   3.098   3.669
63739SOL    HW193050   4.424   3.121   3.750
63739SOL    HW293051   4.395   3.173   3.611
63740SOL     OW93052   3.303   9.027   9.377
63740SOL    HW193053   3.345   8.944   9.353
63740SOL    HW293054   3.264   9.058   9.295
63741SOL     OW93055   6.238  10.669   4.089
63741SOL    HW193056   6.153  10.652   4.129
63741SOL    HW293057   6.218  10.688   3.997
63742SOL     OW93058  11.515  14.870   4.509
63742SOL    HW193059  11.506  14.809   4.435
63742SOL    HW293060  11.521  14.813   4.586
63743SOL     OW93061   0.866   2.540   0.692
63743SOL    HW193062   0.795   2.477   0.701
63743SOL    HW293063   0.863   2.590   0.774
63744SOL     OW93064  12.719  14.651   8.369
63744SOL    HW193065  12.811  14.623   8.363
63744SOL    HW293066  12.675  14.604   8.298
63745SOL     OW93067   1.670   0.192  10.812
63745SOL    HW193068   1.749   0.231  10.847
63745SOL    HW293069   1.691   0.173  10.720
63746SOL     OW93070   9.977  11.786   7.015
63746SOL    HW193071  10.015  11.703   6.985
63746SOL    HW293072   9.939  11.765   7.100
63747SOL     OW93073   8.353  10.763  10.069
63747SOL    HW193074   8.296  10.786   9.995
63747SOL    HW293075   8.299  10.708  10.125
63748SOL     OW93076   1.283   9.630   9.111
63748SOL    HW193077   1.247   9.649   9.025
63748SOL    HW293078   1.274   9.713   9.159
63749SOL     OW93079   3.444   1.091   5.859
63749SOL    HW193080   3.408   1.003   5.847
63749SOL    HW293081   3.438   1.132   5.773
63750SOL     OW93082  13.140  11.735   3.157
63750SOL    HW193083  13.204  11.790   3.111
63750SOL    HW293084  13.193  11.667   3.198
63751SOL     OW93085   3.504  11.585  10.635
63751SOL    HW193086   3.545  11.668  10.659
63751SOL    HW293087   3.480  11.596  10.543
63752SOL     OW93088   1.925  13.887  12.813
63752SOL    HW193089   1.927  13.802  12.768
63752SOL    HW293090   1.888  13.868  12.899
63753SOL     OW93091   4.430   1.058   8.131
63753SOL    HW193092   4.386   1.054   8.216
63753SOL    HW293093   4.431   0.968   8.100
63754SOL     OW93094  12.562   9.618   5.698
63754SOL    HW193095  12.614   9.663   5.631
63754SOL    HW293096  12.607   9.640   5.780
63755SOL     OW93097  11.670   3.974  12.356
63755SOL    HW193098  11.604   3.939  12.296
63755SOL    HW293099  11.630   3.963  12.443
63756SOL     OW93100  11.305   2.762   0.725
63756SOL    HW193101  11.326   2.781   0.816
63756SOL    HW293102  11.234   2.698   0.729
63757SOL     OW93103   9.054   0.730  14.736
63757SOL    HW193104   8.961   0.748  14.726
63757SOL    HW293105   9.088   0.805  14.786
63758SOL     OW93106   7.164   0.296   9.233
63758SOL    HW193107   7.085   0.349   9.229
63758SOL    HW293108   7.134   0.206   9.221
63759SOL     OW93109   5.053  13.315   3.504
63759SOL    HW193110   5.067  13.395   3.555
63759SOL    HW293111   4.963  13.321   3.473
63760SOL     OW93112   7.581   9.062   0.404
63760SOL    HW193113   7.554   9.080   0.494
63760SOL    HW293114   7.529   9.123   0.351
63761SOL     OW93115  13.414  12.793   7.123
63761SOL    HW193116  13.375  12.868   7.078
63761SOL    HW293117  13.507  12.815   7.129
63762SOL     OW93118   2.607   6.777   4.003
63762SOL    HW193119   2.673   6.776   3.934
63762SOL    HW293120   2.559   6.695   3.991
63763SOL     OW93121   3.806   7.080   2.120
63763SOL    HW193122   3.893   7.112   2.094
63763SOL    HW293123   3.799   7.104   2.212
63764SOL     OW93124  14.598  14.557  12.256
63764SOL    HW193125  14.535  14.495  12.293
63764SOL    HW293126  14.646  14.591  12.331
63765SOL     OW93127   0.941  12.548   4.269
63765SOL    HW193128   0.928  12.569   4.176
63765SOL    HW293129   0.984  12.626   4.305
63766SOL     OW93130  10.883   4.569   4.246
63766SOL    HW193131  10.976   4.546   4.252
63766SOL    HW293132  10.850   4.517   4.172
63767SOL     OW93133  14.354   2.798   6.531
63767SOL    HW193134  14.388   2.750   6.607
63767SOL    HW293135  14.425   2.857   6.506
63768SOL     OW93136   9.789   4.621   1.176
63768SOL    HW193137   9.743   4.538   1.189
63768SOL    HW293138   9.729   4.675   1.125
63769SOL     OW93139  10.056   3.181   5.616
63769SOL    HW193140  10.063   3.178   5.520
63769SOL    HW293141  10.007   3.102   5.639
63770SOL     OW93142  14.870   0.501   1.909
63770SOL    HW193143   0.018   0.457   1.992
63770SOL    HW293144  14.794   0.554   1.929
63771SOL     OW93145   4.531  13.859  12.022
63771SOL    HW193146   4.471  13.931  12.040
63771SOL    HW293147   4.559  13.829  12.108
63772SOL     OW93148   3.876   5.708  14.051
63772SOL    HW193149   3.895   5.614  14.050
63772SOL    HW293150   3.788   5.715  14.013
63773SOL     OW93151   4.237  14.507   6.836
63773SOL    HW193152   4.200  14.575   6.893
63773SOL    HW293153   4.166  14.445   6.823
63774SOL     OW93154  12.050   1.421   1.091
63774SOL    HW193155  12.108   1.351   1.121
63774SOL    HW293156  12.096   1.459   1.015
63775SOL     OW93157   5.152  14.594   5.848
63775SOL    HW193158   5.091  14.653   5.804
63775SOL    HW293159   5.104  14.512   5.857
63776SOL     OW93160   5.307   5.878   0.018
63776SOL    HW193161   5.235   5.902   0.076
63776SOL    HW293162   5.376   5.845   0.076
63777SOL     OW93163  12.046   6.466   6.549
63777SOL    HW193164  12.098   6.527   6.602
63777SOL    HW293165  12.052   6.501   6.460
63778SOL     OW93166   3.694   1.997   3.477
63778SOL    HW193167   3.637   2.019   3.404
63778SOL    HW293168   3.735   2.080   3.501
63779SOL     OW93169  12.407  13.694   4.442
63779SOL    HW193170  12.348  13.768   4.457
63779SOL    HW293171  12.456  13.686   4.524
63780SOL     OW93172   3.495   2.191   8.134
63780SOL    HW193173   3.577   2.226   8.170
63780SOL    HW293174   3.513   2.176   8.042
63781SOL     OW93175   0.640   9.528   0.944
63781SOL    HW193176   0.548   9.546   0.965
63781SOL    HW293177   0.654   9.438   0.972
63782SOL     OW93178   3.776   8.961   6.531
63782SOL    HW193179   3.767   8.871   6.502
63782SOL    HW293180   3.827   9.004   6.462
63783SOL     OW93181  12.995   6.793   0.945
63783SOL    HW193182  13.059   6.838   1.001
63783SOL    HW293183  13.009   6.831   0.858
63784SOL     OW93184   9.489  14.022   8.067
63784SOL    HW193185   9.563  14.034   8.007
63784SOL    HW293186   9.524  13.969   8.138
63785SOL     OW93187   0.132   4.246  12.930
63785SOL    HW193188   0.102   4.156  12.935
63785SOL    HW293189   0.186   4.258  13.008
63786SOL     OW93190   8.336  13.513   1.085
63786SOL    HW193191   8.305  13.444   1.143
63786SOL    HW293192   8.421  13.480   1.053
63787SOL     OW93193   4.606   3.623   4.324
63787SOL    HW193194   4.677   3.580   4.277
63787SOL    HW293195   4.624   3.607   4.416
63788SOL     OW93196   3.137   0.619   6.587
63788SOL    HW193197   3.165   0.705   6.619
63788SOL    HW293198   3.052   0.605   6.628
63789SOL     OW93199   9.812   1.022   2.361
63789SOL    HW193200   9.854   0.943   2.327
63789SOL    HW293201   9.838   1.025   2.453
63790SOL     OW93202   4.929  12.155  13.218
63790SOL    HW193203   5.011  12.204  13.213
63790SOL    HW293204   4.950  12.079  13.272
63791SOL     OW93205  13.736   8.134  10.979
63791SOL    HW193206  13.766   8.047  11.004
63791SOL    HW293207  13.734   8.183  11.062
63792SOL     OW93208   9.311   4.580   0.366
63792SOL    HW193209   9.264   4.578   0.450
63792SOL    HW293210   9.333   4.489   0.349
63793SOL     OW93211  13.115   1.269   9.901
63793SOL    HW193212  13.065   1.267   9.819
63793SOL    HW293213  13.146   1.359   9.908
63794SOL     OW93214   7.267   3.514  12.285
63794SOL    HW193215   7.326   3.565  12.340
63794SOL    HW293216   7.305   3.426  12.285
63795SOL     OW93217   3.231  14.006  10.505
63795SOL    HW193218   3.305  14.016  10.565
63795SOL    HW293219   3.182  13.932  10.541
63796SOL     OW93220  13.866   9.284  12.959
63796SOL    HW193221  13.783   9.236  12.966
63796SOL    HW293222  13.856   9.339  12.881
63797SOL     OW93223  10.674  13.786  14.088
63797SOL    HW193224  10.708  13.861  14.137
63797SOL    HW293225  10.742  13.767  14.024
63798SOL     OW93226  12.732  13.689   8.099
63798SOL    HW193227  12.647  13.719   8.131
63798SOL    HW293228  12.795  13.720   8.164
63799SOL     OW93229   6.001   7.514   2.283
63799SOL    HW193230   6.067   7.512   2.214
63799SOL    HW293231   5.918   7.500   2.237
63800SOL     OW93232   9.097  12.158  12.574
63800SOL    HW193233   9.179  12.170  12.622
63800SOL    HW293234   9.121  12.171  12.482
63801SOL     OW93235   7.419   2.399   1.759
63801SOL    HW193236   7.512   2.412   1.744
63801SOL    HW293237   7.387   2.483   1.792
63802SOL     OW93238   8.031   5.434   3.367
63802SOL    HW193239   7.965   5.427   3.297
63802SOL    HW293240   8.059   5.526   3.363
63803SOL     OW93241   8.897   9.369   3.752
63803SOL    HW193242   8.955   9.442   3.777
63803SOL    HW293243   8.918   9.352   3.660
63804SOL     OW93244  10.873   2.362   3.855
63804SOL    HW193245  10.875   2.342   3.761
63804SOL    HW293246  10.953   2.322   3.889
63805SOL     OW93247  11.240   7.747  13.205
63805SOL    HW193248  11.328   7.782  13.218
63805SOL    HW293249  11.254   7.666  13.156
63806SOL     OW93250   7.653   4.707   8.730
63806SOL    HW193251   7.646   4.681   8.638
63806SOL    HW293252   7.690   4.795   8.728
63807SOL     OW93253   2.308   1.413   9.576
63807SOL    HW193254   2.379   1.477   9.567
63807SOL    HW293255   2.233   1.465   9.606
63808SOL     OW93256   5.132   5.694   3.137
63808SOL    HW193257   5.132   5.737   3.051
63808SOL    HW293258   5.179   5.612   3.122
63809SOL     OW93259   3.723   5.509   0.931
63809SOL    HW193260   3.767   5.514   1.016
63809SOL    HW293261   3.775   5.566   0.874
63810SOL     OW93262   9.239   9.170  12.988
63810SOL    HW193263   9.161   9.193  12.938
63810SOL    HW293264   9.274   9.254  13.018
63811SOL     OW93265   8.634   7.913   5.875
63811SOL    HW193266   8.645   7.878   5.964
63811SOL    HW293267   8.702   7.980   5.867
63812SOL     OW93268  12.010   3.110   6.860
63812SOL    HW193269  11.996   3.199   6.893
63812SOL    HW293270  12.102   3.107   6.836
63813SOL     OW93271   2.255   3.255   7.166
63813SOL    HW193272   2.252   3.208   7.249
63813SOL    HW293273   2.318   3.206   7.113
63814SOL     OW93274  12.284   2.802   9.319
63814SOL    HW193275  12.223   2.787   9.247
63814SOL    HW293276  12.324   2.717   9.336
63815SOL     OW93277  12.090   9.125   2.943
63815SOL    HW193278  12.151   9.185   2.986
63815SOL    HW293279  12.134   9.040   2.945
63816SOL     OW93280   7.451   5.579  12.960
63816SOL    HW193281   7.441   5.608  13.051
63816SOL    HW293282   7.495   5.494  12.966
63817SOL     OW93283   9.668   8.204   9.400
63817SOL    HW193284   9.661   8.268   9.470
63817SOL    HW293285   9.747   8.154   9.420
63818SOL     OW93286   4.057   9.365  10.337
63818SOL    HW193287   4.060   9.323  10.423
63818SOL    HW293288   4.138   9.416  10.332
63819SOL     OW93289   1.150  14.240   9.680
63819SOL    HW193290   1.081  14.225   9.616
63819SOL    HW293291   1.191  14.154   9.692
63820SOL     OW93292  12.138   4.736  13.213
63820SOL    HW193293  12.204   4.801  13.238
63820SOL    HW293294  12.190   4.659  13.188
63821SOL     OW93295  12.610   5.995   8.947
63821SOL    HW193296  12.603   5.901   8.929
63821SOL    HW293297  12.704   6.010   8.956
63822SOL     OW93298   8.407  13.646   2.218
63822SOL    HW193299   8.441  13.619   2.133
63822SOL    HW293300   8.321  13.683   2.199
63823SOL     OW93301  11.211   6.288   1.681
63823SOL    HW193302  11.258   6.220   1.729
63823SOL    HW293303  11.171   6.342   1.750
63824SOL     OW93304   6.515   2.426   3.119
63824SOL    HW193305   6.543   2.494   3.181
63824SOL    HW293306   6.578   2.355   3.131
63825SOL     OW93307  13.915   6.017   4.881
63825SOL    HW193308  14.008   6.041   4.876
63825SOL    HW293309  13.872   6.094   4.919
63826SOL     OW93310  14.225   7.240  13.889
63826SOL    HW193311  14.308   7.216  13.930
63826SOL    HW293312  14.241   7.325  13.848
63827SOL     OW93313   9.019  14.585   7.979
63827SOL    HW193314   8.979  14.530   8.046
63827SOL    HW293315   9.047  14.663   8.027
63828SOL     OW93316  11.222   5.615   2.784
63828SOL    HW193317  11.155   5.640   2.848
63828SOL    HW293318  11.296   5.671   2.803
63829SOL     OW93319   8.626  11.027  12.449
63829SOL    HW193320   8.674  11.107  12.469
63829SOL    HW293321   8.538  11.042  12.485
63830SOL     OW93322   2.149  13.890  10.533
63830SOL    HW193323   2.117  13.800  10.532
63830SOL    HW293324   2.076  13.941  10.498
63831SOL     OW93325   5.247  10.514  13.278
63831SOL    HW193326   5.215  10.567  13.352
63831SOL    HW293327   5.233  10.570  13.202
63832SOL     OW93328   2.821   2.891   2.752
63832SOL    HW193329   2.815   2.918   2.843
63832SOL    HW293330   2.894   2.943   2.717
63833SOL     OW93331   4.018   4.810   7.619
63833SOL    HW193332   4.050   4.828   7.707
63833SOL    HW293333   4.078   4.745   7.583
63834SOL     OW93334  12.886   8.324   9.948
63834SOL    HW193335  12.980   8.343   9.939
63834SOL    HW293336  12.880   8.229   9.941
63835SOL     OW93337  11.096   9.120   6.779
63835SOL    HW193338  11.064   9.200   6.738
63835SOL    HW293339  11.190   9.135   6.791
63836SOL     OW93340   4.397  13.587  11.250
63836SOL    HW193341   4.394  13.624  11.338
63836SOL    HW293342   4.328  13.520  11.250
63837SOL     OW93343   1.628   1.102   4.338
63837SOL    HW193344   1.567   1.107   4.412
63837SOL    HW293345   1.712   1.130   4.374
63838SOL     OW93346   2.616   8.167   0.982
63838SOL    HW193347   2.635   8.247   0.933
63838SOL    HW293348   2.588   8.198   1.068
63839SOL     OW93349  14.359  14.122  12.080
63839SOL    HW193350  14.430  14.156  12.026
63839SOL    HW293351  14.381  14.031  12.096
63840SOL     OW93352   1.670   3.050   9.540
63840SOL    HW193353   1.615   3.009   9.607
63840SOL    HW293354   1.723   2.979   9.505
63841SOL     OW93355   3.565   3.864  13.882
63841SOL    HW193356   3.643   3.827  13.924
63841SOL    HW293357   3.599   3.933  13.825
63842SOL     OW93358  13.601   5.637   4.750
63842SOL    HW193359  13.686   5.677   4.767
63842SOL    HW293360  13.618   5.543   4.746
63843SOL     OW93361   9.584   9.595  13.812
63843SOL    HW193362   9.578   9.577  13.718
63843SOL    HW293363   9.647   9.531  13.845
63844SOL     OW93364   8.170  12.732   6.686
63844SOL    HW193365   8.175  12.819   6.725
63844SOL    HW293366   8.185  12.672   6.759
63845SOL     OW93367   6.121  14.684   2.676
63845SOL    HW193368   6.074  14.768   2.673
63845SOL    HW293369   6.073  14.632   2.741
63846SOL     OW93370  11.726  13.608  13.772
63846SOL    HW193371  11.633  13.587  13.777
63846SOL    HW293372  11.731  13.680  13.709
63847SOL     OW93373   3.215   6.784   1.287
63847SOL    HW193374   3.207   6.844   1.361
63847SOL    HW293375   3.171   6.704   1.317
63848SOL     OW93376  14.246   2.338   1.118
63848SOL    HW193377  14.275   2.247   1.107
63848SOL    HW293378  14.310   2.376   1.178
63849SOL     OW93379   7.410   7.078   3.523
63849SOL    HW193380   7.348   7.102   3.454
63849SOL    HW293381   7.362   7.014   3.576
63850SOL     OW93382   1.333  14.126  13.075
63850SOL    HW193383   1.282  14.046  13.066
63850SOL    HW293384   1.274  14.188  13.118
63851SOL     OW93385   3.772   5.390   9.416
63851SOL    HW193386   3.845   5.430   9.463
63851SOL    HW293387   3.791   5.296   9.417
63852SOL     OW93388   6.088   3.815   9.508
63852SOL    HW193389   6.168   3.816   9.456
63852SOL    HW293390   6.048   3.900   9.493
63853SOL     OW93391   9.476  11.801   2.216
63853SOL    HW193392   9.479  11.897   2.208
63853SOL    HW293393   9.550  11.771   2.164
63854SOL     OW93394  13.392  10.621  14.601
63854SOL    HW193395  13.398  10.535  14.560
63854SOL    HW293396  13.373  10.603  14.693
63855SOL     OW93397   8.718   5.864   2.673
63855SOL    HW193398   8.715   5.829   2.763
63855SOL    HW293399   8.691   5.790   2.618
63856SOL     OW93400  13.697  10.371   6.558
63856SOL    HW193401  13.642  10.449   6.566
63856SOL    HW293402  13.743  10.366   6.641
63857SOL     OW93403   6.284   8.034  11.500
63857SOL    HW193404   6.256   7.958  11.552
63857SOL    HW293405   6.217   8.042  11.432
63858SOL     OW93406  14.711  12.281   1.504
63858SOL    HW193407  14.790  12.309   1.550
63858SOL    HW293408  14.690  12.354   1.446
63859SOL     OW93409  11.626   3.564   0.290
63859SOL    HW193410  11.542   3.518   0.289
63859SOL    HW293411  11.617   3.628   0.360
63860SOL     OW93412   2.545   1.526   1.108
63860SOL    HW193413   2.454   1.542   1.085
63860SOL    HW293414   2.571   1.450   1.056
63861SOL     OW93415   2.030   5.887   8.369
63861SOL    HW193416   2.019   5.932   8.285
63861SOL    HW293417   2.094   5.940   8.416
63862SOL     OW93418  14.572   3.051   3.090
63862SOL    HW193419  14.642   2.997   3.127
63862SOL    HW293420  14.597   3.141   3.113
63863SOL     OW93421   7.489   4.981   2.550
63863SOL    HW193422   7.501   4.904   2.605
63863SOL    HW293423   7.394   4.991   2.543
63864SOL     OW93424   0.509   7.767   3.716
63864SOL    HW193425   0.472   7.837   3.770
63864SOL    HW293426   0.604   7.782   3.720
63865SOL     OW93427   8.654   4.085   0.713
63865SOL    HW193428   8.618   4.158   0.764
63865SOL    HW293429   8.749   4.096   0.719
63866SOL     OW93430   6.684  11.753   7.060
63866SOL    HW193431   6.641  11.824   7.012
63866SOL    HW293432   6.623  11.680   7.057
63867SOL     OW93433   9.355   3.767   4.036
63867SOL    HW193434   9.402   3.683   4.035
63867SOL    HW293435   9.291   3.758   3.965
63868SOL     OW93436   2.685   0.761   7.177
63868SOL    HW193437   2.717   0.824   7.242
63868SOL    HW293438   2.590   0.768   7.183
63869SOL     OW93439   9.013  10.310  14.818
63869SOL    HW193440   8.998  10.289  14.726
63869SOL    HW293441   9.104  10.286  14.834
63870SOL     OW93442   9.312  14.496   4.766
63870SOL    HW193443   9.294  14.511   4.673
63870SOL    HW293444   9.225  14.484   4.805
63871SOL     OW93445   5.618   1.468   6.057
63871SOL    HW193446   5.665   1.551   6.066
63871SOL    HW293447   5.685   1.401   6.070
63872SOL     OW93448   2.655   9.775   9.236
63872SOL    HW193449   2.600   9.698   9.220
63872SOL    HW293450   2.716   9.776   9.162
63873SOL     OW93451   5.737  12.755   8.341
63873SOL    HW193452   5.737  12.671   8.385
63873SOL    HW293453   5.751  12.819   8.411
63874SOL     OW93454   4.023   5.622   2.441
63874SOL    HW193455   4.045   5.530   2.458
63874SOL    HW293456   4.060   5.670   2.515
63875SOL     OW93457  11.293  14.681   3.613
63875SOL    HW193458  11.246  14.598   3.622
63875SOL    HW293459  11.227  14.748   3.631
63876SOL     OW93460  10.474   1.614   0.017
63876SOL    HW193461  10.436   1.701   0.004
63876SOL    HW293462  10.434   1.560  14.822
63877SOL     OW93463   7.800   9.522   6.921
63877SOL    HW193464   7.738   9.499   6.851
63877SOL    HW293465   7.781   9.459   6.991
63878SOL     OW93466   9.264   6.480   9.838
63878SOL    HW193467   9.278   6.574   9.848
63878SOL    HW293468   9.329   6.453   9.773
63879SOL     OW93469   4.295   7.029   1.416
63879SOL    HW193470   4.295   7.048   1.510
63879SOL    HW293471   4.223   7.080   1.381
63880SOL     OW93472   5.071   0.783  14.002
63880SOL    HW193473   5.033   0.871  14.005
63880SOL    HW293474   5.166   0.798  14.002
63881SOL     OW93475   9.689   9.006   7.914
63881SOL    HW193476   9.666   9.003   8.006
63881SOL    HW293477   9.619   8.958   7.870
63882SOL     OW93478   9.929   8.859   6.845
63882SOL    HW193479   9.928   8.888   6.936
63882SOL    HW293480   9.941   8.939   6.795
63883SOL     OW93481  11.606   3.711   0.526
63883SOL    HW193482  11.544   3.774   0.490
63883SOL    HW293483  11.625   3.744   0.614
63884SOL     OW93484   7.575  14.819   4.518
63884SOL    HW193485   7.511   0.012   4.544
63884SOL    HW293486   7.646  14.828   4.582
63885SOL     OW93487   8.597   1.414   3.368
63885SOL    HW193488   8.613   1.414   3.273
63885SOL    HW293489   8.642   1.493   3.399
63886SOL     OW93490   2.989   6.085  11.156
63886SOL    HW193491   3.082   6.108  11.150
63886SOL    HW293492   2.949   6.156  11.204
63887SOL     OW93493   2.342   8.009   1.666
63887SOL    HW193494   2.348   7.998   1.571
63887SOL    HW293495   2.270   8.071   1.678
63888SOL     OW93496  11.042   4.939   7.355
63888SOL    HW193497  11.095   5.011   7.388
63888SOL    HW293498  11.067   4.864   7.410
63889SOL     OW93499   3.025  10.154   0.663
63889SOL    HW193500   2.955  10.102   0.704
63889SOL    HW293501   2.998  10.245   0.676
63890SOL     OW93502   0.069   6.083   4.052
63890SOL    HW193503  14.850   6.068   4.031
63890SOL    HW293504   0.068   6.138   4.131
63891SOL     OW93505  12.041   0.645  13.591
63891SOL    HW193506  12.089   0.615  13.668
63891SOL    HW293507  12.085   0.603  13.517
63892SOL     OW93508  13.412   1.802  12.972
63892SOL    HW193509  13.503   1.834  12.969
63892SOL    HW293510  13.359   1.881  12.969
63893SOL     OW93511  10.620  10.758   6.478
63893SOL    HW193512  10.657  10.733   6.562
63893SOL    HW293513  10.543  10.702   6.467
63894SOL     OW93514  13.031   5.825   5.543
63894SOL    HW193515  13.097   5.839   5.476
63894SOL    HW293516  13.080   5.793   5.619
63895SOL     OW93517   7.677   2.845   0.118
63895SOL    HW193518   7.744   2.783   0.087
63895SOL    HW293519   7.628   2.869   0.039
63896SOL     OW93520  12.374   2.051  13.324
63896SOL    HW193521  12.422   1.986  13.376
63896SOL    HW293522  12.359   2.008  13.240
63897SOL     OW93523  12.180   4.031   4.416
63897SOL    HW193524  12.261   3.986   4.442
63897SOL    HW293525  12.201   4.069   4.330
63898SOL     OW93526  13.965   9.882  11.431
63898SOL    HW193527  13.903   9.949  11.405
63898SOL    HW293528  13.925   9.840  11.507
63899SOL     OW93529  14.120   6.385  10.776
63899SOL    HW193530  14.075   6.307  10.809
63899SOL    HW293531  14.137   6.365  10.684
63900SOL     OW93532   6.573   5.053  12.833
63900SOL    HW193533   6.538   4.972  12.869
63900SOL    HW293534   6.616   5.027  12.752
63901SOL     OW93535   2.716   2.271   8.987
63901SOL    HW193536   2.626   2.301   8.997
63901SOL    HW293537   2.769   2.336   9.034
63902SOL     OW93538  14.632   3.503   2.480
63902SOL    HW193539  14.723   3.529   2.468
63902SOL    HW293540  14.582   3.581   2.456
63903SOL     OW93541   5.844  10.674   9.699
63903SOL    HW193542   5.817  10.741   9.762
63903SOL    HW293543   5.806  10.703   9.616
63904SOL     OW93544   4.726   8.836   3.822
63904SOL    HW193545   4.632   8.842   3.842
63904SOL    HW293546   4.733   8.761   3.763
63905SOL     OW93547  10.815   1.714  13.445
63905SOL    HW193548  10.909   1.714  13.464
63905SOL    HW293549  10.787   1.803  13.466
63906SOL     OW93550   1.363  12.167  14.601
63906SOL    HW193551   1.348  12.244  14.547
63906SOL    HW293552   1.345  12.093  14.542
63907SOL     OW93553  12.904   7.760   3.948
63907SOL    HW193554  12.850   7.697   3.996
63907SOL    HW293555  12.985   7.764   3.998
63908SOL     OW93556  13.096   6.526  14.356
63908SOL    HW193557  13.059   6.444  14.322
63908SOL    HW293558  13.020   6.576  14.386
63909SOL     OW93559   3.891   9.078   9.302
63909SOL    HW193560   3.907   9.062   9.395
63909SOL    HW293561   3.974   9.054   9.260
63910SOL     OW93562   9.950   7.362   0.814
63910SOL    HW193563  10.003   7.428   0.858
63910SOL    HW293564  10.013   7.305   0.770
63911SOL     OW93565  13.104   9.094   3.312
63911SOL    HW193566  13.082   9.035   3.239
63911SOL    HW293567  13.142   9.036   3.378
63912SOL     OW93568  13.094   1.828   5.838
63912SOL    HW193569  13.016   1.773   5.840
63912SOL    HW293570  13.164   1.771   5.868
63913SOL     OW93571  14.548  14.658   8.519
63913SOL    HW193572  14.453  14.648   8.531
63913SOL    HW293573  14.582  14.569   8.521
63914SOL     OW93574  11.776   3.974   4.791
63914SOL    HW193575  11.815   4.058   4.769
63914SOL    HW293576  11.741   3.985   4.879
63915SOL     OW93577   6.083   4.470   1.524
63915SOL    HW193578   6.119   4.410   1.590
63915SOL    HW293579   6.128   4.553   1.540
63916SOL     OW93580  11.682  12.545  11.028
63916SOL    HW193581  11.759  12.521  10.977
63916SOL    HW293582  11.660  12.465  11.077
63917SOL     OW93583   8.517   1.761   2.475
63917SOL    HW193584   8.492   1.668   2.471
63917SOL    HW293585   8.501   1.786   2.566
63918SOL     OW93586   6.434   6.840   9.477
63918SOL    HW193587   6.447   6.757   9.431
63918SOL    HW293588   6.428   6.905   9.407
63919SOL     OW93589   8.585   9.950   9.329
63919SOL    HW193590   8.617   9.863   9.353
63919SOL    HW293591   8.490   9.940   9.323
63920SOL     OW93592  13.868   3.807  14.815
63920SOL    HW193593  13.791   3.763  14.852
63920SOL    HW293594  13.887   3.759  14.735
63921SOL     OW93595  12.209  10.966   5.485
63921SOL    HW193596  12.269  10.980   5.558
63921SOL    HW293597  12.167  11.051   5.471
63922SOL     OW93598   5.264   8.599   1.060
63922SOL    HW193599   5.272   8.544   0.982
63922SOL    HW293600   5.298   8.685   1.033
63923SOL     OW93601  14.239   8.485  13.041
63923SOL    HW193602  14.181   8.417  13.008
63923SOL    HW293603  14.311   8.488  12.978
63924SOL     OW93604   7.261   2.096   6.976
63924SOL    HW193605   7.230   2.088   7.066
63924SOL    HW293606   7.319   2.021   6.964
63925SOL     OW93607  13.703  13.022  10.358
63925SOL    HW193608  13.668  13.101  10.398
63925SOL    HW293609  13.777  13.052  10.306
63926SOL     OW93610   4.125  11.771   2.680
63926SOL    HW193611   4.053  11.710   2.695
63926SOL    HW293612   4.110  11.840   2.744
63927SOL     OW93613   7.931   8.003  14.831
63927SOL    HW193614   7.996   7.940  14.802
63927SOL    HW293615   7.852   7.952  14.847
63928SOL     OW93616  10.920   0.804   3.095
63928SOL    HW193617  10.834   0.773   3.124
63928SOL    HW293618  10.970   0.816   3.176
63929SOL     OW93619   8.857  10.906   0.603
63929SOL    HW193620   8.892  10.989   0.636
63929SOL    HW293621   8.868  10.911   0.508
63930SOL     OW93622  11.028  10.755  11.990
63930SOL    HW193623  11.042  10.683  11.928
63930SOL    HW293624  11.096  10.819  11.969
63931SOL     OW93625   9.175   9.178  12.248
63931SOL    HW193626   9.194   9.191  12.155
63931SOL    HW293627   9.140   9.089  12.254
63932SOL     OW93628   3.318   8.007   1.998
63932SOL    HW193629   3.254   7.966   1.940
63932SOL    HW293630   3.309   8.101   1.983
63933SOL     OW93631   3.574   8.085  13.167
63933SOL    HW193632   3.599   8.134  13.088
63933SOL    HW293633   3.494   8.129  13.197
63934SOL     OW93634   1.789   2.884   3.144
63934SOL    HW193635   1.800   2.845   3.230
63934SOL    HW293636   1.819   2.817   3.083
63935SOL     OW93637   2.211  14.546   0.738
63935SOL    HW193638   2.237  14.565   0.648
63935SOL    HW293639   2.208  14.632   0.781
63936SOL     OW93640   4.571  14.259   4.141
63936SOL    HW193641   4.575  14.215   4.056
63936SOL    HW293642   4.627  14.208   4.198
63937SOL     OW93643   4.683   8.893   8.121
63937SOL    HW193644   4.653   8.947   8.049
63937SOL    HW293645   4.762   8.850   8.088
63938SOL     OW93646   9.239   8.839   5.904
63938SOL    HW193647   9.308   8.801   5.958
63938SOL    HW293648   9.178   8.766   5.888
63939SOL     OW93649   4.234   8.816  10.073
63939SOL    HW193650   4.300   8.808  10.142
63939SOL    HW293651   4.285   8.843   9.996
63940SOL     OW93652  14.544   6.795  13.459
63940SOL    HW193653  14.484   6.721  13.450
63940SOL    HW293654  14.600   6.772  13.533
63941SOL     OW93655   7.617  10.274   0.047
63941SOL    HW193656   7.636  10.362   0.014
63941SOL    HW293657   7.538  10.247   0.002
63942SOL     OW93658   6.844   5.304  10.785
63942SOL    HW193659   6.768   5.319  10.728
63942SOL    HW293660   6.807   5.265  10.864
63943SOL     OW93661   0.943   3.389   3.568
63943SOL    HW193662   0.996   3.445   3.512
63943SOL    HW293663   1.006   3.348   3.628
63944SOL     OW93664   2.587   1.729   6.952
63944SOL    HW193665   2.650   1.741   6.880
63944SOL    HW293666   2.502   1.748   6.912
63945SOL     OW93667   3.591  14.455  14.529
63945SOL    HW193668   3.503  14.440  14.495
63945SOL    HW293669   3.640  14.377  14.503
63946SOL     OW93670   0.355  10.535   1.601
63946SOL    HW193671   0.300  10.566   1.673
63946SOL    HW293672   0.422  10.482   1.644
63947SOL     OW93673   8.451   3.883  11.410
63947SOL    HW193674   8.488   3.884  11.322
63947SOL    HW293675   8.393   3.807  11.411
63948SOL     OW93676   8.115   7.425  14.167
63948SOL    HW193677   8.206   7.455  14.175
63948SOL    HW293678   8.122   7.337  14.129
63949SOL     OW93679   8.662   1.088   7.507
63949SOL    HW193680   8.571   1.068   7.526
63949SOL    HW293681   8.674   1.063   7.415
63950SOL     OW93682   1.016   7.115  10.741
63950SOL    HW193683   0.930   7.146  10.768
63950SOL    HW293684   1.000   7.028  10.706
63951SOL     OW93685  10.952   5.766  13.003
63951SOL    HW193686  10.992   5.800  13.083
63951SOL    HW293687  10.859   5.762  13.023
63952SOL     OW93688   1.455  13.110   3.801
63952SOL    HW193689   1.409  13.187   3.766
63952SOL    HW293690   1.392  13.039   3.794
63953SOL     OW93691   7.141  14.552   4.476
63953SOL    HW193692   7.165  14.465   4.508
63953SOL    HW293693   7.186  14.613   4.534
63954SOL     OW93694  13.902  14.248   3.583
63954SOL    HW193695  13.951  14.166   3.589
63954SOL    HW293696  13.862  14.246   3.496
63955SOL     OW93697   8.327   4.974   4.424
63955SOL    HW193698   8.309   4.982   4.518
63955SOL    HW293699   8.370   5.056   4.401
63956SOL     OW93700   9.779   6.372   5.661
63956SOL    HW193701   9.725   6.451   5.671
63956SOL    HW293702   9.743   6.328   5.584
63957SOL     OW93703   0.350   5.524   0.992
63957SOL    HW193704   0.443   5.550   0.989
63957SOL    HW293705   0.352   5.429   0.997
63958SOL     OW93706   8.311  11.516   2.630
63958SOL    HW193707   8.343  11.467   2.554
63958SOL    HW293708   8.227  11.552   2.601
63959SOL     OW93709  11.377  12.984   1.703
63959SOL    HW193710  11.378  13.062   1.648
63959SOL    HW293711  11.397  12.912   1.642
63960SOL     OW93712   6.038   3.337  11.950
63960SOL    HW193713   6.067   3.351  11.860
63960SOL    HW293714   6.118   3.320  11.999
63961SOL     OW93715  14.405   2.356   3.816
63961SOL    HW193716  14.362   2.389   3.737
63961SOL    HW293717  14.384   2.263   3.818
63962SOL     OW93718   1.948  14.105   9.525
63962SOL    HW193719   1.990  14.180   9.568
63962SOL    HW293720   2.015  14.036   9.526
63963SOL     OW93721   8.726   4.524   3.214
63963SOL    HW193722   8.676   4.443   3.212
63963SOL    HW293723   8.817   4.496   3.221
63964SOL     OW93724   9.275   7.822  12.974
63964SOL    HW193725   9.343   7.758  12.956
63964SOL    HW293726   9.320   7.893  13.020
63965SOL     OW93727   5.883  10.003  13.296
63965SOL    HW193728   5.913  10.092  13.314
63965SOL    HW293729   5.895   9.992  13.202
63966SOL     OW93730   0.412   2.628   5.752
63966SOL    HW193731   0.502   2.627   5.786
63966SOL    HW293732   0.418   2.582   5.668
63967SOL     OW93733   2.022   7.440  10.506
63967SOL    HW193734   2.053   7.523  10.470
63967SOL    HW293735   2.089   7.415  10.570
63968SOL     OW93736  11.376   2.577   8.101
63968SOL    HW193737  11.418   2.492   8.095
63968SOL    HW293738  11.448   2.638   8.120
63969SOL     OW93739  13.067  12.042   8.523
63969SOL    HW193740  13.124  12.109   8.486
63969SOL    HW293741  13.126  11.986   8.574
63970SOL     OW93742   1.498  12.252   2.608
63970SOL    HW193743   1.520  12.169   2.566
63970SOL    HW293744   1.567  12.312   2.578
63971SOL     OW93745   7.477  11.401   7.643
63971SOL    HW193746   7.449  11.397   7.735
63971SOL    HW293747   7.501  11.310   7.622
63972SOL     OW93748   9.450   0.585   1.079
63972SOL    HW193749   9.528   0.551   1.035
63972SOL    HW293750   9.418   0.511   1.131
63973SOL     OW93751   4.482   6.597   4.522
63973SOL    HW193752   4.533   6.662   4.571
63973SOL    HW293753   4.401   6.588   4.572
63974SOL     OW93754  10.070   7.471   7.112
63974SOL    HW193755  10.148   7.428   7.077
63974SOL    HW293756  10.008   7.474   7.039
63975SOL     OW93757  11.650   2.751   1.470
63975SOL    HW193758  11.610   2.664   1.475
63975SOL    HW293759  11.694   2.752   1.384
63976SOL     OW93760  12.678   4.776   0.655
63976SOL    HW193761  12.644   4.861   0.682
63976SOL    HW293762  12.765   4.771   0.694
63977SOL     OW93763   4.563  11.238  12.163
63977SOL    HW193764   4.657  11.219  12.165
63977SOL    HW293765   4.556  11.318  12.111
63978SOL     OW93766   6.395   0.970  11.523
63978SOL    HW193767   6.369   1.048  11.474
63978SOL    HW293768   6.315   0.919  11.530
63979SOL     OW93769  13.353   4.199   5.967
63979SOL    HW193770  13.324   4.108   5.968
63979SOL    HW293771  13.274   4.249   5.946
63980SOL     OW93772   7.062   4.979   5.241
63980SOL    HW193773   7.005   4.937   5.304
63980SOL    HW293774   7.117   5.037   5.293
63981SOL     OW93775   3.694   0.905  12.861
63981SOL    HW193776   3.713   0.999  12.851
63981SOL    HW293777   3.729   0.866  12.781
63982SOL     OW93778  10.160  13.586   4.610
63982SOL    HW193779  10.146  13.672   4.649
63982SOL    HW293780  10.254  13.583   4.591
63983SOL     OW93781   2.224  13.906   8.232
63983SOL    HW193782   2.209  13.996   8.260
63983SOL    HW293783   2.137  13.866   8.232
63984SOL     OW93784   0.260  14.855   8.921
63984SOL    HW193785   0.295   0.051   8.863
63984SOL    HW293786   0.204  14.803   8.864
63985SOL     OW93787   9.021   6.579   1.977
63985SOL    HW193788   9.099   6.614   1.933
63985SOL    HW293789   8.982   6.655   2.020
63986SOL     OW93790  10.852   7.032   4.678
63986SOL    HW193791  10.878   7.025   4.586
63986SOL    HW293792  10.918   7.090   4.717
63987SOL     OW93793  12.343   5.249   3.161
63987SOL    HW193794  12.343   5.293   3.076
63987SOL    HW293795  12.268   5.189   3.157
63988SOL     OW93796   5.310   6.361   1.838
63988SOL    HW193797   5.344   6.398   1.757
63988SOL    HW293798   5.300   6.437   1.896
63989SOL     OW93799   9.087  11.635   9.958
63989SOL    HW193800   9.018  11.583   9.916
63989SOL    HW293801   9.123  11.577  10.025
63990SOL     OW93802  13.984   0.912   5.709
63990SOL    HW193803  14.078   0.915   5.728
63990SOL    HW293804  13.959   1.004   5.699
63991SOL     OW93805   8.563   1.468  13.297
63991SOL    HW193806   8.536   1.417  13.221
63991SOL    HW293807   8.629   1.414  13.340
63992SOL     OW93808  11.491  13.740   0.504
63992SOL    HW193809  11.520  13.765   0.591
63992SOL    HW293810  11.532  13.804   0.445
63993SOL     OW93811   3.980   6.795   9.981
63993SOL    HW193812   3.975   6.732  10.053
63993SOL    HW293813   4.067   6.833   9.989
63994SOL     OW93814   8.983   9.390   2.015
63994SOL    HW193815   9.013   9.341   2.091
63994SOL    HW293816   9.059   9.441   1.988
63995SOL     OW93817   3.467   0.094   3.666
63995SOL    HW193818   3.460   0.187   3.644
63995SOL    HW293819   3.560   0.076   3.663
63996SOL     OW93820   3.030   3.762   0.546
63996SOL    HW193821   2.942   3.744   0.579
63996SOL    HW293822   3.027   3.854   0.520
63997SOL     OW93823   8.670  13.102  10.946
63997SOL    HW193824   8.722  13.092  11.026
63997SOL    HW293825   8.728  13.070  10.876
63998SOL     OW93826   3.841  11.082  13.677
63998SOL    HW193827   3.908  11.017  13.656
63998SOL    HW293828   3.875  11.164  13.642
63999SOL     OW93829   1.374   0.329   8.537
63999SOL    HW193830   1.367   0.271   8.461
63999SOL    HW293831   1.444   0.390   8.514
64000SOL     OW93832   0.425  12.171   8.369
64000SOL    HW193833   0.396  12.260   8.348
64000SOL    HW293834   0.384  12.152   8.454
64001SOL     OW93835  14.543   8.239   8.202
64001SOL    HW193836  14.539   8.246   8.297
64001SOL    HW293837  14.476   8.300   8.171
64002SOL     OW93838   1.180   9.922   7.394
64002SOL    HW193839   1.243   9.949   7.327
64002SOL    HW293840   1.178   9.995   7.456
64003SOL     OW93841   0.387   8.453   4.485
64003SOL    HW193842   0.354   8.385   4.544
64003SOL    HW293843   0.335   8.443   4.405
64004SOL     OW93844   9.602  10.089   5.771
64004SOL    HW193845   9.540  10.157   5.744
64004SOL    HW293846   9.590  10.019   5.707
64005SOL     OW93847  10.041   3.480   7.938
64005SOL    HW193848  10.017   3.530   7.860
64005SOL    HW293849   9.960   3.473   7.989
64006SOL     OW93850   6.374  10.276   6.708
64006SOL    HW193851   6.337  10.190   6.689
64006SOL    HW293852   6.298  10.335   6.711
64007SOL     OW93853  12.505   7.120   1.566
64007SOL    HW193854  12.513   7.206   1.526
64007SOL    HW293855  12.468   7.136   1.653
64008SOL     OW93856   9.609  12.645   3.406
64008SOL    HW193857   9.594  12.577   3.471
64008SOL    HW293858   9.628  12.598   3.325
64009SOL     OW93859  12.090   2.442  13.133
64009SOL    HW193860  12.162   2.407  13.080
64009SOL    HW293861  12.083   2.534  13.107
64010SOL     OW93862   5.110  12.283   5.655
64010SOL    HW193863   5.114  12.227   5.733
64010SOL    HW293864   5.074  12.227   5.587
64011SOL     OW93865   7.737   5.113  12.909
64011SOL    HW193866   7.812   5.055  12.903
64011SOL    HW293867   7.681   5.087  12.836
64012SOL     OW93868  10.519  12.728   2.402
64012SOL    HW193869  10.430  12.728   2.438
64012SOL    HW293870  10.516  12.665   2.330
64013SOL     OW93871   1.726   4.195  11.828
64013SOL    HW193872   1.697   4.105  11.813
64013SOL    HW293873   1.817   4.186  11.855
64014SOL     OW93874   0.153   4.606   8.118
64014SOL    HW193875   0.140   4.690   8.075
64014SOL    HW293876   0.065   4.568   8.123
64015SOL     OW93877   6.717   1.726   9.249
64015SOL    HW193878   6.774   1.794   9.212
64015SOL    HW293879   6.634   1.737   9.203
64016SOL     OW93880  11.353  10.190   3.577
64016SOL    HW193881  11.360  10.249   3.502
64016SOL    HW293882  11.376  10.244   3.652
64017SOL     OW93883   1.855   4.579   8.053
64017SOL    HW193884   1.810   4.495   8.068
64017SOL    HW293885   1.939   4.570   8.098
64018SOL     OW93886   4.695   5.415   7.533
64018SOL    HW193887   4.636   5.344   7.560
64018SOL    HW293888   4.769   5.370   7.492
64019SOL     OW93889   6.402  10.706   8.583
64019SOL    HW193890   6.367  10.795   8.589
64019SOL    HW293891   6.454  10.706   8.502
64020SOL     OW93892   9.734  13.158   4.076
64020SOL    HW193893   9.783  13.225   4.028
64020SOL    HW293894   9.798  13.090   4.095
64021SOL     OW93895  12.748  13.255  14.564
64021SOL    HW193896  12.787  13.217  14.485
64021SOL    HW293897  12.797  13.336  14.579
64022SOL     OW93898   4.235   3.561  11.138
64022SOL    HW193899   4.216   3.573  11.232
64022SOL    HW293900   4.154   3.585  11.094
64023SOL     OW93901   7.246   6.933   5.052
64023SOL    HW193902   7.202   7.004   5.005
64023SOL    HW293903   7.292   6.884   4.984
64024SOL     OW93904   4.632   1.307   3.177
64024SOL    HW193905   4.689   1.297   3.100
64024SOL    HW293906   4.544   1.313   3.140
64025SOL     OW93907   9.205   7.962  13.997
64025SOL    HW193908   9.136   8.027  13.992
64025SOL    HW293909   9.160   7.878  13.996
64026SOL     OW93910   0.390   1.669   9.437
64026SOL    HW193911   0.410   1.612   9.362
64026SOL    HW293912   0.410   1.615   9.514
64027SOL     OW93913   7.122   9.499   9.953
64027SOL    HW193914   7.051   9.557   9.981
64027SOL    HW293915   7.108   9.488   9.859
64028SOL     OW93916  11.601   4.154   5.755
64028SOL    HW193917  11.628   4.069   5.721
64028SOL    HW293918  11.510   4.141   5.783
64029SOL     OW93919   5.569   2.893   1.997
64029SOL    HW193920   5.561   2.914   1.904
64029SOL    HW293921   5.662   2.872   2.009
64030SOL     OW93922   7.966   4.376   1.244
64030SOL    HW193923   8.008   4.294   1.220
64030SOL    HW293924   7.915   4.400   1.167
64031SOL     OW93925  12.396   1.258  13.541
64031SOL    HW193926  12.349   1.273  13.459
64031SOL    HW293927  12.486   1.237  13.513
64032SOL     OW93928  12.042   4.622   7.409
64032SOL    HW193929  11.959   4.622   7.457
64032SOL    HW293930  12.032   4.553   7.344
64033SOL     OW93931   0.091   0.796   4.283
64033SOL    HW193932   0.069   0.887   4.304
64033SOL    HW293933   0.131   0.800   4.196
64034SOL     OW93934   5.186  13.989   6.751
64034SOL    HW193935   5.254  13.994   6.684
64034SOL    HW293936   5.233  13.970   6.832
64035SOL     OW93937  11.852   0.367  14.538
64035SOL    HW193938  11.883   0.338  14.623
64035SOL    HW293939  11.787   0.435  14.557
64036SOL     OW93940   6.364  10.743   6.550
64036SOL    HW193941   6.375  10.689   6.472
64036SOL    HW293942   6.269  10.761   6.553
64037SOL     OW93943   3.154   5.411   9.966
64037SOL    HW193944   3.080   5.472   9.975
64037SOL    HW293945   3.128   5.335  10.020
64038SOL     OW93946   7.353   7.709   6.510
64038SOL    HW193947   7.367   7.660   6.590
64038SOL    HW293948   7.401   7.791   6.524
64039SOL     OW93949  12.020   8.882   4.277
64039SOL    HW193950  12.056   8.867   4.365
64039SOL    HW293951  11.960   8.808   4.263
64040SOL     OW93952   5.743  14.243  10.327
64040SOL    HW193953   5.707  14.167  10.280
64040SOL    HW293954   5.782  14.206  10.406
64041SOL     OW93955   6.990   0.848   5.693
64041SOL    HW193956   6.984   0.926   5.749
64041SOL    HW293957   7.083   0.841   5.672
64042SOL     OW93958   2.526   0.905  11.011
64042SOL    HW193959   2.507   0.971  11.078
64042SOL    HW293960   2.618   0.883  11.026
64043SOL     OW93961  10.433   9.923   5.307
64043SOL    HW193962  10.388   9.920   5.223
64043SOL    HW293963  10.525   9.934   5.285
64044SOL     OW93964   8.994   7.083   3.464
64044SOL    HW193965   8.963   7.172   3.483
64044SOL    HW293966   8.974   7.070   3.372
64045SOL     OW93967   4.148   2.181  13.620
64045SOL    HW193968   4.187   2.200  13.705
64045SOL    HW293969   4.168   2.088  13.605
64046SOL     OW93970   2.954   1.201   4.625
64046SOL    HW193971   2.927   1.214   4.534
64046SOL    HW293972   2.907   1.122   4.652
64047SOL     OW93973  14.590  13.481  12.698
64047SOL    HW193974  14.495  13.489  12.690
64047SOL    HW293975  14.623  13.496  12.609
64048SOL     OW93976   6.920   9.529   2.087
64048SOL    HW193977   6.919   9.468   2.160
64048SOL    HW293978   7.009   9.523   2.051
64049SOL     OW93979  14.287   7.142  12.316
64049SOL    HW193980  14.307   7.069  12.375
64049SOL    HW293981  14.225   7.106  12.253
64050SOL     OW93982   5.768   1.228   7.591
64050SOL    HW193983   5.832   1.298   7.605
64050SOL    HW293984   5.684   1.268   7.612
64051SOL     OW93985  14.390   5.289  13.568
64051SOL    HW193986  14.380   5.379  13.537
64051SOL    HW293987  14.435   5.244  13.497
64052SOL     OW93988  11.134  11.831   1.699
64052SOL    HW193989  11.064  11.837   1.634
64052SOL    HW293990  11.115  11.901   1.761
64053SOL     OW93991   3.725  13.507  11.115
64053SOL    HW193992   3.642  13.513  11.067
64053SOL    HW293993   3.734  13.414  11.136
64054SOL     OW93994   3.919   0.654   1.705
64054SOL    HW193995   3.842   0.696   1.742
64054SOL    HW293996   3.898   0.643   1.612
64055SOL     OW93997   3.995  12.568  12.280
64055SOL    HW193998   4.041  12.587  12.361
64055SOL    HW293999   4.054  12.510  12.232
64056SOL     OW94000   1.206   7.297   1.163
64056SOL    HW194001   1.231   7.373   1.111
64056SOL    HW294002   1.117   7.316   1.194
64057SOL     OW94003   2.176   0.302   7.368
64057SOL    HW194004   2.191   0.208   7.375
64057SOL    HW294005   2.263   0.340   7.359
64058SOL     OW94006  14.505   4.249   6.627
64058SOL    HW194007  14.551   4.174   6.588
64058SOL    HW294008  14.473   4.299   6.552
64059SOL     OW94009   0.070   5.160   0.965
64059SOL    HW194010   0.090   5.177   0.873
64059SOL    HW294011   0.149   5.188   1.012
64060SOL     OW94012  10.319   1.528   3.998
64060SOL    HW194013  10.337   1.472   4.074
64060SOL    HW294014  10.238   1.492   3.961
64061SOL     OW94015  12.619   2.987   1.430
64061SOL    HW194016  12.659   2.910   1.470
64061SOL    HW294017  12.600   3.045   1.504
64062SOL     OW94018   4.483  13.070  12.998
64062SOL    HW194019   4.482  13.157  13.037
64062SOL    HW294020   4.442  13.081  12.912
64063SOL     OW94021  13.388   2.529   7.652
64063SOL    HW194022  13.475   2.491   7.639
64063SOL    HW294023  13.404   2.605   7.709
64064SOL     OW94024   7.010  12.444   6.521
64064SOL    HW194025   6.986  12.512   6.458
64064SOL    HW294026   6.928  12.418   6.561
64065SOL     OW94027   5.340  14.319   3.011
64065SOL    HW194028   5.397  14.393   3.032
64065SOL    HW294029   5.323  14.328   2.917
64066SOL     OW94030   1.372   3.135   1.633
64066SOL    HW194031   1.355   3.184   1.552
64066SOL    HW294032   1.318   3.057   1.624
64067SOL     OW94033   8.078  14.099   9.890
64067SOL    HW194034   8.075  14.179   9.838
64067SOL    HW294035   7.994  14.056   9.873
64068SOL     OW94036  10.944   5.233   5.751
64068SOL    HW194037  10.935   5.183   5.831
64068SOL    HW294038  10.902   5.317   5.769
64069SOL     OW94039   9.964   1.349  14.030
64069SOL    HW194040   9.903   1.422  14.031
64069SOL    HW294041   9.972   1.325  13.937
64070SOL     OW94042   3.339   1.967   7.843
64070SOL    HW194043   3.431   1.942   7.851
64070SOL    HW294044   3.318   2.009   7.926
64071SOL     OW94045   6.517   8.809   4.813
64071SOL    HW194046   6.506   8.811   4.718
64071SOL    HW294047   6.490   8.721   4.839
64072SOL     OW94048  13.534   8.041  11.985
64072SOL    HW194049  13.621   8.079  11.978
64072SOL    HW294050  13.548   7.954  12.021
64073SOL     OW94051  14.320   6.920   2.283
64073SOL    HW194052  14.363   7.005   2.291
64073SOL    HW294053  14.312   6.906   2.189
64074SOL     OW94054   7.807   2.325   5.183
64074SOL    HW194055   7.740   2.372   5.233
64074SOL    HW294056   7.857   2.277   5.249
64075SOL     OW94057  11.519   2.754   7.640
64075SOL    HW194058  11.439   2.718   7.604
64075SOL    HW294059  11.492   2.838   7.679
64076SOL     OW94060  10.577  14.543   1.305
64076SOL    HW194061  10.652  14.488   1.286
64076SOL    HW294062  10.544  14.569   1.219
64077SOL     OW94063   1.015   9.397  12.704
64077SOL    HW194064   0.970   9.409  12.788
64077SOL    HW294065   0.976   9.461  12.646
64078SOL     OW94066  10.295  13.191   8.782
64078SOL    HW194067  10.338  13.114   8.819
64078SOL    HW294068  10.205  13.187   8.817
64079SOL     OW94069  12.251   3.041   4.927
64079SOL    HW194070  12.276   3.055   4.836
64079SOL    HW294071  12.289   3.115   4.974
64080SOL     OW94072  11.843  11.680   6.902
64080SOL    HW194073  11.856  11.744   6.832
64080SOL    HW294074  11.789  11.611   6.862
64081SOL     OW94075   3.170   2.135   0.396
64081SOL    HW194076   3.168   2.055   0.448
64081SOL    HW294077   3.083   2.173   0.409
64082SOL     OW94078   0.248   3.778   0.692
64082SOL    HW194079   0.294   3.701   0.659
64082SOL    HW294080   0.313   3.824   0.745
64083SOL     OW94081   3.623  13.947   9.721
64083SOL    HW194082   3.570  14.012   9.768
64083SOL    HW294083   3.678  13.999   9.663
64084SOL     OW94084   8.308   5.265  13.202
64084SOL    HW194085   8.224   5.221  13.200
64084SOL    HW294086   8.288   5.355  13.230
64085SOL     OW94087   3.379   9.222   4.711
64085SOL    HW194088   3.470   9.218   4.680
64085SOL    HW294089   3.335   9.280   4.649
64086SOL     OW94090   3.531   7.936   1.673
64086SOL    HW194091   3.579   7.911   1.595
64086SOL    HW294092   3.439   7.924   1.649
64087SOL     OW94093   3.856   3.054   9.707
64087SOL    HW194094   3.919   3.111   9.751
64087SOL    HW294095   3.839   3.095   9.623
64088SOL     OW94096   6.840   7.303   7.174
64088SOL    HW194097   6.812   7.268   7.090
64088SOL    HW294098   6.763   7.297   7.231
64089SOL     OW94099  13.397   8.799   9.396
64089SOL    HW194100  13.487   8.815   9.366
64089SOL    HW294101  13.352   8.882   9.377
64090SOL     OW94102   3.482  10.643   3.875
64090SOL    HW194103   3.548  10.622   3.941
64090SOL    HW294104   3.399  10.640   3.923
64091SOL     OW94105  11.250   8.117   4.659
64091SOL    HW194106  11.196   8.195   4.651
64091SOL    HW294107  11.287   8.121   4.747
64092SOL     OW94108   6.920  13.882   6.486
64092SOL    HW194109   6.952  13.933   6.412
64092SOL    HW294110   6.975  13.909   6.560
64093SOL     OW94111  13.207   2.090   2.330
64093SOL    HW194112  13.138   2.156   2.333
64093SOL    HW294113  13.288   2.139   2.335
64094SOL     OW94114  13.789   3.346  12.675
64094SOL    HW194115  13.704   3.340  12.632
64094SOL    HW294116  13.837   3.410  12.622
64095SOL     OW94117   7.621   5.449   7.201
64095SOL    HW194118   7.674   5.509   7.253
64095SOL    HW294119   7.535   5.450   7.243
64096SOL     OW94120   3.173   2.901  10.374
64096SOL    HW194121   3.120   2.963  10.424
64096SOL    HW294122   3.218   2.956  10.309
64097SOL     OW94123   5.098  11.694  13.368
64097SOL    HW194124   5.065  11.622  13.314
64097SOL    HW294125   5.107  11.655  13.455
64098SOL     OW94126   3.920  12.498   2.895
64098SOL    HW194127   3.883  12.545   2.970
64098SOL    HW294128   3.925  12.407   2.924
64099SOL     OW94129  14.487   6.403   3.401
64099SOL    HW194130  14.414   6.399   3.339
64099SOL    HW294131  14.557   6.353   3.357
64100SOL     OW94132  10.595   1.902   8.245
64100SOL    HW194133  10.651   1.873   8.172
64100SOL    HW294134  10.606   1.997   8.247
64101SOL     OW94135   1.559   3.392   0.365
64101SOL    HW194136   1.616   3.421   0.293
64101SOL    HW294137   1.618   3.346   0.424
64102SOL     OW94138   4.234  11.237   0.202
64102SOL    HW194139   4.217  11.144   0.183
64102SOL    HW294140   4.182  11.285   0.138
64103SOL     OW94141  13.450   4.996   7.967
64103SOL    HW194142  13.377   5.057   7.979
64103SOL    HW294143  13.500   5.003   8.048
64104SOL     OW94144   9.583   9.191  13.159
64104SOL    HW194145   9.493   9.159  13.157
64104SOL    HW294146   9.631   9.131  13.102
64105SOL     OW94147   6.592  13.193  13.721
64105SOL    HW194148   6.553  13.280  13.717
64105SOL    HW294149   6.560  13.156  13.803
64106SOL     OW94150   4.552   2.230   4.372
64106SOL    HW194151   4.624   2.281   4.336
64106SOL    HW294152   4.586   2.141   4.377
64107SOL     OW94153  13.172  11.243   1.704
64107SOL    HW194154  13.153  11.279   1.791
64107SOL    HW294155  13.261  11.274   1.685
64108SOL     OW94156   9.034   2.318   6.169
64108SOL    HW194157   9.017   2.375   6.095
64108SOL    HW294158   9.064   2.236   6.130
64109SOL     OW94159   6.823  13.739   6.778
64109SOL    HW194160   6.732  13.713   6.762
64109SOL    HW294161   6.829  13.749   6.872
64110SOL     OW94162  11.109   2.806  13.490
64110SOL    HW194163  11.186   2.838  13.536
64110SOL    HW294164  11.092   2.719  13.528
64111SOL     OW94165   7.448  13.648   3.306
64111SOL    HW194166   7.363  13.622   3.341
64111SOL    HW294167   7.438  13.740   3.282
64112SOL     OW94168   7.538   9.333   1.748
64112SOL    HW194169   7.468   9.267   1.750
64112SOL    HW294170   7.598   9.307   1.817
64113SOL     OW94171  11.049   0.623  14.569
64113SOL    HW194172  10.964   0.627  14.526
64113SOL    HW294173  11.038   0.672  14.651
64114SOL     OW94174  12.933   8.091  10.832
64114SOL    HW194175  12.899   8.002  10.821
64114SOL    HW294176  12.923   8.108  10.926
64115SOL     OW94177   7.892   9.745   9.884
64115SOL    HW194178   7.841   9.825   9.873
64115SOL    HW294179   7.880   9.722   9.976
64116SOL     OW94180  14.410   1.686   3.368
64116SOL    HW194181  14.457   1.603   3.373
64116SOL    HW294182  14.330   1.671   3.419
64117SOL     OW94183   9.338   0.001   0.177
64117SOL    HW194184   9.359   0.006   0.084
64117SOL    HW294185   9.393   0.067   0.218
64118SOL     OW94186   5.469  10.039  12.522
64118SOL    HW194187   5.468  10.049  12.617
64118SOL    HW294188   5.559  10.014  12.502
64119SOL     OW94189   6.659  13.982  10.594
64119SOL    HW194190   6.595  13.929  10.547
64119SOL    HW294191   6.744  13.955  10.558
64120SOL     OW94192   5.203  12.792   7.871
64120SOL    HW194193   5.276  12.738   7.901
64120SOL    HW294194   5.184  12.850   7.945
64121SOL     OW94195   3.566  13.000  14.609
64121SOL    HW194196   3.496  13.047  14.653
64121SOL    HW294197   3.526  12.919  14.579
64122SOL     OW94198   3.976  13.610  11.634
64122SOL    HW194199   4.038  13.537  11.641
64122SOL    HW294200   4.031  13.688  11.628
64123SOL     OW94201   5.264   7.454   4.328
64123SOL    HW194202   5.185   7.400   4.323
64123SOL    HW294203   5.285   7.457   4.421
64124SOL     OW94204   1.798   1.678   9.909
64124SOL    HW194205   1.750   1.761   9.910
64124SOL    HW294206   1.742   1.617   9.957
64125SOL     OW94207  14.854   5.082  14.396
64125SOL    HW194208  14.822   5.022  14.329
64125SOL    HW294209   0.007   5.025  14.468
64126SOL     OW94210   5.735  10.795   6.243
64126SOL    HW194211   5.679  10.831   6.174
64126SOL    HW294212   5.721  10.700   6.238
64127SOL     OW94213   5.773  11.774  13.577
64127SOL    HW194214   5.840  11.772  13.509
64127SOL    HW294215   5.781  11.690  13.621
64128SOL     OW94216   9.001  10.593   5.858
64128SOL    HW194217   8.948  10.515   5.876
64128SOL    HW294218   8.975  10.619   5.769
64129SOL     OW94219   2.175   0.396  11.564
64129SOL    HW194220   2.178   0.306  11.596
64129SOL    HW294221   2.192   0.450  11.641
64130SOL     OW94222   3.817  10.457   4.421
64130SOL    HW194223   3.811  10.400   4.497
64130SOL    HW294224   3.778  10.540   4.449
64131SOL     OW94225   3.066   6.981   9.562
64131SOL    HW194226   3.153   7.008   9.591
64131SOL    HW294227   3.006   7.014   9.629
64132SOL     OW94228   9.871   7.410   6.215
64132SOL    HW194229   9.810   7.430   6.144
64132SOL    HW294230   9.824   7.437   6.294
64133SOL     OW94231   9.585   3.539   8.944
64133SOL    HW194232   9.611   3.450   8.969
64133SOL    HW294233   9.668   3.585   8.931
64134SOL     OW94234   0.046   0.155  14.028
64134SOL    HW194235   0.135   0.183  14.047
64134SOL    HW294236  14.865   0.231  14.049
64135SOL     OW94237  10.730   0.545  13.205
64135SOL    HW194238  10.745   0.545  13.299
64135SOL    HW294239  10.800   0.601  13.170
64136SOL     OW94240  10.491   3.140   7.875
64136SOL    HW194241  10.420   3.197   7.905
64136SOL    HW294242  10.566   3.165   7.929
64137SOL     OW94243  11.852   9.534   6.114
64137SOL    HW194244  11.862   9.479   6.192
64137SOL    HW294245  11.822   9.473   6.046
64138SOL     OW94246  11.424   2.836  10.609
64138SOL    HW194247  11.336   2.807  10.587
64138SOL    HW294248  11.480   2.762  10.586
64139SOL     OW94249   4.387  12.818  12.626
64139SOL    HW194250   4.369  12.725  12.631
64139SOL    HW294251   4.303  12.860  12.645
64140SOL     OW94252   6.471   5.287  12.708
64140SOL    HW194253   6.484   5.194  12.728
64140SOL    HW294254   6.398   5.313  12.763
64141SOL     OW94255   6.283   7.465  13.429
64141SOL    HW194256   6.224   7.516  13.484
64141SOL    HW294257   6.243   7.469  13.342
64142SOL     OW94258   4.347   8.631   0.880
64142SOL    HW194259   4.310   8.594   0.799
64142SOL    HW294260   4.441   8.639   0.861
64143SOL     OW94261   4.512   0.735  12.881
64143SOL    HW194262   4.513   0.830  12.874
64143SOL    HW294263   4.536   0.704  12.794
64144SOL     OW94264  12.116   1.048   1.605
64144SOL    HW194265  12.069   0.965   1.618
64144SOL    HW294266  12.073   1.087   1.528
64145SOL     OW94267  14.743   1.867   8.065
64145SOL    HW194268  14.746   1.832   8.154
64145SOL    HW294269  14.701   1.952   8.074
64146SOL     OW94270  11.678   5.954   2.556
64146SOL    HW194271  11.728   5.963   2.637
64146SOL    HW294272  11.731   5.896   2.501
64147SOL     OW94273   5.002   5.947   8.047
64147SOL    HW194274   4.934   5.896   8.002
64147SOL    HW294275   4.953   6.002   8.108
64148SOL     OW94276   0.597   7.243   2.019
64148SOL    HW194277   0.591   7.250   1.923
64148SOL    HW294278   0.615   7.332   2.048
64149SOL     OW94279   0.424   4.852   0.790
64149SOL    HW194280   0.339   4.823   0.756
64149SOL    HW294281   0.466   4.772   0.822
64150SOL     OW94282  10.478   3.535  14.362
64150SOL    HW194283  10.522   3.490  14.434
64150SOL    HW294284  10.406   3.477  14.338
64151SOL     OW94285   8.178   7.689   0.131
64151SOL    HW194286   8.106   7.635   0.164
64151SOL    HW294287   8.257   7.638   0.153
64152SOL     OW94288   5.368  11.142  13.810
64152SOL    HW194289   5.433  11.074  13.791
64152SOL    HW294290   5.391  11.214  13.751
64153SOL     OW94291   2.456   6.738  11.827
64153SOL    HW194292   2.473   6.655  11.871
64153SOL    HW294293   2.502   6.803  11.881
64154SOL     OW94294   0.762   4.670   0.364
64154SOL    HW194295   0.685   4.701   0.412
64154SOL    HW294296   0.829   4.737   0.380
64155SOL     OW94297   2.807  12.407   6.550
64155SOL    HW194298   2.842  12.318   6.555
64155SOL    HW294299   2.830  12.437   6.462
64156SOL     OW94300   5.950  10.444   9.430
64156SOL    HW194301   5.862  10.480   9.422
64156SOL    HW294302   5.977  10.465   9.520
64157SOL     OW94303  13.584   8.832   3.517
64157SOL    HW194304  13.663   8.867   3.475
64157SOL    HW294305  13.546   8.906   3.563
64158SOL     OW94306   7.300   8.661   2.007
64158SOL    HW194307   7.356   8.688   1.934
64158SOL    HW294308   7.316   8.726   2.075
64159SOL     OW94309   4.037   9.363   9.627
64159SOL    HW194310   3.976   9.428   9.593
64159SOL    HW294311   4.112   9.414   9.658
64160SOL     OW94312   2.697  13.330   4.840
64160SOL    HW194313   2.611  13.328   4.882
64160SOL    HW294314   2.680  13.364   4.752
64161SOL     OW94315   1.585  11.753  11.705
64161SOL    HW194316   1.615  11.663  11.698
64161SOL    HW294317   1.595  11.775  11.798
64162SOL     OW94318   8.771   4.093   6.578
64162SOL    HW194319   8.753   4.083   6.485
64162SOL    HW294320   8.694   4.057   6.622
64163SOL     OW94321  12.527   7.381   7.135
64163SOL    HW194322  12.592   7.422   7.079
64163SOL    HW294323  12.576   7.319   7.188
64164SOL     OW94324   9.398   7.731  13.241
64164SOL    HW194325   9.457   7.798  13.207
64164SOL    HW294326   9.373   7.679  13.165
64165SOL     OW94327   5.804   6.252   9.453
64165SOL    HW194328   5.794   6.342   9.421
64165SOL    HW294329   5.769   6.254   9.542
64166SOL     OW94330   9.095   9.073   0.872
64166SOL    HW194331   9.074   9.103   0.784
64166SOL    HW294332   9.038   8.998   0.887
64167SOL     OW94333   6.523   8.714  12.418
64167SOL    HW194334   6.490   8.734  12.330
64167SOL    HW294335   6.493   8.625  12.435
64168SOL     OW94336   7.026  14.524   0.310
64168SOL    HW194337   7.109  14.568   0.290
64168SOL    HW294338   6.969  14.547   0.236
64169SOL     OW94339   6.774   3.021  12.182
64169SOL    HW194340   6.860   3.027  12.141
64169SOL    HW294341   6.718   3.078  12.129
64170SOL     OW94342   5.615   0.943   4.978
64170SOL    HW194343   5.564   1.022   4.994
64170SOL    HW294344   5.681   0.942   5.047
64171SOL     OW94345  12.457   7.868  11.252
64171SOL    HW194346  12.400   7.849  11.178
64171SOL    HW294347  12.432   7.803  11.318
64172SOL     OW94348   6.699   5.213   9.175
64172SOL    HW194349   6.696   5.308   9.160
64172SOL    HW294350   6.632   5.197   9.242
64173SOL     OW94351   0.259   3.345   8.895
64173SOL    HW194352   0.291   3.405   8.828
64173SOL    HW294353   0.230   3.402   8.967
64174SOL     OW94354   6.416   5.273   0.691
64174SOL    HW194355   6.328   5.282   0.655
64174SOL    HW294356   6.468   5.340   0.645
64175SOL     OW94357   3.028   1.371   9.428
64175SOL    HW194358   2.939   1.392   9.459
64175SOL    HW294359   3.046   1.437   9.361
64176SOL     OW94360  13.558  11.218  10.373
64176SOL    HW194361  13.602  11.138  10.343
64176SOL    HW294362  13.628  11.283  10.376
64177SOL     OW94363   9.390  13.597  12.791
64177SOL    HW194364   9.367  13.613  12.883
64177SOL    HW294365   9.308  13.613  12.743
64178SOL     OW94366   6.112   8.493  14.239
64178SOL    HW194367   6.071   8.421  14.286
64178SOL    HW294368   6.204   8.488  14.262
64179SOL     OW94369   4.248   1.530   3.469
64179SOL    HW194370   4.154   1.516   3.480
64179SOL    HW294371   4.287   1.446   3.490
64180SOL     OW94372   8.196   9.273  13.599
64180SOL    HW194373   8.259   9.336  13.637
64180SOL    HW294374   8.207   9.195  13.653
64181SOL     OW94375   1.118  10.719   5.141
64181SOL    HW194376   1.134  10.626   5.129
64181SOL    HW294377   1.205  10.758   5.148
64182SOL     OW94378  13.806   9.488  14.869
64182SOL    HW194379  13.875   9.460  14.809
64182SOL    HW294380  13.787   9.410   0.048
64183SOL     OW94381   6.596   0.683   8.916
64183SOL    HW194382   6.654   0.657   8.987
64183SOL    HW294383   6.569   0.601   8.875
64184SOL     OW94384  14.417   6.946   4.888
64184SOL    HW194385  14.411   6.944   4.983
64184SOL    HW294386  14.506   6.974   4.870
64185SOL     OW94387   1.956   1.940  10.714
64185SOL    HW194388   2.041   1.916  10.751
64185SOL    HW294389   1.913   1.989  10.785
64186SOL     OW94390   7.556   3.069   5.131
64186SOL    HW194391   7.574   3.125   5.055
64186SOL    HW294392   7.642   3.043   5.163
64187SOL     OW94393  14.152   0.204  10.541
64187SOL    HW194394  14.116   0.236  10.458
64187SOL    HW294395  14.162   0.109  10.528
64188SOL     OW94396  11.971   6.516   4.983
64188SOL    HW194397  11.975   6.442   5.044
64188SOL    HW294398  12.008   6.481   4.901
64189SOL     OW94399   2.587  13.870  10.154
64189SOL    HW194400   2.548  13.957  10.155
64189SOL    HW294401   2.681  13.885  10.163
64190SOL     OW94402  11.069  12.559   5.995
64190SOL    HW194403  11.013  12.490   6.031
64190SOL    HW294404  11.019  12.596   5.923
64191SOL     OW94405  10.260   6.986   0.043
64191SOL    HW194406  10.355   7.001   0.045
64191SOL    HW294407  10.247   6.911   0.101
64192SOL     OW94408   8.521   4.939   3.810
64192SOL    HW194409   8.602   4.957   3.859
64192SOL    HW294410   8.545   4.869   3.749
64193SOL     OW94411   0.673   3.816   5.803
64193SOL    HW194412   0.766   3.815   5.825
64193SOL    HW294413   0.662   3.896   5.751
64194SOL     OW94414   6.898  12.250   4.583
64194SOL    HW194415   6.942  12.301   4.514
64194SOL    HW294416   6.843  12.188   4.536
64195SOL     OW94417   9.358   1.377   2.628
64195SOL    HW194418   9.346   1.288   2.661
64195SOL    HW294419   9.446   1.402   2.658
64196SOL     OW94420  10.690   9.502   9.603
64196SOL    HW194421  10.657   9.582   9.643
64196SOL    HW294422  10.655   9.431   9.658
64197SOL     OW94423   5.266   2.907   4.193
64197SOL    HW194424   5.196   2.933   4.133
64197SOL    HW294425   5.267   2.975   4.260
64198SOL     OW94426   4.109   1.964   8.485
64198SOL    HW194427   4.093   2.017   8.407
64198SOL    HW294428   4.033   1.906   8.491
64199SOL     OW94429  13.687  11.968   0.710
64199SOL    HW194430  13.759  12.021   0.743
64199SOL    HW294431  13.698  11.884   0.755
64200SOL     OW94432  12.349   4.746   9.793
64200SOL    HW194433  12.303   4.830   9.787
64200SOL    HW294434  12.334   4.717   9.883
64201SOL     OW94435   4.389  14.864   4.157
64201SOL    HW194436   4.348  14.783   4.188
64201SOL    HW294437   4.368  14.867   4.064
64202SOL     OW94438   5.653   0.327   1.197
64202SOL    HW194439   5.630   0.267   1.126
64202SOL    HW294440   5.719   0.385   1.159
64203SOL     OW94441   7.910   9.309   7.608
64203SOL    HW194442   7.946   9.221   7.624
64203SOL    HW294443   7.816   9.300   7.624
64204SOL     OW94444   3.307  14.552   0.431
64204SOL    HW194445   3.230  14.497   0.443
64204SOL    HW294446   3.381  14.492   0.438
64205SOL     OW94447   3.709  12.097   7.133
64205SOL    HW194448   3.634  12.083   7.192
64205SOL    HW294449   3.709  12.191   7.117
64206SOL     OW94450   0.839   1.629   8.985
64206SOL    HW194451   0.864   1.541   9.015
64206SOL    HW294452   0.824   1.619   8.891
64207SOL     OW94453   4.675  13.376   3.125
64207SOL    HW194454   4.668  13.428   3.045
64207SOL    HW294455   4.634  13.292   3.104
64208SOL     OW94456   0.821  11.716   7.838
64208SOL    HW194457   0.752  11.692   7.776
64208SOL    HW294458   0.791  11.681   7.922
64209SOL     OW94459   3.460   6.938  13.231
64209SOL    HW194460   3.494   6.998  13.164
64209SOL    HW294461   3.392   6.888  13.186
64210SOL     OW94462   2.753  12.159   9.977
64210SOL    HW194463   2.823  12.181  10.038
64210SOL    HW294464   2.716  12.244   9.952
64211SOL     OW94465  10.242   8.324   2.122
64211SOL    HW194466  10.239   8.325   2.218
64211SOL    HW294467  10.224   8.233   2.098
64212SOL     OW94468   6.470  14.588   9.673
64212SOL    HW194469   6.423  14.578   9.590
64212SOL    HW294470   6.417  14.650   9.723
64213SOL     OW94471   0.973  12.756  12.192
64213SOL    HW194472   1.043  12.817  12.214
64213SOL    HW294473   1.001  12.673  12.229
64214SOL     OW94474   2.595  14.618  14.835
64214SOL    HW194475   2.672  14.567  14.807
64214SOL    HW294476   2.526  14.592  14.773
64215SOL     OW94477   8.435   0.527  11.803
64215SOL    HW194478   8.467   0.611  11.770
64215SOL    HW294479   8.355   0.511  11.754
64216SOL     OW94480   6.147  13.049  11.165
64216SOL    HW194481   6.147  13.032  11.071
64216SOL    HW294482   6.187  12.971  11.203
64217SOL     OW94483   6.906  12.323   6.820
64217SOL    HW194484   6.811  12.335   6.814
64217SOL    HW294485   6.917  12.230   6.840
64218SOL     OW94486  10.150  11.571   4.577
64218SOL    HW194487  10.242  11.557   4.556
64218SOL    HW294488  10.112  11.483   4.582
64219SOL     OW94489  12.297  13.779  10.509
64219SOL    HW194490  12.262  13.722  10.441
64219SOL    HW294491  12.228  13.844  10.523
64220SOL     OW94492   7.983   5.231   3.709
64220SOL    HW194493   8.051   5.243   3.643
64220SOL    HW294494   7.922   5.169   3.669
64221SOL     OW94495   8.870  10.204   2.249
64221SOL    HW194496   8.780  10.232   2.266
64221SOL    HW294497   8.871  10.184   2.155
64222SOL     OW94498  11.097   4.652   1.721
64222SOL    HW194499  11.140   4.577   1.681
64222SOL    HW294500  11.065   4.619   1.805
64223SOL     OW94501  10.625   9.088   5.487
64223SOL    HW194502  10.627   9.129   5.573
64223SOL    HW294503  10.633   9.161   5.425
64224SOL     OW94504  10.360   8.678  14.596
64224SOL    HW194505  10.286   8.737  14.609
64224SOL    HW294506  10.355   8.617  14.670
64225SOL     OW94507   9.084   6.600   5.185
64225SOL    HW194508   9.123   6.673   5.233
64225SOL    HW294509   9.145   6.584   5.113
64226SOL     OW94510  10.259  14.083   6.641
64226SOL    HW194511  10.184  14.034   6.675
64226SOL    HW294512  10.277  14.149   6.707
64227SOL     OW94513  11.837   2.188   6.230
64227SOL    HW194514  11.928   2.188   6.199
64227SOL    HW294515  11.796   2.261   6.183
64228SOL     OW94516   6.338   9.806   6.058
64228SOL    HW194517   6.419   9.763   6.085
64228SOL    HW294518   6.327   9.878   6.121
64229SOL     OW94519   7.049   4.493  12.718
64229SOL    HW194520   7.116   4.425  12.714
64229SOL    HW294521   7.038   4.521  12.627
64230SOL     OW94522   3.557  14.648  11.582
64230SOL    HW194523   3.483  14.596  11.613
64230SOL    HW294524   3.530  14.681  11.497
64231SOL     OW94525   3.304   4.132   8.539
64231SOL    HW194526   3.361   4.193   8.587
64231SOL    HW294527   3.285   4.177   8.457
64232SOL     OW94528   0.546   7.909  10.717
64232SOL    HW194529   0.530   7.975  10.650
64232SOL    HW294530   0.611   7.950  10.775
64233SOL     OW94531  13.368   6.354  11.331
64233SOL    HW194532  13.294   6.345  11.391
64233SOL    HW294533  13.364   6.444  11.300
64234SOL     OW94534  10.772   6.333   9.907
64234SOL    HW194535  10.682   6.306   9.889
64234SOL    HW294536  10.766   6.394   9.980
64235SOL     OW94537   5.533  10.532   3.142
64235SOL    HW194538   5.443  10.543   3.112
64235SOL    HW294539   5.525  10.501   3.232
64236SOL     OW94540   6.735  11.485  12.352
64236SOL    HW194541   6.703  11.398  12.377
64236SOL    HW294542   6.818  11.468  12.308
64237SOL     OW94543  10.843   9.494   6.754
64237SOL    HW194544  10.840   9.541   6.837
64237SOL    HW294545  10.847   9.563   6.687
64238SOL     OW94546   9.586   7.240   3.890
64238SOL    HW194547   9.632   7.162   3.921
64238SOL    HW294548   9.631   7.264   3.809
64239SOL     OW94549   6.150   9.928   5.358
64239SOL    HW194550   6.068   9.961   5.321
64239SOL    HW294551   6.166   9.983   5.435
64240SOL     OW94552   3.480  11.638   7.141
64240SOL    HW194553   3.550  11.675   7.195
64240SOL    HW294554   3.433  11.714   7.108
64241SOL     OW94555   6.251  11.487   2.105
64241SOL    HW194556   6.227  11.481   2.012
64241SOL    HW294557   6.240  11.399   2.138
64242SOL     OW94558  13.463   2.196  13.122
64242SOL    HW194559  13.408   2.221  13.197
64242SOL    HW294560  13.404   2.146  13.065
64243SOL     OW94561  12.763  14.176   0.002
64243SOL    HW194562  12.699  14.214  14.815
64243SOL    HW294563  12.728  14.090   0.024
64244SOL     OW94564   1.541  12.341   9.662
64244SOL    HW194565   1.509  12.253   9.642
64244SOL    HW294566   1.623  12.348   9.613
64245SOL     OW94567   7.834   3.570   0.959
64245SOL    HW194568   7.738   3.566   0.961
64245SOL    HW294569   7.862   3.481   0.940
64246SOL     OW94570   2.307   5.051   2.085
64246SOL    HW194571   2.300   4.962   2.051
64246SOL    HW294572   2.335   5.040   2.176
64247SOL     OW94573   2.167  14.358   4.521
64247SOL    HW194574   2.155  14.366   4.616
64247SOL    HW294575   2.078  14.352   4.486
64248SOL     OW94576   8.919   5.343   3.055
64248SOL    HW194577   8.861   5.384   3.119
64248SOL    HW294578   8.912   5.399   2.977
64249SOL     OW94579   2.686   7.710   6.008
64249SOL    HW194580   2.726   7.797   6.021
64249SOL    HW294581   2.742   7.669   5.942
64250SOL     OW94582  11.514  10.473   8.452
64250SOL    HW194583  11.484  10.461   8.543
64250SOL    HW294584  11.459  10.413   8.401
64251SOL     OW94585   1.679   2.231   2.013
64251SOL    HW194586   1.694   2.277   2.095
64251SOL    HW294587   1.740   2.272   1.951
64252SOL     OW94588   5.029   3.353   7.967
64252SOL    HW194589   5.117   3.322   7.987
64252SOL    HW294590   5.006   3.308   7.886
64253SOL     OW94591   0.372   9.374  13.868
64253SOL    HW194592   0.338   9.331  13.789
64253SOL    HW294593   0.304   9.362  13.933
64254SOL     OW94594   8.807  14.432  11.710
64254SOL    HW194595   8.895  14.470  11.718
64254SOL    HW294596   8.822  14.338  11.707
64255SOL     OW94597  13.258   4.104  11.449
64255SOL    HW194598  13.282   4.135  11.536
64255SOL    HW294599  13.181   4.156  11.425
64256SOL     OW94600   7.274   7.615   9.897
64256SOL    HW194601   7.189   7.591   9.860
64256SOL    HW294602   7.257   7.624   9.991
64257SOL     OW94603   0.384   7.977  10.132
64257SOL    HW194604   0.356   8.028  10.056
64257SOL    HW294605   0.434   7.904  10.095
64258SOL     OW94606   0.604  10.848   6.181
64258SOL    HW194607   0.524  10.806   6.151
64258SOL    HW294608   0.629  10.907   6.110
64259SOL     OW94609   4.684   7.283   0.679
64259SOL    HW194610   4.632   7.317   0.752
64259SOL    HW294611   4.626   7.288   0.603
64260SOL     OW94612   7.695  12.638  11.420
64260SOL    HW194613   7.626  12.575  11.441
64260SOL    HW294614   7.666  12.719  11.462
64261SOL     OW94615  11.675   8.148   8.724
64261SOL    HW194616  11.635   8.091   8.789
64261SOL    HW294617  11.769   8.141   8.741
64262SOL     OW94618   5.546   6.709   0.756
64262SOL    HW194619   5.536   6.632   0.700
64262SOL    HW294620   5.640   6.717   0.769
64263SOL     OW94621   7.822   1.839   6.690
64263SOL    HW194622   7.852   1.896   6.619
64263SOL    HW294623   7.859   1.753   6.669
64264SOL     OW94624  13.003  11.955   3.284
64264SOL    HW194625  13.044  11.897   3.220
64264SOL    HW294626  13.068  11.964   3.354
64265SOL     OW94627   0.923   7.670  12.460
64265SOL    HW194628   0.874   7.740  12.417
64265SOL    HW294629   0.977   7.632  12.390
64266SOL     OW94630   1.536   0.594   8.464
64266SOL    HW194631   1.507   0.637   8.545
64266SOL    HW294632   1.556   0.667   8.405
64267SOL     OW94633   8.492   6.201   9.695
64267SOL    HW194634   8.534   6.268   9.642
64267SOL    HW294635   8.564   6.157   9.741
64268SOL     OW94636   6.256   5.205  12.455
64268SOL    HW194637   6.261   5.142  12.526
64268SOL    HW294638   6.341   5.248  12.455
64269SOL     OW94639   2.236  14.644   3.068
64269SOL    HW194640   2.331  14.646   3.070
64269SOL    HW294641   2.209  14.732   3.093
64270SOL     OW94642  10.937  13.688   2.259
64270SOL    HW194643  11.007  13.656   2.317
64270SOL    HW294644  10.969  13.773   2.229
64271SOL     OW94645   4.919   2.234  14.832
64271SOL    HW194646   4.949   2.267   0.044
64271SOL    HW294647   4.846   2.290  14.807
64272SOL     OW94648   3.944   5.081  11.251
64272SOL    HW194649   3.872   5.135  11.284
64272SOL    HW294650   3.907   4.993  11.244
64273SOL     OW94651   3.215  14.872   6.910
64273SOL    HW194652   3.290  14.864   6.969
64273SOL    HW294653   3.253  14.867   6.822
64274SOL     OW94654  12.119   3.630   5.148
64274SOL    HW194655  12.210   3.656   5.161
64274SOL    HW294656  12.101   3.648   5.056
64275SOL     OW94657   6.304  14.548   7.629
64275SOL    HW194658   6.216  14.581   7.608
64275SOL    HW294659   6.358  14.576   7.555
64276SOL     OW94660  13.061   5.209  12.981
64276SOL    HW194661  13.118   5.226  13.056
64276SOL    HW294662  13.102   5.135  12.937
64277SOL     OW94663   7.016   0.427   3.407
64277SOL    HW194664   7.011   0.501   3.346
64277SOL    HW294665   7.013   0.350   3.352
64278SOL     OW94666   2.692   4.010   0.240
64278SOL    HW194667   2.605   4.022   0.202
64278SOL    HW294668   2.678   3.954   0.316
64279SOL     OW94669   6.582   2.945   1.247
64279SOL    HW194670   6.608   2.946   1.156
64279SOL    HW294671   6.637   3.011   1.289
64280SOL     OW94672   5.458   3.282   5.606
64280SOL    HW194673   5.445   3.274   5.700
64280SOL    HW294674   5.396   3.349   5.578
64281SOL     OW94675   7.410  12.005   2.113
64281SOL    HW194676   7.485  11.950   2.091
64281SOL    HW294677   7.344  11.984   2.047
64282SOL     OW94678   5.533   5.211   3.844
64282SOL    HW194679   5.518   5.169   3.929
64282SOL    HW294680   5.524   5.305   3.862
64283SOL     OW94681  12.967   9.426   0.054
64283SOL    HW194682  12.914   9.447   0.130
64283SOL    HW294683  12.943   9.336   0.031
64284SOL     OW94684   8.198   1.141   7.682
64284SOL    HW194685   8.158   1.216   7.638
64284SOL    HW294686   8.135   1.070   7.669
64285SOL     OW94687  13.711   7.652   6.837
64285SOL    HW194688  13.708   7.714   6.764
64285SOL    HW294689  13.620   7.645   6.865
64286SOL     OW94690   6.492   1.130   7.848
64286SOL    HW194691   6.472   1.223   7.850
64286SOL    HW294692   6.534   1.116   7.762
64287SOL     OW94693   6.663   0.038   9.876
64287SOL    HW194694   6.672   0.032   9.971
64287SOL    HW294695   6.654  14.821   9.846
64288SOL     OW94696  13.044   9.386   7.997
64288SOL    HW194697  12.949   9.399   7.995
64288SOL    HW294698  13.080   9.475   7.992
64289SOL     OW94699   6.844   7.420  12.254
64289SOL    HW194700   6.750   7.404  12.247
64289SOL    HW294701   6.880   7.339  12.291
64290SOL     OW94702  14.732   2.700   4.922
64290SOL    HW194703  14.777   2.677   4.840
64290SOL    HW294704  14.685   2.621   4.947
64291SOL     OW94705   5.277  10.771   7.641
64291SOL    HW194706   5.246  10.801   7.555
64291SOL    HW294707   5.349  10.831   7.662
64292SOL     OW94708   4.809   2.597   0.541
64292SOL    HW194709   4.850   2.514   0.566
64292SOL    HW294710   4.749   2.616   0.613
64293SOL     OW94711   6.039   5.301   3.429
64293SOL    HW194712   6.113   5.282   3.371
64293SOL    HW294713   6.067   5.379   3.478
64294SOL     OW94714   5.467   0.983  11.000
64294SOL    HW194715   5.468   0.943  11.087
64294SOL    HW294716   5.436   1.073  11.015
64295SOL     OW94717   1.240   8.230   3.189
64295SOL    HW194718   1.184   8.248   3.265
64295SOL    HW294719   1.259   8.317   3.153
64296SOL     OW94720   8.315   7.022  14.792
64296SOL    HW194721   8.299   6.929  14.777
64296SOL    HW294722   8.340   7.056  14.706
64297SOL     OW94723   6.789  12.015   6.049
64297SOL    HW194724   6.832  12.079   6.106
64297SOL    HW294725   6.846  11.938   6.053
64298SOL     OW94726   3.055  12.518  13.985
64298SOL    HW194727   3.116  12.451  14.016
64298SOL    HW294728   3.080  12.598  14.032
64299SOL     OW94729   3.730   8.045   3.433
64299SOL    HW194730   3.759   8.135   3.451
64299SOL    HW294731   3.681   8.052   3.351
64300SOL     OW94732   9.805   9.681   1.524
64300SOL    HW194733   9.807   9.703   1.431
64300SOL    HW294734   9.840   9.758   1.568
64301SOL     OW94735  11.146   3.114  12.706
64301SOL    HW194736  11.197   3.040  12.675
64301SOL    HW294737  11.207   3.188  12.703
64302SOL     OW94738   4.061  11.279  12.846
64302SOL    HW194739   4.114  11.326  12.781
64302SOL    HW294740   4.046  11.193  12.807
64303SOL     OW94741   8.509   4.058   9.385
64303SOL    HW194742   8.521   3.983   9.327
64303SOL    HW294743   8.541   4.028   9.470
64304SOL     OW94744   7.894   4.250  11.690
64304SOL    HW194745   7.932   4.168  11.661
64304SOL    HW294746   7.817   4.225  11.741
64305SOL     OW94747  11.085  13.540   0.625
64305SOL    HW194748  11.090  13.451   0.660
64305SOL    HW294749  11.161  13.548   0.568
64306SOL     OW94750   0.111   8.021   9.478
64306SOL    HW194751   0.164   7.958   9.528
64306SOL    HW294752   0.026   7.978   9.469
64307SOL     OW94753  11.405   7.404   9.353
64307SOL    HW194754  11.413   7.336   9.420
64307SOL    HW294755  11.406   7.356   9.270
64308SOL     OW94756   8.055   0.960   2.741
64308SOL    HW194757   8.059   0.876   2.787
64308SOL    HW294758   8.021   0.939   2.654
64309SOL     OW94759  11.494   9.438  10.981
64309SOL    HW194760  11.494   9.533  10.972
64309SOL    HW294761  11.553   9.408  10.911
64310SOL     OW94762   2.706   4.403   6.113
64310SOL    HW194763   2.640   4.454   6.159
64310SOL    HW294764   2.711   4.321   6.161
64311SOL     OW94765   5.195   1.909  14.072
64311SOL    HW194766   5.250   1.837  14.103
64311SOL    HW294767   5.245   1.946  13.998
64312SOL     OW94768   7.310  12.355  10.850
64312SOL    HW194769   7.228  12.355  10.801
64312SOL    HW294770   7.330  12.448  10.863
64313SOL     OW94771  12.119   2.015   4.127
64313SOL    HW194772  12.032   2.004   4.089
64313SOL    HW294773  12.179   1.975   4.064
64314SOL     OW94774   0.873   9.566  12.890
64314SOL    HW194775   0.882   9.587  12.983
64314SOL    HW294776   0.781   9.581  12.870
64315SOL     OW94777  13.486  13.598   3.857
64315SOL    HW194778  13.449  13.569   3.941
64315SOL    HW294779  13.473  13.524   3.798
64316SOL     OW94780  14.375   6.202   7.120
64316SOL    HW194781  14.403   6.169   7.034
64316SOL    HW294782  14.279   6.199   7.116
64317SOL     OW94783   0.218   1.187   8.303
64317SOL    HW194784   0.218   1.091   8.307
64317SOL    HW294785   0.227   1.207   8.209
64318SOL     OW94786   0.272   7.668  13.728
64318SOL    HW194787   0.197   7.664  13.788
64318SOL    HW294788   0.233   7.686  13.642
64319SOL     OW94789   9.149   3.779   6.410
64319SOL    HW194790   9.181   3.787   6.500
64319SOL    HW294791   9.228   3.764   6.358
64320SOL     OW94792  14.074   4.005   2.450
64320SOL    HW194793  14.025   3.990   2.531
64320SOL    HW294794  14.011   3.987   2.380
64321SOL     OW94795   9.476  11.262   5.565
64321SOL    HW194796   9.441  11.233   5.649
64321SOL    HW294797   9.549  11.320   5.588
64322SOL     OW94798   6.143  10.295   0.921
64322SOL    HW194799   6.071  10.254   0.970
64322SOL    HW294800   6.158  10.236   0.847
64323SOL     OW94801  12.388  10.075  12.634
64323SOL    HW194802  12.356  10.101  12.721
64323SOL    HW294803  12.424  10.156  12.597
64324SOL     OW94804  13.807   7.491   0.517
64324SOL    HW194805  13.844   7.416   0.469
64324SOL    HW294806  13.859   7.566   0.488
64325SOL     OW94807   0.409   7.004   9.703
64325SOL    HW194808   0.455   7.086   9.688
64325SOL    HW294809   0.469   6.936   9.672
64326SOL     OW94810   6.234   5.013   6.101
64326SOL    HW194811   6.228   4.918   6.085
64326SOL    HW294812   6.282   5.047   6.026
64327SOL     OW94813  13.178   1.082   7.770
64327SOL    HW194814  13.085   1.069   7.786
64327SOL    HW294815  13.185   1.088   7.675
64328SOL     OW94816  14.102  14.211  12.144
64328SOL    HW194817  14.127  14.301  12.168
64328SOL    HW294818  14.185  14.166  12.132
64329SOL     OW94819  14.122   3.612   2.392
64329SOL    HW194820  14.045   3.600   2.338
64329SOL    HW294821  14.172   3.531   2.381
64330SOL     OW94822   5.029   8.950  12.933
64330SOL    HW194823   5.121   8.936  12.910
64330SOL    HW294824   5.003   9.027  12.883
64331SOL     OW94825   4.689  14.019  11.001
64331SOL    HW194826   4.682  14.113  10.984
64331SOL    HW294827   4.611  13.982  10.960
64332SOL     OW94828   1.726   6.940   4.519
64332SOL    HW194829   1.757   6.986   4.597
64332SOL    HW294830   1.804   6.896   4.485
64333SOL     OW94831   4.496  10.530   6.622
64333SOL    HW194832   4.528  10.590   6.689
64333SOL    HW294833   4.566  10.466   6.611
64334SOL     OW94834   9.399  12.133   3.556
64334SOL    HW194835   9.344  12.162   3.628
64334SOL    HW294836   9.488  12.128   3.593
64335SOL     OW94837   4.194  13.691  14.869
64335SOL    HW194838   4.183  13.680   0.090
64335SOL    HW294839   4.109  13.668  14.831
64336SOL     OW94840  12.468  11.772   4.888
64336SOL    HW194841  12.428  11.833   4.826
64336SOL    HW294842  12.546  11.739   4.842
64337SOL     OW94843   9.642  10.064  11.227
64337SOL    HW194844   9.613   9.989  11.176
64337SOL    HW294845   9.629  10.139  11.169
64338SOL     OW94846   0.253   8.867   4.261
64338SOL    HW194847   0.307   8.794   4.292
64338SOL    HW294848   0.223   8.909   4.342
64339SOL     OW94849   0.037  13.895  12.178
64339SOL    HW194850  14.863  13.961  12.128
64339SOL    HW294851   0.126  13.895  12.142
64340SOL     OW94852   1.290  11.872   6.129
64340SOL    HW194853   1.200  11.842   6.139
64340SOL    HW294854   1.344  11.799   6.160
64341SOL     OW94855   6.971   0.205   2.573
64341SOL    HW194856   6.905   0.274   2.569
64341SOL    HW294857   6.927   0.133   2.619
64342SOL     OW94858   3.537   4.254  13.613
64342SOL    HW194859   3.517   4.346  13.629
64342SOL    HW294860   3.576   4.224  13.695
64343SOL     OW94861   3.436  12.823  12.844
64343SOL    HW194862   3.498  12.752  12.863
64343SOL    HW294863   3.483  12.903  12.867
64344SOL     OW94864  14.058   2.595  10.994
64344SOL    HW194865  14.065   2.601  10.899
64344SOL    HW294866  14.127   2.652  11.027
64345SOL     OW94867   0.281   4.115   2.591
64345SOL    HW194868   0.202   4.169   2.594
64345SOL    HW294869   0.352   4.176   2.610
64346SOL     OW94870   4.278   7.416   3.603
64346SOL    HW194871   4.279   7.505   3.637
64346SOL    HW294872   4.240   7.423   3.515
64347SOL     OW94873   4.518   9.981   0.016
64347SOL    HW194874   4.456  10.034   0.066
64347SOL    HW294875   4.539  10.034  14.812
64348SOL     OW94876   3.956  11.630  10.293
64348SOL    HW194877   3.937  11.703  10.352
64348SOL    HW294878   4.021  11.578  10.339
64349SOL     OW94879   1.578   6.233   3.613
64349SOL    HW194880   1.564   6.322   3.644
64349SOL    HW294881   1.505   6.182   3.649
64350SOL     OW94882   4.646  11.930   2.976
64350SOL    HW194883   4.667  11.929   2.883
64350SOL    HW294884   4.584  12.002   2.986
64351SOL     OW94885  11.073  12.618   0.297
64351SOL    HW194886  11.115  12.656   0.374
64351SOL    HW294887  11.063  12.525   0.319
64352SOL     OW94888   0.005   7.417   7.997
64352SOL    HW194889   0.095   7.422   8.027
64352SOL    HW294890   0.009   7.440   7.904
64353SOL     OW94891   7.759  11.734   7.022
64353SOL    HW194892   7.849  11.768   7.020
64353SOL    HW294893   7.767  11.647   6.981
64354SOL     OW94894   4.688  13.959  10.586
64354SOL    HW194895   4.742  13.965  10.665
64354SOL    HW294896   4.643  14.044  10.582
64355SOL     OW94897   6.545   6.805   0.271
64355SOL    HW194898   6.562   6.733   0.211
64355SOL    HW294899   6.524   6.761   0.354
64356SOL     OW94900  10.457   1.581   5.930
64356SOL    HW194901  10.517   1.529   5.984
64356SOL    HW294902  10.513   1.648   5.890
64357SOL     OW94903  11.057  12.197   7.394
64357SOL    HW194904  11.009  12.150   7.463
64357SOL    HW294905  11.108  12.129   7.350
64358SOL     OW94906   2.361   2.504  12.035
64358SOL    HW194907   2.345   2.585  12.084
64358SOL    HW294908   2.327   2.435  12.093
64359SOL     OW94909   1.208   8.729   1.653
64359SOL    HW194910   1.171   8.667   1.716
64359SOL    HW294911   1.302   8.724   1.667
64360SOL     OW94912  10.643  10.774  13.365
64360SOL    HW194913  10.576  10.841  13.381
64360SOL    HW294914  10.610  10.724  13.291
64361SOL     OW94915   9.185   1.178   9.623
64361SOL    HW194916   9.213   1.095   9.662
64361SOL    HW294917   9.256   1.202   9.565
64362SOL     OW94918  11.781   6.505  11.132
64362SOL    HW194919  11.744   6.419  11.153
64362SOL    HW294920  11.754   6.521  11.041
64363SOL     OW94921  13.426   5.672   9.844
64363SOL    HW194922  13.340   5.710   9.826
64363SOL    HW294923  13.425   5.656   9.939
64364SOL     OW94924  11.832  14.216   3.208
64364SOL    HW194925  11.756  14.160   3.192
64364SOL    HW294926  11.828  14.236   3.302
64365SOL     OW94927   1.752  11.403  10.787
64365SOL    HW194928   1.714  11.472  10.732
64365SOL    HW294929   1.835  11.381  10.744
64366SOL     OW94930   0.305   0.233   1.394
64366SOL    HW194931   0.376   0.183   1.434
64366SOL    HW294932   0.226   0.181   1.411
64367SOL     OW94933   2.519   2.950   7.556
64367SOL    HW194934   2.495   2.970   7.646
64367SOL    HW294935   2.534   2.855   7.556
64368SOL     OW94936  12.021   5.286   7.521
64368SOL    HW194937  12.044   5.195   7.501
64368SOL    HW294938  12.066   5.305   7.603
64369SOL     OW94939  11.472   8.040   5.466
64369SOL    HW194940  11.425   7.958   5.478
64369SOL    HW294941  11.417   8.106   5.509
64370SOL     OW94942  11.680   9.738   9.153
64370SOL    HW194943  11.714   9.819   9.115
64370SOL    HW294944  11.733   9.724   9.231
64371SOL     OW94945   6.898   3.161   9.639
64371SOL    HW194946   6.834   3.095   9.666
64371SOL    HW294947   6.846   3.239   9.619
64372SOL     OW94948   9.525   0.425   9.047
64372SOL    HW194949   9.617   0.425   9.072
64372SOL    HW294950   9.507   0.516   9.022
64373SOL     OW94951   7.571  13.285  11.854
64373SOL    HW194952   7.645  13.273  11.913
64373SOL    HW294953   7.591  13.364  11.804
64374SOL     OW94954   0.637   4.323   8.447
64374SOL    HW194955   0.571   4.266   8.407
64374SOL    HW294956   0.628   4.307   8.541
64375SOL     OW94957   4.865   2.525  12.814
64375SOL    HW194958   4.920   2.528  12.736
64375SOL    HW294959   4.873   2.612  12.852
64376SOL     OW94960   7.464   5.233   1.679
64376SOL    HW194961   7.458   5.143   1.648
64376SOL    HW294962   7.375   5.255   1.707
64377SOL     OW94963   1.684   0.830   4.294
64377SOL    HW194964   1.674   0.738   4.267
64377SOL    HW294965   1.701   0.826   4.388
64378SOL     OW94966  12.881  10.574   7.571
64378SOL    HW194967  12.886  10.616   7.656
64378SOL    HW294968  12.791  10.541   7.566
64379SOL     OW94969  10.761   2.540   4.532
64379SOL    HW194970  10.781   2.524   4.440
64379SOL    HW294971  10.693   2.607   4.531
64380SOL     OW94972   9.466  11.223   2.052
64380SOL    HW194973   9.534  11.157   2.063
64380SOL    HW294974   9.403  11.205   2.121
64381SOL     OW94975   7.367  14.797  14.206
64381SOL    HW194976   7.421  14.867  14.242
64381SOL    HW294977   7.366  14.813  14.112
64382SOL     OW94978  13.785  11.334  10.737
64382SOL    HW194979  13.791  11.375  10.651
64382SOL    HW294980  13.866  11.359  10.781
64383SOL     OW94981   0.450  11.719   4.461
64383SOL    HW194982   0.449  11.734   4.556
64383SOL    HW294983   0.391  11.645   4.449
64384SOL     OW94984  14.843  12.500   9.754
64384SOL    HW194985   0.056  12.480   9.793
64384SOL    HW294986  14.847  12.461   9.666
64385SOL     OW94987   8.758   9.434   2.672
64385SOL    HW194988   8.738   9.499   2.739
64385SOL    HW294989   8.775   9.485   2.593
64386SOL     OW94990   5.630   1.159  12.582
64386SOL    HW194991   5.715   1.136  12.619
64386SOL    HW294992   5.566   1.122  12.643
64387SOL     OW94993  14.326   3.228   4.641
64387SOL    HW194994  14.259   3.228   4.572
64387SOL    HW294995  14.340   3.321   4.660
64388SOL     OW94996  11.973   1.702  11.622
64388SOL    HW194997  11.923   1.676  11.544
64388SOL    HW294998  12.059   1.663  11.610
64389SOL     OW94999  11.155   9.760   3.695
64389SOL    HW195000  11.065   9.792   3.687
64389SOL    HW295001  11.201   9.830   3.741
64390SOL     OW95002   4.701   5.393  14.654
64390SOL    HW195003   4.700   5.321  14.591
64390SOL    HW295004   4.609   5.409  14.674
64391SOL     OW95005  10.673   9.990   4.035
64391SOL    HW195006  10.746  10.027   4.085
64391SOL    HW295007  10.692  10.013   3.944
64392SOL     OW95008   0.317   9.208   4.939
64392SOL    HW195009   0.283   9.147   5.005
64392SOL    HW295010   0.411   9.211   4.955
64393SOL     OW95011   4.186  12.234  11.432
64393SOL    HW195012   4.241  12.266  11.361
64393SOL    HW295013   4.097  12.233  11.396
64394SOL     OW95014  13.207   3.325   1.877
64394SOL    HW195015  13.263   3.317   1.799
64394SOL    HW295016  13.228   3.411   1.913
64395SOL     OW95017   1.600   8.443   1.851
64395SOL    HW195018   1.618   8.462   1.943
64395SOL    HW295019   1.655   8.368   1.831
64396SOL     OW95020   8.708  12.591   2.216
64396SOL    HW195021   8.767  12.607   2.290
64396SOL    HW295022   8.739  12.651   2.148
64397SOL     OW95023   3.415   4.223   0.005
64397SOL    HW195024   3.338   4.194  14.829
64397SOL    HW295025   3.430   4.313  14.850
64398SOL     OW95026  13.966   1.869   6.747
64398SOL    HW195027  14.033   1.902   6.807
64398SOL    HW295028  13.883   1.888   6.790
64399SOL     OW95029  10.439   1.930  11.098
64399SOL    HW195030  10.478   1.843  11.094
64399SOL    HW295031  10.462   1.963  11.185
64400SOL     OW95032   5.823   6.439   0.585
64400SOL    HW195033   5.780   6.497   0.521
64400SOL    HW295034   5.870   6.499   0.642
64401SOL     OW95035   1.277  11.884   9.873
64401SOL    HW195036   1.232  11.955   9.827
64401SOL    HW295037   1.241  11.886   9.961
64402SOL     OW95038   6.626   2.104  11.484
64402SOL    HW195039   6.577   2.129  11.405
64402SOL    HW295040   6.664   2.186  11.515
64403SOL     OW95041   8.285  14.395  12.129
64403SOL    HW195042   8.236  14.455  12.185
64403SOL    HW295043   8.258  14.417  12.040
64404SOL     OW95044   5.409   1.068  11.728
64404SOL    HW195045   5.427   1.148  11.776
64404SOL    HW295046   5.420   0.998  11.792
64405SOL     OW95047   0.472  14.687  10.835
64405SOL    HW195048   0.562  14.687  10.868
64405SOL    HW295049   0.462  14.602  10.793
64406SOL     OW95050   6.160  10.269   8.118
64406SOL    HW195051   6.200  10.256   8.204
64406SOL    HW295052   6.097  10.339   8.131
64407SOL     OW95053   3.008  11.834  12.977
64407SOL    HW195054   3.029  11.751  13.018
64407SOL    HW295055   3.092  11.878  12.965
64408SOL     OW95056   5.536   8.088   7.518
64408SOL    HW195057   5.527   8.105   7.424
64408SOL    HW295058   5.516   7.995   7.528
64409SOL     OW95059   1.085   9.833   3.982
64409SOL    HW195060   1.112   9.834   4.073
64409SOL    HW295061   1.001   9.879   3.982
64410SOL     OW95062   2.119  13.636  11.590
64410SOL    HW195063   2.100  13.636  11.497
64410SOL    HW295064   2.039  13.604  11.631
64411SOL     OW95065   7.698  11.868   7.837
64411SOL    HW195066   7.739  11.861   7.751
64411SOL    HW295067   7.629  11.934   7.825
64412SOL     OW95068  11.788   5.882   4.792
64412SOL    HW195069  11.709   5.911   4.745
64412SOL    HW295070  11.860   5.930   4.750
64413SOL     OW95071  12.056  11.713  13.674
64413SOL    HW195072  12.059  11.631  13.722
64413SOL    HW295073  12.072  11.781  13.740
64414SOL     OW95074   8.062  13.420  12.160
64414SOL    HW195075   7.998  13.376  12.216
64414SOL    HW295076   8.014  13.492  12.120
64415SOL     OW95077   4.069   1.303  10.485
64415SOL    HW195078   4.057   1.369  10.416
64415SOL    HW295079   4.017   1.228  10.456
64416SOL     OW95080   6.801  14.025  14.250
64416SOL    HW195081   6.854  13.986  14.180
64416SOL    HW295082   6.864  14.053  14.316
64417SOL     OW95083  13.635   0.622  13.593
64417SOL    HW195084  13.657   0.710  13.624
64417SOL    HW295085  13.652   0.565  13.668
64418SOL     OW95086   4.358   2.573   2.354
64418SOL    HW195087   4.311   2.637   2.407
64418SOL    HW295088   4.320   2.489   2.379
64419SOL     OW95089  10.057   0.845  12.459
64419SOL    HW195090  10.022   0.929  12.430
64419SOL    HW295091   9.981   0.787  12.464
64420SOL     OW95092   3.782  12.871   8.498
64420SOL    HW195093   3.872  12.848   8.520
64420SOL    HW295094   3.730  12.795   8.522
64421SOL     OW95095   4.450   0.734   0.247
64421SOL    HW195096   4.504   0.804   0.209
64421SOL    HW295097   4.484   0.654   0.206
64422SOL     OW95098   7.233  14.670   1.890
64422SOL    HW195099   7.138  14.683   1.888
64422SOL    HW295100   7.262  14.716   1.969
64423SOL     OW95101   1.963  12.601   5.471
64423SOL    HW195102   2.008  12.521   5.442
64423SOL    HW295103   1.945  12.586   5.564
64424SOL     OW95104   7.272   9.350   3.752
64424SOL    HW195105   7.250   9.436   3.789
64424SOL    HW295106   7.324   9.371   3.674
64425SOL     OW95107   3.723  11.393  11.962
64425SOL    HW195108   3.792  11.458  11.946
64425SOL    HW295109   3.769  11.309  11.966
64426SOL     OW95110   7.268  13.055  12.279
64426SOL    HW195111   7.357  13.088  12.282
64426SOL    HW295112   7.273  12.968  12.318
64427SOL     OW95113   5.037  10.973  13.039
64427SOL    HW195114   5.092  11.046  13.070
64427SOL    HW295115   4.987  10.947  13.116
64428SOL     OW95116   4.404  11.231  12.406
64428SOL    HW195117   4.442  11.226  12.319
64428SOL    HW295118   4.452  11.301  12.450
64429SOL     OW95119   1.761  10.953   4.603
64429SOL    HW195120   1.668  10.933   4.612
64429SOL    HW295121   1.763  11.033   4.550
64430SOL     OW95122  11.378   9.643   6.074
64430SOL    HW195123  11.345   9.562   6.035
64430SOL    HW295124  11.307   9.673   6.131
64431SOL     OW95125   2.863   1.328   2.024
64431SOL    HW195126   2.807   1.353   1.950
64431SOL    HW295127   2.898   1.411   2.056
64432SOL     OW95128   3.755  13.636  10.446
64432SOL    HW195129   3.795  13.693  10.381
64432SOL    HW295130   3.827  13.610  10.504
64433SOL     OW95131   2.775  10.739   0.385
64433SOL    HW195132   2.777  10.653   0.343
64433SOL    HW295133   2.731  10.796   0.322
64434SOL     OW95134   6.763   0.874   2.470
64434SOL    HW195135   6.806   0.935   2.530
64434SOL    HW295136   6.828   0.860   2.400
64435SOL     OW95137  10.640   9.028   1.592
64435SOL    HW195138  10.617   8.971   1.518
64435SOL    HW295139  10.574   9.097   1.590
64436SOL     OW95140   8.481   3.987   7.528
64436SOL    HW195141   8.433   4.017   7.451
64436SOL    HW295142   8.518   3.903   7.502
64437SOL     OW95143  13.921   9.158   8.691
64437SOL    HW195144  13.855   9.094   8.718
64437SOL    HW295145  13.895   9.184   8.603
64438SOL     OW95146   3.016   1.866  13.161
64438SOL    HW195147   3.055   1.864  13.248
64438SOL    HW295148   3.085   1.901  13.104
64439SOL     OW95149   9.697   4.555  14.053
64439SOL    HW195150   9.690   4.528  14.144
64439SOL    HW295151   9.666   4.480  14.003
64440SOL     OW95152  13.867   7.247   0.836
64440SOL    HW195153  13.805   7.226   0.766
64440SOL    HW295154  13.819   7.227   0.917
64441SOL     OW95155   3.798   9.512   3.796
64441SOL    HW195156   3.791   9.587   3.854
64441SOL    HW295157   3.809   9.437   3.854
64442SOL     OW95158  10.456   0.274  13.280
64442SOL    HW195159  10.465   0.366  13.254
64442SOL    HW295160  10.494   0.270  13.368
64443SOL     OW95161   5.279   5.203  12.571
64443SOL    HW195162   5.367   5.234  12.553
64443SOL    HW295163   5.281   5.110  12.552
64444SOL     OW95164   2.060  13.584   2.026
64444SOL    HW195165   2.074  13.489   2.023
64444SOL    HW295166   2.121  13.619   1.961
64445SOL     OW95167   0.652  10.054   0.227
64445SOL    HW195168   0.743  10.058   0.200
64445SOL    HW295169   0.605  10.109   0.163
64446SOL     OW95170  10.290  13.144  13.103
64446SOL    HW195171  10.214  13.146  13.044
64446SOL    HW295172  10.330  13.230  13.095
64447SOL     OW95173   4.237  13.703  10.534
64447SOL    HW195174   4.293  13.643  10.485
64447SOL    HW295175   4.179  13.741  10.468
64448SOL     OW95176  12.203   6.715  13.204
64448SOL    HW195177  12.121   6.724  13.253
64448SOL    HW295178  12.228   6.805  13.183
64449SOL     OW95179   6.792  13.991   2.910
64449SOL    HW195180   6.796  13.902   2.875
64449SOL    HW295181   6.794  14.047   2.833
64450SOL     OW95182  10.696   9.642   1.156
64450SOL    HW195183  10.647   9.718   1.186
64450SOL    HW295184  10.675   9.634   1.063
64451SOL     OW95185   9.681   3.970  12.233
64451SOL    HW195186   9.765   4.008  12.258
64451SOL    HW295187   9.664   3.903  12.299
64452SOL     OW95188   8.625  11.817   0.811
64452SOL    HW195189   8.667  11.826   0.725
64452SOL    HW295190   8.586  11.730   0.809
64453SOL     OW95191   7.454  13.134  11.623
64453SOL    HW195192   7.490  13.185  11.695
64453SOL    HW295193   7.492  13.173  11.544
64454SOL     OW95194   8.809   2.338  12.968
64454SOL    HW195195   8.891   2.324  12.920
64454SOL    HW295196   8.757   2.396  12.913
64455SOL     OW95197   8.628   6.284  13.855
64455SOL    HW195198   8.541   6.243  13.855
64455SOL    HW295199   8.683   6.223  13.807
64456SOL     OW95200   1.672   4.067   0.402
64456SOL    HW195201   1.739   4.068   0.470
64456SOL    HW295202   1.601   4.120   0.438
64457SOL     OW95203   4.986  10.009   4.868
64457SOL    HW195204   5.013   9.923   4.836
64457SOL    HW295205   4.891  10.006   4.869
64458SOL     OW95206   0.368   4.355   7.208
64458SOL    HW195207   0.405   4.368   7.295
64458SOL    HW295208   0.371   4.260   7.194
64459SOL     OW95209   7.997   8.203   0.462
64459SOL    HW195210   7.986   8.198   0.367
64459SOL    HW295211   7.975   8.293   0.484
64460SOL     OW95212  12.210   7.676  14.329
64460SOL    HW195213  12.254   7.752  14.367
64460SOL    HW295214  12.181   7.625  14.405
64461SOL     OW95215   0.801  11.181   8.504
64461SOL    HW195216   0.851  11.255   8.539
64461SOL    HW295217   0.733  11.223   8.450
64462SOL     OW95218   8.368   7.353  10.537
64462SOL    HW195219   8.458   7.321  10.538
64462SOL    HW295220   8.319   7.289  10.588
64463SOL     OW95221  12.895   3.819  13.968
64463SOL    HW195222  12.922   3.889  14.028
64463SOL    HW295223  12.818   3.855  13.923
64464SOL     OW95224  14.227   6.488   1.131
64464SOL    HW195225  14.240   6.444   1.047
64464SOL    HW295226  14.137   6.519   1.128
64465SOL     OW95227  14.173   3.236   0.479
64465SOL    HW195228  14.229   3.228   0.557
64465SOL    HW295229  14.084   3.241   0.513
64466SOL     OW95230   4.321  10.231  14.426
64466SOL    HW195231   4.349  10.322  14.415
64466SOL    HW295232   4.336  10.191  14.341
64467SOL     OW95233  13.174   2.100   3.960
64467SOL    HW195234  13.120   2.068   4.032
64467SOL    HW295235  13.221   2.175   3.997
64468SOL     OW95236  12.009   7.848   9.458
64468SOL    HW195237  11.970   7.935   9.465
64468SOL    HW295238  11.941   7.794   9.418
64469SOL     OW95239   6.511  12.781  13.744
64469SOL    HW195240   6.536  12.792  13.652
64469SOL    HW295241   6.434  12.837  13.755
64470SOL     OW95242   9.506  11.602   5.837
64470SOL    HW195243   9.511  11.695   5.812
64470SOL    HW295244   9.472  11.604   5.927
64471SOL     OW95245   2.819   3.006   7.678
64471SOL    HW195246   2.890   3.071   7.668
64471SOL    HW295247   2.865   2.923   7.693
64472SOL     OW95248   2.185   9.135   8.622
64472SOL    HW195249   2.231   9.124   8.539
64472SOL    HW295250   2.236   9.083   8.685
64473SOL     OW95251  12.190   4.955   3.143
64473SOL    HW195252  12.131   4.881   3.156
64473SOL    HW295253  12.154   5.025   3.198
64474SOL     OW95254  14.747   0.066   7.871
64474SOL    HW195255  14.829   0.076   7.921
64474SOL    HW295256  14.774   0.074   7.780
64475SOL     OW95257   4.571  10.536   3.344
64475SOL    HW195258   4.599  10.446   3.361
64475SOL    HW295259   4.624  10.564   3.269
64476SOL     OW95260   3.446  13.407   2.491
64476SOL    HW195261   3.410  13.476   2.435
64476SOL    HW295262   3.391  13.409   2.570
64477SOL     OW95263   5.917   0.219   4.002
64477SOL    HW195264   5.928   0.147   4.064
64477SOL    HW295265   5.861   0.282   4.049
64478SOL     OW95266   1.223  14.766   1.370
64478SOL    HW195267   1.151  14.829   1.381
64478SOL    HW295268   1.217  14.710   1.448
64479SOL     OW95269   2.544   5.600   2.740
64479SOL    HW195270   2.572   5.658   2.669
64479SOL    HW295271   2.570   5.646   2.820
64480SOL     OW95272  14.400   0.486  10.326
64480SOL    HW195273  14.318   0.495  10.375
64480SOL    HW295274  14.444   0.569  10.338
64481SOL     OW95275   4.017  10.748   2.800
64481SOL    HW195276   3.958  10.819   2.825
64481SOL    HW295277   4.095  10.761   2.855
64482SOL     OW95278  10.530   3.502   0.370
64482SOL    HW195279  10.549   3.588   0.333
64482SOL    HW295280  10.606   3.448   0.346
64483SOL     OW95281  12.934   0.313   0.303
64483SOL    HW195282  12.916   0.296   0.396
64483SOL    HW295283  13.028   0.297   0.294
64484SOL     OW95284   1.742   9.826   7.105
64484SOL    HW195285   1.691   9.822   7.023
64484SOL    HW295286   1.781   9.913   7.105
64485SOL     OW95287   1.582  10.863   0.433
64485SOL    HW195288   1.663  10.867   0.381
64485SOL    HW295289   1.612  10.852   0.523
64486SOL     OW95290  14.426   2.092  14.811
64486SOL    HW195291  14.333   2.093  14.831
64486SOL    HW295292  14.468   2.130   0.015
64487SOL     OW95293  14.438   2.312   5.755
64487SOL    HW195294  14.469   2.254   5.686
64487SOL    HW295295  14.509   2.374   5.769
64488SOL     OW95296  10.217   3.166   7.578
64488SOL    HW195297  10.189   3.232   7.515
64488SOL    HW295298  10.143   3.157   7.638
64489SOL     OW95299  13.263   6.629   8.739
64489SOL    HW195300  13.238   6.627   8.831
64489SOL    HW295301  13.311   6.547   8.725
64490SOL     OW95302   8.257   3.777  14.808
64490SOL    HW195303   8.298   3.842  14.866
64490SOL    HW295304   8.252   3.697  14.861
64491SOL     OW95305   8.641   2.719  12.387
64491SOL    HW195306   8.614   2.747  12.300
64491SOL    HW295307   8.726   2.760  12.401
64492SOL     OW95308  13.845  11.073  14.764
64492SOL    HW195309  13.868  11.091  14.855
64492SOL    HW295310  13.750  11.081  14.761
64493SOL     OW95311   1.026   9.991   7.132
64493SOL    HW195312   1.110  10.003   7.176
64493SOL    HW295313   0.963   9.978   7.204
64494SOL     OW95314   4.855  10.032   5.590
64494SOL    HW195315   4.875   9.963   5.654
64494SOL    HW295316   4.941  10.059   5.557
64495SOL     OW95317   3.189  10.552  10.214
64495SOL    HW195318   3.205  10.645  10.234
64495SOL    HW295319   3.274  10.510  10.224
64496SOL     OW95320   9.091   9.833  14.082
64496SOL    HW195321   9.001   9.859  14.060
64496SOL    HW295322   9.103   9.749  14.039
64497SOL     OW95323  12.650  12.536   2.125
64497SOL    HW195324  12.676  12.477   2.196
64497SOL    HW295325  12.683  12.622   2.153
64498SOL     OW95326  11.974  10.818  10.095
64498SOL    HW195327  11.969  10.913  10.088
64498SOL    HW295328  12.066  10.800  10.113
64499SOL     OW95329   7.391   9.710   7.925
64499SOL    HW195330   7.394   9.757   8.009
64499SOL    HW295331   7.346   9.628   7.945
64500SOL     OW95332   8.506  13.684  10.734
64500SOL    HW195333   8.565  13.716  10.803
64500SOL    HW295334   8.540  13.597  10.712
64501SOL     OW95335   9.598   3.397   9.736
64501SOL    HW195336   9.543   3.417   9.660
64501SOL    HW295337   9.541   3.348   9.795
64502SOL     OW95338  13.559   7.382   0.233
64502SOL    HW195339  13.605   7.445   0.178
64502SOL    HW295340  13.516   7.323   0.171
64503SOL     OW95341   1.162   1.178  11.200
64503SOL    HW195342   1.257   1.177  11.198
64503SOL    HW295343   1.140   1.246  11.264
64504SOL     OW95344   2.870   7.157  13.594
64504SOL    HW195345   2.942   7.108  13.634
64504SOL    HW295346   2.811   7.090  13.560
64505SOL     OW95347  11.969   4.645   2.910
64505SOL    HW195348  11.875   4.638   2.892
64505SOL    HW295349  12.011   4.607   2.833
64506SOL     OW95350   7.604   4.995   7.468
64506SOL    HW195351   7.614   5.037   7.383
64506SOL    HW295352   7.693   4.994   7.505
64507SOL     OW95353   3.983   1.789   7.888
64507SOL    HW195354   3.947   1.701   7.895
64507SOL    HW295355   3.966   1.815   7.797
64508SOL     OW95356   3.753   4.384   6.265
64508SOL    HW195357   3.739   4.408   6.356
64508SOL    HW295358   3.809   4.453   6.230
64509SOL     OW95359  14.112   3.583   5.417
64509SOL    HW195360  14.103   3.656   5.477
64509SOL    HW295361  14.163   3.518   5.465
64510SOL     OW95362   7.272  10.248  13.273
64510SOL    HW195363   7.270  10.295  13.356
64510SOL    HW295364   7.333  10.298  13.219
64511SOL     OW95365  13.294   1.594  11.912
64511SOL    HW195366  13.334   1.555  11.834
64511SOL    HW295367  13.335   1.680  11.919
64512SOL     OW95368  10.340   1.175   2.670
64512SOL    HW195369  10.254   1.218   2.677
64512SOL    HW295370  10.378   1.182   2.757
64513SOL     OW95371   4.407   9.352   4.347
64513SOL    HW195372   4.463   9.428   4.361
64513SOL    HW295373   4.410   9.336   4.253
64514SOL     OW95374   7.627   7.854  11.218
64514SOL    HW195375   7.651   7.772  11.262
64514SOL    HW295376   7.548   7.883  11.263
64515SOL     OW95377   0.826   0.801  11.283
64515SOL    HW195378   0.870   0.720  11.260
64515SOL    HW295379   0.754   0.774  11.340
64516SOL     OW95380   2.515  11.176  10.339
64516SOL    HW195381   2.428  11.136  10.340
64516SOL    HW295382   2.570  11.116  10.389
64517SOL     OW95383  11.761  13.274   9.070
64517SOL    HW195384  11.854  13.250   9.066
64517SOL    HW295385  11.748  13.307   9.159
64518SOL     OW95386   5.375   2.301   9.176
64518SOL    HW195387   5.449   2.343   9.132
64518SOL    HW295388   5.317   2.374   9.200
64519SOL     OW95389  14.055  10.113   2.274
64519SOL    HW195390  14.005  10.056   2.216
64519SOL    HW295391  14.068  10.194   2.225
64520SOL     OW95392  11.128  10.770  13.365
64520SOL    HW195393  11.045  10.800  13.400
64520SOL    HW295394  11.164  10.712  13.432
64521SOL     OW95395   7.218   9.811   7.582
64521SOL    HW195396   7.123   9.806   7.589
64521SOL    HW295397   7.245   9.862   7.659
64522SOL     OW95398   0.340   1.652  14.011
64522SOL    HW195399   0.266   1.690  14.058
64522SOL    HW295400   0.411   1.715  14.022
64523SOL     OW95401   4.113   1.408   1.993
64523SOL    HW195402   4.084   1.355   1.919
64523SOL    HW295403   4.204   1.431   1.972
64524SOL     OW95404   5.742   0.019  14.594
64524SOL    HW195405   5.649  14.867  14.591
64524SOL    HW295406   5.741   0.114  14.604
64525SOL     OW95407   7.010  10.927   0.865
64525SOL    HW195408   6.936  10.920   0.924
64525SOL    HW295409   7.072  10.986   0.909
64526SOL     OW95410   8.564  10.739  10.353
64526SOL    HW195411   8.478  10.774  10.378
64526SOL    HW295412   8.598  10.699  10.433
64527SOL     OW95413  12.821  13.861   0.394
64527SOL    HW195414  12.855  13.846   0.305
64527SOL    HW295415  12.898  13.890   0.444
64528SOL     OW95416   6.703   8.184   4.041
64528SOL    HW195417   6.753   8.266   4.048
64528SOL    HW295418   6.757   8.129   3.984
64529SOL     OW95419   8.238   4.307  12.726
64529SOL    HW195420   8.243   4.289  12.820
64529SOL    HW295421   8.267   4.398  12.718
64530SOL     OW95422   5.258   9.351   3.843
64530SOL    HW195423   5.167   9.379   3.854
64530SOL    HW295424   5.266   9.274   3.899
64531SOL     OW95425   6.098   3.283   2.560
64531SOL    HW195426   6.121   3.302   2.651
64531SOL    HW295427   6.042   3.356   2.533
64532SOL     OW95428  12.564   3.594   6.960
64532SOL    HW195429  12.645   3.569   6.917
64532SOL    HW295430  12.526   3.662   6.904
64533SOL     OW95431   1.334   6.027  13.590
64533SOL    HW195432   1.406   6.002  13.531
64533SOL    HW295433   1.300   5.944  13.623
64534SOL     OW95434  13.806   7.977   7.962
64534SOL    HW195435  13.753   8.055   7.981
64534SOL    HW295436  13.842   7.950   8.047
64535SOL     OW95437   6.383   0.997   1.702
64535SOL    HW195438   6.308   1.007   1.761
64535SOL    HW295439   6.380   0.906   1.675
64536SOL     OW95440   2.118   3.916   9.786
64536SOL    HW195441   2.057   3.894   9.715
64536SOL    HW295442   2.166   3.992   9.754
64537SOL     OW95443  13.925  13.124   6.436
64537SOL    HW195444  13.941  13.210   6.397
64537SOL    HW295445  13.992  13.115   6.504
64538SOL     OW95446   6.077   6.011   3.552
64538SOL    HW195447   6.095   6.102   3.526
64538SOL    HW295448   6.162   5.969   3.551
64539SOL     OW95449  11.597   2.814   8.160
64539SOL    HW195450  11.653   2.841   8.087
64539SOL    HW295451  11.648   2.749   8.207
64540SOL     OW95452   8.015   1.442   5.847
64540SOL    HW195453   8.011   1.364   5.792
64540SOL    HW295454   8.105   1.444   5.879
64541SOL     OW95455   3.672   6.013  12.639
64541SOL    HW195456   3.631   6.099  12.639
64541SOL    HW295457   3.686   5.993  12.732
64542SOL     OW95458  10.724   2.275   5.470
64542SOL    HW195459  10.670   2.257   5.394
64542SOL    HW295460  10.807   2.307   5.433
64543SOL     OW95461   8.853   4.546   0.971
64543SOL    HW195462   8.774   4.546   1.024
64543SOL    HW295463   8.838   4.478   0.906
64544SOL     OW95464   6.463   1.819   0.330
64544SOL    HW195465   6.392   1.776   0.281
64544SOL    HW295466   6.507   1.874   0.265
64545SOL     OW95467  14.664  13.328   8.738
64545SOL    HW195468  14.756  13.341   8.763
64545SOL    HW295469  14.666  13.253   8.678
64546SOL     OW95470  14.717   0.932  14.265
64546SOL    HW195471  14.707   0.999  14.197
64546SOL    HW295472  14.643   0.947  14.324
64547SOL     OW95473  14.365   0.557   9.146
64547SOL    HW195474  14.331   0.550   9.235
64547SOL    HW295475  14.459   0.568   9.156
64548SOL     OW95476  12.397  14.504  12.639
64548SOL    HW195477  12.325  14.566  12.624
64548SOL    HW295478  12.353  14.422  12.663
64549SOL     OW95479   3.202   8.533   5.098
64549SOL    HW195480   3.276   8.474   5.110
64549SOL    HW295481   3.168   8.511   5.011
64550SOL     OW95482   8.601   8.719  10.035
64550SOL    HW195483   8.532   8.733   9.970
64550SOL    HW295484   8.648   8.642  10.004
64551SOL     OW95485   0.649   2.741   3.570
64551SOL    HW195486   0.727   2.774   3.615
64551SOL    HW295487   0.601   2.692   3.637
64552SOL     OW95488  10.212  10.539  12.950
64552SOL    HW195489  10.228  10.615  13.006
64552SOL    HW295490  10.165  10.574  12.874
64553SOL     OW95491   0.623   6.583   0.977
64553SOL    HW195492   0.529   6.596   0.971
64553SOL    HW295493   0.661   6.653   0.923
64554SOL     OW95494   3.229   9.806   0.946
64554SOL    HW195495   3.191   9.800   1.034
64554SOL    HW295496   3.223   9.717   0.911
64555SOL     OW95497   0.121   6.188   2.356
64555SOL    HW195498   0.167   6.153   2.280
64555SOL    HW295499   0.100   6.278   2.331
64556SOL     OW95500  11.103   0.957  13.067
64556SOL    HW195501  11.141   0.928  12.984
64556SOL    HW295502  11.157   1.032  13.093
64557SOL     OW95503   6.318   4.454   1.720
64557SOL    HW195504   6.315   4.534   1.667
64557SOL    HW295505   6.411   4.443   1.742
64558SOL     OW95506   4.073  14.056   6.936
64558SOL    HW195507   4.162  14.077   6.907
64558SOL    HW295508   4.016  14.088   6.866
64559SOL     OW95509   5.570   1.998   8.244
64559SOL    HW195510   5.657   1.959   8.235
64559SOL    HW295511   5.576   2.081   8.196
64560SOL     OW95512   6.518   9.638   6.546
64560SOL    HW195513   6.423   9.627   6.538
64560SOL    HW295514   6.530   9.669   6.636
64561SOL     OW95515  12.488   3.253   5.906
64561SOL    HW195516  12.499   3.293   5.819
64561SOL    HW295517  12.496   3.326   5.967
64562SOL     OW95518  12.352   5.183   1.905
64562SOL    HW195519  12.325   5.103   1.950
64562SOL    HW295520  12.293   5.251   1.940
64563SOL     OW95521  11.101   9.295   3.739
64563SOL    HW195522  11.119   9.201   3.732
64563SOL    HW295523  11.057   9.318   3.658
64564SOL     OW95524   4.060   2.786  13.233
64564SOL    HW195525   4.153   2.771  13.251
64564SOL    HW295526   4.018   2.704  13.257
64565SOL     OW95527  12.264   7.726  13.612
64565SOL    HW195528  12.270   7.632  13.630
64565SOL    HW295529  12.172   7.747  13.628
64566SOL     OW95530   2.895   2.140   0.786
64566SOL    HW195531   2.981   2.181   0.775
64566SOL    HW295532   2.855   2.145   0.699
64567SOL     OW95533   6.901   4.305   7.945
64567SOL    HW195534   6.861   4.377   7.994
64567SOL    HW295535   6.921   4.239   8.012
64568SOL     OW95536  11.955   6.021   4.586
64568SOL    HW195537  12.047   6.008   4.609
64568SOL    HW295538  11.944   6.116   4.584
64569SOL     OW95539   8.669   0.158  11.746
64569SOL    HW195540   8.743   0.109  11.781
64569SOL    HW295541   8.630   0.201  11.822
64570SOL     OW95542   2.268   8.247  11.317
64570SOL    HW195543   2.303   8.165  11.352
64570SOL    HW295544   2.180   8.253  11.353
64571SOL     OW95545   4.909  13.311   3.898
64571SOL    HW195546   5.002  13.304   3.873
64571SOL    HW295547   4.909  13.297   3.993
64572SOL     OW95548   2.016  12.817  11.967
64572SOL    HW195549   2.055  12.773  11.891
64572SOL    HW295550   1.994  12.904  11.935
64573SOL     OW95551   7.109   3.320   9.374
64573SOL    HW195552   7.164   3.266   9.430
64573SOL    HW295553   7.129   3.410   9.400
64574SOL     OW95554   5.934  11.705   3.644
64574SOL    HW195555   5.942  11.649   3.567
64574SOL    HW295556   5.850  11.680   3.683
64575SOL     OW95557   7.996   0.226   6.454
64575SOL    HW195558   8.062   0.220   6.386
64575SOL    HW295559   8.019   0.306   6.502
64576SOL     OW95560  13.503   3.228   9.969
64576SOL    HW195561  13.503   3.132   9.966
64576SOL    HW295562  13.416   3.251  10.001
64577SOL     OW95563   4.048   2.055   4.223
64577SOL    HW195564   4.096   1.991   4.170
64577SOL    HW295565   3.969   2.073   4.174
64578SOL     OW95566   7.872  11.403   7.935
64578SOL    HW195567   7.816  11.332   7.965
64578SOL    HW295568   7.946  11.358   7.893
64579SOL     OW95569  10.896   0.359   5.778
64579SOL    HW195570  10.816   0.386   5.733
64579SOL    HW295571  10.938   0.441   5.804
64580SOL     OW95572   9.425   4.062   8.657
64580SOL    HW195573   9.427   4.024   8.569
64580SOL    HW295574   9.451   3.990   8.715
64581SOL     OW95575   0.312   9.538   5.592
64581SOL    HW195576   0.265   9.530   5.675
64581SOL    HW295577   0.258   9.597   5.539
64582SOL     OW95578   1.136   2.387   3.691
64582SOL    HW195579   1.067   2.351   3.746
64582SOL    HW295580   1.090   2.438   3.625
64583SOL     OW95581   1.660  14.780   9.174
64583SOL    HW195582   1.621  14.712   9.229
64583SOL    HW295583   1.747  14.747   9.153
64584SOL     OW95584  12.167  12.160   4.930
64584SOL    HW195585  12.179  12.127   5.019
64584SOL    HW295586  12.130  12.085   4.882
64585SOL     OW95587  10.064   1.234  13.702
64585SOL    HW195588  10.027   1.256  13.616
64585SOL    HW295589  10.155   1.264  13.697
64586SOL     OW95590   7.660   7.701   0.525
64586SOL    HW195591   7.568   7.728   0.526
64586SOL    HW295592   7.658   7.609   0.552
64587SOL     OW95593   3.837  13.608  14.281
64587SOL    HW195594   3.849  13.671  14.211
64587SOL    HW295595   3.863  13.655  14.360
64588SOL     OW95596   3.829   3.292  12.210
64588SOL    HW195597   3.779   3.271  12.288
64588SOL    HW295598   3.763   3.297  12.140
64589SOL     OW95599   1.475   6.904   7.978
64589SOL    HW195600   1.393   6.914   7.929
64589SOL    HW295601   1.449   6.864   8.061
64590SOL     OW95602   3.478  13.392  12.683
64590SOL    HW195603   3.436  13.306  12.693
64590SOL    HW295604   3.488  13.402  12.588
64591SOL     OW95605  14.274   9.410   8.043
64591SOL    HW195606  14.317   9.495   8.034
64591SOL    HW295607  14.181   9.429   8.034
64592SOL     OW95608   2.538   4.863   5.831
64592SOL    HW195609   2.626   4.825   5.836
64592SOL    HW295610   2.532   4.920   5.908
64593SOL     OW95611  13.951   4.666  12.155
64593SOL    HW195612  14.037   4.626  12.164
64593SOL    HW295613  13.959   4.751  12.198
64594SOL     OW95614  13.756   5.870   7.909
64594SOL    HW195615  13.679   5.816   7.928
64594SOL    HW295616  13.744   5.898   7.818
64595SOL     OW95617  12.753   8.833   4.122
64595SOL    HW195618  12.791   8.804   4.039
64595SOL    HW295619  12.746   8.753   4.175
64596SOL     OW95620   3.866  10.040   4.153
64596SOL    HW195621   3.869  10.098   4.077
64596SOL    HW295622   3.941   9.981   4.142
64597SOL     OW95623   0.786   4.473   3.975
64597SOL    HW195624   0.863   4.506   4.022
64597SOL    HW295625   0.810   4.480   3.882
64598SOL     OW95626   9.548   3.973   5.926
64598SOL    HW195627   9.507   4.010   5.848
64598SOL    HW295628   9.549   4.044   5.990
64599SOL     OW95629   6.761  13.683   8.308
64599SOL    HW195630   6.769  13.594   8.344
64599SOL    HW295631   6.735  13.669   8.217
64600SOL     OW95632   4.949   7.981  13.003
64600SOL    HW195633   5.028   8.006  12.955
64600SOL    HW295634   4.878   7.991  12.939
64601SOL     OW95635   8.608  10.651  11.782
64601SOL    HW195636   8.685  10.706  11.766
64601SOL    HW295637   8.535  10.702  11.748
64602SOL     OW95638   2.151  12.728   7.806
64602SOL    HW195639   2.103  12.662   7.857
64602SOL    HW295640   2.141  12.809   7.857
64603SOL     OW95641  12.229   1.566   3.561
64603SOL    HW195642  12.309   1.590   3.607
64603SOL    HW295643  12.229   1.470   3.561
64604SOL     OW95644   6.818  12.121   3.333
64604SOL    HW195645   6.724  12.134   3.344
64604SOL    HW295646   6.857  12.207   3.349
64605SOL     OW95647   4.956   6.268   4.883
64605SOL    HW195648   4.869   6.233   4.866
64605SOL    HW295649   4.965   6.340   4.821
64606SOL     OW95650   9.330   7.487   8.603
64606SOL    HW195651   9.321   7.403   8.648
64606SOL    HW295652   9.240   7.510   8.578
64607SOL     OW95653   8.970   5.032   5.011
64607SOL    HW195654   8.958   4.979   5.090
64607SOL    HW295655   8.882   5.038   4.973
64608SOL     OW95656  14.642   4.732  10.606
64608SOL    HW195657  14.728   4.774  10.608
64608SOL    HW295658  14.618   4.721  10.698
64609SOL     OW95659   6.145  10.783   1.321
64609SOL    HW195660   6.078  10.823   1.376
64609SOL    HW295661   6.132  10.823   1.235
64610SOL     OW95662  14.037   0.886   9.203
64610SOL    HW195663  13.982   0.904   9.279
64610SOL    HW295664  14.016   0.956   9.141
64611SOL     OW95665  13.792  13.186   2.552
64611SOL    HW195666  13.768  13.149   2.637
64611SOL    HW295667  13.742  13.134   2.489
64612SOL     OW95668  11.355  13.904   5.502
64612SOL    HW195669  11.414  13.920   5.576
64612SOL    HW295670  11.313  13.821   5.523
64613SOL     OW95671   4.268   6.005  13.985
64613SOL    HW195672   4.299   5.915  13.970
64613SOL    HW295673   4.268   6.015  14.080
64614SOL     OW95674   5.238  10.502  11.937
64614SOL    HW195675   5.292  10.487  12.015
64614SOL    HW295676   5.163  10.552  11.969
64615SOL     OW95677  12.552   2.433   1.796
64615SOL    HW195678  12.559   2.342   1.767
64615SOL    HW295679  12.459   2.453   1.788
64616SOL     OW95680   7.085  10.386  11.288
64616SOL    HW195681   7.007  10.430  11.322
64616SOL    HW295682   7.054  10.301  11.257
64617SOL     OW95683   5.602   9.861   2.170
64617SOL    HW195684   5.660   9.936   2.174
64617SOL    HW295685   5.655   9.787   2.201
64618SOL     OW95686   8.564   2.449   7.314
64618SOL    HW195687   8.558   2.540   7.286
64618SOL    HW295688   8.656   2.426   7.298
64619SOL     OW95689  10.862   9.153   2.332
64619SOL    HW195690  10.927   9.205   2.380
64619SOL    HW295691  10.778   9.190   2.358
64620SOL     OW95692   3.371   6.739  13.885
64620SOL    HW195693   3.328   6.693  13.813
64620SOL    HW295694   3.458   6.760  13.852
64621SOL     OW95695   5.654   6.007  13.682
64621SOL    HW195696   5.652   6.102  13.671
64621SOL    HW295697   5.737   5.990  13.728
64622SOL     OW95698   9.211  14.738   3.339
64622SOL    HW195699   9.237  14.715   3.250
64622SOL    HW295700   9.260  14.818   3.358
64623SOL     OW95701   0.422   3.925   0.025
64623SOL    HW195702   0.494   3.953   0.081
64623SOL    HW295703   0.435   3.973  14.816
64624SOL     OW95704  12.436  12.140   3.127
64624SOL    HW195705  12.494  12.196   3.076
64624SOL    HW295706  12.455  12.163   3.218
64625SOL     OW95707  12.139   5.352   4.356
64625SOL    HW195708  12.159   5.411   4.283
64625SOL    HW295709  12.148   5.408   4.434
64626SOL     OW95710   1.184   5.088  10.251
64626SOL    HW195711   1.127   5.011  10.252
64626SOL    HW295712   1.263   5.059  10.297
64627SOL     OW95713   6.896  13.123   5.798
64627SOL    HW195714   6.966  13.065   5.829
64627SOL    HW295715   6.840  13.135   5.875
64628SOL     OW95716   1.682   2.858  12.802
64628SOL    HW195717   1.630   2.788  12.762
64628SOL    HW295718   1.642   2.939  12.769
64629SOL     OW95719   5.321   5.240   5.812
64629SOL    HW195720   5.336   5.146   5.811
64629SOL    HW295721   5.391   5.277   5.758
64630SOL     OW95722   6.037  12.592   3.868
64630SOL    HW195723   5.979  12.655   3.825
64630SOL    HW295724   6.097  12.564   3.799
64631SOL     OW95725  11.122   9.240  12.529
64631SOL    HW195726  11.095   9.298  12.458
64631SOL    HW295727  11.048   9.242  12.591
64632SOL     OW95728  11.790   0.448   0.254
64632SOL    HW195729  11.808   0.355   0.262
64632SOL    HW295730  11.771   0.461   0.161
64633SOL     OW95731  13.901   0.972   5.271
64633SOL    HW195732  13.894   1.063   5.298
64633SOL    HW295733  13.834   0.962   5.203
64634SOL     OW95734   9.693   5.291   5.892
64634SOL    HW195735   9.732   5.275   5.806
64634SOL    HW295736   9.719   5.380   5.914
64635SOL     OW95737  14.176  10.615   9.700
64635SOL    HW195738  14.158  10.665   9.621
64635SOL    HW295739  14.154  10.525   9.678
64636SOL     OW95740   4.234  13.212  12.135
64636SOL    HW195741   4.188  13.146  12.186
64636SOL    HW295742   4.231  13.179  12.045
64637SOL     OW95743  14.312   8.982  11.021
64637SOL    HW195744  14.324   9.068  10.980
64637SOL    HW295745  14.234   8.991  11.076
64638SOL     OW95746   1.069   5.271   5.070
64638SOL    HW195747   1.009   5.303   5.002
64638SOL    HW295748   1.138   5.337   5.073
64639SOL     OW95749   7.874   3.250  12.478
64639SOL    HW195750   7.944   3.309  12.503
64639SOL    HW295751   7.907   3.205  12.400
64640SOL     OW95752   4.089  11.414  13.959
64640SOL    HW195753   4.149  11.428  14.032
64640SOL    HW295754   4.047  11.498  13.945
64641SOL     OW95755   3.291   3.098   1.969
64641SOL    HW195756   3.208   3.053   1.956
64641SOL    HW295757   3.272   3.190   1.949
64642SOL     OW95758   5.452   6.088   6.321
64642SOL    HW195759   5.421   6.088   6.230
64642SOL    HW295760   5.432   6.000   6.353
64643SOL     OW95761   3.269   8.046  13.806
64643SOL    HW195762   3.205   8.113  13.783
64643SOL    HW295763   3.321   8.034  13.726
64644SOL     OW95764   3.004   7.168   2.608
64644SOL    HW195765   3.007   7.216   2.690
64644SOL    HW295766   3.087   7.187   2.565
64645SOL     OW95767  10.270   1.416   5.845
64645SOL    HW195768  10.324   1.490   5.871
64645SOL    HW295769  10.311   1.384   5.764
64646SOL     OW95770  12.819  10.207  12.661
64646SOL    HW195771  12.913  10.185  12.662
64646SOL    HW295772  12.776  10.129  12.694
64647SOL     OW95773   7.811  12.990  12.980
64647SOL    HW195774   7.800  12.986  13.075
64647SOL    HW295775   7.723  12.981  12.945
64648SOL     OW95776   6.269   8.161   3.710
64648SOL    HW195777   6.268   8.111   3.791
64648SOL    HW295778   6.188   8.136   3.665
64649SOL     OW95779   6.525   9.726   9.100
64649SOL    HW195780   6.485   9.667   9.036
64649SOL    HW295781   6.545   9.670   9.175
64650SOL     OW95782   9.054  14.554   9.919
64650SOL    HW195783   8.987  14.621   9.910
64650SOL    HW295784   9.114  14.570   9.845
64651SOL     OW95785  13.070   7.911   2.069
64651SOL    HW195786  13.164   7.904   2.085
64651SOL    HW295787  13.043   7.823   2.043
64652SOL     OW95788   4.480  13.682  11.505
64652SOL    HW195789   4.460  13.714  11.593
64652SOL    HW295790   4.533  13.604  11.520
64653SOL     OW95791   2.453  11.369  10.583
64653SOL    HW195792   2.522  11.397  10.524
64653SOL    HW295793   2.375  11.360  10.527
64654SOL     OW95794   7.010   0.903   4.096
64654SOL    HW195795   6.949   0.961   4.141
64654SOL    HW295796   7.083   0.893   4.157
64655SOL     OW95797   0.406   9.094   5.283
64655SOL    HW195798   0.393   9.148   5.360
64655SOL    HW295799   0.484   9.042   5.302
64656SOL     OW95800  11.147   1.093   1.129
64656SOL    HW195801  11.214   1.123   1.067
64656SOL    HW295802  11.120   1.007   1.095
64657SOL     OW95803  13.599   2.141  11.830
64657SOL    HW195804  13.585   2.121  11.737
64657SOL    HW295805  13.693   2.157  11.837
64658SOL     OW95806   6.434   3.794   7.276
64658SOL    HW195807   6.392   3.715   7.242
64658SOL    HW295808   6.501   3.816   7.211
64659SOL     OW95809   1.429   8.938   3.010
64659SOL    HW195810   1.489   9.009   3.031
64659SOL    HW295811   1.408   8.951   2.918
64660SOL     OW95812   1.564   4.134   2.180
64660SOL    HW195813   1.491   4.188   2.149
64660SOL    HW295814   1.625   4.132   2.107
64661SOL     OW95815   6.465  13.641   4.872
64661SOL    HW195816   6.487  13.590   4.950
64661SOL    HW295817   6.422  13.577   4.814
64662SOL     OW95818   9.167  10.520   5.004
64662SOL    HW195819   9.205  10.596   5.048
64662SOL    HW295820   9.110  10.558   4.937
64663SOL     OW95821  10.268   3.538   5.062
64663SOL    HW195822  10.283   3.627   5.093
64663SOL    HW295823  10.204   3.501   5.123
64664SOL     OW95824   2.568   5.899   6.317
64664SOL    HW195825   2.586   5.821   6.369
64664SOL    HW295826   2.611   5.970   6.364
64665SOL     OW95827   4.340   0.814  10.257
64665SOL    HW195828   4.275   0.820  10.327
64665SOL    HW295829   4.416   0.861  10.291
64666SOL     OW95830  14.484  14.588  10.715
64666SOL    HW195831  14.435  14.629  10.786
64666SOL    HW295832  14.506  14.500  10.748
64667SOL     OW95833   4.782  12.880   8.615
64667SOL    HW195834   4.865  12.840   8.641
64667SOL    HW295835   4.762  12.943   8.684
64668SOL     OW95836   8.585   9.057   5.871
64668SOL    HW195837   8.593   9.019   5.784
64668SOL    HW295838   8.671   9.043   5.911
64669SOL     OW95839   8.810   0.827   0.476
64669SOL    HW195840   8.800   0.815   0.381
64669SOL    HW295841   8.904   0.842   0.489
64670SOL     OW95842   9.149   3.063   7.423
64670SOL    HW195843   9.140   3.104   7.337
64670SOL    HW295844   9.195   3.129   7.476
64671SOL     OW95845   6.791   7.678  13.834
64671SOL    HW195846   6.884   7.698  13.846
64671SOL    HW295847   6.784   7.585  13.855
64672SOL     OW95848  12.738   5.970   1.385
64672SOL    HW195849  12.648   5.941   1.370
64672SOL    HW295850  12.751   6.041   1.323
64673SOL     OW95851   6.861  10.047   3.563
64673SOL    HW195852   6.956  10.043   3.574
64673SOL    HW295853   6.832   9.956   3.566
64674SOL     OW95854  10.896   5.834   6.843
64674SOL    HW195855  10.963   5.768   6.826
64674SOL    HW295856  10.944   5.916   6.849
64675SOL     OW95857   5.842   8.451  12.936
64675SOL    HW195858   5.899   8.464  12.861
64675SOL    HW295859   5.765   8.506  12.919
64676SOL     OW95860   3.943  14.027  12.584
64676SOL    HW195861   3.897  14.110  12.575
64676SOL    HW295862   4.032  14.045  12.553
64677SOL     OW95863  14.085  14.324   7.745
64677SOL    HW195864  14.054  14.380   7.674
64677SOL    HW295865  14.019  14.335   7.814
64678SOL     OW95866   0.931   5.452   9.192
64678SOL    HW195867   1.000   5.399   9.152
64678SOL    HW295868   0.903   5.512   9.124
64679SOL     OW95869   5.570   1.779   5.131
64679SOL    HW195870   5.587   1.765   5.224
64679SOL    HW295871   5.485   1.821   5.127
64680SOL     OW95872  14.380   7.311   7.057
64680SOL    HW195873  14.313   7.327   7.123
64680SOL    HW295874  14.345   7.348   6.977
64681SOL     OW95875  12.957   0.401   4.352
64681SOL    HW195876  12.950   0.368   4.263
64681SOL    HW295877  12.943   0.496   4.345
64682SOL     OW95878   3.621   0.953   1.192
64682SOL    HW195879   3.663   0.875   1.154
64682SOL    HW295880   3.532   0.924   1.214
64683SOL     OW95881   9.937  11.450   7.470
64683SOL    HW195882   9.908  11.498   7.547
64683SOL    HW295883   9.867  11.388   7.452
64684SOL     OW95884  11.355  14.249  11.931
64684SOL    HW195885  11.425  14.195  11.894
64684SOL    HW295886  11.318  14.196  12.001
64685SOL     OW95887   5.155  11.201   0.865
64685SOL    HW195888   5.060  11.202   0.865
64685SOL    HW295889   5.180  11.278   0.814
64686SOL     OW95890  10.639  11.492   6.244
64686SOL    HW195891  10.731  11.471   6.256
64686SOL    HW295892  10.638  11.550   6.168
64687SOL     OW95893  11.550  11.387  12.107
64687SOL    HW195894  11.565  11.464  12.053
64687SOL    HW295895  11.482  11.413  12.169
64688SOL     OW95896   4.833  12.756  11.938
64688SOL    HW195897   4.763  12.772  11.875
64688SOL    HW295898   4.822  12.665  11.964
64689SOL     OW95899  12.557   0.827   6.504
64689SOL    HW195900  12.583   0.918   6.516
64689SOL    HW295901  12.534   0.822   6.411
64690SOL     OW95902   0.453   8.795   1.574
64690SOL    HW195903   0.505   8.830   1.646
64690SOL    HW295904   0.441   8.869   1.515
64691SOL     OW95905   6.937   4.591   9.011
64691SOL    HW195906   6.868   4.560   9.069
64691SOL    HW295907   7.006   4.525   9.019
64692SOL     OW95908   9.846   3.753  10.989
64692SOL    HW195909   9.906   3.723  11.057
64692SOL    HW295910   9.848   3.849  10.996
64693SOL     OW95911  14.819   1.710   5.153
64693SOL    HW195912   0.041   1.706   5.164
64693SOL    HW295913  14.800   1.804   5.142
64694SOL     OW95914  11.199  12.143  10.124
64694SOL    HW195915  11.135  12.214  10.120
64694SOL    HW295916  11.226  12.140  10.216
64695SOL     OW95917   0.369  11.129   9.025
64695SOL    HW195918   0.314  11.160   9.097
64695SOL    HW295919   0.390  11.038   9.047
64696SOL     OW95920   4.862   7.762   1.612
64696SOL    HW195921   4.922   7.816   1.663
64696SOL    HW295922   4.906   7.750   1.527
64697SOL     OW95923   3.420   4.633  11.242
64697SOL    HW195924   3.456   4.636  11.154
64697SOL    HW295925   3.326   4.648  11.230
64698SOL     OW95926   9.014   8.188  11.448
64698SOL    HW195927   8.953   8.187  11.374
64698SOL    HW295928   8.958   8.202  11.525
64699SOL     OW95929   7.114   6.313   8.981
64699SOL    HW195930   7.121   6.408   8.988
64699SOL    HW295931   7.037   6.299   8.926
64700SOL     OW95932   9.898   4.038   7.857
64700SOL    HW195933   9.884   3.947   7.886
64700SOL    HW295934   9.947   4.078   7.929
64701SOL     OW95935   9.442   3.726   6.003
64701SOL    HW195936   9.495   3.800   5.973
64701SOL    HW295937   9.475   3.651   5.953
64702SOL     OW95938   6.605   6.364   6.135
64702SOL    HW195939   6.618   6.456   6.160
64702SOL    HW295940   6.686   6.320   6.163
64703SOL     OW95941   2.436  14.364   9.578
64703SOL    HW195942   2.524  14.328   9.563
64703SOL    HW295943   2.438  14.395   9.669
64704SOL     OW95944   0.076  10.708  13.851
64704SOL    HW195945   0.026  10.789  13.854
64704SOL    HW295946   0.154  10.726  13.903
64705SOL     OW95947  14.704   4.808   0.947
64705SOL    HW195948  14.609   4.798   0.941
64705SOL    HW295949  14.740   4.744   0.885
64706SOL     OW95950  13.023   3.199   3.385
64706SOL    HW195951  12.963   3.246   3.326
64706SOL    HW295952  12.994   3.108   3.382
64707SOL     OW95953   7.806  13.911   6.258
64707SOL    HW195954   7.750  13.836   6.234
64707SOL    HW295955   7.826  13.897   6.350
64708SOL     OW95956  12.372   5.775  10.761
64708SOL    HW195957  12.358   5.857  10.808
64708SOL    HW295958  12.357   5.707  10.827
64709SOL     OW95959  12.642   8.424   1.471
64709SOL    HW195960  12.720   8.435   1.417
64709SOL    HW295961  12.634   8.505   1.520
64710SOL     OW95962  10.757  11.255   3.464
64710SOL    HW195963  10.764  11.338   3.416
64710SOL    HW295964  10.810  11.269   3.543
64711SOL     OW95965   6.404  13.417   3.162
64711SOL    HW195966   6.379  13.439   3.252
64711SOL    HW295967   6.473  13.478   3.140
64712SOL     OW95968   2.113   3.007   1.985
64712SOL    HW195969   2.037   2.969   2.029
64712SOL    HW295970   2.169   3.037   2.057
64713SOL     OW95971   7.861  12.865   8.141
64713SOL    HW195972   7.775  12.866   8.099
64713SOL    HW295973   7.922  12.895   8.074
64714SOL     OW95974   2.008   2.810   7.562
64714SOL    HW195975   1.940   2.804   7.496
64714SOL    HW295976   2.057   2.889   7.539
64715SOL     OW95977   0.726   7.361   3.066
64715SOL    HW195978   0.724   7.323   3.154
64715SOL    HW295979   0.761   7.290   3.011
64716SOL     OW95980  14.021  12.394  11.953
64716SOL    HW195981  13.942  12.412  12.004
64716SOL    HW295982  13.989  12.365  11.868
64717SOL     OW95983  12.786   7.993   1.988
64717SOL    HW195984  12.867   8.001   2.038
64717SOL    HW295985  12.734   8.068   2.016
64718SOL     OW95986  12.252   3.308  14.140
64718SOL    HW195987  12.171   3.358  14.142
64718SOL    HW295988  12.295   3.328  14.222
64719SOL     OW95989  13.930   8.162   0.804
64719SOL    HW195990  13.858   8.225   0.800
64719SOL    HW295991  14.005   8.213   0.832
64720SOL     OW95992  11.770   6.949   5.499
64720SOL    HW195993  11.788   7.031   5.454
64720SOL    HW295994  11.675   6.941   5.496
64721SOL     OW95995   7.716  12.990  10.672
64721SOL    HW195996   7.745  13.080  10.659
64721SOL    HW295997   7.634  12.998  10.721
64722SOL     OW95998   7.531  13.188  14.148
64722SOL    HW195999   7.558  13.171  14.239
64722SOL    HW296000   7.474  13.264  14.154
64723SOL     OW96001   3.702   8.206   9.933
64723SOL    HW196002   3.771   8.171   9.876
64723SOL    HW296003   3.620   8.184   9.888
64724SOL     OW96004   2.738   2.462   5.305
64724SOL    HW196005   2.825   2.468   5.343
64724SOL    HW296006   2.683   2.516   5.362
64725SOL     OW96007   3.737   7.748   3.504
64725SOL    HW196008   3.712   7.839   3.487
64725SOL    HW296009   3.655   7.703   3.524
64726SOL     OW96010   6.203  10.132   1.427
64726SOL    HW196011   6.245  10.046   1.429
64726SOL    HW296012   6.127  10.120   1.370
64727SOL     OW96013   7.634  14.395  12.740
64727SOL    HW196014   7.606  14.310  12.775
64727SOL    HW296015   7.585  14.459  12.791
64728SOL     OW96016   9.174  13.443   8.330
64728SOL    HW196017   9.242  13.377   8.345
64728SOL    HW296018   9.094  13.404   8.365
64729SOL     OW96019   7.438   6.173   7.510
64729SOL    HW196020   7.347   6.185   7.536
64729SOL    HW296021   7.481   6.255   7.535
64730SOL     OW96022   3.029   7.983  13.307
64730SOL    HW196023   3.031   7.983  13.403
64730SOL    HW296024   2.939   7.961  13.285
64731SOL     OW96025  11.438  14.386   3.097
64731SOL    HW196026  11.452  14.326   3.170
64731SOL    HW296027  11.359  14.354   3.054
64732SOL     OW96028  11.129   0.171  10.711
64732SOL    HW196029  11.218   0.170  10.676
64732SOL    HW296030  11.136   0.125  10.795
64733SOL     OW96031  12.117   4.740  10.780
64733SOL    HW196032  12.117   4.644  10.784
64733SOL    HW296033  12.042   4.766  10.833
64734SOL     OW96034  11.459   0.161  13.869
64734SOL    HW196035  11.402   0.237  13.856
64734SOL    HW296036  11.548   0.195  13.861
64735SOL     OW96037  14.112   6.624   7.854
64735SOL    HW196038  14.168   6.548   7.842
64735SOL    HW296039  14.167   6.689   7.898
64736SOL     OW96040   8.762  12.010   5.850
64736SOL    HW196041   8.746  11.917   5.866
64736SOL    HW296042   8.855  12.021   5.865
64737SOL     OW96043   0.812   1.361  13.825
64737SOL    HW196044   0.752   1.344  13.897
64737SOL    HW296045   0.899   1.362  13.865
64738SOL     OW96046   4.859   5.000   4.701
64738SOL    HW196047   4.802   4.968   4.631
64738SOL    HW296048   4.944   5.011   4.659
64739SOL     OW96049   1.622   7.061   5.406
64739SOL    HW196050   1.543   7.008   5.419
64739SOL    HW296051   1.686   6.999   5.372
64740SOL     OW96052   1.267  14.362   0.700
64740SOL    HW196053   1.333  14.324   0.758
64740SOL    HW296054   1.210  14.413   0.758
64741SOL     OW96055   2.856  14.667   6.466
64741SOL    HW196056   2.942  14.700   6.491
64741SOL    HW296057   2.794  14.732   6.500
64742SOL     OW96058   1.522   2.813  11.623
64742SOL    HW196059   1.549   2.805  11.714
64742SOL    HW296060   1.483   2.900  11.616
64743SOL     OW96061   0.645   8.178  12.944
64743SOL    HW196062   0.642   8.249  13.008
64743SOL    HW296063   0.708   8.207  12.878
64744SOL     OW96064   3.451  13.982   2.390
64744SOL    HW196065   3.432  14.062   2.341
64744SOL    HW296066   3.495  13.925   2.327
64745SOL     OW96067  12.770  12.737  14.216
64745SOL    HW196068  12.692  12.700  14.174
64745SOL    HW296069  12.764  12.831  14.199
64746SOL     OW96070   2.419  10.845   9.340
64746SOL    HW196071   2.397  10.872   9.251
64746SOL    HW296072   2.394  10.753   9.343
64747SOL     OW96073   7.175  11.812   9.163
64747SOL    HW196074   7.201  11.787   9.075
64747SOL    HW296075   7.192  11.734   9.216
64748SOL     OW96076  14.549   4.519  11.474
64748SOL    HW196077  14.515   4.477  11.553
64748SOL    HW296078  14.473   4.560  11.433
64749SOL     OW96079   7.409   8.069   3.040
64749SOL    HW196080   7.439   8.159   3.054
64749SOL    HW296081   7.457   8.018   3.105
64750SOL     OW96082   7.304   3.595  10.250
64750SOL    HW196083   7.366   3.564  10.316
64750SOL    HW296084   7.359   3.627  10.178
64751SOL     OW96085   5.156   6.852   2.175
64751SOL    HW196086   5.178   6.907   2.250
64751SOL    HW296087   5.214   6.883   2.105
64752SOL     OW96088  13.228   9.370   8.896
64752SOL    HW196089  13.212   9.276   8.904
64752SOL    HW296090  13.314   9.383   8.936
64753SOL     OW96091   5.154   2.618   4.493
64753SOL    HW196092   5.158   2.624   4.397
64753SOL    HW296093   5.062   2.604   4.513
64754SOL     OW96094  10.743   9.144  11.682
64754SOL    HW196095  10.654   9.133  11.650
64754SOL    HW296096  10.760   9.238  11.672
64755SOL     OW96097  11.101   3.737   8.514
64755SOL    HW196098  11.187   3.754   8.475
64755SOL    HW296099  11.121   3.707   8.603
64756SOL     OW96100   9.642   0.014   8.637
64756SOL    HW196101   9.592   0.032   8.716
64756SOL    HW296102   9.731   0.042   8.658
64757SOL     OW96103   1.601  14.417   8.095
64757SOL    HW196104   1.579  14.457   8.011
64757SOL    HW296105   1.598  14.488   8.158
64758SOL     OW96106   9.511   1.732   8.192
64758SOL    HW196107   9.583   1.696   8.244
64758SOL    HW296108   9.531   1.826   8.185
64759SOL     OW96109  10.929   7.400   8.155
64759SOL    HW196110  10.989   7.473   8.144
64759SOL    HW296111  10.970   7.344   8.221
64760SOL     OW96112  11.673   4.370   8.418
64760SOL    HW196113  11.700   4.278   8.421
64760SOL    HW296114  11.709   4.408   8.498
64761SOL     OW96115   2.137   6.228  13.160
64761SOL    HW196116   2.114   6.223  13.252
64761SOL    HW296117   2.187   6.148  13.143
64762SOL     OW96118   0.111  10.084   2.616
64762SOL    HW196119   0.085  10.026   2.545
64762SOL    HW296120   0.051  10.158   2.610
64763SOL     OW96121  10.438   4.377  14.765
64763SOL    HW196122  10.527   4.360  14.798
64763SOL    HW296123  10.405   4.447  14.820
64764SOL     OW96124  14.517   6.763   8.510
64764SOL    HW196125  14.464   6.840   8.492
64764SOL    HW296126  14.488   6.699   8.445
64765SOL     OW96127   2.293   0.509  11.325
64765SOL    HW196128   2.357   0.548  11.385
64765SOL    HW296129   2.243   0.448  11.379
64766SOL     OW96130  12.671  13.539   9.977
64766SOL    HW196131  12.581  13.510   9.991
64766SOL    HW296132  12.679  13.549   9.882
64767SOL     OW96133   6.371   1.437   0.523
64767SOL    HW196134   6.418   1.461   0.602
64767SOL    HW296135   6.425   1.469   0.451
64768SOL     OW96136   5.377  14.169   6.601
64768SOL    HW196137   5.342  14.247   6.558
64768SOL    HW296138   5.360  14.097   6.539
64769SOL     OW96139  14.528   9.744  10.706
64769SOL    HW196140  14.466   9.677  10.735
64769SOL    HW296141  14.596   9.744  10.773
64770SOL     OW96142   0.796   9.585   8.771
64770SOL    HW196143   0.799   9.667   8.821
64770SOL    HW296144   0.780   9.518   8.837
64771SOL     OW96145   6.188   2.775   7.001
64771SOL    HW196146   6.227   2.725   7.073
64771SOL    HW296147   6.159   2.708   6.938
64772SOL     OW96148  14.772   4.856   7.954
64772SOL    HW196149  14.826   4.911   8.012
64772SOL    HW296150  14.781   4.897   7.868
64773SOL     OW96151  13.084   1.826  12.503
64773SOL    HW196152  13.141   1.893  12.467
64773SOL    HW296153  13.100   1.828  12.598
64774SOL     OW96154   5.358  12.480   8.118
64774SOL    HW196155   5.376  12.426   8.196
64774SOL    HW296156   5.291  12.431   8.071
64775SOL     OW96157   6.579   8.465   4.308
64775SOL    HW196158   6.620   8.552   4.310
64775SOL    HW296159   6.501   8.474   4.363
64776SOL     OW96160  10.157  10.329   1.452
64776SOL    HW196161  10.146  10.421   1.428
64776SOL    HW296162  10.246  10.308   1.423
64777SOL     OW96163   7.117   5.496   0.403
64777SOL    HW196164   7.068   5.414   0.394
64777SOL    HW296165   7.179   5.494   0.330
64778SOL     OW96166   6.175   8.670   1.138
64778SOL    HW196167   6.214   8.723   1.207
64778SOL    HW296168   6.237   8.598   1.126
64779SOL     OW96169  11.943  14.826  13.508
64779SOL    HW196170  12.025  14.783  13.483
64779SOL    HW296171  11.954   0.044  13.479
64780SOL     OW96172   2.010   6.303   3.787
64780SOL    HW196173   2.094   6.301   3.741
64780SOL    HW296174   2.033   6.326   3.877
64781SOL     OW96175   7.928  12.521  10.563
64781SOL    HW196176   7.941  12.520  10.658
64781SOL    HW296177   7.936  12.613  10.538
64782SOL     OW96178   0.423   9.952  12.972
64782SOL    HW196179   0.470   9.926  12.893
64782SOL    HW296180   0.385  10.037  12.950
64783SOL     OW96181   4.139   7.561  10.325
64783SOL    HW196182   4.091   7.630  10.280
64783SOL    HW296183   4.071   7.500  10.354
64784SOL     OW96184   8.210   4.172   9.053
64784SOL    HW196185   8.181   4.092   9.008
64784SOL    HW296186   8.208   4.149   9.146
64785SOL     OW96187   0.468  14.330   5.006
64785SOL    HW196188   0.384  14.349   4.964
64785SOL    HW296189   0.449  14.257   5.065
64786SOL     OW96190  10.885   1.053   3.692
64786SOL    HW196191  10.822   1.098   3.635
64786SOL    HW296192  10.832   1.018   3.764
64787SOL     OW96193   3.278   2.412   8.635
64787SOL    HW196194   3.347   2.410   8.568
64787SOL    HW296195   3.201   2.444   8.589
64788SOL     OW96196   0.308  11.801  14.207
64788SOL    HW196197   0.271  11.874  14.256
64788SOL    HW296198   0.244  11.730  14.217
64789SOL     OW96199   6.746   2.780   7.777
64789SOL    HW196200   6.736   2.693   7.815
64789SOL    HW296201   6.837   2.784   7.749
64790SOL     OW96202  14.213   5.862   1.842
64790SOL    HW196203  14.262   5.824   1.915
64790SOL    HW296204  14.238   5.809   1.766
64791SOL     OW96205   7.417   9.639   5.139
64791SOL    HW196206   7.391   9.708   5.199
64791SOL    HW296207   7.337   9.618   5.090
64792SOL     OW96208  10.010  12.493   8.981
64792SOL    HW196209   9.966  12.490   8.896
64792SOL    HW296210   9.942  12.473   9.045
64793SOL     OW96211  11.878  11.116  13.360
64793SOL    HW196212  11.890  11.207  13.387
64793SOL    HW296213  11.897  11.115  13.267
64794SOL     OW96214   3.401   0.199   7.608
64794SOL    HW196215   3.363   0.208   7.696
64794SOL    HW296216   3.379   0.282   7.564
64795SOL     OW96217  13.316   7.334   1.936
64795SOL    HW196218  13.289   7.266   1.997
64795SOL    HW296219  13.311   7.292   1.850
64796SOL     OW96220  10.710  10.866   4.658
64796SOL    HW196221  10.757  10.903   4.733
64796SOL    HW296222  10.651  10.935   4.629
64797SOL     OW96223   8.624   4.839   9.401
64797SOL    HW196224   8.689   4.908   9.392
64797SOL    HW296225   8.669   4.759   9.373
64798SOL     OW96226   5.988   3.761  13.830
64798SOL    HW196227   5.949   3.674  13.821
64798SOL    HW296228   5.956   3.810  13.754
64799SOL     OW96229  12.503  13.409   0.112
64799SOL    HW196230  12.498  13.326   0.159
64799SOL    HW296231  12.574  13.456   0.154
64800SOL     OW96232   9.340   3.868   1.871
64800SOL    HW196233   9.291   3.786   1.865
64800SOL    HW296234   9.339   3.904   1.782
64801SOL     OW96235   6.138   2.207  14.855
64801SOL    HW196236   6.207   2.216  14.789
64801SOL    HW296237   6.079   2.142  14.819
64802SOL     OW96238   5.025   4.055   9.492
64802SOL    HW196239   4.956   4.119   9.506
64802SOL    HW296240   4.979   3.974   9.472
64803SOL     OW96241   3.252   6.765  13.127
64803SOL    HW196242   3.252   6.772  13.032
64803SOL    HW296243   3.160   6.772  13.152
64804SOL     OW96244   4.248   4.680   6.895
64804SOL    HW196245   4.155   4.701   6.907
64804SOL    HW296246   4.263   4.604   6.951
64805SOL     OW96247   8.061   0.340  11.933
64805SOL    HW196248   8.013   0.406  11.883
64805SOL    HW296249   7.994   0.278  11.961
64806SOL     OW96250   5.178  11.218   2.521
64806SOL    HW196251   5.125  11.153   2.568
64806SOL    HW296252   5.267  11.204   2.554
64807SOL     OW96253   2.512   6.531   0.855
64807SOL    HW196254   2.427   6.538   0.897
64807SOL    HW296255   2.513   6.443   0.818
64808SOL     OW96256  13.924   5.791   0.600
64808SOL    HW196257  13.948   5.736   0.674
64808SOL    HW296258  13.897   5.729   0.532
64809SOL     OW96259   7.308   9.522  10.397
64809SOL    HW196260   7.310   9.466  10.320
64809SOL    HW296261   7.219   9.558  10.398
64810SOL     OW96262   2.336   7.649   7.709
64810SOL    HW196263   2.327   7.734   7.751
64810SOL    HW296264   2.265   7.597   7.746
64811SOL     OW96265  14.685   7.514  12.383
64811SOL    HW196266  14.741   7.567  12.326
64811SOL    HW296267  14.670   7.434  12.334
64812SOL     OW96268  13.864   1.804  13.306
64812SOL    HW196269  13.877   1.709  13.305
64812SOL    HW296270  13.950   1.839  13.283
64813SOL     OW96271  14.779   6.611  12.526
64813SOL    HW196272  14.795   6.704  12.544
64813SOL    HW296273  14.785   6.604  12.430
64814SOL     OW96274   1.310   5.982  14.685
64814SOL    HW196275   1.391   6.022  14.717
64814SOL    HW296276   1.315   5.891  14.715
64815SOL     OW96277   5.998   2.294  13.187
64815SOL    HW196278   5.938   2.280  13.261
64815SOL    HW296279   5.954   2.361  13.134
64816SOL     OW96280  14.492  10.655   7.919
64816SOL    HW196281  14.407  10.612   7.922
64816SOL    HW296282  14.486  10.724   7.985
64817SOL     OW96283   0.137  11.114  11.347
64817SOL    HW196284   0.122  11.184  11.284
64817SOL    HW296285   0.229  11.091  11.335
64818SOL     OW96286   1.581  10.945   3.305
64818SOL    HW196287   1.597  10.859   3.345
64818SOL    HW296288   1.619  11.008   3.366
64819SOL     OW96289   6.457   7.182   1.997
64819SOL    HW196290   6.493   7.256   2.045
64819SOL    HW296291   6.390   7.220   1.940
64820SOL     OW96292   8.044   3.149  11.134
64820SOL    HW196293   7.974   3.107  11.183
64820SOL    HW296294   8.004   3.170  11.049
64821SOL     OW96295  13.560   6.250   5.744
64821SOL    HW196296  13.469   6.225   5.728
64821SOL    HW296297  13.564   6.265   5.839
64822SOL     OW96298  13.309   6.888   0.528
64822SOL    HW196299  13.227   6.927   0.496
64822SOL    HW296300  13.282   6.831   0.600
64823SOL     OW96301  13.658   4.258  11.799
64823SOL    HW196302  13.626   4.185  11.746
64823SOL    HW296303  13.743   4.280  11.761
64824SOL     OW96304   8.428   8.723   5.635
64824SOL    HW196305   8.485   8.655   5.600
64824SOL    HW296306   8.457   8.803   5.590
64825SOL     OW96307  10.559   0.774   6.912
64825SOL    HW196308  10.596   0.770   6.824
64825SOL    HW296309  10.548   0.682   6.938
64826SOL     OW96310   9.475   9.830   2.405
64826SOL    HW196311   9.395   9.784   2.382
64826SOL    HW296312   9.506   9.868   2.323
64827SOL     OW96313  13.495  14.183   1.617
64827SOL    HW196314  13.427  14.159   1.680
64827SOL    HW296315  13.541  14.256   1.659
64828SOL     OW96316   4.605   1.990  13.822
64828SOL    HW196317   4.566   1.903  13.813
64828SOL    HW296318   4.583   2.035  13.741
64829SOL     OW96319  13.555   8.896   4.929
64829SOL    HW196320  13.607   8.964   4.971
64829SOL    HW296321  13.605   8.816   4.942
64830SOL     OW96322   1.387   7.680   8.515
64830SOL    HW196323   1.474   7.699   8.480
64830SOL    HW296324   1.343   7.632   8.445
64831SOL     OW96325   5.848   4.415   7.269
64831SOL    HW196326   5.887   4.486   7.218
64831SOL    HW296327   5.806   4.359   7.204
64832SOL     OW96328   3.715   2.362  11.174
64832SOL    HW196329   3.626   2.397  11.186
64832SOL    HW296330   3.769   2.414  11.233
64833SOL     OW96331   9.154  12.853  10.119
64833SOL    HW196332   9.196  12.896  10.194
64833SOL    HW296333   9.218  12.861  10.048
64834SOL     OW96334   6.550  11.246  11.028
64834SOL    HW196335   6.498  11.211  11.101
64834SOL    HW296336   6.625  11.287  11.070
64835SOL     OW96337  14.217  14.826  10.615
64835SOL    HW196338  14.261  14.756  10.567
64835SOL    HW296339  14.285   0.019  10.631
64836SOL     OW96340   8.089   2.297  12.237
64836SOL    HW196341   8.173   2.320  12.277
64836SOL    HW296342   8.026   2.300  12.310
64837SOL     OW96343   1.956   6.091   7.546
64837SOL    HW196344   2.022   6.045   7.494
64837SOL    HW296345   1.961   6.182   7.516
64838SOL     OW96346   5.636   7.701   5.258
64838SOL    HW196347   5.627   7.622   5.205
64838SOL    HW296348   5.612   7.674   5.346
64839SOL     OW96349   7.540   9.068   4.852
64839SOL    HW196350   7.457   9.073   4.898
64839SOL    HW296351   7.598   9.021   4.912
64840SOL     OW96352  13.377  12.402   1.123
64840SOL    HW196353  13.315  12.362   1.184
64840SOL    HW296354  13.391  12.490   1.157
64841SOL     OW96355  10.265  12.106   0.730
64841SOL    HW196356  10.201  12.131   0.663
64841SOL    HW296357  10.221  12.039   0.781
64842SOL     OW96358   0.296  13.738  10.073
64842SOL    HW196359   0.376  13.777  10.108
64842SOL    HW296360   0.257  13.808  10.021
64843SOL     OW96361  14.383   3.340   5.433
64843SOL    HW196362  14.308   3.364   5.487
64843SOL    HW296363  14.403   3.420   5.383
64844SOL     OW96364   7.216   9.760  13.653
64844SOL    HW196365   7.143   9.714  13.611
64844SOL    HW296366   7.292   9.741  13.597
64845SOL     OW96367  13.944   7.635   9.961
64845SOL    HW196368  13.991   7.596   9.887
64845SOL    HW296369  13.978   7.725   9.965
64846SOL     OW96370  14.624   7.323   5.480
64846SOL    HW196371  14.690   7.258   5.505
64846SOL    HW296372  14.596   7.362   5.563
64847SOL     OW96373   2.943   0.945  14.162
64847SOL    HW196374   2.906   0.929  14.075
64847SOL    HW296375   3.027   0.898  14.161
64848SOL     OW96376  11.397  14.165  14.731
64848SOL    HW196377  11.351  14.164  14.648
64848SOL    HW296378  11.385  14.076  14.766
64849SOL     OW96379   8.380   9.600  12.738
64849SOL    HW196380   8.433   9.677  12.715
64849SOL    HW296381   8.312   9.598  12.671
64850SOL     OW96382   9.751   6.082   4.797
64850SOL    HW196383   9.830   6.031   4.815
64850SOL    HW296384   9.772   6.169   4.832
64851SOL     OW96385   0.503  12.229   0.356
64851SOL    HW196386   0.409  12.234   0.338
64851SOL    HW296387   0.537  12.315   0.331
64852SOL     OW96388   7.287   5.434  11.092
64852SOL    HW196389   7.251   5.522  11.083
64852SOL    HW296390   7.230   5.391  11.156
64853SOL     OW96391   4.126  12.969   4.442
64853SOL    HW196392   4.144  12.993   4.533
64853SOL    HW296393   4.208  12.984   4.396
64854SOL     OW96394   1.296   8.930  10.416
64854SOL    HW196395   1.312   8.846  10.374
64854SOL    HW296396   1.381   8.973  10.419
64855SOL     OW96397  14.147  14.151   9.310
64855SOL    HW196398  14.053  14.141   9.320
64855SOL    HW296399  14.164  14.242   9.336
64856SOL     OW96400  13.138   9.381  12.352
64856SOL    HW196401  13.079   9.381  12.276
64856SOL    HW296402  13.195   9.305  12.339
64857SOL     OW96403  12.589   1.036   0.139
64857SOL    HW196404  12.545   1.051   0.223
64857SOL    HW296405  12.682   1.031   0.160
64858SOL     OW96406   8.753  14.307   8.109
64858SOL    HW196407   8.674  14.345   8.147
64858SOL    HW296408   8.825  14.342   8.162
64859SOL     OW96409   3.587  11.671  13.164
64859SOL    HW196410   3.631  11.665  13.080
64859SOL    HW296411   3.514  11.609  13.158
64860SOL     OW96412   6.012   5.517   8.816
64860SOL    HW196413   6.046   5.433   8.783
64860SOL    HW296414   5.989   5.566   8.737
64861SOL     OW96415  12.940   5.450  13.843
64861SOL    HW196416  12.955   5.373  13.898
64861SOL    HW296417  12.892   5.511  13.899
64862SOL     OW96418   5.675  11.295   1.378
64862SOL    HW196419   5.581  11.292   1.363
64862SOL    HW296420   5.690  11.231   1.448
64863SOL     OW96421  11.592  14.072   4.143
64863SOL    HW196422  11.597  13.987   4.187
64863SOL    HW296423  11.671  14.118   4.172
64864SOL     OW96424  11.893   5.795  11.613
64864SOL    HW196425  11.906   5.858  11.684
64864SOL    HW296426  11.907   5.710  11.653
64865SOL     OW96427   7.910   0.650   7.494
64865SOL    HW196428   7.903   0.584   7.425
64865SOL    HW296429   7.917   0.599   7.575
64866SOL     OW96430  14.671  12.101   1.892
64866SOL    HW196431  14.670  12.016   1.848
64866SOL    HW296432  14.625  12.087   1.974
64867SOL     OW96433   7.833   6.042  13.751
64867SOL    HW196434   7.796   6.074  13.833
64867SOL    HW296435   7.908   5.988  13.777
64868SOL     OW96436   8.864  11.478   8.594
64868SOL    HW196437   8.811  11.558   8.598
64868SOL    HW296438   8.954  11.510   8.591
64869SOL     OW96439  11.492   3.758   3.673
64869SOL    HW196440  11.536   3.808   3.742
64869SOL    HW296441  11.410   3.729   3.714
64870SOL     OW96442  12.911   9.917   1.963
64870SOL    HW196443  12.917  10.002   2.008
64870SOL    HW296444  12.979   9.864   2.004
64871SOL     OW96445  10.228  12.960  11.238
64871SOL    HW196446  10.257  12.881  11.192
64871SOL    HW296447  10.270  12.954  11.324
64872SOL     OW96448  10.927   8.532  13.784
64872SOL    HW196449  11.000   8.500  13.837
64872SOL    HW296450  10.849   8.513  13.836
64873SOL     OW96451   6.836   1.067   1.363
64873SOL    HW196452   6.863   1.143   1.414
64873SOL    HW296453   6.741   1.077   1.354
64874SOL     OW96454   1.195  10.771   4.378
64874SOL    HW196455   1.274  10.763   4.325
64874SOL    HW296456   1.208  10.851   4.429
64875SOL     OW96457   8.754   2.249   7.009
64875SOL    HW196458   8.716   2.262   6.922
64875SOL    HW296459   8.724   2.162   7.036
64876SOL     OW96460   2.366   2.943   3.514
64876SOL    HW196461   2.362   2.915   3.423
64876SOL    HW296462   2.316   3.025   3.517
64877SOL     OW96463   2.652   5.440  11.651
64877SOL    HW196464   2.598   5.498  11.598
64877SOL    HW296465   2.697   5.385  11.587
64878SOL     OW96466   0.559   6.694   2.189
64878SOL    HW196467   0.484   6.645   2.157
64878SOL    HW296468   0.633   6.633   2.181
64879SOL     OW96469   4.493  14.395   0.916
64879SOL    HW196470   4.585  14.385   0.940
64879SOL    HW296471   4.450  14.317   0.950
64880SOL     OW96472   0.624   7.797   5.034
64880SOL    HW196473   0.536   7.803   5.072
64880SOL    HW296474   0.681   7.775   5.107
64881SOL     OW96475   8.954   6.700   4.820
64881SOL    HW196476   9.039   6.704   4.865
64881SOL    HW296477   8.894   6.663   4.885
64882SOL     OW96478   0.914   0.057   8.304
64882SOL    HW196479   0.918   0.083   8.396
64882SOL    HW296480   0.975  14.857   8.297
64883SOL     OW96481  13.280  13.957  11.785
64883SOL    HW196482  13.339  13.947  11.710
64883SOL    HW296483  13.281  14.051  11.804
64884SOL     OW96484   0.418   5.362   0.570
64884SOL    HW196485   0.462   5.296   0.517
64884SOL    HW296486   0.467   5.442   0.555
64885SOL     OW96487   7.648   7.585   6.648
64885SOL    HW196488   7.652   7.596   6.743
64885SOL    HW296489   7.738   7.569   6.621
64886SOL     OW96490   7.591   1.205   6.507
64886SOL    HW196491   7.529   1.277   6.520
64886SOL    HW296492   7.668   1.246   6.469
64887SOL     OW96493   3.387  11.948   9.627
64887SOL    HW196494   3.396  11.853   9.634
64887SOL    HW296495   3.350  11.963   9.540
64888SOL     OW96496  11.614  11.338  10.879
64888SOL    HW196497  11.663  11.362  10.957
64888SOL    HW296498  11.645  11.250  10.857
64889SOL     OW96499   3.320   2.968   8.708
64889SOL    HW196500   3.360   3.045   8.668
64889SOL    HW296501   3.377   2.895   8.683
64890SOL     OW96502   4.280   8.186   9.164
64890SOL    HW196503   4.306   8.242   9.091
64890SOL    HW296504   4.358   8.181   9.219
64891SOL     OW96505   3.588  12.373   4.004
64891SOL    HW196506   3.683  12.367   3.996
64891SOL    HW296507   3.560  12.285   4.028
64892SOL     OW96508   6.680   7.333   0.807
64892SOL    HW196509   6.767   7.293   0.804
64892SOL    HW296510   6.664   7.361   0.717
64893SOL     OW96511   5.343   5.980   8.461
64893SOL    HW196512   5.430   5.944   8.446
64893SOL    HW296513   5.284   5.919   8.415
64894SOL     OW96514   0.783   9.508   0.286
64894SOL    HW196515   0.708   9.554   0.248
64894SOL    HW296516   0.744   9.442   0.344
64895SOL     OW96517   9.356   5.636  14.835
64895SOL    HW196518   9.445   5.626  14.870
64895SOL    HW296519   9.346   5.731  14.825
64896SOL     OW96520   3.195   3.156   8.868
64896SOL    HW196521   3.239   3.089   8.816
64896SOL    HW296522   3.178   3.114   8.952
64897SOL     OW96523   7.101  14.683   0.724
64897SOL    HW196524   7.131  14.728   0.646
64897SOL    HW296525   7.180  14.666   0.775
64898SOL     OW96526   5.756   4.220  11.928
64898SOL    HW196527   5.687   4.207  11.994
64898SOL    HW296528   5.756   4.314  11.911
64899SOL     OW96529  10.910   2.703  11.994
64899SOL    HW196530  10.923   2.710  12.089
64899SOL    HW296531  10.951   2.782  11.958
64900SOL     OW96532   5.373   2.246   0.615
64900SOL    HW196533   5.329   2.172   0.573
64900SOL    HW296534   5.302   2.306   0.638
64901SOL     OW96535  10.514   7.103   7.385
64901SOL    HW196536  10.550   7.187   7.356
64901SOL    HW296537  10.464   7.071   7.310
64902SOL     OW96538   8.108   8.953   7.598
64902SOL    HW196539   8.074   8.967   7.509
64902SOL    HW296540   8.030   8.955   7.654
64903SOL     OW96541   8.373   7.796   6.949
64903SOL    HW196542   8.427   7.745   6.888
64903SOL    HW296543   8.432   7.817   7.021
64904SOL     OW96544   3.096   3.667  10.853
64904SOL    HW196545   3.184   3.704  10.852
64904SOL    HW296546   3.085   3.634  10.942
64905SOL     OW96547   7.815   0.678   2.029
64905SOL    HW196548   7.898   0.725   2.041
64905SOL    HW296549   7.818   0.608   2.094
64906SOL     OW96550   1.673   0.840  11.132
64906SOL    HW196551   1.581   0.831  11.157
64906SOL    HW296552   1.709   0.752  11.142
64907SOL     OW96553   3.726   7.909   2.931
64907SOL    HW196554   3.728   8.000   2.899
64907SOL    HW296555   3.780   7.911   3.010
64908SOL     OW96556   2.028   1.471  12.301
64908SOL    HW196557   2.057   1.517  12.223
64908SOL    HW296558   1.934   1.490  12.306
64909SOL     OW96559  10.374   6.740   1.771
64909SOL    HW196560  10.312   6.671   1.796
64909SOL    HW296561  10.322   6.820   1.771
64910SOL     OW96562   8.282  12.082   0.671
64910SOL    HW196563   8.295  12.109   0.762
64910SOL    HW296564   8.219  12.010   0.676
64911SOL     OW96565  10.219  13.657  11.910
64911SOL    HW196566  10.311  13.646  11.887
64911SOL    HW296567  10.211  13.749  11.935
64912SOL     OW96568  14.666  13.602   8.296
64912SOL    HW196569  14.760  13.594   8.310
64912SOL    HW296570  14.632  13.513   8.302
64913SOL     OW96571  10.743   4.306   5.289
64913SOL    HW196572  10.733   4.288   5.383
64913SOL    HW296573  10.680   4.376   5.271
64914SOL     OW96574  13.769   9.137  13.658
64914SOL    HW196575  13.832   9.208  13.671
64914SOL    HW296576  13.758   9.131  13.564
64915SOL     OW96577   1.940   3.301  10.627
64915SOL    HW196578   2.007   3.369  10.622
64915SOL    HW296579   1.973   3.231  10.572
64916SOL     OW96580   2.951   7.808   3.119
64916SOL    HW196581   3.024   7.857   3.158
64916SOL    HW296582   2.891   7.792   3.192
64917SOL     OW96583   1.364   0.866   1.022
64917SOL    HW196584   1.395   0.780   1.049
64917SOL    HW296585   1.422   0.892   0.951
64918SOL     OW96586   9.560   2.174   5.184
64918SOL    HW196587   9.612   2.110   5.136
64918SOL    HW296588   9.542   2.243   5.120
64919SOL     OW96589  10.657   4.955  12.042
64919SOL    HW196590  10.711   4.901  11.983
64919SOL    HW296591  10.683   5.045  12.021
64920SOL     OW96592   2.824   9.449   5.461
64920SOL    HW196593   2.797   9.429   5.551
64920SOL    HW296594   2.919   9.460   5.466
64921SOL     OW96595  10.089   2.898   6.498
64921SOL    HW196596  10.185   2.899   6.500
64921SOL    HW296597  10.063   2.985   6.526
64922SOL     OW96598   6.023   9.812   3.742
64922SOL    HW196599   6.088   9.794   3.675
64922SOL    HW296600   6.049   9.897   3.779
64923SOL     OW96601   2.232  11.316   8.464
64923SOL    HW196602   2.149  11.357   8.438
64923SOL    HW296603   2.207  11.229   8.494
64924SOL     OW96604   8.540   5.964  10.897
64924SOL    HW196605   8.514   5.959  10.805
64924SOL    HW296606   8.618   5.909  10.903
64925SOL     OW96607   7.605   3.677  12.118
64925SOL    HW196608   7.628   3.643  12.031
64925SOL    HW296609   7.641   3.612  12.179
64926SOL     OW96610  10.083  14.747   6.976
64926SOL    HW196611  10.103  14.803   7.051
64926SOL    HW296612   9.988  14.740   6.976
64927SOL     OW96613   7.076   1.708   7.610
64927SOL    HW196614   7.080   1.800   7.636
64927SOL    HW296615   7.118   1.661   7.682
64928SOL     OW96616   5.649  12.687   8.642
64928SOL    HW196617   5.678  12.689   8.733
64928SOL    HW296618   5.674  12.773   8.608
64929SOL     OW96619   4.761   7.030  13.764
64929SOL    HW196620   4.667   7.014  13.755
64929SOL    HW296621   4.778   7.018  13.858
64930SOL     OW96622  10.346   6.683   0.036
64930SOL    HW196623  10.302   6.725   0.110
64930SOL    HW296624  10.396   6.611   0.075
64931SOL     OW96625  11.639   2.993   0.998
64931SOL    HW196626  11.629   2.989   0.902
64931SOL    HW296627  11.731   2.972   1.013
64932SOL     OW96628   7.518   0.095   3.606
64932SOL    HW196629   7.493   0.115   3.515
64932SOL    HW296630   7.593   0.153   3.623
64933SOL     OW96631   7.427   0.952  13.739
64933SOL    HW196632   7.432   1.019  13.670
64933SOL    HW296633   7.517   0.927  13.754
64934SOL     OW96634  13.679   3.867  11.660
64934SOL    HW196635  13.643   3.796  11.713
64934SOL    HW296636  13.687   3.829  11.572
64935SOL     OW96637  12.311  10.753   9.133
64935SOL    HW196638  12.308  10.717   9.044
64935SOL    HW296639  12.261  10.835   9.128
64936SOL     OW96640   0.887  13.519  11.401
64936SOL    HW196641   0.802  13.478  11.414
64936SOL    HW296642   0.921  13.481  11.320
64937SOL     OW96643  12.751  11.383   1.800
64937SOL    HW196644  12.680  11.322   1.821
64937SOL    HW296645  12.707  11.460   1.766
64938SOL     OW96646  11.603   4.288   8.691
64938SOL    HW196647  11.553   4.252   8.764
64938SOL    HW296648  11.683   4.323   8.732
64939SOL     OW96649   6.377   9.219   7.351
64939SOL    HW196650   6.388   9.254   7.262
64939SOL    HW296651   6.370   9.297   7.406
64940SOL     OW96652  10.647  10.799  14.323
64940SOL    HW196653  10.608  10.741  14.258
64940SOL    HW296654  10.576  10.857  14.350
64941SOL     OW96655   7.540   9.552   7.714
64941SOL    HW196656   7.515   9.596   7.795
64941SOL    HW296657   7.503   9.606   7.644
64942SOL     OW96658   4.128  12.683   0.571
64942SOL    HW196659   4.119  12.778   0.582
64942SOL    HW296660   4.161  12.672   0.482
64943SOL     OW96661   3.742   9.044   2.487
64943SOL    HW196662   3.733   9.041   2.391
64943SOL    HW296663   3.836   9.032   2.502
64944SOL     OW96664   0.296   5.907   3.056
64944SOL    HW196665   0.207   5.932   3.084
64944SOL    HW296666   0.306   5.817   3.087
64945SOL     OW96667   1.803  13.480   4.447
64945SOL    HW196668   1.721  13.445   4.481
64945SOL    HW296669   1.812  13.442   4.360
64946SOL     OW96670   8.319   7.130  14.543
64946SOL    HW196671   8.373   7.200  14.507
64946SOL    HW296672   8.230   7.163  14.539
64947SOL     OW96673  11.826  10.780  11.657
64947SOL    HW196674  11.873  10.769  11.739
64947SOL    HW296675  11.754  10.840  11.679
64948SOL     OW96676   9.248   7.111  10.468
64948SOL    HW196677   9.277   7.190  10.422
64948SOL    HW296678   9.271   7.127  10.559
64949SOL     OW96679   0.185   0.580   6.682
64949SOL    HW196680   0.275   0.550   6.676
64949SOL    HW296681   0.145   0.553   6.599
64950SOL     OW96682   7.261  14.266  11.114
64950SOL    HW196683   7.231  14.175  11.108
64950SOL    HW296684   7.323  14.275  11.042
64951SOL     OW96685  12.732   9.793   7.327
64951SOL    HW196686  12.777   9.711   7.307
64951SOL    HW296687  12.800   9.848   7.368
64952SOL     OW96688   6.195  13.396   1.116
64952SOL    HW196689   6.225  13.341   1.044
64952SOL    HW296690   6.276  13.429   1.156
64953SOL     OW96691   8.111   9.489  12.578
64953SOL    HW196692   8.081   9.561  12.634
64953SOL    HW296693   8.034   9.465  12.527
64954SOL     OW96694   9.739   8.122  10.967
64954SOL    HW196695   9.723   8.078  11.051
64954SOL    HW296696   9.797   8.195  10.988
64955SOL     OW96697   1.529  14.841   1.960
64955SOL    HW196698   1.620  14.823   1.984
64955SOL    HW296699   1.535   0.001   1.870
64956SOL     OW96700  12.627  12.583  11.406
64956SOL    HW196701  12.694  12.590  11.339
64956SOL    HW296702  12.546  12.569  11.357
64957SOL     OW96703   1.100   7.682  14.492
64957SOL    HW196704   1.047   7.761  14.504
64957SOL    HW296705   1.122   7.681  14.399
64958SOL     OW96706  10.590  14.587   8.287
64958SOL    HW196707  10.540  14.569   8.207
64958SOL    HW296708  10.524  14.609   8.352
64959SOL     OW96709   0.940   9.264   6.626
64959SOL    HW196710   0.955   9.230   6.538
64959SOL    HW296711   0.985   9.348   6.627
64960SOL     OW96712   5.778  11.368   5.764
64960SOL    HW196713   5.731  11.297   5.720
64960SOL    HW296714   5.835  11.404   5.696
64961SOL     OW96715   3.877  11.931  10.059
64961SOL    HW196716   3.852  11.977   9.979
64961SOL    HW296717   3.897  11.841  10.030
64962SOL     OW96718   8.531   5.912   7.407
64962SOL    HW196719   8.560   5.821   7.403
64962SOL    HW296720   8.455   5.916   7.349
64963SOL     OW96721  13.094  10.911   1.033
64963SOL    HW196722  13.069  10.996   0.996
64963SOL    HW296723  13.021  10.888   1.090
64964SOL     OW96724  11.885   9.262   4.508
64964SOL    HW196725  11.967   9.276   4.459
64964SOL    HW296726  11.817   9.267   4.441
64965SOL     OW96727  11.093   9.542   5.458
64965SOL    HW196728  11.103   9.637   5.448
64965SOL    HW296729  11.028   9.533   5.528
64966SOL     OW96730  10.884   1.872   6.833
64966SOL    HW196731  10.802   1.856   6.787
64966SOL    HW296732  10.878   1.818   6.912
64967SOL     OW96733   9.823   0.943  13.692
64967SOL    HW196734   9.908   0.959  13.733
64967SOL    HW296735   9.832   0.977  13.603
64968SOL     OW96736  13.122   6.525   1.296
64968SOL    HW196737  13.167   6.593   1.346
64968SOL    HW296738  13.162   6.527   1.210
64969SOL     OW96739  14.728  12.736   6.808
64969SOL    HW196740  14.675  12.792   6.752
64969SOL    HW296741  14.801  12.710   6.753
64970SOL     OW96742  10.613   0.738   2.710
64970SOL    HW196743  10.582   0.654   2.674
64970SOL    HW296744  10.538   0.797   2.700
64971SOL     OW96745   8.309   0.339  13.725
64971SOL    HW196746   8.296   0.306  13.814
64971SOL    HW296747   8.320   0.433  13.736
64972SOL     OW96748   7.083   0.966  13.358
64972SOL    HW196749   7.114   0.905  13.425
64972SOL    HW296750   6.993   0.937  13.340
64973SOL     OW96751   9.328  10.410  11.986
64973SOL    HW196752   9.250  10.425  12.038
64973SOL    HW296753   9.296  10.408  11.895
64974SOL     OW96754   2.533   3.042   6.050
64974SOL    HW196755   2.451   3.087   6.030
64974SOL    HW296756   2.518   2.952   6.021
64975SOL     OW96757   5.494   2.354   7.292
64975SOL    HW196758   5.478   2.321   7.380
64975SOL    HW296759   5.479   2.279   7.235
64976SOL     OW96760   0.408  10.178  13.570
64976SOL    HW196761   0.339  10.164  13.506
64976SOL    HW296762   0.487  10.191  13.517
64977SOL     OW96763  14.761   9.611  12.229
64977SOL    HW196764  14.729   9.700  12.223
64977SOL    HW296765  14.827   9.613  12.298
64978SOL     OW96766   4.480   2.849  12.548
64978SOL    HW196767   4.451   2.853  12.457
64978SOL    HW296768   4.460   2.760  12.576
64979SOL     OW96769   3.275  10.600   5.462
64979SOL    HW196770   3.270  10.515   5.506
64979SOL    HW296771   3.205  10.598   5.396
64980SOL     OW96772   8.166  11.795   7.755
64980SOL    HW196773   8.229  11.864   7.776
64980SOL    HW296774   8.119  11.827   7.679
64981SOL     OW96775   3.751   5.154  10.506
64981SOL    HW196776   3.761   5.071  10.461
64981SOL    HW296777   3.812   5.150  10.579
64982SOL     OW96778   6.962   3.751  14.117
64982SOL    HW196779   6.868   3.756  14.097
64982SOL    HW296780   6.966   3.765  14.212
64983SOL     OW96781  12.138   6.716   0.043
64983SOL    HW196782  12.210   6.766   0.080
64983SOL    HW296783  12.117   6.651   0.110
64984SOL     OW96784  13.620  14.210  14.576
64984SOL    HW196785  13.592  14.132  14.625
64984SOL    HW296786  13.542  14.266  14.574
64985SOL     OW96787   9.862   0.649   1.451
64985SOL    HW196788   9.851   0.557   1.474
64985SOL    HW296789   9.944   0.675   1.494
64986SOL     OW96790  12.000   3.008   2.926
64986SOL    HW196791  11.909   2.981   2.919
64986SOL    HW296792  12.020   3.000   3.020
64987SOL     OW96793   7.516   5.926   7.624
64987SOL    HW196794   7.601   5.931   7.667
64987SOL    HW296795   7.496   6.016   7.598
64988SOL     OW96796   6.169  12.309  11.948
64988SOL    HW196797   6.119  12.342  11.874
64988SOL    HW296798   6.147  12.216  11.952
64989SOL     OW96799   0.298   1.863   5.595
64989SOL    HW196800   0.208   1.894   5.606
64989SOL    HW296801   0.328   1.904   5.514
64990SOL     OW96802   5.801   8.074   6.789
64990SOL    HW196803   5.845   8.003   6.836
64990SOL    HW296804   5.873   8.129   6.756
64991SOL     OW96805   6.563   6.697   0.570
64991SOL    HW196806   6.470   6.691   0.589
64991SOL    HW296807   6.596   6.608   0.583
64992SOL     OW96808   5.651   9.238   5.098
64992SOL    HW196809   5.681   9.283   5.020
64992SOL    HW296810   5.624   9.308   5.157
64993SOL     OW96811   8.800   9.574  14.270
64993SOL    HW196812   8.720   9.603  14.315
64993SOL    HW296813   8.871   9.617  14.317
64994SOL     OW96814   1.871   8.872  11.239
64994SOL    HW196815   1.865   8.784  11.202
64994SOL    HW296816   1.890   8.929  11.164
64995SOL     OW96817   9.229   3.641   8.631
64995SOL    HW196818   9.153   3.623   8.687
64995SOL    HW296819   9.303   3.602   8.677
64996SOL     OW96820  10.958  11.342   2.171
64996SOL    HW196821  11.017  11.377   2.238
64996SOL    HW296822  11.004  11.356   2.089
64997SOL     OW96823  11.400   3.146  13.744
64997SOL    HW196824  11.408   3.219  13.805
64997SOL    HW296825  11.488   3.107  13.742
64998SOL     OW96826  11.452   2.791   8.923
64998SOL    HW196827  11.486   2.713   8.880
64998SOL    HW296828  11.476   2.779   9.015
64999SOL     OW96829  14.823  14.834   7.034
64999SOL    HW196830  14.842  14.765   7.097
64999SOL    HW296831  14.757  14.795   6.976
65000SOL     OW96832   9.734   2.961  14.276
65000SOL    HW196833   9.804   2.947  14.213
65000SOL    HW296834   9.688   3.039  14.245
65001SOL     OW96835  13.804   2.837   9.602
65001SOL    HW196836  13.883   2.880   9.635
65001SOL    HW296837  13.787   2.881   9.518
65002SOL     OW96838  14.531  14.345   7.178
65002SOL    HW196839  14.585  14.291   7.236
65002SOL    HW296840  14.466  14.284   7.142
65003SOL     OW96841   9.489   5.930   8.220
65003SOL    HW196842   9.454   6.013   8.251
65003SOL    HW296843   9.465   5.867   8.288
65004SOL     OW96844   1.643   3.944  11.504
65004SOL    HW196845   1.574   3.969  11.566
65004SOL    HW296846   1.604   3.873  11.453
65005SOL     OW96847  14.022   2.445   9.995
65005SOL    HW196848  14.000   2.507   9.926
65005SOL    HW296849  13.982   2.481  10.074
65006SOL     OW96850  10.115   7.310  13.500
65006SOL    HW196851  10.199   7.267  13.518
65006SOL    HW296852  10.104   7.372  13.572
65007SOL     OW96853  10.059   3.643  14.007
65007SOL    HW196854  10.015   3.707  14.063
65007SOL    HW296855  10.134   3.613  14.060
65008SOL     OW96856   4.242   1.492   8.193
65008SOL    HW196857   4.188   1.438   8.250
65008SOL    HW296858   4.329   1.452   8.197
65009SOL     OW96859   5.863   6.966  10.970
65009SOL    HW196860   5.884   7.058  10.986
65009SOL    HW296861   5.848   6.930  11.057
65010SOL     OW96862  11.141  14.848   0.553
65010SOL    HW196863  11.166  14.757   0.534
65010SOL    HW296864  11.225   0.019   0.570
65011SOL     OW96865  14.755   4.795   6.809
65011SOL    HW196866  14.795   4.790   6.895
65011SOL    HW296867  14.739   4.704   6.785
65012SOL     OW96868   1.055   7.687  12.721
65012SOL    HW196869   1.147   7.684  12.695
65012SOL    HW296870   1.006   7.666  12.642
65013SOL     OW96871   0.866   8.810  12.990
65013SOL    HW196872   0.946   8.763  13.015
65013SOL    HW296873   0.813   8.812  13.069
65014SOL     OW96874  13.480   5.913   8.223
65014SOL    HW196875  13.559   5.913   8.277
65014SOL    HW296876  13.460   6.006   8.209
65015SOL     OW96877   3.244  10.619   6.176
65015SOL    HW196878   3.263  10.532   6.141
65015SOL    HW296879   3.199  10.665   6.104
65016SOL     OW96880   4.286  13.258  11.430
65016SOL    HW196881   4.252  13.169  11.438
65016SOL    HW296882   4.259  13.287  11.343
65017SOL     OW96883   2.423   2.530   2.977
65017SOL    HW196884   2.436   2.577   2.895
65017SOL    HW296885   2.508   2.535   3.022
65018SOL     OW96886  14.060   5.000   7.231
65018SOL    HW196887  14.036   5.091   7.252
65018SOL    HW296888  13.996   4.947   7.279
65019SOL     OW96889   6.175   1.930   0.828
65019SOL    HW196890   6.258   1.900   0.792
65019SOL    HW296891   6.199   1.999   0.890
65020SOL     OW96892   5.017   7.412   0.209
65020SOL    HW196893   4.971   7.418   0.125
65020SOL    HW296894   5.103   7.451   0.192
65021SOL     OW96895   1.254   8.663  11.873
65021SOL    HW196896   1.317   8.591  11.878
65021SOL    HW296897   1.301   8.738  11.908
65022SOL     OW96898  14.572   4.919  10.926
65022SOL    HW196899  14.593   4.825  10.935
65022SOL    HW296900  14.657   4.960  10.907
65023SOL     OW96901   7.994   6.853   8.538
65023SOL    HW196902   8.062   6.906   8.579
65023SOL    HW296903   7.926   6.845   8.605
65024SOL     OW96904   5.448   5.369   6.490
65024SOL    HW196905   5.511   5.421   6.540
65024SOL    HW296906   5.493   5.349   6.408
65025SOL     OW96907   0.399  11.673   3.289
65025SOL    HW196908   0.380  11.667   3.383
65025SOL    HW296909   0.440  11.589   3.268
65026SOL     OW96910  12.903   2.583   6.830
65026SOL    HW196911  12.977   2.588   6.769
65026SOL    HW296912  12.831   2.625   6.783
65027SOL     OW96913  14.385   8.257   9.626
65027SOL    HW196914  14.468   8.288   9.663
65027SOL    HW296915  14.365   8.177   9.675
65028SOL     OW96916  13.720   4.598   0.215
65028SOL    HW196917  13.629   4.617   0.192
65028SOL    HW296918  13.753   4.680   0.251
65029SOL     OW96919   2.365  10.307   0.055
65029SOL    HW196920   2.457  10.283   0.046
65029SOL    HW296921   2.350  10.305   0.150
65030SOL     OW96922  12.989   4.544  11.095
65030SOL    HW196923  12.970   4.455  11.125
65030SOL    HW296924  12.916   4.597  11.128
65031SOL     OW96925   1.493  10.433   0.705
65031SOL    HW196926   1.515  10.474   0.621
65031SOL    HW296927   1.459  10.347   0.681
65032SOL     OW96928  11.617   4.737  14.006
65032SOL    HW196929  11.616   4.646  14.037
65032SOL    HW296930  11.665   4.785  14.073
65033SOL     OW96931   9.680  11.899  12.999
65033SOL    HW196932   9.706  11.811  13.027
65033SOL    HW296933   9.633  11.935  13.074
65034SOL     OW96934   8.254   4.358   4.049
65034SOL    HW196935   8.286   4.302   3.978
65034SOL    HW296936   8.243   4.444   4.008
65035SOL     OW96937   5.253   9.477   7.265
65035SOL    HW196938   5.309   9.472   7.188
65035SOL    HW296939   5.263   9.393   7.309
65036SOL     OW96940   1.518   2.868   4.638
65036SOL    HW196941   1.516   2.912   4.723
65036SOL    HW296942   1.605   2.827   4.634
65037SOL     OW96943   2.259  12.521  12.023
65037SOL    HW196944   2.261  12.453  12.090
65037SOL    HW296945   2.305  12.483  11.949
65038SOL     OW96946   2.275   5.895   1.878
65038SOL    HW196947   2.307   5.932   1.961
65038SOL    HW296948   2.219   5.823   1.905
65039SOL     OW96949   7.192   1.916   8.316
65039SOL    HW196950   7.145   1.881   8.391
65039SOL    HW296951   7.267   1.858   8.306
65040SOL     OW96952   4.629   4.882  13.692
65040SOL    HW196953   4.572   4.842  13.627
65040SOL    HW296954   4.714   4.886  13.650
65041SOL     OW96955   8.704  11.136   4.520
65041SOL    HW196956   8.648  11.126   4.444
65041SOL    HW296957   8.682  11.222   4.555
65042SOL     OW96958   2.246   1.251   7.297
65042SOL    HW196959   2.200   1.315   7.352
65042SOL    HW296960   2.279   1.303   7.223
65043SOL     OW96961   8.783  11.358   8.177
65043SOL    HW196962   8.733  11.358   8.095
65043SOL    HW296963   8.871  11.331   8.151
65044SOL     OW96964  14.118   9.754  10.992
65044SOL    HW196965  14.159   9.836  11.019
65044SOL    HW296966  14.043   9.781  10.938
65045SOL     OW96967   7.658   7.834  12.629
65045SOL    HW196968   7.605   7.762  12.662
65045SOL    HW296969   7.736   7.792  12.594
65046SOL     OW96970   4.948   4.839   7.845
65046SOL    HW196971   4.905   4.924   7.841
65046SOL    HW296972   4.998   4.833   7.764
65047SOL     OW96973   8.649   8.472   4.730
65047SOL    HW196974   8.683   8.561   4.739
65047SOL    HW296975   8.726   8.416   4.736
65048SOL     OW96976   6.550   5.467   6.793
65048SOL    HW196977   6.504   5.545   6.764
65048SOL    HW296978   6.589   5.492   6.877
65049SOL     OW96979  14.799  13.906   4.812
65049SOL    HW196980  14.759  13.882   4.728
65049SOL    HW296981  14.786  13.829   4.867
65050SOL     OW96982   3.900   2.242   8.699
65050SOL    HW196983   3.869   2.321   8.743
65050SOL    HW296984   3.927   2.272   8.612
65051SOL     OW96985  10.298   9.890   5.028
65051SOL    HW196986  10.328   9.811   4.985
65051SOL    HW296987  10.347   9.961   4.986
65052SOL     OW96988   5.632  13.934   6.983
65052SOL    HW196989   5.626  13.839   6.972
65052SOL    HW296990   5.699  13.961   6.921
65053SOL     OW96991   2.643   8.541   3.138
65053SOL    HW196992   2.558   8.501   3.153
65053SOL    HW296993   2.703   8.494   3.196
65054SOL     OW96994  11.495   2.968   1.401
65054SOL    HW196995  11.537   2.885   1.421
65054SOL    HW296996  11.403   2.955   1.423
65055SOL     OW96997   8.916   2.670   8.366
65055SOL    HW196998   8.918   2.619   8.285
65055SOL    HW296999   8.929   2.760   8.338
65056SOL     OW97000  12.130   2.646   7.409
65056SOL    HW197001  12.068   2.578   7.382
65056SOL    HW297002  12.088   2.688   7.485
65057SOL     OW97003   6.358   6.622   8.822
65057SOL    HW197004   6.270   6.588   8.805
65057SOL    HW297005   6.345   6.685   8.893
65058SOL     OW97006   9.233   4.527  12.293
65058SOL    HW197007   9.276   4.443  12.274
65058SOL    HW297008   9.305   4.590  12.299
65059SOL     OW97009  10.006  14.166  13.962
65059SOL    HW197010  10.021  14.199  13.873
65059SOL    HW297011   9.983  14.244  14.012
65060SOL     OW97012  13.364  12.471   0.830
65060SOL    HW197013  13.452  12.504   0.813
65060SOL    HW297014  13.331  12.526   0.900
65061SOL     OW97015  12.880  12.394   1.668
65061SOL    HW197016  12.958  12.429   1.711
65061SOL    HW297017  12.826  12.471   1.650
65062SOL     OW97018   6.359   1.865   8.580
65062SOL    HW197019   6.307   1.915   8.644
65062SOL    HW297020   6.390   1.931   8.519
65063SOL     OW97021   9.855  11.471  12.119
65063SOL    HW197022   9.815  11.555  12.096
65063SOL    HW297023   9.799  11.405  12.077
65064SOL     OW97024   1.912   9.002  14.551
65064SOL    HW197025   1.839   8.941  14.547
65064SOL    HW297026   1.936   9.005  14.644
65065SOL     OW97027   7.213   3.782   9.338
65065SOL    HW197028   7.199   3.704   9.392
65065SOL    HW297029   7.291   3.762   9.286
65066SOL     OW97030   0.518   2.643   2.711
65066SOL    HW197031   0.529   2.586   2.787
65066SOL    HW297032   0.425   2.640   2.691
65067SOL     OW97033  11.289   3.628   1.290
65067SOL    HW197034  11.324   3.539   1.291
65067SOL    HW297035  11.270   3.647   1.382
65068SOL     OW97036   2.518  13.278  11.086
65068SOL    HW197037   2.453  13.337  11.123
65068SOL    HW297038   2.600  13.325  11.093
65069SOL     OW97039   1.950  13.019   8.727
65069SOL    HW197040   1.895  12.967   8.669
65069SOL    HW297041   1.961  12.965   8.805
65070SOL     OW97042   5.050   7.952   2.090
65070SOL    HW197043   4.979   7.968   2.152
65070SOL    HW297044   5.122   8.008   2.120
65071SOL     OW97045   9.120  10.477   8.298
65071SOL    HW197046   9.121  10.547   8.364
65071SOL    HW297047   9.184  10.414   8.330
65072SOL     OW97048  10.527  12.638   8.297
65072SOL    HW197049  10.478  12.579   8.355
65072SOL    HW297050  10.616  12.603   8.297
65073SOL     OW97051   3.775  14.633  10.542
65073SOL    HW197052   3.714  14.701  10.572
65073SOL    HW297053   3.734  14.551  10.570
65074SOL     OW97054   1.806  12.604  11.204
65074SOL    HW197055   1.770  12.579  11.119
65074SOL    HW297056   1.730  12.624  11.258
65075SOL     OW97057   0.213   3.044   6.589
65075SOL    HW197058   0.283   3.093   6.545
65075SOL    HW297059   0.137   3.053   6.532
65076SOL     OW97060   7.880   0.024  13.229
65076SOL    HW197061   7.798   0.058  13.193
65076SOL    HW297062   7.868  14.802  13.233
65077SOL     OW97063   2.609   2.052   1.321
65077SOL    HW197064   2.667   2.013   1.387
65077SOL    HW297065   2.564   1.977   1.281
65078SOL     OW97066   8.328   0.198  10.259
65078SOL    HW197067   8.391   0.169  10.193
65078SOL    HW297068   8.376   0.193  10.342
65079SOL     OW97069   8.757  11.378  14.845
65079SOL    HW197070   8.733  11.307   0.031
65079SOL    HW297071   8.676  11.426  14.830
65080SOL     OW97072   8.921  10.103   0.304
65080SOL    HW197073   8.895  10.049   0.229
65080SOL    HW297074   8.937  10.041   0.375
65081SOL     OW97075   5.354  13.792   2.178
65081SOL    HW197076   5.412  13.856   2.137
65081SOL    HW297077   5.413  13.726   2.215
65082SOL     OW97078  13.360   3.643   0.944
65082SOL    HW197079  13.438   3.595   0.916
65082SOL    HW297080  13.362   3.637   1.040
65083SOL     OW97081  11.051  14.370   4.592
65083SOL    HW197082  10.962  14.402   4.602
65083SOL    HW297083  11.041  14.284   4.550
65084SOL     OW97084   5.086   8.348   4.898
65084SOL    HW197085   5.148   8.327   4.827
65084SOL    HW297086   5.009   8.294   4.879
65085SOL     OW97087  12.153   3.836  13.364
65085SOL    HW197088  12.079   3.862  13.419
65085SOL    HW297089  12.226   3.830  13.426
65086SOL     OW97090   8.343   0.484   3.873
65086SOL    HW197091   8.376   0.434   3.948
65086SOL    HW297092   8.372   0.434   3.797
65087SOL     OW97093   2.425   9.533  10.256
65087SOL    HW197094   2.494   9.590  10.292
65087SOL    HW297095   2.367   9.518  10.330
65088SOL     OW97096   8.854  13.138   4.955
65088SOL    HW197097   8.888  13.050   4.974
65088SOL    HW297098   8.915  13.197   4.999
65089SOL     OW97099  12.731   7.631   2.692
65089SOL    HW197100  12.708   7.538   2.696
65089SOL    HW297101  12.725   7.654   2.599
65090SOL     OW97102  13.113   5.497  14.532
65090SOL    HW197103  13.108   5.560  14.460
65090SOL    HW297104  13.073   5.541  14.606
65091SOL     OW97105  11.587   6.819   4.166
65091SOL    HW197106  11.677   6.843   4.142
65091SOL    HW297107  11.567   6.746   4.108
65092SOL     OW97108   9.791   6.702  11.174
65092SOL    HW197109   9.718   6.761  11.191
65092SOL    HW297110   9.782   6.679  11.081
65093SOL     OW97111   0.522  10.120   6.677
65093SOL    HW197112   0.506  10.070   6.597
65093SOL    HW297113   0.485  10.206   6.659
65094SOL     OW97114   3.579   2.471   9.727
65094SOL    HW197115   3.604   2.453   9.817
65094SOL    HW297116   3.504   2.413   9.711
65095SOL     OW97117   7.313  11.169  10.280
65095SOL    HW197118   7.306  11.084  10.324
65095SOL    HW297119   7.224  11.204  10.283
65096SOL     OW97120  13.117  14.035   3.325
65096SOL    HW197121  13.180  14.004   3.261
65096SOL    HW297122  13.147  13.998   3.409
65097SOL     OW97123  12.484   5.280  12.809
65097SOL    HW197124  12.523   5.307  12.726
65097SOL    HW297125  12.536   5.326  12.875
65098SOL     OW97126   0.832  10.499  10.598
65098SOL    HW197127   0.779  10.560  10.545
65098SOL    HW297128   0.890  10.457  10.535
65099SOL     OW97129   1.935   7.679   4.205
65099SOL    HW197130   1.899   7.676   4.117
65099SOL    HW297131   1.874   7.629   4.259
65100SOL     OW97132   0.378   8.443   6.172
65100SOL    HW197133   0.291   8.414   6.200
65100SOL    HW297134   0.392   8.399   6.088
65101SOL     OW97135   3.214  13.232   9.791
65101SOL    HW197136   3.300  13.191   9.778
65101SOL    HW297137   3.190  13.267   9.705
65102SOL     OW97138   3.681   6.005   3.762
65102SOL    HW197139   3.591   6.036   3.769
65102SOL    HW297140   3.729   6.057   3.827
65103SOL     OW97141   8.538  14.054   2.845
65103SOL    HW197142   8.471  13.987   2.833
65103SOL    HW297143   8.519  14.120   2.778
65104SOL     OW97144  11.031   7.196   9.935
65104SOL    HW197145  11.113   7.184   9.983
65104SOL    HW297146  11.024   7.120   9.879
65105SOL     OW97147  14.079   9.630   1.816
65105SOL    HW197148  14.072   9.598   1.726
65105SOL    HW297149  14.127   9.562   1.862
65106SOL     OW97150   8.960   0.318  12.423
65106SOL    HW197151   8.946   0.367  12.341
65106SOL    HW297152   9.055   0.316  12.433
65107SOL     OW97153   5.394   4.701  12.076
65107SOL    HW197154   5.316   4.689  12.021
65107SOL    HW297155   5.462   4.730  12.015
65108SOL     OW97156   7.095   4.733   6.957
65108SOL    HW197157   7.110   4.649   6.913
65108SOL    HW297158   7.009   4.725   6.997
65109SOL     OW97159   1.815   6.175   2.256
65109SOL    HW197160   1.833   6.266   2.231
65109SOL    HW297161   1.792   6.180   2.349
65110SOL     OW97162  13.263   1.304  14.775
65110SOL    HW197163  13.293   1.367  14.840
65110SOL    HW297164  13.214   1.356  14.711
65111SOL     OW97165   1.580  13.050   5.104
65111SOL    HW197166   1.662  13.071   5.149
65111SOL    HW297167   1.593  12.962   5.069
65112SOL     OW97168  12.497   9.281   0.018
65112SOL    HW197169  12.450   9.255   0.097
65112SOL    HW297170  12.569   9.218   0.011
65113SOL     OW97171  14.738   5.146  13.316
65113SOL    HW197172  14.657   5.197  13.309
65113SOL    HW297173  14.711   5.067  13.363
65114SOL     OW97174   7.452   7.537   4.222
65114SOL    HW197175   7.491   7.452   4.243
65114SOL    HW297176   7.453   7.541   4.126
65115SOL     OW97177  11.496  12.893   4.938
65115SOL    HW197178  11.504  12.804   4.904
65115SOL    HW297179  11.432  12.935   4.880
65116SOL     OW97180   5.759  12.958   4.236
65116SOL    HW197181   5.845  12.953   4.194
65116SOL    HW297182   5.701  12.995   4.169
65117SOL     OW97183   7.792  13.924   8.009
65117SOL    HW197184   7.708  13.966   7.990
65117SOL    HW297185   7.777  13.875   8.090
65118SOL     OW97186   7.115   4.738   8.282
65118SOL    HW197187   7.076   4.717   8.366
65118SOL    HW297188   7.068   4.816   8.252
65119SOL     OW97189  12.721   9.654  13.900
65119SOL    HW197190  12.686   9.656  13.989
65119SOL    HW297191  12.749   9.563  13.887
65120SOL     OW97192   7.485  13.822  11.694
65120SOL    HW197193   7.448  13.863  11.772
65120SOL    HW297194   7.422  13.839  11.625
65121SOL     OW97195   3.640   3.677   7.121
65121SOL    HW197196   3.733   3.701   7.119
65121SOL    HW297197   3.637   3.592   7.076
65122SOL     OW97198   3.788  10.476  10.238
65122SOL    HW197199   3.761  10.384  10.237
65122SOL    HW297200   3.767  10.506  10.327
65123SOL     OW97201  10.385   2.828   3.297
65123SOL    HW197202  10.339   2.912   3.292
65123SOL    HW297203  10.321   2.768   3.335
65124SOL     OW97204   3.352   5.322  13.528
65124SOL    HW197205   3.347   5.415  13.506
65124SOL    HW297206   3.393   5.281  13.451
65125SOL     OW97207  11.853   0.217  14.784
65125SOL    HW197208  11.798   0.152  14.740
65125SOL    HW297209  11.907   0.166  14.844
65126SOL     OW97210  14.576   7.405   0.914
65126SOL    HW197211  14.536   7.418   0.999
65126SOL    HW297212  14.504   7.381   0.856
65127SOL     OW97213   9.389  11.585  14.366
65127SOL    HW197214   9.325  11.517  14.391
65127SOL    HW297215   9.337  11.650  14.319
65128SOL     OW97216   7.454  12.033   8.998
65128SOL    HW197217   7.549  12.042   8.988
65128SOL    HW297218   7.442  11.959   9.057
65129SOL     OW97219  10.582   4.276   0.812
65129SOL    HW197220  10.552   4.189   0.786
65129SOL    HW297221  10.589   4.272   0.907
65130SOL     OW97222   8.099  11.028   4.185
65130SOL    HW197223   8.181  10.991   4.152
65130SOL    HW297224   8.067  10.965   4.249
65131SOL     OW97225   8.866  14.788  10.483
65131SOL    HW197226   8.855  14.753  10.395
65131SOL    HW297227   8.902  14.715  10.534
65132SOL     OW97228  12.371   4.751   6.015
65132SOL    HW197229  12.435   4.692   5.976
65132SOL    HW297230  12.379   4.832   5.964
65133SOL     OW97231   7.609  14.129   0.249
65133SOL    HW197232   7.581  14.139   0.339
65133SOL    HW297233   7.538  14.082   0.206
65134SOL     OW97234   1.411  14.202   0.919
65134SOL    HW197235   1.504  14.202   0.900
65134SOL    HW297236   1.392  14.112   0.947
65135SOL     OW97237   0.491   3.733   8.018
65135SOL    HW197238   0.521   3.822   8.037
65135SOL    HW297239   0.550   3.702   7.950
65136SOL     OW97240   9.834   5.994   4.091
65136SOL    HW197241   9.822   6.052   4.166
65136SOL    HW297242   9.795   5.911   4.119
65137SOL     OW97243   4.976   5.928  11.972
65137SOL    HW197244   5.054   5.873  11.978
65137SOL    HW297245   4.961   5.941  11.878
65138SOL     OW97246  10.619   1.540   0.258
65138SOL    HW197247  10.714   1.551   0.262
65138SOL    HW297248  10.594   1.573   0.172
65139SOL     OW97249   6.999   2.759  13.589
65139SOL    HW197250   7.009   2.847  13.552
65139SOL    HW297251   7.041   2.702  13.525
65140SOL     OW97252   4.938   2.786  12.123
65140SOL    HW197253   4.969   2.868  12.160
65140SOL    HW297254   4.970   2.785  12.033
65141SOL     OW97255  14.763   9.270   4.131
65141SOL    HW197256  14.728   9.225   4.208
65141SOL    HW297257  14.846   9.226   4.113
65142SOL     OW97258   8.942  13.116  12.286
65142SOL    HW197259   9.015  13.064  12.321
65142SOL    HW297260   8.912  13.067  12.210
65143SOL     OW97261  11.832   2.354   8.677
65143SOL    HW197262  11.813   2.447   8.691
65143SOL    HW297263  11.796   2.335   8.590
65144SOL     OW97264   8.172   3.077   3.762
65144SOL    HW197265   8.186   3.138   3.690
65144SOL    HW297266   8.084   3.097   3.793
65145SOL     OW97267  12.354   9.579   2.161
65145SOL    HW197268  12.305   9.596   2.241
65145SOL    HW297269  12.316   9.499   2.126
65146SOL     OW97270  14.576  10.752  10.222
65146SOL    HW197271  14.650  10.700  10.253
65146SOL    HW297272  14.536  10.699  10.153
65147SOL     OW97273  12.302  12.064   7.437
65147SOL    HW197274  12.207  12.065   7.428
65147SOL    HW297275  12.323  11.973   7.456
65148SOL     OW97276  10.004   7.529   7.622
65148SOL    HW197277  10.034   7.606   7.575
65148SOL    HW297278  10.018   7.456   7.562
65149SOL     OW97279  11.268   0.169  11.999
65149SOL    HW197280  11.259   0.163  11.903
65149SOL    HW297281  11.352   0.213  12.012
65150SOL     OW97282   5.730   7.331   4.838
65150SOL    HW197283   5.682   7.368   4.764
65150SOL    HW297284   5.778   7.256   4.801
65151SOL     OW97285   5.571   0.770  12.288
65151SOL    HW197286   5.514   0.775  12.365
65151SOL    HW297287   5.589   0.862  12.266
65152SOL     OW97288  11.741   2.452   1.606
65152SOL    HW197289  11.772   2.412   1.687
65152SOL    HW297290  11.810   2.514   1.582
65153SOL     OW97291  12.591   5.526   5.143
65153SOL    HW197292  12.646   5.598   5.113
65153SOL    HW297293  12.502   5.551   5.118
65154SOL     OW97294  11.208  13.601   6.583
65154SOL    HW197295  11.154  13.547   6.525
65154SOL    HW297296  11.282  13.627   6.528
65155SOL     OW97297   5.431   0.089   4.045
65155SOL    HW197298   5.431   0.010   4.098
65155SOL    HW297299   5.412   0.058   3.956
65156SOL     OW97300   6.400   1.246   5.683
65156SOL    HW197301   6.403   1.151   5.671
65156SOL    HW297302   6.311   1.270   5.654
65157SOL     OW97303  12.705   4.128  11.329
65157SOL    HW197304  12.690   4.133  11.423
65157SOL    HW297305  12.768   4.198  11.311
65158SOL     OW97306   9.100  12.001  13.705
65158SOL    HW197307   9.123  12.016  13.797
65158SOL    HW297308   9.071  12.086  13.674
65159SOL     OW97309   4.895  14.602  13.323
65159SOL    HW197310   4.843  14.604  13.243
65159SOL    HW297311   4.834  14.572  13.391
65160SOL     OW97312  11.805   7.360   1.063
65160SOL    HW197313  11.767   7.273   1.073
65160SOL    HW297314  11.886   7.346   1.015
65161SOL     OW97315   0.587   5.309   7.858
65161SOL    HW197316   0.605   5.279   7.769
65161SOL    HW297317   0.568   5.402   7.849
65162SOL     OW97318   8.222   6.530   3.699
65162SOL    HW197319   8.145   6.531   3.756
65162SOL    HW297320   8.257   6.442   3.707
65163SOL     OW97321   9.741   3.330   7.879
65163SOL    HW197322   9.680   3.259   7.860
65163SOL    HW297323   9.813   3.289   7.926
65164SOL     OW97324   0.942   3.524   2.041
65164SOL    HW197325   0.960   3.481   1.957
65164SOL    HW297326   1.010   3.490   2.100
65165SOL     OW97327   0.586  14.045  12.194
65165SOL    HW197328   0.668  14.051  12.145
65165SOL    HW297329   0.612  14.013  12.281
65166SOL     OW97330  11.512  13.891  12.761
65166SOL    HW197331  11.442  13.835  12.727
65166SOL    HW297332  11.512  13.967  12.703
65167SOL     OW97333   6.404  11.032   7.318
65167SOL    HW197334   6.347  11.050   7.393
65167SOL    HW297335   6.433  11.118   7.289
65168SOL     OW97336  13.372   6.660  11.663
65168SOL    HW197337  13.425   6.580  11.653
65168SOL    HW297338  13.282   6.631  11.648
65169SOL     OW97339   4.079  10.924   7.608
65169SOL    HW197340   4.052  10.889   7.522
65169SOL    HW297341   4.054  11.016   7.604
65170SOL     OW97342  12.736   0.537  13.900
65170SOL    HW197343  12.831   0.544  13.914
65170SOL    HW297344  12.702   0.623  13.926
65171SOL     OW97345  10.196   0.273  10.889
65171SOL    HW197346  10.246   0.192  10.902
65171SOL    HW297347  10.109   0.243  10.861
65172SOL     OW97348  13.807   1.799   3.150
65172SOL    HW197349  13.726   1.845   3.128
65172SOL    HW297350  13.787   1.707   3.133
65173SOL     OW97351  11.318   0.396   4.110
65173SOL    HW197352  11.272   0.336   4.168
65173SOL    HW297353  11.288   0.483   4.136
65174SOL     OW97354   9.202   4.516  10.725
65174SOL    HW197355   9.266   4.549  10.662
65174SOL    HW297356   9.139   4.587  10.734
65175SOL     OW97357   4.775  11.310  13.848
65175SOL    HW197358   4.850  11.368  13.840
65175SOL    HW297359   4.800  11.231  13.798
65176SOL     OW97360   2.062  12.383  14.090
65176SOL    HW197361   2.071  12.478  14.080
65176SOL    HW297362   2.117  12.361  14.165
65177SOL     OW97363   5.098   8.522  14.411
65177SOL    HW197364   5.164   8.512  14.343
65177SOL    HW297365   5.115   8.608  14.449
65178SOL     OW97366   6.972  14.288   2.556
65178SOL    HW197367   6.960  14.205   2.511
65178SOL    HW297368   7.055  14.279   2.602
65179SOL     OW97369   2.812  12.597   9.340
65179SOL    HW197370   2.894  12.632   9.304
65179SOL    HW297371   2.836  12.510   9.372
65180SOL     OW97372   8.135   7.837   3.511
65180SOL    HW197373   8.216   7.833   3.461
65180SOL    HW297374   8.140   7.762   3.571
65181SOL     OW97375  14.497  14.158   2.052
65181SOL    HW197376  14.543  14.207   1.984
65181SOL    HW297377  14.408  14.147   2.018
65182SOL     OW97378   2.240   6.031   7.493
65182SOL    HW197379   2.270   6.121   7.490
65182SOL    HW297380   2.302   5.983   7.438
65183SOL     OW97381  12.304   6.604  13.808
65183SOL    HW197382  12.326   6.641  13.723
65183SOL    HW297383  12.261   6.520  13.788
65184SOL     OW97384   4.694  10.033   4.265
65184SOL    HW197385   4.631  10.101   4.289
65184SOL    HW297386   4.732  10.005   4.348
65185SOL     OW97387   2.062  12.221   4.983
65185SOL    HW197388   2.133  12.189   5.038
65185SOL    HW297389   2.097  12.217   4.894
65186SOL     OW97390   9.739   5.340   8.174
65186SOL    HW197391   9.817   5.385   8.141
65186SOL    HW297392   9.740   5.358   8.268
65187SOL     OW97393   4.404   5.130   8.853
65187SOL    HW197394   4.430   5.138   8.761
65187SOL    HW297395   4.477   5.083   8.894
65188SOL     OW97396   0.784  14.090  12.034
65188SOL    HW197397   0.781  14.125  11.945
65188SOL    HW297398   0.871  14.052  12.043
65189SOL     OW97399   4.740  11.020   9.436
65189SOL    HW197400   4.806  10.981   9.493
65189SOL    HW297401   4.783  11.097   9.399
65190SOL     OW97402   0.541   0.484  10.720
65190SOL    HW197403   0.598   0.465  10.645
65190SOL    HW297404   0.596   0.535  10.780
65191SOL     OW97405   0.910  11.636   6.795
65191SOL    HW197406   0.888  11.566   6.734
65191SOL    HW297407   0.878  11.605   6.879
65192SOL     OW97408   4.475   3.059   0.120
65192SOL    HW197409   4.409   3.010   0.168
65192SOL    HW297410   4.464   3.150   0.150
65193SOL     OW97411   9.290   2.008  10.158
65193SOL    HW197412   9.230   1.946  10.199
65193SOL    HW297413   9.243   2.041  10.082
65194SOL     OW97414   5.305  14.855  13.134
65194SOL    HW197415   5.264  14.788  13.190
65194SOL    HW297416   5.262   0.064  13.160
65195SOL     OW97417   7.472  12.737  12.947
65195SOL    HW197418   7.427  12.685  12.881
65195SOL    HW297419   7.464  12.685  13.027
65196SOL     OW97420   8.184   7.078  11.533
65196SOL    HW197421   8.233   7.008  11.489
65196SOL    HW297422   8.170   7.144  11.465
65197SOL     OW97423   1.392  13.749  10.624
65197SOL    HW197424   1.471  13.696  10.614
65197SOL    HW297425   1.326  13.704  10.572
65198SOL     OW97426  10.031   7.684   9.253
65198SOL    HW197427  10.054   7.777   9.265
65198SOL    HW297428  10.083   7.638   9.318
65199SOL     OW97429   3.438  13.865  11.459
65199SOL    HW197430   3.481  13.853  11.374
65199SOL    HW297431   3.352  13.900  11.438
65200SOL     OW97432   6.858   2.778   1.134
65200SOL    HW197433   6.863   2.731   1.217
65200SOL    HW297434   6.797   2.727   1.081
65201SOL     OW97435   7.946   6.608  12.542
65201SOL    HW197436   7.871   6.601  12.483
65201SOL    HW297437   7.918   6.669  12.610
65202SOL     OW97438  12.750  12.138   7.836
65202SOL    HW197439  12.751  12.198   7.762
65202SOL    HW297440  12.841  12.133   7.864
65203SOL     OW97441   3.406  13.494  10.168
65203SOL    HW197442   3.349  13.544  10.227
65203SOL    HW297443   3.428  13.556  10.098
65204SOL     OW97444   5.860  11.158   6.385
65204SOL    HW197445   5.831  11.170   6.295
65204SOL    HW297446   5.955  11.168   6.382
65205SOL     OW97447   6.515  13.924  12.780
65205SOL    HW197448   6.484  14.015  12.782
65205SOL    HW297449   6.444  13.876  12.738
65206SOL     OW97450  11.178   3.355  10.470
65206SOL    HW197451  11.172   3.440  10.513
65206SOL    HW297452  11.088   3.323  10.465
65207SOL     OW97453   3.009  10.735   0.085
65207SOL    HW197454   2.919  10.765   0.079
65207SOL    HW297455   3.036  10.757   0.174
65208SOL     OW97456   5.616   8.786   1.073
65208SOL    HW197457   5.600   8.696   1.044
65208SOL    HW297458   5.536   8.811   1.119
65209SOL     OW97459  12.747   5.954   0.114
65209SOL    HW197460  12.724   5.916   0.199
65209SOL    HW297461  12.837   5.926   0.099
65210SOL     OW97462  10.121   4.168  13.205
65210SOL    HW197463  10.204   4.177  13.158
65210SOL    HW297464  10.075   4.097  13.160
65211SOL     OW97465   5.960   2.421   6.578
65211SOL    HW197466   5.876   2.408   6.534
65211SOL    HW297467   5.986   2.509   6.551
65212SOL     OW97468  14.553  12.694  11.165
65212SOL    HW197469  14.546  12.789  11.155
65212SOL    HW297470  14.608  12.667  11.092
65213SOL     OW97471   9.667   5.578  13.153
65213SOL    HW197472   9.575   5.584  13.179
65213SOL    HW297473   9.712   5.550  13.233
65214SOL     OW97474  14.775   1.610  13.628
65214SOL    HW197475  14.843   1.648  13.684
65214SOL    HW297476  14.823   1.556  13.565
65215SOL     OW97477  13.317   3.015   8.220
65215SOL    HW197478  13.326   3.090   8.279
65215SOL    HW297479  13.405   3.002   8.184
65216SOL     OW97480  10.409   2.353   6.509
65216SOL    HW197481  10.396   2.277   6.453
65216SOL    HW297482  10.503   2.370   6.506
65217SOL     OW97483   0.297   7.693   5.032
65217SOL    HW197484   0.337   7.733   5.109
65217SOL    HW297485   0.212   7.736   5.025
65218SOL     OW97486   5.266   5.775   3.776
65218SOL    HW197487   5.204   5.791   3.847
65218SOL    HW297488   5.236   5.831   3.705
65219SOL     OW97489   8.044   4.791  12.129
65219SOL    HW197490   8.090   4.818  12.049
65219SOL    HW297491   7.995   4.713  12.103
65220SOL     OW97492   3.794  12.208   8.323
65220SOL    HW197493   3.706  12.169   8.317
65220SOL    HW297494   3.778  12.295   8.359
65221SOL     OW97495  13.273   6.782  13.528
65221SOL    HW197496  13.271   6.692  13.562
65221SOL    HW297497  13.195   6.823  13.566
65222SOL     OW97498   9.740   0.239   7.674
65222SOL    HW197499   9.716   0.301   7.743
65222SOL    HW297500   9.821   0.199   7.705
65223SOL     OW97501  13.598   3.354  13.776
65223SOL    HW197502  13.649   3.284  13.817
65223SOL    HW297503  13.606   3.337  13.682
65224SOL     OW97504   4.734  14.070  11.268
65224SOL    HW197505   4.747  14.068  11.173
65224SOL    HW297506   4.640  14.078  11.279
65225SOL     OW97507  13.910   2.454   7.963
65225SOL    HW197508  13.906   2.362   7.989
65225SOL    HW297509  13.907   2.503   8.045
65226SOL     OW97510   8.109  11.510   3.272
65226SOL    HW197511   8.121  11.419   3.244
65226SOL    HW297512   8.014  11.521   3.275
65227SOL     OW97513   0.900   1.916  11.823
65227SOL    HW197514   0.859   1.876  11.900
65227SOL    HW297515   0.958   1.983  11.859
65228SOL     OW97516  13.876   5.630   7.178
65228SOL    HW197517  13.787   5.621   7.213
65228SOL    HW297518  13.926   5.560   7.221
65229SOL     OW97519   6.635   8.649  10.397
65229SOL    HW197520   6.557   8.594  10.407
65229SOL    HW297521   6.609   8.716  10.334
65230SOL     OW97522  14.816  10.563   8.851
65230SOL    HW197523  14.852  10.568   8.939
65230SOL    HW297524  14.727  10.598   8.859
65231SOL     OW97525  10.355   8.942  11.799
65231SOL    HW197526  10.266   8.973  11.782
65231SOL    HW297527  10.397   9.015  11.843
65232SOL     OW97528   6.783   0.452   3.797
65232SOL    HW197529   6.861   0.485   3.752
65232SOL    HW297530   6.816   0.379   3.849
65233SOL     OW97531   6.996   5.533   7.576
65233SOL    HW197532   7.001   5.626   7.600
65233SOL    HW297533   6.945   5.494   7.647
65234SOL     OW97534   9.624   8.038   7.168
65234SOL    HW197535   9.550   8.090   7.199
65234SOL    HW297536   9.584   7.959   7.133
65235SOL     OW97537  14.638   4.112   2.729
65235SOL    HW197538  14.671   4.095   2.641
65235SOL    HW297539  14.627   4.207   2.733
65236SOL     OW97540   0.923   6.126   3.293
65236SOL    HW197541   1.013   6.152   3.314
65236SOL    HW297542   0.916   6.036   3.325
65237SOL     OW97543   4.122   7.696  10.596
65237SOL    HW197544   4.189   7.646  10.549
65237SOL    HW297545   4.041   7.675  10.549
65238SOL     OW97546   7.449   3.662   9.615
65238SOL    HW197547   7.471   3.755   9.626
65238SOL    HW297548   7.467   3.623   9.700
65239SOL     OW97549   5.574  14.275   8.947
65239SOL    HW197550   5.540  14.192   8.914
65239SOL    HW297551   5.669  14.268   8.935
65240SOL     OW97552  12.465   4.241  13.440
65240SOL    HW197553  12.378   4.203  13.427
65240SOL    HW297554  12.450   4.316  13.497
65241SOL     OW97555   6.339  14.366   5.991
65241SOL    HW197556   6.333  14.461   5.982
65241SOL    HW297557   6.343  14.351   6.086
65242SOL     OW97558   3.542   3.293   8.242
65242SOL    HW197559   3.518   3.283   8.150
65242SOL    HW297560   3.559   3.386   8.252
65243SOL     OW97561   2.740  11.519   7.532
65243SOL    HW197562   2.811  11.509   7.470
65243SOL    HW297563   2.783  11.524   7.618
65244SOL     OW97564   7.492  10.739   3.606
65244SOL    HW197565   7.574  10.696   3.631
65244SOL    HW297566   7.459  10.778   3.688
65245SOL     OW97567   8.880   2.867  11.414
65245SOL    HW197568   8.973   2.871  11.394
65245SOL    HW297569   8.836   2.884  11.330
65246SOL     OW97570  12.693   8.037  14.538
65246SOL    HW197571  12.617   8.093  14.520
65246SOL    HW297572  12.768   8.089  14.510
65247SOL     OW97573   9.714   3.621   1.644
65247SOL    HW197574   9.722   3.662   1.731
65247SOL    HW297575   9.773   3.546   1.648
65248SOL     OW97576   0.295   5.413  11.291
65248SOL    HW197577   0.291   5.328  11.246
65248SOL    HW297578   0.324   5.474  11.223
65249SOL     OW97579   1.730   6.816   6.659
65249SOL    HW197580   1.816   6.822   6.700
65249SOL    HW297581   1.736   6.739   6.602
65250SOL     OW97582   9.111  11.772  12.846
65250SOL    HW197583   9.029  11.747  12.889
65250SOL    HW297584   9.156  11.826  12.911
65251SOL     OW97585  14.610   8.478  13.192
65251SOL    HW197586  14.627   8.548  13.129
65251SOL    HW297587  14.696   8.455  13.227
65252SOL     OW97588   1.463  10.052  14.238
65252SOL    HW197589   1.382  10.099  14.220
65252SOL    HW297590   1.529  10.120  14.249
65253SOL     OW97591  11.239  12.155   3.824
65253SOL    HW197592  11.321  12.193   3.856
65253SOL    HW297593  11.188  12.231   3.795
65254SOL     OW97594   5.341   3.609   4.717
65254SOL    HW197595   5.280   3.681   4.734
65254SOL    HW297596   5.288   3.542   4.675
65255SOL     OW97597  10.386   1.790   4.358
65255SOL    HW197598  10.352   1.763   4.443
65255SOL    HW297599  10.452   1.723   4.336
65256SOL     OW97600   7.760   7.679   8.930
65256SOL    HW197601   7.737   7.708   9.018
65256SOL    HW297602   7.694   7.718   8.873
65257SOL     OW97603  12.295  12.470   7.179
65257SOL    HW197604  12.231  12.407   7.147
65257SOL    HW297605  12.243  12.544   7.209
65258SOL     OW97606   0.184   6.778   7.443
65258SOL    HW197607   0.214   6.821   7.363
65258SOL    HW297608   0.149   6.694   7.413
65259SOL     OW97609  10.304   4.651  12.233
65259SOL    HW197610  10.260   4.568  12.250
65259SOL    HW297611  10.355   4.668  12.312
65260SOL     OW97612   4.703  11.586   3.404
65260SOL    HW197613   4.707  11.574   3.499
65260SOL    HW297614   4.728  11.677   3.390
65261SOL     OW97615   0.410   5.644   8.565
65261SOL    HW197616   0.405   5.690   8.481
65261SOL    HW297617   0.321   5.615   8.583
65262SOL     OW97618  11.490   4.964  10.820
65262SOL    HW197619  11.482   4.915  10.738
65262SOL    HW297620  11.543   5.041  10.796
65263SOL     OW97621   5.576   3.864   8.203
65263SOL    HW197622   5.489   3.866   8.164
65263SOL    HW297623   5.575   3.787   8.260
65264SOL     OW97624  14.216   9.736   9.843
65264SOL    HW197625  14.199   9.801   9.910
65264SOL    HW297626  14.147   9.671   9.854
65265SOL     OW97627   8.626   0.192   3.277
65265SOL    HW197628   8.537   0.226   3.280
65265SOL    HW297629   8.648   0.189   3.184
65266SOL     OW97630  13.878  10.155   4.268
65266SOL    HW197631  13.786  10.155   4.242
65266SOL    HW297632  13.876  10.162   4.363
65267SOL     OW97633   8.869   0.362  14.389
65267SOL    HW197634   8.774   0.368  14.391
65267SOL    HW297635   8.896   0.366  14.481
65268SOL     OW97636  14.825  10.885  11.739
65268SOL    HW197637  14.868  10.865  11.657
65268SOL    HW297638  14.861  10.823  11.802
65269SOL     OW97639   6.226  13.720   3.066
65269SOL    HW197640   6.297  13.722   3.002
65269SOL    HW297641   6.171  13.646   3.039
65270SOL     OW97642  10.293  12.930  13.873
65270SOL    HW197643  10.204  12.927  13.839
65270SOL    HW297644  10.345  12.881  13.809
65271SOL     OW97645   8.464   2.472  11.713
65271SOL    HW197646   8.537   2.422  11.675
65271SOL    HW297647   8.388   2.416  11.702
65272SOL     OW97648   0.594   2.980   6.638
65272SOL    HW197649   0.644   3.061   6.621
65272SOL    HW297650   0.575   2.983   6.732
65273SOL     OW97651   3.910  11.692   4.573
65273SOL    HW197652   3.966  11.769   4.581
65273SOL    HW297653   3.970  11.618   4.583
65274SOL     OW97654   0.465   3.719  12.991
65274SOL    HW197655   0.492   3.749  12.904
65274SOL    HW297656   0.382   3.765  13.008
65275SOL     OW97657   2.846   3.343   6.310
65275SOL    HW197658   2.819   3.259   6.274
65275SOL    HW297659   2.938   3.352   6.285
65276SOL     OW97660   3.598  11.820   5.204
65276SOL    HW197661   3.589  11.731   5.238
65276SOL    HW297662   3.508  11.849   5.190
65277SOL     OW97663   6.206   5.375   9.316
65277SOL    HW197664   6.186   5.320   9.392
65277SOL    HW297665   6.131   5.433   9.308
65278SOL     OW97666   3.971   3.333   0.989
65278SOL    HW197667   4.049   3.292   1.028
65278SOL    HW297668   3.956   3.285   0.908
65279SOL     OW97669   4.461   6.040  13.397
65279SOL    HW197670   4.485   6.020  13.306
65279SOL    HW297671   4.494   5.966  13.447
65280SOL     OW97672  11.754  10.487   6.003
65280SOL    HW197673  11.719  10.458   6.087
65280SOL    HW297674  11.846  10.509   6.021
65281SOL     OW97675   8.602   3.498   7.134
65281SOL    HW197676   8.667   3.544   7.082
65281SOL    HW297677   8.585   3.417   7.085
65282SOL     OW97678   7.111  12.261   5.968
65282SOL    HW197679   7.168  12.200   5.922
65282SOL    HW297680   7.170  12.327   6.004
65283SOL     OW97681   5.075  12.762  11.385
65283SOL    HW197682   5.146  12.718  11.432
65283SOL    HW297683   5.023  12.805  11.453
65284SOL     OW97684   4.737  14.193   9.030
65284SOL    HW197685   4.690  14.268   9.066
65284SOL    HW297686   4.826  14.226   9.015
65285SOL     OW97687   4.761   6.925  11.050
65285SOL    HW197688   4.694   6.861  11.074
65285SOL    HW297689   4.729   6.965  10.969
65286SOL     OW97690  13.327   5.463  10.620
65286SOL    HW197691  13.354   5.547  10.658
65286SOL    HW297692  13.390   5.400  10.654
65287SOL     OW97693   8.597   2.270  10.406
65287SOL    HW197694   8.635   2.312  10.484
65287SOL    HW297695   8.602   2.176  10.425
65288SOL     OW97696  12.178   8.435   6.426
65288SOL    HW197697  12.180   8.438   6.521
65288SOL    HW297698  12.176   8.526   6.398
65289SOL     OW97699  14.463  13.987   5.079
65289SOL    HW197700  14.381  14.017   5.118
65289SOL    HW297701  14.506  14.068   5.049
65290SOL     OW97702   5.823  10.102  10.786
65290SOL    HW197703   5.792  10.182  10.744
65290SOL    HW297704   5.852  10.130  10.873
65291SOL     OW97705   5.757  10.375   0.283
65291SOL    HW197706   5.845  10.375   0.321
65291SOL    HW297707   5.731  10.283   0.283
65292SOL     OW97708  13.511   7.013   0.745
65292SOL    HW197709  13.500   6.945   0.677
65292SOL    HW297710  13.601   7.043   0.734
65293SOL     OW97711   1.967   3.124   4.114
65293SOL    HW197712   1.916   3.071   4.176
65293SOL    HW297713   1.945   3.087   4.028
65294SOL     OW97714   6.858   4.957   6.273
65294SOL    HW197715   6.847   4.865   6.294
65294SOL    HW297716   6.792   5.002   6.325
65295SOL     OW97717  13.020  11.599   3.659
65295SOL    HW197718  12.950  11.659   3.632
65295SOL    HW297719  13.061  11.571   3.577
65296SOL     OW97720  14.643   7.298   0.449
65296SOL    HW197721  14.674   7.217   0.408
65296SOL    HW297722  14.663   7.366   0.385
65297SOL     OW97723  12.199  10.590  13.839
65297SOL    HW197724  12.148  10.616  13.916
65297SOL    HW297725  12.233  10.673  13.805
65298SOL     OW97726   9.256  10.661   9.681
65298SOL    HW197727   9.165  10.673   9.653
65298SOL    HW297728   9.251  10.648   9.775
65299SOL     OW97729   5.654   3.928   4.791
65299SOL    HW197730   5.563   3.958   4.793
65299SOL    HW297731   5.657   3.869   4.716
65300SOL     OW97732   6.896  11.642   1.109
65300SOL    HW197733   6.936  11.726   1.087
65300SOL    HW297734   6.942  11.613   1.187
65301SOL     OW97735   6.801   9.662   3.958
65301SOL    HW197736   6.890   9.670   3.994
65301SOL    HW297737   6.746   9.640   4.033
65302SOL     OW97738   8.001   9.484   7.213
65302SOL    HW197739   7.919   9.436   7.219
65302SOL    HW297740   8.069   9.416   7.217
65303SOL     OW97741   0.804   8.906  13.568
65303SOL    HW197742   0.826   8.969  13.637
65303SOL    HW297743   0.725   8.862  13.600
65304SOL     OW97744  11.116   3.360  11.884
65304SOL    HW197745  11.197   3.371  11.934
65304SOL    HW297746  11.144   3.322  11.801
65305SOL     OW97747  14.482   2.713   3.460
65305SOL    HW197748  14.527   2.684   3.381
65305SOL    HW297749  14.542   2.692   3.531
65306SOL     OW97750   9.802  10.276   3.261
65306SOL    HW197751   9.888  10.239   3.281
65306SOL    HW297752   9.788  10.258   3.168
65307SOL     OW97753   3.076   7.102  11.043
65307SOL    HW197754   3.163   7.111  11.005
65307SOL    HW297755   3.036   7.029  10.995
65308SOL     OW97756   2.521   8.174   1.988
65308SOL    HW197757   2.540   8.083   2.009
65308SOL    HW297758   2.432   8.172   1.951
65309SOL     OW97759   7.726  11.478   2.120
65309SOL    HW197760   7.726  11.407   2.055
65309SOL    HW297761   7.811  11.471   2.163
65310SOL     OW97762  10.105  11.044  10.217
65310SOL    HW197763  10.043  10.984  10.258
65310SOL    HW297764  10.070  11.131  10.234
65311SOL     OW97765   7.977   7.374   9.846
65311SOL    HW197766   8.010   7.460   9.874
65311SOL    HW297767   7.882   7.380   9.858
65312SOL     OW97768   4.137  11.463   0.788
65312SOL    HW197769   4.187  11.409   0.726
65312SOL    HW297770   4.194  11.537   0.807
65313SOL     OW97771   6.223  12.176   3.510
65313SOL    HW197772   6.311  12.138   3.510
65313SOL    HW297773   6.182  12.139   3.432
65314SOL     OW97774   4.507   9.395  14.416
65314SOL    HW197775   4.423   9.392  14.462
65314SOL    HW297776   4.499   9.469  14.355
65315SOL     OW97777  14.556   8.266   1.335
65315SOL    HW197778  14.611   8.249   1.259
65315SOL    HW297779  14.470   8.230   1.312
65316SOL     OW97780  12.874   2.301  13.497
65316SOL    HW197781  12.936   2.231  13.517
65316SOL    HW297782  12.810   2.298  13.568
65317SOL     OW97783  11.690   2.883   5.640
65317SOL    HW197784  11.648   2.895   5.726
65317SOL    HW297785  11.702   2.789   5.633
65318SOL     OW97786  13.903   4.285   7.836
65318SOL    HW197787  13.901   4.231   7.757
65318SOL    HW297788  13.988   4.329   7.832
65319SOL     OW97789  13.452   3.532   4.416
65319SOL    HW197790  13.530   3.488   4.382
65319SOL    HW297791  13.478   3.623   4.424
65320SOL     OW97792  13.456  14.796  13.349
65320SOL    HW197793  13.420  14.822  13.264
65320SOL    HW297794  13.406  14.717  13.372
65321SOL     OW97795  12.764  11.510   2.362
65321SOL    HW197796  12.778  11.581   2.425
65321SOL    HW297797  12.851  11.470   2.352
65322SOL     OW97798  11.181   2.466   8.309
65322SOL    HW197799  11.228   2.532   8.361
65322SOL    HW297800  11.219   2.472   8.222
65323SOL     OW97801   8.591   8.765  13.273
65323SOL    HW197802   8.562   8.829  13.337
65323SOL    HW297803   8.511   8.735  13.231
65324SOL     OW97804   4.647   7.635   7.166
65324SOL    HW197805   4.639   7.680   7.082
65324SOL    HW297806   4.571   7.663   7.217
65325SOL     OW97807  12.888   8.378  11.470
65325SOL    HW197808  12.980   8.351  11.468
65325SOL    HW297809  12.890   8.470  11.444
65326SOL     OW97810  12.640   4.025  11.606
65326SOL    HW197811  12.572   3.990  11.663
65326SOL    HW297812  12.677   4.099  11.654
65327SOL     OW97813   2.845   5.620   1.580
65327SOL    HW197814   2.862   5.669   1.499
65327SOL    HW297815   2.915   5.555   1.583
65328SOL     OW97816  12.662   4.517   3.348
65328SOL    HW197817  12.635   4.500   3.439
65328SOL    HW297818  12.729   4.585   3.356
65329SOL     OW97819   7.805   8.232   8.531
65329SOL    HW197820   7.899   8.237   8.514
65329SOL    HW297821   7.797   8.233   8.626
65330SOL     OW97822   5.331  13.056  13.611
65330SOL    HW197823   5.308  13.121  13.677
65330SOL    HW297824   5.422  13.076  13.589
65331SOL     OW97825   7.835   2.310   0.809
65331SOL    HW197826   7.904   2.245   0.823
65331SOL    HW297827   7.758   2.257   0.786
65332SOL     OW97828   1.336  12.296  12.725
65332SOL    HW197829   1.241  12.305  12.729
65332SOL    HW297830   1.369  12.385  12.739
65333SOL     OW97831   2.226   6.776   9.735
65333SOL    HW197832   2.268   6.781   9.649
65333SOL    HW297833   2.152   6.716   9.721
65334SOL     OW97834   2.093   7.567   4.910
65334SOL    HW197835   2.170   7.574   4.966
65334SOL    HW297836   2.086   7.654   4.869
65335SOL     OW97837   8.465  10.818   4.551
65335SOL    HW197838   8.486  10.794   4.461
65335SOL    HW297839   8.378  10.782   4.566
65336SOL     OW97840   5.378  14.815   2.458
65336SOL    HW197841   5.365   0.003   2.385
65336SOL    HW297842   5.383  14.729   2.417
65337SOL     OW97843  10.965   6.030   4.603
65337SOL    HW197844  10.926   5.966   4.543
65337SOL    HW297845  10.934   6.004   4.689
65338SOL     OW97846   8.959   2.155   8.689
65338SOL    HW197847   9.038   2.190   8.730
65338SOL    HW297848   8.975   2.061   8.682
65339SOL     OW97849  14.531   5.373   1.147
65339SOL    HW197850  14.501   5.444   1.091
65339SOL    HW297851  14.592   5.323   1.093
65340SOL     OW97852   0.733   8.725   2.375
65340SOL    HW197853   0.676   8.724   2.452
65340SOL    HW297854   0.703   8.800   2.324
65341SOL     OW97855   0.231   1.181  14.217
65341SOL    HW197856   0.303   1.118  14.226
65341SOL    HW297857   0.275   1.265  14.208
65342SOL     OW97858  11.707   9.506   8.983
65342SOL    HW197859  11.782   9.565   8.976
65342SOL    HW297860  11.740   9.430   9.031
65343SOL     OW97861   9.804   4.426   9.718
65343SOL    HW197862   9.821   4.447   9.810
65343SOL    HW297863   9.749   4.498   9.687
65344SOL     OW97864  10.009  14.414   1.692
65344SOL    HW197865  10.083  14.376   1.739
65344SOL    HW297866   9.952  14.339   1.672
65345SOL     OW97867  12.209   9.779   7.226
65345SOL    HW197868  12.155   9.742   7.156
65345SOL    HW297869  12.253   9.704   7.265
65346SOL     OW97870   8.836   5.132   9.078
65346SOL    HW197871   8.784   5.052   9.083
65346SOL    HW297872   8.886   5.123   8.996
65347SOL     OW97873   6.397   4.113  10.440
65347SOL    HW197874   6.307   4.080  10.434
65347SOL    HW297875   6.444   4.069  10.369
65348SOL     OW97876  10.455  10.439   7.569
65348SOL    HW197877  10.527  10.500   7.552
65348SOL    HW297878  10.382  10.496   7.597
65349SOL     OW97879   7.028  13.272   2.518
65349SOL    HW197880   7.087  13.287   2.445
65349SOL    HW297881   7.077  13.298   2.596
65350SOL     OW97882   1.916  11.445  13.863
65350SOL    HW197883   1.860  11.483  13.930
65350SOL    HW297884   1.944  11.520  13.810
65351SOL     OW97885   9.501   1.113   4.706
65351SOL    HW197886   9.495   1.130   4.613
65351SOL    HW297887   9.412   1.124   4.738
65352SOL     OW97888   4.146  10.169   3.838
65352SOL    HW197889   4.203  10.212   3.902
65352SOL    HW297890   4.199  10.097   3.803
65353SOL     OW97891  11.909   0.212  12.048
65353SOL    HW197892  11.860   0.169  11.977
65353SOL    HW297893  11.971   0.269  12.003
65354SOL     OW97894   1.790  12.997   7.409
65354SOL    HW197895   1.801  12.990   7.314
65354SOL    HW297896   1.871  13.038   7.440
65355SOL     OW97897   4.986   2.380   3.507
65355SOL    HW197898   4.969   2.373   3.601
65355SOL    HW297899   5.075   2.344   3.496
65356SOL     OW97900   4.512   0.787  12.095
65356SOL    HW197901   4.502   0.771  12.001
65356SOL    HW297902   4.431   0.755  12.133
65357SOL     OW97903   0.323  12.459   4.112
65357SOL    HW197904   0.292  12.530   4.056
65357SOL    HW297905   0.297  12.485   4.200
65358SOL     OW97906   7.853   2.035   1.623
65358SOL    HW197907   7.823   2.114   1.577
65358SOL    HW297908   7.903   1.987   1.557
65359SOL     OW97909  11.219   7.962  12.201
65359SOL    HW197910  11.309   7.965  12.167
65359SOL    HW297911  11.227   7.913  12.283
65360SOL     OW97912  12.783   0.953   6.795
65360SOL    HW197913  12.731   0.927   6.871
65360SOL    HW297914  12.719   0.992   6.735
65361SOL     OW97915   7.207   5.078  13.584
65361SOL    HW197916   7.236   5.122  13.504
65361SOL    HW297917   7.212   5.144  13.652
65362SOL     OW97918   1.080   1.764   9.769
65362SOL    HW197919   1.031   1.704   9.825
65362SOL    HW297920   1.053   1.741   9.680
65363SOL     OW97921   5.666   7.982   6.045
65363SOL    HW197922   5.643   7.922   5.973
65363SOL    HW297923   5.759   7.965   6.060
65364SOL     OW97924   3.928   3.024   7.958
65364SOL    HW197925   3.897   2.986   7.876
65364SOL    HW297926   3.904   3.117   7.952
65365SOL     OW97927   8.003   8.125   1.717
65365SOL    HW197928   7.933   8.100   1.657
65365SOL    HW297929   8.021   8.046   1.768
65366SOL     OW97930   1.423   5.767  10.415
65366SOL    HW197931   1.502   5.803  10.456
65366SOL    HW297932   1.400   5.692  10.469
65367SOL     OW97933   8.082  12.424   8.142
65367SOL    HW197934   8.044  12.475   8.213
65367SOL    HW297935   8.167  12.395   8.177
65368SOL     OW97936   4.181   9.184   7.463
65368SOL    HW197937   4.155   9.094   7.447
65368SOL    HW297938   4.191   9.190   7.558
65369SOL     OW97939   3.961   9.386   1.422
65369SOL    HW197940   3.983   9.293   1.414
65369SOL    HW297941   3.996   9.412   1.507
65370SOL     OW97942  14.775  14.472   6.327
65370SOL    HW197943  14.867  14.473   6.302
65370SOL    HW297944  14.773  14.437   6.416
65371SOL     OW97945   1.287   3.469   3.560
65371SOL    HW197946   1.374   3.448   3.525
65371SOL    HW297947   1.234   3.488   3.482
65372SOL     OW97948  11.175   9.070   1.727
65372SOL    HW197949  11.086   9.057   1.696
65372SOL    HW297950  11.196   9.161   1.705
65373SOL     OW97951   0.382   0.427   8.783
65373SOL    HW197952   0.376   0.518   8.752
65373SOL    HW297953   0.366   0.433   8.877
65374SOL     OW97954   5.424  14.377  13.289
65374SOL    HW197955   5.362  14.305  13.277
65374SOL    HW297956   5.408  14.407  13.378
65375SOL     OW97957   1.531   3.627   4.547
65375SOL    HW197958   1.611   3.624   4.600
65375SOL    HW297959   1.489   3.709   4.573
65376SOL     OW97960  14.051   4.111   3.621
65376SOL    HW197961  14.069   4.093   3.714
65376SOL    HW297962  13.962   4.144   3.620
65377SOL     OW97963   6.238   2.977  13.235
65377SOL    HW197964   6.184   2.919  13.288
65377SOL    HW297965   6.315   2.995  13.289
65378SOL     OW97966   3.793  11.738   1.296
65378SOL    HW197967   3.865  11.682   1.269
65378SOL    HW297968   3.769  11.706   1.383
65379SOL     OW97969   1.145   0.197  14.020
65379SOL    HW197970   1.175   0.156  13.939
65379SOL    HW297971   1.139   0.126  14.083
65380SOL     OW97972  12.781  13.528   7.338
65380SOL    HW197973  12.738  13.610   7.361
65380SOL    HW297974  12.808  13.491   7.423
65381SOL     OW97975   5.217   4.081  12.305
65381SOL    HW197976   5.190   4.121  12.387
65381SOL    HW297977   5.144   4.025  12.280
65382SOL     OW97978   4.908   4.601  10.914
65382SOL    HW197979   4.990   4.559  10.887
65382SOL    HW297980   4.862   4.618  10.832
65383SOL     OW97981   2.113   9.331  14.394
65383SOL    HW197982   2.182   9.397  14.401
65383SOL    HW297983   2.073   9.329  14.481
65384SOL     OW97984  12.003   3.367  12.048
65384SOL    HW197985  11.911   3.377  12.023
65384SOL    HW297986  12.031   3.455  12.074
65385SOL     OW97987  11.319   5.216  12.255
65385SOL    HW197988  11.250   5.270  12.217
65385SOL    HW297989  11.293   5.126  12.233
65386SOL     OW97990   4.241  12.472   4.806
65386SOL    HW197991   4.252  12.566   4.820
65386SOL    HW297992   4.193  12.442   4.883
65387SOL     OW97993  11.320   0.517   2.987
65387SOL    HW197994  11.415   0.522   2.976
65387SOL    HW297995  11.291   0.608   2.989
65388SOL     OW97996   2.246  13.745  13.595
65388SOL    HW197997   2.227  13.652  13.608
65388SOL    HW297998   2.314  13.765  13.659
65389SOL     OW97999   5.427  14.314   2.696
65389SOL    HW198000   5.392  14.391   2.740
65389SOL    HW298001   5.389  14.318   2.608
65390SOL     OW98002   4.868  12.557   7.537
65390SOL    HW198003   4.859  12.635   7.482
65390SOL    HW298004   4.945  12.575   7.592
65391SOL     OW98005  12.497  14.654   5.617
65391SOL    HW198006  12.574  14.600   5.635
65391SOL    HW298007  12.532  14.743   5.607
65392SOL     OW98008   7.112  12.698   5.023
65392SOL    HW198009   7.149  12.767   4.968
65392SOL    HW298010   7.021  12.723   5.035
65393SOL     OW98011  13.558   6.634   0.884
65393SOL    HW198012  13.637   6.687   0.887
65393SOL    HW298013  13.562   6.589   0.800
65394SOL     OW98014   4.942   3.372  10.350
65394SOL    HW198015   4.872   3.356  10.413
65394SOL    HW298016   5.021   3.337  10.393
65395SOL     OW98017   2.195   3.448   8.158
65395SOL    HW198018   2.198   3.386   8.231
65395SOL    HW298019   2.271   3.505   8.172
65396SOL     OW98020  13.961   8.344  11.887
65396SOL    HW198021  13.926   8.402  11.954
65396SOL    HW298022  14.042   8.310  11.924
65397SOL     OW98023   9.616   1.402   8.611
65397SOL    HW198024   9.577   1.488   8.598
65397SOL    HW298025   9.710   1.419   8.617
65398SOL     OW98026  14.303   4.223   6.190
65398SOL    HW198027  14.398   4.212   6.195
65398SOL    HW298028  14.292   4.301   6.136
65399SOL     OW98029   1.372   4.372   7.302
65399SOL    HW198030   1.403   4.424   7.376
65399SOL    HW298031   1.417   4.410   7.226
65400SOL     OW98032   8.211   4.470   3.543
65400SOL    HW198033   8.283   4.524   3.510
65400SOL    HW298034   8.196   4.502   3.633
65401SOL     OW98035   6.250  13.527   7.350
65401SOL    HW198036   6.189  13.527   7.423
65401SOL    HW298037   6.231  13.608   7.302
65402SOL     OW98038   4.870  11.423  12.576
65402SOL    HW198039   4.814  11.498  12.598
65402SOL    HW298040   4.883  11.429  12.481
65403SOL     OW98041   4.692  12.047   0.417
65403SOL    HW198042   4.631  11.974   0.409
65403SOL    HW298043   4.657  12.100   0.488
65404SOL     OW98044  10.915   5.885   4.385
65404SOL    HW198045  10.872   5.939   4.318
65404SOL    HW298046  11.002   5.867   4.349
65405SOL     OW98047   5.527  14.073  11.067
65405SOL    HW198048   5.553  14.009  11.132
65405SOL    HW298049   5.439  14.047  11.041
65406SOL     OW98050  14.749   3.796   4.364
65406SOL    HW198051  14.812   3.777   4.294
65406SOL    HW298052  14.740   3.891   4.362
65407SOL     OW98053   4.900  12.908   2.247
65407SOL    HW198054   4.829  12.850   2.219
65407SOL    HW298055   4.893  12.983   2.188
65408SOL     OW98056   9.491  12.872  10.493
65408SOL    HW198057   9.508  12.883  10.587
65408SOL    HW298058   9.567  12.910  10.449
65409SOL     OW98059   8.193   6.352  11.732
65409SOL    HW198060   8.129   6.408  11.776
65409SOL    HW298061   8.271   6.408  11.724
65410SOL     OW98062   3.287   7.607   7.512
65410SOL    HW198063   3.383   7.602   7.506
65410SOL    HW298064   3.266   7.556   7.590
65411SOL     OW98065   7.945  12.624  14.724
65411SOL    HW198066   7.867  12.584  14.687
65411SOL    HW298067   7.917  12.712  14.749
65412SOL     OW98068   0.900   7.963  13.239
65412SOL    HW198069   0.942   7.876  13.237
65412SOL    HW298070   0.826   7.955  13.179
65413SOL     OW98071   0.098  10.702   0.868
65413SOL    HW198072   0.018  10.731   0.825
65413SOL    HW298073   0.068  10.650   0.942
65414SOL     OW98074   1.288   4.280   9.495
65414SOL    HW198075   1.276   4.249   9.585
65414SOL    HW298076   1.377   4.317   9.495
65415SOL     OW98077   6.112   1.239   0.537
65415SOL    HW198078   6.088   1.302   0.605
65415SOL    HW298079   6.067   1.158   0.563
65416SOL     OW98080   8.749   0.241   8.425
65416SOL    HW198081   8.700   0.315   8.460
65416SOL    HW298082   8.838   0.254   8.458
65417SOL     OW98083   0.702   9.040  10.952
65417SOL    HW198084   0.616   9.079  10.966
65417SOL    HW298085   0.717   9.051  10.858
65418SOL     OW98086  12.168   3.879  14.149
65418SOL    HW198087  12.211   3.939  14.088
65418SOL    HW298088  12.207   3.794  14.130
65419SOL     OW98089   2.080   8.135   5.368
65419SOL    HW198090   2.112   8.225   5.372
65419SOL    HW298091   2.160   8.082   5.360
65420SOL     OW98092  13.954  10.750  10.712
65420SOL    HW198093  13.987  10.784  10.795
65420SOL    HW298094  14.033  10.729  10.662
65421SOL     OW98095  12.274   5.146   1.640
65421SOL    HW198096  12.347   5.119   1.584
65421SOL    HW298097  12.313   5.159   1.727
65422SOL     OW98098   3.640   0.804  14.553
65422SOL    HW198099   3.585   0.733  14.518
65422SOL    HW298100   3.702   0.823  14.482
65423SOL     OW98101  12.697  10.974   2.739
65423SOL    HW198102  12.701  11.058   2.784
65423SOL    HW298103  12.719  10.909   2.806
65424SOL     OW98104   2.319   4.932   0.766
65424SOL    HW198105   2.240   4.877   0.763
65424SOL    HW298106   2.311   4.989   0.689
65425SOL     OW98107   0.137   9.968  10.976
65425SOL    HW198108   0.196  10.002  11.043
65425SOL    HW298109   0.076   9.912  11.024
65426SOL     OW98110  14.719   4.422   4.556
65426SOL    HW198111  14.785   4.359   4.527
65426SOL    HW298112  14.764   4.507   4.552
65427SOL     OW98113  12.966   9.112   3.616
65427SOL    HW198114  12.936   9.197   3.584
65427SOL    HW298115  12.885   9.064   3.635
65428SOL     OW98116   7.818   0.965   6.475
65428SOL    HW198117   7.833   0.871   6.461
65428SOL    HW298118   7.726   0.979   6.453
65429SOL     OW98119   0.888   8.513   6.341
65429SOL    HW198120   0.894   8.565   6.421
65429SOL    HW298121   0.837   8.436   6.365
65430SOL     OW98122  12.199  10.197   1.559
65430SOL    HW198123  12.182  10.291   1.561
65430SOL    HW298124  12.114  10.156   1.577
65431SOL     OW98125  12.782   2.636  11.358
65431SOL    HW198126  12.774   2.721  11.400
65431SOL    HW298127  12.704   2.628  11.303
65432SOL     OW98128  13.037  13.051  14.836
65432SOL    HW198129  12.944  13.051  14.812
65432SOL    HW298130  13.080  13.100  14.767
65433SOL     OW98131   5.414   8.390   2.433
65433SOL    HW198132   5.327   8.369   2.467
65433SOL    HW298133   5.410   8.484   2.413
65434SOL     OW98134  14.846  10.848   7.892
65434SOL    HW198135  14.830  10.825   7.983
65434SOL    HW298136   0.064  10.879   7.890
65435SOL     OW98137   8.254  11.187  14.557
65435SOL    HW198138   8.216  11.114  14.605
65435SOL    HW298139   8.349  11.179  14.572
65436SOL     OW98140  11.437   4.328  10.686
65436SOL    HW198141  11.449   4.297  10.776
65436SOL    HW298142  11.352   4.372  10.688
65437SOL     OW98143   6.284  13.584   5.997
65437SOL    HW198144   6.330  13.588   6.081
65437SOL    HW298145   6.260  13.492   5.987
65438SOL     OW98146   9.166  14.741   1.488
65438SOL    HW198147   9.089  14.796   1.471
65438SOL    HW298148   9.156  14.715   1.580
65439SOL     OW98149  10.599  13.408   2.933
65439SOL    HW198150  10.544  13.483   2.957
65439SOL    HW298151  10.682  13.424   2.978
65440SOL     OW98152  11.566   6.797   7.844
65440SOL    HW198153  11.540   6.876   7.890
65440SOL    HW298154  11.483   6.757   7.817
65441SOL     OW98155   7.602   5.565  11.183
65441SOL    HW198156   7.578   5.510  11.108
65441SOL    HW298157   7.692   5.593  11.165
65442SOL     OW98158   8.822   2.801   7.989
65442SOL    HW198159   8.890   2.736   8.007
65442SOL    HW298160   8.807   2.794   7.895
65443SOL     OW98161  11.178   8.205   2.546
65443SOL    HW198162  11.198   8.210   2.452
65443SOL    HW298163  11.113   8.135   2.553
65444SOL     OW98164   8.151   2.471   7.236
65444SOL    HW198165   8.200   2.402   7.280
65444SOL    HW298166   8.211   2.546   7.236
65445SOL     OW98167   2.780   3.950   8.210
65445SOL    HW198168   2.863   3.959   8.256
65445SOL    HW298169   2.721   4.011   8.254
65446SOL     OW98170  14.598   5.227   5.516
65446SOL    HW198171  14.610   5.260   5.427
65446SOL    HW298172  14.507   5.248   5.536
65447SOL     OW98173   5.792   0.049   7.916
65447SOL    HW198174   5.738  14.852   7.878
65447SOL    HW298175   5.880   0.032   7.882
65448SOL     OW98176   3.314  10.350  12.810
65448SOL    HW198177   3.274  10.344  12.896
65448SOL    HW298178   3.311  10.442  12.787
65449SOL     OW98179   0.316   8.743   3.611
65449SOL    HW198180   0.258   8.806   3.656
65449SOL    HW298181   0.309   8.663   3.664
65450SOL     OW98182   6.682   7.390   1.926
65450SOL    HW198183   6.684   7.353   2.015
65450SOL    HW298184   6.740   7.333   1.875
65451SOL     OW98185  14.262   7.526  11.319
65451SOL    HW198186  14.230   7.612  11.345
65451SOL    HW298187  14.294   7.538  11.229
65452SOL     OW98188   0.877   7.880  12.793
65452SOL    HW198189   0.940   7.810  12.776
65452SOL    HW298190   0.808   7.867  12.728
65453SOL     OW98191   9.505   2.181   5.638
65453SOL    HW198192   9.579   2.128   5.607
65453SOL    HW298193   9.453   2.196   5.559
65454SOL     OW98194   9.600   0.761   3.518
65454SOL    HW198195   9.572   0.748   3.609
65454SOL    HW298196   9.605   0.856   3.508
65455SOL     OW98197   6.956  14.609   9.787
65455SOL    HW198198   6.863  14.632   9.788
65455SOL    HW298199   6.970  14.570   9.701
65456SOL     OW98200   9.443   8.486   1.159
65456SOL    HW198201   9.350   8.465   1.148
65456SOL    HW298202   9.489   8.411   1.120
65457SOL     OW98203   6.385   0.213   8.353
65457SOL    HW198204   6.313   0.275   8.338
65457SOL    HW298205   6.412   0.229   8.444
65458SOL     OW98206   7.733  12.765   3.642
65458SOL    HW198207   7.710  12.701   3.575
65458SOL    HW298208   7.703  12.725   3.724
65459SOL     OW98209   6.996   4.102  11.057
65459SOL    HW198210   7.090   4.104  11.075
65459SOL    HW298211   6.963   4.186  11.092
65460SOL     OW98212   5.139   5.234   9.063
65460SOL    HW198213   5.155   5.284   8.983
65460SOL    HW298214   5.140   5.142   9.034
65461SOL     OW98215   9.291  12.796   1.231
65461SOL    HW198216   9.224  12.777   1.296
65461SOL    HW298217   9.314  12.888   1.245
65462SOL     OW98218   4.709  13.049   0.801
65462SOL    HW198219   4.659  13.041   0.720
65462SOL    HW298220   4.718  12.960   0.834
65463SOL     OW98221   1.326   8.577   0.992
65463SOL    HW198222   1.310   8.544   1.080
65463SOL    HW298223   1.275   8.518   0.935
65464SOL     OW98224   9.798   2.669   5.279
65464SOL    HW198225   9.741   2.592   5.269
65464SOL    HW298226   9.781   2.700   5.367
65465SOL     OW98227   8.084   5.605   0.150
65465SOL    HW198228   8.146   5.679   0.152
65465SOL    HW298229   8.071   5.587   0.057
65466SOL     OW98230  11.891  13.033  13.760
65466SOL    HW198231  11.843  12.984  13.827
65466SOL    HW298232  11.823  13.078  13.710
65467SOL     OW98233  13.539   9.206   2.380
65467SOL    HW198234  13.609   9.171   2.324
65467SOL    HW298235  13.585   9.262   2.443
65468SOL     OW98236   8.081   3.056   3.490
65468SOL    HW198237   8.115   3.050   3.400
65468SOL    HW298238   8.119   2.981   3.535
65469SOL     OW98239   9.828   0.396   1.540
65469SOL    HW198240   9.735   0.380   1.528
65469SOL    HW298241   9.871   0.335   1.479
65470SOL     OW98242   4.160   5.575  13.816
65470SOL    HW198243   4.168   5.546  13.907
65470SOL    HW298244   4.067   5.595  13.806
65471SOL     OW98245  14.161  12.386   3.340
65471SOL    HW198246  14.159  12.372   3.435
65471SOL    HW298247  14.178  12.480   3.330
65472SOL     OW98248  13.695  12.329   6.596
65472SOL    HW198249  13.642  12.251   6.616
65472SOL    HW298250  13.636  12.402   6.614
65473SOL     OW98251   2.739   5.888   9.327
65473SOL    HW198252   2.667   5.850   9.377
65473SOL    HW298253   2.816   5.839   9.355
65474SOL     OW98254  13.959   2.963   5.664
65474SOL    HW198255  14.025   3.011   5.713
65474SOL    HW298256  13.877   2.982   5.709
65475SOL     OW98257   5.435   0.145   0.573
65475SOL    HW198258   5.387   0.063   0.588
65475SOL    HW298259   5.392   0.183   0.496
65476SOL     OW98260   3.978  12.176  11.819
65476SOL    HW198261   3.892  12.215  11.829
65476SOL    HW298262   3.961  12.088  11.785
65477SOL     OW98263  12.686   9.395   5.219
65477SOL    HW198264  12.659   9.463   5.281
65477SOL    HW298265  12.699   9.317   5.273
65478SOL     OW98266  11.505   5.873   4.039
65478SOL    HW198267  11.476   5.885   3.949
65478SOL    HW298268  11.425   5.854   4.088
65479SOL     OW98269   5.120   4.868  11.710
65479SOL    HW198270   5.048   4.806  11.698
65479SOL    HW298271   5.099   4.940  11.650
65480SOL     OW98272   1.532   5.004   8.668
65480SOL    HW198273   1.568   4.992   8.580
65480SOL    HW298274   1.534   5.098   8.683
65481SOL     OW98275   8.760  10.532  13.269
65481SOL    HW198276   8.773  10.620  13.232
65481SOL    HW298277   8.771  10.545  13.363
65482SOL     OW98278   5.292  10.909  12.367
65482SOL    HW198279   5.384  10.930  12.384
65482SOL    HW298280   5.292  10.815  12.348
65483SOL     OW98281   7.782   7.461   2.441
65483SOL    HW198282   7.836   7.384   2.425
65483SOL    HW298283   7.810   7.524   2.375
65484SOL     OW98284   9.071   6.895  13.047
65484SOL    HW198285   9.040   6.821  12.995
65484SOL    HW298286   9.156   6.917  13.009
65485SOL     OW98287   8.501   6.960   4.380
65485SOL    HW198288   8.477   6.910   4.458
65485SOL    HW298289   8.418   6.996   4.348
65486SOL     OW98290   1.660   6.821   9.767
65486SOL    HW198291   1.650   6.846   9.675
65486SOL    HW298292   1.583   6.859   9.810
65487SOL     OW98293   0.451  14.070   8.633
65487SOL    HW198294   0.361  14.053   8.608
65487SOL    HW298295   0.465  14.163   8.612
65488SOL     OW98296   4.183  13.582   2.463
65488SOL    HW198297   4.156  13.587   2.555
65488SOL    HW298298   4.275  13.610   2.463
65489SOL     OW98299  12.831  14.318  14.108
65489SOL    HW198300  12.889  14.280  14.043
65489SOL    HW298301  12.782  14.385  14.061
65490SOL     OW98302  13.054  10.076  12.751
65490SOL    HW198303  13.131  10.113  12.709
65490SOL    HW298304  13.081  10.060  12.842
65491SOL     OW98305   0.205   1.989   9.998
65491SOL    HW198306   0.233   2.045   9.926
65491SOL    HW298307   0.236   2.033  10.076
65492SOL     OW98308  12.721   7.998  14.246
65492SOL    HW198309  12.672   7.926  14.285
65492SOL    HW298310  12.790   7.956  14.195
65493SOL     OW98311   0.489   4.026   3.333
65493SOL    HW198312   0.521   4.071   3.412
65493SOL    HW298313   0.561   3.968   3.309
65494SOL     OW98314   5.103   4.094   6.396
65494SOL    HW198315   5.044   4.135   6.333
65494SOL    HW298316   5.158   4.165   6.428
65495SOL     OW98317   7.206  11.941  13.277
65495SOL    HW198318   7.243  12.007  13.218
65495SOL    HW298319   7.269  11.934  13.348
65496SOL     OW98320  14.717   8.361   9.077
65496SOL    HW198321  14.757   8.420   9.013
65496SOL    HW298322  14.773   8.284   9.078
65497SOL     OW98323   4.337  13.721   8.957
65497SOL    HW198324   4.276  13.660   8.914
65497SOL    HW298325   4.283  13.797   8.979
65498SOL     OW98326   2.981   8.354   2.573
65498SOL    HW198327   2.954   8.262   2.560
65498SOL    HW298328   3.057   8.365   2.516
65499SOL     OW98329   8.710  13.548   6.766
65499SOL    HW198330   8.702  13.640   6.790
65499SOL    HW298331   8.764  13.549   6.687
65500SOL     OW98332   0.583   2.528  14.586
65500SOL    HW198333   0.530   2.474  14.645
65500SOL    HW298334   0.521   2.592  14.552
65501SOL     OW98335  11.178   0.097  13.558
65501SOL    HW198336  11.218   0.184  13.557
65501SOL    HW298337  11.158   0.080  13.650
65502SOL     OW98338   1.875   3.269   9.921
65502SOL    HW198339   1.923   3.291   9.842
65502SOL    HW298340   1.867   3.174   9.919
65503SOL     OW98341   7.549   8.008   8.264
65503SOL    HW198342   7.564   7.977   8.174
65503SOL    HW298343   7.620   7.967   8.315
65504SOL     OW98344  11.802  12.301  10.382
65504SOL    HW198345  11.837  12.362  10.447
65504SOL    HW298346  11.726  12.346  10.346
65505SOL     OW98347   0.881   4.965   7.849
65505SOL    HW198348   0.911   5.026   7.782
65505SOL    HW298349   0.817   5.015   7.900
65506SOL     OW98350   0.592   7.583   9.609
65506SOL    HW198351   0.540   7.622   9.538
65506SOL    HW298352   0.625   7.658   9.658
65507SOL     OW98353   2.537   3.659   4.692
65507SOL    HW198354   2.602   3.681   4.625
65507SOL    HW298355   2.558   3.718   4.765
65508SOL     OW98356   2.741   6.326   2.335
65508SOL    HW198357   2.692   6.244   2.343
65508SOL    HW298358   2.698   6.385   2.398
65509SOL     OW98359  10.782   2.769   0.639
65509SOL    HW198360  10.873   2.799   0.635
65509SOL    HW298361  10.782   2.699   0.705
65510SOL     OW98362   4.461   4.925  10.872
65510SOL    HW198363   4.546   4.886  10.855
65510SOL    HW298364   4.401   4.877  10.815
65511SOL     OW98365   3.286  10.386  13.368
65511SOL    HW198366   3.195  10.413  13.355
65511SOL    HW298367   3.321  10.379  13.279
65512SOL     OW98368   5.902   4.825   3.353
65512SOL    HW198369   5.882   4.917   3.370
65512SOL    HW298370   5.997   4.823   3.340
65513SOL     OW98371  14.057   8.552  10.552
65513SOL    HW198372  14.006   8.560  10.471
65513SOL    HW298373  14.095   8.465  10.548
65514SOL     OW98374   9.324   7.155  12.243
65514SOL    HW198375   9.398   7.104  12.276
65514SOL    HW298376   9.270   7.171  12.321
65515SOL     OW98377   5.000  12.127   9.590
65515SOL    HW198378   4.953  12.146   9.671
65515SOL    HW298379   5.093  12.134   9.613
65516SOL     OW98380   4.336   5.911  10.058
65516SOL    HW198381   4.338   5.951   9.971
65516SOL    HW298382   4.381   5.827  10.047
65517SOL     OW98383   0.584  12.054   3.414
65517SOL    HW198384   0.631  12.067   3.497
65517SOL    HW298385   0.492  12.069   3.437
65518SOL     OW98386   4.045   5.153  12.280
65518SOL    HW198387   3.981   5.110  12.224
65518SOL    HW298388   4.098   5.081  12.316
65519SOL     OW98389   7.518   2.005  14.285
65519SOL    HW198390   7.610   2.010  14.310
65519SOL    HW298391   7.496   1.912  14.292
65520SOL     OW98392   1.470   0.372   7.925
65520SOL    HW198393   1.396   0.335   7.971
65520SOL    HW298394   1.520   0.419   7.992
65521SOL     OW98395   8.765   0.472   7.639
65521SOL    HW198396   8.854   0.446   7.618
65521SOL    HW298397   8.720   0.476   7.554
65522SOL     OW98398  12.866   0.747   1.324
65522SOL    HW198399  12.858   0.663   1.371
65522SOL    HW298400  12.923   0.800   1.379
65523SOL     OW98401  13.604   4.279   2.441
65523SOL    HW198402  13.635   4.267   2.352
65523SOL    HW298403  13.648   4.211   2.492
65524SOL     OW98404  14.077   8.222   3.224
65524SOL    HW198405  14.033   8.292   3.273
65524SOL    HW298406  14.033   8.221   3.139
65525SOL     OW98407   0.361   2.435  12.601
65525SOL    HW198408   0.325   2.415  12.688
65525SOL    HW298409   0.287   2.426  12.541
65526SOL     OW98410   0.463   4.555   7.435
65526SOL    HW198411   0.381   4.604   7.425
65526SOL    HW298412   0.531   4.618   7.413
65527SOL     OW98413   8.071   3.694   6.884
65527SOL    HW198414   8.136   3.757   6.915
65527SOL    HW298415   8.028   3.662   6.963
65528SOL     OW98416   8.689   0.495  12.564
65528SOL    HW198417   8.594   0.486  12.568
65528SOL    HW298418   8.717   0.434  12.496
65529SOL     OW98419   9.190   6.597   3.048
65529SOL    HW198420   9.161   6.506   3.054
65529SOL    HW298421   9.222   6.618   3.136
65530SOL     OW98422   1.805   7.570   1.036
65530SOL    HW198423   1.737   7.572   1.104
65530SOL    HW298424   1.810   7.478   1.010
65531SOL     OW98425  10.971  10.755  13.744
65531SOL    HW198426  10.944  10.846  13.733
65531SOL    HW298427  10.889  10.706  13.752
65532SOL     OW98428  10.833   7.006   7.243
65532SOL    HW198429  10.780   7.052   7.307
65532SOL    HW298430  10.903   7.068   7.220
65533SOL     OW98431  13.958   4.658   0.989
65533SOL    HW198432  13.868   4.628   0.975
65533SOL    HW298433  13.951   4.753   0.994
65534SOL     OW98434  12.331   7.983  10.624
65534SOL    HW198435  12.386   8.058  10.604
65534SOL    HW298436  12.247   8.020  10.652
65535SOL     OW98437   6.777   4.449   4.901
65535SOL    HW198438   6.828   4.530   4.906
65535SOL    HW298439   6.749   4.433   4.992
65536SOL     OW98440   5.564   8.218   8.196
65536SOL    HW198441   5.520   8.225   8.111
65536SOL    HW298442   5.520   8.145   8.239
65537SOL     OW98443   5.700   6.331   5.571
65537SOL    HW198444   5.650   6.288   5.501
65537SOL    HW298445   5.706   6.265   5.640
65538SOL     OW98446   8.414   1.723   6.074
65538SOL    HW198447   8.456   1.719   6.160
65538SOL    HW298448   8.332   1.769   6.089
65539SOL     OW98449   4.789   6.324   2.757
65539SOL    HW198450   4.844   6.388   2.803
65539SOL    HW298451   4.707   6.370   2.741
65540SOL     OW98452  13.004   5.783   8.272
65540SOL    HW198453  13.070   5.803   8.206
65540SOL    HW298454  12.953   5.863   8.280
65541SOL     OW98455  12.840  11.842   5.019
65541SOL    HW198456  12.861  11.823   5.111
65541SOL    HW298457  12.749  11.812   5.009
65542SOL     OW98458   1.169   9.939   4.215
65542SOL    HW198459   1.214  10.003   4.159
65542SOL    HW298460   1.202   9.958   4.303
65543SOL     OW98461   9.093  10.441   1.074
65543SOL    HW198462   9.067  10.452   1.166
65543SOL    HW298463   9.134  10.524   1.051
65544SOL     OW98464   1.823   8.851   6.838
65544SOL    HW198465   1.876   8.921   6.799
65544SOL    HW298466   1.853   8.771   6.793
65545SOL     OW98467  13.344   1.887  10.430
65545SOL    HW198468  13.322   1.980  10.439
65545SOL    HW298469  13.432   1.880  10.467
65546SOL     OW98470   3.902   8.649   6.787
65546SOL    HW198471   3.861   8.580   6.840
65546SOL    HW298472   3.869   8.731   6.823
65547SOL     OW98473   1.133   2.261  11.769
65547SOL    HW198474   1.150   2.209  11.691
65547SOL    HW298475   1.189   2.338  11.760
65548SOL     OW98476  12.810   5.012  14.226
65548SOL    HW198477  12.747   4.956  14.272
65548SOL    HW298478  12.892   4.962  14.227
65549SOL     OW98479   7.464  12.839   1.626
65549SOL    HW198480   7.464  12.929   1.591
65549SOL    HW298481   7.389  12.798   1.583
65550SOL     OW98482  10.386   2.815   2.610
65550SOL    HW198483  10.466   2.767   2.635
65550SOL    HW298484  10.338   2.824   2.693
65551SOL     OW98485   6.828  12.412   3.885
65551SOL    HW198486   6.811  12.324   3.917
65551SOL    HW298487   6.866  12.458   3.959
65552SOL     OW98488   7.235   7.369   6.832
65552SOL    HW198489   7.222   7.397   6.741
65552SOL    HW298490   7.155   7.323   6.855
65553SOL     OW98491   0.303   0.200  14.015
65553SOL    HW198492   0.347   0.274  14.059
65553SOL    HW298493   0.366   0.128  14.022
65554SOL     OW98494  10.809  10.190   7.971
65554SOL    HW198495  10.837  10.196   7.880
65554SOL    HW298496  10.720  10.154   7.966
65555SOL     OW98497  13.830   8.226   8.146
65555SOL    HW198498  13.824   8.298   8.209
65555SOL    HW298499  13.743   8.186   8.148
65556SOL     OW98500   0.670   9.257   0.346
65556SOL    HW198501   0.593   9.313   0.359
65556SOL    HW298502   0.661   9.188   0.411
65557SOL     OW98503   5.239  13.271  11.451
65557SOL    HW198504   5.292  13.282  11.530
65557SOL    HW298505   5.276  13.334  11.389
65558SOL     OW98506   2.678  12.111   3.795
65558SOL    HW198507   2.764  12.100   3.835
65558SOL    HW298508   2.661  12.026   3.752
65559SOL     OW98509   7.886  10.895   7.984
65559SOL    HW198510   7.923  10.976   7.950
65559SOL    HW298511   7.861  10.916   8.074
65560SOL     OW98512  14.691   4.242   8.311
65560SOL    HW198513  14.689   4.159   8.360
65560SOL    HW298514  14.745   4.223   8.235
65561SOL     OW98515   4.271   8.022   0.599
65561SOL    HW198516   4.250   8.034   0.692
65561SOL    HW298517   4.344   7.961   0.598
65562SOL     OW98518   8.258   0.999   3.437
65562SOL    HW198519   8.182   1.055   3.425
65562SOL    HW298520   8.330   1.047   3.396
65563SOL     OW98521  14.856  10.914   1.692
65563SOL    HW198522   0.006  10.989   1.637
65563SOL    HW298523  14.775  10.941   1.737
65564SOL     OW98524   7.332   6.558   3.156
65564SOL    HW198525   7.263   6.533   3.094
65564SOL    HW298526   7.409   6.571   3.101
65565SOL     OW98527  11.067   6.953   1.461
65565SOL    HW198528  11.137   7.018   1.457
65565SOL    HW298529  10.986   7.004   1.465
65566SOL     OW98530   5.243   0.565   5.002
65566SOL    HW198531   5.211   0.479   5.028
65566SOL    HW298532   5.262   0.610   5.084
65567SOL     OW98533   5.610   8.520  13.427
65567SOL    HW198534   5.629   8.452  13.362
65567SOL    HW298535   5.525   8.556  13.400
65568SOL     OW98536  14.687   0.657   2.095
65568SOL    HW198537  14.735   0.637   2.175
65568SOL    HW298538  14.688   0.753   2.089
65569SOL     OW98539  10.789  10.639   1.054
65569SOL    HW198540  10.805  10.545   1.047
65569SOL    HW298541  10.866  10.673   1.099
65570SOL     OW98542   7.683   0.805   3.607
65570SOL    HW198543   7.600   0.824   3.651
65570SOL    HW298544   7.725   0.739   3.661
65571SOL     OW98545   1.175   8.314  14.096
65571SOL    HW198546   1.165   8.220  14.081
65571SOL    HW298547   1.137   8.356  14.019
65572SOL     OW98548   2.315   9.907   4.191
65572SOL    HW198549   2.365   9.830   4.216
65572SOL    HW298550   2.313   9.905   4.095
65573SOL     OW98551   1.516   0.810   6.172
65573SOL    HW198552   1.447   0.877   6.175
65573SOL    HW298553   1.474   0.731   6.206
65574SOL     OW98554   4.358   6.639  10.921
65574SOL    HW198555   4.414   6.692  10.863
65574SOL    HW298556   4.287   6.609  10.864
65575SOL     OW98557   5.999   8.701  11.149
65575SOL    HW198558   6.011   8.674  11.058
65575SOL    HW298559   6.071   8.761  11.166
65576SOL     OW98560   5.755   6.711   8.058
65576SOL    HW198561   5.742   6.782   8.121
65576SOL    HW298562   5.792   6.755   7.981
65577SOL     OW98563   3.259   8.137   3.088
65577SOL    HW198564   3.259   8.107   2.997
65577SOL    HW298565   3.330   8.087   3.129
65578SOL     OW98566   2.647  13.251   4.132
65578SOL    HW198567   2.735  13.243   4.170
65578SOL    HW298568   2.627  13.345   4.138
65579SOL     OW98569   0.547  13.878   6.795
65579SOL    HW198570   0.633  13.918   6.783
65579SOL    HW298571   0.508  13.927   6.867
65580SOL     OW98572   7.185  10.814   2.951
65580SOL    HW198573   7.208  10.769   2.870
65580SOL    HW298574   7.174  10.744   3.015
65581SOL     OW98575   7.922  13.819   7.381
65581SOL    HW198576   7.918  13.913   7.398
65581SOL    HW298577   7.980  13.785   7.449
65582SOL     OW98578   4.692   6.492   8.722
65582SOL    HW198579   4.630   6.497   8.795
65582SOL    HW298580   4.778   6.490   8.764
65583SOL     OW98581   8.123   6.993   2.907
65583SOL    HW198582   8.112   7.088   2.904
65583SOL    HW298583   8.058   6.962   2.970
65584SOL     OW98584   3.431   6.678   0.156
65584SOL    HW198585   3.357   6.737   0.137
65584SOL    HW298586   3.444   6.687   0.250
65585SOL     OW98587   8.769   6.309   8.780
65585SOL    HW198588   8.736   6.246   8.715
65585SOL    HW298589   8.718   6.388   8.764
65586SOL     OW98590   8.630   1.536  14.097
65586SOL    HW198591   8.668   1.468  14.153
65586SOL    HW298592   8.694   1.550  14.028
65587SOL     OW98593   1.929   9.962  10.030
65587SOL    HW198594   1.853   9.918   9.991
65587SOL    HW298595   1.991   9.972   9.957
65588SOL     OW98596  13.861   1.794  10.623
65588SOL    HW198597  13.797   1.737  10.580
65588SOL    HW298598  13.855   1.877  10.576
65589SOL     OW98599   1.030   1.662   6.740
65589SOL    HW198600   1.119   1.697   6.745
65589SOL    HW298601   0.975   1.729   6.780
65590SOL     OW98602   4.731   2.770  10.233
65590SOL    HW198603   4.751   2.856  10.270
65590SOL    HW298604   4.722   2.713  10.309
65591SOL     OW98605   2.915   6.185   6.346
65591SOL    HW198606   2.980   6.230   6.400
65591SOL    HW298607   2.854   6.254   6.320
65592SOL     OW98608   7.812   1.639   7.583
65592SOL    HW198609   7.840   1.636   7.491
65592SOL    HW298610   7.838   1.554   7.618
65593SOL     OW98611   4.705  13.623  13.074
65593SOL    HW198612   4.676  13.647  12.986
65593SOL    HW298613   4.705  13.706  13.122
65594SOL     OW98614   4.225  11.390  10.114
65594SOL    HW198615   4.195  11.365  10.027
65594SOL    HW298616   4.247  11.307  10.157
65595SOL     OW98617   6.102  12.507   8.738
65595SOL    HW198618   6.122  12.464   8.655
65595SOL    HW298619   6.106  12.437   8.803
65596SOL     OW98620   7.668   3.599   6.346
65596SOL    HW198621   7.646   3.673   6.290
65596SOL    HW298622   7.584   3.556   6.363
65597SOL     OW98623   1.294  14.293  13.384
65597SOL    HW198624   1.247  14.321  13.305
65597SOL    HW298625   1.360  14.361  13.398
65598SOL     OW98626  11.798  12.514   8.399
65598SOL    HW198627  11.826  12.603   8.423
65598SOL    HW298628  11.731  12.528   8.331
65599SOL     OW98629  12.229  12.182   0.949
65599SOL    HW198630  12.134  12.178   0.958
65599SOL    HW298631  12.252  12.273   0.970
65600SOL     OW98632   7.082   1.266   5.954
65600SOL    HW198633   7.043   1.253   6.040
65600SOL    HW298634   7.022   1.325   5.908
65601SOL     OW98635   5.494   8.182   7.243
65601SOL    HW198636   5.418   8.236   7.265
65601SOL    HW298637   5.494   8.179   7.147
65602SOL     OW98638  14.771   4.525   9.983
65602SOL    HW198639  14.861   4.494   9.974
65602SOL    HW298640  14.720   4.470   9.924
65603SOL     OW98641   2.558   0.103   7.439
65603SOL    HW198642   2.476   0.076   7.397
65603SOL    HW298643   2.537   0.185   7.483
65604SOL     OW98644  13.140   0.040  11.857
65604SOL    HW198645  13.182   0.052  11.942
65604SOL    HW298646  13.107  14.823  11.859
65605SOL     OW98647   4.385   3.921  10.637
65605SOL    HW198648   4.414   3.977  10.708
65605SOL    HW298649   4.465   3.902  10.587
65606SOL     OW98650   3.009   2.064   7.944
65606SOL    HW198651   2.936   2.078   8.005
65606SOL    HW298652   3.085   2.050   8.000
65607SOL     OW98653  10.414   7.683   0.561
65607SOL    HW198654  10.384   7.760   0.610
65607SOL    HW298655  10.508   7.679   0.579
65608SOL     OW98656   4.626  12.970   5.843
65608SOL    HW198657   4.668  13.006   5.921
65608SOL    HW298658   4.683  12.898   5.817
65609SOL     OW98659   5.968   4.485  12.809
65609SOL    HW198660   6.045   4.433  12.789
65609SOL    HW298661   5.937   4.451  12.893
65610SOL     OW98662  10.959   4.207   2.527
65610SOL    HW198663  10.991   4.214   2.437
65610SOL    HW298664  10.961   4.297   2.560
65611SOL     OW98665   9.967   8.743   8.231
65611SOL    HW198666   9.930   8.671   8.179
65611SOL    HW298667   9.975   8.815   8.169
65612SOL     OW98668  12.844   8.380   0.306
65612SOL    HW198669  12.758   8.397   0.268
65612SOL    HW298670  12.844   8.287   0.327
65613SOL     OW98671  11.556  10.898   8.823
65613SOL    HW198672  11.505  10.853   8.890
65613SOL    HW298673  11.556  10.990   8.849
65614SOL     OW98674   2.021   0.941  10.793
65614SOL    HW198675   1.995   0.925  10.884
65614SOL    HW298676   2.088   0.875  10.775
65615SOL     OW98677  14.060   2.878   3.482
65615SOL    HW198678  14.150   2.883   3.515
65615SOL    HW298679  14.040   2.967   3.454
65616SOL     OW98680   6.908  11.124  11.207
65616SOL    HW198681   6.958  11.142  11.127
65616SOL    HW298682   6.947  11.043  11.241
65617SOL     OW98683   7.754   4.704  13.861
65617SOL    HW198684   7.833   4.658  13.832
65617SOL    HW298685   7.728   4.659  13.942
65618SOL     OW98686  14.767   3.646   2.711
65618SOL    HW198687  14.756   3.729   2.758
65618SOL    HW298688  14.715   3.583   2.761
65619SOL     OW98689   0.420   7.341   6.808
65619SOL    HW198690   0.457   7.421   6.845
65619SOL    HW298691   0.335   7.368   6.774
65620SOL     OW98692  13.159   4.509  14.743
65620SOL    HW198693  13.119   4.495  14.657
65620SOL    HW298694  13.252   4.521  14.724
65621SOL     OW98695  13.993  11.101   9.498
65621SOL    HW198696  14.006  11.179   9.553
65621SOL    HW298697  14.038  11.122   9.416
65622SOL     OW98698   0.982   2.918   4.059
65622SOL    HW198699   0.935   2.940   4.140
65622SOL    HW298700   0.950   2.982   3.995
65623SOL     OW98701  14.445   4.991   9.141
65623SOL    HW198702  14.500   4.959   9.213
65623SOL    HW298703  14.357   4.959   9.162
65624SOL     OW98704  11.982  13.292   4.464
65624SOL    HW198705  11.935  13.374   4.452
65624SOL    HW298706  11.974  13.272   4.558
65625SOL     OW98707   4.775   8.001   5.158
65625SOL    HW198708   4.689   8.000   5.117
65625SOL    HW298709   4.764   7.951   5.239
65626SOL     OW98710   5.925  10.593   5.739
65626SOL    HW198711   5.987  10.547   5.683
65626SOL    HW298712   5.885  10.524   5.792
65627SOL     OW98713   4.727   7.890  14.560
65627SOL    HW198714   4.761   7.930  14.641
65627SOL    HW298715   4.796   7.830  14.532
65628SOL     OW98716  13.961  13.128  12.717
65628SOL    HW198717  13.939  13.143  12.625
65628SOL    HW298718  14.035  13.187  12.734
65629SOL     OW98719   5.504   8.282  14.545
65629SOL    HW198720   5.570   8.233  14.495
65629SOL    HW298721   5.421   8.243  14.520
65630SOL     OW98722  13.534  10.048   2.567
65630SOL    HW198723  13.611  10.097   2.593
65630SOL    HW298724  13.491  10.024   2.650
65631SOL     OW98725   0.627  12.340  12.544
65631SOL    HW198726   0.605  12.262  12.596
65631SOL    HW298727   0.657  12.403  12.609
65632SOL     OW98728  14.672   4.029  12.623
65632SOL    HW198729  14.596   3.992  12.668
65632SOL    HW298730  14.676   4.120  12.653
65633SOL     OW98731   7.465   8.155  11.613
65633SOL    HW198732   7.402   8.225  11.625
65633SOL    HW298733   7.461   8.105  11.695
65634SOL     OW98734   0.918   7.073   1.594
65634SOL    HW198735   0.941   7.059   1.502
65634SOL    HW298736   0.908   6.984   1.630
65635SOL     OW98737   9.709  12.422  13.386
65635SOL    HW198738   9.651  12.349  13.364
65635SOL    HW298739   9.661  12.471  13.452
65636SOL     OW98740  12.167   0.036  12.462
65636SOL    HW198741  12.110   0.033  12.384
65636SOL    HW298742  12.253   0.060  12.428
65637SOL     OW98743   8.618   7.076   7.727
65637SOL    HW198744   8.585   6.993   7.762
65637SOL    HW298745   8.667   7.114   7.799
65638SOL     OW98746   4.945   0.830   8.143
65638SOL    HW198747   5.018   0.770   8.157
65638SOL    HW298748   4.959   0.900   8.207
65639SOL     OW98749   6.576   5.851   9.443
65639SOL    HW198750   6.515   5.885   9.509
65639SOL    HW298751   6.655   5.904   9.454
65640SOL     OW98752   9.196   8.062   7.703
65640SOL    HW198753   9.166   7.985   7.655
65640SOL    HW298754   9.219   8.029   7.789
65641SOL     OW98755   2.153   4.538   5.054
65641SOL    HW198756   2.157   4.532   4.958
65641SOL    HW298757   2.205   4.615   5.076
65642SOL     OW98758   8.959   3.492   2.164
65642SOL    HW198759   8.987   3.552   2.233
65642SOL    HW298760   8.938   3.411   2.210
65643SOL     OW98761   9.864   3.042   6.315
65643SOL    HW198762   9.946   3.090   6.306
65643SOL    HW298763   9.864   3.011   6.405
65644SOL     OW98764   2.313   0.783   3.273
65644SOL    HW198765   2.321   0.860   3.217
65644SOL    HW298766   2.391   0.731   3.255
65645SOL     OW98767   8.995   2.183   0.938
65645SOL    HW198768   9.022   2.181   0.846
65645SOL    HW298769   8.981   2.091   0.961
65646SOL     OW98770  10.880   2.978   1.464
65646SOL    HW198771  10.799   2.967   1.514
65646SOL    HW298772  10.912   2.889   1.450
65647SOL     OW98773  13.664   8.121   0.540
65647SOL    HW198774  13.743   8.115   0.487
65647SOL    HW298775  13.696   8.127   0.630
65648SOL     OW98776   4.276  10.438   6.936
65648SOL    HW198777   4.313  10.350   6.936
65648SOL    HW298778   4.346  10.493   6.973
65649SOL     OW98779  10.579   1.228  12.624
65649SOL    HW198780  10.645   1.239  12.556
65649SOL    HW298781  10.598   1.143  12.663
65650SOL     OW98782   8.198   4.706   5.214
65650SOL    HW198783   8.235   4.723   5.127
65650SOL    HW298784   8.126   4.769   5.222
65651SOL     OW98785   5.042   1.308  13.653
65651SOL    HW198786   5.089   1.354  13.723
65651SOL    HW298787   5.012   1.378  13.595
65652SOL     OW98788  14.338   5.908  12.452
65652SOL    HW198789  14.264   5.921  12.512
65652SOL    HW298790  14.390   5.838  12.493
65653SOL     OW98791   5.966   2.592   2.765
65653SOL    HW198792   5.958   2.640   2.848
65653SOL    HW298793   5.909   2.516   2.776
65654SOL     OW98794   7.919   4.517  13.367
65654SOL    HW198795   7.990   4.575  13.397
65654SOL    HW298796   7.850   4.576  13.340
65655SOL     OW98797   5.647   5.995   4.788
65655SOL    HW198798   5.671   5.917   4.738
65655SOL    HW298799   5.726   6.018   4.836
65656SOL     OW98800   3.325   4.876   4.661
65656SOL    HW198801   3.278   4.951   4.697
65656SOL    HW298802   3.409   4.911   4.632
65657SOL     OW98803  10.957  13.395   5.713
65657SOL    HW198804  10.996  13.457   5.651
65657SOL    HW298805  10.918  13.450   5.781
65658SOL     OW98806  12.111   4.112   5.337
65658SOL    HW198807  12.096   4.098   5.243
65658SOL    HW298808  12.184   4.175   5.340
65659SOL     OW98809  14.104  13.059  13.683
65659SOL    HW198810  14.055  12.987  13.645
65659SOL    HW298811  14.149  13.021  13.758
65660SOL     OW98812   5.594  12.672  11.788
65660SOL    HW198813   5.592  12.759  11.749
65660SOL    HW298814   5.534  12.678  11.862
65661SOL     OW98815  12.092   1.364  14.674
65661SOL    HW198816  12.120   1.307  14.603
65661SOL    HW298817  12.020   1.317  14.715
65662SOL     OW98818  14.317   0.710   5.439
65662SOL    HW198819  14.270   0.654   5.378
65662SOL    HW298820  14.280   0.797   5.426
65663SOL     OW98821   7.082   1.215   1.693
65663SOL    HW198822   7.133   1.293   1.715
65663SOL    HW298823   7.018   1.245   1.629
65664SOL     OW98824  13.663   0.782   3.852
65664SOL    HW198825  13.636   0.869   3.820
65664SOL    HW298826  13.740   0.800   3.906
65665SOL     OW98827   1.891   0.378   2.897
65665SOL    HW198828   1.868   0.285   2.897
65665SOL    HW298829   1.933   0.392   2.982
65666SOL     OW98830   6.576   1.629   6.332
65666SOL    HW198831   6.663   1.629   6.372
65666SOL    HW298832   6.537   1.712   6.359
65667SOL     OW98833   6.908  11.305   2.881
65667SOL    HW198834   6.905  11.329   2.788
65667SOL    HW298835   6.971  11.232   2.884
65668SOL     OW98836   1.289   6.608   0.238
65668SOL    HW198837   1.275   6.673   0.170
65668SOL    HW298838   1.205   6.602   0.283
65669SOL     OW98839  12.227  14.637   5.650
65669SOL    HW198840  12.222  14.692   5.728
65669SOL    HW298841  12.321  14.631   5.631
65670SOL     OW98842   5.461   3.013   0.220
65670SOL    HW198843   5.527   3.008   0.150
65670SOL    HW298844   5.409   2.933   0.209
65671SOL     OW98845   0.331   1.028  14.635
65671SOL    HW198846   0.370   1.084  14.567
65671SOL    HW298847   0.389   0.952  14.638
65672SOL     OW98848  13.311  11.379  10.370
65672SOL    HW198849  13.401  11.349  10.361
65672SOL    HW298850  13.303  11.450  10.306
65673SOL     OW98851   3.750  10.690   4.753
65673SOL    HW198852   3.686  10.629   4.791
65673SOL    HW298853   3.792  10.731   4.829
65674SOL     OW98854  11.103  12.064   2.836
65674SOL    HW198855  11.186  12.031   2.803
65674SOL    HW298856  11.116  12.071   2.931
65675SOL     OW98857   0.080  10.334  14.171
65675SOL    HW198858   0.057  10.337  14.264
65675SOL    HW298859  14.868  10.331  14.126
65676SOL     OW98860   4.376  11.523   0.233
65676SOL    HW198861   4.433  11.547   0.306
65676SOL    HW298862   4.300  11.481   0.274
65677SOL     OW98863   5.492  11.233  13.357
65677SOL    HW198864   5.552  11.178  13.306
65677SOL    HW298865   5.449  11.172  13.417
65678SOL     OW98866   7.210   5.636   9.378
65678SOL    HW198867   7.158   5.668   9.452
65678SOL    HW298868   7.160   5.659   9.301
65679SOL     OW98869  12.805  10.533   8.749
65679SOL    HW198870  12.836  10.544   8.660
65679SOL    HW298871  12.812  10.439   8.765
65680SOL     OW98872   1.959   6.559   7.684
65680SOL    HW198873   1.977   6.653   7.672
65680SOL    HW298874   2.017   6.532   7.756
65681SOL     OW98875   3.930   7.696  10.890
65681SOL    HW198876   3.913   7.651  10.807
65681SOL    HW298877   3.865   7.660  10.950
65682SOL     OW98878   0.855   9.765   3.708
65682SOL    HW198879   0.839   9.672   3.722
65682SOL    HW298880   0.775   9.798   3.666
65683SOL     OW98881   5.004   7.872   3.211
65683SOL    HW198882   5.060   7.919   3.150
65683SOL    HW298883   4.977   7.793   3.164
65684SOL     OW98884   6.360  11.980   2.843
65684SOL    HW198885   6.294  11.986   2.774
65684SOL    HW298886   6.444  11.987   2.797
65685SOL     OW98887   4.560   6.304   4.378
65685SOL    HW198888   4.514   6.331   4.458
65685SOL    HW298889   4.653   6.314   4.400
65686SOL     OW98890   7.158   8.327  10.047
65686SOL    HW198891   7.125   8.286  10.128
65686SOL    HW298892   7.113   8.412  10.044
65687SOL     OW98893  13.758  12.047  11.893
65687SOL    HW198894  13.843  12.004  11.889
65687SOL    HW298895  13.745  12.066  11.986
65688SOL     OW98896   2.389  11.243   5.119
65688SOL    HW198897   2.392  11.208   5.029
65688SOL    HW298898   2.455  11.192   5.166
65689SOL     OW98899  13.976   6.535  10.946
65689SOL    HW198900  14.013   6.479  10.877
65689SOL    HW298901  13.888   6.500  10.960
65690SOL     OW98902   5.118  13.699   5.060
65690SOL    HW198903   5.046  13.697   4.997
65690SOL    HW298904   5.126  13.791   5.085
65691SOL     OW98905  13.452   8.941  13.027
65691SOL    HW198906  13.376   8.990  12.996
65691SOL    HW298907  13.416   8.881  13.093
65692SOL     OW98908   9.538   9.400   6.695
65692SOL    HW198909   9.611   9.339   6.707
65692SOL    HW298910   9.478   9.354   6.636
65693SOL     OW98911   5.253  12.104   6.944
65693SOL    HW198912   5.294  12.183   6.910
65693SOL    HW298913   5.244  12.047   6.867
65694SOL     OW98914  10.512   6.421   8.236
65694SOL    HW198915  10.569   6.484   8.281
65694SOL    HW298916  10.424   6.443   8.267
65695SOL     OW98917   5.742   2.152   0.192
65695SOL    HW198918   5.807   2.091   0.226
65695SOL    HW298919   5.732   2.218   0.260
65696SOL     OW98920  11.355  13.067  11.378
65696SOL    HW198921  11.275  13.116  11.361
65696SOL    HW298922  11.351  13.045  11.471
65697SOL     OW98923  10.015   2.675   4.379
65697SOL    HW198924  10.072   2.655   4.453
65697SOL    HW298925  10.067   2.735   4.325
65698SOL     OW98926  12.258  13.828   0.318
65698SOL    HW198927  12.302  13.834   0.403
65698SOL    HW298928  12.192  13.759   0.330
65699SOL     OW98929  12.896   3.998   4.039
65699SOL    HW198930  12.863   4.031   3.955
65699SOL    HW298931  12.819   3.995   4.095
65700SOL     OW98932   9.548  14.823   3.948
65700SOL    HW198933   9.569  14.737   3.984
65700SOL    HW298934   9.488  14.805   3.876
65701SOL     OW98935  12.537   4.005  10.786
65701SOL    HW198936  12.455   3.999  10.835
65701SOL    HW298937  12.594   3.940  10.827
65702SOL     OW98938   9.771   1.616  14.618
65702SOL    HW198939   9.849   1.564  14.635
65702SOL    HW298940   9.768   1.677  14.692
65703SOL     OW98941  12.225  11.982   5.595
65703SOL    HW198942  12.191  12.049   5.654
65703SOL    HW298943  12.166  11.984   5.520
65704SOL     OW98944   2.120   1.187  12.682
65704SOL    HW198945   2.038   1.204  12.636
65704SOL    HW298946   2.188   1.210  12.619
65705SOL     OW98947  12.121  14.817   1.143
65705SOL    HW198948  12.171  14.779   1.071
65705SOL    HW298949  12.030  14.816   1.112
65706SOL     OW98950  10.095   0.894  11.750
65706SOL    HW198951  10.031   0.828  11.779
65706SOL    HW298952  10.175   0.844  11.735
65707SOL     OW98953   7.895   8.116   3.909
65707SOL    HW198954   7.876   8.110   4.003
65707SOL    HW298955   7.886   8.209   3.889
65708SOL     OW98956   1.506   2.429   3.389
65708SOL    HW198957   1.595   2.462   3.378
65708SOL    HW298958   1.498   2.359   3.325
65709SOL     OW98959  13.279  10.207   0.423
65709SOL    HW198960  13.240  10.283   0.467
65709SOL    HW298961  13.265  10.223   0.330
65710SOL     OW98962   0.930   1.875   2.741
65710SOL    HW198963   0.991   1.949   2.735
65710SOL    HW298964   0.984   1.798   2.728
65711SOL     OW98965   9.812   5.109   2.500
65711SOL    HW198966   9.717   5.110   2.498
65711SOL    HW298967   9.834   5.046   2.569
65712SOL     OW98968   5.313   2.460   0.966
65712SOL    HW198969   5.362   2.403   1.026
65712SOL    HW298970   5.378   2.522   0.932
65713SOL     OW98971  14.606  12.762   4.748
65713SOL    HW198972  14.597  12.836   4.808
65713SOL    HW298973  14.527  12.710   4.762
65714SOL     OW98974   6.561   3.602  11.786
65714SOL    HW198975   6.636   3.576  11.733
65714SOL    HW298976   6.498   3.639  11.724
65715SOL     OW98977   1.533   1.715   1.308
65715SOL    HW198978   1.534   1.620   1.293
65715SOL    HW298979   1.603   1.749   1.252
65716SOL     OW98980   1.093   8.849   7.048
65716SOL    HW198981   1.084   8.945   7.050
65716SOL    HW298982   1.008   8.817   7.020
65717SOL     OW98983   0.628  11.274  10.665
65717SOL    HW198984   0.661  11.205  10.607
65717SOL    HW298985   0.533  11.270  10.656
65718SOL     OW98986  10.614   3.638   2.117
65718SOL    HW198987  10.519   3.634   2.127
65718SOL    HW298988  10.641   3.546   2.111
65719SOL     OW98989   5.074   7.837  11.276
65719SOL    HW198990   5.070   7.886  11.358
65719SOL    HW298991   5.013   7.764  11.289
65720SOL     OW98992   0.465   9.480   0.676
65720SOL    HW198993   0.447   9.511   0.765
65720SOL    HW298994   0.560   9.481   0.669
65721SOL     OW98995  11.307  10.451  11.434
65721SOL    HW198996  11.369  10.521  11.457
65721SOL    HW298997  11.362  10.383  11.396
65722SOL     OW98998  10.412  12.950   5.052
65722SOL    HW198999  10.361  12.879   5.013
65722SOL    HW299000  10.348  13.020   5.066
65723SOL     OW99001   5.000  10.243   7.278
65723SOL    HW199002   5.083  10.274   7.313
65723SOL    HW299003   4.939  10.247   7.352
65724SOL     OW99004   1.875   4.891  11.449
65724SOL    HW199005   1.958   4.845  11.437
65724SOL    HW299006   1.850   4.917  11.360
65725SOL     OW99007   6.976  13.755  14.602
65725SOL    HW199008   7.020  13.720  14.524
65725SOL    HW299009   7.039  13.816  14.639
65726SOL     OW99010   3.001   3.076   6.378
65726SOL    HW199011   3.064   3.008   6.353
65726SOL    HW299012   2.918   3.030   6.387
65727SOL     OW99013  12.514   5.593   7.216
65727SOL    HW199014  12.500   5.683   7.246
65727SOL    HW299015  12.426   5.559   7.200
65728SOL     OW99016   7.725   1.841  10.033
65728SOL    HW199017   7.636   1.869  10.052
65728SOL    HW299018   7.778   1.921  10.044
65729SOL     OW99019   3.817  12.263  14.048
65729SOL    HW199020   3.805  12.287  13.957
65729SOL    HW299021   3.882  12.193  14.046
65730SOL     OW99022   0.818   6.255   4.564
65730SOL    HW199023   0.831   6.266   4.470
65730SOL    HW299024   0.728   6.281   4.580
65731SOL     OW99025   0.717  12.532   4.901
65731SOL    HW199026   0.659  12.482   4.843
65731SOL    HW299027   0.766  12.589   4.841
65732SOL     OW99028   6.250   1.612  14.034
65732SOL    HW199029   6.344   1.623  14.048
65732SOL    HW299030   6.221   1.559  14.107
65733SOL     OW99031   4.204  12.576   8.438
65733SOL    HW199032   4.251  12.492   8.435
65733SOL    HW299033   4.135  12.567   8.372
65734SOL     OW99034   6.929   4.793  12.035
65734SOL    HW199035   6.978   4.866  11.997
65734SOL    HW299036   6.995   4.729  12.059
65735SOL     OW99037  13.734   0.653   3.539
65735SOL    HW199038  13.726   0.714   3.612
65735SOL    HW299039  13.742   0.709   3.461
65736SOL     OW99040  12.277   8.127  11.110
65736SOL    HW199041  12.265   8.032  11.110
65736SOL    HW299042  12.224   8.158  11.184
65737SOL     OW99043   6.037   8.000  12.225
65737SOL    HW199044   6.041   7.939  12.151
65737SOL    HW299045   6.007   8.082  12.186
65738SOL     OW99046   0.158   7.509   1.148
65738SOL    HW199047   0.140   7.533   1.057
65738SOL    HW299048   0.076   7.470   1.179
65739SOL     OW99049   0.071   5.308  13.819
65739SOL    HW199050   0.048   5.389  13.772
65739SOL    HW299051   0.100   5.248  13.751
65740SOL     OW99052   0.512  13.486   8.538
65740SOL    HW199053   0.489  13.434   8.461
65740SOL    HW299054   0.446  13.464   8.603
65741SOL     OW99055  10.582   7.931   5.128
65741SOL    HW199056  10.582   7.997   5.059
65741SOL    HW299057  10.500   7.884   5.116
65742SOL     OW99058   1.715   8.931   0.750
65742SOL    HW199059   1.644   8.959   0.692
65742SOL    HW299060   1.770   8.875   0.694
65743SOL     OW99061   5.669   8.197   2.005
65743SOL    HW199062   5.601   8.202   2.072
65743SOL    HW299063   5.684   8.288   1.979
65744SOL     OW99064   2.772  14.505   9.324
65744SOL    HW199065   2.748  14.425   9.279
65744SOL    HW299066   2.828  14.477   9.396
65745SOL     OW99067  10.942  14.088  11.266
65745SOL    HW199068  10.950  14.094  11.361
65745SOL    HW299069  10.944  14.178  11.235
65746SOL     OW99070  10.843  10.657  12.721
65746SOL    HW199071  10.821  10.663  12.628
65746SOL    HW299072  10.939  10.665  12.724
65747SOL     OW99073   5.754  11.635   8.389
65747SOL    HW199074   5.664  11.604   8.384
65747SOL    HW299075   5.803  11.561   8.423
65748SOL     OW99076  11.727  14.012   6.175
65748SOL    HW199077  11.640  14.004   6.214
65748SOL    HW299078  11.727  14.099   6.135
65749SOL     OW99079   4.367  12.425   4.222
65749SOL    HW199080   4.315  12.486   4.274
65749SOL    HW299081   4.341  12.443   4.131
65750SOL     OW99082   6.036   1.720   3.354
65750SOL    HW199083   6.068   1.636   3.319
65750SOL    HW299084   5.990   1.761   3.281
65751SOL     OW99085   5.378  10.986  13.434
65751SOL    HW199086   5.315  11.048  13.398
65751SOL    HW299087   5.348  10.970  13.523
65752SOL     OW99088  14.325   9.534   4.385
65752SOL    HW199089  14.399   9.474   4.395
65752SOL    HW299090  14.360   9.620   4.408
65753SOL     OW99091  10.195   4.045   0.675
65753SOL    HW199092  10.118   3.995   0.648
65753SOL    HW299093  10.245   4.058   0.595
65754SOL     OW99094   9.052  11.836   2.980
65754SOL    HW199095   9.144  11.849   2.957
65754SOL    HW299096   9.003  11.881   2.911
65755SOL     OW99097   4.580   3.083  10.163
65755SOL    HW199098   4.660   3.039  10.193
65755SOL    HW299099   4.582   3.074  10.068
65756SOL     OW99100   9.862   7.353   9.946
65756SOL    HW199101   9.882   7.287   9.881
65756SOL    HW299102   9.781   7.393   9.916
65757SOL     OW99103   6.600  13.932  13.065
65757SOL    HW199104   6.565  13.885  12.989
65757SOL    HW299105   6.527  13.936  13.126
65758SOL     OW99106   1.882   9.731  10.232
65758SOL    HW199107   1.835   9.663  10.184
65758SOL    HW299108   1.898   9.800  10.168
65759SOL     OW99109   1.510  11.894   4.614
65759SOL    HW199110   1.552  11.907   4.529
65759SOL    HW299111   1.543  11.966   4.668
65760SOL     OW99112  13.201  14.858   9.102
65760SOL    HW199113  13.240  14.862   9.189
65760SOL    HW299114  13.204  14.765   9.079
65761SOL     OW99115  14.580  13.951  11.316
65761SOL    HW199116  14.562  13.858  11.321
65761SOL    HW299117  14.499  13.994  11.344
65762SOL     OW99118   1.910  10.822   8.983
65762SOL    HW199119   1.921  10.775   8.901
65762SOL    HW299120   1.991  10.805   9.032
65763SOL     OW99121  13.118   9.627   8.926
65763SOL    HW199122  13.052   9.622   8.995
65763SOL    HW299123  13.155   9.539   8.922
65764SOL     OW99124  11.583   9.934  11.222
65764SOL    HW199125  11.676   9.940  11.202
65764SOL    HW299126  11.573   9.978  11.306
65765SOL     OW99127   4.325   3.683   6.164
65765SOL    HW199128   4.261   3.712   6.230
65765SOL    HW299129   4.312   3.744   6.091
65766SOL     OW99130   5.980  13.176   8.488
65766SOL    HW199131   5.898  13.217   8.516
65766SOL    HW299132   5.963  13.145   8.400
65767SOL     OW99133   4.927  13.387  11.020
65767SOL    HW199134   4.847  13.379  10.969
65767SOL    HW299135   4.903  13.441  11.095
65768SOL     OW99136   5.023   4.332  13.724
65768SOL    HW199137   4.975   4.360  13.646
65768SOL    HW299138   5.109   4.373  13.716
65769SOL     OW99139  13.047  12.633   3.408
65769SOL    HW199140  12.962  12.654   3.369
65769SOL    HW299141  13.080  12.718   3.438
65770SOL     OW99142   4.490  10.608  13.119
65770SOL    HW199143   4.539  10.690  13.131
65770SOL    HW299144   4.488  10.568  13.206
65771SOL     OW99145   0.899  10.295   8.474
65771SOL    HW199146   0.864  10.287   8.563
65771SOL    HW299147   0.970  10.230   8.471
65772SOL     OW99148   4.346  10.278   8.027
65772SOL    HW199149   4.427  10.251   7.984
65772SOL    HW299150   4.357  10.371   8.043
65773SOL     OW99151   0.634   2.580   4.191
65773SOL    HW199152   0.690   2.637   4.243
65773SOL    HW299153   0.595   2.638   4.126
65774SOL     OW99154   5.024   6.548   0.774
65774SOL    HW199155   5.039   6.616   0.709
65774SOL    HW299156   4.929   6.545   0.785
65775SOL     OW99157   5.581   1.163  10.051
65775SOL    HW199158   5.557   1.096  10.115
65775SOL    HW299159   5.528   1.142   9.974
65776SOL     OW99160  10.339   9.470   2.126
65776SOL    HW199161  10.304   9.538   2.070
65776SOL    HW299162  10.383   9.517   2.197
65777SOL     OW99163   1.592   4.392   1.412
65777SOL    HW199164   1.608   4.302   1.382
65777SOL    HW299165   1.638   4.447   1.350
65778SOL     OW99166   0.005   2.872   9.618
65778SOL    HW199167  14.813   2.809   9.586
65778SOL    HW299168   0.057   2.822   9.680
65779SOL     OW99169   2.540   6.051  11.018
65779SOL    HW199170   2.448   6.052  11.044
65779SOL    HW299171   2.538   6.054  10.922
65780SOL     OW99172   2.313   2.912   8.379
65780SOL    HW199173   2.374   2.923   8.306
65780SOL    HW299174   2.290   2.819   8.378
65781SOL     OW99175   0.390  12.225   5.148
65781SOL    HW199176   0.479  12.198   5.126
65781SOL    HW299177   0.390  12.320   5.138
65782SOL     OW99178   2.089   5.587   6.755
65782SOL    HW199179   2.023   5.540   6.806
65782SOL    HW299180   2.058   5.581   6.665
65783SOL     OW99181   1.960  10.407   5.301
65783SOL    HW199182   2.036  10.370   5.256
65783SOL    HW299183   1.893  10.339   5.298
65784SOL     OW99184   3.100   9.533   7.257
65784SOL    HW199185   3.170   9.556   7.318
65784SOL    HW299186   3.104   9.437   7.252
65785SOL     OW99187   0.345   1.500  12.861
65785SOL    HW199188   0.353   1.508  12.766
65785SOL    HW299189   0.423   1.449  12.887
65786SOL     OW99190   0.923   9.895  14.616
65786SOL    HW199191   0.850   9.932  14.565
65786SOL    HW299192   0.893   9.808  14.641
65787SOL     OW99193   3.041  12.735  14.705
65787SOL    HW199194   3.063  12.738  14.798
65787SOL    HW299195   3.031  12.642  14.685
65788SOL     OW99196   9.797  12.230   3.327
65788SOL    HW199197   9.826  12.232   3.236
65788SOL    HW299198   9.760  12.317   3.342
65789SOL     OW99199   0.658  13.113  10.787
65789SOL    HW199200   0.626  13.075  10.868
65789SOL    HW299201   0.590  13.175  10.761
65790SOL     OW99202   1.931  13.038   8.046
65790SOL    HW199203   2.009  12.992   8.017
65790SOL    HW299204   1.879  12.971   8.091
65791SOL     OW99205   6.882   6.169  13.676
65791SOL    HW199206   6.924   6.253  13.693
65791SOL    HW299207   6.815   6.162  13.743
65792SOL     OW99208   4.065  11.021   2.443
65792SOL    HW199209   4.077  11.112   2.470
65792SOL    HW299210   4.151  10.981   2.456
65793SOL     OW99211   7.397  11.609  11.570
65793SOL    HW199212   7.488  11.626  11.594
65793SOL    HW299213   7.370  11.687  11.522
65794SOL     OW99214   2.691   4.207   9.863
65794SOL    HW199215   2.624   4.205   9.795
65794SOL    HW299216   2.650   4.164   9.939
65795SOL     OW99217   6.999  11.983   7.996
65795SOL    HW199218   6.932  11.926   7.958
65795SOL    HW299219   7.015  11.946   8.083
65796SOL     OW99220   6.636   0.625   2.433
65796SOL    HW199221   6.604   0.653   2.347
65796SOL    HW299222   6.690   0.697   2.463
65797SOL     OW99223  12.627   9.728   3.569
65797SOL    HW199224  12.549   9.689   3.609
65797SOL    HW299225  12.678   9.653   3.538
65798SOL     OW99226  13.666   7.719  14.006
65798SOL    HW199227  13.647   7.744  14.096
65798SOL    HW299228  13.595   7.757  13.955
65799SOL     OW99229   9.698  11.723   0.472
65799SOL    HW199230   9.628  11.774   0.433
65799SOL    HW299231   9.768  11.723   0.406
65800SOL     OW99232  12.357   5.704   5.314
65800SOL    HW199233  12.371   5.656   5.395
65800SOL    HW299234  12.269   5.740   5.321
65801SOL     OW99235  11.411   1.907  10.126
65801SOL    HW199236  11.385   1.816  10.111
65801SOL    HW299237  11.346   1.940  10.188
65802SOL     OW99238   5.282   3.031   5.931
65802SOL    HW199239   5.221   3.055   6.001
65802SOL    HW299240   5.333   3.111   5.916
65803SOL     OW99241   9.754   8.363  13.870
65803SOL    HW199242   9.782   8.438  13.922
65803SOL    HW299243   9.676   8.394  13.824
65804SOL     OW99244  13.967   1.121   9.045
65804SOL    HW199245  13.965   1.201   9.097
65804SOL    HW299246  14.040   1.133   8.985
65805SOL     OW99247   9.199  10.066  11.981
65805SOL    HW199248   9.196   9.972  11.996
65805SOL    HW299249   9.172  10.076  11.889
65806SOL     OW99250  14.390  13.488  12.974
65806SOL    HW199251  14.416  13.403  13.011
65806SOL    HW299252  14.447  13.551  13.017
65807SOL     OW99253   9.788  13.976   6.661
65807SOL    HW199254   9.693  13.985   6.649
65807SOL    HW299255   9.824  14.059   6.631
65808SOL     OW99256  11.363  13.378  10.119
65808SOL    HW199257  11.281  13.341  10.150
65808SOL    HW299258  11.381  13.332  10.037
65809SOL     OW99259   0.607   3.026   9.239
65809SOL    HW199260   0.540   3.074   9.190
65809SOL    HW299261   0.690   3.066   9.210
65810SOL     OW99262  12.155   7.655  14.033
65810SOL    HW199263  12.189   7.660  14.123
65810SOL    HW299264  12.218   7.706  13.981
65811SOL     OW99265  12.193  14.433   8.099
65811SOL    HW199266  12.200  14.501   8.166
65811SOL    HW299267  12.100  14.433   8.075
65812SOL     OW99268   9.494  14.761   0.856
65812SOL    HW199269   9.488  14.825   0.928
65812SOL    HW299270   9.539  14.686   0.895
65813SOL     OW99271   7.912  12.947   4.360
65813SOL    HW199272   7.978  12.895   4.314
65813SOL    HW299273   7.842  12.885   4.379
65814SOL     OW99274   4.842   0.241   4.424
65814SOL    HW199275   4.756   0.241   4.467
65814SOL    HW299276   4.893   0.176   4.472
65815SOL     OW99277  12.126   8.397  13.568
65815SOL    HW199278  12.157   8.361  13.485
65815SOL    HW299279  12.176   8.478  13.578
65816SOL     OW99280   0.372   5.433   9.557
65816SOL    HW199281   0.280   5.405   9.554
65816SOL    HW299282   0.368   5.529   9.557
65817SOL     OW99283  12.619  13.507  11.085
65817SOL    HW199284  12.656  13.547  11.006
65817SOL    HW299285  12.578  13.427  11.055
65818SOL     OW99286   5.147   0.038   6.798
65818SOL    HW199287   5.085  14.872   6.860
65818SOL    HW299288   5.109   0.123   6.775
65819SOL     OW99289   3.229  10.812   2.714
65819SOL    HW199290   3.199  10.741   2.657
65819SOL    HW299291   3.170  10.808   2.790
65820SOL     OW99292   4.942  13.874  14.306
65820SOL    HW199293   5.004  13.845  14.240
65820SOL    HW299294   4.856  13.862  14.265
65821SOL     OW99295   4.214   5.420   4.755
65821SOL    HW199296   4.194   5.365   4.680
65821SOL    HW299297   4.249   5.360   4.821
65822SOL     OW99298   8.371   5.167   1.540
65822SOL    HW199299   8.356   5.138   1.450
65822SOL    HW299300   8.329   5.100   1.594
65823SOL     OW99301   2.988   3.818   5.607
65823SOL    HW199302   2.974   3.908   5.638
65823SOL    HW299303   2.904   3.793   5.569
65824SOL     OW99304   5.674   9.128   5.497
65824SOL    HW199305   5.713   9.104   5.581
65824SOL    HW299306   5.715   9.212   5.474
65825SOL     OW99307   3.479   1.139  11.365
65825SOL    HW199308   3.445   1.228  11.372
65825SOL    HW299309   3.495   1.127  11.271
65826SOL     OW99310   8.325   7.572   2.088
65826SOL    HW199311   8.251   7.512   2.083
65826SOL    HW299312   8.335   7.591   2.181
65827SOL     OW99313   8.649   5.415   0.395
65827SOL    HW199314   8.635   5.432   0.488
65827SOL    HW299315   8.745   5.411   0.386
65828SOL     OW99316   9.330   8.414   5.234
65828SOL    HW199317   9.239   8.414   5.264
65828SOL    HW299318   9.343   8.502   5.198
65829SOL     OW99319   7.781   6.489   3.834
65829SOL    HW199320   7.869   6.452   3.824
65829SOL    HW299321   7.755   6.516   3.746
65830SOL     OW99322  11.708  11.583   8.049
65830SOL    HW199323  11.649  11.649   8.014
65830SOL    HW299324  11.743  11.621   8.130
65831SOL     OW99325  13.976  14.286   8.556
65831SOL    HW199326  13.912  14.295   8.627
65831SOL    HW299327  13.953  14.203   8.513
65832SOL     OW99328   0.724   2.080   2.786
65832SOL    HW199329   0.743   1.986   2.781
65832SOL    HW299330   0.649   2.092   2.728
65833SOL     OW99331  10.754   7.722   5.853
65833SOL    HW199332  10.816   7.667   5.805
65833SOL    HW299333  10.795   7.809   5.853
65834SOL     OW99334   7.576  12.377  10.763
65834SOL    HW199335   7.493  12.333  10.785
65834SOL    HW299336   7.577  12.455  10.818
65835SOL     OW99337  11.561   7.338  14.434
65835SOL    HW199338  11.500   7.392  14.384
65835SOL    HW299339  11.641   7.391  14.439
65836SOL     OW99340   7.164   8.807   5.092
65836SOL    HW199341   7.125   8.777   5.010
65836SOL    HW299342   7.094   8.856   5.136
65837SOL     OW99343   0.490   7.636   3.080
65837SOL    HW199344   0.455   7.599   2.999
65837SOL    HW299345   0.507   7.560   3.136
65838SOL     OW99346   2.663   9.648   8.553
65838SOL    HW199347   2.595   9.583   8.543
65838SOL    HW299348   2.662   9.698   8.471
65839SOL     OW99349  12.888  11.243  13.901
65839SOL    HW199350  12.935  11.185  13.961
65839SOL    HW299351  12.949  11.256  13.828
65840SOL     OW99352  13.316   6.723   8.313
65840SOL    HW199353  13.372   6.655   8.351
65840SOL    HW299354  13.318   6.706   8.219
65841SOL     OW99355   1.854   8.448   2.947
65841SOL    HW199356   1.814   8.521   2.899
65841SOL    HW299357   1.948   8.454   2.926
65842SOL     OW99358   5.830   5.378   8.623
65842SOL    HW199359   5.866   5.450   8.674
65842SOL    HW299360   5.788   5.421   8.548
65843SOL     OW99361   9.916   6.185   0.707
65843SOL    HW199362   9.940   6.151   0.793
65843SOL    HW299363   9.841   6.131   0.680
65844SOL     OW99364   6.668  12.372  13.866
65844SOL    HW199365   6.695  12.446  13.921
65844SOL    HW299366   6.586  12.341  13.905
65845SOL     OW99367   7.393   0.084   2.292
65845SOL    HW199368   7.302   0.091   2.320
65845SOL    HW299369   7.440   0.058   2.371
65846SOL     OW99370   2.588  11.880   1.854
65846SOL    HW199371   2.556  11.955   1.804
65846SOL    HW299372   2.552  11.893   1.942
65847SOL     OW99373  11.963   2.305   1.179
65847SOL    HW199374  11.950   2.331   1.270
65847SOL    HW299375  11.952   2.386   1.129
65848SOL     OW99376  13.330  10.725  13.570
65848SOL    HW199377  13.364  10.758  13.653
65848SOL    HW299378  13.380  10.645  13.553
65849SOL     OW99379  14.406   6.634  13.747
65849SOL    HW199380  14.408   6.547  13.786
65849SOL    HW299381  14.340   6.628  13.678
65850SOL     OW99382  10.452   2.894   3.782
65850SOL    HW199383  10.408   2.883   3.866
65850SOL    HW299384  10.422   2.820   3.729
65851SOL     OW99385  11.963   5.748   0.829
65851SOL    HW199386  11.928   5.664   0.796
65851SOL    HW299387  12.041   5.763   0.776
65852SOL     OW99388   9.248   9.791   9.527
65852SOL    HW199389   9.339   9.822   9.529
65852SOL    HW299390   9.197   9.866   9.557
65853SOL     OW99391   7.231   1.432   2.176
65853SOL    HW199392   7.149   1.475   2.154
65853SOL    HW299393   7.294   1.466   2.112
65854SOL     OW99394   2.086   4.304   8.207
65854SOL    HW199395   2.170   4.295   8.253
65854SOL    HW299396   2.111   4.313   8.115
65855SOL     OW99397   8.660  11.732   6.730
65855SOL    HW199398   8.654  11.800   6.796
65855SOL    HW299399   8.753  11.726   6.710
65856SOL     OW99400  11.843  12.567   9.140
65856SOL    HW199401  11.788  12.627   9.191
65856SOL    HW299402  11.851  12.610   9.054
65857SOL     OW99403   2.248  14.261   8.856
65857SOL    HW199404   2.216  14.174   8.881
65857SOL    HW299405   2.216  14.319   8.925
65858SOL     OW99406   2.480   3.055   4.470
65858SOL    HW199407   2.502   3.130   4.414
65858SOL    HW299408   2.396   3.079   4.509
65859SOL     OW99409   7.660   3.305   4.191
65859SOL    HW199410   7.569   3.275   4.201
65859SOL    HW299411   7.713   3.231   4.218
65860SOL     OW99412   6.871   0.252  12.553
65860SOL    HW199413   6.949   0.259  12.608
65860SOL    HW299414   6.900   0.203  12.476
65861SOL     OW99415  12.350   9.423   7.545
65861SOL    HW199416  12.314   9.390   7.628
65861SOL    HW299417  12.436   9.458   7.569
65862SOL     OW99418   1.301   7.457   9.143
65862SOL    HW199419   1.379   7.511   9.153
65862SOL    HW299420   1.301   7.432   9.051
65863SOL     OW99421   7.170  11.020   5.158
65863SOL    HW199422   7.152  10.926   5.166
65863SOL    HW299423   7.101  11.061   5.209
65864SOL     OW99424   4.327   4.652  12.071
65864SOL    HW199425   4.263   4.683  12.007
65864SOL    HW299426   4.280   4.652  12.154
65865SOL     OW99427   8.160   9.483  11.505
65865SOL    HW199428   8.165   9.429  11.426
65865SOL    HW299429   8.109   9.431  11.567
65866SOL     OW99430   7.066  11.739   2.887
65866SOL    HW199431   7.010  11.717   2.961
65866SOL    HW299432   7.007  11.773   2.821
65867SOL     OW99433  12.589  10.761   1.365
65867SOL    HW199434  12.633  10.823   1.306
65867SOL    HW299435  12.512  10.733   1.316
65868SOL     OW99436   1.300  11.608   9.876
65868SOL    HW199437   1.304  11.701   9.855
65868SOL    HW299438   1.385  11.589   9.916
65869SOL     OW99439   4.497   9.879   8.579
65869SOL    HW199440   4.572   9.876   8.639
65869SOL    HW299441   4.422   9.854   8.633
65870SOL     OW99442   2.736  14.279   8.741
65870SOL    HW199443   2.758  14.216   8.672
65870SOL    HW299444   2.641  14.287   8.737
65871SOL     OW99445  12.377   4.907  13.013
65871SOL    HW199446  12.343   4.961  13.084
65871SOL    HW299447  12.407   4.826  13.055
65872SOL     OW99448   1.142  12.750   1.208
65872SOL    HW199449   1.064  12.746   1.153
65872SOL    HW299450   1.184  12.665   1.196
65873SOL     OW99451   8.944  14.315   9.772
65873SOL    HW199452   8.948  14.373   9.695
65873SOL    HW299453   8.954  14.374   9.847
65874SOL     OW99454   0.597  11.953  12.330
65874SOL    HW199455   0.581  11.973  12.237
65874SOL    HW299456   0.533  11.885  12.351
65875SOL     OW99457  14.349   2.816   5.516
65875SOL    HW199458  14.301   2.899   5.508
65875SOL    HW299459  14.439   2.839   5.491
65876SOL     OW99460   2.913  11.367   1.743
65876SOL    HW199461   2.835  11.390   1.794
65876SOL    HW299462   2.983  11.421   1.780
65877SOL     OW99463   2.044  13.389   5.594
65877SOL    HW199464   2.038  13.484   5.603
65877SOL    HW299465   2.111  13.375   5.527
65878SOL     OW99466  14.733  14.649  12.526
65878SOL    HW199467  14.719  14.732  12.481
65878SOL    HW299468  14.806  14.667  12.586
65879SOL     OW99469   9.113  10.985   9.761
65879SOL    HW199470   9.070  10.900   9.749
65879SOL    HW299471   9.204  10.969   9.736
65880SOL     OW99472   7.695   3.566  13.935
65880SOL    HW199473   7.770   3.590  13.990
65880SOL    HW299474   7.656   3.649  13.910
65881SOL     OW99475  10.826  11.860   9.429
65881SOL    HW199476  10.825  11.903   9.514
65881SOL    HW299477  10.739  11.878   9.392
65882SOL     OW99478   2.437   9.021  12.232
65882SOL    HW199479   2.425   9.038  12.139
65882SOL    HW299480   2.515   8.966  12.237
65883SOL     OW99481   7.836   9.353   1.102
65883SOL    HW199482   7.792   9.292   1.161
65883SOL    HW299483   7.913   9.304   1.071
65884SOL     OW99484   7.219   0.807  14.336
65884SOL    HW199485   7.260   0.751  14.402
65884SOL    HW299486   7.283   0.810  14.265
65885SOL     OW99487  10.418  11.776   9.027
65885SOL    HW199488  10.487  11.808   8.969
65885SOL    HW299489  10.375  11.856   9.058
65886SOL     OW99490   0.681  14.211   1.015
65886SOL    HW199491   0.728  14.134   0.982
65886SOL    HW299492   0.636  14.246   0.938
65887SOL     OW99493   7.567   3.244   4.851
65887SOL    HW199494   7.590   3.330   4.885
65887SOL    HW299495   7.639   3.222   4.791
65888SOL     OW99496  13.256  11.458  13.188
65888SOL    HW199497  13.200  11.470  13.265
65888SOL    HW299498  13.206  11.399  13.132
65889SOL     OW99499  12.143  14.635   8.277
65889SOL    HW199500  12.177  14.724   8.286
65889SOL    HW299501  12.183  14.586   8.349
65890SOL     OW99502  13.035   6.356   5.725
65890SOL    HW199503  13.094   6.283   5.706
65890SOL    HW299504  13.036   6.363   5.820
65891SOL     OW99505   7.032   9.802   9.708
65891SOL    HW199506   7.056   9.874   9.767
65891SOL    HW299507   6.942   9.779   9.732
65892SOL     OW99508  13.078  14.325   3.321
65892SOL    HW199509  13.078  14.231   3.302
65892SOL    HW299510  12.992  14.355   3.290
65893SOL     OW99511   3.878   0.110   1.112
65893SOL    HW199512   3.827   0.029   1.120
65893SOL    HW299513   3.956   0.094   1.165
65894SOL     OW99514  10.578   9.776  11.298
65894SOL    HW199515  10.572   9.687  11.264
65894SOL    HW299516  10.672   9.792  11.308
65895SOL     OW99517   2.921  12.758  12.709
65895SOL    HW199518   3.010  12.752  12.745
65895SOL    HW299519   2.918  12.844  12.668
65896SOL     OW99520   4.488  11.118  13.690
65896SOL    HW199521   4.554  11.169  13.642
65896SOL    HW299522   4.428  11.184  13.726
65897SOL     OW99523  13.764   1.102   2.367
65897SOL    HW199524  13.676   1.101   2.403
65897SOL    HW299525  13.812   1.165   2.422
65898SOL     OW99526  12.552  10.420   1.035
65898SOL    HW199527  12.556  10.515   1.046
65898SOL    HW299528  12.459  10.402   1.021
65899SOL     OW99529   6.910  12.928  11.054
65899SOL    HW199530   6.941  12.999  11.109
65899SOL    HW299531   6.919  12.850  11.109
65900SOL     OW99532   0.855  12.346   2.190
65900SOL    HW199533   0.819  12.272   2.239
65900SOL    HW299534   0.945  12.320   2.169
65901SOL     OW99535  12.305  14.415   2.791
65901SOL    HW199536  12.251  14.488   2.763
65901SOL    HW299537  12.394  14.449   2.791
65902SOL     OW99538  11.222   4.295   1.059
65902SOL    HW199539  11.182   4.359   1.000
65902SOL    HW299540  11.284   4.346   1.111
65903SOL     OW99541  11.463   1.593  14.437
65903SOL    HW199542  11.384   1.548  14.470
65903SOL    HW299543  11.535   1.536  14.463
65904SOL     OW99544  12.123   0.388   6.355
65904SOL    HW199545  12.041   0.340   6.345
65904SOL    HW299546  12.182   0.326   6.397
65905SOL     OW99547  12.826   4.544   2.946
65905SOL    HW199548  12.776   4.484   2.890
65905SOL    HW299549  12.866   4.488   3.012
65906SOL     OW99550   3.415   7.855  10.640
65906SOL    HW199551   3.450   7.844  10.551
65906SOL    HW299552   3.336   7.801  10.642
65907SOL     OW99553   7.517   9.868   1.427
65907SOL    HW199554   7.439   9.900   1.472
65907SOL    HW299555   7.584   9.864   1.496
65908SOL     OW99556  11.975   6.919  14.799
65908SOL    HW199557  12.048   6.862  14.824
65908SOL    HW299558  11.918   6.919   0.003
65909SOL     OW99559   4.896   0.511  10.326
65909SOL    HW199560   4.965   0.529  10.261
65909SOL    HW299561   4.815   0.512  10.275
65910SOL     OW99562   2.897   4.732   1.366
65910SOL    HW199563   2.836   4.707   1.296
65910SOL    HW299564   2.841   4.763   1.437
65911SOL     OW99565  10.012   9.325   8.207
65911SOL    HW199566  10.100   9.299   8.233
65911SOL    HW299567  10.001   9.413   8.243
65912SOL     OW99568   8.315  12.144   3.461
65912SOL    HW199569   8.239  12.089   3.479
65912SOL    HW299570   8.372  12.132   3.537
65913SOL     OW99571   4.443  13.897  13.625
65913SOL    HW199572   4.501  13.932  13.692
65913SOL    HW299573   4.358  13.936  13.643
65914SOL     OW99574   5.180   1.149   7.512
65914SOL    HW199575   5.245   1.163   7.444
65914SOL    HW299576   5.116   1.219   7.500
65915SOL     OW99577   6.131   3.887  10.115
65915SOL    HW199578   6.151   3.812  10.059
65915SOL    HW299579   6.098   3.953  10.054
65916SOL     OW99580   4.093   8.929   7.141
65916SOL    HW199581   4.099   8.898   7.231
65916SOL    HW299582   4.046   9.012   7.147
65917SOL     OW99583  12.229   6.039   9.571
65917SOL    HW199584  12.245   6.093   9.493
65917SOL    HW299585  12.316   6.022   9.607
65918SOL     OW99586   9.711   7.633   1.195
65918SOL    HW199587   9.786   7.575   1.213
65918SOL    HW299588   9.703   7.632   1.099
65919SOL     OW99589   9.777   9.271   6.833
65919SOL    HW199590   9.720   9.293   6.907
65919SOL    HW299591   9.805   9.181   6.851
65920SOL     OW99592  12.960  11.890   8.318
65920SOL    HW199593  12.973  11.951   8.391
65920SOL    HW299594  12.867  11.894   8.300
65921SOL     OW99595   4.137   7.538  12.467
65921SOL    HW199596   4.152   7.593  12.390
65921SOL    HW299597   4.164   7.450  12.439
65922SOL     OW99598  10.853   7.982   6.814
65922SOL    HW199599  10.814   7.905   6.772
65922SOL    HW299600  10.821   7.977   6.905
65923SOL     OW99601  14.648  14.389   5.435
65923SOL    HW199602  14.614  14.472   5.401
65923SOL    HW299603  14.575  14.351   5.482
65924SOL     OW99604   2.631   0.101  10.254
65924SOL    HW199605   2.641   0.059  10.339
65924SOL    HW299606   2.616   0.193  10.274
65925SOL     OW99607   0.348   2.540   9.914
65925SOL    HW199608   0.443   2.548   9.917
65925SOL    HW299609   0.318   2.578   9.997
65926SOL     OW99610   8.322   8.794   1.563
65926SOL    HW199611   8.406   8.763   1.597
65926SOL    HW299612   8.300   8.869   1.619
65927SOL     OW99613  13.186  10.424   8.950
65927SOL    HW199614  13.234  10.426   9.033
65927SOL    HW299615  13.248  10.455   8.885
65928SOL     OW99616  12.301   1.970  13.764
65928SOL    HW199617  12.360   2.038  13.729
65928SOL    HW299618  12.325   1.962  13.856
65929SOL     OW99619   7.548   6.746   5.623
65929SOL    HW199620   7.580   6.824   5.578
65929SOL    HW299621   7.584   6.753   5.712
65930SOL     OW99622  12.185  13.108   5.455
65930SOL    HW199623  12.217  13.191   5.491
65930SOL    HW299624  12.254  13.081   5.394
65931SOL     OW99625   4.563   1.890   8.931
65931SOL    HW199626   4.502   1.894   9.005
65931SOL    HW299627   4.645   1.859   8.969
65932SOL     OW99628   5.037  12.815   4.757
65932SOL    HW199629   4.971  12.835   4.824
65932SOL    HW299630   5.075  12.732   4.786
65933SOL     OW99631  11.141  14.311   5.382
65933SOL    HW199632  11.234  14.308   5.405
65933SOL    HW299633  11.132  14.248   5.311
65934SOL     OW99634  12.619   9.619  11.270
65934SOL    HW199635  12.665   9.658  11.195
65934SOL    HW299636  12.529   9.650  11.261
65935SOL     OW99637   7.184   8.640   6.527
65935SOL    HW199638   7.277   8.620   6.539
65935SOL    HW299639   7.183   8.718   6.472
65936SOL     OW99640   6.980   9.401   5.400
65936SOL    HW199641   6.898   9.443   5.373
65936SOL    HW299642   7.030   9.393   5.319
65937SOL     OW99643  11.964   2.693   0.549
65937SOL    HW199644  12.000   2.754   0.484
65937SOL    HW299645  12.009   2.716   0.631
65938SOL     OW99646  12.298   3.753   1.432
65938SOL    HW199647  12.382   3.791   1.455
65938SOL    HW299648  12.318   3.662   1.411
65939SOL     OW99649  11.569   8.904   5.073
65939SOL    HW199650  11.558   8.967   5.002
65939SOL    HW299651  11.609   8.955   5.144
65940SOL     OW99652   7.053   6.939   0.332
65940SOL    HW199653   7.088   7.023   0.360
65940SOL    HW299654   6.995   6.912   0.403
65941SOL     OW99655   9.280   4.631   2.570
65941SOL    HW199656   9.286   4.689   2.493
65941SOL    HW299657   9.317   4.548   2.540
65942SOL     OW99658   1.147  14.338   9.962
65942SOL    HW199659   1.212  14.409   9.965
65942SOL    HW299660   1.167  14.291   9.882
65943SOL     OW99661  12.826   5.052   8.781
65943SOL    HW199662  12.822   5.001   8.862
65943SOL    HW299663  12.827   4.986   8.712
65944SOL     OW99664   7.245   6.889   0.619
65944SOL    HW199665   7.324   6.933   0.588
65944SOL    HW299666   7.240   6.911   0.712
65945SOL     OW99667  13.450   6.446   1.884
65945SOL    HW199668  13.454   6.528   1.835
65945SOL    HW299669  13.531   6.401   1.860
65946SOL     OW99670  10.095   1.624   3.507
65946SOL    HW199671  10.122   1.587   3.423
65946SOL    HW299672  10.047   1.553   3.550
65947SOL     OW99673   6.396  14.643  11.520
65947SOL    HW199674   6.311  14.657  11.561
65947SOL    HW299675   6.376  14.592  11.441
65948SOL     OW99676   8.483   8.502   0.532
65948SOL    HW199677   8.468   8.513   0.626
65948SOL    HW299678   8.493   8.407   0.520
65949SOL     OW99679   3.879   1.338   9.461
65949SOL    HW199680   3.905   1.325   9.370
65949SOL    HW299681   3.858   1.432   9.466
65950SOL     OW99682   8.419   8.356   5.576
65950SOL    HW199683   8.490   8.412   5.544
65950SOL    HW299684   8.343   8.414   5.582
65951SOL     OW99685   5.902   7.253   3.546
65951SOL    HW199686   5.947   7.193   3.486
65951SOL    HW299687   5.929   7.223   3.633
65952SOL     OW99688  14.249  13.817   6.869
65952SOL    HW199689  14.336  13.822   6.909
65952SOL    HW299690  14.225  13.909   6.854
65953SOL     OW99691  13.241   5.031   1.595
65953SOL    HW199692  13.246   5.094   1.523
65953SOL    HW299693  13.310   5.058   1.656
65954SOL     OW99694   5.853  11.707  12.714
65954SOL    HW199695   5.947  11.700  12.702
65954SOL    HW299696   5.826  11.622  12.748
65955SOL     OW99697  12.982  13.151   7.013
65955SOL    HW199698  13.066  13.191   6.992
65955SOL    HW299699  12.974  13.161   7.108
65956SOL     OW99700  12.010   4.624  10.460
65956SOL    HW199701  12.052   4.592  10.380
65956SOL    HW299702  12.062   4.587  10.531
65957SOL     OW99703   2.260  13.018   6.475
65957SOL    HW199704   2.286  12.936   6.516
65957SOL    HW299705   2.308  13.086   6.524
65958SOL     OW99706   1.557   2.037   6.170
65958SOL    HW199707   1.603   1.979   6.108
65958SOL    HW299708   1.503   1.978   6.222
65959SOL     OW99709   7.207   7.002  13.988
65959SOL    HW199710   7.260   6.963  13.919
65959SOL    HW299711   7.117   6.978  13.965
65960SOL     OW99712   4.299  12.251   6.564
65960SOL    HW199713   4.251  12.327   6.597
65960SOL    HW299714   4.284  12.183   6.629
65961SOL     OW99715  14.682  14.202   4.350
65961SOL    HW199716  14.590  14.178   4.336
65961SOL    HW299717  14.680  14.267   4.420
65962SOL     OW99718   0.043  11.664   9.639
65962SOL    HW199719   0.027  11.602   9.569
65962SOL    HW299720   0.002  11.746   9.609
65963SOL     OW99721   7.287  11.096   5.544
65963SOL    HW199722   7.196  11.124   5.539
65963SOL    HW299723   7.338  11.175   5.524
65964SOL     OW99724  10.821  12.491   7.842
65964SOL    HW199725  10.779  12.532   7.767
65964SOL    HW299726  10.892  12.439   7.804
65965SOL     OW99727   3.368   4.352   5.322
65965SOL    HW199728   3.387   4.363   5.229
65965SOL    HW299729   3.285   4.397   5.335
65966SOL     OW99730   1.183   1.800   4.015
65966SOL    HW199731   1.103   1.794   4.068
65966SOL    HW299732   1.252   1.767   4.072
65967SOL     OW99733   0.756   0.047   2.057
65967SOL    HW199734   0.696   0.121   2.065
65967SOL    HW299735   0.708  14.846   2.094
65968SOL     OW99736   9.483  11.640   6.806
65968SOL    HW199737   9.527  11.723   6.785
65968SOL    HW299738   9.507  11.582   6.734
65969SOL     OW99739  12.431  14.124   3.268
65969SOL    HW199740  12.509  14.069   3.276
65969SOL    HW299741  12.443  14.170   3.185
65970SOL     OW99742  13.825  10.286  12.450
65970SOL    HW199743  13.864  10.199  12.438
65970SOL    HW299744  13.899  10.343  12.470
65971SOL     OW99745   3.387   0.689  11.410
65971SOL    HW199746   3.370   0.775  11.447
65971SOL    HW299747   3.325   0.680  11.338
65972SOL     OW99748  12.343  12.900   6.568
65972SOL    HW199749  12.347  12.831   6.501
65972SOL    HW299750  12.377  12.978   6.523
65973SOL     OW99751  10.872   0.398  14.709
65973SOL    HW199752  10.905   0.374  14.623
65973SOL    HW299753  10.821   0.322  14.738
65974SOL     OW99754   9.805   6.022  12.505
65974SOL    HW199755   9.890   6.033  12.462
65974SOL    HW299756   9.823   6.035  12.598
65975SOL     OW99757   8.275   3.754   1.098
65975SOL    HW199758   8.231   3.832   1.063
65975SOL    HW299759   8.350   3.788   1.145
65976SOL     OW99760  10.220   9.435  13.510
65976SOL    HW199761  10.215   9.467  13.419
65976SOL    HW299762  10.305   9.392  13.515
65977SOL     OW99763   5.831   6.294   7.386
65977SOL    HW199764   5.895   6.252   7.444
65977SOL    HW299765   5.868   6.381   7.369
65978SOL     OW99766  11.554  11.634   1.890
65978SOL    HW199767  11.591  11.705   1.838
65978SOL    HW299768  11.482  11.601   1.837
65979SOL     OW99769  14.845   0.449   4.052
65979SOL    HW199770  14.803   0.494   4.125
65979SOL    HW299771   0.060   0.426   4.084
65980SOL     OW99772   2.761   7.596  14.053
65980SOL    HW199773   2.776   7.589  14.148
65980SOL    HW299774   2.753   7.690  14.037
65981SOL     OW99775   5.801   5.615   7.347
65981SOL    HW199776   5.864   5.542   7.342
65981SOL    HW299777   5.748   5.594   7.424
65982SOL     OW99778   1.234   9.474   0.595
65982SOL    HW199779   1.271   9.523   0.669
65982SOL    HW299780   1.153   9.520   0.574
65983SOL     OW99781   1.998   4.191   0.336
65983SOL    HW199782   1.925   4.177   0.397
65983SOL    HW299783   1.978   4.274   0.293
65984SOL     OW99784   0.767  13.309   3.504
65984SOL    HW199785   0.822  13.310   3.582
65984SOL    HW299786   0.708  13.235   3.517
65985SOL     OW99787   5.288  12.094   7.654
65985SOL    HW199788   5.344  12.168   7.630
65985SOL    HW299789   5.316  12.023   7.597
65986SOL     OW99790  14.421   8.390   2.321
65986SOL    HW199791  14.479   8.323   2.357
65986SOL    HW299792  14.333   8.362   2.348
65987SOL     OW99793   2.598   6.307   6.298
65987SOL    HW199794   2.506   6.293   6.276
65987SOL    HW299795   2.633   6.359   6.226
65988SOL     OW99796   3.402   2.817   4.599
65988SOL    HW199797   3.451   2.735   4.609
65988SOL    HW299798   3.373   2.816   4.508
65989SOL     OW99799   4.836   1.660  12.248
65989SOL    HW199800   4.796   1.606  12.180
65989SOL    HW299801   4.875   1.733  12.201
65990SOL     OW99802  10.888  14.267   8.033
65990SOL    HW199803  10.877  14.175   8.007
65990SOL    HW299804  10.825  14.315   7.981
65991SOL     OW99805  11.769   8.214   5.887
65991SOL    HW199806  11.835   8.218   5.956
65991SOL    HW299807  11.685   8.219   5.934
65992SOL     OW99808   8.734   1.313  12.642
65992SOL    HW199809   8.710   1.246  12.578
65992SOL    HW299810   8.660   1.375  12.642
65993SOL     OW99811   2.430   0.778  13.488
65993SOL    HW199812   2.355   0.726  13.459
65993SOL    HW299813   2.394   0.865  13.505
65994SOL     OW99814   2.135   8.485   1.713
65994SOL    HW199815   2.061   8.512   1.768
65994SOL    HW299816   2.099   8.481   1.624
65995SOL     OW99817  12.867   7.208   3.622
65995SOL    HW199818  12.901   7.177   3.537
65995SOL    HW299819  12.860   7.303   3.613
65996SOL     OW99820  10.039   9.848  10.664
65996SOL    HW199821   9.978   9.774  10.661
65996SOL    HW299822   9.987   9.921  10.696
65997SOL     OW99823   3.253   7.774  14.432
65997SOL    HW199824   3.171   7.768  14.481
65997SOL    HW299825   3.241   7.851  14.376
65998SOL     OW99826  12.173  10.939  14.822
65998SOL    HW199827  12.089  10.917  14.862
65998SOL    HW299828  12.235  10.938   0.021
65999SOL     OW99829   1.009   8.146   9.462
65999SOL    HW199830   0.998   8.170   9.554
65999SOL    HW299831   1.050   8.059   9.465
66000SOL     OW99832  11.107  13.205   1.198
66000SOL    HW199833  11.196  13.240   1.205
66000SOL    HW299834  11.056  13.276   1.160
66001SOL     OW99835  13.013   7.776  14.781
66001SOL    HW199836  13.087   7.737  14.826
66001SOL    HW299837  13.044   7.862  14.754
66002SOL     OW99838   3.539   7.222   1.467
66002SOL    HW199839   3.591   7.143   1.456
66002SOL    HW299840   3.511   7.245   1.378
66003SOL     OW99841   5.630  10.546   8.603
66003SOL    HW199842   5.705  10.539   8.663
66003SOL    HW299843   5.554  10.546   8.661
66004SOL     OW99844  11.901  11.559  14.461
66004SOL    HW199845  11.824  11.605  14.426
66004SOL    HW299846  11.871  11.523  14.544
66005SOL     OW99847   3.052  10.188   1.026
66005SOL    HW199848   3.021  10.259   0.970
66005SOL    HW299849   3.135  10.161   0.986
66006SOL     OW99850  13.946   6.724   4.197
66006SOL    HW199851  13.950   6.629   4.189
66006SOL    HW299852  13.955   6.740   4.291
66007SOL     OW99853   3.398  12.135  13.830
66007SOL    HW199854   3.400  12.230  13.821
66007SOL    HW299855   3.345  12.119  13.908
66008SOL     OW99856   2.417   5.601  14.662
66008SOL    HW199857   2.454   5.689  14.665
66008SOL    HW299858   2.385   5.590  14.572
66009SOL     OW99859   6.209  11.006  12.904
66009SOL    HW199860   6.233  10.963  12.986
66009SOL    HW299861   6.189  10.934  12.844
66010SOL     OW99862   7.000   3.545  13.323
66010SOL    HW199863   7.067   3.557  13.256
66010SOL    HW299864   6.919   3.574  13.282
66011SOL     OW99865  11.266   9.550  10.257
66011SOL    HW199866  11.176   9.542  10.227
66011SOL    HW299867  11.317   9.496  10.196
66012SOL     OW99868   9.629   1.445  14.470
66012SOL    HW199869   9.675   1.525  14.493
66012SOL    HW299870   9.693   1.394  14.421
66013SOL     OW99871  14.160   1.800  13.819
66013SOL    HW199872  14.068   1.791  13.797
66013SOL    HW299873  14.160   1.852  13.899
66014SOL     OW99874   8.927  12.231   1.822
66014SOL    HW199875   8.906  12.282   1.900
66014SOL    HW299876   9.020  12.245   1.808
66015SOL     OW99877   3.139  12.783   8.604
66015SOL    HW199878   3.155  12.749   8.516
66015SOL    HW299879   3.057  12.833   8.596
66016SOL     OW99880  13.420   8.775   2.330
66016SOL    HW199881  13.463   8.728   2.403
66016SOL    HW299882  13.403   8.862   2.365
66017SOL     OW99883   4.151   9.282   0.285
66017SOL    HW199884   4.148   9.232   0.367
66017SOL    HW299885   4.217   9.237   0.232
66018SOL     OW99886   0.771  14.756   4.606
66018SOL    HW199887   0.713  14.684   4.580
66018SOL    HW299888   0.756  14.823   4.539
66019SOL     OW99889   1.146   1.849   1.948
66019SOL    HW199890   1.207   1.802   2.005
66019SOL    HW299891   1.185   1.841   1.860
66020SOL     OW99892   6.017   4.255   7.904
66020SOL    HW199893   5.936   4.261   7.852
66020SOL    HW299894   6.086   4.241   7.840
66021SOL     OW99895   6.005  14.395   7.251
66021SOL    HW199896   6.098  14.380   7.268
66021SOL    HW299897   5.960  14.331   7.307
66022SOL     OW99898   5.476   3.288   0.207
66022SOL    HW199899   5.438   3.345   0.140
66022SOL    HW299900   5.440   3.201   0.189
66023SOL     OW99901  10.049   2.078   5.969
66023SOL    HW199902  10.071   2.009   6.031
66023SOL    HW299903  10.128   2.133   5.965
66024SOL     OW99904  12.204   0.098  11.291
66024SOL    HW199905  12.185   0.006  11.270
66024SOL    HW299906  12.300   0.101  11.296
66025SOL     OW99907   9.196   3.951   1.579
66025SOL    HW199908   9.284   3.916   1.567
66025SOL    HW299909   9.145   3.912   1.507
66026SOL     OW99910  13.487  11.963   5.467
66026SOL    HW199911  13.432  12.000   5.398
66026SOL    HW299912  13.536  12.038   5.501
66027SOL     OW99913   8.937  12.837   5.987
66027SOL    HW199914   9.030  12.823   6.005
66027SOL    HW299915   8.892  12.778   6.046
66028SOL     OW99916   9.717   0.346   8.799
66028SOL    HW199917   9.663   0.343   8.877
66028SOL    HW299918   9.785   0.280   8.814
66029SOL     OW99919   8.644   2.929   5.129
66029SOL    HW199920   8.652   2.851   5.075
66029SOL    HW299921   8.691   2.907   5.210
66030SOL     OW99922   9.870   8.577  10.737
66030SOL    HW199923   9.927   8.567  10.661
66030SOL    HW299924   9.792   8.620  10.704
66031SOL     OW99925  10.982   2.875  14.337
66031SOL    HW199926  10.899   2.876  14.289
66031SOL    HW299927  10.960   2.910  14.423
66032SOL     OW99928   4.139   8.668  11.271
66032SOL    HW199929   4.128   8.688  11.364
66032SOL    HW299930   4.224   8.624  11.266
66033SOL     OW99931   2.509   7.715   0.149
66033SOL    HW199932   2.462   7.668   0.218
66033SOL    HW299933   2.444   7.727   0.079
66034SOL     OW99934  14.850   4.037   6.181
66034SOL    HW199935   0.053   3.993   6.220
66034SOL    HW299936   0.012   4.077   6.101
66035SOL     OW99937   2.007   8.966   8.156
66035SOL    HW199938   2.083   8.978   8.213
66035SOL    HW299939   1.943   9.029   8.188
66036SOL     OW99940   2.028  13.527  12.210
66036SOL    HW199941   2.102  13.467  12.216
66036SOL    HW299942   2.068  13.612  12.192
66037SOL     OW99943  12.037   9.169  10.903
66037SOL    HW199944  12.123   9.173  10.861
66037SOL    HW299945  11.995   9.253  10.882
66038SOL     OW99946   8.916  12.394   8.800
66038SOL    HW199947   8.855  12.339   8.849
66038SOL    HW299948   8.999  12.345   8.803
66039SOL     OW99949  10.895   3.549   6.986
66039SOL    HW199950  10.877   3.611   7.056
66039SOL    HW299951  10.982   3.514   7.006
66040SOL     OW99952   3.141   3.943   4.705
66040SOL    HW199953   3.143   3.992   4.623
66040SOL    HW299954   3.201   3.991   4.762
66041SOL     OW99955   6.697   3.508   2.834
66041SOL    HW199956   6.758   3.582   2.840
66041SOL    HW299957   6.723   3.449   2.904
66042SOL     OW99958   3.220  14.165   4.924
66042SOL    HW199959   3.314  14.163   4.908
66042SOL    HW299960   3.187  14.084   4.885
66043SOL     OW99961  14.712   9.175  14.471
66043SOL    HW199962  14.692   9.258  14.428
66043SOL    HW299963  14.630   9.150  14.513
66044SOL     OW99964   3.983   3.216  10.993
66044SOL    HW199965   3.944   3.278  10.931
66044SOL    HW299966   3.979   3.132  10.948
66045SOL     OW99967  13.776   8.130   5.823
66045SOL    HW199968  13.860   8.159   5.788
66045SOL    HW299969  13.792   8.042   5.855
66046SOL     OW99970   6.599   3.367   3.614
66046SOL    HW199971   6.593   3.278   3.648
66046SOL    HW299972   6.588   3.424   3.690
66047SOL     OW99973   7.398   2.886  10.894
66047SOL    HW199974   7.416   2.979  10.908
66047SOL    HW299975   7.305   2.881  10.875
66048SOL     OW99976  13.767   2.112   4.013
66048SOL    HW199977  13.787   2.206   4.011
66048SOL    HW299978  13.675   2.106   3.991
66049SOL     OW99979  13.633   1.651  13.836
66049SOL    HW199980  13.631   1.561  13.805
66049SOL    HW299981  13.554   1.691  13.800
66050SOL     OW99982  13.455   9.880   0.583
66050SOL    HW199983  13.482   9.802   0.535
66050SOL    HW299984  13.359   9.880   0.576
66051SOL     OW99985   9.410   2.381   1.253
66051SOL    HW199986   9.356   2.349   1.181
66051SOL    HW299987   9.498   2.387   1.217
66052SOL     OW99988  11.168   8.647   3.279
66052SOL    HW199989  11.136   8.684   3.362
66052SOL    HW299990  11.175   8.553   3.296
66053SOL     OW99991   7.103  13.155  11.363
66053SOL    HW199992   7.028  13.122  11.412
66053SOL    HW299993   7.065  13.212  11.296
66054SOL     OW99994  11.372   6.743   7.433
66054SOL    HW199995  11.291   6.695   7.448
66054SOL    HW299996  11.344   6.829   7.400
66055SOL     OW99997  14.505  10.739  14.167
66055SOL    HW199998  14.578  10.769  14.222
66055SOL    HW299999  14.546  10.716  14.084
66056SOL     OW    0   4.934   5.150  14.691
66056SOL    HW1    1   4.975   5.186  14.612
66056SOL    HW2    2   4.842   5.137  14.666
66057SOL     OW    3   0.400  13.135  13.952
66057SOL    HW1    4   0.343  13.153  14.027
66057SOL    HW2    5   0.447  13.055  13.976
66058SOL     OW    6   7.046  13.252   7.714
66058SOL    HW1    7   7.078  13.197   7.642
66058SOL    HW2    8   7.088  13.216   7.792
66059SOL     OW    9   4.286   2.297   5.313
66059SOL    HW1   10   4.311   2.379   5.357
66059SOL    HW2   11   4.191   2.292   5.325
66060SOL     OW   12   8.415   0.287   6.155
66060SOL    HW1   13   8.419   0.355   6.223
66060SOL    HW2   14   8.403   0.336   6.073
66061SOL     OW   15   8.383   6.606   6.639
66061SOL    HW1   16   8.420   6.540   6.698
66061SOL    HW2   17   8.411   6.690   6.677
66062SOL     OW   18   7.354   2.277   9.440
66062SOL    HW1   19   7.287   2.345   9.437
66062SOL    HW2   20   7.428   2.319   9.484
66063SOL     OW   21  12.982   3.421  13.943
66063SOL    HW1   22  13.018   3.508  13.958
66063SOL    HW2   23  12.894   3.425  13.981
66064SOL     OW   24  10.508  11.351   8.779
66064SOL    HW1   25  10.414  11.336   8.766
66064SOL    HW2   26  10.512  11.412   8.853
66065SOL     OW   27  14.642   6.795  12.802
66065SOL    HW1   28  14.689   6.851  12.863
66065SOL    HW2   29  14.704   6.781  12.730
66066SOL     OW   30   9.302   2.739   0.798
66066SOL    HW1   31   9.301   2.673   0.729
66066SOL    HW2   32   9.347   2.697   0.871
66067SOL     OW   33  10.797   7.975  13.318
66067SOL    HW1   34  10.791   7.882  13.298
66067SOL    HW2   35  10.813   7.979  13.412
66068SOL     OW   36   4.570   0.483  13.778
66068SOL    HW1   37   4.619   0.554  13.736
66068SOL    HW2   38   4.601   0.404  13.735
66069SOL     OW   39  11.392   6.521   1.987
66069SOL    HW1   40  11.409   6.450   2.049
66069SOL    HW2   41  11.296   6.522   1.978
66070SOL     OW   42   3.904   7.170   3.077
66070SOL    HW1   43   3.987   7.183   3.030
66070SOL    HW2   44   3.838   7.209   3.019
66071SOL     OW   45   9.902   5.390  13.060
66071SOL    HW1   46   9.845   5.466  13.043
66071SOL    HW2   47   9.858   5.342  13.130
66072SOL     OW   48   7.353  11.966   9.406
66072SOL    HW1   49   7.278  11.998   9.456
66072SOL    HW2   50   7.330  11.876   9.382
66073SOL     OW   51   8.537   0.110   5.859
66073SOL    HW1   52   8.569   0.094   5.770
66073SOL    HW2   53   8.446   0.083   5.857
66074SOL     OW   54  10.987   5.461  10.356
66074SOL    HW1   55  11.037   5.499  10.428
66074SOL    HW2   56  10.898   5.454  10.391
66075SOL     OW   57  10.019   5.654   5.779
66075SOL    HW1   58   9.937   5.630   5.823
66075SOL    HW2   59  10.012   5.748   5.764
66076SOL     OW   60   6.804   2.761   3.444
66076SOL    HW1   61   6.732   2.815   3.412
66076SOL    HW2   62   6.878   2.784   3.389
66077SOL     OW   63   3.457  10.113   7.723
66077SOL    HW1   64   3.493  10.141   7.639
66077SOL    HW2   65   3.491  10.176   7.786
66078SOL     OW   66  11.938  13.296   2.075
66078SOL    HW1   67  11.951  13.213   2.121
66078SOL    HW2   68  11.853  13.328   2.106
66079SOL     OW   69   3.193  10.218  14.698
66079SOL    HW1   70   3.164  10.289  14.755
66079SOL    HW2   71   3.132  10.219  14.625
66080SOL     OW   72   2.806  11.944  13.534
66080SOL    HW1   73   2.751  11.893  13.474
66080SOL    HW2   74   2.783  11.912  13.621
66081SOL     OW   75   6.875   3.188   6.368
66081SOL    HW1   76   6.957   3.172   6.322
66081SOL    HW2   77   6.811   3.203   6.298
66082SOL     OW   78   2.204  13.123   7.337
66082SOL    HW1   79   2.280  13.126   7.279
66082SOL    HW2   80   2.152  13.199   7.311
66083SOL     OW   81   3.836   7.404   5.447
66083SOL    HW1   82   3.800   7.389   5.534
66083SOL    HW2   83   3.923   7.441   5.463
66084SOL     OW   84   0.555  11.510  12.705
66084SOL    HW1   85   0.481  11.519  12.765
66084SOL    HW2   86   0.515  11.495  12.619
66085SOL     OW   87  12.526   2.924   3.619
66085SOL    HW1   88  12.487   2.837   3.623
66085SOL    HW2   89  12.558   2.941   3.707
66086SOL     OW   90   5.105   2.142   6.396
66086SOL    HW1   91   5.191   2.181   6.412
66086SOL    HW2   92   5.114   2.052   6.425
66087SOL     OW   93   2.797   0.898  11.004
66087SOL    HW1   94   2.838   0.951  10.934
66087SOL    HW2   95   2.835   0.932  11.085
66088SOL     OW   96   2.437  12.494   1.003
66088SOL    HW1   97   2.500  12.422   1.009
66088SOL    HW2   98   2.353  12.451   0.990
66089SOL     OW   99   7.793   8.361   1.443
66089SOL    HW1  100   7.774   8.440   1.494
66089SOL    HW2  101   7.745   8.291   1.488
66090SOL     OW  102  13.007  13.952   6.659
66090SOL    HW1  103  12.984  13.998   6.578
66090SOL    HW2  104  13.100  13.931   6.649
66091SOL     OW  105   9.481   6.718   2.610
66091SOL    HW1  106   9.424   6.707   2.686
66091SOL    HW2  107   9.568   6.731   2.647
66092SOL     OW  108  12.215   1.338   7.093
66092SOL    HW1  109  12.171   1.329   7.008
66092SOL    HW2  110  12.157   1.294   7.155
66093SOL     OW  111   5.883   3.864  13.076
66093SOL    HW1  112   5.919   3.880  12.989
66093SOL    HW2  113   5.810   3.805  13.062
66094SOL     OW  114   0.858  12.389   8.175
66094SOL    HW1  115   0.881  12.354   8.261
66094SOL    HW2  116   0.941  12.415   8.136
66095SOL     OW  117  14.253   9.151  11.727
66095SOL    HW1  118  14.287   9.183  11.644
66095SOL    HW2  119  14.245   9.056  11.715
66096SOL     OW  120   0.195  12.433  11.544
66096SOL    HW1  121   0.117  12.463  11.591
66096SOL    HW2  122   0.267  12.450  11.605
66097SOL     OW  123   3.841   3.795  13.366
66097SOL    HW1  124   3.895   3.740  13.422
66097SOL    HW2  125   3.751   3.766  13.383
66098SOL     OW  126  13.682  11.993   4.905
66098SOL    HW1  127  13.647  11.947   4.981
66098SOL    HW2  128  13.764  12.032   4.935
66099SOL     OW  129   3.518  14.487   7.607
66099SOL    HW1  130   3.470  14.570   7.607
66099SOL    HW2  131   3.522  14.461   7.515
66100SOL     OW  132   1.520  13.928   0.152
66100SOL    HW1  133   1.588  13.982   0.112
66100SOL    HW2  134   1.567  13.854   0.190
66101SOL     OW  135   9.409   5.607   9.701
66101SOL    HW1  136   9.346   5.575   9.765
66101SOL    HW2  137   9.356   5.655   9.637
66102SOL     OW  138  13.556   7.103   3.298
66102SOL    HW1  139  13.516   7.184   3.329
66102SOL    HW2  140  13.527   7.095   3.207
66103SOL     OW  141  12.578   0.000  11.044
66103SOL    HW1  142  12.631   0.074  11.012
66103SOL    HW2  143  12.562   0.020  11.136
66104SOL     OW  144   3.540  10.079  12.875
66104SOL    HW1  145   3.557  10.163  12.832
66104SOL    HW2  146   3.457  10.049  12.837
66105SOL     OW  147   9.707   6.520  10.665
66105SOL    HW1  148   9.618   6.528  10.700
66105SOL    HW2  149   9.695   6.513  10.570
66106SOL     OW  150   9.024   5.946   3.769
66106SOL    HW1  151   8.988   5.870   3.723
66106SOL    HW2  152   9.003   6.020   3.711
66107SOL     OW  153   7.644   3.037   9.682
66107SOL    HW1  154   7.619   3.005   9.596
66107SOL    HW2  155   7.565   3.077   9.717
66108SOL     OW  156   8.662   5.205   5.259
66108SOL    HW1  157   8.647   5.112   5.279
66108SOL    HW2  158   8.692   5.243   5.341
66109SOL     OW  159  10.923  14.630   7.130
66109SOL    HW1  160  10.930  14.724   7.110
66109SOL    HW2  161  10.910  14.589   7.044
66110SOL     OW  162   5.518   2.306  13.152
66110SOL    HW1  163   5.599   2.357  13.164
66110SOL    HW2  164   5.531   2.262  13.068
66111SOL     OW  165   4.164  10.142   5.856
66111SOL    HW1  166   4.085  10.169   5.905
66111SOL    HW2  167   4.237  10.166   5.914
66112SOL     OW  168   8.660   9.592   3.601
66112SOL    HW1  169   8.684   9.627   3.515
66112SOL    HW2  170   8.669   9.497   3.593
66113SOL     OW  171  12.364   4.857   5.623
66113SOL    HW1  172  12.434   4.808   5.581
66113SOL    HW2  173  12.298   4.870   5.554
66114SOL     OW  174   0.775   9.943  12.930
66114SOL    HW1  175   0.851   9.996  12.903
66114SOL    HW2  176   0.809   9.887  13.000
66115SOL     OW  177   3.941  10.777   3.834
66115SOL    HW1  178   3.999  10.749   3.904
66115SOL    HW2  179   3.997  10.784   3.757
66116SOL     OW  180   1.363  12.374   1.708
66116SOL    HW1  181   1.349  12.388   1.802
66116SOL    HW2  182   1.437  12.432   1.687
66117SOL     OW  183   7.685   7.163  11.054
66117SOL    HW1  184   7.599   7.125  11.033
66117SOL    HW2  185   7.671   7.257  11.050
66118SOL     OW  186   0.652   0.898  11.641
66118SOL    HW1  187   0.611   0.833  11.584
66118SOL    HW2  188   0.701   0.955  11.581
66119SOL     OW  189   6.757   0.781   5.567
66119SOL    HW1  190   6.698   0.802   5.640
66119SOL    HW2  191   6.844   0.801   5.602
66120SOL     OW  192   9.589  10.969   5.644
66120SOL    HW1  193   9.508  10.919   5.655
66120SOL    HW2  194   9.659  10.907   5.664
66121SOL     OW  195   2.749   1.267  12.294
66121SOL    HW1  196   2.704   1.182  12.301
66121SOL    HW2  197   2.716   1.317  12.369
66122SOL     OW  198   7.252   1.101   6.492
66122SOL    HW1  199   7.162   1.078   6.517
66122SOL    HW2  200   7.305   1.074   6.566
66123SOL     OW  201   6.176  12.225  13.014
66123SOL    HW1  202   6.153  12.276  12.936
66123SOL    HW2  203   6.098  12.173  13.032
66124SOL     OW  204  10.968   2.472   9.237
66124SOL    HW1  205  10.927   2.432   9.160
66124SOL    HW2  206  10.978   2.564   9.214
66125SOL     OW  207   8.735  12.956   3.154
66125SOL    HW1  208   8.691  12.871   3.145
66125SOL    HW2  209   8.797  12.942   3.226
66126SOL     OW  210  11.732  10.877   6.583
66126SOL    HW1  211  11.741  10.936   6.658
66126SOL    HW2  212  11.747  10.933   6.506
66127SOL     OW  213  12.952  14.422  12.886
66127SOL    HW1  214  12.870  14.423  12.836
66127SOL    HW2  215  12.965  14.330  12.909
66128SOL     OW  216   9.968   9.090   9.093
66128SOL    HW1  217  10.036   9.065   9.030
66128SOL    HW2  218   9.933   9.007   9.125
66129SOL     OW  219   1.438  10.972   6.003
66129SOL    HW1  220   1.451  11.056   6.048
66129SOL    HW2  221   1.353  10.981   5.960
66130SOL     OW  222   4.278   9.659   2.323
66130SOL    HW1  223   4.365   9.662   2.362
66130SOL    HW2  224   4.294   9.671   2.229
66131SOL     OW  225  12.238  13.227   4.586
66131SOL    HW1  226  12.167  13.215   4.523
66131SOL    HW2  227  12.237  13.321   4.605
66132SOL     OW  228  13.816   3.440   3.772
66132SOL    HW1  229  13.845   3.417   3.860
66132SOL    HW2  230  13.764   3.365   3.743
66133SOL     OW  231   4.683   5.593   8.835
66133SOL    HW1  232   4.749   5.525   8.850
66133SOL    HW2  233   4.657   5.622   8.922
66134SOL     OW  234   1.026  13.052  11.215
66134SOL    HW1  235   1.111  13.053  11.259
66134SOL    HW2  236   0.969  13.002  11.274
66135SOL     OW  237   7.234   1.084   1.299
66135SOL    HW1  238   7.304   1.127   1.349
66135SOL    HW2  239   7.178   1.044   1.366
66136SOL     OW  240   0.001   7.264  11.629
66136SOL    HW1  241   0.021   7.218  11.547
66136SOL    HW2  242  14.790   7.307  11.613
66137SOL     OW  243   9.600  12.125   4.544
66137SOL    HW1  244   9.539  12.070   4.592
66137SOL    HW2  245   9.551  12.154   4.467
66138SOL     OW  246  13.540  12.060   6.662
66138SOL    HW1  247  13.489  12.013   6.596
66138SOL    HW2  248  13.477  12.082   6.730
66139SOL     OW  249  13.136  12.035  13.182
66139SOL    HW1  250  13.062  12.091  13.205
66139SOL    HW2  251  13.189  12.089  13.123
66140SOL     OW  252   3.267   0.817   2.597
66140SOL    HW1  253   3.248   0.837   2.688
66140SOL    HW2  254   3.195   0.857   2.548
66141SOL     OW  255   3.224  13.895   8.520
66141SOL    HW1  256   3.180  13.885   8.435
66141SOL    HW2  257   3.153  13.885   8.584
66142SOL     OW  258  12.773  13.130   7.333
66142SOL    HW1  259  12.721  13.113   7.412
66142SOL    HW2  260  12.859  13.155   7.367
66143SOL     OW  261  12.649   5.894   1.998
66143SOL    HW1  262  12.583   5.828   2.017
66143SOL    HW2  263  12.630   5.922   1.908
66144SOL     OW  264   7.655   7.876   5.739
66144SOL    HW1  265   7.650   7.781   5.751
66144SOL    HW2  266   7.623   7.912   5.822
66145SOL     OW  267   8.117   5.461   7.388
66145SOL    HW1  268   8.103   5.533   7.450
66145SOL    HW2  269   8.209   5.469   7.363
66146SOL     OW  270   3.849   4.251   8.861
66146SOL    HW1  271   3.836   4.156   8.865
66146SOL    HW2  272   3.925   4.262   8.804
66147SOL     OW  273  14.723   3.248   3.199
66147SOL    HW1  274  14.777   3.274   3.125
66147SOL    HW2  275  14.785   3.235   3.271
66148SOL     OW  276   6.242   2.154   6.723
66148SOL    HW1  277   6.256   2.197   6.808
66148SOL    HW2  278   6.147   2.154   6.711
66149SOL     OW  279  10.934   5.971   5.525
66149SOL    HW1  280  10.923   5.979   5.619
66149SOL    HW2  281  10.942   6.061   5.494
66150SOL     OW  282   1.927   7.520   9.755
66150SOL    HW1  283   2.000   7.496   9.698
66150SOL    HW2  284   1.850   7.487   9.709
66151SOL     OW  285  12.496  11.512   1.987
66151SOL    HW1  286  12.523  11.442   2.047
66151SOL    HW2  287  12.414  11.545   2.024
66152SOL     OW  288   5.122   5.976   3.002
66152SOL    HW1  289   5.144   6.068   2.992
66152SOL    HW2  290   5.206   5.931   3.012
66153SOL     OW  291   9.572   6.122  13.626
66153SOL    HW1  292   9.588   6.045  13.571
66153SOL    HW2  293   9.522   6.088  13.700
66154SOL     OW  294   0.420   3.433  11.035
66154SOL    HW1  295   0.484   3.368  11.007
66154SOL    HW2  296   0.414   3.422  11.130
66155SOL     OW  297   8.519   7.092   0.544
66155SOL    HW1  298   8.523   7.037   0.466
66155SOL    HW2  299   8.482   7.175   0.513
66156SOL     OW  300  12.138   6.145   5.655
66156SOL    HW1  301  12.229   6.135   5.627
66156SOL    HW2  302  12.115   6.234   5.630
66157SOL     OW  303   2.235   6.820   0.249
66157SOL    HW1  304   2.200   6.909   0.240
66157SOL    HW2  305   2.291   6.809   0.173
66158SOL     OW  306   8.577   2.381   2.465
66158SOL    HW1  307   8.530   2.459   2.435
66158SOL    HW2  308   8.636   2.413   2.533
66159SOL     OW  309   1.789   4.603  11.389
66159SOL    HW1  310   1.827   4.685  11.418
66159SOL    HW2  311   1.712   4.629  11.338
66160SOL     OW  312  12.950  13.944   5.597
66160SOL    HW1  313  12.893  13.880   5.555
66160SOL    HW2  314  12.990  13.992   5.524
66161SOL     OW  315   8.866   2.981   2.443
66161SOL    HW1  316   8.921   2.912   2.479
66161SOL    HW2  317   8.858   2.959   2.350
66162SOL     OW  318   8.697   7.998  10.864
66162SOL    HW1  319   8.762   8.050  10.911
66162SOL    HW2  320   8.746   7.958  10.792
66163SOL     OW  321  12.602   6.529  12.199
66163SOL    HW1  322  12.617   6.605  12.256
66163SOL    HW2  323  12.686   6.515  12.155
66164SOL     OW  324  11.369   5.056   7.423
66164SOL    HW1  325  11.446   5.063   7.479
66164SOL    HW2  326  11.348   5.146   7.398
66165SOL     OW  327   7.339   9.271   2.120
66165SOL    HW1  328   7.298   9.184   2.126
66165SOL    HW2  329   7.317   9.313   2.203
66166SOL     OW  330   8.047   2.090   7.370
66166SOL    HW1  331   8.091   2.010   7.401
66166SOL    HW2  332   7.979   2.106   7.435
66167SOL     OW  333   5.954   3.560  14.364
66167SOL    HW1  334   5.965   3.498  14.292
66167SOL    HW2  335   6.015   3.631  14.343
66168SOL     OW  336   2.433   5.607   0.600
66168SOL    HW1  337   2.495   5.616   0.527
66168SOL    HW2  338   2.353   5.576   0.559
66169SOL     OW  339   3.190   6.803  12.867
66169SOL    HW1  340   3.158   6.874  12.923
66169SOL    HW2  341   3.258   6.844  12.814
66170SOL     OW  342  12.717   3.873  10.932
66170SOL    HW1  343  12.783   3.852  10.866
66170SOL    HW2  344  12.721   3.801  10.995
66171SOL     OW  345  12.565   7.309   8.693
66171SOL    HW1  346  12.512   7.269   8.762
66171SOL    HW2  347  12.632   7.359   8.739
66172SOL     OW  348   7.514  12.486   8.809
66172SOL    HW1  349   7.482  12.576   8.818
66172SOL    HW2  350   7.488  12.461   8.720
66173SOL     OW  351  13.280   6.717   6.523
66173SOL    HW1  352  13.246   6.697   6.610
66173SOL    HW2  353  13.286   6.812   6.520
66174SOL     OW  354  12.161   5.357   6.190
66174SOL    HW1  355  12.103   5.419   6.147
66174SOL    HW2  356  12.246   5.372   6.149
66175SOL     OW  357   1.112   8.620   0.222
66175SOL    HW1  358   1.098   8.592   0.313
66175SOL    HW2  359   1.032   8.666   0.198
66176SOL     OW  360  13.002   2.506  14.100
66176SOL    HW1  361  12.970   2.570  14.163
66176SOL    HW2  362  13.090   2.537  14.077
66177SOL     OW  363   2.477   4.677   4.693
66177SOL    HW1  364   2.466   4.709   4.783
66177SOL    HW2  365   2.545   4.610   4.700
66178SOL     OW  366   1.143  12.335   3.111
66178SOL    HW1  367   1.194  12.414   3.094
66178SOL    HW2  368   1.188  12.266   3.061
66179SOL     OW  369  10.425   1.387   5.125
66179SOL    HW1  370  10.487   1.378   5.197
66179SOL    HW2  371  10.355   1.325   5.146
66180SOL     OW  372  10.858  10.229   6.993
66180SOL    HW1  373  10.799  10.202   7.063
66180SOL    HW2  374  10.800  10.247   6.919
66181SOL     OW  375   5.220   8.682   2.652
66181SOL    HW1  376   5.213   8.597   2.695
66181SOL    HW2  377   5.195   8.665   2.561
66182SOL     OW  378   5.804  13.034   0.274
66182SOL    HW1  379   5.726  13.055   0.325
66182SOL    HW2  380   5.877  13.065   0.327
66183SOL     OW  381  13.602   9.702  13.717
66183SOL    HW1  382  13.613   9.624  13.663
66183SOL    HW2  383  13.508   9.721  13.714
66184SOL     OW  384  14.715   1.966   7.499
66184SOL    HW1  385  14.645   2.004   7.446
66184SOL    HW2  386  14.691   1.989   7.589
66185SOL     OW  387   2.861  14.189  12.592
66185SOL    HW1  388   2.828  14.169  12.504
66185SOL    HW2  389   2.790  14.240  12.632
66186SOL     OW  390  11.832   3.583  11.438
66186SOL    HW1  391  11.810   3.587  11.531
66186SOL    HW2  392  11.780   3.510  11.404
66187SOL     OW  393  10.568   8.925   6.553
66187SOL    HW1  394  10.560   9.015   6.523
66187SOL    HW2  395  10.644   8.927   6.612
66188SOL     OW  396   1.691  14.624  11.732
66188SOL    HW1  397   1.708  14.707  11.687
66188SOL    HW2  398   1.677  14.649  11.823
66189SOL     OW  399  10.820  13.203   5.612
66189SOL    HW1  400  10.833  13.223   5.519
66189SOL    HW2  401  10.860  13.277   5.657
66190SOL     OW  402  13.922  12.491   7.035
66190SOL    HW1  403  13.894  12.580   7.056
66190SOL    HW2  404  13.978  12.502   6.958
66191SOL     OW  405   5.802   4.304   7.668
66191SOL    HW1  406   5.790   4.376   7.605
66191SOL    HW2  407   5.731   4.243   7.648
66192SOL     OW  408   1.287   5.952   3.336
66192SOL    HW1  409   1.359   5.926   3.395
66192SOL    HW2  410   1.245   6.025   3.381
66193SOL     OW  411   6.201  11.577   7.908
66193SOL    HW1  412   6.218  11.638   7.836
66193SOL    HW2  413   6.139  11.514   7.871
66194SOL     OW  414  10.435  12.328  13.727
66194SOL    HW1  415  10.488  12.380  13.786
66194SOL    HW2  416  10.400  12.391  13.664
66195SOL     OW  417  11.660   0.601  12.837
66195SOL    HW1  418  11.639   0.508  12.838
66195SOL    HW2  419  11.735   0.609  12.896
66196SOL     OW  420   8.016   5.302   9.966
66196SOL    HW1  421   7.974   5.327  10.049
66196SOL    HW2  422   8.052   5.214   9.983
66197SOL     OW  423  13.688  14.284   0.739
66197SOL    HW1  424  13.710  14.376   0.754
66197SOL    HW2  425  13.637  14.258   0.816
66198SOL     OW  426  10.364  10.198   9.029
66198SOL    HW1  427  10.366  10.283   8.984
66198SOL    HW2  428  10.290  10.152   8.989
66199SOL     OW  429   9.710   6.132   1.950
66199SOL    HW1  430   9.688   6.042   1.928
66199SOL    HW2  431   9.789   6.151   1.899
66200SOL     OW  432   5.173  13.268   3.823
66200SOL    HW1  433   5.203  13.182   3.852
66200SOL    HW2  434   5.237  13.295   3.757
66201SOL     OW  435   3.902   6.531   4.757
66201SOL    HW1  436   3.935   6.581   4.683
66201SOL    HW2  437   3.980   6.503   4.804
66202SOL     OW  438   5.821   5.981   4.527
66202SOL    HW1  439   5.818   5.908   4.589
66202SOL    HW2  440   5.731   5.989   4.495
66203SOL     OW  441   0.711   2.812  12.433
66203SOL    HW1  442   0.615   2.802  12.436
66203SOL    HW2  443   0.730   2.823  12.340
66204SOL     OW  444   7.506   5.717   3.241
66204SOL    HW1  445   7.496   5.639   3.186
66204SOL    HW2  446   7.447   5.702   3.315
66205SOL     OW  447   7.364  12.888  13.395
66205SOL    HW1  448   7.409  12.804  13.385
66205SOL    HW2  449   7.381  12.914  13.486
66206SOL     OW  450   3.674   1.308   1.677
66206SOL    HW1  451   3.762   1.343   1.665
66206SOL    HW2  452   3.671   1.284   1.770
66207SOL     OW  453   5.714   9.324  12.458
66207SOL    HW1  454   5.678   9.381  12.526
66207SOL    HW2  455   5.638   9.295  12.408
66208SOL     OW  456  13.274  12.300  14.199
66208SOL    HW1  457  13.276  12.269  14.290
66208SOL    HW2  458  13.346  12.363  14.194
66209SOL     OW  459   0.272   6.763   4.219
66209SOL    HW1  460   0.263   6.823   4.145
66209SOL    HW2  461   0.339   6.802   4.274
66210SOL     OW  462   9.741  13.751   8.706
66210SOL    HW1  463   9.689  13.821   8.668
66210SOL    HW2  464   9.755  13.690   8.634
66211SOL     OW  465  10.027   1.890   2.283
66211SOL    HW1  466  10.031   1.924   2.194
66211SOL    HW2  467  10.044   1.796   2.273
66212SOL     OW  468   1.753   5.232  10.577
66212SOL    HW1  469   1.814   5.288  10.625
66212SOL    HW2  470   1.769   5.252  10.485
66213SOL     OW  471  14.311  12.105   4.259
66213SOL    HW1  472  14.348  12.017   4.247
66213SOL    HW2  473  14.281  12.107   4.350
66214SOL     OW  474  13.257   3.877   1.060
66214SOL    HW1  475  13.195   3.825   1.111
66214SOL    HW2  476  13.308   3.813   1.010
66215SOL     OW  477   7.294   9.063   7.318
66215SOL    HW1  478   7.208   9.036   7.285
66215SOL    HW2  479   7.323   9.131   7.258
66216SOL     OW  480   2.242  14.717   2.450
66216SOL    HW1  481   2.244  14.760   2.365
66216SOL    HW2  482   2.181  14.770   2.502
66217SOL     OW  483   2.542   5.187   0.248
66217SOL    HW1  484   2.491   5.109   0.271
66217SOL    HW2  485   2.528   5.247   0.321
66218SOL     OW  486  10.477  12.171   1.526
66218SOL    HW1  487  10.509  12.261   1.526
66218SOL    HW2  488  10.385  12.178   1.501
66219SOL     OW  489   1.850  10.752   1.838
66219SOL    HW1  490   1.883  10.697   1.768
66219SOL    HW2  491   1.757  10.731   1.844
66220SOL     OW  492   8.348   3.630   6.431
66220SOL    HW1  493   8.276   3.598   6.486
66220SOL    HW2  494   8.422   3.574   6.454
66221SOL     OW  495   1.563   1.202  13.648
66221SOL    HW1  496   1.553   1.295  13.667
66221SOL    HW2  497   1.624   1.199  13.574
66222SOL     OW  498   6.095  12.706   1.520
66222SOL    HW1  499   6.094  12.644   1.593
66222SOL    HW2  500   6.031  12.672   1.458
66223SOL     OW  501   3.842   2.183   1.157
66223SOL    HW1  502   3.774   2.199   1.092
66223SOL    HW2  503   3.916   2.147   1.107
66224SOL     OW  504   6.344  14.620   7.283
66224SOL    HW1  505   6.390  14.652   7.206
66224SOL    HW2  506   6.324  14.528   7.263
66225SOL     OW  507   5.021  13.473   7.786
66225SOL    HW1  508   5.058  13.453   7.700
66225SOL    HW2  509   5.093  13.515   7.834
66226SOL     OW  510   4.258  11.917   7.806
66226SOL    HW1  511   4.220  11.998   7.772
66226SOL    HW2  512   4.341  11.907   7.759
66227SOL     OW  513   4.402   0.993  14.004
66227SOL    HW1  514   4.440   0.944  14.076
66227SOL    HW2  515   4.441   0.954  13.925
66228SOL     OW  516   9.539  12.293   0.369
66228SOL    HW1  517   9.485  12.230   0.417
66228SOL    HW2  518   9.483  12.370   0.357
66229SOL     OW  519  13.022   9.190  11.988
66229SOL    HW1  520  13.109   9.153  12.002
66229SOL    HW2  521  13.005   9.174  11.895
66230SOL     OW  522   6.563  10.107   2.300
66230SOL    HW1  523   6.601  10.153   2.225
66230SOL    HW2  524   6.638  10.063   2.342
66231SOL     OW  525  12.758   5.405   5.575
66231SOL    HW1  526  12.689   5.414   5.509
66231SOL    HW2  527  12.836   5.384   5.524
66232SOL     OW  528   6.069   0.167   0.073
66232SOL    HW1  529   6.149   0.122   0.044
66232SOL    HW2  530   6.097   0.257   0.091
66233SOL     OW  531   1.797  11.488   5.041
66233SOL    HW1  532   1.733  11.556   5.060
66233SOL    HW2  533   1.833  11.463   5.126
66234SOL     OW  534   0.928   7.792   0.295
66234SOL    HW1  535   0.912   7.852   0.367
66234SOL    HW2  536   0.922   7.846   0.216
66235SOL     OW  537   8.491  11.626   7.849
66235SOL    HW1  538   8.452  11.702   7.891
66235SOL    HW2  539   8.511  11.656   7.760
66236SOL     OW  540  11.657   8.061  11.782
66236SOL    HW1  541  11.712   8.138  11.767
66236SOL    HW2  542  11.570   8.087  11.754
66237SOL     OW  543   1.526   8.522   9.641
66237SOL    HW1  544   1.608   8.503   9.593
66237SOL    HW2  545   1.483   8.437   9.647
66238SOL     OW  546   7.586   3.707   1.595
66238SOL    HW1  547   7.538   3.643   1.543
66238SOL    HW2  548   7.637   3.654   1.657
66239SOL     OW  549  12.579   3.927   9.050
66239SOL    HW1  550  12.555   3.854   8.993
66239SOL    HW2  551  12.545   3.903   9.136
66240SOL     OW  552   8.724  14.109   1.600
66240SOL    HW1  553   8.767  14.093   1.684
66240SOL    HW2  554   8.740  14.202   1.583
66241SOL     OW  555   8.013   3.391   0.478
66241SOL    HW1  556   7.935   3.341   0.455
66241SOL    HW2  557   7.980   3.464   0.530
66242SOL     OW  558   3.353  14.648  10.676
66242SOL    HW1  559   3.371  14.563  10.715
66242SOL    HW2  560   3.438  14.692  10.672
66243SOL     OW  561   7.509  13.181  10.865
66243SOL    HW1  562   7.567  13.208  10.936
66243SOL    HW2  563   7.500  13.259  10.810
66244SOL     OW  564   7.349   8.288  13.854
66244SOL    HW1  565   7.285   8.338  13.803
66244SOL    HW2  566   7.433   8.328  13.833
66245SOL     OW  567  11.990   0.643  12.180
66245SOL    HW1  568  12.020   0.592  12.255
66245SOL    HW2  569  11.909   0.600  12.152
66246SOL     OW  570   1.482   0.788   6.596
66246SOL    HW1  571   1.388   0.790   6.616
66246SOL    HW2  572   1.516   0.870   6.632
66247SOL     OW  573  11.797  14.688   6.278
66247SOL    HW1  574  11.800  14.768   6.225
66247SOL    HW2  575  11.761  14.717   6.362
66248SOL     OW  576   3.514   9.541  14.072
66248SOL    HW1  577   3.522   9.614  14.133
66248SOL    HW2  578   3.595   9.491  14.083
66249SOL     OW  579  13.271   5.861   2.242
66249SOL    HW1  580  13.245   5.866   2.334
66249SOL    HW2  581  13.198   5.902   2.194
66250SOL     OW  582   0.091   5.221  11.509
66250SOL    HW1  583   0.074   5.179  11.425
66250SOL    HW2  584   0.015   5.198  11.563
66251SOL     OW  585  12.825   1.670   2.766
66251SOL    HW1  586  12.733   1.672   2.739
66251SOL    HW2  587  12.826   1.611   2.841
66252SOL     OW  588   4.648  10.104   1.026
66252SOL    HW1  589   4.561  10.072   1.004
66252SOL    HW2  590   4.669  10.063   1.110
66253SOL     OW  591  11.811   5.878   6.177
66253SOL    HW1  592  11.753   5.887   6.102
66253SOL    HW2  593  11.782   5.947   6.237
66254SOL     OW  594   7.265   4.050  13.058
66254SOL    HW1  595   7.227   3.993  12.991
66254SOL    HW2  596   7.194   4.109  13.083
66255SOL     OW  597   8.005   9.409   4.141
66255SOL    HW1  598   7.995   9.438   4.051
66255SOL    HW2  599   8.034   9.317   4.134
66256SOL     OW  600   4.926   3.853  10.286
66256SOL    HW1  601   4.972   3.898  10.357
66256SOL    HW2  602   4.958   3.763  10.290
66257SOL     OW  603   5.407  13.048   5.657
66257SOL    HW1  604   5.324  13.067   5.700
66257SOL    HW2  605   5.432  13.130   5.616
66258SOL     OW  606   6.176   9.376   0.189
66258SOL    HW1  607   6.134   9.295   0.159
66258SOL    HW2  608   6.240   9.396   0.121
66259SOL     OW  609   7.549   8.157   1.935
66259SOL    HW1  610   7.584   8.194   2.016
66259SOL    HW2  611   7.569   8.223   1.868
66260SOL     OW  612   5.952  12.346   4.422
66260SOL    HW1  613   5.956  12.441   4.406
66260SOL    HW2  614   6.007  12.308   4.354
66261SOL     OW  615   9.816  12.498   1.071
66261SOL    HW1  616   9.776  12.578   1.035
66261SOL    HW2  617   9.785  12.428   1.014
66262SOL     OW  618   4.797  13.807   6.219
66262SOL    HW1  619   4.835  13.894   6.231
66262SOL    HW2  620   4.737  13.797   6.293
66263SOL     OW  621  13.307   7.208   5.016
66263SOL    HW1  622  13.354   7.154   5.080
66263SOL    HW2  623  13.292   7.291   5.062
66264SOL     OW  624   3.990   3.406   0.306
66264SOL    HW1  625   3.907   3.411   0.353
66264SOL    HW2  626   3.984   3.475   0.240
66265SOL     OW  627   6.221   0.941  14.865
66265SOL    HW1  628   6.270   1.020   0.018
66265SOL    HW2  629   6.193   0.960  14.775
66266SOL     OW  630   2.598   5.547  12.959
66266SOL    HW1  631   2.631   5.474  13.012
66266SOL    HW2  632   2.618   5.625  13.010
66267SOL     OW  633  13.278   9.822   1.115
66267SOL    HW1  634  13.209   9.879   1.149
66267SOL    HW2  635  13.345   9.823   1.184
66268SOL     OW  636   1.107  13.857   8.950
66268SOL    HW1  637   1.017  13.890   8.949
66268SOL    HW2  638   1.122  13.828   9.039
66269SOL     OW  639  10.005   4.858   7.327
66269SOL    HW1  640   9.968   4.936   7.369
66269SOL    HW2  641  10.086   4.888   7.287
66270SOL     OW  642   9.365   6.833  10.458
66270SOL    HW1  643   9.308   6.827  10.535
66270SOL    HW2  644   9.349   6.921  10.424
66271SOL     OW  645   7.310  10.939  12.468
66271SOL    HW1  646   7.330  10.919  12.376
66271SOL    HW2  647   7.223  10.902  12.482
66272SOL     OW  648  11.545  10.779   6.070
66272SOL    HW1  649  11.456  10.774   6.106
66272SOL    HW2  650  11.600  10.742   6.139
66273SOL     OW  651  12.190   2.356   4.497
66273SOL    HW1  652  12.149   2.270   4.493
66273SOL    HW2  653  12.187   2.388   4.407
66274SOL     OW  654   9.040  12.626   8.031
66274SOL    HW1  655   9.133  12.609   8.046
66274SOL    HW2  656   9.028  12.717   8.058
66275SOL     OW  657  11.740   1.105   3.199
66275SOL    HW1  658  11.714   1.195   3.219
66275SOL    HW2  659  11.725   1.057   3.280
66276SOL     OW  660  11.133  12.057   8.141
66276SOL    HW1  661  11.060  12.112   8.171
66276SOL    HW2  662  11.159  12.097   8.058
66277SOL     OW  663   5.637  11.956   4.657
66277SOL    HW1  664   5.699  12.006   4.604
66277SOL    HW2  665   5.673  11.867   4.657
66278SOL     OW  666  12.062  13.688   8.542
66278SOL    HW1  667  12.134  13.674   8.604
66278SOL    HW2  668  11.985  13.650   8.586
66279SOL     OW  669   6.278   1.892   8.898
66279SOL    HW1  670   6.221   1.823   8.932
66279SOL    HW2  671   6.263   1.966   8.957
66280SOL     OW  672  11.064   1.216   6.162
66280SOL    HW1  673  11.086   1.123   6.167
66280SOL    HW2  674  11.002   1.230   6.233
66281SOL     OW  675   1.342   4.163   2.352
66281SOL    HW1  676   1.332   4.258   2.344
66281SOL    HW2  677   1.434   4.148   2.333
66282SOL     OW  678  12.050   8.219   5.949
66282SOL    HW1  679  12.064   8.277   6.025
66282SOL    HW2  680  12.099   8.140   5.970
66283SOL     OW  681   0.462  12.726   9.488
66283SOL    HW1  682   0.376  12.685   9.500
66283SOL    HW2  683   0.520  12.654   9.463
66284SOL     OW  684   0.106  11.298   1.623
66284SOL    HW1  685   0.137  11.236   1.689
66284SOL    HW2  686   0.045  11.354   1.669
66285SOL     OW  687  13.582   9.099  11.169
66285SOL    HW1  688  13.572   9.013  11.129
66285SOL    HW2  689  13.522   9.156  11.120
66286SOL     OW  690  14.268   9.893   1.975
66286SOL    HW1  691  14.275   9.817   2.033
66286SOL    HW2  692  14.302   9.863   1.891
66287SOL     OW  693   5.877   1.504   8.574
66287SOL    HW1  694   5.868   1.557   8.653
66287SOL    HW2  695   5.969   1.478   8.573
66288SOL     OW  696   6.337   3.396  10.349
66288SOL    HW1  697   6.344   3.319  10.294
66288SOL    HW2  698   6.334   3.469  10.287
66289SOL     OW  699   4.961   3.896   4.343
66289SOL    HW1  700   5.049   3.897   4.380
66289SOL    HW2  701   4.946   3.986   4.313
66290SOL     OW  702   7.534   6.719   0.190
66290SOL    HW1  703   7.495   6.632   0.176
66290SOL    HW2  704   7.619   6.700   0.230
66291SOL     OW  705   5.256  11.963   4.311
66291SOL    HW1  706   5.228  11.922   4.229
66291SOL    HW2  707   5.180  11.958   4.368
66292SOL     OW  708  14.849   5.353   9.764
66292SOL    HW1  709  14.806   5.411   9.702
66292SOL    HW2  710  14.781   5.290   9.790
66293SOL     OW  711  10.146  10.497   2.572
66293SOL    HW1  712  10.236  10.495   2.539
66293SOL    HW2  713  10.102  10.427   2.525
66294SOL     OW  714  10.657   9.948   5.979
66294SOL    HW1  715  10.659  10.033   6.022
66294SOL    HW2  716  10.715   9.957   5.903
66295SOL     OW  717   2.397  13.035   2.155
66295SOL    HW1  718   2.387  12.961   2.215
66295SOL    HW2  719   2.349  13.107   2.198
66296SOL     OW  720   4.257   0.279   0.270
66296SOL    HW1  721   4.191   0.303   0.336
66296SOL    HW2  722   4.223   0.199   0.231
66297SOL     OW  723   1.180   9.832   3.697
66297SOL    HW1  724   1.177   9.830   3.792
66297SOL    HW2  725   1.138   9.750   3.670
66298SOL     OW  726  14.027   6.756  12.524
66298SOL    HW1  727  14.057   6.808  12.599
66298SOL    HW2  728  13.932   6.771  12.523
66299SOL     OW  729  14.779   2.852  14.421
66299SOL    HW1  730  14.686   2.831  14.418
66299SOL    HW2  731  14.795   2.903  14.342
66300SOL     OW  732   4.802  14.333   7.796
66300SOL    HW1  733   4.799  14.332   7.701
66300SOL    HW2  734   4.894  14.321   7.818
66301SOL     OW  735   8.658   2.217   6.393
66301SOL    HW1  736   8.733   2.222   6.453
66301SOL    HW2  737   8.674   2.137   6.342
66302SOL     OW  738   4.124   0.198  10.611
66302SOL    HW1  739   4.042   0.243  10.589
66302SOL    HW2  740   4.152   0.238  10.693
66303SOL     OW  741  13.728   6.310  13.002
66303SOL    HW1  742  13.745   6.403  13.016
66303SOL    HW2  743  13.814   6.271  12.992
66304SOL     OW  744   3.582   9.018   0.207
66304SOL    HW1  745   3.628   9.070   0.141
66304SOL    HW2  746   3.629   9.036   0.289
66305SOL     OW  747   3.700   9.143   6.109
66305SOL    HW1  748   3.667   9.123   6.021
66305SOL    HW2  749   3.750   9.225   6.097
66306SOL     OW  750  13.707  11.598   0.153
66306SOL    HW1  751  13.685  11.585   0.245
66306SOL    HW2  752  13.643  11.545   0.106
66307SOL     OW  753  13.857   6.609   7.768
66307SOL    HW1  754  13.867   6.544   7.698
66307SOL    HW2  755  13.947   6.627   7.797
66308SOL     OW  756   9.535  14.108   0.926
66308SOL    HW1  757   9.482  14.050   0.871
66308SOL    HW2  758   9.624  14.076   0.916
66309SOL     OW  759  10.776   8.774   8.650
66309SOL    HW1  760  10.816   8.687   8.651
66309SOL    HW2  761  10.782   8.802   8.558
66310SOL     OW  762   3.675   1.976   7.321
66310SOL    HW1  763   3.601   1.948   7.376
66310SOL    HW2  764   3.738   2.012   7.383
66311SOL     OW  765   8.577   8.850   9.519
66311SOL    HW1  766   8.618   8.899   9.591
66311SOL    HW2  767   8.611   8.891   9.440
66312SOL     OW  768   1.387   7.326   2.598
66312SOL    HW1  769   1.328   7.291   2.665
66312SOL    HW2  770   1.348   7.298   2.515
66313SOL     OW  771   1.418   8.896   0.178
66313SOL    HW1  772   1.462   8.915   0.096
66313SOL    HW2  773   1.419   8.800   0.184
66314SOL     OW  774   6.960  12.757   9.716
66314SOL    HW1  775   6.884  12.784   9.766
66314SOL    HW2  776   6.995  12.681   9.764
66315SOL     OW  777   2.844  12.799  14.135
66315SOL    HW1  778   2.834  12.838  14.222
66315SOL    HW2  779   2.935  12.772  14.130
66316SOL     OW  780   4.006   4.952   9.758
66316SOL    HW1  781   4.035   5.020   9.819
66316SOL    HW2  782   4.021   4.990   9.671
66317SOL     OW  783   7.246   2.978  13.563
66317SOL    HW1  784   7.259   2.918  13.637
66317SOL    HW2  785   7.335   2.999  13.535
66318SOL     OW  786   7.486  11.624   6.128
66318SOL    HW1  787   7.534  11.706   6.111
66318SOL    HW2  788   7.449  11.636   6.215
66319SOL     OW  789   5.716  14.740   2.629
66319SOL    HW1  790   5.700  14.648   2.654
66319SOL    HW2  791   5.635  14.785   2.652
66320SOL     OW  792  14.673   8.253  11.826
66320SOL    HW1  793  14.733   8.259  11.901
66320SOL    HW2  794  14.683   8.337  11.781
66321SOL     OW  795   0.137   1.919   3.609
66321SOL    HW1  796   0.161   1.926   3.516
66321SOL    HW2  797   0.147   1.826   3.629
66322SOL     OW  798  13.909  14.102   2.870
66322SOL    HW1  799  13.891  14.116   2.777
66322SOL    HW2  800  13.868  14.018   2.890
66323SOL     OW  801  11.091   9.504  11.616
66323SOL    HW1  802  11.014   9.470  11.661
66323SOL    HW2  803  11.064   9.591  11.585
66324SOL     OW  804  14.779  11.747   4.950
66324SOL    HW1  805  14.751  11.686   5.019
66324SOL    HW2  806  14.778  11.832   4.993
66325SOL     OW  807   4.196   1.230  13.082
66325SOL    HW1  808   4.197   1.290  13.157
66325SOL    HW2  809   4.124   1.169  13.101
66326SOL     OW  810   1.774   1.396   7.342
66326SOL    HW1  811   1.714   1.322   7.353
66326SOL    HW2  812   1.813   1.407   7.428
66327SOL     OW  813   4.470  12.081  10.295
66327SOL    HW1  814   4.380  12.112  10.307
66327SOL    HW2  815   4.461  11.992  10.262
66328SOL     OW  816  12.109   3.350   0.815
66328SOL    HW1  817  12.106   3.338   0.720
66328SOL    HW2  818  12.056   3.429   0.831
66329SOL     OW  819  13.478  13.694  14.296
66329SOL    HW1  820  13.510  13.629  14.358
66329SOL    HW2  821  13.387  13.708  14.320
66330SOL     OW  822  12.746   6.167   0.855
66330SOL    HW1  823  12.705   6.253   0.847
66330SOL    HW2  824  12.839   6.186   0.867
66331SOL     OW  825   0.516  10.930   3.191
66331SOL    HW1  826   0.598  10.961   3.229
66331SOL    HW2  827   0.473  11.009   3.159
66332SOL     OW  828   8.488   8.618  11.258
66332SOL    HW1  829   8.455   8.563  11.187
66332SOL    HW2  830   8.538   8.559  11.314
66333SOL     OW  831   9.600   6.661   3.349
66333SOL    HW1  832   9.568   6.587   3.297
66333SOL    HW2  833   9.521   6.710   3.372
66334SOL     OW  834   2.338  14.793  14.088
66334SOL    HW1  835   2.375  14.852  14.022
66334SOL    HW2  836   2.255  14.764  14.050
66335SOL     OW  837   1.127   3.708  13.020
66335SOL    HW1  838   1.118   3.703  13.116
66335SOL    HW2  839   1.088   3.792  12.997
66336SOL     OW  840  10.337   1.786   2.050
66336SOL    HW1  841  10.298   1.856   1.998
66336SOL    HW2  842  10.416   1.825   2.087
66337SOL     OW  843   1.538   7.972   1.103
66337SOL    HW1  844   1.542   8.062   1.071
66337SOL    HW2  845   1.596   7.923   1.045
66338SOL     OW  846  12.067   4.644   3.429
66338SOL    HW1  847  11.998   4.672   3.489
66338SOL    HW2  848  12.029   4.655   3.342
66339SOL     OW  849   3.468   5.835  10.161
66339SOL    HW1  850   3.511   5.762  10.206
66339SOL    HW2  851   3.496   5.827  10.070
66340SOL     OW  852   1.400  10.939   7.540
66340SOL    HW1  853   1.438  10.988   7.466
66340SOL    HW2  854   1.378  10.854   7.502
66341SOL     OW  855  14.622   8.470   0.291
66341SOL    HW1  856  14.641   8.556   0.328
66341SOL    HW2  857  14.543   8.482   0.239
66342SOL     OW  858   2.869   8.428   9.883
66342SOL    HW1  859   2.910   8.503   9.925
66342SOL    HW2  860   2.920   8.416   9.802
66343SOL     OW  861   0.125   4.444   6.298
66343SOL    HW1  862   0.067   4.476   6.367
66343SOL    HW2  863   0.157   4.361   6.331
66344SOL     OW  864  11.529   0.728  14.521
66344SOL    HW1  865  11.461   0.794  14.533
66344SOL    HW2  866  11.594   0.771  14.466
66345SOL     OW  867   8.790  13.034  12.548
66345SOL    HW1  868   8.744  13.061  12.627
66345SOL    HW2  869   8.766  13.099  12.482
66346SOL     OW  870  14.487   5.136   0.598
66346SOL    HW1  871  14.507   5.176   0.514
66346SOL    HW2  872  14.499   5.042   0.584
66347SOL     OW  873   4.831  10.279   4.309
66347SOL    HW1  874   4.806  10.251   4.397
66347SOL    HW2  875   4.819  10.202   4.254
66348SOL     OW  876   4.820   5.623  14.737
66348SOL    HW1  877   4.764   5.546  14.724
66348SOL    HW2  878   4.865   5.634  14.653
66349SOL     OW  879   6.492  11.017  14.561
66349SOL    HW1  880   6.485  10.976  14.474
66349SOL    HW2  881   6.542  11.097  14.545
66350SOL     OW  882  14.765  13.317   0.822
66350SOL    HW1  883  14.843  13.301   0.875
66350SOL    HW2  884  14.742  13.231   0.786
66351SOL     OW  885   9.842   5.195   9.695
66351SOL    HW1  886   9.857   5.238   9.780
66351SOL    HW2  887   9.929   5.168   9.667
66352SOL     OW  888   6.118  12.333  12.500
66352SOL    HW1  889   6.129  12.325  12.406
66352SOL    HW2  890   6.026  12.314  12.516
66353SOL     OW  891  14.196   1.879  14.215
66353SOL    HW1  892  14.219   1.937  14.288
66353SOL    HW2  893  14.195   1.936  14.138
66354SOL     OW  894   1.156  10.355   3.385
66354SOL    HW1  895   1.226  10.311   3.336
66354SOL    HW2  896   1.131  10.292   3.452
66355SOL     OW  897  14.660   3.643   9.036
66355SOL    HW1  898  14.687   3.644   9.128
66355SOL    HW2  899  14.707   3.568   8.999
66356SOL     OW  900   8.820   6.499   4.951
66356SOL    HW1  901   8.884   6.431   4.929
66356SOL    HW2  902   8.798   6.481   5.043
66357SOL     OW  903  14.295   4.306   1.539
66357SOL    HW1  904  14.383   4.341   1.531
66357SOL    HW2  905  14.238   4.378   1.509
66358SOL     OW  906   7.523  14.474   9.609
66358SOL    HW1  907   7.456  14.529   9.651
66358SOL    HW2  908   7.479  14.437   9.533
66359SOL     OW  909  14.824   8.693   6.561
66359SOL    HW1  910  14.802   8.719   6.651
66359SOL    HW2  911   0.038   8.729   6.546
66360SOL     OW  912   7.297  13.490   8.921
66360SOL    HW1  913   7.263  13.401   8.913
66360SOL    HW2  914   7.372  13.483   8.980
66361SOL     OW  915   9.845   2.927   8.758
66361SOL    HW1  916   9.756   2.942   8.729
66361SOL    HW2  917   9.899   2.940   8.680
66362SOL     OW  918   3.353   6.379  12.965
66362SOL    HW1  919   3.272   6.408  12.924
66362SOL    HW2  920   3.363   6.288  12.936
66363SOL     OW  921   4.466  14.816   4.576
66363SOL    HW1  922   4.440  14.724   4.568
66363SOL    HW2  923   4.426  14.845   4.657
66364SOL     OW  924   9.929   2.831   8.995
66364SOL    HW1  925  10.023   2.839   8.981
66364SOL    HW2  926   9.890   2.875   8.919
66365SOL     OW  927  11.526   5.338   2.228
66365SOL    HW1  928  11.431   5.343   2.239
66365SOL    HW2  929  11.546   5.401   2.159
66366SOL     OW  930   8.657   7.678  13.479
66366SOL    HW1  931   8.711   7.750  13.446
66366SOL    HW2  932   8.671   7.607  13.416
66367SOL     OW  933   6.931  13.395   4.781
66367SOL    HW1  934   6.906  13.484   4.805
66367SOL    HW2  935   6.981  13.405   4.700
66368SOL     OW  936   6.970   7.269   5.084
66368SOL    HW1  937   6.912   7.198   5.110
66368SOL    HW2  938   6.912   7.339   5.056
66369SOL     OW  939   4.125   8.455   5.524
66369SOL    HW1  940   4.145   8.458   5.430
66369SOL    HW2  941   4.104   8.545   5.547
66370SOL     OW  942   8.346   5.237   0.636
66370SOL    HW1  943   8.411   5.168   0.649
66370SOL    HW2  944   8.262   5.192   0.639
66371SOL     OW  945   0.220   2.084   1.540
66371SOL    HW1  946   0.174   2.021   1.596
66371SOL    HW2  947   0.279   2.130   1.600
66372SOL     OW  948   7.334  14.737   2.145
66372SOL    HW1  949   7.399  14.750   2.076
66372SOL    HW2  950   7.342  14.815   2.201
66373SOL     OW  951   8.221  11.197   9.977
66373SOL    HW1  952   8.220  11.192   9.881
66373SOL    HW2  953   8.130  11.179  10.002
66374SOL     OW  954   7.639  12.573   8.253
66374SOL    HW1  955   7.563  12.632   8.255
66374SOL    HW2  956   7.647  12.548   8.161
66375SOL     OW  957   7.900  14.409  12.700
66375SOL    HW1  958   7.804  14.405  12.704
66375SOL    HW2  959   7.920  14.398  12.607
66376SOL     OW  960   9.791  12.586   4.927
66376SOL    HW1  961   9.798  12.522   4.998
66376SOL    HW2  962   9.841  12.548   4.855
66377SOL     OW  963  10.636  13.655   9.629
66377SOL    HW1  964  10.692  13.579   9.642
66377SOL    HW2  965  10.683  13.727   9.671
66378SOL     OW  966   5.691  13.619   6.996
66378SOL    HW1  967   5.785  13.613   7.013
66378SOL    HW2  968   5.678  13.570   6.914
66379SOL     OW  969   1.982   3.328  13.060
66379SOL    HW1  970   1.906   3.326  13.002
66379SOL    HW2  971   2.016   3.239  13.059
66380SOL     OW  972   0.101   0.758   8.517
66380SOL    HW1  973   0.079   0.694   8.449
66380SOL    HW2  974   0.054   0.728   8.595
66381SOL     OW  975  10.746  11.095  10.466
66381SOL    HW1  976  10.726  11.146  10.544
66381SOL    HW2  977  10.699  11.012  10.478
66382SOL     OW  978   0.740   0.038   5.798
66382SOL    HW1  979   0.725  14.821   5.769
66382SOL    HW2  980   0.666   0.087   5.762
66383SOL     OW  981   9.896   6.947  12.037
66383SOL    HW1  982   9.909   6.962  12.131
66383SOL    HW2  983   9.958   7.008  11.995
66384SOL     OW  984  13.769  10.670  12.266
66384SOL    HW1  985  13.753  10.576  12.263
66384SOL    HW2  986  13.754  10.699  12.176
66385SOL     OW  987   5.010  14.146   0.310
66385SOL    HW1  988   4.954  14.193   0.372
66385SOL    HW2  989   4.966  14.062   0.298
66386SOL     OW  990   8.814  13.409   5.086
66386SOL    HW1  991   8.838  13.347   5.155
66386SOL    HW2  992   8.889  13.409   5.027
66387SOL     OW  993   1.319   4.118  14.786
66387SOL    HW1  994   1.260   4.042  14.794
66387SOL    HW2  995   1.375   4.113  14.864
66388SOL     OW  996  10.176   4.944  10.675
66388SOL    HW1  997  10.105   4.891  10.640
66388SOL    HW2  998  10.165   5.030  10.633
66389SOL     OW  999   2.056   7.512  14.414
66389SOL    HW1 1000   2.029   7.455  14.342
66389SOL    HW2 1001   2.064   7.599  14.375
66390SOL     OW 1002   1.675   2.244   5.735
66390SOL    HW1 1003   1.654   2.151   5.728
66390SOL    HW2 1004   1.770   2.248   5.735
66391SOL     OW 1005   3.921   2.081   1.865
66391SOL    HW1 1006   3.950   2.164   1.904
66391SOL    HW2 1007   3.950   2.087   1.774
66392SOL     OW 1008   7.980  12.061   7.747
66392SOL    HW1 1009   7.890  12.036   7.727
66392SOL    HW2 1010   8.030  12.033   7.670
66393SOL     OW 1011   5.233  13.591   0.582
66393SOL    HW1 1012   5.144  13.560   0.565
66393SOL    HW2 1013   5.221  13.677   0.622
66394SOL     OW 1014   7.517   6.008   5.720
66394SOL    HW1 1015   7.562   6.078   5.672
66394SOL    HW2 1016   7.460   5.967   5.655
66395SOL     OW 1017   7.093  12.896  13.353
66395SOL    HW1 1018   7.187  12.884  13.337
66395SOL    HW2 1019   7.057  12.920  13.267
66396SOL     OW 1020   9.985   4.022   2.024
66396SOL    HW1 1021   9.914   3.960   2.042
66396SOL    HW2 1022  10.061   3.986   2.070
66397SOL     OW 1023   7.755   7.103  13.307
66397SOL    HW1 1024   7.702   7.040  13.356
66397SOL    HW2 1025   7.822   7.132  13.369
66398SOL     OW 1026   3.013  14.580  11.463
66398SOL    HW1 1027   2.992  14.616  11.377
66398SOL    HW2 1028   3.071  14.645  11.503
66399SOL     OW 1029   5.022   2.857  12.468
66399SOL    HW1 1030   4.981   2.796  12.529
66399SOL    HW2 1031   5.071   2.918  12.524
66400SOL     OW 1032  10.596   4.217   5.876
66400SOL    HW1 1033  10.612   4.311   5.870
66400SOL    HW2 1034  10.549   4.205   5.959
66401SOL     OW 1035   2.342   5.137   1.510
66401SOL    HW1 1036   2.428   5.146   1.551
66401SOL    HW2 1037   2.280   5.142   1.583
66402SOL     OW 1038   4.127   4.768   4.878
66402SOL    HW1 1039   4.041   4.808   4.886
66402SOL    HW2 1040   4.185   4.840   4.853
66403SOL     OW 1041   3.016  14.525   8.329
66403SOL    HW1 1042   2.978  14.457   8.385
66403SOL    HW2 1043   3.035  14.480   8.247
66404SOL     OW 1044  12.020   5.363   2.441
66404SOL    HW1 1045  12.076   5.294   2.475
66404SOL    HW2 1046  12.073   5.443   2.447
66405SOL     OW 1047  13.792   8.421   2.058
66405SOL    HW1 1048  13.776   8.341   2.009
66405SOL    HW2 1049  13.877   8.408   2.100
66406SOL     OW 1050   5.620  12.732  13.857
66406SOL    HW1 1051   5.565  12.655  13.844
66406SOL    HW2 1052   5.684  12.705  13.923
66407SOL     OW 1053   3.721   0.465   5.266
66407SOL    HW1 1054   3.706   0.372   5.251
66407SOL    HW2 1055   3.768   0.495   5.188
66408SOL     OW 1056  12.429   6.594  14.086
66408SOL    HW1 1057  12.458   6.503  14.077
66408SOL    HW2 1058  12.395   6.616  13.999
66409SOL     OW 1059   7.612   4.863   8.148
66409SOL    HW1 1060   7.570   4.777   8.154
66409SOL    HW2 1061   7.695   4.847   8.104
66410SOL     OW 1062   9.883   1.966  10.589
66410SOL    HW1 1063   9.860   1.972  10.682
66410SOL    HW2 1064   9.963   2.018  10.581
66411SOL     OW 1065   9.956   3.284   7.610
66411SOL    HW1 1066   9.960   3.354   7.675
66411SOL    HW2 1067   9.966   3.329   7.526
66412SOL     OW 1068  11.862   5.318   1.713
66412SOL    HW1 1069  11.866   5.408   1.680
66412SOL    HW2 1070  11.769   5.302   1.726
66413SOL     OW 1071  10.346  11.386   8.060
66413SOL    HW1 1072  10.319  11.314   8.002
66413SOL    HW2 1073  10.358  11.461   8.002
66414SOL     OW 1074   1.443   6.051   4.599
66414SOL    HW1 1075   1.526   6.039   4.645
66414SOL    HW2 1076   1.433   5.972   4.546
66415SOL     OW 1077  10.076   5.193   2.768
66415SOL    HW1 1078  10.067   5.117   2.710
66415SOL    HW2 1079  10.012   5.256   2.736
66416SOL     OW 1080  10.656   6.057  10.464
66416SOL    HW1 1081  10.565   6.084  10.475
66416SOL    HW2 1082  10.652   5.980  10.408
66417SOL     OW 1083   1.175  14.493   2.303
66417SOL    HW1 1084   1.232  14.564   2.274
66417SOL    HW2 1085   1.087  14.523   2.281
66418SOL     OW 1086   3.627   1.684   6.663
66418SOL    HW1 1087   3.633   1.765   6.613
66418SOL    HW2 1088   3.544   1.690   6.710
66419SOL     OW 1089  11.101   8.007   8.128
66419SOL    HW1 1090  11.073   8.030   8.216
66419SOL    HW2 1091  11.032   8.044   8.071
66420SOL     OW 1092   6.346   6.196   4.123
66420SOL    HW1 1093   6.309   6.199   4.212
66420SOL    HW2 1094   6.322   6.110   4.090
66421SOL     OW 1095   0.509   9.670   1.309
66421SOL    HW1 1096   0.428   9.687   1.261
66421SOL    HW2 1097   0.489   9.594   1.363
66422SOL     OW 1098   9.114   0.768   7.550
66422SOL    HW1 1099   9.158   0.685   7.531
66422SOL    HW2 1100   9.089   0.761   7.642
66423SOL     OW 1101  10.776   9.649   5.330
66423SOL    HW1 1102  10.793   9.740   5.306
66423SOL    HW2 1103  10.818   9.638   5.416
66424SOL     OW 1104  11.763   7.846   1.798
66424SOL    HW1 1105  11.719   7.881   1.876
66424SOL    HW2 1106  11.754   7.916   1.733
66425SOL     OW 1107  14.786  10.602  10.355
66425SOL    HW1 1108  14.843  10.663  10.307
66425SOL    HW2 1109  14.846  10.551  10.409
66426SOL     OW 1110  14.638  10.519  10.097
66426SOL    HW1 1111  14.590  10.488  10.174
66426SOL    HW2 1112  14.656  10.440  10.046
66427SOL     OW 1113   0.245  10.360   3.927
66427SOL    HW1 1114   0.311  10.414   3.883
66427SOL    HW2 1115   0.280  10.347   4.015
66428SOL     OW 1116  13.293   7.651   1.618
66428SOL    HW1 1117  13.315   7.685   1.531
66428SOL    HW2 1118  13.206   7.612   1.608
66429SOL     OW 1119   2.172   0.034   4.659
66429SOL    HW1 1120   2.087   0.054   4.618
66429SOL    HW2 1121   2.182  14.813   4.648
66430SOL     OW 1122   7.763  10.779   1.820
66430SOL    HW1 1123   7.857  10.792   1.807
66430SOL    HW2 1124   7.753  10.685   1.831
66431SOL     OW 1125  10.353   7.379  11.313
66431SOL    HW1 1126  10.270   7.330  11.311
66431SOL    HW2 1127  10.375   7.385  11.406
66432SOL     OW 1128   4.186  14.333   9.584
66432SOL    HW1 1129   4.276  14.302   9.587
66432SOL    HW2 1130   4.144  14.277   9.518
66433SOL     OW 1131  13.946   8.600   4.774
66433SOL    HW1 1132  14.035   8.613   4.807
66433SOL    HW2 1133  13.955   8.609   4.679
66434SOL     OW 1134  14.568   3.183  13.087
66434SOL    HW1 1135  14.475   3.165  13.100
66434SOL    HW2 1136  14.576   3.206  12.995
66435SOL     OW 1137   3.554   2.946   9.538
66435SOL    HW1 1138   3.592   2.858   9.534
66435SOL    HW2 1139   3.574   2.985   9.454
66436SOL     OW 1140   0.731  12.364   6.850
66436SOL    HW1 1141   0.786  12.292   6.882
66436SOL    HW2 1142   0.659  12.369   6.913
66437SOL     OW 1143   5.859  10.447   1.324
66437SOL    HW1 1144   5.945  10.433   1.285
66437SOL    HW2 1145   5.828  10.529   1.286
66438SOL     OW 1146   6.153   4.543  14.854
66438SOL    HW1 1147   6.190   4.589   0.057
66438SOL    HW2 1148   6.073   4.502   0.015
66439SOL     OW 1149  11.268  12.282  12.357
66439SOL    HW1 1150  11.304  12.199  12.325
66439SOL    HW2 1151  11.322  12.304  12.433
66440SOL     OW 1152  11.822   2.457  12.943
66440SOL    HW1 1153  11.872   2.376  12.935
66440SOL    HW2 1154  11.747   2.434  12.998
66441SOL     OW 1155   7.719   7.467  14.147
66441SOL    HW1 1156   7.777   7.422  14.086
66441SOL    HW2 1157   7.777   7.525  14.197
66442SOL     OW 1158   4.835   5.685  12.646
66442SOL    HW1 1159   4.758   5.716  12.599
66442SOL    HW2 1160   4.876   5.622  12.587
66443SOL     OW 1161   5.526   7.045   7.731
66443SOL    HW1 1162   5.570   7.124   7.700
66443SOL    HW2 1163   5.549   7.039   7.824
66444SOL     OW 1164   4.799  10.129   2.726
66444SOL    HW1 1165   4.742  10.171   2.661
66444SOL    HW2 1166   4.850  10.201   2.763
66445SOL     OW 1167   6.188   9.600   6.934
66445SOL    HW1 1168   6.215   9.538   6.867
66445SOL    HW2 1169   6.180   9.548   7.014
66446SOL     OW 1170   1.472   2.336   9.984
66446SOL    HW1 1171   1.512   2.256  10.021
66446SOL    HW2 1172   1.511   2.344   9.897
66447SOL     OW 1173   5.773   4.292   3.137
66447SOL    HW1 1174   5.780   4.310   3.043
66447SOL    HW2 1175   5.745   4.374   3.176
66448SOL     OW 1176   5.443   4.648   1.834
66448SOL    HW1 1177   5.485   4.572   1.793
66448SOL    HW2 1178   5.367   4.666   1.778
66449SOL     OW 1179   6.710   2.198  14.130
66449SOL    HW1 1180   6.766   2.239  14.196
66449SOL    HW2 1181   6.622   2.232  14.148
66450SOL     OW 1182  14.137  12.452   9.521
66450SOL    HW1 1183  14.210  12.496   9.565
66450SOL    HW2 1184  14.163  12.446   9.430
66451SOL     OW 1185   4.678  13.942  14.469
66451SOL    HW1 1186   4.763  13.980  14.488
66451SOL    HW2 1187   4.683  13.852  14.503
66452SOL     OW 1188  10.471  10.731   2.450
66452SOL    HW1 1189  10.411  10.702   2.382
66452SOL    HW2 1190  10.483  10.825   2.433
66453SOL     OW 1191  13.751   8.856  12.366
66453SOL    HW1 1192  13.776   8.779  12.315
66453SOL    HW2 1193  13.744   8.825  12.456
66454SOL     OW 1194   1.914   1.360   9.514
66454SOL    HW1 1195   1.978   1.320   9.456
66454SOL    HW2 1196   1.940   1.330   9.602
66455SOL     OW 1197   0.808  12.887   5.490
66455SOL    HW1 1198   0.826  12.923   5.403
66455SOL    HW2 1199   0.854  12.803   5.491
66456SOL     OW 1200  13.778   6.257  12.142
66456SOL    HW1 1201  13.716   6.288  12.077
66456SOL    HW2 1202  13.838   6.200  12.093
66457SOL     OW 1203  11.834  14.721   7.317
66457SOL    HW1 1204  11.813  14.659   7.248
66457SOL    HW2 1205  11.896  14.675   7.374
66458SOL     OW 1206   2.474   9.115   9.390
66458SOL    HW1 1207   2.528   9.094   9.466
66458SOL    HW2 1208   2.398   9.056   9.397
66459SOL     OW 1209  14.376  10.054  11.443
66459SOL    HW1 1210  14.438  10.022  11.509
66459SOL    HW2 1211  14.414  10.136  11.413
66460SOL     OW 1212  14.735   3.095   8.512
66460SOL    HW1 1213  14.748   3.039   8.589
66460SOL    HW2 1214  14.765   3.181   8.540
66461SOL     OW 1215   7.035  10.223   6.041
66461SOL    HW1 1216   7.025  10.219   6.136
66461SOL    HW2 1217   7.111  10.280   6.027
66462SOL     OW 1218   3.984  14.584  11.414
66462SOL    HW1 1219   3.913  14.580  11.351
66462SOL    HW2 1220   4.019  14.673  11.405
66463SOL     OW 1221   1.120   2.046  13.964
66463SOL    HW1 1222   1.178   2.121  13.961
66463SOL    HW2 1223   1.127   2.013  14.054
66464SOL     OW 1224   3.151   2.443   6.810
66464SOL    HW1 1225   3.145   2.384   6.885
66464SOL    HW2 1226   3.183   2.388   6.739
66465SOL     OW 1227   5.146  13.113   5.295
66465SOL    HW1 1228   5.139  13.204   5.265
66465SOL    HW2 1229   5.057  13.078   5.285
66466SOL     OW 1230   3.862   5.574   8.543
66466SOL    HW1 1231   3.808   5.618   8.609
66466SOL    HW2 1232   3.949   5.570   8.583
66467SOL     OW 1233   4.612   4.619   6.985
66467SOL    HW1 1234   4.677   4.600   7.053
66467SOL    HW2 1235   4.585   4.533   6.953
66468SOL     OW 1236  11.830   8.043   7.645
66468SOL    HW1 1237  11.752   7.988   7.655
66468SOL    HW2 1238  11.860   8.025   7.555
66469SOL     OW 1239   1.459   7.260  12.243
66469SOL    HW1 1240   1.426   7.171  12.229
66469SOL    HW2 1241   1.383   7.309  12.274
66470SOL     OW 1242   7.543   0.519   2.173
66470SOL    HW1 1243   7.532   0.560   2.087
66470SOL    HW2 1244   7.552   0.426   2.153
66471SOL     OW 1245   9.794   7.052   4.317
66471SOL    HW1 1246   9.871   7.097   4.352
66471SOL    HW2 1247   9.760   7.001   4.390
66472SOL     OW 1248   5.940   7.988  11.553
66472SOL    HW1 1249   5.958   7.993  11.459
66472SOL    HW2 1250   5.981   8.067  11.589
66473SOL     OW 1251   4.978   3.044   8.178
66473SOL    HW1 1252   4.980   3.058   8.272
66473SOL    HW2 1253   5.024   3.119   8.141
66474SOL     OW 1254  11.796   1.958  10.733
66474SOL    HW1 1255  11.758   1.934  10.817
66474SOL    HW2 1256  11.885   1.986  10.753
66475SOL     OW 1257   4.860   6.436   4.118
66475SOL    HW1 1258   4.857   6.435   4.022
66475SOL    HW2 1259   4.768   6.435   4.145
66476SOL     OW 1260  12.269   8.893   2.959
66476SOL    HW1 1261  12.324   8.895   2.881
66476SOL    HW2 1262  12.241   8.802   2.967
66477SOL     OW 1263  10.970   0.910  14.671
66477SOL    HW1 1264  10.987   0.874  14.584
66477SOL    HW2 1265  10.880   0.884  14.690
66478SOL     OW 1266  10.892  14.261  14.783
66478SOL    HW1 1267  10.948  14.183  14.782
66478SOL    HW2 1268  10.893  14.291   0.001
66479SOL     OW 1269  11.534   6.022   3.626
66479SOL    HW1 1270  11.497   6.030   3.538
66479SOL    HW2 1271  11.563   6.110   3.649
66480SOL     OW 1272   2.485   6.913   1.956
66480SOL    HW1 1273   2.408   6.955   1.994
66480SOL    HW2 1274   2.529   6.872   2.030
66481SOL     OW 1275  14.740  11.612   5.592
66481SOL    HW1 1276  14.740  11.647   5.503
66481SOL    HW2 1277  14.669  11.547   5.592
66482SOL     OW 1278   1.339   5.747   9.289
66482SOL    HW1 1279   1.266   5.712   9.341
66482SOL    HW2 1280   1.303   5.756   9.201
66483SOL     OW 1281  11.460   7.065   6.079
66483SOL    HW1 1282  11.365   7.069   6.064
66483SOL    HW2 1283  11.469   7.081   6.173
66484SOL     OW 1284   3.086   7.975   8.684
66484SOL    HW1 1285   3.177   7.956   8.658
66484SOL    HW2 1286   3.059   8.046   8.625
66485SOL     OW 1287   2.027   5.990  12.572
66485SOL    HW1 1288   1.987   6.060  12.624
66485SOL    HW2 1289   1.996   5.909  12.614
66486SOL     OW 1290   8.370  10.134   4.517
66486SOL    HW1 1291   8.406  10.201   4.576
66486SOL    HW2 1292   8.325  10.184   4.449
66487SOL     OW 1293   5.857   1.578   1.795
66487SOL    HW1 1294   5.848   1.672   1.778
66487SOL    HW2 1295   5.951   1.562   1.792
66488SOL     OW 1296   0.953   0.208   0.642
66488SOL    HW1 1297   0.890   0.153   0.595
66488SOL    HW2 1298   0.972   0.160   0.722
66489SOL     OW 1299  11.005   6.666   6.962
66489SOL    HW1 1300  10.927   6.695   7.009
66489SOL    HW2 1301  10.980   6.583   6.922
66490SOL     OW 1302   1.989  11.449   7.055
66490SOL    HW1 1303   1.997  11.525   7.114
66490SOL    HW2 1304   1.904  11.410   7.079
66491SOL     OW 1305  13.401  10.125  11.724
66491SOL    HW1 1306  13.310  10.133  11.751
66491SOL    HW2 1307  13.404  10.042  11.675
66492SOL     OW 1308   4.788  13.900  13.668
66492SOL    HW1 1309   4.847  13.825  13.657
66492SOL    HW2 1310   4.807  13.957  13.593
66493SOL     OW 1311  11.627   4.544   7.758
66493SOL    HW1 1312  11.546   4.592   7.740
66493SOL    HW2 1313  11.615   4.460   7.713
66494SOL     OW 1314   6.863   1.861   9.799
66494SOL    HW1 1315   6.901   1.934   9.750
66494SOL    HW2 1316   6.930   1.838   9.863
66495SOL     OW 1317  14.206   8.267   9.349
66495SOL    HW1 1318  14.235   8.260   9.440
66495SOL    HW2 1319  14.269   8.327   9.309
66496SOL     OW 1320   8.822   4.300   4.138
66496SOL    HW1 1321   8.798   4.359   4.210
66496SOL    HW2 1322   8.914   4.279   4.154
66497SOL     OW 1323   8.075   0.739   6.953
66497SOL    HW1 1324   8.098   0.654   6.916
66497SOL    HW2 1325   8.020   0.718   7.029
66498SOL     OW 1326  11.549   3.922  14.226
66498SOL    HW1 1327  11.538   3.996  14.286
66498SOL    HW2 1328  11.632   3.939  14.182
66499SOL     OW 1329   9.710  13.588   1.482
66499SOL    HW1 1330   9.763  13.666   1.497
66499SOL    HW2 1331   9.741  13.554   1.398
66500SOL     OW 1332   5.680   8.898   6.072
66500SOL    HW1 1333   5.642   8.841   6.006
66500SOL    HW2 1334   5.749   8.845   6.113
66501SOL     OW 1335  11.340   9.417   6.694
66501SOL    HW1 1336  11.433   9.441   6.697
66501SOL    HW2 1337  11.302   9.478   6.632
66502SOL     OW 1338  14.433  14.753   0.593
66502SOL    HW1 1339  14.489  14.683   0.560
66502SOL    HW2 1340  14.484  14.794   0.662
66503SOL     OW 1341  12.984  10.389   6.197
66503SOL    HW1 1342  13.018  10.305   6.167
66503SOL    HW2 1343  13.058  10.433   6.237
66504SOL     OW 1344  13.001   6.279  13.313
66504SOL    HW1 1345  12.934   6.307  13.374
66504SOL    HW2 1346  13.057   6.221  13.364
66505SOL     OW 1347   7.176  14.594   5.635
66505SOL    HW1 1348   7.165  14.688   5.625
66505SOL    HW2 1349   7.145  14.576   5.724
66506SOL     OW 1350   9.726   0.740   2.189
66506SOL    HW1 1351   9.726   0.788   2.106
66506SOL    HW2 1352   9.819   0.728   2.209
66507SOL     OW 1353   5.668  10.684  13.241
66507SOL    HW1 1354   5.615  10.660  13.165
66507SOL    HW2 1355   5.706  10.602  13.271
66508SOL     OW 1356  10.520  11.129   1.641
66508SOL    HW1 1357  10.562  11.047   1.615
66508SOL    HW2 1358  10.428  11.116   1.618
66509SOL     OW 1359   8.558  14.761   4.332
66509SOL    HW1 1360   8.486  14.825   4.336
66509SOL    HW2 1361   8.529  14.690   4.390
66510SOL     OW 1362   4.314   5.702   5.466
66510SOL    HW1 1363   4.386   5.754   5.502
66510SOL    HW2 1364   4.273   5.759   5.402
66511SOL     OW 1365  10.902   9.130   9.710
66511SOL    HW1 1366  10.831   9.193   9.697
66511SOL    HW2 1367  10.947   9.160   9.789
66512SOL     OW 1368  14.719   8.733   0.342
66512SOL    HW1 1369  14.729   8.742   0.437
66512SOL    HW2 1370  14.746   8.817   0.307
66513SOL     OW 1371   9.345   0.043  14.725
66513SOL    HW1 1372   9.333   0.137  14.719
66513SOL    HW2 1373   9.439   0.029  14.712
66514SOL     OW 1374   4.409   1.990  12.985
66514SOL    HW1 1375   4.416   1.918  12.922
66514SOL    HW2 1376   4.314   2.002  12.998
66515SOL     OW 1377  11.492   0.780   5.301
66515SOL    HW1 1378  11.428   0.715   5.329
66515SOL    HW2 1379  11.443   0.862   5.298
66516SOL     OW 1380  11.179   9.251  11.189
66516SOL    HW1 1381  11.182   9.281  11.098
66516SOL    HW2 1382  11.264   9.274  11.225
66517SOL     OW 1383   1.592   4.948   5.838
66517SOL    HW1 1384   1.653   4.875   5.833
66517SOL    HW2 1385   1.632   5.009   5.900
66518SOL     OW 1386  11.079  11.029   2.317
66518SOL    HW1 1387  11.155  10.976   2.294
66518SOL    HW2 1388  11.007  10.966   2.321
66519SOL     OW 1389  12.115  13.780   2.629
66519SOL    HW1 1390  12.167  13.713   2.675
66519SOL    HW2 1391  12.178  13.848   2.608
66520SOL     OW 1392  12.545   1.059   2.641
66520SOL    HW1 1393  12.491   1.077   2.564
66520SOL    HW2 1394  12.624   1.113   2.628
66521SOL     OW 1395   8.595   6.069  13.106
66521SOL    HW1 1396   8.566   6.160  13.105
66521SOL    HW2 1397   8.652   6.061  13.029
66522SOL     OW 1398   8.324   6.374   4.942
66522SOL    HW1 1399   8.371   6.341   5.018
66522SOL    HW2 1400   8.271   6.300   4.912
66523SOL     OW 1401  11.989  11.750   9.494
66523SOL    HW1 1402  11.939  11.676   9.529
66523SOL    HW2 1403  12.019  11.797   9.572
66524SOL     OW 1404  12.696  10.174   5.602
66524SOL    HW1 1405  12.626  10.210   5.548
66524SOL    HW2 1406  12.676  10.203   5.690
66525SOL     OW 1407   5.292   3.006   7.897
66525SOL    HW1 1408   5.257   2.941   7.836
66525SOL    HW2 1409   5.385   3.011   7.876
66526SOL     OW 1410   5.548   9.436   3.402
66526SOL    HW1 1411   5.536   9.513   3.347
66526SOL    HW2 1412   5.459   9.402   3.415
66527SOL     OW 1413  13.610   6.466  10.800
66527SOL    HW1 1414  13.540   6.474  10.864
66527SOL    HW2 1415  13.644   6.378  10.812
66528SOL     OW 1416   8.966  11.805  14.800
66528SOL    HW1 1417   9.032  11.839  14.861
66528SOL    HW2 1418   8.969  11.866  14.726
66529SOL     OW 1419   5.545   6.018   0.562
66529SOL    HW1 1420   5.617   6.021   0.500
66529SOL    HW2 1421   5.516   6.109   0.570
66530SOL     OW 1422   6.808  12.079  13.770
66530SOL    HW1 1423   6.876  12.025  13.810
66530SOL    HW2 1424   6.838  12.093  13.680
66531SOL     OW 1425  13.370   9.034   8.127
66531SOL    HW1 1426  13.399   9.081   8.048
66531SOL    HW2 1427  13.310   9.094   8.170
66532SOL     OW 1428   6.051  13.485  12.669
66532SOL    HW1 1429   6.094  13.548  12.728
66532SOL    HW2 1430   6.100  13.404  12.682
66533SOL     OW 1431   6.648   7.563   9.974
66533SOL    HW1 1432   6.591   7.570  10.051
66533SOL    HW2 1433   6.589   7.572   9.899
66534SOL     OW 1434   6.577   2.904   0.963
66534SOL    HW1 1435   6.502   2.866   0.917
66534SOL    HW2 1436   6.572   2.997   0.943
66535SOL     OW 1437   5.516  13.891  11.307
66535SOL    HW1 1438   5.424  13.914  11.311
66535SOL    HW2 1439   5.545  13.890  11.398
66536SOL     OW 1440   6.155  11.164   3.493
66536SOL    HW1 1441   6.119  11.157   3.405
66536SOL    HW2 1442   6.088  11.211   3.542
66537SOL     OW 1443   5.863   0.710   6.301
66537SOL    HW1 1444   5.852   0.705   6.206
66537SOL    HW2 1445   5.954   0.686   6.315
66538SOL     OW 1446   6.655   8.056   3.661
66538SOL    HW1 1447   6.590   8.068   3.592
66538SOL    HW2 1448   6.630   7.974   3.703
66539SOL     OW 1449  11.940   1.721   2.504
66539SOL    HW1 1450  12.003   1.787   2.473
66539SOL    HW2 1451  11.876   1.714   2.434
66540SOL     OW 1452  11.336   5.047   5.378
66540SOL    HW1 1453  11.264   5.092   5.422
66540SOL    HW2 1454  11.402   5.034   5.446
66541SOL     OW 1455   7.342  10.921   9.503
66541SOL    HW1 1456   7.290  10.956   9.575
66541SOL    HW2 1457   7.278  10.895   9.437
66542SOL     OW 1458   6.813   5.376   8.106
66542SOL    HW1 1459   6.760   5.297   8.114
66542SOL    HW2 1460   6.903   5.343   8.098
66543SOL     OW 1461   3.491  12.383  12.284
66543SOL    HW1 1462   3.575  12.342  12.305
66543SOL    HW2 1463   3.479  12.450  12.351
66544SOL     OW 1464   5.010   5.794   0.886
66544SOL    HW1 1465   4.944   5.760   0.946
66544SOL    HW2 1466   5.025   5.723   0.824
66545SOL     OW 1467   4.658   3.786   0.954
66545SOL    HW1 1468   4.610   3.717   0.908
66545SOL    HW2 1469   4.746   3.782   0.918
66546SOL     OW 1470   5.581   3.050  11.211
66546SOL    HW1 1471   5.564   2.990  11.284
66546SOL    HW2 1472   5.653   3.010  11.164
66547SOL     OW 1473   6.432  12.870   7.527
66547SOL    HW1 1474   6.390  12.918   7.598
66547SOL    HW2 1475   6.441  12.934   7.456
66548SOL     OW 1476  13.515   9.086   4.728
66548SOL    HW1 1477  13.543   9.014   4.785
66548SOL    HW2 1478  13.541   9.165   4.775
66549SOL     OW 1479   6.172   7.439   3.686
66549SOL    HW1 1480   6.119   7.361   3.701
66549SOL    HW2 1481   6.109   7.508   3.663
66550SOL     OW 1482  11.567   5.959   4.601
66550SOL    HW1 1483  11.554   6.054   4.594
66550SOL    HW2 1484  11.595   5.932   4.513
66551SOL     OW 1485   9.813  11.309  11.718
66551SOL    HW1 1486   9.730  11.330  11.676
66551SOL    HW2 1487   9.876  11.371  11.680
66552SOL     OW 1488   7.413   1.867  11.471
66552SOL    HW1 1489   7.496   1.820  11.461
66552SOL    HW2 1490   7.407   1.921  11.392
66553SOL     OW 1491   2.692   9.803   6.115
66553SOL    HW1 1492   2.708   9.789   6.021
66553SOL    HW2 1493   2.654   9.720   6.144
66554SOL     OW 1494   7.368  13.838   8.392
66554SOL    HW1 1495   7.291  13.886   8.422
66554SOL    HW2 1496   7.384  13.773   8.461
66555SOL     OW 1497   4.045  10.037   9.988
66555SOL    HW1 1498   4.126  10.008  10.029
66555SOL    HW2 1499   3.998   9.956   9.967
66556SOL     OW 1500   8.056   1.388   3.641
66556SOL    HW1 1501   7.979   1.444   3.643
66556SOL    HW2 1502   8.125   1.439   3.683
66557SOL     OW 1503   8.687   6.874  13.966
66557SOL    HW1 1504   8.608   6.857  14.016
66557SOL    HW2 1505   8.671   6.834  13.880
66558SOL     OW 1506   2.210   0.675   8.839
66558SOL    HW1 1507   2.258   0.600   8.803
66558SOL    HW2 1508   2.118   0.648   8.838
66559SOL     OW 1509   2.608   9.980  13.425
66559SOL    HW1 1510   2.549   9.908  13.403
66559SOL    HW2 1511   2.561  10.059  13.398
66560SOL     OW 1512  11.330   2.356   6.290
66560SOL    HW1 1513  11.331   2.449   6.271
66560SOL    HW2 1514  11.242   2.339   6.323
66561SOL     OW 1515  11.536   1.307  10.657
66561SOL    HW1 1516  11.527   1.279  10.748
66561SOL    HW2 1517  11.567   1.229  10.611
66562SOL     OW 1518   5.679   1.090   5.926
66562SOL    HW1 1519   5.740   1.152   5.968
66562SOL    HW2 1520   5.687   1.108   5.833
66563SOL     OW 1521   8.121  12.152   5.477
66563SOL    HW1 1522   8.106  12.104   5.558
66563SOL    HW2 1523   8.182  12.222   5.500
66564SOL     OW 1524  11.696   0.104   6.460
66564SOL    HW1 1525  11.606   0.135   6.468
66564SOL    HW2 1526  11.694   0.015   6.497
66565SOL     OW 1527   1.012   5.899  10.819
66565SOL    HW1 1528   0.919   5.876  10.825
66565SOL    HW2 1529   1.030   5.946  10.900
66566SOL     OW 1530   7.674  11.098  13.525
66566SOL    HW1 1531   7.615  11.170  13.502
66566SOL    HW2 1532   7.738  11.137  13.584
66567SOL     OW 1533   0.234   8.293   8.624
66567SOL    HW1 1534   0.242   8.198   8.618
66567SOL    HW2 1535   0.251   8.324   8.535
66568SOL     OW 1536   8.953  12.993   1.672
66568SOL    HW1 1537   8.959  13.060   1.740
66568SOL    HW2 1538   8.971  12.911   1.718
66569SOL     OW 1539   8.335   8.877  12.353
66569SOL    HW1 1540   8.430   8.876  12.347
66569SOL    HW2 1541   8.306   8.835  12.272
66570SOL     OW 1542   6.004   7.658   3.647
66570SOL    HW1 1543   6.076   7.700   3.695
66570SOL    HW2 1544   5.925   7.684   3.694
66571SOL     OW 1545   2.040   6.463   5.965
66571SOL    HW1 1546   1.986   6.426   6.035
66571SOL    HW2 1547   2.076   6.543   6.003
66572SOL     OW 1548  12.912  10.883   9.241
66572SOL    HW1 1549  12.931  10.789   9.249
66572SOL    HW2 1550  12.901  10.897   9.147
66573SOL     OW 1551  12.293   1.598   6.960
66573SOL    HW1 1552  12.293   1.514   7.004
66573SOL    HW2 1553  12.229   1.651   7.008
66574SOL     OW 1554   7.688  14.398  14.005
66574SOL    HW1 1555   7.730  14.312  14.005
66574SOL    HW2 1556   7.597  14.380  14.030
66575SOL     OW 1557   3.857   1.123  12.145
66575SOL    HW1 1558   3.877   1.212  12.118
66575SOL    HW2 1559   3.804   1.087  12.074
66576SOL     OW 1560   0.417   6.144  14.125
66576SOL    HW1 1561   0.341   6.183  14.083
66576SOL    HW2 1562   0.384   6.063  14.164
66577SOL     OW 1563   6.487   1.982  12.037
66577SOL    HW1 1564   6.482   1.889  12.059
66577SOL    HW2 1565   6.399   2.005  12.009
66578SOL     OW 1566   1.258  10.491  11.786
66578SOL    HW1 1567   1.172  10.449  11.795
66578SOL    HW2 1568   1.303  10.440  11.719
66579SOL     OW 1569  12.602   4.716   7.192
66579SOL    HW1 1570  12.557   4.710   7.276
66579SOL    HW2 1571  12.597   4.627   7.156
66580SOL     OW 1572  12.203   4.142  10.604
66580SOL    HW1 1573  12.173   4.060  10.564
66580SOL    HW2 1574  12.164   4.142  10.691
66581SOL     OW 1575   0.514  14.402   0.836
66581SOL    HW1 1576   0.445  14.468   0.847
66581SOL    HW2 1577   0.588  14.452   0.800
66582SOL     OW 1578   1.947   6.112   2.995
66582SOL    HW1 1579   2.024   6.064   3.025
66582SOL    HW2 1580   1.913   6.155   3.074
66583SOL     OW 1581   9.452  13.852  12.063
66583SOL    HW1 1582   9.443  13.915  11.991
66583SOL    HW2 1583   9.482  13.904  12.137
66584SOL     OW 1584  13.566   0.825   9.372
66584SOL    HW1 1585  13.474   0.804   9.358
66584SOL    HW2 1586  13.608   0.742   9.391
66585SOL     OW 1587  11.740   1.093   0.904
66585SOL    HW1 1588  11.739   1.089   0.809
66585SOL    HW2 1589  11.661   1.045   0.931
66586SOL     OW 1590   4.568   9.468  11.642
66586SOL    HW1 1591   4.504   9.509  11.583
66586SOL    HW2 1592   4.649   9.465  11.591
66587SOL     OW 1593   0.797   3.425   3.818
66587SOL    HW1 1594   0.821   3.399   3.729
66587SOL    HW2 1595   0.730   3.361   3.844
66588SOL     OW 1596   9.488  12.040   1.414
66588SOL    HW1 1597   9.396  12.022   1.432
66588SOL    HW2 1598   9.527  11.954   1.397
66589SOL     OW 1599   4.034  12.792   1.567
66589SOL    HW1 1600   4.034  12.737   1.645
66589SOL    HW2 1601   3.942  12.796   1.539
66590SOL     OW 1602   6.680   1.139  11.275
66590SOL    HW1 1603   6.686   1.130  11.370
66590SOL    HW2 1604   6.753   1.086  11.242
66591SOL     OW 1605   4.669  10.284   6.818
66591SOL    HW1 1606   4.694  10.248   6.903
66591SOL    HW2 1607   4.648  10.376   6.835
66592SOL     OW 1608   2.010  12.578   8.306
66592SOL    HW1 1609   2.017  12.483   8.299
66592SOL    HW2 1610   1.920  12.593   8.335
66593SOL     OW 1611  10.973  14.657   2.048
66593SOL    HW1 1612  10.980  14.698   2.135
66593SOL    HW2 1613  11.042  14.699   1.996
66594SOL     OW 1614  11.082   4.406   5.953
66594SOL    HW1 1615  11.028   4.469   6.001
66594SOL    HW2 1616  11.148   4.377   6.016
66595SOL     OW 1617   5.016  11.274   6.219
66595SOL    HW1 1618   5.032  11.186   6.185
66595SOL    HW2 1619   4.996  11.327   6.141
66596SOL     OW 1620   6.492   2.720   0.459
66596SOL    HW1 1621   6.454   2.643   0.501
66596SOL    HW2 1622   6.559   2.750   0.521
66597SOL     OW 1623   7.743   2.521   6.701
66597SOL    HW1 1624   7.791   2.567   6.771
66597SOL    HW2 1625   7.769   2.565   6.621
66598SOL     OW 1626   7.566   9.943   4.387
66598SOL    HW1 1627   7.646   9.938   4.440
66598SOL    HW2 1628   7.496   9.948   4.451
66599SOL     OW 1629   4.731   7.078   9.944
66599SOL    HW1 1630   4.695   6.990   9.931
66599SOL    HW2 1631   4.668   7.121  10.002
66600SOL     OW 1632   9.512  10.812   7.302
66600SOL    HW1 1633   9.453  10.833   7.375
66600SOL    HW2 1634   9.512  10.891   7.248
66601SOL     OW 1635   7.421   3.782   9.139
66601SOL    HW1 1636   7.494   3.735   9.178
66601SOL    HW2 1637   7.413   3.745   9.051
66602SOL     OW 1638   3.764   1.032   7.994
66602SOL    HW1 1639   3.751   1.125   8.012
66602SOL    HW2 1640   3.676   0.996   7.989
66603SOL     OW 1641  14.802   1.051  11.489
66603SOL    HW1 1642  14.744   0.997  11.544
66603SOL    HW2 1643  14.805   1.136  11.533
66604SOL     OW 1644   9.462   8.554   9.362
66604SOL    HW1 1645   9.473   8.508   9.445
66604SOL    HW2 1646   9.421   8.490   9.304
66605SOL     OW 1647  11.686   0.255   9.411
66605SOL    HW1 1648  11.731   0.269   9.494
66605SOL    HW2 1649  11.744   0.199   9.360
66606SOL     OW 1650   1.818  13.429   7.012
66606SOL    HW1 1651   1.906  13.418   6.977
66606SOL    HW2 1652   1.771  13.476   6.943
66607SOL     OW 1653   7.437   9.321   3.082
66607SOL    HW1 1654   7.502   9.385   3.111
66607SOL    HW2 1655   7.403   9.357   2.999
66608SOL     OW 1656   9.870   2.361   8.127
66608SOL    HW1 1657   9.927   2.299   8.081
66608SOL    HW2 1658   9.786   2.354   8.082
66609SOL     OW 1659   1.885   9.698   2.863
66609SOL    HW1 1660   1.928   9.612   2.857
66609SOL    HW2 1661   1.954   9.757   2.894
66610SOL     OW 1662   8.072  12.791   0.820
66610SOL    HW1 1663   8.043  12.877   0.850
66610SOL    HW2 1664   7.997  12.754   0.773
66611SOL     OW 1665   7.286   6.032   2.332
66611SOL    HW1 1666   7.248   6.106   2.379
66611SOL    HW2 1667   7.272   6.053   2.239
66612SOL     OW 1668   9.362  13.068   1.306
66612SOL    HW1 1669   9.398  13.077   1.394
66612SOL    HW2 1670   9.283  13.122   1.307
66613SOL     OW 1671   5.828  10.997   1.599
66613SOL    HW1 1672   5.903  11.056   1.588
66613SOL    HW2 1673   5.759  11.036   1.546
66614SOL     OW 1674   4.546   1.335  12.733
66614SOL    HW1 1675   4.622   1.340  12.791
66614SOL    HW2 1676   4.485   1.401  12.768
66615SOL     OW 1677  11.991   6.754   8.235
66615SOL    HW1 1678  11.937   6.821   8.278
66615SOL    HW2 1679  12.029   6.705   8.308
66616SOL     OW 1680   8.266   3.546   0.529
66616SOL    HW1 1681   8.185   3.496   0.534
66616SOL    HW2 1682   8.264   3.604   0.605
66617SOL     OW 1683   9.851   8.903  12.413
66617SOL    HW1 1684   9.865   8.812  12.388
66617SOL    HW2 1685   9.866   8.905  12.508
66618SOL     OW 1686   0.974   1.311   4.349
66618SOL    HW1 1687   0.880   1.331   4.354
66618SOL    HW2 1688   0.984   1.230   4.399
66619SOL     OW 1689   5.324   4.484   1.366
66619SOL    HW1 1690   5.301   4.530   1.285
66619SOL    HW2 1691   5.405   4.526   1.395
66620SOL     OW 1692  11.789   7.249   5.693
66620SOL    HW1 1693  11.863   7.221   5.641
66620SOL    HW2 1694  11.773   7.177   5.754
66621SOL     OW 1695   8.202  11.043  12.746
66621SOL    HW1 1696   8.141  10.985  12.792
66621SOL    HW2 1697   8.280  11.045  12.801
66622SOL     OW 1698   5.624   6.248  10.136
66622SOL    HW1 1699   5.588   6.165  10.105
66622SOL    HW2 1700   5.565   6.275  10.207
66623SOL     OW 1701  14.339   7.198   9.596
66623SOL    HW1 1702  14.372   7.164   9.513
66623SOL    HW2 1703  14.331   7.292   9.582
66624SOL     OW 1704  13.640  13.322   2.046
66624SOL    HW1 1705  13.558  13.347   2.088
66624SOL    HW2 1706  13.651  13.385   1.975
66625SOL     OW 1707   8.897   1.281  12.029
66625SOL    HW1 1708   8.937   1.218  11.969
66625SOL    HW2 1709   8.829   1.231  12.074
66626SOL     OW 1710   9.374   4.790   1.996
66626SOL    HW1 1711   9.379   4.851   1.922
66626SOL    HW2 1712   9.281   4.778   2.010
66627SOL     OW 1713  12.782   5.411   6.239
66627SOL    HW1 1714  12.687   5.402   6.232
66627SOL    HW2 1715  12.812   5.416   6.148
66628SOL     OW 1716   0.644   5.633   0.227
66628SOL    HW1 1717   0.674   5.724   0.220
66628SOL    HW2 1718   0.697   5.585   0.164
66629SOL     OW 1719  10.822   1.693   7.723
66629SOL    HW1 1720  10.806   1.755   7.794
66629SOL    HW2 1721  10.910   1.660   7.739
66630SOL     OW 1722   3.395  11.987   3.351
66630SOL    HW1 1723   3.375  12.066   3.400
66630SOL    HW2 1724   3.352  11.999   3.266
66631SOL     OW 1725   8.763   1.511   4.739
66631SOL    HW1 1726   8.804   1.593   4.714
66631SOL    HW2 1727   8.689   1.502   4.679
66632SOL     OW 1728   6.672   2.044   1.446
66632SOL    HW1 1729   6.586   2.036   1.407
66632SOL    HW2 1730   6.733   2.042   1.372
66633SOL     OW 1731   1.976  10.850  11.155
66633SOL    HW1 1732   2.042  10.817  11.216
66633SOL    HW2 1733   1.978  10.788  11.081
66634SOL     OW 1734   3.336  11.800  14.080
66634SOL    HW1 1735   3.267  11.743  14.044
66634SOL    HW2 1736   3.399  11.808  14.009
66635SOL     OW 1737   9.481  13.990   2.756
66635SOL    HW1 1738   9.551  13.939   2.797
66635SOL    HW2 1739   9.407  13.930   2.751
66636SOL     OW 1740   4.912   2.808   4.910
66636SOL    HW1 1741   4.844   2.870   4.886
66636SOL    HW2 1742   4.987   2.832   4.855
66637SOL     OW 1743   8.483   8.996   8.104
66637SOL    HW1 1744   8.435   8.919   8.134
66637SOL    HW2 1745   8.508   9.042   8.184
66638SOL     OW 1746  14.094   8.106   8.162
66638SOL    HW1 1747  14.121   8.151   8.242
66638SOL    HW2 1748  14.001   8.125   8.154
66639SOL     OW 1749  12.308   7.062  13.931
66639SOL    HW1 1750  12.263   7.062  14.016
66639SOL    HW2 1751  12.377   7.127  13.941
66640SOL     OW 1752   9.017   7.137  10.976
66640SOL    HW1 1753   9.054   7.203  10.919
66640SOL    HW2 1754   8.923   7.137  10.956
66641SOL     OW 1755   0.737  10.472   3.803
66641SOL    HW1 1756   0.801  10.430   3.745
66641SOL    HW2 1757   0.659  10.482   3.749
66642SOL     OW 1758   6.686  10.493   2.238
66642SOL    HW1 1759   6.659  10.467   2.325
66642SOL    HW2 1760   6.636  10.573   2.219
66643SOL     OW 1761   4.715   4.803   5.339
66643SOL    HW1 1762   4.685   4.894   5.344
66643SOL    HW2 1763   4.732   4.789   5.246
66644SOL     OW 1764   3.932  13.080   3.823
66644SOL    HW1 1765   3.901  13.087   3.733
66644SOL    HW2 1766   4.027  13.069   3.815
66645SOL     OW 1767   9.502  14.397   6.674
66645SOL    HW1 1768   9.419  14.445   6.678
66645SOL    HW2 1769   9.508  14.353   6.759
66646SOL     OW 1770   7.376   4.300   7.962
66646SOL    HW1 1771   7.460   4.340   7.940
66646SOL    HW2 1772   7.311   4.358   7.923
66647SOL     OW 1773   4.695   2.702   1.651
66647SOL    HW1 1774   4.681   2.788   1.611
66647SOL    HW2 1775   4.768   2.664   1.602
66648SOL     OW 1776  14.386  10.393   3.308
66648SOL    HW1 1777  14.448  10.465   3.295
66648SOL    HW2 1778  14.416  10.351   3.389
66649SOL     OW 1779  10.478  14.807  10.222
66649SOL    HW1 1780  10.564  14.839  10.195
66649SOL    HW2 1781  10.497  14.748  10.295
66650SOL     OW 1782   1.223  13.424  12.538
66650SOL    HW1 1783   1.280  13.439  12.613
66650SOL    HW2 1784   1.278  13.443  12.462
66651SOL     OW 1785  12.190   0.825   7.303
66651SOL    HW1 1786  12.235   0.830   7.387
66651SOL    HW2 1787  12.106   0.870   7.318
66652SOL     OW 1788   6.590   0.951  13.029
66652SOL    HW1 1789   6.522   1.016  13.045
66652SOL    HW2 1790   6.666   1.002  13.002
66653SOL     OW 1791   5.059  13.212   5.575
66653SOL    HW1 1792   5.060  13.307   5.583
66653SOL    HW2 1793   5.092  13.195   5.486
66654SOL     OW 1794  12.232  10.014  13.076
66654SOL    HW1 1795  12.253   9.979  13.162
66654SOL    HW2 1796  12.142  10.046  13.083
66655SOL     OW 1797   1.573  14.383  11.966
66655SOL    HW1 1798   1.619  14.450  12.016
66655SOL    HW2 1799   1.591  14.301  12.013
66656SOL     OW 1800   1.218   1.446   4.412
66656SOL    HW1 1801   1.222   1.483   4.500
66656SOL    HW2 1802   1.151   1.497   4.367
66657SOL     OW 1803   3.759   4.773   9.783
66657SOL    HW1 1804   3.675   4.815   9.801
66657SOL    HW2 1805   3.820   4.846   9.774
66658SOL     OW 1806   1.034   3.300  12.114
66658SOL    HW1 1807   1.050   3.251  12.195
66658SOL    HW2 1808   1.113   3.287  12.063
66659SOL     OW 1809   7.181   1.356   0.367
66659SOL    HW1 1810   7.264   1.331   0.326
66659SOL    HW2 1811   7.161   1.282   0.424
66660SOL     OW 1812   8.005   3.968   7.745
66660SOL    HW1 1813   7.981   4.060   7.735
66660SOL    HW2 1814   8.101   3.968   7.735
66661SOL     OW 1815   8.190  13.893   0.325
66661SOL    HW1 1816   8.159  13.854   0.407
66661SOL    HW2 1817   8.142  13.846   0.257
66662SOL     OW 1818   7.640   9.800   2.388
66662SOL    HW1 1819   7.594   9.789   2.305
66662SOL    HW2 1820   7.635   9.894   2.406
66663SOL     OW 1821  10.200  11.620   5.710
66663SOL    HW1 1822  10.287  11.638   5.676
66663SOL    HW2 1823  10.161  11.706   5.723
66664SOL     OW 1824  10.507  10.806   8.400
66664SOL    HW1 1825  10.455  10.886   8.398
66664SOL    HW2 1826  10.575  10.822   8.465
66665SOL     OW 1827   2.627   2.827   3.363
66665SOL    HW1 1828   2.622   2.740   3.401
66665SOL    HW2 1829   2.601   2.886   3.433
66666SOL     OW 1830   6.448  12.066   0.774
66666SOL    HW1 1831   6.369  12.110   0.743
66666SOL    HW2 1832   6.443  11.978   0.736
66667SOL     OW 1833   8.916  12.903   5.682
66667SOL    HW1 1834   8.923  12.813   5.716
66667SOL    HW2 1835   8.822  12.917   5.674
66668SOL     OW 1836   6.697  13.585   2.275
66668SOL    HW1 1837   6.740  13.644   2.214
66668SOL    HW2 1838   6.633  13.639   2.321
66669SOL     OW 1839   0.621   8.575  12.151
66669SOL    HW1 1840   0.552   8.629  12.111
66669SOL    HW2 1841   0.677   8.550  12.077
66670SOL     OW 1842   8.737  10.338   6.823
66670SOL    HW1 1843   8.663  10.298   6.778
66670SOL    HW2 1844   8.814  10.302   6.779
66671SOL     OW 1845   0.132   4.681  11.028
66671SOL    HW1 1846   0.103   4.639  10.947
66671SOL    HW2 1847   0.161   4.609  11.084
66672SOL     OW 1848  12.630   5.766  13.027
66672SOL    HW1 1849  12.578   5.772  13.108
66672SOL    HW2 1850  12.568   5.738  12.960
66673SOL     OW 1851   0.370  12.013   2.141
66673SOL    HW1 1852   0.432  11.972   2.200
66673SOL    HW2 1853   0.383  12.107   2.154
66674SOL     OW 1854   4.914   2.023  10.667
66674SOL    HW1 1855   4.828   1.983  10.677
66674SOL    HW2 1856   4.953   1.978  10.592
66675SOL     OW 1857  12.766  12.778   2.231
66675SOL    HW1 1858  12.819  12.725   2.290
66675SOL    HW2 1859  12.723  12.843   2.287
66676SOL     OW 1860  12.860   7.017   9.878
66676SOL    HW1 1861  12.884   7.023   9.970
66676SOL    HW2 1862  12.908   6.940   9.846
66677SOL     OW 1863   6.784   0.567  13.299
66677SOL    HW1 1864   6.734   0.546  13.220
66677SOL    HW2 1865   6.805   0.481  13.338
66678SOL     OW 1866   3.205  13.572  12.006
66678SOL    HW1 1867   3.131  13.629  11.987
66678SOL    HW2 1868   3.245  13.555  11.920
66679SOL     OW 1869   7.177   2.595   9.106
66679SOL    HW1 1870   7.109   2.649   9.066
66679SOL    HW2 1871   7.131   2.516   9.135
66680SOL     OW 1872  12.935   3.045  12.710
66680SOL    HW1 1873  12.880   3.024  12.635
66680SOL    HW2 1874  12.931   3.141  12.717
66681SOL     OW 1875   6.140   6.627   5.997
66681SOL    HW1 1876   6.089   6.704   5.972
66681SOL    HW2 1877   6.095   6.592   6.074
66682SOL     OW 1878  13.750  14.635   0.415
66682SOL    HW1 1879  13.785  14.546   0.419
66682SOL    HW2 1880  13.827  14.692   0.419
66683SOL     OW 1881   3.775   1.736   4.325
66683SOL    HW1 1882   3.853   1.729   4.269
66683SOL    HW2 1883   3.759   1.830   4.330
66684SOL     OW 1884   1.256   2.066  10.258
66684SOL    HW1 1885   1.244   2.069  10.353
66684SOL    HW2 1886   1.169   2.086  10.223
66685SOL     OW 1887  10.378   8.200   4.219
66685SOL    HW1 1888  10.342   8.201   4.308
66685SOL    HW2 1889  10.408   8.289   4.204
66686SOL     OW 1890   9.950   0.171  13.894
66686SOL    HW1 1891  10.035   0.149  13.930
66686SOL    HW2 1892   9.887   0.142  13.960
66687SOL     OW 1893   1.939  14.214  14.835
66687SOL    HW1 1894   1.904  14.288  14.785
66687SOL    HW2 1895   1.888  14.139  14.805
66688SOL     OW 1896   4.999   1.865   5.643
66688SOL    HW1 1897   5.049   1.945   5.661
66688SOL    HW2 1898   4.981   1.828   5.729
66689SOL     OW 1899  13.191   2.546   1.995
66689SOL    HW1 1900  13.226   2.621   1.947
66689SOL    HW2 1901  13.257   2.477   1.983
66690SOL     OW 1902  13.087   6.841   5.537
66690SOL    HW1 1903  13.056   6.862   5.448
66690SOL    HW2 1904  13.010   6.805   5.581
66691SOL     OW 1905   9.300  10.030   8.492
66691SOL    HW1 1906   9.382  10.079   8.502
66691SOL    HW2 1907   9.232  10.097   8.492
66692SOL     OW 1908   5.232  11.958  11.767
66692SOL    HW1 1909   5.167  12.028  11.769
66692SOL    HW2 1910   5.316  12.004  11.759
66693SOL     OW 1911   4.747   4.568   2.351
66693SOL    HW1 1912   4.799   4.600   2.277
66693SOL    HW2 1913   4.675   4.631   2.359
66694SOL     OW 1914   4.476   1.417   7.026
66694SOL    HW1 1915   4.446   1.449   7.110
66694SOL    HW2 1916   4.552   1.470   7.005
66695SOL     OW 1917   8.002   1.712   3.282
66695SOL    HW1 1918   7.966   1.672   3.361
66695SOL    HW2 1919   8.002   1.642   3.217
66696SOL     OW 1920  11.144   2.226   0.753
66696SOL    HW1 1921  11.139   2.132   0.770
66696SOL    HW2 1922  11.067   2.263   0.795
66697SOL     OW 1923  12.900   6.159  11.135
66697SOL    HW1 1924  12.831   6.124  11.079
66697SOL    HW2 1925  12.977   6.108  11.113
66698SOL     OW 1926   8.827   7.652   4.206
66698SOL    HW1 1927   8.895   7.696   4.257
66698SOL    HW2 1928   8.851   7.669   4.115
66699SOL     OW 1929  10.449  14.725  14.507
66699SOL    HW1 1930  10.378  14.661  14.502
66699SOL    HW2 1931  10.432  14.775  14.587
66700SOL     OW 1932   0.653   4.286   6.242
66700SOL    HW1 1933   0.686   4.321   6.324
66700SOL    HW2 1934   0.714   4.318   6.176
66701SOL     OW 1935  11.762  14.801  13.129
66701SOL    HW1 1936  11.752  14.749  13.050
66701SOL    HW2 1937  11.800  14.741  13.193
66702SOL     OW 1938  13.991   4.730   9.591
66702SOL    HW1 1939  14.040   4.809   9.570
66702SOL    HW2 1940  14.020   4.666   9.526
66703SOL     OW 1941   6.224  11.864   5.456
66703SOL    HW1 1942   6.135  11.898   5.459
66703SOL    HW2 1943   6.271  11.913   5.523
66704SOL     OW 1944   2.634   4.199   5.641
66704SOL    HW1 1945   2.657   4.220   5.732
66704SOL    HW2 1946   2.616   4.105   5.642
66705SOL     OW 1947   5.954  13.286   3.543
66705SOL    HW1 1948   5.988  13.219   3.484
66705SOL    HW2 1949   5.874  13.247   3.580
66706SOL     OW 1950   4.035  11.425   2.171
66706SOL    HW1 1951   4.094  11.358   2.136
66706SOL    HW2 1952   4.004  11.389   2.254
66707SOL     OW 1953   9.543   4.475   2.483
66707SOL    HW1 1954   9.565   4.560   2.445
66707SOL    HW2 1955   9.502   4.426   2.412
66708SOL     OW 1956   2.829   2.749   2.497
66708SOL    HW1 1957   2.853   2.664   2.460
66708SOL    HW2 1958   2.900   2.770   2.557
66709SOL     OW 1959   6.345   0.049  10.334
66709SOL    HW1 1960   6.340   0.024  10.426
66709SOL    HW2 1961   6.266   0.014  10.294
66710SOL     OW 1962   2.566   6.827  14.401
66710SOL    HW1 1963   2.527   6.789  14.479
66710SOL    HW2 1964   2.629   6.891  14.435
66711SOL     OW 1965   8.033   6.571   4.582
66711SOL    HW1 1966   8.062   6.479   4.589
66711SOL    HW2 1967   7.939   6.568   4.599
66712SOL     OW 1968  14.039  11.698   0.755
66712SOL    HW1 1969  14.041  11.632   0.685
66712SOL    HW2 1970  14.104  11.763   0.729
66713SOL     OW 1971   0.429   7.996  12.878
66713SOL    HW1 1972   0.505   8.037  12.917
66713SOL    HW2 1973   0.415   8.044  12.796
66714SOL     OW 1974   8.613   1.337   6.567
66714SOL    HW1 1975   8.647   1.405   6.625
66714SOL    HW2 1976   8.568   1.386   6.497
66715SOL     OW 1977  11.949  12.846   9.042
66715SOL    HW1 1978  12.004  12.846   9.120
66715SOL    HW2 1979  11.978  12.770   8.992
66716SOL     OW 1980  12.165   9.511   3.524
66716SOL    HW1 1981  12.195   9.427   3.488
66716SOL    HW2 1982  12.081   9.491   3.565
66717SOL     OW 1983   2.778   6.005  11.754
66717SOL    HW1 1984   2.778   5.915  11.788
66717SOL    HW2 1985   2.773   5.995  11.659
66718SOL     OW 1986   5.093  12.230   2.138
66718SOL    HW1 1987   5.115  12.262   2.226
66718SOL    HW2 1988   5.043  12.301   2.098
66719SOL     OW 1989   4.463   4.665   1.278
66719SOL    HW1 1990   4.414   4.668   1.196
66719SOL    HW2 1991   4.555   4.674   1.250
66720SOL     OW 1992  11.517   6.843   5.188
66720SOL    HW1 1993  11.464   6.771   5.154
66720SOL    HW2 1994  11.509   6.834   5.283
66721SOL     OW 1995   1.190  13.426   1.400
66721SOL    HW1 1996   1.163  13.500   1.453
66721SOL    HW2 1997   1.117  13.412   1.339
66722SOL     OW 1998   6.328   4.644  11.156
66722SOL    HW1 1999   6.245   4.687  11.137
66722SOL    HW2 2000   6.338   4.651  11.251
66723SOL     OW 2001   1.631   3.765   5.646
66723SOL    HW1 2002   1.678   3.785   5.565
66723SOL    HW2 2003   1.607   3.851   5.681
66724SOL     OW 2004   5.242  14.775   5.255
66724SOL    HW1 2005   5.177  14.826   5.303
66724SOL    HW2 2006   5.246  14.815   5.169
66725SOL     OW 2007  10.160   5.625  13.724
66725SOL    HW1 2008  10.245   5.644  13.765
66725SOL    HW2 2009  10.146   5.698  13.664
66726SOL     OW 2010  14.111   2.601  13.691
66726SOL    HW1 2011  14.174   2.666  13.720
66726SOL    HW2 2012  14.115   2.532  13.756
66727SOL     OW 2013  14.705   5.731   8.249
66727SOL    HW1 2014  14.670   5.659   8.197
66727SOL    HW2 2015  14.635   5.753   8.311
66728SOL     OW 2016  10.080  13.495  11.744
66728SOL    HW1 2017  10.122  13.561  11.799
66728SOL    HW2 2018   9.986  13.507  11.760
66729SOL     OW 2019  13.267   9.477   0.144
66729SOL    HW1 2020  13.198   9.422   0.107
66729SOL    HW2 2021  13.330   9.489   0.073
66730SOL     OW 2022   7.116  10.822   8.781
66730SOL    HW1 2023   7.203  10.788   8.801
66730SOL    HW2 2024   7.113  10.826   8.686
66731SOL     OW 2025   6.989  10.153  11.156
66731SOL    HW1 2026   6.916  10.094  11.140
66731SOL    HW2 2027   7.051  10.135  11.085
66732SOL     OW 2028  10.356   5.225  11.714
66732SOL    HW1 2029  10.446   5.258  11.716
66732SOL    HW2 2030  10.365   5.130  11.729
66733SOL     OW 2031  13.215  13.090   9.556
66733SOL    HW1 2032  13.128  13.060   9.528
66733SOL    HW2 2033  13.223  13.178   9.520
66734SOL     OW 2034  11.638   7.403  10.946
66734SOL    HW1 2035  11.642   7.316  10.985
66734SOL    HW2 2036  11.545   7.425  10.949
66735SOL     OW 2037   5.954   6.458  10.808
66735SOL    HW1 2038   6.041   6.423  10.786
66735SOL    HW2 2039   5.903   6.446  10.729
66736SOL     OW 2040  10.406  10.601   1.707
66736SOL    HW1 2041  10.439  10.687   1.731
66736SOL    HW2 2042  10.482  10.543   1.713
66737SOL     OW 2043   6.342  13.134  14.473
66737SOL    HW1 2044   6.311  13.061  14.526
66737SOL    HW2 2045   6.303  13.211  14.515
66738SOL     OW 2046  13.555  10.748   4.300
66738SOL    HW1 2047  13.519  10.761   4.212
66738SOL    HW2 2048  13.483  10.709   4.350
66739SOL     OW 2049   4.572   4.235  12.835
66739SOL    HW1 2050   4.611   4.263  12.753
66739SOL    HW2 2051   4.481   4.213  12.812
66740SOL     OW 2052   1.628   1.748  13.110
66740SOL    HW1 2053   1.680   1.767  13.188
66740SOL    HW2 2054   1.542   1.785  13.129
66741SOL     OW 2055   3.143  11.659  13.546
66741SOL    HW1 2056   3.168  11.572  13.513
66741SOL    HW2 2057   3.087  11.696  13.478
66742SOL     OW 2058   5.601  11.449   5.474
66742SOL    HW1 2059   5.608  11.541   5.499
66742SOL    HW2 2060   5.683  11.430   5.428
66743SOL     OW 2061   2.258  10.558   7.284
66743SOL    HW1 2062   2.230  10.524   7.199
66743SOL    HW2 2063   2.326  10.623   7.263
66744SOL     OW 2064   7.920   0.068   3.839
66744SOL    HW1 2065   8.011   0.073   3.808
66744SOL    HW2 2066   7.907   0.151   3.885
66745SOL     OW 2067   9.232   3.377   2.280
66745SOL    HW1 2068   9.320   3.409   2.260
66745SOL    HW2 2069   9.186   3.381   2.196
66746SOL     OW 2070   2.299  12.554  13.651
66746SOL    HW1 2071   2.260  12.640  13.632
66746SOL    HW2 2072   2.246  12.519  13.723
66747SOL     OW 2073   5.422   9.673  11.843
66747SOL    HW1 2074   5.402   9.674  11.750
66747SOL    HW2 2075   5.369   9.743  11.880
66748SOL     OW 2076  11.311   9.418   1.332
66748SOL    HW1 2077  11.232   9.375   1.299
66748SOL    HW2 2078  11.346   9.358   1.398
66749SOL     OW 2079   6.012   1.945   3.882
66749SOL    HW1 2080   6.006   1.887   3.958
66749SOL    HW2 2081   6.105   1.950   3.863
66750SOL     OW 2082  11.586  11.106   0.620
66750SOL    HW1 2083  11.588  11.088   0.526
66750SOL    HW2 2084  11.582  11.201   0.626
66751SOL     OW 2085   2.255   1.541   4.639
66751SOL    HW1 2086   2.235   1.635   4.632
66751SOL    HW2 2087   2.298   1.520   4.556
66752SOL     OW 2088  11.120   7.529   9.142
66752SOL    HW1 2089  11.041   7.479   9.119
66752SOL    HW2 2090  11.155   7.559   9.058
66753SOL     OW 2091  12.284   1.615   2.233
66753SOL    HW1 2092  12.349   1.645   2.169
66753SOL    HW2 2093  12.213   1.679   2.228
66754SOL     OW 2094   8.129  10.115   7.326
66754SOL    HW1 2095   8.076  10.070   7.392
66754SOL    HW2 2096   8.218  10.087   7.344
66755SOL     OW 2097   0.680   3.234   7.580
66755SOL    HW1 2098   0.774   3.237   7.559
66755SOL    HW2 2099   0.670   3.152   7.627
66756SOL     OW 2100   3.785   1.153   1.277
66756SOL    HW1 2101   3.832   1.140   1.359
66756SOL    HW2 2102   3.749   1.067   1.256
66757SOL     OW 2103  12.595   4.519   3.615
66757SOL    HW1 2104  12.523   4.464   3.645
66757SOL    HW2 2105  12.570   4.607   3.642
66758SOL     OW 2106   1.308   5.208   6.467
66758SOL    HW1 2107   1.289   5.217   6.374
66758SOL    HW2 2108   1.279   5.291   6.506
66759SOL     OW 2109   7.465   3.807   3.285
66759SOL    HW1 2110   7.439   3.803   3.376
66759SOL    HW2 2111   7.383   3.810   3.236
66760SOL     OW 2112   1.853   4.215   8.957
66760SOL    HW1 2113   1.869   4.130   8.998
66760SOL    HW2 2114   1.908   4.215   8.878
66761SOL     OW 2115   6.195   2.931  10.377
66761SOL    HW1 2116   6.189   2.928  10.472
66761SOL    HW2 2117   6.125   2.874  10.345
66762SOL     OW 2118   3.587   8.375   1.298
66762SOL    HW1 2119   3.604   8.448   1.238
66762SOL    HW2 2120   3.666   8.367   1.351
66763SOL     OW 2121   4.662   7.265   5.276
66763SOL    HW1 2122   4.571   7.263   5.307
66763SOL    HW2 2123   4.655   7.249   5.182
66764SOL     OW 2124   3.937   7.461   5.138
66764SOL    HW1 2125   4.003   7.485   5.073
66764SOL    HW2 2126   3.937   7.365   5.137
66765SOL     OW 2127  13.397  10.843  13.806
66765SOL    HW1 2128  13.360  10.802  13.885
66765SOL    HW2 2129  13.352  10.927  13.800
66766SOL     OW 2130   4.158  12.480   1.462
66766SOL    HW1 2131   4.069  12.481   1.499
66766SOL    HW2 2132   4.188  12.390   1.476
66767SOL     OW 2133   7.670   7.190   4.513
66767SOL    HW1 2134   7.728   7.114   4.513
66767SOL    HW2 2135   7.616   7.179   4.435
66768SOL     OW 2136  12.269   4.039  11.774
66768SOL    HW1 2137  12.319   3.968  11.815
66768SOL    HW2 2138  12.179   4.004  11.768
66769SOL     OW 2139   5.801   9.316   3.398
66769SOL    HW1 2140   5.848   9.351   3.474
66769SOL    HW2 2141   5.727   9.375   3.387
66770SOL     OW 2142   4.538   8.618  10.646
66770SOL    HW1 2143   4.624   8.580  10.627
66770SOL    HW2 2144   4.489   8.609  10.564
66771SOL     OW 2145   9.697   7.737   2.612
66771SOL    HW1 2146   9.785   7.703   2.626
66771SOL    HW2 2147   9.700   7.826   2.646
66772SOL     OW 2148   1.166   4.030  12.212
66772SOL    HW1 2149   1.092   3.972  12.197
66772SOL    HW2 2150   1.208   3.997  12.291
66773SOL     OW 2151  13.017   4.695   7.770
66773SOL    HW1 2152  12.960   4.746   7.828
66773SOL    HW2 2153  13.006   4.736   7.684
66774SOL     OW 2154   9.620   6.926   3.665
66774SOL    HW1 2155   9.646   6.845   3.708
66774SOL    HW2 2156   9.527   6.935   3.685
66775SOL     OW 2157   4.776   5.090   2.279
66775SOL    HW1 2158   4.761   5.183   2.263
66775SOL    HW2 2159   4.841   5.065   2.213
66776SOL     OW 2160   3.595   6.041   0.255
66776SOL    HW1 2161   3.540   6.030   0.177
66776SOL    HW2 2162   3.673   6.086   0.223
66777SOL     OW 2163  12.726   0.943   9.963
66777SOL    HW1 2164  12.633   0.966   9.972
66777SOL    HW2 2165  12.727   0.847   9.971
66778SOL     OW 2166   7.027  13.084   9.011
66778SOL    HW1 2167   7.007  13.028   9.086
66778SOL    HW2 2168   7.032  13.024   8.936
66779SOL     OW 2169   9.261   5.632   2.020
66779SOL    HW1 2170   9.258   5.671   1.933
66779SOL    HW2 2171   9.226   5.699   2.078
66780SOL     OW 2172   8.583  12.734   1.069
66780SOL    HW1 2173   8.586  12.653   1.120
66780SOL    HW2 2174   8.513  12.719   1.006
66781SOL     OW 2175   4.875   5.982   1.265
66781SOL    HW1 2176   4.815   6.018   1.330
66781SOL    HW2 2177   4.875   5.888   1.283
66782SOL     OW 2178   2.879   5.169  14.602
66782SOL    HW1 2179   2.915   5.188  14.516
66782SOL    HW2 2180   2.953   5.181  14.662
66783SOL     OW 2181  13.832   0.150  13.195
66783SOL    HW1 2182  13.775   0.121  13.124
66783SOL    HW2 2183  13.786   0.124  13.275
66784SOL     OW 2184  13.819   4.892   5.325
66784SOL    HW1 2185  13.821   4.984   5.352
66784SOL    HW2 2186  13.902   4.878   5.280
66785SOL     OW 2187   2.885  13.858   4.704
66785SOL    HW1 2188   2.911  13.777   4.747
66785SOL    HW2 2189   2.789  13.856   4.706
66786SOL     OW 2190   2.302  11.347  13.882
66786SOL    HW1 2191   2.287  11.422  13.824
66786SOL    HW2 2192   2.342  11.281  13.826
66787SOL     OW 2193   0.696  14.816   8.773
66787SOL    HW1 2194   0.677  14.731   8.814
66787SOL    HW2 2195   0.685   0.007   8.844
66788SOL     OW 2196  12.723   1.266  10.180
66788SOL    HW1 2197  12.637   1.299  10.206
66788SOL    HW2 2198  12.783   1.336  10.202
66789SOL     OW 2199  13.606   5.631   7.030
66789SOL    HW1 2200  13.553   5.708   7.053
66789SOL    HW2 2201  13.613   5.582   7.112
66790SOL     OW 2202   4.882  10.711   4.576
66790SOL    HW1 2203   4.943  10.693   4.648
66790SOL    HW2 2204   4.822  10.637   4.576
66791SOL     OW 2205   1.383   4.955   1.070
66791SOL    HW1 2206   1.450   4.959   1.138
66791SOL    HW2 2207   1.431   4.953   0.987
66792SOL     OW 2208   9.170  10.083   5.140
66792SOL    HW1 2209   9.182  10.100   5.233
66792SOL    HW2 2210   9.194  10.166   5.098
66793SOL     OW 2211   1.597  11.644   3.762
66793SOL    HW1 2212   1.551  11.679   3.686
66793SOL    HW2 2213   1.677  11.605   3.725
66794SOL     OW 2214   5.480   9.142  12.771
66794SOL    HW1 2215   5.524   9.099  12.844
66794SOL    HW2 2216   5.459   9.230  12.804
66795SOL     OW 2217   2.333   9.352   9.019
66795SOL    HW1 2218   2.287   9.385   9.095
66795SOL    HW2 2219   2.403   9.297   9.055
66796SOL     OW 2220  12.369   4.230  11.586
66796SOL    HW1 2221  12.454   4.274  11.582
66796SOL    HW2 2222  12.378   4.167  11.657
66797SOL     OW 2223   6.304  14.451   0.735
66797SOL    HW1 2224   6.352  14.533   0.725
66797SOL    HW2 2225   6.363  14.384   0.701
66798SOL     OW 2226   1.395   5.427   8.982
66798SOL    HW1 2227   1.484   5.431   8.947
66798SOL    HW2 2228   1.358   5.514   8.965
66799SOL     OW 2229   9.238  13.936  14.270
66799SOL    HW1 2230   9.161  13.980  14.236
66799SOL    HW2 2231   9.287  13.910  14.191
66800SOL     OW 2232  13.137  12.130   9.102
66800SOL    HW1 2233  13.129  12.180   9.020
66800SOL    HW2 2234  13.228  12.142   9.128
66801SOL     OW 2235  12.677  13.386   4.519
66801SOL    HW1 2236  12.735  13.317   4.488
66801SOL    HW2 2237  12.736  13.453   4.553
66802SOL     OW 2238   1.319   1.866  14.870
66802SOL    HW1 2239   1.266   1.897  14.796
66802SOL    HW2 2240   1.301   1.929   0.067
66803SOL     OW 2241   6.038  10.136   3.680
66803SOL    HW1 2242   6.069  10.197   3.614
66803SOL    HW2 2243   6.116  10.108   3.727
66804SOL     OW 2244   6.638   7.023  14.497
66804SOL    HW1 2245   6.700   6.951  14.485
66804SOL    HW2 2246   6.555   6.990  14.463
66805SOL     OW 2247  10.592   5.180   9.446
66805SOL    HW1 2248  10.555   5.104   9.491
66805SOL    HW2 2249  10.523   5.209   9.387
66806SOL     OW 2250  12.212   5.922   1.801
66806SOL    HW1 2251  12.226   5.997   1.743
66806SOL    HW2 2252  12.222   5.957   1.889
66807SOL     OW 2253   9.522   0.795  11.612
66807SOL    HW1 2254   9.595   0.854  11.631
66807SOL    HW2 2255   9.495   0.763  11.698
66808SOL     OW 2256   6.876  11.676   5.335
66808SOL    HW1 2257   6.826  11.727   5.398
66808SOL    HW2 2258   6.831  11.690   5.251
66809SOL     OW 2259  12.940   0.009  12.664
66809SOL    HW1 2260  12.879   0.019  12.737
66809SOL    HW2 2261  13.005  14.818  12.694
66810SOL     OW 2262   1.471   6.108   8.100
66810SOL    HW1 2263   1.530   6.033   8.099
66810SOL    HW2 2264   1.399   6.082   8.042
66811SOL     OW 2265   8.639   6.872   9.847
66811SOL    HW1 2266   8.590   6.827   9.916
66811SOL    HW2 2267   8.615   6.826   9.766
66812SOL     OW 2268   1.672   3.039   4.032
66812SOL    HW1 2269   1.603   2.986   4.072
66812SOL    HW2 2270   1.734   2.975   3.997
66813SOL     OW 2271  11.479   2.914   6.628
66813SOL    HW1 2272  11.468   2.827   6.667
66813SOL    HW2 2273  11.449   2.975   6.696
66814SOL     OW 2274   3.852   6.860  11.446
66814SOL    HW1 2275   3.918   6.910  11.398
66814SOL    HW2 2276   3.841   6.909  11.528
66815SOL     OW 2277  13.733   5.474   2.095
66815SOL    HW1 2278  13.746   5.528   2.172
66815SOL    HW2 2279  13.641   5.486   2.071
66816SOL     OW 2280   0.234   9.320   0.973
66816SOL    HW1 2281   0.222   9.226   0.959
66816SOL    HW2 2282   0.283   9.326   1.054
66817SOL     OW 2283  14.683  14.554  11.096
66817SOL    HW1 2284  14.695  14.513  11.011
66817SOL    HW2 2285  14.674  14.481  11.157
66818SOL     OW 2286  12.316  12.861  11.956
66818SOL    HW1 2287  12.225  12.881  11.934
66818SOL    HW2 2288  12.322  12.766  11.950
66819SOL     OW 2289  10.711   4.542  14.136
66819SOL    HW1 2290  10.625   4.584  14.139
66819SOL    HW2 2291  10.770   4.611  14.104
66820SOL     OW 2292  11.151   1.104  11.639
66820SOL    HW1 2293  11.071   1.140  11.677
66820SOL    HW2 2294  11.221   1.133  11.698
66821SOL     OW 2295   4.852   1.814   0.472
66821SOL    HW1 2296   4.821   1.724   0.479
66821SOL    HW2 2297   4.857   1.832   0.378
66822SOL     OW 2298  14.562   5.009   3.901
66822SOL    HW1 2299  14.497   4.943   3.922
66822SOL    HW2 2300  14.515   5.092   3.906
66823SOL     OW 2301   2.179   3.976   9.487
66823SOL    HW1 2302   2.092   3.983   9.448
66823SOL    HW2 2303   2.198   3.882   9.487
66824SOL     OW 2304   1.566   6.552   3.044
66824SOL    HW1 2305   1.615   6.633   3.060
66824SOL    HW2 2306   1.629   6.493   3.004
66825SOL     OW 2307   3.384   5.623  13.756
66825SOL    HW1 2308   3.460   5.582  13.715
66825SOL    HW2 2309   3.388   5.714  13.729
66826SOL     OW 2310   0.607   2.201   8.916
66826SOL    HW1 2311   0.676   2.135   8.919
66826SOL    HW2 2312   0.526   2.151   8.903
66827SOL     OW 2313   6.452   1.336   2.987
66827SOL    HW1 2314   6.382   1.355   3.050
66827SOL    HW2 2315   6.532   1.357   3.034
66828SOL     OW 2316   3.042  14.560   9.519
66828SOL    HW1 2317   3.048  14.562   9.615
66828SOL    HW2 2318   3.045  14.652   9.492
66829SOL     OW 2319   0.883   3.854   6.863
66829SOL    HW1 2320   0.844   3.781   6.910
66829SOL    HW2 2321   0.821   3.926   6.873
66830SOL     OW 2322   5.713   5.715  12.582
66830SOL    HW1 2323   5.749   5.628  12.562
66830SOL    HW2 2324   5.683   5.708  12.672
66831SOL     OW 2325   1.755   6.646  13.540
66831SOL    HW1 2326   1.684   6.583  13.526
66831SOL    HW2 2327   1.713   6.732  13.531
66832SOL     OW 2328   9.580  11.174   3.213
66832SOL    HW1 2329   9.639  11.203   3.281
66832SOL    HW2 2330   9.561  11.252   3.161
66833SOL     OW 2331   0.588  11.521  13.073
66833SOL    HW1 2332   0.534  11.442  13.070
66833SOL    HW2 2333   0.659  11.499  13.133
66834SOL     OW 2334   9.197   8.894  12.824
66834SOL    HW1 2335   9.291   8.910  12.832
66834SOL    HW2 2336   9.168   8.958  12.759
66835SOL     OW 2337   0.684  10.736  11.395
66835SOL    HW1 2338   0.762  10.742  11.339
66835SOL    HW2 2339   0.657  10.826  11.410
66836SOL     OW 2340   9.667   2.884  11.361
66836SOL    HW1 2341   9.692   2.856  11.449
66836SOL    HW2 2342   9.750   2.888  11.313
66837SOL     OW 2343   5.656   5.796  14.185
66837SOL    HW1 2344   5.680   5.720  14.238
66837SOL    HW2 2345   5.727   5.859  14.198
66838SOL     OW 2346  13.152  12.874   3.478
66838SOL    HW1 2347  13.154  12.866   3.574
66838SOL    HW2 2348  13.195  12.958   3.461
66839SOL     OW 2349  13.864  10.607   1.191
66839SOL    HW1 2350  13.828  10.518   1.192
66839SOL    HW2 2351  13.817  10.653   1.260
66840SOL     OW 2352   4.886  13.718   4.898
66840SOL    HW1 2353   4.863  13.805   4.933
66840SOL    HW2 2354   4.809  13.664   4.916
66841SOL     OW 2355   4.784  13.127   4.874
66841SOL    HW1 2356   4.689  13.119   4.866
66841SOL    HW2 2357   4.797  13.187   4.947
66842SOL     OW 2358  10.050   1.479   4.701
66842SOL    HW1 2359   9.959   1.455   4.721
66842SOL    HW2 2360  10.046   1.517   4.613
66843SOL     OW 2361  14.601  13.596   0.731
66843SOL    HW1 2362  14.611  13.571   0.823
66843SOL    HW2 2363  14.685  13.573   0.691
66844SOL     OW 2364   4.639  14.474   9.278
66844SOL    HW1 2365   4.599  14.531   9.213
66844SOL    HW2 2366   4.642  14.527   9.358
66845SOL     OW 2367   3.649   7.306   1.855
66845SOL    HW1 2368   3.567   7.272   1.891
66845SOL    HW2 2369   3.680   7.368   1.920
66846SOL     OW 2370   8.057   1.817  14.116
66846SOL    HW1 2371   8.060   1.875  14.192
66846SOL    HW2 2372   8.106   1.864  14.048
66847SOL     OW 2373  13.728  13.601   9.195
66847SOL    HW1 2374  13.770  13.687   9.195
66847SOL    HW2 2375  13.637  13.618   9.221
66848SOL     OW 2376   3.740   3.265  11.573
66848SOL    HW1 2377   3.683   3.207  11.522
66848SOL    HW2 2378   3.788   3.206  11.632
66849SOL     OW 2379   9.425   6.168   7.113
66849SOL    HW1 2380   9.430   6.133   7.201
66849SOL    HW2 2381   9.365   6.242   7.119
66850SOL     OW 2382   8.676  13.434   8.385
66850SOL    HW1 2383   8.622  13.496   8.433
66850SOL    HW2 2384   8.705  13.482   8.308
66851SOL     OW 2385  11.840  13.740   2.681
66851SOL    HW1 2386  11.841  13.739   2.777
66851SOL    HW2 2387  11.918  13.788   2.656
66852SOL     OW 2388  12.924   7.407   6.864
66852SOL    HW1 2389  12.848   7.466   6.865
66852SOL    HW2 2390  12.924   7.366   6.951
66853SOL     OW 2391   9.542   1.302  13.099
66853SOL    HW1 2392   9.482   1.356  13.150
66853SOL    HW2 2393   9.553   1.223  13.152
66854SOL     OW 2394   1.045  11.133   2.380
66854SOL    HW1 2395   0.957  11.162   2.357
66854SOL    HW2 2396   1.088  11.211   2.414
66855SOL     OW 2397   0.928   7.122  11.987
66855SOL    HW1 2398   0.857   7.101  11.926
66855SOL    HW2 2399   1.008   7.102  11.938
66856SOL     OW 2400  11.735  11.063   4.723
66856SOL    HW1 2401  11.778  11.137   4.680
66856SOL    HW2 2402  11.790  11.044   4.799
66857SOL     OW 2403   2.310   4.024  14.042
66857SOL    HW1 2404   2.348   4.095  13.990
66857SOL    HW2 2405   2.386   3.978  14.078
66858SOL     OW 2406  14.394  11.038  12.314
66858SOL    HW1 2407  14.463  10.977  12.338
66858SOL    HW2 2408  14.313  10.994  12.340
66859SOL     OW 2409  12.014  10.637   9.716
66859SOL    HW1 2410  11.947  10.698   9.746
66859SOL    HW2 2411  12.097  10.679   9.740
66860SOL     OW 2412   0.623   9.276  13.972
66860SOL    HW1 2413   0.538   9.299  13.934
66860SOL    HW2 2414   0.635   9.338  14.044
66861SOL     OW 2415   9.247   2.921  11.866
66861SOL    HW1 2416   9.157   2.898  11.842
66861SOL    HW2 2417   9.281   2.967  11.789
66862SOL     OW 2418   1.586   5.196   2.378
66862SOL    HW1 2419   1.497   5.207   2.413
66862SOL    HW2 2420   1.632   5.275   2.406
66863SOL     OW 2421  14.323   8.847  14.301
66863SOL    HW1 2422  14.290   8.910  14.365
66863SOL    HW2 2423  14.418   8.850  14.312
66864SOL     OW 2424   7.362  11.091   3.070
66864SOL    HW1 2425   7.269  11.073   3.058
66864SOL    HW2 2426   7.366  11.149   3.146
66865SOL     OW 2427  10.257  12.425   2.015
66865SOL    HW1 2428  10.162  12.431   2.028
66865SOL    HW2 2429  10.294  12.466   2.093
66866SOL     OW 2430  10.365   6.619   8.049
66866SOL    HW1 2431  10.360   6.528   8.022
66866SOL    HW2 2432  10.443   6.623   8.106
66867SOL     OW 2433  12.782  14.731   6.471
66867SOL    HW1 2434  12.798  14.736   6.565
66867SOL    HW2 2435  12.834  14.656   6.441
66868SOL     OW 2436   3.885   8.279   0.484
66868SOL    HW1 2437   3.849   8.191   0.478
66868SOL    HW2 2438   3.957   8.279   0.422
66869SOL     OW 2439  14.108   1.069   4.065
66869SOL    HW1 2440  14.036   1.129   4.082
66869SOL    HW2 2441  14.185   1.115   4.097
66870SOL     OW 2442   4.143   4.183   1.293
66870SOL    HW1 2443   4.094   4.102   1.280
66870SOL    HW2 2444   4.111   4.218   1.376
66871SOL     OW 2445   7.628   5.897  11.679
66871SOL    HW1 2446   7.615   5.805  11.699
66871SOL    HW2 2447   7.549   5.940  11.712
66872SOL     OW 2448   5.002  12.288  11.197
66872SOL    HW1 2449   5.012  12.269  11.104
66872SOL    HW2 2450   5.015  12.382  11.204
66873SOL     OW 2451  12.211  13.345   0.704
66873SOL    HW1 2452  12.154  13.345   0.781
66873SOL    HW2 2453  12.299  13.362   0.740
66874SOL     OW 2454   6.799   5.943  13.973
66874SOL    HW1 2455   6.754   5.875  13.923
66874SOL    HW2 2456   6.746   5.954  14.052
66875SOL     OW 2457  11.986   1.133  14.349
66875SOL    HW1 2458  11.918   1.177  14.299
66875SOL    HW2 2459  12.057   1.119  14.286
66876SOL     OW 2460   3.580   8.312  14.094
66876SOL    HW1 2461   3.540   8.331  14.179
66876SOL    HW2 2462   3.674   8.315  14.111
66877SOL     OW 2463  10.155   5.834   6.224
66877SOL    HW1 2464  10.198   5.757   6.186
66877SOL    HW2 2465  10.196   5.843   6.311
66878SOL     OW 2466  12.218   8.656   4.338
66878SOL    HW1 2467  12.159   8.698   4.402
66878SOL    HW2 2468  12.242   8.727   4.279
66879SOL     OW 2469   1.911   2.497  11.547
66879SOL    HW1 2470   1.846   2.449  11.496
66879SOL    HW2 2471   1.861   2.541  11.615
66880SOL     OW 2472   6.996   0.691  12.726
66880SOL    HW1 2473   7.036   0.777  12.736
66880SOL    HW2 2474   7.058   0.631  12.769
66881SOL     OW 2475  12.579   5.197  10.727
66881SOL    HW1 2476  12.514   5.218  10.660
66881SOL    HW2 2477  12.656   5.249  10.703
66882SOL     OW 2478  14.801   9.181   5.306
66882SOL    HW1 2479   0.022   9.181   5.328
66882SOL    HW2 2480  14.772   9.271   5.325
66883SOL     OW 2481   3.904  13.836   2.666
66883SOL    HW1 2482   3.971  13.855   2.601
66883SOL    HW2 2483   3.832  13.796   2.616
66884SOL     OW 2484  12.494  11.320  14.402
66884SOL    HW1 2485  12.480  11.335  14.308
66884SOL    HW2 2486  12.544  11.239  14.406
66885SOL     OW 2487   6.006  12.052  11.617
66885SOL    HW1 2488   6.042  12.066  11.705
66885SOL    HW2 2489   5.985  12.140  11.585
66886SOL     OW 2490   9.409   3.390   4.156
66886SOL    HW1 2491   9.373   3.448   4.223
66886SOL    HW2 2492   9.471   3.445   4.108
66887SOL     OW 2493  13.696  10.789   6.022
66887SOL    HW1 2494  13.697  10.855   5.953
66887SOL    HW2 2495  13.715  10.837   6.103
66888SOL     OW 2496   9.201  10.937  12.102
66888SOL    HW1 2497   9.218  10.987  12.183
66888SOL    HW2 2498   9.106  10.938  12.093
66889SOL     OW 2499   7.332  12.198   0.531
66889SOL    HW1 2500   7.358  12.106   0.530
66889SOL    HW2 2501   7.413  12.245   0.509
66890SOL     OW 2502   7.381   0.619   6.407
66890SOL    HW1 2503   7.325   0.663   6.343
66890SOL    HW2 2504   7.421   0.547   6.358
66891SOL     OW 2505   9.725   8.828   6.257
66891SOL    HW1 2506   9.686   8.751   6.297
66891SOL    HW2 2507   9.766   8.796   6.177
66892SOL     OW 2508   1.492  12.864   1.427
66892SOL    HW1 2509   1.517  12.813   1.350
66892SOL    HW2 2510   1.557  12.934   1.431
66893SOL     OW 2511  10.452   9.406  10.461
66893SOL    HW1 2512  10.536   9.408  10.506
66893SOL    HW2 2513  10.470   9.368  10.376
66894SOL     OW 2514   7.191  12.753   8.941
66894SOL    HW1 2515   7.274  12.736   8.985
66894SOL    HW2 2516   7.155  12.666   8.923
66895SOL     OW 2517  11.129   6.915   9.240
66895SOL    HW1 2518  11.154   6.855   9.170
66895SOL    HW2 2519  11.182   6.888   9.315
66896SOL     OW 2520  11.458   8.942   6.848
66896SOL    HW1 2521  11.396   8.975   6.913
66896SOL    HW2 2522  11.447   8.999   6.773
66897SOL     OW 2523  13.008  10.068  14.593
66897SOL    HW1 2524  13.046  10.124  14.660
66897SOL    HW2 2525  13.078  10.008  14.568
66898SOL     OW 2526   4.239   9.381  14.545
66898SOL    HW1 2527   4.147   9.352  14.540
66898SOL    HW2 2528   4.235   9.465  14.590
66899SOL     OW 2529   6.568   6.246  11.403
66899SOL    HW1 2530   6.494   6.240  11.343
66899SOL    HW2 2531   6.534   6.294  11.479
66900SOL     OW 2532   9.892   7.176   0.592
66900SOL    HW1 2533   9.816   7.231   0.608
66900SOL    HW2 2534   9.931   7.213   0.512
66901SOL     OW 2535  14.580   9.764  14.782
66901SOL    HW1 2536  14.489   9.793  14.778
66901SOL    HW2 2537  14.630   9.835  14.742
66902SOL     OW 2538  13.948   0.521   1.565
66902SOL    HW1 2539  13.908   0.438   1.537
66902SOL    HW2 2540  13.915   0.586   1.502
66903SOL     OW 2541   9.852  11.010  11.277
66903SOL    HW1 2542   9.923  11.057  11.235
66903SOL    HW2 2543   9.796  11.078  11.314
66904SOL     OW 2544  13.945   6.888   0.546
66904SOL    HW1 2545  13.983   6.838   0.619
66904SOL    HW2 2546  13.998   6.863   0.470
66905SOL     OW 2547  12.818   6.628   3.455
66905SOL    HW1 2548  12.893   6.687   3.462
66905SOL    HW2 2549  12.857   6.543   3.433
66906SOL     OW 2550   9.843   2.345  14.226
66906SOL    HW1 2551   9.760   2.384  14.202
66906SOL    HW2 2552   9.876   2.399  14.298
66907SOL     OW 2553  14.594   3.635   6.696
66907SOL    HW1 2554  14.548   3.671   6.620
66907SOL    HW2 2555  14.624   3.712   6.744
66908SOL     OW 2556   2.508   6.305  12.150
66908SOL    HW1 2557   2.503   6.377  12.088
66908SOL    HW2 2558   2.601   6.288  12.161
66909SOL     OW 2559   0.774  14.591   6.596
66909SOL    HW1 2560   0.734  14.638   6.669
66909SOL    HW2 2561   0.860  14.565   6.629
66910SOL     OW 2562   5.685  11.772   4.988
66910SOL    HW1 2563   5.607  11.821   5.014
66910SOL    HW2 2564   5.651  11.694   4.945
66911SOL     OW 2565   9.842   4.456   0.698
66911SOL    HW1 2566   9.762   4.407   0.677
66911SOL    HW2 2567   9.858   4.438   0.790
66912SOL     OW 2568  11.191   3.244  13.377
66912SOL    HW1 2569  11.278   3.209  13.397
66912SOL    HW2 2570  11.130   3.177  13.408
66913SOL     OW 2571   1.662  13.501  14.544
66913SOL    HW1 2572   1.744  13.473  14.583
66913SOL    HW2 2573   1.682  13.513  14.451
66914SOL     OW 2574  11.486   5.253   4.930
66914SOL    HW1 2575  11.466   5.347   4.929
66914SOL    HW2 2576  11.446   5.222   5.012
66915SOL     OW 2577   7.021   8.003  14.148
66915SOL    HW1 2578   7.046   7.913  14.168
66915SOL    HW2 2579   7.102   8.053  14.155
66916SOL     OW 2580   7.078  14.437   5.944
66916SOL    HW1 2581   7.104  14.525   5.918
66916SOL    HW2 2582   6.990  14.448   5.981
66917SOL     OW 2583   5.885  12.228   2.493
66917SOL    HW1 2584   5.858  12.319   2.506
66917SOL    HW2 2585   5.843  12.180   2.564
66918SOL     OW 2586   3.960   0.254   8.759
66918SOL    HW1 2587   3.877   0.296   8.780
66918SOL    HW2 2588   4.015   0.326   8.727
66919SOL     OW 2589  10.272   1.445  10.754
66919SOL    HW1 2590  10.332   1.373  10.741
66919SOL    HW2 2591  10.210   1.414  10.820
66920SOL     OW 2592  12.155   4.445   0.474
66920SOL    HW1 2593  12.196   4.445   0.387
66920SOL    HW2 2594  12.156   4.537   0.500
66921SOL     OW 2595  14.757  12.587   5.450
66921SOL    HW1 2596  14.671  12.578   5.408
66921SOL    HW2 2597  14.813  12.623   5.382
66922SOL     OW 2598   2.157   3.244   5.137
66922SOL    HW1 2599   2.126   3.313   5.079
66922SOL    HW2 2600   2.250   3.262   5.149
66923SOL     OW 2601   2.550   3.448  13.697
66923SOL    HW1 2602   2.478   3.431  13.757
66923SOL    HW2 2603   2.516   3.514  13.636
66924SOL     OW 2604   0.194   7.600  14.378
66924SOL    HW1 2605   0.191   7.531  14.445
66924SOL    HW2 2606   0.272   7.651  14.400
66925SOL     OW 2607  11.555  10.935   5.062
66925SOL    HW1 2608  11.628  10.994   5.039
66925SOL    HW2 2609  11.510  10.920   4.979
66926SOL     OW 2610  10.281   4.381   8.443
66926SOL    HW1 2611  10.255   4.363   8.353
66926SOL    HW2 2612  10.302   4.474   8.444
66927SOL     OW 2613  10.730  10.020   6.749
66927SOL    HW1 2614  10.688  10.103   6.772
66927SOL    HW2 2615  10.680   9.954   6.796
66928SOL     OW 2616  11.172   3.266  11.617
66928SOL    HW1 2617  11.077   3.267  11.609
66928SOL    HW2 2618  11.194   3.176  11.638
66929SOL     OW 2619   5.255   2.963   1.530
66929SOL    HW1 2620   5.159   2.952   1.526
66929SOL    HW2 2621   5.285   2.889   1.583
66930SOL     OW 2622   0.248  10.869   1.601
66930SOL    HW1 2623   0.191  10.812   1.652
66930SOL    HW2 2624   0.188  10.929   1.556
66931SOL     OW 2625   6.266   0.248   9.824
66931SOL    HW1 2626   6.185   0.263   9.872
66931SOL    HW2 2627   6.238   0.222   9.736
66932SOL     OW 2628   5.056   5.001   8.378
66932SOL    HW1 2629   5.025   4.910   8.380
66932SOL    HW2 2630   5.132   5.002   8.436
66933SOL     OW 2631  13.508  10.674   4.942
66933SOL    HW1 2632  13.504  10.611   4.870
66933SOL    HW2 2633  13.497  10.621   5.021
66934SOL     OW 2634   7.639  12.524  11.157
66934SOL    HW1 2635   7.621  12.452  11.217
66934SOL    HW2 2636   7.709  12.573  11.199
66935SOL     OW 2637   8.416   2.926   7.275
66935SOL    HW1 2638   8.340   2.984   7.282
66935SOL    HW2 2639   8.482   2.967   7.332
66936SOL     OW 2640   6.700  11.481   3.475
66936SOL    HW1 2641   6.749  11.480   3.392
66936SOL    HW2 2642   6.613  11.449   3.451
66937SOL     OW 2643   0.551  10.960   6.424
66937SOL    HW1 2644   0.473  10.912   6.452
66937SOL    HW2 2645   0.562  10.937   6.332
66938SOL     OW 2646   4.626   0.547   8.322
66938SOL    HW1 2647   4.706   0.519   8.366
66938SOL    HW2 2648   4.569   0.470   8.324
66939SOL     OW 2649  12.022   5.803   0.023
66939SOL    HW1 2650  11.959   5.855   0.072
66939SOL    HW2 2651  12.101   5.802   0.078
66940SOL     OW 2652   2.790   9.396   5.950
66940SOL    HW1 2653   2.717   9.427   6.004
66940SOL    HW2 2654   2.854   9.466   5.954
66941SOL     OW 2655  12.893  11.239   0.793
66941SOL    HW1 2656  12.897  11.162   0.850
66941SOL    HW2 2657  12.909  11.313   0.852
66942SOL     OW 2658  12.477   7.122   7.320
66942SOL    HW1 2659  12.440   7.040   7.289
66942SOL    HW2 2660  12.556   7.096   7.368
66943SOL     OW 2661   4.888  12.660   4.008
66943SOL    HW1 2662   4.949  12.673   4.081
66943SOL    HW2 2663   4.808  12.706   4.035
66944SOL     OW 2664   7.350   7.316  10.569
66944SOL    HW1 2665   7.314   7.372  10.500
66944SOL    HW2 2666   7.439   7.295  10.539
66945SOL     OW 2667   9.791   2.972   1.064
66945SOL    HW1 2668   9.883   2.987   1.086
66945SOL    HW2 2669   9.747   3.054   1.088
66946SOL     OW 2670   7.803   3.429   8.149
66946SOL    HW1 2671   7.873   3.493   8.163
66946SOL    HW2 2672   7.731   3.480   8.112
66947SOL     OW 2673   0.346   9.462  12.846
66947SOL    HW1 2674   0.290   9.539  12.857
66947SOL    HW2 2675   0.429   9.497  12.813
66948SOL     OW 2676   5.123   1.934   3.013
66948SOL    HW1 2677   5.039   1.934   3.059
66948SOL    HW2 2678   5.189   1.941   3.082
66949SOL     OW 2679   5.044   7.047   7.117
66949SOL    HW1 2680   5.073   7.139   7.112
66949SOL    HW2 2681   5.062   7.012   7.030
66950SOL     OW 2682  14.040  10.251  10.327
66950SOL    HW1 2683  14.030  10.309  10.252
66950SOL    HW2 2684  13.958  10.201  10.330
66951SOL     OW 2685  11.878   0.025   8.519
66951SOL    HW1 2686  11.816   0.065   8.580
66951SOL    HW2 2687  11.964   0.054   8.550
66952SOL     OW 2688   3.586   4.533   8.027
66952SOL    HW1 2689   3.581   4.465   7.960
66952SOL    HW2 2690   3.547   4.610   7.985
66953SOL     OW 2691  14.043   3.981   8.089
66953SOL    HW1 2692  14.132   4.016   8.099
66953SOL    HW2 2693  14.023   3.992   7.996
66954SOL     OW 2694   8.777   0.718  13.150
66954SOL    HW1 2695   8.707   0.708  13.085
66954SOL    HW2 2696   8.800   0.628  13.174
66955SOL     OW 2697   1.309   9.977   2.724
66955SOL    HW1 2698   1.338   9.906   2.666
66955SOL    HW2 2699   1.246  10.026   2.671
66956SOL     OW 2700   3.542   3.748  13.370
66956SOL    HW1 2701   3.500   3.688  13.432
66956SOL    HW2 2702   3.515   3.836  13.400
66957SOL     OW 2703  12.321   6.946   2.119
66957SOL    HW1 2704  12.364   6.880   2.173
66957SOL    HW2 2705  12.233   6.912   2.105
66958SOL     OW 2706   4.241   6.660   1.604
66958SOL    HW1 2707   4.219   6.703   1.686
66958SOL    HW2 2708   4.159   6.621   1.574
66959SOL     OW 2709  13.334   0.721  11.074
66959SOL    HW1 2710  13.334   0.702  10.980
66959SOL    HW2 2711  13.271   0.659  11.110
66960SOL     OW 2712   2.040   9.387  11.772
66960SOL    HW1 2713   2.056   9.383  11.866
66960SOL    HW2 2714   1.973   9.456  11.762
66961SOL     OW 2715  14.055   0.364   2.974
66961SOL    HW1 2716  13.969   0.395   2.946
66961SOL    HW2 2717  14.098   0.442   3.008
66962SOL     OW 2718  12.608  10.448  14.170
66962SOL    HW1 2719  12.577  10.373  14.119
66962SOL    HW2 2720  12.545  10.457  14.241
66963SOL     OW 2721   6.460   0.970   6.509
66963SOL    HW1 2722   6.394   1.000   6.572
66963SOL    HW2 2723   6.413   0.963   6.426
66964SOL     OW 2724   9.459  14.803   9.833
66964SOL    HW1 2725   9.481   0.020   9.806
66964SOL    HW2 2726   9.523  14.782   9.900
66965SOL     OW 2727   0.241   2.656   2.182
66965SOL    HW1 2728   0.185   2.669   2.105
66965SOL    HW2 2729   0.188   2.602   2.241
66966SOL     OW 2730  13.185   9.533   1.975
66966SOL    HW1 2731  13.131   9.474   2.028
66966SOL    HW2 2732  13.275   9.503   1.991
66967SOL     OW 2733   0.736   3.363   7.311
66967SOL    HW1 2734   0.680   3.286   7.309
66967SOL    HW2 2735   0.688   3.430   7.263
66968SOL     OW 2736   2.825  13.822   6.850
66968SOL    HW1 2737   2.899  13.855   6.900
66968SOL    HW2 2738   2.751  13.825   6.911
66969SOL     OW 2739   4.957  13.925  13.028
66969SOL    HW1 2740   4.953  14.018  13.007
66969SOL    HW2 2741   4.870  13.904  13.061
66970SOL     OW 2742  10.840  14.146   8.583
66970SOL    HW1 2743  10.778  14.129   8.653
66970SOL    HW2 2744  10.844  14.242   8.578
66971SOL     OW 2745   9.596   0.950   6.388
66971SOL    HW1 2746   9.623   1.021   6.447
66971SOL    HW2 2747   9.632   0.974   6.303
66972SOL     OW 2748   4.859   9.996  14.092
66972SOL    HW1 2749   4.898   9.946  14.163
66972SOL    HW2 2750   4.774   9.954  14.077
66973SOL     OW 2751   8.076  11.211  10.327
66973SOL    HW1 2752   8.044  11.121  10.318
66973SOL    HW2 2753   8.068  11.248  10.239
66974SOL     OW 2754   3.579  11.002  13.472
66974SOL    HW1 2755   3.659  11.021  13.423
66974SOL    HW2 2756   3.513  11.061  13.433
66975SOL     OW 2757   1.864  12.860   0.284
66975SOL    HW1 2758   1.863  12.867   0.188
66975SOL    HW2 2759   1.811  12.783   0.303
66976SOL     OW 2760   8.413   1.349  13.112
66976SOL    HW1 2761   8.324   1.331  13.142
66976SOL    HW2 2762   8.402   1.417  13.045
66977SOL     OW 2763   6.545   6.201   5.797
66977SOL    HW1 2764   6.586   6.116   5.813
66977SOL    HW2 2765   6.547   6.211   5.702
66978SOL     OW 2766   4.962   9.287  14.829
66978SOL    HW1 2767   4.990   9.309   0.045
66978SOL    HW2 2768   5.025   9.222  14.799
66979SOL     OW 2769   8.694   1.690  13.206
66979SOL    HW1 2770   8.648   1.608  13.225
66979SOL    HW2 2771   8.665   1.750  13.274
66980SOL     OW 2772  10.344   2.160   5.136
66980SOL    HW1 2773  10.337   2.078   5.185
66980SOL    HW2 2774  10.269   2.212   5.165
66981SOL     OW 2775  14.571   7.311  14.760
66981SOL    HW1 2776  14.528   7.259  14.692
66981SOL    HW2 2777  14.642   7.256  14.792
66982SOL     OW 2778   4.630   4.223  14.577
66982SOL    HW1 2779   4.549   4.220  14.526
66982SOL    HW2 2780   4.608   4.274  14.655
66983SOL     OW 2781   4.750   1.765   2.608
66983SOL    HW1 2782   4.806   1.712   2.665
66983SOL    HW2 2783   4.696   1.816   2.669
66984SOL     OW 2784  14.757   1.760   1.830
66984SOL    HW1 2785  14.684   1.820   1.847
66984SOL    HW2 2786  14.729   1.710   1.753
66985SOL     OW 2787   6.075   2.309   3.414
66985SOL    HW1 2788   6.069   2.221   3.377
66985SOL    HW2 2789   5.991   2.322   3.459
66986SOL     OW 2790  12.646   7.393  11.473
66986SOL    HW1 2791  12.730   7.346  11.471
66986SOL    HW2 2792  12.665   7.474  11.519
66987SOL     OW 2793  13.391   9.731   2.429
66987SOL    HW1 2794  13.421   9.653   2.382
66987SOL    HW2 2795  13.442   9.730   2.511
66988SOL     OW 2796  13.314   4.133   1.750
66988SOL    HW1 2797  13.297   4.058   1.693
66988SOL    HW2 2798  13.307   4.209   1.692
66989SOL     OW 2799  13.108  12.327   2.003
66989SOL    HW1 2800  13.073  12.402   2.051
66989SOL    HW2 2801  13.050  12.254   2.026
66990SOL     OW 2802   9.148   1.828  10.297
66990SOL    HW1 2803   9.133   1.734  10.299
66990SOL    HW2 2804   9.153   1.854  10.389
66991SOL     OW 2805   3.774  12.463  14.672
66991SOL    HW1 2806   3.742  12.542  14.716
66991SOL    HW2 2807   3.844  12.493  14.615
66992SOL     OW 2808  13.292   6.435   9.462
66992SOL    HW1 2809  13.322   6.489   9.535
66992SOL    HW2 2810  13.267   6.498   9.394
66993SOL     OW 2811   1.139   4.792   2.609
66993SOL    HW1 2812   1.127   4.753   2.696
66993SOL    HW2 2813   1.050   4.796   2.573
66994SOL     OW 2814   0.394  10.386   2.958
66994SOL    HW1 2815   0.423  10.328   3.028
66994SOL    HW2 2816   0.416  10.339   2.877
66995SOL     OW 2817   3.824   2.547  10.522
66995SOL    HW1 2818   3.828   2.600  10.602
66995SOL    HW2 2819   3.746   2.577  10.477
66996SOL     OW 2820   0.233   8.097   7.861
66996SOL    HW1 2821   0.255   8.094   7.768
66996SOL    HW2 2822   0.196   8.184   7.874
66997SOL     OW 2823   1.225  11.273  14.372
66997SOL    HW1 2824   1.134  11.303  14.367
66997SOL    HW2 2825   1.225  11.188  14.328
66998SOL     OW 2826   7.881   4.323   0.824
66998SOL    HW1 2827   7.817   4.359   0.885
66998SOL    HW2 2828   7.927   4.399   0.789
66999SOL     OW 2829   9.404   0.425   3.441
66999SOL    HW1 2830   9.385   0.508   3.484
66999SOL    HW2 2831   9.318   0.388   3.422
67000SOL     OW 2832   9.631  11.049  13.176
67000SOL    HW1 2833   9.600  11.107  13.107
67000SOL    HW2 2834   9.655  11.108  13.248
67001SOL     OW 2835  14.169   4.414  13.131
67001SOL    HW1 2836  14.109   4.479  13.169
67001SOL    HW2 2837  14.190   4.356  13.204
67002SOL     OW 2838  14.274  11.210  10.261
67002SOL    HW1 2839  14.223  11.145  10.214
67002SOL    HW2 2840  14.325  11.254  10.193
67003SOL     OW 2841   1.569  11.134   5.523
67003SOL    HW1 2842   1.572  11.196   5.595
67003SOL    HW2 2843   1.574  11.188   5.444
67004SOL     OW 2844   4.243  10.567   8.557
67004SOL    HW1 2845   4.253  10.475   8.578
67004SOL    HW2 2846   4.149  10.578   8.539
67005SOL     OW 2847   7.221   8.975  13.053
67005SOL    HW1 2848   7.206   9.026  13.132
67005SOL    HW2 2849   7.297   8.921  13.073
67006SOL     OW 2850   8.059  11.048   5.112
67006SOL    HW1 2851   8.097  10.978   5.166
67006SOL    HW2 2852   8.104  11.040   5.028
67007SOL     OW 2853   0.548   2.993   1.398
67007SOL    HW1 2854   0.632   2.947   1.386
67007SOL    HW2 2855   0.573   3.084   1.411
67008SOL     OW 2856   0.097  12.372  13.681
67008SOL    HW1 2857   0.040  12.300  13.654
67008SOL    HW2 2858   0.131  12.407  13.600
67009SOL     OW 2859   9.166  11.655   6.621
67009SOL    HW1 2860   9.094  11.599   6.593
67009SOL    HW2 2861   9.138  11.689   6.706
67010SOL     OW 2862   8.284   8.597   5.073
67010SOL    HW1 2863   8.194   8.629   5.067
67010SOL    HW2 2864   8.278   8.506   5.043
67011SOL     OW 2865   5.483   1.798   1.120
67011SOL    HW1 2866   5.430   1.722   1.096
67011SOL    HW2 2867   5.468   1.861   1.050
67012SOL     OW 2868   2.551   2.786   3.104
67012SOL    HW1 2869   2.461   2.755   3.114
67012SOL    HW2 2870   2.583   2.796   3.194
67013SOL     OW 2871   4.156   2.889   9.537
67013SOL    HW1 2872   4.158   2.879   9.442
67013SOL    HW2 2873   4.069   2.856   9.562
67014SOL     OW 2874   6.341  14.194  14.142
67014SOL    HW1 2875   6.378  14.261  14.084
67014SOL    HW2 2876   6.331  14.239  14.226
67015SOL     OW 2877   8.511  13.136  12.114
67015SOL    HW1 2878   8.434  13.083  12.095
67015SOL    HW2 2879   8.508  13.207  12.049
67016SOL     OW 2880   9.600   8.188   5.936
67016SOL    HW1 2881   9.692   8.162   5.949
67016SOL    HW2 2882   9.567   8.126   5.871
67017SOL     OW 2883   0.443   4.575   8.046
67017SOL    HW1 2884   0.484   4.638   8.104
67017SOL    HW2 2885   0.349   4.584   8.064
67018SOL     OW 2886   9.367   2.102  14.830
67018SOL    HW1 2887   9.355   2.195  14.846
67018SOL    HW2 2888   9.419   2.071   0.031
67019SOL     OW 2889   2.228  12.984  12.889
67019SOL    HW1 2890   2.303  12.959  12.943
67019SOL    HW2 2891   2.152  12.965  12.944
67020SOL     OW 2892   0.228  14.043   3.296
67020SOL    HW1 2893   0.155  14.105   3.291
67020SOL    HW2 2894   0.233  14.019   3.389
67021SOL     OW 2895   0.667   0.812  10.520
67021SOL    HW1 2896   0.741   0.871  10.507
67021SOL    HW2 2897   0.659   0.804  10.615
67022SOL     OW 2898  11.646   4.672   3.959
67022SOL    HW1 2899  11.739   4.653   3.943
67022SOL    HW2 2900  11.644   4.706   4.048
67023SOL     OW 2901   9.090   7.717   4.294
67023SOL    HW1 2902   9.120   7.658   4.225
67023SOL    HW2 2903   9.124   7.679   4.375
67024SOL     OW 2904   1.561   2.752  13.046
67024SOL    HW1 2905   1.483   2.711  13.008
67024SOL    HW2 2906   1.603   2.797  12.973
67025SOL     OW 2907   1.166  11.217  10.154
67025SOL    HW1 2908   1.244  11.269  10.175
67025SOL    HW2 2909   1.179  11.135  10.201
67026SOL     OW 2910  12.255  13.636  10.985
67026SOL    HW1 2911  12.252  13.729  11.006
67026SOL    HW2 2912  12.308  13.631  10.906
67027SOL     OW 2913  12.141   7.226   2.744
67027SOL    HW1 2914  12.147   7.264   2.657
67027SOL    HW2 2915  12.180   7.139   2.735
67028SOL     OW 2916  13.220   2.126   9.193
67028SOL    HW1 2917  13.252   2.057   9.135
67028SOL    HW2 2918  13.140   2.157   9.150
67029SOL     OW 2919  12.830  14.127   7.822
67029SOL    HW1 2920  12.789  14.202   7.780
67029SOL    HW2 2921  12.919  14.156   7.841
67030SOL     OW 2922  11.977  10.813   7.548
67030SOL    HW1 2923  12.042  10.832   7.480
67030SOL    HW2 2924  11.900  10.782   7.500
67031SOL     OW 2925   3.026   7.590   6.595
67031SOL    HW1 2926   2.946   7.587   6.647
67031SOL    HW2 2927   3.097   7.574   6.657
67032SOL     OW 2928   0.699   4.309   9.696
67032SOL    HW1 2929   0.726   4.395   9.727
67032SOL    HW2 2930   0.610   4.323   9.663
67033SOL     OW 2931   4.951   4.187   5.914
67033SOL    HW1 2932   4.946   4.092   5.929
67033SOL    HW2 2933   4.972   4.195   5.821
67034SOL     OW 2934  14.450   8.324  11.173
67034SOL    HW1 2935  14.486   8.396  11.122
67034SOL    HW2 2936  14.380   8.364  11.225
67035SOL     OW 2937   1.712   1.609  10.329
67035SOL    HW1 2938   1.617   1.608  10.340
67035SOL    HW2 2939   1.746   1.635  10.415
67036SOL     OW 2940  14.256   0.475   6.141
67036SOL    HW1 2941  14.317   0.470   6.214
67036SOL    HW2 2942  14.173   0.504   6.180
67037SOL     OW 2943   3.455  11.870   8.145
67037SOL    HW1 2944   3.541  11.849   8.182
67037SOL    HW2 2945   3.419  11.937   8.202
67038SOL     OW 2946   3.686   5.975   8.053
67038SOL    HW1 2947   3.675   5.992   7.959
67038SOL    HW2 2948   3.657   6.057   8.095
67039SOL     OW 2949  13.354   9.289   6.297
67039SOL    HW1 2950  13.309   9.209   6.325
67039SOL    HW2 2951  13.319   9.306   6.209
67040SOL     OW 2952  14.422   5.128   4.595
67040SOL    HW1 2953  14.513   5.130   4.566
67040SOL    HW2 2954  14.385   5.212   4.567
67041SOL     OW 2955  14.044   2.574   6.112
67041SOL    HW1 2956  13.987   2.533   6.046
67041SOL    HW2 2957  14.116   2.612   6.061
67042SOL     OW 2958  14.174   2.278   6.980
67042SOL    HW1 2959  14.225   2.315   6.909
67042SOL    HW2 2960  14.083   2.300   6.958
67043SOL     OW 2961   3.359  14.824   9.189
67043SOL    HW1 2962   3.370  14.798   9.097
67043SOL    HW2 2963   3.446  14.854   9.216
67044SOL     OW 2964  13.720   3.340  14.542
67044SOL    HW1 2965  13.653   3.408  14.536
67044SOL    HW2 2966  13.779   3.370  14.610
67045SOL     OW 2967  14.337   0.360   1.490
67045SOL    HW1 2968  14.423   0.340   1.529
67045SOL    HW2 2969  14.319   0.285   1.432
67046SOL     OW 2970   7.434  11.079   6.583
67046SOL    HW1 2971   7.349  11.034   6.584
67046SOL    HW2 2972   7.461  11.078   6.492
67047SOL     OW 2973   3.462   8.110   9.521
67047SOL    HW1 2974   3.533   8.137   9.463
67047SOL    HW2 2975   3.393   8.175   9.506
67048SOL     OW 2976   6.553   5.590   8.602
67048SOL    HW1 2977   6.462   5.572   8.578
67048SOL    HW2 2978   6.555   5.575   8.697
67049SOL     OW 2979   5.911   9.550  12.634
67049SOL    HW1 2980   5.929   9.506  12.717
67049SOL    HW2 2981   5.841   9.611  12.654
67050SOL     OW 2982   0.945   7.601   3.875
67050SOL    HW1 2983   0.874   7.664   3.885
67050SOL    HW2 2984   1.017   7.650   3.835
67051SOL     OW 2985   0.991   0.667  10.111
67051SOL    HW1 2986   0.950   0.753  10.097
67051SOL    HW2 2987   0.971   0.618  10.032
67052SOL     OW 2988  14.645  10.989  11.906
67052SOL    HW1 2989  14.708  10.955  11.843
67052SOL    HW2 2990  14.611  10.911  11.950
67053SOL     OW 2991   3.918   0.435   1.875
67053SOL    HW1 2992   4.008   0.403   1.887
67053SOL    HW2 2993   3.927   0.507   1.812
67054SOL     OW 2994  11.047   5.669   9.252
67054SOL    HW1 2995  11.010   5.587   9.220
67054SOL    HW2 2996  11.116   5.643   9.313
67055SOL     OW 2997   1.098   0.926  11.571
67055SOL    HW1 2998   1.190   0.951  11.576
67055SOL    HW2 2999   1.068   0.961  11.487
67056SOL     OW 3000   9.687   8.497   9.951
67056SOL    HW1 3001   9.721   8.450  10.027
67056SOL    HW2 3002   9.762   8.505   9.892
67057SOL     OW 3003   1.056   6.940   8.841
67057SOL    HW1 3004   1.108   6.952   8.761
67057SOL    HW2 3005   1.102   6.872   8.890
67058SOL     OW 3006   0.240   4.107   3.804
67058SOL    HW1 3007   0.278   4.123   3.717
67058SOL    HW2 3008   0.154   4.070   3.786
67059SOL     OW 3009   7.387   8.093   6.984
67059SOL    HW1 3010   7.380   8.183   6.953
67059SOL    HW2 3011   7.328   8.044   6.927
67060SOL     OW 3012   2.882  11.406  13.482
67060SOL    HW1 3013   2.950  11.455  13.436
67060SOL    HW2 3014   2.820  11.473  13.510
67061SOL     OW 3015   6.916   0.645   7.358
67061SOL    HW1 3016   6.841   0.701   7.337
67061SOL    HW2 3017   6.878   0.559   7.375
67062SOL     OW 3018   5.093  14.633   3.474
67062SOL    HW1 3019   5.182  14.599   3.475
67062SOL    HW2 3020   5.093  14.699   3.405
67063SOL     OW 3021   0.789  11.079   7.744
67063SOL    HW1 3022   0.873  11.105   7.707
67063SOL    HW2 3023   0.771  10.993   7.706
67064SOL     OW 3024   5.746   3.737   4.286
67064SOL    HW1 3025   5.695   3.791   4.225
67064SOL    HW2 3026   5.698   3.742   4.368
67065SOL     OW 3027   1.389   7.782  10.639
67065SOL    HW1 3028   1.474   7.742  10.661
67065SOL    HW2 3029   1.401   7.875  10.655
67066SOL     OW 3030   0.315  11.566  10.676
67066SOL    HW1 3031   0.341  11.631  10.742
67066SOL    HW2 3032   0.237  11.605  10.635
67067SOL     OW 3033   8.475   2.596   8.698
67067SOL    HW1 3034   8.525   2.658   8.645
67067SOL    HW2 3035   8.540   2.535   8.731
67068SOL     OW 3036   9.008   7.749   0.649
67068SOL    HW1 3037   8.920   7.788   0.655
67068SOL    HW2 3038   9.066   7.824   0.638
67069SOL     OW 3039   4.916   3.168   8.990
67069SOL    HW1 3040   5.002   3.195   9.024
67069SOL    HW2 3041   4.859   3.169   9.067
67070SOL     OW 3042  12.003   2.886  14.743
67070SOL    HW1 3043  12.005   2.889  14.647
67070SOL    HW2 3044  11.933   2.824  14.764
67071SOL     OW 3045   1.112   6.477  10.242
67071SOL    HW1 3046   1.044   6.508  10.182
67071SOL    HW2 3047   1.073   6.487  10.329
67072SOL     OW 3048  12.437  12.722   1.097
67072SOL    HW1 3049  12.513  12.729   1.039
67072SOL    HW2 3050  12.395  12.808   1.091
67073SOL     OW 3051   2.488   6.516   3.168
67073SOL    HW1 3052   2.397   6.529   3.142
67073SOL    HW2 3053   2.483   6.495   3.262
67074SOL     OW 3054   1.059  12.428   0.175
67074SOL    HW1 3055   1.115  12.371   0.122
67074SOL    HW2 3056   1.012  12.482   0.111
67075SOL     OW 3057   6.205   6.516  11.307
67075SOL    HW1 3058   6.192   6.548  11.218
67075SOL    HW2 3059   6.295   6.540  11.329
67076SOL     OW 3060   3.318   5.089  13.692
67076SOL    HW1 3061   3.394   5.065  13.745
67076SOL    HW2 3062   3.345   5.167  13.645
67077SOL     OW 3063   4.480  13.180  13.617
67077SOL    HW1 3064   4.507  13.089  13.631
67077SOL    HW2 3065   4.454  13.184  13.526
67078SOL     OW 3066   6.460   2.336   5.335
67078SOL    HW1 3067   6.393   2.333   5.266
67078SOL    HW2 3068   6.531   2.387   5.297
67079SOL     OW 3069   4.789  10.767   2.490
67079SOL    HW1 3070   4.738  10.755   2.570
67079SOL    HW2 3071   4.761  10.695   2.432
67080SOL     OW 3072  11.528   3.249   4.582
67080SOL    HW1 3073  11.484   3.166   4.564
67080SOL    HW2 3074  11.621   3.229   4.571
67081SOL     OW 3075   8.908   3.829   4.341
67081SOL    HW1 3076   8.936   3.893   4.276
67081SOL    HW2 3077   8.815   3.816   4.324
67082SOL     OW 3078   0.726   1.696   8.465
67082SOL    HW1 3079   0.663   1.750   8.513
67082SOL    HW2 3080   0.675   1.622   8.434
67083SOL     OW 3081  10.822  13.644   4.851
67083SOL    HW1 3082  10.863  13.557   4.851
67083SOL    HW2 3083  10.888  13.700   4.893
67084SOL     OW 3084   8.281   4.458  10.096
67084SOL    HW1 3085   8.204   4.497  10.055
67084SOL    HW2 3086   8.249   4.426  10.181
67085SOL     OW 3087   1.517   8.261  11.558
67085SOL    HW1 3088   1.570   8.190  11.522
67085SOL    HW2 3089   1.477   8.224  11.636
67086SOL     OW 3090  13.658   4.537   2.404
67086SOL    HW1 3091  13.604   4.587   2.464
67086SOL    HW2 3092  13.641   4.445   2.426
67087SOL     OW 3093   9.861   1.964  13.354
67087SOL    HW1 3094   9.898   1.882  13.389
67087SOL    HW2 3095   9.779   1.937  13.314
67088SOL     OW 3096   5.171   9.421   2.430
67088SOL    HW1 3097   5.104   9.475   2.388
67088SOL    HW2 3098   5.216   9.481   2.490
67089SOL     OW 3099  14.025  10.461  12.499
67089SOL    HW1 3100  14.107  10.479  12.453
67089SOL    HW2 3101  13.994  10.547  12.528
67090SOL     OW 3102   5.687   5.877  12.845
67090SOL    HW1 3103   5.707   5.918  12.929
67090SOL    HW2 3104   5.686   5.783  12.863
67091SOL     OW 3105   4.831   7.163  11.689
67091SOL    HW1 3106   4.783   7.081  11.697
67091SOL    HW2 3107   4.922   7.136  11.679
67092SOL     OW 3108   6.770  11.432   1.994
67092SOL    HW1 3109   6.771  11.515   2.041
67092SOL    HW2 3110   6.691  11.436   1.940
67093SOL     OW 3111   3.077   6.083   8.915
67093SOL    HW1 3112   3.153   6.031   8.939
67093SOL    HW2 3113   3.033   6.031   8.848
67094SOL     OW 3114   5.910  13.299  11.604
67094SOL    HW1 3115   5.824  13.264  11.581
67094SOL    HW2 3116   5.952  13.319  11.520
67095SOL     OW 3117   7.488   5.067  10.268
67095SOL    HW1 3118   7.525   5.156  10.269
67095SOL    HW2 3119   7.434   5.064  10.189
67096SOL     OW 3120   3.963   9.442  13.592
67096SOL    HW1 3121   4.057   9.437  13.578
67096SOL    HW2 3122   3.954   9.460  13.686
67097SOL     OW 3123   7.435   9.261  10.280
67097SOL    HW1 3124   7.360   9.202  10.281
67097SOL    HW2 3125   7.479   9.243  10.197
67098SOL     OW 3126  12.489   1.227   4.901
67098SOL    HW1 3127  12.582   1.233   4.881
67098SOL    HW2 3128  12.458   1.318   4.899
67099SOL     OW 3129   8.122   4.269   5.578
67099SOL    HW1 3130   8.113   4.242   5.669
67099SOL    HW2 3131   8.033   4.294   5.551
67100SOL     OW 3132  13.446  13.294   1.762
67100SOL    HW1 3133  13.524  13.254   1.726
67100SOL    HW2 3134  13.476  13.376   1.801
67101SOL     OW 3135  11.856   3.217   3.926
67101SOL    HW1 3136  11.901   3.144   3.969
67101SOL    HW2 3137  11.769   3.182   3.908
67102SOL     OW 3138   8.894   9.775   5.560
67102SOL    HW1 3139   8.922   9.684   5.547
67102SOL    HW2 3140   8.804   9.777   5.529
67103SOL     OW 3141   3.159   9.534   8.692
67103SOL    HW1 3142   3.076   9.580   8.677
67103SOL    HW2 3143   3.136   9.441   8.688
67104SOL     OW 3144   4.252   9.973  14.070
67104SOL    HW1 3145   4.334  10.018  14.091
67104SOL    HW2 3146   4.186  10.042  14.068
67105SOL     OW 3147  13.936   6.153  11.936
67105SOL    HW1 3148  13.858   6.113  11.897
67105SOL    HW2 3149  14.006   6.090  11.917
67106SOL     OW 3150  11.104  10.880  12.521
67106SOL    HW1 3151  11.158  10.807  12.489
67106SOL    HW2 3152  11.105  10.869  12.616
67107SOL     OW 3153  11.165   8.216  12.257
67107SOL    HW1 3154  11.069   8.210  12.255
67107SOL    HW2 3155  11.195   8.125  12.250
67108SOL     OW 3156   4.530   7.682  14.625
67108SOL    HW1 3157   4.597   7.714  14.564
67108SOL    HW2 3158   4.498   7.761  14.669
67109SOL     OW 3159   6.957   4.007   6.898
67109SOL    HW1 3160   6.877   3.962   6.926
67109SOL    HW2 3161   6.959   4.087   6.952
67110SOL     OW 3162  12.570   5.509   9.017
67110SOL    HW1 3163  12.521   5.462   9.085
67110SOL    HW2 3164  12.627   5.443   8.978
67111SOL     OW 3165   6.517   2.011  12.500
67111SOL    HW1 3166   6.490   2.099  12.475
67111SOL    HW2 3167   6.570   1.980  12.427
67112SOL     OW 3168   9.887  11.115   9.913
67112SOL    HW1 3169   9.965  11.157   9.878
67112SOL    HW2 3170   9.850  11.179   9.973
67113SOL     OW 3171  10.481   5.289  12.271
67113SOL    HW1 3172  10.409   5.319  12.326
67113SOL    HW2 3173  10.526   5.369  12.244
67114SOL     OW 3174   3.887   7.945  14.183
67114SOL    HW1 3175   3.861   7.936  14.091
67114SOL    HW2 3176   3.970   7.991  14.180
67115SOL     OW 3177  14.711   7.720   4.469
67115SOL    HW1 3178  14.697   7.808   4.434
67115SOL    HW2 3179  14.798   7.695   4.438
67116SOL     OW 3180   2.138   4.338   8.713
67116SOL    HW1 3181   2.113   4.403   8.779
67116SOL    HW2 3182   2.226   4.311   8.738
67117SOL     OW 3183   3.750   5.892   6.101
67117SOL    HW1 3184   3.824   5.841   6.068
67117SOL    HW2 3185   3.674   5.835   6.086
67118SOL     OW 3186   0.832  12.935   5.221
67118SOL    HW1 3187   0.748  12.982   5.221
67118SOL    HW2 3188   0.898  13.004   5.224
67119SOL     OW 3189  13.720   8.116   7.380
67119SOL    HW1 3190  13.780   8.185   7.352
67119SOL    HW2 3191  13.770   8.035   7.374
67120SOL     OW 3192   5.493   1.568  13.722
67120SOL    HW1 3193   5.410   1.587  13.679
67120SOL    HW2 3194   5.469   1.528  13.805
67121SOL     OW 3195  14.128   4.853  13.204
67121SOL    HW1 3196  14.196   4.917  13.179
67121SOL    HW2 3197  14.136   4.783  13.139
67122SOL     OW 3198   7.977   3.762   3.433
67122SOL    HW1 3199   7.898   3.792   3.388
67122SOL    HW2 3200   7.949   3.683   3.480
67123SOL     OW 3201  11.894   4.503   4.954
67123SOL    HW1 3202  11.840   4.502   5.032
67123SOL    HW2 3203  11.835   4.479   4.883
67124SOL     OW 3204   9.242   5.058   7.437
67124SOL    HW1 3205   9.237   5.091   7.347
67124SOL    HW2 3206   9.269   4.967   7.429
67125SOL     OW 3207   1.461   3.910   3.587
67125SOL    HW1 3208   1.410   3.857   3.647
67125SOL    HW2 3209   1.552   3.893   3.611
67126SOL     OW 3210   7.434  10.450   9.290
67126SOL    HW1 3211   7.457  10.529   9.339
67126SOL    HW2 3212   7.479  10.379   9.335
67127SOL     OW 3213  13.834   5.824   9.190
67127SOL    HW1 3214  13.849   5.743   9.142
67127SOL    HW2 3215  13.739   5.831   9.197
67128SOL     OW 3216   5.181   5.177   2.125
67128SOL    HW1 3217   5.220   5.139   2.046
67128SOL    HW2 3218   5.108   5.229   2.093
67129SOL     OW 3219   6.442   3.463   2.362
67129SOL    HW1 3220   6.404   3.494   2.444
67129SOL    HW2 3221   6.384   3.498   2.294
67130SOL     OW 3222   6.149   8.727   1.506
67130SOL    HW1 3223   6.126   8.647   1.554
67130SOL    HW2 3224   6.202   8.777   1.568
67131SOL     OW 3225   5.148   3.951  13.792
67131SOL    HW1 3226   5.241   3.935  13.809
67131SOL    HW2 3227   5.104   3.927  13.874
67132SOL     OW 3228  13.525   4.880  10.787
67132SOL    HW1 3229  13.541   4.970  10.757
67132SOL    HW2 3230  13.435   4.881  10.819
67133SOL     OW 3231   1.867  12.420   9.328
67133SOL    HW1 3232   1.826  12.499   9.362
67133SOL    HW2 3233   1.960  12.441   9.323
67134SOL     OW 3234   5.211   1.763   3.765
67134SOL    HW1 3235   5.252   1.808   3.839
67134SOL    HW2 3236   5.165   1.690   3.804
67135SOL     OW 3237   7.770   6.934  10.647
67135SOL    HW1 3238   7.724   7.018  10.644
67135SOL    HW2 3239   7.831   6.943  10.720
67136SOL     OW 3240   3.043  13.862   9.704
67136SOL    HW1 3241   3.061  13.916   9.780
67136SOL    HW2 3242   3.094  13.782   9.718
67137SOL     OW 3243  10.622   1.918  11.786
67137SOL    HW1 3244  10.626   2.009  11.755
67137SOL    HW2 3245  10.537   1.913  11.830
67138SOL     OW 3246   8.520  10.433  10.529
67138SOL    HW1 3247   8.559  10.494  10.466
67138SOL    HW2 3248   8.491  10.490  10.601
67139SOL     OW 3249   9.250   5.123  14.818
67139SOL    HW1 3250   9.294   5.163  14.743
67139SOL    HW2 3251   9.247   5.192   0.011
67140SOL     OW 3252  10.047   3.767   3.471
67140SOL    HW1 3253   9.993   3.748   3.394
67140SOL    HW2 3254  10.035   3.692   3.529
67141SOL     OW 3255  12.384   0.608   6.842
67141SOL    HW1 3256  12.394   0.547   6.769
67141SOL    HW2 3257  12.316   0.669   6.813
67142SOL     OW 3258   2.436   8.314   7.336
67142SOL    HW1 3259   2.388   8.395   7.352
67142SOL    HW2 3260   2.395   8.250   7.394
67143SOL     OW 3261   8.053   7.448   8.637
67143SOL    HW1 3262   8.112   7.446   8.561
67143SOL    HW2 3263   8.073   7.531   8.681
67144SOL     OW 3264   1.534   7.347   4.358
67144SOL    HW1 3265   1.478   7.286   4.405
67144SOL    HW2 3266   1.596   7.292   4.310
67145SOL     OW 3267   8.438  13.049   7.785
67145SOL    HW1 3268   8.484  13.059   7.868
67145SOL    HW2 3269   8.389  12.967   7.794
67146SOL     OW 3270   1.177  10.950   8.133
67146SOL    HW1 3271   1.104  10.991   8.179
67146SOL    HW2 3272   1.253  11.005   8.154
67147SOL     OW 3273   1.580  12.932  10.071
67147SOL    HW1 3274   1.498  12.934  10.121
67147SOL    HW2 3275   1.588  13.020  10.035
67148SOL     OW 3276   0.407   6.060  12.376
67148SOL    HW1 3277   0.414   5.979  12.326
67148SOL    HW2 3278   0.465   6.122  12.331
67149SOL     OW 3279   3.077   3.630   7.635
67149SOL    HW1 3280   3.142   3.676   7.688
67149SOL    HW2 3281   3.125   3.603   7.556
67150SOL     OW 3282   5.200  12.092   1.470
67150SOL    HW1 3283   5.258  12.162   1.440
67150SOL    HW2 3284   5.183  12.039   1.392
67151SOL     OW 3285  11.049  13.612  14.410
67151SOL    HW1 3286  11.119  13.547  14.405
67151SOL    HW2 3287  11.086  13.683  14.462
67152SOL     OW 3288   4.823  14.812   7.295
67152SOL    HW1 3289   4.907  14.853   7.315
67152SOL    HW2 3290   4.787  14.787   7.381
67153SOL     OW 3291   4.180  10.117   4.222
67153SOL    HW1 3292   4.242  10.129   4.150
67153SOL    HW2 3293   4.130  10.039   4.199
67154SOL     OW 3294   9.395   5.715  10.070
67154SOL    HW1 3295   9.405   5.646  10.136
67154SOL    HW2 3296   9.302   5.713  10.048
67155SOL     OW 3297   4.756   4.569   5.501
67155SOL    HW1 3298   4.740   4.623   5.424
67155SOL    HW2 3299   4.708   4.612   5.571
67156SOL     OW 3300  10.553   5.435  14.774
67156SOL    HW1 3301  10.480   5.440  14.712
67156SOL    HW2 3302  10.584   5.345  14.768
67157SOL     OW 3303   0.300   1.980   0.499
67157SOL    HW1 3304   0.267   1.904   0.450
67157SOL    HW2 3305   0.303   1.949   0.590
67158SOL     OW 3306   9.239  12.422  11.362
67158SOL    HW1 3307   9.305  12.353  11.356
67158SOL    HW2 3308   9.170  12.395  11.302
67159SOL     OW 3309   1.921   3.986   4.773
67159SOL    HW1 3310   1.943   4.027   4.689
67159SOL    HW2 3311   1.965   4.040   4.838
67160SOL     OW 3312   4.615  12.500   2.307
67160SOL    HW1 3313   4.688  12.496   2.369
67160SOL    HW2 3314   4.537  12.489   2.362
67161SOL     OW 3315   0.383   4.032  10.586
67161SOL    HW1 3316   0.358   3.963  10.647
67161SOL    HW2 3317   0.468   4.064  10.618
67162SOL     OW 3318  11.061   2.031   5.483
67162SOL    HW1 3319  11.105   2.114   5.500
67162SOL    HW2 3320  11.051   1.991   5.570
67163SOL     OW 3321   2.663   5.503  13.574
67163SOL    HW1 3322   2.576   5.535  13.597
67163SOL    HW2 3323   2.653   5.408  13.570
67164SOL     OW 3324  10.515  11.976  14.418
67164SOL    HW1 3325  10.422  11.983  14.394
67164SOL    HW2 3326  10.515  11.917  14.493
67165SOL     OW 3327  12.931  10.515  11.039
67165SOL    HW1 3328  12.944  10.520  11.134
67165SOL    HW2 3329  12.884  10.433  11.026
67166SOL     OW 3330   0.320   4.916  11.517
67166SOL    HW1 3331   0.365   4.958  11.590
67166SOL    HW2 3332   0.230   4.905  11.548
67167SOL     OW 3333  12.429  11.783   3.058
67167SOL    HW1 3334  12.500  11.838   3.093
67167SOL    HW2 3335  12.365  11.779   3.128
67168SOL     OW 3336  12.162   9.770   0.218
67168SOL    HW1 3337  12.104   9.780   0.294
67168SOL    HW2 3338  12.243   9.814   0.244
67169SOL     OW 3339   0.079  13.662   0.188
67169SOL    HW1 3340   0.039  13.703   0.112
67169SOL    HW2 3341   0.006  13.645   0.247
67170SOL     OW 3342   3.924   1.785   2.967
67170SOL    HW1 3343   3.900   1.868   2.925
67170SOL    HW2 3344   3.848   1.729   2.953
67171SOL     OW 3345   2.961  10.893  13.198
67171SOL    HW1 3346   2.929  10.910  13.109
67171SOL    HW2 3347   2.897  10.832  13.235
67172SOL     OW 3348   2.806   7.890   1.618
67172SOL    HW1 3349   2.809   7.804   1.660
67172SOL    HW2 3350   2.722   7.893   1.574
67173SOL     OW 3351   5.602   9.174   1.347
67173SOL    HW1 3352   5.539   9.226   1.297
67173SOL    HW2 3353   5.678   9.166   1.290
67174SOL     OW 3354   0.295   6.050   2.163
67174SOL    HW1 3355   0.279   5.997   2.242
67174SOL    HW2 3356   0.338   6.129   2.196
67175SOL     OW 3357   4.442  13.314   8.297
67175SOL    HW1 3358   4.397  13.230   8.289
67175SOL    HW2 3359   4.398  13.371   8.235
67176SOL     OW 3360   2.534  12.336   3.632
67176SOL    HW1 3361   2.618  12.381   3.637
67176SOL    HW2 3362   2.550  12.251   3.674
67177SOL     OW 3363   8.762  11.444   4.548
67177SOL    HW1 3364   8.726  11.462   4.634
67177SOL    HW2 3365   8.855  11.424   4.564
67178SOL     OW 3366   5.691   3.387  11.070
67178SOL    HW1 3367   5.749   3.356  11.001
67178SOL    HW2 3368   5.620   3.323  11.073
67179SOL     OW 3369  12.132   3.433   1.356
67179SOL    HW1 3370  12.191   3.413   1.284
67179SOL    HW2 3371  12.081   3.353   1.369
67180SOL     OW 3372   0.869   7.931   0.049
67180SOL    HW1 3373   0.851   8.017   0.011
67180SOL    HW2 3374   0.885   7.874  14.847
67181SOL     OW 3375   5.876   3.456   8.709
67181SOL    HW1 3376   5.786   3.489   8.716
67181SOL    HW2 3377   5.927   3.513   8.766
67182SOL     OW 3378   8.406   9.308   2.520
67182SOL    HW1 3379   8.451   9.387   2.489
67182SOL    HW2 3380   8.474   9.259   2.567
67183SOL     OW 3381  14.319   8.676   1.981
67183SOL    HW1 3382  14.347   8.711   1.897
67183SOL    HW2 3383  14.233   8.638   1.964
67184SOL     OW 3384   2.343   7.486   2.369
67184SOL    HW1 3385   2.386   7.567   2.396
67184SOL    HW2 3386   2.401   7.449   2.303
67185SOL     OW 3387  14.679   5.313  12.511
67185SOL    HW1 3388  14.701   5.222  12.532
67185SOL    HW2 3389  14.584   5.317  12.520
67186SOL     OW 3390   0.634  13.059   3.560
67186SOL    HW1 3391   0.571  13.074   3.631
67186SOL    HW2 3392   0.612  12.973   3.526
67187SOL     OW 3393  12.216   3.414   9.951
67187SOL    HW1 3394  12.276   3.361   9.899
67187SOL    HW2 3395  12.159   3.351   9.994
67188SOL     OW 3396  11.109   2.507  13.764
67188SOL    HW1 3397  11.130   2.421  13.729
67188SOL    HW2 3398  11.048   2.545  13.701
67189SOL     OW 3399  12.220  11.156   7.014
67189SOL    HW1 3400  12.148  11.164   6.951
67189SOL    HW2 3401  12.297  11.136   6.961
67190SOL     OW 3402   2.046   5.795   3.324
67190SOL    HW1 3403   2.061   5.890   3.315
67190SOL    HW2 3404   1.951   5.787   3.334
67191SOL     OW 3405   6.097   7.436  12.319
67191SOL    HW1 3406   6.146   7.507  12.359
67191SOL    HW2 3407   6.047   7.397  12.390
67192SOL     OW 3408   4.014   1.245   5.790
67192SOL    HW1 3409   4.025   1.170   5.849
67192SOL    HW2 3410   4.045   1.214   5.705
67193SOL     OW 3411   4.099  14.685   1.112
67193SOL    HW1 3412   4.087  14.767   1.161
67193SOL    HW2 3413   4.026  14.630   1.139
67194SOL     OW 3414   4.190   3.614   3.240
67194SOL    HW1 3415   4.103   3.606   3.201
67194SOL    HW2 3416   4.187   3.697   3.288
67195SOL     OW 3417  11.380   7.463  11.044
67195SOL    HW1 3418  11.425   7.505  11.118
67195SOL    HW2 3419  11.298   7.512  11.035
67196SOL     OW 3420   0.227   9.649   2.610
67196SOL    HW1 3421   0.321   9.653   2.629
67196SOL    HW2 3422   0.189   9.721   2.660
67197SOL     OW 3423   2.561   2.468   9.788
67197SOL    HW1 3424   2.478   2.421   9.798
67197SOL    HW2 3425   2.536   2.560   9.781
67198SOL     OW 3426  12.599   8.908  11.184
67198SOL    HW1 3427  12.536   8.899  11.255
67198SOL    HW2 3428  12.593   8.824  11.137
67199SOL     OW 3429   3.654  13.292   1.212
67199SOL    HW1 3430   3.588  13.348   1.253
67199SOL    HW2 3431   3.675  13.227   1.278
67200SOL     OW 3432   6.212   2.210   3.780
67200SOL    HW1 3433   6.230   2.124   3.740
67200SOL    HW2 3434   6.254   2.273   3.721
67201SOL     OW 3435   9.292   7.424   2.901
67201SOL    HW1 3436   9.251   7.352   2.950
67201SOL    HW2 3437   9.327   7.482   2.969
67202SOL     OW 3438   7.949  11.946   3.024
67202SOL    HW1 3439   7.902  11.864   3.006
67202SOL    HW2 3440   7.888  11.997   3.077
67203SOL     OW 3441   1.617   8.525   7.316
67203SOL    HW1 3442   1.637   8.442   7.273
67203SOL    HW2 3443   1.667   8.522   7.398
67204SOL     OW 3444   6.506   6.839  10.172
67204SOL    HW1 3445   6.561   6.848  10.094
67204SOL    HW2 3446   6.422   6.807  10.139
67205SOL     OW 3447   0.769   8.513  14.553
67205SOL    HW1 3448   0.851   8.472  14.581
67205SOL    HW2 3449   0.787   8.607  14.551
67206SOL     OW 3450   7.954  12.461   2.444
67206SOL    HW1 3451   7.891  12.391   2.426
67206SOL    HW2 3452   7.994  12.480   2.358
67207SOL     OW 3453  13.037   5.224   2.321
67207SOL    HW1 3454  13.055   5.281   2.247
67207SOL    HW2 3455  12.953   5.182   2.300
67208SOL     OW 3456   5.460  10.601   9.465
67208SOL    HW1 3457   5.444  10.517   9.508
67208SOL    HW2 3458   5.388  10.609   9.402
67209SOL     OW 3459   2.414   4.421  12.599
67209SOL    HW1 3460   2.411   4.338  12.646
67209SOL    HW2 3461   2.506   4.433  12.576
67210SOL     OW 3462   1.073   4.346   6.399
67210SOL    HW1 3463   1.060   4.295   6.480
67210SOL    HW2 3464   1.037   4.291   6.330
67211SOL     OW 3465   5.319   5.256   5.055
67211SOL    HW1 3466   5.237   5.215   5.082
67211SOL    HW2 3467   5.313   5.263   4.960
67212SOL     OW 3468   3.216  14.005  13.641
67212SOL    HW1 3469   3.226  13.911  13.629
67212SOL    HW2 3470   3.126  14.016  13.671
67213SOL     OW 3471  13.106   6.860   9.497
67213SOL    HW1 3472  13.063   6.923   9.440
67213SOL    HW2 3473  13.199   6.882   9.492
67214SOL     OW 3474  10.894   7.051  11.969
67214SOL    HW1 3475  10.815   7.004  11.995
67214SOL    HW2 3476  10.903   7.033  11.876
67215SOL     OW 3477   9.537   9.137   3.065
67215SOL    HW1 3478   9.589   9.075   3.014
67215SOL    HW2 3479   9.536   9.217   3.012
67216SOL     OW 3480   0.313  14.127   9.401
67216SOL    HW1 3481   0.310  14.160   9.491
67216SOL    HW2 3482   0.366  14.048   9.406
67217SOL     OW 3483   8.061   7.668   6.367
67217SOL    HW1 3484   8.136   7.609   6.378
67217SOL    HW2 3485   8.099   7.756   6.373
67218SOL     OW 3486   0.784  10.373  13.958
67218SOL    HW1 3487   0.700  10.408  13.987
67218SOL    HW2 3488   0.766  10.333  13.874
67219SOL     OW 3489  14.575   2.177   9.561
67219SOL    HW1 3490  14.578   2.178   9.465
67219SOL    HW2 3491  14.493   2.133   9.582
67220SOL     OW 3492   1.554  11.037   2.631
67220SOL    HW1 3493   1.460  11.035   2.645
67220SOL    HW2 3494   1.570  10.972   2.563
67221SOL     OW 3495   9.532  10.701   2.610
67221SOL    HW1 3496   9.535  10.605   2.614
67221SOL    HW2 3497   9.516  10.720   2.518
67222SOL     OW 3498  10.808  12.507   8.305
67222SOL    HW1 3499  10.830  12.419   8.336
67222SOL    HW2 3500  10.892  12.553   8.299
67223SOL     OW 3501  13.528   4.631   1.920
67223SOL    HW1 3502  13.570   4.556   1.876
67223SOL    HW2 3503  13.518   4.603   2.011
67224SOL     OW 3504  10.817   9.563  12.347
67224SOL    HW1 3505  10.861   9.590  12.266
67224SOL    HW2 3506  10.795   9.645  12.391
67225SOL     OW 3507   3.678   3.373   7.664
67225SOL    HW1 3508   3.699   3.350   7.574
67225SOL    HW2 3509   3.762   3.379   7.708
67226SOL     OW 3510   0.769   3.702   4.534
67226SOL    HW1 3511   0.783   3.698   4.439
67226SOL    HW2 3512   0.795   3.791   4.558
67227SOL     OW 3513  12.808   0.646   4.845
67227SOL    HW1 3514  12.759   0.600   4.777
67227SOL    HW2 3515  12.871   0.700   4.797
67228SOL     OW 3516   1.226   9.959   9.325
67228SOL    HW1 3517   1.193   9.905   9.396
67228SOL    HW2 3518   1.304   9.913   9.293
67229SOL     OW 3519   8.477   1.594   5.685
67229SOL    HW1 3520   8.460   1.538   5.609
67229SOL    HW2 3521   8.513   1.675   5.648
67230SOL     OW 3522   0.084   7.156   4.550
67230SOL    HW1 3523   0.174   7.189   4.553
67230SOL    HW2 3524   0.091   7.066   4.584
67231SOL     OW 3525   8.229  10.994   3.532
67231SOL    HW1 3526   8.306  11.048   3.517
67231SOL    HW2 3527   8.197  10.972   3.444
67232SOL     OW 3528   4.698   3.452   2.352
67232SOL    HW1 3529   4.698   3.495   2.438
67232SOL    HW2 3530   4.789   3.425   2.339
67233SOL     OW 3531   0.186   5.665   2.879
67233SOL    HW1 3532   0.243   5.676   2.803
67233SOL    HW2 3533   0.172   5.571   2.885
67234SOL     OW 3534   9.932   2.135  12.683
67234SOL    HW1 3535   9.869   2.156  12.751
67234SOL    HW2 3536   9.996   2.205  12.686
67235SOL     OW 3537  14.030  13.344   3.301
67235SOL    HW1 3538  13.975  13.422   3.307
67235SOL    HW2 3539  14.118  13.375   3.319
67236SOL     OW 3540   6.422   6.017   7.601
67236SOL    HW1 3541   6.353   6.001   7.665
67236SOL    HW2 3542   6.391   5.975   7.521
67237SOL     OW 3543   0.028   7.604  13.504
67237SOL    HW1 3544   0.028   7.515  13.540
67237SOL    HW2 3545   0.087   7.599  13.429
67238SOL     OW 3546   3.777   5.821   2.482
67238SOL    HW1 3547   3.809   5.904   2.519
67238SOL    HW2 3548   3.854   5.783   2.439
67239SOL     OW 3549  12.968   6.572  12.328
67239SOL    HW1 3550  12.965   6.616  12.413
67239SOL    HW2 3551  13.053   6.529  12.326
67240SOL     OW 3552   7.458  14.690   7.036
67240SOL    HW1 3553   7.544  14.673   6.998
67240SOL    HW2 3554   7.408  14.610   7.018
67241SOL     OW 3555  13.720   7.142  14.341
67241SOL    HW1 3556  13.638   7.133  14.294
67241SOL    HW2 3557  13.697   7.187  14.423
67242SOL     OW 3558   9.208   7.622  13.440
67242SOL    HW1 3559   9.276   7.660  13.385
67242SOL    HW2 3560   9.148   7.579  13.378
67243SOL     OW 3561   5.504   2.156   6.441
67243SOL    HW1 3562   5.481   2.235   6.392
67243SOL    HW2 3563   5.540   2.189   6.523
67244SOL     OW 3564   7.657   4.485   0.443
67244SOL    HW1 3565   7.608   4.516   0.366
67244SOL    HW2 3566   7.693   4.565   0.482
67245SOL     OW 3567   9.191  12.280   1.062
67245SOL    HW1 3568   9.202  12.344   0.991
67245SOL    HW2 3569   9.280  12.259   1.091
67246SOL     OW 3570   2.317  14.452   2.436
67246SOL    HW1 3571   2.288  14.543   2.442
67246SOL    HW2 3572   2.410  14.457   2.413
67247SOL     OW 3573   9.950   2.355  13.948
67247SOL    HW1 3574   9.922   2.325  14.034
67247SOL    HW2 3575   9.919   2.287  13.888
67248SOL     OW 3576   9.885   9.084   5.808
67248SOL    HW1 3577   9.909   9.170   5.773
67248SOL    HW2 3578   9.941   9.073   5.885
67249SOL     OW 3579  12.179   2.468   0.672
67249SOL    HW1 3580  12.147   2.474   0.582
67249SOL    HW2 3581  12.233   2.389   0.672
67250SOL     OW 3582  10.332   9.897  12.579
67250SOL    HW1 3583  10.284   9.861  12.504
67250SOL    HW2 3584  10.266   9.942  12.630
67251SOL     OW 3585   1.124  12.598   3.285
67251SOL    HW1 3586   1.114  12.545   3.364
67251SOL    HW2 3587   1.195  12.659   3.307
67252SOL     OW 3588  12.631   4.721   2.691
67252SOL    HW1 3589  12.692   4.724   2.618
67252SOL    HW2 3590  12.626   4.628   2.715
67253SOL     OW 3591  14.774  13.437  13.902
67253SOL    HW1 3592  14.704  13.405  13.960
67253SOL    HW2 3593  14.728  13.462  13.822
67254SOL     OW 3594   2.202  12.046   9.423
67254SOL    HW1 3595   2.243  11.960   9.434
67254SOL    HW2 3596   2.124  12.042   9.478
67255SOL     OW 3597  10.026   0.417   2.800
67255SOL    HW1 3598   9.948   0.364   2.817
67255SOL    HW2 3599  10.055   0.444   2.887
67256SOL     OW 3600  13.640  14.143   4.834
67256SOL    HW1 3601  13.713  14.146   4.896
67256SOL    HW2 3602  13.570  14.098   4.882
67257SOL     OW 3603   1.027  14.439   8.381
67257SOL    HW1 3604   1.115  14.428   8.345
67257SOL    HW2 3605   0.969  14.417   8.309
67258SOL     OW 3606   3.691   9.821   7.706
67258SOL    HW1 3607   3.643   9.848   7.783
67258SOL    HW2 3608   3.781   9.808   7.736
67259SOL     OW 3609  13.943   3.757   6.407
67259SOL    HW1 3610  13.858   3.793   6.381
67259SOL    HW2 3611  13.973   3.709   6.330
67260SOL     OW 3612  12.037   3.287  13.901
67260SOL    HW1 3613  12.062   3.328  13.983
67260SOL    HW2 3614  11.957   3.239  13.922
67261SOL     OW 3615   8.754   2.656   2.449
67261SOL    HW1 3616   8.661   2.645   2.429
67261SOL    HW2 3617   8.787   2.713   2.380
67262SOL     OW 3618   7.610  14.246   7.857
67262SOL    HW1 3619   7.551  14.308   7.814
67262SOL    HW2 3620   7.554  14.196   7.916
67263SOL     OW 3621   0.034   7.533  10.746
67263SOL    HW1 3622   0.015   7.453  10.699
67263SOL    HW2 3623  14.848   7.598  10.708
67264SOL     OW 3624  13.841   0.667   5.729
67264SOL    HW1 3625  13.894   0.597   5.766
67264SOL    HW2 3626  13.901   0.742   5.724
67265SOL     OW 3627  12.096   7.700  14.869
67265SOL    HW1 3628  12.082   7.791   0.020
67265SOL    HW2 3629  12.154   7.666   0.064
67266SOL     OW 3630   9.140   0.229   4.760
67266SOL    HW1 3631   9.204   0.171   4.721
67266SOL    HW2 3632   9.190   0.287   4.817
67267SOL     OW 3633  11.857  12.779  12.959
67267SOL    HW1 3634  11.863  12.794  12.865
67267SOL    HW2 3635  11.940  12.737  12.982
67268SOL     OW 3636  12.156   1.669  14.098
67268SOL    HW1 3637  12.153   1.639  14.007
67268SOL    HW2 3638  12.166   1.764  14.091
67269SOL     OW 3639  10.853  10.858   9.259
67269SOL    HW1 3640  10.822  10.815   9.179
67269SOL    HW2 3641  10.782  10.848   9.322
67270SOL     OW 3642   2.110   5.198   7.121
67270SOL    HW1 3643   2.112   5.135   7.193
67270SOL    HW2 3644   2.201   5.225   7.111
67271SOL     OW 3645   2.329  10.096   5.530
67271SOL    HW1 3646   2.366  10.113   5.443
67271SOL    HW2 3647   2.401  10.057   5.579
67272SOL     OW 3648   3.183  10.591  14.039
67272SOL    HW1 3649   3.264  10.541  14.046
67272SOL    HW2 3650   3.199  10.653  13.967
67273SOL     OW 3651  11.036  11.830   0.321
67273SOL    HW1 3652  11.067  11.787   0.400
67273SOL    HW2 3653  11.087  11.911   0.316
67274SOL     OW 3654  11.002  11.817   7.989
67274SOL    HW1 3655  11.054  11.880   8.039
67274SOL    HW2 3656  11.042  11.732   8.009
67275SOL     OW 3657  11.396   1.740   6.437
67275SOL    HW1 3658  11.309   1.724   6.473
67275SOL    HW2 3659  11.400   1.835   6.425
67276SOL     OW 3660  13.584  12.069   8.751
67276SOL    HW1 3661  13.528  11.992   8.743
67276SOL    HW2 3662  13.566  12.120   8.673
67277SOL     OW 3663   2.381  13.903   6.323
67277SOL    HW1 3664   2.308  13.848   6.294
67277SOL    HW2 3665   2.355  13.936   6.409
67278SOL     OW 3666  11.303   0.914   6.655
67278SOL    HW1 3667  11.364   0.855   6.699
67278SOL    HW2 3668  11.220   0.866   6.654
67279SOL     OW 3669   2.441  12.263  13.914
67279SOL    HW1 3670   2.532  12.282  13.893
67279SOL    HW2 3671   2.392  12.338  13.878
67280SOL     OW 3672   6.699   7.223   2.164
67280SOL    HW1 3673   6.618   7.217   2.215
67280SOL    HW2 3674   6.760   7.268   2.222
67281SOL     OW 3675   5.742  12.364  13.813
67281SOL    HW1 3676   5.663  12.417  13.809
67281SOL    HW2 3677   5.739  12.311  13.733
67282SOL     OW 3678   3.777  11.295   9.305
67282SOL    HW1 3679   3.700  11.259   9.259
67282SOL    HW2 3680   3.839  11.314   9.235
67283SOL     OW 3681   1.787   0.649   0.398
67283SOL    HW1 3682   1.777   0.574   0.339
67283SOL    HW2 3683   1.810   0.611   0.482
67284SOL     OW 3684   5.735   5.835   3.831
67284SOL    HW1 3685   5.796   5.761   3.831
67284SOL    HW2 3686   5.739   5.869   3.741
67285SOL     OW 3687   3.668   8.784   0.429
67285SOL    HW1 3688   3.655   8.715   0.494
67285SOL    HW2 3689   3.641   8.864   0.472
67286SOL     OW 3690   8.584  10.873  10.122
67286SOL    HW1 3691   8.606  10.840  10.209
67286SOL    HW2 3692   8.503  10.829  10.099
67287SOL     OW 3693   5.077   1.184   5.916
67287SOL    HW1 3694   5.150   1.237   5.884
67287SOL    HW2 3695   5.108   1.094   5.909
67288SOL     OW 3696   8.145  14.601   6.108
67288SOL    HW1 3697   8.082  14.660   6.067
67288SOL    HW2 3698   8.226  14.652   6.113
67289SOL     OW 3699   5.702   6.664   5.727
67289SOL    HW1 3700   5.686   6.683   5.820
67289SOL    HW2 3701   5.706   6.750   5.685
67290SOL     OW 3702   6.790   8.010   3.230
67290SOL    HW1 3703   6.723   8.078   3.239
67290SOL    HW2 3704   6.789   7.964   3.314
67291SOL     OW 3705   3.319  11.742   6.063
67291SOL    HW1 3706   3.286  11.680   5.997
67291SOL    HW2 3707   3.338  11.688   6.140
67292SOL     OW 3708   8.875   0.394  11.283
67292SOL    HW1 3709   8.822   0.471  11.262
67292SOL    HW2 3710   8.833   0.356  11.360
67293SOL     OW 3711  10.827   4.086  14.489
67293SOL    HW1 3712  10.785   4.005  14.517
67293SOL    HW2 3713  10.840   4.135  14.570
67294SOL     OW 3714   0.366   9.162  11.924
67294SOL    HW1 3715   0.272   9.181  11.934
67294SOL    HW2 3716   0.407   9.247  11.913
67295SOL     OW 3717  11.110   0.165   2.824
67295SOL    HW1 3718  11.154   0.098   2.876
67295SOL    HW2 3719  11.111   0.243   2.880
67296SOL     OW 3720   0.610   9.782   2.294
67296SOL    HW1 3721   0.668   9.792   2.218
67296SOL    HW2 3722   0.544   9.718   2.266
67297SOL     OW 3723   9.029  10.661   2.571
67297SOL    HW1 3724   8.980  10.651   2.489
67297SOL    HW2 3725   8.969  10.708   2.629
67298SOL     OW 3726   3.512   0.675   4.685
67298SOL    HW1 3727   3.438   0.617   4.667
67298SOL    HW2 3728   3.472   0.753   4.723
67299SOL     OW 3729   3.821   9.450   5.285
67299SOL    HW1 3730   3.794   9.463   5.194
67299SOL    HW2 3731   3.834   9.539   5.319
67300SOL     OW 3732   3.610  11.465   6.069
67300SOL    HW1 3733   3.664  11.540   6.093
67300SOL    HW2 3734   3.661  11.388   6.094
67301SOL     OW 3735   1.071  14.826   4.470
67301SOL    HW1 3736   1.053  14.806   4.562
67301SOL    HW2 3737   1.023   0.035   4.454
67302SOL     OW 3738   0.222   8.885  12.823
67302SOL    HW1 3739   0.284   8.956  12.841
67302SOL    HW2 3740   0.200   8.849  12.909
67303SOL     OW 3741   1.357  12.696   9.478
67303SOL    HW1 3742   1.425  12.700   9.545
67303SOL    HW2 3743   1.402  12.671   9.398
67304SOL     OW 3744   4.756   6.270   2.033
67304SOL    HW1 3745   4.845   6.304   2.026
67304SOL    HW2 3746   4.699   6.343   2.007
67305SOL     OW 3747  13.681  12.407   3.161
67305SOL    HW1 3748  13.668  12.436   3.071
67305SOL    HW2 3749  13.750  12.464   3.195
67306SOL     OW 3750   7.710  12.737   5.633
67306SOL    HW1 3751   7.631  12.787   5.611
67306SOL    HW2 3752   7.677  12.649   5.652
67307SOL     OW 3753   3.648   3.731  14.319
67307SOL    HW1 3754   3.575   3.760  14.373
67307SOL    HW2 3755   3.608   3.708  14.235
67308SOL     OW 3756   5.557   2.082  14.803
67308SOL    HW1 3757   5.545   2.136  14.725
67308SOL    HW2 3758   5.549   2.143   0.003
67309SOL     OW 3759  11.477   2.823  14.471
67309SOL    HW1 3760  11.386   2.816  14.442
67309SOL    HW2 3761  11.524   2.760  14.417
67310SOL     OW 3762   3.673   7.505   3.892
67310SOL    HW1 3763   3.686   7.591   3.852
67310SOL    HW2 3764   3.584   7.508   3.927
67311SOL     OW 3765  11.569  10.690   2.991
67311SOL    HW1 3766  11.558  10.737   2.909
67311SOL    HW2 3767  11.481  10.686   3.028
67312SOL     OW 3768   0.944   2.872   9.475
67312SOL    HW1 3769   0.872   2.820   9.438
67312SOL    HW2 3770   0.932   2.865   9.569
67313SOL     OW 3771  10.879  14.315  10.409
67313SOL    HW1 3772  10.871  14.310  10.313
67313SOL    HW2 3773  10.798  14.276  10.442
67314SOL     OW 3774  12.058  11.953   7.166
67314SOL    HW1 3775  11.979  11.927   7.119
67314SOL    HW2 3776  12.025  11.987   7.249
67315SOL     OW 3777  13.359   1.240   0.810
67315SOL    HW1 3778  13.367   1.295   0.887
67315SOL    HW2 3779  13.323   1.298   0.743
67316SOL     OW 3780   2.396   0.969  11.457
67316SOL    HW1 3781   2.368   0.921  11.535
67316SOL    HW2 3782   2.482   1.005  11.480
67317SOL     OW 3783   3.267   7.223   4.663
67317SOL    HW1 3784   3.245   7.133   4.684
67317SOL    HW2 3785   3.331   7.248   4.730
67318SOL     OW 3786  14.857  11.762   6.635
67318SOL    HW1 3787   0.003  11.749   6.728
67318SOL    HW2 3788   0.009  11.853   6.618
67319SOL     OW 3789   0.313  10.896   7.150
67319SOL    HW1 3790   0.246  10.902   7.082
67319SOL    HW2 3791   0.336  10.803   7.153
67320SOL     OW 3792   2.807   2.869   6.137
67320SOL    HW1 3793   2.786   2.939   6.199
67320SOL    HW2 3794   2.765   2.791   6.173
67321SOL     OW 3795   9.076  14.266  14.829
67321SOL    HW1 3796   9.109  14.205   0.022
67321SOL    HW2 3797   9.110  14.232  14.746
67322SOL     OW 3798   1.480   0.867   5.489
67322SOL    HW1 3799   1.410   0.872   5.424
67322SOL    HW2 3800   1.440   0.827   5.566
67323SOL     OW 3801   5.478   4.356   9.735
67323SOL    HW1 3802   5.501   4.349   9.827
67323SOL    HW2 3803   5.383   4.367   9.734
67324SOL     OW 3804   4.283   4.229   8.081
67324SOL    HW1 3805   4.367   4.273   8.073
67324SOL    HW2 3806   4.219   4.300   8.078
67325SOL     OW 3807   1.333  10.191   1.265
67325SOL    HW1 3808   1.291  10.117   1.221
67325SOL    HW2 3809   1.260  10.245   1.295
67326SOL     OW 3810   3.450   9.751   2.736
67326SOL    HW1 3811   3.483   9.841   2.729
67326SOL    HW2 3812   3.462   9.728   2.828
67327SOL     OW 3813  10.786  10.665  12.460
67327SOL    HW1 3814  10.723  10.645  12.391
67327SOL    HW2 3815  10.863  10.699  12.413
67328SOL     OW 3816   5.356   6.091   1.936
67328SOL    HW1 3817   5.324   6.038   1.863
67328SOL    HW2 3818   5.338   6.182   1.910
67329SOL     OW 3819   4.163  12.926   1.332
67329SOL    HW1 3820   4.137  12.888   1.416
67329SOL    HW2 3821   4.138  12.860   1.267
67330SOL     OW 3822   0.305  12.427  12.905
67330SOL    HW1 3823   0.394  12.433  12.870
67330SOL    HW2 3824   0.308  12.354  12.967
67331SOL     OW 3825   5.125  11.263   2.867
67331SOL    HW1 3826   5.136  11.293   2.957
67331SOL    HW2 3827   5.197  11.302   2.819
67332SOL     OW 3828   6.098   8.024  11.284
67332SOL    HW1 3829   6.103   8.043  11.190
67332SOL    HW2 3830   6.109   7.929  11.289
67333SOL     OW 3831  10.756   9.938   3.473
67333SOL    HW1 3832  10.815  10.013   3.464
67333SOL    HW2 3833  10.788   9.875   3.409
67334SOL     OW 3834   9.525  12.548   6.791
67334SOL    HW1 3835   9.529  12.453   6.805
67334SOL    HW2 3836   9.616  12.577   6.793
67335SOL     OW 3837   1.299   9.418   6.683
67335SOL    HW1 3838   1.217   9.466   6.676
67335SOL    HW2 3839   1.307   9.371   6.600
67336SOL     OW 3840  11.551  13.807   7.219
67336SOL    HW1 3841  11.467  13.771   7.249
67336SOL    HW2 3842  11.617  13.754   7.264
67337SOL     OW 3843   1.184   4.105   4.648
67337SOL    HW1 3844   1.157   4.087   4.558
67337SOL    HW2 3845   1.213   4.020   4.682
67338SOL     OW 3846   5.643  12.301   9.693
67338SOL    HW1 3847   5.633  12.217   9.738
67338SOL    HW2 3848   5.712  12.284   9.628
67339SOL     OW 3849   9.199   0.884  13.373
67339SOL    HW1 3850   9.246   0.829  13.311
67339SOL    HW2 3851   9.266   0.910  13.437
67340SOL     OW 3852  12.429   3.528  10.091
67340SOL    HW1 3853  12.432   3.612  10.045
67340SOL    HW2 3854  12.351   3.484  10.056
67341SOL     OW 3855   9.461   9.743  14.486
67341SOL    HW1 3856   9.425   9.737  14.397
67341SOL    HW2 3857   9.503   9.829  14.489
67342SOL     OW 3858   4.084  11.697   7.300
67342SOL    HW1 3859   4.156  11.700   7.237
67342SOL    HW2 3860   4.033  11.775   7.281
67343SOL     OW 3861   7.629   2.995   7.959
67343SOL    HW1 3862   7.562   3.050   7.918
67343SOL    HW2 3863   7.644   3.035   8.044
67344SOL     OW 3864   1.243   1.656  11.268
67344SOL    HW1 3865   1.337   1.639  11.264
67344SOL    HW2 3866   1.203   1.569  11.259
67345SOL     OW 3867   0.546   8.840   3.731
67345SOL    HW1 3868   0.499   8.915   3.767
67345SOL    HW2 3869   0.481   8.791   3.682
67346SOL     OW 3870   3.111   3.491  10.642
67346SOL    HW1 3871   3.046   3.477  10.573
67346SOL    HW2 3872   3.068   3.549  10.705
67347SOL     OW 3873   2.344  14.378   4.986
67347SOL    HW1 3874   2.430  14.416   4.968
67347SOL    HW2 3875   2.339  14.374   5.082
67348SOL     OW 3876  14.185   2.813  11.798
67348SOL    HW1 3877  14.155   2.828  11.888
67348SOL    HW2 3878  14.174   2.719  11.785
67349SOL     OW 3879  13.848  13.605   5.793
67349SOL    HW1 3880  13.859  13.536   5.728
67349SOL    HW2 3881  13.933  13.650   5.796
67350SOL     OW 3882  12.986   2.243  14.218
67350SOL    HW1 3883  12.973   2.317  14.158
67350SOL    HW2 3884  12.919   2.255  14.285
67351SOL     OW 3885   2.623  10.006   8.153
67351SOL    HW1 3886   2.604  10.092   8.117
67351SOL    HW2 3887   2.705   9.980   8.109
67352SOL     OW 3888   1.019   3.623  14.546
67352SOL    HW1 3889   1.052   3.696  14.493
67352SOL    HW2 3890   0.960   3.664  14.609
67353SOL     OW 3891  14.757   0.048  12.434
67353SOL    HW1 3892  14.687   0.102  12.397
67353SOL    HW2 3893  14.799   0.104  12.499
67354SOL     OW 3894  10.264   8.012   1.700
67354SOL    HW1 3895  10.257   8.046   1.611
67354SOL    HW2 3896  10.173   7.999   1.728
67355SOL     OW 3897   9.169  11.279   5.186
67355SOL    HW1 3898   9.178  11.363   5.231
67355SOL    HW2 3899   9.255  11.237   5.198
67356SOL     OW 3900   3.255   1.951  14.521
67356SOL    HW1 3901   3.244   2.004  14.600
67356SOL    HW2 3902   3.175   1.966  14.471
67357SOL     OW 3903  10.628  12.728  11.545
67357SOL    HW1 3904  10.710  12.736  11.593
67357SOL    HW2 3905  10.596  12.641  11.567
67358SOL     OW 3906   1.699  14.827  10.983
67358SOL    HW1 3907   1.685   0.012  10.908
67358SOL    HW2 3908   1.749   0.007  11.044
67359SOL     OW 3909   1.822   8.809  13.692
67359SOL    HW1 3910   1.812   8.716  13.712
67359SOL    HW2 3911   1.824   8.812  13.596
67360SOL     OW 3912   5.031   9.109  11.680
67360SOL    HW1 3913   4.995   9.112  11.768
67360SOL    HW2 3914   5.057   9.200  11.662
67361SOL     OW 3915   8.985   3.361   4.549
67361SOL    HW1 3916   8.987   3.325   4.461
67361SOL    HW2 3917   8.898   3.338   4.582
67362SOL     OW 3918   3.564   8.197   8.045
67362SOL    HW1 3919   3.585   8.116   8.091
67362SOL    HW2 3920   3.515   8.168   7.968
67363SOL     OW 3921   0.139   5.382   5.004
67363SOL    HW1 3922   0.156   5.466   4.962
67363SOL    HW2 3923   0.192   5.383   5.083
67364SOL     OW 3924   1.522   6.855   1.287
67364SOL    HW1 3925   1.482   6.794   1.226
67364SOL    HW2 3926   1.589   6.804   1.333
67365SOL     OW 3927  13.327   2.365   1.704
67365SOL    HW1 3928  13.335   2.371   1.800
67365SOL    HW2 3929  13.337   2.455   1.674
67366SOL     OW 3930   1.010   2.330   6.416
67366SOL    HW1 3931   0.964   2.414   6.411
67366SOL    HW2 3932   1.038   2.323   6.507
67367SOL     OW 3933  14.651   4.546   6.529
67367SOL    HW1 3934  14.585   4.562   6.462
67367SOL    HW2 3935  14.707   4.623   6.527
67368SOL     OW 3936   6.717  13.036   5.134
67368SOL    HW1 3937   6.693  13.087   5.057
67368SOL    HW2 3938   6.812  13.027   5.129
67369SOL     OW 3939  12.119   8.397   7.391
67369SOL    HW1 3940  12.178   8.472   7.384
67369SOL    HW2 3941  12.032   8.437   7.401
67370SOL     OW 3942  12.141   1.308   4.762
67370SOL    HW1 3943  12.189   1.379   4.719
67370SOL    HW2 3944  12.140   1.332   4.854
67371SOL     OW 3945  13.158  14.388   8.103
67371SOL    HW1 3946  13.174  14.332   8.027
67371SOL    HW2 3947  13.111  14.332   8.164
67372SOL     OW 3948   7.279  10.883  10.149
67372SOL    HW1 3949   7.243  10.837  10.074
67372SOL    HW2 3950   7.371  10.857  10.151
67373SOL     OW 3951   1.528   5.344   7.966
67373SOL    HW1 3952   1.478   5.397   7.904
67373SOL    HW2 3953   1.484   5.259   7.967
67374SOL     OW 3954  10.962  10.474   2.727
67374SOL    HW1 3955  11.050  10.440   2.742
67374SOL    HW2 3956  10.906  10.422   2.784
67375SOL     OW 3957   0.019   4.365   1.533
67375SOL    HW1 3958   0.107   4.330   1.543
67375SOL    HW2 3959  14.860   4.328   1.450
67376SOL     OW 3960   9.489   8.577   2.015
67376SOL    HW1 3961   9.494   8.666   2.050
67376SOL    HW2 3962   9.546   8.578   1.938
67377SOL     OW 3963  11.661   0.229   4.258
67377SOL    HW1 3964  11.580   0.234   4.308
67377SOL    HW2 3965  11.659   0.307   4.202
67378SOL     OW 3966   2.151  14.707   1.819
67378SOL    HW1 3967   2.073  14.692   1.872
67378SOL    HW2 3968   2.202  14.627   1.828
67379SOL     OW 3969   0.182   2.005   4.548
67379SOL    HW1 3970   0.269   2.037   4.520
67379SOL    HW2 3971   0.189   2.001   4.643
67380SOL     OW 3972  10.658  11.588   9.290
67380SOL    HW1 3973  10.658  11.512   9.348
67380SOL    HW2 3974  10.743  11.585   9.246
67381SOL     OW 3975   2.612  10.905  14.465
67381SOL    HW1 3976   2.558  10.849  14.519
67381SOL    HW2 3977   2.683  10.848  14.434
67382SOL     OW 3978   1.232  12.405   5.453
67382SOL    HW1 3979   1.277  12.396   5.369
67382SOL    HW2 3980   1.139  12.400   5.431
67383SOL     OW 3981   5.265   8.452  10.726
67383SOL    HW1 3982   5.178   8.459  10.764
67383SOL    HW2 3983   5.267   8.365  10.686
67384SOL     OW 3984   3.394   5.878  14.495
67384SOL    HW1 3985   3.338   5.954  14.483
67384SOL    HW2 3986   3.400   5.838  14.408
67385SOL     OW 3987  13.062   1.606  12.844
67385SOL    HW1 3988  12.993   1.542  12.827
67385SOL    HW2 3989  13.143   1.555  12.847
67386SOL     OW 3990   2.514   4.085  12.961
67386SOL    HW1 3991   2.461   4.082  13.042
67386SOL    HW2 3992   2.604   4.097  12.992
67387SOL     OW 3993   1.427  12.091   5.976
67387SOL    HW1 3994   1.428  12.166   6.035
67387SOL    HW2 3995   1.386  12.021   6.026
67388SOL     OW 3996   2.592   0.236   2.808
67388SOL    HW1 3997   2.610   0.213   2.717
67388SOL    HW2 3998   2.659   0.189   2.858
67389SOL     OW 3999   9.376   0.221   0.841
67389SOL    HW1 4000   9.420   0.170   0.910
67389SOL    HW2 4001   9.305   0.265   0.887
67390SOL     OW 4002   6.609   4.741   1.786
67390SOL    HW1 4003   6.676   4.712   1.725
67390SOL    HW2 4004   6.597   4.667   1.846
67391SOL     OW 4005   7.622   9.133   5.729
67391SOL    HW1 4006   7.549   9.192   5.748
67391SOL    HW2 4007   7.653   9.104   5.815
67392SOL     OW 4008  10.336   1.159  11.992
67392SOL    HW1 4009  10.298   1.199  12.070
67392SOL    HW2 4010  10.267   1.164  11.926
67393SOL     OW 4011   4.404  10.146  11.714
67393SOL    HW1 4012   4.475  10.145  11.650
67393SOL    HW2 4013   4.446  10.122  11.797
67394SOL     OW 4014   5.591  10.597   8.307
67394SOL    HW1 4015   5.529  10.668   8.324
67394SOL    HW2 4016   5.619  10.567   8.393
67395SOL     OW 4017   0.053  11.013   5.782
67395SOL    HW1 4018   0.051  11.003   5.877
67395SOL    HW2 4019   0.062  11.108   5.768
67396SOL     OW 4020  10.206   0.982   4.558
67396SOL    HW1 4021  10.193   0.896   4.518
67396SOL    HW2 4022  10.117   1.011   4.581
67397SOL     OW 4023   0.752  11.598   8.071
67397SOL    HW1 4024   0.724  11.683   8.103
67397SOL    HW2 4025   0.826  11.574   8.127
67398SOL     OW 4026  10.781   2.652   6.112
67398SOL    HW1 4027  10.852   2.659   6.176
67398SOL    HW2 4028  10.707   2.697   6.152
67399SOL     OW 4029  13.076   0.506   2.179
67399SOL    HW1 4030  13.135   0.459   2.237
67399SOL    HW2 4031  12.998   0.522   2.233
67400SOL     OW 4032   7.781   5.743   3.200
67400SOL    HW1 4033   7.686   5.734   3.204
67400SOL    HW2 4034   7.808   5.751   3.291
67401SOL     OW 4035   9.256   3.297   6.521
67401SOL    HW1 4036   9.183   3.248   6.484
67401SOL    HW2 4037   9.305   3.328   6.445
67402SOL     OW 4038  14.247   6.707   2.619
67402SOL    HW1 4039  14.195   6.784   2.596
67402SOL    HW2 4040  14.290   6.732   2.701
67403SOL     OW 4041   7.181   1.381   1.182
67403SOL    HW1 4042   7.130   1.300   1.173
67403SOL    HW2 4043   7.218   1.376   1.270
67404SOL     OW 4044   6.449   4.985   0.727
67404SOL    HW1 4045   6.402   5.068   0.722
67404SOL    HW2 4046   6.490   4.976   0.641
67405SOL     OW 4047  14.595   4.327  14.842
67405SOL    HW1 4048  14.597   4.420  14.868
67405SOL    HW2 4049  14.674   4.315  14.791
67406SOL     OW 4050   0.108   2.249  13.684
67406SOL    HW1 4051   0.187   2.292  13.651
67406SOL    HW2 4052   0.074   2.201  13.608
67407SOL     OW 4053   1.327   4.407  10.549
67407SOL    HW1 4054   1.411   4.452  10.533
67407SOL    HW2 4055   1.264   4.456  10.495
67408SOL     OW 4056   0.887   2.138   0.731
67408SOL    HW1 4057   0.889   2.149   0.826
67408SOL    HW2 4058   0.830   2.209   0.699
67409SOL     OW 4059   0.691   1.316   6.995
67409SOL    HW1 4060   0.768   1.259   7.004
67409SOL    HW2 4061   0.727   1.403   6.980
67410SOL     OW 4062   5.652   7.605  11.778
67410SOL    HW1 4063   5.672   7.516  11.749
67410SOL    HW2 4064   5.719   7.660  11.737
67411SOL     OW 4065   6.499   5.094  13.566
67411SOL    HW1 4066   6.452   5.110  13.485
67411SOL    HW2 4067   6.530   5.003  13.559
67412SOL     OW 4068  11.615  12.503  12.358
67412SOL    HW1 4069  11.532  12.546  12.340
67412SOL    HW2 4070  11.658  12.560  12.422
67413SOL     OW 4071   1.664  13.921   0.672
67413SOL    HW1 4072   1.735  13.862   0.698
67413SOL    HW2 4073   1.694  14.008   0.696
67414SOL     OW 4074  10.900  14.683  11.418
67414SOL    HW1 4075  10.834  14.739  11.458
67414SOL    HW2 4076  10.856  14.599  11.404
67415SOL     OW 4077   1.975   9.509   4.730
67415SOL    HW1 4078   1.992   9.602   4.742
67415SOL    HW2 4079   2.007   9.467   4.810
67416SOL     OW 4080   9.662   0.089  11.335
67416SOL    HW1 4081   9.648   0.167  11.390
67416SOL    HW2 4082   9.576   0.047  11.331
67417SOL     OW 4083   0.071   7.093   4.231
67417SOL    HW1 4084   0.123   7.074   4.309
67417SOL    HW2 4085   0.036   7.180   4.246
67418SOL     OW 4086   5.130   0.478   2.157
67418SOL    HW1 4087   5.058   0.424   2.189
67418SOL    HW2 4088   5.100   0.568   2.172
67419SOL     OW 4089   1.164  10.816   6.452
67419SOL    HW1 4090   1.183  10.883   6.386
67419SOL    HW2 4091   1.205  10.737   6.419
67420SOL     OW 4092  11.045   8.560  12.193
67420SOL    HW1 4093  11.046   8.508  12.113
67420SOL    HW2 4094  11.128   8.541  12.236
67421SOL     OW 4095  14.332   3.571   8.259
67421SOL    HW1 4096  14.237   3.574   8.246
67421SOL    HW2 4097  14.352   3.478   8.259
67422SOL     OW 4098   7.930   3.968   5.858
67422SOL    HW1 4099   7.939   3.874   5.874
67422SOL    HW2 4100   7.905   4.004   5.944
67423SOL     OW 4101  12.059  13.113   3.282
67423SOL    HW1 4102  11.976  13.113   3.233
67423SOL    HW2 4103  12.108  13.187   3.246
67424SOL     OW 4104   4.006   1.363   8.851
67424SOL    HW1 4105   3.976   1.419   8.779
67424SOL    HW2 4106   3.927   1.331   8.892
67425SOL     OW 4107   8.141   2.054   5.669
67425SOL    HW1 4108   8.221   2.096   5.703
67425SOL    HW2 4109   8.108   2.002   5.743
67426SOL     OW 4110  14.643   2.045   2.103
67426SOL    HW1 4111  14.622   2.137   2.114
67426SOL    HW2 4112  14.632   2.008   2.191
67427SOL     OW 4113   3.895   1.747   6.585
67427SOL    HW1 4114   3.866   1.720   6.672
67427SOL    HW2 4115   3.970   1.689   6.566
67428SOL     OW 4116   6.431   1.342  14.137
67428SOL    HW1 4117   6.515   1.316  14.101
67428SOL    HW2 4118   6.375   1.265  14.126
67429SOL     OW 4119   4.400  10.704   1.416
67429SOL    HW1 4120   4.455  10.714   1.339
67429SOL    HW2 4121   4.454  10.734   1.489
67430SOL     OW 4122  10.662   8.416   4.811
67430SOL    HW1 4123  10.683   8.509   4.806
67430SOL    HW2 4124  10.569   8.413   4.831
67431SOL     OW 4125  11.675   1.955   9.497
67431SOL    HW1 4126  11.726   1.928   9.573
67431SOL    HW2 4127  11.675   2.051   9.500
67432SOL     OW 4128  12.370   9.200   7.992
67432SOL    HW1 4129  12.394   9.112   8.021
67432SOL    HW2 4130  12.441   9.256   8.025
67433SOL     OW 4131   7.118   4.914   8.564
67433SOL    HW1 4132   7.113   4.958   8.479
67433SOL    HW2 4133   7.093   4.982   8.627
67434SOL     OW 4134  12.820  14.775  14.028
67434SOL    HW1 4135  12.739  14.766  14.078
67434SOL    HW2 4136  12.818  14.702  13.966
67435SOL     OW 4137  13.903  14.399   9.405
67435SOL    HW1 4138  13.819  14.392   9.450
67435SOL    HW2 4139  13.883  14.375   9.314
67436SOL     OW 4140   6.290  10.402  13.708
67436SOL    HW1 4141   6.371  10.352  13.701
67436SOL    HW2 4142   6.265  10.394  13.800
67437SOL     OW 4143   7.546   0.249   4.899
67437SOL    HW1 4144   7.592   0.183   4.951
67437SOL    HW2 4145   7.614   0.289   4.846
67438SOL     OW 4146   6.437   5.928   2.372
67438SOL    HW1 4147   6.431   5.851   2.315
67438SOL    HW2 4148   6.409   6.001   2.317
67439SOL     OW 4149   9.487   4.106   3.646
67439SOL    HW1 4150   9.486   4.015   3.676
67439SOL    HW2 4151   9.524   4.102   3.558
67440SOL     OW 4152   0.483  12.290  10.401
67440SOL    HW1 4153   0.516  12.359  10.345
67440SOL    HW2 4154   0.546  12.285  10.473
67441SOL     OW 4155   5.550  10.720  14.848
67441SOL    HW1 4156   5.492  10.649  14.820
67441SOL    HW2 4157   5.539  10.723   0.070
67442SOL     OW 4158  12.875   8.591  13.451
67442SOL    HW1 4159  12.795   8.541  13.436
67442SOL    HW2 4160  12.904   8.562  13.538
67443SOL     OW 4161   6.789  10.333  11.625
67443SOL    HW1 4162   6.729  10.291  11.563
67443SOL    HW2 4163   6.759  10.304  11.711
67444SOL     OW 4164   1.618  13.298   5.305
67444SOL    HW1 4165   1.699  13.273   5.350
67444SOL    HW2 4166   1.569  13.216   5.298
67445SOL     OW 4167  10.000   4.385  13.058
67445SOL    HW1 4168   9.918   4.339  13.073
67445SOL    HW2 4169  10.065   4.336  13.108
67446SOL     OW 4170   9.628   8.503   8.235
67446SOL    HW1 4171   9.558   8.556   8.196
67446SOL    HW2 4172   9.597   8.485   8.324
67447SOL     OW 4173   6.448   0.700  11.379
67447SOL    HW1 4174   6.447   0.730  11.288
67447SOL    HW2 4175   6.426   0.777  11.430
67448SOL     OW 4176   2.139   7.223   5.382
67448SOL    HW1 4177   2.176   7.245   5.467
67448SOL    HW2 4178   2.078   7.294   5.362
67449SOL     OW 4179   7.533   2.914  13.867
67449SOL    HW1 4180   7.533   2.973  13.791
67449SOL    HW2 4181   7.588   2.959  13.931
67450SOL     OW 4182   5.105   5.439   0.545
67450SOL    HW1 4183   5.181   5.434   0.488
67450SOL    HW2 4184   5.060   5.355   0.533
67451SOL     OW 4185   6.809  11.825   4.499
67451SOL    HW1 4186   6.758  11.816   4.579
67451SOL    HW2 4187   6.795  11.915   4.470
67452SOL     OW 4188  10.505   0.752   7.336
67452SOL    HW1 4189  10.484   0.719   7.248
67452SOL    HW2 4190  10.444   0.825   7.349
67453SOL     OW 4191   5.570   1.051  13.664
67453SOL    HW1 4192   5.564   0.956  13.674
67453SOL    HW2 4193   5.588   1.065  13.571
67454SOL     OW 4194   1.357  10.800   9.691
67454SOL    HW1 4195   1.331  10.827   9.603
67454SOL    HW2 4196   1.367  10.705   9.685
67455SOL     OW 4197   6.884   3.525   3.204
67455SOL    HW1 4198   6.917   3.536   3.293
67455SOL    HW2 4199   6.835   3.606   3.187
67456SOL     OW 4200   4.471   8.583   9.887
67456SOL    HW1 4201   4.383   8.547   9.878
67456SOL    HW2 4202   4.459   8.677   9.893
67457SOL     OW 4203   7.605   1.395   6.869
67457SOL    HW1 4204   7.562   1.480   6.854
67457SOL    HW2 4205   7.698   1.416   6.873
67458SOL     OW 4206   1.642   7.080   9.440
67458SOL    HW1 4207   1.622   6.986   9.447
67458SOL    HW2 4208   1.734   7.086   9.468
67459SOL     OW 4209   5.217   7.952   4.281
67459SOL    HW1 4210   5.127   7.983   4.281
67459SOL    HW2 4211   5.210   7.858   4.263
67460SOL     OW 4212   5.341   8.766  13.770
67460SOL    HW1 4213   5.377   8.845  13.809
67460SOL    HW2 4214   5.246   8.775  13.778
67461SOL     OW 4215   6.158  14.134   0.132
67461SOL    HW1 4216   6.065  14.116   0.127
67461SOL    HW2 4217   6.195  14.061   0.182
67462SOL     OW 4218   0.833   5.205   0.727
67462SOL    HW1 4219   0.896   5.200   0.655
67462SOL    HW2 4220   0.756   5.158   0.695
67463SOL     OW 4221   7.805   2.786   7.382
67463SOL    HW1 4222   7.780   2.874   7.410
67463SOL    HW2 4223   7.859   2.799   7.304
67464SOL     OW 4224   9.263  12.536   2.592
67464SOL    HW1 4225   9.254  12.555   2.686
67464SOL    HW2 4226   9.334  12.593   2.562
67465SOL     OW 4227   7.802   1.241   0.508
67465SOL    HW1 4228   7.855   1.321   0.514
67465SOL    HW2 4229   7.858   1.173   0.545
67466SOL     OW 4230   1.291   1.317   9.038
67466SOL    HW1 4231   1.254   1.274   9.115
67466SOL    HW2 4232   1.371   1.358   9.070
67467SOL     OW 4233   9.045   3.942   3.450
67467SOL    HW1 4234   9.049   3.875   3.383
67467SOL    HW2 4235   8.990   3.904   3.519
67468SOL     OW 4236  12.570   9.718   6.846
67468SOL    HW1 4237  12.492   9.717   6.791
67468SOL    HW2 4238  12.578   9.809   6.875
67469SOL     OW 4239   2.207   0.969   2.506
67469SOL    HW1 4240   2.154   0.926   2.438
67469SOL    HW2 4241   2.297   0.945   2.485
67470SOL     OW 4242   9.123   9.878   3.775
67470SOL    HW1 4243   9.214   9.849   3.767
67470SOL    HW2 4244   9.077   9.832   3.704
67471SOL     OW 4245   5.366   8.806   0.940
67471SOL    HW1 4246   5.447   8.837   0.899
67471SOL    HW2 4247   5.352   8.866   1.014
67472SOL     OW 4248   4.746   3.588   6.989
67472SOL    HW1 4249   4.737   3.682   7.000
67472SOL    HW2 4250   4.711   3.551   7.071
67473SOL     OW 4251  14.794  13.135  11.046
67473SOL    HW1 4252  14.712  13.141  10.998
67473SOL    HW2 4253  14.851  13.199  11.005
67474SOL     OW 4254   8.694   7.506  11.884
67474SOL    HW1 4255   8.660   7.478  11.799
67474SOL    HW2 4256   8.670   7.436  11.944
67475SOL     OW 4257  10.344   6.531   1.543
67475SOL    HW1 4258  10.312   6.575   1.622
67475SOL    HW2 4259  10.285   6.560   1.474
67476SOL     OW 4260  14.765  12.568   2.786
67476SOL    HW1 4261  14.707  12.511   2.736
67476SOL    HW2 4262  14.841  12.513   2.807
67477SOL     OW 4263   7.475   3.988  14.522
67477SOL    HW1 4264   7.536   3.944  14.464
67477SOL    HW2 4265   7.490   4.082  14.507
67478SOL     OW 4266   7.989   7.320   2.320
67478SOL    HW1 4267   8.068   7.271   2.340
67478SOL    HW2 4268   8.020   7.409   2.302
67479SOL     OW 4269   0.582  14.322  12.589
67479SOL    HW1 4270   0.666  14.367  12.597
67479SOL    HW2 4271   0.562  14.293  12.678
67480SOL     OW 4272   3.248   4.911  12.952
67480SOL    HW1 4273   3.305   4.933  12.878
67480SOL    HW2 4274   3.233   4.994  12.997
67481SOL     OW 4275   9.696   4.910   1.135
67481SOL    HW1 4276   9.603   4.927   1.122
67481SOL    HW2 4277   9.735   4.920   1.048
67482SOL     OW 4278  13.729   4.971  12.112
67482SOL    HW1 4279  13.743   5.047  12.055
67482SOL    HW2 4280  13.805   4.971  12.170
67483SOL     OW 4281   3.786   0.635   3.853
67483SOL    HW1 4282   3.835   0.715   3.872
67483SOL    HW2 4283   3.807   0.615   3.761
67484SOL     OW 4284   5.689   8.025  11.777
67484SOL    HW1 4285   5.638   7.959  11.825
67484SOL    HW2 4286   5.722   7.978  11.701
67485SOL     OW 4287   7.407   3.161   9.701
67485SOL    HW1 4288   7.426   3.199   9.615
67485SOL    HW2 4289   7.311   3.158   9.705
67486SOL     OW 4290  11.902   6.212   7.236
67486SOL    HW1 4291  11.835   6.271   7.269
67486SOL    HW2 4292  11.970   6.269   7.202
67487SOL     OW 4293   0.339   0.138   7.178
67487SOL    HW1 4294   0.315   0.185   7.258
67487SOL    HW2 4295   0.326   0.046   7.201
67488SOL     OW 4296  12.362   2.133   5.145
67488SOL    HW1 4297  12.282   2.088   5.119
67488SOL    HW2 4298  12.432   2.073   5.122
67489SOL     OW 4299  10.415   7.029  13.115
67489SOL    HW1 4300  10.360   7.014  13.192
67489SOL    HW2 4301  10.497   6.984  13.136
67490SOL     OW 4302  11.917  14.427   8.051
67490SOL    HW1 4303  11.886  14.419   8.141
67490SOL    HW2 4304  11.914  14.338   8.016
67491SOL     OW 4305   2.686   5.216   8.865
67491SOL    HW1 4306   2.673   5.287   8.803
67491SOL    HW2 4307   2.598   5.197   8.899
67492SOL     OW 4308  12.675  10.296  10.876
67492SOL    HW1 4309  12.588  10.279  10.912
67492SOL    HW2 4310  12.712  10.209  10.860
67493SOL     OW 4311   3.568   1.925  12.317
67493SOL    HW1 4312   3.596   1.846  12.363
67493SOL    HW2 4313   3.641   1.986  12.330
67494SOL     OW 4314  10.932   2.362  10.573
67494SOL    HW1 4315  10.953   2.276  10.535
67494SOL    HW2 4316  10.836   2.363  10.579
67495SOL     OW 4317   4.014   7.864   4.803
67495SOL    HW1 4318   3.972   7.837   4.721
67495SOL    HW2 4319   3.975   7.808   4.870
67496SOL     OW 4320   3.147   1.756  12.318
67496SOL    HW1 4321   3.206   1.826  12.346
67496SOL    HW2 4322   3.155   1.753  12.223
67497SOL     OW 4323   8.921   2.851   3.762
67497SOL    HW1 4324   9.003   2.824   3.720
67497SOL    HW2 4325   8.889   2.923   3.708
67498SOL     OW 4326   0.332   0.616   1.571
67498SOL    HW1 4327   0.352   0.674   1.644
67498SOL    HW2 4328   0.286   0.542   1.611
67499SOL     OW 4329   0.555   7.775  10.055
67499SOL    HW1 4330   0.516   7.707  10.000
67499SOL    HW2 4331   0.627   7.730  10.100
67500SOL     OW 4332   1.736  11.544   5.368
67500SOL    HW1 4333   1.665  11.484   5.346
67500SOL    HW2 4334   1.813  11.507   5.325
67501SOL     OW 4335   9.280   0.594   8.458
67501SOL    HW1 4336   9.275   0.502   8.430
67501SOL    HW2 4337   9.192   0.615   8.487
67502SOL     OW 4338   2.433  11.422  12.792
67502SOL    HW1 4339   2.495  11.398  12.723
67502SOL    HW2 4340   2.413  11.340  12.836
67503SOL     OW 4341   3.057  11.358   5.043
67503SOL    HW1 4342   3.047  11.449   5.069
67503SOL    HW2 4343   2.971  11.333   5.011
67504SOL     OW 4344   4.544   1.911  11.657
67504SOL    HW1 4345   4.543   1.957  11.573
67504SOL    HW2 4346   4.496   1.968  11.717
67505SOL     OW 4347   4.641  13.314   7.205
67505SOL    HW1 4348   4.700  13.381   7.171
67505SOL    HW2 4349   4.667  13.301   7.296
67506SOL     OW 4350   8.018  13.181   8.807
67506SOL    HW1 4351   8.053  13.141   8.887
67506SOL    HW2 4352   8.017  13.110   8.743
67507SOL     OW 4353  11.441   7.687   1.885
67507SOL    HW1 4354  11.366   7.628   1.871
67507SOL    HW2 4355  11.402   7.766   1.921
67508SOL     OW 4356   0.034   1.874  12.027
67508SOL    HW1 4357   0.040   1.779  12.028
67508SOL    HW2 4358  14.862   1.895  11.945
67509SOL     OW 4359   6.322   8.448   4.112
67509SOL    HW1 4360   6.371   8.381   4.159
67509SOL    HW2 4361   6.346   8.437   4.021
67510SOL     OW 4362   4.633   5.154  10.070
67510SOL    HW1 4363   4.692   5.203  10.013
67510SOL    HW2 4364   4.683   5.139  10.150
67511SOL     OW 4365  13.665   1.215  10.287
67511SOL    HW1 4366  13.624   1.206  10.373
67511SOL    HW2 4367  13.734   1.149  10.286
67512SOL     OW 4368  10.964   4.425   6.223
67512SOL    HW1 4369  10.880   4.451   6.185
67512SOL    HW2 4370  10.988   4.498   6.280
67513SOL     OW 4371   9.255   6.311   3.582
67513SOL    HW1 4372   9.333   6.364   3.563
67513SOL    HW2 4373   9.270   6.229   3.536
67514SOL     OW 4374   2.739   6.286  14.229
67514SOL    HW1 4375   2.728   6.371  14.186
67514SOL    HW2 4376   2.758   6.225  14.157
67515SOL     OW 4377  13.137   7.061   9.814
67515SOL    HW1 4378  13.066   7.001   9.790
67515SOL    HW2 4379  13.095   7.147   9.819
67516SOL     OW 4380  13.034   6.110  10.017
67516SOL    HW1 4381  13.035   6.055  10.096
67516SOL    HW2 4382  12.982   6.060   9.954
67517SOL     OW 4383   3.623   4.919  10.658
67517SOL    HW1 4384   3.655   4.882  10.576
67517SOL    HW2 4385   3.695   4.974  10.689
67518SOL     OW 4386   8.106   9.451  13.240
67518SOL    HW1 4387   8.174   9.493  13.292
67518SOL    HW2 4388   8.154   9.399  13.176
67519SOL     OW 4389   2.783   1.939   1.486
67519SOL    HW1 4390   2.861   1.966   1.535
67519SOL    HW2 4391   2.721   1.910   1.553
67520SOL     OW 4392   9.874   1.771   6.526
67520SOL    HW1 4393   9.893   1.845   6.583
67520SOL    HW2 4394   9.938   1.704   6.551
67521SOL     OW 4395   3.283   2.282  10.127
67521SOL    HW1 4396   3.200   2.303  10.170
67521SOL    HW2 4397   3.317   2.207  10.175
67522SOL     OW 4398  11.699   2.732  11.457
67522SOL    HW1 4399  11.697   2.638  11.478
67522SOL    HW2 4400  11.726   2.774  11.538
67523SOL     OW 4401   1.331  11.156   4.268
67523SOL    HW1 4402   1.311  11.212   4.342
67523SOL    HW2 4403   1.249  11.150   4.219
67524SOL     OW 4404   5.047  11.344  10.391
67524SOL    HW1 4405   5.027  11.409  10.323
67524SOL    HW2 4406   5.062  11.262  10.342
67525SOL     OW 4407   7.467  12.611  11.880
67525SOL    HW1 4408   7.480  12.631  11.973
67525SOL    HW2 4409   7.470  12.695  11.836
67526SOL     OW 4410  14.422   1.675   6.614
67526SOL    HW1 4411  14.409   1.769   6.624
67526SOL    HW2 4412  14.346   1.645   6.565
67527SOL     OW 4413   6.859   1.470   5.538
67527SOL    HW1 4414   6.890   1.469   5.628
67527SOL    HW2 4415   6.795   1.398   5.533
67528SOL     OW 4416  10.578   6.359   2.056
67528SOL    HW1 4417  10.563   6.266   2.072
67528SOL    HW2 4418  10.653   6.381   2.111
67529SOL     OW 4419   3.631   3.496  14.515
67529SOL    HW1 4420   3.568   3.423  14.512
67529SOL    HW2 4421   3.579   3.572  14.489
67530SOL     OW 4422  14.613   8.589   4.761
67530SOL    HW1 4423  14.585   8.641   4.686
67530SOL    HW2 4424  14.558   8.620   4.834
67531SOL     OW 4425  12.392   4.811  11.906
67531SOL    HW1 4426  12.326   4.756  11.948
67531SOL    HW2 4427  12.411   4.879  11.970
67532SOL     OW 4428  13.190   1.717   3.644
67532SOL    HW1 4429  13.223   1.776   3.711
67532SOL    HW2 4430  13.267   1.667   3.616
67533SOL     OW 4431   7.148   7.119  12.745
67533SOL    HW1 4432   7.090   7.179  12.699
67533SOL    HW2 4433   7.207   7.175  12.795
67534SOL     OW 4434   3.227   4.238   3.183
67534SOL    HW1 4435   3.184   4.217   3.101
67534SOL    HW2 4436   3.319   4.250   3.160
67535SOL     OW 4437  10.559   6.534   5.983
67535SOL    HW1 4438  10.516   6.618   6.004
67535SOL    HW2 4439  10.487   6.471   5.981
67536SOL     OW 4440   8.562   4.614   8.465
67536SOL    HW1 4441   8.483   4.569   8.494
67536SOL    HW2 4442   8.633   4.571   8.513
67537SOL     OW 4443  14.718   0.020   0.336
67537SOL    HW1 4444  14.748  14.805   0.359
67537SOL    HW2 4445  14.639   0.005   0.283
67538SOL     OW 4446   3.570   4.641   5.616
67538SOL    HW1 4447   3.549   4.573   5.552
67538SOL    HW2 4448   3.606   4.593   5.691
67539SOL     OW 4449  13.799  10.990  11.175
67539SOL    HW1 4450  13.727  10.927  11.164
67539SOL    HW2 4451  13.849  10.956  11.249
67540SOL     OW 4452   1.373   0.306  13.659
67540SOL    HW1 4453   1.443   0.357  13.617
67540SOL    HW2 4454   1.370   0.225  13.609
67541SOL     OW 4455   4.518   1.441  11.631
67541SOL    HW1 4456   4.554   1.529  11.625
67541SOL    HW2 4457   4.542   1.399  11.548
67542SOL     OW 4458   0.071   5.402  13.263
67542SOL    HW1 4459   0.096   5.393  13.355
67542SOL    HW2 4460   0.026   5.320  13.241
67543SOL     OW 4461   6.208   7.540   5.596
67543SOL    HW1 4462   6.257   7.604   5.544
67543SOL    HW2 4463   6.134   7.516   5.541
67544SOL     OW 4464   7.446   3.264   9.449
67544SOL    HW1 4465   7.536   3.296   9.440
67544SOL    HW2 4466   7.431   3.210   9.371
67545SOL     OW 4467   9.492   5.244   7.338
67545SOL    HW1 4468   9.534   5.194   7.269
67545SOL    HW2 4469   9.402   5.210   7.342
67546SOL     OW 4470   2.017   9.657   9.885
67546SOL    HW1 4471   2.041   9.748   9.901
67546SOL    HW2 4472   2.007   9.651   9.790
67547SOL     OW 4473   9.702   2.592   7.863
67547SOL    HW1 4474   9.702   2.687   7.862
67547SOL    HW2 4475   9.788   2.568   7.899
67548SOL     OW 4476   5.391   0.698   1.167
67548SOL    HW1 4477   5.387   0.603   1.178
67548SOL    HW2 4478   5.479   0.722   1.198
67549SOL     OW 4479   8.447   0.401   7.921
67549SOL    HW1 4480   8.370   0.348   7.902
67549SOL    HW2 4481   8.444   0.415   8.015
67550SOL     OW 4482  12.330   8.689   0.028
67550SOL    HW1 4483  12.409   8.744   0.034
67550SOL    HW2 4484  12.345   8.633  14.824
67551SOL     OW 4485   7.982   5.478   7.151
67551SOL    HW1 4486   8.009   5.391   7.120
67551SOL    HW2 4487   8.024   5.486   7.236
67552SOL     OW 4488  10.267  12.447   7.816
67552SOL    HW1 4489  10.243  12.510   7.748
67552SOL    HW2 4490  10.232  12.364   7.784
67553SOL     OW 4491   1.654   2.721   6.220
67553SOL    HW1 4492   1.650   2.627   6.203
67553SOL    HW2 4493   1.736   2.749   6.180
67554SOL     OW 4494   5.048   2.488  13.563
67554SOL    HW1 4495   5.068   2.580  13.579
67554SOL    HW2 4496   4.964   2.489  13.518
67555SOL     OW 4497   7.792   8.041   0.636
67555SOL    HW1 4498   7.844   8.115   0.667
67555SOL    HW2 4499   7.802   8.043   0.541
67556SOL     OW 4500   9.467   8.363   0.330
67556SOL    HW1 4501   9.461   8.452   0.295
67556SOL    HW2 4502   9.523   8.372   0.407
67557SOL     OW 4503   8.493  11.844   3.380
67557SOL    HW1 4504   8.477  11.775   3.445
67557SOL    HW2 4505   8.519  11.920   3.432
67558SOL     OW 4506   0.242   1.033   2.586
67558SOL    HW1 4507   0.184   0.958   2.599
67558SOL    HW2 4508   0.321   0.996   2.548
67559SOL     OW 4509  14.083   3.136  14.401
67559SOL    HW1 4510  14.072   3.109  14.492
67559SOL    HW2 4511  14.172   3.169  14.395
67560SOL     OW 4512   5.718  14.440   4.315
67560SOL    HW1 4513   5.691  14.396   4.396
67560SOL    HW2 4514   5.739  14.529   4.342
67561SOL     OW 4515   0.420   9.291   7.239
67561SOL    HW1 4516   0.334   9.252   7.254
67561SOL    HW2 4517   0.431   9.354   7.310
67562SOL     OW 4518   9.881   6.272   8.750
67562SOL    HW1 4519   9.869   6.304   8.660
67562SOL    HW2 4520   9.965   6.308   8.777
67563SOL     OW 4521   9.262   1.813  11.190
67563SOL    HW1 4522   9.271   1.766  11.273
67563SOL    HW2 4523   9.351   1.812  11.153
67564SOL     OW 4524   3.205   1.492   6.656
67564SOL    HW1 4525   3.211   1.406   6.613
67564SOL    HW2 4526   3.235   1.475   6.745
67565SOL     OW 4527   9.400   5.010   9.733
67565SOL    HW1 4528   9.435   5.001   9.644
67565SOL    HW2 4529   9.313   5.047   9.722
67566SOL     OW 4530   6.830  12.742  10.153
67566SOL    HW1 4531   6.742  12.748  10.191
67566SOL    HW2 4532   6.835  12.653  10.118
67567SOL     OW 4533   5.741   8.015   6.469
67567SOL    HW1 4534   5.674   7.966   6.518
67567SOL    HW2 4535   5.718   8.003   6.377
67568SOL     OW 4536  12.855   1.586  14.166
67568SOL    HW1 4537  12.841   1.620  14.254
67568SOL    HW2 4538  12.920   1.516  14.177
67569SOL     OW 4539   9.410   0.567   2.990
67569SOL    HW1 4540   9.366   0.610   3.062
67569SOL    HW2 4541   9.454   0.637   2.942
67570SOL     OW 4542  14.275  13.883  13.620
67570SOL    HW1 4543  14.203  13.821  13.620
67570SOL    HW2 4544  14.277  13.918  13.531
67571SOL     OW 4545   0.427  14.589   5.120
67571SOL    HW1 4546   0.460  14.513   5.071
67571SOL    HW2 4547   0.491  14.603   5.190
67572SOL     OW 4548   5.825  10.116   7.429
67572SOL    HW1 4549   5.910  10.156   7.414
67572SOL    HW2 4550   5.789  10.163   7.504
67573SOL     OW 4551   7.771   4.215   8.014
67573SOL    HW1 4552   7.708   4.143   8.012
67573SOL    HW2 4553   7.768   4.252   7.925
67574SOL     OW 4554   7.708   5.546  10.226
67574SOL    HW1 4555   7.712   5.601  10.148
67574SOL    HW2 4556   7.778   5.578  10.282
67575SOL     OW 4557   9.076   9.124  13.217
67575SOL    HW1 4558   9.111   9.141  13.130
67575SOL    HW2 4559   9.054   9.031  13.217
67576SOL     OW 4560   0.146  10.998   5.448
67576SOL    HW1 4561   0.150  10.987   5.353
67576SOL    HW2 4562   0.052  10.992   5.469
67577SOL     OW 4563   1.269  10.345   0.318
67577SOL    HW1 4564   1.225  10.396   0.386
67577SOL    HW2 4565   1.311  10.410   0.262
67578SOL     OW 4566   2.727   0.732   6.893
67578SOL    HW1 4567   2.676   0.663   6.849
67578SOL    HW2 4568   2.698   0.728   6.985
67579SOL     OW 4569   9.512   6.009   9.612
67579SOL    HW1 4570   9.509   5.984   9.704
67579SOL    HW2 4571   9.606   6.022   9.594
67580SOL     OW 4572  12.835   6.544  13.020
67580SOL    HW1 4573  12.840   6.583  13.108
67580SOL    HW2 4574  12.751   6.499  13.018
67581SOL     OW 4575  13.923   6.210   1.430
67581SOL    HW1 4576  13.852   6.268   1.461
67581SOL    HW2 4577  14.003   6.261   1.444
67582SOL     OW 4578   4.986   6.265   5.165
67582SOL    HW1 4579   4.912   6.212   5.196
67582SOL    HW2 4580   4.975   6.268   5.070
67583SOL     OW 4581  14.105   5.712   0.316
67583SOL    HW1 4582  14.166   5.660   0.264
67583SOL    HW2 4583  14.157   5.741   0.391
67584SOL     OW 4584   3.964   3.395  11.483
67584SOL    HW1 4585   3.934   3.479  11.519
67584SOL    HW2 4586   3.899   3.331  11.513
67585SOL     OW 4587   1.684  14.759   5.980
67585SOL    HW1 4588   1.773  14.755   5.946
67585SOL    HW2 4589   1.664  14.852   5.984
67586SOL     OW 4590  11.423   4.493   1.959
67586SOL    HW1 4591  11.404   4.584   1.934
67586SOL    HW2 4592  11.427   4.446   1.876
67587SOL     OW 4593  14.067   3.843   3.824
67587SOL    HW1 4594  14.123   3.769   3.802
67587SOL    HW2 4595  14.109   3.884   3.899
67588SOL     OW 4596   0.981  13.626   9.765
67588SOL    HW1 4597   0.937  13.573   9.699
67588SOL    HW2 4598   0.916  13.692   9.791
67589SOL     OW 4599   9.489  11.581   0.839
67589SOL    HW1 4600   9.581  11.593   0.815
67589SOL    HW2 4601   9.448  11.666   0.823
67590SOL     OW 4602   4.144   9.588   7.632
67590SOL    HW1 4603   4.176   9.600   7.721
67590SOL    HW2 4604   4.156   9.673   7.590
67591SOL     OW 4605   3.875  12.363   4.088
67591SOL    HW1 4606   3.869  12.455   4.112
67591SOL    HW2 4607   3.846  12.316   4.167
67592SOL     OW 4608  14.441   8.637  14.652
67592SOL    HW1 4609  14.483   8.551  14.645
67592SOL    HW2 4610  14.468   8.669  14.738
67593SOL     OW 4611   3.305   3.682   1.613
67593SOL    HW1 4612   3.343   3.746   1.552
67593SOL    HW2 4613   3.236   3.730   1.658
67594SOL     OW 4614   2.042   0.394   5.159
67594SOL    HW1 4615   2.008   0.480   5.181
67594SOL    HW2 4616   2.091   0.407   5.078
67595SOL     OW 4617   6.246   2.468   2.154
67595SOL    HW1 4618   6.296   2.465   2.236
67595SOL    HW2 4619   6.207   2.556   2.153
67596SOL     OW 4620   2.008  12.936   5.666
67596SOL    HW1 4621   2.059  13.000   5.716
67596SOL    HW2 4622   2.056  12.926   5.584
67597SOL     OW 4623   9.036  12.852  14.674
67597SOL    HW1 4624   8.965  12.825  14.732
67597SOL    HW2 4625   9.049  12.777  14.616
67598SOL     OW 4626   1.319  11.279   5.871
67598SOL    HW1 4627   1.231  11.245   5.853
67598SOL    HW2 4628   1.314  11.312   5.961
67599SOL     OW 4629   5.957   6.024   4.156
67599SOL    HW1 4630   5.950   6.092   4.090
67599SOL    HW2 4631   5.931   6.066   4.238
67600SOL     OW 4632   4.760  11.661  12.659
67600SOL    HW1 4633   4.751  11.702  12.745
67600SOL    HW2 4634   4.847  11.688  12.628
67601SOL     OW 4635   2.837  12.456   0.451
67601SOL    HW1 4636   2.828  12.515   0.375
67601SOL    HW2 4637   2.857  12.371   0.412
67602SOL     OW 4638  11.422  13.148  10.615
67602SOL    HW1 4639  11.473  13.119  10.540
67602SOL    HW2 4640  11.355  13.081  10.627
67603SOL     OW 4641  13.579   4.896   2.016
67603SOL    HW1 4642  13.642   4.918   1.947
67603SOL    HW2 4643  13.532   4.820   1.982
67604SOL     OW 4644   2.320   0.550   5.790
67604SOL    HW1 4645   2.383   0.622   5.790
67604SOL    HW2 4646   2.235   0.593   5.793
67605SOL     OW 4647   8.647   3.021   8.152
67605SOL    HW1 4648   8.704   3.056   8.083
67605SOL    HW2 4649   8.587   2.963   8.106
67606SOL     OW 4650   0.572   5.594  14.296
67606SOL    HW1 4651   0.519   5.567  14.371
67606SOL    HW2 4652   0.559   5.689  14.289
67607SOL     OW 4653   9.978   4.001  12.085
67607SOL    HW1 4654  10.063   4.023  12.123
67607SOL    HW2 4655   9.937   3.943  12.150
67608SOL     OW 4656  11.595   6.682   0.031
67608SOL    HW1 4657  11.542   6.723   0.100
67608SOL    HW2 4658  11.535   6.672  14.830
67609SOL     OW 4659  13.846   0.668   0.143
67609SOL    HW1 4660  13.803   0.637   0.063
67609SOL    HW2 4661  13.904   0.596   0.168
67610SOL     OW 4662   5.801  10.948   3.215
67610SOL    HW1 4663   5.802  11.043   3.230
67610SOL    HW2 4664   5.762  10.938   3.129
67611SOL     OW 4665  11.530   2.435   5.887
67611SOL    HW1 4666  11.483   2.365   5.932
67611SOL    HW2 4667  11.537   2.505   5.953
67612SOL     OW 4668   1.805   9.060   9.564
67612SOL    HW1 4669   1.830   9.102   9.647
67612SOL    HW2 4670   1.888   9.028   9.528
67613SOL     OW 4671  11.165   7.473   8.532
67613SOL    HW1 4672  11.145   7.560   8.566
67613SOL    HW2 4673  11.257   7.459   8.555
67614SOL     OW 4674   8.392   5.309   9.468
67614SOL    HW1 4675   8.363   5.338   9.381
67614SOL    HW2 4676   8.338   5.359   9.529
67615SOL     OW 4677  12.603  11.690   4.656
67615SOL    HW1 4678  12.613  11.689   4.561
67615SOL    HW2 4679  12.530  11.631   4.674
67616SOL     OW 4680   3.261  14.177   0.262
67616SOL    HW1 4681   3.331  14.211   0.317
67616SOL    HW2 4682   3.287  14.199   0.172
67617SOL     OW 4683   7.501  11.411  10.782
67617SOL    HW1 4684   7.465  11.366  10.858
67617SOL    HW2 4685   7.506  11.344  10.714
67618SOL     OW 4686  14.161   4.492   5.192
67618SOL    HW1 4687  14.141   4.550   5.119
67618SOL    HW2 4688  14.170   4.550   5.268
67619SOL     OW 4689   5.039   4.746   1.782
67619SOL    HW1 4690   5.085   4.719   1.862
67619SOL    HW2 4691   5.009   4.835   1.800
67620SOL     OW 4692  11.494   3.659   3.100
67620SOL    HW1 4693  11.498   3.605   3.022
67620SOL    HW2 4694  11.488   3.749   3.068
67621SOL     OW 4695   8.612   8.173  12.632
67621SOL    HW1 4696   8.581   8.263  12.631
67621SOL    HW2 4697   8.541   8.123  12.592
67622SOL     OW 4698   6.695  13.626   8.058
67622SOL    HW1 4699   6.721  13.670   7.978
67622SOL    HW2 4700   6.671  13.537   8.030
67623SOL     OW 4701   4.480   5.305  12.930
67623SOL    HW1 4702   4.534   5.296  13.008
67623SOL    HW2 4703   4.531   5.362  12.872
67624SOL     OW 4704   3.813   5.016  12.542
67624SOL    HW1 4705   3.752   5.090  12.539
67624SOL    HW2 4706   3.894   5.054  12.577
67625SOL     OW 4707   0.065   7.370   4.201
67625SOL    HW1 4708   0.021   7.442   4.246
67625SOL    HW2 4709   0.090   7.407   4.116
67626SOL     OW 4710   9.131  10.464   3.308
67626SOL    HW1 4711   9.191  10.530   3.274
67626SOL    HW2 4712   9.105  10.412   3.232
67627SOL     OW 4713   6.438  12.318   6.738
67627SOL    HW1 4714   6.499  12.386   6.764
67627SOL    HW2 4715   6.352  12.350   6.768
67628SOL     OW 4716  13.762  10.802  14.767
67628SOL    HW1 4717  13.847  10.830  14.800
67628SOL    HW2 4718  13.699  10.852  14.818
67629SOL     OW 4719   6.357   4.126  13.874
67629SOL    HW1 4720   6.284   4.180  13.904
67629SOL    HW2 4721   6.319   4.038  13.864
67630SOL     OW 4722   3.097   1.193   5.619
67630SOL    HW1 4723   3.161   1.182   5.547
67630SOL    HW2 4724   3.116   1.120   5.678
67631SOL     OW 4725   4.241   1.898   3.448
67631SOL    HW1 4726   4.178   1.833   3.416
67631SOL    HW2 4727   4.292   1.850   3.514
67632SOL     OW 4728  13.594   1.711   5.127
67632SOL    HW1 4729  13.559   1.628   5.158
67632SOL    HW2 4730  13.594   1.768   5.204
67633SOL     OW 4731   7.929   8.164   4.252
67633SOL    HW1 4732   7.848   8.118   4.275
67633SOL    HW2 4733   7.994   8.128   4.312
67634SOL     OW 4734  12.912   7.080   3.348
67634SOL    HW1 4735  12.823   7.109   3.372
67634SOL    HW2 4736  12.930   7.127   3.266
67635SOL     OW 4737  11.641   9.364   1.268
67635SOL    HW1 4738  11.643   9.458   1.251
67635SOL    HW2 4739  11.630   9.325   1.182
67636SOL     OW 4740   2.450  14.305  13.885
67636SOL    HW1 4741   2.451  14.231  13.946
67636SOL    HW2 4742   2.416  14.378  13.937
67637SOL     OW 4743  12.159  13.384  11.576
67637SOL    HW1 4744  12.208  13.340  11.507
67637SOL    HW2 4745  12.129  13.314  11.633
67638SOL     OW 4746  10.527  11.887   1.995
67638SOL    HW1 4747  10.547  11.918   1.907
67638SOL    HW2 4748  10.437  11.855   1.989
67639SOL     OW 4749   9.329  13.647  13.039
67639SOL    HW1 4750   9.261  13.676  13.100
67639SOL    HW2 4751   9.401  13.709  13.051
67640SOL     OW 4752   0.357   1.814  12.403
67640SOL    HW1 4753   0.290   1.766  12.452
67640SOL    HW2 4754   0.320   1.903  12.395
67641SOL     OW 4755  11.319  13.601  12.679
67641SOL    HW1 4756  11.284  13.554  12.604
67641SOL    HW2 4757  11.248  13.600  12.744
67642SOL     OW 4758   4.162   8.088  11.675
67642SOL    HW1 4759   4.143   8.036  11.596
67642SOL    HW2 4760   4.126   8.174  11.655
67643SOL     OW 4761   2.211  10.434  14.732
67643SOL    HW1 4762   2.267  10.399  14.802
67643SOL    HW2 4763   2.145  10.486  14.778
67644SOL     OW 4764   3.315   4.984  10.434
67644SOL    HW1 4765   3.307   4.996  10.339
67644SOL    HW2 4766   3.231   5.014  10.469
67645SOL     OW 4767   5.746   0.910   9.469
67645SOL    HW1 4768   5.806   0.839   9.491
67645SOL    HW2 4769   5.794   0.989   9.492
67646SOL     OW 4770   7.264   0.228   0.793
67646SOL    HW1 4771   7.170   0.212   0.788
67646SOL    HW2 4772   7.272   0.319   0.821
67647SOL     OW 4773  13.876   3.187   4.287
67647SOL    HW1 4774  13.802   3.152   4.237
67647SOL    HW2 4775  13.953   3.164   4.235
67648SOL     OW 4776   5.149   4.331   4.878
67648SOL    HW1 4777   5.157   4.374   4.963
67648SOL    HW2 4778   5.195   4.388   4.817
67649SOL     OW 4779   0.371   9.977   1.461
67649SOL    HW1 4780   0.283   9.990   1.427
67649SOL    HW2 4781   0.363   9.904   1.522
67650SOL     OW 4782   5.778   6.793   8.447
67650SOL    HW1 4783   5.757   6.820   8.357
67650SOL    HW2 4784   5.796   6.874   8.493
67651SOL     OW 4785   0.352   8.368  10.343
67651SOL    HW1 4786   0.280   8.352  10.283
67651SOL    HW2 4787   0.333   8.314  10.419
67652SOL     OW 4788   2.282   2.501   9.172
67652SOL    HW1 4789   2.224   2.449   9.117
67652SOL    HW2 4790   2.238   2.586   9.181
67653SOL     OW 4791   8.564   1.923   0.507
67653SOL    HW1 4792   8.503   1.935   0.434
67653SOL    HW2 4793   8.555   2.002   0.559
67654SOL     OW 4794   6.740  14.406  14.675
67654SOL    HW1 4795   6.688  14.395  14.754
67654SOL    HW2 4796   6.699  14.347  14.611
67655SOL     OW 4797  12.615   6.225   6.394
67655SOL    HW1 4798  12.521   6.208   6.385
67655SOL    HW2 4799  12.647   6.151   6.446
67656SOL     OW 4800   8.005   2.736   5.757
67656SOL    HW1 4801   8.060   2.804   5.796
67656SOL    HW2 4802   7.964   2.779   5.682
67657SOL     OW 4803   9.539   4.144   3.362
67657SOL    HW1 4804   9.493   4.226   3.379
67657SOL    HW2 4805   9.502   4.112   3.280
67658SOL     OW 4806   9.395   0.534   4.383
67658SOL    HW1 4807   9.329   0.507   4.446
67658SOL    HW2 4808   9.426   0.619   4.415
67659SOL     OW 4809   9.003   0.230  11.850
67659SOL    HW1 4810   8.964   0.192  11.772
67659SOL    HW2 4811   8.932   0.281  11.890
67660SOL     OW 4812  10.218   1.006  11.403
67660SOL    HW1 4813  10.240   1.099  11.411
67660SOL    HW2 4814  10.137   0.996  11.454
67661SOL     OW 4815   8.205   7.584   5.555
67661SOL    HW1 4816   8.239   7.508   5.601
67661SOL    HW2 4817   8.269   7.653   5.572
67662SOL     OW 4818  13.156   6.948   1.101
67662SOL    HW1 4819  13.175   7.037   1.132
67662SOL    HW2 4820  13.242   6.906   1.099
67663SOL     OW 4821   3.733   1.749  14.789
67663SOL    HW1 4822   3.716   1.793  14.706
67663SOL    HW2 4823   3.671   1.789  14.850
67664SOL     OW 4824   1.409   0.606   1.601
67664SOL    HW1 4825   1.337   0.655   1.561
67664SOL    HW2 4826   1.368   0.528   1.636
67665SOL     OW 4827   9.156   2.962  12.723
67665SOL    HW1 4828   9.128   3.048  12.690
67665SOL    HW2 4829   9.244   2.951  12.688
67666SOL     OW 4830   5.570  13.194  12.670
67666SOL    HW1 4831   5.490  13.216  12.623
67666SOL    HW2 4832   5.624  13.273  12.663
67667SOL     OW 4833   0.904  10.534   8.777
67667SOL    HW1 4834   0.912  10.590   8.855
67667SOL    HW2 4835   0.990  10.493   8.768
67668SOL     OW 4836   1.191   4.643   8.183
67668SOL    HW1 4837   1.109   4.650   8.232
67668SOL    HW2 4838   1.249   4.707   8.224
67669SOL     OW 4839   2.675  12.117   2.030
67669SOL    HW1 4840   2.725  12.166   2.096
67669SOL    HW2 4841   2.724  12.130   1.949
67670SOL     OW 4842  14.012  11.616   5.828
67670SOL    HW1 4843  14.080  11.668   5.869
67670SOL    HW2 4844  13.942  11.679   5.808
67671SOL     OW 4845   6.393  14.143   8.363
67671SOL    HW1 4846   6.418  14.058   8.399
67671SOL    HW2 4847   6.476  14.190   8.354
67672SOL     OW 4848   8.415   9.344  13.185
67672SOL    HW1 4849   8.385   9.372  13.099
67672SOL    HW2 4850   8.463   9.263  13.169
67673SOL     OW 4851   9.345   3.020  10.634
67673SOL    HW1 4852   9.318   3.109  10.659
67673SOL    HW2 4853   9.403   2.992  10.705
67674SOL     OW 4854   7.225  14.744   0.348
67674SOL    HW1 4855   7.187  14.803   0.413
67674SOL    HW2 4856   7.246  14.800   0.274
67675SOL     OW 4857   4.345   8.088  14.501
67675SOL    HW1 4858   4.397   8.167  14.488
67675SOL    HW2 4859   4.271   8.116  14.555
67676SOL     OW 4860   2.097  13.172   3.354
67676SOL    HW1 4861   2.091  13.111   3.428
67676SOL    HW2 4862   2.160  13.132   3.295
67677SOL     OW 4863   2.036   0.725   6.333
67677SOL    HW1 4864   2.052   0.684   6.248
67677SOL    HW2 4865   1.955   0.775   6.321
67678SOL     OW 4866   6.385  10.241   8.299
67678SOL    HW1 4867   6.347  10.229   8.386
67678SOL    HW2 4868   6.383  10.154   8.260
67679SOL     OW 4869  12.538  11.249   8.688
67679SOL    HW1 4870  12.531  11.327   8.634
67679SOL    HW2 4871  12.630  11.224   8.684
67680SOL     OW 4872   3.603   3.803   5.925
67680SOL    HW1 4873   3.619   3.896   5.935
67680SOL    HW2 4874   3.536   3.796   5.857
67681SOL     OW 4875   5.683  14.445  10.116
67681SOL    HW1 4876   5.639  14.417  10.036
67681SOL    HW2 4877   5.704  14.364  10.162
67682SOL     OW 4878   5.098   3.272   1.120
67682SOL    HW1 4879   5.065   3.188   1.152
67682SOL    HW2 4880   5.190   3.255   1.101
67683SOL     OW 4881  13.344   8.137   7.072
67683SOL    HW1 4882  13.376   8.115   7.160
67683SOL    HW2 4883  13.336   8.053   7.027
67684SOL     OW 4884   1.361   2.126   4.169
67684SOL    HW1 4885   1.413   2.178   4.230
67684SOL    HW2 4886   1.423   2.063   4.132
67685SOL     OW 4887  13.485   0.008   0.806
67685SOL    HW1 4888  13.506   0.074   0.739
67685SOL    HW2 4889  13.433   0.055   0.871
67686SOL     OW 4890   0.751  10.176   8.669
67686SOL    HW1 4891   0.737  10.260   8.712
67686SOL    HW2 4892   0.668  10.130   8.679
67687SOL     OW 4893  14.152  13.021   3.939
67687SOL    HW1 4894  14.157  13.046   3.846
67687SOL    HW2 4895  14.186  13.098   3.986
67688SOL     OW 4896   7.033   8.231   8.766
67688SOL    HW1 4897   6.998   8.235   8.855
67688SOL    HW2 4898   6.956   8.235   8.710
67689SOL     OW 4899   1.283   0.151   4.435
67689SOL    HW1 4900   1.207   0.094   4.444
67689SOL    HW2 4901   1.357   0.092   4.423
67690SOL     OW 4902   4.888   4.222  12.848
67690SOL    HW1 4903   4.797   4.194  12.837
67690SOL    HW2 4904   4.939   4.149  12.812
67691SOL     OW 4905   4.255   7.928   2.058
67691SOL    HW1 4906   4.300   7.969   1.984
67691SOL    HW2 4907   4.258   7.994   2.127
67692SOL     OW 4908  11.135   5.966   3.647
67692SOL    HW1 4909  11.051   5.937   3.612
67692SOL    HW2 4910  11.118   6.053   3.684
67693SOL     OW 4911  13.486   0.593   2.958
67693SOL    HW1 4912  13.457   0.572   2.869
67693SOL    HW2 4913  13.441   0.529   3.013
67694SOL     OW 4914  13.845   9.760   1.890
67694SOL    HW1 4915  13.783   9.687   1.888
67694SOL    HW2 4916  13.931   9.718   1.888
67695SOL     OW 4917  13.013   6.525   0.675
67695SOL    HW1 4918  13.010   6.450   0.735
67695SOL    HW2 4919  12.948   6.505   0.608
67696SOL     OW 4920   1.734  14.481   3.886
67696SOL    HW1 4921   1.752  14.563   3.932
67696SOL    HW2 4922   1.820  14.450   3.858
67697SOL     OW 4923  10.308   6.045   3.400
67697SOL    HW1 4924  10.369   5.976   3.373
67697SOL    HW2 4925  10.224   6.000   3.409
67698SOL     OW 4926   3.216   2.631   8.981
67698SOL    HW1 4927   3.235   2.581   9.060
67698SOL    HW2 4928   3.294   2.619   8.927
67699SOL     OW 4929   1.509   8.427   0.307
67699SOL    HW1 4930   1.579   8.421   0.241
67699SOL    HW2 4931   1.457   8.503   0.281
67700SOL     OW 4932  14.642   4.134  10.380
67700SOL    HW1 4933  14.561   4.130  10.329
67700SOL    HW2 4934  14.675   4.223  10.367
67701SOL     OW 4935   5.947   1.234   1.501
67701SOL    HW1 4936   5.884   1.181   1.550
67701SOL    HW2 4937   5.944   1.198   1.413
67702SOL     OW 4938  10.325  12.101   3.532
67702SOL    HW1 4939  10.399  12.118   3.590
67702SOL    HW2 4940  10.354  12.133   3.447
67703SOL     OW 4941   2.122  13.556   8.962
67703SOL    HW1 4942   2.213  13.587   8.959
67703SOL    HW2 4943   2.107  13.534   9.054
67704SOL     OW 4944   7.870  12.815   4.775
67704SOL    HW1 4945   7.848  12.733   4.731
67704SOL    HW2 4946   7.908  12.788   4.859
67705SOL     OW 4947  12.728   9.135   4.945
67705SOL    HW1 4948  12.735   9.066   5.011
67705SOL    HW2 4949  12.635   9.136   4.921
67706SOL     OW 4950  10.593   4.140  12.645
67706SOL    HW1 4951  10.526   4.074  12.662
67706SOL    HW2 4952  10.559   4.220  12.687
67707SOL     OW 4953  14.125   6.059   8.972
67707SOL    HW1 4954  14.155   6.086   9.059
67707SOL    HW2 4955  14.188   5.994   8.943
67708SOL     OW 4956   0.003   5.754   6.424
67708SOL    HW1 4957  14.804   5.817   6.423
67708SOL    HW2 4958   0.002   5.718   6.512
67709SOL     OW 4959  11.982   8.570   4.927
67709SOL    HW1 4960  11.973   8.574   5.023
67709SOL    HW2 4961  11.975   8.477   4.906
67710SOL     OW 4962  14.569   8.089  13.438
67710SOL    HW1 4963  14.658   8.075  13.470
67710SOL    HW2 4964  14.581   8.124  13.350
67711SOL     OW 4965   1.257   0.983  13.035
67711SOL    HW1 4966   1.243   1.075  13.054
67711SOL    HW2 4967   1.239   0.974  12.942
67712SOL     OW 4968   4.071  10.138   0.169
67712SOL    HW1 4969   4.147  10.090   0.201
67712SOL    HW2 4970   3.998  10.077   0.177
67713SOL     OW 4971   5.482   5.491   5.705
67713SOL    HW1 4972   5.442   5.571   5.739
67713SOL    HW2 4973   5.537   5.459   5.776
67714SOL     OW 4974  12.795   2.634   2.077
67714SOL    HW1 4975  12.833   2.549   2.054
67714SOL    HW2 4976  12.815   2.644   2.170
67715SOL     OW 4977   2.302   0.767   4.620
67715SOL    HW1 4978   2.245   0.833   4.580
67715SOL    HW2 4979   2.242   0.699   4.649
67716SOL     OW 4980   8.018   6.563   4.097
67716SOL    HW1 4981   8.035   6.656   4.109
67716SOL    HW2 4982   8.050   6.523   4.178
67717SOL     OW 4983  11.829   3.566  12.972
67717SOL    HW1 4984  11.858   3.519  12.894
67717SOL    HW2 4985  11.894   3.544  13.039
67718SOL     OW 4986   1.275   3.893  10.182
67718SOL    HW1 4987   1.302   3.808  10.218
67718SOL    HW2 4988   1.254   3.946  10.259
67719SOL     OW 4989   0.438   0.397  12.394
67719SOL    HW1 4990   0.480   0.327  12.443
67719SOL    HW2 4991   0.354   0.360  12.367
67720SOL     OW 4992   8.360  14.137  13.242
67720SOL    HW1 4993   8.323  14.068  13.297
67720SOL    HW2 4994   8.362  14.214  13.298
67721SOL     OW 4995   6.005   2.916  14.090
67721SOL    HW1 4996   5.924   2.954  14.123
67721SOL    HW2 4997   6.002   2.824  14.118
67722SOL     OW 4998   0.251  13.608  12.066
67722SOL    HW1 4999   0.269  13.702  12.077
67722SOL    HW2 5000   0.328  13.564  12.102
67723SOL     OW 5001   3.521  10.716   4.382
67723SOL    HW1 5002   3.517  10.623   4.404
67723SOL    HW2 5003   3.611  10.742   4.404
67724SOL     OW 5004   1.660  12.381   5.375
67724SOL    HW1 5005   1.745  12.350   5.405
67724SOL    HW2 5006   1.599  12.310   5.397
67725SOL     OW 5007   4.953  12.040  14.278
67725SOL    HW1 5008   4.877  12.061  14.332
67725SOL    HW2 5009   5.025  12.091  14.316
67726SOL     OW 5010   6.565   7.560   4.110
67726SOL    HW1 5011   6.506   7.633   4.124
67726SOL    HW2 5012   6.513   7.496   4.061
67727SOL     OW 5013  10.488  11.365  11.473
67727SOL    HW1 5014  10.511  11.276  11.446
67727SOL    HW2 5015  10.394  11.360  11.491
67728SOL     OW 5016  12.814   6.552   7.996
67728SOL    HW1 5017  12.856   6.472   7.963
67728SOL    HW2 5018  12.883   6.618   7.994
67729SOL     OW 5019   5.886  14.505   7.538
67729SOL    HW1 5020   5.912  14.414   7.526
67729SOL    HW2 5021   5.837  14.527   7.459
67730SOL     OW 5022  13.165   7.051   6.764
67730SOL    HW1 5023  13.117   7.121   6.720
67730SOL    HW2 5024  13.125   6.970   6.731
67731SOL     OW 5025   2.398   2.367   2.441
67731SOL    HW1 5026   2.437   2.421   2.509
67731SOL    HW2 5027   2.445   2.283   2.447
67732SOL     OW 5028  11.862   2.014   8.469
67732SOL    HW1 5029  11.768   2.015   8.485
67732SOL    HW2 5030  11.885   1.922   8.459
67733SOL     OW 5031   9.085   9.805  13.502
67733SOL    HW1 5032   9.051   9.750  13.431
67733SOL    HW2 5033   9.026   9.790  13.575
67734SOL     OW 5034  11.440   3.203   6.197
67734SOL    HW1 5035  11.398   3.135   6.144
67734SOL    HW2 5036  11.525   3.218   6.155
67735SOL     OW 5037  10.899   6.749   7.336
67735SOL    HW1 5038  10.851   6.768   7.416
67735SOL    HW2 5039  10.903   6.833   7.290
67736SOL     OW 5040   9.184   1.837  13.946
67736SOL    HW1 5041   9.187   1.779  14.022
67736SOL    HW2 5042   9.135   1.914  13.976
67737SOL     OW 5043   5.631   3.693  13.624
67737SOL    HW1 5044   5.721   3.679  13.655
67737SOL    HW2 5045   5.580   3.623  13.665
67738SOL     OW 5046   7.307  12.005   1.052
67738SOL    HW1 5047   7.281  12.030   0.963
67738SOL    HW2 5048   7.403  12.002   1.048
67739SOL     OW 5049   5.481  10.878  10.117
67739SOL    HW1 5050   5.556  10.866  10.059
67739SOL    HW2 5051   5.408  10.839  10.069
67740SOL     OW 5052  11.628   0.414   2.238
67740SOL    HW1 5053  11.703   0.416   2.298
67740SOL    HW2 5054  11.665   0.437   2.153
67741SOL     OW 5055   7.309   1.712   5.990
67741SOL    HW1 5056   7.239   1.724   5.925
67741SOL    HW2 5057   7.383   1.678   5.939
67742SOL     OW 5058   6.916   2.888   0.222
67742SOL    HW1 5059   6.935   2.955   0.288
67742SOL    HW2 5060   6.852   2.831   0.265
67743SOL     OW 5061   1.028  10.347  10.910
67743SOL    HW1 5062   1.121  10.348  10.887
67743SOL    HW2 5063   1.024  10.299  10.992
67744SOL     OW 5064   0.029   2.162   4.384
67744SOL    HW1 5065   0.093   2.101   4.421
67744SOL    HW2 5066   0.053   2.169   4.292
67745SOL     OW 5067   2.864   9.081   3.811
67745SOL    HW1 5068   2.885   9.157   3.756
67745SOL    HW2 5069   2.892   9.005   3.759
67746SOL     OW 5070  13.936   0.328   7.949
67746SOL    HW1 5071  13.909   0.280   8.027
67746SOL    HW2 5072  14.010   0.279   7.914
67747SOL     OW 5073   0.613   1.829  10.536
67747SOL    HW1 5074   0.653   1.846  10.621
67747SOL    HW2 5075   0.688   1.816  10.477
67748SOL     OW 5076   4.219   9.602   0.078
67748SOL    HW1 5077   4.265   9.630  14.872
67748SOL    HW2 5078   4.129   9.588   0.050
67749SOL     OW 5079  11.026  12.890   4.283
67749SOL    HW1 5080  11.072  12.974   4.273
67749SOL    HW2 5081  10.952  12.911   4.341
67750SOL     OW 5082   7.466  10.530   4.628
67750SOL    HW1 5083   7.494  10.442   4.654
67750SOL    HW2 5084   7.532  10.588   4.665
67751SOL     OW 5085   3.668  11.207   0.757
67751SOL    HW1 5086   3.725  11.130   0.755
67751SOL    HW2 5087   3.599  11.183   0.819
67752SOL     OW 5088   8.192   3.393   2.552
67752SOL    HW1 5089   8.138   3.423   2.625
67752SOL    HW2 5090   8.180   3.460   2.484
67753SOL     OW 5091  14.569   9.756  13.003
67753SOL    HW1 5092  14.530   9.741  12.917
67753SOL    HW2 5093  14.663   9.740  12.989
67754SOL     OW 5094  12.703   9.801   1.342
67754SOL    HW1 5095  12.686   9.713   1.308
67754SOL    HW2 5096  12.643   9.857   1.293
67755SOL     OW 5097   3.007   4.515   5.597
67755SOL    HW1 5098   3.067   4.564   5.541
67755SOL    HW2 5099   2.974   4.444   5.542
67756SOL     OW 5100   1.573   8.138   2.561
67756SOL    HW1 5101   1.577   8.111   2.653
67756SOL    HW2 5102   1.480   8.155   2.545
67757SOL     OW 5103   4.873   0.441  10.725
67757SOL    HW1 5104   4.903   0.451  10.815
67757SOL    HW2 5105   4.951   0.411  10.678
67758SOL     OW 5106   8.225   0.931   2.030
67758SOL    HW1 5107   8.150   0.989   2.036
67758SOL    HW2 5108   8.270   0.940   2.114
67759SOL     OW 5109   7.844  13.480  12.672
67759SOL    HW1 5110   7.835  13.395  12.715
67759SOL    HW2 5111   7.938  13.496  12.670
67760SOL     OW 5112   0.147   0.251  10.294
67760SOL    HW1 5113   0.205   0.191  10.246
67760SOL    HW2 5114   0.125   0.204  10.374
67761SOL     OW 5115  10.317  10.514   6.126
67761SOL    HW1 5116  10.223  10.534   6.126
67761SOL    HW2 5117  10.359  10.597   6.149
67762SOL     OW 5118  12.816   8.317  10.791
67762SOL    HW1 5119  12.815   8.324  10.695
67762SOL    HW2 5120  12.849   8.229  10.809
67763SOL     OW 5121   2.141   8.481  12.339
67763SOL    HW1 5122   2.229   8.510  12.360
67763SOL    HW2 5123   2.096   8.560  12.308
67764SOL     OW 5124  10.473   4.657  12.461
67764SOL    HW1 5125  10.446   4.734  12.511
67764SOL    HW2 5126  10.546   4.620  12.511
67765SOL     OW 5127   2.139   9.665   5.744
67765SOL    HW1 5128   2.059   9.686   5.696
67765SOL    HW2 5129   2.109   9.619   5.822
67766SOL     OW 5130   8.941  14.032  12.478
67766SOL    HW1 5131   8.915  14.117  12.513
67766SOL    HW2 5132   8.909  13.968  12.543
67767SOL     OW 5133   6.062  12.882   5.911
67767SOL    HW1 5134   6.025  12.832   5.839
67767SOL    HW2 5135   6.050  12.826   5.988
67768SOL     OW 5136   3.501   6.495   6.746
67768SOL    HW1 5137   3.514   6.406   6.779
67768SOL    HW2 5138   3.465   6.543   6.820
67769SOL     OW 5139   7.040   8.972   8.624
67769SOL    HW1 5140   7.047   8.956   8.718
67769SOL    HW2 5141   6.975   8.909   8.594
67770SOL     OW 5142  14.128  11.251  13.256
67770SOL    HW1 5143  14.131  11.346  13.247
67770SOL    HW2 5144  14.036  11.229  13.242
67771SOL     OW 5145   1.649   4.011  10.533
67771SOL    HW1 5146   1.584   4.077  10.557
67771SOL    HW2 5147   1.700   4.052  10.463
67772SOL     OW 5148   5.132   2.914   4.742
67772SOL    HW1 5149   5.192   2.975   4.785
67772SOL    HW2 5150   5.090   2.966   4.673
67773SOL     OW 5151   1.344   3.174  11.309
67773SOL    HW1 5152   1.280   3.206  11.246
67773SOL    HW2 5153   1.422   3.153  11.257
67774SOL     OW 5154  12.022  13.310  14.818
67774SOL    HW1 5155  12.036  13.306   0.040
67774SOL    HW2 5156  12.089  13.253  14.781
67775SOL     OW 5157   0.648   1.768   0.040
67775SOL    HW1 5158   0.673   1.714  14.838
67775SOL    HW2 5159   0.724   1.822   0.057
67776SOL     OW 5160   7.348   3.497   4.943
67776SOL    HW1 5161   7.359   3.575   4.996
67776SOL    HW2 5162   7.365   3.526   4.853
67777SOL     OW 5163  10.609   1.605   7.577
67777SOL    HW1 5164  10.683   1.580   7.521
67777SOL    HW2 5165  10.648   1.663   7.643
67778SOL     OW 5166  13.766   1.916   7.840
67778SOL    HW1 5167  13.857   1.938   7.820
67778SOL    HW2 5168  13.772   1.850   7.909
67779SOL     OW 5169  12.724  10.982   1.256
67779SOL    HW1 5170  12.784  10.998   1.328
67779SOL    HW2 5171  12.647  11.035   1.277
67780SOL     OW 5172  14.448   5.111  12.376
67780SOL    HW1 5173  14.357   5.119  12.347
67780SOL    HW2 5174  14.499   5.160  12.312
67781SOL     OW 5175   6.535   1.048   9.460
67781SOL    HW1 5176   6.476   1.073   9.531
67781SOL    HW2 5177   6.602   1.116   9.459
67782SOL     OW 5178   6.214   5.068   6.642
67782SOL    HW1 5179   6.251   4.983   6.662
67782SOL    HW2 5180   6.290   5.125   6.626
67783SOL     OW 5181   8.606   7.616   5.854
67783SOL    HW1 5182   8.588   7.710   5.853
67783SOL    HW2 5183   8.632   7.595   5.765
67784SOL     OW 5184  13.682   9.458  11.892
67784SOL    HW1 5185  13.665   9.551  11.878
67784SOL    HW2 5186  13.777   9.450  11.890
67785SOL     OW 5187  10.333  14.318   6.817
67785SOL    HW1 5188  10.254  14.369   6.798
67785SOL    HW2 5189  10.401  14.384   6.832
67786SOL     OW 5190   4.127  12.875   7.944
67786SOL    HW1 5191   4.034  12.875   7.919
67786SOL    HW2 5192   4.173  12.892   7.862
67787SOL     OW 5193  10.827   8.741   5.939
67787SOL    HW1 5194  10.834   8.816   5.879
67787SOL    HW2 5195  10.900   8.752   5.999
67788SOL     OW 5196  14.426  11.044   0.117
67788SOL    HW1 5197  14.383  10.984   0.056
67788SOL    HW2 5198  14.472  11.106   0.061
67789SOL     OW 5199  14.301  14.283  10.663
67789SOL    HW1 5200  14.241  14.219  10.624
67789SOL    HW2 5201  14.250  14.325  10.732
67790SOL     OW 5202  12.158  13.704  11.886
67790SOL    HW1 5203  12.115  13.711  11.801
67790SOL    HW2 5204  12.174  13.610  11.897
67791SOL     OW 5205   6.794   8.289  12.169
67791SOL    HW1 5206   6.778   8.213  12.225
67791SOL    HW2 5207   6.783   8.364  12.228
67792SOL     OW 5208   9.397   2.804  14.496
67792SOL    HW1 5209   9.313   2.759  14.505
67792SOL    HW2 5210   9.374   2.893  14.470
67793SOL     OW 5211  10.127   2.180  11.530
67793SOL    HW1 5212  10.107   2.094  11.494
67793SOL    HW2 5213  10.076   2.184  11.611
67794SOL     OW 5214   2.618  14.412   1.593
67794SOL    HW1 5215   2.694  14.471   1.590
67794SOL    HW2 5216   2.564  14.440   1.520
67795SOL     OW 5217  10.923   2.484   5.368
67795SOL    HW1 5218  10.941   2.487   5.461
67795SOL    HW2 5219  11.008   2.467   5.327
67796SOL     OW 5220  14.850  13.517  11.603
67796SOL    HW1 5221   0.050  13.578  11.616
67796SOL    HW2 5222   0.008  13.435  11.642
67797SOL     OW 5223   4.026   0.627  14.218
67797SOL    HW1 5224   4.098   0.574  14.252
67797SOL    HW2 5225   4.060   0.664  14.137
67798SOL     OW 5226   0.843   5.852   8.753
67798SOL    HW1 5227   0.896   5.906   8.694
67798SOL    HW2 5228   0.904   5.787   8.788
67799SOL     OW 5229   7.439  11.305   0.631
67799SOL    HW1 5230   7.344  11.294   0.642
67799SOL    HW2 5231   7.471  11.326   0.719
67800SOL     OW 5232   3.065   5.160  11.053
67800SOL    HW1 5233   3.070   5.227  11.121
67800SOL    HW2 5234   3.064   5.210  10.971
67801SOL     OW 5235  13.249   7.950   9.682
67801SOL    HW1 5236  13.175   7.998   9.646
67801SOL    HW2 5237  13.227   7.936   9.774
67802SOL     OW 5238   5.646   9.972  14.390
67802SOL    HW1 5239   5.591   9.970  14.312
67802SOL    HW2 5240   5.584   9.975  14.463
67803SOL     OW 5241   0.150   3.376   9.393
67803SOL    HW1 5242   0.220   3.326   9.352
67803SOL    HW2 5243   0.173   3.377   9.486
67804SOL     OW 5244   7.818  10.738  14.069
67804SOL    HW1 5245   7.830  10.717  13.976
67804SOL    HW2 5246   7.905  10.726  14.107
67805SOL     OW 5247   9.855   0.704  13.498
67805SOL    HW1 5248   9.943   0.738  13.511
67805SOL    HW2 5249   9.807   0.729  13.577
67806SOL     OW 5250   5.688  10.249  13.883
67806SOL    HW1 5251   5.724  10.218  13.966
67806SOL    HW2 5252   5.763  10.256  13.825
67807SOL     OW 5253   6.770  13.331  11.860
67807SOL    HW1 5254   6.860  13.360  11.873
67807SOL    HW2 5255   6.774  13.272  11.785
67808SOL     OW 5256  10.045   1.324   2.010
67808SOL    HW1 5257  10.033   1.413   1.978
67808SOL    HW2 5258  10.138   1.306   1.998
67809SOL     OW 5259  10.704   3.007   0.736
67809SOL    HW1 5260  10.695   2.912   0.727
67809SOL    HW2 5261  10.764   3.019   0.810
67810SOL     OW 5262   0.911   8.193   0.686
67810SOL    HW1 5263   0.855   8.214   0.761
67810SOL    HW2 5264   0.852   8.194   0.611
67811SOL     OW 5265   9.268   0.338   9.079
67811SOL    HW1 5266   9.359   0.358   9.061
67811SOL    HW2 5267   9.258   0.246   9.056
67812SOL     OW 5268  10.807   2.232  13.659
67812SOL    HW1 5269  10.764   2.184  13.729
67812SOL    HW2 5270  10.900   2.234  13.684
67813SOL     OW 5271   8.943   7.186   8.584
67813SOL    HW1 5272   8.904   7.272   8.600
67813SOL    HW2 5273   8.933   7.138   8.666
67814SOL     OW 5274  11.246  10.079  13.058
67814SOL    HW1 5275  11.151  10.072  13.067
67814SOL    HW2 5276  11.259  10.151  12.996
67815SOL     OW 5277   0.982  14.352   4.381
67815SOL    HW1 5278   0.899  14.305   4.381
67815SOL    HW2 5279   1.033  14.310   4.311
67816SOL     OW 5280  11.589  13.980   8.310
67816SOL    HW1 5281  11.666  14.036   8.297
67816SOL    HW2 5282  11.559  14.000   8.398
67817SOL     OW 5283  13.475   6.728   0.351
67817SOL    HW1 5284  13.547   6.780   0.315
67817SOL    HW2 5285  13.435   6.786   0.416
67818SOL     OW 5286   4.077  11.594  11.199
67818SOL    HW1 5287   4.087  11.672  11.254
67818SOL    HW2 5288   4.135  11.529  11.239
67819SOL     OW 5289   7.455  10.149  10.294
67819SOL    HW1 5290   7.475  10.071  10.242
67819SOL    HW2 5291   7.371  10.180  10.260
67820SOL     OW 5292   5.592   4.044   3.863
67820SOL    HW1 5293   5.611   4.136   3.842
67820SOL    HW2 5294   5.649   3.994   3.806
67821SOL     OW 5295  10.232   5.655   2.650
67821SOL    HW1 5296  10.295   5.591   2.616
67821SOL    HW2 5297  10.264   5.739   2.617
67822SOL     OW 5298  14.509  13.472   7.883
67822SOL    HW1 5299  14.465  13.557   7.896
67822SOL    HW2 5300  14.449  13.408   7.922
67823SOL     OW 5301  11.029   2.578  14.258
67823SOL    HW1 5302  11.123   2.584  14.275
67823SOL    HW2 5303  10.992   2.658  14.296
67824SOL     OW 5304   3.528   8.795   5.666
67824SOL    HW1 5305   3.596   8.776   5.600
67824SOL    HW2 5306   3.534   8.722   5.728
67825SOL     OW 5307  13.356  12.964   9.267
67825SOL    HW1 5308  13.273  12.940   9.227
67825SOL    HW2 5309  13.372  12.894   9.331
67826SOL     OW 5310  12.230   3.619   6.860
67826SOL    HW1 5311  12.182   3.567   6.796
67826SOL    HW2 5312  12.222   3.709   6.830
67827SOL     OW 5313  10.749   6.989  14.032
67827SOL    HW1 5314  10.732   6.980  14.125
67827SOL    HW2 5315  10.844   6.978  14.024
67828SOL     OW 5316  11.125  12.590   4.488
67828SOL    HW1 5317  11.051  12.612   4.545
67828SOL    HW2 5318  11.087  12.589   4.400
67829SOL     OW 5319   2.110   7.024   9.761
67829SOL    HW1 5320   2.140   6.933   9.759
67829SOL    HW2 5321   2.099   7.044   9.854
67830SOL     OW 5322   5.557  13.513   1.425
67830SOL    HW1 5323   5.502  13.553   1.359
67830SOL    HW2 5324   5.581  13.428   1.388
67831SOL     OW 5325   2.428   9.725   9.429
67831SOL    HW1 5326   2.506   9.762   9.387
67831SOL    HW2 5327   2.447   9.631   9.436
67832SOL     OW 5328   3.257  14.180   9.055
67832SOL    HW1 5329   3.311  14.175   8.976
67832SOL    HW2 5330   3.180  14.231   9.028
67833SOL     OW 5331  10.787   1.461   5.457
67833SOL    HW1 5332  10.847   1.434   5.527
67833SOL    HW2 5333  10.721   1.515   5.502
67834SOL     OW 5334  13.924   2.972  12.029
67834SOL    HW1 5335  14.019   2.971  12.037
67834SOL    HW2 5336  13.906   2.930  11.945
67835SOL     OW 5337   8.072   4.826   4.530
67835SOL    HW1 5338   8.049   4.885   4.459
67835SOL    HW2 5339   8.120   4.881   4.592
67836SOL     OW 5340  12.171   8.366   4.160
67836SOL    HW1 5341  12.132   8.279   4.158
67836SOL    HW2 5342  12.165   8.397   4.070
67837SOL     OW 5343  14.059  12.089  14.079
67837SOL    HW1 5344  14.104  12.047  14.006
67837SOL    HW2 5345  14.080  12.035  14.155
67838SOL     OW 5346   9.381   2.576   9.053
67838SOL    HW1 5347   9.352   2.574   8.962
67838SOL    HW2 5348   9.414   2.665   9.065
67839SOL     OW 5349   6.860  11.193   5.711
67839SOL    HW1 5350   6.768  11.193   5.683
67839SOL    HW2 5351   6.865  11.122   5.775
67840SOL     OW 5352  12.391  11.343  14.149
67840SOL    HW1 5353  12.332  11.267  14.154
67840SOL    HW2 5354  12.440  11.329  14.067
67841SOL     OW 5355  10.939  13.909   2.808
67841SOL    HW1 5356  10.979  13.968   2.872
67841SOL    HW2 5357  10.880  13.854   2.860
67842SOL     OW 5358   6.508   1.660  10.080
67842SOL    HW1 5359   6.466   1.656   9.994
67842SOL    HW2 5360   6.525   1.753  10.094
67843SOL     OW 5361   9.458   2.506  11.051
67843SOL    HW1 5362   9.365   2.501  11.030
67843SOL    HW2 5363   9.471   2.437  11.116
67844SOL     OW 5364   5.545   1.863   6.005
67844SOL    HW1 5365   5.518   1.937   6.060
67844SOL    HW2 5366   5.471   1.849   5.946
67845SOL     OW 5367  11.173  13.206  12.871
67845SOL    HW1 5368  11.079  13.188  12.879
67845SOL    HW2 5369  11.178  13.290  12.826
67846SOL     OW 5370  14.785  12.355   7.802
67846SOL    HW1 5371  14.710  12.413   7.791
67846SOL    HW2 5372  14.839  12.399   7.868
67847SOL     OW 5373   6.892  11.101  12.490
67847SOL    HW1 5374   6.943  11.181  12.476
67847SOL    HW2 5375   6.957  11.035  12.515
67848SOL     OW 5376   1.898  14.177  13.844
67848SOL    HW1 5377   1.847  14.097  13.856
67848SOL    HW2 5378   1.852  14.243  13.896
67849SOL     OW 5379   9.828   4.134  13.732
67849SOL    HW1 5380   9.861   4.219  13.759
67849SOL    HW2 5381   9.848   4.076  13.805
67850SOL     OW 5382   4.069   8.958   3.953
67850SOL    HW1 5383   4.072   9.000   4.039
67850SOL    HW2 5384   4.099   9.026   3.892
67851SOL     OW 5385   4.813  14.849  11.785
67851SOL    HW1 5386   4.757  14.790  11.835
67851SOL    HW2 5387   4.897  14.804  11.778
67852SOL     OW 5388   1.371   6.890   5.874
67852SOL    HW1 5389   1.388   6.814   5.819
67852SOL    HW2 5390   1.372   6.856   5.963
67853SOL     OW 5391   6.131   4.584  11.450
67853SOL    HW1 5392   6.222   4.613  11.455
67853SOL    HW2 5393   6.081   4.665  11.435
67854SOL     OW 5394   9.959   3.607  11.792
67854SOL    HW1 5395   9.952   3.514  11.814
67854SOL    HW2 5396  10.037   3.612  11.736
67855SOL     OW 5397   7.720  11.768   7.269
67855SOL    HW1 5398   7.805  11.805   7.292
67855SOL    HW2 5399   7.727  11.746   7.177
67856SOL     OW 5400  11.678   9.642  10.316
67856SOL    HW1 5401  11.688   9.625  10.223
67856SOL    HW2 5402  11.768   9.649  10.349
67857SOL     OW 5403   0.956   2.666  13.266
67857SOL    HW1 5404   0.985   2.586  13.309
67857SOL    HW2 5405   0.991   2.659  13.177
67858SOL     OW 5406   6.579   9.666   8.626
67858SOL    HW1 5407   6.646   9.731   8.605
67858SOL    HW2 5408   6.609   9.626   8.707
67859SOL     OW 5409   6.304   9.261  12.159
67859SOL    HW1 5410   6.298   9.180  12.107
67859SOL    HW2 5411   6.379   9.307  12.122
67860SOL     OW 5412   4.794   2.857   5.143
67860SOL    HW1 5413   4.800   2.773   5.188
67860SOL    HW2 5414   4.839   2.843   5.059
67861SOL     OW 5415   6.939   6.866   2.944
67861SOL    HW1 5416   7.000   6.857   2.870
67861SOL    HW2 5417   6.901   6.779   2.954
67862SOL     OW 5418  11.829  14.104   8.246
67862SOL    HW1 5419  11.860  14.073   8.161
67862SOL    HW2 5420  11.892  14.170   8.273
67863SOL     OW 5421  14.325   9.145   4.022
67863SOL    HW1 5422  14.401   9.175   3.973
67863SOL    HW2 5423  14.274   9.224   4.038
67864SOL     OW 5424   8.951  12.129   7.823
67864SOL    HW1 5425   8.919  12.138   7.913
67864SOL    HW2 5426   9.013  12.201   7.812
67865SOL     OW 5427  12.617   0.068   0.119
67865SOL    HW1 5428  12.593   0.142   0.175
67865SOL    HW2 5429  12.593   0.095   0.031
67866SOL     OW 5430  11.032   7.792   3.592
67866SOL    HW1 5431  11.084   7.864   3.628
67866SOL    HW2 5432  11.066   7.714   3.636
67867SOL     OW 5433  11.952  10.438   2.516
67867SOL    HW1 5434  11.888  10.499   2.553
67867SOL    HW2 5435  12.027  10.443   2.574
67868SOL     OW 5436   5.336   5.410  10.093
67868SOL    HW1 5437   5.423   5.436  10.123
67868SOL    HW2 5438   5.278   5.479  10.127
67869SOL     OW 5439  13.304  12.358   7.715
67869SOL    HW1 5440  13.376  12.311   7.673
67869SOL    HW2 5441  13.266  12.413   7.646
67870SOL     OW 5442   7.377  14.099  14.653
67870SOL    HW1 5443   7.341  14.167  14.596
67870SOL    HW2 5444   7.465  14.083  14.618
67871SOL     OW 5445   6.131   7.530   1.469
67871SOL    HW1 5446   6.184   7.555   1.394
67871SOL    HW2 5447   6.090   7.447   1.444
67872SOL     OW 5448   9.307  13.694   8.428
67872SOL    HW1 5449   9.373  13.679   8.495
67872SOL    HW2 5450   9.281  13.606   8.399
67873SOL     OW 5451  10.538  13.203  13.308
67873SOL    HW1 5452  10.500  13.191  13.395
67873SOL    HW2 5453  10.596  13.128  13.297
67874SOL     OW 5454  13.829   5.838   4.485
67874SOL    HW1 5455  13.780   5.830   4.567
67874SOL    HW2 5456  13.808   5.759   4.436
67875SOL     OW 5457  10.667   1.779  11.548
67875SOL    HW1 5458  10.641   1.820  11.631
67875SOL    HW2 5459  10.604   1.709  11.536
67876SOL     OW 5460   1.540   9.680   9.881
67876SOL    HW1 5461   1.546   9.653   9.790
67876SOL    HW2 5462   1.573   9.770   9.882
67877SOL     OW 5463  11.249   3.067   6.408
67877SOL    HW1 5464  11.256   3.156   6.441
67877SOL    HW2 5465  11.335   3.049   6.369
67878SOL     OW 5466  10.185   5.932   6.485
67878SOL    HW1 5467  10.205   6.026   6.486
67878SOL    HW2 5468  10.255   5.892   6.537
67879SOL     OW 5469   1.553  14.625   8.238
67879SOL    HW1 5470   1.606  14.677   8.299
67879SOL    HW2 5471   1.512  14.690   8.181
67880SOL     OW 5472   1.076  10.151   3.959
67880SOL    HW1 5473   1.172  10.155   3.955
67880SOL    HW2 5474   1.051  10.095   3.886
67881SOL     OW 5475   9.287   0.946  12.237
67881SOL    HW1 5476   9.298   0.857  12.205
67881SOL    HW2 5477   9.372   0.988  12.220
67882SOL     OW 5478   9.898   6.912   0.919
67882SOL    HW1 5479   9.914   6.970   0.994
67882SOL    HW2 5480   9.919   6.824   0.952
67883SOL     OW 5481   9.081  13.447   1.474
67883SOL    HW1 5482   9.038  13.494   1.403
67883SOL    HW2 5483   9.009  13.424   1.534
67884SOL     OW 5484  10.454  11.197   2.918
67884SOL    HW1 5485  10.411  11.115   2.895
67884SOL    HW2 5486  10.409  11.263   2.865
67885SOL     OW 5487  13.165   7.919   8.279
67885SOL    HW1 5488  13.161   7.829   8.312
67885SOL    HW2 5489  13.133   7.973   8.352
67886SOL     OW 5490   8.514   1.493   6.352
67886SOL    HW1 5491   8.596   1.468   6.310
67886SOL    HW2 5492   8.519   1.589   6.357
67887SOL     OW 5493   7.478  11.684   7.316
67887SOL    HW1 5494   7.462  11.680   7.410
67887SOL    HW2 5495   7.558  11.737   7.307
67888SOL     OW 5496   8.041   1.234   2.735
67888SOL    HW1 5497   7.949   1.244   2.711
67888SOL    HW2 5498   8.062   1.143   2.712
67889SOL     OW 5499   1.796   1.563   0.197
67889SOL    HW1 5500   1.845   1.519   0.127
67889SOL    HW2 5501   1.864   1.602   0.252
67890SOL     OW 5502   2.469  14.192   6.729
67890SOL    HW1 5503   2.421  14.257   6.780
67890SOL    HW2 5504   2.560  14.204   6.756
67891SOL     OW 5505   2.008  13.204  14.085
67891SOL    HW1 5506   2.102  13.188  14.079
67891SOL    HW2 5507   1.982  13.165  14.168
67892SOL     OW 5508  13.903  14.263   7.959
67892SOL    HW1 5509  13.814  14.290   7.981
67892SOL    HW2 5510  13.936  14.223   8.039
67893SOL     OW 5511  13.537   7.375   0.981
67893SOL    HW1 5512  13.508   7.336   0.899
67893SOL    HW2 5513  13.464   7.432   1.007
67894SOL     OW 5514  10.106   2.540   5.586
67894SOL    HW1 5515  10.102   2.549   5.491
67894SOL    HW2 5516  10.142   2.623   5.617
67895SOL     OW 5517  10.817   0.008   8.319
67895SOL    HW1 5518  10.876   0.042   8.387
67895SOL    HW2 5519  10.845   0.050   8.239
67896SOL     OW 5520   6.794   2.459   8.347
67896SOL    HW1 5521   6.754   2.382   8.305
67896SOL    HW2 5522   6.814   2.430   8.436
67897SOL     OW 5523  13.269  14.538  13.419
67897SOL    HW1 5524  13.232  14.549  13.331
67897SOL    HW2 5525  13.202  14.490  13.467
67898SOL     OW 5526   2.926  10.325  12.197
67898SOL    HW1 5527   2.901  10.233  12.203
67898SOL    HW2 5528   2.924  10.357  12.287
67899SOL     OW 5529   3.886   9.004   5.781
67899SOL    HW1 5530   3.804   9.038   5.815
67899SOL    HW2 5531   3.912   9.067   5.713
67900SOL     OW 5532   9.187   3.056  13.441
67900SOL    HW1 5533   9.261   3.039  13.383
67900SOL    HW2 5534   9.115   3.007  13.403
67901SOL     OW 5535   2.989  11.025  10.077
67901SOL    HW1 5536   2.947  11.108  10.099
67901SOL    HW2 5537   3.079  11.050  10.054
67902SOL     OW 5538   9.016   9.293   3.484
67902SOL    HW1 5539   9.040   9.206   3.515
67902SOL    HW2 5540   9.093   9.347   3.505
67903SOL     OW 5541  10.433   5.059   2.669
67903SOL    HW1 5542  10.359   5.119   2.673
67903SOL    HW2 5543  10.508   5.115   2.649
67904SOL     OW 5544   6.925  13.927   9.453
67904SOL    HW1 5545   6.993  13.868   9.421
67904SOL    HW2 5546   6.870  13.943   9.376
67905SOL     OW 5547   8.940   3.225   2.247
67905SOL    HW1 5548   8.919   3.201   2.337
67905SOL    HW2 5549   9.014   3.169   2.224
67906SOL     OW 5550   0.594  10.191   3.795
67906SOL    HW1 5551   0.600  10.207   3.701
67906SOL    HW2 5552   0.683  10.167   3.822
67907SOL     OW 5553  10.944  12.994   7.703
67907SOL    HW1 5554  10.984  12.994   7.616
67907SOL    HW2 5555  10.947  13.086   7.731
67908SOL     OW 5556   2.591   2.743   6.229
67908SOL    HW1 5557   2.513   2.746   6.284
67908SOL    HW2 5558   2.604   2.650   6.211
67909SOL     OW 5559   3.657   3.992   4.021
67909SOL    HW1 5560   3.719   3.940   3.969
67909SOL    HW2 5561   3.573   3.948   4.008
67910SOL     OW 5562  14.052   9.060   3.111
67910SOL    HW1 5563  13.963   9.053   3.077
67910SOL    HW2 5564  14.082   8.970   3.119
67911SOL     OW 5565  11.332   6.295   7.382
67911SOL    HW1 5566  11.377   6.292   7.298
67911SOL    HW2 5567  11.241   6.272   7.361
67912SOL     OW 5568   3.919   6.939   4.894
67912SOL    HW1 5569   3.863   6.866   4.922
67912SOL    HW2 5570   3.922   6.997   4.970
67913SOL     OW 5571   9.981   9.349   0.472
67913SOL    HW1 5572   9.926   9.312   0.403
67913SOL    HW2 5573  10.015   9.274   0.519
67914SOL     OW 5574  14.020  11.971  14.838
67914SOL    HW1 5575  14.013  11.883   0.004
67914SOL    HW2 5576  13.953  12.022   0.011
67915SOL     OW 5577   9.610   6.472   2.491
67915SOL    HW1 5578   9.617   6.432   2.578
67915SOL    HW2 5579   9.581   6.561   2.508
67916SOL     OW 5580   5.554  13.605   3.865
67916SOL    HW1 5581   5.462  13.586   3.886
67916SOL    HW2 5582   5.603  13.548   3.924
67917SOL     OW 5583  12.130   7.741   7.367
67917SOL    HW1 5584  12.224   7.730   7.384
67917SOL    HW2 5585  12.088   7.679   7.427
67918SOL     OW 5586   5.185  11.281   0.091
67918SOL    HW1 5587   5.195  11.237   0.175
67918SOL    HW2 5588   5.245  11.234   0.032
67919SOL     OW 5589  14.522   1.687   7.394
67919SOL    HW1 5590  14.484   1.758   7.445
67919SOL    HW2 5591  14.501   1.608   7.444
67920SOL     OW 5592  12.752   8.568  11.125
67920SOL    HW1 5593  12.721   8.573  11.216
67920SOL    HW2 5594  12.707   8.492  11.089
67921SOL     OW 5595   4.149   7.895   7.488
67921SOL    HW1 5596   4.128   7.856   7.573
67921SOL    HW2 5597   4.142   7.822   7.426
67922SOL     OW 5598   6.981   7.965   6.543
67922SOL    HW1 5599   6.887   7.951   6.526
67922SOL    HW2 5600   6.988   7.969   6.638
67923SOL     OW 5601   8.574   9.209   0.111
67923SOL    HW1 5602   8.638   9.175   0.175
67923SOL    HW2 5603   8.627   9.257   0.047
67924SOL     OW 5604   3.014   4.597   1.776
67924SOL    HW1 5605   3.090   4.639   1.815
67924SOL    HW2 5606   2.940   4.626   1.830
67925SOL     OW 5607   6.390   0.250  10.710
67925SOL    HW1 5608   6.361   0.270  10.799
67925SOL    HW2 5609   6.484   0.270  10.710
67926SOL     OW 5610   4.516   8.659   3.161
67926SOL    HW1 5611   4.603   8.623   3.144
67926SOL    HW2 5612   4.455   8.589   3.139
67927SOL     OW 5613   3.361  10.629   0.436
67927SOL    HW1 5614   3.379  10.616   0.529
67927SOL    HW2 5615   3.337  10.542   0.404
67928SOL     OW 5616   0.497   8.335  11.670
67928SOL    HW1 5617   0.549   8.373  11.600
67928SOL    HW2 5618   0.416   8.387  11.671
67929SOL     OW 5619   0.754   3.710   3.090
67929SOL    HW1 5620   0.758   3.619   3.061
67929SOL    HW2 5621   0.821   3.754   3.036
67930SOL     OW 5622  12.479   0.245  13.803
67930SOL    HW1 5623  12.542   0.232  13.874
67930SOL    HW2 5624  12.531   0.246  13.723
67931SOL     OW 5625  12.593  14.472   6.141
67931SOL    HW1 5626  12.561  14.487   6.230
67931SOL    HW2 5627  12.550  14.391   6.113
67932SOL     OW 5628   4.927   3.312   2.312
67932SOL    HW1 5629   4.903   3.222   2.290
67932SOL    HW2 5630   5.020   3.307   2.335
67933SOL     OW 5631   2.008   6.292  12.404
67933SOL    HW1 5632   2.011   6.204  12.365
67933SOL    HW2 5633   2.092   6.302  12.447
67934SOL     OW 5634   2.732   3.813  10.207
67934SOL    HW1 5635   2.797   3.837  10.140
67934SOL    HW2 5636   2.741   3.881  10.274
67935SOL     OW 5637  10.758  13.629  11.064
67935SOL    HW1 5638  10.771  13.707  11.010
67935SOL    HW2 5639  10.841  13.618  11.111
67936SOL     OW 5640   2.211   9.345   0.746
67936SOL    HW1 5641   2.218   9.250   0.757
67936SOL    HW2 5642   2.132   9.369   0.794
67937SOL     OW 5643   7.121  14.414   2.918
67937SOL    HW1 5644   7.045  14.395   2.973
67937SOL    HW2 5645   7.103  14.501   2.883
67938SOL     OW 5646  11.012   8.439  10.700
67938SOL    HW1 5647  11.065   8.516  10.683
67938SOL    HW2 5648  10.962   8.461  10.779
67939SOL     OW 5649   2.295   9.183   2.157
67939SOL    HW1 5650   2.240   9.204   2.081
67939SOL    HW2 5651   2.334   9.266   2.182
67940SOL     OW 5652  11.099   3.226   7.878
67940SOL    HW1 5653  11.042   3.285   7.829
67940SOL    HW2 5654  11.083   3.140   7.840
67941SOL     OW 5655   8.544  14.790  14.797
67941SOL    HW1 5656   8.640  14.787  14.788
67941SOL    HW2 5657   8.529  14.788   0.018
67942SOL     OW 5658   6.100   5.041   0.079
67942SOL    HW1 5659   6.119   4.982   0.005
67942SOL    HW2 5660   6.170   5.106   0.076
67943SOL     OW 5661  13.584  12.602   2.739
67943SOL    HW1 5662  13.612  12.658   2.811
67943SOL    HW2 5663  13.532  12.659   2.683
67944SOL     OW 5664  10.454   6.098  10.125
67944SOL    HW1 5665  10.365   6.101  10.159
67944SOL    HW2 5666  10.453   6.027  10.061
67945SOL     OW 5667   2.638   7.087  14.547
67945SOL    HW1 5668   2.551   7.121  14.568
67945SOL    HW2 5669   2.654   7.116  14.457
67946SOL     OW 5670   8.577   3.181   5.058
67946SOL    HW1 5671   8.599   3.098   5.099
67946SOL    HW2 5672   8.501   3.162   5.002
67947SOL     OW 5673   8.000   9.490   9.289
67947SOL    HW1 5674   7.989   9.534   9.205
67947SOL    HW2 5675   7.914   9.451   9.308
67948SOL     OW 5676  10.520   6.915   9.905
67948SOL    HW1 5677  10.562   6.956   9.829
67948SOL    HW2 5678  10.484   6.989   9.954
67949SOL     OW 5679   5.705   3.652  14.426
67949SOL    HW1 5680   5.679   3.570  14.385
67949SOL    HW2 5681   5.800   3.644  14.437
67950SOL     OW 5682   1.885  12.501   4.289
67950SOL    HW1 5683   1.792  12.520   4.287
67950SOL    HW2 5684   1.909  12.485   4.197
67951SOL     OW 5685   3.189   6.334  10.312
67951SOL    HW1 5686   3.201   6.274  10.386
67951SOL    HW2 5687   3.172   6.277  10.237
67952SOL     OW 5688   2.644  10.870  10.926
67952SOL    HW1 5689   2.553  10.898  10.932
67952SOL    HW2 5690   2.640  10.776  10.906
67953SOL     OW 5691  12.566  12.049  14.554
67953SOL    HW1 5692  12.516  12.125  14.583
67953SOL    HW2 5693  12.546  12.043  14.460
67954SOL     OW 5694   0.021   7.178   2.466
67954SOL    HW1 5695   0.078   7.145   2.397
67954SOL    HW2 5696  14.809   7.135   2.451
67955SOL     OW 5697   1.294  10.253   6.206
67955SOL    HW1 5698   1.257  10.337   6.231
67955SOL    HW2 5699   1.316  10.210   6.289
67956SOL     OW 5700   6.282   7.436  11.747
67956SOL    HW1 5701   6.336   7.508  11.779
67956SOL    HW2 5702   6.344   7.369  11.721
67957SOL     OW 5703   3.898  10.394  14.175
67957SOL    HW1 5704   3.863  10.465  14.228
67957SOL    HW2 5705   3.917  10.434  14.090
67958SOL     OW 5706  12.921   3.334  11.660
67958SOL    HW1 5707  13.000   3.387  11.665
67958SOL    HW2 5708  12.941   3.256  11.711
67959SOL     OW 5709  11.605   3.556   8.002
67959SOL    HW1 5710  11.698   3.574   7.987
67959SOL    HW2 5711  11.595   3.463   7.983
67960SOL     OW 5712   4.482   6.704  11.893
67960SOL    HW1 5713   4.563   6.698  11.842
67960SOL    HW2 5714   4.504   6.666  11.978
67961SOL     OW 5715  11.645   9.917   6.794
67961SOL    HW1 5716  11.613   9.851   6.733
67961SOL    HW2 5717  11.661   9.869   6.875
67962SOL     OW 5718   9.959   0.142   4.918
67962SOL    HW1 5719  10.012   0.091   4.979
67962SOL    HW2 5720   9.935   0.221   4.966
67963SOL     OW 5721   8.946   1.119   8.755
67963SOL    HW1 5722   8.943   1.054   8.825
67963SOL    HW2 5723   8.909   1.073   8.679
67964SOL     OW 5724   7.922  12.802  10.582
67964SOL    HW1 5725   7.836  12.832  10.612
67964SOL    HW2 5726   7.980  12.876  10.597
67965SOL     OW 5727   3.358   5.459  11.512
67965SOL    HW1 5728   3.346   5.427  11.602
67965SOL    HW2 5729   3.443   5.503  11.514
67966SOL     OW 5730  10.009   7.747   3.605
67966SOL    HW1 5731  10.006   7.841   3.624
67966SOL    HW2 5732  10.030   7.706   3.689
67967SOL     OW 5733  10.686   7.592   0.046
67967SOL    HW1 5734  10.768   7.635   0.072
67967SOL    HW2 5735  10.624   7.615   0.115
67968SOL     OW 5736   0.834   7.432   8.886
67968SOL    HW1 5737   0.743   7.442   8.916
67968SOL    HW2 5738   0.854   7.340   8.904
67969SOL     OW 5739   6.674   1.920  11.099
67969SOL    HW1 5740   6.680   1.836  11.054
67969SOL    HW2 5741   6.591   1.958  11.070
67970SOL     OW 5742   2.869   6.998  14.120
67970SOL    HW1 5743   2.938   7.057  14.148
67970SOL    HW2 5744   2.814   7.050  14.062
67971SOL     OW 5745   2.782  14.078  11.756
67971SOL    HW1 5746   2.775  14.046  11.846
67971SOL    HW2 5747   2.693  14.073  11.721
67972SOL     OW 5748   1.354   7.972  11.526
67972SOL    HW1 5749   1.360   7.904  11.458
67972SOL    HW2 5750   1.328   8.051  11.479
67973SOL     OW 5751   8.997   8.160   0.938
67973SOL    HW1 5752   8.974   8.226   1.003
67973SOL    HW2 5753   8.962   8.078   0.972
67974SOL     OW 5754   3.849  13.335   2.289
67974SOL    HW1 5755   3.763  13.362   2.258
67974SOL    HW2 5756   3.908  13.406   2.262
67975SOL     OW 5757  11.218   3.947   2.909
67975SOL    HW1 5758  11.228   4.026   2.961
67975SOL    HW2 5759  11.180   3.976   2.826
67976SOL     OW 5760   9.398   1.260   8.123
67976SOL    HW1 5761   9.402   1.165   8.121
67976SOL    HW2 5762   9.483   1.287   8.160
67977SOL     OW 5763  14.520   1.490   2.518
67977SOL    HW1 5764  14.595   1.522   2.468
67977SOL    HW2 5765  14.522   1.540   2.600
67978SOL     OW 5766  12.760  10.464  11.824
67978SOL    HW1 5767  12.675  10.467  11.868
67978SOL    HW2 5768  12.771  10.372  11.800
67979SOL     OW 5769   5.501   5.040   7.505
67979SOL    HW1 5770   5.468   5.011   7.420
67979SOL    HW2 5771   5.557   4.968   7.535
67980SOL     OW 5772  14.553   3.422   7.888
67980SOL    HW1 5773  14.493   3.371   7.834
67980SOL    HW2 5774  14.630   3.435   7.833
67981SOL     OW 5775  10.596   9.051  13.216
67981SOL    HW1 5776  10.668   9.109  13.239
67981SOL    HW2 5777  10.532   9.063  13.286
67982SOL     OW 5778   0.608  12.535   0.694
67982SOL    HW1 5779   0.566  12.451   0.713
67982SOL    HW2 5780   0.632  12.569   0.780
67983SOL     OW 5781  13.459  11.220   7.839
67983SOL    HW1 5782  13.465  11.260   7.752
67983SOL    HW2 5783  13.549  11.208   7.867
67984SOL     OW 5784   6.191   1.224  14.651
67984SOL    HW1 5785   6.258   1.267  14.705
67984SOL    HW2 5786   6.237   1.154  14.606
67985SOL     OW 5787   3.098  14.228   5.667
67985SOL    HW1 5788   3.035  14.175   5.617
67985SOL    HW2 5789   3.184  14.196   5.639
67986SOL     OW 5790  11.997   4.854   7.712
67986SOL    HW1 5791  12.034   4.931   7.670
67986SOL    HW2 5792  12.068   4.789   7.711
67987SOL     OW 5793  13.754   6.422   1.477
67987SOL    HW1 5794  13.659   6.417   1.468
67987SOL    HW2 5795  13.772   6.514   1.495
67988SOL     OW 5796   9.571   9.311   9.914
67988SOL    HW1 5797   9.478   9.294   9.905
67988SOL    HW2 5798   9.610   9.226   9.933
67989SOL     OW 5799   2.948   3.847   9.310
67989SOL    HW1 5800   2.887   3.915   9.339
67989SOL    HW2 5801   3.033   3.875   9.345
67990SOL     OW 5802   2.452   3.793   0.660
67990SOL    HW1 5803   2.387   3.733   0.696
67990SOL    HW2 5804   2.412   3.827   0.580
67991SOL     OW 5805   7.045   1.333   9.318
67991SOL    HW1 5806   7.117   1.315   9.258
67991SOL    HW2 5807   6.972   1.281   9.285
67992SOL     OW 5808  10.641  11.398  12.363
67992SOL    HW1 5809  10.718  11.390  12.420
67992SOL    HW2 5810  10.602  11.311  12.364
67993SOL     OW 5811   6.014  11.051   0.121
67993SOL    HW1 5812   6.012  11.051   0.025
67993SOL    HW2 5813   6.103  11.078   0.143
67994SOL     OW 5814   0.574   7.489   9.010
67994SOL    HW1 5815   0.595   7.398   9.033
67994SOL    HW2 5816   0.525   7.521   9.085
67995SOL     OW 5817  11.783   7.077  13.126
67995SOL    HW1 5818  11.802   7.077  13.219
67995SOL    HW2 5819  11.860   7.117  13.086
67996SOL     OW 5820  13.697  10.902  12.383
67996SOL    HW1 5821  13.727  10.827  12.331
67996SOL    HW2 5822  13.616  10.930  12.340
67997SOL     OW 5823   1.620  11.710  12.521
67997SOL    HW1 5824   1.699  11.689  12.472
67997SOL    HW2 5825   1.651  11.725  12.611
67998SOL     OW 5826   8.372   2.729   7.955
67998SOL    HW1 5827   8.330   2.811   7.980
67998SOL    HW2 5828   8.453   2.728   8.005
67999SOL     OW 5829   5.152   1.874   6.403
67999SOL    HW1 5830   5.139   1.800   6.343
67999SOL    HW2 5831   5.076   1.871   6.461
68000SOL     OW 5832  13.979   1.672   5.051
68000SOL    HW1 5833  13.985   1.763   5.024
68000SOL    HW2 5834  14.025   1.668   5.135
68001SOL     OW 5835   5.350  13.959   6.963
68001SOL    HW1 5836   5.303  13.900   7.023
68001SOL    HW2 5837   5.441  13.933   6.970
68002SOL     OW 5838   2.646   0.987   8.820
68002SOL    HW1 5839   2.610   1.055   8.878
68002SOL    HW2 5840   2.675   0.918   8.880
68003SOL     OW 5841  10.841  12.411   1.492
68003SOL    HW1 5842  10.750  12.410   1.461
68003SOL    HW2 5843  10.884  12.478   1.438
68004SOL     OW 5844   8.817   3.434   1.935
68004SOL    HW1 5845   8.882   3.421   2.003
68004SOL    HW2 5846   8.820   3.353   1.883
68005SOL     OW 5847   0.292   7.899  14.504
68005SOL    HW1 5848   0.300   7.985  14.463
68005SOL    HW2 5849   0.205   7.900  14.545
68006SOL     OW 5850  12.828   6.400   7.110
68006SOL    HW1 5851  12.775   6.438   7.040
68006SOL    HW2 5852  12.764   6.370   7.175
68007SOL     OW 5853   3.574   4.859   5.782
68007SOL    HW1 5854   3.549   4.799   5.711
68007SOL    HW2 5855   3.662   4.888   5.759
68008SOL     OW 5856   5.152   9.371  11.668
68008SOL    HW1 5857   5.128   9.447  11.720
68008SOL    HW2 5858   5.245   9.381  11.652
68009SOL     OW 5859   5.739   9.200  14.595
68009SOL    HW1 5860   5.822   9.230  14.558
68009SOL    HW2 5861   5.672   9.248  14.547
68010SOL     OW 5862   9.544   9.721   1.542
68010SOL    HW1 5863   9.519   9.661   1.473
68010SOL    HW2 5864   9.638   9.706   1.555
68011SOL     OW 5865  13.985   0.582   5.485
68011SOL    HW1 5866  14.033   0.607   5.564
68011SOL    HW2 5867  14.049   0.592   5.414
68012SOL     OW 5868  14.574   5.438   8.125
68012SOL    HW1 5869  14.557   5.485   8.044
68012SOL    HW2 5870  14.493   5.446   8.175
68013SOL     OW 5871   8.495  10.968   4.120
68013SOL    HW1 5872   8.528  11.031   4.056
68013SOL    HW2 5873   8.497  11.016   4.203
68014SOL     OW 5874   5.380   1.151   6.079
68014SOL    HW1 5875   5.356   1.172   5.988
68014SOL    HW2 5876   5.441   1.078   6.071
68015SOL     OW 5877   6.999  11.785   8.179
68015SOL    HW1 5878   7.005  11.726   8.104
68015SOL    HW2 5879   6.918  11.759   8.224
68016SOL     OW 5880   6.604  12.111   1.715
68016SOL    HW1 5881   6.595  12.029   1.765
68016SOL    HW2 5882   6.698  12.118   1.698
68017SOL     OW 5883   5.191  11.701  13.851
68017SOL    HW1 5884   5.281  11.699  13.884
68017SOL    HW2 5885   5.182  11.788  13.812
68018SOL     OW 5886  14.297   1.837  11.991
68018SOL    HW1 5887  14.210   1.797  11.997
68018SOL    HW2 5888  14.301   1.871  11.902
68019SOL     OW 5889   8.037   3.607   7.841
68019SOL    HW1 5890   7.989   3.553   7.778
68019SOL    HW2 5891   7.987   3.688   7.846
68020SOL     OW 5892   8.856   0.689   3.019
68020SOL    HW1 5893   8.934   0.642   2.990
68020SOL    HW2 5894   8.890   0.761   3.072
68021SOL     OW 5895  10.096   0.817  10.174
68021SOL    HW1 5896  10.103   0.894  10.231
68021SOL    HW2 5897  10.098   0.853  10.086
68022SOL     OW 5898   5.753   4.906   6.924
68022SOL    HW1 5899   5.820   4.966   6.956
68022SOL    HW2 5900   5.688   4.962   6.882
68023SOL     OW 5901   2.141   4.251   2.202
68023SOL    HW1 5902   2.137   4.341   2.170
68023SOL    HW2 5903   2.171   4.200   2.127
68024SOL     OW 5904  13.980   6.339   6.071
68024SOL    HW1 5905  14.026   6.410   6.116
68024SOL    HW2 5906  13.946   6.379   5.991
68025SOL     OW 5907   4.103   1.083   3.237
68025SOL    HW1 5908   4.160   1.126   3.301
68025SOL    HW2 5909   4.136   1.113   3.152
68026SOL     OW 5910  14.735  13.860   6.777
68026SOL    HW1 5911  14.695  13.804   6.710
68026SOL    HW2 5912  14.750  13.802   6.852
68027SOL     OW 5913  12.525  11.658  12.654
68027SOL    HW1 5914  12.489  11.609  12.581
68027SOL    HW2 5915  12.480  11.743  12.650
68028SOL     OW 5916   8.845   7.473   5.138
68028SOL    HW1 5917   8.781   7.404   5.125
68028SOL    HW2 5918   8.899   7.443   5.212
68029SOL     OW 5919  12.674   0.696   1.907
68029SOL    HW1 5920  12.585   0.729   1.915
68029SOL    HW2 5921  12.664   0.608   1.873
68030SOL     OW 5922   4.763   9.239   8.907
68030SOL    HW1 5923   4.852   9.268   8.930
68030SOL    HW2 5924   4.707   9.313   8.930
68031SOL     OW 5925   0.241   0.522   2.576
68031SOL    HW1 5926   0.188   0.458   2.622
68031SOL    HW2 5927   0.270   0.478   2.497
68032SOL     OW 5928  14.095   2.769   3.222
68032SOL    HW1 5929  14.075   2.824   3.297
68032SOL    HW2 5930  14.010   2.750   3.182
68033SOL     OW 5931   7.407   4.218   6.275
68033SOL    HW1 5932   7.319   4.194   6.248
68033SOL    HW2 5933   7.424   4.166   6.353
68034SOL     OW 5934   9.236   8.434   2.379
68034SOL    HW1 5935   9.293   8.429   2.303
68034SOL    HW2 5936   9.277   8.375   2.443
68035SOL     OW 5937   0.467   7.153  11.434
68035SOL    HW1 5938   0.518   7.135  11.355
68035SOL    HW2 5939   0.469   7.248  11.443
68036SOL     OW 5940  12.560   2.971   9.758
68036SOL    HW1 5941  12.551   3.066   9.752
68036SOL    HW2 5942  12.471   2.938   9.770
68037SOL     OW 5943   9.838  10.325   5.165
68037SOL    HW1 5944   9.924  10.354   5.135
68037SOL    HW2 5945   9.811  10.258   5.102
68038SOL     OW 5946  12.733   0.142  10.645
68038SOL    HW1 5947  12.697   0.057  10.670
68038SOL    HW2 5948  12.656   0.198  10.633
68039SOL     OW 5949  11.174   8.427   7.899
68039SOL    HW1 5950  11.214   8.459   7.980
68039SOL    HW2 5951  11.248   8.418   7.839
68040SOL     OW 5952   0.538  13.749   6.297
68040SOL    HW1 5953   0.501  13.673   6.343
68040SOL    HW2 5954   0.466  13.781   6.242
68041SOL     OW 5955   5.914   7.883   8.786
68041SOL    HW1 5956   5.918   7.949   8.718
68041SOL    HW2 5957   5.994   7.895   8.837
68042SOL     OW 5958  13.757   1.166   5.958
68042SOL    HW1 5959  13.760   1.140   6.050
68042SOL    HW2 5960  13.747   1.084   5.910
68043SOL     OW 5961   9.291  14.131   0.119
68043SOL    HW1 5962   9.335  14.202   0.073
68043SOL    HW2 5963   9.301  14.153   0.212
68044SOL     OW 5964   7.012   7.996   5.448
68044SOL    HW1 5965   6.972   7.939   5.383
68044SOL    HW2 5966   7.106   7.978   5.442
68045SOL     OW 5967  14.179  10.850   1.784
68045SOL    HW1 5968  14.108  10.804   1.829
68045SOL    HW2 5969  14.257  10.798   1.804
68046SOL     OW 5970   8.905   7.271  13.467
68046SOL    HW1 5971   8.853   7.332  13.520
68046SOL    HW2 5972   8.974   7.241  13.527
68047SOL     OW 5973   3.833  11.234  14.250
68047SOL    HW1 5974   3.899  11.165  14.243
68047SOL    HW2 5975   3.796  11.240  14.162
68048SOL     OW 5976   3.794  14.045  12.202
68048SOL    HW1 5977   3.735  14.080  12.134
68048SOL    HW2 5978   3.746  14.057  12.284
68049SOL     OW 5979   5.365   3.120   3.122
68049SOL    HW1 5980   5.421   3.045   3.104
68049SOL    HW2 5981   5.277   3.082   3.128
68050SOL     OW 5982  11.890  10.777   2.489
68050SOL    HW1 5983  11.825  10.720   2.529
68050SOL    HW2 5984  11.963  10.777   2.550
68051SOL     OW 5985   7.334  10.884   7.329
68051SOL    HW1 5986   7.278  10.941   7.382
68051SOL    HW2 5987   7.414  10.935   7.315
68052SOL     OW 5988   1.262   5.153   9.620
68052SOL    HW1 5989   1.338   5.200   9.655
68052SOL    HW2 5990   1.294   5.111   9.540
68053SOL     OW 5991  12.016  10.788   5.561
68053SOL    HW1 5992  11.962  10.862   5.589
68053SOL    HW2 5993  12.095  10.827   5.525
68054SOL     OW 5994   9.040   9.539   0.683
68054SOL    HW1 5995   9.078   9.535   0.596
68054SOL    HW2 5996   8.952   9.575   0.668
68055SOL     OW 5997  13.607   8.514  11.582
68055SOL    HW1 5998  13.639   8.467  11.505
68055SOL    HW2 5999  13.598   8.446  11.649
68056SOL     OW 6000  13.280  13.261   8.381
68056SOL    HW1 6001  13.192  13.246   8.415
68056SOL    HW2 6002  13.334  13.194   8.423
68057SOL     OW 6003  13.317   8.272   1.916
68057SOL    HW1 6004  13.244   8.219   1.885
68057SOL    HW2 6005  13.321   8.346   1.855
68058SOL     OW 6006   6.473   6.094   8.588
68058SOL    HW1 6007   6.393   6.050   8.558
68058SOL    HW2 6008   6.443   6.180   8.619
68059SOL     OW 6009  12.936   0.045   2.944
68059SOL    HW1 6010  13.020   0.040   2.898
68059SOL    HW2 6011  12.873   0.003   2.886
68060SOL     OW 6012   3.559   7.933   3.955
68060SOL    HW1 6013   3.476   7.901   3.919
68060SOL    HW2 6014   3.583   8.007   3.899
68061SOL     OW 6015  11.634   3.899   6.992
68061SOL    HW1 6016  11.591   3.984   6.980
68061SOL    HW2 6017  11.628   3.857   6.906
68062SOL     OW 6018   0.355   6.770  11.955
68062SOL    HW1 6019   0.385   6.754  12.044
68062SOL    HW2 6020   0.371   6.863  11.940
68063SOL     OW 6021  13.335   9.623   7.623
68063SOL    HW1 6022  13.315   9.660   7.536
68063SOL    HW2 6023  13.281   9.674   7.683
68064SOL     OW 6024   6.363  14.067  12.599
68064SOL    HW1 6025   6.346  14.112  12.516
68064SOL    HW2 6026   6.305  14.110  12.661
68065SOL     OW 6027   0.077  13.606  14.051
68065SOL    HW1 6028   0.023  13.544  14.001
68065SOL    HW2 6029   0.055  13.588  14.143
68066SOL     OW 6030   9.589   6.859  11.207
68066SOL    HW1 6031   9.519   6.795  11.219
68066SOL    HW2 6032   9.554   6.941  11.242
68067SOL     OW 6033   2.469  13.278  11.677
68067SOL    HW1 6034   2.459  13.205  11.738
68067SOL    HW2 6035   2.383  13.285  11.635
68068SOL     OW 6036   5.823   0.210   4.810
68068SOL    HW1 6037   5.808   0.122   4.845
68068SOL    HW2 6038   5.769   0.214   4.731
68069SOL     OW 6039   1.416  11.251  10.307
68069SOL    HW1 6040   1.498  11.205  10.325
68069SOL    HW2 6041   1.356  11.221  10.375
68070SOL     OW 6042  14.165   8.443   4.028
68070SOL    HW1 6043  14.159   8.529   3.986
68070SOL    HW2 6044  14.153   8.380   3.956
68071SOL     OW 6045   3.507  10.742   3.340
68071SOL    HW1 6046   3.539  10.707   3.256
68071SOL    HW2 6047   3.483  10.832   3.320
68072SOL     OW 6048   5.491  12.047  11.816
68072SOL    HW1 6049   5.549  12.035  11.741
68072SOL    HW2 6050   5.548  12.034  11.892
68073SOL     OW 6051   6.038  14.549   6.733
68073SOL    HW1 6052   6.045  14.485   6.662
68073SOL    HW2 6053   5.959  14.599   6.712
68074SOL     OW 6054   9.371  10.541  11.471
68074SOL    HW1 6055   9.401  10.462  11.426
68074SOL    HW2 6056   9.451  10.592  11.484
68075SOL     OW 6057  11.437  14.566  10.198
68075SOL    HW1 6058  11.441  14.518  10.280
68075SOL    HW2 6059  11.357  14.536  10.156
68076SOL     OW 6060  12.663   0.365   5.794
68076SOL    HW1 6061  12.619   0.301   5.737
68076SOL    HW2 6062  12.612   0.364   5.874
68077SOL     OW 6063   0.070  11.668   9.171
68077SOL    HW1 6064   0.139  11.732   9.186
68077SOL    HW2 6065   0.022  11.701   9.095
68078SOL     OW 6066  10.986   4.999  12.066
68078SOL    HW1 6067  10.915   5.058  12.090
68078SOL    HW2 6068  10.969   4.976  11.974
68079SOL     OW 6069   4.667   4.358   3.230
68079SOL    HW1 6070   4.576   4.368   3.203
68079SOL    HW2 6071   4.717   4.397   3.158
68080SOL     OW 6072   5.686   7.279   2.783
68080SOL    HW1 6073   5.755   7.317   2.837
68080SOL    HW2 6074   5.727   7.203   2.742
68081SOL     OW 6075   6.188   9.771   3.513
68081SOL    HW1 6076   6.199   9.711   3.439
68081SOL    HW2 6077   6.267   9.825   3.511
68082SOL     OW 6078   9.815  12.675  11.830
68082SOL    HW1 6079   9.750  12.648  11.893
68082SOL    HW2 6080   9.897  12.635  11.859
68083SOL     OW 6081   2.097   2.059  12.196
68083SOL    HW1 6082   2.189   2.036  12.188
68083SOL    HW2 6083   2.085   2.079  12.288
68084SOL     OW 6084   3.493   9.102  11.013
68084SOL    HW1 6085   3.509   9.041  10.940
68084SOL    HW2 6086   3.578   9.112  11.055
68085SOL     OW 6087   9.146   4.667   7.685
68085SOL    HW1 6088   9.195   4.619   7.752
68085SOL    HW2 6089   9.086   4.722   7.735
68086SOL     OW 6090   3.169  11.569   4.715
68086SOL    HW1 6091   3.223  11.620   4.654
68086SOL    HW2 6092   3.129  11.635   4.772
68087SOL     OW 6093  10.847   2.071  11.896
68087SOL    HW1 6094  10.796   1.995  11.869
68087SOL    HW2 6095  10.865   2.117  11.814
68088SOL     OW 6096  11.631  11.868  10.262
68088SOL    HW1 6097  11.714  11.829  10.287
68088SOL    HW2 6098  11.654  11.954  10.226
68089SOL     OW 6099   7.805   2.975   3.488
68089SOL    HW1 6100   7.784   3.040   3.421
68089SOL    HW2 6101   7.898   2.990   3.508
68090SOL     OW 6102   6.401   2.175  11.315
68090SOL    HW1 6103   6.317   2.130  11.310
68090SOL    HW2 6104   6.378   2.267  11.330
68091SOL     OW 6105  12.766   2.521   1.638
68091SOL    HW1 6106  12.852   2.548   1.673
68091SOL    HW2 6107  12.731   2.462   1.704
68092SOL     OW 6108   8.970  11.094  14.815
68092SOL    HW1 6109   9.006  11.008  14.837
68092SOL    HW2 6110   8.877  11.086  14.835
68093SOL     OW 6111   6.208   3.563  13.410
68093SOL    HW1 6112   6.248   3.508  13.343
68093SOL    HW2 6113   6.131   3.601  13.368
68094SOL     OW 6114   2.708   9.908   7.523
68094SOL    HW1 6115   2.697   9.995   7.484
68094SOL    HW2 6116   2.676   9.848   7.456
68095SOL     OW 6117   0.406   1.033  10.229
68095SOL    HW1 6118   0.392   1.123  10.197
68095SOL    HW2 6119   0.326   0.987  10.204
68096SOL     OW 6120  13.873   5.161  12.953
68096SOL    HW1 6121  13.964   5.139  12.973
68096SOL    HW2 6122  13.863   5.141  12.860
68097SOL     OW 6123   9.925  12.060  13.834
68097SOL    HW1 6124   9.873  12.141  13.833
68097SOL    HW2 6125  10.016  12.090  13.846
68098SOL     OW 6126   4.983   0.260  14.140
68098SOL    HW1 6127   4.894   0.295  14.144
68098SOL    HW2 6128   4.987   0.215  14.056
68099SOL     OW 6129  10.074  10.648  14.112
68099SOL    HW1 6130  10.098  10.630  14.021
68099SOL    HW2 6131  10.157  10.647  14.159
68100SOL     OW 6132   6.691  10.048   4.363
68100SOL    HW1 6133   6.620  10.111   4.349
68100SOL    HW2 6134   6.758  10.074   4.300
68101SOL     OW 6135   0.826   5.100   9.805
68101SOL    HW1 6136   0.890   5.097   9.734
68101SOL    HW2 6137   0.865   5.159   9.870
68102SOL     OW 6138   6.092   2.260  12.778
68102SOL    HW1 6139   6.033   2.192  12.746
68102SOL    HW2 6140   6.034   2.324  12.820
68103SOL     OW 6141  10.044   1.901   8.634
68103SOL    HW1 6142  10.019   1.908   8.726
68103SOL    HW2 6143  10.126   1.950   8.627
68104SOL     OW 6144   0.965  12.745   6.127
68104SOL    HW1 6145   0.962  12.768   6.034
68104SOL    HW2 6146   0.879  12.709   6.146
68105SOL     OW 6147  12.987   0.289   7.616
68105SOL    HW1 6148  12.945   0.244   7.690
68105SOL    HW2 6149  13.074   0.311   7.648
68106SOL     OW 6150   6.757   5.002  12.634
68106SOL    HW1 6151   6.688   5.013  12.569
68106SOL    HW2 6152   6.781   5.091  12.659
68107SOL     OW 6153   9.931   5.087   7.469
68107SOL    HW1 6154   9.957   5.179   7.473
68107SOL    HW2 6155   9.838   5.088   7.495
68108SOL     OW 6156   1.705   9.413  12.426
68108SOL    HW1 6157   1.655   9.478  12.475
68108SOL    HW2 6158   1.665   9.412  12.339
68109SOL     OW 6159  11.850  14.507   4.962
68109SOL    HW1 6160  11.843  14.573   4.893
68109SOL    HW2 6161  11.763  14.502   4.999
68110SOL     OW 6162  14.725   2.196   0.260
68110SOL    HW1 6163  14.690   2.187   0.349
68110SOL    HW2 6164  14.760   2.109   0.239
68111SOL     OW 6165   0.615   8.520   4.916
68111SOL    HW1 6166   0.657   8.508   4.831
68111SOL    HW2 6167   0.591   8.432   4.944
68112SOL     OW 6168  12.652   1.926   1.996
68112SOL    HW1 6169  12.621   1.995   2.055
68112SOL    HW2 6170  12.667   1.971   1.913
68113SOL     OW 6171   6.417   7.648   5.898
68113SOL    HW1 6172   6.382   7.663   5.810
68113SOL    HW2 6173   6.465   7.565   5.891
68114SOL     OW 6174   3.763   6.618  11.171
68114SOL    HW1 6175   3.839   6.560  11.176
68114SOL    HW2 6176   3.733   6.610  11.081
68115SOL     OW 6177   3.598   7.379  10.997
68115SOL    HW1 6178   3.675   7.335  10.963
68115SOL    HW2 6179   3.628   7.467  11.021
68116SOL     OW 6180  13.029   5.216   0.904
68116SOL    HW1 6181  12.990   5.178   0.982
68116SOL    HW2 6182  13.047   5.307   0.928
68117SOL     OW 6183  10.017  13.099  11.251
68117SOL    HW1 6184  10.089  13.036  11.242
68117SOL    HW2 6185   9.985  13.111  11.162
68118SOL     OW 6186  12.245  14.819  10.490
68118SOL    HW1 6187  12.247  14.809  10.585
68118SOL    HW2 6188  12.233   0.041  10.477
68119SOL     OW 6189   5.077   5.123  13.549
68119SOL    HW1 6190   5.171   5.125  13.532
68119SOL    HW2 6191   5.037   5.158  13.470
68120SOL     OW 6192  12.946   7.246   3.122
68120SOL    HW1 6193  12.953   7.168   3.067
68120SOL    HW2 6194  13.005   7.309   3.080
68121SOL     OW 6195   6.244  14.138   8.122
68121SOL    HW1 6196   6.288  14.149   8.207
68121SOL    HW2 6197   6.229  14.228   8.091
68122SOL     OW 6198  14.154   6.957   1.837
68122SOL    HW1 6199  14.169   6.889   1.772
68122SOL    HW2 6200  14.071   6.933   1.879
68123SOL     OW 6201  11.037   7.481  10.968
68123SOL    HW1 6202  11.013   7.541  11.038
68123SOL    HW2 6203  10.976   7.501  10.897
68124SOL     OW 6204  12.119   4.085   9.410
68124SOL    HW1 6205  12.066   4.165   9.405
68124SOL    HW2 6206  12.077   4.033   9.479
68125SOL     OW 6207   8.421   3.679   2.217
68125SOL    HW1 6208   8.413   3.650   2.308
68125SOL    HW2 6209   8.489   3.747   2.220
68126SOL     OW 6210  14.351  10.981   7.533
68126SOL    HW1 6211  14.310  11.051   7.483
68126SOL    HW2 6212  14.444  10.987   7.512
68127SOL     OW 6213   7.094   4.258  13.094
68127SOL    HW1 6214   7.109   4.335  13.039
68127SOL    HW2 6215   7.023   4.211  13.051
68128SOL     OW 6216   2.764   2.959   0.763
68128SOL    HW1 6217   2.770   2.989   0.854
68128SOL    HW2 6218   2.767   2.863   0.770
68129SOL     OW 6219   1.075  13.805  12.260
68129SOL    HW1 6220   1.146  13.761  12.213
68129SOL    HW2 6221   1.102  13.803  12.352
68130SOL     OW 6222   7.732   6.823   4.695
68130SOL    HW1 6223   7.770   6.909   4.712
68130SOL    HW2 6224   7.771   6.766   4.762
68131SOL     OW 6225  13.501   0.769  12.846
68131SOL    HW1 6226  13.541   0.719  12.775
68131SOL    HW2 6227  13.417   0.798  12.810
68132SOL     OW 6228   9.537  12.142   8.814
68132SOL    HW1 6229   9.566  12.193   8.889
68132SOL    HW2 6230   9.447  12.171   8.799
68133SOL     OW 6231  10.706   1.280   3.322
68133SOL    HW1 6232  10.708   1.284   3.227
68133SOL    HW2 6233  10.720   1.370   3.350
68134SOL     OW 6234  12.896  12.548  14.059
68134SOL    HW1 6235  12.972  12.575  14.007
68134SOL    HW2 6236  12.864  12.629  14.098
68135SOL     OW 6237   9.909   2.649   2.261
68135SOL    HW1 6238   9.969   2.712   2.300
68135SOL    HW2 6239   9.932   2.566   2.301
68136SOL     OW 6240   9.720  14.625   2.811
68136SOL    HW1 6241   9.702  14.532   2.799
68136SOL    HW2 6242   9.707  14.663   2.724
68137SOL     OW 6243   7.440   0.317   4.284
68137SOL    HW1 6244   7.408   0.229   4.308
68137SOL    HW2 6245   7.360   0.369   4.276
68138SOL     OW 6246  14.501   9.309   4.714
68138SOL    HW1 6247  14.576   9.262   4.750
68138SOL    HW2 6248  14.439   9.241   4.688
68139SOL     OW 6249  13.039   5.047   7.439
68139SOL    HW1 6250  12.953   5.043   7.481
68139SOL    HW2 6251  13.023   5.020   7.349
68140SOL     OW 6252   5.117   1.228   2.878
68140SOL    HW1 6253   5.128   1.143   2.921
68140SOL    HW2 6254   5.204   1.249   2.844
68141SOL     OW 6255  14.203  12.985   4.459
68141SOL    HW1 6256  14.112  13.012   4.472
68141SOL    HW2 6257  14.205  12.955   4.368
68142SOL     OW 6258  11.831   1.504   1.290
68142SOL    HW1 6259  11.781   1.585   1.276
68142SOL    HW2 6260  11.838   1.465   1.202
68143SOL     OW 6261   6.573  11.323   5.206
68143SOL    HW1 6262   6.481  11.330   5.232
68143SOL    HW2 6263   6.621  11.348   5.285
68144SOL     OW 6264   5.281  11.336   2.153
68144SOL    HW1 6265   5.209  11.274   2.155
68144SOL    HW2 6266   5.348  11.298   2.210
68145SOL     OW 6267  14.256   8.796   2.596
68145SOL    HW1 6268  14.300   8.783   2.511
68145SOL    HW2 6269  14.200   8.719   2.606
68146SOL     OW 6270  11.180   1.206   2.013
68146SOL    HW1 6271  11.088   1.216   1.988
68146SOL    HW2 6272  11.179   1.139   2.081
68147SOL     OW 6273  11.880  11.959   2.420
68147SOL    HW1 6274  11.952  12.000   2.372
68147SOL    HW2 6275  11.828  12.032   2.454
68148SOL     OW 6276   7.167   0.625   0.815
68148SOL    HW1 6277   7.072   0.617   0.817
68148SOL    HW2 6278   7.186   0.660   0.728
68149SOL     OW 6279  13.872   4.941   3.733
68149SOL    HW1 6280  13.903   4.983   3.813
68149SOL    HW2 6281  13.952   4.923   3.683
68150SOL     OW 6282  11.045  10.567   6.962
68150SOL    HW1 6283  11.037  10.600   6.873
68150SOL    HW2 6284  11.140  10.561   6.977
68151SOL     OW 6285   4.735   6.614   9.041
68151SOL    HW1 6286   4.731   6.648   9.130
68151SOL    HW2 6287   4.818   6.647   9.007
68152SOL     OW 6288  11.991   1.288   8.055
68152SOL    HW1 6289  11.943   1.212   8.023
68152SOL    HW2 6290  12.039   1.256   8.131
68153SOL     OW 6291   1.694   8.586  14.480
68153SOL    HW1 6292   1.674   8.583  14.387
68153SOL    HW2 6293   1.788   8.573  14.485
68154SOL     OW 6294   0.801  12.325   2.777
68154SOL    HW1 6295   0.837  12.414   2.779
68154SOL    HW2 6296   0.813  12.293   2.866
68155SOL     OW 6297   2.072  12.643  13.358
68155SOL    HW1 6298   2.096  12.576  13.422
68155SOL    HW2 6299   2.080  12.726  13.405
68156SOL     OW 6300   8.133   1.441  12.466
68156SOL    HW1 6301   8.043   1.474  12.453
68156SOL    HW2 6302   8.152   1.392  12.386
68157SOL     OW 6303  14.576   7.703   8.512
68157SOL    HW1 6304  14.483   7.716   8.530
68157SOL    HW2 6305  14.594   7.614   8.543
68158SOL     OW 6306   0.695   9.263   4.513
68158SOL    HW1 6307   0.636   9.194   4.543
68158SOL    HW2 6308   0.686   9.332   4.578
68159SOL     OW 6309   3.496   3.252  14.526
68159SOL    HW1 6310   3.505   3.175  14.470
68159SOL    HW2 6311   3.418   3.297  14.493
68160SOL     OW 6312   6.655   8.110   8.784
68160SOL    HW1 6313   6.659   8.190   8.733
68160SOL    HW2 6314   6.663   8.139   8.875
68161SOL     OW 6315   8.527   2.980  11.711
68161SOL    HW1 6316   8.514   3.000  11.804
68161SOL    HW2 6317   8.441   2.996  11.671
68162SOL     OW 6318  14.192   7.402  10.491
68162SOL    HW1 6319  14.165   7.434  10.577
68162SOL    HW2 6320  14.159   7.313  10.488
68163SOL     OW 6321  10.377   7.366   6.190
68163SOL    HW1 6322  10.448   7.362   6.125
68163SOL    HW2 6323  10.330   7.446   6.169
68164SOL     OW 6324  10.192   6.561   9.524
68164SOL    HW1 6325  10.145   6.575   9.606
68164SOL    HW2 6326  10.283   6.582   9.545
68165SOL     OW 6327   2.405  11.471   5.614
68165SOL    HW1 6328   2.448  11.432   5.690
68165SOL    HW2 6329   2.476  11.507   5.562
68166SOL     OW 6330   5.012   3.781  13.960
68166SOL    HW1 6331   5.004   3.688  13.937
68166SOL    HW2 6332   5.085   3.783  14.022
68167SOL     OW 6333   9.190   2.501  12.724
68167SOL    HW1 6334   9.135   2.578  12.738
68167SOL    HW2 6335   9.128   2.430  12.708
68168SOL     OW 6336  11.305   6.891  11.026
68168SOL    HW1 6337  11.238   6.876  10.959
68168SOL    HW2 6338  11.267   6.955  11.086
68169SOL     OW 6339   2.087   3.349  11.091
68169SOL    HW1 6340   2.167   3.298  11.093
68169SOL    HW2 6341   2.074   3.378  11.181
68170SOL     OW 6342   2.122   0.070   3.122
68170SOL    HW1 6343   2.207   0.085   3.163
68170SOL    HW2 6344   2.141   0.065   3.028
68171SOL     OW 6345  14.152   4.724   9.903
68171SOL    HW1 6346  14.095   4.801   9.893
68171SOL    HW2 6347  14.134   4.670   9.826
68172SOL     OW 6348   7.251   6.272  10.436
68172SOL    HW1 6349   7.282   6.358  10.405
68172SOL    HW2 6350   7.164   6.290  10.471
68173SOL     OW 6351   7.195   1.714  11.651
68173SOL    HW1 6352   7.196   1.706  11.556
68173SOL    HW2 6353   7.288   1.710  11.676
68174SOL     OW 6354   9.961  12.427  13.323
68174SOL    HW1 6355  10.001  12.397  13.405
68174SOL    HW2 6356   9.867  12.412  13.335
68175SOL     OW 6357   2.209  10.147   7.793
68175SOL    HW1 6358   2.187  10.236   7.768
68175SOL    HW2 6359   2.179  10.139   7.884
68176SOL     OW 6360   0.452   5.007  14.740
68176SOL    HW1 6361   0.474   4.932  14.684
68176SOL    HW2 6362   0.521   5.008  14.806
68177SOL     OW 6363  12.340   7.292  14.097
68177SOL    HW1 6364  12.388   7.232  14.154
68177SOL    HW2 6365  12.277   7.335  14.154
68178SOL     OW 6366  13.245   7.428   3.725
68178SOL    HW1 6367  13.225   7.360   3.661
68178SOL    HW2 6368  13.315   7.390   3.779
68179SOL     OW 6369  10.532   7.417   9.127
68179SOL    HW1 6370  10.544   7.439   9.035
68179SOL    HW2 6371  10.437   7.411   9.138
68180SOL     OW 6372   9.597   3.851  10.289
68180SOL    HW1 6373   9.645   3.792  10.231
68180SOL    HW2 6374   9.525   3.885  10.236
68181SOL     OW 6375   9.054  11.652   9.330
68181SOL    HW1 6376   9.136  11.603   9.335
68181SOL    HW2 6377   9.002  11.605   9.265
68182SOL     OW 6378   4.660   0.768  14.397
68182SOL    HW1 6379   4.709   0.719  14.464
68182SOL    HW2 6380   4.570   0.771  14.430
68183SOL     OW 6381  10.888  14.074   7.554
68183SOL    HW1 6382  10.883  14.115   7.468
68183SOL    HW2 6383  10.981  14.053   7.566
68184SOL     OW 6384   3.410   1.415  13.973
68184SOL    HW1 6385   3.488   1.417  13.918
68184SOL    HW2 6386   3.369   1.330  13.953
68185SOL     OW 6387  11.540   5.074  12.700
68185SOL    HW1 6388  11.603   5.145  12.711
68185SOL    HW2 6389  11.464   5.115  12.658
68186SOL     OW 6390   4.989   5.699  14.534
68186SOL    HW1 6391   5.082   5.714  14.554
68186SOL    HW2 6392   4.973   5.749  14.454
68187SOL     OW 6393  12.297  10.642   8.879
68187SOL    HW1 6394  12.391  10.624   8.874
68187SOL    HW2 6395  12.272  10.663   8.789
68188SOL     OW 6396  13.109   5.683   4.007
68188SOL    HW1 6397  13.159   5.602   3.994
68188SOL    HW2 6398  13.021   5.662   3.976
68189SOL     OW 6399   9.934  10.391   8.969
68189SOL    HW1 6400   9.991  10.465   8.947
68189SOL    HW2 6401   9.852  10.410   8.925
68190SOL     OW 6402   1.776   3.338   0.165
68190SOL    HW1 6403   1.767   3.243   0.155
68190SOL    HW2 6404   1.857   3.349   0.214
68191SOL     OW 6405   2.288   0.454   3.789
68191SOL    HW1 6406   2.269   0.441   3.882
68191SOL    HW2 6407   2.322   0.370   3.759
68192SOL     OW 6408   3.433   1.797  12.904
68192SOL    HW1 6409   3.408   1.706  12.915
68192SOL    HW2 6410   3.470   1.801  12.816
68193SOL     OW 6411   7.304  13.853  12.869
68193SOL    HW1 6412   7.368  13.803  12.819
68193SOL    HW2 6413   7.318  13.826  12.960
68194SOL     OW 6414  10.309   2.696  13.662
68194SOL    HW1 6415  10.259   2.617  13.680
68194SOL    HW2 6416  10.248   2.752  13.614
68195SOL     OW 6417  11.557  11.770   7.951
68195SOL    HW1 6418  11.526  11.754   7.862
68195SOL    HW2 6419  11.566  11.865   7.957
68196SOL     OW 6420   3.219   4.238  14.052
68196SOL    HW1 6421   3.210   4.264  13.960
68196SOL    HW2 6422   3.311   4.254  14.073
68197SOL     OW 6423   5.118   3.354  10.729
68197SOL    HW1 6424   5.080   3.441  10.730
68197SOL    HW2 6425   5.149   3.341  10.640
68198SOL     OW 6426   0.637   8.187   4.685
68198SOL    HW1 6427   0.624   8.273   4.726
68198SOL    HW2 6428   0.625   8.124   4.756
68199SOL     OW 6429   8.756   9.588   5.902
68199SOL    HW1 6430   8.800   9.503   5.897
68199SOL    HW2 6431   8.663   9.567   5.911
68200SOL     OW 6432  13.924  10.049   7.775
68200SOL    HW1 6433  13.900  10.137   7.804
68200SOL    HW2 6434  13.850   9.994   7.801
68201SOL     OW 6435   8.554  13.369   0.981
68201SOL    HW1 6436   8.515  13.364   0.894
68201SOL    HW2 6437   8.649  13.371   0.964
68202SOL     OW 6438   7.057  11.435  11.320
68202SOL    HW1 6439   7.021  11.493  11.387
68202SOL    HW2 6440   7.050  11.347  11.357
68203SOL     OW 6441  12.484   4.375  14.200
68203SOL    HW1 6442  12.468   4.370  14.106
68203SOL    HW2 6443  12.503   4.285  14.226
68204SOL     OW 6444  10.953   3.411   7.688
68204SOL    HW1 6445  10.872   3.391   7.736
68204SOL    HW2 6446  10.953   3.350   7.615
68205SOL     OW 6447   1.932  14.005   7.019
68205SOL    HW1 6448   1.862  14.069   7.004
68205SOL    HW2 6449   1.896  13.923   6.985
68206SOL     OW 6450  12.098  12.635   3.406
68206SOL    HW1 6451  12.091  12.668   3.495
68206SOL    HW2 6452  12.054  12.701   3.352
68207SOL     OW 6453   8.730  11.036   7.083
68207SOL    HW1 6454   8.712  11.089   7.005
68207SOL    HW2 6455   8.659  10.973   7.086
68208SOL     OW 6456   4.272   9.238   1.735
68208SOL    HW1 6457   4.253   9.186   1.813
68208SOL    HW2 6458   4.325   9.311   1.767
68209SOL     OW 6459   3.895   8.464   2.388
68209SOL    HW1 6460   3.824   8.407   2.359
68209SOL    HW2 6461   3.925   8.509   2.309
68210SOL     OW 6462   4.780  11.753   2.461
68210SOL    HW1 6463   4.783  11.674   2.514
68210SOL    HW2 6464   4.775  11.824   2.525
68211SOL     OW 6465   1.377  14.255  14.665
68211SOL    HW1 6466   1.323  14.213  14.598
68211SOL    HW2 6467   1.404  14.338  14.625
68212SOL     OW 6468   1.825   0.826   0.870
68212SOL    HW1 6469   1.781   0.817   0.786
68212SOL    HW2 6470   1.915   0.849   0.848
68213SOL     OW 6471   4.372   2.010  11.273
68213SOL    HW1 6472   4.311   2.070  11.317
68213SOL    HW2 6473   4.338   1.923  11.292
68214SOL     OW 6474   8.333   8.027   1.215
68214SOL    HW1 6475   8.266   8.012   1.148
68214SOL    HW2 6476   8.308   7.970   1.287
68215SOL     OW 6477   2.379   0.907   7.874
68215SOL    HW1 6478   2.345   0.989   7.837
68215SOL    HW2 6479   2.321   0.839   7.839
68216SOL     OW 6480   1.371   3.374   8.874
68216SOL    HW1 6481   1.441   3.414   8.824
68216SOL    HW2 6482   1.378   3.280   8.855
68217SOL     OW 6483   1.313   4.538  12.251
68217SOL    HW1 6484   1.335   4.452  12.287
68217SOL    HW2 6485   1.353   4.539  12.164
68218SOL     OW 6486   4.111   5.087   7.968
68218SOL    HW1 6487   4.030   5.121   7.931
68218SOL    HW2 6488   4.094   5.080   8.062
68219SOL     OW 6489   5.309   4.573   2.836
68219SOL    HW1 6490   5.225   4.566   2.882
68219SOL    HW2 6491   5.306   4.658   2.793
68220SOL     OW 6492   3.661  13.510   7.393
68220SOL    HW1 6493   3.700  13.567   7.327
68220SOL    HW2 6494   3.627  13.435   7.344
68221SOL     OW 6495   2.531   9.505   2.519
68221SOL    HW1 6496   2.576   9.554   2.588
68221SOL    HW2 6497   2.531   9.415   2.551
68222SOL     OW 6498  12.915   0.826   7.187
68222SOL    HW1 6499  12.896   0.919   7.193
68222SOL    HW2 6500  12.933   0.811   7.094
68223SOL     OW 6501   3.713  11.078   7.042
68223SOL    HW1 6502   3.729  11.101   6.951
68223SOL    HW2 6503   3.702  11.162   7.086
68224SOL     OW 6504  13.910   3.086   3.304
68224SOL    HW1 6505  13.911   3.049   3.215
68224SOL    HW2 6506  13.818   3.086   3.328
68225SOL     OW 6507   6.942   0.979   1.687
68225SOL    HW1 6508   6.849   1.004   1.688
68225SOL    HW2 6509   6.987   1.057   1.720
68226SOL     OW 6510  12.726   6.276   9.734
68226SOL    HW1 6511  12.734   6.190   9.693
68226SOL    HW2 6512  12.642   6.273   9.779
68227SOL     OW 6513  12.211  12.022   4.399
68227SOL    HW1 6514  12.159  12.089   4.444
68227SOL    HW2 6515  12.269  12.071   4.342
68228SOL     OW 6516   7.306   7.566   0.878
68228SOL    HW1 6517   7.244   7.495   0.896
68228SOL    HW2 6518   7.391   7.528   0.900
68229SOL     OW 6519  13.718  13.761  14.758
68229SOL    HW1 6520  13.808  13.778  14.787
68229SOL    HW2 6521  13.723  13.674  14.716
68230SOL     OW 6522   4.457   1.366   1.024
68230SOL    HW1 6523   4.407   1.410   0.956
68230SOL    HW2 6524   4.437   1.414   1.105
68231SOL     OW 6525   0.011   5.191   1.909
68231SOL    HW1 6526   0.019   5.249   1.984
68231SOL    HW2 6527   0.082   5.218   1.850
68232SOL     OW 6528   5.433  10.360  14.123
68232SOL    HW1 6529   5.399  10.443  14.156
68232SOL    HW2 6530   5.504  10.386  14.064
68233SOL     OW 6531   9.459   5.444  11.703
68233SOL    HW1 6532   9.470   5.402  11.618
68233SOL    HW2 6533   9.521   5.399  11.760
68234SOL     OW 6534   3.982   5.376   1.335
68234SOL    HW1 6535   3.978   5.282   1.315
68234SOL    HW2 6536   4.009   5.380   1.427
68235SOL     OW 6537  12.082   1.092   5.278
68235SOL    HW1 6538  12.160   1.087   5.222
68235SOL    HW2 6539  12.022   1.150   5.230
68236SOL     OW 6540   8.352   2.632  12.358
68236SOL    HW1 6541   8.296   2.698  12.315
68236SOL    HW2 6542   8.441   2.666  12.347
68237SOL     OW 6543  11.881   3.757   1.669
68237SOL    HW1 6544  11.876   3.846   1.635
68237SOL    HW2 6545  11.920   3.706   1.598
68238SOL     OW 6546   5.121   6.808   2.621
68238SOL    HW1 6547   5.057   6.858   2.570
68238SOL    HW2 6548   5.189   6.872   2.642
68239SOL     OW 6549  12.697  12.565   4.299
68239SOL    HW1 6550  12.687  12.649   4.254
68239SOL    HW2 6551  12.783  12.570   4.340
68240SOL     OW 6552  10.008   1.121   8.178
68240SOL    HW1 6553  10.024   1.207   8.139
68240SOL    HW2 6554  10.027   1.133   8.271
68241SOL     OW 6555  14.135   6.430  11.185
68241SOL    HW1 6556  14.138   6.370  11.111
68241SOL    HW2 6557  14.081   6.503  11.155
68242SOL     OW 6558  11.134  10.854  11.284
68242SOL    HW1 6559  11.143  10.758  11.281
68242SOL    HW2 6560  11.047  10.871  11.249
68243SOL     OW 6561   3.762  14.455  13.934
68243SOL    HW1 6562   3.675  14.490  13.950
68243SOL    HW2 6563   3.810  14.527  13.894
68244SOL     OW 6564   7.924   3.302  14.547
68244SOL    HW1 6565   7.929   3.219  14.594
68244SOL    HW2 6566   7.972   3.364  14.603
68245SOL     OW 6567   8.293   7.400   9.948
68245SOL    HW1 6568   8.246   7.464   9.894
68245SOL    HW2 6569   8.233   7.381  10.021
68246SOL     OW 6570  11.329  14.352   7.616
68246SOL    HW1 6571  11.250  14.318   7.657
68246SOL    HW2 6572  11.343  14.295   7.540
68247SOL     OW 6573   4.613  12.839   5.463
68247SOL    HW1 6574   4.580  12.911   5.516
68247SOL    HW2 6575   4.545  12.827   5.396
68248SOL     OW 6576   6.625   4.693  12.721
68248SOL    HW1 6577   6.626   4.600  12.742
68248SOL    HW2 6578   6.694   4.705  12.657
68249SOL     OW 6579  10.366   8.758  14.342
68249SOL    HW1 6580  10.396   8.723  14.427
68249SOL    HW2 6581  10.354   8.852  14.357
68250SOL     OW 6582  11.535  13.401   0.681
68250SOL    HW1 6583  11.453  13.373   0.722
68250SOL    HW2 6584  11.512  13.417   0.590
68251SOL     OW 6585   2.691   5.197  14.052
68251SOL    HW1 6586   2.697   5.265  14.119
68251SOL    HW2 6587   2.773   5.202  14.004
68252SOL     OW 6588  14.716   0.262  11.809
68252SOL    HW1 6589  14.728   0.317  11.887
68252SOL    HW2 6590  14.627   0.230  11.815
68253SOL     OW 6591  11.492   1.356   7.995
68253SOL    HW1 6592  11.463   1.265   7.989
68253SOL    HW2 6593  11.583   1.354   7.966
68254SOL     OW 6594  11.103  12.373   6.524
68254SOL    HW1 6595  11.084  12.279   6.517
68254SOL    HW2 6596  11.149  12.394   6.443
68255SOL     OW 6597   5.850   7.227   8.255
68255SOL    HW1 6598   5.864   7.173   8.333
68255SOL    HW2 6599   5.761   7.205   8.227
68256SOL     OW 6600  10.319   0.275  13.708
68256SOL    HW1 6601  10.379   0.348  13.725
68256SOL    HW2 6602  10.236   0.317  13.688
68257SOL     OW 6603   5.283  12.730  14.423
68257SOL    HW1 6604   5.344  12.701  14.491
68257SOL    HW2 6605   5.211  12.667  14.427
68258SOL     OW 6606   2.301   2.361   3.331
68258SOL    HW1 6607   2.222   2.407   3.301
68258SOL    HW2 6608   2.271   2.310   3.406
68259SOL     OW 6609   6.544  11.710  10.557
68259SOL    HW1 6610   6.560  11.626  10.514
68259SOL    HW2 6611   6.591  11.704  10.640
68260SOL     OW 6612   3.447   2.152   8.388
68260SOL    HW1 6613   3.359   2.116   8.400
68260SOL    HW2 6614   3.462   2.148   8.293
68261SOL     OW 6615   3.158  12.697   2.116
68261SOL    HW1 6616   3.087  12.703   2.180
68261SOL    HW2 6617   3.113  12.698   2.031
68262SOL     OW 6618   6.612  10.626  14.542
68262SOL    HW1 6619   6.601  10.613  14.448
68262SOL    HW2 6620   6.523  10.636  14.576
68263SOL     OW 6621   2.599   7.029   5.987
68263SOL    HW1 6622   2.507   7.010   5.965
68263SOL    HW2 6623   2.640   7.049   5.903
68264SOL     OW 6624   4.177   4.315   1.006
68264SOL    HW1 6625   4.084   4.306   1.026
68264SOL    HW2 6626   4.219   4.243   1.051
68265SOL     OW 6627  11.883   8.649   4.299
68265SOL    HW1 6628  11.937   8.571   4.309
68265SOL    HW2 6629  11.826   8.629   4.224
68266SOL     OW 6630   2.425   7.381   7.223
68266SOL    HW1 6631   2.517   7.393   7.202
68266SOL    HW2 6632   2.403   7.454   7.282
68267SOL     OW 6633  11.702  10.402  12.848
68267SOL    HW1 6634  11.651  10.325  12.824
68267SOL    HW2 6635  11.783  10.394  12.797
68268SOL     OW 6636   3.328  14.139  11.249
68268SOL    HW1 6637   3.374  14.178  11.323
68268SOL    HW2 6638   3.263  14.080  11.288
68269SOL     OW 6639  13.752  11.984  14.299
68269SOL    HW1 6640  13.691  11.943  14.238
68269SOL    HW2 6641  13.810  11.913  14.326
68270SOL     OW 6642   0.672   5.185   1.192
68270SOL    HW1 6643   0.639   5.272   1.173
68270SOL    HW2 6644   0.750   5.176   1.137
68271SOL     OW 6645  12.509   4.259   1.763
68271SOL    HW1 6646  12.549   4.189   1.712
68271SOL    HW2 6647  12.434   4.287   1.711
68272SOL     OW 6648  13.410   6.279   2.901
68272SOL    HW1 6649  13.480   6.312   2.957
68272SOL    HW2 6650  13.423   6.323   2.817
68273SOL     OW 6651  14.446  12.643   1.873
68273SOL    HW1 6652  14.499  12.635   1.793
68273SOL    HW2 6653  14.437  12.738   1.886
68274SOL     OW 6654   3.743  12.369  12.883
68274SOL    HW1 6655   3.812  12.302  12.884
68274SOL    HW2 6656   3.669  12.326  12.926
68275SOL     OW 6657   5.494   2.247  10.410
68275SOL    HW1 6658   5.445   2.204  10.341
68275SOL    HW2 6659   5.586   2.226  10.392
68276SOL     OW 6660  12.647   3.815   8.460
68276SOL    HW1 6661  12.619   3.852   8.544
68276SOL    HW2 6662  12.717   3.754   8.483
68277SOL     OW 6663   5.447   3.378   4.892
68277SOL    HW1 6664   5.402   3.454   4.853
68277SOL    HW2 6665   5.469   3.323   4.817
68278SOL     OW 6666   6.348  10.667   4.945
68278SOL    HW1 6667   6.312  10.748   4.981
68278SOL    HW2 6668   6.433  10.657   4.988
68279SOL     OW 6669  13.984   4.106   1.708
68279SOL    HW1 6670  14.074   4.115   1.677
68279SOL    HW2 6671  13.960   4.195   1.734
68280SOL     OW 6672  12.481   4.688   7.702
68280SOL    HW1 6673  12.403   4.677   7.756
68280SOL    HW2 6674  12.540   4.618   7.729
68281SOL     OW 6675   2.418   7.513   0.975
68281SOL    HW1 6676   2.493   7.470   1.014
68281SOL    HW2 6677   2.345   7.494   1.034
68282SOL     OW 6678   8.511   2.536   6.079
68282SOL    HW1 6679   8.596   2.512   6.114
68282SOL    HW2 6680   8.462   2.454   6.076
68283SOL     OW 6681   5.967   0.080   8.828
68283SOL    HW1 6682   5.961   0.071   8.923
68283SOL    HW2 6683   5.884   0.122   8.802
68284SOL     OW 6684   3.991   1.596  11.351
68284SOL    HW1 6685   4.014   1.597  11.258
68284SOL    HW2 6686   3.921   1.532  11.358
68285SOL     OW 6687   8.018   0.198  14.483
68285SOL    HW1 6688   7.992   0.123  14.536
68285SOL    HW2 6689   8.096   0.168  14.435
68286SOL     OW 6690  10.405  11.563   3.814
68286SOL    HW1 6691  10.327  11.533   3.860
68286SOL    HW2 6692  10.382  11.559   3.721
68287SOL     OW 6693   4.484  14.319   7.425
68287SOL    HW1 6694   4.462  14.315   7.332
68287SOL    HW2 6695   4.462  14.232   7.459
68288SOL     OW 6696   6.498  12.183  12.249
68288SOL    HW1 6697   6.519  12.197  12.157
68288SOL    HW2 6698   6.465  12.093  12.252
68289SOL     OW 6699   6.531  11.206   8.177
68289SOL    HW1 6700   6.626  11.198   8.169
68289SOL    HW2 6701   6.500  11.116   8.188
68290SOL     OW 6702   0.428  10.018   5.406
68290SOL    HW1 6703   0.520  10.036   5.387
68290SOL    HW2 6704   0.428   9.928   5.439
68291SOL     OW 6705   7.212   3.596  11.506
68291SOL    HW1 6706   7.144   3.553  11.455
68291SOL    HW2 6707   7.205   3.689  11.483
68292SOL     OW 6708   6.413  12.693   4.690
68292SOL    HW1 6709   6.372  12.769   4.650
68292SOL    HW2 6710   6.344  12.627   4.692
68293SOL     OW 6711   2.307  13.509   2.360
68293SOL    HW1 6712   2.342  13.513   2.271
68293SOL    HW2 6713   2.317  13.598   2.394
68294SOL     OW 6714   8.116   6.458   4.327
68294SOL    HW1 6715   8.174   6.532   4.309
68294SOL    HW2 6716   8.092   6.468   4.419
68295SOL     OW 6717   3.673  10.825   3.779
68295SOL    HW1 6718   3.615  10.759   3.815
68295SOL    HW2 6719   3.756  10.812   3.826
68296SOL     OW 6720   2.203   5.002   9.430
68296SOL    HW1 6721   2.279   4.946   9.443
68296SOL    HW2 6722   2.161   4.968   9.351
68297SOL     OW 6723   6.088  14.299   6.555
68297SOL    HW1 6724   6.004  14.254   6.556
68297SOL    HW2 6725   6.091  14.343   6.470
68298SOL     OW 6726  10.448   8.308  13.264
68298SOL    HW1 6727  10.398   8.388  13.248
68298SOL    HW2 6728  10.498   8.327  13.344
68299SOL     OW 6729  13.523  10.794   5.321
68299SOL    HW1 6730  13.584  10.829   5.386
68299SOL    HW2 6731  13.449  10.853   5.323
68300SOL     OW 6732   7.352   2.628   1.906
68300SOL    HW1 6733   7.298   2.667   1.974
68300SOL    HW2 6734   7.332   2.680   1.828
68301SOL     OW 6735   8.453  10.967   1.780
68301SOL    HW1 6736   8.398  10.892   1.801
68301SOL    HW2 6737   8.446  11.025   1.856
68302SOL     OW 6738   8.763   5.692   7.733
68302SOL    HW1 6739   8.757   5.602   7.702
68302SOL    HW2 6740   8.826   5.733   7.673
68303SOL     OW 6741  10.402   9.043  10.139
68303SOL    HW1 6742  10.428   9.125  10.098
68303SOL    HW2 6743  10.452   8.976  10.093
68304SOL     OW 6744   0.599   1.233   2.401
68304SOL    HW1 6745   0.620   1.314   2.354
68304SOL    HW2 6746   0.542   1.261   2.472
68305SOL     OW 6747   9.438   8.881  10.253
68305SOL    HW1 6748   9.446   8.913  10.163
68305SOL    HW2 6749   9.456   8.958  10.307
68306SOL     OW 6750   2.826  14.666   5.972
68306SOL    HW1 6751   2.872  14.724   6.032
68306SOL    HW2 6752   2.896  14.614   5.932
68307SOL     OW 6753   2.290  10.750  14.561
68307SOL    HW1 6754   2.268  10.656  14.560
68307SOL    HW2 6755   2.290  10.776  14.469
68308SOL     OW 6756   9.676  13.713  11.953
68308SOL    HW1 6757   9.613  13.782  11.976
68308SOL    HW2 6758   9.632  13.632  11.979
68309SOL     OW 6759   9.332   6.579  10.322
68309SOL    HW1 6760   9.351   6.645  10.389
68309SOL    HW2 6761   9.239   6.559  10.335
68310SOL     OW 6762  12.020  11.057  10.924
68310SOL    HW1 6763  11.980  11.023  10.844
68310SOL    HW2 6764  12.038  10.979  10.977
68311SOL     OW 6765   4.408   8.310  11.922
68311SOL    HW1 6766   4.454   8.319  11.839
68311SOL    HW2 6767   4.389   8.216  11.928
68312SOL     OW 6768   9.588   3.268   5.529
68312SOL    HW1 6769   9.667   3.247   5.479
68312SOL    HW2 6770   9.618   3.278   5.619
68313SOL     OW 6771  11.441  13.586   6.913
68313SOL    HW1 6772  11.372  13.521   6.921
68313SOL    HW2 6773  11.402  13.667   6.947
68314SOL     OW 6774   1.449   0.906   7.986
68314SOL    HW1 6775   1.403   0.835   7.940
68314SOL    HW2 6776   1.404   0.986   7.959
68315SOL     OW 6777  13.631   2.798   3.063
68315SOL    HW1 6778  13.569   2.861   3.102
68315SOL    HW2 6779  13.581   2.754   2.995
68316SOL     OW 6780   6.784   8.209  11.557
68316SOL    HW1 6781   6.878   8.227  11.562
68316SOL    HW2 6782   6.747   8.256  11.632
68317SOL     OW 6783   1.076   5.972   5.036
68317SOL    HW1 6784   0.998   5.916   5.043
68317SOL    HW2 6785   1.089   5.983   4.942
68318SOL     OW 6786   3.158   6.167  13.660
68318SOL    HW1 6787   3.131   6.079  13.633
68318SOL    HW2 6788   3.246   6.177  13.623
68319SOL     OW 6789   2.567  12.669   9.249
68319SOL    HW1 6790   2.518  12.593   9.215
68319SOL    HW2 6791   2.654  12.634   9.270
68320SOL     OW 6792  14.076   0.721   6.882
68320SOL    HW1 6793  14.130   0.749   6.956
68320SOL    HW2 6794  14.017   0.795   6.867
68321SOL     OW 6795   7.306   7.599  12.336
68321SOL    HW1 6796   7.398   7.592  12.311
68321SOL    HW2 6797   7.286   7.515  12.377
68322SOL     OW 6798   1.167  11.867   9.334
68322SOL    HW1 6799   1.112  11.895   9.408
68322SOL    HW2 6800   1.208  11.786   9.365
68323SOL     OW 6801  14.563   0.776   2.393
68323SOL    HW1 6802  14.482   0.804   2.350
68323SOL    HW2 6803  14.536   0.705   2.451
68324SOL     OW 6804   9.397  10.946   9.397
68324SOL    HW1 6805   9.491  10.939   9.378
68324SOL    HW2 6806   9.354  10.927   9.313
68325SOL     OW 6807  13.453   1.116   8.079
68325SOL    HW1 6808  13.527   1.070   8.118
68325SOL    HW2 6809  13.426   1.059   8.006
68326SOL     OW 6810   6.118  10.543  11.671
68326SOL    HW1 6811   6.180  10.555  11.743
68326SOL    HW2 6812   6.120  10.448  11.655
68327SOL     OW 6813   5.656   7.465   7.455
68327SOL    HW1 6814   5.612   7.511   7.527
68327SOL    HW2 6815   5.591   7.462   7.385
68328SOL     OW 6816   4.765   4.171   9.152
68328SOL    HW1 6817   4.708   4.098   9.178
68328SOL    HW2 6818   4.735   4.195   9.065
68329SOL     OW 6819   6.037   0.647   0.483
68329SOL    HW1 6820   6.000   0.657   0.571
68329SOL    HW2 6821   5.963   0.661   0.424
68330SOL     OW 6822  14.698  10.689  12.733
68330SOL    HW1 6823  14.731  10.677  12.822
68330SOL    HW2 6824  14.645  10.611  12.716
68331SOL     OW 6825   1.628   6.140   4.095
68331SOL    HW1 6826   1.702   6.130   4.154
68331SOL    HW2 6827   1.631   6.062   4.040
68332SOL     OW 6828  13.763  14.633  11.220
68332SOL    HW1 6829  13.711  14.568  11.172
68332SOL    HW2 6830  13.715  14.715  11.208
68333SOL     OW 6831  10.145   1.109   0.299
68333SOL    HW1 6832  10.053   1.106   0.274
68333SOL    HW2 6833  10.190   1.057   0.232
68334SOL     OW 6834  13.590   3.212  14.163
68334SOL    HW1 6835  13.526   3.242  14.227
68334SOL    HW2 6836  13.661   3.174  14.216
68335SOL     OW 6837  10.341  10.046  14.363
68335SOL    HW1 6838  10.407  10.053  14.432
68335SOL    HW2 6839  10.275   9.987  14.399
68336SOL     OW 6840  13.263  11.483   6.964
68336SOL    HW1 6841  13.206  11.512   7.036
68336SOL    HW2 6842  13.341  11.538   6.972
68337SOL     OW 6843   6.542   5.794   3.099
68337SOL    HW1 6844   6.563   5.820   3.188
68337SOL    HW2 6845   6.452   5.763   3.103
68338SOL     OW 6846   6.198   8.632  10.226
68338SOL    HW1 6847   6.137   8.562  10.200
68338SOL    HW2 6848   6.182   8.702  10.162
68339SOL     OW 6849   6.568   1.563   0.371
68339SOL    HW1 6850   6.539   1.654   0.360
68339SOL    HW2 6851   6.656   1.561   0.332
68340SOL     OW 6852  10.255   9.283   8.325
68340SOL    HW1 6853  10.347   9.305   8.309
68340SOL    HW2 6854  10.253   9.253   8.416
68341SOL     OW 6855  10.640   1.409   4.406
68341SOL    HW1 6856  10.567   1.420   4.467
68341SOL    HW2 6857  10.661   1.498   4.378
68342SOL     OW 6858   4.663   0.408   3.981
68342SOL    HW1 6859   4.691   0.394   4.071
68342SOL    HW2 6860   4.574   0.442   3.988
68343SOL     OW 6861  11.759   0.039   6.124
68343SOL    HW1 6862  11.689   0.081   6.174
68343SOL    HW2 6863  11.716   0.009   6.044
68344SOL     OW 6864   3.565  10.291  12.725
68344SOL    HW1 6865   3.595  10.380  12.709
68344SOL    HW2 6866   3.471  10.300  12.744
68345SOL     OW 6867  13.296  12.432   5.239
68345SOL    HW1 6868  13.263  12.434   5.149
68345SOL    HW2 6869  13.325  12.522   5.256
68346SOL     OW 6870   8.112  11.721   3.938
68346SOL    HW1 6871   8.019  11.734   3.921
68346SOL    HW2 6872   8.116  11.675   4.022
68347SOL     OW 6873  10.445   4.220   6.120
68347SOL    HW1 6874  10.523   4.202   6.171
68347SOL    HW2 6875  10.406   4.297   6.161
68348SOL     OW 6876   9.616   7.850   6.160
68348SOL    HW1 6877   9.710   7.835   6.148
68348SOL    HW2 6878   9.607   7.871   6.253
68349SOL     OW 6879   2.695  10.231   2.787
68349SOL    HW1 6880   2.739  10.268   2.710
68349SOL    HW2 6881   2.695  10.137   2.772
68350SOL     OW 6882  10.303   2.230   0.206
68350SOL    HW1 6883  10.288   2.153   0.151
68350SOL    HW2 6884  10.397   2.245   0.200
68351SOL     OW 6885   1.631   3.424  11.881
68351SOL    HW1 6886   1.669   3.502  11.842
68351SOL    HW2 6887   1.557   3.457  11.932
68352SOL     OW 6888   9.308  10.265   4.941
68352SOL    HW1 6889   9.262  10.236   4.862
68352SOL    HW2 6890   9.256  10.339   4.973
68353SOL     OW 6891   6.740   5.456   8.983
68353SOL    HW1 6892   6.755   5.545   9.013
68353SOL    HW2 6893   6.659   5.461   8.933
68354SOL     OW 6894  14.429   9.769   4.422
68354SOL    HW1 6895  14.491   9.803   4.486
68354SOL    HW2 6896  14.369   9.842   4.405
68355SOL     OW 6897   0.976  10.018   3.751
68355SOL    HW1 6898   1.054   9.978   3.712
68355SOL    HW2 6899   0.910   9.949   3.749
68356SOL     OW 6900  12.984   8.694  11.821
68356SOL    HW1 6901  12.972   8.619  11.762
68356SOL    HW2 6902  12.895   8.726  11.838
68357SOL     OW 6903  13.913   9.937   0.690
68357SOL    HW1 6904  14.000   9.904   0.713
68357SOL    HW2 6905  13.906   9.924   0.596
68358SOL     OW 6906  12.816   0.898  12.744
68358SOL    HW1 6907  12.815   0.802  12.746
68358SOL    HW2 6908  12.745   0.924  12.803
68359SOL     OW 6909   8.552   9.492  11.667
68359SOL    HW1 6910   8.554   9.570  11.722
68359SOL    HW2 6911   8.642   9.485  11.633
68360SOL     OW 6912   0.927   0.529  11.229
68360SOL    HW1 6913   0.897   0.462  11.168
68360SOL    HW2 6914   0.894   0.500  11.314
68361SOL     OW 6915   6.895  12.163  11.294
68361SOL    HW1 6916   6.869  12.255  11.291
68361SOL    HW2 6917   6.814  12.116  11.275
68362SOL     OW 6918   4.234   8.034   4.692
68362SOL    HW1 6919   4.146   8.046   4.729
68362SOL    HW2 6920   4.225   7.957   4.635
68363SOL     OW 6921  11.729   1.100   3.978
68363SOL    HW1 6922  11.805   1.156   3.964
68363SOL    HW2 6923  11.755   1.040   4.047
68364SOL     OW 6924  13.448  11.553   8.919
68364SOL    HW1 6925  13.352  11.545   8.914
68364SOL    HW2 6926  13.471  11.506   9.000
68365SOL     OW 6927   7.374   2.716   6.573
68365SOL    HW1 6928   7.348   2.808   6.583
68365SOL    HW2 6929   7.431   2.700   6.648
68366SOL     OW 6930   1.887   3.002   9.961
68366SOL    HW1 6931   1.863   2.923   9.912
68366SOL    HW2 6932   1.842   2.993  10.044
68367SOL     OW 6933   2.074   3.452   7.211
68367SOL    HW1 6934   2.004   3.411   7.160
68367SOL    HW2 6935   2.142   3.385   7.215
68368SOL     OW 6936   7.985   5.419   6.601
68368SOL    HW1 6937   7.969   5.330   6.570
68368SOL    HW2 6938   7.914   5.436   6.663
68369SOL     OW 6939   4.959   4.168   5.156
68369SOL    HW1 6940   4.935   4.131   5.242
68369SOL    HW2 6941   4.911   4.250   5.151
68370SOL     OW 6942   6.804   7.593  13.453
68370SOL    HW1 6943   6.720   7.571  13.494
68370SOL    HW2 6944   6.854   7.635  13.523
68371SOL     OW 6945   6.940   8.328  14.641
68371SOL    HW1 6946   6.969   8.350  14.730
68371SOL    HW2 6947   6.847   8.351  14.640
68372SOL     OW 6948  14.804   2.432  10.837
68372SOL    HW1 6949  14.839   2.386  10.913
68372SOL    HW2 6950   0.008   2.454  10.784
68373SOL     OW 6951  13.000   8.410   4.100
68373SOL    HW1 6952  12.926   8.359   4.133
68373SOL    HW2 6953  13.052   8.346   4.051
68374SOL     OW 6954   0.732   5.501  10.943
68374SOL    HW1 6955   0.722   5.582  10.891
68374SOL    HW2 6956   0.734   5.431  10.878
68375SOL     OW 6957   1.416  13.856  14.341
68375SOL    HW1 6958   1.407  13.815  14.427
68375SOL    HW2 6959   1.365  13.798  14.283
68376SOL     OW 6960   8.781   5.013  10.506
68376SOL    HW1 6961   8.860   4.960  10.495
68376SOL    HW2 6962   8.732   5.000  10.425
68377SOL     OW 6963  11.951   2.034   7.673
68377SOL    HW1 6964  11.932   2.019   7.766
68377SOL    HW2 6965  11.976   2.127   7.668
68378SOL     OW 6966   1.144  13.758   2.127
68378SOL    HW1 6967   1.146  13.843   2.082
68378SOL    HW2 6968   1.210  13.705   2.082
68379SOL     OW 6969   2.389   7.494  12.379
68379SOL    HW1 6970   2.468   7.544  12.363
68379SOL    HW2 6971   2.419   7.404  12.392
68380SOL     OW 6972   6.356  13.500   8.288
68380SOL    HW1 6973   6.373  13.407   8.278
68380SOL    HW2 6974   6.377  13.519   8.380
68381SOL     OW 6975   8.531   3.369   2.458
68381SOL    HW1 6976   8.619   3.404   2.476
68381SOL    HW2 6977   8.472   3.437   2.489
68382SOL     OW 6978   5.210   0.211  13.869
68382SOL    HW1 6979   5.116   0.229  13.862
68382SOL    HW2 6980   5.248   0.294  13.898
68383SOL     OW 6981  10.552   1.903   6.214
68383SOL    HW1 6982  10.609   1.903   6.290
68383SOL    HW2 6983  10.606   1.939   6.143
68384SOL     OW 6984   6.839  13.251  11.231
68384SOL    HW1 6985   6.755  13.293  11.214
68384SOL    HW2 6986   6.848  13.254  11.327
68385SOL     OW 6987   6.544   7.631   5.231
68385SOL    HW1 6988   6.519   7.594   5.146
68385SOL    HW2 6989   6.634   7.602   5.245
68386SOL     OW 6990  14.864  13.466   0.575
68386SOL    HW1 6991  14.843  13.421   0.657
68386SOL    HW2 6992  14.830  13.408   0.507
68387SOL     OW 6993   8.543  10.956   3.301
68387SOL    HW1 6994   8.499  10.942   3.217
68387SOL    HW2 6995   8.510  11.040   3.332
68388SOL     OW 6996  12.039  10.521   5.624
68388SOL    HW1 6997  12.037  10.616   5.613
68388SOL    HW2 6998  11.956  10.500   5.666
68389SOL     OW 6999   4.693   3.013   5.733
68389SOL    HW1 7000   4.648   3.030   5.650
68389SOL    HW2 7001   4.767   2.956   5.709
68390SOL     OW 7002   9.978   2.309  10.359
68390SOL    HW1 7003   9.910   2.285  10.296
68390SOL    HW2 7004   9.942   2.384  10.405
68391SOL     OW 7005   9.934  10.441   7.897
68391SOL    HW1 7006   9.964  10.369   7.842
68391SOL    HW2 7007   9.858  10.476   7.851
68392SOL     OW 7008   4.525   0.010   1.175
68392SOL    HW1 7009   4.454   0.063   1.140
68392SOL    HW2 7010   4.505  14.794   1.147
68393SOL     OW 7011   4.004  12.563   0.946
68393SOL    HW1 7012   4.035  12.481   0.985
68393SOL    HW2 7013   3.957  12.536   0.867
68394SOL     OW 7014   6.668   7.280   8.018
68394SOL    HW1 7015   6.625   7.337   8.082
68394SOL    HW2 7016   6.724   7.339   7.967
68395SOL     OW 7017   1.573   0.004   7.815
68395SOL    HW1 7018   1.652  14.832   7.785
68395SOL    HW2 7019   1.579   0.091   7.775
68396SOL     OW 7020   6.566   4.968  11.794
68396SOL    HW1 7021   6.659   4.987  11.803
68396SOL    HW2 7022   6.522   5.041  11.838
68397SOL     OW 7023   9.205   7.355   7.017
68397SOL    HW1 7024   9.168   7.430   7.065
68397SOL    HW2 7025   9.297   7.354   7.041
68398SOL     OW 7026   6.414   6.358   3.664
68398SOL    HW1 7027   6.440   6.450   3.666
68398SOL    HW2 7028   6.462   6.318   3.736
68399SOL     OW 7029   6.302  13.994  13.075
68399SOL    HW1 7030   6.274  14.025  12.988
68399SOL    HW2 7031   6.349  14.068  13.113
68400SOL     OW 7032  12.973  12.218   9.869
68400SOL    HW1 7033  13.000  12.137   9.826
68400SOL    HW2 7034  13.025  12.221   9.949
68401SOL     OW 7035   6.693   5.433  10.088
68401SOL    HW1 7036   6.728   5.385  10.012
68401SOL    HW2 7037   6.708   5.375  10.162
68402SOL     OW 7038   5.759   2.988  14.618
68402SOL    HW1 7039   5.766   2.958  14.527
68402SOL    HW2 7040   5.818   2.930  14.666
68403SOL     OW 7041  12.862  14.153  11.267
68403SOL    HW1 7042  12.871  14.238  11.223
68403SOL    HW2 7043  12.901  14.090  11.206
68404SOL     OW 7044   6.539   1.873  13.904
68404SOL    HW1 7045   6.547   1.789  13.949
68404SOL    HW2 7046   6.474   1.921  13.956
68405SOL     OW 7047   1.414   2.421   1.011
68405SOL    HW1 7048   1.354   2.356   0.975
68405SOL    HW2 7049   1.472   2.443   0.937
68406SOL     OW 7050   5.942   1.410   1.010
68406SOL    HW1 7051   5.889   1.335   0.984
68406SOL    HW2 7052   6.010   1.373   1.067
68407SOL     OW 7053  14.819   8.083  11.173
68407SOL    HW1 7054  14.745   8.054  11.227
68407SOL    HW2 7055  14.863   8.149  11.226
68408SOL     OW 7056   5.974   1.929  12.813
68408SOL    HW1 7057   5.991   1.888  12.898
68408SOL    HW2 7058   5.902   1.990  12.830
68409SOL     OW 7059   7.782   3.588   1.271
68409SOL    HW1 7060   7.872   3.593   1.239
68409SOL    HW2 7061   7.752   3.501   1.245
68410SOL     OW 7062  10.317  12.811   5.786
68410SOL    HW1 7063  10.306  12.762   5.867
68410SOL    HW2 7064  10.250  12.879   5.790
68411SOL     OW 7065   6.697   0.717   4.637
68411SOL    HW1 7066   6.664   0.639   4.682
68411SOL    HW2 7067   6.792   0.709   4.643
68412SOL     OW 7068   3.000   9.207  13.989
68412SOL    HW1 7069   2.938   9.272  13.955
68412SOL    HW2 7070   3.053   9.255  14.053
68413SOL     OW 7071  11.461   2.961   3.367
68413SOL    HW1 7072  11.390   3.009   3.410
68413SOL    HW2 7073  11.461   2.994   3.277
68414SOL     OW 7074   4.504   6.993   5.081
68414SOL    HW1 7075   4.556   6.938   5.140
68414SOL    HW2 7076   4.440   7.036   5.139
68415SOL     OW 7077   1.047   0.382   4.437
68415SOL    HW1 7078   0.966   0.411   4.393
68415SOL    HW2 7079   1.021   0.304   4.486
68416SOL     OW 7080   6.068   7.192   8.801
68416SOL    HW1 7081   5.987   7.143   8.789
68416SOL    HW2 7082   6.042   7.270   8.851
68417SOL     OW 7083   2.444   0.796  14.095
68417SOL    HW1 7084   2.502   0.748  14.036
68417SOL    HW2 7085   2.379   0.731  14.122
68418SOL     OW 7086  14.233   3.976   5.800
68418SOL    HW1 7087  14.294   4.022   5.857
68418SOL    HW2 7088  14.151   3.973   5.849
68419SOL     OW 7089  12.258   6.923  13.698
68419SOL    HW1 7090  12.176   6.967  13.675
68419SOL    HW2 7091  12.282   6.960  13.783
68420SOL     OW 7092   6.388   4.593   8.992
68420SOL    HW1 7093   6.408   4.604   8.899
68420SOL    HW2 7094   6.294   4.612   8.999
68421SOL     OW 7095   3.023  11.051   7.185
68421SOL    HW1 7096   3.078  11.071   7.260
68421SOL    HW2 7097   2.952  11.115   7.189
68422SOL     OW 7098   0.420  13.760  10.807
68422SOL    HW1 7099   0.441  13.695  10.873
68422SOL    HW2 7100   0.468  13.732  10.729
68423SOL     OW 7101   1.649  12.748  11.382
68423SOL    HW1 7102   1.611  12.835  11.369
68423SOL    HW2 7103   1.610  12.716  11.463
68424SOL     OW 7104   2.277  11.796   7.424
68424SOL    HW1 7105   2.191  11.839   7.421
68424SOL    HW2 7106   2.284  11.764   7.514
68425SOL     OW 7107  13.142  10.021  11.997
68425SOL    HW1 7108  13.055   9.988  11.974
68425SOL    HW2 7109  13.182   9.952  12.049
68426SOL     OW 7110  14.557  13.612   9.628
68426SOL    HW1 7111  14.631  13.595   9.569
68426SOL    HW2 7112  14.525  13.698   9.601
68427SOL     OW 7113   6.321  10.500   0.897
68427SOL    HW1 7114   6.309  10.535   0.809
68427SOL    HW2 7115   6.260  10.427   0.903
68428SOL     OW 7116  11.053   1.137  13.889
68428SOL    HW1 7117  11.099   1.201  13.834
68428SOL    HW2 7118  11.123   1.079  13.920
68429SOL     OW 7119  13.370   7.530  12.067
68429SOL    HW1 7120  13.435   7.472  12.026
68429SOL    HW2 7121  13.291   7.476  12.074
68430SOL     OW 7122  12.466  13.142   8.242
68430SOL    HW1 7123  12.455  13.135   8.336
68430SOL    HW2 7124  12.499  13.231   8.228
68431SOL     OW 7125   9.881   4.065   3.783
68431SOL    HW1 7126   9.802   4.016   3.809
68431SOL    HW2 7127   9.900   4.120   3.859
68432SOL     OW 7128   2.835   1.776   9.486
68432SOL    HW1 7129   2.776   1.849   9.464
68432SOL    HW2 7130   2.922   1.809   9.463
68433SOL     OW 7131   4.771  13.581   5.330
68433SOL    HW1 7132   4.814  13.666   5.331
68433SOL    HW2 7133   4.702  13.588   5.396
68434SOL     OW 7134  10.289  14.599   3.433
68434SOL    HW1 7135  10.291  14.677   3.378
68434SOL    HW2 7136  10.240  14.626   3.511
68435SOL     OW 7137   2.748  12.968   0.035
68435SOL    HW1 7138   2.745  12.882  14.868
68435SOL    HW2 7139   2.839  12.996   0.026
68436SOL     OW 7140   8.685   3.910   4.203
68436SOL    HW1 7141   8.714   3.856   4.130
68436SOL    HW2 7142   8.641   3.984   4.162
68437SOL     OW 7143  11.252   7.481  10.079
68437SOL    HW1 7144  11.279   7.509  10.167
68437SOL    HW2 7145  11.156   7.489  10.079
68438SOL     OW 7146   3.086   8.274   7.727
68438SOL    HW1 7147   3.148   8.308   7.792
68438SOL    HW2 7148   3.039   8.205   7.774
68439SOL     OW 7149  12.709   7.449   5.375
68439SOL    HW1 7150  12.621   7.419   5.353
68439SOL    HW2 7151  12.696   7.536   5.413
68440SOL     OW 7152   4.634   8.931  14.584
68440SOL    HW1 7153   4.631   9.016  14.539
68440SOL    HW2 7154   4.543   8.901  14.584
68441SOL     OW 7155   7.025   3.239   8.298
68441SOL    HW1 7156   7.073   3.175   8.352
68441SOL    HW2 7157   7.055   3.324   8.330
68442SOL     OW 7158   4.691  11.142  11.196
68442SOL    HW1 7159   4.781  11.162  11.219
68442SOL    HW2 7160   4.696  11.059  11.149
68443SOL     OW 7161   4.173  11.323   6.004
68443SOL    HW1 7162   4.220  11.257   5.953
68443SOL    HW2 7163   4.143  11.387   5.939
68444SOL     OW 7164  11.843  13.110   5.371
68444SOL    HW1 7165  11.892  13.055   5.309
68444SOL    HW2 7166  11.847  13.198   5.333
68445SOL     OW 7167   5.774   0.232   2.196
68445SOL    HW1 7168   5.733   0.148   2.175
68445SOL    HW2 7169   5.848   0.238   2.135
68446SOL     OW 7170   7.834  11.964   9.276
68446SOL    HW1 7171   7.758  12.019   9.296
68446SOL    HW2 7172   7.898  11.986   9.344
68447SOL     OW 7173   1.171   9.364  10.997
68447SOL    HW1 7174   1.094   9.314  10.971
68447SOL    HW2 7175   1.190   9.420  10.922
68448SOL     OW 7176  11.390   9.817   0.100
68448SOL    HW1 7177  11.483   9.822   0.120
68448SOL    HW2 7178  11.384   9.758   0.025
68449SOL     OW 7179   8.866   0.977  13.645
68449SOL    HW1 7180   8.911   0.979  13.730
68449SOL    HW2 7181   8.773   0.967  13.668
68450SOL     OW 7182   0.243  10.988   1.249
68450SOL    HW1 7183   0.231  10.954   1.160
68450SOL    HW2 7184   0.171  10.950   1.299
68451SOL     OW 7185   8.225   4.740   1.356
68451SOL    HW1 7186   8.201   4.751   1.264
68451SOL    HW2 7187   8.156   4.783   1.405
68452SOL     OW 7188   4.827   2.130   5.741
68452SOL    HW1 7189   4.774   2.190   5.793
68452SOL    HW2 7190   4.905   2.181   5.719
68453SOL     OW 7191  14.359   2.028  10.389
68453SOL    HW1 7192  14.369   2.012  10.482
68453SOL    HW2 7193  14.423   1.969  10.347
68454SOL     OW 7194   6.994  10.209   1.240
68454SOL    HW1 7195   6.933  10.195   1.168
68454SOL    HW2 7196   6.953  10.166   1.315
68455SOL     OW 7197   4.497   8.891   0.220
68455SOL    HW1 7198   4.539   8.811   0.190
68455SOL    HW2 7199   4.561   8.960   0.203
68456SOL     OW 7200  12.926   1.086   6.989
68456SOL    HW1 7201  12.881   1.040   6.919
68456SOL    HW2 7202  13.010   1.113   6.951
68457SOL     OW 7203   0.126  11.095  14.346
68457SOL    HW1 7204   0.048  11.128  14.301
68457SOL    HW2 7205   0.096  11.018  14.394
68458SOL     OW 7206   4.946   0.255   9.127
68458SOL    HW1 7207   4.885   0.182   9.122
68458SOL    HW2 7208   4.962   0.268   9.221
68459SOL     OW 7209   3.914  12.610   9.811
68459SOL    HW1 7210   3.879  12.662   9.884
68459SOL    HW2 7211   3.837  12.567   9.774
68460SOL     OW 7212   9.649  12.960   1.791
68460SOL    HW1 7213   9.693  12.910   1.860
68460SOL    HW2 7214   9.677  13.050   1.804
68461SOL     OW 7215   5.947   2.354   0.393
68461SOL    HW1 7216   5.860   2.390   0.373
68461SOL    HW2 7217   5.962   2.378   0.484
68462SOL     OW 7218   2.750   3.327   8.857
68462SOL    HW1 7219   2.824   3.276   8.889
68462SOL    HW2 7220   2.692   3.263   8.817
68463SOL     OW 7221  10.222  12.226   1.416
68463SOL    HW1 7222  10.158  12.199   1.350
68463SOL    HW2 7223  10.169  12.244   1.494
68464SOL     OW 7224   2.816   9.421   7.268
68464SOL    HW1 7225   2.885   9.487   7.262
68464SOL    HW2 7226   2.859   9.345   7.307
68465SOL     OW 7227   3.551  12.487  10.948
68465SOL    HW1 7228   3.605  12.421  10.991
68465SOL    HW2 7229   3.508  12.440  10.877
68466SOL     OW 7230  10.331   6.169   2.234
68466SOL    HW1 7231  10.276   6.193   2.309
68466SOL    HW2 7232  10.330   6.247   2.178
68467SOL     OW 7233   0.310   2.003   9.588
68467SOL    HW1 7234   0.342   2.094   9.582
68467SOL    HW2 7235   0.390   1.950   9.586
68468SOL     OW 7236   1.073   3.868   9.975
68468SOL    HW1 7237   1.161   3.856  10.011
68468SOL    HW2 7238   1.028   3.921  10.040
68469SOL     OW 7239  11.997  13.896   1.559
68469SOL    HW1 7240  12.026  13.807   1.581
68469SOL    HW2 7241  11.951  13.926   1.638
68470SOL     OW 7242   0.290   9.806   1.202
68470SOL    HW1 7243   0.195   9.807   1.205
68470SOL    HW2 7244   0.316   9.892   1.233
68471SOL     OW 7245  13.960   6.762  11.687
68471SOL    HW1 7246  13.954   6.785  11.780
68471SOL    HW2 7247  13.977   6.668  11.686
68472SOL     OW 7248   0.997  13.166   2.450
68472SOL    HW1 7249   0.973  13.251   2.486
68472SOL    HW2 7250   0.981  13.175   2.356
68473SOL     OW 7251   3.236   3.997  11.557
68473SOL    HW1 7252   3.261   3.999  11.649
68473SOL    HW2 7253   3.246   3.905  11.531
68474SOL     OW 7254   7.574  14.848  10.253
68474SOL    HW1 7255   7.652  14.868  10.201
68474SOL    HW2 7256   7.514  14.807  10.190
68475SOL     OW 7257  14.075  14.648   4.808
68475SOL    HW1 7258  13.981  14.668   4.801
68475SOL    HW2 7259  14.107  14.709   4.875
68476SOL     OW 7260  12.143   1.653   9.364
68476SOL    HW1 7261  12.098   1.686   9.286
68476SOL    HW2 7262  12.135   1.724   9.428
68477SOL     OW 7263  13.536   3.453   5.231
68477SOL    HW1 7264  13.544   3.535   5.280
68477SOL    HW2 7265  13.448   3.422   5.250
68478SOL     OW 7266   8.004   7.517   0.249
68478SOL    HW1 7267   7.919   7.555   0.269
68478SOL    HW2 7268   7.985   7.425   0.230
68479SOL     OW 7269  14.160  12.939   5.217
68479SOL    HW1 7270  14.156  12.936   5.313
68479SOL    HW2 7271  14.139  13.029   5.195
68480SOL     OW 7272  14.563   3.067   1.024
68480SOL    HW1 7273  14.499   3.099   1.087
68480SOL    HW2 7274  14.647   3.100   1.056
68481SOL     OW 7275  12.576  14.254   4.292
68481SOL    HW1 7276  12.550  14.176   4.243
68481SOL    HW2 7277  12.671  14.246   4.300
68482SOL     OW 7278   1.928  13.582   8.742
68482SOL    HW1 7279   1.893  13.494   8.756
68482SOL    HW2 7280   2.010  13.583   8.791
68483SOL     OW 7281   6.019  13.078   1.079
68483SOL    HW1 7282   6.048  12.992   1.048
68483SOL    HW2 7283   6.064  13.090   1.162
68484SOL     OW 7284  11.571   0.965  14.289
68484SOL    HW1 7285  11.596   1.027  14.357
68484SOL    HW2 7286  11.507   1.012  14.236
68485SOL     OW 7287   4.250   9.614   3.548
68485SOL    HW1 7288   4.284   9.613   3.458
68485SOL    HW2 7289   4.263   9.524   3.579
68486SOL     OW 7290  10.873   4.308   5.645
68486SOL    HW1 7291  10.783   4.290   5.616
68486SOL    HW2 7292  10.866   4.392   5.692
68487SOL     OW 7293   9.364  13.198  14.683
68487SOL    HW1 7294   9.374  13.272  14.743
68487SOL    HW2 7295   9.307  13.231  14.614
68488SOL     OW 7296  13.984  12.859   7.580
68488SOL    HW1 7297  13.907  12.907   7.609
68488SOL    HW2 7298  13.950  12.795   7.517
68489SOL     OW 7299   4.555   8.581  14.146
68489SOL    HW1 7300   4.462   8.595  14.165
68489SOL    HW2 7301   4.565   8.485  14.147
68490SOL     OW 7302  10.179   1.510   9.395
68490SOL    HW1 7303  10.112   1.444   9.378
68490SOL    HW2 7304  10.133   1.580   9.440
68491SOL     OW 7305   4.925  14.295   6.104
68491SOL    HW1 7306   4.935  14.200   6.108
68491SOL    HW2 7307   4.835  14.310   6.134
68492SOL     OW 7308  12.845   7.894   7.585
68492SOL    HW1 7309  12.807   7.954   7.650
68492SOL    HW2 7310  12.815   7.927   7.501
68493SOL     OW 7311   3.687  13.468  10.138
68493SOL    HW1 7312   3.594  13.488  10.122
68493SOL    HW2 7313   3.734  13.529  10.082
68494SOL     OW 7314  11.284  14.730  11.593
68494SOL    HW1 7315  11.195  14.761  11.604
68494SOL    HW2 7316  11.285  14.643  11.633
68495SOL     OW 7317   5.048  11.936   8.446
68495SOL    HW1 7318   5.052  12.012   8.388
68495SOL    HW2 7319   5.075  11.862   8.391
68496SOL     OW 7320   0.794   6.534   7.058
68496SOL    HW1 7321   0.886   6.547   7.036
68496SOL    HW2 7322   0.751   6.520   6.973
68497SOL     OW 7323  11.181   7.608   3.757
68497SOL    HW1 7324  11.122   7.615   3.833
68497SOL    HW2 7325  11.236   7.533   3.777
68498SOL     OW 7326   0.027  12.236   6.171
68498SOL    HW1 7327  14.827  12.279   6.126
68498SOL    HW2 7328  14.867  12.149   6.193
68499SOL     OW 7329   7.259   7.723   3.310
68499SOL    HW1 7330   7.218   7.807   3.334
68499SOL    HW2 7331   7.214   7.699   3.228
68500SOL     OW 7332   5.665  11.887   8.901
68500SOL    HW1 7333   5.678  11.832   8.979
68500SOL    HW2 7334   5.668  11.977   8.934
68501SOL     OW 7335   0.037   7.664  13.862
68501SOL    HW1 7336  14.827   7.639  13.821
68501SOL    HW2 7337   0.024   7.645  13.955
68502SOL     OW 7338   5.191  12.550   5.343
68502SOL    HW1 7339   5.166  12.596   5.262
68502SOL    HW2 7340   5.233  12.469   5.312
68503SOL     OW 7341   9.861   4.711   5.640
68503SOL    HW1 7342   9.923   4.639   5.631
68503SOL    HW2 7343   9.794   4.693   5.573
68504SOL     OW 7344  12.489   4.693   9.110
68504SOL    HW1 7345  12.410   4.686   9.163
68504SOL    HW2 7346  12.488   4.783   9.077
68505SOL     OW 7347   0.331  13.814   1.708
68505SOL    HW1 7348   0.419  13.805   1.672
68505SOL    HW2 7349   0.291  13.728   1.694
68506SOL     OW 7350   5.728   0.372   5.022
68506SOL    HW1 7351   5.787   0.338   4.955
68506SOL    HW2 7352   5.694   0.454   4.985
68507SOL     OW 7353   6.474   9.634   0.244
68507SOL    HW1 7354   6.487   9.557   0.188
68507SOL    HW2 7355   6.449   9.703   0.184
68508SOL     OW 7356   8.992   4.757  13.258
68508SOL    HW1 7357   8.989   4.668  13.292
68508SOL    HW2 7358   8.977   4.748  13.164
68509SOL     OW 7359   2.528   9.275  10.517
68509SOL    HW1 7360   2.470   9.223  10.572
68509SOL    HW2 7361   2.585   9.321  10.579
68510SOL     OW 7362  11.277   7.645   5.124
68510SOL    HW1 7363  11.197   7.685   5.157
68510SOL    HW2 7364  11.247   7.586   5.055
68511SOL     OW 7365  11.168  14.851  14.282
68511SOL    HW1 7366  11.245  14.857  14.225
68511SOL    HW2 7367  11.095  14.840  14.221
68512SOL     OW 7368   6.121   3.489   0.969
68512SOL    HW1 7369   6.057   3.554   0.941
68512SOL    HW2 7370   6.074   3.405   0.964
68513SOL     OW 7371   0.036  11.768   6.064
68513SOL    HW1 7372   0.066  11.714   6.137
68513SOL    HW2 7373   0.020  11.706   5.993
68514SOL     OW 7374   8.675   4.459   2.642
68514SOL    HW1 7375   8.640   4.530   2.588
68514SOL    HW2 7376   8.770   4.469   2.637
68515SOL     OW 7377   1.699   8.106   3.873
68515SOL    HW1 7378   1.705   8.190   3.919
68515SOL    HW2 7379   1.681   8.129   3.782
68516SOL     OW 7380  13.018   8.332   6.226
68516SOL    HW1 7381  13.091   8.376   6.271
68516SOL    HW2 7382  12.940   8.380   6.254
68517SOL     OW 7383   8.690   1.212   4.775
68517SOL    HW1 7384   8.660   1.241   4.689
68517SOL    HW2 7385   8.715   1.292   4.821
68518SOL     OW 7386   0.292   7.056   4.397
68518SOL    HW1 7387   0.292   6.962   4.411
68518SOL    HW2 7388   0.382   7.083   4.415
68519SOL     OW 7389  14.499  13.727   5.669
68519SOL    HW1 7390  14.477  13.634   5.665
68519SOL    HW2 7391  14.458  13.759   5.749
68520SOL     OW 7392  12.295   9.631   0.613
68520SOL    HW1 7393  12.358   9.581   0.664
68520SOL    HW2 7394  12.219   9.573   0.604
68521SOL     OW 7395   9.010  11.878   0.749
68521SOL    HW1 7396   9.055  11.947   0.797
68521SOL    HW2 7397   9.018  11.904   0.657
68522SOL     OW 7398   8.523   4.371   7.947
68522SOL    HW1 7399   8.495   4.330   7.865
68522SOL    HW2 7400   8.599   4.423   7.923
68523SOL     OW 7401  12.553   2.138   5.897
68523SOL    HW1 7402  12.502   2.138   5.816
68523SOL    HW2 7403  12.605   2.058   5.893
68524SOL     OW 7404   6.477  14.096   3.517
68524SOL    HW1 7405   6.538  14.170   3.524
68524SOL    HW2 7406   6.453  14.094   3.424
68525SOL     OW 7407  14.519  11.093   2.488
68525SOL    HW1 7408  14.559  11.009   2.463
68525SOL    HW2 7409  14.472  11.074   2.569
68526SOL     OW 7410  12.253   1.617  11.871
68526SOL    HW1 7411  12.346   1.602  11.851
68526SOL    HW2 7412  12.210   1.534  11.851
68527SOL     OW 7413  11.298   1.581   0.404
68527SOL    HW1 7414  11.393   1.578   0.396
68527SOL    HW2 7415  11.266   1.536   0.325
68528SOL     OW 7416   8.655   5.183   8.184
68528SOL    HW1 7417   8.717   5.168   8.112
68528SOL    HW2 7418   8.661   5.104   8.238
68529SOL     OW 7419   5.793   0.218   8.135
68529SOL    HW1 7420   5.768   0.171   8.055
68529SOL    HW2 7421   5.869   0.270   8.109
68530SOL     OW 7422   0.329   3.079  10.145
68530SOL    HW1 7423   0.343   3.173  10.154
68530SOL    HW2 7424   0.412   3.040  10.175
68531SOL     OW 7425   6.251   2.862   3.066
68531SOL    HW1 7426   6.210   2.891   3.147
68531SOL    HW2 7427   6.337   2.829   3.093
68532SOL     OW 7428  10.357  12.483   4.829
68532SOL    HW1 7429  10.286  12.466   4.767
68532SOL    HW2 7430  10.355  12.409   4.890
68533SOL     OW 7431  10.101  13.034  12.944
68533SOL    HW1 7432  10.125  13.020  12.853
68533SOL    HW2 7433  10.151  12.968  12.992
68534SOL     OW 7434  10.625   2.637   5.680
68534SOL    HW1 7435  10.580   2.571   5.627
68534SOL    HW2 7436  10.558   2.671   5.739
68535SOL     OW 7437  11.939   6.219  12.770
68535SOL    HW1 7438  11.852   6.178  12.767
68535SOL    HW2 7439  11.947   6.252  12.860
68536SOL     OW 7440   7.052   9.106  12.492
68536SOL    HW1 7441   6.982   9.166  12.516
68536SOL    HW2 7442   7.131   9.160  12.494
68537SOL     OW 7443   7.519   9.990   8.512
68537SOL    HW1 7444   7.488   9.911   8.468
68537SOL    HW2 7445   7.504   9.973   8.605
68538SOL     OW 7446   7.973   9.431   2.287
68538SOL    HW1 7447   8.048   9.435   2.346
68538SOL    HW2 7448   8.008   9.396   2.205
68539SOL     OW 7449   4.704   4.135   8.691
68539SOL    HW1 7450   4.683   4.217   8.734
68539SOL    HW2 7451   4.788   4.108   8.729
68540SOL     OW 7452  11.476   8.725   0.098
68540SOL    HW1 7453  11.539   8.797   0.092
68540SOL    HW2 7454  11.391   8.768   0.091
68541SOL     OW 7455   5.276  11.645  12.652
68541SOL    HW1 7456   5.345  11.701  12.617
68541SOL    HW2 7457   5.291  11.560  12.611
68542SOL     OW 7458   2.342  11.216   3.684
68542SOL    HW1 7459   2.277  11.208   3.754
68542SOL    HW2 7460   2.309  11.161   3.614
68543SOL     OW 7461   3.401   9.364   2.580
68543SOL    HW1 7462   3.320   9.390   2.625
68543SOL    HW2 7463   3.444   9.447   2.557
68544SOL     OW 7464   6.372  14.511  10.377
68544SOL    HW1 7465   6.309  14.454  10.333
68544SOL    HW2 7466   6.454  14.499  10.328
68545SOL     OW 7467   0.471  14.397   2.072
68545SOL    HW1 7468   0.439  14.424   1.986
68545SOL    HW2 7469   0.461  14.302   2.074
68546SOL     OW 7470  13.392  12.621   2.231
68546SOL    HW1 7471  13.432  12.569   2.161
68546SOL    HW2 7472  13.456  12.690   2.250
68547SOL     OW 7473  10.653   2.991   1.619
68547SOL    HW1 7474  10.627   3.082   1.608
68547SOL    HW2 7475  10.585   2.953   1.674
68548SOL     OW 7476  11.576   6.834   1.201
68548SOL    HW1 7477  11.603   6.926   1.200
68548SOL    HW2 7478  11.625   6.795   1.273
68549SOL     OW 7479  10.164   2.800   1.253
68549SOL    HW1 7480  10.207   2.880   1.284
68549SOL    HW2 7481  10.071   2.814   1.272
68550SOL     OW 7482   7.187   1.501   4.714
68550SOL    HW1 7483   7.099   1.523   4.742
68550SOL    HW2 7484   7.231   1.585   4.704
68551SOL     OW 7485   1.621   3.415   1.322
68551SOL    HW1 7486   1.692   3.414   1.386
68551SOL    HW2 7487   1.634   3.337   1.269
68552SOL     OW 7488  13.764   8.789  12.947
68552SOL    HW1 7489  13.727   8.839  13.020
68552SOL    HW2 7490  13.847   8.756  12.980
68553SOL     OW 7491   0.818   6.458   7.745
68553SOL    HW1 7492   0.841   6.507   7.824
68553SOL    HW2 7493   0.761   6.517   7.696
68554SOL     OW 7494   1.867   4.519   7.487
68554SOL    HW1 7495   1.876   4.515   7.582
68554SOL    HW2 7496   1.906   4.436   7.457
68555SOL     OW 7497   0.597   0.888   5.555
68555SOL    HW1 7498   0.625   0.974   5.587
68555SOL    HW2 7499   0.559   0.845   5.632
68556SOL     OW 7500  11.186  13.988   8.215
68556SOL    HW1 7501  11.207  14.078   8.190
68556SOL    HW2 7502  11.140  13.997   8.299
68557SOL     OW 7503   6.302  12.842  11.746
68557SOL    HW1 7504   6.349  12.821  11.827
68557SOL    HW2 7505   6.368  12.879  11.688
68558SOL     OW 7506   2.035   5.735  13.837
68558SOL    HW1 7507   1.966   5.799  13.853
68558SOL    HW2 7508   1.991   5.663  13.792
68559SOL     OW 7509   5.675  12.753  13.589
68559SOL    HW1 7510   5.747  12.691  13.576
68559SOL    HW2 7511   5.654  12.746  13.683
68560SOL     OW 7512   7.439  10.238   4.630
68560SOL    HW1 7513   7.425  10.167   4.693
68560SOL    HW2 7514   7.534  10.242   4.620
68561SOL     OW 7515   5.329  10.711   5.674
68561SOL    HW1 7516   5.275  10.633   5.692
68561SOL    HW2 7517   5.335  10.714   5.579
68562SOL     OW 7518   4.658   4.336   2.505
68562SOL    HW1 7519   4.726   4.402   2.491
68562SOL    HW2 7520   4.576   4.380   2.483
68563SOL     OW 7521  11.058  13.628   7.816
68563SOL    HW1 7522  11.011  13.664   7.741
68563SOL    HW2 7523  11.109  13.701   7.850
68564SOL     OW 7524   1.377   7.457   3.612
68564SOL    HW1 7525   1.390   7.545   3.647
68564SOL    HW2 7526   1.448   7.445   3.549
68565SOL     OW 7527  13.850  12.472   3.909
68565SOL    HW1 7528  13.839  12.411   3.837
68565SOL    HW2 7529  13.936  12.511   3.895
68566SOL     OW 7530  11.120   0.948  10.617
68566SOL    HW1 7531  11.189   1.011  10.595
68566SOL    HW2 7532  11.040   1.000  10.618
68567SOL     OW 7533   8.314   5.015   1.314
68567SOL    HW1 7534   8.243   4.956   1.338
68567SOL    HW2 7535   8.313   5.016   1.218
68568SOL     OW 7536  13.987   6.999   7.497
68568SOL    HW1 7537  14.068   7.022   7.544
68568SOL    HW2 7538  13.939   6.944   7.558
68569SOL     OW 7539   6.315   1.197  10.310
68569SOL    HW1 7540   6.365   1.218  10.389
68569SOL    HW2 7541   6.345   1.109  10.286
68570SOL     OW 7542  13.079  12.840   8.856
68570SOL    HW1 7543  13.161  12.883   8.881
68570SOL    HW2 7544  13.090  12.750   8.884
68571SOL     OW 7545   5.490  10.031  13.813
68571SOL    HW1 7546   5.545  10.105  13.788
68571SOL    HW2 7547   5.487  10.034  13.909
68572SOL     OW 7548   5.216   9.151  13.118
68572SOL    HW1 7549   5.142   9.197  13.077
68572SOL    HW2 7550   5.175   9.077  13.162
68573SOL     OW 7551   1.020  13.986   9.868
68573SOL    HW1 7552   0.941  13.931   9.872
68573SOL    HW2 7553   0.989  14.073   9.896
68574SOL     OW 7554  11.946   9.753   6.725
68574SOL    HW1 7555  11.901   9.831   6.759
68574SOL    HW2 7556  12.026   9.787   6.685
68575SOL     OW 7557   3.771   0.680  13.310
68575SOL    HW1 7558   3.844   0.649  13.364
68575SOL    HW2 7559   3.698   0.688  13.371
68576SOL     OW 7560   5.896   9.660   5.873
68576SOL    HW1 7561   5.911   9.567   5.858
68576SOL    HW2 7562   5.983   9.696   5.891
68577SOL     OW 7563   9.171  10.243  10.881
68577SOL    HW1 7564   9.160  10.275  10.791
68577SOL    HW2 7565   9.188  10.322  10.932
68578SOL     OW 7566   6.042  10.828  14.480
68578SOL    HW1 7567   5.956  10.868  14.467
68578SOL    HW2 7568   6.103  10.901  14.471
68579SOL     OW 7569   2.569  14.826   5.351
68579SOL    HW1 7570   2.546  14.736   5.330
68579SOL    HW2 7571   2.486   0.002   5.343
68580SOL     OW 7572   1.700   7.495   6.379
68580SOL    HW1 7573   1.767   7.549   6.337
68580SOL    HW2 7574   1.650   7.458   6.306
68581SOL     OW 7575   6.332   7.685   2.909
68581SOL    HW1 7576   6.397   7.740   2.953
68581SOL    HW2 7577   6.367   7.596   2.914
68582SOL     OW 7578   5.479   6.698  14.603
68582SOL    HW1 7579   5.418   6.696  14.529
68582SOL    HW2 7580   5.425   6.681  14.680
68583SOL     OW 7581  12.536  13.887  10.919
68583SOL    HW1 7582  12.506  13.874  11.010
68583SOL    HW2 7583  12.489  13.820  10.869
68584SOL     OW 7584  11.820   0.665   9.154
68584SOL    HW1 7585  11.862   0.581   9.135
68584SOL    HW2 7586  11.798   0.659   9.247
68585SOL     OW 7587   9.887   1.151   8.449
68585SOL    HW1 7588   9.971   1.184   8.481
68585SOL    HW2 7589   9.843   1.228   8.413
68586SOL     OW 7590   6.816  13.347   9.236
68586SOL    HW1 7591   6.867  13.305   9.305
68586SOL    HW2 7592   6.772  13.276   9.191
68587SOL     OW 7593  10.185   9.205   3.518
68587SOL    HW1 7594  10.154   9.286   3.478
68587SOL    HW2 7595  10.105   9.163   3.552
68588SOL     OW 7596   7.877   5.332   5.756
68588SOL    HW1 7597   7.874   5.322   5.661
68588SOL    HW2 7598   7.967   5.311   5.779
68589SOL     OW 7599  13.274   0.756   9.370
68589SOL    HW1 7600  13.183   0.754   9.340
68589SOL    HW2 7601  13.275   0.700   9.448
68590SOL     OW 7602  14.150  12.285   3.645
68590SOL    HW1 7603  14.231  12.255   3.603
68590SOL    HW2 7604  14.177  12.308   3.734
68591SOL     OW 7605   7.950   5.054   0.863
68591SOL    HW1 7606   7.979   5.021   0.778
68591SOL    HW2 7607   7.920   5.143   0.844
68592SOL     OW 7608   3.809  10.953   8.635
68592SOL    HW1 7609   3.744  10.894   8.597
68592SOL    HW2 7610   3.786  10.957   8.728
68593SOL     OW 7611  13.637   3.333   2.822
68593SOL    HW1 7612  13.685   3.374   2.894
68593SOL    HW2 7613  13.705   3.307   2.760
68594SOL     OW 7614   1.337   8.018  13.246
68594SOL    HW1 7615   1.299   7.934  13.219
68594SOL    HW2 7616   1.382   7.998  13.328
68595SOL     OW 7617  10.502   7.364   2.087
68595SOL    HW1 7618  10.432   7.333   2.144
68595SOL    HW2 7619  10.463   7.439   2.041
68596SOL     OW 7620   8.467   1.393  11.599
68596SOL    HW1 7621   8.497   1.320  11.544
68596SOL    HW2 7622   8.544   1.419  11.650
68597SOL     OW 7623  12.265   6.681   4.016
68597SOL    HW1 7624  12.274   6.604   3.960
68597SOL    HW2 7625  12.352   6.722   4.015
68598SOL     OW 7626  11.120   5.851  13.211
68598SOL    HW1 7627  11.214   5.841  13.196
68598SOL    HW2 7628  11.098   5.937  13.174
68599SOL     OW 7629   9.255   3.821  14.571
68599SOL    HW1 7630   9.242   3.909  14.607
68599SOL    HW2 7631   9.223   3.827  14.481
68600SOL     OW 7632  13.703  11.926  13.657
68600SOL    HW1 7633  13.764  11.950  13.728
68600SOL    HW2 7634  13.619  11.916  13.701
68601SOL     OW 7635   8.137   9.274   2.102
68601SOL    HW1 7636   8.199   9.222   2.153
68601SOL    HW2 7637   8.174   9.276   2.014
68602SOL     OW 7638  10.750   4.256  13.005
68602SOL    HW1 7639  10.669   4.299  13.035
68602SOL    HW2 7640  10.745   4.168  13.042
68603SOL     OW 7641   5.519   9.904  13.208
68603SOL    HW1 7642   5.553   9.943  13.288
68603SOL    HW2 7643   5.561   9.953  13.138
68604SOL     OW 7644   9.700  13.607  10.413
68604SOL    HW1 7645   9.784  13.569  10.385
68604SOL    HW2 7646   9.649  13.613  10.332
68605SOL     OW 7647   1.878   7.890   8.170
68605SOL    HW1 7648   1.790   7.911   8.202
68605SOL    HW2 7649   1.872   7.903   8.075
68606SOL     OW 7650  13.643  14.763   6.770
68606SOL    HW1 7651  13.726  14.809   6.762
68606SOL    HW2 7652  13.660  14.675   6.734
68607SOL     OW 7653   6.564   0.138   4.224
68607SOL    HW1 7654   6.596   0.219   4.264
68607SOL    HW2 7655   6.488   0.164   4.173
68608SOL     OW 7656   0.593   3.525   5.817
68608SOL    HW1 7657   0.611   3.619   5.803
68608SOL    HW2 7658   0.663   3.497   5.876
68609SOL     OW 7659  11.813   6.514   4.750
68609SOL    HW1 7660  11.878   6.570   4.793
68609SOL    HW2 7661  11.818   6.539   4.657
68610SOL     OW 7662   7.692   2.444   1.761
68610SOL    HW1 7663   7.738   2.528   1.753
68610SOL    HW2 7664   7.712   2.414   1.850
68611SOL     OW 7665   7.796  13.174   2.311
68611SOL    HW1 7666   7.788  13.182   2.216
68611SOL    HW2 7667   7.790  13.080   2.328
68612SOL     OW 7668   0.096   8.058  11.797
68612SOL    HW1 7669   0.021   8.113  11.775
68612SOL    HW2 7670   0.148   8.111  11.857
68613SOL     OW 7671   6.898   4.777   7.315
68613SOL    HW1 7672   6.927   4.686   7.329
68613SOL    HW2 7673   6.832   4.792   7.382
68614SOL     OW 7674  13.188   0.297  11.525
68614SOL    HW1 7675  13.165   0.387  11.548
68614SOL    HW2 7676  13.248   0.305  11.450
68615SOL     OW 7677   1.886  11.900   7.201
68615SOL    HW1 7678   1.831  11.885   7.124
68615SOL    HW2 7679   1.953  11.832   7.195
68616SOL     OW 7680  10.717  11.819  12.832
68616SOL    HW1 7681  10.680  11.748  12.780
68616SOL    HW2 7682  10.705  11.791  12.922
68617SOL     OW 7683   9.513   7.690   0.463
68617SOL    HW1 7684   9.595   7.721   0.502
68617SOL    HW2 7685   9.540   7.626   0.397
68618SOL     OW 7686   1.271   7.541  12.624
68618SOL    HW1 7687   1.280   7.449  12.601
68618SOL    HW2 7688   1.296   7.588  12.544
68619SOL     OW 7689   1.056   8.396   4.144
68619SOL    HW1 7690   0.991   8.335   4.179
68619SOL    HW2 7691   1.004   8.462   4.097
68620SOL     OW 7692   7.708   9.759  10.448
68620SOL    HW1 7693   7.692   9.853  10.457
68620SOL    HW2 7694   7.672   9.721  10.528
68621SOL     OW 7695  10.302   4.291   1.795
68621SOL    HW1 7696  10.247   4.365   1.819
68621SOL    HW2 7697  10.240   4.223   1.768
68622SOL     OW 7698  11.340   1.557   7.700
68622SOL    HW1 7699  11.373   1.625   7.759
68622SOL    HW2 7700  11.409   1.490   7.700
68623SOL     OW 7701  11.575  14.790   0.922
68623SOL    HW1 7702  11.626  14.722   0.967
68623SOL    HW2 7703  11.572  14.762   0.831
68624SOL     OW 7704   5.233  12.753   1.478
68624SOL    HW1 7705   5.306  12.814   1.467
68624SOL    HW2 7706   5.203  12.736   1.389
68625SOL     OW 7707  14.587  13.700  11.957
68625SOL    HW1 7708  14.582  13.644  11.879
68625SOL    HW2 7709  14.635  13.777  11.927
68626SOL     OW 7710   7.108  13.454  13.726
68626SOL    HW1 7711   7.014  13.467  13.736
68626SOL    HW2 7712   7.147  13.538  13.751
68627SOL     OW 7713   6.590  10.779  13.716
68627SOL    HW1 7714   6.512  10.762  13.664
68627SOL    HW2 7715   6.563  10.761  13.806
68628SOL     OW 7716   0.764  14.458   0.451
68628SOL    HW1 7717   0.825  14.385   0.462
68628SOL    HW2 7718   0.698  14.426   0.390
68629SOL     OW 7719   1.551   8.065   6.622
68629SOL    HW1 7720   1.487   8.004   6.585
68629SOL    HW2 7721   1.624   8.009   6.649
68630SOL     OW 7722   3.111   9.737   9.404
68630SOL    HW1 7723   3.191   9.722   9.353
68630SOL    HW2 7724   3.043   9.688   9.356
68631SOL     OW 7725   7.324   6.320   2.169
68631SOL    HW1 7726   7.249   6.340   2.225
68631SOL    HW2 7727   7.302   6.236   2.129
68632SOL     OW 7728  12.941  12.145   9.461
68632SOL    HW1 7729  12.873  12.158   9.395
68632SOL    HW2 7730  12.982  12.231   9.470
68633SOL     OW 7731   4.054   8.982   0.359
68633SOL    HW1 7732   4.037   8.925   0.434
68633SOL    HW2 7733   4.148   8.998   0.362
68634SOL     OW 7734  11.248  11.142  11.104
68634SOL    HW1 7735  11.293  11.226  11.094
68634SOL    HW2 7736  11.233  11.134  11.198
68635SOL     OW 7737  10.477   3.258   7.611
68635SOL    HW1 7738  10.383   3.245   7.594
68635SOL    HW2 7739  10.497   3.201   7.684
68636SOL     OW 7740   0.938   8.268  11.534
68636SOL    HW1 7741   0.854   8.264  11.581
68636SOL    HW2 7742   0.913   8.278  11.442
68637SOL     OW 7743   9.966   7.689   0.714
68637SOL    HW1 7744  10.003   7.758   0.770
68637SOL    HW2 7745  10.014   7.610   0.738
68638SOL     OW 7746  12.450   4.221   5.081
68638SOL    HW1 7747  12.431   4.213   5.175
68638SOL    HW2 7748  12.519   4.157   5.065
68639SOL     OW 7749   7.172   5.474  11.346
68639SOL    HW1 7750   7.175   5.546  11.409
68639SOL    HW2 7751   7.105   5.416  11.379
68640SOL     OW 7752   9.046   8.840  10.047
68640SOL    HW1 7753   9.087   8.754  10.034
68640SOL    HW2 7754   8.993   8.830  10.125
68641SOL     OW 7755   9.854   7.834  12.753
68641SOL    HW1 7756   9.925   7.884  12.792
68641SOL    HW2 7757   9.879   7.826  12.661
68642SOL     OW 7758   7.358   9.957  10.697
68642SOL    HW1 7759   7.311   9.875  10.680
68642SOL    HW2 7760   7.291  10.025  10.694
68643SOL     OW 7761  10.273   9.309  10.642
68643SOL    HW1 7762  10.329   9.352  10.577
68643SOL    HW2 7763  10.255   9.223  10.605
68644SOL     OW 7764   6.052   9.622  14.674
68644SOL    HW1 7765   5.966   9.643  14.711
68644SOL    HW2 7766   6.065   9.686  14.604
68645SOL     OW 7767   5.497   0.331   5.192
68645SOL    HW1 7768   5.577   0.292   5.156
68645SOL    HW2 7769   5.527   0.387   5.263
68646SOL     OW 7770  12.239  13.884   4.581
68646SOL    HW1 7771  12.254  13.949   4.650
68646SOL    HW2 7772  12.194  13.812   4.625
68647SOL     OW 7773  11.365   9.215  13.729
68647SOL    HW1 7774  11.455   9.208  13.761
68647SOL    HW2 7775  11.331   9.125  13.734
68648SOL     OW 7776   0.271  13.069   4.687
68648SOL    HW1 7777   0.221  13.145   4.719
68648SOL    HW2 7778   0.279  13.012   4.763
68649SOL     OW 7779   7.375   8.779  12.716
68649SOL    HW1 7780   7.285   8.807  12.700
68649SOL    HW2 7781   7.370   8.723  12.793
68650SOL     OW 7782   1.849   3.211  11.711
68650SOL    HW1 7783   1.857   3.263  11.631
68650SOL    HW2 7784   1.909   3.252  11.773
68651SOL     OW 7785   2.796  12.172   6.085
68651SOL    HW1 7786   2.856  12.181   6.011
68651SOL    HW2 7787   2.788  12.261   6.120
68652SOL     OW 7788   4.550   3.446   1.628
68652SOL    HW1 7789   4.527   3.507   1.698
68652SOL    HW2 7790   4.484   3.461   1.561
68653SOL     OW 7791   0.841  11.958   8.041
68653SOL    HW1 7792   0.792  11.935   7.962
68653SOL    HW2 7793   0.798  12.037   8.074
68654SOL     OW 7794  10.919   5.146   3.714
68654SOL    HW1 7795  10.836   5.162   3.757
68654SOL    HW2 7796  10.979   5.211   3.752
68655SOL     OW 7797   6.393   2.308  11.975
68655SOL    HW1 7798   6.392   2.263  12.059
68655SOL    HW2 7799   6.366   2.242  11.912
68656SOL     OW 7800   6.455  11.396   5.893
68656SOL    HW1 7801   6.459  11.301   5.894
68656SOL    HW2 7802   6.520  11.423   5.828
68657SOL     OW 7803   4.570   2.614   6.005
68657SOL    HW1 7804   4.540   2.702   5.983
68657SOL    HW2 7805   4.501   2.556   5.973
68658SOL     OW 7806   6.608   1.249   8.087
68658SOL    HW1 7807   6.603   1.235   7.992
68658SOL    HW2 7808   6.533   1.303   8.108
68659SOL     OW 7809   9.875  11.211  10.486
68659SOL    HW1 7810   9.893  11.222  10.392
68659SOL    HW2 7811   9.961  11.206  10.527
68660SOL     OW 7812  10.451   8.415  13.827
68660SOL    HW1 7813  10.544   8.393  13.827
68660SOL    HW2 7814  10.422   8.400  13.917
68661SOL     OW 7815   5.985   4.446   9.079
68661SOL    HW1 7816   6.070   4.424   9.118
68661SOL    HW2 7817   5.946   4.509   9.140
68662SOL     OW 7818  10.806  14.410   8.577
68662SOL    HW1 7819  10.820  14.461   8.497
68662SOL    HW2 7820  10.849  14.461   8.646
68663SOL     OW 7821  13.169  13.191   2.687
68663SOL    HW1 7822  13.120  13.249   2.746
68663SOL    HW2 7823  13.253  13.235   2.675
68664SOL     OW 7824   6.330   6.307   0.005
68664SOL    HW1 7825   6.337   6.403  14.872
68664SOL    HW2 7826   6.280   6.282  14.800
68665SOL     OW 7827  13.770   9.655  12.790
68665SOL    HW1 7828  13.700   9.720  12.799
68665SOL    HW2 7829  13.850   9.707  12.799
68666SOL     OW 7830   4.307   2.631   1.969
68666SOL    HW1 7831   4.217   2.655   1.992
68666SOL    HW2 7832   4.297   2.561   1.904
68667SOL     OW 7833   8.198   4.147  13.562
68667SOL    HW1 7834   8.286   4.114  13.544
68667SOL    HW2 7835   8.167   4.180  13.478
68668SOL     OW 7836   1.550   3.633   9.905
68668SOL    HW1 7837   1.566   3.642   9.811
68668SOL    HW2 7838   1.464   3.592   9.911
68669SOL     OW 7839   5.016  10.714   6.529
68669SOL    HW1 7840   5.043  10.771   6.601
68669SOL    HW2 7841   5.090  10.655   6.515
68670SOL     OW 7842   9.864   3.536   1.070
68670SOL    HW1 7843   9.833   3.613   1.118
68670SOL    HW2 7844   9.920   3.489   1.133
68671SOL     OW 7845  11.799   1.319   1.045
68671SOL    HW1 7846  11.894   1.331   1.042
68671SOL    HW2 7847  11.785   1.235   1.001
68672SOL     OW 7848  14.280   5.124  10.105
68672SOL    HW1 7849  14.249   5.133  10.195
68672SOL    HW2 7850  14.202   5.141  10.052
68673SOL     OW 7851   6.865  11.267   0.665
68673SOL    HW1 7852   6.932  11.200   0.651
68673SOL    HW2 7853   6.862  11.315   0.583
68674SOL     OW 7854  10.481   8.111   7.034
68674SOL    HW1 7855  10.567   8.136   7.068
68674SOL    HW2 7856  10.486   8.126   6.940
68675SOL     OW 7857   3.891   7.473   9.590
68675SOL    HW1 7858   3.941   7.419   9.530
68675SOL    HW2 7859   3.952   7.541   9.618
68676SOL     OW 7860   9.227   9.527  11.288
68676SOL    HW1 7861   9.304   9.562  11.242
68676SOL    HW2 7862   9.198   9.600  11.344
68677SOL     OW 7863  10.958  14.360   9.782
68677SOL    HW1 7864  11.004  14.413   9.718
68677SOL    HW2 7865  10.897  14.307   9.730
68678SOL     OW 7866   2.055   2.188   7.459
68678SOL    HW1 7867   2.038   2.209   7.367
68678SOL    HW2 7868   1.968   2.179   7.498
68679SOL     OW 7869  13.101   1.378   1.219
68679SOL    HW1 7870  13.155   1.449   1.252
68679SOL    HW2 7871  13.096   1.315   1.291
68680SOL     OW 7872  13.392   8.731   3.310
68680SOL    HW1 7873  13.343   8.803   3.350
68680SOL    HW2 7874  13.483   8.748   3.333
68681SOL     OW 7875   0.141  14.186   9.193
68681SOL    HW1 7876   0.136  14.281   9.204
68681SOL    HW2 7877   0.202  14.157   9.260
68682SOL     OW 7878  10.290  13.711   6.303
68682SOL    HW1 7879  10.229  13.654   6.350
68682SOL    HW2 7880  10.338  13.757   6.372
68683SOL     OW 7881   6.802   0.157   1.476
68683SOL    HW1 7882   6.730   0.097   1.496
68683SOL    HW2 7883   6.856   0.156   1.554
68684SOL     OW 7884   1.904  11.856   5.046
68684SOL    HW1 7885   1.991  11.841   5.083
68684SOL    HW2 7886   1.921  11.889   4.958
68685SOL     OW 7887   7.646   4.565   4.384
68685SOL    HW1 7888   7.713   4.618   4.426
68685SOL    HW2 7889   7.585   4.542   4.454
68686SOL     OW 7890  13.556   2.707   6.153
68686SOL    HW1 7891  13.607   2.653   6.213
68686SOL    HW2 7892  13.557   2.658   6.071
68687SOL     OW 7893   3.500   5.110   2.607
68687SOL    HW1 7894   3.543   5.112   2.522
68687SOL    HW2 7895   3.564   5.148   2.667
68688SOL     OW 7896  10.345  13.324   1.280
68688SOL    HW1 7897  10.411  13.387   1.249
68688SOL    HW2 7898  10.353  13.250   1.220
68689SOL     OW 7899   8.397   2.317   6.382
68689SOL    HW1 7900   8.358   2.232   6.404
68689SOL    HW2 7901   8.492   2.302   6.389
68690SOL     OW 7902  10.574  11.103  13.394
68690SOL    HW1 7903  10.577  11.069  13.305
68690SOL    HW2 7904  10.528  11.187  13.386
68691SOL     OW 7905   6.294   6.704  12.647
68691SOL    HW1 7906   6.218   6.717  12.703
68691SOL    HW2 7907   6.258   6.668  12.566
68692SOL     OW 7908   3.541   6.967   4.720
68692SOL    HW1 7909   3.591   7.033   4.768
68692SOL    HW2 7910   3.485   6.927   4.786
68693SOL     OW 7911   6.661  11.436   0.758
68693SOL    HW1 7912   6.704  11.520   0.776
68693SOL    HW2 7913   6.731  11.378   0.732
68694SOL     OW 7914  12.994   2.232   2.657
68694SOL    HW1 7915  12.929   2.243   2.726
68694SOL    HW2 7916  12.961   2.285   2.584
68695SOL     OW 7917  12.129   9.482   2.450
68695SOL    HW1 7918  12.166   9.570   2.450
68695SOL    HW2 7919  12.103   9.467   2.540
68696SOL     OW 7920  13.226  11.308   0.706
68696SOL    HW1 7921  13.274  11.371   0.760
68696SOL    HW2 7922  13.266  11.224   0.725
68697SOL     OW 7923  13.875   3.399   2.692
68697SOL    HW1 7924  13.891   3.308   2.719
68697SOL    HW2 7925  13.962   3.434   2.673
68698SOL     OW 7926  11.962  14.185  13.744
68698SOL    HW1 7927  11.916  14.169  13.662
68698SOL    HW2 7928  12.051  14.207  13.717
68699SOL     OW 7929   5.088   5.346   2.779
68699SOL    HW1 7930   5.107   5.257   2.808
68699SOL    HW2 7931   5.078   5.339   2.684
68700SOL     OW 7932  11.295   1.144  13.113
68700SOL    HW1 7933  11.239   1.187  13.177
68700SOL    HW2 7934  11.338   1.073  13.161
68701SOL     OW 7935  12.862  12.225   8.554
68701SOL    HW1 7936  12.922  12.152   8.537
68701SOL    HW2 7937  12.857  12.272   8.471
68702SOL     OW 7938  13.714   5.955  12.831
68702SOL    HW1 7939  13.760   5.880  12.794
68702SOL    HW2 7940  13.655   5.984  12.761
68703SOL     OW 7941  14.521   7.859   9.167
68703SOL    HW1 7942  14.523   7.949   9.134
68703SOL    HW2 7943  14.599   7.818   9.130
68704SOL     OW 7944   4.730   0.840   4.635
68704SOL    HW1 7945   4.796   0.809   4.698
68704SOL    HW2 7946   4.754   0.931   4.618
68705SOL     OW 7947  11.201   7.138   6.080
68705SOL    HW1 7948  11.186   7.152   6.174
68705SOL    HW2 7949  11.158   7.211   6.037
68706SOL     OW 7950   6.370   7.343   6.470
68706SOL    HW1 7951   6.362   7.329   6.375
68706SOL    HW2 7952   6.464   7.333   6.487
68707SOL     OW 7953   5.846   6.951  10.450
68707SOL    HW1 7954   5.852   6.970  10.544
68707SOL    HW2 7955   5.755   6.926  10.437
68708SOL     OW 7956  11.162   0.262   9.043
68708SOL    HW1 7957  11.182   0.354   9.063
68708SOL    HW2 7958  11.173   0.217   9.127
68709SOL     OW 7959   7.217   6.657   3.596
68709SOL    HW1 7960   7.168   6.644   3.676
68709SOL    HW2 7961   7.160   6.711   3.541
68710SOL     OW 7962  12.437  11.318   9.189
68710SOL    HW1 7963  12.461  11.255   9.121
68710SOL    HW2 7964  12.386  11.384   9.144
68711SOL     OW 7965   5.454   2.021  10.579
68711SOL    HW1 7966   5.488   2.058  10.661
68711SOL    HW2 7967   5.496   2.073  10.511
68712SOL     OW 7968  14.636  12.979   4.901
68712SOL    HW1 7969  14.610  13.048   4.841
68712SOL    HW2 7970  14.659  13.024   4.982
68713SOL     OW 7971   4.576  12.338   3.879
68713SOL    HW1 7972   4.584  12.433   3.889
68713SOL    HW2 7973   4.534  12.327   3.793
68714SOL     OW 7974  14.471   9.935   6.983
68714SOL    HW1 7975  14.512   9.960   7.066
68714SOL    HW2 7976  14.538   9.885   6.937
68715SOL     OW 7977   6.486  13.835   7.292
68715SOL    HW1 7978   6.500  13.742   7.308
68715SOL    HW2 7979   6.460  13.870   7.378
68716SOL     OW 7980   8.904   1.829   4.053
68716SOL    HW1 7981   8.934   1.896   3.992
68716SOL    HW2 7982   8.975   1.819   4.115
68717SOL     OW 7983   2.068   7.030  13.964
68717SOL    HW1 7984   2.153   6.996  13.937
68717SOL    HW2 7985   2.049   6.983  14.045
68718SOL     OW 7986   7.687  10.370  13.649
68718SOL    HW1 7987   7.781  10.382  13.653
68718SOL    HW2 7988   7.674  10.277  13.665
68719SOL     OW 7989   9.046   7.729   6.395
68719SOL    HW1 7990   8.953   7.732   6.371
68719SOL    HW2 7991   9.069   7.637   6.390
68720SOL     OW 7992   0.909   0.733   9.389
68720SOL    HW1 7993   0.908   0.678   9.311
68720SOL    HW2 7994   0.897   0.671   9.462
68721SOL     OW 7995   4.738   6.611  12.978
68721SOL    HW1 7996   4.819   6.562  12.964
68721SOL    HW2 7997   4.761   6.702  12.959
68722SOL     OW 7998   3.909   8.090   9.803
68722SOL    HW1 7999   3.985   8.144   9.824
68722SOL    HW2 8000   3.915   8.076   9.709
68723SOL     OW 8001  11.851   5.629   0.325
68723SOL    HW1 8002  11.922   5.681   0.288
68723SOL    HW2 8003  11.782   5.632   0.260
68724SOL     OW 8004   2.606   0.554   9.415
68724SOL    HW1 8005   2.687   0.505   9.400
68724SOL    HW2 8006   2.622   0.639   9.373
68725SOL     OW 8007  12.022  13.738  14.170
68725SOL    HW1 8008  12.007  13.765  14.080
68725SOL    HW2 8009  11.973  13.802  14.223
68726SOL     OW 8010  12.140   1.865  14.441
68726SOL    HW1 8011  12.153   1.770  14.434
68726SOL    HW2 8012  12.089   1.888  14.363
68727SOL     OW 8013  12.712   5.419   1.182
68727SOL    HW1 8014  12.698   5.512   1.201
68727SOL    HW2 8015  12.645   5.373   1.233
68728SOL     OW 8016  14.844   0.664   5.964
68728SOL    HW1 8017   0.057   0.640   5.998
68728SOL    HW2 8018  14.855   0.753   5.931
68729SOL     OW 8019   3.621  14.027   3.323
68729SOL    HW1 8020   3.665  14.066   3.399
68729SOL    HW2 8021   3.692  14.006   3.262
68730SOL     OW 8022   0.650   0.426   7.343
68730SOL    HW1 8023   0.705   0.428   7.265
68730SOL    HW2 8024   0.696   0.366   7.403
68731SOL     OW 8025  10.876   5.992   2.768
68731SOL    HW1 8026  10.934   6.050   2.817
68731SOL    HW2 8027  10.841   5.933   2.834
68732SOL     OW 8028   8.186   2.730   9.076
68732SOL    HW1 8029   8.109   2.786   9.081
68732SOL    HW2 8030   8.171   2.662   9.142
68733SOL     OW 8031   6.061   9.309  12.262
68733SOL    HW1 8032   6.074   9.331  12.354
68733SOL    HW2 8033   6.150   9.299  12.228
68734SOL     OW 8034  12.432   6.733   2.271
68734SOL    HW1 8035  12.428   6.650   2.223
68734SOL    HW2 8036  12.397   6.713   2.357
68735SOL     OW 8037  11.795  14.419   9.679
68735SOL    HW1 8038  11.752  14.383   9.601
68735SOL    HW2 8039  11.888  14.421   9.657
68736SOL     OW 8040   1.820   5.755  14.020
68736SOL    HW1 8041   1.784   5.835  14.057
68736SOL    HW2 8042   1.797   5.687  14.084
68737SOL     OW 8043   6.305   4.942   7.321
68737SOL    HW1 8044   6.331   4.872   7.261
68737SOL    HW2 8045   6.223   4.911   7.360
68738SOL     OW 8046  14.827   0.571   8.312
68738SOL    HW1 8047  14.773   0.642   8.278
68738SOL    HW2 8048  14.769   0.521   8.369
68739SOL     OW 8049   4.053   2.553  13.640
68739SOL    HW1 8050   4.075   2.601  13.560
68739SOL    HW2 8051   4.130   2.563  13.696
68740SOL     OW 8052   1.202   4.776   1.287
68740SOL    HW1 8053   1.153   4.857   1.293
68740SOL    HW2 8054   1.141   4.709   1.318
68741SOL     OW 8055   0.209   2.874   0.729
68741SOL    HW1 8056   0.286   2.884   0.785
68741SOL    HW2 8057   0.164   2.797   0.763
68742SOL     OW 8058  14.855   5.695   6.025
68742SOL    HW1 8059  14.870   5.789   6.036
68742SOL    HW2 8060   0.067   5.659   5.999
68743SOL     OW 8061   5.208   0.069   2.936
68743SOL    HW1 8062   5.246   0.120   2.864
68743SOL    HW2 8063   5.198   0.132   3.007
68744SOL     OW 8064   9.544   3.565   0.207
68744SOL    HW1 8065   9.614   3.600   0.153
68744SOL    HW2 8066   9.557   3.470   0.206
68745SOL     OW 8067   5.835   5.639  11.382
68745SOL    HW1 8068   5.882   5.722  11.389
68745SOL    HW2 8069   5.758   5.660  11.328
68746SOL     OW 8070   8.163   7.078   6.455
68746SOL    HW1 8071   8.233   7.016   6.474
68746SOL    HW2 8072   8.120   7.041   6.377
68747SOL     OW 8073   9.340  13.673   4.637
68747SOL    HW1 8074   9.402  13.741   4.666
68747SOL    HW2 8075   9.395  13.597   4.621
68748SOL     OW 8076   9.756   1.575   3.271
68748SOL    HW1 8077   9.820   1.645   3.279
68748SOL    HW2 8078   9.807   1.494   3.278
68749SOL     OW 8079   2.031   5.498   7.377
68749SOL    HW1 8080   2.033   5.475   7.284
68749SOL    HW2 8081   2.027   5.414   7.423
68750SOL     OW 8082   7.222   0.938   1.031
68750SOL    HW1 8083   7.134   0.900   1.032
68750SOL    HW2 8084   7.279   0.870   1.066
68751SOL     OW 8085  14.027  12.257   0.373
68751SOL    HW1 8086  14.006  12.241   0.281
68751SOL    HW2 8087  14.008  12.173   0.417
68752SOL     OW 8088   9.768  12.651   6.848
68752SOL    HW1 8089   9.786  12.662   6.942
68752SOL    HW2 8090   9.826  12.580   6.820
68753SOL     OW 8091   6.155   9.944   0.349
68753SOL    HW1 8092   6.215   9.997   0.296
68753SOL    HW2 8093   6.087  10.005   0.378
68754SOL     OW 8094   0.348   0.074  10.170
68754SOL    HW1 8095   0.418   0.127  10.133
68754SOL    HW2 8096   0.317   0.020  10.097
68755SOL     OW 8097   3.471   1.141   5.575
68755SOL    HW1 8098   3.512   1.211   5.523
68755SOL    HW2 8099   3.536   1.070   5.573
68756SOL     OW 8100   0.965   8.114   5.402
68756SOL    HW1 8101   0.923   8.077   5.480
68756SOL    HW2 8102   0.913   8.080   5.329
68757SOL     OW 8103  13.390   7.550  13.931
68757SOL    HW1 8104  13.439   7.566  13.850
68757SOL    HW2 8105  13.353   7.463  13.919
68758SOL     OW 8106  14.077   7.704  11.444
68758SOL    HW1 8107  14.063   7.776  11.505
68758SOL    HW2 8108  14.006   7.642  11.464
68759SOL     OW 8109   3.412  13.363   5.960
68759SOL    HW1 8110   3.484  13.309   5.928
68759SOL    HW2 8111   3.384  13.414   5.884
68760SOL     OW 8112   3.849   2.345   7.289
68760SOL    HW1 8113   3.900   2.274   7.251
68760SOL    HW2 8114   3.758   2.320   7.274
68761SOL     OW 8115   6.380   7.134  12.770
68761SOL    HW1 8116   6.369   7.115  12.863
68761SOL    HW2 8117   6.315   7.201  12.751
68762SOL     OW 8118   5.350   7.269   2.593
68762SOL    HW1 8119   5.421   7.289   2.532
68762SOL    HW2 8120   5.328   7.353   2.633
68763SOL     OW 8121  11.172   2.603   8.644
68763SOL    HW1 8122  11.101   2.624   8.584
68763SOL    HW2 8123  11.132   2.605   8.731
68764SOL     OW 8124  10.154   2.295   5.294
68764SOL    HW1 8125  10.181   2.365   5.354
68764SOL    HW2 8126  10.083   2.250   5.340
68765SOL     OW 8127   6.209  10.159   3.240
68765SOL    HW1 8128   6.166  10.242   3.258
68765SOL    HW2 8129   6.211  10.152   3.145
68766SOL     OW 8130  11.006  13.536   2.895
68766SOL    HW1 8131  10.986  13.569   2.982
68766SOL    HW2 8132  10.939  13.575   2.839
68767SOL     OW 8133   7.474  14.468  12.123
68767SOL    HW1 8134   7.389  14.458  12.164
68767SOL    HW2 8135   7.454  14.479  12.030
68768SOL     OW 8136  11.138   2.608  10.656
68768SOL    HW1 8137  11.062   2.572  10.611
68768SOL    HW2 8138  11.211   2.592  10.597
68769SOL     OW 8139   3.347   2.830  13.383
68769SOL    HW1 8140   3.403   2.771  13.333
68769SOL    HW2 8141   3.287   2.867  13.318
68770SOL     OW 8142   4.553   8.497   6.838
68770SOL    HW1 8143   4.534   8.496   6.932
68770SOL    HW2 8144   4.574   8.588   6.819
68771SOL     OW 8145   3.163  14.234   2.677
68771SOL    HW1 8146   3.219  14.160   2.652
68771SOL    HW2 8147   3.078  14.212   2.640
68772SOL     OW 8148  11.523  11.479   9.483
68772SOL    HW1 8149  11.507  11.391   9.518
68772SOL    HW2 8150  11.555  11.465   9.394
68773SOL     OW 8151   7.188  10.434   9.174
68773SOL    HW1 8152   7.119  10.403   9.232
68773SOL    HW2 8153   7.261  10.456   9.232
68774SOL     OW 8154  12.421  12.123   9.218
68774SOL    HW1 8155  12.371  12.063   9.162
68774SOL    HW2 8156  12.401  12.210   9.181
68775SOL     OW 8157  14.127   8.088   4.455
68775SOL    HW1 8158  14.205   8.040   4.429
68775SOL    HW2 8159  14.108   8.057   4.544
68776SOL     OW 8160  11.579   7.584  13.582
68776SOL    HW1 8161  11.523   7.523  13.534
68776SOL    HW2 8162  11.649   7.530  13.619
68777SOL     OW 8163   2.254   7.386  14.185
68777SOL    HW1 8164   2.318   7.453  14.207
68777SOL    HW2 8165   2.248   7.389  14.090
68778SOL     OW 8166   1.224   3.738   8.193
68778SOL    HW1 8167   1.291   3.694   8.141
68778SOL    HW2 8168   1.259   3.736   8.283
68779SOL     OW 8169   3.330   6.794   0.829
68779SOL    HW1 8170   3.376   6.844   0.896
68779SOL    HW2 8171   3.325   6.705   0.865
68780SOL     OW 8172   9.897  11.008   0.465
68780SOL    HW1 8173   9.928  11.097   0.483
68780SOL    HW2 8174   9.812  11.021   0.423
68781SOL     OW 8175   8.204  10.254   4.342
68781SOL    HW1 8176   8.171  10.333   4.298
68781SOL    HW2 8177   8.148  10.184   4.311
68782SOL     OW 8178  13.371   7.884   6.957
68782SOL    HW1 8179  13.416   7.914   6.878
68782SOL    HW2 8180  13.398   7.792   6.966
68783SOL     OW 8181   2.562   2.819  13.147
68783SOL    HW1 8182   2.657   2.826  13.152
68783SOL    HW2 8183   2.542   2.730  13.175
68784SOL     OW 8184  11.403   0.801   9.096
68784SOL    HW1 8185  11.431   0.778   9.184
68784SOL    HW2 8186  11.468   0.761   9.038
68785SOL     OW 8187   2.298   5.088  10.114
68785SOL    HW1 8188   2.382   5.120  10.080
68785SOL    HW2 8189   2.237   5.100  10.041
68786SOL     OW 8190  11.729   9.443   2.230
68786SOL    HW1 8191  11.733   9.408   2.320
68786SOL    HW2 8192  11.812   9.489   2.219
68787SOL     OW 8193   7.980  13.464   5.121
68787SOL    HW1 8194   8.008  13.395   5.181
68787SOL    HW2 8195   7.941  13.417   5.048
68788SOL     OW 8196  11.806   5.662   9.362
68788SOL    HW1 8197  11.756   5.743   9.367
68788SOL    HW2 8198  11.857   5.660   9.443
68789SOL     OW 8199   3.359   6.920  12.700
68789SOL    HW1 8200   3.453   6.926  12.689
68789SOL    HW2 8201   3.330   7.011  12.711
68790SOL     OW 8202   9.262   8.272  13.625
68790SOL    HW1 8203   9.218   8.262  13.540
68790SOL    HW2 8204   9.251   8.187  13.668
68791SOL     OW 8205   2.044   7.029  13.372
68791SOL    HW1 8206   2.118   7.078  13.337
68791SOL    HW2 8207   2.041   7.052  13.464
68792SOL     OW 8208   1.148   0.341   2.109
68792SOL    HW1 8209   1.230   0.320   2.063
68792SOL    HW2 8210   1.119   0.257   2.146
68793SOL     OW 8211   4.695  12.481  13.565
68793SOL    HW1 8212   4.715  12.469  13.658
68793SOL    HW2 8213   4.768  12.533  13.531
68794SOL     OW 8214   8.884   8.200  11.197
68794SOL    HW1 8215   8.797   8.212  11.159
68794SOL    HW2 8216   8.899   8.106  11.193
68795SOL     OW 8217   6.096   9.060   8.520
68795SOL    HW1 8218   6.130   8.984   8.567
68795SOL    HW2 8219   6.171   9.117   8.508
68796SOL     OW 8220   2.067   8.228   1.235
68796SOL    HW1 8221   1.981   8.259   1.263
68796SOL    HW2 8222   2.100   8.297   1.177
68797SOL     OW 8223   2.182   8.386   5.278
68797SOL    HW1 8224   2.160   8.409   5.187
68797SOL    HW2 8225   2.278   8.381   5.278
68798SOL     OW 8226   0.923   7.770   6.850
68798SOL    HW1 8227   0.911   7.736   6.939
68798SOL    HW2 8228   0.844   7.821   6.833
68799SOL     OW 8229  11.526  14.587   7.080
68799SOL    HW1 8230  11.505  14.497   7.104
68799SOL    HW2 8231  11.590  14.579   7.009
68800SOL     OW 8232  10.755   6.208   1.285
68800SOL    HW1 8233  10.682   6.174   1.338
68800SOL    HW2 8234  10.833   6.187   1.337
68801SOL     OW 8235  13.227   0.805  11.836
68801SOL    HW1 8236  13.204   0.757  11.915
68801SOL    HW2 8237  13.154   0.788  11.776
68802SOL     OW 8238   8.990   9.852   8.321
68802SOL    HW1 8239   8.994   9.839   8.416
68802SOL    HW2 8240   8.913   9.908   8.308
68803SOL     OW 8241   1.168   2.738   0.555
68803SOL    HW1 8242   1.078   2.751   0.526
68803SOL    HW2 8243   1.222   2.777   0.487
68804SOL     OW 8244   7.636  12.832   7.428
68804SOL    HW1 8245   7.605  12.765   7.367
68804SOL    HW2 8246   7.683  12.894   7.373
68805SOL     OW 8247   5.046  11.950   8.912
68805SOL    HW1 8248   5.052  12.043   8.892
68805SOL    HW2 8249   4.957  11.925   8.887
68806SOL     OW 8250   9.709   5.496   1.964
68806SOL    HW1 8251   9.675   5.538   1.885
68806SOL    HW2 8252   9.645   5.519   2.032
68807SOL     OW 8253   1.160  13.132   0.976
68807SOL    HW1 8254   1.231  13.085   1.020
68807SOL    HW2 8255   1.195  13.151   0.889
68808SOL     OW 8256   8.182   1.743  10.716
68808SOL    HW1 8257   8.145   1.723  10.802
68808SOL    HW2 8258   8.249   1.675  10.703
68809SOL     OW 8259   2.952   8.800   8.124
68809SOL    HW1 8260   3.028   8.827   8.176
68809SOL    HW2 8261   2.990   8.750   8.051
68810SOL     OW 8262  13.914   2.005  12.197
68810SOL    HW1 8263  13.850   1.938  12.220
68810SOL    HW2 8264  13.986   1.992  12.258
68811SOL     OW 8265   1.360   1.787   0.379
68811SOL    HW1 8266   1.338   1.878   0.360
68811SOL    HW2 8267   1.326   1.738   0.304
68812SOL     OW 8268   6.444  13.567   3.409
68812SOL    HW1 8269   6.512  13.617   3.455
68812SOL    HW2 8270   6.413  13.503   3.473
68813SOL     OW 8271  14.459   6.521   7.734
68813SOL    HW1 8272  14.401   6.452   7.701
68813SOL    HW2 8273  14.508   6.550   7.657
68814SOL     OW 8274  14.382   7.063   7.178
68814SOL    HW1 8275  14.454   7.106   7.225
68814SOL    HW2 8276  14.349   7.130   7.118
68815SOL     OW 8277   6.896  14.803   5.314
68815SOL    HW1 8278   6.861   0.017   5.336
68815SOL    HW2 8279   6.984  14.820   5.282
68816SOL     OW 8280   9.286   4.047   6.113
68816SOL    HW1 8281   9.248   4.058   6.026
68816SOL    HW2 8282   9.353   3.979   6.101
68817SOL     OW 8283  11.416   2.180   4.394
68817SOL    HW1 8284  11.466   2.157   4.472
68817SOL    HW2 8285  11.361   2.253   4.422
68818SOL     OW 8286   4.431  10.251   2.784
68818SOL    HW1 8287   4.471  10.203   2.856
68818SOL    HW2 8288   4.339  10.261   2.810
68819SOL     OW 8289   1.023  12.657  10.977
68819SOL    HW1 8290   1.109  12.640  11.017
68819SOL    HW2 8291   1.027  12.748  10.951
68820SOL     OW 8292   7.730   2.158  13.666
68820SOL    HW1 8293   7.719   2.067  13.638
68820SOL    HW2 8294   7.641   2.192  13.675
68821SOL     OW 8295  10.417   3.096   4.094
68821SOL    HW1 8296  10.491   3.049   4.058
68821SOL    HW2 8297  10.431   3.096   4.189
68822SOL     OW 8298   0.448   6.503   5.560
68822SOL    HW1 8299   0.507   6.428   5.572
68822SOL    HW2 8300   0.506   6.576   5.539
68823SOL     OW 8301  13.637  13.125   0.753
68823SOL    HW1 8302  13.588  13.201   0.783
68823SOL    HW2 8303  13.588  13.050   0.787
68824SOL     OW 8304   9.121   4.684   8.371
68824SOL    HW1 8305   9.156   4.705   8.457
68824SOL    HW2 8306   9.192   4.705   8.310
68825SOL     OW 8307  11.225   2.409  11.628
68825SOL    HW1 8308  11.146   2.462  11.612
68825SOL    HW2 8309  11.237   2.412  11.723
68826SOL     OW 8310   2.800  10.574  13.779
68826SOL    HW1 8311   2.734  10.635  13.814
68826SOL    HW2 8312   2.848  10.543  13.855
68827SOL     OW 8313  10.867  11.384  13.164
68827SOL    HW1 8314  10.878  11.479  13.156
68827SOL    HW2 8315  10.892  11.365  13.254
68828SOL     OW 8316   3.764   9.643  13.510
68828SOL    HW1 8317   3.796   9.553  13.517
68828SOL    HW2 8318   3.696   9.650  13.576
68829SOL     OW 8319  10.533   7.915  13.801
68829SOL    HW1 8320  10.472   7.934  13.872
68829SOL    HW2 8321  10.586   7.995  13.795
68830SOL     OW 8322  10.904   6.032  13.633
68830SOL    HW1 8323  10.950   6.094  13.689
68830SOL    HW2 8324  10.936   5.946  13.661
68831SOL     OW 8325   9.870   7.515   9.649
68831SOL    HW1 8326   9.831   7.541   9.566
68831SOL    HW2 8327   9.810   7.449   9.684
68832SOL     OW 8328  11.324  13.609  14.856
68832SOL    HW1 8329  11.414  13.588   0.009
68832SOL    HW2 8330  11.270  13.550   0.036
68833SOL     OW 8331   5.768  14.710  10.441
68833SOL    HW1 8332   5.760  14.745  10.352
68833SOL    HW2 8333   5.820  14.630  10.430
68834SOL     OW 8334  12.126  14.578   1.906
68834SOL    HW1 8335  12.153  14.510   1.968
68834SOL    HW2 8336  12.030  14.577   1.909
68835SOL     OW 8337  10.060   9.715  13.333
68835SOL    HW1 8338   9.995   9.754  13.276
68835SOL    HW2 8339  10.133   9.693  13.275
68836SOL     OW 8340  11.956  14.788   4.215
68836SOL    HW1 8341  11.971  14.848   4.142
68836SOL    HW2 8342  11.904  14.717   4.177
68837SOL     OW 8343  10.785   8.326   0.235
68837SOL    HW1 8344  10.766   8.418   0.215
68837SOL    HW2 8345  10.865   8.307   0.186
68838SOL     OW 8346   0.650  11.768   6.505
68838SOL    HW1 8347   0.684  11.706   6.440
68838SOL    HW2 8348   0.594  11.714   6.562
68839SOL     OW 8349   9.226  12.468   5.299
68839SOL    HW1 8350   9.145  12.515   5.278
68839SOL    HW2 8351   9.293  12.536   5.301
68840SOL     OW 8352   4.464   2.574  12.618
68840SOL    HW1 8353   4.448   2.503  12.680
68840SOL    HW2 8354   4.507   2.532  12.543
68841SOL     OW 8355   0.751   7.354  10.364
68841SOL    HW1 8356   0.791   7.367  10.278
68841SOL    HW2 8357   0.823   7.329  10.421
68842SOL     OW 8358   5.167   6.764   1.228
68842SOL    HW1 8359   5.221   6.839   1.203
68842SOL    HW2 8360   5.229   6.691   1.236
68843SOL     OW 8361   5.836   0.154   2.934
68843SOL    HW1 8362   5.807   0.130   3.022
68843SOL    HW2 8363   5.878   0.240   2.945
68844SOL     OW 8364  12.307   4.479   7.355
68844SOL    HW1 8365  12.304   4.396   7.402
68844SOL    HW2 8366  12.236   4.474   7.291
68845SOL     OW 8367  12.587   1.021   4.174
68845SOL    HW1 8368  12.667   1.054   4.215
68845SOL    HW2 8369  12.609   1.015   4.081
68846SOL     OW 8370   0.804   8.539  13.856
68846SOL    HW1 8371   0.828   8.447  13.843
68846SOL    HW2 8372   0.872   8.588  13.809
68847SOL     OW 8373   3.881  10.142  14.822
68847SOL    HW1 8374   3.950  10.178   0.004
68847SOL    HW2 8375   3.927  10.087  14.758
68848SOL     OW 8376   4.934   2.975  13.572
68848SOL    HW1 8377   4.930   3.029  13.651
68848SOL    HW2 8378   5.016   2.926  13.580
68849SOL     OW 8379   5.445   4.759   6.189
68849SOL    HW1 8380   5.413   4.767   6.279
68849SOL    HW2 8381   5.395   4.825   6.140
68850SOL     OW 8382   3.757   2.632   2.196
68850SOL    HW1 8383   3.758   2.555   2.139
68850SOL    HW2 8384   3.794   2.601   2.278
68851SOL     OW 8385  12.527  12.645  14.121
68851SOL    HW1 8386  12.467  12.713  14.151
68851SOL    HW2 8387  12.506  12.569  14.175
68852SOL     OW 8388  11.779   8.057   1.617
68852SOL    HW1 8389  11.775   8.131   1.556
68852SOL    HW2 8390  11.690   8.021   1.616
68853SOL     OW 8391   1.190   0.593  12.094
68853SOL    HW1 8392   1.121   0.645  12.052
68853SOL    HW2 8393   1.159   0.579  12.183
68854SOL     OW 8394   4.809  10.932   0.877
68854SOL    HW1 8395   4.822  10.933   0.782
68854SOL    HW2 8396   4.793  10.840   0.898
68855SOL     OW 8397  14.626  10.428  13.763
68855SOL    HW1 8398  14.598  10.515  13.734
68855SOL    HW2 8399  14.720  10.427  13.749
68856SOL     OW 8400   3.116   7.844   6.873
68856SOL    HW1 8401   3.045   7.781   6.888
68856SOL    HW2 8402   3.187   7.815   6.930
68857SOL     OW 8403   9.793  10.557  12.489
68857SOL    HW1 8404   9.825  10.614  12.420
68857SOL    HW2 8405   9.861  10.490  12.499
68858SOL     OW 8406   9.933   2.687   7.327
68858SOL    HW1 8407   9.889   2.701   7.411
68858SOL    HW2 8408   9.998   2.757   7.323
68859SOL     OW 8409   7.167  13.987   0.128
68859SOL    HW1 8410   7.145  13.966   0.219
68859SOL    HW2 8411   7.083  14.008   0.087
68860SOL     OW 8412   5.171   2.636  10.667
68860SOL    HW1 8413   5.116   2.570  10.626
68860SOL    HW2 8414   5.140   2.641  10.757
68861SOL     OW 8415   9.047   6.601   1.622
68861SOL    HW1 8416   9.083   6.690   1.619
68861SOL    HW2 8417   9.099   6.556   1.688
68862SOL     OW 8418   6.955   0.551   8.408
68862SOL    HW1 8419   6.933   0.485   8.342
68862SOL    HW2 8420   6.908   0.523   8.487
68863SOL     OW 8421  13.619   0.840   5.649
68863SOL    HW1 8422  13.629   0.934   5.661
68863SOL    HW2 8423  13.703   0.803   5.677
68864SOL     OW 8424  11.008  11.211  10.246
68864SOL    HW1 8425  10.991  11.183  10.336
68864SOL    HW2 8426  10.969  11.298  10.241
68865SOL     OW 8427   9.423  13.973  12.647
68865SOL    HW1 8428   9.390  13.889  12.615
68865SOL    HW2 8429   9.350  14.033  12.636
68866SOL     OW 8430  14.243   4.579   3.444
68866SOL    HW1 8431  14.284   4.574   3.357
68866SOL    HW2 8432  14.304   4.535   3.502
68867SOL     OW 8433   2.653   0.991   7.027
68867SOL    HW1 8434   2.723   1.044   6.988
68867SOL    HW2 8435   2.662   0.905   6.986
68868SOL     OW 8436   1.303   0.653  14.357
68868SOL    HW1 8437   1.343   0.650  14.444
68868SOL    HW2 8438   1.215   0.687  14.373
68869SOL     OW 8439   0.325   5.668  14.690
68869SOL    HW1 8440   0.311   5.632  14.777
68869SOL    HW2 8441   0.244   5.716  14.671
68870SOL     OW 8442   4.252   7.629  12.229
68870SOL    HW1 8443   4.203   7.637  12.147
68870SOL    HW2 8444   4.282   7.539  12.230
68871SOL     OW 8445  14.447   7.033  13.606
68871SOL    HW1 8446  14.456   7.082  13.524
68871SOL    HW2 8447  14.490   6.950  13.590
68872SOL     OW 8448  11.614   5.531  14.313
68872SOL    HW1 8449  11.596   5.480  14.392
68872SOL    HW2 8450  11.646   5.467  14.249
68873SOL     OW 8451   3.267   5.420   9.384
68873SOL    HW1 8452   3.188   5.367   9.377
68873SOL    HW2 8453   3.338   5.362   9.358
68874SOL     OW 8454   0.854   4.472   6.880
68874SOL    HW1 8455   0.890   4.433   6.801
68874SOL    HW2 8456   0.909   4.437   6.951
68875SOL     OW 8457   5.476   5.817   3.941
68875SOL    HW1 8458   5.439   5.760   3.873
68875SOL    HW2 8459   5.568   5.827   3.917
68876SOL     OW 8460   3.274   0.605  13.077
68876SOL    HW1 8461   3.292   0.578  12.987
68876SOL    HW2 8462   3.192   0.560  13.100
68877SOL     OW 8463  14.021  12.581  14.398
68877SOL    HW1 8464  14.055  12.529  14.325
68877SOL    HW2 8465  14.100  12.609  14.446
68878SOL     OW 8466  11.385   3.695  12.186
68878SOL    HW1 8467  11.289   3.700  12.188
68878SOL    HW2 8468  11.409   3.660  12.272
68879SOL     OW 8469  12.249   8.591   7.171
68879SOL    HW1 8470  12.279   8.527   7.106
68879SOL    HW2 8471  12.155   8.598   7.157
68880SOL     OW 8472   6.078   2.436   1.097
68880SOL    HW1 8473   6.035   2.442   1.012
68880SOL    HW2 8474   6.154   2.380   1.082
68881SOL     OW 8475  14.551  10.326   3.747
68881SOL    HW1 8476  14.524  10.294   3.833
68881SOL    HW2 8477  14.560  10.420   3.758
68882SOL     OW 8478  10.735   5.239  14.684
68882SOL    HW1 8479  10.726   5.275  14.596
68882SOL    HW2 8480  10.786   5.305  14.731
68883SOL     OW 8481   0.058  10.905   9.115
68883SOL    HW1 8482   0.091  10.958   9.187
68883SOL    HW2 8483  14.853  10.951   9.084
68884SOL     OW 8484  12.667   6.877  12.930
68884SOL    HW1 8485  12.739   6.931  12.896
68884SOL    HW2 8486  12.693   6.855  13.019
68885SOL     OW 8487   5.152  10.747   0.067
68885SOL    HW1 8488   5.098  10.825   0.059
68885SOL    HW2 8489   5.242  10.780   0.072
68886SOL     OW 8490   5.427   2.955   4.593
68886SOL    HW1 8491   5.448   2.971   4.685
68886SOL    HW2 8492   5.449   2.863   4.580
68887SOL     OW 8493   4.680  14.162  12.230
68887SOL    HW1 8494   4.697  14.220  12.155
68887SOL    HW2 8495   4.748  14.095  12.225
68888SOL     OW 8496  11.001  11.685   2.193
68888SOL    HW1 8497  10.966  11.687   2.104
68888SOL    HW2 8498  11.012  11.777   2.217
68889SOL     OW 8499  11.510   4.762   8.690
68889SOL    HW1 8500  11.468   4.680   8.664
68889SOL    HW2 8501  11.482   4.776   8.781
68890SOL     OW 8502   4.373  12.814   4.396
68890SOL    HW1 8503   4.410  12.893   4.355
68890SOL    HW2 8504   4.306  12.784   4.334
68891SOL     OW 8505   9.697   5.662   8.417
68891SOL    HW1 8506   9.618   5.632   8.463
68891SOL    HW2 8507   9.766   5.602   8.446
68892SOL     OW 8508   3.528   6.501   1.331
68892SOL    HW1 8509   3.606   6.451   1.357
68892SOL    HW2 8510   3.562   6.566   1.270
68893SOL     OW 8511   9.043   5.889  11.607
68893SOL    HW1 8512   9.131   5.873  11.573
68893SOL    HW2 8513   9.043   5.847  11.693
68894SOL     OW 8514  11.939  11.706   7.865
68894SOL    HW1 8515  11.902  11.726   7.951
68894SOL    HW2 8516  12.009  11.769   7.854
68895SOL     OW 8517   9.836   8.227  11.871
68895SOL    HW1 8518   9.789   8.150  11.839
68895SOL    HW2 8519   9.881   8.262  11.794
68896SOL     OW 8520   4.211   2.663   6.115
68896SOL    HW1 8521   4.276   2.714   6.162
68896SOL    HW2 8522   4.259   2.625   6.041
68897SOL     OW 8523  13.939   7.453   0.217
68897SOL    HW1 8524  13.898   7.539   0.226
68897SOL    HW2 8525  14.012   7.454   0.279
68898SOL     OW 8526   2.409  13.818   4.531
68898SOL    HW1 8527   2.328  13.842   4.575
68898SOL    HW2 8528   2.433  13.895   4.481
68899SOL     OW 8529   4.619   0.525   0.131
68899SOL    HW1 8530   4.704   0.531   0.175
68899SOL    HW2 8531   4.629   0.578   0.052
68900SOL     OW 8532  13.483  14.628   4.319
68900SOL    HW1 8533  13.478  14.576   4.239
68900SOL    HW2 8534  13.538  14.703   4.296
68901SOL     OW 8535   6.234   0.977   6.669
68901SOL    HW1 8536   6.213   0.893   6.711
68901SOL    HW2 8537   6.150   1.008   6.635
68902SOL     OW 8538  10.730   8.371   3.659
68902SOL    HW1 8539  10.670   8.349   3.587
68902SOL    HW2 8540  10.689   8.446   3.703
68903SOL     OW 8541  13.022  10.689   7.071
68903SOL    HW1 8542  12.967  10.668   7.147
68903SOL    HW2 8543  13.102  10.726   7.109
68904SOL     OW 8544   8.113   2.280   2.622
68904SOL    HW1 8545   8.202   2.275   2.656
68904SOL    HW2 8546   8.090   2.189   2.600
68905SOL     OW 8547   0.483  10.879   1.474
68905SOL    HW1 8548   0.513  10.788   1.475
68905SOL    HW2 8549   0.399  10.877   1.521
68906SOL     OW 8550  13.894  10.679   8.512
68906SOL    HW1 8551  13.866  10.601   8.465
68906SOL    HW2 8552  13.817  10.707   8.561
68907SOL     OW 8553  13.660  10.636   7.599
68907SOL    HW1 8554  13.634  10.659   7.688
68907SOL    HW2 8555  13.753  10.658   7.595
68908SOL     OW 8556   9.681   7.663   0.921
68908SOL    HW1 8557   9.760   7.666   0.866
68908SOL    HW2 8558   9.612   7.637   0.861
68909SOL     OW 8559   6.657   0.632   7.085
68909SOL    HW1 8560   6.663   0.678   7.168
68909SOL    HW2 8561   6.719   0.559   7.094
68910SOL     OW 8562   4.112   1.045   2.528
68910SOL    HW1 8563   4.191   1.001   2.562
68910SOL    HW2 8564   4.093   1.000   2.446
68911SOL     OW 8565   7.307   5.339  12.472
68911SOL    HW1 8566   7.316   5.425  12.513
68911SOL    HW2 8567   7.215   5.316  12.485
68912SOL     OW 8568   9.457  12.557   8.582
68912SOL    HW1 8569   9.515  12.481   8.583
68912SOL    HW2 8570   9.396  12.541   8.655
68913SOL     OW 8571   6.876   3.707   2.898
68913SOL    HW1 8572   6.951   3.752   2.860
68913SOL    HW2 8573   6.855   3.756   2.977
68914SOL     OW 8574   2.282  11.745  14.864
68914SOL    HW1 8575   2.196  11.731   0.033
68914SOL    HW2 8576   2.337  11.676   0.028
68915SOL     OW 8577  10.289   5.831   8.904
68915SOL    HW1 8578  10.287   5.902   8.839
68915SOL    HW2 8579  10.350   5.767   8.868
68916SOL     OW 8580   7.456   0.324  11.042
68916SOL    HW1 8581   7.467   0.280  10.957
68916SOL    HW2 8582   7.539   0.310  11.087
68917SOL     OW 8583   7.071   7.175   9.665
68917SOL    HW1 8584   6.977   7.173   9.648
68917SOL    HW2 8585   7.106   7.103   9.612
68918SOL     OW 8586  11.366   7.386   2.699
68918SOL    HW1 8587  11.354   7.360   2.608
68918SOL    HW2 8588  11.447   7.436   2.700
68919SOL     OW 8589   0.601   7.926   7.801
68919SOL    HW1 8590   0.620   8.011   7.763
68919SOL    HW2 8591   0.673   7.870   7.771
68920SOL     OW 8592  13.280  12.790   6.121
68920SOL    HW1 8593  13.369  12.824   6.128
68920SOL    HW2 8594  13.288  12.696   6.137
68921SOL     OW 8595   3.804   8.023   2.483
68921SOL    HW1 8596   3.877   7.994   2.538
68921SOL    HW2 8597   3.775   7.944   2.437
68922SOL     OW 8598   8.985   5.069   2.604
68922SOL    HW1 8599   8.938   5.061   2.687
68922SOL    HW2 8600   9.077   5.058   2.627
68923SOL     OW 8601  13.422   7.069   0.337
68923SOL    HW1 8602  13.331   7.099   0.340
68923SOL    HW2 8603  13.425   6.994   0.396
68924SOL     OW 8604   8.691   5.143  12.134
68924SOL    HW1 8605   8.718   5.145  12.042
68924SOL    HW2 8606   8.773   5.155  12.182
68925SOL     OW 8607   1.401  12.332   2.204
68925SOL    HW1 8608   1.462  12.332   2.130
68925SOL    HW2 8609   1.449  12.285   2.273
68926SOL     OW 8610   2.436   5.065  11.421
68926SOL    HW1 8611   2.493   4.994  11.451
68926SOL    HW2 8612   2.347   5.032  11.434
68927SOL     OW 8613  10.126   2.026  10.413
68927SOL    HW1 8614  10.090   2.038  10.325
68927SOL    HW2 8615  10.084   2.094  10.465
68928SOL     OW 8616   7.050   1.421   5.333
68928SOL    HW1 8617   7.003   1.436   5.415
68928SOL    HW2 8618   6.988   1.374   5.277
68929SOL     OW 8619   1.851   0.080  13.506
68929SOL    HW1 8620   1.929   0.059  13.455
68929SOL    HW2 8621   1.862   0.032  13.588
68930SOL     OW 8622   5.886   3.255   0.800
68930SOL    HW1 8623   5.855   3.258   0.890
68930SOL    HW2 8624   5.882   3.162   0.776
68931SOL     OW 8625  14.110   7.704   0.872
68931SOL    HW1 8626  14.165   7.715   0.796
68931SOL    HW2 8627  14.024   7.736   0.845
68932SOL     OW 8628   3.890  10.218   5.458
68932SOL    HW1 8629   3.957  10.157   5.427
68932SOL    HW2 8630   3.936  10.273   5.522
68933SOL     OW 8631  14.072   4.732   0.197
68933SOL    HW1 8632  14.098   4.753   0.286
68933SOL    HW2 8633  14.081   4.637   0.191
68934SOL     OW 8634  13.534   2.992   8.050
68934SOL    HW1 8635  13.547   2.994   7.955
68934SOL    HW2 8636  13.506   2.903   8.068
68935SOL     OW 8637  11.958  13.927   3.266
68935SOL    HW1 8638  11.910  13.984   3.206
68935SOL    HW2 8639  12.040  13.973   3.284
68936SOL     OW 8640  11.213   0.676  11.399
68936SOL    HW1 8641  11.209   0.583  11.419
68936SOL    HW2 8642  11.130   0.695  11.356
68937SOL     OW 8643   6.791   8.663   5.981
68937SOL    HW1 8644   6.826   8.575   5.995
68937SOL    HW2 8645   6.731   8.677   6.054
68938SOL     OW 8646   1.721   7.419   3.045
68938SOL    HW1 8647   1.685   7.355   2.984
68938SOL    HW2 8648   1.654   7.488   3.049
68939SOL     OW 8649  10.913   3.074   3.917
68939SOL    HW1 8650  10.917   3.164   3.951
68939SOL    HW2 8651  10.964   3.077   3.836
68940SOL     OW 8652   8.822   0.103   7.991
68940SOL    HW1 8653   8.775   0.164   7.935
68940SOL    HW2 8654   8.854   0.035   7.930
68941SOL     OW 8655  10.404   7.287   6.484
68941SOL    HW1 8656  10.368   7.261   6.400
68941SOL    HW2 8657  10.499   7.273   6.475
68942SOL     OW 8658   7.818   4.401   7.330
68942SOL    HW1 8659   7.886   4.353   7.283
68942SOL    HW2 8660   7.757   4.333   7.359
68943SOL     OW 8661   8.944   7.910   6.640
68943SOL    HW1 8662   8.973   7.995   6.607
68943SOL    HW2 8663   8.976   7.846   6.576
68944SOL     OW 8664   3.184   4.782   2.364
68944SOL    HW1 8665   3.207   4.830   2.284
68944SOL    HW2 8666   3.183   4.848   2.432
68945SOL     OW 8667  13.533   1.295  12.775
68945SOL    HW1 8668  13.559   1.208  12.747
68945SOL    HW2 8669  13.547   1.351  12.699
68946SOL     OW 8670  10.596   8.644  13.376
68946SOL    HW1 8671  10.607   8.679  13.288
68946SOL    HW2 8672  10.683   8.612  13.400
68947SOL     OW 8673   1.061   7.007  14.550
68947SOL    HW1 8674   1.015   6.927  14.524
68947SOL    HW2 8675   1.133   6.977  14.605
68948SOL     OW 8676   6.951   9.981   0.321
68948SOL    HW1 8677   6.931  10.021   0.406
68948SOL    HW2 8678   6.879  10.008   0.264
68949SOL     OW 8679  13.615  14.065   6.884
68949SOL    HW1 8680  13.704  14.036   6.905
68949SOL    HW2 8681  13.581  14.097   6.968
68950SOL     OW 8682   6.930  14.474  11.500
68950SOL    HW1 8683   6.857  14.449  11.444
68950SOL    HW2 8684   7.005  14.425  11.466
68951SOL     OW 8685   0.385   4.447   3.714
68951SOL    HW1 8686   0.317   4.499   3.672
68951SOL    HW2 8687   0.381   4.473   3.807
68952SOL     OW 8688   9.506   9.544  12.192
68952SOL    HW1 8689   9.508   9.471  12.130
68952SOL    HW2 8690   9.558   9.612  12.150
68953SOL     OW 8691   6.549  10.568   3.279
68953SOL    HW1 8692   6.620  10.576   3.342
68953SOL    HW2 8693   6.563  10.482   3.238
68954SOL     OW 8694   6.271   9.945   4.231
68954SOL    HW1 8695   6.232  10.029   4.256
68954SOL    HW2 8696   6.343   9.967   4.173
68955SOL     OW 8697   5.398   0.428   1.163
68955SOL    HW1 8698   5.330   0.383   1.215
68955SOL    HW2 8699   5.472   0.366   1.163
68956SOL     OW 8700  12.690  14.396  13.479
68956SOL    HW1 8701  12.659  14.464  13.538
68956SOL    HW2 8702  12.699  14.440  13.394
68957SOL     OW 8703   1.648   5.472   6.782
68957SOL    HW1 8704   1.681   5.418   6.710
68957SOL    HW2 8705   1.553   5.475   6.767
68958SOL     OW 8706  11.035   9.017  13.295
68958SOL    HW1 8707  11.062   8.979  13.378
68958SOL    HW2 8708  10.988   8.947  13.250
68959SOL     OW 8709  10.787  13.842  14.494
68959SOL    HW1 8710  10.794  13.750  14.472
68959SOL    HW2 8711  10.804  13.846  14.588
68960SOL     OW 8712   3.824   9.592   6.726
68960SOL    HW1 8713   3.788   9.510   6.694
68960SOL    HW2 8714   3.751   9.654   6.722
68961SOL     OW 8715  11.138   7.267  14.691
68961SOL    HW1 8716  11.181   7.191  14.651
68961SOL    HW2 8717  11.168   7.342  14.640
68962SOL     OW 8718   8.460   8.549   7.989
68962SOL    HW1 8719   8.414   8.520   7.910
68962SOL    HW2 8720   8.471   8.469   8.041
68963SOL     OW 8721  12.069   2.363  13.535
68963SOL    HW1 8722  12.147   2.420  13.536
68963SOL    HW2 8723  12.036   2.370  13.446
68964SOL     OW 8724  13.995   4.198  12.704
68964SOL    HW1 8725  13.929   4.132  12.728
68964SOL    HW2 8726  14.065   4.185  12.767
68965SOL     OW 8727   9.453   7.244  11.955
68965SOL    HW1 8728   9.381   7.184  11.939
68965SOL    HW2 8729   9.445   7.269  12.047
68966SOL     OW 8730   4.644  11.349   3.300
68966SOL    HW1 8731   4.661  11.439   3.327
68966SOL    HW2 8732   4.699  11.336   3.222
68967SOL     OW 8733   6.265   6.759  10.089
68967SOL    HW1 8734   6.208   6.707  10.032
68967SOL    HW2 8735   6.218   6.842  10.099
68968SOL     OW 8736  11.521   7.168   7.420
68968SOL    HW1 8737  11.589   7.206   7.476
68968SOL    HW2 8738  11.568   7.106   7.364
68969SOL     OW 8739   7.365  12.932   1.361
68969SOL    HW1 8740   7.430  12.994   1.394
68969SOL    HW2 8741   7.281  12.969   1.386
68970SOL     OW 8742   3.513  12.576   9.527
68970SOL    HW1 8743   3.440  12.569   9.465
68970SOL    HW2 8744   3.570  12.503   9.505
68971SOL     OW 8745   6.985   9.618   6.702
68971SOL    HW1 8746   6.993   9.531   6.662
68971SOL    HW2 8747   7.064   9.627   6.755
68972SOL     OW 8748   3.346   2.006   9.764
68972SOL    HW1 8749   3.293   2.086   9.773
68972SOL    HW2 8750   3.353   1.973   9.853
68973SOL     OW 8751   3.040   8.136  11.400
68973SOL    HW1 8752   3.031   8.221  11.445
68973SOL    HW2 8753   2.951   8.113  11.375
68974SOL     OW 8754  10.104   9.889   7.514
68974SOL    HW1 8755  10.145   9.948   7.450
68974SOL    HW2 8756  10.010   9.902   7.501
68975SOL     OW 8757   8.978  11.359   9.295
68975SOL    HW1 8758   8.999  11.319   9.210
68975SOL    HW2 8759   8.899  11.314   9.324
68976SOL     OW 8760   8.965   8.106  13.911
68976SOL    HW1 8761   9.030   8.126  13.843
68976SOL    HW2 8762   8.907   8.042  13.871
68977SOL     OW 8763   9.533   6.049  12.550
68977SOL    HW1 8764   9.619   6.069  12.513
68977SOL    HW2 8765   9.541   5.959  12.582
68978SOL     OW 8766   2.920   3.582   3.796
68978SOL    HW1 8767   2.851   3.632   3.752
68978SOL    HW2 8768   2.882   3.495   3.809
68979SOL     OW 8769   2.437   6.704   3.485
68979SOL    HW1 8770   2.439   6.611   3.461
68979SOL    HW2 8771   2.397   6.705   3.572
68980SOL     OW 8772   3.330   3.421  14.425
68980SOL    HW1 8773   3.301   3.388  14.340
68980SOL    HW2 8774   3.314   3.515  14.421
68981SOL     OW 8775   9.597   8.832   0.211
68981SOL    HW1 8776   9.554   8.881   0.142
68981SOL    HW2 8777   9.682   8.873   0.222
68982SOL     OW 8778   5.803   4.998  11.188
68982SOL    HW1 8779   5.814   4.904  11.180
68982SOL    HW2 8780   5.816   5.032  11.100
68983SOL     OW 8781   3.633   2.886   5.913
68983SOL    HW1 8782   3.679   2.967   5.892
68983SOL    HW2 8783   3.645   2.876   6.008
68984SOL     OW 8784   1.572   8.907   1.749
68984SOL    HW1 8785   1.659   8.929   1.782
68984SOL    HW2 8786   1.552   8.976   1.686
68985SOL     OW 8787   1.144  11.203   7.762
68985SOL    HW1 8788   1.163  11.124   7.812
68985SOL    HW2 8789   1.210  11.205   7.693
68986SOL     OW 8790   1.795   4.378   5.712
68986SOL    HW1 8791   1.766   4.333   5.791
68986SOL    HW2 8792   1.719   4.378   5.654
68987SOL     OW 8793   7.343  10.584   4.388
68987SOL    HW1 8794   7.306  10.506   4.347
68987SOL    HW2 8795   7.394  10.550   4.461
68988SOL     OW 8796   4.274   4.553   7.896
68988SOL    HW1 8797   4.275   4.481   7.833
68988SOL    HW2 8798   4.285   4.632   7.843
68989SOL     OW 8799  10.710   5.818  14.275
68989SOL    HW1 8800  10.733   5.899  14.229
68989SOL    HW2 8801  10.770   5.815  14.350
68990SOL     OW 8802   4.226   1.486   4.709
68990SOL    HW1 8803   4.290   1.437   4.760
68990SOL    HW2 8804   4.235   1.577   4.738
68991SOL     OW 8805  14.140   7.294   2.890
68991SOL    HW1 8806  14.232   7.320   2.880
68991SOL    HW2 8807  14.117   7.254   2.806
68992SOL     OW 8808  11.391   6.625  14.734
68992SOL    HW1 8809  11.447   6.559  14.694
68992SOL    HW2 8810  11.383   6.693  14.667
68993SOL     OW 8811   6.912   1.894  12.143
68993SOL    HW1 8812   6.872   1.975  12.112
68993SOL    HW2 8813   6.891   1.828  12.077
68994SOL     OW 8814  12.873   6.236   2.280
68994SOL    HW1 8815  12.908   6.153   2.248
68994SOL    HW2 8816  12.915   6.302   2.224
68995SOL     OW 8817  11.358  11.376  12.339
68995SOL    HW1 8818  11.327  11.329  12.416
68995SOL    HW2 8819  11.309  11.459  12.340
68996SOL     OW 8820   8.878   5.202  11.101
68996SOL    HW1 8821   8.784   5.209  11.120
68996SOL    HW2 8822   8.912   5.291  11.114
68997SOL     OW 8823  12.559  12.357  10.497
68997SOL    HW1 8824  12.593  12.333  10.410
68997SOL    HW2 8825  12.464  12.362  10.485
68998SOL     OW 8826   0.857   8.683  12.507
68998SOL    HW1 8827   0.881   8.775  12.521
68998SOL    HW2 8828   0.781   8.669  12.564
68999SOL     OW 8829   3.153   0.889   6.694
68999SOL    HW1 8830   3.112   0.890   6.781
68999SOL    HW2 8831   3.247   0.897   6.712
69000SOL     OW 8832   0.527   7.694  14.182
69000SOL    HW1 8833   0.525   7.611  14.135
69000SOL    HW2 8834   0.502   7.759  14.117
69001SOL     OW 8835  11.145   8.168   9.296
69001SOL    HW1 8836  11.149   8.241   9.234
69001SOL    HW2 8837  11.231   8.128   9.291
69002SOL     OW 8838   0.774   0.636   0.063
69002SOL    HW1 8839   0.801   0.692  14.863
69002SOL    HW2 8840   0.680   0.654   0.072
69003SOL     OW 8841  13.679  12.592   2.366
69003SOL    HW1 8842  13.749  12.577   2.303
69003SOL    HW2 8843  13.667  12.508   2.409
69004SOL     OW 8844   1.996   0.599   4.061
69004SOL    HW1 8845   1.938   0.534   4.100
69004SOL    HW2 8846   1.984   0.677   4.115
69005SOL     OW 8847  11.081   9.379   5.047
69005SOL    HW1 8848  11.086   9.370   4.952
69005SOL    HW2 8849  10.988   9.381   5.066
69006SOL     OW 8850   1.280  12.643  11.078
69006SOL    HW1 8851   1.292  12.569  11.137
69006SOL    HW2 8852   1.356  12.699  11.093
69007SOL     OW 8853   1.528  14.700   1.540
69007SOL    HW1 8854   1.437  14.669   1.539
69007SOL    HW2 8855   1.524  14.783   1.587
69008SOL     OW 8856   3.407  12.791   6.470
69008SOL    HW1 8857   3.472  12.733   6.430
69008SOL    HW2 8858   3.380  12.850   6.400
69009SOL     OW 8859  14.200   8.677   8.398
69009SOL    HW1 8860  14.263   8.666   8.469
69009SOL    HW2 8861  14.180   8.770   8.396
69010SOL     OW 8862   7.346  11.210   7.862
69010SOL    HW1 8863   7.419  11.149   7.873
69010SOL    HW2 8864   7.377  11.293   7.899
69011SOL     OW 8865  10.173  11.703   4.820
69011SOL    HW1 8866  10.193  11.640   4.889
69011SOL    HW2 8867  10.181  11.653   4.739
69012SOL     OW 8868  12.390  11.189  12.075
69012SOL    HW1 8869  12.374  11.251  12.003
69012SOL    HW2 8870  12.455  11.128  12.040
69013SOL     OW 8871   2.804   9.319  13.619
69013SOL    HW1 8872   2.872   9.375  13.655
69013SOL    HW2 8873   2.848   9.267  13.552
69014SOL     OW 8874  11.829  11.669  11.766
69014SOL    HW1 8875  11.902  11.717  11.805
69014SOL    HW2 8876  11.810  11.599  11.828
69015SOL     OW 8877   0.077  13.037   1.950
69015SOL    HW1 8878   0.153  13.041   2.008
69015SOL    HW2 8879   0.002  13.056   2.006
69016SOL     OW 8880  12.900  12.409  10.953
69016SOL    HW1 8881  12.818  12.426  10.906
69016SOL    HW2 8882  12.922  12.319  10.930
69017SOL     OW 8883  13.863  14.665   6.407
69017SOL    HW1 8884  13.951  14.685   6.440
69017SOL    HW2 8885  13.878  14.600   6.339
69018SOL     OW 8886   7.643  10.465   6.231
69018SOL    HW1 8887   7.609  10.383   6.267
69018SOL    HW2 8888   7.688  10.507   6.304
69019SOL     OW 8889   3.822   8.121   6.293
69019SOL    HW1 8890   3.734   8.097   6.263
69019SOL    HW2 8891   3.822   8.099   6.387
69020SOL     OW 8892   3.340  10.697  11.120
69020SOL    HW1 8893   3.326  10.740  11.204
69020SOL    HW2 8894   3.417  10.740  11.083
69021SOL     OW 8895   3.350  13.676   5.062
69021SOL    HW1 8896   3.406  13.723   5.001
69021SOL    HW2 8897   3.354  13.726   5.143
69022SOL     OW 8898  14.221   8.116   2.303
69022SOL    HW1 8899  14.245   8.158   2.220
69022SOL    HW2 8900  14.126   8.107   2.298
69023SOL     OW 8901   9.378  12.824  14.085
69023SOL    HW1 8902   9.379  12.839  14.180
69023SOL    HW2 8903   9.324  12.894  14.050
69024SOL     OW 8904   4.638   5.053   6.787
69024SOL    HW1 8905   4.700   5.095   6.846
69024SOL    HW2 8906   4.641   4.961   6.810
69025SOL     OW 8907   2.650   1.629   4.514
69025SOL    HW1 8908   2.641   1.534   4.510
69025SOL    HW2 8909   2.735   1.644   4.555
69026SOL     OW 8910   5.146  13.059   6.498
69026SOL    HW1 8911   5.234  13.088   6.521
69026SOL    HW2 8912   5.106  13.136   6.456
69027SOL     OW 8913  10.479   3.823   6.334
69027SOL    HW1 8914  10.417   3.829   6.407
69027SOL    HW2 8915  10.556   3.872   6.365
69028SOL     OW 8916  11.088   6.081   2.154
69028SOL    HW1 8917  11.148   6.094   2.228
69028SOL    HW2 8918  11.010   6.131   2.176
69029SOL     OW 8919   6.941   1.051  11.244
69029SOL    HW1 8920   6.927   1.120  11.179
69029SOL    HW2 8921   6.980   1.096  11.319
69030SOL     OW 8922  12.693   4.869  14.651
69030SOL    HW1 8923  12.743   4.931  14.704
69030SOL    HW2 8924  12.631   4.924  14.603
69031SOL     OW 8925  11.385   0.294   4.919
69031SOL    HW1 8926  11.423   0.219   4.966
69031SOL    HW2 8927  11.461   0.342   4.887
69032SOL     OW 8928   7.949  12.398   5.615
69032SOL    HW1 8929   8.032  12.436   5.584
69032SOL    HW2 8930   7.926  12.334   5.548
69033SOL     OW 8931   0.325  12.228  13.088
69033SOL    HW1 8932   0.314  12.268  13.174
69033SOL    HW2 8933   0.372  12.147  13.105
69034SOL     OW 8934   9.322   4.558  11.244
69034SOL    HW1 8935   9.355   4.519  11.163
69034SOL    HW2 8936   9.234   4.589  11.222
69035SOL     OW 8937   9.330  14.670   8.521
69035SOL    HW1 8938   9.419  14.648   8.547
69035SOL    HW2 8939   9.339  14.717   8.438
69036SOL     OW 8940   8.775   2.632  11.483
69036SOL    HW1 8941   8.822   2.714  11.466
69036SOL    HW2 8942   8.796   2.576  11.408
69037SOL     OW 8943   8.270  11.667   9.716
69037SOL    HW1 8944   8.362  11.653   9.694
69037SOL    HW2 8945   8.223  11.635   9.639
69038SOL     OW 8946   3.083   1.109   9.805
69038SOL    HW1 8947   3.166   1.087   9.847
69038SOL    HW2 8948   3.099   1.094   9.712
69039SOL     OW 8949  12.514   3.590  10.836
69039SOL    HW1 8950  12.523   3.499  10.864
69039SOL    HW2 8951  12.569   3.639  10.897
69040SOL     OW 8952   5.622  13.736  11.770
69040SOL    HW1 8953   5.569  13.744  11.848
69040SOL    HW2 8954   5.692  13.675  11.795
69041SOL     OW 8955  13.451  13.424  13.312
69041SOL    HW1 8956  13.436  13.450  13.403
69041SOL    HW2 8957  13.544  13.438  13.298
69042SOL     OW 8958   9.053  14.500  14.556
69042SOL    HW1 8959   9.078  14.486  14.648
69042SOL    HW2 8960   9.092  14.584  14.533
69043SOL     OW 8961  10.735   5.280   8.817
69043SOL    HW1 8962  10.672   5.289   8.888
69043SOL    HW2 8963  10.813   5.244   8.859
69044SOL     OW 8964   4.523   7.878   7.773
69044SOL    HW1 8965   4.546   7.968   7.798
69044SOL    HW2 8966   4.537   7.827   7.853
69045SOL     OW 8967   6.182   6.805  14.498
69045SOL    HW1 8968   6.169   6.884  14.551
69045SOL    HW2 8969   6.126   6.739  14.540
69046SOL     OW 8970   5.501  11.464  13.985
69046SOL    HW1 8971   5.574  11.412  14.017
69046SOL    HW2 8972   5.431  11.400  13.968
69047SOL     OW 8973   7.749   3.955   8.910
69047SOL    HW1 8974   7.737   3.911   8.995
69047SOL    HW2 8975   7.666   3.941   8.864
69048SOL     OW 8976   2.837  14.847   4.865
69048SOL    HW1 8977   2.917  14.827   4.816
69048SOL    HW2 8978   2.771  14.786   4.831
69049SOL     OW 8979   8.194  11.267   0.171
69049SOL    HW1 8980   8.162  11.248   0.083
69049SOL    HW2 8981   8.117  11.257   0.227
69050SOL     OW 8982  12.345  14.635   9.356
69050SOL    HW1 8983  12.370  14.727   9.371
69050SOL    HW2 8984  12.328  14.600   9.444
69051SOL     OW 8985   9.250   0.639   2.784
69051SOL    HW1 8986   9.195   0.698   2.732
69051SOL    HW2 8987   9.287   0.694   2.852
69052SOL     OW 8988  11.118   3.486   4.135
69052SOL    HW1 8989  11.180   3.451   4.071
69052SOL    HW2 8990  11.075   3.558   4.088
69053SOL     OW 8991  13.994   4.761  10.307
69053SOL    HW1 8992  14.031   4.835  10.355
69053SOL    HW2 8993  14.070   4.716  10.270
69054SOL     OW 8994   3.185   9.450   5.534
69054SOL    HW1 8995   3.226   9.491   5.458
69054SOL    HW2 8996   3.202   9.511   5.606
69055SOL     OW 8997  12.642   1.485  10.755
69055SOL    HW1 8998  12.608   1.396  10.763
69055SOL    HW2 8999  12.732   1.480  10.787
69056SOL     OW 9000   1.672   2.410   8.631
69056SOL    HW1 9001   1.666   2.486   8.689
69056SOL    HW2 9002   1.634   2.440   8.548
69057SOL     OW 9003   7.028   2.572   0.247
69057SOL    HW1 9004   7.020   2.617   0.331
69057SOL    HW2 9005   6.967   2.498   0.254
69058SOL     OW 9006  13.533   6.918  14.527
69058SOL    HW1 9007  13.529   6.825  14.549
69058SOL    HW2 9008  13.626   6.940  14.533
69059SOL     OW 9009   1.230   9.221  12.655
69059SOL    HW1 9010   1.154   9.279  12.666
69059SOL    HW2 9011   1.192   9.133  12.651
69060SOL     OW 9012   0.356  10.541   5.778
69060SOL    HW1 9013   0.395  10.512   5.695
69060SOL    HW2 9014   0.277  10.489   5.786
69061SOL     OW 9015  13.773   2.826  10.886
69061SOL    HW1 9016  13.766   2.763  10.957
69061SOL    HW2 9017  13.698   2.884  10.897
69062SOL     OW 9018   0.770   4.528   9.845
69062SOL    HW1 9019   0.837   4.548   9.780
69062SOL    HW2 9020   0.749   4.613   9.884
69063SOL     OW 9021  12.640   7.897  12.771
69063SOL    HW1 9022  12.572   7.833  12.792
69063SOL    HW2 9023  12.687   7.860  12.698
69064SOL     OW 9024  11.889   4.183   9.570
69064SOL    HW1 9025  11.924   4.095   9.581
69064SOL    HW2 9026  11.965   4.240   9.576
69065SOL     OW 9027  10.568  10.701   5.299
69065SOL    HW1 9028  10.495  10.742   5.251
69065SOL    HW2 9029  10.526  10.638   5.356
69066SOL     OW 9030   9.218   8.535  11.758
69066SOL    HW1 9031   9.200   8.628  11.747
69066SOL    HW2 9032   9.137   8.491  11.734
69067SOL     OW 9033  11.459   3.466  13.649
69067SOL    HW1 9034  11.415   3.499  13.570
69067SOL    HW2 9035  11.438   3.373  13.651
69068SOL     OW 9036   1.914   4.296   4.189
69068SOL    HW1 9037   1.897   4.332   4.276
69068SOL    HW2 9038   2.009   4.305   4.177
69069SOL     OW 9039  14.070   5.843   4.358
69069SOL    HW1 9040  14.006   5.861   4.426
69069SOL    HW2 9041  14.053   5.910   4.292
69070SOL     OW 9042  14.170  10.674   8.497
69070SOL    HW1 9043  14.196  10.668   8.405
69070SOL    HW2 9044  14.081  10.708   8.494
69071SOL     OW 9045   4.760  14.084   6.248
69071SOL    HW1 9046   4.847  14.056   6.275
69071SOL    HW2 9047   4.742  14.162   6.302
69072SOL     OW 9048   3.307   0.670   1.062
69072SOL    HW1 9049   3.216   0.649   1.043
69072SOL    HW2 9050   3.354   0.653   0.980
69073SOL     OW 9051   5.185  11.801  10.572
69073SOL    HW1 9052   5.248  11.834  10.636
69073SOL    HW2 9053   5.236  11.795  10.490
69074SOL     OW 9054   7.184   0.284   1.226
69074SOL    HW1 9055   7.109   0.328   1.185
69074SOL    HW2 9056   7.237   0.356   1.261
69075SOL     OW 9057   8.925   6.900   8.858
69075SOL    HW1 9058   8.990   6.864   8.917
69075SOL    HW2 9059   8.943   6.857   8.774
69076SOL     OW 9060   3.803   3.002  13.408
69076SOL    HW1 9061   3.784   2.931  13.346
69076SOL    HW2 9062   3.898   3.003  13.414
69077SOL     OW 9063   9.443   8.640   0.329
69077SOL    HW1 9064   9.423   8.664   0.419
69077SOL    HW2 9065   9.504   8.708   0.299
69078SOL     OW 9066   3.552   2.280   5.658
69078SOL    HW1 9067   3.604   2.323   5.590
69078SOL    HW2 9068   3.466   2.267   5.619
69079SOL     OW 9069   6.757   9.011  12.755
69079SOL    HW1 9070   6.739   9.096  12.716
69079SOL    HW2 9071   6.843   9.021  12.797
69080SOL     OW 9072   7.819   4.996   0.525
69080SOL    HW1 9073   7.902   4.967   0.562
69080SOL    HW2 9074   7.829   4.983   0.431
69081SOL     OW 9075  11.530   3.669   2.658
69081SOL    HW1 9076  11.567   3.756   2.675
69081SOL    HW2 9077  11.459   3.685   2.596
69082SOL     OW 9078   2.010   4.705  14.184
69082SOL    HW1 9079   2.076   4.770  14.156
69082SOL    HW2 9080   2.008   4.642  14.112
69083SOL     OW 9081  11.060   2.859  11.003
69083SOL    HW1 9082  11.012   2.777  11.004
69083SOL    HW2 9083  11.009   2.917  11.060
69084SOL     OW 9084   9.819  10.888   8.962
69084SOL    HW1 9085   9.888  10.841   9.008
69084SOL    HW2 9086   9.860  10.920   8.881
69085SOL     OW 9087  14.868  14.525  14.579
69085SOL    HW1 9088  14.791  14.530  14.523
69085SOL    HW2 9089   0.016  14.616  14.600
69086SOL     OW 9090   0.576  14.368   0.271
69086SOL    HW1 9091   0.533  14.447   0.237
69086SOL    HW2 9092   0.557  14.301   0.206
69087SOL     OW 9093  10.201   0.205   6.817
69087SOL    HW1 9094  10.209   0.167   6.904
69087SOL    HW2 9095  10.109   0.193   6.794
69088SOL     OW 9096  11.691   4.076  12.780
69088SOL    HW1 9097  11.597   4.071  12.762
69088SOL    HW2 9098  11.724   3.988  12.761
69089SOL     OW 9099   1.097   0.181   0.350
69089SOL    HW1 9100   1.105   0.097   0.396
69089SOL    HW2 9101   1.016   0.173   0.299
69090SOL     OW 9102   9.116   6.423   1.412
69090SOL    HW1 9103   9.095   6.500   1.465
69090SOL    HW2 9104   9.073   6.351   1.457
69091SOL     OW 9105   0.760  10.742  11.668
69091SOL    HW1 9106   0.834  10.689  11.638
69091SOL    HW2 9107   0.686  10.714  11.614
69092SOL     OW 9108  11.150  13.155   4.246
69092SOL    HW1 9109  11.180  13.199   4.326
69092SOL    HW2 9110  11.066  13.196   4.226
69093SOL     OW 9111   5.227  13.874  12.655
69093SOL    HW1 9112   5.142  13.836  12.631
69093SOL    HW2 9113   5.235  13.857  12.749
69094SOL     OW 9114   5.114   2.405   8.474
69094SOL    HW1 9115   5.176   2.332   8.475
69094SOL    HW2 9116   5.029   2.364   8.486
69095SOL     OW 9117  14.199   0.797   1.307
69095SOL    HW1 9118  14.156   0.878   1.336
69095SOL    HW2 9119  14.191   0.737   1.381
69096SOL     OW 9120   1.219  10.949  12.965
69096SOL    HW1 9121   1.126  10.973  12.959
69096SOL    HW2 9122   1.224  10.893  13.042
69097SOL     OW 9123   5.429   3.947  13.329
69097SOL    HW1 9124   5.466   3.863  13.354
69097SOL    HW2 9125   5.366   3.927  13.260
69098SOL     OW 9126  12.988  13.055   2.178
69098SOL    HW1 9127  13.050  12.991   2.213
69098SOL    HW2 9128  12.957  13.104   2.254
69099SOL     OW 9129   5.421  12.916   1.744
69099SOL    HW1 9130   5.426  12.902   1.838
69099SOL    HW2 9131   5.364  12.992   1.733
69100SOL     OW 9132   1.384   2.292  13.532
69100SOL    HW1 9133   1.419   2.203  13.541
69100SOL    HW2 9134   1.305   2.282  13.480
69101SOL     OW 9135   5.746   8.013   0.389
69101SOL    HW1 9136   5.721   7.956   0.317
69101SOL    HW2 9137   5.837   7.990   0.408
69102SOL     OW 9138   9.252   8.326  11.330
69102SOL    HW1 9139   9.282   8.386  11.398
69102SOL    HW2 9140   9.167   8.295  11.361
69103SOL     OW 9141  12.305   7.099   5.551
69103SOL    HW1 9142  12.380   7.069   5.498
69103SOL    HW2 9143  12.273   7.020   5.594
69104SOL     OW 9144   0.178   9.366   8.154
69104SOL    HW1 9145   0.220   9.430   8.097
69104SOL    HW2 9146   0.148   9.297   8.096
69105SOL     OW 9147  14.126   1.479   2.065
69105SOL    HW1 9148  14.202   1.446   2.016
69105SOL    HW2 9149  14.108   1.409   2.129
69106SOL     OW 9150   0.659   2.439   2.587
69106SOL    HW1 9151   0.600   2.511   2.609
69106SOL    HW2 9152   0.721   2.435   2.660
69107SOL     OW 9153   4.458  12.003  11.253
69107SOL    HW1 9154   4.531  12.011  11.192
69107SOL    HW2 9155   4.483  12.056  11.328
69108SOL     OW 9156   3.178  11.044  13.598
69108SOL    HW1 9157   3.267  11.032  13.631
69108SOL    HW2 9158   3.145  11.121  13.644
69109SOL     OW 9159   8.902   7.609   1.748
69109SOL    HW1 9160   8.991   7.628   1.777
69109SOL    HW2 9161   8.858   7.577   1.827
69110SOL     OW 9162  13.496   4.549   2.179
69110SOL    HW1 9163  13.405   4.531   2.205
69110SOL    HW2 9164  13.547   4.539   2.259
69111SOL     OW 9165   2.311   5.606   4.721
69111SOL    HW1 9166   2.253   5.682   4.731
69111SOL    HW2 9167   2.298   5.556   4.801
69112SOL     OW 9168  10.185   3.433   7.443
69112SOL    HW1 9169  10.099   3.438   7.400
69112SOL    HW2 9170  10.198   3.520   7.481
69113SOL     OW 9171   0.283   9.750   8.160
69113SOL    HW1 9172   0.259   9.708   8.077
69113SOL    HW2 9173   0.262   9.842   8.147
69114SOL     OW 9174   0.574   1.307   4.708
69114SOL    HW1 9175   0.509   1.256   4.660
69114SOL    HW2 9176   0.617   1.242   4.765
69115SOL     OW 9177   4.025   1.050   3.675
69115SOL    HW1 9178   4.013   1.145   3.669
69115SOL    HW2 9179   4.112   1.035   3.639
69116SOL     OW 9180   1.048   3.436   1.613
69116SOL    HW1 9181   1.121   3.493   1.637
69116SOL    HW2 9182   1.036   3.379   1.688
69117SOL     OW 9183  13.920  12.269   8.681
69117SOL    HW1 9184  13.967  12.332   8.626
69117SOL    HW2 9185  13.988  12.209   8.711
69118SOL     OW 9186   3.436   5.521   2.622
69118SOL    HW1 9187   3.509   5.502   2.679
69118SOL    HW2 9188   3.400   5.603   2.655
69119SOL     OW 9189  12.342   9.471  12.998
69119SOL    HW1 9190  12.405   9.539  12.975
69119SOL    HW2 9191  12.377   9.391  12.959
69120SOL     OW 9192   6.295   6.801   9.046
69120SOL    HW1 9193   6.296   6.856   8.968
69120SOL    HW2 9194   6.298   6.863   9.119
69121SOL     OW 9195  11.846  13.334  14.233
69121SOL    HW1 9196  11.869  13.266  14.170
69121SOL    HW2 9197  11.845  13.288  14.318
69122SOL     OW 9198   3.509   8.090  11.608
69122SOL    HW1 9199   3.442   8.143  11.565
69122SOL    HW2 9200   3.474   8.001  11.606
69123SOL     OW 9201   2.540  11.603  14.640
69123SOL    HW1 9202   2.570  11.526  14.688
69123SOL    HW2 9203   2.453  11.580  14.610
69124SOL     OW 9204   5.047  14.031   6.104
69124SOL    HW1 9205   5.129  14.080   6.114
69124SOL    HW2 9206   5.074  13.944   6.074
69125SOL     OW 9207   0.823  13.109   6.388
69125SOL    HW1 9208   0.861  13.023   6.372
69125SOL    HW2 9209   0.894  13.170   6.365
69126SOL     OW 9210   8.493  10.365  12.971
69126SOL    HW1 9211   8.529  10.341  13.057
69126SOL    HW2 9212   8.403  10.390  12.989
69127SOL     OW 9213   9.288  14.285  13.901
69127SOL    HW1 9214   9.347  14.269  13.828
69127SOL    HW2 9215   9.231  14.356  13.871
69128SOL     OW 9216   9.446  13.214   1.097
69128SOL    HW1 9217   9.456  13.173   1.183
69128SOL    HW2 9218   9.506  13.165   1.041
69129SOL     OW 9219   8.687   1.788   2.724
69129SOL    HW1 9220   8.649   1.808   2.810
69129SOL    HW2 9221   8.667   1.695   2.710
69130SOL     OW 9222  11.673   0.512   2.897
69130SOL    HW1 9223  11.652   0.600   2.926
69130SOL    HW2 9224  11.707   0.524   2.808
69131SOL     OW 9225   5.201   6.507   8.035
69131SOL    HW1 9226   5.152   6.425   8.025
69131SOL    HW2 9227   5.248   6.497   8.118
69132SOL     OW 9228   8.094   8.261   3.684
69132SOL    HW1 9229   8.154   8.318   3.637
69132SOL    HW2 9230   8.050   8.319   3.747
69133SOL     OW 9231   9.604   2.783   6.354
69133SOL    HW1 9232   9.524   2.781   6.301
69133SOL    HW2 9233   9.672   2.751   6.296
69134SOL     OW 9234   4.719  13.627   9.633
69134SOL    HW1 9235   4.679  13.648   9.718
69134SOL    HW2 9236   4.787  13.563   9.654
69135SOL     OW 9237   7.462  10.186   3.703
69135SOL    HW1 9238   7.467  10.272   3.661
69135SOL    HW2 9239   7.545  10.143   3.679
69136SOL     OW 9240  11.636   4.709   4.247
69136SOL    HW1 9241  11.648   4.614   4.249
69136SOL    HW2 9242  11.586   4.729   4.326
69137SOL     OW 9243   3.037  10.426   9.196
69137SOL    HW1 9244   2.968  10.482   9.232
69137SOL    HW2 9245   3.117  10.476   9.207
69138SOL     OW 9246   3.896   6.057   6.720
69138SOL    HW1 9247   3.971   6.088   6.772
69138SOL    HW2 9248   3.936   6.012   6.646
69139SOL     OW 9249   2.022  11.193  13.885
69139SOL    HW1 9250   1.994  11.282  13.861
69139SOL    HW2 9251   2.117  11.193  13.871
69140SOL     OW 9252  10.555  10.051   8.005
69140SOL    HW1 9253  10.531   9.961   7.983
69140SOL    HW2 9254  10.506  10.070   8.085
69141SOL     OW 9255   5.949   6.686   3.750
69141SOL    HW1 9256   6.010   6.725   3.813
69141SOL    HW2 9257   5.900   6.622   3.801
69142SOL     OW 9258   0.250  13.610   7.041
69142SOL    HW1 9259   0.306  13.601   6.964
69142SOL    HW2 9260   0.162  13.623   7.006
69143SOL     OW 9261   2.320   2.688   3.222
69143SOL    HW1 9262   2.252   2.621   3.216
69143SOL    HW2 9263   2.273   2.768   3.244
69144SOL     OW 9264   6.441  10.669   9.760
69144SOL    HW1 9265   6.533  10.692   9.750
69144SOL    HW2 9266   6.398  10.750   9.785
69145SOL     OW 9267   3.621   9.097   5.845
69145SOL    HW1 9268   3.599   9.176   5.795
69145SOL    HW2 9269   3.555   9.033   5.819
69146SOL     OW 9270   9.720   2.648   0.154
69146SOL    HW1 9271   9.724   2.617   0.245
69146SOL    HW2 9272   9.806   2.626   0.118
69147SOL     OW 9273   3.183  12.606   2.940
69147SOL    HW1 9274   3.265  12.570   2.906
69147SOL    HW2 9275   3.206  12.693   2.972
69148SOL     OW 9276  12.667   6.019  10.135
69148SOL    HW1 9277  12.622   5.983  10.058
69148SOL    HW2 9278  12.651   6.114  10.129
69149SOL     OW 9279   0.274   1.251  12.257
69149SOL    HW1 9280   0.226   1.187  12.310
69149SOL    HW2 9281   0.304   1.201  12.181
69150SOL     OW 9282  10.887   3.210   9.659
69150SOL    HW1 9283  10.977   3.240   9.643
69150SOL    HW2 9284  10.885   3.184   9.751
69151SOL     OW 9285   5.953  14.783  13.344
69151SOL    HW1 9286   6.009  14.711  13.369
69151SOL    HW2 9287   5.868  14.763  13.384
69152SOL     OW 9288   5.855   3.194   0.466
69152SOL    HW1 9289   5.942   3.167   0.435
69152SOL    HW2 9290   5.854   3.169   0.559
69153SOL     OW 9291  14.393  13.220   4.009
69153SOL    HW1 9292  14.329  13.253   3.946
69153SOL    HW2 9293  14.444  13.157   3.960
69154SOL     OW 9294   4.976   2.266   7.162
69154SOL    HW1 9295   5.070   2.265   7.144
69154SOL    HW2 9296   4.954   2.174   7.178
69155SOL     OW 9297  12.282   9.524   7.315
69155SOL    HW1 9298  12.324   9.477   7.243
69155SOL    HW2 9299  12.300   9.472   7.393
69156SOL     OW 9300   0.590   2.208  12.277
69156SOL    HW1 9301   0.673   2.206  12.325
69156SOL    HW2 9302   0.594   2.289  12.227
69157SOL     OW 9303  10.756   5.652  11.927
69157SOL    HW1 9304  10.698   5.611  11.863
69157SOL    HW2 9305  10.719   5.739  11.941
69158SOL     OW 9306   9.176   5.748   9.588
69158SOL    HW1 9307   9.207   5.804   9.517
69158SOL    HW2 9308   9.097   5.706   9.554
69159SOL     OW 9309   3.392   1.767   4.640
69159SOL    HW1 9310   3.457   1.765   4.570
69159SOL    HW2 9311   3.311   1.736   4.598
69160SOL     OW 9312   8.294   7.513   7.124
69160SOL    HW1 9313   8.217   7.486   7.074
69160SOL    HW2 9314   8.290   7.462   7.205
69161SOL     OW 9315   1.046   2.729  10.963
69161SOL    HW1 9316   1.040   2.670  11.038
69161SOL    HW2 9317   0.957   2.759  10.948
69162SOL     OW 9318  11.588   7.094  10.270
69162SOL    HW1 9319  11.557   7.004  10.267
69162SOL    HW2 9320  11.558   7.127  10.355
69163SOL     OW 9321  12.743  11.057   3.693
69163SOL    HW1 9322  12.649  11.037   3.695
69163SOL    HW2 9323  12.749  11.143   3.734
69164SOL     OW 9324  14.157   9.261   8.620
69164SOL    HW1 9325  14.071   9.238   8.655
69164SOL    HW2 9326  14.219   9.210   8.672
69165SOL     OW 9327  14.078  10.618   7.011
69165SOL    HW1 9328  14.116  10.576   6.934
69165SOL    HW2 9329  14.128  10.581   7.084
69166SOL     OW 9330   5.900   5.560  13.036
69166SOL    HW1 9331   5.936   5.644  13.007
69166SOL    HW2 9332   5.813   5.557  12.997
69167SOL     OW 9333   8.192  13.359  11.661
69167SOL    HW1 9334   8.269  13.314  11.627
69167SOL    HW2 9335   8.145  13.389  11.583
69168SOL     OW 9336   9.786  14.275   8.104
69168SOL    HW1 9337   9.739  14.358   8.097
69168SOL    HW2 9338   9.754  14.223   8.031
69169SOL     OW 9339  11.408   7.618   3.334
69169SOL    HW1 9340  11.503   7.613   3.323
69169SOL    HW2 9341  11.376   7.648   3.249
69170SOL     OW 9342   2.515   5.559   9.155
69170SOL    HW1 9343   2.602   5.530   9.181
69170SOL    HW2 9344   2.522   5.654   9.145
69171SOL     OW 9345  13.235  14.204  13.516
69171SOL    HW1 9346  13.242  14.259  13.594
69171SOL    HW2 9347  13.304  14.139  13.526
69172SOL     OW 9348   3.389  14.448   7.336
69172SOL    HW1 9349   3.303  14.413   7.362
69172SOL    HW2 9350   3.379  14.543   7.345
69173SOL     OW 9351   7.387   4.868  12.636
69173SOL    HW1 9352   7.338   4.890  12.715
69173SOL    HW2 9353   7.466   4.922  12.641
69174SOL     OW 9354   3.986   9.010  10.210
69174SOL    HW1 9355   3.996   9.086  10.267
69174SOL    HW2 9356   3.969   9.047  10.123
69175SOL     OW 9357   3.264   1.341  10.988
69175SOL    HW1 9358   3.345   1.388  10.971
69175SOL    HW2 9359   3.199   1.383  10.931
69176SOL     OW 9360   8.063   7.329  10.654
69176SOL    HW1 9361   8.069   7.390  10.580
69176SOL    HW2 9362   7.969   7.315  10.666
69177SOL     OW 9363  13.356   2.492   0.460
69177SOL    HW1 9364  13.362   2.586   0.443
69177SOL    HW2 9365  13.369   2.484   0.555
69178SOL     OW 9366   6.437   3.208  12.629
69178SOL    HW1 9367   6.445   3.183  12.537
69178SOL    HW2 9368   6.508   3.271  12.642
69179SOL     OW 9369   5.735  11.810   3.070
69179SOL    HW1 9370   5.825  11.783   3.085
69179SOL    HW2 9371   5.683  11.746   3.120
69180SOL     OW 9372  10.968   1.997  14.733
69180SOL    HW1 9373  10.881   1.991  14.773
69180SOL    HW2 9374  11.026   2.022  14.805
69181SOL     OW 9375   5.316  12.311  14.130
69181SOL    HW1 9376   5.240  12.370  14.129
69181SOL    HW2 9377   5.278  12.224  14.119
69182SOL     OW 9378   3.426   3.198   9.913
69182SOL    HW1 9379   3.339   3.222   9.946
69182SOL    HW2 9380   3.482   3.197   9.991
69183SOL     OW 9381   6.432  12.291  11.120
69183SOL    HW1 9382   6.427  12.197  11.100
69183SOL    HW2 9383   6.342  12.317  11.136
69184SOL     OW 9384  14.724   6.745   0.434
69184SOL    HW1 9385  14.663   6.673   0.450
69184SOL    HW2 9386  14.785   6.711   0.369
69185SOL     OW 9387  14.458   6.390  13.844
69185SOL    HW1 9388  14.465   6.296  13.828
69185SOL    HW2 9389  14.412   6.397  13.928
69186SOL     OW 9390  14.206   8.231   1.449
69186SOL    HW1 9391  14.198   8.176   1.528
69186SOL    HW2 9392  14.239   8.171   1.382
69187SOL     OW 9393  11.252   7.009   9.833
69187SOL    HW1 9394  11.329   7.009   9.775
69187SOL    HW2 9395  11.280   7.060   9.909
69188SOL     OW 9396   6.761   6.526   4.488
69188SOL    HW1 9397   6.835   6.570   4.446
69188SOL    HW2 9398   6.735   6.585   4.559
69189SOL     OW 9399  13.014   6.373   2.109
69189SOL    HW1 9400  13.057   6.447   2.152
69189SOL    HW2 9401  13.020   6.392   2.016
69190SOL     OW 9402   6.910  10.624   6.613
69190SOL    HW1 9403   6.840  10.609   6.550
69190SOL    HW2 9404   6.920  10.719   6.616
69191SOL     OW 9405   1.243   9.435   7.074
69191SOL    HW1 9406   1.264   9.344   7.095
69191SOL    HW2 9407   1.294   9.487   7.135
69192SOL     OW 9408   1.502   6.526   9.097
69192SOL    HW1 9409   1.583   6.475   9.108
69192SOL    HW2 9410   1.459   6.486   9.021
69193SOL     OW 9411  11.572   6.042   1.506
69193SOL    HW1 9412  11.476   6.039   1.501
69193SOL    HW2 9413  11.590   6.077   1.594
69194SOL     OW 9414  11.630   6.001  13.356
69194SOL    HW1 9415  11.608   5.999  13.263
69194SOL    HW2 9416  11.682   6.080  13.367
69195SOL     OW 9417  12.078  10.238  10.289
69195SOL    HW1 9418  12.027  10.267  10.213
69195SOL    HW2 9419  12.030  10.162  10.322
69196SOL     OW 9420   8.957   5.220   1.448
69196SOL    HW1 9421   8.922   5.257   1.529
69196SOL    HW2 9422   8.896   5.250   1.380
69197SOL     OW 9423   3.212   3.313   1.404
69197SOL    HW1 9424   3.257   3.344   1.483
69197SOL    HW2 9425   3.172   3.230   1.431
69198SOL     OW 9426  11.271   6.749   5.843
69198SOL    HW1 9427  11.255   6.831   5.796
69198SOL    HW2 9428  11.184   6.710   5.851
69199SOL     OW 9429   6.531   1.517   5.703
69199SOL    HW1 9430   6.500   1.438   5.657
69199SOL    HW2 9431   6.455   1.575   5.704
69200SOL     OW 9432   2.778   3.342  13.068
69200SOL    HW1 9433   2.755   3.255  13.100
69200SOL    HW2 9434   2.850   3.328  13.007
69201SOL     OW 9435   4.087   9.560   8.975
69201SOL    HW1 9436   4.142   9.635   8.997
69201SOL    HW2 9437   4.007   9.598   8.938
69202SOL     OW 9438  14.862   3.633   1.698
69202SOL    HW1 9439   0.037   3.715   1.689
69202SOL    HW2 9440  14.771   3.657   1.684
69203SOL     OW 9441   2.898  11.802   1.966
69203SOL    HW1 9442   2.839  11.730   1.987
69203SOL    HW2 9443   2.840  11.877   1.949
69204SOL     OW 9444   3.690   6.272   0.121
69204SOL    HW1 9445   3.744   6.351   0.124
69204SOL    HW2 9446   3.600   6.304   0.117
69205SOL     OW 9447  12.780  10.238   8.776
69205SOL    HW1 9448  12.778  10.245   8.871
69205SOL    HW2 9449  12.688  10.236   8.750
69206SOL     OW 9450   4.459  13.589   6.335
69206SOL    HW1 9451   4.381  13.572   6.388
69206SOL    HW2 9452   4.431  13.568   6.245
69207SOL     OW 9453   8.506   9.573   2.459
69207SOL    HW1 9454   8.465   9.626   2.390
69207SOL    HW2 9455   8.600   9.583   2.444
69208SOL     OW 9456  10.081   5.842   1.126
69208SOL    HW1 9457  10.068   5.843   1.032
69208SOL    HW2 9458  10.085   5.934   1.151
69209SOL     OW 9459   9.804   0.552   3.516
69209SOL    HW1 9460   9.770   0.488   3.453
69209SOL    HW2 9461   9.742   0.624   3.513
69210SOL     OW 9462  13.254   5.721   8.395
69210SOL    HW1 9463  13.241   5.764   8.310
69210SOL    HW2 9464  13.252   5.627   8.375
69211SOL     OW 9465  14.361  10.600   6.793
69211SOL    HW1 9466  14.406  10.582   6.876
69211SOL    HW2 9467  14.308  10.521   6.777
69212SOL     OW 9468  10.719   9.667  10.050
69212SOL    HW1 9469  10.629   9.655  10.019
69212SOL    HW2 9470  10.727   9.762  10.063
69213SOL     OW 9471   9.108  13.784  13.197
69213SOL    HW1 9472   9.027  13.736  13.181
69213SOL    HW2 9473   9.103  13.858  13.136
69214SOL     OW 9474   4.992   2.371   9.286
69214SOL    HW1 9475   4.968   2.305   9.221
69214SOL    HW2 9476   4.910   2.417   9.305
69215SOL     OW 9477   4.963   5.861  13.630
69215SOL    HW1 9478   4.899   5.887  13.697
69215SOL    HW2 9479   5.029   5.811  13.678
69216SOL     OW 9480  14.525   1.920   3.277
69216SOL    HW1 9481  14.467   1.938   3.203
69216SOL    HW2 9482  14.477   1.857   3.330
69217SOL     OW 9483   6.481   3.368   3.233
69217SOL    HW1 9484   6.409   3.431   3.236
69217SOL    HW2 9485   6.438   3.283   3.218
69218SOL     OW 9486   0.408   2.726   5.417
69218SOL    HW1 9487   0.436   2.635   5.425
69218SOL    HW2 9488   0.484   2.777   5.442
69219SOL     OW 9489  11.625  10.592   1.033
69219SOL    HW1 9490  11.614  10.504   0.996
69219SOL    HW2 9491  11.575  10.590   1.114
69220SOL     OW 9492   5.886   5.951  14.119
69220SOL    HW1 9493   5.849   6.032  14.155
69220SOL    HW2 9494   5.902   5.971  14.027
69221SOL     OW 9495  12.698   0.979   2.249
69221SOL    HW1 9496  12.631   0.913   2.265
69221SOL    HW2 9497  12.690   1.040   2.322
69222SOL     OW 9498   6.770   6.854   0.475
69222SOL    HW1 9499   6.829   6.817   0.540
69222SOL    HW2 9500   6.686   6.811   0.491
69223SOL     OW 9501   3.571   9.388  11.878
69223SOL    HW1 9502   3.660   9.358  11.857
69223SOL    HW2 9503   3.576   9.415  11.969
69224SOL     OW 9504  13.188   2.718   6.091
69224SOL    HW1 9505  13.235   2.733   6.009
69224SOL    HW2 9506  13.247   2.752   6.159
69225SOL     OW 9507   7.998   1.150   1.564
69225SOL    HW1 9508   7.997   1.063   1.604
69225SOL    HW2 9509   8.060   1.200   1.618
69226SOL     OW 9510   9.138   7.653   6.060
69226SOL    HW1 9511   9.143   7.584   5.993
69226SOL    HW2 9512   9.046   7.653   6.087
69227SOL     OW 9513   4.400  13.376  13.793
69227SOL    HW1 9514   4.427  13.447  13.733
69227SOL    HW2 9515   4.419  13.296  13.744
69228SOL     OW 9516  13.935   0.231   4.949
69228SOL    HW1 9517  13.948   0.217   4.856
69228SOL    HW2 9518  13.865   0.171   4.974
69229SOL     OW 9519   2.076   1.463  14.248
69229SOL    HW1 9520   2.093   1.422  14.333
69229SOL    HW2 9521   2.142   1.532  14.241
69230SOL     OW 9522   3.011   7.279   5.960
69230SOL    HW1 9523   3.045   7.276   6.050
69230SOL    HW2 9524   2.928   7.326   5.967
69231SOL     OW 9525   6.377   8.662   9.782
69231SOL    HW1 9526   6.326   8.584   9.806
69231SOL    HW2 9527   6.326   8.736   9.815
69232SOL     OW 9528   5.611   7.804   0.565
69232SOL    HW1 9529   5.653   7.886   0.593
69232SOL    HW2 9530   5.521   7.829   0.546
69233SOL     OW 9531   9.777   0.573   2.510
69233SOL    HW1 9532   9.791   0.508   2.441
69233SOL    HW2 9533   9.839   0.643   2.490
69234SOL     OW 9534  11.990  13.325   9.998
69234SOL    HW1 9535  11.999  13.358   9.908
69234SOL    HW2 9536  11.899  13.342  10.021
69235SOL     OW 9537   0.894   5.511   5.453
69235SOL    HW1 9538   0.962   5.516   5.521
69235SOL    HW2 9539   0.939   5.537   5.373
69236SOL     OW 9540  13.431   7.753  13.421
69236SOL    HW1 9541  13.505   7.722  13.474
69236SOL    HW2 9542  13.395   7.826  13.470
69237SOL     OW 9543   1.681   1.038   3.604
69237SOL    HW1 9544   1.642   1.083   3.678
69237SOL    HW2 9545   1.751   0.985   3.642
69238SOL     OW 9546   0.158  12.659   6.817
69238SOL    HW1 9547   0.245  12.632   6.789
69238SOL    HW2 9548   0.171  12.693   6.906
69239SOL     OW 9549   2.368  12.636  10.981
69239SOL    HW1 9550   2.278  12.628  11.014
69239SOL    HW2 9551   2.367  12.716  10.929
69240SOL     OW 9552   3.587   4.661   4.641
69240SOL    HW1 9553   3.611   4.753   4.654
69240SOL    HW2 9554   3.598   4.622   4.727
69241SOL     OW 9555   7.599  14.610   7.563
69241SOL    HW1 9556   7.628  14.551   7.633
69241SOL    HW2 9557   7.573  14.690   7.609
69242SOL     OW 9558   3.672   1.793   7.739
69242SOL    HW1 9559   3.632   1.713   7.773
69242SOL    HW2 9560   3.680   1.850   7.815
69243SOL     OW 9561   4.828   0.352   3.536
69243SOL    HW1 9562   4.913   0.309   3.543
69243SOL    HW2 9563   4.770   0.300   3.592
69244SOL     OW 9564  10.642  12.815   6.485
69244SOL    HW1 9565  10.665  12.896   6.532
69244SOL    HW2 9566  10.725  12.784   6.449
69245SOL     OW 9567  10.480   8.927   8.769
69245SOL    HW1 9568  10.407   8.965   8.819
69245SOL    HW2 9569  10.479   8.974   8.686
69246SOL     OW 9570   0.739  11.257   9.113
69246SOL    HW1 9571   0.675  11.313   9.156
69246SOL    HW2 9572   0.753  11.298   9.028
69247SOL     OW 9573  10.051   3.333  12.611
69247SOL    HW1 9574  10.043   3.301  12.521
69247SOL    HW2 9575  10.127   3.285  12.646
69248SOL     OW 9576  10.777   2.356   6.777
69248SOL    HW1 9577  10.866   2.340   6.747
69248SOL    HW2 9578  10.748   2.272   6.813
69249SOL     OW 9579   4.376   9.964   7.988
69249SOL    HW1 9580   4.413   9.950   8.074
69249SOL    HW2 9581   4.351  10.056   7.987
69250SOL     OW 9582   0.577   0.813   8.502
69250SOL    HW1 9583   0.556   0.741   8.442
69250SOL    HW2 9584   0.672   0.821   8.499
69251SOL     OW 9585   8.200   5.882   9.925
69251SOL    HW1 9586   8.190   5.849  10.014
69251SOL    HW2 9587   8.176   5.974   9.930
69252SOL     OW 9588   0.608   3.755   1.543
69252SOL    HW1 9589   0.605   3.717   1.455
69252SOL    HW2 9590   0.665   3.696   1.593
69253SOL     OW 9591  11.906   7.339   4.577
69253SOL    HW1 9592  11.906   7.431   4.606
69253SOL    HW2 9593  11.876   7.343   4.487
69254SOL     OW 9594  11.700   0.702   6.583
69254SOL    HW1 9595  11.635   0.734   6.646
69254SOL    HW2 9596  11.697   0.766   6.512
69255SOL     OW 9597   1.639  11.697  14.281
69255SOL    HW1 9598   1.557  11.663  14.316
69255SOL    HW2 9599   1.703  11.683  14.351
69256SOL     OW 9600   4.903   7.991   4.784
69256SOL    HW1 9601   4.910   8.076   4.827
69256SOL    HW2 9602   4.815   7.989   4.748
69257SOL     OW 9603   4.127   1.178   9.461
69257SOL    HW1 9604   4.044   1.222   9.481
69257SOL    HW2 9605   4.102   1.101   9.411
69258SOL     OW 9606  12.971   5.471  11.854
69258SOL    HW1 9607  12.974   5.409  11.782
69258SOL    HW2 9608  12.969   5.416  11.933
69259SOL     OW 9609  12.102  14.216  11.389
69259SOL    HW1 9610  12.127  14.129  11.359
69259SOL    HW2 9611  12.033  14.243  11.328
69260SOL     OW 9612  12.677  12.912  12.950
69260SOL    HW1 9613  12.725  12.852  13.007
69260SOL    HW2 9614  12.671  12.994  13.000
69261SOL     OW 9615   9.572   9.710   8.516
69261SOL    HW1 9616   9.614   9.686   8.434
69261SOL    HW2 9617   9.606   9.647   8.580
69262SOL     OW 9618   2.757   1.421   9.406
69262SOL    HW1 9619   2.732   1.338   9.447
69262SOL    HW2 9620   2.674   1.465   9.389
69263SOL     OW 9621   5.961  12.928   5.004
69263SOL    HW1 9622   5.898  12.908   5.073
69263SOL    HW2 9623   6.022  12.990   5.044
69264SOL     OW 9624   3.722   1.142  13.790
69264SOL    HW1 9625   3.699   1.176  13.876
69264SOL    HW2 9626   3.683   1.204  13.729
69265SOL     OW 9627   7.084   9.609  11.746
69265SOL    HW1 9628   7.108   9.695  11.781
69265SOL    HW2 9629   7.151   9.590  11.680
69266SOL     OW 9630   0.241   7.791  12.374
69266SOL    HW1 9631   0.316   7.753  12.420
69266SOL    HW2 9632   0.248   7.755  12.285
69267SOL     OW 9633   2.761   0.936   5.888
69267SOL    HW1 9634   2.756   0.846   5.919
69267SOL    HW2 9635   2.791   0.986   5.964
69268SOL     OW 9636   9.350  12.230  14.605
69268SOL    HW1 9637   9.364  12.324  14.595
69268SOL    HW2 9638   9.280  12.222  14.670
69269SOL     OW 9639   4.706   7.680  14.324
69269SOL    HW1 9640   4.690   7.634  14.242
69269SOL    HW2 9641   4.759   7.756  14.301
69270SOL     OW 9642  12.194  14.317   4.773
69270SOL    HW1 9643  12.231  14.400   4.801
69270SOL    HW2 9644  12.205  14.259   4.848
69271SOL     OW 9645  14.605   4.218   6.202
69271SOL    HW1 9646  14.629   4.285   6.138
69271SOL    HW2 9647  14.670   4.148   6.190
69272SOL     OW 9648  10.287  12.855  11.501
69272SOL    HW1 9649  10.193  12.867  11.514
69272SOL    HW2 9650  10.328  12.908  11.569
69273SOL     OW 9651   4.994  10.747   3.115
69273SOL    HW1 9652   4.993  10.823   3.174
69273SOL    HW2 9653   4.987  10.785   3.027
69274SOL     OW 9654   0.838  11.445   2.897
69274SOL    HW1 9655   0.794  11.366   2.865
69274SOL    HW2 9656   0.876  11.485   2.819
69275SOL     OW 9657   8.839   1.367   2.488
69275SOL    HW1 9658   8.928   1.396   2.509
69275SOL    HW2 9659   8.850   1.313   2.410
69276SOL     OW 9660  11.594   0.322  12.817
69276SOL    HW1 9661  11.601   0.261  12.743
69276SOL    HW2 9662  11.549   0.272  12.885
69277SOL     OW 9663   9.535   3.385   2.733
69277SOL    HW1 9664   9.496   3.423   2.812
69277SOL    HW2 9665   9.482   3.419   2.661
69278SOL     OW 9666   8.729   5.113   0.741
69278SOL    HW1 9667   8.723   5.182   0.807
69278SOL    HW2 9668   8.638   5.084   0.728
69279SOL     OW 9669   9.597   2.893   6.070
69279SOL    HW1 9670   9.548   2.975   6.078
69279SOL    HW2 9671   9.534   2.825   6.092
69280SOL     OW 9672   1.620   1.968   2.379
69280SOL    HW1 9673   1.642   2.027   2.307
69280SOL    HW2 9674   1.613   2.024   2.456
69281SOL     OW 9675   8.701  10.369   3.231
69281SOL    HW1 9676   8.689  10.326   3.315
69281SOL    HW2 9677   8.752  10.447   3.251
69282SOL     OW 9678  10.767   6.244   6.851
69282SOL    HW1 9679  10.831   6.199   6.907
69282SOL    HW2 9680  10.818   6.314   6.810
69283SOL     OW 9681   7.003  11.492   7.074
69283SOL    HW1 9682   7.087  11.454   7.047
69283SOL    HW2 9683   7.023  11.534   7.158
69284SOL     OW 9684   4.646   8.966   4.866
69284SOL    HW1 9685   4.734   8.956   4.902
69284SOL    HW2 9686   4.654   8.938   4.774
69285SOL     OW 9687   2.114   3.124   0.714
69285SOL    HW1 9688   2.057   3.094   0.785
69285SOL    HW2 9689   2.191   3.067   0.720
69286SOL     OW 9690   7.234   9.235   5.494
69286SOL    HW1 9691   7.241   9.330   5.483
69286SOL    HW2 9692   7.214   9.203   5.406
69287SOL     OW 9693   3.898   7.665   0.628
69287SOL    HW1 9694   3.810   7.690   0.659
69287SOL    HW2 9695   3.887   7.651   0.534
69288SOL     OW 9696   6.568  14.469   0.657
69288SOL    HW1 9697   6.508  14.525   0.607
69288SOL    HW2 9698   6.652  14.478   0.613
69289SOL     OW 9699  10.849   2.520   4.262
69289SOL    HW1 9700  10.813   2.576   4.193
69289SOL    HW2 9701  10.794   2.442   4.262
69290SOL     OW 9702  10.641  10.221  10.273
69290SOL    HW1 9703  10.557  10.179  10.291
69290SOL    HW2 9704  10.672  10.250  10.359
69291SOL     OW 9705  10.079   9.612   0.462
69291SOL    HW1 9706  10.001   9.666   0.446
69291SOL    HW2 9707  10.047   9.522   0.458
69292SOL     OW 9708   0.531   2.073  13.074
69292SOL    HW1 9709   0.475   2.140  13.035
69292SOL    HW2 9710   0.554   2.108  13.160
69293SOL     OW 9711   3.825   2.431  11.440
69293SOL    HW1 9712   3.729   2.433  11.446
69293SOL    HW2 9713   3.855   2.458  11.526
69294SOL     OW 9714  11.764   4.471   0.709
69294SOL    HW1 9715  11.795   4.381   0.721
69294SOL    HW2 9716  11.764   4.509   0.797
69295SOL     OW 9717   4.820  11.369   2.149
69295SOL    HW1 9718   4.835  11.464   2.154
69295SOL    HW2 9719   4.893  11.331   2.196
69296SOL     OW 9720  11.745   1.539   4.784
69296SOL    HW1 9721  11.741   1.487   4.865
69296SOL    HW2 9722  11.805   1.610   4.805
69297SOL     OW 9723   8.688   7.893   9.509
69297SOL    HW1 9724   8.614   7.949   9.531
69297SOL    HW2 9725   8.673   7.812   9.557
69298SOL     OW 9726  13.161  12.928   2.667
69298SOL    HW1 9727  13.160  13.022   2.686
69298SOL    HW2 9728  13.234  12.894   2.718
69299SOL     OW 9729   6.023  10.781  11.567
69299SOL    HW1 9730   5.930  10.759  11.563
69299SOL    HW2 9731   6.065  10.703  11.604
69300SOL     OW 9732   5.631   3.082   8.439
69300SOL    HW1 9733   5.650   3.095   8.532
69300SOL    HW2 9734   5.717   3.061   8.401
69301SOL     OW 9735   5.499  13.874   1.280
69301SOL    HW1 9736   5.573  13.873   1.219
69301SOL    HW2 9737   5.457  13.789   1.269
69302SOL     OW 9738  10.502  14.762   2.420
69302SOL    HW1 9739  10.452  14.721   2.349
69302SOL    HW2 9740  10.553  14.830   2.377
69303SOL     OW 9741   9.581   0.734   4.161
69303SOL    HW1 9742   9.530   0.659   4.130
69303SOL    HW2 9743   9.561   0.739   4.255
69304SOL     OW 9744  14.307   5.158   8.028
69304SOL    HW1 9745  14.254   5.131   7.953
69304SOL    HW2 9746  14.311   5.254   8.022
69305SOL     OW 9747  13.307  14.227   6.583
69305SOL    HW1 9748  13.299  14.279   6.503
69305SOL    HW2 9749  13.396  14.242   6.613
69306SOL     OW 9750  13.680  14.203   4.411
69306SOL    HW1 9751  13.761  14.251   4.393
69306SOL    HW2 9752  13.706  14.136   4.475
69307SOL     OW 9753   4.690  12.007   6.903
69307SOL    HW1 9754   4.763  12.015   6.841
69307SOL    HW2 9755   4.653  12.095   6.908
69308SOL     OW 9756   3.070   4.174   4.488
69308SOL    HW1 9757   2.998   4.237   4.496
69308SOL    HW2 9758   3.047   4.122   4.411
69309SOL     OW 9759   0.640   8.559   6.619
69309SOL    HW1 9760   0.609   8.525   6.535
69309SOL    HW2 9761   0.720   8.608   6.597
69310SOL     OW 9762   0.101   6.118  11.764
69310SOL    HW1 9763   0.010   6.090  11.775
69310SOL    HW2 9764   0.145   6.043  11.725
69311SOL     OW 9765   1.930  11.180   2.825
69311SOL    HW1 9766   1.979  11.184   2.907
69311SOL    HW2 9767   1.840  11.163   2.852
69312SOL     OW 9768   8.782  11.964   3.944
69312SOL    HW1 9769   8.855  11.935   3.889
69312SOL    HW2 9770   8.723  12.009   3.884
69313SOL     OW 9771  11.995  14.363   8.319
69313SOL    HW1 9772  12.031  14.450   8.337
69313SOL    HW2 9773  12.002  14.317   8.403
69314SOL     OW 9774   4.646   7.682   9.647
69314SOL    HW1 9775   4.559   7.674   9.610
69314SOL    HW2 9776   4.679   7.592   9.651
69315SOL     OW 9777   6.326   9.089   3.379
69315SOL    HW1 9778   6.276   9.076   3.299
69315SOL    HW2 9779   6.342   9.184   3.382
69316SOL     OW 9780  12.604   3.977   3.538
69316SOL    HW1 9781  12.622   4.036   3.465
69316SOL    HW2 9782  12.601   4.033   3.615
69317SOL     OW 9783   6.921  11.406   5.347
69317SOL    HW1 9784   6.955  11.389   5.260
69317SOL    HW2 9785   6.907  11.501   5.349
69318SOL     OW 9786   2.798  11.142  14.259
69318SOL    HW1 9787   2.848  11.072  14.300
69318SOL    HW2 9788   2.849  11.221  14.276
69319SOL     OW 9789   3.402   2.291   2.162
69319SOL    HW1 9790   3.362   2.373   2.191
69319SOL    HW2 9791   3.393   2.231   2.236
69320SOL     OW 9792   7.449   0.763  12.697
69320SOL    HW1 9793   7.360   0.728  12.698
69320SOL    HW2 9794   7.493   0.718  12.769
69321SOL     OW 9795   2.930   4.540  12.659
69321SOL    HW1 9796   2.940   4.621  12.709
69321SOL    HW2 9797   2.956   4.564  12.570
69322SOL     OW 9798   1.569   2.126   1.104
69322SOL    HW1 9799   1.522   2.044   1.093
69322SOL    HW2 9800   1.502   2.194   1.095
69323SOL     OW 9801   3.497   1.817   9.014
69323SOL    HW1 9802   3.497   1.908   8.986
69323SOL    HW2 9803   3.526   1.819   9.105
69324SOL     OW 9804  14.472   0.078  12.948
69324SOL    HW1 9805  14.509   0.106  13.031
69324SOL    HW2 9806  14.400   0.139  12.932
69325SOL     OW 9807   7.954   1.607   9.137
69325SOL    HW1 9808   7.913   1.528   9.172
69325SOL    HW2 9809   8.010   1.576   9.067
69326SOL     OW 9810  11.865   6.542   9.939
69326SOL    HW1 9811  11.845   6.636   9.936
69326SOL    HW2 9812  11.795   6.501   9.889
69327SOL     OW 9813   0.882   2.692   6.383
69327SOL    HW1 9814   0.861   2.622   6.322
69327SOL    HW2 9815   0.963   2.663   6.425
69328SOL     OW 9816   8.565   3.995   6.781
69328SOL    HW1 9817   8.525   3.941   6.714
69328SOL    HW2 9818   8.564   3.941   6.860
69329SOL     OW 9819   9.490   2.415   1.541
69329SOL    HW1 9820   9.562   2.465   1.504
69329SOL    HW2 9821   9.421   2.419   1.475
69330SOL     OW 9822  13.952   5.250   2.698
69330SOL    HW1 9823  13.880   5.216   2.645
69330SOL    HW2 9824  13.972   5.335   2.658
69331SOL     OW 9825   5.862   3.334   3.662
69331SOL    HW1 9826   5.784   3.281   3.642
69331SOL    HW2 9827   5.829   3.405   3.717
69332SOL     OW 9828   6.220   8.019   1.068
69332SOL    HW1 9829   6.222   8.112   1.091
69332SOL    HW2 9830   6.228   7.974   1.152
69333SOL     OW 9831  10.359   7.275   8.300
69333SOL    HW1 9832  10.319   7.320   8.226
69333SOL    HW2 9833  10.288   7.267   8.364
69334SOL     OW 9834   0.911   7.062   0.165
69334SOL    HW1 9835   0.922   7.093   0.075
69334SOL    HW2 9836   0.989   7.094   0.210
69335SOL     OW 9837   3.661   5.845   3.052
69335SOL    HW1 9838   3.577   5.811   3.021
69335SOL    HW2 9839   3.642   5.934   3.079
69336SOL     OW 9840  10.459   9.086   9.550
69336SOL    HW1 9841  10.367   9.096   9.573
69336SOL    HW2 9842  10.459   9.075   9.455
69337SOL     OW 9843   9.815  14.617  13.901
69337SOL    HW1 9844   9.843  14.674  13.973
69337SOL    HW2 9845   9.842  14.664  13.822
69338SOL     OW 9846   3.757   4.330   2.503
69338SOL    HW1 9847   3.702   4.256   2.528
69338SOL    HW2 9848   3.729   4.402   2.559
69339SOL     OW 9849  12.468   5.025   1.424
69339SOL    HW1 9850  12.559   4.999   1.414
69339SOL    HW2 9851  12.417   4.954   1.385
69340SOL     OW 9852   6.515   5.342   8.042
69340SOL    HW1 9853   6.490   5.384   8.124
69340SOL    HW2 9854   6.432   5.328   7.996
69341SOL     OW 9855   5.466   6.618   2.185
69341SOL    HW1 9856   5.559   6.602   2.167
69341SOL    HW2 9857   5.466   6.700   2.235
69342SOL     OW 9858  13.454  13.868  10.272
69342SOL    HW1 9859  13.458  13.893  10.364
69342SOL    HW2 9860  13.545  13.854  10.247
69343SOL     OW 9861   4.864  11.601   4.435
69343SOL    HW1 9862   4.772  11.624   4.447
69343SOL    HW2 9863   4.864  11.505   4.430
69344SOL     OW 9864   6.467   4.340  11.262
69344SOL    HW1 9865   6.417   4.299  11.191
69344SOL    HW2 9866   6.401   4.377  11.319
69345SOL     OW 9867   1.735   8.854   4.138
69345SOL    HW1 9868   1.665   8.804   4.181
69345SOL    HW2 9869   1.690   8.925   4.094
69346SOL     OW 9870   7.724   3.741  12.497
69346SOL    HW1 9871   7.685   3.824  12.522
69346SOL    HW2 9872   7.804   3.765  12.450
69347SOL     OW 9873   0.585   7.338  10.104
69347SOL    HW1 9874   0.626   7.346  10.190
69347SOL    HW2 9875   0.655   7.355  10.042
69348SOL     OW 9876  13.349   6.256  14.709
69348SOL    HW1 9877  13.353   6.346  14.677
69348SOL    HW2 9878  13.434   6.241  14.750
69349SOL     OW 9879   2.428   7.474   6.617
69349SOL    HW1 9880   2.495   7.492   6.683
69349SOL    HW2 9881   2.477   7.456   6.537
69350SOL     OW 9882   7.278  11.407   6.412
69350SOL    HW1 9883   7.357  11.368   6.450
69350SOL    HW2 9884   7.307  11.492   6.379
69351SOL     OW 9885  13.748  11.982   5.957
69351SOL    HW1 9886  13.720  12.001   6.047
69351SOL    HW2 9887  13.838  12.017   5.953
69352SOL     OW 9888   3.653  14.286   2.424
69352SOL    HW1 9889   3.672  14.280   2.331
69352SOL    HW2 9890   3.697  14.210   2.463
69353SOL     OW 9891   1.897   8.748  14.803
69353SOL    HW1 9892   1.838   8.707  14.866
69353SOL    HW2 9893   1.890   8.694  14.725
69354SOL     OW 9894   8.513   7.817   7.174
69354SOL    HW1 9895   8.539   7.732   7.210
69354SOL    HW2 9896   8.580   7.877   7.207
69355SOL     OW 9897   1.180  11.577   8.242
69355SOL    HW1 9898   1.200  11.602   8.152
69355SOL    HW2 9899   1.259  11.600   8.292
69356SOL     OW 9900  14.617   7.540   7.041
69356SOL    HW1 9901  14.606   7.629   7.005
69356SOL    HW2 9902  14.529   7.504   7.041
69357SOL     OW 9903   6.937   6.401  13.320
69357SOL    HW1 9904   7.010   6.373  13.375
69357SOL    HW2 9905   6.887   6.321  13.303
69358SOL     OW 9906   6.474   4.367  12.063
69358SOL    HW1 9907   6.566   4.394  12.068
69358SOL    HW2 9908   6.436   4.426  11.998
69359SOL     OW 9909  10.722  10.708  10.156
69359SOL    HW1 9910  10.747  10.684  10.067
69359SOL    HW2 9911  10.675  10.791  10.146
69360SOL     OW 9912   2.793   7.695   6.717
69360SOL    HW1 9913   2.792   7.729   6.628
69360SOL    HW2 9914   2.701   7.683   6.740
69361SOL     OW 9915   3.585   3.256   6.428
69361SOL    HW1 9916   3.625   3.289   6.508
69361SOL    HW2 9917   3.531   3.182   6.457
69362SOL     OW 9918   2.558   2.703  14.870
69362SOL    HW1 9919   2.496   2.763   0.038
69362SOL    HW2 9920   2.579   2.743  14.786
69363SOL     OW 9921   2.273  11.597  13.760
69363SOL    HW1 9922   2.249  11.640  13.843
69363SOL    HW2 9923   2.365  11.618  13.748
69364SOL     OW 9924   0.949  14.793   5.954
69364SOL    HW1 9925   0.937  14.699   5.937
69364SOL    HW2 9926   0.865  14.832   5.933
69365SOL     OW 9927  10.500   0.802   1.715
69365SOL    HW1 9928  10.540   0.715   1.722
69365SOL    HW2 9929  10.514   0.828   1.624
69366SOL     OW 9930  12.825  10.997   2.321
69366SOL    HW1 9931  12.905  10.973   2.368
69366SOL    HW2 9932  12.856  11.055   2.251
69367SOL     OW 9933  13.802  12.287   5.983
69367SOL    HW1 9934  13.827  12.338   6.060
69367SOL    HW2 9935  13.720  12.244   6.009
69368SOL     OW 9936   6.820  10.062   6.308
69368SOL    HW1 9937   6.832   9.991   6.371
69368SOL    HW2 9938   6.900  10.115   6.316
69369SOL     OW 9939   7.525   4.800   7.635
69369SOL    HW1 9940   7.550   4.714   7.600
69369SOL    HW2 9941   7.565   4.862   7.574
69370SOL     OW 9942   5.043   5.522   3.700
69370SOL    HW1 9943   4.955   5.527   3.736
69370SOL    HW2 9944   5.097   5.571   3.762
69371SOL     OW 9945   3.804   5.895   6.928
69371SOL    HW1 9946   3.767   5.958   6.867
69371SOL    HW2 9947   3.825   5.945   7.006
69372SOL     OW 9948  13.079   4.326   0.272
69372SOL    HW1 9949  13.080   4.241   0.315
69372SOL    HW2 9950  12.991   4.332   0.233
69373SOL     OW 9951   2.240   2.946   3.284
69373SOL    HW1 9952   2.147   2.964   3.299
69373SOL    HW2 9953   2.276   3.029   3.254
69374SOL     OW 9954   1.538  14.459  14.566
69374SOL    HW1 9955   1.607  14.452  14.632
69374SOL    HW2 9956   1.576  14.419  14.487
69375SOL     OW 9957   0.514  13.469   0.316
69375SOL    HW1 9958   0.464  13.493   0.238
69375SOL    HW2 9959   0.517  13.374   0.314
69376SOL     OW 9960  12.141  10.045   7.990
69376SOL    HW1 9961  12.215  10.104   7.975
69376SOL    HW2 9962  12.134  10.039   8.085
69377SOL     OW 9963   5.719   1.919  14.301
69377SOL    HW1 9964   5.654   1.932  14.232
69377SOL    HW2 9965   5.671   1.879  14.373
69378SOL     OW 9966  10.621  10.679  13.733
69378SOL    HW1 9967  10.602  10.630  13.813
69378SOL    HW2 9968  10.541  10.671  13.681
69379SOL     OW 9969  12.540  10.897   8.477
69379SOL    HW1 9970  12.615  10.840   8.460
69379SOL    HW2 9971  12.487  10.849   8.540
69380SOL     OW 9972   9.020  12.630   5.176
69380SOL    HW1 9973   8.988  12.718   5.194
69380SOL    HW2 9974   8.942  12.575   5.181
69381SOL     OW 9975   2.701  13.034   1.311
69381SOL    HW1 9976   2.678  13.122   1.342
69381SOL    HW2 9977   2.654  12.976   1.371
69382SOL     OW 9978  11.732   0.346   8.228
69382SOL    HW1 9979  11.669   0.311   8.165
69382SOL    HW2 9980  11.805   0.283   8.227
69383SOL     OW 9981   4.901   0.785  14.625
69383SOL    HW1 9982   4.952   0.752  14.700
69383SOL    HW2 9983   4.939   0.741  14.549
69384SOL     OW 9984   1.902   6.333  13.342
69384SOL    HW1 9985   1.929   6.404  13.284
69384SOL    HW2 9986   1.850   6.275  13.286
69385SOL     OW 9987   8.320  10.130  13.781
69385SOL    HW1 9988   8.310  10.192  13.708
69385SOL    HW2 9989   8.414  10.117  13.790
69386SOL     OW 9990   7.110   8.500   5.565
69386SOL    HW1 9991   7.070   8.574   5.519
69386SOL    HW2 9992   7.112   8.430   5.500
69387SOL     OW 9993   4.855   7.595  10.203
69387SOL    HW1 9994   4.790   7.627  10.266
69387SOL    HW2 9995   4.809   7.593  10.119
69388SOL     OW 9996  12.375   7.704  11.493
69388SOL    HW1 9997  12.421   7.752  11.562
69388SOL    HW2 9998  12.355   7.619  11.533
69389SOL     OW 9999  10.146   3.161  11.436
69389SOL    HW110000  10.169   3.106  11.361
69389SOL    HW210001  10.163   3.250  11.406
69390SOL     OW10002   9.216   2.736   1.514
69390SOL    HW110003   9.305   2.726   1.479
69390SOL    HW210004   9.222   2.707   1.605
69391SOL     OW10005   2.695   2.630  11.714
69391SOL    HW110006   2.603   2.642  11.738
69391SOL    HW210007   2.700   2.540  11.682
69392SOL     OW10008   5.378   5.400   2.396
69392SOL    HW110009   5.324   5.479   2.394
69392SOL    HW210010   5.461   5.429   2.435
69393SOL     OW10011   1.591  13.314   7.107
69393SOL    HW110012   1.670  13.365   7.092
69393SOL    HW210013   1.533  13.337   7.035
69394SOL     OW10014  10.160   6.556   1.000
69394SOL    HW110015  10.243   6.591   0.968
69394SOL    HW210016  10.106   6.634   1.017
69395SOL     OW10017  12.117   0.737  11.559
69395SOL    HW110018  12.071   0.807  11.605
69395SOL    HW210019  12.155   0.779  11.482
69396SOL     OW10020   6.045   9.704   7.753
69396SOL    HW110021   5.972   9.761   7.779
69396SOL    HW210022   6.114   9.765   7.727
69397SOL     OW10023   8.034   0.435   0.931
69397SOL    HW110024   8.107   0.376   0.914
69397SOL    HW210025   8.073   0.512   0.972
69398SOL     OW10026   3.518   4.121   7.944
69398SOL    HW110027   3.573   4.162   7.877
69398SOL    HW210028   3.535   4.172   8.023
69399SOL     OW10029   2.574   0.951   2.863
69399SOL    HW110030   2.665   0.927   2.849
69399SOL    HW210031   2.570   1.044   2.839
69400SOL     OW10032   0.411  14.556   4.706
69400SOL    HW110033   0.483  14.501   4.677
69400SOL    HW210034   0.361  14.502   4.767
69401SOL     OW10035  11.418  10.718  10.386
69401SOL    HW110036  11.474  10.735  10.310
69401SOL    HW210037  11.376  10.634  10.366
69402SOL     OW10038  10.189   0.594  12.083
69402SOL    HW110039  10.112   0.598  12.140
69402SOL    HW210040  10.160   0.543  12.007
69403SOL     OW10041   9.822   9.318  11.696
69403SOL    HW110042   9.812   9.234  11.652
69403SOL    HW210043   9.787   9.382  11.633
69404SOL     OW10044   0.757   1.911  11.080
69404SOL    HW110045   0.750   1.899  11.175
69404SOL    HW210046   0.774   2.005  11.069
69405SOL     OW10047   8.775   8.631  11.665
69405SOL    HW110048   8.771   8.664  11.576
69405SOL    HW210049   8.723   8.693  11.716
69406SOL     OW10050   1.260   4.168   9.739
69406SOL    HW110051   1.233   4.206   9.823
69406SOL    HW210052   1.229   4.078   9.743
69407SOL     OW10053   5.547  13.815   0.401
69407SOL    HW110054   5.491  13.812   0.323
69407SOL    HW210055   5.535  13.730   0.442
69408SOL     OW10056  10.908   3.175   6.417
69408SOL    HW110057  10.952   3.217   6.490
69408SOL    HW210058  10.872   3.094   6.454
69409SOL     OW10059   0.626  11.236   2.610
69409SOL    HW110060   0.606  11.186   2.689
69409SOL    HW210061   0.584  11.186   2.539
69410SOL     OW10062   5.504   7.603  11.218
69410SOL    HW110063   5.454   7.640  11.290
69410SOL    HW210064   5.594   7.633  11.233
69411SOL     OW10065   0.549  12.894   7.768
69411SOL    HW110066   0.567  12.919   7.677
69411SOL    HW210067   0.526  12.977   7.811
69412SOL     OW10068   3.504  14.762  11.340
69412SOL    HW110069   3.565  14.795  11.274
69412SOL    HW210070   3.479  14.675  11.309
69413SOL     OW10071   6.030   8.546   2.627
69413SOL    HW110072   6.061   8.502   2.706
69413SOL    HW210073   6.072   8.498   2.555
69414SOL     OW10074   2.256  11.385  13.289
69414SOL    HW110075   2.209  11.341  13.361
69414SOL    HW210076   2.303  11.315  13.245
69415SOL     OW10077   9.278  10.215   0.019
69415SOL    HW110078   9.262  10.137   0.073
69415SOL    HW210079   9.337  10.269   0.071
69416SOL     OW10080   6.907   8.457   4.430
69416SOL    HW110081   6.954   8.438   4.511
69416SOL    HW210082   6.940   8.392   4.367
69417SOL     OW10083   1.049   9.952  12.968
69417SOL    HW110084   1.088   9.875  13.009
69417SOL    HW210085   1.052   9.934  12.875
69418SOL     OW10086  11.001  14.179   6.534
69418SOL    HW110087  10.941  14.106   6.517
69418SOL    HW210088  10.999  14.189   6.629
69419SOL     OW10089  13.773   4.975   9.163
69419SOL    HW110090  13.800   4.965   9.254
69419SOL    HW210091  13.712   4.903   9.148
69420SOL     OW10092   4.939   8.670   4.634
69420SOL    HW110093   4.979   8.640   4.716
69420SOL    HW210094   4.987   8.750   4.612
69421SOL     OW10095   0.367  10.326  10.705
69421SOL    HW110096   0.383  10.305  10.613
69421SOL    HW210097   0.342  10.242  10.744
69422SOL     OW10098   8.338  13.883   2.817
69422SOL    HW110099   8.331  13.803   2.869
69422SOL    HW210100   8.289  13.864   2.737
69423SOL     OW10101   8.941   8.749  12.572
69423SOL    HW110102   9.008   8.816  12.577
69423SOL    HW210103   8.983   8.670  12.606
69424SOL     OW10104   4.252   6.671   3.331
69424SOL    HW110105   4.219   6.689   3.419
69424SOL    HW210106   4.328   6.729   3.322
69425SOL     OW10107   0.849   9.232   3.592
69425SOL    HW110108   0.923   9.228   3.532
69425SOL    HW210109   0.783   9.175   3.553
69426SOL     OW10110  12.540  14.499   7.418
69426SOL    HW110111  12.453  14.534   7.438
69426SOL    HW210112  12.566  14.545   7.338
69427SOL     OW10113   3.676   5.636  12.273
69427SOL    HW110114   3.749   5.593  12.229
69427SOL    HW210115   3.717   5.687  12.343
69428SOL     OW10116  14.336   2.812   9.590
69428SOL    HW110117  14.271   2.759   9.545
69428SOL    HW210118  14.315   2.902   9.566
69429SOL     OW10119   6.499   5.831   5.528
69429SOL    HW110120   6.533   5.812   5.440
69429SOL    HW210121   6.405   5.843   5.515
69430SOL     OW10122  10.298  12.526  10.866
69430SOL    HW110123  10.203  12.524  10.859
69430SOL    HW210124  10.328  12.534  10.775
69431SOL     OW10125  10.825  12.914   1.552
69431SOL    HW110126  10.860  12.960   1.629
69431SOL    HW210127  10.883  12.940   1.481
69432SOL     OW10128  11.306   0.529  14.316
69432SOL    HW110129  11.362   0.466  14.271
69432SOL    HW210130  11.366   0.575  14.376
69433SOL     OW10131   7.203   4.220   9.411
69433SOL    HW110132   7.173   4.183   9.494
69433SOL    HW210133   7.223   4.312   9.431
69434SOL     OW10134   1.016   7.303   6.234
69434SOL    HW110135   1.095   7.344   6.269
69434SOL    HW210136   0.987   7.245   6.305
69435SOL     OW10137   5.585   5.275  11.778
69435SOL    HW110138   5.680   5.278  11.767
69435SOL    HW210139   5.567   5.339  11.847
69436SOL     OW10140   2.296   6.099   6.899
69436SOL    HW110141   2.328   6.118   6.987
69436SOL    HW210142   2.339   6.016   6.875
69437SOL     OW10143   2.574   8.658   5.625
69437SOL    HW110144   2.569   8.565   5.648
69437SOL    HW210145   2.638   8.661   5.554
69438SOL     OW10146   8.520   6.569  10.301
69438SOL    HW110147   8.500   6.587  10.393
69438SOL    HW210148   8.452   6.616  10.252
69439SOL     OW10149   7.795   1.003  10.846
69439SOL    HW110150   7.788   1.001  10.941
69439SOL    HW210151   7.807   0.911  10.821
69440SOL     OW10152  10.648   6.330  11.875
69440SOL    HW110153  10.556   6.357  11.879
69440SOL    HW210154  10.675   6.347  11.785
69441SOL     OW10155   7.235   2.080   1.356
69441SOL    HW110156   7.252   1.991   1.323
69441SOL    HW210157   7.322   2.120   1.362
69442SOL     OW10158   3.318  11.068   9.244
69442SOL    HW110159   3.261  11.076   9.167
69442SOL    HW210160   3.260  11.037   9.313
69443SOL     OW10161   7.843   1.510   3.466
69443SOL    HW110162   7.800   1.559   3.397
69443SOL    HW210163   7.853   1.421   3.431
69444SOL     OW10164  14.497   4.920  12.567
69444SOL    HW110165  14.442   4.980  12.517
69444SOL    HW210166  14.470   4.833  12.537
69445SOL     OW10167   2.475  12.769   0.205
69445SOL    HW110168   2.390  12.740   0.238
69445SOL    HW210169   2.467  12.763   0.110
69446SOL     OW10170  11.407   4.032   0.989
69446SOL    HW110171  11.333   4.091   1.005
69446SOL    HW210172  11.383   3.951   1.033
69447SOL     OW10173   5.578   5.719   9.983
69447SOL    HW110174   5.571   5.633   9.943
69447SOL    HW210175   5.489   5.754   9.980
69448SOL     OW10176   5.552  11.294  13.656
69448SOL    HW110177   5.642  11.278  13.628
69448SOL    HW210178   5.517  11.355  13.591
69449SOL     OW10179   7.982   2.923   2.345
69449SOL    HW110180   8.025   2.854   2.396
69449SOL    HW210181   7.940   2.876   2.273
69450SOL     OW10182  14.142  12.084  11.699
69450SOL    HW110183  14.176  12.087  11.788
69450SOL    HW210184  14.118  11.992  11.686
69451SOL     OW10185  13.373   6.124  10.499
69451SOL    HW110186  13.325   6.197  10.539
69451SOL    HW210187  13.464   6.154  10.496
69452SOL     OW10188   3.080   5.249  14.768
69452SOL    HW110189   3.069   5.266  14.861
69452SOL    HW210190   3.149   5.183  14.762
69453SOL     OW10191   6.033  10.302   3.454
69453SOL    HW110192   6.060  10.357   3.380
69453SOL    HW210193   5.972  10.239   3.415
69454SOL     OW10194   5.697   8.674  10.501
69454SOL    HW110195   5.758   8.729  10.452
69454SOL    HW210196   5.611   8.708  10.479
69455SOL     OW10197   8.227   9.054  13.290
69455SOL    HW110198   8.178   9.119  13.341
69455SOL    HW210199   8.198   9.067  13.200
69456SOL     OW10200  10.312  14.831  14.133
69456SOL    HW110201  10.237  14.777  14.108
69456SOL    HW210202  10.387  14.772  14.127
69457SOL     OW10203   5.570   3.000   0.951
69457SOL    HW110204   5.561   3.081   0.899
69457SOL    HW210205   5.487   2.993   0.998
69458SOL     OW10206   2.670   8.567   1.355
69458SOL    HW110207   2.612   8.496   1.381
69458SOL    HW210208   2.736   8.570   1.425
69459SOL     OW10209   6.107  14.577  11.476
69459SOL    HW110210   6.122  14.529  11.557
69459SOL    HW210211   6.017  14.556  11.452
69460SOL     OW10212   0.671   3.798   7.766
69460SOL    HW110213   0.642   3.889   7.766
69460SOL    HW210214   0.694   3.780   7.675
69461SOL     OW10215   6.532  14.342  14.860
69461SOL    HW110216   6.491  14.257  14.842
69461SOL    HW210217   6.460  14.401   0.006
69462SOL     OW10218  13.098   5.067   9.228
69462SOL    HW110219  13.103   5.157   9.261
69462SOL    HW210220  13.174   5.023   9.266
69463SOL     OW10221  13.712  10.618  11.882
69463SOL    HW110222  13.700  10.633  11.788
69463SOL    HW210223  13.651  10.548  11.904
69464SOL     OW10224   3.248   3.872   8.457
69464SOL    HW110225   3.339   3.842   8.461
69464SOL    HW210226   3.250   3.958   8.499
69465SOL     OW10227  12.292   0.719   1.425
69465SOL    HW110228  12.205   0.715   1.465
69465SOL    HW210229  12.349   0.748   1.496
69466SOL     OW10230  13.205  13.286   3.999
69466SOL    HW110231  13.192  13.213   4.059
69466SOL    HW210232  13.126  13.290   3.946
69467SOL     OW10233   4.385   9.737  10.640
69467SOL    HW110234   4.385   9.820  10.592
69467SOL    HW210235   4.338   9.676  10.582
69468SOL     OW10236   0.501   9.217  12.526
69468SOL    HW110237   0.548   9.270  12.591
69468SOL    HW210238   0.408   9.233  12.545
69469SOL     OW10239  11.496  11.416   0.938
69469SOL    HW110240  11.499  11.506   0.904
69469SOL    HW210241  11.425  11.416   1.002
69470SOL     OW10242   8.615   9.192  14.215
69470SOL    HW110243   8.603   9.098  14.229
69470SOL    HW210244   8.703   9.210  14.247
69471SOL     OW10245  10.402   5.900   9.936
69471SOL    HW110246  10.351   5.825   9.969
69471SOL    HW210247  10.474   5.860   9.888
69472SOL     OW10248  13.371   2.983  10.044
69472SOL    HW110249  13.288   2.976   9.996
69472SOL    HW210250  13.423   2.910  10.010
69473SOL     OW10251   2.591  13.791   4.010
69473SOL    HW110252   2.522  13.851   4.039
69473SOL    HW210253   2.671  13.844   4.016
69474SOL     OW10254  11.882  11.580   7.289
69474SOL    HW110255  11.890  11.578   7.384
69474SOL    HW210256  11.972  11.583   7.257
69475SOL     OW10257   5.713   3.098  10.117
69475SOL    HW110258   5.711   3.003  10.121
69475SOL    HW210259   5.762   3.118  10.037
69476SOL     OW10260   3.496   6.822   6.231
69476SOL    HW110261   3.499   6.880   6.307
69476SOL    HW210262   3.489   6.882   6.156
69477SOL     OW10263   4.594   4.568  14.579
69477SOL    HW110264   4.594   4.507  14.653
69477SOL    HW210265   4.686   4.573  14.553
69478SOL     OW10266   8.483   5.830  11.512
69478SOL    HW110267   8.553   5.790  11.564
69478SOL    HW210268   8.419   5.860  11.576
69479SOL     OW10269   8.668   1.218   1.751
69479SOL    HW110270   8.670   1.308   1.717
69479SOL    HW210271   8.686   1.228   1.845
69480SOL     OW10272   8.059   8.858   1.121
69480SOL    HW110273   7.984   8.915   1.101
69480SOL    HW210274   8.030   8.771   1.095
69481SOL     OW10275  11.868  10.643   8.752
69481SOL    HW110276  11.815  10.722   8.742
69481SOL    HW210277  11.804  10.573   8.765
69482SOL     OW10278   2.660   0.290  14.733
69482SOL    HW110279   2.711   0.361  14.694
69482SOL    HW210280   2.663   0.220  14.669
69483SOL     OW10281   6.979   3.538   6.724
69483SOL    HW110282   6.883   3.540   6.714
69483SOL    HW210283   6.995   3.473   6.792
69484SOL     OW10284  13.872  13.164  12.018
69484SOL    HW110285  13.798  13.222  12.002
69484SOL    HW210286  13.855  13.127  12.105
69485SOL     OW10287   5.165   1.031  11.060
69485SOL    HW110288   5.097   1.095  11.037
69485SOL    HW210289   5.226   1.081  11.114
69486SOL     OW10290  13.103   2.823   6.847
69486SOL    HW110291  13.179   2.863   6.890
69486SOL    HW210292  13.140   2.752   6.795
69487SOL     OW10293   4.308  13.385   9.014
69487SOL    HW110294   4.276  13.368   9.103
69487SOL    HW210295   4.401  13.364   9.018
69488SOL     OW10296  13.883   0.310   7.191
69488SOL    HW110297  13.854   0.286   7.279
69488SOL    HW210298  13.824   0.380   7.164
69489SOL     OW10299   4.082   0.055   2.087
69489SOL    HW110300   3.991   0.082   2.075
69489SOL    HW210301   4.078  14.833   2.102
69490SOL     OW10302   8.952   7.944   2.900
69490SOL    HW110303   8.967   7.858   2.939
69490SOL    HW210304   8.931   8.001   2.974
69491SOL     OW10305   8.857   3.520  13.466
69491SOL    HW110306   8.876   3.492  13.555
69491SOL    HW210307   8.891   3.610  13.462
69492SOL     OW10308   8.115  14.706  10.142
69492SOL    HW110309   8.176  14.691  10.215
69492SOL    HW210310   8.037  14.656  10.166
69493SOL     OW10311  14.036   9.564  13.476
69493SOL    HW110312  14.017   9.486  13.424
69493SOL    HW210313  13.955   9.615  13.474
69494SOL     OW10314   8.705   8.451   9.484
69494SOL    HW110315   8.706   8.506   9.562
69494SOL    HW210316   8.726   8.363   9.517
69495SOL     OW10317  12.550  12.150   5.019
69495SOL    HW110318  12.563  12.074   5.076
69495SOL    HW210319  12.611  12.216   5.053
69496SOL     OW10320   1.465   8.409  11.313
69496SOL    HW110321   1.480   8.374  11.401
69496SOL    HW210322   1.461   8.504  11.325
69497SOL     OW10323   5.380  10.543   3.810
69497SOL    HW110324   5.441  10.470   3.804
69497SOL    HW210325   5.435  10.621   3.800
69498SOL     OW10326  12.864   5.378  11.037
69498SOL    HW110327  12.912   5.378  10.954
69498SOL    HW210328  12.932   5.375  11.104
69499SOL     OW10329  11.689   2.862   0.266
69499SOL    HW110330  11.711   2.941   0.216
69499SOL    HW210331  11.773   2.824   0.291
69500SOL     OW10332   3.351   0.415   9.707
69500SOL    HW110333   3.388   0.330   9.683
69500SOL    HW210334   3.406   0.446   9.779
69501SOL     OW10335  13.878   0.603   7.973
69501SOL    HW110336  13.898   0.510   7.961
69501SOL    HW210337  13.842   0.608   8.062
69502SOL     OW10338  12.096   9.581   2.990
69502SOL    HW110339  12.085   9.628   2.908
69502SOL    HW210340  12.140   9.643   3.048
69503SOL     OW10341  13.290  14.125   4.810
69503SOL    HW110342  13.224  14.189   4.836
69503SOL    HW210343  13.291  14.128   4.715
69504SOL     OW10344   3.997   5.451  14.029
69504SOL    HW110345   3.963   5.410  13.950
69504SOL    HW210346   4.001   5.380  14.093
69505SOL     OW10347   5.588   8.247  12.164
69505SOL    HW110348   5.562   8.290  12.082
69505SOL    HW210349   5.619   8.318  12.219
69506SOL     OW10350   9.780  10.759   0.800
69506SOL    HW110351   9.809  10.756   0.709
69506SOL    HW210352   9.791  10.669   0.832
69507SOL     OW10353   4.267   0.005   8.183
69507SOL    HW110354   4.182   0.048   8.191
69507SOL    HW210355   4.247  14.784   8.185
69508SOL     OW10356   6.048  11.877   0.890
69508SOL    HW110357   6.055  11.864   0.984
69508SOL    HW210358   5.957  11.858   0.869
69509SOL     OW10359   6.575   2.199   6.355
69509SOL    HW110360   6.495   2.154   6.380
69509SOL    HW210361   6.616   2.223   6.438
69510SOL     OW10362   7.799   5.788  12.873
69510SOL    HW110363   7.739   5.826  12.937
69510SOL    HW210364   7.769   5.822  12.788
69511SOL     OW10365   2.909  11.347   0.772
69511SOL    HW110366   2.979  11.283   0.762
69511SOL    HW210367   2.859  11.317   0.848
69512SOL     OW10368   2.424  14.472   5.596
69512SOL    HW110369   2.494  14.514   5.645
69512SOL    HW210370   2.347  14.527   5.612
69513SOL     OW10371   2.066   7.231  12.724
69513SOL    HW110372   2.150   7.224  12.768
69513SOL    HW210373   2.076   7.178  12.645
69514SOL     OW10374   2.511  12.695   3.325
69514SOL    HW110375   2.517  12.657   3.413
69514SOL    HW210376   2.454  12.771   3.336
69515SOL     OW10377  11.758   7.484   4.184
69515SOL    HW110378  11.686   7.424   4.201
69515SOL    HW210379  11.723   7.571   4.205
69516SOL     OW10380   8.471   3.202   6.107
69516SOL    HW110381   8.474   3.197   6.011
69516SOL    HW210382   8.379   3.212   6.127
69517SOL     OW10383   4.973   9.230  12.056
69517SOL    HW110384   4.906   9.266  12.114
69517SOL    HW210385   4.924   9.173  11.997
69518SOL     OW10386   6.396   4.056   0.315
69518SOL    HW110387   6.332   4.120   0.346
69518SOL    HW210388   6.345   3.976   0.301
69519SOL     OW10389   6.868  12.736   3.879
69519SOL    HW110390   6.881  12.692   3.796
69519SOL    HW210391   6.910  12.679   3.944
69520SOL     OW10392   1.792   2.879   7.841
69520SOL    HW110393   1.775   2.844   7.929
69520SOL    HW210394   1.885   2.864   7.827
69521SOL     OW10395  10.903   8.862   8.963
69521SOL    HW110396  10.887   8.905   8.879
69521SOL    HW210397  10.828   8.887   9.018
69522SOL     OW10398   3.505  12.702   6.050
69522SOL    HW110399   3.488  12.699   5.956
69522SOL    HW210400   3.473  12.788   6.078
69523SOL     OW10401   8.077   5.879  11.026
69523SOL    HW110402   8.167   5.848  11.019
69523SOL    HW210403   8.055   5.911  10.939
69524SOL     OW10404   8.187   6.132   5.011
69524SOL    HW110405   8.156   6.084   4.934
69524SOL    HW210406   8.151   6.084   5.086
69525SOL     OW10407   2.867   3.695  12.067
69525SOL    HW110408   2.923   3.713  11.991
69525SOL    HW210409   2.841   3.604  12.057
69526SOL     OW10410   3.309  13.043   8.529
69526SOL    HW110411   3.295  12.959   8.572
69526SOL    HW210412   3.238  13.099   8.561
69527SOL     OW10413   1.330   8.986  11.040
69527SOL    HW110414   1.328   8.948  11.128
69527SOL    HW210415   1.381   9.067  11.050
69528SOL     OW10416   8.296   9.562   1.582
69528SOL    HW110417   8.316   9.477   1.621
69528SOL    HW210418   8.361   9.621   1.619
69529SOL     OW10419   3.223   9.173  11.075
69529SOL    HW110420   3.188   9.206  10.993
69529SOL    HW210421   3.318   9.168  11.062
69530SOL     OW10422  12.783  11.116   2.946
69530SOL    HW110423  12.787  11.210   2.962
69530SOL    HW210424  12.857  11.098   2.888
69531SOL     OW10425  11.435   4.480  11.266
69531SOL    HW110426  11.345   4.498  11.293
69531SOL    HW210427  11.456   4.396  11.306
69532SOL     OW10428   0.289  12.374  14.541
69532SOL    HW110429   0.308  12.384  14.448
69532SOL    HW210430   0.208  12.324  14.545
69533SOL     OW10431   9.902   6.173   7.412
69533SOL    HW110432   9.818   6.154   7.454
69533SOL    HW210433   9.903   6.118   7.333
69534SOL     OW10434   0.904  11.738  11.547
69534SOL    HW110435   0.935  11.822  11.513
69534SOL    HW210436   0.969  11.714  11.613
69535SOL     OW10437   0.325   7.009  14.530
69535SOL    HW110438   0.392   7.022  14.598
69535SOL    HW210439   0.248   7.054  14.565
69536SOL     OW10440   3.896   8.506  13.318
69536SOL    HW110441   3.972   8.457  13.288
69536SOL    HW210442   3.869   8.558  13.242
69537SOL     OW10443   4.659   9.328   4.525
69537SOL    HW110444   4.632   9.289   4.608
69537SOL    HW210445   4.636   9.421   4.534
69538SOL     OW10446   3.048  14.721   4.222
69538SOL    HW110447   2.971  14.669   4.199
69538SOL    HW210448   3.039  14.738   4.316
69539SOL     OW10449   8.166   9.174   3.539
69539SOL    HW110450   8.188   9.251   3.591
69539SOL    HW210451   8.179   9.100   3.600
69540SOL     OW10452   0.796   6.106  11.157
69540SOL    HW110453   0.710   6.148  11.153
69540SOL    HW210454   0.780   6.024  11.204
69541SOL     OW10455   1.277  13.481   8.053
69541SOL    HW110456   1.328  13.401   8.057
69541SOL    HW210457   1.235  13.487   8.139
69542SOL     OW10458  14.402   3.565   5.756
69542SOL    HW110459  14.449   3.582   5.837
69542SOL    HW210460  14.457   3.602   5.687
69543SOL     OW10461  13.119   1.819   5.186
69543SOL    HW110462  13.139   1.894   5.241
69543SOL    HW210463  13.186   1.754   5.209
69544SOL     OW10464   7.206  11.272  11.845
69544SOL    HW110465   7.254  11.282  11.763
69544SOL    HW210466   7.127  11.223  11.820
69545SOL     OW10467   4.505  11.116   1.882
69545SOL    HW110468   4.549  11.083   1.960
69545SOL    HW210469   4.507  11.211   1.891
69546SOL     OW10470   0.761   3.206   1.579
69546SOL    HW110471   0.735   3.127   1.627
69546SOL    HW210472   0.687   3.266   1.590
69547SOL     OW10473   8.686  12.455   7.367
69547SOL    HW110474   8.632  12.484   7.440
69547SOL    HW210475   8.708  12.364   7.388
69548SOL     OW10476  10.782  12.959   2.011
69548SOL    HW110477  10.729  13.002   1.944
69548SOL    HW210478  10.735  12.975   2.093
69549SOL     OW10479   6.810   1.404   6.019
69549SOL    HW110480   6.771   1.319   5.998
69549SOL    HW210481   6.745   1.447   6.075
69550SOL     OW10482   0.728  10.412   1.208
69550SOL    HW110483   0.763  10.419   1.297
69550SOL    HW210484   0.739  10.319   1.185
69551SOL     OW10485   3.054  13.194   6.961
69551SOL    HW110486   3.112  13.253   6.913
69551SOL    HW210487   3.092  13.107   6.947
69552SOL     OW10488   9.453  10.247   8.711
69552SOL    HW110489   9.385  10.302   8.673
69552SOL    HW210490   9.530  10.303   8.715
69553SOL     OW10491   4.769   2.108   9.171
69553SOL    HW110492   4.784   2.030   9.117
69553SOL    HW210493   4.703   2.158   9.123
69554SOL     OW10494   0.163   7.343  14.114
69554SOL    HW110495   0.248   7.315  14.147
69554SOL    HW210496   0.174   7.346  14.019
69555SOL     OW10497  12.059   7.082  13.643
69555SOL    HW110498  12.001   7.097  13.717
69555SOL    HW210499  12.014   7.121  13.568
69556SOL     OW10500   3.422   3.514  10.891
69556SOL    HW110501   3.483   3.520  10.817
69556SOL    HW210502   3.398   3.605  10.908
69557SOL     OW10503  11.196  14.708   2.230
69557SOL    HW110504  11.186  14.699   2.325
69557SOL    HW210505  11.241  14.792   2.218
69558SOL     OW10506   3.902   0.155   3.218
69558SOL    HW110507   3.873   0.078   3.265
69558SOL    HW210508   3.944   0.121   3.139
69559SOL     OW10509   7.717   4.890   7.817
69559SOL    HW110510   7.650   4.952   7.844
69559SOL    HW210511   7.671   4.827   7.763
69560SOL     OW10512   9.162   6.940   7.207
69560SOL    HW110513   9.152   7.004   7.137
69560SOL    HW210514   9.248   6.958   7.245
69561SOL     OW10515  13.532   5.680  13.351
69561SOL    HW110516  13.578   5.731  13.416
69561SOL    HW210517  13.561   5.715  13.267
69562SOL     OW10518   6.658   4.522  13.552
69562SOL    HW110519   6.740   4.475  13.563
69562SOL    HW210520   6.612   4.511  13.636
69563SOL     OW10521   6.955   3.104   5.164
69563SOL    HW110522   6.866   3.138   5.171
69563SOL    HW210523   6.983   3.129   5.076
69564SOL     OW10524  10.034   3.722  13.604
69564SOL    HW110525  10.086   3.666  13.662
69564SOL    HW210526  10.090   3.735  13.527
69565SOL     OW10527   1.381   4.182   8.511
69565SOL    HW110528   1.396   4.087   8.515
69565SOL    HW210529   1.297   4.191   8.466
69566SOL     OW10530   5.451   2.451   2.703
69566SOL    HW110531   5.521   2.489   2.650
69566SOL    HW210532   5.376   2.510   2.690
69567SOL     OW10533   1.821   1.254  12.704
69567SOL    HW110534   1.849   1.345  12.709
69567SOL    HW210535   1.792   1.233  12.793
69568SOL     OW10536   3.032  10.192  14.472
69568SOL    HW110537   2.981  10.112  14.480
69568SOL    HW210538   2.972  10.256  14.432
69569SOL     OW10539   3.383   5.917  12.564
69569SOL    HW110540   3.465   5.961  12.585
69569SOL    HW210541   3.382   5.839  12.620
69570SOL     OW10542   6.888  10.983   9.441
69570SOL    HW110543   6.917  10.910   9.497
69570SOL    HW210544   6.963  11.043   9.439
69571SOL     OW10545  14.413   5.063   5.092
69571SOL    HW110546  14.448   5.077   5.004
69571SOL    HW210547  14.370   4.978   5.087
69572SOL     OW10548   6.693   7.529   7.063
69572SOL    HW110549   6.731   7.485   7.139
69572SOL    HW210550   6.599   7.512   7.070
69573SOL     OW10551   1.126  10.333  11.557
69573SOL    HW110552   1.198  10.323  11.495
69573SOL    HW210553   1.112  10.245  11.592
69574SOL     OW10554   2.332  14.161   7.287
69574SOL    HW110555   2.334  14.253   7.263
69574SOL    HW210556   2.412  14.146   7.337
69575SOL     OW10557   3.479   7.489  14.547
69575SOL    HW110558   3.452   7.448  14.629
69575SOL    HW210559   3.560   7.444  14.523
69576SOL     OW10560   7.605  14.804   2.051
69576SOL    HW110561   7.601  14.798   1.956
69576SOL    HW210562   7.698  14.809   2.071
69577SOL     OW10563   2.376   1.509  10.735
69577SOL    HW110564   2.343   1.530  10.823
69577SOL    HW210565   2.326   1.565  10.676
69578SOL     OW10566  11.058   4.644   2.004
69578SOL    HW110567  11.061   4.564   2.055
69578SOL    HW210568  11.119   4.703   2.047
69579SOL     OW10569   5.107  12.103  10.353
69579SOL    HW110570   5.143  12.015  10.343
69579SOL    HW210571   5.169  12.148  10.410
69580SOL     OW10572   3.074  10.918  10.481
69580SOL    HW110573   3.127  10.977  10.428
69580SOL    HW210574   3.132  10.845  10.503
69581SOL     OW10575   4.525  10.097   2.972
69581SOL    HW110576   4.481  10.070   3.052
69581SOL    HW210577   4.610  10.130   3.001
69582SOL     OW10578   9.845  13.841   4.227
69582SOL    HW110579   9.752  13.861   4.230
69582SOL    HW210580   9.886  13.909   4.280
69583SOL     OW10581  12.383   9.514   2.753
69583SOL    HW110582  12.450   9.518   2.684
69583SOL    HW210583  12.334   9.434   2.734
69584SOL     OW10584   4.732   4.590   7.600
69584SOL    HW110585   4.818   4.626   7.577
69584SOL    HW210586   4.692   4.568   7.516
69585SOL     OW10587   3.915   6.050  10.352
69585SOL    HW110588   3.920   6.025  10.260
69585SOL    HW210589   3.869   6.133  10.352
69586SOL     OW10590   4.661  11.214   6.203
69586SOL    HW110591   4.691  11.305   6.208
69586SOL    HW210592   4.610  11.210   6.122
69587SOL     OW10593  10.015   7.535   5.007
69587SOL    HW110594   9.977   7.573   5.087
69587SOL    HW210595  10.100   7.500   5.035
69588SOL     OW10596  13.860  11.508   9.873
69588SOL    HW110597  13.948  11.471   9.884
69588SOL    HW210598  13.825  11.513   9.962
69589SOL     OW10599   3.132   0.355  13.359
69589SOL    HW110600   3.080   0.392  13.288
69589SOL    HW210601   3.071   0.348  13.433
69590SOL     OW10602   0.199   0.386   0.487
69590SOL    HW110603   0.228   0.474   0.509
69590SOL    HW210604   0.134   0.364   0.553
69591SOL     OW10605  13.429   4.587  12.322
69591SOL    HW110606  13.405   4.544  12.240
69591SOL    HW210607  13.525   4.590  12.319
69592SOL     OW10608   3.712  10.477   7.415
69592SOL    HW110609   3.642  10.511   7.470
69592SOL    HW210610   3.744  10.399   7.461
69593SOL     OW10611  13.249   7.110  14.574
69593SOL    HW110612  13.274   7.052  14.646
69593SOL    HW210613  13.325   7.167  14.562
69594SOL     OW10614  12.666  10.300   6.872
69594SOL    HW110615  12.613  10.285   6.950
69594SOL    HW210616  12.740  10.354   6.902
69595SOL     OW10617   3.000   1.845   1.035
69595SOL    HW110618   3.029   1.768   0.986
69595SOL    HW210619   3.004   1.817   1.127
69596SOL     OW10620   6.462  13.635   6.430
69596SOL    HW110621   6.501  13.588   6.356
69596SOL    HW210622   6.415  13.708   6.390
69597SOL     OW10623   2.601   5.783   0.198
69597SOL    HW110624   2.543   5.714   0.166
69597SOL    HW210625   2.656   5.804   0.122
69598SOL     OW10626   7.999  10.577   9.362
69598SOL    HW110627   7.904  10.580   9.350
69598SOL    HW210628   8.034  10.567   9.274
69599SOL     OW10629  12.416  12.866   3.264
69599SOL    HW110630  12.333  12.843   3.221
69599SOL    HW210631  12.434  12.955   3.235
69600SOL     OW10632  13.389   4.878   2.263
69600SOL    HW110633  13.455   4.843   2.204
69600SOL    HW210634  13.394   4.822   2.341
69601SOL     OW10635  12.656   5.563  12.763
69601SOL    HW110636  12.579   5.618  12.754
69601SOL    HW210637  12.666   5.520  12.678
69602SOL     OW10638  12.947   2.717   7.090
69602SOL    HW110639  12.908   2.659   7.024
69602SOL    HW210640  13.001   2.778   7.039
69603SOL     OW10641   7.896   7.890  12.226
69603SOL    HW110642   7.890   7.981  12.197
69603SOL    HW210643   7.888   7.839  12.146
69604SOL     OW10644   1.552   3.698   0.572
69604SOL    HW110645   1.497   3.626   0.603
69604SOL    HW210646   1.582   3.670   0.486
69605SOL     OW10647   1.668   6.084   2.019
69605SOL    HW110648   1.751   6.114   1.983
69605SOL    HW210649   1.668   6.116   2.109
69606SOL     OW10650   0.994   8.695  14.312
69606SOL    HW110651   0.924   8.754  14.283
69606SOL    HW210652   0.956   8.607  14.303
69607SOL     OW10653   6.226  14.770   6.567
69607SOL    HW110654   6.283  14.819   6.626
69607SOL    HW210655   6.257  14.679   6.575
69608SOL     OW10656   6.948   6.184  10.787
69608SOL    HW110657   6.999   6.236  10.848
69608SOL    HW210658   6.868   6.235  10.773
69609SOL     OW10659   4.385   4.867   1.456
69609SOL    HW110660   4.415   4.808   1.386
69609SOL    HW210661   4.409   4.954   1.426
69610SOL     OW10662  11.147  13.985   4.303
69610SOL    HW110663  11.222  14.037   4.275
69610SOL    HW210664  11.157  13.902   4.256
69611SOL     OW10665   4.586  14.201  13.977
69611SOL    HW110666   4.562  14.212  14.069
69611SOL    HW210667   4.533  14.265  13.931
69612SOL     OW10668   9.536   0.550   7.105
69612SOL    HW110669   9.510   0.488   7.174
69612SOL    HW210670   9.454   0.577   7.065
69613SOL     OW10671  14.332   6.325   0.579
69613SOL    HW110672  14.348   6.387   0.508
69613SOL    HW210673  14.299   6.247   0.535
69614SOL     OW10674   2.158   0.227   1.636
69614SOL    HW110675   2.111   0.195   1.714
69614SOL    HW210676   2.155   0.322   1.644
69615SOL     OW10677  13.343   6.165  10.004
69615SOL    HW110678  13.327   6.184  10.096
69615SOL    HW210679  13.272   6.106   9.979
69616SOL     OW10680   6.925   8.072   4.698
69616SOL    HW110681   6.871   8.119   4.762
69616SOL    HW210682   7.014   8.079   4.733
69617SOL     OW10683   6.940  12.655   2.947
69617SOL    HW110684   6.962  12.563   2.963
69617SOL    HW210685   6.988  12.704   3.013
69618SOL     OW10686  11.085  13.211  12.059
69618SOL    HW110687  11.178  13.188  12.066
69618SOL    HW210688  11.048  13.187  12.144
69619SOL     OW10689   6.293   2.512   8.170
69619SOL    HW110690   6.353   2.573   8.213
69619SOL    HW210691   6.341   2.430   8.166
69620SOL     OW10692   8.687   2.614   8.869
69620SOL    HW110693   8.666   2.539   8.926
69620SOL    HW210694   8.782   2.609   8.858
69621SOL     OW10695   9.673   5.948   8.943
69621SOL    HW110696   9.624   5.887   8.998
69621SOL    HW210697   9.764   5.935   8.966
69622SOL     OW10698   1.195   7.264   7.089
69622SOL    HW110699   1.137   7.278   7.014
69622SOL    HW210700   1.280   7.241   7.050
69623SOL     OW10701  10.399   5.712  13.876
69623SOL    HW110702  10.449   5.654  13.934
69623SOL    HW210703  10.419   5.800  13.908
69624SOL     OW10704   9.698  14.325  10.637
69624SOL    HW110705   9.783  14.280  10.645
69624SOL    HW210706   9.716  14.414  10.668
69625SOL     OW10707   7.105   5.034  12.339
69625SOL    HW110708   7.165   5.070  12.273
69625SOL    HW210709   7.082   5.109  12.394
69626SOL     OW10710   2.000  10.686   5.209
69626SOL    HW110711   1.923  10.736   5.236
69626SOL    HW210712   1.993  10.605   5.260
69627SOL     OW10713   0.456   0.787   5.268
69627SOL    HW110714   0.374   0.774   5.314
69627SOL    HW210715   0.515   0.722   5.305
69628SOL     OW10716   2.538  12.081   5.373
69628SOL    HW110717   2.606  12.068   5.439
69628SOL    HW210718   2.488  12.157   5.404
69629SOL     OW10719   5.269   8.131  10.891
69629SOL    HW110720   5.286   8.212  10.939
69629SOL    HW210721   5.346   8.118  10.836
69630SOL     OW10722  10.954   1.935   6.230
69630SOL    HW110723  11.026   1.939   6.293
69630SOL    HW210724  10.876   1.954   6.281
69631SOL     OW10725   6.424   9.841   3.817
69631SOL    HW110726   6.507   9.807   3.784
69631SOL    HW210727   6.383   9.766   3.860
69632SOL     OW10728   0.897  14.599   1.439
69632SOL    HW110729   0.919  14.672   1.497
69632SOL    HW210730   0.982  14.562   1.414
69633SOL     OW10731  11.194   1.348   9.694
69633SOL    HW110732  11.287   1.334   9.673
69633SOL    HW210733  11.173   1.432   9.652
69634SOL     OW10734   9.864   3.123  11.002
69634SOL    HW110735   9.796   3.165  10.949
69634SOL    HW210736   9.858   3.030  10.981
69635SOL     OW10737  10.886  11.635   0.196
69635SOL    HW110738  10.938  11.710   0.225
69635SOL    HW210739  10.796  11.657   0.222
69636SOL     OW10740   2.320   1.136   2.082
69636SOL    HW110741   2.230   1.156   2.107
69636SOL    HW210742   2.326   1.040   2.090
69637SOL     OW10743   3.027   9.896  10.772
69637SOL    HW110744   3.089   9.842  10.821
69637SOL    HW210745   3.080   9.938  10.705
69638SOL     OW10746   7.856   2.926  14.273
69638SOL    HW110747   7.795   2.859  14.304
69638SOL    HW210748   7.933   2.876  14.244
69639SOL     OW10749   9.916   4.394  13.879
69639SOL    HW110750   9.971   4.396  13.800
69639SOL    HW210751   9.908   4.486  13.905
69640SOL     OW10752  10.465   2.585   5.310
69640SOL    HW110753  10.487   2.678   5.319
69640SOL    HW210754  10.513   2.556   5.232
69641SOL     OW10755   5.891   4.473   6.526
69641SOL    HW110756   5.949   4.549   6.526
69641SOL    HW210757   5.931   4.412   6.588
69642SOL     OW10758   5.412   2.336   4.625
69642SOL    HW110759   5.437   2.417   4.580
69642SOL    HW210760   5.467   2.333   4.702
69643SOL     OW10761  12.191   5.253  11.605
69643SOL    HW110762  12.194   5.220  11.515
69643SOL    HW210763  12.266   5.213  11.648
69644SOL     OW10764   1.788   6.829  12.394
69644SOL    HW110765   1.870   6.794  12.358
69644SOL    HW210766   1.719   6.780  12.349
69645SOL     OW10767   8.116   3.229  11.392
69645SOL    HW110768   8.081   3.197  11.309
69645SOL    HW210769   8.039   3.257  11.442
69646SOL     OW10770   6.504  10.518   1.733
69646SOL    HW110771   6.424  10.570   1.737
69646SOL    HW210772   6.573  10.578   1.761
69647SOL     OW10773   3.009   0.619   3.533
69647SOL    HW110774   2.944   0.582   3.593
69647SOL    HW210775   2.984   0.712   3.526
69648SOL     OW10776  14.783   4.864   5.078
69648SOL    HW110777  14.726   4.922   5.028
69648SOL    HW210778  14.821   4.805   5.014
69649SOL     OW10779   2.746   7.536  13.094
69649SOL    HW110780   2.667   7.500  13.052
69649SOL    HW210781   2.721   7.625  13.120
69650SOL     OW10782   4.582  12.379   9.652
69650SOL    HW110783   4.577  12.286   9.674
69650SOL    HW210784   4.675  12.400   9.657
69651SOL     OW10785   4.564   6.461  11.743
69651SOL    HW110786   4.553   6.377  11.789
69651SOL    HW210787   4.632   6.443  11.678
69652SOL     OW10788   2.926  14.030   4.416
69652SOL    HW110789   2.839  13.995   4.395
69652SOL    HW210790   2.987  13.972   4.372
69653SOL     OW10791   1.466  10.031   9.638
69653SOL    HW110792   1.411   9.981   9.700
69653SOL    HW210793   1.507  10.098   9.692
69654SOL     OW10794   2.489   8.692  13.462
69654SOL    HW110795   2.525   8.619  13.512
69654SOL    HW210796   2.547   8.700  13.386
69655SOL     OW10797   2.934   8.310  10.850
69655SOL    HW110798   2.950   8.238  10.789
69655SOL    HW210799   2.855   8.352  10.817
69656SOL     OW10800   9.529  14.696   4.265
69656SOL    HW110801   9.617  14.662   4.248
69656SOL    HW210802   9.541  14.791   4.272
69657SOL     OW10803   7.369  14.230   5.269
69657SOL    HW110804   7.449  14.281   5.259
69657SOL    HW210805   7.316  14.280   5.330
69658SOL     OW10806  11.389   0.598   3.273
69658SOL    HW110807  11.457   0.663   3.251
69658SOL    HW210808  11.430   0.514   3.252
69659SOL     OW10809  12.285   3.255  14.780
69659SOL    HW110810  12.217   3.213  14.728
69659SOL    HW210811  12.238   3.305  14.846
69660SOL     OW10812   6.330  12.327   1.082
69660SOL    HW110813   6.411  12.287   1.052
69660SOL    HW210814   6.260  12.280   1.035
69661SOL     OW10815  11.244   5.341  14.461
69661SOL    HW110816  11.158   5.378  14.442
69661SOL    HW210817  11.230   5.285  14.537
69662SOL     OW10818   6.208  13.864  10.537
69662SOL    HW110819   6.204  13.841  10.630
69662SOL    HW210820   6.276  13.932  10.532
69663SOL     OW10821  13.035   7.884   5.257
69663SOL    HW110822  13.032   7.975   5.230
69663SOL    HW210823  12.980   7.838   5.194
69664SOL     OW10824  12.536  10.175   8.895
69664SOL    HW110825  12.517  10.084   8.873
69664SOL    HW210826  12.450  10.215   8.909
69665SOL     OW10827   4.404  13.719  11.788
69665SOL    HW110828   4.471  13.730  11.856
69665SOL    HW210829   4.377  13.628  11.796
69666SOL     OW10830   1.867   9.656   9.285
69666SOL    HW110831   1.863   9.649   9.190
69666SOL    HW210832   1.783   9.621   9.315
69667SOL     OW10833   7.051   1.669   3.825
69667SOL    HW110834   7.028   1.750   3.779
69667SOL    HW210835   7.078   1.609   3.755
69668SOL     OW10836   9.333   2.464   5.283
69668SOL    HW110837   9.403   2.513   5.240
69668SOL    HW210838   9.377   2.397   5.334
69669SOL     OW10839  13.603   0.909  13.035
69669SOL    HW110840  13.658   0.986  13.021
69669SOL    HW210841  13.600   0.866  12.950
69670SOL     OW10842   4.358   6.892  12.166
69670SOL    HW110843   4.335   6.920  12.078
69670SOL    HW210844   4.453   6.881  12.165
69671SOL     OW10845   8.704   6.093   7.313
69671SOL    HW110846   8.614   6.067   7.331
69671SOL    HW210847   8.696   6.179   7.270
69672SOL     OW10848   6.687   3.848  14.069
69672SOL    HW110849   6.607   3.833  14.119
69672SOL    HW210850   6.673   3.933  14.027
69673SOL     OW10851   6.381   5.197   5.939
69673SOL    HW110852   6.457   5.206   5.881
69673SOL    HW210853   6.363   5.285   5.970
69674SOL     OW10854   5.475  12.215   8.208
69674SOL    HW110855   5.525  12.197   8.128
69674SOL    HW210856   5.483  12.134   8.259
69675SOL     OW10857   0.867  11.346   2.618
69675SOL    HW110858   0.803  11.283   2.586
69675SOL    HW210859   0.849  11.427   2.570
69676SOL     OW10860   1.304   8.752  12.650
69676SOL    HW110861   1.267   8.666  12.664
69676SOL    HW210862   1.371   8.762  12.718
69677SOL     OW10863  12.049   5.356   8.151
69677SOL    HW110864  11.956   5.358   8.129
69677SOL    HW210865  12.093   5.353   8.066
69678SOL     OW10866   8.796   4.468  11.839
69678SOL    HW110867   8.779   4.562  11.850
69678SOL    HW210868   8.882   4.455  11.879
69679SOL     OW10869   8.766  10.626   3.843
69679SOL    HW110870   8.807  10.557   3.894
69679SOL    HW210871   8.821  10.634   3.765
69680SOL     OW10872  13.887   5.553   7.709
69680SOL    HW110873  13.850   5.472   7.745
69680SOL    HW210874  13.828   5.576   7.637
69681SOL     OW10875   6.814   6.436   1.380
69681SOL    HW110876   6.776   6.349   1.385
69681SOL    HW210877   6.886   6.427   1.317
69682SOL     OW10878   8.512   3.565   6.654
69682SOL    HW110879   8.434   3.529   6.697
69682SOL    HW210880   8.581   3.560   6.720
69683SOL     OW10881   1.450   3.539  12.060
69683SOL    HW110882   1.500   3.559  12.139
69683SOL    HW210883   1.372   3.594  12.066
69684SOL     OW10884   9.103   7.230   4.034
69684SOL    HW110885   9.198   7.233   4.026
69684SOL    HW210886   9.078   7.321   4.054
69685SOL     OW10887   2.268  12.597  12.347
69685SOL    HW110888   2.219  12.547  12.282
69685SOL    HW210889   2.242  12.559  12.431
69686SOL     OW10890  12.600   1.544   6.281
69686SOL    HW110891  12.626   1.566   6.192
69686SOL    HW210892  12.508   1.570   6.287
69687SOL     OW10893   6.856   3.147   4.578
69687SOL    HW110894   6.891   3.161   4.666
69687SOL    HW210895   6.908   3.204   4.521
69688SOL     OW10896  12.409   1.764   9.138
69688SOL    HW110897  12.459   1.821   9.196
69688SOL    HW210898  12.372   1.697   9.196
69689SOL     OW10899  13.464   0.150   1.136
69689SOL    HW110900  13.534   0.203   1.098
69689SOL    HW210901  13.411   0.212   1.185
69690SOL     OW10902  13.957  11.360  11.645
69690SOL    HW110903  13.941  11.363  11.550
69690SOL    HW210904  14.025  11.294  11.655
69691SOL     OW10905  13.559  13.749   6.140
69691SOL    HW110906  13.470  13.772   6.113
69691SOL    HW210907  13.615  13.780   6.068
69692SOL     OW10908   6.990   3.487   2.686
69692SOL    HW110909   6.996   3.526   2.773
69692SOL    HW210910   6.934   3.547   2.636
69693SOL     OW10911   0.381  13.046   6.895
69693SOL    HW110912   0.337  12.968   6.929
69693SOL    HW210913   0.359  13.115   6.958
69694SOL     OW10914   9.392  13.612  14.851
69694SOL    HW110915   9.384  13.707  14.864
69694SOL    HW210916   9.364  13.598  14.761
69695SOL     OW10917  10.805   0.381  13.985
69695SOL    HW110918  10.769   0.414  14.067
69695SOL    HW210919  10.857   0.305  14.011
69696SOL     OW10920   2.599   9.922   3.081
69696SOL    HW110921   2.686   9.887   3.063
69696SOL    HW210922   2.558   9.930   2.995
69697SOL     OW10923  10.773   7.702   4.255
69697SOL    HW110924  10.699   7.665   4.304
69697SOL    HW210925  10.850   7.664   4.296
69698SOL     OW10926   5.465  12.575   0.955
69698SOL    HW110927   5.530  12.582   1.025
69698SOL    HW210928   5.516  12.561   0.875
69699SOL     OW10929   7.802   9.904   7.132
69699SOL    HW110930   7.818   9.995   7.158
69699SOL    HW210931   7.882   9.858   7.155
69700SOL     OW10932   4.639   9.576   4.637
69700SOL    HW110933   4.712   9.534   4.684
69700SOL    HW210934   4.584   9.612   4.705
69701SOL     OW10935   5.690   5.129  12.334
69701SOL    HW110936   5.763   5.104  12.391
69701SOL    HW210937   5.731   5.175  12.261
69702SOL     OW10938   0.504   5.059   6.433
69702SOL    HW110939   0.571   5.027   6.495
69702SOL    HW210940   0.530   5.149   6.415
69703SOL     OW10941  12.059   1.411   6.878
69703SOL    HW110942  12.049   1.373   6.791
69703SOL    HW210943  11.999   1.484   6.879
69704SOL     OW10944   7.123   8.106  14.794
69704SOL    HW110945   7.064   8.137  14.725
69704SOL    HW210946   7.118   8.010  14.788
69705SOL     OW10947   2.729   7.947   0.057
69705SOL    HW110948   2.733   7.855   0.083
69705SOL    HW210949   2.658   7.984   0.109
69706SOL     OW10950   0.244  10.605   7.783
69706SOL    HW110951   0.181  10.678   7.780
69706SOL    HW210952   0.196  10.534   7.825
69707SOL     OW10953   3.247   3.076   3.550
69707SOL    HW110954   3.340   3.097   3.555
69707SOL    HW210955   3.225   3.088   3.458
69708SOL     OW10956  14.000   2.939   0.763
69708SOL    HW110957  14.073   2.986   0.803
69708SOL    HW210958  13.971   2.877   0.831
69709SOL     OW10959  11.995   2.955   1.538
69709SOL    HW110960  11.903   2.972   1.556
69709SOL    HW210961  12.042   2.997   1.611
69710SOL     OW10962  12.462   8.543  13.878
69710SOL    HW110963  12.503   8.500  13.803
69710SOL    HW210964  12.388   8.487  13.900
69711SOL     OW10965   2.544  12.909   1.535
69711SOL    HW110966   2.494  12.988   1.553
69711SOL    HW210967   2.559  12.870   1.621
69712SOL     OW10968   3.002  11.722   8.811
69712SOL    HW110969   3.002  11.649   8.749
69712SOL    HW210970   2.948  11.691   8.884
69713SOL     OW10971   7.666   9.815  14.751
69713SOL    HW110972   7.695   9.886  14.808
69713SOL    HW210973   7.665   9.738  14.808
69714SOL     OW10974   0.449   0.221   1.172
69714SOL    HW110975   0.408   0.246   1.255
69714SOL    HW210976   0.479   0.132   1.185
69715SOL     OW10977   3.371  11.897  11.117
69715SOL    HW110978   3.300  11.948  11.156
69715SOL    HW210979   3.337  11.870  11.032
69716SOL     OW10980   9.792  11.496   8.235
69716SOL    HW110981   9.830  11.447   8.163
69716SOL    HW210982   9.828  11.456   8.314
69717SOL     OW10983   0.930   7.008  11.184
69717SOL    HW110984   0.986   6.960  11.244
69717SOL    HW210985   0.940   6.964  11.100
69718SOL     OW10986   2.495   5.937   1.483
69718SOL    HW110987   2.562   5.948   1.415
69718SOL    HW210988   2.532   5.978   1.561
69719SOL     OW10989   1.736   1.455  12.138
69719SOL    HW110990   1.813   1.453  12.081
69719SOL    HW210991   1.704   1.545  12.132
69720SOL     OW10992  13.472  13.601   7.921
69720SOL    HW110993  13.402  13.571   7.980
69720SOL    HW210994  13.463  13.696   7.920
69721SOL     OW10995   8.752   6.647   3.123
69721SOL    HW110996   8.756   6.577   3.188
69721SOL    HW210997   8.666   6.638   3.083
69722SOL     OW10998   0.263   3.358  10.184
69722SOL    HW110999   0.288   3.373  10.093
69722SOL    HW211000   0.172   3.329  10.180
69723SOL     OW11001   3.528   5.316   2.165
69723SOL    HW111002   3.436   5.304   2.185
69723SOL    HW211003   3.561   5.372   2.234
69724SOL     OW11004  11.969  12.312   3.728
69724SOL    HW111005  11.932  12.225   3.714
69724SOL    HW211006  12.000  12.311   3.818
69725SOL     OW11007   5.926   4.596   5.431
69725SOL    HW111008   5.889   4.649   5.360
69725SOL    HW211009   5.865   4.606   5.504
69726SOL     OW11010   9.039  12.568   0.867
69726SOL    HW111011   9.000  12.483   0.889
69726SOL    HW211012   8.980  12.632   0.907
69727SOL     OW11013  14.421   0.486  11.090
69727SOL    HW111014  14.348   0.548  11.097
69727SOL    HW211015  14.380   0.400  11.102
69728SOL     OW11016   8.224   2.374  14.726
69728SOL    HW111017   8.218   2.469  14.717
69728SOL    HW211018   8.136   2.345  14.749
69729SOL     OW11019   5.472   9.601   2.331
69729SOL    HW111020   5.527   9.532   2.294
69729SOL    HW211021   5.400   9.555   2.373
69730SOL     OW11022   7.327   6.524  10.361
69730SOL    HW111023   7.411   6.486  10.384
69730SOL    HW211024   7.302   6.577  10.436
69731SOL     OW11025   3.219   6.740   9.257
69731SOL    HW111026   3.292   6.692   9.297
69731SOL    HW211027   3.221   6.825   9.301
69732SOL     OW11028   1.041  14.228   8.760
69732SOL    HW111029   1.020  14.222   8.853
69732SOL    HW211030   1.019  14.319   8.737
69733SOL     OW11031   3.373   4.291   2.496
69733SOL    HW111032   3.342   4.302   2.586
69733SOL    HW211033   3.460   4.251   2.506
69734SOL     OW11034   5.661   6.597   0.451
69734SOL    HW111035   5.638   6.549   0.371
69734SOL    HW211036   5.595   6.666   0.457
69735SOL     OW11037  10.458  13.140   2.970
69735SOL    HW111038  10.426  13.094   3.048
69735SOL    HW211039  10.516  13.207   3.005
69736SOL     OW11040   0.740   9.096  13.825
69736SOL    HW111041   0.702   9.164  13.880
69736SOL    HW211042   0.793   9.043  13.885
69737SOL     OW11043  11.448  10.219   2.810
69737SOL    HW111044  11.489  10.177   2.734
69737SOL    HW211045  11.460  10.156   2.882
69738SOL     OW11046  11.615   1.985   7.309
69738SOL    HW111047  11.635   2.074   7.279
69738SOL    HW211048  11.698   1.953   7.343
69739SOL     OW11049   9.443   1.052   0.885
69739SOL    HW111050   9.420   1.138   0.919
69739SOL    HW211051   9.369   0.996   0.910
69740SOL     OW11052   6.483  12.482  11.313
69740SOL    HW111053   6.463  12.553  11.253
69740SOL    HW211054   6.471  12.402  11.261
69741SOL     OW11055   4.296   6.287   9.274
69741SOL    HW111056   4.267   6.367   9.229
69741SOL    HW211057   4.311   6.224   9.203
69742SOL     OW11058  10.196   8.989   4.285
69742SOL    HW111059  10.195   8.992   4.189
69742SOL    HW211060  10.105   8.976   4.310
69743SOL     OW11061   6.151   1.745  11.336
69743SOL    HW111062   6.137   1.653  11.361
69743SOL    HW211063   6.240   1.764  11.363
69744SOL     OW11064   4.133   6.891  12.533
69744SOL    HW111065   4.070   6.887  12.605
69744SOL    HW211066   4.156   6.800  12.516
69745SOL     OW11067  10.160   9.827   6.632
69745SOL    HW111068  10.072   9.863   6.644
69745SOL    HW211069  10.178   9.839   6.538
69746SOL     OW11070   7.208   2.566  10.808
69746SOL    HW111071   7.215   2.661  10.793
69746SOL    HW211072   7.191   2.558  10.902
69747SOL     OW11073   0.621   1.183   6.478
69747SOL    HW111074   0.697   1.125   6.471
69747SOL    HW211075   0.626   1.217   6.568
69748SOL     OW11076  13.805   0.037  10.402
69748SOL    HW111077  13.777   0.049  10.492
69748SOL    HW211078  13.827  14.817  10.396
69749SOL     OW11079   6.423   4.911   4.650
69749SOL    HW111080   6.345   4.961   4.677
69749SOL    HW211081   6.451   4.954   4.569
69750SOL     OW11082  11.139   6.278   0.695
69750SOL    HW111083  11.133   6.307   0.786
69750SOL    HW211084  11.193   6.200   0.699
69751SOL     OW11085   2.632   3.233   1.852
69751SOL    HW111086   2.635   3.217   1.946
69751SOL    HW211087   2.714   3.194   1.819
69752SOL     OW11088  13.011   4.471   8.829
69752SOL    HW111089  12.963   4.553   8.816
69752SOL    HW211090  12.969   4.431   8.905
69753SOL     OW11091  14.453   0.255   6.348
69753SOL    HW111092  14.419   0.344   6.346
69753SOL    HW211093  14.474   0.240   6.440
69754SOL     OW11094   9.906  12.517   9.551
69754SOL    HW111095   9.813  12.503   9.537
69754SOL    HW211096   9.926  12.596   9.500
69755SOL     OW11097   0.521   7.596   4.293
69755SOL    HW111098   0.503   7.588   4.386
69755SOL    HW211099   0.465   7.530   4.252
69756SOL     OW11100  11.883   0.639  12.998
69756SOL    HW111101  11.818   0.642  13.068
69756SOL    HW211102  11.929   0.723  13.005
69757SOL     OW11103   5.770   1.680   0.074
69757SOL    HW111104   5.723   1.600   0.098
69757SOL    HW211105   5.702   1.739   0.040
69758SOL     OW11106  13.828   6.606   8.080
69758SOL    HW111107  13.820   6.585   7.987
69758SOL    HW211108  13.809   6.699   8.086
69759SOL     OW11109  14.101  12.147   7.224
69759SOL    HW111110  14.144  12.116   7.303
69759SOL    HW211111  14.036  12.211   7.255
69760SOL     OW11112   1.489   0.057   9.761
69760SOL    HW111113   1.568   0.007   9.744
69760SOL    HW211114   1.459   0.027   9.847
69761SOL     OW11115  12.190   3.073  12.455
69761SOL    HW111116  12.190   2.985  12.417
69761SOL    HW211117  12.134   3.124  12.397
69762SOL     OW11118   8.170   8.724  11.263
69762SOL    HW111119   8.229   8.776  11.319
69762SOL    HW211120   8.176   8.766  11.178
69763SOL     OW11121   5.408   0.785   2.688
69763SOL    HW111122   5.338   0.774   2.752
69763SOL    HW211123   5.367   0.763   2.604
69764SOL     OW11124   0.128   2.636  11.414
69764SOL    HW111125   0.037   2.667  11.415
69764SOL    HW211126   0.125   2.555  11.363
69765SOL     OW11127   8.534   8.915  14.202
69765SOL    HW111128   8.497   8.849  14.259
69765SOL    HW211129   8.602   8.868  14.152
69766SOL     OW11130   3.112   8.276   9.479
69766SOL    HW111131   3.200   8.305   9.452
69766SOL    HW211132   3.088   8.334   9.550
69767SOL     OW11133   6.229   4.510  13.546
69767SOL    HW111134   6.156   4.538  13.490
69767SOL    HW211135   6.207   4.421  13.571
69768SOL     OW11136  12.333   9.950   6.965
69768SOL    HW111137  12.333   9.918   7.055
69768SOL    HW211138  12.424   9.940   6.936
69769SOL     OW11139   7.853  12.187  13.808
69769SOL    HW111140   7.865  12.243  13.884
69769SOL    HW211141   7.765  12.152  13.817
69770SOL     OW11142   6.055   9.488   0.829
69770SOL    HW111143   6.043   9.575   0.867
69770SOL    HW211144   6.103   9.439   0.896
69771SOL     OW11145  12.366   6.430   6.984
69771SOL    HW111146  12.439   6.381   7.022
69771SOL    HW211147  12.396   6.454   6.897
69772SOL     OW11148   3.939  12.059  13.546
69772SOL    HW111149   4.010  12.086  13.604
69772SOL    HW211150   3.862  12.107  13.577
69773SOL     OW11151  12.976  12.872  10.028
69773SOL    HW111152  13.022  12.899  10.107
69773SOL    HW211153  12.907  12.938  10.018
69774SOL     OW11154  13.408   4.464  14.622
69774SOL    HW111155  13.440   4.496  14.538
69774SOL    HW211156  13.416   4.369  14.616
69775SOL     OW11157   2.324   1.821   8.650
69775SOL    HW111158   2.418   1.837   8.649
69775SOL    HW211159   2.293   1.864   8.730
69776SOL     OW11160   6.676   4.114   7.668
69776SOL    HW111161   6.757   4.119   7.719
69776SOL    HW211162   6.660   4.020   7.660
69777SOL     OW11163  10.276  12.208   7.041
69777SOL    HW111164  10.234  12.218   6.955
69777SOL    HW211165  10.265  12.116   7.062
69778SOL     OW11166   8.142  14.725   7.784
69778SOL    HW111167   8.047  14.711   7.775
69778SOL    HW211168   8.153  14.820   7.780
69779SOL     OW11169  11.294   8.453  12.336
69779SOL    HW111170  11.257   8.365  12.333
69779SOL    HW211171  11.387   8.440  12.320
69780SOL     OW11172   2.308   7.122  10.059
69780SOL    HW111173   2.383   7.145  10.112
69780SOL    HW211174   2.314   7.180   9.982
69781SOL     OW11175  12.292  10.371   3.469
69781SOL    HW111176  12.217  10.371   3.410
69781SOL    HW211177  12.318  10.463   3.476
69782SOL     OW11178  10.105  10.299   4.272
69782SOL    HW111179  10.092  10.356   4.348
69782SOL    HW211180  10.125  10.359   4.200
69783SOL     OW11181   8.523  12.708   0.358
69783SOL    HW111182   8.507  12.640   0.293
69783SOL    HW211183   8.450  12.700   0.420
69784SOL     OW11184   0.393   6.627  12.196
69784SOL    HW111185   0.403   6.566  12.122
69784SOL    HW211186   0.357   6.574  12.267
69785SOL     OW11187   4.202   9.046  13.337
69785SOL    HW111188   4.273   9.008  13.387
69785SOL    HW211189   4.189   9.133  13.375
69786SOL     OW11190  10.571   7.406   8.462
69786SOL    HW111191  10.598   7.428   8.373
69786SOL    HW211192  10.475   7.397   8.457
69787SOL     OW11193   6.303  11.165   2.486
69787SOL    HW111194   6.275  11.235   2.545
69787SOL    HW211195   6.329  11.211   2.406
69788SOL     OW11196  11.897   1.780  11.027
69788SOL    HW111197  11.984   1.771  10.989
69788SOL    HW211198  11.912   1.785  11.122
69789SOL     OW11199   0.596  12.162  12.857
69789SOL    HW111200   0.634  12.099  12.918
69789SOL    HW211201   0.595  12.116  12.773
69790SOL     OW11202   7.253   1.542   6.880
69790SOL    HW111203   7.238   1.448   6.871
69790SOL    HW211204   7.236   1.561   6.972
69791SOL     OW11205   3.241   4.545  10.994
69791SOL    HW111206   3.307   4.604  10.958
69791SOL    HW211207   3.201   4.504  10.918
69792SOL     OW11208   4.336  11.361  14.740
69792SOL    HW111209   4.282  11.409  14.803
69792SOL    HW211210   4.358  11.426  14.672
69793SOL     OW11211   4.655   6.408  13.099
69793SOL    HW111212   4.704   6.472  13.048
69793SOL    HW211213   4.564   6.418  13.069
69794SOL     OW11214  11.285  13.574   8.426
69794SOL    HW111215  11.239  13.575   8.342
69794SOL    HW211216  11.216  13.588   8.491
69795SOL     OW11217   6.102   8.370   6.992
69795SOL    HW111218   6.187   8.346   7.028
69795SOL    HW211219   6.105   8.465   6.985
69796SOL     OW11220   3.915   7.545   1.582
69796SOL    HW111221   3.876   7.460   1.601
69796SOL    HW211222   4.007   7.526   1.562
69797SOL     OW11223   1.280  12.656   6.706
69797SOL    HW111224   1.224  12.591   6.663
69797SOL    HW211225   1.226  12.690   6.777
69798SOL     OW11226   0.283   4.896   4.159
69798SOL    HW111227   0.301   4.875   4.067
69798SOL    HW211228   0.296   4.813   4.205
69799SOL     OW11229  10.344  14.146   2.006
69799SOL    HW111230  10.249  14.133   2.002
69799SOL    HW211231  10.374  14.086   2.074
69800SOL     OW11232   8.965  14.769   4.741
69800SOL    HW111233   8.991  14.785   4.651
69800SOL    HW211234   9.041  14.796   4.793
69801SOL     OW11235  14.697  11.752   2.770
69801SOL    HW111236  14.617  11.762   2.718
69801SOL    HW211237  14.760  11.711   2.710
69802SOL     OW11238   2.189   8.058   4.142
69802SOL    HW111239   2.177   7.984   4.082
69802SOL    HW211240   2.252   8.115   4.097
69803SOL     OW11241  10.980   0.942   0.761
69803SOL    HW111242  10.897   0.954   0.809
69803SOL    HW211243  10.969   0.859   0.715
69804SOL     OW11244  14.111   5.334   1.742
69804SOL    HW111245  14.124   5.263   1.678
69804SOL    HW211246  14.040   5.386   1.706
69805SOL     OW11247   5.706   7.952  14.692
69805SOL    HW111248   5.697   8.020  14.625
69805SOL    HW211249   5.661   7.876  14.654
69806SOL     OW11250   4.416   4.651   4.355
69806SOL    HW111251   4.495   4.632   4.304
69806SOL    HW211252   4.344   4.615   4.303
69807SOL     OW11253   9.551   9.160  11.798
69807SOL    HW111254   9.507   9.213  11.732
69807SOL    HW211255   9.607   9.101  11.748
69808SOL     OW11256  11.316   4.698   6.916
69808SOL    HW111257  11.260   4.620   6.910
69808SOL    HW211258  11.401   4.664   6.946
69809SOL     OW11259   2.154  13.094  13.555
69809SOL    HW111260   2.108  13.123  13.634
69809SOL    HW211261   2.244  13.123  13.567
69810SOL     OW11262  14.623   5.820   1.949
69810SOL    HW111263  14.626   5.882   1.876
69810SOL    HW211264  14.694   5.759   1.931
69811SOL     OW11265  10.137   3.652   9.259
69811SOL    HW111266  10.190   3.621   9.332
69811SOL    HW211267  10.141   3.581   9.195
69812SOL     OW11268  11.315  12.524   1.850
69812SOL    HW111269  11.312  12.619   1.861
69812SOL    HW211270  11.269  12.490   1.927
69813SOL     OW11271  12.907  11.269   7.165
69813SOL    HW111272  12.943  11.342   7.216
69813SOL    HW211273  12.876  11.310   7.084
69814SOL     OW11274   9.232  14.398   0.314
69814SOL    HW111275   9.179  14.449   0.375
69814SOL    HW211276   9.285  14.341   0.370
69815SOL     OW11277   9.887   4.626   9.161
69815SOL    HW111278   9.922   4.698   9.215
69815SOL    HW211279   9.933   4.548   9.193
69816SOL     OW11280  10.378   1.304   9.678
69816SOL    HW111281  10.441   1.349   9.620
69816SOL    HW211282  10.427   1.229   9.712
69817SOL     OW11283  11.642   2.676  11.933
69817SOL    HW111284  11.689   2.738  11.988
69817SOL    HW211285  11.585   2.628  11.993
69818SOL     OW11286  10.306  13.499   3.943
69818SOL    HW111287  10.236  13.478   3.880
69818SOL    HW211288  10.286  13.445   4.020
69819SOL     OW11289  14.686  11.052   4.466
69819SOL    HW111290  14.628  11.126   4.482
69819SOL    HW211291  14.633  10.992   4.413
69820SOL     OW11292   0.691   0.056  12.997
69820SOL    HW111293   0.763  14.872  13.024
69820SOL    HW211294   0.728   0.144  13.000
69821SOL     OW11295   5.353   3.467   7.875
69821SOL    HW111296   5.383   3.524   7.804
69821SOL    HW211297   5.314   3.392   7.830
69822SOL     OW11298   0.178   7.793  10.578
69822SOL    HW111299   0.219   7.865  10.531
69822SOL    HW211300   0.159   7.728  10.511
69823SOL     OW11301   5.902   9.645   3.936
69823SOL    HW111302   5.946   9.560   3.930
69823SOL    HW211303   5.967   9.708   3.905
69824SOL     OW11304   5.860   1.223   7.035
69824SOL    HW111305   5.867   1.128   7.045
69824SOL    HW211306   5.938   1.257   7.078
69825SOL     OW11307  13.850   6.918  13.297
69825SOL    HW111308  13.801   6.956  13.224
69825SOL    HW211309  13.881   6.994  13.346
69826SOL     OW11310   4.916   7.534   0.652
69826SOL    HW111311   4.900   7.477   0.727
69826SOL    HW211312   4.969   7.482   0.593
69827SOL     OW11313   8.561   2.487   9.968
69827SOL    HW111314   8.578   2.565  10.020
69827SOL    HW211315   8.615   2.419  10.009
69828SOL     OW11316   2.614  10.056   1.952
69828SOL    HW111317   2.665  10.049   1.872
69828SOL    HW211318   2.532  10.098   1.925
69829SOL     OW11319   9.992   8.835  10.538
69829SOL    HW111320  10.062   8.798  10.485
69829SOL    HW211321   9.915   8.782  10.516
69830SOL     OW11322   8.405   8.825   2.151
69830SOL    HW111323   8.482   8.882   2.151
69830SOL    HW211324   8.392   8.802   2.059
69831SOL     OW11325   9.343  12.750   9.647
69831SOL    HW111326   9.398  12.699   9.588
69831SOL    HW211327   9.349  12.840   9.615
69832SOL     OW11328   6.003  12.053   5.429
69832SOL    HW111329   6.048  12.136   5.445
69832SOL    HW211330   5.935  12.050   5.497
69833SOL     OW11331   5.167  14.839  12.007
69833SOL    HW111332   5.155  14.772  12.075
69833SOL    HW211333   5.260  14.836  11.986
69834SOL     OW11334   2.594   7.422   0.487
69834SOL    HW111335   2.547   7.446   0.566
69834SOL    HW211336   2.568   7.488   0.423
69835SOL     OW11337  12.454  12.773  13.222
69835SOL    HW111338  12.409  12.736  13.298
69835SOL    HW211339  12.429  12.716  13.149
69836SOL     OW11340   9.806   6.756  12.268
69836SOL    HW111341   9.751   6.775  12.192
69836SOL    HW211342   9.744   6.732  12.337
69837SOL     OW11343   1.545   8.388   7.667
69837SOL    HW111344   1.487   8.408   7.740
69837SOL    HW211345   1.488   8.348   7.601
69838SOL     OW11346   4.234   6.074   3.298
69838SOL    HW111347   4.212   6.072   3.391
69838SOL    HW211348   4.151   6.089   3.254
69839SOL     OW11349   9.723   7.553   7.739
69839SOL    HW111350   9.771   7.546   7.657
69839SOL    HW211351   9.717   7.647   7.755
69840SOL     OW11352   0.110  10.401   6.446
69840SOL    HW111353   0.053  10.329   6.421
69840SOL    HW211354   0.101  10.465   6.376
69841SOL     OW11355   0.951   3.071  11.428
69841SOL    HW111356   0.878   3.058  11.367
69841SOL    HW211357   0.973   3.163  11.420
69842SOL     OW11358  14.306   2.745  13.181
69842SOL    HW111359  14.381   2.792  13.217
69842SOL    HW211360  14.230   2.796  13.210
69843SOL     OW11361   6.678  10.722  12.601
69843SOL    HW111362   6.669  10.816  12.586
69843SOL    HW211363   6.589  10.689  12.604
69844SOL     OW11364  12.731  11.982   1.850
69844SOL    HW111365  12.649  12.019   1.882
69844SOL    HW211366  12.706  11.898   1.810
69845SOL     OW11367  10.473  13.561   1.860
69845SOL    HW111368  10.381  13.549   1.883
69845SOL    HW211369  10.502  13.634   1.915
69846SOL     OW11370   3.896   1.086   3.922
69846SOL    HW111371   3.961   1.143   3.963
69846SOL    HW211372   3.938   1.054   3.842
69847SOL     OW11373   9.123   6.998  13.307
69847SOL    HW111374   9.093   6.985  13.217
69847SOL    HW211375   9.082   6.926  13.356
69848SOL     OW11376   9.912   5.214  13.663
69848SOL    HW111377   9.871   5.191  13.746
69848SOL    HW211378   9.950   5.301  13.678
69849SOL     OW11379   8.179   6.339  14.137
69849SOL    HW111380   8.088   6.367  14.144
69849SOL    HW211381   8.225   6.415  14.101
69850SOL     OW11382   4.444   6.587   9.464
69850SOL    HW111383   4.428   6.673   9.426
69850SOL    HW211384   4.527   6.597   9.511
69851SOL     OW11385   2.259  11.814   7.919
69851SOL    HW111386   2.351  11.790   7.906
69851SOL    HW211387   2.228  11.836   7.831
69852SOL     OW11388   8.137   9.883   7.507
69852SOL    HW111389   8.054   9.834   7.504
69852SOL    HW211390   8.120   9.954   7.569
69853SOL     OW11391  14.006  13.370   2.800
69853SOL    HW111392  13.934  13.307   2.811
69853SOL    HW211393  14.053  13.340   2.723
69854SOL     OW11394  12.480   9.793   8.322
69854SOL    HW111395  12.430   9.849   8.381
69854SOL    HW211396  12.468   9.705   8.357
69855SOL     OW11397  12.731   9.926   8.342
69855SOL    HW111398  12.687  10.009   8.326
69855SOL    HW211399  12.681   9.862   8.290
69856SOL     OW11400  12.405   7.311   1.915
69856SOL    HW111401  12.435   7.223   1.893
69856SOL    HW211402  12.324   7.297   1.965
69857SOL     OW11403  11.770   7.701   9.424
69857SOL    HW111404  11.772   7.677   9.516
69857SOL    HW211405  11.695   7.760   9.415
69858SOL     OW11406   6.641   0.697   0.096
69858SOL    HW111407   6.661   0.721   0.187
69858SOL    HW211408   6.673   0.771   0.044
69859SOL     OW11409   1.582  14.685   7.488
69859SOL    HW111410   1.616  14.775   7.487
69859SOL    HW211411   1.489  14.694   7.464
69860SOL     OW11412  11.012   2.943   8.109
69860SOL    HW111413  11.062   2.889   8.171
69860SOL    HW211414  11.050   3.030   8.117
69861SOL     OW11415   1.266   3.302   4.768
69861SOL    HW111416   1.281   3.358   4.692
69861SOL    HW211417   1.350   3.301   4.813
69862SOL     OW11418   5.211  11.079  14.302
69862SOL    HW111419   5.196  10.986  14.321
69862SOL    HW211420   5.255  11.112  14.380
69863SOL     OW11421  13.277   8.838   0.852
69863SOL    HW111422  13.214   8.906   0.875
69863SOL    HW211423  13.335   8.833   0.928
69864SOL     OW11424   5.778   0.373   3.360
69864SOL    HW111425   5.789   0.405   3.449
69864SOL    HW211426   5.800   0.448   3.305
69865SOL     OW11427   5.082  12.210   4.142
69865SOL    HW111428   5.080  12.302   4.167
69865SOL    HW211429   5.144  12.206   4.070
69866SOL     OW11430   9.765   6.493   8.175
69866SOL    HW111431   9.720   6.409   8.177
69866SOL    HW211432   9.850   6.474   8.135
69867SOL     OW11433   7.322  11.520  14.468
69867SOL    HW111434   7.404  11.491  14.429
69867SOL    HW211435   7.254  11.493  14.405
69868SOL     OW11436   1.216  14.144   0.489
69868SOL    HW111437   1.277  14.176   0.422
69868SOL    HW211438   1.206  14.218   0.549
69869SOL     OW11439   2.539  11.726  11.293
69869SOL    HW111440   2.581  11.810  11.278
69869SOL    HW211441   2.589  11.664  11.239
69870SOL     OW11442   0.970  11.985   0.262
69870SOL    HW111443   0.935  12.074   0.251
69870SOL    HW211444   1.060  11.990   0.228
69871SOL     OW11445   8.497   3.708   7.564
69871SOL    HW111446   8.438   3.666   7.626
69871SOL    HW211447   8.444   3.720   7.485
69872SOL     OW11448   3.146   7.823   7.597
69872SOL    HW111449   3.187   7.737   7.586
69872SOL    HW211450   3.215   7.885   7.576
69873SOL     OW11451   3.437   5.809  10.511
69873SOL    HW111452   3.416   5.901  10.495
69873SOL    HW211453   3.363   5.760  10.477
69874SOL     OW11454   1.805   3.076  14.681
69874SOL    HW111455   1.725   3.081  14.734
69874SOL    HW211456   1.867   3.131  14.728
69875SOL     OW11457   3.773  10.009   7.521
69875SOL    HW111458   3.728   9.947   7.578
69875SOL    HW211459   3.806   9.957   7.449
69876SOL     OW11460   8.244   0.280   0.895
69876SOL    HW111461   8.331   0.243   0.876
69876SOL    HW211462   8.215   0.233   0.974
69877SOL     OW11463  10.054   1.097   6.132
69877SOL    HW111464  10.027   1.137   6.214
69877SOL    HW211465  10.113   1.027   6.157
69878SOL     OW11466   4.499   0.227   0.147
69878SOL    HW111467   4.548   0.308   0.157
69878SOL    HW211468   4.412   0.246   0.182
69879SOL     OW11469   8.677  10.292   5.675
69879SOL    HW111470   8.771  10.296   5.691
69879SOL    HW211471   8.658  10.199   5.664
69880SOL     OW11472  13.612   7.716   6.494
69880SOL    HW111473  13.532   7.693   6.541
69880SOL    HW211474  13.606   7.810   6.482
69881SOL     OW11475  13.690  11.456  13.800
69881SOL    HW111476  13.718  11.439  13.710
69881SOL    HW211477  13.760  11.508  13.838
69882SOL     OW11478  13.667   8.463   8.480
69882SOL    HW111479  13.746   8.453   8.427
69882SOL    HW211480  13.677   8.400   8.550
69883SOL     OW11481  13.765   2.599  13.071
69883SOL    HW111482  13.787   2.671  13.129
69883SOL    HW211483  13.825   2.528  13.096
69884SOL     OW11484  14.700  14.745  10.080
69884SOL    HW111485  14.750  14.819  10.114
69884SOL    HW211486  14.657  14.779  10.002
69885SOL     OW11487  14.229   3.079  11.911
69885SOL    HW111488  14.223   2.984  11.899
69885SOL    HW211489  14.231   3.091  12.006
69886SOL     OW11490  10.063   6.448   5.900
69886SOL    HW111491  10.052   6.471   5.992
69886SOL    HW211492   9.992   6.493   5.855
69887SOL     OW11493  12.636   1.516   9.998
69887SOL    HW111494  12.701   1.449   9.976
69887SOL    HW211495  12.552   1.477   9.973
69888SOL     OW11496  12.161   1.053   9.805
69888SOL    HW111497  12.153   0.982   9.741
69888SOL    HW211498  12.102   1.026   9.876
69889SOL     OW11499  10.611  10.205   2.885
69889SOL    HW111500  10.629  10.252   2.804
69889SOL    HW211501  10.588  10.116   2.856
69890SOL     OW11502   3.607  10.635   9.597
69890SOL    HW111503   3.639  10.688   9.670
69890SOL    HW211504   3.687  10.597   9.559
69891SOL     OW11505   4.965   8.585   6.127
69891SOL    HW111506   4.990   8.659   6.073
69891SOL    HW211507   5.038   8.572   6.187
69892SOL     OW11508  13.894  14.265   1.923
69892SOL    HW111509  13.866  14.182   1.884
69892SOL    HW211510  13.845  14.272   2.004
69893SOL     OW11511   2.769   2.800   4.853
69893SOL    HW111512   2.791   2.878   4.904
69893SOL    HW211513   2.794   2.822   4.763
69894SOL     OW11514   5.060  14.484   7.914
69894SOL    HW111515   5.074  14.412   7.975
69894SOL    HW211516   5.140  14.488   7.862
69895SOL     OW11517   1.419   8.107   4.527
69895SOL    HW111518   1.392   8.195   4.552
69895SOL    HW211519   1.470   8.076   4.602
69896SOL     OW11520   6.438  14.031  10.953
69896SOL    HW111521   6.513  13.973  10.940
69896SOL    HW211522   6.477  14.119  10.956
69897SOL     OW11523   6.215   1.039   3.503
69897SOL    HW111524   6.212   0.952   3.545
69897SOL    HW211525   6.295   1.038   3.452
69898SOL     OW11526  10.864   6.645  10.121
69898SOL    HW111527  10.786   6.670  10.072
69898SOL    HW211528  10.900   6.727  10.154
69899SOL     OW11529   4.761   6.085   4.275
69899SOL    HW111530   4.751   6.034   4.356
69899SOL    HW211531   4.671   6.101   4.246
69900SOL     OW11532   5.607   1.728   2.937
69900SOL    HW111533   5.662   1.764   3.007
69900SOL    HW211534   5.542   1.796   2.919
69901SOL     OW11535  11.501   3.843   0.105
69901SOL    HW111536  11.524   3.862   0.014
69901SOL    HW211537  11.585   3.832   0.149
69902SOL     OW11538   3.444  10.830   8.131
69902SOL    HW111539   3.517  10.862   8.185
69902SOL    HW211540   3.478  10.749   8.093
69903SOL     OW11541   9.154   1.156   5.342
69903SOL    HW111542   9.106   1.140   5.423
69903SOL    HW211543   9.246   1.144   5.365
69904SOL     OW11544   1.489   2.698   0.541
69904SOL    HW111545   1.460   2.742   0.462
69904SOL    HW211546   1.410   2.657   0.576
69905SOL     OW11547   0.868  12.679   2.380
69905SOL    HW111548   0.898  12.588   2.382
69905SOL    HW211549   0.862  12.701   2.287
69906SOL     OW11550   4.747   6.477  10.953
69906SOL    HW111551   4.739   6.449  10.862
69906SOL    HW211552   4.789   6.563  10.948
69907SOL     OW11553  13.357   8.784   3.861
69907SOL    HW111554  13.331   8.868   3.823
69907SOL    HW211555  13.306   8.777   3.942
69908SOL     OW11556   9.963  13.773  10.440
69908SOL    HW111557   9.974  13.770  10.345
69908SOL    HW211558   9.872  13.749  10.454
69909SOL     OW11559   2.426  13.400   7.198
69909SOL    HW111560   2.386  13.377   7.114
69909SOL    HW211561   2.358  13.448   7.245
69910SOL     OW11562  14.170   3.981   4.072
69910SOL    HW111563  14.253   4.029   4.070
69910SOL    HW211564  14.125   4.013   4.150
69911SOL     OW11565   4.335   7.636   2.843
69911SOL    HW111566   4.298   7.563   2.892
69911SOL    HW211567   4.355   7.599   2.757
69912SOL     OW11568  11.512  13.940  12.121
69912SOL    HW111569  11.530  13.925  12.214
69912SOL    HW211570  11.436  13.884  12.102
69913SOL     OW11571   0.123  10.001   5.356
69913SOL    HW111572   0.079  10.044   5.283
69913SOL    HW211573   0.065   9.928   5.379
69914SOL     OW11574   3.049   9.743   7.094
69914SOL    HW111575   3.040   9.681   7.167
69914SOL    HW211576   2.967   9.792   7.094
69915SOL     OW11577  12.574  14.190  11.293
69915SOL    HW111578  12.659  14.183  11.249
69915SOL    HW211579  12.575  14.277  11.333
69916SOL     OW11580   6.991  11.501  13.452
69916SOL    HW111581   6.938  11.430  13.417
69916SOL    HW211582   6.968  11.576  13.397
69917SOL     OW11583  10.803   1.990   7.884
69917SOL    HW111584  10.756   2.067   7.854
69917SOL    HW211585  10.885   1.991   7.835
69918SOL     OW11586   3.451   6.909   1.052
69918SOL    HW111587   3.457   6.931   1.145
69918SOL    HW211588   3.516   6.839   1.039
69919SOL     OW11589   8.371   3.808   5.698
69919SOL    HW111590   8.311   3.882   5.704
69919SOL    HW211591   8.427   3.817   5.775
69920SOL     OW11592   9.468   4.549   8.521
69920SOL    HW111593   9.500   4.466   8.556
69920SOL    HW211594   9.541   4.582   8.468
69921SOL     OW11595   7.314  11.623   1.777
69921SOL    HW111596   7.409  11.632   1.776
69921SOL    HW211597   7.298  11.539   1.820
69922SOL     OW11598   1.099   8.550  12.693
69922SOL    HW111599   1.016   8.573  12.736
69922SOL    HW211600   1.094   8.594  12.608
69923SOL     OW11601   7.613   0.892  11.716
69923SOL    HW111602   7.523   0.860  11.724
69923SOL    HW211603   7.628   0.943  11.796
69924SOL     OW11604  11.398  12.773   2.895
69924SOL    HW111605  11.426  12.682   2.911
69924SOL    HW211606  11.312  12.764   2.853
69925SOL     OW11607   1.755  10.683   2.277
69925SOL    HW111608   1.796  10.648   2.198
69925SOL    HW211609   1.732  10.773   2.254
69926SOL     OW11610   4.243   0.722   3.809
69926SOL    HW111611   4.213   0.742   3.720
69926SOL    HW211612   4.162   0.717   3.860
69927SOL     OW11613   3.744   0.345   8.518
69927SOL    HW111614   3.716   0.436   8.509
69927SOL    HW211615   3.708   0.317   8.602
69928SOL     OW11616   4.101   7.360  13.600
69928SOL    HW111617   4.022   7.307  13.611
69928SOL    HW211618   4.068   7.450  13.591
69929SOL     OW11619   4.338   8.350   8.974
69929SOL    HW111620   4.432   8.368   8.975
69929SOL    HW211621   4.302   8.412   8.910
69930SOL     OW11622  14.113   8.681   5.839
69930SOL    HW111623  14.168   8.682   5.760
69930SOL    HW211624  14.165   8.632   5.903
69931SOL     OW11625   7.259  14.174   4.537
69931SOL    HW111626   7.258  14.233   4.612
69931SOL    HW211627   7.351  14.171   4.510
69932SOL     OW11628   0.388   8.107   1.601
69932SOL    HW111629   0.441   8.068   1.670
69932SOL    HW211630   0.450   8.156   1.548
69933SOL     OW11631   1.726   5.382   6.335
69933SOL    HW111632   1.741   5.322   6.407
69933SOL    HW211633   1.791   5.357   6.269
69934SOL     OW11634  12.559   8.905  14.603
69934SOL    HW111635  12.635   8.951  14.638
69934SOL    HW211636  12.490   8.970  14.599
69935SOL     OW11637   2.485  10.130   7.645
69935SOL    HW111638   2.486  10.201   7.580
69935SOL    HW211639   2.413  10.152   7.703
69936SOL     OW11640  14.102   1.403   1.664
69936SOL    HW111641  14.096   1.358   1.749
69936SOL    HW211642  14.021   1.381   1.619
69937SOL     OW11643  12.902  13.764   8.298
69937SOL    HW111644  12.983  13.721   8.326
69937SOL    HW211645  12.888  13.833   8.363
69938SOL     OW11646   2.916   7.520   1.426
69938SOL    HW111647   2.848   7.581   1.396
69938SOL    HW211648   2.998   7.570   1.420
69939SOL     OW11649  11.706   9.051  14.108
69939SOL    HW111650  11.734   9.005  14.186
69939SOL    HW211651  11.787   9.074  14.063
69940SOL     OW11652  10.043   6.860  12.392
69940SOL    HW111653   9.965   6.822  12.352
69940SOL    HW211654  10.074   6.793  12.453
69941SOL     OW11655  11.730   8.023   0.183
69941SOL    HW111656  11.808   7.980   0.216
69941SOL    HW211657  11.758   8.068   0.103
69942SOL     OW11658  13.354  13.150   7.508
69942SOL    HW111659  13.338  13.233   7.464
69942SOL    HW211660  13.329  13.166   7.599
69943SOL     OW11661   2.322   3.226   3.292
69943SOL    HW111662   2.385   3.263   3.354
69943SOL    HW211663   2.237   3.262   3.320
69944SOL     OW11664   1.769   5.521   1.931
69944SOL    HW111665   1.811   5.476   1.858
69944SOL    HW211666   1.824   5.599   1.945
69945SOL     OW11667   4.586   3.810   6.136
69945SOL    HW111668   4.503   3.767   6.155
69945SOL    HW211669   4.607   3.781   6.047
69946SOL     OW11670   8.231  11.848   5.710
69946SOL    HW111671   8.260  11.939   5.718
69946SOL    HW211672   8.168  11.849   5.638
69947SOL     OW11673   8.709   6.359   6.636
69947SOL    HW111674   8.698   6.300   6.561
69947SOL    HW211675   8.793   6.403   6.618
69948SOL     OW11676   1.268   4.766   7.355
69948SOL    HW111677   1.277   4.724   7.270
69948SOL    HW211678   1.203   4.835   7.342
69949SOL     OW11679   3.097   9.316  12.210
69949SOL    HW111680   3.182   9.357  12.195
69949SOL    HW211681   3.107   9.227  12.178
69950SOL     OW11682   4.733   3.056  13.944
69950SOL    HW111683   4.779   3.090  14.021
69950SOL    HW211684   4.642   3.082  13.958
69951SOL     OW11685  12.221   6.880   8.368
69951SOL    HW111686  12.140   6.860   8.414
69951SOL    HW211687  12.236   6.804   8.311
69952SOL     OW11688   6.887  10.361  12.813
69952SOL    HW111689   6.980  10.355  12.790
69952SOL    HW211690   6.843  10.311  12.744
69953SOL     OW11691  14.125   1.451   5.800
69953SOL    HW111692  14.030   1.449   5.817
69953SOL    HW211693  14.132   1.457   5.705
69954SOL     OW11694  11.103  10.686   2.019
69954SOL    HW111695  11.195  10.691   1.993
69954SOL    HW211696  11.080  10.776   2.043
69955SOL     OW11697  10.649   4.633   6.476
69955SOL    HW111698  10.633   4.671   6.562
69955SOL    HW211699  10.578   4.570   6.464
69956SOL     OW11700   5.103   4.487  12.319
69956SOL    HW111701   5.024   4.529  12.283
69956SOL    HW211702   5.162   4.560  12.337
69957SOL     OW11703   0.713   6.468   9.749
69957SOL    HW111704   0.786   6.519   9.713
69957SOL    HW211705   0.659   6.533   9.794
69958SOL     OW11706   2.578  10.750   8.933
69958SOL    HW111707   2.606  10.763   8.842
69958SOL    HW211708   2.617  10.666   8.959
69959SOL     OW11709  12.985   0.744   9.515
69959SOL    HW111710  12.927   0.691   9.568
69959SOL    HW211711  12.945   0.831   9.514
69960SOL     OW11712  10.312   7.219   3.791
69960SOL    HW111713  10.276   7.255   3.711
69960SOL    HW211714  10.371   7.287   3.824
69961SOL     OW11715  11.119  12.307  11.122
69961SOL    HW111716  11.107  12.384  11.066
69961SOL    HW211717  11.210  12.313  11.152
69962SOL     OW11718  14.477   6.232   8.213
69962SOL    HW111719  14.538   6.160   8.200
69962SOL    HW211720  14.532   6.310   8.218
69963SOL     OW11721  11.141   3.817   1.747
69963SOL    HW111722  11.166   3.907   1.769
69963SOL    HW211723  11.216   3.764   1.774
69964SOL     OW11724   6.188  10.482   7.008
69964SOL    HW111725   6.208  10.391   7.029
69964SOL    HW211726   6.095  10.491   7.029
69965SOL     OW11727  10.110  14.465   6.649
69965SOL    HW111728  10.153  14.544   6.684
69965SOL    HW211729  10.059  14.497   6.575
69966SOL     OW11730  10.202  12.271   5.252
69966SOL    HW111731  10.162  12.307   5.331
69966SOL    HW211732  10.193  12.176   5.261
69967SOL     OW11733   9.940   5.931   5.782
69967SOL    HW111734   9.861   5.983   5.798
69967SOL    HW211735   9.999   5.955   5.853
69968SOL     OW11736   8.875   9.252   8.654
69968SOL    HW111737   8.958   9.283   8.689
69968SOL    HW211738   8.809   9.307   8.696
69969SOL     OW11739   3.642   0.595   0.744
69969SOL    HW111740   3.647   0.506   0.778
69969SOL    HW211741   3.734   0.621   0.734
69970SOL     OW11742  10.178  14.168   0.399
69970SOL    HW111743  10.217  14.082   0.417
69970SOL    HW211744  10.087  14.149   0.377
69971SOL     OW11745   3.360   0.236  11.812
69971SOL    HW111746   3.361   0.325  11.847
69971SOL    HW211747   3.357   0.247  11.717
69972SOL     OW11748  13.894   5.879   9.461
69972SOL    HW111749  13.943   5.962   9.463
69972SOL    HW211750  13.848   5.882   9.377
69973SOL     OW11751  10.008   0.960   1.724
69973SOL    HW111752  10.000   1.055   1.711
69973SOL    HW211753   9.919   0.930   1.741
69974SOL     OW11754   9.972   2.880   2.585
69974SOL    HW111755   9.899   2.820   2.567
69974SOL    HW211756  10.048   2.837   2.546
69975SOL     OW11757   2.107  13.762  14.375
69975SOL    HW111758   2.071  13.845  14.345
69975SOL    HW211759   2.089  13.701  14.303
69976SOL     OW11760   3.786   4.633   7.782
69976SOL    HW111761   3.847   4.705   7.770
69976SOL    HW211762   3.712   4.672   7.828
69977SOL     OW11763  14.803  11.933   7.584
69977SOL    HW111764  14.831  11.849   7.621
69977SOL    HW211765   0.011  11.983   7.574
69978SOL     OW11766   6.682   4.642   5.881
69978SOL    HW111767   6.612   4.608   5.937
69978SOL    HW211768   6.745   4.679   5.943
69979SOL     OW11769   8.600  14.250   1.293
69979SOL    HW111770   8.628  14.277   1.381
69979SOL    HW211771   8.513  14.213   1.305
69980SOL     OW11772  10.156   4.980   6.073
69980SOL    HW111773  10.107   5.049   6.119
69980SOL    HW211774  10.115   4.899   6.102
69981SOL     OW11775   6.072   6.753   0.993
69981SOL    HW111776   6.162   6.750   0.959
69981SOL    HW211777   6.078   6.803   1.074
69982SOL     OW11778  12.377   1.898  10.421
69982SOL    HW111779  12.296   1.949  10.415
69982SOL    HW211780  12.349   1.807  10.406
69983SOL     OW11781   4.224   1.344   6.702
69983SOL    HW111782   4.267   1.322   6.620
69983SOL    HW211783   4.131   1.348   6.680
69984SOL     OW11784   6.118  12.875   4.337
69984SOL    HW111785   6.125  12.780   4.321
69984SOL    HW211786   6.039  12.901   4.290
69985SOL     OW11787  13.694   4.010  10.783
69985SOL    HW111788  13.675   4.071  10.711
69985SOL    HW211789  13.713   4.067  10.858
69986SOL     OW11790   7.214  12.754  14.508
69986SOL    HW111791   7.212  12.723  14.598
69986SOL    HW211792   7.298  12.722  14.474
69987SOL     OW11793   7.846   0.616   5.050
69987SOL    HW111794   7.844   0.621   4.955
69987SOL    HW211795   7.889   0.532   5.069
69988SOL     OW11796   1.104   0.459  12.353
69988SOL    HW111797   1.029   0.458  12.413
69988SOL    HW211798   1.160   0.388  12.382
69989SOL     OW11799   8.818   4.972   7.242
69989SOL    HW111800   8.799   4.953   7.334
69989SOL    HW211801   8.905   4.937   7.228
69990SOL     OW11802   0.297   8.838  14.385
69990SOL    HW111803   0.365   8.771  14.377
69990SOL    HW211804   0.340   8.919  14.355
69991SOL     OW11805   8.532   8.436   6.909
69991SOL    HW111806   8.553   8.371   6.976
69991SOL    HW211807   8.485   8.505   6.957
69992SOL     OW11808   1.248   7.175   9.031
69992SOL    HW111809   1.304   7.229   8.975
69992SOL    HW211810   1.163   7.176   8.989
69993SOL     OW11811  13.788   6.864   1.611
69993SOL    HW111812  13.757   6.933   1.553
69993SOL    HW211813  13.859   6.905   1.661
69994SOL     OW11814   5.294   0.054   8.122
69994SOL    HW111815   5.225   0.099   8.171
69994SOL    HW211816   5.307  14.844   8.168
69995SOL     OW11817   3.730   6.599   5.956
69995SOL    HW111818   3.698   6.673   5.905
69995SOL    HW211819   3.825   6.611   5.960
69996SOL     OW11820  10.916   4.787   3.733
69996SOL    HW111821  10.958   4.718   3.784
69996SOL    HW211822  10.903   4.859   3.795
69997SOL     OW11823   3.859   4.588  13.488
69997SOL    HW111824   3.802   4.561  13.417
69997SOL    HW211825   3.874   4.509  13.540
69998SOL     OW11826  11.876   1.569   9.972
69998SOL    HW111827  11.817   1.497   9.995
69998SOL    HW211828  11.857   1.637  10.037
69999SOL     OW11829   7.397  10.138   8.767
69999SOL    HW111830   7.361  10.163   8.852
69999SOL    HW211831   7.456  10.064   8.788
70000SOL     OW11832   0.483   5.036   3.262
70000SOL    HW111833   0.523   4.951   3.283
70000SOL    HW211834   0.488   5.041   3.166
70001SOL     OW11835  12.365  13.563  11.578
70001SOL    HW111836  12.296  13.498  11.595
70001SOL    HW211837  12.427  13.518  11.521
70002SOL     OW11838  10.224   9.989   6.982
70002SOL    HW111839  10.149   9.932   6.966
70002SOL    HW211840  10.184  10.073   7.006
70003SOL     OW11841   1.362   4.368   2.919
70003SOL    HW111842   1.378   4.393   2.828
70003SOL    HW211843   1.290   4.425   2.946
70004SOL     OW11844   1.786  10.666   7.414
70004SOL    HW111845   1.740  10.599   7.362
70004SOL    HW211846   1.836  10.715   7.349
70005SOL     OW11847   7.529   6.565   7.372
70005SOL    HW111848   7.575   6.617   7.305
70005SOL    HW211849   7.455   6.526   7.326
70006SOL     OW11850  13.977  11.001  10.486
70006SOL    HW111851  13.990  11.039  10.573
70006SOL    HW211852  13.924  10.923  10.501
70007SOL     OW11853  11.304   3.417   7.491
70007SOL    HW111854  11.371   3.381   7.549
70007SOL    HW211855  11.353   3.460   7.421
70008SOL     OW11856   9.024  10.456   7.671
70008SOL    HW111857   9.076  10.382   7.702
70008SOL    HW211858   8.982  10.490   7.750
70009SOL     OW11859   4.265   8.326   1.524
70009SOL    HW111860   4.286   8.379   1.447
70009SOL    HW211861   4.334   8.259   1.526
70010SOL     OW11862   8.097  10.660   6.187
70010SOL    HW111863   8.159  10.715   6.235
70010SOL    HW211864   8.100  10.693   6.097
70011SOL     OW11865  10.743  10.846   5.925
70011SOL    HW111866  10.727  10.932   5.886
70011SOL    HW211867  10.681  10.840   5.998
70012SOL     OW11868   8.347  12.919   8.796
70012SOL    HW111869   8.427  12.867   8.796
70012SOL    HW211870   8.334  12.943   8.704
70013SOL     OW11871   8.038   9.757  11.503
70013SOL    HW111872   8.019   9.771  11.410
70013SOL    HW211873   8.106   9.690  11.504
70014SOL     OW11874   9.142   1.387  12.125
70014SOL    HW111875   9.127   1.370  12.218
70014SOL    HW211876   9.055   1.379  12.086
70015SOL     OW11877  13.207   0.477   8.104
70015SOL    HW111878  13.246   0.482   8.017
70015SOL    HW211879  13.125   0.429   8.091
70016SOL     OW11880   7.034   6.332   5.247
70016SOL    HW111881   7.068   6.410   5.291
70016SOL    HW211882   7.110   6.293   5.204
70017SOL     OW11883   5.980  11.934   2.815
70017SOL    HW111884   6.031  11.949   2.736
70017SOL    HW211885   5.896  11.900   2.783
70018SOL     OW11886   1.406  11.575  14.330
70018SOL    HW111887   1.432  11.495  14.285
70018SOL    HW211888   1.363  11.544  14.410
70019SOL     OW11889  12.619  13.076   7.556
70019SOL    HW111890  12.679  13.095   7.628
70019SOL    HW211891  12.624  12.981   7.545
70020SOL     OW11892  12.844   9.702  10.342
70020SOL    HW111893  12.799   9.760  10.403
70020SOL    HW211894  12.907   9.655  10.397
70021SOL     OW11895   3.045  12.629   5.514
70021SOL    HW111896   3.078  12.560   5.572
70021SOL    HW211897   2.962  12.656   5.554
70022SOL     OW11898  10.962   8.438   5.286
70022SOL    HW111899  10.947   8.531   5.304
70022SOL    HW211900  10.936   8.393   5.366
70023SOL     OW11901  14.342   6.420  14.085
70023SOL    HW111902  14.405   6.349  14.098
70023SOL    HW211903  14.262   6.388  14.127
70024SOL     OW11904  12.272   8.638   6.817
70024SOL    HW111905  12.315   8.702   6.760
70024SOL    HW211906  12.225   8.580   6.758
70025SOL     OW11907  10.218   8.815  11.018
70025SOL    HW111908  10.182   8.802  11.105
70025SOL    HW211909  10.180   8.897  10.988
70026SOL     OW11910   8.382  13.540  12.691
70026SOL    HW111911   8.460  13.538  12.747
70026SOL    HW211912   8.396  13.471  12.626
70027SOL     OW11913  14.867   4.620   0.411
70027SOL    HW111914  14.848   4.536   0.370
70027SOL    HW211915   0.085   4.638   0.388
70028SOL     OW11916  11.720  10.469  12.213
70028SOL    HW111917  11.688  10.379  12.221
70028SOL    HW211918  11.787  10.464  12.145
70029SOL     OW11919   5.238  10.253  12.391
70029SOL    HW111920   5.273  10.197  12.459
70029SOL    HW211921   5.224  10.195  12.316
70030SOL     OW11922   5.546   7.757   3.607
70030SOL    HW111923   5.562   7.663   3.617
70030SOL    HW211924   5.621   7.788   3.555
70031SOL     OW11925   2.941   4.423  10.158
70031SOL    HW111926   2.964   4.502  10.207
70031SOL    HW211927   3.020   4.401  10.108
70032SOL     OW11928   5.790   3.792   8.868
70032SOL    HW111929   5.796   3.832   8.781
70032SOL    HW211930   5.755   3.705   8.852
70033SOL     OW11931   8.173   7.313  11.358
70033SOL    HW111932   8.193   7.360  11.439
70033SOL    HW211933   8.224   7.357  11.291
70034SOL     OW11934   1.743  11.532   1.067
70034SOL    HW111935   1.688  11.497   1.138
70034SOL    HW211936   1.832  11.501   1.089
70035SOL     OW11937   4.768   3.368  10.905
70035SOL    HW111938   4.782   3.398  10.994
70035SOL    HW211939   4.699   3.302  10.912
70036SOL     OW11940   7.402  10.141   6.064
70036SOL    HW111941   7.475  10.174   6.117
70036SOL    HW211942   7.394  10.049   6.089
70037SOL     OW11943  12.721   9.505   9.647
70037SOL    HW111944  12.803   9.540   9.683
70037SOL    HW211945  12.653   9.538   9.705
70038SOL     OW11946   2.385   1.330   4.744
70038SOL    HW111947   2.333   1.398   4.699
70038SOL    HW211948   2.335   1.309   4.822
70039SOL     OW11949  12.307  13.220  14.828
70039SOL    HW111950  12.363  13.270   0.016
70039SOL    HW211951  12.330  13.254  14.742
70040SOL     OW11952   2.024   6.591  14.452
70040SOL    HW111953   1.998   6.504  14.482
70040SOL    HW211954   2.093   6.574  14.387
70041SOL     OW11955   1.150   0.322  13.090
70041SOL    HW111956   1.059   0.301  13.108
70041SOL    HW211957   1.178   0.257  13.025
70042SOL     OW11958   0.164  12.740   0.131
70042SOL    HW111959   0.080  12.696   0.122
70042SOL    HW211960   0.219  12.701   0.063
70043SOL     OW11961   4.200   2.951   1.992
70043SOL    HW111962   4.133   3.020   1.988
70043SOL    HW211963   4.276   2.994   2.031
70044SOL     OW11964   3.295  13.372   7.216
70044SOL    HW111965   3.219  13.335   7.261
70044SOL    HW211966   3.323  13.445   7.271
70045SOL     OW11967   5.080   1.686   5.143
70045SOL    HW111968   5.060   1.747   5.072
70045SOL    HW211969   5.050   1.730   5.222
70046SOL     OW11970   6.847  14.082   4.350
70046SOL    HW111971   6.927  14.035   4.372
70046SOL    HW211972   6.866  14.174   4.372
70047SOL     OW11973   1.888   4.036   2.594
70047SOL    HW111974   1.914   4.076   2.511
70047SOL    HW211975   1.841   3.956   2.569
70048SOL     OW11976  10.825   2.995   0.994
70048SOL    HW111977  10.856   3.084   1.011
70048SOL    HW211978  10.738   2.992   1.035
70049SOL     OW11979  14.296  12.456   1.968
70049SOL    HW111980  14.299  12.388   1.900
70049SOL    HW211981  14.342  12.530   1.930
70050SOL     OW11982  10.003   0.722   2.373
70050SOL    HW111983  10.073   0.704   2.311
70050SOL    HW211984  10.037   0.792   2.429
70051SOL     OW11985   0.581   4.748   5.371
70051SOL    HW111986   0.651   4.803   5.407
70051SOL    HW211987   0.625   4.666   5.347
70052SOL     OW11988  12.841   5.226   1.381
70052SOL    HW111989  12.809   5.291   1.318
70052SOL    HW211990  12.764   5.204   1.433
70053SOL     OW11991  14.107   1.776   9.780
70053SOL    HW111992  14.139   1.865   9.791
70053SOL    HW211993  14.135   1.731   9.860
70054SOL     OW11994   9.906   2.867  10.862
70054SOL    HW111995   9.948   2.897  10.781
70054SOL    HW211996   9.822   2.831  10.834
70055SOL     OW11997   6.520   5.179  11.221
70055SOL    HW111998   6.493   5.221  11.140
70055SOL    HW211999   6.473   5.095  11.221
70056SOL     OW12000   8.443  10.156   3.674
70056SOL    HW112001   8.490  10.239   3.685
70056SOL    HW212002   8.377  10.174   3.607
70057SOL     OW12003   0.247  12.485  10.644
70057SOL    HW112004   0.216  12.399  10.616
70057SOL    HW212005   0.323  12.466  10.699
70058SOL     OW12006   7.486   7.909   0.164
70058SOL    HW112007   7.463   7.995   0.127
70058SOL    HW212008   7.414   7.888   0.223
70059SOL     OW12009   9.404   2.440  11.946
70059SOL    HW112010   9.474   2.408  12.003
70059SOL    HW212011   9.404   2.535  11.960
70060SOL     OW12012   8.070   0.098  13.433
70060SOL    HW112013   7.997   0.087  13.372
70060SOL    HW212014   8.139   0.138  13.381
70061SOL     OW12015  14.691  14.624  14.832
70061SOL    HW112016  14.765  14.649  14.777
70061SOL    HW212017  14.727  14.560   0.020
70062SOL     OW12018  14.112   0.684  10.390
70062SOL    HW112019  14.163   0.762  10.411
70062SOL    HW212020  14.054   0.672  10.465
70063SOL     OW12021   3.378   6.625   1.616
70063SOL    HW112022   3.427   6.666   1.545
70063SOL    HW212023   3.423   6.653   1.696
70064SOL     OW12024   1.514   3.014   6.062
70064SOL    HW112025   1.609   3.003   6.066
70064SOL    HW212026   1.481   2.925   6.048
70065SOL     OW12027   2.231   5.263   5.202
70065SOL    HW112028   2.185   5.235   5.281
70065SOL    HW212029   2.316   5.293   5.234
70066SOL     OW12030   5.469   3.261   5.906
70066SOL    HW112031   5.433   3.342   5.943
70066SOL    HW212032   5.564   3.275   5.905
70067SOL     OW12033   1.489   7.853  11.713
70067SOL    HW112034   1.564   7.815  11.668
70067SOL    HW212035   1.440   7.897  11.643
70068SOL     OW12036   1.322   5.233   7.715
70068SOL    HW112037   1.274   5.150   7.718
70068SOL    HW212038   1.362   5.233   7.628
70069SOL     OW12039   2.023   3.529   2.386
70069SOL    HW112040   2.003   3.539   2.293
70069SOL    HW212041   2.048   3.616   2.415
70070SOL     OW12042   1.006   0.665   2.607
70070SOL    HW112043   1.095   0.694   2.630
70070SOL    HW212044   1.017   0.615   2.526
70071SOL     OW12045  13.237   3.686   0.229
70071SOL    HW112046  13.250   3.663   0.321
70071SOL    HW212047  13.156   3.737   0.228
70072SOL     OW12048   3.680  10.696   5.900
70072SOL    HW112049   3.737  10.729   5.831
70072SOL    HW212050   3.700  10.752   5.976
70073SOL     OW12051  11.929  12.377   5.613
70073SOL    HW112052  12.009  12.420   5.585
70073SOL    HW212053  11.903  12.323   5.539
70074SOL     OW12054  13.889  12.769   1.219
70074SOL    HW112055  13.857  12.793   1.306
70074SOL    HW212056  13.914  12.677   1.227
70075SOL     OW12057   2.870  11.504   8.498
70075SOL    HW112058   2.823  11.428   8.462
70075SOL    HW212059   2.962  11.488   8.478
70076SOL     OW12060   8.952  14.192   9.412
70076SOL    HW112061   8.910  14.186   9.326
70076SOL    HW212062   9.035  14.237   9.394
70077SOL     OW12063  12.590   9.999   7.201
70077SOL    HW112064  12.602   9.922   7.146
70077SOL    HW212065  12.621   9.972   7.287
70078SOL     OW12066  13.277  12.327   6.512
70078SOL    HW112067  13.288  12.232   6.505
70078SOL    HW212068  13.244  12.340   6.601
70079SOL     OW12069   8.377  13.138  14.705
70079SOL    HW112070   8.415  13.051  14.721
70079SOL    HW212071   8.366  13.142  14.610
70080SOL     OW12072   9.702  13.958  10.384
70080SOL    HW112073   9.616  13.968  10.343
70080SOL    HW212074   9.683  13.938  10.475
70081SOL     OW12075   7.787   4.290   2.288
70081SOL    HW112076   7.807   4.202   2.320
70081SOL    HW212077   7.701   4.281   2.245
70082SOL     OW12078   4.172   5.816   8.420
70082SOL    HW112079   4.129   5.894   8.385
70082SOL    HW212080   4.149   5.814   8.512
70083SOL     OW12081  14.551  13.488  10.864
70083SOL    HW112082  14.644  13.495  10.885
70083SOL    HW212083  14.507  13.522  10.942
70084SOL     OW12084  12.176   5.981   4.029
70084SOL    HW112085  12.126   6.053   3.991
70084SOL    HW212086  12.235   6.024   4.091
70085SOL     OW12087   8.135  14.158  13.568
70085SOL    HW112088   8.141  14.236  13.514
70085SOL    HW212089   8.195  14.175  13.641
70086SOL     OW12090   7.000   7.911   5.054
70086SOL    HW112091   6.920   7.865   5.031
70086SOL    HW212092   7.061   7.842   5.081
70087SOL     OW12093   2.784  10.517   5.076
70087SOL    HW112094   2.843  10.577   5.031
70087SOL    HW212095   2.741  10.469   5.005
70088SOL     OW12096  13.117  11.891   0.122
70088SOL    HW112097  13.112  11.833   0.047
70088SOL    HW212098  13.197  11.943   0.107
70089SOL     OW12099  13.713   4.519   3.630
70089SOL    HW112100  13.789   4.537   3.575
70089SOL    HW212101  13.643   4.573   3.592
70090SOL     OW12102   2.943   6.447  10.310
70090SOL    HW112103   3.037   6.431  10.300
70090SOL    HW212104   2.902   6.390  10.245
70091SOL     OW12105  13.178   6.331  13.051
70091SOL    HW112106  13.231   6.261  13.089
70091SOL    HW212107  13.096   6.329  13.100
70092SOL     OW12108   7.067   9.410  14.481
70092SOL    HW112109   7.137   9.351  14.510
70092SOL    HW212110   6.998   9.351  14.452
70093SOL     OW12111   4.944  14.589  10.681
70093SOL    HW112112   5.038  14.608  10.687
70093SOL    HW212113   4.905  14.670  10.650
70094SOL     OW12114   1.535   2.306   2.776
70094SOL    HW112115   1.469   2.271   2.836
70094SOL    HW212116   1.614   2.314   2.830
70095SOL     OW12117  12.542  11.457  12.844
70095SOL    HW112118  12.557  11.536  12.792
70095SOL    HW212119  12.513  11.490  12.929
70096SOL     OW12120  12.953   0.987  14.470
70096SOL    HW112121  12.904   1.022  14.396
70096SOL    HW212122  12.912   0.902  14.488
70097SOL     OW12123   6.571   1.107   9.845
70097SOL    HW112124   6.600   1.115   9.937
70097SOL    HW212125   6.613   1.027   9.814
70098SOL     OW12126   1.773   7.394   7.104
70098SOL    HW112127   1.849   7.337   7.095
70098SOL    HW212128   1.801   7.477   7.066
70099SOL     OW12129   6.795   0.302  13.379
70099SOL    HW112130   6.758   0.294  13.467
70099SOL    HW212131   6.774   0.218  13.337
70100SOL     OW12132   0.958   4.232  13.697
70100SOL    HW112133   1.021   4.244  13.768
70100SOL    HW212134   0.883   4.287  13.722
70101SOL     OW12135   2.523   3.046   6.732
70101SOL    HW112136   2.451   3.027   6.792
70101SOL    HW212137   2.566   3.123   6.769
70102SOL     OW12138   4.942   1.477   2.516
70102SOL    HW112139   4.846   1.476   2.519
70102SOL    HW212140   4.968   1.499   2.605
70103SOL     OW12141   1.131   3.697   2.776
70103SOL    HW112142   1.103   3.750   2.851
70103SOL    HW212143   1.223   3.676   2.794
70104SOL     OW12144  12.070   9.456  10.221
70104SOL    HW112145  12.055   9.368  10.185
70104SOL    HW212146  12.082   9.441  10.315
70105SOL     OW12147   1.586  13.451  10.809
70105SOL    HW112148   1.585  13.513  10.735
70105SOL    HW212149   1.498  13.415  10.812
70106SOL     OW12150   1.057   1.293   0.771
70106SOL    HW112151   1.085   1.254   0.854
70106SOL    HW212152   0.962   1.303   0.779
70107SOL     OW12153   3.250  11.098   5.228
70107SOL    HW112154   3.210  11.180   5.200
70107SOL    HW212155   3.341  11.120   5.249
70108SOL     OW12156   3.011   4.018   1.787
70108SOL    HW112157   3.072   4.089   1.807
70108SOL    HW212158   2.948   4.019   1.859
70109SOL     OW12159  13.332   7.587   5.627
70109SOL    HW112160  13.335   7.657   5.691
70109SOL    HW212161  13.250   7.601   5.579
70110SOL     OW12162   7.925   3.732   9.902
70110SOL    HW112163   8.005   3.773   9.937
70110SOL    HW212164   7.862   3.739   9.974
70111SOL     OW12165  10.510   2.696   3.098
70111SOL    HW112166  10.460   2.746   3.163
70111SOL    HW212167  10.555   2.629   3.149
70112SOL     OW12168  11.287   1.151   4.616
70112SOL    HW112169  11.267   1.243   4.601
70112SOL    HW212170  11.365   1.152   4.671
70113SOL     OW12171  10.438  10.773   5.022
70113SOL    HW112172  10.487  10.808   4.948
70113SOL    HW212173  10.401  10.850   5.065
70114SOL     OW12174   6.635   2.009   1.863
70114SOL    HW112175   6.639   2.083   1.923
70114SOL    HW212176   6.716   2.014   1.813
70115SOL     OW12177   3.232  11.652   7.626
70115SOL    HW112178   3.221  11.608   7.541
70115SOL    HW212179   3.324  11.677   7.628
70116SOL     OW12180   8.892  10.308   7.071
70116SOL    HW112181   8.863  10.347   6.989
70116SOL    HW212182   8.984  10.287   7.057
70117SOL     OW12183  13.815  14.441   1.684
70117SOL    HW112184  13.806  14.408   1.594
70117SOL    HW212185  13.861  14.371   1.731
70118SOL     OW12186   3.967  14.836   0.063
70118SOL    HW112187   3.889  14.864   0.015
70118SOL    HW212188   3.941  14.841   0.155
70119SOL     OW12189   4.855   4.643  12.505
70119SOL    HW112190   4.886   4.726  12.468
70119SOL    HW212191   4.779   4.667  12.558
70120SOL     OW12192   9.088  11.945   1.239
70120SOL    HW112193   9.054  12.034   1.235
70120SOL    HW212194   9.030  11.895   1.181
70121SOL     OW12195   0.639  12.194   0.057
70121SOL    HW112196   0.586  12.274   0.055
70121SOL    HW212197   0.577  12.123   0.043
70122SOL     OW12198   1.221   1.338   0.156
70122SOL    HW112199   1.257   1.419   0.192
70122SOL    HW212200   1.167   1.365   0.083
70123SOL     OW12201   6.200   1.073  14.442
70123SOL    HW112202   6.114   1.035  14.460
70123SOL    HW212203   6.187   1.127  14.364
70124SOL     OW12204   4.103   8.025   5.393
70124SOL    HW112205   4.011   8.042   5.414
70124SOL    HW212206   4.119   7.937   5.426
70125SOL     OW12207  14.692   7.606  11.076
70125SOL    HW112208  14.673   7.589  11.168
70125SOL    HW212209  14.638   7.682  11.053
70126SOL     OW12210   1.588   0.393  10.499
70126SOL    HW112211   1.647   0.318  10.494
70126SOL    HW212212   1.505   0.356  10.527
70127SOL     OW12213   0.363   9.660   9.505
70127SOL    HW112214   0.421   9.660   9.429
70127SOL    HW212215   0.275   9.671   9.469
70128SOL     OW12216  14.762   8.493   1.152
70128SOL    HW112217  14.840   8.437   1.150
70128SOL    HW212218  14.777   8.552   1.226
70129SOL     OW12219   4.636   7.892  11.277
70129SOL    HW112220   4.566   7.938  11.230
70129SOL    HW212221   4.654   7.948  11.353
70130SOL     OW12222   9.405   0.521  10.334
70130SOL    HW112223   9.455   0.513  10.415
70130SOL    HW212224   9.322   0.476  10.352
70131SOL     OW12225   8.664  14.636   7.780
70131SOL    HW112226   8.603  14.708   7.798
70131SOL    HW212227   8.750  14.670   7.805
70132SOL     OW12228   7.800   3.776   7.816
70132SOL    HW112229   7.740   3.784   7.741
70132SOL    HW212230   7.860   3.850   7.806
70133SOL     OW12231  10.691  10.784   3.561
70133SOL    HW112232  10.669  10.697   3.528
70133SOL    HW212233  10.622  10.841   3.527
70134SOL     OW12234  10.090   6.614  12.016
70134SOL    HW112235  10.181   6.645  12.016
70134SOL    HW212236  10.096   6.524  11.983
70135SOL     OW12237   8.121   9.004   8.196
70135SOL    HW112238   8.119   8.909   8.194
70135SOL    HW212239   8.181   9.029   8.126
70136SOL     OW12240   8.381   9.065   9.217
70136SOL    HW112241   8.343   9.058   9.304
70136SOL    HW212242   8.336   9.139   9.177
70137SOL     OW12243   8.568  10.838   8.095
70137SOL    HW112244   8.657  10.869   8.083
70137SOL    HW212245   8.535  10.889   8.170
70138SOL     OW12246   3.598   8.339   7.299
70138SOL    HW112247   3.571   8.427   7.327
70138SOL    HW212248   3.694   8.341   7.305
70139SOL     OW12249  12.950   3.567   1.870
70139SOL    HW112250  12.954   3.483   1.915
70139SOL    HW212251  12.986   3.549   1.783
70140SOL     OW12252   6.225   4.723  14.450
70140SOL    HW112253   6.250   4.813  14.431
70140SOL    HW212254   6.210   4.722  14.545
70141SOL     OW12255   4.038  10.127   9.306
70141SOL    HW112256   4.010  10.037   9.323
70141SOL    HW212257   4.037  10.170   9.391
70142SOL     OW12258   0.546  13.268   7.211
70142SOL    HW112259   0.567  13.298   7.123
70142SOL    HW212260   0.569  13.175   7.212
70143SOL     OW12261   8.046  13.126   7.077
70143SOL    HW112262   8.103  13.052   7.095
70143SOL    HW212263   7.963  13.086   7.049
70144SOL     OW12264   9.444   9.679   8.812
70144SOL    HW112265   9.460   9.759   8.863
70144SOL    HW212266   9.353   9.687   8.785
70145SOL     OW12267   2.500   0.633  13.101
70145SOL    HW112268   2.558   0.708  13.114
70145SOL    HW212269   2.414   0.664  13.131
70146SOL     OW12270   0.821   3.365  12.717
70146SOL    HW112271   0.912   3.393  12.717
70146SOL    HW212272   0.780   3.415  12.788
70147SOL     OW12273   2.647  10.374   8.541
70147SOL    HW112274   2.565  10.400   8.499
70147SOL    HW212275   2.621  10.310   8.608
70148SOL     OW12276   8.306  10.785   5.310
70148SOL    HW112277   8.284  10.712   5.368
70148SOL    HW212278   8.285  10.754   5.222
70149SOL     OW12279   3.454   7.802   0.076
70149SOL    HW112280   3.402   7.870   0.120
70149SOL    HW212281   3.393   7.763   0.014
70150SOL     OW12282   6.932   5.554   4.937
70150SOL    HW112283   6.950   5.646   4.921
70150SOL    HW212284   6.843   5.552   4.971
70151SOL     OW12285  10.322   9.306   2.446
70151SOL    HW112286  10.236   9.308   2.404
70151SOL    HW212287  10.338   9.397   2.471
70152SOL     OW12288  10.956   4.233   1.592
70152SOL    HW112289  10.911   4.170   1.536
70152SOL    HW212290  10.944   4.197   1.681
70153SOL     OW12291  11.034  13.592   8.621
70153SOL    HW112292  11.070  13.569   8.706
70153SOL    HW212293  10.958  13.536   8.610
70154SOL     OW12294   6.675   8.863   6.159
70154SOL    HW112295   6.605   8.859   6.094
70154SOL    HW212296   6.683   8.956   6.180
70155SOL     OW12297  12.359  11.676   5.577
70155SOL    HW112298  12.373  11.582   5.591
70155SOL    HW212299  12.292  11.680   5.508
70156SOL     OW12300  10.746   0.227   6.102
70156SOL    HW112301  10.663   0.230   6.150
70156SOL    HW212302  10.720   0.219   6.010
70157SOL     OW12303   6.192   6.705  10.913
70157SOL    HW112304   6.164   6.770  10.849
70157SOL    HW212305   6.227   6.757  10.986
70158SOL     OW12306  12.172   3.016  11.261
70158SOL    HW112307  12.166   2.948  11.193
70158SOL    HW212308  12.172   3.098  11.213
70159SOL     OW12309  11.668  11.635  14.776
70159SOL    HW112310  11.729  11.561  14.768
70159SOL    HW212311  11.614  11.614  14.852
70160SOL     OW12312   9.809  12.200   9.705
70160SOL    HW112313   9.890  12.251   9.696
70160SOL    HW212314   9.811  12.168   9.795
70161SOL     OW12315   6.153   0.675  10.921
70161SOL    HW112316   6.175   0.724  10.841
70161SOL    HW212317   6.072   0.715  10.952
70162SOL     OW12318   0.437   9.182  12.872
70162SOL    HW112319   0.391   9.264  12.855
70162SOL    HW212320   0.505   9.178  12.804
70163SOL     OW12321   3.191  13.815   5.786
70163SOL    HW112322   3.102  13.847   5.806
70163SOL    HW212323   3.190  13.724   5.814
70164SOL     OW12324   1.953  12.048   8.029
70164SOL    HW112325   1.868  12.073   8.064
70164SOL    HW212326   2.009  12.124   8.043
70165SOL     OW12327  14.642   5.415  14.808
70165SOL    HW112328  14.694   5.336  14.794
70165SOL    HW212329  14.624   5.416   0.029
70166SOL     OW12330   6.611   3.662  13.625
70166SOL    HW112331   6.673   3.621  13.565
70166SOL    HW212332   6.664   3.693  13.698
70167SOL     OW12333  14.155   1.691   5.285
70167SOL    HW112334  14.089   1.680   5.354
70167SOL    HW212335  14.194   1.776   5.304
70168SOL     OW12336   1.858  13.928   2.357
70168SOL    HW112337   1.769  13.894   2.355
70168SOL    HW212338   1.905  13.877   2.291
70169SOL     OW12339  12.712  13.042  14.154
70169SOL    HW112340  12.651  13.099  14.107
70169SOL    HW212341  12.798  13.064  14.120
70170SOL     OW12342   8.741  10.298  10.916
70170SOL    HW112343   8.702  10.352  10.847
70170SOL    HW212344   8.698  10.212  10.906
70171SOL     OW12345  10.460   0.630   9.655
70171SOL    HW112346  10.536   0.671   9.614
70171SOL    HW212347  10.431   0.694   9.720
70172SOL     OW12348   3.622   0.394   3.600
70172SOL    HW112349   3.608   0.488   3.589
70172SOL    HW212350   3.681   0.371   3.528
70173SOL     OW12351   9.040  14.816  13.027
70173SOL    HW112352   9.009   0.019  12.976
70173SOL    HW212353   8.972  14.802  13.093
70174SOL     OW12354   8.573  12.164  11.606
70174SOL    HW112355   8.652  12.110  11.607
70174SOL    HW212356   8.526  12.139  11.686
70175SOL     OW12357  14.623   5.352  10.326
70175SOL    HW112358  14.706   5.400  10.321
70175SOL    HW212359  14.642   5.279  10.385
70176SOL     OW12360  11.227  14.029  13.946
70176SOL    HW112361  11.295  14.089  13.914
70176SOL    HW212362  11.216  13.966  13.875
70177SOL     OW12363   8.236   0.128   5.622
70177SOL    HW112364   8.147   0.149   5.652
70177SOL    HW212365   8.286   0.208   5.636
70178SOL     OW12366   4.722   2.041   0.741
70178SOL    HW112367   4.810   2.043   0.704
70178SOL    HW212368   4.664   2.056   0.666
70179SOL     OW12369   7.428  14.381   7.704
70179SOL    HW112370   7.338  14.375   7.671
70179SOL    HW212371   7.429  14.459   7.759
70180SOL     OW12372   1.665  13.957  13.371
70180SOL    HW112373   1.738  14.014  13.344
70180SOL    HW212374   1.707  13.876  13.400
70181SOL     OW12375   8.301  13.655   8.662
70181SOL    HW112376   8.244  13.696   8.597
70181SOL    HW212377   8.255  13.575   8.688
70182SOL     OW12378  11.193   2.567   2.831
70182SOL    HW112379  11.240   2.619   2.895
70182SOL    HW212380  11.133   2.513   2.883
70183SOL     OW12381   1.561   9.321   7.375
70183SOL    HW112382   1.645   9.366   7.377
70183SOL    HW212383   1.578   9.235   7.414
70184SOL     OW12384   6.881  14.835   7.114
70184SOL    HW112385   6.803  14.790   7.146
70184SOL    HW212386   6.954  14.786   7.152
70185SOL     OW12387  13.162   5.432  11.449
70185SOL    HW112388  13.119   5.362  11.497
70185SOL    HW212389  13.213   5.479  11.515
70186SOL     OW12390   3.585   4.212  10.633
70186SOL    HW112391   3.666   4.165  10.655
70186SOL    HW212392   3.584   4.215  10.537
70187SOL     OW12393   5.305  13.966   2.412
70187SOL    HW112394   5.315  13.884   2.363
70187SOL    HW212395   5.273  14.029   2.347
70188SOL     OW12396  11.744  13.561   6.344
70188SOL    HW112397  11.802  13.636   6.358
70188SOL    HW212398  11.656  13.595   6.358
70189SOL     OW12399  11.008   9.147  11.770
70189SOL    HW112400  11.076   9.132  11.704
70189SOL    HW212401  10.928   9.113  11.730
70190SOL     OW12402  13.232  13.753  13.083
70190SOL    HW112403  13.224  13.789  13.171
70190SOL    HW212404  13.146  13.767  13.043
70191SOL     OW12405  14.717   4.683   3.589
70191SOL    HW112406  14.659   4.628   3.641
70191SOL    HW212407  14.696   4.773   3.615
70192SOL     OW12408  13.865   0.285  13.591
70192SOL    HW112409  13.843   0.330  13.509
70192SOL    HW212410  13.857   0.353  13.658
70193SOL     OW12411   7.509   1.227   8.974
70193SOL    HW112412   7.418   1.255   8.969
70193SOL    HW212413   7.559   1.305   8.948
70194SOL     OW12414  10.720   1.228   0.787
70194SOL    HW112415  10.780   1.294   0.751
70194SOL    HW212416  10.721   1.157   0.723
70195SOL     OW12417  13.361   8.964  10.349
70195SOL    HW112418  13.375   8.965  10.254
70195SOL    HW212419  13.420   8.896  10.382
70196SOL     OW12420   9.910  10.661  14.580
70196SOL    HW112421   9.929  10.744  14.623
70196SOL    HW212422   9.889  10.685  14.490
70197SOL     OW12423   8.076  13.363   6.052
70197SOL    HW112424   8.031  13.298   5.999
70197SOL    HW212425   8.007  13.403   6.105
70198SOL     OW12426  13.756   9.644   0.228
70198SOL    HW112427  13.810   9.638   0.149
70198SOL    HW212428  13.777   9.565   0.277
70199SOL     OW12429  12.517   2.007   0.182
70199SOL    HW112430  12.457   1.979   0.113
70199SOL    HW212431  12.461   2.015   0.260
70200SOL     OW12432   4.803   7.452   9.600
70200SOL    HW112433   4.775   7.375   9.650
70200SOL    HW212434   4.858   7.417   9.530
70201SOL     OW12435   5.035  13.855   5.591
70201SOL    HW112436   4.988  13.806   5.658
70201SOL    HW212437   4.999  13.824   5.508
70202SOL     OW12438   0.179   9.774   0.460
70202SOL    HW112439   0.127   9.851   0.484
70202SOL    HW212440   0.267   9.793   0.495
70203SOL     OW12441   2.230   0.970   9.940
70203SOL    HW112442   2.192   1.004  10.021
70203SOL    HW212443   2.285   0.897   9.968
70204SOL     OW12444   1.886   9.812   8.363
70204SOL    HW112445   1.978   9.785   8.365
70204SOL    HW212446   1.887   9.900   8.402
70205SOL     OW12447   2.525  12.906   4.847
70205SOL    HW112448   2.519  12.875   4.937
70205SOL    HW212449   2.437  12.937   4.827
70206SOL     OW12450  10.896  10.578   8.349
70206SOL    HW112451  10.889  10.489   8.384
70206SOL    HW212452  10.837  10.629   8.404
70207SOL     OW12453   8.321  14.315   5.485
70207SOL    HW112454   8.339  14.407   5.468
70207SOL    HW212455   8.403  14.281   5.521
70208SOL     OW12456   4.016  14.371   7.341
70208SOL    HW112457   3.929  14.408   7.327
70208SOL    HW212458   4.076  14.436   7.306
70209SOL     OW12459   0.505   7.941   2.122
70209SOL    HW112460   0.533   7.881   2.192
70209SOL    HW212461   0.508   8.028   2.163
70210SOL     OW12462   4.782  11.721   1.941
70210SOL    HW112463   4.830  11.785   1.889
70210SOL    HW212464   4.699  11.764   1.963
70211SOL     OW12465   8.978   4.336   1.265
70211SOL    HW112466   9.029   4.343   1.184
70211SOL    HW212467   8.937   4.250   1.259
70212SOL     OW12468   8.421   3.757  12.880
70212SOL    HW112469   8.482   3.815  12.927
70212SOL    HW212470   8.335   3.784  12.909
70213SOL     OW12471   6.193   1.563   4.224
70213SOL    HW112472   6.166   1.481   4.264
70213SOL    HW212473   6.274   1.586   4.268
70214SOL     OW12474   8.039   3.551   9.048
70214SOL    HW112475   8.057   3.644   9.033
70214SOL    HW212476   8.110   3.505   9.002
70215SOL     OW12477   5.525   8.557   2.790
70215SOL    HW112478   5.483   8.636   2.756
70215SOL    HW212479   5.573   8.588   2.868
70216SOL     OW12480   8.947  13.547  10.627
70216SOL    HW112481   9.032  13.560  10.584
70216SOL    HW212482   8.955  13.597  10.709
70217SOL     OW12483   0.694   5.904   0.219
70217SOL    HW112484   0.767   5.918   0.279
70217SOL    HW212485   0.624   5.961   0.251
70218SOL     OW12486   3.416  12.975   3.305
70218SOL    HW112487   3.374  12.982   3.219
70218SOL    HW212488   3.397  12.886   3.333
70219SOL     OW12489   7.967   7.645  11.792
70219SOL    HW112490   8.059   7.661  11.771
70219SOL    HW212491   7.920   7.665  11.711
70220SOL     OW12492   7.367   9.310   6.378
70220SOL    HW112493   7.382   9.322   6.284
70220SOL    HW212494   7.278   9.275   6.383
70221SOL     OW12495   7.534   1.435  13.289
70221SOL    HW112496   7.528   1.463  13.381
70221SOL    HW212497   7.621   1.462  13.262
70222SOL     OW12498  11.651  12.998   0.416
70222SOL    HW112499  11.736  13.001   0.373
70222SOL    HW212500  11.671  12.998   0.509
70223SOL     OW12501   8.147   9.138   1.039
70223SOL    HW112502   8.117   9.048   1.043
70223SOL    HW212503   8.082   9.183   0.985
70224SOL     OW12504  11.931   6.316  14.064
70224SOL    HW112505  11.957   6.231  14.029
70224SOL    HW212506  12.012   6.368  14.064
70225SOL     OW12507   1.258   7.771   4.424
70225SOL    HW112508   1.224   7.691   4.464
70225SOL    HW212509   1.338   7.743   4.380
70226SOL     OW12510  14.642   1.869  11.370
70226SOL    HW112511  14.616   1.828  11.453
70226SOL    HW212512  14.642   1.963  11.389
70227SOL     OW12513  14.337   7.931   2.033
70227SOL    HW112514  14.247   7.923   2.063
70227SOL    HW212515  14.386   7.866   2.084
70228SOL     OW12516  10.890  10.791   0.381
70228SOL    HW112517  10.922  10.720   0.436
70228SOL    HW212518  10.878  10.751   0.294
70229SOL     OW12519  12.043  14.224   2.594
70229SOL    HW112520  12.056  14.313   2.562
70229SOL    HW212521  12.080  14.224   2.682
70230SOL     OW12522  12.610   9.348  11.299
70230SOL    HW112523  12.612   9.443  11.291
70230SOL    HW212524  12.658   9.316  11.224
70231SOL     OW12525   8.608  13.211   8.192
70231SOL    HW112526   8.632  13.274   8.124
70231SOL    HW212527   8.687  13.201   8.245
70232SOL     OW12528  11.989   1.723   5.742
70232SOL    HW112529  12.062   1.696   5.685
70232SOL    HW212530  11.955   1.640   5.776
70233SOL     OW12531   3.536   2.489   4.359
70233SOL    HW112532   3.576   2.573   4.341
70233SOL    HW212533   3.444   2.509   4.378
70234SOL     OW12534   5.513   4.996   7.114
70234SOL    HW112535   5.481   4.962   7.198
70234SOL    HW212536   5.606   5.013   7.129
70235SOL     OW12537  12.417   0.802  10.658
70235SOL    HW112538  12.419   0.860  10.734
70235SOL    HW212539  12.357   0.732  10.683
70236SOL     OW12540   3.295   5.588   6.579
70236SOL    HW112541   3.287   5.664   6.522
70236SOL    HW212542   3.249   5.613   6.659
70237SOL     OW12543  13.458   4.831  13.629
70237SOL    HW112544  13.413   4.767  13.574
70237SOL    HW212545  13.548   4.799  13.633
70238SOL     OW12546   8.185   1.801   1.305
70238SOL    HW112547   8.171   1.737   1.236
70238SOL    HW212548   8.243   1.867   1.267
70239SOL     OW12549  14.647   8.383  14.855
70239SOL    HW112550  14.683   8.468  14.831
70239SOL    HW212551  14.710   8.319  14.822
70240SOL     OW12552   0.649   2.511   1.912
70240SOL    HW112553   0.610   2.434   1.870
70240SOL    HW212554   0.717   2.476   1.969
70241SOL     OW12555   2.570  14.083   4.699
70241SOL    HW112556   2.600  14.144   4.767
70241SOL    HW212557   2.591  13.996   4.734
70242SOL     OW12558   6.259   7.298   1.293
70242SOL    HW112559   6.306   7.382   1.297
70242SOL    HW212560   6.262   7.274   1.200
70243SOL     OW12561  13.896   4.960   0.945
70243SOL    HW112562  13.893   4.926   0.856
70243SOL    HW212563  13.923   5.051   0.936
70244SOL     OW12564  10.685   5.347   8.142
70244SOL    HW112565  10.644   5.379   8.061
70244SOL    HW212566  10.628   5.381   8.212
70245SOL     OW12567   6.953   1.713  13.055
70245SOL    HW112568   6.973   1.736  12.964
70245SOL    HW212569   6.857   1.712  13.058
70246SOL     OW12570   3.965   2.067   0.838
70246SOL    HW112571   3.973   2.160   0.818
70246SOL    HW212572   4.035   2.050   0.902
70247SOL     OW12573   7.874   2.637   8.554
70247SOL    HW112574   7.917   2.643   8.639
70247SOL    HW212575   7.928   2.691   8.496
70248SOL     OW12576   1.131   5.509  14.689
70248SOL    HW112577   1.043   5.535  14.715
70248SOL    HW212578   1.152   5.565  14.615
70249SOL     OW12579  14.632  13.926   3.349
70249SOL    HW112580  14.586  13.973   3.279
70249SOL    HW212581  14.628  13.985   3.424
70250SOL     OW12582   9.152  14.160   8.246
70250SOL    HW112583   9.192  14.120   8.323
70250SOL    HW212584   9.181  14.251   8.248
70251SOL     OW12585   2.395   5.889   8.467
70251SOL    HW112586   2.432   5.835   8.537
70251SOL    HW212587   2.323   5.937   8.508
70252SOL     OW12588   3.477   7.416  12.379
70252SOL    HW112589   3.392   7.454  12.356
70252SOL    HW212590   3.540   7.463  12.324
70253SOL     OW12591  14.152  13.351   0.867
70253SOL    HW112592  14.091  13.425   0.869
70253SOL    HW212593  14.212  13.370   0.795
70254SOL     OW12594   0.421   3.514   9.432
70254SOL    HW112595   0.434   3.602   9.397
70254SOL    HW212596   0.468   3.514   9.515
70255SOL     OW12597   6.889   3.735   9.212
70255SOL    HW112598   6.832   3.670   9.254
70255SOL    HW212599   6.939   3.685   9.148
70256SOL     OW12600  14.361  11.282   1.075
70256SOL    HW112601  14.407  11.339   1.013
70256SOL    HW212602  14.389  11.194   1.053
70257SOL     OW12603   4.527   0.630   7.011
70257SOL    HW112604   4.450   0.573   7.011
70257SOL    HW212605   4.535   0.660   6.920
70258SOL     OW12606   5.521   3.855   2.709
70258SOL    HW112607   5.500   3.856   2.616
70258SOL    HW212608   5.509   3.764   2.736
70259SOL     OW12609   4.412   9.418  12.310
70259SOL    HW112610   4.424   9.375  12.226
70259SOL    HW212611   4.389   9.347  12.370
70260SOL     OW12612  13.427  13.634   0.993
70260SOL    HW112613  13.333  13.646   0.980
70260SOL    HW212614  13.433  13.589   1.077
70261SOL     OW12615  10.702   5.065  10.741
70261SOL    HW112616  10.650   4.988  10.763
70261SOL    HW212617  10.691   5.075  10.647
70262SOL     OW12618   7.068  11.290   5.552
70262SOL    HW112619   7.001  11.316   5.489
70262SOL    HW212620   7.019  11.267   5.631
70263SOL     OW12621   0.388  11.281  14.643
70263SOL    HW112622   0.407  11.239  14.727
70263SOL    HW212623   0.456  11.250  14.584
70264SOL     OW12624   5.854   6.264   2.731
70264SOL    HW112625   5.835   6.338   2.788
70264SOL    HW212626   5.777   6.255   2.675
70265SOL     OW12627   2.190   7.077   3.462
70265SOL    HW112628   2.199   7.121   3.377
70265SOL    HW212629   2.095   7.068   3.474
70266SOL     OW12630   7.493   9.606   0.639
70266SOL    HW112631   7.573   9.600   0.587
70266SOL    HW212632   7.521   9.643   0.722
70267SOL     OW12633   4.185  11.115  10.022
70267SOL    HW112634   4.194  11.052  10.093
70267SOL    HW212635   4.094  11.105   9.993
70268SOL     OW12636  14.863   5.507   3.797
70268SOL    HW112637   0.068   5.488   3.744
70268SOL    HW212638  14.798   5.537   3.734
70269SOL     OW12639   7.586  11.393   6.005
70269SOL    HW112640   7.611  11.440   5.926
70269SOL    HW212641   7.554  11.462   6.064
70270SOL     OW12642   1.755   1.102   0.280
70270SOL    HW112643   1.732   1.176   0.224
70270SOL    HW212644   1.671   1.072   0.316
70271SOL     OW12645  13.377   9.969  14.670
70271SOL    HW112646  13.402  10.060  14.686
70271SOL    HW212647  13.434   9.918  14.728
70272SOL     OW12648   8.161   4.970  12.703
70272SOL    HW112649   8.189   5.061  12.693
70272SOL    HW212650   8.116   4.950  12.620
70273SOL     OW12651   4.564   4.469  10.733
70273SOL    HW112652   4.537   4.428  10.651
70273SOL    HW212653   4.519   4.418  10.801
70274SOL     OW12654  13.124   1.697   6.670
70274SOL    HW112655  13.217   1.706   6.650
70274SOL    HW212656  13.080   1.705   6.585
70275SOL     OW12657   7.222   3.303  11.611
70275SOL    HW112658   7.197   3.260  11.529
70275SOL    HW212659   7.170   3.383  11.613
70276SOL     OW12660   6.859  10.161  10.526
70276SOL    HW112661   6.874  10.107  10.448
70276SOL    HW212662   6.772  10.198  10.512
70277SOL     OW12663  14.682   3.932   1.409
70277SOL    HW112664  14.708   4.005   1.352
70277SOL    HW212665  14.630   3.973   1.478
70278SOL     OW12666   7.692   8.203   7.396
70278SOL    HW112667   7.705   8.149   7.318
70278SOL    HW212668   7.601   8.185   7.421
70279SOL     OW12669  12.504   9.407   9.246
70279SOL    HW112670  12.595   9.394   9.273
70279SOL    HW212671  12.475   9.320   9.216
70280SOL     OW12672   2.985   7.733   5.228
70280SOL    HW112673   3.007   7.802   5.166
70280SOL    HW212674   3.033   7.756   5.308
70281SOL     OW12675  11.446   8.074   6.553
70281SOL    HW112676  11.375   8.010   6.552
70281SOL    HW212677  11.409   8.151   6.508
70282SOL     OW12678   5.843  11.337   0.401
70282SOL    HW112679   5.832  11.272   0.332
70282SOL    HW212680   5.846  11.421   0.355
70283SOL     OW12681   8.953  14.342  13.573
70283SOL    HW112682   8.973  14.296  13.491
70283SOL    HW212683   8.934  14.432  13.546
70284SOL     OW12684  14.009  13.202   6.967
70284SOL    HW112685  14.084  13.251   7.000
70284SOL    HW212686  13.934  13.260   6.980
70285SOL     OW12687  12.603   8.115   9.654
70285SOL    HW112688  12.554   8.149   9.729
70285SOL    HW212689  12.576   8.170   9.581
70286SOL     OW12690   3.539   7.786   1.973
70286SOL    HW112691   3.614   7.837   2.003
70286SOL    HW212692   3.515   7.826   1.889
70287SOL     OW12693   0.812   6.813   7.017
70287SOL    HW112694   0.779   6.740   7.069
70287SOL    HW212695   0.907   6.803   7.019
70288SOL     OW12696   7.601  14.841  11.605
70288SOL    HW112697   7.634  14.822  11.517
70288SOL    HW212698   7.517   0.012  11.590
70289SOL     OW12699  11.487  14.682   5.065
70289SOL    HW112700  11.498  14.587   5.060
70289SOL    HW212701  11.410  14.695   5.121
70290SOL     OW12702   9.184   2.770   3.691
70290SOL    HW112703   9.260   2.762   3.634
70290SOL    HW212704   9.221   2.776   3.779
70291SOL     OW12705  12.623  11.283   1.063
70291SOL    HW112706  12.598  11.373   1.044
70291SOL    HW212707  12.671  11.287   1.146
70292SOL     OW12708   6.735  14.042   8.970
70292SOL    HW112709   6.675  13.968   8.984
70292SOL    HW212710   6.678  14.113   8.941
70293SOL     OW12711   3.914  12.816   2.276
70293SOL    HW112712   3.919  12.911   2.274
70293SOL    HW212713   3.893  12.791   2.186
70294SOL     OW12714   0.266   1.397   1.647
70294SOL    HW112715   0.211   1.349   1.709
70294SOL    HW212716   0.256   1.489   1.672
70295SOL     OW12717   3.587   9.331  13.263
70295SOL    HW112718   3.682   9.340  13.273
70295SOL    HW212719   3.551   9.352  13.349
70296SOL     OW12720   0.306   8.190  11.090
70296SOL    HW112721   0.350   8.113  11.052
70296SOL    HW212722   0.366   8.262  11.073
70297SOL     OW12723   2.198  13.803   1.337
70297SOL    HW112724   2.223  13.834   1.424
70297SOL    HW212725   2.267  13.837   1.279
70298SOL     OW12726   9.539   7.468   2.196
70298SOL    HW112727   9.576   7.552   2.170
70298SOL    HW212728   9.460   7.459   2.143
70299SOL     OW12729  13.785   1.563  11.789
70299SOL    HW112730  13.730   1.485  11.787
70299SOL    HW212731  13.875   1.529  11.791
70300SOL     OW12732  14.592   0.272   7.998
70300SOL    HW112733  14.628   0.200   7.946
70300SOL    HW212734  14.542   0.324   7.935
70301SOL     OW12735   3.276   0.517  10.245
70301SOL    HW112736   3.300   0.587  10.306
70301SOL    HW212737   3.245   0.563  10.167
70302SOL     OW12738   5.129   5.181   7.093
70302SOL    HW112739   5.053   5.166   7.038
70302SOL    HW212740   5.123   5.113   7.161
70303SOL     OW12741  10.146  13.431   8.611
70303SOL    HW112742  10.215  13.387   8.660
70303SOL    HW212743  10.080  13.452   8.677
70304SOL     OW12744   1.496  13.361   9.400
70304SOL    HW112745   1.517  13.307   9.477
70304SOL    HW212746   1.553  13.328   9.331
70305SOL     OW12747   0.126   1.069  11.020
70305SOL    HW112748   0.036   1.096  11.001
70305SOL    HW212749   0.125   1.050  11.114
70306SOL     OW12750  14.076  14.763   6.585
70306SOL    HW112751  14.002  14.809   6.624
70306SOL    HW212752  14.132  14.832   6.550
70307SOL     OW12753  11.416   9.704   7.127
70307SOL    HW112754  11.495   9.748   7.098
70307SOL    HW212755  11.373   9.767   7.185
70308SOL     OW12756  12.402  10.526   1.980
70308SOL    HW112757  12.494  10.552   1.978
70308SOL    HW212758  12.355  10.602   2.013
70309SOL     OW12759   5.011   5.798  11.047
70309SOL    HW112760   5.034   5.863  11.113
70309SOL    HW212761   5.037   5.714  11.085
70310SOL     OW12762   2.252  14.462   5.990
70310SOL    HW112763   2.246  14.488   5.898
70310SOL    HW212764   2.233  14.542   6.039
70311SOL     OW12765   1.566  12.269   1.963
70311SOL    HW112766   1.607  12.284   1.877
70311SOL    HW212767   1.495  12.208   1.945
70312SOL     OW12768   2.596   0.560  13.583
70312SOL    HW112769   2.557   0.613  13.653
70312SOL    HW212770   2.571   0.607  13.502
70313SOL     OW12771   6.509   3.523  12.317
70313SOL    HW112772   6.536   3.613  12.331
70313SOL    HW212773   6.493   3.517  12.223
70314SOL     OW12774  10.013   1.277   5.670
70314SOL    HW112775  10.055   1.278   5.756
70314SOL    HW212776  10.038   1.192   5.632
70315SOL     OW12777   6.680  13.249   8.230
70315SOL    HW112778   6.712  13.324   8.280
70315SOL    HW212779   6.645  13.287   8.149
70316SOL     OW12780   9.148   5.437  10.005
70316SOL    HW112781   9.169   5.484   9.924
70316SOL    HW212782   9.145   5.504  10.072
70317SOL     OW12783   6.372  13.856  13.710
70317SOL    HW112784   6.416  13.939  13.731
70317SOL    HW212785   6.439  13.806  13.662
70318SOL     OW12786   5.885   1.665   0.347
70318SOL    HW112787   5.965   1.612   0.355
70318SOL    HW212788   5.863   1.661   0.254
70319SOL     OW12789   0.826   9.564   9.947
70319SOL    HW112790   0.740   9.525   9.932
70319SOL    HW212791   0.885   9.515   9.889
70320SOL     OW12792  11.813   5.362   4.105
70320SOL    HW112793  11.844   5.300   4.040
70320SOL    HW212794  11.874   5.436   4.099
70321SOL     OW12795   1.091   6.775   7.277
70321SOL    HW112796   1.109   6.747   7.187
70321SOL    HW212797   1.095   6.871   7.273
70322SOL     OW12798   2.134   7.059   0.133
70322SOL    HW112799   2.039   7.075   0.131
70322SOL    HW212800   2.163   7.076   0.044
70323SOL     OW12801   9.880   9.241  12.205
70323SOL    HW112802   9.881   9.336  12.213
70323SOL    HW212803   9.798   9.221  12.161
70324SOL     OW12804  11.467   2.976  11.662
70324SOL    HW112805  11.487   2.973  11.568
70324SOL    HW212806  11.432   2.889  11.681
70325SOL     OW12807   1.431   7.750   6.814
70325SOL    HW112808   1.411   7.671   6.864
70325SOL    HW212809   1.511   7.729   6.767
70326SOL     OW12810   8.668  13.631   5.821
70326SOL    HW112811   8.662  13.547   5.776
70326SOL    HW212812   8.638  13.612   5.910
70327SOL     OW12813   8.735   9.318  14.585
70327SOL    HW112814   8.655   9.370  14.594
70327SOL    HW212815   8.771   9.313  14.674
70328SOL     OW12816  10.713  13.316  14.520
70328SOL    HW112817  10.668  13.249  14.570
70328SOL    HW212818  10.799  13.324  14.561
70329SOL     OW12819   2.416   1.866   9.186
70329SOL    HW112820   2.378   1.811   9.117
70329SOL    HW212821   2.496   1.902   9.147
70330SOL     OW12822   8.977   2.952   0.387
70330SOL    HW112823   9.019   2.873   0.423
70330SOL    HW212824   9.050   3.004   0.354
70331SOL     OW12825  12.300   9.691   1.874
70331SOL    HW112826  12.338   9.644   1.948
70331SOL    HW212827  12.210   9.658   1.868
70332SOL     OW12828  11.646   8.107   8.304
70332SOL    HW112829  11.642   8.031   8.246
70332SOL    HW212830  11.583   8.087   8.373
70333SOL     OW12831   8.291  11.325   7.142
70333SOL    HW112832   8.273  11.276   7.222
70333SOL    HW212833   8.208  11.326   7.095
70334SOL     OW12834   4.162   2.617  12.704
70334SOL    HW112835   4.255   2.600  12.690
70334SOL    HW212836   4.134   2.665  12.626
70335SOL     OW12837   9.474   0.737   5.929
70335SOL    HW112838   9.469   0.832   5.912
70335SOL    HW212839   9.410   0.722   5.998
70336SOL     OW12840  10.855   6.301   9.037
70336SOL    HW112841  10.786   6.243   9.005
70336SOL    HW212842  10.926   6.290   8.974
70337SOL     OW12843  10.269   6.110   4.364
70337SOL    HW112844  10.218   6.091   4.285
70337SOL    HW212845  10.273   6.027   4.411
70338SOL     OW12846   3.546  13.603  11.913
70338SOL    HW112847   3.518  13.694  11.923
70338SOL    HW212848   3.634  13.609  11.878
70339SOL     OW12849   6.637  14.115   0.198
70339SOL    HW112850   6.553  14.070   0.184
70339SOL    HW212851   6.625  14.161   0.281
70340SOL     OW12852   6.915   7.086   7.448
70340SOL    HW112853   6.990   7.095   7.389
70340SOL    HW212854   6.948   7.033   7.520
70341SOL     OW12855   6.257   5.652  10.490
70341SOL    HW112856   6.330   5.714  10.496
70341SOL    HW212857   6.187   5.702  10.447
70342SOL     OW12858   6.653  14.435   2.174
70342SOL    HW112859   6.614  14.384   2.245
70342SOL    HW212860   6.595  14.511   2.164
70343SOL     OW12861   0.742  14.702  11.909
70343SOL    HW112862   0.784  14.785  11.884
70343SOL    HW212863   0.667  14.729  11.963
70344SOL     OW12864   2.729  14.685  13.520
70344SOL    HW112865   2.789  14.721  13.585
70344SOL    HW212866   2.758  14.595  13.508
70345SOL     OW12867   4.494  14.037   9.039
70345SOL    HW112868   4.546  14.094   9.095
70345SOL    HW212869   4.403  14.059   9.061
70346SOL     OW12870  11.123   9.066   9.560
70346SOL    HW112871  11.137   8.972   9.553
70346SOL    HW212872  11.044   9.075   9.613
70347SOL     OW12873   4.747   0.175   6.788
70347SOL    HW112874   4.704   0.259   6.804
70347SOL    HW212875   4.838   0.198   6.767
70348SOL     OW12876   6.828  12.739   8.605
70348SOL    HW112877   6.768  12.792   8.658
70348SOL    HW212878   6.778  12.660   8.585
70349SOL     OW12879  12.095   6.948  12.978
70349SOL    HW112880  12.136   7.001  13.047
70349SOL    HW212881  12.062   7.011  12.915
70350SOL     OW12882   3.548  12.457   5.630
70350SOL    HW112883   3.643  12.455   5.640
70350SOL    HW212884   3.535  12.472   5.536
70351SOL     OW12885  12.568   8.314   2.988
70351SOL    HW112886  12.570   8.265   2.906
70351SOL    HW212887  12.590   8.249   3.055
70352SOL     OW12888   0.588   1.776   1.135
70352SOL    HW112889   0.576   1.870   1.142
70352SOL    HW212890   0.679   1.762   1.163
70353SOL     OW12891  13.703   8.392  12.311
70353SOL    HW112892  13.628   8.434  12.270
70353SOL    HW212893  13.691   8.407  12.405
70354SOL     OW12894  13.730  12.353   3.647
70354SOL    HW112895  13.786  12.289   3.691
70354SOL    HW212896  13.648  12.351   3.696
70355SOL     OW12897  13.112  13.928  10.206
70355SOL    HW112898  13.020  13.941  10.180
70355SOL    HW212899  13.147  13.868  10.140
70356SOL     OW12900  13.321  11.160   9.140
70356SOL    HW112901  13.391  11.163   9.075
70356SOL    HW212902  13.329  11.074   9.181
70357SOL     OW12903   0.636   9.922  11.361
70357SOL    HW112904   0.641   9.844  11.416
70357SOL    HW212905   0.586   9.894  11.284
70358SOL     OW12906   8.256   9.198   5.829
70358SOL    HW112907   8.238   9.248   5.909
70358SOL    HW212908   8.275   9.266   5.763
70359SOL     OW12909  11.261   6.598   5.326
70359SOL    HW112910  11.193   6.619   5.390
70359SOL    HW212911  11.342   6.595   5.377
70360SOL     OW12912   9.466   7.091  14.764
70360SOL    HW112913   9.460   7.021  14.700
70360SOL    HW212914   9.522   7.157  14.722
70361SOL     OW12915   3.130   6.993   1.413
70361SOL    HW112916   3.135   7.034   1.326
70361SOL    HW212917   3.160   7.061   1.473
70362SOL     OW12918   2.352   5.867   0.556
70362SOL    HW112919   2.435   5.889   0.598
70362SOL    HW212920   2.337   5.775   0.578
70363SOL     OW12921   1.984  12.052   2.954
70363SOL    HW112922   1.936  12.107   2.891
70363SOL    HW212923   1.919  11.989   2.984
70364SOL     OW12924   0.166  12.903   8.803
70364SOL    HW112925   0.185  12.913   8.710
70364SOL    HW212926   0.156  12.809   8.816
70365SOL     OW12927  11.031  11.192   8.305
70365SOL    HW112928  10.952  11.240   8.329
70365SOL    HW212929  11.088  11.258   8.266
70366SOL     OW12930   1.373  13.671  14.119
70366SOL    HW112931   1.350  13.704  14.033
70366SOL    HW212932   1.317  13.595  14.131
70367SOL     OW12933   1.875   3.203   4.951
70367SOL    HW112934   1.910   3.291   4.965
70367SOL    HW212935   1.802   3.195   5.013
70368SOL     OW12936   3.515   9.072   1.249
70368SOL    HW112937   3.435   9.026   1.273
70368SOL    HW212938   3.517   9.067   1.153
70369SOL     OW12939   5.576   4.675  12.879
70369SOL    HW112940   5.544   4.617  12.948
70369SOL    HW212941   5.670   4.682  12.896
70370SOL     OW12942   1.462  10.868   5.550
70370SOL    HW112943   1.488  10.958   5.534
70370SOL    HW212944   1.540  10.816   5.529
70371SOL     OW12945  12.188   2.188   9.235
70371SOL    HW112946  12.279   2.184   9.207
70371SOL    HW212947  12.151   2.262   9.186
70372SOL     OW12948  12.689   1.315   6.426
70372SOL    HW112949  12.739   1.346   6.502
70372SOL    HW212950  12.673   1.394   6.375
70373SOL     OW12951   7.678   5.639   2.726
70373SOL    HW112952   7.677   5.626   2.631
70373SOL    HW212953   7.749   5.583   2.757
70374SOL     OW12954   8.030   4.305   4.205
70374SOL    HW112955   8.098   4.310   4.138
70374SOL    HW212956   7.955   4.349   4.166
70375SOL     OW12957  12.730  10.511   5.019
70375SOL    HW112958  12.765  10.575   4.957
70375SOL    HW212959  12.637  10.507   5.000
70376SOL     OW12960   8.063   3.977  14.803
70376SOL    HW112961   8.070   4.015  14.715
70376SOL    HW212962   8.131   3.909  14.804
70377SOL     OW12963   1.939   1.447   8.311
70377SOL    HW112964   1.942   1.351   8.319
70377SOL    HW212965   2.022   1.476   8.349
70378SOL     OW12966   9.877   7.612  11.602
70378SOL    HW112967   9.871   7.568  11.686
70378SOL    HW212968   9.905   7.701  11.623
70379SOL     OW12969  11.306   3.498   3.696
70379SOL    HW112970  11.234   3.476   3.637
70379SOL    HW212971  11.299   3.593   3.708
70380SOL     OW12972   1.429   1.131  11.719
70380SOL    HW112973   1.430   1.221  11.754
70380SOL    HW212974   1.489   1.083  11.776
70381SOL     OW12975   4.803   0.013   9.074
70381SOL    HW112976   4.821   0.014   8.980
70381SOL    HW212977   4.740  14.815   9.086
70382SOL     OW12978   5.138  11.377   3.365
70382SOL    HW112979   5.196  11.425   3.424
70382SOL    HW212980   5.108  11.302   3.417
70383SOL     OW12981  14.813  12.279   3.702
70383SOL    HW112982   0.002  12.221   3.656
70383SOL    HW212983  14.734  12.277   3.649
70384SOL     OW12984   9.257   6.037   3.897
70384SOL    HW112985   9.177   6.000   3.860
70384SOL    HW212986   9.313   6.055   3.822
70385SOL     OW12987  11.822   8.096   6.168
70385SOL    HW112988  11.898   8.135   6.212
70385SOL    HW212989  11.851   8.008   6.145
70386SOL     OW12990  12.164   1.682  12.643
70386SOL    HW112991  12.099   1.682  12.714
70386SOL    HW212992  12.226   1.613  12.667
70387SOL     OW12993  11.411   1.177  12.859
70387SOL    HW112994  11.348   1.176  12.931
70387SOL    HW212995  11.440   1.086  12.852
70388SOL     OW12996   7.407   8.646   0.261
70388SOL    HW112997   7.357   8.727   0.268
70388SOL    HW212998   7.478   8.667   0.201
70389SOL     OW12999  12.619   3.385  12.615
70389SOL    HW113000  12.572   3.317  12.567
70389SOL    HW213001  12.683   3.419  12.553
70390SOL     OW13002   5.671   7.333  13.924
70390SOL    HW113003   5.578   7.312  13.921
70390SOL    HW213004   5.713   7.266  13.870
70391SOL     OW13005   4.059  12.494   6.378
70391SOL    HW113006   4.108  12.574   6.363
70391SOL    HW213007   4.060  12.448   6.294
70392SOL     OW13008   3.238  12.705  12.100
70392SOL    HW113009   3.267  12.774  12.041
70392SOL    HW213010   3.162  12.742  12.146
70393SOL     OW13011   4.232   9.945   5.678
70393SOL    HW113012   4.311   9.918   5.724
70393SOL    HW213013   4.203  10.024   5.725
70394SOL     OW13014   6.884   1.235  14.646
70394SOL    HW113015   6.964   1.269  14.607
70394SOL    HW213016   6.815   1.296  14.617
70395SOL     OW13017   0.307  13.650  12.375
70395SOL    HW113018   0.389  13.699  12.368
70395SOL    HW213019   0.320  13.574  12.318
70396SOL     OW13020   1.598   1.168  11.436
70396SOL    HW113021   1.642   1.128  11.511
70396SOL    HW213022   1.557   1.247  11.470
70397SOL     OW13023   6.069   2.996   7.864
70397SOL    HW113024   6.161   2.974   7.880
70397SOL    HW213025   6.060   2.989   7.769
70398SOL     OW13026  10.132   1.521   4.989
70398SOL    HW113027  10.102   1.520   4.899
70398SOL    HW213028  10.227   1.508   4.983
70399SOL     OW13029  11.958   1.605   0.771
70399SOL    HW113030  11.987   1.645   0.689
70399SOL    HW213031  12.023   1.632   0.835
70400SOL     OW13032  13.215   5.330   9.072
70400SOL    HW113033  13.222   5.311   9.165
70400SOL    HW213034  13.122   5.319   9.052
70401SOL     OW13035   0.119   8.256  10.227
70401SOL    HW113036   0.051   8.206  10.182
70401SOL    HW213037   0.083   8.274  10.314
70402SOL     OW13038   0.043   2.317   8.395
70402SOL    HW113039   0.071   2.407   8.412
70402SOL    HW213040   0.124   2.269   8.377
70403SOL     OW13041   3.048  10.365   2.334
70403SOL    HW113042   3.133  10.371   2.289
70403SOL    HW213043   3.044  10.275   2.365
70404SOL     OW13044   6.400   7.652  10.558
70404SOL    HW113045   6.470   7.608  10.511
70404SOL    HW213046   6.439   7.734  10.589
70405SOL     OW13047   3.434   4.496  14.844
70405SOL    HW113048   3.505   4.557  14.827
70405SOL    HW213049   3.359   4.553  14.866
70406SOL     OW13050  14.238  12.867   1.823
70406SOL    HW113051  14.269  12.829   1.741
70406SOL    HW213052  14.157  12.819   1.842
70407SOL     OW13053   3.684   4.964   6.199
70407SOL    HW113054   3.648   4.886   6.157
70407SOL    HW213055   3.753   4.994   6.140
70408SOL     OW13056  11.579  10.084   7.851
70408SOL    HW113057  11.522  10.110   7.778
70408SOL    HW213058  11.521  10.038   7.911
70409SOL     OW13059   8.076   1.562   2.879
70409SOL    HW113060   8.072   1.469   2.900
70409SOL    HW213061   8.170   1.581   2.872
70410SOL     OW13062   1.775   0.564  14.710
70410SOL    HW113063   1.711   0.505  14.748
70410SOL    HW213064   1.760   0.559  14.615
70411SOL     OW13065   1.217   7.175  12.572
70411SOL    HW113066   1.219   7.218  12.486
70411SOL    HW213067   1.295   7.120  12.572
70412SOL     OW13068   0.122   3.524  11.445
70412SOL    HW113069   0.141   3.497  11.535
70412SOL    HW213070   0.185   3.594  11.427
70413SOL     OW13071   5.106  12.354   7.995
70413SOL    HW113072   5.122  12.392   7.908
70413SOL    HW213073   5.024  12.394   8.024
70414SOL     OW13074   1.617   2.658   2.285
70414SOL    HW113075   1.592   2.574   2.325
70414SOL    HW213076   1.692   2.637   2.230
70415SOL     OW13077   5.836  10.992  13.721
70415SOL    HW113078   5.885  10.911  13.710
70415SOL    HW213079   5.821  11.024  13.632
70416SOL     OW13080   7.010   4.974  12.750
70416SOL    HW113081   7.043   4.903  12.804
70416SOL    HW213082   6.918   4.951  12.733
70417SOL     OW13083  11.531   3.289   0.738
70417SOL    HW113084  11.505   3.298   0.647
70417SOL    HW213085  11.619   3.249   0.735
70418SOL     OW13086   3.104  11.803   6.729
70418SOL    HW113087   3.126  11.896   6.732
70418SOL    HW213088   3.089  11.785   6.636
70419SOL     OW13089   8.539   1.529  12.502
70419SOL    HW113090   8.494   1.445  12.498
70419SOL    HW213091   8.591   1.533  12.422
70420SOL     OW13092   5.359  10.008   6.191
70420SOL    HW113093   5.342  10.102   6.189
70420SOL    HW213094   5.389   9.992   6.281
70421SOL     OW13095   5.791   2.179   2.950
70421SOL    HW113096   5.853   2.107   2.935
70421SOL    HW213097   5.705   2.138   2.949
70422SOL     OW13098  10.402   7.605  14.005
70422SOL    HW113099  10.438   7.639  14.087
70422SOL    HW213100  10.423   7.673  13.941
70423SOL     OW13101  13.491   0.206   6.427
70423SOL    HW113102  13.488   0.242   6.516
70423SOL    HW213103  13.548   0.129   6.435
70424SOL     OW13104   2.286  10.504  12.793
70424SOL    HW113105   2.368  10.540  12.760
70424SOL    HW213106   2.313  10.442  12.861
70425SOL     OW13107   6.585  12.969   1.725
70425SOL    HW113108   6.528  12.930   1.791
70425SOL    HW213109   6.587  12.905   1.654
70426SOL     OW13110   1.973   0.410  11.385
70426SOL    HW113111   2.055   0.417  11.434
70426SOL    HW213112   1.910   0.461  11.435
70427SOL     OW13113   3.711   1.094   3.474
70427SOL    HW113114   3.757   1.068   3.395
70427SOL    HW213115   3.780   1.116   3.536
70428SOL     OW13116  11.621   6.316  10.826
70428SOL    HW113117  11.681   6.389  10.844
70428SOL    HW213118  11.535   6.356  10.822
70429SOL     OW13119   8.964   8.862   9.361
70429SOL    HW113120   8.868   8.859   9.355
70429SOL    HW213121   8.985   8.816   9.442
70430SOL     OW13122   4.481   7.751   3.584
70430SOL    HW113123   4.424   7.709   3.648
70430SOL    HW213124   4.427   7.759   3.505
70431SOL     OW13125  14.847   1.674  13.953
70431SOL    HW113126   0.018   1.599  13.993
70431SOL    HW213127  14.756   1.645  13.943
70432SOL     OW13128   7.394   7.942  10.508
70432SOL    HW113129   7.409   7.990  10.589
70432SOL    HW213130   7.343   7.865  10.534
70433SOL     OW13131   2.889   0.938   9.555
70433SOL    HW113132   2.983   0.921   9.565
70433SOL    HW213133   2.852   0.915   9.640
70434SOL     OW13134   1.678  14.294  11.117
70434SOL    HW113135   1.591  14.282  11.077
70434SOL    HW213136   1.698  14.387  11.100
70435SOL     OW13137  10.361   1.513   4.485
70435SOL    HW113138  10.364   1.489   4.393
70435SOL    HW213139  10.331   1.434   4.530
70436SOL     OW13140   9.192   0.156   3.376
70436SOL    HW113141   9.131   0.120   3.311
70436SOL    HW213142   9.238   0.226   3.329
70437SOL     OW13143  14.578  14.529   0.484
70437SOL    HW113144  14.537  14.512   0.400
70437SOL    HW213145  14.595  14.442   0.521
70438SOL     OW13146   5.457   0.355   4.133
70438SOL    HW113147   5.405   0.277   4.114
70438SOL    HW213148   5.548   0.328   4.119
70439SOL     OW13149  12.500   0.400   0.037
70439SOL    HW113150  12.443   0.456   0.090
70439SOL    HW213151  12.520   0.326   0.095
70440SOL     OW13152   4.895   2.075  11.655
70440SOL    HW113153   4.886   2.162  11.618
70440SOL    HW213154   4.824   2.069  11.719
70441SOL     OW13155   2.562   6.778  13.747
70441SOL    HW113156   2.515   6.704  13.783
70441SOL    HW213157   2.654   6.760  13.765
70442SOL     OW13158  10.516   8.800   3.531
70442SOL    HW113159  10.513   8.863   3.460
70442SOL    HW213160  10.478   8.720   3.494
70443SOL     OW13161   7.891  13.775   6.471
70443SOL    HW113162   7.868  13.688   6.437
70443SOL    HW213163   7.824  13.793   6.537
70444SOL     OW13164   8.853  10.362   5.915
70444SOL    HW113165   8.758  10.369   5.915
70444SOL    HW213166   8.871  10.269   5.905
70445SOL     OW13167  13.480   5.830   6.302
70445SOL    HW113168  13.537   5.904   6.280
70445SOL    HW213169  13.412   5.868   6.357
70446SOL     OW13170  13.050   1.241   9.004
70446SOL    HW113171  13.141   1.213   9.014
70446SOL    HW213172  13.026   1.212   8.916
70447SOL     OW13173   1.741   5.440   2.371
70447SOL    HW113174   1.832   5.448   2.342
70447SOL    HW213175   1.714   5.530   2.390
70448SOL     OW13176  13.025  11.031   2.788
70448SOL    HW113177  13.025  10.939   2.763
70448SOL    HW213178  13.041  11.078   2.706
70449SOL     OW13179  12.019   8.770   3.873
70449SOL    HW113180  12.013   8.854   3.919
70449SOL    HW213181  11.987   8.789   3.785
70450SOL     OW13182   1.546  11.981   8.048
70450SOL    HW113183   1.626  11.944   8.085
70450SOL    HW213184   1.543  11.946   7.959
70451SOL     OW13185   5.339   1.602  10.909
70451SOL    HW113186   5.411   1.567  10.857
70451SOL    HW213187   5.288   1.655  10.848
70452SOL     OW13188   2.531   2.941  11.660
70452SOL    HW113189   2.464   2.969  11.722
70452SOL    HW213190   2.511   2.849  11.644
70453SOL     OW13191   1.777  11.830   6.958
70453SOL    HW113192   1.768  11.737   6.978
70453SOL    HW213193   1.749  11.837   6.866
70454SOL     OW13194   7.926  10.247   7.538
70454SOL    HW113195   7.854  10.224   7.479
70454SOL    HW213196   7.975  10.314   7.491
70455SOL     OW13197  14.092   6.549   9.316
70455SOL    HW113198  14.044   6.466   9.321
70455SOL    HW213199  14.154   6.537   9.244
70456SOL     OW13200   8.639   6.834   4.745
70456SOL    HW113201   8.668   6.743   4.748
70456SOL    HW213202   8.550   6.830   4.710
70457SOL     OW13203   4.464  12.754  10.964
70457SOL    HW113204   4.411  12.715  10.895
70457SOL    HW213205   4.407  12.754  11.041
70458SOL     OW13206  10.493   1.060   9.692
70458SOL    HW113207  10.532   0.983   9.733
70458SOL    HW213208  10.438   1.024   9.622
70459SOL     OW13209  11.564  14.044   0.793
70459SOL    HW113210  11.643  14.043   0.848
70459SOL    HW213211  11.573  14.124   0.741
70460SOL     OW13212   5.410   1.239   0.083
70460SOL    HW113213   5.416   1.152   0.043
70460SOL    HW213214   5.389   1.222   0.175
70461SOL     OW13215   3.655  11.002   9.725
70461SOL    HW113216   3.660  10.998   9.629
70461SOL    HW213217   3.717  10.935   9.755
70462SOL     OW13218   0.308   5.573  12.749
70462SOL    HW113219   0.270   5.622  12.821
70462SOL    HW213220   0.323   5.638  12.681
70463SOL     OW13221   5.947   4.274   3.721
70463SOL    HW113222   5.909   4.272   3.809
70463SOL    HW213223   5.881   4.231   3.666
70464SOL     OW13224   0.024  12.444   0.918
70464SOL    HW113225   0.042  12.375   0.982
70464SOL    HW213226   0.108  12.489   0.907
70465SOL     OW13227   8.981   9.044   5.233
70465SOL    HW113228   8.967   8.988   5.309
70465SOL    HW213229   8.893   9.060   5.199
70466SOL     OW13230   3.053   2.602   4.244
70466SOL    HW113231   3.006   2.604   4.327
70466SOL    HW213232   2.987   2.579   4.179
70467SOL     OW13233   2.450   8.349   8.684
70467SOL    HW113234   2.539   8.367   8.653
70467SOL    HW213235   2.451   8.373   8.776
70468SOL     OW13236  12.056   3.785   3.823
70468SOL    HW113237  12.115   3.809   3.895
70468SOL    HW213238  12.114   3.773   3.748
70469SOL     OW13239  13.064   9.207  12.748
70469SOL    HW113240  13.114   9.140  12.702
70469SOL    HW213241  13.098   9.290  12.713
70470SOL     OW13242   9.531   2.786   5.448
70470SOL    HW113243   9.546   2.841   5.371
70470SOL    HW213244   9.469   2.835   5.502
70471SOL     OW13245   5.382   7.299  12.753
70471SOL    HW113246   5.436   7.378  12.759
70471SOL    HW213247   5.314   7.311  12.819
70472SOL     OW13248   7.742   7.842   0.079
70472SOL    HW113249   7.761   7.767   0.136
70472SOL    HW213250   7.666   7.884   0.119
70473SOL     OW13251  14.654   3.848   8.710
70473SOL    HW113252  14.681   3.757   8.725
70473SOL    HW213253  14.559   3.843   8.697
70474SOL     OW13254   1.351  11.077   4.827
70474SOL    HW113255   1.313  11.116   4.747
70474SOL    HW213256   1.348  10.983   4.811
70475SOL     OW13257   9.022  10.068  12.262
70475SOL    HW113258   8.953  10.134  12.269
70475SOL    HW213259   9.000  10.003  12.330
70476SOL     OW13260   1.969   6.382   5.705
70476SOL    HW113261   2.061   6.355   5.701
70476SOL    HW213262   1.959   6.420   5.792
70477SOL     OW13263   9.566   5.847   1.105
70477SOL    HW113264   9.480   5.871   1.072
70477SOL    HW213265   9.601   5.786   1.040
70478SOL     OW13266   0.265   2.752   7.720
70478SOL    HW113267   0.171   2.735   7.724
70478SOL    HW213268   0.305   2.667   7.736
70479SOL     OW13269  11.714  11.993   9.750
70479SOL    HW113270  11.723  12.005   9.655
70479SOL    HW213271  11.756  12.071   9.787
70480SOL     OW13272  14.793  14.187   4.103
70480SOL    HW113273  14.720  14.151   4.052
70480SOL    HW213274  14.756  14.202   4.190
70481SOL     OW13275  11.595  10.197  12.680
70481SOL    HW113276  11.623  10.201  12.589
70481SOL    HW213277  11.580  10.104  12.697
70482SOL     OW13278   9.504  14.549   5.039
70482SOL    HW113279   9.449  14.609   5.090
70482SOL    HW213280   9.503  14.585   4.950
70483SOL     OW13281   4.317   2.908   0.313
70483SOL    HW113282   4.270   2.909   0.397
70483SOL    HW213283   4.408   2.889   0.336
70484SOL     OW13284  13.920   8.593  12.447
70484SOL    HW113285  13.991   8.603  12.512
70484SOL    HW213286  13.966   8.570  12.366
70485SOL     OW13287   4.482  10.314   0.112
70485SOL    HW113288   4.534  10.239   0.139
70485SOL    HW213289   4.507  10.383   0.173
70486SOL     OW13290   1.700   6.621   7.270
70486SOL    HW113291   1.699   6.540   7.220
70486SOL    HW213292   1.792   6.641   7.283
70487SOL     OW13293   3.409   9.898   5.967
70487SOL    HW113294   3.333   9.840   5.977
70487SOL    HW213295   3.471   9.847   5.915
70488SOL     OW13296   6.613   0.248   7.504
70488SOL    HW113297   6.614   0.249   7.599
70488SOL    HW213298   6.538   0.301   7.479
70489SOL     OW13299  10.621   9.785   6.865
70489SOL    HW113300  10.585   9.747   6.945
70489SOL    HW213301  10.558   9.762   6.796
70490SOL     OW13302   1.862  11.110  11.282
70490SOL    HW113303   1.889  11.043  11.344
70490SOL    HW213304   1.941  11.128  11.231
70491SOL     OW13305  14.253   6.985   3.449
70491SOL    HW113306  14.237   6.891   3.444
70491SOL    HW213307  14.174   7.022   3.488
70492SOL     OW13308  11.240  11.856   9.432
70492SOL    HW113309  11.172  11.855   9.365
70492SOL    HW213310  11.305  11.919   9.399
70493SOL     OW13311   8.625   5.447  14.414
70493SOL    HW113312   8.629   5.431  14.320
70493SOL    HW213313   8.559   5.516  14.424
70494SOL     OW13314  13.580   0.580  11.658
70494SOL    HW113315  13.556   0.488  11.668
70494SOL    HW213316  13.609   0.607  11.745
70495SOL     OW13317  10.977   3.607   1.341
70495SOL    HW113318  10.998   3.532   1.397
70495SOL    HW213319  11.043   3.673   1.363
70496SOL     OW13320   6.449   5.639  13.474
70496SOL    HW113321   6.508   5.592  13.415
70496SOL    HW213322   6.474   5.730  13.466
70497SOL     OW13323   2.952  12.120   8.199
70497SOL    HW113324   2.925  12.029   8.216
70497SOL    HW213325   2.906  12.143   8.118
70498SOL     OW13326   0.990   6.646  11.961
70498SOL    HW113327   0.913   6.701  11.946
70498SOL    HW213328   0.961   6.558  11.938
70499SOL     OW13329   6.571  12.025   6.281
70499SOL    HW113330   6.599  12.082   6.353
70499SOL    HW213331   6.653  12.005   6.234
70500SOL     OW13332   5.412  13.288   1.938
70500SOL    HW113333   5.353  13.358   1.910
70500SOL    HW213334   5.498  13.329   1.945
70501SOL     OW13335  11.469   7.170  11.405
70501SOL    HW113336  11.464   7.082  11.369
70501SOL    HW213337  11.413   7.168  11.482
70502SOL     OW13338   0.544   5.241   2.321
70502SOL    HW113339   0.481   5.198   2.378
70502SOL    HW213340   0.544   5.188   2.241
70503SOL     OW13341   4.747  10.964   8.285
70503SOL    HW113342   4.682  10.947   8.354
70503SOL    HW213343   4.774  10.877   8.256
70504SOL     OW13344  14.420   9.741  12.284
70504SOL    HW113345  14.427   9.648  12.260
70504SOL    HW213346  14.506   9.777  12.262
70505SOL     OW13347   3.286   4.898   4.051
70505SOL    HW113348   3.322   4.899   4.140
70505SOL    HW213349   3.277   4.805   4.030
70506SOL     OW13350   0.328   1.061   9.735
70506SOL    HW113351   0.263   1.036   9.800
70506SOL    HW213352   0.393   1.112   9.784
70507SOL     OW13353  11.550   1.979  13.560
70507SOL    HW113354  11.598   1.933  13.629
70507SOL    HW213355  11.614   2.040  13.523
70508SOL     OW13356   5.238  13.312   6.552
70508SOL    HW113357   5.237  13.384   6.615
70508SOL    HW213358   5.278  13.349   6.473
70509SOL     OW13359   7.750   0.896  13.453
70509SOL    HW113360   7.763   0.817  13.401
70509SOL    HW213361   7.663   0.927  13.429
70510SOL     OW13362   3.022  10.374   5.124
70510SOL    HW113363   3.047  10.339   5.039
70510SOL    HW213364   2.948  10.431   5.105
70511SOL     OW13365   7.399   8.533   0.859
70511SOL    HW113366   7.453   8.536   0.938
70511SOL    HW213367   7.341   8.458   0.872
70512SOL     OW13368   9.593   4.366   8.870
70512SOL    HW113369   9.677   4.376   8.915
70512SOL    HW213370   9.528   4.384   8.938
70513SOL     OW13371   1.935   7.306   5.876
70513SOL    HW113372   1.976   7.392   5.881
70513SOL    HW213373   2.005   7.247   5.851
70514SOL     OW13374  14.660   9.751   2.906
70514SOL    HW113375  14.611   9.678   2.944
70514SOL    HW213376  14.683   9.721   2.818
70515SOL     OW13377   0.394  13.701   7.977
70515SOL    HW113378   0.380  13.645   7.901
70515SOL    HW213379   0.477  13.670   8.015
70516SOL     OW13380  12.322  10.093   5.299
70516SOL    HW113381  12.364  10.023   5.248
70516SOL    HW213382  12.235  10.059   5.319
70517SOL     OW13383   9.167   2.836   6.108
70517SOL    HW113384   9.099   2.814   6.171
70517SOL    HW213385   9.135   2.800   6.025
70518SOL     OW13386   3.143  13.451   0.821
70518SOL    HW113387   3.100  13.466   0.736
70518SOL    HW213388   3.098  13.374   0.856
70519SOL     OW13389   8.557   3.563  11.236
70519SOL    HW113390   8.639   3.540  11.281
70519SOL    HW213391   8.488   3.522  11.289
70520SOL     OW13392   9.111  14.799  10.269
70520SOL    HW113393   9.169  14.724  10.275
70520SOL    HW213394   9.026  14.762  10.245
70521SOL     OW13395   1.365   5.661  14.788
70521SOL    HW113396   1.306   5.660  14.713
70521SOL    HW213397   1.308   5.646  14.864
70522SOL     OW13398  11.129   1.959   0.753
70522SOL    HW113399  11.109   1.926   0.841
70522SOL    HW213400  11.134   1.881   0.698
70523SOL     OW13401   7.978   8.085  14.536
70523SOL    HW113402   7.929   8.132  14.604
70523SOL    HW213403   8.068   8.117  14.547
70524SOL     OW13404   0.236  11.885   8.752
70524SOL    HW113405   0.254  11.798   8.716
70524SOL    HW213406   0.185  11.868   8.831
70525SOL     OW13407  12.296   2.665   3.828
70525SOL    HW113408  12.243   2.608   3.773
70525SOL    HW213409  12.385   2.631   3.818
70526SOL     OW13410   4.966  13.883  14.574
70526SOL    HW113411   5.021  13.811  14.607
70526SOL    HW213412   4.971  13.875  14.479
70527SOL     OW13413   0.267   0.676  10.236
70527SOL    HW113414   0.220   0.714  10.309
70527SOL    HW213415   0.303   0.594  10.270
70528SOL     OW13416  12.423   9.122   8.353
70528SOL    HW113417  12.455   9.200   8.306
70528SOL    HW213418  12.433   9.051   8.290
70529SOL     OW13419   3.386   0.603   4.374
70529SOL    HW113420   3.369   0.696   4.389
70529SOL    HW213421   3.406   0.597   4.281
70530SOL     OW13422   5.093  10.042   6.622
70530SOL    HW113423   5.018  10.085   6.662
70530SOL    HW213424   5.060   9.956   6.597
70531SOL     OW13425  13.001   5.033  11.464
70531SOL    HW113426  13.031   5.092  11.533
70531SOL    HW213427  12.914   5.066  11.441
70532SOL     OW13428  11.658  13.969   2.898
70532SOL    HW113429  11.706  13.887   2.911
70532SOL    HW213430  11.726  14.033   2.876
70533SOL     OW13431  13.596  13.310   3.196
70533SOL    HW113432  13.555  13.271   3.119
70533SOL    HW213433  13.677  13.260   3.208
70534SOL     OW13434  12.173   5.511   9.729
70534SOL    HW113435  12.089   5.534   9.768
70534SOL    HW213436  12.231   5.497   9.803
70535SOL     OW13437   3.082  11.880   4.380
70535SOL    HW113438   3.071  11.823   4.305
70535SOL    HW213439   3.151  11.942   4.355
70536SOL     OW13440   8.899   8.237   7.586
70536SOL    HW113441   8.960   8.297   7.543
70536SOL    HW213442   8.955   8.167   7.620
70537SOL     OW13443  11.281  12.940   1.002
70537SOL    HW113444  11.215  13.010   1.002
70537SOL    HW213445  11.305  12.930   0.910
70538SOL     OW13446   5.840   7.341   6.845
70538SOL    HW113447   5.904   7.285   6.890
70538SOL    HW213448   5.871   7.430   6.860
70539SOL     OW13449   6.585   7.338  12.236
70539SOL    HW113450   6.614   7.269  12.296
70539SOL    HW213451   6.493   7.317  12.219
70540SOL     OW13452   3.997   7.717   3.585
70540SOL    HW113453   3.964   7.643   3.634
70540SOL    HW213454   3.919   7.762   3.552
70541SOL     OW13455   2.298  10.016   9.604
70541SOL    HW113456   2.373  10.039   9.658
70541SOL    HW213457   2.337   9.990   9.520
70542SOL     OW13458   4.226   9.741   7.894
70542SOL    HW113459   4.280   9.813   7.861
70542SOL    HW213460   4.238   9.742   7.989
70543SOL     OW13461   4.959   1.923  12.735
70543SOL    HW113462   4.952   1.877  12.819
70543SOL    HW213463   4.918   2.008  12.751
70544SOL     OW13464  11.976   0.990   6.320
70544SOL    HW113465  12.043   0.971   6.254
70544SOL    HW213466  11.893   0.987   6.272
70545SOL     OW13467   9.212   4.743   5.514
70545SOL    HW113468   9.151   4.691   5.568
70545SOL    HW213469   9.262   4.794   5.577
70546SOL     OW13470   0.936   5.930   9.479
70546SOL    HW113471   0.842   5.951   9.481
70546SOL    HW213472   0.942   5.844   9.519
70547SOL     OW13473   8.613  12.178   3.507
70547SOL    HW113474   8.646  12.173   3.417
70547SOL    HW213475   8.577  12.266   3.515
70548SOL     OW13476   6.517   8.570  13.025
70548SOL    HW113477   6.587   8.570  13.092
70548SOL    HW213478   6.544   8.637  12.963
70549SOL     OW13479  10.503   8.390   2.348
70549SOL    HW113480  10.592   8.427   2.353
70549SOL    HW213481  10.493   8.363   2.257
70550SOL     OW13482   9.433   8.101  12.990
70550SOL    HW113483   9.486   8.161  12.937
70550SOL    HW213484   9.417   8.149  13.071
70551SOL     OW13485  14.231   8.102  11.349
70551SOL    HW113486  14.170   8.028  11.354
70551SOL    HW213487  14.180   8.173  11.309
70552SOL     OW13488  12.651  10.126   3.872
70552SOL    HW113489  12.610  10.186   3.934
70552SOL    HW213490  12.579  10.096   3.817
70553SOL     OW13491  10.249   4.575   3.252
70553SOL    HW113492  10.159   4.569   3.284
70553SOL    HW213493  10.289   4.644   3.305
70554SOL     OW13494   0.970   4.324   2.458
70554SOL    HW113495   1.040   4.342   2.395
70554SOL    HW213496   1.013   4.326   2.543
70555SOL     OW13497  10.638  12.251   8.336
70555SOL    HW113498  10.617  12.203   8.416
70555SOL    HW213499  10.733  12.263   8.340
70556SOL     OW13500   5.330  14.355   4.441
70556SOL    HW113501   5.343  14.261   4.454
70556SOL    HW213502   5.318  14.365   4.346
70557SOL     OW13503   4.978   0.256  11.378
70557SOL    HW113504   5.062   0.214  11.359
70557SOL    HW213505   4.951   0.217  11.461
70558SOL     OW13506   4.382   3.193   8.728
70558SOL    HW113507   4.313   3.200   8.794
70558SOL    HW213508   4.417   3.282   8.720
70559SOL     OW13509  10.598   8.660   8.064
70559SOL    HW113510  10.671   8.711   8.098
70559SOL    HW213511  10.521   8.693   8.111
70560SOL     OW13512   9.350   2.447   4.765
70560SOL    HW113513   9.431   2.498   4.772
70560SOL    HW213514   9.357   2.404   4.680
70561SOL     OW13515   2.026   4.211   4.895
70561SOL    HW113516   1.996   4.217   4.986
70561SOL    HW213517   2.016   4.300   4.861
70562SOL     OW13518  10.206   0.230   4.580
70562SOL    HW113519  10.191   0.156   4.521
70562SOL    HW213520  10.274   0.282   4.537
70563SOL     OW13521   6.447   3.020   4.437
70563SOL    HW113522   6.496   2.967   4.500
70563SOL    HW213523   6.357   3.020   4.472
70564SOL     OW13524   0.662   7.010   5.407
70564SOL    HW113525   0.689   7.073   5.475
70564SOL    HW213526   0.599   7.058   5.354
70565SOL     OW13527   8.068   4.230   6.233
70565SOL    HW113528   8.009   4.255   6.304
70565SOL    HW213529   8.156   4.240   6.269
70566SOL     OW13530   8.453  11.117   5.915
70566SOL    HW113531   8.360  11.137   5.916
70566SOL    HW213532   8.490  11.178   5.851
70567SOL     OW13533   2.775  12.526  12.171
70567SOL    HW113534   2.699  12.525  12.229
70567SOL    HW213535   2.849  12.505  12.228
70568SOL     OW13536   2.021   2.472   3.585
70568SOL    HW113537   2.106   2.450   3.547
70568SOL    HW213538   2.042   2.519   3.666
70569SOL     OW13539   2.588  11.226   7.383
70569SOL    HW113540   2.677  11.255   7.364
70569SOL    HW213541   2.597  11.170   7.461
70570SOL     OW13542   7.822   2.486   4.116
70570SOL    HW113543   7.795   2.483   4.207
70570SOL    HW213544   7.786   2.406   4.078
70571SOL     OW13545   6.597  11.056  11.482
70571SOL    HW113546   6.505  11.077  11.468
70571SOL    HW213547   6.601  10.961  11.476
70572SOL     OW13548  10.500   8.092  13.571
70572SOL    HW113549  10.473   8.073  13.481
70572SOL    HW213550  10.511   8.006  13.611
70573SOL     OW13551   7.857   3.073  13.644
70573SOL    HW113552   7.795   3.135  13.605
70573SOL    HW213553   7.838   2.990  13.601
70574SOL     OW13554   9.995  12.881  13.475
70574SOL    HW113555  10.052  12.947  13.434
70574SOL    HW213556  10.007  12.802  13.422
70575SOL     OW13557  13.152   4.657   7.116
70575SOL    HW113558  13.159   4.639   7.023
70575SOL    HW213559  13.059   4.672   7.132
70576SOL     OW13560   3.817   5.026   1.595
70576SOL    HW113561   3.739   5.073   1.622
70576SOL    HW213562   3.890   5.077   1.631
70577SOL     OW13563   9.693  12.169   2.316
70577SOL    HW113564   9.757  12.110   2.277
70577SOL    HW213565   9.609  12.143   2.277
70578SOL     OW13566   1.672   0.300   9.886
70578SOL    HW113567   1.600   0.350   9.848
70578SOL    HW213568   1.719   0.265   9.811
70579SOL     OW13569   4.727   3.298  13.734
70579SOL    HW113570   4.764   3.227  13.786
70579SOL    HW213571   4.692   3.360  13.798
70580SOL     OW13572   7.875  12.285   7.923
70580SOL    HW113573   7.927  12.276   8.003
70580SOL    HW213574   7.906  12.215   7.866
70581SOL     OW13575  10.690   5.433  10.791
70581SOL    HW113576  10.781   5.461  10.782
70581SOL    HW213577  10.639   5.513  10.778
70582SOL     OW13578   0.878   9.895   4.733
70582SOL    HW113579   0.970   9.905   4.755
70582SOL    HW213580   0.878   9.839   4.655
70583SOL     OW13581  12.785   3.382   6.101
70583SOL    HW113582  12.879   3.379   6.085
70583SOL    HW213583  12.752   3.300   6.065
70584SOL     OW13584   4.969   8.510   5.759
70584SOL    HW113585   4.887   8.551   5.788
70584SOL    HW213586   4.946   8.420   5.740
70585SOL     OW13587   5.084   9.189   0.524
70585SOL    HW113588   5.032   9.122   0.569
70585SOL    HW213589   5.129   9.140   0.455
70586SOL     OW13590   8.250  14.417   9.188
70586SOL    HW113591   8.155  14.424   9.194
70586SOL    HW213592   8.266  14.394   9.096
70587SOL     OW13593  12.083   6.120   7.572
70587SOL    HW113594  12.085   6.188   7.505
70587SOL    HW213595  11.992   6.117   7.601
70588SOL     OW13596   7.598   7.135  13.966
70588SOL    HW113597   7.596   7.150  14.060
70588SOL    HW213598   7.679   7.177  13.937
70589SOL     OW13599   0.427  14.514  10.621
70589SOL    HW113600   0.470  14.561  10.549
70589SOL    HW213601   0.336  14.508  10.593
70590SOL     OW13602   8.491   0.355  14.786
70590SOL    HW113603   8.517   0.288  14.849
70590SOL    HW213604   8.567   0.365  14.729
70591SOL     OW13605   9.905   3.897  11.774
70591SOL    HW113606   9.946   3.812  11.754
70591SOL    HW213607   9.949   3.927  11.853
70592SOL     OW13608   3.566  11.405  12.211
70592SOL    HW113609   3.628  11.411  12.138
70592SOL    HW213610   3.523  11.320  12.199
70593SOL     OW13611   2.584   3.617   6.565
70593SOL    HW113612   2.493   3.633   6.539
70593SOL    HW213613   2.584   3.625   6.660
70594SOL     OW13614   3.237  13.746   0.674
70594SOL    HW113615   3.205  13.705   0.754
70594SOL    HW213616   3.301  13.683   0.639
70595SOL     OW13617   4.044  13.409   6.794
70595SOL    HW113618   3.991  13.339   6.755
70595SOL    HW213619   4.023  13.405   6.888
70596SOL     OW13620  12.834  11.253   5.659
70596SOL    HW113621  12.856  11.181   5.600
70596SOL    HW213622  12.764  11.300   5.615
70597SOL     OW13623  13.719   0.297   3.126
70597SOL    HW113624  13.796   0.302   3.183
70597SOL    HW213625  13.749   0.329   3.041
70598SOL     OW13626   6.651  12.096  11.247
70598SOL    HW113627   6.617  12.056  11.166
70598SOL    HW213628   6.574  12.105  11.303
70599SOL     OW13629   3.987   9.577   8.204
70599SOL    HW113630   4.061   9.546   8.256
70599SOL    HW213631   4.000   9.538   8.118
70600SOL     OW13632   6.835  13.157   9.928
70600SOL    HW113633   6.911  13.201   9.966
70600SOL    HW213634   6.808  13.215   9.856
70601SOL     OW13635   8.013  13.161  10.031
70601SOL    HW113636   8.051  13.115  10.106
70601SOL    HW213637   8.028  13.254  10.050
70602SOL     OW13638   2.144   9.020   2.319
70602SOL    HW113639   2.219   8.974   2.357
70602SOL    HW213640   2.182   9.095   2.274
70603SOL     OW13641   1.619   3.521   5.132
70603SOL    HW113642   1.551   3.572   5.177
70603SOL    HW213643   1.571   3.473   5.065
70604SOL     OW13644   0.660  11.652   5.869
70604SOL    HW113645   0.620  11.565   5.880
70604SOL    HW213646   0.751  11.640   5.897
70605SOL     OW13647   9.949  12.865  11.370
70605SOL    HW113648   9.969  12.958  11.369
70605SOL    HW213649   9.929  12.843  11.279
70606SOL     OW13650  11.061   5.894   0.197
70606SOL    HW113651  11.058   5.902   0.102
70606SOL    HW213652  10.979   5.933   0.227
70607SOL     OW13653   3.044   5.076   0.309
70607SOL    HW113654   2.993   5.060   0.229
70607SOL    HW213655   2.980   5.067   0.380
70608SOL     OW13656   1.928  11.479   4.650
70608SOL    HW113657   1.903  11.406   4.707
70608SOL    HW213658   1.845  11.525   4.632
70609SOL     OW13659  14.175  14.515  10.827
70609SOL    HW113660  14.200  14.585  10.767
70609SOL    HW213661  14.247  14.510  10.889
70610SOL     OW13662   7.957  11.849  10.023
70610SOL    HW113663   7.942  11.757  10.043
70610SOL    HW213664   7.973  11.890  10.108
70611SOL     OW13665   0.817  13.321   5.296
70611SOL    HW113666   0.736  13.356   5.260
70611SOL    HW213667   0.886  13.357   5.239
70612SOL     OW13668   8.264  12.242   2.338
70612SOL    HW113669   8.233  12.265   2.251
70612SOL    HW213670   8.310  12.160   2.327
70613SOL     OW13671  13.452   0.895   4.562
70613SOL    HW113672  13.513   0.851   4.502
70613SOL    HW213673  13.486   0.984   4.570
70614SOL     OW13674   6.884   9.391   1.097
70614SOL    HW113675   6.828   9.462   1.126
70614SOL    HW213676   6.957   9.391   1.160
70615SOL     OW13677   8.103  13.113   2.192
70615SOL    HW113678   8.145  13.074   2.268
70615SOL    HW213679   8.009  13.102   2.208
70616SOL     OW13680  10.649  11.535  10.043
70616SOL    HW113681  10.708  11.488  10.102
70616SOL    HW213682  10.613  11.605  10.096
70617SOL     OW13683   8.451   7.097   0.132
70617SOL    HW113684   8.402   7.152   0.194
70617SOL    HW213685   8.384   7.059   0.075
70618SOL     OW13686   1.603   6.216   1.656
70618SOL    HW113687   1.510   6.219   1.679
70618SOL    HW213688   1.644   6.281   1.713
70619SOL     OW13689  10.197   5.124  10.433
70619SOL    HW113690  10.199   5.214  10.466
70619SOL    HW213691  10.220   5.131  10.341
70620SOL     OW13692  14.069   2.572  14.463
70620SOL    HW113693  14.069   2.510  14.390
70620SOL    HW213694  13.983   2.614  14.459
70621SOL     OW13695  13.636  11.709   6.759
70621SOL    HW113696  13.610  11.618   6.774
70621SOL    HW213697  13.697  11.729   6.829
70622SOL     OW13698   7.012   9.125   1.077
70622SOL    HW113699   7.084   9.185   1.096
70622SOL    HW213700   6.941   9.181   1.046
70623SOL     OW13701   3.279   5.216   7.766
70623SOL    HW113702   3.325   5.298   7.746
70623SOL    HW213703   3.298   5.160   7.690
70624SOL     OW13704   9.932   5.519   8.100
70624SOL    HW113705   9.962   5.605   8.073
70624SOL    HW213706  10.004   5.482   8.150
70625SOL     OW13707   0.820   2.125  13.474
70625SOL    HW113708   0.848   2.147  13.563
70625SOL    HW213709   0.829   2.030  13.468
70626SOL     OW13710   9.174   2.522   2.982
70626SOL    HW113711   9.165   2.590   2.916
70626SOL    HW213712   9.095   2.469   2.973
70627SOL     OW13713   3.500  12.034   0.851
70627SOL    HW113714   3.539  12.104   0.903
70627SOL    HW213715   3.410  12.063   0.836
70628SOL     OW13716   9.526   0.694   9.073
70628SOL    HW113717   9.602   0.681   9.129
70628SOL    HW213718   9.452   0.699   9.133
70629SOL     OW13719   5.310   5.793   9.938
70629SOL    HW113720   5.297   5.868   9.880
70629SOL    HW213721   5.270   5.820  10.021
70630SOL     OW13722  14.840  11.044   2.282
70630SOL    HW113723  14.801  11.105   2.220
70630SOL    HW213724  14.771  10.978   2.298
70631SOL     OW13725   1.922  14.491  14.219
70631SOL    HW113726   1.924  14.581  14.188
70631SOL    HW213727   2.007  14.455  14.192
70632SOL     OW13728  11.040  10.101   5.279
70632SOL    HW113729  11.107  10.051   5.232
70632SOL    HW213730  11.024  10.178   5.223
70633SOL     OW13731  11.984   9.221  12.916
70633SOL    HW113732  11.977   9.312  12.943
70633SOL    HW213733  12.056   9.186  12.967
70634SOL     OW13734   1.944   5.263  13.681
70634SOL    HW113735   1.905   5.177  13.664
70634SOL    HW213736   1.870   5.317  13.710
70635SOL     OW13737   8.365  13.704   3.334
70635SOL    HW113738   8.357  13.766   3.261
70635SOL    HW213739   8.352  13.757   3.412
70636SOL     OW13740   6.820  11.492  10.322
70636SOL    HW113741   6.901  11.493  10.374
70636SOL    HW213742   6.753  11.462  10.383
70637SOL     OW13743   7.981   9.676   3.850
70637SOL    HW113744   8.063   9.666   3.801
70637SOL    HW213745   8.008   9.673   3.942
70638SOL     OW13746  10.131  12.626  10.179
70638SOL    HW113747  10.158  12.563  10.112
70638SOL    HW213748  10.107  12.572  10.254
70639SOL     OW13749  13.381   1.981   7.688
70639SOL    HW113750  13.445   1.929   7.640
70639SOL    HW213751  13.417   2.070   7.686
70640SOL     OW13752  13.665   5.031   8.139
70640SOL    HW113753  13.638   5.112   8.182
70640SOL    HW213754  13.653   4.964   8.206
70641SOL     OW13755   1.112   4.583   0.421
70641SOL    HW113756   1.165   4.510   0.390
70641SOL    HW213757   1.157   4.661   0.390
70642SOL     OW13758   0.752   7.310   4.723
70642SOL    HW113759   0.717   7.354   4.646
70642SOL    HW213760   0.772   7.381   4.784
70643SOL     OW13761   1.713   6.739   1.893
70643SOL    HW113762   1.756   6.756   1.809
70643SOL    HW213763   1.647   6.808   1.901
70644SOL     OW13764   8.063   9.356  12.965
70644SOL    HW113765   8.011   9.346  12.885
70644SOL    HW213766   8.050   9.274  13.013
70645SOL     OW13767   9.771   8.301  10.686
70645SOL    HW113768   9.829   8.377  10.686
70645SOL    HW213769   9.780   8.265  10.774
70646SOL     OW13770  11.907  12.443  10.898
70646SOL    HW113771  11.990  12.488  10.886
70646SOL    HW213772  11.908  12.372  10.834
70647SOL     OW13773  10.204   3.712   7.525
70647SOL    HW113774  10.199   3.756   7.440
70647SOL    HW213775  10.284   3.747   7.565
70648SOL     OW13776   5.393   6.355   5.587
70648SOL    HW113777   5.399   6.263   5.559
70648SOL    HW213778   5.344   6.352   5.669
70649SOL     OW13779  12.449   4.590   2.967
70649SOL    HW113780  12.452   4.682   2.943
70649SOL    HW213781  12.483   4.544   2.890
70650SOL     OW13782   8.853   6.542   6.969
70650SOL    HW113783   8.896   6.552   7.053
70650SOL    HW213784   8.904   6.476   6.923
70651SOL     OW13785   9.464  11.969   3.277
70651SOL    HW113786   9.476  11.997   3.186
70651SOL    HW213787   9.388  12.017   3.307
70652SOL     OW13788   6.022   3.276   7.706
70652SOL    HW113789   6.101   3.233   7.739
70652SOL    HW213790   6.014   3.354   7.762
70653SOL     OW13791   0.325  12.575   3.153
70653SOL    HW113792   0.255  12.514   3.134
70653SOL    HW213793   0.403  12.537   3.112
70654SOL     OW13794   3.926  12.430   7.681
70654SOL    HW113795   4.014  12.462   7.663
70654SOL    HW213796   3.938  12.336   7.694
70655SOL     OW13797  11.835   5.250   7.205
70655SOL    HW113798  11.809   5.172   7.253
70655SOL    HW213799  11.810   5.323   7.261
70656SOL     OW13800   1.139   6.556   8.200
70656SOL    HW113801   1.062   6.536   8.254
70656SOL    HW213802   1.110   6.540   8.110
70657SOL     OW13803  14.797  11.424  13.990
70657SOL    HW113804  14.825  11.438  14.080
70657SOL    HW213805  14.706  11.394  13.997
70658SOL     OW13806  14.524   0.926   1.787
70658SOL    HW113807  14.585   0.854   1.774
70658SOL    HW213808  14.439   0.890   1.761
70659SOL     OW13809   9.315  12.968  10.307
70659SOL    HW113810   9.377  12.955  10.378
70659SOL    HW213811   9.355  13.035  10.252
70660SOL     OW13812   4.324  10.746  12.938
70660SOL    HW113813   4.283  10.819  12.985
70660SOL    HW213814   4.322  10.673  13.000
70661SOL     OW13815  13.573  13.195   1.460
70661SOL    HW113816  13.626  13.180   1.539
70661SOL    HW213817  13.568  13.290   1.452
70662SOL     OW13818   1.780  13.291   2.905
70662SOL    HW113819   1.700  13.276   2.854
70662SOL    HW213820   1.761  13.254   2.991
70663SOL     OW13821   5.307  10.083   5.144
70663SOL    HW113822   5.334  10.045   5.228
70663SOL    HW213823   5.360  10.037   5.079
70664SOL     OW13824   6.618   9.116  13.350
70664SOL    HW113825   6.545   9.151  13.401
70664SOL    HW213826   6.634   9.182  13.282
70665SOL     OW13827   1.617   9.183  14.584
70665SOL    HW113828   1.668   9.263  14.599
70665SOL    HW213829   1.681   9.120  14.551
70666SOL     OW13830  10.042   1.567   1.890
70666SOL    HW113831  10.006   1.643   1.844
70666SOL    HW213832  10.124   1.548   1.844
70667SOL     OW13833  13.578   5.211  14.353
70667SOL    HW113834  13.520   5.257  14.414
70667SOL    HW213835  13.627   5.149  14.408
70668SOL     OW13836  14.284   5.306   1.455
70668SOL    HW113837  14.211   5.353   1.415
70668SOL    HW213838  14.362   5.356   1.431
70669SOL     OW13839  13.810   3.546   7.008
70669SOL    HW113840  13.887   3.502   7.042
70669SOL    HW213841  13.844   3.606   6.942
70670SOL     OW13842   6.602   7.414   2.602
70670SOL    HW113843   6.624   7.492   2.654
70670SOL    HW213844   6.518   7.385   2.637
70671SOL     OW13845   2.814   5.708  11.203
70671SOL    HW113846   2.851   5.641  11.145
70671SOL    HW213847   2.799   5.783  11.145
70672SOL     OW13848   0.998  14.703   4.696
70672SOL    HW113849   0.998  14.614   4.730
70672SOL    HW213850   0.907  14.721   4.673
70673SOL     OW13851   7.122   6.671   5.135
70673SOL    HW113852   7.108   6.635   5.048
70673SOL    HW213853   7.152   6.761   5.119
70674SOL     OW13854   0.891  14.545  10.055
70674SOL    HW113855   0.946  14.508   9.986
70674SOL    HW213856   0.834  14.607  10.009
70675SOL     OW13857   3.899   7.818  13.800
70675SOL    HW113858   3.807   7.843  13.809
70675SOL    HW213859   3.899   7.723  13.815
70676SOL     OW13860   6.487  11.132  10.280
70676SOL    HW113861   6.532  11.059  10.322
70676SOL    HW213862   6.446  11.094  10.202
70677SOL     OW13863   1.250   4.017  13.548
70677SOL    HW113864   1.301   3.991  13.625
70677SOL    HW213865   1.256   3.942  13.488
70678SOL     OW13866  14.099   4.659   3.689
70678SOL    HW113867  14.190   4.674   3.663
70678SOL    HW213868  14.065   4.596   3.626
70679SOL     OW13869   4.560   2.322   9.344
70679SOL    HW113870   4.601   2.408   9.331
70679SOL    HW213871   4.629   2.259   9.324
70680SOL     OW13872   2.453   5.209   0.823
70680SOL    HW113873   2.493   5.173   0.902
70680SOL    HW213874   2.471   5.303   0.828
70681SOL     OW13875  14.757   4.520   8.181
70681SOL    HW113876  14.733   4.436   8.220
70681SOL    HW213877  14.720   4.586   8.240
70682SOL     OW13878   8.368   8.089   9.418
70682SOL    HW113879   8.368   7.993   9.425
70682SOL    HW213880   8.380   8.119   9.508
70683SOL     OW13881  12.348   3.799  12.390
70683SOL    HW113882  12.327   3.848  12.469
70683SOL    HW213883  12.378   3.865  12.328
70684SOL     OW13884   6.068   2.713   5.591
70684SOL    HW113885   5.977   2.719   5.562
70684SOL    HW213886   6.110   2.792   5.557
70685SOL     OW13887   4.524   6.814   3.322
70685SOL    HW113888   4.517   6.902   3.286
70685SOL    HW213889   4.581   6.824   3.399
70686SOL     OW13890   5.540   8.203   0.453
70686SOL    HW113891   5.483   8.126   0.460
70686SOL    HW213892   5.626   8.167   0.434
70687SOL     OW13893   9.900   3.376   5.710
70687SOL    HW113894   9.970   3.339   5.656
70687SOL    HW213895   9.891   3.466   5.678
70688SOL     OW13896   3.410   0.997   1.471
70688SOL    HW113897   3.415   0.906   1.501
70688SOL    HW213898   3.323   1.005   1.432
70689SOL     OW13899   1.669   0.029   0.966
70689SOL    HW113900   1.694   0.065   0.881
70689SOL    HW213901   1.710   0.088   1.029
70690SOL     OW13902   8.523   0.654  13.006
70690SOL    HW113903   8.467   0.670  13.083
70690SOL    HW213904   8.508   0.562  12.985
70691SOL     OW13905   5.639   5.541   4.364
70691SOL    HW113906   5.595   5.465   4.327
70691SOL    HW213907   5.602   5.616   4.318
70692SOL     OW13908  10.646   5.709   0.460
70692SOL    HW113909  10.552   5.724   0.466
70692SOL    HW213910  10.686   5.786   0.500
70693SOL     OW13911   5.094   1.732   1.030
70693SOL    HW113912   5.097   1.817   1.075
70693SOL    HW213913   5.020   1.687   1.069
70694SOL     OW13914   8.914  11.179   4.914
70694SOL    HW113915   8.953  11.230   4.843
70694SOL    HW213916   8.862  11.112   4.870
70695SOL     OW13917   8.351  11.923  10.306
70695SOL    HW113918   8.409  11.978  10.253
70695SOL    HW213919   8.353  11.961  10.393
70696SOL     OW13920   1.409  12.789   0.195
70696SOL    HW113921   1.496  12.796   0.235
70696SOL    HW213922   1.348  12.795   0.267
70697SOL     OW13923   3.381   9.716   4.148
70697SOL    HW113924   3.360   9.625   4.168
70697SOL    HW213925   3.443   9.741   4.217
70698SOL     OW13926   1.324   1.555   8.680
70698SOL    HW113927   1.331   1.619   8.608
70698SOL    HW213928   1.371   1.596   8.753
70699SOL     OW13929   1.979   3.372   8.004
70699SOL    HW113930   1.983   3.288   8.049
70699SOL    HW213931   2.058   3.418   8.031
70700SOL     OW13932  12.621   9.841   0.716
70700SOL    HW113933  12.634   9.844   0.811
70700SOL    HW213934  12.703   9.807   0.681
70701SOL     OW13935   9.336   9.620  12.599
70701SOL    HW113936   9.243   9.637  12.585
70701SOL    HW213937   9.338   9.539  12.651
70702SOL     OW13938  11.541  14.708   4.757
70702SOL    HW113939  11.630  14.674   4.748
70702SOL    HW213940  11.538  14.743   4.846
70703SOL     OW13941   7.122  14.318   0.897
70703SOL    HW113942   7.106  14.251   0.964
70703SOL    HW213943   7.038  14.360   0.884
70704SOL     OW13944   6.700   5.549   6.513
70704SOL    HW113945   6.722   5.457   6.505
70704SOL    HW213946   6.638   5.553   6.586
70705SOL     OW13947  12.032   5.677   8.594
70705SOL    HW113948  12.080   5.609   8.641
70705SOL    HW213949  12.020   5.747   8.658
70706SOL     OW13950   6.878  10.098   2.692
70706SOL    HW113951   6.933  10.030   2.654
70706SOL    HW213952   6.916  10.180   2.659
70707SOL     OW13953   0.799   8.779   5.461
70707SOL    HW113954   0.761   8.694   5.437
70707SOL    HW213955   0.835   8.766   5.548
70708SOL     OW13956  13.490   1.706   9.660
70708SOL    HW113957  13.465   1.796   9.640
70708SOL    HW213958  13.567   1.690   9.605
70709SOL     OW13959  13.261   5.581   1.961
70709SOL    HW113960  13.334   5.639   1.941
70709SOL    HW213961  13.185   5.639   1.963
70710SOL     OW13962  13.010  10.544   0.275
70710SOL    HW113963  12.978  10.635   0.280
70710SOL    HW213964  12.949  10.495   0.330
70711SOL     OW13965   6.798   9.824  11.768
70711SOL    HW113966   6.708   9.838  11.742
70711SOL    HW213967   6.815   9.890  11.835
70712SOL     OW13968   3.608   9.542  12.124
70712SOL    HW113969   3.667   9.600  12.173
70712SOL    HW213970   3.598   9.465  12.179
70713SOL     OW13971   3.856  10.531   7.073
70713SOL    HW113972   3.941  10.575   7.075
70713SOL    HW213973   3.861  10.472   6.999
70714SOL     OW13974   8.341   9.893   1.030
70714SOL    HW113975   8.344   9.962   1.097
70714SOL    HW213976   8.274   9.832   1.061
70715SOL     OW13977   0.926  12.592   5.793
70715SOL    HW113978   0.918  12.678   5.833
70715SOL    HW213979   0.888  12.602   5.706
70716SOL     OW13980   3.820  10.534   2.212
70716SOL    HW113981   3.753  10.596   2.183
70716SOL    HW213982   3.846  10.487   2.133
70717SOL     OW13983  13.576  12.780   7.397
70717SOL    HW113984  13.585  12.875   7.390
70717SOL    HW213985  13.583  12.762   7.491
70718SOL     OW13986   9.635   3.424   7.508
70718SOL    HW113987   9.597   3.341   7.479
70718SOL    HW213988   9.728   3.415   7.491
70719SOL     OW13989   3.071   0.042   7.735
70719SOL    HW113990   3.048  14.839   7.788
70719SOL    HW213991   3.078   0.009   7.646
70720SOL     OW13992   9.803   8.405   6.743
70720SOL    HW113993   9.709   8.411   6.762
70720SOL    HW213994   9.810   8.334   6.680
70721SOL     OW13995  12.057  13.217   1.202
70721SOL    HW113996  12.006  13.153   1.152
70721SOL    HW213997  11.993  13.283   1.228
70722SOL     OW13998  14.703  12.016  12.059
70722SOL    HW113999  14.642  11.950  12.091
70722SOL    HW214000  14.693  12.014  11.964
70723SOL     OW14001  13.996   1.711   6.312
70723SOL    HW114002  13.916   1.667   6.281
70723SOL    HW214003  13.971   1.748   6.397
70724SOL     OW14004  13.704   0.625  14.128
70724SOL    HW114005  13.742   0.650  14.044
70724SOL    HW214006  13.736   0.691  14.190
70725SOL     OW14007   0.917  13.108   7.849
70725SOL    HW114008   1.008  13.132   7.866
70725SOL    HW214009   0.914  13.093   7.754
70726SOL     OW14010   6.930  11.251   3.599
70726SOL    HW114011   6.850  11.244   3.547
70726SOL    HW214012   6.928  11.340   3.635
70727SOL     OW14013   0.649  13.712  13.557
70727SOL    HW114014   0.594  13.667  13.493
70727SOL    HW214015   0.721  13.652  13.574
70728SOL     OW14016  14.771   6.160   2.117
70728SOL    HW114017  14.742   6.163   2.026
70728SOL    HW214018  14.839   6.092   2.119
70729SOL     OW14019  11.966   2.393   0.856
70729SOL    HW114020  11.972   2.467   0.918
70729SOL    HW214021  12.028   2.416   0.786
70730SOL     OW14022  14.621   6.809  14.658
70730SOL    HW114023  14.617   6.847  14.746
70730SOL    HW214024  14.547   6.847  14.611
70731SOL     OW14025   6.714   0.744  13.567
70731SOL    HW114026   6.733   0.709  13.480
70731SOL    HW214027   6.651   0.814  13.551
70732SOL     OW14028  14.383   9.508   6.216
70732SOL    HW114029  14.422   9.575   6.160
70732SOL    HW214030  14.292   9.502   6.188
70733SOL     OW14031   2.785   7.844   4.954
70733SOL    HW114032   2.708   7.856   4.899
70733SOL    HW214033   2.816   7.755   4.932
70734SOL     OW14034   9.919   6.322   8.477
70734SOL    HW114035   9.931   6.259   8.406
70734SOL    HW214036   9.974   6.397   8.451
70735SOL     OW14037  10.777  11.037   8.955
70735SOL    HW114038  10.839  10.989   8.900
70735SOL    HW214039  10.732  10.968   9.005
70736SOL     OW14040  13.885   3.816   4.174
70736SOL    HW114041  13.948   3.883   4.199
70736SOL    HW214042  13.886   3.816   4.078
70737SOL     OW14043   0.573   4.032   1.005
70737SOL    HW114044   0.620   4.108   1.039
70737SOL    HW214045   0.626   4.003   0.931
70738SOL     OW14046   4.009   0.924   0.427
70738SOL    HW114047   4.035   0.965   0.344
70738SOL    HW214048   4.006   0.830   0.407
70739SOL     OW14049   9.782   5.534  12.276
70739SOL    HW114050   9.800   5.441  12.259
70739SOL    HW214051   9.803   5.578  12.194
70740SOL     OW14052   4.284  14.193   6.429
70740SOL    HW114053   4.318  14.246   6.501
70740SOL    HW214054   4.361  14.163   6.382
70741SOL     OW14055  11.958   3.477  10.646
70741SOL    HW114056  12.010   3.547  10.606
70741SOL    HW214057  12.022   3.421  10.689
70742SOL     OW14058   5.603   5.064   8.199
70742SOL    HW114059   5.527   5.007   8.189
70742SOL    HW214060   5.668   5.010   8.242
70743SOL     OW14061   0.618   4.397  10.308
70743SOL    HW114062   0.673   4.476  10.312
70743SOL    HW214063   0.586   4.395  10.218
70744SOL     OW14064   0.829  13.786   7.062
70744SOL    HW114065   0.770  13.819   7.130
70744SOL    HW214066   0.906  13.754   7.109
70745SOL     OW14067   4.653   5.462   1.062
70745SOL    HW114068   4.634   5.556   1.056
70745SOL    HW214069   4.674   5.448   1.154
70746SOL     OW14070  13.729  12.921   6.446
70746SOL    HW114071  13.721  12.921   6.541
70746SOL    HW214072  13.788  12.994   6.427
70747SOL     OW14073  14.839   4.059  10.055
70747SOL    HW114074   0.025   4.112  10.109
70747SOL    HW214075  14.757   4.109  10.054
70748SOL     OW14076  10.889  13.718   2.626
70748SOL    HW114077  10.919  13.790   2.681
70748SOL    HW214078  10.796  13.737   2.611
70749SOL     OW14079   7.810   8.276   3.595
70749SOL    HW114080   7.869   8.319   3.534
70749SOL    HW214081   7.783   8.344   3.656
70750SOL     OW14082   6.737   3.023  10.501
70750SOL    HW114083   6.784   3.014  10.419
70750SOL    HW214084   6.666   3.085  10.482
70751SOL     OW14085   5.439   3.091  10.127
70751SOL    HW114086   5.387   3.169  10.111
70751SOL    HW214087   5.530   3.119  10.113
70752SOL     OW14088  10.924   0.419   0.126
70752SOL    HW114089  10.957   0.330   0.142
70752SOL    HW214090  10.881   0.413   0.041
70753SOL     OW14091   8.490   0.474  11.450
70753SOL    HW114092   8.417   0.424  11.414
70753SOL    HW214093   8.464   0.494  11.540
70754SOL     OW14094  11.876  11.371  14.210
70754SOL    HW114095  11.795  11.403  14.169
70754SOL    HW214096  11.889  11.428  14.285
70755SOL     OW14097  10.493  10.722  11.900
70755SOL    HW114098  10.470  10.787  11.833
70755SOL    HW214099  10.569  10.760  11.945
70756SOL     OW14100   2.811   5.140   0.130
70756SOL    HW114101   2.805   5.203   0.058
70756SOL    HW214102   2.723   5.141   0.170
70757SOL     OW14103   0.084   0.142  11.856
70757SOL    HW114104   0.003   0.168  11.812
70757SOL    HW214105   0.138   0.106  11.786
70758SOL     OW14106   6.920  13.722  14.196
70758SOL    HW114107   6.825  13.712  14.197
70758SOL    HW214108   6.942  13.743  14.104
70759SOL     OW14109  11.258   3.229  10.157
70759SOL    HW114110  11.178   3.267  10.192
70759SOL    HW214111  11.329   3.279  10.199
70760SOL     OW14112   7.290   9.723   9.904
70760SOL    HW114113   7.293   9.774   9.985
70760SOL    HW214114   7.232   9.650   9.924
70761SOL     OW14115   5.468  14.464  13.036
70761SOL    HW114116   5.465  14.428  13.125
70761SOL    HW214117   5.542  14.420  12.994
70762SOL     OW14118   2.924  10.271   8.044
70762SOL    HW114119   2.980  10.344   8.019
70762SOL    HW214120   2.966  10.234   8.122
70763SOL     OW14121   7.519   9.572  14.762
70763SOL    HW114122   7.511   9.589  14.668
70763SOL    HW214123   7.603   9.527  14.771
70764SOL     OW14124   5.473   0.192  14.746
70764SOL    HW114125   5.442   0.108  14.713
70764SOL    HW214126   5.411   0.215  14.815
70765SOL     OW14127   5.763  10.174   1.502
70765SOL    HW114128   5.753  10.267   1.483
70765SOL    HW214129   5.692  10.155   1.564
70766SOL     OW14130   4.381   3.618   9.563
70766SOL    HW114131   4.342   3.537   9.595
70766SOL    HW214132   4.365   3.615   9.468
70767SOL     OW14133   5.816  13.968  13.744
70767SOL    HW114134   5.800  14.016  13.826
70767SOL    HW214135   5.733  13.971  13.698
70768SOL     OW14136   3.421  13.184   6.155
70768SOL    HW114137   3.370  13.233   6.218
70768SOL    HW214138   3.438  13.245   6.084
70769SOL     OW14139  14.728  10.293   7.310
70769SOL    HW114140  14.634  10.291   7.332
70769SOL    HW214141  14.771  10.310   7.394
70770SOL     OW14142   1.921  11.845   9.071
70770SOL    HW114143   1.918  11.940   9.069
70770SOL    HW214144   1.893  11.818   8.983
70771SOL     OW14145  11.173   5.049  11.468
70771SOL    HW114146  11.262   5.015  11.472
70771SOL    HW214147  11.170   5.100  11.387
70772SOL     OW14148   2.220   8.076   5.832
70772SOL    HW114149   2.154   8.145   5.837
70772SOL    HW214150   2.187   8.017   5.764
70773SOL     OW14151  11.988   0.031   0.082
70773SOL    HW114152  11.981  14.838   0.012
70773SOL    HW214153  12.074   0.071   0.069
70774SOL     OW14154   2.322   3.337   4.411
70774SOL    HW114155   2.249   3.400   4.412
70774SOL    HW214156   2.282   3.254   4.384
70775SOL     OW14157  14.248  12.496   4.209
70775SOL    HW114158  14.261  12.577   4.160
70775SOL    HW214159  14.311  12.435   4.171
70776SOL     OW14160   5.908   4.447   0.072
70776SOL    HW114161   5.879   4.531   0.107
70776SOL    HW214162   5.886   4.383   0.139
70777SOL     OW14163   9.442  14.328   9.502
70777SOL    HW114164   9.443  14.355   9.594
70777SOL    HW214165   9.432  14.232   9.506
70778SOL     OW14166  14.542   5.114   6.408
70778SOL    HW114167  14.554   5.023   6.382
70778SOL    HW214168  14.630   5.144   6.431
70779SOL     OW14169  10.293  13.232  11.090
70779SOL    HW114170  10.317  13.274  11.173
70779SOL    HW214171  10.254  13.149  11.116
70780SOL     OW14172  14.602  10.118   4.902
70780SOL    HW114173  14.542  10.185   4.869
70780SOL    HW214174  14.548  10.064   4.959
70781SOL     OW14175   3.508  10.666  12.447
70781SOL    HW114176   3.483  10.710  12.528
70781SOL    HW214177   3.424  10.648  12.403
70782SOL     OW14178   2.776   7.624   2.473
70782SOL    HW114179   2.766   7.614   2.568
70782SOL    HW214180   2.698   7.672   2.446
70783SOL     OW14181  11.572   0.807  10.654
70783SOL    HW114182  11.522   0.779  10.577
70783SOL    HW214183  11.513   0.792  10.728
70784SOL     OW14184  14.081   3.495   0.731
70784SOL    HW114185  14.086   3.588   0.750
70784SOL    HW214186  14.050   3.456   0.814
70785SOL     OW14187   4.353  10.903   3.543
70785SOL    HW114188   4.323  10.976   3.489
70785SOL    HW214189   4.301  10.910   3.623
70786SOL     OW14190   1.277   5.363   9.340
70786SOL    HW114191   1.237   5.399   9.261
70786SOL    HW214192   1.371   5.361   9.321
70787SOL     OW14193   3.847   9.137   0.324
70787SOL    HW114194   3.854   9.173   0.236
70787SOL    HW214195   3.937   9.115   0.348
70788SOL     OW14196   7.678   1.031  12.361
70788SOL    HW114197   7.625   1.022  12.282
70788SOL    HW214198   7.761   1.069  12.332
70789SOL     OW14199   6.432   3.050   3.545
70789SOL    HW114200   6.408   3.078   3.634
70789SOL    HW214201   6.366   3.090   3.489
70790SOL     OW14202   2.076   1.593   2.910
70790SOL    HW114203   2.116   1.672   2.947
70790SOL    HW214204   1.997   1.579   2.962
70791SOL     OW14205  12.427   2.757  13.737
70791SOL    HW114206  12.490   2.771  13.808
70791SOL    HW214207  12.376   2.681  13.765
70792SOL     OW14208  14.612   6.226   4.955
70792SOL    HW114209  14.628   6.215   5.049
70792SOL    HW214210  14.579   6.140   4.927
70793SOL     OW14211  12.662   9.113   5.285
70793SOL    HW114212  12.584   9.081   5.239
70793SOL    HW214213  12.734   9.095   5.225
70794SOL     OW14214  12.145   1.410   9.479
70794SOL    HW114215  12.135   1.486   9.422
70794SOL    HW214216  12.119   1.441   9.566
70795SOL     OW14217  13.772   7.627   5.022
70795SOL    HW114218  13.769   7.660   5.112
70795SOL    HW214219  13.841   7.679   4.980
70796SOL     OW14220  14.322  12.863   9.521
70796SOL    HW114221  14.319  12.953   9.488
70796SOL    HW214222  14.356  12.872   9.610
70797SOL     OW14223   7.981  14.319   5.774
70797SOL    HW114224   8.070  14.345   5.798
70797SOL    HW214225   7.937  14.304   5.857
70798SOL     OW14226   9.517   9.403   3.786
70798SOL    HW114227   9.528   9.432   3.876
70798SOL    HW214228   9.577   9.329   3.777
70799SOL     OW14229  12.980   4.196   7.905
70799SOL    HW114230  12.964   4.135   7.833
70799SOL    HW214231  12.966   4.283   7.866
70800SOL     OW14232  12.379   3.397   5.167
70800SOL    HW114233  12.401   3.478   5.121
70800SOL    HW214234  12.308   3.359   5.116
70801SOL     OW14235  12.717   3.363   2.471
70801SOL    HW114236  12.779   3.364   2.543
70801SOL    HW214237  12.747   3.292   2.414
70802SOL     OW14238  12.173   1.001   2.696
70802SOL    HW114239  12.265   0.977   2.710
70802SOL    HW214240  12.150   0.959   2.613
70803SOL     OW14241  13.170   9.458   9.809
70803SOL    HW114242  13.216   9.529   9.852
70803SOL    HW214243  13.169   9.387   9.873
70804SOL     OW14244  10.340   6.442  12.481
70804SOL    HW114245  10.263   6.385  12.489
70804SOL    HW214246  10.387   6.408  12.405
70805SOL     OW14247   9.464   2.423   4.499
70805SOL    HW114248   9.427   2.443   4.413
70805SOL    HW214249   9.508   2.339   4.488
70806SOL     OW14250   9.331   5.005  13.852
70806SOL    HW114251   9.308   4.994  13.759
70806SOL    HW214252   9.395   5.076  13.852
70807SOL     OW14253   0.754   6.275  10.334
70807SOL    HW114254   0.825   6.210  10.332
70807SOL    HW214255   0.764   6.322  10.251
70808SOL     OW14256   8.923   0.615   9.223
70808SOL    HW114257   8.912   0.653   9.135
70808SOL    HW214258   8.981   0.675   9.268
70809SOL     OW14259  12.846   0.876   0.524
70809SOL    HW114260  12.770   0.835   0.565
70809SOL    HW214261  12.890   0.804   0.479
70810SOL     OW14262   3.047  10.943   5.068
70810SOL    HW114263   3.124  10.990   5.100
70810SOL    HW214264   3.001  10.916   5.148
70811SOL     OW14265   5.109  11.605  14.107
70811SOL    HW114266   5.116  11.676  14.171
70811SOL    HW214267   5.140  11.644  14.025
70812SOL     OW14268   2.680   7.735  11.049
70812SOL    HW114269   2.705   7.822  11.017
70812SOL    HW214270   2.585   7.737  11.053
70813SOL     OW14271   4.818   4.445   8.275
70813SOL    HW114272   4.823   4.437   8.370
70813SOL    HW214273   4.754   4.515   8.260
70814SOL     OW14274   0.876  13.151  14.470
70814SOL    HW114275   0.839  13.064  14.452
70814SOL    HW214276   0.971  13.136  14.471
70815SOL     OW14277   5.209   0.516   7.250
70815SOL    HW114278   5.283   0.546   7.198
70815SOL    HW214279   5.219   0.421   7.253
70816SOL     OW14280  13.096   8.949  13.193
70816SOL    HW114281  13.133   8.992  13.117
70816SOL    HW214282  13.098   9.015  13.262
70817SOL     OW14283  12.817   0.591  12.911
70817SOL    HW114284  12.901   0.546  12.902
70817SOL    HW214285  12.841   0.680  12.937
70818SOL     OW14286   8.507   5.123   9.162
70818SOL    HW114287   8.471   5.208   9.188
70818SOL    HW214288   8.537   5.084   9.244
70819SOL     OW14289   4.132   4.621   5.413
70819SOL    HW114290   4.222   4.610   5.441
70819SOL    HW214291   4.111   4.712   5.433
70820SOL     OW14292   0.324   7.148  13.580
70820SOL    HW114293   0.410   7.169  13.617
70820SOL    HW214294   0.343   7.116  13.492
70821SOL     OW14295   8.084   5.197  12.515
70821SOL    HW114296   8.126   5.232  12.593
70821SOL    HW214297   8.149   5.210  12.445
70822SOL     OW14298  10.782   0.395   8.435
70822SOL    HW114299  10.859   0.397   8.379
70822SOL    HW214300  10.800   0.325   8.498
70823SOL     OW14301   2.794  13.902   6.041
70823SOL    HW114302   2.862  13.962   6.070
70823SOL    HW214303   2.777  13.927   5.950
70824SOL     OW14304  12.855  14.531   6.756
70824SOL    HW114305  12.927  14.469   6.750
70824SOL    HW214306  12.896  14.617   6.743
70825SOL     OW14307  13.031   5.921   2.449
70825SOL    HW114308  13.068   5.990   2.395
70825SOL    HW214309  12.941   5.911   2.417
70826SOL     OW14310   4.697   5.641   3.386
70826SOL    HW114311   4.741   5.562   3.353
70826SOL    HW214312   4.768   5.700   3.410
70827SOL     OW14313   4.314  12.828  14.439
70827SOL    HW114314   4.228  12.840  14.478
70827SOL    HW214315   4.349  12.917  14.430
70828SOL     OW14316   8.592  10.316   5.986
70828SOL    HW114317   8.525  10.266   5.940
70828SOL    HW214318   8.582  10.293   6.078
70829SOL     OW14319   3.146  14.050  12.916
70829SOL    HW114320   3.151  14.145  12.904
70829SOL    HW214321   3.164  14.036  13.009
70830SOL     OW14322  11.729   0.308  12.257
70830SOL    HW114323  11.807   0.292  12.204
70830SOL    HW214324  11.729   0.402  12.272
70831SOL     OW14325   5.197   3.188   5.311
70831SOL    HW114326   5.120   3.205   5.258
70831SOL    HW214327   5.239   3.273   5.321
70832SOL     OW14328  14.665   7.526   9.715
70832SOL    HW114329  14.675   7.444   9.666
70832SOL    HW214330  14.624   7.586   9.653
70833SOL     OW14331   4.990   4.716   7.574
70833SOL    HW114332   4.971   4.795   7.524
70833SOL    HW214333   5.086   4.714   7.581
70834SOL     OW14334  10.039   4.787  13.298
70834SOL    HW114335   9.972   4.766  13.233
70834SOL    HW214336  10.031   4.882  13.311
70835SOL     OW14337  11.134   1.983   6.892
70835SOL    HW114338  11.075   1.916   6.858
70835SOL    HW214339  11.206   1.934   6.932
70836SOL     OW14340   4.842  13.729   9.410
70836SOL    HW114341   4.778  13.763   9.348
70836SOL    HW214342   4.790  13.687   9.478
70837SOL     OW14343  11.745   4.819  12.066
70837SOL    HW114344  11.690   4.887  12.105
70837SOL    HW214345  11.733   4.830  11.972
70838SOL     OW14346   3.162  13.110   1.916
70838SOL    HW114347   3.224  13.091   1.846
70838SOL    HW214348   3.198  13.064   1.992
70839SOL     OW14349   4.773  10.580  11.808
70839SOL    HW114350   4.720  10.562  11.885
70839SOL    HW214351   4.860  10.602  11.844
70840SOL     OW14352  13.924  11.808  11.363
70840SOL    HW114353  13.872  11.846  11.434
70840SOL    HW214354  14.015  11.830  11.385
70841SOL     OW14355  10.005   6.561   8.414
70841SOL    HW114356  10.038   6.650   8.413
70841SOL    HW214357   9.956   6.552   8.333
70842SOL     OW14358  11.904   9.754   7.363
70842SOL    HW114359  11.996   9.752   7.335
70842SOL    HW214360  11.903   9.704   7.444
70843SOL     OW14361   5.254   8.122  13.279
70843SOL    HW114362   5.303   8.196  13.244
70843SOL    HW214363   5.318   8.073  13.331
70844SOL     OW14364  11.718  11.966   3.996
70844SOL    HW114365  11.719  11.989   3.903
70844SOL    HW214366  11.626  11.969   4.021
70845SOL     OW14367  14.647   7.162  13.796
70845SOL    HW114368  14.564   7.135  13.758
70845SOL    HW214369  14.631   7.164  13.891
70846SOL     OW14370   2.960   0.108  10.557
70846SOL    HW114371   3.051   0.100  10.529
70846SOL    HW214372   2.920   0.024  10.532
70847SOL     OW14373   2.153   8.729   8.078
70847SOL    HW114374   2.214   8.754   8.009
70847SOL    HW214375   2.096   8.805   8.088
70848SOL     OW14376   8.965   0.926   4.395
70848SOL    HW114377   8.892   0.881   4.352
70848SOL    HW214378   8.922   0.986   4.457
70849SOL     OW14379   9.327   3.012  14.336
70849SOL    HW114380   9.391   3.038  14.270
70849SOL    HW214381   9.274   2.945  14.293
70850SOL     OW14382   0.564   8.786  12.417
70850SOL    HW114383   0.623   8.731  12.367
70850SOL    HW214384   0.499   8.816  12.354
70851SOL     OW14385   2.691   3.105  11.845
70851SOL    HW114386   2.655   3.036  11.789
70851SOL    HW214387   2.772   3.131  11.802
70852SOL     OW14388   7.465   4.873  13.659
70852SOL    HW114389   7.552   4.867  13.620
70852SOL    HW214390   7.444   4.783  13.685
70853SOL     OW14391   6.369   0.266  13.181
70853SOL    HW114392   6.324   0.199  13.130
70853SOL    HW214393   6.437   0.218  13.229
70854SOL     OW14394   4.979   5.070  11.114
70854SOL    HW114395   4.957   4.983  11.081
70854SOL    HW214396   4.894   5.113  11.125
70855SOL     OW14397   2.470   8.304   4.396
70855SOL    HW114398   2.427   8.219   4.403
70855SOL    HW214399   2.399   8.365   4.375
70856SOL     OW14400  11.972   4.525   6.712
70856SOL    HW114401  11.994   4.534   6.619
70856SOL    HW214402  12.041   4.575   6.757
70857SOL     OW14403  13.856   1.255   7.408
70857SOL    HW114404  13.882   1.320   7.343
70857SOL    HW214405  13.904   1.175   7.383
70858SOL     OW14406  13.812   4.163  12.244
70858SOL    HW114407  13.847   4.120  12.166
70858SOL    HW214408  13.789   4.251  12.214
70859SOL     OW14409   3.951   8.530   7.664
70859SOL    HW114410   4.018   8.580   7.618
70859SOL    HW214411   3.936   8.577   7.746
70860SOL     OW14412   6.286   2.140   1.010
70860SOL    HW114413   6.349   2.194   0.962
70860SOL    HW214414   6.281   2.180   1.097
70861SOL     OW14415   7.464   5.937   5.994
70861SOL    HW114416   7.498   5.983   6.071
70861SOL    HW214417   7.520   5.965   5.922
70862SOL     OW14418   5.904   3.120  12.973
70862SOL    HW114419   5.970   3.052  12.986
70862SOL    HW214420   5.898   3.128  12.877
70863SOL     OW14421  10.119  13.088   4.578
70863SOL    HW114422  10.047  13.077   4.639
70863SOL    HW214423  10.134  13.183   4.575
70864SOL     OW14424   1.633   8.716   5.953
70864SOL    HW114425   1.578   8.668   5.891
70864SOL    HW214426   1.667   8.650   6.012
70865SOL     OW14427  10.540  11.751   3.579
70865SOL    HW114428  10.535  11.817   3.510
70865SOL    HW214429  10.531  11.801   3.660
70866SOL     OW14430   2.842   3.251   7.305
70866SOL    HW114431   2.845   3.275   7.398
70866SOL    HW214432   2.885   3.325   7.261
70867SOL     OW14433  14.629   9.024   8.348
70867SOL    HW114434  14.663   9.110   8.325
70867SOL    HW214435  14.695   8.986   8.407
70868SOL     OW14436   2.807   4.694   1.925
70868SOL    HW114437   2.762   4.643   1.992
70868SOL    HW214438   2.758   4.776   1.920
70869SOL     OW14439   3.233  12.828  14.374
70869SOL    HW114440   3.201  12.890  14.440
70869SOL    HW214441   3.225  12.742  14.415
70870SOL     OW14442   3.064   8.771   0.333
70870SOL    HW114443   3.025   8.858   0.336
70870SOL    HW214444   3.153   8.786   0.302
70871SOL     OW14445   2.848   8.432   3.339
70871SOL    HW114446   2.834   8.377   3.416
70871SOL    HW214447   2.908   8.382   3.284
70872SOL     OW14448   2.088  10.509   5.525
70872SOL    HW114449   2.024  10.468   5.466
70872SOL    HW214450   2.119  10.437   5.580
70873SOL     OW14451   0.829   2.655   5.263
70873SOL    HW114452   0.786   2.664   5.179
70873SOL    HW214453   0.921   2.641   5.242
70874SOL     OW14454   4.288   5.937   6.688
70874SOL    HW114455   4.333   5.857   6.661
70874SOL    HW214456   4.201   5.930   6.651
70875SOL     OW14457   5.451   6.433   1.070
70875SOL    HW114458   5.429   6.349   1.030
70875SOL    HW214459   5.543   6.447   1.048
70876SOL     OW14460   2.871   8.719   1.822
70876SOL    HW114461   2.847   8.808   1.848
70876SOL    HW214462   2.958   8.705   1.859
70877SOL     OW14463   3.182   6.122   4.793
70877SOL    HW114464   3.250   6.128   4.725
70877SOL    HW214465   3.138   6.039   4.775
70878SOL     OW14466   8.217   3.525  13.942
70878SOL    HW114467   8.257   3.498  14.024
70878SOL    HW214468   8.137   3.473  13.935
70879SOL     OW14469   6.658   9.147   8.953
70879SOL    HW114470   6.683   9.217   9.013
70879SOL    HW214471   6.689   9.176   8.867
70880SOL     OW14472  11.380   3.264   1.567
70880SOL    HW114473  11.357   3.356   1.578
70880SOL    HW214474  11.307   3.227   1.517
70881SOL     OW14475   0.785   9.676   4.447
70881SOL    HW114476   0.757   9.767   4.459
70881SOL    HW214477   0.787   9.664   4.352
70882SOL     OW14478   5.655   8.890   9.628
70882SOL    HW114479   5.591   8.907   9.559
70882SOL    HW214480   5.740   8.894   9.583
70883SOL     OW14481   2.426   9.024  13.144
70883SOL    HW114482   2.422   8.995  13.053
70883SOL    HW214483   2.504   9.079  13.149
70884SOL     OW14484  12.551   1.441   8.622
70884SOL    HW114485  12.572   1.458   8.714
70884SOL    HW214486  12.626   1.390   8.589
70885SOL     OW14487   1.803  13.044   9.085
70885SOL    HW114488   1.785  13.099   9.160
70885SOL    HW214489   1.898  13.028   9.089
70886SOL     OW14490   6.879  11.674  13.290
70886SOL    HW114491   6.925  11.719  13.219
70886SOL    HW214492   6.806  11.630  13.246
70887SOL     OW14493  12.943   8.887   2.330
70887SOL    HW114494  12.902   8.913   2.247
70887SOL    HW214495  12.969   8.970   2.370
70888SOL     OW14496  11.350   2.901  13.627
70888SOL    HW114497  11.383   2.837  13.691
70888SOL    HW214498  11.375   2.986  13.663
70889SOL     OW14499   6.736  10.554  13.175
70889SOL    HW114500   6.691  10.584  13.096
70889SOL    HW214501   6.815  10.607  13.179
70890SOL     OW14502   4.961   1.127  12.610
70890SOL    HW114503   5.024   1.199  12.606
70890SOL    HW214504   4.876   1.171  12.616
70891SOL     OW14505   4.982   2.873   0.055
70891SOL    HW114506   5.013   2.964   0.056
70891SOL    HW214507   4.887   2.879   0.057
70892SOL     OW14508   4.775   4.330  14.315
70892SOL    HW114509   4.727   4.316  14.396
70892SOL    HW214510   4.854   4.378  14.341
70893SOL     OW14511   6.138   3.180   5.405
70893SOL    HW114512   6.157   3.261   5.453
70893SOL    HW214513   6.059   3.200   5.356
70894SOL     OW14514  13.260   6.035   3.471
70894SOL    HW114515  13.324   6.016   3.539
70894SOL    HW214516  13.254   6.130   3.470
70895SOL     OW14517   5.263   1.481  10.399
70895SOL    HW114518   5.331   1.528  10.448
70895SOL    HW214519   5.301   1.395  10.383
70896SOL     OW14520   6.110   5.837  13.223
70896SOL    HW114521   6.182   5.805  13.169
70896SOL    HW214522   6.054   5.761  13.237
70897SOL     OW14523  11.861  14.247   6.311
70897SOL    HW114524  11.864  14.280   6.221
70897SOL    HW214525  11.924  14.175   6.312
70898SOL     OW14526   7.930   0.383  14.179
70898SOL    HW114527   7.957   0.298  14.147
70898SOL    HW214528   7.898   0.429  14.101
70899SOL     OW14529  10.707   3.047   2.885
70899SOL    HW114530  10.622   3.054   2.842
70899SOL    HW214531  10.719   2.953   2.899
70900SOL     OW14532   1.998   9.012  10.774
70900SOL    HW114533   2.017   8.919  10.783
70900SOL    HW214534   2.055   9.055  10.838
70901SOL     OW14535   9.801  11.636  14.771
70901SOL    HW114536   9.733  11.659  14.709
70901SOL    HW214537   9.755  11.622  14.854
70902SOL     OW14538   0.348   7.304   3.839
70902SOL    HW114539   0.337   7.238   3.908
70902SOL    HW214540   0.332   7.255   3.758
70903SOL     OW14541  12.851  13.109   1.075
70903SOL    HW114542  12.793  13.063   1.136
70903SOL    HW214543  12.804  13.190   1.054
70904SOL     OW14544   5.041   2.440  12.090
70904SOL    HW114545   4.992   2.406  12.015
70904SOL    HW214546   4.988   2.416  12.166
70905SOL     OW14547  13.581  14.322   1.824
70905SOL    HW114548  13.523  14.397   1.812
70905SOL    HW214549  13.667  14.360   1.840
70906SOL     OW14550   9.322   8.041   4.760
70906SOL    HW114551   9.363   8.111   4.710
70906SOL    HW214552   9.379   7.965   4.749
70907SOL     OW14553  12.571   1.139  12.560
70907SOL    HW114554  12.563   1.233  12.547
70907SOL    HW214555  12.664   1.124  12.572
70908SOL     OW14556   2.678  10.402   6.948
70908SOL    HW114557   2.765  10.434   6.970
70908SOL    HW214558   2.680  10.309   6.970
70909SOL     OW14559  14.745   6.763   7.930
70909SOL    HW114560  14.747   6.838   7.990
70909SOL    HW214561  14.816   6.706   7.961
70910SOL     OW14562   1.408   7.380   5.448
70910SOL    HW114563   1.323   7.339   5.434
70910SOL    HW214564   1.462   7.352   5.374
70911SOL     OW14565  13.879  11.553   1.542
70911SOL    HW114566  13.952  11.558   1.603
70911SOL    HW214567  13.912  11.501   1.469
70912SOL     OW14568   1.352   8.477   7.215
70912SOL    HW114569   1.438   8.506   7.246
70912SOL    HW214570   1.290   8.536   7.259
70913SOL     OW14571   2.678   3.558   5.706
70913SOL    HW114572   2.676   3.536   5.799
70913SOL    HW214573   2.702   3.650   5.703
70914SOL     OW14574  11.533   5.677   2.467
70914SOL    HW114575  11.539   5.640   2.555
70914SOL    HW214576  11.439   5.690   2.453
70915SOL     OW14577  14.795  10.957  10.625
70915SOL    HW114578  14.841  10.888  10.673
70915SOL    HW214579  14.833  10.955  10.538
70916SOL     OW14580   0.641  12.404   7.695
70916SOL    HW114581   0.582  12.436   7.763
70916SOL    HW214582   0.608  12.316   7.675
70917SOL     OW14583   3.688  13.475   0.723
70917SOL    HW114584   3.641  13.432   0.795
70917SOL    HW214585   3.780  13.472   0.749
70918SOL     OW14586  11.710   5.746   5.068
70918SOL    HW114587  11.644   5.783   5.010
70918SOL    HW214588  11.757   5.823   5.102
70919SOL     OW14589   0.351   1.228  10.055
70919SOL    HW114590   0.405   1.244   9.977
70919SOL    HW214591   0.277   1.178  10.022
70920SOL     OW14592   8.363  10.782   6.908
70920SOL    HW114593   8.333  10.852   6.967
70920SOL    HW214594   8.442  10.749   6.948
70921SOL     OW14595  11.901   0.215   5.272
70921SOL    HW114596  11.920   0.152   5.202
70921SOL    HW214597  11.981   0.268   5.278
70922SOL     OW14598   0.047   3.000  14.603
70922SOL    HW114599  14.863   2.948  14.546
70922SOL    HW214600   0.078   2.938  14.669
70923SOL     OW14601  14.065  14.577   4.435
70923SOL    HW114602  14.026  14.593   4.349
70923SOL    HW214603  14.158  14.560   4.417
70924SOL     OW14604   6.686   9.692   7.155
70924SOL    HW114605   6.720   9.638   7.084
70924SOL    HW214606   6.601   9.722   7.124
70925SOL     OW14607   7.922   6.408  14.056
70925SOL    HW114608   7.969   6.382  13.976
70925SOL    HW214609   7.865   6.479  14.027
70926SOL     OW14610   5.528  12.722   0.251
70926SOL    HW114611   5.619  12.745   0.270
70926SOL    HW214612   5.481  12.746   0.331
70927SOL     OW14613   4.906  13.328   2.548
70927SOL    HW114614   4.862  13.244   2.556
70927SOL    HW214615   4.920  13.357   2.638
70928SOL     OW14616   9.201   5.976   3.018
70928SOL    HW114617   9.160   5.998   3.101
70928SOL    HW214618   9.294   5.994   3.031
70929SOL     OW14619  13.833   9.976   3.933
70929SOL    HW114620  13.760   9.978   3.871
70929SOL    HW214621  13.874  10.062   3.924
70930SOL     OW14622   5.951   3.390   0.059
70930SOL    HW114623   5.911   3.408   0.144
70930SOL    HW214624   5.957   3.295   0.054
70931SOL     OW14625   9.728   6.133   5.825
70931SOL    HW114626   9.667   6.168   5.889
70931SOL    HW214627   9.747   6.206   5.766
70932SOL     OW14628   1.218   6.127  12.787
70932SOL    HW114629   1.137   6.176  12.777
70932SOL    HW214630   1.253   6.121  12.699
70933SOL     OW14631  13.222   0.571  13.341
70933SOL    HW114632  13.309   0.532  13.346
70933SOL    HW214633  13.169   0.518  13.400
70934SOL     OW14634   2.907  14.561   7.330
70934SOL    HW114635   2.944  14.649   7.318
70934SOL    HW214636   2.933  14.514   7.251
70935SOL     OW14637  13.706  14.078  13.726
70935SOL    HW114638  13.714  14.150  13.664
70935SOL    HW214639  13.761  14.008  13.690
70936SOL     OW14640  12.728  13.143  11.622
70936SOL    HW114641  12.740  13.233  11.593
70936SOL    HW214642  12.711  13.094  11.541
70937SOL     OW14643   2.317  11.529   7.829
70937SOL    HW114644   2.311  11.625   7.830
70937SOL    HW214645   2.391  11.510   7.771
70938SOL     OW14646  13.194   8.390   2.194
70938SOL    HW114647  13.194   8.485   2.181
70938SOL    HW214648  13.237   8.355   2.116
70939SOL     OW14649   4.376  12.673  13.820
70939SOL    HW114650   4.345  12.715  13.740
70939SOL    HW214651   4.316  12.599  13.833
70940SOL     OW14652   2.741   1.293   3.378
70940SOL    HW114653   2.793   1.275   3.456
70940SOL    HW214654   2.652   1.267   3.403
70941SOL     OW14655   0.014   3.905   0.825
70941SOL    HW114656   0.005   3.862   0.910
70941SOL    HW214657   0.101   3.881   0.795
70942SOL     OW14658   5.069   9.177   4.942
70942SOL    HW114659   5.135   9.213   4.882
70942SOL    HW214660   5.118   9.158   5.022
70943SOL     OW14661  10.142   0.167   1.938
70943SOL    HW114662  10.198   0.091   1.951
70943SOL    HW214663  10.053   0.135   1.952
70944SOL     OW14664  14.846  11.217   8.486
70944SOL    HW114665  14.863  11.267   8.407
70944SOL    HW214666  14.754  11.192   8.479
70945SOL     OW14667  13.117  10.344  14.662
70945SOL    HW114668  13.135  10.389  14.744
70945SOL    HW214669  13.022  10.346  14.653
70946SOL     OW14670   6.576  10.674   8.361
70946SOL    HW114671   6.627  10.696   8.283
70946SOL    HW214672   6.585  10.579   8.369
70947SOL     OW14673  12.240  10.223   6.868
70947SOL    HW114674  12.267  10.140   6.906
70947SOL    HW214675  12.225  10.280   6.944
70948SOL     OW14676  11.305   7.650   9.292
70948SOL    HW114677  11.235   7.600   9.250
70948SOL    HW214678  11.380   7.591   9.290
70949SOL     OW14679  14.702   5.241  13.939
70949SOL    HW114680  14.793   5.225  13.912
70949SOL    HW214681  14.708   5.255  14.034
70950SOL     OW14682   9.126  12.621   5.581
70950SOL    HW114683   9.058  12.610   5.648
70950SOL    HW214684   9.077  12.641   5.501
70951SOL     OW14685  13.361   4.281   8.157
70951SOL    HW114686  13.377   4.335   8.234
70951SOL    HW214687  13.288   4.324   8.113
70952SOL     OW14688  12.590  13.574   6.187
70952SOL    HW114689  12.565  13.644   6.127
70952SOL    HW214690  12.634  13.619   6.259
70953SOL     OW14691   0.620   1.143   2.097
70953SOL    HW114692   0.599   1.224   2.143
70953SOL    HW214693   0.535   1.106   2.074
70954SOL     OW14694   5.830  10.004   6.576
70954SOL    HW114695   5.864  10.040   6.494
70954SOL    HW214696   5.874   9.920   6.586
70955SOL     OW14697   7.168  12.227  13.824
70955SOL    HW114698   7.146  12.318  13.804
70955SOL    HW214699   7.097  12.197  13.881
70956SOL     OW14700   9.314   1.958   3.699
70956SOL    HW114701   9.327   2.010   3.779
70956SOL    HW214702   9.353   2.010   3.629
70957SOL     OW14703   3.666   8.136   9.291
70957SOL    HW114704   3.742   8.078   9.296
70957SOL    HW214705   3.703   8.221   9.267
70958SOL     OW14706   4.881   7.923  12.174
70958SOL    HW114707   4.903   7.926  12.267
70958SOL    HW214708   4.960   7.889  12.131
70959SOL     OW14709   8.329   0.797  13.140
70959SOL    HW114710   8.292   0.804  13.228
70959SOL    HW214711   8.299   0.712  13.108
70960SOL     OW14712   5.885   8.038   3.069
70960SOL    HW114713   5.917   8.023   3.158
70960SOL    HW214714   5.810   7.979   3.061
70961SOL     OW14715   5.734  12.139  11.086
70961SOL    HW114716   5.640  12.143  11.068
70961SOL    HW214717   5.741  12.077  11.159
70962SOL     OW14718  10.692   5.419   3.549
70962SOL    HW114719  10.686   5.330   3.514
70962SOL    HW214720  10.677   5.409   3.643
70963SOL     OW14721   1.921  13.294  12.610
70963SOL    HW114722   2.011  13.325  12.599
70963SOL    HW214723   1.923  13.203  12.581
70964SOL     OW14724   2.949   1.328   1.719
70964SOL    HW114725   2.896   1.279   1.655
70964SOL    HW214726   3.018   1.369   1.666
70965SOL     OW14727   8.972  14.796   4.237
70965SOL    HW114728   8.900  14.859   4.226
70965SOL    HW214729   9.049  14.844   4.206
70966SOL     OW14730   7.110   2.928   2.298
70966SOL    HW114731   7.104   3.016   2.336
70966SOL    HW214732   7.188   2.890   2.338
70967SOL     OW14733   3.541  14.321  14.270
70967SOL    HW114734   3.528  14.243  14.324
70967SOL    HW214735   3.468  14.320  14.208
70968SOL     OW14736   2.957   2.462   9.012
70968SOL    HW114737   3.009   2.529   9.055
70968SOL    HW214738   3.010   2.434   8.938
70969SOL     OW14739  11.554  14.214   2.223
70969SOL    HW114740  11.624  14.186   2.163
70969SOL    HW214741  11.478  14.163   2.196
70970SOL     OW14742   2.200  13.665   6.934
70970SOL    HW114743   2.168  13.697   7.018
70970SOL    HW214744   2.137  13.696   6.870
70971SOL     OW14745   2.263   5.922   9.637
70971SOL    HW114746   2.236   5.832   9.654
70971SOL    HW214747   2.355   5.925   9.662
70972SOL     OW14748   7.521   4.873   6.134
70972SOL    HW114749   7.561   4.796   6.094
70972SOL    HW214750   7.553   4.947   6.082
70973SOL     OW14751  12.899   7.353   1.935
70973SOL    HW114752  12.924   7.433   1.887
70973SOL    HW214753  12.806   7.366   1.954
70974SOL     OW14754   4.190   0.546   4.262
70974SOL    HW114755   4.225   0.608   4.198
70974SOL    HW214756   4.248   0.471   4.258
70975SOL     OW14757   0.347   4.299   0.910
70975SOL    HW114758   0.270   4.251   0.941
70975SOL    HW214759   0.327   4.321   0.820
70976SOL     OW14760   8.237   0.278  13.971
70976SOL    HW114761   8.154   0.232  13.959
70976SOL    HW214762   8.230   0.319  14.057
70977SOL     OW14763   9.938   5.242   4.736
70977SOL    HW114764   9.857   5.236   4.685
70977SOL    HW214765   9.962   5.335   4.731
70978SOL     OW14766   4.995  11.705  12.569
70978SOL    HW114767   5.023  11.747  12.650
70978SOL    HW214768   5.071  11.656  12.540
70979SOL     OW14769   0.020   6.270   7.066
70979SOL    HW114770  14.822   6.293   7.126
70979SOL    HW214771   0.098   6.267   7.122
70980SOL     OW14772   2.050  12.905  13.092
70980SOL    HW114773   2.049  12.818  13.054
70980SOL    HW214774   2.044  12.891  13.186
70981SOL     OW14775   6.235   7.201  14.073
70981SOL    HW114776   6.218   7.180  14.164
70981SOL    HW214777   6.201   7.290  14.062
70982SOL     OW14778  12.518   9.237  13.822
70982SOL    HW114779  12.599   9.285  13.802
70982SOL    HW214780  12.450   9.304  13.824
70983SOL     OW14781   3.641   5.746   8.189
70983SOL    HW114782   3.698   5.762   8.264
70983SOL    HW214783   3.645   5.827   8.138
70984SOL     OW14784  14.629  11.253   4.198
70984SOL    HW114785  14.658  11.163   4.184
70984SOL    HW214786  14.550  11.245   4.251
70985SOL     OW14787  10.797   3.443   1.229
70985SOL    HW114788  10.848   3.504   1.283
70985SOL    HW214789  10.752   3.500   1.166
70986SOL     OW14790   0.342   7.283  12.879
70986SOL    HW114791   0.414   7.330  12.921
70986SOL    HW214792   0.384   7.213  12.829
70987SOL     OW14793  13.879   2.176  11.727
70987SOL    HW114794  13.920   2.140  11.805
70987SOL    HW214795  13.936   2.248  11.700
70988SOL     OW14796   9.774  14.652   9.139
70988SOL    HW114797   9.762  14.568   9.094
70988SOL    HW214798   9.693  14.700   9.122
70989SOL     OW14799  13.165   6.001  11.356
70989SOL    HW114800  13.222   6.010  11.432
70989SOL    HW214801  13.216   5.950  11.293
70990SOL     OW14802  12.793   9.007  14.695
70990SOL    HW114803  12.839   9.026  14.613
70990SOL    HW214804  12.821   9.076  14.755
70991SOL     OW14805   0.339   0.289   3.902
70991SOL    HW114806   0.307   0.214   3.852
70991SOL    HW214807   0.394   0.337   3.841
70992SOL     OW14808   0.065   0.869   9.828
70992SOL    HW114809   0.061   0.812   9.905
70992SOL    HW214810  14.873   0.833   9.768
70993SOL     OW14811   9.523   9.419  10.219
70993SOL    HW114812   9.493   9.329  10.201
70993SOL    HW214813   9.470   9.473  10.161
70994SOL     OW14814  10.341   6.219   5.120
70994SOL    HW114815  10.427   6.231   5.079
70994SOL    HW214816  10.349   6.138   5.170
70995SOL     OW14817   0.156   9.305   9.118
70995SOL    HW114818   0.204   9.223   9.110
70995SOL    HW214819   0.080   9.283   9.173
70996SOL     OW14820  12.168   0.354   0.350
70996SOL    HW114821  12.159   0.276   0.405
70996SOL    HW214822  12.090   0.406   0.370
70997SOL     OW14823   6.927   6.682   0.210
70997SOL    HW114824   6.987   6.750   0.239
70997SOL    HW214825   6.943   6.609   0.270
70998SOL     OW14826  13.963  12.304   1.978
70998SOL    HW114827  14.033  12.273   2.034
70998SOL    HW214828  13.993  12.285   1.889
70999SOL     OW14829   9.222   5.213   1.209
70999SOL    HW114830   9.154   5.278   1.192
70999SOL    HW214831   9.238   5.219   1.304
71000SOL     OW14832   2.575  13.550   9.156
71000SOL    HW114833   2.633  13.623   9.180
71000SOL    HW214834   2.614  13.474   9.200
71001SOL     OW14835   4.028   4.858   5.356
71001SOL    HW114836   3.985   4.826   5.277
71001SOL    HW214837   3.965   4.842   5.426
71002SOL     OW14838   2.336   2.434   9.483
71002SOL    HW114839   2.416   2.487   9.478
71002SOL    HW214840   2.304   2.429   9.393
71003SOL     OW14841   2.208   3.546   8.520
71003SOL    HW114842   2.291   3.514   8.556
71003SOL    HW214843   2.227   3.634   8.489
71004SOL     OW14844   2.566   7.037   2.343
71004SOL    HW114845   2.643   7.071   2.389
71004SOL    HW214846   2.547   7.102   2.276
71005SOL     OW14847  12.866   0.054  13.113
71005SOL    HW114848  12.779   0.054  13.154
71005SOL    HW214849  12.857  14.867  13.039
71006SOL     OW14850   4.653   8.659   4.942
71006SOL    HW114851   4.690   8.607   4.871
71006SOL    HW214852   4.558   8.658   4.926
71007SOL     OW14853   8.894  10.956   4.528
71007SOL    HW114854   8.832  11.028   4.517
71007SOL    HW214855   8.913  10.927   4.439
71008SOL     OW14856  12.284  13.084   4.186
71008SOL    HW114857  12.343  13.159   4.191
71008SOL    HW214858  12.203  13.115   4.225
71009SOL     OW14859  10.117   5.313   0.054
71009SOL    HW114860  10.138   5.227   0.017
71009SOL    HW214861  10.074   5.293   0.137
71010SOL     OW14862   9.796  14.635   4.899
71010SOL    HW114863   9.889  14.631   4.876
71010SOL    HW214864   9.793  14.691   4.977
71011SOL     OW14865  10.485   7.142  10.319
71011SOL    HW114866  10.503   7.236  10.319
71011SOL    HW214867  10.488   7.118  10.412
71012SOL     OW14868   9.915   5.795   1.720
71012SOL    HW114869   9.847   5.737   1.685
71012SOL    HW214870   9.884   5.817   1.808
71013SOL     OW14871   1.382   6.333   4.774
71013SOL    HW114872   1.403   6.423   4.800
71013SOL    HW214873   1.415   6.325   4.684
71014SOL     OW14874   2.091   1.744   8.256
71014SOL    HW114875   2.106   1.687   8.181
71014SOL    HW214876   2.167   1.731   8.312
71015SOL     OW14877  10.472   6.554   5.184
71015SOL    HW114878  10.381   6.537   5.158
71015SOL    HW214879  10.508   6.467   5.201
71016SOL     OW14880   0.573   2.372   9.410
71016SOL    HW114881   0.579   2.377   9.314
71016SOL    HW214882   0.646   2.316   9.436
71017SOL     OW14883  10.424   2.346   4.747
71017SOL    HW114884  10.516   2.343   4.772
71017SOL    HW214885  10.390   2.424   4.790
71018SOL     OW14886  13.736  11.472  13.215
71018SOL    HW114887  13.687  11.422  13.149
71018SOL    HW214888  13.687  11.554  13.224
71019SOL     OW14889   1.134  11.353   3.453
71019SOL    HW114890   1.188  11.295   3.507
71019SOL    HW214891   1.049  11.310   3.449
71020SOL     OW14892   2.735   9.502   4.231
71020SOL    HW114893   2.712   9.588   4.197
71020SOL    HW214894   2.796   9.520   4.303
71021SOL     OW14895   4.897   5.213   6.622
71021SOL    HW114896   4.972   5.272   6.610
71021SOL    HW214897   4.854   5.212   6.537
71022SOL     OW14898   6.593   4.795   2.888
71022SOL    HW114899   6.572   4.825   2.976
71022SOL    HW214900   6.659   4.727   2.900
71023SOL     OW14901   8.345  12.921   8.528
71023SOL    HW114902   8.341  12.827   8.510
71023SOL    HW214903   8.352  12.962   8.441
71024SOL     OW14904   8.444   8.718  14.395
71024SOL    HW114905   8.404   8.673  14.470
71024SOL    HW214906   8.480   8.647  14.342
71025SOL     OW14907  14.798   8.567  10.124
71025SOL    HW114908   0.010   8.606  10.144
71025SOL    HW214909  14.735   8.637  10.142
71026SOL     OW14910   0.993   2.367   6.014
71026SOL    HW114911   1.032   2.377   6.101
71026SOL    HW214912   1.060   2.320   5.963
71027SOL     OW14913   2.358  13.994   6.048
71027SOL    HW114914   2.376  14.086   6.029
71027SOL    HW214915   2.383  13.983   6.139
71028SOL     OW14916   2.713  10.214  11.329
71028SOL    HW114917   2.660  10.138  11.308
71028SOL    HW214918   2.716  10.265  11.248
71029SOL     OW14919   1.319   3.334   0.925
71029SOL    HW114920   1.401   3.297   0.958
71029SOL    HW214921   1.345   3.417   0.884
71030SOL     OW14922  12.797   3.722   1.647
71030SOL    HW114923  12.874   3.717   1.591
71030SOL    HW214924  12.823   3.677   1.728
71031SOL     OW14925   2.457   7.440   0.716
71031SOL    HW114926   2.368   7.404   0.716
71031SOL    HW214927   2.487   7.430   0.806
71032SOL     OW14928   8.913   7.282  12.008
71032SOL    HW114929   8.831   7.234  12.002
71032SOL    HW214930   8.934   7.282  12.102
71033SOL     OW14931   8.395   4.919   0.377
71033SOL    HW114932   8.457   4.866   0.327
71033SOL    HW214933   8.403   4.886   0.467
71034SOL     OW14934   2.500  10.639   1.399
71034SOL    HW114935   2.585  10.654   1.440
71034SOL    HW214936   2.484  10.546   1.412
71035SOL     OW14937   5.412   8.488   6.909
71035SOL    HW114938   5.487   8.482   6.969
71035SOL    HW214939   5.445   8.539   6.835
71036SOL     OW14940   5.504   1.581   1.784
71036SOL    HW114941   5.478   1.537   1.864
71036SOL    HW214942   5.422   1.595   1.736
71037SOL     OW14943  10.472   5.527  11.207
71037SOL    HW114944  10.444   5.582  11.280
71037SOL    HW214945  10.542   5.473  11.243
71038SOL     OW14946  12.840   3.436  12.403
71038SOL    HW114947  12.830   3.445  12.308
71038SOL    HW214948  12.890   3.354  12.413
71039SOL     OW14949   3.990   4.714   9.443
71039SOL    HW114950   4.054   4.661   9.490
71039SOL    HW214951   3.905   4.682   9.473
71040SOL     OW14952  10.789   6.360  12.566
71040SOL    HW114953  10.702   6.336  12.598
71040SOL    HW214954  10.775   6.443  12.521
71041SOL     OW14955   0.510   6.038  11.036
71041SOL    HW114956   0.487   5.965  11.094
71041SOL    HW214957   0.553   5.997  10.961
71042SOL     OW14958   5.410  12.949   7.395
71042SOL    HW114959   5.492  12.987   7.365
71042SOL    HW214960   5.347  13.022   7.392
71043SOL     OW14961   9.357   8.862  11.399
71043SOL    HW114962   9.311   8.896  11.476
71043SOL    HW214963   9.445   8.841  11.431
71044SOL     OW14964   6.305  10.894   5.511
71044SOL    HW114965   6.398  10.889   5.488
71044SOL    HW214966   6.297  10.976   5.560
71045SOL     OW14967   2.288  14.750  11.797
71045SOL    HW114968   2.368  14.779  11.841
71045SOL    HW214969   2.268  14.666  11.839
71046SOL     OW14970   3.563   9.774   5.772
71046SOL    HW114971   3.579   9.680   5.758
71046SOL    HW214972   3.650   9.812   5.781
71047SOL     OW14973  12.502   8.792   4.337
71047SOL    HW114974  12.515   8.755   4.424
71047SOL    HW214975  12.590   8.810   4.305
71048SOL     OW14976   5.654   7.839   2.339
71048SOL    HW114977   5.637   7.837   2.433
71048SOL    HW214978   5.717   7.910   2.327
71049SOL     OW14979   4.826   7.996   5.906
71049SOL    HW114980   4.835   7.902   5.891
71049SOL    HW214981   4.756   8.004   5.971
71050SOL     OW14982  14.519   9.118   1.548
71050SOL    HW114983  14.457   9.146   1.480
71050SOL    HW214984  14.498   9.173   1.623
71051SOL     OW14985  12.624   8.202   8.100
71051SOL    HW114986  12.557   8.138   8.078
71051SOL    HW214987  12.673   8.163   8.172
71052SOL     OW14988  13.496  10.611   0.205
71052SOL    HW114989  13.491  10.663   0.285
71052SOL    HW214990  13.473  10.522   0.232
71053SOL     OW14991   7.312  11.026   4.476
71053SOL    HW114992   7.266  10.954   4.434
71053SOL    HW214993   7.258  11.103   4.459
71054SOL     OW14994   9.251   9.200   4.278
71054SOL    HW114995   9.335   9.222   4.237
71054SOL    HW214996   9.191   9.266   4.244
71055SOL     OW14997   6.144   5.364   5.726
71055SOL    HW114998   6.132   5.378   5.632
71055SOL    HW214999   6.206   5.433   5.753
71056SOL     OW15000   3.441  10.651  14.739
71056SOL    HW115001   3.470  10.566  14.772
71056SOL    HW215002   3.521  10.703  14.734
71057SOL     OW15003   0.906  10.343  10.326
71057SOL    HW115004   0.874  10.253  10.335
71057SOL    HW215005   0.985  10.346  10.381
71058SOL     OW15006   6.226   2.116   5.057
71058SOL    HW115007   6.211   2.076   5.142
71058SOL    HW215008   6.205   2.048   4.994
71059SOL     OW15009   8.574   5.091   6.130
71059SOL    HW115010   8.538   5.026   6.190
71059SOL    HW215011   8.659   5.057   6.104
71060SOL     OW15012  13.583  14.809   2.233
71060SOL    HW115013  13.542  14.759   2.304
71060SOL    HW215014  13.616   0.015   2.276
71061SOL     OW15015   6.983   4.146   0.814
71061SOL    HW115016   6.962   4.157   0.721
71061SOL    HW215017   6.939   4.220   0.857
71062SOL     OW15018   2.275  13.513   4.070
71062SOL    HW115019   2.329  13.590   4.083
71062SOL    HW215020   2.338  13.443   4.050
71063SOL     OW15021  11.847   6.063   9.667
71063SOL    HW115022  11.776   6.077   9.604
71063SOL    HW215023  11.912   6.130   9.646
71064SOL     OW15024   2.731   9.744   1.126
71064SOL    HW115025   2.764   9.831   1.147
71064SOL    HW215026   2.678   9.757   1.047
71065SOL     OW15027  14.563   1.638   6.956
71065SOL    HW115028  14.480   1.598   6.929
71065SOL    HW215029  14.601   1.671   6.876
71066SOL     OW15030   3.143   5.269   8.879
71066SOL    HW115031   3.206   5.226   8.821
71066SOL    HW215032   3.187   5.269   8.965
71067SOL     OW15033   5.202  14.821  11.636
71067SOL    HW115034   5.256  14.784  11.566
71067SOL    HW215035   5.183  14.747  11.694
71068SOL     OW15036   4.037   5.623   4.721
71068SOL    HW115037   4.069   5.539   4.690
71068SOL    HW215038   4.068   5.630   4.811
71069SOL     OW15039   9.190   3.492   9.605
71069SOL    HW115040   9.160   3.495   9.515
71069SOL    HW215041   9.187   3.583   9.635
71070SOL     OW15042   2.048   0.297   1.927
71070SOL    HW115043   2.056   0.350   2.006
71070SOL    HW215044   2.111   0.226   1.939
71071SOL     OW15045  14.088  14.393  14.568
71071SOL    HW115046  14.083  14.469  14.626
71071SOL    HW215047  14.052  14.423  14.485
71072SOL     OW15048   8.792  11.631   8.133
71072SOL    HW115049   8.830  11.668   8.212
71072SOL    HW215050   8.775  11.539   8.154
71073SOL     OW15051  11.040   8.733   4.971
71073SOL    HW115052  11.135   8.735   4.971
71073SOL    HW215053  11.014   8.775   5.052
71074SOL     OW15054  10.079  12.348  11.220
71074SOL    HW115055   9.996  12.344  11.267
71074SOL    HW215056  10.145  12.331  11.287
71075SOL     OW15057   7.083  13.478   0.300
71075SOL    HW115058   7.050  13.566   0.284
71075SOL    HW215059   7.132  13.486   0.382
71076SOL     OW15060   0.994  11.011   3.416
71076SOL    HW115061   0.972  10.936   3.360
71076SOL    HW215062   1.081  10.990   3.450
71077SOL     OW15063   3.450   9.547   4.747
71077SOL    HW115064   3.403   9.487   4.805
71077SOL    HW215065   3.449   9.630   4.794
71078SOL     OW15066  13.701   5.937   0.022
71078SOL    HW115067  13.650   5.984   0.088
71078SOL    HW215068  13.739   5.863   0.070
71079SOL     OW15069   2.972   7.616  14.328
71079SOL    HW115070   2.988   7.654  14.414
71079SOL    HW215071   2.974   7.690  14.267
71080SOL     OW15072   1.035   8.862   4.220
71080SOL    HW115073   1.031   8.899   4.308
71080SOL    HW215074   1.054   8.937   4.163
71081SOL     OW15075  11.170   1.284   2.466
71081SOL    HW115076  11.188   1.350   2.399
71081SOL    HW215077  11.099   1.321   2.519
71082SOL     OW15078  11.642  11.572   2.596
71082SOL    HW115079  11.641  11.651   2.649
71082SOL    HW215080  11.620  11.501   2.657
71083SOL     OW15081   6.060  13.758   0.736
71083SOL    HW115082   5.983  13.812   0.756
71083SOL    HW215083   6.024  13.669   0.725
71084SOL     OW15084   3.245   4.625   4.666
71084SOL    HW115085   3.214   4.607   4.755
71084SOL    HW215086   3.271   4.717   4.668
71085SOL     OW15087   6.132   0.560   9.303
71085SOL    HW115088   6.194   0.539   9.233
71085SOL    HW215089   6.179   0.539   9.384
71086SOL     OW15090   8.812   7.858  14.086
71086SOL    HW115091   8.794   7.919  14.158
71086SOL    HW215092   8.824   7.774  14.128
71087SOL     OW15093   8.906   7.203   0.065
71087SOL    HW115094   8.973   7.199   0.133
71087SOL    HW215095   8.842   7.136   0.089
71088SOL     OW15096   8.198  11.214   5.978
71088SOL    HW115097   8.129  11.172   6.029
71088SOL    HW215098   8.159  11.295   5.946
71089SOL     OW15099   5.292   6.583  13.819
71089SOL    HW115100   5.335   6.552  13.740
71089SOL    HW215101   5.199   6.562  13.806
71090SOL     OW15102  13.492   9.908   8.914
71090SOL    HW115103  13.571   9.895   8.862
71090SOL    HW215104  13.471   9.821   8.948
71091SOL     OW15105   9.417   6.455   4.427
71091SOL    HW115106   9.349   6.395   4.397
71091SOL    HW215107   9.447   6.418   4.510
71092SOL     OW15108  12.828   3.208   7.054
71092SOL    HW115109  12.778   3.185   6.975
71092SOL    HW215110  12.811   3.137   7.115
71093SOL     OW15111  10.100   1.319   1.401
71093SOL    HW115112  10.174   1.297   1.344
71093SOL    HW215113  10.073   1.236   1.438
71094SOL     OW15114   1.758   3.750   2.541
71094SOL    HW115115   1.778   3.678   2.601
71094SOL    HW215116   1.711   3.710   2.468
71095SOL     OW15117   4.103  10.170   7.958
71095SOL    HW115118   4.133  10.093   8.007
71095SOL    HW215119   4.180  10.227   7.953
71096SOL     OW15120  12.565   2.160   2.187
71096SOL    HW115121  12.540   2.113   2.266
71096SOL    HW215122  12.645   2.206   2.211
71097SOL     OW15123   8.618  12.643  12.493
71097SOL    HW115124   8.650  12.713  12.435
71097SOL    HW215125   8.546  12.603  12.444
71098SOL     OW15126   3.351   8.045   2.837
71098SOL    HW115127   3.413   8.065   2.767
71098SOL    HW215128   3.382   7.963   2.875
71099SOL     OW15129  13.245  12.191  10.537
71099SOL    HW115130  13.202  12.191  10.451
71099SOL    HW215131  13.337  12.205  10.518
71100SOL     OW15132   5.836   2.145   4.758
71100SOL    HW115133   5.876   2.124   4.842
71100SOL    HW215134   5.852   2.068   4.703
71101SOL     OW15135  11.623   9.035   6.598
71101SOL    HW115136  11.536   9.075   6.609
71101SOL    HW215137  11.624   9.005   6.507
71102SOL     OW15138  10.545   3.516   8.427
71102SOL    HW115139  10.510   3.445   8.372
71102SOL    HW215140  10.475   3.536   8.489
71103SOL     OW15141   7.796   4.392   8.710
71103SOL    HW115142   7.888   4.418   8.718
71103SOL    HW215143   7.775   4.353   8.794
71104SOL     OW15144   0.311   9.658  13.826
71104SOL    HW115145   0.376   9.711  13.873
71104SOL    HW215146   0.333   9.567  13.848
71105SOL     OW15147  14.590   1.230   7.016
71105SOL    HW115148  14.655   1.288   6.976
71105SOL    HW215149  14.641   1.163   7.062
71106SOL     OW15150  11.417   8.976   0.329
71106SOL    HW115151  11.340   8.922   0.308
71106SOL    HW215152  11.450   9.004   0.244
71107SOL     OW15153   8.858   4.284   8.497
71107SOL    HW115154   8.800   4.212   8.520
71107SOL    HW215155   8.942   4.262   8.537
71108SOL     OW15156   2.878  13.571   9.457
71108SOL    HW115157   2.969  13.602   9.454
71108SOL    HW215158   2.886  13.476   9.451
71109SOL     OW15159   2.288  11.419   9.725
71109SOL    HW115160   2.246  11.376   9.650
71109SOL    HW215161   2.293  11.350   9.792
71110SOL     OW15162   6.319  14.854   5.233
71110SOL    HW115163   6.407   0.020   5.234
71110SOL    HW215164   6.299  14.843   5.140
71111SOL     OW15165   3.982   3.206   5.591
71111SOL    HW115166   3.960   3.293   5.559
71111SOL    HW215167   3.934   3.146   5.534
71112SOL     OW15168   5.637  13.976   3.547
71112SOL    HW115169   5.622  13.976   3.452
71112SOL    HW215170   5.644  13.883   3.570
71113SOL     OW15171  10.234   2.138   7.545
71113SOL    HW115172  10.238   2.068   7.480
71113SOL    HW215173  10.202   2.214   7.497
71114SOL     OW15174  11.456   7.808  12.291
71114SOL    HW115175  11.539   7.762  12.279
71114SOL    HW215176  11.468   7.858  12.372
71115SOL     OW15177   2.722  12.680  14.834
71115SOL    HW115178   2.775  12.643   0.032
71115SOL    HW215179   2.747  12.631  14.756
71116SOL     OW15180   5.283   5.631   0.702
71116SOL    HW115181   5.205   5.577   0.701
71116SOL    HW215182   5.345   5.586   0.643
71117SOL     OW15183  14.330   8.726   1.689
71117SOL    HW115184  14.388   8.713   1.614
71117SOL    HW215185  14.259   8.664   1.675
71118SOL     OW15186   0.033  11.072   4.615
71118SOL    HW115187   0.068  11.161   4.617
71118SOL    HW215188  14.824  11.080   4.566
71119SOL     OW15189   4.249   4.534  14.180
71119SOL    HW115190   4.268   4.567  14.268
71119SOL    HW215191   4.300   4.590  14.122
71120SOL     OW15192  11.712   0.549  12.122
71120SOL    HW115193  11.642   0.594  12.074
71120SOL    HW215194  11.744   0.483  12.060
71121SOL     OW15195   9.190   4.085  13.584
71121SOL    HW115196   9.214   4.073  13.492
71121SOL    HW215197   9.260   4.141  13.619
71122SOL     OW15198   4.621  12.402  11.262
71122SOL    HW115199   4.694  12.371  11.315
71122SOL    HW215200   4.658  12.411  11.174
71123SOL     OW15201  11.567   4.803  10.139
71123SOL    HW115202  11.486   4.791  10.188
71123SOL    HW215203  11.633   4.819  10.207
71124SOL     OW15204   9.840   1.629   7.674
71124SOL    HW115205   9.804   1.623   7.762
71124SOL    HW215206   9.764   1.651   7.619
71125SOL     OW15207  12.312   5.100  14.574
71125SOL    HW115208  12.271   5.158  14.639
71125SOL    HW215209  12.276   5.128  14.490
71126SOL     OW15210  12.658  10.460   9.451
71126SOL    HW115211  12.569  10.435   9.476
71126SOL    HW215212  12.693  10.383   9.406
71127SOL     OW15213   1.852   2.542   2.185
71127SOL    HW115214   1.869   2.540   2.279
71127SOL    HW215215   1.909   2.474   2.149
71128SOL     OW15216   6.162  14.009   5.825
71128SOL    HW115217   6.168  13.917   5.852
71128SOL    HW215218   6.252  14.039   5.824
71129SOL     OW15219   5.095   0.437  11.995
71129SOL    HW115220   5.165   0.459  11.934
71129SOL    HW215221   5.014   0.463  11.951
71130SOL     OW15222   2.398  12.825   8.132
71130SOL    HW115223   2.483  12.816   8.174
71130SOL    HW215224   2.363  12.736   8.127
71131SOL     OW15225   6.149   4.142  13.328
71131SOL    HW115226   6.073   4.084  13.339
71131SOL    HW215227   6.224   4.082  13.323
71132SOL     OW15228   5.811   7.418   7.190
71132SOL    HW115229   5.751   7.492   7.182
71132SOL    HW215230   5.756   7.345   7.218
71133SOL     OW15231   0.113   7.653   0.890
71133SOL    HW115232   0.129   7.723   0.954
71133SOL    HW215233   0.074   7.697   0.815
71134SOL     OW15234  11.912   8.565   8.088
71134SOL    HW115235  11.880   8.479   8.115
71134SOL    HW215236  11.840   8.603   8.039
71135SOL     OW15237   6.601   3.905   4.604
71135SOL    HW115238   6.620   3.978   4.662
71135SOL    HW215239   6.563   3.838   4.660
71136SOL     OW15240   9.780   4.530  11.036
71136SOL    HW115241   9.856   4.560  10.986
71136SOL    HW215242   9.727   4.482  10.972
71137SOL     OW15243   5.548   0.921   2.904
71137SOL    HW115244   5.515   0.874   2.828
71137SOL    HW215245   5.560   1.011   2.873
71138SOL     OW15246  11.804   1.463   2.300
71138SOL    HW115247  11.890   1.435   2.270
71138SOL    HW215248  11.783   1.540   2.247
71139SOL     OW15249  11.239  12.193   3.511
71139SOL    HW115250  11.285  12.131   3.568
71139SOL    HW215251  11.157  12.149   3.490
71140SOL     OW15252   1.122   5.798  10.598
71140SOL    HW115253   1.090   5.831  10.682
71140SOL    HW215254   1.057   5.732  10.572
71141SOL     OW15255   2.207  14.204   2.778
71141SOL    HW115256   2.186  14.245   2.694
71141SOL    HW215257   2.221  14.112   2.757
71142SOL     OW15258   0.113   9.097  12.261
71142SOL    HW115259   0.182   9.085  12.196
71142SOL    HW215260   0.144   9.169  12.316
71143SOL     OW15261   6.089  10.103  13.858
71143SOL    HW115262   6.079  10.008  13.862
71143SOL    HW215263   6.182  10.118  13.876
71144SOL     OW15264  12.717   2.231  13.196
71144SOL    HW115265  12.758   2.275  13.271
71144SOL    HW215266  12.775   2.252  13.122
71145SOL     OW15267   4.372   1.054  11.303
71145SOL    HW115268   4.401   0.971  11.266
71145SOL    HW215269   4.282   1.064  11.274
71146SOL     OW15270   4.813  10.978  14.601
71146SOL    HW115271   4.748  10.918  14.565
71146SOL    HW215272   4.771  11.064  14.596
71147SOL     OW15273  13.866   8.251  13.710
71147SOL    HW115274  13.891   8.272  13.620
71147SOL    HW215275  13.856   8.337  13.752
71148SOL     OW15276   4.883   2.136   7.845
71148SOL    HW115277   4.928   2.221   7.846
71148SOL    HW215278   4.790   2.159   7.844
71149SOL     OW15279   0.754  10.076   5.915
71149SOL    HW115280   0.682  10.138   5.906
71149SOL    HW215281   0.833  10.130   5.913
71150SOL     OW15282  11.058  11.375   6.387
71150SOL    HW115283  11.128  11.385   6.323
71150SOL    HW215284  11.103  11.358   6.470
71151SOL     OW15285   8.034  13.522   2.025
71151SOL    HW115286   8.105  13.520   1.960
71151SOL    HW215287   7.954  13.526   1.973
71152SOL     OW15288   4.006  10.628  11.709
71152SOL    HW115289   3.920  10.612  11.670
71152SOL    HW215290   4.005  10.722  11.729
71153SOL     OW15291   6.825   2.819  12.370
71153SOL    HW115292   6.777   2.879  12.313
71153SOL    HW215293   6.816   2.734  12.327
71154SOL     OW15294   2.433   0.730   7.229
71154SOL    HW115295   2.437   0.768   7.317
71154SOL    HW215296   2.382   0.792   7.178
71155SOL     OW15297   8.364   9.224   1.605
71155SOL    HW115298   8.422   9.257   1.673
71155SOL    HW215299   8.417   9.226   1.525
71156SOL     OW15300   3.340   1.712   6.027
71156SOL    HW115301   3.301   1.780   6.083
71156SOL    HW215302   3.358   1.757   5.944
71157SOL     OW15303   3.587  10.485   3.191
71157SOL    HW115304   3.603  10.471   3.098
71157SOL    HW215305   3.492  10.500   3.197
71158SOL     OW15306  11.770   1.959   8.053
71158SOL    HW115307  11.732   2.034   8.007
71158SOL    HW215308  11.862   1.983   8.066
71159SOL     OW15309   4.299   0.213  11.783
71159SOL    HW115310   4.235   0.264  11.834
71159SOL    HW215311   4.384   0.236  11.820
71160SOL     OW15312  13.390   7.234   2.938
71160SOL    HW115313  13.355   7.306   2.885
71160SOL    HW215314  13.325   7.164   2.929
71161SOL     OW15315   2.742   1.841  14.177
71161SOL    HW115316   2.689   1.907  14.222
71161SOL    HW215317   2.809   1.890  14.130
71162SOL     OW15318   5.390  14.263   0.865
71162SOL    HW115319   5.399  14.218   0.781
71162SOL    HW215320   5.458  14.330   0.863
71163SOL     OW15321   7.143   2.954   5.315
71163SOL    HW115322   7.107   3.019   5.254
71163SOL    HW215323   7.233   2.983   5.330
71164SOL     OW15324  13.452   1.819   2.406
71164SOL    HW115325  13.465   1.913   2.393
71164SOL    HW215326  13.357   1.809   2.407
71165SOL     OW15327  13.663  12.613   5.284
71165SOL    HW115328  13.742  12.645   5.327
71165SOL    HW215329  13.684  12.523   5.258
71166SOL     OW15330   5.353   1.850  11.485
71166SOL    HW115331   5.414   1.800  11.430
71166SOL    HW215332   5.306   1.783  11.535
71167SOL     OW15333   4.554   5.513   2.800
71167SOL    HW115334   4.645   5.488   2.784
71167SOL    HW215335   4.519   5.444   2.856
71168SOL     OW15336   6.235   3.167   2.368
71168SOL    HW115337   6.183   3.214   2.433
71168SOL    HW215338   6.194   3.081   2.362
71169SOL     OW15339  14.292   6.784  14.855
71169SOL    HW115340  14.207   6.773  14.811
71169SOL    HW215341  14.344   6.709  14.825
71170SOL     OW15342   3.745   2.562  10.246
71170SOL    HW115343   3.714   2.629  10.185
71170SOL    HW215344   3.839   2.580  10.257
71171SOL     OW15345  13.370   0.779   0.755
71171SOL    HW115346  13.308   0.739   0.694
71171SOL    HW215347  13.365   0.724   0.834
71172SOL     OW15348   1.957  11.009  13.709
71172SOL    HW115349   1.966  11.093  13.753
71172SOL    HW215350   2.039  10.998  13.660
71173SOL     OW15351   5.422   3.970   5.116
71173SOL    HW115352   5.342   4.010   5.083
71173SOL    HW215353   5.403   3.877   5.123
71174SOL     OW15354  13.031  14.191   8.231
71174SOL    HW115355  12.955  14.179   8.288
71174SOL    HW215356  13.024  14.119   8.168
71175SOL     OW15357   8.795   1.464   6.214
71175SOL    HW115358   8.863   1.529   6.195
71175SOL    HW215359   8.828   1.417   6.290
71176SOL     OW15360   5.002   7.332   7.091
71176SOL    HW115361   4.973   7.349   7.001
71176SOL    HW215362   4.922   7.334   7.143
71177SOL     OW15363   6.559   8.424   8.828
71177SOL    HW115364   6.531   8.504   8.873
71177SOL    HW215365   6.485   8.364   8.836
71178SOL     OW15366   6.539   0.715   6.266
71178SOL    HW115367   6.588   0.761   6.198
71178SOL    HW215368   6.447   0.726   6.242
71179SOL     OW15369  11.662  10.405   2.159
71179SOL    HW115370  11.574  10.383   2.190
71179SOL    HW215371  11.650  10.429   2.067
71180SOL     OW15372  13.800   7.732   9.226
71180SOL    HW115373  13.851   7.666   9.180
71180SOL    HW215374  13.756   7.782   9.157
71181SOL     OW15375  14.118  11.028   2.639
71181SOL    HW115376  14.083  10.972   2.708
71181SOL    HW215377  14.212  11.010   2.638
71182SOL     OW15378   4.940   6.788   4.572
71182SOL    HW115379   4.991   6.782   4.653
71182SOL    HW215380   4.927   6.882   4.559
71183SOL     OW15381  11.276  12.106   1.586
71183SOL    HW115382  11.222  12.041   1.632
71183SOL    HW215383  11.220  12.184   1.581
71184SOL     OW15384  13.460   4.590  10.417
71184SOL    HW115385  13.494   4.501  10.423
71184SOL    HW215386  13.537   4.644  10.401
71185SOL     OW15387  12.410  11.237  10.109
71185SOL    HW115388  12.332  11.268  10.154
71185SOL    HW215389  12.463  11.197  10.177
71186SOL     OW15390  12.526   5.282   1.368
71186SOL    HW115391  12.493   5.346   1.431
71186SOL    HW215392  12.537   5.201   1.419
71187SOL     OW15393   9.880  14.750   0.079
71187SOL    HW115394   9.856  14.705   0.160
71187SOL    HW215395   9.919  14.681   0.025
71188SOL     OW15396   8.406  12.404  12.074
71188SOL    HW115397   8.345  12.460  12.027
71188SOL    HW215398   8.384  12.315  12.045
71189SOL     OW15399   4.058   2.993   9.993
71189SOL    HW115400   4.089   3.047   9.920
71189SOL    HW215401   4.070   2.903   9.962
71190SOL     OW15402   6.146   7.933   5.417
71190SOL    HW115403   6.239   7.933   5.442
71190SOL    HW215404   6.125   7.841   5.403
71191SOL     OW15405  13.388   5.588   9.408
71191SOL    HW115406  13.464   5.592   9.350
71191SOL    HW215407  13.378   5.494   9.427
71192SOL     OW15408   0.610  12.737   5.764
71192SOL    HW115409   0.643  12.695   5.684
71192SOL    HW215410   0.641  12.827   5.757
71193SOL     OW15411  14.670   4.789   6.031
71193SOL    HW115412  14.762   4.762   6.023
71193SOL    HW215413  14.664   4.871   5.982
71194SOL     OW15414  12.010  13.555   1.940
71194SOL    HW115415  11.985  13.641   1.976
71194SOL    HW215416  11.956  13.493   1.989
71195SOL     OW15417   4.021   5.100   4.337
71195SOL    HW115418   3.998   5.124   4.247
71195SOL    HW215419   3.962   5.027   4.358
71196SOL     OW15420   0.041  14.377   1.631
71196SOL    HW115421   0.083  14.447   1.681
71196SOL    HW215422   0.019  14.311   1.697
71197SOL     OW15423  12.604   5.690  13.516
71197SOL    HW115424  12.557   5.701  13.433
71197SOL    HW215425  12.629   5.598  13.518
71198SOL     OW15426  12.604   4.355  11.562
71198SOL    HW115427  12.641   4.371  11.475
71198SOL    HW215428  12.603   4.442  11.604
71199SOL     OW15429   4.929   8.570   7.661
71199SOL    HW115430   4.888   8.615   7.587
71199SOL    HW215431   5.007   8.528   7.623
71200SOL     OW15432   1.777   8.594   0.809
71200SOL    HW115433   1.722   8.632   0.740
71200SOL    HW215434   1.867   8.605   0.777
71201SOL     OW15435  12.256   6.491   8.328
71201SOL    HW115436  12.247   6.513   8.421
71201SOL    HW215437  12.305   6.564   8.291
71202SOL     OW15438   9.351   1.950  13.175
71202SOL    HW115439   9.299   1.987  13.105
71202SOL    HW215440   9.441   1.975  13.154
71203SOL     OW15441   3.171  11.481   0.311
71203SOL    HW115442   3.177  11.514   0.221
71203SOL    HW215443   3.160  11.386   0.300
71204SOL     OW15444  12.097   9.161   5.616
71204SOL    HW115445  12.088   9.066   5.608
71204SOL    HW215446  12.136   9.188   5.532
71205SOL     OW15447   4.943   2.404   0.244
71205SOL    HW115448   4.992   2.435   0.320
71205SOL    HW215449   4.886   2.478   0.221
71206SOL     OW15450  12.328   3.840  10.438
71206SOL    HW115451  12.328   3.799  10.524
71206SOL    HW215452  12.372   3.778  10.381
71207SOL     OW15453  10.760  13.661   9.331
71207SOL    HW115454  10.699  13.684   9.401
71207SOL    HW215455  10.708  13.665   9.251
71208SOL     OW15456   5.660   9.492   3.910
71208SOL    HW115457   5.645   9.511   3.817
71208SOL    HW215458   5.737   9.544   3.932
71209SOL     OW15459   7.651   7.718  10.525
71209SOL    HW115460   7.627   7.801  10.567
71209SOL    HW215461   7.568   7.673  10.513
71210SOL     OW15462   2.114   0.153  14.773
71210SOL    HW115463   2.184   0.097  14.739
71210SOL    HW215464   2.160   0.228  14.812
71211SOL     OW15465   8.471   0.542  13.317
71211SOL    HW115466   8.445   0.451  13.324
71211SOL    HW215467   8.475   0.573  13.407
71212SOL     OW15468  14.185   7.831   8.846
71212SOL    HW115469  14.185   7.799   8.936
71212SOL    HW215470  14.131   7.769   8.798
71213SOL     OW15471   4.003   8.633   6.433
71213SOL    HW115472   4.035   8.547   6.406
71213SOL    HW215473   4.033   8.644   6.523
71214SOL     OW15474   1.396   4.419   0.954
71214SOL    HW115475   1.403   4.487   1.021
71214SOL    HW215476   1.302   4.403   0.946
71215SOL     OW15477  12.942  14.131   1.740
71215SOL    HW115478  12.967  14.208   1.688
71215SOL    HW215479  12.967  14.056   1.685
71216SOL     OW15480   2.911   1.632  11.981
71216SOL    HW115481   2.868   1.548  11.992
71216SOL    HW215482   2.840   1.694  11.963
71217SOL     OW15483  12.281   2.366  13.893
71217SOL    HW115484  12.282   2.336  13.984
71217SOL    HW215485  12.363   2.414  13.883
71218SOL     OW15486   4.074   3.808  10.280
71218SOL    HW115487   4.049   3.818  10.188
71218SOL    HW215488   4.000   3.847  10.328
71219SOL     OW15489   5.452   3.203   9.786
71219SOL    HW115490   5.479   3.285   9.744
71219SOL    HW215491   5.384   3.229   9.848
71220SOL     OW15492   7.198  13.509   9.846
71220SOL    HW115493   7.272  13.523   9.786
71220SOL    HW215494   7.159  13.596   9.856
71221SOL     OW15495   9.371   8.538  13.173
71221SOL    HW115496   9.443   8.580  13.220
71221SOL    HW215497   9.371   8.579  13.087
71222SOL     OW15498  12.967  13.954  11.107
71222SOL    HW115499  12.991  14.012  11.036
71222SOL    HW215500  13.021  13.876  11.094
71223SOL     OW15501  12.634  13.457   9.715
71223SOL    HW115502  12.539  13.468   9.720
71223SOL    HW215503  12.649  13.368   9.747
71224SOL     OW15504   6.968   6.091   5.330
71224SOL    HW115505   6.928   6.104   5.416
71224SOL    HW215506   6.998   6.178   5.304
71225SOL     OW15507   3.435  11.798   2.019
71225SOL    HW115508   3.502  11.794   1.951
71225SOL    HW215509   3.368  11.857   1.982
71226SOL     OW15510   7.081  13.554   8.098
71226SOL    HW115511   7.095  13.643   8.067
71226SOL    HW215512   7.023  13.515   8.032
71227SOL     OW15513  11.085   6.243   9.183
71227SOL    HW115514  11.003   6.254   9.134
71227SOL    HW215515  11.141   6.314   9.152
71228SOL     OW15516  12.029   1.249   1.866
71228SOL    HW115517  12.110   1.268   1.912
71228SOL    HW215518  12.056   1.229   1.777
71229SOL     OW15519   7.069   3.055  14.728
71229SOL    HW115520   7.095   2.987  14.666
71229SOL    HW215521   6.975   3.065  14.715
71230SOL     OW15522   3.726   8.346  14.371
71230SOL    HW115523   3.757   8.397  14.296
71230SOL    HW215524   3.679   8.409  14.425
71231SOL     OW15525   9.318   7.202   9.724
71231SOL    HW115526   9.223   7.195   9.725
71231SOL    HW215527   9.340   7.211   9.631
71232SOL     OW15528   1.496   1.710  14.717
71232SOL    HW115529   1.463   1.624  14.743
71232SOL    HW215530   1.441   1.772  14.765
71233SOL     OW15531   1.074   9.896  10.244
71233SOL    HW115532   1.028   9.960  10.298
71233SOL    HW215533   1.009   9.868  10.179
71234SOL     OW15534   1.272  13.499   9.261
71234SOL    HW115535   1.326  13.439   9.313
71234SOL    HW215536   1.185  13.492   9.298
71235SOL     OW15537  14.582   2.025   6.054
71235SOL    HW115538  14.661   2.009   6.106
71235SOL    HW215539  14.511   1.994   6.110
71236SOL     OW15540   4.705   4.140   2.154
71236SOL    HW115541   4.771   4.071   2.153
71236SOL    HW215542   4.667   4.134   2.242
71237SOL     OW15543   4.940   1.150  10.565
71237SOL    HW115544   4.985   1.202  10.498
71237SOL    HW215545   4.894   1.083  10.516
71238SOL     OW15546   6.129   4.175  14.636
71238SOL    HW115547   6.186   4.244  14.669
71238SOL    HW215548   6.132   4.107  14.704
71239SOL     OW15549  13.818   9.162   6.847
71239SOL    HW115550  13.734   9.183   6.805
71239SOL    HW215551  13.805   9.075   6.885
71240SOL     OW15552  10.323   7.630   3.680
71240SOL    HW115553  10.383   7.673   3.741
71240SOL    HW215554  10.242   7.620   3.730
71241SOL     OW15555   5.675   8.237  12.547
71241SOL    HW115556   5.738   8.191  12.602
71241SOL    HW215557   5.724   8.313  12.514
71242SOL     OW15558   6.095  13.230   0.179
71242SOL    HW115559   6.014  13.273   0.154
71242SOL    HW215560   6.072  13.173   0.252
71243SOL     OW15561   9.312  11.249  11.291
71243SOL    HW115562   9.303  11.319  11.356
71243SOL    HW215563   9.222  11.222  11.272
71244SOL     OW15564   4.741  14.636   2.156
71244SOL    HW115565   4.729  14.543   2.172
71244SOL    HW215566   4.654  14.674   2.169
71245SOL     OW15567  10.761   0.337   9.840
71245SOL    HW115568  10.834   0.363   9.784
71245SOL    HW215569  10.683   0.366   9.792
71246SOL     OW15570  14.052   5.562   4.255
71246SOL    HW115571  14.067   5.650   4.289
71246SOL    HW215572  14.116   5.552   4.184
71247SOL     OW15573   0.651  14.485  14.034
71247SOL    HW115574   0.737  14.457  14.066
71247SOL    HW215575   0.665  14.573  14.000
71248SOL     OW15576   9.072   9.561  11.046
71248SOL    HW115577   8.983   9.529  11.053
71248SOL    HW215578   9.108   9.554  11.134
71249SOL     OW15579   5.240  11.287   1.204
71249SOL    HW115580   5.276  11.343   1.136
71249SOL    HW215581   5.299  11.299   1.279
71250SOL     OW15582   8.919   8.215  14.147
71250SOL    HW115583   8.823   8.220  14.140
71250SOL    HW215584   8.947   8.193  14.058
71251SOL     OW15585  11.831  12.886   9.959
71251SOL    HW115586  11.846  12.806   9.909
71251SOL    HW215587  11.831  12.858  10.051
71252SOL     OW15588  12.559   1.729   2.667
71252SOL    HW115589  12.547   1.823   2.662
71252SOL    HW215590  12.563   1.700   2.576
71253SOL     OW15591   8.289  13.651   1.441
71253SOL    HW115592   8.302  13.733   1.395
71253SOL    HW215593   8.315  13.584   1.378
71254SOL     OW15594  14.124   7.482  12.193
71254SOL    HW115595  14.076   7.465  12.112
71254SOL    HW215596  14.086   7.563  12.227
71255SOL     OW15597   2.156   4.047  10.370
71255SOL    HW115598   2.076   4.054  10.318
71255SOL    HW215599   2.133   4.085  10.455
71256SOL     OW15600   2.206   8.417   7.025
71256SOL    HW115601   2.152   8.490   7.055
71256SOL    HW215602   2.195   8.350   7.092
71257SOL     OW15603   0.375   2.678   3.435
71257SOL    HW115604   0.404   2.719   3.516
71257SOL    HW215605   0.455   2.658   3.387
71258SOL     OW15606   1.402   0.308  13.935
71258SOL    HW115607   1.308   0.302  13.952
71258SOL    HW215608   1.410   0.294  13.840
71259SOL     OW15609   6.856   6.093   8.583
71259SOL    HW115610   6.799   6.046   8.643
71259SOL    HW215611   6.932   6.035   8.572
71260SOL     OW15612   5.580   1.316   1.168
71260SOL    HW115613   5.636   1.393   1.159
71260SOL    HW215614   5.532   1.331   1.249
71261SOL     OW15615   5.185   7.253  11.932
71261SOL    HW115616   5.196   7.182  11.996
71261SOL    HW215617   5.275   7.281  11.913
71262SOL     OW15618  11.159   1.067   9.811
71262SOL    HW115619  11.201   0.995   9.765
71262SOL    HW215620  11.149   1.136   9.745
71263SOL     OW15621   3.963  12.514   9.332
71263SOL    HW115622   3.976  12.471   9.416
71263SOL    HW215623   4.045  12.561   9.316
71264SOL     OW15624   3.706  11.239   6.532
71264SOL    HW115625   3.775  11.304   6.527
71264SOL    HW215626   3.735  11.178   6.599
71265SOL     OW15627   2.052  13.653  10.063
71265SOL    HW115628   2.000  13.719  10.018
71265SOL    HW215629   2.141  13.687  10.064
71266SOL     OW15630  12.979  11.484   3.919
71266SOL    HW115631  13.002  11.519   3.833
71266SOL    HW215632  12.931  11.404   3.900
71267SOL     OW15633   1.508  14.005   8.939
71267SOL    HW115634   1.493  13.922   8.894
71267SOL    HW215635   1.421  14.032   8.969
71268SOL     OW15636  10.281   3.035   1.323
71268SOL    HW115637  10.319   3.109   1.275
71268SOL    HW215638  10.244   3.074   1.402
71269SOL     OW15639  10.122   6.485  10.967
71269SOL    HW115640  10.197   6.540  10.948
71269SOL    HW215641  10.109   6.495  11.062
71270SOL     OW15642  10.894   5.044  11.250
71270SOL    HW115643  10.896   4.996  11.332
71270SOL    HW215644  10.981   5.085  11.245
71271SOL     OW15645  12.493   9.030  12.584
71271SOL    HW115646  12.559   9.000  12.645
71271SOL    HW215647  12.534   9.023  12.498
71272SOL     OW15648   7.533   5.969   4.801
71272SOL    HW115649   7.560   5.929   4.719
71272SOL    HW215650   7.481   6.046   4.775
71273SOL     OW15651   0.206  12.778  11.586
71273SOL    HW115652   0.286  12.726  11.586
71273SOL    HW215653   0.137  12.716  11.611
71274SOL     OW15654   1.258   2.727   4.224
71274SOL    HW115655   1.184   2.771   4.267
71274SOL    HW215656   1.219   2.685   4.147
71275SOL     OW15657  14.078  10.710   3.818
71275SOL    HW115658  14.020  10.684   3.890
71275SOL    HW215659  14.157  10.741   3.862
71276SOL     OW15660  14.311   0.505   4.624
71276SOL    HW115661  14.258   0.548   4.691
71276SOL    HW215662  14.256   0.433   4.593
71277SOL     OW15663  11.160  11.650   5.862
71277SOL    HW115664  11.084  11.697   5.895
71277SOL    HW215665  11.139  11.633   5.770
71278SOL     OW15666   6.574  13.130   8.904
71278SOL    HW115667   6.569  13.200   8.840
71278SOL    HW215668   6.487  13.090   8.904
71279SOL     OW15669  12.674  11.255  13.727
71279SOL    HW115670  12.761  11.247  13.765
71279SOL    HW215671  12.629  11.319  13.782
71280SOL     OW15672   4.717   5.279   6.419
71280SOL    HW115673   4.651   5.305   6.483
71280SOL    HW215674   4.700   5.333   6.342
71281SOL     OW15675   8.252   7.483   1.181
71281SOL    HW115676   8.345   7.461   1.173
71281SOL    HW215677   8.212   7.405   1.219
71282SOL     OW15678   1.454  11.155   6.256
71282SOL    HW115679   1.383  11.105   6.294
71282SOL    HW215680   1.531  11.098   6.263
71283SOL     OW15681   8.513   1.204   2.257
71283SOL    HW115682   8.546   1.244   2.337
71283SOL    HW215683   8.508   1.275   2.194
71284SOL     OW15684   8.692   7.405   9.769
71284SOL    HW115685   8.782   7.384   9.793
71284SOL    HW215686   8.648   7.320   9.760
71285SOL     OW15687   8.869   0.523  10.369
71285SOL    HW115688   8.957   0.531  10.405
71285SOL    HW215689   8.813   0.564  10.435
71286SOL     OW15690   8.244   8.105  10.002
71286SOL    HW115691   8.179   8.164  10.040
71286SOL    HW215692   8.271   8.050  10.076
71287SOL     OW15693   8.102   9.751   4.670
71287SOL    HW115694   8.147   9.724   4.751
71287SOL    HW215695   8.158   9.720   4.600
71288SOL     OW15696  10.626  10.966  10.141
71288SOL    HW115697  10.617  11.025  10.216
71288SOL    HW215698  10.562  10.998  10.077
71289SOL     OW15699   9.774  13.351   0.169
71289SOL    HW115700   9.870  13.349   0.160
71289SOL    HW215701   9.757  13.432   0.216
71290SOL     OW15702  12.115   0.260   6.688
71290SOL    HW115703  12.182   0.245   6.754
71290SOL    HW215704  12.157   0.237   6.605
71291SOL     OW15705  10.683   6.765   2.661
71291SOL    HW115706  10.738   6.716   2.722
71291SOL    HW215707  10.620   6.701   2.628
71292SOL     OW15708   1.084   2.005   5.123
71292SOL    HW115709   1.126   1.928   5.161
71292SOL    HW215710   1.087   1.990   5.029
71293SOL     OW15711   4.956   2.080   3.355
71293SOL    HW115712   4.939   2.166   3.393
71293SOL    HW215713   4.926   2.089   3.264
71294SOL     OW15714   2.682  12.017   6.722
71294SOL    HW115715   2.596  12.048   6.692
71294SOL    HW215716   2.744  12.060   6.664
71295SOL     OW15717  11.897   7.668  12.431
71295SOL    HW115718  11.807   7.642  12.410
71295SOL    HW215719  11.896   7.764  12.427
71296SOL     OW15720   9.843   6.683  13.402
71296SOL    HW115721   9.782   6.745  13.443
71296SOL    HW215722   9.788   6.608  13.377
71297SOL     OW15723   6.275  10.225   3.537
71297SOL    HW115724   6.289  10.134   3.513
71297SOL    HW215725   6.215  10.259   3.471
71298SOL     OW15726   2.374  13.775   8.046
71298SOL    HW115727   2.450  13.830   8.029
71298SOL    HW215728   2.331  13.815   8.122
71299SOL     OW15729   2.631   0.444   4.123
71299SOL    HW115730   2.597   0.361   4.156
71299SOL    HW215731   2.714   0.421   4.082
71300SOL     OW15732   7.719   3.441   1.633
71300SOL    HW115733   7.644   3.394   1.669
71300SOL    HW215734   7.733   3.402   1.546
71301SOL     OW15735  14.432   0.490   0.686
71301SOL    HW115736  14.356   0.495   0.628
71301SOL    HW215737  14.467   0.580   0.686
71302SOL     OW15738   4.067   6.277   1.510
71302SOL    HW115739   4.109   6.203   1.554
71302SOL    HW215740   4.027   6.238   1.432
71303SOL     OW15741  11.878   2.814  10.166
71303SOL    HW115742  11.834   2.811  10.251
71303SOL    HW215743  11.806   2.810  10.102
71304SOL     OW15744  14.871   1.968   6.567
71304SOL    HW115745   0.082   1.996   6.606
71304SOL    HW215746   0.012   1.875   6.548
71305SOL     OW15747   6.914  12.157   0.157
71305SOL    HW115748   6.886  12.233   0.106
71305SOL    HW215749   6.989  12.188   0.207
71306SOL     OW15750   2.981  13.022   7.774
71306SOL    HW115751   2.894  13.033   7.736
71306SOL    HW215752   2.968  13.037   7.868
71307SOL     OW15753   4.676  11.891  14.857
71307SOL    HW115754   4.626  11.834   0.042
71307SOL    HW215755   4.695  11.969   0.037
71308SOL     OW15756   1.955   8.197   0.929
71308SOL    HW115757   2.037   8.242   0.948
71308SOL    HW215758   1.977   8.136   0.858
71309SOL     OW15759   9.896   5.681   5.034
71309SOL    HW115760   9.838   5.621   5.081
71309SOL    HW215761   9.858   5.690   4.947
71310SOL     OW15762   8.561   6.858  12.792
71310SOL    HW115763   8.528   6.770  12.775
71310SOL    HW215764   8.569   6.897  12.704
71311SOL     OW15765   7.551  12.399   6.488
71311SOL    HW115766   7.473  12.395   6.432
71311SOL    HW215767   7.623  12.413   6.427
71312SOL     OW15768   6.547  13.837   8.966
71312SOL    HW115769   6.472  13.896   8.958
71312SOL    HW215770   6.533  13.770   8.899
71313SOL     OW15771   5.458   8.738  11.340
71313SOL    HW115772   5.377   8.695  11.366
71313SOL    HW215773   5.478   8.797  11.413
71314SOL     OW15774   3.757  12.190   4.954
71314SOL    HW115775   3.803  12.183   4.871
71314SOL    HW215776   3.676  12.142   4.942
71315SOL     OW15777  11.933   2.951   1.074
71315SOL    HW115778  11.943   3.046   1.070
71315SOL    HW215779  12.021   2.916   1.060
71316SOL     OW15780   6.285   2.515   2.981
71316SOL    HW115781   6.238   2.522   3.064
71316SOL    HW215782   6.360   2.459   3.001
71317SOL     OW15783   6.403  12.931   0.853
71317SOL    HW115784   6.389  12.964   0.941
71317SOL    HW215785   6.388  12.837   0.859
71318SOL     OW15786  14.350  13.241  13.478
71318SOL    HW115787  14.295  13.204  13.409
71318SOL    HW215788  14.345  13.335  13.465
71319SOL     OW15789  13.197   1.409   5.986
71319SOL    HW115790  13.149   1.327   5.990
71319SOL    HW215791  13.284   1.385   5.954
71320SOL     OW15792   8.412   1.448   8.509
71320SOL    HW115793   8.348   1.508   8.549
71320SOL    HW215794   8.361   1.370   8.488
71321SOL     OW15795   5.952   0.050  11.418
71321SOL    HW115796   6.032   0.046  11.471
71321SOL    HW215797   5.893  14.861  11.460
71322SOL     OW15798   8.607   8.785   3.601
71322SOL    HW115799   8.690   8.736   3.600
71322SOL    HW215800   8.632   8.875   3.583
71323SOL     OW15801   5.593  13.955   6.350
71323SOL    HW115802   5.557  14.042   6.371
71323SOL    HW215803   5.528  13.916   6.292
71324SOL     OW15804  12.975   7.295   9.631
71324SOL    HW115805  12.978   7.337   9.717
71324SOL    HW215806  13.061   7.312   9.593
71325SOL     OW15807   2.018  12.727  12.600
71325SOL    HW115808   1.976  12.747  12.517
71325SOL    HW215809   2.043  12.813  12.635
71326SOL     OW15810   1.985   2.843   0.473
71326SOL    HW115811   2.026   2.811   0.554
71326SOL    HW215812   2.024   2.788   0.405
71327SOL     OW15813   3.693   9.758  10.952
71327SOL    HW115814   3.636   9.688  10.922
71327SOL    HW215815   3.770   9.714  10.988
71328SOL     OW15816   2.939  13.362  13.977
71328SOL    HW115817   2.970  13.333  13.891
71328SOL    HW215818   2.895  13.445  13.959
71329SOL     OW15819   0.772   0.833   0.700
71329SOL    HW115820   0.806   0.918   0.727
71329SOL    HW215821   0.847   0.774   0.707
71330SOL     OW15822  12.574  14.279   7.559
71330SOL    HW115823  12.560  14.224   7.482
71330SOL    HW215824  12.569  14.369   7.525
71331SOL     OW15825   0.343  11.306   8.127
71331SOL    HW115826   0.439  11.310   8.120
71331SOL    HW215827   0.316  11.395   8.147
71332SOL     OW15828   6.318   9.031   4.170
71332SOL    HW115829   6.283   8.942   4.156
71332SOL    HW215830   6.373   9.023   4.247
71333SOL     OW15831   9.527   8.864   8.540
71333SOL    HW115832   9.597   8.815   8.498
71333SOL    HW215833   9.558   8.955   8.541
71334SOL     OW15834  11.370   6.007  13.489
71334SOL    HW115835  11.356   5.924  13.442
71334SOL    HW215836  11.454   6.040  13.456
71335SOL     OW15837   5.329   2.631   7.164
71335SOL    HW115838   5.408   2.653   7.114
71335SOL    HW215839   5.270   2.592   7.099
71336SOL     OW15840  11.405   6.261   3.123
71336SOL    HW115841  11.420   6.166   3.128
71336SOL    HW215842  11.450   6.296   3.200
71337SOL     OW15843   7.492   9.870   8.758
71337SOL    HW115844   7.508   9.795   8.700
71337SOL    HW215845   7.509   9.836   8.846
71338SOL     OW15846   2.879   5.798   0.895
71338SOL    HW115847   2.923   5.714   0.878
71338SOL    HW215848   2.950   5.859   0.915
71339SOL     OW15849   6.099   7.084   0.493
71339SOL    HW115850   6.133   7.172   0.477
71339SOL    HW215851   6.004   7.096   0.496
71340SOL     OW15852   5.281  10.508   9.971
71340SOL    HW115853   5.310  10.451   9.899
71340SOL    HW215854   5.274  10.449  10.046
71341SOL     OW15855   6.669   8.851  14.849
71341SOL    HW115856   6.640   8.828  14.761
71341SOL    HW215857   6.719   8.932  14.838
71342SOL     OW15858   5.011   9.091   2.662
71342SOL    HW115859   5.038   9.181   2.683
71342SOL    HW215860   5.082   9.057   2.607
71343SOL     OW15861  11.017   1.761   1.373
71343SOL    HW115862  11.092   1.709   1.344
71343SOL    HW215863  11.042   1.852   1.359
71344SOL     OW15864   2.587   3.404  11.581
71344SOL    HW115865   2.661   3.460  11.561
71344SOL    HW215866   2.605   3.322  11.535
71345SOL     OW15867   8.446   1.322   7.684
71345SOL    HW115868   8.381   1.382   7.720
71345SOL    HW215869   8.395   1.251   7.646
71346SOL     OW15870   3.287  11.021   0.176
71346SOL    HW115871   3.323  10.974   0.251
71346SOL    HW215872   3.269  10.953   0.111
71347SOL     OW15873   8.584   8.897  12.335
71347SOL    HW115874   8.652   8.832  12.352
71347SOL    HW215875   8.627   8.981  12.350
71348SOL     OW15876   5.726   1.880  11.232
71348SOL    HW115877   5.651   1.827  11.259
71348SOL    HW215878   5.707   1.905  11.142
71349SOL     OW15879  12.706   3.118   6.034
71349SOL    HW115880  12.709   3.060   5.958
71349SOL    HW215881  12.617   3.112   6.066
71350SOL     OW15882   1.209   0.417   6.968
71350SOL    HW115883   1.167   0.377   6.892
71350SOL    HW215884   1.140   0.471   7.007
71351SOL     OW15885  12.473   2.883  10.929
71351SOL    HW115886  12.437   2.948  10.989
71351SOL    HW215887  12.548   2.927  10.889
71352SOL     OW15888   3.615  13.180  12.150
71352SOL    HW115889   3.587  13.162  12.061
71352SOL    HW215890   3.598  13.099  12.198
71353SOL     OW15891  14.459  12.755   0.625
71353SOL    HW115892  14.400  12.693   0.669
71353SOL    HW215893  14.547  12.721   0.645
71354SOL     OW15894   4.994  12.124  14.750
71354SOL    HW115895   5.014  12.076  14.670
71354SOL    HW215896   4.960  12.058  14.810
71355SOL     OW15897   8.748   6.618  13.092
71355SOL    HW115898   8.705   6.604  13.007
71355SOL    HW215899   8.742   6.712  13.106
71356SOL     OW15900   1.419   7.581  10.412
71356SOL    HW115901   1.492   7.599  10.353
71356SOL    HW215902   1.411   7.660  10.466
71357SOL     OW15903  10.089   5.878   0.792
71357SOL    HW115904  10.001   5.842   0.787
71357SOL    HW215905  10.136   5.837   0.720
71358SOL     OW15906   7.346   3.784  12.835
71358SOL    HW115907   7.359   3.718  12.767
71358SOL    HW215908   7.364   3.867  12.792
71359SOL     OW15909   3.883   1.479   1.680
71359SOL    HW115910   3.923   1.548   1.732
71359SOL    HW215911   3.952   1.413   1.670
71360SOL     OW15912  10.891   8.540  13.013
71360SOL    HW115913  10.863   8.496  13.094
71360SOL    HW215914  10.977   8.576  13.033
71361SOL     OW15915  10.656   8.838   1.796
71361SOL    HW115916  10.580   8.869   1.846
71361SOL    HW215917  10.667   8.903   1.727
71362SOL     OW15918  12.193  14.521   4.269
71362SOL    HW115919  12.224  14.435   4.242
71362SOL    HW215920  12.155  14.559   4.189
71363SOL     OW15921   4.916   4.151  14.532
71363SOL    HW115922   4.823   4.142  14.549
71363SOL    HW215923   4.956   4.160  14.618
71364SOL     OW15924  12.037   1.199  12.722
71364SOL    HW115925  12.062   1.107  12.718
71364SOL    HW215926  12.017   1.223  12.631
71365SOL     OW15927   0.693  12.729  14.155
71365SOL    HW115928   0.777  12.768  14.179
71365SOL    HW215929   0.677  12.662  14.221
71366SOL     OW15930   0.145   2.829   5.382
71366SOL    HW115931   0.128   2.914   5.421
71366SOL    HW215932   0.230   2.802   5.417
71367SOL     OW15933   4.541   1.007   5.036
71367SOL    HW115934   4.628   0.977   5.009
71367SOL    HW215935   4.516   0.948   5.107
71368SOL     OW15936  12.158  10.973  12.290
71368SOL    HW115937  12.228  10.908  12.290
71368SOL    HW215938  12.170  11.020  12.373
71369SOL     OW15939   3.717   0.623  10.287
71369SOL    HW115940   3.696   0.640  10.379
71369SOL    HW215941   3.808   0.652  10.278
71370SOL     OW15942   9.356  11.992   3.862
71370SOL    HW115943   9.327  11.943   3.785
71370SOL    HW215944   9.307  12.074   3.858
71371SOL     OW15945   3.917  12.149   3.924
71371SOL    HW115946   4.012  12.139   3.914
71371SOL    HW215947   3.907  12.225   3.982
71372SOL     OW15948   6.469  10.271  14.673
71372SOL    HW115949   6.439  10.217  14.600
71372SOL    HW215950   6.554  10.234  14.698
71373SOL     OW15951  11.509   9.334   5.297
71373SOL    HW115952  11.518   9.425   5.325
71373SOL    HW215953  11.417   9.313   5.312
71374SOL     OW15954   6.173   0.887   0.373
71374SOL    HW115955   6.118   0.820   0.413
71374SOL    HW215956   6.184   0.953   0.442
71375SOL     OW15957   9.287  13.741   3.786
71375SOL    HW115958   9.364  13.765   3.838
71375SOL    HW215959   9.323  13.718   3.700
71376SOL     OW15960  13.319   2.800   7.492
71376SOL    HW115961  13.320   2.891   7.520
71376SOL    HW215962  13.338   2.750   7.572
71377SOL     OW15963  10.033  14.036   9.393
71377SOL    HW115964  10.039  14.062   9.301
71377SOL    HW215965  10.069  14.110   9.441
71378SOL     OW15966   4.248   5.392  13.395
71378SOL    HW115967   4.222   5.413  13.306
71378SOL    HW215968   4.329   5.441  13.408
71379SOL     OW15969   3.023   0.507  13.151
71379SOL    HW115970   2.966   0.569  13.197
71379SOL    HW215971   2.989   0.505  13.061
71380SOL     OW15972  10.957  11.078   9.429
71380SOL    HW115973  10.908  11.013   9.377
71380SOL    HW215974  10.899  11.153   9.433
71381SOL     OW15975  11.551   9.179   7.057
71381SOL    HW115976  11.603   9.111   7.100
71381SOL    HW215977  11.469   9.136   7.033
71382SOL     OW15978   6.066   7.625  14.464
71382SOL    HW115979   6.010   7.598  14.537
71382SOL    HW215980   6.006   7.667  14.403
71383SOL     OW15981  14.834   3.102  12.838
71383SOL    HW115982  14.832   3.013  12.803
71383SOL    HW215983  14.752   3.141  12.808
71384SOL     OW15984   0.090  11.996   3.405
71384SOL    HW115985   0.040  11.916   3.388
71384SOL    HW215986   0.091  12.005   3.500
71385SOL     OW15987   7.045  10.885   8.151
71385SOL    HW115988   6.978  10.944   8.187
71385SOL    HW215989   7.079  10.932   8.074
71386SOL     OW15990  11.476  12.537   9.236
71386SOL    HW115991  11.542  12.535   9.305
71386SOL    HW215992  11.480  12.626   9.201
71387SOL     OW15993   3.493   9.683  13.433
71387SOL    HW115994   3.445   9.728  13.363
71387SOL    HW215995   3.585   9.690  13.408
71388SOL     OW15996   7.092   2.199   1.706
71388SOL    HW115997   7.053   2.134   1.647
71388SOL    HW215998   7.167   2.155   1.745
71389SOL     OW15999   1.559  10.018   8.873
71389SOL    HW116000   1.631  10.080   8.883
71389SOL    HW216001   1.559   9.996   8.780
71390SOL     OW16002  11.586   5.332   4.278
71390SOL    HW116003  11.652   5.317   4.210
71390SOL    HW216004  11.577   5.247   4.321
71391SOL     OW16005  13.950  12.994  10.218
71391SOL    HW116006  14.039  13.022  10.239
71391SOL    HW216007  13.954  12.898  10.220
71392SOL     OW16008   9.869   1.514   9.149
71392SOL    HW116009   9.915   1.598   9.153
71392SOL    HW216010   9.807   1.524   9.078
71393SOL     OW16011   6.439  13.948  11.715
71393SOL    HW116012   6.520  13.903  11.693
71393SOL    HW216013   6.450  14.037  11.681
71394SOL     OW16014   6.404   9.178   0.955
71394SOL    HW116015   6.421   9.097   1.004
71394SOL    HW216016   6.329   9.218   1.000
71395SOL     OW16017   1.762  11.678   1.686
71395SOL    HW116018   1.688  11.627   1.655
71395SOL    HW216019   1.824  11.677   1.612
71396SOL     OW16020   6.933   4.091   9.802
71396SOL    HW116021   6.869   4.162   9.806
71396SOL    HW216022   6.953   4.072   9.894
71397SOL     OW16023  11.933  12.902   5.174
71397SOL    HW116024  11.909  12.939   5.089
71397SOL    HW216025  11.966  12.815   5.154
71398SOL     OW16026   8.009   4.972   4.320
71398SOL    HW116027   8.100   4.988   4.295
71398SOL    HW216028   7.964   4.956   4.238
71399SOL     OW16029  11.249   6.292   0.976
71399SOL    HW116030  11.203   6.371   1.003
71399SOL    HW216031  11.244   6.233   1.051
71400SOL     OW16032   9.489   2.581  12.739
71400SOL    HW116033   9.424   2.534  12.686
71400SOL    HW216034   9.573   2.559  12.699
71401SOL     OW16035   1.802  10.245   7.686
71401SOL    HW116036   1.725  10.206   7.645
71401SOL    HW216037   1.779  10.251   7.779
71402SOL     OW16038   5.151   6.487   5.500
71402SOL    HW116039   5.226   6.484   5.560
71402SOL    HW216040   5.096   6.413   5.526
71403SOL     OW16041   4.850   8.177  13.175
71403SOL    HW116042   4.894   8.104  13.131
71403SOL    HW216043   4.902   8.192  13.254
71404SOL     OW16044   6.359   2.471   6.171
71404SOL    HW116045   6.332   2.426   6.250
71404SOL    HW216046   6.286   2.460   6.110
71405SOL     OW16047  12.492   8.223   1.453
71405SOL    HW116048  12.557   8.293   1.461
71405SOL    HW216049  12.532   8.148   1.498
71406SOL     OW16050   1.522  11.697   4.039
71406SOL    HW116051   1.448  11.694   3.979
71406SOL    HW216052   1.589  11.746   3.991
71407SOL     OW16053   8.866   1.204   9.145
71407SOL    HW116054   8.871   1.251   9.062
71407SOL    HW216055   8.774   1.208   9.170
71408SOL     OW16056   8.323   2.374   3.645
71408SOL    HW116057   8.297   2.352   3.735
71408SOL    HW216058   8.418   2.382   3.650
71409SOL     OW16059   9.872   6.345  14.703
71409SOL    HW116060   9.951   6.395  14.726
71409SOL    HW216061   9.804   6.381  14.760
71410SOL     OW16062   7.180   7.649  10.133
71410SOL    HW116063   7.211   7.686  10.216
71410SOL    HW216064   7.089   7.678  10.127
71411SOL     OW16065   7.079   8.400   7.098
71411SOL    HW116066   7.038   8.474   7.054
71411SOL    HW216067   7.032   8.393   7.182
71412SOL     OW16068  11.173   3.537   7.055
71412SOL    HW116069  11.174   3.516   7.148
71412SOL    HW216070  11.204   3.627   7.050
71413SOL     OW16071  13.619   4.986  14.537
71413SOL    HW116072  13.682   4.932  14.490
71413SOL    HW216073  13.534   4.945  14.517
71414SOL     OW16074  12.845  10.298   0.053
71414SOL    HW116075  12.865  10.340  14.843
71414SOL    HW216076  12.804  10.366   0.106
71415SOL     OW16077   4.575   3.027   5.455
71415SOL    HW116078   4.520   2.949   5.462
71415SOL    HW216079   4.516   3.100   5.475
71416SOL     OW16080   6.694  11.489   5.772
71416SOL    HW116081   6.776  11.512   5.730
71416SOL    HW216082   6.720  11.462   5.861
71417SOL     OW16083  13.293  11.394   8.602
71417SOL    HW116084  13.366  11.454   8.616
71417SOL    HW216085  13.335  11.311   8.577
71418SOL     OW16086   4.710   4.784   6.194
71418SOL    HW116087   4.618   4.759   6.183
71418SOL    HW216088   4.720   4.798   6.288
71419SOL     OW16089  14.385   0.346   7.805
71419SOL    HW116090  14.314   0.322   7.746
71419SOL    HW216091  14.455   0.375   7.747
71420SOL     OW16092  11.614  13.639   2.027
71420SOL    HW116093  11.681  13.616   2.091
71420SOL    HW216094  11.663  13.676   1.953
71421SOL     OW16095   2.869   1.115   0.607
71421SOL    HW116096   2.834   1.030   0.582
71421SOL    HW216097   2.963   1.101   0.616
71422SOL     OW16098   0.960   7.139  10.163
71422SOL    HW116099   0.894   7.107  10.224
71422SOL    HW216100   1.038   7.155  10.216
71423SOL     OW16101   7.759   6.521   6.740
71423SOL    HW116102   7.750   6.592   6.677
71423SOL    HW216103   7.730   6.443   6.693
71424SOL     OW16104   9.388  12.850   1.773
71424SOL    HW116105   9.420  12.925   1.723
71424SOL    HW216106   9.464  12.822   1.824
71425SOL     OW16107   0.299   5.438   6.559
71425SOL    HW116108   0.298   5.448   6.654
71425SOL    HW216109   0.391   5.426   6.537
71426SOL     OW16110   8.246   4.395  10.609
71426SOL    HW116111   8.336   4.384  10.577
71426SOL    HW216112   8.245   4.352  10.695
71427SOL     OW16113   6.837  10.666  12.836
71427SOL    HW116114   6.853  10.573  12.847
71427SOL    HW216115   6.796  10.673  12.749
71428SOL     OW16116   7.598   1.111   0.117
71428SOL    HW116117   7.673   1.165   0.141
71428SOL    HW216118   7.635   1.029   0.087
71429SOL     OW16119   9.315  10.546   0.709
71429SOL    HW116120   9.405  10.567   0.732
71429SOL    HW216121   9.267  10.549   0.792
71430SOL     OW16122   8.105  11.466  10.556
71430SOL    HW116123   8.128  11.533  10.491
71430SOL    HW216124   8.128  11.383  10.515
71431SOL     OW16125   3.089   0.223  12.105
71431SOL    HW116126   3.060   0.232  12.014
71431SOL    HW216127   3.015   0.251  12.158
71432SOL     OW16128   4.083   9.380   7.307
71432SOL    HW116129   4.113   9.307   7.361
71432SOL    HW216130   4.089   9.456   7.364
71433SOL     OW16131  13.193  12.552   7.559
71433SOL    HW116132  13.117  12.578   7.506
71433SOL    HW216133  13.255  12.623   7.549
71434SOL     OW16134   0.645  12.678  12.517
71434SOL    HW116135   0.569  12.620  12.531
71434SOL    HW216136   0.608  12.766  12.513
71435SOL     OW16137   6.891   3.919   7.861
71435SOL    HW116138   6.849   3.950   7.941
71435SOL    HW216139   6.911   3.827   7.879
71436SOL     OW16140  12.718   2.676  12.198
71436SOL    HW116141  12.767   2.666  12.280
71436SOL    HW216142  12.771   2.630  12.133
71437SOL     OW16143   5.107   7.264   6.668
71437SOL    HW116144   5.086   7.175   6.638
71437SOL    HW216145   5.193   7.254   6.711
71438SOL     OW16146   2.955   2.935   6.894
71438SOL    HW116147   2.978   2.949   6.802
71438SOL    HW216148   2.973   2.841   6.908
71439SOL     OW16149   8.577   7.451   9.008
71439SOL    HW116150   8.561   7.370   8.959
71439SOL    HW216151   8.495   7.499   9.001
71440SOL     OW16152   0.213  11.711   4.228
71440SOL    HW116153   0.273  11.645   4.262
71440SOL    HW216154   0.270  11.781   4.197
71441SOL     OW16155  11.655  11.553   6.760
71441SOL    HW116156  11.583  11.586   6.813
71441SOL    HW216157  11.638  11.588   6.672
71442SOL     OW16158   5.414   4.107  11.843
71442SOL    HW116159   5.421   4.068  11.930
71442SOL    HW216160   5.383   4.196  11.860
71443SOL     OW16161   0.199  12.297   4.579
71443SOL    HW116162   0.152  12.285   4.661
71443SOL    HW216163   0.188  12.213   4.532
71444SOL     OW16164   0.889  13.955  11.101
71444SOL    HW116165   0.951  13.997  11.160
71444SOL    HW216166   0.842  13.891  11.155
71445SOL     OW16167   1.301   2.579   5.486
71445SOL    HW116168   1.359   2.623   5.425
71445SOL    HW216169   1.231   2.543   5.431
71446SOL     OW16170  14.832   0.091  10.142
71446SOL    HW116171  14.824   0.115  10.050
71446SOL    HW216172   0.046   0.123  10.167
71447SOL     OW16173   2.226   8.139   1.945
71447SOL    HW116174   2.163   8.081   1.986
71447SOL    HW216175   2.197   8.145   1.854
71448SOL     OW16176   9.483  12.363   3.899
71448SOL    HW116177   9.469  12.441   3.846
71448SOL    HW216178   9.578  12.352   3.901
71449SOL     OW16179   8.896   3.109  12.630
71449SOL    HW116180   8.892   3.014  12.618
71449SOL    HW216181   8.840   3.144  12.561
71450SOL     OW16182   3.983  12.953   5.391
71450SOL    HW116183   3.920  12.948   5.319
71450SOL    HW216184   4.066  12.975   5.349
71451SOL     OW16185   7.464   8.509   9.586
71451SOL    HW116186   7.375   8.529   9.616
71451SOL    HW216187   7.473   8.559   9.504
71452SOL     OW16188   9.014  12.631   6.951
71452SOL    HW116189   9.055  12.681   7.021
71452SOL    HW216190   8.978  12.697   6.892
71453SOL     OW16191   2.314   0.925  11.767
71453SOL    HW116192   2.305   0.888  11.855
71453SOL    HW216193   2.314   1.020  11.782
71454SOL     OW16194  10.986   3.434   8.381
71454SOL    HW116195  11.005   3.458   8.290
71454SOL    HW216196  11.041   3.493   8.433
71455SOL     OW16197   4.341   7.024  10.912
71455SOL    HW116198   4.285   7.098  10.888
71455SOL    HW216199   4.428   7.050  10.882
71456SOL     OW16200  14.791   5.653  12.282
71456SOL    HW116201  14.829   5.578  12.237
71456SOL    HW216202  14.771   5.621  12.370
71457SOL     OW16203  13.000  13.458   4.346
71457SOL    HW116204  12.932  13.512   4.305
71457SOL    HW216205  12.957  13.375   4.365
71458SOL     OW16206   8.000   6.897   2.145
71458SOL    HW116207   7.996   6.865   2.235
71458SOL    HW216208   8.087   6.870   2.115
71459SOL     OW16209   1.618  12.716   9.642
71459SOL    HW116210   1.608  12.674   9.727
71459SOL    HW216211   1.646  12.805   9.663
71460SOL     OW16212   1.417  10.410  10.149
71460SOL    HW116213   1.358  10.371  10.084
71460SOL    HW216214   1.359  10.463  10.204
71461SOL     OW16215   2.149   6.050  10.234
71461SOL    HW116216   2.060   6.057  10.202
71461SOL    HW216217   2.165   5.956  10.242
71462SOL     OW16218   2.556  14.759   1.605
71462SOL    HW116219   2.592  14.736   1.690
71462SOL    HW216220   2.593  14.845   1.585
71463SOL     OW16221  12.755   5.129   3.874
71463SOL    HW116222  12.794   5.050   3.836
71463SOL    HW216223  12.741   5.187   3.799
71464SOL     OW16224  14.685  11.754   0.040
71464SOL    HW116225  14.743  11.797  14.849
71464SOL    HW216226  14.741  11.693   0.087
71465SOL     OW16227   9.858   3.661   8.909
71465SOL    HW116228   9.948   3.630   8.899
71465SOL    HW216229   9.864   3.736   8.968
71466SOL     OW16230   6.571   4.095  12.011
71466SOL    HW116231   6.557   4.189  12.000
71466SOL    HW216232   6.647   4.088  12.068
71467SOL     OW16233   6.539  12.875   5.624
71467SOL    HW116234   6.476  12.868   5.695
71467SOL    HW216235   6.512  12.952   5.575
71468SOL     OW16236   8.302  13.938   5.765
71468SOL    HW116237   8.389  13.958   5.799
71468SOL    HW216238   8.244  13.997   5.813
71469SOL     OW16239   2.664   3.798   4.503
71469SOL    HW116240   2.751   3.772   4.535
71469SOL    HW216241   2.664   3.894   4.510
71470SOL     OW16242   2.966  10.920   5.326
71470SOL    HW116243   2.888  10.926   5.381
71470SOL    HW216244   3.039  10.930   5.387
71471SOL     OW16245  13.416  10.376   3.471
71471SOL    HW116246  13.428  10.386   3.377
71471SOL    HW216247  13.346  10.438   3.493
71472SOL     OW16248   3.029   2.575   7.029
71472SOL    HW116249   3.088   2.650   7.039
71472SOL    HW216250   3.063   2.528   6.953
71473SOL     OW16251  11.438  14.535   9.707
71473SOL    HW116252  11.533  14.545   9.714
71473SOL    HW216253  11.406  14.625   9.697
71474SOL     OW16254   8.536   7.129  14.277
71474SOL    HW116255   8.584   7.071  14.336
71474SOL    HW216256   8.471   7.073  14.237
71475SOL     OW16257   5.786   4.732   1.512
71475SOL    HW116258   5.812   4.663   1.574
71475SOL    HW216259   5.810   4.698   1.426
71476SOL     OW16260   6.885   4.245  10.622
71476SOL    HW116261   6.918   4.158  10.599
71476SOL    HW216262   6.961   4.290  10.658
71477SOL     OW16263   3.106  14.241   1.424
71477SOL    HW116264   3.128  14.292   1.501
71477SOL    HW216265   3.021  14.203   1.443
71478SOL     OW16266  13.445  14.327   4.439
71478SOL    HW116267  13.456  14.414   4.402
71478SOL    HW216268  13.526  14.281   4.416
71479SOL     OW16269   2.904  13.312   5.257
71479SOL    HW116270   2.834  13.251   5.279
71479SOL    HW216271   2.914  13.367   5.335
71480SOL     OW16272   7.016   5.373   7.189
71480SOL    HW116273   7.048   5.340   7.273
71480SOL    HW216274   7.085   5.350   7.127
71481SOL     OW16275  12.542   9.558   4.123
71481SOL    HW116276  12.529   9.479   4.174
71481SOL    HW216277  12.520   9.630   4.182
71482SOL     OW16278   4.921   9.198   2.373
71482SOL    HW116279   4.870   9.218   2.295
71482SOL    HW216280   5.012   9.192   2.342
71483SOL     OW16281   7.979  12.943   5.253
71483SOL    HW116282   7.952  12.983   5.336
71483SOL    HW216283   7.961  12.850   5.264
71484SOL     OW16284  12.582   3.695   5.359
71484SOL    HW116285  12.496   3.655   5.370
71484SOL    HW216286  12.564   3.787   5.342
71485SOL     OW16287   9.592   8.324  11.153
71485SOL    HW116288   9.631   8.370  11.079
71485SOL    HW216289   9.538   8.256  11.113
71486SOL     OW16290   0.879  12.452   1.090
71486SOL    HW116291   0.822  12.378   1.073
71486SOL    HW216292   0.911  12.439   1.179
71487SOL     OW16293  10.800   3.192   5.820
71487SOL    HW116294  10.762   3.264   5.769
71487SOL    HW216295  10.831   3.130   5.754
71488SOL     OW16296   6.715   6.451   3.912
71488SOL    HW116297   6.663   6.373   3.894
71488SOL    HW216298   6.650   6.518   3.935
71489SOL     OW16299   4.593   8.395  14.705
71489SOL    HW116300   4.548   8.479  14.713
71489SOL    HW216301   4.602   8.364  14.796
71490SOL     OW16302   6.534   0.440   8.783
71490SOL    HW116303   6.507   0.411   8.696
71490SOL    HW216304   6.545   0.360   8.834
71491SOL     OW16305  11.815   3.838   2.185
71491SOL    HW116306  11.781   3.858   2.098
71491SOL    HW216307  11.910   3.834   2.174
71492SOL     OW16308   8.290   5.831   5.472
71492SOL    HW116309   8.308   5.737   5.465
71492SOL    HW216310   8.208   5.843   5.424
71493SOL     OW16311   3.604   5.299   3.923
71493SOL    HW116312   3.537   5.329   3.985
71493SOL    HW216313   3.625   5.377   3.872
71494SOL     OW16314  13.069   0.871   1.761
71494SOL    HW116315  13.079   0.796   1.819
71494SOL    HW216316  13.033   0.940   1.817
71495SOL     OW16317  10.881   2.446   2.878
71495SOL    HW116318  10.792   2.451   2.913
71495SOL    HW216319  10.925   2.383   2.935
71496SOL     OW16320  14.437   3.106   5.279
71496SOL    HW116321  14.525   3.129   5.310
71496SOL    HW216322  14.377   3.148   5.341
71497SOL     OW16323  10.311   4.046   3.659
71497SOL    HW116324  10.283   4.111   3.724
71497SOL    HW216325  10.229   4.014   3.621
71498SOL     OW16326   3.915  12.814   6.122
71498SOL    HW116327   3.912  12.827   6.217
71498SOL    HW216328   3.854  12.879   6.087
71499SOL     OW16329   9.575   0.317   1.204
71499SOL    HW116330   9.484   0.345   1.208
71499SOL    HW216331   9.605   0.346   1.117
71500SOL     OW16332   7.900   0.107   9.901
71500SOL    HW116333   7.979   0.093   9.953
71500SOL    HW216334   7.865   0.191   9.931
71501SOL     OW16335   3.082   8.668   3.001
71501SOL    HW116336   3.048   8.755   2.979
71501SOL    HW216337   3.010   8.624   3.046
71502SOL     OW16338  10.887   1.271   5.940
71502SOL    HW116339  10.920   1.254   6.028
71502SOL    HW216340  10.802   1.227   5.937
71503SOL     OW16341   4.684   1.914  10.209
71503SOL    HW116342   4.636   1.906  10.127
71503SOL    HW216343   4.635   1.979  10.260
71504SOL     OW16344   1.782   7.074   9.050
71504SOL    HW116345   1.826   7.146   9.096
71504SOL    HW216346   1.689   7.090   9.063
71505SOL     OW16347  13.242  12.383   0.165
71505SOL    HW116348  13.333  12.400   0.189
71505SOL    HW216349  13.204  12.343   0.243
71506SOL     OW16350   8.352   2.641   6.959
71506SOL    HW116351   8.382   2.591   6.883
71506SOL    HW216352   8.422   2.631   7.024
71507SOL     OW16353   7.994  13.784   2.506
71507SOL    HW116354   7.960  13.696   2.524
71507SOL    HW216355   7.971  13.800   2.415
71508SOL     OW16356   1.111   2.158   0.378
71508SOL    HW116357   1.116   2.129   0.469
71508SOL    HW216358   1.146   2.247   0.379
71509SOL     OW16359   9.907   1.013   4.589
71509SOL    HW116360   9.847   0.965   4.646
71509SOL    HW216361   9.856   1.088   4.557
71510SOL     OW16362  10.412  12.882   8.539
71510SOL    HW116363  10.360  12.917   8.612
71510SOL    HW216364  10.365  12.804   8.511
71511SOL     OW16365   5.942   0.897   1.500
71511SOL    HW116366   5.987   0.927   1.579
71511SOL    HW216367   6.010   0.859   1.445
71512SOL     OW16368   9.646   7.588   5.188
71512SOL    HW116369   9.684   7.674   5.207
71512SOL    HW216370   9.560   7.589   5.231
71513SOL     OW16371   9.514   8.559   8.769
71513SOL    HW116372   9.446   8.620   8.797
71513SOL    HW216373   9.594   8.588   8.813
71514SOL     OW16374   8.834   7.743   1.409
71514SOL    HW116375   8.739   7.756   1.409
71514SOL    HW216376   8.869   7.812   1.464
71515SOL     OW16377   1.378  10.247  11.401
71515SOL    HW116378   1.334  10.217  11.321
71515SOL    HW216379   1.413  10.167  11.440
71516SOL     OW16380   6.716   7.140   3.457
71516SOL    HW116381   6.664   7.214   3.487
71516SOL    HW216382   6.675   7.113   3.375
71517SOL     OW16383  10.907   8.980   0.089
71517SOL    HW116384  10.850   8.945   0.158
71517SOL    HW216385  10.912   9.074   0.108
71518SOL     OW16386   5.979  13.844   8.540
71518SOL    HW116387   5.986  13.776   8.474
71518SOL    HW216388   5.916  13.809   8.604
71519SOL     OW16389   3.455  12.156  14.780
71519SOL    HW116390   3.386  12.181  14.842
71519SOL    HW216391   3.414  12.165  14.694
71520SOL     OW16392  10.083   5.279  12.288
71520SOL    HW116393  10.073   5.190  12.256
71520SOL    HW216394  10.092   5.332  12.209
71521SOL     OW16395  11.042   9.726   6.629
71521SOL    HW116396  11.039   9.822   6.633
71521SOL    HW216397  11.135   9.706   6.618
71522SOL     OW16398  10.686   3.424   4.841
71522SOL    HW116399  10.596   3.415   4.871
71522SOL    HW216400  10.731   3.467   4.914
71523SOL     OW16401  11.209   4.118   8.997
71523SOL    HW116402  11.153   4.146   8.924
71523SOL    HW216403  11.296   4.108   8.957
71524SOL     OW16404   3.126  10.757   7.572
71524SOL    HW116405   3.173  10.839   7.589
71524SOL    HW216406   3.149  10.700   7.645
71525SOL     OW16407  14.809   4.765  14.667
71525SOL    HW116408  14.832   4.676  14.640
71525SOL    HW216409  14.724   4.781  14.626
71526SOL     OW16410   7.211  14.724  12.831
71526SOL    HW116411   7.235  14.802  12.882
71526SOL    HW216412   7.262  14.732  12.750
71527SOL     OW16413   1.361   5.577  11.238
71527SOL    HW116414   1.453   5.564  11.215
71527SOL    HW216415   1.313   5.558  11.157
71528SOL     OW16416   8.524   1.690   7.717
71528SOL    HW116417   8.597   1.733   7.762
71528SOL    HW216418   8.451   1.695   7.779
71529SOL     OW16419   8.087   2.661  11.419
71529SOL    HW116420   8.144   2.675  11.495
71529SOL    HW216421   8.118   2.723  11.353
71530SOL     OW16422   2.575   6.488  11.334
71530SOL    HW116423   2.494   6.465  11.379
71530SOL    HW216424   2.554   6.566  11.283
71531SOL     OW16425   5.457   5.040  10.396
71531SOL    HW116426   5.421   5.057  10.483
71531SOL    HW216427   5.394   4.980  10.356
71532SOL     OW16428  10.114   0.265   9.383
71532SOL    HW116429  10.112   0.360   9.373
71532SOL    HW216430  10.128   0.232   9.294
71533SOL     OW16431   4.918   8.848   0.820
71533SOL    HW116432   4.937   8.867   0.912
71533SOL    HW216433   4.972   8.911   0.771
71534SOL     OW16434   2.866   9.706   0.153
71534SOL    HW116435   2.866   9.771   0.222
71534SOL    HW216436   2.793   9.731   0.096
71535SOL     OW16437   5.962   0.214   5.133
71535SOL    HW116438   5.882   0.223   5.082
71535SOL    HW216439   5.996   0.128   5.109
71536SOL     OW16440   5.813  10.748   7.505
71536SOL    HW116441   5.796  10.678   7.569
71536SOL    HW216442   5.908  10.754   7.501
71537SOL     OW16443  13.364  14.045   3.097
71537SOL    HW116444  13.449  14.005   3.113
71537SOL    HW216445  13.384  14.129   3.056
71538SOL     OW16446  12.198   3.056   2.749
71538SOL    HW116447  12.123   3.034   2.804
71538SOL    HW216448  12.196   3.152   2.743
71539SOL     OW16449   0.448  11.176   0.015
71539SOL    HW116450   0.530  11.139   0.047
71539SOL    HW216451   0.384  11.152   0.081
71540SOL     OW16452  10.173  14.126  13.066
71540SOL    HW116453  10.247  14.183  13.088
71540SOL    HW216454  10.184  14.050  13.123
71541SOL     OW16455   2.188   4.510   2.090
71541SOL    HW116456   2.220   4.492   2.001
71541SOL    HW216457   2.116   4.571   2.077
71542SOL     OW16458   9.826   3.006   2.386
71542SOL    HW116459   9.766   2.934   2.363
71542SOL    HW216460   9.894   2.964   2.439
71543SOL     OW16461   9.709   3.807   2.947
71543SOL    HW116462   9.752   3.863   3.011
71543SOL    HW216463   9.774   3.738   2.928
71544SOL     OW16464  12.382   2.520   7.485
71544SOL    HW116465  12.441   2.594   7.495
71544SOL    HW216466  12.295   2.559   7.477
71545SOL     OW16467   5.612   8.983  14.698
71545SOL    HW116468   5.562   8.948  14.624
71545SOL    HW216469   5.652   9.063  14.665
71546SOL     OW16470   6.881   7.374  14.444
71546SOL    HW116471   6.886   7.442  14.512
71546SOL    HW216472   6.917   7.296  14.486
71547SOL     OW16473  14.125   4.696   4.959
71547SOL    HW116474  14.150   4.682   4.868
71547SOL    HW216475  14.029   4.703   4.957
71548SOL     OW16476   7.524   5.949   2.096
71548SOL    HW116477   7.483   6.030   2.126
71548SOL    HW216478   7.594   5.978   2.037
71549SOL     OW16479   1.533  10.948   6.914
71549SOL    HW116480   1.549  10.854   6.911
71549SOL    HW216481   1.620  10.987   6.912
71550SOL     OW16482   0.248   0.276  11.503
71550SOL    HW116483   0.198   0.355  11.524
71550SOL    HW216484   0.182   0.208  11.494
71551SOL     OW16485   5.613  10.903   5.400
71551SOL    HW116486   5.704  10.875   5.393
71551SOL    HW216487   5.564  10.822   5.407
71552SOL     OW16488   4.403   2.479   9.689
71552SOL    HW116489   4.412   2.524   9.605
71552SOL    HW216490   4.419   2.387   9.668
71553SOL     OW16491   6.843  12.345   2.753
71553SOL    HW116492   6.868  12.380   2.839
71553SOL    HW216493   6.842  12.250   2.765
71554SOL     OW16494   4.231  14.872   9.284
71554SOL    HW116495   4.210  14.807   9.217
71554SOL    HW216496   4.159   0.062   9.281
71555SOL     OW16497   1.214   7.703   3.839
71555SOL    HW116498   1.233   7.619   3.880
71555SOL    HW216499   1.268   7.703   3.759
71556SOL     OW16500  12.867   6.391   6.479
71556SOL    HW116501  12.928   6.409   6.408
71556SOL    HW216502  12.794   6.345   6.438
71557SOL     OW16503   5.531   5.361  13.049
71557SOL    HW116504   5.440   5.376  13.020
71557SOL    HW216505   5.524   5.351  13.144
71558SOL     OW16506   0.041   8.550   5.528
71558SOL    HW116507   0.127   8.527   5.492
71558SOL    HW216508  14.861   8.573   5.451
71559SOL     OW16509  13.997   4.272   4.095
71559SOL    HW116510  13.940   4.344   4.067
71559SOL    HW216511  14.077   4.284   4.045
71560SOL     OW16512  11.758   2.871   6.577
71560SOL    HW116513  11.670   2.875   6.614
71560SOL    HW216514  11.780   2.777   6.579
71561SOL     OW16515   8.466  13.400   0.713
71561SOL    HW116516   8.482  13.492   0.732
71561SOL    HW216517   8.372  13.395   0.695
71562SOL     OW16518  13.952   0.436   9.534
71562SOL    HW116519  14.021   0.479   9.585
71562SOL    HW216520  13.999   0.385   9.468
71563SOL     OW16521   3.740   6.636   2.917
71563SOL    HW116522   3.696   6.717   2.942
71563SOL    HW216523   3.822   6.637   2.967
71564SOL     OW16524   6.700   4.493  13.235
71564SOL    HW116525   6.664   4.406  13.215
71564SOL    HW216526   6.640   4.529  13.300
71565SOL     OW16527   8.469   4.255   4.665
71565SOL    HW116528   8.404   4.199   4.623
71565SOL    HW216529   8.486   4.324   4.601
71566SOL     OW16530   6.390   7.948  13.841
71566SOL    HW116531   6.427   7.984  13.922
71566SOL    HW216532   6.415   7.856  13.843
71567SOL     OW16533  14.221  14.133  14.711
71567SOL    HW116534  14.132  14.167  14.721
71567SOL    HW216535  14.245  14.153  14.621
71568SOL     OW16536   5.962   4.745   8.661
71568SOL    HW116537   6.040   4.763   8.607
71568SOL    HW216538   5.965   4.651   8.676
71569SOL     OW16539  12.970   5.602  10.886
71569SOL    HW116540  12.953   5.661  10.813
71569SOL    HW216541  12.951   5.655  10.964
71570SOL     OW16542  11.488  10.271   7.139
71570SOL    HW116543  11.573  10.260   7.181
71570SOL    HW216544  11.506  10.254   7.046
71571SOL     OW16545   2.558   5.003   2.817
71571SOL    HW116546   2.507   5.084   2.820
71571SOL    HW216547   2.621   5.011   2.888
71572SOL     OW16548   9.408  13.295  12.630
71572SOL    HW116549   9.343  13.362  12.650
71572SOL    HW216550   9.481  13.314  12.689
71573SOL     OW16551   8.074   8.219   8.463
71573SOL    HW116552   8.101   8.310   8.475
71573SOL    HW216553   8.095   8.199   8.372
71574SOL     OW16554  13.992   5.357  13.512
71574SOL    HW116555  14.019   5.435  13.562
71574SOL    HW216556  13.957   5.297  13.579
71575SOL     OW16557   7.053  10.731  11.740
71575SOL    HW116558   6.970  10.712  11.697
71575SOL    HW216559   7.115  10.669  11.702
71576SOL     OW16560   0.741  11.279  11.178
71576SOL    HW116561   0.749  11.364  11.134
71576SOL    HW216562   0.703  11.221  11.111
71577SOL     OW16563   1.953   8.032   9.455
71577SOL    HW116564   2.009   8.095   9.410
71577SOL    HW216565   1.864   8.065   9.441
71578SOL     OW16566  13.088   8.417   7.294
71578SOL    HW116567  13.140   8.497   7.295
71578SOL    HW216568  13.006   8.441   7.337
71579SOL     OW16569   2.769   7.819   3.689
71579SOL    HW116570   2.850   7.769   3.699
71579SOL    HW216571   2.699   7.755   3.701
71580SOL     OW16572  11.730   3.214  13.350
71580SOL    HW116573  11.728   3.305  13.321
71580SOL    HW216574  11.759   3.218  13.441
71581SOL     OW16575   7.107   6.912   1.634
71581SOL    HW116576   7.107   6.817   1.623
71581SOL    HW216577   7.164   6.928   1.709
71582SOL     OW16578   2.500   6.067  14.700
71582SOL    HW116579   2.566   6.130  14.671
71582SOL    HW216580   2.449   6.113  14.767
71583SOL     OW16581  13.078  10.897  14.610
71583SOL    HW116582  13.030  10.820  14.642
71583SOL    HW216583  13.022  10.971  14.634
71584SOL     OW16584   9.095  12.339   6.347
71584SOL    HW116585   9.165  12.311   6.288
71584SOL    HW216586   9.025  12.275   6.334
71585SOL     OW16587   0.128  10.590   0.577
71585SOL    HW116588   0.100  10.658   0.638
71585SOL    HW216589   0.055  10.528   0.575
71586SOL     OW16590   4.556   9.488  13.395
71586SOL    HW116591   4.573   9.493  13.489
71586SOL    HW216592   4.541   9.396  13.377
71587SOL     OW16593   3.686  11.707   4.970
71587SOL    HW116594   3.682  11.705   5.065
71587SOL    HW216595   3.596  11.690   4.942
71588SOL     OW16596   1.780   4.398  13.863
71588SOL    HW116597   1.761   4.490  13.881
71588SOL    HW216598   1.721   4.375  13.792
71589SOL     OW16599   2.613   4.275   2.840
71589SOL    HW116600   2.564   4.315   2.768
71589SOL    HW216601   2.621   4.345   2.905
71590SOL     OW16602   0.406   3.691  14.509
71590SOL    HW116603   0.344   3.733  14.568
71590SOL    HW216604   0.492   3.718  14.541
71591SOL     OW16605   5.424   9.314   5.358
71591SOL    HW116606   5.458   9.404   5.355
71591SOL    HW216607   5.355   9.318   5.425
71592SOL     OW16608   1.430   1.387   7.871
71592SOL    HW116609   1.351   1.419   7.828
71592SOL    HW216610   1.433   1.294   7.849
71593SOL     OW16611   2.794  13.511   6.763
71593SOL    HW116612   2.820  13.599   6.789
71593SOL    HW216613   2.765  13.470   6.844
71594SOL     OW16614   2.502  13.785   2.580
71594SOL    HW116615   2.592  13.797   2.551
71594SOL    HW216616   2.453  13.854   2.535
71595SOL     OW16617  11.308   2.928   7.383
71595SOL    HW116618  11.367   2.947   7.311
71595SOL    HW216619  11.329   2.839   7.410
71596SOL     OW16620   7.653   0.867   6.083
71596SOL    HW116621   7.603   0.792   6.050
71596SOL    HW216622   7.623   0.879   6.173
71597SOL     OW16623  14.022   6.059  11.136
71597SOL    HW116624  14.105   6.105  11.146
71597SOL    HW216625  13.959   6.114  11.183
71598SOL     OW16626   7.487   3.783   2.114
71598SOL    HW116627   7.444   3.747   2.037
71598SOL    HW216628   7.485   3.712   2.178
71599SOL     OW16629   8.355   1.713   3.523
71599SOL    HW116630   8.387   1.676   3.441
71599SOL    HW216631   8.352   1.807   3.507
71600SOL     OW16632  11.775   2.095   5.199
71600SOL    HW116633  11.861   2.095   5.241
71600SOL    HW216634  11.777   2.170   5.140
71601SOL     OW16635   3.755  11.912   9.545
71601SOL    HW116636   3.848  11.896   9.560
71601SOL    HW216637   3.716  11.826   9.533
71602SOL     OW16638   9.187  11.133   8.211
71602SOL    HW116639   9.113  11.085   8.174
71602SOL    HW216640   9.159  11.225   8.210
71603SOL     OW16641   0.569  12.340  11.268
71603SOL    HW116642   0.606  12.337  11.356
71603SOL    HW216643   0.620  12.277  11.218
71604SOL     OW16644  11.862  11.232   2.663
71604SOL    HW116645  11.825  11.153   2.623
71604SOL    HW216646  11.889  11.286   2.588
71605SOL     OW16647  13.384   6.667   7.573
71605SOL    HW116648  13.433   6.644   7.494
71605SOL    HW216649  13.379   6.586   7.623
71606SOL     OW16650  10.057   8.930  11.845
71606SOL    HW116651  10.024   8.939  11.934
71606SOL    HW216652  10.090   9.017  11.822
71607SOL     OW16653   8.271  10.604   2.391
71607SOL    HW116654   8.252  10.517   2.355
71607SOL    HW216655   8.192  10.655   2.373
71608SOL     OW16656   2.132   7.888  11.036
71608SOL    HW116657   2.115   7.836  10.958
71608SOL    HW216658   2.045   7.908  11.070
71609SOL     OW16659  10.350   5.975   8.434
71609SOL    HW116660  10.431   6.022   8.414
71609SOL    HW216661  10.309   5.958   8.349
71610SOL     OW16662   9.422   2.850   8.293
71610SOL    HW116663   9.443   2.770   8.246
71610SOL    HW216664   9.326   2.853   8.294
71611SOL     OW16665  11.616   8.196   4.539
71611SOL    HW116666  11.610   8.124   4.602
71611SOL    HW216667  11.699   8.239   4.560
71612SOL     OW16668   4.935   0.271  13.842
71612SOL    HW116669   4.869   0.238  13.781
71612SOL    HW216670   4.904   0.358  13.867
71613SOL     OW16671  10.234   9.118   1.131
71613SOL    HW116672  10.281   9.110   1.214
71613SOL    HW216673  10.247   9.209   1.105
71614SOL     OW16674   5.330  11.629  12.164
71614SOL    HW116675   5.368  11.685  12.097
71614SOL    HW216676   5.319  11.686  12.240
71615SOL     OW16677   1.098   3.185   3.309
71615SOL    HW116678   1.125   3.222   3.225
71615SOL    HW216679   1.169   3.126   3.334
71616SOL     OW16680  12.953   2.418   1.958
71616SOL    HW116681  13.023   2.483   1.945
71616SOL    HW216682  12.954   2.367   1.877
71617SOL     OW16683  14.399   8.919  12.503
71617SOL    HW116684  14.388   8.850  12.438
71617SOL    HW216685  14.334   8.898  12.570
71618SOL     OW16686  13.075  11.965  14.549
71618SOL    HW116687  13.080  11.880  14.504
71618SOL    HW216688  13.015  12.016  14.495
71619SOL     OW16689   6.428   0.489   1.029
71619SOL    HW116690   6.476   0.416   0.992
71619SOL    HW216691   6.336   0.468   1.014
71620SOL     OW16692   1.139  13.084  14.413
71620SOL    HW116693   1.182  12.999  14.406
71620SOL    HW216694   1.210  13.148  14.417
71621SOL     OW16695   4.089   2.373   7.479
71621SOL    HW116696   4.008   2.334   7.510
71621SOL    HW216697   4.062   2.435   7.412
71622SOL     OW16698  11.240   3.402   9.539
71622SOL    HW116699  11.227   3.350   9.619
71622SOL    HW216700  11.315   3.457   9.558
71623SOL     OW16701   8.921   9.452   1.178
71623SOL    HW116702   8.915   9.490   1.091
71623SOL    HW216703   9.015   9.438   1.191
71624SOL     OW16704   9.657   6.215   1.392
71624SOL    HW116705   9.570   6.204   1.430
71624SOL    HW216706   9.662   6.149   1.323
71625SOL     OW16707   8.285  10.277   8.173
71625SOL    HW116708   8.287  10.248   8.264
71625SOL    HW216709   8.289  10.196   8.122
71626SOL     OW16710   4.187  11.883  12.896
71626SOL    HW116711   4.165  11.943  12.824
71626SOL    HW216712   4.205  11.941  12.970
71627SOL     OW16713   1.833  11.170   3.669
71627SOL    HW116714   1.857  11.203   3.583
71627SOL    HW216715   1.880  11.086   3.677
71628SOL     OW16716   5.098   9.519  11.952
71628SOL    HW116717   5.051   9.603  11.957
71628SOL    HW216718   5.037   9.455  11.988
71629SOL     OW16719  11.535   9.962  10.350
71629SOL    HW116720  11.541   9.868  10.371
71629SOL    HW216721  11.442   9.977  10.336
71630SOL     OW16722  11.121  13.753  14.638
71630SOL    HW116723  11.178  13.749  14.715
71630SOL    HW216724  11.047  13.697  14.660
71631SOL     OW16725  13.765   9.984   8.552
71631SOL    HW116726  13.804  10.070   8.571
71631SOL    HW216727  13.830   9.921   8.584
71632SOL     OW16728   6.047  12.973   8.244
71632SOL    HW116729   6.053  12.947   8.336
71632SOL    HW216730   6.054  12.891   8.195
71633SOL     OW16731   7.088   9.352   2.902
71633SOL    HW116732   7.037   9.426   2.935
71633SOL    HW216733   7.031   9.311   2.837
71634SOL     OW16734   7.301  14.402   0.227
71634SOL    HW116735   7.261  14.355   0.154
71634SOL    HW216736   7.393  14.410   0.203
71635SOL     OW16737   7.253  12.823   2.145
71635SOL    HW116738   7.277  12.754   2.207
71635SOL    HW216739   7.250  12.779   2.060
71636SOL     OW16740  11.930  10.554  11.029
71636SOL    HW116741  11.972  10.622  10.977
71636SOL    HW216742  11.837  10.561  11.007
71637SOL     OW16743   9.336   1.959   1.337
71637SOL    HW116744   9.388   2.030   1.374
71637SOL    HW216745   9.400   1.893   1.311
71638SOL     OW16746  11.469   6.328  14.501
71638SOL    HW116747  11.500   6.402  14.554
71638SOL    HW216748  11.374   6.327  14.515
71639SOL     OW16749  12.102   6.369   4.801
71639SOL    HW116750  12.194   6.355   4.779
71639SOL    HW216751  12.056   6.357   4.718
71640SOL     OW16752  10.582   6.549  10.748
71640SOL    HW116753  10.530   6.470  10.731
71640SOL    HW216754  10.559   6.609  10.676
71641SOL     OW16755   2.874   1.691  11.632
71641SOL    HW116756   2.964   1.667  11.611
71641SOL    HW216757   2.882   1.762  11.696
71642SOL     OW16758   8.313  13.156   4.642
71642SOL    HW116759   8.381  13.218   4.615
71642SOL    HW216760   8.244  13.167   4.577
71643SOL     OW16761  11.093   7.118  10.755
71643SOL    HW116762  11.046   7.184  10.704
71643SOL    HW216763  11.129   7.166  10.830
71644SOL     OW16764   2.849  10.109   3.780
71644SOL    HW116765   2.761  10.120   3.745
71644SOL    HW216766   2.878  10.024   3.747
71645SOL     OW16767   5.077   4.689   4.051
71645SOL    HW116768   5.161   4.730   4.032
71645SOL    HW216769   5.099   4.603   4.085
71646SOL     OW16770   0.344   1.478   0.348
71646SOL    HW116771   0.300   1.396   0.326
71646SOL    HW216772   0.346   1.526   0.265
71647SOL     OW16773   4.967   7.541  11.260
71647SOL    HW116774   4.983   7.497  11.343
71647SOL    HW216775   5.053   7.568  11.230
71648SOL     OW16776   2.712   3.233  10.610
71648SOL    HW116777   2.636   3.290  10.624
71648SOL    HW216778   2.715   3.177  10.688
71649SOL     OW16779   5.290  10.728   1.076
71649SOL    HW116780   5.287  10.810   1.026
71649SOL    HW216781   5.353  10.744   1.146
71650SOL     OW16782  10.399  10.034   2.214
71650SOL    HW116783  10.432   9.969   2.152
71650SOL    HW216784  10.474  10.054   2.270
71651SOL     OW16785   7.399   1.861   7.005
71651SOL    HW116786   7.469   1.868   6.941
71651SOL    HW216787   7.418   1.780   7.052
71652SOL     OW16788   1.334   8.251   7.516
71652SOL    HW116789   1.300   8.268   7.428
71652SOL    HW216790   1.260   8.267   7.574
71653SOL     OW16791   2.961  13.265  12.147
71653SOL    HW116792   2.968  13.172  12.123
71653SOL    HW216793   2.922  13.307  12.071
71654SOL     OW16794  10.335   6.058  13.853
71654SOL    HW116795  10.382   6.138  13.831
71654SOL    HW216796  10.252   6.065  13.806
71655SOL     OW16797   6.016   1.664  12.276
71655SOL    HW116798   6.015   1.620  12.361
71655SOL    HW216799   6.075   1.739  12.287
71656SOL     OW16800   0.625   1.742   5.779
71656SOL    HW116801   0.696   1.769   5.837
71656SOL    HW216802   0.646   1.781   5.695
71657SOL     OW16803  14.851  12.554   1.623
71657SOL    HW116804   0.056  12.606   1.605
71657SOL    HW216805   0.012  12.467   1.648
71658SOL     OW16806  13.105   0.981   1.210
71658SOL    HW116807  13.140   1.002   1.123
71658SOL    HW216808  13.119   1.060   1.262
71659SOL     OW16809  10.585   7.848   7.754
71659SOL    HW116810  10.490   7.841   7.766
71659SOL    HW216811  10.605   7.784   7.686
71660SOL     OW16812  10.973  13.082   9.988
71660SOL    HW116813  11.037  13.130  10.041
71660SOL    HW216814  10.999  13.100   9.897
71661SOL     OW16815  14.046  13.258   9.415
71661SOL    HW116816  13.976  13.305   9.370
71661SOL    HW216817  14.042  13.290   9.505
71662SOL     OW16818   4.244  14.729  10.202
71662SOL    HW116819   4.316  14.783  10.169
71662SOL    HW216820   4.194  14.787  10.258
71663SOL     OW16821  14.692  12.304  13.608
71663SOL    HW116822  14.618  12.260  13.568
71663SOL    HW216823  14.684  12.395  13.580
71664SOL     OW16824  13.100   4.817   4.876
71664SOL    HW116825  13.151   4.896   4.892
71664SOL    HW216826  13.115   4.763   4.953
71665SOL     OW16827   1.805  10.505   8.920
71665SOL    HW116828   1.883  10.482   8.867
71665SOL    HW216829   1.820  10.595   8.947
71666SOL     OW16830   1.229   0.860  10.622
71666SOL    HW116831   1.153   0.828  10.671
71666SOL    HW216832   1.192   0.902  10.544
71667SOL     OW16833  11.559   8.420   7.029
71667SOL    HW116834  11.635   8.362   7.035
71667SOL    HW216835  11.593   8.508   7.044
71668SOL     OW16836   2.940   4.830  12.559
71668SOL    HW116837   2.939   4.924  12.539
71668SOL    HW216838   2.848   4.805  12.556
71669SOL     OW16839  14.710   1.330   0.542
71669SOL    HW116840  14.787   1.276   0.557
71669SOL    HW216841  14.644   1.269   0.509
71670SOL     OW16842   0.121   2.401  11.241
71670SOL    HW116843   0.112   2.365  11.153
71670SOL    HW216844   0.206   2.370  11.271
71671SOL     OW16845   0.606   9.662  12.235
71671SOL    HW116846   0.666   9.722  12.191
71671SOL    HW216847   0.651   9.577  12.235
71672SOL     OW16848   0.765   4.349  10.769
71672SOL    HW116849   0.801   4.386  10.688
71672SOL    HW216850   0.841   4.323  10.820
71673SOL     OW16851   2.526  14.284   7.830
71673SOL    HW116852   2.509  14.378   7.825
71673SOL    HW216853   2.472  14.247   7.760
71674SOL     OW16854   7.265  10.951   8.420
71674SOL    HW116855   7.263  11.003   8.340
71674SOL    HW216856   7.177  10.915   8.428
71675SOL     OW16857  13.098   6.778   2.900
71675SOL    HW116858  13.184   6.794   2.861
71675SOL    HW216859  13.088   6.683   2.901
71676SOL     OW16860   3.577   4.232   0.456
71676SOL    HW116861   3.598   4.206   0.367
71676SOL    HW216862   3.642   4.186   0.510
71677SOL     OW16863   0.883   9.209   2.679
71677SOL    HW116864   0.788   9.224   2.685
71677SOL    HW216865   0.922   9.290   2.713
71678SOL     OW16866   2.053   9.587   6.973
71678SOL    HW116867   1.980   9.645   6.993
71678SOL    HW216868   2.045   9.515   7.036
71679SOL     OW16869  13.761  11.314   6.674
71679SOL    HW116870  13.838  11.366   6.652
71679SOL    HW216871  13.796  11.230   6.705
71680SOL     OW16872   1.186   8.046  11.761
71680SOL    HW116873   1.213   7.998  11.682
71680SOL    HW216874   1.094   8.067  11.745
71681SOL     OW16875  14.729   8.323   2.539
71681SOL    HW116876  14.742   8.414   2.514
71681SOL    HW216877  14.719   8.277   2.455
71682SOL     OW16878   7.794   0.581   0.877
71682SOL    HW116879   7.878   0.536   0.869
71682SOL    HW216880   7.741   0.546   0.804
71683SOL     OW16881   1.409   2.040  13.328
71683SOL    HW116882   1.478   2.004  13.384
71683SOL    HW216883   1.349   1.968  13.315
71684SOL     OW16884  13.605  13.876  13.235
71684SOL    HW116885  13.695  13.864  13.264
71684SOL    HW216886  13.555  13.889  13.316
71685SOL     OW16887   3.573   6.526   4.357
71685SOL    HW116888   3.576   6.531   4.261
71685SOL    HW216889   3.557   6.617   4.385
71686SOL     OW16890   4.773   1.399  10.371
71686SOL    HW116891   4.725   1.397  10.288
71686SOL    HW216892   4.788   1.492  10.388
71687SOL     OW16893   3.081  12.595   9.245
71687SOL    HW116894   3.036  12.512   9.227
71687SOL    HW216895   3.143  12.605   9.172
71688SOL     OW16896   4.631   1.543   9.770
71688SOL    HW116897   4.719   1.516   9.797
71688SOL    HW216898   4.582   1.461   9.766
71689SOL     OW16899   9.945  12.428  12.398
71689SOL    HW116900   9.869  12.445  12.455
71689SOL    HW216901   9.996  12.509  12.402
71690SOL     OW16902   5.826   8.460   2.840
71690SOL    HW116903   5.810   8.477   2.747
71690SOL    HW216904   5.921   8.446   2.846
71691SOL     OW16905  10.158   0.063   7.558
71691SOL    HW116906  10.193   0.143   7.598
71691SOL    HW216907  10.217   0.046   7.484
71692SOL     OW16908   5.493   8.501   9.556
71692SOL    HW116909   5.415   8.482   9.608
71692SOL    HW216910   5.478   8.458   9.472
71693SOL     OW16911   4.817   5.217  11.468
71693SOL    HW116912   4.898   5.172  11.492
71693SOL    HW216913   4.758   5.200  11.542
71694SOL     OW16914   1.513   1.427  12.794
71694SOL    HW116915   1.538   1.424  12.886
71694SOL    HW216916   1.526   1.338  12.763
71695SOL     OW16917   0.345  12.851   9.257
71695SOL    HW116918   0.379  12.816   9.340
71695SOL    HW216919   0.418  12.901   9.221
71696SOL     OW16920  14.624   5.843   0.793
71696SOL    HW116921  14.682   5.768   0.780
71696SOL    HW216922  14.682   5.919   0.795
71697SOL     OW16923   4.732   6.178   9.280
71697SOL    HW116924   4.782   6.189   9.199
71697SOL    HW216925   4.666   6.247   9.277
71698SOL     OW16926   3.684  13.598   0.095
71698SOL    HW116927   3.723  13.652   0.164
71698SOL    HW216928   3.730  13.514   0.102
71699SOL     OW16929  14.307   9.857   8.683
71699SOL    HW116930  14.398   9.828   8.687
71699SOL    HW216931  14.257   9.776   8.674
71700SOL     OW16932   1.852  11.343  14.658
71700SOL    HW116933   1.757  11.331  14.665
71700SOL    HW216934   1.875  11.297  14.577
71701SOL     OW16935   9.338   8.624  12.633
71701SOL    HW116936   9.364   8.597  12.545
71701SOL    HW216937   9.249   8.590  12.643
71702SOL     OW16938   1.142  11.141   0.608
71702SOL    HW116939   1.174  11.133   0.518
71702SOL    HW216940   1.213  11.106   0.661
71703SOL     OW16941   3.186  13.160   5.716
71703SOL    HW116942   3.106  13.126   5.676
71703SOL    HW216943   3.257  13.123   5.662
71704SOL     OW16944  11.523   9.451  13.200
71704SOL    HW116945  11.456   9.520  13.198
71704SOL    HW216946  11.495   9.389  13.133
71705SOL     OW16947   6.096   9.855   6.857
71705SOL    HW116948   6.111   9.767   6.891
71705SOL    HW216949   6.031   9.893   6.917
71706SOL     OW16950   1.318   4.051   1.344
71706SOL    HW116951   1.270   4.087   1.269
71706SOL    HW216952   1.407   4.085   1.334
71707SOL     OW16953   4.153   2.944   1.063
71707SOL    HW116954   4.139   2.901   1.147
71707SOL    HW216955   4.066   2.953   1.026
71708SOL     OW16956  13.790  13.084  11.528
71708SOL    HW116957  13.717  13.110  11.584
71708SOL    HW216958  13.779  13.135  11.448
71709SOL     OW16959  13.725   8.973   1.665
71709SOL    HW116960  13.640   8.930   1.659
71709SOL    HW216961  13.716   9.054   1.616
71710SOL     OW16962   0.849   7.677   5.789
71710SOL    HW116963   0.758   7.647   5.780
71710SOL    HW216964   0.861   7.687   5.884
71711SOL     OW16965   5.951   5.272   9.001
71711SOL    HW116966   5.927   5.217   8.926
71711SOL    HW216967   6.038   5.306   8.979
71712SOL     OW16968  13.723   8.905   7.837
71712SOL    HW116969  13.768   8.831   7.797
71712SOL    HW216970  13.783   8.979   7.826
71713SOL     OW16971   0.038   9.777   5.768
71713SOL    HW116972   0.021   9.828   5.847
71713SOL    HW216973   0.092   9.834   5.713
71714SOL     OW16974   1.188   2.294   7.945
71714SOL    HW116975   1.128   2.362   7.974
71714SOL    HW216976   1.235   2.333   7.871
71715SOL     OW16977   3.707   3.249   0.729
71715SOL    HW116978   3.679   3.317   0.790
71715SOL    HW216979   3.626   3.218   0.689
71716SOL     OW16980  10.997   3.161  12.015
71716SOL    HW116981  11.013   3.238  11.961
71716SOL    HW216982  10.902   3.161  12.030
71717SOL     OW16983   2.449   2.865  14.411
71717SOL    HW116984   2.419   2.833  14.326
71717SOL    HW216985   2.519   2.927  14.390
71718SOL     OW16986   8.187   8.471   4.041
71718SOL    HW116987   8.239   8.544   4.075
71718SOL    HW216988   8.171   8.493   3.949
71719SOL     OW16989   8.735  12.232   0.911
71719SOL    HW116990   8.722  12.163   0.975
71719SOL    HW216991   8.770  12.306   0.961
71720SOL     OW16992   1.119   3.635   5.506
71720SOL    HW116993   1.215   3.634   5.504
71720SOL    HW216994   1.094   3.586   5.427
71721SOL     OW16995   0.801   4.274   5.508
71721SOL    HW116996   0.732   4.340   5.521
71721SOL    HW216997   0.878   4.312   5.550
71722SOL     OW16998   5.050   0.906   2.518
71722SOL    HW116999   4.966   0.946   2.500
71722SOL    HW217000   5.114   0.963   2.476
71723SOL     OW17001   5.322  13.126   3.072
71723SOL    HW117002   5.290  13.160   3.156
71723SOL    HW217003   5.271  13.174   3.006
71724SOL     OW17004  11.631  10.865   2.783
71724SOL    HW117005  11.597  10.940   2.832
71724SOL    HW217006  11.726  10.870   2.794
71725SOL     OW17007   3.553   8.171   7.534
71725SOL    HW117008   3.539   8.234   7.463
71725SOL    HW217009   3.607   8.103   7.496
71726SOL     OW17010   4.084   3.554  12.708
71726SOL    HW117011   4.093   3.585  12.618
71726SOL    HW217012   4.013   3.489  12.704
71727SOL     OW17013   5.445   7.200   3.601
71727SOL    HW117014   5.359   7.231   3.574
71727SOL    HW217015   5.437   7.104   3.603
71728SOL     OW17016   4.556  10.627  10.911
71728SOL    HW117017   4.623  10.693  10.896
71728SOL    HW217018   4.603  10.550  10.942
71729SOL     OW17019  14.031   5.547   7.409
71729SOL    HW117020  14.037   5.638   7.440
71729SOL    HW217021  14.043   5.495   7.488
71730SOL     OW17022   3.880   8.753   1.485
71730SOL    HW117023   3.913   8.665   1.464
71730SOL    HW217024   3.848   8.786   1.401
71731SOL     OW17025   1.802   3.928  11.985
71731SOL    HW117026   1.836   3.839  11.994
71731SOL    HW217027   1.878   3.984  11.997
71732SOL     OW17028   3.621   4.872  14.343
71732SOL    HW117029   3.650   4.796  14.292
71732SOL    HW217030   3.564   4.921  14.282
71733SOL     OW17031   3.614   7.442  13.412
71733SOL    HW117032   3.682   7.395  13.363
71733SOL    HW217033   3.649   7.448  13.501
71734SOL     OW17034   3.959   2.139   7.114
71734SOL    HW117035   3.988   2.098   7.195
71734SOL    HW217036   4.040   2.159   7.067
71735SOL     OW17037  13.885  14.018   0.903
71735SOL    HW117038  13.975  14.048   0.919
71735SOL    HW217039  13.878  13.935   0.949
71736SOL     OW17040  12.884   5.892  14.223
71736SOL    HW117041  12.839   5.863  14.302
71736SOL    HW217042  12.853   5.982  14.210
71737SOL     OW17043   9.686   6.998   0.499
71737SOL    HW117044   9.754   7.062   0.516
71737SOL    HW217045   9.615   7.022   0.560
71738SOL     OW17046   1.827  12.729   0.786
71738SOL    HW117047   1.831  12.751   0.879
71738SOL    HW217048   1.912  12.755   0.751
71739SOL     OW17049   7.490  13.227  10.500
71739SOL    HW117050   7.573  13.192  10.533
71739SOL    HW217051   7.515  13.300  10.443
71740SOL     OW17052  12.957   0.454   6.325
71740SOL    HW117053  13.000   0.535   6.298
71740SOL    HW217054  12.916   0.475   6.409
71741SOL     OW17055  12.789   3.524   4.647
71741SOL    HW117056  12.759   3.505   4.558
71741SOL    HW217057  12.858   3.589   4.636
71742SOL     OW17058  11.466  10.650   2.671
71742SOL    HW117059  11.399  10.660   2.604
71742SOL    HW217060  11.486  10.740   2.698
71743SOL     OW17061  12.225  11.415   8.488
71743SOL    HW117062  12.148  11.359   8.497
71743SOL    HW217063  12.273  11.379   8.413
71744SOL     OW17064   4.521   6.759   8.654
71744SOL    HW117065   4.611   6.726   8.645
71744SOL    HW217066   4.518   6.797   8.741
71745SOL     OW17067   2.075   1.418   9.844
71745SOL    HW117068   2.059   1.508   9.818
71745SOL    HW217069   2.114   1.424   9.931
71746SOL     OW17070   6.388   9.828  12.009
71746SOL    HW117071   6.473   9.853  11.972
71746SOL    HW217072   6.370   9.896  12.075
71747SOL     OW17073  11.051   8.757   2.159
71747SOL    HW117074  10.992   8.799   2.096
71747SOL    HW217075  10.996   8.742   2.237
71748SOL     OW17076   9.329   4.587  10.285
71748SOL    HW117077   9.328   4.615  10.376
71748SOL    HW217078   9.360   4.496  10.288
71749SOL     OW17079   5.578   4.503  10.672
71749SOL    HW117080   5.624   4.555  10.738
71749SOL    HW217081   5.565   4.564  10.599
71750SOL     OW17082   0.341  12.033   0.059
71750SOL    HW117083   0.400  11.959   0.047
71750SOL    HW217084   0.333  12.042   0.154
71751SOL     OW17085  12.007   0.429  12.354
71751SOL    HW117086  12.088   0.386  12.380
71751SOL    HW217087  11.972   0.466  12.436
71752SOL     OW17088   1.458   8.704  12.303
71752SOL    HW117089   1.374   8.727  12.261
71752SOL    HW217090   1.476   8.778  12.361
71753SOL     OW17091   3.900  12.488  10.444
71753SOL    HW117092   3.968  12.422  10.434
71753SOL    HW217093   3.819  12.439  10.451
71754SOL     OW17094  10.291  14.528   8.319
71754SOL    HW117095  10.234  14.457   8.348
71754SOL    HW217096  10.260  14.605   8.368
71755SOL     OW17097  11.309   6.733  13.264
71755SOL    HW117098  11.271   6.820  13.263
71755SOL    HW217099  11.239   6.676  13.230
71756SOL     OW17100   5.856   4.625   6.098
71756SOL    HW117101   5.863   4.712   6.136
71756SOL    HW217102   5.921   4.572   6.145
71757SOL     OW17103   1.742   9.218   4.901
71757SOL    HW117104   1.816   9.172   4.862
71757SOL    HW217105   1.720   9.286   4.837
71758SOL     OW17106  14.107   1.403   6.141
71758SOL    HW117107  14.150   1.319   6.121
71758SOL    HW217108  14.179   1.463   6.159
71759SOL     OW17109   1.183   2.861   6.680
71759SOL    HW117110   1.128   2.858   6.602
71759SOL    HW217111   1.128   2.900   6.748
71760SOL     OW17112  10.684   9.443   3.834
71760SOL    HW117113  10.707   9.384   3.905
71760SOL    HW217114  10.735   9.412   3.759
71761SOL     OW17115   1.636   2.301  10.857
71761SOL    HW117116   1.618   2.393  10.878
71761SOL    HW217117   1.558   2.254  10.888
71762SOL     OW17118  13.706   4.524  14.314
71762SOL    HW117119  13.781   4.484  14.270
71762SOL    HW217120  13.702   4.479  14.398
71763SOL     OW17121   6.705   6.729  13.737
71763SOL    HW117122   6.714   6.634  13.729
71763SOL    HW217123   6.691   6.744  13.830
71764SOL     OW17124  11.268   5.286   3.456
71764SOL    HW117125  11.336   5.343   3.419
71764SOL    HW217126  11.310   5.245   3.531
71765SOL     OW17127   6.869  14.843   8.919
71765SOL    HW117128   6.961  14.865   8.906
71765SOL    HW217129   6.855  14.764   8.866
71766SOL     OW17130  12.888   3.222  13.025
71766SOL    HW117131  12.879   3.246  12.933
71766SOL    HW217132  12.840   3.140  13.033
71767SOL     OW17133   0.444  11.176   2.212
71767SOL    HW117134   0.440  11.148   2.303
71767SOL    HW217135   0.372  11.239   2.203
71768SOL     OW17136   2.545  13.832  10.521
71768SOL    HW117137   2.558  13.789  10.437
71768SOL    HW217138   2.466  13.791  10.556
71769SOL     OW17139   7.482  13.102   7.200
71769SOL    HW117140   7.448  13.043   7.133
71769SOL    HW217141   7.441  13.073   7.281
71770SOL     OW17142  14.385   9.542   0.119
71770SOL    HW117143  14.383   9.614   0.057
71770SOL    HW217144  14.294   9.533   0.149
71771SOL     OW17145   4.948   7.603  11.655
71771SOL    HW117146   4.892   7.542  11.607
71771SOL    HW217147   4.934   7.581  11.747
71772SOL     OW17148   6.235  13.248  11.464
71772SOL    HW117149   6.162  13.295  11.423
71772SOL    HW217150   6.311  13.304  11.447
71773SOL     OW17151   2.242  14.391   1.130
71773SOL    HW117152   2.232  14.449   1.206
71773SOL    HW217153   2.155  14.388   1.090
71774SOL     OW17154   2.693  13.929   3.372
71774SOL    HW117155   2.779  13.941   3.332
71774SOL    HW217156   2.641  14.003   3.342
71775SOL     OW17157   2.313   4.429  13.440
71775SOL    HW117158   2.264   4.436  13.359
71775SOL    HW217159   2.315   4.519  13.475
71776SOL     OW17160   9.461   2.273  10.120
71776SOL    HW117161   9.503   2.282  10.034
71776SOL    HW217162   9.471   2.180  10.142
71777SOL     OW17163  11.526  12.260   9.299
71777SOL    HW117164  11.622  12.267   9.292
71777SOL    HW217165  11.493  12.331   9.243
71778SOL     OW17166  10.523   3.419   3.082
71778SOL    HW117167  10.549   3.462   3.001
71778SOL    HW217168  10.597   3.433   3.141
71779SOL     OW17169  11.853   5.664   2.039
71779SOL    HW117170  11.909   5.586   2.043
71779SOL    HW217171  11.879   5.709   1.959
71780SOL     OW17172   6.217   2.269   5.785
71780SOL    HW117173   6.173   2.353   5.772
71780SOL    HW217174   6.230   2.263   5.880
71781SOL     OW17175   9.058  12.241  10.819
71781SOL    HW117176   9.036  12.153  10.787
71781SOL    HW217177   9.153  12.239  10.832
71782SOL     OW17178  14.839   2.946  11.854
71782SOL    HW117179  14.745   2.964  11.860
71782SOL    HW217180  14.858   2.944  11.760
71783SOL     OW17181  11.810  13.322   1.269
71783SOL    HW117182  11.840  13.305   1.358
71783SOL    HW217183  11.808  13.418   1.264
71784SOL     OW17184   2.215   3.810  10.490
71784SOL    HW117185   2.195   3.883  10.430
71784SOL    HW217186   2.213   3.850  10.577
71785SOL     OW17187  14.339  13.199   4.553
71785SOL    HW117188  14.267  13.191   4.614
71785SOL    HW217189  14.327  13.127   4.491
71786SOL     OW17190   8.928  10.389   5.546
71786SOL    HW117191   8.996  10.457   5.538
71786SOL    HW217192   8.873  10.403   5.469
71787SOL     OW17193  13.440   5.686   8.884
71787SOL    HW117194  13.460   5.722   8.798
71787SOL    HW217195  13.444   5.761   8.943
71788SOL     OW17196  13.026   1.319   5.576
71788SOL    HW117197  13.003   1.280   5.492
71788SOL    HW217198  13.044   1.244   5.633
71789SOL     OW17199   8.855   9.824   5.842
71789SOL    HW117200   8.824   9.736   5.859
71789SOL    HW217201   8.877   9.824   5.749
71790SOL     OW17202  13.230  13.429   1.687
71790SOL    HW117203  13.241  13.408   1.594
71790SOL    HW217204  13.300  13.380   1.731
71791SOL     OW17205   4.430   3.245   3.294
71791SOL    HW117206   4.455   3.259   3.202
71791SOL    HW217207   4.388   3.159   3.294
71792SOL     OW17208   4.575  10.281  12.354
71792SOL    HW117209   4.665  10.289  12.324
71792SOL    HW217210   4.582  10.267  12.449
71793SOL     OW17211   4.407  11.166   6.640
71793SOL    HW117212   4.383  11.236   6.579
71793SOL    HW217213   4.491  11.134   6.608
71794SOL     OW17214   1.990   7.784   4.527
71794SOL    HW117215   1.907   7.786   4.576
71794SOL    HW217216   1.982   7.856   4.465
71795SOL     OW17217   4.721   2.293   7.232
71795SOL    HW117218   4.812   2.287   7.202
71795SOL    HW217219   4.714   2.380   7.270
71796SOL     OW17220   3.475   6.505   5.889
71796SOL    HW117221   3.552   6.543   5.932
71796SOL    HW217222   3.411   6.495   5.959
71797SOL     OW17223  11.466   3.837  11.796
71797SOL    HW117224  11.375   3.862  11.783
71797SOL    HW217225  11.516   3.907  11.753
71798SOL     OW17226   2.782   5.413   9.884
71798SOL    HW117227   2.734   5.466   9.821
71798SOL    HW217228   2.831   5.476   9.937
71799SOL     OW17229  13.105   0.496   6.018
71799SOL    HW117230  13.113   0.554   6.094
71799SOL    HW217231  13.050   0.544   5.956
71800SOL     OW17232   4.278  11.678   1.829
71800SOL    HW117233   4.187  11.651   1.844
71800SOL    HW217234   4.271  11.754   1.771
71801SOL     OW17235   8.298  10.283   0.341
71801SOL    HW117236   8.388  10.279   0.308
71801SOL    HW217237   8.302  10.243   0.428
71802SOL     OW17238   4.765   0.944   9.049
71802SOL    HW117239   4.855   0.926   9.075
71802SOL    HW217240   4.769   0.954   8.954
71803SOL     OW17241   2.881   1.687  13.640
71803SOL    HW117242   2.884   1.765  13.696
71803SOL    HW217243   2.807   1.704  13.581
71804SOL     OW17244  13.118   3.211   0.711
71804SOL    HW117245  13.171   3.138   0.742
71804SOL    HW217246  13.130   3.279   0.777
71805SOL     OW17247  13.839   1.166   8.784
71805SOL    HW117248  13.750   1.144   8.811
71805SOL    HW217249  13.849   1.258   8.805
71806SOL     OW17250   5.836  14.816   2.399
71806SOL    HW117251   5.879  14.749   2.346
71806SOL    HW217252   5.779  14.766   2.457
71807SOL     OW17253  10.790   6.484  14.009
71807SOL    HW117254  10.787   6.460  14.102
71807SOL    HW217255  10.711   6.447  13.972
71808SOL     OW17256  11.664   6.052  12.708
71808SOL    HW117257  11.586   6.010  12.744
71808SOL    HW217258  11.631   6.135  12.673
71809SOL     OW17259   0.208   1.147   2.182
71809SOL    HW117260   0.132   1.164   2.238
71809SOL    HW217261   0.173   1.092   2.112
71810SOL     OW17262   0.337   9.188   4.095
71810SOL    HW117263   0.336   9.207   4.188
71810SOL    HW217264   0.337   9.092   4.089
71811SOL     OW17265   2.620   0.193  10.713
71811SOL    HW117266   2.671   0.245  10.775
71811SOL    HW217267   2.614   0.107  10.753
71812SOL     OW17268   4.148   8.031   1.672
71812SOL    HW117269   4.099   7.971   1.729
71812SOL    HW217270   4.239   8.003   1.681
71813SOL     OW17271  14.746  14.136   9.304
71813SOL    HW117272  14.732  14.230   9.304
71813SOL    HW217273  14.830  14.124   9.260
71814SOL     OW17274  14.145  10.008   5.917
71814SOL    HW117275  14.054  10.013   5.948
71814SOL    HW217276  14.192   9.967   5.990
71815SOL     OW17277  12.766   4.461   7.290
71815SOL    HW117278  12.854   4.427   7.276
71815SOL    HW217279  12.750   4.450   7.383
71816SOL     OW17280   0.357  11.932  11.165
71816SOL    HW117281   0.338  11.959  11.255
71816SOL    HW217282   0.288  11.975  11.114
71817SOL     OW17283   4.717   8.341   2.321
71817SOL    HW117284   4.699   8.247   2.321
71817SOL    HW217285   4.680   8.372   2.239
71818SOL     OW17286  13.717   0.569   9.437
71818SOL    HW117287  13.734   0.592   9.345
71818SOL    HW217288  13.788   0.509   9.460
71819SOL     OW17289  14.294   0.627  12.858
71819SOL    HW117290  14.232   0.585  12.799
71819SOL    HW217291  14.346   0.555  12.894
71820SOL     OW17292   9.023  14.080   2.747
71820SOL    HW117293   8.950  14.102   2.690
71820SOL    HW217294   9.101  14.107   2.698
71821SOL     OW17295   0.507   0.784   7.334
71821SOL    HW117296   0.466   0.700   7.314
71821SOL    HW217297   0.501   0.792   7.429
71822SOL     OW17298  14.121  14.849  14.523
71822SOL    HW117299  14.088  14.783  14.584
71822SOL    HW217300  14.081  14.826  14.439
71823SOL     OW17301   8.059   6.344   1.582
71823SOL    HW117302   8.073   6.417   1.521
71823SOL    HW217303   7.964   6.337   1.590
71824SOL     OW17304   0.339   8.477   1.318
71824SOL    HW117305   0.423   8.523   1.315
71824SOL    HW217306   0.302   8.489   1.230
71825SOL     OW17307   5.712  10.324  14.861
71825SOL    HW117308   5.719  10.362   0.076
71825SOL    HW217309   5.789  10.358  14.815
71826SOL     OW17310  12.758   1.264   4.888
71826SOL    HW117311  12.814   1.341   4.885
71826SOL    HW217312  12.814   1.192   4.859
71827SOL     OW17313   8.134  14.508   1.142
71827SOL    HW117314   8.166  14.597   1.158
71827SOL    HW217315   8.179  14.454   1.207
71828SOL     OW17316   1.145   0.151   3.347
71828SOL    HW117317   1.188   0.095   3.282
71828SOL    HW217318   1.079   0.095   3.387
71829SOL     OW17319   8.275   7.409   8.383
71829SOL    HW117320   8.244   7.320   8.400
71829SOL    HW217321   8.370   7.399   8.370
71830SOL     OW17322   0.393   1.276   4.061
71830SOL    HW117323   0.482   1.247   4.082
71830SOL    HW217324   0.403   1.369   4.040
71831SOL     OW17325   1.550   7.714   0.283
71831SOL    HW117326   1.472   7.680   0.326
71831SOL    HW217327   1.562   7.802   0.319
71832SOL     OW17328  10.223   9.984  13.037
71832SOL    HW117329  10.235   9.889  13.041
71832SOL    HW217330  10.266  10.010  12.955
71833SOL     OW17331   2.825   6.795   4.515
71833SOL    HW117332   2.833   6.747   4.433
71833SOL    HW217333   2.810   6.886   4.487
71834SOL     OW17334  13.008  13.161   2.449
71834SOL    HW117335  13.068  13.151   2.523
71834SOL    HW217336  12.921  13.146   2.487
71835SOL     OW17337   0.749   9.572   8.319
71835SOL    HW117338   0.797   9.576   8.236
71835SOL    HW217339   0.755   9.480   8.345
71836SOL     OW17340   3.085   8.984   6.905
71836SOL    HW117341   3.145   9.017   6.837
71836SOL    HW217342   3.143   8.958   6.976
71837SOL     OW17343   0.762  13.783   0.934
71837SOL    HW117344   0.698  13.837   0.889
71837SOL    HW217345   0.766  13.819   1.023
71838SOL     OW17346  11.385   3.910   5.697
71838SOL    HW117347  11.436   3.851   5.752
71838SOL    HW217348  11.438   3.922   5.618
71839SOL     OW17349   0.922   2.610  12.292
71839SOL    HW117350   0.927   2.703  12.316
71839SOL    HW217351   0.897   2.566  12.373
71840SOL     OW17352   9.352   9.251   6.548
71840SOL    HW117353   9.263   9.252   6.584
71840SOL    HW217354   9.341   9.279   6.457
71841SOL     OW17355  11.501   2.490   3.618
71841SOL    HW117356  11.441   2.558   3.649
71841SOL    HW217357  11.549   2.464   3.697
71842SOL     OW17358   4.520   2.577   2.694
71842SOL    HW117359   4.473   2.659   2.678
71842SOL    HW217360   4.482   2.542   2.775
71843SOL     OW17361   9.096  14.396   7.349
71843SOL    HW117362   9.041  14.403   7.271
71843SOL    HW217363   9.047  14.441   7.418
71844SOL     OW17364   1.853   9.787  14.057
71844SOL    HW117365   1.763   9.812  14.074
71844SOL    HW217366   1.862   9.701  14.098
71845SOL     OW17367   0.678   0.359   1.029
71845SOL    HW117368   0.664   0.436   1.085
71845SOL    HW217369   0.606   0.300   1.051
71846SOL     OW17370  12.019   1.895   0.767
71846SOL    HW117371  11.923   1.893   0.767
71846SOL    HW217372  12.042   1.952   0.694
71847SOL     OW17373   1.026  14.794  14.725
71847SOL    HW117374   1.106  14.752  14.756
71847SOL    HW217375   1.029  14.782  14.630
71848SOL     OW17376   9.677   4.037   5.220
71848SOL    HW117377   9.741   4.014   5.153
71848SOL    HW217378   9.723   4.099   5.277
71849SOL     OW17379  12.385   8.629   8.586
71849SOL    HW117380  12.430   8.566   8.531
71849SOL    HW217381  12.302   8.646   8.540
71850SOL     OW17382   8.389   6.167  11.013
71850SOL    HW117383   8.390   6.103  11.084
71850SOL    HW217384   8.419   6.118  10.936
71851SOL     OW17385   8.579   4.236  14.290
71851SOL    HW117386   8.572   4.141  14.288
71851SOL    HW217387   8.514   4.263  14.355
71852SOL     OW17388  10.328   4.262   9.017
71852SOL    HW117389  10.405   4.221   9.057
71852SOL    HW217390  10.364   4.326   8.955
71853SOL     OW17391   5.612  12.223  14.783
71853SOL    HW117392   5.569  12.162  14.843
71853SOL    HW217393   5.587  12.309  14.814
71854SOL     OW17394   0.629  13.297   5.578
71854SOL    HW117395   0.583  13.376   5.608
71854SOL    HW217396   0.583  13.272   5.498
71855SOL     OW17397  12.746   9.051  11.420
71855SOL    HW117398  12.761   9.059  11.326
71855SOL    HW217399  12.667   8.997  11.428
71856SOL     OW17400   4.613   3.671   0.328
71856SOL    HW117401   4.646   3.641   0.413
71856SOL    HW217402   4.689   3.671   0.271
71857SOL     OW17403   1.566   3.217   7.689
71857SOL    HW117404   1.626   3.263   7.629
71857SOL    HW217405   1.617   3.206   7.769
71858SOL     OW17406   0.985  11.051   6.868
71858SOL    HW117407   0.913  10.991   6.887
71858SOL    HW217408   1.046  11.039   6.941
71859SOL     OW17409   4.375   5.124   9.978
71859SOL    HW117410   4.320   5.060  10.023
71859SOL    HW217411   4.463   5.111  10.015
71860SOL     OW17412  13.155   6.157   2.722
71860SOL    HW117413  13.102   6.164   2.642
71860SOL    HW217414  13.153   6.244   2.760
71861SOL     OW17415   5.612   9.842   6.352
71861SOL    HW117416   5.579   9.783   6.419
71861SOL    HW217417   5.603   9.794   6.270
71862SOL     OW17418   2.428   7.506  11.615
71862SOL    HW117419   2.399   7.589  11.578
71862SOL    HW217420   2.509   7.527  11.661
71863SOL     OW17421   7.121   4.852   9.204
71863SOL    HW117422   7.028   4.873   9.220
71863SOL    HW217423   7.133   4.869   9.110
71864SOL     OW17424   0.814   2.059   3.404
71864SOL    HW117425   0.746   2.001   3.438
71864SOL    HW217426   0.889   2.002   3.387
71865SOL     OW17427  14.237   1.337  14.257
71865SOL    HW117428  14.240   1.348  14.352
71865SOL    HW217429  14.200   1.419  14.224
71866SOL     OW17430   3.762   9.674  11.502
71866SOL    HW117431   3.765   9.723  11.419
71866SOL    HW217432   3.847   9.691  11.542
71867SOL     OW17433  14.216   5.530   2.765
71867SOL    HW117434  14.191   5.521   2.673
71867SOL    HW217435  14.306   5.562   2.762
71868SOL     OW17436   3.581  11.808   0.481
71868SOL    HW117437   3.609  11.725   0.521
71868SOL    HW217438   3.585  11.791   0.387
71869SOL     OW17439   0.173  13.381  13.458
71869SOL    HW117440   0.205  13.388  13.548
71869SOL    HW217441   0.245  13.411  13.403
71870SOL     OW17442   7.360   9.173   0.270
71870SOL    HW117443   7.361   9.268   0.284
71870SOL    HW217444   7.311   9.162   0.188
71871SOL     OW17445   5.658   7.480  10.077
71871SOL    HW117446   5.724   7.421  10.041
71871SOL    HW217447   5.707   7.557  10.104
71872SOL     OW17448   2.101  11.005   2.131
71872SOL    HW117449   2.120  10.916   2.100
71872SOL    HW217450   2.031  11.036   2.074
71873SOL     OW17451  10.347  13.394   9.401
71873SOL    HW117452  10.337  13.487   9.421
71873SOL    HW217453  10.259  13.365   9.376
71874SOL     OW17454   1.209   6.448  11.036
71874SOL    HW117455   1.268   6.468  10.963
71874SOL    HW217456   1.124   6.434  10.994
71875SOL     OW17457  14.443   0.789   9.641
71875SOL    HW117458  14.491   0.764   9.563
71875SOL    HW217459  14.351   0.784   9.616
71876SOL     OW17460  14.484   0.308   4.376
71876SOL    HW117461  14.537   0.351   4.443
71876SOL    HW217462  14.411   0.269   4.423
71877SOL     OW17463   9.395   2.912   5.066
71877SOL    HW117464   9.472   2.967   5.084
71877SOL    HW217465   9.322   2.973   5.061
71878SOL     OW17466  14.629   3.241   9.014
71878SOL    HW117467  14.705   3.286   8.978
71878SOL    HW217468  14.600   3.297   9.087
71879SOL     OW17469   4.200  14.250  12.849
71879SOL    HW117470   4.256  14.172  12.849
71879SOL    HW217471   4.247  14.313  12.795
71880SOL     OW17472   4.617   4.128   5.285
71880SOL    HW117473   4.647   4.198   5.343
71880SOL    HW217474   4.560   4.173   5.222
71881SOL     OW17475  10.562   0.739   0.197
71881SOL    HW117476  10.564   0.751   0.292
71881SOL    HW217477  10.648   0.770   0.168
71882SOL     OW17478  10.709  13.369   2.263
71882SOL    HW117479  10.764  13.325   2.327
71882SOL    HW217480  10.770  13.398   2.195
71883SOL     OW17481   1.660   5.578  11.166
71883SOL    HW117482   1.691   5.609  11.252
71883SOL    HW217483   1.731   5.523  11.134
71884SOL     OW17484  12.564   5.289  10.095
71884SOL    HW117485  12.638   5.238  10.062
71884SOL    HW217486  12.579   5.377  10.062
71885SOL     OW17487   2.206  12.876  11.419
71885SOL    HW117488   2.231  12.792  11.458
71885SOL    HW217489   2.159  12.851  11.339
71886SOL     OW17490   4.565   2.026  14.346
71886SOL    HW117491   4.476   1.991  14.344
71886SOL    HW217492   4.581   2.054  14.256
71887SOL     OW17493  10.859  10.335   7.700
71887SOL    HW117494  10.820  10.332   7.613
71887SOL    HW217495  10.784  10.338   7.760
71888SOL     OW17496   4.389   4.116   5.881
71888SOL    HW117497   4.466   4.075   5.920
71888SOL    HW217498   4.419   4.205   5.858
71889SOL     OW17499  10.501  13.531  10.561
71889SOL    HW117500  10.423  13.476  10.562
71889SOL    HW217501  10.509  13.564  10.651
71890SOL     OW17502  14.150  10.339  13.458
71890SOL    HW117503  14.065  10.347  13.414
71890SOL    HW217504  14.166  10.244  13.461
71891SOL     OW17505  14.369   9.896   2.368
71891SOL    HW117506  14.319   9.832   2.317
71891SOL    HW217507  14.340   9.981   2.335
71892SOL     OW17508   4.897  13.974  12.136
71892SOL    HW117509   4.944  13.895  12.163
71892SOL    HW217510   4.936  14.044  12.188
71893SOL     OW17511   1.031   4.792  10.678
71893SOL    HW117512   1.008   4.864  10.737
71893SOL    HW217513   1.032   4.715  10.734
71894SOL     OW17514   1.872   0.640  12.054
71894SOL    HW117515   1.904   0.587  12.127
71894SOL    HW217516   1.925   0.720  12.057
71895SOL     OW17517  14.829  13.304   5.408
71895SOL    HW117518  14.850  13.397   5.414
71895SOL    HW217519  14.734  13.303   5.393
71896SOL     OW17520   7.952  14.316   8.010
71896SOL    HW117521   7.998  14.336   7.929
71896SOL    HW217522   7.930  14.223   8.003
71897SOL     OW17523   8.404   4.030  13.814
71897SOL    HW117524   8.431   3.975  13.741
71897SOL    HW217525   8.423   4.120  13.786
71898SOL     OW17526   7.387   7.236  12.543
71898SOL    HW117527   7.419   7.207  12.628
71898SOL    HW217528   7.311   7.179  12.525
71899SOL     OW17529   4.368  10.273   6.471
71899SOL    HW117530   4.450  10.309   6.505
71899SOL    HW217531   4.319  10.350   6.442
71900SOL     OW17532  10.932  11.041   6.017
71900SOL    HW117533  10.888  10.957   6.002
71900SOL    HW217534  10.861  11.106   6.017
71901SOL     OW17535   6.660   9.583   5.052
71901SOL    HW117536   6.706   9.516   5.002
71901SOL    HW217537   6.571   9.582   5.016
71902SOL     OW17538   1.101  13.893  10.386
71902SOL    HW117539   1.110  13.898  10.291
71902SOL    HW217540   1.104  13.984  10.415
71903SOL     OW17541  12.791  11.432   0.376
71903SOL    HW117542  12.859  11.497   0.395
71903SOL    HW217543  12.819  11.354   0.424
71904SOL     OW17544   9.274  12.188  10.263
71904SOL    HW117545   9.259  12.177  10.168
71904SOL    HW217546   9.248  12.104  10.300
71905SOL     OW17547  12.870   6.928   8.661
71905SOL    HW117548  12.792   6.896   8.616
71905SOL    HW217549  12.837   6.969   8.741
71906SOL     OW17550   6.591   0.757  10.231
71906SOL    HW117551   6.603   0.674  10.185
71906SOL    HW217552   6.658   0.814  10.194
71907SOL     OW17553   9.777  12.260  10.678
71907SOL    HW117554   9.859  12.224  10.644
71907SOL    HW217555   9.799  12.294  10.764
71908SOL     OW17556   1.625  11.149   6.584
71908SOL    HW117557   1.535  11.144   6.615
71908SOL    HW217558   1.637  11.069   6.532
71909SOL     OW17559   1.277   3.104   9.129
71909SOL    HW117560   1.229   3.038   9.179
71909SOL    HW217561   1.209   3.160   9.092
71910SOL     OW17562   5.233  12.519   9.409
71910SOL    HW117563   5.319  12.499   9.447
71910SOL    HW217564   5.171  12.493   9.476
71911SOL     OW17565   6.520   6.233   3.889
71911SOL    HW117566   6.579   6.160   3.908
71911SOL    HW217567   6.471   6.246   3.970
71912SOL     OW17568   9.920  10.482   0.943
71912SOL    HW117569   9.979  10.512   1.012
71912SOL    HW217570   9.929  10.387   0.943
71913SOL     OW17571   6.311  11.948   6.202
71913SOL    HW117572   6.402  11.972   6.218
71913SOL    HW217573   6.260  12.008   6.257
71914SOL     OW17574  14.074   2.319  12.931
71914SOL    HW117575  14.089   2.252  12.997
71914SOL    HW217576  14.119   2.397  12.964
71915SOL     OW17577  12.736   3.718   2.923
71915SOL    HW117578  12.766   3.746   2.836
71915SOL    HW217579  12.642   3.704   2.912
71916SOL     OW17580   7.466  13.966   3.607
71916SOL    HW117581   7.509  13.908   3.670
71916SOL    HW217582   7.400  14.013   3.659
71917SOL     OW17583   8.693  13.175   1.730
71917SOL    HW117584   8.674  13.082   1.746
71917SOL    HW217585   8.781  13.188   1.763
71918SOL     OW17586  13.741  14.103  10.301
71918SOL    HW117587  13.719  14.172  10.364
71918SOL    HW217588  13.837  14.105  10.297
71919SOL     OW17589   5.116   5.487   4.794
71919SOL    HW117590   5.208   5.505   4.815
71919SOL    HW217591   5.081   5.444   4.872
71920SOL     OW17592   6.627   2.846   0.679
71920SOL    HW117593   6.703   2.789   0.690
71920SOL    HW217594   6.664   2.932   0.660
71921SOL     OW17595   5.084   7.753   1.265
71921SOL    HW117596   5.073   7.675   1.210
71921SOL    HW217597   5.085   7.720   1.354
71922SOL     OW17598   9.994   7.025   2.054
71922SOL    HW117599   9.954   7.000   2.137
71922SOL    HW217600   9.920   7.037   1.994
71923SOL     OW17601   3.973   8.281   8.675
71923SOL    HW117602   3.952   8.245   8.761
71923SOL    HW217603   4.068   8.275   8.669
71924SOL     OW17604  13.961  12.068   0.778
71924SOL    HW117605  14.017  12.021   0.840
71924SOL    HW217606  14.000  12.156   0.772
71925SOL     OW17607   5.343   3.103  14.416
71925SOL    HW117608   5.434   3.131  14.427
71925SOL    HW217609   5.349   3.010  14.395
71926SOL     OW17610   2.886   2.406   6.649
71926SOL    HW117611   2.973   2.404   6.689
71926SOL    HW217612   2.827   2.381   6.719
71927SOL     OW17613   3.379   1.948   4.837
71927SOL    HW117614   3.405   1.875   4.782
71927SOL    HW217615   3.453   2.009   4.832
71928SOL     OW17616  10.118   9.419   7.185
71928SOL    HW117617  10.034   9.416   7.140
71928SOL    HW217618  10.181   9.440   7.116
71929SOL     OW17619  10.710   4.330  12.163
71929SOL    HW117620  10.729   4.271  12.090
71929SOL    HW217621  10.669   4.274  12.229
71930SOL     OW17622  14.494   3.035   4.918
71930SOL    HW117623  14.579   3.070   4.891
71930SOL    HW217624  14.433   3.107   4.903
71931SOL     OW17625  10.303  11.399   3.385
71931SOL    HW117626  10.374  11.337   3.403
71931SOL    HW217627  10.227  11.344   3.370
71932SOL     OW17628   7.012   0.673   9.815
71932SOL    HW117629   7.008   0.579   9.829
71932SOL    HW217630   6.969   0.711   9.892
71933SOL     OW17631   1.965   7.169   7.637
71933SOL    HW117632   1.973   7.264   7.636
71933SOL    HW217633   1.945   7.147   7.728
71934SOL     OW17634   3.097   0.377   7.083
71934SOL    HW117635   3.083   0.447   7.146
71934SOL    HW217636   3.033   0.309   7.107
71935SOL     OW17637  14.052   2.304  11.536
71935SOL    HW117638  14.043   2.260  11.451
71935SOL    HW217639  14.114   2.376  11.519
71936SOL     OW17640   0.411  12.492  13.869
71936SOL    HW117641   0.434  12.473  13.778
71936SOL    HW217642   0.339  12.554  13.863
71937SOL     OW17643   8.624   2.626   0.528
71937SOL    HW117644   8.615   2.660   0.618
71937SOL    HW217645   8.714   2.648   0.503
71938SOL     OW17646   3.988  13.588   7.235
71938SOL    HW117647   4.020  13.504   7.202
71938SOL    HW217648   3.916  13.611   7.177
71939SOL     OW17649   7.299  12.805   7.100
71939SOL    HW117650   7.387  12.780   7.129
71939SOL    HW217651   7.243  12.786   7.174
71940SOL     OW17652   7.410   1.015   0.600
71940SOL    HW117653   7.461   1.088   0.566
71940SOL    HW217654   7.399   1.034   0.693
71941SOL     OW17655  13.118  13.841  10.813
71941SOL    HW117656  13.051  13.877  10.755
71941SOL    HW217657  13.132  13.752  10.781
71942SOL     OW17658   4.407   7.665   1.264
71942SOL    HW117659   4.461   7.676   1.342
71942SOL    HW217660   4.391   7.754   1.233
71943SOL     OW17661   8.064   4.207  11.025
71943SOL    HW117662   8.031   4.184  11.112
71943SOL    HW217663   8.036   4.135  10.969
71944SOL     OW17664  10.989   0.049   2.577
71944SOL    HW117665  11.016   0.068   2.667
71944SOL    HW217666  11.071   0.048   2.527
71945SOL     OW17667   3.828   5.735  11.678
71945SOL    HW117668   3.910   5.687  11.692
71945SOL    HW217669   3.816   5.785  11.759
71946SOL     OW17670   6.507   6.076   1.718
71946SOL    HW117671   6.484   5.992   1.679
71946SOL    HW217672   6.516   6.058   1.811
71947SOL     OW17673   0.278   5.792   0.944
71947SOL    HW117674   0.277   5.831   1.031
71947SOL    HW217675   0.306   5.701   0.959
71948SOL     OW17676   6.613   2.173   0.829
71948SOL    HW117677   6.602   2.106   0.761
71948SOL    HW217678   6.683   2.230   0.796
71949SOL     OW17679  11.214  12.310   9.799
71949SOL    HW117680  11.288  12.309   9.739
71949SOL    HW217681  11.236  12.245   9.866
71950SOL     OW17682   3.409   0.982   5.051
71950SOL    HW117683   3.468   0.926   5.103
71950SOL    HW217684   3.341   0.922   5.020
71951SOL     OW17685  11.856   0.556   8.699
71951SOL    HW117686  11.785   0.536   8.639
71951SOL    HW217687  11.882   0.646   8.678
71952SOL     OW17688   9.122  11.456   5.998
71952SOL    HW117689   9.146  11.450   6.091
71952SOL    HW217690   9.131  11.549   5.977
71953SOL     OW17691   8.997   2.263  12.741
71953SOL    HW117692   8.961   2.203  12.676
71953SOL    HW217693   9.076   2.220  12.773
71954SOL     OW17694   2.228  11.686   2.473
71954SOL    HW117695   2.246  11.600   2.437
71954SOL    HW217696   2.212  11.671   2.566
71955SOL     OW17697  10.630   8.914   0.274
71955SOL    HW117698  10.604   8.987   0.218
71955SOL    HW217699  10.672   8.956   0.349
71956SOL     OW17700   3.867  11.027   1.872
71956SOL    HW117701   3.856  10.975   1.952
71956SOL    HW217702   3.844  11.117   1.898
71957SOL     OW17703  12.679   0.676   7.176
71957SOL    HW117704  12.701   0.750   7.232
71957SOL    HW217705  12.754   0.617   7.182
71958SOL     OW17706  14.526   5.590   7.894
71958SOL    HW117707  14.454   5.635   7.850
71958SOL    HW217708  14.604   5.640   7.871
71959SOL     OW17709   2.451   2.065   0.532
71959SOL    HW117710   2.522   2.003   0.544
71959SOL    HW217711   2.482   2.146   0.573
71960SOL     OW17712   7.212  10.433  14.638
71960SOL    HW117713   7.164  10.368  14.688
71960SOL    HW217714   7.184  10.517  14.675
71961SOL     OW17715   4.447   9.935   2.719
71961SOL    HW117716   4.473   9.866   2.779
71961SOL    HW217717   4.465  10.016   2.766
71962SOL     OW17718  13.237   2.372  14.569
71962SOL    HW117719  13.288   2.451  14.586
71962SOL    HW217720  13.157   2.384  14.620
71963SOL     OW17721  10.144   5.816   9.657
71963SOL    HW117722  10.148   5.725   9.686
71963SOL    HW217723  10.162   5.867   9.736
71964SOL     OW17724  12.143  14.479   5.074
71964SOL    HW117725  12.121  14.561   5.118
71964SOL    HW217726  12.058  14.441   5.051
71965SOL     OW17727   0.396   0.774  11.262
71965SOL    HW117728   0.348   0.788  11.343
71965SOL    HW217729   0.368   0.687  11.232
71966SOL     OW17730   3.658   4.399  14.183
71966SOL    HW117731   3.649   4.494  14.197
71966SOL    HW217732   3.733   4.390  14.125
71967SOL     OW17733  10.439   7.253  14.753
71967SOL    HW117734  10.529   7.284  14.744
71967SOL    HW217735  10.439   7.198  14.831
71968SOL     OW17736   5.335   0.412   9.675
71968SOL    HW117737   5.338   0.376   9.764
71968SOL    HW217738   5.328   0.506   9.688
71969SOL     OW17739  11.646  13.001   7.371
71969SOL    HW117740  11.641  13.096   7.358
71969SOL    HW217741  11.739  12.982   7.374
71970SOL     OW17742  10.584   9.336  11.354
71970SOL    HW117743  10.551   9.414  11.400
71970SOL    HW217744  10.555   9.263  11.409
71971SOL     OW17745  12.635   2.222   1.663
71971SOL    HW117746  12.720   2.181   1.676
71971SOL    HW217747  12.574   2.149   1.654
71972SOL     OW17748   3.701   1.031   4.373
71972SOL    HW117749   3.785   1.065   4.343
71972SOL    HW217750   3.719   0.939   4.394
71973SOL     OW17751   6.380   1.772  12.179
71973SOL    HW117752   6.302   1.826  12.192
71973SOL    HW217753   6.355   1.686  12.213
71974SOL     OW17754   5.023   7.817  14.550
71974SOL    HW117755   5.052   7.897  14.595
71974SOL    HW217756   5.040   7.747  14.612
71975SOL     OW17757   3.877  12.839   3.436
71975SOL    HW117758   3.807  12.805   3.491
71975SOL    HW217759   3.908  12.917   3.482
71976SOL     OW17760   4.881   7.979   4.094
71976SOL    HW117761   4.851   8.060   4.052
71976SOL    HW217762   4.911   7.925   4.021
71977SOL     OW17763   2.739   3.756   3.656
71977SOL    HW117764   2.653   3.747   3.697
71977SOL    HW217765   2.738   3.843   3.617
71978SOL     OW17766  13.625   0.998   4.113
71978SOL    HW117767  13.576   1.015   4.033
71978SOL    HW217768  13.717   1.012   4.090
71979SOL     OW17769   0.113   1.991   3.882
71979SOL    HW117770   0.144   1.987   3.792
71979SOL    HW217771   0.020   2.013   3.875
71980SOL     OW17772  10.456   7.815   8.444
71980SOL    HW117773  10.363   7.832   8.453
71980SOL    HW217774  10.464   7.769   8.360
71981SOL     OW17775   6.428   4.815   9.592
71981SOL    HW117776   6.424   4.894   9.646
71981SOL    HW217777   6.475   4.752   9.646
71982SOL     OW17778  14.237   3.348   0.107
71982SOL    HW117779  14.263   3.311   0.191
71982SOL    HW217780  14.309   3.325   0.048
71983SOL     OW17781   8.346   3.676   8.464
71983SOL    HW117782   8.386   3.726   8.535
71983SOL    HW217783   8.419   3.652   8.408
71984SOL     OW17784   5.225  13.803   9.437
71984SOL    HW117785   5.173  13.741   9.489
71984SOL    HW217786   5.191  13.793   9.348
71985SOL     OW17787   2.275   3.162   1.037
71985SOL    HW117788   2.183   3.186   1.036
71985SOL    HW217789   2.321   3.240   1.004
71986SOL     OW17790   7.408  10.948  11.952
71986SOL    HW117791   7.326  10.969  11.909
71986SOL    HW217792   7.408  10.852  11.958
71987SOL     OW17793  14.671   7.045   6.636
71987SOL    HW117794  14.667   7.126   6.586
71987SOL    HW217795  14.740   7.061   6.701
71988SOL     OW17796   4.432  12.833   1.212
71988SOL    HW117797   4.420  12.861   1.302
71988SOL    HW217798   4.527  12.821   1.203
71989SOL     OW17799  11.124   5.077   2.186
71989SOL    HW117800  11.071   5.095   2.108
71989SOL    HW217801  11.153   4.987   2.175
71990SOL     OW17802   8.348   1.596  13.443
71990SOL    HW117803   8.320   1.638  13.361
71990SOL    HW217804   8.416   1.534  13.416
71991SOL     OW17805   0.275   0.255   9.619
71991SOL    HW117806   0.302   0.346   9.603
71991SOL    HW217807   0.215   0.261   9.693
71992SOL     OW17808  13.426   8.853  13.711
71992SOL    HW117809  13.350   8.801  13.737
71992SOL    HW217810  13.494   8.789  13.691
71993SOL     OW17811  14.412   5.993  14.859
71993SOL    HW117812  14.418   5.908  14.815
71993SOL    HW217813  14.438   5.976   0.076
71994SOL     OW17814   9.961   1.907   5.393
71994SOL    HW117815   9.956   1.937   5.302
71994SOL    HW217816   9.980   1.814   5.386
71995SOL     OW17817   6.148  12.031   5.190
71995SOL    HW117818   6.069  12.019   5.138
71995SOL    HW217819   6.119  12.021   5.281
71996SOL     OW17820  13.744   9.054   5.046
71996SOL    HW117821  13.837   9.034   5.058
71996SOL    HW217822  13.733   9.139   5.089
71997SOL     OW17823  13.133   9.133   8.946
71997SOL    HW117824  13.065   9.106   8.884
71997SOL    HW217825  13.173   9.052   8.975
71998SOL     OW17826   8.419   1.369   0.335
71998SOL    HW117827   8.353   1.339   0.397
71998SOL    HW217828   8.434   1.293   0.278
71999SOL     OW17829   7.198   4.461  14.640
71999SOL    HW117830   7.250   4.540  14.658
71999SOL    HW217831   7.203   4.409  14.720
72000SOL     OW17832   1.122   3.085   7.168
72000SOL    HW117833   1.039   3.122   7.137
72000SOL    HW217834   1.101   3.043   7.251
72001SOL     OW17835  11.030   7.250   0.920
72001SOL    HW117836  10.984   7.175   0.959
72001SOL    HW217837  10.961   7.314   0.903
72002SOL     OW17838   8.529   4.874   6.307
72002SOL    HW117839   8.591   4.883   6.380
72002SOL    HW217840   8.515   4.779   6.301
72003SOL     OW17841   9.018   4.864  11.951
72003SOL    HW117842   9.053   4.828  12.033
72003SOL    HW217843   9.084   4.928  11.924
72004SOL     OW17844   9.939   1.336   9.578
72004SOL    HW117845   9.904   1.425   9.588
72004SOL    HW217846   9.924   1.314   9.487
72005SOL     OW17847   7.952  11.239  14.045
72005SOL    HW117848   7.884  11.172  14.033
72005SOL    HW217849   8.027  11.205  13.996
72006SOL     OW17850   5.158  14.506   5.268
72006SOL    HW117851   5.154  14.601   5.266
72006SOL    HW217852   5.141  14.483   5.359
72007SOL     OW17853   0.578   0.195   5.679
72007SOL    HW117854   0.487   0.206   5.651
72007SOL    HW217855   0.622   0.155   5.603
72008SOL     OW17856   1.099  10.315  14.420
72008SOL    HW117857   1.166  10.312  14.352
72008SOL    HW217858   1.032  10.374  14.385
72009SOL     OW17859   9.849   7.387   2.018
72009SOL    HW117860   9.868   7.338   2.097
72009SOL    HW217861   9.753   7.396   2.017
72010SOL     OW17862  10.668   4.690   7.143
72010SOL    HW117863  10.684   4.663   7.234
72010SOL    HW217864  10.751   4.676   7.099
72011SOL     OW17865   6.403   6.631   4.733
72011SOL    HW117866   6.337   6.609   4.798
72011SOL    HW217867   6.483   6.646   4.785
72012SOL     OW17868   8.331  12.216  13.089
72012SOL    HW117869   8.381  12.184  13.013
72012SOL    HW217870   8.382  12.290  13.121
72013SOL     OW17871   3.094  11.907  10.488
72013SOL    HW117872   2.999  11.904  10.497
72013SOL    HW217873   3.111  11.984  10.435
72014SOL     OW17874   6.075  12.998   9.570
72014SOL    HW117875   6.030  12.989   9.486
72014SOL    HW217876   6.030  13.070   9.614
72015SOL     OW17877  13.543  14.523   9.682
72015SOL    HW117878  13.476  14.555   9.742
72015SOL    HW217879  13.560  14.596   9.622
72016SOL     OW17880   2.290   2.021   8.854
72016SOL    HW117881   2.302   2.079   8.930
72016SOL    HW217882   2.295   2.079   8.778
72017SOL     OW17883   1.438   8.156  11.813
72017SOL    HW117884   1.499   8.088  11.843
72017SOL    HW217885   1.352   8.124  11.838
72018SOL     OW17886  11.626   0.785   1.952
72018SOL    HW117887  11.613   0.874   1.986
72018SOL    HW217888  11.564   0.731   2.000
72019SOL     OW17889  10.543   4.590  13.329
72019SOL    HW117890  10.633   4.609  13.357
72019SOL    HW217891  10.489   4.612  13.405
72020SOL     OW17892   0.810  11.663   0.647
72020SOL    HW117893   0.802  11.700   0.735
72020SOL    HW217894   0.812  11.739   0.589
72021SOL     OW17895  11.223   0.522  13.988
72021SOL    HW117896  11.248   0.493  13.900
72021SOL    HW217897  11.191   0.443  14.032
72022SOL     OW17898   8.169   3.855   9.409
72022SOL    HW117899   8.120   3.774   9.409
72022SOL    HW217900   8.172   3.882   9.501
72023SOL     OW17901   8.562  11.774   2.372
72023SOL    HW117902   8.550  11.684   2.344
72023SOL    HW217903   8.521  11.779   2.458
72024SOL     OW17904   3.293   6.161   8.560
72024SOL    HW117905   3.254   6.076   8.582
72024SOL    HW217906   3.323   6.151   8.470
72025SOL     OW17907   6.993   9.109   4.288
72025SOL    HW117908   7.071   9.118   4.342
72025SOL    HW217909   6.976   9.197   4.254
72026SOL     OW17910   8.386   9.295   0.995
72026SOL    HW117911   8.416   9.304   0.904
72026SOL    HW217912   8.306   9.244   0.989
72027SOL     OW17913  13.853  11.400   3.807
72027SOL    HW117914  13.849  11.330   3.872
72027SOL    HW217915  13.828  11.479   3.855
72028SOL     OW17916   8.207   2.983   6.202
72028SOL    HW117917   8.271   2.912   6.190
72028SOL    HW217918   8.125   2.938   6.221
72029SOL     OW17919  14.575   2.627   6.642
72029SOL    HW117920  14.664   2.658   6.660
72029SOL    HW217921  14.524   2.657   6.718
72030SOL     OW17922  10.269   9.057  14.396
72030SOL    HW117923  10.190   9.025  14.352
72030SOL    HW217924  10.312   9.112  14.331
72031SOL     OW17925   7.498  14.169   8.098
72031SOL    HW117926   7.485  14.256   8.133
72031SOL    HW217927   7.533  14.118   8.171
72032SOL     OW17928   4.800   5.642   1.783
72032SOL    HW117929   4.722   5.618   1.833
72032SOL    HW217930   4.791   5.736   1.768
72033SOL     OW17931   1.652   0.176   8.671
72033SOL    HW117932   1.658   0.202   8.579
72033SOL    HW217933   1.559   0.185   8.693
72034SOL     OW17934   1.898   9.036   6.652
72034SOL    HW117935   1.905   9.131   6.661
72034SOL    HW217936   1.831   9.023   6.585
72035SOL     OW17937   8.701   5.885   5.184
72035SOL    HW117938   8.620   5.936   5.188
72035SOL    HW217939   8.700   5.833   5.265
72036SOL     OW17940   9.104   9.443  14.324
72036SOL    HW117941   9.118   9.526  14.370
72036SOL    HW217942   9.009   9.431  14.327
72037SOL     OW17943   4.590   3.592  11.827
72037SOL    HW117944   4.519   3.605  11.764
72037SOL    HW217945   4.670   3.600  11.775
72038SOL     OW17946   7.974  12.018   8.568
72038SOL    HW117947   7.908  11.986   8.506
72038SOL    HW217948   8.038  11.948   8.573
72039SOL     OW17949  12.339  13.879   9.459
72039SOL    HW117950  12.348  13.895   9.553
72039SOL    HW217951  12.410  13.819   9.438
72040SOL     OW17952  14.292   5.445   7.980
72040SOL    HW117953  14.222   5.473   7.922
72040SOL    HW217954  14.337   5.526   8.005
72041SOL     OW17955   0.854   4.304   6.054
72041SOL    HW117956   0.851   4.216   6.017
72041SOL    HW217957   0.842   4.362   5.978
72042SOL     OW17958   3.740  13.154  11.616
72042SOL    HW117959   3.775  13.066  11.629
72042SOL    HW217960   3.797  13.210  11.670
72043SOL     OW17961   2.537   1.923  12.653
72043SOL    HW117962   2.568   2.000  12.702
72043SOL    HW217963   2.464   1.889  12.706
72044SOL     OW17964   2.911   4.250   3.889
72044SOL    HW117965   2.868   4.169   3.859
72044SOL    HW217966   2.919   4.303   3.810
72045SOL     OW17967   4.019  13.670  12.072
72045SOL    HW117968   4.017  13.625  12.157
72045SOL    HW217969   4.031  13.762  12.095
72046SOL     OW17970  13.219   5.817   5.309
72046SOL    HW117971  13.298   5.786   5.352
72046SOL    HW217972  13.234   5.801   5.216
72047SOL     OW17973  14.130   5.117   0.883
72047SOL    HW117974  14.117   5.114   0.977
72047SOL    HW217975  14.224   5.106   0.871
72048SOL     OW17976  10.440  11.214   5.005
72048SOL    HW117977  10.535  11.223   5.013
72048SOL    HW217978  10.416  11.274   4.935
72049SOL     OW17979   5.687   2.259   6.592
72049SOL    HW117980   5.756   2.211   6.547
72049SOL    HW217981   5.725   2.284   6.676
72050SOL     OW17982   8.839   2.673  12.918
72050SOL    HW117983   8.811   2.756  12.957
72050SOL    HW217984   8.931   2.688  12.894
72051SOL     OW17985   0.773   4.367   4.522
72051SOL    HW117986   0.817   4.358   4.607
72051SOL    HW217987   0.715   4.290   4.517
72052SOL     OW17988   7.571  12.955   2.110
72052SOL    HW117989   7.617  13.023   2.061
72052SOL    HW217990   7.479  12.965   2.085
72053SOL     OW17991  12.482   5.674  10.150
72053SOL    HW117992  12.411   5.734  10.171
72053SOL    HW217993  12.559   5.711  10.193
72054SOL     OW17994   4.405  10.187   2.528
72054SOL    HW117995   4.334  10.128   2.505
72054SOL    HW217996   4.407  10.187   2.624
72055SOL     OW17997   9.275   0.320   7.893
72055SOL    HW117998   9.252   0.411   7.873
72055SOL    HW217999   9.234   0.269   7.824
72056SOL     OW18000   5.810   5.282  14.606
72056SOL    HW118001   5.742   5.316  14.664
72056SOL    HW218002   5.763   5.252  14.528
72057SOL     OW18003  10.507   9.583  14.725
72057SOL    HW118004  10.456   9.653  14.683
72057SOL    HW218005  10.484   9.588  14.818
72058SOL     OW18006  14.114   9.546   6.142
72058SOL    HW118007  14.105   9.591   6.058
72058SOL    HW218008  14.064   9.466   6.132
72059SOL     OW18009   5.975  11.496  12.305
72059SOL    HW118010   6.069  11.515  12.296
72059SOL    HW218011   5.942  11.568  12.358
72060SOL     OW18012  14.558  13.083   8.196
72060SOL    HW118013  14.490  13.150   8.197
72060SOL    HW218014  14.563  13.052   8.287
72061SOL     OW18015  11.618   8.774   2.895
72061SOL    HW118016  11.651   8.705   2.953
72061SOL    HW218017  11.531   8.743   2.869
72062SOL     OW18018  11.220  11.799   4.888
72062SOL    HW118019  11.126  11.780   4.893
72062SOL    HW218020  11.239  11.844   4.970
72063SOL     OW18021   8.769   6.430  10.241
72063SOL    HW118022   8.772   6.380  10.160
72063SOL    HW218023   8.685   6.477  10.237
72064SOL     OW18024   7.849   8.511   6.017
72064SOL    HW118025   7.856   8.529   5.924
72064SOL    HW218026   7.762   8.472   6.028
72065SOL     OW18027   5.139   6.063   0.921
72065SOL    HW118028   5.101   5.994   0.867
72065SOL    HW218029   5.064   6.111   0.955
72066SOL     OW18030   5.284   6.922  14.229
72066SOL    HW118031   5.213   6.904  14.167
72066SOL    HW218032   5.257   6.879  14.310
72067SOL     OW18033   8.381   3.967   0.735
72067SOL    HW118034   8.322   4.032   0.696
72067SOL    HW218035   8.469   3.998   0.714
72068SOL     OW18036   9.829  13.965  13.121
72068SOL    HW118037   9.760  13.986  13.184
72068SOL    HW218038   9.812  14.025  13.048
72069SOL     OW18039   0.178   1.346   6.961
72069SOL    HW118040   0.117   1.327   6.890
72069SOL    HW218041   0.261   1.306   6.933
72070SOL     OW18042   3.772   7.284   6.681
72070SOL    HW118043   3.708   7.213   6.684
72070SOL    HW218044   3.838   7.261   6.746
72071SOL     OW18045  13.679  10.039  11.850
72071SOL    HW118046  13.650   9.992  11.772
72071SOL    HW218047  13.618  10.011  11.919
72072SOL     OW18048  12.600   3.838  14.550
72072SOL    HW118049  12.615   3.748  14.522
72072SOL    HW218050  12.528   3.869  14.495
72073SOL     OW18051   0.407   6.605   9.621
72073SOL    HW118052   0.315   6.623   9.640
72073SOL    HW218053   0.455   6.644   9.693
72074SOL     OW18054   3.499   8.156   2.238
72074SOL    HW118055   3.551   8.082   2.268
72074SOL    HW218056   3.430   8.116   2.184
72075SOL     OW18057   1.170  13.737   9.175
72075SOL    HW118058   1.223  13.657   9.183
72075SOL    HW218059   1.203  13.794   9.244
72076SOL     OW18060  10.610   8.212  12.794
72076SOL    HW118061  10.582   8.294  12.834
72076SOL    HW218062  10.701   8.226  12.770
72077SOL     OW18063   2.624   9.683   7.332
72077SOL    HW118064   2.581   9.656   7.413
72077SOL    HW218065   2.702   9.628   7.327
72078SOL     OW18066  13.344   8.841  11.356
72078SOL    HW118067  13.283   8.907  11.390
72078SOL    HW218068  13.295   8.798  11.286
72079SOL     OW18069  11.630  10.534  11.021
72079SOL    HW118070  11.555  10.505  10.969
72079SOL    HW218071  11.641  10.626  10.997
72080SOL     OW18072   6.145   8.733  10.504
72080SOL    HW118073   6.088   8.810  10.506
72080SOL    HW218074   6.166   8.720  10.412
72081SOL     OW18075   6.480   9.283  10.963
72081SOL    HW118076   6.467   9.229  10.885
72081SOL    HW218077   6.574   9.275  10.982
72082SOL     OW18078   0.246   4.572   7.771
72082SOL    HW118079   0.189   4.644   7.745
72082SOL    HW218080   0.231   4.561   7.865
72083SOL     OW18081   7.402   3.831   7.330
72083SOL    HW118082   7.478   3.890   7.336
72083SOL    HW218083   7.331   3.878   7.373
72084SOL     OW18084  10.649   2.500   0.352
72084SOL    HW118085  10.684   2.587   0.336
72084SOL    HW218086  10.625   2.500   0.444
72085SOL     OW18087   9.869  10.221   2.490
72085SOL    HW118088   9.849  10.294   2.549
72085SOL    HW218089   9.936  10.256   2.430
72086SOL     OW18090   4.689  13.195   9.855
72086SOL    HW118091   4.725  13.176   9.942
72086SOL    HW218092   4.759  13.169   9.794
72087SOL     OW18093  13.113   6.299   9.170
72087SOL    HW118094  13.088   6.304   9.077
72087SOL    HW218095  13.050   6.356   9.214
72088SOL     OW18096  11.883  13.282   1.771
72088SOL    HW118097  11.812  13.261   1.832
72088SOL    HW218098  11.944  13.335   1.823
72089SOL     OW18099   3.395  13.704  14.472
72089SOL    HW118100   3.486  13.735  14.469
72089SOL    HW218101   3.350  13.756  14.406
72090SOL     OW18102  10.190  10.608  12.642
72090SOL    HW118103  10.280  10.640  12.642
72090SOL    HW218104  10.152  10.645  12.562
72091SOL     OW18105   7.204   7.800  11.036
72091SOL    HW118106   7.189   7.831  10.947
72091SOL    HW218107   7.137   7.844  11.088
72092SOL     OW18108   8.894   3.714   1.928
72092SOL    HW118109   8.809   3.758   1.929
72092SOL    HW218110   8.874   3.622   1.944
72093SOL     OW18111   9.958  13.045   7.084
72093SOL    HW118112   9.920  13.092   7.010
72093SOL    HW218113   9.919  13.085   7.161
72094SOL     OW18114   2.106   6.373   1.088
72094SOL    HW118115   2.195   6.336   1.092
72094SOL    HW218116   2.080   6.363   0.997
72095SOL     OW18117  12.200  12.701   1.419
72095SOL    HW118118  12.139  12.770   1.396
72095SOL    HW218119  12.195  12.693   1.514
72096SOL     OW18120   8.704  14.521   3.774
72096SOL    HW118121   8.753  14.578   3.715
72096SOL    HW218122   8.641  14.579   3.816
72097SOL     OW18123   2.446   4.844   9.377
72097SOL    HW118124   2.457   4.823   9.285
72097SOL    HW218125   2.499   4.923   9.390
72098SOL     OW18126  14.580   6.464   3.676
72098SOL    HW118127  14.490   6.490   3.695
72098SOL    HW218128  14.576   6.431   3.586
72099SOL     OW18129   3.288  13.364   6.943
72099SOL    HW118130   3.350  13.421   6.897
72099SOL    HW218131   3.278  13.405   7.029
72100SOL     OW18132   0.151   2.788   9.851
72100SOL    HW118133   0.191   2.740   9.924
72100SOL    HW218134   0.175   2.880   9.867
72101SOL     OW18135   7.634   1.108   5.788
72101SOL    HW118136   7.719   1.151   5.791
72101SOL    HW218137   7.615   1.084   5.879
72102SOL     OW18138   4.324  13.944   2.107
72102SOL    HW118139   4.291  13.886   2.037
72102SOL    HW218140   4.344  14.026   2.062
72103SOL     OW18141   6.153   2.267   8.968
72103SOL    HW118142   6.089   2.196   8.973
72103SOL    HW218143   6.213   2.241   8.898
72104SOL     OW18144   9.991   7.025   8.574
72104SOL    HW118145   9.939   7.104   8.557
72104SOL    HW218146  10.023   7.036   8.663
72105SOL     OW18147   6.811   3.623   7.482
72105SOL    HW118148   6.825   3.689   7.413
72105SOL    HW218149   6.897   3.584   7.494
72106SOL     OW18150   2.552   2.715   2.457
72106SOL    HW118151   2.552   2.735   2.363
72106SOL    HW218152   2.644   2.722   2.483
72107SOL     OW18153   2.342   8.000   2.623
72107SOL    HW118154   2.249   8.020   2.628
72107SOL    HW218155   2.348   7.926   2.562
72108SOL     OW18156   3.554  11.484   6.398
72108SOL    HW118157   3.460  11.465   6.394
72108SOL    HW218158   3.581  11.491   6.307
72109SOL     OW18159  12.729   8.927   9.143
72109SOL    HW118160  12.764   8.998   9.090
72109SOL    HW218161  12.634   8.936   9.136
72110SOL     OW18162   2.188  13.174   5.723
72110SOL    HW118163   2.127  13.247   5.732
72110SOL    HW218164   2.197  13.161   5.629
72111SOL     OW18165   1.903   3.376  12.438
72111SOL    HW118166   1.951   3.398  12.518
72111SOL    HW218167   1.811   3.378  12.464
72112SOL     OW18168  14.643  12.683  10.044
72112SOL    HW118169  14.722  12.713   9.999
72112SOL    HW218170  14.666  12.595  10.075
72113SOL     OW18171  10.795   2.871  14.180
72113SOL    HW118172  10.702   2.850  14.174
72113SOL    HW218173  10.832   2.840  14.097
72114SOL     OW18174  12.474  12.934   1.644
72114SOL    HW118175  12.455  12.878   1.568
72114SOL    HW218176  12.549  12.892   1.686
72115SOL     OW18177  12.764  10.770   2.547
72115SOL    HW118178  12.746  10.848   2.599
72115SOL    HW218179  12.848  10.788   2.505
72116SOL     OW18180   3.309   2.672   6.732
72116SOL    HW118181   3.242   2.613   6.767
72116SOL    HW218182   3.382   2.614   6.708
72117SOL     OW18183   8.269   0.440  10.167
72117SOL    HW118184   8.173   0.439  10.163
72117SOL    HW218185   8.293   0.348  10.179
72118SOL     OW18186   0.553   5.179   4.035
72118SOL    HW118187   0.637   5.133   4.031
72118SOL    HW218188   0.516   5.154   4.120
72119SOL     OW18189   2.968  12.964  11.800
72119SOL    HW118190   3.015  12.881  11.801
72119SOL    HW218191   2.920  12.963  11.717
72120SOL     OW18192   4.994   5.511   1.134
72120SOL    HW118193   4.943   5.453   1.077
72120SOL    HW218194   5.046   5.451   1.188
72121SOL     OW18195   8.500  13.420  13.074
72121SOL    HW118196   8.407  13.395  13.077
72121SOL    HW218197   8.547  13.341  13.097
72122SOL     OW18198   9.536   5.244   9.660
72122SOL    HW118199   9.626   5.214   9.673
72122SOL    HW218200   9.503   5.260   9.749
72123SOL     OW18201   1.576   4.078  14.154
72123SOL    HW118202   1.651   4.135  14.168
72123SOL    HW218203   1.592   4.003  14.212
72124SOL     OW18204  11.374   3.327  12.982
72124SOL    HW118205  11.437   3.387  13.022
72124SOL    HW218206  11.419   3.242  12.982
72125SOL     OW18207  11.945   4.387   3.648
72125SOL    HW118208  11.853   4.412   3.657
72125SOL    HW218209  11.943   4.291   3.640
72126SOL     OW18210  10.352   4.615  13.532
72126SOL    HW118211  10.369   4.689  13.590
72126SOL    HW218212  10.347   4.539  13.590
72127SOL     OW18213   6.769   7.127  10.979
72127SOL    HW118214   6.720   7.130  10.896
72127SOL    HW218215   6.730   7.197  11.031
72128SOL     OW18216   3.107   7.806   4.508
72128SOL    HW118217   3.184   7.815   4.563
72128SOL    HW218218   3.034   7.798   4.570
72129SOL     OW18219   9.813  11.244   9.553
72129SOL    HW118220   9.891  11.242   9.498
72129SOL    HW218221   9.740  11.251   9.492
72130SOL     OW18222  11.294   8.548  11.232
72130SOL    HW118223  11.362   8.577  11.294
72130SOL    HW218224  11.212   8.559  11.280
72131SOL     OW18225  11.236  11.670  11.930
72131SOL    HW118226  11.187  11.680  11.848
72131SOL    HW218227  11.324  11.646  11.902
72132SOL     OW18228   3.959   0.419   7.771
72132SOL    HW118229   3.915   0.463   7.844
72132SOL    HW218230   3.941   0.475   7.695
72133SOL     OW18231   6.413   6.369  12.829
72133SOL    HW118232   6.391   6.457  12.861
72133SOL    HW218233   6.344   6.349  12.766
72134SOL     OW18234   6.784   8.844   1.009
72134SOL    HW118235   6.719   8.911   0.987
72134SOL    HW218236   6.755   8.766   0.962
72135SOL     OW18237   9.608  10.196   8.391
72135SOL    HW118238   9.679  10.259   8.403
72135SOL    HW218239   9.651  10.110   8.396
72136SOL     OW18240   0.192  11.418  13.549
72136SOL    HW118241   0.114  11.388  13.595
72136SOL    HW218242   0.173  11.403  13.456
72137SOL     OW18243  13.164   2.978   8.593
72137SOL    HW118244  13.074   2.970   8.562
72137SOL    HW218245  13.157   2.976   8.688
72138SOL     OW18246   0.789  14.003   6.675
72138SOL    HW118247   0.814  13.930   6.619
72138SOL    HW218248   0.722  14.049   6.625
72139SOL     OW18249   6.370   5.174   6.268
72139SOL    HW118250   6.328   5.118   6.203
72139SOL    HW218251   6.391   5.255   6.221
72140SOL     OW18252   8.033   6.238   4.162
72140SOL    HW118253   7.937   6.233   4.163
72140SOL    HW218254   8.054   6.296   4.235
72141SOL     OW18255  11.922   6.355   5.450
72141SOL    HW118256  11.981   6.308   5.392
72141SOL    HW218257  11.834   6.332   5.419
72142SOL     OW18258   5.820   3.906   1.668
72142SOL    HW118259   5.724   3.898   1.671
72142SOL    HW218260   5.852   3.816   1.659
72143SOL     OW18261  14.481   1.340   1.311
72143SOL    HW118262  14.433   1.319   1.391
72143SOL    HW218263  14.417   1.324   1.240
72144SOL     OW18264  11.001   9.759   7.886
72144SOL    HW118265  11.002   9.854   7.873
72144SOL    HW218266  11.014   9.722   7.799
72145SOL     OW18267  11.353   6.196   9.422
72145SOL    HW118268  11.423   6.210   9.359
72145SOL    HW218269  11.316   6.111   9.398
72146SOL     OW18270   1.973   1.841  11.524
72146SOL    HW118271   1.931   1.756  11.534
72146SOL    HW218272   2.063   1.820  11.499
72147SOL     OW18273  13.587  10.143  12.531
72147SOL    HW118274  13.575  10.128  12.438
72147SOL    HW218275  13.662  10.202  12.538
72148SOL     OW18276   8.683  13.382   6.453
72148SOL    HW118277   8.591  13.384   6.477
72148SOL    HW218278   8.720  13.309   6.504
72149SOL     OW18279  11.775   2.024  13.116
72149SOL    HW118280  11.841   2.076  13.069
72149SOL    HW218281  11.820   1.943  13.138
72150SOL     OW18282   2.851   8.277  13.678
72150SOL    HW118283   2.825   8.238  13.595
72150SOL    HW218284   2.803   8.227  13.744
72151SOL     OW18285  11.539   2.709   2.293
72151SOL    HW118286  11.568   2.755   2.214
72151SOL    HW218287  11.611   2.717   2.354
72152SOL     OW18288   4.294   3.903   0.147
72152SOL    HW118289   4.269   3.852   0.225
72152SOL    HW218290   4.214   3.949   0.122
72153SOL     OW18291  13.999   6.930   2.569
72153SOL    HW118292  14.005   6.867   2.641
72153SOL    HW218293  14.044   7.008   2.602
72154SOL     OW18294  11.984   0.726   6.013
72154SOL    HW118295  12.021   0.806   6.050
72154SOL    HW218296  12.034   0.655   6.054
72155SOL     OW18297   5.177  14.360  12.012
72155SOL    HW118298   5.110  14.365  11.945
72155SOL    HW218299   5.151  14.286  12.067
72156SOL     OW18300   1.532   8.224  14.450
72156SOL    HW118301   1.573   8.273  14.378
72156SOL    HW218302   1.519   8.136  14.415
72157SOL     OW18303   4.068   9.239  11.891
72157SOL    HW118304   4.129   9.292  11.839
72157SOL    HW218305   4.074   9.275  11.979
72158SOL     OW18306   4.460  12.010   6.605
72158SOL    HW118307   4.525  12.071   6.640
72158SOL    HW218308   4.500  11.975   6.526
72159SOL     OW18309  13.116   8.240  11.093
72159SOL    HW118310  13.057   8.178  11.137
72159SOL    HW218311  13.058   8.308  11.060
72160SOL     OW18312   5.306   3.728  10.536
72160SOL    HW118313   5.352   3.805  10.571
72160SOL    HW218314   5.280   3.679  10.614
72161SOL     OW18315   1.742  14.151   0.426
72161SOL    HW118316   1.827  14.107   0.432
72161SOL    HW218317   1.725  14.157   0.332
72162SOL     OW18318   0.213   5.457  10.657
72162SOL    HW118319   0.284   5.459  10.721
72162SOL    HW218320   0.240   5.517  10.588
72163SOL     OW18321   6.036   8.252   5.082
72163SOL    HW118322   6.064   8.268   4.992
72163SOL    HW218323   6.070   8.166   5.104
72164SOL     OW18324  12.156   1.972   5.775
72164SOL    HW118325  12.232   2.015   5.736
72164SOL    HW218326  12.161   1.881   5.745
72165SOL     OW18327   8.824   6.059  11.675
72165SOL    HW118328   8.879   6.117  11.727
72165SOL    HW218329   8.886   5.998  11.634
72166SOL     OW18330   7.750  14.821  10.046
72166SOL    HW118331   7.715  14.748   9.995
72166SOL    HW218332   7.819  14.857   9.990
72167SOL     OW18333  11.886   4.931  11.463
72167SOL    HW118334  11.805   4.959  11.504
72167SOL    HW218335  11.859   4.874  11.391
72168SOL     OW18336   1.840   8.087   3.257
72168SOL    HW118337   1.879   8.013   3.303
72168SOL    HW218338   1.913   8.145   3.237
72169SOL     OW18339   4.250   6.983   0.631
72169SOL    HW118340   4.343   6.975   0.610
72169SOL    HW218341   4.232   6.908   0.688
72170SOL     OW18342   1.951  13.435   6.236
72170SOL    HW118343   1.942  13.462   6.328
72170SOL    HW218344   1.926  13.512   6.186
72171SOL     OW18345  11.221   7.353   3.906
72171SOL    HW118346  11.178   7.281   3.859
72171SOL    HW218347  11.232   7.320   3.995
72172SOL     OW18348  13.862  14.378   9.110
72172SOL    HW118349  13.907  14.459   9.087
72172SOL    HW218350  13.895  14.313   9.048
72173SOL     OW18351  12.268   2.309   7.846
72173SOL    HW118352  12.317   2.252   7.786
72173SOL    HW218353  12.274   2.264   7.931
72174SOL     OW18354   8.953   3.304   9.229
72174SOL    HW118355   8.925   3.261   9.148
72174SOL    HW218356   8.943   3.237   9.297
72175SOL     OW18357   0.352  12.183  12.121
72175SOL    HW118358   0.382  12.146  12.205
72175SOL    HW218359   0.258  12.197  12.133
72176SOL     OW18360   3.396   6.439  13.222
72176SOL    HW118361   3.461   6.510  13.219
72176SOL    HW218362   3.369   6.428  13.131
72177SOL     OW18363   4.330   1.613   0.927
72177SOL    HW118364   4.238   1.637   0.941
72177SOL    HW218365   4.380   1.683   0.968
72178SOL     OW18366   7.889  11.454  13.760
72178SOL    HW118367   7.965  11.500  13.795
72178SOL    HW218368   7.900  11.457  13.665
72179SOL     OW18369   4.103  13.448   4.824
72179SOL    HW118370   4.107  13.501   4.903
72179SOL    HW218371   4.016  13.465   4.787
72180SOL     OW18372   4.381   9.856   8.303
72180SOL    HW118373   4.414   9.853   8.393
72180SOL    HW218374   4.416   9.777   8.263
72181SOL     OW18375   2.660   9.351  14.175
72181SOL    HW118376   2.679   9.261  14.149
72181SOL    HW218377   2.726   9.403  14.130
72182SOL     OW18378   5.312   4.792   8.954
72182SOL    HW118379   5.323   4.728   9.025
72182SOL    HW218380   5.383   4.771   8.893
72183SOL     OW18381  14.774   6.790   6.554
72183SOL    HW118382  14.858   6.835   6.551
72183SOL    HW218383  14.711   6.858   6.577
72184SOL     OW18384   0.276   9.196   9.536
72184SOL    HW118385   0.195   9.229   9.577
72184SOL    HW218386   0.274   9.102   9.552
72185SOL     OW18387   0.325   7.097   0.038
72185SOL    HW118388   0.371   7.057  14.837
72185SOL    HW218389   0.385   7.088   0.112
72186SOL     OW18390   7.617  13.063   7.724
72186SOL    HW118391   7.707  13.079   7.696
72186SOL    HW218392   7.621  12.982   7.775
72187SOL     OW18393   5.174   0.514   3.005
72187SOL    HW118394   5.252   0.476   2.965
72187SOL    HW218395   5.205   0.558   3.084
72188SOL     OW18396   4.662   3.383   8.000
72188SOL    HW118397   4.650   3.468   8.042
72188SOL    HW218398   4.694   3.326   8.071
72189SOL     OW18399  10.062   3.659   8.570
72189SOL    HW118400   9.970   3.683   8.566
72189SOL    HW218401  10.103   3.731   8.619
72190SOL     OW18402   5.315   2.384   9.996
72190SOL    HW118403   5.336   2.432   9.916
72190SOL    HW218404   5.246   2.324   9.970
72191SOL     OW18405   0.822   6.573  11.704
72191SOL    HW118406   0.749   6.617  11.748
72191SOL    HW218407   0.832   6.490  11.751
72192SOL     OW18408   0.748   2.983   8.480
72192SOL    HW118409   0.800   3.063   8.480
72192SOL    HW218410   0.707   2.981   8.567
72193SOL     OW18411   3.480   1.883   7.567
72193SOL    HW118412   3.547   1.858   7.630
72193SOL    HW218413   3.406   1.913   7.621
72194SOL     OW18414   6.894  13.190   7.140
72194SOL    HW118415   6.967  13.156   7.192
72194SOL    HW218416   6.925  13.187   7.049
72195SOL     OW18417  13.525  12.728   3.044
72195SOL    HW118418  13.618  12.719   3.025
72195SOL    HW218419  13.522  12.766   3.132
72196SOL     OW18420   2.172   9.704  14.229
72196SOL    HW118421   2.220   9.626  14.256
72196SOL    HW218422   2.080   9.679  14.235
72197SOL     OW18423  13.297   4.482   8.888
72197SOL    HW118424  13.320   4.393   8.862
72197SOL    HW218425  13.202   4.479   8.901
72198SOL     OW18426   1.609   1.692  12.753
72198SOL    HW118427   1.681   1.729  12.805
72198SOL    HW218428   1.600   1.602  12.785
72199SOL     OW18429  13.060  10.336  10.579
72199SOL    HW118430  13.003  10.407  10.549
72199SOL    HW218431  13.116  10.376  10.646
72200SOL     OW18432   3.546  12.835   4.576
72200SOL    HW118433   3.570  12.743   4.591
72200SOL    HW218434   3.583  12.856   4.491
72201SOL     OW18435  14.419  13.775   0.543
72201SOL    HW118436  14.492  13.720   0.570
72201SOL    HW218437  14.405  13.754   0.451
72202SOL     OW18438   6.134   4.865  11.183
72202SOL    HW118439   6.200   4.922  11.144
72202SOL    HW218440   6.067   4.855  11.115
72203SOL     OW18441   1.034   9.509   6.690
72203SOL    HW118442   0.975   9.570   6.646
72203SOL    HW218443   1.078   9.561   6.756
72204SOL     OW18444   0.332  13.519  12.994
72204SOL    HW118445   0.390  13.530  12.918
72204SOL    HW218446   0.265  13.587  12.983
72205SOL     OW18447  10.852   6.010   3.856
72205SOL    HW118448  10.901   5.951   3.914
72205SOL    HW218449  10.760   5.995   3.878
72206SOL     OW18450   2.407  12.782   6.544
72206SOL    HW118451   2.477  12.720   6.568
72206SOL    HW218452   2.351  12.733   6.484
72207SOL     OW18453   8.029   0.549   8.998
72207SOL    HW118454   8.030   0.574   8.905
72207SOL    HW218455   8.071   0.463   9.000
72208SOL     OW18456   2.352  14.502   1.802
72208SOL    HW118457   2.439  14.521   1.837
72208SOL    HW218458   2.367  14.490   1.708
72209SOL     OW18459  13.575  14.807   0.314
72209SOL    HW118460  13.652  14.757   0.340
72209SOL    HW218461  13.510  14.740   0.291
72210SOL     OW18462   2.479   3.987   3.935
72210SOL    HW118463   2.495   3.893   3.930
72210SOL    HW218464   2.433   4.008   3.854
72211SOL     OW18465   5.604   5.356   8.182
72211SOL    HW118466   5.576   5.381   8.094
72211SOL    HW218467   5.591   5.262   8.185
72212SOL     OW18468  10.855   6.455  13.120
72212SOL    HW118469  10.790   6.394  13.156
72212SOL    HW218470  10.883   6.414  13.038
72213SOL     OW18471   0.388   6.074   1.465
72213SOL    HW118472   0.482   6.064   1.448
72213SOL    HW218473   0.369   6.010   1.534
72214SOL     OW18474  11.831  13.542   2.200
72214SOL    HW118475  11.787  13.491   2.269
72214SOL    HW218476  11.881  13.608   2.248
72215SOL     OW18477  10.659   6.489   9.054
72215SOL    HW118478  10.724   6.419   9.055
72215SOL    HW218479  10.684   6.545   9.127
72216SOL     OW18480   4.260   0.582  14.486
72216SOL    HW118481   4.302   0.524  14.550
72216SOL    HW218482   4.286   0.546  14.401
72217SOL     OW18483  10.536   2.025  11.362
72217SOL    HW118484  10.616   2.076  11.376
72217SOL    HW218485  10.533   1.965  11.436
72218SOL     OW18486   8.693   1.737   0.675
72218SOL    HW118487   8.666   1.812   0.623
72218SOL    HW218488   8.788   1.734   0.665
72219SOL     OW18489   6.129   8.160  13.448
72219SOL    HW118490   6.037   8.145  13.425
72219SOL    HW218491   6.136   8.133  13.540
72220SOL     OW18492  10.337  13.579   6.746
72220SOL    HW118493  10.256  13.584   6.696
72220SOL    HW218494  10.365  13.671   6.755
72221SOL     OW18495  10.265  11.142   1.578
72221SOL    HW118496  10.191  11.186   1.535
72221SOL    HW218497  10.224  11.083   1.641
72222SOL     OW18498   3.040  11.564  10.322
72222SOL    HW118499   2.993  11.647  10.319
72222SOL    HW218500   3.089  11.567  10.405
72223SOL     OW18501   0.590   5.488   9.242
72223SOL    HW118502   0.663   5.514   9.186
72223SOL    HW218503   0.514   5.532   9.204
72224SOL     OW18504   0.981   9.547   4.540
72224SOL    HW118505   1.053   9.600   4.505
72224SOL    HW218506   0.903   9.580   4.495
72225SOL     OW18507   7.457   6.440   6.040
72225SOL    HW118508   7.380   6.492   6.066
72225SOL    HW218509   7.431   6.397   5.958
72226SOL     OW18510  11.300   4.744   1.137
72226SOL    HW118511  11.343   4.702   1.211
72226SOL    HW218512  11.353   4.719   1.061
72227SOL     OW18513  10.414  14.016   7.992
72227SOL    HW118514  10.375  13.992   7.908
72227SOL    HW218515  10.395  13.942   8.050
72228SOL     OW18516   2.020  11.785   8.058
72228SOL    HW118517   2.005  11.875   8.033
72228SOL    HW218518   2.109  11.765   8.027
72229SOL     OW18519  14.727  11.808   1.142
72229SOL    HW118520  14.805  11.772   1.184
72229SOL    HW218521  14.761  11.865   1.073
72230SOL     OW18522   3.034   1.057  11.418
72230SOL    HW118523   3.041   1.107  11.337
72230SOL    HW218524   3.023   0.966  11.389
72231SOL     OW18525   4.131   8.054  14.082
72231SOL    HW118526   4.167   8.049  13.993
72231SOL    HW218527   4.173   7.982  14.129
72232SOL     OW18528   1.407  11.293   7.311
72232SOL    HW118529   1.313  11.274   7.308
72232SOL    HW218530   1.444  11.242   7.239
72233SOL     OW18531   9.624   1.686   7.498
72233SOL    HW118532   9.561   1.652   7.562
72233SOL    HW218533   9.609   1.781   7.498
72234SOL     OW18534   8.934   0.178  12.856
72234SOL    HW118535   8.989   0.255  12.846
72234SOL    HW218536   8.845   0.213  12.867
72235SOL     OW18537   7.963   2.933  10.062
72235SOL    HW118538   7.930   2.954   9.975
72235SOL    HW218539   8.042   2.882  10.046
72236SOL     OW18540  13.731  11.927   4.140
72236SOL    HW118541  13.687  11.902   4.058
72236SOL    HW218542  13.804  11.982   4.113
72237SOL     OW18543  13.278  12.042   1.139
72237SOL    HW118544  13.212  11.976   1.119
72237SOL    HW218545  13.341  11.996   1.194
72238SOL     OW18546   7.510   0.428   5.120
72238SOL    HW118547   7.441   0.401   5.180
72238SOL    HW218548   7.572   0.356   5.120
72239SOL     OW18549   6.186  11.984   0.072
72239SOL    HW118550   6.257  11.999   0.135
72239SOL    HW218551   6.181  12.065   0.022
72240SOL     OW18552   1.692  13.263   9.247
72240SOL    HW118553   1.765  13.321   9.225
72240SOL    HW218554   1.714  13.228   9.334
72241SOL     OW18555   6.752  14.513   8.078
72241SOL    HW118556   6.779  14.489   8.167
72241SOL    HW218557   6.814  14.467   8.021
72242SOL     OW18558  13.256   2.300  11.431
72242SOL    HW118559  13.192   2.331  11.367
72242SOL    HW218560  13.337   2.291  11.380
72243SOL     OW18561   6.684   7.619  11.136
72243SOL    HW118562   6.695   7.676  11.059
72243SOL    HW218563   6.710   7.673  11.210
72244SOL     OW18564   4.194   0.105   7.017
72244SOL    HW118565   4.223   0.138   7.102
72244SOL    HW218566   4.275   0.085   6.970
72245SOL     OW18567   4.678   9.204   4.196
72245SOL    HW118568   4.672   9.109   4.188
72245SOL    HW218569   4.624   9.225   4.272
72246SOL     OW18570  11.379   1.634   9.772
72246SOL    HW118571  11.424   1.586   9.842
72246SOL    HW218572  11.450   1.665   9.716
72247SOL     OW18573   7.336  12.668  13.610
72247SOL    HW118574   7.245  12.688  13.588
72247SOL    HW218575   7.366  12.743  13.661
72248SOL     OW18576   6.000  14.483  12.166
72248SOL    HW118577   5.955  14.436  12.096
72248SOL    HW218578   6.093  14.466  12.150
72249SOL     OW18579   3.461   8.344   2.590
72249SOL    HW118580   3.409   8.265   2.575
72249SOL    HW218581   3.466   8.387   2.505
72250SOL     OW18582  11.973   9.774   8.086
72250SOL    HW118583  11.923   9.785   8.167
72250SOL    HW218584  12.063   9.797   8.109
72251SOL     OW18585   7.786  10.848  10.029
72251SOL    HW118586   7.830  10.912   9.974
72251SOL    HW218587   7.736  10.901  10.092
72252SOL     OW18588  10.126   5.469  14.135
72252SOL    HW118589  10.185   5.409  14.179
72252SOL    HW218590  10.177   5.550  14.125
72253SOL     OW18591   2.267   7.371  13.918
72253SOL    HW118592   2.359   7.395  13.930
72253SOL    HW218593   2.254   7.375  13.823
72254SOL     OW18594  11.058  11.992  11.678
72254SOL    HW118595  11.121  12.034  11.619
72254SOL    HW218596  11.078  12.030  11.764
72255SOL     OW18597  14.594  13.350   5.937
72255SOL    HW118598  14.603  13.255   5.941
72255SOL    HW218599  14.682  13.382   5.958
72256SOL     OW18600   8.059  12.253   8.734
72256SOL    HW118601   7.993  12.304   8.688
72256SOL    HW218602   8.055  12.166   8.695
72257SOL     OW18603  14.057   5.032   5.578
72257SOL    HW118604  14.024   5.075   5.499
72257SOL    HW218605  14.047   5.098   5.647
72258SOL     OW18606  11.539  12.782   5.666
72258SOL    HW118607  11.444  12.774   5.679
72258SOL    HW218608  11.548  12.831   5.584
72259SOL     OW18609   6.120  10.213   9.158
72259SOL    HW118610   6.106  10.206   9.253
72259SOL    HW218611   6.113  10.123   9.126
72260SOL     OW18612   8.278   9.507   4.413
72260SOL    HW118613   8.292   9.573   4.345
72260SOL    HW218614   8.275   9.424   4.365
72261SOL     OW18615   9.842   0.263  12.278
72261SOL    HW118616   9.872   0.237  12.365
72261SOL    HW218617   9.860   0.187  12.222
72262SOL     OW18618   8.340   4.894  12.906
72262SOL    HW118619   8.301   4.909  12.992
72262SOL    HW218620   8.267   4.904  12.844
72263SOL     OW18621  12.222   2.594  11.265
72263SOL    HW118622  12.271   2.594  11.348
72263SOL    HW218623  12.175   2.510  11.265
72264SOL     OW18624   0.351  10.690  13.508
72264SOL    HW118625   0.277  10.715  13.453
72264SOL    HW218626   0.352  10.594  13.505
72265SOL     OW18627  13.983  13.804   1.781
72265SOL    HW118628  14.047  13.796   1.851
72265SOL    HW218629  14.024  13.763   1.705
72266SOL     OW18630   5.090  10.398   5.466
72266SOL    HW118631   4.997  10.421   5.463
72266SOL    HW218632   5.125  10.430   5.383
72267SOL     OW18633  13.452   3.566   4.062
72267SOL    HW118634  13.437   3.649   4.107
72267SOL    HW218635  13.547   3.561   4.053
72268SOL     OW18636  14.361   3.478   0.424
72268SOL    HW118637  14.322   3.565   0.434
72268SOL    HW218638  14.289   3.418   0.443
72269SOL     OW18639  12.025  13.668  11.306
72269SOL    HW118640  12.024  13.723  11.228
72269SOL    HW218641  11.951  13.608  11.293
72270SOL     OW18642  14.003   8.929   0.111
72270SOL    HW118643  14.043   9.016   0.113
72270SOL    HW218644  13.924   8.938   0.164
72271SOL     OW18645   4.594   5.486   8.606
72271SOL    HW118646   4.635   5.521   8.685
72271SOL    HW218647   4.631   5.537   8.534
72272SOL     OW18648   9.868   3.375   8.384
72272SOL    HW118649   9.812   3.298   8.373
72272SOL    HW218650   9.937   3.345   8.443
72273SOL     OW18651   8.487   2.063   6.612
72273SOL    HW118652   8.582   2.056   6.597
72273SOL    HW218653   8.453   1.976   6.591
72274SOL     OW18654   1.988   7.279   8.322
72274SOL    HW118655   2.066   7.224   8.331
72274SOL    HW218656   2.017   7.365   8.353
72275SOL     OW18657  13.647  12.911   9.315
72275SOL    HW118658  13.723  12.949   9.361
72275SOL    HW218659  13.575  12.920   9.377
72276SOL     OW18660   2.408   0.402   5.589
72276SOL    HW118661   2.331   0.394   5.533
72276SOL    HW218662   2.374   0.436   5.672
72277SOL     OW18663   7.135  10.620  14.825
72277SOL    HW118664   7.184  10.690  14.868
72277SOL    HW218665   7.075  10.587   0.019
72278SOL     OW18666   9.649  11.864   4.849
72278SOL    HW118667   9.738  11.880   4.882
72278SOL    HW218668   9.606  11.949   4.854
72279SOL     OW18669   6.505  11.078   0.502
72279SOL    HW118670   6.470  11.076   0.591
72279SOL    HW218671   6.583  11.022   0.506
72280SOL     OW18672  13.529  12.245  11.356
72280SOL    HW118673  13.486  12.327  11.381
72280SOL    HW218674  13.499  12.230  11.266
72281SOL     OW18675   4.789   9.471   0.122
72281SOL    HW118676   4.861   9.448   0.180
72281SOL    HW218677   4.770   9.391   0.074
72282SOL     OW18678  14.194   4.269   5.049
72282SOL    HW118679  14.133   4.295   4.980
72282SOL    HW218680  14.188   4.338   5.115
72283SOL     OW18681  10.487   0.951  12.100
72283SOL    HW118682  10.435   1.027  12.073
72283SOL    HW218683  10.573   0.965  12.060
72284SOL     OW18684   0.124   5.136   0.168
72284SOL    HW118685   0.124   5.040   0.164
72284SOL    HW218686   0.168   5.163   0.087
72285SOL     OW18687   8.394  11.191   7.781
72285SOL    HW118688   8.328  11.122   7.792
72285SOL    HW218689   8.345  11.272   7.795
72286SOL     OW18690   1.461   9.579   3.059
72286SOL    HW118691   1.505   9.534   3.131
72286SOL    HW218692   1.471   9.672   3.079
72287SOL     OW18693  11.373   7.254  13.596
72287SOL    HW118694  11.460   7.221  13.618
72287SOL    HW218695  11.318   7.226  13.668
72288SOL     OW18696   4.286   4.950   1.860
72288SOL    HW118697   4.287   4.909   1.947
72288SOL    HW218698   4.317   4.881   1.801
72289SOL     OW18699   5.949   5.189   1.802
72289SOL    HW118700   5.928   5.233   1.720
72289SOL    HW218701   6.018   5.243   1.841
72290SOL     OW18702   5.580   1.575   8.146
72290SOL    HW118703   5.634   1.582   8.067
72290SOL    HW218704   5.640   1.542   8.213
72291SOL     OW18705  14.493   2.419   4.660
72291SOL    HW118706  14.584   2.402   4.637
72291SOL    HW218707  14.481   2.375   4.744
72292SOL     OW18708  13.883  13.266  13.662
72292SOL    HW118709  13.809  13.208  13.644
72292SOL    HW218710  13.960  13.212  13.646
72293SOL     OW18711   8.160  12.511   6.300
72293SOL    HW118712   8.090  12.568   6.270
72293SOL    HW218713   8.213  12.566   6.358
72294SOL     OW18714   0.936  11.913   3.766
72294SOL    HW118715   0.868  11.857   3.804
72294SOL    HW218716   0.973  11.960   3.840
72295SOL     OW18717   5.028  12.254  12.920
72295SOL    HW118718   5.102  12.261  12.860
72295SOL    HW218719   5.060  12.292  13.002
72296SOL     OW18720   3.766  13.429   9.709
72296SOL    HW118721   3.780  13.523   9.710
72296SOL    HW218722   3.852  13.392   9.729
72297SOL     OW18723   2.850   9.855   7.982
72297SOL    HW118724   2.930   9.873   7.933
72297SOL    HW218725   2.783   9.844   7.915
72298SOL     OW18726   1.983   2.056   3.956
72298SOL    HW118727   1.954   2.093   3.873
72298SOL    HW218728   1.915   2.082   4.018
72299SOL     OW18729   3.553  11.969   3.635
72299SOL    HW118730   3.475  12.025   3.626
72299SOL    HW218731   3.543  11.902   3.567
72300SOL     OW18732   4.256   5.142   4.189
72300SOL    HW118733   4.254   5.046   4.181
72300SOL    HW218734   4.177   5.163   4.238
72301SOL     OW18735   1.665  12.763   1.691
72301SOL    HW118736   1.634  12.848   1.660
72301SOL    HW218737   1.704  12.782   1.776
72302SOL     OW18738   7.755   9.128   1.828
72302SOL    HW118739   7.801   9.082   1.898
72302SOL    HW218740   7.694   9.064   1.793
72303SOL     OW18741  14.197   0.634  10.127
72303SOL    HW118742  14.170   0.633  10.219
72303SOL    HW218743  14.185   0.543  10.098
72304SOL     OW18744   1.510  12.624   7.813
72304SOL    HW118745   1.589  12.678   7.804
72304SOL    HW218746   1.490  12.629   7.907
72305SOL     OW18747  10.538   6.252   9.366
72305SOL    HW118748  10.527   6.237   9.272
72305SOL    HW218749  10.612   6.197   9.391
72306SOL     OW18750   7.075   8.856  12.636
72306SOL    HW118751   7.078   8.789  12.568
72306SOL    HW218752   7.056   8.937  12.589
72307SOL     OW18753   5.901  12.815  12.360
72307SOL    HW118754   5.913  12.878  12.289
72307SOL    HW218755   5.916  12.865  12.440
72308SOL     OW18756  13.007   2.755   4.687
72308SOL    HW118757  13.034   2.680   4.739
72308SOL    HW218758  13.083   2.776   4.633
72309SOL     OW18759   7.855  10.059   6.865
72309SOL    HW118760   7.835  10.009   6.944
72309SOL    HW218761   7.859   9.994   6.795
72310SOL     OW18762   2.086   7.630   5.895
72310SOL    HW118763   2.164   7.610   5.844
72310SOL    HW218764   2.103   7.592   5.982
72311SOL     OW18765   5.363   1.689  13.034
72311SOL    HW118766   5.399   1.610  13.074
72311SOL    HW218767   5.425   1.758  13.058
72312SOL     OW18768  14.801   1.660   2.362
72312SOL    HW118769  14.765   1.684   2.277
72312SOL    HW218770   0.023   1.660   2.348
72313SOL     OW18771  11.105   2.557   7.760
72313SOL    HW118772  11.018   2.520   7.779
72313SOL    HW218773  11.136   2.589   7.844
72314SOL     OW18774   1.128  10.622   7.721
72314SOL    HW118775   1.044  10.590   7.691
72314SOL    HW218776   1.192  10.559   7.688
72315SOL     OW18777   9.063   3.801  10.261
72315SOL    HW118778   8.994   3.735  10.254
72315SOL    HW218779   9.145   3.751  10.256
72316SOL     OW18780   8.381   0.976  11.225
72316SOL    HW118781   8.455   0.980  11.164
72316SOL    HW218782   8.365   0.883  11.238
72317SOL     OW18783   8.439   1.612  10.332
72317SOL    HW118784   8.464   1.535  10.281
72317SOL    HW218785   8.343   1.612  10.330
72318SOL     OW18786   2.092   9.993   3.747
72318SOL    HW118787   2.073  10.036   3.830
72318SOL    HW218788   2.081   9.899   3.766
72319SOL     OW18789   1.636   2.537   5.419
72319SOL    HW118790   1.728   2.563   5.417
72319SOL    HW218791   1.614   2.535   5.513
72320SOL     OW18792   0.720  13.931  10.700
72320SOL    HW118793   0.727  13.866  10.770
72320SOL    HW218794   0.786  13.997  10.722
72321SOL     OW18795   7.710   0.866  14.831
72321SOL    HW118796   7.708   0.911  14.746
72321SOL    HW218797   7.783   0.804  14.822
72322SOL     OW18798   8.262   5.518   2.283
72322SOL    HW118799   8.231   5.427   2.282
72322SOL    HW218800   8.265   5.543   2.191
72323SOL     OW18801   2.850   8.129   5.273
72323SOL    HW118802   2.942   8.152   5.259
72323SOL    HW218803   2.852   8.056   5.334
72324SOL     OW18804   4.495   2.061   2.519
72324SOL    HW118805   4.591   2.061   2.515
72324SOL    HW218806   4.473   2.136   2.575
72325SOL     OW18807   0.587  11.042   5.993
72325SOL    HW118808   0.511  11.073   5.945
72325SOL    HW218809   0.661  11.091   5.957
72326SOL     OW18810   3.096   7.833   5.449
72326SOL    HW118811   3.172   7.814   5.503
72326SOL    HW218812   3.107   7.925   5.424
72327SOL     OW18813  10.745   6.593   7.769
72327SOL    HW118814  10.721   6.540   7.845
72327SOL    HW218815  10.812   6.542   7.724
72328SOL     OW18816  11.531   6.600   9.740
72328SOL    HW118817  11.573   6.516   9.755
72328SOL    HW218818  11.439   6.579   9.724
72329SOL     OW18819  10.709  12.695  10.906
72329SOL    HW118820  10.712  12.630  10.977
72329SOL    HW218821  10.663  12.769  10.945
72330SOL     OW18822  11.003  10.424  10.875
72330SOL    HW118823  10.916  10.401  10.908
72330SOL    HW218824  10.987  10.469  10.793
72331SOL     OW18825   7.271  11.224   4.088
72331SOL    HW118826   7.339  11.176   4.042
72331SOL    HW218827   7.316  11.264   4.163
72332SOL     OW18828   3.306  13.016  11.647
72332SOL    HW118829   3.321  13.102  11.608
72332SOL    HW218830   3.211  13.008  11.652
72333SOL     OW18831   8.325   3.500  10.629
72333SOL    HW118832   8.294   3.529  10.543
72333SOL    HW218833   8.347   3.407  10.617
72334SOL     OW18834   8.356   5.320   1.023
72334SOL    HW118835   8.352   5.397   1.080
72334SOL    HW218836   8.352   5.355   0.934
72335SOL     OW18837   9.028   6.582  10.222
72335SOL    HW118838   9.039   6.655  10.284
72335SOL    HW218839   9.010   6.506  10.278
72336SOL     OW18840   7.031   1.389   7.913
72336SOL    HW118841   6.937   1.400   7.927
72336SOL    HW218842   7.069   1.472   7.939
72337SOL     OW18843   9.523   6.115   3.755
72337SOL    HW118844   9.481   6.198   3.735
72337SOL    HW218845   9.613   6.138   3.778
72338SOL     OW18846   3.190   5.020   2.532
72338SOL    HW118847   3.188   5.109   2.496
72338SOL    HW218848   3.098   4.996   2.541
72339SOL     OW18849   1.980  13.188   9.404
72339SOL    HW118850   1.945  13.266   9.362
72339SOL    HW218851   2.034  13.222   9.476
72340SOL     OW18852  10.115   3.080   0.009
72340SOL    HW118853  10.174   3.130  14.826
72340SOL    HW218854  10.146   3.096   0.098
72341SOL     OW18855  11.696   5.161   4.771
72341SOL    HW118856  11.666   5.076   4.740
72341SOL    HW218857  11.620   5.198   4.816
72342SOL     OW18858   8.230  11.345   1.827
72342SOL    HW118859   8.296  11.315   1.763
72342SOL    HW218860   8.281  11.363   1.906
72343SOL     OW18861   9.937   8.580   3.843
72343SOL    HW118862  10.022   8.546   3.815
72343SOL    HW218863   9.877   8.555   3.772
72344SOL     OW18864   4.304  10.584   7.863
72344SOL    HW118865   4.227  10.639   7.850
72344SOL    HW218866   4.370  10.642   7.899
72345SOL     OW18867  14.380   2.788   2.387
72345SOL    HW118868  14.436   2.731   2.334
72345SOL    HW218869  14.440   2.832   2.447
72346SOL     OW18870   3.689  12.253  11.037
72346SOL    HW118871   3.621  12.201  10.995
72346SOL    HW218872   3.769  12.230  10.991
72347SOL     OW18873   7.892   5.020   7.067
72347SOL    HW118874   7.852   5.099   7.103
72347SOL    HW218875   7.836   4.948   7.097
72348SOL     OW18876   5.257   6.007  12.183
72348SOL    HW118877   5.301   6.028  12.101
72348SOL    HW218878   5.231   6.091  12.219
72349SOL     OW18879   9.458   7.565   3.874
72349SOL    HW118880   9.420   7.641   3.918
72349SOL    HW218881   9.553   7.577   3.885
72350SOL     OW18882  14.704   6.161   5.736
72350SOL    HW118883  14.779   6.220   5.742
72350SOL    HW218884  14.726   6.088   5.793
72351SOL     OW18885  14.189   1.717   9.531
72351SOL    HW118886  14.153   1.760   9.609
72351SOL    HW218887  14.247   1.649   9.565
72352SOL     OW18888   4.606   5.597   7.210
72352SOL    HW118889   4.624   5.672   7.153
72352SOL    HW218890   4.617   5.521   7.154
72353SOL     OW18891   6.704  10.954  14.852
72353SOL    HW118892   6.736  11.042  14.836
72353SOL    HW218893   6.779  10.907   0.015
72354SOL     OW18894   2.975   6.398   0.145
72354SOL    HW118895   3.009   6.353   0.222
72354SOL    HW218896   3.041   6.384   0.077
72355SOL     OW18897   6.677  11.248   9.232
72355SOL    HW118898   6.713  11.160   9.221
72355SOL    HW218899   6.615  11.240   9.304
72356SOL     OW18900  12.235   6.073   8.964
72356SOL    HW118901  12.220   6.165   8.985
72356SOL    HW218902  12.286   6.039   9.038
72357SOL     OW18903   0.904   8.315   2.483
72357SOL    HW118904   0.943   8.254   2.546
72357SOL    HW218905   0.813   8.325   2.512
72358SOL     OW18906   5.105   3.932   4.083
72358SOL    HW118907   5.108   3.853   4.138
72358SOL    HW218908   5.176   3.987   4.117
72359SOL     OW18909   9.443   0.988  12.822
72359SOL    HW118910   9.404   0.996  12.734
72359SOL    HW218911   9.368   0.979  12.880
72360SOL     OW18912   9.881  11.651   7.229
72360SOL    HW118913   9.967  11.645   7.271
72360SOL    HW218914   9.820  11.613   7.293
72361SOL     OW18915  11.802   6.651  10.201
72361SOL    HW118916  11.730   6.593  10.179
72361SOL    HW218917  11.805   6.715  10.130
72362SOL     OW18918  13.808   2.873   2.051
72362SOL    HW118919  13.844   2.934   2.115
72362SOL    HW218920  13.736   2.921   2.010
72363SOL     OW18921   7.731  11.331  11.121
72363SOL    HW118922   7.695  11.285  11.197
72363SOL    HW218923   7.719  11.423  11.140
72364SOL     OW18924   9.005   4.980  14.789
72364SOL    HW118925   9.092   5.016  14.804
72364SOL    HW218926   8.991   4.987  14.695
72365SOL     OW18927   0.409   3.927   8.946
72365SOL    HW118928   0.353   3.948   9.020
72365SOL    HW218929   0.349   3.920   8.871
72366SOL     OW18930   5.078   4.744  12.903
72366SOL    HW118931   5.079   4.685  12.977
72366SOL    HW218932   5.146   4.711  12.844
72367SOL     OW18933  14.340   8.189  12.778
72367SOL    HW118934  14.298   8.198  12.692
72367SOL    HW218935  14.428   8.158  12.758
72368SOL     OW18936   7.284  10.822   6.024
72368SOL    HW118937   7.361  10.769   6.007
72368SOL    HW218938   7.300  10.861   6.110
72369SOL     OW18939   1.682   4.953   4.394
72369SOL    HW118940   1.737   5.014   4.442
72369SOL    HW218941   1.663   4.998   4.311
72370SOL     OW18942   6.772   8.797   0.676
72370SOL    HW118943   6.768   8.757   0.589
72370SOL    HW218944   6.798   8.725   0.734
72371SOL     OW18945  13.570   3.212  11.482
72371SOL    HW118946  13.658   3.182  11.459
72371SOL    HW218947  13.523   3.132  11.508
72372SOL     OW18948   3.629  11.983  11.113
72372SOL    HW118949   3.538  11.974  11.084
72372SOL    HW218950   3.680  11.982  11.033
72373SOL     OW18951   7.284   1.384  12.816
72373SOL    HW118952   7.332   1.405  12.896
72373SOL    HW218953   7.192   1.397  12.839
72374SOL     OW18954   8.703   3.617   0.941
72374SOL    HW118955   8.610   3.595   0.940
72374SOL    HW218956   8.705   3.713   0.934
72375SOL     OW18957  12.314   3.090   4.134
72375SOL    HW118958  12.301   2.996   4.122
72375SOL    HW218959  12.261   3.130   4.066
72376SOL     OW18960   7.217  12.938  12.783
72376SOL    HW118961   7.258  13.024  12.787
72376SOL    HW218962   7.173  12.927  12.867
72377SOL     OW18963   5.362   4.662  12.728
72377SOL    HW118964   5.354   4.570  12.700
72377SOL    HW218965   5.450   4.668  12.765
72378SOL     OW18966   7.614   8.424   8.066
72378SOL    HW118967   7.674   8.497   8.083
72378SOL    HW218968   7.607   8.378   8.150
72379SOL     OW18969  12.863  11.070  14.665
72379SOL    HW118970  12.803  11.005  14.702
72379SOL    HW218971  12.809  11.120  14.604
72380SOL     OW18972  11.631  12.134   6.431
72380SOL    HW118973  11.668  12.122   6.519
72380SOL    HW218974  11.626  12.228   6.419
72381SOL     OW18975   6.459   1.982   1.285
72381SOL    HW118976   6.465   2.070   1.248
72381SOL    HW218977   6.391   1.938   1.233
72382SOL     OW18978  13.342   4.499   7.588
72382SOL    HW118979  13.281   4.443   7.637
72382SOL    HW218980  13.340   4.583   7.634
72383SOL     OW18981   5.011  10.121   7.573
72383SOL    HW118982   5.088  10.155   7.527
72383SOL    HW218983   4.940  10.179   7.546
72384SOL     OW18984   4.358  12.784   9.670
72384SOL    HW118985   4.393  12.871   9.654
72384SOL    HW218986   4.275  12.799   9.714
72385SOL     OW18987   7.787   0.344   9.958
72385SOL    HW118988   7.806   0.416   9.898
72385SOL    HW218989   7.813   0.377  10.044
72386SOL     OW18990   9.057   7.832   8.677
72386SOL    HW118991   9.118   7.824   8.604
72386SOL    HW218992   8.982   7.779   8.652
72387SOL     OW18993   2.570   2.327  10.281
72387SOL    HW118994   2.634   2.393  10.307
72387SOL    HW218995   2.621   2.246  10.275
72388SOL     OW18996   7.127   3.366   1.860
72388SOL    HW118997   7.093   3.277   1.873
72388SOL    HW218998   7.050   3.417   1.834
72389SOL     OW18999   2.065   8.168   8.587
72389SOL    HW119000   1.977   8.164   8.626
72389SOL    HW219001   2.124   8.159   8.662
72390SOL     OW19002  12.872   6.090   6.953
72390SOL    HW119003  12.936   6.020   6.958
72390SOL    HW219004  12.878   6.123   6.864
72391SOL     OW19005   6.611   3.321   0.527
72391SOL    HW119006   6.695   3.316   0.573
72391SOL    HW219007   6.630   3.368   0.446
72392SOL     OW19008  13.060   7.501   6.107
72392SOL    HW119009  13.096   7.457   6.030
72392SOL    HW219010  13.014   7.431   6.154
72393SOL     OW19011   2.179   2.796   3.705
72393SOL    HW119012   2.198   2.881   3.666
72393SOL    HW219013   2.210   2.803   3.796
72394SOL     OW19014  11.300  14.627   0.514
72394SOL    HW119015  11.266  14.604   0.428
72394SOL    HW219016  11.305  14.544   0.561
72395SOL     OW19017   4.150   2.666  14.796
72395SOL    HW119018   4.224   2.709  14.839
72395SOL    HW219019   4.146   2.705  14.709
72396SOL     OW19020   1.754  11.658   6.428
72396SOL    HW119021   1.833  11.628   6.384
72396SOL    HW219022   1.786  11.700   6.508
72397SOL     OW19023   2.038  10.102   5.263
72397SOL    HW119024   2.123  10.144   5.269
72397SOL    HW219025   2.048  10.019   5.311
72398SOL     OW19026  11.913   3.729  10.997
72398SOL    HW119027  11.876   3.748  11.083
72398SOL    HW219028  11.858   3.659  10.962
72399SOL     OW19029  13.314  11.219  12.327
72399SOL    HW119030  13.238  11.259  12.369
72399SOL    HW219031  13.291  11.216  12.235
72400SOL     OW19032  11.939   4.168   4.427
72400SOL    HW119033  11.960   4.260   4.440
72400SOL    HW219034  12.023   4.123   4.430
72401SOL     OW19035  12.510   0.985   1.749
72401SOL    HW119036  12.570   0.973   1.822
72401SOL    HW219037  12.566   0.982   1.671
72402SOL     OW19038  11.585   3.278  11.681
72402SOL    HW119039  11.608   3.186  11.693
72402SOL    HW219040  11.498   3.276  11.642
72403SOL     OW19041  11.762   2.630   5.559
72403SOL    HW119042  11.744   2.563   5.625
72403SOL    HW219043  11.847   2.605   5.522
72404SOL     OW19044   6.123   1.815   1.716
72404SOL    HW119045   6.034   1.839   1.739
72404SOL    HW219046   6.162   1.786   1.798
72405SOL     OW19047   4.105  11.182   7.908
72405SOL    HW119048   4.063  11.165   7.824
72405SOL    HW219049   4.084  11.106   7.961
72406SOL     OW19050   0.959  12.379   5.368
72406SOL    HW119051   0.937  12.379   5.275
72406SOL    HW219052   0.945  12.289   5.396
72407SOL     OW19053  11.627   9.064   5.273
72407SOL    HW119054  11.647   9.031   5.361
72407SOL    HW219055  11.592   9.152   5.288
72408SOL     OW19056  12.284   2.244   6.660
72408SOL    HW119057  12.298   2.151   6.674
72408SOL    HW219058  12.193   2.251   6.630
72409SOL     OW19059   0.714  12.866  12.243
72409SOL    HW119060   0.642  12.831  12.190
72409SOL    HW219061   0.790  12.814  12.217
72410SOL     OW19062   0.372   1.315   8.501
72410SOL    HW119063   0.285   1.298   8.466
72410SOL    HW219064   0.415   1.229   8.502
72411SOL     OW19065   8.202   7.875   9.136
72411SOL    HW119066   8.263   7.816   9.092
72411SOL    HW219067   8.237   7.962   9.120
72412SOL     OW19068  11.780   1.147  11.683
72412SOL    HW119069  11.792   1.177  11.773
72412SOL    HW219070  11.846   1.079  11.670
72413SOL     OW19071  12.730   0.864  13.676
72413SOL    HW119072  12.669   0.807  13.630
72413SOL    HW219073  12.760   0.926  13.610
72414SOL     OW19074   5.341  14.149   4.025
72414SOL    HW119075   5.267  14.090   4.010
72414SOL    HW219076   5.418  14.092   4.018
72415SOL     OW19077  14.153   6.262   3.771
72415SOL    HW119078  14.063   6.291   3.754
72415SOL    HW219079  14.167   6.189   3.710
72416SOL     OW19080   8.120  13.194   0.731
72416SOL    HW119081   8.099  13.283   0.760
72416SOL    HW219082   8.111  13.140   0.809
72417SOL     OW19083   1.810  10.729   8.261
72417SOL    HW119084   1.782  10.813   8.224
72417SOL    HW219085   1.730  10.677   8.267
72418SOL     OW19086   4.845   3.192  14.153
72418SOL    HW119087   4.790   3.171  14.228
72418SOL    HW219088   4.929   3.152  14.174
72419SOL     OW19089   2.404   9.046  10.628
72419SOL    HW119090   2.492   9.014  10.649
72419SOL    HW219091   2.365   8.977  10.574
72420SOL     OW19092   7.184   3.068  10.430
72420SOL    HW119093   7.244   3.063  10.355
72420SOL    HW219094   7.237   3.041  10.504
72421SOL     OW19095   7.552   4.916   1.159
72421SOL    HW119096   7.483   4.853   1.178
72421SOL    HW219097   7.627   4.864   1.130
72422SOL     OW19098  12.862   3.738  10.734
72422SOL    HW119099  12.847   3.644  10.735
72422SOL    HW219100  12.807   3.770  10.662
72423SOL     OW19101  12.283   8.230   8.264
72423SOL    HW119102  12.330   8.308   8.237
72423SOL    HW219103  12.239   8.255   8.345
72424SOL     OW19104   7.506   8.984   9.607
72424SOL    HW119105   7.451   8.933   9.547
72424SOL    HW219106   7.596   8.959   9.583
72425SOL     OW19107   0.931   0.132  12.705
72425SOL    HW119108   0.851   0.160  12.748
72425SOL    HW219109   0.962   0.210  12.658
72426SOL     OW19110   2.348   1.999   7.138
72426SOL    HW119111   2.307   2.055   7.072
72426SOL    HW219112   2.330   1.910   7.109
72427SOL     OW19113   5.601   4.515   0.725
72427SOL    HW119114   5.548   4.480   0.797
72427SOL    HW219115   5.545   4.581   0.684
72428SOL     OW19116   5.118  14.257  14.815
72428SOL    HW119117   5.131  14.163  14.803
72428SOL    HW219118   5.101  14.290  14.726
72429SOL     OW19119   7.471  11.077   6.257
72429SOL    HW119120   7.386  11.115   6.234
72429SOL    HW219121   7.534  11.124   6.203
72430SOL     OW19122  10.418   4.569   0.518
72430SOL    HW119123  10.347   4.538   0.462
72430SOL    HW219124  10.410   4.665   0.517
72431SOL     OW19125   6.292  11.284   2.836
72431SOL    HW119126   6.357  11.314   2.771
72431SOL    HW219127   6.210  11.326   2.808
72432SOL     OW19128   2.702   7.833  11.794
72432SOL    HW119129   2.736   7.886  11.866
72432SOL    HW219130   2.616   7.804  11.823
72433SOL     OW19131  13.920   4.409   3.204
72433SOL    HW119132  13.935   4.434   3.113
72433SOL    HW219133  13.833   4.368   3.204
72434SOL     OW19134   9.655  14.490   5.524
72434SOL    HW119135   9.749  14.509   5.530
72434SOL    HW219136   9.642  14.465   5.433
72435SOL     OW19137   5.291   8.086   5.969
72435SOL    HW119138   5.360   8.137   6.012
72435SOL    HW219139   5.332   8.051   5.891
72436SOL     OW19140   3.332   9.175   2.409
72436SOL    HW119141   3.357   9.217   2.492
72436SOL    HW219142   3.339   9.081   2.427
72437SOL     OW19143   3.149   4.965   2.873
72437SOL    HW119144   3.061   4.942   2.842
72437SOL    HW219145   3.145   4.954   2.968
72438SOL     OW19146   7.100   9.180  10.594
72438SOL    HW119147   7.082   9.223  10.511
72438SOL    HW219148   7.118   9.252  10.655
72439SOL     OW19149   5.855   5.625   8.209
72439SOL    HW119150   5.940   5.582   8.215
72439SOL    HW219151   5.795   5.566   8.253
72440SOL     OW19152   3.160  14.866   0.660
72440SOL    HW119153   3.079  14.820   0.680
72440SOL    HW219154   3.139   0.086   0.671
72441SOL     OW19155   2.201  13.290   1.814
72441SOL    HW119156   2.140  13.321   1.882
72441SOL    HW219157   2.145  13.275   1.738
72442SOL     OW19158   4.404   1.313   3.593
72442SOL    HW119159   4.473   1.256   3.559
72442SOL    HW219160   4.448   1.366   3.661
72443SOL     OW19161   0.866  11.879  11.830
72443SOL    HW119162   0.861  11.970  11.799
72443SOL    HW219163   0.776  11.857  11.853
72444SOL     OW19164   6.188   9.926   7.951
72444SOL    HW119165   6.267   9.981   7.943
72444SOL    HW219166   6.222   9.838   7.965
72445SOL     OW19167   8.261   7.377  13.327
72445SOL    HW119168   8.256   7.289  13.366
72445SOL    HW219169   8.292   7.362  13.238
72446SOL     OW19170   4.312   6.853  10.601
72446SOL    HW119171   4.279   6.888  10.684
72446SOL    HW219172   4.241   6.799  10.567
72447SOL     OW19173  13.973   7.652  14.372
72447SOL    HW119174  13.938   7.596  14.303
72447SOL    HW219175  13.899   7.669  14.430
72448SOL     OW19176  14.785   3.958   3.274
72448SOL    HW119177  14.828   3.929   3.355
72448SOL    HW219178  14.719   3.891   3.256
72449SOL     OW19179  14.401   9.742   5.530
72449SOL    HW119180  14.362   9.654   5.525
72449SOL    HW219181  14.346   9.789   5.592
72450SOL     OW19182   4.746   6.709  11.358
72450SOL    HW119183   4.716   6.727  11.269
72450SOL    HW219184   4.665   6.705  11.410
72451SOL     OW19185   0.798   7.960  10.206
72451SOL    HW119186   0.775   7.958  10.114
72451SOL    HW219187   0.717   7.938  10.252
72452SOL     OW19188   3.653   6.102   9.863
72452SOL    HW119189   3.631   6.162   9.935
72452SOL    HW219190   3.686   6.160   9.794
72453SOL     OW19191   5.419  12.490  10.304
72453SOL    HW119192   5.460  12.439  10.374
72453SOL    HW219193   5.409  12.428  10.232
72454SOL     OW19194   5.859   2.101   6.455
72454SOL    HW119195   5.835   2.086   6.363
72454SOL    HW219196   5.926   2.036   6.473
72455SOL     OW19197  11.759  12.168  12.882
72455SOL    HW119198  11.798  12.247  12.918
72455SOL    HW219199  11.737  12.114  12.958
72456SOL     OW19200  13.289   5.178  12.294
72456SOL    HW119201  13.316   5.089  12.316
72456SOL    HW219202  13.197   5.183  12.320
72457SOL     OW19203  10.007  11.036  14.326
72457SOL    HW119204  10.006  11.101  14.396
72457SOL    HW219205  10.089  11.052  14.280
72458SOL     OW19206  11.746   6.772  12.436
72458SOL    HW119207  11.820   6.830  12.423
72458SOL    HW219208  11.734   6.729  12.351
72459SOL     OW19209   3.976   6.457  12.953
72459SOL    HW119210   4.046   6.420  13.006
72459SOL    HW219211   3.897   6.448  13.008
72460SOL     OW19212   9.201  13.365   2.148
72460SOL    HW119213   9.242  13.355   2.062
72460SOL    HW219214   9.260  13.425   2.195
72461SOL     OW19215   8.501   9.344   9.475
72461SOL    HW119216   8.468   9.391   9.399
72461SOL    HW219217   8.597   9.346   9.465
72462SOL     OW19218  10.373  11.455   4.281
72462SOL    HW119219  10.295  11.403   4.299
72462SOL    HW219220  10.347  11.514   4.210
72463SOL     OW19221  11.100  10.189   1.180
72463SOL    HW119222  11.095  10.191   1.084
72463SOL    HW219223  11.009  10.198   1.209
72464SOL     OW19224   4.513   5.167   3.561
72464SOL    HW119225   4.561   5.095   3.520
72464SOL    HW219226   4.562   5.185   3.641
72465SOL     OW19227   7.756  11.141  10.666
72465SOL    HW119228   7.721  11.213  10.718
72465SOL    HW219229   7.684  11.079  10.659
72466SOL     OW19230   8.503   6.478  11.525
72466SOL    HW119231   8.488   6.525  11.607
72466SOL    HW219232   8.597   6.480  11.512
72467SOL     OW19233  11.163   3.190  12.206
72467SOL    HW119234  11.240   3.204  12.151
72467SOL    HW219235  11.091   3.179  12.144
72468SOL     OW19236  10.050  14.533   6.387
72468SOL    HW119237  10.027  14.571   6.302
72468SOL    HW219238  10.126  14.583   6.416
72469SOL     OW19239  14.394  14.668   4.746
72469SOL    HW119240  14.402  14.750   4.795
72469SOL    HW219241  14.303  14.668   4.715
72470SOL     OW19242   5.956   4.683   0.990
72470SOL    HW119243   6.034   4.637   1.022
72470SOL    HW219244   5.982   4.775   0.987
72471SOL     OW19245   8.525  11.285  13.971
72471SOL    HW119246   8.449  11.338  13.995
72471SOL    HW219247   8.569  11.336  13.903
72472SOL     OW19248  14.073  13.431   2.222
72472SOL    HW119249  14.071  13.504   2.283
72472SOL    HW219250  14.062  13.353   2.277
72473SOL     OW19251   4.061   8.990   9.922
72473SOL    HW119252   4.127   9.059   9.916
72473SOL    HW219253   4.098   8.926   9.983
72474SOL     OW19254  11.058  12.587   0.923
72474SOL    HW119255  11.028  12.644   0.852
72474SOL    HW219256  11.143  12.555   0.893
72475SOL     OW19257  11.071   6.164   3.332
72475SOL    HW119258  11.107   6.080   3.358
72475SOL    HW219259  11.015   6.144   3.257
72476SOL     OW19260   1.574  13.179   6.264
72476SOL    HW119261   1.626  13.240   6.211
72476SOL    HW219262   1.628  13.099   6.268
72477SOL     OW19263   0.698   0.723  10.788
72477SOL    HW119264   0.721   0.788  10.855
72477SOL    HW219265   0.760   0.651  10.803
72478SOL     OW19266  12.477   9.929   5.136
72478SOL    HW119267  12.543   9.939   5.067
72478SOL    HW219268  12.525   9.889   5.208
72479SOL     OW19269   5.479  13.186   1.642
72479SOL    HW119270   5.559  13.144   1.674
72479SOL    HW219271   5.442  13.229   1.719
72480SOL     OW19272   9.820   3.880   4.708
72480SOL    HW119273   9.757   3.950   4.725
72480SOL    HW219274   9.899   3.908   4.753
72481SOL     OW19275   8.536   6.532   7.077
72481SOL    HW119276   8.444   6.542   7.099
72481SOL    HW219277   8.544   6.570   6.989
72482SOL     OW19278   8.141   8.169   9.239
72482SOL    HW119279   8.213   8.144   9.296
72482SOL    HW219280   8.126   8.261   9.257
72483SOL     OW19281   3.687  13.076   6.227
72483SOL    HW119282   3.594  13.089   6.210
72483SOL    HW219283   3.723  13.051   6.142
72484SOL     OW19284  13.972   0.318  12.084
72484SOL    HW119285  14.044   0.373  12.114
72484SOL    HW219286  14.006   0.228  12.089
72485SOL     OW19287   6.798   0.209  12.052
72485SOL    HW119288   6.859   0.172  11.989
72485SOL    HW219289   6.756   0.281  12.005
72486SOL     OW19290   9.523   0.927   2.312
72486SOL    HW119291   9.601   0.871   2.306
72486SOL    HW219292   9.558   1.016   2.310
72487SOL     OW19293   8.693   0.784   5.405
72487SOL    HW119294   8.739   0.710   5.364
72487SOL    HW219295   8.615   0.796   5.351
72488SOL     OW19296   5.511   6.476   1.673
72488SOL    HW119297   5.598   6.511   1.691
72488SOL    HW219298   5.518   6.383   1.696
72489SOL     OW19299   2.887   8.562  10.326
72489SOL    HW119300   2.951   8.567  10.255
72489SOL    HW219301   2.809   8.525  10.285
72490SOL     OW19302  11.786   4.318   9.937
72490SOL    HW119303  11.763   4.312  10.030
72490SOL    HW219304  11.747   4.400   9.908
72491SOL     OW19305  14.731   2.453   2.872
72491SOL    HW119306  14.726   2.358   2.863
72491SOL    HW219307  14.648   2.478   2.911
72492SOL     OW19308  13.165  13.586   4.004
72492SOL    HW119309  13.099  13.527   3.967
72492SOL    HW219310  13.206  13.536   4.075
72493SOL     OW19311  11.795  13.201   6.900
72493SOL    HW119312  11.778  13.199   6.806
72493SOL    HW219313  11.752  13.280   6.931
72494SOL     OW19314  10.307   2.233   6.736
72494SOL    HW119315  10.212   2.241   6.740
72494SOL    HW219316  10.333   2.288   6.662
72495SOL     OW19317   8.638   4.034   4.823
72495SOL    HW119318   8.564   4.080   4.782
72495SOL    HW219319   8.598   3.957   4.863
72496SOL     OW19320   9.907   3.719   3.239
72496SOL    HW119321   9.938   3.634   3.209
72496SOL    HW219322   9.814   3.720   3.217
72497SOL     OW19323   7.656   1.812   1.638
72497SOL    HW119324   7.631   1.806   1.545
72497SOL    HW219325   7.715   1.887   1.642
72498SOL     OW19326   5.610   8.546   6.436
72498SOL    HW119327   5.521   8.579   6.448
72498SOL    HW219328   5.612   8.464   6.486
72499SOL     OW19329  10.601   6.683   1.948
72499SOL    HW119330  10.525   6.703   1.893
72499SOL    HW219331  10.572   6.703   2.037
72500SOL     OW19332  14.702  14.223   2.239
72500SOL    HW119333  14.639  14.176   2.184
72500SOL    HW219334  14.776  14.239   2.180
72501SOL     OW19335  10.977   6.374   4.641
72501SOL    HW119336  10.993   6.464   4.614
72501SOL    HW219337  11.056   6.348   4.688
72502SOL     OW19338   7.808   9.862   0.912
72502SOL    HW119339   7.830   9.872   1.005
72502SOL    HW219340   7.724   9.816   0.912
72503SOL     OW19341  11.783   7.343  14.779
72503SOL    HW119342  11.810   7.434  14.784
72503SOL    HW219343  11.687   7.345  14.780
72504SOL     OW19344   3.273  10.378   2.180
72504SOL    HW119345   3.338  10.429   2.131
72504SOL    HW219346   3.286  10.288   2.151
72505SOL     OW19347   2.610   2.782   2.213
72505SOL    HW119348   2.607   2.729   2.133
72505SOL    HW219349   2.617   2.872   2.182
72506SOL     OW19350   2.436  10.792   2.598
72506SOL    HW119351   2.441  10.729   2.525
72506SOL    HW219352   2.357  10.842   2.579
72507SOL     OW19353   3.481  11.176   6.385
72507SOL    HW119354   3.546  11.229   6.431
72507SOL    HW219355   3.528  11.096   6.361
72508SOL     OW19356   2.430   7.240   1.624
72508SOL    HW119357   2.402   7.149   1.610
72508SOL    HW219358   2.455   7.270   1.536
72509SOL     OW19359  12.390  13.323   7.959
72509SOL    HW119360  12.442  13.244   7.940
72509SOL    HW219361  12.432  13.359   8.038
72510SOL     OW19362   7.912  12.631   3.344
72510SOL    HW119363   7.851  12.570   3.385
72510SOL    HW219364   7.989  12.630   3.401
72511SOL     OW19365   5.532  12.430   2.239
72511SOL    HW119366   5.461  12.393   2.187
72511SOL    HW219367   5.570  12.354   2.285
72512SOL     OW19368   7.987   1.965   3.179
72512SOL    HW119369   7.976   1.876   3.211
72512SOL    HW219370   8.055   2.002   3.235
72513SOL     OW19371  12.405   3.670   2.259
72513SOL    HW119372  12.401   3.714   2.175
72513SOL    HW219373  12.467   3.598   2.246
72514SOL     OW19374   1.155   5.094   5.675
72514SOL    HW119375   1.223   5.155   5.647
72514SOL    HW219376   1.128   5.050   5.594
72515SOL     OW19377   9.149   4.048   9.591
72515SOL    HW119378   9.095   4.112   9.543
72515SOL    HW219379   9.142   4.075   9.682
72516SOL     OW19380   1.870   5.507   7.086
72516SOL    HW119381   1.918   5.469   7.012
72516SOL    HW219382   1.779   5.486   7.068
72517SOL     OW19383   5.420  13.839   6.195
72517SOL    HW119384   5.329  13.837   6.226
72517SOL    HW219385   5.414  13.871   6.105
72518SOL     OW19386  14.090   9.455   9.152
72518SOL    HW119387  14.042   9.372   9.153
72518SOL    HW219388  14.081   9.489   9.241
72519SOL     OW19389   1.694   5.765   1.197
72519SOL    HW119390   1.701   5.752   1.292
72519SOL    HW219391   1.611   5.722   1.173
72520SOL     OW19392   5.001   9.441   2.198
72520SOL    HW119393   4.926   9.392   2.165
72520SOL    HW219394   5.056   9.456   2.121
72521SOL     OW19395  14.033   0.210   7.598
72521SOL    HW119396  14.096   0.252   7.540
72521SOL    HW219397  13.954   0.263   7.592
72522SOL     OW19398   8.858   1.270   2.976
72522SOL    HW119399   8.888   1.353   2.938
72522SOL    HW219400   8.833   1.217   2.900
72523SOL     OW19401  13.118  13.969   2.983
72523SOL    HW119402  13.198  13.994   3.028
72523SOL    HW219403  13.135  13.989   2.891
72524SOL     OW19404  14.784  13.636   3.823
72524SOL    HW119405  14.717  13.581   3.863
72524SOL    HW219406  14.867  13.590   3.839
72525SOL     OW19407  14.227  13.711  13.304
72525SOL    HW119408  14.160  13.772  13.334
72525SOL    HW219409  14.294  13.766  13.264
72526SOL     OW19410  11.903   8.797  11.433
72526SOL    HW119411  11.921   8.863  11.366
72526SOL    HW219412  11.808   8.791  11.436
72527SOL     OW19413   2.691   0.123   8.073
72527SOL    HW119414   2.644   0.041   8.081
72527SOL    HW219415   2.784   0.098   8.069
72528SOL     OW19416   6.796   9.832   8.512
72528SOL    HW119417   6.746   9.812   8.433
72528SOL    HW219418   6.887   9.820   8.487
72529SOL     OW19419   8.255   8.297  11.351
72529SOL    HW119420   8.258   8.372  11.410
72529SOL    HW219421   8.226   8.334  11.267
72530SOL     OW19422  11.975  10.024  11.812
72530SOL    HW119423  11.947  10.101  11.861
72530SOL    HW219424  12.014  10.060  11.732
72531SOL     OW19425   3.423   5.016  12.778
72531SOL    HW119426   3.440   5.111  12.781
72531SOL    HW219427   3.494   4.977  12.828
72532SOL     OW19428   0.933  11.810   8.259
72532SOL    HW119429   1.005  11.771   8.209
72532SOL    HW219430   0.878  11.852   8.193
72533SOL     OW19431   5.112   9.031  12.363
72533SOL    HW119432   5.115   9.101  12.428
72533SOL    HW219433   5.024   8.994  12.372
72534SOL     OW19434   5.804   2.677  11.586
72534SOL    HW119435   5.765   2.639  11.507
72534SOL    HW219436   5.734   2.673  11.651
72535SOL     OW19437   1.342   9.664   0.757
72535SOL    HW119438   1.292   9.743   0.734
72535SOL    HW219439   1.403   9.694   0.824
72536SOL     OW19440   7.736   0.380   4.735
72536SOL    HW119441   7.724   0.389   4.641
72536SOL    HW219442   7.784   0.458   4.761
72537SOL     OW19443  14.788   5.370   7.429
72537SOL    HW119444  14.831   5.320   7.498
72537SOL    HW219445  14.802   5.318   7.349
72538SOL     OW19446   5.618  10.374  12.431
72538SOL    HW119447   5.577  10.398  12.515
72538SOL    HW219448   5.695  10.323  12.456
72539SOL     OW19449   1.883  11.225   5.459
72539SOL    HW119450   1.838  11.279   5.525
72539SOL    HW219451   1.974  11.223   5.488
72540SOL     OW19452   2.415   6.082   7.144
72540SOL    HW119453   2.488   6.080   7.082
72540SOL    HW219454   2.415   5.995   7.183
72541SOL     OW19455   8.407   7.353   3.864
72541SOL    HW119456   8.477   7.374   3.926
72541SOL    HW219457   8.436   7.392   3.782
72542SOL     OW19458   4.052  10.691   4.093
72542SOL    HW119459   4.122  10.717   4.153
72542SOL    HW219460   4.061  10.596   4.085
72543SOL     OW19461  11.145   3.837   0.456
72543SOL    HW119462  11.069   3.785   0.430
72543SOL    HW219463  11.191   3.783   0.521
72544SOL     OW19464  10.656   4.975   3.748
72544SOL    HW119465  10.660   5.018   3.834
72544SOL    HW219466  10.747   4.968   3.720
72545SOL     OW19467   0.196  13.656  12.702
72545SOL    HW119468   0.154  13.718  12.641
72545SOL    HW219469   0.289  13.660  12.679
72546SOL     OW19470   0.453   7.750   9.430
72546SOL    HW119471   0.419   7.703   9.354
72546SOL    HW219472   0.489   7.830   9.394
72547SOL     OW19473   8.017   9.433   6.012
72547SOL    HW119474   8.099   9.389   6.032
72547SOL    HW219475   7.951   9.384   6.062
72548SOL     OW19476  13.912   8.983   4.142
72548SOL    HW119477  13.860   9.039   4.085
72548SOL    HW219478  13.893   9.014   4.231
72549SOL     OW19479  12.969   5.859   7.144
72549SOL    HW119480  12.890   5.813   7.116
72549SOL    HW219481  13.031   5.789   7.167
72550SOL     OW19482   3.758   7.039   1.431
72550SOL    HW119483   3.845   7.050   1.469
72550SOL    HW219484   3.749   6.945   1.418
72551SOL     OW19485  12.104   0.857   2.465
72551SOL    HW119486  12.017   0.819   2.471
72551SOL    HW219487  12.125   0.856   2.371
72552SOL     OW19488   9.158   8.784  11.725
72552SOL    HW119489   9.110   8.792  11.642
72552SOL    HW219490   9.232   8.845  11.714
72553SOL     OW19491   4.095   2.769   6.462
72553SOL    HW119492   4.189   2.774   6.481
72553SOL    HW219493   4.066   2.860   6.459
72554SOL     OW19494   6.286  10.622  11.910
72554SOL    HW119495   6.358  10.683  11.891
72554SOL    HW219496   6.213  10.678  11.935
72555SOL     OW19497  13.744   5.214   2.527
72555SOL    HW119498  13.739   5.147   2.459
72555SOL    HW219499  13.669   5.271   2.511
72556SOL     OW19500   3.978  10.643  12.634
72556SOL    HW119501   4.072  10.655  12.646
72556SOL    HW219502   3.961  10.675  12.546
72557SOL     OW19503  11.486   4.393   0.743
72557SOL    HW119504  11.569   4.435   0.720
72557SOL    HW219505  11.507   4.299   0.746
72558SOL     OW19506   3.222   2.015  11.876
72558SOL    HW119507   3.283   2.003  11.949
72558SOL    HW219508   3.275   2.055  11.807
72559SOL     OW19509  10.957   1.352   5.661
72559SOL    HW119510  11.028   1.294   5.632
72559SOL    HW219511  10.951   1.338   5.755
72560SOL     OW19512  13.003  14.546   7.739
72560SOL    HW119513  12.909  14.558   7.736
72560SOL    HW219514  13.017  14.476   7.804
72561SOL     OW19515   0.128   5.611   4.849
72561SOL    HW119516   0.082   5.673   4.792
72561SOL    HW219517   0.121   5.649   4.937
72562SOL     OW19518   6.150   7.876   3.028
72562SOL    HW119519   6.101   7.795   3.044
72562SOL    HW219520   6.204   7.857   2.951
72563SOL     OW19521   1.737  12.184   3.270
72563SOL    HW119522   1.831  12.201   3.272
72563SOL    HW219523   1.714  12.167   3.362
72564SOL     OW19524  10.142  14.802  10.151
72564SOL    HW119525  10.213  14.855  10.189
72564SOL    HW219526  10.121  14.846  10.069
72565SOL     OW19527   9.312  14.482   7.579
72565SOL    HW119528   9.221  14.450   7.574
72565SOL    HW219529   9.308  14.554   7.642
72566SOL     OW19530   7.913   5.678  12.063
72566SOL    HW119531   7.992   5.692  12.115
72566SOL    HW219532   7.841   5.701  12.123
72567SOL     OW19533  14.369  11.785   9.334
72567SOL    HW119534  14.382  11.879   9.344
72567SOL    HW219535  14.412  11.764   9.250
72568SOL     OW19536   6.902  13.095   6.838
72568SOL    HW119537   6.953  13.022   6.872
72568SOL    HW219538   6.949  13.125   6.761
72569SOL     OW19539  14.499   5.929   3.594
72569SOL    HW119540  14.424   5.877   3.567
72569SOL    HW219541  14.469   6.020   3.588
72570SOL     OW19542  10.031   9.800  12.034
72570SOL    HW119543  10.125   9.781  12.024
72570SOL    HW219544   9.989   9.714  12.033
72571SOL     OW19545   0.314  13.400   7.289
72571SOL    HW119546   0.294  13.492   7.269
72571SOL    HW219547   0.409  13.395   7.285
72572SOL     OW19548   0.106   3.709  11.195
72572SOL    HW119549   0.030   3.749  11.153
72572SOL    HW219550   0.135   3.642  11.133
72573SOL     OW19551  11.623   6.674  10.428
72573SOL    HW119552  11.611   6.722  10.347
72573SOL    HW219553  11.680   6.601  10.405
72574SOL     OW19554  10.025   2.034   7.718
72574SOL    HW119555  10.015   1.953   7.668
72574SOL    HW219556  10.100   2.078   7.679
72575SOL     OW19557  14.360  12.544  11.303
72575SOL    HW119558  14.426  12.595  11.255
72575SOL    HW219559  14.279  12.594  11.293
72576SOL     OW19560   4.491   6.159   5.475
72576SOL    HW119561   4.576   6.138   5.437
72576SOL    HW219562   4.428   6.142   5.405
72577SOL     OW19563  11.140   8.005  13.929
72577SOL    HW119564  11.191   8.048  13.998
72577SOL    HW219565  11.198   8.007  13.852
72578SOL     OW19566   3.828   1.962   6.898
72578SOL    HW119567   3.776   1.890   6.932
72578SOL    HW219568   3.805   2.037   6.953
72579SOL     OW19569  11.024   4.170   6.254
72579SOL    HW119570  11.094   4.199   6.313
72579SOL    HW219571  10.989   4.251   6.216
72580SOL     OW19572   5.418   3.687   4.105
72580SOL    HW119573   5.350   3.679   4.172
72580SOL    HW219574   5.370   3.697   4.023
72581SOL     OW19575   0.076  13.496  12.357
72581SOL    HW119576   0.129  13.567  12.320
72581SOL    HW219577  14.858  13.525  12.347
72582SOL     OW19578  14.307   3.283  14.411
72582SOL    HW119579  14.369   3.317  14.475
72582SOL    HW219580  14.298   3.353  14.346
72583SOL     OW19581   2.067   0.120   5.243
72583SOL    HW119582   2.075   0.066   5.165
72583SOL    HW219583   2.078   0.210   5.212
72584SOL     OW19584   3.745   3.646  12.358
72584SOL    HW119585   3.691   3.692  12.293
72584SOL    HW219586   3.807   3.595  12.306
72585SOL     OW19587   7.311  12.195   4.713
72585SOL    HW119588   7.398  12.219   4.746
72585SOL    HW219589   7.251  12.256   4.757
72586SOL     OW19590  10.114   2.787   2.371
72586SOL    HW119591  10.127   2.852   2.302
72586SOL    HW219592  10.202   2.763   2.398
72587SOL     OW19593   7.284  12.591   1.528
72587SOL    HW119594   7.305  12.519   1.587
72587SOL    HW219595   7.236  12.551   1.456
72588SOL     OW19596   7.774   0.201   8.710
72588SOL    HW119597   7.861   0.235   8.686
72588SOL    HW219598   7.713   0.269   8.681
72589SOL     OW19599   2.579   1.369   2.577
72589SOL    HW119600   2.510   1.434   2.559
72589SOL    HW219601   2.596   1.328   2.493
72590SOL     OW19602   3.527  13.530   1.993
72590SOL    HW119603   3.618  13.516   1.969
72590SOL    HW219604   3.476  13.492   1.921
72591SOL     OW19605  13.130   6.663   7.048
72591SOL    HW119606  13.212   6.625   7.077
72591SOL    HW219607  13.116   6.628   6.960
72592SOL     OW19608   7.429   8.878   3.766
72592SOL    HW119609   7.389   8.881   3.853
72592SOL    HW219610   7.407   8.791   3.733
72593SOL     OW19611   0.585  11.038  10.323
72593SOL    HW119612   0.658  11.028  10.383
72593SOL    HW219613   0.600  11.122  10.280
72594SOL     OW19614  10.203  11.455   3.624
72594SOL    HW119615  10.142  11.516   3.580
72594SOL    HW219616  10.254  11.418   3.552
72595SOL     OW19617  14.311  14.080   8.047
72595SOL    HW119618  14.394  14.047   8.011
72595SOL    HW219619  14.259  14.103   7.970
72596SOL     OW19620   2.406  14.682   2.735
72596SOL    HW119621   2.366  14.615   2.791
72596SOL    HW219622   2.369  14.665   2.649
72597SOL     OW19623   2.822   4.458   9.594
72597SOL    HW119624   2.842   4.379   9.645
72597SOL    HW219625   2.792   4.424   9.509
72598SOL     OW19626  14.490   5.342  10.074
72598SOL    HW119627  14.548   5.359  10.148
72598SOL    HW219628  14.440   5.264  10.101
72599SOL     OW19629   0.967   4.949   0.587
72599SOL    HW119630   0.952   4.873   0.643
72599SOL    HW219631   1.047   4.988   0.623
72600SOL     OW19632   5.993  12.525   0.300
72600SOL    HW119633   5.928  12.497   0.235
72600SOL    HW219634   6.028  12.607   0.265
72601SOL     OW19635   6.781  12.565   8.287
72601SOL    HW119636   6.756  12.573   8.378
72601SOL    HW219637   6.730  12.490   8.255
72602SOL     OW19638   3.245   4.668   8.766
72602SOL    HW119639   3.272   4.581   8.736
72602SOL    HW219640   3.248   4.723   8.688
72603SOL     OW19641   0.703   0.253  12.751
72603SOL    HW119642   0.709   0.348  12.764
72603SOL    HW219643   0.609   0.235  12.748
72604SOL     OW19644   3.153   6.302   6.202
72604SOL    HW119645   3.084   6.321   6.138
72604SOL    HW219646   3.135   6.362   6.275
72605SOL     OW19647  13.140  11.001   3.039
72605SOL    HW119648  13.196  10.934   3.001
72605SOL    HW219649  13.081  11.027   2.968
72606SOL     OW19650   5.947  12.389   2.170
72606SOL    HW119651   5.971  12.328   2.240
72606SOL    HW219652   5.932  12.472   2.215
72607SOL     OW19653  12.655   1.236   3.037
72607SOL    HW119654  12.576   1.228   2.984
72607SOL    HW219655  12.692   1.147   3.038
72608SOL     OW19656   6.471   6.284  14.186
72608SOL    HW119657   6.416   6.287  14.265
72608SOL    HW219658   6.449   6.200  14.146
72609SOL     OW19659   9.713   6.168  14.518
72609SOL    HW119660   9.724   6.163  14.423
72609SOL    HW219661   9.799   6.195  14.550
72610SOL     OW19662  12.273   6.431  12.565
72610SOL    HW119663  12.289   6.525  12.556
72610SOL    HW219664  12.179   6.421  12.550
72611SOL     OW19665  14.265   8.442  11.355
72611SOL    HW119666  14.235   8.505  11.420
72611SOL    HW219667  14.187   8.390  11.334
72612SOL     OW19668   6.096   4.122   1.843
72612SOL    HW119669   6.059   4.210   1.851
72612SOL    HW219670   6.050   4.070   1.909
72613SOL     OW19671  11.925   6.508   8.080
72613SOL    HW119672  11.916   6.589   8.131
72613SOL    HW219673  11.884   6.529   7.996
72614SOL     OW19674   6.171   1.906   2.831
72614SOL    HW119675   6.253   1.859   2.814
72614SOL    HW219676   6.122   1.900   2.749
72615SOL     OW19677   6.323   1.682   5.776
72615SOL    HW119678   6.273   1.723   5.706
72615SOL    HW219679   6.358   1.755   5.827
72616SOL     OW19680  14.812   6.167   0.389
72616SOL    HW119681  14.828   6.239   0.327
72616SOL    HW219682   0.009   6.175   0.454
72617SOL     OW19683   7.670   4.419   9.116
72617SOL    HW119684   7.739   4.473   9.079
72617SOL    HW219685   7.656   4.350   9.052
72618SOL     OW19686   2.997   9.905   6.424
72618SOL    HW119687   3.058   9.921   6.353
72618SOL    HW219688   3.011   9.979   6.485
72619SOL     OW19689   1.507   3.301   6.171
72619SOL    HW119690   1.542   3.227   6.221
72619SOL    HW219691   1.416   3.277   6.154
72620SOL     OW19692  10.099   0.127   7.996
72620SOL    HW119693  10.061   0.176   8.069
72620SOL    HW219694  10.188   0.106   8.024
72621SOL     OW19695  13.010  10.858   6.672
72621SOL    HW119696  12.956  10.823   6.743
72621SOL    HW219697  12.948  10.904   6.615
72622SOL     OW19698   8.476   8.510   4.193
72622SOL    HW119699   8.537   8.449   4.152
72622SOL    HW219700   8.519   8.536   4.274
72623SOL     OW19701   1.991   5.910   2.556
72623SOL    HW119702   2.003   5.839   2.619
72623SOL    HW219703   2.040   5.984   2.593
72624SOL     OW19704   3.473   5.671   6.196
72624SOL    HW119705   3.410   5.599   6.188
72624SOL    HW219706   3.438   5.739   6.139
72625SOL     OW19707   7.295   4.565   0.789
72625SOL    HW119708   7.368   4.503   0.789
72625SOL    HW219709   7.336   4.650   0.804
72626SOL     OW19710  13.467   7.050   5.170
72626SOL    HW119711  13.448   7.031   5.262
72626SOL    HW219712  13.531   7.120   5.172
72627SOL     OW19713  10.343  11.979   9.314
72627SOL    HW119714  10.318  11.889   9.293
72627SOL    HW219715  10.337  11.984   9.410
72628SOL     OW19716   6.879   7.179   6.083
72628SOL    HW119717   6.873   7.209   6.173
72628SOL    HW219718   6.822   7.102   6.080
72629SOL     OW19719  10.806  10.838   1.869
72629SOL    HW119720  10.801  10.767   1.933
72629SOL    HW219721  10.880  10.891   1.898
72630SOL     OW19722   2.997  12.101  11.046
72630SOL    HW119723   3.028  12.024  10.998
72630SOL    HW219724   2.980  12.069  11.135
72631SOL     OW19725   0.779   4.716   2.716
72631SOL    HW119726   0.767   4.659   2.640
72631SOL    HW219727   0.849   4.675   2.766
72632SOL     OW19728  14.247  12.229   4.816
72632SOL    HW119729  14.198  12.257   4.739
72632SOL    HW219730  14.182  12.229   4.887
72633SOL     OW19731   9.047   6.981   2.338
72633SOL    HW119732   9.126   6.999   2.390
72633SOL    HW219733   9.007   6.905   2.380
72634SOL     OW19734  12.085   5.915  13.695
72634SOL    HW119735  12.160   5.957  13.652
72634SOL    HW219736  12.057   5.847  13.633
72635SOL     OW19737   1.518   7.255   3.774
72635SOL    HW119738   1.499   7.339   3.732
72635SOL    HW219739   1.442   7.201   3.756
72636SOL     OW19740  14.646   8.704   7.682
72636SOL    HW119741  14.720   8.755   7.713
72636SOL    HW219742  14.664   8.615   7.712
72637SOL     OW19743   1.613   2.698   9.480
72637SOL    HW119744   1.525   2.727   9.457
72637SOL    HW219745   1.670   2.769   9.449
72638SOL     OW19746  14.819   5.831   5.277
72638SOL    HW119747   0.021   5.869   5.323
72638SOL    HW219748  14.747   5.838   5.339
72639SOL     OW19749   2.670   4.450   5.251
72639SOL    HW119750   2.662   4.540   5.219
72639SOL    HW219751   2.582   4.426   5.277
72640SOL     OW19752   7.737   2.007   9.514
72640SOL    HW119753   7.650   2.001   9.553
72640SOL    HW219754   7.782   1.928   9.543
72641SOL     OW19755   3.581   0.107   8.830
72641SOL    HW119756   3.533   0.063   8.760
72641SOL    HW219757   3.609   0.036   8.888
72642SOL     OW19758   9.020  13.862  10.050
72642SOL    HW119759   9.018  13.858   9.954
72642SOL    HW219760   8.928  13.857  10.076
72643SOL     OW19761  10.030   6.666   3.355
72643SOL    HW119762  10.002   6.599   3.293
72643SOL    HW219763   9.972   6.741   3.338
72644SOL     OW19764  11.365   1.948  12.014
72644SOL    HW119765  11.356   1.909  11.927
72644SOL    HW219766  11.457   1.935  12.037
72645SOL     OW19767  12.439   6.721   1.068
72645SOL    HW119768  12.489   6.730   0.987
72645SOL    HW219769  12.348   6.720   1.040
72646SOL     OW19770   9.404   3.395   7.897
72646SOL    HW119771   9.337   3.438   7.950
72646SOL    HW219772   9.477   3.456   7.896
72647SOL     OW19773   4.617  14.153   3.901
72647SOL    HW119774   4.600  14.204   3.821
72647SOL    HW219775   4.712  14.143   3.904
72648SOL     OW19776   8.011   5.723   1.462
72648SOL    HW119777   7.926   5.695   1.428
72648SOL    HW219778   7.991   5.798   1.517
72649SOL     OW19779   6.232   6.595   3.783
72649SOL    HW119780   6.326   6.588   3.766
72649SOL    HW219781   6.225   6.658   3.855
72650SOL     OW19782  11.884   8.106   9.367
72650SOL    HW119783  11.938   8.185   9.368
72650SOL    HW219784  11.806   8.129   9.418
72651SOL     OW19785   2.616   3.109   3.508
72651SOL    HW119786   2.524   3.107   3.534
72651SOL    HW219787   2.664   3.092   3.589
72652SOL     OW19788   8.656   3.317   9.130
72652SOL    HW119789   8.726   3.252   9.128
72652SOL    HW219790   8.576   3.266   9.140
72653SOL     OW19791   7.005   5.822   4.329
72653SOL    HW119792   7.061   5.764   4.379
72653SOL    HW219793   7.048   5.907   4.333
72654SOL     OW19794   4.074   7.972  10.625
72654SOL    HW119795   4.070   7.877  10.628
72654SOL    HW219796   4.043   8.000  10.711
72655SOL     OW19797  11.966  13.129  14.119
72655SOL    HW119798  11.955  13.036  14.138
72655SOL    HW219799  12.060  13.143  14.122
72656SOL     OW19800  11.808   8.228   5.291
72656SOL    HW119801  11.897   8.197   5.274
72656SOL    HW219802  11.762   8.151   5.325
72657SOL     OW19803   2.002   8.077  14.848
72657SOL    HW119804   1.939   8.147  14.827
72657SOL    HW219805   1.997   8.069   0.070
72658SOL     OW19806  12.205   2.365   8.642
72658SOL    HW119807  12.239   2.355   8.731
72658SOL    HW219808  12.128   2.307   8.639
72659SOL     OW19809   7.971   0.476   1.582
72659SOL    HW119810   7.913   0.505   1.653
72659SOL    HW219811   7.981   0.382   1.596
72660SOL     OW19812   5.666   5.146   7.876
72660SOL    HW119813   5.672   5.127   7.970
72660SOL    HW219814   5.641   5.063   7.836
72661SOL     OW19815   6.729   9.368  10.271
72661SOL    HW119816   6.719   9.394  10.180
72661SOL    HW219817   6.686   9.437  10.321
72662SOL     OW19818   8.927   7.060   3.739
72662SOL    HW119819   8.947   7.058   3.645
72662SOL    HW219820   9.006   7.097   3.779
72663SOL     OW19821  11.321   0.002   9.371
72663SOL    HW119822  11.351  14.854   9.459
72663SOL    HW219823  11.383   0.066   9.338
72664SOL     OW19824  14.795   6.788  10.185
72664SOL    HW119825  14.857   6.730  10.142
72664SOL    HW219826  14.796   6.869  10.133
72665SOL     OW19827   0.551   6.831   8.600
72665SOL    HW119828   0.603   6.857   8.676
72665SOL    HW219829   0.525   6.914   8.559
72666SOL     OW19830   2.421   9.268   7.744
72666SOL    HW119831   2.346   9.262   7.685
72666SOL    HW219832   2.387   9.240   7.829
72667SOL     OW19833   7.653   7.687   8.169
72667SOL    HW119834   7.622   7.637   8.245
72667SOL    HW219835   7.573   7.712   8.123
72668SOL     OW19836   7.560   6.176  10.528
72668SOL    HW119837   7.572   6.159  10.622
72668SOL    HW219838   7.485   6.122  10.504
72669SOL     OW19839  10.684   9.568  12.007
72669SOL    HW119840  10.778   9.583  11.996
72669SOL    HW219841  10.670   9.480  11.973
72670SOL     OW19842  10.769   9.666  14.834
72670SOL    HW119843  10.675   9.659  14.848
72670SOL    HW219844  10.779   9.663  14.739
72671SOL     OW19845   8.589   1.440   8.706
72671SOL    HW119846   8.528   1.385   8.755
72671SOL    HW219847   8.539   1.468   8.629
72672SOL     OW19848  10.166   6.546   6.168
72672SOL    HW119849  10.239   6.570   6.112
72672SOL    HW219850  10.145   6.626   6.217
72673SOL     OW19851   6.817   6.282   4.854
72673SOL    HW119852   6.838   6.330   4.935
72673SOL    HW219853   6.882   6.213   4.849
72674SOL     OW19854   5.908  10.753  13.004
72674SOL    HW119855   5.862  10.669  13.000
72674SOL    HW219856   6.000  10.730  13.015
72675SOL     OW19857   8.422   0.769   6.945
72675SOL    HW119858   8.392   0.860   6.941
72675SOL    HW219859   8.355   0.719   6.898
72676SOL     OW19860  13.768   4.994  10.873
72676SOL    HW119861  13.695   4.974  10.932
72676SOL    HW219862  13.844   4.953  10.914
72677SOL     OW19863   0.846  13.887   4.535
72677SOL    HW119864   0.923  13.875   4.479
72677SOL    HW219865   0.796  13.806   4.524
72678SOL     OW19866   7.013   0.702  13.466
72678SOL    HW119867   6.989   0.707  13.559
72678SOL    HW219868   6.967   0.624  13.434
72679SOL     OW19869   9.795   1.535   2.602
72679SOL    HW119870   9.880   1.565   2.633
72679SOL    HW219871   9.815   1.476   2.530
72680SOL     OW19872   9.231   3.927   1.149
72680SOL    HW119873   9.203   3.852   1.097
72680SOL    HW219874   9.201   3.907   1.238
72681SOL     OW19875  13.493   4.229   5.735
72681SOL    HW119876  13.439   4.242   5.813
72681SOL    HW219877  13.566   4.175   5.765
72682SOL     OW19878  10.380   3.562  13.237
72682SOL    HW119879  10.344   3.642  13.277
72682SOL    HW219880  10.460   3.544  13.286
72683SOL     OW19881   1.486   8.927  12.453
72683SOL    HW119882   1.408   8.914  12.507
72683SOL    HW219883   1.454   8.973  12.376
72684SOL     OW19884   6.763   9.848  12.923
72684SOL    HW119885   6.750   9.835  13.017
72684SOL    HW219886   6.855   9.825  12.908
72685SOL     OW19887   1.019   8.015   7.937
72685SOL    HW119888   0.946   7.973   7.983
72685SOL    HW219889   0.981   8.050   7.857
72686SOL     OW19890  13.832  11.182   8.653
72686SOL    HW119891  13.874  11.234   8.584
72686SOL    HW219892  13.744  11.165   8.620
72687SOL     OW19893  13.002   3.240   4.414
72687SOL    HW119894  13.091   3.249   4.379
72687SOL    HW219895  12.950   3.302   4.364
72688SOL     OW19896  10.875   8.435   6.910
72688SOL    HW119897  10.902   8.520   6.876
72688SOL    HW219898  10.936   8.417   6.982
72689SOL     OW19899   9.082   9.391   6.191
72689SOL    HW119900   9.000   9.349   6.216
72689SOL    HW219901   9.142   9.371   6.262
72690SOL     OW19902   1.271  10.769   2.326
72690SOL    HW119903   1.244  10.706   2.393
72690SOL    HW219904   1.254  10.725   2.243
72691SOL     OW19905   3.050   6.081   2.556
72691SOL    HW119906   3.123   6.063   2.497
72691SOL    HW219907   2.979   6.025   2.524
72692SOL     OW19908  13.150   3.528   0.828
72692SOL    HW119909  13.087   3.595   0.853
72692SOL    HW219910  13.235   3.567   0.850
72693SOL     OW19911   8.828  14.670   5.886
72693SOL    HW119912   8.740  14.631   5.878
72693SOL    HW219913   8.811  14.760   5.911
72694SOL     OW19914   3.163  11.515  10.746
72694SOL    HW119915   3.205  11.465  10.676
72694SOL    HW219916   3.078  11.473  10.758
72695SOL     OW19917  12.240   2.891  14.852
72695SOL    HW119918  12.239   2.798  14.872
72695SOL    HW219919  12.150   2.911  14.826
72696SOL     OW19920   2.686  10.619   5.472
72696SOL    HW119921   2.661  10.552   5.535
72696SOL    HW219922   2.782  10.615   5.470
72697SOL     OW19923   2.453  11.488   4.236
72697SOL    HW119924   2.429  11.418   4.176
72697SOL    HW219925   2.459  11.566   4.181
72698SOL     OW19926   9.399  11.061  10.817
72698SOL    HW119927   9.351  11.049  10.734
72698SOL    HW219928   9.467  11.125  10.796
72699SOL     OW19929   5.175   2.699   2.961
72699SOL    HW119930   5.262   2.738   2.969
72699SOL    HW219931   5.170   2.669   2.870
72700SOL     OW19932   2.636   6.252  11.783
72700SOL    HW119933   2.587   6.254  11.701
72700SOL    HW219934   2.701   6.183  11.770
72701SOL     OW19935  13.546   2.168   5.340
72701SOL    HW119936  13.523   2.075   5.340
72701SOL    HW219937  13.602   2.178   5.417
72702SOL     OW19938   3.272   2.483  10.619
72702SOL    HW119939   3.183   2.488  10.654
72702SOL    HW219940   3.328   2.469  10.695
72703SOL     OW19941   7.982  13.825  14.127
72703SOL    HW119942   7.990  13.866  14.041
72703SOL    HW219943   8.043  13.873  14.183
72704SOL     OW19944   3.666   5.365   6.857
72704SOL    HW119945   3.609   5.333   6.927
72704SOL    HW219946   3.606   5.389   6.786
72705SOL     OW19947   0.266  12.849   5.323
72705SOL    HW119948   0.222  12.930   5.350
72705SOL    HW219949   0.338  12.838   5.386
72706SOL     OW19950   8.656  12.818   8.368
72706SOL    HW119951   8.659  12.731   8.328
72706SOL    HW219952   8.725  12.867   8.323
72707SOL     OW19953   1.301  13.197  11.099
72707SOL    HW119954   1.229  13.140  11.126
72707SOL    HW219955   1.308  13.262  11.170
72708SOL     OW19956   1.549  10.227   6.099
72708SOL    HW119957   1.587  10.273   6.024
72708SOL    HW219958   1.498  10.294   6.145
72709SOL     OW19959  10.263  13.538   3.232
72709SOL    HW119960  10.294  13.538   3.323
72709SOL    HW219961  10.167  13.542   3.240
72710SOL     OW19962   4.187  12.372   8.101
72710SOL    HW119963   4.109  12.369   8.045
72710SOL    HW219964   4.160  12.325   8.180
72711SOL     OW19965   7.397   3.711   2.569
72711SOL    HW119966   7.461   3.782   2.576
72711SOL    HW219967   7.340   3.738   2.498
72712SOL     OW19968   8.752  13.742   1.059
72712SOL    HW119969   8.825  13.720   1.002
72712SOL    HW219970   8.762  13.684   1.135
72713SOL     OW19971   2.940   7.694   2.868
72713SOL    HW119972   2.951   7.729   2.957
72713SOL    HW219973   3.024   7.709   2.825
72714SOL     OW19974  14.356  11.145  14.140
72714SOL    HW119975  14.308  11.068  14.169
72714SOL    HW219976  14.300  11.186  14.074
72715SOL     OW19977   9.206   1.172  14.609
72715SOL    HW119978   9.237   1.142  14.523
72715SOL    HW219979   9.176   1.261  14.594
72716SOL     OW19980  13.778  10.812   8.828
72716SOL    HW119981  13.835  10.737   8.843
72716SOL    HW219982  13.828  10.887   8.860
72717SOL     OW19983   6.548  12.310   9.104
72717SOL    HW119984   6.637  12.282   9.080
72717SOL    HW219985   6.561  12.389   9.156
72718SOL     OW19986   5.218   3.451   9.090
72718SOL    HW119987   5.197   3.538   9.124
72718SOL    HW219988   5.312   3.453   9.075
72719SOL     OW19989   5.365  13.747   1.610
72719SOL    HW119990   5.423  13.711   1.677
72719SOL    HW219991   5.423  13.802   1.556
72720SOL     OW19992   6.088  14.223   8.384
72720SOL    HW119993   6.168  14.219   8.332
72720SOL    HW219994   6.040  14.298   8.348
72721SOL     OW19995   5.770   3.356   1.581
72721SOL    HW119996   5.723   3.438   1.566
72721SOL    HW219997   5.836   3.353   1.512
72722SOL     OW19998   9.511   9.615  14.093
72722SOL    HW119999   9.544   9.533  14.127
72722SOL    HW220000   9.530   9.611  13.999
72723SOL     OW20001   4.582  11.155  14.297
72723SOL    HW120002   4.548  11.080  14.248
72723SOL    HW220003   4.562  11.135  14.389
72724SOL     OW20004   4.525   4.916   5.844
72724SOL    HW120005   4.501   4.990   5.788
72724SOL    HW220006   4.524   4.951   5.933
72725SOL     OW20007   6.533  11.498   8.462
72725SOL    HW120008   6.475  11.575   8.461
72725SOL    HW220009   6.476  11.426   8.487
72726SOL     OW20010   6.571   3.503   6.682
72726SOL    HW120011   6.620   3.421   6.675
72726SOL    HW220012   6.571   3.524   6.775
72727SOL     OW20013  14.803   4.725   9.151
72727SOL    HW120014  14.861   4.676   9.092
72727SOL    HW220015  14.719   4.680   9.146
72728SOL     OW20016   4.586   7.328   3.381
72728SOL    HW120017   4.638   7.326   3.300
72728SOL    HW220018   4.529   7.404   3.371
72729SOL     OW20019   9.437  10.065   7.328
72729SOL    HW120020   9.465  10.087   7.416
72729SOL    HW220021   9.417  10.149   7.287
72730SOL     OW20022  11.492   0.398   9.043
72730SOL    HW120023  11.418   0.424   8.988
72730SOL    HW220024  11.565   0.391   8.982
72731SOL     OW20025   3.013  12.817   6.054
72731SOL    HW120026   3.049  12.780   5.973
72731SOL    HW220027   2.920  12.831   6.035
72732SOL     OW20028   6.291   4.903   0.350
72732SOL    HW120029   6.286   4.836   0.418
72732SOL    HW220030   6.227   4.969   0.376
72733SOL     OW20031   8.563   8.703   1.311
72733SOL    HW120032   8.480   8.727   1.270
72733SOL    HW220033   8.543   8.624   1.361
72734SOL     OW20034   3.325   7.457   2.232
72734SOL    HW120035   3.348   7.549   2.223
72734SOL    HW220036   3.231   7.454   2.213
72735SOL     OW20037  14.245   8.136   7.617
72735SOL    HW120038  14.163   8.092   7.592
72735SOL    HW220039  14.312   8.068   7.609
72736SOL     OW20040   5.404   5.720   7.651
72736SOL    HW120041   5.363   5.640   7.685
72736SOL    HW220042   5.332   5.765   7.606
72737SOL     OW20043   9.609   2.871   0.903
72737SOL    HW120044   9.680   2.902   0.959
72737SOL    HW220045   9.620   2.919   0.821
72738SOL     OW20046   2.462   0.087   2.100
72738SOL    HW120047   2.534   0.129   2.053
72738SOL    HW220048   2.498   0.066   2.186
72739SOL     OW20049   0.249   5.961   1.178
72739SOL    HW120050   0.320   6.023   1.159
72739SOL    HW220051   0.207   5.997   1.257
72740SOL     OW20052  14.221   5.964  10.334
72740SOL    HW120053  14.204   6.037  10.394
72740SOL    HW220054  14.236   5.889  10.392
72741SOL     OW20055   1.683   1.130   7.059
72741SOL    HW120056   1.683   1.035   7.055
72741SOL    HW220057   1.775   1.155   7.047
72742SOL     OW20058  13.907  11.078   4.604
72742SOL    HW120059  13.893  11.099   4.697
72742SOL    HW220060  13.898  10.983   4.599
72743SOL     OW20061   2.554   4.922   6.983
72743SOL    HW120062   2.526   4.926   7.074
72743SOL    HW220063   2.629   4.982   6.979
72744SOL     OW20064  11.318   8.154   4.926
72744SOL    HW120065  11.349   8.118   5.009
72744SOL    HW220066  11.331   8.248   4.933
72745SOL     OW20067  14.086   9.076   5.312
72745SOL    HW120068  14.143   9.089   5.387
72745SOL    HW220069  14.013   9.137   5.326
72746SOL     OW20070   8.569  10.002   2.423
72746SOL    HW120071   8.509  10.007   2.498
72746SOL    HW220072   8.539   9.926   2.373
72747SOL     OW20073  10.985   7.095  11.021
72747SOL    HW120074  10.893   7.086  11.047
72747SOL    HW220075  10.987   7.062  10.931
72748SOL     OW20076   5.731   0.189   8.736
72748SOL    HW120077   5.714   0.193   8.642
72748SOL    HW220078   5.645   0.179   8.776
72749SOL     OW20079   2.241   0.378  14.396
72749SOL    HW120080   2.283   0.334  14.322
72749SOL    HW220081   2.309   0.436  14.431
72750SOL     OW20082  12.575   8.641  12.869
72750SOL    HW120083  12.502   8.580  12.858
72750SOL    HW220084  12.581   8.653  12.964
72751SOL     OW20085   0.819  14.671  14.348
72751SOL    HW120086   0.909  14.704  14.348
72751SOL    HW220087   0.810  14.626  14.432
72752SOL     OW20088  13.888   1.145  10.950
72752SOL    HW120089  13.979   1.115  10.959
72752SOL    HW220090  13.894   1.241  10.955
72753SOL     OW20091   1.957  12.115  12.094
72753SOL    HW120092   1.997  12.195  12.059
72753SOL    HW220093   2.006  12.044  12.052
72754SOL     OW20094   3.839  10.527   2.745
72754SOL    HW120095   3.881  10.610   2.770
72754SOL    HW220096   3.911  10.471   2.716
72755SOL     OW20097   1.852   4.757   9.010
72755SOL    HW120098   1.774   4.772   8.957
72755SOL    HW220099   1.861   4.662   9.012
72756SOL     OW20100   0.287   9.868  11.893
72756SOL    HW120101   0.374   9.831  11.903
72756SOL    HW220102   0.298   9.939  11.830
72757SOL     OW20103   5.827   0.625   9.581
72757SOL    HW120104   5.753   0.632   9.641
72757SOL    HW220105   5.820   0.536   9.545
72758SOL     OW20106   1.468  14.607   9.036
72758SOL    HW120107   1.482  14.692   9.078
72758SOL    HW220108   1.555  14.581   9.005
72759SOL     OW20109   9.960   9.454   9.885
72759SOL    HW120110   9.934   9.453   9.977
72759SOL    HW220111   9.932   9.541   9.854
72760SOL     OW20112   8.574  10.480   1.650
72760SOL    HW120113   8.537  10.415   1.590
72760SOL    HW220114   8.549  10.564   1.612
72761SOL     OW20115   7.107   4.951   6.097
72761SOL    HW120116   7.135   5.040   6.076
72761SOL    HW220117   7.049   4.961   6.173
72762SOL     OW20118   2.641   3.992   5.272
72762SOL    HW120119   2.572   4.058   5.276
72762SOL    HW220120   2.681   3.994   5.358
72763SOL     OW20121   8.277   7.075   2.052
72763SOL    HW120122   8.258   6.995   2.004
72763SOL    HW220123   8.264   7.051   2.144
72764SOL     OW20124  12.179   4.168  12.044
72764SOL    HW120125  12.268   4.156  12.012
72764SOL    HW220126  12.146   4.079  12.056
72765SOL     OW20127  11.384   4.765   6.256
72765SOL    HW120128  11.370   4.858   6.272
72765SOL    HW220129  11.459   4.762   6.196
72766SOL     OW20130  11.233   1.044   2.240
72766SOL    HW120131  11.320   1.006   2.255
72766SOL    HW220132  11.184   1.022   2.319
72767SOL     OW20133   9.163   7.227  12.474
72767SOL    HW120134   9.148   7.310  12.520
72767SOL    HW220135   9.109   7.164  12.521
72768SOL     OW20136  12.843  13.542   3.955
72768SOL    HW120137  12.828  13.547   4.050
72768SOL    HW220138  12.774  13.596   3.917
72769SOL     OW20139  11.578   3.438   8.948
72769SOL    HW120140  11.645   3.386   8.991
72769SOL    HW220141  11.620   3.522   8.931
72770SOL     OW20142   6.812   6.381   6.333
72770SOL    HW120143   6.867   6.309   6.303
72770SOL    HW220144   6.873   6.450   6.359
72771SOL     OW20145  13.254  14.277   1.122
72771SOL    HW120146  13.296  14.275   1.208
72771SOL    HW220147  13.246  14.371   1.102
72772SOL     OW20148   2.941   3.394  14.577
72772SOL    HW120149   3.016   3.343  14.607
72772SOL    HW220150   2.866   3.335  14.589
72773SOL     OW20151   8.261   2.409   8.722
72773SOL    HW120152   8.346   2.452   8.711
72773SOL    HW220153   8.205   2.448   8.655
72774SOL     OW20154  10.202  14.415   1.961
72774SOL    HW120155  10.226  14.335   1.914
72774SOL    HW220156  10.283  14.443   2.004
72775SOL     OW20157   6.690   3.209   5.148
72775SOL    HW120158   6.599   3.222   5.123
72775SOL    HW220159   6.686   3.152   5.225
72776SOL     OW20160   2.341   5.517   8.637
72776SOL    HW120161   2.362   5.473   8.719
72776SOL    HW220162   2.426   5.541   8.600
72777SOL     OW20163   8.275  12.069  14.755
72777SOL    HW120164   8.362  12.049  14.791
72777SOL    HW220165   8.217  12.069  14.832
72778SOL     OW20166   8.155   8.369  14.613
72778SOL    HW120167   8.207   8.294  14.642
72778SOL    HW220168   8.069   8.355  14.652
72779SOL     OW20169   9.423   7.943   9.720
72779SOL    HW120170   9.357   7.930   9.652
72779SOL    HW220171   9.375   7.985   9.792
72780SOL     OW20172   8.779   5.261   9.524
72780SOL    HW120173   8.839   5.280   9.596
72780SOL    HW220174   8.822   5.296   9.447
72781SOL     OW20175  11.671  12.857   0.990
72781SOL    HW120176  11.639  12.902   1.067
72781SOL    HW220177  11.598  12.802   0.962
72782SOL     OW20178  10.925   6.174   1.074
72782SOL    HW120179  10.883   6.197   1.157
72782SOL    HW220180  10.877   6.223   1.008
72783SOL     OW20181   1.448   2.177   1.588
72783SOL    HW120182   1.538   2.165   1.559
72783SOL    HW220183   1.456   2.210   1.677
72784SOL     OW20184  14.037  11.990   2.124
72784SOL    HW120185  14.084  11.907   2.112
72784SOL    HW220186  13.966  11.987   2.060
72785SOL     OW20187   0.488  10.235   7.387
72785SOL    HW120188   0.483  10.259   7.295
72785SOL    HW220189   0.448  10.308   7.434
72786SOL     OW20190   7.333  11.035   0.692
72786SOL    HW120191   7.404  11.036   0.755
72786SOL    HW220192   7.372  11.066   0.610
72787SOL     OW20193   7.118   6.126   6.720
72787SOL    HW120194   7.151   6.174   6.796
72787SOL    HW220195   7.064   6.056   6.757
72788SOL     OW20196  10.708   5.471   0.632
72788SOL    HW120197  10.697   5.551   0.581
72788SOL    HW220198  10.773   5.493   0.698
72789SOL     OW20199  14.698   5.204   4.208
72789SOL    HW120200  14.619   5.152   4.194
72789SOL    HW220201  14.768   5.139   4.218
72790SOL     OW20202   9.301  13.167   0.155
72790SOL    HW120203   9.355  13.244   0.175
72790SOL    HW220204   9.358  13.112   0.102
72791SOL     OW20205  13.903   4.982   4.491
72791SOL    HW120206  13.855   4.927   4.553
72791SOL    HW220207  13.984   5.005   4.536
72792SOL     OW20208  11.910  10.733  10.403
72792SOL    HW120209  11.932  10.714  10.494
72792SOL    HW220210  11.923  10.650  10.357
72793SOL     OW20211   8.615   7.437  11.639
72793SOL    HW120212   8.629   7.491  11.562
72793SOL    HW220213   8.568   7.360  11.606
72794SOL     OW20214   0.578  13.186   5.840
72794SOL    HW120215   0.579  13.235   5.758
72794SOL    HW220216   0.610  13.248   5.906
72795SOL     OW20217   3.382   3.646   8.774
72795SOL    HW120218   3.391   3.553   8.791
72795SOL    HW220219   3.320   3.652   8.701
72796SOL     OW20220  13.536  13.501   4.655
72796SOL    HW120221  13.448  13.533   4.637
72796SOL    HW220222  13.523  13.429   4.718
72797SOL     OW20223  12.799  10.515   1.186
72797SOL    HW120224  12.744  10.475   1.254
72797SOL    HW220225  12.756  10.494   1.104
72798SOL     OW20226  12.141   1.717   5.099
72798SOL    HW120227  12.151   1.646   5.161
72798SOL    HW220228  12.066   1.692   5.045
72799SOL     OW20229   9.125   9.254   7.234
72799SOL    HW120230   9.182   9.331   7.232
72799SOL    HW220231   9.047   9.283   7.281
72800SOL     OW20232   2.087   3.389  10.106
72800SOL    HW120233   2.163   3.402  10.049
72800SOL    HW220234   2.029   3.332  10.055
72801SOL     OW20235   6.307   1.903   2.019
72801SOL    HW120236   6.266   1.817   2.033
72801SOL    HW220237   6.377   1.886   1.956
72802SOL     OW20238  12.554  10.535   8.491
72802SOL    HW120239  12.630  10.589   8.509
72802SOL    HW220240  12.588  10.445   8.487
72803SOL     OW20241   4.731  10.674  13.358
72803SOL    HW120242   4.644  10.635  13.351
72803SOL    HW220243   4.789  10.612  13.313
72804SOL     OW20244   9.683  14.718   3.252
72804SOL    HW120245   9.748  14.664   3.297
72804SOL    HW220246   9.616  14.735   3.318
72805SOL     OW20247  13.406   5.817   0.359
72805SOL    HW120248  13.329   5.869   0.339
72805SOL    HW220249  13.448   5.862   0.433
72806SOL     OW20250   5.390  10.288  13.329
72806SOL    HW120251   5.349  10.372  13.309
72806SOL    HW220252   5.358  10.266  13.417
72807SOL     OW20253   9.990   4.011  10.782
72807SOL    HW120254  10.034   4.084  10.824
72807SOL    HW220255   9.899   4.038  10.775
72808SOL     OW20256   6.657   2.395  10.450
72808SOL    HW120257   6.574   2.347  10.440
72808SOL    HW220258   6.685   2.412  10.360
72809SOL     OW20259   7.249   8.098  13.177
72809SOL    HW120260   7.290   8.140  13.101
72809SOL    HW220261   7.319   8.043  13.213
72810SOL     OW20262   8.922   7.920   7.358
72810SOL    HW120263   8.976   7.985   7.314
72810SOL    HW220264   8.832   7.942   7.331
72811SOL     OW20265  11.562  13.092  14.830
72811SOL    HW120266  11.654  13.064  14.833
72811SOL    HW220267  11.513  13.013  14.810
72812SOL     OW20268   5.671  12.888  12.641
72812SOL    HW120269   5.759  12.908  12.673
72812SOL    HW220270   5.627  12.973  12.637
72813SOL     OW20271   4.421   6.745  14.393
72813SOL    HW120272   4.394   6.836  14.394
72813SOL    HW220273   4.340   6.695  14.399
72814SOL     OW20274   9.881  14.132   5.031
72814SOL    HW120275   9.821  14.201   5.002
72814SOL    HW220276   9.938  14.175   5.095
72815SOL     OW20277  12.158   4.976  10.298
72815SOL    HW120278  12.204   5.052  10.262
72815SOL    HW220279  12.227   4.910  10.309
72816SOL     OW20280   1.305  12.554  10.110
72816SOL    HW120281   1.338  12.619  10.172
72816SOL    HW220282   1.384  12.513  10.074
72817SOL     OW20283   2.482  10.803   3.295
72817SOL    HW120284   2.486  10.849   3.379
72817SOL    HW220285   2.389  10.787   3.281
72818SOL     OW20286   6.159   4.518   1.043
72818SOL    HW120287   6.229   4.540   0.981
72818SOL    HW220288   6.206   4.499   1.125
72819SOL     OW20289   5.347  12.952   3.642
72819SOL    HW120290   5.393  13.004   3.708
72819SOL    HW220291   5.380  12.863   3.655
72820SOL     OW20292  13.365   9.389   2.990
72820SOL    HW120293  13.357   9.295   2.975
72820SOL    HW220294  13.281   9.414   3.029
72821SOL     OW20295  11.976  10.077   8.237
72821SOL    HW120296  11.880  10.074   8.236
72821SOL    HW220297  11.997  10.155   8.186
72822SOL     OW20298  12.079   2.064   0.528
72822SOL    HW120299  12.106   2.034   0.442
72822SOL    HW220300  12.154   2.113   0.562
72823SOL     OW20301   2.451   6.227   9.758
72823SOL    HW120302   2.422   6.308   9.800
72823SOL    HW220303   2.394   6.218   9.681
72824SOL     OW20304   9.794   5.142   6.337
72824SOL    HW120305   9.780   5.223   6.386
72824SOL    HW220306   9.707   5.104   6.328
72825SOL     OW20307   8.922  11.037   2.503
72825SOL    HW120308   8.856  11.064   2.439
72825SOL    HW220309   8.873  10.987   2.569
72826SOL     OW20310  10.978  10.078   8.143
72826SOL    HW120311  10.917  10.114   8.078
72826SOL    HW220312  11.040  10.026   8.092
72827SOL     OW20313   5.639  12.013   7.456
72827SOL    HW120314   5.687  11.997   7.537
72827SOL    HW220315   5.557  11.966   7.466
72828SOL     OW20316   9.586  12.225  13.191
72828SOL    HW120317   9.532  12.221  13.113
72828SOL    HW220318   9.674  12.204  13.161
72829SOL     OW20319   5.069  12.743   3.805
72829SOL    HW120320   4.986  12.727   3.849
72829SOL    HW220321   5.100  12.826   3.841
72830SOL     OW20322   6.478   0.290   9.321
72830SOL    HW120323   6.382   0.286   9.322
72830SOL    HW220324   6.504   0.241   9.399
72831SOL     OW20325  13.306  13.188   8.114
72831SOL    HW120326  13.327  13.187   8.208
72831SOL    HW220327  13.390  13.206   8.071
72832SOL     OW20328  12.046   4.755   3.738
72832SOL    HW120329  12.088   4.835   3.767
72832SOL    HW220330  11.984   4.783   3.671
72833SOL     OW20331   3.822   0.109   5.591
72833SOL    HW120332   3.905   0.102   5.545
72833SOL    HW220333   3.774   0.029   5.567
72834SOL     OW20334   6.596   2.303   0.334
72834SOL    HW120335   6.530   2.330   0.398
72834SOL    HW220336   6.546   2.285   0.254
72835SOL     OW20337   8.799   9.963  13.127
72835SOL    HW120338   8.884   9.960  13.170
72835SOL    HW220339   8.749   9.893  13.169
72836SOL     OW20340   2.848   1.524   2.454
72836SOL    HW120341   2.882   1.445   2.496
72836SOL    HW220342   2.806   1.572   2.525
72837SOL     OW20343  12.885  11.222   0.519
72837SOL    HW120344  12.895  11.241   0.612
72837SOL    HW220345  12.971  11.192   0.491
72838SOL     OW20346   7.572   6.228  10.208
72838SOL    HW120347   7.514   6.270  10.271
72838SOL    HW220348   7.622   6.300  10.169
72839SOL     OW20349   0.633  13.096   4.498
72839SOL    HW120350   0.660  13.178   4.457
72839SOL    HW220351   0.609  13.120   4.588
72840SOL     OW20352   3.275  13.253  12.052
72840SOL    HW120353   3.197  13.240  11.999
72840SOL    HW220354   3.250  13.320  12.116
72841SOL     OW20355   1.821   2.200   7.917
72841SOL    HW120356   1.765   2.268   7.880
72841SOL    HW220357   1.810   2.125   7.857
72842SOL     OW20358   1.733  10.707   3.111
72842SOL    HW120359   1.807  10.721   3.051
72842SOL    HW220360   1.774  10.696   3.197
72843SOL     OW20361   6.214   6.873   8.352
72843SOL    HW120362   6.269   6.890   8.276
72843SOL    HW220363   6.126   6.901   8.325
72844SOL     OW20364   1.824   3.953   9.419
72844SOL    HW120365   1.750   3.935   9.361
72844SOL    HW220366   1.804   4.037   9.460
72845SOL     OW20367  12.493   6.718  14.331
72845SOL    HW120368  12.461   6.706  14.241
72845SOL    HW220369  12.449   6.649  14.381
72846SOL     OW20370   0.304   2.716  12.704
72846SOL    HW120371   0.320   2.654  12.633
72846SOL    HW220372   0.388   2.724  12.749
72847SOL     OW20373   9.167  13.510  14.313
72847SOL    HW120374   9.147  13.593  14.356
72847SOL    HW220375   9.262  13.502  14.320
72848SOL     OW20376  11.209   1.994  12.236
72848SOL    HW120377  11.123   2.027  12.209
72848SOL    HW220378  11.251   1.969  12.154
72849SOL     OW20379  10.396  10.629  13.573
72849SOL    HW120380  10.388  10.705  13.515
72849SOL    HW220381  10.406  10.555  13.514
72850SOL     OW20382   8.956  14.384   7.124
72850SOL    HW120383   8.936  14.297   7.090
72850SOL    HW220384   8.948  14.442   7.049
72851SOL     OW20385   3.129   9.000   2.105
72851SOL    HW120386   3.185   8.997   2.182
72851SOL    HW220387   3.136   8.912   2.067
72852SOL     OW20388   1.913   1.731   6.647
72852SOL    HW120389   1.902   1.638   6.632
72852SOL    HW220390   1.972   1.737   6.723
72853SOL     OW20391   9.133   9.792   8.895
72853SOL    HW120392   9.194   9.860   8.924
72853SOL    HW220393   9.051   9.813   8.939
72854SOL     OW20394  11.014   5.413  11.683
72854SOL    HW120395  11.034   5.371  11.767
72854SOL    HW220396  11.035   5.347  11.617
72855SOL     OW20397   4.306   6.450  12.708
72855SOL    HW120398   4.310   6.399  12.628
72855SOL    HW220399   4.393   6.488  12.717
72856SOL     OW20400   6.967  11.578   2.672
72856SOL    HW120401   7.044  11.616   2.715
72856SOL    HW220402   6.998  11.495   2.636
72857SOL     OW20403   1.532   4.374   6.876
72857SOL    HW120404   1.613   4.408   6.838
72857SOL    HW220405   1.554   4.285   6.905
72858SOL     OW20406   1.021   2.507   8.746
72858SOL    HW120407   1.035   2.547   8.660
72858SOL    HW220408   0.944   2.552   8.781
72859SOL     OW20409   8.275   1.660  13.191
72859SOL    HW120410   8.225   1.741  13.175
72859SOL    HW220411   8.308   1.635  13.105
72860SOL     OW20412   1.004   2.547  10.635
72860SOL    HW120413   1.077   2.559  10.696
72860SOL    HW220414   1.044   2.509  10.557
72861SOL     OW20415   8.040   3.947  12.459
72861SOL    HW120416   8.098   3.986  12.394
72861SOL    HW220417   8.044   4.006  12.534
72862SOL     OW20418  13.386  12.956   9.792
72862SOL    HW120419  13.333  13.009   9.732
72862SOL    HW220420  13.422  12.886   9.737
72863SOL     OW20421   8.221   6.051   4.581
72863SOL    HW120422   8.190   6.019   4.496
72863SOL    HW220423   8.280   5.982   4.612
72864SOL     OW20424   8.955  12.800  12.762
72864SOL    HW120425   8.972  12.707  12.776
72864SOL    HW220426   8.986  12.817  12.673
72865SOL     OW20427   9.480  12.729   2.513
72865SOL    HW120428   9.572  12.714   2.534
72865SOL    HW220429   9.458  12.811   2.556
72866SOL     OW20430  10.271  12.445  13.439
72866SOL    HW120431  10.277  12.370  13.380
72866SOL    HW220432  10.181  12.443  13.471
72867SOL     OW20433  13.277  10.897  13.383
72867SOL    HW120434  13.280  10.847  13.302
72867SOL    HW220435  13.301  10.835  13.452
72868SOL     OW20436  10.418  14.195   8.528
72868SOL    HW120437  10.446  14.270   8.581
72868SOL    HW220438  10.370  14.140   8.590
72869SOL     OW20439   9.001  12.588  10.028
72869SOL    HW120440   8.944  12.664  10.022
72869SOL    HW220441   9.024  12.567   9.938
72870SOL     OW20442   9.619   7.450   4.951
72870SOL    HW120443   9.620   7.509   5.026
72870SOL    HW220444   9.586   7.367   4.986
72871SOL     OW20445   8.595   2.580   8.334
72871SOL    HW120446   8.649   2.505   8.360
72871SOL    HW220447   8.582   2.629   8.415
72872SOL     OW20448   7.149   7.257  11.827
72872SOL    HW120449   7.112   7.275  11.913
72872SOL    HW220450   7.124   7.333  11.774
72873SOL     OW20451  14.044   2.568  13.144
72873SOL    HW120452  14.130   2.569  13.104
72873SOL    HW220453  14.060   2.587  13.237
72874SOL     OW20454   2.215   0.852   5.392
72874SOL    HW120455   2.292   0.806   5.424
72874SOL    HW220456   2.187   0.802   5.316
72875SOL     OW20457   0.659   0.248  10.936
72875SOL    HW120458   0.653   0.329  10.987
72875SOL    HW220459   0.593   0.191  10.974
72876SOL     OW20460   4.527   3.515   6.252
72876SOL    HW120461   4.478   3.596   6.237
72876SOL    HW220462   4.482   3.473   6.325
72877SOL     OW20463   9.733   3.478  14.509
72877SOL    HW120464   9.712   3.487  14.416
72877SOL    HW220465   9.813   3.529  14.521
72878SOL     OW20466  11.480   0.124  12.961
72878SOL    HW120467  11.403   0.157  13.008
72878SOL    HW220468  11.516   0.057  13.018
72879SOL     OW20469   7.406   5.803   0.002
72879SOL    HW120470   7.498   5.785   0.018
72879SOL    HW220471   7.362   5.779   0.084
72880SOL     OW20472  10.703   8.199   2.992
72880SOL    HW120473  10.754   8.118   2.988
72880SOL    HW220474  10.617   8.175   2.960
72881SOL     OW20475   1.051   3.833   4.353
72881SOL    HW120476   1.081   3.824   4.262
72881SOL    HW220477   1.101   3.907   4.387
72882SOL     OW20478  13.072   2.711   9.339
72882SOL    HW120479  13.108   2.681   9.255
72882SOL    HW220480  13.137   2.775   9.370
72883SOL     OW20481  14.820   7.286  14.253
72883SOL    HW120482   0.033   7.303  14.216
72883SOL    HW220483  14.825   7.196  14.286
72884SOL     OW20484   4.930   2.451   1.750
72884SOL    HW120485   4.986   2.383   1.787
72884SOL    HW220486   4.844   2.436   1.790
72885SOL     OW20487  14.085   8.530   7.008
72885SOL    HW120488  14.113   8.617   6.978
72885SOL    HW220489  14.167   8.482   7.019
72886SOL     OW20490  11.738   6.551   3.248
72886SOL    HW120491  11.752   6.456   3.243
72886SOL    HW220492  11.694   6.564   3.332
72887SOL     OW20493   1.714   7.305   3.989
72887SOL    HW120494   1.768   7.226   3.988
72887SOL    HW220495   1.638   7.283   3.935
72888SOL     OW20496   0.742   5.296   8.594
72888SOL    HW120497   0.783   5.219   8.635
72888SOL    HW220498   0.659   5.306   8.640
72889SOL     OW20499   2.899   5.310  12.022
72889SOL    HW120500   2.955   5.388  12.015
72889SOL    HW220501   2.925   5.269  12.104
72890SOL     OW20502   2.227  10.459   9.677
72890SOL    HW120503   2.142  10.455   9.721
72890SOL    HW220504   2.206  10.454   9.584
72891SOL     OW20505  10.715   1.929   9.533
72891SOL    HW120506  10.733   2.014   9.572
72891SOL    HW220507  10.735   1.940   9.440
72892SOL     OW20508  13.223   1.912  12.137
72892SOL    HW120509  13.179   1.857  12.202
72892SOL    HW220510  13.154   1.969  12.103
72893SOL     OW20511  13.493   8.147   0.023
72893SOL    HW120512  13.483   8.116  14.806
72893SOL    HW220513  13.587   8.139   0.040
72894SOL     OW20514   7.051   1.531   8.792
72894SOL    HW120515   7.005   1.466   8.740
72894SOL    HW220516   7.005   1.532   8.876
72895SOL     OW20517   7.768   5.413   0.507
72895SOL    HW120518   7.677   5.386   0.501
72895SOL    HW220519   7.817   5.341   0.467
72896SOL     OW20520  10.499  10.764   7.970
72896SOL    HW120521  10.571  10.781   8.031
72896SOL    HW220522  10.451  10.691   8.008
72897SOL     OW20523  10.587   5.090   0.915
72897SOL    HW120524  10.559   5.175   0.883
72897SOL    HW220525  10.508   5.036   0.912
72898SOL     OW20526  10.572   9.959  12.215
72898SOL    HW120527  10.614  10.042  12.238
72898SOL    HW220528  10.608   9.895  12.277
72899SOL     OW20529   0.264   3.443   4.756
72899SOL    HW120530   0.353   3.431   4.787
72899SOL    HW220531   0.243   3.534   4.779
72900SOL     OW20532  10.181   0.030   5.042
72900SOL    HW120533  10.255   0.030   5.103
72900SOL    HW220534  10.106   0.005   5.095
72901SOL     OW20535  11.123  14.495   3.928
72901SOL    HW120536  11.046  14.512   3.982
72901SOL    HW220537  11.166  14.580   3.920
72902SOL     OW20538   5.323   6.607   4.036
72902SOL    HW120539   5.292   6.519   4.014
72902SOL    HW220540   5.327   6.608   4.132
72903SOL     OW20541   4.569   6.642  12.139
72903SOL    HW120542   4.658   6.614  12.162
72903SOL    HW220543   4.566   6.735  12.162
72904SOL     OW20544   9.934   4.328   1.277
72904SOL    HW120545   9.847   4.298   1.302
72904SOL    HW220546   9.954   4.397   1.341
72905SOL     OW20547   7.899   8.589  14.006
72905SOL    HW120548   7.982   8.637  14.003
72905SOL    HW220549   7.859   8.605  13.920
72906SOL     OW20550   2.791  10.957   2.924
72906SOL    HW120551   2.726  10.991   2.986
72906SOL    HW220552   2.739  10.925   2.850
72907SOL     OW20553  13.137   3.321  14.171
72907SOL    HW120554  13.124   3.390  14.107
72907SOL    HW220555  13.191   3.256  14.126
72908SOL     OW20556   6.628   3.212   1.364
72908SOL    HW120557   6.537   3.183   1.370
72908SOL    HW220558   6.670   3.174   1.441
72909SOL     OW20559   0.998   1.696   1.611
72909SOL    HW120560   0.933   1.636   1.646
72909SOL    HW220561   0.952   1.745   1.543
72910SOL     OW20562  13.433   4.858   6.495
72910SOL    HW120563  13.429   4.897   6.582
72910SOL    HW220564  13.461   4.930   6.438
72911SOL     OW20565   3.425   3.347  11.293
72911SOL    HW120566   3.368   3.302  11.231
72911SOL    HW220567   3.486   3.396  11.239
72912SOL     OW20568  12.865  10.941  12.154
72912SOL    HW120569  12.808  10.904  12.086
72912SOL    HW220570  12.847  10.888  12.231
72913SOL     OW20571   4.228   0.272  10.864
72913SOL    HW120572   4.292   0.202  10.874
72913SOL    HW220573   4.221   0.311  10.951
72914SOL     OW20574   0.202  10.874  11.132
72914SOL    HW120575   0.263  10.807  11.165
72914SOL    HW220576   0.119  10.828  11.124
72915SOL     OW20577  14.164   2.353  11.927
72915SOL    HW120578  14.188   2.356  12.019
72915SOL    HW220579  14.143   2.261  11.911
72916SOL     OW20580   5.726   4.736   2.103
72916SOL    HW120581   5.704   4.771   2.189
72916SOL    HW220582   5.798   4.791   2.072
72917SOL     OW20583   7.702  14.812  14.565
72917SOL    HW120584   7.651  14.733  14.544
72917SOL    HW220585   7.792  14.781  14.574
72918SOL     OW20586   9.075   7.921  10.234
72918SOL    HW120587   9.091   7.978  10.309
72918SOL    HW220588   9.049   7.981  10.163
72919SOL     OW20589  13.070   9.318   8.662
72919SOL    HW120590  13.124   9.352   8.733
72919SOL    HW220591  13.104   9.360   8.583
72920SOL     OW20592   2.596  14.273   3.047
72920SOL    HW120593   2.578  14.185   3.014
72920SOL    HW220594   2.610  14.325   2.968
72921SOL     OW20595   3.038   8.154  14.018
72921SOL    HW120596   2.993   8.232  14.051
72921SOL    HW220597   3.094   8.127  14.090
72922SOL     OW20598   2.547   5.988   9.679
72922SOL    HW120599   2.589   5.950   9.757
72922SOL    HW220600   2.556   6.082   9.690
72923SOL     OW20601   7.677  14.695   9.817
72923SOL    HW120602   7.732  14.671   9.742
72923SOL    HW220603   7.602  14.740   9.779
72924SOL     OW20604   7.437   9.883   4.632
72924SOL    HW120605   7.523   9.854   4.663
72924SOL    HW220606   7.402   9.935   4.704
72925SOL     OW20607   9.764   3.411   2.551
72925SOL    HW120608   9.727   3.336   2.506
72925SOL    HW220609   9.702   3.430   2.622
72926SOL     OW20610   9.357   8.447  10.291
72926SOL    HW120611   9.322   8.440  10.379
72926SOL    HW220612   9.398   8.362  10.275
72927SOL     OW20613   7.687  12.995   2.619
72927SOL    HW120614   7.776  12.975   2.591
72927SOL    HW220615   7.632  12.957   2.551
72928SOL     OW20616   5.843   4.161   4.825
72928SOL    HW120617   5.762   4.111   4.812
72928SOL    HW220618   5.852   4.167   4.921
72929SOL     OW20619   2.224   4.022   4.068
72929SOL    HW120620   2.297   4.056   4.018
72929SOL    HW220621   2.262   3.996   4.152
72930SOL     OW20622  10.695   5.144   8.545
72930SOL    HW120623  10.680   5.238   8.546
72930SOL    HW220624  10.776   5.131   8.595
72931SOL     OW20625  14.614   5.087  12.005
72931SOL    HW120626  14.648   5.120  11.922
72931SOL    HW220627  14.617   5.163  12.064
72932SOL     OW20628  10.757   2.679   7.611
72932SOL    HW120629  10.737   2.681   7.517
72932SOL    HW220630  10.824   2.747   7.622
72933SOL     OW20631   9.197   6.176   4.884
72933SOL    HW120632   9.199   6.091   4.928
72933SOL    HW220633   9.247   6.162   4.804
72934SOL     OW20634   6.886  14.278  11.125
72934SOL    HW120635   6.942  14.201  11.131
72934SOL    HW220636   6.946  14.349  11.103
72935SOL     OW20637  10.171  13.038   7.949
72935SOL    HW120638  10.117  13.067   7.875
72935SOL    HW220639  10.147  13.097   8.020
72936SOL     OW20640   6.332   2.363   3.441
72936SOL    HW120641   6.321   2.425   3.513
72936SOL    HW220642   6.243   2.338   3.416
72937SOL     OW20643   0.401  13.345   6.275
72937SOL    HW120644   0.322  13.345   6.328
72937SOL    HW220645   0.369  13.346   6.184
72938SOL     OW20646   3.359   8.082  11.327
72938SOL    HW120647   3.282   8.069  11.383
72938SOL    HW220648   3.333   8.046  11.242
72939SOL     OW20649  10.558   0.841  13.712
72939SOL    HW120650  10.601   0.780  13.772
72939SOL    HW220651  10.568   0.927  13.753
72940SOL     OW20652   4.573   1.103   4.774
72940SOL    HW120653   4.518   1.038   4.730
72940SOL    HW220654   4.576   1.074   4.865
72941SOL     OW20655  14.848   7.816   8.928
72941SOL    HW120656  14.795   7.850   9.000
72941SOL    HW220657  14.798   7.742   8.893
72942SOL     OW20658   1.017   8.550   7.816
72942SOL    HW120659   1.044   8.469   7.772
72942SOL    HW220660   1.098   8.589   7.847
72943SOL     OW20661  11.924   5.999  14.633
72943SOL    HW120662  11.979   5.986  14.710
72943SOL    HW220663  11.934   6.092  14.612
72944SOL     OW20664  13.311   4.873   7.251
72944SOL    HW120665  13.240   4.826   7.208
72944SOL    HW220666  13.288   4.966   7.242
72945SOL     OW20667   7.681   3.376  10.728
72945SOL    HW120668   7.604   3.322  10.708
72945SOL    HW220669   7.750   3.339  10.672
72946SOL     OW20670   2.791   4.959  11.223
72946SOL    HW120671   2.795   4.888  11.159
72946SOL    HW220672   2.878   4.960  11.263
72947SOL     OW20673   0.437  12.867  12.298
72947SOL    HW120674   0.523  12.908  12.296
72947SOL    HW220675   0.405  12.882  12.387
72948SOL     OW20676   1.978   6.503  10.273
72948SOL    HW120677   1.955   6.596  10.280
72948SOL    HW220678   2.000   6.491  10.181
72949SOL     OW20679   7.840   3.531  10.338
72949SOL    HW120680   7.799   3.447  10.362
72949SOL    HW220681   7.919   3.506  10.291
72950SOL     OW20682   8.771   7.944   8.071
72950SOL    HW120683   8.857   7.940   8.030
72950SOL    HW220684   8.783   7.998   8.149
72951SOL     OW20685  14.825  14.712  11.888
72951SOL    HW120686  14.745  14.740  11.932
72951SOL    HW220687  14.810  14.732  11.795
72952SOL     OW20688   0.511   7.634   1.620
72952SOL    HW120689   0.464   7.707   1.661
72952SOL    HW220690   0.601   7.666   1.611
72953SOL     OW20691  14.766   2.603  13.675
72953SOL    HW120692  14.815   2.552  13.611
72953SOL    HW220693  14.806   2.690  13.673
72954SOL     OW20694  12.456  12.615   5.866
72954SOL    HW120695  12.429  12.705   5.883
72954SOL    HW220696  12.543  12.608   5.904
72955SOL     OW20697  12.418   7.845  14.834
72955SOL    HW120698  12.450   7.845  14.744
72955SOL    HW220699  12.397   7.754  14.852
72956SOL     OW20700   1.013   0.899   0.438
72956SOL    HW120701   1.036   0.905   0.345
72956SOL    HW220702   0.917   0.900   0.439
72957SOL     OW20703   5.747   6.523   3.864
72957SOL    HW120704   5.672   6.564   3.820
72957SOL    HW220705   5.723   6.431   3.874
72958SOL     OW20706   5.748   7.542  10.726
72958SOL    HW120707   5.691   7.583  10.790
72958SOL    HW220708   5.819   7.606  10.713
72959SOL     OW20709   6.857   2.556   4.687
72959SOL    HW120710   6.785   2.512   4.732
72959SOL    HW220711   6.934   2.538   4.741
72960SOL     OW20712   4.653   0.076   1.664
72960SOL    HW120713   4.604   0.151   1.699
72960SOL    HW220714   4.619   0.064   1.575
72961SOL     OW20715   2.163   6.949  11.003
72961SOL    HW120716   2.100   6.878  11.001
72961SOL    HW220717   2.248   6.906  10.996
72962SOL     OW20718   2.807   7.139   3.682
72962SOL    HW120719   2.800   7.125   3.776
72962SOL    HW220720   2.720   7.122   3.648
72963SOL     OW20721  13.058   2.242   6.021
72963SOL    HW120722  13.051   2.162   6.072
72963SOL    HW220723  13.066   2.212   5.930
72964SOL     OW20724   1.048   6.637   2.669
72964SOL    HW120725   1.028   6.720   2.712
72964SOL    HW220726   1.098   6.587   2.733
72965SOL     OW20727   7.485   8.621   9.338
72965SOL    HW120728   7.541   8.567   9.282
72965SOL    HW220729   7.512   8.711   9.318
72966SOL     OW20730   7.915   0.838   5.998
72966SOL    HW120731   7.825   0.850   6.030
72966SOL    HW220732   7.912   0.758   5.947
72967SOL     OW20733   0.424   1.066  12.796
72967SOL    HW120734   0.457   1.063  12.886
72967SOL    HW220735   0.353   1.001  12.794
72968SOL     OW20736   8.885   1.277   7.127
72968SOL    HW120737   8.886   1.295   7.221
72968SOL    HW220738   8.959   1.327   7.092
72969SOL     OW20739  11.076   0.083  13.842
72969SOL    HW120740  11.073   0.087  13.938
72969SOL    HW220741  11.017   0.012  13.819
72970SOL     OW20742   5.746   0.870   0.435
72970SOL    HW120743   5.812   0.839   0.497
72970SOL    HW220744   5.664   0.868   0.486
72971SOL     OW20745   3.004   6.226   1.502
72971SOL    HW120746   2.977   6.136   1.521
72971SOL    HW220747   3.087   6.236   1.550
72972SOL     OW20748   3.342   2.877   2.453
72972SOL    HW120749   3.377   2.935   2.521
72972SOL    HW220750   3.343   2.930   2.374
72973SOL     OW20751  10.135   8.632   3.651
72973SOL    HW120752  10.083   8.711   3.666
72973SOL    HW220753  10.196   8.656   3.581
72974SOL     OW20754   9.628   0.794  13.336
72974SOL    HW120755   9.556   0.782  13.397
72974SOL    HW220756   9.707   0.796  13.391
72975SOL     OW20757   3.980   9.358   8.713
72975SOL    HW120758   3.987   9.302   8.791
72975SOL    HW220759   4.058   9.414   8.717
72976SOL     OW20760  13.867   5.593   9.022
72976SOL    HW120761  13.865   5.601   8.927
72976SOL    HW220762  13.860   5.498   9.038
72977SOL     OW20763   8.650   5.606   6.266
72977SOL    HW120764   8.588   5.626   6.196
72977SOL    HW220765   8.655   5.510   6.266
72978SOL     OW20766   5.710   0.048   9.116
72978SOL    HW120767   5.780  14.871   9.159
72978SOL    HW220768   5.732   0.139   9.133
72979SOL     OW20769   3.623   6.080   2.725
72979SOL    HW120770   3.712   6.111   2.740
72979SOL    HW220771   3.572   6.117   2.797
72980SOL     OW20772   1.391   6.950  13.256
72980SOL    HW120773   1.345   6.885  13.203
72980SOL    HW220774   1.338   6.959  13.335
72981SOL     OW20775   8.225   6.467   6.224
72981SOL    HW120776   8.193   6.549   6.261
72981SOL    HW220777   8.266   6.421   6.298
72982SOL     OW20778  11.014  10.338   5.776
72982SOL    HW120779  11.109  10.335   5.766
72982SOL    HW220780  10.999  10.411   5.836
72983SOL     OW20781   8.468   5.008   0.756
72983SOL    HW120782   8.441   5.005   0.847
72983SOL    HW220783   8.444   4.922   0.721
72984SOL     OW20784   0.510   8.194  12.249
72984SOL    HW120785   0.463   8.198  12.165
72984SOL    HW220786   0.540   8.103  12.255
72985SOL     OW20787   2.966   0.019   9.211
72985SOL    HW120788   2.952  14.799   9.191
72985SOL    HW220789   2.886   0.062   9.184
72986SOL     OW20790   8.566   7.770   0.455
72986SOL    HW120791   8.479   7.799   0.427
72986SOL    HW220792   8.625   7.840   0.427
72987SOL     OW20793  14.792   3.884   3.529
72987SOL    HW120794  14.718   3.945   3.535
72987SOL    HW220795  14.836   3.892   3.614
72988SOL     OW20796   2.335   3.967  14.740
72988SOL    HW120797   2.259   3.972  14.683
72988SOL    HW220798   2.378   3.885  14.715
72989SOL     OW20799   6.903   6.607   3.135
72989SOL    HW120800   6.943   6.554   3.205
72989SOL    HW220801   6.865   6.542   3.076
72990SOL     OW20802   7.868   5.416  11.453
72990SOL    HW120803   7.851   5.376  11.368
72990SOL    HW220804   7.947   5.469  11.439
72991SOL     OW20805   9.314   7.439   3.691
72991SOL    HW120806   9.345   7.484   3.612
72991SOL    HW220807   9.370   7.473   3.761
72992SOL     OW20808   4.098   5.841   7.280
72992SOL    HW120809   4.072   5.826   7.371
72992SOL    HW220810   4.180   5.889   7.286
72993SOL     OW20811   1.745   1.994   3.061
72993SOL    HW120812   1.671   1.988   3.000
72993SOL    HW220813   1.816   1.946   3.018
72994SOL     OW20814   0.615   0.565   1.174
72994SOL    HW120815   0.590   0.649   1.136
72994SOL    HW220816   0.533   0.531   1.211
72995SOL     OW20817   7.898   5.114  14.661
72995SOL    HW120818   7.946   5.097  14.580
72995SOL    HW220819   7.949   5.069  14.729
72996SOL     OW20820   1.075  10.301   0.987
72996SOL    HW120821   1.153  10.346   0.955
72996SOL    HW220822   1.008  10.370   0.992
72997SOL     OW20823   1.753  13.335   2.561
72997SOL    HW120824   1.839  13.323   2.602
72997SOL    HW220825   1.696  13.364   2.632
72998SOL     OW20826  12.064   6.892   3.231
72998SOL    HW120827  12.136   6.941   3.270
72998SOL    HW220828  12.062   6.809   3.280
72999SOL     OW20829  10.505   3.049  14.388
72999SOL    HW120830  10.475   2.996  14.314
72999SOL    HW220831  10.532   3.132  14.349
73000SOL     OW20832  12.820   4.150   7.373
73000SOL    HW120833  12.810   4.060   7.401
73000SOL    HW220834  12.731   4.180   7.355
73001SOL     OW20835   2.419  13.464   1.883
73001SOL    HW120836   2.358  13.395   1.859
73001SOL    HW220837   2.492  13.454   1.822
73002SOL     OW20838   4.152   5.400  10.412
73002SOL    HW120839   4.145   5.496  10.409
73002SOL    HW220840   4.079   5.369  10.359
73003SOL     OW20841   2.325   6.127   2.803
73003SOL    HW120842   2.336   6.195   2.869
73003SOL    HW220843   2.231   6.120   2.789
73004SOL     OW20844   5.670   5.851  10.975
73004SOL    HW120845   5.582   5.844  11.011
73004SOL    HW220846   5.658   5.886  10.887
73005SOL     OW20847  13.711   0.664   2.620
73005SOL    HW120848  13.718   0.676   2.715
73005SOL    HW220849  13.684   0.572   2.610
73006SOL     OW20850   1.652   0.105  10.273
73006SOL    HW120851   1.723   0.159  10.237
73006SOL    HW220852   1.573   0.140  10.233
73007SOL     OW20853   6.023   7.493  11.372
73007SOL    HW120854   5.964   7.422  11.347
73007SOL    HW220855   6.069   7.515  11.291
73008SOL     OW20856   8.914   5.806   8.948
73008SOL    HW120857   8.916   5.747   8.873
73008SOL    HW220858   8.953   5.887   8.917
73009SOL     OW20859  11.042   1.205   4.256
73009SOL    HW120860  11.091   1.124   4.268
73009SOL    HW220861  10.971   1.200   4.320
73010SOL     OW20862   5.326  10.475   4.820
73010SOL    HW120863   5.397  10.499   4.761
73010SOL    HW220864   5.310  10.382   4.802
73011SOL     OW20865  14.821  12.437   9.496
73011SOL    HW120866  14.773  12.377   9.438
73011SOL    HW220867  14.830  12.517   9.445
73012SOL     OW20868   7.790   7.740   2.329
73012SOL    HW120869   7.733   7.695   2.267
73012SOL    HW220870   7.734   7.806   2.370
73013SOL     OW20871   2.209  12.432   8.963
73013SOL    HW120872   2.189  12.511   8.913
73013SOL    HW220873   2.305  12.428   8.965
73014SOL     OW20874   0.109   1.255   8.053
73014SOL    HW120875   0.038   1.319   8.059
73014SOL    HW220876   0.109   1.228   7.961
73015SOL     OW20877   6.450   5.279   7.668
73015SOL    HW120878   6.410   5.307   7.750
73015SOL    HW220879   6.470   5.360   7.621
73016SOL     OW20880   4.250  10.611  12.685
73016SOL    HW120881   4.238  10.646  12.773
73016SOL    HW220882   4.341  10.580  12.684
73017SOL     OW20883  12.059  13.498  14.307
73017SOL    HW120884  12.044  13.584  14.269
73017SOL    HW220885  11.987  13.444  14.274
73018SOL     OW20886   8.724   0.194   3.005
73018SOL    HW120887   8.781   0.234   2.939
73018SOL    HW220888   8.733   0.100   2.990
73019SOL     OW20889  13.396  14.025  14.460
73019SOL    HW120890  13.307  13.990  14.466
73019SOL    HW220891  13.441  13.992  14.537
73020SOL     OW20892  10.261  11.328  11.661
73020SOL    HW120893  10.178  11.374  11.655
73020SOL    HW220894  10.275  11.315  11.755
73021SOL     OW20895   3.588  10.811  10.999
73021SOL    HW120896   3.623  10.850  11.079
73021SOL    HW220897   3.656  10.750  10.971
73022SOL     OW20898   8.994   4.177  11.874
73022SOL    HW120899   9.026   4.096  11.914
73022SOL    HW220900   9.050   4.189  11.797
73023SOL     OW20901   6.051   1.763   7.103
73023SOL    HW120902   6.096   1.799   7.179
73023SOL    HW220903   6.121   1.742   7.041
73024SOL     OW20904   3.164   8.720  14.846
73024SOL    HW120905   3.200   8.683   0.054
73024SOL    HW220906   3.172   8.650  14.782
73025SOL     OW20907   7.588   5.781   6.796
73025SOL    HW120908   7.508   5.833   6.793
73025SOL    HW220909   7.561   5.697   6.834
73026SOL     OW20910   2.133   0.591  10.057
73026SOL    HW120911   2.054   0.537  10.060
73026SOL    HW220912   2.195   0.540  10.004
73027SOL     OW20913   6.156   3.087   4.459
73027SOL    HW120914   6.178   3.180   4.471
73027SOL    HW220915   6.063   3.082   4.480
73028SOL     OW20916   7.278   8.461  11.945
73028SOL    HW120917   7.225   8.540  11.935
73028SOL    HW220918   7.229   8.406  12.006
73029SOL     OW20919  11.484   8.952  11.568
73029SOL    HW120920  11.415   8.889  11.587
73029SOL    HW220921  11.486   8.958  11.473
73030SOL     OW20922   7.071   3.631   4.397
73030SOL    HW120923   7.157   3.599   4.423
73030SOL    HW220924   7.023   3.639   4.479
73031SOL     OW20925  10.122   4.490  10.098
73031SOL    HW120926  10.194   4.553  10.089
73031SOL    HW220927  10.132   4.432  10.023
73032SOL     OW20928  10.044  12.190  14.400
73032SOL    HW120929  10.123  12.243  14.390
73032SOL    HW220930  10.038  12.140  14.318
73033SOL     OW20931   2.407   7.085   6.528
73033SOL    HW120932   2.407   7.118   6.618
73033SOL    HW220933   2.436   6.994   6.535
73034SOL     OW20934   7.558   8.285   3.132
73034SOL    HW120935   7.498   8.249   3.197
73034SOL    HW220936   7.645   8.272   3.170
73035SOL     OW20937  13.050   5.769  13.353
73035SOL    HW120938  13.103   5.722  13.288
73035SOL    HW220939  12.983   5.813  13.301
73036SOL     OW20940   6.861   5.503   1.036
73036SOL    HW120941   6.792   5.551   1.083
73036SOL    HW220942   6.916   5.571   0.999
73037SOL     OW20943   0.360  14.346   4.522
73037SOL    HW120944   0.423  14.327   4.592
73037SOL    HW220945   0.282  14.297   4.546
73038SOL     OW20946   5.933   3.657   9.673
73038SOL    HW120947   6.017   3.669   9.629
73038SOL    HW220948   5.933   3.722   9.744
73039SOL     OW20949   8.732  13.898  14.410
73039SOL    HW120950   8.668  13.859  14.470
73039SOL    HW220951   8.748  13.830  14.345
73040SOL     OW20952  14.099   1.564   2.385
73040SOL    HW120953  14.097   1.487   2.328
73040SOL    HW220954  14.038   1.625   2.344
73041SOL     OW20955  14.858   5.407  12.994
73041SOL    HW120956   0.012   5.421  13.085
73041SOL    HW220957  14.847   5.494  12.958
73042SOL     OW20958   7.463  13.446   9.127
73042SOL    HW120959   7.540  13.470   9.178
73042SOL    HW220960   7.426  13.371   9.173
73043SOL     OW20961   4.831  11.677   0.541
73043SOL    HW120962   4.914  11.654   0.499
73043SOL    HW220963   4.853  11.749   0.600
73044SOL     OW20964   9.699  10.319   0.220
73044SOL    HW120965   9.621  10.375   0.221
73044SOL    HW220966   9.708  10.290   0.311
73045SOL     OW20967   9.907   9.580   3.150
73045SOL    HW120968  10.000   9.560   3.142
73045SOL    HW220969   9.883   9.548   3.237
73046SOL     OW20970   7.273   0.329  14.621
73046SOL    HW120971   7.321   0.320  14.538
73046SOL    HW220972   7.309   0.261  14.677
73047SOL     OW20973   5.531  13.228   5.937
73047SOL    HW120974   5.612  13.180   5.924
73047SOL    HW220975   5.462  13.162   5.934
73048SOL     OW20976  13.008   4.628   6.572
73048SOL    HW120977  12.984   4.546   6.528
73048SOL    HW220978  12.929   4.681   6.569
73049SOL     OW20979   7.935  12.003   1.282
73049SOL    HW120980   7.927  11.951   1.202
73049SOL    HW220981   7.985  11.948   1.342
73050SOL     OW20982  14.126  13.459   6.161
73050SOL    HW120983  14.130  13.549   6.128
73050SOL    HW220984  14.200  13.415   6.119
73051SOL     OW20985   0.018   3.331   0.827
73051SOL    HW120986   0.091   3.282   0.790
73051SOL    HW220987  14.814   3.278   0.806
73052SOL     OW20988  10.668   0.773   5.052
73052SOL    HW120989  10.576   0.795   5.063
73052SOL    HW220990  10.695   0.819   4.972
73053SOL     OW20991   9.519   2.938   9.769
73053SOL    HW120992   9.463   2.872   9.728
73053SOL    HW220993   9.463   3.014   9.780
73054SOL     OW20994  13.072  10.887  13.843
73054SOL    HW120995  13.113  10.807  13.808
73054SOL    HW220996  12.999  10.855  13.896
73055SOL     OW20997   8.455  10.353  12.693
73055SOL    HW120998   8.481  10.352  12.785
73055SOL    HW220999   8.439  10.446  12.674
73056SOL     OW21000  12.213   3.312  11.097
73056SOL    HW121001  12.143   3.313  11.032
73056SOL    HW221002  12.177   3.357  11.173
73057SOL     OW21003   1.614  10.309   2.899
73057SOL    HW121004   1.615  10.380   2.963
73057SOL    HW221005   1.670  10.241   2.937
73058SOL     OW21006   1.121   8.986  14.726
73058SOL    HW121007   1.101   8.896  14.700
73058SOL    HW221008   1.135   9.032  14.644
73059SOL     OW21009   3.953  11.174   7.652
73059SOL    HW121010   3.882  11.161   7.714
73059SOL    HW221011   3.909  11.189   7.568
73060SOL     OW21012   6.278  13.499  10.004
73060SOL    HW121013   6.290  13.406  10.024
73060SOL    HW221014   6.187  13.516  10.028
73061SOL     OW21015   5.541   2.794  13.667
73061SOL    HW121016   5.594   2.846  13.608
73061SOL    HW221017   5.488   2.738  13.609
73062SOL     OW21018  12.665   5.195   1.597
73062SOL    HW121019  12.644   5.136   1.669
73062SOL    HW221020  12.659   5.283   1.635
73063SOL     OW21021  13.772   8.915  10.934
73063SOL    HW121022  13.805   9.005  10.933
73063SOL    HW221023  13.842   8.863  10.894
73064SOL     OW21024   0.619   4.244  13.255
73064SOL    HW121025   0.589   4.164  13.299
73064SOL    HW221026   0.569   4.246  13.173
73065SOL     OW21027   8.099   3.354   9.241
73065SOL    HW121028   8.092   3.447   9.219
73065SOL    HW221029   8.071   3.348   9.332
73066SOL     OW21030  12.498   5.764   9.476
73066SOL    HW121031  12.546   5.681   9.466
73066SOL    HW221032  12.531   5.820   9.406
73067SOL     OW21033   7.089   8.179  14.474
73067SOL    HW121034   7.036   8.243  14.521
73067SOL    HW221035   7.074   8.198  14.381
73068SOL     OW21036   9.353   2.176   6.135
73068SOL    HW121037   9.407   2.193   6.058
73068SOL    HW221038   9.279   2.125   6.102
73069SOL     OW21039   9.678   8.532   4.741
73069SOL    HW121040   9.605   8.554   4.684
73069SOL    HW221041   9.658   8.575   4.824
73070SOL     OW21042   4.560  10.422   5.698
73070SOL    HW121043   4.602  10.365   5.762
73070SOL    HW221044   4.520  10.491   5.751
73071SOL     OW21045   6.247   3.753   3.404
73071SOL    HW121046   6.317   3.809   3.370
73071SOL    HW221047   6.268   3.666   3.372
73072SOL     OW21048   3.533   3.915   9.179
73072SOL    HW121049   3.460   3.858   9.156
73072SOL    HW221050   3.608   3.879   9.132
73073SOL     OW21051  11.534  10.468   7.472
73073SOL    HW121052  11.441  10.446   7.483
73073SOL    HW221053  11.539  10.561   7.495
73074SOL     OW21054   6.702  10.023   8.148
73074SOL    HW121055   6.697  10.072   8.230
73074SOL    HW221056   6.728   9.935   8.176
73075SOL     OW21057   8.542   7.253   7.523
73075SOL    HW121058   8.568   7.208   7.604
73075SOL    HW221059   8.506   7.337   7.552
73076SOL     OW21060   0.632  13.636   3.122
73076SOL    HW121061   0.651  13.550   3.084
73076SOL    HW221062   0.668  13.631   3.211
73077SOL     OW21063   0.096   6.168   4.577
73077SOL    HW121064   0.057   6.096   4.627
73077SOL    HW221065   0.169   6.127   4.530
73078SOL     OW21066   6.727  12.756   9.874
73078SOL    HW121067   6.673  12.678   9.888
73078SOL    HW221068   6.719  12.806   9.955
73079SOL     OW21069  12.373   8.645   2.180
73079SOL    HW121070  12.352   8.552   2.190
73079SOL    HW221071  12.294   8.691   2.208
73080SOL     OW21072  11.661  14.194   5.993
73080SOL    HW121073  11.594  14.243   5.946
73080SOL    HW221074  11.744  14.225   5.956
73081SOL     OW21075  12.362  14.208   8.301
73081SOL    HW121076  12.297  14.181   8.365
73081SOL    HW221077  12.337  14.162   8.221
73082SOL     OW21078   6.922   5.569  10.111
73082SOL    HW121079   6.848   5.518  10.080
73082SOL    HW221080   6.938   5.633  10.042
73083SOL     OW21081   0.252   8.566  14.083
73083SOL    HW121082   0.238   8.557  14.177
73083SOL    HW221083   0.240   8.660  14.065
73084SOL     OW21084  14.013  14.642  14.679
73084SOL    HW121085  14.050  14.632  14.767
73084SOL    HW221086  13.918  14.640  14.692
73085SOL     OW21087  11.523  10.199   9.490
73085SOL    HW121088  11.514  10.104   9.499
73085SOL    HW221089  11.604  10.211   9.441
73086SOL     OW21090   7.283  11.726  10.973
73086SOL    HW121091   7.354  11.666  10.952
73086SOL    HW221092   7.322  11.813  10.965
73087SOL     OW21093   4.764   9.627  12.557
73087SOL    HW121094   4.838   9.602  12.501
73087SOL    HW221095   4.725   9.702  12.514
73088SOL     OW21096  13.981   1.232   9.460
73088SOL    HW121097  14.066   1.275   9.465
73088SOL    HW221098  13.945   1.239   9.548
73089SOL     OW21099   7.047   0.165  11.032
73089SOL    HW121100   6.985   0.232  11.059
73089SOL    HW221101   7.097   0.206  10.961
73090SOL     OW21102  13.834   2.027  12.580
73090SOL    HW121103  13.780   1.981  12.516
73090SOL    HW221104  13.913   2.051  12.531
73091SOL     OW21105   6.037   1.228   8.311
73091SOL    HW121106   6.089   1.288   8.364
73091SOL    HW221107   5.975   1.189   8.372
73092SOL     OW21108   0.628   2.649   8.283
73092SOL    HW121109   0.636   2.733   8.238
73092SOL    HW221110   0.575   2.669   8.360
73093SOL     OW21111   8.805   5.041   9.378
73093SOL    HW121112   8.867   5.062   9.308
73093SOL    HW221113   8.797   5.122   9.428
73094SOL     OW21114   8.092   1.235   6.280
73094SOL    HW121115   8.141   1.317   6.267
73094SOL    HW221116   8.159   1.168   6.290
73095SOL     OW21117   1.040   9.682   2.116
73095SOL    HW121118   0.984   9.638   2.052
73095SOL    HW221119   1.107   9.617   2.139
73096SOL     OW21120   5.423  11.087   5.472
73096SOL    HW121121   5.487  11.018   5.456
73096SOL    HW221122   5.373  11.093   5.391
73097SOL     OW21123   4.741   6.278   9.728
73097SOL    HW121124   4.831   6.306   9.742
73097SOL    HW221125   4.700   6.285   9.814
73098SOL     OW21126   7.979  13.008  10.949
73098SOL    HW121127   7.995  12.948  11.022
73098SOL    HW221128   7.952  13.090  10.990
73099SOL     OW21129   5.930   5.871  12.640
73099SOL    HW121130   5.960   5.899  12.553
73099SOL    HW221131   5.852   5.819  12.624
73100SOL     OW21132  11.105   3.943  11.004
73100SOL    HW121133  11.069   3.856  10.984
73100SOL    HW221134  11.199   3.934  10.988
73101SOL     OW21135  10.961   7.309   4.849
73101SOL    HW121136  10.903   7.378   4.816
73101SOL    HW221137  11.024   7.294   4.779
73102SOL     OW21138  14.735   5.908  12.297
73102SOL    HW121139  14.824   5.935  12.321
73102SOL    HW221140  14.742   5.814  12.280
73103SOL     OW21141   4.157   1.233   7.938
73103SOL    HW121142   4.214   1.158   7.921
73103SOL    HW221143   4.151   1.238   8.034
73104SOL     OW21144   9.286  11.415   4.054
73104SOL    HW121145   9.245  11.421   4.140
73104SOL    HW221146   9.378  11.394   4.072
73105SOL     OW21147  11.070   5.212  12.501
73105SOL    HW121148  11.004   5.278  12.481
73105SOL    HW221149  11.085   5.167  12.417
73106SOL     OW21150   6.972   6.924  14.417
73106SOL    HW121151   7.024   6.846  14.396
73106SOL    HW221152   6.893   6.915  14.362
73107SOL     OW21153   5.794   1.991   7.955
73107SOL    HW121154   5.863   1.927   7.973
73107SOL    HW221155   5.716   1.938   7.941
73108SOL     OW21156  13.694  13.118   9.677
73108SOL    HW121157  13.631  13.110   9.748
73108SOL    HW221158  13.756  13.046   9.691
73109SOL     OW21159   7.608   2.054   4.672
73109SOL    HW121160   7.647   2.092   4.593
73109SOL    HW221161   7.678   2.059   4.738
73110SOL     OW21162   4.511   2.019  12.245
73110SOL    HW121163   4.555   1.969  12.314
73110SOL    HW221164   4.421   2.030  12.277
73111SOL     OW21165  13.725   4.424   2.736
73111SOL    HW121166  13.757   4.509   2.704
73111SOL    HW221167  13.802   4.368   2.736
73112SOL     OW21168   9.186   2.828  14.218
73112SOL    HW121169   9.252   2.828  14.148
73112SOL    HW221170   9.119   2.767  14.188
73113SOL     OW21171   0.755  13.775   7.420
73113SOL    HW121172   0.757  13.855   7.473
73113SOL    HW221173   0.845  13.767   7.386
73114SOL     OW21174   2.652  10.265   9.106
73114SOL    HW121175   2.568  10.224   9.085
73114SOL    HW221176   2.717  10.199   9.082
73115SOL     OW21177   7.841   4.068  12.738
73115SOL    HW121178   7.843   4.151  12.786
73115SOL    HW221179   7.934   4.047  12.723
73116SOL     OW21180  14.171   1.467   3.924
73116SOL    HW121181  14.169   1.558   3.895
73116SOL    HW221182  14.144   1.470   4.016
73117SOL     OW21183   0.683   3.226  12.369
73117SOL    HW121184   0.710   3.239  12.460
73117SOL    HW221185   0.587   3.230  12.371
73118SOL     OW21186   0.371  14.344  14.818
73118SOL    HW121187   0.451  14.370  14.772
73118SOL    HW221188   0.391  14.259  14.856
73119SOL     OW21189   9.229   7.887   6.855
73119SOL    HW121190   9.280   7.818   6.812
73119SOL    HW221191   9.185   7.933   6.783
73120SOL     OW21192  10.108  14.771   5.645
73120SOL    HW121193  10.175  14.762   5.577
73120SOL    HW221194  10.155  14.805   5.720
73121SOL     OW21195  14.867  10.595   1.529
73121SOL    HW121196  14.828  10.524   1.580
73121SOL    HW221197   0.056  10.637   1.589
73122SOL     OW21198   7.148   8.764   6.101
73122SOL    HW121199   7.065   8.801   6.131
73122SOL    HW221200   7.145   8.772   6.006
73123SOL     OW21201  10.775   8.228   9.942
73123SOL    HW121202  10.714   8.254  10.011
73123SOL    HW221203  10.861   8.251   9.975
73124SOL     OW21204   6.608   7.427   0.533
73124SOL    HW121205   6.623   7.516   0.501
73124SOL    HW221206   6.589   7.377   0.454
73125SOL     OW21207  14.402   1.904   9.951
73125SOL    HW121208  14.344   1.832   9.978
73125SOL    HW221209  14.342   1.971   9.918
73126SOL     OW21210   3.478   9.369  12.633
73126SOL    HW121211   3.415   9.432  12.598
73126SOL    HW221212   3.438   9.283  12.617
73127SOL     OW21213   0.186  10.123   3.795
73127SOL    HW121214   0.194  10.204   3.846
73127SOL    HW221215   0.157  10.151   3.709
73128SOL     OW21216   7.143   5.513  10.280
73128SOL    HW121217   7.191   5.443  10.235
73128SOL    HW221218   7.075   5.540  10.219
73129SOL     OW21219  11.385  12.798   1.198
73129SOL    HW121220  11.341  12.862   1.142
73129SOL    HW221221  11.461  12.845   1.233
73130SOL     OW21222   4.258  14.805  12.549
73130SOL    HW121223   4.168  14.811  12.581
73130SOL    HW221224   4.250  14.813  12.454
73131SOL     OW21225  10.838  10.401  13.020
73131SOL    HW121226  10.804  10.490  13.014
73131SOL    HW221227  10.927  10.407  12.987
73132SOL     OW21228  12.057  13.892   9.868
73132SOL    HW121229  11.999  13.851   9.932
73132SOL    HW221230  12.073  13.824   9.802
73133SOL     OW21231   6.640  14.742   6.269
73133SOL    HW121232   6.700  14.810   6.301
73133SOL    HW221233   6.696  14.669   6.246
73134SOL     OW21234   3.472  13.442   0.007
73134SOL    HW121235   3.544  13.498   0.034
73134SOL    HW221236   3.435  13.485  14.803
73135SOL     OW21237  14.251  14.720  13.240
73135SOL    HW121238  14.301  14.739  13.320
73135SOL    HW221239  14.159  14.724  13.268
73136SOL     OW21240   1.568   9.898  13.359
73136SOL    HW121241   1.592   9.930  13.272
73136SOL    HW221242   1.643   9.844  13.387
73137SOL     OW21243   6.865   6.635   5.855
73137SOL    HW121244   6.773   6.661   5.846
73137SOL    HW221245   6.862   6.540   5.869
73138SOL     OW21246   6.164   4.314   6.416
73138SOL    HW121247   6.146   4.290   6.507
73138SOL    HW221248   6.134   4.404   6.409
73139SOL     OW21249   5.447   7.346   9.532
73139SOL    HW121250   5.519   7.398   9.496
73139SOL    HW221251   5.489   7.291   9.599
73140SOL     OW21252  11.861   0.979  10.774
73140SOL    HW121253  11.850   0.987  10.869
73140SOL    HW221254  11.857   0.884  10.757
73141SOL     OW21255   3.233   3.625  13.130
73141SOL    HW121256   3.167   3.678  13.087
73141SOL    HW221257   3.223   3.643  13.223
73142SOL     OW21258   2.925   3.386   0.792
73142SOL    HW121259   2.886   3.329   0.725
73142SOL    HW221260   2.988   3.329   0.837
73143SOL     OW21261  10.604   5.472   4.960
73143SOL    HW121262  10.597   5.486   4.865
73143SOL    HW221263  10.697   5.477   4.978
73144SOL     OW21264   2.603   4.197   1.282
73144SOL    HW121265   2.686   4.223   1.322
73144SOL    HW221266   2.558   4.147   1.350
73145SOL     OW21267   2.500   1.819   1.213
73145SOL    HW121268   2.424   1.832   1.155
73145SOL    HW221269   2.509   1.724   1.218
73146SOL     OW21270   9.116  12.968   7.363
73146SOL    HW121271   9.138  13.058   7.340
73146SOL    HW221272   9.134  12.962   7.457
73147SOL     OW21273   7.587   0.515   0.708
73147SOL    HW121274   7.554   0.603   0.693
73147SOL    HW221275   7.569   0.469   0.626
73148SOL     OW21276  13.681   9.969   5.415
73148SOL    HW121277  13.675  10.033   5.486
73148SOL    HW221278  13.752   9.910   5.442
73149SOL     OW21279   3.089  14.858   9.544
73149SOL    HW121280   3.089   0.004   9.638
73149SOL    HW221281   3.016   0.036   9.509
73150SOL     OW21282   2.712  13.861   2.434
73150SOL    HW121283   2.807  13.872   2.428
73150SOL    HW221284   2.690  13.806   2.359
73151SOL     OW21285   3.467   4.386   7.065
73151SOL    HW121286   3.388   4.334   7.050
73151SOL    HW221287   3.487   4.373   7.158
73152SOL     OW21288  13.698  10.635   7.085
73152SOL    HW121289  13.613  10.593   7.100
73152SOL    HW221290  13.748  10.569   7.036
73153SOL     OW21291   9.093   7.112   6.977
73153SOL    HW121292   9.124   7.199   7.001
73153SOL    HW221293   9.151   7.084   6.906
73154SOL     OW21294   1.237   4.368   8.090
73154SOL    HW121295   1.237   4.464   8.097
73154SOL    HW221296   1.320   4.348   8.047
73155SOL     OW21297   0.225  13.578   0.795
73155SOL    HW121298   0.177  13.495   0.796
73155SOL    HW221299   0.233  13.602   0.888
73156SOL     OW21300   6.198  11.223  13.147
73156SOL    HW121301   6.157  11.291  13.094
73156SOL    HW221302   6.149  11.143  13.124
73157SOL     OW21303  13.816   2.376   0.342
73157SOL    HW121304  13.846   2.293   0.380
73157SOL    HW221305  13.822   2.439   0.413
73158SOL     OW21306   1.740   7.730  11.210
73158SOL    HW121307   1.678   7.674  11.256
73158SOL    HW221308   1.809   7.748  11.275
73159SOL     OW21309   5.720   3.914   6.633
73159SOL    HW121310   5.643   3.903   6.689
73159SOL    HW221311   5.685   3.929   6.546
73160SOL     OW21312   0.284   5.893   2.401
73160SOL    HW121313   0.205   5.847   2.428
73160SOL    HW221314   0.302   5.953   2.473
73161SOL     OW21315  14.383   5.042  13.862
73161SOL    HW121316  14.401   4.990  13.784
73161SOL    HW221317  14.294   5.076  13.849
73162SOL     OW21318  10.399   6.121  10.476
73162SOL    HW121319  10.354   6.085  10.399
73162SOL    HW221320  10.360   6.075  10.550
73163SOL     OW21321  12.134   5.417   3.894
73163SOL    HW121322  12.078   5.374   3.830
73163SOL    HW221323  12.074   5.471   3.946
73164SOL     OW21324   4.943   5.337  10.959
73164SOL    HW121325   5.022   5.366  10.913
73164SOL    HW221326   4.968   5.253  10.999
73165SOL     OW21327  12.151   9.508  11.432
73165SOL    HW121328  12.213   9.512  11.506
73165SOL    HW221329  12.200   9.465  11.363
73166SOL     OW21330  12.446   0.809   9.908
73166SOL    HW121331  12.421   0.719   9.888
73166SOL    HW221332  12.407   0.862   9.839
73167SOL     OW21333  11.334   7.125   8.762
73167SOL    HW121334  11.418   7.170   8.751
73167SOL    HW221335  11.282   7.184   8.816
73168SOL     OW21336   2.381   6.848   9.384
73168SOL    HW121337   2.452   6.891   9.337
73168SOL    HW221338   2.424   6.790   9.446
73169SOL     OW21339   5.575   7.786  14.522
73169SOL    HW121340   5.569   7.847  14.449
73169SOL    HW221341   5.490   7.742  14.524
73170SOL     OW21342   9.018   1.068   5.565
73170SOL    HW121343   9.035   0.990   5.618
73170SOL    HW221344   8.928   1.091   5.585
73171SOL     OW21345  10.297  13.422   5.685
73171SOL    HW121346  10.206  13.434   5.713
73171SOL    HW221347  10.339  13.379   5.760
73172SOL     OW21348   8.190   6.524   9.557
73172SOL    HW121349   8.153   6.445   9.519
73172SOL    HW221350   8.279   6.529   9.521
73173SOL     OW21351   6.436   2.200   7.195
73173SOL    HW121352   6.415   2.204   7.288
73173SOL    HW221353   6.422   2.108   7.171
73174SOL     OW21354   7.705  12.101   8.835
73174SOL    HW121355   7.787  12.054   8.827
73174SOL    HW221356   7.705  12.163   8.762
73175SOL     OW21357  14.484   7.834   0.787
73175SOL    HW121358  14.547   7.764   0.802
73175SOL    HW221359  14.401   7.789   0.771
73176SOL     OW21360   1.403   7.435   0.796
73176SOL    HW121361   1.363   7.427   0.710
73176SOL    HW221362   1.464   7.509   0.788
73177SOL     OW21363  12.263  11.475   5.786
73177SOL    HW121364  12.224  11.402   5.834
73177SOL    HW221365  12.190  11.532   5.765
73178SOL     OW21366  10.053   8.110   0.996
73178SOL    HW121367  10.051   8.205   0.991
73178SOL    HW221368  10.009   8.089   1.078
73179SOL     OW21369  13.594  10.305   0.258
73179SOL    HW121370  13.505  10.293   0.224
73179SOL    HW221371  13.595  10.255   0.339
73180SOL     OW21372  14.580   4.519   3.791
73180SOL    HW121373  14.501   4.509   3.845
73180SOL    HW221374  14.632   4.442   3.810
73181SOL     OW21375  10.769   1.054   3.043
73181SOL    HW121376  10.788   1.064   2.950
73181SOL    HW221377  10.835   0.992   3.075
73182SOL     OW21378  13.873  10.150  11.321
73182SOL    HW121379  13.892  10.125  11.230
73182SOL    HW221380  13.931  10.225  11.337
73183SOL     OW21381   6.451  13.935  13.994
73183SOL    HW121382   6.442  13.985  14.075
73183SOL    HW221383   6.470  14.001  13.927
73184SOL     OW21384   9.334   7.866  12.649
73184SOL    HW121385   9.426   7.892  12.657
73184SOL    HW221386   9.287   7.949  12.639
73185SOL     OW21387  12.638  10.765   8.140
73185SOL    HW121388  12.549  10.733   8.147
73185SOL    HW221389  12.634  10.856   8.171
73186SOL     OW21390   2.701   9.213   7.037
73186SOL    HW121391   2.720   9.124   7.068
73186SOL    HW221392   2.743   9.270   7.101
73187SOL     OW21393   9.034   8.129  12.551
73187SOL    HW121394   9.031   8.101  12.460
73187SOL    HW221395   9.128   8.139  12.569
73188SOL     OW21396  13.563   6.608  10.116
73188SOL    HW121397  13.579   6.543  10.184
73188SOL    HW221398  13.553   6.557  10.036
73189SOL     OW21399   6.928   2.048  11.538
73189SOL    HW121400   6.878   1.986  11.590
73189SOL    HW221401   6.931   2.127  11.592
73190SOL     OW21402   2.845  12.106  12.947
73190SOL    HW121403   2.843  12.010  12.949
73190SOL    HW221404   2.753  12.132  12.955
73191SOL     OW21405  13.138  10.089   7.643
73191SOL    HW121406  13.165  10.145   7.570
73191SOL    HW221407  13.209  10.097   7.707
73192SOL     OW21408  10.421   3.539   2.351
73192SOL    HW121409  10.381   3.460   2.387
73192SOL    HW221410  10.350   3.584   2.306
73193SOL     OW21411   5.209   3.258  14.124
73193SOL    HW121412   5.206   3.205  14.204
73193SOL    HW221413   5.134   3.317  14.131
73194SOL     OW21414  10.938  12.207   8.863
73194SOL    HW121415  10.890  12.139   8.910
73194SOL    HW221416  11.025  12.169   8.849
73195SOL     OW21417   5.995  10.589   8.588
73195SOL    HW121418   5.947  10.531   8.647
73195SOL    HW221419   6.074  10.540   8.565
73196SOL     OW21420   8.260   9.070   7.978
73196SOL    HW121421   8.338   9.062   8.033
73196SOL    HW221422   8.278   9.014   7.903
73197SOL     OW21423   1.868  14.047   6.270
73197SOL    HW121424   1.874  13.977   6.334
73197SOL    HW221425   1.777  14.045   6.240
73198SOL     OW21426   3.789   2.892   2.286
73198SOL    HW121427   3.778   2.798   2.302
73198SOL    HW221428   3.804   2.898   2.191
73199SOL     OW21429   2.396  13.317   8.639
73199SOL    HW121430   2.451  13.247   8.607
73199SOL    HW221431   2.324  13.322   8.577
73200SOL     OW21432   7.756  10.187   9.660
73200SOL    HW121433   7.849  10.198   9.680
73200SOL    HW221434   7.710  10.227   9.734
73201SOL     OW21435  10.930   7.195   0.091
73201SOL    HW121436  11.006   7.230   0.138
73201SOL    HW221437  10.914   7.259   0.022
73202SOL     OW21438   6.955   5.848   5.193
73202SOL    HW121439   6.957   5.934   5.234
73202SOL    HW221440   6.865   5.837   5.163
73203SOL     OW21441   2.798   3.138   9.837
73203SOL    HW121442   2.856   3.081   9.887
73203SOL    HW221443   2.774   3.208   9.898
73204SOL     OW21444  13.419   0.443  12.634
73204SOL    HW121445  13.456   0.396  12.560
73204SOL    HW221446  13.412   0.534  12.605
73205SOL     OW21447   6.113   0.055   1.329
73205SOL    HW121448   6.094   0.134   1.278
73205SOL    HW221449   6.073  14.856   1.279
73206SOL     OW21450   5.740   6.224  13.913
73206SOL    HW121451   5.690   6.155  13.957
73206SOL    HW221452   5.716   6.304  13.959
73207SOL     OW21453  14.544   6.100  12.381
73207SOL    HW121454  14.457   6.065  12.400
73207SOL    HW221455  14.600   6.023  12.374
73208SOL     OW21456  12.297   2.684   1.495
73208SOL    HW121457  12.202   2.677   1.492
73208SOL    HW221458  12.314   2.778   1.500
73209SOL     OW21459  13.398   8.661   1.451
73209SOL    HW121460  13.330   8.659   1.383
73209SOL    HW221461  13.479   8.640   1.405
73210SOL     OW21462  14.220   2.974  10.814
73210SOL    HW121463  14.313   2.955  10.810
73210SOL    HW221464  14.182   2.924  10.742
73211SOL     OW21465   0.026   1.240  13.376
73211SOL    HW121466  14.823   1.213  13.324
73211SOL    HW221467   0.000   1.221  13.466
73212SOL     OW21468  10.205  14.828   9.788
73212SOL    HW121469  10.199  14.850   9.695
73212SOL    HW221470  10.272  14.760   9.792
73213SOL     OW21471  10.186   1.831   4.168
73213SOL    HW121472  10.258   1.821   4.230
73213SOL    HW221473  10.228   1.834   4.082
73214SOL     OW21474   0.796  14.474  11.786
73214SOL    HW121475   0.749  14.549  11.820
73214SOL    HW221476   0.889  14.499  11.790
73215SOL     OW21477   8.034   7.598   3.393
73215SOL    HW121478   7.948   7.611   3.434
73215SOL    HW221479   8.035   7.661   3.320
73216SOL     OW21480   7.960   5.345  14.860
73216SOL    HW121481   8.033   5.351   0.050
73216SOL    HW221482   7.994   5.291  14.789
73217SOL     OW21483  11.914   5.873  11.345
73217SOL    HW121484  11.916   5.870  11.440
73217SOL    HW221485  11.991   5.923  11.320
73218SOL     OW21486   2.763  12.975  11.632
73218SOL    HW121487   2.769  12.936  11.545
73218SOL    HW221488   2.669  12.994  11.643
73219SOL     OW21489   1.738   6.637   4.622
73219SOL    HW121490   1.806   6.700   4.601
73219SOL    HW221491   1.785   6.559   4.650
73220SOL     OW21492   5.322   3.801   5.391
73220SOL    HW121493   5.307   3.886   5.350
73220SOL    HW221494   5.236   3.759   5.391
73221SOL     OW21495  14.563   1.103   7.375
73221SOL    HW121496  14.617   1.137   7.304
73221SOL    HW221497  14.518   1.180   7.410
73222SOL     OW21498  10.807  14.168   0.631
73222SOL    HW121499  10.743  14.116   0.582
73222SOL    HW221500  10.887  14.116   0.630
73223SOL     OW21501   9.991  14.579   2.847
73223SOL    HW121502  10.041  14.659   2.833
73223SOL    HW221503   9.905  14.609   2.876
73224SOL     OW21504  13.029   7.207   4.869
73224SOL    HW121505  13.108   7.260   4.878
73224SOL    HW221506  12.997   7.226   4.781
73225SOL     OW21507   2.435   0.006   4.606
73225SOL    HW121508   2.379  14.860   4.531
73225SOL    HW221509   2.377   0.043   4.672
73226SOL     OW21510   6.622   4.456   3.381
73226SOL    HW121511   6.592   4.543   3.355
73226SOL    HW221512   6.693   4.436   3.320
73227SOL     OW21513   6.611   4.537   6.340
73227SOL    HW121514   6.617   4.632   6.353
73227SOL    HW221515   6.659   4.500   6.414
73228SOL     OW21516  14.448  11.031   3.156
73228SOL    HW121517  14.435  10.946   3.115
73228SOL    HW221518  14.514  11.015   3.224
73229SOL     OW21519  13.820  13.864   9.261
73229SOL    HW121520  13.815  13.910   9.178
73229SOL    HW221521  13.867  13.925   9.319
73230SOL     OW21522   5.144  13.289  13.978
73230SOL    HW121523   5.113  13.224  14.041
73230SOL    HW221524   5.156  13.369  14.029
73231SOL     OW21525   7.733  12.656  13.164
73231SOL    HW121526   7.645  12.623  13.146
73231SOL    HW221527   7.775  12.587  13.216
73232SOL     OW21528  14.613   3.882   5.742
73232SOL    HW121529  14.552   3.837   5.682
73232SOL    HW221530  14.644   3.958   5.692
73233SOL     OW21531  11.229  10.827  13.676
73233SOL    HW121532  11.144  10.864  13.698
73233SOL    HW221533  11.221  10.734  13.695
73234SOL     OW21534   7.936   0.638   2.815
73234SOL    HW121535   7.883   0.651   2.736
73234SOL    HW221536   7.912   0.550   2.845
73235SOL     OW21537   2.549  12.504   6.516
73235SOL    HW121538   2.567  12.563   6.442
73235SOL    HW221539   2.633  12.497   6.561
73236SOL     OW21540  10.251   7.708   5.836
73236SOL    HW121541  10.300   7.665   5.767
73236SOL    HW221542  10.218   7.788   5.796
73237SOL     OW21543   0.151   4.632   0.008
73237SOL    HW121544   0.178   4.620  14.790
73237SOL    HW221545   0.058   4.608   0.009
73238SOL     OW21546  10.821   0.920  12.714
73238SOL    HW121547  10.726   0.922  12.720
73238SOL    HW221548  10.852   0.942  12.802
73239SOL     OW21549   9.666  14.342  12.180
73239SOL    HW121550   9.686  14.293  12.101
73239SOL    HW221551   9.695  14.286  12.252
73240SOL     OW21552   1.894   0.443   1.075
73240SOL    HW121553   1.931   0.398   1.151
73240SOL    HW221554   1.877   0.532   1.105
73241SOL     OW21555   7.259   0.010   5.165
73241SOL    HW121556   7.235   0.102   5.179
73241SOL    HW221557   7.314  14.861   5.240
73242SOL     OW21558   7.926   2.641  12.877
73242SOL    HW121559   7.889   2.581  12.811
73242SOL    HW221560   7.981   2.585  12.931
73243SOL     OW21561   6.925  11.029  12.019
73243SOL    HW121562   6.869  11.072  12.084
73243SOL    HW221563   6.906  11.076  11.937
73244SOL     OW21564   6.638   3.224  11.024
73244SOL    HW121565   6.615   3.192  10.937
73244SOL    HW221566   6.700   3.296  11.007
73245SOL     OW21567  13.242   2.501   0.962
73245SOL    HW121568  13.162   2.461   0.928
73245SOL    HW221569  13.305   2.494   0.891
73246SOL     OW21570   0.065  12.925   7.224
73246SOL    HW121571  14.872  12.896   7.287
73246SOL    HW221572   0.057  13.021   7.223
73247SOL     OW21573   2.476   1.475  12.254
73247SOL    HW121574   2.382   1.490  12.264
73247SOL    HW221575   2.512   1.487  12.342
73248SOL     OW21576   9.978   6.846   6.944
73248SOL    HW121577   9.898   6.852   6.996
73248SOL    HW221578  10.040   6.801   7.001
73249SOL     OW21579  12.374   2.485   6.774
73249SOL    HW121580  12.364   2.398   6.735
73249SOL    HW221581  12.350   2.473   6.866
73250SOL     OW21582   1.617   7.014   5.907
73250SOL    HW121583   1.673   6.938   5.890
73250SOL    HW221584   1.528   6.984   5.891
73251SOL     OW21585   6.704   0.627  10.484
73251SOL    HW121586   6.783   0.652  10.435
73251SOL    HW221587   6.644   0.595  10.417
73252SOL     OW21588  10.933   9.339  11.364
73252SOL    HW121589  10.857   9.303  11.318
73252SOL    HW221590  10.995   9.267  11.369
73253SOL     OW21591   2.083   5.186   5.415
73253SOL    HW121592   1.991   5.210   5.403
73253SOL    HW221593   2.110   5.234   5.493
73254SOL     OW21594   2.388   8.288  12.153
73254SOL    HW121595   2.391   8.300  12.058
73254SOL    HW221596   2.298   8.312  12.177
73255SOL     OW21597   5.561   5.223   1.525
73255SOL    HW121598   5.601   5.232   1.611
73255SOL    HW221599   5.601   5.292   1.472
73256SOL     OW21600   7.046   8.339  11.261
73256SOL    HW121601   6.957   8.373  11.267
73256SOL    HW221602   7.102   8.414  11.280
73257SOL     OW21603   2.665   6.131   8.247
73257SOL    HW121604   2.707   6.079   8.315
73257SOL    HW221605   2.732   6.141   8.180
73258SOL     OW21606  13.102   9.445   6.536
73258SOL    HW121607  13.197   9.453   6.549
73258SOL    HW221608  13.076   9.374   6.594
73259SOL     OW21609  13.321   2.861   1.155
73259SOL    HW121610  13.257   2.927   1.181
73259SOL    HW221611  13.280   2.816   1.080
73260SOL     OW21612   1.161   2.851  14.030
73260SOL    HW121613   1.209   2.789  13.975
73260SOL    HW221614   1.224   2.877  14.098
73261SOL     OW21615   2.379   4.364   1.231
73261SOL    HW121616   2.406   4.392   1.143
73261SOL    HW221617   2.460   4.334   1.272
73262SOL     OW21618  11.143  13.054   9.054
73262SOL    HW121619  11.109  12.967   9.034
73262SOL    HW221620  11.066  13.104   9.080
73263SOL     OW21621  10.220   5.597  12.733
73263SOL    HW121622  10.139   5.639  12.761
73263SOL    HW221623  10.244   5.539  12.805
73264SOL     OW21624  10.610  12.689  12.279
73264SOL    HW121625  10.696  12.676  12.319
73264SOL    HW221626  10.628  12.740  12.199
73265SOL     OW21627  12.160  14.588  14.582
73265SOL    HW121628  12.157  14.493  14.593
73265SOL    HW221629  12.224  14.603  14.513
73266SOL     OW21630  11.404  13.673  12.358
73266SOL    HW121631  11.329  13.640  12.309
73266SOL    HW221632  11.479  13.659  12.300
73267SOL     OW21633   6.410   8.914  13.920
73267SOL    HW121634   6.324   8.933  13.959
73267SOL    HW221635   6.397   8.926  13.826
73268SOL     OW21636  11.304  11.369   2.610
73268SOL    HW121637  11.333  11.417   2.532
73268SOL    HW221638  11.360  11.291   2.611
73269SOL     OW21639   3.462   0.943   3.679
73269SOL    HW121640   3.474   0.980   3.767
73269SOL    HW221641   3.509   1.003   3.622
73270SOL     OW21642  13.389   9.850  10.564
73270SOL    HW121643  13.389   9.891  10.477
73270SOL    HW221644  13.473   9.806  10.570
73271SOL     OW21645   6.555  13.887   5.551
73271SOL    HW121646   6.638  13.871   5.598
73271SOL    HW221647   6.573  13.963   5.496
73272SOL     OW21648  10.896   9.099   1.623
73272SOL    HW121649  10.862   9.183   1.655
73272SOL    HW221650  10.817   9.046   1.607
73273SOL     OW21651  11.763   2.657  10.827
73273SOL    HW121652  11.784   2.576  10.781
73273SOL    HW221653  11.679   2.639  10.870
73274SOL     OW21654   1.853   3.754  12.283
73274SOL    HW121655   1.863   3.848  12.264
73274SOL    HW221656   1.933   3.732  12.331
73275SOL     OW21657   2.705  14.732  14.065
73275SOL    HW121658   2.727  14.773  14.148
73275SOL    HW221659   2.701  14.638  14.084
73276SOL     OW21660  13.662  13.710   9.843
73276SOL    HW121661  13.643  13.631   9.793
73276SOL    HW221662  13.744  13.743   9.805
73277SOL     OW21663   6.515   3.470   6.045
73277SOL    HW121664   6.514   3.513   5.960
73277SOL    HW221665   6.458   3.524   6.100
73278SOL     OW21666   7.420  13.836   5.923
73278SOL    HW121667   7.425  13.789   5.840
73278SOL    HW221668   7.459  13.921   5.905
73279SOL     OW21669  12.533   3.985   1.129
73279SOL    HW121670  12.567   3.936   1.204
73279SOL    HW221671  12.533   3.922   1.057
73280SOL     OW21672   6.401   2.921  10.222
73280SOL    HW121673   6.349   2.905  10.144
73280SOL    HW221674   6.338   2.923  10.294
73281SOL     OW21675  11.144  12.421   2.038
73281SOL    HW121676  11.076  12.429   1.971
73281SOL    HW221677  11.101  12.453   2.118
73282SOL     OW21678   2.021  14.676   8.573
73282SOL    HW121679   1.967  14.598   8.586
73282SOL    HW221680   2.109  14.650   8.601
73283SOL     OW21681   7.775   3.713   5.889
73283SOL    HW121682   7.803   3.722   5.798
73283SOL    HW221683   7.755   3.620   5.898
73284SOL     OW21684   2.723   4.966  10.605
73284SOL    HW121685   2.715   4.874  10.630
73284SOL    HW221686   2.798   4.968  10.546
73285SOL     OW21687   8.350   6.014  13.513
73285SOL    HW121688   8.288   6.078  13.478
73285SOL    HW221689   8.387   6.056  13.591
73286SOL     OW21690   1.381  13.241   2.206
73286SOL    HW121691   1.410  13.190   2.281
73286SOL    HW221692   1.308  13.294   2.239
73287SOL     OW21693  12.936   2.705   5.118
73287SOL    HW121694  12.844   2.688   5.100
73287SOL    HW221695  12.983   2.637   5.069
73288SOL     OW21696  13.526  14.203   8.782
73288SOL    HW121697  13.553  14.137   8.719
73288SOL    HW221698  13.458  14.160   8.835
73289SOL     OW21699   2.758  10.646  11.475
73289SOL    HW121700   2.815  10.625  11.401
73289SOL    HW221701   2.670  10.648  11.439
73290SOL     OW21702   8.420  10.940  13.425
73290SOL    HW121703   8.413  10.909  13.515
73290SOL    HW221704   8.338  10.986  13.409
73291SOL     OW21705   9.444   4.209   1.948
73291SOL    HW121706   9.517   4.268   1.967
73291SOL    HW221707   9.428   4.163   2.030
73292SOL     OW21708  13.475   2.473   2.960
73292SOL    HW121709  13.482   2.411   2.887
73292SOL    HW221710  13.541   2.444   3.023
73293SOL     OW21711   6.122  10.888   8.240
73293SOL    HW121712   6.076  10.806   8.255
73293SOL    HW221713   6.057  10.946   8.201
73294SOL     OW21714   9.972  11.559  13.298
73294SOL    HW121715  10.021  11.523  13.372
73294SOL    HW221716   9.881  11.534  13.315
73295SOL     OW21717   7.769   7.851   8.612
73295SOL    HW121718   7.853   7.896   8.603
73295SOL    HW221719   7.703   7.920   8.609
73296SOL     OW21720   0.420  12.464   8.309
73296SOL    HW121721   0.500  12.515   8.300
73296SOL    HW221722   0.410  12.420   8.224
73297SOL     OW21723   0.640  13.715  13.215
73297SOL    HW121724   0.576  13.727  13.285
73297SOL    HW221725   0.720  13.688  13.261
73298SOL     OW21726  11.939  11.690   1.737
73298SOL    HW121727  11.942  11.676   1.832
73298SOL    HW221728  11.852  11.658   1.711
73299SOL     OW21729  13.649   8.055   8.245
73299SOL    HW121730  13.658   8.058   8.340
73299SOL    HW221731  13.555   8.069   8.230
73300SOL     OW21732   3.899   9.865   4.438
73300SOL    HW121733   3.980   9.814   4.453
73300SOL    HW221734   3.854   9.818   4.368
73301SOL     OW21735   1.518   9.738   7.436
73301SOL    HW121736   1.538   9.814   7.381
73301SOL    HW221737   1.584   9.741   7.506
73302SOL     OW21738   6.866   9.150  12.158
73302SOL    HW121739   6.935   9.209  12.187
73302SOL    HW221740   6.838   9.186  12.074
73303SOL     OW21741   7.909   5.635   0.367
73303SOL    HW121742   7.963   5.621   0.290
73303SOL    HW221743   7.866   5.550   0.382
73304SOL     OW21744   1.473   3.723   6.783
73304SOL    HW121745   1.428   3.641   6.799
73304SOL    HW221746   1.565   3.704   6.798
73305SOL     OW21747   6.185   6.871   2.474
73305SOL    HW121748   6.163   6.931   2.403
73305SOL    HW221749   6.279   6.882   2.487
73306SOL     OW21750  10.820   7.735  10.316
73306SOL    HW121751  10.816   7.803  10.384
73306SOL    HW221752  10.732   7.696  10.316
73307SOL     OW21753  12.132   5.893  11.779
73307SOL    HW121754  12.056   5.952  11.773
73307SOL    HW221755  12.183   5.927  11.852
73308SOL     OW21756   5.006   2.675   2.517
73308SOL    HW121757   4.925   2.718   2.488
73308SOL    HW221758   5.040   2.632   2.439
73309SOL     OW21759   9.360  13.398   4.347
73309SOL    HW121760   9.429  13.335   4.327
73309SOL    HW221761   9.382  13.475   4.294
73310SOL     OW21762  14.010  14.813   0.413
73310SOL    HW121763  14.075  14.760   0.459
73310SOL    HW221764  14.006   0.022   0.463
73311SOL     OW21765  14.611  13.373   3.318
73311SOL    HW121766  14.567  13.448   3.358
73311SOL    HW221767  14.687  13.411   3.273
73312SOL     OW21768   5.852  12.098  13.377
73312SOL    HW121769   5.778  12.081  13.318
73312SOL    HW221770   5.910  12.023  13.364
73313SOL     OW21771   0.389   2.628  14.309
73313SOL    HW121772   0.305   2.673  14.301
73313SOL    HW221773   0.445   2.670  14.243
73314SOL     OW21774   9.793   8.010   2.699
73314SOL    HW121775   9.862   8.036   2.759
73314SOL    HW221776   9.832   8.019   2.612
73315SOL     OW21777   7.324  13.365   3.853
73315SOL    HW121778   7.236  13.337   3.831
73315SOL    HW221779   7.312  13.452   3.893
73316SOL     OW21780  13.936  14.157   7.421
73316SOL    HW121781  14.028  14.185   7.415
73316SOL    HW221782  13.926  14.093   7.350
73317SOL     OW21783   4.017   4.352   5.082
73317SOL    HW121784   4.033   4.291   5.154
73317SOL    HW221785   4.041   4.304   5.003
73318SOL     OW21786  11.924   6.296  10.664
73318SOL    HW121787  11.843   6.276  10.618
73318SOL    HW221788  11.934   6.391  10.655
73319SOL     OW21789   4.886   4.409   8.543
73319SOL    HW121790   4.860   4.407   8.635
73319SOL    HW221791   4.972   4.366   8.543
73320SOL     OW21792  12.250   3.181  13.753
73320SOL    HW121793  12.227   3.090  13.734
73320SOL    HW221794  12.170   3.219  13.788
73321SOL     OW21795   1.920   7.885  10.580
73321SOL    HW121796   1.950   7.972  10.605
73321SOL    HW221797   1.827   7.884  10.601
73322SOL     OW21798  10.688   2.378   9.455
73322SOL    HW121799  10.622   2.321   9.416
73322SOL    HW221800  10.705   2.341   9.541
73323SOL     OW21801   9.094   0.437  13.798
73323SOL    HW121802   9.060   0.422  13.710
73323SOL    HW221803   9.071   0.357  13.846
73324SOL     OW21804   9.141  10.807  10.795
73324SOL    HW121805   9.136  10.869  10.722
73324SOL    HW221806   9.171  10.725  10.756
73325SOL     OW21807   3.133  12.272   4.561
73325SOL    HW121808   3.121  12.307   4.649
73325SOL    HW221809   3.089  12.186   4.563
73326SOL     OW21810   8.020   7.832  11.313
73326SOL    HW121811   8.057   7.898  11.254
73326SOL    HW221812   8.092   7.770  11.327
73327SOL     OW21813   1.688   1.466   6.734
73327SOL    HW121814   1.696   1.437   6.825
73327SOL    HW221815   1.777   1.459   6.699
73328SOL     OW21816   2.362   6.981   5.522
73328SOL    HW121817   2.340   6.965   5.431
73328SOL    HW221818   2.413   6.904   5.548
73329SOL     OW21819   9.771   2.011   5.635
73329SOL    HW121820   9.830   1.937   5.647
73329SOL    HW221821   9.825   2.089   5.650
73330SOL     OW21822  10.145   0.830   8.621
73330SOL    HW121823  10.175   0.863   8.536
73330SOL    HW221824  10.100   0.905   8.661
73331SOL     OW21825   7.841  14.035   0.654
73331SOL    HW121826   7.802  14.122   0.664
73331SOL    HW221827   7.932  14.046   0.682
73332SOL     OW21828   1.752  11.988   2.019
73332SOL    HW121829   1.661  12.017   2.015
73332SOL    HW221830   1.750  11.897   1.991
73333SOL     OW21831  11.143  14.201   3.969
73333SOL    HW121832  11.124  14.288   3.934
73333SOL    HW221833  11.102  14.201   4.056
73334SOL     OW21834  12.607   5.307   4.563
73334SOL    HW121835  12.661   5.377   4.525
73334SOL    HW221836  12.560   5.350   4.634
73335SOL     OW21837   1.274   5.632   3.399
73335SOL    HW121838   1.213   5.634   3.473
73335SOL    HW221839   1.332   5.706   3.414
73336SOL     OW21840  10.748   3.135  12.144
73336SOL    HW121841  10.686   3.077  12.188
73336SOL    HW221842  10.767   3.204  12.208
73337SOL     OW21843   5.877  10.240   5.568
73337SOL    HW121844   5.972  10.234   5.577
73337SOL    HW221845   5.844  10.243   5.658
73338SOL     OW21846  11.200  10.197   3.853
73338SOL    HW121847  11.208  10.102   3.843
73338SOL    HW221848  11.278  10.232   3.810
73339SOL     OW21849   9.598   2.007  12.128
73339SOL    HW121850   9.672   2.041  12.178
73339SOL    HW221851   9.597   1.914  12.150
73340SOL     OW21852   7.443   6.171   9.280
73340SOL    HW121853   7.515   6.142   9.224
73340SOL    HW221854   7.368   6.117   9.253
73341SOL     OW21855   6.072   8.118   2.868
73341SOL    HW121856   6.031   8.065   2.799
73341SOL    HW221857   6.037   8.082   2.950
73342SOL     OW21858  10.025  10.165   3.359
73342SOL    HW121859  10.119  10.170   3.345
73342SOL    HW221860  10.014  10.178   3.453
73343SOL     OW21861   1.940   7.136   0.768
73343SOL    HW121862   1.852   7.105   0.746
73343SOL    HW221863   1.975   7.069   0.827
73344SOL     OW21864  12.561   5.325   2.442
73344SOL    HW121865  12.495   5.273   2.396
73344SOL    HW221866  12.580   5.276   2.522
73345SOL     OW21867   3.295   0.405   2.383
73345SOL    HW121868   3.326   0.337   2.441
73345SOL    HW221869   3.271   0.478   2.441
73346SOL     OW21870   2.035   7.699   6.464
73346SOL    HW121871   2.035   7.724   6.372
73346SOL    HW221872   2.128   7.696   6.488
73347SOL     OW21873   7.319  10.412   5.454
73347SOL    HW121874   7.249  10.473   5.477
73347SOL    HW221875   7.323  10.351   5.528
73348SOL     OW21876   7.185  14.377  13.655
73348SOL    HW121877   7.234  14.407  13.578
73348SOL    HW221878   7.133  14.303  13.624
73349SOL     OW21879  11.873   1.891  14.562
73349SOL    HW121880  11.916   1.809  14.539
73349SOL    HW221881  11.910   1.914  14.647
73350SOL     OW21882   9.302   1.148   6.768
73350SOL    HW121883   9.240   1.111   6.831
73350SOL    HW221884   9.252   1.157   6.687
73351SOL     OW21885   9.577  13.022   9.146
73351SOL    HW121886   9.651  12.966   9.168
73351SOL    HW221887   9.504  12.987   9.198
73352SOL     OW21888   8.091   1.092  14.090
73352SOL    HW121889   8.159   1.151  14.059
73352SOL    HW221890   8.078   1.116  14.182
73353SOL     OW21891  11.765   5.717   7.983
73353SOL    HW121892  11.770   5.719   8.079
73353SOL    HW221893  11.798   5.803   7.956
73354SOL     OW21894  13.810  14.133  14.276
73354SOL    HW121895  13.749  14.061  14.289
73354SOL    HW221896  13.768  14.209  14.316
73355SOL     OW21897   1.512   4.207   1.078
73355SOL    HW121898   1.487   4.285   1.028
73355SOL    HW221899   1.493   4.134   1.020
73356SOL     OW21900   0.033  11.675  11.222
73356SOL    HW121901   0.100  11.655  11.287
73356SOL    HW221902   0.064  11.632  11.142
73357SOL     OW21903   7.207   5.236  13.852
73357SOL    HW121904   7.126   5.186  13.844
73357SOL    HW221905   7.184   5.312  13.906
73358SOL     OW21906   9.792  12.040  10.329
73358SOL    HW121907   9.763  11.992  10.406
73358SOL    HW221908   9.877  12.076  10.353
73359SOL     OW21909   1.441   9.845   4.001
73359SOL    HW121910   1.456   9.909   4.071
73359SOL    HW221911   1.383   9.889   3.939
73360SOL     OW21912   9.320  13.250   2.503
73360SOL    HW121913   9.339  13.306   2.579
73360SOL    HW221914   9.230  13.270   2.481
73361SOL     OW21915   6.619  12.242   6.018
73361SOL    HW121916   6.656  12.274   6.100
73361SOL    HW221917   6.634  12.148   6.019
73362SOL     OW21918   7.902   1.852   5.739
73362SOL    HW121919   7.844   1.804   5.798
73362SOL    HW221920   7.971   1.789   5.717
73363SOL     OW21921  11.379  12.762   7.293
73363SOL    HW121922  11.311  12.796   7.235
73363SOL    HW221923  11.371  12.814   7.373
73364SOL     OW21924   2.376   3.258   0.251
73364SOL    HW121925   2.455   3.303   0.281
73364SOL    HW221926   2.341   3.218   0.331
73365SOL     OW21927   6.985   1.320  13.096
73365SOL    HW121928   6.931   1.346  13.170
73365SOL    HW221929   7.075   1.320  13.130
73366SOL     OW21930   6.038   5.316   4.618
73366SOL    HW121931   5.969   5.360   4.569
73366SOL    HW221932   6.009   5.225   4.626
73367SOL     OW21933   2.452   8.898   3.348
73367SOL    HW121934   2.513   8.852   3.291
73367SOL    HW221935   2.449   8.845   3.428
73368SOL     OW21936  11.805   6.400   7.413
73368SOL    HW121937  11.890   6.422   7.451
73368SOL    HW221938  11.741   6.420   7.482
73369SOL     OW21939   7.751   5.963  14.288
73369SOL    HW121940   7.702   6.045  14.298
73369SOL    HW221941   7.684   5.897  14.267
73370SOL     OW21942   5.252  14.188   1.683
73370SOL    HW121943   5.308  14.156   1.612
73370SOL    HW221944   5.170  14.211   1.639
73371SOL     OW21945   9.102   6.939   2.660
73371SOL    HW121946   9.159   6.940   2.737
73371SOL    HW221947   9.025   6.891   2.688
73372SOL     OW21948   6.073  13.523   7.560
73372SOL    HW121949   6.123  13.511   7.641
73372SOL    HW221950   6.005  13.456   7.564
73373SOL     OW21951   8.240   6.093   0.812
73373SOL    HW121952   8.162   6.064   0.765
73373SOL    HW221953   8.312   6.081   0.750
73374SOL     OW21954   9.491   8.382  13.716
73374SOL    HW121955   9.475   8.474  13.736
73374SOL    HW221956   9.408   8.349  13.681
73375SOL     OW21957  14.728  10.520  14.406
73375SOL    HW121958  14.693  10.446  14.357
73375SOL    HW221959  14.702  10.505  14.497
73376SOL     OW21960   1.665  12.612  14.368
73376SOL    HW121961   1.640  12.544  14.432
73376SOL    HW221962   1.705  12.681  14.421
73377SOL     OW21963   3.551   6.019   4.368
73377SOL    HW121964   3.538   5.932   4.330
73377SOL    HW221965   3.545   6.078   4.293
73378SOL     OW21966   2.681  10.573   9.610
73378SOL    HW121967   2.683  10.652   9.557
73378SOL    HW221968   2.692  10.605   9.700
73379SOL     OW21969  14.573   8.762  14.839
73379SOL    HW121970  14.665   8.743  14.817
73379SOL    HW221971  14.569   8.857  14.845
73380SOL     OW21972   8.760   9.486   5.558
73380SOL    HW121973   8.850   9.465   5.533
73380SOL    HW221974   8.748   9.441   5.642
73381SOL     OW21975   1.450   6.430  13.154
73381SOL    HW121976   1.414   6.459  13.070
73381SOL    HW221977   1.493   6.347  13.134
73382SOL     OW21978   4.776  11.445   7.616
73382SOL    HW121979   4.809  11.533   7.634
73382SOL    HW221980   4.697  11.438   7.669
73383SOL     OW21981   5.049   2.945   0.424
73383SOL    HW121982   5.109   3.014   0.396
73383SOL    HW221983   4.967   2.964   0.380
73384SOL     OW21984  11.292  13.585   0.411
73384SOL    HW121985  11.335  13.501   0.399
73384SOL    HW221986  11.360  13.642   0.447
73385SOL     OW21987   9.123   0.390  10.930
73385SOL    HW121988   9.101   0.302  10.900
73385SOL    HW221989   9.056   0.446  10.890
73386SOL     OW21990   2.828  10.945   4.323
73386SOL    HW121991   2.816  11.036   4.350
73386SOL    HW221992   2.743  10.919   4.287
73387SOL     OW21993   1.581   9.040   3.292
73387SOL    HW121994   1.616   9.013   3.206
73387SOL    HW221995   1.528   8.965   3.320
73388SOL     OW21996   8.473  13.457   7.874
73388SOL    HW121997   8.499  13.540   7.913
73388SOL    HW221998   8.380  13.468   7.854
73389SOL     OW21999   7.856   0.107  10.246
73389SOL    HW122000   7.829   0.058  10.168
73389SOL    HW222001   7.915   0.047  10.292
73390SOL     OW22002   3.128   5.931  11.986
73390SOL    HW122003   3.137   5.873  12.062
73390SOL    HW222004   3.163   5.880  11.913
73391SOL     OW22005  12.152  12.040  14.049
73391SOL    HW122006  12.099  12.033  14.129
73391SOL    HW222007  12.242  12.050  14.081
73392SOL     OW22008  13.707   4.998   0.668
73392SOL    HW122009  13.632   4.961   0.716
73392SOL    HW222010  13.765   4.924   0.654
73393SOL     OW22011  13.726   2.172   3.373
73393SOL    HW122012  13.712   2.266   3.386
73393SOL    HW222013  13.780   2.167   3.294
73394SOL     OW22014   3.714   6.309   2.937
73394SOL    HW122015   3.706   6.360   3.018
73394SOL    HW222016   3.707   6.375   2.867
73395SOL     OW22017   8.831   8.754   3.096
73395SOL    HW122018   8.889   8.680   3.084
73395SOL    HW222019   8.844   8.781   3.187
73396SOL     OW22020   2.774   9.656   9.448
73396SOL    HW122021   2.761   9.695   9.534
73396SOL    HW222022   2.776   9.730   9.388
73397SOL     OW22023  10.138  10.068  12.666
73397SOL    HW122024  10.158  10.160  12.648
73397SOL    HW222025  10.043  10.062  12.656
73398SOL     OW22026   8.692   4.002  12.256
73398SOL    HW122027   8.776   3.958  12.265
73398SOL    HW222028   8.673   3.999  12.162
73399SOL     OW22029  12.240   2.351   0.301
73399SOL    HW122030  12.164   2.387   0.347
73399SOL    HW222031  12.209   2.271   0.260
73400SOL     OW22032   1.085   9.032   9.061
73400SOL    HW122033   1.125   8.983   9.134
73400SOL    HW222034   1.025   9.093   9.103
73401SOL     OW22035  14.004   2.247   9.367
73401SOL    HW122036  13.925   2.264   9.418
73401SOL    HW222037  13.991   2.296   9.285
73402SOL     OW22038  10.618  10.112   5.531
73402SOL    HW122039  10.567  10.165   5.592
73402SOL    HW222040  10.709  10.122   5.562
73403SOL     OW22041   7.869   5.029  12.521
73403SOL    HW122042   7.859   4.995  12.432
73403SOL    HW222043   7.952   5.076  12.520
73404SOL     OW22044   7.725   6.417   1.590
73404SOL    HW122045   7.678   6.361   1.528
73404SOL    HW222046   7.691   6.505   1.573
73405SOL     OW22047  12.808   8.578   8.605
73405SOL    HW122048  12.738   8.597   8.666
73405SOL    HW222049  12.872   8.528   8.656
73406SOL     OW22050   1.485   3.919  12.363
73406SOL    HW122051   1.542   3.961  12.427
73406SOL    HW222052   1.397   3.936  12.395
73407SOL     OW22053  14.477   0.057  13.983
73407SOL    HW122054  14.415   0.100  14.042
73407SOL    HW222055  14.557   0.049  14.035
73408SOL     OW22056   7.786   8.140  12.095
73408SOL    HW122057   7.712   8.130  12.035
73408SOL    HW222058   7.856   8.176  12.042
73409SOL     OW22059   8.632   3.034   3.070
73409SOL    HW122060   8.566   3.064   3.008
73409SOL    HW222061   8.583   2.989   3.138
73410SOL     OW22062   9.441  14.779   9.526
73410SOL    HW122063   9.388  14.791   9.604
73410SOL    HW222064   9.450  14.867   9.489
73411SOL     OW22065  10.536   9.665   0.129
73411SOL    HW122066  10.516   9.756   0.151
73411SOL    HW222067  10.498   9.614   0.200
73412SOL     OW22068  14.372   4.548   7.757
73412SOL    HW122069  14.426   4.503   7.821
73412SOL    HW222070  14.288   4.562   7.801
73413SOL     OW22071  13.756   8.813   7.336
73413SOL    HW122072  13.787   8.733   7.379
73413SOL    HW222073  13.784   8.884   7.395
73414SOL     OW22074  12.149  12.634   6.433
73414SOL    HW122075  12.158  12.546   6.470
73414SOL    HW222076  12.106  12.684   6.502
73415SOL     OW22077  13.399   2.309  13.603
73415SOL    HW122078  13.430   2.221  13.621
73415SOL    HW222079  13.387   2.349  13.689
73416SOL     OW22080   2.785   4.314   0.533
73416SOL    HW122081   2.784   4.395   0.482
73416SOL    HW222082   2.817   4.340   0.619
73417SOL     OW22083   4.071   8.217   3.474
73417SOL    HW122084   4.159   8.184   3.455
73417SOL    HW222085   4.082   8.267   3.555
73418SOL     OW22086  10.367  10.093  12.810
73418SOL    HW122087  10.363  10.188  12.804
73418SOL    HW222088  10.300  10.062  12.748
73419SOL     OW22089   9.929   2.112  12.037
73419SOL    HW122090  10.004   2.169  12.057
73419SOL    HW222091   9.869   2.126  12.111
73420SOL     OW22092   1.105  11.133   9.636
73420SOL    HW122093   1.163  11.152   9.709
73420SOL    HW222094   1.158  11.151   9.558
73421SOL     OW22095   8.814   0.818   9.966
73421SOL    HW122096   8.745   0.880   9.989
73421SOL    HW222097   8.784   0.735  10.003
73422SOL     OW22098   3.793  10.471   8.050
73422SOL    HW122099   3.846  10.398   8.081
73422SOL    HW222100   3.798  10.536   8.120
73423SOL     OW22101  13.738   8.931  11.953
73423SOL    HW122102  13.739   8.977  11.869
73423SOL    HW222103  13.775   8.845  11.933
73424SOL     OW22104  11.759   9.293  11.782
73424SOL    HW122105  11.664   9.288  11.767
73424SOL    HW222106  11.797   9.251  11.706
73425SOL     OW22107   4.488   5.036   6.076
73425SOL    HW122108   4.399   5.038   6.112
73425SOL    HW222109   4.521   5.125   6.090
73426SOL     OW22110   5.407   0.939   8.750
73426SOL    HW122111   5.490   0.920   8.795
73426SOL    HW222112   5.433   0.980   8.668
73427SOL     OW22113   4.432  14.123  10.858
73427SOL    HW122114   4.341  14.151  10.865
73427SOL    HW222115   4.481  14.182  10.915
73428SOL     OW22116   7.363  10.737   8.781
73428SOL    HW122117   7.402  10.707   8.699
73428SOL    HW222118   7.348  10.658   8.832
73429SOL     OW22119   8.088  11.775   5.944
73429SOL    HW122120   8.134  11.808   5.867
73429SOL    HW222121   8.017  11.721   5.909
73430SOL     OW22122   2.523   8.923   9.067
73430SOL    HW122123   2.532   8.853   9.131
73430SOL    HW222124   2.429   8.932   9.053
73431SOL     OW22125  11.744   4.264  11.114
73431SOL    HW122126  11.751   4.200  11.042
73431SOL    HW222127  11.806   4.233  11.180
73432SOL     OW22128   2.796  12.226   3.303
73432SOL    HW122129   2.812  12.162   3.373
73432SOL    HW222130   2.837  12.307   3.335
73433SOL     OW22131   5.294   6.118   7.680
73433SOL    HW122132   5.239   6.181   7.634
73433SOL    HW222133   5.233   6.065   7.731
73434SOL     OW22134  11.476  13.256   5.151
73434SOL    HW122135  11.559  13.219   5.122
73434SOL    HW222136  11.463  13.333   5.095
73435SOL     OW22137   5.234  11.950   0.258
73435SOL    HW122138   5.260  11.923   0.346
73435SOL    HW222139   5.141  11.967   0.264
73436SOL     OW22140   4.147   6.468   8.630
73436SOL    HW122141   4.242   6.464   8.623
73436SOL    HW222142   4.126   6.561   8.629
73437SOL     OW22143  11.578  12.453  10.297
73437SOL    HW122144  11.617  12.527  10.251
73437SOL    HW222145  11.494  12.439  10.253
73438SOL     OW22146   6.522  12.947   4.369
73438SOL    HW122147   6.517  12.865   4.320
73438SOL    HW222148   6.452  12.941   4.434
73439SOL     OW22149   1.787   4.909   6.486
73439SOL    HW122150   1.752   4.873   6.404
73439SOL    HW222151   1.791   4.835   6.546
73440SOL     OW22152   8.135   0.075  10.885
73440SOL    HW122153   8.092  14.869  10.852
73440SOL    HW222154   8.138   0.134  10.810
73441SOL     OW22155  12.752   1.675  11.136
73441SOL    HW122156  12.783   1.737  11.069
73441SOL    HW222157  12.742   1.728  11.215
73442SOL     OW22158  11.622  11.169   5.517
73442SOL    HW122159  11.677  11.247   5.508
73442SOL    HW222160  11.608  11.161   5.611
73443SOL     OW22161   6.746  12.171   9.313
73443SOL    HW122162   6.777  12.261   9.308
73443SOL    HW222163   6.775  12.130   9.232
73444SOL     OW22164   4.348   5.880   0.984
73444SOL    HW122165   4.263   5.910   0.952
73444SOL    HW222166   4.411   5.942   0.948
73445SOL     OW22167   3.123   4.744  12.394
73445SOL    HW122168   3.076   4.752  12.311
73445SOL    HW222169   3.064   4.784  12.459
73446SOL     OW22170   1.977   6.884   6.547
73446SOL    HW122171   1.899   6.903   6.495
73446SOL    HW222172   2.019   6.969   6.558
73447SOL     OW22173   4.250  13.398   5.762
73447SOL    HW122174   4.284  13.322   5.810
73447SOL    HW222175   4.232  13.365   5.674
73448SOL     OW22176   6.593  12.834   1.484
73448SOL    HW122177   6.498  12.824   1.488
73448SOL    HW222178   6.614  12.822   1.391
73449SOL     OW22179   9.488  13.946   5.430
73449SOL    HW122180   9.486  13.854   5.403
73449SOL    HW222181   9.420  13.988   5.377
73450SOL     OW22182   7.733   2.709   9.231
73450SOL    HW122183   7.799   2.706   9.300
73450SOL    HW222184   7.657   2.665   9.270
73451SOL     OW22185   2.957   7.194   8.583
73451SOL    HW122186   2.923   7.283   8.595
73451SOL    HW222187   2.889   7.137   8.618
73452SOL     OW22188   3.197   2.819  10.789
73452SOL    HW122189   3.143   2.897  10.803
73452SOL    HW222190   3.152   2.770  10.720
73453SOL     OW22191   1.393   9.296   5.739
73453SOL    HW122192   1.375   9.258   5.652
73453SOL    HW222193   1.408   9.389   5.722
73454SOL     OW22194   6.433  10.491   5.229
73454SOL    HW122195   6.366  10.521   5.290
73454SOL    HW222196   6.443  10.398   5.247
73455SOL     OW22197  10.353   0.813  14.111
73455SOL    HW122198  10.351   0.760  14.031
73455SOL    HW222199  10.352   0.749  14.182
73456SOL     OW22200  10.847   4.028   4.560
73456SOL    HW122201  10.867   4.122   4.564
73456SOL    HW222202  10.763   4.020   4.606
73457SOL     OW22203   1.953  10.751   8.732
73457SOL    HW122204   1.933  10.688   8.663
73457SOL    HW222205   1.929  10.836   8.694
73458SOL     OW22206  14.782  13.359  10.378
73458SOL    HW122207  14.861  13.374  10.430
73458SOL    HW222208  14.718  13.421  10.415
73459SOL     OW22209   7.235   8.637   4.477
73459SOL    HW122210   7.237   8.620   4.383
73459SOL    HW222211   7.154   8.688   4.491
73460SOL     OW22212  11.534   5.335  10.303
73460SOL    HW122213  11.575   5.376  10.379
73460SOL    HW222214  11.516   5.245  10.330
73461SOL     OW22215   0.367   9.574   0.935
73461SOL    HW122216   0.320   9.494   0.957
73461SOL    HW222217   0.314   9.644   0.973
73462SOL     OW22218  11.815   4.162  13.007
73462SOL    HW122219  11.824   4.256  12.991
73462SOL    HW222220  11.769   4.129  12.930
73463SOL     OW22221   7.640   7.292  10.530
73463SOL    HW122222   7.688   7.251  10.602
73463SOL    HW222223   7.701   7.357  10.495
73464SOL     OW22224   4.083  10.764  11.108
73464SOL    HW122225   4.150  10.827  11.082
73464SOL    HW222226   4.000  10.806  11.084
73465SOL     OW22227  13.738   7.418   9.918
73465SOL    HW122228  13.764   7.507   9.944
73465SOL    HW222229  13.663   7.431   9.860
73466SOL     OW22230   6.104  12.038  11.857
73466SOL    HW122231   6.090  11.992  11.939
73466SOL    HW222232   6.199  12.043  11.848
73467SOL     OW22233  12.457   2.440   0.136
73467SOL    HW122234  12.473   2.464   0.228
73467SOL    HW222235  12.388   2.374   0.141
73468SOL     OW22236   0.162   1.909   4.142
73468SOL    HW122237   0.199   1.993   4.167
73468SOL    HW222238   0.117   1.926   4.059
73469SOL     OW22239   8.600   3.285   5.866
73469SOL    HW122240   8.552   3.337   5.801
73469SOL    HW222241   8.610   3.199   5.825
73470SOL     OW22242  10.456   9.812   6.456
73470SOL    HW122243  10.474   9.743   6.520
73470SOL    HW222244  10.457   9.893   6.507
73471SOL     OW22245  10.831   3.052   6.083
73471SOL    HW122246  10.817   3.057   5.989
73471SOL    HW222247  10.784   3.128   6.118
73472SOL     OW22248  14.701  14.469   8.875
73472SOL    HW122249  14.644  14.524   8.929
73472SOL    HW222250  14.646  14.442   8.802
73473SOL     OW22251   1.580  11.646  13.007
73473SOL    HW122252   1.567  11.702  12.930
73473SOL    HW222253   1.673  11.657  13.029
73474SOL     OW22254   0.863  10.719   9.773
73474SOL    HW122255   0.887  10.811   9.758
73474SOL    HW222256   0.804  10.722   9.849
73475SOL     OW22257   6.227   7.422  14.345
73475SOL    HW122258   6.315   7.446  14.374
73475SOL    HW222259   6.171   7.491  14.380
73476SOL     OW22260   1.053   5.297   0.149
73476SOL    HW122261   1.121   5.232   0.133
73476SOL    HW222262   1.086   5.378   0.109
73477SOL     OW22263   0.597  12.474  10.246
73477SOL    HW122264   0.682  12.447  10.283
73477SOL    HW222265   0.604  12.569  10.240
73478SOL     OW22266   2.124   2.249   9.528
73478SOL    HW122267   2.071   2.247   9.448
73478SOL    HW222268   2.211   2.274   9.498
73479SOL     OW22269   9.096   6.009   7.822
73479SOL    HW122270   9.028   5.979   7.882
73479SOL    HW222271   9.159   5.937   7.818
73480SOL     OW22272   1.915   3.180   9.651
73480SOL    HW122273   1.973   3.133   9.591
73480SOL    HW222274   1.827   3.150   9.629
73481SOL     OW22275  14.809  13.905  14.219
73481SOL    HW122276  14.763  13.823  14.203
73481SOL    HW222277  14.741  13.972  14.210
73482SOL     OW22278   2.932  11.676  13.326
73482SOL    HW122279   2.891  11.650  13.243
73482SOL    HW222280   2.963  11.766  13.311
73483SOL     OW22281  10.708   1.043   8.512
73483SOL    HW122282  10.771   1.079   8.575
73483SOL    HW222283  10.704   1.109   8.442
73484SOL     OW22284   7.086   0.905  12.412
73484SOL    HW122285   7.105   0.926  12.320
73484SOL    HW222286   7.172   0.895  12.452
73485SOL     OW22287   5.605   9.433   4.162
73485SOL    HW122288   5.608   9.475   4.076
73485SOL    HW222289   5.613   9.339   4.144
73486SOL     OW22290   4.273  13.195   7.874
73486SOL    HW122291   4.335  13.229   7.810
73486SOL    HW222292   4.197  13.252   7.866
73487SOL     OW22293   4.174   4.458  11.253
73487SOL    HW122294   4.130   4.407  11.322
73487SOL    HW222295   4.147   4.548  11.269
73488SOL     OW22296  14.269  10.889  14.475
73488SOL    HW122297  14.177  10.898  14.503
73488SOL    HW222298  14.270  10.923  14.385
73489SOL     OW22299   0.917   0.584  14.290
73489SOL    HW122300   0.928   0.498  14.251
73489SOL    HW222301   0.908   0.567  14.384
73490SOL     OW22302   1.373   4.774  10.395
73490SOL    HW122303   1.337   4.829  10.465
73490SOL    HW222304   1.334   4.809  10.315
73491SOL     OW22305   4.538   5.103  13.814
73491SOL    HW122306   4.567   5.018  13.781
73491SOL    HW222307   4.448   5.088  13.843
73492SOL     OW22308   5.210   5.945   5.426
73492SOL    HW122309   5.226   5.998   5.347
73492SOL    HW222310   5.164   5.868   5.394
73493SOL     OW22311  13.607   5.539   9.705
73493SOL    HW122312  13.686   5.590   9.688
73493SOL    HW222313  13.544   5.603   9.738
73494SOL     OW22314   3.556   0.953   0.237
73494SOL    HW122315   3.535   0.939   0.330
73494SOL    HW222316   3.634   0.899   0.222
73495SOL     OW22317   3.442   9.010  11.283
73495SOL    HW122318   3.415   8.967  11.201
73495SOL    HW222319   3.532   9.037  11.267
73496SOL     OW22320   3.548   5.742   1.734
73496SOL    HW122321   3.501   5.662   1.710
73496SOL    HW222322   3.638   5.726   1.708
73497SOL     OW22323   5.519   1.479  11.585
73497SOL    HW122324   5.474   1.460  11.667
73497SOL    HW222325   5.570   1.558  11.603
73498SOL     OW22326   9.081   3.896   7.205
73498SOL    HW122327   9.107   3.953   7.279
73498SOL    HW222328   9.163   3.853   7.179
73499SOL     OW22329  13.847   8.879   3.533
73499SOL    HW122330  13.917   8.908   3.474
73499SOL    HW222331  13.893   8.830   3.602
73500SOL     OW22332   0.341   3.149  11.090
73500SOL    HW122333   0.289   3.225  11.116
73500SOL    HW222334   0.343   3.154  10.994
73501SOL     OW22335   3.216   8.697   8.920
73501SOL    HW122336   3.160   8.619   8.929
73501SOL    HW222337   3.285   8.685   8.984
73502SOL     OW22338  11.381  10.857   9.732
73502SOL    HW122339  11.416  10.923   9.792
73502SOL    HW222340  11.297  10.831   9.771
73503SOL     OW22341   0.290  14.719   1.535
73503SOL    HW122342   0.208  14.709   1.487
73503SOL    HW222343   0.357  14.688   1.475
73504SOL     OW22344   0.969   6.051   8.382
73504SOL    HW122345   0.962   5.956   8.378
73504SOL    HW222346   1.042   6.072   8.324
73505SOL     OW22347   1.702   4.422   5.228
73505SOL    HW122348   1.670   4.478   5.158
73505SOL    HW222349   1.768   4.475   5.273
73506SOL     OW22350   8.530   2.732  13.419
73506SOL    HW122351   8.492   2.648  13.441
73506SOL    HW222352   8.563   2.767  13.502
73507SOL     OW22353   6.185  10.132   5.571
73507SOL    HW122354   6.135  10.176   5.639
73507SOL    HW222355   6.269  10.177   5.570
73508SOL     OW22356  11.019   6.665   0.191
73508SOL    HW122357  10.952   6.709   0.139
73508SOL    HW222358  11.046   6.590   0.138
73509SOL     OW22359   1.364  13.956   0.662
73509SOL    HW122360   1.447  13.923   0.629
73509SOL    HW222361   1.341  14.027   0.602
73510SOL     OW22362   3.270  14.303  14.633
73510SOL    HW122363   3.195  14.363  14.634
73510SOL    HW222364   3.301  14.302  14.723
73511SOL     OW22365   7.998  10.926  12.233
73511SOL    HW122366   7.946  10.898  12.158
73511SOL    HW222367   8.021  10.845  12.278
73512SOL     OW22368   7.183   5.490  11.736
73512SOL    HW122369   7.275   5.516  11.726
73512SOL    HW222370   7.183   5.430  11.811
73513SOL     OW22371  10.689   5.746  11.557
73513SOL    HW122372  10.699   5.820  11.618
73513SOL    HW222373  10.777   5.733  11.522
73514SOL     OW22374   8.688   4.253   5.840
73514SOL    HW122375   8.618   4.251   5.775
73514SOL    HW222376   8.643   4.262   5.924
73515SOL     OW22377   9.284   1.391   5.260
73515SOL    HW122378   9.364   1.348   5.230
73515SOL    HW222379   9.222   1.319   5.275
73516SOL     OW22380  11.601   1.947   2.152
73516SOL    HW122381  11.512   1.909   2.149
73516SOL    HW222382  11.587   2.039   2.175
73517SOL     OW22383  10.443  12.784   4.365
73517SOL    HW122384  10.400  12.823   4.441
73517SOL    HW222385  10.381  12.718   4.333
73518SOL     OW22386   0.640   9.213   9.524
73518SOL    HW122387   0.566   9.251   9.476
73518SOL    HW222388   0.608   9.127   9.553
73519SOL     OW22389   0.261  13.552   9.243
73519SOL    HW122390   0.220  13.481   9.294
73519SOL    HW222391   0.246  13.630   9.296
73520SOL     OW22392   9.939   9.099   8.346
73520SOL    HW122393   9.851   9.068   8.326
73520SOL    HW222394   9.949   9.177   8.292
73521SOL     OW22395  10.022   4.372  13.616
73521SOL    HW122396  10.031   4.463  13.586
73521SOL    HW222397   9.979   4.327  13.543
73522SOL     OW22398  12.027   5.525  14.121
73522SOL    HW122399  11.969   5.480  14.182
73522SOL    HW222400  12.114   5.517  14.160
73523SOL     OW22401   9.213  11.347   7.532
73523SOL    HW122402   9.297  11.376   7.569
73523SOL    HW222403   9.156  11.424   7.540
73524SOL     OW22404   5.470   0.127   8.873
73524SOL    HW122405   5.434   0.212   8.896
73524SOL    HW222406   5.479   0.081   8.956
73525SOL     OW22407  10.954   0.262   0.551
73525SOL    HW122408  10.867   0.257   0.510
73525SOL    HW222409  11.015   0.246   0.479
73526SOL     OW22410   0.743  10.124   6.351
73526SOL    HW122411   0.651  10.126   6.326
73526SOL    HW222412   0.784  10.066   6.286
73527SOL     OW22413  13.172   7.015   3.659
73527SOL    HW122414  13.189   7.094   3.607
73527SOL    HW222415  13.098   7.038   3.715
73528SOL     OW22416   3.788   8.260   5.772
73528SOL    HW122417   3.865   8.227   5.726
73528SOL    HW222418   3.815   8.345   5.806
73529SOL     OW22419   5.625   4.314   6.824
73529SOL    HW122420   5.555   4.304   6.759
73529SOL    HW222421   5.705   4.292   6.777
73530SOL     OW22422   2.371   0.650  11.556
73530SOL    HW122423   2.452   0.700  11.569
73530SOL    HW222424   2.343   0.626  11.644
73531SOL     OW22425   2.571   5.711   3.578
73531SOL    HW122426   2.482   5.698   3.610
73531SOL    HW222427   2.589   5.636   3.522
73532SOL     OW22428   5.791   5.304   2.063
73532SOL    HW122429   5.709   5.352   2.077
73532SOL    HW222430   5.770   5.241   1.993
73533SOL     OW22431   0.878   5.228  13.865
73533SOL    HW122432   0.847   5.258  13.779
73533SOL    HW222433   0.848   5.137  13.870
73534SOL     OW22434   6.291   0.521   3.786
73534SOL    HW122435   6.325   0.607   3.808
73534SOL    HW222436   6.367   0.463   3.790
73535SOL     OW22437   4.703   6.863   1.400
73535SOL    HW122438   4.788   6.857   1.444
73535SOL    HW222439   4.724   6.874   1.307
73536SOL     OW22440  10.398   9.174   9.273
73536SOL    HW122441  10.371   9.085   9.252
73536SOL    HW222442  10.479   9.187   9.222
73537SOL     OW22443   7.201   7.821  10.711
73537SOL    HW122444   7.171   7.731  10.725
73537SOL    HW222445   7.122   7.869  10.686
73538SOL     OW22446   8.504   0.610   8.944
73538SOL    HW122447   8.487   0.550   8.872
73538SOL    HW222448   8.585   0.579   8.983
73539SOL     OW22449  14.428  12.897   9.816
73539SOL    HW122450  14.489  12.967   9.795
73539SOL    HW222451  14.465  12.854   9.893
73540SOL     OW22452   9.665  11.583  14.428
73540SOL    HW122453   9.698  11.623  14.348
73540SOL    HW222454   9.570  11.581  14.417
73541SOL     OW22455   7.440  10.583   3.113
73541SOL    HW122456   7.459  10.649   3.180
73541SOL    HW222457   7.348  10.596   3.092
73542SOL     OW22458  11.922   7.950   7.385
73542SOL    HW122459  11.974   7.875   7.412
73542SOL    HW222460  11.986   8.016   7.359
73543SOL     OW22461   7.459   2.230  11.983
73543SOL    HW122462   7.370   2.220  11.951
73543SOL    HW222463   7.449   2.264  12.072
73544SOL     OW22464   9.295   1.061  11.114
73544SOL    HW122465   9.208   1.029  11.092
73544SOL    HW222466   9.313   1.023  11.200
73545SOL     OW22467  10.043   5.445   3.845
73545SOL    HW122468  10.096   5.524   3.844
73545SOL    HW222469   9.955   5.474   3.822
73546SOL     OW22470   8.610   3.858   0.193
73546SOL    HW122471   8.694   3.829   0.158
73546SOL    HW222472   8.569   3.778   0.228
73547SOL     OW22473   4.185   8.635  13.519
73547SOL    HW122474   4.237   8.567  13.476
73547SOL    HW222475   4.182   8.707  13.456
73548SOL     OW22476   5.063  10.114   2.043
73548SOL    HW122477   5.064  10.168   1.963
73548SOL    HW222478   5.039  10.175   2.113
73549SOL     OW22479   8.087   4.524   7.372
73549SOL    HW122480   8.135   4.500   7.451
73549SOL    HW222481   7.996   4.501   7.392
73550SOL     OW22482  10.265   2.782  11.963
73550SOL    HW122483  10.255   2.703  12.016
73550SOL    HW222484  10.352   2.816  11.986
73551SOL     OW22485   8.827   0.079  12.123
73551SOL    HW122486   8.922   0.082  12.108
73551SOL    HW222487   8.793   0.027  12.050
73552SOL     OW22488  12.492  12.732   1.400
73552SOL    HW122489  12.502  12.736   1.305
73552SOL    HW222490  12.407  12.690   1.413
73553SOL     OW22491  13.622   5.484   8.943
73553SOL    HW122492  13.560   5.551   8.916
73553SOL    HW222493  13.683   5.529   9.002
73554SOL     OW22494   9.458   3.347  11.070
73554SOL    HW122495   9.371   3.372  11.102
73554SOL    HW222496   9.495   3.293  11.140
73555SOL     OW22497   1.014  13.092   0.633
73555SOL    HW122498   0.971  13.047   0.560
73555SOL    HW222499   1.054  13.170   0.594
73556SOL     OW22500   5.518   3.104   7.484
73556SOL    HW122501   5.607   3.117   7.517
73556SOL    HW222502   5.529   3.049   7.406
73557SOL     OW22503   6.319   4.527   3.945
73557SOL    HW122504   6.246   4.471   3.974
73557SOL    HW222505   6.289   4.563   3.862
73558SOL     OW22506   2.202  12.884   6.241
73558SOL    HW122507   2.188  12.951   6.174
73558SOL    HW222508   2.205  12.931   6.324
73559SOL     OW22509   7.205  10.528   1.466
73559SOL    HW122510   7.196  10.433   1.468
73559SOL    HW222511   7.160  10.558   1.545
73560SOL     OW22512   8.636   7.282  14.835
73560SOL    HW122513   8.713   7.333  14.858
73560SOL    HW222514   8.614   7.234   0.042
73561SOL     OW22515   4.316  10.374  11.481
73561SOL    HW122516   4.247  10.362  11.416
73561SOL    HW222517   4.311  10.296  11.537
73562SOL     OW22518  13.402  11.793   1.221
73562SOL    HW122519  13.428  11.830   1.305
73562SOL    HW222520  13.484  11.790   1.171
73563SOL     OW22521   6.445   1.949   2.348
73563SOL    HW122522   6.362   1.981   2.312
73563SOL    HW222523   6.454   1.996   2.431
73564SOL     OW22524   3.067   4.692  13.400
73564SOL    HW122525   3.081   4.665  13.310
73564SOL    HW222526   3.155   4.699  13.437
73565SOL     OW22527   2.671   4.848  13.218
73565SOL    HW122528   2.730   4.825  13.146
73565SOL    HW222529   2.609   4.910  13.180
73566SOL     OW22530   2.874   5.236   2.904
73566SOL    HW122531   2.967   5.247   2.919
73566SOL    HW222532   2.834   5.316   2.937
73567SOL     OW22533  10.337  11.147  12.346
73567SOL    HW122534  10.391  11.071  12.366
73567SOL    HW222535  10.290  11.165  12.428
73568SOL     OW22536  12.813  11.088   6.564
73568SOL    HW122537  12.784  11.172   6.600
73568SOL    HW222538  12.852  11.110   6.479
73569SOL     OW22539   1.854   1.725   1.710
73569SOL    HW122540   1.871   1.817   1.692
73569SOL    HW222541   1.890   1.710   1.798
73570SOL     OW22542   0.451   9.068   8.572
73570SOL    HW122543   0.388   9.076   8.644
73570SOL    HW222544   0.401   9.025   8.502
73571SOL     OW22545   6.446  10.794   1.465
73571SOL    HW122546   6.410  10.725   1.521
73571SOL    HW222547   6.411  10.875   1.502
73572SOL     OW22548   5.872  13.924   1.446
73572SOL    HW122549   5.961  13.959   1.446
73572SOL    HW222550   5.871  13.861   1.374
73573SOL     OW22551   1.425  12.512  10.834
73573SOL    HW122552   1.376  12.519  10.916
73573SOL    HW222553   1.482  12.590  10.833
73574SOL     OW22554   2.042   4.580   7.180
73574SOL    HW122555   2.068   4.540   7.097
73574SOL    HW222556   2.018   4.669   7.157
73575SOL     OW22557  11.651  14.850  11.957
73575SOL    HW122558  11.644   0.012  12.046
73575SOL    HW222559  11.564  14.865  11.918
73576SOL     OW22560  12.199   6.832   1.412
73576SOL    HW122561  12.138   6.760   1.425
73576SOL    HW222562  12.189   6.856   1.319
73577SOL     OW22563   0.169   9.214   3.407
73577SOL    HW122564   0.200   9.212   3.498
73577SOL    HW222565   0.113   9.292   3.403
73578SOL     OW22566   6.565   9.468   3.357
73578SOL    HW122567   6.630   9.480   3.426
73578SOL    HW222568   6.574   9.546   3.302
73579SOL     OW22569  12.608   0.618   9.012
73579SOL    HW122570  12.664   0.688   8.980
73579SOL    HW222571  12.652   0.537   8.985
73580SOL     OW22572  12.318   5.896  11.474
73580SOL    HW122573  12.236   5.851  11.494
73580SOL    HW222574  12.327   5.962  11.543
73581SOL     OW22575  14.724  11.965   5.495
73581SOL    HW122576  14.780  11.960   5.573
73581SOL    HW222577  14.775  11.920   5.427
73582SOL     OW22578   0.006   5.768   4.664
73582SOL    HW122579   0.004   5.854   4.706
73582SOL    HW222580  14.796   5.762   4.617
73583SOL     OW22581   5.494  11.361   9.071
73583SOL    HW122582   5.559  11.318   9.016
73583SOL    HW222583   5.516  11.334   9.160
73584SOL     OW22584   8.885   3.368  10.374
73584SOL    HW122585   8.965   3.351  10.325
73584SOL    HW222586   8.879   3.464  10.378
73585SOL     OW22587   3.746  10.803  13.651
73585SOL    HW122588   3.707  10.887  13.675
73585SOL    HW222589   3.727  10.794  13.557
73586SOL     OW22590  10.425   8.908  13.507
73586SOL    HW122591  10.339   8.934  13.472
73586SOL    HW222592  10.409   8.823  13.549
73587SOL     OW22593  14.364   1.955   1.566
73587SOL    HW122594  14.420   2.022   1.605
73587SOL    HW222595  14.318   2.000   1.496
73588SOL     OW22596   3.913   3.915   4.492
73588SOL    HW122597   3.830   3.900   4.538
73588SOL    HW222598   3.888   3.947   4.406
73589SOL     OW22599  13.994   0.604  13.865
73589SOL    HW122600  13.941   0.672  13.823
73589SOL    HW222601  14.056   0.653  13.920
73590SOL     OW22602   9.125   6.256   9.730
73590SOL    HW122603   9.171   6.197   9.790
73590SOL    HW222604   9.152   6.343   9.757
73591SOL     OW22605   6.851  13.260   1.110
73591SOL    HW122606   6.862  13.190   1.175
73591SOL    HW222607   6.870  13.340   1.158
73592SOL     OW22608  10.791   7.418  10.293
73592SOL    HW122609  10.702   7.454  10.292
73592SOL    HW222610  10.844   7.484  10.248
73593SOL     OW22611   6.851   2.000  10.121
73593SOL    HW122612   6.892   1.940  10.184
73593SOL    HW222613   6.814   1.942  10.054
73594SOL     OW22614   1.004   3.980   0.993
73594SOL    HW122615   1.082   3.936   0.959
73594SOL    HW222616   0.982   3.932   1.072
73595SOL     OW22617   4.952  10.449   2.590
73595SOL    HW122618   4.883  10.491   2.641
73595SOL    HW222619   5.018  10.425   2.655
73596SOL     OW22620   7.067   7.652   7.318
73596SOL    HW122621   7.065   7.562   7.284
73596SOL    HW222622   7.108   7.703   7.248
73597SOL     OW22623   6.445   8.610   9.435
73597SOL    HW122624   6.400   8.650   9.360
73597SOL    HW222625   6.520   8.667   9.452
73598SOL     OW22626  10.967   8.042   4.517
73598SOL    HW122627  10.975   8.094   4.597
73598SOL    HW222628  10.959   7.952   4.547
73599SOL     OW22629   7.086   7.710   6.385
73599SOL    HW122630   7.168   7.676   6.423
73599SOL    HW222631   7.115   7.767   6.313
73600SOL     OW22632   0.867  10.893  11.179
73600SOL    HW122633   0.907  10.876  11.264
73600SOL    HW222634   0.917  10.966  11.143
73601SOL     OW22635   5.568   2.049  13.992
73601SOL    HW122636   5.519   2.112  14.044
73601SOL    HW222637   5.501   1.996  13.949
73602SOL     OW22638   7.497   2.033   5.908
73602SOL    HW122639   7.403   2.045   5.924
73602SOL    HW222640   7.516   1.944   5.938
73603SOL     OW22641   9.113  12.585  12.532
73603SOL    HW122642   9.022  12.555  12.529
73603SOL    HW222643   9.147  12.568  12.444
73604SOL     OW22644  13.698   8.825  10.653
73604SOL    HW122645  13.692   8.858  10.742
73604SOL    HW222646  13.755   8.886  10.607
73605SOL     OW22647  13.165   1.704   9.646
73605SOL    HW122648  13.203   1.635   9.592
73605SOL    HW222649  13.239   1.759   9.671
73606SOL     OW22650   8.746  10.985  10.703
73606SOL    HW122651   8.728  10.891  10.702
73606SOL    HW222652   8.677  11.024  10.650
73607SOL     OW22653  13.953  10.007   2.518
73607SOL    HW122654  13.962   9.914   2.497
73607SOL    HW222655  13.981  10.052   2.439
73608SOL     OW22656   9.002   8.213   4.373
73608SOL    HW122657   8.976   8.188   4.285
73608SOL    HW222658   8.991   8.133   4.425
73609SOL     OW22659  11.587   2.766   8.459
73609SOL    HW122660  11.670   2.747   8.416
73609SOL    HW222661  11.549   2.838   8.408
73610SOL     OW22662   2.048   4.907   2.068
73610SOL    HW122663   2.114   4.848   2.031
73610SOL    HW222664   2.068   4.909   2.161
73611SOL     OW22665   1.668   8.862  14.515
73611SOL    HW122666   1.674   8.766  14.511
73611SOL    HW222667   1.619   8.886  14.437
73612SOL     OW22668  14.335  11.222  14.434
73612SOL    HW122669  14.345  11.314  14.455
73612SOL    HW222670  14.314  11.220  14.341
73613SOL     OW22671  13.492   3.175   9.451
73613SOL    HW122672  13.488   3.232   9.374
73613SOL    HW222673  13.532   3.094   9.419
73614SOL     OW22674  11.140  10.429   8.087
73614SOL    HW122675  11.227  10.414   8.049
73614SOL    HW222676  11.137  10.523   8.102
73615SOL     OW22677   0.330  11.488   4.466
73615SOL    HW122678   0.245  11.476   4.507
73615SOL    HW222679   0.366  11.400   4.458
73616SOL     OW22680   4.756   3.363   6.626
73616SOL    HW122681   4.717   3.281   6.596
73616SOL    HW222682   4.793   3.342   6.711
73617SOL     OW22683   9.636   1.552   1.069
73617SOL    HW122684   9.562   1.563   1.010
73617SOL    HW222685   9.649   1.458   1.075
73618SOL     OW22686   0.646   9.101  13.049
73618SOL    HW122687   0.707   9.163  13.009
73618SOL    HW222688   0.565   9.110  12.999
73619SOL     OW22689  11.374   4.605  14.740
73619SOL    HW122690  11.428   4.590  14.817
73619SOL    HW222691  11.395   4.532  14.682
73620SOL     OW22692   9.438   0.102   4.924
73620SOL    HW122693   9.485   0.039   4.870
73620SOL    HW222694   9.361   0.055   4.955
73621SOL     OW22695   1.880  11.410   2.689
73621SOL    HW122696   1.924  11.331   2.720
73621SOL    HW222697   1.890  11.473   2.761
73622SOL     OW22698   3.146   9.615  14.396
73622SOL    HW122699   3.231   9.602  14.437
73622SOL    HW222700   3.129   9.709  14.405
73623SOL     OW22701   7.712  12.483   5.960
73623SOL    HW122702   7.671  12.477   5.874
73623SOL    HW222703   7.803  12.456   5.946
73624SOL     OW22704  13.398  13.067   8.524
73624SOL    HW122705  13.350  13.045   8.604
73624SOL    HW222706  13.429  12.982   8.490
73625SOL     OW22707   5.551  13.047   8.997
73625SOL    HW122708   5.550  12.968   8.943
73625SOL    HW222709   5.542  13.119   8.934
73626SOL     OW22710   1.538   1.058   8.432
73626SOL    HW122711   1.462   1.067   8.374
73626SOL    HW222712   1.593   1.134   8.412
73627SOL     OW22713   1.750   0.395   0.261
73627SOL    HW122714   1.818   0.342   0.221
73627SOL    HW222715   1.728   0.350   0.343
73628SOL     OW22716   3.527   2.054   4.162
73628SOL    HW122717   3.480   2.123   4.211
73628SOL    HW222718   3.458   1.993   4.136
73629SOL     OW22719   8.670  14.704   8.095
73629SOL    HW122720   8.579  14.687   8.070
73629SOL    HW222721   8.712  14.735   8.014
73630SOL     OW22722   8.352   1.146  10.845
73630SOL    HW122723   8.261   1.172  10.853
73630SOL    HW222724   8.350   1.073  10.783
73631SOL     OW22725   3.921  10.207   3.153
73631SOL    HW122726   3.872  10.234   3.231
73631SOL    HW222727   3.988  10.273   3.142
73632SOL     OW22728  10.977   9.424   6.439
73632SOL    HW122729  11.066   9.400   6.415
73632SOL    HW222730  10.955   9.497   6.381
73633SOL     OW22731   9.878   9.961   9.269
73633SOL    HW122732   9.810   9.894   9.279
73633SOL    HW222733   9.847  10.016   9.197
73634SOL     OW22734   9.456   5.442  10.152
73634SOL    HW122735   9.469   5.381  10.080
73634SOL    HW222736   9.483   5.394  10.230
73635SOL     OW22737   4.853   3.892  12.292
73635SOL    HW122738   4.866   3.921  12.201
73635SOL    HW222739   4.869   3.971  12.344
73636SOL     OW22740   6.749  10.804   3.987
73636SOL    HW122741   6.764  10.877   3.926
73636SOL    HW222742   6.657  10.811   4.011
73637SOL     OW22743   9.436   7.252   9.960
73637SOL    HW122744   9.393   7.238   9.876
73637SOL    HW222745   9.425   7.170  10.007
73638SOL     OW22746   6.945   7.693   2.056
73638SOL    HW122747   7.004   7.644   1.998
73638SOL    HW222748   6.997   7.767   2.086
73639SOL     OW22749   2.204   8.031  10.497
73639SOL    HW122750   2.139   8.034  10.428
73639SOL    HW222751   2.161   7.983  10.568
73640SOL     OW22752   1.754   0.592   2.206
73640SOL    HW122753   1.704   0.623   2.281
73640SOL    HW222754   1.811   0.524   2.242
73641SOL     OW22755  10.967   9.773  12.932
73641SOL    HW122756  10.997   9.688  12.901
73641SOL    HW222757  10.890   9.792  12.878
73642SOL     OW22758  13.376  11.492  12.205
73642SOL    HW122759  13.294  11.541  12.213
73642SOL    HW222760  13.352  11.414  12.155
73643SOL     OW22761   3.118   6.579  11.723
73643SOL    HW122762   3.089   6.580  11.632
73643SOL    HW222763   3.079   6.499  11.760
73644SOL     OW22764   1.418   7.689  14.110
73644SOL    HW122765   1.401   7.779  14.081
73644SOL    HW222766   1.502   7.694  14.155
73645SOL     OW22767  13.699   0.730  14.647
73645SOL    HW122768  13.621   0.784  14.634
73645SOL    HW222769  13.768   0.793  14.666
73646SOL     OW22770   9.424   7.572  12.962
73646SOL    HW122771   9.488   7.601  12.897
73646SOL    HW222772   9.444   7.480  12.975
73647SOL     OW22773   1.827   0.611   6.751
73647SOL    HW122774   1.737   0.578   6.743
73647SOL    HW222775   1.822   0.700   6.715
73648SOL     OW22776   5.108  11.864   9.829
73648SOL    HW122777   5.030  11.814   9.808
73648SOL    HW222778   5.173  11.798   9.853
73649SOL     OW22779   0.380   3.641   2.597
73649SOL    HW122780   0.368   3.549   2.620
73649SOL    HW222781   0.462   3.666   2.640
73650SOL     OW22782   8.679  10.236   0.517
73650SOL    HW122783   8.595  10.250   0.560
73650SOL    HW222784   8.667  10.156   0.466
73651SOL     OW22785  10.602   2.894   3.455
73651SOL    HW122786  10.533   2.881   3.389
73651SOL    HW222787  10.575   2.840   3.529
73652SOL     OW22788  14.738   8.171   1.576
73652SOL    HW122789  14.698   8.196   1.493
73652SOL    HW222790  14.670   8.189   1.641
73653SOL     OW22791  10.043   1.694   8.472
73653SOL    HW122792  10.021   1.744   8.550
73653SOL    HW222793  10.123   1.734   8.439
73654SOL     OW22794   0.161   1.086   7.107
73654SOL    HW122795   0.228   1.022   7.084
73654SOL    HW222796   0.198   1.170   7.080
73655SOL     OW22797   3.012   6.990   5.365
73655SOL    HW122798   3.062   6.909   5.361
73655SOL    HW222799   3.078   7.058   5.378
73656SOL     OW22800   8.200   6.175  13.916
73656SOL    HW122801   8.165   6.259  13.887
73656SOL    HW222802   8.211   6.184  14.010
73657SOL     OW22803   8.415  13.366  11.226
73657SOL    HW122804   8.380  13.375  11.137
73657SOL    HW222805   8.418  13.456  11.259
73658SOL     OW22806   2.934   8.239  11.740
73658SOL    HW122807   2.912   8.206  11.827
73658SOL    HW222808   2.866   8.304  11.721
73659SOL     OW22809  14.119  10.685   4.458
73659SOL    HW122810  14.125  10.762   4.401
73659SOL    HW222811  14.122  10.610   4.398
73660SOL     OW22812   3.068   1.580   9.721
73660SOL    HW122813   3.069   1.652   9.784
73660SOL    HW222814   2.976   1.574   9.695
73661SOL     OW22815   8.162   2.299   3.379
73661SOL    HW122816   8.253   2.322   3.400
73661SOL    HW222817   8.161   2.203   3.377
73662SOL     OW22818   1.233   1.862  13.010
73662SOL    HW122819   1.320   1.897  13.030
73662SOL    HW222820   1.233   1.849  12.916
73663SOL     OW22821   2.424  11.914   2.494
73663SOL    HW122822   2.461  11.944   2.411
73663SOL    HW222823   2.365  11.843   2.470
73664SOL     OW22824   6.878   5.390   3.636
73664SOL    HW122825   6.797   5.439   3.628
73664SOL    HW222826   6.854   5.311   3.685
73665SOL     OW22827   1.372   2.772   4.988
73665SOL    HW122828   1.300   2.756   4.927
73665SOL    HW222829   1.420   2.846   4.950
73666SOL     OW22830   2.790   1.552   7.862
73666SOL    HW122831   2.792   1.504   7.779
73666SOL    HW222832   2.726   1.622   7.847
73667SOL     OW22833  14.730   2.366   3.277
73667SOL    HW122834  14.688   2.282   3.260
73667SOL    HW222835  14.666   2.431   3.249
73668SOL     OW22836   6.980   7.262   1.127
73668SOL    HW122837   6.901   7.294   1.171
73668SOL    HW222838   6.993   7.175   1.164
73669SOL     OW22839   0.622   9.752  10.528
73669SOL    HW122840   0.670   9.813  10.584
73669SOL    HW222841   0.612   9.799  10.445
73670SOL     OW22842  11.979   7.608   4.502
73670SOL    HW122843  12.034   7.643   4.573
73670SOL    HW222844  12.036   7.546   4.457
73671SOL     OW22845   5.745  11.322   2.595
73671SOL    HW122846   5.811  11.346   2.529
73671SOL    HW222847   5.661  11.344   2.554
73672SOL     OW22848  11.515   0.507   9.870
73672SOL    HW122849  11.442   0.507   9.932
73672SOL    HW222850  11.542   0.415   9.866
73673SOL     OW22851   1.095  14.392   6.248
73673SOL    HW122852   1.035  14.439   6.306
73673SOL    HW222853   1.077  14.427   6.161
73674SOL     OW22854   0.592  11.522  11.694
73674SOL    HW122855   0.529  11.520  11.766
73674SOL    HW222856   0.603  11.615  11.675
73675SOL     OW22857  13.655   0.886  13.686
73675SOL    HW122858  13.713   0.935  13.628
73675SOL    HW222859  13.567   0.909  13.657
73676SOL     OW22860  14.019   6.470   5.833
73676SOL    HW122861  14.071   6.551   5.832
73676SOL    HW222862  14.082   6.401   5.812
73677SOL     OW22863   0.722  11.021   3.371
73677SOL    HW122864   0.815  11.042   3.381
73677SOL    HW222865   0.682  11.053   3.453
73678SOL     OW22866  14.829   1.252   2.600
73678SOL    HW122867  14.753   1.202   2.628
73678SOL    HW222868  14.846   1.313   2.672
73679SOL     OW22869   4.465  13.171   4.604
73679SOL    HW122870   4.466  13.122   4.686
73679SOL    HW222871   4.398  13.239   4.618
73680SOL     OW22872   6.356   5.583   9.715
73680SOL    HW122873   6.298   5.521   9.759
73680SOL    HW222874   6.382   5.645   9.784
73681SOL     OW22875  13.513  14.179   7.143
73681SOL    HW122876  13.486  14.139   7.226
73681SOL    HW222877  13.557  14.260   7.169
73682SOL     OW22878   7.660  10.862   3.896
73682SOL    HW122879   7.700  10.944   3.866
73682SOL    HW222880   7.734  10.807   3.919
73683SOL     OW22881   9.630   3.773   3.489
73683SOL    HW122882   9.695   3.703   3.486
73683SOL    HW222883   9.570   3.754   3.417
73684SOL     OW22884   9.235  11.368  11.578
73684SOL    HW122885   9.155  11.388  11.529
73684SOL    HW222886   9.223  11.277  11.606
73685SOL     OW22887   0.691  12.548   8.372
73685SOL    HW122888   0.747  12.501   8.310
73685SOL    HW222889   0.728  12.636   8.377
73686SOL     OW22890   7.106   9.859   4.614
73686SOL    HW122891   7.201   9.861   4.617
73686SOL    HW222892   7.084   9.772   4.580
73687SOL     OW22893  12.362   3.391   1.206
73687SOL    HW122894  12.398   3.302   1.201
73687SOL    HW222895  12.370   3.415   1.298
73688SOL     OW22896  14.235  10.665  14.702
73688SOL    HW122897  14.182  10.658  14.622
73688SOL    HW222898  14.264  10.575  14.719
73689SOL     OW22899   4.106   1.232   7.608
73689SOL    HW122900   4.036   1.212   7.670
73689SOL    HW222901   4.069   1.208   7.523
73690SOL     OW22902  11.832   9.386  10.513
73690SOL    HW122903  11.837   9.464  10.456
73690SOL    HW222904  11.797   9.317  10.456
73691SOL     OW22905   8.418  12.821  11.153
73691SOL    HW122906   8.397  12.909  11.121
73691SOL    HW222907   8.332  12.780  11.167
73692SOL     OW22908  13.596  10.547   2.041
73692SOL    HW122909  13.649  10.469   2.028
73692SOL    HW222910  13.649  10.602   2.099
73693SOL     OW22911   9.013   4.682   8.034
73693SOL    HW122912   9.060   4.741   7.975
73693SOL    HW222913   9.076   4.613   8.055
73694SOL     OW22914   0.691   5.085   8.004
73694SOL    HW122915   0.662   5.110   8.092
73694SOL    HW222916   0.637   5.136   7.945
73695SOL     OW22917  12.734   2.211   7.516
73695SOL    HW122918  12.825   2.187   7.500
73695SOL    HW222919  12.720   2.289   7.463
73696SOL     OW22920   7.948  11.924  11.972
73696SOL    HW122921   7.965  11.909  12.065
73696SOL    HW222922   7.967  12.017  11.958
73697SOL     OW22923   4.947   2.700  10.427
73697SOL    HW122924   4.953   2.632  10.494
73697SOL    HW222925   4.974   2.656  10.346
73698SOL     OW22926   9.672   8.256   3.791
73698SOL    HW122927   9.617   8.214   3.725
73698SOL    HW222928   9.658   8.205   3.870
73699SOL     OW22929   8.545   8.253  10.812
73699SOL    HW122930   8.599   8.174  10.814
73699SOL    HW222931   8.537   8.275  10.720
73700SOL     OW22932   6.691  12.436  10.976
73700SOL    HW122933   6.654  12.356  11.015
73700SOL    HW222934   6.781  12.438  11.007
73701SOL     OW22935  13.253  13.697  13.991
73701SOL    HW122936  13.197  13.637  13.942
73701SOL    HW222937  13.333  13.702  13.940
73702SOL     OW22938   6.496   3.375   7.940
73702SOL    HW122939   6.478   3.452   7.886
73702SOL    HW222940   6.525   3.410   8.024
73703SOL     OW22941  14.669   4.779  13.009
73703SOL    HW122942  14.738   4.714  13.018
73703SOL    HW222943  14.709   4.849  12.956
73704SOL     OW22944   9.424   5.453   1.040
73704SOL    HW122945   9.357   5.386   1.029
73704SOL    HW222946   9.380   5.535   1.014
73705SOL     OW22947  10.391  10.459  12.204
73705SOL    HW122948  10.429  10.371  12.190
73705SOL    HW222949  10.299  10.449  12.180
73706SOL     OW22950  12.606   8.190   2.465
73706SOL    HW122951  12.593   8.278   2.431
73706SOL    HW222952  12.561   8.133   2.403
73707SOL     OW22953   6.006  13.055   0.424
73707SOL    HW122954   6.005  13.104   0.507
73707SOL    HW222955   6.076  12.991   0.436
73708SOL     OW22956   7.559   1.679   0.979
73708SOL    HW122957   7.540   1.591   1.013
73708SOL    HW222958   7.479   1.728   0.993
73709SOL     OW22959   8.803   0.464   1.929
73709SOL    HW122960   8.729   0.446   1.871
73709SOL    HW222961   8.790   0.554   1.957
73710SOL     OW22962  14.843  12.857  10.920
73710SOL    HW122963  14.844  12.937  10.974
73710SOL    HW222964  14.805  12.884  10.837
73711SOL     OW22965   4.552   1.561   3.731
73711SOL    HW122966   4.634   1.566   3.681
73711SOL    HW222967   4.558   1.481   3.782
73712SOL     OW22968   4.450   5.963  13.144
73712SOL    HW122969   4.380   6.014  13.104
73712SOL    HW222970   4.504   5.934  13.071
73713SOL     OW22971   7.081   6.086   4.283
73713SOL    HW122972   7.076   6.166   4.230
73713SOL    HW222973   7.072   6.117   4.373
73714SOL     OW22974   2.071   8.231   9.312
73714SOL    HW122975   2.013   8.223   9.237
73714SOL    HW222976   2.159   8.235   9.274
73715SOL     OW22977   6.258   1.438  10.178
73715SOL    HW122978   6.285   1.418  10.088
73715SOL    HW222979   6.261   1.353  10.223
73716SOL     OW22980  14.102   6.150   7.090
73716SOL    HW122981  14.101   6.065   7.133
73716SOL    HW222982  14.084   6.131   6.998
73717SOL     OW22983   3.829   3.876  14.481
73717SOL    HW122984   3.819   3.788  14.446
73717SOL    HW222985   3.777   3.932  14.423
73718SOL     OW22986   8.900  10.343  11.151
73718SOL    HW122987   8.853  10.426  11.161
73718SOL    HW222988   8.846  10.292  11.090
73719SOL     OW22989   0.784   5.586  14.581
73719SOL    HW122990   0.843   5.628  14.518
73719SOL    HW222991   0.709   5.645  14.587
73720SOL     OW22992   6.500  12.338  14.092
73720SOL    HW122993   6.452  12.419  14.105
73720SOL    HW222994   6.448  12.288  14.030
73721SOL     OW22995   0.414   8.737  14.657
73721SOL    HW122996   0.404   8.819  14.610
73721SOL    HW222997   0.329   8.722  14.699
73722SOL     OW22998   9.989   6.287  10.281
73722SOL    HW122999   9.901   6.254  10.263
73722SOL    HW223000   9.979   6.383  10.279
73723SOL     OW23001  11.319  10.497   7.245
73723SOL    HW123002  11.259  10.439   7.292
73723SOL    HW223003  11.396  10.442   7.228
73724SOL     OW23004   2.576   7.981   8.057
73724SOL    HW123005   2.568   8.068   8.094
73724SOL    HW223006   2.486   7.955   8.035
73725SOL     OW23007  14.697  10.492  11.431
73725SOL    HW123008  14.670  10.557  11.366
73725SOL    HW223009  14.676  10.408  11.391
73726SOL     OW23010  12.025   8.948   1.833
73726SOL    HW123011  12.023   8.929   1.927
73726SOL    HW223012  12.007   8.864   1.791
73727SOL     OW23013   4.078  14.797   0.569
73727SOL    HW123014   4.163  14.840   0.564
73727SOL    HW223015   4.097  14.704   0.554
73728SOL     OW23016  10.073   7.987  10.950
73728SOL    HW123017  10.167   7.998  10.960
73728SOL    HW223018  10.045   7.942  11.030
73729SOL     OW23019   2.821   6.323   6.725
73729SOL    HW123020   2.785   6.364   6.646
73729SOL    HW223021   2.901   6.281   6.695
73730SOL     OW23022   6.062   4.529   3.755
73730SOL    HW123023   5.983   4.566   3.716
73730SOL    HW223024   6.038   4.439   3.778
73731SOL     OW23025  11.985   2.338   1.458
73731SOL    HW123026  11.989   2.426   1.495
73731SOL    HW223027  12.054   2.289   1.504
73732SOL     OW23028   4.396  10.979  12.076
73732SOL    HW123029   4.413  10.910  12.140
73732SOL    HW223030   4.431  11.058  12.117
73733SOL     OW23031  12.413   0.846   8.391
73733SOL    HW123032  12.365   0.900   8.454
73733SOL    HW223033  12.443   0.771   8.443
73734SOL     OW23034   7.516  13.116   5.407
73734SOL    HW123035   7.470  13.200   5.396
73734SOL    HW223036   7.583  13.116   5.339
73735SOL     OW23037   1.225   1.555  11.522
73735SOL    HW123038   1.272   1.634  11.494
73735SOL    HW223039   1.166   1.585  11.590
73736SOL     OW23040   7.770   9.322   5.361
73736SOL    HW123041   7.694   9.341   5.306
73736SOL    HW223042   7.742   9.250   5.417
73737SOL     OW23043   3.714   6.843   0.143
73737SOL    HW123044   3.651   6.843   0.071
73737SOL    HW223045   3.728   6.936   0.162
73738SOL     OW23046   2.748   7.873  13.977
73738SOL    HW123047   2.677   7.860  13.915
73738SOL    HW223048   2.801   7.942  13.939
73739SOL     OW23049   3.381   7.619  12.002
73739SOL    HW123050   3.357   7.697  11.952
73739SOL    HW223051   3.368   7.546  11.941
73740SOL     OW23052   6.195   3.841  13.164
73740SOL    HW123053   6.177   3.805  13.077
73740SOL    HW223054   6.109   3.849  13.205
73741SOL     OW23055   9.399   6.145   4.325
73741SOL    HW123056   9.320   6.108   4.285
73741SOL    HW223057   9.453   6.172   4.250
73742SOL     OW23058   4.485  11.817  11.542
73742SOL    HW123059   4.428  11.758  11.590
73742SOL    HW223060   4.424  11.880  11.501
73743SOL     OW23061   3.150   7.846  11.206
73743SOL    HW123062   3.056   7.840  11.195
73743SOL    HW223063   3.163   7.868  11.298
73744SOL     OW23064  10.790  14.692   0.275
73744SOL    HW123065  10.746  14.689   0.190
73744SOL    HW223066  10.879  14.720   0.256
73745SOL     OW23067   8.523  11.074   2.046
73745SOL    HW123068   8.605  11.112   2.014
73745SOL    HW223069   8.549  10.993   2.089
73746SOL     OW23070   5.331   2.812   8.560
73746SOL    HW123071   5.389   2.738   8.542
73746SOL    HW223072   5.320   2.855   8.476
73747SOL     OW23073  14.384   5.453  12.117
73747SOL    HW123074  14.445   5.526  12.119
73747SOL    HW223075  14.318   5.474  12.183
73748SOL     OW23076   1.660  14.285   8.857
73748SOL    HW123077   1.583  14.254   8.905
73748SOL    HW223078   1.643  14.260   8.766
73749SOL     OW23079   6.673  13.706   3.856
73749SOL    HW123080   6.611  13.647   3.900
73749SOL    HW223081   6.617  13.764   3.804
73750SOL     OW23082  11.202   1.117   3.245
73750SOL    HW123083  11.193   1.167   3.326
73750SOL    HW223084  11.179   1.180   3.176
73751SOL     OW23085   4.038   0.200   3.474
73751SOL    HW123086   3.970   0.196   3.407
73751SOL    HW223087   4.120   0.200   3.425
73752SOL     OW23088   0.977  12.503   4.628
73752SOL    HW123089   0.977  12.410   4.608
73752SOL    HW223090   0.885  12.528   4.628
73753SOL     OW23091   7.327   7.163   5.786
73753SOL    HW123092   7.282   7.242   5.816
73753SOL    HW223093   7.270   7.091   5.815
73754SOL     OW23094   4.217   8.769   2.194
73754SOL    HW123095   4.310   8.771   2.217
73754SOL    HW223096   4.184   8.855   2.220
73755SOL     OW23097   5.012  11.892  13.030
73755SOL    HW123098   5.039  11.836  13.103
73755SOL    HW223099   4.987  11.975  13.072
73756SOL     OW23100  12.169   7.993   8.663
73756SOL    HW123101  12.223   8.055   8.712
73756SOL    HW223102  12.199   7.907   8.690
73757SOL     OW23103   1.646  14.617   2.483
73757SOL    HW123104   1.611  14.705   2.473
73757SOL    HW223105   1.569  14.563   2.503
73758SOL     OW23106   4.612   9.769   6.978
73758SOL    HW123107   4.603   9.847   6.923
73758SOL    HW223108   4.705   9.766   7.000
73759SOL     OW23109  13.244  13.171   6.585
73759SOL    HW123110  13.316  13.159   6.522
73759SOL    HW223111  13.276  13.238   6.646
73760SOL     OW23112   4.978  11.901   2.936
73760SOL    HW123113   5.069  11.930   2.932
73760SOL    HW223114   4.929  11.970   2.891
73761SOL     OW23115   9.923  13.158   7.778
73761SOL    HW123116   9.904  13.097   7.707
73761SOL    HW223117   9.883  13.241   7.750
73762SOL     OW23118   4.937   4.916   6.777
73762SOL    HW123119   4.942   4.982   6.847
73762SOL    HW223120   4.960   4.834   6.820
73763SOL     OW23121  13.416   0.003  14.445
73763SOL    HW123122  13.503  14.847  14.416
73763SOL    HW223123  13.401   0.085  14.398
73764SOL     OW23124  10.853   5.353  14.154
73764SOL    HW123125  10.815   5.332  14.069
73764SOL    HW223126  10.937   5.394  14.134
73765SOL     OW23127   0.243   4.974  12.660
73765SOL    HW123128   0.252   4.898  12.602
73765SOL    HW223129   0.265   4.941  12.747
73766SOL     OW23130   5.266  12.724   8.273
73766SOL    HW123131   5.172  12.710   8.275
73766SOL    HW223132   5.300  12.650   8.223
73767SOL     OW23133   8.955   6.858   6.443
73767SOL    HW123134   9.003   6.930   6.403
73767SOL    HW223135   8.957   6.789   6.376
73768SOL     OW23136   5.258  12.392   6.250
73768SOL    HW123137   5.287  12.381   6.160
73768SOL    HW223138   5.198  12.319   6.265
73769SOL     OW23139   3.189   8.103   8.380
73769SOL    HW123140   3.201   8.082   8.472
73769SOL    HW223141   3.118   8.046   8.351
73770SOL     OW23142  10.168  13.312   8.059
73770SOL    HW123143  10.183  13.398   8.099
73770SOL    HW223144  10.174  13.250   8.132
73771SOL     OW23145   5.208   5.907   7.868
73771SOL    HW123146   5.141   5.925   7.934
73771SOL    HW223147   5.164   5.849   7.805
73772SOL     OW23148  10.751  14.579  12.279
73772SOL    HW123149  10.656  14.580  12.279
73772SOL    HW223150  10.776  14.665  12.312
73773SOL     OW23151   6.895  14.533   0.644
73773SOL    HW123152   6.939  14.477   0.580
73773SOL    HW223153   6.966  14.581   0.686
73774SOL     OW23154   7.583   6.849  13.936
73774SOL    HW123155   7.590   6.944  13.944
73774SOL    HW223156   7.497   6.835  13.896
73775SOL     OW23157   7.398  11.241  11.003
73775SOL    HW123158   7.402  11.286  11.087
73775SOL    HW223159   7.450  11.162  11.016
73776SOL     OW23160   3.056   9.136  10.046
73776SOL    HW123161   3.029   9.211   9.993
73776SOL    HW223162   3.020   9.152  10.133
73777SOL     OW23163   1.743   2.155   7.208
73777SOL    HW123164   1.741   2.246   7.178
73777SOL    HW223165   1.673   2.112   7.158
73778SOL     OW23166   2.513   0.613   2.218
73778SOL    HW123167   2.431   0.623   2.170
73778SOL    HW223168   2.545   0.527   2.192
73779SOL     OW23169  13.047   3.937  13.622
73779SOL    HW123170  13.052   4.004  13.690
73779SOL    HW223171  12.954   3.928  13.604
73780SOL     OW23172   9.075  10.314  10.651
73780SOL    HW123173   9.083  10.328  10.557
73780SOL    HW223174   9.028  10.232  10.659
73781SOL     OW23175   9.703   6.342   0.556
73781SOL    HW123176   9.651   6.381   0.627
73781SOL    HW223177   9.783   6.312   0.599
73782SOL     OW23178   1.783  12.060   9.754
73782SOL    HW123179   1.815  12.138   9.799
73782SOL    HW223180   1.791  11.990   9.818
73783SOL     OW23181  14.335   8.803   9.024
73783SOL    HW123182  14.427   8.825   9.012
73783SOL    HW223183  14.290   8.887   9.028
73784SOL     OW23184   1.158  12.798  13.035
73784SOL    HW123185   1.226  12.858  13.064
73784SOL    HW223186   1.179  12.715  13.077
73785SOL     OW23187   7.304   6.696  11.714
73785SOL    HW123188   7.357   6.723  11.639
73785SOL    HW223189   7.223   6.747  11.706
73786SOL     OW23190   6.616  14.133  13.254
73786SOL    HW123191   6.639  14.080  13.178
73786SOL    HW223192   6.692  14.128  13.312
73787SOL     OW23193   8.215   0.250   3.740
73787SOL    HW123194   8.212   0.235   3.645
73787SOL    HW223195   8.303   0.223   3.765
73788SOL     OW23196   7.582   3.284   2.499
73788SOL    HW123197   7.664   3.316   2.536
73788SOL    HW223198   7.609   3.223   2.430
73789SOL     OW23199   4.711  12.021   2.025
73789SOL    HW123200   4.760  12.016   2.107
73789SOL    HW223201   4.663  12.103   2.031
73790SOL     OW23202  12.712   0.924  10.929
73790SOL    HW123203  12.790   0.978  10.941
73790SOL    HW223204  12.730   0.874  10.849
73791SOL     OW23205  10.758   5.771   0.758
73791SOL    HW123206  10.809   5.690   0.767
73791SOL    HW223207  10.769   5.815   0.842
73792SOL     OW23208   8.354   5.066   8.268
73792SOL    HW123209   8.394   5.059   8.181
73792SOL    HW223210   8.260   5.056   8.252
73793SOL     OW23211   8.360   6.212   6.897
73793SOL    HW123212   8.313   6.145   6.848
73793SOL    HW223213   8.291   6.271   6.929
73794SOL     OW23214   3.699   3.317   7.303
73794SOL    HW123215   3.658   3.231   7.309
73794SOL    HW223216   3.774   3.305   7.246
73795SOL     OW23217   0.555  14.079   6.415
73795SOL    HW123218   0.521  14.137   6.482
73795SOL    HW223219   0.515  13.994   6.434
73796SOL     OW23220  10.540   4.839   0.264
73796SOL    HW123221  10.604   4.910   0.273
73796SOL    HW223222  10.563   4.797   0.181
73797SOL     OW23223   1.329  12.955   7.792
73797SOL    HW123224   1.393  12.963   7.863
73797SOL    HW223225   1.256  12.906   7.830
73798SOL     OW23226   6.975   3.512   4.804
73798SOL    HW123227   7.001   3.544   4.890
73798SOL    HW223228   6.958   3.592   4.753
73799SOL     OW23229   6.949  11.970   8.564
73799SOL    HW123230   6.854  11.971   8.548
73799SOL    HW223231   6.959  12.012   8.649
73800SOL     OW23232   7.784   3.659   2.714
73800SOL    HW123233   7.740   3.580   2.682
73800SOL    HW223234   7.867   3.627   2.749
73801SOL     OW23235   1.227  14.219   9.300
73801SOL    HW123236   1.322  14.211   9.311
73801SOL    HW223237   1.217  14.273   9.222
73802SOL     OW23238   2.974  12.146  13.197
73802SOL    HW123239   2.940  12.130  13.109
73802SOL    HW223240   2.910  12.205  13.237
73803SOL     OW23241   9.699   8.190   5.198
73803SOL    HW123242   9.715   8.283   5.212
73803SOL    HW223243   9.757   8.166   5.125
73804SOL     OW23244   0.335   5.214   6.155
73804SOL    HW123245   0.271   5.242   6.220
73804SOL    HW223246   0.419   5.247   6.187
73805SOL     OW23247   7.210   1.289   6.823
73805SOL    HW123248   7.265   1.228   6.871
73805SOL    HW223249   7.139   1.236   6.788
73806SOL     OW23250   1.635  13.874   7.707
73806SOL    HW123251   1.671  13.952   7.749
73806SOL    HW223252   1.639  13.806   7.774
73807SOL     OW23253  14.057   8.305  11.242
73807SOL    HW123254  14.073   8.291  11.149
73807SOL    HW223255  13.991   8.374  11.245
73808SOL     OW23256   8.595   4.378   9.330
73808SOL    HW123257   8.517   4.413   9.373
73808SOL    HW223258   8.576   4.285   9.316
73809SOL     OW23259  13.718   5.856   8.348
73809SOL    HW123260  13.723   5.775   8.297
73809SOL    HW223261  13.774   5.841   8.424
73810SOL     OW23262   7.889   4.030  11.520
73810SOL    HW123263   7.875   3.936  11.510
73810SOL    HW223264   7.801   4.068  11.519
73811SOL     OW23265   5.409  12.525   1.365
73811SOL    HW123266   5.480  12.517   1.428
73811SOL    HW223267   5.342  12.577   1.410
73812SOL     OW23268   7.112  11.159  11.041
73812SOL    HW123269   7.104  11.079  10.988
73812SOL    HW223270   7.200  11.191  11.023
73813SOL     OW23271  10.079  12.000   2.656
73813SOL    HW123272  10.131  11.958   2.724
73813SOL    HW223273  10.057  12.086   2.693
73814SOL     OW23274  11.721  11.350   5.782
73814SOL    HW123275  11.737  11.272   5.835
73814SOL    HW223276  11.643  11.390   5.820
73815SOL     OW23277   8.880   4.727  13.022
73815SOL    HW123278   8.794   4.766  13.007
73815SOL    HW223279   8.870   4.637  12.992
73816SOL     OW23280   3.029   0.863   4.498
73816SOL    HW123281   3.022   0.887   4.405
73816SOL    HW223282   2.943   0.827   4.520
73817SOL     OW23283   5.212   9.197   2.270
73817SOL    HW123284   5.221   9.282   2.313
73817SOL    HW223285   5.231   9.213   2.178
73818SOL     OW23286  13.622  11.833   7.503
73818SOL    HW123287  13.671  11.775   7.446
73818SOL    HW223288  13.570  11.887   7.443
73819SOL     OW23289   3.236   7.442   2.768
73819SOL    HW123290   3.253   7.508   2.834
73819SOL    HW223291   3.141   7.431   2.769
73820SOL     OW23292   0.014   2.387   5.772
73820SOL    HW123293   0.038   2.414   5.860
73820SOL    HW223294  14.803   2.430   5.756
73821SOL     OW23295   1.319  14.377  11.601
73821SOL    HW123296   1.365  14.332  11.672
73821SOL    HW223297   1.316  14.469  11.629
73822SOL     OW23298   6.233   8.077   2.498
73822SOL    HW123299   6.198   7.994   2.464
73822SOL    HW223300   6.246   8.061   2.591
73823SOL     OW23301   6.860   2.916  10.971
73823SOL    HW123302   6.879   2.925  11.065
73823SOL    HW223303   6.814   2.996  10.948
73824SOL     OW23304   6.176  10.336  12.036
73824SOL    HW123305   6.122  10.300  11.965
73824SOL    HW223306   6.252  10.374  11.992
73825SOL     OW23307   3.715   0.527   9.494
73825SOL    HW123308   3.795   0.577   9.479
73825SOL    HW223309   3.649   0.594   9.516
73826SOL     OW23310  13.281   9.918   1.728
73826SOL    HW123311  13.196   9.920   1.772
73826SOL    HW223312  13.273   9.982   1.658
73827SOL     OW23313  10.996   0.448   7.499
73827SOL    HW123314  11.014   0.540   7.483
73827SOL    HW223315  10.947   0.446   7.581
73828SOL     OW23316   1.450   8.645   1.731
73828SOL    HW123317   1.473   8.738   1.738
73828SOL    HW223318   1.520   8.600   1.777
73829SOL     OW23319   7.806  10.609   5.867
73829SOL    HW123320   7.846  10.578   5.786
73829SOL    HW223321   7.746  10.540   5.893
73830SOL     OW23322   5.071  14.867   9.293
73830SOL    HW123323   5.034   0.026   9.375
73830SOL    HW223324   5.109   0.071   9.252
73831SOL     OW23325   1.306   0.905   5.295
73831SOL    HW123326   1.284   0.985   5.342
73831SOL    HW223327   1.329   0.935   5.207
73832SOL     OW23328  12.373   4.173  14.804
73832SOL    HW123329  12.411   4.253  14.840
73832SOL    HW223330  12.446   4.112  14.799
73833SOL     OW23331  10.217  13.579   5.033
73833SOL    HW123332  10.190  13.632   5.107
73833SOL    HW223333  10.146  13.587   4.969
73834SOL     OW23334  11.955   1.965   5.570
73834SOL    HW123335  11.920   1.878   5.588
73834SOL    HW223336  12.025   1.977   5.634
73835SOL     OW23337   7.040  12.413  13.369
73835SOL    HW123338   7.128  12.437  13.338
73835SOL    HW223339   6.981  12.471  13.321
73836SOL     OW23340   1.540   0.900   2.956
73836SOL    HW123341   1.502   0.842   3.023
73836SOL    HW223342   1.561   0.842   2.883
73837SOL     OW23343  14.518   6.126   1.075
73837SOL    HW123344  14.549   6.200   1.023
73837SOL    HW223345  14.594   6.067   1.080
73838SOL     OW23346   2.310  12.861   9.527
73838SOL    HW123347   2.314  12.902   9.613
73838SOL    HW223348   2.353  12.923   9.468
73839SOL     OW23349  14.077  13.242   8.281
73839SOL    HW123350  14.023  13.186   8.226
73839SOL    HW223351  14.026  13.323   8.289
73840SOL     OW23352   3.067   2.964  12.319
73840SOL    HW123353   3.015   2.979  12.241
73840SOL    HW223354   3.011   2.912  12.376
73841SOL     OW23355   3.084   0.407  11.082
73841SOL    HW123356   3.010   0.385  11.024
73841SOL    HW223357   3.097   0.328  11.135
73842SOL     OW23358  12.126   4.747   6.167
73842SOL    HW123359  12.162   4.831   6.193
73842SOL    HW223360  12.164   4.729   6.081
73843SOL     OW23361   5.681  10.350   6.463
73843SOL    HW123362   5.735  10.416   6.507
73843SOL    HW223363   5.742  10.278   6.447
73844SOL     OW23364   8.077   8.463   0.629
73844SOL    HW123365   8.128   8.384   0.649
73844SOL    HW223366   8.113   8.530   0.686
73845SOL     OW23367  12.015  13.867   4.915
73845SOL    HW123368  11.933  13.905   4.885
73845SOL    HW223369  11.989  13.785   4.958
73846SOL     OW23370   6.114   8.242   9.635
73846SOL    HW123371   6.131   8.323   9.683
73846SOL    HW223372   6.129   8.173   9.699
73847SOL     OW23373  14.562   8.880   3.856
73847SOL    HW123374  14.483   8.865   3.908
73847SOL    HW223375  14.578   8.974   3.864
73848SOL     OW23376   5.451  14.514   8.118
73848SOL    HW123377   5.538  14.475   8.127
73848SOL    HW223378   5.399  14.448   8.072
73849SOL     OW23379   6.466   5.699  12.537
73849SOL    HW123380   6.427   5.677  12.453
73849SOL    HW223381   6.395   5.687  12.600
73850SOL     OW23382   8.901   6.346  14.015
73850SOL    HW123383   8.827   6.285  14.022
73850SOL    HW223384   8.862   6.432  14.030
73851SOL     OW23385   0.827   8.152  13.430
73851SOL    HW123386   0.732   8.153  13.436
73851SOL    HW223387   0.846   8.080  13.369
73852SOL     OW23388   5.931   4.893   9.291
73852SOL    HW123389   5.939   4.981   9.256
73852SOL    HW223390   6.015   4.851   9.270
73853SOL     OW23391   2.250   6.370  12.270
73853SOL    HW123392   2.333   6.338  12.233
73853SOL    HW223393   2.209   6.418  12.199
73854SOL     OW23394   3.421  10.957   5.728
73854SOL    HW123395   3.392  10.878   5.774
73854SOL    HW223396   3.517  10.953   5.732
73855SOL     OW23397   9.245  14.743   8.786
73855SOL    HW123398   9.303  14.717   8.715
73855SOL    HW223399   9.273  14.690   8.861
73856SOL     OW23400  10.578   9.959  12.683
73856SOL    HW123401  10.502   9.940  12.629
73856SOL    HW223402  10.544  10.012  12.756
73857SOL     OW23403   3.218   3.719   5.703
73857SOL    HW123404   3.144   3.765   5.662
73857SOL    HW223405   3.183   3.633   5.724
73858SOL     OW23406  10.580   0.875   5.444
73858SOL    HW123407  10.516   0.804   5.452
73858SOL    HW223408  10.528   0.955   5.440
73859SOL     OW23409  11.167   6.162   4.802
73859SOL    HW123410  11.107   6.147   4.729
73859SOL    HW223411  11.226   6.087   4.800
73860SOL     OW23412  13.232  12.047   7.727
73860SOL    HW123413  13.319  12.082   7.708
73860SOL    HW223414  13.226  11.968   7.673
73861SOL     OW23415   9.244   1.342   8.323
73861SOL    HW123416   9.258   1.437   8.318
73861SOL    HW223417   9.293   1.307   8.248
73862SOL     OW23418   2.080   6.916   9.345
73862SOL    HW123419   2.168   6.894   9.375
73862SOL    HW223420   2.023   6.852   9.388
73863SOL     OW23421   0.811   3.568   6.593
73863SOL    HW123422   0.820   3.485   6.544
73863SOL    HW223423   0.729   3.559   6.640
73864SOL     OW23424   2.157   3.159   8.669
73864SOL    HW123425   2.115   3.177   8.584
73864SOL    HW223426   2.231   3.102   8.647
73865SOL     OW23427   3.995   1.273  13.660
73865SOL    HW123428   3.932   1.302  13.727
73865SOL    HW223429   3.942   1.230  13.594
73866SOL     OW23430   7.477  13.314   1.326
73866SOL    HW123431   7.425  13.264   1.263
73866SOL    HW223432   7.412  13.347   1.389
73867SOL     OW23433   7.632   0.418   2.923
73867SOL    HW123434   7.724   0.408   2.897
73867SOL    HW223435   7.585   0.357   2.866
73868SOL     OW23436   1.385   6.810   4.858
73868SOL    HW123437   1.463   6.780   4.904
73868SOL    HW223438   1.405   6.798   4.766
73869SOL     OW23439   2.363   9.404   5.308
73869SOL    HW123440   2.307   9.326   5.308
73869SOL    HW223441   2.452   9.369   5.309
73870SOL     OW23442  10.403   0.657   9.289
73870SOL    HW123443  10.443   0.744   9.292
73870SOL    HW223444  10.473   0.600   9.256
73871SOL     OW23445   0.170   7.723   5.286
73871SOL    HW123446   0.189   7.708   5.379
73871SOL    HW223447   0.133   7.640   5.256
73872SOL     OW23448   0.827  10.367   6.805
73872SOL    HW123449   0.832  10.280   6.846
73872SOL    HW223450   0.881  10.359   6.726
73873SOL     OW23451  12.951   5.182   0.193
73873SOL    HW123452  13.038   5.143   0.180
73873SOL    HW223453  12.920   5.200   0.104
73874SOL     OW23454  14.516  11.681   1.051
73874SOL    HW123455  14.518  11.594   1.012
73874SOL    HW223456  14.598  11.687   1.100
73875SOL     OW23457   8.713   6.173   3.638
73875SOL    HW123458   8.776   6.240   3.663
73875SOL    HW223459   8.649   6.172   3.709
73876SOL     OW23460  10.809  14.629   5.663
73876SOL    HW123461  10.871  14.557   5.658
73876SOL    HW223462  10.846  14.689   5.728
73877SOL     OW23463   0.273   3.077   1.046
73877SOL    HW123464   0.344   3.141   1.045
73877SOL    HW223465   0.314   2.997   1.081
73878SOL     OW23466  13.671   9.923  12.890
73878SOL    HW123467  13.741   9.958  12.836
73878SOL    HW223468  13.604   9.991  12.892
73879SOL     OW23469  11.557   3.083  10.723
73879SOL    HW123470  11.588   3.138  10.651
73879SOL    HW223471  11.525   3.003  10.681
73880SOL     OW23472   5.115  14.020   0.664
73880SOL    HW123473   5.081  14.086   0.724
73880SOL    HW223474   5.178  14.067   0.610
73881SOL     OW23475   9.279   4.551   7.885
73881SOL    HW123476   9.219   4.517   7.951
73881SOL    HW223477   9.364   4.514   7.909
73882SOL     OW23478   9.641   6.718   6.663
73882SOL    HW123479   9.583   6.663   6.715
73882SOL    HW223480   9.589   6.745   6.588
73883SOL     OW23481  11.702  11.095  10.810
73883SOL    HW123482  11.759  11.040  10.755
73883SOL    HW223483  11.650  11.032  10.861
73884SOL     OW23484   2.295   0.282   9.919
73884SOL    HW123485   2.331   0.274   9.831
73884SOL    HW223486   2.321   0.370   9.947
73885SOL     OW23487   8.558   5.502   3.818
73885SOL    HW123488   8.534   5.417   3.855
73885SOL    HW223489   8.475   5.546   3.802
73886SOL     OW23490   3.829   3.328  14.536
73886SOL    HW123491   3.749   3.378  14.552
73886SOL    HW223492   3.835   3.267  14.609
73887SOL     OW23493  11.998   6.762   4.484
73887SOL    HW123494  12.091   6.768   4.463
73887SOL    HW223495  11.960   6.841   4.446
73888SOL     OW23496  11.930   1.952   6.780
73888SOL    HW123497  11.858   1.984   6.725
73888SOL    HW223498  12.009   1.984   6.736
73889SOL     OW23499   8.351   8.492  10.004
73889SOL    HW123500   8.391   8.410   9.975
73889SOL    HW223501   8.377   8.501  10.096
73890SOL     OW23502  11.829  10.398  11.751
73890SOL    HW123503  11.803  10.308  11.733
73890SOL    HW223504  11.814  10.445  11.669
73891SOL     OW23505   6.175   7.750   9.994
73891SOL    HW123506   6.216   7.748   9.907
73891SOL    HW223507   6.088   7.712   9.980
73892SOL     OW23508  14.749  10.483   6.728
73892SOL    HW123509  14.815  10.536   6.683
73892SOL    HW223510  14.782  10.393   6.721
73893SOL     OW23511   0.412   6.249   3.116
73893SOL    HW123512   0.417   6.219   3.207
73893SOL    HW223513   0.502   6.240   3.083
73894SOL     OW23514   8.421  12.162   2.031
73894SOL    HW123515   8.485  12.112   1.981
73894SOL    HW223516   8.474  12.216   2.091
73895SOL     OW23517  11.929  12.261   0.570
73895SOL    HW123518  11.946  12.353   0.548
73895SOL    HW223519  12.016  12.225   0.587
73896SOL     OW23520  11.899   1.876  12.488
73896SOL    HW123521  11.947   1.844  12.564
73896SOL    HW223522  11.945   1.838  12.413
73897SOL     OW23523  10.216  13.655   7.108
73897SOL    HW123524  10.252  13.692   7.027
73897SOL    HW223525  10.246  13.715   7.177
73898SOL     OW23526   3.652   1.305   8.035
73898SOL    HW123527   3.601   1.282   7.958
73898SOL    HW223528   3.589   1.345   8.095
73899SOL     OW23529   3.097  12.322   5.311
73899SOL    HW123530   3.104  12.335   5.405
73899SOL    HW223531   3.004  12.301   5.296
73900SOL     OW23532   2.972   2.072   4.270
73900SOL    HW123533   2.968   2.136   4.199
73900SOL    HW223534   2.912   2.106   4.337
73901SOL     OW23535   3.947   4.547  12.464
73901SOL    HW123536   3.940   4.630  12.511
73901SOL    HW223537   3.983   4.486  12.528
73902SOL     OW23538   9.912  13.839  13.830
73902SOL    HW123539   9.858  13.917  13.842
73902SOL    HW223540  10.002  13.870  13.843
73903SOL     OW23541   3.292   3.887   5.910
73903SOL    HW123542   3.215   3.863   5.859
73903SOL    HW223543   3.319   3.806   5.953
73904SOL     OW23544  10.488  13.545   1.198
73904SOL    HW123545  10.579  13.574   1.193
73904SOL    HW223546  10.446  13.609   1.255
73905SOL     OW23547   1.892   5.650   4.478
73905SOL    HW123548   1.963   5.714   4.474
73905SOL    HW223549   1.818   5.694   4.436
73906SOL     OW23550   0.451   3.782   6.661
73906SOL    HW123551   0.384   3.781   6.730
73906SOL    HW223552   0.484   3.872   6.662
73907SOL     OW23553  12.741   6.257   3.483
73907SOL    HW123554  12.744   6.288   3.573
73907SOL    HW223555  12.816   6.299   3.440
73908SOL     OW23556   6.416   2.832   7.459
73908SOL    HW123557   6.505   2.807   7.433
73908SOL    HW223558   6.383   2.882   7.384
73909SOL     OW23559   8.381   4.390  11.533
73909SOL    HW123560   8.286   4.401  11.521
73909SOL    HW223561   8.411   4.474  11.567
73910SOL     OW23562  10.392   1.409   4.852
73910SOL    HW123563  10.431   1.392   4.938
73910SOL    HW223564  10.464   1.394   4.790
73911SOL     OW23565  11.186   9.956   8.816
73911SOL    HW123566  11.168   9.911   8.898
73911SOL    HW223567  11.136   9.906   8.750
73912SOL     OW23568   5.876   3.622   7.271
73912SOL    HW123569   5.949   3.658   7.321
73912SOL    HW223570   5.840   3.696   7.223
73913SOL     OW23571  11.425   5.832   2.094
73913SOL    HW123572  11.416   5.808   2.001
73913SOL    HW223573  11.455   5.751   2.136
73914SOL     OW23574   5.944   5.995  13.486
73914SOL    HW123575   5.902   6.075  13.455
73914SOL    HW223576   5.873   5.931  13.489
73915SOL     OW23577   9.009   8.494   6.384
73915SOL    HW123578   8.989   8.500   6.477
73915SOL    HW223579   9.017   8.584   6.354
73916SOL     OW23580   0.470  14.125   1.832
73916SOL    HW123581   0.425  14.084   1.905
73916SOL    HW223582   0.403  14.132   1.763
73917SOL     OW23583   4.472   3.588   5.829
73917SOL    HW123584   4.385   3.580   5.867
73917SOL    HW223585   4.473   3.525   5.757
73918SOL     OW23586  14.134   0.363   3.668
73918SOL    HW123587  14.150   0.390   3.758
73918SOL    HW223588  14.106   0.442   3.623
73919SOL     OW23589   0.112   9.454  11.406
73919SOL    HW123590   0.128   9.362  11.387
73919SOL    HW223591   0.198   9.492  11.420
73920SOL     OW23592   9.196   2.046  14.615
73920SOL    HW123593   9.262   2.061  14.683
73920SOL    HW223594   9.232   1.974  14.563
73921SOL     OW23595  13.666  14.240  10.552
73921SOL    HW123596  13.642  14.214  10.641
73921SOL    HW223597  13.603  14.308  10.529
73922SOL     OW23598   6.268   5.844   7.859
73922SOL    HW123599   6.268   5.888   7.944
73922SOL    HW223600   6.329   5.771   7.870
73923SOL     OW23601   4.565   6.492   4.787
73923SOL    HW123602   4.514   6.543   4.850
73923SOL    HW223603   4.632   6.552   4.755
73924SOL     OW23604   8.319   1.128  10.538
73924SOL    HW123605   8.264   1.053  10.517
73924SOL    HW223606   8.335   1.170  10.453
73925SOL     OW23607   5.962   6.938   9.764
73925SOL    HW123608   6.027   6.999   9.730
73925SOL    HW223609   5.901   6.992   9.814
73926SOL     OW23610   3.298  12.815   8.263
73926SOL    HW123611   3.249  12.889   8.226
73926SOL    HW223612   3.362  12.854   8.321
73927SOL     OW23613   5.818   2.743   4.618
73927SOL    HW123614   5.835   2.802   4.691
73927SOL    HW223615   5.895   2.751   4.562
73928SOL     OW23616   2.142   5.987  12.162
73928SOL    HW123617   2.067   5.933  12.189
73928SOL    HW223618   2.167   6.033  12.242
73929SOL     OW23619   9.900   9.865   5.381
73929SOL    HW123620   9.836   9.872   5.310
73929SOL    HW223621   9.981   9.838   5.338
73930SOL     OW23622  13.005  14.530  12.041
73930SOL    HW123623  13.038  14.441  12.033
73930SOL    HW223624  13.049  14.566  12.118
73931SOL     OW23625   9.011   8.771  11.492
73931SOL    HW123626   9.037   8.846  11.440
73931SOL    HW223627   8.964   8.714  11.431
73932SOL     OW23628   8.094   3.045  14.371
73932SOL    HW123629   8.015   3.091  14.342
73932SOL    HW223630   8.085   2.957  14.334
73933SOL     OW23631   4.273   1.575  14.583
73933SOL    HW123632   4.193   1.619  14.553
73933SOL    HW223633   4.341   1.606  14.523
73934SOL     OW23634  12.547   2.045  11.619
73934SOL    HW123635  12.488   2.084  11.555
73934SOL    HW223636  12.616   2.110  11.632
73935SOL     OW23637  12.272   3.496   6.366
73935SOL    HW123638  12.181   3.468   6.352
73935SOL    HW223639  12.310   3.427   6.420
73936SOL     OW23640  10.250   9.760  10.479
73936SOL    HW123641  10.212   9.767  10.567
73936SOL    HW223642  10.218   9.837  10.433
73937SOL     OW23643   4.182  10.356   4.603
73937SOL    HW123644   4.150  10.265   4.602
73937SOL    HW223645   4.197  10.377   4.511
73938SOL     OW23646   6.528   0.542   9.247
73938SOL    HW123647   6.522   0.599   9.324
73938SOL    HW223648   6.534   0.453   9.284
73939SOL     OW23649   9.640  10.407   4.423
73939SOL    HW123650   9.692  10.472   4.471
73939SOL    HW223651   9.558  10.401   4.471
73940SOL     OW23652   5.614   1.333  13.343
73940SOL    HW123653   5.609   1.327  13.438
73940SOL    HW223654   5.636   1.424  13.325
73941SOL     OW23655   7.600   4.573  10.942
73941SOL    HW123656   7.615   4.660  10.905
73941SOL    HW223657   7.514   4.579  10.983
73942SOL     OW23658  10.876   5.808  10.479
73942SOL    HW123659  10.837   5.723  10.500
73942SOL    HW223660  10.970   5.795  10.492
73943SOL     OW23661   7.677   0.169  14.747
73943SOL    HW123662   7.769   0.172  14.772
73943SOL    HW223663   7.673   0.102  14.679
73944SOL     OW23664  11.379   9.848   9.017
73944SOL    HW123665  11.435   9.797   8.957
73944SOL    HW223666  11.309   9.788   9.041
73945SOL     OW23667   9.342   1.364   8.621
73945SOL    HW123668   9.318   1.400   8.536
73945SOL    HW223669   9.437   1.371   8.625
73946SOL     OW23670   2.542   3.377  10.759
73946SOL    HW123671   2.491   3.386  10.679
73946SOL    HW223672   2.530   3.460  10.805
73947SOL     OW23673  11.988   7.074   7.365
73947SOL    HW123674  11.940   7.135   7.309
73947SOL    HW223675  12.024   7.129   7.435
73948SOL     OW23676  14.505  13.906   6.197
73948SOL    HW123677  14.577  13.962   6.227
73948SOL    HW223678  14.449  13.964   6.147
73949SOL     OW23679   2.670   8.406   4.841
73949SOL    HW123680   2.697   8.341   4.906
73949SOL    HW223681   2.663   8.357   4.759
73950SOL     OW23682  12.121   3.161   4.366
73950SOL    HW123683  12.107   3.082   4.419
73950SOL    HW223684  12.188   3.135   4.302
73951SOL     OW23685   9.820   3.217   8.093
73951SOL    HW123686   9.869   3.135   8.097
73951SOL    HW223687   9.797   3.235   8.184
73952SOL     OW23688  14.469   3.838   0.455
73952SOL    HW123689  14.488   3.931   0.464
73952SOL    HW223690  14.376   3.830   0.477
73953SOL     OW23691   4.622   2.304   9.010
73953SOL    HW123692   4.645   2.396   9.025
73953SOL    HW223693   4.637   2.291   8.917
73954SOL     OW23694   6.515   2.046   0.567
73954SOL    HW123695   6.520   2.018   0.475
73954SOL    HW223696   6.492   1.966   0.615
73955SOL     OW23697  10.993   0.208   2.296
73955SOL    HW123698  11.028   0.266   2.365
73955SOL    HW223699  11.070   0.162   2.263
73956SOL     OW23700  11.456   3.907   1.246
73956SOL    HW123701  11.532   3.870   1.291
73956SOL    HW223702  11.415   3.832   1.203
73957SOL     OW23703   3.227   6.978   6.795
73957SOL    HW123704   3.229   6.939   6.708
73957SOL    HW223705   3.265   6.911   6.853
73958SOL     OW23706   1.791  12.314  10.860
73958SOL    HW123707   1.794  12.409  10.859
73958SOL    HW223708   1.878  12.287  10.829
73959SOL     OW23709   6.320   2.606   5.401
73959SOL    HW123710   6.264   2.543   5.446
73959SOL    HW223711   6.378   2.640   5.470
73960SOL     OW23712   3.145   5.473  14.663
73960SOL    HW123713   3.124   5.387  14.700
73960SOL    HW223714   3.237   5.487  14.685
73961SOL     OW23715   1.392  14.813   9.991
73961SOL    HW123716   1.351  14.803  10.077
73961SOL    HW223717   1.397  14.724   9.957
73962SOL     OW23718   9.082   1.500   3.991
73962SOL    HW123719   9.166   1.456   3.977
73962SOL    HW223720   9.081   1.518   4.085
73963SOL     OW23721   8.180  13.290   9.053
73963SOL    HW123722   8.200  13.284   9.146
73963SOL    HW223723   8.186  13.200   9.021
73964SOL     OW23724  13.035   5.810   9.106
73964SOL    HW123725  13.060   5.804   9.013
73964SOL    HW223726  13.016   5.719   9.131
73965SOL     OW23727  11.195   0.780   8.883
73965SOL    HW123728  11.266   0.715   8.878
73965SOL    HW223729  11.171   0.782   8.975
73966SOL     OW23730  12.189  10.473  12.341
73966SOL    HW123731  12.281  10.496  12.357
73966SOL    HW223732  12.187  10.439  12.252
73967SOL     OW23733   5.849   9.060   5.177
73967SOL    HW123734   5.842   8.997   5.106
73967SOL    HW223735   5.774   9.118   5.165
73968SOL     OW23736   6.828   2.299   0.693
73968SOL    HW123737   6.891   2.246   0.741
73968SOL    HW223738   6.861   2.301   0.603
73969SOL     OW23739   2.164  10.480  12.541
73969SOL    HW123740   2.239  10.508  12.489
73969SOL    HW223741   2.198  10.470  12.629
73970SOL     OW23742  13.046   1.861   2.973
73970SOL    HW123743  12.969   1.817   3.011
73970SOL    HW223744  13.012   1.904   2.895
73971SOL     OW23745   5.448  14.097   4.801
73971SOL    HW123746   5.373  14.084   4.858
73971SOL    HW223747   5.442  14.026   4.737
73972SOL     OW23748  11.026   5.200   4.506
73972SOL    HW123749  11.101   5.181   4.561
73972SOL    HW223750  10.968   5.252   4.562
73973SOL     OW23751   7.915  11.433   8.328
73973SOL    HW123752   7.927  11.477   8.244
73973SOL    HW223753   8.002  11.402   8.352
73974SOL     OW23754   9.748   5.256  12.847
73974SOL    HW123755   9.692   5.332  12.865
73974SOL    HW223756   9.691   5.196  12.800
73975SOL     OW23757   0.573  13.971   3.428
73975SOL    HW123758   0.604  14.029   3.497
73975SOL    HW223759   0.558  14.029   3.353
73976SOL     OW23760   8.086  11.114   0.574
73976SOL    HW123761   8.060  11.031   0.613
73976SOL    HW223762   8.154  11.148   0.632
73977SOL     OW23763   6.568   5.201   5.299
73977SOL    HW123764   6.664   5.198   5.289
73977SOL    HW223765   6.553   5.274   5.360
73978SOL     OW23766   1.137   7.539   2.428
73978SOL    HW123767   1.055   7.495   2.452
73978SOL    HW223768   1.181   7.554   2.512
73979SOL     OW23769   6.393  12.600  10.216
73979SOL    HW123770   6.410  12.690  10.245
73979SOL    HW223771   6.478  12.568  10.184
73980SOL     OW23772  11.762   3.541  10.828
73980SOL    HW123773  11.700   3.569  10.760
73980SOL    HW223774  11.836   3.506  10.779
73981SOL     OW23775   7.412   6.847  14.220
73981SOL    HW123776   7.420   6.855  14.125
73981SOL    HW223777   7.344   6.781  14.234
73982SOL     OW23778   5.459   8.614   9.839
73982SOL    HW123779   5.512   8.647   9.912
73982SOL    HW223780   5.514   8.550   9.796
73983SOL     OW23781   0.058  13.162   6.619
73983SOL    HW123782  14.842  13.146   6.589
73983SOL    HW223783   0.090  13.076   6.647
73984SOL     OW23784   6.228  11.949   9.088
73984SOL    HW123785   6.156  11.951   9.025
73984SOL    HW223786   6.300  11.907   9.041
73985SOL     OW23787   4.191  12.065   1.026
73985SOL    HW123788   4.109  12.022   1.001
73985SOL    HW223789   4.249  11.993   1.051
73986SOL     OW23790   0.118   9.081  10.649
73986SOL    HW123791   0.138   8.988  10.640
73986SOL    HW223792   0.033   9.084  10.691
73987SOL     OW23793   5.923  14.276   5.121
73987SOL    HW123794   5.945  14.197   5.170
73987SOL    HW223795   5.950  14.256   5.031
73988SOL     OW23796   0.516   3.976   3.771
73988SOL    HW123797   0.421   3.986   3.777
73988SOL    HW223798   0.529   3.889   3.733
73989SOL     OW23799   6.830   0.881  14.554
73989SOL    HW123800   6.875   0.909  14.474
73989SOL    HW223801   6.874   0.799  14.579
73990SOL     OW23802   6.695  13.726  10.100
73990SOL    HW123803   6.665  13.673  10.173
73990SOL    HW223804   6.767  13.778  10.135
73991SOL     OW23805  10.549   6.264   6.707
73991SOL    HW123806  10.623   6.234   6.760
73991SOL    HW223807  10.492   6.309   6.769
73992SOL     OW23808  12.834   0.373   9.107
73992SOL    HW123809  12.893   0.446   9.088
73992SOL    HW223810  12.869   0.333   9.187
73993SOL     OW23811   3.028   0.479   4.664
73993SOL    HW123812   2.952   0.498   4.609
73993SOL    HW223813   3.014   0.389   4.693
73994SOL     OW23814   2.473  10.061   5.878
73994SOL    HW123815   2.473  10.084   5.972
73994SOL    HW223816   2.420   9.982   5.873
73995SOL     OW23817  11.037   2.327  11.426
73995SOL    HW123818  11.098   2.401  11.419
73995SOL    HW223819  11.090   2.250  11.409
73996SOL     OW23820  10.767   0.114   9.980
73996SOL    HW123821  10.759   0.134  10.073
73996SOL    HW223822  10.770   0.200   9.937
73997SOL     OW23823   2.150   1.322  14.487
73997SOL    HW123824   2.072   1.273  14.512
73997SOL    HW223825   2.168   1.378  14.562
73998SOL     OW23826  10.804   2.381  12.751
73998SOL    HW123827  10.781   2.316  12.685
73998SOL    HW223828  10.898   2.372  12.762
73999SOL     OW23829  12.944  14.694  14.728
73999SOL    HW123830  12.943  14.606  14.765
73999SOL    HW223831  13.028  14.730  14.754
74000SOL     OW23832   0.496  12.649   3.913
74000SOL    HW123833   0.464  12.600   3.837
74000SOL    HW223834   0.416  12.668   3.964
74001SOL     OW23835   8.828   5.193  11.622
74001SOL    HW123836   8.903   5.223  11.674
74001SOL    HW223837   8.864   5.180  11.534
74002SOL     OW23838   9.070  12.838  13.885
74002SOL    HW123839   9.121  12.807  13.810
74002SOL    HW223840   9.127  12.903  13.927
74003SOL     OW23841   7.954  10.161   8.910
74003SOL    HW123842   7.888  10.204   8.857
74003SOL    HW223843   7.926  10.174   9.001
74004SOL     OW23844   6.591   9.086   7.087
74004SOL    HW123845   6.518   9.110   7.031
74004SOL    HW223846   6.640   9.168   7.100
74005SOL     OW23847  14.529  11.561  14.329
74005SOL    HW123848  14.464  11.518  14.274
74005SOL    HW223849  14.589  11.490  14.354
74006SOL     OW23850   4.002  10.818   7.356
74006SOL    HW123851   4.081  10.767   7.339
74006SOL    HW223852   3.934  10.774   7.307
74007SOL     OW23853   9.457   5.348   9.209
74007SOL    HW123854   9.498   5.284   9.151
74007SOL    HW223855   9.363   5.335   9.195
74008SOL     OW23856   7.494  10.983   8.562
74008SOL    HW123857   7.414  10.936   8.539
74008SOL    HW223858   7.497  10.981   8.658
74009SOL     OW23859   8.507   8.232   0.368
74009SOL    HW123860   8.457   8.182   0.432
74009SOL    HW223861   8.454   8.231   0.289
74010SOL     OW23862  10.689   2.359  10.060
74010SOL    HW123863  10.771   2.355  10.108
74010SOL    HW223864  10.683   2.275  10.014
74011SOL     OW23865   2.296   5.456   0.254
74011SOL    HW123866   2.219   5.424   0.207
74011SOL    HW223867   2.333   5.523   0.197
74012SOL     OW23868   9.317   6.337   5.875
74012SOL    HW123869   9.235   6.318   5.920
74012SOL    HW223870   9.298   6.325   5.782
74013SOL     OW23871   5.004   3.980   3.531
74013SOL    HW123872   5.065   4.053   3.518
74013SOL    HW223873   5.060   3.904   3.545
74014SOL     OW23874   0.537   8.778   8.029
74014SOL    HW123875   0.623   8.761   8.069
74014SOL    HW223876   0.499   8.848   8.082
74015SOL     OW23877  14.245   6.518  11.980
74015SOL    HW123878  14.275   6.596  11.933
74015SOL    HW223879  14.320   6.460  11.981
74016SOL     OW23880  13.324   6.589   2.872
74016SOL    HW123881  13.317   6.580   2.967
74016SOL    HW223882  13.270   6.518   2.837
74017SOL     OW23883   4.561   6.081   9.856
74017SOL    HW123884   4.634   6.101   9.916
74017SOL    HW223885   4.603   6.068   9.771
74018SOL     OW23886   8.251  14.850  10.555
74018SOL    HW123887   8.291  14.785  10.612
74018SOL    HW223888   8.324   0.022  10.513
74019SOL     OW23889  14.054   6.287   4.331
74019SOL    HW123890  14.015   6.300   4.245
74019SOL    HW223891  14.083   6.374   4.358
74020SOL     OW23892   6.428   4.447  14.212
74020SOL    HW123893   6.391   4.360  14.228
74020SOL    HW223894   6.439   4.484  14.300
74021SOL     OW23895   3.012   6.256   2.750
74021SOL    HW123896   3.024   6.200   2.673
74021SOL    HW223897   3.005   6.195   2.823
74022SOL     OW23898  11.737  14.264   8.489
74022SOL    HW123899  11.752  14.335   8.427
74022SOL    HW223900  11.823  14.246   8.527
74023SOL     OW23901   5.414   7.162  10.790
74023SOL    HW123902   5.401   7.219  10.714
74023SOL    HW223903   5.358   7.199  10.858
74024SOL     OW23904   1.286   0.520   1.251
74024SOL    HW123905   1.293   0.463   1.327
74024SOL    HW223906   1.213   0.578   1.272
74025SOL     OW23907   4.460   4.208   7.340
74025SOL    HW123908   4.372   4.217   7.303
74025SOL    HW223909   4.447   4.159   7.421
74026SOL     OW23910   8.710   8.026   5.121
74026SOL    HW123911   8.660   7.965   5.176
74026SOL    HW223912   8.719   8.105   5.175
74027SOL     OW23913   3.093  13.891  12.442
74027SOL    HW123914   3.044  13.919  12.519
74027SOL    HW223915   3.157  13.828  12.474
74028SOL     OW23916   6.072  14.340   1.190
74028SOL    HW123917   6.167  14.332   1.181
74028SOL    HW223918   6.056  14.434   1.184
74029SOL     OW23919   7.503   2.741  12.697
74029SOL    HW123920   7.427   2.713  12.748
74029SOL    HW223921   7.511   2.675  12.628
74030SOL     OW23922   5.697   8.872  12.539
74030SOL    HW123923   5.614   8.828  12.523
74030SOL    HW223924   5.742   8.870  12.455
74031SOL     OW23925   0.670   7.885   8.972
74031SOL    HW123926   0.680   7.811   8.911
74031SOL    HW223927   0.759   7.900   9.005
74032SOL     OW23928   2.858   8.170   4.707
74032SOL    HW123929   2.879   8.076   4.704
74032SOL    HW223930   2.764   8.174   4.692
74033SOL     OW23931   0.856   1.155   8.479
74033SOL    HW123932   0.795   1.144   8.406
74033SOL    HW223933   0.898   1.239   8.462
74034SOL     OW23934  13.257   5.427  13.138
74034SOL    HW123935  13.260   5.339  13.174
74034SOL    HW223936  13.276   5.484  13.213
74035SOL     OW23937   0.046   0.265   3.593
74035SOL    HW123938   0.029   0.318   3.671
74035SOL    HW223939  14.832   0.236   3.565
74036SOL     OW23940  13.853   0.781   2.282
74036SOL    HW123941  13.893   0.863   2.253
74036SOL    HW223942  13.859   0.784   2.377
74037SOL     OW23943   7.300   1.179   5.052
74037SOL    HW123944   7.224   1.121   5.046
74037SOL    HW223945   7.265   1.266   5.032
74038SOL     OW23946   8.664   1.273  10.510
74038SOL    HW123947   8.680   1.341  10.445
74038SOL    HW223948   8.630   1.321  10.586
74039SOL     OW23949  11.644  10.517   3.366
74039SOL    HW123950  11.694  10.571   3.305
74039SOL    HW223951  11.554  10.523   3.335
74040SOL     OW23952   0.920   5.840   4.184
74040SOL    HW123953   0.981   5.848   4.110
74040SOL    HW223954   0.965   5.883   4.257
74041SOL     OW23955  13.408   1.151   1.447
74041SOL    HW123956  13.474   1.124   1.510
74041SOL    HW223957  13.395   1.074   1.391
74042SOL     OW23958   1.375  13.804  13.546
74042SOL    HW123959   1.457  13.756  13.540
74042SOL    HW223960   1.384  13.875  13.482
74043SOL     OW23961   1.971  13.136   2.351
74043SOL    HW123962   1.964  13.123   2.446
74043SOL    HW223963   1.976  13.047   2.316
74044SOL     OW23964   6.386  10.975  11.735
74044SOL    HW123965   6.347  10.918  11.668
74044SOL    HW223966   6.459  10.924  11.770
74045SOL     OW23967  11.756   8.109   2.714
74045SOL    HW123968  11.851   8.121   2.712
74045SOL    HW223969  11.720   8.194   2.689
74046SOL     OW23970   5.657   4.545  12.035
74046SOL    HW123971   5.688   4.635  12.024
74046SOL    HW223972   5.604   4.528  11.957
74047SOL     OW23973   1.527  10.819   8.994
74047SOL    HW123974   1.503  10.870   8.917
74047SOL    HW223975   1.604  10.769   8.967
74048SOL     OW23976   6.890  13.379  13.526
74048SOL    HW123977   6.955  13.332  13.475
74048SOL    HW223978   6.813  13.385  13.468
74049SOL     OW23979   9.421  14.176   6.905
74049SOL    HW123980   9.393  14.230   6.979
74049SOL    HW223981   9.343  14.130   6.877
74050SOL     OW23982   7.361   4.130  13.579
74050SOL    HW123983   7.373   4.057  13.519
74050SOL    HW223984   7.449   4.153  13.607
74051SOL     OW23985   5.615   8.066   5.234
74051SOL    HW123986   5.667   8.076   5.314
74051SOL    HW223987   5.556   8.141   5.234
74052SOL     OW23988  12.308   7.146   9.931
74052SOL    HW123989  12.299   7.103  10.016
74052SOL    HW223990  12.329   7.076   9.870
74053SOL     OW23991  11.146  10.756   5.389
74053SOL    HW123992  11.051  10.745   5.393
74053SOL    HW223993  11.161  10.801   5.305
74054SOL     OW23994   5.405  14.133   9.670
74054SOL    HW123995   5.392  14.039   9.657
74054SOL    HW223996   5.387  14.147   9.763
74055SOL     OW23997   0.886   0.999   5.817
74055SOL    HW123998   0.970   1.013   5.773
74055SOL    HW223999   0.820   1.018   5.751
74056SOL     OW24000  13.971   7.843   8.288
74056SOL    HW124001  14.029   7.918   8.301
74056SOL    HW224002  14.012   7.772   8.337
74057SOL     OW24003   7.899   1.971   7.143
74057SOL    HW124004   7.945   2.025   7.207
74057SOL    HW224005   7.914   1.881   7.173
74058SOL     OW24006   9.917   2.752  12.030
74058SOL    HW124007   9.886   2.661  12.027
74058SOL    HW224008   9.848   2.799  12.077
74059SOL     OW24009  13.531   4.039   4.758
74059SOL    HW124010  13.603   4.013   4.816
74059SOL    HW224011  13.457   3.988   4.789
74060SOL     OW24012  12.434  13.030  12.758
74060SOL    HW124013  12.454  13.118  12.790
74060SOL    HW224014  12.470  12.972  12.824
74061SOL     OW24015   1.769  13.441  13.250
74061SOL    HW124016   1.853  13.397  13.236
74061SOL    HW224017   1.793  13.529  13.280
74062SOL     OW24018   2.063  10.391   7.666
74062SOL    HW124019   1.973  10.358   7.665
74062SOL    HW224020   2.075  10.431   7.579
74063SOL     OW24021   3.932   0.331   5.038
74063SOL    HW124022   3.912   0.424   5.046
74063SOL    HW224023   3.855   0.293   4.995
74064SOL     OW24024   6.517   7.008  13.345
74064SOL    HW124025   6.537   7.100  13.364
74064SOL    HW224026   6.561   6.991  13.262
74065SOL     OW24027   2.191   3.303   5.602
74065SOL    HW124028   2.120   3.278   5.661
74065SOL    HW224029   2.269   3.308   5.658
74066SOL     OW24030  11.720   0.424  10.055
74066SOL    HW124031  11.777   0.455  10.125
74066SOL    HW224032  11.656   0.368  10.099
74067SOL     OW24033   9.005   3.949  13.753
74067SOL    HW124034   9.071   4.012  13.721
74067SOL    HW224035   9.020   3.947  13.848
74068SOL     OW24036  11.482   7.139   6.940
74068SOL    HW124037  11.498   7.203   6.870
74068SOL    HW224038  11.440   7.065   6.896
74069SOL     OW24039  12.908   5.158   3.258
74069SOL    HW124040  12.815   5.181   3.263
74069SOL    HW224041  12.954   5.242   3.263
74070SOL     OW24042  11.903  13.292  11.129
74070SOL    HW124043  11.875  13.203  11.146
74070SOL    HW224044  11.952  13.318  11.207
74071SOL     OW24045   9.539   3.721   3.235
74071SOL    HW124046   9.525   3.788   3.169
74071SOL    HW224047   9.461   3.665   3.231
74072SOL     OW24048  10.052   2.403  11.986
74072SOL    HW124049  10.140   2.432  12.011
74072SOL    HW224050   9.995   2.443  12.051
74073SOL     OW24051  14.167  13.710   6.071
74073SOL    HW124052  14.224  13.768   6.020
74073SOL    HW224053  14.083  13.757   6.075
74074SOL     OW24054   8.507   1.760  11.230
74074SOL    HW124055   8.458   1.793  11.155
74074SOL    HW224056   8.575   1.826  11.246
74075SOL     OW24057   7.740  13.929  14.288
74075SOL    HW124058   7.807  13.887  14.234
74075SOL    HW224059   7.753  13.894  14.376
74076SOL     OW24060  11.993   0.197  13.414
74076SOL    HW124061  12.052   0.272  13.407
74076SOL    HW224062  11.944   0.198  13.332
74077SOL     OW24063   0.486  12.122  13.884
74077SOL    HW124064   0.488  12.047  13.944
74077SOL    HW224065   0.399  12.159  13.896
74078SOL     OW24066  13.631   1.459   6.801
74078SOL    HW124067  13.641   1.553   6.813
74078SOL    HW224068  13.721   1.426   6.794
74079SOL     OW24069   9.109   5.305  13.957
74079SOL    HW124070   9.074   5.391  13.979
74079SOL    HW224071   9.138   5.313  13.867
74080SOL     OW24072  13.971   8.131  11.480
74080SOL    HW124073  13.929   8.070  11.541
74080SOL    HW224074  13.981   8.080  11.400
74081SOL     OW24075  11.504  14.826   0.346
74081SOL    HW124076  11.422  14.794   0.383
74081SOL    HW224077  11.480   0.036   0.304
74082SOL     OW24078  11.671   7.548   1.403
74082SOL    HW124079  11.640   7.604   1.331
74082SOL    HW224080  11.635   7.589   1.482
74083SOL     OW24081   5.935  11.536   9.101
74083SOL    HW124082   5.938  11.602   9.170
74083SOL    HW224083   5.969  11.457   9.141
74084SOL     OW24084  12.569   5.992   5.704
74084SOL    HW124085  12.634   5.957   5.643
74084SOL    HW224086  12.618   6.055   5.757
74085SOL     OW24087  12.039   0.815   4.631
74085SOL    HW124088  11.958   0.821   4.681
74085SOL    HW224089  12.094   0.885   4.667
74086SOL     OW24090   7.536   6.364  14.843
74086SOL    HW124091   7.507   6.309  14.770
74086SOL    HW224092   7.555   6.449  14.803
74087SOL     OW24093   0.021   7.903  10.782
74087SOL    HW124094   0.071   7.888  10.702
74087SOL    HW224095   0.044   7.829  10.838
74088SOL     OW24096   6.152   2.145  10.504
74088SOL    HW124097   6.135   2.179  10.416
74088SOL    HW224098   6.125   2.053  10.499
74089SOL     OW24099   8.438  13.005   8.277
74089SOL    HW124100   8.502  12.965   8.335
74089SOL    HW224101   8.491  13.052   8.212
74090SOL     OW24102   4.999   9.578   3.986
74090SOL    HW124103   4.956   9.608   3.907
74090SOL    HW224104   4.972   9.487   3.996
74091SOL     OW24105   6.325   5.515   7.218
74091SOL    HW124106   6.326   5.512   7.122
74091SOL    HW224107   6.268   5.443   7.244
74092SOL     OW24108   0.161   9.861   2.763
74092SOL    HW124109   0.148   9.950   2.731
74092SOL    HW224110   0.224   9.870   2.834
74093SOL     OW24111  10.738   5.986   0.581
74093SOL    HW124112  10.819   6.037   0.584
74093SOL    HW224113  10.742   5.929   0.658
74094SOL     OW24114  10.364  13.303   7.867
74094SOL    HW124115  10.404  13.234   7.920
74094SOL    HW224116  10.277  13.314   7.904
74095SOL     OW24117   9.663   0.134   6.761
74095SOL    HW124118   9.603   0.201   6.796
74095SOL    HW224119   9.689   0.168   6.675
74096SOL     OW24120   2.378  14.015   2.380
74096SOL    HW124121   2.404  14.080   2.316
74096SOL    HW224122   2.337  14.066   2.451
74097SOL     OW24123   5.975   5.639   8.549
74097SOL    HW124124   5.920   5.701   8.502
74097SOL    HW224125   5.981   5.563   8.491
74098SOL     OW24126   7.435   2.921   2.918
74098SOL    HW124127   7.469   3.010   2.922
74098SOL    HW224128   7.380   2.912   2.996
74099SOL     OW24129  14.556  12.638  12.235
74099SOL    HW124130  14.501  12.560  12.232
74099SOL    HW224131  14.576  12.650  12.328
74100SOL     OW24132   8.884   3.914  13.000
74100SOL    HW124133   8.885   3.821  13.021
74100SOL    HW224134   8.976   3.937  12.987
74101SOL     OW24135   6.453  14.173   4.206
74101SOL    HW124136   6.521  14.106   4.215
74101SOL    HW224137   6.500  14.256   4.214
74102SOL     OW24138   9.282   0.296   1.931
74102SOL    HW124139   9.216   0.364   1.924
74102SOL    HW224140   9.250   0.225   1.876
74103SOL     OW24141   9.640   7.519   3.203
74103SOL    HW124142   9.731   7.537   3.178
74103SOL    HW224143   9.645   7.499   3.297
74104SOL     OW24144  13.626   3.004   2.592
74104SOL    HW124145  13.676   2.966   2.520
74104SOL    HW224146  13.685   2.999   2.668
74105SOL     OW24147   6.938   0.108   2.094
74105SOL    HW124148   6.982   0.024   2.082
74105SOL    HW224149   6.937   0.121   2.189
74106SOL     OW24150  14.012   4.273  10.052
74106SOL    HW124151  14.019   4.362  10.087
74106SOL    HW224152  14.061   4.219  10.115
74107SOL     OW24153  14.023   4.204  11.547
74107SOL    HW124154  13.966   4.281  11.544
74107SOL    HW224155  14.094   4.224  11.486
74108SOL     OW24156   1.882   3.030   8.752
74108SOL    HW124157   1.964   3.073   8.727
74108SOL    HW224158   1.835   3.095   8.804
74109SOL     OW24159   0.082   9.588   4.172
74109SOL    HW124160   0.161   9.542   4.199
74109SOL    HW224161   0.068   9.560   4.081
74110SOL     OW24162   2.979   8.497   7.598
74110SOL    HW124163   2.979   8.402   7.605
74110SOL    HW224164   2.948   8.528   7.683
74111SOL     OW24165   0.609  10.151  14.696
74111SOL    HW124166   0.561  10.161  14.777
74111SOL    HW224167   0.607  10.057  14.678
74112SOL     OW24168   4.929   1.348   6.352
74112SOL    HW124169   4.915   1.332   6.259
74112SOL    HW224170   4.841   1.350   6.390
74113SOL     OW24171   0.186   5.516   1.255
74113SOL    HW124172   0.206   5.528   1.163
74113SOL    HW224173   0.271   5.523   1.299
74114SOL     OW24174   0.807  13.792  11.384
74114SOL    HW124175   0.868  13.719  11.386
74114SOL    HW224176   0.797  13.818  11.475
74115SOL     OW24177   6.405  14.218   5.768
74115SOL    HW124178   6.433  14.136   5.810
74115SOL    HW224179   6.367  14.269   5.840
74116SOL     OW24180   0.476   2.713   8.493
74116SOL    HW124181   0.446   2.804   8.485
74116SOL    HW224182   0.530   2.713   8.573
74117SOL     OW24183   0.584  12.835   4.794
74117SOL    HW124184   0.538  12.880   4.865
74117SOL    HW224185   0.568  12.742   4.811
74118SOL     OW24186   7.431   1.120  13.515
74118SOL    HW124187   7.354   1.174  13.497
74118SOL    HW224188   7.453   1.080  13.431
74119SOL     OW24189   7.207  13.697  13.758
74119SOL    HW124190   7.177  13.759  13.691
74119SOL    HW224191   7.297  13.724  13.777
74120SOL     OW24192   0.362   7.153   4.053
74120SOL    HW124193   0.427   7.083   4.039
74120SOL    HW224194   0.320   7.130   4.135
74121SOL     OW24195   3.659   2.332  12.359
74121SOL    HW124196   3.716   2.389  12.308
74121SOL    HW224197   3.571   2.348  12.324
74122SOL     OW24198   1.609   6.835   3.596
74122SOL    HW124199   1.567   6.875   3.672
74122SOL    HW224200   1.556   6.863   3.521
74123SOL     OW24201   6.916  14.050   0.022
74123SOL    HW124202   6.827  14.016   0.011
74123SOL    HW224203   6.908  14.114   0.092
74124SOL     OW24204   1.193   3.176   8.168
74124SOL    HW124205   1.182   3.197   8.261
74124SOL    HW224206   1.131   3.234   8.123
74125SOL     OW24207  11.511  13.346   1.554
74125SOL    HW124208  11.582  13.281   1.559
74125SOL    HW224209  11.433  13.295   1.535
74126SOL     OW24210   2.190   4.300   4.163
74126SOL    HW124211   2.277   4.334   4.184
74126SOL    HW224212   2.207   4.216   4.122
74127SOL     OW24213  14.710   8.183   1.122
74127SOL    HW124214  14.720   8.088   1.130
74127SOL    HW224215  14.799   8.216   1.113
74128SOL     OW24216   5.748   2.310   2.525
74128SOL    HW124217   5.777   2.379   2.466
74128SOL    HW224218   5.764   2.344   2.613
74129SOL     OW24219   1.316   6.601  10.827
74129SOL    HW124220   1.392   6.551  10.856
74129SOL    HW224221   1.354   6.683  10.792
74130SOL     OW24222   2.773   2.574   1.785
74130SOL    HW124223   2.811   2.645   1.732
74130SOL    HW224224   2.741   2.511   1.720
74131SOL     OW24225   5.891   4.156  14.322
74131SOL    HW124226   5.921   4.126  14.236
74131SOL    HW224227   5.832   4.086  14.352
74132SOL     OW24228  12.127  12.488   5.911
74132SOL    HW124229  12.141  12.578   5.942
74132SOL    HW224230  12.215  12.451   5.905
74133SOL     OW24231  11.302   0.817   3.800
74133SOL    HW124232  11.300   0.854   3.712
74133SOL    HW224233  11.361   0.874   3.849
74134SOL     OW24234   1.332   8.309   9.689
74134SOL    HW124235   1.333   8.269   9.776
74134SOL    HW224236   1.324   8.235   9.628
74135SOL     OW24237   6.644   9.436  10.651
74135SOL    HW124238   6.575   9.493  10.614
74135SOL    HW224239   6.725   9.482  10.631
74136SOL     OW24240   5.592   8.105  10.228
74136SOL    HW124241   5.678   8.110  10.187
74136SOL    HW224242   5.561   8.196  10.229
74137SOL     OW24243   2.342   0.033   1.496
74137SOL    HW124244   2.389  14.842   1.550
74137SOL    HW224245   2.357   0.004   1.406
74138SOL     OW24246   2.769   3.825   0.405
74138SOL    HW124247   2.772   3.747   0.350
74138SOL    HW224248   2.724   3.797   0.485
74139SOL     OW24249   7.766   1.283   8.507
74139SOL    HW124250   7.683   1.294   8.460
74139SOL    HW224251   7.808   1.209   8.464
74140SOL     OW24252   5.675   0.450   4.735
74140SOL    HW124253   5.768   0.431   4.744
74140SOL    HW224254   5.658   0.517   4.801
74141SOL     OW24255   3.735  10.043   3.410
74141SOL    HW124256   3.823  10.058   3.444
74141SOL    HW224257   3.712  10.124   3.364
74142SOL     OW24258   3.182   0.467   5.649
74142SOL    HW124259   3.274   0.491   5.636
74142SOL    HW224260   3.146   0.539   5.702
74143SOL     OW24261   5.928  13.839  11.789
74143SOL    HW124262   6.014  13.861  11.753
74143SOL    HW224263   5.946  13.781  11.863
74144SOL     OW24264   0.707   7.021   2.157
74144SOL    HW124265   0.640   7.089   2.143
74144SOL    HW224266   0.787   7.059   2.123
74145SOL     OW24267   9.679   3.410  10.945
74145SOL    HW124268   9.616   3.368  11.004
74145SOL    HW224269   9.654   3.502  10.944
74146SOL     OW24270   1.541   5.631   1.795
74146SOL    HW124271   1.617   5.586   1.831
74146SOL    HW224272   1.557   5.724   1.812
74147SOL     OW24273   0.113  11.347   9.929
74147SOL    HW124274   0.200  11.355   9.890
74147SOL    HW224275   0.127  11.293  10.007
74148SOL     OW24276   2.722   7.682  13.662
74148SOL    HW124277   2.642   7.717  13.623
74148SOL    HW224278   2.728   7.592  13.629
74149SOL     OW24279   9.259   9.723   6.493
74149SOL    HW124280   9.182   9.717   6.436
74149SOL    HW224281   9.318   9.655   6.461
74150SOL     OW24282   4.821   1.414   5.123
74150SOL    HW124283   4.785   1.498   5.151
74150SOL    HW224284   4.775   1.395   5.040
74151SOL     OW24285  14.560  12.066   6.080
74151SOL    HW124286  14.473  12.082   6.043
74151SOL    HW224287  14.588  11.984   6.039
74152SOL     OW24288  12.266   7.518  13.170
74152SOL    HW124289  12.247   7.530  13.077
74152SOL    HW224290  12.245   7.602  13.210
74153SOL     OW24291   8.037   5.162  10.727
74153SOL    HW124292   8.114   5.196  10.772
74153SOL    HW224293   8.039   5.204  10.641
74154SOL     OW24294   3.913  11.546   5.974
74154SOL    HW124295   4.004  11.573   5.986
74154SOL    HW224296   3.894  11.491   6.050
74155SOL     OW24297   4.308   9.901   4.641
74155SOL    HW124298   4.279   9.943   4.560
74155SOL    HW224299   4.403   9.910   4.639
74156SOL     OW24300   9.320  11.447   7.165
74156SOL    HW124301   9.326  11.392   7.243
74156SOL    HW224302   9.406  11.488   7.157
74157SOL     OW24303   7.011  14.094  14.387
74157SOL    HW124304   7.003  14.131  14.475
74157SOL    HW224305   7.094  14.047  14.389
74158SOL     OW24306   6.730   9.242   5.685
74158SOL    HW124307   6.805   9.219   5.632
74158SOL    HW224308   6.660   9.183   5.656
74159SOL     OW24309  10.198  13.170  10.828
74159SOL    HW124310  10.283  13.191  10.867
74159SOL    HW224311  10.134  13.199  10.892
74160SOL     OW24312   3.947   3.455   5.475
74160SOL    HW124313   3.902   3.531   5.437
74160SOL    HW224314   4.040   3.469   5.454
74161SOL     OW24315   2.178   9.621  11.572
74161SOL    HW124316   2.131   9.613  11.655
74161SOL    HW224317   2.231   9.541  11.566
74162SOL     OW24318  11.145   3.831   6.425
74162SOL    HW124319  11.117   3.741   6.438
74162SOL    HW224320  11.241   3.827   6.424
74163SOL     OW24321  10.375   6.732   9.695
74163SOL    HW124322  10.415   6.788   9.762
74163SOL    HW224323  10.435   6.737   9.620
74164SOL     OW24324  11.836   4.327   8.910
74164SOL    HW124325  11.860   4.417   8.888
74164SOL    HW224326  11.863   4.317   9.001
74165SOL     OW24327   1.263  10.122  13.268
74165SOL    HW124328   1.341  10.172  13.293
74165SOL    HW224329   1.297  10.045  13.223
74166SOL     OW24330   8.206   1.977  13.370
74166SOL    HW124331   8.198   1.912  13.300
74166SOL    HW224332   8.147   1.946  13.439
74167SOL     OW24333  10.321   4.546   2.993
74167SOL    HW124334  10.301   4.527   3.085
74167SOL    HW224335  10.241   4.521   2.946
74168SOL     OW24336   0.467   2.002  12.080
74168SOL    HW124337   0.465   2.078  12.022
74168SOL    HW224338   0.476   2.039  12.168
74169SOL     OW24339  11.492   3.643   5.597
74169SOL    HW124340  11.537   3.570   5.639
74169SOL    HW224341  11.400   3.629   5.617
74170SOL     OW24342   4.370   0.926   4.672
74170SOL    HW124343   4.374   0.929   4.576
74170SOL    HW224344   4.411   0.842   4.694
74171SOL     OW24345   7.587   4.766  14.403
74171SOL    HW124346   7.520   4.814  14.452
74171SOL    HW224347   7.570   4.788  14.312
74172SOL     OW24348   1.887   0.990   9.918
74172SOL    HW124349   1.948   1.035   9.859
74172SOL    HW224350   1.942   0.956   9.988
74173SOL     OW24351  11.488  10.295  11.320
74173SOL    HW124352  11.480  10.279  11.226
74173SOL    HW224353  11.521  10.213  11.356
74174SOL     OW24354   2.134   9.425   4.057
74174SOL    HW124355   2.219   9.421   4.013
74174SOL    HW224356   2.119   9.336   4.088
74175SOL     OW24357   9.845   3.800   1.156
74175SOL    HW124358   9.796   3.808   1.238
74175SOL    HW224359   9.792   3.847   1.092
74176SOL     OW24360   9.597   3.959   9.624
74176SOL    HW124361   9.686   3.926   9.639
74176SOL    HW224362   9.608   4.053   9.614
74177SOL     OW24363  13.166  10.714   0.874
74177SOL    HW124364  13.140  10.765   0.950
74177SOL    HW224365  13.084  10.685   0.835
74178SOL     OW24366   7.265   6.840   8.396
74178SOL    HW124367   7.345   6.834   8.449
74178SOL    HW224368   7.272   6.766   8.335
74179SOL     OW24369   2.364  14.732  10.900
74179SOL    HW124370   2.297  14.664  10.900
74179SOL    HW224371   2.319  14.808  10.937
74180SOL     OW24372   0.595   1.006   9.066
74180SOL    HW124373   0.564   0.922   9.030
74180SOL    HW224374   0.689   0.992   9.080
74181SOL     OW24375   2.325  14.594   0.103
74181SOL    HW124376   2.377  14.561   0.176
74181SOL    HW224377   2.266  14.522   0.081
74182SOL     OW24378  10.030  10.380  14.213
74182SOL    HW124379  10.023  10.475  14.202
74182SOL    HW224380   9.989  10.363  14.298
74183SOL     OW24381   7.438  13.259   6.022
74183SOL    HW124382   7.349  13.232   6.046
74183SOL    HW224383   7.426  13.316   5.946
74184SOL     OW24384  14.112   2.606   9.167
74184SOL    HW124385  14.033   2.607   9.221
74184SOL    HW224386  14.117   2.694   9.131
74185SOL     OW24387   6.169   0.598   2.504
74185SOL    HW124388   6.162   0.558   2.417
74185SOL    HW224389   6.212   0.683   2.488
74186SOL     OW24390   2.529   7.891   5.768
74186SOL    HW124391   2.547   7.977   5.807
74186SOL    HW224392   2.539   7.829   5.841
74187SOL     OW24393   5.855  12.096   4.551
74187SOL    HW124394   5.844  12.188   4.528
74187SOL    HW224395   5.923  12.096   4.618
74188SOL     OW24396   6.491   1.392   9.988
74188SOL    HW124397   6.502   1.481  10.023
74188SOL    HW224398   6.423   1.401   9.922
74189SOL     OW24399   2.689  13.457   7.035
74189SOL    HW124400   2.764  13.414   7.077
74189SOL    HW224401   2.619  13.450   7.099
74190SOL     OW24402   0.900  14.010   2.756
74190SOL    HW124403   0.846  13.989   2.833
74190SOL    HW224404   0.887  13.936   2.697
74191SOL     OW24405  10.031   8.240   6.076
74191SOL    HW124406  10.080   8.320   6.057
74191SOL    HW224407   9.967   8.266   6.142
74192SOL     OW24408  11.266   0.130   6.695
74192SOL    HW124409  11.192   0.111   6.753
74192SOL    HW224410  11.250   0.076   6.618
74193SOL     OW24411   6.806   8.732   7.101
74193SOL    HW124412   6.787   8.714   7.009
74193SOL    HW224413   6.898   8.758   7.102
74194SOL     OW24414   3.875   4.742   4.253
74194SOL    HW124415   3.809   4.695   4.202
74194SOL    HW224416   3.865   4.708   4.342
74195SOL     OW24417  14.557   1.150   5.552
74195SOL    HW124418  14.462   1.152   5.564
74195SOL    HW224419  14.581   1.241   5.536
74196SOL     OW24420   2.471   4.254   9.551
74196SOL    HW124421   2.458   4.164   9.582
74196SOL    HW224422   2.391   4.300   9.575
74197SOL     OW24423   2.009   6.754   5.863
74197SOL    HW124424   1.930   6.705   5.886
74197SOL    HW224425   1.990   6.792   5.777
74198SOL     OW24426   7.107   5.628  13.040
74198SOL    HW124427   7.169   5.558  13.021
74198SOL    HW224428   7.110   5.637  13.135
74199SOL     OW24429   6.056  14.516   9.770
74199SOL    HW124430   6.018  14.598   9.739
74199SOL    HW224431   6.078  14.467   9.691
74200SOL     OW24432   4.574   5.505   7.926
74200SOL    HW124433   4.528   5.421   7.929
74200SOL    HW224434   4.508   5.570   7.950
74201SOL     OW24435  13.729  12.101   2.770
74201SOL    HW124436  13.776  12.034   2.720
74201SOL    HW224437  13.798  12.149   2.815
74202SOL     OW24438  10.835   7.698  11.032
74202SOL    HW124439  10.787   7.720  10.952
74202SOL    HW224440  10.773   7.714  11.103
74203SOL     OW24441  11.252   9.344   1.706
74203SOL    HW124442  11.253   9.429   1.662
74203SOL    HW224443  11.230   9.365   1.797
74204SOL     OW24444   1.832  14.477   8.623
74204SOL    HW124445   1.862  14.386   8.617
74204SOL    HW224446   1.737  14.471   8.616
74205SOL     OW24447   7.780  13.878   6.971
74205SOL    HW124448   7.706  13.821   6.992
74205SOL    HW224449   7.783  13.940   7.044
74206SOL     OW24450   4.278   3.907  13.217
74206SOL    HW124451   4.324   3.923  13.134
74206SOL    HW224452   4.219   3.835  13.198
74207SOL     OW24453   2.471   7.789  12.144
74207SOL    HW124454   2.397   7.729  12.147
74207SOL    HW224455   2.540   7.745  12.193
74208SOL     OW24456   3.899   1.069  14.832
74208SOL    HW124457   3.975   1.117  14.800
74208SOL    HW224458   3.830   1.135  14.840
74209SOL     OW24459   5.407   6.004   4.636
74209SOL    HW124460   5.489   6.003   4.685
74209SOL    HW224461   5.349   6.059   4.688
74210SOL     OW24462   2.081  12.510   9.946
74210SOL    HW124463   2.160  12.478   9.902
74210SOL    HW224464   2.105  12.514  10.039
74211SOL     OW24465  14.201  14.226   7.338
74211SOL    HW124466  14.175  14.150   7.286
74211SOL    HW224467  14.161  14.300   7.293
74212SOL     OW24468   0.668   9.024   5.355
74212SOL    HW124469   0.697   8.933   5.363
74212SOL    HW224470   0.748   9.076   5.362
74213SOL     OW24471   1.446  12.671  12.895
74213SOL    HW124472   1.409  12.668  12.984
74213SOL    HW224473   1.375  12.640  12.839
74214SOL     OW24474   8.968   0.045   7.015
74214SOL    HW124475   8.899  14.867   7.057
74214SOL    HW224476   9.049   0.001   7.040
74215SOL     OW24477  12.539   1.182   1.043
74215SOL    HW124478  12.618   1.176   1.095
74215SOL    HW224479  12.472   1.216   1.103
74216SOL     OW24480   2.207   9.216   7.925
74216SOL    HW124481   2.166   9.227   8.010
74216SOL    HW224482   2.136   9.191   7.867
74217SOL     OW24483  13.725   9.688  10.809
74217SOL    HW124484  13.689   9.614  10.761
74217SOL    HW224485  13.649   9.728  10.851
74218SOL     OW24486  10.304   3.369   7.932
74218SOL    HW124487  10.220   3.401   7.965
74218SOL    HW224488  10.326   3.428   7.861
74219SOL     OW24489   2.907   3.052   8.521
74219SOL    HW124490   2.943   3.116   8.582
74219SOL    HW224491   2.922   3.090   8.434
74220SOL     OW24492   5.806   1.604   4.109
74220SOL    HW124493   5.858   1.545   4.056
74220SOL    HW224494   5.717   1.594   4.075
74221SOL     OW24495   5.915  12.762   9.818
74221SOL    HW124496   5.863  12.764   9.738
74221SOL    HW224497   6.006  12.767   9.788
74222SOL     OW24498   1.614   1.318   4.826
74222SOL    HW124499   1.700   1.351   4.799
74222SOL    HW224500   1.634   1.252   4.892
74223SOL     OW24501  13.750   4.718   1.559
74223SOL    HW124502  13.794   4.678   1.484
74223SOL    HW224503  13.715   4.801   1.525
74224SOL     OW24504   6.591   7.814  13.335
74224SOL    HW124505   6.563   7.743  13.393
74224SOL    HW224506   6.653   7.865  13.388
74225SOL     OW24507  14.793  14.046  11.467
74225SOL    HW124508  14.744  14.018  11.390
74225SOL    HW224509   0.002  13.997  11.463
74226SOL     OW24510   0.363   5.347   8.028
74226SOL    HW124511   0.440   5.293   8.014
74226SOL    HW224512   0.396   5.426   8.071
74227SOL     OW24513  10.055   0.260   5.736
74227SOL    HW124514  10.109   0.183   5.719
74227SOL    HW224515  10.002   0.237   5.812
74228SOL     OW24516   1.786   3.019   6.017
74228SOL    HW124517   1.776   3.106   5.979
74228SOL    HW224518   1.851   2.976   5.962
74229SOL     OW24519   3.167   5.094   5.671
74229SOL    HW124520   3.210   5.163   5.620
74229SOL    HW224521   3.078   5.090   5.635
74230SOL     OW24522   4.982   9.285   9.067
74230SOL    HW124523   5.071   9.251   9.079
74230SOL    HW224524   4.942   9.277   9.154
74231SOL     OW24525   5.011  12.344   3.255
74231SOL    HW124526   5.097  12.331   3.216
74231SOL    HW224527   5.029  12.375   3.344
74232SOL     OW24528  11.902   6.781   9.601
74232SOL    HW124529  11.923   6.874   9.613
74232SOL    HW224530  11.987   6.737   9.598
74233SOL     OW24531   1.170  12.124   9.169
74233SOL    HW124532   1.195  12.050   9.225
74233SOL    HW224533   1.251  12.151   9.127
74234SOL     OW24534  14.862   2.816  12.770
74234SOL    HW124535   0.048   2.768  12.712
74234SOL    HW224536  14.837   2.753  12.837
74235SOL     OW24537   9.878  13.903   6.271
74235SOL    HW124538   9.858  13.810   6.282
74235SOL    HW224539   9.793  13.943   6.252
74236SOL     OW24540   0.453   1.208   5.069
74236SOL    HW124541   0.482   1.117   5.061
74236SOL    HW224542   0.359   1.201   5.087
74237SOL     OW24543  13.455   2.095   2.069
74237SOL    HW124544  13.535   2.072   2.021
74237SOL    HW224545  13.391   2.030   2.040
74238SOL     OW24546  12.968   1.576   8.507
74238SOL    HW124547  12.955   1.632   8.583
74238SOL    HW224548  12.879   1.556   8.476
74239SOL     OW24549  10.893   2.687  13.158
74239SOL    HW124550  10.970   2.659  13.109
74239SOL    HW224551  10.878   2.777  13.129
74240SOL     OW24552   0.111   6.223  11.233
74240SOL    HW124553   0.133   6.135  11.263
74240SOL    HW224554   0.155   6.231  11.148
74241SOL     OW24555   6.045   6.073  12.119
74241SOL    HW124556   6.133   6.109  12.105
74241SOL    HW224557   6.036   6.004  12.052
74242SOL     OW24558   5.544   3.859  12.361
74242SOL    HW124559   5.610   3.915  12.320
74242SOL    HW224560   5.540   3.782  12.305
74243SOL     OW24561  14.449   2.351   8.732
74243SOL    HW124562  14.536   2.316   8.711
74243SOL    HW224563  14.466   2.432   8.780
74244SOL     OW24564  13.366  13.847   7.596
74244SOL    HW124565  13.402  13.934   7.617
74244SOL    HW224566  13.295  13.834   7.658
74245SOL     OW24567  12.111   0.383  11.904
74245SOL    HW124568  12.137   0.342  11.822
74245SOL    HW224569  12.184   0.367  11.964
74246SOL     OW24570  14.491   9.102   3.348
74246SOL    HW124571  14.511   9.042   3.421
74246SOL    HW224572  14.487   9.045   3.272
74247SOL     OW24573   1.295   3.228   9.430
74247SOL    HW124574   1.272   3.307   9.381
74247SOL    HW224575   1.368   3.190   9.382
74248SOL     OW24576   0.374   2.153  13.365
74248SOL    HW124577   0.362   2.059  13.373
74248SOL    HW224578   0.468   2.165  13.351
74249SOL     OW24579  11.935   1.240  11.949
74249SOL    HW124580  11.961   1.202  12.033
74249SOL    HW224581  11.882   1.316  11.972
74250SOL     OW24582   3.270   7.957   0.192
74250SOL    HW124583   3.213   7.881   0.204
74250SOL    HW224584   3.217   8.019   0.143
74251SOL     OW24585   5.981  10.239   8.621
74251SOL    HW124586   5.963  10.282   8.705
74251SOL    HW224587   5.900  10.248   8.571
74252SOL     OW24588  14.828  11.462   6.832
74252SOL    HW124589  14.788  11.483   6.917
74252SOL    HW224590  14.756  11.463   6.770
74253SOL     OW24591   2.488  13.766   1.529
74253SOL    HW124592   2.503  13.847   1.579
74253SOL    HW224593   2.575  13.732   1.512
74254SOL     OW24594   6.769  10.604   5.911
74254SOL    HW124595   6.848  10.655   5.928
74254SOL    HW224596   6.783  10.521   5.956
74255SOL     OW24597  13.545   1.599   0.638
74255SOL    HW124598  13.467   1.569   0.684
74255SOL    HW224599  13.602   1.523   0.634
74256SOL     OW24600  14.442   1.381   6.004
74256SOL    HW124601  14.423   1.427   6.085
74256SOL    HW224602  14.381   1.308   6.003
74257SOL     OW24603  11.089   1.928   0.304
74257SOL    HW124604  11.137   1.861   0.353
74257SOL    HW224605  11.072   1.996   0.368
74258SOL     OW24606  12.233  14.052  14.320
74258SOL    HW124607  12.221  14.052  14.225
74258SOL    HW224608  12.259  13.962  14.341
74259SOL     OW24609  12.637   1.684   6.519
74259SOL    HW124610  12.708   1.627   6.552
74259SOL    HW224611  12.628   1.660   6.427
74260SOL     OW24612   2.365   0.267   9.667
74260SOL    HW124613   2.377   0.337   9.602
74260SOL    HW224614   2.404   0.190   9.627
74261SOL     OW24615   6.273   5.378  12.886
74261SOL    HW124616   6.190   5.383  12.839
74261SOL    HW224617   6.256   5.320  12.960
74262SOL     OW24618   1.477   9.858   9.182
74262SOL    HW124619   1.511   9.904   9.259
74262SOL    HW224620   1.555   9.836   9.131
74263SOL     OW24621   8.268  12.161  14.463
74263SOL    HW124622   8.285  12.137  14.554
74263SOL    HW224623   8.331  12.109  14.413
74264SOL     OW24624   7.185   4.400   0.344
74264SOL    HW124625   7.246   4.355   0.403
74264SOL    HW224626   7.233   4.410   0.262
74265SOL     OW24627  13.217   6.930  11.431
74265SOL    HW124628  13.181   6.862  11.488
74265SOL    HW224629  13.310   6.907  11.421
74266SOL     OW24630  13.379  10.229   0.086
74266SOL    HW124631  13.379  10.229  14.863
74266SOL    HW224632  13.286  10.220   0.110
74267SOL     OW24633   2.979   1.763   6.746
74267SOL    HW124634   2.992   1.790   6.837
74267SOL    HW224635   3.046   1.696   6.730
74268SOL     OW24636   4.352  14.166  11.190
74268SOL    HW124637   4.356  14.071  11.181
74268SOL    HW224638   4.420  14.187  11.254
74269SOL     OW24639   4.818  12.290  11.395
74269SOL    HW124640   4.867  12.295  11.313
74269SOL    HW224641   4.876  12.330  11.460
74270SOL     OW24642   5.180   8.285  14.185
74270SOL    HW124643   5.113   8.218  14.196
74270SOL    HW224644   5.176   8.309  14.092
74271SOL     OW24645  10.983   5.628  10.138
74271SOL    HW124646  11.011   5.575  10.212
74271SOL    HW224647  10.945   5.707  10.177
74272SOL     OW24648  13.614  14.644  13.550
74272SOL    HW124649  13.552  14.686  13.609
74272SOL    HW224650  13.628  14.707  13.480
74273SOL     OW24651  13.053   8.881  12.858
74273SOL    HW124652  13.020   8.814  12.919
74273SOL    HW224653  13.018   8.854  12.773
74274SOL     OW24654   3.248   1.610   8.539
74274SOL    HW124655   3.315   1.550   8.505
74274SOL    HW224656   3.279   1.634   8.626
74275SOL     OW24657   3.170   4.310   2.327
74275SOL    HW124658   3.243   4.290   2.385
74275SOL    HW224659   3.149   4.227   2.284
74276SOL     OW24660   7.065  14.151   5.102
74276SOL    HW124661   7.151  14.176   5.067
74276SOL    HW224662   7.083  14.073   5.155
74277SOL     OW24663   3.725   1.323  14.682
74277SOL    HW124664   3.817   1.300  14.693
74277SOL    HW224665   3.726   1.406  14.634
74278SOL     OW24666  10.991  14.152   4.461
74278SOL    HW124667  11.051  14.093   4.416
74278SOL    HW224668  10.905  14.131   4.425
74279SOL     OW24669   2.758  11.746   6.632
74279SOL    HW124670   2.759  11.742   6.728
74279SOL    HW224671   2.732  11.836   6.612
74280SOL     OW24672   4.929   5.164   3.729
74280SOL    HW124673   4.963   5.075   3.734
74280SOL    HW224674   4.842   5.159   3.768
74281SOL     OW24675   5.975   2.473  11.956
74281SOL    HW124676   5.998   2.528  11.881
74281SOL    HW224677   5.977   2.534  12.030
74282SOL     OW24678   9.565  10.547   7.481
74282SOL    HW124679   9.590  10.508   7.397
74282SOL    HW224680   9.470  10.557   7.475
74283SOL     OW24681   9.152   5.983   1.351
74283SOL    HW124682   9.147   5.947   1.439
74283SOL    HW224683   9.081   5.940   1.303
74284SOL     OW24684   4.597  14.613   0.572
74284SOL    HW124685   4.579  14.697   0.615
74284SOL    HW224686   4.532  14.553   0.608
74285SOL     OW24687   6.422  12.822   2.733
74285SOL    HW124688   6.391  12.795   2.820
74285SOL    HW224689   6.512  12.849   2.746
74286SOL     OW24690   7.600   5.243   5.159
74286SOL    HW124691   7.517   5.264   5.116
74286SOL    HW224692   7.662   5.307   5.124
74287SOL     OW24693  10.373   3.829  11.618
74287SOL    HW124694  10.370   3.839  11.523
74287SOL    HW224695  10.459   3.791  11.635
74288SOL     OW24696   8.378   8.076   6.993
74288SOL    HW124697   8.355   8.136   6.923
74288SOL    HW224698   8.379   7.989   6.952
74289SOL     OW24699   7.550   1.462   3.450
74289SOL    HW124700   7.569   1.373   3.419
74289SOL    HW224701   7.608   1.518   3.398
74290SOL     OW24702   9.595   6.695   4.613
74290SOL    HW124703   9.562   6.639   4.544
74290SOL    HW224704   9.531   6.688   4.684
74291SOL     OW24705   4.334   0.074   5.444
74291SOL    HW124706   4.426   0.063   5.422
74291SOL    HW224707   4.308  14.864   5.485
74292SOL     OW24708  12.350   0.994   8.621
74292SOL    HW124709  12.435   1.019   8.658
74292SOL    HW224710  12.287   1.020   8.688
74293SOL     OW24711   6.745   0.425   6.697
74293SOL    HW124712   6.763   0.341   6.655
74293SOL    HW224713   6.662   0.453   6.660
74294SOL     OW24714   1.125   1.728   2.582
74294SOL    HW124715   1.053   1.690   2.533
74294SOL    HW224716   1.168   1.654   2.625
74295SOL     OW24717   3.015  10.175   5.331
74295SOL    HW124718   2.994  10.241   5.398
74295SOL    HW224719   2.988  10.216   5.249
74296SOL     OW24720   9.467  10.434  13.294
74296SOL    HW124721   9.488  10.420  13.201
74296SOL    HW224722   9.552  10.442  13.337
74297SOL     OW24723   4.859   2.822   7.907
74297SOL    HW124724   4.787   2.878   7.938
74297SOL    HW224725   4.863   2.752   7.972
74298SOL     OW24726  14.261   8.191  12.528
74298SOL    HW124727  14.192   8.187  12.462
74298SOL    HW224728  14.340   8.167  12.481
74299SOL     OW24729   1.544   5.638  13.453
74299SOL    HW124730   1.461   5.679  13.476
74299SOL    HW224731   1.557   5.572  13.521
74300SOL     OW24732   4.545  10.304   9.613
74300SOL    HW124733   4.496  10.253   9.677
74300SOL    HW224734   4.516  10.270   9.528
74301SOL     OW24735   2.782   3.134   8.122
74301SOL    HW124736   2.840   3.058   8.121
74301SOL    HW224737   2.767   3.154   8.030
74302SOL     OW24738   2.565   5.721   9.949
74302SOL    HW124739   2.550   5.812   9.976
74302SOL    HW224740   2.657   5.719   9.922
74303SOL     OW24741  13.354   5.865   6.791
74303SOL    HW124742  13.355   5.920   6.870
74303SOL    HW224743  13.303   5.915   6.728
74304SOL     OW24744  11.962  11.728   1.061
74304SOL    HW124745  11.873  11.695   1.053
74304SOL    HW224746  11.953  11.821   1.081
74305SOL     OW24747   6.042   5.711   7.208
74305SOL    HW124748   6.067   5.633   7.258
74305SOL    HW224749   5.949   5.724   7.229
74306SOL     OW24750  11.008   3.897   7.008
74306SOL    HW124751  11.082   3.870   7.062
74306SOL    HW224752  10.931   3.858   7.050
74307SOL     OW24753  13.482   0.718   6.249
74307SOL    HW124754  13.564   0.766   6.264
74307SOL    HW224755  13.495   0.634   6.292
74308SOL     OW24756   4.470  13.076   2.612
74308SOL    HW124757   4.382  13.112   2.601
74308SOL    HW224758   4.513  13.093   2.528
74309SOL     OW24759   8.062   0.576  12.804
74309SOL    HW124760   7.971   0.592  12.831
74309SOL    HW224761   8.111   0.573  12.886
74310SOL     OW24762   2.509   3.178  12.982
74310SOL    HW124763   2.535   3.125  13.057
74310SOL    HW224764   2.470   3.256  13.020
74311SOL     OW24765   2.447   2.645  11.789
74311SOL    HW124766   2.375   2.693  11.747
74311SOL    HW224767   2.413   2.620  11.875
74312SOL     OW24768   9.833   5.021  10.907
74312SOL    HW124769   9.832   5.022  11.003
74312SOL    HW224770   9.891   5.092  10.882
74313SOL     OW24771  12.999   5.418  13.315
74313SOL    HW124772  12.976   5.421  13.408
74313SOL    HW224773  13.094   5.432  13.312
74314SOL     OW24774  12.371   6.705   8.215
74314SOL    HW124775  12.464   6.720   8.233
74314SOL    HW224776  12.365   6.709   8.119
74315SOL     OW24777   5.329  13.026   0.506
74315SOL    HW124778   5.298  13.043   0.595
74315SOL    HW224779   5.300  13.102   0.455
74316SOL     OW24780  14.066  11.608   7.214
74316SOL    HW124781  13.974  11.596   7.238
74316SOL    HW224782  14.099  11.518   7.202
74317SOL     OW24783  13.191  12.662   2.582
74317SOL    HW124784  13.162  12.753   2.583
74317SOL    HW224785  13.161  12.626   2.665
74318SOL     OW24786   0.055  13.741   9.852
74318SOL    HW124787   0.063  13.687   9.931
74318SOL    HW224788   0.104  13.692   9.786
74319SOL     OW24789   8.506  14.785   7.223
74319SOL    HW124790   8.532  14.737   7.302
74319SOL    HW224791   8.411  14.791   7.228
74320SOL     OW24792   2.680  12.588  14.112
74320SOL    HW124793   2.751  12.652  14.108
74320SOL    HW224794   2.637  12.605  14.196
74321SOL     OW24795  14.093  13.443   4.430
74321SOL    HW124796  14.057  13.360   4.462
74321SOL    HW224797  14.184  13.424   4.410
74322SOL     OW24798   0.831  12.405   9.675
74322SOL    HW124799   0.794  12.354   9.603
74322SOL    HW224800   0.761  12.410   9.740
74323SOL     OW24801   8.415  13.386  14.164
74323SOL    HW124802   8.372  13.322  14.220
74323SOL    HW224803   8.475  13.433  14.222
74324SOL     OW24804   0.676   5.276   4.746
74324SOL    HW124805   0.711   5.231   4.669
74324SOL    HW224806   0.583   5.252   4.748
74325SOL     OW24807   7.501  12.086  14.655
74325SOL    HW124808   7.531  12.021  14.592
74325SOL    HW224809   7.406  12.087  14.646
74326SOL     OW24810  10.873   3.889  11.642
74326SOL    HW124811  10.803   3.850  11.590
74326SOL    HW224812  10.864   3.847  11.728
74327SOL     OW24813   6.573   1.160  10.124
74327SOL    HW124814   6.494   1.110  10.143
74327SOL    HW224815   6.542   1.240  10.082
74328SOL     OW24816  12.777  10.598   4.002
74328SOL    HW124817  12.778  10.570   3.910
74328SOL    HW224818  12.686  10.589   4.029
74329SOL     OW24819   3.598   8.723   8.680
74329SOL    HW124820   3.692   8.738   8.671
74329SOL    HW224821   3.580   8.648   8.622
74330SOL     OW24822  12.024  10.666   3.416
74330SOL    HW124823  11.945  10.689   3.368
74330SOL    HW224824  11.996  10.599   3.479
74331SOL     OW24825   0.874   9.942   8.137
74331SOL    HW124826   0.794   9.928   8.086
74331SOL    HW224827   0.846   9.997   8.211
74332SOL     OW24828   5.021   8.108   6.081
74332SOL    HW124829   5.101   8.122   6.031
74332SOL    HW224830   4.971   8.045   6.029
74333SOL     OW24831   3.260  12.270  11.020
74333SOL    HW124832   3.273  12.341  10.957
74333SOL    HW224833   3.210  12.204  10.972
74334SOL     OW24834  14.158   2.875   7.883
74334SOL    HW124835  14.162   2.886   7.788
74334SOL    HW224836  14.096   2.803   7.897
74335SOL     OW24837  10.074  10.683   4.917
74335SOL    HW124838  10.114  10.752   4.864
74335SOL    HW224839   9.987  10.717   4.938
74336SOL     OW24840  10.797  12.088   1.679
74336SOL    HW124841  10.808  12.181   1.700
74336SOL    HW224842  10.885  12.052   1.685
74337SOL     OW24843   9.422  11.787  10.086
74337SOL    HW124844   9.426  11.710  10.143
74337SOL    HW224845   9.459  11.757  10.003
74338SOL     OW24846   5.935   5.955   5.463
74338SOL    HW124847   5.996   6.024   5.435
74338SOL    HW224848   5.991   5.882   5.487
74339SOL     OW24849   1.212  11.373  12.882
74339SOL    HW124850   1.275  11.310  12.917
74339SOL    HW224851   1.266  11.448  12.857
74340SOL     OW24852  13.779   2.952   2.362
74340SOL    HW124853  13.840   2.933   2.433
74340SOL    HW224854  13.816   3.030   2.320
74341SOL     OW24855   0.829   7.021   0.822
74341SOL    HW124856   0.881   7.091   0.782
74341SOL    HW224857   0.748   7.020   0.771
74342SOL     OW24858  11.829  11.640  12.385
74342SOL    HW124859  11.901  11.700  12.367
74342SOL    HW224860  11.871  11.564  12.426
74343SOL     OW24861   5.525  12.299  14.313
74343SOL    HW124862   5.587  12.271  14.246
74343SOL    HW224863   5.449  12.331  14.263
74344SOL     OW24864   1.735   8.907  10.169
74344SOL    HW124865   1.756   8.814  10.160
74344SOL    HW224866   1.640   8.911  10.154
74345SOL     OW24867  12.295   1.502   7.322
74345SOL    HW124868  12.216   1.540   7.284
74345SOL    HW224869  12.271   1.411   7.342
74346SOL     OW24870  12.874   5.864   4.710
74346SOL    HW124871  12.899   5.954   4.689
74346SOL    HW224872  12.935   5.838   4.779
74347SOL     OW24873   6.441   8.105  11.862
74347SOL    HW124874   6.478   8.177  11.913
74347SOL    HW224875   6.410   8.146  11.781
74348SOL     OW24876  13.114  14.297   9.927
74348SOL    HW124877  13.086  14.235   9.859
74348SOL    HW224878  13.058  14.374   9.913
74349SOL     OW24879   8.358  10.980   2.394
74349SOL    HW124880   8.338  11.069   2.366
74349SOL    HW224881   8.454  10.977   2.397
74350SOL     OW24882  10.731   1.968   5.094
74350SOL    HW124883  10.760   1.877   5.104
74350SOL    HW224884  10.770   2.014   5.168
74351SOL     OW24885  14.723   2.536   5.526
74351SOL    HW124886  14.638   2.511   5.489
74351SOL    HW224887  14.787   2.507   5.461
74352SOL     OW24888   3.136   2.815   0.041
74352SOL    HW124889   3.230   2.807   0.023
74352SOL    HW224890   3.097   2.739  14.871
74353SOL     OW24891   5.289   0.122  10.126
74353SOL    HW124892   5.337   0.079  10.196
74353SOL    HW224893   5.206   0.075  10.120
74354SOL     OW24894  11.106   8.675  14.764
74354SOL    HW124895  11.081   8.588  14.797
74354SOL    HW224896  11.159   8.712  14.835
74355SOL     OW24897   5.972   1.009   5.967
74355SOL    HW124898   5.920   1.088   5.982
74355SOL    HW224899   5.918   0.956   5.909
74356SOL     OW24900   1.304   7.737   9.689
74356SOL    HW124901   1.292   7.670   9.622
74356SOL    HW224902   1.366   7.698   9.751
74357SOL     OW24903  14.849   6.011   9.626
74357SOL    HW124904  14.830   6.051   9.541
74357SOL    HW224905  14.797   5.930   9.627
74358SOL     OW24906  14.556  13.789   1.528
74358SOL    HW124907  14.509  13.820   1.605
74358SOL    HW224908  14.641  13.760   1.562
74359SOL     OW24909   9.425   8.968   0.405
74359SOL    HW124910   9.427   8.901   0.474
74359SOL    HW224911   9.487   8.938   0.340
74360SOL     OW24912  13.629   6.602   3.310
74360SOL    HW124913  13.672   6.687   3.318
74360SOL    HW224914  13.537   6.620   3.328
74361SOL     OW24915   9.218  14.064   6.780
74361SOL    HW124916   9.170  13.984   6.800
74361SOL    HW224917   9.177  14.097   6.700
74362SOL     OW24918   8.677   0.405  13.491
74362SOL    HW124919   8.703   0.360  13.571
74362SOL    HW224920   8.585   0.381  13.479
74363SOL     OW24921   8.707   2.330   8.401
74363SOL    HW124922   8.735   2.319   8.492
74363SOL    HW224923   8.778   2.292   8.349
74364SOL     OW24924  10.736  12.089   7.947
74364SOL    HW124925  10.749  12.179   7.976
74364SOL    HW224926  10.764  12.035   8.022
74365SOL     OW24927  11.956   1.341  12.979
74365SOL    HW124928  12.016   1.337  12.905
74365SOL    HW224929  11.869   1.343  12.939
74366SOL     OW24930   4.184  13.588  14.414
74366SOL    HW124931   4.279  13.589  14.406
74366SOL    HW224932   4.152  13.605  14.325
74367SOL     OW24933  13.511  11.305   2.496
74367SOL    HW124934  13.577  11.282   2.431
74367SOL    HW224935  13.484  11.221   2.534
74368SOL     OW24936  14.543  11.557   6.777
74368SOL    HW124937  14.577  11.586   6.862
74368SOL    HW224938  14.472  11.619   6.757
74369SOL     OW24939   9.789   5.166   8.775
74369SOL    HW124940   9.858   5.101   8.784
74369SOL    HW224941   9.831   5.241   8.733
74370SOL     OW24942   3.872   3.806  12.073
74370SOL    HW124943   3.851   3.891  12.112
74370SOL    HW224944   3.803   3.791  12.009
74371SOL     OW24945   3.646  12.033   2.487
74371SOL    HW124946   3.583  12.042   2.415
74371SOL    HW224947   3.732  12.045   2.446
74372SOL     OW24948   8.474  12.050  12.505
74372SOL    HW124949   8.411  12.010  12.565
74372SOL    HW224950   8.549  11.990  12.507
74373SOL     OW24951   1.380   0.984   9.068
74373SOL    HW124952   1.439   0.922   9.109
74373SOL    HW224953   1.418   1.001   8.982
74374SOL     OW24954  11.484   4.126   3.228
74374SOL    HW124955  11.530   4.096   3.307
74374SOL    HW224956  11.542   4.102   3.156
74375SOL     OW24957   3.624  10.458   6.478
74375SOL    HW124958   3.563  10.385   6.472
74375SOL    HW224959   3.593  10.509   6.553
74376SOL     OW24960   7.635   6.112   0.659
74376SOL    HW124961   7.641   6.195   0.706
74376SOL    HW224962   7.668   6.047   0.722
74377SOL     OW24963   8.299   2.863   3.899
74377SOL    HW124964   8.276   2.948   3.861
74377SOL    HW224965   8.233   2.849   3.967
74378SOL     OW24966   8.757   9.303  12.058
74378SOL    HW124967   8.776   9.222  12.011
74378SOL    HW224968   8.841   9.349  12.061
74379SOL     OW24969  10.944  12.688   8.039
74379SOL    HW124970  10.992  12.675   7.957
74379SOL    HW224971  10.901  12.604   8.055
74380SOL     OW24972   3.555   2.333   7.089
74380SOL    HW124973   3.516   2.406   7.138
74380SOL    HW224974   3.483   2.300   7.035
74381SOL     OW24975   6.029   8.864  13.521
74381SOL    HW124976   6.114   8.821  13.515
74381SOL    HW224977   6.047   8.957  13.506
74382SOL     OW24978   1.428   5.168   3.192
74382SOL    HW124979   1.333   5.174   3.187
74382SOL    HW224980   1.459   5.205   3.110
74383SOL     OW24981   6.202   4.641  12.422
74383SOL    HW124982   6.164   4.674  12.341
74383SOL    HW224983   6.135   4.657  12.489
74384SOL     OW24984   5.770  14.621   6.178
74384SOL    HW124985   5.755  14.675   6.256
74384SOL    HW224986   5.684  14.583   6.160
74385SOL     OW24987   2.550  11.640  13.142
74385SOL    HW124988   2.541  11.701  13.215
74385SOL    HW224989   2.613  11.575  13.173
74386SOL     OW24990   2.681   3.528  14.592
74386SOL    HW124991   2.712   3.440  14.570
74386SOL    HW224992   2.616   3.548  14.526
74387SOL     OW24993   0.824   9.561   5.568
74387SOL    HW124994   0.878   9.502   5.621
74387SOL    HW224995   0.736   9.552   5.605
74388SOL     OW24996   0.889   5.341   6.789
74388SOL    HW124997   0.915   5.432   6.780
74388SOL    HW224998   0.894   5.305   6.701
74389SOL     OW24999   2.029   2.334   8.465
74389SOL    HW125000   2.016   2.334   8.370
74389SOL    HW225001   1.961   2.276   8.499
74390SOL     OW25002  14.037   2.617   9.791
74390SOL    HW125003  14.110   2.675   9.811
74390SOL    HW225004  14.059   2.578   9.706
74391SOL     OW25005  10.138   6.232  14.466
74391SOL    HW125006  10.080   6.307  14.456
74391SOL    HW225007  10.208   6.262  14.524
74392SOL     OW25008   1.385   2.480   0.198
74392SOL    HW125009   1.307   2.523   0.163
74392SOL    HW225010   1.456   2.542   0.181
74393SOL     OW25011   5.617  12.261   0.516
74393SOL    HW125012   5.546  12.217   0.469
74393SOL    HW225013   5.603  12.354   0.498
74394SOL     OW25014   4.240   3.797  12.746
74394SOL    HW125015   4.173   3.730  12.751
74394SOL    HW225016   4.315   3.753  12.705
74395SOL     OW25017   5.625  10.260  13.186
74395SOL    HW125018   5.705  10.300  13.220
74395SOL    HW225019   5.559  10.277  13.253
74396SOL     OW25020   4.252  11.628   3.501
74396SOL    HW125021   4.180  11.621   3.564
74396SOL    HW225022   4.318  11.682   3.545
74397SOL     OW25023   6.725  11.684  10.112
74397SOL    HW125024   6.793  11.666  10.047
74397SOL    HW225025   6.739  11.620  10.181
74398SOL     OW25026  12.475   6.189   0.565
74398SOL    HW125027  12.497   6.123   0.631
74398SOL    HW225028  12.429   6.140   0.497
74399SOL     OW25029   0.771   9.792  13.589
74399SOL    HW125030   0.810   9.851  13.653
74399SOL    HW225031   0.699   9.750  13.636
74400SOL     OW25032  12.581   0.726  11.926
74400SOL    HW125033  12.595   0.775  11.846
74400SOL    HW225034  12.543   0.643  11.898
74401SOL     OW25035  10.027   1.104   3.920
74401SOL    HW125036  10.115   1.082   3.890
74401SOL    HW225037   9.987   1.020   3.941
74402SOL     OW25038   8.747   6.493   2.246
74402SOL    HW125039   8.807   6.422   2.269
74402SOL    HW225040   8.748   6.495   2.150
74403SOL     OW25041   9.651   7.931  14.584
74403SOL    HW125042   9.589   8.003  14.597
74403SOL    HW225043   9.664   7.895  14.671
74404SOL     OW25044   6.207   9.677   3.233
74404SOL    HW125045   6.286   9.700   3.185
74404SOL    HW225046   6.209   9.582   3.239
74405SOL     OW25047   6.438   8.212   6.532
74405SOL    HW125048   6.434   8.227   6.626
74405SOL    HW225049   6.348   8.191   6.507
74406SOL     OW25050   7.358   3.415   2.461
74406SOL    HW125051   7.377   3.505   2.436
74406SOL    HW225052   7.443   3.378   2.483
74407SOL     OW25053   3.872  11.014  14.588
74407SOL    HW125054   3.830  10.936  14.626
74407SOL    HW225055   3.946  11.032  14.647
74408SOL     OW25056   9.680  13.722   9.064
74408SOL    HW125057   9.592  13.693   9.039
74408SOL    HW225058   9.699  13.676   9.145
74409SOL     OW25059  10.732   9.918   1.516
74409SOL    HW125060  10.688   9.887   1.595
74409SOL    HW225061  10.822   9.885   1.523
74410SOL     OW25062  11.349   9.544   4.933
74410SOL    HW125063  11.387   9.457   4.921
74410SOL    HW225064  11.272   9.529   4.987
74411SOL     OW25065   8.941   4.997  13.688
74411SOL    HW125066   8.919   4.929  13.624
74411SOL    HW225067   8.862   5.051  13.693
74412SOL     OW25068  10.808  14.199   7.315
74412SOL    HW125069  10.849  14.129   7.265
74412SOL    HW225070  10.861  14.277   7.296
74413SOL     OW25071   9.259   6.154  12.541
74413SOL    HW125072   9.239   6.083  12.602
74413SOL    HW225073   9.337   6.124  12.494
74414SOL     OW25074   8.420   5.482   9.211
74414SOL    HW125075   8.373   5.563   9.228
74414SOL    HW225076   8.509   5.509   9.192
74415SOL     OW25077   1.372  14.292   7.998
74415SOL    HW125078   1.450  14.319   8.046
74415SOL    HW225079   1.340  14.371   7.956
74416SOL     OW25080   0.409   4.276   6.670
74416SOL    HW125081   0.460   4.356   6.665
74416SOL    HW225082   0.355   4.287   6.749
74417SOL     OW25083   0.440   3.274  12.723
74417SOL    HW125084   0.506   3.335  12.691
74417SOL    HW225085   0.361   3.295  12.673
74418SOL     OW25086   0.182  14.391   8.154
74418SOL    HW125087   0.124  14.344   8.213
74418SOL    HW225088   0.184  14.339   8.074
74419SOL     OW25089   6.861  11.407   6.234
74419SOL    HW125090   6.782  11.374   6.276
74419SOL    HW225091   6.897  11.471   6.296
74420SOL     OW25092   8.125  10.621   2.888
74420SOL    HW125093   8.120  10.696   2.829
74420SOL    HW225094   8.038  10.582   2.884
74421SOL     OW25095   0.156   7.109   3.007
74421SOL    HW125096   0.069   7.134   3.036
74421SOL    HW225097   0.211   7.116   3.085
74422SOL     OW25098  11.592   8.505  10.134
74422SOL    HW125099  11.613   8.421  10.175
74422SOL    HW225100  11.516   8.537  10.182
74423SOL     OW25101   0.451   5.144  11.809
74423SOL    HW125102   0.408   5.222  11.773
74423SOL    HW225103   0.524   5.178  11.861
74424SOL     OW25104   9.894  13.141  11.008
74424SOL    HW125105   9.867  13.067  10.955
74424SOL    HW225106   9.919  13.208  10.944
74425SOL     OW25107   7.310   7.010   9.190
74425SOL    HW125108   7.373   6.950   9.152
74425SOL    HW225109   7.236   7.011   9.129
74426SOL     OW25110  11.706  10.419   1.657
74426SOL    HW125111  11.655  10.457   1.585
74426SOL    HW225112  11.746  10.495   1.700
74427SOL     OW25113   7.046   6.747   7.463
74427SOL    HW125114   7.110   6.707   7.404
74427SOL    HW225115   7.017   6.826   7.416
74428SOL     OW25116  13.562   1.556   8.862
74428SOL    HW125117  13.648   1.590   8.885
74428SOL    HW225118  13.526   1.521   8.944
74429SOL     OW25119   7.953   3.103  13.905
74429SOL    HW125120   8.033   3.065  13.942
74429SOL    HW225121   7.933   3.047  13.830
74430SOL     OW25122  12.088  13.181  11.740
74430SOL    HW125123  12.156  13.126  11.702
74430SOL    HW225124  12.058  13.132  11.817
74431SOL     OW25125   8.025   4.531   9.964
74431SOL    HW125126   7.970   4.596  10.008
74431SOL    HW225127   8.008   4.544   9.871
74432SOL     OW25128  13.999   9.492  11.427
74432SOL    HW125129  14.031   9.544  11.353
74432SOL    HW225130  14.023   9.543  11.505
74433SOL     OW25131   1.644   6.012   5.892
74433SOL    HW125132   1.683   5.928   5.866
74433SOL    HW225133   1.640   6.008   5.988
74434SOL     OW25134   4.758   8.898   2.268
74434SOL    HW125135   4.786   8.834   2.203
74434SOL    HW225136   4.839   8.939   2.298
74435SOL     OW25137   0.315   7.173  12.126
74435SOL    HW125138   0.356   7.106  12.072
74435SOL    HW225139   0.386   7.234  12.147
74436SOL     OW25140   6.863   5.627  11.239
74436SOL    HW125141   6.917   5.609  11.162
74436SOL    HW225142   6.925   5.629  11.312
74437SOL     OW25143   1.276  14.560   0.492
74437SOL    HW125144   1.258  14.481   0.544
74437SOL    HW225145   1.371  14.572   0.499
74438SOL     OW25146   5.868   4.534   3.304
74438SOL    HW125147   5.881   4.624   3.332
74438SOL    HW225148   5.816   4.540   3.224
74439SOL     OW25149   4.265  13.573   3.180
74439SOL    HW125150   4.306  13.524   3.109
74439SOL    HW225151   4.294  13.664   3.167
74440SOL     OW25152  14.520   1.917   1.878
74440SOL    HW125153  14.508   1.988   1.815
74440SOL    HW225154  14.545   1.960   1.959
74441SOL     OW25155   2.037   7.997   7.586
74441SOL    HW125156   2.041   7.937   7.511
74441SOL    HW225157   1.952   8.041   7.576
74442SOL     OW25158   6.153   8.971   4.644
74442SOL    HW125159   6.165   9.028   4.568
74442SOL    HW225160   6.239   8.931   4.658
74443SOL     OW25161  13.266   4.058   8.365
74443SOL    HW125162  13.287   3.985   8.307
74443SOL    HW225163  13.322   4.129   8.335
74444SOL     OW25164  11.454   7.027   4.001
74444SOL    HW125165  11.434   7.113   3.963
74444SOL    HW225166  11.465   7.045   4.095
74445SOL     OW25167   4.884   2.331   0.562
74445SOL    HW125168   4.954   2.294   0.615
74445SOL    HW225169   4.806   2.325   0.618
74446SOL     OW25170   1.956   4.754   4.746
74446SOL    HW125171   2.014   4.826   4.724
74446SOL    HW225172   1.877   4.769   4.695
74447SOL     OW25173   4.209   2.218  11.369
74447SOL    HW125174   4.232   2.311  11.380
74447SOL    HW225175   4.116   2.218  11.350
74448SOL     OW25176   7.420   1.157   9.892
74448SOL    HW125177   7.473   1.236   9.891
74448SOL    HW225178   7.462   1.100   9.957
74449SOL     OW25179   5.043   4.526  10.167
74449SOL    HW125180   4.968   4.497  10.116
74449SOL    HW225181   5.065   4.612  10.131
74450SOL     OW25182   9.812  10.731   4.882
74450SOL    HW125183   9.767  10.648   4.898
74450SOL    HW225184   9.755  10.776   4.819
74451SOL     OW25185   3.786   7.661   0.382
74451SOL    HW125186   3.734   7.584   0.361
74451SOL    HW225187   3.773   7.720   0.307
74452SOL     OW25188   6.265   0.599  12.013
74452SOL    HW125189   6.247   0.693  12.018
74452SOL    HW225190   6.230   0.564  12.095
74453SOL     OW25191  10.247  10.448   0.000
74453SOL    HW125192  10.338  10.430  14.848
74453SOL    HW225193  10.238  10.410   0.088
74454SOL     OW25194   3.475   2.151  13.930
74454SOL    HW125195   3.468   2.167  14.024
74454SOL    HW225196   3.509   2.233  13.894
74455SOL     OW25197   0.152   4.778   9.305
74455SOL    HW125198   0.133   4.853   9.362
74455SOL    HW225199   0.073   4.769   9.252
74456SOL     OW25200  12.259  10.563  14.164
74456SOL    HW125201  12.173  10.599  14.145
74456SOL    HW225202  12.319  10.609  14.105
74457SOL     OW25203   1.984   6.920   1.638
74457SOL    HW125204   1.902   6.870   1.636
74457SOL    HW225205   2.051   6.857   1.663
74458SOL     OW25206   7.647   8.561   7.017
74458SOL    HW125207   7.555   8.539   7.035
74458SOL    HW225208   7.658   8.542   6.924
74459SOL     OW25209   5.729   5.069   5.203
74459SOL    HW125210   5.667   5.115   5.259
74459SOL    HW225211   5.688   5.070   5.116
74460SOL     OW25212   0.894  12.755   7.063
74460SOL    HW125213   0.801  12.736   7.053
74460SOL    HW225214   0.898  12.817   7.136
74461SOL     OW25215   7.918  11.484   0.094
74461SOL    HW125216   7.905  11.486  14.872
74461SOL    HW225217   7.890  11.396   0.119
74462SOL     OW25218  11.727   7.638   3.637
74462SOL    HW125219  11.694   7.653   3.725
74462SOL    HW225220  11.649   7.647   3.581
74463SOL     OW25221  11.865   1.978  10.355
74463SOL    HW125222  11.808   1.963  10.431
74463SOL    HW225223  11.820   2.044  10.303
74464SOL     OW25224   7.504   7.475  12.480
74464SOL    HW125225   7.470   7.390  12.508
74464SOL    HW225226   7.481   7.535  12.552
74465SOL     OW25227   7.072   6.285   6.019
74465SOL    HW125228   7.131   6.265   6.091
74465SOL    HW225229   7.096   6.374   5.991
74466SOL     OW25230   1.210   8.154   0.886
74466SOL    HW125231   1.214   8.232   0.831
74466SOL    HW225232   1.258   8.178   0.966
74467SOL     OW25233  14.162   7.384   4.990
74467SOL    HW125234  14.169   7.296   4.952
74467SOL    HW225235  14.251   7.407   5.015
74468SOL     OW25236  12.102   2.183   2.327
74468SOL    HW125237  12.064   2.257   2.374
74468SOL    HW225238  12.093   2.206   2.234
74469SOL     OW25239   3.527   1.025   6.950
74469SOL    HW125240   3.473   1.076   7.010
74469SOL    HW225241   3.610   1.074   6.945
74470SOL     OW25242   8.680   3.487   3.944
74470SOL    HW125243   8.712   3.428   4.012
74470SOL    HW225244   8.592   3.511   3.972
74471SOL     OW25245  12.733   1.517   5.518
74471SOL    HW125246  12.693   1.479   5.596
74471SOL    HW225247  12.686   1.478   5.444
74472SOL     OW25248   2.103  12.030  14.003
74472SOL    HW125249   2.173  11.967  13.988
74472SOL    HW225250   2.025  11.976  14.016
74473SOL     OW25251  10.632  13.863   2.591
74473SOL    HW125252  10.587  13.815   2.660
74473SOL    HW225253  10.617  13.955   2.611
74474SOL     OW25254  13.405  13.955  10.538
74474SOL    HW125255  13.492  13.948  10.578
74474SOL    HW225256  13.345  13.956  10.612
74475SOL     OW25257  14.693   6.278   1.582
74475SOL    HW125258  14.773   6.231   1.561
74475SOL    HW225259  14.715   6.330   1.659
74476SOL     OW25260   4.185  13.175  11.866
74476SOL    HW125261   4.137  13.200  11.788
74476SOL    HW225262   4.277  13.182  11.841
74477SOL     OW25263  10.772  14.453  13.749
74477SOL    HW125264  10.716  14.497  13.685
74477SOL    HW225265  10.805  14.376  13.702
74478SOL     OW25266   3.142  12.256   9.944
74478SOL    HW125267   3.184  12.310   9.876
74478SOL    HW225268   3.214  12.205   9.982
74479SOL     OW25269  13.623   9.997   9.294
74479SOL    HW125270  13.704   9.965   9.254
74479SOL    HW225271  13.569  10.023   9.220
74480SOL     OW25272   3.775   3.105   3.401
74480SOL    HW125273   3.764   3.186   3.351
74480SOL    HW225274   3.868   3.102   3.422
74481SOL     OW25275  10.415   9.458  12.876
74481SOL    HW125276  10.373   9.374  12.894
74481SOL    HW225277  10.502   9.450  12.914
74482SOL     OW25278   5.526   9.478   2.719
74482SOL    HW125279   5.610   9.524   2.719
74482SOL    HW225280   5.550   9.386   2.702
74483SOL     OW25281   5.883  13.399   5.907
74483SOL    HW125282   5.913  13.414   5.817
74483SOL    HW225283   5.820  13.328   5.900
74484SOL     OW25284  12.795   4.821   6.507
74484SOL    HW125285  12.721   4.842   6.564
74484SOL    HW225286  12.776   4.867   6.425
74485SOL     OW25287  13.209   8.165   2.674
74485SOL    HW125288  13.131   8.114   2.652
74485SOL    HW225289  13.185   8.256   2.654
74486SOL     OW25290   7.597   1.084   7.121
74486SOL    HW125291   7.572   1.107   7.210
74486SOL    HW225292   7.661   1.013   7.132
74487SOL     OW25293  11.731   1.079   9.599
74487SOL    HW125294  11.754   1.136   9.673
74487SOL    HW225295  11.732   1.137   9.523
74488SOL     OW25296   9.190   5.088  11.868
74488SOL    HW125297   9.283   5.110  11.857
74488SOL    HW225298   9.174   5.098  11.962
74489SOL     OW25299  10.337  11.232   0.391
74489SOL    HW125300  10.375  11.150   0.358
74489SOL    HW225301  10.295  11.207   0.473
74490SOL     OW25302   4.884  12.463   3.051
74490SOL    HW125303   4.945  12.437   3.120
74490SOL    HW225304   4.801  12.478   3.097
74491SOL     OW25305   2.204   9.392  12.486
74491SOL    HW125306   2.232   9.316  12.434
74491SOL    HW225307   2.131   9.430  12.437
74492SOL     OW25308   2.884   7.776  11.557
74492SOL    HW125309   2.857   7.818  11.639
74492SOL    HW225310   2.978   7.765  11.566
74493SOL     OW25311   7.588  14.529  11.488
74493SOL    HW125312   7.498  14.500  11.472
74493SOL    HW225313   7.643  14.456  11.458
74494SOL     OW25314   2.593  10.747   8.422
74494SOL    HW125315   2.640  10.706   8.349
74494SOL    HW225316   2.569  10.833   8.389
74495SOL     OW25317   9.858   2.951   6.045
74495SOL    HW125318   9.881   2.960   6.137
74495SOL    HW225319   9.769   2.915   6.046
74496SOL     OW25320   5.080   0.139   5.702
74496SOL    HW125321   4.986   0.132   5.714
74496SOL    HW225322   5.117   0.085   5.772
74497SOL     OW25323  14.002  11.659   3.326
74497SOL    HW125324  13.925  11.642   3.381
74497SOL    HW225325  13.969  11.713   3.254
74498SOL     OW25326   4.786   9.008   0.526
74498SOL    HW125327   4.812   9.094   0.493
74498SOL    HW225328   4.852   8.947   0.493
74499SOL     OW25329  10.553   4.500   5.212
74499SOL    HW125330  10.543   4.593   5.191
74499SOL    HW225331  10.473   4.478   5.259
74500SOL     OW25332   5.016   3.594   4.003
74500SOL    HW125333   5.076   3.666   3.982
74500SOL    HW225334   4.933   3.620   3.963
74501SOL     OW25335  11.046  10.965   6.609
74501SOL    HW125336  10.994  11.036   6.646
74501SOL    HW225337  11.057  10.988   6.517
74502SOL     OW25338   9.484   4.779   3.429
74502SOL    HW125339   9.474   4.790   3.523
74502SOL    HW225340   9.402   4.740   3.400
74503SOL     OW25341   4.074   9.860   9.611
74503SOL    HW125342   4.042   9.850   9.521
74503SOL    HW225343   4.009   9.814   9.664
74504SOL     OW25344  14.113   1.333  11.476
74504SOL    HW125345  14.044   1.309  11.538
74504SOL    HW225346  14.077   1.311  11.390
74505SOL     OW25347   2.967  13.034   4.486
74505SOL    HW125348   2.903  12.987   4.432
74505SOL    HW225349   2.982  12.976   4.561
74506SOL     OW25350   5.850   2.082  12.556
74506SOL    HW125351   5.768   2.043  12.586
74506SOL    HW225352   5.915   2.013  12.565
74507SOL     OW25353  10.001   0.089  10.789
74507SOL    HW125354  10.034   0.102  10.700
74507SOL    HW225355  10.038   0.004  10.816
74508SOL     OW25356  10.087   4.100   9.089
74508SOL    HW125357  10.130   4.053   9.160
74508SOL    HW225358  10.152   4.164   9.059
74509SOL     OW25359  10.035   9.478   5.498
74509SOL    HW125360  10.019   9.570   5.518
74509SOL    HW225361   9.992   9.464   5.414
74510SOL     OW25362  11.221   4.816   5.804
74510SOL    HW125363  11.255   4.727   5.797
74510SOL    HW225364  11.290   4.871   5.769
74511SOL     OW25365   7.172   3.579   5.865
74511SOL    HW125366   7.127   3.535   5.937
74511SOL    HW225367   7.150   3.527   5.788
74512SOL     OW25368   1.429  12.990  14.034
74512SOL    HW125369   1.351  13.039  14.008
74512SOL    HW225370   1.423  12.908  13.984
74513SOL     OW25371  13.673   6.977  12.319
74513SOL    HW125372  13.619   7.047  12.356
74513SOL    HW225373  13.738   7.023  12.265
74514SOL     OW25374   6.439   9.294   8.953
74514SOL    HW125375   6.505   9.227   8.933
74514SOL    HW225376   6.356   9.252   8.930
74515SOL     OW25377  10.442  12.126   2.973
74515SOL    HW125378  10.480  12.153   2.889
74515SOL    HW225379  10.372  12.189   2.990
74516SOL     OW25380   9.406  11.545  12.469
74516SOL    HW125381   9.488  11.529  12.516
74516SOL    HW225382   9.339  11.503  12.523
74517SOL     OW25383   8.667   7.119   3.633
74517SOL    HW125384   8.621   7.133   3.716
74517SOL    HW225385   8.751   7.081   3.658
74518SOL     OW25386   2.814   7.848   6.467
74518SOL    HW125387   2.896   7.820   6.424
74518SOL    HW225388   2.752   7.860   6.395
74519SOL     OW25389   5.130   9.946   8.049
74519SOL    HW125390   5.119   9.952   7.954
74519SOL    HW225391   5.090  10.027   8.082
74520SOL     OW25392  10.202   7.888   8.394
74520SOL    HW125393  10.209   7.877   8.299
74520SOL    HW225394  10.142   7.961   8.405
74521SOL     OW25395   9.842   4.856   3.509
74521SOL    HW125396   9.928   4.886   3.481
74521SOL    HW225397   9.783   4.879   3.437
74522SOL     OW25398   0.324  14.060   5.777
74522SOL    HW125399   0.279  14.134   5.737
74522SOL    HW225400   0.414  14.067   5.747
74523SOL     OW25401   6.714  13.896   8.618
74523SOL    HW125402   6.684  13.924   8.704
74523SOL    HW225403   6.806  13.920   8.615
74524SOL     OW25404   3.480   8.027   0.349
74524SOL    HW125405   3.509   7.954   0.403
74524SOL    HW225406   3.398   7.997   0.309
74525SOL     OW25407   6.002   2.560   8.182
74525SOL    HW125408   6.087   2.528   8.154
74525SOL    HW225409   5.950   2.564   8.102
74526SOL     OW25410   4.153   8.316  12.023
74526SOL    HW125411   4.088   8.361  11.969
74526SOL    HW225412   4.236   8.332  11.978
74527SOL     OW25413   4.502  11.329   8.274
74527SOL    HW125414   4.409  11.346   8.290
74527SOL    HW225415   4.502  11.253   8.215
74528SOL     OW25416   1.556   2.147   6.664
74528SOL    HW125417   1.618   2.090   6.710
74528SOL    HW225418   1.587   2.148   6.573
74529SOL     OW25419  14.620  10.474  11.753
74529SOL    HW125420  14.696  10.455  11.809
74529SOL    HW225421  14.657  10.515  11.675
74530SOL     OW25422   0.538  12.416   3.001
74530SOL    HW125423   0.531  12.464   2.919
74530SOL    HW225424   0.574  12.331   2.976
74531SOL     OW25425   5.873  13.671  12.349
74531SOL    HW125426   5.823  13.748  12.374
74531SOL    HW225427   5.884  13.679  12.254
74532SOL     OW25428   7.789   2.086   4.885
74532SOL    HW125429   7.872   2.116   4.847
74532SOL    HW225430   7.745   2.167   4.913
74533SOL     OW25431   8.024   0.859   1.111
74533SOL    HW125432   8.051   0.818   1.029
74533SOL    HW225433   7.933   0.831   1.123
74534SOL     OW25434  14.360   8.971   9.833
74534SOL    HW125435  14.331   9.053   9.793
74534SOL    HW225436  14.396   8.921   9.760
74535SOL     OW25437   5.373   6.687   5.699
74535SOL    HW125438   5.337   6.699   5.787
74535SOL    HW225439   5.328   6.754   5.646
74536SOL     OW25440  14.700   6.373   7.877
74536SOL    HW125441  14.661   6.461   7.876
74536SOL    HW225442  14.768   6.377   7.809
74537SOL     OW25443   3.044   0.854   0.019
74537SOL    HW125444   3.121   0.805  14.862
74537SOL    HW225445   3.080   0.932   0.061
74538SOL     OW25446   6.813  10.022   7.528
74538SOL    HW125447   6.895  10.039   7.481
74538SOL    HW225448   6.753  10.089   7.497
74539SOL     OW25449   6.767   2.012   2.590
74539SOL    HW125450   6.759   1.932   2.642
74539SOL    HW225451   6.731   2.081   2.646
74540SOL     OW25452   2.561   3.785  13.197
74540SOL    HW125453   2.577   3.874  13.228
74540SOL    HW225454   2.481   3.792  13.145
74541SOL     OW25455  13.375   6.807   4.705
74541SOL    HW125456  13.301   6.846   4.752
74541SOL    HW225457  13.369   6.843   4.617
74542SOL     OW25458   7.241   9.454   7.914
74542SOL    HW125459   7.162   9.433   7.864
74542SOL    HW225460   7.229   9.407   7.997
74543SOL     OW25461   5.824   2.052   6.188
74543SOL    HW125462   5.759   1.992   6.223
74543SOL    HW225463   5.845   2.017   6.101
74544SOL     OW25464   5.426   9.613   2.938
74544SOL    HW125465   5.467   9.574   2.860
74544SOL    HW225466   5.495   9.667   2.976
74545SOL     OW25467  13.827   2.761   6.879
74545SOL    HW125468  13.828   2.737   6.971
74545SOL    HW225469  13.750   2.717   6.843
74546SOL     OW25470  13.071   3.018   5.497
74546SOL    HW125471  13.135   3.084   5.525
74546SOL    HW225472  13.100   2.937   5.538
74547SOL     OW25473  13.087  10.410   5.669
74547SOL    HW125474  13.083  10.329   5.617
74547SOL    HW225475  13.003  10.413   5.714
74548SOL     OW25476  13.833   3.926   9.005
74548SOL    HW125477  13.913   3.896   8.964
74548SOL    HW225478  13.775   3.850   9.005
74549SOL     OW25479   5.949  11.243  11.456
74549SOL    HW125480   5.965  11.178  11.525
74549SOL    HW225481   5.930  11.191  11.378
74550SOL     OW25482   4.256   9.907   0.168
74550SOL    HW125483   4.309   9.844   0.119
74550SOL    HW225484   4.167   9.895   0.133
74551SOL     OW25485   2.209  11.416   1.887
74551SOL    HW125486   2.172  11.341   1.839
74551SOL    HW225487   2.261  11.376   1.957
74552SOL     OW25488   6.231   9.961   1.956
74552SOL    HW125489   6.272  10.046   1.940
74552SOL    HW225490   6.296   9.911   2.006
74553SOL     OW25491   5.992  14.673   6.455
74553SOL    HW125492   5.922  14.692   6.519
74553SOL    HW225493   6.070  14.713   6.493
74554SOL     OW25494   1.279   7.522   1.027
74554SOL    HW125495   1.272   7.612   0.993
74554SOL    HW225496   1.292   7.468   0.949
74555SOL     OW25497   7.529  12.791  14.386
74555SOL    HW125498   7.455  12.849  14.404
74555SOL    HW225499   7.561  12.820  14.301
74556SOL     OW25500   8.255   5.734  10.398
74556SOL    HW125501   8.231   5.769  10.483
74556SOL    HW225502   8.280   5.643  10.415
74557SOL     OW25503   6.448   8.280  12.990
74557SOL    HW125504   6.473   8.223  13.063
74557SOL    HW225505   6.435   8.366  13.030
74558SOL     OW25506  12.900  10.133  13.324
74558SOL    HW125507  12.916  10.158  13.233
74558SOL    HW225508  12.877  10.040  13.319
74559SOL     OW25509   5.086  10.470   3.848
74559SOL    HW125510   5.120  10.515   3.771
74559SOL    HW225511   5.087  10.538   3.916
74560SOL     OW25512  12.753   0.958   9.139
74560SOL    HW125513  12.767   1.053   9.139
74560SOL    HW225514  12.670   0.946   9.186
74561SOL     OW25515  10.704  11.657  11.477
74561SOL    HW125516  10.758  11.729  11.446
74561SOL    HW225517  10.621  11.698  11.502
74562SOL     OW25518   2.384   9.907   8.003
74562SOL    HW125519   2.344   9.992   8.023
74562SOL    HW225520   2.468   9.909   8.049
74563SOL     OW25521  14.707   4.673  10.927
74563SOL    HW125522  14.777   4.713  10.978
74563SOL    HW225523  14.712   4.579  10.948
74564SOL     OW25524  14.656   4.733   2.193
74564SOL    HW125525  14.752   4.734   2.191
74564SOL    HW225526  14.634   4.678   2.268
74565SOL     OW25527  14.344  11.129   8.230
74565SOL    HW125528  14.381  11.217   8.238
74565SOL    HW225529  14.302  11.113   8.314
74566SOL     OW25530   6.822  14.425   5.651
74566SOL    HW125531   6.858  14.462   5.570
74566SOL    HW225532   6.795  14.501   5.702
74567SOL     OW25533  10.219   0.971   3.731
74567SOL    HW125534  10.278   1.006   3.664
74567SOL    HW225535  10.275   0.914   3.784
74568SOL     OW25536  12.534   6.949  13.561
74568SOL    HW125537  12.482   6.951  13.641
74568SOL    HW225538  12.578   7.034  13.558
74569SOL     OW25539  13.530   2.137   6.956
74569SOL    HW125540  13.443   2.131   6.917
74569SOL    HW225541  13.523   2.207   7.021
74570SOL     OW25542   6.598  10.673  14.242
74570SOL    HW125543   6.566  10.624  14.167
74570SOL    HW225544   6.686  10.701  14.218
74571SOL     OW25545   4.458   0.478  11.094
74571SOL    HW125546   4.364   0.493  11.098
74571SOL    HW225547   4.492   0.549  11.039
74572SOL     OW25548   7.028   1.717   5.870
74572SOL    HW125549   7.079   1.737   5.792
74572SOL    HW225550   6.949   1.770   5.861
74573SOL     OW25551   7.647   9.992   3.069
74573SOL    HW125552   7.659   9.936   2.993
74573SOL    HW225553   7.674  10.079   3.039
74574SOL     OW25554  12.279  12.374   3.074
74574SOL    HW125555  12.299  12.432   3.000
74574SOL    HW225556  12.324  12.292   3.053
74575SOL     OW25557  13.383   3.263   1.694
74575SOL    HW125558  13.403   3.170   1.700
74575SOL    HW225559  13.467   3.305   1.675
74576SOL     OW25560   0.104   4.448   5.731
74576SOL    HW125561   0.152   4.526   5.705
74576SOL    HW225562   0.106   4.449   5.827
74577SOL     OW25563   7.599  10.147   7.774
74577SOL    HW125564   7.558  10.206   7.838
74577SOL    HW225565   7.562  10.175   7.690
74578SOL     OW25566  11.008   5.506  13.286
74578SOL    HW125567  10.974   5.417  13.300
74578SOL    HW225568  11.097   5.493  13.254
74579SOL     OW25569   8.259  13.779  10.322
74579SOL    HW125570   8.329  13.799  10.383
74579SOL    HW225571   8.191  13.843  10.341
74580SOL     OW25572   2.227  13.240   0.797
74580SOL    HW125573   2.202  13.332   0.808
74580SOL    HW225574   2.203  13.199   0.879
74581SOL     OW25575  14.421   2.144  12.418
74581SOL    HW125576  14.421   2.098  12.335
74581SOL    HW225577  14.465   2.085  12.479
74582SOL     OW25578   7.370   8.013   1.632
74582SOL    HW125579   7.436   8.020   1.563
74582SOL    HW225580   7.416   7.970   1.705
74583SOL     OW25581   4.068   0.674   4.756
74583SOL    HW125582   4.073   0.707   4.667
74583SOL    HW225583   4.108   0.587   4.752
74584SOL     OW25584  11.355   6.787   4.658
74584SOL    HW125585  11.314   6.747   4.582
74584SOL    HW225586  11.428   6.730   4.680
74585SOL     OW25587   1.377   4.521  14.303
74585SOL    HW125588   1.463   4.520  14.261
74585SOL    HW225589   1.349   4.429  14.300
74586SOL     OW25590  11.166   2.105   2.510
74586SOL    HW125591  11.195   2.130   2.422
74586SOL    HW225592  11.247   2.085   2.557
74587SOL     OW25593   7.082   8.755   7.414
74587SOL    HW125594   7.088   8.845   7.384
74587SOL    HW225595   7.173   8.727   7.425
74588SOL     OW25596  10.830   0.637   1.057
74588SOL    HW125597  10.807   0.604   1.143
74588SOL    HW225598  10.782   0.581   0.996
74589SOL     OW25599   6.652   8.068  10.227
74589SOL    HW125600   6.676   8.087  10.137
74589SOL    HW225601   6.612   8.150  10.258
74590SOL     OW25602  14.189   6.853  14.490
74590SOL    HW125603  14.172   6.804  14.409
74590SOL    HW225604  14.135   6.808  14.555
74591SOL     OW25605  12.554   6.690   3.905
74591SOL    HW125606  12.496   6.746   3.852
74591SOL    HW225607  12.623   6.664   3.844
74592SOL     OW25608  14.378   5.878  13.741
74592SOL    HW125609  14.356   5.786  13.726
74592SOL    HW225610  14.388   5.915  13.653
74593SOL     OW25611   9.505   2.352   5.000
74593SOL    HW125612   9.538   2.431   4.956
74593SOL    HW225613   9.429   2.326   4.948
74594SOL     OW25614   0.734   3.692   3.736
74594SOL    HW125615   0.764   3.617   3.786
74594SOL    HW225616   0.780   3.767   3.775
74595SOL     OW25617   0.355   9.738  11.540
74595SOL    HW125618   0.431   9.712  11.487
74595SOL    HW225619   0.355   9.678  11.614
74596SOL     OW25620   6.064   0.808   7.490
74596SOL    HW125621   6.085   0.819   7.583
74596SOL    HW225622   6.062   0.714   7.476
74597SOL     OW25623   3.740   1.810   1.127
74597SOL    HW125624   3.662   1.840   1.173
74597SOL    HW225625   3.712   1.730   1.083
74598SOL     OW25626   4.066   9.369   5.638
74598SOL    HW125627   4.114   9.298   5.681
74598SOL    HW225628   4.026   9.418   5.710
74599SOL     OW25629  13.926   8.752  12.169
74599SOL    HW125630  13.951   8.826  12.224
74599SOL    HW225631  13.872   8.790  12.100
74600SOL     OW25632   1.372   3.605  11.731
74600SOL    HW125633   1.327   3.584  11.813
74600SOL    HW225634   1.435   3.673  11.756
74601SOL     OW25635  14.322  10.171  13.163
74601SOL    HW125636  14.266  10.107  13.208
74601SOL    HW225637  14.323  10.144  13.072
74602SOL     OW25638  14.258   5.591  10.167
74602SOL    HW125639  14.288   5.569  10.078
74602SOL    HW225640  14.287   5.681  10.180
74603SOL     OW25641   5.786   4.114  11.510
74603SOL    HW125642   5.760   4.205  11.501
74603SOL    HW225643   5.873   4.110  11.470
74604SOL     OW25644  10.108   9.340   2.286
74604SOL    HW125645  10.182   9.368   2.231
74604SOL    HW225646  10.044   9.411   2.278
74605SOL     OW25647   0.384  12.428   7.826
74605SOL    HW125648   0.366  12.522   7.822
74605SOL    HW225649   0.334  12.391   7.754
74606SOL     OW25650  11.351   1.079   4.360
74606SOL    HW125651  11.326   1.102   4.449
74606SOL    HW225652  11.346   1.162   4.312
74607SOL     OW25653   4.789   9.442   6.538
74607SOL    HW125654   4.842   9.363   6.546
74607SOL    HW225655   4.808   9.475   6.450
74608SOL     OW25656   7.111   2.225   6.720
74608SOL    HW125657   7.156   2.207   6.803
74608SOL    HW225658   7.136   2.151   6.664
74609SOL     OW25659   6.876   0.436   4.252
74609SOL    HW125660   6.885   0.479   4.167
74609SOL    HW225661   6.811   0.488   4.298
74610SOL     OW25662   2.205  13.849   2.018
74610SOL    HW125663   2.204  13.772   1.960
74610SOL    HW225664   2.239  13.919   1.963
74611SOL     OW25665  13.466   4.067  11.027
74611SOL    HW125666  13.380   4.050  10.989
74611SOL    HW225667  13.452   4.140  11.086
74612SOL     OW25668   2.070  10.793   7.838
74612SOL    HW125669   2.162  10.816   7.837
74612SOL    HW225670   2.037  10.830   7.920
74613SOL     OW25671   5.472  13.269   9.438
74613SOL    HW125672   5.556  13.306   9.468
74613SOL    HW225673   5.479  13.267   9.343
74614SOL     OW25674   2.479   9.226   7.309
74614SOL    HW125675   2.518   9.277   7.380
74614SOL    HW225676   2.499   9.135   7.332
74615SOL     OW25677   7.441   1.160   1.470
74615SOL    HW125678   7.511   1.096   1.484
74615SOL    HW225679   7.484   1.234   1.428
74616SOL     OW25680   2.043   1.027  11.623
74616SOL    HW125681   2.105   1.050  11.554
74616SOL    HW225682   2.093   0.969  11.681
74617SOL     OW25683   7.681   6.819   1.902
74617SOL    HW125684   7.635   6.816   1.986
74617SOL    HW225685   7.769   6.850   1.925
74618SOL     OW25686   9.809   6.415   0.883
74618SOL    HW125687   9.880   6.350   0.880
74618SOL    HW225688   9.835   6.481   0.819
74619SOL     OW25689   6.774  11.401  11.933
74619SOL    HW125690   6.785  11.450  12.015
74619SOL    HW225691   6.823  11.452  11.868
74620SOL     OW25692   4.691  12.565  12.202
74620SOL    HW125693   4.755  12.536  12.136
74620SOL    HW225694   4.721  12.653  12.226
74621SOL     OW25695  13.974   4.335   2.753
74621SOL    HW125696  14.069   4.327   2.764
74621SOL    HW225697  13.959   4.322   2.659
74622SOL     OW25698  14.763   2.310   4.589
74622SOL    HW125699  14.805   2.276   4.668
74622SOL    HW225700  14.788   2.249   4.519
74623SOL     OW25701  10.928   0.648   5.795
74623SOL    HW125702  10.864   0.719   5.789
74623SOL    HW225703  11.002   0.685   5.843
74624SOL     OW25704   5.058  14.849   8.745
74624SOL    HW125705   5.085  14.799   8.823
74624SOL    HW225706   5.127   0.042   8.735
74625SOL     OW25707   3.324   6.621   6.211
74625SOL    HW125708   3.381   6.697   6.221
74625SOL    HW225709   3.241   6.647   6.251
74626SOL     OW25710   7.239  12.845   8.514
74626SOL    HW125711   7.155  12.883   8.488
74626SOL    HW225712   7.297  12.921   8.523
74627SOL     OW25713   6.766   5.230   4.740
74627SOL    HW125714   6.789   5.145   4.703
74627SOL    HW225715   6.806   5.294   4.681
74628SOL     OW25716   5.271  10.824   9.693
74628SOL    HW125717   5.320  10.774   9.759
74628SOL    HW225718   5.235  10.898   9.742
74629SOL     OW25719   7.198   7.726   7.083
74629SOL    HW125720   7.116   7.683   7.057
74629SOL    HW225721   7.203   7.804   7.028
74630SOL     OW25722  11.134  11.129   7.332
74630SOL    HW125723  11.168  11.097   7.248
74630SOL    HW225724  11.147  11.056   7.393
74631SOL     OW25725   9.592   8.443  14.869
74631SOL    HW125726   9.626   8.367  14.823
74631SOL    HW225727   9.501   8.451  14.838
74632SOL     OW25728  11.030  11.270   2.443
74632SOL    HW125729  11.059  11.191   2.398
74632SOL    HW225730  11.070  11.342   2.394
74633SOL     OW25731   9.998   9.128  13.343
74633SOL    HW125732  10.038   9.182  13.274
74633SOL    HW225733   9.924   9.179  13.374
74634SOL     OW25734  12.101   0.269   4.775
74634SOL    HW125735  12.190   0.294   4.799
74634SOL    HW225736  12.091   0.300   4.685
74635SOL     OW25737  13.084  14.638  11.782
74635SOL    HW125738  13.071  14.575  11.853
74635SOL    HW225739  13.152  14.598  11.728
74636SOL     OW25740   4.612   0.215   4.543
74636SOL    HW125741   4.602   0.136   4.490
74636SOL    HW225742   4.523   0.245   4.559
74637SOL     OW25743   7.969   4.937   9.523
74637SOL    HW125744   7.880   4.904   9.512
74637SOL    HW225745   7.981   4.997   9.449
74638SOL     OW25746   7.366   3.325   9.013
74638SOL    HW125747   7.411   3.358   9.090
74638SOL    HW225748   7.295   3.270   9.048
74639SOL     OW25749   1.946   2.700   9.647
74639SOL    HW125750   1.898   2.618   9.637
74639SOL    HW225751   2.038   2.673   9.651
74640SOL     OW25752  11.285  13.091   2.327
74640SOL    HW125753  11.189  13.089   2.332
74640SOL    HW225754  11.311  12.999   2.335
74641SOL     OW25755   9.167  12.994  12.324
74641SOL    HW125756   9.240  12.939  12.353
74641SOL    HW225757   9.200  13.037  12.244
74642SOL     OW25758   1.672   8.666   0.115
74642SOL    HW125759   1.690   8.579   0.150
74642SOL    HW225760   1.588   8.657   0.070
74643SOL     OW25761  14.550   1.705  12.140
74643SOL    HW125762  14.476   1.747  12.097
74643SOL    HW225763  14.510   1.636  12.194
74644SOL     OW25764   0.528  10.912  11.073
74644SOL    HW125765   0.443  10.911  11.117
74644SOL    HW225766   0.588  10.948  11.138
74645SOL     OW25767   3.404  13.009  11.376
74645SOL    HW125768   3.442  12.938  11.324
74645SOL    HW225769   3.479  13.061  11.405
74646SOL     OW25770   1.524   6.395   5.189
74646SOL    HW125771   1.605   6.370   5.144
74646SOL    HW225772   1.477   6.312   5.202
74647SOL     OW25773  12.256  13.957  11.973
74647SOL    HW125774  12.222  13.876  11.933
74647SOL    HW225775  12.350  13.955  11.955
74648SOL     OW25776   4.614   2.488   2.426
74648SOL    HW125777   4.543   2.489   2.362
74648SOL    HW225778   4.571   2.486   2.511
74649SOL     OW25779   0.619   7.394  10.784
74649SOL    HW125780   0.645   7.370  10.873
74649SOL    HW225781   0.594   7.486  10.790
74650SOL     OW25782  10.627  13.152  13.038
74650SOL    HW125783  10.595  13.201  13.114
74650SOL    HW225784  10.700  13.100  13.073
74651SOL     OW25785  10.184  13.574   8.164
74651SOL    HW125786  10.263  13.600   8.211
74651SOL    HW225787  10.166  13.648   8.105
74652SOL     OW25788   1.615   9.311  10.248
74652SOL    HW125789   1.634   9.302  10.155
74652SOL    HW225790   1.519   9.314  10.252
74653SOL     OW25791  13.695  12.054   2.380
74653SOL    HW125792  13.760  12.002   2.334
74653SOL    HW225793  13.641  11.990   2.425
74654SOL     OW25794  13.303   6.567   3.156
74654SOL    HW125795  13.318   6.558   3.250
74654SOL    HW225796  13.208   6.561   3.146
74655SOL     OW25797   1.187   3.983   7.401
74655SOL    HW125798   1.092   3.983   7.412
74655SOL    HW225799   1.221   3.969   7.489
74656SOL     OW25800   7.122  14.738   7.203
74656SOL    HW125801   7.100  14.645   7.203
74656SOL    HW225802   7.214  14.741   7.229
74657SOL     OW25803  13.377  14.561   7.919
74657SOL    HW125804  13.356  14.501   7.848
74657SOL    HW225805  13.463  14.531   7.950
74658SOL     OW25806   8.339  12.330   8.232
74658SOL    HW125807   8.395  12.352   8.307
74658SOL    HW225808   8.400  12.320   8.159
74659SOL     OW25809   7.059   7.273   2.038
74659SOL    HW125810   7.107   7.355   2.047
74659SOL    HW225811   7.079   7.225   2.119
74660SOL     OW25812   7.508  14.300   1.796
74660SOL    HW125813   7.542  14.250   1.871
74660SOL    HW225814   7.460  14.236   1.744
74661SOL     OW25815  11.740  14.824   8.266
74661SOL    HW125816  11.775  14.822   8.355
74661SOL    HW225817  11.805   0.001   8.216
74662SOL     OW25818   3.597   2.193   1.008
74662SOL    HW125819   3.516   2.171   1.054
74662SOL    HW225820   3.606   2.125   0.942
74663SOL     OW25821   1.933   9.695   7.251
74663SOL    HW125822   1.877   9.756   7.203
74663SOL    HW225823   2.016   9.742   7.260
74664SOL     OW25824   3.339  12.042  10.087
74664SOL    HW125825   3.434  12.031  10.099
74664SOL    HW225826   3.323  12.012   9.998
74665SOL     OW25827  11.466  11.650   1.347
74665SOL    HW125828  11.460  11.663   1.442
74665SOL    HW225829  11.557  11.668   1.326
74666SOL     OW25830   2.465   0.771   5.483
74666SOL    HW125831   2.522   0.707   5.442
74666SOL    HW225832   2.498   0.779   5.573
74667SOL     OW25833   2.633   8.256  12.934
74667SOL    HW125834   2.694   8.325  12.959
74667SOL    HW225835   2.575   8.297  12.870
74668SOL     OW25836   5.918   4.462   9.436
74668SOL    HW125837   5.902   4.527   9.368
74668SOL    HW225838   5.984   4.404   9.398
74669SOL     OW25839  14.249  14.337  13.774
74669SOL    HW125840  14.284  14.265  13.826
74669SOL    HW225841  14.197  14.388  13.836
74670SOL     OW25842   2.783   0.701  13.947
74670SOL    HW125843   2.866   0.686  13.902
74670SOL    HW225844   2.723   0.637  13.910
74671SOL     OW25845  13.203   5.448   2.818
74671SOL    HW125846  13.196   5.394   2.897
74671SOL    HW225847  13.181   5.388   2.747
74672SOL     OW25848  14.108   1.911   8.937
74672SOL    HW125849  14.040   1.978   8.942
74672SOL    HW225850  14.106   1.881   8.846
74673SOL     OW25851   6.599  14.524  10.614
74673SOL    HW125852   6.539  14.598  10.606
74673SOL    HW225853   6.555  14.452  10.569
74674SOL     OW25854   6.039   6.907  13.787
74674SOL    HW125855   6.132   6.928  13.782
74674SOL    HW225856   5.998   6.987  13.821
74675SOL     OW25857   1.149   2.442   0.482
74675SOL    HW125858   1.190   2.415   0.564
74675SOL    HW225859   1.190   2.526   0.462
74676SOL     OW25860   6.376   2.063   6.509
74676SOL    HW125861   6.342   2.075   6.597
74676SOL    HW225862   6.298   2.057   6.454
74677SOL     OW25863   9.813  12.269   4.884
74677SOL    HW125864   9.768  12.184   4.888
74677SOL    HW225865   9.818  12.289   4.791
74678SOL     OW25866   0.991   1.310   3.048
74678SOL    HW125867   1.068   1.296   2.993
74678SOL    HW225868   0.927   1.352   2.991
74679SOL     OW25869   6.026   5.025   0.331
74679SOL    HW125870   5.976   5.107   0.331
74679SOL    HW225871   6.065   5.021   0.244
74680SOL     OW25872   0.605   9.973   7.395
74680SOL    HW125873   0.679   9.985   7.336
74680SOL    HW225874   0.554  10.053   7.386
74681SOL     OW25875   0.698  14.546  12.847
74681SOL    HW125876   0.749  14.483  12.796
74681SOL    HW225877   0.615  14.502  12.865
74682SOL     OW25878  10.135  14.850   7.217
74682SOL    HW125879  10.129   0.069   7.190
74682SOL    HW225880  10.212  14.848   7.274
74683SOL     OW25881  14.658   1.327   8.675
74683SOL    HW125882  14.582   1.381   8.697
74683SOL    HW225883  14.623   1.238   8.667
74684SOL     OW25884  14.140   9.046   8.979
74684SOL    HW125885  14.086   9.125   8.971
74684SOL    HW225886  14.225   9.079   9.008
74685SOL     OW25887   2.146   0.052   4.955
74685SOL    HW125888   2.231   0.026   4.992
74685SOL    HW225889   2.095  14.844   4.954
74686SOL     OW25890  11.216   3.576  10.624
74686SOL    HW125891  11.269   3.619  10.557
74686SOL    HW225892  11.260   3.596  10.706
74687SOL     OW25893   9.564   3.991   6.279
74687SOL    HW125894   9.595   4.068   6.327
74687SOL    HW225895   9.643   3.951   6.244
74688SOL     OW25896  10.726   3.317   2.610
74688SOL    HW125897  10.800   3.352   2.659
74688SOL    HW225898  10.682   3.394   2.574
74689SOL     OW25899   6.760  12.464   7.422
74689SOL    HW125900   6.682  12.512   7.449
74689SOL    HW225901   6.832  12.506   7.469
74690SOL     OW25902   9.915   2.841  12.480
74690SOL    HW125903   9.967   2.762  12.465
74690SOL    HW225904   9.932   2.863  12.572
74691SOL     OW25905   4.758  12.442  10.075
74691SOL    HW125906   4.763  12.486  10.160
74691SOL    HW225907   4.665  12.421  10.064
74692SOL     OW25908   4.555   8.147   1.289
74692SOL    HW125909   4.530   8.114   1.375
74692SOL    HW225910   4.472   8.165   1.245
74693SOL     OW25911   0.303   6.151   1.907
74693SOL    HW125912   0.373   6.207   1.874
74693SOL    HW225913   0.332   6.126   1.995
74694SOL     OW25914   1.614  10.367   3.402
74694SOL    HW125915   1.633  10.369   3.496
74694SOL    HW225916   1.665  10.293   3.369
74695SOL     OW25917  14.540  12.448   7.842
74695SOL    HW125918  14.529  12.512   7.913
74695SOL    HW225919  14.513  12.496   7.763
74696SOL     OW25920   5.889   2.253  11.144
74696SOL    HW125921   5.801   2.226  11.119
74696SOL    HW225922   5.876   2.304  11.224
74697SOL     OW25923   2.415   3.376  10.521
74697SOL    HW125924   2.423   3.465  10.489
74697SOL    HW225925   2.388   3.325  10.444
74698SOL     OW25926   3.540   2.702  13.979
74698SOL    HW125927   3.544   2.719  13.885
74698SOL    HW225928   3.630   2.676  14.002
74699SOL     OW25929  10.184   9.165  11.795
74699SOL    HW125930  10.146   9.243  11.837
74699SOL    HW225931  10.177   9.182  11.701
74700SOL     OW25932   6.189  12.440   4.605
74700SOL    HW125933   6.181  12.377   4.534
74700SOL    HW225934   6.232  12.392   4.676
74701SOL     OW25935  13.649   2.379   4.805
74701SOL    HW125936  13.563   2.360   4.767
74701SOL    HW225937  13.634   2.457   4.859
74702SOL     OW25938   0.304   9.483   8.969
74702SOL    HW125939   0.287   9.428   8.893
74702SOL    HW225940   0.244   9.450   9.037
74703SOL     OW25941   0.251   9.757   3.101
74703SOL    HW125942   0.230   9.665   3.088
74703SOL    HW225943   0.166   9.800   3.112
74704SOL     OW25944   4.291  12.513  12.472
74704SOL    HW125945   4.387  12.508  12.472
74704SOL    HW225946   4.266  12.501  12.380
74705SOL     OW25947   8.649   2.616   7.583
74705SOL    HW125948   8.554   2.622   7.589
74705SOL    HW225949   8.668   2.619   7.489
74706SOL     OW25950  14.737   0.617   1.461
74706SOL    HW125951  14.809   0.680   1.469
74706SOL    HW225952  14.745   0.583   1.372
74707SOL     OW25953   6.653   0.161   3.452
74707SOL    HW125954   6.702   0.155   3.533
74707SOL    HW225955   6.575   0.106   3.466
74708SOL     OW25956   0.189  12.380  12.644
74708SOL    HW125957   0.182  12.457  12.700
74708SOL    HW225958   0.223  12.311  12.701
74709SOL     OW25959  13.399   5.965  13.768
74709SOL    HW125960  13.465   5.986  13.834
74709SOL    HW225961  13.394   5.869  13.769
74710SOL     OW25962   5.618   5.686   2.206
74710SOL    HW125963   5.598   5.730   2.289
74710SOL    HW225964   5.714   5.685   2.203
74711SOL     OW25965   0.799  10.586   0.381
74711SOL    HW125966   0.716  10.542   0.367
74711SOL    HW225967   0.777  10.679   0.383
74712SOL     OW25968   3.276   7.031   5.665
74712SOL    HW125969   3.234   6.950   5.694
74712SOL    HW225970   3.282   7.085   5.744
74713SOL     OW25971   7.545   4.462   4.025
74713SOL    HW125972   7.553   4.420   3.939
74713SOL    HW225973   7.523   4.390   4.084
74714SOL     OW25974  14.374   8.783   4.061
74714SOL    HW125975  14.286   8.759   4.089
74714SOL    HW225976  14.401   8.711   4.004
74715SOL     OW25977   5.063   5.074  10.102
74715SOL    HW125978   4.990   5.098  10.159
74715SOL    HW225979   5.139   5.116  10.141
74716SOL     OW25980  10.860   6.475  11.131
74716SOL    HW125981  10.769   6.482  11.102
74716SOL    HW225982  10.907   6.437  11.057
74717SOL     OW25983   9.889   3.582  12.068
74717SOL    HW125984   9.844   3.523  12.007
74717SOL    HW225985   9.946   3.635  12.012
74718SOL     OW25986   6.976   0.061  10.622
74718SOL    HW125987   6.887   0.080  10.593
74718SOL    HW225988   7.027   0.137  10.595
74719SOL     OW25989   5.115   9.052   6.082
74719SOL    HW125990   5.147   9.122   6.025
74719SOL    HW225991   5.039   9.016   6.035
74720SOL     OW25992  11.371  14.075  10.450
74720SOL    HW125993  11.295  14.132  10.445
74720SOL    HW225994  11.416  14.087  10.366
74721SOL     OW25995   8.994   2.868   0.078
74721SOL    HW125996   9.075   2.853   0.126
74721SOL    HW225997   8.935   2.799   0.110
74722SOL     OW25998   1.666   4.280   5.968
74722SOL    HW125999   1.579   4.274   5.930
74722SOL    HW226000   1.694   4.190   5.980
74723SOL     OW26001  12.567  10.234  12.035
74723SOL    HW126002  12.487  10.239  12.088
74723SOL    HW226003  12.635  10.205  12.096
74724SOL     OW26004  14.557   9.327   8.944
74724SOL    HW126005  14.641   9.358   8.910
74724SOL    HW226006  14.580   9.249   8.994
74725SOL     OW26007  12.984   4.423  14.039
74725SOL    HW126008  13.048   4.357  14.066
74725SOL    HW226009  13.033   4.481  13.981
74726SOL     OW26010   7.970  10.042   4.343
74726SOL    HW126011   7.944  10.009   4.429
74726SOL    HW226012   7.904  10.108   4.322
74727SOL     OW26013   7.910   3.011   3.910
74727SOL    HW126014   7.862   2.962   3.843
74727SOL    HW226015   7.898   3.103   3.886
74728SOL     OW26016  12.097  12.028   2.272
74728SOL    HW126017  12.125  12.120   2.267
74728SOL    HW226018  12.134  11.988   2.194
74729SOL     OW26019   1.551  13.309   2.741
74729SOL    HW126020   1.459  13.338   2.738
74729SOL    HW226021   1.545  13.214   2.748
74730SOL     OW26022  13.706   6.578  14.249
74730SOL    HW126023  13.613   6.591  14.232
74730SOL    HW226024  13.731   6.505  14.192
74731SOL     OW26025  10.066   9.186  14.754
74731SOL    HW126026   9.975   9.214  14.760
74731SOL    HW226027  10.106   9.246  14.691
74732SOL     OW26028  13.490   0.619   7.014
74732SOL    HW126029  13.414   0.655   7.060
74732SOL    HW226030  13.478   0.647   6.923
74733SOL     OW26031   5.011   9.732  11.611
74733SOL    HW126032   5.045   9.773  11.531
74733SOL    HW226033   4.986   9.644  11.583
74734SOL     OW26034  12.598   7.114   5.168
74734SOL    HW126035  12.675   7.129   5.114
74734SOL    HW226036  12.524   7.123   5.107
74735SOL     OW26037  13.646   1.165  14.822
74735SOL    HW126038  13.583   1.180  14.752
74735SOL    HW226039  13.635   1.240   0.008
74736SOL     OW26040  11.891   4.225  11.334
74736SOL    HW126041  11.914   4.132  11.327
74736SOL    HW226042  11.959   4.261  11.391
74737SOL     OW26043   3.550  12.792   0.358
74737SOL    HW126044   3.553  12.700   0.383
74737SOL    HW226045   3.614  12.835   0.415
74738SOL     OW26046   0.381  11.558  12.222
74738SOL    HW126047   0.316  11.616  12.182
74738SOL    HW226048   0.461  11.573  12.171
74739SOL     OW26049   5.983   4.683  13.860
74739SOL    HW126050   6.029   4.639  13.932
74739SOL    HW226051   6.046   4.686  13.789
74740SOL     OW26052   2.068  10.879  11.578
74740SOL    HW126053   2.025  10.880  11.663
74740SOL    HW226054   2.090  10.971  11.561
74741SOL     OW26055  14.682  14.316   4.793
74741SOL    HW126056  14.696  14.357   4.708
74741SOL    HW226057  14.763  14.267   4.809
74742SOL     OW26058  13.454   0.786   5.445
74742SOL    HW126059  13.518   0.789   5.516
74742SOL    HW226060  13.390   0.720   5.474
74743SOL     OW26061   6.897   1.066   2.599
74743SOL    HW126062   6.871   1.136   2.659
74743SOL    HW226063   6.990   1.082   2.583
74744SOL     OW26064  10.914   9.306  13.704
74744SOL    HW126065  10.886   9.245  13.636
74744SOL    HW226066  10.984   9.260  13.750
74745SOL     OW26067  12.021  10.463   7.185
74745SOL    HW126068  11.974  10.492   7.263
74745SOL    HW226069  11.996  10.526   7.117
74746SOL     OW26070   1.006  12.288   9.854
74746SOL    HW126071   0.937  12.303   9.789
74746SOL    HW226072   1.049  12.373   9.863
74747SOL     OW26073   3.423   4.481   9.509
74747SOL    HW126074   3.495   4.442   9.557
74747SOL    HW226075   3.453   4.483   9.418
74748SOL     OW26076  12.773   3.757   7.683
74748SOL    HW126077  12.849   3.703   7.705
74748SOL    HW226078  12.699   3.711   7.723
74749SOL     OW26079   8.128   8.771  10.142
74749SOL    HW126080   8.159   8.729  10.221
74749SOL    HW226081   8.072   8.706  10.100
74750SOL     OW26082   3.656  11.829  11.506
74750SOL    HW126083   3.639  11.772  11.581
74750SOL    HW226084   3.591  11.803  11.441
74751SOL     OW26085  12.140   0.495   6.077
74751SOL    HW126086  12.164   0.404   6.060
74751SOL    HW226087  12.118   0.497   6.170
74752SOL     OW26088  10.881   3.030  11.157
74752SOL    HW126089  10.864   2.978  11.235
74752SOL    HW226090  10.902   3.117  11.190
74753SOL     OW26091   1.184   1.483  12.190
74753SOL    HW126092   1.209   1.572  12.214
74753SOL    HW226093   1.137   1.494  12.107
74754SOL     OW26094   7.419   5.778  11.190
74754SOL    HW126095   7.469   5.699  11.171
74754SOL    HW226096   7.404   5.774  11.285
74755SOL     OW26097   7.642   0.672   3.085
74755SOL    HW126098   7.704   0.652   3.155
74755SOL    HW226099   7.651   0.599   3.024
74756SOL     OW26100   0.826   6.490  11.137
74756SOL    HW126101   0.804   6.582  11.152
74756SOL    HW226102   0.748   6.442  11.164
74757SOL     OW26103  11.429   2.103  10.779
74757SOL    HW126104  11.353   2.161  10.791
74757SOL    HW226105  11.501   2.149  10.821
74758SOL     OW26106  11.719   5.983  12.436
74758SOL    HW126107  11.683   6.001  12.523
74758SOL    HW226108  11.809   6.017  12.439
74759SOL     OW26109   1.225  12.592   4.687
74759SOL    HW126110   1.307  12.547   4.667
74759SOL    HW226111   1.158  12.540   4.643
74760SOL     OW26112  13.148   1.150  12.660
74760SOL    HW126113  13.121   1.154  12.569
74760SOL    HW226114  13.142   1.057  12.683
74761SOL     OW26115   4.236   4.177   9.005
74761SOL    HW126116   4.267   4.221   8.925
74761SOL    HW226117   4.202   4.093   8.973
74762SOL     OW26118   7.726   9.421  10.497
74762SOL    HW126119   7.802   9.476  10.513
74762SOL    HW226120   7.760   9.348  10.444
74763SOL     OW26121   0.327   6.780   3.402
74763SOL    HW126122   0.242   6.745   3.377
74763SOL    HW226123   0.365   6.712   3.459
74764SOL     OW26124  10.419   4.361   8.086
74764SOL    HW126125  10.398   4.283   8.136
74764SOL    HW226126  10.509   4.349   8.057
74765SOL     OW26127   0.591  12.793   7.000
74765SOL    HW126128   0.518  12.754   7.047
74765SOL    HW226129   0.570  12.778   6.907
74766SOL     OW26130   1.811   3.897  13.413
74766SOL    HW126131   1.768   3.915  13.330
74766SOL    HW226132   1.745   3.850  13.465
74767SOL     OW26133  12.129  10.125   4.335
74767SOL    HW126134  12.057  10.103   4.276
74767SOL    HW226135  12.087  10.147   4.418
74768SOL     OW26136   6.207   0.322   8.725
74768SOL    HW126137   6.164   0.241   8.698
74768SOL    HW226138   6.192   0.328   8.819
74769SOL     OW26139   6.413   1.980  10.947
74769SOL    HW126140   6.411   2.076  10.947
74769SOL    HW226141   6.363   1.955  10.870
74770SOL     OW26142   2.944   4.825   3.136
74770SOL    HW126143   2.905   4.815   3.223
74770SOL    HW226144   3.021   4.880   3.151
74771SOL     OW26145   1.891   1.154   0.535
74771SOL    HW126146   1.852   1.134   0.450
74771SOL    HW226147   1.924   1.070   0.567
74772SOL     OW26148   2.233  13.618   6.006
74772SOL    HW126149   2.306  13.556   6.004
74772SOL    HW226150   2.264  13.692   5.954
74773SOL     OW26151   6.110   4.251  11.211
74773SOL    HW126152   6.152   4.197  11.278
74773SOL    HW226153   6.033   4.200  11.184
74774SOL     OW26154   2.730  12.487   0.911
74774SOL    HW126155   2.655  12.490   0.851
74774SOL    HW226156   2.708  12.420   0.975
74775SOL     OW26157   3.705   4.163   1.203
74775SOL    HW126158   3.754   4.215   1.139
74775SOL    HW226159   3.657   4.229   1.254
74776SOL     OW26160   7.776  13.210   3.489
74776SOL    HW126161   7.730  13.293   3.476
74776SOL    HW226162   7.789  13.177   3.400
74777SOL     OW26163  11.224   0.732   5.977
74777SOL    HW126164  11.171   0.700   6.050
74777SOL    HW226165  11.314   0.724   6.007
74778SOL     OW26166   8.155  14.175   3.205
74778SOL    HW126167   8.080  14.212   3.158
74778SOL    HW226168   8.161  14.228   3.285
74779SOL     OW26169  14.385   9.424  11.277
74779SOL    HW126170  14.381   9.519  11.286
74779SOL    HW226171  14.472   9.406  11.243
74780SOL     OW26172   8.464   0.884   9.291
74780SOL    HW126173   8.507   0.897   9.206
74780SOL    HW226174   8.399   0.954   9.295
74781SOL     OW26175  11.031   4.162  11.330
74781SOL    HW126176  11.024   4.187  11.422
74781SOL    HW226177  11.102   4.098  11.329
74782SOL     OW26178   7.712  11.557   7.730
74782SOL    HW126179   7.750  11.560   7.817
74782SOL    HW226180   7.705  11.463   7.710
74783SOL     OW26181   6.721   6.696   4.692
74783SOL    HW126182   6.708   6.695   4.787
74783SOL    HW226183   6.744   6.786   4.671
74784SOL     OW26184   2.294   8.896   3.797
74784SOL    HW126185   2.376   8.863   3.834
74784SOL    HW226186   2.321   8.951   3.724
74785SOL     OW26187   9.645   3.744   2.688
74785SOL    HW126188   9.643   3.759   2.783
74785SOL    HW226189   9.732   3.773   2.661
74786SOL     OW26190  12.958  11.976  12.588
74786SOL    HW126191  13.001  12.050  12.546
74786SOL    HW226192  13.014  11.953  12.662
74787SOL     OW26193   5.693   0.334   9.951
74787SOL    HW126194   5.636   0.359   9.879
74787SOL    HW226195   5.724   0.416   9.988
74788SOL     OW26196   2.904   0.305   9.590
74788SOL    HW126197   2.910   0.350   9.505
74788SOL    HW226198   2.872   0.218   9.568
74789SOL     OW26199  11.649   6.800   6.148
74789SOL    HW126200  11.598   6.778   6.070
74789SOL    HW226201  11.593   6.860   6.197
74790SOL     OW26202   8.682   8.253   3.345
74790SOL    HW126203   8.676   8.348   3.355
74790SOL    HW226204   8.595   8.227   3.314
74791SOL     OW26205   5.657   7.837   3.134
74791SOL    HW126206   5.635   7.872   3.221
74791SOL    HW226207   5.683   7.747   3.151
74792SOL     OW26208  10.518   6.110  11.708
74792SOL    HW126209  10.455   6.127  11.779
74792SOL    HW226210  10.516   6.189  11.654
74793SOL     OW26211   0.169  13.829   1.182
74793SOL    HW126212   0.204  13.861   1.098
74793SOL    HW226213   0.091  13.779   1.158
74794SOL     OW26214   8.082  11.003   6.700
74794SOL    HW126215   8.018  10.934   6.681
74794SOL    HW226216   8.111  10.986   6.789
74795SOL     OW26217   4.473   8.150   4.574
74795SOL    HW126218   4.522   8.105   4.643
74795SOL    HW226219   4.383   8.119   4.585
74796SOL     OW26220   9.004   4.065   0.473
74796SOL    HW126221   9.058   3.994   0.438
74796SOL    HW226222   8.914   4.030   0.470
74797SOL     OW26223   3.910   1.657  13.652
74797SOL    HW126224   3.979   1.662  13.586
74797SOL    HW226225   3.956   1.647  13.735
74798SOL     OW26226   8.377   8.582  11.003
74798SOL    HW126227   8.355   8.675  11.012
74798SOL    HW226228   8.464   8.582  10.963
74799SOL     OW26229   8.907   7.176  14.181
74799SOL    HW126230   8.992   7.220  14.188
74799SOL    HW226231   8.849   7.230  14.235
74800SOL     OW26232  12.648   0.083   0.417
74800SOL    HW126233  12.661  14.861   0.414
74800SOL    HW226234  12.725   0.116   0.462
74801SOL     OW26235   6.370   9.622   3.002
74801SOL    HW126236   6.283   9.644   2.969
74801SOL    HW226237   6.410   9.570   2.933
74802SOL     OW26238  13.360   0.321   1.306
74802SOL    HW126239  13.386   0.398   1.356
74802SOL    HW226240  13.278   0.293   1.347
74803SOL     OW26241  11.999  11.258   1.159
74803SOL    HW126242  12.023  11.317   1.230
74803SOL    HW226243  11.948  11.189   1.202
74804SOL     OW26244   0.282   0.087   3.214
74804SOL    HW126245   0.336   0.121   3.142
74804SOL    HW226246   0.270   0.162   3.272
74805SOL     OW26247   1.681  10.722   5.534
74805SOL    HW126248   1.764  10.769   5.538
74805SOL    HW226249   1.705  10.632   5.557
74806SOL     OW26250   8.570   9.265   1.439
74806SOL    HW126251   8.653   9.227   1.463
74806SOL    HW226252   8.585   9.302   1.352
74807SOL     OW26253   1.656   5.979  10.341
74807SOL    HW126254   1.674   5.950  10.430
74807SOL    HW226255   1.564   6.007  10.343
74808SOL     OW26256  11.397  10.355   2.183
74808SOL    HW126257  11.330  10.329   2.119
74808SOL    HW226258  11.351  10.415   2.242
74809SOL     OW26259  10.065  10.654  14.867
74809SOL    HW126260  10.081  10.560  14.858
74809SOL    HW226261  10.045  10.683  14.778
74810SOL     OW26262   7.045   9.174   6.428
74810SOL    HW126263   7.073   9.195   6.339
74810SOL    HW226264   6.955   9.144   6.419
74811SOL     OW26265  13.398   2.093   5.102
74811SOL    HW126266  13.454   2.122   5.174
74811SOL    HW226267  13.456   2.041   5.047
74812SOL     OW26268  12.988  12.687   1.820
74812SOL    HW126269  12.930  12.755   1.855
74812SOL    HW226270  13.050  12.735   1.765
74813SOL     OW26271   2.791   4.534  10.770
74813SOL    HW126272   2.831   4.498  10.849
74813SOL    HW226273   2.866   4.557  10.714
74814SOL     OW26274   8.307   6.887   5.072
74814SOL    HW126275   8.222   6.923   5.097
74814SOL    HW226276   8.326   6.820   5.137
74815SOL     OW26277   1.954   2.014  13.405
74815SOL    HW126278   2.007   2.008  13.484
74815SOL    HW226279   1.863   2.012  13.437
74816SOL     OW26280   2.870   2.217  14.259
74816SOL    HW126281   2.945   2.222  14.200
74816SOL    HW226282   2.807   2.279  14.223
74817SOL     OW26283   5.360   2.838  14.275
74817SOL    HW126284   5.352   2.801  14.187
74817SOL    HW226285   5.313   2.777  14.331
74818SOL     OW26286  14.746  14.615   3.484
74818SOL    HW126287  14.773  14.682   3.421
74818SOL    HW226288  14.824  14.599   3.537
74819SOL     OW26289   0.509   1.363   5.505
74819SOL    HW126290   0.429   1.336   5.460
74819SOL    HW226291   0.492   1.344   5.597
74820SOL     OW26292   9.165   1.503  10.552
74820SOL    HW126293   9.144   1.575  10.612
74820SOL    HW226294   9.147   1.424  10.602
74821SOL     OW26295  13.529   0.065  14.005
74821SOL    HW126296  13.558  14.859  13.959
74821SOL    HW226297  13.547   0.047  14.098
74822SOL     OW26298   2.520   6.992   3.572
74822SOL    HW126299   2.437   6.945   3.562
74822SOL    HW226300   2.495   7.084   3.574
74823SOL     OW26301   9.335  10.453  14.455
74823SOL    HW126302   9.390  10.525  14.485
74823SOL    HW226303   9.348  10.384  14.520
74824SOL     OW26304   6.607  13.146   4.906
74824SOL    HW126305   6.585  13.146   4.813
74824SOL    HW226306   6.525  13.170   4.950
74825SOL     OW26307   1.815   2.495  10.228
74825SOL    HW126308   1.908   2.510  10.211
74825SOL    HW226309   1.790   2.426  10.166
74826SOL     OW26310   5.259  10.078  12.889
74826SOL    HW126311   5.270   9.984  12.903
74826SOL    HW226312   5.228  10.085  12.798
74827SOL     OW26313   4.365   3.571   1.045
74827SOL    HW126314   4.318   3.595   0.965
74827SOL    HW226315   4.297   3.565   1.112
74828SOL     OW26316   6.454   3.019  11.162
74828SOL    HW126317   6.371   3.052  11.129
74828SOL    HW226318   6.521   3.069  11.115
74829SOL     OW26319   0.172   8.389   4.837
74829SOL    HW126320   0.167   8.344   4.921
74829SOL    HW226321   0.246   8.449   4.847
74830SOL     OW26322   8.886   5.707  11.147
74830SOL    HW126323   8.954   5.770  11.170
74830SOL    HW226324   8.823   5.758  11.096
74831SOL     OW26325  12.501  12.269   8.811
74831SOL    HW126326  12.594  12.290   8.803
74831SOL    HW226327  12.473  12.253   8.721
74832SOL     OW26328   5.428   2.605  13.534
74832SOL    HW126329   5.431   2.510  13.543
74832SOL    HW226330   5.398   2.620  13.444
74833SOL     OW26331   9.560   4.436   6.967
74833SOL    HW126332   9.568   4.482   6.883
74833SOL    HW226333   9.650   4.422   6.995
74834SOL     OW26334   8.603   3.638  13.807
74834SOL    HW126335   8.604   3.603  13.896
74834SOL    HW226336   8.650   3.721  13.814
74835SOL     OW26337   4.316   0.793   2.024
74835SOL    HW126338   4.243   0.807   1.963
74835SOL    HW226339   4.345   0.882   2.047
74836SOL     OW26340   2.640   6.094   6.521
74836SOL    HW126341   2.717   6.064   6.569
74836SOL    HW226342   2.644   6.189   6.526
74837SOL     OW26343   8.025  13.255   7.302
74837SOL    HW126344   8.020  13.214   7.215
74837SOL    HW226345   7.934  13.271   7.326
74838SOL     OW26346   2.594   1.946   5.912
74838SOL    HW126347   2.543   1.865   5.917
74838SOL    HW226348   2.653   1.932   5.837
74839SOL     OW26349   3.914   9.218   6.512
74839SOL    HW126350   4.005   9.240   6.531
74839SOL    HW226351   3.915   9.192   6.420
74840SOL     OW26352  12.077   2.720   9.963
74840SOL    HW126353  12.043   2.775   9.892
74840SOL    HW226354  12.027   2.747  10.040
74841SOL     OW26355   4.982  12.902   6.171
74841SOL    HW126356   5.060  12.846   6.164
74841SOL    HW226357   4.962  12.927   6.081
74842SOL     OW26358   2.740   0.048   8.958
74842SOL    HW126359   2.731  14.836   9.002
74842SOL    HW226360   2.762   0.026   8.867
74843SOL     OW26361   4.916   2.576   1.470
74843SOL    HW126362   4.867   2.499   1.442
74843SOL    HW226363   4.970   2.546   1.542
74844SOL     OW26364   9.528   5.427  12.355
74844SOL    HW126365   9.586   5.480  12.300
74844SOL    HW226366   9.557   5.337  12.341
74845SOL     OW26367   3.963  10.319  11.759
74845SOL    HW126368   3.943  10.392  11.700
74845SOL    HW226369   4.026  10.266  11.710
74846SOL     OW26370   0.463  13.638   4.594
74846SOL    HW126371   0.385  13.660   4.543
74846SOL    HW226372   0.443  13.665   4.683
74847SOL     OW26373   4.481   1.713  13.838
74847SOL    HW126374   4.539   1.661  13.783
74847SOL    HW226375   4.416   1.651  13.871
74848SOL     OW26376   7.583  13.317  12.910
74848SOL    HW126377   7.661  13.367  12.930
74848SOL    HW226378   7.560  13.273  12.992
74849SOL     OW26379   5.551   5.047   9.616
74849SOL    HW126380   5.517   5.128   9.577
74849SOL    HW226381   5.612   5.012   9.552
74850SOL     OW26382  11.299   3.463   2.909
74850SOL    HW126383  11.300   3.372   2.939
74850SOL    HW226384  11.391   3.484   2.893
74851SOL     OW26385   6.545   7.619  13.572
74851SOL    HW126386   6.517   7.650  13.658
74851SOL    HW226387   6.520   7.527  13.570
74852SOL     OW26388   3.732   5.395   6.420
74852SOL    HW126389   3.680   5.324   6.458
74852SOL    HW226390   3.813   5.353   6.391
74853SOL     OW26391   3.993   4.106  14.090
74853SOL    HW126392   3.984   4.020  14.048
74853SOL    HW226393   4.085   4.108  14.118
74854SOL     OW26394   2.664  12.642   7.557
74854SOL    HW126395   2.631  12.725   7.590
74854SOL    HW226396   2.692  12.594   7.635
74855SOL     OW26397   3.901   4.876  14.688
74855SOL    HW126398   3.878   4.968  14.699
74855SOL    HW226399   3.893   4.839  14.775
74856SOL     OW26400   8.740   9.556   1.363
74856SOL    HW126401   8.777   9.544   1.450
74856SOL    HW226402   8.808   9.522   1.304
74857SOL     OW26403   1.390   7.196   9.537
74857SOL    HW126404   1.347   7.207   9.453
74857SOL    HW226405   1.481   7.177   9.515
74858SOL     OW26406   4.793  13.854   5.954
74858SOL    HW126407   4.767  13.946   5.942
74858SOL    HW226408   4.769  13.834   6.045
74859SOL     OW26409   9.492   5.794   0.753
74859SOL    HW126410   9.489   5.887   0.778
74859SOL    HW226411   9.535   5.751   0.827
74860SOL     OW26412  12.825   7.658   4.388
74860SOL    HW126413  12.796   7.602   4.315
74860SOL    HW226414  12.920   7.663   4.377
74861SOL     OW26415   0.415  13.499   0.059
74861SOL    HW126416   0.350  13.558   0.022
74861SOL    HW226417   0.414  13.422   0.001
74862SOL     OW26418  11.428   2.244  14.085
74862SOL    HW126419  11.444   2.238  14.179
74862SOL    HW226420  11.447   2.156  14.052
74863SOL     OW26421   3.376   1.509  12.489
74863SOL    HW126422   3.341   1.439  12.544
74863SOL    HW226423   3.460   1.475  12.458
74864SOL     OW26424  14.789   0.222   2.939
74864SOL    HW126425  14.823   0.134   2.953
74864SOL    HW226426  14.709   0.226   2.991
74865SOL     OW26427  10.414   5.030   6.775
74865SOL    HW126428  10.501   5.047   6.811
74865SOL    HW226429  10.355   5.082   6.830
74866SOL     OW26430  14.757   4.329   9.535
74866SOL    HW126431  14.850   4.346   9.520
74866SOL    HW226432  14.718   4.416   9.542
74867SOL     OW26433   4.061  13.176  12.680
74867SOL    HW126434   3.968  13.154  12.675
74867SOL    HW226435   4.106  13.104  12.634
74868SOL     OW26436  10.386  12.607  10.612
74868SOL    HW126437  10.324  12.545  10.573
74868SOL    HW226438  10.384  12.683  10.555
74869SOL     OW26439   1.019  10.928  10.912
74869SOL    HW126440   1.072  11.000  10.880
74869SOL    HW226441   0.987  10.884  10.833
74870SOL     OW26442   3.997   2.399   0.214
74870SOL    HW126443   3.968   2.480   0.174
74870SOL    HW226444   3.918   2.345   0.220
74871SOL     OW26445  11.985  11.516  11.308
74871SOL    HW126446  11.932  11.436  11.302
74871SOL    HW226447  12.075  11.485  11.295
74872SOL     OW26448  11.641   0.418   4.750
74872SOL    HW126449  11.644   0.324   4.732
74872SOL    HW226450  11.730   0.439   4.779
74873SOL     OW26451  10.637  11.717  11.162
74873SOL    HW126452  10.691  11.645  11.130
74873SOL    HW226453  10.560  11.675  11.201
74874SOL     OW26454   5.624  12.121   1.699
74874SOL    HW126455   5.582  12.206   1.685
74874SOL    HW226456   5.715  12.135   1.672
74875SOL     OW26457   7.296   6.767   4.701
74875SOL    HW126458   7.372   6.709   4.696
74875SOL    HW226459   7.333   6.854   4.718
74876SOL     OW26460  12.197   2.786  12.392
74876SOL    HW126461  12.284   2.789  12.353
74876SOL    HW226462  12.183   2.693  12.411
74877SOL     OW26463  11.745  13.009   3.794
74877SOL    HW126464  11.657  13.001   3.830
74877SOL    HW226465  11.733  12.997   3.700
74878SOL     OW26466   7.184   0.112   4.053
74878SOL    HW126467   7.100   0.068   4.040
74878SOL    HW226468   7.233   0.095   3.972
74879SOL     OW26469  11.708   5.340   2.849
74879SOL    HW126470  11.671   5.253   2.863
74879SOL    HW226471  11.796   5.323   2.815
74880SOL     OW26472  10.965  10.422   6.410
74880SOL    HW126473  11.029  10.391   6.345
74880SOL    HW226474  11.016  10.434   6.490
74881SOL     OW26475  11.090  13.932   6.149
74881SOL    HW126476  11.057  13.870   6.214
74881SOL    HW226477  11.011  13.970   6.110
74882SOL     OW26478   9.616   5.915   1.584
74882SOL    HW126479   9.558   5.914   1.507
74882SOL    HW226480   9.636   5.823   1.601
74883SOL     OW26481   8.712  11.236   3.488
74883SOL    HW126482   8.744  11.205   3.403
74883SOL    HW226483   8.789  11.271   3.532
74884SOL     OW26484   3.233  14.437  10.807
74884SOL    HW126485   3.311  14.381  10.808
74884SOL    HW226486   3.199  14.429  10.718
74885SOL     OW26487   3.773  14.569   9.917
74885SOL    HW126488   3.788  14.592  10.008
74885SOL    HW226489   3.834  14.624   9.868
74886SOL     OW26490  11.402  12.087   0.558
74886SOL    HW126491  11.478  12.146   0.561
74886SOL    HW226492  11.440  12.000   0.547
74887SOL     OW26493  13.240   8.402   3.412
74887SOL    HW126494  13.278   8.456   3.481
74887SOL    HW226495  13.161   8.365   3.451
74888SOL     OW26496   4.649   6.595   3.876
74888SOL    HW126497   4.600   6.647   3.940
74888SOL    HW226498   4.599   6.601   3.796
74889SOL     OW26499  13.956   9.683   5.010
74889SOL    HW126500  14.008   9.703   5.087
74889SOL    HW226501  14.008   9.619   4.962
74890SOL     OW26502  10.105   1.621  14.701
74890SOL    HW126503  10.188   1.574  14.694
74890SOL    HW226504  10.110   1.689  14.634
74891SOL     OW26505   4.436   5.644  10.292
74891SOL    HW126506   4.419   5.553  10.316
74891SOL    HW226507   4.457   5.640  10.198
74892SOL     OW26508   1.952   4.264   7.897
74892SOL    HW126509   2.047   4.261   7.892
74892SOL    HW226510   1.925   4.172   7.899
74893SOL     OW26511  11.452  12.173  10.916
74893SOL    HW126512  11.391  12.247  10.908
74893SOL    HW226513  11.395  12.097  10.930
74894SOL     OW26514   1.609   1.132   5.956
74894SOL    HW126515   1.658   1.206   5.919
74894SOL    HW226516   1.517   1.157   5.946
74895SOL     OW26517   6.590   7.955   7.347
74895SOL    HW126518   6.607   7.877   7.400
74895SOL    HW226519   6.496   7.950   7.327
74896SOL     OW26520   9.988   6.608  13.839
74896SOL    HW126521   9.962   6.689  13.885
74896SOL    HW226522  10.035   6.639  13.762
74897SOL     OW26523   3.155   2.775  13.176
74897SOL    HW126524   3.156   2.852  13.120
74897SOL    HW226525   3.218   2.715  13.136
74898SOL     OW26526   5.527   5.987  12.677
74898SOL    HW126527   5.581   5.923  12.723
74898SOL    HW226528   5.541   6.068  12.726
74899SOL     OW26529   6.652   0.673   0.633
74899SOL    HW126530   6.699   0.667   0.550
74899SOL    HW226531   6.584   0.606   0.627
74900SOL     OW26532  13.312  14.058   4.248
74900SOL    HW126533  13.402  14.056   4.217
74900SOL    HW226534  13.281  13.968   4.236
74901SOL     OW26535   6.535  10.725   0.965
74901SOL    HW126536   6.538  10.784   1.040
74901SOL    HW226537   6.459  10.669   0.982
74902SOL     OW26538   3.293   2.213   5.586
74902SOL    HW126539   3.230   2.239   5.518
74902SOL    HW226540   3.304   2.118   5.573
74903SOL     OW26541  12.962  13.305   7.800
74903SOL    HW126542  12.942  13.387   7.846
74903SOL    HW226543  13.056  13.295   7.808
74904SOL     OW26544   3.815   4.779   5.502
74904SOL    HW126545   3.788   4.871   5.503
74904SOL    HW226546   3.734   4.730   5.514
74905SOL     OW26547   1.585  14.239  13.178
74905SOL    HW126548   1.571  14.325  13.139
74905SOL    HW226549   1.510  14.187  13.148
74906SOL     OW26550  14.707   4.382   2.059
74906SOL    HW126551  14.773   4.317   2.035
74906SOL    HW226552  14.753   4.441   2.120
74907SOL     OW26553  13.450  12.693   4.328
74907SOL    HW126554  13.511  12.663   4.396
74907SOL    HW226555  13.397  12.760   4.372
74908SOL     OW26556   3.854   3.773   6.261
74908SOL    HW126557   3.890   3.796   6.176
74908SOL    HW226558   3.780   3.833   6.273
74909SOL     OW26559   9.580   3.187   9.203
74909SOL    HW126560   9.612   3.236   9.278
74909SOL    HW226561   9.633   3.107   9.201
74910SOL     OW26562   0.792  12.472   6.607
74910SOL    HW126563   0.800  12.398   6.547
74910SOL    HW226564   0.757  12.434   6.688
74911SOL     OW26565   4.158   0.483   8.742
74911SOL    HW126566   4.107   0.528   8.675
74911SOL    HW226567   4.249   0.505   8.723
74912SOL     OW26568   2.498  11.456   7.668
74912SOL    HW126569   2.569  11.495   7.617
74912SOL    HW226570   2.542  11.415   7.742
74913SOL     OW26571   0.507  12.141   7.038
74913SOL    HW126572   0.434  12.081   7.023
74913SOL    HW226573   0.484  12.220   6.988
74914SOL     OW26574  11.069   6.155   7.422
74914SOL    HW126575  10.987   6.201   7.405
74914SOL    HW226576  11.043   6.078   7.472
74915SOL     OW26577   6.070   3.556   6.031
74915SOL    HW126578   6.009   3.554   6.105
74915SOL    HW226579   6.122   3.635   6.045
74916SOL     OW26580  10.786   6.857  14.317
74916SOL    HW126581  10.863   6.912  14.305
74916SOL    HW226582  10.803   6.809  14.398
74917SOL     OW26583   9.630  10.622  14.262
74917SOL    HW126584   9.633  10.581  14.175
74917SOL    HW226585   9.691  10.695  14.256
74918SOL     OW26586   0.181   3.065  10.386
74918SOL    HW126587   0.208   3.053  10.294
74918SOL    HW226588   0.095   3.106  10.380
74919SOL     OW26589   9.475   5.937   7.954
74919SOL    HW126590   9.446   6.027   7.945
74919SOL    HW226591   9.484   5.924   8.049
74920SOL     OW26592   5.526   8.582  13.703
74920SOL    HW126593   5.469   8.561  13.629
74920SOL    HW226594   5.493   8.667  13.735
74921SOL     OW26595   0.230   9.586   7.950
74921SOL    HW126596   0.134   9.586   7.953
74921SOL    HW226597   0.251   9.518   7.886
74922SOL     OW26598   1.705   3.871  13.124
74922SOL    HW126599   1.749   3.934  13.067
74922SOL    HW226600   1.687   3.796  13.068
74923SOL     OW26601  13.819   5.084   4.899
74923SOL    HW126602  13.828   5.175   4.870
74923SOL    HW226603  13.904   5.063   4.939
74924SOL     OW26604  13.727   9.237   5.712
74924SOL    HW126605  13.785   9.307   5.680
74924SOL    HW226606  13.755   9.223   5.803
74925SOL     OW26607   9.655  13.846   3.209
74925SOL    HW126608   9.623  13.856   3.298
74925SOL    HW226609   9.690  13.933   3.186
74926SOL     OW26610   9.927   1.166  12.799
74926SOL    HW126611   9.862   1.127  12.741
74926SOL    HW226612  10.004   1.109  12.791
74927SOL     OW26613   8.245   4.088  11.859
74927SOL    HW126614   8.322   4.052  11.904
74927SOL    HW226615   8.212   4.014  11.807
74928SOL     OW26616   0.340   3.374   1.148
74928SOL    HW126617   0.245   3.376   1.137
74928SOL    HW226618   0.370   3.457   1.111
74929SOL     OW26619   4.586  14.271   6.433
74929SOL    HW126620   4.528  14.344   6.454
74929SOL    HW226621   4.671  14.298   6.468
74930SOL     OW26622   0.538  14.557   9.213
74930SOL    HW126623   0.457  14.516   9.241
74930SOL    HW226624   0.600  14.484   9.204
74931SOL     OW26625   9.710   9.944  12.431
74931SOL    HW126626   9.652   9.882  12.473
74931SOL    HW226627   9.702   9.924  12.337
74932SOL     OW26628   6.180   5.874   5.073
74932SOL    HW126629   6.100   5.829   5.098
74932SOL    HW226630   6.223   5.816   5.010
74933SOL     OW26631   5.066   6.448   0.469
74933SOL    HW126632   4.985   6.425   0.426
74933SOL    HW226633   5.066   6.397   0.550
74934SOL     OW26634  13.665   9.885   5.712
74934SOL    HW126635  13.683   9.917   5.800
74934SOL    HW226636  13.576   9.917   5.693
74935SOL     OW26637  10.944  13.034   8.108
74935SOL    HW126638  10.938  13.103   8.042
74935SOL    HW226639  11.017  12.979   8.079
74936SOL     OW26640   5.600   7.462   1.659
74936SOL    HW126641   5.582   7.373   1.689
74936SOL    HW226642   5.527   7.514   1.692
74937SOL     OW26643   6.195  10.495   9.219
74937SOL    HW126644   6.160  10.406   9.220
74937SOL    HW226645   6.124  10.550   9.251
74938SOL     OW26646   3.246   5.301   7.133
74938SOL    HW126647   3.274   5.383   7.091
74938SOL    HW226648   3.160   5.321   7.169
74939SOL     OW26649   0.300  11.042   7.514
74939SOL    HW126650   0.264  10.982   7.580
74939SOL    HW226651   0.364  11.094   7.562
74940SOL     OW26652   8.563   8.093   6.670
74940SOL    HW126653   8.528   8.074   6.583
74940SOL    HW226654   8.613   8.015   6.694
74941SOL     OW26655   9.365  13.184   4.630
74941SOL    HW126656   9.354  13.090   4.617
74941SOL    HW226657   9.329  13.224   4.550
74942SOL     OW26658  13.916  13.343  10.446
74942SOL    HW126659  13.981  13.316  10.511
74942SOL    HW226660  13.849  13.275  10.449
74943SOL     OW26661  10.024   4.012   7.107
74943SOL    HW126662   9.967   3.935   7.113
74943SOL    HW226663   9.981   4.068   7.043
74944SOL     OW26664   9.554   6.561   0.030
74944SOL    HW126665   9.579   6.474   0.061
74944SOL    HW226666   9.485   6.544  14.838
74945SOL     OW26667  14.803   9.700   0.587
74945SOL    HW126668  14.731   9.712   0.526
74945SOL    HW226669   0.003   9.668   0.533
74946SOL     OW26670   9.927   6.707   5.868
74946SOL    HW126671   9.933   6.726   5.962
74946SOL    HW226672   9.848   6.752   5.840
74947SOL     OW26673   1.941   0.537   7.819
74947SOL    HW126674   2.015   0.562   7.764
74947SOL    HW226675   1.896   0.469   7.769
74948SOL     OW26676   0.834  12.548   0.546
74948SOL    HW126677   0.800  12.511   0.464
74948SOL    HW226678   0.760  12.545   0.606
74949SOL     OW26679   4.031  13.665   8.668
74949SOL    HW126680   4.068  13.749   8.695
74949SOL    HW226681   4.078  13.601   8.721
74950SOL     OW26682   7.972   6.293   6.606
74950SOL    HW126683   7.934   6.236   6.673
74950SOL    HW226684   7.933   6.262   6.524
74951SOL     OW26685   1.949  14.707   5.610
74951SOL    HW126686   1.889  14.652   5.561
74951SOL    HW226687   1.915  14.796   5.598
74952SOL     OW26688   2.053   4.174   5.727
74952SOL    HW126689   2.133   4.185   5.780
74952SOL    HW226690   2.001   4.110   5.775
74953SOL     OW26691   6.925   0.309   8.870
74953SOL    HW126692   6.844   0.274   8.908
74953SOL    HW226693   6.993   0.248   8.898
74954SOL     OW26694   1.666   2.238   3.213
74954SOL    HW126695   1.611   2.203   3.283
74954SOL    HW226696   1.632   2.197   3.133
74955SOL     OW26697   9.114  13.380   5.325
74955SOL    HW126698   9.106  13.417   5.238
74955SOL    HW226699   9.027  13.344   5.344
74956SOL     OW26700   5.707   2.421   0.317
74956SOL    HW126701   5.669   2.441   0.402
74956SOL    HW226702   5.649   2.466   0.255
74957SOL     OW26703   8.997   4.140   8.091
74957SOL    HW126704   9.085   4.156   8.057
74957SOL    HW226705   8.940   4.141   8.014
74958SOL     OW26706   4.277   9.613   1.567
74958SOL    HW126707   4.199   9.641   1.613
74958SOL    HW226708   4.334   9.578   1.635
74959SOL     OW26709   2.615  13.386   1.233
74959SOL    HW126710   2.610  13.347   1.320
74959SOL    HW226711   2.693  13.442   1.236
74960SOL     OW26712   6.826   3.250   5.512
74960SOL    HW126713   6.780   3.228   5.593
74960SOL    HW226714   6.765   3.305   5.464
74961SOL     OW26715   1.202  12.831  14.762
74961SOL    HW126716   1.176  12.922  14.778
74961SOL    HW226717   1.296  12.830  14.777
74962SOL     OW26718   8.239   5.010   3.522
74962SOL    HW126719   8.240   4.976   3.432
74962SOL    HW226720   8.235   5.105   3.511
74963SOL     OW26721   9.894  12.752   0.477
74963SOL    HW126722   9.928  12.706   0.400
74963SOL    HW226723   9.923  12.842   0.466
74964SOL     OW26724   8.960  11.976   2.768
74964SOL    HW126725   8.992  11.969   2.678
74964SOL    HW226726   8.996  12.058   2.800
74965SOL     OW26727   7.164   4.985   7.091
74965SOL    HW126728   7.118   4.905   7.066
74965SOL    HW226729   7.246   4.954   7.131
74966SOL     OW26730   0.850   5.335   7.312
74966SOL    HW126731   0.938   5.342   7.348
74966SOL    HW226732   0.863   5.333   7.217
74967SOL     OW26733   1.555   2.709   7.911
74967SOL    HW126734   1.626   2.703   7.848
74967SOL    HW226735   1.596   2.692   7.996
74968SOL     OW26736   3.393   3.736   3.727
74968SOL    HW126737   3.378   3.822   3.686
74968SOL    HW226738   3.316   3.684   3.703
74969SOL     OW26739   8.105   8.677   5.265
74969SOL    HW126740   8.124   8.585   5.284
74969SOL    HW226741   8.168   8.727   5.317
74970SOL     OW26742  13.396   8.637   5.258
74970SOL    HW126743  13.477   8.585   5.259
74970SOL    HW226744  13.327   8.573   5.239
74971SOL     OW26745   2.455   1.210   5.137
74971SOL    HW126746   2.506   1.286   5.108
74971SOL    HW226747   2.382   1.248   5.186
74972SOL     OW26748  10.632   4.330  11.779
74972SOL    HW126749  10.680   4.294  11.854
74972SOL    HW226750  10.685   4.307  11.703
74973SOL     OW26751   1.775  11.417  12.742
74973SOL    HW126752   1.811  11.335  12.707
74973SOL    HW226753   1.693  11.392  12.784
74974SOL     OW26754   7.447   1.499   5.489
74974SOL    HW126755   7.473   1.500   5.397
74974SOL    HW226756   7.455   1.590   5.517
74975SOL     OW26757   5.353  10.878   3.402
74975SOL    HW126758   5.392  10.850   3.485
74975SOL    HW226759   5.408  10.837   3.335
74976SOL     OW26760  10.338  12.272   0.939
74976SOL    HW126761  10.326  12.219   0.860
74976SOL    HW226762  10.328  12.362   0.908
74977SOL     OW26763  10.958  11.313   7.379
74977SOL    HW126764  11.018  11.255   7.332
74977SOL    HW226765  10.931  11.262   7.456
74978SOL     OW26766  14.275   8.404   7.674
74978SOL    HW126767  14.290   8.433   7.584
74978SOL    HW226768  14.261   8.309   7.666
74979SOL     OW26769  10.403   0.297   3.179
74979SOL    HW126770  10.480   0.298   3.235
74979SOL    HW226771  10.434   0.331   3.095
74980SOL     OW26772  14.024   1.939   5.016
74980SOL    HW126773  14.075   1.999   5.069
74980SOL    HW226774  13.997   1.991   4.940
74981SOL     OW26775   0.545  14.399   3.932
74981SOL    HW126776   0.588  14.370   4.012
74981SOL    HW226777   0.453  14.373   3.943
74982SOL     OW26778  11.085   7.020  11.432
74982SOL    HW126779  11.171   7.002  11.470
74982SOL    HW226780  11.087   6.978  11.346
74983SOL     OW26781  10.668   8.153   4.132
74983SOL    HW126782  10.702   8.069   4.103
74983SOL    HW226783  10.665   8.146   4.228
74984SOL     OW26784  13.304   4.083   9.376
74984SOL    HW126785  13.386   4.061   9.421
74984SOL    HW226786  13.331   4.106   9.287
74985SOL     OW26787   7.372  13.773   0.195
74985SOL    HW126788   7.458  13.776   0.152
74985SOL    HW226789   7.323  13.845   0.155
74986SOL     OW26790  10.327   7.655  12.325
74986SOL    HW126791  10.385   7.580  12.319
74986SOL    HW226792  10.261   7.630  12.390
74987SOL     OW26793  11.280   2.564   1.843
74987SOL    HW126794  11.323   2.590   1.924
74987SOL    HW226795  11.340   2.500   1.804
74988SOL     OW26796   4.910   4.156   6.198
74988SOL    HW126797   4.868   4.241   6.198
74988SOL    HW226798   4.966   4.157   6.120
74989SOL     OW26799   9.011   3.447  14.373
74989SOL    HW126800   9.060   3.374  14.411
74989SOL    HW226801   8.940   3.463  14.435
74990SOL     OW26802  12.689   5.631   4.145
74990SOL    HW126803  12.646   5.651   4.062
74990SOL    HW226804  12.767   5.687   4.145
74991SOL     OW26805   7.381  10.016   7.439
74991SOL    HW126806   7.330   9.948   7.482
74991SOL    HW226807   7.353  10.013   7.348
74992SOL     OW26808   0.517  13.752  12.741
74992SOL    HW126809   0.584  13.713  12.685
74992SOL    HW226810   0.525  13.846  12.725
74993SOL     OW26811  10.119  11.565  10.193
74993SOL    HW126812  10.192  11.604  10.145
74993SOL    HW226813  10.042  11.612  10.162
74994SOL     OW26814  14.280  10.549   4.680
74994SOL    HW126815  14.235  10.556   4.764
74994SOL    HW226816  14.229  10.604   4.621
74995SOL     OW26817   6.419  12.955  10.184
74995SOL    HW126818   6.504  12.967  10.141
74995SOL    HW226819   6.435  12.979  10.275
74996SOL     OW26820   0.205   7.569  11.734
74996SOL    HW126821   0.114   7.591  11.754
74996SOL    HW226822   0.206   7.553  11.640
74997SOL     OW26823   1.544  10.822   2.933
74997SOL    HW126824   1.600  10.779   2.997
74997SOL    HW226825   1.475  10.864   2.985
74998SOL     OW26826   8.135   3.635  14.580
74998SOL    HW126827   8.168   3.693  14.648
74998SOL    HW226828   8.041   3.629  14.596
74999SOL     OW26829   5.455  14.748   0.269
74999SOL    HW126830   5.379  14.804   0.254
74999SOL    HW226831   5.469  14.752   0.364
75000SOL     OW26832   5.070  12.148   8.257
75000SOL    HW126833   5.079  12.243   8.251
75000SOL    HW226834   5.103  12.116   8.173
75001SOL     OW26835   9.019   8.340   8.285
75001SOL    HW126836   8.986   8.350   8.196
75001SOL    HW226837   9.088   8.407   8.292
75002SOL     OW26838  10.860   9.845   9.614
75002SOL    HW126839  10.769   9.816   9.619
75002SOL    HW226840  10.861   9.929   9.659
75003SOL     OW26841   9.947   8.346  13.136
75003SOL    HW126842   9.962   8.313  13.224
75003SOL    HW226843   9.925   8.439  13.148
75004SOL     OW26844  11.898   9.086   9.418
75004SOL    HW126845  11.848   9.044   9.349
75004SOL    HW226846  11.845   9.160   9.446
75005SOL     OW26847   7.187   1.577   8.021
75005SOL    HW126848   7.109   1.631   8.023
75005SOL    HW226849   7.235   1.606   7.944
75006SOL     OW26850   6.727  12.440  14.520
75006SOL    HW126851   6.771  12.522  14.495
75006SOL    HW226852   6.780  12.372  14.479
75007SOL     OW26853   7.745   7.293   1.437
75007SOL    HW126854   7.690   7.269   1.512
75007SOL    HW226855   7.826   7.243   1.450
75008SOL     OW26856   3.052  12.568  11.328
75008SOL    HW126857   3.087  12.634  11.268
75008SOL    HW226858   2.959  12.589  11.336
75009SOL     OW26859   4.074   0.969   0.148
75009SOL    HW126860   4.003   0.986   0.086
75009SOL    HW226861   4.122   0.896   0.110
75010SOL     OW26862   2.312  14.351   6.904
75010SOL    HW126863   2.348  14.428   6.950
75010SOL    HW226864   2.315  14.281   6.970
75011SOL     OW26865   6.041  10.086   9.666
75011SOL    HW126866   6.041  10.088   9.570
75011SOL    HW226867   6.086  10.166   9.691
75012SOL     OW26868  12.867   4.402  10.837
75012SOL    HW126869  12.814   4.325  10.856
75012SOL    HW226870  12.862   4.455  10.916
75013SOL     OW26871  11.069   1.920   7.864
75013SOL    HW126872  11.056   1.826   7.876
75013SOL    HW226873  11.117   1.947   7.943
75014SOL     OW26874   8.470   8.863   7.796
75014SOL    HW126875   8.422   8.782   7.778
75014SOL    HW226876   8.537   8.838   7.859
75015SOL     OW26877  10.765   4.764   9.495
75015SOL    HW126878  10.698   4.767   9.563
75015SOL    HW226879  10.839   4.813   9.532
75016SOL     OW26880   9.389   7.328  13.247
75016SOL    HW126881   9.443   7.355  13.322
75016SOL    HW226882   9.447   7.339  13.171
75017SOL     OW26883   5.143   7.014  14.697
75017SOL    HW126884   5.049   7.027  14.709
75017SOL    HW226885   5.160   7.044  14.608
75018SOL     OW26886   4.849  12.637   6.778
75018SOL    HW126887   4.766  12.675   6.748
75018SOL    HW226888   4.840  12.544   6.762
75019SOL     OW26889  12.635   3.235   3.877
75019SOL    HW126890  12.579   3.158   3.887
75019SOL    HW226891  12.695   3.212   3.807
75020SOL     OW26892   7.203   4.632  14.076
75020SOL    HW126893   7.145   4.557  14.058
75020SOL    HW226894   7.165   4.704  14.025
75021SOL     OW26895   4.266   0.427   7.368
75021SOL    HW126896   4.204   0.363   7.401
75021SOL    HW226897   4.262   0.500   7.431
75022SOL     OW26898   2.196  10.094   6.446
75022SOL    HW126899   2.117  10.070   6.397
75022SOL    HW226900   2.236  10.011   6.470
75023SOL     OW26901   5.416   8.177  12.637
75023SOL    HW126902   5.493   8.210  12.590
75023SOL    HW226903   5.422   8.082  12.630
75024SOL     OW26904   6.609   8.739   2.993
75024SOL    HW126905   6.516   8.717   2.995
75024SOL    HW226906   6.626   8.781   3.077
75025SOL     OW26907   0.973   9.261   4.512
75025SOL    HW126908   0.978   9.356   4.525
75025SOL    HW226909   0.880   9.242   4.505
75026SOL     OW26910   6.632   5.667  10.833
75026SOL    HW126911   6.583   5.687  10.912
75026SOL    HW226912   6.661   5.752  10.800
75027SOL     OW26913  10.693  12.064   5.941
75027SOL    HW126914  10.646  12.080   6.022
75027SOL    HW226915  10.719  12.151   5.910
75028SOL     OW26916  12.222   8.026  13.431
75028SOL    HW126917  12.313   8.010  13.456
75028SOL    HW226918  12.183   8.065  13.509
75029SOL     OW26919   0.832  13.889  10.357
75029SOL    HW126920   0.927  13.900  10.369
75029SOL    HW226921   0.794  13.968  10.397
75030SOL     OW26922   1.953  14.252   6.508
75030SOL    HW126923   1.905  14.335   6.520
75030SOL    HW226924   1.919  14.216   6.426
75031SOL     OW26925  11.360   8.864   3.744
75031SOL    HW126926  11.314   8.809   3.680
75031SOL    HW226927  11.447   8.877   3.705
75032SOL     OW26928   9.136   1.007   5.944
75032SOL    HW126929   9.059   1.064   5.947
75032SOL    HW226930   9.200   1.049   6.001
75033SOL     OW26931  10.682  14.114   3.329
75033SOL    HW126932  10.774  14.090   3.317
75033SOL    HW226933  10.682  14.210   3.321
75034SOL     OW26934   9.297  12.364   6.084
75034SOL    HW126935   9.284  12.407   6.000
75034SOL    HW226936   9.336  12.432   6.140
75035SOL     OW26937  13.066  10.220   7.382
75035SOL    HW126938  13.001  10.220   7.311
75035SOL    HW226939  13.061  10.308   7.419
75036SOL     OW26940  13.307   4.458  11.291
75036SOL    HW126941  13.232   4.431  11.238
75036SOL    HW226942  13.269   4.507  11.364
75037SOL     OW26943   3.247   2.310   7.944
75037SOL    HW126944   3.310   2.299   7.872
75037SOL    HW226945   3.169   2.345   7.902
75038SOL     OW26946   1.204   6.411  12.448
75038SOL    HW126947   1.292   6.421  12.482
75038SOL    HW226948   1.151   6.389  12.524
75039SOL     OW26949   1.708   1.896  10.600
75039SOL    HW126950   1.632   1.868  10.651
75039SOL    HW226951   1.775   1.914  10.665
75040SOL     OW26952  10.053   1.605   2.233
75040SOL    HW126953   9.972   1.617   2.183
75040SOL    HW226954  10.117   1.575   2.169
75041SOL     OW26955   2.439   5.249   2.828
75041SOL    HW126956   2.513   5.273   2.772
75041SOL    HW226957   2.464   5.280   2.915
75042SOL     OW26958  13.108   7.163   1.503
75042SOL    HW126959  13.061   7.177   1.421
75042SOL    HW226960  13.071   7.228   1.563
75043SOL     OW26961   0.523   2.790  14.156
75043SOL    HW126962   0.486   2.800  14.069
75043SOL    HW226963   0.594   2.726  14.145
75044SOL     OW26964  12.106  10.617  11.394
75044SOL    HW126965  12.053  10.653  11.323
75044SOL    HW226966  12.195  10.611  11.359
75045SOL     OW26967  11.703   4.465  11.364
75045SOL    HW126968  11.620   4.479  11.318
75045SOL    HW226969  11.737   4.382  11.329
75046SOL     OW26970  13.000   0.500  13.912
75046SOL    HW126971  13.044   0.465  13.989
75046SOL    HW226972  13.070   0.523  13.852
75047SOL     OW26973   8.096  10.397   7.377
75047SOL    HW126974   8.164  10.463   7.360
75047SOL    HW226975   8.144  10.315   7.388
75048SOL     OW26976   7.493  10.482   5.232
75048SOL    HW126977   7.501  10.396   5.190
75048SOL    HW226978   7.430  10.467   5.303
75049SOL     OW26979  11.611   2.018   6.158
75049SOL    HW126980  11.679   2.078   6.190
75049SOL    HW226981  11.655   1.964   6.093
75050SOL     OW26982   4.000   6.283   1.008
75050SOL    HW126983   3.976   6.374   0.991
75050SOL    HW226984   3.970   6.235   0.931
75051SOL     OW26985   9.953  13.206   5.124
75051SOL    HW126986   9.953  13.259   5.045
75051SOL    HW226987   9.976  13.118   5.095
75052SOL     OW26988   8.140   1.422   5.377
75052SOL    HW126989   8.183   1.409   5.292
75052SOL    HW226990   8.169   1.349   5.430
75053SOL     OW26991  13.426   1.256   5.928
75053SOL    HW126992  13.484   1.251   6.004
75053SOL    HW226993  13.384   1.170   5.924
75054SOL     OW26994   0.145  12.086  14.095
75054SOL    HW126995   0.071  12.146  14.100
75054SOL    HW226996   0.197  12.119  14.021
75055SOL     OW26997  14.336  11.061   1.775
75055SOL    HW126998  14.258  11.005   1.776
75055SOL    HW226999  14.348  11.086   1.867
75056SOL     OW27000   9.879   3.856   2.541
75056SOL    HW127001   9.958   3.865   2.595
75056SOL    HW227002   9.858   3.946   2.515
75057SOL     OW27003   2.023   4.110   6.199
75057SOL    HW127004   1.967   4.066   6.136
75057SOL    HW227005   2.090   4.046   6.222
75058SOL     OW27006   5.030  12.821  10.217
75058SOL    HW127007   5.047  12.728  10.231
75058SOL    HW227008   5.071  12.840  10.133
75059SOL     OW27009  10.976  13.585  11.210
75059SOL    HW127010  11.000  13.676  11.190
75059SOL    HW227011  11.023  13.565  11.290
75060SOL     OW27012   5.706   8.237   3.144
75060SOL    HW127013   5.622   8.252   3.100
75060SOL    HW227014   5.749   8.170   3.091
75061SOL     OW27015   1.298   3.152  10.903
75061SOL    HW127016   1.376   3.180  10.854
75061SOL    HW227017   1.314   3.060  10.924
75062SOL     OW27018   4.105   4.439   8.069
75062SOL    HW127019   4.145   4.494   8.001
75062SOL    HW227020   4.111   4.492   8.149
75063SOL     OW27021   8.283  12.597  12.390
75063SOL    HW127022   8.252  12.510  12.415
75063SOL    HW227023   8.203  12.647  12.376
75064SOL     OW27024   2.232   0.090  10.979
75064SOL    HW127025   2.209   0.178  11.008
75064SOL    HW227026   2.217   0.091  10.885
75065SOL     OW27027   4.139  11.070   7.216
75065SOL    HW127028   4.152  11.159   7.246
75065SOL    HW227029   4.081  11.031   7.281
75066SOL     OW27030   9.798   0.603   7.005
75066SOL    HW127031   9.713   0.578   7.040
75066SOL    HW227032   9.786   0.693   6.973
75067SOL     OW27033   5.290  14.555   2.783
75067SOL    HW127034   5.243  14.587   2.860
75067SOL    HW227035   5.228  14.566   2.711
75068SOL     OW27036   1.747   6.418   4.285
75068SOL    HW127037   1.709   6.333   4.305
75068SOL    HW227038   1.678   6.481   4.307
75069SOL     OW27039  13.477   9.302   9.002
75069SOL    HW127040  13.558   9.341   8.971
75069SOL    HW227041  13.488   9.295   9.097
75070SOL     OW27042   7.800   4.210   4.699
75070SOL    HW127043   7.886   4.190   4.662
75070SOL    HW227044   7.819   4.268   4.773
75071SOL     OW27045   6.563   0.171  11.467
75071SOL    HW127046   6.617   0.095  11.446
75071SOL    HW227047   6.522   0.148  11.550
75072SOL     OW27048   7.868  12.230   5.419
75072SOL    HW127049   7.951  12.191   5.391
75072SOL    HW227050   7.808  12.157   5.429
75073SOL     OW27051   9.088   5.385   4.606
75073SOL    HW127052   9.023   5.330   4.650
75073SOL    HW227053   9.139   5.423   4.678
75074SOL     OW27054  10.116   3.368   3.876
75074SOL    HW127055  10.041   3.309   3.876
75074SOL    HW227056  10.176   3.330   3.812
75075SOL     OW27057  10.890  14.509   1.839
75075SOL    HW127058  10.875  14.416   1.856
75075SOL    HW227059  10.908  14.547   1.925
75076SOL     OW27060  12.676  14.096   2.765
75076SOL    HW127061  12.659  14.033   2.834
75076SOL    HW227062  12.731  14.049   2.702
75077SOL     OW27063   8.597   2.984   9.431
75077SOL    HW127064   8.662   3.052   9.448
75077SOL    HW227065   8.630   2.938   9.354
75078SOL     OW27066  12.005  10.391   3.080
75078SOL    HW127067  11.955  10.350   3.010
75078SOL    HW227068  12.042  10.318   3.129
75079SOL     OW27069   3.073  13.569  13.497
75079SOL    HW127070   3.101  13.626  13.426
75079SOL    HW227071   2.978  13.563  13.487
75080SOL     OW27072  10.226  11.766   4.318
75080SOL    HW127073  10.153  11.736   4.373
75080SOL    HW227074  10.232  11.700   4.249
75081SOL     OW27075  14.379   2.915   1.649
75081SOL    HW127076  14.333   2.837   1.681
75081SOL    HW227077  14.448   2.880   1.592
75082SOL     OW27078   7.627  13.672   8.748
75082SOL    HW127079   7.588  13.653   8.662
75082SOL    HW227080   7.553  13.698   8.802
75083SOL     OW27081   4.165   1.938   7.611
75083SOL    HW127082   4.212   1.856   7.629
75083SOL    HW227083   4.074   1.917   7.629
75084SOL     OW27084   5.914   2.764   7.640
75084SOL    HW127085   5.964   2.840   7.612
75084SOL    HW227086   5.851   2.749   7.570
75085SOL     OW27087   1.182  14.550   4.535
75085SOL    HW127088   1.161  14.643   4.527
75085SOL    HW227089   1.098  14.509   4.554
75086SOL     OW27090  14.024   5.995   2.583
75086SOL    HW127091  14.098   5.948   2.621
75086SOL    HW227092  13.947   5.948   2.614
75087SOL     OW27093  14.812   5.172   3.703
75087SOL    HW127094  14.731   5.224   3.702
75087SOL    HW227095  14.845   5.180   3.792
75088SOL     OW27096   5.498   2.955   4.902
75088SOL    HW127097   5.553   3.033   4.909
75088SOL    HW227098   5.412   2.985   4.933
75089SOL     OW27099   2.004   3.943   7.272
75089SOL    HW127100   1.959   3.908   7.350
75089SOL    HW227101   1.937   3.995   7.228
75090SOL     OW27102   4.421  13.453  12.761
75090SOL    HW127103   4.370  13.441  12.682
75090SOL    HW227104   4.429  13.548  12.770
75091SOL     OW27105   9.251   4.265  10.646
75091SOL    HW127106   9.167   4.220  10.648
75091SOL    HW227107   9.233   4.353  10.678
75092SOL     OW27108   5.687   4.909  13.412
75092SOL    HW127109   5.612   4.965  13.433
75092SOL    HW227110   5.745   4.917  13.488
75093SOL     OW27111  14.085   2.685   1.402
75093SOL    HW127112  14.110   2.693   1.494
75093SOL    HW227113  14.168   2.686   1.354
75094SOL     OW27114   2.969   5.002   1.376
75094SOL    HW127115   2.964   4.906   1.379
75094SOL    HW227116   3.063   5.020   1.374
75095SOL     OW27117  12.169   9.873   5.676
75095SOL    HW127118  12.125   9.853   5.758
75095SOL    HW227119  12.199   9.788   5.643
75096SOL     OW27120  14.364   1.576   8.156
75096SOL    HW127121  14.407   1.623   8.084
75096SOL    HW227122  14.364   1.485   8.127
75097SOL     OW27123   0.761   6.012  13.576
75097SOL    HW127124   0.834   6.072  13.593
75097SOL    HW227125   0.793   5.926  13.602
75098SOL     OW27126   3.587  13.387   7.140
75098SOL    HW127127   3.518  13.321   7.137
75098SOL    HW227128   3.647  13.362   7.070
75099SOL     OW27129   2.514  11.901   2.112
75099SOL    HW127130   2.457  11.976   2.130
75099SOL    HW227131   2.585  11.908   2.177
75100SOL     OW27132   9.304   9.306  13.320
75100SOL    HW127133   9.216   9.269  13.324
75100SOL    HW227134   9.300   9.372  13.251
75101SOL     OW27135   7.609   6.508   4.358
75101SOL    HW127136   7.618   6.413   4.366
75101SOL    HW227137   7.654   6.530   4.276
75102SOL     OW27138   4.954  12.936   5.897
75102SOL    HW127139   4.891  12.912   5.829
75102SOL    HW227140   5.032  12.883   5.878
75103SOL     OW27141   8.590   7.515   2.667
75103SOL    HW127142   8.654   7.484   2.603
75103SOL    HW227143   8.609   7.465   2.746
75104SOL     OW27144   0.430  10.219  12.777
75104SOL    HW127145   0.458  10.150  12.717
75104SOL    HW227146   0.415  10.296  12.721
75105SOL     OW27147   2.419  12.530   1.680
75105SOL    HW127148   2.399  12.439   1.661
75105SOL    HW227149   2.339  12.565   1.718
75106SOL     OW27150   8.106  11.413  12.607
75106SOL    HW127151   8.069  11.426  12.694
75106SOL    HW227152   8.030  11.395  12.551
75107SOL     OW27153  10.412  14.084   7.405
75107SOL    HW127154  10.482  14.069   7.468
75107SOL    HW227155  10.432  14.026   7.332
75108SOL     OW27156   8.618   2.942  12.703
75108SOL    HW127157   8.567   2.989  12.637
75108SOL    HW227158   8.584   2.974  12.786
75109SOL     OW27159   1.716   1.994   0.885
75109SOL    HW127160   1.658   2.064   0.916
75109SOL    HW227161   1.657   1.930   0.846
75110SOL     OW27162  10.017  14.721  11.516
75110SOL    HW127163   9.944  14.757  11.565
75110SOL    HW227164  10.095  14.756  11.559
75111SOL     OW27165  11.886  13.455  13.922
75111SOL    HW127166  11.852  13.446  14.011
75111SOL    HW227167  11.819  13.507  13.876
75112SOL     OW27168   2.322   5.392   7.301
75112SOL    HW127169   2.244   5.407   7.353
75112SOL    HW227170   2.392   5.436   7.348
75113SOL     OW27171   1.120   3.632   6.678
75113SOL    HW127172   1.200   3.677   6.707
75113SOL    HW227173   1.065   3.702   6.642
75114SOL     OW27174   4.571   3.801  12.008
75114SOL    HW127175   4.620   3.855  11.946
75114SOL    HW227176   4.595   3.711  11.986
75115SOL     OW27177  10.658   5.216  13.239
75115SOL    HW127178  10.623   5.130  13.213
75115SOL    HW227179  10.749   5.197  13.264
75116SOL     OW27180  14.079  10.302   2.099
75116SOL    HW127181  14.169  10.334   2.108
75116SOL    HW227182  14.068  10.290   2.004
75117SOL     OW27183   6.329  10.661  13.633
75117SOL    HW127184   6.329  10.570  13.665
75117SOL    HW227185   6.242  10.673  13.595
75118SOL     OW27186   1.583  10.367   0.322
75118SOL    HW127187   1.656  10.410   0.367
75118SOL    HW227188   1.507  10.384   0.377
75119SOL     OW27189  13.328   1.529   2.684
75119SOL    HW127190  13.261   1.586   2.647
75119SOL    HW227191  13.411   1.570   2.658
75120SOL     OW27192   0.470  10.464   1.221
75120SOL    HW127193   0.565  10.470   1.211
75120SOL    HW227194   0.437  10.456   1.131
75121SOL     OW27195   1.705   9.594  10.061
75121SOL    HW127196   1.728   9.512  10.017
75121SOL    HW227197   1.635   9.631  10.007
75122SOL     OW27198   0.483  14.265  13.568
75122SOL    HW127199   0.413  14.204  13.587
75122SOL    HW227200   0.467  14.294  13.478
75123SOL     OW27201   0.313   8.661   9.510
75123SOL    HW127202   0.384   8.668   9.446
75123SOL    HW227203   0.339   8.589   9.567
75124SOL     OW27204   9.154   6.218  14.010
75124SOL    HW127205   9.217   6.283  14.038
75124SOL    HW227206   9.070   6.263  14.012
75125SOL     OW27207   3.753   8.379  11.892
75125SOL    HW127208   3.814   8.444  11.856
75125SOL    HW227209   3.758   8.306  11.831
75126SOL     OW27210   3.358   2.548   1.845
75126SOL    HW127211   3.308   2.629   1.834
75126SOL    HW227212   3.448   2.577   1.862
75127SOL     OW27213   8.811   0.235   9.430
75127SOL    HW127214   8.792   0.327   9.411
75127SOL    HW227215   8.843   0.235   9.520
75128SOL     OW27216  11.262   4.774   3.793
75128SOL    HW127217  11.243   4.748   3.703
75128SOL    HW227218  11.292   4.694   3.835
75129SOL     OW27219  11.054   8.375  14.580
75129SOL    HW127220  11.142   8.342  14.564
75129SOL    HW227221  11.035   8.351  14.671
75130SOL     OW27222  14.769  13.986   7.475
75130SOL    HW127223  14.681  13.954   7.496
75130SOL    HW227224  14.826  13.947   7.541
75131SOL     OW27225  11.784   5.000   3.401
75131SOL    HW127226  11.699   5.041   3.418
75131SOL    HW227227  11.802   5.020   3.309
75132SOL     OW27228   1.049  11.299  10.462
75132SOL    HW127229   1.018  11.364  10.399
75132SOL    HW227230   1.012  11.328  10.546
75133SOL     OW27231   8.404  11.673   4.576
75133SOL    HW127232   8.413  11.613   4.649
75133SOL    HW227233   8.359  11.749   4.613
75134SOL     OW27234   6.587   9.252   5.082
75134SOL    HW127235   6.570   9.273   5.174
75134SOL    HW227236   6.660   9.309   5.057
75135SOL     OW27237  11.250   1.130   6.949
75135SOL    HW127238  11.180   1.147   7.011
75135SOL    HW227239  11.238   1.194   6.879
75136SOL     OW27240   0.355   8.441  11.391
75136SOL    HW127241   0.446   8.412  11.396
75136SOL    HW227242   0.348   8.483  11.306
75137SOL     OW27243  11.812   6.956  12.743
75137SOL    HW127244  11.821   6.884  12.680
75137SOL    HW227245  11.783   6.913  12.824
75138SOL     OW27246   6.961   0.238  12.261
75138SOL    HW127247   6.936   0.315  12.312
75138SOL    HW227248   6.889   0.226  12.199
75139SOL     OW27249   5.614   5.229   3.240
75139SOL    HW127250   5.602   5.245   3.146
75139SOL    HW227251   5.618   5.317   3.279
75140SOL     OW27252   3.424  13.893   3.057
75140SOL    HW127253   3.345  13.863   3.013
75140SOL    HW227254   3.482  13.920   2.986
75141SOL     OW27255   8.377   0.859  11.909
75141SOL    HW127256   8.370   0.802  11.985
75141SOL    HW227257   8.319   0.933  11.930
75142SOL     OW27258   5.177   4.768  10.535
75142SOL    HW127259   5.138   4.697  10.484
75142SOL    HW227260   5.158   4.847  10.483
75143SOL     OW27261   0.877   7.465   2.515
75143SOL    HW127262   0.899   7.399   2.449
75143SOL    HW227263   0.825   7.416   2.580
75144SOL     OW27264  10.013   6.412   8.047
75144SOL    HW127265  10.018   6.333   7.994
75144SOL    HW227266  10.059   6.479   7.997
75145SOL     OW27267   2.613   1.715   7.775
75145SOL    HW127268   2.526   1.755   7.779
75145SOL    HW227269   2.642   1.730   7.685
75146SOL     OW27270   2.502  12.860   8.757
75146SOL    HW127271   2.526  12.861   8.849
75146SOL    HW227272   2.406  12.864   8.758
75147SOL     OW27273   4.225  11.823   3.889
75147SOL    HW127274   4.264  11.800   3.974
75147SOL    HW227275   4.286  11.789   3.824
75148SOL     OW27276  13.305   1.001   3.643
75148SOL    HW127277  13.226   0.952   3.666
75148SOL    HW227278  13.346   0.948   3.575
75149SOL     OW27279  12.903   9.930   1.462
75149SOL    HW127280  12.921   9.928   1.556
75149SOL    HW227281  12.828   9.871   1.451
75150SOL     OW27282   6.824   6.745  10.332
75150SOL    HW127283   6.871   6.825  10.312
75150SOL    HW227284   6.833   6.691  10.254
75151SOL     OW27285   7.785   9.168  11.263
75151SOL    HW127286   7.793   9.088  11.316
75151SOL    HW227287   7.693   9.170  11.238
75152SOL     OW27288   7.529  14.642  11.790
75152SOL    HW127289   7.433  14.638  11.793
75152SOL    HW227290   7.549  14.659  11.698
75153SOL     OW27291   6.000   4.356   2.716
75153SOL    HW127292   6.062   4.320   2.652
75153SOL    HW227293   5.977   4.442   2.682
75154SOL     OW27294   8.781   0.270  11.520
75154SOL    HW127295   8.839   0.197  11.497
75154SOL    HW227296   8.718   0.231  11.581
75155SOL     OW27297   2.178   4.879  14.037
75155SOL    HW127298   2.198   4.828  13.959
75155SOL    HW227299   2.259   4.877  14.088
75156SOL     OW27300  13.978   3.045  13.901
75156SOL    HW127301  14.016   3.056  13.814
75156SOL    HW227302  13.989   2.952  13.921
75157SOL     OW27303  10.178   9.574   1.490
75157SOL    HW127304  10.109   9.512   1.467
75157SOL    HW227305  10.239   9.522   1.543
75158SOL     OW27306  12.638   5.789  11.120
75158SOL    HW127307  12.584   5.723  11.077
75158SOL    HW227308  12.604   5.794  11.209
75159SOL     OW27309  14.612  10.197   4.203
75159SOL    HW127310  14.706  10.213   4.194
75159SOL    HW227311  14.607  10.120   4.259
75160SOL     OW27312   3.611  12.761  14.475
75160SOL    HW127313   3.678  12.828  14.468
75160SOL    HW227314   3.619  12.726  14.564
75161SOL     OW27315  14.460   5.658   2.759
75161SOL    HW127316  14.423   5.713   2.829
75161SOL    HW227317  14.531   5.610   2.801
75162SOL     OW27318  10.481  14.645   1.071
75162SOL    HW127319  10.529  14.593   1.006
75162SOL    HW227320  10.397  14.664   1.029
75163SOL     OW27321  10.884   4.431  12.374
75163SOL    HW127322  10.840   4.413  12.291
75163SOL    HW227323  10.818   4.473  12.429
75164SOL     OW27324  10.581   3.427   9.518
75164SOL    HW127325  10.584   3.333   9.535
75164SOL    HW227326  10.634   3.439   9.439
75165SOL     OW27327   2.120   1.498   3.388
75165SOL    HW127328   2.045   1.552   3.363
75165SOL    HW227329   2.196   1.543   3.351
75166SOL     OW27330   8.957   2.497   2.805
75166SOL    HW127331   8.885   2.529   2.750
75166SOL    HW227332   8.917   2.482   2.890
75167SOL     OW27333  12.833   8.182   7.919
75167SOL    HW127334  12.767   8.221   7.975
75167SOL    HW227335  12.894   8.139   7.979
75168SOL     OW27336   3.974  11.054   5.673
75168SOL    HW127337   3.970  11.035   5.579
75168SOL    HW227338   4.037  11.126   5.680
75169SOL     OW27339  13.085   2.956   4.481
75169SOL    HW127340  12.993   2.932   4.471
75169SOL    HW227341  13.088   3.049   4.457
75170SOL     OW27342   9.205   1.824   4.541
75170SOL    HW127343   9.148   1.876   4.485
75170SOL    HW227344   9.171   1.735   4.535
75171SOL     OW27345  10.884   0.450  11.138
75171SOL    HW127346  10.978   0.451  11.121
75171SOL    HW227347  10.845   0.416  11.058
75172SOL     OW27348  12.260   1.289   3.580
75172SOL    HW127349  12.350   1.264   3.555
75172SOL    HW227350  12.266   1.311   3.673
75173SOL     OW27351   0.802   1.404   5.587
75173SOL    HW127352   0.767   1.357   5.510
75173SOL    HW227353   0.724   1.425   5.638
75174SOL     OW27354   2.811  12.112  10.600
75174SOL    HW127355   2.811  12.099  10.695
75174SOL    HW227356   2.742  12.176  10.584
75175SOL     OW27357   4.624   5.404  14.032
75175SOL    HW127358   4.530   5.384  14.027
75175SOL    HW227359   4.666   5.318  14.037
75176SOL     OW27360   6.822   4.413  11.579
75176SOL    HW127361   6.729   4.401  11.598
75176SOL    HW227362   6.853   4.474  11.646
75177SOL     OW27363   7.227   4.627   1.438
75177SOL    HW127364   7.277   4.580   1.372
75177SOL    HW227365   7.142   4.644   1.397
75178SOL     OW27366   9.555   7.563   0.065
75178SOL    HW127367   9.584   7.512  14.862
75178SOL    HW227368   9.599   7.524   0.140
75179SOL     OW27369   2.080  10.656  10.347
75179SOL    HW127370   1.993  10.679  10.380
75179SOL    HW227371   2.067  10.642  10.253
75180SOL     OW27372   8.927   3.854  12.249
75180SOL    HW127373   8.915   3.780  12.309
75180SOL    HW227374   9.021   3.856  12.231
75181SOL     OW27375   5.791   7.131   9.852
75181SOL    HW127376   5.707   7.136   9.897
75181SOL    HW227377   5.820   7.221   9.843
75182SOL     OW27378  10.965  14.418   6.392
75182SOL    HW127379  11.023  14.367   6.449
75182SOL    HW227380  11.024  14.470   6.338
75183SOL     OW27381   7.313   8.263  10.967
75183SOL    HW127382   7.302   8.352  10.931
75183SOL    HW227383   7.224   8.230  10.978
75184SOL     OW27384  12.677  12.903  10.114
75184SOL    HW127385  12.630  12.820  10.115
75184SOL    HW227386  12.739  12.896  10.187
75185SOL     OW27387   2.871  10.758   6.283
75185SOL    HW127388   2.799  10.733   6.225
75185SOL    HW227389   2.828  10.780   6.366
75186SOL     OW27390   8.115  13.826   9.455
75186SOL    HW127391   8.140  13.918   9.467
75186SOL    HW227392   8.043  13.829   9.391
75187SOL     OW27393   1.438   6.845  10.744
75187SOL    HW127394   1.523   6.887  10.732
75187SOL    HW227395   1.389   6.905  10.800
75188SOL     OW27396   3.846   3.226   1.283
75188SOL    HW127397   3.928   3.178   1.289
75188SOL    HW227398   3.825   3.250   1.373
75189SOL     OW27399   2.270  12.348   6.835
75189SOL    HW127400   2.220  12.273   6.868
75189SOL    HW227401   2.204  12.408   6.802
75190SOL     OW27402   8.064   1.320  14.753
75190SOL    HW127403   8.061   1.413  14.731
75190SOL    HW227404   7.973   1.293  14.756
75191SOL     OW27405   1.630   8.750   4.475
75191SOL    HW127406   1.606   8.723   4.386
75191SOL    HW227407   1.723   8.729   4.482
75192SOL     OW27408   0.630   1.694  12.379
75192SOL    HW127409   0.647   1.672  12.471
75192SOL    HW227410   0.562   1.761  12.382
75193SOL     OW27411  13.048  12.550  10.456
75193SOL    HW127412  13.014  12.554  10.367
75193SOL    HW227413  12.970  12.551  10.511
75194SOL     OW27414   0.729  14.296  10.623
75194SOL    HW127415   0.771  14.287  10.709
75194SOL    HW227416   0.638  14.271  10.639
75195SOL     OW27417  12.568   7.098   4.742
75195SOL    HW127418  12.608   7.077   4.826
75195SOL    HW227419  12.632   7.157   4.700
75196SOL     OW27420   5.304   5.449   7.680
75196SOL    HW127421   5.375   5.387   7.699
75196SOL    HW227422   5.275   5.426   7.592
75197SOL     OW27423   3.344  10.945   2.495
75197SOL    HW127424   3.346  10.912   2.584
75197SOL    HW227425   3.361  11.039   2.503
75198SOL     OW27426   6.412   8.341  12.728
75198SOL    HW127427   6.423   8.335  12.823
75198SOL    HW227428   6.386   8.432  12.713
75199SOL     OW27429   9.839   8.190   6.554
75199SOL    HW127430   9.835   8.153   6.466
75199SOL    HW227431   9.811   8.119   6.612
75200SOL     OW27432   4.031   9.430  14.138
75200SOL    HW127433   4.107   9.379  14.166
75200SOL    HW227434   4.018   9.494  14.208
75201SOL     OW27435   6.926  10.882   4.386
75201SOL    HW127436   6.938  10.932   4.306
75201SOL    HW227437   6.871  10.808   4.360
75202SOL     OW27438  13.023  11.316  10.421
75202SOL    HW127439  13.109  11.358  10.421
75202SOL    HW227440  13.020  11.266  10.503
75203SOL     OW27441  10.377   5.809  12.990
75203SOL    HW127442  10.430   5.734  12.961
75203SOL    HW227443  10.294   5.770  13.019
75204SOL     OW27444   5.554   9.227   0.939
75204SOL    HW127445   5.512   9.238   0.854
75204SOL    HW227446   5.629   9.286   0.937
75205SOL     OW27447  14.051  13.178   0.260
75205SOL    HW127448  13.990  13.136   0.200
75205SOL    HW227449  14.006  13.258   0.289
75206SOL     OW27450  12.545  10.995   6.560
75206SOL    HW127451  12.640  11.003   6.568
75206SOL    HW227452  12.513  11.084   6.571
75207SOL     OW27453   0.633   4.475   8.744
75207SOL    HW127454   0.601   4.554   8.700
75207SOL    HW227455   0.567   4.455   8.810
75208SOL     OW27456   1.975   9.313  10.233
75208SOL    HW127457   1.920   9.276  10.164
75208SOL    HW227458   2.051   9.255  10.237
75209SOL     OW27459   2.873   8.982   1.939
75209SOL    HW127460   2.944   9.025   1.988
75209SOL    HW227461   2.833   9.052   1.889
75210SOL     OW27462  14.337  11.091  13.286
75210SOL    HW127463  14.328  11.004  13.246
75210SOL    HW227464  14.265  11.142  13.248
75211SOL     OW27465  11.753   4.885   8.738
75211SOL    HW127466  11.734   4.857   8.827
75211SOL    HW227467  11.682   4.849   8.686
75212SOL     OW27468  12.632  11.811   9.509
75212SOL    HW127469  12.666  11.853   9.588
75212SOL    HW227470  12.582  11.736   9.540
75213SOL     OW27471   6.419  10.091  13.171
75213SOL    HW127472   6.443  10.106  13.262
75213SOL    HW227473   6.391  10.176  13.138
75214SOL     OW27474   4.286   7.304  10.860
75214SOL    HW127475   4.238   7.285  10.780
75214SOL    HW227476   4.348   7.373  10.835
75215SOL     OW27477  12.526   2.497   7.871
75215SOL    HW127478  12.438   2.459   7.863
75215SOL    HW227479  12.544   2.495   7.965
75216SOL     OW27480   8.382   9.296   0.289
75216SOL    HW127481   8.465   9.284   0.241
75216SOL    HW227482   8.347   9.379   0.256
75217SOL     OW27483   0.982  11.871   3.091
75217SOL    HW127484   1.064  11.869   3.041
75217SOL    HW227485   0.988  11.794   3.148
75218SOL     OW27486   0.037  12.216  12.998
75218SOL    HW127487   0.124  12.218  13.037
75218SOL    HW227488  14.854  12.262  13.061
75219SOL     OW27489   2.001   0.266   0.188
75219SOL    HW127490   1.969   0.203   0.124
75219SOL    HW227491   2.075   0.309   0.145
75220SOL     OW27492  12.364   2.858  10.599
75220SOL    HW127493  12.359   2.851  10.694
75220SOL    HW227494  12.319   2.940  10.578
75221SOL     OW27495   9.182   0.309  11.521
75221SOL    HW127496   9.145   0.397  11.513
75221SOL    HW227497   9.263   0.313  11.471
75222SOL     OW27498  14.613   2.547   8.997
75222SOL    HW127499  14.681   2.613   9.003
75222SOL    HW227500  14.611   2.505   9.083
75223SOL     OW27501   0.663  10.185  13.469
75223SOL    HW127502   0.672  10.117  13.403
75223SOL    HW227503   0.701  10.263  13.429
75224SOL     OW27504   6.252  13.847   4.869
75224SOL    HW127505   6.317  13.777   4.870
75224SOL    HW227506   6.277  13.903   4.795
75225SOL     OW27507   1.006   8.442  14.642
75225SOL    HW127508   1.068   8.440  14.716
75225SOL    HW227509   1.060   8.422  14.565
75226SOL     OW27510   6.952   3.963   1.786
75226SOL    HW127511   7.017   3.978   1.855
75226SOL    HW227512   7.000   3.914   1.719
75227SOL     OW27513   5.535  10.627  11.019
75227SOL    HW127514   5.585  10.699  10.979
75227SOL    HW227515   5.598  10.554  11.023
75228SOL     OW27516   3.346   0.824   5.785
75228SOL    HW127517   3.264   0.778   5.801
75228SOL    HW227518   3.376   0.790   5.700
75229SOL     OW27519  11.657   1.859  13.778
75229SOL    HW127520  11.654   1.910  13.859
75229SOL    HW227521  11.693   1.774  13.804
75230SOL     OW27522   9.949   1.810   9.084
75230SOL    HW127523   9.900   1.861   9.149
75230SOL    HW227524   9.949   1.866   9.006
75231SOL     OW27525   0.252  11.316   6.595
75231SOL    HW127526   0.283  11.353   6.677
75231SOL    HW227527   0.210  11.234   6.619
75232SOL     OW27528   4.324  13.061  12.447
75232SOL    HW127529   4.314  12.975  12.487
75232SOL    HW227530   4.284  13.052  12.360
75233SOL     OW27531   2.576  13.082   8.596
75233SOL    HW127532   2.645  13.075   8.662
75233SOL    HW227533   2.511  13.016   8.621
75234SOL     OW27534   2.450   7.211  12.312
75234SOL    HW127535   2.451   7.123  12.350
75234SOL    HW227536   2.405   7.200  12.229
75235SOL     OW27537  13.210  13.339   7.038
75235SOL    HW127538  13.128  13.363   7.080
75235SOL    HW227539  13.265  13.305   7.108
75236SOL     OW27540  10.387   6.828  12.642
75236SOL    HW127541  10.385   6.865  12.731
75236SOL    HW227542  10.296   6.810  12.621
75237SOL     OW27543   1.354  13.333  10.732
75237SOL    HW127544   1.315  13.378  10.656
75237SOL    HW227545   1.322  13.243  10.725
75238SOL     OW27546   9.775  11.742  12.062
75238SOL    HW127547   9.766  11.837  12.073
75238SOL    HW227548   9.725  11.722  11.983
75239SOL     OW27549   7.691   1.884  11.896
75239SOL    HW127550   7.613   1.869  11.949
75239SOL    HW227551   7.684   1.976  11.869
75240SOL     OW27552  14.615  11.450   1.597
75240SOL    HW127553  14.629  11.545   1.599
75240SOL    HW227554  14.644  11.423   1.511
75241SOL     OW27555  11.591  14.035   9.482
75241SOL    HW127556  11.616  13.974   9.551
75241SOL    HW227557  11.588  13.982   9.403
75242SOL     OW27558   7.457   0.430  11.489
75242SOL    HW127559   7.422   0.501  11.543
75242SOL    HW227560   7.407   0.435  11.407
75243SOL     OW27561  14.349   9.335  13.840
75243SOL    HW127562  14.265   9.359  13.879
75243SOL    HW227563  14.336   9.345  13.746
75244SOL     OW27564   9.659  12.239   1.999
75244SOL    HW127565   9.637  12.167   1.940
75244SOL    HW227566   9.752  12.227   2.018
75245SOL     OW27567   9.124   2.701   2.319
75245SOL    HW127568   9.094   2.731   2.405
75245SOL    HW227569   9.178   2.624   2.337
75246SOL     OW27570   0.301  10.780   6.164
75246SOL    HW127571   0.330  10.769   6.073
75246SOL    HW227572   0.269  10.871   6.168
75247SOL     OW27573   8.051  13.449   4.764
75247SOL    HW127574   8.126  13.418   4.815
75247SOL    HW227575   7.975  13.422   4.815
75248SOL     OW27576   6.858   7.164  10.385
75248SOL    HW127577   6.768   7.179  10.357
75248SOL    HW227578   6.890   7.097  10.325
75249SOL     OW27579  14.672   8.931   9.909
75249SOL    HW127580  14.635   8.857   9.861
75249SOL    HW227581  14.647   8.914  10.000
75250SOL     OW27582   7.881   9.122   3.108
75250SOL    HW127583   7.940   9.057   3.146
75250SOL    HW227584   7.794   9.085   3.122
75251SOL     OW27585   2.234  12.997   1.731
75251SOL    HW127586   2.204  12.913   1.767
75251SOL    HW227587   2.206  13.061   1.796
75252SOL     OW27588   5.692  11.590   3.919
75252SOL    HW127589   5.653  11.652   3.981
75252SOL    HW227590   5.785  11.587   3.944
75253SOL     OW27591   4.593   5.782   2.133
75253SOL    HW127592   4.544   5.771   2.214
75253SOL    HW227593   4.611   5.875   2.128
75254SOL     OW27594   5.575   5.966   4.421
75254SOL    HW127595   5.499   6.005   4.465
75254SOL    HW227596   5.538   5.904   4.359
75255SOL     OW27597  11.248   2.462   3.152
75255SOL    HW127598  11.291   2.393   3.102
75255SOL    HW227599  11.280   2.451   3.241
75256SOL     OW27600   1.775  10.610   9.235
75256SOL    HW127601   1.852  10.568   9.196
75256SOL    HW227602   1.808  10.694   9.267
75257SOL     OW27603  10.610  10.803   0.915
75257SOL    HW127604  10.684  10.752   0.948
75257SOL    HW227605  10.588  10.762   0.831
75258SOL     OW27606   6.954   0.616  11.453
75258SOL    HW127607   7.008   0.580  11.382
75258SOL    HW227608   6.869   0.634  11.412
75259SOL     OW27609   5.043   1.914  12.475
75259SOL    HW127610   5.038   1.823  12.447
75259SOL    HW227611   5.033   1.910  12.571
75260SOL     OW27612   5.493   9.654  12.465
75260SOL    HW127613   5.538   9.585  12.514
75260SOL    HW227614   5.540   9.657  12.381
75261SOL     OW27615   0.524   1.967   9.205
75261SOL    HW127616   0.445   1.937   9.160
75261SOL    HW227617   0.587   1.895   9.193
75262SOL     OW27618   0.909   7.959  11.749
75262SOL    HW127619   0.850   7.994  11.815
75262SOL    HW227620   0.865   7.976  11.665
75263SOL     OW27621  12.835  13.840   7.604
75263SOL    HW127622  12.813  13.853   7.696
75263SOL    HW227623  12.918  13.792   7.605
75264SOL     OW27624   6.221   3.007   5.766
75264SOL    HW127625   6.230   3.004   5.671
75264SOL    HW227626   6.311   3.011   5.799
75265SOL     OW27627  11.862   5.278   0.043
75265SOL    HW127628  11.825   5.255   0.128
75265SOL    HW227629  11.896   5.196   0.008
75266SOL     OW27630   5.080  11.461  11.953
75266SOL    HW127631   5.171  11.461  11.923
75266SOL    HW227632   5.087  11.462  12.049
75267SOL     OW27633  10.719   6.761   5.457
75267SOL    HW127634  10.765   6.759   5.373
75267SOL    HW227635  10.632   6.725   5.437
75268SOL     OW27636   4.593  14.743   9.108
75268SOL    HW127637   4.530  14.811   9.128
75268SOL    HW227638   4.557  14.699   9.031
75269SOL     OW27639  12.012  12.356  11.588
75269SOL    HW127640  12.101  12.325  11.574
75269SOL    HW227641  12.020  12.426  11.652
75270SOL     OW27642   3.380  12.750   8.735
75270SOL    HW127643   3.295  12.752   8.692
75270SOL    HW227644   3.371  12.810   8.809
75271SOL     OW27645   2.819   2.205  13.562
75271SOL    HW127646   2.731   2.198  13.525
75271SOL    HW227647   2.815   2.281  13.621
75272SOL     OW27648   0.804   8.894  12.143
75272SOL    HW127649   0.721   8.846  12.136
75272SOL    HW227650   0.778   8.984  12.161
75273SOL     OW27651   0.762   6.341   3.468
75273SOL    HW127652   0.792   6.254   3.494
75273SOL    HW227653   0.720   6.328   3.383
75274SOL     OW27654   0.472  14.478   2.412
75274SOL    HW127655   0.566  14.471   2.428
75274SOL    HW227656   0.438  14.390   2.428
75275SOL     OW27657   2.811   4.378   3.391
75275SOL    HW127658   2.891   4.386   3.339
75275SOL    HW227659   2.750   4.442   3.351
75276SOL     OW27660   0.402  10.407  14.769
75276SOL    HW127661   0.382  10.343  14.837
75276SOL    HW227662   0.496  10.399  14.754
75277SOL     OW27663  10.504  10.182   7.444
75277SOL    HW127664  10.416  10.184   7.406
75277SOL    HW227665  10.515  10.267   7.486
75278SOL     OW27666   9.103   9.442   4.202
75278SOL    HW127667   9.026   9.470   4.153
75278SOL    HW227668   9.110   9.505   4.273
75279SOL     OW27669   9.708   7.035  10.994
75279SOL    HW127670   9.681   6.977  11.065
75279SOL    HW227671   9.757   6.979  10.934
75280SOL     OW27672   6.887   5.709   6.844
75280SOL    HW127673   6.813   5.723   6.903
75280SOL    HW227674   6.962   5.748   6.890
75281SOL     OW27675   6.617   6.316  13.048
75281SOL    HW127676   6.566   6.307  12.967
75281SOL    HW227677   6.655   6.404  13.042
75282SOL     OW27678   1.280   0.340   1.445
75282SOL    HW127679   1.235   0.344   1.530
75282SOL    HW227680   1.325   0.255   1.446
75283SOL     OW27681   0.246   5.010   4.878
75283SOL    HW127682   0.271   4.929   4.922
75283SOL    HW227683   0.233   5.073   4.949
75284SOL     OW27684   7.137   8.636  10.371
75284SOL    HW127685   7.123   8.651  10.277
75284SOL    HW227686   7.157   8.723  10.406
75285SOL     OW27687   7.720   5.367  14.512
75285SOL    HW127688   7.788   5.308  14.544
75285SOL    HW227689   7.715   5.348  14.418
75286SOL     OW27690   6.562  11.208   1.253
75286SOL    HW127691   6.638  11.172   1.298
75286SOL    HW227692   6.593  11.227   1.164
75287SOL     OW27693   7.732  11.875  10.879
75287SOL    HW127694   7.770  11.840  10.960
75287SOL    HW227695   7.673  11.806  10.849
75288SOL     OW27696  10.603  14.466  10.300
75288SOL    HW127697  10.597  14.410  10.377
75288SOL    HW227698  10.680  14.435  10.254
75289SOL     OW27699   0.070   5.564   7.592
75289SOL    HW127700   0.142   5.584   7.532
75289SOL    HW227701  14.869   5.545   7.534
75290SOL     OW27702  14.194   1.520   2.639
75290SOL    HW127703  14.191   1.572   2.559
75290SOL    HW227704  14.197   1.429   2.609
75291SOL     OW27705  13.176   3.095   6.954
75291SOL    HW127706  13.253   3.151   6.946
75291SOL    HW227707  13.166   3.054   6.868
75292SOL     OW27708   8.207   0.635   9.581
75292SOL    HW127709   8.257   0.646   9.500
75292SOL    HW227710   8.199   0.540   9.592
75293SOL     OW27711   3.779   6.031   9.100
75293SOL    HW127712   3.848   6.098   9.099
75293SOL    HW227713   3.822   5.953   9.136
75294SOL     OW27714  12.235  10.112   0.494
75294SOL    HW127715  12.260  10.148   0.579
75294SOL    HW227716  12.271  10.024   0.494
75295SOL     OW27717  13.831   7.711  12.811
75295SOL    HW127718  13.736   7.699  12.805
75295SOL    HW227719  13.853   7.684  12.900
75296SOL     OW27720   0.218   7.917   0.487
75296SOL    HW127721   0.248   8.003   0.457
75296SOL    HW227722   0.184   7.934   0.575
75297SOL     OW27723  12.689   2.357   8.430
75297SOL    HW127724  12.752   2.286   8.444
75297SOL    HW227725  12.603   2.315   8.438
75298SOL     OW27726  12.087   8.171   5.300
75298SOL    HW127727  12.105   8.088   5.255
75298SOL    HW227728  12.063   8.145   5.389
75299SOL     OW27729   8.940  10.204   8.142
75299SOL    HW127730   8.963  10.296   8.130
75299SOL    HW227731   8.864  10.206   8.201
75300SOL     OW27732   1.942   9.414  10.954
75300SOL    HW127733   1.879   9.376  10.893
75300SOL    HW227734   2.022   9.423  10.903
75301SOL     OW27735   7.142   4.585  12.069
75301SOL    HW127736   7.207   4.548  12.128
75301SOL    HW227737   7.191   4.647  12.014
75302SOL     OW27738  10.630   9.245   9.722
75302SOL    HW127739  10.605   9.200   9.803
75302SOL    HW227740  10.570   9.209   9.656
75303SOL     OW27741   9.156   2.302   8.332
75303SOL    HW127742   9.205   2.270   8.408
75303SOL    HW227743   9.070   2.262   8.341
75304SOL     OW27744  10.039   3.737   4.954
75304SOL    HW127745  10.132   3.759   4.952
75304SOL    HW227746  10.036   3.650   4.995
75305SOL     OW27747  13.391   7.267   1.337
75305SOL    HW127748  13.436   7.298   1.416
75305SOL    HW227749  13.461   7.262   1.271
75306SOL     OW27750  11.404  13.673  13.110
75306SOL    HW127751  11.478  13.679  13.050
75306SOL    HW227752  11.361  13.759  13.104
75307SOL     OW27753   9.833  10.433   0.688
75307SOL    HW127754   9.821  10.461   0.779
75307SOL    HW227755   9.926  10.410   0.682
75308SOL     OW27756   5.533   6.349   2.333
75308SOL    HW127757   5.576   6.435   2.331
75308SOL    HW227758   5.461   6.357   2.270
75309SOL     OW27759   5.251  10.694  13.012
75309SOL    HW127760   5.157  10.686  13.003
75309SOL    HW227761   5.264  10.767  13.072
75310SOL     OW27762   0.552  13.539   5.013
75310SOL    HW127763   0.482  13.594   4.979
75310SOL    HW227764   0.624  13.549   4.951
75311SOL     OW27765   3.058  10.097  11.008
75311SOL    HW127766   3.037  10.056  10.924
75311SOL    HW227767   3.151  10.119  11.001
75312SOL     OW27768   0.309   4.134   7.464
75312SOL    HW127769   0.293   4.219   7.506
75312SOL    HW227770   0.320   4.073   7.537
75313SOL     OW27771  12.556  10.692   2.694
75313SOL    HW127772  12.612  10.722   2.622
75313SOL    HW227773  12.579  10.600   2.706
75314SOL     OW27774  13.820  11.194   1.389
75314SOL    HW127775  13.804  11.109   1.349
75314SOL    HW227776  13.806  11.180   1.482
75315SOL     OW27777   5.165   9.087  11.012
75315SOL    HW127778   5.230   9.062  10.946
75315SOL    HW227779   5.193   9.174  11.041
75316SOL     OW27780   0.899   0.746   5.881
75316SOL    HW127781   0.951   0.740   5.961
75316SOL    HW227782   0.901   0.839   5.858
75317SOL     OW27783   6.264   7.284   1.834
75317SOL    HW127784   6.168   7.282   1.829
75317SOL    HW227785   6.293   7.283   1.743
75318SOL     OW27786  10.903   3.696   3.719
75318SOL    HW127787  10.815   3.733   3.711
75318SOL    HW227788  10.938   3.698   3.629
75319SOL     OW27789   1.771  13.618   5.335
75319SOL    HW127790   1.846  13.664   5.372
75319SOL    HW227791   1.734  13.570   5.408
75320SOL     OW27792  12.155   8.732   0.578
75320SOL    HW127793  12.226   8.791   0.553
75320SOL    HW227794  12.169   8.715   0.671
75321SOL     OW27795  13.902  11.098   0.176
75321SOL    HW127796  13.901  11.123   0.269
75321SOL    HW227797  13.819  11.053   0.163
75322SOL     OW27798   7.210   2.213   6.387
75322SOL    HW127799   7.133   2.205   6.330
75322SOL    HW227800   7.245   2.124   6.394
75323SOL     OW27801   1.263  12.462   1.211
75323SOL    HW127802   1.220  12.378   1.224
75323SOL    HW227803   1.350  12.451   1.251
75324SOL     OW27804  13.611   0.676   4.199
75324SOL    HW127805  13.567   0.637   4.123
75324SOL    HW227806  13.590   0.769   4.194
75325SOL     OW27807   7.332   2.953   2.637
75325SOL    HW127808   7.385   2.941   2.716
75325SOL    HW227809   7.247   2.985   2.669
75326SOL     OW27810  14.033   1.762   5.530
75326SOL    HW127811  13.949   1.796   5.561
75326SOL    HW227812  14.098   1.799   5.590
75327SOL     OW27813   3.240  10.599   7.781
75327SOL    HW127814   3.311  10.580   7.842
75327SOL    HW227815   3.206  10.513   7.755
75328SOL     OW27816   2.571  11.503   5.353
75328SOL    HW127817   2.644  11.442   5.360
75328SOL    HW227818   2.495  11.446   5.338
75329SOL     OW27819   4.314  12.049   3.564
75329SOL    HW127820   4.391  12.001   3.533
75329SOL    HW227821   4.250  11.981   3.584
75330SOL     OW27822  13.064   4.980   0.598
75330SOL    HW127823  13.060   4.905   0.658
75330SOL    HW227824  13.025   4.948   0.517
75331SOL     OW27825   8.064   3.643   4.920
75331SOL    HW127826   8.147   3.690   4.924
75331SOL    HW227827   8.085   3.554   4.949
75332SOL     OW27828   0.137   7.641  10.362
75332SOL    HW127829   0.191   7.585  10.417
75332SOL    HW227830   0.138   7.599  10.276
75333SOL     OW27831   3.124   1.379   9.889
75333SOL    HW127832   3.102   1.421   9.806
75333SOL    HW227833   3.168   1.297   9.864
75334SOL     OW27834   8.967   5.777   1.126
75334SOL    HW127835   9.002   5.720   1.058
75334SOL    HW227836   8.912   5.719   1.180
75335SOL     OW27837   0.796   9.034   2.037
75335SOL    HW127838   0.821   8.957   1.986
75335SOL    HW227839   0.878   9.082   2.050
75336SOL     OW27840  10.122   7.728  14.135
75336SOL    HW127841  10.092   7.740  14.045
75336SOL    HW227842  10.153   7.815  14.162
75337SOL     OW27843   2.392   3.482   9.632
75337SOL    HW127844   2.306   3.493   9.671
75337SOL    HW227845   2.437   3.419   9.688
75338SOL     OW27846   5.642   1.614   9.594
75338SOL    HW127847   5.602   1.656   9.519
75338SOL    HW227848   5.702   1.549   9.556
75339SOL     OW27849   5.134   0.798   2.756
75339SOL    HW127850   5.067   0.757   2.810
75339SOL    HW227851   5.091   0.815   2.673
75340SOL     OW27852   6.920   8.002   2.875
75340SOL    HW127853   6.954   7.978   2.962
75340SOL    HW227854   6.994   8.047   2.833
75341SOL     OW27855   3.243  14.819   5.375
75341SOL    HW127856   3.179  14.858   5.435
75341SOL    HW227857   3.194  14.754   5.326
75342SOL     OW27858  14.361   3.865  11.466
75342SOL    HW127859  14.305   3.897  11.396
75342SOL    HW227860  14.303   3.859  11.542
75343SOL     OW27861   1.187   4.562   1.503
75343SOL    HW127862   1.243   4.504   1.555
75343SOL    HW227863   1.177   4.516   1.419
75344SOL     OW27864  14.270  14.631   1.663
75344SOL    HW127865  14.259  14.538   1.642
75344SOL    HW227866  14.283  14.633   1.757
75345SOL     OW27867   9.919   9.635  13.825
75345SOL    HW127868   9.887   9.568  13.765
75345SOL    HW227869   9.853   9.704  13.823
75346SOL     OW27870   1.764   9.575  10.576
75346SOL    HW127871   1.702   9.613  10.514
75346SOL    HW227872   1.849   9.584  10.533
75347SOL     OW27873   3.206  13.642   0.288
75347SOL    HW127874   3.288  13.628   0.336
75347SOL    HW227875   3.188  13.735   0.299
75348SOL     OW27876   3.298   0.811   5.326
75348SOL    HW127877   3.264   0.899   5.345
75348SOL    HW227878   3.349   0.788   5.404
75349SOL     OW27879   9.454  14.098   8.947
75349SOL    HW127880   9.465  14.038   9.020
75349SOL    HW227881   9.524  14.074   8.886
75350SOL     OW27882   6.178   6.821   6.531
75350SOL    HW127883   6.088   6.832   6.500
75350SOL    HW227884   6.209   6.910   6.548
75351SOL     OW27885   1.733   0.822  10.327
75351SOL    HW127886   1.738   0.791  10.418
75351SOL    HW227887   1.802   0.887  10.319
75352SOL     OW27888   3.929  14.865   0.851
75352SOL    HW127889   3.929   0.046   0.930
75352SOL    HW227890   3.837  14.859   0.825
75353SOL     OW27891   0.683   9.744   0.800
75353SOL    HW127892   0.665   9.707   0.714
75353SOL    HW227893   0.671   9.670   0.860
75354SOL     OW27894   0.894   8.667   6.559
75354SOL    HW127895   0.939   8.746   6.531
75354SOL    HW227896   0.948   8.631   6.629
75355SOL     OW27897  14.075   5.449   5.498
75355SOL    HW127898  14.045   5.446   5.589
75355SOL    HW227899  14.011   5.505   5.454
75356SOL     OW27900  13.818   7.548   6.483
75356SOL    HW127901  13.888   7.583   6.429
75356SOL    HW227902  13.754   7.619   6.490
75357SOL     OW27903  11.123   5.838  10.631
75357SOL    HW127904  11.086   5.878  10.709
75357SOL    HW227905  11.216   5.860  10.634
75358SOL     OW27906   8.125  11.577   3.691
75358SOL    HW127907   8.219  11.566   3.678
75358SOL    HW227908   8.117  11.610   3.781
75359SOL     OW27909   7.578   4.674  12.613
75359SOL    HW127910   7.625   4.700  12.692
75359SOL    HW227911   7.516   4.745  12.597
75360SOL     OW27912   7.511   2.827   8.371
75360SOL    HW127913   7.485   2.766   8.440
75360SOL    HW227914   7.559   2.773   8.308
75361SOL     OW27915   0.933   3.780   9.336
75361SOL    HW127916   0.923   3.861   9.285
75361SOL    HW227917   0.982   3.807   9.414
75362SOL     OW27918  14.863   7.619   0.628
75362SOL    HW127919  14.842   7.531   0.595
75362SOL    HW227920  14.856   7.675   0.551
75363SOL     OW27921   1.864  12.675  13.611
75363SOL    HW127922   1.882  12.592  13.656
75363SOL    HW227923   1.819  12.728  13.677
75364SOL     OW27924  10.266  14.104  13.570
75364SOL    HW127925  10.191  14.136  13.620
75364SOL    HW227926  10.311  14.183  13.541
75365SOL     OW27927  10.039  10.366  10.885
75365SOL    HW127928  10.110  10.430  10.880
75365SOL    HW227929  10.054  10.308  10.811
75366SOL     OW27930  10.573   2.188  11.693
75366SOL    HW127931  10.505   2.217  11.632
75366SOL    HW227932  10.623   2.267  11.712
75367SOL     OW27933   9.925  12.133   8.053
75367SOL    HW127934  10.008  12.121   8.008
75367SOL    HW227935   9.938  12.210   8.108
75368SOL     OW27936   7.963  11.341   1.737
75368SOL    HW127937   7.929  11.422   1.774
75368SOL    HW227938   8.053  11.336   1.769
75369SOL     OW27939   1.285   4.529   8.985
75369SOL    HW127940   1.241   4.444   8.997
75369SOL    HW227941   1.323   4.524   8.898
75370SOL     OW27942   0.366   4.755   3.227
75370SOL    HW127943   0.283   4.795   3.252
75370SOL    HW227944   0.343   4.666   3.199
75371SOL     OW27945   2.463   2.145  13.903
75371SOL    HW127946   2.432   2.163  13.814
75371SOL    HW227947   2.419   2.210  13.958
75372SOL     OW27948  11.636  13.691   5.115
75372SOL    HW127949  11.566  13.753   5.135
75372SOL    HW227950  11.593  13.623   5.063
75373SOL     OW27951   3.654   4.849  11.479
75373SOL    HW127952   3.615   4.923  11.526
75373SOL    HW227953   3.657   4.878  11.388
75374SOL     OW27954   8.258  13.896  11.164
75374SOL    HW127955   8.263  13.980  11.119
75374SOL    HW227956   8.255  13.919  11.257
75375SOL     OW27957   4.730   3.022   6.020
75375SOL    HW127958   4.717   3.036   5.926
75375SOL    HW227959   4.757   2.931   6.028
75376SOL     OW27960  13.450   8.534  12.304
75376SOL    HW127961  13.385   8.568  12.366
75376SOL    HW227962  13.443   8.590  12.227
75377SOL     OW27963  10.828   0.585  12.664
75377SOL    HW127964  10.859   0.607  12.752
75377SOL    HW227965  10.814   0.669  12.621
75378SOL     OW27966   3.015   2.452  11.627
75378SOL    HW127967   3.012   2.362  11.659
75378SOL    HW227968   2.961   2.452  11.549
75379SOL     OW27969   8.274  11.976  13.221
75379SOL    HW127970   8.221  12.000  13.297
75379SOL    HW227971   8.279  12.057  13.169
75380SOL     OW27972  10.106  13.040   9.653
75380SOL    HW127973  10.056  13.061   9.575
75380SOL    HW227974  10.187  13.090   9.644
75381SOL     OW27975   8.586   6.727  13.750
75381SOL    HW127976   8.556   6.781  13.677
75381SOL    HW227977   8.542   6.643  13.737
75382SOL     OW27978  10.393   2.971   5.941
75382SOL    HW127979  10.314   3.021   5.962
75382SOL    HW227980  10.426   3.011   5.861
75383SOL     OW27981  11.494  12.011  11.858
75383SOL    HW127982  11.582  12.049  11.852
75383SOL    HW227983  11.437  12.079  11.822
75384SOL     OW27984   4.874  11.988   6.705
75384SOL    HW127985   4.931  12.063   6.689
75384SOL    HW227986   4.920  11.914   6.665
75385SOL     OW27987   7.144   0.242   9.963
75385SOL    HW127988   7.220   0.282  10.005
75385SOL    HW227989   7.113   0.309   9.902
75386SOL     OW27990  13.170  13.844  12.355
75386SOL    HW127991  13.226  13.874  12.284
75386SOL    HW227992  13.095  13.904  12.355
75387SOL     OW27993   0.826   7.041   3.910
75387SOL    HW127994   0.792   7.119   3.866
75387SOL    HW227995   0.907   7.022   3.863
75388SOL     OW27996  10.702  12.881   8.105
75388SOL    HW127997  10.771  12.939   8.138
75388SOL    HW227998  10.708  12.803   8.161
75389SOL     OW27999   3.196   3.353   4.766
75389SOL    HW128000   3.285   3.387   4.774
75389SOL    HW228001   3.144   3.428   4.736
75390SOL     OW28002   5.712   8.176  10.884
75390SOL    HW128003   5.785   8.185  10.822
75390SOL    HW228004   5.634   8.182  10.829
75391SOL     OW28005   3.718   4.982   4.272
75391SOL    HW128006   3.641   4.975   4.215
75391SOL    HW228007   3.769   4.903   4.253
75392SOL     OW28008  11.366  14.869  11.010
75392SOL    HW128009  11.403  14.784  10.988
75392SOL    HW228010  11.421   0.030  11.080
75393SOL     OW28011   7.295   7.896  13.641
75393SOL    HW128012   7.319   7.896  13.734
75393SOL    HW228013   7.206   7.930  13.639
75394SOL     OW28014  12.765   2.214   3.357
75394SOL    HW128015  12.830   2.163   3.309
75394SOL    HW228016  12.791   2.205   3.449
75395SOL     OW28017   9.592  12.494   5.238
75395SOL    HW128018   9.530  12.455   5.176
75395SOL    HW228019   9.677  12.455   5.214
75396SOL     OW28020  10.398   3.241  11.267
75396SOL    HW128021  10.342   3.309  11.227
75396SOL    HW228022  10.348   3.160  11.256
75397SOL     OW28023   1.449   8.020   1.866
75397SOL    HW128024   1.444   8.041   1.773
75397SOL    HW228025   1.357   8.008   1.893
75398SOL     OW28026  12.542   1.048   6.191
75398SOL    HW128027  12.583   1.133   6.173
75398SOL    HW228028  12.479   1.067   6.260
75399SOL     OW28029  10.250  10.658  13.831
75399SOL    HW128030  10.279  10.570  13.855
75399SOL    HW228031  10.290  10.674  13.745
75400SOL     OW28032   2.206   6.917  10.282
75400SOL    HW128033   2.264   6.927  10.207
75400SOL    HW228034   2.228   6.989  10.340
75401SOL     OW28035  10.425   7.005   5.385
75401SOL    HW128036  10.423   7.018   5.480
75401SOL    HW228037  10.412   6.911   5.374
75402SOL     OW28038   6.438   7.147   7.234
75402SOL    HW128039   6.495   7.070   7.231
75402SOL    HW228040   6.383   7.139   7.156
75403SOL     OW28041   3.788  13.642   9.403
75403SOL    HW128042   3.708  13.694   9.412
75403SOL    HW228043   3.760  13.552   9.421
75404SOL     OW28044   2.003  11.557  14.659
75404SOL    HW128045   1.943  11.482  14.665
75404SOL    HW228046   2.004  11.579  14.566
75405SOL     OW28047   3.236  10.612  11.745
75405SOL    HW128048   3.235  10.627  11.651
75405SOL    HW228049   3.300  10.675  11.780
75406SOL     OW28050   0.804  12.889  14.456
75406SOL    HW128051   0.879  12.829  14.457
75406SOL    HW228052   0.750  12.860  14.530
75407SOL     OW28053  14.667   1.387   0.861
75407SOL    HW128054  14.694   1.296   0.847
75407SOL    HW228055  14.746   1.432   0.891
75408SOL     OW28056   9.110  11.622   7.823
75408SOL    HW128057   9.115  11.615   7.728
75408SOL    HW228058   9.175  11.559   7.855
75409SOL     OW28059   6.545   7.376   4.503
75409SOL    HW128060   6.469   7.367   4.447
75409SOL    HW228061   6.554   7.291   4.546
75410SOL     OW28062   0.898   9.690  13.124
75410SOL    HW128063   0.988   9.678  13.155
75410SOL    HW228064   0.854   9.737  13.195
75411SOL     OW28065   4.396  11.307  13.152
75411SOL    HW128066   4.397  11.381  13.214
75411SOL    HW228067   4.306  11.275  13.153
75412SOL     OW28068   8.491  11.051   8.690
75412SOL    HW128069   8.521  11.119   8.630
75412SOL    HW228070   8.561  10.987   8.691
75413SOL     OW28071  13.432   9.158  12.769
75413SOL    HW128072  13.508   9.164  12.827
75413SOL    HW228073  13.418   9.247  12.738
75414SOL     OW28074  14.361   7.946   8.291
75414SOL    HW128075  14.383   8.034   8.262
75414SOL    HW228076  14.381   7.946   8.385
75415SOL     OW28077   3.053  13.210   7.588
75415SOL    HW128078   3.058  13.125   7.631
75415SOL    HW228079   2.968  13.246   7.616
75416SOL     OW28080  12.980   0.134   3.213
75416SOL    HW128081  12.953   0.131   3.121
75416SOL    HW228082  12.982   0.042   3.240
75417SOL     OW28083  11.558   2.699   9.237
75417SOL    HW128084  11.477   2.691   9.287
75417SOL    HW228085  11.565   2.793   9.217
75418SOL     OW28086  11.679   9.875   7.465
75418SOL    HW128087  11.697   9.895   7.557
75418SOL    HW228088  11.753   9.821   7.438
75419SOL     OW28089  10.412  10.913   7.218
75419SOL    HW128090  10.481  10.847   7.214
75419SOL    HW228091  10.454  10.990   7.255
75420SOL     OW28092   0.082  10.723   8.559
75420SOL    HW128093   0.059  10.694   8.647
75420SOL    HW228094   0.087  10.818   8.565
75421SOL     OW28095   0.270   8.253   4.627
75421SOL    HW128096   0.233   8.307   4.697
75421SOL    HW228097   0.315   8.182   4.673
75422SOL     OW28098  14.434   1.380   9.179
75422SOL    HW128099  14.370   1.450   9.191
75422SOL    HW228100  14.489   1.385   9.257
75423SOL     OW28101   5.134   4.075  14.213
75423SOL    HW128102   5.136   4.130  14.135
75423SOL    HW228103   5.118   4.136  14.285
75424SOL     OW28104   8.654   2.718   4.961
75424SOL    HW128105   8.729   2.748   4.909
75424SOL    HW228106   8.606   2.658   4.904
75425SOL     OW28107   0.722   3.968   8.614
75425SOL    HW128108   0.797   4.024   8.592
75425SOL    HW228109   0.647   4.028   8.613
75426SOL     OW28110   4.528   5.769   2.667
75426SOL    HW128111   4.516   5.681   2.703
75426SOL    HW228112   4.621   5.786   2.675
75427SOL     OW28113  11.298   5.310  10.611
75427SOL    HW128114  11.289   5.233  10.667
75427SOL    HW228115  11.391   5.331  10.614
75428SOL     OW28116   9.571  13.075   0.117
75428SOL    HW128117   9.590  13.152   0.064
75428SOL    HW228118   9.650  13.061   0.168
75429SOL     OW28119   1.628  12.490   6.001
75429SOL    HW128120   1.667  12.405   5.982
75429SOL    HW228121   1.578  12.476   6.082
75430SOL     OW28122   2.015   3.849  12.604
75430SOL    HW128123   2.044   3.899  12.527
75430SOL    HW228124   2.094   3.805  12.635
75431SOL     OW28125  12.453  10.322   6.718
75431SOL    HW128126  12.529  10.270   6.744
75431SOL    HW228127  12.380  10.285   6.767
75432SOL     OW28128  10.750  14.409   7.860
75432SOL    HW128129  10.673  14.461   7.885
75432SOL    HW228130  10.727  14.372   7.775
75433SOL     OW28131  10.490   3.262   8.269
75433SOL    HW128132  10.507   3.186   8.212
75433SOL    HW228133  10.439   3.322   8.214
75434SOL     OW28134   5.090  10.485   4.331
75434SOL    HW128135   5.014  10.440   4.295
75434SOL    HW228136   5.145  10.415   4.365
75435SOL     OW28137   6.378  13.316   9.579
75435SOL    HW128138   6.468  13.341   9.559
75435SOL    HW228139   6.338  13.397   9.611
75436SOL     OW28140   5.420  14.418  12.102
75436SOL    HW128141   5.437  14.374  12.185
75436SOL    HW228142   5.324  14.413  12.092
75437SOL     OW28143  10.408  10.540   8.132
75437SOL    HW128144  10.492  10.521   8.172
75437SOL    HW228145  10.366  10.454   8.121
75438SOL     OW28146  14.538  11.448  12.774
75438SOL    HW128147  14.612  11.397  12.807
75438SOL    HW228148  14.572  11.490  12.695
75439SOL     OW28149  14.051   7.330   1.063
75439SOL    HW128150  14.060   7.288   1.148
75439SOL    HW228151  13.958   7.325   1.043
75440SOL     OW28152  11.842   4.213  13.423
75440SOL    HW128153  11.883   4.270  13.359
75440SOL    HW228154  11.814   4.272  13.494
75441SOL     OW28155   3.472  13.330   3.288
75441SOL    HW128156   3.448  13.320   3.380
75441SOL    HW228157   3.561  13.293   3.282
75442SOL     OW28158   5.799  12.752   2.720
75442SOL    HW128159   5.756  12.819   2.772
75442SOL    HW228160   5.873  12.798   2.679
75443SOL     OW28161   8.468  12.957  10.532
75443SOL    HW128162   8.386  12.932  10.489
75443SOL    HW228163   8.496  12.878  10.578
75444SOL     OW28164   8.152  12.185   1.187
75444SOL    HW128165   8.171  12.224   1.272
75444SOL    HW228166   8.061  12.155   1.193
75445SOL     OW28167   0.666   2.338   0.619
75445SOL    HW128168   0.734   2.346   0.552
75445SOL    HW228169   0.591   2.386   0.582
75446SOL     OW28170   5.546   5.271  12.583
75446SOL    HW128171   5.615   5.278  12.517
75446SOL    HW228172   5.583   5.216  12.651
75447SOL     OW28173   3.047   1.510  11.174
75447SOL    HW128174   3.036   1.511  11.079
75447SOL    HW228175   3.086   1.595  11.195
75448SOL     OW28176  13.773   7.404  10.262
75448SOL    HW128177  13.716   7.340  10.219
75448SOL    HW228178  13.803   7.360  10.341
75449SOL     OW28179  10.359   2.918   7.582
75449SOL    HW128180  10.331   3.009   7.590
75449SOL    HW228181  10.378   2.891   7.672
75450SOL     OW28182   8.789  11.287  14.589
75450SOL    HW128183   8.801  11.299  14.683
75450SOL    HW228184   8.712  11.230  14.582
75451SOL     OW28185   9.105   2.810   2.938
75451SOL    HW128186   9.126   2.883   2.997
75451SOL    HW228187   9.014   2.826   2.913
75452SOL     OW28188   2.832   3.852   9.726
75452SOL    HW128189   2.911   3.818   9.682
75452SOL    HW228190   2.800   3.921   9.668
75453SOL     OW28191   4.352   5.382  13.698
75453SOL    HW128192   4.433   5.432  13.696
75453SOL    HW228193   4.285   5.446  13.721
75454SOL     OW28194   0.518   7.840   4.557
75454SOL    HW128195   0.431   7.879   4.548
75454SOL    HW228196   0.502   7.746   4.565
75455SOL     OW28197   4.419   2.835   6.207
75455SOL    HW128198   4.441   2.912   6.259
75455SOL    HW228199   4.434   2.863   6.116
75456SOL     OW28200  10.586   4.146   7.591
75456SOL    HW128201  10.587   4.062   7.637
75456SOL    HW228202  10.504   4.187   7.618
75457SOL     OW28203  10.451   5.591   1.590
75457SOL    HW128204  10.491   5.596   1.503
75457SOL    HW228205  10.403   5.674   1.599
75458SOL     OW28206   8.513   7.945   2.205
75458SOL    HW128207   8.418   7.956   2.204
75458SOL    HW228208   8.531   7.886   2.131
75459SOL     OW28209   6.474   2.267  12.464
75459SOL    HW128210   6.392   2.284  12.511
75459SOL    HW228211   6.515   2.353  12.456
75460SOL     OW28212  11.294  14.281   0.080
75460SOL    HW128213  11.337  14.219   0.022
75460SOL    HW228214  11.264  14.351   0.022
75461SOL     OW28215   8.748  13.741   4.641
75461SOL    HW128216   8.798  13.720   4.562
75461SOL    HW228217   8.742  13.837   4.641
75462SOL     OW28218  13.753   7.916   9.446
75462SOL    HW128219  13.802   7.974   9.388
75462SOL    HW228220  13.743   7.835   9.396
75463SOL     OW28221   8.315   7.949   5.924
75463SOL    HW128222   8.344   7.909   5.843
75463SOL    HW228223   8.222   7.931   5.929
75464SOL     OW28224   3.798   6.844   7.539
75464SOL    HW128225   3.814   6.911   7.473
75464SOL    HW228226   3.769   6.767   7.489
75465SOL     OW28227   6.742   3.266  12.608
75465SOL    HW128228   6.808   3.321  12.565
75465SOL    HW228229   6.710   3.209  12.538
75466SOL     OW28230   6.821   7.974   8.569
75466SOL    HW128231   6.749   7.990   8.629
75466SOL    HW228232   6.883   7.921   8.619
75467SOL     OW28233   8.634  10.710  14.746
75467SOL    HW128234   8.689  10.635  14.769
75467SOL    HW228235   8.617  10.754  14.830
75468SOL     OW28236  14.737   2.293  14.707
75468SOL    HW128237  14.713   2.361  14.770
75468SOL    HW228238  14.699   2.213  14.744
75469SOL     OW28239   2.255   1.753   1.053
75469SOL    HW128240   2.273   1.734   0.961
75469SOL    HW228241   2.160   1.743   1.062
75470SOL     OW28242  12.775  13.923   6.789
75470SOL    HW128243  12.859  13.920   6.744
75470SOL    HW228244  12.747  14.014   6.782
75471SOL     OW28245   2.291  14.380  14.285
75471SOL    HW128246   2.284  14.407  14.376
75471SOL    HW228247   2.305  14.285  14.289
75472SOL     OW28248   4.174   4.016   9.443
75472SOL    HW128249   4.168   3.943   9.505
75472SOL    HW228250   4.084   4.049   9.437
75473SOL     OW28251   2.362   1.317  10.543
75473SOL    HW128252   2.362   1.377  10.618
75473SOL    HW228253   2.450   1.326  10.506
75474SOL     OW28254   4.239   8.276   8.668
75474SOL    HW128255   4.281   8.361   8.656
75474SOL    HW228256   4.274   8.243   8.751
75475SOL     OW28257   3.528   7.624   5.687
75475SOL    HW128258   3.569   7.540   5.668
75475SOL    HW228259   3.593   7.672   5.739
75476SOL     OW28260   1.340   3.135   0.261
75476SOL    HW128261   1.420   3.082   0.254
75476SOL    HW228262   1.347   3.199   0.190
75477SOL     OW28263   8.942  14.422   4.147
75477SOL    HW128264   8.953  14.347   4.089
75477SOL    HW228265   8.983  14.395   4.229
75478SOL     OW28266  12.122  12.633  12.299
75478SOL    HW128267  12.179  12.584  12.240
75478SOL    HW228268  12.182  12.693  12.345
75479SOL     OW28269  11.784   7.083   8.853
75479SOL    HW128270  11.725   7.027   8.902
75479SOL    HW228271  11.793   7.162   8.906
75480SOL     OW28272  14.541   0.553  13.272
75480SOL    HW128273  14.486   0.610  13.219
75480SOL    HW228274  14.509   0.566  13.362
75481SOL     OW28275   0.296   4.550   8.811
75481SOL    HW128276   0.318   4.582   8.723
75481SOL    HW228277   0.325   4.459   8.810
75482SOL     OW28278   8.820   8.992  13.953
75482SOL    HW128279   8.731   8.959  13.964
75482SOL    HW228280   8.861   8.933  13.890
75483SOL     OW28281   3.208  11.813  11.585
75483SOL    HW128282   3.224  11.908  11.583
75483SOL    HW228283   3.280  11.778  11.637
75484SOL     OW28284  11.932  11.947   1.211
75484SOL    HW128285  11.888  12.024   1.246
75484SOL    HW228286  12.026  11.965   1.222
75485SOL     OW28287   7.084   6.372   2.942
75485SOL    HW128288   6.991   6.374   2.919
75485SOL    HW228289   7.104   6.279   2.953
75486SOL     OW28290  12.866   1.035  10.202
75486SOL    HW128291  12.815   1.114  10.189
75486SOL    HW228292  12.827   0.971  10.142
75487SOL     OW28293   6.024  12.366  10.286
75487SOL    HW128294   5.958  12.315  10.238
75487SOL    HW228295   6.060  12.426  10.221
75488SOL     OW28296   7.883   8.439  10.852
75488SOL    HW128297   7.825   8.404  10.919
75488SOL    HW228298   7.873   8.381  10.777
75489SOL     OW28299  10.469   8.473  11.198
75489SOL    HW128300  10.527   8.512  11.264
75489SOL    HW228301  10.454   8.543  11.135
75490SOL     OW28302   0.857   4.188  12.775
75490SOL    HW128303   0.854   4.206  12.869
75490SOL    HW228304   0.863   4.274  12.734
75491SOL     OW28305   1.977   4.179   3.584
75491SOL    HW128306   2.023   4.120   3.525
75491SOL    HW228307   1.898   4.132   3.608
75492SOL     OW28308   3.626   9.424   7.615
75492SOL    HW128309   3.610   9.351   7.674
75492SOL    HW228310   3.719   9.443   7.625
75493SOL     OW28311  12.597   7.564   5.682
75493SOL    HW128312  12.655   7.488   5.678
75493SOL    HW228313  12.650   7.637   5.649
75494SOL     OW28314   5.321  10.599   8.431
75494SOL    HW128315   5.306  10.530   8.497
75494SOL    HW228316   5.305  10.555   8.347
75495SOL     OW28317   0.129   8.014   1.666
75495SOL    HW128318   0.214   8.049   1.640
75495SOL    HW228319   0.067   8.084   1.645
75496SOL     OW28320   7.551  10.972   0.394
75496SOL    HW128321   7.600  10.980   0.476
75496SOL    HW228322   7.473  10.922   0.418
75497SOL     OW28323  10.762   7.061   7.854
75497SOL    HW128324  10.826   7.129   7.876
75497SOL    HW228325  10.814   6.990   7.815
75498SOL     OW28326  13.330  14.842  10.254
75498SOL    HW128327  13.415  14.798  10.263
75498SOL    HW228328  13.273  14.777  10.214
75499SOL     OW28329   7.155   8.066   9.541
75499SOL    HW128330   7.179   8.008   9.613
75499SOL    HW228331   7.162   8.012   9.463
75500SOL     OW28332   9.544   3.699   8.338
75500SOL    HW128333   9.459   3.655   8.344
75500SOL    HW228334   9.605   3.638   8.380
75501SOL     OW28335   4.052   9.378   4.116
75501SOL    HW128336   4.095   9.432   4.049
75501SOL    HW228337   4.101   9.295   4.115
75502SOL     OW28338   4.460  13.775   8.395
75502SOL    HW128339   4.524  13.843   8.417
75502SOL    HW228340   4.375  13.820   8.400
75503SOL     OW28341   7.788  13.453  13.027
75503SOL    HW128342   7.873  13.423  12.997
75503SOL    HW228343   7.773  13.406  13.109
75504SOL     OW28344  11.562   4.368   6.447
75504SOL    HW128345  11.585   4.367   6.354
75504SOL    HW228346  11.521   4.282   6.462
75505SOL     OW28347   2.845   0.623  14.204
75505SOL    HW128348   2.766   0.570  14.209
75505SOL    HW228349   2.828   0.685  14.133
75506SOL     OW28350  12.346   5.660   4.538
75506SOL    HW128351  12.329   5.638   4.446
75506SOL    HW228352  12.384   5.748   4.535
75507SOL     OW28353   1.418  10.858   7.820
75507SOL    HW128354   1.415  10.918   7.746
75507SOL    HW228355   1.326  10.836   7.836
75508SOL     OW28356  11.646   1.258  13.188
75508SOL    HW128357  11.676   1.345  13.213
75508SOL    HW228358  11.607   1.222  13.267
75509SOL     OW28359   9.337   8.913   3.367
75509SOL    HW128360   9.358   8.840   3.426
75509SOL    HW228361   9.344   8.991   3.422
75510SOL     OW28362   3.713   7.470  13.670
75510SOL    HW128363   3.644   7.472  13.736
75510SOL    HW228364   3.788   7.514  13.711
75511SOL     OW28365   1.570  14.258  14.179
75511SOL    HW128366   1.561  14.178  14.230
75511SOL    HW228367   1.487  14.265  14.131
75512SOL     OW28368   0.717   0.637   2.074
75512SOL    HW128369   0.783   0.571   2.056
75512SOL    HW228370   0.766   0.714   2.102
75513SOL     OW28371   2.749   4.364  12.778
75513SOL    HW128372   2.831   4.405  12.749
75513SOL    HW228373   2.702   4.343  12.697
75514SOL     OW28374  10.147   2.080   5.619
75514SOL    HW128375  10.098   2.119   5.547
75514SOL    HW228376  10.208   2.148   5.648
75515SOL     OW28377   1.099   1.509  14.078
75515SOL    HW128378   1.133   1.423  14.051
75515SOL    HW228379   1.067   1.548  13.997
75516SOL     OW28380   1.691  12.120   7.014
75516SOL    HW128381   1.717  12.028   7.008
75516SOL    HW228382   1.759  12.168   6.968
75517SOL     OW28383   2.534  14.673   5.881
75517SOL    HW128384   2.493  14.691   5.966
75517SOL    HW228385   2.628  14.676   5.899
75518SOL     OW28386  11.657   5.858   0.061
75518SOL    HW128387  11.698   5.927   0.113
75518SOL    HW228388  11.667   5.779   0.114
75519SOL     OW28389   5.240  11.349  10.600
75519SOL    HW128390   5.311  11.406  10.573
75519SOL    HW228391   5.172  11.363  10.534
75520SOL     OW28392   1.294   7.335   7.849
75520SOL    HW128393   1.203   7.308   7.859
75520SOL    HW228394   1.297   7.378   7.763
75521SOL     OW28395   5.204  13.591   9.847
75521SOL    HW128396   5.260  13.514   9.852
75521SOL    HW228397   5.127  13.569   9.900
75522SOL     OW28398   3.600   2.498  10.835
75522SOL    HW128399   3.534   2.435  10.865
75522SOL    HW228400   3.553   2.581  10.832
75523SOL     OW28401   6.089   6.471   4.530
75523SOL    HW128402   6.108   6.442   4.441
75523SOL    HW228403   6.099   6.392   4.583
75524SOL     OW28404   5.595   7.512  10.494
75524SOL    HW128405   5.624   7.592  10.448
75524SOL    HW228406   5.633   7.520  10.581
75525SOL     OW28407   9.912   3.029  13.592
75525SOL    HW128408   9.859   3.022  13.672
75525SOL    HW228409   9.874   3.104  13.545
75526SOL     OW28410   5.103   3.334   5.608
75526SOL    HW128411   5.040   3.381   5.663
75526SOL    HW228412   5.179   3.393   5.603
75527SOL     OW28413   8.854  14.788   9.960
75527SOL    HW128414   8.790  14.777   9.889
75527SOL    HW228415   8.877   0.008   9.958
75528SOL     OW28416   6.553   6.108   5.431
75528SOL    HW128417   6.472   6.068   5.400
75528SOL    HW228418   6.618   6.038   5.426
75529SOL     OW28419  12.038   5.540   1.511
75529SOL    HW128420  12.111   5.599   1.526
75529SOL    HW228421  12.077   5.464   1.467
75530SOL     OW28422  12.749  11.176   7.913
75530SOL    HW128423  12.761  11.081   7.908
75530SOL    HW228424  12.700  11.198   7.833
75531SOL     OW28425   4.792  12.173  14.466
75531SOL    HW128426   4.876  12.191  14.507
75531SOL    HW228427   4.745  12.256  14.469
75532SOL     OW28428   3.278  11.901  13.679
75532SOL    HW128429   3.221  11.974  13.701
75532SOL    HW228430   3.220  11.836  13.639
75533SOL     OW28431  12.161  13.976  11.269
75533SOL    HW128432  12.150  13.955  11.176
75533SOL    HW228433  12.192  13.895  11.308
75534SOL     OW28434   5.561   4.460   0.156
75534SOL    HW128435   5.582   4.380   0.203
75534SOL    HW228436   5.473   4.446   0.121
75535SOL     OW28437  13.181  12.322   0.671
75535SOL    HW128438  13.252  12.360   0.723
75535SOL    HW228439  13.101  12.352   0.714
75536SOL     OW28440   4.469   4.775   7.627
75536SOL    HW128441   4.526   4.852   7.625
75536SOL    HW228442   4.441   4.769   7.719
75537SOL     OW28443   6.375  10.920   3.175
75537SOL    HW128444   6.370  10.841   3.122
75537SOL    HW228445   6.408  10.987   3.115
75538SOL     OW28446   6.842   2.083   1.206
75538SOL    HW128447   6.816   2.033   1.129
75538SOL    HW228448   6.766   2.137   1.226
75539SOL     OW28449   5.189  11.382   4.977
75539SOL    HW128450   5.194  11.477   4.966
75539SOL    HW228451   5.135  11.370   5.055
75540SOL     OW28452   4.623  12.578  12.474
75540SOL    HW128453   4.648  12.586  12.382
75540SOL    HW228454   4.628  12.667  12.509
75541SOL     OW28455  13.787   2.080   0.551
75541SOL    HW128456  13.787   1.987   0.576
75541SOL    HW228457  13.869   2.091   0.503
75542SOL     OW28458   0.719   3.088  12.115
75542SOL    HW128459   0.755   3.142  12.044
75542SOL    HW228460   0.704   3.150  12.187
75543SOL     OW28461   1.291   5.327  14.836
75543SOL    HW128462   1.229   5.375  14.781
75543SOL    HW228463   1.364   5.306  14.778
75544SOL     OW28464  10.802   1.941   7.432
75544SOL    HW128465  10.838   1.930   7.344
75544SOL    HW228466  10.791   1.852   7.464
75545SOL     OW28467   7.809   2.248   7.789
75545SOL    HW128468   7.767   2.207   7.865
75545SOL    HW228469   7.873   2.183   7.759
75546SOL     OW28470  12.847   7.591  13.568
75546SOL    HW128471  12.875   7.499  13.570
75546SOL    HW228472  12.928   7.640  13.556
75547SOL     OW28473  12.522   7.176   9.304
75547SOL    HW128474  12.513   7.119   9.227
75547SOL    HW228475  12.606   7.220   9.291
75548SOL     OW28476   3.549  11.451   3.350
75548SOL    HW128477   3.528  11.411   3.435
75548SOL    HW228478   3.593  11.533   3.372
75549SOL     OW28479   1.826   5.156  11.518
75549SOL    HW128480   1.857   5.067  11.506
75549SOL    HW228481   1.819   5.192  11.430
75550SOL     OW28482   5.972  10.286  12.734
75550SOL    HW128483   5.885  10.291  12.774
75550SOL    HW228484   5.954  10.289  12.640
75551SOL     OW28485   9.227   7.730   8.925
75551SOL    HW128486   9.174   7.756   8.850
75551SOL    HW228487   9.307   7.694   8.886
75552SOL     OW28488  12.409   6.457   6.702
75552SOL    HW128489  12.350   6.521   6.663
75552SOL    HW228490  12.369   6.372   6.683
75553SOL     OW28491   7.458   8.315   8.794
75553SOL    HW128492   7.410   8.342   8.716
75553SOL    HW228493   7.414   8.359   8.867
75554SOL     OW28494  13.131   1.193   4.149
75554SOL    HW128495  13.143   1.099   4.147
75554SOL    HW228496  13.194   1.225   4.213
75555SOL     OW28497   1.297  12.080   0.898
75555SOL    HW128498   1.378  12.077   0.847
75555SOL    HW228499   1.229  12.053   0.837
75556SOL     OW28500   3.836   4.283  14.441
75556SOL    HW128501   3.776   4.327  14.502
75556SOL    HW228502   3.914   4.338  14.441
75557SOL     OW28503   1.603   6.357   6.676
75557SOL    HW128504   1.637   6.444   6.655
75557SOL    HW228505   1.563   6.367   6.762
75558SOL     OW28506   4.529   8.018   5.075
75558SOL    HW128507   4.472   8.024   5.152
75558SOL    HW228508   4.539   8.109   5.045
75559SOL     OW28509   6.318  11.365   4.582
75559SOL    HW128510   6.223  11.364   4.567
75559SOL    HW228511   6.333  11.442   4.637
75560SOL     OW28512   1.525   9.050   7.458
75560SOL    HW128513   1.494   8.959   7.452
75560SOL    HW228514   1.600   9.046   7.517
75561SOL     OW28515   5.103   8.498  10.192
75561SOL    HW128516   5.031   8.561  10.200
75561SOL    HW228517   5.087   8.434  10.261
75562SOL     OW28518   8.000   0.634   0.181
75562SOL    HW128519   8.001   0.619   0.087
75562SOL    HW228520   8.059   0.567   0.217
75563SOL     OW28521   9.565  10.799   6.124
75563SOL    HW128522   9.654  10.792   6.090
75563SOL    HW228523   9.521  10.721   6.091
75564SOL     OW28524   4.195   4.123   1.836
75564SOL    HW128525   4.195   4.036   1.875
75564SOL    HW228526   4.259   4.172   1.886
75565SOL     OW28527  10.576   9.469   2.319
75565SOL    HW128528  10.614   9.444   2.234
75565SOL    HW228529  10.558   9.386   2.363
75566SOL     OW28530   9.926   5.810  13.063
75566SOL    HW128531   9.974   5.755  13.124
75566SOL    HW228532   9.849   5.839  13.112
75567SOL     OW28533  14.277  10.507   6.471
75567SOL    HW128534  14.313  10.421   6.493
75567SOL    HW228535  14.262  10.550   6.555
75568SOL     OW28536  13.478  13.152  13.389
75568SOL    HW128537  13.487  13.239  13.350
75568SOL    HW228538  13.431  13.101  13.323
75569SOL     OW28539   6.708   5.642   3.659
75569SOL    HW128540   6.698   5.609   3.749
75569SOL    HW228541   6.757   5.724   3.669
75570SOL     OW28542   5.576   8.731   4.632
75570SOL    HW128543   5.578   8.658   4.693
75570SOL    HW228544   5.483   8.744   4.613
75571SOL     OW28545   3.541   3.133   1.689
75571SOL    HW128546   3.545   3.087   1.605
75571SOL    HW228547   3.532   3.064   1.754
75572SOL     OW28548   3.997  12.800   7.229
75572SOL    HW128549   3.926  12.862   7.244
75572SOL    HW228550   4.013  12.761   7.315
75573SOL     OW28551   6.669  14.679   3.673
75573SOL    HW128552   6.701  14.665   3.763
75573SOL    HW228553   6.574  14.685   3.683
75574SOL     OW28554   8.612   6.027  11.905
75574SOL    HW128555   8.531   6.015  11.955
75574SOL    HW228556   8.605   6.115  11.868
75575SOL     OW28557   6.377   1.401  13.064
75575SOL    HW128558   6.319   1.476  13.079
75575SOL    HW228559   6.348   1.364  12.981
75576SOL     OW28560   6.479   3.731  11.549
75576SOL    HW128561   6.507   3.650  11.508
75576SOL    HW228562   6.467   3.792  11.477
75577SOL     OW28563   6.749  10.535  10.550
75577SOL    HW128564   6.775  10.586  10.473
75577SOL    HW228565   6.697  10.463  10.515
75578SOL     OW28566   4.333   1.838  10.956
75578SOL    HW128567   4.350   1.746  10.979
75578SOL    HW228568   4.246   1.837  10.916
75579SOL     OW28569  13.431   8.845   9.945
75579SOL    HW128570  13.420   8.842   9.850
75579SOL    HW228571  13.399   8.759   9.975
75580SOL     OW28572   3.646  13.794   1.259
75580SOL    HW128573   3.571  13.766   1.312
75580SOL    HW228574   3.652  13.727   1.191
75581SOL     OW28575   2.473   6.324   7.285
75581SOL    HW128576   2.447   6.336   7.377
75581SOL    HW228577   2.406   6.267   7.249
75582SOL     OW28578   9.660  14.751   2.569
75582SOL    HW128579   9.680  14.844   2.582
75582SOL    HW228580   9.580  14.751   2.516
75583SOL     OW28581   9.356   5.988  11.194
75583SOL    HW128582   9.446   5.958  11.196
75583SOL    HW228583   9.357   6.063  11.134
75584SOL     OW28584   6.544  11.500   6.480
75584SOL    HW128585   6.614  11.558   6.511
75584SOL    HW228586   6.588  11.417   6.463
75585SOL     OW28587   5.814   0.962   7.435
75585SOL    HW128588   5.900   0.926   7.457
75585SOL    HW228589   5.816   1.051   7.468
75586SOL     OW28590   2.089  11.053   4.964
75586SOL    HW128591   2.077  10.970   4.917
75586SOL    HW228592   2.028  11.048   5.037
75587SOL     OW28593  11.985  10.057   4.081
75587SOL    HW128594  12.079  10.057   4.067
75587SOL    HW228595  11.955   9.974   4.043
75588SOL     OW28596   9.754   2.984  13.808
75588SOL    HW128597   9.718   3.068  13.778
75588SOL    HW228598   9.702   2.918  13.762
75589SOL     OW28599   3.252   4.840  13.957
75589SOL    HW128600   3.205   4.922  13.941
75589SOL    HW228601   3.185   4.773  13.951
75590SOL     OW28602   8.025  13.270  14.504
75590SOL    HW128603   8.027  13.225  14.420
75590SOL    HW228604   7.933  13.270  14.529
75591SOL     OW28605   9.746  11.767  14.249
75591SOL    HW128606   9.652  11.784  14.258
75591SOL    HW228607   9.772  11.817  14.172
75592SOL     OW28608   9.051  11.216  10.101
75592SOL    HW128609   9.054  11.222  10.006
75592SOL    HW228610   8.960  11.193  10.121
75593SOL     OW28611   8.865   9.083   3.345
75593SOL    HW128612   8.896   8.995   3.324
75593SOL    HW228613   8.927   9.116   3.410
75594SOL     OW28614  13.448   4.011   4.390
75594SOL    HW128615  13.399   3.941   4.347
75594SOL    HW228616  13.383   4.078   4.408
75595SOL     OW28617  11.850  14.069  10.153
75595SOL    HW128618  11.807  14.154  10.157
75595SOL    HW228619  11.864  14.044  10.244
75596SOL     OW28620   3.694   0.066   2.910
75596SOL    HW128621   3.653   0.024   2.986
75596SOL    HW228622   3.784   0.081   2.937
75597SOL     OW28623   4.201  14.761   8.623
75597SOL    HW128624   4.291  14.751   8.591
75597SOL    HW228625   4.164  14.673   8.614
75598SOL     OW28626  14.126  13.722  14.163
75598SOL    HW128627  14.215  13.697  14.187
75598SOL    HW228628  14.110  13.803  14.212
75599SOL     OW28629   6.668   0.553  11.470
75599SOL    HW128630   6.677   0.536  11.564
75599SOL    HW228631   6.575   0.572  11.457
75600SOL     OW28632  10.862  13.399   9.357
75600SOL    HW128633  10.860  13.491   9.333
75600SOL    HW228634  10.793  13.359   9.304
75601SOL     OW28635   9.878   0.010   1.375
75601SOL    HW128636   9.917   0.027   1.461
75601SOL    HW228637   9.852   0.096   1.343
75602SOL     OW28638   7.979   4.464   3.374
75602SOL    HW128639   8.038   4.466   3.449
75602SOL    HW228640   7.973   4.371   3.350
75603SOL     OW28641  13.402  12.876   1.045
75603SOL    HW128642  13.492  12.864   1.077
75603SOL    HW228643  13.377  12.963   1.077
75604SOL     OW28644   6.587   4.130   2.414
75604SOL    HW128645   6.623   4.218   2.403
75604SOL    HW228646   6.664   4.073   2.412
75605SOL     OW28647   2.513   1.738  12.132
75605SOL    HW128648   2.498   1.649  12.163
75605SOL    HW228649   2.586   1.731  12.071
75606SOL     OW28650   0.059   8.962   5.713
75606SOL    HW128651   0.046   8.936   5.804
75606SOL    HW228652   0.002   8.904   5.662
75607SOL     OW28653   9.076   0.628   1.090
75607SOL    HW128654   9.148   0.626   1.153
75607SOL    HW228655   8.997   0.634   1.144
75608SOL     OW28656   8.063   9.519   1.416
75608SOL    HW128657   8.139   9.535   1.472
75608SOL    HW228658   8.088   9.444   1.362
75609SOL     OW28659   3.542   7.298  10.606
75609SOL    HW128660   3.618   7.273  10.555
75609SOL    HW228661   3.558   7.390  10.630
75610SOL     OW28662  13.861  10.208   8.678
75610SOL    HW128663  13.819  10.263   8.744
75610SOL    HW228664  13.937  10.259   8.650
75611SOL     OW28665   7.078  12.371   4.750
75611SOL    HW128666   7.017  12.316   4.701
75611SOL    HW228667   7.080  12.454   4.702
75612SOL     OW28668  12.239  10.432   9.393
75612SOL    HW128669  12.216  10.524   9.406
75612SOL    HW228670  12.238  10.421   9.298
75613SOL     OW28671   7.162  10.136   4.301
75613SOL    HW128672   7.239  10.091   4.266
75613SOL    HW228673   7.175  10.228   4.277
75614SOL     OW28674   3.773   3.923   8.661
75614SOL    HW128675   3.820   3.944   8.580
75614SOL    HW228676   3.745   3.832   8.649
75615SOL     OW28677   7.700   0.681   6.427
75615SOL    HW128678   7.739   0.613   6.481
75615SOL    HW228679   7.611   0.690   6.459
75616SOL     OW28680  10.317   1.176  12.397
75616SOL    HW128681  10.349   1.086  12.395
75616SOL    HW228682  10.279   1.187  12.484
75617SOL     OW28683   8.283  10.430  11.029
75617SOL    HW128684   8.378  10.435  11.019
75617SOL    HW228685   8.249  10.438  10.939
75618SOL     OW28686  12.011   3.929  12.959
75618SOL    HW128687  11.932   3.974  12.928
75618SOL    HW228688  11.988   3.837  12.958
75619SOL     OW28689  13.023   6.934  14.571
75619SOL    HW128690  13.094   6.992  14.544
75619SOL    HW228691  13.054   6.846  14.550
75620SOL     OW28692   1.604   3.289   6.587
75620SOL    HW128693   1.606   3.292   6.682
75620SOL    HW228694   1.518   3.252   6.566
75621SOL     OW28695   6.654   5.945   1.952
75621SOL    HW128696   6.657   6.011   2.021
75621SOL    HW228697   6.617   5.867   1.995
75622SOL     OW28698  13.204   4.573  12.466
75622SOL    HW128699  13.231   4.509  12.532
75622SOL    HW228700  13.276   4.576  12.404
75623SOL     OW28701   0.657   2.321  14.039
75623SOL    HW128702   0.570   2.281  14.042
75623SOL    HW228703   0.706   2.277  14.108
75624SOL     OW28704   8.100  12.003   9.295
75624SOL    HW128705   8.137  11.932   9.242
75624SOL    HW228706   8.109  12.081   9.240
75625SOL     OW28707   2.965  12.577   5.247
75625SOL    HW128708   3.029  12.507   5.255
75625SOL    HW228709   2.940  12.597   5.337
75626SOL     OW28710   0.662  12.018   8.363
75626SOL    HW128711   0.688  12.066   8.284
75626SOL    HW228712   0.584  12.065   8.394
75627SOL     OW28713  13.352   0.213   6.730
75627SOL    HW128714  13.261   0.238   6.747
75627SOL    HW228715  13.364   0.132   6.779
75628SOL     OW28716   7.414   4.369   3.433
75628SOL    HW128717   7.503   4.345   3.405
75628SOL    HW228718   7.412   4.465   3.424
75629SOL     OW28719  13.368  12.968   2.112
75629SOL    HW128720  13.334  13.008   2.032
75629SOL    HW228721  13.461  12.988   2.111
75630SOL     OW28722  13.484   4.321  10.490
75630SOL    HW128723  13.389   4.328  10.500
75630SOL    HW228724  13.518   4.327  10.579
75631SOL     OW28725   7.836   0.171  12.002
75631SOL    HW128726   7.768   0.237  12.013
75631SOL    HW228727   7.791   0.094  11.970
75632SOL     OW28728   9.389  12.153   1.180
75632SOL    HW128729   9.390  12.062   1.148
75632SOL    HW228730   9.436  12.150   1.263
75633SOL     OW28731   3.238   5.488   8.400
75633SOL    HW128732   3.312   5.543   8.375
75633SOL    HW228733   3.224   5.432   8.323
75634SOL     OW28734  10.807  14.243  13.578
75634SOL    HW128735  10.878  14.182  13.556
75634SOL    HW228736  10.729  14.188  13.585
75635SOL     OW28737  13.311   4.651  10.624
75635SOL    HW128738  13.361   4.622  10.549
75635SOL    HW228739  13.231   4.597  10.622
75636SOL     OW28740   0.363  14.433   3.305
75636SOL    HW128741   0.457  14.449   3.295
75636SOL    HW228742   0.336  14.490   3.376
75637SOL     OW28743  13.412  10.479  13.170
75637SOL    HW128744  13.469  10.520  13.235
75637SOL    HW228745  13.337  10.447  13.220
75638SOL     OW28746   5.686   6.811  11.633
75638SOL    HW128747   5.780   6.805  11.619
75638SOL    HW228748   5.672   6.772  11.719
75639SOL     OW28749   6.804   9.465   0.103
75639SOL    HW128750   6.710   9.454   0.115
75639SOL    HW228751   6.843   9.386   0.141
75640SOL     OW28752   2.966   7.579  10.703
75640SOL    HW128753   2.964   7.488  10.674
75640SOL    HW228754   2.899   7.623  10.651
75641SOL     OW28755   0.354  12.042   9.745
75641SOL    HW128756   0.367  12.125   9.699
75641SOL    HW228757   0.372  12.063   9.837
75642SOL     OW28758   1.017   4.115   4.142
75642SOL    HW128759   1.018   4.028   4.101
75642SOL    HW228760   0.941   4.158   4.104
75643SOL     OW28761   3.992   6.644   8.926
75643SOL    HW128762   3.968   6.725   8.969
75643SOL    HW228763   4.053   6.670   8.857
75644SOL     OW28764  13.208   7.439  14.198
75644SOL    HW128765  13.300   7.452  14.219
75644SOL    HW228766  13.161   7.471  14.275
75645SOL     OW28767  12.905   0.109  10.121
75645SOL    HW128768  12.841   0.042  10.147
75645SOL    HW228769  12.962   0.119  10.197
75646SOL     OW28770  11.427   9.227   1.083
75646SOL    HW128771  11.402   9.187   1.166
75646SOL    HW228772  11.375   9.181   1.017
75647SOL     OW28773   1.556   3.149   2.633
75647SOL    HW128774   1.574   3.120   2.543
75647SOL    HW228775   1.641   3.145   2.676
75648SOL     OW28776  10.735   0.661   1.355
75648SOL    HW128777  10.818   0.706   1.369
75648SOL    HW228778  10.670   0.716   1.401
75649SOL     OW28779   1.560  10.654  10.071
75649SOL    HW128780   1.495  10.606  10.122
75649SOL    HW228781   1.528  10.745  10.071
75650SOL     OW28782   0.563   0.186  13.565
75650SOL    HW128783   0.517   0.263  13.600
75650SOL    HW228784   0.623   0.222  13.500
75651SOL     OW28785   8.542   7.261   4.573
75651SOL    HW128786   8.570   7.182   4.527
75651SOL    HW228787   8.579   7.333   4.522
75652SOL     OW28788  14.471   2.637   2.672
75652SOL    HW128789  14.541   2.676   2.724
75652SOL    HW228790  14.505   2.635   2.583
75653SOL     OW28791   5.634  12.860  11.558
75653SOL    HW128792   5.706  12.923  11.556
75653SOL    HW228793   5.655  12.798  11.488
75654SOL     OW28794  13.302  11.942  10.725
75654SOL    HW128795  13.338  11.973  10.808
75654SOL    HW228796  13.359  11.870  10.698
75655SOL     OW28797  11.051   7.248   3.719
75655SOL    HW128798  11.054   7.158   3.685
75655SOL    HW228799  10.965   7.254   3.762
75656SOL     OW28800  14.714   5.906   0.131
75656SOL    HW128801  14.677   5.975   0.186
75656SOL    HW228802  14.807   5.904   0.153
75657SOL     OW28803   9.152  14.117  10.055
75657SOL    HW128804   9.174  14.140   9.965
75657SOL    HW228805   9.130  14.024  10.051
75658SOL     OW28806   1.681   7.711   7.386
75658SOL    HW128807   1.667   7.619   7.364
75658SOL    HW228808   1.698   7.754   7.302
75659SOL     OW28809  13.059   6.811   6.765
75659SOL    HW128810  12.997   6.848   6.702
75659SOL    HW228811  13.034   6.718   6.771
75660SOL     OW28812   0.249   7.857  13.443
75660SOL    HW128813   0.202   7.811  13.373
75660SOL    HW228814   0.272   7.942  13.406
75661SOL     OW28815   6.900   4.721   2.794
75661SOL    HW128816   6.908   4.646   2.735
75661SOL    HW228817   6.887   4.796   2.736
75662SOL     OW28818  12.259  11.076   1.293
75662SOL    HW128819  12.205  11.139   1.246
75662SOL    HW228820  12.214  10.993   1.282
75663SOL     OW28821   9.624  10.115   9.861
75663SOL    HW128822   9.562  10.183   9.833
75663SOL    HW228823   9.643  10.137   9.953
75664SOL     OW28824  14.714   7.602   1.640
75664SOL    HW128825  14.745   7.686   1.673
75664SOL    HW228826  14.783   7.573   1.581
75665SOL     OW28827   2.145  10.452   3.620
75665SOL    HW128828   2.200  10.452   3.699
75665SOL    HW228829   2.097  10.369   3.625
75666SOL     OW28830  10.965   9.575   1.757
75666SOL    HW128831  11.032   9.574   1.689
75666SOL    HW228832  11.006   9.530   1.831
75667SOL     OW28833  11.983  14.682  11.617
75667SOL    HW128834  11.896  14.713  11.642
75667SOL    HW228835  11.967  14.605  11.563
75668SOL     OW28836  13.403   8.129   4.236
75668SOL    HW128837  13.388   8.220   4.261
75668SOL    HW228838  13.498   8.117   4.242
75669SOL     OW28839   7.848   8.184   5.699
75669SOL    HW128840   7.821   8.110   5.644
75669SOL    HW228841   7.769   8.207   5.748
75670SOL     OW28842   4.478  11.083   9.371
75670SOL    HW128843   4.455  11.170   9.404
75670SOL    HW228844   4.570  11.072   9.396
75671SOL     OW28845   9.191   1.663   4.241
75671SOL    HW128846   9.283   1.657   4.216
75671SOL    HW228847   9.176   1.757   4.256
75672SOL     OW28848   6.147   5.628  12.552
75672SOL    HW128849   6.118   5.546  12.594
75672SOL    HW228850   6.137   5.611  12.459
75673SOL     OW28851   0.735   4.787  14.184
75673SOL    HW128852   0.716   4.855  14.248
75673SOL    HW228853   0.812   4.818  14.137
75674SOL     OW28854   2.583   5.431  12.712
75674SOL    HW128855   2.526   5.355  12.725
75674SOL    HW228856   2.569   5.485  12.789
75675SOL     OW28857  14.323  10.181   1.737
75675SOL    HW128858  14.249  10.121   1.751
75675SOL    HW228859  14.349  10.165   1.647
75676SOL     OW28860   3.799  11.437   5.583
75676SOL    HW128861   3.786  11.463   5.674
75676SOL    HW228862   3.894  11.436   5.572
75677SOL     OW28863   9.503   5.480   4.751
75677SOL    HW128864   9.430   5.519   4.704
75677SOL    HW228865   9.490   5.386   4.743
75678SOL     OW28866  12.895  10.913   1.510
75678SOL    HW128867  12.869  10.953   1.593
75678SOL    HW228868  12.932  10.828   1.535
75679SOL     OW28869   4.623  14.593   7.320
75679SOL    HW128870   4.534  14.591   7.285
75679SOL    HW228871   4.659  14.676   7.289
75680SOL     OW28872   3.352   9.740   6.248
75680SOL    HW128873   3.436   9.707   6.214
75680SOL    HW228874   3.303   9.765   6.170
75681SOL     OW28875   1.018   9.239   3.332
75681SOL    HW128876   0.976   9.277   3.255
75681SOL    HW228877   1.034   9.148   3.309
75682SOL     OW28878   1.815   2.830   3.922
75682SOL    HW128879   1.844   2.809   3.833
75682SOL    HW228880   1.887   2.802   3.978
75683SOL     OW28881   3.720   3.838   8.201
75683SOL    HW128882   3.763   3.920   8.173
75683SOL    HW228883   3.662   3.865   8.272
75684SOL     OW28884  11.098  13.102   8.436
75684SOL    HW128885  11.070  13.132   8.522
75684SOL    HW228886  11.138  13.179   8.396
75685SOL     OW28887  12.798   9.126  10.050
75685SOL    HW128888  12.725   9.187  10.055
75685SOL    HW228889  12.782   9.062  10.120
75686SOL     OW28890  10.585  14.663   0.047
75686SOL    HW128891  10.598  14.633  14.830
75686SOL    HW228892  10.514  14.727   0.041
75687SOL     OW28893   2.177   2.620  11.537
75687SOL    HW128894   2.225   2.545  11.573
75687SOL    HW228895   2.089   2.586  11.519
75688SOL     OW28896   6.221  12.780   9.679
75688SOL    HW128897   6.198  12.864   9.639
75688SOL    HW228898   6.196  12.714   9.615
75689SOL     OW28899  13.417   1.827   5.671
75689SOL    HW128900  13.400   1.742   5.710
75689SOL    HW228901  13.338   1.846   5.620
75690SOL     OW28902   0.200  10.132   9.421
75690SOL    HW128903   0.214  10.165   9.332
75690SOL    HW228904   0.142  10.057   9.410
75691SOL     OW28905  12.912   9.344  13.031
75691SOL    HW128906  12.918   9.379  12.943
75691SOL    HW228907  12.896   9.250  13.019
75692SOL     OW28908  13.588   1.778   9.930
75692SOL    HW128909  13.492   1.786   9.928
75692SOL    HW228910  13.618   1.826   9.852
75693SOL     OW28911   1.128   1.727  13.527
75693SOL    HW128912   1.065   1.676  13.578
75693SOL    HW228913   1.211   1.716  13.573
75694SOL     OW28914   1.105   8.550   2.576
75694SOL    HW128915   1.030   8.494   2.554
75694SOL    HW228916   1.165   8.538   2.502
75695SOL     OW28917   1.956  14.105   5.673
75695SOL    HW128918   1.863  14.097   5.654
75695SOL    HW228919   1.963  14.182   5.729
75696SOL     OW28920  10.632   1.380  13.785
75696SOL    HW128921  10.581   1.458  13.761
75696SOL    HW228922  10.656   1.340  13.701
75697SOL     OW28923   8.930   0.130  14.270
75697SOL    HW128924   8.881   0.063  14.318
75697SOL    HW228925   8.900   0.213  14.307
75698SOL     OW28926   3.130   5.741   8.380
75698SOL    HW128927   3.139   5.646   8.385
75698SOL    HW228928   3.087   5.756   8.296
75699SOL     OW28929  14.222  13.813   8.913
75699SOL    HW128930  14.257  13.878   8.974
75699SOL    HW228931  14.132  13.842   8.897
75700SOL     OW28932  11.910  13.012   1.043
75700SOL    HW128933  11.992  12.976   1.008
75700SOL    HW228934  11.845  12.945   1.022
75701SOL     OW28935   7.881  12.689   5.401
75701SOL    HW128936   7.814  12.624   5.380
75701SOL    HW228937   7.840  12.746   5.467
75702SOL     OW28938   3.631   9.572   9.789
75702SOL    HW128939   3.607   9.661   9.763
75702SOL    HW228940   3.676   9.536   9.712
75703SOL     OW28941   2.496  14.055  13.612
75703SOL    HW128942   2.580  14.100  13.607
75703SOL    HW228943   2.516  13.965  13.586
75704SOL     OW28944   8.531   5.737   3.230
75704SOL    HW128945   8.520   5.723   3.136
75704SOL    HW228946   8.469   5.675   3.270
75705SOL     OW28947   0.691   6.966   7.222
75705SOL    HW128948   0.761   6.948   7.159
75705SOL    HW228949   0.616   6.989   7.168
75706SOL     OW28950   1.537   8.856   6.782
75706SOL    HW128951   1.540   8.771   6.828
75706SOL    HW228952   1.627   8.889   6.790
75707SOL     OW28953   5.653   4.690   7.324
75707SOL    HW128954   5.670   4.612   7.271
75707SOL    HW228955   5.558   4.699   7.325
75708SOL     OW28956   3.708   6.992   2.761
75708SOL    HW128957   3.766   6.947   2.824
75708SOL    HW228958   3.754   6.985   2.677
75709SOL     OW28959   9.597  12.047   2.762
75709SOL    HW128960   9.668  12.016   2.706
75709SOL    HW228961   9.579  12.135   2.731
75710SOL     OW28962   6.961  14.229   0.237
75710SOL    HW128963   6.895  14.295   0.213
75710SOL    HW228964   7.041  14.258   0.193
75711SOL     OW28965   1.914  11.665   7.452
75711SOL    HW128966   1.856  11.593   7.428
75711SOL    HW228967   1.904  11.674   7.547
75712SOL     OW28968   9.069   1.633  12.532
75712SOL    HW128969   9.054   1.624  12.626
75712SOL    HW228970   9.012   1.706  12.506
75713SOL     OW28971   1.510  11.765   2.066
75713SOL    HW128972   1.604  11.749   2.074
75713SOL    HW228973   1.483  11.712   1.991
75714SOL     OW28974   7.732   6.117  13.272
75714SOL    HW128975   7.776   6.125  13.187
75714SOL    HW228976   7.741   6.024  13.295
75715SOL     OW28977   2.897   1.268   7.826
75715SOL    HW128978   2.857   1.302   7.906
75715SOL    HW228979   2.973   1.324   7.812
75716SOL     OW28980  10.870  13.414   0.440
75716SOL    HW128981  10.880  13.334   0.389
75716SOL    HW228982  10.904  13.392   0.526
75717SOL     OW28983   6.017   2.676   4.159
75717SOL    HW128984   5.989   2.736   4.228
75717SOL    HW228985   5.939   2.621   4.143
75718SOL     OW28986   8.015  11.704  14.446
75718SOL    HW128987   8.046  11.733  14.532
75718SOL    HW228988   7.920  11.698  14.456
75719SOL     OW28989   6.650   5.165   8.163
75719SOL    HW128990   6.631   5.170   8.257
75719SOL    HW228991   6.590   5.228   8.124
75720SOL     OW28992  11.135  11.553  10.071
75720SOL    HW128993  11.168  11.613  10.139
75720SOL    HW228994  11.188  11.574   9.994
75721SOL     OW28995  13.500  11.375  14.045
75721SOL    HW128996  13.586  11.390  14.084
75721SOL    HW228997  13.477  11.458  14.004
75722SOL     OW28998   5.837  13.697  14.020
75722SOL    HW128999   5.872  13.695  14.109
75722SOL    HW229000   5.861  13.784  13.987
75723SOL     OW29001   2.932   7.736   9.741
75723SOL    HW129002   2.974   7.819   9.761
75723SOL    HW229003   2.950   7.721   9.648
75724SOL     OW29004   7.449   4.556  13.705
75724SOL    HW129005   7.534   4.578  13.668
75724SOL    HW229006   7.465   4.550  13.800
75725SOL     OW29007  11.905  12.347   9.777
75725SOL    HW129008  11.855  12.347   9.696
75725SOL    HW229009  11.840  12.349   9.846
75726SOL     OW29010   9.743   2.050   4.836
75726SOL    HW129011   9.806   2.094   4.779
75726SOL    HW229012   9.662   2.048   4.785
75727SOL     OW29013   2.537   9.870   1.676
75727SOL    HW129014   2.616   9.918   1.702
75727SOL    HW229015   2.531   9.800   1.741
75728SOL     OW29016   1.697  12.606   9.406
75728SOL    HW129017   1.666  12.637   9.491
75728SOL    HW229018   1.625  12.625   9.346
75729SOL     OW29019   4.879   7.611   2.992
75729SOL    HW129020   4.942   7.618   3.064
75729SOL    HW229021   4.902   7.529   2.949
75730SOL     OW29022   1.898  12.513   8.740
75730SOL    HW129023   1.947  12.557   8.670
75730SOL    HW229024   1.829  12.575   8.764
75731SOL     OW29025   4.743   1.713  11.910
75731SOL    HW129026   4.812   1.761  11.866
75731SOL    HW229027   4.781   1.627  11.929
75732SOL     OW29028   8.978  12.526  12.784
75732SOL    HW129029   8.930  12.512  12.703
75732SOL    HW229030   9.040  12.454  12.789
75733SOL     OW29031  11.107  14.686   1.814
75733SOL    HW129032  11.028  14.641   1.787
75733SOL    HW229033  11.131  14.741   1.740
75734SOL     OW29034  11.959   3.966  13.509
75734SOL    HW129035  11.885   3.912  13.537
75734SOL    HW229036  11.919   4.040  13.464
75735SOL     OW29037   5.767  14.696  14.817
75735SOL    HW129038   5.809  14.715  14.733
75735SOL    HW229039   5.724  14.611  14.803
75736SOL     OW29040   9.609   2.208  12.458
75736SOL    HW129041   9.564   2.163  12.529
75736SOL    HW229042   9.598   2.301  12.478
75737SOL     OW29043  13.139  12.057   7.299
75737SOL    HW129044  13.087  12.065   7.219
75737SOL    HW229045  13.145  12.146   7.333
75738SOL     OW29046   4.590   1.689   0.192
75738SOL    HW129047   4.509   1.680   0.242
75738SOL    HW229048   4.636   1.607   0.206
75739SOL     OW29049   8.912  12.014  11.045
75739SOL    HW129050   8.924  11.967  11.127
75739SOL    HW229051   8.860  12.091  11.068
75740SOL     OW29052  13.592  11.519  11.834
75740SOL    HW129053  13.569  11.588  11.895
75740SOL    HW229054  13.682  11.494  11.858
75741SOL     OW29055   4.390   9.148   3.827
75741SOL    HW129056   4.443   9.073   3.856
75741SOL    HW229057   4.436   9.224   3.863
75742SOL     OW29058  14.096   7.495   3.728
75742SOL    HW129059  14.176   7.452   3.701
75742SOL    HW229060  14.125   7.576   3.770
75743SOL     OW29061   8.368  12.988   4.952
75743SOL    HW129062   8.431  13.042   4.905
75743SOL    HW229063   8.312  13.051   4.998
75744SOL     OW29064   9.665   1.985   6.366
75744SOL    HW129065   9.723   1.920   6.407
75744SOL    HW229066   9.715   2.019   6.292
75745SOL     OW29067  12.282   2.203   2.528
75745SOL    HW129068  12.217   2.216   2.597
75745SOL    HW229069  12.237   2.151   2.461
75746SOL     OW29070  12.851   2.321   6.893
75746SOL    HW129071  12.934   2.300   6.936
75746SOL    HW229072  12.871   2.397   6.838
75747SOL     OW29073   6.046   6.925  14.296
75747SOL    HW129074   6.104   6.871  14.351
75747SOL    HW229075   5.999   6.980  14.358
75748SOL     OW29076   8.495  14.650   4.604
75748SOL    HW129077   8.586  14.670   4.625
75748SOL    HW229078   8.476  14.569   4.652
75749SOL     OW29079   9.264   9.591   0.882
75749SOL    HW129080   9.281   9.574   0.790
75749SOL    HW229081   9.169   9.597   0.888
75750SOL     OW29082   9.600  12.554  14.698
75750SOL    HW129083   9.616  12.539  14.605
75750SOL    HW229084   9.573  12.646  14.704
75751SOL     OW29085  13.858   4.586   1.345
75751SOL    HW129086  13.873   4.509   1.290
75751SOL    HW229087  13.938   4.637   1.337
75752SOL     OW29088  13.570   2.926  11.505
75752SOL    HW129089  13.509   2.855  11.485
75752SOL    HW229090  13.647   2.907  11.451
75753SOL     OW29091   2.562  14.618   3.716
75753SOL    HW129092   2.618  14.615   3.639
75753SOL    HW229093   2.495  14.552   3.700
75754SOL     OW29094  12.302   5.672   9.056
75754SOL    HW129095  12.376   5.637   9.105
75754SOL    HW229096  12.245   5.710   9.123
75755SOL     OW29097   4.561   7.612   9.301
75755SOL    HW129098   4.520   7.546   9.246
75755SOL    HW229099   4.624   7.564   9.355
75756SOL     OW29100  13.061   4.645  11.805
75756SOL    HW129101  13.140   4.645  11.751
75756SOL    HW229102  13.022   4.731  11.789
75757SOL     OW29103   4.849   4.936   9.816
75757SOL    HW129104   4.924   4.931   9.876
75757SOL    HW229105   4.823   5.028   9.818
75758SOL     OW29106   9.470  10.287  10.280
75758SOL    HW129107   9.445  10.376  10.256
75758SOL    HW229108   9.524  10.257  10.207
75759SOL     OW29109  11.056   8.910   9.214
75759SOL    HW129110  11.031   8.991   9.258
75759SOL    HW229111  11.007   8.911   9.132
75760SOL     OW29112   0.579  10.574   7.356
75760SOL    HW129113   0.574  10.668   7.377
75760SOL    HW229114   0.618  10.534   7.433
75761SOL     OW29115   6.659   1.796   2.239
75761SOL    HW129116   6.605   1.857   2.290
75761SOL    HW229117   6.616   1.711   2.251
75762SOL     OW29118   2.787  10.823   7.140
75762SOL    HW129119   2.782  10.828   7.235
75762SOL    HW229120   2.828  10.906   7.114
75763SOL     OW29121   7.143  12.268   0.248
75763SOL    HW129122   7.192  12.275   0.330
75763SOL    HW229123   7.199  12.215   0.191
75764SOL     OW29124   4.892  10.182  12.609
75764SOL    HW129125   4.894  10.099  12.656
75764SOL    HW229126   4.957  10.237  12.652
75765SOL     OW29127   6.556   3.466  11.440
75765SOL    HW129128   6.595   3.392  11.487
75765SOL    HW229129   6.553   3.437  11.348
75766SOL     OW29130   6.906   2.392   9.617
75766SOL    HW129131   6.966   2.381   9.690
75766SOL    HW229132   6.878   2.484   9.623
75767SOL     OW29133   4.603  10.565   7.565
75767SOL    HW129134   4.550  10.579   7.643
75767SOL    HW229135   4.546  10.517   7.505
75768SOL     OW29136   0.544  14.000   7.566
75768SOL    HW129137   0.469  13.961   7.613
75768SOL    HW229138   0.620  13.959   7.606
75769SOL     OW29139  13.994   3.626   6.158
75769SOL    HW129140  13.958   3.685   6.092
75769SOL    HW229141  14.006   3.543   6.112
75770SOL     OW29142   0.470   4.735  12.601
75770SOL    HW129143   0.453   4.691  12.684
75770SOL    HW229144   0.562   4.717  12.582
75771SOL     OW29145  12.566   3.982  13.411
75771SOL    HW129146  12.583   3.957  13.320
75771SOL    HW229147  12.529   4.070  13.405
75772SOL     OW29148  11.925  11.112   1.383
75772SOL    HW129149  11.962  11.041   1.330
75772SOL    HW229150  11.834  11.086   1.398
75773SOL     OW29151   5.320   7.457   7.670
75773SOL    HW129152   5.398   7.512   7.672
75773SOL    HW229153   5.262   7.500   7.607
75774SOL     OW29154  14.829   5.962   7.650
75774SOL    HW129155   0.017   5.945   7.578
75774SOL    HW229156   0.012   5.986   7.724
75775SOL     OW29157  10.102  12.036   2.014
75775SOL    HW129158  10.148  12.017   1.932
75775SOL    HW229159  10.168  12.026   2.082
75776SOL     OW29160  13.335   5.717  13.719
75776SOL    HW129161  13.395   5.659  13.766
75776SOL    HW229162  13.259   5.663  13.699
75777SOL     OW29163  10.251   5.388   1.700
75777SOL    HW129164  10.342   5.398   1.674
75777SOL    HW229165  10.201   5.426   1.626
75778SOL     OW29166   0.573  14.030  11.014
75778SOL    HW129167   0.594  14.078  10.934
75778SOL    HW229168   0.648  13.972  11.028
75779SOL     OW29169  10.821   6.023  12.885
75779SOL    HW129170  10.866   5.949  12.926
75779SOL    HW229171  10.740   5.985  12.850
75780SOL     OW29172   5.328  10.436   3.330
75780SOL    HW129173   5.315  10.348   3.295
75780SOL    HW229174   5.389  10.423   3.403
75781SOL     OW29175  14.107   4.069   0.247
75781SOL    HW129176  14.125   4.024   0.165
75781SOL    HW229177  14.069   4.153   0.222
75782SOL     OW29178   2.573  13.137   7.417
75782SOL    HW129179   2.647  13.198   7.409
75782SOL    HW229180   2.613  13.054   7.440
75783SOL     OW29181   8.658   9.481  13.148
75783SOL    HW129182   8.574   9.436  13.161
75783SOL    HW229183   8.642   9.572  13.173
75784SOL     OW29184   1.512  10.432   1.257
75784SOL    HW129185   1.450  10.359   1.258
75784SOL    HW229186   1.466  10.502   1.304
75785SOL     OW29187   1.200  10.518   6.682
75785SOL    HW129188   1.216  10.611   6.700
75785SOL    HW229189   1.238  10.472   6.757
75786SOL     OW29190   5.616   7.110  13.232
75786SOL    HW129191   5.627   7.081  13.322
75786SOL    HW229192   5.657   7.196  13.229
75787SOL     OW29193   4.762   2.797   9.447
75787SOL    HW129194   4.773   2.879   9.496
75787SOL    HW229195   4.840   2.746   9.469
75788SOL     OW29196   6.976   0.408  13.621
75788SOL    HW129197   7.025   0.462  13.683
75788SOL    HW229198   6.891   0.395  13.664
75789SOL     OW29199  10.384   7.179   4.654
75789SOL    HW129200  10.434   7.098   4.649
75789SOL    HW229201  10.418   7.233   4.582
75790SOL     OW29202   3.938   1.413   4.538
75790SOL    HW129203   3.877   1.388   4.468
75790SOL    HW229204   3.916   1.504   4.557
75791SOL     OW29205   4.594   1.193   7.918
75791SOL    HW129206   4.553   1.152   7.994
75791SOL    HW229207   4.527   1.191   7.850
75792SOL     OW29208   1.057   4.960  13.943
75792SOL    HW129209   1.042   4.892  14.009
75792SOL    HW229210   1.085   5.036  13.994
75793SOL     OW29211   5.757  13.165   6.754
75793SOL    HW129212   5.783  13.096   6.816
75793SOL    HW229213   5.839  13.195   6.715
75794SOL     OW29214   0.646   9.891   7.917
75794SOL    HW129215   0.620   9.820   7.859
75794SOL    HW229216   0.589   9.964   7.893
75795SOL     OW29217  12.266   0.833   1.693
75795SOL    HW129218  12.337   0.876   1.739
75795SOL    HW229219  12.210   0.904   1.663
75796SOL     OW29220   5.580   0.188  10.758
75796SOL    HW129221   5.610   0.132  10.829
75796SOL    HW229222   5.489   0.210  10.781
75797SOL     OW29223  14.539   8.842  14.509
75797SOL    HW129224  14.504   8.768  14.559
75797SOL    HW229225  14.624   8.811  14.477
75798SOL     OW29226  14.580   3.339   0.508
75798SOL    HW129227  14.663   3.385   0.522
75798SOL    HW229228  14.517   3.408   0.487
75799SOL     OW29229   8.286   0.793  13.405
75799SOL    HW129230   8.319   0.725  13.463
75799SOL    HW229231   8.195   0.807  13.433
75800SOL     OW29232  13.179   0.729   8.217
75800SOL    HW129233  13.169   0.642   8.178
75800SOL    HW229234  13.099   0.775   8.192
75801SOL     OW29235   0.313   7.394   4.970
75801SOL    HW129236   0.396   7.349   4.987
75801SOL    HW229237   0.337   7.469   4.915
75802SOL     OW29238   1.307   0.504  12.775
75802SOL    HW129239   1.362   0.513  12.853
75802SOL    HW229240   1.282   0.594  12.753
75803SOL     OW29241   5.180   9.183   5.263
75803SOL    HW129242   5.160   9.100   5.307
75803SOL    HW229243   5.237   9.159   5.191
75804SOL     OW29244  13.945   2.870   2.583
75804SOL    HW129245  13.903   2.878   2.669
75804SOL    HW229246  14.000   2.792   2.590
75805SOL     OW29247  12.044  13.473   5.552
75805SOL    HW129248  12.071  13.386   5.581
75805SOL    HW229249  12.126  13.522   5.543
75806SOL     OW29250   4.210  11.201   8.617
75806SOL    HW129251   4.218  11.238   8.705
75806SOL    HW229252   4.189  11.108   8.632
75807SOL     OW29253  11.531   6.229  11.444
75807SOL    HW129254  11.457   6.211  11.387
75807SOL    HW229255  11.593   6.158  11.427
75808SOL     OW29256   9.184   0.783   6.931
75808SOL    HW129257   9.181   0.687   6.937
75808SOL    HW229258   9.150   0.802   6.843
75809SOL     OW29259   2.887  12.807  14.443
75809SOL    HW129260   2.946  12.834  14.513
75809SOL    HW229261   2.882  12.711  14.451
75810SOL     OW29262  12.561   9.491   4.931
75810SOL    HW129263  12.479   9.522   4.893
75810SOL    HW229264  12.553   9.508   5.025
75811SOL     OW29265   4.725  11.700  11.884
75811SOL    HW129266   4.817  11.713  11.909
75811SOL    HW229267   4.684  11.666  11.963
75812SOL     OW29268  14.644   8.890   9.591
75812SOL    HW129269  14.550   8.908   9.585
75812SOL    HW229270  14.659   8.823   9.524
75813SOL     OW29271  13.497  14.171   7.936
75813SOL    HW129272  13.410  14.181   7.974
75813SOL    HW229273  13.541  14.254   7.957
75814SOL     OW29274  14.297  13.843   8.207
75814SOL    HW129275  14.272  13.880   8.292
75814SOL    HW229276  14.264  13.907   8.144
75815SOL     OW29277   0.890  12.121   5.344
75815SOL    HW129278   0.956  12.052   5.341
75815SOL    HW229279   0.817  12.083   5.393
75816SOL     OW29280   2.991   9.330   2.649
75816SOL    HW129281   2.908   9.366   2.679
75816SOL    HW229282   3.050   9.405   2.644
75817SOL     OW29283   7.102   9.456   0.389
75817SOL    HW129284   7.182   9.504   0.411
75817SOL    HW229285   7.037   9.524   0.370
75818SOL     OW29286   9.081   8.175   7.256
75818SOL    HW129287   9.003   8.227   7.234
75818SOL    HW229288   9.121   8.223   7.329
75819SOL     OW29289   4.399   3.779   7.100
75819SOL    HW129290   4.339   3.706   7.093
75819SOL    HW229291   4.407   3.813   7.010
75820SOL     OW29292  14.037   8.150   1.139
75820SOL    HW129293  14.119   8.106   1.120
75820SOL    HW229294  13.969   8.085   1.119
75821SOL     OW29295   4.756   5.833  10.442
75821SOL    HW129296   4.760   5.802  10.351
75821SOL    HW229297   4.744   5.927  10.435
75822SOL     OW29298   9.326   5.363  14.708
75822SOL    HW129299   9.280   5.339  14.628
75822SOL    HW229300   9.289   5.448  14.732
75823SOL     OW29301   1.016   9.662  11.329
75823SOL    HW129302   1.022   9.631  11.238
75823SOL    HW229303   0.977   9.589  11.377
75824SOL     OW29304  14.396  12.720   8.853
75824SOL    HW129305  14.419  12.634   8.818
75824SOL    HW229306  14.362  12.769   8.778
75825SOL     OW29307  12.305   8.935   5.793
75825SOL    HW129308  12.383   8.880   5.796
75825SOL    HW229309  12.239   8.881   5.748
75826SOL     OW29310   8.385   9.712  10.247
75826SOL    HW129311   8.340   9.708  10.331
75826SOL    HW229312   8.317   9.732  10.183
75827SOL     OW29313   3.748  11.846   7.659
75827SOL    HW129314   3.823  11.801   7.622
75827SOL    HW229315   3.755  11.832   7.753
75828SOL     OW29316  14.604   7.792  12.721
75828SOL    HW129317  14.522   7.788  12.769
75828SOL    HW229318  14.665   7.835  12.781
75829SOL     OW29319   6.802   2.287  13.395
75829SOL    HW129320   6.894   2.291  13.421
75829SOL    HW229321   6.797   2.337  13.314
75830SOL     OW29322   0.004  12.543   6.354
75830SOL    HW129323   0.084  12.573   6.310
75830SOL    HW229324  14.837  12.481   6.292
75831SOL     OW29325   1.905  10.199   3.829
75831SOL    HW129326   1.981  10.206   3.886
75831SOL    HW229327   1.935  10.234   3.745
75832SOL     OW29328   9.280  12.270   7.010
75832SOL    HW129329   9.224  12.212   6.960
75832SOL    HW229330   9.363  12.271   6.963
75833SOL     OW29331  13.635   1.093   2.690
75833SOL    HW129332  13.625   1.030   2.619
75833SOL    HW229333  13.591   1.172   2.659
75834SOL     OW29334  13.366   6.797   6.882
75834SOL    HW129335  13.294   6.857   6.864
75834SOL    HW229336  13.326   6.710   6.878
75835SOL     OW29337  13.896   3.255   7.563
75835SOL    HW129338  13.983   3.267   7.602
75835SOL    HW229339  13.913   3.238   7.470
75836SOL     OW29340  14.421  12.200   0.978
75836SOL    HW129341  14.451  12.203   1.069
75836SOL    HW229342  14.376  12.284   0.965
75837SOL     OW29343   1.373   1.562   5.731
75837SOL    HW129344   1.294   1.523   5.767
75837SOL    HW229345   1.364   1.550   5.636
75838SOL     OW29346   8.295   9.577   0.843
75838SOL    HW129347   8.290   9.488   0.808
75838SOL    HW229348   8.270   9.568   0.935
75839SOL     OW29349   0.302  11.086   1.767
75839SOL    HW129350   0.281  11.019   1.701
75839SOL    HW229351   0.397  11.083   1.775
75840SOL     OW29352  13.952   7.525   2.456
75840SOL    HW129353  13.966   7.617   2.477
75840SOL    HW229354  14.028   7.501   2.403
75841SOL     OW29355   8.275   5.402   8.484
75841SOL    HW129356   8.364   5.436   8.472
75841SOL    HW229357   8.222   5.447   8.419
75842SOL     OW29358  12.421   6.283   3.846
75842SOL    HW129359  12.405   6.191   3.828
75842SOL    HW229360  12.359   6.304   3.916
75843SOL     OW29361  10.560  13.507  11.169
75843SOL    HW129362  10.633  13.556  11.132
75843SOL    HW229363  10.574  13.417  11.140
75844SOL     OW29364   6.404   2.153  10.060
75844SOL    HW129365   6.452   2.132  10.140
75844SOL    HW229366   6.472   2.163   9.994
75845SOL     OW29367   9.482   4.283   1.697
75845SOL    HW129368   9.555   4.343   1.711
75845SOL    HW229369   9.456   4.255   1.785
75846SOL     OW29370   6.347  11.146  12.628
75846SOL    HW129371   6.315  11.056  12.637
75846SOL    HW229372   6.290  11.184  12.561
75847SOL     OW29373  10.865  13.145   4.786
75847SOL    HW129374  10.841  13.180   4.872
75847SOL    HW229375  10.786  13.102   4.755
75848SOL     OW29376   0.821  12.062   3.191
75848SOL    HW129377   0.883  11.990   3.184
75848SOL    HW229378   0.754  12.030   3.251
75849SOL     OW29379  10.445   0.074  11.362
75849SOL    HW129380  10.476   0.157  11.397
75849SOL    HW229381  10.393   0.097  11.285
75850SOL     OW29382   0.829   6.595   3.255
75850SOL    HW129383   0.751   6.649   3.270
75850SOL    HW229384   0.828   6.531   3.326
75851SOL     OW29385   8.129  14.815   9.339
75851SOL    HW129386   8.222  14.797   9.324
75851SOL    HW229387   8.086  14.732   9.322
75852SOL     OW29388  11.365  11.918   3.527
75852SOL    HW129389  11.402  11.851   3.469
75852SOL    HW229390  11.359  11.874   3.612
75853SOL     OW29391   3.742   4.440   0.939
75853SOL    HW129392   3.666   4.472   0.988
75853SOL    HW229393   3.806   4.512   0.945
75854SOL     OW29394  13.511   2.511  12.039
75854SOL    HW129395  13.533   2.423  12.008
75854SOL    HW229396  13.574   2.529  12.108
75855SOL     OW29397  14.700   3.495  11.748
75855SOL    HW129398  14.701   3.412  11.701
75855SOL    HW229399  14.745   3.476  11.831
75856SOL     OW29400   6.412  14.689  14.327
75856SOL    HW129401   6.368  14.742  14.394
75856SOL    HW229402   6.360  14.702  14.248
75857SOL     OW29403   7.955   8.585  10.062
75857SOL    HW129404   7.958   8.509  10.121
75857SOL    HW229405   7.964   8.547   9.974
75858SOL     OW29406   9.320   3.136   9.095
75858SOL    HW129407   9.281   3.122   9.181
75858SOL    HW229408   9.413   3.153   9.113
75859SOL     OW29409   7.551   7.697  11.014
75859SOL    HW129410   7.625   7.750  11.044
75859SOL    HW229411   7.484   7.709  11.082
75860SOL     OW29412   9.875   9.208   3.730
75860SOL    HW129413   9.827   9.197   3.648
75860SOL    HW229414   9.876   9.302   3.746
75861SOL     OW29415  14.433  11.771   1.953
75861SOL    HW129416  14.485  11.721   2.017
75861SOL    HW229417  14.493  11.785   1.880
75862SOL     OW29418   9.465   2.486   3.919
75862SOL    HW129419   9.521   2.475   3.996
75862SOL    HW229420   9.431   2.575   3.927
75863SOL     OW29421  10.888  12.775   8.933
75863SOL    HW129422  10.818  12.784   8.997
75863SOL    HW229423  10.932  12.693   8.958
75864SOL     OW29424   1.523   0.882  12.678
75864SOL    HW129425   1.473   0.843  12.607
75864SOL    HW229426   1.529   0.813  12.744
75865SOL     OW29427  13.721   8.936   6.952
75865SOL    HW129428  13.785   8.868   6.973
75865SOL    HW229429  13.707   8.982   7.035
75866SOL     OW29430   5.786   5.873   9.170
75866SOL    HW129431   5.837   5.794   9.153
75866SOL    HW229432   5.829   5.915   9.244
75867SOL     OW29433  12.138   9.506  14.005
75867SOL    HW129434  12.183   9.589  13.993
75867SOL    HW229435  12.058   9.513  13.952
75868SOL     OW29436   4.187   4.491   1.224
75868SOL    HW129437   4.238   4.474   1.144
75868SOL    HW229438   4.179   4.405   1.266
75869SOL     OW29439   0.052   7.511   7.747
75869SOL    HW129440   0.099   7.589   7.717
75869SOL    HW229441  14.861   7.492   7.678
75870SOL     OW29442   2.392   5.234  13.643
75870SOL    HW129443   2.300   5.207  13.647
75870SOL    HW229444   2.437   5.172  13.701
75871SOL     OW29445   6.469   7.357  13.566
75871SOL    HW129446   6.516   7.302  13.504
75871SOL    HW229447   6.400   7.398  13.514
75872SOL     OW29448  12.114  10.165   2.770
75872SOL    HW129449  12.114  10.158   2.675
75872SOL    HW229450  12.023  10.184   2.793
75873SOL     OW29451  14.474   7.663   1.487
75873SOL    HW129452  14.553   7.646   1.538
75873SOL    HW229453  14.495   7.743   1.438
75874SOL     OW29454   3.066   5.570   8.863
75874SOL    HW129455   3.064   5.531   8.776
75874SOL    HW229456   3.086   5.497   8.922
75875SOL     OW29457  13.354  12.034   5.230
75875SOL    HW129458  13.274  11.985   5.208
75875SOL    HW229459  13.425  11.980   5.195
75876SOL     OW29460  13.847  11.170   7.538
75876SOL    HW129461  13.827  11.193   7.446
75876SOL    HW229462  13.900  11.091   7.532
75877SOL     OW29463   3.106  13.637   0.033
75877SOL    HW129464   3.152  13.565  14.862
75877SOL    HW229465   3.129  13.628   0.126
75878SOL     OW29466  11.780  11.709  11.166
75878SOL    HW129467  11.838  11.673  11.232
75878SOL    HW229468  11.838  11.757  11.106
75879SOL     OW29469   5.923   3.199   4.882
75879SOL    HW129470   6.018   3.212   4.889
75879SOL    HW229471   5.890   3.286   4.858
75880SOL     OW29472   9.692   7.826  14.836
75880SOL    HW129473   9.643   7.755   0.003
75880SOL    HW229474   9.680   7.900   0.022
75881SOL     OW29475   5.992   1.815   8.700
75881SOL    HW129476   5.915   1.760   8.715
75881SOL    HW229477   6.061   1.753   8.677
75882SOL     OW29478   7.616   8.853   9.317
75882SOL    HW129479   7.630   8.928   9.259
75882SOL    HW229480   7.672   8.870   9.393
75883SOL     OW29481   8.351   7.713   3.705
75883SOL    HW129482   8.261   7.719   3.737
75883SOL    HW229483   8.402   7.768   3.765
75884SOL     OW29484   9.279   9.180  13.875
75884SOL    HW129485   9.223   9.153  13.803
75884SOL    HW229486   9.246   9.267  13.900
75885SOL     OW29487   7.951  10.525   5.630
75885SOL    HW129488   7.906  10.479   5.559
75885SOL    HW229489   7.958  10.616   5.599
75886SOL     OW29490   4.931   4.328   3.691
75886SOL    HW129491   4.846   4.293   3.718
75886SOL    HW229492   4.922   4.344   3.597
75887SOL     OW29493   0.701   2.880  13.051
75887SOL    HW129494   0.663   2.931  12.980
75887SOL    HW229495   0.733   2.946  13.113
75888SOL     OW29496  14.029   1.693   4.329
75888SOL    HW129497  14.021   1.688   4.424
75888SOL    HW229498  14.046   1.786   4.312
75889SOL     OW29499   2.967   0.029   8.080
75889SOL    HW129500   2.983   0.021   8.174
75889SOL    HW229501   2.949  14.812   8.051
75890SOL     OW29502   5.389  14.871   3.790
75890SOL    HW129503   5.427  14.794   3.749
75890SOL    HW229504   5.335   0.038   3.722
75891SOL     OW29505   0.150   7.769   6.171
75891SOL    HW129506   0.201   7.840   6.132
75891SOL    HW229507   0.213   7.720   6.224
75892SOL     OW29508   6.430  10.596  12.701
75892SOL    HW129509   6.377  10.537  12.648
75892SOL    HW229510   6.483  10.539  12.756
75893SOL     OW29511  12.352  12.924  13.892
75893SOL    HW129512  12.339  12.988  13.822
75893SOL    HW229513  12.445  12.933  13.915
75894SOL     OW29514  10.127  10.423  11.923
75894SOL    HW129515  10.133  10.461  12.011
75894SOL    HW229516  10.146  10.496  11.864
75895SOL     OW29517   3.345  11.349  12.420
75895SOL    HW129518   3.381  11.371  12.334
75895SOL    HW229519   3.295  11.427  12.445
75896SOL     OW29520  10.966  13.498  14.162
75896SOL    HW129521  10.972  13.404  14.183
75896SOL    HW229522  10.967  13.541  14.247
75897SOL     OW29523  10.451  13.471   7.451
75897SOL    HW129524  10.510  13.537   7.416
75897SOL    HW229525  10.418  13.425   7.374
75898SOL     OW29526   9.253   3.053   3.593
75898SOL    HW129527   9.256   2.966   3.552
75898SOL    HW229528   9.336   3.058   3.641
75899SOL     OW29529  14.727   3.221   9.763
75899SOL    HW129530  14.682   3.192   9.684
75899SOL    HW229531  14.734   3.316   9.753
75900SOL     OW29532   3.033  11.468   6.219
75900SOL    HW129533   2.962  11.436   6.163
75900SOL    HW229534   2.989  11.524   6.283
75901SOL     OW29535   3.495   2.684   7.019
75901SOL    HW129536   3.515   2.635   6.939
75901SOL    HW229537   3.573   2.738   7.034
75902SOL     OW29538   9.867   6.655   4.157
75902SOL    HW129539   9.799   6.590   4.173
75902SOL    HW229540   9.824   6.739   4.175
75903SOL     OW29541   6.947   4.954   8.229
75903SOL    HW129542   6.851   4.954   8.223
75903SOL    HW229543   6.973   5.040   8.195
75904SOL     OW29544   6.195  13.384   2.023
75904SOL    HW129545   6.187  13.416   2.113
75904SOL    HW229546   6.289  13.381   2.008
75905SOL     OW29547   4.027   0.070   5.162
75905SOL    HW129548   4.003   0.162   5.159
75905SOL    HW229549   3.946   0.024   5.183
75906SOL     OW29550  11.652  13.944   1.622
75906SOL    HW129551  11.608  14.022   1.656
75906SOL    HW229552  11.605  13.923   1.541
75907SOL     OW29553  11.650  10.545   6.545
75907SOL    HW129554  11.585  10.513   6.607
75907SOL    HW229555  11.717  10.587   6.599
75908SOL     OW29556  12.745  14.126  13.857
75908SOL    HW129557  12.805  14.186  13.902
75908SOL    HW229558  12.776  14.127  13.766
75909SOL     OW29559   8.610   3.808   5.869
75909SOL    HW129560   8.691   3.785   5.914
75909SOL    HW229561   8.541   3.774   5.925
75910SOL     OW29562   9.464   8.870  11.695
75910SOL    HW129563   9.521   8.795  11.709
75910SOL    HW229564   9.511   8.925  11.632
75911SOL     OW29565  14.562   6.185   2.317
75911SOL    HW129566  14.605   6.130   2.383
75911SOL    HW229567  14.631   6.205   2.254
75912SOL     OW29568   3.357  11.196   1.363
75912SOL    HW129569   3.451  11.200   1.376
75912SOL    HW229570   3.345  11.215   1.269
75913SOL     OW29571   3.244   2.162   7.498
75913SOL    HW129572   3.323   2.176   7.552
75913SOL    HW229573   3.173   2.154   7.561
75914SOL     OW29574   1.586   2.116  12.162
75914SOL    HW129575   1.661   2.140  12.107
75914SOL    HW229576   1.624   2.067  12.235
75915SOL     OW29577   6.885  10.105   0.569
75915SOL    HW129578   6.809  10.087   0.625
75915SOL    HW229579   6.931  10.177   0.614
75916SOL     OW29580   5.625   0.458  10.336
75916SOL    HW129581   5.707   0.420  10.304
75916SOL    HW229582   5.627   0.441  10.430
75917SOL     OW29583   8.412   3.021   5.743
75917SOL    HW129584   8.505   3.034   5.725
75917SOL    HW229585   8.383   2.957   5.679
75918SOL     OW29586   7.734   9.719   6.092
75918SOL    HW129587   7.653   9.705   6.141
75918SOL    HW229588   7.757   9.633   6.057
75919SOL     OW29589   5.178  14.316   4.692
75919SOL    HW129590   5.210  14.350   4.609
75919SOL    HW229591   5.096  14.271   4.670
75920SOL     OW29592  13.616   8.574   1.354
75920SOL    HW129593  13.652   8.490   1.327
75920SOL    HW229594  13.672   8.639   1.311
75921SOL     OW29595  11.356   8.192   4.395
75921SOL    HW129596  11.299   8.240   4.456
75921SOL    HW229597  11.443   8.196   4.436
75922SOL     OW29598  10.782  14.324  12.789
75922SOL    HW129599  10.767  14.241  12.744
75922SOL    HW229600  10.872  14.319  12.821
75923SOL     OW29601   9.122   4.891  14.294
75923SOL    HW129602   9.050   4.954  14.286
75923SOL    HW229603   9.191   4.926  14.237
75924SOL     OW29604  13.844   5.947   6.904
75924SOL    HW129605  13.873   5.856   6.903
75924SOL    HW229606  13.881   5.985   6.824
75925SOL     OW29607   2.946   4.711  12.169
75925SOL    HW129608   2.942   4.777  12.100
75925SOL    HW229609   2.891   4.639  12.137
75926SOL     OW29610   7.031   6.030  10.351
75926SOL    HW129611   7.124   6.008  10.358
75926SOL    HW229612   7.024   6.075  10.266
75927SOL     OW29613   5.814   9.906  12.179
75927SOL    HW129614   5.889   9.850  12.196
75927SOL    HW229615   5.789   9.939  12.265
75928SOL     OW29616   3.959  10.987   8.390
75928SOL    HW129617   3.899  11.027   8.453
75928SOL    HW229618   4.012  10.927   8.443
75929SOL     OW29619   4.401  11.247  11.726
75929SOL    HW129620   4.435  11.336  11.729
75929SOL    HW229621   4.478  11.192  11.740
75930SOL     OW29622   2.839   6.593   6.049
75930SOL    HW129623   2.832   6.551   6.135
75930SOL    HW229624   2.751   6.623   6.029
75931SOL     OW29625   7.014  12.028  13.498
75931SOL    HW129626   7.083  12.042  13.562
75931SOL    HW229627   7.060  11.998  13.419
75932SOL     OW29628   8.861   1.136   4.566
75932SOL    HW129629   8.782   1.172   4.528
75932SOL    HW229630   8.836   1.111   4.655
75933SOL     OW29631   9.227   5.175   7.193
75933SOL    HW129632   9.232   5.269   7.208
75933SOL    HW229633   9.153   5.164   7.133
75934SOL     OW29634   7.064  13.186  12.422
75934SOL    HW129635   7.133  13.148  12.368
75934SOL    HW229636   7.009  13.111  12.445
75935SOL     OW29637   3.680   4.868   8.166
75935SOL    HW129638   3.588   4.849   8.184
75935SOL    HW229639   3.678   4.932   8.095
75936SOL     OW29640   0.698   9.674  10.830
75936SOL    HW129641   0.629   9.614  10.802
75936SOL    HW229642   0.661   9.761  10.819
75937SOL     OW29643   4.070   1.679  14.462
75937SOL    HW129644   4.085   1.673  14.368
75937SOL    HW229645   4.005   1.750  14.471
75938SOL     OW29646  10.693  13.211  14.863
75938SOL    HW129647  10.734  13.163  14.792
75938SOL    HW229648  10.746  13.289   0.001
75939SOL     OW29649   1.243   3.966  12.465
75939SOL    HW129650   1.171   3.904  12.478
75939SOL    HW229651   1.206   4.051  12.487
75940SOL     OW29652   5.834  13.143   2.489
75940SOL    HW129653   5.787  13.061   2.504
75940SOL    HW229654   5.881  13.159   2.571
75941SOL     OW29655  11.044  11.928   9.252
75941SOL    HW129656  11.074  11.848   9.210
75941SOL    HW229657  10.981  11.899   9.318
75942SOL     OW29658  12.499  13.289   4.133
75942SOL    HW129659  12.423  13.342   4.107
75942SOL    HW229660  12.558  13.351   4.175
75943SOL     OW29661  11.287   5.383   6.572
75943SOL    HW129662  11.219   5.329   6.614
75943SOL    HW229663  11.239   5.436   6.508
75944SOL     OW29664   0.477   4.117   8.593
75944SOL    HW129665   0.408   4.058   8.561
75944SOL    HW229666   0.463   4.122   8.687
75945SOL     OW29667   2.610  12.981  10.654
75945SOL    HW129668   2.603  12.946  10.743
75945SOL    HW229669   2.562  12.918  10.600
75946SOL     OW29670   2.093   7.863   7.367
75946SOL    HW129671   2.163   7.867   7.302
75946SOL    HW229672   2.039   7.789   7.339
75947SOL     OW29673  10.551  11.296   0.207
75947SOL    HW129674  10.540  11.387   0.180
75947SOL    HW229675  10.476  11.278   0.264
75948SOL     OW29676   6.949   0.231   7.185
75948SOL    HW129677   6.947   0.136   7.173
75948SOL    HW229678   6.883   0.264   7.125
75949SOL     OW29679  11.906   4.306   0.414
75949SOL    HW129680  11.923   4.229   0.360
75949SOL    HW229681  11.991   4.351   0.419
75950SOL     OW29682   0.863   7.271  10.957
75950SOL    HW129683   0.831   7.358  10.983
75950SOL    HW229684   0.929   7.249  11.023
75951SOL     OW29685   8.053  11.004  11.917
75951SOL    HW129686   7.992  11.003  11.990
75951SOL    HW229687   8.136  10.973  11.954
75952SOL     OW29688  10.052   6.844   5.286
75952SOL    HW129689  10.093   6.914   5.337
75952SOL    HW229690  10.062   6.766   5.341
75953SOL     OW29691   3.228   4.202   0.193
75953SOL    HW129692   3.309   4.199   0.142
75953SOL    HW229693   3.163   4.237   0.133
75954SOL     OW29694   2.444   9.783   8.283
75954SOL    HW129695   2.393   9.862   8.267
75954SOL    HW229696   2.535   9.812   8.285
75955SOL     OW29697   1.506   4.707   0.353
75955SOL    HW129698   1.504   4.617   0.320
75955SOL    HW229699   1.594   4.718   0.387
75956SOL     OW29700  14.658   6.656   3.857
75956SOL    HW129701  14.589   6.711   3.819
75956SOL    HW229702  14.636   6.567   3.828
75957SOL     OW29703   6.736   4.791   8.779
75957SOL    HW129704   6.760   4.704   8.745
75957SOL    HW229705   6.671   4.773   8.847
75958SOL     OW29706   2.956   8.595  12.561
75958SOL    HW129707   2.918   8.522  12.611
75958SOL    HW229708   3.049   8.593  12.583
75959SOL     OW29709   4.142   2.678   1.587
75959SOL    HW129710   4.193   2.753   1.617
75959SOL    HW229711   4.184   2.603   1.629
75960SOL     OW29712   6.476  12.180   7.585
75960SOL    HW129713   6.565  12.200   7.555
75960SOL    HW229714   6.421  12.243   7.537
75961SOL     OW29715  12.971  13.511   6.660
75961SOL    HW129716  12.896  13.492   6.604
75961SOL    HW229717  12.934  13.519   6.748
75962SOL     OW29718  10.568   1.805  12.152
75962SOL    HW129719  10.494   1.775  12.204
75962SOL    HW229720  10.584   1.895  12.182
75963SOL     OW29721   1.388   5.498  13.253
75963SOL    HW129722   1.425   5.558  13.318
75963SOL    HW229723   1.325   5.445  13.302
75964SOL     OW29724   7.211   3.029   0.471
75964SOL    HW129725   7.237   2.939   0.448
75964SOL    HW229726   7.289   3.082   0.453
75965SOL     OW29727   4.143  12.167   7.690
75965SOL    HW129728   4.053  12.150   7.661
75965SOL    HW229729   4.178  12.229   7.626
75966SOL     OW29730   2.764   1.410   6.102
75966SOL    HW129731   2.765   1.480   6.169
75966SOL    HW229732   2.817   1.340   6.141
75967SOL     OW29733   3.777   3.085   5.858
75967SOL    HW129734   3.858   3.053   5.817
75967SOL    HW229735   3.805   3.159   5.912
75968SOL     OW29736   2.625   8.471  13.515
75968SOL    HW129737   2.658   8.382  13.501
75968SOL    HW229738   2.663   8.496  13.599
75969SOL     OW29739   6.436   7.300   8.892
75969SOL    HW129740   6.392   7.224   8.854
75969SOL    HW229741   6.475   7.345   8.817
75970SOL     OW29742  10.030  13.015  13.719
75970SOL    HW129743   9.963  12.980  13.778
75970SOL    HW229744  10.023  12.961  13.640
75971SOL     OW29745   2.638   7.873  12.534
75971SOL    HW129746   2.571   7.808  12.554
75971SOL    HW229747   2.601   7.924  12.462
75972SOL     OW29748   0.379  11.737  10.078
75972SOL    HW129749   0.337  11.686  10.148
75972SOL    HW229750   0.314  11.738  10.007
75973SOL     OW29751  13.784   3.796   9.805
75973SOL    HW129752  13.779   3.849   9.725
75973SOL    HW229753  13.874   3.762   9.806
75974SOL     OW29754   0.452   1.468   5.908
75974SOL    HW129755   0.397   1.402   5.865
75974SOL    HW229756   0.423   1.551   5.870
75975SOL     OW29757  10.280   0.912   7.620
75975SOL    HW129758  10.237   0.877   7.697
75975SOL    HW229759  10.368   0.874   7.623
75976SOL     OW29760  14.412   0.259   1.096
75976SOL    HW129761  14.353   0.310   1.150
75976SOL    HW229762  14.371   0.173   1.090
75977SOL     OW29763  14.662   1.993  14.432
75977SOL    HW129764  14.586   2.049  14.415
75977SOL    HW229765  14.642   1.911  14.388
75978SOL     OW29766   5.395  11.850  11.283
75978SOL    HW129767   5.483  11.872  11.252
75978SOL    HW229768   5.408  11.780  11.346
75979SOL     OW29769   5.142   2.836   3.889
75979SOL    HW129770   5.170   2.897   3.821
75979SOL    HW229771   5.099   2.891   3.955
75980SOL     OW29772   2.852  14.211   7.107
75980SOL    HW129773   2.921  14.232   7.044
75980SOL    HW229774   2.850  14.115   7.109
75981SOL     OW29775  13.939   3.426  13.856
75981SOL    HW129776  13.876   3.363  13.892
75981SOL    HW229777  13.922   3.507  13.904
75982SOL     OW29778   4.748   2.378   3.362
75982SOL    HW129779   4.757   2.449   3.300
75982SOL    HW229780   4.834   2.370   3.403
75983SOL     OW29781   6.753   0.230  10.579
75983SOL    HW129782   6.680   0.183  10.538
75983SOL    HW229783   6.712   0.307  10.619
75984SOL     OW29784   7.972   8.909  14.734
75984SOL    HW129785   7.965   8.962  14.814
75984SOL    HW229786   8.044   8.848  14.752
75985SOL     OW29787   7.769   3.266   4.664
75985SOL    HW129788   7.801   3.188   4.619
75985SOL    HW229789   7.745   3.326   4.594
75986SOL     OW29790   5.743   0.960   8.664
75986SOL    HW129791   5.681   0.949   8.735
75986SOL    HW229792   5.823   0.917   8.694
75987SOL     OW29793   2.968  12.203  11.572
75987SOL    HW129794   2.952  12.110  11.554
75987SOL    HW229795   2.914  12.249  11.508
75988SOL     OW29796   8.598  12.043  14.114
75988SOL    HW129797   8.658  12.097  14.165
75988SOL    HW229798   8.583  12.092  14.033
75989SOL     OW29799   7.552   9.746   3.423
75989SOL    HW129800   7.560   9.680   3.354
75989SOL    HW229801   7.631   9.800   3.414
75990SOL     OW29802   9.519  12.431   1.605
75990SOL    HW129803   9.557  12.498   1.547
75990SOL    HW229804   9.426  12.452   1.606
75991SOL     OW29805   8.122   5.332  13.643
75991SOL    HW129806   8.216   5.322  13.630
75991SOL    HW229807   8.113   5.410  13.698
75992SOL     OW29808   8.402   0.650   2.086
75992SOL    HW129809   8.347   0.724   2.061
75992SOL    HW229810   8.484   0.664   2.039
75993SOL     OW29811  12.731   3.557   4.383
75993SOL    HW129812  12.754   3.475   4.338
75993SOL    HW229813  12.671   3.601   4.323
75994SOL     OW29814   9.205   2.812  12.437
75994SOL    HW129815   9.298   2.836  12.439
75994SOL    HW229816   9.180   2.806  12.529
75995SOL     OW29817   8.819  11.766   8.373
75995SOL    HW129818   8.795  11.728   8.457
75995SOL    HW229819   8.899  11.815   8.390
75996SOL     OW29820  14.656   7.336   4.981
75996SOL    HW129821  14.597   7.302   4.914
75996SOL    HW229822  14.734   7.363   4.932
75997SOL     OW29823   6.126   5.015  13.645
75997SOL    HW129824   6.129   5.110  13.636
75997SOL    HW229825   6.193   4.995  13.710
75998SOL     OW29826   1.652  11.497  11.722
75998SOL    HW129827   1.672  11.480  11.814
75998SOL    HW229828   1.618  11.414  11.689
75999SOL     OW29829  10.709  11.777  14.328
75999SOL    HW129830  10.687  11.827  14.406
75999SOL    HW229831  10.734  11.843  14.264
76000SOL     OW29832   6.213   3.986   8.818
76000SOL    HW129833   6.270   4.051   8.860
76000SOL    HW229834   6.273   3.919   8.787
76001SOL     OW29835  11.843   6.360  14.732
76001SOL    HW129836  11.875   6.325  14.649
76001SOL    HW229837  11.908   6.331  14.796
76002SOL     OW29838   6.527   7.084   6.498
76002SOL    HW129839   6.444   7.120   6.530
76002SOL    HW229840   6.502   7.034   6.420
76003SOL     OW29841   6.514   9.731  13.348
76003SOL    HW129842   6.579   9.741  13.417
76003SOL    HW229843   6.434   9.771  13.384
76004SOL     OW29844   1.316   0.562  10.720
76004SOL    HW129845   1.251   0.530  10.658
76004SOL    HW229846   1.317   0.498  10.790
76005SOL     OW29847   9.117   1.172   2.757
76005SOL    HW129848   9.182   1.149   2.823
76005SOL    HW229849   9.155   1.141   2.674
76006SOL     OW29850  11.827   2.097  12.344
76006SOL    HW129851  11.848   2.163  12.410
76006SOL    HW229852  11.856   2.014  12.383
76007SOL     OW29853  13.746   6.505   9.832
76007SOL    HW129854  13.663   6.458   9.841
76007SOL    HW229855  13.813   6.442   9.859
76008SOL     OW29856   9.129   6.966  11.132
76008SOL    HW129857   9.100   7.010  11.212
76008SOL    HW229858   9.122   7.033  11.064
76009SOL     OW29859  11.488  10.054   1.540
76009SOL    HW129860  11.516  10.137   1.502
76009SOL    HW229861  11.520  10.057   1.630
76010SOL     OW29862   4.833   1.951   0.237
76010SOL    HW129863   4.782   2.021   0.278
76010SOL    HW229864   4.800   1.947   0.148
76011SOL     OW29865   7.485  12.617   3.525
76011SOL    HW129866   7.480  12.525   3.550
76011SOL    HW229867   7.425  12.662   3.584
76012SOL     OW29868   2.632   2.984   8.488
76012SOL    HW129869   2.724   3.003   8.469
76012SOL    HW229870   2.584   3.017   8.412
76013SOL     OW29871  10.380  10.375  13.453
76013SOL    HW129872  10.343  10.301  13.406
76013SOL    HW229873  10.467  10.388  13.415
76014SOL     OW29874   6.591  10.657   5.089
76014SOL    HW129875   6.669  10.611   5.059
76014SOL    HW229876   6.550  10.597   5.152
76015SOL     OW29877   0.264   4.048  14.540
76015SOL    HW129878   0.228   4.114  14.598
76015SOL    HW229879   0.239   3.964  14.579
76016SOL     OW29880   7.014   3.992  12.062
76016SOL    HW129881   7.097   4.005  12.107
76016SOL    HW229882   6.948   4.004  12.131
76017SOL     OW29883   9.743  12.716   2.572
76017SOL    HW129884   9.796  12.645   2.537
76017SOL    HW229885   9.777  12.731   2.660
76018SOL     OW29886  13.999   4.608   8.202
76018SOL    HW129887  13.915   4.614   8.157
76018SOL    HW229888  14.063   4.636   8.137
76019SOL     OW29889   6.313   1.924   7.564
76019SOL    HW129890   6.375   1.993   7.540
76019SOL    HW229891   6.230   1.953   7.524
76020SOL     OW29892  14.473   7.854   8.820
76020SOL    HW129893  14.523   7.773   8.835
76020SOL    HW229894  14.540   7.921   8.804
76021SOL     OW29895  14.405  11.944   8.210
76021SOL    HW129896  14.480  11.968   8.263
76021SOL    HW229897  14.350  11.892   8.269
76022SOL     OW29898  13.671  13.837   5.172
76022SOL    HW129899  13.588  13.861   5.215
76022SOL    HW229900  13.643  13.797   5.090
76023SOL     OW29901   1.797   4.990   3.285
76023SOL    HW129902   1.816   5.083   3.287
76023SOL    HW229903   1.727   4.981   3.220
76024SOL     OW29904  14.454   8.620   5.888
76024SOL    HW129905  14.549   8.613   5.901
76024SOL    HW229906  14.441   8.611   5.794
76025SOL     OW29907   2.450  11.558  14.173
76025SOL    HW129908   2.413  11.618  14.237
76025SOL    HW229909   2.398  11.478  14.182
76026SOL     OW29910   7.363   2.671   8.580
76026SOL    HW129911   7.309   2.650   8.656
76026SOL    HW229912   7.452   2.645   8.605
76027SOL     OW29913   9.286   3.513   8.231
76027SOL    HW129914   9.369   3.479   8.265
76027SOL    HW229915   9.219   3.467   8.281
76028SOL     OW29916   4.778   0.236  12.354
76028SOL    HW129917   4.733   0.320  12.342
76028SOL    HW229918   4.787   0.226  12.448
76029SOL     OW29919   0.697   3.596   6.221
76029SOL    HW129920   0.648   3.627   6.298
76029SOL    HW229921   0.781   3.641   6.227
76030SOL     OW29922   7.543   6.893   8.439
76030SOL    HW129923   7.556   6.819   8.379
76030SOL    HW229924   7.626   6.940   8.437
76031SOL     OW29925  13.431   1.436   2.332
76031SOL    HW129926  13.493   1.486   2.279
76031SOL    HW229927  13.373   1.502   2.368
76032SOL     OW29928  13.572   4.532   5.634
76032SOL    HW129929  13.504   4.521   5.699
76032SOL    HW229930  13.627   4.455   5.642
76033SOL     OW29931   7.481   3.776   3.619
76033SOL    HW129932   7.422   3.829   3.672
76033SOL    HW229933   7.444   3.688   3.622
76034SOL     OW29934  14.376   3.142   6.912
76034SOL    HW129935  14.433   3.113   6.841
76034SOL    HW229936  14.417   3.108   6.992
76035SOL     OW29937  13.142   0.703   7.900
76035SOL    HW129938  13.046   0.709   7.904
76035SOL    HW229939  13.160   0.660   7.817
76036SOL     OW29940   8.403   7.089   9.155
76036SOL    HW129941   8.342   7.102   9.228
76036SOL    HW229942   8.363   7.133   9.081
76037SOL     OW29943  12.350   8.225   3.234
76037SOL    HW129944  12.387   8.250   3.318
76037SOL    HW229945  12.421   8.179   3.189
76038SOL     OW29946   0.713   9.968   5.669
76038SOL    HW129947   0.649   9.936   5.604
76038SOL    HW229948   0.659  10.000   5.741
76039SOL     OW29949   7.557   2.071   1.876
76039SOL    HW129950   7.583   2.070   1.968
76039SOL    HW229951   7.629   2.028   1.830
76040SOL     OW29952   1.859  14.547   7.977
76040SOL    HW129953   1.823  14.630   7.947
76040SOL    HW229954   1.812  14.480   7.926
76041SOL     OW29955  11.723  13.515   8.885
76041SOL    HW129956  11.764  13.567   8.955
76041SOL    HW229957  11.724  13.425   8.919
76042SOL     OW29958   8.611  10.675  13.645
76042SOL    HW129959   8.580  10.597  13.690
76042SOL    HW229960   8.665  10.642  13.573
76043SOL     OW29961   7.639   6.432   9.782
76043SOL    HW129962   7.609   6.344   9.806
76043SOL    HW229963   7.567   6.468   9.731
76044SOL     OW29964   1.669  11.614   5.935
76044SOL    HW129965   1.575  11.613   5.917
76044SOL    HW229966   1.678  11.674   6.009
76045SOL     OW29967   5.828  11.539   2.409
76045SOL    HW129968   5.757  11.604   2.407
76045SOL    HW229969   5.876  11.559   2.489
76046SOL     OW29970   7.064  11.222  11.492
76046SOL    HW129971   7.128  11.266  11.546
76046SOL    HW229972   7.104  11.138  11.470
76047SOL     OW29973   3.615   3.535  11.223
76047SOL    HW129974   3.699   3.509  11.185
76047SOL    HW229975   3.637   3.566  11.311
76048SOL     OW29976  14.556  13.015   6.294
76048SOL    HW129977  14.614  13.050   6.362
76048SOL    HW229978  14.599  12.935   6.265
76049SOL     OW29979   1.454   1.136  11.178
76049SOL    HW129980   1.452   1.041  11.166
76049SOL    HW229981   1.513   1.149  11.252
76050SOL     OW29982  11.897   3.179   6.293
76050SOL    HW129983  11.916   3.210   6.204
76050SOL    HW229984  11.984   3.166   6.332
76051SOL     OW29985   0.190   5.677   9.753
76051SOL    HW129986   0.192   5.608   9.820
76051SOL    HW229987   0.266   5.659   9.698
76052SOL     OW29988  14.452   9.489   4.939
76052SOL    HW129989  14.497   9.557   4.889
76052SOL    HW229990  14.463   9.410   4.887
76053SOL     OW29991   9.523  10.227  13.714
76053SOL    HW129992   9.615  10.252  13.721
76053SOL    HW229993   9.510  10.166  13.787
76054SOL     OW29994   9.258  11.472   9.678
76054SOL    HW129995   9.343  11.464   9.634
76054SOL    HW229996   9.280  11.472   9.771
76055SOL     OW29997   8.355   0.297   3.299
76055SOL    HW129998   8.359   0.391   3.315
76055SOL    HW229999   8.298   0.263   3.369
76056SOL     OW30000   0.562  10.442  14.383
76056SOL    HW130001   0.590  10.509  14.320
76056SOL    HW230002   0.522  10.492  14.454
76057SOL     OW30003   7.776  11.858   9.036
76057SOL    HW130004   7.780  11.926   9.104
76057SOL    HW230005   7.867  11.846   9.010
76058SOL     OW30006   1.015   9.931   1.746
76058SOL    HW130007   0.984  10.015   1.711
76058SOL    HW230008   0.961   9.865   1.702
76059SOL     OW30009  12.465  14.259  13.780
76059SOL    HW130010  12.492  14.340  13.823
76059SOL    HW230011  12.537  14.198  13.797
76060SOL     OW30012   0.616   5.553  12.890
76060SOL    HW130013   0.520   5.558  12.891
76060SOL    HW230014   0.640   5.551  12.983
76061SOL     OW30015   4.572  14.141   0.223
76061SOL    HW130016   4.628  14.111   0.151
76061SOL    HW230017   4.593  14.233   0.234
76062SOL     OW30018   6.017  13.454  12.408
76062SOL    HW130019   5.966  13.535  12.396
76062SOL    HW230020   6.040  13.454  12.501
76063SOL     OW30021   7.506   6.077  13.771
76063SOL    HW130022   7.433   6.070  13.833
76063SOL    HW230023   7.549   6.160  13.793
76064SOL     OW30024   2.710   8.358   0.172
76064SOL    HW130025   2.659   8.278   0.163
76064SOL    HW230026   2.735   8.360   0.265
76065SOL     OW30027   1.890  11.559   2.918
76065SOL    HW130028   1.828  11.628   2.943
76065SOL    HW230029   1.880  11.493   2.986
76066SOL     OW30030   2.545   3.050   6.455
76066SOL    HW130031   2.517   3.049   6.546
76066SOL    HW230032   2.463   3.048   6.405
76067SOL     OW30033   2.987   0.811   8.307
76067SOL    HW130034   3.013   0.811   8.215
76067SOL    HW230035   3.068   0.796   8.355
76068SOL     OW30036   3.603  11.844  12.148
76068SOL    HW130037   3.538  11.781  12.116
76068SOL    HW230038   3.568  11.873  12.233
76069SOL     OW30039  14.632   5.134   2.699
76069SOL    HW130040  14.719   5.172   2.708
76069SOL    HW230041  14.606   5.153   2.609
76070SOL     OW30042  13.989   7.951  11.294
76070SOL    HW130043  13.930   7.944  11.219
76070SOL    HW230044  13.995   7.862  11.328
76071SOL     OW30045   7.681   7.432   8.804
76071SOL    HW130046   7.701   7.501   8.868
76071SOL    HW230047   7.596   7.457   8.769
76072SOL     OW30048   4.833   5.474   6.945
76072SOL    HW130049   4.780   5.498   6.869
76072SOL    HW230050   4.884   5.552   6.965
76073SOL     OW30051   7.963   9.214   2.552
76073SOL    HW130052   7.921   9.161   2.484
76073SOL    HW230053   7.965   9.156   2.629
76074SOL     OW30054   9.869   4.222  11.956
76074SOL    HW130055   9.917   4.143  11.980
76074SOL    HW230056   9.890   4.285  12.026
76075SOL     OW30057   4.733   4.468   5.202
76075SOL    HW130058   4.797   4.431   5.141
76075SOL    HW230059   4.684   4.532   5.149
76076SOL     OW30060  14.570  12.360  14.660
76076SOL    HW130061  14.536  12.434  14.710
76076SOL    HW230062  14.498  12.298  14.657
76077SOL     OW30063   1.170   4.183   5.553
76077SOL    HW130064   1.127   4.183   5.467
76077SOL    HW230065   1.263   4.194   5.533
76078SOL     OW30066   9.503   2.777  11.657
76078SOL    HW130067   9.582   2.807  11.702
76078SOL    HW230068   9.503   2.682  11.670
76079SOL     OW30069   0.577   6.404  11.944
76079SOL    HW130070   0.535   6.374  11.864
76079SOL    HW230071   0.581   6.499  11.934
76080SOL     OW30072   6.893   1.400  13.517
76080SOL    HW130073   6.797   1.404  13.509
76080SOL    HW230074   6.925   1.439  13.436
76081SOL     OW30075   2.098   1.347  10.727
76081SOL    HW130076   2.152   1.425  10.742
76081SOL    HW230077   2.023   1.379  10.677
76082SOL     OW30078  10.909   6.739   3.708
76082SOL    HW130079  10.839   6.757   3.646
76082SOL    HW230080  10.876   6.769   3.793
76083SOL     OW30081  10.813   4.467   1.563
76083SOL    HW130082  10.853   4.380   1.574
76083SOL    HW230083  10.762   4.460   1.483
76084SOL     OW30084   9.205   0.541   4.571
76084SOL    HW130085   9.142   0.609   4.596
76084SOL    HW230086   9.166   0.460   4.603
76085SOL     OW30087   4.981   1.640   9.967
76085SOL    HW130088   5.025   1.638  10.053
76085SOL    HW230089   4.969   1.733   9.948
76086SOL     OW30090   5.846   6.874  10.080
76086SOL    HW130091   5.866   6.827  10.162
76086SOL    HW230092   5.879   6.817  10.011
76087SOL     OW30093   9.837  14.219   6.508
76087SOL    HW130094   9.838  14.311   6.535
76087SOL    HW230095   9.777  14.216   6.434
76088SOL     OW30096   6.677   7.001   7.303
76088SOL    HW130097   6.697   7.015   7.210
76088SOL    HW230098   6.743   7.053   7.349
76089SOL     OW30099   8.238   1.491   7.734
76089SOL    HW130100   8.298   1.560   7.708
76089SOL    HW230101   8.188   1.528   7.807
76090SOL     OW30102   0.739  14.140   8.081
76090SOL    HW130103   0.681  14.100   8.145
76090SOL    HW230104   0.823  14.096   8.094
76091SOL     OW30105  10.351   1.212   4.584
76091SOL    HW130106  10.299   1.227   4.663
76091SOL    HW230107  10.311   1.136   4.543
76092SOL     OW30108  11.847   4.864   7.142
76092SOL    HW130109  11.854   4.927   7.214
76092SOL    HW230110  11.773   4.895   7.090
76093SOL     OW30111  12.910   7.179  11.593
76093SOL    HW130112  12.948   7.109  11.645
76093SOL    HW230113  12.824   7.146  11.566
76094SOL     OW30114   7.557   1.397   6.013
76094SOL    HW130115   7.576   1.305   6.028
76094SOL    HW230116   7.572   1.411   5.920
76095SOL     OW30117   6.623   6.160   7.752
76095SOL    HW130118   6.570   6.110   7.689
76095SOL    HW230119   6.567   6.169   7.829
76096SOL     OW30120   1.165  11.488   4.948
76096SOL    HW130121   1.207  11.566   4.984
76096SOL    HW230122   1.155  11.507   4.854
76097SOL     OW30123   8.206  13.154   0.458
76097SOL    HW130124   8.292  13.117   0.477
76097SOL    HW230125   8.171  13.176   0.545
76098SOL     OW30126  12.139   0.528   0.746
76098SOL    HW130127  12.053   0.553   0.779
76098SOL    HW230128  12.126   0.443   0.703
76099SOL     OW30129   8.013   6.097   0.185
76099SOL    HW130130   7.935   6.042   0.179
76099SOL    HW230131   7.985   6.174   0.234
76100SOL     OW30132   1.970  12.193   5.703
76100SOL    HW130133   1.985  12.239   5.786
76100SOL    HW230134   1.918  12.254   5.651
76101SOL     OW30135   6.706  11.293  11.256
76101SOL    HW130136   6.767  11.219  11.255
76101SOL    HW230137   6.629  11.260  11.301
76102SOL     OW30138   1.350   5.558   2.080
76102SOL    HW130139   1.316   5.527   1.995
76102SOL    HW230140   1.424   5.500   2.099
76103SOL     OW30141  12.562   0.218   0.706
76103SOL    HW130142  12.487   0.278   0.699
76103SOL    HW230143  12.609   0.230   0.623
76104SOL     OW30144   1.710   4.645  10.228
76104SOL    HW130145   1.746   4.654  10.140
76104SOL    HW230146   1.617   4.625  10.213
76105SOL     OW30147   2.911   5.354   0.513
76105SOL    HW130148   2.913   5.266   0.552
76105SOL    HW230149   2.979   5.402   0.559
76106SOL     OW30150   3.354   8.379   3.289
76106SOL    HW130151   3.297   8.455   3.282
76106SOL    HW230152   3.342   8.332   3.207
76107SOL     OW30153   4.461  11.873   0.808
76107SOL    HW130154   4.475  11.872   0.903
76107SOL    HW230155   4.466  11.780   0.783
76108SOL     OW30156  12.000  14.274   0.921
76108SOL    HW130157  12.008  14.186   0.885
76108SOL    HW230158  12.089  14.296   0.950
76109SOL     OW30159   6.545   2.550  12.421
76109SOL    HW130160   6.601   2.578  12.349
76109SOL    HW230161   6.456   2.562  12.388
76110SOL     OW30162   7.357   4.664   7.050
76110SOL    HW130163   7.409   4.739   7.080
76110SOL    HW230164   7.289   4.703   6.995
76111SOL     OW30165  13.101   2.506   4.776
76111SOL    HW130166  13.186   2.464   4.777
76111SOL    HW230167  13.065   2.491   4.863
76112SOL     OW30168   9.978  10.704   9.609
76112SOL    HW130169   9.984  10.646   9.685
76112SOL    HW230170  10.034  10.779   9.631
76113SOL     OW30171   5.262   0.840   9.547
76113SOL    HW130172   5.213   0.898   9.606
76113SOL    HW230173   5.241   0.873   9.460
76114SOL     OW30174   5.794   2.367   3.540
76114SOL    HW130175   5.755   2.323   3.616
76114SOL    HW230176   5.755   2.322   3.465
76115SOL     OW30177  14.149  11.052   5.420
76115SOL    HW130178  14.082  11.009   5.473
76115SOL    HW230179  14.232  11.018   5.453
76116SOL     OW30180  13.056   3.808   2.673
76116SOL    HW130181  13.116   3.838   2.605
76116SOL    HW230182  13.047   3.714   2.657
76117SOL     OW30183   0.673   0.563   5.590
76117SOL    HW130184   0.697   0.488   5.644
76117SOL    HW230185   0.579   0.553   5.575
76118SOL     OW30186  11.116   6.704  14.173
76118SOL    HW130187  11.170   6.750  14.237
76118SOL    HW230188  11.071   6.774  14.124
76119SOL     OW30189  13.790  12.416   7.551
76119SOL    HW130190  13.882  12.393   7.564
76119SOL    HW230191  13.793  12.495   7.496
76120SOL     OW30192  13.391   2.369   1.976
76120SOL    HW130193  13.459   2.428   2.007
76120SOL    HW230194  13.408   2.286   2.021
76121SOL     OW30195  13.805   1.731   7.342
76121SOL    HW130196  13.726   1.740   7.396
76121SOL    HW230197  13.784   1.661   7.280
76122SOL     OW30198   6.037  10.988   1.881
76122SOL    HW130199   6.036  10.908   1.933
76122SOL    HW230200   5.949  11.025   1.891
76123SOL     OW30201   6.937   6.878  12.600
76123SOL    HW130202   6.926   6.784  12.584
76123SOL    HW230203   7.020   6.900  12.558
76124SOL     OW30204   9.439   4.060   5.686
76124SOL    HW130205   9.480   4.121   5.625
76124SOL    HW230206   9.397   3.995   5.631
76125SOL     OW30207   4.367  12.260  13.923
76125SOL    HW130208   4.339  12.262  14.015
76125SOL    HW230209   4.321  12.334  13.883
76126SOL     OW30210  13.776   0.567  14.463
76126SOL    HW130211  13.798   0.634  14.398
76126SOL    HW230212  13.749   0.616  14.540
76127SOL     OW30213   4.593  12.140  11.453
76127SOL    HW130214   4.526  12.177  11.511
76127SOL    HW230215   4.658  12.211  11.444
76128SOL     OW30216  13.613   8.933  14.250
76128SOL    HW130217  13.522   8.930  14.219
76128SOL    HW230218  13.663   8.890  14.180
76129SOL     OW30219   3.285   6.008   2.912
76129SOL    HW130220   3.370   6.053   2.915
76129SOL    HW230221   3.221   6.076   2.936
76130SOL     OW30222   5.888   7.070   5.091
76130SOL    HW130223   5.855   7.057   5.002
76130SOL    HW230224   5.811   7.060   5.147
76131SOL     OW30225   6.193   1.985  13.584
76131SOL    HW130226   6.233   1.913  13.633
76131SOL    HW230227   6.257   2.056  13.589
76132SOL     OW30228   3.333   8.616  11.276
76132SOL    HW130229   3.258   8.643  11.328
76132SOL    HW230230   3.309   8.530  11.240
76133SOL     OW30231   5.179   3.416   8.314
76133SOL    HW130232   5.222   3.469   8.247
76133SOL    HW230233   5.228   3.334   8.315
76134SOL     OW30234  11.811  10.322  11.196
76134SOL    HW130235  11.727  10.345  11.156
76134SOL    HW230236  11.876  10.364  11.140
76135SOL     OW30237   0.609  11.393   0.475
76135SOL    HW130238   0.556  11.397   0.554
76135SOL    HW230239   0.639  11.483   0.461
76136SOL     OW30240  14.482   4.531   0.999
76136SOL    HW130241  14.471   4.518   1.093
76136SOL    HW230242  14.393   4.535   0.965
76137SOL     OW30243   6.685  12.817   1.221
76137SOL    HW130244   6.645  12.736   1.188
76137SOL    HW230245   6.775  12.813   1.189
76138SOL     OW30246   0.495   1.220   9.202
76138SOL    HW130247   0.578   1.256   9.232
76138SOL    HW230248   0.520   1.147   9.144
76139SOL     OW30249   4.779   6.272   7.637
76139SOL    HW130250   4.778   6.261   7.732
76139SOL    HW230251   4.700   6.227   7.607
76140SOL     OW30252   1.671  13.073   2.503
76140SOL    HW130253   1.701  13.022   2.579
76140SOL    HW230254   1.695  13.163   2.524
76141SOL     OW30255   1.133   6.622   4.958
76141SOL    HW130256   1.186   6.642   4.881
76141SOL    HW230257   1.186   6.562   5.009
76142SOL     OW30258   0.593   4.877   2.177
76142SOL    HW130259   0.533   4.932   2.126
76142SOL    HW230260   0.681   4.904   2.148
76143SOL     OW30261   7.237   5.589  14.260
76143SOL    HW130262   7.326   5.554  14.267
76143SOL    HW230263   7.201   5.580  14.348
76144SOL     OW30264  11.343   6.227  12.708
76144SOL    HW130265  11.259   6.259  12.676
76144SOL    HW230266  11.329   6.212  12.802
76145SOL     OW30267  12.906  10.691  14.715
76145SOL    HW130268  12.889  10.694  14.809
76145SOL    HW230269  12.822  10.666  14.675
76146SOL     OW30270  10.326   1.662  12.595
76146SOL    HW130271  10.386   1.683  12.667
76146SOL    HW230272  10.268   1.595  12.631
76147SOL     OW30273   3.226  14.164   6.948
76147SOL    HW130274   3.212  14.069   6.943
76147SOL    HW230275   3.321  14.174   6.952
76148SOL     OW30276  10.689   4.955   1.134
76148SOL    HW130277  10.736   5.014   1.192
76148SOL    HW230278  10.663   5.009   1.059
76149SOL     OW30279   4.681   3.671  10.233
76149SOL    HW130280   4.741   3.737  10.268
76149SOL    HW230281   4.720   3.646  10.149
76150SOL     OW30282   1.887   5.791  12.952
76150SOL    HW130283   1.971   5.813  12.911
76150SOL    HW230284   1.902   5.804  13.045
76151SOL     OW30285   4.784   9.826   0.921
76151SOL    HW130286   4.860   9.828   0.863
76151SOL    HW230287   4.713   9.864   0.869
76152SOL     OW30288  10.514  13.166  10.904
76152SOL    HW130289  10.517  13.258  10.877
76152SOL    HW230290  10.555  13.166  10.991
76153SOL     OW30291   5.853  10.103   3.256
76153SOL    HW130292   5.768  10.062   3.275
76153SOL    HW230293   5.917  10.038   3.284
76154SOL     OW30294  13.436   0.496   8.966
76154SOL    HW130295  13.376   0.569   8.953
76154SOL    HW230296  13.379   0.419   8.968
76155SOL     OW30297  13.175   0.551   0.356
76155SOL    HW130298  13.213   0.610   0.421
76155SOL    HW230299  13.236   0.477   0.353
76156SOL     OW30300   7.139   8.067   4.884
76156SOL    HW130301   7.083   8.016   4.943
76156SOL    HW230302   7.127   8.157   4.912
76157SOL     OW30303   2.293   5.846   6.313
76157SOL    HW130304   2.377   5.891   6.301
76157SOL    HW230305   2.289   5.784   6.240
76158SOL     OW30306   1.339  12.511   3.059
76158SOL    HW130307   1.419  12.496   3.008
76158SOL    HW230308   1.370  12.537   3.146
76159SOL     OW30309   0.915   6.922   2.579
76159SOL    HW130310   0.859   6.991   2.615
76159SOL    HW230311   0.880   6.907   2.491
76160SOL     OW30312   5.590   5.471  11.284
76160SOL    HW130313   5.621   5.500  11.198
76160SOL    HW230314   5.589   5.375  11.279
76161SOL     OW30315  12.770   3.418  13.189
76161SOL    HW130316  12.717   3.359  13.242
76161SOL    HW230317  12.839   3.363  13.154
76162SOL     OW30318  11.581   6.100   2.110
76162SOL    HW130319  11.657   6.044   2.124
76162SOL    HW230320  11.512   6.041   2.081
76163SOL     OW30321  13.312  11.427   2.175
76163SOL    HW130322  13.320  11.495   2.108
76163SOL    HW230323  13.286  11.473   2.254
76164SOL     OW30324  10.157  13.087   6.731
76164SOL    HW130325  10.230  13.063   6.789
76164SOL    HW230326  10.093  13.127   6.790
76165SOL     OW30327  11.846   8.978  10.888
76165SOL    HW130328  11.895   9.058  10.906
76165SOL    HW230329  11.836   8.935  10.973
76166SOL     OW30330  14.617   8.648   7.092
76166SOL    HW130331  14.666   8.716   7.138
76166SOL    HW230332  14.530   8.650   7.132
76167SOL     OW30333   1.785   7.149   5.140
76167SOL    HW130334   1.829   7.064   5.142
76167SOL    HW230335   1.802   7.182   5.051
76168SOL     OW30336  11.083  13.665   1.648
76168SOL    HW130337  11.011  13.676   1.586
76168SOL    HW230338  11.055  13.714   1.726
76169SOL     OW30339   3.036  10.776   6.693
76169SOL    HW130340   3.056  10.859   6.738
76169SOL    HW230341   3.118  10.727   6.695
76170SOL     OW30342   0.973   1.715  12.495
76170SOL    HW130343   0.923   1.721  12.577
76170SOL    HW230344   0.908   1.720  12.426
76171SOL     OW30345   1.940   4.024   9.156
76171SOL    HW130346   1.988   3.947   9.124
76171SOL    HW230347   1.904   3.996   9.240
76172SOL     OW30348   1.724   7.813   2.834
76172SOL    HW130349   1.680   7.819   2.749
76172SOL    HW230350   1.805   7.765   2.816
76173SOL     OW30351   0.084   8.298   1.028
76173SOL    HW130352   0.053   8.293   0.937
76173SOL    HW230353   0.130   8.215   1.042
76174SOL     OW30354   0.432  10.915   9.488
76174SOL    HW130355   0.386  10.832   9.479
76174SOL    HW230356   0.374  10.979   9.447
76175SOL     OW30357   7.754  11.834   0.388
76175SOL    HW130358   7.730  11.802   0.475
76175SOL    HW230359   7.830  11.780   0.364
76176SOL     OW30360   1.740  10.542  13.734
76176SOL    HW130361   1.769  10.522  13.645
76176SOL    HW230362   1.795  10.617  13.760
76177SOL     OW30363   4.225   4.927   8.335
76177SOL    HW130364   4.165   4.985   8.288
76177SOL    HW230365   4.228   4.962   8.424
76178SOL     OW30366  11.832   1.228   2.711
76178SOL    HW130367  11.867   1.316   2.696
76178SOL    HW230368  11.851   1.211   2.804
76179SOL     OW30369   7.358   5.651   9.648
76179SOL    HW130370   7.446   5.674   9.619
76179SOL    HW230371   7.302   5.667   9.572
76180SOL     OW30372   9.203  10.671   6.767
76180SOL    HW130373   9.114  10.706   6.766
76180SOL    HW230374   9.191  10.578   6.788
76181SOL     OW30375   2.574   0.351   2.198
76181SOL    HW130376   2.576   0.321   2.289
76181SOL    HW230377   2.663   0.336   2.166
76182SOL     OW30378  13.032   9.067   8.556
76182SOL    HW130379  12.965   9.051   8.622
76182SOL    HW230380  13.073   9.149   8.582
76183SOL     OW30381   4.762  11.257  14.849
76183SOL    HW130382   4.677  11.290   0.006
76183SOL    HW230383   4.761  11.164  14.871
76184SOL     OW30384   9.332  12.757   5.650
76184SOL    HW130385   9.255  12.719   5.608
76184SOL    HW230386   9.298  12.800   5.728
76185SOL     OW30387   5.516   4.063   1.960
76185SOL    HW130388   5.491   4.154   1.952
76185SOL    HW230389   5.609   4.061   1.937
76186SOL     OW30390   7.458  12.264  10.417
76186SOL    HW130391   7.437  12.199  10.485
76186SOL    HW230392   7.550  12.249  10.398
76187SOL     OW30393  13.028   2.604   3.081
76187SOL    HW130394  13.069   2.690   3.072
76187SOL    HW230395  13.056   2.557   3.002
76188SOL     OW30396   1.673  14.107  11.621
76188SOL    HW130397   1.652  14.022  11.658
76188SOL    HW230398   1.655  14.097  11.527
76189SOL     OW30399   8.382   7.108   1.246
76189SOL    HW130400   8.359   7.019   1.272
76189SOL    HW230401   8.420   7.098   1.159
76190SOL     OW30402   7.845   3.077  11.893
76190SOL    HW130403   7.823   2.994  11.852
76190SOL    HW230404   7.781   3.139  11.858
76191SOL     OW30405   2.093   4.456   1.041
76191SOL    HW130406   2.105   4.364   1.020
76191SOL    HW230407   2.104   4.461   1.136
76192SOL     OW30408  13.722   4.892  13.851
76192SOL    HW130409  13.633   4.928  13.848
76192SOL    HW230410  13.725   4.828  13.780
76193SOL     OW30411  12.108  13.952   8.830
76193SOL    HW130412  12.164  13.942   8.907
76193SOL    HW230413  12.132  14.037   8.793
76194SOL     OW30414  10.130  10.329  11.323
76194SOL    HW130415  10.163  10.257  11.268
76194SOL    HW230416  10.110  10.287  11.407
76195SOL     OW30417   6.682  11.405   5.488
76195SOL    HW130418   6.696  11.378   5.579
76195SOL    HW230419   6.770  11.417   5.453
76196SOL     OW30420  10.739   1.278  11.980
76196SOL    HW130421  10.819   1.318  12.015
76196SOL    HW230422  10.765   1.189  11.957
76197SOL     OW30423   8.075   2.456  14.190
76197SOL    HW130424   8.128   2.459  14.110
76197SOL    HW230425   7.989   2.486  14.163
76198SOL     OW30426   0.970  12.625   7.890
76198SOL    HW130427   1.004  12.536   7.886
76198SOL    HW230428   1.043  12.676   7.925
76199SOL     OW30429   2.478   9.524   0.231
76199SOL    HW130430   2.455   9.495   0.319
76199SOL    HW230431   2.541   9.595   0.245
76200SOL     OW30432   9.389   7.811   4.625
76200SOL    HW130433   9.475   7.786   4.591
76200SOL    HW230434   9.360   7.736   4.676
76201SOL     OW30435   9.677   2.040   3.859
76201SOL    HW130436   9.647   1.964   3.810
76201SOL    HW230437   9.611   2.107   3.843
76202SOL     OW30438   8.305   4.462   6.914
76202SOL    HW130439   8.232   4.471   6.852
76202SOL    HW230440   8.300   4.540   6.969
76203SOL     OW30441   1.907   8.711  11.675
76203SOL    HW130442   1.887   8.800  11.647
76203SOL    HW230443   1.988   8.688  11.630
76204SOL     OW30444  11.108   1.536  13.693
76204SOL    HW130445  11.112   1.620  13.647
76204SOL    HW230446  11.030   1.493  13.659
76205SOL     OW30447   9.196   4.004  14.260
76205SOL    HW130448   9.112   4.044  14.282
76205SOL    HW230449   9.257   4.037  14.327
76206SOL     OW30450   3.414  14.116  13.969
76206SOL    HW130451   3.380  14.048  14.027
76206SOL    HW230452   3.345  14.182  13.966
76207SOL     OW30453  10.526   0.272   6.251
76207SOL    HW130454  10.576   0.302   6.328
76207SOL    HW230455  10.460   0.213   6.287
76208SOL     OW30456   4.761   4.021  10.139
76208SOL    HW130457   4.827   3.989  10.201
76208SOL    HW230458   4.744   3.947  10.082
76209SOL     OW30459   6.040   5.135   0.722
76209SOL    HW130460   6.069   5.212   0.674
76209SOL    HW230461   6.082   5.062   0.677
76210SOL     OW30462   4.533  13.298   9.439
76210SOL    HW130463   4.484  13.325   9.516
76210SOL    HW230464   4.555  13.380   9.394
76211SOL     OW30465   2.211   1.984   5.372
76211SOL    HW130466   2.251   2.066   5.344
76211SOL    HW230467   2.285   1.926   5.391
76212SOL     OW30468   0.046   0.620   9.401
76212SOL    HW130469   0.082   0.636   9.313
76212SOL    HW230470   0.032   0.708   9.437
76213SOL     OW30471   3.372   6.026  10.861
76213SOL    HW130472   3.322   6.107  10.859
76213SOL    HW230473   3.434   6.035  10.788
76214SOL     OW30474  12.315   1.463  14.783
76214SOL    HW130475  12.357   1.381  14.811
76214SOL    HW230476  12.233   1.435  14.744
76215SOL     OW30477   1.059   6.418  13.414
76215SOL    HW130478   1.092   6.503  13.385
76215SOL    HW230479   0.989   6.440  13.475
76216SOL     OW30480   0.440   8.537   1.848
76216SOL    HW130481   0.345   8.546   1.840
76216SOL    HW230482   0.454   8.443   1.860
76217SOL     OW30483   4.720   4.958  11.176
76217SOL    HW130484   4.687   5.037  11.134
76217SOL    HW230485   4.646   4.897  11.173
76218SOL     OW30486   9.277  13.346   1.889
76218SOL    HW130487   9.370  13.344   1.867
76218SOL    HW230488   9.236  13.287   1.825
76219SOL     OW30489  10.078  10.490   7.213
76219SOL    HW130490   9.997  10.486   7.262
76219SOL    HW230491  10.088  10.582   7.189
76220SOL     OW30492  12.708   7.053   1.373
76220SOL    HW130493  12.638   7.102   1.416
76220SOL    HW230494  12.759   7.016   1.445
76221SOL     OW30495  11.468   3.968   6.098
76221SOL    HW130496  11.443   3.876   6.088
76221SOL    HW230497  11.385   4.015   6.098
76222SOL     OW30498   2.492  11.200  13.298
76222SOL    HW130499   2.554  11.198  13.225
76222SOL    HW230500   2.537  11.249  13.367
76223SOL     OW30501  14.277  13.309  13.822
76223SOL    HW130502  14.248  13.246  13.756
76223SOL    HW230503  14.221  13.291  13.898
76224SOL     OW30504   4.126   4.311   3.268
76224SOL    HW130505   4.156   4.297   3.358
76224SOL    HW230506   4.197   4.277   3.214
76225SOL     OW30507  14.834   1.807   0.753
76225SOL    HW130508  14.852   1.872   0.684
76225SOL    HW230509  14.787   1.737   0.708
76226SOL     OW30510   9.424  14.490  10.960
76226SOL    HW130511   9.437  14.467  10.868
76226SOL    HW230512   9.506  14.532  10.986
76227SOL     OW30513   8.594  10.567   6.889
76227SOL    HW130514   8.659  10.497   6.890
76227SOL    HW230515   8.538  10.546   6.814
76228SOL     OW30516   7.726   1.145  14.382
76228SOL    HW130517   7.650   1.197  14.355
76228SOL    HW230518   7.793   1.210  14.404
76229SOL     OW30519  11.694   9.335   9.213
76229SOL    HW130520  11.632   9.274   9.253
76229SOL    HW230521  11.770   9.281   9.191
76230SOL     OW30522  10.968   2.683   8.447
76230SOL    HW130523  10.947   2.620   8.378
76230SOL    HW230524  10.971   2.768   8.402
76231SOL     OW30525  12.297   0.280   9.308
76231SOL    HW130526  12.383   0.320   9.294
76231SOL    HW230527  12.252   0.290   9.224
76232SOL     OW30528   1.599   9.760  10.388
76232SOL    HW130529   1.503   9.755  10.395
76232SOL    HW230530   1.619   9.715  10.306
76233SOL     OW30531   6.698   5.620   1.829
76233SOL    HW130532   6.639   5.570   1.772
76233SOL    HW230533   6.780   5.627   1.780
76234SOL     OW30534  10.581   3.879   1.115
76234SOL    HW130535  10.580   3.787   1.139
76234SOL    HW230536  10.514   3.887   1.047
76235SOL     OW30537  14.556  10.185  14.445
76235SOL    HW130538  14.537  10.094  14.422
76235SOL    HW230539  14.470  10.228  14.445
76236SOL     OW30540   4.101   8.673  13.007
76236SOL    HW130541   4.094   8.582  12.978
76236SOL    HW230542   4.180   8.706  12.964
76237SOL     OW30543   9.645  10.312   7.813
76237SOL    HW130544   9.652  10.238   7.875
76237SOL    HW230545   9.559  10.349   7.830
76238SOL     OW30546   1.177  10.485  12.617
76238SOL    HW130547   1.219  10.423  12.559
76238SOL    HW230548   1.216  10.469  12.703
76239SOL     OW30549   1.872  13.526   0.798
76239SOL    HW130550   1.864  13.620   0.781
76239SOL    HW230551   1.961  13.504   0.769
76240SOL     OW30552   8.377   1.292   8.791
76240SOL    HW130553   8.346   1.295   8.701
76240SOL    HW230554   8.314   1.235   8.836
76241SOL     OW30555   2.338   5.053   2.367
76241SOL    HW130556   2.401   5.020   2.432
76241SOL    HW230557   2.270   4.985   2.363
76242SOL     OW30558  10.751   1.331   7.090
76242SOL    HW130559  10.823   1.351   7.031
76242SOL    HW230560  10.792   1.319   7.176
76243SOL     OW30561  14.050   3.936  10.840
76243SOL    HW130562  14.137   3.904  10.813
76243SOL    HW230563  14.046   4.025  10.806
76244SOL     OW30564   8.675  10.281  13.775
76244SOL    HW130565   8.754  10.335  13.772
76244SOL    HW230566   8.603  10.344  13.767
76245SOL     OW30567   1.867   5.264  11.276
76245SOL    HW130568   1.878   5.228  11.188
76245SOL    HW230569   1.957   5.283  11.305
76246SOL     OW30570   5.154  10.997   5.243
76246SOL    HW130571   5.232  11.047   5.223
76246SOL    HW230572   5.123  10.964   5.159
76247SOL     OW30573   6.923   5.552  12.515
76247SOL    HW130574   6.901   5.568  12.423
76247SOL    HW230575   6.839   5.553  12.560
76248SOL     OW30576   2.582   0.773  11.874
76248SOL    HW130577   2.581   0.869  11.881
76248SOL    HW230578   2.556   0.756  11.783
76249SOL     OW30579  13.372   0.325  11.324
76249SOL    HW130580  13.439   0.290  11.383
76249SOL    HW230581  13.389   0.283  11.240
76250SOL     OW30582   1.031  10.830   4.731
76250SOL    HW130583   0.983  10.869   4.804
76250SOL    HW230584   1.000  10.877   4.654
76251SOL     OW30585   5.102   2.481  11.479
76251SOL    HW130586   5.094   2.568  11.517
76251SOL    HW230587   5.188   2.449  11.508
76252SOL     OW30588   6.313  11.304   7.056
76252SOL    HW130589   6.391  11.292   7.003
76252SOL    HW230590   6.343  11.299   7.147
76253SOL     OW30591  12.074   8.188  11.310
76253SOL    HW130592  12.003   8.241  11.275
76253SOL    HW230593  12.125   8.249  11.363
76254SOL     OW30594   0.673   8.269   6.804
76254SOL    HW130595   0.684   8.181   6.842
76254SOL    HW230596   0.730   8.269   6.727
76255SOL     OW30597  12.500  11.741  14.244
76255SOL    HW130598  12.417  11.778  14.277
76255SOL    HW230599  12.541  11.814  14.197
76256SOL     OW30600  13.773   9.478   7.017
76256SOL    HW130601  13.724   9.452   6.939
76256SOL    HW230602  13.861   9.499   6.984
76257SOL     OW30603   5.586   7.381   4.555
76257SOL    HW130604   5.499   7.419   4.570
76257SOL    HW230605   5.635   7.450   4.511
76258SOL     OW30606   0.920   7.080   4.169
76258SOL    HW130607   0.864   7.063   4.093
76258SOL    HW230608   1.008   7.057   4.139
76259SOL     OW30609   0.304  13.202   7.510
76259SOL    HW130610   0.315  13.271   7.444
76259SOL    HW230611   0.209  13.199   7.525
76260SOL     OW30612   9.598   9.997  14.493
76260SOL    HW130613   9.660   9.937  14.535
76260SOL    HW230614   9.621  10.084  14.526
76261SOL     OW30615  12.032   7.133  14.647
76261SOL    HW130616  12.128   7.131  14.652
76261SOL    HW230617  12.005   7.046  14.676
76262SOL     OW30618   2.986   0.512  11.305
76262SOL    HW130619   3.004   0.484  11.215
76262SOL    HW230620   3.041   0.455  11.359
76263SOL     OW30621   8.174   5.337   2.028
76263SOL    HW130622   8.102   5.344   1.966
76263SOL    HW230623   8.238   5.281   1.984
76264SOL     OW30624   5.552  12.594  10.748
76264SOL    HW130625   5.531  12.514  10.796
76264SOL    HW230626   5.583  12.564  10.663
76265SOL     OW30627   7.050   9.577  10.436
76265SOL    HW130628   7.002   9.577  10.519
76265SOL    HW230629   7.027   9.494  10.395
76266SOL     OW30630   4.976   1.534   1.829
76266SOL    HW130631   5.035   1.497   1.895
76266SOL    HW230632   4.903   1.570   1.879
76267SOL     OW30633  10.692   7.897   4.059
76267SOL    HW130634  10.701   7.842   4.136
76267SOL    HW230635  10.780   7.902   4.022
76268SOL     OW30636   7.234  12.549   2.180
76268SOL    HW130637   7.249  12.470   2.127
76268SOL    HW230638   7.320  12.571   2.216
76269SOL     OW30639   3.873   6.797   2.177
76269SOL    HW130640   3.888   6.737   2.250
76269SOL    HW230641   3.864   6.883   2.219
76270SOL     OW30642   4.427  13.462  14.333
76270SOL    HW130643   4.391  13.425  14.253
76270SOL    HW230644   4.481  13.535  14.304
76271SOL     OW30645   6.750   3.278   3.991
76271SOL    HW130646   6.670   3.320   3.961
76271SOL    HW230647   6.769   3.319   4.075
76272SOL     OW30648   1.716  12.703   6.518
76272SOL    HW130649   1.800  12.683   6.476
76272SOL    HW230650   1.719  12.797   6.533
76273SOL     OW30651   0.759  14.093   0.046
76273SOL    HW130652   0.724  14.007   0.023
76273SOL    HW230653   0.835  14.074   0.101
76274SOL     OW30654   0.946  11.058   8.292
76274SOL    HW130655   0.884  11.059   8.219
76274SOL    HW230656   0.896  11.093   8.366
76275SOL     OW30657   8.486   8.170   3.579
76275SOL    HW130658   8.503   8.126   3.496
76275SOL    HW230659   8.410   8.226   3.561
76276SOL     OW30660   1.587   0.286   0.746
76276SOL    HW130661   1.593   0.381   0.753
76276SOL    HW230662   1.508   0.264   0.796
76277SOL     OW30663   2.011  10.001   0.106
76277SOL    HW130664   2.092  10.025   0.061
76277SOL    HW230665   1.991  10.077   0.161
76278SOL     OW30666   3.134   1.453  14.214
76278SOL    HW130667   3.050   1.424  14.249
76278SOL    HW230668   3.111   1.496  14.131
76279SOL     OW30669   5.036   3.273   4.911
76279SOL    HW130670   4.941   3.286   4.906
76279SOL    HW230671   5.055   3.273   5.005
76280SOL     OW30672   2.410   1.885  13.843
76280SOL    HW130673   2.354   1.837  13.904
76280SOL    HW230674   2.415   1.973  13.880
76281SOL     OW30675   3.684   9.257  10.410
76281SOL    HW130676   3.739   9.273  10.333
76281SOL    HW230677   3.629   9.183  10.385
76282SOL     OW30678   6.539  10.466   4.043
76282SOL    HW130679   6.459  10.452   4.094
76282SOL    HW230680   6.533  10.403   3.972
76283SOL     OW30681   1.215   8.786  12.186
76283SOL    HW130682   1.150   8.739  12.239
76283SOL    HW230683   1.166   8.860  12.149
76284SOL     OW30684   5.040   0.694  14.846
76284SOL    HW130685   5.103   0.623  14.833
76284SOL    HW230686   5.010   0.684   0.063
76285SOL     OW30687  11.745  13.333  12.328
76285SOL    HW130688  11.656  13.335  12.363
76285SOL    HW230689  11.793  13.277  12.388
76286SOL     OW30690  11.734   8.431  12.152
76286SOL    HW130691  11.669   8.438  12.082
76286SOL    HW230692  11.787   8.355  12.128
76287SOL     OW30693   0.743   5.587   6.159
76287SOL    HW130694   0.667   5.592   6.101
76287SOL    HW230695   0.802   5.655   6.127
76288SOL     OW30696   6.479   9.468  13.309
76288SOL    HW130697   6.569   9.445  13.284
76288SOL    HW230698   6.476   9.563  13.307
76289SOL     OW30699   0.753   8.034  11.957
76289SOL    HW130700   0.803   8.076  12.027
76289SOL    HW230701   0.710   8.106  11.911
76290SOL     OW30702   4.067   0.237   7.553
76290SOL    HW130703   4.049   0.309   7.613
76290SOL    HW230704   4.017   0.164   7.588
76291SOL     OW30705  10.463   4.997   6.473
76291SOL    HW130706  10.426   5.037   6.553
76291SOL    HW230707  10.527   4.934   6.505
76292SOL     OW30708   5.076  12.753   3.093
76292SOL    HW130709   5.055  12.747   3.186
76292SOL    HW230710   5.171  12.760   3.089
76293SOL     OW30711  14.760  13.549   6.554
76293SOL    HW130712  14.699  13.485   6.517
76293SOL    HW230713  14.760  13.621   6.491
76294SOL     OW30714  14.033   5.883  10.130
76294SOL    HW130715  14.072   5.938  10.062
76294SOL    HW230716  14.077   5.911  10.211
76295SOL     OW30717   6.870   6.059   7.621
76295SOL    HW130718   6.847   6.142   7.663
76295SOL    HW230719   6.851   6.074   7.528
76296SOL     OW30720   5.965   7.307   2.895
76296SOL    HW130721   6.048   7.273   2.861
76296SOL    HW230722   5.963   7.278   2.986
76297SOL     OW30723   9.809   7.889   3.072
76297SOL    HW130724   9.799   7.806   3.027
76297SOL    HW230725   9.728   7.936   3.055
76298SOL     OW30726  12.248  13.172   7.367
76298SOL    HW130727  12.184  13.213   7.424
76298SOL    HW230728  12.308  13.242   7.343
76299SOL     OW30729   4.208   2.855  14.091
76299SOL    HW130730   4.179   2.870  14.181
76299SOL    HW230731   4.240   2.765  14.091
76300SOL     OW30732  14.422  11.726   9.870
76300SOL    HW130733  14.436  11.729   9.775
76300SOL    HW230734  14.453  11.811   9.902
76301SOL     OW30735   3.065   6.434  13.582
76301SOL    HW130736   3.096   6.453  13.493
76301SOL    HW230737   3.090   6.343  13.597
76302SOL     OW30738  10.035   8.825   4.999
76302SOL    HW130739  10.011   8.909   4.960
76302SOL    HW230740   9.956   8.794   5.042
76303SOL     OW30741   0.609   3.089   4.074
76303SOL    HW130742   0.568   3.089   3.988
76303SOL    HW230743   0.546   3.132   4.132
76304SOL     OW30744   0.344   8.419   9.651
76304SOL    HW130745   0.395   8.372   9.717
76304SOL    HW230746   0.303   8.351   9.598
76305SOL     OW30747   0.860   3.733  13.133
76305SOL    HW130748   0.871   3.826  13.149
76305SOL    HW230749   0.890   3.691  13.214
76306SOL     OW30750  14.657   4.397  10.696
76306SOL    HW130751  14.703   4.331  10.644
76306SOL    HW230752  14.655   4.475  10.640
76307SOL     OW30753  11.089   1.383   4.655
76307SOL    HW130754  11.140   1.412   4.579
76307SOL    HW230755  10.998   1.393   4.629
76308SOL     OW30756  10.249   6.877   8.126
76308SOL    HW130757  10.280   6.791   8.098
76308SOL    HW230758  10.265   6.879   8.220
76309SOL     OW30759   7.541  14.537   3.258
76309SOL    HW130760   7.616  14.498   3.303
76309SOL    HW230761   7.502  14.595   3.323
76310SOL     OW30762   2.850  13.619   8.275
76310SOL    HW130763   2.803  13.582   8.200
76310SOL    HW230764   2.882  13.542   8.323
76311SOL     OW30765   3.891   5.532   2.949
76311SOL    HW130766   3.892   5.499   2.859
76311SOL    HW230767   3.966   5.490   2.991
76312SOL     OW30768   0.524   1.118   3.527
76312SOL    HW130769   0.456   1.073   3.577
76312SOL    HW230770   0.523   1.076   3.441
76313SOL     OW30771  14.698   5.612   3.608
76313SOL    HW130772  14.737   5.698   3.590
76313SOL    HW230773  14.618   5.611   3.556
76314SOL     OW30774   7.327   8.527   4.770
76314SOL    HW130775   7.311   8.571   4.687
76314SOL    HW230776   7.246   8.541   4.821
76315SOL     OW30777  12.642   9.995   7.701
76315SOL    HW130778  12.669   9.936   7.772
76315SOL    HW230779  12.574   9.947   7.655
76316SOL     OW30780   9.921  13.151   8.599
76316SOL    HW130781   9.827  13.170   8.604
76316SOL    HW230782   9.943  13.164   8.507
76317SOL     OW30783   3.319  13.375   6.312
76317SOL    HW130784   3.376  13.417   6.377
76317SOL    HW230785   3.247  13.437   6.302
76318SOL     OW30786   3.196  13.703  13.853
76318SOL    HW130787   3.261  13.675  13.917
76318SOL    HW230788   3.241  13.695  13.769
76319SOL     OW30789   5.367  10.971   4.351
76319SOL    HW130790   5.369  10.990   4.445
76319SOL    HW230791   5.344  10.878   4.346
76320SOL     OW30792   4.454  14.833  11.701
76320SOL    HW130793   4.379   0.002  11.742
76320SOL    HW230794   4.486  14.770  11.766
76321SOL     OW30795   9.241   0.954  14.770
76321SOL    HW130796   9.210   1.041  14.744
76321SOL    HW230797   9.336   0.957  14.757
76322SOL     OW30798   7.591   5.077   0.125
76322SOL    HW130799   7.565   5.038   0.041
76322SOL    HW230800   7.571   5.170   0.115
76323SOL     OW30801   1.656  10.297   4.597
76323SOL    HW130802   1.635  10.213   4.555
76323SOL    HW230803   1.751  10.294   4.609
76324SOL     OW30804   0.030   9.745   9.721
76324SOL    HW130805   0.110   9.796   9.708
76324SOL    HW230806   0.059   9.668   9.769
76325SOL     OW30807   9.503   6.776  12.670
76325SOL    HW130808   9.439   6.847  12.681
76325SOL    HW230809   9.536   6.787  12.581
76326SOL     OW30810   3.208   2.894  12.089
76326SOL    HW130811   3.300   2.869  12.093
76326SOL    HW230812   3.186   2.921  12.178
76327SOL     OW30813   9.737  12.889   1.531
76327SOL    HW130814   9.690  12.925   1.607
76327SOL    HW230815   9.714  12.948   1.459
76328SOL     OW30816  13.593   6.298  14.441
76328SOL    HW130817  13.500   6.322  14.446
76328SOL    HW230818  13.597   6.230  14.374
76329SOL     OW30819  11.199   6.434   8.543
76329SOL    HW130820  11.218   6.364   8.606
76329SOL    HW230821  11.177   6.510   8.596
76330SOL     OW30822   7.272   4.042   2.864
76330SOL    HW130823   7.336   4.081   2.923
76330SOL    HW230824   7.199   4.104   2.864
76331SOL     OW30825   0.135   7.376   0.805
76331SOL    HW130826   0.052   7.383   0.759
76331SOL    HW230827   0.143   7.459   0.853
76332SOL     OW30828   7.576   3.524   0.998
76332SOL    HW130829   7.560   3.471   1.076
76332SOL    HW230830   7.491   3.561   0.976
76333SOL     OW30831   8.202   3.071  12.251
76333SOL    HW130832   8.162   3.102  12.170
76333SOL    HW230833   8.172   3.132  12.318
76334SOL     OW30834  14.492   6.893   9.915
76334SOL    HW130835  14.500   6.819   9.854
76334SOL    HW230836  14.453   6.855   9.994
76335SOL     OW30837  12.645   8.508   1.790
76335SOL    HW130838  12.587   8.563   1.737
76335SOL    HW230839  12.728   8.508   1.742
76336SOL     OW30840  12.470   3.754   2.891
76336SOL    HW130841  12.423   3.770   2.973
76336SOL    HW230842  12.408   3.780   2.823
76337SOL     OW30843  14.695   8.845  10.163
76337SOL    HW130844  14.771   8.891  10.197
76337SOL    HW230845  14.620   8.886  10.207
76338SOL     OW30846   2.181   6.707   1.812
76338SOL    HW130847   2.273   6.720   1.833
76338SOL    HW230848   2.177   6.620   1.772
76339SOL     OW30849   0.512  11.238   3.390
76339SOL    HW130850   0.454  11.219   3.317
76339SOL    HW230851   0.513  11.333   3.396
76340SOL     OW30852  11.132   4.953  11.779
76340SOL    HW130853  11.101   4.957  11.689
76340SOL    HW230854  11.191   5.028  11.787
76341SOL     OW30855  11.144   2.497   5.194
76341SOL    HW130856  11.229   2.534   5.218
76341SOL    HW230857  11.129   2.528   5.104
76342SOL     OW30858  10.779  13.828   0.308
76342SOL    HW130859  10.803  13.901   0.251
76342SOL    HW230860  10.851  13.766   0.299
76343SOL     OW30861   7.946  14.376  11.737
76343SOL    HW130862   7.925  14.378  11.830
76343SOL    HW230863   7.923  14.287  11.708
76344SOL     OW30864   0.255   5.237  14.825
76344SOL    HW130865   0.235   5.239  14.732
76344SOL    HW230866   0.323   5.170  14.834
76345SOL     OW30867   1.065   8.430   0.053
76345SOL    HW130868   1.085   8.481   0.131
76345SOL    HW230869   1.144   8.378   0.036
76346SOL     OW30870   0.225   6.185   5.530
76346SOL    HW130871   0.317   6.197   5.554
76346SOL    HW230872   0.179   6.259   5.571
76347SOL     OW30873   3.770   7.584   1.340
76347SOL    HW130874   3.822   7.586   1.421
76347SOL    HW230875   3.681   7.602   1.370
76348SOL     OW30876   9.809   9.807   3.044
76348SOL    HW130877   9.795   9.760   2.961
76348SOL    HW230878   9.862   9.748   3.097
76349SOL     OW30879   7.564  14.419   0.210
76349SOL    HW130880   7.574  14.460   0.296
76349SOL    HW230881   7.586  14.327   0.224
76350SOL     OW30882  10.413   2.074  13.915
76350SOL    HW130883  10.350   2.146  13.908
76350SOL    HW230884  10.420   2.058  14.009
76351SOL     OW30885   7.718  10.200  14.440
76351SOL    HW130886   7.730  10.287  14.403
76351SOL    HW230887   7.752  10.206  14.529
76352SOL     OW30888   0.848   9.957   6.147
76352SOL    HW130889   0.797   9.995   6.076
76352SOL    HW230890   0.936   9.990   6.134
76353SOL     OW30891   9.680   9.806   8.929
76353SOL    HW130892   9.721   9.846   8.852
76353SOL    HW230893   9.751   9.759   8.972
76354SOL     OW30894  14.388  14.051   5.412
76354SOL    HW130895  14.340  14.133   5.405
76354SOL    HW230896  14.321  13.984   5.426
76355SOL     OW30897  12.159   6.986   4.267
76355SOL    HW130898  12.145   7.000   4.173
76355SOL    HW230899  12.075   7.006   4.307
76356SOL     OW30900  13.628  13.186   0.233
76356SOL    HW130901  13.591  13.270   0.261
76356SOL    HW230902  13.556  13.124   0.243
76357SOL     OW30903   6.662  10.574   3.839
76357SOL    HW130904   6.615  10.553   3.919
76357SOL    HW230905   6.729  10.636   3.866
76358SOL     OW30906  10.474   3.517   7.452
76358SOL    HW130907  10.454   3.468   7.532
76358SOL    HW230908  10.412   3.590   7.452
76359SOL     OW30909   5.924   8.162   1.305
76359SOL    HW130910   5.860   8.219   1.347
76359SOL    HW230911   5.894   8.155   1.214
76360SOL     OW30912   1.104   2.878   7.963
76360SOL    HW130913   1.102   2.849   8.054
76360SOL    HW230914   1.197   2.892   7.945
76361SOL     OW30915  11.612   0.019   3.589
76361SOL    HW130916  11.561  14.827   3.541
76361SOL    HW230917  11.556   0.096   3.593
76362SOL     OW30918  10.937   4.743   9.921
76362SOL    HW130919  10.961   4.746  10.013
76362SOL    HW230920  10.960   4.654   9.893
76363SOL     OW30921   8.368   3.868   7.195
76363SOL    HW130922   8.388   3.780   7.228
76363SOL    HW230923   8.278   3.885   7.223
76364SOL     OW30924   0.982   3.246   7.981
76364SOL    HW130925   0.930   3.177   7.940
76364SOL    HW230926   1.061   3.251   7.927
76365SOL     OW30927  14.545   4.864   8.860
76365SOL    HW130928  14.450   4.858   8.849
76365SOL    HW230929  14.562   4.827   8.946
76366SOL     OW30930   0.966   8.877   1.386
76366SOL    HW130931   0.878   8.909   1.365
76366SOL    HW230932   0.980   8.902   1.477
76367SOL     OW30933   4.831  12.878   0.111
76367SOL    HW130934   4.797  12.967   0.102
76367SOL    HW230935   4.917  12.881   0.069
76368SOL     OW30936  14.845   5.718  13.052
76368SOL    HW130937  14.864   5.810  13.074
76368SOL    HW230938  14.750   5.713  13.049
76369SOL     OW30939   1.441   6.876   3.800
76369SOL    HW130940   1.407   6.787   3.807
76369SOL    HW230941   1.438   6.911   3.889
76370SOL     OW30942   5.383   4.817   3.647
76370SOL    HW130943   5.375   4.912   3.641
76370SOL    HW230944   5.293   4.787   3.662
76371SOL     OW30945   6.058   7.670   4.056
76371SOL    HW130946   6.022   7.759   4.054
76371SOL    HW230947   6.123   7.669   3.985
76372SOL     OW30948  13.843   0.193   8.204
76372SOL    HW130949  13.920   0.141   8.222
76372SOL    HW230950  13.816   0.228   8.289
76373SOL     OW30951   9.105   3.559   5.020
76373SOL    HW130952   9.048   3.535   5.093
76373SOL    HW230953   9.114   3.654   5.027
76374SOL     OW30954   0.877  13.298   8.916
76374SOL    HW130955   0.927  13.341   8.985
76374SOL    HW230956   0.797  13.351   8.908
76375SOL     OW30957  12.818  14.267   4.400
76375SOL    HW130958  12.913  14.271   4.402
76375SOL    HW230959  12.791  14.305   4.484
76376SOL     OW30960   9.549   6.224  11.542
76376SOL    HW130961   9.585   6.160  11.481
76376SOL    HW230962   9.626   6.266  11.582
76377SOL     OW30963   6.992   1.057  10.045
76377SOL    HW130964   7.005   1.110   9.967
76377SOL    HW230965   7.079   1.050  10.085
76378SOL     OW30966  14.648   6.339  10.302
76378SOL    HW130967  14.717   6.405  10.315
76378SOL    HW230968  14.695   6.256  10.300
76379SOL     OW30969  10.891   8.065   7.955
76379SOL    HW130970  10.852   7.980   7.980
76379SOL    HW230971  10.909   8.056   7.862
76380SOL     OW30972  10.341   5.159   8.558
76380SOL    HW130973  10.401   5.094   8.594
76380SOL    HW230974  10.272   5.108   8.517
76381SOL     OW30975  14.766   4.825   9.671
76381SOL    HW130976  14.751   4.859   9.759
76381SOL    HW230977  14.709   4.748   9.666
76382SOL     OW30978  12.041   1.249  13.458
76382SOL    HW130979  12.055   1.165  13.413
76382SOL    HW230980  12.045   1.314  13.388
76383SOL     OW30981  10.106  11.710   6.082
76383SOL    HW130982  10.024  11.755   6.059
76383SOL    HW230983  10.132  11.750   6.165
76384SOL     OW30984  13.653   9.717   7.437
76384SOL    HW130985  13.584   9.679   7.384
76384SOL    HW230986  13.620   9.804   7.461
76385SOL     OW30987   5.440   5.694   6.658
76385SOL    HW130988   5.523   5.721   6.619
76385SOL    HW230989   5.429   5.602   6.631
76386SOL     OW30990  14.481  12.128   2.972
76386SOL    HW130991  14.554  12.156   3.027
76386SOL    HW230992  14.431  12.068   3.027
76387SOL     OW30993   4.429   0.274  14.468
76387SOL    HW130994   4.468   0.190  14.495
76387SOL    HW230995   4.459   0.285  14.378
76388SOL     OW30996   0.251  10.825   2.797
76388SOL    HW130997   0.246  10.747   2.853
76388SOL    HW230998   0.311  10.800   2.726
76389SOL     OW30999  12.827   1.607   7.513
76389SOL    HW131000  12.757   1.614   7.578
76389SOL    HW231001  12.790   1.643   7.433
76390SOL     OW31002   0.366  14.330   5.363
76390SOL    HW131003   0.414  14.330   5.281
76390SOL    HW231004   0.350  14.238   5.383
76391SOL     OW31005   6.549  10.935   2.551
76391SOL    HW131006   6.576  11.021   2.520
76391SOL    HW231007   6.550  10.943   2.647
76392SOL     OW31008   6.422   1.396  11.498
76392SOL    HW131009   6.376   1.316  11.525
76392SOL    HW231010   6.452   1.434  11.580
76393SOL     OW31011  13.961   8.353   9.422
76393SOL    HW131012  14.036   8.312   9.380
76393SOL    HW231013  13.932   8.290   9.488
76394SOL     OW31014   1.478   6.882   4.438
76394SOL    HW131015   1.431   6.966   4.444
76394SOL    HW231016   1.569   6.903   4.459
76395SOL     OW31017   4.887  14.191   3.860
76395SOL    HW131018   4.916  14.102   3.842
76395SOL    HW231019   4.958  14.247   3.828
76396SOL     OW31020   8.907   5.960   8.287
76396SOL    HW131021   8.853   5.926   8.358
76396SOL    HW231022   8.863   6.040   8.260
76397SOL     OW31023  11.351  12.202   6.658
76397SOL    HW131024  11.386  12.287   6.631
76397SOL    HW231025  11.262  12.201   6.624
76398SOL     OW31026  14.383  10.485   3.034
76398SOL    HW131027  14.412  10.395   3.048
76398SOL    HW231028  14.337  10.508   3.115
76399SOL     OW31029   3.179  12.771  11.179
76399SOL    HW131030   3.237  12.782  11.254
76399SOL    HW231031   3.134  12.856  11.171
76400SOL     OW31032   3.887   7.272  12.197
76400SOL    HW131033   3.925   7.207  12.256
76400SOL    HW231034   3.847   7.337  12.255
76401SOL     OW31035  14.247  12.345   0.518
76401SOL    HW131036  14.202  12.430   0.525
76401SOL    HW231037  14.188  12.291   0.465
76402SOL     OW31038  10.687   5.844  10.694
76402SOL    HW131039  10.758   5.804  10.643
76402SOL    HW231040  10.687   5.936  10.667
76403SOL     OW31041   4.184  14.094  12.502
76403SOL    HW131042   4.231  14.086  12.585
76403SOL    HW231043   4.197  14.184  12.475
76404SOL     OW31044   9.318   0.590  13.794
76404SOL    HW131045   9.365   0.560  13.872
76404SOL    HW231046   9.247   0.527  13.784
76405SOL     OW31047   3.988  14.558  14.871
76405SOL    HW131048   4.042  14.633   0.023
76405SOL    HW231049   3.899  14.591  14.870
76406SOL     OW31050  14.777   1.350  12.442
76406SOL    HW131051  14.713   1.287  12.409
76406SOL    HW231052  14.819   1.306  12.516
76407SOL     OW31053   7.813   4.411  11.463
76407SOL    HW131054   7.830   4.353  11.538
76407SOL    HW231055   7.894   4.409  11.412
76408SOL     OW31056   4.353   3.682   2.660
76408SOL    HW131057   4.389   3.734   2.732
76408SOL    HW231058   4.382   3.727   2.581
76409SOL     OW31059  14.345  13.079   6.131
76409SOL    HW131060  14.276  13.076   6.198
76409SOL    HW231061  14.427  13.081   6.181
76410SOL     OW31062  14.155  10.502   8.061
76410SOL    HW131063  14.122  10.423   8.017
76410SOL    HW231064  14.239  10.476   8.098
76411SOL     OW31065   1.841   2.819  13.787
76411SOL    HW131066   1.758   2.853  13.822
76411SOL    HW231067   1.891   2.897  13.764
76412SOL     OW31068   0.502   8.470  14.623
76412SOL    HW131069   0.484   8.559  14.653
76412SOL    HW231070   0.589   8.475  14.583
76413SOL     OW31071   4.756  10.422   9.402
76413SOL    HW131072   4.764  10.502   9.455
76413SOL    HW231073   4.700  10.365   9.455
76414SOL     OW31074   1.787   6.790  10.675
76414SOL    HW131075   1.801   6.877  10.636
76414SOL    HW231076   1.786   6.805  10.769
76415SOL     OW31077   2.171   5.366  12.087
76415SOL    HW131078   2.246   5.377  12.028
76415SOL    HW231079   2.133   5.453  12.095
76416SOL     OW31080   1.301   0.263   8.914
76416SOL    HW131081   1.312   0.195   8.980
76416SOL    HW231082   1.302   0.215   8.831
76417SOL     OW31083  11.784   7.522  14.406
76417SOL    HW131084  11.835   7.602  14.414
76417SOL    HW231085  11.826   7.461  14.467
76418SOL     OW31086  11.749   7.016   1.507
76418SOL    HW131087  11.841   7.020   1.535
76418SOL    HW231088  11.754   7.019   1.411
76419SOL     OW31089   8.088   1.185  10.172
76419SOL    HW131090   8.021   1.213  10.235
76419SOL    HW231091   8.171   1.198  10.218
76420SOL     OW31092   7.306  13.390  13.543
76420SOL    HW131093   7.223  13.419  13.580
76420SOL    HW231094   7.285  13.310  13.494
76421SOL     OW31095  10.499   8.121   0.773
76421SOL    HW131096  10.475   8.203   0.729
76421SOL    HW231097  10.594   8.127   0.784
76422SOL     OW31098   7.405   1.526   5.039
76422SOL    HW131099   7.462   1.475   5.097
76422SOL    HW231100   7.417   1.617   5.067
76423SOL     OW31101   8.554  12.053   5.441
76423SOL    HW131102   8.632  12.026   5.488
76423SOL    HW231103   8.489  12.070   5.510
76424SOL     OW31104   4.283   9.091  14.570
76424SOL    HW131105   4.192   9.061  14.573
76424SOL    HW231106   4.277   9.186  14.575
76425SOL     OW31107  13.327  11.019   5.364
76425SOL    HW131108  13.310  11.112   5.350
76425SOL    HW231109  13.315  10.979   5.278
76426SOL     OW31110  12.156   0.837   1.945
76426SOL    HW131111  12.162   0.804   1.855
76426SOL    HW231112  12.063   0.828   1.967
76427SOL     OW31113  11.452   7.965   8.449
76427SOL    HW131114  11.415   7.902   8.387
76427SOL    HW231115  11.397   7.956   8.527
76428SOL     OW31116   0.107  10.132   3.522
76428SOL    HW131117   0.073  10.216   3.555
76428SOL    HW231118   0.091  10.136   3.428
76429SOL     OW31119  10.894   8.958   5.101
76429SOL    HW131120  10.956   9.009   5.153
76429SOL    HW231121  10.819   8.945   5.160
76430SOL     OW31122  12.485   3.100  13.248
76430SOL    HW131123  12.421   3.128  13.183
76430SOL    HW231124  12.437   3.039  13.305
76431SOL     OW31125   8.757  12.303  12.427
76431SOL    HW131126   8.795  12.284  12.342
76431SOL    HW231127   8.717  12.221  12.454
76432SOL     OW31128  11.650  10.369   6.223
76432SOL    HW131129  11.566  10.351   6.181
76432SOL    HW231130  11.629  10.375   6.316
76433SOL     OW31131  13.628   3.062  13.412
76433SOL    HW131132  13.664   2.980  13.447
76433SOL    HW231133  13.533   3.049  13.412
76434SOL     OW31134   7.267   0.672  10.025
76434SOL    HW131135   7.218   0.675   9.943
76434SOL    HW231136   7.215   0.616  10.083
76435SOL     OW31137  10.046   7.598  12.485
76435SOL    HW131138  10.013   7.517  12.525
76435SOL    HW231139   9.971   7.658  12.489
76436SOL     OW31140  12.207   8.348   4.681
76436SOL    HW131141  12.158   8.270   4.709
76436SOL    HW231142  12.274   8.315   4.622
76437SOL     OW31143   2.425   0.600  14.397
76437SOL    HW131144   2.372   0.676  14.420
76437SOL    HW231145   2.516   0.630  14.407
76438SOL     OW31146   2.674   5.319   6.003
76438SOL    HW131147   2.652   5.404   5.964
76438SOL    HW231148   2.592   5.288   6.041
76439SOL     OW31149  13.135  13.576   9.859
76439SOL    HW131150  13.061  13.517   9.869
76439SOL    HW231151  13.208  13.518   9.836
76440SOL     OW31152  11.488  11.318   3.327
76440SOL    HW131153  11.541  11.292   3.402
76440SOL    HW231154  11.404  11.343   3.365
76441SOL     OW31155   5.942   5.315  13.199
76441SOL    HW131156   5.964   5.382  13.135
76441SOL    HW231157   6.002   5.243  13.179
76442SOL     OW31158   9.418   8.384   9.144
76442SOL    HW131159   9.461   8.391   9.060
76442SOL    HW231160   9.395   8.291   9.152
76443SOL     OW31161   2.742   9.636   4.660
76443SOL    HW131162   2.736   9.593   4.746
76443SOL    HW231163   2.799   9.579   4.608
76444SOL     OW31164  13.634   5.379  14.650
76444SOL    HW131165  13.609   5.448  14.711
76444SOL    HW231166  13.642   5.301  14.704
76445SOL     OW31167   0.018   0.423   0.707
76445SOL    HW131168   0.059   0.423   0.794
76445SOL    HW231169  14.805   0.385   0.721
76446SOL     OW31170  10.041   8.163  10.764
76446SOL    HW131171  10.021   8.085  10.815
76446SOL    HW231172  10.036   8.235  10.828
76447SOL     OW31173  13.728  12.653   8.093
76447SOL    HW131174  13.772  12.699   8.022
76447SOL    HW231175  13.737  12.561   8.071
76448SOL     OW31176   9.537   6.227   6.007
76448SOL    HW131177   9.478   6.161   6.043
76448SOL    HW231178   9.482   6.282   5.952
76449SOL     OW31179   0.654   6.001  13.260
76449SOL    HW131180   0.614   6.064  13.201
76449SOL    HW231181   0.701   6.054  13.325
76450SOL     OW31182   0.777   7.172   2.623
76450SOL    HW131183   0.695   7.180   2.575
76450SOL    HW231184   0.751   7.158   2.714
76451SOL     OW31185   3.189   2.988  10.012
76451SOL    HW131186   3.240   3.024  10.084
76451SOL    HW231187   3.235   3.016   9.933
76452SOL     OW31188   7.260   4.100   6.969
76452SOL    HW131189   7.272   4.124   6.877
76452SOL    HW231190   7.188   4.036   6.967
76453SOL     OW31191  10.500   8.769   0.437
76453SOL    HW131192  10.560   8.808   0.374
76453SOL    HW231193  10.420   8.752   0.387
76454SOL     OW31194  12.930   4.247   5.377
76454SOL    HW131195  12.933   4.198   5.459
76454SOL    HW231196  13.021   4.267   5.358
76455SOL     OW31197   9.322  11.555   2.274
76455SOL    HW131198   9.378  11.496   2.224
76455SOL    HW231199   9.362  11.641   2.264
76456SOL     OW31200  14.711   4.186  13.813
76456SOL    HW131201  14.636   4.134  13.844
76456SOL    HW231202  14.749   4.221  13.894
76457SOL     OW31203   4.442  11.571   3.964
76457SOL    HW131204   4.472  11.653   4.004
76457SOL    HW231205   4.407  11.520   4.036
76458SOL     OW31206  11.821   4.360  13.677
76458SOL    HW131207  11.893   4.392  13.732
76458SOL    HW231208  11.788   4.283  13.723
76459SOL     OW31209   7.282   8.278   0.909
76459SOL    HW131210   7.249   8.194   0.942
76459SOL    HW231211   7.375   8.278   0.932
76460SOL     OW31212  11.075   5.867   3.278
76460SOL    HW131213  10.984   5.835   3.279
76460SOL    HW231214  11.125   5.800   3.324
76461SOL     OW31215   0.557   6.070   6.505
76461SOL    HW131216   0.527   6.111   6.586
76461SOL    HW231217   0.649   6.049   6.522
76462SOL     OW31218   2.621  10.470  11.797
76462SOL    HW131219   2.561  10.536  11.762
76462SOL    HW231220   2.624  10.403  11.729
76463SOL     OW31221   1.016   1.418   5.379
76463SOL    HW131222   0.997   1.499   5.333
76463SOL    HW231223   0.967   1.424   5.461
76464SOL     OW31224   8.469  13.423  10.390
76464SOL    HW131225   8.448  13.471  10.310
76464SOL    HW231226   8.434  13.335  10.375
76465SOL     OW31227   3.063   0.253  12.962
76465SOL    HW131228   3.132   0.192  12.934
76465SOL    HW231229   3.101   0.339  12.948
76466SOL     OW31230   6.881   4.542   8.104
76466SOL    HW131231   6.902   4.622   8.057
76466SOL    HW231232   6.945   4.539   8.176
76467SOL     OW31233   1.915  10.203   1.167
76467SOL    HW131234   1.925  10.219   1.073
76467SOL    HW231235   1.869  10.281   1.200
76468SOL     OW31236  11.210   4.355  13.886
76468SOL    HW131237  11.291   4.404  13.870
76468SOL    HW231238  11.209   4.341  13.981
76469SOL     OW31239  14.342   1.956   0.228
76469SOL    HW131240  14.287   1.955   0.150
76469SOL    HW231241  14.334   2.046   0.262
76470SOL     OW31242  14.682  14.830   2.859
76470SOL    HW131243  14.683  14.751   2.912
76470SOL    HW231244  14.736  14.809   2.783
76471SOL     OW31245   6.303  12.553   0.012
76471SOL    HW131246   6.356  12.474   0.003
76471SOL    HW231247   6.228  12.527   0.064
76472SOL     OW31248   1.532   4.936   2.505
76472SOL    HW131249   1.618   4.959   2.540
76472SOL    HW231250   1.522   4.990   2.427
76473SOL     OW31251  11.391  12.054   8.669
76473SOL    HW131252  11.454  11.992   8.706
76473SOL    HW231253  11.435  12.089   8.591
76474SOL     OW31254  12.227   1.956  11.100
76474SOL    HW131255  12.190   1.892  11.162
76474SOL    HW231256  12.183   1.937  11.017
76475SOL     OW31257   8.447   0.062   4.059
76475SOL    HW131258   8.451   0.139   4.116
76475SOL    HW231259   8.456   0.098   3.970
76476SOL     OW31260   7.463  11.469   2.461
76476SOL    HW131261   7.545  11.480   2.509
76476SOL    HW231262   7.484  11.499   2.373
76477SOL     OW31263   9.714   7.990  11.784
76477SOL    HW131264   9.728   7.911  11.836
76477SOL    HW231265   9.621   7.989  11.764
76478SOL     OW31266   1.382   6.115   0.681
76478SOL    HW131267   1.439   6.145   0.610
76478SOL    HW231268   1.312   6.180   0.684
76479SOL     OW31269   9.805   4.296   9.040
76479SOL    HW131270   9.874   4.238   9.007
76479SOL    HW231271   9.844   4.341   9.115
76480SOL     OW31272   1.698  11.324   9.523
76480SOL    HW131273   1.726  11.394   9.465
76480SOL    HW231274   1.706  11.245   9.471
76481SOL     OW31275  14.140   2.192   8.021
76481SOL    HW131276  14.205   2.248   8.065
76481SOL    HW231277  14.057   2.213   8.064
76482SOL     OW31278   6.533  12.901  14.636
76482SOL    HW131279   6.557  12.878  14.546
76482SOL    HW231280   6.437  12.902  14.636
76483SOL     OW31281   8.415  14.070   8.006
76483SOL    HW131282   8.506  14.093   8.024
76483SOL    HW231283   8.419  14.012   7.930
76484SOL     OW31284   1.550   8.051  14.804
76484SOL    HW131285   1.493   8.022  14.733
76484SOL    HW231286   1.632   8.004  14.790
76485SOL     OW31287  10.504   2.281   2.619
76485SOL    HW131288  10.528   2.352   2.679
76485SOL    HW231289  10.528   2.201   2.666
76486SOL     OW31290   5.740  14.726   4.322
76486SOL    HW131291   5.723  14.792   4.389
76486SOL    HW231292   5.758  14.778   4.243
76487SOL     OW31293   1.688  14.846   2.675
76487SOL    HW131294   1.683  14.871   2.583
76487SOL    HW231295   1.764  14.788   2.680
76488SOL     OW31296   7.524  12.263   3.215
76488SOL    HW131297   7.545  12.248   3.307
76488SOL    HW231298   7.609  12.262   3.171
76489SOL     OW31299  13.130  11.975   3.521
76489SOL    HW131300  13.119  12.067   3.543
76489SOL    HW231301  13.181  11.939   3.594
76490SOL     OW31302   2.164   2.228   1.550
76490SOL    HW131303   2.205   2.164   1.491
76490SOL    HW231304   2.171   2.311   1.504
76491SOL     OW31305   5.261   8.146   4.755
76491SOL    HW131306   5.228   8.063   4.791
76491SOL    HW231307   5.265   8.131   4.661
76492SOL     OW31308   8.198   7.688  11.660
76492SOL    HW131309   8.282   7.733  11.661
76492SOL    HW231310   8.176   7.681  11.567
76493SOL     OW31311   4.349   2.964   3.367
76493SOL    HW131312   4.387   2.945   3.453
76493SOL    HW231313   4.334   2.878   3.328
76494SOL     OW31314   2.400   3.685   5.688
76494SOL    HW131315   2.354   3.735   5.620
76494SOL    HW231316   2.480   3.654   5.645
76495SOL     OW31317   4.095   2.024   2.760
76495SOL    HW131318   4.013   2.034   2.710
76495SOL    HW231319   4.107   1.929   2.768
76496SOL     OW31320   6.608   9.027   0.649
76496SOL    HW131321   6.624   8.939   0.615
76496SOL    HW231322   6.657   9.029   0.732
76497SOL     OW31323  12.911   2.018   2.357
76497SOL    HW131324  12.997   2.037   2.394
76497SOL    HW231325  12.926   1.940   2.303
76498SOL     OW31326  12.125   4.590   9.869
76498SOL    HW131327  12.143   4.630   9.954
76498SOL    HW231328  12.108   4.664   9.811
76499SOL     OW31329   8.033   6.901   0.120
76499SOL    HW131330   8.039   6.933   0.209
76499SOL    HW231331   8.045   6.978   0.065
76500SOL     OW31332   1.573  10.487   3.086
76500SOL    HW131333   1.618  10.479   3.171
76500SOL    HW231334   1.613  10.564   3.045
76501SOL     OW31335   0.293  14.174   1.619
76501SOL    HW131336   0.242  14.245   1.658
76501SOL    HW231337   0.341  14.216   1.548
76502SOL     OW31338   7.614   9.707   0.360
76502SOL    HW131339   7.569   9.783   0.398
76502SOL    HW231340   7.561   9.683   0.284
76503SOL     OW31341  13.853   5.792   2.719
76503SOL    HW131342  13.765   5.783   2.684
76503SOL    HW231343  13.860   5.723   2.785
76504SOL     OW31344   0.365   7.455  10.480
76504SOL    HW131345   0.384   7.388  10.414
76504SOL    HW231346   0.350   7.406  10.561
76505SOL     OW31347   9.245   7.261   8.772
76505SOL    HW131348   9.159   7.276   8.811
76505SOL    HW231349   9.235   7.180   8.723
76506SOL     OW31350   0.931  13.369   3.735
76506SOL    HW131351   1.026  13.360   3.731
76506SOL    HW231352   0.906  13.324   3.816
76507SOL     OW31353  14.824   6.749  14.322
76507SOL    HW131354  14.749   6.808  14.324
76507SOL    HW231355  14.791   6.668  14.361
76508SOL     OW31356   5.603   9.681   5.807
76508SOL    HW131357   5.691   9.717   5.820
76508SOL    HW231358   5.618   9.589   5.785
76509SOL     OW31359   0.077   0.534  11.044
76509SOL    HW131360   0.007   0.470  11.034
76509SOL    HW231361   0.118   0.539  10.958
76510SOL     OW31362  11.188   9.404   9.629
76510SOL    HW131363  11.168   9.372   9.718
76510SOL    HW231364  11.118   9.466   9.610
76511SOL     OW31365   4.258   7.741   8.922
76511SOL    HW131366   4.347   7.772   8.941
76511SOL    HW231367   4.270   7.650   8.894
76512SOL     OW31368   2.933   1.011   3.351
76512SOL    HW131369   2.891   0.932   3.387
76512SOL    HW231370   2.902   1.015   3.261
76513SOL     OW31371  10.787   1.848  10.871
76513SOL    HW131372  10.717   1.805  10.821
76513SOL    HW231373  10.784   1.807  10.957
76514SOL     OW31374  11.533  13.894   1.345
76514SOL    HW131375  11.460  13.920   1.402
76514SOL    HW231376  11.491  13.851   1.271
76515SOL     OW31377   6.255  11.706   8.135
76515SOL    HW131378   6.253  11.656   8.053
76515SOL    HW231379   6.181  11.767   8.128
76516SOL     OW31380   8.340   9.156   2.243
76516SOL    HW131381   8.429   9.158   2.208
76516SOL    HW231382   8.347   9.195   2.330
76517SOL     OW31383   5.138  12.316  14.840
76517SOL    HW131384   5.219  12.273  14.864
76517SOL    HW231385   5.077  12.245  14.820
76518SOL     OW31386   6.549   7.915  12.707
76518SOL    HW131387   6.589   7.839  12.749
76518SOL    HW231388   6.623   7.974  12.689
76519SOL     OW31389   0.480  12.012   0.994
76519SOL    HW131390   0.467  11.951   1.067
76519SOL    HW231391   0.493  11.956   0.918
76520SOL     OW31392  10.560   0.239   3.957
76520SOL    HW131393  10.574   0.144   3.956
76520SOL    HW231394  10.525   0.259   3.870
76521SOL     OW31395  11.894  12.568   1.283
76521SOL    HW131396  11.820  12.523   1.322
76521SOL    HW231397  11.969  12.511   1.300
76522SOL     OW31398   4.044   7.401   2.348
76522SOL    HW131399   4.084   7.323   2.310
76522SOL    HW231400   4.075   7.403   2.439
76523SOL     OW31401   0.470   9.825   4.287
76523SOL    HW131402   0.389   9.813   4.335
76523SOL    HW231403   0.539   9.804   4.350
76524SOL     OW31404  11.601  13.746  12.962
76524SOL    HW131405  11.575  13.804  12.891
76524SOL    HW231406  11.669  13.690  12.925
76525SOL     OW31407  14.043  14.660   9.130
76525SOL    HW131408  14.123  14.652   9.182
76525SOL    HW231409  14.074  14.682   9.042
76526SOL     OW31410   3.864  13.792   0.221
76526SOL    HW131411   3.796  13.810   0.286
76526SOL    HW231412   3.898  13.878   0.198
76527SOL     OW31413   7.188   2.006  13.579
76527SOL    HW131414   7.160   2.094  13.552
76527SOL    HW231415   7.129   1.983  13.651
76528SOL     OW31416   1.551  10.965   9.752
76528SOL    HW131417   1.635  10.928   9.726
76528SOL    HW231418   1.486  10.898   9.729
76529SOL     OW31419   7.557   9.639   8.185
76529SOL    HW131420   7.632   9.589   8.151
76529SOL    HW231421   7.581   9.730   8.172
76530SOL     OW31422   6.949   8.282   2.156
76530SOL    HW131423   6.976   8.306   2.067
76530SOL    HW231424   6.864   8.240   2.144
76531SOL     OW31425   9.487   0.680   5.659
76531SOL    HW131426   9.427   0.609   5.637
76531SOL    HW231427   9.477   0.692   5.753
76532SOL     OW31428   2.285   7.965   9.513
76532SOL    HW131429   2.282   7.883   9.463
76532SOL    HW231430   2.339   8.024   9.460
76533SOL     OW31431   0.663   9.531   1.641
76533SOL    HW131432   0.672   9.546   1.547
76533SOL    HW231433   0.597   9.594   1.669
76534SOL     OW31434   3.326   0.934   1.113
76534SOL    HW131435   3.242   0.971   1.137
76534SOL    HW231436   3.311   0.839   1.111
76535SOL     OW31437   8.150  13.882   5.435
76535SOL    HW131438   8.064  13.840   5.435
76535SOL    HW231439   8.149  13.936   5.514
76536SOL     OW31440  12.286   3.836   1.716
76536SOL    HW131441  12.251   3.925   1.726
76536SOL    HW231442  12.241   3.801   1.639
76537SOL     OW31443   2.213   0.251   7.048
76537SOL    HW131444   2.149   0.181   7.036
76537SOL    HW231445   2.281   0.212   7.103
76538SOL     OW31446   3.783   3.807   2.419
76538SOL    HW131447   3.717   3.825   2.485
76538SOL    HW231448   3.858   3.860   2.444
76539SOL     OW31449   5.363   8.911   4.798
76539SOL    HW131450   5.321   8.826   4.798
76539SOL    HW231451   5.387   8.926   4.890
76540SOL     OW31452   8.941   2.299   6.771
76540SOL    HW131453   9.025   2.301   6.817
76540SOL    HW231454   8.889   2.235   6.820
76541SOL     OW31455   6.121   8.988  10.736
76541SOL    HW131456   6.091   9.073  10.702
76541SOL    HW231457   6.216   8.999  10.746
76542SOL     OW31458  14.445   8.106  10.941
76542SOL    HW131459  14.460   8.015  10.968
76542SOL    HW231460  14.423   8.152  11.022
76543SOL     OW31461   8.925   6.497  13.794
76543SOL    HW131462   8.953   6.450  13.873
76543SOL    HW231463   9.005   6.510  13.744
76544SOL     OW31464   7.605   3.813  13.843
76544SOL    HW131465   7.671   3.878  13.818
76544SOL    HW231466   7.525   3.864  13.858
76545SOL     OW31467   3.502   7.434   9.138
76545SOL    HW131468   3.412   7.422   9.108
76545SOL    HW231469   3.555   7.437   9.058
76546SOL     OW31470  10.038   3.235   0.342
76546SOL    HW131471  10.060   3.309   0.285
76546SOL    HW231472  10.091   3.163   0.309
76547SOL     OW31473   4.275  11.106   5.871
76547SOL    HW131474   4.228  11.041   5.923
76547SOL    HW231475   4.314  11.056   5.799
76548SOL     OW31476   1.516  12.212  12.040
76548SOL    HW131477   1.556  12.171  12.116
76548SOL    HW231478   1.473  12.291  12.075
76549SOL     OW31479  14.141   0.680   0.948
76549SOL    HW131480  14.073   0.717   1.004
76549SOL    HW231481  14.140   0.587   0.968
76550SOL     OW31482  11.184  13.750   5.108
76550SOL    HW131483  11.184  13.655   5.112
76550SOL    HW231484  11.098  13.773   5.074
76551SOL     OW31485  10.751  13.882  10.953
76551SOL    HW131486  10.725  13.870  10.862
76551SOL    HW231487  10.811  13.957  10.951
76552SOL     OW31488  12.043   0.185   1.380
76552SOL    HW131489  12.089   0.148   1.305
76552SOL    HW231490  11.994   0.259   1.344
76553SOL     OW31491   0.359   9.308   3.874
76553SOL    HW131492   0.403   9.391   3.893
76553SOL    HW231493   0.350   9.266   3.959
76554SOL     OW31494  10.590  14.520   3.634
76554SOL    HW131495  10.624  14.555   3.552
76554SOL    HW231496  10.532  14.588   3.667
76555SOL     OW31497   7.950   1.966   1.878
76555SOL    HW131498   7.991   2.033   1.933
76555SOL    HW231499   7.930   2.011   1.796
76556SOL     OW31500   0.315   7.980   1.371
76556SOL    HW131501   0.252   8.051   1.356
76556SOL    HW231502   0.360   8.005   1.452
76557SOL     OW31503   3.975   5.351  14.608
76557SOL    HW131504   3.952   5.385  14.522
76557SOL    HW231505   3.971   5.427  14.666
76558SOL     OW31506  11.886  14.569   9.906
76558SOL    HW131507  11.844  14.517   9.837
76558SOL    HW231508  11.940  14.632   9.860
76559SOL     OW31509   0.699   0.214  13.336
76559SOL    HW131510   0.725   0.123  13.350
76559SOL    HW231511   0.743   0.239  13.255
76560SOL     OW31512   3.998   5.308  13.424
76560SOL    HW131513   4.086   5.343  13.432
76560SOL    HW231514   3.951   5.342  13.500
76561SOL     OW31515   9.183  14.085   6.231
76561SOL    HW131516   9.210  14.010   6.178
76561SOL    HW231517   9.107  14.120   6.185
76562SOL     OW31518   1.565   8.421   8.986
76562SOL    HW131519   1.480   8.446   9.020
76562SOL    HW231520   1.562   8.445   8.893
76563SOL     OW31521   9.566   8.129  13.645
76563SOL    HW131522   9.488   8.109  13.697
76563SOL    HW231523   9.586   8.220  13.664
76564SOL     OW31524  10.285  12.483   8.837
76564SOL    HW131525  10.307  12.395   8.806
76564SOL    HW231526  10.197  12.474   8.873
76565SOL     OW31527   9.106  10.267   4.707
76565SOL    HW131528   9.043  10.322   4.752
76565SOL    HW231529   9.126  10.197   4.769
76566SOL     OW31530   9.730   3.569   3.792
76566SOL    HW131531   9.684   3.537   3.715
76566SOL    HW231532   9.665   3.620   3.839
76567SOL     OW31533  11.704   0.910   1.342
76567SOL    HW131534  11.718   0.971   1.414
76567SOL    HW231535  11.782   0.918   1.288
76568SOL     OW31536   1.215   8.053   2.068
76568SOL    HW131537   1.252   7.969   2.095
76568SOL    HW231538   1.159   8.032   1.993
76569SOL     OW31539  13.287   0.737   9.951
76569SOL    HW131540  13.298   0.758  10.043
76569SOL    HW231541  13.368   0.693   9.927
76570SOL     OW31542   7.842   1.413  11.740
76570SOL    HW131543   7.895   1.493  11.741
76570SOL    HW231544   7.847   1.382  11.649
76571SOL     OW31545   1.293  11.934  10.160
76571SOL    HW131546   1.380  11.915  10.194
76571SOL    HW231547   1.296  12.026  10.134
76572SOL     OW31548   4.238   3.708  13.437
76572SOL    HW131549   4.296   3.783  13.426
76572SOL    HW231550   4.209   3.687  13.348
76573SOL     OW31551  13.861   2.659   4.251
76573SOL    HW131552  13.920   2.670   4.325
76573SOL    HW231553  13.774   2.650   4.291
76574SOL     OW31554   8.035   1.077  14.602
76574SOL    HW131555   8.088   0.999  14.616
76574SOL    HW231556   8.082   1.147  14.646
76575SOL     OW31557   8.218  14.373   4.933
76575SOL    HW131558   8.245  14.351   4.843
76575SOL    HW231559   8.162  14.300   4.960
76576SOL     OW31560  11.517  14.862  11.473
76576SOL    HW131561  11.430  14.848  11.511
76576SOL    HW231562  11.549  14.775  11.451
76577SOL     OW31563   3.087   6.705  12.086
76577SOL    HW131564   3.031   6.630  12.067
76577SOL    HW231565   3.048   6.745  12.164
76578SOL     OW31566   1.857   7.054   6.981
76578SOL    HW131567   1.939   7.033   6.937
76578SOL    HW231568   1.881   7.120   7.046
76579SOL     OW31569  12.131  14.170  10.033
76579SOL    HW131570  12.217  14.199  10.002
76579SOL    HW231571  12.098  14.114   9.963
76580SOL     OW31572  13.925   6.663   3.553
76580SOL    HW131573  13.852   6.725   3.559
76580SOL    HW231574  13.969   6.669   3.638
76581SOL     OW31575  14.728  12.509   2.053
76581SOL    HW131576  14.657  12.469   2.105
76581SOL    HW231577  14.713  12.603   2.061
76582SOL     OW31578   2.088   1.575   0.300
76582SOL    HW131579   2.155   1.506   0.294
76582SOL    HW231580   2.080   1.593   0.393
76583SOL     OW31581   4.546  12.797   8.923
76583SOL    HW131582   4.460  12.809   8.882
76583SOL    HW231583   4.529  12.741   8.999
76584SOL     OW31584   6.294   8.682  11.984
76584SOL    HW131585   6.313   8.730  11.903
76584SOL    HW231586   6.214   8.632  11.964
76585SOL     OW31587   6.439  13.072   8.053
76585SOL    HW131588   6.446  13.092   7.959
76585SOL    HW231589   6.457  13.155   8.096
76586SOL     OW31590   9.576  12.848   5.555
76586SOL    HW131591   9.499  12.794   5.574
76586SOL    HW231592   9.602  12.823   5.467
76587SOL     OW31593   6.176   1.916  12.301
76587SOL    HW131594   6.159   1.975  12.375
76587SOL    HW231595   6.191   1.975  12.227
76588SOL     OW31596   0.171   8.571  12.291
76588SOL    HW131597   0.112   8.647  12.299
76588SOL    HW231598   0.258   8.609  12.278
76589SOL     OW31599  13.946   3.486   4.580
76589SOL    HW131600  13.926   3.565   4.529
76589SOL    HW231601  13.977   3.519   4.664
76590SOL     OW31602   4.057   1.494   5.017
76590SOL    HW131603   4.002   1.501   4.939
76590SOL    HW231604   4.145   1.479   4.983
76591SOL     OW31605  11.474  14.213  12.904
76591SOL    HW131606  11.486  14.135  12.958
76591SOL    HW231607  11.419  14.183  12.831
76592SOL     OW31608   8.363   5.649   8.698
76592SOL    HW131609   8.444   5.694   8.721
76592SOL    HW231610   8.381   5.611   8.613
76593SOL     OW31611   0.306   5.566   1.781
76593SOL    HW131612   0.235   5.588   1.842
76593SOL    HW231613   0.339   5.650   1.751
76594SOL     OW31614   9.313   8.715   6.195
76594SOL    HW131615   9.349   8.670   6.119
76594SOL    HW231616   9.344   8.664   6.270
76595SOL     OW31617  13.529   7.233   0.003
76595SOL    HW131618  13.537   7.142   0.032
76595SOL    HW231619  13.435   7.246  14.864
76596SOL     OW31620   3.045  12.380   4.833
76596SOL    HW131621   2.984  12.453   4.831
76596SOL    HW231622   3.129  12.419   4.858
76597SOL     OW31623   7.315  11.119  11.286
76597SOL    HW131624   7.233  11.077  11.261
76597SOL    HW231625   7.360  11.054  11.339
76598SOL     OW31626  13.692   3.602   2.555
76598SOL    HW131627  13.604   3.606   2.590
76598SOL    HW231628  13.741   3.548   2.617
76599SOL     OW31629  10.501   4.931   7.824
76599SOL    HW131630  10.530   5.005   7.879
76599SOL    HW231631  10.436   4.886   7.878
76600SOL     OW31632   4.380   6.632   3.989
76600SOL    HW131633   4.355   6.691   4.060
76600SOL    HW231634   4.337   6.549   4.010
76601SOL     OW31635   4.704  10.931   1.206
76601SOL    HW131636   4.749  10.859   1.162
76601SOL    HW231637   4.753  11.009   1.180
76602SOL     OW31638  12.170   6.656   9.629
76602SOL    HW131639  12.207   6.572   9.603
76602SOL    HW231640  12.171   6.654   9.725
76603SOL     OW31641  12.752  12.377   7.342
76603SOL    HW131642  12.694  12.302   7.352
76603SOL    HW231643  12.702  12.438   7.287
76604SOL     OW31644   3.244  12.962  12.536
76604SOL    HW131645   3.265  12.986  12.446
76604SOL    HW231646   3.230  12.867  12.533
76605SOL     OW31647   0.944  11.521  11.112
76605SOL    HW131648   0.936  11.447  11.052
76605SOL    HW231649   0.938  11.598  11.057
76606SOL     OW31650  13.776  11.980   7.876
76606SOL    HW131651  13.799  11.950   7.788
76606SOL    HW231652  13.757  11.900   7.924
76607SOL     OW31653   2.893   8.974   2.358
76607SOL    HW131654   2.882   9.012   2.445
76607SOL    HW231655   2.968   9.021   2.321
76608SOL     OW31656   4.230  14.791  11.902
76608SOL    HW131657   4.303  14.740  11.868
76608SOL    HW231658   4.260  14.822  11.987
76609SOL     OW31659   8.408  13.382   6.529
76609SOL    HW131660   8.350  13.406   6.602
76609SOL    HW231661   8.374  13.431   6.455
76610SOL     OW31662   1.008   0.114   2.127
76610SOL    HW131663   0.915   0.107   2.144
76610SOL    HW231664   1.046   0.035   2.165
76611SOL     OW31665   3.435   2.339   9.029
76611SOL    HW131666   3.368   2.400   9.061
76611SOL    HW231667   3.498   2.333   9.101
76612SOL     OW31668  10.492  13.255   5.262
76612SOL    HW131669  10.547  13.247   5.184
76612SOL    HW231670  10.530  13.329   5.311
76613SOL     OW31671  14.728   6.812   7.679
76613SOL    HW131672  14.716   6.772   7.765
76613SOL    HW231673  14.659   6.879   7.675
76614SOL     OW31674  13.260   3.592   4.687
76614SOL    HW131675  13.288   3.500   4.680
76614SOL    HW231676  13.341   3.641   4.694
76615SOL     OW31677  11.802  14.278   3.837
76615SOL    HW131678  11.879  14.290   3.892
76615SOL    HW231679  11.832  14.298   3.748
76616SOL     OW31680   9.245   1.553   6.344
76616SOL    HW131681   9.283   1.541   6.257
76616SOL    HW231682   9.224   1.646   6.349
76617SOL     OW31683   6.817   9.279   7.591
76617SOL    HW131684   6.868   9.313   7.664
76617SOL    HW231685   6.770   9.204   7.627
76618SOL     OW31686   3.425   1.691   9.832
76618SOL    HW131687   3.401   1.652   9.916
76618SOL    HW231688   3.349   1.674   9.776
76619SOL     OW31689   3.247   9.133  12.892
76619SOL    HW131690   3.260   9.159  12.800
76619SOL    HW231691   3.276   9.208  12.943
76620SOL     OW31692  13.052   4.426   7.528
76620SOL    HW131693  13.011   4.428   7.614
76620SOL    HW231694  13.095   4.341   7.524
76621SOL     OW31695   1.622   7.125   8.071
76621SOL    HW131696   1.607   7.124   8.166
76621SOL    HW231697   1.567   7.055   8.037
76622SOL     OW31698   2.212   0.210  13.654
76622SOL    HW131699   2.226   0.119  13.626
76622SOL    HW231700   2.289   0.256  13.622
76623SOL     OW31701   8.910   5.548   9.068
76623SOL    HW131702   8.906   5.637   9.035
76623SOL    HW231703   8.948   5.497   8.996
76624SOL     OW31704   9.305   8.499  14.853
76624SOL    HW131705   9.271   8.491   0.069
76624SOL    HW231706   9.317   8.593  14.839
76625SOL     OW31707   2.115   1.925  10.086
76625SOL    HW131708   2.090   1.995  10.146
76625SOL    HW231709   2.075   1.846  10.123
76626SOL     OW31710  11.460  14.130  10.186
76626SOL    HW131711  11.379  14.159  10.145
76626SOL    HW231712  11.475  14.042  10.151
76627SOL     OW31713   1.694  14.334  10.160
76627SOL    HW131714   1.655  14.417  10.134
76627SOL    HW231715   1.786  14.355  10.178
76628SOL     OW31716   8.964   5.318   4.955
76628SOL    HW131717   9.052   5.352   4.937
76628SOL    HW231718   8.978   5.226   4.977
76629SOL     OW31719   7.650   8.492   9.172
76629SOL    HW131720   7.654   8.408   9.127
76629SOL    HW231721   7.712   8.547   9.124
76630SOL     OW31722   6.568   8.952   1.171
76630SOL    HW131723   6.630   8.890   1.132
76630SOL    HW231724   6.535   8.907   1.248
76631SOL     OW31725   2.110  14.749  14.415
76631SOL    HW131726   2.067  14.713  14.338
76631SOL    HW231727   2.121  14.842  14.395
76632SOL     OW31728   2.645   4.532   3.864
76632SOL    HW131729   2.681   4.605   3.914
76632SOL    HW231730   2.647   4.458   3.924
76633SOL     OW31731  11.149  11.217   9.286
76633SOL    HW131732  11.190  11.260   9.362
76633SOL    HW231733  11.071  11.175   9.321
76634SOL     OW31734   7.180   4.488   7.849
76634SOL    HW131735   7.162   4.542   7.925
76634SOL    HW231736   7.099   4.489   7.799
76635SOL     OW31737   8.802  14.445  10.898
76635SOL    HW131738   8.721  14.395  10.886
76635SOL    HW231739   8.776  14.522  10.949
76636SOL     OW31740   6.235   3.316  12.145
76636SOL    HW131741   6.272   3.401  12.121
76636SOL    HW231742   6.308   3.255  12.139
76637SOL     OW31743  12.482   6.098   1.110
76637SOL    HW131744  12.577   6.097   1.122
76637SOL    HW231745  12.464   6.183   1.070
76638SOL     OW31746  10.370   9.469   4.395
76638SOL    HW131747  10.330   9.398   4.346
76638SOL    HW231748  10.429   9.424   4.457
76639SOL     OW31749  14.597   4.615   8.358
76639SOL    HW131750  14.558   4.700   8.382
76639SOL    HW231751  14.525   4.567   8.318
76640SOL     OW31752   3.102  12.132   7.195
76640SOL    HW131753   3.089  12.109   7.103
76640SOL    HW231754   3.135  12.222   7.194
76641SOL     OW31755   7.216   8.221   3.959
76641SOL    HW131756   7.222   8.151   3.894
76641SOL    HW231757   7.293   8.209   4.015
76642SOL     OW31758   5.280  11.353   8.504
76642SOL    HW131759   5.305  11.326   8.592
76642SOL    HW231760   5.184  11.348   8.504
76643SOL     OW31761  10.116   6.296   0.935
76643SOL    HW131762  10.211   6.298   0.929
76643SOL    HW231763  10.090   6.387   0.946
76644SOL     OW31764   5.548   1.593  14.352
76644SOL    HW131765   5.476   1.558  14.405
76644SOL    HW231766   5.626   1.573  14.403
76645SOL     OW31767   0.742  13.563   3.369
76645SOL    HW131768   0.760  13.485   3.422
76645SOL    HW231769   0.744  13.635   3.432
76646SOL     OW31770   2.164   9.692   9.125
76646SOL    HW131771   2.081   9.685   9.077
76646SOL    HW231772   2.155   9.628   9.196
76647SOL     OW31773   7.533  10.963  13.127
76647SOL    HW131774   7.592  11.037  13.140
76647SOL    HW231775   7.446  11.002  13.127
76648SOL     OW31776   2.833   6.052  10.382
76648SOL    HW131777   2.786   5.991  10.439
76648SOL    HW231778   2.843   6.131  10.434
76649SOL     OW31779  14.040   6.005   5.730
76649SOL    HW131780  13.950   6.025   5.755
76649SOL    HW231781  14.074   5.953   5.802
76650SOL     OW31782   2.031   1.035  14.249
76650SOL    HW131783   1.973   0.972  14.293
76650SOL    HW231784   2.022   1.115  14.300
76651SOL     OW31785   9.831  14.260  12.541
76651SOL    HW131786   9.840  14.354  12.557
76651SOL    HW231787   9.904  14.220  12.588
76652SOL     OW31788  12.895   4.106   0.590
76652SOL    HW131789  12.979   4.063   0.602
76652SOL    HW231790  12.882   4.155   0.671
76653SOL     OW31791  10.926  12.386   6.842
76653SOL    HW131792  10.944  12.465   6.893
76653SOL    HW231793  10.964  12.403   6.756
76654SOL     OW31794   8.557   6.618   3.462
76654SOL    HW131795   8.492   6.654   3.402
76654SOL    HW231796   8.548   6.671   3.542
76655SOL     OW31797   5.980   3.531   6.290
76655SOL    HW131798   6.039   3.565   6.357
76655SOL    HW231799   5.954   3.445   6.322
76656SOL     OW31800  11.896   7.390   2.775
76656SOL    HW131801  11.852   7.414   2.693
76656SOL    HW231802  11.958   7.322   2.749
76657SOL     OW31803   0.007   9.878   0.944
76657SOL    HW131804  14.862   9.949   1.007
76657SOL    HW231805   0.102   9.868   0.946
76658SOL     OW31806   6.925   5.928   0.594
76658SOL    HW131807   6.898   5.836   0.588
76658SOL    HW231808   6.858   5.969   0.649
76659SOL     OW31809   1.929  12.352   6.267
76659SOL    HW131810   1.934  12.325   6.359
76659SOL    HW231811   1.951  12.445   6.268
76660SOL     OW31812   7.503   0.941   7.726
76660SOL    HW131813   7.549   0.896   7.655
76660SOL    HW231814   7.523   1.034   7.713
76661SOL     OW31815   5.886   1.342   8.963
76661SOL    HW131816   5.854   1.414   9.017
76661SOL    HW231817   5.870   1.263   9.014
76662SOL     OW31818  11.511  14.869   0.030
76662SOL    HW131819  11.547  14.870  14.814
76662SOL    HW231820  11.579  14.829   0.083
76663SOL     OW31821   9.217  11.840   3.692
76663SOL    HW131822   9.202  11.778   3.764
76663SOL    HW231823   9.166  11.805   3.619
76664SOL     OW31824   6.675   8.343  10.874
76664SOL    HW131825   6.612   8.300  10.931
76664SOL    HW231826   6.662   8.437  10.891
76665SOL     OW31827   9.270   3.135   2.729
76665SOL    HW131828   9.281   3.158   2.637
76665SOL    HW231829   9.317   3.052   2.738
76666SOL     OW31830  14.377   6.905   2.032
76666SOL    HW131831  14.448   6.950   1.985
76666SOL    HW231832  14.299   6.920   1.977
76667SOL     OW31833   1.790   8.618   9.822
76667SOL    HW131834   1.857   8.669   9.867
76667SOL    HW231835   1.779   8.539   9.875
76668SOL     OW31836   6.234  13.035   5.577
76668SOL    HW131837   6.251  13.044   5.483
76668SOL    HW231838   6.195  12.949   5.586
76669SOL     OW31839   7.444   5.172  12.985
76669SOL    HW131840   7.425   5.197  12.895
76669SOL    HW231841   7.539   5.181  12.992
76670SOL     OW31842   1.380   0.677   2.145
76670SOL    HW131843   1.361   0.615   2.216
76670SOL    HW231844   1.425   0.750   2.188
76671SOL     OW31845   2.472  11.755  10.245
76671SOL    HW131846   2.454  11.661  10.234
76671SOL    HW231847   2.539  11.775  10.180
76672SOL     OW31848  10.085  14.830   2.904
76672SOL    HW131849  10.103   0.011   2.981
76672SOL    HW231850  10.163  14.840   2.850
76673SOL     OW31851  14.275   8.882  11.443
76673SOL    HW131852  14.188   8.914  11.423
76673SOL    HW231853  14.332   8.958  11.431
76674SOL     OW31854   7.738   2.420  11.241
76674SOL    HW131855   7.643   2.417  11.243
76674SOL    HW231856   7.765   2.370  11.318
76675SOL     OW31857   6.812   6.961   9.622
76675SOL    HW131858   6.719   6.950   9.640
76675SOL    HW231859   6.840   6.876   9.587
76676SOL     OW31860   7.498   4.288  12.722
76676SOL    HW131861   7.564   4.357  12.722
76676SOL    HW231862   7.506   4.246  12.807
76677SOL     OW31863   6.881  12.199  13.056
76677SOL    HW131864   6.820  12.196  12.982
76677SOL    HW231865   6.827  12.178  13.133
76678SOL     OW31866  14.239   4.280   2.740
76678SOL    HW131867  14.288   4.315   2.815
76678SOL    HW231868  14.262   4.187   2.739
76679SOL     OW31869   4.688  12.337  11.668
76679SOL    HW131870   4.701  12.249  11.701
76679SOL    HW231871   4.594  12.345  11.655
76680SOL     OW31872   4.073   5.092   1.742
76680SOL    HW131873   4.158   5.049   1.750
76680SOL    HW231874   4.011   5.029   1.781
76681SOL     OW31875   6.377   5.230  12.172
76681SOL    HW131876   6.307   5.253  12.234
76681SOL    HW231877   6.395   5.138  12.190
76682SOL     OW31878   7.398  14.035   2.205
76682SOL    HW131879   7.344  14.027   2.284
76682SOL    HW231880   7.388  13.951   2.160
76683SOL     OW31881  10.468   2.478   9.955
76683SOL    HW131882  10.425   2.395   9.935
76683SOL    HW231883  10.556   2.454   9.984
76684SOL     OW31884  12.547   0.745   9.576
76684SOL    HW131885  12.562   0.833   9.612
76684SOL    HW231886  12.476   0.757   9.513
76685SOL     OW31887   5.761  14.008  14.011
76685SOL    HW131888   5.666  14.008  14.016
76685SOL    HW231889   5.790  14.064  14.083
76686SOL     OW31890   5.529   6.505   0.218
76686SOL    HW131891   5.442   6.521   0.181
76686SOL    HW231892   5.560   6.426   0.174
76687SOL     OW31893  10.946  13.507  10.406
76687SOL    HW131894  10.937  13.490  10.500
76687SOL    HW231895  11.004  13.583  10.401
76688SOL     OW31896   1.638   0.637   4.544
76688SOL    HW131897   1.661   0.585   4.467
76688SOL    HW231898   1.627   0.574   4.614
76689SOL     OW31899   9.728  12.229   7.375
76689SOL    HW131900   9.649  12.189   7.413
76689SOL    HW231901   9.736  12.313   7.420
76690SOL     OW31902   4.300  11.494  14.444
76690SOL    HW131903   4.388  11.476  14.410
76690SOL    HW231904   4.313  11.563  14.509
76691SOL     OW31905   1.280  14.542  10.884
76691SOL    HW131906   1.214  14.562  10.949
76691SOL    HW231907   1.236  14.483  10.822
76692SOL     OW31908   9.899  11.236   3.162
76692SOL    HW131909   9.850  11.184   3.098
76692SOL    HW231910   9.977  11.185   3.180
76693SOL     OW31911   4.069   2.366  10.078
76693SOL    HW131912   4.086   2.390   9.987
76693SOL    HW231913   4.139   2.408  10.128
76694SOL     OW31914   0.584  11.501   0.766
76694SOL    HW131915   0.676  11.485   0.745
76694SOL    HW231916   0.568  11.592   0.739
76695SOL     OW31917   3.369  11.145   4.209
76695SOL    HW131918   3.298  11.164   4.148
76695SOL    HW231919   3.401  11.059   4.182
76696SOL     OW31920   1.072  14.089  11.270
76696SOL    HW131921   1.039  14.179  11.262
76696SOL    HW231922   1.055  14.065  11.361
76697SOL     OW31923   0.314   0.065   0.123
76697SOL    HW131924   0.259   0.086   0.198
76697SOL    HW231925   0.288  14.849   0.098
76698SOL     OW31926   5.714  13.090   7.180
76698SOL    HW131927   5.727  13.028   7.252
76698SOL    HW231928   5.776  13.062   7.113
76699SOL     OW31929   5.662   0.213   5.915
76699SOL    HW131930   5.649   0.288   5.856
76699SOL    HW231931   5.672   0.138   5.856
76700SOL     OW31932   5.282  14.465  14.575
76700SOL    HW131933   5.249  14.470  14.665
76700SOL    HW231934   5.351  14.399  14.578
76701SOL     OW31935  11.180   2.246   5.854
76701SOL    HW131936  11.089   2.258   5.881
76701SOL    HW231937  11.217   2.334   5.854
76702SOL     OW31938   0.426  10.835  11.609
76702SOL    HW131939   0.397  10.848  11.519
76702SOL    HW231940   0.499  10.897  11.620
76703SOL     OW31941   0.361   9.011   7.118
76703SOL    HW131942   0.456   9.018   7.126
76703SOL    HW231943   0.336   9.086   7.064
76704SOL     OW31944   3.706   5.921   0.662
76704SOL    HW131945   3.648   5.884   0.595
76704SOL    HW231946   3.655   5.916   0.743
76705SOL     OW31947  11.846  12.292  14.261
76705SOL    HW131948  11.845  12.203  14.225
76705SOL    HW231949  11.939  12.314  14.269
76706SOL     OW31950   2.758   1.517   7.563
76706SOL    HW131951   2.737   1.483   7.476
76706SOL    HW231952   2.815   1.592   7.547
76707SOL     OW31953  12.246   3.713   7.812
76707SOL    HW131954  12.164   3.705   7.763
76707SOL    HW231955  12.218   3.727   7.903
76708SOL     OW31956   5.219  12.563   0.761
76708SOL    HW131957   5.233  12.643   0.712
76708SOL    HW231958   5.212  12.591   0.852
76709SOL     OW31959  12.818  14.663   0.656
76709SOL    HW131960  12.750  14.599   0.676
76709SOL    HW231961  12.787  14.744   0.698
76710SOL     OW31962   3.290   4.589   5.813
76710SOL    HW131963   3.217   4.643   5.783
76710SOL    HW231964   3.368   4.638   5.787
76711SOL     OW31965   0.083  13.393   7.774
76711SOL    HW131966   0.102  13.409   7.866
76711SOL    HW231967   0.083  13.297   7.765
76712SOL     OW31968   4.893   6.990  12.327
76712SOL    HW131969   4.968   6.931  12.334
76712SOL    HW231970   4.923   7.062  12.271
76713SOL     OW31971   6.457   0.499   9.855
76713SOL    HW131972   6.505   0.434   9.906
76713SOL    HW231973   6.365   0.483   9.877
76714SOL     OW31974   0.027  13.256   2.238
76714SOL    HW131975   0.049  13.289   2.151
76714SOL    HW231976   0.081  13.307   2.298
76715SOL     OW31977   4.360  12.736  12.052
76715SOL    HW131978   4.329  12.694  12.132
76715SOL    HW231979   4.292  12.800  12.031
76716SOL     OW31980   5.161   4.638   7.033
76716SOL    HW131981   5.234   4.586   7.064
76716SOL    HW231982   5.200   4.703   6.975
76717SOL     OW31983  14.068  12.816  13.010
76717SOL    HW131984  13.996  12.835  12.950
76717SOL    HW231985  14.084  12.898  13.056
76718SOL     OW31986   8.246   1.608   8.723
76718SOL    HW131987   8.251   1.695   8.762
76718SOL    HW231988   8.169   1.568   8.763
76719SOL     OW31989   2.355   1.796  11.220
76719SOL    HW131990   2.318   1.883  11.237
76719SOL    HW231991   2.296   1.758  11.155
76720SOL     OW31992   1.191   7.236   9.317
76720SOL    HW131993   1.130   7.166   9.292
76720SOL    HW231994   1.219   7.274   9.234
76721SOL     OW31995   0.495   0.753   3.082
76721SOL    HW131996   0.447   0.781   3.004
76721SOL    HW231997   0.546   0.830   3.107
76722SOL     OW31998   3.303  13.045  12.250
76722SOL    HW131999   3.222  13.003  12.220
76722SOL    HW232000   3.311  13.122  12.194
76723SOL     OW32001  12.637   7.069  10.091
76723SOL    HW132002  12.602   6.980  10.094
76723SOL    HW232003  12.683   7.074  10.008
76724SOL     OW32004   1.345   1.023  11.477
76724SOL    HW132005   1.431   0.994  11.448
76724SOL    HW232006   1.361   1.063  11.562
76725SOL     OW32007   1.546  10.848  13.046
76725SOL    HW132008   1.525  10.889  13.130
76725SOL    HW232009   1.480  10.780  13.035
76726SOL     OW32010   8.954   3.979   6.364
76726SOL    HW132011   9.029   3.929   6.395
76726SOL    HW232012   8.885   3.913   6.351
76727SOL     OW32013   6.474   4.859   1.134
76727SOL    HW132014   6.393   4.909   1.122
76727SOL    HW232015   6.520   4.868   1.051
76728SOL     OW32016  13.474   4.457   0.899
76728SOL    HW132017  13.507   4.370   0.876
76728SOL    HW232018  13.438   4.445   0.987
76729SOL     OW32019   6.479   3.908   4.259
76729SOL    HW132020   6.469   3.976   4.326
76729SOL    HW232021   6.389   3.890   4.232
76730SOL     OW32022   8.369   1.436  14.728
76730SOL    HW132023   8.323   1.520  14.738
76730SOL    HW232024   8.436   1.436  14.796
76731SOL     OW32025   8.063   6.072  12.557
76731SOL    HW132026   8.041   6.087  12.466
76731SOL    HW232027   8.058   5.977  12.568
76732SOL     OW32028   6.572   9.485   1.590
76732SOL    HW132029   6.597   9.545   1.520
76732SOL    HW232030   6.642   9.493   1.655
76733SOL     OW32031   3.136   4.318   5.713
76733SOL    HW132032   3.177   4.279   5.635
76733SOL    HW232033   3.121   4.409   5.689
76734SOL     OW32034  14.871   4.060  11.788
76734SOL    HW132035  14.853   3.982  11.737
76734SOL    HW232036   0.084   4.044  11.828
76735SOL     OW32037  12.087   9.239   0.113
76735SOL    HW132038  12.008   9.234   0.166
76735SOL    HW232039  12.086   9.159   0.060
76736SOL     OW32040   2.020   6.045  14.332
76736SOL    HW132041   1.962   6.113  14.297
76736SOL    HW232042   1.962   5.989  14.383
76737SOL     OW32043   7.271   0.944   4.369
76737SOL    HW132044   7.197   0.884   4.367
76737SOL    HW232045   7.242   1.018   4.421
76738SOL     OW32046  11.043   1.414   5.158
76738SOL    HW132047  11.067   1.467   5.082
76738SOL    HW232048  11.055   1.473   5.232
76739SOL     OW32049  14.378   6.201   5.924
76739SOL    HW132050  14.316   6.227   5.856
76739SOL    HW232051  14.435   6.278   5.934
76740SOL     OW32052   1.227  13.559   4.106
76740SOL    HW132053   1.237  13.576   4.013
76740SOL    HW232054   1.309  13.517   4.132
76741SOL     OW32055  10.994  14.463   5.563
76741SOL    HW132056  10.912  14.442   5.519
76741SOL    HW232057  11.057  14.401   5.527
76742SOL     OW32058   2.008  14.315   8.985
76742SOL    HW132059   1.989  14.369   9.062
76742SOL    HW232060   1.927  14.318   8.934
76743SOL     OW32061  10.679   3.375  11.707
76743SOL    HW132062  10.634   3.308  11.759
76743SOL    HW232063  10.632   3.376  11.624
76744SOL     OW32064   6.010   5.923   0.709
76744SOL    HW132065   5.939   5.974   0.748
76744SOL    HW232066   5.996   5.834   0.742
76745SOL     OW32067   4.193  12.629   3.017
76745SOL    HW132068   4.222  12.640   2.927
76745SOL    HW232069   4.110  12.583   3.010
76746SOL     OW32070  12.255  13.625  13.922
76746SOL    HW132071  12.169  13.612  13.882
76746SOL    HW232072  12.252  13.573  14.002
76747SOL     OW32073   2.457   1.704   8.057
76747SOL    HW132074   2.443   1.645   8.132
76747SOL    HW232075   2.488   1.647   7.987
76748SOL     OW32076  14.258  11.991  11.947
76748SOL    HW132077  14.175  11.965  11.988
76748SOL    HW232078  14.320  11.992  12.020
76749SOL     OW32079   8.776   9.762   3.788
76749SOL    HW132080   8.738   9.722   3.710
76749SOL    HW232081   8.815   9.844   3.757
76750SOL     OW32082  14.522   8.465  13.541
76750SOL    HW132083  14.503   8.388  13.594
76750SOL    HW232084  14.468   8.454  13.463
76751SOL     OW32085   7.918  10.838   9.117
76751SOL    HW132086   7.975  10.893   9.171
76751SOL    HW232087   7.855  10.801   9.180
76752SOL     OW32088   8.318   9.565   0.239
76752SOL    HW132089   8.355   9.623   0.306
76752SOL    HW232090   8.225   9.557   0.263
76753SOL     OW32091   3.907   3.513   5.120
76753SOL    HW132092   3.944   3.580   5.064
76753SOL    HW232093   3.885   3.559   5.201
76754SOL     OW32094   8.280  12.057   9.556
76754SOL    HW132095   8.347  12.056   9.624
76754SOL    HW232096   8.287  11.971   9.514
76755SOL     OW32097  11.637   6.763   9.559
76755SOL    HW132098  11.730   6.777   9.574
76755SOL    HW232099  11.612   6.697   9.623
76756SOL     OW32100   7.109   7.520   5.325
76756SOL    HW132101   7.092   7.537   5.418
76756SOL    HW232102   7.160   7.440   5.325
76757SOL     OW32103   2.937  12.998   1.168
76757SOL    HW132104   2.856  13.008   1.218
76757SOL    HW232105   3.006  13.025   1.228
76758SOL     OW32106   6.971   3.957   5.955
76758SOL    HW132107   6.880   3.984   5.950
76758SOL    HW232108   6.986   3.939   6.048
76759SOL     OW32109   7.608   5.939  13.014
76759SOL    HW132110   7.523   5.948  13.056
76759SOL    HW232111   7.650   6.024  13.026
76760SOL     OW32112   2.117   1.125   1.320
76760SOL    HW132113   2.056   1.080   1.261
76760SOL    HW232114   2.189   1.064   1.331
76761SOL     OW32115   1.798  12.498  14.609
76761SOL    HW132116   1.771  12.412  14.641
76761SOL    HW232117   1.747  12.560  14.662
76762SOL     OW32118   6.645   0.524  11.736
76762SOL    HW132119   6.611   0.552  11.822
76762SOL    HW232120   6.664   0.431  11.747
76763SOL     OW32121   3.162   4.683  11.227
76763SOL    HW132122   3.067   4.697  11.228
76763SOL    HW232123   3.175   4.615  11.161
76764SOL     OW32124   5.404  14.686   6.945
76764SOL    HW132125   5.321  14.645   6.968
76764SOL    HW232126   5.441  14.629   6.877
76765SOL     OW32127   5.151   5.482  12.052
76765SOL    HW132128   5.143   5.511  12.143
76765SOL    HW232129   5.091   5.408  12.045
76766SOL     OW32130  12.230   0.435   9.961
76766SOL    HW132131  12.190   0.522   9.966
76766SOL    HW232132  12.320   0.451   9.934
76767SOL     OW32133   0.202  13.249  11.442
76767SOL    HW132134   0.138  13.189  11.481
76767SOL    HW232135   0.149  13.313  11.394
76768SOL     OW32136   3.640  12.412   5.046
76768SOL    HW132137   3.596  12.364   5.117
76768SOL    HW232138   3.684  12.344   4.995
76769SOL     OW32139   7.335   9.046   3.291
76769SOL    HW132140   7.293   9.061   3.206
76769SOL    HW232141   7.267   9.068   3.355
76770SOL     OW32142   7.276   3.491  14.526
76770SOL    HW132143   7.242   3.430  14.591
76770SOL    HW232144   7.250   3.453  14.442
76771SOL     OW32145   4.049  12.848  13.433
76771SOL    HW132146   3.963  12.847  13.391
76771SOL    HW232147   4.107  12.888  13.368
76772SOL     OW32148   5.099   8.852   1.488
76772SOL    HW132149   5.097   8.760   1.461
76772SOL    HW232150   5.008   8.873   1.507
76773SOL     OW32151   3.545  11.113   5.252
76773SOL    HW132152   3.576  11.191   5.298
76773SOL    HW232153   3.574  11.040   5.306
76774SOL     OW32154   7.834   3.430   6.854
76774SOL    HW132155   7.849   3.467   6.941
76774SOL    HW232156   7.908   3.462   6.802
76775SOL     OW32157   6.384   1.144   2.601
76775SOL    HW132158   6.433   1.096   2.534
76775SOL    HW232159   6.452   1.177   2.661
76776SOL     OW32160   7.539  10.271   1.076
76776SOL    HW132161   7.447  10.281   1.055
76776SOL    HW232162   7.544  10.287   1.170
76777SOL     OW32163  10.135   6.060   2.723
76777SOL    HW132164  10.192   6.135   2.741
76777SOL    HW232165  10.186   6.006   2.661
76778SOL     OW32166   8.603  13.445  14.554
76778SOL    HW132167   8.512  13.472  14.565
76778SOL    HW232168   8.647  13.477  14.633
76779SOL     OW32169   1.790  10.734   6.326
76779SOL    HW132170   1.788  10.725   6.231
76779SOL    HW232171   1.872  10.693   6.353
76780SOL     OW32172  13.074  12.934   5.045
76780SOL    HW132173  13.070  12.899   5.134
76780SOL    HW232174  13.163  12.913   5.015
76781SOL     OW32175  10.248   0.223   0.223
76781SOL    HW132176  10.248   0.264   0.309
76781SOL    HW232177  10.293   0.139   0.236
76782SOL     OW32178   7.149  13.629   8.602
76782SOL    HW132179   7.113  13.548   8.639
76782SOL    HW232180   7.072  13.682   8.580
76783SOL     OW32181  14.017   4.774   7.850
76783SOL    HW132182  13.932   4.806   7.880
76783SOL    HW232183  13.999   4.738   7.763
76784SOL     OW32184   3.328  10.001  12.709
76784SOL    HW132185   3.345  10.001  12.615
76784SOL    HW232186   3.234   9.988  12.717
76785SOL     OW32187  10.652   7.628  10.661
76785SOL    HW132188  10.625   7.635  10.752
76785SOL    HW232189  10.618   7.707  10.619
76786SOL     OW32190   5.757  12.863   1.218
76786SOL    HW132191   5.758  12.892   1.309
76786SOL    HW232192   5.784  12.940   1.167
76787SOL     OW32193   3.691  10.811  14.795
76787SOL    HW132194   3.699  10.780   0.013
76787SOL    HW232195   3.649  10.896  14.803
76788SOL     OW32196   2.008  10.615   0.002
76788SOL    HW132197   2.029  10.686   0.062
76788SOL    HW232198   1.950  10.655  14.810
76789SOL     OW32199  11.305  14.695  12.551
76789SOL    HW132200  11.267  14.732  12.471
76789SOL    HW232201  11.291  14.762  12.618
76790SOL     OW32202  12.217  14.821   4.345
76790SOL    HW132203  12.242  14.752   4.407
76790SOL    HW232204  12.144  14.784   4.295
76791SOL     OW32205  12.906   7.734   0.207
76791SOL    HW132206  12.927   7.797   0.138
76791SOL    HW232207  12.866   7.786   0.276
76792SOL     OW32208  13.903   0.951   2.626
76792SOL    HW132209  13.816   0.913   2.620
76792SOL    HW232210  13.893   1.040   2.591
76793SOL     OW32211   6.229   9.769   0.713
76793SOL    HW132212   6.166   9.702   0.740
76793SOL    HW232213   6.241   9.756   0.619
76794SOL     OW32214   8.299  11.508   5.476
76794SOL    HW132215   8.369  11.522   5.540
76794SOL    HW232216   8.294  11.590   5.427
76795SOL     OW32217  12.062  10.903   9.354
76795SOL    HW132218  11.971  10.905   9.325
76795SOL    HW232219  12.112  10.942   9.282
76796SOL     OW32220   4.927   4.073  14.834
76796SOL    HW132221   4.986   4.011  14.791
76796SOL    HW232222   4.953   4.070   0.054
76797SOL     OW32223  11.423   2.299  12.940
76797SOL    HW132224  11.456   2.262  13.022
76797SOL    HW232225  11.417   2.393  12.956
76798SOL     OW32226   9.199  12.949   4.987
76798SOL    HW132227   9.277  12.895   5.001
76798SOL    HW232228   9.233  13.036   4.968
76799SOL     OW32229  10.754  14.643   4.770
76799SOL    HW132230  10.667  14.654   4.810
76799SOL    HW232231  10.738  14.646   4.676
76800SOL     OW32232  11.810   7.390   6.110
76800SOL    HW132233  11.747   7.437   6.164
76800SOL    HW232234  11.757   7.327   6.061
76801SOL     OW32235   6.834   9.771   1.611
76801SOL    HW132236   6.766   9.728   1.559
76801SOL    HW232237   6.906   9.786   1.549
76802SOL     OW32238   1.637   7.672   8.467
76802SOL    HW132239   1.674   7.629   8.390
76802SOL    HW232240   1.711   7.679   8.528
76803SOL     OW32241   0.838   0.143   4.042
76803SOL    HW132242   0.908   0.169   3.983
76803SOL    HW232243   0.853   0.050   4.058
76804SOL     OW32244   8.458   6.511   9.496
76804SOL    HW132245   8.492   6.521   9.407
76804SOL    HW232246   8.532   6.476   9.546
76805SOL     OW32247  10.296   9.207   8.588
76805SOL    HW132248  10.330   9.290   8.622
76805SOL    HW232249  10.230   9.180   8.652
76806SOL     OW32250   0.624   0.270  10.135
76806SOL    HW132251   0.611   0.262  10.230
76806SOL    HW232252   0.596   0.359  10.114
76807SOL     OW32253   1.240  13.771   8.279
76807SOL    HW132254   1.177  13.746   8.211
76807SOL    HW232255   1.188  13.776   8.359
76808SOL     OW32256   8.371   5.258  13.715
76808SOL    HW132257   8.447   5.272  13.659
76808SOL    HW232258   8.380   5.168  13.747
76809SOL     OW32259   2.074  11.627  13.583
76809SOL    HW132260   2.154  11.625  13.635
76809SOL    HW232261   2.016  11.688  13.629
76810SOL     OW32262   9.566   1.540   2.011
76810SOL    HW132263   9.626   1.615   2.003
76810SOL    HW232264   9.501   1.568   2.075
76811SOL     OW32265   2.895   0.898  12.029
76811SOL    HW132266   2.823   0.841  12.057
76811SOL    HW232267   2.865   0.986  12.049
76812SOL     OW32268   5.586   7.654   6.349
76812SOL    HW132269   5.537   7.733   6.328
76812SOL    HW232270   5.519   7.589   6.372
76813SOL     OW32271   2.771   8.277   6.076
76813SOL    HW132272   2.778   8.322   6.160
76813SOL    HW232273   2.794   8.344   6.011
76814SOL     OW32274   1.832   4.091   0.622
76814SOL    HW132275   1.840   4.179   0.661
76814SOL    HW232276   1.821   4.033   0.697
76815SOL     OW32277   1.559  10.666  11.620
76815SOL    HW132278   1.582  10.583  11.578
76815SOL    HW232279   1.564  10.647  11.714
76816SOL     OW32280  11.883   8.942  14.366
76816SOL    HW132281  11.905   8.848  14.364
76816SOL    HW232282  11.924   8.977  14.287
76817SOL     OW32283  13.763   4.979  13.166
76817SOL    HW132284  13.690   5.030  13.130
76817SOL    HW232285  13.818   4.959  13.090
76818SOL     OW32286   3.445   3.430   0.431
76818SOL    HW132287   3.366   3.408   0.480
76818SOL    HW232288   3.497   3.483   0.492
76819SOL     OW32289  10.056  10.044  11.884
76819SOL    HW132290   9.974  10.070  11.841
76819SOL    HW232291  10.031   9.973  11.942
76820SOL     OW32292   0.767   0.150   1.240
76820SOL    HW132293   0.782   0.196   1.157
76820SOL    HW232294   0.698   0.200   1.283
76821SOL     OW32295  14.262  12.923   7.463
76821SOL    HW132296  14.240  12.980   7.389
76821SOL    HW232297  14.178  12.893   7.497
76822SOL     OW32298   1.148   2.608   8.471
76822SOL    HW132299   1.093   2.647   8.402
76822SOL    HW232300   1.166   2.680   8.531
76823SOL     OW32301   2.571   5.492   3.411
76823SOL    HW132302   2.618   5.419   3.371
76823SOL    HW232303   2.501   5.512   3.349
76824SOL     OW32304  13.767  14.802   8.368
76824SOL    HW132305  13.745   0.009   8.416
76824SOL    HW232306  13.855  14.818   8.335
76825SOL     OW32307  14.698   3.739  10.733
76825SOL    HW132308  14.763   3.775  10.674
76825SOL    HW232309  14.698   3.645  10.714
76826SOL     OW32310  14.378   6.327   2.740
76826SOL    HW132311  14.421   6.365   2.663
76826SOL    HW232312  14.288   6.311   2.711
76827SOL     OW32313   8.731   4.002   3.489
76827SOL    HW132314   8.754   4.008   3.582
76827SOL    HW232315   8.687   3.918   3.481
76828SOL     OW32316   3.867   0.410  11.458
76828SOL    HW132317   3.774   0.387  11.472
76828SOL    HW232318   3.913   0.326  11.466
76829SOL     OW32319  10.541  10.653   7.087
76829SOL    HW132320  10.498  10.607   7.015
76829SOL    HW232321  10.635  10.644   7.069
76830SOL     OW32322   9.671   0.024  13.229
76830SOL    HW132323   9.620  14.844  13.168
76830SOL    HW232324   9.606   0.056  13.292
76831SOL     OW32325   3.277   3.541   4.195
76831SOL    HW132326   3.191   3.557   4.155
76831SOL    HW232327   3.338   3.536   4.121
76832SOL     OW32328   1.516  13.590   5.809
76832SOL    HW132329   1.482  13.502   5.827
76832SOL    HW232330   1.551  13.620   5.893
76833SOL     OW32331   0.208  11.103   0.192
76833SOL    HW132332   0.146  11.144   0.251
76833SOL    HW232333   0.169  11.113   0.105
76834SOL     OW32334   0.185   9.281   8.408
76834SOL    HW132335   0.271   9.245   8.431
76834SOL    HW232336   0.197   9.319   8.321
76835SOL     OW32337  14.134   0.578   5.256
76835SOL    HW132338  14.126   0.639   5.184
76835SOL    HW232339  14.146   0.492   5.214
76836SOL     OW32340   1.907   8.539  13.113
76836SOL    HW132341   1.873   8.458  13.076
76836SOL    HW232342   1.913   8.599  13.038
76837SOL     OW32343   7.132  10.124   8.735
76837SOL    HW132344   7.227  10.119   8.739
76837SOL    HW232345   7.108  10.076   8.655
76838SOL     OW32346   0.301  13.069   9.551
76838SOL    HW132347   0.285  13.050   9.459
76838SOL    HW232348   0.393  13.045   9.564
76839SOL     OW32349  11.286   3.382   3.951
76839SOL    HW132350  11.376   3.404   3.977
76839SOL    HW232351  11.275   3.424   3.866
76840SOL     OW32352   0.071   3.225   8.290
76840SOL    HW132353   0.004   3.280   8.250
76840SOL    HW232354   0.123   3.285   8.344
76841SOL     OW32355   7.175  14.767   7.915
76841SOL    HW132356   7.175  14.848   7.864
76841SOL    HW232357   7.102  14.716   7.880
76842SOL     OW32358  11.322   0.456   4.540
76842SOL    HW132359  11.264   0.391   4.581
76842SOL    HW232360  11.400   0.406   4.516
76843SOL     OW32361   5.316   4.806   3.971
76843SOL    HW132362   5.395   4.811   4.025
76843SOL    HW232363   5.299   4.897   3.946
76844SOL     OW32364  12.506   3.048   6.310
76844SOL    HW132365  12.470   3.117   6.366
76844SOL    HW232366  12.435   3.029   6.248
76845SOL     OW32367   5.076   1.139   8.646
76845SOL    HW132368   4.987   1.167   8.624
76845SOL    HW232369   5.129   1.218   8.639
76846SOL     OW32370   2.338  12.761   7.360
76846SOL    HW132371   2.349  12.669   7.384
76846SOL    HW232372   2.268  12.793   7.417
76847SOL     OW32373  11.451   7.860  14.727
76847SOL    HW132374  11.544   7.880  14.719
76847SOL    HW232375  11.447   7.764  14.733
76848SOL     OW32376   2.993  12.163   0.441
76848SOL    HW132377   2.986  12.171   0.346
76848SOL    HW232378   2.961  12.074   0.459
76849SOL     OW32379   8.825   8.701   4.205
76849SOL    HW132380   8.800   8.673   4.117
76849SOL    HW232381   8.836   8.619   4.253
76850SOL     OW32382  12.037   7.223   9.967
76850SOL    HW132383  12.119   7.200   9.924
76850SOL    HW232384  12.056   7.218  10.061
76851SOL     OW32385   5.157   0.643   7.484
76851SOL    HW132386   5.199   0.724   7.454
76851SOL    HW232387   5.175   0.580   7.414
76852SOL     OW32388  13.103   7.637   1.146
76852SOL    HW132389  13.044   7.635   1.221
76852SOL    HW232390  13.049   7.667   1.073
76853SOL     OW32391  10.222   3.270   4.460
76853SOL    HW132392  10.287   3.330   4.497
76853SOL    HW232393  10.259   3.244   4.376
76854SOL     OW32394  13.340   3.335   6.903
76854SOL    HW132395  13.433   3.355   6.894
76854SOL    HW232396  13.298   3.421   6.913
76855SOL     OW32397   9.432   3.830   1.510
76855SOL    HW132398   9.490   3.757   1.532
76855SOL    HW232399   9.486   3.908   1.524
76856SOL     OW32400  13.857   4.320   9.126
76856SOL    HW132401  13.934   4.345   9.176
76856SOL    HW232402  13.891   4.289   9.042
76857SOL     OW32403  11.802  12.421   1.951
76857SOL    HW132404  11.875  12.420   1.889
76857SOL    HW232405  11.803  12.334   1.991
76858SOL     OW32406   7.492   2.280  14.706
76858SOL    HW132407   7.445   2.280  14.789
76858SOL    HW232408   7.427   2.308  14.641
76859SOL     OW32409   6.182  12.595   4.344
76859SOL    HW132410   6.086  12.595   4.347
76859SOL    HW232411   6.208  12.553   4.426
76860SOL     OW32412   3.550  10.283   5.089
76860SOL    HW132413   3.486  10.286   5.160
76860SOL    HW232414   3.632  10.312   5.130
76861SOL     OW32415   9.673   0.361   3.364
76861SOL    HW132416   9.676   0.276   3.407
76861SOL    HW232417   9.582   0.390   3.374
76862SOL     OW32418  11.877  10.214  11.979
76862SOL    HW132419  11.831  10.186  12.058
76862SOL    HW232420  11.854  10.307  11.969
76863SOL     OW32421   8.142  13.815  10.931
76863SOL    HW132422   8.076  13.873  10.969
76863SOL    HW232423   8.176  13.766  11.005
76864SOL     OW32424  10.067   0.806   1.134
76864SOL    HW132425   9.973   0.809   1.150
76864SOL    HW232426  10.102   0.756   1.208
76865SOL     OW32427  12.709   1.770   3.493
76865SOL    HW132428  12.794   1.776   3.451
76865SOL    HW232429  12.686   1.677   3.487
76866SOL     OW32430   7.170   4.687  14.343
76866SOL    HW132431   7.192   4.690  14.250
76866SOL    HW232432   7.154   4.595  14.362
76867SOL     OW32433  10.269  13.788   4.226
76867SOL    HW132434  10.217  13.711   4.247
76867SOL    HW232435  10.274  13.788   4.130
76868SOL     OW32436   6.919   8.482   1.938
76868SOL    HW132437   6.873   8.500   2.020
76868SOL    HW232438   6.852   8.493   1.871
76869SOL     OW32439   7.442   5.051   2.998
76869SOL    HW132440   7.406   4.993   2.931
76869SOL    HW232441   7.497   5.113   2.949
76870SOL     OW32442   6.642   9.485   4.726
76870SOL    HW132443   6.675   9.575   4.734
76870SOL    HW232444   6.547   9.494   4.739
76871SOL     OW32445   0.038   7.864  11.998
76871SOL    HW132446   0.034   7.931  11.930
76871SOL    HW232447   0.022   7.781  11.952
76872SOL     OW32448   2.289   3.651   2.152
76872SOL    HW132449   2.359   3.654   2.217
76872SOL    HW232450   2.284   3.559   2.127
76873SOL     OW32451  11.655   8.524   0.984
76873SOL    HW132452  11.568   8.534   1.023
76873SOL    HW232453  11.678   8.611   0.952
76874SOL     OW32454   7.673  11.321  12.527
76874SOL    HW132455   7.647  11.341  12.438
76874SOL    HW232456   7.630  11.238  12.546
76875SOL     OW32457   0.937  11.553   7.548
76875SOL    HW132458   0.948  11.549   7.643
76875SOL    HW232459   0.843  11.543   7.535
76876SOL     OW32460  11.169   4.898   8.126
76876SOL    HW132461  11.257   4.923   8.096
76876SOL    HW232462  11.185   4.836   8.197
76877SOL     OW32463  13.151   8.336  10.005
76877SOL    HW132464  13.193   8.293  10.079
76877SOL    HW232465  13.222   8.357   9.945
76878SOL     OW32466   1.813   5.044  11.769
76878SOL    HW132467   1.792   5.057  11.677
76878SOL    HW232468   1.901   5.079  11.779
76879SOL     OW32469  11.909   2.017   9.210
76879SOL    HW132470  11.981   2.066   9.250
76879SOL    HW232471  11.837   2.026   9.271
76880SOL     OW32472   3.475  14.654   5.343
76880SOL    HW132473   3.399  14.704   5.313
76880SOL    HW232474   3.442  14.601   5.416
76881SOL     OW32475   2.987   3.068   2.666
76881SOL    HW132476   3.027   3.098   2.585
76881SOL    HW232477   2.996   3.142   2.727
76882SOL     OW32478   0.932   5.443   4.192
76882SOL    HW132479   0.903   5.497   4.265
76882SOL    HW232480   0.911   5.496   4.114
76883SOL     OW32481   0.943  12.273   8.405
76883SOL    HW132482   1.036  12.280   8.384
76883SOL    HW232483   0.940  12.219   8.484
76884SOL     OW32484  14.106   7.208   8.981
76884SOL    HW132485  14.042   7.265   8.938
76884SOL    HW232486  14.053   7.152   9.038
76885SOL     OW32487   1.138   7.001   1.156
76885SOL    HW132488   1.107   7.049   1.233
76885SOL    HW232489   1.225   7.037   1.138
76886SOL     OW32490   7.164   0.550  12.295
76886SOL    HW132491   7.117   0.586  12.370
76886SOL    HW232492   7.245   0.601  12.291
76887SOL     OW32493  10.453  11.416   1.439
76887SOL    HW132494  10.439  11.431   1.533
76887SOL    HW232495  10.367  11.387   1.407
76888SOL     OW32496   5.868  12.415   5.735
76888SOL    HW132497   5.939  12.362   5.771
76888SOL    HW232498   5.808  12.427   5.809
76889SOL     OW32499   4.684   0.889  12.562
76889SOL    HW132500   4.728   0.937  12.632
76889SOL    HW232501   4.591   0.901  12.579
76890SOL     OW32502  11.119   9.721  14.650
76890SOL    HW132503  11.178   9.795  14.633
76890SOL    HW232504  11.156   9.678  14.726
76891SOL     OW32505  13.026   0.310   1.957
76891SOL    HW132506  12.986   0.243   1.901
76891SOL    HW232507  12.958   0.330   2.022
76892SOL     OW32508   0.365   0.760  13.045
76892SOL    HW132509   0.366   0.677  12.999
76892SOL    HW232510   0.273   0.785  13.048
76893SOL     OW32511   7.293  10.420  14.370
76893SOL    HW132512   7.264  10.422  14.461
76893SOL    HW232513   7.332  10.333  14.358
76894SOL     OW32514   0.195   2.160   9.806
76894SOL    HW132515   0.162   2.100   9.738
76894SOL    HW232516   0.270   2.203   9.765
76895SOL     OW32517   3.003  14.126  10.311
76895SOL    HW132518   3.006  14.196  10.245
76895SOL    HW232519   3.095  14.104  10.327
76896SOL     OW32520   0.082  11.639  11.675
76896SOL    HW132521  14.872  11.614  11.634
76896SOL    HW232522   0.109  11.561  11.724
76897SOL     OW32523  11.546   0.596   7.305
76897SOL    HW132524  11.471   0.553   7.263
76897SOL    HW232525  11.616   0.530   7.302
76898SOL     OW32526   8.643   7.446   2.913
76898SOL    HW132527   8.688   7.362   2.924
76898SOL    HW232528   8.664   7.495   2.993
76899SOL     OW32529   9.706   0.824   0.102
76899SOL    HW132530   9.634   0.847   0.043
76899SOL    HW232531   9.677   0.743   0.145
76900SOL     OW32532  10.583   4.384   7.761
76900SOL    HW132533  10.556   4.475   7.749
76900SOL    HW232534  10.502   4.334   7.768
76901SOL     OW32535  10.340  10.329   9.654
76901SOL    HW132536  10.413  10.271   9.673
76901SOL    HW232537  10.268  10.295   9.706
76902SOL     OW32538  10.465  11.939   0.691
76902SOL    HW132539  10.547  11.939   0.740
76902SOL    HW232540  10.404  11.988   0.747
76903SOL     OW32541   6.274  12.915  14.684
76903SOL    HW132542   6.240  12.825  14.678
76903SOL    HW232543   6.241  12.947  14.768
76904SOL     OW32544  11.229  11.097  12.451
76904SOL    HW132545  11.267  11.136  12.529
76904SOL    HW232546  11.179  11.022  12.483
76905SOL     OW32547  10.008   7.685   8.123
76905SOL    HW132548  10.086   7.741   8.130
76905SOL    HW232549  10.000   7.666   8.030
76906SOL     OW32550   7.633   6.027   6.186
76906SOL    HW132551   7.628   6.116   6.221
76906SOL    HW232552   7.708   5.988   6.231
76907SOL     OW32553  12.383   5.500   2.731
76907SOL    HW132554  12.461   5.528   2.778
76907SOL    HW232555  12.355   5.421   2.777
76908SOL     OW32556   8.210   2.830  11.840
76908SOL    HW132557   8.266   2.753  11.842
76908SOL    HW232558   8.263   2.900  11.879
76909SOL     OW32559   8.639   0.971  13.206
76909SOL    HW132560   8.587   0.906  13.254
76909SOL    HW232561   8.698   0.918  13.151
76910SOL     OW32562  11.729   4.207   5.324
76910SOL    HW132563  11.641   4.214   5.287
76910SOL    HW232564  11.715   4.174   5.413
76911SOL     OW32565  10.602  11.360  13.726
76911SOL    HW132566  10.539  11.431  13.737
76911SOL    HW232567  10.632  11.339  13.815
76912SOL     OW32568   8.431  10.405  14.030
76912SOL    HW132569   8.399  10.320  14.058
76912SOL    HW232570   8.513  10.417  14.078
76913SOL     OW32571   7.171   3.602  13.101
76913SOL    HW132572   7.261   3.572  13.114
76913SOL    HW232573   7.137   3.547  13.030
76914SOL     OW32574   3.655  10.950  11.224
76914SOL    HW132575   3.633  10.919  11.312
76914SOL    HW232576   3.742  10.989  11.233
76915SOL     OW32577  12.296  12.442  12.774
76915SOL    HW132578  12.359  12.422  12.705
76915SOL    HW232579  12.211  12.435  12.731
76916SOL     OW32580  11.691  13.076   1.602
76916SOL    HW132581  11.670  13.085   1.695
76916SOL    HW232582  11.781  13.044   1.601
76917SOL     OW32583   1.710   3.427   7.545
76917SOL    HW132584   1.802   3.418   7.520
76917SOL    HW232585   1.708   3.504   7.602
76918SOL     OW32586  14.822   2.314   7.130
76918SOL    HW132587   0.007   2.237   7.132
76918SOL    HW232588   0.008   2.388   7.125
76919SOL     OW32589  14.349   1.281   7.503
76919SOL    HW132590  14.260   1.247   7.515
76919SOL    HW232591  14.350   1.315   7.414
76920SOL     OW32592   3.102   4.498   9.698
76920SOL    HW132593   3.166   4.543   9.643
76920SOL    HW232594   3.017   4.524   9.661
76921SOL     OW32595   1.202  13.023  13.864
76921SOL    HW132596   1.192  12.933  13.831
76921SOL    HW232597   1.120  13.040  13.910
76922SOL     OW32598   2.536   3.975   0.865
76922SOL    HW132599   2.543   4.036   0.791
76922SOL    HW232600   2.540   3.889   0.825
76923SOL     OW32601  10.736  11.107  11.240
76923SOL    HW132602  10.727  11.162  11.162
76923SOL    HW232603  10.647  11.097  11.272
76924SOL     OW32604   7.943  14.009  11.014
76924SOL    HW132605   8.003  14.044  11.080
76924SOL    HW232606   7.891  14.084  10.987
76925SOL     OW32607   0.784   4.954   6.342
76925SOL    HW132608   0.761   4.942   6.434
76925SOL    HW232609   0.722   4.899   6.294
76926SOL     OW32610   3.298   1.634   6.422
76926SOL    HW132611   3.280   1.659   6.512
76926SOL    HW232612   3.227   1.575   6.398
76927SOL     OW32613   4.313   3.490   7.315
76927SOL    HW132614   4.371   3.445   7.376
76927SOL    HW232615   4.325   3.583   7.333
76928SOL     OW32616   4.227  10.603   6.028
76928SOL    HW132617   4.211  10.635   6.117
76928SOL    HW232618   4.141  10.576   5.996
76929SOL     OW32619   8.930   7.650   7.283
76929SOL    HW132620   8.965   7.735   7.253
76929SOL    HW232621   8.870   7.672   7.354
76930SOL     OW32622  12.100  11.526  11.804
76930SOL    HW132623  12.109  11.549  11.711
76930SOL    HW232624  12.167  11.578  11.848
76931SOL     OW32625  11.791   0.266  11.099
76931SOL    HW132626  11.769   0.192  11.155
76931SOL    HW232627  11.797   0.341  11.158
76932SOL     OW32628   9.620  13.472  12.085
76932SOL    HW132629   9.617  13.377  12.077
76932SOL    HW232630   9.604  13.489  12.178
76933SOL     OW32631   2.315  13.663   0.866
76933SOL    HW132632   2.391  13.672   0.807
76933SOL    HW232633   2.350  13.617   0.942
76934SOL     OW32634  13.432   3.234  14.716
76934SOL    HW132635  13.457   3.318  14.678
76934SOL    HW232636  13.391   3.256  14.800
76935SOL     OW32637   3.147   4.078  11.820
76935SOL    HW132638   3.107   4.165  11.822
76935SOL    HW232639   3.169   4.060  11.911
76936SOL     OW32640   2.015   1.710   1.186
76936SOL    HW132641   1.923   1.708   1.160
76936SOL    HW232642   2.037   1.618   1.203
76937SOL     OW32643   8.194   0.457   4.877
76937SOL    HW132644   8.258   0.511   4.830
76937SOL    HW232645   8.157   0.400   4.809
76938SOL     OW32646   2.626  13.771  13.588
76938SOL    HW132647   2.696  13.788  13.525
76938SOL    HW232648   2.562  13.719  13.539
76939SOL     OW32649   7.433  10.975  13.862
76939SOL    HW132650   7.366  10.921  13.903
76939SOL    HW232651   7.457  10.928  13.782
76940SOL     OW32652   3.092   8.322   0.291
76940SOL    HW132653   3.067   8.339   0.199
76940SOL    HW232654   3.051   8.238   0.311
76941SOL     OW32655  13.336   1.367   1.805
76941SOL    HW132656  13.413   1.372   1.748
76941SOL    HW232657  13.350   1.435   1.871
76942SOL     OW32658   3.081   4.401   2.635
76942SOL    HW132659   3.111   4.313   2.613
76942SOL    HW232660   3.128   4.423   2.715
76943SOL     OW32661   3.821   7.101   2.390
76943SOL    HW132662   3.892   7.104   2.454
76943SOL    HW232663   3.766   7.027   2.417
76944SOL     OW32664  10.195   9.425   4.777
76944SOL    HW132665  10.288   9.403   4.781
76944SOL    HW232666  10.154   9.346   4.741
76945SOL     OW32667   6.319  13.584  12.877
76945SOL    HW132668   6.296  13.667  12.835
76945SOL    HW232669   6.307  13.600  12.971
76946SOL     OW32670   9.692   0.324  14.621
76946SOL    HW132671   9.613   0.297  14.667
76946SOL    HW232672   9.763   0.303  14.682
76947SOL     OW32673   3.651  13.972   5.694
76947SOL    HW132674   3.699  14.050   5.668
76947SOL    HW232675   3.702  13.935   5.767
76948SOL     OW32676  14.788  10.198   6.478
76948SOL    HW132677  14.798  10.201   6.574
76948SOL    HW232678  14.700  10.232   6.463
76949SOL     OW32679  11.104   0.753   6.648
76949SOL    HW132680  11.009   0.755   6.662
76949SOL    HW232681  11.125   0.660   6.641
76950SOL     OW32682   9.134   2.247   2.745
76950SOL    HW132683   9.065   2.215   2.803
76950SOL    HW232684   9.166   2.327   2.787
76951SOL     OW32685  14.678   6.753   6.284
76951SOL    HW132686  14.694   6.748   6.378
76951SOL    HW232687  14.752   6.708   6.244
76952SOL     OW32688  14.010   1.160  13.232
76952SOL    HW132689  13.972   1.072  13.241
76952SOL    HW232690  13.943   1.219  13.268
76953SOL     OW32691   0.543  13.294  11.103
76953SOL    HW132692   0.490  13.299  11.183
76953SOL    HW232693   0.608  13.226  11.122
76954SOL     OW32694   2.670  12.747   9.814
76954SOL    HW132695   2.695  12.688   9.742
76954SOL    HW232696   2.590  12.709   9.848
76955SOL     OW32697  11.850   1.617   4.324
76955SOL    HW132698  11.856   1.543   4.384
76955SOL    HW232699  11.853   1.578   4.237
76956SOL     OW32700   1.007   5.618  12.313
76956SOL    HW132701   1.051   5.693  12.352
76956SOL    HW232702   1.078   5.563  12.280
76957SOL     OW32703   8.623   9.817   1.000
76957SOL    HW132704   8.635   9.736   0.951
76957SOL    HW232705   8.529   9.822   1.016
76958SOL     OW32706   1.969   6.755  10.278
76958SOL    HW132707   1.897   6.818  10.277
76958SOL    HW232708   2.048   6.807  10.291
76959SOL     OW32709   6.605  13.679  13.610
76959SOL    HW132710   6.564  13.675  13.524
76959SOL    HW232711   6.677  13.741  13.600
76960SOL     OW32712   4.427   9.731  12.754
76960SOL    HW132713   4.400   9.652  12.800
76960SOL    HW232714   4.430   9.705  12.662
76961SOL     OW32715   6.127   4.111   1.067
76961SOL    HW132716   6.186   4.036   1.064
76961SOL    HW232717   6.121   4.133   1.161
76962SOL     OW32718   2.602   0.544   5.275
76962SOL    HW132719   2.600   0.458   5.234
76962SOL    HW232720   2.675   0.540   5.336
76963SOL     OW32721   3.323   9.112   4.013
76963SOL    HW132722   3.308   9.135   3.921
76963SOL    HW232723   3.418   9.118   4.024
76964SOL     OW32724  12.037  12.790   7.824
76964SOL    HW132725  12.070  12.851   7.890
76964SOL    HW232726  11.988  12.725   7.874
76965SOL     OW32727  13.001   9.599   7.445
76965SOL    HW132728  12.942   9.552   7.386
76965SOL    HW232729  13.013   9.539   7.519
76966SOL     OW32730   3.643   7.217   3.973
76966SOL    HW132731   3.637   7.216   3.877
76966SOL    HW232732   3.700   7.291   3.992
76967SOL     OW32733   5.736   5.248   0.622
76967SOL    HW132734   5.794   5.225   0.695
76967SOL    HW232735   5.651   5.264   0.663
76968SOL     OW32736  11.692  13.256   4.942
76968SOL    HW132737  11.728  13.341   4.917
76968SOL    HW232738  11.618  13.243   4.883
76969SOL     OW32739  11.231   7.625  14.034
76969SOL    HW132740  11.181   7.547  14.008
76969SOL    HW232741  11.196   7.649  14.120
76970SOL     OW32742   3.461   1.218   1.091
76970SOL    HW132743   3.513   1.139   1.106
76970SOL    HW232744   3.511   1.289   1.132
76971SOL     OW32745   7.408   6.167   7.875
76971SOL    HW132746   7.443   6.195   7.959
76971SOL    HW232747   7.349   6.237   7.848
76972SOL     OW32748  13.110  10.933   7.970
76972SOL    HW132749  13.193  10.918   7.925
76972SOL    HW232750  13.073  11.011   7.927
76973SOL     OW32751   7.545  12.653   3.170
76973SOL    HW132752   7.522  12.614   3.085
76973SOL    HW232753   7.550  12.579   3.230
76974SOL     OW32754   6.016   0.069   1.738
76974SOL    HW132755   5.948   0.076   1.671
76974SOL    HW232756   6.044   0.160   1.754
76975SOL     OW32757   1.756   2.165  12.985
76975SOL    HW132758   1.804   2.198  12.910
76975SOL    HW232759   1.703   2.238  13.015
76976SOL     OW32760  14.414   2.937  12.920
76976SOL    HW132761  14.467   2.881  12.977
76976SOL    HW232762  14.477   2.999  12.883
76977SOL     OW32763   0.675  13.952   2.992
76977SOL    HW132764   0.617  13.949   3.069
76977SOL    HW232765   0.633  13.894   2.929
76978SOL     OW32766   7.583  11.714  13.206
76978SOL    HW132767   7.534  11.631  13.208
76978SOL    HW232768   7.522  11.778  13.244
76979SOL     OW32769  12.232   4.043   2.249
76979SOL    HW132770  12.176   4.118   2.273
76979SOL    HW232771  12.265   4.065   2.162
76980SOL     OW32772   4.870   4.730  13.195
76980SOL    HW132773   4.964   4.710  13.204
76980SOL    HW232774   4.852   4.789  13.268
76981SOL     OW32775   2.399   4.476   5.354
76981SOL    HW132776   2.316   4.474   5.402
76981SOL    HW232777   2.405   4.566   5.321
76982SOL     OW32778  13.200   5.088   4.993
76982SOL    HW132779  13.260   5.125   5.058
76982SOL    HW232780  13.112   5.111   5.025
76983SOL     OW32781  10.259   4.041   6.232
76983SOL    HW132782  10.303   4.056   6.316
76983SOL    HW232783  10.317   4.080   6.167
76984SOL     OW32784   2.489   4.109   9.992
76984SOL    HW132785   2.452   4.035  10.040
76984SOL    HW232786   2.417   4.173   9.988
76985SOL     OW32787   4.577  14.241   5.731
76985SOL    HW132788   4.526  14.248   5.812
76985SOL    HW232789   4.565  14.326   5.689
76986SOL     OW32790   2.485   4.308   7.941
76986SOL    HW132791   2.419   4.370   7.972
76986SOL    HW232792   2.476   4.232   7.999
76987SOL     OW32793   2.772   5.925   2.118
76987SOL    HW132794   2.745   6.003   2.070
76987SOL    HW232795   2.747   5.852   2.062
76988SOL     OW32796   8.262   2.740  10.555
76988SOL    HW132797   8.311   2.698  10.626
76988SOL    HW232798   8.267   2.833  10.574
76989SOL     OW32799   4.098   4.962  11.521
76989SOL    HW132800   4.059   4.996  11.441
76989SOL    HW232801   4.074   5.025  11.589
76990SOL     OW32802  12.586   3.835  12.654
76990SOL    HW132803  12.647   3.785  12.599
76990SOL    HW232804  12.639   3.907  12.688
76991SOL     OW32805   2.542   3.867   8.954
76991SOL    HW132806   2.484   3.838   9.024
76991SOL    HW232807   2.592   3.789   8.931
76992SOL     OW32808   5.470  11.273   1.651
76992SOL    HW132809   5.471  11.283   1.746
76992SOL    HW232810   5.538  11.208   1.633
76993SOL     OW32811   9.825   9.101  12.679
76993SOL    HW132812   9.897   9.038  12.678
76993SOL    HW232813   9.746   9.048  12.672
76994SOL     OW32814  13.355  12.871  12.820
76994SOL    HW132815  13.364  12.833  12.908
76994SOL    HW232816  13.433  12.843  12.773
76995SOL     OW32817   0.226   1.652   5.058
76995SOL    HW132818   0.272   1.724   5.013
76995SOL    HW232819   0.257   1.573   5.014
76996SOL     OW32820  13.051   7.143  10.555
76996SOL    HW132821  13.115   7.197  10.509
76996SOL    HW232822  13.085   7.054  10.546
76997SOL     OW32823   7.458   8.573  10.536
76997SOL    HW132824   7.376   8.579  10.486
76997SOL    HW232825   7.526   8.568  10.469
76998SOL     OW32826   4.070  13.596   3.363
76998SOL    HW132827   4.119  13.620   3.442
76998SOL    HW232828   4.136  13.588   3.295
76999SOL     OW32829  14.269  11.204  13.531
76999SOL    HW132830  14.288  11.161  13.447
76999SOL    HW232831  14.230  11.288  13.506
77000SOL     OW32832   5.159  12.453   2.875
77000SOL    HW132833   5.082  12.503   2.903
77000SOL    HW232834   5.175  12.391   2.946
77001SOL     OW32835   6.186   9.217   1.358
77001SOL    HW132836   6.097   9.251   1.348
77001SOL    HW232837   6.228   9.278   1.419
77002SOL     OW32838  13.076   5.730   0.916
77002SOL    HW132839  13.133   5.743   0.841
77002SOL    HW232840  13.118   5.659   0.966
77003SOL     OW32841   6.960  13.503   2.298
77003SOL    HW132842   6.866  13.511   2.281
77003SOL    HW232843   6.975  13.558   2.375
77004SOL     OW32844   3.007  14.579  12.723
77004SOL    HW132845   3.050  14.598  12.639
77004SOL    HW232846   2.993  14.485  12.721
77005SOL     OW32847   4.071  14.551  11.763
77005SOL    HW132848   3.977  14.538  11.750
77005SOL    HW232849   4.112  14.489  11.703
77006SOL     OW32850   5.366  13.828   0.189
77006SOL    HW132851   5.309  13.769   0.239
77006SOL    HW232852   5.374  13.786   0.103
77007SOL     OW32853   8.346  13.228   7.289
77007SOL    HW132854   8.260  13.237   7.247
77007SOL    HW232855   8.367  13.316   7.320
77008SOL     OW32856  11.624   0.844  13.743
77008SOL    HW132857  11.670   0.803  13.669
77008SOL    HW232858  11.634   0.781  13.815
77009SOL     OW32859  10.419  11.705  10.709
77009SOL    HW132860  10.362  11.768  10.665
77009SOL    HW232861  10.487  11.758  10.751
77010SOL     OW32862  10.661   5.876   8.549
77010SOL    HW132863  10.675   5.964   8.583
77010SOL    HW232864  10.708   5.874   8.466
77011SOL     OW32865  12.319  12.994   1.128
77011SOL    HW132866  12.334  13.075   1.079
77011SOL    HW232867  12.352  13.014   1.216
77012SOL     OW32868  13.634   0.103   4.806
77012SOL    HW132869  13.544   0.071   4.807
77012SOL    HW232870  13.628   0.192   4.842
77013SOL     OW32871  11.370  10.276  13.985
77013SOL    HW132872  11.398  10.250  13.898
77013SOL    HW232873  11.391  10.369  13.990
77014SOL     OW32874   1.130   2.248   2.208
77014SOL    HW132875   1.148   2.212   2.122
77014SOL    HW232876   1.217   2.256   2.249
77015SOL     OW32877   3.785   6.779   8.480
77015SOL    HW132878   3.814   6.692   8.505
77015SOL    HW232879   3.809   6.835   8.554
77016SOL     OW32880   4.625  14.513   3.448
77016SOL    HW132881   4.687  14.550   3.385
77016SOL    HW232882   4.670  14.517   3.532
77017SOL     OW32883  11.297   2.683   5.586
77017SOL    HW132884  11.265   2.739   5.657
77017SOL    HW232885  11.286   2.594   5.619
77018SOL     OW32886   0.196   8.612   5.909
77018SOL    HW132887   0.259   8.676   5.876
77018SOL    HW232888   0.219   8.601   6.001
77019SOL     OW32889   7.242   7.719   5.833
77019SOL    HW132890   7.237   7.804   5.789
77019SOL    HW232891   7.283   7.739   5.918
77020SOL     OW32892   5.177  10.728   7.032
77020SOL    HW132893   5.238  10.733   6.958
77020SOL    HW232894   5.141  10.816   7.039
77021SOL     OW32895   4.166  14.599   8.183
77021SOL    HW132896   4.240  14.552   8.221
77021SOL    HW232897   4.161  14.568   8.093
77022SOL     OW32898  10.790   8.665   7.858
77022SOL    HW132899  10.775   8.743   7.805
77022SOL    HW232900  10.713   8.659   7.915
77023SOL     OW32901   7.448  13.944   3.343
77023SOL    HW132902   7.463  13.954   3.437
77023SOL    HW232903   7.477  14.028   3.306
77024SOL     OW32904   4.839   0.622   5.845
77024SOL    HW132905   4.862   0.704   5.802
77024SOL    HW232906   4.893   0.556   5.801
77025SOL     OW32907  12.298   4.527   3.534
77025SOL    HW132908  12.224   4.554   3.480
77025SOL    HW232909  12.294   4.431   3.534
77026SOL     OW32910  14.522   2.430   0.542
77026SOL    HW132911  14.589   2.414   0.608
77026SOL    HW232912  14.455   2.482   0.587
77027SOL     OW32913   7.425   9.282  14.235
77027SOL    HW132914   7.501   9.340  14.241
77027SOL    HW232915   7.444   9.211  14.297
77028SOL     OW32916   5.036   0.935   9.118
77028SOL    HW132917   5.116   0.943   9.169
77028SOL    HW232918   5.064   0.947   9.027
77029SOL     OW32919   9.188  10.759   2.955
77029SOL    HW132920   9.154  10.848   2.941
77029SOL    HW232921   9.110  10.703   2.949
77030SOL     OW32922   6.334  13.107   2.176
77030SOL    HW132923   6.387  13.177   2.140
77030SOL    HW232924   6.395  13.055   2.228
77031SOL     OW32925  12.273   9.443  12.666
77031SOL    HW132926  12.232   9.356  12.668
77031SOL    HW232927  12.346   9.436  12.728
77032SOL     OW32928   8.315   3.673  12.267
77032SOL    HW132929   8.248   3.692  12.332
77032SOL    HW232930   8.391   3.643  12.318
77033SOL     OW32931   2.896  11.188   8.513
77033SOL    HW132932   2.804  11.168   8.532
77033SOL    HW232933   2.939  11.187   8.599
77034SOL     OW32934   6.033   2.542   3.637
77034SOL    HW132935   6.028   2.576   3.726
77034SOL    HW232936   5.975   2.466   3.636
77035SOL     OW32937  10.926   6.109   2.457
77035SOL    HW132938  11.002   6.061   2.491
77035SOL    HW232939  10.886   6.049   2.394
77036SOL     OW32940  13.052  14.349   5.352
77036SOL    HW132941  13.012  14.396   5.279
77036SOL    HW232942  13.133  14.313   5.315
77037SOL     OW32943   6.888   8.785   5.183
77037SOL    HW132944   6.810   8.823   5.142
77037SOL    HW232945   6.853   8.717   5.241
77038SOL     OW32946   2.362   7.126   8.635
77038SOL    HW132947   2.412   7.061   8.586
77038SOL    HW232948   2.338   7.082   8.717
77039SOL     OW32949   3.175   9.354   9.739
77039SOL    HW132950   3.205   9.361   9.649
77039SOL    HW232951   3.164   9.260   9.754
77040SOL     OW32952  12.799   9.410  13.501
77040SOL    HW132953  12.840   9.324  13.511
77040SOL    HW232954  12.814   9.433  13.409
77041SOL     OW32955   8.117  10.435  12.914
77041SOL    HW132956   8.085  10.484  12.838
77041SOL    HW232957   8.119  10.344  12.884
77042SOL     OW32958   2.427   7.125   4.559
77042SOL    HW132959   2.435   7.051   4.499
77042SOL    HW232960   2.401   7.085   4.642
77043SOL     OW32961  14.205   7.585  13.174
77043SOL    HW132962  14.284   7.537  13.198
77043SOL    HW232963  14.167   7.534  13.103
77044SOL     OW32964   2.232   4.351   9.621
77044SOL    HW132965   2.158   4.296   9.647
77044SOL    HW232966   2.213   4.377   9.531
77045SOL     OW32967  12.460   4.317   0.635
77045SOL    HW132968  12.388   4.296   0.575
77045SOL    HW232969  12.471   4.412   0.626
77046SOL     OW32970  13.386   9.368   4.582
77046SOL    HW132971  13.437   9.325   4.514
77046SOL    HW232972  13.435   9.352   4.663
77047SOL     OW32973   7.453  13.905   0.619
77047SOL    HW132974   7.482  13.912   0.710
77047SOL    HW232975   7.528  13.871   0.572
77048SOL     OW32976   0.390  10.422   8.156
77048SOL    HW132977   0.298  10.400   8.142
77048SOL    HW232978   0.437  10.365   8.096
77049SOL     OW32979   6.984  10.744   3.335
77049SOL    HW132980   7.024  10.784   3.412
77049SOL    HW232981   7.050  10.753   3.266
77050SOL     OW32982  14.235   3.006   7.311
77050SOL    HW132983  14.156   2.963   7.343
77050SOL    HW232984  14.218   3.023   7.219
77051SOL     OW32985   6.499  13.679  14.736
77051SOL    HW132986   6.518  13.633  14.818
77051SOL    HW232987   6.409  13.654  14.715
77052SOL     OW32988   9.652  11.693  11.796
77052SOL    HW132989   9.663  11.718  11.704
77052SOL    HW232990   9.667  11.599  11.797
77053SOL     OW32991   8.413   8.868   6.267
77053SOL    HW132992   8.411   8.934   6.337
77053SOL    HW232993   8.337   8.813   6.285
77054SOL     OW32994   3.482   0.629  12.679
77054SOL    HW132995   3.429   0.661  12.605
77054SOL    HW232996   3.570   0.619  12.642
77055SOL     OW32997   7.364   0.161  12.946
77055SOL    HW132998   7.427   0.233  12.958
77055SOL    HW232999   7.294   0.180  13.008
77056SOL     OW33000   3.970   3.093   4.358
77056SOL    HW133001   3.934   3.119   4.274
77056SOL    HW233002   3.895   3.058   4.407
77057SOL     OW33003   4.667   5.067   1.450
77057SOL    HW133004   4.593   5.069   1.389
77057SOL    HW233005   4.718   4.991   1.423
77058SOL     OW33006   0.381   7.601   6.310
77058SOL    HW133007   0.429   7.567   6.234
77058SOL    HW233008   0.328   7.527   6.340
77059SOL     OW33009  13.336   3.540   2.006
77059SOL    HW133010  13.373   3.524   2.092
77059SOL    HW233011  13.319   3.634   2.004
77060SOL     OW33012  13.584   2.130   4.445
77060SOL    HW133013  13.625   2.063   4.390
77060SOL    HW233014  13.648   2.201   4.449
77061SOL     OW33015   2.345  12.174   1.097
77061SOL    HW133016   2.278  12.238   1.118
77061SOL    HW233017   2.335  12.106   1.163
77062SOL     OW33018   5.863   8.845   1.066
77062SOL    HW133019   5.776   8.808   1.050
77062SOL    HW233020   5.896   8.796   1.142
77063SOL     OW33021  14.326  14.209  11.351
77063SOL    HW133022  14.396  14.227  11.288
77063SOL    HW233023  14.277  14.136  11.313
77064SOL     OW33024  13.324   5.155   2.948
77064SOL    HW133025  13.350   5.110   3.028
77064SOL    HW233026  13.394   5.217   2.930
77065SOL     OW33027   6.801  11.676   2.161
77065SOL    HW133028   6.762  11.654   2.246
77065SOL    HW233029   6.868  11.741   2.182
77066SOL     OW33030  10.920   3.828   5.859
77066SOL    HW133031  10.849   3.779   5.816
77066SOL    HW233032  10.876   3.905   5.896
77067SOL     OW33033  11.881   2.041  14.334
77067SOL    HW133034  11.875   2.020  14.427
77067SOL    HW233035  11.863   1.958  14.289
77068SOL     OW33036   7.583   3.004  11.690
77068SOL    HW133037   7.610   3.096  11.684
77068SOL    HW233038   7.629   2.961  11.618
77069SOL     OW33039   6.450   5.913   9.671
77069SOL    HW133040   6.465   5.874   9.757
77069SOL    HW233041   6.355   5.907   9.659
77070SOL     OW33042   0.423   8.652  11.211
77070SOL    HW133043   0.329   8.650  11.193
77070SOL    HW233044   0.453   8.734  11.173
77071SOL     OW33045  12.029   9.377  12.376
77071SOL    HW133046  11.935   9.371  12.393
77071SOL    HW233047  12.056   9.286  12.363
77072SOL     OW33048   7.665  12.653   9.293
77072SOL    HW133049   7.670  12.566   9.332
77072SOL    HW233050   7.703  12.642   9.206
77073SOL     OW33051   0.310   2.893   0.462
77073SOL    HW133052   0.232   2.907   0.408
77073SOL    HW233053   0.282   2.916   0.551
77074SOL     OW33054  14.490   5.639   5.598
77074SOL    HW133055  14.570   5.591   5.616
77074SOL    HW233056  14.433   5.621   5.672
77075SOL     OW33057   7.633   6.640  13.316
77075SOL    HW133058   7.711   6.621  13.264
77075SOL    HW233059   7.615   6.559  13.364
77076SOL     OW33060  11.012   9.966  12.297
77076SOL    HW133061  10.932   9.976  12.348
77076SOL    HW233062  11.050  10.054  12.295
77077SOL     OW33063  11.683   1.246   0.400
77077SOL    HW133064  11.734   1.323   0.376
77077SOL    HW233065  11.604   1.282   0.440
77078SOL     OW33066   1.455  14.235   2.466
77078SOL    HW133067   1.443  14.324   2.502
77078SOL    HW233068   1.516  14.193   2.525
77079SOL     OW33069  14.313   6.584   6.159
77079SOL    HW133070  14.332   6.519   6.226
77079SOL    HW233071  14.218   6.580   6.147
77080SOL     OW33072   8.608   9.282   8.580
77080SOL    HW133073   8.649   9.254   8.498
77080SOL    HW233074   8.538   9.341   8.553
77081SOL     OW33075   9.229  12.482  12.285
77081SOL    HW133076   9.318  12.491  12.317
77081SOL    HW233077   9.207  12.390  12.299
77082SOL     OW33078  13.765   7.655   4.198
77082SOL    HW133079  13.673   7.680   4.194
77082SOL    HW233080  13.769   7.589   4.268
77083SOL     OW33081   8.496  11.886   4.223
77083SOL    HW133082   8.421  11.876   4.281
77083SOL    HW233083   8.554  11.813   4.246
77084SOL     OW33084   2.652  13.075   5.199
77084SOL    HW133085   2.563  13.081   5.165
77084SOL    HW233086   2.706  13.057   5.122
77085SOL     OW33087   8.224   3.421   8.891
77085SOL    HW133088   8.196   3.368   8.815
77085SOL    HW233089   8.308   3.458   8.864
77086SOL     OW33090  12.083  11.278   8.127
77086SOL    HW133091  12.028  11.271   8.205
77086SOL    HW233092  12.172  11.259   8.159
77087SOL     OW33093   7.129   8.638   1.224
77087SOL    HW133094   7.107   8.717   1.174
77087SOL    HW233095   7.059   8.631   1.289
77088SOL     OW33096  10.645   4.738   9.226
77088SOL    HW133097  10.695   4.754   9.307
77088SOL    HW233098  10.566   4.692   9.256
77089SOL     OW33099   2.289   0.050  12.102
77089SOL    HW133100   2.271   0.103  12.025
77089SOL    HW233101   2.381   0.067  12.122
77090SOL     OW33102   7.117   5.561   8.052
77090SOL    HW133103   7.125   5.485   8.108
77090SOL    HW233104   7.179   5.546   7.981
77091SOL     OW33105   6.639   4.132   4.752
77091SOL    HW133106   6.607   4.184   4.826
77091SOL    HW233107   6.642   4.194   4.679
77092SOL     OW33108  10.088   6.650   4.351
77092SOL    HW133109  10.030   6.622   4.280
77092SOL    HW233110  10.146   6.575   4.365
77093SOL     OW33111  14.372   1.192   8.338
77093SOL    HW133112  14.330   1.211   8.254
77093SOL    HW233113  14.430   1.267   8.353
77094SOL     OW33114   9.625   0.097   4.274
77094SOL    HW133115   9.712   0.130   4.293
77094SOL    HW233116   9.609   0.121   4.182
77095SOL     OW33117   1.232   4.790  10.144
77095SOL    HW133118   1.201   4.834  10.065
77095SOL    HW233119   1.178   4.711  10.150
77096SOL     OW33120   9.938   7.488  14.601
77096SOL    HW133121  10.025   7.448  14.593
77096SOL    HW233122   9.949   7.559  14.664
77097SOL     OW33123  14.658   9.079   8.011
77097SOL    HW133124  14.571   9.039   8.008
77097SOL    HW233125  14.672   9.114   7.922
77098SOL     OW33126  11.113   3.226   8.154
77098SOL    HW133127  11.043   3.287   8.178
77098SOL    HW233128  11.112   3.224   8.059
77099SOL     OW33129  13.879  12.879  12.839
77099SOL    HW133130  13.842  12.808  12.786
77099SOL    HW233131  13.890  12.952  12.778
77100SOL     OW33132  10.329   0.819   6.704
77100SOL    HW133133  10.400   0.858   6.756
77100SOL    HW233134  10.327   0.727   6.732
77101SOL     OW33135   5.187   1.291   5.651
77101SOL    HW133136   5.151   1.363   5.598
77101SOL    HW233137   5.146   1.212   5.616
77102SOL     OW33138   8.204   0.121   8.575
77102SOL    HW133139   8.244   0.106   8.490
77102SOL    HW233140   8.217   0.039   8.623
77103SOL     OW33141   1.444   8.475   6.170
77103SOL    HW133142   1.409   8.419   6.101
77103SOL    HW233143   1.538   8.457   6.170
77104SOL     OW33144   1.914   8.303  13.318
77104SOL    HW133145   1.850   8.365  13.283
77104SOL    HW233146   1.991   8.314  13.261
77105SOL     OW33147   1.791   0.222   3.117
77105SOL    HW133148   1.808   0.172   3.037
77105SOL    HW233149   1.770   0.155   3.183
77106SOL     OW33150   1.981   1.434   0.858
77106SOL    HW133151   2.044   1.505   0.848
77106SOL    HW233152   2.032   1.360   0.890
77107SOL     OW33153  14.316  13.167   2.874
77107SOL    HW133154  14.322  13.261   2.854
77107SOL    HW233155  14.275  13.164   2.961
77108SOL     OW33156  11.352   8.861  14.568
77108SOL    HW133157  11.290   8.795  14.539
77108SOL    HW233158  11.301   8.920  14.624
77109SOL     OW33159  14.468  14.749   8.829
77109SOL    HW133160  14.412  14.763   8.752
77109SOL    HW233161  14.505  14.836   8.847
77110SOL     OW33162   7.567   8.987   2.088
77110SOL    HW133163   7.603   8.920   2.030
77110SOL    HW233164   7.644   9.033   2.121
77111SOL     OW33165   3.939  14.001  11.554
77111SOL    HW133166   3.945  14.096  11.547
77111SOL    HW233167   3.877  13.976  11.486
77112SOL     OW33168   1.198  14.753   6.895
77112SOL    HW133169   1.280  14.796   6.918
77112SOL    HW233170   1.189  14.682   6.958
77113SOL     OW33171   8.276  10.880   2.136
77113SOL    HW133172   8.297  10.898   2.228
77113SOL    HW233173   8.321  10.948   2.087
77114SOL     OW33174   8.898   9.119   0.615
77114SOL    HW133175   8.899   9.130   0.520
77114SOL    HW233176   8.832   9.052   0.631
77115SOL     OW33177  12.395  12.598   6.748
77115SOL    HW133178  12.447  12.678   6.738
77115SOL    HW233179  12.460  12.528   6.755
77116SOL     OW33180   2.791   9.729   9.728
77116SOL    HW133181   2.812   9.786   9.802
77116SOL    HW233182   2.876   9.705   9.691
77117SOL     OW33183   5.571   2.156   9.928
77117SOL    HW133184   5.575   2.248   9.901
77117SOL    HW233185   5.624   2.152  10.008
77118SOL     OW33186   3.540   7.633   6.028
77118SOL    HW133187   3.529   7.571   6.101
77118SOL    HW233188   3.619   7.603   5.983
77119SOL     OW33189   1.084   3.361   6.661
77119SOL    HW133190   1.076   3.456   6.650
77119SOL    HW233191   1.012   3.337   6.719
77120SOL     OW33192  12.733  13.057  10.576
77120SOL    HW133193  12.705  13.138  10.534
77120SOL    HW233194  12.740  13.078  10.669
77121SOL     OW33195  11.709   4.439  14.036
77121SOL    HW133196  11.792   4.485  14.040
77121SOL    HW233197  11.715   4.372  14.104
77122SOL     OW33198   0.690   1.313  11.320
77122SOL    HW133199   0.753   1.384  11.309
77122SOL    HW233200   0.605   1.358  11.330
77123SOL     OW33201   4.369   1.386   4.175
77123SOL    HW133202   4.461   1.411   4.161
77123SOL    HW233203   4.333   1.379   4.087
77124SOL     OW33204   5.399   9.153  10.842
77124SOL    HW133205   5.477   9.168  10.896
77124SOL    HW233206   5.424   9.081  10.784
77125SOL     OW33207   3.515   5.833   2.637
77125SOL    HW133208   3.592   5.776   2.632
77125SOL    HW233209   3.549   5.916   2.670
77126SOL     OW33210   8.656   0.279   8.777
77126SOL    HW133211   8.580   0.332   8.752
77126SOL    HW233212   8.637   0.192   8.741
77127SOL     OW33213   1.235   5.415   7.912
77127SOL    HW133214   1.266   5.353   7.847
77127SOL    HW233215   1.153   5.450   7.876
77128SOL     OW33216  11.899  10.483  14.444
77128SOL    HW133217  11.887  10.420  14.515
77128SOL    HW233218  11.929  10.430  14.370
77129SOL     OW33219   4.707   1.626  13.325
77129SOL    HW133220   4.782   1.625  13.266
77129SOL    HW233221   4.737   1.677  13.401
77130SOL     OW33222   3.293  14.810  13.359
77130SOL    HW133223   3.246  14.727  13.351
77130SOL    HW233224   3.238  14.864  13.416
77131SOL     OW33225   8.512  14.193   9.677
77131SOL    HW133226   8.555  14.274   9.650
77131SOL    HW233227   8.582  14.138   9.713
77132SOL     OW33228   8.348   7.633   9.734
77132SOL    HW133229   8.262   7.614   9.696
77132SOL    HW233230   8.330   7.691   9.808
77133SOL     OW33231   8.547  11.851   6.379
77133SOL    HW133232   8.529  11.802   6.299
77133SOL    HW233233   8.461  11.880   6.410
77134SOL     OW33234   3.427   1.240   5.050
77134SOL    HW133235   3.429   1.149   5.079
77134SOL    HW233236   3.512   1.254   5.008
77135SOL     OW33237   0.125   6.421   6.840
77135SOL    HW133238   0.074   6.361   6.895
77135SOL    HW233239   0.069   6.439   6.765
77136SOL     OW33240   9.727   8.263   0.220
77136SOL    HW133241   9.686   8.343   0.188
77136SOL    HW233242   9.788   8.293   0.287
77137SOL     OW33243   9.448  13.084   7.036
77137SOL    HW133244   9.476  12.996   7.012
77137SOL    HW233245   9.485  13.099   7.123
77138SOL     OW33246  11.337   0.751  10.870
77138SOL    HW133247  11.257   0.787  10.908
77138SOL    HW233248  11.372   0.693  10.938
77139SOL     OW33249   3.497   3.098   6.205
77139SOL    HW133250   3.583   3.069   6.175
77139SOL    HW233251   3.503   3.097   6.300
77140SOL     OW33252  13.526  13.112   2.998
77140SOL    HW133253  13.550  13.097   2.907
77140SOL    HW233254  13.436  13.080   3.004
77141SOL     OW33255   8.693   6.496   3.953
77141SOL    HW133256   8.607   6.455   3.967
77141SOL    HW233257   8.699   6.561   4.023
77142SOL     OW33258   2.301   5.178  14.557
77142SOL    HW133259   2.209   5.163  14.534
77142SOL    HW233260   2.313   5.272  14.547
77143SOL     OW33261   2.388   0.975  10.796
77143SOL    HW133262   2.394   1.070  10.807
77143SOL    HW233263   2.421   0.939  10.878
77144SOL     OW33264   9.027   5.562  14.000
77144SOL    HW133265   9.042   5.655  13.984
77144SOL    HW233266   9.010   5.556  14.094
77145SOL     OW33267   8.233   0.971   0.593
77145SOL    HW133268   8.326   0.992   0.603
77145SOL    HW233269   8.231   0.904   0.525
77146SOL     OW33270   1.679  14.665   3.585
77146SOL    HW133271   1.741  14.732   3.613
77146SOL    HW233272   1.699  14.651   3.493
77147SOL     OW33273   4.035   3.772   7.697
77147SOL    HW133274   4.093   3.737   7.764
77147SOL    HW233275   3.951   3.785   7.742
77148SOL     OW33276   0.492  11.901  11.783
77148SOL    HW133277   0.403  11.867  11.787
77148SOL    HW233278   0.523  11.879  11.695
77149SOL     OW33279   0.224   5.303   3.107
77149SOL    HW133280   0.223   5.318   3.012
77149SOL    HW233281   0.316   5.317   3.132
77150SOL     OW33282   9.617   5.450   1.213
77150SOL    HW133283   9.574   5.443   1.298
77150SOL    HW233284   9.546   5.461   1.151
77151SOL     OW33285   0.805   3.152  10.240
77151SOL    HW133286   0.741   3.101  10.191
77151SOL    HW233287   0.878   3.092  10.257
77152SOL     OW33288  14.538  11.991   4.064
77152SOL    HW133289  14.573  12.009   3.977
77152SOL    HW233290  14.590  12.045   4.124
77153SOL     OW33291  11.174  12.853   9.817
77153SOL    HW133292  11.135  12.816   9.737
77153SOL    HW233293  11.207  12.939   9.790
77154SOL     OW33294   0.211  12.343   8.833
77154SOL    HW133295   0.201  12.257   8.792
77154SOL    HW233296   0.279  12.330   8.899
77155SOL     OW33297   8.164   2.372   5.432
77155SOL    HW133298   8.217   2.293   5.423
77155SOL    HW233299   8.080   2.349   5.392
77156SOL     OW33300   6.420   0.503   4.161
77156SOL    HW133301   6.456   0.579   4.115
77156SOL    HW233302   6.477   0.492   4.238
77157SOL     OW33303  12.903   6.182   6.681
77157SOL    HW133304  12.832   6.121   6.662
77157SOL    HW233305  12.890   6.253   6.619
77158SOL     OW33306   4.320   1.787   4.381
77158SOL    HW133307   4.292   1.696   4.389
77158SOL    HW233308   4.378   1.788   4.305
77159SOL     OW33309   1.515  10.121   2.603
77159SOL    HW133310   1.434  10.092   2.646
77159SOL    HW233311   1.519  10.215   2.620
77160SOL     OW33312   3.522  12.246   2.619
77160SOL    HW133313   3.545  12.156   2.596
77160SOL    HW233314   3.512  12.292   2.536
77161SOL     OW33315  14.594  13.253  13.054
77161SOL    HW133316  14.638  13.299  13.125
77161SOL    HW233317  14.664  13.205  13.009
77162SOL     OW33318  10.098   1.210   7.734
77162SOL    HW133319  10.109   1.177   7.645
77162SOL    HW233320  10.006   1.237   7.739
77163SOL     OW33321  11.958   5.572   4.861
77163SOL    HW133322  11.877   5.622   4.847
77163SOL    HW233323  12.028   5.635   4.842
77164SOL     OW33324   7.645   7.865   7.435
77164SOL    HW133325   7.736   7.862   7.465
77164SOL    HW233326   7.650   7.839   7.343
77165SOL     OW33327  10.010   5.803  10.426
77165SOL    HW133328  10.040   5.825  10.514
77165SOL    HW233329   9.928   5.852  10.415
77166SOL     OW33330   1.301  12.307   6.918
77166SOL    HW133331   1.252  12.278   6.995
77166SOL    HW233332   1.235  12.312   6.849
77167SOL     OW33333  10.489   7.854  11.665
77167SOL    HW133334  10.441   7.902  11.598
77167SOL    HW233335  10.568   7.906  11.680
77168SOL     OW33336   9.469  14.041  10.231
77168SOL    HW133337   9.422  13.961  10.208
77168SOL    HW233338   9.404  14.094  10.278
77169SOL     OW33339   7.747   9.144  12.105
77169SOL    HW133340   7.730   9.064  12.156
77169SOL    HW233341   7.698   9.212  12.151
77170SOL     OW33342   4.446   3.453   3.830
77170SOL    HW133343   4.402   3.425   3.750
77170SOL    HW233344   4.469   3.545   3.813
77171SOL     OW33345   9.639  13.969   6.188
77171SOL    HW133346   9.582  14.021   6.246
77171SOL    HW233347   9.675  14.033   6.127
77172SOL     OW33348   9.665  13.572   7.551
77172SOL    HW133349   9.663  13.668   7.559
77172SOL    HW233350   9.585  13.542   7.594
77173SOL     OW33351  11.447   0.246   4.415
77173SOL    HW133352  11.361   0.217   4.383
77173SOL    HW233353  11.471   0.181   4.481
77174SOL     OW33354   4.122   7.771   5.149
77174SOL    HW133355   4.137   7.859   5.184
77174SOL    HW233356   4.027   7.762   5.144
77175SOL     OW33357   5.217  12.511  13.888
77175SOL    HW133358   5.213  12.560  13.970
77175SOL    HW233359   5.164  12.433  13.904
77176SOL     OW33360   0.705   0.681   3.319
77176SOL    HW133361   0.735   0.686   3.229
77176SOL    HW233362   0.758   0.746   3.366
77177SOL     OW33363   6.115  11.653   8.401
77177SOL    HW133364   6.132  11.657   8.307
77177SOL    HW233365   6.053  11.581   8.411
77178SOL     OW33366   8.893  11.575   0.369
77178SOL    HW133367   8.861  11.615   0.288
77178SOL    HW233368   8.983  11.606   0.376
77179SOL     OW33369   2.370  12.812   2.315
77179SOL    HW133370   2.392  12.719   2.310
77179SOL    HW233371   2.305  12.817   2.385
77180SOL     OW33372  13.610  14.755   8.853
77180SOL    HW133373  13.573  14.822   8.911
77180SOL    HW233374  13.704  14.764   8.864
77181SOL     OW33375   5.341   2.698  10.438
77181SOL    HW133376   5.283   2.680  10.512
77181SOL    HW233377   5.305   2.646  10.366
77182SOL     OW33378   0.486   5.041   4.537
77182SOL    HW133379   0.391   5.047   4.541
77182SOL    HW233380   0.512   5.005   4.622
77183SOL     OW33381   5.816   0.781   7.811
77183SOL    HW133382   5.810   0.869   7.775
77183SOL    HW233383   5.888   0.786   7.875
77184SOL     OW33384  10.258  12.037   5.894
77184SOL    HW133385  10.216  12.052   5.978
77184SOL    HW233386  10.350  12.024   5.915
77185SOL     OW33387  14.325  10.643  14.350
77185SOL    HW133388  14.302  10.723  14.399
77185SOL    HW233389  14.385  10.673  14.282
77186SOL     OW33390   6.527   5.530   2.504
77186SOL    HW133391   6.567   5.501   2.586
77186SOL    HW233392   6.508   5.449   2.456
77187SOL     OW33393   8.827  11.779   8.846
77187SOL    HW133394   8.838  11.684   8.836
77187SOL    HW233395   8.904  11.817   8.805
77188SOL     OW33396   3.198   4.805   0.537
77188SOL    HW133397   3.195   4.757   0.454
77188SOL    HW233398   3.117   4.782   0.582
77189SOL     OW33399   1.354   1.977   3.564
77189SOL    HW133400   1.417   2.021   3.621
77189SOL    HW233401   1.305   2.048   3.522
77190SOL     OW33402  13.719   4.703  10.351
77190SOL    HW133403  13.693   4.784  10.394
77190SOL    HW233404  13.812   4.713  10.333
77191SOL     OW33405   9.365  11.345   0.706
77191SOL    HW133406   9.430  11.339   0.636
77191SOL    HW233407   9.409  11.394   0.775
77192SOL     OW33408  11.461  13.316   5.948
77192SOL    HW133409  11.475  13.270   5.864
77192SOL    HW233410  11.550  13.336   5.978
77193SOL     OW33411  11.620  11.562   6.331
77193SOL    HW133412  11.567  11.488   6.359
77193SOL    HW233413  11.593  11.634   6.388
77194SOL     OW33414   8.893  12.806   0.018
77194SOL    HW133415   8.863  12.733   0.071
77194SOL    HW233416   8.813  12.851  14.864
77195SOL     OW33417   2.137   8.510  14.827
77195SOL    HW133418   2.206   8.491  14.763
77195SOL    HW233419   2.150   8.603  14.849
77196SOL     OW33420  13.502   9.428   5.718
77196SOL    HW133421  13.568   9.361   5.735
77196SOL    HW233422  13.537   9.507   5.760
77197SOL     OW33423   7.141   5.073   0.701
77197SOL    HW133424   7.047   5.085   0.694
77197SOL    HW233425   7.170   5.142   0.761
77198SOL     OW33426  12.475   2.941   8.152
77198SOL    HW133427  12.548   2.888   8.120
77198SOL    HW233428  12.516   3.013   8.199
77199SOL     OW33429   0.029  10.272   1.415
77199SOL    HW133430   0.068  10.251   1.500
77199SOL    HW233431   0.091  10.331   1.373
77200SOL     OW33432   6.348   8.209   4.296
77200SOL    HW133433   6.292   8.140   4.330
77200SOL    HW233434   6.437   8.181   4.317
77201SOL     OW33435   2.076   5.250   7.474
77201SOL    HW133436   2.002   5.224   7.529
77201SOL    HW233437   2.120   5.168   7.452
77202SOL     OW33438  11.731   5.935  11.923
77202SOL    HW133439  11.682   5.997  11.976
77202SOL    HW233440  11.796   5.988  11.876
77203SOL     OW33441  11.055   5.618  12.535
77203SOL    HW133442  11.081   5.563  12.608
77203SOL    HW233443  11.106   5.698  12.545
77204SOL     OW33444   8.086  11.148   3.702
77204SOL    HW133445   8.159  11.164   3.761
77204SOL    HW233446   8.122  11.089   3.635
77205SOL     OW33447   4.503  12.312  10.105
77205SOL    HW133448   4.510  12.233  10.159
77205SOL    HW233449   4.465  12.377  10.164
77206SOL     OW33450  13.737   2.625   4.677
77206SOL    HW133451  13.661   2.657   4.726
77206SOL    HW233452  13.731   2.530   4.682
77207SOL     OW33453  10.509   6.550   9.374
77207SOL    HW133454  10.474   6.583   9.291
77207SOL    HW233455  10.523   6.456   9.358
77208SOL     OW33456  14.679   9.381  11.227
77208SOL    HW133457  14.667   9.334  11.144
77208SOL    HW233458  14.703   9.469  11.201
77209SOL     OW33459   6.641  11.507   9.316
77209SOL    HW133460   6.714  11.558   9.280
77209SOL    HW233461   6.647  11.423   9.271
77210SOL     OW33462   9.940   8.701   9.336
77210SOL    HW133463   9.922   8.754   9.413
77210SOL    HW233464   9.876   8.630   9.341
77211SOL     OW33465  13.796   4.322   0.766
77211SOL    HW133466  13.825   4.266   0.838
77211SOL    HW233467  13.867   4.320   0.703
77212SOL     OW33468   5.909   9.136  12.932
77212SOL    HW133469   5.880   9.064  12.987
77212SOL    HW233470   5.855   9.211  12.959
77213SOL     OW33471   4.907   1.999  14.694
77213SOL    HW133472   4.815   1.996  14.667
77213SOL    HW233473   4.913   2.077  14.749
77214SOL     OW33474   2.847   5.462   7.903
77214SOL    HW133475   2.822   5.494   7.816
77214SOL    HW233476   2.940   5.483   7.911
77215SOL     OW33477  11.299   6.764  13.578
77215SOL    HW133478  11.383   6.796  13.611
77215SOL    HW233479  11.266   6.836  13.523
77216SOL     OW33480   3.995   2.118   1.569
77216SOL    HW133481   4.075   2.153   1.531
77216SOL    HW233482   3.925   2.174   1.535
77217SOL     OW33483   8.629   9.037  14.603
77217SOL    HW133484   8.667   9.125  14.594
77217SOL    HW233485   8.570   9.028  14.528
77218SOL     OW33486  11.518   2.409   7.962
77218SOL    HW133487  11.431   2.377   7.938
77218SOL    HW233488  11.541   2.471   7.892
77219SOL     OW33489   6.885   0.540   4.813
77219SOL    HW133490   6.878   0.616   4.870
77219SOL    HW233491   6.817   0.480   4.844
77220SOL     OW33492   4.995   2.360  11.243
77220SOL    HW133493   5.007   2.441  11.291
77220SOL    HW233494   5.069   2.305  11.270
77221SOL     OW33495   9.159   6.848   1.551
77221SOL    HW133496   9.136   6.928   1.505
77221SOL    HW233497   9.177   6.876   1.640
77222SOL     OW33498   5.631   9.434   5.682
77222SOL    HW133499   5.555   9.382   5.710
77222SOL    HW233500   5.707   9.384   5.715
77223SOL     OW33501   8.694   4.794   4.804
77223SOL    HW133502   8.712   4.878   4.762
77223SOL    HW233503   8.780   4.753   4.814
77224SOL     OW33504   0.321   3.404   2.733
77224SOL    HW133505   0.326   3.345   2.658
77224SOL    HW233506   0.229   3.430   2.738
77225SOL     OW33507  12.580   2.152  10.879
77225SOL    HW133508  12.490   2.183  10.862
77225SOL    HW233509  12.633   2.232  10.879
77226SOL     OW33510   0.046   3.782  13.809
77226SOL    HW133511   0.080   3.827  13.731
77226SOL    HW233512   0.121   3.731  13.841
77227SOL     OW33513   3.580   2.635   1.952
77227SOL    HW133514   3.549   2.704   2.010
77227SOL    HW233515   3.663   2.606   1.991
77228SOL     OW33516   5.304   6.193  11.310
77228SOL    HW133517   5.355   6.274  11.318
77228SOL    HW233518   5.317   6.165  11.220
77229SOL     OW33519   2.993   1.702   8.558
77229SOL    HW133520   2.969   1.753   8.480
77229SOL    HW233521   3.075   1.660   8.533
77230SOL     OW33522   1.229   6.668  12.360
77230SOL    HW133523   1.199   6.579  12.381
77230SOL    HW233524   1.296   6.687  12.425
77231SOL     OW33525   1.643   1.182  14.736
77231SOL    HW133526   1.599   1.171  14.821
77231SOL    HW233527   1.704   1.108  14.732
77232SOL     OW33528   1.631  13.745   6.004
77232SOL    HW133529   1.685  13.823   5.988
77232SOL    HW233530   1.551  13.779   6.044
77233SOL     OW33531  13.093  12.160   5.354
77233SOL    HW133532  13.049  12.094   5.407
77233SOL    HW233533  13.186  12.142   5.366
77234SOL     OW33534  12.623  13.469   9.393
77234SOL    HW133535  12.604  13.519   9.313
77234SOL    HW233536  12.655  13.534   9.455
77235SOL     OW33537   8.101  10.589  13.386
77235SOL    HW133538   8.193  10.607  13.365
77235SOL    HW233539   8.065  10.553  13.305
77236SOL     OW33540   4.115  14.142   8.943
77236SOL    HW133541   4.179  14.209   8.919
77236SOL    HW233542   4.144  14.111   9.028
77237SOL     OW33543   2.147   1.388   2.388
77237SOL    HW133544   2.220   1.430   2.343
77237SOL    HW233545   2.126   1.447   2.460
77238SOL     OW33546   2.662  10.439  10.144
77238SOL    HW133547   2.618  10.496  10.207
77238SOL    HW233548   2.747  10.419  10.183
77239SOL     OW33549  11.179   0.654   0.667
77239SOL    HW133550  11.097   0.613   0.696
77239SOL    HW233551  11.226   0.585   0.621
77240SOL     OW33552   5.271   1.908  13.243
77240SOL    HW133553   5.311   1.844  13.301
77240SOL    HW233554   5.340   1.929  13.179
77241SOL     OW33555   8.806   1.785   4.426
77241SOL    HW133556   8.744   1.815   4.492
77241SOL    HW233557   8.840   1.865   4.386
77242SOL     OW33558  14.220   7.859  13.605
77242SOL    HW133559  14.191   7.843  13.694
77242SOL    HW233560  14.229   7.954  13.599
77243SOL     OW33561   4.041  10.074   0.581
77243SOL    HW133562   4.038   9.980   0.562
77243SOL    HW233563   4.114  10.084   0.642
77244SOL     OW33564   3.046   0.108  12.652
77244SOL    HW133565   3.109   0.088  12.720
77244SOL    HW233566   3.075   0.058  12.576
77245SOL     OW33567  12.846   3.788   6.154
77245SOL    HW133568  12.941   3.783   6.144
77245SOL    HW233569  12.814   3.704   6.120
77246SOL     OW33570  11.900  14.304  11.244
77246SOL    HW133571  11.821  14.254  11.266
77246SOL    HW233572  11.895  14.317  11.149
77247SOL     OW33573  13.948   5.130   3.438
77247SOL    HW133574  13.860   5.133   3.476
77247SOL    HW233575  13.934   5.113   3.345
77248SOL     OW33576  13.908   4.390   5.260
77248SOL    HW133577  13.974   4.445   5.216
77248SOL    HW233578  13.927   4.401   5.353
77249SOL     OW33579  10.317   8.995   1.405
77249SOL    HW133580  10.392   8.991   1.345
77249SOL    HW233581  10.344   8.941   1.480
77250SOL     OW33582   7.967  10.334  13.594
77250SOL    HW133583   8.058  10.315  13.614
77250SOL    HW233584   7.964  10.340  13.498
77251SOL     OW33585  10.726  14.703  14.041
77251SOL    HW133586  10.749  14.611  14.030
77251SOL    HW233587  10.676  14.706  14.122
77252SOL     OW33588   4.076   0.040  10.013
77252SOL    HW133589   4.150   0.094   9.984
77252SOL    HW233590   4.076   0.049  10.108
77253SOL     OW33591  10.757   6.738  11.198
77253SOL    HW133592  10.664   6.734  11.217
77253SOL    HW233593  10.789   6.649  11.216
77254SOL     OW33594  14.013   8.253  14.361
77254SOL    HW133595  13.965   8.183  14.316
77254SOL    HW233596  14.038   8.313  14.291
77255SOL     OW33597  10.450  12.817  14.106
77255SOL    HW133598  10.427  12.734  14.064
77255SOL    HW233599  10.411  12.884  14.049
77256SOL     OW33600  12.509  11.352  10.852
77256SOL    HW133601  12.600  11.351  10.881
77256SOL    HW233602  12.459  11.324  10.929
77257SOL     OW33603  13.932   0.908  13.268
77257SOL    HW133604  14.026   0.890  13.257
77257SOL    HW233605  13.890   0.848  13.206
77258SOL     OW33606   5.705   6.023  13.116
77258SOL    HW133607   5.799   6.032  13.103
77258SOL    HW233608   5.696   5.979  13.200
77259SOL     OW33609  13.636   3.720  13.058
77259SOL    HW133610  13.707   3.705  13.121
77259SOL    HW233611  13.659   3.665  12.983
77260SOL     OW33612  13.852  12.839   5.146
77260SOL    HW133613  13.862  12.846   5.241
77260SOL    HW233614  13.760  12.858   5.130
77261SOL     OW33615  11.481   3.117   9.693
77261SOL    HW133616  11.435   3.157   9.767
77261SOL    HW233617  11.435   3.150   9.616
77262SOL     OW33618   3.098   6.167   5.494
77262SOL    HW133619   3.148   6.091   5.463
77262SOL    HW233620   3.055   6.137   5.573
77263SOL     OW33621   4.073  10.201  14.069
77263SOL    HW133622   4.152  10.252  14.056
77263SOL    HW233623   4.016  10.257  14.121
77264SOL     OW33624  10.114   2.512  11.349
77264SOL    HW133625  10.050   2.528  11.279
77264SOL    HW233626  10.170   2.442  11.314
77265SOL     OW33627   7.563  14.776  12.054
77265SOL    HW133628   7.486  14.724  12.076
77265SOL    HW233629   7.575  14.763  11.960
77266SOL     OW33630   7.742  10.972   8.927
77266SOL    HW133631   7.785  11.057   8.940
77266SOL    HW233632   7.796  10.910   8.976
77267SOL     OW33633   0.106   2.001  12.466
77267SOL    HW133634   0.105   2.004  12.562
77267SOL    HW233635   0.013   2.002  12.442
77268SOL     OW33636  14.460  14.350  10.441
77268SOL    HW133637  14.433  14.435  10.405
77268SOL    HW233638  14.404  14.338  10.518
77269SOL     OW33639  14.404   7.279  11.053
77269SOL    HW133640  14.342   7.206  11.048
77269SOL    HW233641  14.382   7.334  10.978
77270SOL     OW33642   2.239   1.715   4.184
77270SOL    HW133643   2.262   1.794   4.232
77270SOL    HW233644   2.164   1.679   4.230
77271SOL     OW33645  10.193   8.023   9.656
77271SOL    HW133646  10.285   8.048   9.652
77271SOL    HW233647  10.173   7.989   9.569
77272SOL     OW33648   1.785   0.434   1.715
77272SOL    HW133649   1.769   0.342   1.695
77272SOL    HW233650   1.769   0.480   1.633
77273SOL     OW33651   2.778   5.669  12.679
77273SOL    HW133652   2.755   5.749  12.726
77273SOL    HW233653   2.804   5.607  12.747
77274SOL     OW33654   1.222  10.885   9.453
77274SOL    HW133655   1.271  10.870   9.373
77274SOL    HW233656   1.214  10.981   9.460
77275SOL     OW33657  10.599   1.586  13.036
77275SOL    HW133658  10.517   1.602  13.081
77275SOL    HW233659  10.664   1.578  13.106
77276SOL     OW33660   3.111   2.187   5.383
77276SOL    HW133661   3.104   2.244   5.307
77276SOL    HW233662   3.065   2.107   5.358
77277SOL     OW33663   9.929   4.887  13.703
77277SOL    HW133664   9.839   4.853  13.702
77277SOL    HW233665   9.974   4.833  13.768
77278SOL     OW33666   2.843   1.519   5.857
77278SOL    HW133667   2.816   1.492   5.945
77278SOL    HW233668   2.928   1.560   5.870
77279SOL     OW33669   0.788   1.355  12.636
77279SOL    HW133670   0.825   1.369  12.549
77279SOL    HW233671   0.782   1.259  12.644
77280SOL     OW33672   9.378  14.108   4.621
77280SOL    HW133673   9.359  14.192   4.664
77280SOL    HW233674   9.317  14.106   4.547
77281SOL     OW33675   5.287   5.035   6.342
77281SOL    HW133676   5.297   5.115   6.291
77281SOL    HW233677   5.194   5.034   6.367
77282SOL     OW33678  12.753  12.998   8.518
77282SOL    HW133679  12.731  12.907   8.533
77282SOL    HW233680  12.669  13.044   8.518
77283SOL     OW33681   6.759  14.100   4.082
77283SOL    HW133682   6.833  14.160   4.071
77283SOL    HW233683   6.774  14.056   4.165
77284SOL     OW33684   5.881   8.318  13.938
77284SOL    HW133685   5.934   8.343  13.862
77284SOL    HW233686   5.918   8.234  13.966
77285SOL     OW33687  11.526   6.440   8.997
77285SOL    HW133688  11.605   6.426   8.946
77285SOL    HW233689  11.524   6.534   9.015
77286SOL     OW33690   9.589  13.797   6.898
77286SOL    HW133691   9.510  13.832   6.856
77286SOL    HW233692   9.658  13.859   6.875
77287SOL     OW33693   2.794   5.445   1.890
77287SOL    HW133694   2.802   5.539   1.873
77287SOL    HW233695   2.701   5.431   1.906
77288SOL     OW33696  13.254   9.338   6.034
77288SOL    HW133697  13.264   9.258   5.982
77288SOL    HW233698  13.187   9.388   5.987
77289SOL     OW33699   5.415   2.469  10.774
77289SOL    HW133700   5.480   2.460  10.704
77289SOL    HW233701   5.340   2.418  10.743
77290SOL     OW33702  12.563   4.426  12.389
77290SOL    HW133703  12.607   4.463  12.313
77290SOL    HW233704  12.588   4.333  12.388
77291SOL     OW33705   2.968   2.823  12.891
77291SOL    HW133706   2.995   2.903  12.936
77291SOL    HW233707   3.046   2.794  12.844
77292SOL     OW33708  13.978   0.047   4.447
77292SOL    HW133709  13.966   0.043   4.352
77292SOL    HW233710  13.950  14.835   4.479
77293SOL     OW33711   5.762   2.095   2.349
77293SOL    HW133712   5.752   2.168   2.411
77293SOL    HW233713   5.830   2.124   2.288
77294SOL     OW33714   6.937   7.192  10.647
77294SOL    HW133715   6.864   7.133  10.665
77294SOL    HW233716   6.940   7.198  10.551
77295SOL     OW33717   5.475   1.899   7.369
77295SOL    HW133718   5.399   1.937   7.325
77295SOL    HW233719   5.439   1.863   7.450
77296SOL     OW33720   5.773  11.551   1.430
77296SOL    HW133721   5.729  11.568   1.514
77296SOL    HW233722   5.737  11.468   1.401
77297SOL     OW33723   7.327   8.617   8.013
77297SOL    HW133724   7.378   8.690   8.047
77297SOL    HW233725   7.365   8.539   8.053
77298SOL     OW33726   6.537  10.060   1.698
77298SOL    HW133727   6.487  10.015   1.630
77298SOL    HW233728   6.582  10.131   1.652
77299SOL     OW33729  14.461   4.041   4.124
77299SOL    HW133730  14.452   3.949   4.152
77299SOL    HW233731  14.451   4.091   4.205
77300SOL     OW33732   7.632   8.909   1.386
77300SOL    HW133733   7.599   8.914   1.476
77300SOL    HW233734   7.727   8.918   1.394
77301SOL     OW33735   6.977  10.727  13.859
77301SOL    HW133736   6.924  10.785  13.804
77301SOL    HW233737   6.988  10.648  13.807
77302SOL     OW33738  14.108  14.774   1.496
77302SOL    HW133739  14.161  14.735   1.566
77302SOL    HW233740  14.121  14.717   1.421
77303SOL     OW33741   0.801   3.603  10.982
77303SOL    HW133742   0.865   3.609  10.911
77303SOL    HW233743   0.844   3.550  11.049
77304SOL     OW33744   9.370   0.896   5.264
77304SOL    HW133745   9.307   0.948   5.314
77304SOL    HW233746   9.321   0.818   5.237
77305SOL     OW33747   0.125   2.853   2.630
77305SOL    HW133748   0.176   2.772   2.639
77305SOL    HW233749   0.117   2.866   2.535
77306SOL     OW33750   9.282   7.763   3.964
77306SOL    HW133751   9.350   7.815   4.008
77306SOL    HW233752   9.226   7.733   4.035
77307SOL     OW33753   8.873   6.526  10.465
77307SOL    HW133754   8.854   6.472  10.542
77307SOL    HW233755   8.850   6.469  10.391
77308SOL     OW33756   5.883   5.730   5.064
77308SOL    HW133757   5.881   5.671   4.988
77308SOL    HW233758   5.791   5.750   5.081
77309SOL     OW33759   8.432  12.796  14.203
77309SOL    HW133760   8.503  12.749  14.160
77309SOL    HW233761   8.476  12.861  14.258
77310SOL     OW33762   9.716  14.287   7.303
77310SOL    HW133763   9.644  14.290   7.367
77310SOL    HW233764   9.747  14.378   7.299
77311SOL     OW33765  10.444   3.497   5.682
77311SOL    HW133766  10.392   3.530   5.609
77311SOL    HW233767  10.407   3.540   5.759
77312SOL     OW33768  14.284   6.119   4.239
77312SOL    HW133769  14.330   6.126   4.155
77312SOL    HW233770  14.191   6.129   4.215
77313SOL     OW33771  11.836   6.119  14.306
77313SOL    HW133772  11.805   6.030  14.326
77313SOL    HW233773  11.842   6.120  14.210
77314SOL     OW33774  12.853   6.552  12.092
77314SOL    HW133775  12.892   6.568  12.178
77314SOL    HW233776  12.916   6.496  12.047
77315SOL     OW33777  12.235   0.730  14.726
77315SOL    HW133778  12.219   0.649  14.774
77315SOL    HW233779  12.247   0.796  14.794
77316SOL     OW33780  11.931   0.669  14.730
77316SOL    HW133781  11.900   0.690  14.642
77316SOL    HW233782  11.947   0.754  14.771
77317SOL     OW33783  13.040   2.319   1.719
77317SOL    HW133784  13.039   2.401   1.671
77317SOL    HW233785  13.129   2.285   1.708
77318SOL     OW33786   2.329   1.968  11.848
77318SOL    HW133787   2.380   2.049  11.843
77318SOL    HW233788   2.384   1.902  11.805
77319SOL     OW33789   5.501  10.270   2.928
77319SOL    HW133790   5.506  10.359   2.962
77319SOL    HW233791   5.591  10.246   2.908
77320SOL     OW33792  11.268  13.913  13.043
77320SOL    HW133793  11.213  13.905  12.965
77320SOL    HW233794  11.210  13.952  13.109
77321SOL     OW33795  13.774   5.433  12.263
77321SOL    HW133796  13.684   5.405  12.280
77321SOL    HW233797  13.784   5.514  12.314
77322SOL     OW33798   3.728   2.164   5.249
77322SOL    HW133799   3.662   2.231   5.235
77322SOL    HW233800   3.717   2.103   5.176
77323SOL     OW33801  14.019   0.292   2.303
77323SOL    HW133802  14.047   0.303   2.394
77323SOL    HW233803  14.047   0.373   2.259
77324SOL     OW33804   7.274   5.283   1.359
77324SOL    HW133805   7.184   5.285   1.328
77324SOL    HW233806   7.267   5.264   1.453
77325SOL     OW33807  13.586   9.458   4.316
77325SOL    HW133808  13.592   9.477   4.410
77325SOL    HW233809  13.542   9.374   4.310
77326SOL     OW33810   8.596   9.035   6.527
77326SOL    HW133811   8.612   9.079   6.610
77326SOL    HW233812   8.509   9.066   6.500
77327SOL     OW33813  13.965   5.502  10.735
77327SOL    HW133814  14.040   5.487  10.677
77327SOL    HW233815  13.891   5.461  10.689
77328SOL     OW33816   2.433   8.863  11.269
77328SOL    HW133817   2.438   8.938  11.328
77328SOL    HW233818   2.522   8.851  11.237
77329SOL     OW33819   3.418   0.783   6.288
77329SOL    HW133820   3.360   0.858   6.302
77329SOL    HW233821   3.439   0.786   6.194
77330SOL     OW33822  13.930   8.851  10.239
77330SOL    HW133823  14.024   8.839  10.225
77330SOL    HW233824  13.888   8.797  10.171
77331SOL     OW33825  13.012  13.367   9.265
77331SOL    HW133826  13.100  13.373   9.303
77331SOL    HW233827  13.023  13.397   9.175
77332SOL     OW33828   6.961   4.198   5.203
77332SOL    HW133829   7.022   4.244   5.145
77332SOL    HW233830   7.011   4.123   5.236
77333SOL     OW33831   6.721   0.936  10.420
77333SOL    HW133832   6.735   0.909  10.329
77333SOL    HW233833   6.727   1.032  10.418
77334SOL     OW33834   6.121  12.175   6.712
77334SOL    HW133835   6.090  12.196   6.800
77334SOL    HW233836   6.065  12.226   6.654
77335SOL     OW33837   7.748   5.246   7.009
77335SOL    HW133838   7.752   5.335   7.045
77335SOL    HW233839   7.814   5.245   6.940
77336SOL     OW33840  12.663   2.094  12.641
77336SOL    HW133841  12.664   2.180  12.598
77336SOL    HW233842  12.746   2.055  12.614
77337SOL     OW33843   3.657   7.839   1.470
77337SOL    HW133844   3.572   7.815   1.432
77337SOL    HW233845   3.716   7.843   1.395
77338SOL     OW33846  12.741   4.215   4.922
77338SOL    HW133847  12.783   4.213   4.836
77338SOL    HW233848  12.666   4.274   4.912
77339SOL     OW33849  13.342   0.538  10.303
77339SOL    HW133850  13.398   0.461  10.302
77339SOL    HW233851  13.352   0.576  10.215
77340SOL     OW33852   6.728   5.680   0.165
77340SOL    HW133853   6.786   5.754   0.150
77340SOL    HW233854   6.680   5.669   0.083
77341SOL     OW33855   6.455   4.409  14.480
77341SOL    HW133856   6.536   4.443  14.520
77341SOL    HW233857   6.401   4.382  14.554
77342SOL     OW33858  11.572   3.426  10.991
77342SOL    HW133859  11.635   3.475  10.939
77342SOL    HW233860  11.619   3.347  11.017
77343SOL     OW33861  10.930   7.672   0.842
77343SOL    HW133862  10.976   7.618   0.777
77343SOL    HW233863  10.901   7.610   0.908
77344SOL     OW33864  11.507   2.631   6.697
77344SOL    HW133865  11.467   2.556   6.742
77344SOL    HW233866  11.557   2.592   6.626
77345SOL     OW33867   1.387   7.692  12.436
77345SOL    HW133868   1.365   7.749  12.363
77345SOL    HW233869   1.440   7.746  12.494
77346SOL     OW33870  12.666   7.762   2.481
77346SOL    HW133871  12.718   7.827   2.435
77346SOL    HW233872  12.600   7.735   2.417
77347SOL     OW33873   7.767  14.773   6.519
77347SOL    HW133874   7.830  14.804   6.454
77347SOL    HW233875   7.744  14.685   6.490
77348SOL     OW33876   2.490  12.525  13.074
77348SOL    HW133877   2.480  12.457  13.141
77348SOL    HW233878   2.451  12.604  13.113
77349SOL     OW33879   1.221  13.092  10.649
77349SOL    HW133880   1.208  13.065  10.558
77349SOL    HW233881   1.138  13.135  10.673
77350SOL     OW33882   1.777   9.265   7.573
77350SOL    HW133883   1.820   9.287   7.656
77350SOL    HW233884   1.815   9.180   7.548
77351SOL     OW33885   5.724  11.302   2.194
77351SOL    HW133886   5.782  11.353   2.251
77351SOL    HW233887   5.697  11.364   2.126
77352SOL     OW33888   5.393  10.349   9.753
77352SOL    HW133889   5.479  10.386   9.730
77352SOL    HW233890   5.367  10.299   9.675
77353SOL     OW33891  13.236  11.758   8.508
77353SOL    HW133892  13.160  11.705   8.533
77353SOL    HW233893  13.266  11.719   8.426
77354SOL     OW33894   0.777  14.465   0.750
77354SOL    HW133895   0.797  14.486   0.659
77354SOL    HW233896   0.862  14.462   0.793
77355SOL     OW33897   3.514   1.624   1.681
77355SOL    HW133898   3.566   1.649   1.757
77355SOL    HW233899   3.437   1.581   1.718
77356SOL     OW33900  10.952  13.209   0.291
77356SOL    HW133901  10.944  13.152   0.215
77356SOL    HW233902  10.979  13.293   0.256
77357SOL     OW33903  12.721   3.970   6.706
77357SOL    HW133904  12.759   3.920   6.778
77357SOL    HW233905  12.796   4.001   6.655
77358SOL     OW33906  13.078   2.040  11.451
77358SOL    HW133907  13.157   1.988  11.435
77358SOL    HW233908  13.111   2.123  11.484
77359SOL     OW33909   8.794   9.540   4.562
77359SOL    HW133910   8.750   9.493   4.492
77359SOL    HW233911   8.878   9.494   4.572
77360SOL     OW33912   3.889  14.045   6.708
77360SOL    HW133913   3.842  14.109   6.655
77360SOL    HW233914   3.965  14.022   6.655
77361SOL     OW33915  14.386   1.054   9.678
77361SOL    HW133916  14.305   1.054   9.728
77361SOL    HW233917  14.433   0.976   9.707
77362SOL     OW33918  10.002  10.219  12.111
77362SOL    HW133919  10.071  10.190  12.050
77362SOL    HW233920   9.973  10.303  12.076
77363SOL     OW33921  12.486   0.288  11.986
77363SOL    HW133922  12.510   0.197  12.007
77363SOL    HW233923  12.401   0.301  12.029
77364SOL     OW33924   2.793  12.333  14.154
77364SOL    HW133925   2.879  12.324  14.111
77364SOL    HW233926   2.753  12.409  14.112
77365SOL     OW33927   7.541   0.217   3.258
77365SOL    HW133928   7.544   0.312   3.270
77365SOL    HW233929   7.448   0.196   3.257
77366SOL     OW33930   4.659   8.933   4.156
77366SOL    HW133931   4.645   8.891   4.241
77366SOL    HW233932   4.597   8.890   4.097
77367SOL     OW33933   4.225   6.891  14.587
77367SOL    HW133934   4.192   6.908  14.675
77367SOL    HW233935   4.211   6.798  14.573
77368SOL     OW33936   2.456   2.179   5.319
77368SOL    HW133937   2.516   2.155   5.390
77368SOL    HW233938   2.504   2.156   5.239
77369SOL     OW33939   5.377  12.020   6.151
77369SOL    HW133940   5.385  11.927   6.130
77369SOL    HW233941   5.380  12.065   6.066
77370SOL     OW33942   9.560   6.757   7.443
77370SOL    HW133943   9.654   6.769   7.456
77370SOL    HW233944   9.546   6.664   7.458
77371SOL     OW33945   7.770   0.248   3.626
77371SOL    HW133946   7.844   0.305   3.603
77371SOL    HW233947   7.810   0.174   3.670
77372SOL     OW33948  14.350  12.458  11.895
77372SOL    HW133949  14.259  12.431  11.891
77372SOL    HW233950  14.396  12.384  11.936
77373SOL     OW33951   0.315  10.537   9.021
77373SOL    HW133952   0.261  10.607   8.984
77373SOL    HW233953   0.404  10.572   9.021
77374SOL     OW33954  13.620   0.065   3.901
77374SOL    HW133955  13.607  14.851   3.862
77374SOL    HW233956  13.702   0.097   3.862
77375SOL     OW33957   2.624  14.702  11.845
77375SOL    HW133958   2.573  14.646  11.903
77375SOL    HW233959   2.679  14.642  11.795
77376SOL     OW33960   4.605   6.055   1.432
77376SOL    HW133961   4.573   6.084   1.518
77376SOL    HW233962   4.529   6.063   1.374
77377SOL     OW33963   4.037  11.588  14.369
77377SOL    HW133964   4.018  11.594  14.462
77377SOL    HW233965   4.121  11.542  14.365
77378SOL     OW33966   2.152   7.499  11.723
77378SOL    HW133967   2.092   7.471  11.654
77378SOL    HW233968   2.233   7.452  11.705
77379SOL     OW33969   6.811  12.936  10.580
77379SOL    HW133970   6.891  12.954  10.629
77379SOL    HW233971   6.836  12.871  10.515
77380SOL     OW33972  11.332   7.511  14.316
77380SOL    HW133973  11.287   7.595  14.324
77380SOL    HW233974  11.383   7.519  14.235
77381SOL     OW33975   6.124   9.729  10.847
77381SOL    HW133976   6.127   9.825  10.850
77381SOL    HW233977   6.042   9.709  10.803
77382SOL     OW33978   7.824  12.092   4.497
77382SOL    HW133979   7.886  12.021   4.479
77382SOL    HW233980   7.756  12.051   4.552
77383SOL     OW33981  11.932  11.196   8.788
77383SOL    HW133982  11.972  11.189   8.702
77383SOL    HW233983  12.006  11.192   8.849
77384SOL     OW33984   6.585  14.268   8.936
77384SOL    HW133985   6.673  14.299   8.914
77384SOL    HW233986   6.573  14.293   9.027
77385SOL     OW33987   9.629   7.705  11.622
77385SOL    HW133988   9.712   7.671  11.590
77385SOL    HW233989   9.651   7.748  11.705
77386SOL     OW33990   8.125   8.379  10.903
77386SOL    HW133991   8.159   8.449  10.959
77386SOL    HW233992   8.031   8.396  10.898
77387SOL     OW33993  11.034   3.106   3.648
77387SOL    HW133994  10.988   3.188   3.627
77387SOL    HW233995  11.041   3.060   3.565
77388SOL     OW33996   9.979  11.927   4.296
77388SOL    HW133997  10.012  11.975   4.372
77388SOL    HW233998   9.976  11.836   4.324
77389SOL     OW33999   9.011  14.472   9.228
77389SOL    HW134000   9.015  14.566   9.212
77389SOL    HW234001   9.102  14.446   9.244
77390SOL     OW34002   9.026   8.926   8.130
77390SOL    HW134003   8.957   8.868   8.163
77390SOL    HW234004   8.979   8.997   8.085
77391SOL     OW34005   4.515   3.476  10.017
77391SOL    HW134006   4.579   3.470  10.089
77391SOL    HW234007   4.434   3.441  10.053
77392SOL     OW34008   6.817   3.194  11.461
77392SOL    HW134009   6.728   3.201  11.496
77392SOL    HW234010   6.831   3.277  11.415
77393SOL     OW34011  14.002   1.435  14.050
77393SOL    HW134012  14.086   1.479  14.057
77393SOL    HW234013  13.943   1.487  14.104
77394SOL     OW34014   1.887  12.583   0.095
77394SOL    HW134015   1.867  12.667   0.053
77394SOL    HW234016   1.983  12.581   0.099
77395SOL     OW34017  10.558   5.770  12.482
77395SOL    HW134018  10.646   5.761  12.448
77395SOL    HW234019  10.559   5.852  12.531
77396SOL     OW34020   9.420   9.577  10.036
77396SOL    HW134021   9.354   9.645  10.053
77396SOL    HW234022   9.406   9.552   9.944
77397SOL     OW34023   7.255   6.580   1.042
77397SOL    HW134024   7.339   6.547   1.074
77397SOL    HW234025   7.203   6.593   1.121
77398SOL     OW34026   3.184   1.036   1.351
77398SOL    HW134027   3.165   1.102   1.283
77398SOL    HW234028   3.117   0.969   1.338
77399SOL     OW34029  14.434   0.917   4.912
77399SOL    HW134030  14.482   0.847   4.957
77399SOL    HW234031  14.461   0.909   4.820
77400SOL     OW34032  13.446   7.291  14.542
77400SOL    HW134033  13.442   7.351  14.467
77400SOL    HW234034  13.510   7.332  14.601
77401SOL     OW34035   3.324   4.327   6.616
77401SOL    HW134036   3.265   4.370   6.678
77401SOL    HW234037   3.356   4.251   6.664
77402SOL     OW34038   9.385  14.055   9.506
77402SOL    HW134039   9.440  13.989   9.463
77402SOL    HW234040   9.314  14.004   9.547
77403SOL     OW34041   1.532  14.492  12.250
77403SOL    HW134042   1.605  14.432  12.263
77403SOL    HW234043   1.468  14.441  12.201
77404SOL     OW34044  13.471  11.651   2.781
77404SOL    HW134045  13.556  11.619   2.750
77404SOL    HW234046  13.493  11.727   2.835
77405SOL     OW34047   8.301   3.172  10.944
77405SOL    HW134048   8.330   3.106  11.007
77405SOL    HW234049   8.210   3.149  10.926
77406SOL     OW34050   4.729   3.214   8.238
77406SOL    HW134051   4.795   3.150   8.211
77406SOL    HW234052   4.759   3.246   8.322
77407SOL     OW34053   2.213  10.432   7.910
77407SOL    HW134054   2.158  10.432   7.832
77407SOL    HW234055   2.166  10.487   7.973
77408SOL     OW34056  13.184  12.683   4.711
77408SOL    HW134057  13.120  12.748   4.682
77408SOL    HW234058  13.215  12.715   4.795
77409SOL     OW34059   5.022   9.636   5.106
77409SOL    HW134060   4.990   9.668   5.190
77409SOL    HW234061   4.981   9.550   5.096
77410SOL     OW34062   1.894   0.576  13.350
77410SOL    HW134063   1.877   0.514  13.280
77410SOL    HW234064   1.927   0.523  13.423
77411SOL     OW34065   3.758  13.674  11.509
77411SOL    HW134066   3.712  13.605  11.462
77411SOL    HW234067   3.821  13.628  11.564
77412SOL     OW34068   0.884  13.220   4.796
77412SOL    HW134069   0.928  13.211   4.712
77412SOL    HW234070   0.792  13.233   4.775
77413SOL     OW34071  10.000   4.632  13.552
77413SOL    HW134072  10.036   4.667  13.634
77413SOL    HW234073  10.044   4.681  13.483
77414SOL     OW34074   0.737   1.464  14.439
77414SOL    HW134075   0.804   1.478  14.372
77414SOL    HW234076   0.665   1.421  14.392
77415SOL     OW34077  12.920  10.358   3.480
77415SOL    HW134078  12.865  10.291   3.521
77415SOL    HW234079  12.986  10.378   3.547
77416SOL     OW34080   8.009  12.998   8.349
77416SOL    HW134081   7.945  12.975   8.282
77416SOL    HW234082   8.091  12.958   8.319
77417SOL     OW34083   2.229   0.121   0.357
77417SOL    HW134084   2.237   0.137   0.451
77417SOL    HW234085   2.244   0.207   0.317
77418SOL     OW34086  13.474   4.272  10.185
77418SOL    HW134087  13.555   4.229  10.158
77418SOL    HW234088  13.481   4.279  10.280
77419SOL     OW34089   7.804  14.836   4.715
77419SOL    HW134090   7.890  14.859   4.678
77419SOL    HW234091   7.811  14.856   4.808
77420SOL     OW34092   6.136   6.598   1.472
77420SOL    HW134093   6.182   6.675   1.505
77420SOL    HW234094   6.202   6.529   1.472
77421SOL     OW34095   7.289   2.862  14.399
77421SOL    HW134096   7.375   2.832  14.370
77421SOL    HW234097   7.239   2.873  14.318
77422SOL     OW34098  11.802   6.010   9.943
77422SOL    HW134099  11.869   6.074   9.923
77422SOL    HW234100  11.766   5.984   9.858
77423SOL     OW34101  13.122   8.277   7.052
77423SOL    HW134102  13.103   8.333   7.128
77423SOL    HW234103  13.199   8.227   7.079
77424SOL     OW34104  13.546   3.932   7.202
77424SOL    HW134105  13.627   3.982   7.215
77424SOL    HW234106  13.571   3.858   7.148
77425SOL     OW34107  10.574   0.920   3.721
77425SOL    HW134108  10.574   1.007   3.760
77425SOL    HW234109  10.501   0.922   3.659
77426SOL     OW34110   6.364  14.746  14.011
77426SOL    HW134111   6.271  14.769  14.010
77426SOL    HW234112   6.389  14.743  13.918
77427SOL     OW34113  14.060   3.858  11.090
77427SOL    HW134114  14.003   3.781  11.097
77427SOL    HW234115  14.066   3.876  10.997
77428SOL     OW34116   6.680   2.103  13.769
77428SOL    HW134117   6.600   2.134  13.727
77428SOL    HW234118   6.653   2.025  13.817
77429SOL     OW34119   3.511  10.347   6.228
77429SOL    HW134120   3.570  10.398   6.172
77429SOL    HW234121   3.528  10.256   6.202
77430SOL     OW34122   1.677  11.058   0.888
77430SOL    HW134123   1.665  11.153   0.880
77430SOL    HW234124   1.605  11.030   0.943
77431SOL     OW34125   7.557   4.397   3.737
77431SOL    HW134126   7.606   4.456   3.680
77431SOL    HW234127   7.550   4.315   3.688
77432SOL     OW34128   1.802  13.845   4.149
77432SOL    HW134129   1.833  13.849   4.058
77432SOL    HW234130   1.879  13.818   4.199
77433SOL     OW34131  13.979  13.616   9.051
77433SOL    HW134132  14.067  13.623   9.087
77433SOL    HW234133  13.927  13.576   9.120
77434SOL     OW34134   2.593   2.655  11.156
77434SOL    HW134135   2.512   2.634  11.111
77434SOL    HW234136   2.595   2.751  11.158
77435SOL     OW34137   6.095  10.775   6.680
77435SOL    HW134138   6.137  10.857   6.655
77435SOL    HW234139   6.010  10.777   6.636
77436SOL     OW34140   5.424   7.367  10.149
77436SOL    HW134141   5.503   7.405  10.110
77436SOL    HW234142   5.359   7.436  10.143
77437SOL     OW34143  13.113  10.498   1.879
77437SOL    HW134144  13.052  10.555   1.926
77437SOL    HW234145  13.073  10.488   1.792
77438SOL     OW34146   4.814  13.063   2.579
77438SOL    HW134147   4.895  13.061   2.631
77438SOL    HW234148   4.772  12.979   2.597
77439SOL     OW34149   3.572   1.258   3.653
77439SOL    HW134150   3.606   1.208   3.579
77439SOL    HW234151   3.490   1.295   3.622
77440SOL     OW34152   6.549   6.800  14.786
77440SOL    HW134153   6.601   6.801  14.866
77440SOL    HW234154   6.507   6.886  14.783
77441SOL     OW34155   3.057   6.934   6.345
77441SOL    HW134156   2.985   6.951   6.284
77441SOL    HW234157   3.062   7.014   6.397
77442SOL     OW34158   0.034  11.355   6.443
77442SOL    HW134159  14.842  11.399   6.497
77442SOL    HW234160   0.116  11.362   6.493
77443SOL     OW34161   8.768   5.371  10.530
77443SOL    HW134162   8.807   5.331  10.453
77443SOL    HW234163   8.736   5.297  10.582
77444SOL     OW34164   7.996   9.814  10.519
77444SOL    HW134165   7.923   9.753  10.511
77444SOL    HW234166   7.963   9.882  10.579
77445SOL     OW34167   4.538  12.694   7.949
77445SOL    HW134168   4.558  12.751   8.024
77445SOL    HW234169   4.525  12.608   7.988
77446SOL     OW34170  13.376  10.988   1.563
77446SOL    HW134171  13.305  10.969   1.625
77446SOL    HW234172  13.452  10.941   1.598
77447SOL     OW34173  11.713   5.746   7.207
77447SOL    HW134174  11.701   5.754   7.112
77447SOL    HW234175  11.807   5.738   7.218
77448SOL     OW34176   1.818   6.076  10.143
77448SOL    HW134177   1.803   6.169  10.126
77448SOL    HW234178   1.772   6.058  10.225
77449SOL     OW34179  11.025   6.175   2.892
77449SOL    HW134180  11.093   6.184   2.826
77449SOL    HW234181  11.041   6.246   2.954
77450SOL     OW34182   5.911   3.851  10.930
77450SOL    HW134183   5.831   3.893  10.964
77450SOL    HW234184   5.981   3.912  10.951
77451SOL     OW34185   0.645  10.400   8.784
77451SOL    HW134186   0.600  10.436   8.860
77451SOL    HW234187   0.737  10.423   8.798
77452SOL     OW34188  13.353   8.356   5.752
77452SOL    HW134189  13.440   8.327   5.724
77452SOL    HW234190  13.303   8.365   5.671
77453SOL     OW34191   6.629  12.563  14.738
77453SOL    HW134192   6.711  12.607  14.761
77453SOL    HW234193   6.649  12.517  14.656
77454SOL     OW34194  14.105   1.190   3.080
77454SOL    HW134195  14.030   1.246   3.062
77454SOL    HW234196  14.147   1.229   3.158
77455SOL     OW34197   2.396   8.277  10.520
77455SOL    HW134198   2.370   8.186  10.534
77455SOL    HW234199   2.417   8.310  10.607
77456SOL     OW34200  11.449  13.021   7.910
77456SOL    HW134201  11.451  13.059   7.822
77456SOL    HW234202  11.537  12.987   7.923
77457SOL     OW34203   1.731  13.449  12.477
77457SOL    HW134204   1.803  13.407  12.523
77457SOL    HW234205   1.739  13.542  12.500
77458SOL     OW34206   2.956  13.759  10.878
77458SOL    HW134207   2.872  13.780  10.839
77458SOL    HW234208   2.947  13.670  10.911
77459SOL     OW34209   0.966   9.235   1.294
77459SOL    HW134210   0.899   9.224   1.361
77459SOL    HW234211   0.928   9.195   1.215
77460SOL     OW34212   8.215   8.465  14.355
77460SOL    HW134213   8.164   8.397  14.398
77460SOL    HW234214   8.168   8.546  14.374
77461SOL     OW34215   4.555   1.523   0.601
77461SOL    HW134216   4.492   1.542   0.531
77461SOL    HW234217   4.537   1.432   0.625
77462SOL     OW34218   0.624  14.144  13.918
77462SOL    HW134219   0.543  14.193  13.932
77462SOL    HW234220   0.597  14.052  13.918
77463SOL     OW34221  14.646  14.754   9.137
77463SOL    HW134222  14.585  14.819   9.170
77463SOL    HW234223  14.733  14.794   9.150
77464SOL     OW34224  13.016   2.521   3.335
77464SOL    HW134225  13.077   2.447   3.332
77464SOL    HW234226  13.015   2.555   3.245
77465SOL     OW34227   3.881  10.147  11.017
77465SOL    HW134228   3.917  10.074  11.067
77465SOL    HW234229   3.848  10.108  10.936
77466SOL     OW34230   1.341   8.293   2.179
77466SOL    HW134231   1.327   8.199   2.169
77466SOL    HW234232   1.320   8.330   2.093
77467SOL     OW34233   9.420   9.528   6.907
77467SOL    HW134234   9.340   9.529   6.854
77467SOL    HW234235   9.484   9.481   6.855
77468SOL     OW34236  14.162  13.247   5.629
77468SOL    HW134237  14.110  13.271   5.552
77468SOL    HW234238  14.104  13.263   5.703
77469SOL     OW34239  11.586   6.228  12.286
77469SOL    HW134240  11.561   6.315  12.254
77469SOL    HW234241  11.585   6.237  12.381
77470SOL     OW34242   3.539  10.323  12.055
77470SOL    HW134243   3.614  10.290  12.006
77470SOL    HW234244   3.497  10.245  12.091
77471SOL     OW34245   7.852   5.598   9.112
77471SOL    HW134246   7.834   5.608   9.205
77471SOL    HW234247   7.808   5.517   9.087
77472SOL     OW34248   8.240   9.010   1.693
77472SOL    HW134249   8.148   9.029   1.710
77472SOL    HW234250   8.277   9.094   1.667
77473SOL     OW34251   5.253  12.029  12.069
77473SOL    HW134252   5.295  12.034  11.984
77473SOL    HW234253   5.318  11.988  12.126
77474SOL     OW34254   7.214  12.392   8.649
77474SOL    HW134255   7.219  12.484   8.623
77474SOL    HW234256   7.126  12.365   8.622
77475SOL     OW34257   7.656  13.694   7.378
77475SOL    HW134258   7.741  13.719   7.413
77475SOL    HW234259   7.642  13.604   7.409
77476SOL     OW34260  13.967   7.026   9.110
77476SOL    HW134261  13.884   6.984   9.134
77476SOL    HW234262  14.028   6.999   9.179
77477SOL     OW34263   9.660   1.673   7.945
77477SOL    HW134264   9.633   1.725   8.021
77477SOL    HW234265   9.694   1.592   7.982
77478SOL     OW34266  10.104  12.611   1.592
77478SOL    HW134267  10.195  12.584   1.580
77478SOL    HW234268  10.058  12.532   1.620
77479SOL     OW34269   3.013  11.827   3.117
77479SOL    HW134270   3.101  11.795   3.137
77479SOL    HW234271   2.971  11.835   3.203
77480SOL     OW34272   1.375   1.688  13.676
77480SOL    HW134273   1.442   1.755  13.668
77480SOL    HW234274   1.336   1.702  13.762
77481SOL     OW34275   0.227   7.682   3.988
77481SOL    HW134276   0.314   7.681   3.947
77481SOL    HW234277   0.177   7.617   3.938
77482SOL     OW34278   0.964   8.010   9.724
77482SOL    HW134279   0.973   7.965   9.809
77482SOL    HW234280   1.007   7.951   9.662
77483SOL     OW34281   6.381   4.132   9.466
77483SOL    HW134282   6.389   4.133   9.561
77483SOL    HW234283   6.295   4.171   9.449
77484SOL     OW34284   8.711  11.337  13.709
77484SOL    HW134285   8.627  11.319  13.667
77484SOL    HW234286   8.719  11.432  13.708
77485SOL     OW34287   2.306  10.511   5.950
77485SOL    HW134288   2.351  10.574   5.895
77485SOL    HW234289   2.354  10.512   6.033
77486SOL     OW34290   1.953  12.610   3.106
77486SOL    HW134291   1.872  12.621   3.155
77486SOL    HW234292   2.022  12.633   3.167
77487SOL     OW34293   4.242   9.180   2.852
77487SOL    HW134294   4.275   9.251   2.796
77487SOL    HW234295   4.276   9.201   2.939
77488SOL     OW34296  10.491   1.605  11.028
77488SOL    HW134297  10.584   1.604  11.052
77488SOL    HW234298  10.467   1.513  11.021
77489SOL     OW34299   0.589   7.335  13.609
77489SOL    HW134300   0.678   7.304  13.628
77489SOL    HW234301   0.554   7.362  13.694
77490SOL     OW34302  14.327  14.548   7.569
77490SOL    HW134303  14.360  14.459   7.576
77490SOL    HW234304  14.347  14.574   7.479
77491SOL     OW34305   6.405  10.195   1.897
77491SOL    HW134306   6.455  10.144   1.833
77491SOL    HW234307   6.366  10.266   1.846
77492SOL     OW34308   0.715  12.198  10.589
77492SOL    HW134309   0.745  12.116  10.628
77492SOL    HW234310   0.784  12.261  10.609
77493SOL     OW34311   1.762  11.598   9.485
77493SOL    HW134312   1.821  11.669   9.509
77493SOL    HW234313   1.731  11.621   9.397
77494SOL     OW34314   6.054   0.522   7.446
77494SOL    HW134315   6.040   0.509   7.540
77494SOL    HW234316   6.149   0.527   7.437
77495SOL     OW34317   3.613  13.963  10.585
77495SOL    HW134318   3.623  13.974  10.491
77495SOL    HW234319   3.599  13.868  10.596
77496SOL     OW34320   3.604  10.595   3.565
77496SOL    HW134321   3.651  10.671   3.598
77496SOL    HW234322   3.583  10.618   3.475
77497SOL     OW34323   1.091   4.463  14.601
77497SOL    HW134324   1.124   4.375  14.625
77497SOL    HW234325   1.082   4.508  14.685
77498SOL     OW34326  13.497   6.686  11.239
77498SOL    HW134327  13.498   6.730  11.325
77498SOL    HW234328  13.435   6.737  11.187
77499SOL     OW34329   3.666   1.337  11.727
77499SOL    HW134330   3.716   1.285  11.664
77499SOL    HW234331   3.607   1.391  11.673
77500SOL     OW34332  13.570   7.564  10.770
77500SOL    HW134333  13.505   7.609  10.715
77500SOL    HW234334  13.518   7.502  10.822
77501SOL     OW34335   9.742   4.360   0.219
77501SOL    HW134336   9.779   4.409   0.293
77501SOL    HW234337   9.671   4.416   0.187
77502SOL     OW34338   3.248   8.221  11.802
77502SOL    HW134339   3.195   8.287  11.847
77502SOL    HW234340   3.299   8.270  11.738
77503SOL     OW34341   1.898   0.036   5.429
77503SOL    HW134342   1.843   0.108   5.461
77503SOL    HW234343   1.964   0.079   5.374
77504SOL     OW34344   7.173   9.025   6.639
77504SOL    HW134345   7.240   8.970   6.598
77504SOL    HW234346   7.129   9.067   6.565
77505SOL     OW34347   6.527   3.771   2.516
77505SOL    HW134348   6.498   3.806   2.432
77505SOL    HW234349   6.447   3.744   2.561
77506SOL     OW34350  11.278  14.036   5.084
77506SOL    HW134351  11.317  13.949   5.094
77506SOL    HW234352  11.204  14.036   5.145
77507SOL     OW34353   8.736   3.091  12.126
77507SOL    HW134354   8.681   3.047  12.191
77507SOL    HW234355   8.676   3.147  12.078
77508SOL     OW34356   7.184   5.642   4.477
77508SOL    HW134357   7.220   5.569   4.527
77508SOL    HW234358   7.232   5.719   4.508
77509SOL     OW34359  11.502  11.443   4.009
77509SOL    HW134360  11.486  11.398   4.092
77509SOL    HW234361  11.493  11.536   4.030
77510SOL     OW34362  13.174   0.850  13.849
77510SOL    HW134363  13.253   0.806  13.880
77510SOL    HW234364  13.131   0.785  13.793
77511SOL     OW34365  11.868   1.988   9.996
77511SOL    HW134366  11.798   1.997  10.061
77511SOL    HW234367  11.946   2.020  10.041
77512SOL     OW34368  12.393   9.962   2.246
77512SOL    HW134369  12.408   9.931   2.335
77512SOL    HW234370  12.481   9.978   2.211
77513SOL     OW34371   3.198   1.025   3.395
77513SOL    HW134372   3.204   0.981   3.480
77513SOL    HW234373   3.107   1.014   3.369
77514SOL     OW34374   1.978  10.341  13.477
77514SOL    HW134375   1.919  10.414  13.459
77514SOL    HW234376   1.942  10.267  13.428
77515SOL     OW34377   2.888   9.199   8.900
77515SOL    HW134378   2.857   9.275   8.850
77515SOL    HW234379   2.867   9.220   8.991
77516SOL     OW34380   7.059  14.784   6.262
77516SOL    HW134381   7.152  14.761   6.257
77516SOL    HW234382   7.047  14.816   6.351
77517SOL     OW34383   2.907   1.172  12.093
77517SOL    HW134384   2.854   1.215  12.160
77517SOL    HW234385   2.978   1.235  12.074
77518SOL     OW34386   8.466   3.330   6.375
77518SOL    HW134387   8.387   3.296   6.334
77518SOL    HW234388   8.516   3.369   6.303
77519SOL     OW34389  14.064  11.024  12.033
77519SOL    HW134390  14.151  10.984  12.028
77519SOL    HW234391  14.020  10.996  11.953
77520SOL     OW34392   4.062   0.748  12.851
77520SOL    HW134393   3.980   0.778  12.810
77520SOL    HW234394   4.117   0.722  12.778
77521SOL     OW34395   7.995  11.581   1.866
77521SOL    HW134396   7.959  11.665   1.895
77521SOL    HW234397   8.047  11.550   1.940
77522SOL     OW34398   8.158   0.340   7.805
77522SOL    HW134399   8.136   0.339   7.712
77522SOL    HW234400   8.086   0.388   7.846
77523SOL     OW34401   3.005  12.502  12.607
77523SOL    HW134402   2.952  12.437  12.652
77523SOL    HW234403   2.957  12.584  12.619
77524SOL     OW34404  13.368   3.870   4.939
77524SOL    HW134405  13.402   3.905   5.022
77524SOL    HW234406  13.281   3.836   4.960
77525SOL     OW34407   1.851  14.373   1.686
77525SOL    HW134408   1.860  14.370   1.591
77525SOL    HW234409   1.824  14.463   1.704
77526SOL     OW34410  10.121   4.607   7.354
77526SOL    HW134411  10.068   4.676   7.315
77526SOL    HW234412  10.133   4.634   7.445
77527SOL     OW34413  11.866   2.463  12.248
77527SOL    HW134414  11.791   2.467  12.307
77527SOL    HW234415  11.867   2.372  12.217
77528SOL     OW34416   8.967  10.677  12.399
77528SOL    HW134417   8.945  10.770  12.394
77528SOL    HW234418   8.933  10.649  12.484
77529SOL     OW34419  12.483  13.924   0.938
77529SOL    HW134420  12.451  13.858   0.999
77529SOL    HW234421  12.452  14.007   0.975
77530SOL     OW34422   2.510   2.027  12.391
77530SOL    HW134423   2.509   2.122  12.397
77530SOL    HW234424   2.523   1.997  12.481
77531SOL     OW34425  13.296   5.367   5.121
77531SOL    HW134426  13.325   5.308   5.190
77531SOL    HW234427  13.366   5.431   5.113
77532SOL     OW34428   6.115   5.048  10.390
77532SOL    HW134429   6.050   4.992  10.433
77532SOL    HW234430   6.066   5.127  10.367
77533SOL     OW34431   1.633  10.646  12.673
77533SOL    HW134432   1.606  10.724  12.722
77533SOL    HW234433   1.715  10.671  12.631
77534SOL     OW34434   2.749   2.999  13.490
77534SOL    HW134435   2.805   3.077  13.492
77534SOL    HW234436   2.807   2.928  13.462
77535SOL     OW34437   4.087   4.458   4.050
77535SOL    HW134438   4.076   4.366   4.074
77535SOL    HW234439   4.046   4.465   3.963
77536SOL     OW34440   4.001   9.529  10.010
77536SOL    HW134441   4.033   9.524   9.920
77536SOL    HW234442   3.962   9.617  10.016
77537SOL     OW34443   7.265  12.581   0.475
77537SOL    HW134444   7.228  12.656   0.429
77537SOL    HW234445   7.304  12.618   0.554
77538SOL     OW34446   0.914  11.460   1.454
77538SOL    HW134447   0.973  11.535   1.462
77538SOL    HW234448   0.910  11.442   1.360
77539SOL     OW34449  13.495   9.105   6.773
77539SOL    HW134450  13.416   9.056   6.750
77539SOL    HW234451  13.470   9.156   6.849
77540SOL     OW34452   2.191   4.027  11.733
77540SOL    HW134453   2.190   4.077  11.814
77540SOL    HW234454   2.120   4.063  11.681
77541SOL     OW34455   8.730   8.507  14.010
77541SOL    HW134456   8.732   8.427  13.957
77541SOL    HW234457   8.659   8.558  13.972
77542SOL     OW34458   2.983   2.325   4.134
77542SOL    HW134459   2.914   2.357   4.191
77542SOL    HW234460   2.944   2.324   4.046
77543SOL     OW34461   2.535   2.944  11.090
77543SOL    HW134462   2.478   2.947  11.167
77543SOL    HW234463   2.552   3.035  11.069
77544SOL     OW34464  14.818   4.911  12.795
77544SOL    HW134465  14.782   4.963  12.723
77544SOL    HW234466  14.866   4.840  12.752
77545SOL     OW34467  13.111   0.034   2.598
77545SOL    HW134468  13.109  14.811   2.599
77545SOL    HW234469  13.172   0.057   2.667
77546SOL     OW34470   6.735   8.217   2.375
77546SOL    HW134471   6.640   8.207   2.380
77546SOL    HW234472   6.770   8.131   2.397
77547SOL     OW34473  10.466  10.163   9.920
77547SOL    HW134474  10.532  10.227   9.947
77547SOL    HW234475  10.398  10.170   9.988
77548SOL     OW34476  12.676   5.683   1.622
77548SOL    HW134477  12.696   5.601   1.667
77548SOL    HW234478  12.744   5.691   1.555
77549SOL     OW34479   9.503  11.310   6.524
77549SOL    HW134480   9.533  11.312   6.615
77549SOL    HW234481   9.505  11.217   6.501
77550SOL     OW34482   9.661   1.782   3.705
77550SOL    HW134483   9.662   1.709   3.767
77550SOL    HW234484   9.625   1.744   3.624
77551SOL     OW34485   5.361   1.268   9.292
77551SOL    HW134486   5.379   1.355   9.256
77551SOL    HW234487   5.286   1.281   9.350
77552SOL     OW34488   5.478  14.861   6.058
77552SOL    HW134489   5.502   0.066   6.008
77552SOL    HW234490   5.530  14.867   6.138
77553SOL     OW34491   2.167  13.234  12.179
77553SOL    HW134492   2.075  13.209  12.191
77553SOL    HW234493   2.203  13.166  12.122
77554SOL     OW34494  10.588  10.881   6.164
77554SOL    HW134495  10.539  10.963   6.156
77554SOL    HW234496  10.580  10.857   6.256
77555SOL     OW34497  10.468  11.468   1.720
77555SOL    HW134498  10.544  11.514   1.756
77555SOL    HW234499  10.502  11.382   1.696
77556SOL     OW34500   8.427  10.325   0.641
77556SOL    HW134501   8.349  10.272   0.624
77556SOL    HW234502   8.405  10.412   0.607
77557SOL     OW34503   3.392   3.123   0.010
77557SOL    HW134504   3.463   3.187   0.007
77557SOL    HW234505   3.432   3.042  14.849
77558SOL     OW34506   1.150   5.330   3.589
77558SOL    HW134507   1.101   5.276   3.526
77558SOL    HW234508   1.100   5.411   3.594
77559SOL     OW34509   9.116  13.237   6.184
77559SOL    HW134510   9.029  13.251   6.146
77559SOL    HW234511   9.160  13.322   6.176
77560SOL     OW34512   9.863   8.281   3.007
77560SOL    HW134513   9.900   8.195   2.984
77560SOL    HW234514   9.928   8.344   2.976
77561SOL     OW34515  13.201   4.998   0.944
77561SOL    HW134516  13.226   4.993   1.036
77561SOL    HW234517  13.139   5.071   0.940
77562SOL     OW34518   3.159   7.375  14.681
77562SOL    HW134519   3.143   7.282  14.664
77562SOL    HW234520   3.071   7.413  14.689
77563SOL     OW34521   2.321   1.819  13.042
77563SOL    HW134522   2.318   1.727  13.014
77563SOL    HW234523   2.241   1.831  13.093
77564SOL     OW34524  10.719   5.684   3.674
77564SOL    HW134525  10.759   5.641   3.749
77564SOL    HW234526  10.703   5.612   3.612
77565SOL     OW34527   7.401   3.686   7.920
77565SOL    HW134528   7.342   3.623   7.961
77565SOL    HW234529   7.481   3.681   7.971
77566SOL     OW34530   9.896   0.915  11.342
77566SOL    HW134531   9.874   0.989  11.286
77566SOL    HW234532   9.818   0.861  11.342
77567SOL     OW34533   7.866   2.863  12.272
77567SOL    HW134534   7.881   2.798  12.203
77567SOL    HW234535   7.860   2.946  12.224
77568SOL     OW34536   7.711  10.967  12.442
77568SOL    HW134537   7.637  11.014  12.481
77568SOL    HW234538   7.750  11.030  12.381
77569SOL     OW34539   8.390   2.112   8.567
77569SOL    HW134540   8.380   2.197   8.525
77569SOL    HW234541   8.478   2.115   8.606
77570SOL     OW34542   6.884   1.641   8.338
77570SOL    HW134543   6.923   1.559   8.307
77570SOL    HW234544   6.798   1.616   8.370
77571SOL     OW34545   9.003  12.000  11.324
77571SOL    HW134546   9.077  12.054  11.298
77571SOL    HW234547   9.041  11.933  11.381
77572SOL     OW34548  14.685   1.449   9.606
77572SOL    HW134549  14.733   1.450   9.689
77572SOL    HW234550  14.753   1.451   9.539
77573SOL     OW34551  14.744   0.959   5.096
77573SOL    HW134552  14.769   0.922   5.181
77573SOL    HW234553  14.745   1.053   5.110
77574SOL     OW34554   3.710   7.158   9.911
77574SOL    HW134555   3.753   7.099   9.848
77574SOL    HW234556   3.736   7.124   9.997
77575SOL     OW34557  12.522   9.820   0.017
77575SOL    HW134558  12.611   9.803   0.049
77575SOL    HW234559  12.491   9.734  14.859
77576SOL     OW34560   4.050   4.446  12.032
77576SOL    HW134561   4.070   4.354  12.052
77576SOL    HW234562   3.999   4.475  12.108
77577SOL     OW34563   5.834   3.345  14.541
77577SOL    HW134564   5.892   3.343  14.617
77577SOL    HW234565   5.885   3.390  14.473
77578SOL     OW34566   8.197   4.456   5.115
77578SOL    HW134567   8.232   4.482   5.030
77578SOL    HW234568   8.165   4.537   5.154
77579SOL     OW34569   8.302   7.060   3.662
77579SOL    HW134570   8.288   6.968   3.683
77579SOL    HW234571   8.363   7.091   3.730
77580SOL     OW34572  12.726  10.644  10.226
77580SOL    HW134573  12.699  10.640  10.318
77580SOL    HW234574  12.653  10.605  10.178
77581SOL     OW34575  11.093   0.015   4.806
77581SOL    HW134576  11.102  14.797   4.835
77581SOL    HW234577  11.032   0.011   4.732
77582SOL     OW34578   0.522  10.426   2.418
77582SOL    HW134579   0.582  10.361   2.455
77582SOL    HW234580   0.442  10.378   2.399
77583SOL     OW34581   3.763   5.629  13.347
77583SOL    HW134582   3.785   5.584  13.265
77583SOL    HW234583   3.812   5.712  13.342
77584SOL     OW34584   8.946   5.945   4.619
77584SOL    HW134585   8.933   6.038   4.598
77584SOL    HW234586   8.864   5.919   4.662
77585SOL     OW34587   0.937   7.438  13.364
77585SOL    HW134588   0.967   7.350  13.388
77585SOL    HW234589   0.941   7.488  13.446
77586SOL     OW34590   5.804  14.415   3.555
77586SOL    HW134591   5.797  14.484   3.620
77586SOL    HW234592   5.828  14.461   3.474
77587SOL     OW34593   1.162   5.802  10.327
77587SOL    HW134594   1.141   5.798  10.420
77587SOL    HW234595   1.257   5.812  10.324
77588SOL     OW34596   9.978  14.740   8.897
77588SOL    HW134597   9.955  14.699   8.980
77588SOL    HW234598  10.065  14.706   8.877
77589SOL     OW34599   1.608   0.178   4.879
77589SOL    HW134600   1.543   0.212   4.941
77589SOL    HW234601   1.669   0.127   4.933
77590SOL     OW34602   8.584   6.078   6.966
77590SOL    HW134603   8.501   6.110   6.931
77590SOL    HW234604   8.603   5.999   6.915
77591SOL     OW34605   7.676   6.744   8.262
77591SOL    HW134606   7.704   6.801   8.191
77591SOL    HW234607   7.723   6.661   8.246
77592SOL     OW34608  11.721   3.121   8.908
77592SOL    HW134609  11.776   3.165   8.844
77592SOL    HW234610  11.745   3.161   8.992
77593SOL     OW34611  10.294   1.599   3.699
77593SOL    HW134612  10.271   1.512   3.667
77593SOL    HW234613  10.247   1.660   3.641
77594SOL     OW34614   5.001   2.711   0.281
77594SOL    HW134615   5.014   2.775   0.211
77594SOL    HW234616   5.009   2.761   0.362
77595SOL     OW34617   2.284   8.586  12.639
77595SOL    HW134618   2.269   8.506  12.689
77595SOL    HW234619   2.305   8.556  12.551
77596SOL     OW34620   1.271   1.060  14.780
77596SOL    HW134621   1.210   0.999  14.738
77596SOL    HW234622   1.301   1.014  14.858
77597SOL     OW34623  10.893   6.275  14.570
77597SOL    HW134624  10.830   6.337  14.609
77597SOL    HW234625  10.840   6.222  14.510
77598SOL     OW34626   7.855  11.189  13.696
77598SOL    HW134627   7.852  11.267  13.751
77598SOL    HW234628   7.948  11.164  13.695
77599SOL     OW34629  11.443   8.603   8.504
77599SOL    HW134630  11.510   8.603   8.572
77599SOL    HW234631  11.417   8.695   8.495
77600SOL     OW34632   4.642   3.296   3.934
77600SOL    HW134633   4.579   3.357   3.897
77600SOL    HW234634   4.600   3.210   3.927
77601SOL     OW34635   5.120  14.688  12.236
77601SOL    HW134636   5.064  14.764  12.250
77601SOL    HW234637   5.079  14.618  12.286
77602SOL     OW34638   4.455   0.541  13.464
77602SOL    HW134639   4.512   0.542  13.388
77602SOL    HW234640   4.488   0.612  13.520
77603SOL     OW34641   4.149   1.901  13.574
77603SOL    HW134642   4.108   1.898  13.487
77603SOL    HW234643   4.243   1.902  13.555
77604SOL     OW34644   1.951   8.836  12.919
77604SOL    HW134645   1.886   8.893  12.961
77604SOL    HW234646   1.899   8.772  12.871
77605SOL     OW34647   1.945   8.634   8.225
77605SOL    HW134648   2.003   8.659   8.153
77605SOL    HW234649   1.981   8.679   8.301
77606SOL     OW34650  11.196  14.485  14.799
77606SOL    HW134651  11.170  14.503  14.709
77606SOL    HW234652  11.259  14.555  14.819
77607SOL     OW34653   2.874   1.573  14.196
77607SOL    HW134654   2.849   1.516  14.268
77607SOL    HW234655   2.804   1.638  14.191
77608SOL     OW34656  11.742   9.783  12.511
77608SOL    HW134657  11.765   9.730  12.588
77608SOL    HW234658  11.821   9.785  12.459
77609SOL     OW34659   1.362   4.314  13.307
77609SOL    HW134660   1.299   4.340  13.374
77609SOL    HW234661   1.359   4.386  13.243
77610SOL     OW34662   3.959  13.035   9.397
77610SOL    HW134663   3.999  13.092   9.331
77610SOL    HW234664   4.025  13.029   9.466
77611SOL     OW34665   9.142   1.037   7.027
77611SOL    HW134666   9.158   0.943   7.020
77611SOL    HW234667   9.051   1.045   7.053
77612SOL     OW34668   9.651  11.624   9.200
77612SOL    HW134669   9.574  11.655   9.248
77612SOL    HW234670   9.696  11.704   9.173
77613SOL     OW34671   8.344   4.928   1.039
77613SOL    HW134672   8.254   4.905   1.014
77613SOL    HW234673   8.394   4.848   1.021
77614SOL     OW34674  13.579  11.367  14.504
77614SOL    HW134675  13.533  11.284  14.502
77614SOL    HW234676  13.658  11.350  14.555
77615SOL     OW34677  14.184   2.060  13.993
77615SOL    HW134678  14.137   2.141  13.976
77615SOL    HW234679  14.267   2.087  14.032
77616SOL     OW34680  10.204   9.827   1.591
77616SOL    HW134681  10.203   9.751   1.532
77616SOL    HW234682  10.256   9.893   1.545
77617SOL     OW34683  12.099   8.531   2.303
77617SOL    HW134684  12.132   8.447   2.272
77617SOL    HW234685  12.019   8.545   2.253
77618SOL     OW34686   0.875  10.884   4.121
77618SOL    HW134687   0.897  10.938   4.045
77618SOL    HW234688   0.818  10.816   4.087
77619SOL     OW34689  10.085   8.899   1.281
77619SOL    HW134690  10.161   8.949   1.311
77619SOL    HW234691  10.119   8.812   1.262
77620SOL     OW34692  14.737   7.614   9.108
77620SOL    HW134693  14.690   7.612   9.025
77620SOL    HW234694  14.826   7.588   9.087
77621SOL     OW34695   7.696   0.469   8.052
77621SOL    HW134696   7.743   0.415   7.988
77621SOL    HW234697   7.614   0.423   8.068
77622SOL     OW34698   7.881   1.956   8.107
77622SOL    HW134699   7.876   1.973   8.201
77622SOL    HW234700   7.840   2.032   8.067
77623SOL     OW34701   5.950   7.368   3.191
77623SOL    HW134702   5.887   7.353   3.262
77623SOL    HW234703   6.007   7.292   3.193
77624SOL     OW34704   2.094   9.506  10.094
77624SOL    HW134705   2.050   9.442  10.149
77624SOL    HW234706   2.024   9.543  10.041
77625SOL     OW34707   9.121   5.187   6.174
77625SOL    HW134708   9.109   5.151   6.086
77625SOL    HW234709   9.034   5.183   6.214
77626SOL     OW34710   7.412   7.066   5.494
77626SOL    HW134711   7.463   7.030   5.566
77626SOL    HW234712   7.425   7.160   5.500
77627SOL     OW34713   6.115  10.992  13.434
77627SOL    HW134714   6.040  10.961  13.384
77627SOL    HW234715   6.113  10.942  13.515
77628SOL     OW34716   4.973   6.887  10.238
77628SOL    HW134717   5.059   6.864  10.272
77628SOL    HW234718   4.985   6.972  10.195
77629SOL     OW34719   7.420   3.526   3.264
77629SOL    HW134720   7.361   3.506   3.192
77629SOL    HW234721   7.455   3.613   3.243
77630SOL     OW34722   2.880  10.980   8.874
77630SOL    HW134723   2.846  10.891   8.873
77630SOL    HW234724   2.802  11.035   8.878
77631SOL     OW34725   8.038   9.599  12.233
77631SOL    HW134726   8.114   9.587  12.177
77631SOL    HW234727   7.998   9.680  12.204
77632SOL     OW34728   7.215   5.203   5.438
77632SOL    HW134729   7.249   5.182   5.525
77632SOL    HW234730   7.285   5.252   5.396
77633SOL     OW34731  14.258   4.569  10.310
77633SOL    HW134732  14.340   4.604  10.343
77633SOL    HW234733  14.211   4.538  10.387
77634SOL     OW34734   2.170   8.794   0.866
77634SOL    HW134735   2.163   8.887   0.846
77634SOL    HW234736   2.166   8.789   0.962
77635SOL     OW34737  12.487   8.281   7.312
77635SOL    HW134738  12.560   8.250   7.365
77635SOL    HW234739  12.470   8.211   7.250
77636SOL     OW34740   3.910  11.397   9.087
77636SOL    HW134741   3.988  11.446   9.115
77636SOL    HW234742   3.929  11.374   8.996
77637SOL     OW34743  11.710   9.280   2.486
77637SOL    HW134744  11.637   9.265   2.546
77637SOL    HW234745  11.771   9.208   2.504
77638SOL     OW34746   9.103   0.545  11.968
77638SOL    HW134747   9.035   0.589  11.917
77638SOL    HW234748   9.152   0.493  11.905
77639SOL     OW34749   7.758  12.814   1.323
77639SOL    HW134750   7.760  12.823   1.228
77639SOL    HW234751   7.665  12.802   1.344
77640SOL     OW34752   2.463   6.987   4.312
77640SOL    HW134753   2.480   7.081   4.310
77640SOL    HW234754   2.425   6.967   4.226
77641SOL     OW34755   9.760  11.490   3.206
77641SOL    HW134756   9.815  11.415   3.186
77641SOL    HW234757   9.822  11.560   3.230
77642SOL     OW34758  12.220  13.072   7.857
77642SOL    HW134759  12.275  13.053   7.781
77642SOL    HW234760  12.157  13.137   7.826
77643SOL     OW34761   7.567  14.152   8.847
77643SOL    HW134762   7.625  14.088   8.888
77643SOL    HW234763   7.592  14.150   8.754
77644SOL     OW34764  12.471   9.675  10.208
77644SOL    HW134765  12.498   9.748  10.264
77644SOL    HW234766  12.551   9.648  10.163
77645SOL     OW34767   9.237   6.419  11.863
77645SOL    HW134768   9.172   6.448  11.927
77645SOL    HW234769   9.318   6.464  11.888
77646SOL     OW34770  11.093  14.201   6.195
77646SOL    HW134771  11.027  14.217   6.262
77646SOL    HW234772  11.104  14.106   6.195
77647SOL     OW34773   9.557   2.960  12.900
77647SOL    HW134774   9.630   2.958  12.962
77647SOL    HW234775   9.485   3.000  12.949
77648SOL     OW34776  13.530  13.388   0.835
77648SOL    HW134777  13.578  13.454   0.885
77648SOL    HW234778  13.445  13.382   0.879
77649SOL     OW34779   1.149   8.680   4.767
77649SOL    HW134780   1.117   8.750   4.824
77649SOL    HW234781   1.185   8.615   4.827
77650SOL     OW34782   4.737   2.882   9.971
77650SOL    HW134783   4.778   2.818  10.028
77650SOL    HW234784   4.643   2.866   9.979
77651SOL     OW34785   5.006  13.867   7.284
77651SOL    HW134786   4.945  13.880   7.355
77651SOL    HW234787   4.977  13.928   7.216
77652SOL     OW34788   8.228  10.482   9.840
77652SOL    HW134789   8.216  10.405   9.897
77652SOL    HW234790   8.197  10.453   9.754
77653SOL     OW34791  14.578   2.989   6.495
77653SOL    HW134792  14.610   3.072   6.530
77653SOL    HW234793  14.506   3.014   6.437
77654SOL     OW34794  11.022   9.022   1.044
77654SOL    HW134795  10.962   9.092   1.020
77654SOL    HW234796  11.012   9.011   1.138
77655SOL     OW34797   2.007   2.479   7.099
77655SOL    HW134798   2.010   2.552   7.162
77655SOL    HW234799   2.099   2.466   7.074
77656SOL     OW34800  12.336   5.835   7.069
77656SOL    HW134801  12.309   5.875   6.986
77656SOL    HW234802  12.293   5.749   7.069
77657SOL     OW34803   0.403   7.201   0.900
77657SOL    HW134804   0.478   7.261   0.899
77657SOL    HW234805   0.334   7.249   0.856
77658SOL     OW34806  11.156   5.847  14.225
77658SOL    HW134807  11.114   5.803  14.150
77658SOL    HW234808  11.184   5.931  14.190
77659SOL     OW34809   9.739   7.096   5.354
77659SOL    HW134810   9.646   7.075   5.356
77659SOL    HW234811   9.782   7.018   5.391
77660SOL     OW34812   8.940  10.678   8.795
77660SOL    HW134813   8.950  10.592   8.835
77660SOL    HW234814   9.002  10.678   8.722
77661SOL     OW34815  14.424  11.606  12.970
77661SOL    HW134816  14.374  11.580  13.048
77661SOL    HW234817  14.451  11.523  12.931
77662SOL     OW34818   9.439   2.745  13.119
77662SOL    HW134819   9.396   2.698  13.047
77662SOL    HW234820   9.525   2.704  13.125
77663SOL     OW34821  12.651  12.685  12.791
77663SOL    HW134822  12.745  12.702  12.779
77663SOL    HW234823  12.615  12.769  12.820
77664SOL     OW34824   9.108   7.062   1.194
77664SOL    HW134825   9.092   7.116   1.271
77664SOL    HW234826   9.192   7.093   1.159
77665SOL     OW34827   3.115   7.624   9.282
77665SOL    HW134828   3.135   7.660   9.195
77665SOL    HW234829   3.201   7.611   9.323
77666SOL     OW34830   3.279   4.596   8.003
77666SOL    HW134831   3.327   4.533   7.949
77666SOL    HW234832   3.200   4.550   8.030
77667SOL     OW34833   6.580  14.258   6.264
77667SOL    HW134834   6.569  14.266   6.169
77667SOL    HW234835   6.493  14.274   6.300
77668SOL     OW34836  14.000  13.556  13.258
77668SOL    HW134837  13.961  13.633  13.216
77668SOL    HW234838  14.092  13.579  13.271
77669SOL     OW34839   6.144   3.398  11.083
77669SOL    HW134840   6.159   3.379  11.175
77669SOL    HW234841   6.163   3.491  11.074
77670SOL     OW34842   8.854   3.830   5.334
77670SOL    HW134843   8.860   3.781   5.253
77670SOL    HW234844   8.787   3.784   5.385
77671SOL     OW34845   4.080   1.325   7.303
77671SOL    HW134846   4.003   1.292   7.351
77671SOL    HW234847   4.044   1.388   7.241
77672SOL     OW34848   7.266   6.123   2.941
77672SOL    HW134849   7.294   6.042   2.983
77672SOL    HW234850   7.347   6.166   2.914
77673SOL     OW34851  12.535   3.710   1.223
77673SOL    HW134852  12.598   3.647   1.190
77673SOL    HW234853  12.460   3.703   1.164
77674SOL     OW34854   2.656   8.408  12.175
77674SOL    HW134855   2.683   8.393  12.265
77674SOL    HW234856   2.573   8.361  12.166
77675SOL     OW34857  14.497  14.614  10.228
77675SOL    HW134858  14.428  14.622  10.163
77675SOL    HW234859  14.576  14.644  10.182
77676SOL     OW34860   6.949   8.011  12.238
77676SOL    HW134861   6.883   7.959  12.192
77676SOL    HW234862   7.008   7.946  12.276
77677SOL     OW34863   6.468   3.371   4.723
77677SOL    HW134864   6.465   3.343   4.631
77677SOL    HW234865   6.561   3.371   4.745
77678SOL     OW34866  10.115  14.544   9.195
77678SOL    HW134867  10.096  14.519   9.286
77678SOL    HW234868  10.041  14.509   9.145
77679SOL     OW34869   1.986   1.983   0.896
77679SOL    HW134870   2.046   2.055   0.915
77679SOL    HW234871   1.899   2.023   0.900
77680SOL     OW34872  11.402  10.208  13.733
77680SOL    HW134873  11.329  10.150  13.712
77680SOL    HW234874  11.450  10.218  13.651
77681SOL     OW34875   4.989  13.233  11.663
77681SOL    HW134876   5.073  13.250  11.618
77681SOL    HW234877   4.924  13.235  11.593
77682SOL     OW34878   2.698   3.315  10.081
77682SOL    HW134879   2.753   3.371  10.135
77682SOL    HW234880   2.620   3.368  10.063
77683SOL     OW34881  10.089  10.566   8.775
77683SOL    HW134882  10.098  10.475   8.747
77683SOL    HW234883  10.008  10.595   8.733
77684SOL     OW34884   9.619  10.396   0.544
77684SOL    HW134885   9.629  10.478   0.496
77684SOL    HW234886   9.694  10.393   0.604
77685SOL     OW34887   6.265  10.781   6.150
77685SOL    HW134888   6.208  10.742   6.083
77685SOL    HW234889   6.331  10.713   6.166
77686SOL     OW34890   1.989   7.968   1.156
77686SOL    HW134891   1.916   7.974   1.094
77686SOL    HW234892   2.031   8.053   1.152
77687SOL     OW34893  11.199  12.215  10.475
77687SOL    HW134894  11.293  12.234  10.484
77687SOL    HW234895  11.157  12.301  10.477
77688SOL     OW34896   7.828   1.915  11.389
77688SOL    HW134897   7.918   1.902  11.419
77688SOL    HW234898   7.816   1.849  11.321
77689SOL     OW34899   1.749  10.461   0.921
77689SOL    HW134900   1.716  10.509   0.997
77689SOL    HW234901   1.675  10.458   0.860
77690SOL     OW34902  11.893   2.471   7.400
77690SOL    HW134903  11.816   2.525   7.419
77690SOL    HW234904  11.892   2.404   7.469
77691SOL     OW34905   9.168  10.562  14.654
77691SOL    HW134906   9.093  10.571  14.595
77691SOL    HW234907   9.225  10.499  14.611
77692SOL     OW34908   4.602   3.564   7.699
77692SOL    HW134909   4.654   3.632   7.657
77692SOL    HW234910   4.666   3.509   7.745
77693SOL     OW34911  12.387  13.897   1.889
77693SOL    HW134912  12.348  13.963   1.831
77693SOL    HW234913  12.376  13.814   1.842
77694SOL     OW34914   0.358   2.113   7.437
77694SOL    HW134915   0.438   2.079   7.396
77694SOL    HW234916   0.357   2.075   7.525
77695SOL     OW34917   4.292   4.696   2.395
77695SOL    HW134918   4.268   4.622   2.339
77695SOL    HW234919   4.210   4.742   2.411
77696SOL     OW34920  12.714   8.373  14.683
77696SOL    HW134921  12.644   8.425  14.644
77696SOL    HW234922  12.677   8.342  14.766
77697SOL     OW34923   1.547   3.217  10.776
77697SOL    HW134924   1.586   3.160  10.710
77697SOL    HW234925   1.533   3.300  10.731
77698SOL     OW34926   4.877   1.236   3.027
77698SOL    HW134927   4.909   1.164   3.081
77698SOL    HW234928   4.941   1.244   2.957
77699SOL     OW34929  11.828   3.618   6.684
77699SOL    HW134930  11.892   3.680   6.650
77699SOL    HW234931  11.853   3.534   6.643
77700SOL     OW34932  14.532   9.291   5.126
77700SOL    HW134933  14.445   9.254   5.138
77700SOL    HW234934  14.519   9.367   5.070
77701SOL     OW34935   2.765   7.148   2.469
77701SOL    HW134936   2.714   7.173   2.545
77701SOL    HW234937   2.854   7.139   2.501
77702SOL     OW34938   3.568   9.988   3.114
77702SOL    HW134939   3.607   9.938   3.186
77702SOL    HW234940   3.561   9.926   3.042
77703SOL     OW34941   9.412  11.234   5.027
77703SOL    HW134942   9.449  11.248   5.114
77703SOL    HW234943   9.435  11.314   4.979
77704SOL     OW34944  11.442   1.364   9.489
77704SOL    HW134945  11.374   1.297   9.488
77704SOL    HW234946  11.417   1.425   9.419
77705SOL     OW34947   5.385  11.166   9.434
77705SOL    HW134948   5.359  11.074   9.437
77705SOL    HW234949   5.438  11.178   9.513
77706SOL     OW34950   0.389  14.539   0.179
77706SOL    HW134951   0.335  14.618   0.184
77706SOL    HW234952   0.359  14.495   0.100
77707SOL     OW34953  13.440  12.726  14.316
77707SOL    HW134954  13.506  12.795  14.314
77707SOL    HW234955  13.486  12.650  14.350
77708SOL     OW34956  14.601  13.560  13.289
77708SOL    HW134957  14.651  13.618  13.346
77708SOL    HW234958  14.598  13.606  13.205
77709SOL     OW34959   0.408  13.204  14.795
77709SOL    HW134960   0.482  13.163  14.750
77709SOL    HW234961   0.339  13.138  14.793
77710SOL     OW34962  10.379  10.877  13.407
77710SOL    HW134963  10.286  10.874  13.386
77710SOL    HW234964  10.401  10.970  13.408
77711SOL     OW34965   2.625   7.169   5.440
77711SOL    HW134966   2.557   7.234   5.423
77711SOL    HW234967   2.600   7.094   5.386
77712SOL     OW34968  12.936   9.324  10.216
77712SOL    HW134969  12.895   9.269  10.150
77712SOL    HW234970  12.999   9.266  10.260
77713SOL     OW34971   7.522   0.920   2.468
77713SOL    HW134972   7.548   0.971   2.391
77713SOL    HW234973   7.603   0.908   2.518
77714SOL     OW34974  13.768   5.001   5.772
77714SOL    HW134975  13.861   4.983   5.785
77714SOL    HW234976  13.729   4.916   5.755
77715SOL     OW34977  14.455  13.482  13.952
77715SOL    HW134978  14.386  13.443  13.898
77715SOL    HW234979  14.480  13.561  13.904
77716SOL     OW34980   1.879   6.557   8.948
77716SOL    HW134981   1.787   6.553   8.921
77716SOL    HW234982   1.927   6.513   8.878
77717SOL     OW34983   9.155   4.196  13.859
77717SOL    HW134984   9.249   4.211  13.866
77717SOL    HW234985   9.132   4.151  13.940
77718SOL     OW34986   8.745  12.333   9.753
77718SOL    HW134987   8.737  12.361   9.844
77718SOL    HW234988   8.742  12.238   9.756
77719SOL     OW34989   7.796   5.498   6.807
77719SOL    HW134990   7.822   5.568   6.866
77719SOL    HW234991   7.751   5.542   6.735
77720SOL     OW34992   2.533  12.128   8.397
77720SOL    HW134993   2.539  12.222   8.378
77720SOL    HW234994   2.467  12.096   8.336
77721SOL     OW34995   1.134  10.604   6.066
77721SOL    HW134996   1.046  10.569   6.063
77721SOL    HW234997   1.170  10.574   6.150
77722SOL     OW34998  10.619   9.235  12.818
77722SOL    HW134999  10.533   9.209  12.784
77722SOL    HW235000  10.671   9.253  12.739
77723SOL     OW35001   2.572   3.454   4.492
77723SOL    HW135002   2.517   3.520   4.535
77723SOL    HW235003   2.520   3.374   4.495
77724SOL     OW35004   4.865   3.550  13.004
77724SOL    HW135005   4.869   3.536  13.098
77724SOL    HW235006   4.953   3.580  12.980
77725SOL     OW35007   7.657  14.729   0.178
77725SOL    HW135008   7.618  14.783   0.247
77725SOL    HW235009   7.590  14.663   0.158
77726SOL     OW35010   3.143   6.915   9.978
77726SOL    HW135011   3.223   6.862   9.977
77726SOL    HW235012   3.144   6.963   9.896
77727SOL     OW35013   2.975   5.362   9.406
77727SOL    HW135014   2.935   5.294   9.461
77727SOL    HW235015   2.904   5.389   9.347
77728SOL     OW35016   9.331  10.777   6.525
77728SOL    HW135017   9.274  10.727   6.467
77728SOL    HW235018   9.304  10.751   6.613
77729SOL     OW35019  13.120   3.210  12.386
77729SOL    HW135020  13.162   3.130  12.355
77729SOL    HW235021  13.171   3.236  12.463
77730SOL     OW35022   5.980   8.142  14.406
77730SOL    HW135023   5.952   8.231  14.428
77730SOL    HW235024   6.067   8.134  14.445
77731SOL     OW35025   0.617   5.713   5.383
77731SOL    HW135026   0.683   5.772   5.420
77731SOL    HW235027   0.646   5.625   5.409
77732SOL     OW35028   3.486  12.305   6.090
77732SOL    HW135029   3.462  12.374   6.152
77732SOL    HW235030   3.408  12.249   6.085
77733SOL     OW35031  12.462   4.818   5.276
77733SOL    HW135032  12.551   4.849   5.291
77733SOL    HW235033  12.434   4.862   5.196
77734SOL     OW35034   9.029   4.890  10.464
77734SOL    HW135035   9.036   4.847  10.379
77734SOL    HW235036   9.100   4.954  10.465
77735SOL     OW35037   0.357   9.551   8.335
77735SOL    HW135038   0.265   9.577   8.345
77735SOL    HW235039   0.384   9.592   8.253
77736SOL     OW35040  13.260  11.332   7.985
77736SOL    HW135041  13.331  11.290   7.937
77736SOL    HW235042  13.191  11.344   7.920
77737SOL     OW35043   3.646   1.223   1.943
77737SOL    HW135044   3.554   1.196   1.944
77737SOL    HW235045   3.648   1.305   1.992
77738SOL     OW35046  11.728  13.372  10.066
77738SOL    HW135047  11.703  13.301  10.007
77738SOL    HW235048  11.655  13.381  10.126
77739SOL     OW35049  14.810   3.131   2.537
77739SOL    HW135050  14.805   3.081   2.455
77739SOL    HW235051  14.782   3.069   2.605
77740SOL     OW35052   3.158   0.111   1.995
77740SOL    HW135053   3.169   0.204   2.011
77740SOL    HW235054   3.108   0.106   1.913
77741SOL     OW35055   5.499  12.229  10.244
77741SOL    HW135056   5.552  12.281  10.184
77741SOL    HW235057   5.457  12.164  10.188
77742SOL     OW35058   6.181   5.933   4.583
77742SOL    HW135059   6.139   5.903   4.664
77742SOL    HW235060   6.121   5.907   4.513
77743SOL     OW35061   5.025   1.185   6.672
77743SOL    HW135062   5.000   1.277   6.668
77743SOL    HW235063   4.973   1.149   6.744
77744SOL     OW35064   9.864  12.549   4.183
77744SOL    HW135065   9.811  12.470   4.196
77744SOL    HW235066   9.906  12.563   4.267
77745SOL     OW35067   3.084  10.450   0.053
77745SOL    HW135068   3.082  10.541   0.083
77745SOL    HW235069   3.059  10.455  14.833
77746SOL     OW35070   8.821  13.309   0.932
77746SOL    HW135071   8.881  13.275   0.998
77746SOL    HW235072   8.781  13.231   0.893
77747SOL     OW35073   2.415  10.709   4.171
77747SOL    HW135074   2.351  10.640   4.189
77747SOL    HW235075   2.395  10.739   4.082
77748SOL     OW35076   7.040  12.259  12.442
77748SOL    HW135077   7.028  12.276  12.348
77748SOL    HW235078   6.954  12.232  12.472
77749SOL     OW35079   4.534   0.802   9.153
77749SOL    HW135080   4.608   0.858   9.130
77749SOL    HW235081   4.483   0.794   9.073
77750SOL     OW35082   5.362   9.592   6.792
77750SOL    HW135083   5.282   9.643   6.801
77750SOL    HW235084   5.383   9.564   6.881
77751SOL     OW35085   7.641   9.881   2.770
77751SOL    HW135086   7.546   9.880   2.771
77751SOL    HW235087   7.665   9.807   2.714
77752SOL     OW35088   6.143   1.185  14.210
77752SOL    HW135089   6.186   1.131  14.143
77752SOL    HW235090   6.051   1.183  14.186
77753SOL     OW35091   8.902   9.984   6.424
77753SOL    HW135092   8.980   9.933   6.402
77753SOL    HW235093   8.872  10.020   6.340
77754SOL     OW35094  14.114  10.611   6.167
77754SOL    HW135095  14.068  10.658   6.098
77754SOL    HW235096  14.201  10.652   6.170
77755SOL     OW35097   2.086   0.029  11.664
77755SOL    HW135098   2.162  14.860  11.704
77755SOL    HW235099   2.030  14.829  11.638
77756SOL     OW35100   7.636   3.052   4.543
77756SOL    HW135101   7.551   3.010   4.531
77756SOL    HW235102   7.677   3.048   4.457
77757SOL     OW35103   7.076  11.099   2.860
77757SOL    HW135104   7.124  11.018   2.876
77757SOL    HW235105   7.114  11.135   2.780
77758SOL     OW35106  12.779   2.324   4.176
77758SOL    HW135107  12.779   2.232   4.205
77758SOL    HW235108  12.694   2.357   4.203
77759SOL     OW35109   1.631  10.065   4.486
77759SOL    HW135110   1.700  10.003   4.464
77759SOL    HW235111   1.559  10.043   4.428
77760SOL     OW35112  10.982   2.252   4.376
77760SOL    HW135113  10.891   2.263   4.349
77760SOL    HW235114  10.977   2.227   4.468
77761SOL     OW35115   4.081   4.948  10.421
77761SOL    HW135116   4.007   4.924  10.477
77761SOL    HW235117   4.126   4.865  10.405
77762SOL     OW35118   4.037  10.254  12.344
77762SOL    HW135119   4.062  10.183  12.285
77762SOL    HW235120   3.942  10.252  12.345
77763SOL     OW35121   5.120   3.802  11.326
77763SOL    HW135122   5.139   3.748  11.249
77763SOL    HW235123   5.180   3.876  11.318
77764SOL     OW35124  11.969   9.180   8.578
77764SOL    HW135125  11.965   9.190   8.673
77764SOL    HW235126  11.987   9.087   8.564
77765SOL     OW35127  14.195   4.155  14.263
77765SOL    HW135128  14.256   4.227  14.251
77765SOL    HW235129  14.217   4.093  14.194
77766SOL     OW35130  10.579   1.772   3.671
77766SOL    HW135131  10.562   1.677   3.672
77766SOL    HW235132  10.498   1.810   3.639
77767SOL     OW35133   8.427   9.314   7.557
77767SOL    HW135134   8.366   9.378   7.594
77767SOL    HW235135   8.396   9.230   7.588
77768SOL     OW35136  10.656   2.787   2.873
77768SOL    HW135137  10.639   2.713   2.815
77768SOL    HW235138  10.599   2.772   2.949
77769SOL     OW35139   4.920   3.774   7.348
77769SOL    HW135140   4.875   3.850   7.310
77769SOL    HW235141   5.003   3.809   7.380
77770SOL     OW35142  14.332   5.806   2.564
77770SOL    HW135143  14.290   5.824   2.648
77770SOL    HW235144  14.419   5.775   2.586
77771SOL     OW35145  13.126   1.226   6.882
77771SOL    HW135146  13.187   1.297   6.901
77771SOL    HW235147  13.124   1.220   6.786
77772SOL     OW35148  12.968   0.685   4.323
77772SOL    HW135149  12.927   0.711   4.241
77772SOL    HW235150  12.994   0.767   4.365
77773SOL     OW35151  14.366   4.899   3.591
77773SOL    HW135152  14.406   4.984   3.575
77773SOL    HW235153  14.326   4.875   3.507
77774SOL     OW35154   7.734   4.923  11.953
77774SOL    HW135155   7.800   4.884  11.897
77774SOL    HW235156   7.744   5.017  11.940
77775SOL     OW35157  13.215  10.015   8.848
77775SOL    HW135158  13.308   9.995   8.844
77775SOL    HW235159  13.210  10.097   8.898
77776SOL     OW35160   2.723  11.660   3.468
77776SOL    HW135161   2.646  11.613   3.435
77776SOL    HW235162   2.726  11.741   3.416
77777SOL     OW35163  11.151   9.927   0.186
77777SOL    HW135164  11.094   9.871   0.238
77777SOL    HW235165  11.216   9.866   0.149
77778SOL     OW35166   4.754   8.506  12.097
77778SOL    HW135167   4.713   8.487  12.181
77778SOL    HW235168   4.830   8.448  12.095
77779SOL     OW35169   0.770   5.698  13.883
77779SOL    HW135170   0.718   5.779  13.880
77779SOL    HW235171   0.707   5.630  13.909
77780SOL     OW35172   8.869   9.203   6.232
77780SOL    HW135173   8.892   9.167   6.318
77780SOL    HW235174   8.782   9.242   6.245
77781SOL     OW35175   6.762  10.847   6.923
77781SOL    HW135176   6.679  10.833   6.969
77781SOL    HW235177   6.738  10.839   6.830
77782SOL     OW35178   2.862  10.125   4.035
77782SOL    HW135179   2.951  10.132   4.070
77782SOL    HW235180   2.874  10.110   3.942
77783SOL     OW35181   6.679  14.533  10.367
77783SOL    HW135182   6.679  14.439  10.349
77783SOL    HW235183   6.682  14.539  10.462
77784SOL     OW35184  10.540  13.255   2.064
77784SOL    HW135185  10.598  13.237   1.990
77784SOL    HW235186  10.590  13.316   2.119
77785SOL     OW35187   5.486   2.359   2.267
77785SOL    HW135188   5.568   2.310   2.255
77785SOL    HW235189   5.507   2.425   2.333
77786SOL     OW35190   6.021   5.657   2.549
77786SOL    HW135191   6.070   5.717   2.492
77786SOL    HW235192   5.947   5.629   2.495
77787SOL     OW35193   7.723   0.801   8.418
77787SOL    HW135194   7.728   0.712   8.454
77787SOL    HW235195   7.769   0.795   8.334
77788SOL     OW35196  13.731   9.057   2.254
77788SOL    HW135197  13.722   9.079   2.162
77788SOL    HW235198  13.740   8.962   2.256
77789SOL     OW35199   0.227  11.656   1.287
77789SOL    HW135200   0.171  11.582   1.264
77789SOL    HW235201   0.166  11.724   1.316
77790SOL     OW35202   4.454  13.420   7.579
77790SOL    HW135203   4.536  13.467   7.562
77790SOL    HW235204   4.412  13.469   7.649
77791SOL     OW35205  11.712  14.742   9.626
77791SOL    HW135206  11.677  14.784   9.704
77791SOL    HW235207  11.806  14.735   9.642
77792SOL     OW35208   5.120   1.187   1.641
77792SOL    HW135209   5.126   1.161   1.549
77792SOL    HW235210   5.065   1.265   1.640
77793SOL     OW35211   6.317   3.207   8.259
77793SOL    HW135212   6.239   3.163   8.225
77793SOL    HW235213   6.305   3.206   8.354
77794SOL     OW35214  12.572   3.876  13.167
77794SOL    HW135215  12.579   3.918  13.081
77794SOL    HW235216  12.553   3.784  13.146
77795SOL     OW35217   1.526   9.392   9.658
77795SOL    HW135218   1.567   9.369   9.574
77795SOL    HW235219   1.521   9.488   9.655
77796SOL     OW35220   8.177  11.042   1.374
77796SOL    HW135221   8.229  11.049   1.454
77796SOL    HW235222   8.228  10.983   1.318
77797SOL     OW35223  10.274   3.837   7.297
77797SOL    HW135224  10.319   3.784   7.232
77797SOL    HW235225  10.344   3.889   7.338
77798SOL     OW35226  12.709   8.870   0.485
77798SOL    HW135227  12.765   8.810   0.533
77798SOL    HW235228  12.709   8.950   0.538
77799SOL     OW35229   7.149   0.243   6.910
77799SOL    HW135230   7.242   0.250   6.889
77799SOL    HW235231   7.132   0.318   6.968
77800SOL     OW35232   3.045  12.729   1.114
77800SOL    HW135233   3.011  12.811   1.148
77800SOL    HW235234   3.089  12.688   1.189
77801SOL     OW35235   1.530   7.343  10.236
77801SOL    HW135236   1.567   7.430  10.249
77801SOL    HW235237   1.441   7.358  10.205
77802SOL     OW35238   1.519   6.444  10.879
77802SOL    HW135239   1.573   6.403  10.947
77802SOL    HW235240   1.505   6.375  10.815
77803SOL     OW35241  10.787   4.068  12.417
77803SOL    HW135242  10.722   4.129  12.382
77803SOL    HW235243  10.797   4.093  12.509
77804SOL     OW35244   9.772   7.246  11.972
77804SOL    HW135245   9.797   7.201  11.891
77804SOL    HW235246   9.741   7.176  12.029
77805SOL     OW35247   3.927   3.217   1.920
77805SOL    HW135248   3.842   3.197   1.961
77805SOL    HW235249   3.914   3.196   1.828
77806SOL     OW35250  11.545   9.739   4.206
77806SOL    HW135251  11.516   9.654   4.240
77806SOL    HW235252  11.483   9.759   4.137
77807SOL     OW35253  10.822  11.945   2.416
77807SOL    HW135254  10.902  11.970   2.370
77807SOL    HW235255  10.765  11.910   2.348
77808SOL     OW35256   0.849  13.614  12.231
77808SOL    HW135257   0.892  13.698  12.243
77808SOL    HW235258   0.911  13.549  12.265
77809SOL     OW35259   6.777   6.084   4.075
77809SOL    HW135260   6.783   6.146   4.149
77809SOL    HW235261   6.810   6.134   4.000
77810SOL     OW35262  11.983  14.814   9.684
77810SOL    HW135263  11.942   0.028   9.684
77810SOL    HW235264  12.031  14.810   9.767
77811SOL     OW35265  10.509   0.229   7.622
77811SOL    HW135266  10.417   0.246   7.605
77811SOL    HW235267  10.509   0.168   7.696
77812SOL     OW35268  10.462  12.785   0.346
77812SOL    HW135269  10.404  12.714   0.317
77812SOL    HW235270  10.461  12.780   0.441
77813SOL     OW35271   2.042   8.516  13.481
77813SOL    HW135272   1.968   8.503  13.540
77813SOL    HW235273   2.039   8.441  13.422
77814SOL     OW35274   9.840   8.701   7.428
77814SOL    HW135275   9.908   8.741   7.483
77814SOL    HW235276   9.791   8.645   7.488
77815SOL     OW35277   0.461   5.549   1.343
77815SOL    HW135278   0.495   5.638   1.335
77815SOL    HW235279   0.518   5.497   1.287
77816SOL     OW35280  14.178  14.458   5.738
77816SOL    HW135281  14.151  14.376   5.780
77816SOL    HW235282  14.095  14.500   5.713
77817SOL     OW35283  12.054  14.737  10.254
77817SOL    HW135284  12.082  14.721  10.344
77817SOL    HW235285  12.112  14.682  10.201
77818SOL     OW35286   8.069   9.334  10.212
77818SOL    HW135287   8.157   9.354  10.181
77818SOL    HW235288   8.011   9.366  10.143
77819SOL     OW35289   7.696   9.073   6.494
77819SOL    HW135290   7.791   9.071   6.496
77819SOL    HW235291   7.672   9.010   6.427
77820SOL     OW35292   3.912   6.863   2.905
77820SOL    HW135293   3.838   6.860   2.965
77820SOL    HW235294   3.972   6.796   2.938
77821SOL     OW35295  13.181   3.045   7.498
77821SOL    HW135296  13.244   3.115   7.517
77821SOL    HW235297  13.140   3.070   7.415
77822SOL     OW35298   4.055  14.261  10.250
77822SOL    HW135299   3.993  14.251  10.178
77822SOL    HW235300   4.120  14.323  10.219
77823SOL     OW35301   9.013  12.880  12.093
77823SOL    HW135302   8.918  12.885  12.103
77823SOL    HW235303   9.034  12.790  12.118
77824SOL     OW35304   2.243   2.628   9.680
77824SOL    HW135305   2.304   2.651   9.750
77824SOL    HW235306   2.274   2.543   9.648
77825SOL     OW35307  12.951   4.975   3.047
77825SOL    HW135308  12.950   5.037   3.120
77825SOL    HW235309  13.044   4.963   3.028
77826SOL     OW35310   6.394  11.024  10.665
77826SOL    HW135311   6.360  11.039  10.754
77826SOL    HW235312   6.390  10.929  10.653
77827SOL     OW35313   7.952   9.325   5.719
77827SOL    HW135314   7.946   9.233   5.746
77827SOL    HW235315   7.973   9.372   5.799
77828SOL     OW35316  13.761   1.846   8.781
77828SOL    HW135317  13.763   1.864   8.687
77828SOL    HW235318  13.805   1.922   8.820
77829SOL     OW35319   1.977   5.247   9.107
77829SOL    HW135320   2.054   5.192   9.096
77829SOL    HW235321   1.916   5.219   9.039
77830SOL     OW35322   4.008  12.677  10.889
77830SOL    HW135323   3.950  12.735  10.840
77830SOL    HW235324   3.949  12.622  10.941
77831SOL     OW35325   7.615   2.505  12.851
77831SOL    HW135326   7.548   2.569  12.830
77831SOL    HW235327   7.574   2.420  12.830
77832SOL     OW35328   6.024   2.238  12.375
77832SOL    HW135329   5.961   2.272  12.312
77832SOL    HW235330   5.984   2.157  12.408
77833SOL     OW35331  14.094   0.580   2.675
77833SOL    HW135332  14.111   0.586   2.769
77833SOL    HW235333  14.160   0.637   2.635
77834SOL     OW35334  11.570  14.191  12.245
77834SOL    HW135335  11.571  14.116  12.187
77834SOL    HW235336  11.556  14.154  12.332
77835SOL     OW35337  14.362  14.459   2.102
77835SOL    HW135338  14.271  14.479   2.128
77835SOL    HW235339  14.385  14.384   2.157
77836SOL     OW35340   5.439  12.766   8.920
77836SOL    HW135341   5.472  12.771   8.830
77836SOL    HW235342   5.507  12.717   8.966
77837SOL     OW35343  13.397  11.434   5.029
77837SOL    HW135344  13.458  11.379   5.079
77837SOL    HW235345  13.413  11.523   5.061
77838SOL     OW35346   9.922   3.168   0.801
77838SOL    HW135347   9.965   3.110   0.865
77838SOL    HW235348   9.831   3.174   0.833
77839SOL     OW35349   7.925  13.658  11.344
77839SOL    HW135350   7.910  13.720  11.273
77839SOL    HW235351   7.996  13.601  11.312
77840SOL     OW35352   6.369   9.407   4.278
77840SOL    HW135353   6.454   9.408   4.235
77840SOL    HW235354   6.307   9.382   4.209
77841SOL     OW35355  10.457   3.401   9.117
77841SOL    HW135356  10.491   3.465   9.180
77841SOL    HW235357  10.533   3.375   9.066
77842SOL     OW35358  10.091   7.665   6.509
77842SOL    HW135359  10.079   7.682   6.415
77842SOL    HW235360  10.088   7.569   6.516
77843SOL     OW35361   9.176  12.718   3.776
77843SOL    HW135362   9.212  12.798   3.813
77843SOL    HW235363   9.109  12.749   3.714
77844SOL     OW35364   6.308   1.370   8.981
77844SOL    HW135365   6.321   1.335   9.069
77844SOL    HW235366   6.285   1.294   8.928
77845SOL     OW35367   7.244  13.058   0.688
77845SOL    HW135368   7.288  13.105   0.618
77845SOL    HW235369   7.152  13.058   0.663
77846SOL     OW35370   6.187   7.058   2.259
77846SOL    HW135371   6.266   7.080   2.210
77846SOL    HW235372   6.119   7.114   2.222
77847SOL     OW35373   2.918  13.962   3.247
77847SOL    HW135374   3.009  13.949   3.218
77847SOL    HW235375   2.906  14.057   3.247
77848SOL     OW35376   8.454   1.349  13.562
77848SOL    HW135377   8.502   1.281  13.515
77848SOL    HW235378   8.513   1.425  13.562
77849SOL     OW35379  10.333   9.093   4.726
77849SOL    HW135380  10.385   9.012   4.729
77849SOL    HW235381  10.274   9.086   4.801
77850SOL     OW35382  13.963  12.445   5.433
77850SOL    HW135383  13.889  12.417   5.380
77850SOL    HW235384  14.005  12.514   5.382
77851SOL     OW35385   3.740   5.094   2.791
77851SOL    HW135386   3.791   5.127   2.865
77851SOL    HW235387   3.806   5.072   2.725
77852SOL     OW35388   0.969   9.091   7.726
77852SOL    HW135389   1.036   9.153   7.754
77852SOL    HW235390   0.899   9.145   7.690
77853SOL     OW35391   7.625   9.716   4.815
77853SOL    HW135392   7.645   9.670   4.896
77853SOL    HW235393   7.698   9.696   4.757
77854SOL     OW35394  12.028  13.191   5.835
77854SOL    HW135395  12.088  13.132   5.790
77854SOL    HW235396  12.064  13.278   5.818
77855SOL     OW35397  12.123   8.744   7.788
77855SOL    HW135398  12.137   8.731   7.882
77855SOL    HW235399  12.086   8.661   7.757
77856SOL     OW35400   1.003   4.120   6.269
77856SOL    HW135401   1.015   4.039   6.317
77856SOL    HW235402   0.912   4.119   6.241
77857SOL     OW35403  10.243   8.191   4.440
77857SOL    HW135404  10.296   8.119   4.475
77857SOL    HW235405  10.275   8.268   4.487
77858SOL     OW35406  12.259   1.221   7.731
77858SOL    HW135407  12.345   1.262   7.741
77858SOL    HW235408  12.253   1.160   7.805
77859SOL     OW35409   7.235   4.182  10.743
77859SOL    HW135410   7.172   4.252  10.760
77859SOL    HW235411   7.318   4.228  10.728
77860SOL     OW35412  14.162   5.022   4.612
77860SOL    HW135413  14.254   5.003   4.594
77860SOL    HW235414  14.161   5.110   4.649
77861SOL     OW35415   5.742  13.323   2.908
77861SOL    HW135416   5.722  13.397   2.966
77861SOL    HW235417   5.816  13.353   2.855
77862SOL     OW35418   1.806  13.060   8.397
77862SOL    HW135419   1.830  13.152   8.388
77862SOL    HW235420   1.877  13.012   8.356
77863SOL     OW35421  10.045   8.391   1.082
77863SOL    HW135422   9.952   8.409   1.099
77863SOL    HW235423  10.070   8.457   1.017
77864SOL     OW35424   5.137   6.173   8.419
77864SOL    HW135425   5.207   6.114   8.446
77864SOL    HW235426   5.149   6.252   8.471
77865SOL     OW35427  12.472   8.954  11.423
77865SOL    HW135428  12.420   8.944  11.503
77865SOL    HW235429  12.448   9.041  11.391
77866SOL     OW35430   5.303   7.509   0.207
77866SOL    HW135431   5.388   7.552   0.215
77866SOL    HW235432   5.302   7.474   0.118
77867SOL     OW35433   8.187   8.437  12.645
77867SOL    HW135434   8.130   8.487  12.704
77867SOL    HW235435   8.219   8.502  12.582
77868SOL     OW35436   2.881  11.514   7.763
77868SOL    HW135437   2.961  11.520   7.815
77868SOL    HW235438   2.811  11.510   7.828
77869SOL     OW35439   2.027   4.409   5.256
77869SOL    HW135440   2.064   4.326   5.226
77869SOL    HW235441   2.050   4.472   5.188
77870SOL     OW35442   1.813   8.436   8.613
77870SOL    HW135443   1.836   8.417   8.522
77870SOL    HW235444   1.897   8.433   8.660
77871SOL     OW35445   1.566  13.076  11.026
77871SOL    HW135446   1.598  13.106  10.941
77871SOL    HW235447   1.476  13.110  11.030
77872SOL     OW35448  14.756   6.270  13.161
77872SOL    HW135449  14.782   6.350  13.114
77872SOL    HW235450  14.666   6.287  13.188
77873SOL     OW35451   8.027  11.909   8.926
77873SOL    HW135452   8.033  11.831   8.981
77873SOL    HW235453   8.073  11.885   8.845
77874SOL     OW35454   1.812  13.790   0.339
77874SOL    HW135455   1.864  13.774   0.260
77874SOL    HW235456   1.859  13.860   0.384
77875SOL     OW35457   8.401   9.817  12.568
77875SOL    HW135458   8.358   9.810  12.483
77875SOL    HW235459   8.489   9.782  12.553
77876SOL     OW35460   4.476   4.369   6.044
77876SOL    HW135461   4.506   4.294   6.094
77876SOL    HW235462   4.465   4.439   6.108
77877SOL     OW35463   9.603   7.844   9.548
77877SOL    HW135464   9.557   7.877   9.626
77877SOL    HW235465   9.689   7.884   9.552
77878SOL     OW35466  10.989   2.452   4.711
77878SOL    HW135467  11.062   2.490   4.661
77878SOL    HW235468  10.911   2.476   4.661
77879SOL     OW35469   5.697  10.043  13.034
77879SOL    HW135470   5.789  10.025  13.015
77879SOL    HW235471   5.697  10.127  13.080
77880SOL     OW35472   3.318   8.576   8.206
77880SOL    HW135473   3.336   8.483   8.222
77880SOL    HW235474   3.362   8.621   8.278
77881SOL     OW35475   1.897   9.394   5.214
77881SOL    HW135476   1.814   9.402   5.166
77881SOL    HW235477   1.906   9.300   5.230
77882SOL     OW35478  14.234   4.615   2.192
77882SOL    HW135479  14.298   4.581   2.129
77882SOL    HW235480  14.246   4.710   2.189
77883SOL     OW35481   6.269   8.747   6.764
77883SOL    HW135482   6.345   8.753   6.706
77883SOL    HW235483   6.226   8.666   6.738
77884SOL     OW35484   8.936   4.810   4.383
77884SOL    HW135485   8.856   4.861   4.391
77884SOL    HW235486   9.002   4.861   4.428
77885SOL     OW35487   1.628   0.996  12.250
77885SOL    HW135488   1.544   0.960  12.279
77885SOL    HW235489   1.627   1.087  12.282
77886SOL     OW35490  13.891   0.060   1.197
77886SOL    HW135491  13.868   0.038   1.287
77886SOL    HW235492  13.846  14.868   1.143
77887SOL     OW35493   4.486   5.557  13.396
77887SOL    HW135494   4.552   5.626  13.402
77887SOL    HW235495   4.518   5.488  13.454
77888SOL     OW35496   1.205  13.804   4.286
77888SOL    HW135497   1.158  13.774   4.209
77888SOL    HW235498   1.296  13.781   4.269
77889SOL     OW35499   8.141   4.974   6.927
77889SOL    HW135500   8.201   5.037   6.968
77889SOL    HW235501   8.053   5.007   6.949
77890SOL     OW35502   9.655   6.019   4.500
77890SOL    HW135503   9.591   6.082   4.466
77890SOL    HW235504   9.657   6.036   4.594
77891SOL     OW35505   7.019   4.094   8.756
77891SOL    HW135506   7.106   4.077   8.719
77891SOL    HW235507   6.986   4.007   8.780
77892SOL     OW35508   0.389   8.764  12.188
77892SOL    HW135509   0.338   8.748  12.109
77892SOL    HW235510   0.362   8.851  12.217
77893SOL     OW35511   8.267   9.850   2.094
77893SOL    HW135512   8.231   9.919   2.039
77893SOL    HW235513   8.283   9.777   2.034
77894SOL     OW35514   0.153  14.007   8.592
77894SOL    HW135515   0.096  13.951   8.539
77894SOL    HW235516   0.104  14.088   8.604
77895SOL     OW35517   2.403   3.035  10.814
77895SOL    HW135518   2.331   3.026  10.877
77895SOL    HW235519   2.467   3.092  10.858
77896SOL     OW35520   9.900  13.137  12.668
77896SOL    HW135521   9.847  13.208  12.631
77896SOL    HW235522   9.913  13.162  12.759
77897SOL     OW35523   5.461   9.792   4.601
77897SOL    HW135524   5.373   9.756   4.605
77897SOL    HW235525   5.478   9.806   4.508
77898SOL     OW35526  14.359   6.087   4.539
77898SOL    HW135527  14.345   6.071   4.445
77898SOL    HW235528  14.441   6.136   4.542
77899SOL     OW35529   3.262   0.327  10.668
77899SOL    HW135530   3.194   0.388  10.640
77899SOL    HW235531   3.249   0.250  10.612
77900SOL     OW35532   6.981  10.268  14.462
77900SOL    HW135533   7.033  10.227  14.531
77900SOL    HW235534   6.943  10.346  14.503
77901SOL     OW35535   8.895  10.522   0.668
77901SOL    HW135536   8.936  10.543   0.752
77901SOL    HW235537   8.926  10.434   0.647
77902SOL     OW35538  11.161   0.525   9.092
77902SOL    HW135539  11.224   0.597   9.091
77902SOL    HW235540  11.128   0.523   9.182
77903SOL     OW35541  12.911   9.366   3.527
77903SOL    HW135542  12.918   9.461   3.518
77903SOL    HW235543  12.820   9.350   3.550
77904SOL     OW35544   2.243  12.640   9.649
77904SOL    HW135545   2.149  12.629   9.636
77904SOL    HW235546   2.264  12.722   9.603
77905SOL     OW35547   1.718   4.698   2.237
77905SOL    HW135548   1.744   4.660   2.154
77905SOL    HW235549   1.720   4.793   2.222
77906SOL     OW35550  14.478   6.942   7.613
77906SOL    HW135551  14.386   6.917   7.622
77906SOL    HW235552  14.492   7.006   7.683
77907SOL     OW35553   9.933   5.478  13.764
77907SOL    HW135554   9.881   5.487  13.843
77907SOL    HW235555  10.002   5.544  13.773
77908SOL     OW35556   0.513   2.420   2.934
77908SOL    HW135557   0.575   2.350   2.954
77908SOL    HW235558   0.495   2.460   3.019
77909SOL     OW35559  10.834  12.551   6.447
77909SOL    HW135560  10.874  12.579   6.364
77909SOL    HW235561  10.899  12.573   6.513
77910SOL     OW35562   7.370   5.188   6.096
77910SOL    HW135563   7.301   5.216   6.035
77910SOL    HW235564   7.444   5.165   6.039
77911SOL     OW35565   3.830   0.721  14.813
77911SOL    HW135566   3.832   0.656  14.743
77911SOL    HW235567   3.800   0.802  14.770
77912SOL     OW35568  14.074  12.117   8.881
77912SOL    HW135569  14.017  12.120   8.958
77912SOL    HW235570  14.122  12.199   8.884
77913SOL     OW35571  12.458   2.335  13.274
77913SOL    HW135572  12.548   2.321  13.244
77913SOL    HW235573  12.428   2.249  13.303
77914SOL     OW35574   8.174   2.735  12.705
77914SOL    HW135575   8.083   2.763  12.697
77914SOL    HW235576   8.198   2.709  12.616
77915SOL     OW35577  10.107  11.193   3.944
77915SOL    HW135578  10.158  11.156   3.872
77915SOL    HW235579  10.063  11.118   3.984
77916SOL     OW35580   5.465  10.310   6.273
77916SOL    HW135581   5.480  10.389   6.222
77916SOL    HW235582   5.526  10.317   6.347
77917SOL     OW35583  11.653   4.301  12.391
77917SOL    HW135584  11.643   4.232  12.325
77917SOL    HW235585  11.569   4.348  12.389
77918SOL     OW35586  12.954  13.315   3.879
77918SOL    HW135587  12.883  13.268   3.836
77918SOL    HW235588  12.913  13.397   3.910
77919SOL     OW35589  14.459   4.692  10.049
77919SOL    HW135590  14.375   4.714  10.089
77919SOL    HW235591  14.450   4.601  10.022
77920SOL     OW35592   0.058   9.029   6.369
77920SOL    HW135593   0.023   9.032   6.458
77920SOL    HW235594   0.007   9.093   6.321
77921SOL     OW35595  14.334   4.941   0.074
77921SOL    HW135596  14.301   4.975   0.157
77921SOL    HW235597  14.295   4.854   0.067
77922SOL     OW35598  12.658  13.463   5.384
77922SOL    HW135599  12.658  13.468   5.480
77922SOL    HW235600  12.651  13.370   5.365
77923SOL     OW35601   3.904   2.846   0.431
77923SOL    HW135602   3.814   2.873   0.450
77923SOL    HW235603   3.953   2.928   0.426
77924SOL     OW35604   9.784   9.880   4.334
77924SOL    HW135605   9.816   9.968   4.315
77924SOL    HW235606   9.760   9.844   4.248
77925SOL     OW35607   7.790   6.826   8.719
77925SOL    HW135608   7.731   6.782   8.658
77925SOL    HW235609   7.844   6.756   8.756
77926SOL     OW35610   0.148   1.807  13.757
77926SOL    HW135611   0.124   1.769  13.841
77926SOL    HW235612   0.224   1.863  13.776
77927SOL     OW35613  12.087   9.967  13.866
77927SOL    HW135614  12.086  10.063  13.871
77927SOL    HW235615  11.996   9.943  13.853
77928SOL     OW35616   8.841   9.435   8.188
77928SOL    HW135617   8.870   9.458   8.277
77928SOL    HW235618   8.783   9.360   8.201
77929SOL     OW35619   8.202   8.340   1.691
77929SOL    HW135620   8.252   8.259   1.679
77929SOL    HW235621   8.122   8.312   1.736
77930SOL     OW35622   8.954   7.010   9.469
77930SOL    HW135623   8.893   7.078   9.497
77930SOL    HW235624   8.898   6.943   9.431
77931SOL     OW35625   0.708  13.670  12.539
77931SOL    HW135626   0.803  13.658  12.548
77931SOL    HW235627   0.676  13.587  12.505
77932SOL     OW35628  11.583  13.981   0.368
77932SOL    HW135629  11.540  14.056   0.409
77932SOL    HW235630  11.666  14.015   0.336
77933SOL     OW35631  12.364   4.206   9.070
77933SOL    HW135632  12.408   4.291   9.079
77933SOL    HW235633  12.416   4.159   9.004
77934SOL     OW35634   3.436   4.492  13.944
77934SOL    HW135635   3.423   4.490  14.039
77934SOL    HW235636   3.353   4.522  13.909
77935SOL     OW35637   8.868   2.844   2.204
77935SOL    HW135638   8.894   2.873   2.117
77935SOL    HW235639   8.797   2.780   2.188
77936SOL     OW35640   6.111  12.307  12.220
77936SOL    HW135641   6.145  12.342  12.138
77936SOL    HW235642   6.033  12.259  12.196
77937SOL     OW35643   3.898  13.337  12.043
77937SOL    HW135644   3.890  13.396  12.118
77937SOL    HW235645   3.820  13.281  12.048
77938SOL     OW35646   1.156   6.088   1.030
77938SOL    HW135647   1.170   6.129   1.115
77938SOL    HW235648   1.211   6.137   0.970
77939SOL     OW35649   4.188   9.532   8.393
77939SOL    HW135650   4.231   9.488   8.467
77939SOL    HW235651   4.259   9.572   8.344
77940SOL     OW35652   0.182   6.673  14.803
77940SOL    HW135653   0.219   6.631  14.725
77940SOL    HW235654   0.177   6.603  14.868
77941SOL     OW35655   9.362  13.582  11.178
77941SOL    HW135656   9.399  13.519  11.239
77941SOL    HW235657   9.426  13.653  11.175
77942SOL     OW35658   1.906   9.202  12.458
77942SOL    HW135659   1.887   9.161  12.542
77942SOL    HW235660   1.855   9.283  12.458
77943SOL     OW35661   0.059   3.330   2.675
77943SOL    HW135662   0.089   3.405   2.625
77943SOL    HW235663   0.002   3.281   2.615
77944SOL     OW35664   1.390   3.210   0.528
77944SOL    HW135665   1.299   3.193   0.549
77944SOL    HW235666   1.392   3.224   0.433
77945SOL     OW35667   7.415   0.807  10.208
77945SOL    HW135668   7.376   0.760  10.135
77945SOL    HW235669   7.354   0.794  10.281
77946SOL     OW35670  14.563  13.757  11.011
77946SOL    HW135671  14.652  13.727  10.995
77946SOL    HW235672  14.531  13.701  11.081
77947SOL     OW35673   2.493   8.701  12.818
77947SOL    HW135674   2.485   8.790  12.851
77947SOL    HW235675   2.417   8.689  12.761
77948SOL     OW35676   5.107   6.802  11.367
77948SOL    HW135677   5.185   6.843  11.331
77948SOL    HW235678   5.036   6.863  11.347
77949SOL     OW35679  12.384  12.048  12.579
77949SOL    HW135680  12.349  11.968  12.540
77949SOL    HW235681  12.476  12.049  12.552
77950SOL     OW35682   9.990   6.563  10.274
77950SOL    HW135683  10.019   6.619  10.202
77950SOL    HW235684   9.983   6.622  10.349
77951SOL     OW35685   0.869   4.947   0.332
77951SOL    HW135686   0.898   5.030   0.294
77951SOL    HW235687   0.885   4.956   0.426
77952SOL     OW35688   7.749   9.350   9.118
77952SOL    HW135689   7.792   9.435   9.109
77952SOL    HW235690   7.664   9.370   9.157
77953SOL     OW35691   8.588   6.102   2.722
77953SOL    HW135692   8.554   6.129   2.636
77953SOL    HW235693   8.595   6.006   2.715
77954SOL     OW35694   2.360   0.190   5.333
77954SOL    HW135695   2.327   0.202   5.244
77954SOL    HW235696   2.312   0.255   5.385
77955SOL     OW35697   2.944   2.431  12.388
77955SOL    HW135698   2.960   2.450  12.295
77955SOL    HW235699   2.943   2.335  12.393
77956SOL     OW35700   8.326  10.022   5.430
77956SOL    HW135701   8.299  10.054   5.344
77956SOL    HW235702   8.390   9.953   5.411
77957SOL     OW35703   6.096   9.008   2.514
77957SOL    HW135704   6.070   9.025   2.604
77957SOL    HW235705   6.059   8.922   2.494
77958SOL     OW35706   2.836  13.400  11.879
77958SOL    HW135707   2.915  13.382  11.828
77958SOL    HW235708   2.796  13.314  11.892
77959SOL     OW35709   9.669  11.994   4.268
77959SOL    HW135710   9.756  11.970   4.236
77959SOL    HW235711   9.635  11.914   4.309
77960SOL     OW35712   7.171  10.438   2.369
77960SOL    HW135713   7.252  10.469   2.328
77960SOL    HW235714   7.105  10.500   2.340
77961SOL     OW35715   4.830  12.315  13.974
77961SOL    HW135716   4.741  12.299  14.005
77961SOL    HW235717   4.831  12.279  13.885
77962SOL     OW35718   6.803   2.929   2.470
77962SOL    HW135719   6.861   3.003   2.491
77962SOL    HW235720   6.785   2.888   2.555
77963SOL     OW35721  12.435   4.693   7.435
77963SOL    HW135722  12.457   4.675   7.527
77963SOL    HW235723  12.395   4.612   7.404
77964SOL     OW35724   6.438   0.128   0.588
77964SOL    HW135725   6.485   0.080   0.657
77964SOL    HW235726   6.351   0.090   0.588
77965SOL     OW35727   0.640  14.420  13.742
77965SOL    HW135728   0.577  14.380  13.682
77965SOL    HW235729   0.640  14.362  13.819
77966SOL     OW35730  11.063   3.144   1.549
77966SOL    HW135731  10.981   3.108   1.516
77966SOL    HW235732  11.048   3.239   1.552
77967SOL     OW35733   2.650   1.077   2.326
77967SOL    HW135734   2.617   1.015   2.391
77967SOL    HW235735   2.681   1.023   2.254
77968SOL     OW35736  10.554   4.890  12.939
77968SOL    HW135737  10.566   4.849  13.025
77968SOL    HW235738  10.640   4.926  12.918
77969SOL     OW35739  13.530   0.180   0.167
77969SOL    HW135740  13.553   0.102   0.217
77969SOL    HW235741  13.614   0.212   0.132
77970SOL     OW35742   6.859   2.348   0.268
77970SOL    HW135743   6.773   2.312   0.287
77970SOL    HW235744   6.868   2.340   0.173
77971SOL     OW35745   6.152  11.860   9.321
77971SOL    HW135746   6.216  11.797   9.355
77971SOL    HW235747   6.182  11.879   9.232
77972SOL     OW35748  14.542   0.002   3.327
77972SOL    HW135749  14.584  14.797   3.291
77972SOL    HW235750  14.504   0.046   3.251
77973SOL     OW35751   2.169   9.615  11.289
77973SOL    HW135752   2.156   9.642  11.380
77973SOL    HW235753   2.244   9.556  11.291
77974SOL     OW35754  13.305   1.885   3.821
77974SOL    HW135755  13.328   1.879   3.914
77974SOL    HW235756  13.225   1.938   3.820
77975SOL     OW35757   5.641   4.461  12.394
77975SOL    HW135758   5.651   4.411  12.475
77975SOL    HW235759   5.671   4.549  12.416
77976SOL     OW35760   0.879   1.435  13.003
77976SOL    HW135761   0.906   1.520  12.968
77976SOL    HW235762   0.883   1.446  13.098
77977SOL     OW35763  10.048  12.861   3.325
77977SOL    HW135764  10.117  12.865   3.392
77977SOL    HW235765  10.020  12.770   3.325
77978SOL     OW35766   9.817  13.853   9.389
77978SOL    HW135767   9.891  13.912   9.406
77978SOL    HW235768   9.828  13.782   9.452
77979SOL     OW35769   0.741   4.002   6.213
77979SOL    HW135770   0.718   3.936   6.278
77979SOL    HW235771   0.662   4.056   6.204
77980SOL     OW35772   8.817  14.292   4.992
77980SOL    HW135773   8.742  14.258   5.041
77980SOL    HW235774   8.778  14.353   4.929
77981SOL     OW35775  12.623  14.747  10.673
77981SOL    HW135776  12.585  14.743  10.585
77981SOL    HW235777  12.693  14.681  10.671
77982SOL     OW35778   5.123   1.957   1.207
77982SOL    HW135779   5.173   2.021   1.157
77982SOL    HW235780   5.131   1.985   1.298
77983SOL     OW35781   6.119  12.268  14.790
77983SOL    HW135782   6.126  12.309  14.704
77983SOL    HW235783   6.024  12.258  14.804
77984SOL     OW35784   1.488  13.823   3.276
77984SOL    HW135785   1.423  13.892   3.287
77984SOL    HW235786   1.570  13.869   3.259
77985SOL     OW35787   6.696  13.264   3.711
77985SOL    HW135788   6.792  13.271   3.714
77985SOL    HW235789   6.674  13.204   3.783
77986SOL     OW35790   4.731   0.228   2.832
77986SOL    HW135791   4.811   0.278   2.819
77986SOL    HW235792   4.759   0.148   2.875
77987SOL     OW35793   3.020   8.297  13.337
77987SOL    HW135794   3.088   8.244  13.295
77987SOL    HW235795   3.068   8.366  13.382
77988SOL     OW35796  11.951   7.648   1.797
77988SOL    HW135797  11.919   7.621   1.711
77988SOL    HW235798  11.903   7.728   1.817
77989SOL     OW35799   9.149   6.337   3.084
77989SOL    HW135800   9.140   6.292   3.000
77989SOL    HW235801   9.149   6.267   3.149
77990SOL     OW35802  12.818   4.730   0.953
77990SOL    HW135803  12.894   4.759   0.903
77990SOL    HW235804  12.853   4.705   1.038
77991SOL     OW35805   4.731   9.773  11.416
77991SOL    HW135806   4.745   9.843  11.351
77991SOL    HW235807   4.776   9.805  11.494
77992SOL     OW35808  14.824  13.772   5.787
77992SOL    HW135809  14.773  13.758   5.867
77992SOL    HW235810  14.779  13.844   5.743
77993SOL     OW35811   3.937  11.837  14.825
77993SOL    HW135812   3.981  11.921  14.839
77993SOL    HW235813   3.946  11.820  14.731
77994SOL     OW35814   9.254   9.269   3.187
77994SOL    HW135815   9.159   9.263   3.175
77994SOL    HW235816   9.287   9.185   3.155
77995SOL     OW35817  13.044   5.144  13.574
77995SOL    HW135818  12.980   5.216  13.571
77995SOL    HW235819  13.123   5.182  13.536
77996SOL     OW35820   1.048  13.460   2.750
77996SOL    HW135821   0.999  13.541   2.756
77996SOL    HW235822   0.982  13.392   2.743
77997SOL     OW35823   3.323   3.182   7.645
77997SOL    HW135824   3.367   3.141   7.720
77997SOL    HW235825   3.293   3.108   7.592
77998SOL     OW35826   9.358   2.483   4.224
77998SOL    HW135827   9.360   2.579   4.227
77998SOL    HW235828   9.282   2.462   4.170
77999SOL     OW35829   6.631   1.156   2.846
77999SOL    HW135830   6.565   1.217   2.877
77999SOL    HW235831   6.710   1.209   2.836
78000SOL     OW35832   0.432  12.241   1.658
78000SOL    HW135833   0.429  12.333   1.686
78000SOL    HW235834   0.511  12.236   1.604
78001SOL     OW35835  12.549   6.290   7.165
78001SOL    HW135836  12.532   6.306   7.258
78001SOL    HW235837  12.548   6.195   7.157
78002SOL     OW35838  13.786   7.630   7.922
78002SOL    HW135839  13.828   7.713   7.943
78002SOL    HW235840  13.693   7.646   7.935
78003SOL     OW35841   4.842  14.677   5.246
78003SOL    HW135842   4.897  14.716   5.313
78003SOL    HW235843   4.805  14.599   5.288
78004SOL     OW35844   1.090   8.048  12.831
78004SOL    HW135845   1.028   7.989  12.788
78004SOL    HW235846   1.073   8.036  12.924
78005SOL     OW35847   7.433  13.756   2.098
78005SOL    HW135848   7.373  13.684   2.116
78005SOL    HW235849   7.492  13.757   2.173
78006SOL     OW35850  12.764  10.191   3.613
78006SOL    HW135851  12.760  10.113   3.557
78006SOL    HW235852  12.729  10.163   3.697
78007SOL     OW35853  11.997   6.742   1.780
78007SOL    HW135854  11.996   6.670   1.716
78007SOL    HW235855  11.910   6.781   1.774
78008SOL     OW35856   9.978  11.241   8.682
78008SOL    HW135857   9.964  11.193   8.764
78008SOL    HW235858   9.932  11.189   8.616
78009SOL     OW35859  14.720  11.705   9.003
78009SOL    HW135860  14.633  11.683   9.034
78009SOL    HW235861  14.716  11.799   8.985
78010SOL     OW35862   5.470  10.253   1.255
78010SOL    HW135863   5.456  10.288   1.167
78010SOL    HW235864   5.554  10.207   1.249
78011SOL     OW35865   4.754  14.582   4.667
78011SOL    HW135866   4.701  14.642   4.615
78011SOL    HW235867   4.694  14.546   4.732
78012SOL     OW35868   9.848   2.684  12.991
78012SOL    HW135869   9.903   2.759  13.014
78012SOL    HW235870   9.782   2.719  12.932
78013SOL     OW35871   8.359   5.521  12.982
78013SOL    HW135872   8.349   5.494  13.074
78013SOL    HW235873   8.428   5.588  12.984
78014SOL     OW35874   2.706  12.137   0.816
78014SOL    HW135875   2.643  12.198   0.776
78014SOL    HW235876   2.741  12.087   0.742
78015SOL     OW35877   4.276  12.807   2.107
78015SOL    HW135878   4.226  12.885   2.083
78015SOL    HW235879   4.349  12.840   2.159
78016SOL     OW35880   4.809   8.257   4.866
78016SOL    HW135881   4.793   8.345   4.833
78016SOL    HW235882   4.731   8.236   4.917
78017SOL     OW35883   4.001   6.891   1.946
78017SOL    HW135884   4.028   6.973   1.987
78017SOL    HW235885   3.938   6.853   2.008
78018SOL     OW35886  13.679   8.813   6.498
78018SOL    HW135887  13.694   8.899   6.536
78018SOL    HW235888  13.705   8.751   6.566
78019SOL     OW35889   6.555  14.717   2.067
78019SOL    HW135890   6.603  14.672   1.997
78019SOL    HW235891   6.620  14.730   2.136
78020SOL     OW35892   6.017   5.186   8.499
78020SOL    HW135893   6.078   5.237   8.552
78020SOL    HW235894   5.930   5.218   8.525
78021SOL     OW35895   9.228  14.097  14.632
78021SOL    HW135896   9.286  14.028  14.664
78021SOL    HW235897   9.267  14.123  14.548
78022SOL     OW35898   3.431   4.490  11.703
78022SOL    HW135899   3.403   4.533  11.783
78022SOL    HW235900   3.453   4.562  11.644
78023SOL     OW35901   9.804   3.873   6.123
78023SOL    HW135902   9.822   3.939   6.055
78023SOL    HW235903   9.888   3.860   6.166
78024SOL     OW35904   4.983   2.003   2.090
78024SOL    HW135905   4.952   1.966   2.172
78024SOL    HW235906   4.957   1.939   2.024
78025SOL     OW35907   0.881   5.906  14.653
78025SOL    HW135908   0.906   5.917  14.561
78025SOL    HW235909   0.817   5.975  14.669
78026SOL     OW35910  14.669   4.526  14.265
78026SOL    HW135911  14.612   4.454  14.241
78026SOL    HW235912  14.634   4.558  14.348
78027SOL     OW35913  13.590  10.383  14.519
78027SOL    HW135914  13.626  10.363  14.433
78027SOL    HW235915  13.633  10.465  14.544
78028SOL     OW35916   0.591   8.015   8.579
78028SOL    HW135917   0.638   8.081   8.528
78028SOL    HW235918   0.620   7.931   8.543
78029SOL     OW35919   1.964  11.470  12.919
78029SOL    HW135920   2.039  11.473  12.859
78029SOL    HW235921   1.887  11.469  12.862
78030SOL     OW35922   7.433  12.816  10.567
78030SOL    HW135923   7.513  12.790  10.521
78030SOL    HW235924   7.363  12.798  10.504
78031SOL     OW35925   6.014   4.789   7.898
78031SOL    HW135926   6.059   4.868   7.871
78031SOL    HW235927   6.081   4.737   7.942
78032SOL     OW35928  10.096   7.755   2.565
78032SOL    HW135929  10.158   7.828   2.562
78032SOL    HW235930  10.058   7.760   2.653
78033SOL     OW35931   0.033  11.476  10.739
78033SOL    HW135932   0.033  11.382  10.724
78033SOL    HW235933   0.002  11.514  10.657
78034SOL     OW35934   9.601  10.083   0.859
78034SOL    HW135935   9.633  10.049   0.775
78034SOL    HW235936   9.626  10.016   0.922
78035SOL     OW35937   4.238   2.201   1.757
78035SOL    HW135938   4.254   2.161   1.842
78035SOL    HW235939   4.245   2.128   1.694
78036SOL     OW35940   1.879   9.747  12.044
78036SOL    HW135941   1.974   9.747  12.054
78036SOL    HW235942   1.858   9.658  12.016
78037SOL     OW35943  12.395   1.285   5.387
78037SOL    HW135944  12.311   1.257   5.422
78037SOL    HW235945  12.426   1.209   5.337
78038SOL     OW35946   0.196   9.507  13.584
78038SOL    HW135947   0.242   9.562  13.520
78038SOL    HW235948   0.223   9.418  13.562
78039SOL     OW35949   1.266   4.668   7.035
78039SOL    HW135950   1.305   4.731   6.975
78039SOL    HW235951   1.341   4.620   7.071
78040SOL     OW35952   2.620  12.686   6.338
78040SOL    HW135953   2.576  12.767   6.312
78040SOL    HW235954   2.709  12.713   6.360
78041SOL     OW35955   8.085  10.129   1.223
78041SOL    HW135956   8.064  10.189   1.152
78041SOL    HW235957   8.181  10.126   1.224
78042SOL     OW35958  13.103   1.088  10.104
78042SOL    HW135959  13.110   1.150  10.032
78042SOL    HW235960  13.013   1.096  10.135
78043SOL     OW35961  12.424   5.723  11.864
78043SOL    HW135962  12.515   5.696  11.870
78043SOL    HW235963  12.397   5.696  11.776
78044SOL     OW35964  14.643   6.318   4.215
78044SOL    HW135965  14.724   6.349   4.174
78044SOL    HW235966  14.577   6.382   4.188
78045SOL     OW35967   2.998  13.917   0.672
78045SOL    HW135968   3.071  13.855   0.669
78045SOL    HW235969   3.021  13.985   0.609
78046SOL     OW35970   2.828  13.598  14.183
78046SOL    HW135971   2.802  13.540  14.254
78046SOL    HW235972   2.748  13.645  14.160
78047SOL     OW35973   4.415   2.609  10.800
78047SOL    HW135974   4.380   2.540  10.856
78047SOL    HW235975   4.510   2.609  10.817
78048SOL     OW35976   9.768   7.618   3.802
78048SOL    HW135977   9.774   7.546   3.865
78048SOL    HW235978   9.799   7.694   3.850
78049SOL     OW35979  12.227  13.141   9.682
78049SOL    HW135980  12.302  13.115   9.628
78049SOL    HW235981  12.226  13.076   9.753
78050SOL     OW35982   4.607  11.173   2.454
78050SOL    HW135983   4.627  11.228   2.529
78050SOL    HW235984   4.582  11.235   2.385
78051SOL     OW35985   9.142   4.104   7.368
78051SOL    HW135986   9.237   4.111   7.362
78051SOL    HW235987   9.109   4.188   7.336
78052SOL     OW35988   7.183  11.780  13.773
78052SOL    HW135989   7.267  11.755  13.813
78052SOL    HW235990   7.198  11.868  13.739
78053SOL     OW35991  13.178   7.892   7.258
78053SOL    HW135992  13.270   7.915   7.246
78053SOL    HW235993  13.139   7.968   7.300
78054SOL     OW35994   8.535   0.241   0.939
78054SOL    HW135995   8.573   0.163   0.899
78054SOL    HW235996   8.576   0.314   0.891
78055SOL     OW35997   0.875   2.684   0.913
78055SOL    HW135998   0.932   2.672   0.989
78055SOL    HW235999   0.787   2.670   0.947
78056SOL     OW36000  14.722   4.523   1.138
78056SOL    HW136001  14.809   4.557   1.115
78056SOL    HW236002  14.682   4.503   1.053
78057SOL     OW36003  12.344   5.567   1.794
78057SOL    HW136004  12.389   5.627   1.853
78057SOL    HW236005  12.264   5.542   1.840
78058SOL     OW36006   2.747   3.227   2.422
78058SOL    HW136007   2.836   3.250   2.450
78058SOL    HW236008   2.755   3.137   2.390
78059SOL     OW36009  10.672   0.011   3.798
78059SOL    HW136010  10.738  14.823   3.829
78059SOL    HW236011  10.611  14.830   3.747
78060SOL     OW36012  14.723  11.041  10.170
78060SOL    HW136013  14.686  10.963  10.211
78060SOL    HW236014  14.686  11.041  10.082
78061SOL     OW36015   8.957   7.122   1.610
78061SOL    HW136016   8.947   7.143   1.703
78061SOL    HW236017   8.933   7.203   1.564
78062SOL     OW36018   3.157   7.474  14.218
78062SOL    HW136019   3.185   7.559  14.183
78062SOL    HW236020   3.063   7.486  14.235
78063SOL     OW36021  13.692  13.384   6.478
78063SOL    HW136022  13.658  13.462   6.434
78063SOL    HW236023  13.769  13.359   6.427
78064SOL     OW36024   2.979  13.965   7.608
78064SOL    HW136025   3.046  13.978   7.675
78064SOL    HW236026   3.012  14.013   7.532
78065SOL     OW36027   3.369   7.953  11.054
78065SOL    HW136028   3.449   7.912  11.088
78065SOL    HW236029   3.298   7.896  11.085
78066SOL     OW36030   4.610   4.663   5.045
78066SOL    HW136031   4.560   4.743   5.063
78066SOL    HW236032   4.685   4.693   4.994
78067SOL     OW36033   1.529   6.380  13.530
78067SOL    HW136034   1.463   6.353  13.594
78067SOL    HW236035   1.478   6.419  13.459
78068SOL     OW36036   3.571  12.149   6.442
78068SOL    HW136037   3.538  12.070   6.486
78068SOL    HW236038   3.615  12.198   6.510
78069SOL     OW36039   3.063   4.901   6.332
78069SOL    HW136040   3.054   4.908   6.237
78069SOL    HW236041   3.144   4.948   6.352
78070SOL     OW36042  12.914   4.925   9.453
78070SOL    HW136043  12.948   4.895   9.368
78070SOL    HW236044  12.991   4.959   9.499
78071SOL     OW36045   0.251   6.544  11.848
78071SOL    HW136046   0.206   6.567  11.767
78071SOL    HW236047   0.284   6.627  11.882
78072SOL     OW36048   3.678  13.504   6.516
78072SOL    HW136049   3.649  13.578   6.569
78072SOL    HW236050   3.679  13.537   6.427
78073SOL     OW36051   0.574  14.651  10.429
78073SOL    HW136052   0.600  14.741  10.450
78073SOL    HW236053   0.656  14.602  10.428
78074SOL     OW36054   7.384  12.643   9.558
78074SOL    HW136055   7.464  12.692   9.544
78074SOL    HW236056   7.314  12.709   9.555
78075SOL     OW36057   8.617  13.325   7.227
78075SOL    HW136058   8.568  13.299   7.149
78075SOL    HW236059   8.678  13.392   7.196
78076SOL     OW36060   5.300   4.248   1.086
78076SOL    HW136061   5.260   4.176   1.036
78076SOL    HW236062   5.226   4.306   1.108
78077SOL     OW36063   3.137   1.421   5.782
78077SOL    HW136064   3.130   1.345   5.723
78077SOL    HW236065   3.186   1.486   5.732
78078SOL     OW36066  10.248   9.079  10.832
78078SOL    HW136067  10.217   9.102  10.744
78078SOL    HW236068  10.342   9.063  10.820
78079SOL     OW36069   6.379  14.642  10.887
78079SOL    HW136070   6.296  14.638  10.935
78079SOL    HW236071   6.364  14.706  10.818
78080SOL     OW36072   4.714  14.224   9.963
78080SOL    HW136073   4.774  14.298   9.974
78080SOL    HW236074   4.655  14.230  10.038
78081SOL     OW36075   8.461  14.501   0.592
78081SOL    HW136076   8.384  14.472   0.641
78081SOL    HW236077   8.495  14.421   0.553
78082SOL     OW36078  14.169   1.101   1.378
78082SOL    HW136079  14.196   1.083   1.468
78082SOL    HW236080  14.077   1.073   1.374
78083SOL     OW36081   9.105   0.260  14.079
78083SOL    HW136082   9.077   0.351  14.083
78083SOL    HW236083   9.047   0.214  14.140
78084SOL     OW36084  11.733   2.382   7.728
78084SOL    HW136085  11.681   2.347   7.655
78084SOL    HW236086  11.823   2.382   7.696
78085SOL     OW36087  11.223   0.594   1.204
78085SOL    HW136088  11.282   0.661   1.241
78085SOL    HW236089  11.162   0.644   1.150
78086SOL     OW36090   3.494   0.555   1.934
78086SOL    HW136091   3.541   0.537   2.015
78086SOL    HW236092   3.493   0.651   1.927
78087SOL     OW36093  10.798   2.441   8.806
78087SOL    HW136094  10.875   2.495   8.821
78087SOL    HW236095  10.792   2.435   8.710
78088SOL     OW36096   2.397   0.897  14.667
78088SOL    HW136097   2.361   0.986  14.667
78088SOL    HW236098   2.489   0.908  14.692
78089SOL     OW36099   9.321  11.093  11.901
78089SOL    HW136100   9.294  11.023  11.960
78089SOL    HW236101   9.296  11.174  11.947
78090SOL     OW36102  10.649   2.928   9.487
78090SOL    HW136103  10.656   2.949   9.394
78090SOL    HW236104  10.706   2.853   9.499
78091SOL     OW36105   5.581   6.477  12.856
78091SOL    HW136106   5.579   6.445  12.946
78091SOL    HW236107   5.599   6.571  12.864
78092SOL     OW36108   1.557  11.945   6.691
78092SOL    HW136109   1.503  12.024   6.693
78092SOL    HW236110   1.599  11.946   6.605
78093SOL     OW36111  10.151   7.936   9.357
78093SOL    HW136112  10.236   7.911   9.394
78093SOL    HW236113  10.169   7.952   9.265
78094SOL     OW36114   4.531   5.877  11.948
78094SOL    HW136115   4.467   5.929  11.901
78094SOL    HW236116   4.601   5.861  11.885
78095SOL     OW36117   3.954   2.199  12.081
78095SOL    HW136118   4.025   2.151  12.122
78095SOL    HW236119   3.887   2.133  12.063
78096SOL     OW36120  13.350   6.305   3.624
78096SOL    HW136121  13.438   6.340   3.608
78096SOL    HW236122  13.335   6.320   3.717
78097SOL     OW36123   6.223   8.429  13.489
78097SOL    HW136124   6.234   8.334  13.491
78097SOL    HW236125   6.270   8.457  13.410
78098SOL     OW36126   8.565  11.613   1.723
78098SOL    HW136127   8.630  11.547   1.698
78098SOL    HW236128   8.606  11.661   1.795
78099SOL     OW36129  10.330  12.110  14.145
78099SOL    HW136130  10.290  12.047  14.205
78099SOL    HW236131  10.266  12.180  14.138
78100SOL     OW36132  14.727  10.419   5.092
78100SOL    HW136133  14.689  10.378   5.170
78100SOL    HW236134  14.660  10.481   5.063
78101SOL     OW36135   1.084   3.462   9.002
78101SOL    HW136136   1.141   3.532   8.968
78101SOL    HW236137   1.013   3.508   9.045
78102SOL     OW36138   6.823  11.039   8.267
78102SOL    HW136139   6.749  11.023   8.325
78102SOL    HW236140   6.850  11.129   8.286
78103SOL     OW36141   6.119   5.271  13.567
78103SOL    HW136142   6.030   5.289  13.538
78103SOL    HW236143   6.164   5.355  13.565
78104SOL     OW36144   0.973   3.631   7.184
78104SOL    HW136145   1.028   3.700   7.147
78104SOL    HW236146   0.944   3.665   7.268
78105SOL     OW36147   3.410  11.630  12.059
78105SOL    HW136148   3.403  11.559  12.122
78105SOL    HW236149   3.323  11.672  12.060
78106SOL     OW36150   7.569  11.983   9.594
78106SOL    HW136151   7.498  11.958   9.536
78106SOL    HW236152   7.644  12.000   9.536
78107SOL     OW36153   9.035   8.698   3.979
78107SOL    HW136154   9.021   8.792   3.985
78107SOL    HW236155   8.948   8.660   3.990
78108SOL     OW36156   6.809   3.953  10.292
78108SOL    HW136157   6.754   3.875  10.299
78108SOL    HW236158   6.897   3.919  10.272
78109SOL     OW36159   3.845  10.406   1.987
78109SOL    HW136160   3.816  10.316   2.004
78109SOL    HW236161   3.773  10.446   1.939
78110SOL     OW36162   3.576   1.362  13.696
78110SOL    HW136163   3.621   1.446  13.700
78110SOL    HW236164   3.496   1.380  13.646
78111SOL     OW36165   1.543  10.030   2.913
78111SOL    HW136166   1.470  10.033   2.851
78111SOL    HW236167   1.620  10.046   2.859
78112SOL     OW36168  14.462  13.718   0.289
78112SOL    HW136169  14.441  13.633   0.250
78112SOL    HW236170  14.464  13.778   0.215
78113SOL     OW36171   7.744  12.413   0.461
78113SOL    HW136172   7.814  12.445   0.405
78113SOL    HW236173   7.745  12.318   0.449
78114SOL     OW36174  14.361   4.779   8.155
78114SOL    HW136175  14.318   4.860   8.185
78114SOL    HW236176  14.448   4.783   8.194
78115SOL     OW36177   2.213  13.335   1.187
78115SOL    HW136178   2.208  13.325   1.282
78115SOL    HW236179   2.140  13.393   1.165
78116SOL     OW36180   4.605   2.074   6.627
78116SOL    HW136181   4.689   2.059   6.669
78116SOL    HW236182   4.567   1.987   6.616
78117SOL     OW36183  14.590   4.639   2.676
78117SOL    HW136184  14.527   4.620   2.607
78117SOL    HW236185  14.627   4.724   2.652
78118SOL     OW36186   5.136   5.576   2.317
78118SOL    HW136187   5.057   5.601   2.363
78118SOL    HW236188   5.128   5.617   2.231
78119SOL     OW36189   9.429  13.248   9.186
78119SOL    HW136190   9.445  13.307   9.112
78119SOL    HW236191   9.478  13.169   9.164
78120SOL     OW36192  10.607   9.518   4.234
78120SOL    HW136193  10.629   9.610   4.247
78120SOL    HW236194  10.527   9.505   4.286
78121SOL     OW36195  13.064   2.067   3.376
78121SOL    HW136196  13.104   2.149   3.405
78121SOL    HW236197  13.127   2.029   3.315
78122SOL     OW36198   1.499   4.899  11.622
78122SOL    HW136199   1.524   4.827  11.563
78122SOL    HW236200   1.552   4.885  11.701
78123SOL     OW36201   5.424  11.814   8.144
78123SOL    HW136202   5.391  11.889   8.094
78123SOL    HW236203   5.349  11.784   8.195
78124SOL     OW36204  14.329  10.758   0.455
78124SOL    HW136205  14.412  10.764   0.408
78124SOL    HW236206  14.349  10.790   0.543
78125SOL     OW36207   6.246   9.982   1.098
78125SOL    HW136208   6.280  10.069   1.119
78125SOL    HW236209   6.157   9.998   1.068
78126SOL     OW36210  13.270   3.300   2.401
78126SOL    HW136211  13.259   3.322   2.494
78126SOL    HW236212  13.364   3.286   2.392
78127SOL     OW36213   4.154   6.749   0.207
78127SOL    HW136214   4.073   6.783   0.244
78127SOL    HW236215   4.160   6.659   0.239
78128SOL     OW36216   0.326   1.742   0.686
78128SOL    HW136217   0.263   1.699   0.627
78128SOL    HW236218   0.405   1.690   0.678
78129SOL     OW36219  10.547   0.377  14.375
78129SOL    HW136220  10.548   0.300  14.318
78129SOL    HW236221  10.603   0.440  14.330
78130SOL     OW36222  13.318   6.036  10.239
78130SOL    HW136223  13.388   5.976  10.213
78130SOL    HW236224  13.341   6.064  10.327
78131SOL     OW36225   3.084  12.462   5.726
78131SOL    HW136226   3.061  12.491   5.815
78131SOL    HW236227   3.130  12.379   5.739
78132SOL     OW36228   2.817  10.153  12.847
78132SOL    HW136229   2.831  10.112  12.933
78132SOL    HW236230   2.778  10.085  12.794
78133SOL     OW36231   1.770  11.976   5.239
78133SOL    HW136232   1.772  11.918   5.315
78133SOL    HW236233   1.804  11.922   5.167
78134SOL     OW36234   6.988   7.618   1.464
78134SOL    HW136235   7.060   7.556   1.453
78134SOL    HW236236   7.030   7.696   1.500
78135SOL     OW36237  13.592  14.052  13.017
78135SOL    HW136238  13.588  13.992  13.092
78135SOL    HW236239  13.500  14.069  12.996
78136SOL     OW36240   2.411   2.633   7.499
78136SOL    HW136241   2.368   2.549   7.480
78136SOL    HW236242   2.376   2.659   7.584
78137SOL     OW36243   2.878   4.297   7.893
78137SOL    HW136244   2.870   4.255   7.979
78137SOL    HW236245   2.865   4.225   7.830
78138SOL     OW36246   9.881   5.996   2.659
78138SOL    HW136247   9.847   6.071   2.611
78138SOL    HW236248   9.974   6.014   2.671
78139SOL     OW36249   5.554   5.982   7.534
78139SOL    HW136250   5.494   5.934   7.591
78139SOL    HW236251   5.641   5.957   7.565
78140SOL     OW36252   2.035   3.363  10.354
78140SOL    HW136253   2.049   3.384  10.261
78140SOL    HW236254   1.940   3.371  10.366
78141SOL     OW36255   6.023  11.049  12.324
78141SOL    HW136256   5.972  10.969  12.312
78141SOL    HW236257   5.970  11.118  12.285
78142SOL     OW36258   6.042  13.764   6.190
78142SOL    HW136259   5.987  13.837   6.221
78142SOL    HW236260   5.981  13.692   6.177
78143SOL     OW36261  13.695   8.961   0.184
78143SOL    HW136262  13.622   8.967   0.245
78143SOL    HW236263  13.654   8.967   0.097
78144SOL     OW36264  11.081   3.981   3.643
78144SOL    HW136265  11.035   4.024   3.572
78144SOL    HW236266  11.029   4.001   3.721
78145SOL     OW36267   8.928  14.229   3.958
78145SOL    HW136268   8.876  14.218   3.878
78145SOL    HW236269   8.980  14.149   3.964
78146SOL     OW36270   4.275   5.119  10.276
78146SOL    HW136271   4.266   5.061  10.200
78146SOL    HW236272   4.194   5.106  10.326
78147SOL     OW36273   6.955   9.199  13.058
78147SOL    HW136274   6.888   9.191  12.989
78147SOL    HW236275   6.916   9.156  13.134
78148SOL     OW36276  14.695   7.795   5.811
78148SOL    HW136277  14.699   7.844   5.729
78148SOL    HW236278  14.781   7.810   5.851
78149SOL     OW36279  12.598  10.896   8.884
78149SOL    HW136280  12.547  10.940   8.816
78149SOL    HW236281  12.560  10.808   8.889
78150SOL     OW36282   8.554   1.326   8.092
78150SOL    HW136283   8.593   1.309   8.006
78150SOL    HW236284   8.546   1.422   8.096
78151SOL     OW36285  13.932   5.859   8.097
78151SOL    HW136286  13.880   5.801   8.152
78151SOL    HW236287  13.884   5.863   8.014
78152SOL     OW36288   2.485   6.218  11.563
78152SOL    HW136289   2.455   6.143  11.512
78152SOL    HW236290   2.425   6.289  11.540
78153SOL     OW36291  13.104   2.579   8.178
78153SOL    HW136292  13.085   2.530   8.098
78153SOL    HW236293  13.033   2.556   8.238
78154SOL     OW36294   5.876   0.898  10.726
78154SOL    HW136295   5.787   0.934  10.724
78154SOL    HW236296   5.875   0.828  10.661
78155SOL     OW36297  13.558  12.229   2.207
78155SOL    HW136298  13.579  12.166   2.276
78155SOL    HW236299  13.606  12.308   2.231
78156SOL     OW36300  10.673   0.199  14.770
78156SOL    HW136301  10.628   0.165  14.847
78156SOL    HW236302  10.623   0.277  14.745
78157SOL     OW36303   8.518   9.343   1.791
78157SOL    HW136304   8.472   9.381   1.866
78157SOL    HW236305   8.610   9.364   1.806
78158SOL     OW36306   5.966  11.248   8.772
78158SOL    HW136307   5.973  11.192   8.849
78158SOL    HW236308   5.941  11.188   8.701
78159SOL     OW36309  14.426  13.845  12.136
78159SOL    HW136310  14.376  13.764  12.146
78159SOL    HW236311  14.492  13.824  12.069
78160SOL     OW36312   7.045   5.320  12.404
78160SOL    HW136313   6.978   5.277  12.352
78160SOL    HW236314   7.006   5.403  12.432
78161SOL     OW36315   4.583   8.705   8.278
78161SOL    HW136316   4.592   8.717   8.372
78161SOL    HW236317   4.626   8.780   8.239
78162SOL     OW36318  14.067   0.734  13.006
78162SOL    HW136319  14.056   0.731  12.911
78162SOL    HW236320  14.136   0.670  13.024
78163SOL     OW36321  14.049  13.918  10.878
78163SOL    HW136322  14.130  13.866  10.871
78163SOL    HW236323  14.079  14.009  10.884
78164SOL     OW36324   1.320  11.501   8.997
78164SOL    HW136325   1.341  11.577   8.943
78164SOL    HW236326   1.260  11.449   8.944
78165SOL     OW36327   7.987   2.293   1.934
78165SOL    HW136328   8.041   2.324   2.007
78165SOL    HW236329   7.897   2.294   1.968
78166SOL     OW36330  14.861   7.130  11.397
78166SOL    HW136331   0.001   7.154  11.305
78166SOL    HW236332  14.782   7.076  11.397
78167SOL     OW36333   3.955   8.808  12.528
78167SOL    HW136334   3.893   8.780  12.460
78167SOL    HW236335   3.926   8.895  12.554
78168SOL     OW36336   2.616   9.061   7.999
78168SOL    HW136337   2.545   9.036   7.939
78168SOL    HW236338   2.663   8.979   8.016
78169SOL     OW36339   6.636  10.498  11.867
78169SOL    HW136340   6.573  10.430  11.891
78169SOL    HW236341   6.667  10.471  11.781
78170SOL     OW36342   0.633   6.790   1.904
78170SOL    HW136343   0.594   6.779   1.990
78170SOL    HW236344   0.585   6.862   1.864
78171SOL     OW36345   9.682   3.489   8.111
78171SOL    HW136346   9.636   3.549   8.051
78171SOL    HW236347   9.691   3.408   8.061
78172SOL     OW36348  10.397   6.393   8.997
78172SOL    HW136349  10.397   6.330   8.924
78172SOL    HW236350  10.487   6.426   9.000
78173SOL     OW36351  13.248   6.558   7.922
78173SOL    HW136352  13.319   6.575   7.984
78173SOL    HW236353  13.211   6.644   7.904
78174SOL     OW36354  12.056   5.863   9.748
78174SOL    HW136355  11.971   5.868   9.704
78174SOL    HW236356  12.098   5.946   9.726
78175SOL     OW36357  11.987  14.366   4.008
78175SOL    HW136358  12.040  14.294   4.041
78175SOL    HW236359  12.038  14.402   3.935
78176SOL     OW36360   5.222   3.793   3.478
78176SOL    HW136361   5.283   3.731   3.518
78176SOL    HW236362   5.278   3.862   3.444
78177SOL     OW36363   8.202   0.778   1.513
78177SOL    HW136364   8.172   0.814   1.597
78177SOL    HW236365   8.208   0.855   1.455
78178SOL     OW36366   6.897  14.401   1.132
78178SOL    HW136367   6.873  14.312   1.159
78178SOL    HW236368   6.882  14.403   1.038
78179SOL     OW36369  10.497   5.876   2.798
78179SOL    HW136370  10.490   5.782   2.814
78179SOL    HW236371  10.483   5.916   2.884
78180SOL     OW36372   2.633  13.941   7.059
78180SOL    HW136373   2.572  13.868   7.051
78180SOL    HW236374   2.675  13.928   7.144
78181SOL     OW36375   7.856   7.403  11.897
78181SOL    HW136376   7.926   7.391  11.961
78181SOL    HW236377   7.874   7.489  11.857
78182SOL     OW36378   1.387   1.622   7.556
78182SOL    HW136379   1.376   1.529   7.538
78182SOL    HW236380   1.423   1.625   7.645
78183SOL     OW36381   2.585   0.074   4.336
78183SOL    HW136382   2.583   0.010   4.265
78183SOL    HW236383   2.678   0.089   4.352
78184SOL     OW36384  14.140   5.404  12.967
78184SOL    HW136385  14.160   5.471  13.032
78184SOL    HW236386  14.060   5.435  12.925
78185SOL     OW36387   8.003   6.217  12.803
78185SOL    HW136388   7.969   6.296  12.761
78185SOL    HW236389   8.030   6.161  12.730
78186SOL     OW36390   5.768   6.734   3.569
78186SOL    HW136391   5.793   6.773   3.486
78186SOL    HW236392   5.851   6.718   3.615
78187SOL     OW36393   5.943   6.838   7.273
78187SOL    HW136394   5.976   6.928   7.263
78187SOL    HW236395   5.866   6.847   7.328
78188SOL     OW36396   0.760  13.879   5.914
78188SOL    HW136397   0.669  13.908   5.903
78188SOL    HW236398   0.803  13.951   5.958
78189SOL     OW36399   6.912   0.290  11.642
78189SOL    HW136400   6.882   0.313  11.554
78189SOL    HW236401   6.988   0.348  11.658
78190SOL     OW36402   3.164   3.606   8.591
78190SOL    HW136403   3.120   3.677   8.543
78190SOL    HW236404   3.094   3.545   8.613
78191SOL     OW36405   2.988   9.772   4.789
78191SOL    HW136406   2.915   9.776   4.727
78191SOL    HW236407   2.989   9.859   4.831
78192SOL     OW36408   4.481   1.646   7.220
78192SOL    HW136409   4.447   1.736   7.216
78192SOL    HW236410   4.574   1.657   7.241
78193SOL     OW36411   9.689   2.846  11.836
78193SOL    HW136412   9.736   2.764  11.853
78193SOL    HW236413   9.753   2.902  11.793
78194SOL     OW36414   3.024   5.078  12.497
78194SOL    HW136415   3.039   5.165  12.534
78194SOL    HW236416   3.107   5.032  12.511
78195SOL     OW36417  13.516  10.211   1.262
78195SOL    HW136418  13.446  10.234   1.200
78195SOL    HW236419  13.566  10.143   1.217
78196SOL     OW36420   9.503   9.269   2.172
78196SOL    HW136421   9.555   9.348   2.180
78196SOL    HW236422   9.413   9.297   2.190
78197SOL     OW36423   3.437  12.386  11.687
78197SOL    HW136424   3.360  12.372  11.632
78197SOL    HW236425   3.485  12.457  11.643
78198SOL     OW36426   8.535   2.006  12.253
78198SOL    HW136427   8.446   2.039  12.239
78198SOL    HW236428   8.528   1.946  12.326
78199SOL     OW36429  10.799   4.551   3.633
78199SOL    HW136430  10.850   4.515   3.560
78199SOL    HW236431  10.849   4.628   3.661
78200SOL     OW36432   2.769   8.581  14.239
78200SOL    HW136433   2.752   8.492  14.269
78200SOL    HW236434   2.684   8.625  14.242
78201SOL     OW36435  13.058   3.348   2.204
78201SOL    HW136436  13.124   3.288   2.239
78201SOL    HW236437  13.078   3.433   2.244
78202SOL     OW36438   0.224  12.239   4.012
78202SOL    HW136439   0.262  12.307   4.068
78202SOL    HW236440   0.256  12.259   3.924
78203SOL     OW36441  12.948   1.871  13.565
78203SOL    HW136442  12.866   1.838  13.602
78203SOL    HW236443  13.014   1.806  13.590
78204SOL     OW36444   5.989  12.673  13.971
78204SOL    HW136445   6.022  12.649  13.884
78204SOL    HW236446   6.002  12.768  13.976
78205SOL     OW36447   5.183   5.531   5.127
78205SOL    HW136448   5.246   5.548   5.196
78205SOL    HW236449   5.225   5.465   5.071
78206SOL     OW36450  12.340   1.242   9.628
78206SOL    HW136451  12.252   1.255   9.593
78206SOL    HW236452  12.345   1.148   9.647
78207SOL     OW36453   1.811   9.906   9.584
78207SOL    HW136454   1.826   9.998   9.564
78207SOL    HW236455   1.883   9.859   9.542
78208SOL     OW36456  10.265   3.642  10.655
78208SOL    HW136457  10.204   3.570  10.670
78208SOL    HW236458  10.282   3.640  10.561
78209SOL     OW36459   4.711   4.201  11.928
78209SOL    HW136460   4.618   4.184  11.948
78209SOL    HW236461   4.758   4.128  11.967
78210SOL     OW36462  10.270  10.350   5.922
78210SOL    HW136463  10.259  10.419   5.987
78210SOL    HW236464  10.364  10.347   5.905
78211SOL     OW36465   2.267   5.738   1.392
78211SOL    HW136466   2.307   5.733   1.305
78211SOL    HW236467   2.295   5.823   1.427
78212SOL     OW36468   6.105   3.714   1.439
78212SOL    HW136469   6.074   3.751   1.357
78212SOL    HW236470   6.054   3.758   1.507
78213SOL     OW36471   1.165  10.563  12.218
78213SOL    HW136472   1.154  10.635  12.281
78213SOL    HW236473   1.236  10.592  12.161
78214SOL     OW36474  12.245  12.677   3.951
78214SOL    HW136475  12.306  12.627   3.898
78214SOL    HW236476  12.227  12.622   4.027
78215SOL     OW36477   3.769   3.362   3.558
78215SOL    HW136478   3.840   3.314   3.601
78215SOL    HW236479   3.777   3.451   3.591
78216SOL     OW36480   1.291  12.894  10.816
78216SOL    HW136481   1.263  12.961  10.753
78216SOL    HW236482   1.226  12.899  10.886
78217SOL     OW36483   2.901   3.879  13.193
78217SOL    HW136484   2.882   3.918  13.108
78217SOL    HW236485   2.895   3.785  13.179
78218SOL     OW36486   1.309   6.988   6.452
78218SOL    HW136487   1.322   6.985   6.547
78218SOL    HW236488   1.317   7.081   6.430
78219SOL     OW36489   4.610  12.561   0.824
78219SOL    HW136490   4.645  12.636   0.872
78219SOL    HW236491   4.564  12.599   0.750
78220SOL     OW36492   8.493   8.960   4.764
78220SOL    HW136493   8.514   9.027   4.829
78220SOL    HW236494   8.442   9.006   4.698
78221SOL     OW36495   7.183   7.770   0.193
78221SOL    HW136496   7.225   7.792   0.109
78221SOL    HW236497   7.129   7.846   0.213
78222SOL     OW36498  12.750   1.542   4.215
78222SOL    HW136499  12.733   1.636   4.220
78222SOL    HW236500  12.845   1.535   4.209
78223SOL     OW36501   8.078   1.829  11.205
78223SOL    HW136502   7.999   1.779  11.184
78223SOL    HW236503   8.055   1.920  11.183
78224SOL     OW36504  12.035   7.899  11.335
78224SOL    HW136505  12.056   7.990  11.311
78224SOL    HW236506  11.942   7.889  11.314
78225SOL     OW36507  11.314   2.489  11.891
78225SOL    HW136508  11.328   2.429  11.964
78225SOL    HW236509  11.287   2.571  11.932
78226SOL     OW36510   5.139   7.315   3.853
78226SOL    HW136511   5.124   7.287   3.763
78226SOL    HW236512   5.104   7.244   3.907
78227SOL     OW36513   3.264   7.386  13.236
78227SOL    HW136514   3.285   7.394  13.329
78227SOL    HW236515   3.260   7.476  13.205
78228SOL     OW36516   8.161   5.842   3.995
78228SOL    HW136517   8.093   5.908   3.981
78228SOL    HW236518   8.139   5.771   3.935
78229SOL     OW36519   2.902   2.962  11.150
78229SOL    HW136520   2.838   2.934  11.085
78229SOL    HW236521   2.863   2.937  11.234
78230SOL     OW36522   4.586   3.686   4.605
78230SOL    HW136523   4.505   3.721   4.568
78230SOL    HW236524   4.575   3.694   4.699
78231SOL     OW36525  12.090   1.300   5.807
78231SOL    HW136526  12.025   1.362   5.773
78231SOL    HW236527  12.128   1.260   5.729
78232SOL     OW36528   3.873   2.657   6.343
78232SOL    HW136529   3.933   2.685   6.412
78232SOL    HW236530   3.894   2.714   6.268
78233SOL     OW36531   9.545  13.174  13.204
78233SOL    HW136532   9.456  13.190  13.236
78233SOL    HW236533   9.550  13.079  13.194
78234SOL     OW36534   8.952  10.620   3.634
78234SOL    HW136535   8.947  10.554   3.565
78234SOL    HW236536   9.044  10.624   3.657
78235SOL     OW36537  13.298   3.315   3.997
78235SOL    HW136538  13.353   3.394   3.995
78235SOL    HW236539  13.268   3.309   4.087
78236SOL     OW36540   8.779  11.101   1.664
78236SOL    HW136541   8.872  11.079   1.660
78236SOL    HW236542   8.758  11.132   1.577
78237SOL     OW36543   5.482   7.345  11.124
78237SOL    HW136544   5.517   7.429  11.154
78237SOL    HW236545   5.534   7.325  11.046
78238SOL     OW36546  11.435   2.006  11.346
78238SOL    HW136547  11.400   2.067  11.410
78238SOL    HW236548  11.521   2.041  11.323
78239SOL     OW36549  11.813  13.129  10.275
78239SOL    HW136550  11.795  13.176  10.193
78239SOL    HW236551  11.906  13.144  10.291
78240SOL     OW36552  11.856  13.567  11.863
78240SOL    HW136553  11.857  13.508  11.939
78240SOL    HW236554  11.873  13.510  11.788
78241SOL     OW36555   2.826  12.511   1.940
78241SOL    HW136556   2.875  12.593   1.930
78241SOL    HW236557   2.854  12.457   1.866
78242SOL     OW36558   0.595   9.632  12.869
78242SOL    HW136559   0.561   9.631  12.959
78242SOL    HW236560   0.581   9.722  12.839
78243SOL     OW36561   4.322   3.676   2.981
78243SOL    HW136562   4.311   3.593   2.936
78243SOL    HW236563   4.366   3.653   3.063
78244SOL     OW36564   4.306   2.294  11.662
78244SOL    HW136565   4.239   2.335  11.606
78244SOL    HW236566   4.267   2.294  11.749
78245SOL     OW36567   9.637   2.245  11.982
78245SOL    HW136568   9.612   2.158  12.013
78245SOL    HW236569   9.645   2.235  11.887
78246SOL     OW36570   0.508   8.794   6.566
78246SOL    HW136571   0.498   8.743   6.485
78246SOL    HW236572   0.545   8.731   6.629
78247SOL     OW36573  12.071   2.979   3.192
78247SOL    HW136574  12.163   2.954   3.188
78247SOL    HW236575  12.038   2.937   3.271
78248SOL     OW36576  14.637   0.560   9.155
78248SOL    HW136577  14.685   0.479   9.172
78248SOL    HW236578  14.693   0.608   9.094
78249SOL     OW36579  11.503   4.816   8.251
78249SOL    HW136580  11.481   4.835   8.159
78249SOL    HW236581  11.517   4.721   8.252
78250SOL     OW36582   6.101  14.629  14.829
78250SOL    HW136583   6.009  14.604  14.817
78250SOL    HW236584   6.099  14.692   0.028
78251SOL     OW36585  14.360  12.844  11.464
78251SOL    HW136586  14.451  12.866  11.482
78251SOL    HW236587  14.340  12.772  11.524
78252SOL     OW36588   4.459   4.866   3.738
78252SOL    HW136589   4.386   4.915   3.774
78252SOL    HW236590   4.490   4.811   3.811
78253SOL     OW36591  13.959   5.486  10.094
78253SOL    HW136592  13.873   5.527  10.109
78253SOL    HW236593  14.018   5.559  10.077
78254SOL     OW36594   4.667   0.748   4.226
78254SOL    HW136595   4.702   0.695   4.297
78254SOL    HW236596   4.688   0.838   4.251
78255SOL     OW36597   7.227   4.149   4.799
78255SOL    HW136598   7.221   4.205   4.876
78255SOL    HW236599   7.140   4.155   4.759
78256SOL     OW36600  13.206  11.504  10.896
78256SOL    HW136601  13.278  11.567  10.904
78256SOL    HW236602  13.248  11.418  10.894
78257SOL     OW36603  10.063  11.840  12.693
78257SOL    HW136604  10.065  11.747  12.673
78257SOL    HW236605  10.154  11.869  12.678
78258SOL     OW36606   7.065   3.425  12.899
78258SOL    HW136607   7.086   3.400  12.808
78258SOL    HW236608   7.023   3.347  12.935
78259SOL     OW36609   5.922  14.532   5.765
78259SOL    HW136610   5.832  14.557   5.787
78259SOL    HW236611   5.965  14.615   5.744
78260SOL     OW36612   0.483  11.067  10.793
78260SOL    HW136613   0.569  11.086  10.831
78260SOL    HW236614   0.482  10.973  10.781
78261SOL     OW36615   7.999  14.147  13.012
78261SOL    HW136616   7.967  14.106  13.093
78261SOL    HW236617   8.092  14.158  13.027
78262SOL     OW36618   7.421   0.984   3.539
78262SOL    HW136619   7.395   1.070   3.506
78262SOL    HW236620   7.381   0.979   3.626
78263SOL     OW36621  14.530   5.785  10.039
78263SOL    HW136622  14.538   5.834   9.958
78263SOL    HW236623  14.590   5.711  10.029
78264SOL     OW36624   0.905  10.909   4.446
78264SOL    HW136625   0.956  10.990   4.437
78264SOL    HW236626   0.884  10.884   4.356
78265SOL     OW36627   7.676  14.199  14.336
78265SOL    HW136628   7.586  14.207  14.304
78265SOL    HW236629   7.689  14.105  14.348
78266SOL     OW36630   9.430  10.700   5.712
78266SOL    HW136631   9.361  10.636   5.693
78266SOL    HW236632   9.399  10.745   5.790
78267SOL     OW36633   8.340   7.354   5.642
78267SOL    HW136634   8.348   7.259   5.642
78267SOL    HW236635   8.411   7.384   5.585
78268SOL     OW36636   9.780   1.227   4.563
78268SOL    HW136637   9.721   1.228   4.639
78268SOL    HW236638   9.730   1.271   4.494
78269SOL     OW36639   0.923   3.899   9.069
78269SOL    HW136640   0.994   3.956   9.039
78269SOL    HW236641   0.870   3.884   8.991
78270SOL     OW36642   6.852   3.092   9.058
78270SOL    HW136643   6.864   3.133   8.972
78270SOL    HW236644   6.759   3.103   9.077
78271SOL     OW36645  14.150   3.924   6.508
78271SOL    HW136646  14.198   3.968   6.437
78271SOL    HW236647  14.113   3.846   6.466
78272SOL     OW36648   8.949   8.091  13.608
78272SOL    HW136649   8.890   8.066  13.536
78272SOL    HW236650   9.027   8.037  13.594
78273SOL     OW36651  14.448   1.369   4.745
78273SOL    HW136652  14.503   1.446   4.754
78273SOL    HW236653  14.509   1.299   4.721
78274SOL     OW36654   7.115   7.033   4.466
78274SOL    HW136655   7.068   7.002   4.543
78274SOL    HW236656   7.055   7.096   4.425
78275SOL     OW36657   2.636   2.745  10.317
78275SOL    HW136658   2.590   2.742  10.234
78275SOL    HW236659   2.605   2.825  10.359
78276SOL     OW36660   7.884  12.292  11.140
78276SOL    HW136661   7.796  12.305  11.175
78276SOL    HW236662   7.925  12.231  11.201
78277SOL     OW36663  14.117   0.117   3.513
78277SOL    HW136664  14.203   0.077   3.527
78277SOL    HW236665  14.125   0.205   3.549
78278SOL     OW36666  10.138  11.765   8.743
78278SOL    HW136667  10.073  11.834   8.757
78278SOL    HW236668  10.222  11.811   8.741
78279SOL     OW36669  10.685   6.642   2.271
78279SOL    HW136670  10.736   6.698   2.329
78279SOL    HW236671  10.637   6.583   2.330
78280SOL     OW36672  13.766   3.506  10.031
78280SOL    HW136673  13.695   3.567  10.012
78280SOL    HW236674  13.743   3.468  10.116
78281SOL     OW36675   8.018   4.768   4.869
78281SOL    HW136676   8.071   4.693   4.844
78281SOL    HW236677   7.934   4.730   4.896
78282SOL     OW36678   7.268  10.651  12.058
78282SOL    HW136679   7.183  10.688  12.036
78282SOL    HW236680   7.290  10.595  11.984
78283SOL     OW36681   6.674   2.747  10.064
78283SOL    HW136682   6.680   2.823  10.006
78283SOL    HW236683   6.764   2.720  10.079
78284SOL     OW36684  13.848   7.407  13.249
78284SOL    HW136685  13.899   7.371  13.321
78284SOL    HW236686  13.854   7.342  13.180
78285SOL     OW36687   2.448  10.924   1.652
78285SOL    HW136688   2.419  10.858   1.715
78285SOL    HW236689   2.543  10.912   1.649
78286SOL     OW36690   6.254   7.797  13.245
78286SOL    HW136691   6.269   7.856  13.319
78286SOL    HW236692   6.181   7.837  13.197
78287SOL     OW36693   6.703   2.193   2.786
78287SOL    HW136694   6.705   2.266   2.848
78287SOL    HW236695   6.640   2.131   2.823
78288SOL     OW36696   7.057   1.171  12.660
78288SOL    HW136697   7.035   1.261  12.683
78288SOL    HW236698   7.128   1.179  12.596
78289SOL     OW36699   4.669   3.523   3.656
78289SOL    HW136700   4.692   3.561   3.741
78289SOL    HW236701   4.675   3.596   3.595
78290SOL     OW36702   3.702  13.094   8.083
78290SOL    HW136703   3.700  13.162   8.015
78290SOL    HW236704   3.625  13.113   8.137
78291SOL     OW36705   7.379   0.281  14.366
78291SOL    HW136706   7.450   0.338  14.335
78291SOL    HW236707   7.422   0.199  14.389
78292SOL     OW36708  13.517   7.287  13.599
78292SOL    HW136709  13.464   7.264  13.675
78292SOL    HW236710  13.538   7.380  13.612
78293SOL     OW36711  11.128   5.925   5.974
78293SOL    HW136712  11.185   5.849   5.963
78293SOL    HW236713  11.180   5.999   5.943
78294SOL     OW36714   0.844   8.830  11.021
78294SOL    HW136715   0.788   8.901  10.988
78294SOL    HW236716   0.928   8.843  10.978
78295SOL     OW36717   5.275   9.384  13.481
78295SOL    HW136718   5.237   9.445  13.544
78295SOL    HW236719   5.258   9.424  13.395
78296SOL     OW36720  12.437   9.372   1.779
78296SOL    HW136721  12.504   9.424   1.734
78296SOL    HW236722  12.378   9.344   1.709
78297SOL     OW36723   2.798   5.683  12.426
78297SOL    HW136724   2.829   5.773  12.430
78297SOL    HW236725   2.767   5.664  12.514
78298SOL     OW36726   8.042   9.604   3.372
78298SOL    HW136727   7.997   9.579   3.452
78298SOL    HW236728   7.979   9.587   3.302
78299SOL     OW36729  13.056   6.979   6.279
78299SOL    HW136730  13.141   7.021   6.268
78299SOL    HW236731  13.069   6.889   6.249
78300SOL     OW36732  13.887   1.134  12.107
78300SOL    HW136733  13.870   1.215  12.154
78300SOL    HW236734  13.966   1.152  12.056
78301SOL     OW36735  13.303  10.694   7.313
78301SOL    HW136736  13.230  10.756   7.320
78301SOL    HW236737  13.354  10.708   7.393
78302SOL     OW36738  10.560  13.451   4.263
78302SOL    HW136739  10.592  13.427   4.350
78302SOL    HW236740  10.636  13.442   4.206
78303SOL     OW36741  11.068   6.509  12.577
78303SOL    HW136742  11.025   6.423  12.574
78303SOL    HW236743  11.161   6.490  12.568
78304SOL     OW36744   8.920  13.689  10.855
78304SOL    HW136745   8.993  13.748  10.839
78304SOL    HW236746   8.848  13.747  10.881
78305SOL     OW36747  12.684   9.796  12.229
78305SOL    HW136748  12.614   9.781  12.292
78305SOL    HW236749  12.639   9.804  12.145
78306SOL     OW36750  12.289   3.133  10.529
78306SOL    HW136751  12.272   3.129  10.435
78306SOL    HW236752  12.205   3.156  10.568
78307SOL     OW36753   3.982   0.501   5.658
78307SOL    HW136754   3.907   0.524   5.603
78307SOL    HW236755   3.944   0.485   5.745
78308SOL     OW36756  10.795  12.666  13.775
78308SOL    HW136757  10.736  12.725  13.821
78308SOL    HW236758  10.814  12.597  13.839
78309SOL     OW36759  11.119   8.536   8.487
78309SOL    HW136760  11.144   8.451   8.451
78309SOL    HW236761  11.157   8.600   8.427
78310SOL     OW36762  14.347  14.521   7.291
78310SOL    HW136763  14.383  14.451   7.237
78310SOL    HW236764  14.275  14.556   7.239
78311SOL     OW36765   4.628   6.362   1.421
78311SOL    HW136766   4.555   6.393   1.475
78311SOL    HW236767   4.603   6.273   1.397
78312SOL     OW36768  11.518   7.711   0.739
78312SOL    HW136769  11.563   7.665   0.810
78312SOL    HW236770  11.428   7.680   0.745
78313SOL     OW36771   7.755   4.785   7.183
78313SOL    HW136772   7.684   4.753   7.238
78313SOL    HW236773   7.734   4.754   7.095
78314SOL     OW36774   3.831  13.390   1.749
78314SOL    HW136775   3.790  13.449   1.685
78314SOL    HW236776   3.890  13.447   1.799
78315SOL     OW36777   5.195   4.546   8.351
78315SOL    HW136778   5.148   4.548   8.267
78315SOL    HW236779   5.277   4.592   8.333
78316SOL     OW36780   8.886   1.676   9.037
78316SOL    HW136781   8.869   1.634   8.952
78316SOL    HW236782   8.865   1.609   9.102
78317SOL     OW36783  13.108   4.191   3.234
78317SOL    HW136784  13.024   4.154   3.260
78317SOL    HW236785  13.172   4.123   3.257
78318SOL     OW36786   8.764   3.761   4.004
78318SOL    HW136787   8.844   3.797   3.967
78318SOL    HW236788   8.763   3.670   3.976
78319SOL     OW36789   5.048   6.426  12.076
78319SOL    HW136790   4.955   6.438  12.060
78319SOL    HW236791   5.066   6.478  12.155
78320SOL     OW36792   4.723   5.862   8.271
78320SOL    HW136793   4.689   5.945   8.304
78320SOL    HW236794   4.744   5.880   8.180
78321SOL     OW36795   0.523  14.439   6.981
78321SOL    HW136796   0.608  14.482   6.988
78321SOL    HW236797   0.490  14.437   7.071
78322SOL     OW36798  14.359   3.218   1.139
78322SOL    HW136799  14.315   3.258   1.064
78322SOL    HW236800  14.404   3.291   1.182
78323SOL     OW36801   0.730   3.798   0.045
78323SOL    HW136802   0.686   3.880   0.024
78323SOL    HW236803   0.749   3.804   0.138
78324SOL     OW36804   1.942   4.926   1.336
78324SOL    HW136805   1.994   4.895   1.411
78324SOL    HW236806   1.969   5.017   1.324
78325SOL     OW36807   6.535   5.679   9.184
78325SOL    HW136808   6.623   5.698   9.154
78325SOL    HW236809   6.505   5.760   9.226
78326SOL     OW36810   0.871   6.037   0.959
78326SOL    HW136811   0.956   6.066   0.928
78326SOL    HW236812   0.891   5.977   1.031
78327SOL     OW36813  12.869   8.848   1.894
78327SOL    HW136814  12.924   8.776   1.926
78327SOL    HW236815  12.831   8.886   1.974
78328SOL     OW36816  10.026   3.011  10.174
78328SOL    HW136817   9.956   3.072  10.199
78328SOL    HW236818  10.065   3.050  10.096
78329SOL     OW36819   4.197   1.066   8.658
78329SOL    HW136820   4.133   1.036   8.723
78329SOL    HW236821   4.231   1.148   8.693
78330SOL     OW36822   1.462   7.445   8.354
78330SOL    HW136823   1.438   7.401   8.273
78330SOL    HW236824   1.557   7.436   8.359
78331SOL     OW36825  10.137   8.597  10.862
78331SOL    HW136826  10.053   8.613  10.820
78331SOL    HW236827  10.164   8.683  10.895
78332SOL     OW36828  11.264   9.121  14.678
78332SOL    HW136829  11.192   9.139  14.740
78332SOL    HW236830  11.290   9.207  14.646
78333SOL     OW36831   5.708   8.174   2.869
78333SOL    HW136832   5.798   8.209   2.871
78333SOL    HW236833   5.664   8.228   2.803
78334SOL     OW36834  13.781  10.332   2.056
78334SOL    HW136835  13.761  10.249   2.098
78334SOL    HW236836  13.859  10.364   2.101
78335SOL     OW36837   6.490   0.046   1.901
78335SOL    HW136838   6.478  14.839   1.954
78335SOL    HW236839   6.585   0.054   1.893
78336SOL     OW36840  13.256   0.428   9.242
78336SOL    HW136841  13.193   0.371   9.197
78336SOL    HW236842  13.341   0.393   9.217
78337SOL     OW36843   1.875  14.259   4.856
78337SOL    HW136844   1.824  14.292   4.930
78337SOL    HW236845   1.817  14.195   4.814
78338SOL     OW36846  13.952   7.055  12.281
78338SOL    HW136847  13.959   7.070  12.376
78338SOL    HW236848  14.030   7.004  12.259
78339SOL     OW36849   2.765  11.375  12.320
78339SOL    HW136850   2.827  11.322  12.269
78339SOL    HW236851   2.818  11.448  12.353
78340SOL     OW36852  14.271   9.163   5.090
78340SOL    HW136853  14.189   9.176   5.137
78340SOL    HW236854  14.255   9.199   5.003
78341SOL     OW36855   4.619  10.612   4.914
78341SOL    HW136856   4.527  10.588   4.915
78341SOL    HW236857   4.624  10.686   4.852
78342SOL     OW36858  14.215   8.727   5.278
78342SOL    HW136859  14.249   8.817   5.278
78342SOL    HW236860  14.140   8.730   5.337
78343SOL     OW36861   5.230   9.222   7.394
78343SOL    HW136862   5.250   9.205   7.487
78343SOL    HW236863   5.233   9.136   7.353
78344SOL     OW36864  11.094   0.974   0.350
78344SOL    HW136865  11.156   0.994   0.279
78344SOL    HW236866  11.052   1.057   0.370
78345SOL     OW36867  12.150   4.292   0.060
78345SOL    HW136868  12.071   4.240   0.047
78345SOL    HW236869  12.219   4.241   0.018
78346SOL     OW36870   4.129  14.557  14.304
78346SOL    HW136871   4.210  14.606  14.292
78346SOL    HW236872   4.115  14.556  14.399
78347SOL     OW36873  10.932   0.426   9.641
78347SOL    HW136874  10.869   0.456   9.575
78347SOL    HW236875  10.995   0.374   9.591
78348SOL     OW36876   2.815   6.791   3.802
78348SOL    HW136877   2.896   6.841   3.804
78348SOL    HW236878   2.839   6.705   3.834
78349SOL     OW36879  11.852  10.110  12.934
78349SOL    HW136880  11.876  10.183  12.876
78349SOL    HW236881  11.757  10.109  12.932
78350SOL     OW36882   4.737   8.501  11.357
78350SOL    HW136883   4.731   8.466  11.268
78350SOL    HW236884   4.715   8.594  11.347
78351SOL     OW36885   6.196   3.376   5.867
78351SOL    HW136886   6.186   3.298   5.922
78351SOL    HW236887   6.130   3.437   5.901
78352SOL     OW36888   0.458   0.922   6.459
78352SOL    HW136889   0.523   0.992   6.445
78352SOL    HW236890   0.508   0.841   6.449
78353SOL     OW36891  13.139   5.781  12.466
78353SOL    HW136892  13.105   5.745  12.548
78353SOL    HW236893  13.158   5.872  12.486
78354SOL     OW36894  10.458  13.694   4.964
78354SOL    HW136895  10.384  13.634   4.965
78354SOL    HW236896  10.476  13.710   5.057
78355SOL     OW36897   6.266   6.353   7.136
78355SOL    HW136898   6.278   6.289   7.206
78355SOL    HW236899   6.188   6.403   7.161
78356SOL     OW36900  11.557   6.248   4.493
78356SOL    HW136901  11.547   6.329   4.543
78356SOL    HW236902  11.477   6.241   4.442
78357SOL     OW36903   5.346   4.013   3.984
78357SOL    HW136904   5.419   4.018   3.923
78357SOL    HW236905   5.280   3.961   3.940
78358SOL     OW36906   0.233   4.579   3.950
78358SOL    HW136907   0.268   4.658   3.910
78358SOL    HW236908   0.143   4.601   3.972
78359SOL     OW36909  13.816  11.323  14.629
78359SOL    HW136910  13.867  11.392  14.672
78359SOL    HW236911  13.804  11.257  14.697
78360SOL     OW36912   9.152  10.167   5.970
78360SOL    HW136913   9.084  10.227   5.939
78360SOL    HW236914   9.177  10.118   5.891
78361SOL     OW36915   1.270  13.363  14.036
78361SOL    HW136916   1.245  13.427  13.969
78361SOL    HW236917   1.190  13.348  14.086
78362SOL     OW36918  14.669   7.621   7.311
78362SOL    HW136919  14.666   7.592   7.219
78362SOL    HW236920  14.578   7.642   7.333
78363SOL     OW36921  14.076   1.249   1.168
78363SOL    HW136922  14.137   1.297   1.113
78363SOL    HW236923  14.130   1.215   1.240
78364SOL     OW36924   4.878   4.141  12.389
78364SOL    HW136925   4.782   4.137  12.384
78364SOL    HW236926   4.900   4.232  12.368
78365SOL     OW36927   3.683   3.030  12.212
78365SOL    HW136928   3.682   2.991  12.299
78365SOL    HW236929   3.757   3.090  12.214
78366SOL     OW36930   8.865   1.915   9.419
78366SOL    HW136931   8.855   1.830   9.375
78366SOL    HW236932   8.776   1.938   9.447
78367SOL     OW36933  14.322   8.027   1.285
78367SOL    HW136934  14.279   7.959   1.337
78367SOL    HW236935  14.308   8.001   1.194
78368SOL     OW36936   5.097   4.265   3.113
78368SOL    HW136937   5.052   4.190   3.151
78368SOL    HW236938   5.056   4.277   3.027
78369SOL     OW36939   3.827   7.884   3.191
78369SOL    HW136940   3.800   7.890   3.282
78369SOL    HW236941   3.810   7.793   3.166
78370SOL     OW36942   9.361  11.875   1.041
78370SOL    HW136943   9.318  11.812   0.984
78370SOL    HW236944   9.409  11.821   1.104
78371SOL     OW36945   8.839   3.594  14.559
78371SOL    HW136946   8.753   3.630  14.579
78371SOL    HW236947   8.899   3.643  14.615
78372SOL     OW36948   5.338  14.030  12.169
78372SOL    HW136949   5.370  14.042  12.080
78372SOL    HW236950   5.314  13.937  12.174
78373SOL     OW36951  14.221   7.057  11.001
78373SOL    HW136952  14.304   7.012  11.015
78373SOL    HW236953  14.154   6.990  11.015
78374SOL     OW36954  10.697   8.496   7.490
78374SOL    HW136955  10.652   8.554   7.552
78374SOL    HW236956  10.634   8.426   7.473
78375SOL     OW36957  12.144   8.631   4.665
78375SOL    HW136958  12.142   8.631   4.761
78375SOL    HW236959  12.164   8.541   4.641
78376SOL     OW36960  12.824   2.227   4.770
78376SOL    HW136961  12.886   2.164   4.805
78376SOL    HW236962  12.761   2.175   4.720
78377SOL     OW36963   4.951   7.374   5.086
78377SOL    HW136964   4.906   7.451   5.054
78377SOL    HW236965   5.005   7.405   5.159
78378SOL     OW36966   4.251   2.936   1.667
78378SOL    HW136967   4.187   2.928   1.738
78378SOL    HW236968   4.332   2.963   1.710
78379SOL     OW36969   2.893   7.131   7.211
78379SOL    HW136970   2.955   7.177   7.267
78379SOL    HW236971   2.946   7.097   7.139
78380SOL     OW36972   6.387   6.038   6.440
78380SOL    HW136973   6.466   6.089   6.426
78380SOL    HW236974   6.318   6.088   6.396
78381SOL     OW36975  13.079  13.617  12.490
78381SOL    HW136976  13.080  13.640  12.583
78381SOL    HW236977  13.119  13.691  12.447
78382SOL     OW36978  11.779  12.066   4.720
78382SOL    HW136979  11.786  11.971   4.708
78382SOL    HW236980  11.689  12.087   4.692
78383SOL     OW36981  10.669   8.147   1.042
78383SOL    HW136982  10.593   8.190   1.082
78383SOL    HW236983  10.738   8.156   1.108
78384SOL     OW36984   8.729  11.966  11.285
78384SOL    HW136985   8.698  11.875  11.285
78384SOL    HW236986   8.824  11.959  11.288
78385SOL     OW36987   5.281  12.658  11.009
78385SOL    HW136988   5.323  12.724  11.064
78385SOL    HW236989   5.197  12.697  10.984
78386SOL     OW36990   8.866   5.230   3.377
78386SOL    HW136991   8.831   5.318   3.392
78386SOL    HW236992   8.873   5.191   3.465
78387SOL     OW36993   1.517  11.804  14.575
78387SOL    HW136994   1.535  11.712  14.554
78387SOL    HW236995   1.601  11.849  14.560
78388SOL     OW36996   0.309   7.973   6.511
78388SOL    HW136997   0.261   8.055   6.495
78388SOL    HW236998   0.332   7.941   6.424
78389SOL     OW36999   8.474   0.573   6.700
78389SOL    HW137000   8.496   0.636   6.632
78389SOL    HW237001   8.546   0.580   6.763
78390SOL     OW37002   1.782  12.822   4.291
78390SOL    HW137003   1.696  12.849   4.259
78390SOL    HW237004   1.843  12.846   4.222
78391SOL     OW37005   7.514   4.331   4.867
78391SOL    HW137006   7.590   4.279   4.842
78391SOL    HW237007   7.439   4.280   4.837
78392SOL     OW37008   6.706  14.709   2.291
78392SOL    HW137009   6.728  14.622   2.324
78392SOL    HW237010   6.791  14.748   2.268
78393SOL     OW37011   6.233  11.795   9.987
78393SOL    HW137012   6.149  11.748   9.996
78393SOL    HW237013   6.290  11.733   9.941
78394SOL     OW37014   0.270   6.848   8.644
78394SOL    HW137015   0.292   6.921   8.701
78394SOL    HW237016   0.354   6.804   8.628
78395SOL     OW37017   6.763   2.103   6.937
78395SOL    HW137018   6.766   2.075   7.028
78395SOL    HW237019   6.694   2.050   6.897
78396SOL     OW37020   5.809   8.708   9.800
78396SOL    HW137021   5.901   8.707   9.771
78396SOL    HW237022   5.763   8.754   9.730
78397SOL     OW37023   6.557   2.958   2.759
78397SOL    HW137024   6.601   3.035   2.794
78397SOL    HW237025   6.478   2.992   2.718
78398SOL     OW37026   7.632  13.093   5.899
78398SOL    HW137027   7.566  13.128   5.959
78398SOL    HW237028   7.591  13.096   5.813
78399SOL     OW37029  12.803   6.977  11.249
78399SOL    HW137030  12.831   7.046  11.309
78399SOL    HW237031  12.709   6.989  11.240
78400SOL     OW37032   3.712  11.038  12.964
78400SOL    HW137033   3.700  10.989  13.045
78400SOL    HW237034   3.803  11.021  12.940
78401SOL     OW37035   2.567   7.261   7.671
78401SOL    HW137036   2.487   7.211   7.686
78401SOL    HW237037   2.541   7.331   7.611
78402SOL     OW37038  10.153   0.493  14.503
78402SOL    HW137039  10.160   0.447  14.586
78402SOL    HW237040  10.077   0.551  14.514
78403SOL     OW37041   1.015   0.912  10.416
78403SOL    HW137042   1.027   0.940  10.325
78403SOL    HW237043   1.008   0.817  10.411
78404SOL     OW37044   4.077   4.932  11.042
78404SOL    HW137045   4.150   4.974  10.996
78404SOL    HW237046   4.066   4.982  11.122
78405SOL     OW37047   3.928   9.892  13.596
78405SOL    HW137048   3.875   9.920  13.670
78405SOL    HW237049   3.871   9.832  13.547
78406SOL     OW37050   0.318  14.615   3.498
78406SOL    HW137051   0.350  14.695   3.457
78406SOL    HW237052   0.245  14.644   3.553
78407SOL     OW37053   6.344  14.515   2.118
78407SOL    HW137054   6.314  14.504   2.028
78407SOL    HW237055   6.374  14.606   2.122
78408SOL     OW37056   2.891   9.001   1.190
78408SOL    HW137057   2.936   9.063   1.133
78408SOL    HW237058   2.802   8.999   1.157
78409SOL     OW37059   3.654  12.585  10.686
78409SOL    HW137060   3.664  12.607  10.779
78409SOL    HW237061   3.660  12.489  10.684
78410SOL     OW37062   7.124   9.846  14.330
78410SOL    HW137063   7.182   9.909  14.288
78410SOL    HW237064   7.147   9.762  14.292
78411SOL     OW37065   1.128   9.300  13.365
78411SOL    HW137066   1.146   9.230  13.428
78411SOL    HW237067   1.215   9.329  13.335
78412SOL     OW37068   6.691   2.761   6.212
78412SOL    HW137069   6.719   2.699   6.145
78412SOL    HW237070   6.721   2.722   6.294
78413SOL     OW37071   5.575   6.635   5.431
78413SOL    HW137072   5.514   6.679   5.372
78413SOL    HW237073   5.660   6.674   5.412
78414SOL     OW37074   4.269   9.052   4.337
78414SOL    HW137075   4.300   9.082   4.422
78414SOL    HW237076   4.219   8.972   4.357
78415SOL     OW37077   9.318   8.081   9.985
78415SOL    HW137078   9.331   8.047  10.073
78415SOL    HW237079   9.367   8.163   9.982
78416SOL     OW37080  13.028   4.989   1.742
78416SOL    HW137081  13.078   4.998   1.824
78416SOL    HW237082  13.095   4.984   1.674
78417SOL     OW37083   4.453   7.964   7.140
78417SOL    HW137084   4.467   7.927   7.053
78417SOL    HW237085   4.406   7.896   7.188
78418SOL     OW37086  11.679   4.126   9.763
78418SOL    HW137087  11.750   4.146   9.702
78418SOL    HW237088  11.701   4.177   9.841
78419SOL     OW37089  13.050   4.317   1.149
78419SOL    HW137090  13.008   4.380   1.090
78419SOL    HW237091  13.140   4.311   1.118
78420SOL     OW37092   3.895  13.863   0.852
78420SOL    HW137093   3.890  13.851   0.757
78420SOL    HW237094   3.891  13.774   0.887
78421SOL     OW37095   6.793  12.680   2.493
78421SOL    HW137096   6.873  12.669   2.441
78421SOL    HW237097   6.737  12.735   2.439
78422SOL     OW37098  12.565  12.466   7.166
78422SOL    HW137099  12.474  12.437   7.160
78422SOL    HW237100  12.566  12.550   7.119
78423SOL     OW37101   2.805   7.573   6.250
78423SOL    HW137102   2.764   7.624   6.180
78423SOL    HW237103   2.893   7.608   6.257
78424SOL     OW37104   8.667  11.356   2.722
78424SOL    HW137105   8.624  11.409   2.789
78424SOL    HW237106   8.713  11.420   2.667
78425SOL     OW37107  12.447   2.735   6.435
78425SOL    HW137108  12.514   2.720   6.502
78425SOL    HW237109  12.454   2.659   6.377
78426SOL     OW37110   6.288   6.668   9.675
78426SOL    HW137111   6.366   6.631   9.716
78426SOL    HW237112   6.321   6.725   9.606
78427SOL     OW37113  13.125  13.655  10.542
78427SOL    HW137114  13.151  13.576  10.589
78427SOL    HW237115  13.153  13.639  10.452
78428SOL     OW37116   6.016   6.161   5.837
78428SOL    HW137117   6.073   6.237   5.835
78428SOL    HW237118   5.954   6.175   5.765
78429SOL     OW37119   5.345   7.302   4.043
78429SOL    HW137120   5.274   7.323   3.982
78429SOL    HW237121   5.323   7.350   4.123
78430SOL     OW37122   2.377   7.612   3.915
78430SOL    HW137123   2.462   7.596   3.956
78430SOL    HW237124   2.327   7.661   3.981
78431SOL     OW37125   9.117   6.106   3.230
78431SOL    HW137126   9.031   6.078   3.262
78431SOL    HW237127   9.173   6.104   3.307
78432SOL     OW37128   5.900   1.094   1.184
78432SOL    HW137129   5.874   1.048   1.104
78432SOL    HW237130   5.834   1.070   1.248
78433SOL     OW37131  13.837   1.361  10.445
78433SOL    HW137132  13.802   1.450  10.445
78433SOL    HW237133  13.794   1.319  10.371
78434SOL     OW37134   3.295  10.475   0.844
78434SOL    HW137135   3.199  10.477   0.838
78434SOL    HW237136   3.313  10.416   0.917
78435SOL     OW37137   8.632   8.762   6.548
78435SOL    HW137138   8.627   8.730   6.458
78435SOL    HW237139   8.618   8.857   6.540
78436SOL     OW37140  13.245  13.785   9.997
78436SOL    HW137141  13.321  13.759  10.049
78436SOL    HW237142  13.211  13.703   9.961
78437SOL     OW37143   1.276   2.539  13.606
78437SOL    HW137144   1.316   2.452  13.612
78437SOL    HW237145   1.207   2.529  13.541
78438SOL     OW37146  11.226  11.707   2.783
78438SOL    HW137147  11.200  11.619   2.808
78438SOL    HW237148  11.322  11.706   2.786
78439SOL     OW37149   6.683   9.525   2.921
78439SOL    HW137150   6.709   9.597   2.864
78439SOL    HW237151   6.604   9.490   2.880
78440SOL     OW37152   8.547   3.532   1.928
78440SOL    HW137153   8.579   3.622   1.933
78440SOL    HW237154   8.625   3.479   1.943
78441SOL     OW37155  13.618  14.556  12.183
78441SOL    HW137156  13.685  14.488  12.175
78441SOL    HW237157  13.591  14.552  12.275
78442SOL     OW37158   0.334  10.158  13.821
78442SOL    HW137159   0.364  10.161  13.730
78442SOL    HW237160   0.238  10.152  13.815
78443SOL     OW37161  13.803   1.669   8.991
78443SOL    HW137162  13.777   1.713   9.072
78443SOL    HW237163  13.800   1.737   8.924
78444SOL     OW37164   1.496   8.665  11.351
78444SOL    HW137165   1.573   8.664  11.407
78444SOL    HW237166   1.513   8.735  11.288
78445SOL     OW37167   7.165   9.830   0.835
78445SOL    HW137168   7.170   9.843   0.740
78445SOL    HW237169   7.223   9.756   0.852
78446SOL     OW37170   4.561   6.767  11.147
78446SOL    HW137171   4.506   6.738  11.073
78446SOL    HW237172   4.503   6.821  11.200
78447SOL     OW37173   0.695   7.525  13.852
78447SOL    HW137174   0.727   7.528  13.942
78447SOL    HW237175   0.606   7.491  13.860
78448SOL     OW37176   6.604  12.457   2.577
78448SOL    HW137177   6.680  12.512   2.592
78448SOL    HW237178   6.594  12.406   2.658
78449SOL     OW37179   7.289  11.420   1.534
78449SOL    HW137180   7.242  11.390   1.612
78449SOL    HW237181   7.236  11.492   1.500
78450SOL     OW37182   3.420   3.282   5.690
78450SOL    HW137183   3.381   3.318   5.770
78450SOL    HW237184   3.513   3.302   5.698
78451SOL     OW37185   2.139   5.713   2.266
78451SOL    HW137186   2.079   5.784   2.247
78451SOL    HW237187   2.082   5.640   2.293
78452SOL     OW37188   2.495  10.705   7.239
78452SOL    HW137189   2.509  10.752   7.157
78452SOL    HW237190   2.542  10.756   7.305
78453SOL     OW37191   5.668   0.236   7.436
78453SOL    HW137192   5.598   0.206   7.493
78453SOL    HW237193   5.629   0.307   7.384
78454SOL     OW37194  11.035   2.361  14.442
78454SOL    HW137195  11.048   2.279  14.395
78454SOL    HW237196  11.031   2.428  14.374
78455SOL     OW37197   7.089   7.556   4.536
78455SOL    HW137198   7.114   7.570   4.445
78455SOL    HW237199   7.055   7.640   4.566
78456SOL     OW37200   6.429   7.642  11.847
78456SOL    HW137201   6.487   7.648  11.922
78456SOL    HW237202   6.469   7.700  11.781
78457SOL     OW37203  10.265   9.269   1.454
78457SOL    HW137204  10.341   9.221   1.422
78457SOL    HW237205  10.189   9.220   1.421
78458SOL     OW37206   1.186   1.253   7.294
78458SOL    HW137207   1.106   1.216   7.332
78458SOL    HW237208   1.193   1.340   7.334
78459SOL     OW37209   9.761  14.159   9.664
78459SOL    HW137210   9.724  14.075   9.688
78459SOL    HW237211   9.817  14.140   9.588
78460SOL     OW37212  12.420   3.717   6.005
78460SOL    HW137213  12.410   3.711   6.100
78460SOL    HW237214  12.499   3.666   5.985
78461SOL     OW37215   5.903   6.976   4.230
78461SOL    HW137216   5.872   7.065   4.212
78461SOL    HW237217   5.950   6.984   4.313
78462SOL     OW37218  10.290   0.880   4.193
78462SOL    HW137219  10.366   0.934   4.217
78462SOL    HW237220  10.269   0.832   4.273
78463SOL     OW37221   4.766  12.842   4.355
78463SOL    HW137222   4.755  12.937   4.362
78463SOL    HW237223   4.714  12.806   4.427
78464SOL     OW37224  11.228   1.573   3.211
78464SOL    HW137225  11.142   1.533   3.226
78464SOL    HW237226  11.219   1.662   3.245
78465SOL     OW37227   6.624  14.074   9.542
78465SOL    HW137228   6.676  14.023   9.481
78465SOL    HW237229   6.562  14.011   9.580
78466SOL     OW37230   1.311   7.335  13.925
78466SOL    HW137231   1.339   7.373  14.009
78466SOL    HW237232   1.304   7.410  13.866
78467SOL     OW37233   8.478   6.787   0.477
78467SOL    HW137234   8.436   6.757   0.557
78467SOL    HW237235   8.565   6.816   0.504
78468SOL     OW37236  14.306  14.645   9.213
78468SOL    HW137237  14.339  14.731   9.237
78468SOL    HW237238  14.367  14.614   9.145
78469SOL     OW37239   3.653  12.606   2.076
78469SOL    HW137240   3.574  12.646   2.041
78469SOL    HW237241   3.694  12.675   2.129
78470SOL     OW37242   0.587   3.330   6.225
78470SOL    HW137243   0.595   3.306   6.133
78470SOL    HW237244   0.635   3.413   6.233
78471SOL     OW37245   4.166  11.991   4.817
78471SOL    HW137246   4.185  11.989   4.910
78471SOL    HW237247   4.218  11.919   4.780
78472SOL     OW37248   9.965  14.697   1.760
78472SOL    HW137249   9.982  14.617   1.710
78472SOL    HW237250  10.034  14.699   1.827
78473SOL     OW37251   0.173  14.606  10.368
78473SOL    HW137252   0.253  14.609  10.316
78473SOL    HW237253   0.102  14.607  10.304
78474SOL     OW37254   3.422   5.151  13.088
78474SOL    HW137255   3.506   5.151  13.041
78474SOL    HW237256   3.359   5.187  13.025
78475SOL     OW37257  10.187   6.446   6.666
78475SOL    HW137258  10.116   6.509   6.679
78475SOL    HW237259  10.261   6.499   6.636
78476SOL     OW37260  13.212  14.600   9.012
78476SOL    HW137261  13.190  14.507   9.018
78476SOL    HW237262  13.307  14.602   9.004
78477SOL     OW37263   3.460   6.162  13.731
78477SOL    HW137264   3.441   6.249  13.767
78477SOL    HW237265   3.540   6.174  13.681
78478SOL     OW37266  12.686  13.867   4.430
78478SOL    HW137267  12.650  13.848   4.516
78478SOL    HW237268  12.610  13.875   4.373
78479SOL     OW37269  12.290   2.368  10.074
78479SOL    HW137270  12.218   2.369  10.011
78479SOL    HW237271  12.251   2.331  10.153
78480SOL     OW37272   4.839  13.796   4.403
78480SOL    HW137273   4.807  13.780   4.491
78480SOL    HW237274   4.933  13.811   4.414
78481SOL     OW37275  14.556   6.980  12.211
78481SOL    HW137276  14.518   7.019  12.133
78481SOL    HW237277  14.579   7.055  12.267
78482SOL     OW37278   8.589   8.394   6.608
78482SOL    HW137279   8.555   8.386   6.697
78482SOL    HW237280   8.511   8.407   6.554
78483SOL     OW37281   9.737   7.681  13.937
78483SOL    HW137282   9.723   7.744  13.867
78483SOL    HW237283   9.792   7.728  14.000
78484SOL     OW37284   7.378   4.704   4.748
78484SOL    HW137285   7.377   4.647   4.671
78484SOL    HW237286   7.435   4.659   4.810
78485SOL     OW37287  14.393   0.470   6.712
78485SOL    HW137288  14.356   0.554   6.741
78485SOL    HW237289  14.488   0.482   6.717
78486SOL     OW37290  14.793  11.685   5.338
78486SOL    HW137291  14.848  11.757   5.307
78486SOL    HW237292  14.721  11.681   5.276
78487SOL     OW37293  11.489  11.007  10.012
78487SOL    HW137294  11.464  11.070  10.080
78487SOL    HW237295  11.420  10.941  10.014
78488SOL     OW37296   3.763   0.434  14.094
78488SOL    HW137297   3.839   0.456  14.040
78488SOL    HW237298   3.700   0.395  14.033
78489SOL     OW37299   0.817   3.067   0.832
78489SOL    HW137300   0.827   2.996   0.768
78489SOL    HW237301   0.900   3.068   0.880
78490SOL     OW37302   7.820  10.033  11.063
78490SOL    HW137303   7.887  10.040  10.995
78490SOL    HW237304   7.786   9.943  11.054
78491SOL     OW37305   4.172  11.027   2.016
78491SOL    HW137306   4.187  11.122   2.009
78491SOL    HW237307   4.213  10.991   1.938
78492SOL     OW37308  13.873  13.913   8.022
78492SOL    HW137309  13.821  13.841   8.059
78492SOL    HW237310  13.851  13.989   8.075
78493SOL     OW37311   8.983   4.548   2.628
78493SOL    HW137312   9.077   4.563   2.638
78493SOL    HW237313   8.971   4.537   2.534
78494SOL     OW37314   3.433  14.170   8.858
78494SOL    HW137315   3.523  14.176   8.888
78494SOL    HW237316   3.433  14.097   8.796
78495SOL     OW37317   1.743   8.402  12.605
78495SOL    HW137318   1.662   8.439  12.571
78495SOL    HW237319   1.716   8.320  12.648
78496SOL     OW37320   3.376   4.657  13.416
78496SOL    HW137321   3.323   4.591  13.371
78496SOL    HW237322   3.431   4.695  13.347
78497SOL     OW37323   1.621   3.306  12.626
78497SOL    HW137324   1.548   3.262  12.668
78497SOL    HW237325   1.582   3.350  12.550
78498SOL     OW37326   4.546   5.278   4.787
78498SOL    HW137327   4.575   5.361   4.827
78498SOL    HW237328   4.455   5.269   4.813
78499SOL     OW37329  14.467   3.010   7.131
78499SOL    HW137330  14.549   3.038   7.173
78499SOL    HW237331  14.415   2.973   7.203
78500SOL     OW37332   6.893  12.894   1.064
78500SOL    HW137333   6.967  12.851   1.021
78500SOL    HW237334   6.849  12.943   0.995
78501SOL     OW37335  14.631  12.661   7.056
78501SOL    HW137336  14.688  12.684   6.982
78501SOL    HW237337  14.661  12.575   7.083
78502SOL     OW37338   2.888  14.346  10.456
78502SOL    HW137339   2.876  14.372  10.547
78502SOL    HW237340   2.917  14.254  10.461
78503SOL     OW37341   7.899  14.818  12.526
78503SOL    HW137342   7.984  14.821  12.570
78503SOL    HW237343   7.919  14.835  12.434
78504SOL     OW37344   2.992   2.854  13.492
78504SOL    HW137345   3.047   2.822  13.421
78504SOL    HW237346   3.054   2.878  13.562
78505SOL     OW37347   0.619  11.308   5.031
78505SOL    HW137348   0.637  11.382   4.972
78505SOL    HW237349   0.691  11.247   5.014
78506SOL     OW37350   1.679  10.688   4.238
78506SOL    HW137351   1.745  10.693   4.307
78506SOL    HW237352   1.683  10.598   4.207
78507SOL     OW37353   7.607   0.927   5.229
78507SOL    HW137354   7.546   0.889   5.291
78507SOL    HW237355   7.671   0.858   5.212
78508SOL     OW37356   7.263  13.536   1.671
78508SOL    HW137357   7.287  13.552   1.580
78508SOL    HW237358   7.341  13.560   1.721
78509SOL     OW37359  11.226   2.568   1.346
78509SOL    HW137360  11.182   2.499   1.395
78509SOL    HW237361  11.213   2.543   1.254
78510SOL     OW37362   1.893  13.789   0.862
78510SOL    HW137363   1.977  13.784   0.907
78510SOL    HW237364   1.834  13.831   0.925
78511SOL     OW37365  10.971  13.136  13.412
78511SOL    HW137366  11.038  13.177  13.358
78511SOL    HW237367  10.981  13.177  13.498
78512SOL     OW37368  13.360   2.962  13.716
78512SOL    HW137369  13.415   2.900  13.669
78512SOL    HW237370  13.421   3.010  13.773
78513SOL     OW37371   3.718   9.226  12.165
78513SOL    HW137372   3.684   9.170  12.095
78513SOL    HW237373   3.810   9.201  12.172
78514SOL     OW37374   7.911  13.620   8.021
78514SOL    HW137375   7.946  13.682   8.084
78514SOL    HW237376   7.832  13.585   8.062
78515SOL     OW37377  14.348   3.842   9.706
78515SOL    HW137378  14.423   3.797   9.667
78515SOL    HW237379  14.361   3.833   9.800
78516SOL     OW37380   4.530  11.273  12.681
78516SOL    HW137381   4.492  11.191  12.714
78516SOL    HW237382   4.609  11.245  12.633
78517SOL     OW37383   2.137  13.372   6.049
78517SOL    HW137384   2.089  13.372   6.133
78517SOL    HW237385   2.146  13.465   6.027
78518SOL     OW37386   9.631  11.803  12.513
78518SOL    HW137387   9.672  11.867  12.571
78518SOL    HW237388   9.704  11.766  12.464
78519SOL     OW37389   9.657   2.443   9.302
78519SOL    HW137390   9.567   2.409   9.303
78519SOL    HW237391   9.696   2.406   9.223
78520SOL     OW37392   6.552  11.076   8.949
78520SOL    HW137393   6.501  11.047   9.024
78520SOL    HW237394   6.573  11.168   8.968
78521SOL     OW37395  13.600   2.805   4.364
78521SOL    HW137396  13.615   2.867   4.292
78521SOL    HW237397  13.537   2.849   4.421
78522SOL     OW37398  12.444  11.153   4.083
78522SOL    HW137399  12.389  11.229   4.102
78522SOL    HW237400  12.493  11.138   4.164
78523SOL     OW37401   6.205   8.421   5.527
78523SOL    HW137402   6.128   8.476   5.541
78523SOL    HW237403   6.246   8.415   5.613
78524SOL     OW37404   6.625   2.817  11.212
78524SOL    HW137405   6.601   2.909  11.211
78524SOL    HW237406   6.556   2.773  11.162
78525SOL     OW37407   5.718   6.845   2.958
78525SOL    HW137408   5.672   6.767   2.927
78525SOL    HW237409   5.745   6.824   3.048
78526SOL     OW37410   3.422   4.272   0.937
78526SOL    HW137411   3.406   4.251   1.029
78526SOL    HW237412   3.358   4.220   0.889
78527SOL     OW37413  11.369  13.976   5.807
78527SOL    HW137414  11.349  14.017   5.891
78527SOL    HW237415  11.464  13.965   5.808
78528SOL     OW37416   2.601  13.397  10.097
78528SOL    HW137417   2.613  13.487  10.066
78528SOL    HW237418   2.517  13.370  10.060
78529SOL     OW37419   5.052   4.304   0.280
78529SOL    HW137420   5.083   4.355   0.206
78529SOL    HW237421   5.019   4.370   0.342
78530SOL     OW37422   5.147   1.363  10.113
78530SOL    HW137423   5.130   1.456  10.128
78530SOL    HW237424   5.242   1.357  10.105
78531SOL     OW37425   8.602   3.025   8.957
78531SOL    HW137426   8.534   2.959   8.971
78531SOL    HW237427   8.556   3.096   8.912
78532SOL     OW37428   8.500   4.999  13.677
78532SOL    HW137429   8.505   4.916  13.724
78532SOL    HW237430   8.583   5.006  13.630
78533SOL     OW37431   3.052   1.120  10.512
78533SOL    HW137432   3.061   1.131  10.417
78533SOL    HW237433   2.958   1.103  10.525
78534SOL     OW37434  13.232  11.085   5.779
78534SOL    HW137435  13.140  11.106   5.798
78534SOL    HW237436  13.228  11.020   5.709
78535SOL     OW37437  14.731  13.390   1.240
78535SOL    HW137438  14.709  13.321   1.302
78535SOL    HW237439  14.787  13.450   1.289
78536SOL     OW37440  12.631  10.497   7.526
78536SOL    HW137441  12.626  10.416   7.475
78536SOL    HW237442  12.551  10.544   7.503
78537SOL     OW37443  13.061   6.219   3.907
78537SOL    HW137444  13.090   6.162   3.979
78537SOL    HW237445  13.142   6.260   3.876
78538SOL     OW37446   1.355   2.259   2.975
78538SOL    HW137447   1.323   2.346   2.953
78538SOL    HW237448   1.291   2.225   3.037
78539SOL     OW37449   5.143   0.154  14.333
78539SOL    HW137450   5.219   0.211  14.319
78539SOL    HW237451   5.073   0.195  14.283
78540SOL     OW37452   5.057   2.717   0.988
78540SOL    HW137453   4.999   2.754   1.054
78540SOL    HW237454   5.144   2.717   1.029
78541SOL     OW37455   8.798  10.322   0.138
78541SOL    HW137456   8.875  10.326   0.081
78541SOL    HW237457   8.827  10.274   0.215
78542SOL     OW37458  11.879   8.706   0.444
78542SOL    HW137459  11.822   8.776   0.475
78542SOL    HW237460  11.963   8.722   0.487
78543SOL     OW37461   8.411  11.355   2.428
78543SOL    HW137462   8.477  11.409   2.384
78543SOL    HW237463   8.461  11.283   2.466
78544SOL     OW37464  13.344   8.831   8.636
78544SOL    HW137465  13.371   8.744   8.608
78544SOL    HW237466  13.396   8.891   8.582
78545SOL     OW37467   5.308   1.854   7.584
78545SOL    HW137468   5.227   1.903   7.578
78545SOL    HW237469   5.303   1.810   7.670
78546SOL     OW37470   0.461  14.786   5.664
78546SOL    HW137471   0.412  14.829   5.734
78546SOL    HW237472   0.403  14.715   5.635
78547SOL     OW37473  13.488  11.264  12.588
78547SOL    HW137474  13.576  11.229  12.596
78547SOL    HW237475  13.450  11.218  12.513
78548SOL     OW37476   5.539  14.354   9.893
78548SOL    HW137477   5.529  14.397   9.808
78548SOL    HW237478   5.451  14.329   9.918
78549SOL     OW37479   5.171   8.551  14.712
78549SOL    HW137480   5.100   8.571  14.773
78549SOL    HW237481   5.189   8.458  14.727
78550SOL     OW37482   1.936  14.102  11.962
78550SOL    HW137483   1.978  14.151  11.891
78550SOL    HW237484   1.969  14.013  11.953
78551SOL     OW37485   2.866   9.229  11.057
78551SOL    HW137486   2.935   9.245  11.122
78551SOL    HW237487   2.808   9.305  11.063
78552SOL     OW37488   9.068   0.530   3.717
78552SOL    HW137489   9.026   0.577   3.789
78552SOL    HW237490   9.028   0.567   3.638
78553SOL     OW37491   8.138   8.466   5.985
78553SOL    HW137492   8.123   8.530   5.915
78553SOL    HW237493   8.069   8.483   6.048
78554SOL     OW37494  11.765   0.739   3.975
78554SOL    HW137495  11.747   0.730   3.882
78554SOL    HW237496  11.679   0.757   4.014
78555SOL     OW37497   5.836   6.080   8.646
78555SOL    HW137498   5.849   6.103   8.738
78555SOL    HW237499   5.861   6.159   8.598
78556SOL     OW37500   6.558   2.371  13.472
78556SOL    HW137501   6.527   2.382  13.382
78556SOL    HW237502   6.647   2.336  13.463
78557SOL     OW37503  13.801   8.957   1.095
78557SOL    HW137504  13.763   9.001   1.018
78557SOL    HW237505  13.751   8.876   1.102
78558SOL     OW37506   0.743  10.467   9.278
78558SOL    HW137507   0.709  10.506   9.359
78558SOL    HW237508   0.831  10.504   9.270
78559SOL     OW37509   3.662  10.792  11.714
78559SOL    HW137510   3.644  10.751  11.799
78559SOL    HW237511   3.722  10.863  11.734
78560SOL     OW37512   8.554  13.294   2.379
78560SOL    HW137513   8.609  13.267   2.453
78560SOL    HW237514   8.468  13.309   2.418
78561SOL     OW37515  10.233   7.567   9.473
78561SOL    HW137516  10.304   7.572   9.409
78561SOL    HW237517  10.200   7.478   9.466
78562SOL     OW37518   6.198   6.078   0.236
78562SOL    HW137519   6.267   6.142   0.252
78562SOL    HW237520   6.162   6.060   0.323
78563SOL     OW37521   6.551   7.441   1.512
78563SOL    HW137522   6.535   7.494   1.590
78563SOL    HW237523   6.644   7.418   1.517
78564SOL     OW37524   2.284   5.516   5.524
78564SOL    HW137525   2.275   5.526   5.429
78564SOL    HW237526   2.198   5.487   5.554
78565SOL     OW37527  13.034   7.714   7.643
78565SOL    HW137528  13.069   7.697   7.555
78565SOL    HW237529  12.977   7.789   7.632
78566SOL     OW37530  12.687   2.085   5.572
78566SOL    HW137531  12.707   1.992   5.564
78566SOL    HW237532  12.609   2.089   5.627
78567SOL     OW37533   3.163   6.534  12.843
78567SOL    HW137534   3.094   6.546  12.908
78567SOL    HW237535   3.177   6.622  12.807
78568SOL     OW37536   8.029   6.690  12.029
78568SOL    HW137537   7.977   6.700  12.109
78568SOL    HW237538   8.071   6.604  12.038
78569SOL     OW37539  13.043  10.911   7.603
78569SOL    HW137540  13.124  10.959   7.620
78569SOL    HW237541  13.062  10.857   7.526
78570SOL     OW37542  11.763   2.296   4.859
78570SOL    HW137543  11.755   2.388   4.885
78570SOL    HW237544  11.794   2.299   4.769
78571SOL     OW37545   6.810   5.371   2.722
78571SOL    HW137546   6.744   5.430   2.759
78571SOL    HW237547   6.887   5.384   2.778
78572SOL     OW37548   4.360  12.759   8.309
78572SOL    HW137549   4.321  12.689   8.361
78572SOL    HW237550   4.285  12.806   8.273
78573SOL     OW37551  10.230  12.984   7.080
78573SOL    HW137552  10.135  12.975   7.090
78573SOL    HW237553  10.245  12.974   6.986
78574SOL     OW37554   8.436   8.157   3.137
78574SOL    HW137555   8.444   8.231   3.077
78574SOL    HW237556   8.346   8.162   3.169
78575SOL     OW37557   5.746   6.614   6.358
78575SOL    HW137558   5.743   6.559   6.436
78575SOL    HW237559   5.654   6.626   6.333
78576SOL     OW37560   1.857   5.442   4.704
78576SOL    HW137561   1.834   5.450   4.611
78576SOL    HW237562   1.888   5.352   4.713
78577SOL     OW37563  14.321  10.920  11.940
78577SOL    HW137564  14.362  10.999  11.905
78577SOL    HW237565  14.377  10.849  11.910
78578SOL     OW37566   0.525   9.883   9.645
78578SOL    HW137567   0.572   9.889   9.563
78578SOL    HW237568   0.509   9.789   9.657
78579SOL     OW37569   3.792   2.565   2.482
78579SOL    HW137570   3.767   2.573   2.574
78579SOL    HW237571   3.756   2.480   2.454
78580SOL     OW37572   6.273   3.362  11.376
78580SOL    HW137573   6.360   3.391  11.348
78580SOL    HW237574   6.217   3.438  11.360
78581SOL     OW37575  11.290   7.620  12.958
78581SOL    HW137576  11.383   7.625  12.936
78581SOL    HW237577  11.266   7.529  12.940
78582SOL     OW37578  11.149   1.463   7.470
78582SOL    HW137579  11.123   1.454   7.562
78582SOL    HW237580  11.222   1.524   7.472
78583SOL     OW37581   5.802  10.328   5.820
78583SOL    HW137582   5.882  10.305   5.866
78583SOL    HW237583   5.732  10.303   5.880
78584SOL     OW37584   7.215   1.840   0.755
78584SOL    HW137585   7.212   1.921   0.704
78584SOL    HW237586   7.129   1.835   0.797
78585SOL     OW37587   3.887   1.389  13.889
78585SOL    HW137588   3.856   1.469  13.932
78585SOL    HW237589   3.826   1.321  13.919
78586SOL     OW37590   2.035   8.717  12.257
78586SOL    HW137591   1.944   8.742  12.240
78586SOL    HW237592   2.066   8.782  12.320
78587SOL     OW37593  13.154   2.930  13.910
78587SOL    HW137594  13.224   2.909  13.849
78587SOL    HW237595  13.196   2.983  13.978
78588SOL     OW37596  10.225   1.549  12.888
78588SOL    HW137597  10.292   1.496  12.846
78588SOL    HW237598  10.202   1.501  12.967
78589SOL     OW37599  12.462   6.636  11.295
78589SOL    HW137600  12.504   6.574  11.234
78589SOL    HW237601  12.420   6.580  11.360
78590SOL     OW37602   3.737   9.411  14.103
78590SOL    HW137603   3.821   9.457  14.098
78590SOL    HW237604   3.743   9.342  14.037
78591SOL     OW37605  11.624  10.117  13.958
78591SOL    HW137606  11.604  10.197  14.007
78591SOL    HW237607  11.561  10.053  13.989
78592SOL     OW37608   8.221   4.754   9.410
78592SOL    HW137609   8.274   4.825   9.447
78592SOL    HW237610   8.137   4.761   9.454
78593SOL     OW37611  13.047   3.725  12.124
78593SOL    HW137612  13.140   3.745  12.112
78593SOL    HW237613  13.007   3.747  12.040
78594SOL     OW37614   6.750   8.951  14.528
78594SOL    HW137615   6.706   8.867  14.543
78594SOL    HW237616   6.834   8.942  14.573
78595SOL     OW37617   8.103   7.630  13.931
78595SOL    HW137618   8.163   7.693  13.970
78595SOL    HW237619   8.098   7.559  13.994
78596SOL     OW37620   2.237  11.432   3.222
78596SOL    HW137621   2.207  11.521   3.239
78596SOL    HW237622   2.287  11.437   3.141
78597SOL     OW37623  10.321   7.212   1.001
78597SOL    HW137624  10.372   7.290   1.022
78597SOL    HW237625  10.384   7.140   1.002
78598SOL     OW37626   7.932   5.989  10.312
78598SOL    HW137627   7.895   6.014  10.397
78598SOL    HW237628   7.864   5.935  10.272
78599SOL     OW37629   3.182  10.252  14.224
78599SOL    HW137630   3.130  10.194  14.279
78599SOL    HW237631   3.165  10.340  14.258
78600SOL     OW37632   0.211   4.608   2.393
78600SOL    HW137633   0.122   4.609   2.429
78600SOL    HW237634   0.225   4.517   2.367
78601SOL     OW37635   3.568   7.077   7.323
78601SOL    HW137636   3.515   6.998   7.309
78601SOL    HW237637   3.504   7.145   7.346
78602SOL     OW37638   3.763   8.736   3.462
78602SOL    HW137639   3.704   8.787   3.406
78602SOL    HW237640   3.793   8.664   3.407
78603SOL     OW37641   3.568   3.555   7.378
78603SOL    HW137642   3.597   3.471   7.344
78603SOL    HW237643   3.586   3.618   7.308
78604SOL     OW37644   9.442   6.574  10.736
78604SOL    HW137645   9.378   6.643  10.755
78604SOL    HW237646   9.396   6.516  10.674
78605SOL     OW37647   5.998   8.773  10.039
78605SOL    HW137648   5.927   8.838  10.039
78605SOL    HW237649   5.967   8.703   9.982
78606SOL     OW37650   1.168  10.716   3.090
78606SOL    HW137651   1.182  10.629   3.051
78606SOL    HW237652   1.191  10.777   3.020
78607SOL     OW37653   8.992   1.817   2.170
78607SOL    HW137654   8.954   1.837   2.084
78607SOL    HW237655   8.995   1.722   2.173
78608SOL     OW37656   0.441   2.906  11.771
78608SOL    HW137657   0.372   2.910  11.705
78608SOL    HW237658   0.403   2.949  11.848
78609SOL     OW37659  14.388   7.649  11.820
78609SOL    HW137660  14.413   7.599  11.898
78609SOL    HW237661  14.295   7.669  11.833
78610SOL     OW37662  12.097   8.989   4.035
78610SOL    HW137663  12.166   9.053   4.055
78610SOL    HW237664  12.069   8.957   4.121
78611SOL     OW37665   5.806   2.496   5.629
78611SOL    HW137666   5.814   2.487   5.534
78611SOL    HW237667   5.713   2.488   5.646
78612SOL     OW37668  12.252  11.507  14.540
78612SOL    HW137669  12.316  11.471  14.477
78612SOL    HW237670  12.221  11.431  14.588
78613SOL     OW37671  14.393   9.845   5.281
78613SOL    HW137672  14.404   9.827   5.375
78613SOL    HW237673  14.462   9.910   5.262
78614SOL     OW37674   0.765   6.667  10.642
78614SOL    HW137675   0.713   6.672  10.722
78614SOL    HW237676   0.781   6.573  10.631
78615SOL     OW37677   7.039  10.767  14.308
78615SOL    HW137678   7.124  10.810  14.309
78615SOL    HW237679   7.039  10.711  14.385
78616SOL     OW37680  14.469  14.774   6.531
78616SOL    HW137681  14.532  14.711   6.568
78616SOL    HW237682  14.524  14.844   6.496
78617SOL     OW37683  10.560   6.378   7.012
78617SOL    HW137684  10.643   6.331   7.001
78617SOL    HW237685  10.522   6.341   7.092
78618SOL     OW37686  14.800   7.906   1.062
78618SOL    HW137687   0.009   7.925   1.109
78618SOL    HW237688  14.816   7.940   0.973
78619SOL     OW37689   3.709  13.511  12.727
78619SOL    HW137690   3.626  13.469  12.706
78619SOL    HW237691   3.720  13.498  12.821
78620SOL     OW37692   0.192   0.747  10.493
78620SOL    HW137693   0.174   0.837  10.519
78620SOL    HW237694   0.244   0.711  10.565
78621SOL     OW37695  12.410   6.730   4.973
78621SOL    HW137696  12.374   6.699   4.890
78621SOL    HW237697  12.503   6.743   4.956
78622SOL     OW37698   5.437   9.276   0.093
78622SOL    HW137699   5.485   9.194   0.100
78622SOL    HW237700   5.477   9.321   0.018
78623SOL     OW37701  10.771   8.859  12.512
78623SOL    HW137702  10.859   8.883  12.482
78623SOL    HW237703  10.750   8.780  12.462
78624SOL     OW37704   3.160  14.432   5.053
78624SOL    HW137705   3.202  14.358   5.008
78624SOL    HW237706   3.073  14.438   5.014
78625SOL     OW37707   0.547   6.098   5.045
78625SOL    HW137708   0.625   6.152   5.057
78625SOL    HW237709   0.580   6.008   5.039
78626SOL     OW37710  11.087   5.957   1.067
78626SOL    HW137711  11.039   6.040   1.073
78626SOL    HW237712  11.097   5.941   0.973
78627SOL     OW37713  11.076   6.708   6.184
78627SOL    HW137714  11.138   6.717   6.257
78627SOL    HW237715  11.021   6.634   6.209
78628SOL     OW37716   6.563  12.384  11.818
78628SOL    HW137717   6.541  12.427  11.736
78628SOL    HW237718   6.582  12.456  11.879
78629SOL     OW37719   1.942   3.160   3.811
78629SOL    HW137720   1.993   3.239   3.829
78629SOL    HW237721   1.855   3.192   3.787
78630SOL     OW37722   6.494  10.676   7.628
78630SOL    HW137723   6.477  10.640   7.715
78630SOL    HW237724   6.537  10.606   7.580
78631SOL     OW37725   3.042   6.671   5.228
78631SOL    HW137726   3.010   6.614   5.298
78631SOL    HW237727   3.131   6.694   5.254
78632SOL     OW37728   3.633   8.363  12.567
78632SOL    HW137729   3.681   8.324  12.639
78632SOL    HW237730   3.700   8.389  12.504
78633SOL     OW37731  10.900   6.536   4.946
78633SOL    HW137732  10.833   6.554   4.881
78633SOL    HW237733  10.960   6.610   4.941
78634SOL     OW37734  14.000  11.340   8.457
78634SOL    HW137735  13.968  11.430   8.467
78634SOL    HW237736  13.975  11.315   8.368
78635SOL     OW37737   6.092   8.120   9.905
78635SOL    HW137738   6.063   8.206   9.935
78635SOL    HW237739   6.160   8.094   9.968
78636SOL     OW37740   0.995   7.288  10.489
78636SOL    HW137741   1.009   7.339  10.569
78636SOL    HW237742   1.064   7.221  10.491
78637SOL     OW37743   9.451   6.284   1.064
78637SOL    HW137744   9.374   6.318   1.018
78637SOL    HW237745   9.414   6.232   1.135
78638SOL     OW37746   7.152   1.737   9.145
78638SOL    HW137747   7.240   1.710   9.119
78638SOL    HW237748   7.127   1.803   9.080
78639SOL     OW37749   4.376   3.893   8.503
78639SOL    HW137750   4.471   3.878   8.495
78639SOL    HW237751   4.353   3.942   8.424
78640SOL     OW37752  14.529   7.742  13.571
78640SOL    HW137753  14.562   7.816  13.621
78640SOL    HW237754  14.434   7.751  13.572
78641SOL     OW37755  10.876  11.447   7.095
78641SOL    HW137756  10.815  11.384   7.058
78641SOL    HW237757  10.862  11.442   7.189
78642SOL     OW37758  11.534   9.817  13.779
78642SOL    HW137759  11.497   9.859  13.701
78642SOL    HW237760  11.479   9.848  13.851
78643SOL     OW37761   0.994   1.480   1.943
78643SOL    HW137762   0.910   1.450   1.908
78643SOL    HW237763   0.999   1.572   1.916
78644SOL     OW37764   0.848  13.611  10.368
78644SOL    HW137765   0.845  13.707  10.369
78644SOL    HW237766   0.920  13.588  10.427
78645SOL     OW37767   8.561   8.291  14.565
78645SOL    HW137768   8.504   8.357  14.604
78645SOL    HW237769   8.642   8.338  14.545
78646SOL     OW37770  13.786   2.637  14.518
78646SOL    HW137771  13.762   2.619  14.609
78646SOL    HW237772  13.746   2.722  14.499
78647SOL     OW37773   9.650   6.445  12.476
78647SOL    HW137774   9.613   6.423  12.561
78647SOL    HW237775   9.706   6.521  12.492
78648SOL     OW37776  13.002   2.848   5.855
78648SOL    HW137777  13.037   2.907   5.920
78648SOL    HW237778  12.907   2.850   5.868
78649SOL     OW37779   9.586   2.341   0.593
78649SOL    HW137780   9.597   2.385   0.508
78649SOL    HW237781   9.593   2.248   0.572
78650SOL     OW37782   8.806  13.960   7.323
78650SOL    HW137783   8.774  14.007   7.400
78650SOL    HW237784   8.733  13.962   7.261
78651SOL     OW37785  14.182   3.039   4.813
78651SOL    HW137786  14.244   3.090   4.761
78651SOL    HW237787  14.225   2.954   4.825
78652SOL     OW37788   3.457  13.163   9.309
78652SOL    HW137789   3.443  13.068   9.308
78652SOL    HW237790   3.552  13.173   9.320
78653SOL     OW37791   8.596  13.056   8.960
78653SOL    HW137792   8.669  13.069   9.020
78653SOL    HW237793   8.539  12.993   9.004
78654SOL     OW37794   2.064   8.345   7.849
78654SOL    HW137795   2.036   8.301   7.930
78654SOL    HW237796   1.983   8.353   7.798
78655SOL     OW37797  12.758   9.452  14.231
78655SOL    HW137798  12.809   9.527  14.201
78655SOL    HW237799  12.672   9.462  14.190
78656SOL     OW37800   0.974  13.626  12.623
78656SOL    HW137801   0.981  13.666  12.710
78656SOL    HW237802   0.985  13.532  12.640
78657SOL     OW37803   2.082   7.189  10.949
78657SOL    HW137804   2.119   7.101  10.948
78657SOL    HW237805   2.047   7.199  11.038
78658SOL     OW37806   5.781  14.259  12.444
78658SOL    HW137807   5.744  14.187  12.495
78658SOL    HW237808   5.828  14.312  12.507
78659SOL     OW37809   0.751   3.612   6.997
78659SOL    HW137810   0.800   3.639   7.074
78659SOL    HW237811   0.676   3.563   7.032
78660SOL     OW37812   5.743   7.484   4.366
78660SOL    HW137813   5.821   7.540   4.374
78660SOL    HW237814   5.680   7.537   4.318
78661SOL     OW37815   2.826   8.630   1.586
78661SOL    HW137816   2.885   8.556   1.597
78661SOL    HW237817   2.844   8.686   1.662
78662SOL     OW37818   1.085   2.622  13.037
78662SOL    HW137819   1.089   2.609  12.942
78662SOL    HW237820   1.176   2.625  13.065
78663SOL     OW37821   8.860   0.811  11.476
78663SOL    HW137822   8.769   0.784  11.485
78663SOL    HW237823   8.878   0.864  11.554
78664SOL     OW37824  14.198   2.524   9.589
78664SOL    HW137825  14.232   2.499   9.503
78664SOL    HW237826  14.265   2.495   9.651
78665SOL     OW37827   4.121   8.674   8.128
78665SOL    HW137828   4.081   8.636   8.049
78665SOL    HW237829   4.059   8.742   8.155
78666SOL     OW37830   7.265   0.272   2.616
78666SOL    HW137831   7.292   0.302   2.530
78666SOL    HW237832   7.202   0.203   2.599
78667SOL     OW37833   8.492   7.442   5.402
78667SOL    HW137834   8.453   7.362   5.367
78667SOL    HW237835   8.505   7.498   5.326
78668SOL     OW37836  12.946   5.234   1.654
78668SOL    HW137837  12.980   5.148   1.682
78668SOL    HW237838  12.855   5.217   1.631
78669SOL     OW37839   2.819   3.971   2.860
78669SOL    HW137840   2.795   4.023   2.937
78669SOL    HW237841   2.745   3.911   2.849
78670SOL     OW37842   3.414  11.082   6.010
78670SOL    HW137843   3.358  11.022   6.060
78670SOL    HW237844   3.503  11.063   6.040
78671SOL     OW37845  12.871   8.653   2.478
78671SOL    HW137846  12.876   8.728   2.420
78671SOL    HW237847  12.871   8.691   2.566
78672SOL     OW37848   4.907  10.240  14.187
78672SOL    HW137849   4.876  10.306  14.125
78672SOL    HW237850   4.889  10.157  14.143
78673SOL     OW37851   9.987   2.974   3.206
78673SOL    HW137852  10.001   2.974   3.301
78673SOL    HW237853  10.067   3.013   3.171
78674SOL     OW37854   9.993   3.391   9.494
78674SOL    HW137855  10.068   3.443   9.464
78674SOL    HW237856   9.950   3.447   9.560
78675SOL     OW37857   6.083   2.719  13.086
78675SOL    HW137858   5.987   2.711  13.093
78675SOL    HW237859   6.098   2.808  13.055
78676SOL     OW37860  12.277   8.713   7.471
78676SOL    HW137861  12.293   8.729   7.563
78676SOL    HW237862  12.317   8.628   7.453
78677SOL     OW37863  14.477   6.513  14.794
78677SOL    HW137864  14.528   6.556  14.862
78677SOL    HW237865  14.498   6.420  14.803
78678SOL     OW37866   6.539   9.813  11.704
78678SOL    HW137867   6.486   9.893  11.697
78678SOL    HW237868   6.475   9.742  11.700
78679SOL     OW37869   6.182   9.169   4.437
78679SOL    HW137870   6.107   9.183   4.378
78679SOL    HW237871   6.247   9.233   4.407
78680SOL     OW37872   0.817   9.195  11.438
78680SOL    HW137873   0.788   9.174  11.527
78680SOL    HW237874   0.812   9.111  11.392
78681SOL     OW37875   9.011  13.804  10.391
78681SOL    HW137876   9.027  13.887  10.345
78681SOL    HW237877   8.916  13.797  10.394
78682SOL     OW37878   4.124   1.580  11.862
78682SOL    HW137879   4.156   1.563  11.773
78682SOL    HW237880   4.030   1.566  11.857
78683SOL     OW37881   2.328   1.878   2.676
78683SOL    HW137882   2.242   1.853   2.642
78683SOL    HW237883   2.356   1.803   2.728
78684SOL     OW37884   8.493  12.673   4.060
78684SOL    HW137885   8.572  12.713   4.022
78684SOL    HW237886   8.436  12.747   4.078
78685SOL     OW37887   4.082   8.112  12.170
78685SOL    HW137888   4.115   8.187  12.120
78685SOL    HW237889   4.051   8.051  12.103
78686SOL     OW37890   7.113   7.686  10.439
78686SOL    HW137891   7.046   7.643  10.491
78686SOL    HW237892   7.100   7.780  10.457
78687SOL     OW37893   2.398   3.677  11.593
78687SOL    HW137894   2.433   3.591  11.617
78687SOL    HW237895   2.475   3.733  11.582
78688SOL     OW37896   1.319   9.889   5.663
78688SOL    HW137897   1.322   9.953   5.592
78688SOL    HW237898   1.401   9.904   5.711
78689SOL     OW37899   7.762   0.226   5.571
78689SOL    HW137900   7.836   0.284   5.558
78689SOL    HW237901   7.692   0.282   5.604
78690SOL     OW37902   9.972   2.246  10.642
78690SOL    HW137903  10.060   2.213  10.662
78690SOL    HW237904   9.978   2.279  10.553
78691SOL     OW37905  14.024   4.197   9.381
78691SOL    HW137906  13.971   4.123   9.352
78691SOL    HW237907  14.095   4.158   9.432
78692SOL     OW37908   2.099   2.719   0.703
78692SOL    HW137909   2.063   2.681   0.782
78692SOL    HW237910   2.148   2.796   0.733
78693SOL     OW37911  13.545   8.896   8.270
78693SOL    HW137912  13.480   8.917   8.203
78693SOL    HW237913  13.507   8.928   8.352
78694SOL     OW37914  10.078   2.930   1.814
78694SOL    HW137915  10.088   2.836   1.829
78694SOL    HW237916  10.120   2.970   1.890
78695SOL     OW37917  11.807   9.882   9.506
78695SOL    HW137918  11.855   9.843   9.579
78695SOL    HW237919  11.859   9.958   9.481
78696SOL     OW37920   1.049   8.308   4.561
78696SOL    HW137921   1.100   8.314   4.642
78696SOL    HW237922   0.991   8.233   4.574
78697SOL     OW37923  14.444  12.538  10.475
78697SOL    HW137924  14.379  12.530  10.545
78697SOL    HW237925  14.480  12.626  10.486
78698SOL     OW37926   9.523  11.204  13.880
78698SOL    HW137927   9.513  11.250  13.963
78698SOL    HW237928   9.446  11.148  13.874
78699SOL     OW37929   8.437  11.755  14.614
78699SOL    HW137930   8.486  11.755  14.532
78699SOL    HW237931   8.499  11.787  14.679
78700SOL     OW37932   2.213   7.947  14.705
78700SOL    HW137933   2.236   8.031  14.665
78700SOL    HW237934   2.145   7.968  14.769
78701SOL     OW37935   8.162   0.790   9.970
78701SOL    HW137936   8.097   0.793   9.900
78701SOL    HW237937   8.222   0.720   9.945
78702SOL     OW37938  10.467  14.728  12.962
78702SOL    HW137939  10.536  14.743  13.027
78702SOL    HW237940  10.394  14.690  13.013
78703SOL     OW37941   3.245  13.688   7.806
78703SOL    HW137942   3.194  13.768   7.819
78703SOL    HW237943   3.336  13.716   7.812
78704SOL     OW37944   6.532  11.273   4.938
78704SOL    HW137945   6.456  11.223   4.968
78704SOL    HW237946   6.574  11.304   5.018
78705SOL     OW37947  11.124   7.086  13.728
78705SOL    HW137948  11.159   6.999  13.742
78705SOL    HW237949  11.081   7.081  13.643
78706SOL     OW37950   1.663   5.921  14.162
78706SOL    HW137951   1.609   5.858  14.210
78706SOL    HW237952   1.600   5.977  14.117
78707SOL     OW37953   1.216  12.427   1.974
78707SOL    HW137954   1.173  12.373   2.040
78707SOL    HW237955   1.265  12.492   2.024
78708SOL     OW37956  11.114  10.412  12.397
78708SOL    HW137957  11.078  10.381  12.314
78708SOL    HW237958  11.075  10.354  12.463
78709SOL     OW37959  12.683   0.438  14.152
78709SOL    HW137960  12.741   0.481  14.216
78709SOL    HW237961  12.684   0.496  14.076
78710SOL     OW37962   5.731  12.533   2.524
78710SOL    HW137963   5.783  12.551   2.446
78710SOL    HW237964   5.742  12.611   2.579
78711SOL     OW37965  12.429  13.102   2.164
78711SOL    HW137966  12.439  13.187   2.122
78711SOL    HW237967  12.345  13.107   2.210
78712SOL     OW37968   5.009   3.510   9.313
78712SOL    HW137969   4.955   3.510   9.392
78712SOL    HW237970   4.953   3.474   9.245
78713SOL     OW37971   5.175   1.419  11.542
78713SOL    HW137972   5.098   1.417  11.485
78713SOL    HW237973   5.211   1.330  11.536
78714SOL     OW37974  13.410  13.634   5.634
78714SOL    HW137975  13.457  13.602   5.556
78714SOL    HW237976  13.318  13.626   5.611
78715SOL     OW37977   3.540   8.049  14.790
78715SOL    HW137978   3.597   8.081  14.720
78715SOL    HW237979   3.524   7.958  14.768
78716SOL     OW37980   6.683   5.915  12.510
78716SOL    HW137981   6.672   5.828  12.472
78716SOL    HW237982   6.638   5.974  12.451
78717SOL     OW37983   7.983   2.786   6.231
78717SOL    HW137984   7.924   2.856   6.260
78717SOL    HW237985   7.954   2.767   6.142
78718SOL     OW37986  12.496   5.427   6.261
78718SOL    HW137987  12.461   5.473   6.185
78718SOL    HW237988  12.437   5.451   6.333
78719SOL     OW37989   8.366   4.147   6.612
78719SOL    HW137990   8.367   4.073   6.552
78719SOL    HW237991   8.388   4.109   6.697
78720SOL     OW37992   8.125   3.545  12.770
78720SOL    HW137993   8.030   3.549  12.761
78720SOL    HW237994   8.141   3.472  12.830
78721SOL     OW37995   3.880   8.993  10.566
78721SOL    HW137996   3.823   8.962  10.497
78721SOL    HW237997   3.825   9.051  10.619
78722SOL     OW37998   8.939   2.776   1.940
78722SOL    HW137999   8.977   2.695   1.973
78722SOL    HW238000   9.005   2.811   1.879
78723SOL     OW38001   3.559  14.246   7.291
78723SOL    HW138002   3.615  14.292   7.228
78723SOL    HW238003   3.484  14.304   7.303
78724SOL     OW38004   9.785   8.181   5.605
78724SOL    HW138005   9.795   8.127   5.683
78724SOL    HW238006   9.840   8.258   5.622
78725SOL     OW38007   4.030   2.326   8.452
78725SOL    HW138008   4.048   2.265   8.380
78725SOL    HW238009   4.061   2.410   8.421
78726SOL     OW38010  12.670  13.649  10.363
78726SOL    HW138011  12.697  13.581  10.301
78726SOL    HW238012  12.744  13.711  10.364
78727SOL     OW38013   7.483  11.586   3.906
78727SOL    HW138014   7.564  11.571   3.956
78727SOL    HW238015   7.414  11.586   3.973
78728SOL     OW38016   1.875  10.192   0.242
78728SOL    HW138017   1.847  10.161   0.328
78728SOL    HW238018   1.891  10.286   0.255
78729SOL     OW38019  13.052   4.514  14.490
78729SOL    HW138020  13.060   4.608  14.474
78729SOL    HW238021  12.996   4.482  14.420
78730SOL     OW38022  11.788  14.740  12.226
78730SOL    HW138023  11.796  14.683  12.303
78730SOL    HW238024  11.718  14.700  12.174
78731SOL     OW38025   7.742  13.228   4.399
78731SOL    HW138026   7.764  13.179   4.320
78731SOL    HW238027   7.820  13.280   4.418
78732SOL     OW38028   6.011   5.527  10.450
78732SOL    HW138029   6.106   5.520  10.448
78732SOL    HW238030   5.992   5.571  10.533
78733SOL     OW38031  11.142  14.379  14.026
78733SOL    HW138032  11.170  14.321  14.097
78733SOL    HW238033  11.052  14.404  14.050
78734SOL     OW38034   2.202  11.871   5.710
78734SOL    HW138035   2.116  11.832   5.726
78734SOL    HW238036   2.232  11.829   5.629
78735SOL     OW38037   7.863   2.905   7.847
78735SOL    HW138038   7.796   2.958   7.892
78735SOL    HW238039   7.850   2.925   7.755
78736SOL     OW38040  11.287  14.472  10.431
78736SOL    HW138041  11.320  14.449  10.518
78736SOL    HW238042  11.221  14.406  10.412
78737SOL     OW38043   3.765  10.414  14.630
78737SOL    HW138044   3.766  10.359  14.552
78737SOL    HW238045   3.682  10.392  14.673
78738SOL     OW38046   1.359   8.689  10.327
78738SOL    HW138047   1.306   8.643  10.262
78738SOL    HW238048   1.399   8.620  10.379
78739SOL     OW38049   0.274   9.792   6.779
78739SOL    HW138050   0.355   9.756   6.816
78739SOL    HW238051   0.277   9.885   6.802
78740SOL     OW38052   1.613  13.318   0.507
78740SOL    HW138053   1.623  13.341   0.599
78740SOL    HW238054   1.638  13.397   0.459
78741SOL     OW38055  13.728   7.442   4.389
78741SOL    HW138056  13.728   7.347   4.380
78741SOL    HW238057  13.731   7.458   4.483
78742SOL     OW38058  14.409   2.406  12.522
78742SOL    HW138059  14.491   2.413  12.572
78742SOL    HW238060  14.420   2.328  12.468
78743SOL     OW38061   4.186   2.507  11.547
78743SOL    HW138062   4.188   2.590  11.498
78743SOL    HW238063   4.215   2.531  11.635
78744SOL     OW38064   3.420   1.935   0.529
78744SOL    HW138065   3.336   1.891   0.519
78744SOL    HW238066   3.457   1.898   0.609
78745SOL     OW38067  11.979   7.237  12.996
78745SOL    HW138068  11.994   7.323  13.035
78745SOL    HW238069  11.921   7.255  12.922
78746SOL     OW38070  13.802   5.231  13.660
78746SOL    HW138071  13.859   5.168  13.703
78746SOL    HW238072  13.758   5.277  13.731
78747SOL     OW38073   6.652   1.828   4.294
78747SOL    HW138074   6.691   1.772   4.227
78747SOL    HW238075   6.660   1.917   4.259
78748SOL     OW38076  14.124   4.692   6.848
78748SOL    HW138077  14.201   4.748   6.855
78748SOL    HW238078  14.141   4.619   6.907
78749SOL     OW38079   1.889   2.875   2.087
78749SOL    HW138080   1.866   2.794   2.043
78749SOL    HW238081   1.925   2.848   2.171
78750SOL     OW38082   1.331   4.565  11.739
78750SOL    HW138083   1.416   4.549  11.697
78750SOL    HW238084   1.329   4.503  11.812
78751SOL     OW38085   6.434  11.202  13.958
78751SOL    HW138086   6.361  11.140  13.965
78751SOL    HW238087   6.442  11.219  13.864
78752SOL     OW38088   6.533   1.327   7.287
78752SOL    HW138089   6.455   1.277   7.309
78752SOL    HW238090   6.605   1.278   7.326
78753SOL     OW38091   3.327   7.860  11.840
78753SOL    HW138092   3.247   7.906  11.813
78753SOL    HW238093   3.380   7.927  11.882
78754SOL     OW38094   9.567   2.176   4.462
78754SOL    HW138095   9.579   2.086   4.430
78754SOL    HW238096   9.655   2.214   4.458
78755SOL     OW38097   0.590  10.664   8.249
78755SOL    HW138098   0.608  10.582   8.203
78755SOL    HW238099   0.502  10.654   8.284
78756SOL     OW38100   8.149  10.762   9.841
78756SOL    HW138101   8.057  10.752   9.818
78756SOL    HW238102   8.182  10.672   9.848
78757SOL     OW38103  12.515   8.385   9.571
78757SOL    HW138104  12.546   8.471   9.599
78757SOL    HW238105  12.432   8.373   9.615
78758SOL     OW38106  13.622   4.166   9.265
78758SOL    HW138107  13.696   4.194   9.211
78758SOL    HW238108  13.545   4.185   9.213
78759SOL     OW38109   0.975  10.381   7.907
78759SOL    HW138110   0.970  10.477   7.911
78759SOL    HW238111   0.916  10.351   7.977
78760SOL     OW38112   7.912   2.509  10.500
78760SOL    HW138113   7.888   2.417  10.508
78760SOL    HW238114   7.835   2.551  10.460
78761SOL     OW38115  13.791   1.871  12.967
78761SOL    HW138116  13.868   1.826  13.003
78761SOL    HW238117  13.826   1.954  12.933
78762SOL     OW38118  14.342   4.199   9.724
78762SOL    HW138119  14.336   4.176   9.817
78762SOL    HW238120  14.301   4.285   9.718
78763SOL     OW38121   1.924  14.202   8.569
78763SOL    HW138122   1.998  14.142   8.565
78763SOL    HW238123   1.850  14.152   8.535
78764SOL     OW38124   1.544   2.722  14.523
78764SOL    HW138125   1.451   2.735  14.543
78764SOL    HW238126   1.590   2.763  14.596
78765SOL     OW38127   0.977  10.247   9.370
78765SOL    HW138128   0.999  10.169   9.319
78765SOL    HW238129   0.889  10.230   9.403
78766SOL     OW38130   2.496  14.563  12.053
78766SOL    HW138131   2.427  14.504  12.022
78766SOL    HW238132   2.473  14.580  12.145
78767SOL     OW38133   5.190   2.318   5.491
78767SOL    HW138134   5.098   2.344   5.499
78767SOL    HW238135   5.188   2.226   5.466
78768SOL     OW38136   9.352   8.893  11.968
78768SOL    HW138137   9.353   8.806  12.006
78768SOL    HW238138   9.385   8.882  11.879
78769SOL     OW38139   1.934  11.352   9.691
78769SOL    HW138140   1.866  11.344   9.625
78769SOL    HW238141   2.008  11.302   9.655
78770SOL     OW38142   8.343   9.317   7.871
78770SOL    HW138143   8.334   9.227   7.841
78770SOL    HW238144   8.328   9.312   7.966
78771SOL     OW38145  14.198   0.172   4.745
78771SOL    HW138146  14.147   0.227   4.685
78771SOL    HW238147  14.218   0.094   4.693
78772SOL     OW38148   3.282   6.340   9.458
78772SOL    HW138149   3.216   6.378   9.516
78772SOL    HW238150   3.336   6.414   9.431
78773SOL     OW38151  11.972   5.310  10.338
78773SOL    HW138152  12.007   5.325  10.426
78773SOL    HW238153  11.913   5.235  10.348
78774SOL     OW38154   1.032  13.824   7.387
78774SOL    HW138155   1.099  13.856   7.448
78774SOL    HW238156   1.062  13.737   7.361
78775SOL     OW38157   6.301  10.489   8.712
78775SOL    HW138158   6.248  10.540   8.773
78775SOL    HW238159   6.348  10.555   8.661
78776SOL     OW38160  11.115   7.263   3.022
78776SOL    HW138161  11.055   7.336   3.003
78776SOL    HW238162  11.193   7.305   3.058
78777SOL     OW38163   5.577  12.231   8.576
78777SOL    HW138164   5.559  12.146   8.535
78777SOL    HW238165   5.672  12.232   8.588
78778SOL     OW38166   5.565   4.257   3.698
78778SOL    HW138167   5.472   4.270   3.678
78778SOL    HW238168   5.606   4.338   3.670
78779SOL     OW38169  12.154   0.819  14.310
78779SOL    HW138170  12.234   0.799  14.358
78779SOL    HW238171  12.102   0.872  14.370
78780SOL     OW38172   3.037   5.830   0.225
78780SOL    HW138173   3.040   5.738   0.249
78780SOL    HW238174   2.998   5.874   0.301
78781SOL     OW38175   0.107   6.931   8.431
78781SOL    HW138176   0.117   6.881   8.512
78781SOL    HW238177   0.087   7.020   8.460
78782SOL     OW38178  13.929   2.119  10.854
78782SOL    HW138179  13.834   2.115  10.870
78782SOL    HW238180  13.965   2.149  10.938
78783SOL     OW38181   0.533  13.516  11.524
78783SOL    HW138182   0.455  13.523  11.580
78783SOL    HW238183   0.606  13.518  11.586
78784SOL     OW38184   6.983   7.595   6.988
78784SOL    HW138185   6.894   7.569   7.014
78784SOL    HW238186   6.999   7.547   6.907
78785SOL     OW38187  10.162   7.897   3.943
78785SOL    HW138188  10.247   7.929   3.976
78785SOL    HW238189  10.161   7.924   3.852
78786SOL     OW38190   3.994   5.074   4.049
78786SOL    HW138191   3.951   5.013   3.989
78786SOL    HW238192   4.076   5.098   4.005
78787SOL     OW38193   9.699   5.219   1.061
78787SOL    HW138194   9.689   5.290   1.124
78787SOL    HW238195   9.646   5.246   0.986
78788SOL     OW38196   4.542   6.719   0.512
78788SOL    HW138197   4.553   6.794   0.454
78788SOL    HW238198   4.581   6.646   0.465
78789SOL     OW38199   1.943  10.750  12.733
78789SOL    HW138200   1.913  10.659  12.733
78789SOL    HW238201   2.009  10.753  12.803
78790SOL     OW38202  10.991  13.220  14.230
78790SOL    HW138203  10.901  13.188  14.225
78790SOL    HW238204  11.042  13.154  14.182
78791SOL     OW38205  12.697   2.045   7.077
78791SOL    HW138206  12.664   2.126   7.038
78791SOL    HW238207  12.647   1.976   7.033
78792SOL     OW38208  13.650   5.489  13.613
78792SOL    HW138209  13.686   5.442  13.538
78792SOL    HW238210  13.556   5.470  13.610
78793SOL     OW38211   9.691   6.479   0.335
78793SOL    HW138212   9.697   6.421   0.411
78793SOL    HW238213   9.633   6.550   0.363
78794SOL     OW38214  12.724  13.144   4.877
78794SOL    HW138215  12.748  13.142   4.784
78794SOL    HW238216  12.804  13.170   4.922
78795SOL     OW38217   4.486  12.308   3.358
78795SOL    HW138218   4.412  12.304   3.297
78795SOL    HW238219   4.478  12.394   3.399
78796SOL     OW38220  10.627  13.309   9.114
78796SOL    HW138221  10.587  13.283   9.197
78796SOL    HW238222  10.567  13.374   9.078
78797SOL     OW38223   1.332  13.379   8.658
78797SOL    HW138224   1.427  13.364   8.656
78797SOL    HW238225   1.306  13.351   8.746
78798SOL     OW38226  10.423  12.472   2.288
78798SOL    HW138227  10.337  12.481   2.327
78798SOL    HW238228  10.460  12.392   2.327
78799SOL     OW38229  14.384   5.811   5.858
78799SOL    HW138230  14.421   5.895   5.833
78799SOL    HW238231  14.459   5.761   5.892
78800SOL     OW38232   0.994  13.954   6.910
78800SOL    HW138233   0.948  13.900   6.975
78800SOL    HW238234   0.928  13.969   6.842
78801SOL     OW38235  12.442  12.884  11.318
78801SOL    HW138236  12.375  12.866  11.383
78801SOL    HW238237  12.395  12.925  11.246
78802SOL     OW38238   5.291   5.620   0.334
78802SOL    HW138239   5.212   5.661   0.369
78802SOL    HW238240   5.343   5.694   0.302
78803SOL     OW38241  10.628   2.794   8.493
78803SOL    HW138242  10.572   2.836   8.559
78803SOL    HW238243  10.702   2.855   8.482
78804SOL     OW38244  10.692  14.459  14.353
78804SOL    HW138245  10.764  14.398  14.337
78804SOL    HW238246  10.633  14.412  14.412
78805SOL     OW38247   6.244   8.589   6.162
78805SOL    HW138248   6.274   8.569   6.074
78805SOL    HW238249   6.241   8.504   6.206
78806SOL     OW38250   2.829   3.364  13.734
78806SOL    HW138251   2.759   3.424  13.705
78806SOL    HW238252   2.783   3.295  13.782
78807SOL     OW38253   4.532  11.645  10.496
78807SOL    HW138254   4.525  11.721  10.555
78807SOL    HW238255   4.443  11.632  10.464
78808SOL     OW38256  11.811   0.957   5.245
78808SOL    HW138257  11.903   0.975   5.224
78808SOL    HW238258  11.792   0.874   5.201
78809SOL     OW38259   7.455   4.605   8.140
78809SOL    HW138260   7.360   4.610   8.134
78809SOL    HW238261   7.472   4.533   8.201
78810SOL     OW38262   7.187  10.670   9.650
78810SOL    HW138263   7.147  10.594   9.692
78810SOL    HW238264   7.278  10.670   9.679
78811SOL     OW38265   7.446   9.562   7.088
78811SOL    HW138266   7.502   9.625   7.132
78811SOL    HW238267   7.485   9.552   7.001
78812SOL     OW38268   0.301   1.597   6.212
78812SOL    HW138269   0.371   1.662   6.204
78812SOL    HW238270   0.240   1.635   6.275
78813SOL     OW38271   8.510   7.818   8.345
78813SOL    HW138272   8.511   7.843   8.253
78813SOL    HW238273   8.468   7.891   8.390
78814SOL     OW38274  12.643  10.069   4.610
78814SOL    HW138275  12.708  10.101   4.673
78814SOL    HW238276  12.684   9.992   4.571
78815SOL     OW38277  10.688  14.481   6.229
78815SOL    HW138278  10.777  14.483   6.264
78815SOL    HW238279  10.665  14.573   6.215
78816SOL     OW38280  10.294   0.561   6.743
78816SOL    HW138281  10.212   0.537   6.700
78816SOL    HW238282  10.310   0.490   6.805
78817SOL     OW38283  12.813   4.097   5.185
78817SOL    HW138284  12.856   4.153   5.249
78817SOL    HW238285  12.796   4.155   5.110
78818SOL     OW38286   8.786   5.697  14.363
78818SOL    HW138287   8.840   5.769  14.394
78818SOL    HW238288   8.710   5.696  14.421
78819SOL     OW38289  11.499   4.016   0.743
78819SOL    HW138290  11.459   4.025   0.829
78819SOL    HW238291  11.437   4.057   0.683
78820SOL     OW38292   9.351  11.454   1.981
78820SOL    HW138293   9.406  11.378   1.998
78820SOL    HW238294   9.409  11.529   1.993
78821SOL     OW38295   7.895   6.675   3.626
78821SOL    HW138296   7.971   6.663   3.569
78821SOL    HW238297   7.830   6.614   3.592
78822SOL     OW38298  12.458   1.286   7.990
78822SOL    HW138299  12.399   1.214   7.969
78822SOL    HW238300  12.532   1.275   7.930
78823SOL     OW38301  12.152   8.236   9.237
78823SOL    HW138302  12.090   8.284   9.292
78823SOL    HW238303  12.186   8.166   9.293
78824SOL     OW38304  13.430   1.919   4.061
78824SOL    HW138305  13.521   1.890   4.066
78824SOL    HW238306  13.390   1.888   4.142
78825SOL     OW38307   2.813   2.656   4.441
78825SOL    HW138308   2.829   2.636   4.533
78825SOL    HW238309   2.732   2.708   4.442
78826SOL     OW38310  11.883  14.289  12.302
78826SOL    HW138311  11.899  14.251  12.215
78826SOL    HW238312  11.805  14.343  12.290
78827SOL     OW38313  13.593   5.978  14.657
78827SOL    HW138314  13.618   5.960  14.748
78827SOL    HW238315  13.551   6.065  14.661
78828SOL     OW38316   0.095   5.307   6.357
78828SOL    HW138317   0.041   5.380   6.326
78828SOL    HW238318   0.145   5.344   6.430
78829SOL     OW38319   5.693   4.683   0.212
78829SOL    HW138320   5.630   4.734   0.262
78829SOL    HW238321   5.643   4.608   0.180
78830SOL     OW38322   4.846   9.669  10.390
78830SOL    HW138323   4.767   9.614  10.396
78830SOL    HW238324   4.835   9.734  10.459
78831SOL     OW38325  11.993  14.787   2.263
78831SOL    HW138326  11.957  14.699   2.276
78831SOL    HW238327  11.965  14.811   2.175
78832SOL     OW38328  13.501  14.689   2.965
78832SOL    HW138329  13.564  14.761   2.966
78832SOL    HW238330  13.421  14.727   3.002
78833SOL     OW38331   0.633  12.735  10.210
78833SOL    HW138332   0.621  12.830  10.207
78833SOL    HW238333   0.691  12.715  10.137
78834SOL     OW38334   1.184  14.717  12.901
78834SOL    HW138335   1.235  14.671  12.968
78834SOL    HW238336   1.235  14.708  12.821
78835SOL     OW38337   3.478   5.613   0.980
78835SOL    HW138338   3.476   5.617   1.076
78835SOL    HW238339   3.561   5.571   0.959
78836SOL     OW38340  13.428   1.854   0.804
78836SOL    HW138341  13.426   1.763   0.834
78836SOL    HW238342  13.460   1.904   0.879
78837SOL     OW38343  10.760   4.020   7.107
78837SOL    HW138344  10.753   4.055   7.196
78837SOL    HW238345  10.741   4.095   7.050
78838SOL     OW38346   1.878   2.821   2.642
78838SOL    HW138347   1.853   2.913   2.645
78838SOL    HW238348   1.795   2.774   2.628
78839SOL     OW38349  13.759   9.124   5.968
78839SOL    HW138350  13.796   9.041   5.937
78839SOL    HW238351  13.716   9.102   6.050
78840SOL     OW38352   7.404  10.356   8.018
78840SOL    HW138353   7.497  10.373   8.001
78840SOL    HW238354   7.398  10.350   8.113
78841SOL     OW38355   1.992  13.624   4.908
78841SOL    HW138356   2.058  13.692   4.894
78841SOL    HW238357   1.988  13.576   4.825
78842SOL     OW38358   2.444   0.616   9.124
78842SOL    HW138359   2.534   0.622   9.093
78842SOL    HW238360   2.450   0.568   9.207
78843SOL     OW38361  10.762  13.338  11.034
78843SOL    HW138362  10.851  13.315  11.062
78843SOL    HW238363  10.775  13.412  10.974
78844SOL     OW38364  11.509   9.452   4.633
78844SOL    HW138365  11.507   9.357   4.632
78844SOL    HW238366  11.419   9.478   4.651
78845SOL     OW38367   5.532   2.552   1.198
78845SOL    HW138368   5.553   2.558   1.291
78845SOL    HW238369   5.591   2.614   1.155
78846SOL     OW38370   0.078   4.671   3.431
78846SOL    HW138371  14.869   4.667   3.480
78846SOL    HW238372   0.067   4.747   3.373
78847SOL     OW38373   7.368   3.076   8.364
78847SOL    HW138374   7.420   2.997   8.372
78847SOL    HW238375   7.322   3.084   8.448
78848SOL     OW38376  13.379   6.927   9.461
78848SOL    HW138377  13.465   6.889   9.446
78848SOL    HW238378  13.377   6.945   9.555
78849SOL     OW38379   6.837  11.882  10.990
78849SOL    HW138380   6.782  11.846  11.059
78849SOL    HW238381   6.857  11.971  11.018
78850SOL     OW38382   7.667   3.637   2.427
78850SOL    HW138383   7.738   3.701   2.428
78850SOL    HW238384   7.709   3.552   2.438
78851SOL     OW38385  11.751  14.151  13.930
78851SOL    HW138386  11.809  14.151  13.854
78851SOL    HW238387  11.749  14.059  13.958
78852SOL     OW38388   0.924   5.697   7.054
78852SOL    HW138389   0.968   5.651   7.125
78852SOL    HW238390   0.957   5.787   7.059
78853SOL     OW38391   1.360   0.483  10.337
78853SOL    HW138392   1.431   0.426  10.310
78853SOL    HW238393   1.403   0.556  10.381
78854SOL     OW38394   3.485   5.570   1.264
78854SOL    HW138395   3.403   5.618   1.271
78854SOL    HW238396   3.465   5.482   1.297
78855SOL     OW38397   0.575  14.222  10.272
78855SOL    HW138398   0.588  14.145  10.217
78855SOL    HW238399   0.569  14.295  10.211
78856SOL     OW38400  11.572   0.852   4.141
78856SOL    HW138401  11.575   0.927   4.200
78856SOL    HW238402  11.492   0.864   4.090
78857SOL     OW38403   5.915   4.609   2.535
78857SOL    HW138404   5.850   4.597   2.604
78857SOL    HW238405   5.897   4.696   2.500
78858SOL     OW38406   0.480  10.371  11.740
78858SOL    HW138407   0.471  10.463  11.765
78858SOL    HW238408   0.470  10.370  11.645
78859SOL     OW38409   9.534   0.917  10.426
78859SOL    HW138410   9.587   0.884  10.499
78859SOL    HW238411   9.461   0.962  10.467
78860SOL     OW38412   2.313   2.545   4.354
78860SOL    HW138413   2.256   2.479   4.315
78860SOL    HW238414   2.322   2.518   4.445
78861SOL     OW38415   8.284   7.189   0.398
78861SOL    HW138416   8.204   7.174   0.448
78861SOL    HW238417   8.316   7.273   0.430
78862SOL     OW38418   2.053   0.081   6.162
78862SOL    HW138419   2.038   0.111   6.072
78862SOL    HW238420   1.966   0.061   6.196
78863SOL     OW38421  11.628  14.371  14.018
78863SOL    HW138422  11.639  14.293  13.964
78863SOL    HW238423  11.609  14.337  14.106
78864SOL     OW38424  12.479   9.931   5.521
78864SOL    HW138425  12.440   9.993   5.583
78864SOL    HW238426  12.415   9.861   5.512
78865SOL     OW38427   7.043   9.188   9.000
78865SOL    HW138428   6.996   9.231   9.071
78865SOL    HW238429   6.980   9.128   8.960
78866SOL     OW38430   0.917   6.065   3.863
78866SOL    HW138431   0.853   6.098   3.800
78866SOL    HW238432   0.926   6.135   3.928
78867SOL     OW38433   9.416   7.521  12.387
78867SOL    HW138434   9.443   7.612  12.394
78867SOL    HW238435   9.367   7.516  12.305
78868SOL     OW38436  13.085   5.148   2.806
78868SOL    HW138437  13.154   5.142   2.872
78868SOL    HW238438  13.131   5.146   2.723
78869SOL     OW38439  10.847   2.192  14.078
78869SOL    HW138440  10.931   2.156  14.052
78869SOL    HW238441  10.857   2.211  14.172
78870SOL     OW38442   2.272  13.299   4.720
78870SOL    HW138443   2.258  13.371   4.658
78870SOL    HW238444   2.186  13.286   4.760
78871SOL     OW38445   0.879  12.142   5.058
78871SOL    HW138446   0.874  12.237   5.053
78871SOL    HW238447   0.907  12.124   5.147
78872SOL     OW38448   6.718   3.679  12.408
78872SOL    HW138449   6.672   3.755  12.443
78872SOL    HW238450   6.797   3.715  12.367
78873SOL     OW38451   5.618  13.958   8.532
78873SOL    HW138452   5.579  13.947   8.619
78873SOL    HW238453   5.705  13.995   8.550
78874SOL     OW38454  14.510   0.014  11.122
78874SOL    HW138455  14.472  14.818  11.068
78874SOL    HW238456  14.555   0.072  11.060
78875SOL     OW38457  14.669  13.481   9.434
78875SOL    HW138458  14.649  13.392   9.403
78875SOL    HW238459  14.604  13.536   9.390
78876SOL     OW38460   4.987   4.600  11.597
78876SOL    HW138461   5.038   4.521  11.613
78876SOL    HW238462   4.933   4.611  11.674
78877SOL     OW38463  10.593   6.710   4.961
78877SOL    HW138464  10.572   6.639   5.022
78877SOL    HW238465  10.526   6.777   4.978
78878SOL     OW38466   5.102  10.150  11.421
78878SOL    HW138467   5.186  10.182  11.455
78878SOL    HW238468   5.082  10.073  11.474
78879SOL     OW38469   7.864   4.941   7.572
78879SOL    HW138470   7.855   4.969   7.663
78879SOL    HW238471   7.958   4.926   7.560
78880SOL     OW38472   1.789  12.739   6.112
78880SOL    HW138473   1.795  12.755   6.018
78880SOL    HW238474   1.720  12.674   6.122
78881SOL     OW38475   9.903  11.994   2.232
78881SOL    HW138476   9.956  12.020   2.156
78881SOL    HW238477   9.964  11.945   2.288
78882SOL     OW38478   0.064  11.090   6.399
78882SOL    HW138479   0.101  11.100   6.311
78882SOL    HW238480   0.044  11.180   6.426
78883SOL     OW38481   1.666  10.952  11.580
78883SOL    HW138482   1.644  10.952  11.487
78883SOL    HW238483   1.666  10.860  11.605
78884SOL     OW38484   0.103   4.624   9.694
78884SOL    HW138485   0.095   4.581   9.609
78884SOL    HW238486   0.028   4.683   9.698
78885SOL     OW38487   3.551   1.951  13.736
78885SOL    HW138488   3.541   2.008  13.812
78885SOL    HW238489   3.643   1.963  13.709
78886SOL     OW38490   4.219  14.357   3.403
78886SOL    HW138491   4.176  14.402   3.476
78886SOL    HW238492   4.310  14.387   3.407
78887SOL     OW38493   6.475  12.752   4.139
78887SOL    HW138494   6.386  12.767   4.107
78887SOL    HW238495   6.531  12.775   4.065
78888SOL     OW38496   8.724  10.863  12.049
78888SOL    HW138497   8.686  10.951  12.040
78888SOL    HW238498   8.649  10.804  12.055
78889SOL     OW38499   4.891   1.072   5.551
78889SOL    HW138500   4.868   1.111   5.636
78889SOL    HW238501   4.830   1.110   5.489
78890SOL     OW38502  12.660   4.420   5.165
78890SOL    HW138503  12.642   4.477   5.239
78890SOL    HW238504  12.589   4.356   5.166
78891SOL     OW38505  13.349   0.252  13.934
78891SOL    HW138506  13.392   0.169  13.955
78891SOL    HW238507  13.312   0.282  14.017
78892SOL     OW38508   2.145  10.717   2.092
78892SOL    HW138509   2.061  10.679   2.066
78892SOL    HW238510   2.209  10.672   2.037
78893SOL     OW38511   1.337   6.501  10.404
78893SOL    HW138512   1.274   6.497  10.332
78893SOL    HW238513   1.409   6.444  10.376
78894SOL     OW38514  10.889   8.815  14.474
78894SOL    HW138515  10.911   8.908  14.482
78894SOL    HW238516  10.831   8.797  14.547
78895SOL     OW38517   2.188   0.611  12.918
78895SOL    HW138518   2.268   0.560  12.933
78895SOL    HW238519   2.179   0.614  12.823
78896SOL     OW38520   0.460   0.512   7.597
78896SOL    HW138521   0.529   0.509   7.531
78896SOL    HW238522   0.392   0.568   7.558
78897SOL     OW38523   0.934   2.864   9.745
78897SOL    HW138524   0.969   2.937   9.797
78897SOL    HW238525   0.937   2.789   9.804
78898SOL     OW38526   8.926   0.112   9.152
78898SOL    HW138527   9.019   0.129   9.170
78898SOL    HW238528   8.884   0.119   9.238
78899SOL     OW38529   2.105   4.847   6.586
78899SOL    HW138530   2.184   4.878   6.543
78899SOL    HW238531   2.133   4.824   6.675
78900SOL     OW38532  11.019  10.418   5.462
78900SOL    HW138533  11.060  10.445   5.544
78900SOL    HW238534  11.018  10.322   5.466
78901SOL     OW38535  11.873   1.739  11.872
78901SOL    HW138536  11.935   1.720  11.801
78901SOL    HW238537  11.787   1.740  11.830
78902SOL     OW38538   0.933   4.473  12.568
78902SOL    HW138539   0.985   4.488  12.489
78902SOL    HW238540   0.886   4.556  12.582
78903SOL     OW38541   9.039  11.360  10.380
78903SOL    HW138542   9.083  11.292  10.432
78903SOL    HW238543   8.951  11.325  10.365
78904SOL     OW38544  11.884   3.303   3.069
78904SOL    HW138545  11.900   3.331   2.979
78904SOL    HW238546  11.970   3.304   3.111
78905SOL     OW38547   8.409   5.605  14.719
78905SOL    HW138548   8.445   5.661  14.650
78905SOL    HW238549   8.314   5.620  14.715
78906SOL     OW38550   4.328   9.719   9.039
78906SOL    HW138551   4.325   9.780   9.112
78906SOL    HW238552   4.421   9.700   9.027
78907SOL     OW38553   7.776  11.232   8.456
78907SOL    HW138554   7.805  11.314   8.416
78907SOL    HW238555   7.760  11.255   8.547
78908SOL     OW38556   8.852   7.906  12.975
78908SOL    HW138557   8.824   7.967  12.907
78908SOL    HW238558   8.923   7.855  12.935
78909SOL     OW38559   7.541   6.531   2.647
78909SOL    HW138560   7.630   6.536   2.611
78909SOL    HW238561   7.492   6.479   2.583
78910SOL     OW38562   5.076   1.914  11.920
78910SOL    HW138563   5.055   1.935  11.829
78910SOL    HW238564   5.171   1.903  11.921
78911SOL     OW38565  14.658   1.096   0.252
78911SOL    HW138566  14.598   1.094   0.327
78911SOL    HW238567  14.633   1.021   0.199
78912SOL     OW38568  11.442   9.321  10.398
78912SOL    HW138569  11.397   9.239  10.378
78912SOL    HW238570  11.374   9.388  10.391
78913SOL     OW38571  12.390   8.410   0.496
78913SOL    HW138572  12.419   8.334   0.445
78913SOL    HW238573  12.471   8.460   0.510
78914SOL     OW38574  12.086   2.854   3.794
78914SOL    HW138575  12.159   2.795   3.813
78914SOL    HW238576  12.113   2.900   3.715
78915SOL     OW38577   2.046  14.636   9.485
78915SOL    HW138578   2.096  14.706   9.525
78915SOL    HW238579   2.111  14.571   9.459
78916SOL     OW38580   0.370   4.366  12.431
78916SOL    HW138581   0.295   4.373  12.372
78916SOL    HW238582   0.442   4.408  12.384
78917SOL     OW38583  11.147   0.222   8.384
78917SOL    HW138584  11.176   0.184   8.301
78917SOL    HW238585  11.084   0.289   8.360
78918SOL     OW38586   6.170   5.519   6.459
78918SOL    HW138587   6.166   5.569   6.541
78918SOL    HW238588   6.099   5.554   6.406
78919SOL     OW38589   9.390   9.379  14.311
78919SOL    HW138590   9.461   9.376  14.247
78919SOL    HW238591   9.317   9.419  14.264
78920SOL     OW38592   4.577  11.023   8.080
78920SOL    HW138593   4.612  10.992   7.996
78920SOL    HW238594   4.646  11.001   8.144
78921SOL     OW38595  12.480  10.357  10.452
78921SOL    HW138596  12.403  10.300  10.449
78921SOL    HW238597  12.549  10.301  10.489
78922SOL     OW38598   4.666  13.565   2.911
78922SOL    HW138599   4.717  13.623   2.967
78922SOL    HW238600   4.669  13.605   2.825
78923SOL     OW38601  11.641  13.358   3.294
78923SOL    HW138602  11.571  13.343   3.357
78923SOL    HW238603  11.705  13.412   3.342
78924SOL     OW38604  13.808   0.286   1.489
78924SOL    HW138605  13.840   0.197   1.499
78924SOL    HW238606  13.740   0.295   1.556
78925SOL     OW38607  10.201   6.724   2.805
78925SOL    HW138608  10.154   6.683   2.732
78925SOL    HW238609  10.208   6.816   2.780
78926SOL     OW38610   2.974  13.906   2.486
78926SOL    HW138611   3.028  13.854   2.427
78926SOL    HW238612   2.981  13.862   2.571
78927SOL     OW38613   3.351   4.232  12.116
78927SOL    HW138614   3.295   4.310  12.116
78927SOL    HW238615   3.435   4.263  12.148
78928SOL     OW38616   3.767   6.251   4.753
78928SOL    HW138617   3.823   6.272   4.827
78928SOL    HW238618   3.795   6.312   4.684
78929SOL     OW38619   4.696   5.222   5.564
78929SOL    HW138620   4.706   5.202   5.657
78929SOL    HW238621   4.652   5.308   5.563
78930SOL     OW38622  13.564   8.595   5.524
78930SOL    HW138623  13.497   8.663   5.517
78930SOL    HW238624  13.536   8.528   5.461
78931SOL     OW38625   7.871   7.785   0.688
78931SOL    HW138626   7.843   7.876   0.689
78931SOL    HW238627   7.817   7.744   0.620
78932SOL     OW38628  12.991  14.189   0.152
78932SOL    HW138629  12.993  14.094   0.164
78932SOL    HW238630  12.941  14.202   0.072
78933SOL     OW38631   7.964   6.836  10.399
78933SOL    HW138632   7.955   6.825  10.304
78933SOL    HW238633   7.961   6.930  10.413
78934SOL     OW38634  12.966   5.318  11.604
78934SOL    HW138635  12.913   5.347  11.530
78934SOL    HW238636  12.906   5.268  11.659
78935SOL     OW38637  10.146   9.979   9.664
78935SOL    HW138638  10.099  10.014   9.588
78935SOL    HW238639  10.158   9.886   9.644
78936SOL     OW38640  13.966   7.058   7.217
78936SOL    HW138641  13.888   7.104   7.187
78936SOL    HW238642  13.963   7.064   7.313
78937SOL     OW38643   2.425  14.240   5.985
78937SOL    HW138644   2.488  14.256   6.056
78937SOL    HW238645   2.361  14.310   5.993
78938SOL     OW38646   5.690  13.550  14.426
78938SOL    HW138647   5.733  13.614  14.483
78938SOL    HW238648   5.597  13.555  14.450
78939SOL     OW38649   4.593   5.254   1.673
78939SOL    HW138650   4.613   5.175   1.723
78939SOL    HW238651   4.607   5.229   1.582
78940SOL     OW38652  12.432   4.763   3.480
78940SOL    HW138653  12.489   4.727   3.411
78940SOL    HW238654  12.373   4.690   3.503
78941SOL     OW38655  13.422   1.690   6.347
78941SOL    HW138656  13.457   1.601   6.356
78941SOL    HW238657  13.480   1.744   6.401
78942SOL     OW38658  14.057   1.954   7.845
78942SOL    HW138659  14.083   2.021   7.909
78942SOL    HW238660  14.065   1.871   7.893
78943SOL     OW38661   8.837   4.162   0.031
78943SOL    HW138662   8.898   4.227  14.869
78943SOL    HW238663   8.764   4.214   0.065
78944SOL     OW38664   8.729   4.036  11.942
78944SOL    HW138665   8.711   4.110  11.883
78944SOL    HW238666   8.824   4.024  11.938
78945SOL     OW38667  10.936  11.174   0.872
78945SOL    HW138668  10.927  11.263   0.906
78945SOL    HW238669  11.008  11.180   0.809
78946SOL     OW38670   6.803   2.948   2.154
78946SOL    HW138671   6.773   2.947   2.245
78946SOL    HW238672   6.852   3.030   2.146
78947SOL     OW38673  13.804   8.172   9.594
78947SOL    HW138674  13.801   8.077   9.581
78947SOL    HW238675  13.740   8.207   9.532
78948SOL     OW38676   6.173   8.780   2.700
78948SOL    HW138677   6.115   8.708   2.679
78948SOL    HW238678   6.123   8.836   2.759
78949SOL     OW38679  11.344  10.882   8.132
78949SOL    HW138680  11.352  10.941   8.208
78949SOL    HW238681  11.384  10.931   8.060
78950SOL     OW38682   3.034  14.625   3.944
78950SOL    HW138683   3.102  14.664   3.998
78950SOL    HW238684   3.038  14.532   3.963
78951SOL     OW38685   2.182   0.547  12.041
78951SOL    HW138686   2.132   0.537  12.122
78951SOL    HW238687   2.255   0.485  12.050
78952SOL     OW38688   4.972  12.669   7.807
78952SOL    HW138689   5.067  12.679   7.819
78952SOL    HW238690   4.935  12.752   7.835
78953SOL     OW38691   8.952  11.980  14.039
78953SOL    HW138692   8.946  11.902  13.984
78953SOL    HW238693   8.861  12.002  14.060
78954SOL     OW38694   7.273  11.984   5.425
78954SOL    HW138695   7.209  12.053   5.443
78954SOL    HW238696   7.221  11.906   5.407
78955SOL     OW38697   1.298  14.603   3.074
78955SOL    HW138698   1.375  14.551   3.054
78955SOL    HW238699   1.291  14.601   3.170
78956SOL     OW38700   3.190   3.963  12.764
78956SOL    HW138701   3.248   4.020  12.714
78956SOL    HW238702   3.171   4.012  12.844
78957SOL     OW38703  11.909   0.719   1.033
78957SOL    HW138704  11.924   0.780   0.961
78957SOL    HW238705  11.960   0.756   1.106
78958SOL     OW38706  12.234   9.777   3.124
78958SOL    HW138707  12.282   9.860   3.126
78958SOL    HW238708  12.200   9.767   3.213
78959SOL     OW38709   2.922   7.843  14.189
78959SOL    HW138710   2.854   7.856  14.123
78959SOL    HW238711   3.000   7.819  14.139
78960SOL     OW38712  11.049  13.741   4.662
78960SOL    HW138713  11.080  13.653   4.684
78960SOL    HW238714  11.008  13.773   4.742
78961SOL     OW38715   6.975   8.228   9.302
78961SOL    HW138716   7.034   8.281   9.355
78961SOL    HW238717   6.972   8.143   9.347
78962SOL     OW38718   4.930   6.708  10.955
78962SOL    HW138719   4.889   6.792  10.976
78962SOL    HW238720   4.954   6.671  11.040
78963SOL     OW38721  13.659  13.324   5.260
78963SOL    HW138722  13.593  13.282   5.205
78963SOL    HW238723  13.728  13.258   5.271
78964SOL     OW38724   4.244   9.334   3.304
78964SOL    HW138725   4.279   9.356   3.390
78964SOL    HW238726   4.169   9.278   3.323
78965SOL     OW38727   0.729  12.212   8.957
78965SOL    HW138728   0.744  12.292   9.007
78965SOL    HW238729   0.812  12.166   8.959
78966SOL     OW38730  11.202   2.815   8.256
78966SOL    HW138731  11.278   2.757   8.263
78966SOL    HW238732  11.198   2.860   8.340
78967SOL     OW38733  13.667  12.246   1.034
78967SOL    HW138734  13.572  12.234   1.022
78967SOL    HW238735  13.680  12.241   1.128
78968SOL     OW38736   2.537   3.328   8.081
78968SOL    HW138737   2.556   3.283   8.163
78968SOL    HW238738   2.458   3.286   8.048
78969SOL     OW38739   1.355  13.752   6.234
78969SOL    HW138740   1.283  13.689   6.231
78969SOL    HW238741   1.387  13.748   6.323
78970SOL     OW38742   1.543   4.144   9.641
78970SOL    HW138743   1.546   4.195   9.722
78970SOL    HW238744   1.453   4.112   9.636
78971SOL     OW38745  10.047   8.247  10.504
78971SOL    HW138746  10.109   8.320  10.508
78971SOL    HW238747  10.020   8.232  10.594
78972SOL     OW38748   4.185   5.365   3.185
78972SOL    HW138749   4.234   5.361   3.267
78972SOL    HW238750   4.184   5.458   3.163
78973SOL     OW38751   1.067  11.556   5.250
78973SOL    HW138752   1.115  11.637   5.234
78973SOL    HW238753   1.115  11.514   5.322
78974SOL     OW38754  13.987   2.949   7.486
78974SOL    HW138755  14.029   2.999   7.556
78974SOL    HW238756  14.013   2.858   7.503
78975SOL     OW38757   6.807   4.511   4.127
78975SOL    HW138758   6.714   4.489   4.124
78975SOL    HW238759   6.844   4.451   4.191
78976SOL     OW38760   4.040   9.963  14.636
78976SOL    HW138761   4.012   9.958  14.545
78976SOL    HW238762   4.133   9.985  14.631
78977SOL     OW38763   0.414   3.836   1.773
78977SOL    HW138764   0.487   3.836   1.710
78977SOL    HW238765   0.409   3.926   1.804
78978SOL     OW38766   5.848  14.257   5.772
78978SOL    HW138767   5.894  14.201   5.709
78978SOL    HW238768   5.879  14.345   5.753
78979SOL     OW38769  10.108   9.894   2.442
78979SOL    HW138770  10.108   9.963   2.376
78979SOL    HW238771  10.016   9.867   2.449
78980SOL     OW38772   2.002   4.787  12.873
78980SOL    HW138773   1.966   4.710  12.828
78980SOL    HW238774   2.014   4.852  12.804
78981SOL     OW38775   3.241   1.231   4.630
78981SOL    HW138776   3.147   1.218   4.646
78981SOL    HW238777   3.273   1.145   4.605
78982SOL     OW38778   4.756   6.981   4.427
78982SOL    HW138779   4.721   6.926   4.357
78982SOL    HW238780   4.687   6.984   4.493
78983SOL     OW38781   0.268   4.877   2.326
78983SOL    HW138782   0.202   4.917   2.269
78983SOL    HW238783   0.264   4.784   2.305
78984SOL     OW38784  10.210  11.232   3.158
78984SOL    HW138785  10.183  11.163   3.218
78984SOL    HW238786  10.281  11.193   3.107
78985SOL     OW38787   9.900  13.904   0.887
78985SOL    HW138788   9.885  13.998   0.903
78985SOL    HW238789   9.853  13.860   0.958
78986SOL     OW38790   5.778   6.261  13.247
78986SOL    HW138791   5.767   6.167  13.233
78986SOL    HW238792   5.866   6.270  13.284
78987SOL     OW38793   6.049   5.404   5.994
78987SOL    HW138794   6.138   5.413   6.028
78987SOL    HW238795   6.060   5.373   5.905
78988SOL     OW38796  12.380   8.580  10.041
78988SOL    HW138797  12.298   8.555   9.999
78988SOL    HW238798  12.440   8.508  10.022
78989SOL     OW38799  14.347  13.460   0.691
78989SOL    HW138800  14.424  13.517   0.696
78989SOL    HW238801  14.315  13.471   0.601
78990SOL     OW38802  12.822   2.293   2.842
78990SOL    HW138803  12.853   2.282   2.932
78990SOL    HW238804  12.759   2.364   2.846
78991SOL     OW38805  12.604  14.847  13.228
78991SOL    HW138806  12.543  14.780  13.197
78991SOL    HW238807  12.572   0.056  13.189
78992SOL     OW38808  12.022  11.835   4.488
78992SOL    HW138809  12.072  11.760   4.456
78992SOL    HW238810  12.069  11.911   4.452
78993SOL     OW38811   2.157  10.940  14.696
78993SOL    HW138812   2.075  10.939  14.647
78993SOL    HW238813   2.218  10.892  14.641
78994SOL     OW38814   9.364   8.936   0.877
78994SOL    HW138815   9.367   9.031   0.869
78994SOL    HW238816   9.312   8.921   0.956
78995SOL     OW38817   0.379   2.975   6.121
78995SOL    HW138818   0.305   2.916   6.134
78995SOL    HW238819   0.428   2.970   6.203
78996SOL     OW38820   4.369  14.337   8.855
78996SOL    HW138821   4.439  14.300   8.802
78996SOL    HW238822   4.318  14.391   8.794
78997SOL     OW38823   2.218   6.754   4.010
78997SOL    HW138824   2.285   6.821   4.026
78997SOL    HW238825   2.178   6.739   4.096
78998SOL     OW38826   1.922   4.674   9.303
78998SOL    HW138827   1.872   4.600   9.269
78998SOL    HW238828   1.863   4.749   9.294
78999SOL     OW38829   8.950   6.506   6.031
78999SOL    HW138830   9.024   6.457   5.994
78999SOL    HW238831   8.965   6.596   6.003
79000SOL     OW38832   7.057   3.964   8.243
79000SOL    HW138833   7.101   4.041   8.206
79000SOL    HW238834   7.108   3.889   8.211
79001SOL     OW38835   2.830   9.797   6.776
79001SOL    HW138836   2.818   9.790   6.871
79001SOL    HW238837   2.741   9.802   6.741
79002SOL     OW38838   6.414   9.100  14.436
79002SOL    HW138839   6.402   9.085  14.530
79002SOL    HW238840   6.362   9.032  14.394
79003SOL     OW38841   0.008   9.379   0.443
79003SOL    HW138842   0.095   9.403   0.472
79003SOL    HW238843  14.856   9.447   0.380
79004SOL     OW38844  13.513  12.672   4.773
79004SOL    HW138845  13.471  12.740   4.720
79004SOL    HW238846  13.492  12.590   4.727
79005SOL     OW38847  13.195   8.570   6.284
79005SOL    HW138848  13.243   8.550   6.364
79005SOL    HW238849  13.263   8.575   6.216
79006SOL     OW38850   9.310   5.073   8.274
79006SOL    HW138851   9.389   5.100   8.227
79006SOL    HW238852   9.322   4.979   8.290
79007SOL     OW38853   1.623  13.595  10.589
79007SOL    HW138854   1.670  13.675  10.564
79007SOL    HW238855   1.656  13.528  10.530
79008SOL     OW38856  13.756   6.280   6.225
79008SOL    HW138857  13.831   6.317   6.177
79008SOL    HW238858  13.750   6.333   6.304
79009SOL     OW38859   7.368   9.844  14.749
79009SOL    HW138860   7.361   9.887  14.664
79009SOL    HW238861   7.461   9.821  14.756
79010SOL     OW38862  14.552   2.394  14.483
79010SOL    HW138863  14.491   2.435  14.544
79010SOL    HW238864  14.629   2.373  14.536
79011SOL     OW38865  12.403  12.032   8.698
79011SOL    HW138866  12.438  12.076   8.775
79011SOL    HW238867  12.344  12.096   8.658
79012SOL     OW38868   2.406  12.577  10.371
79012SOL    HW138869   2.406  12.619  10.285
79012SOL    HW238870   2.401  12.483  10.352
79013SOL     OW38871   7.624  13.767   0.085
79013SOL    HW138872   7.645  13.745   0.176
79013SOL    HW238873   7.707  13.793   0.047
79014SOL     OW38874   9.559   7.312  14.362
79014SOL    HW138875   9.479   7.354  14.329
79014SOL    HW238876   9.630   7.370  14.334
79015SOL     OW38877   5.754   1.711   6.094
79015SOL    HW138878   5.687   1.775   6.070
79015SOL    HW238879   5.837   1.758   6.086
79016SOL     OW38880  10.903  14.539   0.023
79016SOL    HW138881  10.989  14.498   0.018
79016SOL    HW238882  10.894  14.586  14.813
79017SOL     OW38883   3.197   6.161   7.175
79017SOL    HW138884   3.259   6.223   7.138
79017SOL    HW238885   3.229   6.146   7.264
79018SOL     OW38886   3.584   6.907  11.330
79018SOL    HW138887   3.675   6.921  11.358
79018SOL    HW238888   3.571   6.812  11.342
79019SOL     OW38889   4.658  14.839  13.363
79019SOL    HW138890   4.730  14.843  13.427
79019SOL    HW238891   4.606   0.044  13.382
79020SOL     OW38892   3.539  12.809   4.108
79020SOL    HW138893   3.550  12.790   4.015
79020SOL    HW238894   3.523  12.724   4.149
79021SOL     OW38895  13.906   4.368   1.683
79021SOL    HW138896  13.823   4.398   1.720
79021SOL    HW238897  13.963   4.445   1.687
79022SOL     OW38898   3.332  10.524   3.173
79022SOL    HW138899   3.274  10.582   3.223
79022SOL    HW238900   3.282  10.505   3.094
79023SOL     OW38901  12.180  13.265  13.590
79023SOL    HW138902  12.094  13.283  13.551
79023SOL    HW238903  12.166  13.273  13.684
79024SOL     OW38904   0.115   8.337   6.666
79024SOL    HW138905   0.170   8.374   6.597
79024SOL    HW238906   0.137   8.389   6.743
79025SOL     OW38907   8.239   6.630   4.866
79025SOL    HW138908   8.262   6.538   4.883
79025SOL    HW238909   8.244   6.672   4.952
79026SOL     OW38910   8.074  13.736  11.693
79026SOL    HW138911   8.085  13.651  11.736
79026SOL    HW238912   8.073  13.799  11.764
79027SOL     OW38913   8.813   8.936  12.719
79027SOL    HW138914   8.817   8.844  12.691
79027SOL    HW238915   8.796   8.985  12.638
79028SOL     OW38916  12.163  10.223  14.594
79028SOL    HW138917  12.186  10.213  14.501
79028SOL    HW238918  12.115  10.143  14.615
79029SOL     OW38919   8.162   5.483  10.727
79029SOL    HW138920   8.216   5.481  10.806
79029SOL    HW238921   8.224   5.473  10.655
79030SOL     OW38922   6.984   6.511   8.266
79030SOL    HW138923   6.897   6.551   8.265
79030SOL    HW238924   6.968   6.419   8.287
79031SOL     OW38925  11.040  12.980   1.350
79031SOL    HW138926  11.040  12.931   1.269
79031SOL    HW238927  11.083  13.063   1.328
79032SOL     OW38928   8.837   1.858  12.212
79032SOL    HW138929   8.896   1.912  12.161
79032SOL    HW238930   8.860   1.875  12.303
79033SOL     OW38931  12.610  13.072   4.327
79033SOL    HW138932  12.549  13.036   4.262
79033SOL    HW238933  12.553  13.100   4.400
79034SOL     OW38934  13.758   2.345  11.239
79034SOL    HW138935  13.752   2.317  11.148
79034SOL    HW238936  13.846   2.320  11.267
79035SOL     OW38937  12.167  14.024   7.491
79035SOL    HW138938  12.174  14.117   7.511
79035SOL    HW238939  12.255  13.989   7.506
79036SOL     OW38940   4.752   5.640   9.623
79036SOL    HW138941   4.812   5.581   9.669
79036SOL    HW238942   4.770   5.626   9.530
79037SOL     OW38943  11.302   2.744  12.046
79037SOL    HW138944  11.222   2.791  12.020
79037SOL    HW238945  11.299   2.741  12.141
79038SOL     OW38946   2.226   2.738   0.048
79038SOL    HW138947   2.228   2.833   0.060
79038SOL    HW238948   2.251   2.726  14.829
79039SOL     OW38949  14.450   4.451   9.905
79039SOL    HW138950  14.368   4.458   9.855
79039SOL    HW238951  14.507   4.399   9.849
79040SOL     OW38952   4.119   6.344   2.730
79040SOL    HW138953   4.186   6.358   2.796
79040SOL    HW238954   4.161   6.288   2.665
79041SOL     OW38955  12.915   5.336   3.553
79041SOL    HW138956  12.955   5.355   3.638
79041SOL    HW238957  12.987   5.347   3.490
79042SOL     OW38958  12.345  12.461   0.966
79042SOL    HW138959  12.430  12.420   0.981
79042SOL    HW238960  12.342  12.533   1.029
79043SOL     OW38961   0.723   8.993   1.348
79043SOL    HW138962   0.633   8.960   1.345
79043SOL    HW238963   0.717   9.083   1.317
79044SOL     OW38964  10.696   4.481   0.030
79044SOL    HW138965  10.695   4.575   0.008
79044SOL    HW238966  10.757   4.474   0.103
79045SOL     OW38967   2.248   3.080   4.610
79045SOL    HW138968   2.177   3.142   4.628
79045SOL    HW238969   2.205   2.996   4.599
79046SOL     OW38970   2.478  14.243   4.229
79046SOL    HW138971   2.533  14.184   4.282
79046SOL    HW238972   2.462  14.318   4.286
79047SOL     OW38973   6.583   0.516   2.677
79047SOL    HW138974   6.600   0.558   2.593
79047SOL    HW238975   6.528   0.579   2.724
79048SOL     OW38976   6.628  14.346   9.227
79048SOL    HW138977   6.657  14.428   9.267
79048SOL    HW238978   6.543  14.328   9.269
79049SOL     OW38979  10.071   0.345   5.104
79049SOL    HW138980  10.143   0.359   5.043
79049SOL    HW238981  10.031   0.431   5.115
79050SOL     OW38982   3.816   1.673   9.331
79050SOL    HW138983   3.904   1.710   9.322
79050SOL    HW238984   3.817   1.631   9.417
79051SOL     OW38985   7.414   3.029   5.339
79051SOL    HW138986   7.452   3.098   5.392
79051SOL    HW238987   7.473   3.021   5.264
79052SOL     OW38988   1.496  13.785   4.631
79052SOL    HW138989   1.542  13.800   4.548
79052SOL    HW238990   1.559  13.736   4.684
79053SOL     OW38991  11.839   3.492   4.423
79053SOL    HW138992  11.825   3.550   4.499
79053SOL    HW238993  11.785   3.531   4.354
79054SOL     OW38994  10.194  13.696   8.574
79054SOL    HW138995  10.132  13.733   8.511
79054SOL    HW238996  10.175  13.602   8.573
79055SOL     OW38997  10.898  10.699   0.080
79055SOL    HW138998  10.901  10.610   0.115
79055SOL    HW238999  10.985  10.714   0.045
79056SOL     OW39000   5.564   8.241   5.757
79056SOL    HW139001   5.584   8.334   5.743
79056SOL    HW239002   5.560   8.232   5.852
79057SOL     OW39003   6.959   6.382  14.502
79057SOL    HW139004   6.874   6.417  14.528
79057SOL    HW239005   7.023   6.438  14.545
79058SOL     OW39006   1.035  11.123   4.246
79058SOL    HW139007   0.988  11.207   4.239
79058SOL    HW239008   0.973  11.059   4.210
79059SOL     OW39009  11.389   4.509   8.811
79059SOL    HW139010  11.400   4.417   8.835
79059SOL    HW239011  11.439   4.557   8.876
79060SOL     OW39012  14.234  10.039   9.475
79060SOL    HW139013  14.328  10.020   9.470
79060SOL    HW239014  14.200  10.016   9.389
79061SOL     OW39015  14.065   7.202   7.928
79061SOL    HW139016  14.022   7.116   7.921
79061SOL    HW239017  14.036   7.236   8.013
79062SOL     OW39018  11.035   9.851   9.412
79062SOL    HW139019  10.985   9.852   9.494
79062SOL    HW239020  10.978   9.897   9.349
79063SOL     OW39021  14.612   4.000   0.763
79063SOL    HW139022  14.552   3.969   0.830
79063SOL    HW239023  14.690   3.946   0.774
79064SOL     OW39024   9.850   9.718  14.171
79064SOL    HW139025   9.807   9.778  14.110
79064SOL    HW239026   9.888   9.775  14.238
79065SOL     OW39027   6.865   6.004   6.812
79065SOL    HW139028   6.853   6.094   6.844
79065SOL    HW239029   6.883   5.953   6.891
79066SOL     OW39030   5.102   0.556   1.748
79066SOL    HW139031   5.164   0.629   1.736
79066SOL    HW239032   5.062   0.573   1.833
79067SOL     OW39033  11.899  14.078  12.947
79067SOL    HW139034  11.898  13.987  12.918
79067SOL    HW239035  11.975  14.084  13.005
79068SOL     OW39036  12.955   3.513   1.336
79068SOL    HW139037  12.884   3.456   1.367
79068SOL    HW239038  13.034   3.477   1.377
79069SOL     OW39039  10.903   3.956  13.785
79069SOL    HW139040  10.878   4.017  13.853
79069SOL    HW239041  10.843   3.882  13.796
79070SOL     OW39042   4.004   1.563   3.294
79070SOL    HW139043   3.972   1.653   3.298
79070SOL    HW239044   3.936   1.510   3.336
79071SOL     OW39045   4.013   3.684   3.858
79071SOL    HW139046   4.019   3.590   3.876
79071SOL    HW239047   4.100   3.718   3.876
79072SOL     OW39048  11.364   3.557   2.396
79072SOL    HW139049  11.406   3.573   2.312
79072SOL    HW239050  11.352   3.644   2.434
79073SOL     OW39051   2.574  13.167  14.812
79073SOL    HW139052   2.645  13.111  14.843
79073SOL    HW239053   2.530  13.197   0.018
79074SOL     OW39054   9.262   8.833   8.179
79074SOL    HW139055   9.168   8.851   8.176
79074SOL    HW239056   9.282   8.826   8.272
79075SOL     OW39057   1.721   2.795   0.360
79075SOL    HW139058   1.664   2.752   0.424
79075SOL    HW239059   1.794   2.829   0.412
79076SOL     OW39060   3.835  14.521   6.884
79076SOL    HW139061   3.800  14.576   6.814
79076SOL    HW239062   3.894  14.579   6.933
79077SOL     OW39063  13.323   3.666  10.922
79077SOL    HW139064  13.329   3.673  11.018
79077SOL    HW239065  13.345   3.575  10.904
79078SOL     OW39066   1.274   0.566  13.063
79078SOL    HW139067   1.215   0.491  13.078
79078SOL    HW239068   1.216   0.642  13.065
79079SOL     OW39069   9.137   8.076   2.735
79079SOL    HW139070   9.099   8.022   2.804
79079SOL    HW239071   9.228   8.090   2.763
79080SOL     OW39072   8.024   4.617   1.539
79080SOL    HW139073   8.034   4.648   1.629
79080SOL    HW239074   8.078   4.538   1.534
79081SOL     OW39075   9.487  13.856  13.002
79081SOL    HW139076   9.426  13.882  12.933
79081SOL    HW239077   9.572  13.887  12.971
79082SOL     OW39078   5.932   2.171   5.324
79082SOL    HW139079   5.968   2.259   5.309
79082SOL    HW239080   5.888   2.178   5.409
79083SOL     OW39081  14.346  10.414   2.058
79083SOL    HW139082  14.349  10.319   2.048
79083SOL    HW239083  14.363  10.448   1.970
79084SOL     OW39084   8.207   1.444  11.716
79084SOL    HW139085   8.150   1.455  11.641
79084SOL    HW239086   8.284   1.398  11.682
79085SOL     OW39087   8.974   1.387   3.758
79085SOL    HW139088   8.885   1.401   3.790
79085SOL    HW239089   9.025   1.373   3.838
79086SOL     OW39090  11.150  13.275   3.753
79086SOL    HW139091  11.146  13.196   3.808
79086SOL    HW239092  11.068  13.320   3.770
79087SOL     OW39093   2.063   7.788   8.895
79087SOL    HW139094   2.062   7.849   8.821
79087SOL    HW239095   2.138   7.815   8.947
79088SOL     OW39096   6.586   3.394   0.230
79088SOL    HW139097   6.635   3.314   0.212
79088SOL    HW239098   6.638   3.464   0.192
79089SOL     OW39099   3.995   2.883  11.320
79089SOL    HW139100   3.986   2.978  11.314
79089SOL    HW239101   3.953   2.850  11.241
79090SOL     OW39102  10.762   5.631   7.743
79090SOL    HW139103  10.734   5.543   7.768
79090SOL    HW239104  10.704   5.656   7.671
79091SOL     OW39105  10.771   5.664   8.781
79091SOL    HW139106  10.865   5.667   8.762
79091SOL    HW239107  10.737   5.747   8.749
79092SOL     OW39108   8.947  11.683   4.110
79092SOL    HW139109   8.943  11.765   4.159
79092SOL    HW239110   8.882  11.627   4.151
79093SOL     OW39111   5.978   0.524  10.164
79093SOL    HW139112   5.923   0.555  10.092
79093SOL    HW239113   6.003   0.604  10.210
79094SOL     OW39114   8.513   3.474   7.893
79094SOL    HW139115   8.544   3.472   7.983
79094SOL    HW239116   8.590   3.495   7.841
79095SOL     OW39117   6.224   3.213   6.364
79095SOL    HW139118   6.266   3.226   6.279
79095SOL    HW239119   6.291   3.172   6.418
79096SOL     OW39120   9.271   0.219  12.654
79096SOL    HW139121   9.209   0.153  12.621
79096SOL    HW239122   9.263   0.214  12.749
79097SOL     OW39123   6.377  11.990  11.826
79097SOL    HW139124   6.373  11.980  11.731
79097SOL    HW239125   6.395  11.902  11.859
79098SOL     OW39126   1.373   1.920   9.557
79098SOL    HW139127   1.290   1.918   9.509
79098SOL    HW239128   1.437   1.884   9.496
79099SOL     OW39129   7.406   6.144   1.633
79099SOL    HW139130   7.349   6.191   1.693
79099SOL    HW239131   7.353   6.130   1.555
79100SOL     OW39132   2.054  13.439   5.271
79100SOL    HW139133   1.976  13.395   5.237
79100SOL    HW239134   2.041  13.531   5.246
79101SOL     OW39135  14.034   5.718   3.991
79101SOL    HW139136  14.064   5.633   3.960
79101SOL    HW239137  14.054   5.718   4.085
79102SOL     OW39138   1.148  13.220   5.930
79102SOL    HW139139   1.124  13.197   5.840
79102SOL    HW239140   1.227  13.168   5.947
79103SOL     OW39141   5.732   1.525   1.138
79103SOL    HW139142   5.810   1.488   1.097
79103SOL    HW239143   5.718   1.608   1.092
79104SOL     OW39144   5.764   7.710  11.184
79104SOL    HW139145   5.743   7.795  11.145
79104SOL    HW239146   5.824   7.669  11.122
79105SOL     OW39147  12.045   4.391  12.769
79105SOL    HW139148  12.007   4.343  12.696
79105SOL    HW239149  12.091   4.465  12.729
79106SOL     OW39150   2.575  13.535   4.108
79106SOL    HW139151   2.531  13.561   4.189
79106SOL    HW239152   2.588  13.617   4.061
79107SOL     OW39153   2.382   3.190   5.420
79107SOL    HW139154   2.328   3.231   5.488
79107SOL    HW239155   2.471   3.194   5.454
79108SOL     OW39156   8.657  14.371  13.162
79108SOL    HW139157   8.739  14.414  13.184
79108SOL    HW239158   8.618  14.347  13.246
79109SOL     OW39159   7.241   5.748   7.338
79109SOL    HW139160   7.319   5.755   7.394
79109SOL    HW239161   7.254   5.666   7.290
79110SOL     OW39162   3.081   7.397  13.931
79110SOL    HW139163   3.137   7.453  13.878
79110SOL    HW239164   3.142   7.338  13.976
79111SOL     OW39165   0.362   4.364   5.426
79111SOL    HW139166   0.285   4.356   5.370
79111SOL    HW239167   0.435   4.340   5.369
79112SOL     OW39168   5.578  12.071   0.778
79112SOL    HW139169   5.598  12.144   0.719
79112SOL    HW239170   5.491  12.042   0.752
79113SOL     OW39171   8.987   1.575   0.952
79113SOL    HW139172   9.007   1.597   1.043
79113SOL    HW239173   9.073   1.563   0.911
79114SOL     OW39174   7.752   8.180   5.106
79114SOL    HW139175   7.724   8.116   5.172
79114SOL    HW239176   7.828   8.140   5.063
79115SOL     OW39177   7.284   7.953   5.363
79115SOL    HW139178   7.334   8.033   5.351
79115SOL    HW239179   7.287   7.909   5.278
79116SOL     OW39180   2.853  11.134   9.184
79116SOL    HW139181   2.806  11.212   9.214
79116SOL    HW239182   2.823  11.121   9.094
79117SOL     OW39183   4.277   5.748   1.843
79117SOL    HW139184   4.235   5.718   1.763
79117SOL    HW239185   4.300   5.668   1.890
79118SOL     OW39186  14.160  11.784   6.267
79118SOL    HW139187  14.176  11.756   6.177
79118SOL    HW239188  14.174  11.705   6.320
79119SOL     OW39189  13.724  14.464   2.325
79119SOL    HW139190  13.787  14.519   2.371
79119SOL    HW239191  13.672  14.423   2.394
79120SOL     OW39192   2.694   3.157   4.786
79120SOL    HW139193   2.707   3.096   4.713
79120SOL    HW239194   2.608   3.135   4.821
79121SOL     OW39195   7.697  12.022   1.437
79121SOL    HW139196   7.766  12.043   1.374
79121SOL    HW239197   7.739  12.031   1.523
79122SOL     OW39198   3.971  13.982  14.705
79122SOL    HW139199   3.880  13.978  14.677
79122SOL    HW239200   4.016  13.916  14.653
79123SOL     OW39201   6.171   3.352   7.474
79123SOL    HW139202   6.101   3.342   7.409
79123SOL    HW239203   6.137   3.309   7.552
79124SOL     OW39204   5.476  10.146   7.064
79124SOL    HW139205   5.399  10.202   7.078
79124SOL    HW239206   5.445  10.057   7.083
79125SOL     OW39207  11.192   4.699   4.120
79125SOL    HW139208  11.190   4.624   4.179
79125SOL    HW239209  11.242   4.669   4.044
79126SOL     OW39210   6.251   3.158  13.676
79126SOL    HW139211   6.233   3.086  13.736
79126SOL    HW239212   6.327   3.203  13.712
79127SOL     OW39213  13.718   3.139   5.002
79127SOL    HW139214  13.687   3.053   5.032
79127SOL    HW239215  13.639   3.184   4.973
79128SOL     OW39216  10.467  14.590  12.308
79128SOL    HW139217  10.431  14.671  12.342
79128SOL    HW239218  10.439  14.587  12.216
79129SOL     OW39219   7.717  14.262   1.065
79129SOL    HW139220   7.786  14.325   1.083
79129SOL    HW239221   7.662  14.305   1.000
79130SOL     OW39222   6.774   1.182  10.490
79130SOL    HW139223   6.810   1.241  10.425
79130SOL    HW239224   6.769   1.234  10.570
79131SOL     OW39225   5.832   6.865   3.331
79131SOL    HW139226   5.799   6.951   3.358
79131SOL    HW239227   5.875   6.882   3.247
79132SOL     OW39228  10.485  11.611   4.938
79132SOL    HW139229  10.506  11.660   5.018
79132SOL    HW239230  10.513  11.669   4.867
79133SOL     OW39231   4.266   9.298  13.431
79133SOL    HW139232   4.257   9.366  13.498
79133SOL    HW239233   4.347   9.320  13.385
79134SOL     OW39234  13.275  12.189  13.022
79134SOL    HW139235  13.345  12.153  12.968
79134SOL    HW239236  13.286  12.284  13.018
79135SOL     OW39237  13.259   6.686   5.961
79135SOL    HW139238  13.301   6.753   6.016
79135SOL    HW239239  13.169   6.716   5.951
79136SOL     OW39240  14.652  11.134   7.172
79136SOL    HW139241  14.638  11.056   7.118
79136SOL    HW239242  14.573  11.138   7.227
79137SOL     OW39243   2.561   3.455  11.201
79137SOL    HW139244   2.605   3.535  11.230
79137SOL    HW239245   2.564   3.459  11.105
79138SOL     OW39246  11.049  10.484  11.885
79138SOL    HW139247  11.109  10.440  11.825
79138SOL    HW239248  10.962  10.466  11.850
79139SOL     OW39249   2.081   2.427   6.111
79139SOL    HW139250   2.121   2.340   6.112
79139SOL    HW239251   2.153   2.486   6.135
79140SOL     OW39252   6.514   9.020   8.413
79140SOL    HW139253   6.561   8.989   8.489
79140SOL    HW239254   6.512   8.946   8.353
79141SOL     OW39255   9.842  12.288  14.163
79141SOL    HW139256   9.908  12.356  14.153
79141SOL    HW239257   9.838  12.271  14.257
79142SOL     OW39258   9.352   2.110  11.991
79142SOL    HW139259   9.363   2.130  12.084
79142SOL    HW239260   9.408   2.034  11.976
79143SOL     OW39261   8.381  13.697  13.545
79143SOL    HW139262   8.435  13.662  13.474
79143SOL    HW239263   8.361  13.620  13.599
79144SOL     OW39264  13.622   3.790  11.359
79144SOL    HW139265  13.531   3.763  11.355
79144SOL    HW239266  13.646   3.809  11.268
79145SOL     OW39267   9.886   8.905   0.109
79145SOL    HW139268   9.960   8.947   0.065
79145SOL    HW239269   9.823   8.887   0.039
79146SOL     OW39270   6.654  11.232  14.408
79146SOL    HW139271   6.743  11.250  14.439
79146SOL    HW239272   6.662  11.226  14.313
79147SOL     OW39273   9.292   1.065   2.589
79147SOL    HW139274   9.383   1.036   2.597
79147SOL    HW239275   9.260   1.024   2.509
79148SOL     OW39276   5.005  13.172   1.362
79148SOL    HW139277   5.039  13.099   1.414
79148SOL    HW239278   4.940  13.213   1.419
79149SOL     OW39279   7.315  14.490   4.063
79149SOL    HW139280   7.297  14.518   3.973
79149SOL    HW239281   7.358  14.405   4.053
79150SOL     OW39282  11.057  10.105   2.295
79150SOL    HW139283  11.082  10.168   2.228
79150SOL    HW239284  11.138  10.087   2.342
79151SOL     OW39285   5.788   3.575   5.909
79151SOL    HW139286   5.863   3.634   5.913
79151SOL    HW239287   5.791   3.540   5.820
79152SOL     OW39288  13.172  14.398   1.769
79152SOL    HW139289  13.236  14.464   1.743
79152SOL    HW239290  13.143  14.426   1.856
79153SOL     OW39291   1.124   1.311   4.733
79153SOL    HW139292   1.180   1.351   4.800
79153SOL    HW239293   1.035   1.327   4.763
79154SOL     OW39294   7.730   4.202   7.520
79154SOL    HW139295   7.684   4.159   7.593
79154SOL    HW239296   7.810   4.236   7.560
79155SOL     OW39297   6.858  13.605   8.728
79155SOL    HW139298   6.908  13.524   8.738
79155SOL    HW239299   6.779  13.591   8.780
79156SOL     OW39300   0.282  11.591   0.507
79156SOL    HW139301   0.363  11.636   0.482
79156SOL    HW239302   0.311  11.503   0.532
79157SOL     OW39303   8.310   6.955   2.614
79157SOL    HW139304   8.393   6.909   2.627
79157SOL    HW239305   8.281   6.976   2.703
79158SOL     OW39306  10.484   0.999  14.252
79158SOL    HW139307  10.442   0.934  14.195
79158SOL    HW239308  10.414   1.060  14.274
79159SOL     OW39309   7.507   6.512   9.141
79159SOL    HW139310   7.581   6.566   9.169
79159SOL    HW239311   7.528   6.424   9.173
79160SOL     OW39312  13.722   9.983  13.512
79160SOL    HW139313  13.718  10.048  13.582
79160SOL    HW239314  13.719  10.034  13.431
79161SOL     OW39315   1.407   9.463   6.034
79161SOL    HW139316   1.359   9.382   6.022
79161SOL    HW239317   1.400   9.481   6.128
79162SOL     OW39318   7.429   2.385   8.359
79162SOL    HW139319   7.369   2.323   8.317
79162SOL    HW239320   7.371   2.452   8.395
79163SOL     OW39321  14.171   7.278   7.300
79163SOL    HW139322  14.169   7.183   7.308
79163SOL    HW239323  14.245   7.304   7.356
79164SOL     OW39324  11.403   5.171  13.698
79164SOL    HW139325  11.364   5.215  13.623
79164SOL    HW239326  11.467   5.234  13.732
79165SOL     OW39327   9.100  14.677   2.637
79165SOL    HW139328   9.133  14.656   2.550
79165SOL    HW239329   9.178  14.682   2.692
79166SOL     OW39330   1.682  13.228   3.611
79166SOL    HW139331   1.590  13.253   3.619
79166SOL    HW239332   1.684  13.169   3.535
79167SOL     OW39333  14.872   6.865  14.615
79167SOL    HW139334  14.778   6.848  14.604
79167SOL    HW239335   0.010   6.881  14.708
79168SOL     OW39336   9.038  10.361   3.533
79168SOL    HW139337   9.072  10.390   3.448
79168SOL    HW239338   9.092  10.284   3.554
79169SOL     OW39339   5.690  10.128   9.046
79169SOL    HW139340   5.665  10.197   9.107
79169SOL    HW239341   5.633  10.054   9.068
79170SOL     OW39342  12.250   2.291  11.729
79170SOL    HW139343  12.251   2.196  11.717
79170SOL    HW239344  12.316   2.309  11.795
79171SOL     OW39345   0.126   6.587  11.599
79171SOL    HW139346   0.135   6.506  11.548
79171SOL    HW239347   0.049   6.629  11.563
79172SOL     OW39348   0.921   6.237   7.641
79172SOL    HW139349   0.994   6.285   7.603
79172SOL    HW239350   0.863   6.304   7.676
79173SOL     OW39351  13.322  10.936  11.605
79173SOL    HW139352  13.320  10.878  11.529
79173SOL    HW239353  13.337  10.878  11.680
79174SOL     OW39354   3.772  14.506   7.292
79174SOL    HW139355   3.828  14.579   7.263
79174SOL    HW239356   3.706  14.498   7.223
79175SOL     OW39357  10.063  11.253   5.941
79175SOL    HW139358  10.121  11.205   5.999
79175SOL    HW239359  10.005  11.187   5.904
79176SOL     OW39360  10.643   6.304   2.461
79176SOL    HW139361  10.708   6.323   2.529
79176SOL    HW239362  10.606   6.220   2.486
79177SOL     OW39363   5.457   7.822  12.302
79177SOL    HW139364   5.525   7.810  12.236
79177SOL    HW239365   5.394   7.752  12.285
79178SOL     OW39366  12.257   4.366   3.029
79178SOL    HW139367  12.307   4.291   2.997
79178SOL    HW239368  12.321   4.438   3.032
79179SOL     OW39369  13.647   3.829  10.491
79179SOL    HW139370  13.559   3.868  10.490
79179SOL    HW239371  13.667   3.812  10.399
79180SOL     OW39372   8.034  11.789   7.049
79180SOL    HW139373   8.083  11.725   7.101
79180SOL    HW239374   8.099  11.824   6.988
79181SOL     OW39375   1.240   8.398   0.763
79181SOL    HW139376   1.334   8.397   0.741
79181SOL    HW239377   1.202   8.461   0.702
79182SOL     OW39378   9.684   5.989  12.969
79182SOL    HW139379   9.757   6.047  12.950
79182SOL    HW239380   9.617   6.011  12.904
79183SOL     OW39381   3.891  10.131   3.760
79183SOL    HW139382   3.914  10.116   3.668
79183SOL    HW239383   3.974  10.154   3.801
79184SOL     OW39384  14.349   6.857   4.638
79184SOL    HW139385  14.373   6.918   4.707
79184SOL    HW239386  14.419   6.864   4.573
79185SOL     OW39387  10.117   7.250   3.985
79185SOL    HW139388  10.195   7.244   3.930
79185SOL    HW239389  10.076   7.163   3.980
79186SOL     OW39390   6.520   4.345   5.685
79186SOL    HW139391   6.528   4.423   5.630
79186SOL    HW239392   6.444   4.362   5.741
79187SOL     OW39393   2.392  11.211   4.856
79187SOL    HW139394   2.350  11.154   4.792
79187SOL    HW239395   2.346  11.295   4.847
79188SOL     OW39396   5.035   1.630   9.180
79188SOL    HW139397   5.067   1.686   9.109
79188SOL    HW239398   4.995   1.555   9.136
79189SOL     OW39399   3.220  11.950   5.496
79189SOL    HW139400   3.150  11.886   5.497
79189SOL    HW239401   3.265  11.936   5.412
79190SOL     OW39402   6.079   6.698  12.812
79190SOL    HW139403   6.017   6.735  12.750
79190SOL    HW239404   6.024   6.652  12.875
79191SOL     OW39405   0.287  13.803   0.082
79191SOL    HW139406   0.227  13.850   0.025
79191SOL    HW239407   0.229  13.750   0.138
79192SOL     OW39408   8.638   7.431   2.111
79192SOL    HW139409   8.617   7.350   2.156
79192SOL    HW239410   8.700   7.406   2.042
79193SOL     OW39411  14.294  14.239   8.303
79193SOL    HW139412  14.338  14.192   8.232
79193SOL    HW239413  14.365  14.273   8.357
79194SOL     OW39414   6.012   0.162  14.530
79194SOL    HW139415   6.056   0.247  14.538
79194SOL    HW239416   5.932   0.172  14.582
79195SOL     OW39417   3.308   0.453   8.778
79195SOL    HW139418   3.293   0.375   8.830
79195SOL    HW239419   3.349   0.421   8.697
79196SOL     OW39420  14.833   6.451   7.641
79196SOL    HW139421  14.778   6.524   7.613
79196SOL    HW239422   0.050   6.478   7.619
79197SOL     OW39423   0.492   4.466  14.792
79197SOL    HW139424   0.529   4.489  14.707
79197SOL    HW239425   0.530   4.528  14.853
79198SOL     OW39426   9.471   9.640  10.650
79198SOL    HW139427   9.450   9.723  10.608
79198SOL    HW239428   9.391   9.588  10.643
79199SOL     OW39429  10.061   3.653   0.141
79199SOL    HW139430   9.989   3.660   0.204
79199SOL    HW239431  10.039   3.576   0.089
79200SOL     OW39432   3.524   4.092   9.917
79200SOL    HW139433   3.595   4.135   9.965
79200SOL    HW239434   3.461   4.162   9.900
79201SOL     OW39435  13.010   1.879   8.380
79201SOL    HW139436  12.977   1.848   8.465
79201SOL    HW239437  13.100   1.845   8.375
79202SOL     OW39438   9.995   1.663  12.859
79202SOL    HW139439   9.932   1.600  12.824
79202SOL    HW239440  10.073   1.610  12.879
79203SOL     OW39441   7.693   6.645   7.725
79203SOL    HW139442   7.720   6.576   7.785
79203SOL    HW239443   7.747   6.632   7.647
79204SOL     OW39444   9.602   0.845   0.804
79204SOL    HW139445   9.588   0.830   0.711
79204SOL    HW239446   9.543   0.917   0.826
79205SOL     OW39447   2.399   2.517   8.166
79205SOL    HW139448   2.393   2.565   8.248
79205SOL    HW239449   2.401   2.425   8.192
79206SOL     OW39450  10.501   9.527   7.960
79206SOL    HW139451  10.591   9.557   7.962
79206SOL    HW239452  10.496   9.471   7.882
79207SOL     OW39453   0.584   6.718  13.893
79207SOL    HW139454   0.526   6.787  13.862
79207SOL    HW239455   0.577   6.722  13.988
79208SOL     OW39456   4.376   6.510  10.121
79208SOL    HW139457   4.337   6.430  10.085
79208SOL    HW239458   4.385   6.491  10.215
79209SOL     OW39459  10.678   5.068  11.485
79209SOL    HW139460  10.651   5.127  11.555
79209SOL    HW239461  10.665   4.980  11.521
79210SOL     OW39462  12.125   8.187   6.765
79210SOL    HW139463  12.198   8.133   6.733
79210SOL    HW239464  12.048   8.132   6.754
79211SOL     OW39465  10.048   2.690   6.321
79211SOL    HW139466   9.991   2.639   6.378
79211SOL    HW239467  10.064   2.771   6.369
79212SOL     OW39468   7.090   8.627   4.887
79212SOL    HW139469   7.050   8.696   4.834
79212SOL    HW239470   7.016   8.577   4.922
79213SOL     OW39471   1.373   4.020   6.228
79213SOL    HW139472   1.376   3.957   6.300
79213SOL    HW239473   1.403   4.102   6.266
79214SOL     OW39474   7.423   6.296   3.196
79214SOL    HW139475   7.396   6.380   3.159
79214SOL    HW239476   7.365   6.283   3.271
79215SOL     OW39477   7.145   5.066   7.511
79215SOL    HW139478   7.142   4.981   7.466
79215SOL    HW239479   7.076   5.060   7.577
79216SOL     OW39480   8.183  14.027   8.122
79216SOL    HW139481   8.268  14.049   8.083
79216SOL    HW239482   8.118  14.053   8.057
79217SOL     OW39483   4.752  12.258   3.407
79217SOL    HW139484   4.795  12.343   3.405
79217SOL    HW239485   4.664  12.275   3.373
79218SOL     OW39486   5.715  11.382   0.994
79218SOL    HW139487   5.727  11.467   1.036
79218SOL    HW239488   5.787  11.376   0.930
79219SOL     OW39489   5.141   2.586   5.709
79219SOL    HW139490   5.085   2.514   5.679
79219SOL    HW239491   5.157   2.638   5.630
79220SOL     OW39492  10.354   4.577   9.739
79220SOL    HW139493  10.442   4.598   9.710
79220SOL    HW239494  10.337   4.489   9.705
79221SOL     OW39495   5.013  13.649   3.354
79221SOL    HW139496   5.042  13.708   3.424
79221SOL    HW239497   4.946  13.595   3.395
79222SOL     OW39498   9.918   1.474   3.655
79222SOL    HW139499   9.897   1.411   3.585
79222SOL    HW239500   9.905   1.424   3.736
79223SOL     OW39501   4.925  11.312   2.712
79223SOL    HW139502   4.967  11.345   2.633
79223SOL    HW239503   4.999  11.287   2.769
79224SOL     OW39504   5.444   3.851   4.368
79224SOL    HW139505   5.456   3.943   4.347
79224SOL    HW239506   5.470   3.804   4.288
79225SOL     OW39507   7.002   7.946   9.043
79225SOL    HW139508   6.955   7.873   9.002
79225SOL    HW239509   6.932   8.005   9.072
79226SOL     OW39510  10.056  10.135   1.590
79226SOL    HW139511   9.961  10.144   1.590
79226SOL    HW239512  10.088  10.209   1.539
79227SOL     OW39513   9.871   4.771  10.359
79227SOL    HW139514   9.833   4.743  10.276
79227SOL    HW239515   9.859   4.697  10.418
79228SOL     OW39516  13.164  13.798   9.675
79228SOL    HW139517  13.249  13.836   9.695
79228SOL    HW239518  13.158  13.721   9.732
79229SOL     OW39519  12.174   2.716  14.366
79229SOL    HW139520  12.133   2.650  14.311
79229SOL    HW239521  12.258   2.735  14.324
79230SOL     OW39522   4.956   9.688   3.684
79230SOL    HW139523   4.864   9.715   3.681
79230SOL    HW239524   4.996   9.730   3.609
79231SOL     OW39525   3.501   8.673   3.566
79231SOL    HW139526   3.479   8.586   3.532
79231SOL    HW239527   3.589   8.691   3.532
79232SOL     OW39528   7.654  13.715   3.476
79232SOL    HW139529   7.579  13.698   3.419
79232SOL    HW239530   7.621  13.702   3.565
79233SOL     OW39531  13.971   2.721   4.552
79233SOL    HW139532  13.888   2.702   4.594
79233SOL    HW239533  13.993   2.810   4.581
79234SOL     OW39534  10.587  14.715   0.800
79234SOL    HW139535  10.558  14.790   0.851
79234SOL    HW239536  10.656  14.750   0.743
79235SOL     OW39537   6.685   9.139   9.883
79235SOL    HW139538   6.612   9.078   9.892
79235SOL    HW239539   6.734   9.130   9.965
79236SOL     OW39540   7.415   8.293   2.540
79236SOL    HW139541   7.448   8.254   2.621
79236SOL    HW239542   7.379   8.377   2.567
79237SOL     OW39543   1.846   6.002   5.558
79237SOL    HW139544   1.768   5.995   5.502
79237SOL    HW239545   1.876   6.092   5.546
79238SOL     OW39546  10.499   4.962   4.421
79238SOL    HW139547  10.416   4.998   4.449
79238SOL    HW239548  10.476   4.888   4.365
79239SOL     OW39549   1.467   3.421   7.429
79239SOL    HW139550   1.546   3.427   7.483
79239SOL    HW239551   1.401   3.383   7.487
79240SOL     OW39552   8.038  14.554   1.617
79240SOL    HW139553   7.943  14.561   1.612
79240SOL    HW239554   8.063  14.518   1.531
79241SOL     OW39555   8.403  10.341   6.999
79241SOL    HW139556   8.340  10.341   6.927
79241SOL    HW239557   8.488  10.339   6.956
79242SOL     OW39558   2.284   3.492   1.463
79242SOL    HW139559   2.203   3.499   1.512
79242SOL    HW239560   2.323   3.410   1.493
79243SOL     OW39561   0.746  13.429  13.553
79243SOL    HW139562   0.789  13.396  13.632
79243SOL    HW239563   0.694  13.356  13.522
79244SOL     OW39564   4.110  12.558   2.412
79244SOL    HW139565   4.037  12.613   2.381
79244SOL    HW239566   4.081  12.526   2.497
79245SOL     OW39567  10.233  14.586  11.781
79245SOL    HW139568  10.278  14.584  11.696
79245SOL    HW239569  10.214  14.678  11.796
79246SOL     OW39570  12.209   0.213  10.411
79246SOL    HW139571  12.268   0.247  10.344
79246SOL    HW239572  12.126   0.201  10.366
79247SOL     OW39573   8.635   2.057   9.925
79247SOL    HW139574   8.544   2.028   9.915
79247SOL    HW239575   8.641   2.081  10.018
79248SOL     OW39576  12.795  10.095   6.032
79248SOL    HW139577  12.876  10.049   6.054
79248SOL    HW239578  12.802  10.180   6.076
79249SOL     OW39579   7.984  12.699   5.709
79249SOL    HW139580   7.890  12.714   5.719
79249SOL    HW239581   8.004  12.733   5.621
79250SOL     OW39582   1.289   9.295   0.373
79250SOL    HW139583   1.275   9.344   0.454
79250SOL    HW239584   1.200   9.281   0.339
79251SOL     OW39585   4.684  10.264   2.517
79251SOL    HW139586   4.589  10.260   2.529
79251SOL    HW239587   4.705  10.356   2.529
79252SOL     OW39588   8.594   4.961  12.600
79252SOL    HW139589   8.588   4.874  12.641
79252SOL    HW239590   8.584   5.022  12.673
79253SOL     OW39591   2.618   1.455   4.805
79253SOL    HW139592   2.536   1.421   4.769
79253SOL    HW239593   2.596   1.485   4.893
79254SOL     OW39594  13.568   3.790   4.480
79254SOL    HW139595  13.535   3.878   4.460
79254SOL    HW239596  13.562   3.784   4.575
79255SOL     OW39597   1.270   2.523   6.678
79255SOL    HW139598   1.358   2.499   6.650
79255SOL    HW239599   1.274   2.521   6.774
79256SOL     OW39600   8.021   9.525   9.001
79256SOL    HW139601   7.981   9.602   8.961
79256SOL    HW239602   8.114   9.546   9.008
79257SOL     OW39603   7.188   9.615   0.002
79257SOL    HW139604   7.132   9.655   0.068
79257SOL    HW239605   7.256   9.680  14.858
79258SOL     OW39606  10.435  13.238  10.300
79258SOL    HW139607  10.398  13.164  10.252
79258SOL    HW239608  10.400  13.229  10.389
79259SOL     OW39609   1.232  14.461   7.798
79259SOL    HW139610   1.221  14.438   7.706
79259SOL    HW239611   1.278  14.545   7.797
79260SOL     OW39612   4.207   9.839  11.121
79260SOL    HW139613   4.280   9.870  11.175
79260SOL    HW239614   4.245   9.828  11.034
79261SOL     OW39615  13.962   0.178  11.568
79261SOL    HW139616  14.044   0.138  11.596
79261SOL    HW239617  13.918   0.109  11.519
79262SOL     OW39618  13.336   7.909   9.226
79262SOL    HW139619  13.276   7.972   9.265
79262SOL    HW239620  13.413   7.910   9.283
79263SOL     OW39621   2.199  11.369  11.654
79263SOL    HW139622   2.119  11.423  11.655
79263SOL    HW239623   2.256  11.410  11.719
79264SOL     OW39624   1.487   0.915  14.392
79264SOL    HW139625   1.421   0.953  14.450
79264SOL    HW239626   1.490   0.822  14.416
79265SOL     OW39627   0.713   6.075  12.013
79265SOL    HW139628   0.702   6.096  12.106
79265SOL    HW239629   0.671   5.989  12.003
79266SOL     OW39630   9.748   3.190   9.874
79266SOL    HW139631   9.825   3.197   9.819
79266SOL    HW239632   9.676   3.225   9.821
79267SOL     OW39633   2.568   3.003  10.423
79267SOL    HW139634   2.612   3.048  10.496
79267SOL    HW239635   2.613   3.035  10.345
79268SOL     OW39636   8.255   5.676  14.173
79268SOL    HW139637   8.240   5.768  14.192
79268SOL    HW239638   8.182   5.652  14.115
79269SOL     OW39639   2.276   9.403   3.644
79269SOL    HW139640   2.357   9.391   3.596
79269SOL    HW239641   2.207   9.387   3.580
79270SOL     OW39642   9.537   3.125   8.749
79270SOL    HW139643   9.500   3.204   8.709
79270SOL    HW239644   9.537   3.060   8.679
79271SOL     OW39645   4.243   8.064   8.472
79271SOL    HW139646   4.247   8.136   8.535
79271SOL    HW239647   4.319   8.077   8.415
79272SOL     OW39648   3.645   7.520   0.801
79272SOL    HW139649   3.674   7.519   0.892
79272SOL    HW239650   3.653   7.429   0.773
79273SOL     OW39651   6.323   1.716   0.133
79273SOL    HW139652   6.242   1.762   0.111
79273SOL    HW239653   6.304   1.624   0.115
79274SOL     OW39654   8.361  10.089   3.205
79274SOL    HW139655   8.348  10.161   3.267
79274SOL    HW239656   8.443  10.048   3.232
79275SOL     OW39657   0.320   5.430   5.221
79275SOL    HW139658   0.397   5.374   5.218
79275SOL    HW239659   0.289   5.423   5.311
79276SOL     OW39660   7.654   3.241   7.651
79276SOL    HW139661   7.693   3.267   7.734
79276SOL    HW239662   7.562   3.268   7.658
79277SOL     OW39663   0.682   3.357   3.424
79277SOL    HW139664   0.774   3.337   3.444
79277SOL    HW239665   0.634   3.281   3.456
79278SOL     OW39666   0.091   0.069  11.431
79278SOL    HW139667   0.089  14.863  11.485
79278SOL    HW239668   0.047   0.044  11.350
79279SOL     OW39669  11.493   7.304   1.385
79279SOL    HW139670  11.552   7.378   1.371
79279SOL    HW239671  11.502   7.284   1.479
79280SOL     OW39672   0.550   5.083  10.107
79280SOL    HW139673   0.519   5.155  10.052
79280SOL    HW239674   0.532   5.004  10.055
79281SOL     OW39675   4.479   5.747   6.912
79281SOL    HW139676   4.433   5.779   6.834
79281SOL    HW239677   4.410   5.723   6.973
79282SOL     OW39678   4.024  14.356   6.743
79282SOL    HW139679   3.977  14.316   6.670
79282SOL    HW239680   3.955  14.376   6.807
79283SOL     OW39681  12.987  12.899   4.269
79283SOL    HW139682  12.923  12.884   4.200
79283SOL    HW239683  13.003  12.994   4.266
79284SOL     OW39684   0.064   9.517   7.440
79284SOL    HW139685  14.867   9.580   7.419
79284SOL    HW239686   0.092   9.483   7.355
79285SOL     OW39687   3.331   1.614   4.342
79285SOL    HW139688   3.304   1.531   4.303
79285SOL    HW239689   3.416   1.596   4.380
79286SOL     OW39690  12.281   7.100  11.137
79286SOL    HW139691  12.297   7.020  11.086
79286SOL    HW239692  12.186   7.104  11.146
79287SOL     OW39693   8.536   9.741  12.162
79287SOL    HW139694   8.578   9.825  12.144
79287SOL    HW239695   8.569   9.716  12.248
79288SOL     OW39696   8.152   0.230   8.197
79288SOL    HW139697   8.110   0.183   8.269
79288SOL    HW239698   8.206   0.164   8.154
79289SOL     OW39699   6.261   6.401   3.014
79289SOL    HW139700   6.294   6.379   2.927
79289SOL    HW239701   6.193   6.467   2.999
79290SOL     OW39702   8.165  11.669   1.091
79290SOL    HW139703   8.187  11.760   1.109
79290SOL    HW239704   8.177  11.660   0.996
79291SOL     OW39705   0.873  11.400   0.637
79291SOL    HW139706   0.864  11.367   0.548
79291SOL    HW239707   0.870  11.495   0.628
79292SOL     OW39708   4.374  11.576   5.451
79292SOL    HW139709   4.451  11.631   5.435
79292SOL    HW239710   4.410  11.493   5.482
79293SOL     OW39711   0.179   5.953   5.700
79293SOL    HW139712   0.256   6.004   5.675
79293SOL    HW239713   0.190   5.870   5.654
79294SOL     OW39714   6.685  13.401   1.529
79294SOL    HW139715   6.768  13.442   1.505
79294SOL    HW239716   6.620  13.470   1.520
79295SOL     OW39717  13.909  13.537   2.007
79295SOL    HW139718  13.902  13.465   1.944
79295SOL    HW239719  13.960  13.502   2.080
79296SOL     OW39720   1.803  12.785   8.653
79296SOL    HW139721   1.731  12.778   8.715
79296SOL    HW239722   1.771  12.742   8.574
79297SOL     OW39723   4.583   7.559   2.932
79297SOL    HW139724   4.523   7.633   2.938
79297SOL    HW239725   4.670   7.598   2.936
79298SOL     OW39726  14.865   5.765   1.805
79298SOL    HW139727   0.067   5.822   1.785
79298SOL    HW239728  14.816   5.760   1.722
79299SOL     OW39729   9.293  13.372  13.029
79299SOL    HW139730   9.254  13.396  12.946
79299SOL    HW239731   9.302  13.455  13.077
79300SOL     OW39732   9.936  10.726   8.543
79300SOL    HW139733   9.961  10.650   8.491
79300SOL    HW239734   9.866  10.768   8.493
79301SOL     OW39735   1.111  11.862   7.084
79301SOL    HW139736   1.111  11.804   7.160
79301SOL    HW239737   1.033  11.836   7.034
79302SOL     OW39738  12.122   1.431  12.458
79302SOL    HW139739  12.173   1.419  12.539
79302SOL    HW239740  12.185   1.415  12.388
79303SOL     OW39741   3.751  10.200  10.251
79303SOL    HW139742   3.669  10.194  10.202
79303SOL    HW239743   3.729  10.171  10.339
79304SOL     OW39744  11.343  11.088   4.057
79304SOL    HW139745  11.289  11.009   4.060
79304SOL    HW239746  11.407  11.071   3.988
79305SOL     OW39747   3.052  12.830  12.255
79305SOL    HW139748   3.015  12.869  12.334
79305SOL    HW239749   3.005  12.872  12.183
79306SOL     OW39750   3.441   4.458   0.431
79306SOL    HW139751   3.363   4.407   0.410
79306SOL    HW239752   3.508   4.393   0.451
79307SOL     OW39753  14.026   9.090  12.835
79307SOL    HW139754  13.956   9.064  12.776
79307SOL    HW239755  13.983   9.138  12.905
79308SOL     OW39756   6.264   8.939  14.234
79308SOL    HW139757   6.208   8.921  14.309
79308SOL    HW239758   6.203   8.957  14.162
79309SOL     OW39759   3.984   5.794   1.444
79309SOL    HW139760   4.058   5.798   1.384
79309SOL    HW239761   3.909   5.822   1.392
79310SOL     OW39762  13.091  14.083   1.971
79310SOL    HW139763  13.036  14.105   1.895
79310SOL    HW239764  13.082  14.157   2.030
79311SOL     OW39765   7.418   8.757   5.140
79311SOL    HW139766   7.442   8.849   5.152
79311SOL    HW239767   7.329   8.760   5.104
79312SOL     OW39768   1.309  10.012   0.947
79312SOL    HW139769   1.274   9.987   1.032
79312SOL    HW239770   1.253   9.967   0.884
79313SOL     OW39771   1.787   9.841   8.681
79313SOL    HW139772   1.748   9.819   8.597
79313SOL    HW239773   1.785   9.759   8.731
79314SOL     OW39774   2.804   9.931   9.990
79314SOL    HW139775   2.778  10.023   9.996
79314SOL    HW239776   2.827   9.906  10.079
79315SOL     OW39777   4.132  12.785   9.000
79315SOL    HW139778   4.057  12.838   9.025
79315SOL    HW239779   4.134  12.713   9.062
79316SOL     OW39780   5.153  10.811   3.874
79316SOL    HW139781   5.160  10.760   3.794
79316SOL    HW239782   5.066  10.852   3.869
79317SOL     OW39783   3.061   6.323   8.498
79317SOL    HW139784   3.127   6.261   8.527
79317SOL    HW239785   3.068   6.324   8.403
79318SOL     OW39786  10.341   5.738  13.481
79318SOL    HW139787  10.344   5.680  13.404
79318SOL    HW239788  10.371   5.823  13.448
79319SOL     OW39789  12.506   2.048   3.470
79319SOL    HW139790  12.455   2.130   3.471
79319SOL    HW239791  12.588   2.072   3.426
79320SOL     OW39792   7.181   2.888  12.142
79320SOL    HW139793   7.206   2.812  12.194
79320SOL    HW239794   7.262   2.918  12.102
79321SOL     OW39795   5.274   5.404   3.608
79321SOL    HW139796   5.337   5.475   3.596
79321SOL    HW239797   5.189   5.448   3.612
79322SOL     OW39798  13.821   3.405  14.191
79322SOL    HW139799  13.776   3.483  14.159
79322SOL    HW239800  13.784   3.333  14.139
79323SOL     OW39801   2.849  10.677  10.308
79323SOL    HW139802   2.789  10.701  10.237
79323SOL    HW239803   2.921  10.633  10.263
79324SOL     OW39804   2.655   8.196   5.020
79324SOL    HW139805   2.693   8.142   5.089
79324SOL    HW239806   2.567   8.161   5.008
79325SOL     OW39807   6.328  12.403   7.800
79325SOL    HW139808   6.331  12.351   7.880
79325SOL    HW239809   6.291  12.343   7.734
79326SOL     OW39810   3.856   2.116   3.810
79326SOL    HW139811   3.856   2.111   3.714
79326SOL    HW239812   3.771   2.080   3.836
79327SOL     OW39813  12.337  11.912   4.104
79327SOL    HW139814  12.425  11.947   4.114
79327SOL    HW239815  12.322  11.910   4.009
79328SOL     OW39816  13.323  10.198  10.681
79328SOL    HW139817  13.268  10.141  10.735
79328SOL    HW239818  13.270  10.214  10.603
79329SOL     OW39819   3.385   8.195   0.584
79329SOL    HW139820   3.327   8.253   0.534
79329SOL    HW239821   3.422   8.136   0.519
79330SOL     OW39822  13.043   2.833  11.363
79330SOL    HW139823  12.967   2.776  11.379
79330SOL    HW239824  13.110   2.774  11.328
79331SOL     OW39825   9.515   3.132   9.499
79331SOL    HW139826   9.576   3.200   9.470
79331SOL    HW239827   9.430   3.161   9.465
79332SOL     OW39828   5.918   8.582   2.060
79332SOL    HW139829   5.949   8.641   2.129
79332SOL    HW239830   5.994   8.569   2.004
79333SOL     OW39831   8.196   9.633   5.411
79333SOL    HW139832   8.197   9.724   5.382
79333SOL    HW239833   8.103   9.610   5.415
79334SOL     OW39834   3.527   1.843   5.274
79334SOL    HW139835   3.485   1.926   5.298
79334SOL    HW239836   3.517   1.839   5.179
79335SOL     OW39837   1.268  10.659   8.247
79335SOL    HW139838   1.236  10.740   8.207
79335SOL    HW239839   1.189  10.611   8.272
79336SOL     OW39840   8.745   8.743   9.126
79336SOL    HW139841   8.755   8.834   9.152
79336SOL    HW239842   8.651   8.727   9.129
79337SOL     OW39843  11.811  10.262  14.597
79337SOL    HW139844  11.863  10.184  14.616
79337SOL    HW239845  11.786  10.296  14.682
79338SOL     OW39846  14.047   8.878   7.303
79338SOL    HW139847  14.038   8.800   7.358
79338SOL    HW239848  13.961   8.889   7.263
79339SOL     OW39849   8.326   1.152   4.599
79339SOL    HW139850   8.364   1.103   4.527
79339SOL    HW239851   8.271   1.089   4.645
79340SOL     OW39852   5.893  14.752   8.560
79340SOL    HW139853   5.874  14.845   8.574
79340SOL    HW239854   5.905  14.744   8.465
79341SOL     OW39855   8.911   0.163   5.112
79341SOL    HW139856   8.900   0.214   5.032
79341SOL    HW239857   8.923   0.230   5.181
79342SOL     OW39858   1.668  10.954   2.246
79342SOL    HW139859   1.715  10.978   2.167
79342SOL    HW239860   1.636  11.037   2.282
79343SOL     OW39861   0.468   4.455   6.961
79343SOL    HW139862   0.484   4.397   7.034
79343SOL    HW239863   0.380   4.432   6.931
79344SOL     OW39864   5.969  13.150   4.005
79344SOL    HW139865   6.027  13.134   4.079
79344SOL    HW239866   6.022  13.127   3.928
79345SOL     OW39867   7.419  12.602   2.629
79345SOL    HW139868   7.491  12.539   2.619
79345SOL    HW239869   7.340  12.550   2.621
79346SOL     OW39870   4.258  11.101   3.401
79346SOL    HW139871   4.305  11.165   3.455
79346SOL    HW239872   4.178  11.147   3.374
79347SOL     OW39873   3.513   6.970  14.848
79347SOL    HW139874   3.565   7.050  14.855
79347SOL    HW239875   3.423   6.998  14.865
79348SOL     OW39876   7.256   7.954  11.855
79348SOL    HW139877   7.307   8.008  11.914
79348SOL    HW239878   7.187   7.917  11.910
79349SOL     OW39879   0.291   4.507   3.176
79349SOL    HW139880   0.328   4.436   3.123
79349SOL    HW239881   0.209   4.529   3.132
79350SOL     OW39882  10.869   9.829  10.369
79350SOL    HW139883  10.816   9.907  10.386
79350SOL    HW239884  10.880   9.828  10.274
79351SOL     OW39885   8.239   3.389   7.449
79351SOL    HW139886   8.308   3.385   7.515
79351SOL    HW239887   8.165   3.343   7.490
79352SOL     OW39888   2.051  14.598   4.342
79352SOL    HW139889   1.956  14.598   4.348
79352SOL    HW239890   2.070  14.621   4.251
79353SOL     OW39891   0.916   8.597  11.136
79353SOL    HW139892   0.889   8.688  11.125
79353SOL    HW239893   0.873   8.551  11.063
79354SOL     OW39894   3.972   2.343   5.917
79354SOL    HW139895   4.040   2.378   5.859
79354SOL    HW239896   3.919   2.419   5.940
79355SOL     OW39897  13.832   1.867   9.199
79355SOL    HW139898  13.809   1.960   9.197
79355SOL    HW239899  13.922   1.865   9.232
79356SOL     OW39900  11.717   2.055   8.812
79356SOL    HW139901  11.652   2.063   8.881
79356SOL    HW239902  11.711   2.138   8.765
79357SOL     OW39903   0.731   5.203   3.764
79357SOL    HW139904   0.765   5.140   3.827
79357SOL    HW239905   0.646   5.229   3.800
79358SOL     OW39906  14.334   8.573   7.150
79358SOL    HW139907  14.318   8.668   7.145
79358SOL    HW239908  14.337   8.555   7.244
79359SOL     OW39909   2.061   8.558   9.341
79359SOL    HW139910   1.982   8.529   9.294
79359SOL    HW239911   2.120   8.589   9.272
79360SOL     OW39912   4.002   8.938   8.357
79360SOL    HW139913   3.975   8.942   8.449
79360SOL    HW239914   4.093   8.909   8.361
79361SOL     OW39915   5.119   1.228   3.350
79361SOL    HW139916   5.159   1.211   3.435
79361SOL    HW239917   5.052   1.294   3.368
79362SOL     OW39918   7.357  14.085   1.713
79362SOL    HW139919   7.329  14.071   1.623
79362SOL    HW239920   7.276  14.101   1.761
79363SOL     OW39921   6.704   9.999  12.002
79363SOL    HW139922   6.746  10.039  12.079
79363SOL    HW239923   6.716   9.905  12.015
79364SOL     OW39924  12.317   2.515  11.526
79364SOL    HW139925  12.409   2.505  11.550
79364SOL    HW239926  12.279   2.429  11.543
79365SOL     OW39927   3.532  11.061   2.099
79365SOL    HW139928   3.462  11.063   2.034
79365SOL    HW239929   3.577  10.978   2.083
79366SOL     OW39930   8.328  11.817   9.432
79366SOL    HW139931   8.296  11.759   9.363
79366SOL    HW239932   8.352  11.758   9.503
79367SOL     OW39933  14.496  14.516   9.899
79367SOL    HW139934  14.451  14.446   9.852
79367SOL    HW239935  14.428  14.555   9.955
79368SOL     OW39936   6.578   5.043  14.651
79368SOL    HW139937   6.487   5.065  14.631
79368SOL    HW239938   6.577   4.948  14.662
79369SOL     OW39939  14.698   0.133   3.503
79369SOL    HW139940  14.693   0.062   3.567
79369SOL    HW239941  14.645   0.104   3.429
79370SOL     OW39942  11.888  11.217   4.509
79370SOL    HW139943  11.954  11.189   4.572
79370SOL    HW239944  11.936  11.226   4.427
79371SOL     OW39945   3.476   3.605  10.395
79371SOL    HW139946   3.459   3.534  10.456
79371SOL    HW239947   3.571   3.610  10.388
79372SOL     OW39948   3.886   3.726  12.892
79372SOL    HW139949   3.866   3.780  12.815
79372SOL    HW239950   3.949   3.662  12.861
79373SOL     OW39951   7.720   0.817   7.592
79373SOL    HW139952   7.664   0.825   7.515
79373SOL    HW239953   7.795   0.765   7.563
79374SOL     OW39954  12.699   8.642  11.952
79374SOL    HW139955  12.756   8.588  12.007
79374SOL    HW239956  12.611   8.609  11.968
79375SOL     OW39957  10.832  11.912   5.352
79375SOL    HW139958  10.872  11.923   5.266
79375SOL    HW239959  10.738  11.911   5.336
79376SOL     OW39960  10.901  11.524  14.506
79376SOL    HW139961  10.881  11.535  14.413
79376SOL    HW239962  10.878  11.608  14.546
79377SOL     OW39963   1.668   5.982   2.530
79377SOL    HW139964   1.704   6.071   2.529
79377SOL    HW239965   1.627   5.971   2.444
79378SOL     OW39966   1.993  10.885   6.145
79378SOL    HW139967   2.024  10.834   6.070
79378SOL    HW239968   1.923  10.940   6.110
79379SOL     OW39969  11.816   3.211  12.510
79379SOL    HW139970  11.838   3.235  12.600
79379SOL    HW239971  11.888   3.246  12.457
79380SOL     OW39972   7.180  13.390   6.775
79380SOL    HW139973   7.114  13.408   6.841
79380SOL    HW239974   7.155  13.306   6.738
79381SOL     OW39975   6.898   5.221   4.997
79381SOL    HW139976   6.983   5.240   4.955
79381SOL    HW239977   6.838   5.209   4.923
79382SOL     OW39978   6.040  10.610  14.265
79382SOL    HW139979   6.035  10.694  14.310
79382SOL    HW239980   6.124  10.573  14.293
79383SOL     OW39981   4.080   1.027  11.256
79383SOL    HW139982   4.051   0.949  11.303
79383SOL    HW239983   4.063   1.007  11.164
79384SOL     OW39984   1.839  10.619   7.788
79384SOL    HW139985   1.875  10.613   7.700
79384SOL    HW239986   1.907  10.661   7.840
79385SOL     OW39987  11.969  11.222   7.348
79385SOL    HW139988  11.972  11.262   7.435
79385SOL    HW239989  11.889  11.169   7.349
79386SOL     OW39990  13.138  12.571   2.827
79386SOL    HW139991  13.199  12.497   2.822
79386SOL    HW239992  13.172  12.625   2.899
79387SOL     OW39993   2.177  12.685   0.038
79387SOL    HW139994   2.199  12.612   0.096
79387SOL    HW239995   2.252  12.692  14.852
79388SOL     OW39996  12.825   7.030   1.002
79388SOL    HW139997  12.747   7.069   0.964
79388SOL    HW239998  12.792   6.969   1.068
79389SOL     OW39999   3.401  11.526   0.730
79389SOL    HW140000   3.345  11.567   0.664
79389SOL    HW240001   3.429  11.598   0.787
79390SOL     OW40002   8.327  11.413   2.074
79390SOL    HW140003   8.274  11.492   2.090
79390SOL    HW240004   8.284  11.345   2.127
79391SOL     OW40005   9.382   4.287   9.438
79391SOL    HW140006   9.403   4.197   9.411
79391SOL    HW240007   9.367   4.281   9.532
79392SOL     OW40008   4.178  13.904   7.864
79392SOL    HW140009   4.236  13.977   7.884
79392SOL    HW240010   4.230  13.847   7.807
79393SOL     OW40011  10.559   3.799  14.725
79393SOL    HW140012  10.646   3.836  14.712
79393SOL    HW240013  10.574   3.706  14.740
79394SOL     OW40014   3.787  12.880  11.523
79394SOL    HW140015   3.719  12.897  11.458
79394SOL    HW240016   3.860  12.844  11.472
79395SOL     OW40017   7.272  14.567   8.765
79395SOL    HW140018   7.246  14.494   8.821
79395SOL    HW240019   7.324  14.623   8.822
79396SOL     OW40020   2.645   7.246   5.005
79396SOL    HW140021   2.699   7.173   5.035
79396SOL    HW240022   2.635   7.232   4.911
79397SOL     OW40023   9.122   1.562  13.059
79397SOL    HW140024   9.089   1.476  13.085
79397SOL    HW240025   9.063   1.624  13.103
79398SOL     OW40026   3.962   9.440   5.878
79398SOL    HW140027   3.970   9.536   5.876
79398SOL    HW240028   4.005   9.414   5.959
79399SOL     OW40029  14.653  14.145   8.862
79399SOL    HW140030  14.632  14.148   8.768
79399SOL    HW240031  14.635  14.055   8.888
79400SOL     OW40032  12.871  10.053   0.193
79400SOL    HW140033  12.782  10.046   0.227
79400SOL    HW240034  12.867  10.126   0.131
79401SOL     OW40035   9.438  13.948  13.253
79401SOL    HW140036   9.462  13.914  13.167
79401SOL    HW240037   9.509  13.921  13.311
79402SOL     OW40038  13.504  11.623  13.927
79402SOL    HW140039  13.488  11.688  13.858
79402SOL    HW240040  13.556  11.555  13.884
79403SOL     OW40041   7.370   7.802   4.554
79403SOL    HW140042   7.312   7.836   4.486
79403SOL    HW240043   7.452   7.782   4.508
79404SOL     OW40044   9.713   4.286  10.232
79404SOL    HW140045   9.743   4.358  10.287
79404SOL    HW240046   9.690   4.328  10.149
79405SOL     OW40047  14.859   2.379   9.268
79405SOL    HW140048   0.061   2.350   9.319
79405SOL    HW240049   0.024   2.429   9.195
79406SOL     OW40050   6.471  12.594   7.055
79406SOL    HW140051   6.393  12.556   7.015
79406SOL    HW240052   6.519  12.519   7.091
79407SOL     OW40053   2.634   2.261   9.500
79407SOL    HW140054   2.678   2.234   9.419
79407SOL    HW240055   2.676   2.210   9.569
79408SOL     OW40056   7.444   5.492   2.298
79408SOL    HW140057   7.420   5.560   2.361
79408SOL    HW240058   7.450   5.537   2.214
79409SOL     OW40059  13.760   5.663  13.801
79409SOL    HW140060  13.853   5.685  13.807
79409SOL    HW240061  13.756   5.595  13.734
79410SOL     OW40062   3.381  13.215  14.386
79410SOL    HW140063   3.390  13.143  14.449
79410SOL    HW240064   3.375  13.172  14.301
79411SOL     OW40065   8.780  11.715   0.114
79411SOL    HW140066   8.830  11.719   0.033
79411SOL    HW240067   8.783  11.805   0.148
79412SOL     OW40068   8.175  13.031  14.484
79412SOL    HW140069   8.135  12.949  14.454
79412SOL    HW240070   8.116  13.063  14.553
79413SOL     OW40071   8.899   7.652   8.295
79413SOL    HW140072   8.947   7.591   8.351
79413SOL    HW240073   8.966   7.690   8.238
79414SOL     OW40074   2.963  10.528   1.924
79414SOL    HW140075   2.937  10.438   1.940
79414SOL    HW240076   2.957  10.571   2.009
79415SOL     OW40077   9.173   0.845   5.732
79415SOL    HW140078   9.160   0.904   5.806
79415SOL    HW240079   9.252   0.878   5.689
79416SOL     OW40080   0.742  10.481  11.473
79416SOL    HW140081   0.698  10.403  11.442
79416SOL    HW240082   0.697  10.553  11.429
79417SOL     OW40083  11.117  14.382   8.523
79417SOL    HW140084  11.112  14.476   8.508
79417SOL    HW240085  11.089  14.343   8.440
79418SOL     OW40086  14.390   0.258   8.588
79418SOL    HW140087  14.437   0.265   8.505
79418SOL    HW240088  14.455   0.282   8.654
79419SOL     OW40089  10.466   7.175   1.264
79419SOL    HW140090  10.435   7.160   1.353
79419SOL    HW240091  10.514   7.095   1.242
79420SOL     OW40092  10.585  14.095  13.631
79420SOL    HW140093  10.508  14.075  13.578
79420SOL    HW240094  10.551  14.144  13.706
79421SOL     OW40095   0.738  12.193  13.991
79421SOL    HW140096   0.771  12.103  13.993
79421SOL    HW240097   0.661  12.189  13.935
79422SOL     OW40098   2.972   0.638   2.979
79422SOL    HW140099   2.991   0.545   2.990
79422SOL    HW240100   2.964   0.672   3.068
79423SOL     OW40101   3.058   0.327  10.272
79423SOL    HW140102   3.149   0.357  10.270
79423SOL    HW240103   3.021   0.367  10.350
79424SOL     OW40104  11.045  13.015  11.889
79424SOL    HW140105  11.047  13.086  11.953
79424SOL    HW240106  11.055  12.935  11.941
79425SOL     OW40107   7.362   9.019   2.443
79425SOL    HW140108   7.340   9.109   2.418
79425SOL    HW240109   7.303   8.999   2.515
79426SOL     OW40110   5.840   8.251   7.980
79426SOL    HW140111   5.789   8.329   7.959
79426SOL    HW240112   5.924   8.285   8.012
79427SOL     OW40113   5.503   3.306   4.637
79427SOL    HW140114   5.552   3.231   4.603
79427SOL    HW240115   5.549   3.382   4.604
79428SOL     OW40116   8.121  12.407   0.290
79428SOL    HW140117   8.051  12.430   0.229
79428SOL    HW240118   8.195  12.383   0.234
79429SOL     OW40119  12.351   8.521   8.862
79429SOL    HW140120  12.299   8.467   8.921
79429SOL    HW240121  12.290   8.546   8.792
79430SOL     OW40122  11.970  14.867   0.856
79430SOL    HW140123  11.897   0.011   0.915
79430SOL    HW240124  11.932  14.814   0.785
79431SOL     OW40125   2.028   1.696  12.869
79431SOL    HW140126   1.975   1.771  12.896
79431SOL    HW240127   2.018   1.632  12.939
79432SOL     OW40128  11.948   0.842   0.210
79432SOL    HW140129  11.951   0.879   0.122
79432SOL    HW240130  11.875   0.781   0.208
79433SOL     OW40131  10.475   3.946   9.413
79433SOL    HW140132  10.544   3.891   9.450
79433SOL    HW240133  10.485   4.030   9.458
79434SOL     OW40134   6.578   0.720   4.086
79434SOL    HW140135   6.668   0.708   4.116
79434SOL    HW240136   6.587   0.748   3.995
79435SOL     OW40137   1.881  13.271   0.356
79435SOL    HW140138   1.877  13.194   0.412
79435SOL    HW240139   1.790  13.302   0.351
79436SOL     OW40140   5.495   7.546  12.805
79436SOL    HW140141   5.418   7.602  12.810
79436SOL    HW240142   5.529   7.544  12.895
79437SOL     OW40143  10.791   0.651   4.233
79437SOL    HW140144  10.768   0.560   4.253
79437SOL    HW240145  10.865   0.645   4.173
79438SOL     OW40146  11.950   0.522   0.496
79438SOL    HW140147  11.955   0.439   0.543
79438SOL    HW240148  11.894   0.503   0.420
79439SOL     OW40149  10.856   5.133   7.321
79439SOL    HW140150  10.897   5.046   7.321
79439SOL    HW240151  10.782   5.124   7.382
79440SOL     OW40152   2.178  14.675   9.039
79440SOL    HW140153   2.196  14.631   8.956
79440SOL    HW240154   2.264  14.691   9.077
79441SOL     OW40155   4.680   2.991   7.701
79441SOL    HW140156   4.755   2.974   7.757
79441SOL    HW240157   4.655   3.081   7.720
79442SOL     OW40158  11.564   7.170   1.660
79442SOL    HW140159  11.574   7.093   1.603
79442SOL    HW240160  11.544   7.133   1.746
79443SOL     OW40161   6.856   3.800   8.564
79443SOL    HW140162   6.945   3.776   8.538
79443SOL    HW240163   6.866   3.835   8.653
79444SOL     OW40164  11.378  13.350  11.178
79444SOL    HW140165  11.351  13.273  11.128
79444SOL    HW240166  11.472  13.355  11.165
79445SOL     OW40167   0.142   3.088   5.519
79445SOL    HW140168   0.219   3.129   5.479
79445SOL    HW240169   0.129   3.135   5.601
79446SOL     OW40170  14.267   9.639  14.733
79446SOL    HW140171  14.246   9.653  14.641
79446SOL    HW240172  14.226   9.712  14.779
79447SOL     OW40173   3.152   1.157   1.609
79447SOL    HW140174   3.146   1.070   1.647
79447SOL    HW240175   3.136   1.144   1.516
79448SOL     OW40176   3.005   8.041   1.528
79448SOL    HW140177   2.924   8.031   1.580
79448SOL    HW240178   2.976   8.033   1.437
79449SOL     OW40179   1.884   0.816   1.334
79449SOL    HW140180   1.830   0.769   1.270
79449SOL    HW240181   1.856   0.907   1.326
79450SOL     OW40182   0.105   7.613   5.948
79450SOL    HW140183   0.066   7.529   5.972
79450SOL    HW240184   0.126   7.654   6.032
79451SOL     OW40185   9.880  11.925   6.776
79451SOL    HW140186   9.858  12.015   6.799
79451SOL    HW240187   9.888  11.880   6.860
79452SOL     OW40188  12.379  11.653  10.377
79452SOL    HW140189  12.365  11.621  10.466
79452SOL    HW240190  12.292  11.655  10.338
79453SOL     OW40191   4.653   0.279   9.758
79453SOL    HW140192   4.647   0.315   9.846
79453SOL    HW240193   4.719   0.210   9.764
79454SOL     OW40194   2.986   9.062  12.953
79454SOL    HW140195   2.956   9.127  13.016
79454SOL    HW240196   3.075   9.089  12.930
79455SOL     OW40197   5.321   3.953   1.500
79455SOL    HW140198   5.245   3.899   1.478
79455SOL    HW240199   5.324   4.019   1.431
79456SOL     OW40200   9.831  13.603   0.340
79456SOL    HW140201   9.897  13.670   0.319
79456SOL    HW240202   9.882  13.529   0.374
79457SOL     OW40203   0.089   3.808  12.014
79457SOL    HW140204   0.087   3.774  11.925
79457SOL    HW240205   0.157   3.875  12.013
79458SOL     OW40206   4.377  10.146   2.006
79458SOL    HW140207   4.337  10.177   1.924
79458SOL    HW240208   4.344  10.205   2.073
79459SOL     OW40209   1.566  11.127   3.782
79459SOL    HW140210   1.553  11.173   3.865
79459SOL    HW240211   1.660  11.131   3.766
79460SOL     OW40212  10.544   2.505  13.023
79460SOL    HW140213  10.523   2.512  13.116
79460SOL    HW240214  10.607   2.433  13.018
79461SOL     OW40215   8.957   7.881   2.202
79461SOL    HW140216   8.969   7.786   2.206
79461SOL    HW240217   8.931   7.906   2.291
79462SOL     OW40218   2.970   6.011   7.746
79462SOL    HW140219   2.906   5.942   7.764
79462SOL    HW240220   2.980   6.010   7.651
79463SOL     OW40221   6.059  11.594  10.325
79463SOL    HW140222   6.050  11.664  10.390
79463SOL    HW240223   6.097  11.521  10.373
79464SOL     OW40224   5.559   5.758   9.034
79464SOL    HW140225   5.614   5.811   9.092
79464SOL    HW240226   5.621   5.712   8.977
79465SOL     OW40227  12.585  10.617  10.936
79465SOL    HW140228  12.502  10.601  10.981
79465SOL    HW240229  12.606  10.534  10.893
79466SOL     OW40230   4.634   0.572  10.225
79466SOL    HW140231   4.594   0.538  10.305
79466SOL    HW240232   4.661   0.661  10.248
79467SOL     OW40233   7.856   0.660   8.192
79467SOL    HW140234   7.915   0.709   8.136
79467SOL    HW240235   7.805   0.605   8.132
79468SOL     OW40236   9.268  10.301   9.122
79468SOL    HW140237   9.236  10.365   9.185
79468SOL    HW240238   9.361  10.290   9.145
79469SOL     OW40239  13.686   3.003   4.189
79469SOL    HW140240  13.768   2.972   4.150
79469SOL    HW240241  13.640   3.045   4.117
79470SOL     OW40242  14.740   9.196   7.027
79470SOL    HW140243  14.687   9.238   6.960
79470SOL    HW240244  14.783   9.124   6.981
79471SOL     OW40245  13.985  11.016   9.959
79471SOL    HW140246  14.076  10.992   9.979
79471SOL    HW240247  13.950  10.941   9.911
79472SOL     OW40248   3.181  14.314   0.981
79472SOL    HW140249   3.231  14.304   1.062
79472SOL    HW240250   3.234  14.269   0.915
79473SOL     OW40251   5.490   2.050   9.688
79473SOL    HW140252   5.568   2.040   9.634
79473SOL    HW240253   5.522   2.089   9.769
79474SOL     OW40254  14.733   2.168   8.026
79474SOL    HW140255  14.760   2.201   7.941
79474SOL    HW240256  14.813   2.168   8.079
79475SOL     OW40257  14.647   9.747   6.832
79475SOL    HW140258  14.628   9.678   6.769
79475SOL    HW240259  14.667   9.700   6.913
79476SOL     OW40260   3.675   1.124   6.655
79476SOL    HW140261   3.743   1.112   6.589
79476SOL    HW240262   3.718   1.104   6.738
79477SOL     OW40263   8.145   1.356   0.168
79477SOL    HW140264   8.100   1.275   0.191
79477SOL    HW240265   8.162   1.349   0.074
79478SOL     OW40266  13.261  13.098   1.128
79478SOL    HW140267  13.200  13.071   1.197
79478SOL    HW240268  13.342  13.119   1.174
79479SOL     OW40269   1.819   3.380   0.511
79479SOL    HW140270   1.884   3.402   0.443
79479SOL    HW240271   1.843   3.292   0.539
79480SOL     OW40272   6.232   3.885  13.826
79480SOL    HW140273   6.241   3.876  13.731
79480SOL    HW240274   6.148   3.845  13.846
79481SOL     OW40275   8.934  12.550   1.677
79481SOL    HW140276   9.009  12.600   1.710
79481SOL    HW240277   8.882  12.532   1.756
79482SOL     OW40278   0.709   0.256   6.202
79482SOL    HW140279   0.668   0.232   6.285
79482SOL    HW240280   0.784   0.198   6.194
79483SOL     OW40281   3.427   7.810  14.655
79483SOL    HW140282   3.396   7.731  14.699
79483SOL    HW240283   3.379   7.812  14.572
79484SOL     OW40284  14.635   9.843  11.966
79484SOL    HW140285  14.686   9.826  11.887
79484SOL    HW240286  14.594   9.758  11.987
79485SOL     OW40287   8.637  14.787   5.632
79485SOL    HW140288   8.650  14.721   5.700
79485SOL    HW240289   8.627  14.737   5.551
79486SOL     OW40290   3.687  10.921   1.055
79486SOL    HW140291   3.716  10.903   0.965
79486SOL    HW240292   3.684  11.016   1.060
79487SOL     OW40293   5.770   1.450   1.408
79487SOL    HW140294   5.752   1.470   1.316
79487SOL    HW240295   5.864   1.466   1.419
79488SOL     OW40296  11.440   5.546  12.249
79488SOL    HW140297  11.509   5.502  12.300
79488SOL    HW240298  11.468   5.637  12.245
79489SOL     OW40299   4.622   2.364   4.660
79489SOL    HW140300   4.613   2.282   4.708
79489SOL    HW240301   4.611   2.340   4.568
79490SOL     OW40302   9.775   2.999  12.200
79490SOL    HW140303   9.822   3.064  12.251
79490SOL    HW240304   9.693   2.986  12.247
79491SOL     OW40305   8.183   2.786   1.628
79491SOL    HW140306   8.231   2.772   1.710
79491SOL    HW240307   8.210   2.713   1.571
79492SOL     OW40308   8.844  11.982   9.038
79492SOL    HW140309   8.779  11.972   9.108
79492SOL    HW240310   8.814  11.922   8.969
79493SOL     OW40311   1.708   5.703  14.607
79493SOL    HW140312   1.709   5.608  14.591
79493SOL    HW240313   1.780   5.737  14.553
79494SOL     OW40314   5.847   2.714   2.293
79494SOL    HW140315   5.833   2.688   2.384
79494SOL    HW240316   5.832   2.808   2.292
79495SOL     OW40317  10.971   2.043   1.474
79495SOL    HW140318  10.879   2.032   1.497
79495SOL    HW240319  10.989   2.135   1.494
79496SOL     OW40320   0.684   1.403   3.008
79496SOL    HW140321   0.593   1.407   2.978
79496SOL    HW240322   0.735   1.394   2.927
79497SOL     OW40323   5.379   6.428   3.673
79497SOL    HW140324   5.425   6.510   3.694
79497SOL    HW240325   5.448   6.364   3.659
79498SOL     OW40326   0.813   7.605  14.096
79498SOL    HW140327   0.902   7.581  14.073
79498SOL    HW240328   0.810   7.600  14.192
79499SOL     OW40329  13.773   3.186  12.105
79499SOL    HW140330  13.827   3.121  12.060
79499SOL    HW240331  13.782   3.266  12.054
79500SOL     OW40332   4.478   6.078   6.792
79500SOL    HW140333   4.471   6.152   6.732
79500SOL    HW240334   4.404   6.021   6.768
79501SOL     OW40335   3.912   3.487   8.506
79501SOL    HW140336   3.944   3.577   8.494
79501SOL    HW240337   3.985   3.432   8.479
79502SOL     OW40338  14.154   3.704  11.965
79502SOL    HW140339  14.185   3.714  11.875
79502SOL    HW240340  14.228   3.732  12.018
79503SOL     OW40341   8.610   0.829   3.685
79503SOL    HW140342   8.679   0.846   3.621
79503SOL    HW240343   8.554   0.906   3.681
79504SOL     OW40344   4.788  11.085  13.681
79504SOL    HW140345   4.773  11.141  13.605
79504SOL    HW240346   4.849  11.018  13.651
79505SOL     OW40347   1.017  14.690  10.262
79505SOL    HW140348   1.048  14.672  10.351
79505SOL    HW240349   0.939  14.635  10.253
79506SOL     OW40350   1.863   7.127   0.238
79506SOL    HW140351   1.791   7.173   0.282
79506SOL    HW240352   1.867   7.042   0.281
79507SOL     OW40353  13.848  12.592   4.471
79507SOL    HW140354  13.939  12.578   4.498
79507SOL    HW240355  13.807  12.506   4.478
79508SOL     OW40356   4.889  14.083   7.946
79508SOL    HW140357   4.949  14.108   7.876
79508SOL    HW240358   4.904  13.989   7.958
79509SOL     OW40359   0.367   9.614   4.896
79509SOL    HW140360   0.359   9.699   4.852
79509SOL    HW240361   0.358   9.550   4.825
79510SOL     OW40362   8.260  13.232   6.213
79510SOL    HW140363   8.236  13.140   6.228
79510SOL    HW240364   8.194  13.263   6.150
79511SOL     OW40365   6.976   8.888   8.948
79511SOL    HW140366   6.882   8.892   8.962
79511SOL    HW240367   6.991   8.800   8.912
79512SOL     OW40368   8.235   3.043   2.241
79512SOL    HW140369   8.205   2.969   2.295
79512SOL    HW240370   8.173   3.047   2.169
79513SOL     OW40371   9.559   3.228  10.284
79513SOL    HW140372   9.645   3.243  10.323
79513SOL    HW240373   9.531   3.315  10.253
79514SOL     OW40374  14.281  10.017   3.968
79514SOL    HW140375  14.221  10.037   4.040
79514SOL    HW240376  14.225  10.008   3.891
79515SOL     OW40377   1.253   4.145  10.046
79515SOL    HW140378   1.270   4.064  10.094
79515SOL    HW240379   1.329   4.200  10.064
79516SOL     OW40380  13.552   6.425   3.114
79516SOL    HW140381  13.604   6.482   3.171
79516SOL    HW240382  13.463   6.461   3.119
79517SOL     OW40383  12.575  11.307   8.109
79517SOL    HW140384  12.642  11.276   8.048
79517SOL    HW240385  12.614  11.386   8.149
79518SOL     OW40386  13.288   3.463   6.128
79518SOL    HW140387  13.238   3.384   6.107
79518SOL    HW240388  13.333   3.441   6.210
79519SOL     OW40389  14.130  12.158  10.970
79519SOL    HW140390  14.183  12.127  11.044
79519SOL    HW240391  14.043  12.173  11.008
79520SOL     OW40392  11.243  10.964  10.305
79520SOL    HW140393  11.263  10.878  10.341
79520SOL    HW240394  11.157  10.954  10.264
79521SOL     OW40395   2.906   7.534   9.931
79521SOL    HW140396   2.938   7.597   9.867
79521SOL    HW240397   2.894   7.586  10.012
79522SOL     OW40398   8.026   5.142   6.521
79522SOL    HW140399   8.059   5.052   6.522
79522SOL    HW240400   8.076   5.186   6.591
79523SOL     OW40401  11.147  10.194   2.609
79523SOL    HW140402  11.162  10.248   2.687
79523SOL    HW240403  11.082  10.129   2.637
79524SOL     OW40404   2.861   2.665   7.320
79524SOL    HW140405   2.768   2.658   7.298
79524SOL    HW240406   2.877   2.759   7.329
79525SOL     OW40407   8.450   6.570   1.909
79525SOL    HW140408   8.545   6.569   1.919
79525SOL    HW240409   8.429   6.486   1.869
79526SOL     OW40410  14.204   3.924  14.454
79526SOL    HW140411  14.189   3.987  14.384
79526SOL    HW240412  14.299   3.921  14.464
79527SOL     OW40413   0.821  14.548  10.485
79527SOL    HW140414   0.904  14.583  10.518
79527SOL    HW240415   0.828  14.453  10.498
79528SOL     OW40416  11.342   2.415   2.158
79528SOL    HW140417  11.275   2.437   2.222
79528SOL    HW240418  11.377   2.499   2.129
79529SOL     OW40419   4.757  13.522  13.564
79529SOL    HW140420   4.807  13.595  13.601
79529SOL    HW240421   4.809  13.492  13.490
79530SOL     OW40422   6.115   7.523   6.317
79530SOL    HW140423   6.085   7.607   6.283
79530SOL    HW240424   6.191   7.500   6.264
79531SOL     OW40425  12.530  11.358   3.259
79531SOL    HW140426  12.561  11.278   3.302
79531SOL    HW240427  12.466  11.395   3.320
79532SOL     OW40428   7.379   1.068   2.033
79532SOL    HW140429   7.456   1.011   2.033
79532SOL    HW240430   7.358   1.081   1.941
79533SOL     OW40431   8.258   7.960   5.020
79533SOL    HW140432   8.197   7.917   5.080
79533SOL    HW240433   8.278   7.893   4.954
79534SOL     OW40434   1.266  13.742  11.082
79534SOL    HW140435   1.358  13.716  11.079
79534SOL    HW240436   1.263  13.814  11.146
79535SOL     OW40437  10.865  12.620  12.367
79535SOL    HW140438  10.937  12.582  12.317
79535SOL    HW240439  10.883  12.594  12.457
79536SOL     OW40440   1.035  12.337   2.485
79536SOL    HW140441   0.948  12.310   2.513
79536SOL    HW240442   1.082  12.358   2.566
79537SOL     OW40443   1.745   8.741   9.302
79537SOL    HW140444   1.760   8.650   9.276
79537SOL    HW240445   1.748   8.740   9.397
79538SOL     OW40446   1.985  12.853   8.957
79538SOL    HW140447   2.018  12.895   9.037
79538SOL    HW240448   1.926  12.785   8.989
79539SOL     OW40449   6.651  12.009   2.118
79539SOL    HW140450   6.636  11.930   2.170
79539SOL    HW240451   6.744  12.004   2.094
79540SOL     OW40452  13.305   8.645   2.115
79540SOL    HW140453  13.368   8.575   2.129
79540SOL    HW240454  13.324   8.708   2.185
79541SOL     OW40455  12.053  14.527   6.061
79541SOL    HW140456  12.079  14.604   6.009
79541SOL    HW240457  11.959  14.539   6.075
79542SOL     OW40458   6.110   6.893   5.123
79542SOL    HW140459   6.034   6.951   5.127
79542SOL    HW240460   6.095   6.830   5.194
79543SOL     OW40461  13.689  12.862  13.907
79543SOL    HW140462  13.714  12.935  13.963
79543SOL    HW240463  13.594  12.862  13.908
79544SOL     OW40464   7.962   7.151  11.072
79544SOL    HW140465   7.987   7.068  11.114
79544SOL    HW240466   7.867   7.154  11.081
79545SOL     OW40467   2.692   3.747   5.112
79545SOL    HW140468   2.607   3.703   5.101
79545SOL    HW240469   2.676   3.813   5.180
79546SOL     OW40470   6.078  11.776   4.878
79546SOL    HW140471   6.010  11.795   4.943
79546SOL    HW240472   6.159  11.805   4.919
79547SOL     OW40473   8.355   8.503  11.558
79547SOL    HW140474   8.294   8.506  11.632
79547SOL    HW240475   8.441   8.520  11.597
79548SOL     OW40476   0.487  10.824   5.373
79548SOL    HW140477   0.487  10.902   5.318
79548SOL    HW240478   0.477  10.857   5.462
79549SOL     OW40479   3.270  13.412   3.581
79549SOL    HW140480   3.273  13.507   3.567
79549SOL    HW240481   3.331  13.396   3.653
79550SOL     OW40482   6.308  12.920   1.118
79550SOL    HW140483   6.244  12.869   1.069
79550SOL    HW240484   6.298  12.889   1.209
79551SOL     OW40485  14.535  10.723  11.918
79551SOL    HW140486  14.553  10.676  11.999
79551SOL    HW240487  14.566  10.665  11.849
79552SOL     OW40488   3.861   5.750  11.950
79552SOL    HW140489   3.929   5.721  12.011
79552SOL    HW240490   3.807   5.811  12.000
79553SOL     OW40491  13.860  11.227   4.005
79553SOL    HW140492  13.879  11.276   4.086
79553SOL    HW240493  13.905  11.143   4.017
79554SOL     OW40494   6.069   0.921   6.208
79554SOL    HW140495   6.033   0.960   6.128
79554SOL    HW240496   5.998   0.867   6.242
79555SOL     OW40497   8.710   1.590   5.928
79555SOL    HW140498   8.776   1.613   5.994
79555SOL    HW240499   8.646   1.661   5.934
79556SOL     OW40500   5.287  13.394   1.045
79556SOL    HW140501   5.348  13.374   0.974
79556SOL    HW240502   5.245  13.310   1.065
79557SOL     OW40503  10.672   4.623  13.719
79557SOL    HW140504  10.612   4.549  13.727
79557SOL    HW240505  10.616   4.700  13.728
79558SOL     OW40506   3.359   1.367   2.825
79558SOL    HW140507   3.351   1.272   2.820
79558SOL    HW240508   3.316   1.390   2.908
79559SOL     OW40509   7.352   0.476  14.028
79559SOL    HW140510   7.432   0.423  14.036
79559SOL    HW240511   7.372   0.539  13.960
79560SOL     OW40512  10.531   0.194   2.433
79560SOL    HW140513  10.601   0.163   2.376
79560SOL    HW240514  10.535   0.137   2.510
79561SOL     OW40515   5.570   2.042   3.218
79561SOL    HW140516   5.634   2.112   3.229
79561SOL    HW240517   5.528   2.062   3.133
79562SOL     OW40518  11.103   5.554  10.593
79562SOL    HW140519  11.183   5.504  10.608
79562SOL    HW240520  11.124   5.642  10.622
79563SOL     OW40521  11.282  10.061   3.270
79563SOL    HW140522  11.345  10.000   3.311
79563SOL    HW240523  11.205  10.056   3.326
79564SOL     OW40524  12.881   3.664   9.180
79564SOL    HW140525  12.960   3.623   9.214
79564SOL    HW240526  12.905   3.755   9.164
79565SOL     OW40527  13.231  11.262   0.169
79565SOL    HW140528  13.279  11.261   0.086
79565SOL    HW240529  13.171  11.187   0.163
79566SOL     OW40530   2.584  11.368   3.733
79566SOL    HW140531   2.549  11.457   3.741
79566SOL    HW240532   2.506  11.312   3.728
79567SOL     OW40533  11.860   3.281   3.437
79567SOL    HW140534  11.841   3.366   3.399
79567SOL    HW240535  11.862   3.296   3.531
79568SOL     OW40536   7.179   8.735   5.397
79568SOL    HW140537   7.137   8.678   5.333
79568SOL    HW240538   7.257   8.687   5.425
79569SOL     OW40539   1.929   2.578   4.447
79569SOL    HW140540   1.913   2.673   4.447
79569SOL    HW240541   1.939   2.556   4.540
79570SOL     OW40542   8.273  12.142   1.667
79570SOL    HW140543   8.366  12.137   1.687
79570SOL    HW240544   8.241  12.052   1.680
79571SOL     OW40545  11.722  12.070   5.824
79571SOL    HW140546  11.709  12.079   5.919
79571SOL    HW240547  11.638  12.097   5.786
79572SOL     OW40548   1.742   2.728  12.489
79572SOL    HW140549   1.789   2.779  12.424
79572SOL    HW240550   1.772   2.762  12.573
79573SOL     OW40551   0.882   3.016   5.235
79573SOL    HW140552   0.878   3.096   5.183
79573SOL    HW240553   0.801   3.015   5.285
79574SOL     OW40554   5.224  11.009  11.695
79574SOL    HW140555   5.186  11.094  11.671
79574SOL    HW240556   5.161  10.945  11.662
79575SOL     OW40557   0.527   7.558  11.891
79575SOL    HW140558   0.558   7.649  11.888
79575SOL    HW240559   0.437   7.563  11.857
79576SOL     OW40560  13.317   2.185   0.550
79576SOL    HW140561  13.409   2.192   0.577
79576SOL    HW240562  13.319   2.206   0.456
79577SOL     OW40563   9.207  12.174   7.579
79577SOL    HW140564   9.151  12.223   7.520
79577SOL    HW240565   9.223  12.234   7.653
79578SOL     OW40566   7.678  12.753   1.939
79578SOL    HW140567   7.691  12.797   1.855
79578SOL    HW240568   7.639  12.821   1.995
79579SOL     OW40569  14.597   0.433  10.067
79579SOL    HW140570  14.689   0.460  10.058
79579SOL    HW240571  14.595   0.384  10.149
79580SOL     OW40572   6.316   3.648   6.718
79580SOL    HW140573   6.268   3.566   6.722
79580SOL    HW240574   6.408   3.622   6.708
79581SOL     OW40575   8.986   7.265   7.985
79581SOL    HW140576   8.979   7.195   8.050
79581SOL    HW240577   9.044   7.229   7.918
79582SOL     OW40578  13.074  14.724   7.542
79582SOL    HW140579  13.071  14.669   7.620
79582SOL    HW240580  13.030  14.671   7.475
79583SOL     OW40581  10.265  13.794   7.358
79583SOL    HW140582  10.286  13.864   7.296
79583SOL    HW240583  10.347  13.779   7.405
79584SOL     OW40584  12.167   7.580   0.989
79584SOL    HW140585  12.140   7.493   0.960
79584SOL    HW240586  12.256   7.569   1.020
79585SOL     OW40587  12.477   9.462   0.748
79585SOL    HW140588  12.512   9.440   0.834
79585SOL    HW240589  12.548   9.442   0.687
79586SOL     OW40590  12.927   9.165   0.007
79586SOL    HW140591  13.009   9.122   0.030
79586SOL    HW240592  12.859   9.113   0.051
79587SOL     OW40593   3.751   1.511  14.497
79587SOL    HW140594   3.807   1.584  14.469
79587SOL    HW240595   3.752   1.450  14.423
79588SOL     OW40596   0.106  12.521   8.553
79588SOL    HW140597   0.186  12.562   8.522
79588SOL    HW240598   0.132  12.475   8.633
79589SOL     OW40599   8.707  10.042   8.009
79589SOL    HW140600   8.632  10.078   7.962
79589SOL    HW240601   8.738   9.971   7.953
79590SOL     OW40602  12.249  10.423  11.605
79590SOL    HW140603  12.306  10.489  11.643
79590SOL    HW240604  12.168  10.470  11.585
79591SOL     OW40605   1.721   5.239   6.623
79591SOL    HW140606   1.680   5.169   6.572
79591SOL    HW240607   1.748   5.196   6.705
79592SOL     OW40608   4.804  13.949   8.941
79592SOL    HW140609   4.890  13.971   8.976
79592SOL    HW240610   4.747  14.020   8.970
79593SOL     OW40611   7.099  12.755   1.622
79593SOL    HW140612   7.044  12.764   1.545
79593SOL    HW240613   7.173  12.701   1.593
79594SOL     OW40614   7.256  10.301   1.678
79594SOL    HW140615   7.271  10.241   1.606
79594SOL    HW240616   7.204  10.251   1.741
79595SOL     OW40617  13.755   7.408   4.850
79595SOL    HW140618  13.791   7.334   4.899
79595SOL    HW240619  13.762   7.482   4.910
79596SOL     OW40620   5.844   2.050   2.039
79596SOL    HW140621   5.777   2.066   1.972
79596SOL    HW240622   5.916   2.108   2.015
79597SOL     OW40623   1.801  14.186   9.901
79597SOL    HW140624   1.816  14.217   9.990
79597SOL    HW240625   1.736  14.116   9.910
79598SOL     OW40626   6.457   3.163   0.053
79598SOL    HW140627   6.511   3.153   0.132
79598SOL    HW240628   6.369   3.180   0.087
79599SOL     OW40629   8.795  10.140  11.801
79599SOL    HW140630   8.794  10.084  11.879
79599SOL    HW240631   8.711  10.186  11.804
79600SOL     OW40632   5.758   3.234   8.874
79600SOL    HW140633   5.767   3.295   8.801
79600SOL    HW240634   5.779   3.287   8.951
79601SOL     OW40635   4.635   3.670  12.882
79601SOL    HW140636   4.656   3.763  12.873
79601SOL    HW240637   4.713   3.632  12.922
79602SOL     OW40638   4.388   8.388   5.810
79602SOL    HW140639   4.316   8.396   5.871
79602SOL    HW240640   4.459   8.351   5.861
79603SOL     OW40641   9.754  10.017   2.297
79603SOL    HW140642   9.792  10.064   2.372
79603SOL    HW240643   9.719  10.086   2.241
79604SOL     OW40644   3.640   9.632   1.634
79604SOL    HW140645   3.670   9.563   1.693
79604SOL    HW240646   3.630   9.589   1.549
79605SOL     OW40647  12.486   0.554  10.243
79605SOL    HW140648  12.525   0.633  10.204
79605SOL    HW240649  12.557   0.514  10.292
79606SOL     OW40650   4.199   1.211   3.025
79606SOL    HW140651   4.171   1.216   2.933
79606SOL    HW240652   4.184   1.300   3.059
79607SOL     OW40653  10.657  12.958   8.682
79607SOL    HW140654  10.581  12.938   8.627
79607SOL    HW240655  10.707  12.876   8.685
79608SOL     OW40656   6.671  14.692   5.129
79608SOL    HW140657   6.679  14.738   5.212
79608SOL    HW240658   6.694  14.601   5.150
79609SOL     OW40659   4.839   1.373   0.828
79609SOL    HW140660   4.842   1.350   0.920
79609SOL    HW240661   4.751   1.348   0.800
79610SOL     OW40662  10.980   7.432   9.757
79610SOL    HW140663  11.028   7.351   9.774
79610SOL    HW240664  10.918   7.409   9.688
79611SOL     OW40665   2.122  13.855   3.954
79611SOL    HW140666   2.066  13.792   3.909
79611SOL    HW240667   2.140  13.923   3.888
79612SOL     OW40668   8.538   6.176   1.867
79612SOL    HW140669   8.559   6.132   1.949
79612SOL    HW240670   8.446   6.152   1.850
79613SOL     OW40671   0.467   4.530  11.071
79613SOL    HW140672   0.482   4.623  11.050
79613SOL    HW240673   0.372   4.521  11.068
79614SOL     OW40674  11.705   3.314   9.751
79614SOL    HW140675  11.626   3.265   9.730
79614SOL    HW240676  11.764   3.251   9.792
79615SOL     OW40677   6.993  14.824   3.459
79615SOL    HW140678   6.939  14.779   3.393
79615SOL    HW240679   6.937  14.829   3.536
79616SOL     OW40680   6.743   2.960   7.564
79616SOL    HW140681   6.781   2.923   7.484
79616SOL    HW240682   6.759   2.894   7.631
79617SOL     OW40683   3.929   2.119   0.179
79617SOL    HW140684   3.870   2.045   0.165
79617SOL    HW240685   3.965   2.139   0.093
79618SOL     OW40686   9.949   9.343  11.193
79618SOL    HW140687  10.010   9.411  11.168
79618SOL    HW240688   9.875   9.354  11.133
79619SOL     OW40689  10.604   7.940   1.306
79619SOL    HW140690  10.515   7.946   1.272
79619SOL    HW240691  10.595   7.962   1.399
79620SOL     OW40692  11.738  10.546   4.459
79620SOL    HW140693  11.814  10.546   4.401
79620SOL    HW240694  11.725  10.454   4.482
79621SOL     OW40695  14.182  10.703  12.646
79621SOL    HW140696  14.247  10.765  12.613
79621SOL    HW240697  14.098  10.735  12.613
79622SOL     OW40698  10.936   0.311  13.731
79622SOL    HW140699  10.979   0.239  13.777
79622SOL    HW240700  10.879   0.351  13.798
79623SOL     OW40701   0.207   8.840   5.331
79623SOL    HW140702   0.235   8.834   5.422
79623SOL    HW240703   0.220   8.751   5.297
79624SOL     OW40704   6.981   0.902   9.664
79624SOL    HW140705   6.998   0.823   9.715
79624SOL    HW240706   7.030   0.971   9.710
79625SOL     OW40707  10.126   1.363   3.889
79625SOL    HW140708  10.179   1.293   3.927
79625SOL    HW240709  10.039   1.325   3.879
79626SOL     OW40710   8.371  10.649  13.307
79626SOL    HW140711   8.385  10.732  13.263
79626SOL    HW240712   8.444  10.594  13.279
79627SOL     OW40713  12.639   8.497  13.321
79627SOL    HW140714  12.684   8.419  13.288
79627SOL    HW240715  12.560   8.503  13.267
79628SOL     OW40716   2.243  14.238   0.837
79628SOL    HW140717   2.302  14.303   0.799
79628SOL    HW240718   2.193  14.285   0.904
79629SOL     OW40719   3.141  12.124   3.608
79629SOL    HW140720   3.202  12.159   3.673
79629SOL    HW240721   3.178  12.040   3.583
79630SOL     OW40722   8.603   3.573   9.185
79630SOL    HW140723   8.633   3.489   9.150
79630SOL    HW240724   8.673   3.635   9.163
79631SOL     OW40725  11.437   3.005   8.052
79631SOL    HW140726  11.458   2.921   8.092
79631SOL    HW240727  11.410   3.061   8.125
79632SOL     OW40728   1.683  12.766   7.539
79632SOL    HW140729   1.733  12.835   7.494
79632SOL    HW240730   1.592  12.794   7.532
79633SOL     OW40731   7.058  14.698   8.638
79633SOL    HW140732   7.084  14.751   8.563
79633SOL    HW240733   7.140  14.674   8.682
79634SOL     OW40734   5.488  13.555  10.282
79634SOL    HW140735   5.475  13.602  10.200
79634SOL    HW240736   5.446  13.470  10.267
79635SOL     OW40737  14.500   5.560  12.797
79635SOL    HW140738  14.435   5.622  12.831
79635SOL    HW240739  14.566   5.616  12.756
79636SOL     OW40740  11.791   0.729   4.799
79636SOL    HW140741  11.696   0.725   4.807
79636SOL    HW240742  11.820   0.640   4.822
79637SOL     OW40743  10.656   6.966   1.242
79637SOL    HW140744  10.670   6.985   1.335
79637SOL    HW240745  10.668   6.872   1.235
79638SOL     OW40746   1.785   7.949   4.092
79638SOL    HW140747   1.769   7.997   4.011
79638SOL    HW240748   1.855   7.998   4.136
79639SOL     OW40749   3.994   0.694   3.045
79639SOL    HW140750   3.932   0.621   3.037
79639SOL    HW240751   4.029   0.706   2.957
79640SOL     OW40752   0.682  13.132  14.766
79640SOL    HW140753   0.689  13.218  14.807
79640SOL    HW240754   0.772  13.099  14.766
79641SOL     OW40755   5.117  11.763   1.065
79641SOL    HW140756   5.106  11.668   1.066
79641SOL    HW240757   5.028  11.799   1.069
79642SOL     OW40758  14.202  10.652   8.773
79642SOL    HW140759  14.195  10.633   8.680
79642SOL    HW240760  14.263  10.587   8.807
79643SOL     OW40761   0.773  11.244   0.347
79643SOL    HW140762   0.782  11.166   0.403
79643SOL    HW240763   0.714  11.302   0.396
79644SOL     OW40764   6.446   6.263  14.508
79644SOL    HW140765   6.374   6.211  14.545
79644SOL    HW240766   6.425   6.353  14.531
79645SOL     OW40767  13.099   1.312   6.630
79645SOL    HW140768  13.040   1.241   6.604
79645SOL    HW240769  13.131   1.348   6.547
79646SOL     OW40770   2.788  13.368   7.647
79646SOL    HW140771   2.742  13.404   7.572
79646SOL    HW240772   2.754  13.417   7.722
79647SOL     OW40773   9.854   3.379   1.681
79647SOL    HW140774   9.861   3.357   1.774
79647SOL    HW240775   9.773   3.336   1.653
79648SOL     OW40776   7.301  14.204   4.984
79648SOL    HW140777   7.350  14.205   5.067
79648SOL    HW240778   7.369  14.200   4.917
79649SOL     OW40779  11.026   5.410   6.957
79649SOL    HW140780  10.952   5.372   7.005
79649SOL    HW240781  11.025   5.366   6.872
79650SOL     OW40782   0.291   6.314   7.788
79650SOL    HW140783   0.383   6.310   7.815
79650SOL    HW240784   0.294   6.347   7.698
79651SOL     OW40785  11.641  14.436  12.223
79651SOL    HW140786  11.616  14.344  12.223
79651SOL    HW240787  11.596  14.474  12.147
79652SOL     OW40788   2.075   9.008   4.308
79652SOL    HW140789   2.023   8.940   4.265
79652SOL    HW240790   2.140   9.034   4.243
79653SOL     OW40791   3.449  10.075   4.063
79653SOL    HW140792   3.454  10.010   4.134
79653SOL    HW240793   3.534  10.067   4.019
79654SOL     OW40794   2.961   3.379   9.240
79654SOL    HW140795   3.025   3.400   9.308
79654SOL    HW240796   2.897   3.450   9.244
79655SOL     OW40797   8.550   7.047   3.897
79655SOL    HW140798   8.481   7.004   3.947
79655SOL    HW240799   8.624   7.055   3.957
79656SOL     OW40800  13.578   0.255   6.047
79656SOL    HW140801  13.640   0.229   5.980
79656SOL    HW240802  13.604   0.207   6.125
79657SOL     OW40803   0.196  11.643   5.067
79657SOL    HW140804   0.178  11.564   5.017
79657SOL    HW240805   0.148  11.632   5.149
79658SOL     OW40806   4.094   9.331   6.103
79658SOL    HW140807   4.128   9.367   6.185
79658SOL    HW240808   4.142   9.248   6.092
79659SOL     OW40809   9.211  12.773  13.645
79659SOL    HW140810   9.305  12.753  13.650
79659SOL    HW240811   9.193  12.778  13.552
79660SOL     OW40812   3.617  10.171   8.836
79660SOL    HW140813   3.660  10.248   8.799
79660SOL    HW240814   3.683  10.130   8.891
79661SOL     OW40815   7.935   1.264  10.399
79661SOL    HW140816   7.941   1.207  10.475
79661SOL    HW240817   7.922   1.352  10.435
79662SOL     OW40818   9.361   6.880  12.987
79662SOL    HW140819   9.424   6.874  13.059
79662SOL    HW240820   9.344   6.789  12.963
79663SOL     OW40821  11.463   4.255   5.117
79663SOL    HW140822  11.503   4.320   5.176
79663SOL    HW240823  11.376   4.240   5.153
79664SOL     OW40824  10.174   9.397   7.774
79664SOL    HW140825  10.092   9.411   7.822
79664SOL    HW240826  10.183   9.474   7.718
79665SOL     OW40827   9.384   3.557  11.396
79665SOL    HW140828   9.361   3.505  11.319
79665SOL    HW240829   9.423   3.637  11.360
79666SOL     OW40830   8.563   2.513   9.113
79666SOL    HW140831   8.658   2.525   9.106
79666SOL    HW240832   8.541   2.544   9.200
79667SOL     OW40833  12.311  14.105  14.613
79667SOL    HW140834  12.373  14.143  14.675
79667SOL    HW240835  12.365  14.074  14.540
79668SOL     OW40836   6.327   5.920   3.697
79668SOL    HW140837   6.407   5.970   3.679
79668SOL    HW240838   6.352   5.829   3.683
79669SOL     OW40839  10.502   6.320  12.272
79669SOL    HW140840  10.424   6.270  12.247
79669SOL    HW240841  10.575   6.268  12.238
79670SOL     OW40842  14.031   2.746   0.569
79670SOL    HW140843  14.008   2.808   0.638
79670SOL    HW240844  14.043   2.800   0.491
79671SOL     OW40845  12.657   9.974   4.951
79671SOL    HW140846  12.737  10.022   4.930
79671SOL    HW240847  12.642   9.917   4.876
79672SOL     OW40848   4.651   4.764   1.693
79672SOL    HW140849   4.561   4.792   1.681
79672SOL    HW240850   4.647   4.698   1.762
79673SOL     OW40851  11.874   5.089   8.624
79673SOL    HW140852  11.842   5.009   8.667
79673SOL    HW240853  11.856   5.075   8.531
79674SOL     OW40854  12.947  14.749   9.104
79674SOL    HW140855  12.910  14.748   9.016
79674SOL    HW240856  13.023  14.808   9.097
79675SOL     OW40857  14.326   8.481  10.735
79675SOL    HW140858  14.242   8.525  10.718
79675SOL    HW240859  14.388   8.522  10.675
79676SOL     OW40860   2.724   6.396  13.794
79676SOL    HW140861   2.760   6.474  13.836
79676SOL    HW240862   2.727   6.328  13.861
79677SOL     OW40863   0.797   4.909   9.129
79677SOL    HW140864   0.837   4.907   9.216
79677SOL    HW240865   0.704   4.928   9.146
79678SOL     OW40866  10.600   2.740  13.183
79678SOL    HW140867  10.681   2.710  13.140
79678SOL    HW240868  10.629   2.810  13.242
79679SOL     OW40869   4.341   2.055   8.601
79679SOL    HW140870   4.318   2.138   8.643
79679SOL    HW240871   4.261   2.029   8.556
79680SOL     OW40872   7.964   8.459   3.425
79680SOL    HW140873   8.023   8.468   3.350
79680SOL    HW240874   7.951   8.549   3.455
79681SOL     OW40875   9.363   0.076  10.449
79681SOL    HW140876   9.341   0.011  10.516
79681SOL    HW240877   9.447   0.112  10.477
79682SOL     OW40878   9.474  13.770   4.998
79682SOL    HW140879   9.437  13.854   5.026
79682SOL    HW240880   9.407  13.705   5.022
79683SOL     OW40881  13.416  11.887   9.611
79683SOL    HW140882  13.508  11.868   9.597
79683SOL    HW240883  13.370  11.817   9.563
79684SOL     OW40884   8.747  11.193   0.913
79684SOL    HW140885   8.771  11.117   0.966
79684SOL    HW240886   8.739  11.265   0.977
79685SOL     OW40887   1.691   9.577   0.636
79685SOL    HW140888   1.725   9.641   0.573
79685SOL    HW240889   1.623   9.531   0.589
79686SOL     OW40890   9.339   2.374   5.787
79686SOL    HW140891   9.380   2.326   5.714
79686SOL    HW240892   9.252   2.336   5.794
79687SOL     OW40893   5.871  10.525  11.872
79687SOL    HW140894   5.811  10.515  11.798
79687SOL    HW240895   5.941  10.461  11.856
79688SOL     OW40896   8.460   6.472  14.706
79688SOL    HW140897   8.472   6.402  14.770
79688SOL    HW240898   8.365   6.486  14.704
79689SOL     OW40899   2.700  10.638  12.457
79689SOL    HW140900   2.767  10.669  12.518
79689SOL    HW240901   2.745  10.637  12.372
79690SOL     OW40902  11.337   9.749  14.283
79690SOL    HW140903  11.260   9.719  14.235
79690SOL    HW240904  11.303   9.805  14.353
79691SOL     OW40905   9.722  10.541   8.853
79691SOL    HW140906   9.656  10.521   8.919
79691SOL    HW240907   9.703  10.631   8.825
79692SOL     OW40908   7.928   2.274  10.165
79692SOL    HW140909   7.980   2.208  10.211
79692SOL    HW240910   7.868   2.224  10.110
79693SOL     OW40911   7.123   2.686   5.161
79693SOL    HW140912   7.076   2.609   5.193
79693SOL    HW240913   7.085   2.759   5.210
79694SOL     OW40914  11.151   1.005   7.367
79694SOL    HW140915  11.186   1.056   7.440
79694SOL    HW240916  11.115   1.070   7.307
79695SOL     OW40917  12.993   5.859   6.819
79695SOL    HW140918  13.075   5.809   6.817
79695SOL    HW240919  12.927   5.799   6.786
79696SOL     OW40920  11.936   5.765  14.505
79696SOL    HW140921  11.951   5.854  14.538
79696SOL    HW240922  11.885   5.778  14.425
79697SOL     OW40923   4.876   7.741   5.846
79697SOL    HW140924   4.909   7.751   5.936
79697SOL    HW240925   4.867   7.646   5.834
79698SOL     OW40926   4.315   2.791   0.063
79698SOL    HW140927   4.326   2.833   0.148
79698SOL    HW240928   4.349   2.855   0.000
79699SOL     OW40929   9.335  12.247  10.874
79699SOL    HW140930   9.350  12.334  10.912
79699SOL    HW240931   9.423  12.211  10.860
79700SOL     OW40932   9.564   2.335  13.437
79700SOL    HW140933   9.618   2.341  13.358
79700SOL    HW240934   9.523   2.249  13.432
79701SOL     OW40935  14.788   4.569  10.252
79701SOL    HW140936  14.787   4.481  10.288
79701SOL    HW240937  14.777   4.558  10.158
79702SOL     OW40938   9.924   0.690   7.940
79702SOL    HW140939   9.971   0.772   7.952
79702SOL    HW240940   9.988   0.622   7.963
79703SOL     OW40941   2.928  10.118   5.976
79703SOL    HW140942   2.918  10.070   6.058
79703SOL    HW240943   2.869  10.073   5.915
79704SOL     OW40944   4.054   3.520   1.911
79704SOL    HW140945   4.051   3.436   1.956
79704SOL    HW240946   3.995   3.510   1.837
79705SOL     OW40947   2.441   1.344  11.236
79705SOL    HW140948   2.478   1.256  11.230
79705SOL    HW240949   2.374   1.347  11.168
79706SOL     OW40950   9.993   4.055  12.803
79706SOL    HW140951  10.070   4.023  12.850
79706SOL    HW240952  10.010   4.148  12.789
79707SOL     OW40953  12.412   5.223   2.229
79707SOL    HW140954  12.355   5.153   2.261
79707SOL    HW240955  12.475   5.180   2.172
79708SOL     OW40956   5.952  13.835  13.122
79708SOL    HW140957   5.991  13.901  13.179
79708SOL    HW240958   5.860  13.833  13.147
79709SOL     OW40959   6.219   5.933  12.596
79709SOL    HW140960   6.224   5.838  12.591
79709SOL    HW240961   6.160   5.950  12.670
79710SOL     OW40962   2.973  13.466  10.998
79710SOL    HW140963   3.049  13.512  11.035
79710SOL    HW240964   2.922  13.438  11.073
79711SOL     OW40965  12.782  12.186   8.171
79711SOL    HW140966  12.877  12.190   8.162
79711SOL    HW240967  12.767  12.109   8.226
79712SOL     OW40968   5.703   0.554   7.651
79712SOL    HW140969   5.770   0.606   7.695
79712SOL    HW240970   5.669   0.612   7.583
79713SOL     OW40971  10.015   5.522   0.725
79713SOL    HW140972   9.965   5.453   0.682
79713SOL    HW240973  10.101   5.519   0.682
79714SOL     OW40974   8.868   4.262   6.273
79714SOL    HW140975   8.825   4.177   6.285
79714SOL    HW240976   8.931   4.247   6.202
79715SOL     OW40977  14.762   8.381   7.817
79715SOL    HW140978  14.797   8.322   7.752
79715SOL    HW240979  14.692   8.331   7.860
79716SOL     OW40980   9.734  11.182   2.285
79716SOL    HW140981   9.666  11.133   2.331
79716SOL    HW240982   9.737  11.143   2.198
79717SOL     OW40983   5.361   8.609   5.755
79717SOL    HW140984   5.354   8.515   5.767
79717SOL    HW240985   5.289   8.631   5.695
79718SOL     OW40986   4.313   4.530  11.672
79718SOL    HW140987   4.273   4.575  11.746
79718SOL    HW240988   4.283   4.578  11.595
79719SOL     OW40989  13.980  10.742  13.581
79719SOL    HW140990  13.944  10.666  13.534
79719SOL    HW240991  14.060  10.709  13.620
79720SOL     OW40992   2.545   6.475  14.358
79720SOL    HW140993   2.602   6.404  14.330
79720SOL    HW240994   2.601   6.530  14.414
79721SOL     OW40995   2.679  10.509   1.620
79721SOL    HW140996   2.680  10.413   1.617
79721SOL    HW240997   2.768  10.533   1.644
79722SOL     OW40998   5.243   6.574  10.963
79722SOL    HW140999   5.188   6.653  10.965
79722SOL    HW241000   5.189   6.507  11.006
79723SOL     OW41001   2.030   0.727  14.141
79723SOL    HW141002   2.114   0.718  14.096
79723SOL    HW241003   2.053   0.738  14.233
79724SOL     OW41004   9.116   7.232  13.633
79724SOL    HW141005   9.122   7.327  13.626
79724SOL    HW241006   9.207   7.203  13.647
79725SOL     OW41007   4.227   4.233   4.266
79725SOL    HW141008   4.192   4.227   4.355
79725SOL    HW241009   4.318   4.206   4.274
79726SOL     OW41010  11.046   4.248   0.558
79726SOL    HW141011  11.081   4.214   0.475
79726SOL    HW241012  10.955   4.271   0.538
79727SOL     OW41013   9.219   3.116   5.089
79727SOL    HW141014   9.187   3.171   5.017
79727SOL    HW241015   9.227   3.176   5.163
79728SOL     OW41016   3.622  12.606  12.843
79728SOL    HW141017   3.667  12.634  12.764
79728SOL    HW241018   3.639  12.512  12.849
79729SOL     OW41019   0.546   3.596   3.358
79729SOL    HW141020   0.600   3.524   3.390
79729SOL    HW241021   0.517   3.642   3.437
79730SOL     OW41022   2.288   4.928   6.404
79730SOL    HW141023   2.258   4.851   6.356
79730SOL    HW241024   2.383   4.923   6.400
79731SOL     OW41025  13.197   7.805   2.421
79731SOL    HW141026  13.202   7.784   2.327
79731SOL    HW241027  13.186   7.900   2.423
79732SOL     OW41028  10.171   5.654   7.172
79732SOL    HW141029  10.191   5.731   7.225
79732SOL    HW241030  10.101   5.609   7.220
79733SOL     OW41031   8.692   1.295  11.143
79733SOL    HW141032   8.780   1.326  11.125
79733SOL    HW241033   8.650   1.367  11.192
79734SOL     OW41034   6.394   9.195   7.872
79734SOL    HW141035   6.347   9.272   7.902
79734SOL    HW241036   6.364   9.181   7.782
79735SOL     OW41037  14.240   2.791  11.053
79735SOL    HW141038  14.259   2.838  11.134
79735SOL    HW241039  14.269   2.851  10.984
79736SOL     OW41040  14.544   6.414   5.967
79736SOL    HW141041  14.473   6.477   5.976
79736SOL    HW241042  14.589   6.440   5.886
79737SOL     OW41043   5.869   5.313   6.188
79737SOL    HW141044   5.924   5.242   6.224
79737SOL    HW241045   5.924   5.355   6.122
79738SOL     OW41046   6.409   7.158   0.626
79738SOL    HW141047   6.486   7.102   0.637
79738SOL    HW241048   6.445   7.240   0.589
79739SOL     OW41049   3.551  11.556   5.241
79739SOL    HW141050   3.462  11.521   5.247
79739SOL    HW241051   3.585  11.521   5.159
79740SOL     OW41052  10.205  13.691  10.032
79740SOL    HW141053  10.239  13.624  10.091
79740SOL    HW241054  10.263  13.689   9.957
79741SOL     OW41055   9.277   5.412  11.065
79741SOL    HW141056   9.213   5.462  11.015
79741SOL    HW241057   9.283   5.459  11.149
79742SOL     OW41058   1.129  13.027  10.373
79742SOL    HW141059   1.174  12.944  10.362
79742SOL    HW241060   1.039  13.009  10.346
79743SOL     OW41061   6.378  12.641   8.700
79743SOL    HW141062   6.425  12.574   8.749
79743SOL    HW241063   6.286  12.617   8.709
79744SOL     OW41064   1.275   7.414  12.888
79744SOL    HW141065   1.311   7.328  12.865
79744SOL    HW241066   1.265   7.459  12.804
79745SOL     OW41067  14.620   9.478  13.869
79745SOL    HW141068  14.583   9.419  13.803
79745SOL    HW241069  14.714   9.478  13.852
79746SOL     OW41070   2.839  12.610   7.187
79746SOL    HW141071   2.830  12.539   7.250
79746SOL    HW241072   2.749  12.624   7.155
79747SOL     OW41073   7.928  13.093  10.381
79747SOL    HW141074   7.963  13.103  10.470
79747SOL    HW241075   7.834  13.079  10.394
79748SOL     OW41076   7.288   5.479  12.208
79748SOL    HW141077   7.259   5.405  12.154
79748SOL    HW241078   7.306   5.440  12.294
79749SOL     OW41079   2.655  10.001  14.429
79749SOL    HW141080   2.601   9.991  14.508
79749SOL    HW241081   2.592  10.014  14.359
79750SOL     OW41082  14.065   8.126   1.863
79750SOL    HW141083  13.990   8.184   1.849
79750SOL    HW241084  14.080   8.085   1.778
79751SOL     OW41085   3.963   0.675   0.361
79751SOL    HW141086   3.890   0.620   0.391
79751SOL    HW241087   4.013   0.618   0.302
79752SOL     OW41088   8.144   4.128   3.433
79752SOL    HW141089   8.222   4.182   3.425
79752SOL    HW241090   8.104   4.155   3.515
79753SOL     OW41091  12.934  11.757   5.760
79753SOL    HW141092  12.990  11.695   5.807
79753SOL    HW241093  12.911  11.823   5.825
79754SOL     OW41094   3.189   2.262   7.032
79754SOL    HW141095   3.226   2.275   7.119
79754SOL    HW241096   3.258   2.217   6.983
79755SOL     OW41097   5.067   0.135   8.283
79755SOL    HW141098   5.107   0.221   8.295
79755SOL    HW241099   5.070   0.095   8.370
79756SOL     OW41100  13.896   3.840  10.132
79756SOL    HW141101  13.804   3.833  10.107
79756SOL    HW241102  13.930   3.751  10.124
79757SOL     OW41103  11.115   2.596   0.765
79757SOL    HW141104  11.126   2.573   0.857
79757SOL    HW241105  11.020   2.592   0.751
79758SOL     OW41106   3.961   3.147   6.412
79758SOL    HW141107   4.037   3.099   6.378
79758SOL    HW241108   3.909   3.080   6.457
79759SOL     OW41109   9.427   8.021   8.204
79759SOL    HW141110   9.457   7.937   8.238
79759SOL    HW241111   9.486   8.085   8.244
79760SOL     OW41112   8.049  14.592   8.344
79760SOL    HW141113   8.143  14.604   8.330
79760SOL    HW241114   8.022  14.669   8.394
79761SOL     OW41115   8.782  10.632   3.280
79761SOL    HW141116   8.750  10.697   3.218
79761SOL    HW241117   8.856  10.675   3.324
79762SOL     OW41118   8.359   2.980   7.587
79762SOL    HW141119   8.306   2.991   7.509
79762SOL    HW241120   8.297   2.982   7.660
79763SOL     OW41121  12.181  10.148   2.520
79763SOL    HW141122  12.186  10.191   2.435
79763SOL    HW241123  12.264  10.169   2.562
79764SOL     OW41124   0.534   9.652   8.940
79764SOL    HW141125   0.479   9.577   8.962
79764SOL    HW241126   0.569   9.631   8.853
79765SOL     OW41127  10.600   3.173   8.749
79765SOL    HW141128  10.682   3.123   8.757
79765SOL    HW241129  10.594   3.223   8.831
79766SOL     OW41130  13.572  11.287   6.481
79766SOL    HW141131  13.573  11.192   6.472
79766SOL    HW241132  13.630  11.305   6.555
79767SOL     OW41133  11.748   4.996   7.414
79767SOL    HW141134  11.773   4.940   7.487
79767SOL    HW241135  11.687   5.059   7.453
79768SOL     OW41136   6.566  10.878   0.215
79768SOL    HW141137   6.622  10.915   0.147
79768SOL    HW241138   6.615  10.894   0.296
79769SOL     OW41139  11.915  13.741   7.301
79769SOL    HW141140  11.836  13.703   7.340
79769SOL    HW241141  11.932  13.687   7.224
79770SOL     OW41142   3.160   8.036   1.058
79770SOL    HW141143   3.145   7.949   1.023
79770SOL    HW241144   3.188   8.088   0.983
79771SOL     OW41145   3.338   6.785  10.727
79771SOL    HW141146   3.392   6.713  10.697
79771SOL    HW241147   3.249   6.761  10.702
79772SOL     OW41148   2.237   6.278  11.742
79772SOL    HW141149   2.232   6.190  11.780
79772SOL    HW241150   2.297   6.326  11.799
79773SOL     OW41151   3.792  10.053   8.017
79773SOL    HW141152   3.818   9.975   8.065
79773SOL    HW241153   3.831  10.042   7.930
79774SOL     OW41154   6.932   2.451  12.655
79774SOL    HW141155   6.914   2.405  12.737
79774SOL    HW241156   6.862   2.516  12.648
79775SOL     OW41157   9.224   2.015   6.833
79775SOL    HW141158   9.197   2.103   6.859
79775SOL    HW241159   9.300   2.028   6.776
79776SOL     OW41160  13.390   9.615   8.761
79776SOL    HW141161  13.294   9.613   8.757
79776SOL    HW241162  13.418   9.623   8.670
79777SOL     OW41163   1.402   5.310  10.939
79777SOL    HW141164   1.364   5.272  11.018
79777SOL    HW241165   1.329   5.317  10.878
79778SOL     OW41166   1.226   8.909   9.805
79778SOL    HW141167   1.262   8.830   9.765
79778SOL    HW241168   1.262   8.981   9.753
79779SOL     OW41169   9.230  10.213   6.380
79779SOL    HW141170   9.270  10.149   6.439
79779SOL    HW241171   9.192  10.161   6.309
79780SOL     OW41172  14.720  10.984  14.271
79780SOL    HW141173  14.764  10.898  14.264
79780SOL    HW241174  14.671  10.979  14.353
79781SOL     OW41175   0.997   7.513  12.935
79781SOL    HW141176   1.081   7.476  12.908
79781SOL    HW241177   0.971   7.569  12.863
79782SOL     OW41178   9.661   9.566   4.101
79782SOL    HW141179   9.618   9.570   4.187
79782SOL    HW241180   9.733   9.504   4.113
79783SOL     OW41181   3.644   2.652  12.403
79783SOL    HW141182   3.663   2.635  12.311
79783SOL    HW241183   3.548   2.652  12.407
79784SOL     OW41184   8.837   3.326  13.251
79784SOL    HW141185   8.843   3.386  13.326
79784SOL    HW241186   8.743   3.326  13.228
79785SOL     OW41187   0.505  13.675   9.876
79785SOL    HW141188   0.491  13.735   9.803
79785SOL    HW241189   0.419  13.635   9.892
79786SOL     OW41190  10.559  14.050  11.304
79786SOL    HW141191  10.615  14.112  11.257
79786SOL    HW241192  10.478  14.049  11.253
79787SOL     OW41193  10.857   1.638   2.437
79787SOL    HW141194  10.764   1.616   2.442
79787SOL    HW241195  10.879   1.631   2.344
79788SOL     OW41196  11.394   4.319   8.470
79788SOL    HW141197  11.435   4.317   8.384
79788SOL    HW241198  11.467   4.309   8.531
79789SOL     OW41199   6.683   2.601   2.661
79789SOL    HW141200   6.687   2.528   2.599
79789SOL    HW241201   6.670   2.560   2.746
79790SOL     OW41202  10.424   9.346   5.945
79790SOL    HW141203  10.348   9.395   5.914
79790SOL    HW241204  10.404   9.328   6.037
79791SOL     OW41205   3.312   0.542  14.132
79791SOL    HW141206   3.383   0.596  14.098
79791SOL    HW241207   3.344   0.452  14.124
79792SOL     OW41208  13.550  11.770   8.283
79792SOL    HW141209  13.553  11.787   8.189
79792SOL    HW241210  13.470  11.718   8.296
79793SOL     OW41211  14.823   0.530  11.680
79793SOL    HW141212  14.746   0.570  11.640
79793SOL    HW241213  14.788   0.470  11.746
79794SOL     OW41214   1.389  14.163   0.232
79794SOL    HW141215   1.428  14.200   0.311
79794SOL    HW241216   1.447  14.090   0.209
79795SOL     OW41217   4.432   4.879  12.449
79795SOL    HW141218   4.426   4.878  12.353
79795SOL    HW241219   4.413   4.789  12.474
79796SOL     OW41220   0.147   1.089   9.963
79796SOL    HW141221   0.132   1.061  10.053
79796SOL    HW241222   0.085   1.037   9.911
79797SOL     OW41223   1.557  10.056   7.577
79797SOL    HW141224   1.580  10.021   7.491
79797SOL    HW241225   1.576   9.984   7.638
79798SOL     OW41226   0.208   4.225   6.469
79798SOL    HW141227   0.278   4.244   6.531
79798SOL    HW241228   0.251   4.179   6.397
79799SOL     OW41229   6.961  12.697  12.868
79799SOL    HW141230   6.913  12.776  12.843
79799SOL    HW241231   6.920  12.627  12.817
79800SOL     OW41232   4.890   2.135  14.198
79800SOL    HW141233   4.902   2.212  14.255
79800SOL    HW241234   4.927   2.063  14.249
79801SOL     OW41235  13.739  12.857   4.604
79801SOL    HW141236  13.777  12.770   4.604
79801SOL    HW241237  13.736  12.882   4.696
79802SOL     OW41238   8.233   1.405  11.340
79802SOL    HW141239   8.276   1.405  11.254
79802SOL    HW241240   8.251   1.492  11.375
79803SOL     OW41241   3.679   0.244   4.910
79803SOL    HW141242   3.671   0.176   4.843
79803SOL    HW241243   3.597   0.292   4.906
79804SOL     OW41244  14.810   2.008   6.280
79804SOL    HW141245  14.810   1.989   6.374
79804SOL    HW241246  14.832   2.101   6.275
79805SOL     OW41247   6.742   1.699   1.552
79805SOL    HW141248   6.665   1.729   1.505
79805SOL    HW241249   6.711   1.628   1.608
79806SOL     OW41250  13.523   3.784   2.844
79806SOL    HW141251  13.489   3.858   2.793
79806SOL    HW241252  13.482   3.707   2.804
79807SOL     OW41253   2.142  12.993  14.400
79807SOL    HW141254   2.060  12.978  14.353
79807SOL    HW241255   2.210  12.963  14.340
79808SOL     OW41256  14.311   1.315   6.818
79808SOL    HW141257  14.356   1.231   6.828
79808SOL    HW241258  14.291   1.320   6.725
79809SOL     OW41259   3.434  14.441   7.995
79809SOL    HW141260   3.481  14.510   8.041
79809SOL    HW241261   3.478  14.360   8.020
79810SOL     OW41262   1.922   4.953   0.481
79810SOL    HW141263   1.943   5.027   0.425
79810SOL    HW241264   2.004   4.931   0.525
79811SOL     OW41265   9.532   5.556  10.994
79811SOL    HW141266   9.558   5.472  10.956
79811SOL    HW241267   9.449   5.577  10.951
79812SOL     OW41268   9.838  11.971   0.634
79812SOL    HW141269   9.812  11.945   0.546
79812SOL    HW241270   9.773  11.931   0.692
79813SOL     OW41271   9.968   7.603  10.120
79813SOL    HW141272   9.926   7.682  10.086
79813SOL    HW241273   9.947   7.535  10.055
79814SOL     OW41274   7.305   7.696   0.644
79814SOL    HW141275   7.372   7.764   0.638
79814SOL    HW241276   7.332   7.643   0.719
79815SOL     OW41277  12.930  11.400   1.044
79815SOL    HW141278  12.921  11.415   1.138
79815SOL    HW241279  12.970  11.481   1.011
79816SOL     OW41280   5.333   4.969   7.741
79816SOL    HW141281   5.254   5.022   7.732
79816SOL    HW241282   5.377   4.978   7.657
79817SOL     OW41283   4.865   7.219   4.636
79817SOL    HW141284   4.812   7.200   4.713
79817SOL    HW241285   4.822   7.173   4.564
79818SOL     OW41286   9.978   7.874  12.000
79818SOL    HW141287   9.930   7.928  12.063
79818SOL    HW241288  10.041   7.826  12.053
79819SOL     OW41289  13.999   1.906   2.995
79819SOL    HW141290  13.924   1.883   3.050
79819SOL    HW241291  14.028   1.822   2.958
79820SOL     OW41292  12.409   1.181  14.525
79820SOL    HW141293  12.501   1.192  14.549
79820SOL    HW241294  12.406   1.096  14.482
79821SOL     OW41295   4.405   4.928   0.162
79821SOL    HW141296   4.456   4.996   0.206
79821SOL    HW241297   4.323   4.923   0.211
79822SOL     OW41298   4.250   5.677   2.903
79822SOL    HW141299   4.191   5.638   2.968
79822SOL    HW241300   4.331   5.626   2.911
79823SOL     OW41301  12.985   7.165  12.583
79823SOL    HW141302  12.942   7.251  12.579
79823SOL    HW241303  13.067   7.182  12.629
79824SOL     OW41304   4.146  10.812   0.298
79824SOL    HW141305   4.086  10.777   0.233
79824SOL    HW241306   4.101  10.800   0.382
79825SOL     OW41307   4.854   1.359   1.105
79825SOL    HW141308   4.914   1.323   1.170
79825SOL    HW241309   4.872   1.453   1.104
79826SOL     OW41310   7.815   5.285   0.756
79826SOL    HW141311   7.749   5.319   0.816
79826SOL    HW241312   7.787   5.315   0.669
79827SOL     OW41313   5.615  14.614  11.207
79827SOL    HW141314   5.661  14.534  11.183
79827SOL    HW241315   5.524  14.598  11.184
79828SOL     OW41316  13.228   7.976   6.456
79828SOL    HW141317  13.194   7.948   6.371
79828SOL    HW241318  13.174   7.930   6.520
79829SOL     OW41319   4.094   4.152   1.563
79829SOL    HW141320   4.090   4.057   1.554
79829SOL    HW241321   4.135   4.166   1.648
79830SOL     OW41322   9.797   7.469  13.039
79830SOL    HW141323   9.803   7.539  13.104
79830SOL    HW241324   9.858   7.402  13.070
79831SOL     OW41325   5.522   1.531   3.980
79831SOL    HW141326   5.538   1.436   3.979
79831SOL    HW241327   5.447   1.541   4.039
79832SOL     OW41328   1.867   9.420   1.070
79832SOL    HW141329   1.796   9.450   1.014
79832SOL    HW241330   1.941   9.477   1.049
79833SOL     OW41331   8.068  13.124  12.914
79833SOL    HW141332   7.982  13.105  12.879
79833SOL    HW241333   8.094  13.045  12.961
79834SOL     OW41334   8.316  13.978  11.428
79834SOL    HW141335   8.363  14.031  11.491
79834SOL    HW241336   8.224  13.987  11.452
79835SOL     OW41337   6.941   6.180   9.179
79835SOL    HW141338   6.878   6.111   9.161
79835SOL    HW241339   6.964   6.215   9.094
79836SOL     OW41340   3.519  14.622  13.942
79836SOL    HW141341   3.514  14.697  13.882
79836SOL    HW241342   3.471  14.552  13.897
79837SOL     OW41343  12.485   7.423  10.201
79837SOL    HW141344  12.481   7.333  10.233
79837SOL    HW241345  12.495   7.476  10.280
79838SOL     OW41346  13.850   3.427   3.438
79838SOL    HW141347  13.764   3.436   3.397
79838SOL    HW241348  13.912   3.435   3.366
79839SOL     OW41349   0.631   7.177  14.442
79839SOL    HW141350   0.611   7.212  14.528
79839SOL    HW241351   0.722   7.200  14.426
79840SOL     OW41352  14.064   1.197  10.536
79840SOL    HW141353  14.157   1.211  10.555
79840SOL    HW241354  14.026   1.285  10.541
79841SOL     OW41355   2.165   2.231   4.652
79841SOL    HW141356   2.236   2.294   4.662
79841SOL    HW241357   2.101   2.257   4.719
79842SOL     OW41358   4.186   9.194   7.713
79842SOL    HW141359   4.117   9.146   7.760
79842SOL    HW241360   4.268   9.156   7.745
79843SOL     OW41361   3.314  10.149   8.020
79843SOL    HW141362   3.312  10.054   8.016
79843SOL    HW241363   3.393  10.170   8.069
79844SOL     OW41364  12.536  13.267  12.899
79844SOL    HW141365  12.485  13.330  12.847
79844SOL    HW241366  12.609  13.318  12.933
79845SOL     OW41367   5.841  10.756   2.518
79845SOL    HW141368   5.903  10.683   2.524
79845SOL    HW241369   5.788  10.749   2.598
79846SOL     OW41370   7.200   4.533  13.551
79846SOL    HW141371   7.138   4.592  13.596
79846SOL    HW241372   7.280   4.540  13.602
79847SOL     OW41373   4.123   9.808  10.334
79847SOL    HW141374   4.075   9.726  10.343
79847SOL    HW241375   4.055   9.874  10.318
79848SOL     OW41376  11.402   5.961  12.425
79848SOL    HW141377  11.369   6.043  12.387
79848SOL    HW241378  11.484   5.945  12.379
79849SOL     OW41379  10.066   0.430   7.735
79849SOL    HW141380   9.979   0.392   7.725
79849SOL    HW241381  10.071   0.453   7.828
79850SOL     OW41382   2.892   2.961   7.411
79850SOL    HW141383   2.920   3.043   7.372
79850SOL    HW241384   2.816   2.985   7.465
79851SOL     OW41385   1.193   3.960   3.875
79851SOL    HW141386   1.267   4.016   3.899
79851SOL    HW241387   1.233   3.881   3.839
79852SOL     OW41388  13.191   3.014  14.486
79852SOL    HW141389  13.269   2.978  14.527
79852SOL    HW241390  13.219   3.037  14.397
79853SOL     OW41391   4.651   8.057   7.481
79853SOL    HW141392   4.555   8.055   7.484
79853SOL    HW241393   4.678   8.025   7.567
79854SOL     OW41394   7.955  12.371   5.892
79854SOL    HW141395   8.037  12.404   5.929
79854SOL    HW241396   7.963  12.388   5.799
79855SOL     OW41397   8.888  11.596  12.076
79855SOL    HW141398   8.919  11.617  12.164
79855SOL    HW241399   8.819  11.659  12.059
79856SOL     OW41400   1.676   6.933   0.029
79856SOL    HW141401   1.687   6.838   0.028
79856SOL    HW241402   1.600   6.948   0.085
79857SOL     OW41403  13.985  14.306   0.695
79857SOL    HW141404  14.058  14.245   0.689
79857SOL    HW241405  13.915  14.256   0.737
79858SOL     OW41406   0.185   4.278   7.918
79858SOL    HW141407   0.256   4.215   7.928
79858SOL    HW241408   0.215   4.338   7.849
79859SOL     OW41409   7.616  14.234   2.999
79859SOL    HW141410   7.523  14.247   2.980
79859SOL    HW241411   7.658  14.230   2.913
79860SOL     OW41412   3.494   5.894   9.857
79860SOL    HW141413   3.544   5.972   9.836
79860SOL    HW241414   3.480   5.850   9.773
79861SOL     OW41415   7.051   2.914   6.471
79861SOL    HW141416   7.017   2.843   6.526
79861SOL    HW241417   7.136   2.935   6.510
79862SOL     OW41418   8.677   6.299  14.183
79862SOL    HW141419   8.623   6.297  14.104
79862SOL    HW241420   8.643   6.374  14.233
79863SOL     OW41421   3.741  14.219   5.398
79863SOL    HW141422   3.809  14.170   5.352
79863SOL    HW241423   3.772  14.310   5.397
79864SOL     OW41424  11.227  12.459   1.214
79864SOL    HW141425  11.288  12.402   1.260
79864SOL    HW241426  11.181  12.401   1.153
79865SOL     OW41427   5.578   6.004   8.285
79865SOL    HW141428   5.669   5.982   8.263
79865SOL    HW241429   5.525   5.948   8.229
79866SOL     OW41430   3.154   7.534   0.161
79866SOL    HW141431   3.133   7.617   0.118
79866SOL    HW241432   3.249   7.539   0.176
79867SOL     OW41433   3.502   3.340  13.435
79867SOL    HW141434   3.512   3.272  13.501
79867SOL    HW241435   3.410   3.336  13.410
79868SOL     OW41436   4.569  12.549   5.623
79868SOL    HW141437   4.492  12.541   5.566
79868SOL    HW241438   4.536  12.595   5.701
79869SOL     OW41439   8.460   0.192   5.191
79869SOL    HW141440   8.468   0.243   5.110
79869SOL    HW241441   8.487   0.252   5.260
79870SOL     OW41442   2.455  11.706   9.207
79870SOL    HW141443   2.535  11.729   9.254
79870SOL    HW241444   2.385  11.750   9.255
79871SOL     OW41445  11.674   5.985   8.159
79871SOL    HW141446  11.622   5.931   8.099
79871SOL    HW241447  11.733   5.923   8.201
79872SOL     OW41448   2.090   3.351   7.662
79872SOL    HW141449   2.155   3.395   7.718
79872SOL    HW241450   2.060   3.276   7.714
79873SOL     OW41451   4.064   1.878   4.457
79873SOL    HW141452   4.156   1.858   4.440
79873SOL    HW241453   4.066   1.956   4.512
79874SOL     OW41454  10.568   7.351   7.260
79874SOL    HW141455  10.488   7.403   7.276
79874SOL    HW241456  10.602   7.385   7.178
79875SOL     OW41457   2.978   7.102   6.784
79875SOL    HW141458   2.921   7.031   6.814
79875SOL    HW241459   3.066   7.070   6.802
79876SOL     OW41460   1.690   0.975   9.047
79876SOL    HW141461   1.723   1.017   9.126
79876SOL    HW241462   1.627   1.038   9.011
79877SOL     OW41463  12.162   1.043   3.218
79877SOL    HW141464  12.135   1.005   3.134
79877SOL    HW241465  12.150   0.972   3.281
79878SOL     OW41466   3.223  10.883   6.447
79878SOL    HW141467   3.187  10.934   6.519
79878SOL    HW241468   3.177  10.915   6.369
79879SOL     OW41469   6.428   6.468   2.583
79879SOL    HW141470   6.375   6.539   2.619
79879SOL    HW241471   6.487   6.444   2.654
79880SOL     OW41472   8.059   7.778  14.461
79880SOL    HW141473   8.074   7.865  14.500
79880SOL    HW241474   8.147   7.742  14.449
79881SOL     OW41475   1.360   5.013  14.612
79881SOL    HW141476   1.410   5.021  14.693
79881SOL    HW241477   1.425   5.014  14.543
79882SOL     OW41478   8.530   5.428  12.139
79882SOL    HW141479   8.620   5.440  12.170
79882SOL    HW241480   8.526   5.336  12.113
79883SOL     OW41481  14.569   8.253  14.215
79883SOL    HW141482  14.615   8.171  14.237
79883SOL    HW241483  14.477   8.234  14.234
79884SOL     OW41484  10.243   3.878   5.375
79884SOL    HW141485  10.181   3.933   5.326
79884SOL    HW241486  10.300   3.840   5.308
79885SOL     OW41487   3.273   8.507   0.679
79885SOL    HW141488   3.239   8.503   0.768
79885SOL    HW241489   3.196   8.527   0.625
79886SOL     OW41490   3.912   6.755   0.353
79886SOL    HW141491   3.863   6.753   0.271
79886SOL    HW241492   3.883   6.834   0.397
79887SOL     OW41493  11.535   2.930  11.396
79887SOL    HW141494  11.588   2.850  11.398
79887SOL    HW241495  11.449   2.901  11.366
79888SOL     OW41496  12.623   8.237   2.024
79888SOL    HW141497  12.696   8.285   1.985
79888SOL    HW241498  12.556   8.235   1.956
79889SOL     OW41499   9.547  10.130   6.567
79889SOL    HW141500   9.466  10.093   6.531
79889SOL    HW241501   9.594  10.163   6.490
79890SOL     OW41502   1.601   0.944  11.864
79890SOL    HW141503   1.668   0.989  11.916
79890SOL    HW241504   1.534   0.920  11.928
79891SOL     OW41505   3.759   6.411  11.450
79891SOL    HW141506   3.817   6.335  11.460
79891SOL    HW241507   3.689   6.380  11.393
79892SOL     OW41508  11.465   6.334   9.633
79892SOL    HW141509  11.428   6.326   9.545
79892SOL    HW241510  11.392   6.315   9.692
79893SOL     OW41511  10.890  12.295  11.611
79893SOL    HW141512  10.805  12.336  11.627
79893SOL    HW241513  10.909  12.316  11.519
79894SOL     OW41514   6.985  13.424   5.360
79894SOL    HW141515   7.053  13.457   5.302
79894SOL    HW241516   7.027  13.351   5.406
79895SOL     OW41517   9.827   2.170   0.862
79895SOL    HW141518   9.885   2.110   0.814
79895SOL    HW241519   9.854   2.160   0.954
79896SOL     OW41520   5.757   7.833   4.810
79896SOL    HW141521   5.684   7.894   4.817
79896SOL    HW241522   5.829   7.875   4.856
79897SOL     OW41523  10.815   5.560  12.838
79897SOL    HW141524  10.866   5.590  12.914
79897SOL    HW241525  10.881   5.538  12.772
79898SOL     OW41526   4.244   1.603  10.053
79898SOL    HW141527   4.193   1.639   9.981
79898SOL    HW241528   4.291   1.679  10.089
79899SOL     OW41529  14.658   7.927   8.019
79899SOL    HW141530  14.754   7.929   8.018
79899SOL    HW241531  14.636   7.835   8.034
79900SOL     OW41532   5.203   9.342   5.517
79900SOL    HW141533   5.176   9.354   5.426
79900SOL    HW241534   5.177   9.423   5.560
79901SOL     OW41535   9.800   9.149   6.507
79901SOL    HW141536   9.739   9.109   6.445
79901SOL    HW241537   9.780   9.108   6.591
79902SOL     OW41538  12.030  11.420   9.002
79902SOL    HW141539  11.939  11.447   8.996
79902SOL    HW241540  12.070  11.483   9.062
79903SOL     OW41541   2.617   6.767   6.331
79903SOL    HW141542   2.650   6.766   6.421
79903SOL    HW241543   2.689   6.804   6.280
79904SOL     OW41544   9.786  11.336  11.026
79904SOL    HW141545   9.774  11.423  10.990
79904SOL    HW241546   9.702  11.314  11.066
79905SOL     OW41547   5.766   6.231   7.119
79905SOL    HW141548   5.795   6.259   7.206
79905SOL    HW241549   5.697   6.294   7.096
79906SOL     OW41550   3.802   4.110   4.243
79906SOL    HW141551   3.766   4.068   4.165
79906SOL    HW241552   3.750   4.190   4.253
79907SOL     OW41553  14.107   3.662   7.180
79907SOL    HW141554  14.180   3.667   7.118
79907SOL    HW241555  14.146   3.631   7.261
79908SOL     OW41556   9.895   2.705   7.649
79908SOL    HW141557   9.813   2.676   7.610
79908SOL    HW241558   9.887   2.683   7.742
79909SOL     OW41559  13.856   8.960   9.569
79909SOL    HW141560  13.832   9.051   9.548
79909SOL    HW241561  13.814   8.909   9.500
79910SOL     OW41562  10.396   9.701   6.708
79910SOL    HW141563  10.312   9.741   6.684
79910SOL    HW241564  10.381   9.606   6.699
79911SOL     OW41565   7.434   1.496   2.022
79911SOL    HW141566   7.523   1.464   2.038
79911SOL    HW241567   7.446   1.576   1.970
79912SOL     OW41568   1.146   0.525   2.932
79912SOL    HW141569   1.096   0.518   3.014
79912SOL    HW241570   1.140   0.437   2.893
79913SOL     OW41571   3.419   2.087   5.264
79913SOL    HW141572   3.477   2.163   5.273
79913SOL    HW241573   3.368   2.104   5.186
79914SOL     OW41574   9.069   0.665   0.260
79914SOL    HW141575   9.096   0.745   0.216
79914SOL    HW241576   9.133   0.653   0.331
79915SOL     OW41577   2.778  11.014   5.504
79915SOL    HW141578   2.703  10.954   5.500
79915SOL    HW241579   2.817  10.997   5.590
79916SOL     OW41580   7.092  13.133   1.754
79916SOL    HW141581   6.998  13.119   1.745
79916SOL    HW241582   7.127  13.046   1.776
79917SOL     OW41583   2.422   3.376   5.147
79917SOL    HW141584   2.495   3.344   5.199
79917SOL    HW241585   2.459   3.444   5.092
79918SOL     OW41586   1.014   2.494  13.975
79918SOL    HW141587   1.039   2.518  14.064
79918SOL    HW241588   1.097   2.479  13.930
79919SOL     OW41589  10.267   9.766   1.311
79919SOL    HW141590  10.238   9.687   1.356
79919SOL    HW241591  10.196   9.787   1.250
79920SOL     OW41592   5.218   2.623   8.352
79920SOL    HW141593   5.182   2.544   8.393
79920SOL    HW241594   5.312   2.608   8.349
79921SOL     OW41595  12.345  14.366  10.051
79921SOL    HW141596  12.368  14.383   9.960
79921SOL    HW241597  12.276  14.430  10.071
79922SOL     OW41598   9.117   2.040   9.247
79922SOL    HW141599   9.075   2.065   9.165
79922SOL    HW241600   9.047   2.042   9.313
79923SOL     OW41601   2.760   1.597   3.970
79923SOL    HW141602   2.666   1.582   3.967
79923SOL    HW241603   2.776   1.671   3.912
79924SOL     OW41604   8.467   3.991  13.534
79924SOL    HW141605   8.511   3.907  13.545
79924SOL    HW241606   8.494   4.022  13.448
79925SOL     OW41607  11.138  10.152  14.070
79925SOL    HW141608  11.136  10.088  13.999
79925SOL    HW241609  11.201  10.218  14.040
79926SOL     OW41610   1.317   8.551   9.301
79926SOL    HW141611   1.318   8.581   9.210
79926SOL    HW241612   1.353   8.625   9.351
79927SOL     OW41613  11.419   4.414   1.699
79927SOL    HW141614  11.324   4.418   1.696
79927SOL    HW241615  11.448   4.482   1.638
79928SOL     OW41616   6.559  11.058  13.379
79928SOL    HW141617   6.483  11.010  13.347
79928SOL    HW241618   6.635  11.006  13.353
79929SOL     OW41619   1.986  11.289   1.423
79929SOL    HW141620   1.930  11.260   1.496
79929SOL    HW241621   2.067  11.318   1.466
79930SOL     OW41622  11.365  13.324   6.546
79930SOL    HW141623  11.310  13.248   6.568
79930SOL    HW241624  11.395  13.307   6.457
79931SOL     OW41625   9.220   5.180   9.972
79931SOL    HW141626   9.183   5.153   9.888
79931SOL    HW241627   9.182   5.267   9.988
79932SOL     OW41628   2.179   6.992   7.277
79932SOL    HW141629   2.196   7.058   7.345
79932SOL    HW241630   2.183   7.040   7.195
79933SOL     OW41631  12.419   3.898   2.414
79933SOL    HW141632  12.357   3.963   2.381
79933SOL    HW241633  12.400   3.819   2.363
79934SOL     OW41634   1.705  10.963   8.193
79934SOL    HW141635   1.716  11.032   8.259
79934SOL    HW241636   1.623  10.985   8.150
79935SOL     OW41637   6.081   5.819   4.314
79935SOL    HW141638   6.093   5.773   4.231
79935SOL    HW241639   6.007   5.877   4.299
79936SOL     OW41640   2.648  13.813  14.489
79936SOL    HW141641   2.595  13.890  14.510
79936SOL    HW241642   2.694  13.836  14.409
79937SOL     OW41643   4.030   2.557   2.357
79937SOL    HW141644   4.057   2.624   2.294
79937SOL    HW241645   3.948   2.590   2.393
79938SOL     OW41646   8.283   0.740   7.188
79938SOL    HW141647   8.336   0.771   7.115
79938SOL    HW241648   8.286   0.644   7.181
79939SOL     OW41649   9.941   2.014   8.871
79939SOL    HW141650  10.006   2.038   8.937
79939SOL    HW241651   9.878   2.086   8.872
79940SOL     OW41652   6.612   2.439   3.710
79940SOL    HW141653   6.676   2.470   3.646
79940SOL    HW241654   6.614   2.344   3.702
79941SOL     OW41655  13.747   1.778  12.417
79941SOL    HW141656  13.698   1.708  12.372
79941SOL    HW241657  13.817   1.732  12.463
79942SOL     OW41658  11.596  12.753   1.622
79942SOL    HW141659  11.511  12.775   1.582
79942SOL    HW241660  11.574  12.694   1.694
79943SOL     OW41661   1.323  12.132   4.244
79943SOL    HW141662   1.397  12.131   4.305
79943SOL    HW241663   1.263  12.198   4.279
79944SOL     OW41664   5.180   2.492   0.433
79944SOL    HW141665   5.179   2.587   0.423
79944SOL    HW241666   5.152   2.478   0.524
79945SOL     OW41667   7.867   7.493  13.839
79945SOL    HW141668   7.867   7.419  13.899
79945SOL    HW241669   7.949   7.539  13.856
79946SOL     OW41670   8.907   3.873   0.105
79946SOL    HW141671   8.862   3.958   0.110
79946SOL    HW241672   8.980   3.881   0.166
79947SOL     OW41673   8.856  10.478   0.366
79947SOL    HW141674   8.942  10.442   0.388
79947SOL    HW241675   8.794  10.424   0.414
79948SOL     OW41676   5.210   6.915   3.744
79948SOL    HW141677   5.158   6.864   3.806
79948SOL    HW241678   5.150   6.979   3.707
79949SOL     OW41679  13.249   9.396   7.223
79949SOL    HW141680  13.283   9.331   7.284
79949SOL    HW241681  13.298   9.476   7.243
79950SOL     OW41682   1.453  14.712  14.442
79950SOL    HW141683   1.427  14.781  14.503
79950SOL    HW241684   1.480  14.639  14.498
79951SOL     OW41685  14.246   4.775   1.727
79951SOL    HW141686  14.323   4.772   1.670
79951SOL    HW241687  14.239   4.867   1.752
79952SOL     OW41688   8.192  14.648   3.247
79952SOL    HW141689   8.129  14.587   3.207
79952SOL    HW241690   8.151  14.673   3.330
79953SOL     OW41691   5.345   9.030   0.628
79953SOL    HW141692   5.377   9.121   0.630
79953SOL    HW241693   5.382   8.991   0.707
79954SOL     OW41694  13.547  12.458   6.788
79954SOL    HW141695  13.476  12.518   6.769
79954SOL    HW241696  13.521  12.413   6.868
79955SOL     OW41697  13.264  10.289   9.564
79955SOL    HW141698  13.244  10.233   9.489
79955SOL    HW241699  13.214  10.369   9.548
79956SOL     OW41700   6.782   8.070   9.145
79956SOL    HW141701   6.726   7.993   9.157
79956SOL    HW241702   6.730   8.143   9.180
79957SOL     OW41703  11.810   5.758   8.261
79957SOL    HW141704  11.895   5.789   8.229
79957SOL    HW241705  11.829   5.675   8.303
79958SOL     OW41706  13.676   6.531  10.512
79958SOL    HW141707  13.636   6.502  10.595
79958SOL    HW241708  13.739   6.598  10.538
79959SOL     OW41709   2.153   4.820  12.408
79959SOL    HW141710   2.194   4.898  12.371
79959SOL    HW241711   2.185   4.748  12.353
79960SOL     OW41712   9.541   8.581   2.987
79960SOL    HW141713   9.483   8.505   2.983
79960SOL    HW241714   9.504   8.636   3.056
79961SOL     OW41715   6.866   8.451   1.097
79961SOL    HW141716   6.771   8.461   1.101
79961SOL    HW241717   6.901   8.540   1.101
79962SOL     OW41718   5.593   3.592   1.581
79962SOL    HW141719   5.619   3.679   1.550
79962SOL    HW241720   5.523   3.609   1.644
79963SOL     OW41721  10.958  11.773   5.538
79963SOL    HW141722  10.925  11.834   5.473
79963SOL    HW241723  10.963  11.824   5.619
79964SOL     OW41724   8.677   5.815   3.443
79964SOL    HW141725   8.621   5.776   3.376
79964SOL    HW241726   8.739   5.870   3.393
79965SOL     OW41727  10.336  11.876  12.690
79965SOL    HW141728  10.431  11.880  12.677
79965SOL    HW241729  10.311  11.966  12.712
79966SOL     OW41730  14.112  10.380  11.232
79966SOL    HW141731  14.138  10.380  11.324
79966SOL    HW241732  14.187  10.413  11.185
79967SOL     OW41733   0.782   6.843   2.363
79967SOL    HW141734   0.721   6.878   2.299
79967SOL    HW241735   0.837   6.783   2.313
79968SOL     OW41736   2.614   9.528   6.136
79968SOL    HW141737   2.613   9.444   6.180
79968SOL    HW241738   2.523   9.557   6.135
79969SOL     OW41739  12.009  11.364   0.447
79969SOL    HW141740  12.060  11.347   0.526
79969SOL    HW241741  11.953  11.438   0.470
79970SOL     OW41742   4.943   9.899  13.075
79970SOL    HW141743   4.888   9.890  13.152
79970SOL    HW241744   5.033   9.898  13.110
79971SOL     OW41745   9.661  10.240  14.635
79971SOL    HW141746   9.738  10.252  14.690
79971SOL    HW241747   9.660  10.316  14.578
79972SOL     OW41748   1.966  13.529   6.526
79972SOL    HW141749   1.880  13.513   6.565
79972SOL    HW241750   2.007  13.443   6.521
79973SOL     OW41751  10.035  12.891  11.635
79973SOL    HW141752   9.989  12.883  11.551
79973SOL    HW241753   9.969  12.926  11.694
79974SOL     OW41754  14.691  10.301   7.800
79974SOL    HW141755  14.599  10.278   7.796
79974SOL    HW241756  14.691  10.395   7.819
79975SOL     OW41757   9.001   9.965  14.670
79975SOL    HW141758   9.065  10.003  14.610
79975SOL    HW241759   8.916   9.990  14.632
79976SOL     OW41760  11.359   5.577   6.748
79976SOL    HW141761  11.346   5.495   6.701
79976SOL    HW241762  11.429   5.621   6.699
79977SOL     OW41763  12.447   1.463   4.053
79977SOL    HW141764  12.380   1.516   4.097
79977SOL    HW241765  12.460   1.389   4.112
79978SOL     OW41766   6.834  14.734  14.477
79978SOL    HW141767   6.753  14.734  14.527
79978SOL    HW241768   6.806  14.748  14.386
79979SOL     OW41769  14.095   5.052  11.646
79979SOL    HW141770  14.160   5.066  11.578
79979SOL    HW241771  14.020   5.107  11.621
79980SOL     OW41772   2.320   7.100  12.079
79980SOL    HW141773   2.284   7.013  12.098
79980SOL    HW241774   2.249   7.146  12.034
79981SOL     OW41775   8.958   9.272  11.693
79981SOL    HW141776   8.951   9.363  11.721
79981SOL    HW241777   8.948   9.221  11.773
79982SOL     OW41778  11.517   2.130   3.919
79982SOL    HW141779  11.426   2.104   3.932
79982SOL    HW241780  11.548   2.074   3.848
79983SOL     OW41781   2.484   2.187   9.943
79983SOL    HW141782   2.553   2.153   9.886
79983SOL    HW241783   2.408   2.197   9.885
79984SOL     OW41784   0.088   9.570   8.326
79984SOL    HW141785   0.077   9.539   8.415
79984SOL    HW241786   0.103   9.490   8.275
79985SOL     OW41787  13.962   8.032   5.511
79985SOL    HW141788  14.037   8.025   5.452
79985SOL    HW241789  13.995   8.080   5.587
79986SOL     OW41790   2.288  14.633  10.606
79986SOL    HW141791   2.299  14.660  10.515
79986SOL    HW241792   2.309  14.711  10.657
79987SOL     OW41793   1.703  13.006  11.692
79987SOL    HW141794   1.726  12.939  11.756
79987SOL    HW241795   1.610  12.992  11.675
79988SOL     OW41796   5.849   1.135   2.116
79988SOL    HW141797   5.800   1.206   2.157
79988SOL    HW241798   5.790   1.059   2.119
79989SOL     OW41799   1.514   1.665   8.826
79989SOL    HW141800   1.491   1.755   8.800
79989SOL    HW241801   1.600   1.650   8.786
79990SOL     OW41802  12.161  14.199   8.739
79990SOL    HW141803  12.182  14.249   8.661
79990SOL    HW241804  12.136  14.265   8.804
79991SOL     OW41805   8.007   2.722   2.558
79991SOL    HW141806   7.930   2.778   2.568
79991SOL    HW241807   7.976   2.634   2.582
79992SOL     OW41808   3.617   7.364  14.211
79992SOL    HW141809   3.567   7.283  14.218
79992SOL    HW241810   3.630   7.392  14.302
79993SOL     OW41811  12.992   6.768   1.823
79993SOL    HW141812  12.912   6.740   1.780
79993SOL    HW241813  12.969   6.852   1.864
79994SOL     OW41814   7.893   7.403  10.452
79994SOL    HW141815   7.988   7.417  10.446
79994SOL    HW241816   7.883   7.307  10.448
79995SOL     OW41817   7.865   8.612   1.113
79995SOL    HW141818   7.889   8.521   1.129
79995SOL    HW241819   7.815   8.637   1.190
79996SOL     OW41820   0.080   6.269   1.522
79996SOL    HW141821   0.083   6.364   1.509
79996SOL    HW241822   0.170   6.240   1.512
79997SOL     OW41823   7.469   7.361  13.539
79997SOL    HW141824   7.429   7.448  13.543
79997SOL    HW241825   7.563   7.378  13.540
79998SOL     OW41826  14.839   4.621   0.755
79998SOL    HW141827  14.807   4.571   0.680
79998SOL    HW241828  14.862   4.555   0.820
79999SOL     OW41829  10.803   7.809   1.844
79999SOL    HW141830  10.758   7.724   1.849
79999SOL    HW241831  10.894   7.787   1.824
80000SOL     OW41832  11.504  10.118   9.946
80000SOL    HW141833  11.429  10.104  10.004
80000SOL    HW241834  11.574  10.148  10.003
80001SOL     OW41835   2.238  11.360   0.102
80001SOL    HW141836   2.284  11.437   0.137
80001SOL    HW241837   2.246  11.369   0.007
80002SOL     OW41838   3.544   8.024   8.583
80002SOL    HW141839   3.449   8.028   8.578
80002SOL    HW241840   3.574   8.053   8.496
80003SOL     OW41841   8.149   9.670   0.622
80003SOL    HW141842   8.209   9.631   0.686
80003SOL    HW241843   8.128   9.756   0.658
80004SOL     OW41844   9.147   5.014   9.277
80004SOL    HW141845   9.126   4.987   9.367
80004SOL    HW241846   9.136   4.934   9.225
80005SOL     OW41847   1.175   6.399  11.727
80005SOL    HW141848   1.235   6.325  11.730
80005SOL    HW241849   1.109   6.376  11.661
80006SOL     OW41850  10.009  12.338   0.333
80006SOL    HW141851  10.033  12.424   0.299
80006SOL    HW241852  10.059  12.276   0.279
80007SOL     OW41853   6.044   3.413   5.124
80007SOL    HW141854   5.982   3.356   5.169
80007SOL    HW241855   5.998   3.440   5.044
80008SOL     OW41856  13.406  13.277  12.946
80008SOL    HW141857  13.353  13.203  12.915
80008SOL    HW241858  13.350  13.321  13.011
80009SOL     OW41859  12.132   3.503   2.295
80009SOL    HW141860  12.210   3.471   2.340
80009SOL    HW241861  12.164   3.531   2.209
80010SOL     OW41862   2.586   9.244  14.429
80010SOL    HW141863   2.600   9.324  14.480
80010SOL    HW241864   2.620   9.265  14.342
80011SOL     OW41865   0.719  10.981  13.049
80011SOL    HW141866   0.625  10.973  13.067
80011SOL    HW241867   0.748  11.052  13.106
80012SOL     OW41868  11.991  11.685  10.041
80012SOL    HW141869  11.963  11.706   9.952
80012SOL    HW241870  11.938  11.608  10.064
80013SOL     OW41871   1.221   5.779   1.871
80013SOL    HW141872   1.313   5.775   1.899
80013SOL    HW241873   1.223   5.756   1.778
80014SOL     OW41874   4.577  10.288  13.503
80014SOL    HW141875   4.545  10.321  13.586
80014SOL    HW241876   4.673  10.286  13.513
80015SOL     OW41877  13.886  14.540   3.062
80015SOL    HW141878  13.915  14.507   3.148
80015SOL    HW241879  13.916  14.474   3.000
80016SOL     OW41880   6.587  11.826   9.738
80016SOL    HW141881   6.566  11.870   9.820
80016SOL    HW241882   6.680  11.805   9.744
80017SOL     OW41883  14.531   2.263   5.440
80017SOL    HW141884  14.573   2.270   5.354
80017SOL    HW241885  14.583   2.197   5.487
80018SOL     OW41886  12.366   3.915   3.364
80018SOL    HW141887  12.437   3.978   3.351
80018SOL    HW241888  12.286   3.968   3.357
80019SOL     OW41889   3.144  11.017   1.197
80019SOL    HW141890   3.178  10.968   1.272
80019SOL    HW241891   3.215  11.015   1.132
80020SOL     OW41892   6.232   8.466   7.789
80020SOL    HW141893   6.295   8.521   7.743
80020SOL    HW241894   6.171   8.436   7.721
80021SOL     OW41895  11.385  10.285   1.381
80021SOL    HW141896  11.309  10.314   1.432
80021SOL    HW241897  11.371  10.191   1.369
80022SOL     OW41898   1.469   6.681   5.713
80022SOL    HW141899   1.456   6.600   5.761
80022SOL    HW241900   1.500   6.653   5.627
80023SOL     OW41901   1.980   8.559  11.307
80023SOL    HW141902   2.042   8.612  11.256
80023SOL    HW241903   1.996   8.469  11.277
80024SOL     OW41904   3.341   4.017   9.708
80024SOL    HW141905   3.401   3.982   9.642
80024SOL    HW241906   3.326   4.108   9.681
80025SOL     OW41907   4.498   6.119   2.544
80025SOL    HW141908   4.503   6.214   2.555
80025SOL    HW241909   4.483   6.085   2.632
80026SOL     OW41910   5.393   9.793  14.061
80026SOL    HW141911   5.303   9.760  14.059
80026SOL    HW241912   5.384   9.888  14.068
80027SOL     OW41913   2.372  11.230   7.537
80027SOL    HW141914   2.397  11.320   7.559
80027SOL    HW241915   2.408  11.216   7.449
80028SOL     OW41916   4.300   6.738   0.787
80028SOL    HW141917   4.228   6.685   0.755
80028SOL    HW241918   4.356   6.676   0.834
80029SOL     OW41919   3.323   5.063   8.008
80029SOL    HW141920   3.252   5.006   7.978
80029SOL    HW241921   3.355   5.105   7.928
80030SOL     OW41922   2.093   9.051  11.528
80030SOL    HW141923   2.025   8.985  11.542
80030SOL    HW241924   2.076   9.084  11.440
80031SOL     OW41925   2.696   9.521   6.602
80031SOL    HW141926   2.771   9.482   6.648
80031SOL    HW241927   2.732   9.599   6.560
80032SOL     OW41928  14.622  14.827   6.061
80032SOL    HW141929  14.662  14.775   5.991
80032SOL    HW241930  14.628  14.772   6.139
80033SOL     OW41931   9.258   9.180  11.992
80033SOL    HW141932   9.307   9.102  11.966
80033SOL    HW241933   9.309   9.253  11.957
80034SOL     OW41934   7.581   3.227   5.953
80034SOL    HW141935   7.582   3.162   6.024
80034SOL    HW241936   7.501   3.277   5.967
80035SOL     OW41937  10.426   2.450   3.442
80035SOL    HW141938  10.503   2.394   3.430
80035SOL    HW241939  10.376   2.439   3.362
80036SOL     OW41940   2.010   4.399  11.838
80036SOL    HW141941   2.001   4.314  11.794
80036SOL    HW241942   2.082   4.442  11.792
80037SOL     OW41943   9.063   0.815  12.924
80037SOL    HW141944   9.009   0.884  12.886
80037SOL    HW241945   9.127   0.861  12.978
80038SOL     OW41946  14.437  14.590   6.182
80038SOL    HW141947  14.514  14.640   6.208
80038SOL    HW241948  14.364  14.633   6.227
80039SOL     OW41949   8.936  13.447   7.637
80039SOL    HW141950   8.868  13.513   7.624
80039SOL    HW241951   8.900  13.368   7.596
80040SOL     OW41952  12.638   5.917   9.250
80040SOL    HW141953  12.715   5.881   9.294
80040SOL    HW241954  12.673   5.969   9.178
80041SOL     OW41955  14.046   0.059  12.799
80041SOL    HW141956  14.043   0.022  12.887
80041SOL    HW241957  14.132   0.100  12.793
80042SOL     OW41958   9.389   7.257   0.106
80042SOL    HW141959   9.398   7.194   0.035
80042SOL    HW241960   9.297   7.282   0.104
80043SOL     OW41961  11.797   0.165   7.091
80043SOL    HW141962  11.871   0.140   7.146
80043SOL    HW241963  11.832   0.163   7.001
80044SOL     OW41964   8.910   2.412   0.187
80044SOL    HW141965   8.839   2.347   0.191
80044SOL    HW241966   8.937   2.411   0.095
80045SOL     OW41967   1.034   1.581  10.267
80045SOL    HW141968   0.941   1.576  10.247
80045SOL    HW241969   1.039   1.642  10.341
80046SOL     OW41970   0.750  11.405   1.658
80046SOL    HW141971   0.793  11.418   1.573
80046SOL    HW241972   0.823  11.392   1.719
80047SOL     OW41973   2.710  12.825   6.012
80047SOL    HW141974   2.630  12.845   6.061
80047SOL    HW241975   2.680  12.807   5.923
80048SOL     OW41976   0.582  10.094   5.035
80048SOL    HW141977   0.491  10.070   5.049
80048SOL    HW241978   0.577  10.176   4.985
80049SOL     OW41979   9.591   3.484  14.776
80049SOL    HW141980   9.629   3.468  14.690
80049SOL    HW241981   9.634   3.421  14.834
80050SOL     OW41982   1.978  10.155   0.552
80050SOL    HW141983   2.069  10.177   0.571
80050SOL    HW241984   1.965  10.070   0.595
80051SOL     OW41985   5.246  14.265   2.435
80051SOL    HW141986   5.227  14.177   2.467
80051SOL    HW241987   5.165  14.314   2.452
80052SOL     OW41988   1.427  13.219   3.072
80052SOL    HW141989   1.352  13.215   3.013
80052SOL    HW241990   1.440  13.313   3.088
80053SOL     OW41991  13.750  11.381  14.291
80053SOL    HW141992  13.774  11.292  14.269
80053SOL    HW241993  13.699  11.373  14.372
80054SOL     OW41994   6.080   2.964   7.564
80054SOL    HW141995   6.067   2.958   7.469
80054SOL    HW241996   6.161   3.013   7.574
80055SOL     OW41997   1.490   7.359   6.736
80055SOL    HW141998   1.514   7.426   6.800
80055SOL    HW241999   1.556   7.290   6.749
80056SOL     OW42000  10.202  13.320  12.829
80056SOL    HW142001  10.149  13.265  12.886
80056SOL    HW242002  10.186  13.409  12.860
80057SOL     OW42003   4.146  14.075   9.839
80057SOL    HW142004   4.179  14.055   9.752
80057SOL    HW242005   4.224  14.090   9.892
80058SOL     OW42006   2.861   9.436   4.521
80058SOL    HW142007   2.802   9.387   4.465
80058SOL    HW242008   2.903   9.370   4.576
80059SOL     OW42009   0.366  14.258  10.420
80059SOL    HW142010   0.399  14.277  10.508
80059SOL    HW242011   0.444  14.249  10.367
80060SOL     OW42012  13.213   1.365   8.630
80060SOL    HW142013  13.143   1.300   8.640
80060SOL    HW242014  13.180   1.443   8.675
80061SOL     OW42015   9.015   0.375   7.515
80061SOL    HW142016   9.108   0.392   7.529
80061SOL    HW242017   8.988   0.323   7.591
80062SOL     OW42018   2.219  12.384   7.756
80062SOL    HW142019   2.200  12.346   7.842
80062SOL    HW242020   2.133  12.405   7.720
80063SOL     OW42021  13.419   3.520  10.152
80063SOL    HW142022  13.451   3.593  10.099
80063SOL    HW242023  13.351   3.480  10.099
80064SOL     OW42024   0.585  10.194  11.428
80064SOL    HW142025   0.593  10.127  11.360
80064SOL    HW242026   0.501  10.237  11.410
80065SOL     OW42027  13.527  14.619   0.759
80065SOL    HW142028  13.509  14.713   0.751
80065SOL    HW242029  13.616  14.614   0.792
80066SOL     OW42030   0.343   2.164  10.196
80066SOL    HW142031   0.391   2.207  10.125
80066SOL    HW242032   0.332   2.233  10.262
80067SOL     OW42033   5.091   3.640   5.428
80067SOL    HW142034   5.093   3.545   5.440
80067SOL    HW242035   5.012   3.668   5.474
80068SOL     OW42036  14.191   1.030   8.436
80068SOL    HW142037  14.265   1.071   8.390
80068SOL    HW242038  14.194   1.068   8.524
80069SOL     OW42039   4.691   0.636  14.750
80069SOL    HW142040   4.713   0.548  14.719
80069SOL    HW242041   4.768   0.689  14.730
80070SOL     OW42042  12.781   0.626   3.451
80070SOL    HW142043  12.814   0.674   3.527
80070SOL    HW242044  12.860   0.599   3.405
80071SOL     OW42045   8.603  11.628  14.141
80071SOL    HW142046   8.548  11.574  14.198
80071SOL    HW242047   8.681  11.575  14.125
80072SOL     OW42048   7.462   5.073  10.913
80072SOL    HW142049   7.384   5.095  10.862
80072SOL    HW242050   7.514   5.017  10.855
80073SOL     OW42051  12.620   4.384  14.696
80073SOL    HW142052  12.630   4.445  14.769
80073SOL    HW242053  12.635   4.437  14.618
80074SOL     OW42054   8.534   1.109   9.786
80074SOL    HW142055   8.506   1.020   9.768
80074SOL    HW242056   8.467   1.164   9.745
80075SOL     OW42057   4.693   1.703  14.794
80075SOL    HW142058   4.666   1.691   0.012
80075SOL    HW242059   4.698   1.797  14.781
80076SOL     OW42060   5.203   4.457   5.134
80076SOL    HW142061   5.275   4.398   5.156
80076SOL    HW242062   5.162   4.478   5.218
80077SOL     OW42063  10.593   0.258   7.353
80077SOL    HW142064  10.685   0.239   7.336
80077SOL    HW242065  10.585   0.255   7.448
80078SOL     OW42066  14.007   9.571   8.915
80078SOL    HW142067  14.060   9.516   8.972
80078SOL    HW242068  14.015   9.659   8.952
80079SOL     OW42069   5.613  10.165   1.766
80079SOL    HW142070   5.570  10.144   1.849
80079SOL    HW242071   5.545  10.150   1.700
80080SOL     OW42072   3.264  10.082   7.263
80080SOL    HW142073   3.322  10.156   7.244
80080SOL    HW242074   3.204  10.114   7.330
80081SOL     OW42075   9.709   1.967   9.765
80081SOL    HW142076   9.696   2.050   9.721
80081SOL    HW242077   9.623   1.944   9.799
80082SOL     OW42078  14.296   4.452   6.054
80082SOL    HW142079  14.205   4.471   6.076
80082SOL    HW242080  14.333   4.537   6.031
80083SOL     OW42081   0.766   4.859   7.534
80083SOL    HW142082   0.744   4.832   7.623
80083SOL    HW242083   0.851   4.820   7.517
80084SOL     OW42084   0.286   6.855   7.871
80084SOL    HW142085   0.234   6.787   7.913
80084SOL    HW242086   0.294   6.826   7.780
80085SOL     OW42087   6.400   9.568   5.800
80085SOL    HW142088   6.415   9.538   5.889
80085SOL    HW242089   6.458   9.644   5.790
80086SOL     OW42090  13.681   8.112  10.708
80086SOL    HW142091  13.696   8.116  10.802
80086SOL    HW242092  13.656   8.201  10.683
80087SOL     OW42093   4.103   4.764  12.200
80087SOL    HW142094   4.120   4.826  12.271
80087SOL    HW242095   4.016   4.729  12.218
80088SOL     OW42096   3.354   1.830   3.348
80088SOL    HW142097   3.394   1.897   3.293
80088SOL    HW242098   3.428   1.791   3.395
80089SOL     OW42099   8.272   2.908   8.741
80089SOL    HW142100   8.236   2.983   8.787
80089SOL    HW242101   8.326   2.863   8.806
80090SOL     OW42102  14.807   2.452   2.597
80090SOL    HW142103  14.774   2.494   2.677
80090SOL    HW242104  14.814   2.360   2.620
80091SOL     OW42105  11.733   4.870   2.451
80091SOL    HW142106  11.777   4.788   2.469
80091SOL    HW242107  11.803   4.935   2.448
80092SOL     OW42108   4.740  11.623   7.938
80092SOL    HW142109   4.732  11.651   7.847
80092SOL    HW242110   4.811  11.559   7.938
80093SOL     OW42111   2.965   3.160  13.940
80093SOL    HW142112   2.897   3.124  13.883
80093SOL    HW242113   2.925   3.164  14.027
80094SOL     OW42114   9.746   6.400   4.594
80094SOL    HW142115   9.657   6.376   4.621
80094SOL    HW242116   9.735   6.483   4.548
80095SOL     OW42117  13.021   6.220  13.840
80095SOL    HW142118  13.086   6.275  13.796
80095SOL    HW242119  13.042   6.131  13.811
80096SOL     OW42120   4.397  13.203   1.227
80096SOL    HW142121   4.447  13.161   1.157
80096SOL    HW242122   4.371  13.287   1.190
80097SOL     OW42123   9.432  14.331  10.049
80097SOL    HW142124   9.505  14.348  10.108
80097SOL    HW242125   9.372  14.277  10.100
80098SOL     OW42126   2.949  10.592   5.447
80098SOL    HW142127   2.956  10.497   5.456
80098SOL    HW242128   3.007  10.614   5.373
80099SOL     OW42129   7.956   1.061   3.810
80099SOL    HW142130   7.945   0.973   3.845
80099SOL    HW242131   8.048   1.083   3.828
80100SOL     OW42132  13.939  11.849   2.498
80100SOL    HW142133  13.993  11.918   2.461
80100SOL    HW242134  13.942  11.779   2.434
80101SOL     OW42135  14.496   4.475  11.790
80101SOL    HW142136  14.571   4.415  11.782
80101SOL    HW242137  14.426   4.432  11.742
80102SOL     OW42138   1.380   4.584   3.423
80102SOL    HW142139   1.433   4.522   3.474
80102SOL    HW242140   1.300   4.536   3.402
80103SOL     OW42141   3.729   3.536  11.929
80103SOL    HW142142   3.692   3.473  11.991
80103SOL    HW242143   3.656   3.557  11.871
80104SOL     OW42144   1.008  10.567  10.767
80104SOL    HW142145   1.006  10.493  10.827
80104SOL    HW242146   0.951  10.541  10.695
80105SOL     OW42147  13.855   1.743  11.572
80105SOL    HW142148  13.819   1.689  11.643
80105SOL    HW242149  13.915   1.684  11.526
80106SOL     OW42150  11.510   4.699   8.975
80106SOL    HW142151  11.515   4.643   9.052
80106SOL    HW242152  11.430   4.750   8.986
80107SOL     OW42153   3.281   6.861   6.510
80107SOL    HW142154   3.338   6.923   6.466
80107SOL    HW242155   3.198   6.866   6.462
80108SOL     OW42156   9.178   8.566  12.155
80108SOL    HW142157   9.135   8.495  12.202
80108SOL    HW242158   9.243   8.522  12.100
80109SOL     OW42159   3.575  14.241   4.214
80109SOL    HW142160   3.561  14.147   4.228
80109SOL    HW242161   3.492  14.282   4.239
80110SOL     OW42162  12.973   5.882   7.902
80110SOL    HW142163  12.894   5.843   7.941
80110SOL    HW242164  12.946   5.905   7.813
80111SOL     OW42165   6.277   4.213   1.621
80111SOL    HW142166   6.304   4.300   1.652
80111SOL    HW242167   6.206   4.188   1.680
80112SOL     OW42168   5.467   2.426  12.818
80112SOL    HW142169   5.556   2.456  12.804
80112SOL    HW242170   5.430   2.415  12.730
80113SOL     OW42171   2.604   4.780   4.202
80113SOL    HW142172   2.529   4.750   4.253
80113SOL    HW242173   2.591   4.874   4.193
80114SOL     OW42174   5.934   2.124   0.988
80114SOL    HW142175   5.845   2.120   0.955
80114SOL    HW242176   5.989   2.093   0.916
80115SOL     OW42177   3.428   5.383  11.144
80115SOL    HW142178   3.456   5.474  11.137
80115SOL    HW242179   3.396   5.375  11.234
80116SOL     OW42180   5.111  11.089   1.997
80116SOL    HW142181   5.176  11.023   2.021
80116SOL    HW242182   5.162  11.167   1.975
80117SOL     OW42183   0.982   3.719   7.476
80117SOL    HW142184   0.924   3.793   7.495
80117SOL    HW242185   1.032   3.707   7.557
80118SOL     OW42186   8.594   7.820   9.188
80118SOL    HW142187   8.574   7.902   9.233
80118SOL    HW242188   8.578   7.752   9.254
80119SOL     OW42189   7.980   2.452   6.303
80119SOL    HW142190   7.935   2.462   6.219
80119SOL    HW242191   7.993   2.542   6.334
80120SOL     OW42192  10.744   4.295   8.649
80120SOL    HW142193  10.766   4.210   8.687
80120SOL    HW242194  10.680   4.274   8.580
80121SOL     OW42195   6.699   9.322   0.625
80121SOL    HW142196   6.793   9.343   0.624
80121SOL    HW242197   6.696   9.230   0.653
80122SOL     OW42198  14.443  12.190  10.731
80122SOL    HW142199  14.506  12.262  10.741
80122SOL    HW242200  14.482  12.117  10.779
80123SOL     OW42201   7.250   1.557  11.393
80123SOL    HW142202   7.205   1.639  11.374
80123SOL    HW242203   7.224   1.499  11.321
80124SOL     OW42204   1.822   1.106   5.461
80124SOL    HW142205   1.832   1.192   5.500
80124SOL    HW242206   1.802   1.048   5.534
80125SOL     OW42207  12.220  13.407   4.082
80125SOL    HW142208  12.188  13.380   3.995
80125SOL    HW242209  12.197  13.334   4.139
80126SOL     OW42210   1.146   3.037   9.565
80126SOL    HW142211   1.079   2.989   9.516
80126SOL    HW242212   1.178   3.103   9.504
80127SOL     OW42213   9.232  10.633   3.566
80127SOL    HW142214   9.328  10.635   3.558
80127SOL    HW242215   9.203  10.578   3.493
80128SOL     OW42216  14.574   9.552  13.592
80128SOL    HW142217  14.479   9.543  13.590
80128SOL    HW242218  14.596   9.559  13.685
80129SOL     OW42219   1.135   4.401   0.914
80129SOL    HW142220   1.070   4.337   0.887
80129SOL    HW242221   1.144   4.459   0.838
80130SOL     OW42222   6.194   6.218   0.845
80130SOL    HW142223   6.119   6.200   0.901
80130SOL    HW242224   6.156   6.237   0.759
80131SOL     OW42225   6.321   9.264   5.858
80131SOL    HW142226   6.305   9.342   5.911
80131SOL    HW242227   6.394   9.219   5.902
80132SOL     OW42228   4.688   8.287  11.794
80132SOL    HW142229   4.768   8.336  11.771
80132SOL    HW242230   4.694   8.275  11.888
80133SOL     OW42231   7.627   4.104  11.564
80133SOL    HW142232   7.557   4.055  11.522
80133SOL    HW242233   7.582   4.162  11.626
80134SOL     OW42234   4.494  14.043   1.291
80134SOL    HW142235   4.524  14.049   1.381
80134SOL    HW242236   4.443  14.123   1.277
80135SOL     OW42237   0.084   3.713  14.195
80135SOL    HW142238   0.001   3.700  14.241
80135SOL    HW242239   0.143   3.648  14.234
80136SOL     OW42240   8.026  10.689  12.792
80136SOL    HW142241   7.946  10.643  12.817
80136SOL    HW242242   7.995  10.760  12.736
80137SOL     OW42243  12.662   3.009  10.821
80137SOL    HW142244  12.757   3.011  10.811
80137SOL    HW242245  12.628   3.053  10.743
80138SOL     OW42246  13.474   1.831   3.455
80138SOL    HW142247  13.551   1.840   3.512
80138SOL    HW242248  13.446   1.741   3.468
80139SOL     OW42249   1.256   8.452   6.427
80139SOL    HW142250   1.299   8.499   6.356
80139SOL    HW242251   1.291   8.363   6.421
80140SOL     OW42252   4.499  13.971   8.778
80140SOL    HW142253   4.554  13.893   8.782
80140SOL    HW242254   4.481  13.992   8.869
80141SOL     OW42255  13.146   2.567   9.883
80141SOL    HW142256  13.083   2.611   9.827
80141SOL    HW242257  13.219   2.545   9.825
80142SOL     OW42258   3.658   4.170   8.599
80142SOL    HW142259   3.719   4.103   8.628
80142SOL    HW242260   3.618   4.202   8.680
80143SOL     OW42261   3.052   6.657   0.894
80143SOL    HW142262   2.978   6.610   0.932
80143SOL    HW242263   3.083   6.600   0.823
80144SOL     OW42264  13.024   8.208   5.940
80144SOL    HW142265  13.014   8.239   6.030
80144SOL    HW242266  13.055   8.285   5.892
80145SOL     OW42267   2.774   0.247   3.422
80145SOL    HW142268   2.722   0.324   3.400
80145SOL    HW242269   2.865   0.274   3.406
80146SOL     OW42270  12.339   3.556   5.396
80146SOL    HW142271  12.249   3.551   5.427
80146SOL    HW242272  12.347   3.484   5.333
80147SOL     OW42273   4.282   6.268  10.668
80147SOL    HW142274   4.332   6.348  10.684
80147SOL    HW242275   4.329   6.223  10.597
80148SOL     OW42276   9.099   7.934  10.784
80148SOL    HW142277   9.175   7.888  10.821
80148SOL    HW242278   9.090   8.012  10.838
80149SOL     OW42279  14.265  12.110   2.633
80149SOL    HW142280  14.304  12.056   2.564
80149SOL    HW242281  14.211  12.048   2.682
80150SOL     OW42282   6.667   1.169   7.442
80150SOL    HW142283   6.749   1.146   7.485
80150SOL    HW242284   6.613   1.091   7.450
80151SOL     OW42285   3.743   9.833   3.246
80151SOL    HW142286   3.752   9.756   3.302
80151SOL    HW242287   3.741   9.907   3.307
80152SOL     OW42288  10.490  11.213   3.488
80152SOL    HW142289  10.579  11.247   3.481
80152SOL    HW242290  10.479  11.191   3.580
80153SOL     OW42291   7.475  11.818   8.720
80153SOL    HW142292   7.530  11.787   8.648
80153SOL    HW242293   7.439  11.901   8.689
80154SOL     OW42294   7.428   1.466   1.086
80154SOL    HW142295   7.336   1.490   1.097
80154SOL    HW242296   7.427   1.371   1.075
80155SOL     OW42297  10.269   5.635   8.068
80155SOL    HW142298  10.214   5.567   8.108
80155SOL    HW242299  10.269   5.706   8.132
80156SOL     OW42300   5.351  10.840  12.044
80156SOL    HW142301   5.365  10.785  12.121
80156SOL    HW242302   5.397  10.795  11.973
80157SOL     OW42303  10.711  14.778  10.380
80157SOL    HW142304  10.798  14.740  10.369
80157SOL    HW242305  10.665  14.716  10.437
80158SOL     OW42306   5.762  10.738   7.208
80158SOL    HW142307   5.699  10.668   7.223
80158SOL    HW242308   5.774  10.780   7.293
80159SOL     OW42309   7.955   8.164  11.261
80159SOL    HW142310   8.020   8.172  11.331
80159SOL    HW242311   7.880   8.122  11.302
80160SOL     OW42312   8.123   3.498   5.759
80160SOL    HW142313   8.157   3.447   5.685
80160SOL    HW242314   8.030   3.476   5.763
80161SOL     OW42315   0.380  11.407   3.842
80161SOL    HW142316   0.367  11.372   3.930
80161SOL    HW242317   0.390  11.502   3.855
80162SOL     OW42318  12.065  13.212   4.229
80162SOL    HW142319  12.001  13.147   4.198
80162SOL    HW242320  12.038  13.231   4.319
80163SOL     OW42321  10.368  13.439  13.972
80163SOL    HW142322  10.371  13.452  13.877
80163SOL    HW242323  10.332  13.351  13.982
80164SOL     OW42324   4.821   6.585   5.337
80164SOL    HW142325   4.757   6.515   5.321
80164SOL    HW242326   4.797   6.619   5.424
80165SOL     OW42327   0.079   9.052   1.985
80165SOL    HW142328   0.017   9.049   2.058
80165SOL    HW242329   0.156   9.096   2.021
80166SOL     OW42330   9.243   4.327   2.477
80166SOL    HW142331   9.223   4.390   2.408
80166SOL    HW242332   9.277   4.251   2.431
80167SOL     OW42333   1.694   3.389  11.392
80167SOL    HW142334   1.681   3.430  11.307
80167SOL    HW242335   1.780   3.419  11.421
80168SOL     OW42336   1.833   6.845   3.756
80168SOL    HW142337   1.756   6.806   3.714
80168SOL    HW242338   1.890   6.771   3.774
80169SOL     OW42339  12.895   5.885  11.383
80169SOL    HW142340  12.987   5.897  11.359
80169SOL    HW242341  12.898   5.830  11.461
80170SOL     OW42342   2.223  10.326  14.242
80170SOL    HW142343   2.247  10.391  14.309
80170SOL    HW242344   2.275  10.249  14.264
80171SOL     OW42345   9.281  11.122   5.712
80171SOL    HW142346   9.216  11.179   5.754
80171SOL    HW242347   9.229  11.058   5.665
80172SOL     OW42348   2.785  13.313   9.893
80172SOL    HW142349   2.871  13.341   9.926
80172SOL    HW242350   2.723  13.349   9.957
80173SOL     OW42351   6.411  14.689  12.158
80173SOL    HW142352   6.466  14.765  12.142
80173SOL    HW242353   6.346  14.690  12.088
80174SOL     OW42354  14.450   9.741   6.065
80174SOL    HW142355  14.449   9.694   5.981
80174SOL    HW242356  14.541   9.769   6.076
80175SOL     OW42357  14.332  10.555  10.786
80175SOL    HW142358  14.257  10.506  10.820
80175SOL    HW242359  14.293  10.622  10.730
80176SOL     OW42360   1.065   0.658   1.746
80176SOL    HW142361   1.042   0.603   1.671
80176SOL    HW242362   1.049   0.748   1.715
80177SOL     OW42363   8.485   0.185   7.109
80177SOL    HW142364   8.456   0.144   7.028
80177SOL    HW242365   8.484   0.114   7.173
80178SOL     OW42366   6.395   8.819  12.208
80178SOL    HW142367   6.372   8.770  12.129
80178SOL    HW242368   6.367   8.909  12.190
80179SOL     OW42369  14.179  13.157   3.125
80179SOL    HW142370  14.264  13.146   3.167
80179SOL    HW242371  14.141  13.234   3.168
80180SOL     OW42372   3.566   4.126  14.633
80180SOL    HW142373   3.489   4.182  14.622
80180SOL    HW242374   3.613   4.133  14.550
80181SOL     OW42375   0.489   0.036   5.028
80181SOL    HW142376   0.567  14.866   4.991
80181SOL    HW242377   0.513   0.128   5.034
80182SOL     OW42378   1.499   1.339   8.143
80182SOL    HW142379   1.421   1.371   8.188
80182SOL    HW242380   1.482   1.358   8.050
80183SOL     OW42381   3.871   3.293   5.992
80183SOL    HW142382   3.819   3.352   6.047
80183SOL    HW242383   3.961   3.309   6.017
80184SOL     OW42384   1.830   8.699   9.576
80184SOL    HW142385   1.788   8.719   9.660
80184SOL    HW242386   1.838   8.604   9.575
80185SOL     OW42387   9.489  12.346   5.044
80185SOL    HW142388   9.408  12.298   5.060
80185SOL    HW242389   9.554  12.278   5.027
80186SOL     OW42390  10.677   4.625   2.632
80186SOL    HW142391  10.709   4.711   2.604
80186SOL    HW242392  10.653   4.637   2.723
80187SOL     OW42393   3.607  11.668  14.431
80187SOL    HW142394   3.665  11.631  14.365
80187SOL    HW242395   3.617  11.610  14.507
80188SOL     OW42396   5.103   4.730   3.639
80188SOL    HW142397   5.089   4.662   3.573
80188SOL    HW242398   5.015   4.757   3.665
80189SOL     OW42399   4.023  14.578  13.075
80189SOL    HW142400   3.939  14.552  13.035
80189SOL    HW242401   4.069  14.623  13.004
80190SOL     OW42402  12.110   9.740   9.371
80190SOL    HW142403  12.017   9.717   9.373
80190SOL    HW242404  12.155   9.656   9.364
80191SOL     OW42405   6.671  11.534   0.457
80191SOL    HW142406   6.618  11.503   0.532
80191SOL    HW242407   6.677  11.628   0.470
80192SOL     OW42408   5.334  13.939   3.778
80192SOL    HW142409   5.375  13.906   3.858
80192SOL    HW242410   5.385  14.016   3.754
80193SOL     OW42411   1.698   9.832   1.731
80193SOL    HW142412   1.704   9.802   1.640
80193SOL    HW242413   1.606   9.817   1.754
80194SOL     OW42414   9.428  13.982  14.479
80194SOL    HW142415   9.354  13.979  14.418
80194SOL    HW242416   9.497  14.027  14.430
80195SOL     OW42417   6.837   8.191  13.203
80195SOL    HW142418   6.881   8.197  13.119
80195SOL    HW242419   6.903   8.217  13.267
80196SOL     OW42420   9.771   7.889   4.193
80196SOL    HW142421   9.792   7.914   4.283
80196SOL    HW242422   9.715   7.812   4.202
80197SOL     OW42423   2.804   6.717   8.496
80197SOL    HW142424   2.740   6.647   8.480
80197SOL    HW242425   2.886   6.671   8.515
80198SOL     OW42426   7.868  10.876  12.671
80198SOL    HW142427   7.829  10.912  12.592
80198SOL    HW242428   7.893  10.952  12.723
80199SOL     OW42429   6.239  12.535   4.053
80199SOL    HW142430   6.161  12.564   4.006
80199SOL    HW242431   6.216  12.543   4.145
80200SOL     OW42432  14.169   1.740   3.913
80200SOL    HW142433  14.098   1.764   3.973
80200SOL    HW242434  14.148   1.784   3.831
80201SOL     OW42435   7.952   8.383   8.806
80201SOL    HW142436   8.001   8.393   8.888
80201SOL    HW242437   7.881   8.322   8.828
80202SOL     OW42438   0.630   8.664   7.308
80202SOL    HW142439   0.601   8.588   7.359
80202SOL    HW242440   0.567   8.670   7.237
80203SOL     OW42441   4.979  11.370  11.385
80203SOL    HW142442   4.970  11.332  11.298
80203SOL    HW242443   4.891  11.403  11.406
80204SOL     OW42444  10.687  13.312   8.001
80204SOL    HW142445  10.606  13.358   8.025
80204SOL    HW242446  10.687  13.233   8.054
80205SOL     OW42447   4.115  11.895   9.728
80205SOL    HW142448   4.130  11.989   9.739
80205SOL    HW242449   4.088  11.885   9.637
80206SOL     OW42450   9.022  12.682  13.229
80206SOL    HW142451   9.061  12.681  13.141
80206SOL    HW242452   9.006  12.775  13.246
80207SOL     OW42453   0.113   0.897   7.568
80207SOL    HW142454   0.044   0.958   7.594
80207SOL    HW242455   0.188   0.954   7.548
80208SOL     OW42456   4.541  10.837   6.349
80208SOL    HW142457   4.614  10.884   6.309
80208SOL    HW242458   4.580  10.794   6.425
80209SOL     OW42459   8.870   0.591  12.910
80209SOL    HW142460   8.933   0.550  12.851
80209SOL    HW242461   8.903   0.680  12.924
80210SOL     OW42462   3.765  14.695   2.721
80210SOL    HW142463   3.763  14.615   2.668
80210SOL    HW242464   3.673  14.722   2.726
80211SOL     OW42465   6.200  13.374   9.051
80211SOL    HW142466   6.204  13.461   9.011
80211SOL    HW242467   6.287  13.337   9.036
80212SOL     OW42468   5.521  11.274   2.387
80212SOL    HW142469   5.542  11.183   2.408
80212SOL    HW242470   5.587  11.300   2.323
80213SOL     OW42471  10.825   1.072   6.647
80213SOL    HW142472  10.841   0.986   6.686
80213SOL    HW242473  10.818   1.054   6.553
80214SOL     OW42474  14.650   5.580   7.483
80214SOL    HW142475  14.691   5.501   7.449
80214SOL    HW242476  14.598   5.551   7.558
80215SOL     OW42477  10.534  13.209   9.343
80215SOL    HW142478  10.476  13.162   9.283
80215SOL    HW242479  10.478  13.274   9.385
80216SOL     OW42480  11.945   3.420   2.795
80216SOL    HW142481  11.986   3.494   2.838
80216SOL    HW242482  11.887   3.459   2.729
80217SOL     OW42483   0.029  12.449   6.990
80217SOL    HW142484   0.047  12.528   6.939
80217SOL    HW242485   0.078  12.380   6.947
80218SOL     OW42486   6.779   7.073   9.865
80218SOL    HW142487   6.860   7.070   9.916
80218SOL    HW242488   6.800   7.026   9.784
80219SOL     OW42489   7.011   1.153   1.134
80219SOL    HW142490   6.960   1.093   1.188
80219SOL    HW242491   7.102   1.125   1.145
80220SOL     OW42492   3.298   9.631   7.052
80220SOL    HW142493   3.280   9.558   6.994
80220SOL    HW242494   3.212   9.667   7.074
80221SOL     OW42495   8.645  11.514   2.315
80221SOL    HW142496   8.718  11.575   2.308
80221SOL    HW242497   8.646  11.466   2.233
80222SOL     OW42498   0.889   2.141   1.028
80222SOL    HW142499   0.939   2.222   1.040
80222SOL    HW242500   0.945   2.074   1.068
80223SOL     OW42501  13.550   3.212   2.388
80223SOL    HW142502  13.597   3.160   2.322
80223SOL    HW242503  13.539   3.152   2.462
80224SOL     OW42504  10.767  11.937  12.243
80224SOL    HW142505  10.675  11.910  12.236
80224SOL    HW242506  10.763  12.030  12.262
80225SOL     OW42507   4.611   3.817  10.556
80225SOL    HW142508   4.583   3.732  10.523
80225SOL    HW242509   4.608   3.875  10.480
80226SOL     OW42510  12.136  11.532   2.407
80226SOL    HW142511  12.154  11.475   2.332
80226SOL    HW242512  12.045  11.513   2.430
80227SOL     OW42513   5.833   6.131   1.838
80227SOL    HW142514   5.869   6.169   1.918
80227SOL    HW242515   5.750   6.177   1.826
80228SOL     OW42516   6.487   5.601   5.917
80228SOL    HW142517   6.518   5.689   5.935
80228SOL    HW242518   6.545   5.568   5.849
80229SOL     OW42519   2.326  12.229  11.049
80229SOL    HW142520   2.276  12.277  11.115
80229SOL    HW242521   2.395  12.289  11.021
80230SOL     OW42522  11.688  14.415   8.741
80230SOL    HW142523  11.679  14.394   8.648
80230SOL    HW242524  11.661  14.336   8.787
80231SOL     OW42525  12.933  11.598  11.053
80231SOL    HW142526  12.954  11.635  10.968
80231SOL    HW242527  12.975  11.656  11.116
80232SOL     OW42528   4.778  13.250   9.371
80232SOL    HW142529   4.685  13.269   9.380
80232SOL    HW242530   4.794  13.256   9.276
80233SOL     OW42531   9.134   6.968   3.982
80233SOL    HW142532   9.113   7.059   4.004
80233SOL    HW242533   9.229   6.962   3.993
80234SOL     OW42534  10.956   8.051   9.673
80234SOL    HW142535  10.884   8.020   9.727
80234SOL    HW242536  10.932   8.028   9.584
80235SOL     OW42537  10.550   0.190   6.534
80235SOL    HW142538  10.583   0.173   6.622
80235SOL    HW242539  10.458   0.165   6.537
80236SOL     OW42540  10.969  12.793   1.155
80236SOL    HW142541  10.986  12.720   1.094
80236SOL    HW242542  10.952  12.868   1.098
80237SOL     OW42543   9.858   2.544   8.924
80237SOL    HW142544   9.909   2.600   8.983
80237SOL    HW242545   9.794   2.604   8.885
80238SOL     OW42546   8.750   7.460  12.390
80238SOL    HW142547   8.702   7.492  12.314
80238SOL    HW242548   8.744   7.530  12.454
80239SOL     OW42549  11.333   9.827   2.430
80239SOL    HW142550  11.250   9.785   2.410
80239SOL    HW242551  11.320   9.919   2.407
80240SOL     OW42552  12.066   0.864   8.741
80240SOL    HW142553  11.981   0.907   8.739
80240SOL    HW242554  12.124   0.925   8.786
80241SOL     OW42555  11.411   0.157  13.276
80241SOL    HW142556  11.374   0.088  13.221
80241SOL    HW242557  11.473   0.112  13.334
80242SOL     OW42558   7.860  12.216   0.195
80242SOL    HW142559   7.818  12.183   0.116
80242SOL    HW242560   7.798  12.195   0.266
80243SOL     OW42561  11.654   3.500  14.781
80243SOL    HW142562  11.722   3.438  14.806
80243SOL    HW242563  11.598   3.506  14.859
80244SOL     OW42564  14.660  12.916   9.190
80244SOL    HW142565  14.702  12.831   9.185
80244SOL    HW242566  14.622  12.930   9.103
80245SOL     OW42567   4.034   1.242   1.721
80245SOL    HW142568   3.997   1.177   1.781
80245SOL    HW242569   4.001   1.217   1.635
80246SOL     OW42570   1.573   7.887   7.945
80246SOL    HW142571   1.660   7.872   7.909
80246SOL    HW242572   1.535   7.799   7.954
80247SOL     OW42573   0.748   7.011   3.241
80247SOL    HW142574   0.760   7.102   3.266
80247SOL    HW242575   0.769   6.961   3.321
80248SOL     OW42576   5.407   3.924   0.900
80248SOL    HW142577   5.403   3.836   0.863
80248SOL    HW242578   5.461   3.914   0.979
80249SOL     OW42579   4.279   2.804  11.959
80249SOL    HW142580   4.372   2.803  11.980
80249SOL    HW242581   4.246   2.884  12.000
80250SOL     OW42582   0.098   5.184   4.477
80250SOL    HW142583   0.110   5.110   4.536
80250SOL    HW242584   0.168   5.245   4.500
80251SOL     OW42585   8.506   0.679   3.894
80251SOL    HW142586   8.541   0.708   3.809
80251SOL    HW242587   8.434   0.620   3.871
80252SOL     OW42588   3.970   8.331  10.269
80252SOL    HW142589   3.959   8.297  10.358
80252SOL    HW242590   4.023   8.410  10.280
80253SOL     OW42591  11.738   8.899   4.007
80253SOL    HW142592  11.734   8.945   4.091
80253SOL    HW242593  11.784   8.817   4.026
80254SOL     OW42594   7.407   5.844   5.526
80254SOL    HW142595   7.429   5.787   5.451
80254SOL    HW242596   7.335   5.898   5.494
80255SOL     OW42597  12.404  13.352   7.645
80255SOL    HW142598  12.409  13.264   7.683
80255SOL    HW242599  12.416  13.411   7.719
80256SOL     OW42600   8.029  14.509   0.172
80256SOL    HW142601   8.122  14.501   0.192
80256SOL    HW242602   8.000  14.418   0.161
80257SOL     OW42603  13.870  12.272   4.421
80257SOL    HW142604  13.811  12.197   4.422
80257SOL    HW242605  13.888  12.287   4.328
80258SOL     OW42606  10.659   0.003   9.284
80258SOL    HW142607  10.632  14.785   9.266
80258SOL    HW242608  10.755  14.873   9.280
80259SOL     OW42609   8.607   6.501   9.950
80259SOL    HW142610   8.536   6.562   9.967
80259SOL    HW242611   8.687   6.553   9.960
80260SOL     OW42612   0.698   7.235  14.720
80260SOL    HW142613   0.780   7.209  14.761
80260SOL    HW242614   0.667   7.308  14.774
80261SOL     OW42615   9.176  14.257  10.702
80261SOL    HW142616   9.118  14.281  10.775
80261SOL    HW242617   9.221  14.178  10.732
80262SOL     OW42618   3.170   3.134   4.956
80262SOL    HW142619   3.241   3.088   4.911
80262SOL    HW242620   3.147   3.206   4.897
80263SOL     OW42621   0.811   2.789   4.634
80263SOL    HW142622   0.740   2.854   4.632
80263SOL    HW242623   0.864   2.813   4.710
80264SOL     OW42624   8.048  10.190  13.161
80264SOL    HW142625   8.057  10.156  13.072
80264SOL    HW242626   8.060  10.284  13.153
80265SOL     OW42627   9.241   0.195  13.308
80265SOL    HW142628   9.266   0.121  13.362
80265SOL    HW242629   9.272   0.272  13.356
80266SOL     OW42630  11.570  14.694   3.261
80266SOL    HW142631  11.567  14.624   3.326
80266SOL    HW242632  11.663  14.713   3.250
80267SOL     OW42633  10.187  14.695  13.845
80267SOL    HW142634  10.181  14.790  13.843
80267SOL    HW242635  10.274  14.676  13.880
80268SOL     OW42636   0.408   2.819   1.877
80268SOL    HW142637   0.328   2.873   1.880
80268SOL    HW242638   0.388   2.744   1.933
80269SOL     OW42639   0.369  13.306   1.343
80269SOL    HW142640   0.382  13.392   1.304
80269SOL    HW242641   0.398  13.244   1.275
80270SOL     OW42642   5.911   5.840   8.008
80270SOL    HW142643   5.969   5.802   7.942
80270SOL    HW242644   5.905   5.773   8.077
80271SOL     OW42645   6.203   4.932   9.480
80271SOL    HW142646   6.292   4.900   9.497
80271SOL    HW242647   6.159   4.859   9.439
80272SOL     OW42648  11.579  14.116   3.246
80272SOL    HW142649  11.553  14.033   3.206
80272SOL    HW242650  11.507  14.137   3.306
80273SOL     OW42651   0.881   0.548   6.666
80273SOL    HW142652   0.931   0.629   6.671
80273SOL    HW242653   0.939   0.487   6.620
80274SOL     OW42654   0.192   5.835   7.061
80274SOL    HW142655   0.140   5.902   7.017
80274SOL    HW242656   0.278   5.876   7.074
80275SOL     OW42657  12.281   0.231   1.156
80275SOL    HW142658  12.237   0.196   1.078
80275SOL    HW242659  12.217   0.291   1.194
80276SOL     OW42660  11.537   9.761   6.570
80276SOL    HW142661  11.517   9.683   6.519
80276SOL    HW242662  11.464   9.821   6.553
80277SOL     OW42663   9.673   1.439   8.948
80277SOL    HW142664   9.580   1.454   8.967
80277SOL    HW242665   9.685   1.345   8.966
80278SOL     OW42666  12.343   0.415   4.180
80278SOL    HW142667  12.260   0.369   4.192
80278SOL    HW242668  12.324   0.505   4.207
80279SOL     OW42669   7.332  12.610  10.848
80279SOL    HW142670   7.422  12.632  10.873
80279SOL    HW242671   7.306  12.682  10.790
80280SOL     OW42672   2.201  12.002  13.468
80280SOL    HW142673   2.257  12.003  13.547
80280SOL    HW242674   2.205  12.092  13.436
80281SOL     OW42675   8.542   4.696  11.884
80281SOL    HW142676   8.501   4.777  11.917
80281SOL    HW242677   8.633   4.720  11.869
80282SOL     OW42678   5.765   1.818   6.839
80282SOL    HW142679   5.723   1.851   6.760
80282SOL    HW242680   5.858   1.838   6.828
80283SOL     OW42681   6.356   4.376  11.021
80283SOL    HW142682   6.327   4.456  11.065
80283SOL    HW242683   6.275   4.337  10.988
80284SOL     OW42684   6.556   9.262   1.817
80284SOL    HW142685   6.588   9.330   1.876
80284SOL    HW242686   6.535   9.188   1.874
80285SOL     OW42687  13.349  11.743   4.946
80285SOL    HW142688  13.355  11.721   4.853
80285SOL    HW242689  13.265  11.708   4.974
80286SOL     OW42690  13.250  14.531   1.446
80286SOL    HW142691  13.311  14.591   1.487
80286SOL    HW242692  13.303  14.479   1.386
80287SOL     OW42693   0.309   6.853   5.744
80287SOL    HW142694   0.284   6.945   5.754
80287SOL    HW242695   0.341   6.827   5.830
80288SOL     OW42696  12.269   7.369   5.577
80288SOL    HW142697  12.179   7.390   5.599
80288SOL    HW242698  12.276   7.275   5.590
80289SOL     OW42699  13.064   9.000   6.810
80289SOL    HW142700  13.047   9.087   6.776
80289SOL    HW242701  13.148   8.975   6.772
80290SOL     OW42702  11.002   8.644   5.654
80290SOL    HW142703  11.054   8.688   5.587
80290SOL    HW242704  10.917   8.629   5.612
80291SOL     OW42705  11.230   4.441  11.903
80291SOL    HW142706  11.279   4.429  11.985
80291SOL    HW242707  11.208   4.534  11.902
80292SOL     OW42708  13.003   5.110   6.301
80292SOL    HW142709  13.028   5.018   6.312
80292SOL    HW242710  12.907   5.110   6.310
80293SOL     OW42711  14.455  12.397   4.029
80293SOL    HW142712  14.513  12.473   4.023
80293SOL    HW242713  14.507  12.330   4.074
80294SOL     OW42714   2.669   3.748  11.528
80294SOL    HW142715   2.728   3.673  11.522
80294SOL    HW242716   2.677   3.792  11.443
80295SOL     OW42717   7.219  13.628   2.516
80295SOL    HW142718   7.241  13.616   2.424
80295SOL    HW242719   7.124  13.628   2.518
80296SOL     OW42720   3.078   8.882  13.200
80296SOL    HW142721   3.051   8.922  13.117
80296SOL    HW242722   3.147   8.941  13.233
80297SOL     OW42723  11.062  10.975   9.693
80297SOL    HW142724  11.018  11.020   9.621
80297SOL    HW242725  11.030  11.018   9.772
80298SOL     OW42726   4.559   3.906  13.947
80298SOL    HW142727   4.474   3.862  13.940
80298SOL    HW242728   4.539   3.999  13.937
80299SOL     OW42729   7.268   1.294   5.464
80299SOL    HW142730   7.185   1.330   5.432
80299SOL    HW242731   7.323   1.370   5.481
80300SOL     OW42732   3.521  14.203   5.861
80300SOL    HW142733   3.508  14.224   5.769
80300SOL    HW242734   3.612  14.224   5.878
80301SOL     OW42735   9.052   4.269   5.674
80301SOL    HW142736   8.982   4.321   5.714
80301SOL    HW242737   9.052   4.294   5.582
80302SOL     OW42738  13.632   7.509   6.061
80302SOL    HW142739  13.657   7.516   6.153
80302SOL    HW242740  13.638   7.415   6.042
80303SOL     OW42741   8.683   3.428   0.519
80303SOL    HW142742   8.609   3.377   0.552
80303SOL    HW242743   8.735   3.366   0.469
80304SOL     OW42744  12.190  12.218   8.129
80304SOL    HW142745  12.190  12.283   8.059
80304SOL    HW242746  12.125  12.249   8.191
80305SOL     OW42747   2.585   8.325  10.291
80305SOL    HW142748   2.513   8.280  10.335
80305SOL    HW242749   2.550   8.347  10.204
80306SOL     OW42750  11.042  12.291  13.162
80306SOL    HW142751  10.961  12.339  13.141
80306SOL    HW242752  11.012  12.208  13.199
80307SOL     OW42753   8.628  13.867   9.269
80307SOL    HW142754   8.542  13.835   9.292
80307SOL    HW242755   8.658  13.808   9.199
80308SOL     OW42756  14.772  14.776   8.801
80308SOL    HW142757  14.714  14.809   8.733
80308SOL    HW242758  14.741  14.818   8.882
80309SOL     OW42759   2.128   7.103   6.609
80309SOL    HW142760   2.107   7.190   6.574
80309SOL    HW242761   2.209   7.078   6.563
80310SOL     OW42762  11.883   9.127   0.287
80310SOL    HW142763  11.887   9.084   0.373
80310SOL    HW242764  11.879   9.055   0.225
80311SOL     OW42765   5.234   7.101   0.115
80311SOL    HW142766   5.167   7.154   0.071
80311SOL    HW242767   5.186   7.026   0.150
80312SOL     OW42768  13.598  12.173   5.813
80312SOL    HW142769  13.657  12.103   5.841
80312SOL    HW242770  13.580  12.153   5.721
80313SOL     OW42771  12.619   5.944   1.727
80313SOL    HW142772  12.622   5.853   1.698
80313SOL    HW242773  12.663   5.992   1.657
80314SOL     OW42774  10.969   3.785  14.866
80314SOL    HW142775  10.956   3.733   0.074
80314SOL    HW242776  10.977   3.719  14.797
80315SOL     OW42777   9.065   8.674  13.603
80315SOL    HW142778   9.078   8.654  13.511
80315SOL    HW242779   8.996   8.614  13.632
80316SOL     OW42780  14.025   1.956   7.580
80316SOL    HW142781  14.091   1.898   7.542
80316SOL    HW242782  14.031   1.941   7.674
80317SOL     OW42783   5.862   9.056   6.228
80317SOL    HW142784   5.840   8.997   6.300
80317SOL    HW242785   5.828   9.013   6.150
80318SOL     OW42786  13.878   8.623   0.886
80318SOL    HW142787  13.915   8.598   0.971
80318SOL    HW242788  13.948   8.674   0.844
80319SOL     OW42789   9.762   9.203   2.498
80319SOL    HW142790   9.697   9.259   2.454
80319SOL    HW242791   9.798   9.149   2.428
80320SOL     OW42792   2.271  10.849  13.238
80320SOL    HW142793   2.294  10.905  13.164
80320SOL    HW242794   2.318  10.767  13.220
80321SOL     OW42795   1.502   6.573  12.811
80321SOL    HW142796   1.567   6.533  12.868
80321SOL    HW242797   1.528   6.665  12.805
80322SOL     OW42798   8.340  11.358   9.502
80322SOL    HW142799   8.315  11.303   9.576
80322SOL    HW242800   8.434  11.372   9.514
80323SOL     OW42801   8.444   3.862   1.524
80323SOL    HW142802   8.404   3.867   1.611
80323SOL    HW242803   8.410   3.780   1.487
80324SOL     OW42804  13.692   0.288   7.801
80324SOL    HW142805  13.640   0.219   7.844
80324SOL    HW242806  13.741   0.329   7.872
80325SOL     OW42807   9.527  10.086   2.855
80325SOL    HW142808   9.435  10.074   2.830
80325SOL    HW242809   9.576  10.059   2.778
80326SOL     OW42810   3.444   8.351   3.788
80326SOL    HW142811   3.495   8.413   3.839
80326SOL    HW242812   3.445   8.386   3.699
80327SOL     OW42813  14.511  11.850   4.332
80327SOL    HW142814  14.557  11.830   4.251
80327SOL    HW242815  14.473  11.766   4.359
80328SOL     OW42816   4.646   6.406   5.980
80328SOL    HW142817   4.645   6.324   5.931
80328SOL    HW242818   4.617   6.382   6.068
80329SOL     OW42819  12.287  14.361   0.913
80329SOL    HW142820  12.332  14.293   0.962
80329SOL    HW242821  12.313  14.347   0.822
80330SOL     OW42822   5.603   0.383  12.414
80330SOL    HW142823   5.517   0.408  12.378
80330SOL    HW242824   5.664   0.398  12.342
80331SOL     OW42825  13.547   8.889   4.102
80331SOL    HW142826  13.459   8.864   4.073
80331SOL    HW242827  13.598   8.808   4.098
80332SOL     OW42828   3.187   1.632   8.973
80332SOL    HW142829   3.238   1.620   9.053
80332SOL    HW242830   3.101   1.662   9.003
80333SOL     OW42831   4.107  10.913   6.039
80333SOL    HW142832   4.096  10.968   6.116
80333SOL    HW242833   4.110  10.824   6.073
80334SOL     OW42834   1.460  14.774   5.136
80334SOL    HW142835   1.444  14.719   5.213
80334SOL    HW242836   1.470  14.863   5.172
80335SOL     OW42837   2.188  14.331   0.337
80335SOL    HW142838   2.223  14.276   0.408
80335SOL    HW242839   2.223  14.291   0.257
80336SOL     OW42840  12.605  14.600   7.185
80336SOL    HW142841  12.560  14.653   7.119
80336SOL    HW242842  12.696  14.630   7.182
80337SOL     OW42843  14.345   4.831   3.869
80337SOL    HW142844  14.323   4.865   3.783
80337SOL    HW242845  14.276   4.768   3.889
80338SOL     OW42846   3.291   3.189   3.033
80338SOL    HW142847   3.210   3.174   2.984
80338SOL    HW242848   3.346   3.241   2.975
80339SOL     OW42849   7.051  13.007  10.691
80339SOL    HW142850   7.063  13.052  10.607
80339SOL    HW242851   7.140  12.988  10.721
80340SOL     OW42852   6.495   3.064   5.869
80340SOL    HW142853   6.549   2.992   5.904
80340SOL    HW242854   6.488   3.126   5.942
80341SOL     OW42855  11.398   5.122   1.119
80341SOL    HW142856  11.413   5.186   1.050
80341SOL    HW242857  11.486   5.101   1.152
80342SOL     OW42858   1.472   8.217   7.002
80342SOL    HW142859   1.419   8.139   6.990
80342SOL    HW242860   1.415   8.279   7.048
80343SOL     OW42861   0.573   5.073   0.687
80343SOL    HW142862   0.525   4.991   0.693
80343SOL    HW242863   0.583   5.103   0.777
80344SOL     OW42864   8.998   8.912   2.414
80344SOL    HW142865   9.013   8.965   2.336
80344SOL    HW242866   8.903   8.914   2.426
80345SOL     OW42867   5.376   7.783  10.367
80345SOL    HW142868   5.338   7.695  10.362
80345SOL    HW242869   5.468   7.769  10.390
80346SOL     OW42870   7.040  10.275   0.692
80346SOL    HW142871   7.114  10.327   0.660
80346SOL    HW242872   7.061  10.257   0.784
80347SOL     OW42873   3.698   9.478   5.018
80347SOL    HW142874   3.611   9.513   5.037
80347SOL    HW242875   3.736   9.539   4.955
80348SOL     OW42876   0.635  14.724  12.596
80348SOL    HW142877   0.613  14.711  12.688
80348SOL    HW242878   0.699  14.656  12.576
80349SOL     OW42879   2.746   2.366   8.569
80349SOL    HW142880   2.746   2.287   8.624
80349SOL    HW242881   2.730   2.438   8.630
80350SOL     OW42882   0.423   6.596  11.271
80350SOL    HW142883   0.454   6.649  11.198
80350SOL    HW242884   0.327   6.597  11.262
80351SOL     OW42885   4.275   4.871   4.109
80351SOL    HW142886   4.348   4.842   4.055
80351SOL    HW242887   4.246   4.793   4.156
80352SOL     OW42888   6.259   8.786   4.111
80352SOL    HW142889   6.245   8.714   4.173
80352SOL    HW242890   6.210   8.761   4.033
80353SOL     OW42891   9.266   4.780   7.042
80353SOL    HW142892   9.307   4.856   7.001
80353SOL    HW242893   9.324   4.757   7.115
80354SOL     OW42894   5.912  12.980   9.984
80354SOL    HW142895   5.907  12.896   9.939
80354SOL    HW242896   5.987  13.024   9.945
80355SOL     OW42897  10.653   8.294   1.558
80355SOL    HW142898  10.623   8.351   1.629
80355SOL    HW242899  10.584   8.229   1.549
80356SOL     OW42900   4.467  11.827   0.435
80356SOL    HW142901   4.456  11.861   0.347
80356SOL    HW242902   4.379  11.800   0.461
80357SOL     OW42903   6.155  12.703   2.886
80357SOL    HW142904   6.178  12.663   2.802
80357SOL    HW242905   6.065  12.676   2.902
80358SOL     OW42906   2.704   4.998   0.769
80358SOL    HW142907   2.769   4.943   0.813
80358SOL    HW242908   2.753   5.075   0.740
80359SOL     OW42909   3.758   5.771   4.778
80359SOL    HW142910   3.756   5.714   4.854
80359SOL    HW242911   3.694   5.733   4.717
80360SOL     OW42912   5.208   7.661   2.383
80360SOL    HW142913   5.191   7.755   2.380
80360SOL    HW242914   5.123   7.622   2.406
80361SOL     OW42915   8.789   9.502  11.153
80361SOL    HW142916   8.739   9.451  11.217
80361SOL    HW242917   8.814   9.581  11.199
80362SOL     OW42918   4.766  11.654   3.951
80362SOL    HW142919   4.777  11.681   3.860
80362SOL    HW242920   4.814  11.571   3.957
80363SOL     OW42921   0.169   0.037   7.875
80363SOL    HW142922   0.243   0.007   7.823
80363SOL    HW242923   0.160   0.129   7.853
80364SOL     OW42924  13.883  11.603  14.184
80364SOL    HW142925  13.844  11.533  14.237
80364SOL    HW242926  13.869  11.682  14.236
80365SOL     OW42927   1.993   2.292  13.435
80365SOL    HW142928   2.020   2.202  13.418
80365SOL    HW242929   1.898   2.292  13.422
80366SOL     OW42930  10.273   3.350   0.073
80366SOL    HW142931  10.341   3.394   0.022
80366SOL    HW242932  10.193   3.362   0.022
80367SOL     OW42933  12.693   7.695   2.149
80367SOL    HW142934  12.600   7.687   2.171
80367SOL    HW242935  12.716   7.785   2.172
80368SOL     OW42936   6.468   2.922  14.211
80368SOL    HW142937   6.481   2.937  14.304
80368SOL    HW242938   6.384   2.877  14.205
80369SOL     OW42939  10.909  13.164   3.367
80369SOL    HW142940  10.964  13.179   3.289
80369SOL    HW242941  10.972  13.156   3.439
80370SOL     OW42942  13.313  12.085   0.122
80370SOL    HW142943  13.331  12.105   0.214
80370SOL    HW242944  13.344  12.163   0.075
80371SOL     OW42945  10.809  14.139   6.917
80371SOL    HW142946  10.827  14.127   7.010
80371SOL    HW242947  10.783  14.052   6.886
80372SOL     OW42948  13.724  10.979  11.683
80372SOL    HW142949  13.660  10.952  11.618
80372SOL    HW242950  13.685  11.055  11.726
80373SOL     OW42951  12.969  12.251   3.790
80373SOL    HW142952  12.899  12.195   3.757
80373SOL    HW242953  12.966  12.329   3.735
80374SOL     OW42954   4.145  13.026   2.866
80374SOL    HW142955   4.239  13.036   2.850
80374SOL    HW242956   4.105  13.097   2.816
80375SOL     OW42957  11.228   3.331  14.490
80375SOL    HW142958  11.270   3.404  14.445
80375SOL    HW242959  11.185   3.282  14.420
80376SOL     OW42960   6.270  14.833  12.520
80376SOL    HW142961   6.336  14.846  12.451
80376SOL    HW242962   6.273  14.740  12.539
80377SOL     OW42963   2.357  13.451  10.330
80377SOL    HW142964   2.388  13.409  10.249
80377SOL    HW242965   2.423  13.518  10.348
80378SOL     OW42966   3.013  13.901   1.939
80378SOL    HW142967   3.089  13.927   1.991
80378SOL    HW242968   2.976  13.826   1.986
80379SOL     OW42969   4.930   8.657  11.625
80379SOL    HW142970   4.851   8.694  11.586
80379SOL    HW242971   4.995   8.726  11.619
80380SOL     OW42972   9.231   5.977   1.646
80380SOL    HW142973   9.302   6.005   1.587
80380SOL    HW242974   9.167   6.048   1.642
80381SOL     OW42975   8.248   2.087   6.313
80381SOL    HW142976   8.203   2.019   6.262
80381SOL    HW242977   8.179   2.127   6.366
80382SOL     OW42978   2.423   2.483   4.113
80382SOL    HW142979   2.397   2.557   4.169
80382SOL    HW242980   2.415   2.406   4.170
80383SOL     OW42981   5.365  13.366   5.143
80383SOL    HW142982   5.371  13.450   5.097
80383SOL    HW242983   5.412  13.304   5.086
80384SOL     OW42984  10.387   9.663  14.426
80384SOL    HW142985  10.467   9.706  14.397
80384SOL    HW242986  10.415   9.573  14.447
80385SOL     OW42987   1.574   2.591   2.962
80385SOL    HW142988   1.528   2.675   2.958
80385SOL    HW242989   1.528   2.535   2.899
80386SOL     OW42990  14.219  10.754   8.121
80386SOL    HW142991  14.311  10.732   8.128
80386SOL    HW242992  14.177  10.676   8.085
80387SOL     OW42993  13.254   5.314   0.046
80387SOL    HW142994  13.311   5.285   0.117
80387SOL    HW242995  13.231   5.234  14.872
80388SOL     OW42996   0.976   4.635   0.680
80388SOL    HW142997   0.912   4.582   0.726
80388SOL    HW242998   0.982   4.595   0.593
80389SOL     OW42999  11.976   1.841   6.043
80389SOL    HW143000  11.942   1.830   6.132
80389SOL    HW243001  11.901   1.825   5.987
80390SOL     OW43002  10.439   8.538  10.097
80390SOL    HW143003  10.452   8.599  10.170
80390SOL    HW243004  10.501   8.568  10.030
80391SOL     OW43005   5.618  12.720  13.023
80391SOL    HW143006   5.591  12.809  13.047
80391SOL    HW243007   5.620  12.673  13.106
80392SOL     OW43008   5.215  10.167   4.742
80392SOL    HW143009   5.137  10.151   4.794
80392SOL    HW243010   5.288  10.141   4.799
80393SOL     OW43011   6.137  11.538   8.771
80393SOL    HW143012   6.049  11.567   8.748
80393SOL    HW243013   6.123  11.452   8.811
80394SOL     OW43014   2.079   6.669   8.211
80394SOL    HW143015   2.133   6.622   8.274
80394SOL    HW243016   2.009   6.608   8.190
80395SOL     OW43017   5.853   7.832   5.172
80395SOL    HW143018   5.806   7.901   5.124
80395SOL    HW243019   5.784   7.778   5.209
80396SOL     OW43020   8.537   9.109  13.129
80396SOL    HW143021   8.515   9.105  13.036
80396SOL    HW243022   8.630   9.088  13.132
80397SOL     OW43023  13.980   4.308   0.541
80397SOL    HW143024  13.913   4.293   0.475
80397SOL    HW243025  14.006   4.221   0.570
80398SOL     OW43026  11.275   7.352   3.597
80398SOL    HW143027  11.233   7.432   3.566
80398SOL    HW243028  11.215   7.318   3.664
80399SOL     OW43029   3.735  14.834   6.172
80399SOL    HW143030   3.734   0.047   6.216
80399SOL    HW243031   3.756  14.855   6.081
80400SOL     OW43032  10.522   4.206  13.360
80400SOL    HW143033  10.494   4.229  13.449
80400SOL    HW243034  10.597   4.263  13.344
80401SOL     OW43035  10.454   5.276   3.285
80401SOL    HW143036  10.518   5.283   3.356
80401SOL    HW243037  10.442   5.182   3.272
80402SOL     OW43038   1.481   8.638   9.909
80402SOL    HW143039   1.485   8.724   9.951
80402SOL    HW243040   1.546   8.643   9.838
80403SOL     OW43041   7.009   6.635  13.862
80403SOL    HW143042   6.979   6.574  13.930
80403SOL    HW243043   6.972   6.720  13.887
80404SOL     OW43044  13.953  14.224   4.521
80404SOL    HW143045  14.035  14.271   4.536
80404SOL    HW243046  13.972  14.134   4.546
80405SOL     OW43047   2.400   0.236  11.711
80405SOL    HW143048   2.320   0.213  11.759
80405SOL    HW243049   2.451   0.156  11.709
80406SOL     OW43050   8.897   0.386   1.351
80406SOL    HW143051   8.863   0.427   1.272
80406SOL    HW243052   8.820   0.350   1.395
80407SOL     OW43053   8.816   7.977   2.466
80407SOL    HW143054   8.865   7.919   2.525
80407SOL    HW243055   8.811   8.060   2.513
80408SOL     OW43056   0.682   5.711   4.217
80408SOL    HW143057   0.692   5.661   4.135
80408SOL    HW243058   0.748   5.780   4.211
80409SOL     OW43059  11.421   6.115   6.351
80409SOL    HW143060  11.455   6.029   6.375
80409SOL    HW243061  11.336   6.121   6.395
80410SOL     OW43062  10.730   8.479   2.976
80410SOL    HW143063  10.646   8.484   3.022
80410SOL    HW243064  10.747   8.385   2.966
80411SOL     OW43065  12.183   6.361  13.980
80411SOL    HW143066  12.257   6.341  14.037
80411SOL    HW243067  12.204   6.317  13.897
80412SOL     OW43068  10.028   2.821   5.321
80412SOL    HW143069   9.937   2.791   5.326
80412SOL    HW243070  10.080   2.741   5.330
80413SOL     OW43071   2.453   7.357   5.174
80413SOL    HW143072   2.401   7.286   5.136
80413SOL    HW243073   2.542   7.341   5.142
80414SOL     OW43074   3.241   7.979   6.444
80414SOL    HW143075   3.162   8.016   6.405
80414SOL    HW243076   3.269   8.045   6.508
80415SOL     OW43077   5.725  12.339   4.171
80415SOL    HW143078   5.765  12.368   4.253
80415SOL    HW243079   5.743  12.409   4.109
80416SOL     OW43080  13.817  10.825   6.429
80416SOL    HW143081  13.862  10.747   6.397
80416SOL    HW243082  13.805  10.879   6.350
80417SOL     OW43083   9.808  13.395  12.584
80417SOL    HW143084   9.754  13.449  12.642
80417SOL    HW243085   9.894  13.436  12.584
80418SOL     OW43086   3.693  13.886   8.420
80418SOL    HW143087   3.616  13.919   8.374
80418SOL    HW243088   3.659  13.816   8.476
80419SOL     OW43089   3.646   4.619   7.553
80419SOL    HW143090   3.711   4.607   7.622
80419SOL    HW243091   3.586   4.685   7.587
80420SOL     OW43092  10.011  12.329  13.565
80420SOL    HW143093  10.049  12.268  13.628
80420SOL    HW243094   9.946  12.378  13.616
80421SOL     OW43095   5.076   4.937  13.246
80421SOL    HW143096   5.127   4.862  13.277
80421SOL    HW243097   5.108   4.952  13.157
80422SOL     OW43098   2.693   1.142   9.227
80422SOL    HW143099   2.677   1.228   9.187
80422SOL    HW243100   2.724   1.163   9.315
80423SOL     OW43101   4.616   1.297   3.788
80423SOL    HW143102   4.604   1.266   3.878
80423SOL    HW243103   4.670   1.230   3.747
80424SOL     OW43104   4.762   3.993   7.253
80424SOL    HW143105   4.761   3.965   7.162
80424SOL    HW243106   4.685   3.951   7.292
80425SOL     OW43107  12.147   6.997   6.933
80425SOL    HW143108  12.128   6.903   6.932
80425SOL    HW243109  12.163   7.019   6.841
80426SOL     OW43110   7.638   5.850  13.716
80426SOL    HW143111   7.718   5.903  13.709
80426SOL    HW243112   7.570   5.912  13.743
80427SOL     OW43113  14.445  12.724   5.137
80427SOL    HW143114  14.400  12.804   5.163
80427SOL    HW243115  14.437  12.720   5.042
80428SOL     OW43116   6.631   5.574   2.824
80428SOL    HW143117   6.636   5.565   2.919
80428SOL    HW243118   6.553   5.627   2.809
80429SOL     OW43119   6.161   5.049   4.819
80429SOL    HW143120   6.112   5.042   4.737
80429SOL    HW243121   6.109   5.109   4.873
80430SOL     OW43122   5.945  13.512   4.236
80430SOL    HW143123   5.965  13.605   4.246
80430SOL    HW243124   5.997  13.484   4.161
80431SOL     OW43125   2.132  11.396   6.367
80431SOL    HW143126   2.163  11.406   6.277
80431SOL    HW243127   2.050  11.446   6.370
80432SOL     OW43128   6.816  10.175   0.985
80432SOL    HW143129   6.827  10.270   0.982
80432SOL    HW243130   6.743  10.157   0.925
80433SOL     OW43131   4.307   1.328  11.289
80433SOL    HW143132   4.367   1.253  11.282
80433SOL    HW243133   4.355   1.400  11.249
80434SOL     OW43134   3.997   8.471   9.468
80434SOL    HW143135   4.045   8.404   9.420
80434SOL    HW243136   3.995   8.546   9.409
80435SOL     OW43137  14.531   1.423  11.627
80435SOL    HW143138  14.457   1.469  11.585
80435SOL    HW243139  14.535   1.461  11.715
80436SOL     OW43140   7.116   9.731   5.301
80436SOL    HW143141   7.025   9.726   5.332
80436SOL    HW243142   7.113   9.694   5.213
80437SOL     OW43143   1.512   6.000  11.647
80437SOL    HW143144   1.441   6.037  11.700
80437SOL    HW243145   1.551   5.932  11.703
80438SOL     OW43146   0.720  10.845  13.670
80438SOL    HW143147   0.706  10.797  13.752
80438SOL    HW243148   0.804  10.814  13.638
80439SOL     OW43149  14.090   7.661   8.454
80439SOL    HW143150  14.174   7.700   8.478
80439SOL    HW243151  14.039   7.663   8.535
80440SOL     OW43152  13.633  12.306   2.462
80440SOL    HW143153  13.671  12.222   2.434
80440SOL    HW243154  13.540  12.287   2.474
80441SOL     OW43155   3.809  13.822  10.259
80441SOL    HW143156   3.776  13.784  10.177
80441SOL    HW243157   3.774  13.912  10.259
80442SOL     OW43158  12.204   2.966   8.479
80442SOL    HW143159  12.222   2.910   8.404
80442SOL    HW243160  12.115   2.943   8.506
80443SOL     OW43161   3.976   7.916  14.586
80443SOL    HW143162   3.931   7.926  14.669
80443SOL    HW243163   4.005   7.825  14.584
80444SOL     OW43164  11.393   1.802   6.078
80444SOL    HW143165  11.398   1.858   6.156
80444SOL    HW243166  11.416   1.860   6.005
80445SOL     OW43167   3.732   5.588   7.674
80445SOL    HW143168   3.725   5.569   7.767
80445SOL    HW243169   3.824   5.571   7.653
80446SOL     OW43170   2.838  13.379   8.055
80446SOL    HW143171   2.780  13.385   7.979
80446SOL    HW243172   2.789  13.419   8.126
80447SOL     OW43173  11.749   4.225  14.187
80447SOL    HW143174  11.759   4.137  14.150
80447SOL    HW243175  11.692   4.212  14.263
80448SOL     OW43176   0.560   9.932  13.254
80448SOL    HW143177   0.520   9.937  13.167
80448SOL    HW243178   0.486   9.939  13.315
80449SOL     OW43179  13.462  13.400   3.697
80449SOL    HW143180  13.506  13.402   3.612
80449SOL    HW243181  13.479  13.312   3.730
80450SOL     OW43182   7.641  10.336   0.709
80450SOL    HW143183   7.698  10.369   0.779
80450SOL    HW243184   7.681  10.254   0.682
80451SOL     OW43185   7.655   7.233   0.747
80451SOL    HW143186   7.669   7.142   0.775
80451SOL    HW243187   7.722   7.283   0.794
80452SOL     OW43188   8.220   8.489   6.980
80452SOL    HW143189   8.170   8.518   7.056
80452SOL    HW243190   8.155   8.445   6.925
80453SOL     OW43191  14.711  14.308   1.917
80453SOL    HW143192  14.796  14.263   1.926
80453SOL    HW243193  14.676  14.274   1.834
80454SOL     OW43194   6.647   5.868  14.220
80454SOL    HW143195   6.552   5.873  14.223
80454SOL    HW243196   6.674   5.868  14.312
80455SOL     OW43197   2.831   8.719   6.971
80455SOL    HW143198   2.847   8.637   7.016
80455SOL    HW243199   2.770   8.697   6.901
80456SOL     OW43200   9.646   9.247   7.786
80456SOL    HW143201   9.712   9.197   7.835
80456SOL    HW243202   9.563   9.205   7.808
80457SOL     OW43203  10.307   7.370  13.916
80457SOL    HW143204  10.245   7.363  13.989
80457SOL    HW243205  10.366   7.441  13.941
80458SOL     OW43206   5.416   1.013  14.311
80458SOL    HW143207   5.454   1.100  14.293
80458SOL    HW243208   5.482   0.951  14.279
80459SOL     OW43209   3.727  11.266  10.203
80459SOL    HW143210   3.697  11.329  10.269
80459SOL    HW243211   3.820  11.285  10.193
80460SOL     OW43212   7.324   6.435  14.573
80460SOL    HW143213   7.317   6.340  14.586
80460SOL    HW243214   7.274   6.472  14.645
80461SOL     OW43215  13.495   5.342  12.374
80461SOL    HW143216  13.552   5.265  12.365
80461SOL    HW243217  13.408   5.310  12.352
80462SOL     OW43218   8.125   4.382   9.397
80462SOL    HW143219   8.162   4.295   9.386
80462SOL    HW243220   8.163   4.414   9.479
80463SOL     OW43221  10.421   6.862  10.781
80463SOL    HW143222  10.348   6.855  10.719
80463SOL    HW243223  10.467   6.942  10.753
80464SOL     OW43224   1.526  11.256   1.640
80464SOL    HW143225   1.534  11.330   1.701
80464SOL    HW243226   1.543  11.179   1.695
80465SOL     OW43227   4.925   6.135  12.103
80465SOL    HW143228   4.989   6.197  12.068
80465SOL    HW243229   4.943   6.053  12.057
80466SOL     OW43230   3.413  11.411   7.720
80466SOL    HW143231   3.474  11.359   7.669
80466SOL    HW243232   3.443  11.501   7.710
80467SOL     OW43233   0.614  12.819   0.025
80467SOL    HW143234   0.695  12.860   0.055
80467SOL    HW243235   0.615  12.829  14.803
80468SOL     OW43236   7.911   0.945   7.737
80468SOL    HW143237   7.970   0.872   7.720
80468SOL    HW243238   7.830   0.920   7.692
80469SOL     OW43239  10.412  10.289   1.371
80469SOL    HW143240  10.397  10.234   1.293
80469SOL    HW243241  10.484  10.246   1.417
80470SOL     OW43242   1.190   6.780   2.249
80470SOL    HW143243   1.142   6.729   2.314
80470SOL    HW243244   1.231   6.715   2.192
80471SOL     OW43245   4.549  12.507   8.836
80471SOL    HW143246   4.512  12.421   8.856
80471SOL    HW243247   4.476  12.567   8.847
80472SOL     OW43248  11.952  12.390   2.242
80472SOL    HW143249  11.999  12.429   2.169
80472SOL    HW243250  12.021  12.366   2.304
80473SOL     OW43251   0.379   5.589  13.111
80473SOL    HW143252   0.317   5.609  13.182
80473SOL    HW243253   0.372   5.494  13.100
80474SOL     OW43254   7.008  11.690  12.715
80474SOL    HW143255   7.058  11.740  12.780
80474SOL    HW243256   7.037  11.724  12.631
80475SOL     OW43257   5.881  14.725  12.568
80475SOL    HW143258   5.951  14.772  12.614
80475SOL    HW243259   5.896  14.633  12.591
80476SOL     OW43260   4.311   5.109  11.380
80476SOL    HW143261   4.282   5.195  11.412
80476SOL    HW243262   4.295   5.049  11.453
80477SOL     OW43263  14.283   0.817   7.135
80477SOL    HW143264  14.289   0.901   7.089
80477SOL    HW243265  14.369   0.807   7.177
80478SOL     OW43266   4.494   0.148  14.211
80478SOL    HW143267   4.409   0.105  14.207
80478SOL    HW243268   4.509   0.180  14.122
80479SOL     OW43269  14.799  11.738   3.762
80479SOL    HW143270  14.734  11.668   3.775
80479SOL    HW243271  14.809  11.778   3.848
80480SOL     OW43272   8.868   6.179   2.025
80480SOL    HW143273   8.949   6.136   2.054
80480SOL    HW243274   8.874   6.181   1.930
80481SOL     OW43275   1.318   3.385   7.817
80481SOL    HW143276   1.380   3.322   7.855
80481SOL    HW243277   1.367   3.466   7.810
80482SOL     OW43278  14.257   2.500  11.468
80482SOL    HW143279  14.249   2.520  11.561
80482SOL    HW243280  14.338   2.544  11.441
80483SOL     OW43281   0.355   1.393   3.748
80483SOL    HW143282   0.393   1.396   3.660
80483SOL    HW243283   0.411   1.451   3.800
80484SOL     OW43284   3.333   6.116   6.306
80484SOL    HW143285   3.343   6.173   6.382
80484SOL    HW243286   3.279   6.165   6.245
80485SOL     OW43287   3.091   5.003   8.502
80485SOL    HW143288   3.140   5.014   8.420
80485SOL    HW243289   3.148   5.042   8.568
80486SOL     OW43290  10.102  13.813   4.737
80486SOL    HW143291  10.105  13.842   4.828
80486SOL    HW243292  10.107  13.893   4.685
80487SOL     OW43293  12.471   2.144   8.704
80487SOL    HW143294  12.562   2.175   8.695
80487SOL    HW243295  12.457   2.088   8.628
80488SOL     OW43296   1.041  13.340  13.277
80488SOL    HW143297   1.055  13.331  13.372
80488SOL    HW243298   1.043  13.435  13.262
80489SOL     OW43299   9.765   0.287   0.204
80489SOL    HW143300   9.756   0.233   0.125
80489SOL    HW243301   9.854   0.321   0.200
80490SOL     OW43302   9.431   5.832   2.304
80490SOL    HW143303   9.511   5.833   2.357
80490SOL    HW243304   9.404   5.923   2.299
80491SOL     OW43305  11.502  14.046   7.574
80491SOL    HW143306  11.425  14.024   7.522
80491SOL    HW243307  11.563  13.975   7.557
80492SOL     OW43308   0.197   4.836   7.988
80492SOL    HW143309   0.155   4.897   8.048
80492SOL    HW243310   0.227   4.891   7.916
80493SOL     OW43311  11.351   1.063  10.413
80493SOL    HW143312  11.352   1.156  10.388
80493SOL    HW243313  11.436   1.048  10.454
80494SOL     OW43314  14.607  10.791  14.447
80494SOL    HW143315  14.620  10.714  14.502
80494SOL    HW243316  14.531  10.835  14.485
80495SOL     OW43317   7.211  11.333  13.399
80495SOL    HW143318   7.172  11.269  13.458
80495SOL    HW243319   7.154  11.410  13.406
80496SOL     OW43320   5.794  12.137   5.809
80496SOL    HW143321   5.822  12.066   5.866
80496SOL    HW243322   5.749  12.198   5.867
80497SOL     OW43323   7.588   9.343   2.052
80497SOL    HW143324   7.628   9.376   2.132
80497SOL    HW243325   7.499   9.319   2.078
80498SOL     OW43326   7.614   1.853   9.248
80498SOL    HW143327   7.626   1.902   9.329
80498SOL    HW243328   7.642   1.913   9.179
80499SOL     OW43329  14.105   1.161   8.672
80499SOL    HW143330  14.014   1.174   8.698
80499SOL    HW243331  14.156   1.205   8.740
80500SOL     OW43332   4.331   9.083  13.111
80500SOL    HW143333   4.403   9.109  13.168
80500SOL    HW243334   4.262   9.055  13.171
80501SOL     OW43335  14.116   5.127  14.748
80501SOL    HW143336  14.097   5.124  14.842
80501SOL    HW243337  14.032   5.149  14.708
80502SOL     OW43338   1.658   3.613  12.992
80502SOL    HW143339   1.567   3.642  12.999
80502SOL    HW243340   1.654   3.529  12.945
80503SOL     OW43341  10.149   8.950  13.470
80503SOL    HW143342  10.107   9.019  13.419
80503SOL    HW243343  10.112   8.869  13.435
80504SOL     OW43344   3.322   7.781   6.624
80504SOL    HW143345   3.256   7.752   6.686
80504SOL    HW243346   3.289   7.865   6.592
80505SOL     OW43347  13.608  14.852   1.838
80505SOL    HW143348  13.670  14.816   1.774
80505SOL    HW243349  13.649  14.835   1.923
80506SOL     OW43350   1.254   8.504  13.007
80506SOL    HW143351   1.207   8.474  12.930
80506SOL    HW243352   1.196   8.486  13.080
80507SOL     OW43353  13.067  11.209   7.464
80507SOL    HW143354  13.039  11.118   7.466
80507SOL    HW243355  12.987  11.258   7.446
80508SOL     OW43356   0.283   8.409   8.374
80508SOL    HW143357   0.335   8.333   8.349
80508SOL    HW243358   0.328   8.484   8.334
80509SOL     OW43359   0.890   5.167  11.489
80509SOL    HW143360   0.984   5.161  11.474
80509SOL    HW243361   0.877   5.255  11.525
80510SOL     OW43362   1.350   1.200   4.382
80510SOL    HW143363   1.284   1.270   4.386
80510SOL    HW243364   1.433   1.245   4.400
80511SOL     OW43365   1.598  10.098   1.652
80511SOL    HW143366   1.654  10.025   1.677
80511SOL    HW243367   1.553  10.067   1.573
80512SOL     OW43368   9.330   0.170  13.949
80512SOL    HW143369   9.353   0.080  13.973
80512SOL    HW243370   9.255   0.191  14.004
80513SOL     OW43371   6.119   9.409  10.012
80513SOL    HW143372   6.094   9.437   9.924
80513SOL    HW243373   6.189   9.469  10.037
80514SOL     OW43374  10.215   7.932   9.098
80514SOL    HW143375  10.281   7.867   9.074
80514SOL    HW243376  10.165   7.946   9.017
80515SOL     OW43377   6.245   3.592   7.563
80515SOL    HW143378   6.225   3.501   7.540
80515SOL    HW243379   6.254   3.591   7.659
80516SOL     OW43380   0.970  12.261  11.163
80516SOL    HW143381   0.980  12.349  11.128
80516SOL    HW243382   0.997  12.267  11.254
80517SOL     OW43383   3.975   0.292  11.186
80517SOL    HW143384   3.982   0.263  11.277
80517SOL    HW243385   3.950   0.213  11.138
80518SOL     OW43386   9.323  12.854  11.094
80518SOL    HW143387   9.337  12.823  11.005
80518SOL    HW243388   9.233  12.885  11.095
80519SOL     OW43389   3.373   9.775  13.204
80519SOL    HW143390   3.349   9.693  13.162
80519SOL    HW243391   3.322   9.841  13.156
80520SOL     OW43392   6.730   4.356  14.160
80520SOL    HW143393   6.646   4.310  14.159
80520SOL    HW243394   6.795   4.286  14.166
80521SOL     OW43395  11.752   5.018   5.994
80521SOL    HW143396  11.794   4.994   6.077
80521SOL    HW243397  11.735   4.934   5.952
80522SOL     OW43398   4.425   7.419   9.171
80522SOL    HW143399   4.479   7.343   9.196
80522SOL    HW243400   4.336   7.394   9.197
80523SOL     OW43401  11.844   7.826   8.804
80523SOL    HW143402  11.784   7.859   8.871
80523SOL    HW243403  11.816   7.870   8.723
80524SOL     OW43404   3.260   2.706   0.789
80524SOL    HW143405   3.228   2.735   0.703
80524SOL    HW243406   3.347   2.744   0.796
80525SOL     OW43407   5.767  13.705   2.466
80525SOL    HW143408   5.698  13.741   2.411
80525SOL    HW243409   5.848  13.740   2.429
80526SOL     OW43410   3.708   1.451  14.244
80526SOL    HW143411   3.738   1.481  14.158
80526SOL    HW243412   3.613   1.444  14.236
80527SOL     OW43413  14.632   5.594  10.683
80527SOL    HW143414  14.699   5.630  10.624
80527SOL    HW243415  14.549   5.624  10.646
80528SOL     OW43416   5.698   1.936  13.216
80528SOL    HW143417   5.716   1.883  13.138
80528SOL    HW243418   5.718   1.877  13.289
80529SOL     OW43419   4.444   8.905   3.189
80529SOL    HW143420   4.386   8.928   3.116
80529SOL    HW243421   4.463   8.813   3.176
80530SOL     OW43422   4.754  12.396  12.829
80530SOL    HW143423   4.778  12.368  12.741
80530SOL    HW243424   4.816  12.352  12.887
80531SOL     OW43425   1.232   1.243  13.068
80531SOL    HW143426   1.291   1.262  13.140
80531SOL    HW243427   1.244   1.316  13.007
80532SOL     OW43428   6.811   7.013  12.870
80532SOL    HW143429   6.755   7.088  12.848
80532SOL    HW243430   6.878   7.013  12.802
80533SOL     OW43431  11.572   3.062   3.925
80533SOL    HW143432  11.479   3.084   3.923
80533SOL    HW243433  11.588   3.031   4.014
80534SOL     OW43434   9.369   8.729   7.302
80534SOL    HW143435   9.453   8.765   7.273
80534SOL    HW243436   9.345   8.781   7.378
80535SOL     OW43437   1.890   8.599   1.799
80535SOL    HW143438   1.812   8.615   1.745
80535SOL    HW243439   1.872   8.517   1.844
80536SOL     OW43440  14.410  14.603  14.567
80536SOL    HW143441  14.371  14.624  14.482
80536SOL    HW243442  14.335  14.591  14.625
80537SOL     OW43443  14.682  14.440  12.932
80537SOL    HW143444  14.700  14.436  12.838
80537SOL    HW243445  14.693  14.532  12.955
80538SOL     OW43446   7.465  13.838  14.200
80538SOL    HW143447   7.545  13.891  14.200
80538SOL    HW243448   7.485  13.765  14.258
80539SOL     OW43449   2.715   6.236   0.920
80539SOL    HW143450   2.646   6.250   0.855
80539SOL    HW243451   2.669   6.233   1.003
80540SOL     OW43452   6.819  10.951   2.897
80540SOL    HW143453   6.903  10.995   2.889
80540SOL    HW243454   6.831  10.891   2.971
80541SOL     OW43455   4.845  12.635   1.158
80541SOL    HW143456   4.813  12.720   1.190
80541SOL    HW243457   4.844  12.578   1.235
80542SOL     OW43458  13.148  13.415  11.165
80542SOL    HW143459  13.211  13.344  11.173
80542SOL    HW243460  13.136  13.447  11.255
80543SOL     OW43461   3.372  14.813   0.495
80543SOL    HW143462   3.291  14.820   0.545
80543SOL    HW243463   3.379  14.720   0.472
80544SOL     OW43464  11.883   4.198   4.710
80544SOL    HW143465  11.894   4.197   4.615
80544SOL    HW243466  11.834   4.279   4.727
80545SOL     OW43467   2.388  11.127   8.832
80545SOL    HW143468   2.325  11.193   8.862
80545SOL    HW243469   2.371  11.119   8.738
80546SOL     OW43470   9.133  10.038   6.200
80546SOL    HW143471   9.120  10.090   6.121
80546SOL    HW243472   9.088   9.955   6.182
80547SOL     OW43473   0.613  10.536   6.903
80547SOL    HW143474   0.559  10.564   6.830
80547SOL    HW243475   0.701  10.526   6.866
80548SOL     OW43476   0.592   6.275   7.840
80548SOL    HW143477   0.617   6.237   7.924
80548SOL    HW243478   0.667   6.328   7.814
80549SOL     OW43479  11.113   3.171  14.317
80549SOL    HW143480  11.150   3.083  14.309
80549SOL    HW243481  11.022   3.161  14.290
80550SOL     OW43482  13.907  11.343   9.379
80550SOL    HW143483  13.844  11.276   9.353
80550SOL    HW243484  13.883  11.364   9.469
80551SOL     OW43485   7.515   2.484   3.334
80551SOL    HW143486   7.570   2.405   3.334
80551SOL    HW243487   7.568   2.550   3.289
80552SOL     OW43488   3.614  12.888  14.151
80552SOL    HW143489   3.656  12.972  14.133
80552SOL    HW243490   3.524  12.911  14.175
80553SOL     OW43491  13.270   4.786   8.935
80553SOL    HW143492  13.329   4.719   8.902
80553SOL    HW243493  13.224   4.819   8.857
80554SOL     OW43494  11.856   3.970   7.865
80554SOL    HW143495  11.920   4.038   7.844
80554SOL    HW243496  11.814   3.950   7.781
80555SOL     OW43497   3.469   9.757  12.683
80555SOL    HW143498   3.437   9.844  12.706
80555SOL    HW243499   3.564   9.764  12.687
80556SOL     OW43500   4.611   9.300   3.601
80556SOL    HW143501   4.671   9.349   3.544
80556SOL    HW243502   4.657   9.218   3.620
80557SOL     OW43503   2.897   8.790   3.963
80557SOL    HW143504   2.962   8.762   3.898
80557SOL    HW243505   2.921   8.880   3.984
80558SOL     OW43506   3.130  12.084   5.118
80558SOL    HW143507   3.111  12.161   5.172
80558SOL    HW243508   3.079  12.098   5.038
80559SOL     OW43509   8.699   5.486   5.920
80559SOL    HW143510   8.634   5.515   5.984
80559SOL    HW243511   8.699   5.390   5.929
80560SOL     OW43512   3.876  13.632   1.080
80560SOL    HW143513   3.941  13.614   1.148
80560SOL    HW243514   3.856  13.546   1.044
80561SOL     OW43515  13.740  11.694  10.470
80561SOL    HW143516  13.649  11.682  10.445
80561SOL    HW243517  13.739  11.694  10.565
80562SOL     OW43518   5.658   7.337  11.658
80562SOL    HW143519   5.563   7.340  11.643
80562SOL    HW243520   5.696   7.385  11.585
80563SOL     OW43521   6.158   3.870   6.127
80563SOL    HW143522   6.177   3.933   6.058
80563SOL    HW243523   6.156   3.922   6.207
80564SOL     OW43524  14.748   6.607   1.391
80564SOL    HW143525  14.679   6.582   1.452
80564SOL    HW243526  14.783   6.689   1.427
80565SOL     OW43527   0.362   7.017   8.857
80565SOL    HW143528   0.372   6.952   8.926
80565SOL    HW243529   0.395   7.098   8.895
80566SOL     OW43530  12.978   2.031  12.071
80566SOL    HW143531  12.909   2.004  12.011
80566SOL    HW243532  12.932   2.062  12.149
80567SOL     OW43533  13.730   7.850   3.999
80567SOL    HW143534  13.761   7.813   3.916
80567SOL    HW243535  13.781   7.805   4.066
80568SOL     OW43536   7.039   9.779   8.413
80568SOL    HW143537   7.093   9.722   8.359
80568SOL    HW243538   7.046   9.865   8.373
80569SOL     OW43539  11.868   2.222  14.134
80569SOL    HW143540  11.877   2.151  14.198
80569SOL    HW243541  11.933   2.203  14.067
80570SOL     OW43542   7.659   0.351   4.467
80570SOL    HW143543   7.662   0.445   4.450
80570SOL    HW243544   7.599   0.317   4.401
80571SOL     OW43545  12.753  12.849   4.103
80571SOL    HW143546  12.659  12.834   4.103
80571SOL    HW243547  12.764  12.937   4.067
80572SOL     OW43548   1.915   5.176   9.972
80572SOL    HW143549   1.921   5.081   9.963
80572SOL    HW243550   1.879   5.206   9.889
80573SOL     OW43551  13.525  12.447   8.707
80573SOL    HW143552  13.455  12.509   8.683
80573SOL    HW243553  13.503  12.420   8.796
80574SOL     OW43554  10.044   2.325   6.481
80574SOL    HW143555   9.982   2.349   6.411
80574SOL    HW243556  10.085   2.245   6.448
80575SOL     OW43557   8.788  10.080   5.142
80575SOL    HW143558   8.862  10.118   5.189
80575SOL    HW243559   8.714  10.138   5.163
80576SOL     OW43560  14.471  14.062  12.502
80576SOL    HW143561  14.443  13.970  12.498
80576SOL    HW243562  14.524  14.067  12.582
80577SOL     OW43563   9.291   9.711  12.257
80577SOL    HW143564   9.239   9.632  12.274
80577SOL    HW243565   9.377   9.678  12.231
80578SOL     OW43566  10.962   0.373  10.683
80578SOL    HW143567  11.025   0.306  10.709
80578SOL    HW243568  10.971   0.442  10.748
80579SOL     OW43569   6.651  10.317  10.394
80579SOL    HW143570   6.556  10.315  10.407
80579SOL    HW243571   6.663  10.297  10.301
80580SOL     OW43572   4.654  10.474   8.260
80580SOL    HW143573   4.676  10.380   8.262
80580SOL    HW243574   4.559  10.476   8.260
80581SOL     OW43575   8.986   4.794   0.954
80581SOL    HW143576   9.037   4.770   0.876
80581SOL    HW243577   8.942   4.713   0.980
80582SOL     OW43578   0.208   2.725   3.798
80582SOL    HW143579   0.130   2.670   3.790
80582SOL    HW243580   0.182   2.809   3.759
80583SOL     OW43581  12.901   2.549  11.111
80583SOL    HW143582  12.841   2.595  11.170
80583SOL    HW243583  12.954   2.619  11.072
80584SOL     OW43584   8.410   4.710  13.392
80584SOL    HW143585   8.437   4.774  13.327
80584SOL    HW243586   8.333   4.667  13.353
80585SOL     OW43587   0.215  13.525  14.350
80585SOL    HW143588   0.200  13.587  14.422
80585SOL    HW243589   0.240  13.579  14.276
80586SOL     OW43590  12.111  14.502   1.288
80586SOL    HW143591  12.035  14.455   1.324
80586SOL    HW243592  12.094  14.594   1.311
80587SOL     OW43593  12.706  13.054   5.936
80587SOL    HW143594  12.701  13.083   5.845
80587SOL    HW243595  12.761  12.975   5.933
80588SOL     OW43596   5.274   2.798   9.331
80588SOL    HW143597   5.307   2.858   9.265
80588SOL    HW243598   5.272   2.713   9.287
80589SOL     OW43599  10.251   6.323  14.119
80589SOL    HW143600  10.242   6.397  14.059
80589SOL    HW243601  10.333   6.338  14.165
80590SOL     OW43602   8.665   4.323  11.051
80590SOL    HW143603   8.669   4.266  10.974
80590SOL    HW243604   8.631   4.267  11.121
80591SOL     OW43605   0.942   6.541   5.857
80591SOL    HW143606   1.035   6.555   5.839
80591SOL    HW243607   0.908   6.629   5.876
80592SOL     OW43608   4.089   4.026  12.735
80592SOL    HW143609   4.140   3.945  12.743
80592SOL    HW243610   4.039   4.016  12.654
80593SOL     OW43611   1.495  11.641   4.783
80593SOL    HW143612   1.434  11.651   4.710
80593SOL    HW243613   1.439  11.640   4.861
80594SOL     OW43614   2.253  11.053  11.272
80594SOL    HW143615   2.278  11.131  11.223
80594SOL    HW243616   2.335  11.023  11.311
80595SOL     OW43617   4.163  10.678   2.553
80595SOL    HW143618   4.103  10.656   2.482
80595SOL    HW243619   4.105  10.703   2.625
80596SOL     OW43620   6.686   7.140   1.428
80596SOL    HW143621   6.732   7.190   1.360
80596SOL    HW243622   6.635   7.075   1.379
80597SOL     OW43623  10.556   9.265   5.712
80597SOL    HW143624  10.481   9.227   5.666
80597SOL    HW243625  10.532   9.260   5.805
80598SOL     OW43626   6.890  10.197   9.485
80598SOL    HW143627   6.809  10.193   9.536
80598SOL    HW243628   6.956  10.157   9.542
80599SOL     OW43629   0.188   7.337  11.174
80599SOL    HW143630   0.158   7.393  11.102
80599SOL    HW243631   0.222   7.258  11.131
80600SOL     OW43632  12.675   9.527   6.995
80600SOL    HW143633  12.639   9.607   6.957
80600SOL    HW243634  12.601   9.488   7.043
80601SOL     OW43635   1.556  14.498   0.608
80601SOL    HW143636   1.594  14.560   0.547
80601SOL    HW243637   1.630  14.446   0.639
80602SOL     OW43638   1.943   9.383   9.073
80602SOL    HW143639   1.976   9.347   9.156
80602SOL    HW243640   2.001   9.346   9.007
80603SOL     OW43641   2.613   1.845  14.677
80603SOL    HW143642   2.591   1.771  14.620
80603SOL    HW243643   2.573   1.824  14.761
80604SOL     OW43644   9.769   2.173  10.196
80604SOL    HW143645   9.692   2.131  10.234
80604SOL    HW243646   9.741   2.198  10.108
80605SOL     OW43647   4.493   4.418   3.017
80605SOL    HW143648   4.488   4.504   3.057
80605SOL    HW243649   4.531   4.433   2.931
80606SOL     OW43650   7.756   1.458   7.812
80606SOL    HW143651   7.730   1.513   7.886
80606SOL    HW243652   7.786   1.376   7.853
80607SOL     OW43653   6.977  13.846   5.243
80607SOL    HW143654   6.931  13.886   5.318
80607SOL    HW243655   6.925  13.871   5.167
80608SOL     OW43656   0.059   3.281   1.354
80608SOL    HW143657   0.095   3.347   1.413
80608SOL    HW243658   0.121   3.208   1.359
80609SOL     OW43659  12.006   2.626   8.428
80609SOL    HW143660  11.991   2.689   8.499
80609SOL    HW243661  12.100   2.612   8.427
80610SOL     OW43662   9.520   6.012  13.904
80610SOL    HW143663   9.533   5.917  13.908
80610SOL    HW243664   9.579   6.047  13.970
80611SOL     OW43665   3.238   2.455   9.180
80611SOL    HW143666   3.187   2.377   9.207
80611SOL    HW243667   3.223   2.518   9.251
80612SOL     OW43668   1.414   9.087  12.835
80612SOL    HW143669   1.464   9.148  12.780
80612SOL    HW243670   1.324   9.097  12.805
80613SOL     OW43671   7.592   9.525   4.414
80613SOL    HW143672   7.585   9.576   4.333
80613SOL    HW243673   7.686   9.519   4.430
80614SOL     OW43674   1.233  13.538   3.494
80614SOL    HW143675   1.315  13.585   3.480
80614SOL    HW243676   1.170  13.605   3.521
80615SOL     OW43677  14.639   8.815  12.358
80615SOL    HW143678  14.589   8.872  12.417
80615SOL    HW243679  14.711   8.782  12.411
80616SOL     OW43680   9.414   1.724   0.365
80616SOL    HW143681   9.358   1.732   0.443
80616SOL    HW243682   9.503   1.733   0.399
80617SOL     OW43683   8.356  12.559  13.629
80617SOL    HW143684   8.331  12.629  13.568
80617SOL    HW243685   8.296  12.569  13.703
80618SOL     OW43686   2.320  12.301  12.171
80618SOL    HW143687   2.386  12.305  12.240
80618SOL    HW243688   2.327  12.212  12.135
80619SOL     OW43689   6.169   4.043   6.360
80619SOL    HW143690   6.165   4.018   6.453
80619SOL    HW243691   6.171   4.139   6.361
80620SOL     OW43692   7.646  10.490   8.412
80620SOL    HW143693   7.659  10.410   8.462
80620SOL    HW243694   7.733  10.530   8.407
80621SOL     OW43695  12.741   9.298   0.665
80621SOL    HW143696  12.821   9.305   0.613
80621SOL    HW243697  12.759   9.347   0.745
80622SOL     OW43698   1.094  14.366  11.382
80622SOL    HW143699   1.170  14.359  11.439
80622SOL    HW243700   1.020  14.374  11.442
80623SOL     OW43701  11.973   1.539  11.353
80623SOL    HW143702  11.915   1.498  11.289
80623SOL    HW243703  11.988   1.471  11.419
80624SOL     OW43704   9.376   1.918   8.417
80624SOL    HW143705   9.421   1.972   8.482
80624SOL    HW243706   9.420   1.937   8.334
80625SOL     OW43707   2.519   6.130   2.101
80625SOL    HW143708   2.506   6.172   2.186
80625SOL    HW243709   2.487   6.040   2.113
80626SOL     OW43710   9.163  10.255   9.841
80626SOL    HW143711   9.161  10.205   9.923
80626SOL    HW243712   9.073  10.283   9.827
80627SOL     OW43713   1.195  12.090   6.416
80627SOL    HW143714   1.163  12.001   6.425
80627SOL    HW243715   1.123  12.138   6.374
80628SOL     OW43716   0.002  14.635   5.224
80628SOL    HW143717   0.043  14.656   5.141
80628SOL    HW243718  14.840  14.547   5.212
80629SOL     OW43719   8.252   5.411   1.643
80629SOL    HW143720   8.170   5.432   1.598
80629SOL    HW243721   8.280   5.329   1.604
80630SOL     OW43722   5.226   6.080  11.538
80630SOL    HW143723   5.271   6.117  11.462
80630SOL    HW243724   5.203   6.156  11.591
80631SOL     OW43725   3.931   9.988  11.471
80631SOL    HW143726   3.973  10.029  11.395
80631SOL    HW243727   3.869  10.053  11.502
80632SOL     OW43728  12.569  10.610   8.881
80632SOL    HW143729  12.653  10.586   8.842
80632SOL    HW243730  12.548  10.538   8.940
80633SOL     OW43731   8.470  13.117   0.674
80633SOL    HW143732   8.534  13.084   0.737
80633SOL    HW243733   8.440  13.200   0.711
80634SOL     OW43734  13.124   1.640  11.626
80634SOL    HW143735  13.049   1.581  11.613
80634SOL    HW243736  13.195   1.582  11.654
80635SOL     OW43737  12.456   9.812   6.310
80635SOL    HW143738  12.544   9.809   6.272
80635SOL    HW243739  12.408   9.745   6.262
80636SOL     OW43740  14.632   3.543  11.199
80636SOL    HW143741  14.547   3.568  11.165
80636SOL    HW243742  14.670   3.486  11.132
80637SOL     OW43743   2.084   2.031   4.492
80637SOL    HW143744   2.126   2.110   4.526
80637SOL    HW243745   2.021   2.062   4.427
80638SOL     OW43746   9.050   4.997   4.091
80638SOL    HW143747   9.018   4.945   4.017
80638SOL    HW243748   8.989   5.071   4.097
80639SOL     OW43749  10.648  12.415  12.628
80639SOL    HW143750  10.615  12.361  12.700
80639SOL    HW243751  10.619  12.504  12.649
80640SOL     OW43752   1.252   9.590  13.909
80640SOL    HW143753   1.278   9.668  13.959
80640SOL    HW243754   1.317   9.524  13.932
80641SOL     OW43755  11.743   6.040   6.380
80641SOL    HW143756  11.721   6.123   6.421
80641SOL    HW243757  11.661   5.990   6.382
80642SOL     OW43758   6.402   5.049   1.760
80642SOL    HW143759   6.410   5.115   1.691
80642SOL    HW243760   6.413   5.098   1.842
80643SOL     OW43761   1.735   6.398   9.162
80643SOL    HW143762   1.701   6.309   9.173
80643SOL    HW243763   1.829   6.390   9.179
80644SOL     OW43764   5.153  10.755  13.412
80644SOL    HW143765   5.179  10.846  13.421
80644SOL    HW243766   5.161  10.718  13.500
80645SOL     OW43767   1.597   9.467   1.615
80645SOL    HW143768   1.517   9.515   1.636
80645SOL    HW243769   1.665   9.535   1.613
80646SOL     OW43770  10.439   3.706  13.645
80646SOL    HW143771  10.366   3.664  13.690
80646SOL    HW243772  10.515   3.688  13.700
80647SOL     OW43773   4.613  14.590   8.685
80647SOL    HW143774   4.554  14.616   8.615
80647SOL    HW243775   4.627  14.497   8.672
80648SOL     OW43776   0.167   4.711  11.318
80648SOL    HW143777   0.176   4.616  11.308
80648SOL    HW243778   0.249   4.739  11.358
80649SOL     OW43779  11.822  11.885  13.607
80649SOL    HW143780  11.852  11.917  13.522
80649SOL    HW243781  11.888  11.822  13.635
80650SOL     OW43782  12.903   8.781   9.847
80650SOL    HW143783  12.862   8.865   9.863
80650SOL    HW243784  12.996   8.801   9.834
80651SOL     OW43785  12.632   9.199   4.385
80651SOL    HW143786  12.668   9.130   4.330
80651SOL    HW243787  12.709   9.240   4.425
80652SOL     OW43788  14.514  13.018   3.880
80652SOL    HW143789  14.453  12.944   3.889
80652SOL    HW243790  14.588  12.994   3.936
80653SOL     OW43791   0.090   9.792   7.049
80653SOL    HW143792   0.118   9.862   6.990
80653SOL    HW243793   0.166   9.734   7.055
80654SOL     OW43794   2.865   7.614   1.704
80654SOL    HW143795   2.830   7.527   1.721
80654SOL    HW243796   2.890   7.612   1.611
80655SOL     OW43797  13.722   4.151   6.605
80655SOL    HW143798  13.766   4.145   6.690
80655SOL    HW243799  13.715   4.244   6.588
80656SOL     OW43800  12.481  14.263   9.231
80656SOL    HW143801  12.543  14.193   9.252
80656SOL    HW243802  12.520  14.342   9.269
80657SOL     OW43803   2.714   4.095   1.043
80657SOL    HW143804   2.637   4.061   0.997
80657SOL    HW243805   2.679   4.154   1.109
80658SOL     OW43806   5.563   8.256   9.745
80658SOL    HW143807   5.588   8.184   9.802
80658SOL    HW243808   5.489   8.223   9.695
80659SOL     OW43809   6.218   3.193   4.941
80659SOL    HW143810   6.212   3.273   4.994
80659SOL    HW243811   6.292   3.145   4.977
80660SOL     OW43812  14.070   6.382   8.491
80660SOL    HW143813  14.017   6.458   8.465
80660SOL    HW243814  14.144   6.383   8.432
80661SOL     OW43815   5.279   2.696   4.705
80661SOL    HW143816   5.236   2.782   4.708
80661SOL    HW243817   5.241   2.653   4.629
80662SOL     OW43818   8.160   2.642   6.028
80662SOL    HW143819   8.181   2.735   6.036
80662SOL    HW243820   8.183   2.605   6.114
80663SOL     OW43821   4.960   9.398  10.636
80663SOL    HW143822   5.012   9.472  10.606
80663SOL    HW243823   4.907   9.373  10.560
80664SOL     OW43824   5.978   6.619   6.221
80664SOL    HW143825   6.017   6.546   6.270
80664SOL    HW243826   5.887   6.622   6.250
80665SOL     OW43827   1.053  13.537  13.870
80665SOL    HW143828   1.112  13.534  13.795
80665SOL    HW243829   0.983  13.476  13.846
80666SOL     OW43830   1.672  13.124   3.095
80666SOL    HW143831   1.588  13.169   3.103
80666SOL    HW243832   1.653  13.033   3.118
80667SOL     OW43833  10.000  12.732   9.360
80667SOL    HW143834  10.044  12.697   9.283
80667SOL    HW243835  10.043  12.816   9.376
80668SOL     OW43836  10.303   3.079  11.631
80668SOL    HW143837  10.230   3.035  11.674
80668SOL    HW243838  10.272   3.096  11.542
80669SOL     OW43839   9.814   8.681   5.996
80669SOL    HW143840   9.753   8.608   5.988
80669SOL    HW243841   9.839   8.702   5.906
80670SOL     OW43842   1.459   4.231   3.265
80670SOL    HW143843   1.537   4.264   3.221
80670SOL    HW243844   1.419   4.172   3.202
80671SOL     OW43845   7.075  12.705  13.545
80671SOL    HW143846   7.090  12.781  13.489
80671SOL    HW243847   6.980  12.702  13.557
80672SOL     OW43848   1.949   5.952   9.196
80672SOL    HW143849   2.018   5.967   9.132
80672SOL    HW243850   1.982   5.880   9.250
80673SOL     OW43851   9.335  10.378   8.458
80673SOL    HW143852   9.400  10.316   8.422
80673SOL    HW243853   9.382  10.461   8.463
80674SOL     OW43854  13.930  12.508   9.126
80674SOL    HW143855  13.878  12.428   9.136
80674SOL    HW243856  13.877  12.576   9.168
80675SOL     OW43857   4.834   4.719   3.634
80675SOL    HW143858   4.782   4.788   3.675
80675SOL    HW243859   4.772   4.673   3.577
80676SOL     OW43860   1.441  11.966   5.328
80676SOL    HW143861   1.525  11.920   5.337
80676SOL    HW243862   1.464  12.049   5.287
80677SOL     OW43863  14.019  13.920  14.323
80677SOL    HW143864  13.949  13.860  14.347
80677SOL    HW243865  13.973  13.999  14.294
80678SOL     OW43866   7.257   9.139   9.199
80678SOL    HW143867   7.316   9.136   9.123
80678SOL    HW243868   7.169   9.136   9.161
80679SOL     OW43869   2.956   0.602  10.777
80679SOL    HW143870   2.911   0.544  10.839
80679SOL    HW243871   2.885   0.647  10.731
80680SOL     OW43872  14.324   5.513  10.885
80680SOL    HW143873  14.251   5.570  10.909
80680SOL    HW243874  14.328   5.518  10.789
80681SOL     OW43875  11.298  11.933  12.538
80681SOL    HW143876  11.332  11.875  12.606
80681SOL    HW243877  11.218  11.970  12.575
80682SOL     OW43878   2.645  13.517   8.773
80682SOL    HW143879   2.646  13.608   8.802
80682SOL    HW243880   2.573  13.512   8.710
80683SOL     OW43881  11.672   3.816   0.820
80683SOL    HW143882  11.628   3.901   0.819
80683SOL    HW243883  11.701   3.806   0.910
80684SOL     OW43884  14.862  12.625  13.786
80684SOL    HW143885  14.794  12.635  13.719
80684SOL    HW243886   0.028  12.539  13.768
80685SOL     OW43887  11.164  12.384   6.245
80685SOL    HW143888  11.091  12.357   6.189
80685SOL    HW243889  11.220  12.307   6.252
80686SOL     OW43890   8.543   3.968  14.291
80686SOL    HW143891   8.546   3.990  14.197
80686SOL    HW243892   8.586   3.882  14.296
80687SOL     OW43893  12.451  12.229   6.906
80687SOL    HW143894  12.493  12.158   6.953
80687SOL    HW243895  12.358  12.207   6.907
80688SOL     OW43896  14.766  11.195  10.399
80688SOL    HW143897  14.744  11.136  10.327
80688SOL    HW243898  14.734  11.281  10.369
80689SOL     OW43899  12.879   1.851  10.988
80689SOL    HW143900  12.895   1.914  10.917
80689SOL    HW243901  12.956   1.858  11.044
80690SOL     OW43902   9.505  13.897   8.551
80690SOL    HW143903   9.445  13.970   8.534
80690SOL    HW243904   9.459  13.844   8.616
80691SOL     OW43905   7.150   7.017   0.878
80691SOL    HW143906   7.207   7.086   0.843
80691SOL    HW243907   7.203   6.973   0.945
80692SOL     OW43908   2.201   6.960   2.625
80692SOL    HW143909   2.222   6.915   2.543
80692SOL    HW243910   2.238   7.047   2.615
80693SOL     OW43911  11.995   8.618  14.788
80693SOL    HW143912  12.046   8.661  14.720
80693SOL    HW243913  12.006   8.674  14.865
80694SOL     OW43914  14.767   6.767   4.538
80694SOL    HW143915  14.852   6.796   4.572
80694SOL    HW243916  14.781   6.676   4.513
80695SOL     OW43917  14.349   8.567   7.424
80695SOL    HW143918  14.412   8.494   7.419
80695SOL    HW243919  14.393   8.633   7.477
80696SOL     OW43920   3.223   1.612   5.087
80696SOL    HW143921   3.264   1.582   5.006
80696SOL    HW243922   3.220   1.707   5.078
80697SOL     OW43923  11.330  10.984   6.708
80697SOL    HW143924  11.345  10.896   6.742
80697SOL    HW243925  11.248  10.977   6.660
80698SOL     OW43926   9.873   9.997  12.139
80698SOL    HW143927   9.944  10.062  12.144
80698SOL    HW243928   9.919   9.914  12.123
80699SOL     OW43929  12.225  10.132  11.927
80699SOL    HW143930  12.245  10.043  11.900
80699SOL    HW243931  12.172  10.168  11.855
80700SOL     OW43932   4.535   1.370   1.582
80700SOL    HW143933   4.441   1.357   1.592
80700SOL    HW243934   4.563   1.303   1.520
80701SOL     OW43935   8.389   1.233   8.307
80701SOL    HW143936   8.418   1.290   8.236
80701SOL    HW243937   8.300   1.261   8.325
80702SOL     OW43938   6.101   7.367  10.861
80702SOL    HW143939   6.134   7.422  10.789
80702SOL    HW243940   6.123   7.278  10.836
80703SOL     OW43941   9.704   2.944   9.955
80703SOL    HW143942   9.748   3.027   9.937
80703SOL    HW243943   9.642   2.933   9.883
80704SOL     OW43944   2.307   2.926  13.190
80704SOL    HW143945   2.397   2.895  13.200
80704SOL    HW243946   2.258   2.849  13.163
80705SOL     OW43947   5.508   4.758   2.322
80705SOL    HW143948   5.450   4.685   2.341
80705SOL    HW243949   5.468   4.801   2.246
80706SOL     OW43950   1.468  12.512   8.846
80706SOL    HW143951   1.383  12.484   8.811
80706SOL    HW243952   1.459  12.502   8.941
80707SOL     OW43953  11.721   7.629   2.451
80707SOL    HW143954  11.784   7.670   2.511
80707SOL    HW243955  11.715   7.538   2.480
80708SOL     OW43956  12.405   0.546   3.786
80708SOL    HW143957  12.488   0.574   3.747
80708SOL    HW243958  12.391   0.608   3.859
80709SOL     OW43959   6.697   0.162   8.800
80709SOL    HW143960   6.741   0.092   8.847
80709SOL    HW243961   6.742   0.166   8.715
80710SOL     OW43962   5.951   0.150  12.857
80710SOL    HW143963   5.997   0.133  12.939
80710SOL    HW243964   6.000   0.101  12.792
80711SOL     OW43965   0.516  10.180   2.800
80711SOL    HW143966   0.603  10.219   2.796
80711SOL    HW243967   0.533  10.087   2.819
80712SOL     OW43968   8.416   3.766  14.066
80712SOL    HW143969   8.422   3.742  14.158
80712SOL    HW243970   8.454   3.691  14.019
80713SOL     OW43971  11.879  11.980   1.697
80713SOL    HW143972  11.807  11.964   1.636
80713SOL    HW243973  11.934  11.902   1.691
80714SOL     OW43974   8.592   4.361   6.713
80714SOL    HW143975   8.545   4.280   6.692
80714SOL    HW243976   8.527   4.430   6.701
80715SOL     OW43977  13.944   1.586  11.188
80715SOL    HW143978  13.869   1.579  11.129
80715SOL    HW243979  14.020   1.583  11.130
80716SOL     OW43980   9.898   0.296   9.926
80716SOL    HW143981   9.911   0.314  10.019
80716SOL    HW243982   9.803   0.297   9.914
80717SOL     OW43983   3.841   8.229  13.144
80717SOL    HW143984   3.917   8.203  13.197
80717SOL    HW243985   3.768   8.180  13.182
80718SOL     OW43986   3.361   2.944   7.202
80718SOL    HW143987   3.454   2.926   7.212
80718SOL    HW243988   3.355   3.040   7.196
80719SOL     OW43989  11.811  11.337   6.871
80719SOL    HW143990  11.750  11.411   6.861
80719SOL    HW243991  11.824  11.330   6.966
80720SOL     OW43992  13.066   2.835   2.216
80720SOL    HW143993  13.068   2.922   2.256
80720SOL    HW243994  12.995   2.839   2.151
80721SOL     OW43995   1.674  13.492   4.001
80721SOL    HW143996   1.654  13.535   3.919
80721SOL    HW243997   1.698  13.403   3.976
80722SOL     OW43998  12.347  12.011   2.442
80722SOL    HW143999  12.346  11.915   2.445
80722SOL    HW244000  12.263  12.035   2.403
80723SOL     OW44001   9.749   2.107  13.605
80723SOL    HW144002   9.693   2.157  13.545
80723SOL    HW244003   9.804   2.054  13.548
80724SOL     OW44004  10.711   8.160   2.656
80724SOL    HW144005  10.795   8.191   2.689
80724SOL    HW244006  10.733   8.099   2.586
80725SOL     OW44007   1.683  11.595  10.315
80725SOL    HW144008   1.590  11.569  10.315
80725SOL    HW244009   1.685  11.678  10.267
80726SOL     OW44010   2.173   5.483   1.275
80726SOL    HW144011   2.101   5.465   1.335
80726SOL    HW244012   2.231   5.541   1.324
80727SOL     OW44013  13.634   3.006   7.453
80727SOL    HW144014  13.582   3.015   7.373
80727SOL    HW244015  13.675   3.092   7.464
80728SOL     OW44016   0.117   1.557   9.180
80728SOL    HW144017   0.204   1.517   9.183
80728SOL    HW244018   0.103   1.576   9.087
80729SOL     OW44019  10.370  12.039   6.758
80729SOL    HW144020  10.309  11.986   6.810
80729SOL    HW244021  10.327  12.125   6.753
80730SOL     OW44022  12.394   2.103   1.789
80730SOL    HW144023  12.405   2.009   1.774
80730SOL    HW244024  12.346   2.134   1.712
80731SOL     OW44025   4.686   1.222   2.372
80731SOL    HW144026   4.660   1.288   2.437
80731SOL    HW244027   4.606   1.203   2.323
80732SOL     OW44028   4.291   6.279  10.033
80732SOL    HW144029   4.271   6.224   9.958
80732SOL    HW244030   4.302   6.218  10.106
80733SOL     OW44031   9.697   2.014   7.892
80733SOL    HW144032   9.689   1.923   7.921
80733SOL    HW244033   9.658   2.014   7.804
80734SOL     OW44034   0.823   0.844   6.525
80734SOL    HW144035   0.745   0.791   6.539
80734SOL    HW244036   0.883   0.818   6.595
80735SOL     OW44037   8.459   1.110   4.343
80735SOL    HW144038   8.456   1.036   4.283
80735SOL    HW244039   8.417   1.181   4.294
80736SOL     OW44040   0.956   4.083   8.256
80736SOL    HW144041   0.902   4.109   8.181
80736SOL    HW244042   0.962   3.988   8.249
80737SOL     OW44043  12.953   3.424  10.959
80737SOL    HW144044  12.959   3.517  10.978
80737SOL    HW244045  12.926   3.384  11.042
80738SOL     OW44046  11.322  12.895   0.139
80738SOL    HW144047  11.346  12.836   0.210
80738SOL    HW244048  11.381  12.872   0.067
80739SOL     OW44049   8.913   0.492  11.637
80739SOL    HW144050   8.852   0.431  11.597
80739SOL    HW244051   8.951   0.541  11.563
80740SOL     OW44052   2.588  14.351  10.005
80740SOL    HW144053   2.649  14.364  10.077
80740SOL    HW244054   2.636  14.380   9.927
80741SOL     OW44055   9.599   3.240  14.483
80741SOL    HW144056   9.635   3.328  14.487
80741SOL    HW244057   9.616   3.211  14.393
80742SOL     OW44058   1.827  11.773  13.108
80742SOL    HW144059   1.893  11.708  13.132
80742SOL    HW244060   1.803  11.815  13.190
80743SOL     OW44061   8.022  13.181   1.552
80743SOL    HW144062   8.109  13.170   1.590
80743SOL    HW244063   8.015  13.274   1.532
80744SOL     OW44064   0.266   0.656  13.895
80744SOL    HW144065   0.272   0.635  13.988
80744SOL    HW244066   0.331   0.726  13.882
80745SOL     OW44067  12.011  10.321   3.433
80745SOL    HW144068  12.029  10.256   3.365
80745SOL    HW244069  11.917  10.313   3.449
80746SOL     OW44070   8.243   0.270  11.667
80746SOL    HW144071   8.303   0.200  11.695
80746SOL    HW244072   8.181   0.279  11.739
80747SOL     OW44073   5.069   1.521  10.602
80747SOL    HW144074   5.068   1.433  10.641
80747SOL    HW244075   5.107   1.508  10.515
80748SOL     OW44076  14.264   4.566  12.157
80748SOL    HW144077  14.318   4.487  12.158
80748SOL    HW244078  14.325   4.637  12.174
80749SOL     OW44079   7.609   6.184  14.358
80749SOL    HW144080   7.517   6.203  14.377
80749SOL    HW244081   7.657   6.259  14.392
80750SOL     OW44082   1.188   3.784   7.872
80750SOL    HW144083   1.220   3.806   7.960
80750SOL    HW244084   1.093   3.796   7.877
80751SOL     OW44085   1.269   9.804  14.130
80751SOL    HW144086   1.175   9.803  14.145
80751SOL    HW244087   1.306   9.822  14.217
80752SOL     OW44088  12.515  10.452   9.084
80752SOL    HW144089  12.420  10.451   9.097
80752SOL    HW244090  12.546  10.518   9.146
80753SOL     OW44091  14.726  10.926  13.357
80753SOL    HW144092  14.673  11.001  13.383
80753SOL    HW244093  14.813  10.962  13.344
80754SOL     OW44094   7.029   8.237  12.393
80754SOL    HW144095   6.959   8.198  12.342
80754SOL    HW244096   7.090   8.164  12.408
80755SOL     OW44097   8.282   6.344   5.829
80755SOL    HW144098   8.366   6.335   5.875
80755SOL    HW244099   8.218   6.305   5.889
80756SOL     OW44100   9.417  10.783   1.240
80756SOL    HW144101   9.502  10.743   1.222
80756SOL    HW244102   9.436  10.877   1.246
80757SOL     OW44103   1.747   9.546   8.294
80757SOL    HW144104   1.794   9.628   8.303
80757SOL    HW244105   1.712   9.547   8.205
80758SOL     OW44106   2.502   4.068   0.034
80758SOL    HW144107   2.424   4.038  14.859
80758SOL    HW244108   2.576   4.040  14.854
80759SOL     OW44109   9.322   5.222   0.914
80759SOL    HW144110   9.305   5.141   0.961
80759SOL    HW244111   9.381   5.196   0.843
80760SOL     OW44112  11.722   1.334   9.977
80760SOL    HW144113  11.724   1.263  10.040
80760SOL    HW244114  11.752   1.295   9.895
80761SOL     OW44115  13.007   3.353  11.299
80761SOL    HW144116  12.965   3.268  11.302
80761SOL    HW244117  13.100   3.335  11.317
80762SOL     OW44118   9.571   9.684   7.620
80762SOL    HW144119   9.537   9.751   7.679
80762SOL    HW244120   9.559   9.602   7.668
80763SOL     OW44121   2.886   8.370  14.095
80763SOL    HW144122   2.793   8.344  14.098
80763SOL    HW244123   2.888   8.458  14.133
80764SOL     OW44124   5.633   4.955   0.320
80764SOL    HW144125   5.593   5.014   0.256
80764SOL    HW244126   5.721   4.989   0.333
80765SOL     OW44127  11.420  12.436   5.387
80765SOL    HW144128  11.410  12.362   5.327
80765SOL    HW244129  11.488  12.408   5.448
80766SOL     OW44130  11.668  12.258   0.050
80766SOL    HW144131  11.744  12.308   0.080
80766SOL    HW244132  11.677  12.173   0.093
80767SOL     OW44133  13.211  12.542   4.433
80767SOL    HW144134  13.284  12.600   4.409
80767SOL    HW244135  13.253  12.460   4.457
80768SOL     OW44136   8.629  11.722   1.467
80768SOL    HW144137   8.619  11.706   1.561
80768SOL    HW244138   8.542  11.749   1.438
80769SOL     OW44139   8.805   5.989   7.914
80769SOL    HW144140   8.791   6.081   7.936
80769SOL    HW244141   8.717   5.955   7.896
80770SOL     OW44142  10.732   7.202   0.246
80770SOL    HW144143  10.812   7.200   0.193
80770SOL    HW244144  10.747   7.137   0.315
80771SOL     OW44145   6.749   5.013  11.001
80771SOL    HW144146   6.696   4.934  11.013
80771SOL    HW244147   6.830   4.994  11.049
80772SOL     OW44148  12.362  12.493   2.150
80772SOL    HW144149  12.311  12.558   2.199
80772SOL    HW244150  12.450  12.499   2.186
80773SOL     OW44151   6.515  14.243   0.459
80773SOL    HW144152   6.578  14.315   0.450
80773SOL    HW244153   6.437  14.274   0.413
80774SOL     OW44154  12.871   5.544   7.986
80774SOL    HW144155  12.923   5.581   8.057
80774SOL    HW244156  12.861   5.451   8.009
80775SOL     OW44157  10.888   0.674  11.496
80775SOL    HW144158  10.861   0.725  11.420
80775SOL    HW244159  10.950   0.730  11.543
80776SOL     OW44160   2.944   8.101  10.702
80776SOL    HW144161   2.933   8.055  10.619
80776SOL    HW244162   2.962   8.032  10.765
80777SOL     OW44163   1.627   8.981   0.391
80777SOL    HW144164   1.585   8.958   0.474
80777SOL    HW244165   1.670   8.900   0.363
80778SOL     OW44166   1.867   4.484   7.753
80778SOL    HW144167   1.905   4.415   7.807
80778SOL    HW244168   1.817   4.538   7.815
80779SOL     OW44169   4.986  14.289   8.404
80779SOL    HW144170   4.942  14.287   8.319
80779SOL    HW244171   5.060  14.349   8.391
80780SOL     OW44172  10.994  14.064  11.539
80780SOL    HW144173  10.969  13.972  11.545
80780SOL    HW244174  11.077  14.070  11.586
80781SOL     OW44175   9.084   8.547  12.696
80781SOL    HW144176   9.023   8.476  12.674
80781SOL    HW244177   9.054   8.578  12.782
80782SOL     OW44178   4.161  10.399   2.371
80782SOL    HW144179   4.159  10.479   2.319
80782SOL    HW244180   4.177  10.330   2.307
80783SOL     OW44181  12.989  12.526  12.389
80783SOL    HW144182  13.047  12.540  12.465
80783SOL    HW244183  13.046  12.489  12.322
80784SOL     OW44184   0.109   5.717   0.227
80784SOL    HW144185   0.075   5.653   0.163
80784SOL    HW244186   0.201   5.692   0.238
80785SOL     OW44187   8.330  14.753   5.747
80785SOL    HW144188   8.290  14.822   5.693
80785SOL    HW244189   8.304  14.774   5.836
80786SOL     OW44190   3.994   0.789   3.953
80786SOL    HW144191   3.924   0.791   4.018
80786SOL    HW244192   4.070   0.826   3.999
80787SOL     OW44193   6.058   9.887  11.545
80787SOL    HW144194   6.116   9.947  11.497
80787SOL    HW244195   5.983   9.940  11.569
80788SOL     OW44196   6.463   8.655   0.430
80788SOL    HW144197   6.557   8.665   0.448
80788SOL    HW244198   6.421   8.666   0.515
80789SOL     OW44199  12.134   2.735  13.602
80789SOL    HW144200  12.182   2.818  13.598
80789SOL    HW244201  12.072   2.740  13.530
80790SOL     OW44202  14.460   6.125  14.485
80790SOL    HW144203  14.462   6.030  14.478
80790SOL    HW244204  14.542   6.148  14.529
80791SOL     OW44205   2.666   7.512   4.600
80791SOL    HW144206   2.602   7.548   4.539
80791SOL    HW244207   2.751   7.527   4.558
80792SOL     OW44208   6.398   7.833   0.932
80792SOL    HW144209   6.343   7.811   0.857
80792SOL    HW244210   6.343   7.888   0.987
80793SOL     OW44211   8.180   3.688  13.208
80793SOL    HW144212   8.171   3.718  13.117
80793SOL    HW244213   8.274   3.677  13.221
80794SOL     OW44214   2.302   0.704   4.204
80794SOL    HW144215   2.278   0.622   4.248
80794SOL    HW244216   2.385   0.729   4.245
80795SOL     OW44217   5.018  13.115  10.648
80795SOL    HW144218   5.009  13.075  10.734
80795SOL    HW244219   4.963  13.062  10.591
80796SOL     OW44220   1.938   0.134   9.205
80796SOL    HW144221   1.973   0.219   9.179
80796SOL    HW244222   1.871   0.154   9.271
80797SOL     OW44223   2.116   9.789   9.580
80797SOL    HW144224   2.185   9.771   9.644
80797SOL    HW244225   2.108   9.885   9.580
80798SOL     OW44226   3.885   9.954  13.122
80798SOL    HW144227   3.919   9.892  13.186
80798SOL    HW244228   3.825   9.903  13.068
80799SOL     OW44229   4.343   0.365   0.552
80799SOL    HW144230   4.253   0.340   0.529
80799SOL    HW244231   4.397   0.300   0.507
80800SOL     OW44232  14.323   0.292   2.849
80800SOL    HW144233  14.327   0.199   2.829
80800SOL    HW244234  14.231   0.310   2.864
80801SOL     OW44235   7.167   6.455  14.797
80801SOL    HW144236   7.121   6.424   0.003
80801SOL    HW244237   7.151   6.550  14.796
80802SOL     OW44238   5.224   1.483   7.722
80802SOL    HW144239   5.208   1.485   7.628
80802SOL    HW244240   5.164   1.417   7.756
80803SOL     OW44241  13.756   8.866  13.712
80803SOL    HW144242  13.790   8.835  13.628
80803SOL    HW244243  13.776   8.959  13.713
80804SOL     OW44244  11.589   7.769  10.394
80804SOL    HW144245  11.603   7.863  10.403
80804SOL    HW244246  11.620   7.733  10.477
80805SOL     OW44247  13.299  13.302   4.493
80805SOL    HW144248  13.232  13.233   4.491
80805SOL    HW244249  13.382  13.255   4.498
80806SOL     OW44250   5.648   8.024   3.892
80806SOL    HW144251   5.576   7.991   3.946
80806SOL    HW244252   5.687   8.094   3.944
80807SOL     OW44253   4.947   1.854   4.008
80807SOL    HW144254   4.963   1.901   3.926
80807SOL    HW244255   4.897   1.915   4.062
80808SOL     OW44256  11.186   8.207  11.045
80808SOL    HW144257  11.107   8.223  10.994
80808SOL    HW244258  11.158   8.209  11.136
80809SOL     OW44259   8.923   2.818  10.606
80809SOL    HW144260   8.841   2.824  10.655
80809SOL    HW244261   8.907   2.751  10.540
80810SOL     OW44262   1.354   0.054   0.645
80810SOL    HW144263   1.324   0.132   0.693
80810SOL    HW244264   1.399   0.001   0.710
80811SOL     OW44265   0.907   6.527   0.085
80811SOL    HW144266   0.959   6.565   0.014
80811SOL    HW244267   0.823   6.573   0.080
80812SOL     OW44268   2.208  13.347  14.799
80812SOL    HW144269   2.171  13.270  14.755
80812SOL    HW244270   2.198  13.328   0.019
80813SOL     OW44271   5.270   4.437   8.812
80813SOL    HW144272   5.356   4.449   8.853
80813SOL    HW244273   5.211   4.420   8.886
80814SOL     OW44274   8.213   9.983   4.851
80814SOL    HW144275   8.269  10.060   4.853
80814SOL    HW244276   8.273   9.909   4.854
80815SOL     OW44277   3.022  12.163   5.922
80815SOL    HW144278   3.101  12.193   5.967
80815SOL    HW244279   3.048  12.155   5.830
80816SOL     OW44280   0.534   6.692   6.732
80816SOL    HW144281   0.490   6.723   6.653
80816SOL    HW244282   0.464   6.656   6.786
80817SOL     OW44283  10.103   5.327   8.917
80817SOL    HW144284  10.138   5.260   8.977
80817SOL    HW244285  10.060   5.390   8.974
80818SOL     OW44286   3.730  12.513   3.104
80818SOL    HW144287   3.682  12.478   3.030
80818SOL    HW244288   3.663  12.553   3.159
80819SOL     OW44289  12.221   9.979  12.207
80819SOL    HW144290  12.230   9.990  12.113
80819SOL    HW244291  12.141   9.928  12.218
80820SOL     OW44292  10.100   8.856   2.873
80820SOL    HW144293  10.094   8.949   2.855
80820SOL    HW244294  10.137   8.851   2.961
80821SOL     OW44295   9.053  12.051   9.753
80821SOL    HW144296   9.010  11.966   9.764
80821SOL    HW244297   9.109  12.059   9.830
80822SOL     OW44298   4.403   5.205   7.906
80822SOL    HW144299   4.307   5.197   7.902
80822SOL    HW244300   4.424   5.189   7.997
80823SOL     OW44301  14.172   5.363   7.251
80823SOL    HW144302  14.125   5.436   7.291
80823SOL    HW244303  14.133   5.352   7.165
80824SOL     OW44304   8.064  12.867   3.232
80824SOL    HW144305   7.989  12.811   3.252
80824SOL    HW244306   8.077  12.857   3.138
80825SOL     OW44307  11.656   9.769   7.947
80825SOL    HW144308  11.719   9.826   7.990
80825SOL    HW244309  11.674   9.682   7.983
80826SOL     OW44310   7.570   6.861  14.438
80826SOL    HW144311   7.510   6.819  14.500
80826SOL    HW244312   7.517   6.877  14.360
80827SOL     OW44313   7.792   2.779  11.853
80827SOL    HW144314   7.839   2.761  11.772
80827SOL    HW244315   7.705   2.741  11.839
80828SOL     OW44316  12.781   8.715   5.472
80828SOL    HW144317  12.789   8.811   5.468
80828SOL    HW244318  12.688   8.699   5.482
80829SOL     OW44319   4.973   8.612   0.007
80829SOL    HW144320   4.895   8.625  14.826
80829SOL    HW244321   4.964   8.674   0.079
80830SOL     OW44322  12.849   7.416  14.559
80830SOL    HW144323  12.944   7.405  14.564
80830SOL    HW244324  12.831   7.432  14.466
80831SOL     OW44325  10.924   8.489   1.852
80831SOL    HW144326  10.897   8.431   1.781
80831SOL    HW244327  10.847   8.496   1.908
80832SOL     OW44328   7.352   8.897  10.981
80832SOL    HW144329   7.340   8.980  11.028
80832SOL    HW244330   7.266   8.878  10.943
80833SOL     OW44331   4.761   3.495   2.071
80833SOL    HW144332   4.835   3.509   2.130
80833SOL    HW244333   4.685   3.523   2.122
80834SOL     OW44334   2.273   8.479   0.563
80834SOL    HW144335   2.348   8.504   0.617
80834SOL    HW244336   2.308   8.417   0.500
80835SOL     OW44337   1.073   2.556   1.980
80835SOL    HW144338   1.023   2.475   1.992
80835SOL    HW244339   1.090   2.587   2.068
80836SOL     OW44340   0.237  14.389   4.905
80836SOL    HW144341   0.190  14.329   4.963
80836SOL    HW244342   0.172  14.455   4.881
80837SOL     OW44343   2.430   2.296   9.030
80837SOL    HW144344   2.408   2.354   9.103
80837SOL    HW244345   2.354   2.237   9.024
80838SOL     OW44346   2.841  12.156   4.083
80838SOL    HW144347   2.896  12.080   4.065
80838SOL    HW244348   2.829  12.156   4.178
80839SOL     OW44349   7.199   3.016  12.627
80839SOL    HW144350   7.191   2.927  12.594
80839SOL    HW244351   7.292   3.024  12.651
80840SOL     OW44352   5.575   8.982   3.495
80840SOL    HW144353   5.669   8.987   3.509
80840SOL    HW244354   5.536   9.017   3.575
80841SOL     OW44355   6.577   1.176   7.006
80841SOL    HW144356   6.540   1.260   7.033
80841SOL    HW244357   6.637   1.152   7.077
80842SOL     OW44358   8.564  11.123   7.503
80842SOL    HW144359   8.478  11.096   7.534
80842SOL    HW244360   8.605  11.043   7.470
80843SOL     OW44361   8.253  11.063   5.408
80843SOL    HW144362   8.276  10.982   5.361
80843SOL    HW244363   8.269  11.043   5.500
80844SOL     OW44364   8.231   5.395  13.910
80844SOL    HW144365   8.225   5.324  13.974
80844SOL    HW244366   8.286   5.359  13.840
80845SOL     OW44367   9.005   9.399   5.518
80845SOL    HW144368   9.059   9.400   5.439
80845SOL    HW244369   9.058   9.442   5.584
80846SOL     OW44370  13.664  13.227   9.443
80846SOL    HW144371  13.738  13.192   9.394
80846SOL    HW244372  13.685  13.210   9.534
80847SOL     OW44373   6.139  11.135   7.858
80847SOL    HW144374   6.155  11.051   7.815
80847SOL    HW244375   6.224  11.179   7.856
80848SOL     OW44376   7.561   5.156   4.270
80848SOL    HW144377   7.624   5.089   4.297
80848SOL    HW244378   7.600   5.238   4.298
80849SOL     OW44379   7.222   9.715   2.446
80849SOL    HW144380   7.280   9.716   2.370
80849SOL    HW244381   7.244   9.795   2.494
80850SOL     OW44382   7.386   8.189   9.332
80850SOL    HW144383   7.408   8.098   9.313
80850SOL    HW244384   7.406   8.199   9.425
80851SOL     OW44385  10.298   6.891  13.337
80851SOL    HW144386  10.313   6.927  13.424
80851SOL    HW244387  10.205   6.868  13.335
80852SOL     OW44388   7.580   5.501   7.908
80852SOL    HW144389   7.605   5.517   7.999
80852SOL    HW244390   7.663   5.491   7.862
80853SOL     OW44391   6.439  12.598   2.401
80853SOL    HW144392   6.486  12.514   2.405
80853SOL    HW244393   6.495  12.653   2.346
80854SOL     OW44394  11.658   3.943   2.696
80854SOL    HW144395  11.709   4.022   2.679
80854SOL    HW244396  11.567   3.972   2.697
80855SOL     OW44397  11.960   5.673  12.182
80855SOL    HW144398  11.951   5.583  12.215
80855SOL    HW244399  11.886   5.685  12.123
80856SOL     OW44400   2.317  12.036  13.714
80856SOL    HW144401   2.359  12.119  13.737
80856SOL    HW244402   2.372  11.970  13.756
80857SOL     OW44403  13.391   3.985  13.409
80857SOL    HW144404  13.467   3.931  13.385
80857SOL    HW244405  13.316   3.927  13.400
80858SOL     OW44406   0.180  12.164   8.022
80858SOL    HW144407   0.222  12.083   8.051
80858SOL    HW244408   0.190  12.164   7.927
80859SOL     OW44409   1.747  13.039   1.172
80859SOL    HW144410   1.714  13.065   1.086
80859SOL    HW244411   1.835  13.075   1.176
80860SOL     OW44412   1.144  13.219   5.647
80860SOL    HW144413   1.198  13.173   5.583
80860SOL    HW244414   1.069  13.249   5.596
80861SOL     OW44415  10.580  14.315   7.341
80861SOL    HW144416  10.666  14.276   7.325
80861SOL    HW244417  10.521  14.240   7.350
80862SOL     OW44418   6.889   2.150  13.948
80862SOL    HW144419   6.828   2.148  14.021
80862SOL    HW244420   6.836   2.122  13.873
80863SOL     OW44421   8.364  10.095   1.195
80863SOL    HW144422   8.443  10.065   1.241
80863SOL    HW244423   8.372  10.190   1.194
80864SOL     OW44424   9.924   0.631  14.210
80864SOL    HW144425   9.873   0.549  14.208
80864SOL    HW244426  10.012   0.606  14.181
80865SOL     OW44427   1.976   7.340  14.200
80865SOL    HW144428   1.953   7.320  14.109
80865SOL    HW244429   2.071   7.353  14.198
80866SOL     OW44430  14.398   5.462   6.869
80866SOL    HW144431  14.391   5.521   6.795
80866SOL    HW244432  14.394   5.375   6.831
80867SOL     OW44433   4.666   1.973  14.576
80867SOL    HW144434   4.672   1.967  14.480
80867SOL    HW244435   4.575   1.994  14.593
80868SOL     OW44436  11.368   4.291   0.404
80868SOL    HW144437  11.337   4.232   0.472
80868SOL    HW244438  11.463   4.297   0.418
80869SOL     OW44439   2.153   6.638  10.741
80869SOL    HW144440   2.145   6.704  10.672
80869SOL    HW244441   2.101   6.673  10.813
80870SOL     OW44442  13.016   1.862  10.485
80870SOL    HW144443  13.105   1.898  10.484
80870SOL    HW244444  13.024   1.778  10.441
80871SOL     OW44445   5.556   6.052   3.295
80871SOL    HW144446   5.651   6.043   3.307
80871SOL    HW244447   5.518   6.007   3.370
80872SOL     OW44448  10.557  13.708   5.937
80872SOL    HW144449  10.570  13.700   6.031
80872SOL    HW244450  10.463  13.694   5.925
80873SOL     OW44451   6.036   4.321  13.937
80873SOL    HW144452   6.088   4.380  13.882
80873SOL    HW244453   6.013   4.373  14.013
80874SOL     OW44454  10.144  12.708  11.839
80874SOL    HW144455  10.236  12.710  11.812
80874SOL    HW244456  10.099  12.759  11.772
80875SOL     OW44457   3.791  11.280   6.871
80875SOL    HW144458   3.707  11.305   6.832
80875SOL    HW244459   3.806  11.344   6.940
80876SOL     OW44460  11.415   2.135   5.079
80876SOL    HW144461  11.423   2.115   4.986
80876SOL    HW244462  11.350   2.072   5.111
80877SOL     OW44463   2.375   1.022  13.568
80877SOL    HW144464   2.459   1.050  13.607
80877SOL    HW244465   2.313   1.025  13.641
80878SOL     OW44466  13.769   4.004   8.717
80878SOL    HW144467  13.849   3.962   8.748
80878SOL    HW244468  13.799   4.073   8.658
80879SOL     OW44469   7.822  10.724   8.835
80879SOL    HW144470   7.833  10.730   8.740
80879SOL    HW244471   7.787  10.810   8.860
80880SOL     OW44472   6.077  12.686   5.296
80880SOL    HW144473   6.073  12.775   5.332
80880SOL    HW244474   6.040  12.695   5.208
80881SOL     OW44475   1.071   3.251   5.399
80881SOL    HW144476   0.987   3.264   5.442
80881SOL    HW244477   1.049   3.237   5.307
80882SOL     OW44478  14.444  12.119  14.020
80882SOL    HW144479  14.371  12.058  14.028
80882SOL    HW244480  14.522  12.065  14.028
80883SOL     OW44481   9.642   6.988  12.041
80883SOL    HW144482   9.734   6.977  12.019
80883SOL    HW244483   9.600   7.014  11.959
80884SOL     OW44484   1.688   4.709   9.930
80884SOL    HW144485   1.776   4.706   9.892
80884SOL    HW244486   1.629   4.703   9.855
80885SOL     OW44487  10.420  10.781   1.136
80885SOL    HW144488  10.488  10.796   1.069
80885SOL    HW244489  10.450  10.830   1.212
80886SOL     OW44490   1.351   7.756  10.120
80886SOL    HW144491   1.439   7.751  10.159
80886SOL    HW244492   1.294   7.782  10.193
80887SOL     OW44493   0.368   8.253   7.589
80887SOL    HW144494   0.297   8.278   7.647
80887SOL    HW244495   0.326   8.204   7.519
80888SOL     OW44496   6.495  11.591   7.520
80888SOL    HW144497   6.514  11.644   7.443
80888SOL    HW244498   6.581  11.570   7.557
80889SOL     OW44499  14.629  10.350   0.136
80889SOL    HW144500  14.537  10.345   0.112
80889SOL    HW244501  14.635  10.426   0.194
80890SOL     OW44502   1.065   6.657  10.769
80890SOL    HW144503   1.024   6.581  10.809
80890SOL    HW244504   1.159   6.645  10.785
80891SOL     OW44505   2.351   8.430   0.290
80891SOL    HW144506   2.350   8.517   0.329
80891SOL    HW244507   2.392   8.443   0.204
80892SOL     OW44508   2.318   6.955  14.304
80892SOL    HW144509   2.238   6.936  14.354
80892SOL    HW244510   2.385   6.901  14.346
80893SOL     OW44511  14.642   4.063   1.159
80893SOL    HW144512  14.700   3.994   1.128
80893SOL    HW244513  14.572   4.017   1.204
80894SOL     OW44514   7.211   7.360   1.198
80894SOL    HW144515   7.282   7.371   1.135
80894SOL    HW244516   7.144   7.313   1.148
80895SOL     OW44517  12.306   2.015  11.742
80895SOL    HW144518  12.271   1.931  11.713
80895SOL    HW244519  12.381   2.031  11.684
80896SOL     OW44520   0.490  13.274  10.649
80896SOL    HW144521   0.432  13.252  10.576
80896SOL    HW244522   0.506  13.368  10.640
80897SOL     OW44523  11.087   8.408   1.286
80897SOL    HW144524  11.179   8.395   1.307
80897SOL    HW244525  11.044   8.328   1.314
80898SOL     OW44526   1.976  13.828   9.581
80898SOL    HW144527   1.903  13.847   9.523
80898SOL    HW244528   1.972  13.733   9.594
80899SOL     OW44529   8.627   1.682   3.514
80899SOL    HW144530   8.722   1.672   3.512
80899SOL    HW244531   8.613   1.777   3.514
80900SOL     OW44532   2.543   9.649  14.425
80900SOL    HW144533   2.625   9.688  14.395
80900SOL    HW244534   2.555   9.637  14.520
80901SOL     OW44535   2.039   0.812   6.965
80901SOL    HW144536   1.955   0.836   6.926
80901SOL    HW244537   2.095   0.795   6.890
80902SOL     OW44538   2.435  12.352   9.289
80902SOL    HW144539   2.351  12.379   9.253
80902SOL    HW244540   2.445  12.404   9.369
80903SOL     OW44541   9.313  11.554   3.179
80903SOL    HW144542   9.252  11.621   3.210
80903SOL    HW244543   9.269  11.471   3.197
80904SOL     OW44544   9.678   7.911   4.907
80904SOL    HW144545   9.675   7.823   4.868
80904SOL    HW244546   9.611   7.908   4.975
80905SOL     OW44547   8.658  10.000  12.182
80905SOL    HW144548   8.642  10.074  12.123
80905SOL    HW244549   8.626  10.031  12.267
80906SOL     OW44550  14.815  14.373   6.602
80906SOL    HW144551   0.031  14.349   6.630
80906SOL    HW244552  14.766  14.290   6.604
80907SOL     OW44553   5.252  10.033  14.340
80907SOL    HW144554   5.172  10.084  14.349
80907SOL    HW244555   5.291  10.034  14.427
80908SOL     OW44556  11.579   7.195   8.384
80908SOL    HW144557  11.651   7.239   8.339
80908SOL    HW244558  11.504   7.208   8.326
80909SOL     OW44559   3.419  10.813   6.131
80909SOL    HW144560   3.368  10.737   6.159
80909SOL    HW244561   3.411  10.814   6.036
80910SOL     OW44562   1.749  13.412   0.047
80910SOL    HW144563   1.798  13.403  14.838
80910SOL    HW244564   1.700  13.329   0.054
80911SOL     OW44565   2.869   4.510  11.980
80911SOL    HW144566   2.876   4.598  11.945
80911SOL    HW244567   2.905   4.453  11.912
80912SOL     OW44568  13.348  14.548   1.078
80912SOL    HW144569  13.437  14.536   1.046
80912SOL    HW244570  13.325  14.637   1.051
80913SOL     OW44571  13.648   5.739  12.418
80913SOL    HW144572  13.560   5.722  12.452
80913SOL    HW244573  13.643   5.826  12.379
80914SOL     OW44574   3.245  14.406   9.973
80914SOL    HW144575   3.333  14.416   9.937
80914SOL    HW244576   3.198  14.485   9.944
80915SOL     OW44577  12.118   2.987  10.144
80915SOL    HW144578  12.029   2.970  10.175
80915SOL    HW244579  12.172   2.923  10.190
80916SOL     OW44580   9.426   7.622   6.998
80916SOL    HW144581   9.366   7.583   7.062
80916SOL    HW244582   9.461   7.699   7.042
80917SOL     OW44583   6.233  14.421   4.682
80917SOL    HW144584   6.296  14.369   4.732
80917SOL    HW244585   6.150  14.375   4.693
80918SOL     OW44586  14.517  10.913   7.062
80918SOL    HW144587  14.442  10.972   7.053
80918SOL    HW244588  14.542  10.893   6.972
80919SOL     OW44589  14.381  12.165   6.965
80919SOL    HW144590  14.286  12.153   6.960
80919SOL    HW244591  14.407  12.118   7.045
80920SOL     OW44592   5.378   2.910   2.629
80920SOL    HW144593   5.439   2.921   2.703
80920SOL    HW244594   5.325   2.834   2.654
80921SOL     OW44595  10.639   8.123   4.956
80921SOL    HW144596  10.566   8.180   4.933
80921SOL    HW244597  10.701   8.179   5.003
80922SOL     OW44598  12.251  12.359  10.458
80922SOL    HW144599  12.182  12.421  10.481
80922SOL    HW244600  12.212  12.273  10.468
80923SOL     OW44601   6.981   7.986   9.892
80923SOL    HW144602   7.060   7.939   9.866
80923SOL    HW244603   6.950   8.027   9.811
80924SOL     OW44604   8.369  12.329   9.819
80924SOL    HW144605   8.372  12.235   9.837
80924SOL    HW244606   8.390  12.370   9.903
80925SOL     OW44607   6.415   8.528   6.669
80925SOL    HW144608   6.349   8.487   6.614
80925SOL    HW244609   6.455   8.456   6.718
80926SOL     OW44610   6.082   1.441   7.336
80926SOL    HW144611   6.069   1.358   7.292
80926SOL    HW244612   6.104   1.503   7.266
80927SOL     OW44613   4.445   7.658  13.947
80927SOL    HW144614   4.384   7.689  14.014
80927SOL    HW244615   4.391   7.645  13.869
80928SOL     OW44616  13.236  14.378   6.353
80928SOL    HW144617  13.192  14.463   6.348
80928SOL    HW244618  13.317  14.389   6.304
80929SOL     OW44619   6.986   1.059   3.161
80929SOL    HW144620   6.944   1.030   3.080
80929SOL    HW244621   7.064   1.003   3.169
80930SOL     OW44622   5.134  12.973   4.020
80930SOL    HW144623   5.172  12.977   4.108
80930SOL    HW244624   5.050  13.018   4.027
80931SOL     OW44625   9.340  10.983  13.190
80931SOL    HW144626   9.431  10.975  13.219
80931SOL    HW244627   9.290  10.938  13.258
80932SOL     OW44628  13.888   3.956  14.454
80932SOL    HW144629  13.975   3.923  14.480
80932SOL    HW244630  13.886   4.046  14.485
80933SOL     OW44631   2.404   3.994   9.323
80933SOL    HW144632   2.380   3.934   9.252
80933SOL    HW244633   2.334   3.985   9.387
80934SOL     OW44634   8.506   0.444   0.567
80934SOL    HW144635   8.414   0.464   0.554
80934SOL    HW244636   8.543   0.440   0.479
80935SOL     OW44637  13.013   5.481   0.566
80935SOL    HW144638  12.954   5.541   0.612
80935SOL    HW244639  12.996   5.396   0.605
80936SOL     OW44640  10.254  10.479   9.451
80936SOL    HW144641  10.292  10.432   9.526
80936SOL    HW244642  10.159  10.474   9.465
80937SOL     OW44643   4.443  14.391  13.855
80937SOL    HW144644   4.485  14.454  13.796
80937SOL    HW244645   4.373  14.352  13.803
80938SOL     OW44646  10.409   2.719   5.815
80938SOL    HW144647  10.432   2.794   5.869
80938SOL    HW244648  10.411   2.644   5.875
80939SOL     OW44649   6.671   5.671  14.774
80939SOL    HW144650   6.593   5.644  14.725
80939SOL    HW244651   6.688   5.760  14.745
80940SOL     OW44652   8.323   5.691  11.031
80940SOL    HW144653   8.397   5.739  11.069
80940SOL    HW244654   8.363   5.615  10.989
80941SOL     OW44655  12.620   5.859   6.798
80941SOL    HW144656  12.672   5.780   6.816
80941SOL    HW244657  12.574   5.876   6.880
80942SOL     OW44658   3.497   7.962   3.106
80942SOL    HW144659   3.530   8.041   3.149
80942SOL    HW244660   3.575   7.922   3.066
80943SOL     OW44661   7.781   6.083   9.621
80943SOL    HW144662   7.775   6.171   9.583
80943SOL    HW244663   7.851   6.040   9.573
80944SOL     OW44664  11.625   8.630   5.945
80944SOL    HW144665  11.701   8.681   5.915
80944SOL    HW244666  11.558   8.646   5.878
80945SOL     OW44667   7.765  14.748  11.383
80945SOL    HW144668   7.718  14.670  11.411
80945SOL    HW244669   7.696  14.814  11.369
80946SOL     OW44670   8.672  12.079   9.940
80946SOL    HW144671   8.719  12.155   9.974
80946SOL    HW244672   8.614  12.053  10.011
80947SOL     OW44673   1.532  12.353   6.526
80947SOL    HW144674   1.573  12.371   6.611
80947SOL    HW244675   1.468  12.285   6.545
80948SOL     OW44676  14.413   5.119   1.284
80948SOL    HW144677  14.480   5.183   1.257
80948SOL    HW244678  14.367   5.163   1.356
80949SOL     OW44679   7.819  11.966   0.789
80949SOL    HW144680   7.787  11.907   0.721
80949SOL    HW244681   7.781  12.051   0.768
80950SOL     OW44682   6.446   6.810  12.891
80950SOL    HW144683   6.539   6.818  12.867
80950SOL    HW244684   6.402   6.791  12.808
80951SOL     OW44685   9.309   0.997   2.013
80951SOL    HW144686   9.243   1.061   2.039
80951SOL    HW244687   9.352   0.972   2.096
80952SOL     OW44688  14.066   2.334   3.332
80952SOL    HW144689  14.041   2.334   3.424
80952SOL    HW244690  14.111   2.250   3.318
80953SOL     OW44691   1.379   4.203   6.436
80953SOL    HW144692   1.347   4.190   6.526
80953SOL    HW244693   1.332   4.280   6.405
80954SOL     OW44694  12.603  10.034  13.148
80954SOL    HW144695  12.550  10.079  13.214
80954SOL    HW244696  12.652   9.969  13.197
80955SOL     OW44697  13.924  12.684   4.183
80955SOL    HW144698  13.858  12.736   4.137
80955SOL    HW244699  13.891  12.676   4.272
80956SOL     OW44700   7.020   2.418   6.515
80956SOL    HW144701   7.067   2.380   6.440
80956SOL    HW244702   7.046   2.363   6.590
80957SOL     OW44703   8.196  11.276   8.930
80957SOL    HW144704   8.184  11.369   8.949
80957SOL    HW244705   8.263  11.247   8.991
80958SOL     OW44706  12.145  13.768  14.798
80958SOL    HW144707  12.156  13.724  14.714
80958SOL    HW244708  12.230  13.809  14.815
80959SOL     OW44709   5.550   9.461  13.295
80959SOL    HW144710   5.465   9.439  13.256
80959SOL    HW244711   5.605   9.384  13.277
80960SOL     OW44712   6.068   7.939  12.833
80960SOL    HW144713   6.163   7.953  12.834
80960SOL    HW244714   6.047   7.918  12.924
80961SOL     OW44715   1.402  11.609   5.068
80961SOL    HW144716   1.396  11.515   5.085
80961SOL    HW244717   1.489  11.634   5.098
80962SOL     OW44718   4.715  11.954  13.444
80962SOL    HW144719   4.741  11.951  13.352
80962SOL    HW244720   4.709  12.047  13.464
80963SOL     OW44721   4.123  13.515   8.449
80963SOL    HW144722   4.082  13.521   8.363
80963SOL    HW244723   4.076  13.578   8.503
80964SOL     OW44724   9.684   8.911   2.547
80964SOL    HW144725   9.771   8.882   2.520
80964SOL    HW244726   9.693   9.004   2.562
80965SOL     OW44727   5.144   6.699   7.831
80965SOL    HW144728   5.196   6.779   7.825
80965SOL    HW244729   5.169   6.660   7.915
80966SOL     OW44730   4.204   4.655  11.454
80966SOL    HW144731   4.252   4.697  11.383
80966SOL    HW244732   4.169   4.728  11.506
80967SOL     OW44733  12.833  12.730  13.116
80967SOL    HW144734  12.784  12.723  13.198
80967SOL    HW244735  12.807  12.652  13.067
80968SOL     OW44736   4.373  10.473   8.238
80968SOL    HW144737   4.325  10.544   8.195
80968SOL    HW244738   4.315  10.445   8.309
80969SOL     OW44739   0.396  10.144   3.135
80969SOL    HW144740   0.364  10.105   3.053
80969SOL    HW244741   0.394  10.071   3.198
80970SOL     OW44742  10.932   3.298  12.686
80970SOL    HW144743  11.005   3.260  12.733
80970SOL    HW244744  10.970   3.371  12.636
80971SOL     OW44745   2.468   7.646  12.606
80971SOL    HW144746   2.507   7.579  12.661
80971SOL    HW244747   2.402   7.600  12.554
80972SOL     OW44748   9.838   7.040  11.405
80972SOL    HW144749   9.841   6.960  11.353
80972SOL    HW244750   9.770   7.093  11.365
80973SOL     OW44751   5.470   5.048   3.409
80973SOL    HW144752   5.433   5.083   3.490
80973SOL    HW244753   5.480   5.124   3.352
80974SOL     OW44754   1.947   2.195   3.693
80974SOL    HW144755   1.905   2.275   3.723
80974SOL    HW244756   2.019   2.224   3.636
80975SOL     OW44757  11.234   1.621   1.301
80975SOL    HW144758  11.227   1.537   1.347
80975SOL    HW244759  11.271   1.599   1.216
80976SOL     OW44760   1.564  11.229   2.864
80976SOL    HW144761   1.551  11.148   2.814
80976SOL    HW244762   1.493  11.287   2.835
80977SOL     OW44763  14.189  11.126   3.692
80977SOL    HW144764  14.172  11.210   3.734
80977SOL    HW244765  14.189  11.063   3.764
80978SOL     OW44766  12.340   9.154   3.594
80978SOL    HW144767  12.298   9.068   3.584
80978SOL    HW244768  12.433   9.136   3.579
80979SOL     OW44769  11.801   5.883  11.023
80979SOL    HW144770  11.885   5.864  10.981
80979SOL    HW244771  11.805   5.835  11.107
80980SOL     OW44772  14.291  11.949  14.842
80980SOL    HW144773  14.203  11.974  14.814
80980SOL    HW244774  14.297  11.978   0.060
80981SOL     OW44775   2.087   0.598   4.740
80981SOL    HW144776   2.105   0.513   4.782
80981SOL    HW244777   2.075   0.658   4.814
80982SOL     OW44778  12.820   4.667   4.285
80982SOL    HW144779  12.807   4.754   4.321
80982SOL    HW244780  12.857   4.616   4.357
80983SOL     OW44781   2.308   6.813  12.467
80983SOL    HW144782   2.384   6.780  12.419
80983SOL    HW244783   2.277   6.739  12.518
80984SOL     OW44784  12.851   8.041   5.768
80984SOL    HW144785  12.855   7.966   5.826
80984SOL    HW244786  12.919   8.100   5.801
80985SOL     OW44787   7.864   4.127   6.092
80985SOL    HW144788   7.781   4.116   6.139
80985SOL    HW244789   7.930   4.135   6.161
80986SOL     OW44790   7.110   2.087   9.758
80986SOL    HW144791   7.159   2.027   9.814
80986SOL    HW244792   7.082   2.157   9.817
80987SOL     OW44793  12.947   3.073  13.502
80987SOL    HW144794  12.933   2.990  13.456
80987SOL    HW244795  12.933   3.052  13.594
80988SOL     OW44796   9.991  13.024   9.150
80988SOL    HW144797  10.083  13.000   9.143
80988SOL    HW244798   9.945  12.957   9.099
80989SOL     OW44799   4.394  10.701  13.802
80989SOL    HW144800   4.465  10.721  13.741
80989SOL    HW244801   4.342  10.781  13.806
80990SOL     OW44802   7.786   9.578   4.183
80990SOL    HW144803   7.802   9.669   4.160
80990SOL    HW244804   7.874   9.538   4.187
80991SOL     OW44805   6.030  11.669   9.775
80991SOL    HW144806   6.121  11.649   9.756
80991SOL    HW244807   6.017  11.640   9.865
80992SOL     OW44808   1.661  13.867   4.396
80992SOL    HW144809   1.734  13.848   4.455
80992SOL    HW244810   1.702  13.876   4.310
80993SOL     OW44811  10.046   3.653   7.063
80993SOL    HW144812  10.060   3.559   7.056
80993SOL    HW244813  10.092   3.678   7.143
80994SOL     OW44814  10.769   7.427   7.434
80994SOL    HW144815  10.825   7.349   7.439
80994SOL    HW244816  10.692   7.397   7.386
80995SOL     OW44817  13.496   0.139   7.929
80995SOL    HW144818  13.558   0.068   7.948
80995SOL    HW244819  13.422   0.096   7.887
80996SOL     OW44820   9.665  12.785  12.457
80996SOL    HW144821   9.679  12.765  12.365
80996SOL    HW244822   9.645  12.879  12.459
80997SOL     OW44823   1.269  14.533  13.587
80997SOL    HW144824   1.268  14.446  13.547
80997SOL    HW244825   1.288  14.593  13.515
80998SOL     OW44826   3.264  13.885   9.045
80998SOL    HW144827   3.186  13.876   8.990
80998SOL    HW244828   3.280  13.980   9.047
80999SOL     OW44829   7.896  14.753   0.060
80999SOL    HW144830   7.952  14.676   0.068
80999SOL    HW244831   7.812  14.725   0.094
81000SOL     OW44832   9.137  10.031   4.858
81000SOL    HW144833   9.067   9.967   4.846
81000SOL    HW244834   9.163  10.021   4.950
81001SOL     OW44835   8.427   2.812   3.515
81001SOL    HW144836   8.339   2.784   3.490
81001SOL    HW244837   8.452   2.752   3.585
81002SOL     OW44838   2.187  10.024   7.084
81002SOL    HW144839   2.246  10.029   7.159
81002SOL    HW244840   2.191   9.933   7.056
81003SOL     OW44841   0.783  10.301   8.068
81003SOL    HW144842   0.715  10.345   8.119
81003SOL    HW244843   0.795  10.217   8.112
81004SOL     OW44844   2.088   2.398   6.437
81004SOL    HW144845   2.021   2.358   6.381
81004SOL    HW244846   2.135   2.458   6.379
81005SOL     OW44847  10.777   3.261   8.227
81005SOL    HW144848  10.837   3.276   8.300
81005SOL    HW244849  10.690   3.263   8.266
81006SOL     OW44850  11.157   6.697   4.441
81006SOL    HW144851  11.065   6.683   4.465
81006SOL    HW244852  11.162   6.674   4.349
81007SOL     OW44853  14.014   2.218  14.860
81007SOL    HW144854  14.068   2.275  14.805
81007SOL    HW244855  14.049   2.230   0.075
81008SOL     OW44856   4.840  10.767   3.668
81008SOL    HW144857   4.780  10.834   3.635
81008SOL    HW244858   4.785  10.711   3.724
81009SOL     OW44859   7.691   2.503   0.176
81009SOL    HW144860   7.677   2.465   0.089
81009SOL    HW244861   7.776   2.546   0.170
81010SOL     OW44862   8.550   2.984   7.037
81010SOL    HW144863   8.497   2.934   7.099
81010SOL    HW244864   8.640   2.968   7.065
81011SOL     OW44865  12.115   2.147   9.494
81011SOL    HW144866  12.024   2.173   9.510
81011SOL    HW244867  12.131   2.172   9.404
81012SOL     OW44868   8.249  14.752   6.393
81012SOL    HW144869   8.315  14.711   6.336
81012SOL    HW244870   8.288  14.836   6.417
81013SOL     OW44871   5.421  14.518   0.652
81013SOL    HW144872   5.502  14.504   0.702
81013SOL    HW244873   5.439  14.481   0.566
81014SOL     OW44874   2.919  12.843   3.032
81014SOL    HW144875   2.862  12.797   3.093
81014SOL    HW244876   2.992  12.873   3.085
81015SOL     OW44877   1.633  11.590  11.136
81015SOL    HW144878   1.623  11.642  11.216
81015SOL    HW244879   1.631  11.499  11.165
81016SOL     OW44880   2.207   2.705   6.904
81016SOL    HW144881   2.261   2.636   6.944
81016SOL    HW244882   2.212   2.778   6.965
81017SOL     OW44883   2.614   9.329  10.275
81017SOL    HW144884   2.559   9.389  10.224
81017SOL    HW244885   2.559   9.303  10.349
81018SOL     OW44886  14.515  11.277  14.823
81018SOL    HW144887  14.507  11.372  14.836
81018SOL    HW244888  14.452  11.257  14.754
81019SOL     OW44889   9.358   3.541  13.643
81019SOL    HW144890   9.292   3.509  13.582
81019SOL    HW244891   9.321   3.622  13.677
81020SOL     OW44892   7.385  10.520   2.235
81020SOL    HW144893   7.383  10.611   2.266
81020SOL    HW244894   7.396  10.528   2.141
81021SOL     OW44895  11.261   4.504   8.087
81021SOL    HW144896  11.324   4.493   8.016
81021SOL    HW244897  11.315   4.512   8.166
81022SOL     OW44898   5.209   9.850   6.033
81022SOL    HW144899   5.118   9.868   6.058
81022SOL    HW244900   5.261   9.892   6.101
81023SOL     OW44901  14.298  10.081   5.521
81023SOL    HW144902  14.229  10.121   5.469
81023SOL    HW244903  14.256  10.006   5.563
81024SOL     OW44904   1.571   6.128   1.254
81024SOL    HW144905   1.598   6.205   1.204
81024SOL    HW244906   1.645   6.068   1.247
81025SOL     OW44907   3.433  12.317   6.935
81025SOL    HW144908   3.441  12.388   6.872
81025SOL    HW244909   3.338  12.305   6.946
81026SOL     OW44910  14.517   9.583  10.273
81026SOL    HW144911  14.473   9.497  10.271
81026SOL    HW244912  14.554   9.589  10.361
81027SOL     OW44913   5.766  12.241   7.361
81027SOL    HW144914   5.817  12.182   7.306
81027SOL    HW244915   5.697  12.185   7.398
81028SOL     OW44916   9.857   0.955   6.743
81028SOL    HW144917   9.781   0.903   6.767
81028SOL    HW244918   9.918   0.892   6.703
81029SOL     OW44919   7.450   5.491  11.676
81029SOL    HW144920   7.442   5.463  11.584
81029SOL    HW244921   7.540   5.520  11.684
81030SOL     OW44922   2.061   7.808   9.301
81030SOL    HW144923   2.056   7.890   9.350
81030SOL    HW244924   2.155   7.787   9.299
81031SOL     OW44925  14.447   2.058  10.870
81031SOL    HW144926  14.382   2.127  10.856
81031SOL    HW244927  14.499   2.088  10.944
81032SOL     OW44928   4.933   7.686   2.095
81032SOL    HW144929   4.915   7.687   2.189
81032SOL    HW244930   4.936   7.778   2.070
81033SOL     OW44931   9.390  14.406   4.050
81033SOL    HW144932   9.384  14.323   4.003
81033SOL    HW244933   9.478  14.438   4.031
81034SOL     OW44934  10.776   4.350  11.302
81034SOL    HW144935  10.841   4.307  11.247
81034SOL    HW244936  10.785   4.443  11.280
81035SOL     OW44937   7.854   6.780  14.752
81035SOL    HW144938   7.936   6.730  14.755
81035SOL    HW244939   7.860   6.840  14.826
81036SOL     OW44940   3.460   4.672  11.516
81036SOL    HW144941   3.421   4.669  11.428
81036SOL    HW244942   3.534   4.732  11.507
81037SOL     OW44943   2.364   1.983   4.768
81037SOL    HW144944   2.338   2.032   4.847
81037SOL    HW244945   2.403   1.903   4.802
81038SOL     OW44946   7.233  13.327   3.187
81038SOL    HW144947   7.217  13.382   3.263
81038SOL    HW244948   7.184  13.247   3.204
81039SOL     OW44949  13.720  14.190   3.109
81039SOL    HW144950  13.707  14.285   3.109
81039SOL    HW244951  13.651  14.156   3.050
81040SOL     OW44952   8.755   1.433  14.336
81040SOL    HW144953   8.699   1.360  14.364
81040SOL    HW244954   8.806   1.398  14.263
81041SOL     OW44955   2.356   7.927  13.960
81041SOL    HW144956   2.377   8.016  13.990
81041SOL    HW244957   2.400   7.919  13.875
81042SOL     OW44958  14.807   0.196   4.379
81042SOL    HW144959  14.818   0.291   4.376
81042SOL    HW244960  14.814   0.173   4.472
81043SOL     OW44961   5.011   2.239   1.462
81043SOL    HW144962   5.067   2.162   1.463
81043SOL    HW244963   5.067   2.310   1.495
81044SOL     OW44964   6.217   8.922  11.082
81044SOL    HW144965   6.267   8.934  11.162
81044SOL    HW244966   6.282   8.928  11.012
81045SOL     OW44967   5.485  14.852   4.834
81045SOL    HW144968   5.535  14.843   4.915
81045SOL    HW244969   5.539  14.810   4.767
81046SOL     OW44970  10.677   8.219  13.791
81046SOL    HW144971  10.679   8.285  13.861
81046SOL    HW244972  10.717   8.141  13.830
81047SOL     OW44973   0.223   6.343   4.791
81047SOL    HW144974   0.156   6.305   4.734
81047SOL    HW244975   0.301   6.291   4.774
81048SOL     OW44976   6.994   6.417   4.667
81048SOL    HW144977   6.919   6.402   4.724
81048SOL    HW244978   6.960   6.473   4.597
81049SOL     OW44979   6.628   4.208   8.558
81049SOL    HW144980   6.678   4.148   8.503
81049SOL    HW244981   6.537   4.187   8.540
81050SOL     OW44982   3.204   7.992  10.795
81050SOL    HW144983   3.181   8.070  10.845
81050SOL    HW244984   3.298   7.982  10.807
81051SOL     OW44985   6.548  10.582   1.254
81051SOL    HW144986   6.504  10.645   1.311
81051SOL    HW244987   6.508  10.498   1.276
81052SOL     OW44988   0.046  14.553   5.518
81052SOL    HW144989   0.023  14.604   5.440
81052SOL    HW244990  14.837  14.547   5.568
81053SOL     OW44991   4.497  13.357   9.913
81053SOL    HW144992   4.552  13.433   9.932
81053SOL    HW244993   4.553  13.300   9.859
81054SOL     OW44994  14.283   4.385   4.675
81054SOL    HW144995  14.313   4.343   4.595
81054SOL    HW244996  14.364   4.407   4.723
81055SOL     OW44997   4.248   1.501   6.916
81055SOL    HW144998   4.224   1.443   6.844
81055SOL    HW244999   4.313   1.452   6.966
81056SOL     OW45000  13.734  12.921  13.066
81056SOL    HW145001  13.780  12.930  12.982
81056SOL    HW245002  13.722  13.011  13.096
81057SOL     OW45003   8.718  12.851   4.843
81057SOL    HW145004   8.706  12.900   4.762
81057SOL    HW245005   8.812  12.837   4.849
81058SOL     OW45006   0.861   4.084   2.031
81058SOL    HW145007   0.892   4.173   2.011
81058SOL    HW245008   0.942   4.033   2.039
81059SOL     OW45009   9.849   6.355  12.088
81059SOL    HW145010   9.771   6.396  12.049
81059SOL    HW245011   9.922   6.407  12.054
81060SOL     OW45012   5.161   7.344  14.752
81060SOL    HW145013   5.190   7.304  14.671
81060SOL    HW245014   5.067   7.330  14.754
81061SOL     OW45015  14.164   2.137   9.536
81061SOL    HW145016  14.126   2.195   9.469
81061SOL    HW245017  14.236   2.187   9.573
81062SOL     OW45018  11.013   8.957  12.395
81062SOL    HW145019  10.934   9.008  12.378
81062SOL    HW245020  11.083   9.007  12.354
81063SOL     OW45021   8.627   9.741  13.218
81063SOL    HW145022   8.579   9.824  13.211
81063SOL    HW245023   8.615   9.715  13.310
81064SOL     OW45024   3.557   5.417  10.610
81064SOL    HW145025   3.640   5.401  10.657
81064SOL    HW245026   3.548   5.342  10.552
81065SOL     OW45027   0.296   2.895   2.357
81065SOL    HW145028   0.387   2.888   2.387
81065SOL    HW245029   0.279   2.812   2.314
81066SOL     OW45030   4.442   3.218  14.212
81066SOL    HW145031   4.506   3.288  14.205
81066SOL    HW245032   4.431   3.186  14.123
81067SOL     OW45033  11.844   1.227   6.078
81067SOL    HW145034  11.751   1.240   6.092
81067SOL    HW245035  11.849   1.163   6.007
81068SOL     OW45036  10.669  13.908  11.695
81068SOL    HW145037  10.746  13.852  11.702
81068SOL    HW245038  10.595  13.851  11.719
81069SOL     OW45039   8.572   9.220   3.689
81069SOL    HW145040   8.519   9.187   3.616
81069SOL    HW245041   8.652   9.252   3.648
81070SOL     OW45042   0.394  11.077   4.259
81070SOL    HW145043   0.430  11.004   4.209
81070SOL    HW245044   0.323  11.039   4.310
81071SOL     OW45045  13.436   1.227   6.244
81071SOL    HW145046  13.505   1.166   6.217
81071SOL    HW245047  13.359   1.172   6.257
81072SOL     OW45048   8.582   8.569   3.368
81072SOL    HW145049   8.664   8.580   3.416
81072SOL    HW245050   8.561   8.657   3.336
81073SOL     OW45051  10.175  13.527   6.452
81073SOL    HW145052  10.082  13.542   6.467
81073SOL    HW245053  10.189  13.435   6.477
81074SOL     OW45054  10.832   9.547  13.749
81074SOL    HW145055  10.752   9.539  13.697
81074SOL    HW245056  10.879   9.465  13.735
81075SOL     OW45057   7.526  13.617  14.745
81075SOL    HW145058   7.592  13.638  14.680
81075SOL    HW245059   7.536  13.685  14.812
81076SOL     OW45060   1.228  10.817  13.203
81076SOL    HW145061   1.238  10.894  13.257
81076SOL    HW245062   1.154  10.769  13.241
81077SOL     OW45063   5.821   7.857   1.686
81077SOL    HW145064   5.891   7.855   1.621
81077SOL    HW245065   5.853   7.913   1.756
81078SOL     OW45066   5.197  13.892  10.586
81078SOL    HW145067   5.285  13.911  10.620
81078SOL    HW245068   5.149  13.974  10.596
81079SOL     OW45069  11.162   4.866   8.794
81079SOL    HW145070  11.086   4.842   8.741
81079SOL    HW245071  11.132   4.861   8.885
81080SOL     OW45072   1.689   6.703  10.109
81080SOL    HW145073   1.625   6.641  10.073
81080SOL    HW245074   1.654   6.726  10.195
81081SOL     OW45075   2.246   3.544   5.283
81081SOL    HW145076   2.176   3.578   5.227
81081SOL    HW245077   2.297   3.487   5.225
81082SOL     OW45078  11.448   1.051   0.724
81082SOL    HW145079  11.514   1.091   0.667
81082SOL    HW245080  11.391   1.002   0.665
81083SOL     OW45081  11.256  10.217   4.884
81083SOL    HW145082  11.279  10.165   4.807
81083SOL    HW245083  11.299  10.301   4.870
81084SOL     OW45084  13.578   3.984  13.060
81084SOL    HW145085  13.512   4.004  12.993
81084SOL    HW245086  13.589   3.889  13.056
81085SOL     OW45087  13.713   0.440  12.051
81085SOL    HW145088  13.658   0.367  12.020
81085SOL    HW245089  13.789   0.397  12.092
81086SOL     OW45090   3.906  10.370   4.962
81086SOL    HW145091   3.994  10.398   4.989
81086SOL    HW245092   3.851  10.386   5.039
81087SOL     OW45093  12.283   9.485   4.830
81087SOL    HW145094  12.209   9.519   4.882
81087SOL    HW245095  12.246   9.410   4.782
81088SOL     OW45096  10.449   5.631   0.161
81088SOL    HW145097  10.405   5.640   0.076
81088SOL    HW245098  10.445   5.537   0.181
81089SOL     OW45099   2.761  12.298   1.689
81089SOL    HW145100   2.695  12.236   1.657
81089SOL    HW245101   2.823  12.243   1.737
81090SOL     OW45102   7.237   4.293   5.040
81090SOL    HW145103   7.255   4.224   5.104
81090SOL    HW245104   7.204   4.366   5.092
81091SOL     OW45105  14.504   5.990   4.837
81091SOL    HW145106  14.417   5.990   4.796
81091SOL    HW245107  14.504   5.912   4.891
81092SOL     OW45108   2.863   9.045  10.859
81092SOL    HW145109   2.873   9.096  10.939
81092SOL    HW245110   2.892   9.103  10.789
81093SOL     OW45111  14.294  12.795  13.215
81093SOL    HW145112  14.203  12.770  13.198
81093SOL    HW245113  14.311  12.865  13.152
81094SOL     OW45114   3.230  10.023   0.566
81094SOL    HW145115   3.152  10.075   0.585
81094SOL    HW245116   3.217   9.992   0.476
81095SOL     OW45117  13.354   5.098   9.726
81095SOL    HW145118  13.333   5.143   9.808
81095SOL    HW245119  13.449   5.092   9.725
81096SOL     OW45120   8.810   1.163   6.448
81096SOL    HW145121   8.755   1.175   6.371
81096SOL    HW245122   8.763   1.207   6.518
81097SOL     OW45123   9.431   5.995  14.275
81097SOL    HW145124   9.520   5.969  14.253
81097SOL    HW245125   9.411   5.946  14.355
81098SOL     OW45126  12.125   0.845  11.176
81098SOL    HW145127  12.133   0.904  11.102
81098SOL    HW245128  12.053   0.786  11.152
81099SOL     OW45129   3.416   6.388   0.156
81099SOL    HW145130   3.396   6.475   0.120
81099SOL    HW245131   3.341   6.334   0.129
81100SOL     OW45132   1.133   0.656  11.668
81100SOL    HW145133   1.212   0.675  11.617
81100SOL    HW245134   1.091   0.741  11.681
81101SOL     OW45135  13.086   9.529  12.803
81101SOL    HW145136  13.171   9.569  12.783
81101SOL    HW245137  13.038   9.531  12.720
81102SOL     OW45138   8.753   7.116   1.019
81102SOL    HW145139   8.726   7.149   1.104
81102SOL    HW245140   8.764   7.022   1.031
81103SOL     OW45141  13.897   2.580   9.311
81103SOL    HW145142  13.900   2.559   9.404
81103SOL    HW245143  13.910   2.496   9.267
81104SOL     OW45144   3.653   1.607  10.383
81104SOL    HW145145   3.689   1.518  10.381
81104SOL    HW245146   3.571   1.599  10.432
81105SOL     OW45147   9.580  11.930   0.338
81105SOL    HW145148   9.497  11.956   0.378
81105SOL    HW245149   9.617  12.012   0.304
81106SOL     OW45150   2.196   9.968  12.823
81106SOL    HW145151   2.176   9.999  12.735
81106SOL    HW245152   2.136   9.895  12.837
81107SOL     OW45153   4.991  13.888  13.315
81107SOL    HW145154   4.930  13.918  13.248
81107SOL    HW245155   5.032  13.811  13.277
81108SOL     OW45156   0.477  10.666   7.128
81108SOL    HW145157   0.506  10.624   7.047
81108SOL    HW245158   0.527  10.623   7.197
81109SOL     OW45159   6.332   6.526  14.571
81109SOL    HW145160   6.334   6.540  14.665
81109SOL    HW245161   6.392   6.592  14.536
81110SOL     OW45162  11.091   3.520   2.444
81110SOL    HW145163  11.182   3.532   2.418
81110SOL    HW245164  11.090   3.435   2.488
81111SOL     OW45165  12.512   0.155  12.934
81111SOL    HW145166  12.542   0.229  12.988
81111SOL    HW245167  12.507   0.191  12.846
81112SOL     OW45168  13.950   2.855   4.095
81112SOL    HW145169  13.905   2.778   4.130
81112SOL    HW245170  14.025   2.819   4.047
81113SOL     OW45171   2.863   1.050  14.799
81113SOL    HW145172   2.927   1.105  14.756
81113SOL    HW245173   2.911   0.970  14.822
81114SOL     OW45174   0.334  12.115   1.866
81114SOL    HW145175   0.387  12.142   1.941
81114SOL    HW245176   0.374  12.159   1.791
81115SOL     OW45177   0.072   8.736   4.827
81115SOL    HW145178   0.133   8.728   4.901
81115SOL    HW245179  14.868   8.780   4.864
81116SOL     OW45180   9.350   9.828   3.194
81116SOL    HW145181   9.436   9.857   3.164
81116SOL    HW245182   9.320   9.769   3.124
81117SOL     OW45183   5.102  13.221  10.195
81117SOL    HW145184   5.120  13.290  10.258
81117SOL    HW245185   5.040  13.163  10.241
81118SOL     OW45186  14.070  12.708   0.215
81118SOL    HW145187  14.011  12.633   0.223
81118SOL    HW245188  14.026  12.779   0.262
81119SOL     OW45189   6.770   1.341   1.076
81119SOL    HW145190   6.859   1.314   1.099
81119SOL    HW245191   6.726   1.350   1.160
81120SOL     OW45192   7.231   8.324   6.889
81120SOL    HW145193   7.177   8.348   6.814
81120SOL    HW245194   7.182   8.354   6.965
81121SOL     OW45195   5.647   3.119  13.054
81121SOL    HW145196   5.736   3.137  13.024
81121SOL    HW245197   5.627   3.192  13.113
81122SOL     OW45198   7.977   0.500   1.239
81122SOL    HW145199   8.053   0.557   1.234
81122SOL    HW245200   8.010   0.413   1.213
81123SOL     OW45201   5.535   3.321   0.655
81123SOL    HW145202   5.567   3.262   0.588
81123SOL    HW245203   5.481   3.267   0.712
81124SOL     OW45204   2.901   3.941  10.031
81124SOL    HW145205   2.848   3.943   9.951
81124SOL    HW245206   2.895   4.030  10.066
81125SOL     OW45207   7.725  12.660   8.569
81125SOL    HW145208   7.638  12.679   8.605
81125SOL    HW245209   7.734  12.720   8.495
81126SOL     OW45210  10.636  13.886   2.318
81126SOL    HW145211  10.641  13.861   2.410
81126SOL    HW245212  10.648  13.805   2.269
81127SOL     OW45213   8.719   6.602   1.968
81127SOL    HW145214   8.811   6.610   1.940
81127SOL    HW245215   8.709   6.669   2.035
81128SOL     OW45216  12.507  14.360   1.921
81128SOL    HW145217  12.422  14.317   1.931
81128SOL    HW245218  12.561  14.296   1.875
81129SOL     OW45219   8.634   2.052   8.214
81129SOL    HW145220   8.660   2.129   8.165
81129SOL    HW245221   8.665   2.069   8.303
81130SOL     OW45222  12.149  10.609   3.172
81130SOL    HW145223  12.138  10.617   3.266
81130SOL    HW245224  12.069  10.567   3.141
81131SOL     OW45225   5.423   6.817   3.889
81131SOL    HW145226   5.369   6.756   3.939
81131SOL    HW245227   5.362   6.860   3.829
81132SOL     OW45228   6.376   5.409  10.541
81132SOL    HW145229   6.356   5.502  10.535
81132SOL    HW245230   6.443   5.403  10.609
81133SOL     OW45231   2.912   6.764   5.864
81133SOL    HW145232   2.903   6.840   5.922
81133SOL    HW245233   2.911   6.689   5.923
81134SOL     OW45234   2.994   4.507   1.072
81134SOL    HW145235   3.082   4.535   1.048
81134SOL    HW245236   2.943   4.516   0.991
81135SOL     OW45237   9.351   9.099  14.643
81135SOL    HW145238   9.292   9.025  14.658
81135SOL    HW245239   9.314   9.143  14.567
81136SOL     OW45240  11.111  14.759   8.900
81136SOL    HW145241  11.073  14.677   8.929
81136SOL    HW245242  11.160  14.791   8.976
81137SOL     OW45243  14.422   3.960   3.043
81137SOL    HW145244  14.477   4.018   2.991
81137SOL    HW245245  14.459   3.964   3.131
81138SOL     OW45246  13.042  13.145  11.864
81138SOL    HW145247  13.033  13.061  11.819
81138SOL    HW245248  12.965  13.150  11.921
81139SOL     OW45249   2.867   9.389   6.280
81139SOL    HW145250   2.775   9.374   6.258
81139SOL    HW245251   2.876   9.358   6.370
81140SOL     OW45252  10.343   3.925  13.304
81140SOL    HW145253  10.361   4.012  13.268
81140SOL    HW245254  10.415   3.910  13.366
81141SOL     OW45255  12.394   2.794  11.767
81141SOL    HW145256  12.330   2.864  11.752
81141SOL    HW245257  12.341   2.714  11.770
81142SOL     OW45258  13.623   8.705   5.843
81142SOL    HW145259  13.696   8.674   5.790
81142SOL    HW245260  13.545   8.684   5.792
81143SOL     OW45261   9.923   4.963   8.557
81143SOL    HW145262  10.007   4.968   8.512
81143SOL    HW245263   9.945   4.957   8.650
81144SOL     OW45264   1.681   9.010   6.478
81144SOL    HW145265   1.732   8.984   6.401
81144SOL    HW245266   1.599   8.962   6.470
81145SOL     OW45267   9.144   7.215   2.574
81145SOL    HW145268   9.091   7.224   2.653
81145SOL    HW245269   9.192   7.133   2.586
81146SOL     OW45270  11.373   1.852   4.616
81146SOL    HW145271  11.444   1.917   4.625
81146SOL    HW245272  11.294   1.905   4.607
81147SOL     OW45273   9.698  13.894   9.700
81147SOL    HW145274   9.696  13.843   9.781
81147SOL    HW245275   9.606  13.905   9.675
81148SOL     OW45276   6.270  14.749  11.944
81148SOL    HW145277   6.273  14.701  11.861
81148SOL    HW245278   6.198  14.811  11.934
81149SOL     OW45279  13.363   0.513   1.521
81149SOL    HW145280  13.290   0.575   1.519
81149SOL    HW245281  13.332   0.442   1.577
81150SOL     OW45282   4.823   3.690   5.532
81150SOL    HW145283   4.789   3.780   5.539
81150SOL    HW245284   4.782   3.643   5.604
81151SOL     OW45285   1.868  14.868   7.470
81151SOL    HW145286   1.885  14.777   7.495
81151SOL    HW245287   1.946   0.043   7.498
81152SOL     OW45288   9.174   8.573   9.558
81152SOL    HW145289   9.175   8.496   9.502
81152SOL    HW245290   9.086   8.609   9.548
81153SOL     OW45291   2.424   8.214  12.431
81153SOL    HW145292   2.474   8.142  12.391
81153SOL    HW245293   2.397   8.269  12.357
81154SOL     OW45294   0.570   4.927   1.811
81154SOL    HW145295   0.571   4.871   1.733
81154SOL    HW245296   0.500   4.990   1.794
81155SOL     OW45297  14.813  13.043   8.944
81155SOL    HW145298  14.722  13.013   8.944
81155SOL    HW245299  14.864  12.965   8.963
81156SOL     OW45300  11.980  14.644   5.232
81156SOL    HW145301  11.973  14.551   5.253
81156SOL    HW245302  11.891  14.678   5.242
81157SOL     OW45303   2.763   8.139   8.681
81157SOL    HW145304   2.806   8.224   8.690
81157SOL    HW245305   2.799   8.103   8.601
81158SOL     OW45306   5.710   4.650  13.876
81158SOL    HW145307   5.805   4.653  13.865
81158SOL    HW245308   5.696   4.579  13.939
81159SOL     OW45309   2.026   3.969  14.864
81159SOL    HW145310   2.077   3.966  14.783
81159SOL    HW245311   1.934   3.970  14.835
81160SOL     OW45312   3.292   1.812  14.011
81160SOL    HW145313   3.222   1.823  14.075
81160SOL    HW245314   3.278   1.882  13.947
81161SOL     OW45315  13.597  12.793  10.437
81161SOL    HW145316  13.516  12.788  10.386
81161SOL    HW245317  13.644  12.869  10.402
81162SOL     OW45318   1.884   5.037  12.103
81162SOL    HW145319   1.966   5.006  12.064
81162SOL    HW245320   1.817   5.008  12.042
81163SOL     OW45321   2.855   3.610   9.239
81163SOL    HW145322   2.840   3.645   9.151
81163SOL    HW245323   2.887   3.685   9.289
81164SOL     OW45324   3.647  12.661   8.655
81164SOL    HW145325   3.621  12.577   8.619
81164SOL    HW245326   3.566  12.711   8.662
81165SOL     OW45327   1.852   9.886   4.543
81165SOL    HW145328   1.919   9.924   4.486
81165SOL    HW245329   1.899   9.860   4.622
81166SOL     OW45330   8.406   3.615   7.314
81166SOL    HW145331   8.478   3.566   7.277
81166SOL    HW245332   8.343   3.548   7.343
81167SOL     OW45333  12.270   3.699   7.142
81167SOL    HW145334  12.236   3.781   7.178
81167SOL    HW245335  12.235   3.695   7.053
81168SOL     OW45336   6.709  14.600   1.225
81168SOL    HW145337   6.660  14.527   1.263
81168SOL    HW245338   6.781  14.559   1.178
81169SOL     OW45339   5.609   2.608  14.493
81169SOL    HW145340   5.606   2.539  14.560
81169SOL    HW245341   5.579   2.565  14.413
81170SOL     OW45342   0.721   9.312  12.679
81170SOL    HW145343   0.772   9.305  12.759
81170SOL    HW245344   0.782   9.348  12.615
81171SOL     OW45345   8.819   8.433   2.999
81171SOL    HW145346   8.887   8.454   3.063
81171SOL    HW245347   8.867   8.420   2.917
81172SOL     OW45348   3.751  14.085   5.085
81172SOL    HW145349   3.761  14.102   4.992
81172SOL    HW245350   3.672  14.135   5.110
81173SOL     OW45351  11.117  11.407   4.114
81173SOL    HW145352  11.078  11.341   4.056
81173SOL    HW245353  11.199  11.367   4.144
81174SOL     OW45354   5.515  10.420  11.655
81174SOL    HW145355   5.434  10.472  11.649
81174SOL    HW245356   5.529  10.408  11.749
81175SOL     OW45357   5.952  10.916   1.130
81175SOL    HW145358   5.909  10.900   1.046
81175SOL    HW245359   5.935  11.008   1.149
81176SOL     OW45360   1.110   8.965   1.894
81176SOL    HW145361   1.103   9.056   1.864
81176SOL    HW245362   1.202   8.956   1.920
81177SOL     OW45363  14.373  10.350   1.399
81177SOL    HW145364  14.364  10.256   1.414
81177SOL    HW245365  14.284  10.384   1.399
81178SOL     OW45366  11.874  14.612   8.550
81178SOL    HW145367  11.876  14.623   8.645
81178SOL    HW245368  11.885  14.701   8.515
81179SOL     OW45369   7.174  13.294   1.404
81179SOL    HW145370   7.182  13.199   1.413
81179SOL    HW245371   7.127  13.322   1.482
81180SOL     OW45372  12.440   9.553  14.787
81180SOL    HW145373  12.479   9.484  14.841
81180SOL    HW245374  12.455   9.524  14.697
81181SOL     OW45375   9.652   1.541   5.717
81181SOL    HW145376   9.658   1.453   5.680
81181SOL    HW245377   9.597   1.589   5.655
81182SOL     OW45378  12.453   4.451   9.945
81182SOL    HW145379  12.408   4.458   9.861
81182SOL    HW245380  12.546   4.460   9.923
81183SOL     OW45381   2.712  10.254   0.663
81183SOL    HW145382   2.736  10.306   0.586
81183SOL    HW245383   2.681  10.318   0.727
81184SOL     OW45384  14.471   2.527  13.886
81184SOL    HW145385  14.556   2.542  13.929
81184SOL    HW245386  14.458   2.604  13.831
81185SOL     OW45387   0.390  10.389   0.212
81185SOL    HW145388   0.419  10.470   0.170
81185SOL    HW245389   0.296  10.401   0.224
81186SOL     OW45390   0.908   7.612   6.076
81186SOL    HW145391   0.981   7.578   6.025
81186SOL    HW245392   0.849   7.537   6.086
81187SOL     OW45393   6.332   9.002  13.184
81187SOL    HW145394   6.276   9.039  13.253
81187SOL    HW245395   6.360   8.917  13.219
81188SOL     OW45396   3.775  11.976  13.323
81188SOL    HW145397   3.769  11.882  13.309
81188SOL    HW245398   3.818  11.985  13.408
81189SOL     OW45399   5.471   7.969   5.728
81189SOL    HW145400   5.464   7.937   5.638
81189SOL    HW245401   5.509   8.056   5.720
81190SOL     OW45402   6.156  12.609  10.099
81190SOL    HW145403   6.159  12.704  10.104
81190SOL    HW245404   6.231  12.580  10.151
81191SOL     OW45405   6.005   6.751  13.267
81191SOL    HW145406   6.022   6.668  13.223
81191SOL    HW245407   6.086   6.770  13.315
81192SOL     OW45408  11.154   3.474  12.346
81192SOL    HW145409  11.082   3.523  12.386
81192SOL    HW245410  11.115   3.430  12.271
81193SOL     OW45411  11.470   0.867   4.516
81193SOL    HW145412  11.381   0.846   4.546
81193SOL    HW245413  11.457   0.920   4.438
81194SOL     OW45414   3.853   6.883   7.902
81194SOL    HW145415   3.832   6.948   7.834
81194SOL    HW245416   3.776   6.826   7.905
81195SOL     OW45417  14.329   5.810   3.300
81195SOL    HW145418  14.292   5.834   3.385
81195SOL    HW245419  14.317   5.715   3.296
81196SOL     OW45420   0.141  14.101  12.827
81196SOL    HW145421   0.138  14.184  12.779
81196SOL    HW245422   0.188  14.041  12.768
81197SOL     OW45423   5.973   1.076   4.675
81197SOL    HW145424   5.928   1.117   4.749
81197SOL    HW245425   5.903   1.055   4.613
81198SOL     OW45426  11.027   7.269  11.329
81198SOL    HW145427  11.084   7.209  11.377
81198SOL    HW245428  11.057   7.356  11.352
81199SOL     OW45429   3.705   1.589   7.266
81199SOL    HW145430   3.760   1.528   7.216
81199SOL    HW245431   3.737   1.583   7.356
81200SOL     OW45432   5.190  13.189   2.792
81200SOL    HW145433   5.122  13.237   2.839
81200SOL    HW245434   5.241  13.257   2.747
81201SOL     OW45435  12.064  12.206  11.083
81201SOL    HW145436  12.027  12.221  11.171
81201SOL    HW245437  11.991  12.224  11.024
81202SOL     OW45438  10.106   1.534   2.536
81202SOL    HW145439  10.180   1.588   2.562
81202SOL    HW245440  10.100   1.546   2.441
81203SOL     OW45441  11.708   1.137  10.153
81203SOL    HW145442  11.622   1.165  10.185
81203SOL    HW245443  11.690   1.061  10.099
81204SOL     OW45444   5.277   5.981   0.462
81204SOL    HW145445   5.264   6.055   0.402
81204SOL    HW245446   5.370   5.986   0.487
81205SOL     OW45447  11.967   5.575   4.055
81205SOL    HW145448  12.020   5.632   4.112
81205SOL    HW245449  11.915   5.636   4.002
81206SOL     OW45450   2.332   6.453  11.467
81206SOL    HW145451   2.345   6.547  11.457
81206SOL    HW245452   2.254   6.445  11.522
81207SOL     OW45453  13.282   7.215   5.405
81207SOL    HW145454  13.332   7.262   5.338
81207SOL    HW245455  13.190   7.228   5.379
81208SOL     OW45456   9.630  10.163  14.228
81208SOL    HW145457   9.597  10.082  14.188
81208SOL    HW245458   9.641  10.141  14.320
81209SOL     OW45459  10.079   7.169   0.156
81209SOL    HW145460  10.028   7.201   0.082
81209SOL    HW245461  10.145   7.112   0.117
81210SOL     OW45462  14.219   3.293  12.378
81210SOL    HW145463  14.132   3.257  12.393
81210SOL    HW245464  14.207   3.388  12.384
81211SOL     OW45465  12.665  11.409   5.525
81211SOL    HW145466  12.694  11.498   5.505
81211SOL    HW245467  12.570  11.416   5.535
81212SOL     OW45468   5.351   7.686   6.979
81212SOL    HW145469   5.446   7.698   6.987
81212SOL    HW245470   5.318   7.772   6.953
81213SOL     OW45471  13.799   9.927   0.174
81213SOL    HW145472  13.782   9.834   0.189
81213SOL    HW245473  13.733   9.952   0.108
81214SOL     OW45474  11.286   2.473   5.761
81214SOL    HW145475  11.374   2.439   5.750
81214SOL    HW245476  11.296   2.548   5.818
81215SOL     OW45477   5.915   3.414   9.545
81215SOL    HW145478   5.918   3.492   9.601
81215SOL    HW245479   5.847   3.433   9.481
81216SOL     OW45480  12.788   2.280   7.859
81216SOL    HW145481  12.843   2.348   7.820
81216SOL    HW245482  12.700   2.302   7.830
81217SOL     OW45483   9.542  12.560  13.544
81217SOL    HW145484   9.516  12.556  13.636
81217SOL    HW245485   9.515  12.647  13.515
81218SOL     OW45486  11.843  14.588   4.068
81218SOL    HW145487  11.888  14.504   4.060
81218SOL    HW245488  11.824  14.613   3.978
81219SOL     OW45489   7.998  10.768  14.465
81219SOL    HW145490   8.048  10.719  14.530
81219SOL    HW245491   7.971  10.848  14.512
81220SOL     OW45492   2.723  14.430   6.442
81220SOL    HW145493   2.696  14.402   6.354
81220SOL    HW245494   2.775  14.509   6.427
81221SOL     OW45495   9.931   9.628   9.391
81221SOL    HW145496   9.940   9.634   9.296
81221SOL    HW245497   9.842   9.660   9.409
81222SOL     OW45498   3.712   3.255   8.560
81222SOL    HW145499   3.797   3.295   8.581
81222SOL    HW245500   3.713   3.246   8.465
81223SOL     OW45501   6.073   6.201   1.248
81223SOL    HW145502   6.088   6.295   1.242
81223SOL    HW245503   6.046   6.186   1.339
81224SOL     OW45504   9.255   5.694   2.996
81224SOL    HW145505   9.169   5.697   2.954
81224SOL    HW245506   9.283   5.785   3.001
81225SOL     OW45507   8.384   7.025  13.869
81225SOL    HW145508   8.397   6.951  13.930
81225SOL    HW245509   8.317   6.994  13.808
81226SOL     OW45510   1.746   7.552  10.421
81226SOL    HW145511   1.718   7.589  10.505
81226SOL    HW245512   1.835   7.519  10.438
81227SOL     OW45513   1.793   2.597  14.484
81227SOL    HW145514   1.714   2.647  14.503
81227SOL    HW245515   1.863   2.662  14.484
81228SOL     OW45516  12.147   0.720  12.831
81228SOL    HW145517  12.112   0.634  12.808
81228SOL    HW245518  12.236   0.703  12.861
81229SOL     OW45519   2.526   7.804  13.511
81229SOL    HW145520   2.470   7.849  13.447
81229SOL    HW245521   2.521   7.859  13.590
81230SOL     OW45522   5.489   4.568   9.505
81230SOL    HW145523   5.492   4.484   9.551
81230SOL    HW245524   5.397   4.593   9.506
81231SOL     OW45525   0.148  12.352   5.138
81231SOL    HW145526   0.203  12.273   5.143
81231SOL    HW245527   0.139  12.381   5.229
81232SOL     OW45528   2.680   7.272  10.459
81232SOL    HW145529   2.769   7.293  10.488
81232SOL    HW245530   2.692   7.216  10.382
81233SOL     OW45531  14.138   2.156  10.329
81233SOL    HW145532  14.064   2.104  10.361
81233SOL    HW245533  14.213   2.097  10.337
81234SOL     OW45534   9.202  12.367  14.210
81234SOL    HW145535   9.188  12.390  14.118
81234SOL    HW245536   9.115  12.374  14.250
81235SOL     OW45537   7.328   7.228  13.857
81235SOL    HW145538   7.305   7.203  13.947
81235SOL    HW245539   7.423   7.220  13.854
81236SOL     OW45540   8.248  13.779   2.054
81236SOL    HW145541   8.154  13.801   2.050
81236SOL    HW245542   8.261  13.716   1.983
81237SOL     OW45543   7.213   4.603   9.304
81237SOL    HW145544   7.266   4.581   9.227
81237SOL    HW245545   7.195   4.696   9.296
81238SOL     OW45546  14.026   6.595   6.191
81238SOL    HW145547  13.933   6.584   6.171
81238SOL    HW245548  14.031   6.582   6.286
81239SOL     OW45549   3.426   6.959  10.123
81239SOL    HW145550   3.410   6.868  10.147
81239SOL    HW245551   3.516   6.961  10.091
81240SOL     OW45552   8.338   5.933  14.673
81240SOL    HW145553   8.247   5.928  14.704
81240SOL    HW245554   8.335   5.996  14.600
81241SOL     OW45555   0.051  11.844  12.696
81241SOL    HW145556   0.018  11.917  12.749
81241SOL    HW245557   0.145  11.861  12.687
81242SOL     OW45558  13.424   4.223   5.485
81242SOL    HW145559  13.454   4.233   5.575
81242SOL    HW245560  13.461   4.140   5.456
81243SOL     OW45561   4.438  12.985   3.413
81243SOL    HW145562   4.503  12.985   3.483
81243SOL    HW245563   4.487  12.960   3.335
81244SOL     OW45564   1.913  11.167  12.831
81244SOL    HW145565   1.837  11.110  12.834
81244SOL    HW245566   1.941  11.175  12.922
81245SOL     OW45567   9.873  10.620  13.155
81245SOL    HW145568   9.855  10.617  13.249
81245SOL    HW245569   9.871  10.528  13.127
81246SOL     OW45570   3.348   0.549   9.475
81246SOL    HW145571   3.336   0.513   9.563
81246SOL    HW245572   3.417   0.613   9.484
81247SOL     OW45573  13.590   1.045   6.779
81247SOL    HW145574  13.571   1.092   6.861
81247SOL    HW245575  13.508   1.051   6.729
81248SOL     OW45576   7.996   3.351   4.458
81248SOL    HW145577   8.025   3.395   4.378
81248SOL    HW245578   8.007   3.258   4.439
81249SOL     OW45579   6.541   5.809  11.044
81249SOL    HW145580   6.612   5.872  11.030
81249SOL    HW245581   6.462   5.856  11.016
81250SOL     OW45582   2.280   2.865   6.118
81250SOL    HW145583   2.319   2.832   6.037
81250SOL    HW245584   2.202   2.811   6.131
81251SOL     OW45585  13.141  13.652   8.414
81251SOL    HW145586  13.230  13.680   8.391
81251SOL    HW245587  13.136  13.662   8.509
81252SOL     OW45588   2.561   3.576  11.873
81252SOL    HW145589   2.616   3.547  11.945
81252SOL    HW245590   2.616   3.564  11.795
81253SOL     OW45591  13.051  12.614  13.850
81253SOL    HW145592  13.065  12.695  13.800
81253SOL    HW245593  13.133  12.565  13.840
81254SOL     OW45594  13.842   9.738  13.457
81254SOL    HW145595  13.806   9.822  13.485
81254SOL    HW245596  13.862   9.750  13.364
81255SOL     OW45597   3.159   5.976  13.873
81255SOL    HW145598   3.140   6.063  13.907
81255SOL    HW245599   3.253   5.977  13.856
81256SOL     OW45600   3.036  13.048   6.709
81256SOL    HW145601   2.966  13.107   6.735
81256SOL    HW245602   3.106  13.107   6.680
81257SOL     OW45603   6.368   9.618   1.761
81257SOL    HW145604   6.414   9.545   1.721
81257SOL    HW245605   6.304   9.645   1.695
81258SOL     OW45606   9.549   2.876  13.601
81258SOL    HW145607   9.585   2.795  13.564
81258SOL    HW245608   9.541   2.935  13.526
81259SOL     OW45609  13.033   6.739   4.635
81259SOL    HW145610  13.056   6.782   4.717
81259SOL    HW245611  13.058   6.802   4.567
81260SOL     OW45612  11.656   4.222   1.274
81260SOL    HW145613  11.624   4.236   1.364
81260SOL    HW245614  11.750   4.207   1.284
81261SOL     OW45615  14.399   6.807   7.248
81261SOL    HW145616  14.332   6.801   7.317
81261SOL    HW245617  14.385   6.894   7.210
81262SOL     OW45618   6.249   0.843  10.728
81262SOL    HW145619   6.319   0.822  10.667
81262SOL    HW245620   6.185   0.891  10.676
81263SOL     OW45621   6.642   3.321   8.719
81263SOL    HW145622   6.683   3.372   8.790
81263SOL    HW245623   6.570   3.376   8.689
81264SOL     OW45624   9.163   1.801   9.035
81264SOL    HW145625   9.068   1.801   9.036
81264SOL    HW245626   9.188   1.756   9.116
81265SOL     OW45627   1.729   7.548   5.161
81265SOL    HW145628   1.792   7.495   5.210
81265SOL    HW245629   1.781   7.620   5.124
81266SOL     OW45630   3.458  12.739   1.687
81266SOL    HW145631   3.465  12.765   1.779
81266SOL    HW245632   3.447  12.644   1.690
81267SOL     OW45633   8.815  13.518   4.795
81267SOL    HW145634   8.800  13.431   4.758
81267SOL    HW245635   8.764  13.577   4.740
81268SOL     OW45636  10.300   2.597   2.429
81268SOL    HW145637  10.378   2.568   2.380
81268SOL    HW245638  10.336   2.645   2.504
81269SOL     OW45639   4.978   2.862   2.748
81269SOL    HW145640   4.984   2.790   2.685
81269SOL    HW245641   5.017   2.937   2.704
81270SOL     OW45642  11.452  11.914   2.251
81270SOL    HW145643  11.377  11.971   2.268
81270SOL    HW245644  11.414  11.828   2.237
81271SOL     OW45645  14.408   6.936  14.125
81271SOL    HW145646  14.449   6.878  14.189
81271SOL    HW245647  14.407   6.885  14.044
81272SOL     OW45648   3.528  14.429   9.870
81272SOL    HW145649   3.611  14.471   9.895
81272SOL    HW245650   3.502  14.473   9.789
81273SOL     OW45651   6.993   2.895   0.657
81273SOL    HW145652   7.082   2.930   0.647
81273SOL    HW245653   6.974   2.904   0.750
81274SOL     OW45654   0.220   0.847   6.776
81274SOL    HW145655   0.205   0.905   6.701
81274SOL    HW245656   0.221   0.759   6.738
81275SOL     OW45657   5.728  12.295  12.839
81275SOL    HW145658   5.645  12.281  12.883
81275SOL    HW245659   5.724  12.238  12.762
81276SOL     OW45660   5.428   8.553  14.523
81276SOL    HW145661   5.353   8.565  14.581
81276SOL    HW245662   5.448   8.460  14.528
81277SOL     OW45663   1.197   5.777   9.051
81277SOL    HW145664   1.257   5.845   9.022
81277SOL    HW245665   1.128   5.825   9.099
81278SOL     OW45666   6.942   9.243   2.702
81278SOL    HW145667   6.854   9.240   2.663
81278SOL    HW245668   7.001   9.223   2.629
81279SOL     OW45669   5.944   6.351  11.050
81279SOL    HW145670   5.916   6.343  10.959
81279SOL    HW245671   5.936   6.444  11.069
81280SOL     OW45672  12.714   3.631  11.068
81280SOL    HW145673  12.790   3.641  11.125
81280SOL    HW245674  12.647   3.590  11.123
81281SOL     OW45675   3.084   3.249   5.248
81281SOL    HW145676   3.151   3.290   5.194
81281SOL    HW245677   3.090   3.156   5.227
81282SOL     OW45678   8.926   1.151   0.657
81282SOL    HW145679   8.934   1.226   0.597
81282SOL    HW245680   8.863   1.180   0.723
81283SOL     OW45681  12.385  14.652   7.807
81283SOL    HW145682  12.347  14.574   7.847
81283SOL    HW245683  12.344  14.656   7.720
81284SOL     OW45684   3.414   3.312  12.316
81284SOL    HW145685   3.442   3.358  12.396
81284SOL    HW245686   3.375   3.231  12.348
81285SOL     OW45687   8.387   4.749   4.963
81285SOL    HW145688   8.462   4.750   5.022
81285SOL    HW245689   8.370   4.841   4.944
81286SOL     OW45690   7.635  10.082  13.653
81286SOL    HW145691   7.628  10.034  13.736
81286SOL    HW245692   7.655  10.015  13.588
81287SOL     OW45693   7.006   7.954  13.120
81287SOL    HW145694   7.025   7.889  13.053
81287SOL    HW245695   7.088   8.001  13.133
81288SOL     OW45696   0.386   9.706   5.862
81288SOL    HW145697   0.424   9.690   5.948
81288SOL    HW245698   0.311   9.647   5.857
81289SOL     OW45699   5.065   5.928   0.599
81289SOL    HW145700   5.150   5.956   0.563
81289SOL    HW245701   5.066   5.833   0.591
81290SOL     OW45702   1.100  11.597   1.042
81290SOL    HW145703   1.143  11.584   1.126
81290SOL    HW245704   1.095  11.692   1.032
81291SOL     OW45705  12.005   9.213   3.531
81291SOL    HW145706  12.053   9.156   3.591
81291SOL    HW245707  12.010   9.300   3.571
81292SOL     OW45708  11.410   8.616   1.801
81292SOL    HW145709  11.405   8.621   1.897
81292SOL    HW245710  11.497   8.581   1.783
81293SOL     OW45711   0.698   9.479   7.472
81293SOL    HW145712   0.730   9.458   7.385
81293SOL    HW245713   0.603   9.472   7.465
81294SOL     OW45714   7.256  13.558  14.622
81294SOL    HW145715   7.207  13.640  14.617
81294SOL    HW245716   7.346  13.585  14.640
81295SOL     OW45717   2.360   7.310   9.852
81295SOL    HW145718   2.318   7.275   9.773
81295SOL    HW245719   2.331   7.401   9.857
81296SOL     OW45720   5.987  11.109   4.540
81296SOL    HW145721   5.990  11.139   4.448
81296SOL    HW245722   6.011  11.017   4.536
81297SOL     OW45723   5.994   9.363  14.633
81297SOL    HW145724   5.945   9.390  14.556
81297SOL    HW245725   6.038   9.442  14.664
81298SOL     OW45726  13.515   5.890   4.156
81298SOL    HW145727  13.509   5.868   4.249
81298SOL    HW245728  13.586   5.835   4.123
81299SOL     OW45729   0.934   9.579  13.527
81299SOL    HW145730   0.998   9.588  13.598
81299SOL    HW245731   0.883   9.660  13.531
81300SOL     OW45732   0.739  13.272  11.475
81300SOL    HW145733   0.737  13.222  11.394
81300SOL    HW245734   0.650  13.305  11.486
81301SOL     OW45735  12.757   7.099  13.347
81301SOL    HW145736  12.776   7.166  13.281
81301SOL    HW245737  12.732   7.148  13.425
81302SOL     OW45738   2.341   8.623   7.378
81302SOL    HW145739   2.342   8.656   7.288
81302SOL    HW245740   2.248   8.625   7.402
81303SOL     OW45741   0.086  13.261   4.741
81303SOL    HW145742   0.045  13.286   4.658
81303SOL    HW245743   0.076  13.339   4.796
81304SOL     OW45744  14.696   9.076  10.687
81304SOL    HW145745  14.614   9.124  10.688
81304SOL    HW245746  14.672   8.988  10.658
81305SOL     OW45747   2.162   5.637   1.999
81305SOL    HW145748   2.179   5.582   2.075
81305SOL    HW245749   2.206   5.593   1.926
81306SOL     OW45750   2.694   1.896   8.850
81306SOL    HW145751   2.672   1.874   8.940
81306SOL    HW245752   2.674   1.817   8.800
81307SOL     OW45753  13.145   8.274   1.531
81307SOL    HW145754  13.064   8.250   1.486
81307SOL    HW245755  13.175   8.192   1.570
81308SOL     OW45756   5.194   4.674   5.678
81308SOL    HW145757   5.105   4.688   5.645
81308SOL    HW245758   5.244   4.747   5.641
81309SOL     OW45759  12.929   3.140   4.883
81309SOL    HW145760  12.875   3.143   4.804
81309SOL    HW245761  13.013   3.177   4.857
81310SOL     OW45762   3.358   9.037   3.315
81310SOL    HW145763   3.336   9.061   3.225
81310SOL    HW245764   3.354   9.120   3.363
81311SOL     OW45765   6.310   1.290  11.798
81311SOL    HW145766   6.384   1.245  11.839
81311SOL    HW245767   6.298   1.369  11.850
81312SOL     OW45768   3.508  11.096   8.583
81312SOL    HW145769   3.552  11.166   8.533
81312SOL    HW245770   3.487  11.136   8.667
81313SOL     OW45771   1.643  14.503   4.724
81313SOL    HW145772   1.584  14.551   4.667
81313SOL    HW245773   1.626  14.411   4.704
81314SOL     OW45774  10.339   8.985   3.759
81314SOL    HW145775  10.351   9.064   3.707
81314SOL    HW245776  10.290   8.925   3.702
81315SOL     OW45777   9.061  12.370   7.272
81315SOL    HW145778   9.041  12.278   7.282
81315SOL    HW245779   9.003  12.399   7.201
81316SOL     OW45780   1.424   9.271   3.314
81316SOL    HW145781   1.412   9.285   3.220
81316SOL    HW245782   1.470   9.187   3.320
81317SOL     OW45783  10.786   3.774  11.054
81317SOL    HW145784  10.823   3.702  11.104
81317SOL    HW245785  10.818   3.853  11.098
81318SOL     OW45786   5.621  12.428  10.513
81318SOL    HW145787   5.692  12.483  10.481
81318SOL    HW245788   5.657  12.340  10.515
81319SOL     OW45789   2.027  11.082   2.455
81319SOL    HW145790   2.034  11.063   2.362
81319SOL    HW245791   2.025  11.178   2.460
81320SOL     OW45792  14.040  14.691   3.896
81320SOL    HW145793  14.090  14.771   3.914
81320SOL    HW245794  14.013  14.700   3.805
81321SOL     OW45795   6.606  10.386   3.588
81321SOL    HW145796   6.524  10.421   3.623
81321SOL    HW245797   6.651  10.461   3.552
81322SOL     OW45798  12.330  10.000   1.032
81322SOL    HW145799  12.400  10.004   1.098
81322SOL    HW245800  12.250   9.989   1.083
81323SOL     OW45801   6.267   7.886   8.191
81323SOL    HW145802   6.218   7.837   8.258
81323SOL    HW245803   6.225   7.861   8.109
81324SOL     OW45804   1.387  12.378  13.433
81324SOL    HW145805   1.463  12.433  13.416
81324SOL    HW245806   1.422  12.288  13.434
81325SOL     OW45807   9.870   6.345   9.747
81325SOL    HW145808   9.837   6.282   9.812
81325SOL    HW245809   9.809   6.336   9.674
81326SOL     OW45810   5.283  11.266   6.838
81326SOL    HW145811   5.207  11.322   6.822
81326SOL    HW245812   5.326  11.306   6.914
81327SOL     OW45813  14.522   5.843   6.664
81327SOL    HW145814  14.449   5.838   6.726
81327SOL    HW245815  14.554   5.753   6.658
81328SOL     OW45816   2.475   5.799  10.566
81328SOL    HW145817   2.456   5.735  10.497
81328SOL    HW245818   2.393   5.805  10.615
81329SOL     OW45819   4.947   9.978   8.709
81329SOL    HW145820   4.862   9.948   8.742
81329SOL    HW245821   5.010   9.913   8.741
81330SOL     OW45822   7.616   9.698   0.938
81330SOL    HW145823   7.654   9.610   0.945
81330SOL    HW245824   7.573   9.712   1.023
81331SOL     OW45825   9.534   5.872   3.178
81331SOL    HW145826   9.627   5.890   3.195
81331SOL    HW245827   9.520   5.903   3.088
81332SOL     OW45828   4.353   2.486   5.922
81332SOL    HW145829   4.392   2.400   5.939
81332SOL    HW245830   4.284   2.470   5.858
81333SOL     OW45831   7.664  11.821   1.784
81333SOL    HW145832   7.580  11.862   1.764
81333SOL    HW245833   7.648  11.728   1.774
81334SOL     OW45834   4.393   3.473  13.572
81334SOL    HW145835   4.333   3.541  13.544
81334SOL    HW245836   4.428   3.505  13.656
81335SOL     OW45837   0.632   8.127   8.073
81335SOL    HW145838   0.656   8.051   8.020
81335SOL    HW245839   0.536   8.121   8.081
81336SOL     OW45840  14.671  12.640   8.487
81336SOL    HW145841  14.742  12.701   8.466
81336SOL    HW245842  14.695  12.559   8.442
81337SOL     OW45843   4.577  14.229  10.211
81337SOL    HW145844   4.535  14.314  10.199
81337SOL    HW245845   4.668  14.250  10.233
81338SOL     OW45846   2.682   6.636  10.798
81338SOL    HW145847   2.594   6.598  10.793
81338SOL    HW245848   2.713   6.636  10.707
81339SOL     OW45849  13.266  10.815   0.543
81339SOL    HW145850  13.356  10.796   0.515
81339SOL    HW245851  13.257  10.768   0.626
81340SOL     OW45852   6.715   9.570   1.190
81340SOL    HW145853   6.751   9.644   1.141
81340SOL    HW245854   6.635   9.546   1.142
81341SOL     OW45855  10.665   0.475   0.919
81341SOL    HW145856  10.712   0.392   0.918
81341SOL    HW245857  10.624   0.482   0.833
81342SOL     OW45858   3.871  12.735  10.528
81342SOL    HW145859   3.791  12.722  10.579
81342SOL    HW245860   3.901  12.647  10.507
81343SOL     OW45861  12.064  14.545  10.747
81343SOL    HW145862  12.048  14.532  10.654
81343SOL    HW245863  12.152  14.584  10.752
81344SOL     OW45864   8.095   0.139   1.143
81344SOL    HW145865   8.144   0.200   1.198
81344SOL    HW245866   8.136   0.054   1.160
81345SOL     OW45867   4.903   2.570   8.072
81345SOL    HW145868   4.861   2.495   8.116
81345SOL    HW245869   4.905   2.638   8.139
81346SOL     OW45870   5.554  14.807   5.615
81346SOL    HW145871   5.474  14.770   5.653
81346SOL    HW245872   5.621  14.791   5.681
81347SOL     OW45873  13.435  12.228  12.450
81347SOL    HW145874  13.529  12.210  12.449
81347SOL    HW245875  13.420  12.282  12.372
81348SOL     OW45876   1.636   9.276   4.436
81348SOL    HW145877   1.573   9.224   4.386
81348SOL    HW245878   1.719   9.263   4.390
81349SOL     OW45879   2.398   4.842  11.699
81349SOL    HW145880   2.461   4.809  11.763
81349SOL    HW245881   2.374   4.929  11.732
81350SOL     OW45882   1.861   3.836   4.482
81350SOL    HW145883   1.892   3.920   4.515
81350SOL    HW245884   1.827   3.791   4.560
81351SOL     OW45885   0.006   2.914   2.864
81351SOL    HW145886   0.067   2.902   2.791
81351SOL    HW245887   0.059   2.952   2.933
81352SOL     OW45888   1.132  14.299  13.155
81352SOL    HW145889   1.112  14.330  13.067
81352SOL    HW245890   1.060  14.331  13.209
81353SOL     OW45891  11.227   8.146   6.155
81353SOL    HW145892  11.303   8.181   6.201
81353SOL    HW245893  11.198   8.073   6.210
81354SOL     OW45894   3.309  13.714  10.966
81354SOL    HW145895   3.252  13.791  10.967
81354SOL    HW245896   3.368  13.728  10.892
81355SOL     OW45897   1.851  11.977   1.644
81355SOL    HW145898   1.883  11.900   1.691
81355SOL    HW245899   1.758  11.983   1.668
81356SOL     OW45900  13.539   7.971   3.509
81356SOL    HW145901  13.553   8.016   3.592
81356SOL    HW245902  13.470   8.022   3.465
81357SOL     OW45903   9.221   9.385   4.754
81357SOL    HW145904   9.259   9.375   4.841
81357SOL    HW245905   9.280   9.337   4.696
81358SOL     OW45906   9.059   2.367  11.507
81358SOL    HW145907   9.067   2.299  11.574
81358SOL    HW245908   8.971   2.402  11.518
81359SOL     OW45909   1.703   8.957   1.426
81359SOL    HW145910   1.642   8.994   1.361
81359SOL    HW245911   1.716   9.028   1.489
81360SOL     OW45912  13.593   1.041  10.085
81360SOL    HW145913  13.523   1.070  10.027
81360SOL    HW245914  13.591   1.103  10.158
81361SOL     OW45915   3.685   6.583   2.145
81361SOL    HW145916   3.729   6.651   2.093
81361SOL    HW245917   3.606   6.625   2.179
81362SOL     OW45918   4.502   6.776   1.561
81362SOL    HW145919   4.421   6.755   1.515
81362SOL    HW245920   4.566   6.792   1.492
81363SOL     OW45921  12.833   6.412  13.914
81363SOL    HW145922  12.909   6.361  13.889
81363SOL    HW245923  12.765   6.388  13.850
81364SOL     OW45924  13.470  12.187   4.853
81364SOL    HW145925  13.453  12.225   4.939
81364SOL    HW245926  13.552  12.139   4.864
81365SOL     OW45927   8.613   5.956   1.746
81365SOL    HW145928   8.591   6.044   1.776
81365SOL    HW245929   8.598   5.958   1.652
81366SOL     OW45930  12.289   5.190   5.994
81366SOL    HW145931  12.206   5.231   5.967
81366SOL    HW245932  12.305   5.123   5.928
81367SOL     OW45933  13.371   8.839   1.144
81367SOL    HW145934  13.402   8.886   1.221
81367SOL    HW245935  13.294   8.791   1.174
81368SOL     OW45936   2.659  14.710   7.978
81368SOL    HW145937   2.676  14.671   8.064
81368SOL    HW245938   2.746  14.720   7.939
81369SOL     OW45939   6.590  14.188   3.006
81369SOL    HW145940   6.531  14.166   2.934
81369SOL    HW245941   6.675  14.156   2.977
81370SOL     OW45942   3.562   8.751   9.904
81370SOL    HW145943   3.574   8.683   9.837
81370SOL    HW245944   3.631   8.815   9.886
81371SOL     OW45945   3.247  11.400  13.421
81371SOL    HW145946   3.182  11.330  13.414
81371SOL    HW245947   3.258  11.431  13.331
81372SOL     OW45948   2.383  12.864  14.244
81372SOL    HW145949   2.351  12.856  14.154
81372SOL    HW245950   2.464  12.914  14.236
81373SOL     OW45951  12.848  14.362   4.641
81373SOL    HW145952  12.911  14.424   4.677
81373SOL    HW245953  12.823  14.307   4.715
81374SOL     OW45954   2.602   7.310   0.229
81374SOL    HW145955   2.670   7.336   0.166
81374SOL    HW245956   2.641   7.327   0.314
81375SOL     OW45957   4.975  13.198   6.313
81375SOL    HW145958   4.924  13.278   6.300
81375SOL    HW245959   4.930  13.132   6.260
81376SOL     OW45960   3.540  14.268   5.596
81376SOL    HW145961   3.508  14.356   5.577
81376SOL    HW245962   3.600  14.248   5.525
81377SOL     OW45963   4.307   7.459   9.528
81377SOL    HW145964   4.390   7.422   9.558
81377SOL    HW245965   4.288   7.412   9.448
81378SOL     OW45966   7.562   5.499   3.881
81378SOL    HW145967   7.527   5.500   3.970
81378SOL    HW245968   7.593   5.410   3.868
81379SOL     OW45969  13.612   3.019  13.832
81379SOL    HW145970  13.676   2.986  13.769
81379SOL    HW245971  13.617   2.958  13.905
81380SOL     OW45972  12.898   4.863  12.542
81380SOL    HW145973  12.812   4.867  12.583
81380SOL    HW245974  12.900   4.779  12.497
81381SOL     OW45975   3.246  12.971   3.671
81381SOL    HW145976   3.286  13.044   3.719
81381SOL    HW245977   3.318  12.932   3.622
81382SOL     OW45978   1.352   6.885  13.886
81382SOL    HW145979   1.258   6.891  13.866
81382SOL    HW245980   1.364   6.943  13.961
81383SOL     OW45981   3.260   7.225   5.848
81383SOL    HW145982   3.309   7.306   5.858
81383SOL    HW245983   3.191   7.230   5.913
81384SOL     OW45984   7.461  14.699   4.165
81384SOL    HW145985   7.540  14.718   4.113
81384SOL    HW245986   7.421  14.625   4.121
81385SOL     OW45987   9.964  13.580  10.643
81385SOL    HW145988  10.041  13.622  10.606
81385SOL    HW245989   9.937  13.637  10.715
81386SOL     OW45990   9.426   9.928  13.263
81386SOL    HW145991   9.484   9.981  13.317
81386SOL    HW245992   9.370   9.991  13.218
81387SOL     OW45993  10.179   2.900   9.471
81387SOL    HW145994  10.169   2.994   9.454
81387SOL    HW245995  10.114   2.882   9.539
81388SOL     OW45996   2.406   3.726  11.126
81388SOL    HW145997   2.423   3.817  11.100
81388SOL    HW245998   2.351   3.732  11.204
81389SOL     OW45999   6.343   8.826   8.230
81389SOL    HW146000   6.361   8.913   8.196
81389SOL    HW246001   6.316   8.775   8.153
81390SOL     OW46002   7.576   0.832   1.377
81390SOL    HW146003   7.669   0.808   1.375
81390SOL    HW246004   7.544   0.810   1.290
81391SOL     OW46005   6.758  13.964   0.690
81391SOL    HW146006   6.818  14.013   0.634
81391SOL    HW246007   6.676  13.962   0.640
81392SOL     OW46008   6.674  12.859   0.321
81392SOL    HW146009   6.638  12.804   0.251
81392SOL    HW246010   6.644  12.948   0.300
81393SOL     OW46011   4.173  12.044   9.311
81393SOL    HW146012   4.254  12.062   9.360
81393SOL    HW246013   4.201  11.989   9.239
81394SOL     OW46014   9.954   7.648   2.776
81394SOL    HW146015  10.025   7.642   2.840
81394SOL    HW246016   9.975   7.582   2.710
81395SOL     OW46017  13.386   9.508   1.031
81395SOL    HW146018  13.453   9.574   1.017
81395SOL    HW246019  13.331   9.511   0.952
81396SOL     OW46020   2.794   6.975   5.537
81396SOL    HW146021   2.750   7.055   5.508
81396SOL    HW246022   2.876   6.973   5.488
81397SOL     OW46023   0.148   1.078   4.638
81397SOL    HW146024   0.090   1.081   4.562
81397SOL    HW246025   0.109   1.012   4.695
81398SOL     OW46026  14.613   0.933   7.796
81398SOL    HW146027  14.576   1.003   7.850
81398SOL    HW246028  14.546   0.916   7.730
81399SOL     OW46029   8.193  13.887   9.075
81399SOL    HW146030   8.223  13.959   9.020
81399SOL    HW246031   8.264  13.823   9.073
81400SOL     OW46032   3.948  13.508  10.850
81400SOL    HW146033   3.950  13.448  10.924
81400SOL    HW246034   3.979  13.455  10.776
81401SOL     OW46035   4.269   6.844  10.268
81401SOL    HW146036   4.284   6.928  10.313
81401SOL    HW246037   4.353   6.799  10.274
81402SOL     OW46038   4.098   5.537  11.387
81402SOL    HW146039   4.111   5.448  11.354
81402SOL    HW246040   4.137   5.593  11.321
81403SOL     OW46041   7.210   1.773  13.103
81403SOL    HW146042   7.115   1.779  13.094
81403SOL    HW246043   7.228   1.679  13.111
81404SOL     OW46044   6.275   5.924   6.669
81404SOL    HW146045   6.308   5.959   6.587
81404SOL    HW246046   6.242   6.000   6.717
81405SOL     OW46047   2.234   9.178   4.530
81405SOL    HW146048   2.192   9.241   4.472
81405SOL    HW246049   2.219   9.213   4.618
81406SOL     OW46050  13.969  13.794  10.187
81406SOL    HW146051  13.879  13.815  10.210
81406SOL    HW246052  13.966  13.774  10.093
81407SOL     OW46053   6.031  10.531   2.987
81407SOL    HW146054   6.010  10.621   3.012
81407SOL    HW246055   6.085  10.540   2.908
81408SOL     OW46056  14.683   0.454   5.679
81408SOL    HW146057  14.659   0.366   5.710
81408SOL    HW246058  14.673   0.510   5.755
81409SOL     OW46059   2.763   0.361   1.431
81409SOL    HW146060   2.846   0.409   1.428
81409SOL    HW246061   2.701   0.417   1.384
81410SOL     OW46062   5.259   8.494   9.714
81410SOL    HW146063   5.245   8.417   9.770
81410SOL    HW246064   5.303   8.557   9.771
81411SOL     OW46065   3.445   0.160   5.304
81411SOL    HW146066   3.401   0.076   5.310
81411SOL    HW246067   3.382   0.223   5.337
81412SOL     OW46068   9.084  13.742  14.426
81412SOL    HW146069   9.136  13.817  14.397
81412SOL    HW246070   9.064  13.761  14.518
81413SOL     OW46071   0.960  11.869  14.320
81413SOL    HW146072   0.888  11.814  14.350
81413SOL    HW246073   1.033  11.847  14.379
81414SOL     OW46074  12.138  14.784  12.848
81414SOL    HW146075  12.061  14.840  12.843
81414SOL    HW246076  12.195  14.827  12.913
81415SOL     OW46077  12.476  11.335   0.553
81415SOL    HW146078  12.545  11.283   0.595
81415SOL    HW246079  12.468  11.413   0.608
81416SOL     OW46080   8.266   2.041  12.145
81416SOL    HW146081   8.255   2.132  12.120
81416SOL    HW246082   8.304   1.999  12.068
81417SOL     OW46083  13.613   6.336   5.991
81417SOL    HW146084  13.634   6.290   6.072
81417SOL    HW246085  13.570   6.417   6.020
81418SOL     OW46086   9.743   9.191   3.254
81418SOL    HW146087   9.661   9.215   3.211
81418SOL    HW246088   9.811   9.227   3.198
81419SOL     OW46089  12.850   8.441  11.749
81419SOL    HW146090  12.836   8.401  11.663
81419SOL    HW246091  12.934   8.406  11.778
81420SOL     OW46092  13.007  12.890   4.622
81420SOL    HW146093  12.957  12.907   4.702
81420SOL    HW246094  12.942  12.864   4.557
81421SOL     OW46095   6.711  13.992   9.950
81421SOL    HW146096   6.724  13.906   9.991
81421SOL    HW246097   6.668  13.973   9.867
81422SOL     OW46098  12.943  10.439  13.312
81422SOL    HW146099  12.908  10.464  13.226
81422SOL    HW246100  12.967  10.522  13.353
81423SOL     OW46101   0.653  13.431   6.398
81423SOL    HW146102   0.563  13.415   6.368
81423SOL    HW246103   0.708  13.384   6.335
81424SOL     OW46104  12.903   5.549   8.351
81424SOL    HW146105  12.819   5.555   8.306
81424SOL    HW246106  12.944   5.634   8.334
81425SOL     OW46107   4.717   7.826   5.359
81425SOL    HW146108   4.714   7.848   5.452
81425SOL    HW246109   4.627   7.803   5.337
81426SOL     OW46110   6.466  11.023   6.796
81426SOL    HW146111   6.503  11.100   6.838
81426SOL    HW246112   6.397  11.057   6.739
81427SOL     OW46113  10.639  11.913   5.675
81427SOL    HW146114  10.651  11.833   5.623
81427SOL    HW246115  10.654  11.885   5.765
81428SOL     OW46116   4.092   1.189   5.546
81428SOL    HW146117   4.035   1.248   5.497
81428SOL    HW246118   4.181   1.216   5.522
81429SOL     OW46119   7.450   6.632   3.423
81429SOL    HW146120   7.407   6.609   3.341
81429SOL    HW246121   7.378   6.650   3.484
81430SOL     OW46122   6.068   2.407  14.628
81430SOL    HW146123   5.999   2.398  14.693
81430SOL    HW246124   6.068   2.324  14.580
81431SOL     OW46125   2.810  11.106   2.093
81431SOL    HW146126   2.761  11.026   2.111
81431SOL    HW246127   2.902  11.080   2.103
81432SOL     OW46128  10.380   8.059   6.420
81432SOL    HW146129  10.307   8.027   6.472
81432SOL    HW246130  10.345   8.135   6.374
81433SOL     OW46131   8.856   3.153   3.373
81433SOL    HW146132   8.767   3.166   3.341
81433SOL    HW246133   8.907   3.224   3.335
81434SOL     OW46134   1.569   9.200   0.941
81434SOL    HW146135   1.496   9.161   0.990
81434SOL    HW246136   1.527   9.266   0.885
81435SOL     OW46137  13.609   1.639   8.464
81435SOL    HW146138  13.591   1.573   8.397
81435SOL    HW246139  13.649   1.591   8.536
81436SOL     OW46140   7.191   4.217   3.801
81436SOL    HW146141   7.202   4.248   3.891
81436SOL    HW246142   7.252   4.143   3.794
81437SOL     OW46143   9.470  11.822   3.524
81437SOL    HW146144   9.470  11.850   3.432
81437SOL    HW246145   9.396  11.868   3.563
81438SOL     OW46146   8.058   0.970  13.223
81438SOL    HW146147   8.049   0.915  13.301
81438SOL    HW246148   8.043   1.059  13.254
81439SOL     OW46149   8.335  13.708   6.538
81439SOL    HW146150   8.362  13.650   6.466
81439SOL    HW246151   8.266  13.660   6.584
81440SOL     OW46152   5.743   0.174   0.532
81440SOL    HW146153   5.779   0.216   0.454
81440SOL    HW246154   5.651   0.158   0.511
81441SOL     OW46155   4.365   3.228   5.427
81441SOL    HW146156   4.393   3.231   5.335
81441SOL    HW246157   4.308   3.151   5.432
81442SOL     OW46158   9.132  12.847   9.181
81442SOL    HW146159   9.038  12.855   9.200
81442SOL    HW246160   9.140  12.763   9.137
81443SOL     OW46161  12.034   6.095   8.381
81443SOL    HW146162  12.091   6.149   8.327
81443SOL    HW246163  12.025   6.013   8.332
81444SOL     OW46164   3.567   1.585   6.358
81444SOL    HW146165   3.608   1.530   6.424
81444SOL    HW246166   3.489   1.621   6.402
81445SOL     OW46167   1.626   8.294   9.328
81445SOL    HW146168   1.642   8.203   9.301
81445SOL    HW246169   1.531   8.304   9.324
81446SOL     OW46170   0.289  14.376   3.054
81446SOL    HW146171   0.197  14.348   3.057
81446SOL    HW246172   0.305  14.417   3.139
81447SOL     OW46173   6.741   8.607   0.872
81447SOL    HW146174   6.649   8.633   0.869
81447SOL    HW246175   6.742   8.519   0.835
81448SOL     OW46176   6.849   5.824   1.042
81448SOL    HW146177   6.942   5.848   1.040
81448SOL    HW246178   6.823   5.837   1.133
81449SOL     OW46179  13.344   3.146   9.171
81449SOL    HW146180  13.257   3.128   9.208
81449SOL    HW246181  13.368   3.231   9.207
81450SOL     OW46182   4.455   1.679  14.342
81450SOL    HW146183   4.448   1.592  14.302
81450SOL    HW246184   4.499   1.732  14.275
81451SOL     OW46185   0.395   2.900   5.645
81451SOL    HW146186   0.369   2.969   5.706
81451SOL    HW246187   0.383   2.819   5.695
81452SOL     OW46188   2.563   9.496  10.005
81452SOL    HW146189   2.529   9.585   9.996
81452SOL    HW246190   2.503   9.453  10.065
81453SOL     OW46191  14.418  13.166  10.580
81453SOL    HW146192  14.467  13.180  10.499
81453SOL    HW246193  14.392  13.074  10.577
81454SOL     OW46194  13.592   8.580   6.891
81454SOL    HW146195  13.606   8.528   6.969
81454SOL    HW246196  13.531   8.648   6.918
81455SOL     OW46197   1.514   4.336   7.998
81455SOL    HW146198   1.544   4.318   7.908
81455SOL    HW246199   1.593   4.367   8.043
81456SOL     OW46200   8.545  14.865   2.099
81456SOL    HW146201   8.575   0.061   2.159
81456SOL    HW246202   8.539  14.786   2.153
81457SOL     OW46203   5.366   9.264   3.457
81457SOL    HW146204   5.424   9.252   3.532
81457SOL    HW246205   5.371   9.182   3.409
81458SOL     OW46206   1.680  14.456   1.974
81458SOL    HW146207   1.621  14.509   2.028
81458SOL    HW246208   1.678  14.497   1.888
81459SOL     OW46209  13.380   8.201   6.813
81459SOL    HW146210  13.398   8.187   6.906
81459SOL    HW246211  13.354   8.293   6.806
81460SOL     OW46212  10.196   5.697   6.916
81460SOL    HW146213  10.163   5.671   7.002
81460SOL    HW246214  10.249   5.775   6.933
81461SOL     OW46215  13.862   1.698   7.973
81461SOL    HW146216  13.883   1.668   7.885
81461SOL    HW246217  13.944   1.692   8.021
81462SOL     OW46218   6.226   7.509   0.003
81462SOL    HW146219   6.205   7.506   0.096
81462SOL    HW246220   6.237   7.417  14.851
81463SOL     OW46221   1.422   4.421   1.615
81463SOL    HW146222   1.488   4.420   1.545
81463SOL    HW246223   1.435   4.339   1.662
81464SOL     OW46224   0.743   5.154   4.517
81464SOL    HW146225   0.651   5.128   4.510
81464SOL    HW246226   0.792   5.084   4.475
81465SOL     OW46227   8.635   4.253   7.689
81465SOL    HW146228   8.601   4.331   7.645
81465SOL    HW246229   8.687   4.209   7.621
81466SOL     OW46230  11.502  12.692   0.810
81466SOL    HW146231  11.410  12.666   0.811
81466SOL    HW246232  11.550  12.609   0.806
81467SOL     OW46233   3.632   0.421  14.325
81467SOL    HW146234   3.704   0.426  14.262
81467SOL    HW246235   3.584   0.342  14.300
81468SOL     OW46236   6.023  11.160   5.539
81468SOL    HW146237   6.010  11.199   5.453
81468SOL    HW246238   5.935  11.134   5.567
81469SOL     OW46239   5.323   6.083   5.208
81469SOL    HW146240   5.302   6.172   5.237
81469SOL    HW246241   5.372   6.096   5.126
81470SOL     OW46242   7.619   8.317   6.029
81470SOL    HW146243   7.572   8.289   5.950
81470SOL    HW246244   7.654   8.237   6.066
81471SOL     OW46245   0.793   3.295  11.912
81471SOL    HW146246   0.867   3.354  11.898
81471SOL    HW246247   0.825   3.209  11.885
81472SOL     OW46248  14.205  11.691  13.759
81472SOL    HW146249  14.277  11.723  13.814
81472SOL    HW246250  14.128  11.696  13.815
81473SOL     OW46251   1.809   1.267   2.654
81473SOL    HW146252   1.893   1.237   2.618
81473SOL    HW246253   1.802   1.221   2.737
81474SOL     OW46254  13.032   5.383   1.886
81474SOL    HW146255  13.104   5.419   1.835
81474SOL    HW246256  12.988   5.323   1.827
81475SOL     OW46257   0.102   2.068   9.231
81475SOL    HW146258   0.032   2.078   9.295
81475SOL    HW246259   0.149   1.989   9.258
81476SOL     OW46260   8.870  13.775   8.437
81476SOL    HW146261   8.805  13.840   8.460
81476SOL    HW246262   8.953  13.822   8.439
81477SOL     OW46263   8.254   7.661  12.533
81477SOL    HW146264   8.344   7.630  12.522
81477SOL    HW246265   8.242   7.725  12.463
81478SOL     OW46266   6.478   1.214  10.521
81478SOL    HW146267   6.568   1.184  10.534
81478SOL    HW246268   6.444   1.227  10.609
81479SOL     OW46269   4.042  14.400   2.390
81479SOL    HW146270   4.100  14.362   2.325
81479SOL    HW246271   4.078  14.372   2.475
81480SOL     OW46272  14.438   1.358   3.865
81480SOL    HW146273  14.350   1.386   3.892
81480SOL    HW246274  14.441   1.374   3.771
81481SOL     OW46275   7.194   5.747   0.473
81481SOL    HW146276   7.160   5.658   0.468
81481SOL    HW246277   7.125   5.796   0.518
81482SOL     OW46278   8.162   4.751   0.447
81482SOL    HW146279   8.209   4.785   0.371
81482SOL    HW246280   8.140   4.661   0.423
81483SOL     OW46281   3.258   6.490   3.307
81483SOL    HW146282   3.304   6.562   3.263
81483SOL    HW246283   3.277   6.503   3.400
81484SOL     OW46284   5.610   8.789   2.296
81484SOL    HW146285   5.599   8.854   2.226
81484SOL    HW246286   5.688   8.817   2.343
81485SOL     OW46287   8.099  11.433  13.293
81485SOL    HW146288   8.084  11.338  13.292
81485SOL    HW246289   8.132  11.452  13.205
81486SOL     OW46290   1.406   3.657   4.912
81486SOL    HW146291   1.418   3.649   5.006
81486SOL    HW246292   1.404   3.751   4.896
81487SOL     OW46293   8.281  14.093   4.615
81487SOL    HW146294   8.205  14.139   4.651
81487SOL    HW246295   8.244  14.033   4.551
81488SOL     OW46296   6.304   9.848   7.670
81488SOL    HW146297   6.356   9.776   7.705
81488SOL    HW246298   6.355   9.927   7.691
81489SOL     OW46299   1.238  10.536   0.531
81489SOL    HW146300   1.161  10.557   0.478
81489SOL    HW246301   1.301  10.605   0.510
81490SOL     OW46302  13.599  12.511  12.054
81490SOL    HW146303  13.533  12.559  12.005
81490SOL    HW246304  13.617  12.434  12.000
81491SOL     OW46305  10.303   1.314  13.568
81491SOL    HW146306  10.300   1.330  13.474
81491SOL    HW246307  10.356   1.385  13.603
81492SOL     OW46308   9.335   9.357  12.711
81492SOL    HW146309   9.316   9.290  12.646
81492SOL    HW246310   9.431   9.360  12.715
81493SOL     OW46311   8.409   2.085   5.787
81493SOL    HW146312   8.374   2.014   5.840
81493SOL    HW246313   8.473   2.043   5.730
81494SOL     OW46314   0.108   6.865  13.105
81494SOL    HW146315   0.157   6.947  13.113
81494SOL    HW246316   0.170   6.803  13.069
81495SOL     OW46317   5.169   1.378   0.414
81495SOL    HW146318   5.166   1.457   0.468
81495SOL    HW246319   5.145   1.409   0.326
81496SOL     OW46320   2.306  10.501  10.815
81496SOL    HW146321   2.258  10.537  10.889
81496SOL    HW246322   2.246  10.437  10.775
81497SOL     OW46323  14.711   6.158   8.038
81497SOL    HW146324  14.799   6.134   8.067
81497SOL    HW246325  14.722   6.241   7.992
81498SOL     OW46326  11.299   9.028   1.268
81498SOL    HW146327  11.209   9.034   1.301
81498SOL    HW246328  11.296   8.957   1.203
81499SOL     OW46329   1.316   3.735   3.784
81499SOL    HW146330   1.356   3.671   3.844
81499SOL    HW246331   1.265   3.682   3.723
81500SOL     OW46332   1.830   6.875   5.337
81500SOL    HW146333   1.873   6.798   5.376
81500SOL    HW246334   1.849   6.868   5.244
81501SOL     OW46335   6.742  12.644   2.765
81501SOL    HW146336   6.756  12.684   2.679
81501SOL    HW246337   6.830  12.634   2.801
81502SOL     OW46338   6.239   0.732   0.169
81502SOL    HW146339   6.220   0.787   0.093
81502SOL    HW246340   6.217   0.787   0.244
81503SOL     OW46341  10.336   0.497   4.175
81503SOL    HW146342  10.406   0.432   4.186
81503SOL    HW246343  10.381   0.581   4.184
81504SOL     OW46344  13.090   3.185  10.266
81504SOL    HW146345  13.057   3.226  10.187
81504SOL    HW246346  13.090   3.091  10.247
81505SOL     OW46347  13.290   9.101   5.878
81505SOL    HW146348  13.265   9.009   5.887
81505SOL    HW246349  13.319   9.110   5.788
81506SOL     OW46350  12.456  12.775   2.348
81506SOL    HW146351  12.385  12.725   2.388
81506SOL    HW246352  12.434  12.776   2.254
81507SOL     OW46353  13.698   9.319   1.108
81507SOL    HW146354  13.749   9.349   1.033
81507SOL    HW246355  13.616   9.288   1.070
81508SOL     OW46356  13.446   9.109   9.717
81508SOL    HW146357  13.480   9.079   9.801
81508SOL    HW246358  13.375   9.047   9.697
81509SOL     OW46359   2.114   2.462  10.247
81509SOL    HW146360   2.174   2.535  10.235
81509SOL    HW246361   2.062   2.485  10.323
81510SOL     OW46362   4.967  11.674  11.066
81510SOL    HW146363   4.959  11.580  11.050
81510SOL    HW246364   5.003  11.710  10.985
81511SOL     OW46365  12.740   9.708   5.526
81511SOL    HW146366  12.762   9.792   5.565
81511SOL    HW246367  12.824   9.666   5.508
81512SOL     OW46368   3.639   5.285  10.871
81512SOL    HW146369   3.683   5.337  10.938
81512SOL    HW246370   3.547   5.283  10.898
81513SOL     OW46371  11.011   6.276   7.884
81513SOL    HW146372  11.019   6.297   7.790
81513SOL    HW246373  11.024   6.181   7.888
81514SOL     OW46374   1.105  14.328   5.767
81514SOL    HW146375   1.109  14.249   5.713
81514SOL    HW246376   1.177  14.319   5.829
81515SOL     OW46377   2.337   6.990   1.656
81515SOL    HW146378   2.291   7.001   1.739
81515SOL    HW246379   2.383   6.907   1.664
81516SOL     OW46380  12.860   6.641  14.488
81516SOL    HW146381  12.893   6.621  14.575
81516SOL    HW246382  12.797   6.572  14.470
81517SOL     OW46383  11.829   7.429  13.441
81517SOL    HW146384  11.883   7.424  13.520
81517SOL    HW246385  11.828   7.522  13.419
81518SOL     OW46386   7.063  14.596   0.027
81518SOL    HW146387   6.984  14.622  14.853
81518SOL    HW246388   7.124  14.669   0.014
81519SOL     OW46389  12.686   0.455  12.185
81519SOL    HW146390  12.641   0.430  12.105
81519SOL    HW246391  12.743   0.527  12.159
81520SOL     OW46392  13.513  14.720   2.483
81520SOL    HW146393  13.590  14.749   2.531
81520SOL    HW246394  13.481  14.644   2.532
81521SOL     OW46395   3.986   1.655  14.861
81521SOL    HW146396   3.899   1.686  14.834
81521SOL    HW246397   4.008   1.710   0.064
81522SOL     OW46398  11.733   8.692  12.499
81522SOL    HW146399  11.695   8.767  12.545
81522SOL    HW246400  11.674   8.619  12.520
81523SOL     OW46401   2.695   5.766  13.181
81523SOL    HW146402   2.770   5.747  13.237
81523SOL    HW246403   2.729   5.827  13.115
81524SOL     OW46404  12.418   1.679   0.495
81524SOL    HW146405  12.437   1.637   0.578
81524SOL    HW246406  12.414   1.608   0.432
81525SOL     OW46407   3.613  10.091   5.375
81525SOL    HW146408   3.678  10.156   5.405
81525SOL    HW246409   3.587  10.045   5.454
81526SOL     OW46410   1.829   7.839  14.135
81526SOL    HW146411   1.844   7.796  14.052
81526SOL    HW246412   1.804   7.929  14.112
81527SOL     OW46413  12.760   1.106   8.689
81527SOL    HW146414  12.750   1.186   8.637
81527SOL    HW246415  12.702   1.119   8.764
81528SOL     OW46416   6.016   3.867   4.276
81528SOL    HW146417   5.927   3.835   4.290
81528SOL    HW246418   6.018   3.891   4.183
81529SOL     OW46419   8.857   1.015   7.040
81529SOL    HW146420   8.838   1.106   7.062
81529SOL    HW246421   8.798   0.964   7.094
81530SOL     OW46422  13.275  10.142   9.235
81530SOL    HW146423  13.267  10.049   9.210
81530SOL    HW246424  13.193  10.182   9.205
81531SOL     OW46425   7.173   8.314   0.665
81531SOL    HW146426   7.217   8.302   0.749
81531SOL    HW246427   7.148   8.226   0.638
81532SOL     OW46428   5.414  13.665   3.276
81532SOL    HW146429   5.388  13.635   3.189
81532SOL    HW246430   5.362  13.612   3.336
81533SOL     OW46431   0.188  12.045   4.448
81533SOL    HW146432   0.098  12.020   4.426
81533SOL    HW246433   0.212  11.987   4.521
81534SOL     OW46434   6.268   5.821  12.228
81534SOL    HW146435   6.337   5.861  12.176
81534SOL    HW246436   6.304   5.735  12.252
81535SOL     OW46437   3.450   1.305  10.076
81535SOL    HW146438   3.523   1.249  10.103
81535SOL    HW246439   3.407   1.256  10.006
81536SOL     OW46440  11.189   9.903  10.307
81536SOL    HW146441  11.130   9.947  10.368
81536SOL    HW246442  11.200   9.815  10.343
81537SOL     OW46443  10.128   3.330   6.363
81537SOL    HW146444  10.162   3.351   6.450
81537SOL    HW246445  10.162   3.398   6.306
81538SOL     OW46446   4.658   7.001   3.772
81538SOL    HW146447   4.686   6.965   3.857
81538SOL    HW246448   4.562   6.999   3.777
81539SOL     OW46449   7.856   9.669   3.163
81539SOL    HW146450   7.851   9.698   3.072
81539SOL    HW246451   7.838   9.747   3.214
81540SOL     OW46452  11.842  10.588   7.412
81540SOL    HW146453  11.840  10.554   7.502
81540SOL    HW246454  11.759  10.558   7.374
81541SOL     OW46455   8.854   3.919   7.056
81541SOL    HW146456   8.885   3.924   6.966
81541SOL    HW246457   8.931   3.894   7.107
81542SOL     OW46458   3.081   9.848   3.215
81542SOL    HW146459   3.126   9.933   3.219
81542SOL    HW246460   3.150   9.786   3.192
81543SOL     OW46461   5.841   9.427   2.504
81543SOL    HW146462   5.824   9.425   2.598
81543SOL    HW246463   5.902   9.499   2.491
81544SOL     OW46464  10.853   3.172  10.827
81544SOL    HW146465  10.804   3.091  10.839
81544SOL    HW246466  10.943   3.144  10.811
81545SOL     OW46467   7.316   6.991   4.000
81545SOL    HW146468   7.334   7.079   4.032
81545SOL    HW246469   7.256   6.954   4.064
81546SOL     OW46470   0.345   4.425   0.364
81546SOL    HW146471   0.366   4.389   0.278
81546SOL    HW246472   0.304   4.509   0.346
81547SOL     OW46473   8.356  10.623  14.768
81547SOL    HW146474   8.424  10.566  14.731
81547SOL    HW246475   8.364  10.611  14.862
81548SOL     OW46476  10.720   1.924   5.453
81548SOL    HW146477  10.783   1.913   5.524
81548SOL    HW246478  10.698   1.835   5.426
81549SOL     OW46479  11.223  12.437  13.464
81549SOL    HW146480  11.257  12.380  13.395
81549SOL    HW246481  11.151  12.484  13.421
81550SOL     OW46482   9.540  10.768  13.273
81550SOL    HW146483   9.576  10.844  13.227
81550SOL    HW246484   9.518  10.706  13.203
81551SOL     OW46485   8.385   7.980   7.547
81551SOL    HW146486   8.471   8.011   7.574
81551SOL    HW246487   8.371   8.019   7.461
81552SOL     OW46488  14.200  13.355   3.868
81552SOL    HW146489  14.142  13.397   3.931
81552SOL    HW246490  14.179  13.397   3.784
81553SOL     OW46491   2.051  14.438  13.896
81553SOL    HW146492   1.955  14.435  13.894
81553SOL    HW246493   2.075  14.370  13.958
81554SOL     OW46494  12.108  14.782   9.912
81554SOL    HW146495  12.159  14.762   9.990
81554SOL    HW246496  12.127   0.001   9.894
81555SOL     OW46497   8.203   4.738  13.921
81555SOL    HW146498   8.162   4.654  13.900
81555SOL    HW246499   8.262   4.755  13.847
81556SOL     OW46500   1.979   3.401  12.183
81556SOL    HW146501   2.040   3.475  12.179
81556SOL    HW246502   1.932   3.413  12.265
81557SOL     OW46503   1.620   9.210   5.927
81557SOL    HW146504   1.606   9.153   6.003
81557SOL    HW246505   1.535   9.213   5.883
81558SOL     OW46506   6.986  14.188  14.666
81558SOL    HW146507   6.922  14.259  14.669
81558SOL    HW246508   6.979  14.145  14.751
81559SOL     OW46509   0.804   6.541   2.118
81559SOL    HW146510   0.834   6.507   2.034
81559SOL    HW246511   0.844   6.483   2.183
81560SOL     OW46512   1.973   4.145  12.020
81560SOL    HW146513   1.952   4.235  12.046
81560SOL    HW246514   2.064   4.149  11.992
81561SOL     OW46515  10.281   7.101  11.570
81561SOL    HW146516  10.261   7.180  11.621
81561SOL    HW246517  10.362   7.123  11.524
81562SOL     OW46518   9.678  14.138   3.369
81562SOL    HW146519   9.730  14.134   3.450
81562SOL    HW246520   9.595  14.097   3.392
81563SOL     OW46521   3.603  14.406   7.037
81563SOL    HW146522   3.666  14.428   6.968
81563SOL    HW246523   3.534  14.472   7.028
81564SOL     OW46524   2.997   5.533   6.998
81564SOL    HW146525   2.909   5.518   6.964
81564SOL    HW246526   3.013   5.457   7.054
81565SOL     OW46527  14.383  11.479   1.280
81565SOL    HW146528  14.306  11.520   1.240
81565SOL    HW246529  14.400  11.402   1.226
81566SOL     OW46530  11.907  11.264   9.874
81566SOL    HW146531  11.968  11.309   9.815
81566SOL    HW246532  11.855  11.208   9.816
81567SOL     OW46533   3.966  11.035  12.773
81567SOL    HW146534   4.021  10.957  12.771
81567SOL    HW246535   3.920  11.033  12.689
81568SOL     OW46536   6.045  12.169   7.506
81568SOL    HW146537   6.036  12.123   7.590
81568SOL    HW246538   5.965  12.220   7.499
81569SOL     OW46539   6.376   7.331   7.934
81569SOL    HW146540   6.390   7.325   7.840
81569SOL    HW246541   6.369   7.425   7.951
81570SOL     OW46542   6.248   9.900  13.087
81570SOL    HW146543   6.303   9.978  13.097
81570SOL    HW246544   6.292   9.833  13.139
81571SOL     OW46545   8.198  12.506  12.947
81571SOL    HW146546   8.292  12.490  12.932
81571SOL    HW246547   8.190  12.601  12.949
81572SOL     OW46548  13.390  13.646   0.202
81572SOL    HW146549  13.474  13.692   0.208
81572SOL    HW246550  13.408  13.570   0.147
81573SOL     OW46551   5.528   2.554   5.676
81573SOL    HW146552   5.527   2.608   5.755
81573SOL    HW246553   5.473   2.601   5.614
81574SOL     OW46554   8.673  10.951   2.828
81574SOL    HW146555   8.659  10.892   2.902
81574SOL    HW246556   8.603  11.016   2.834
81575SOL     OW46557   2.639   7.171  14.298
81575SOL    HW146558   2.565   7.189  14.241
81575SOL    HW246559   2.716   7.174  14.241
81576SOL     OW46560   5.412   1.306  13.621
81576SOL    HW146561   5.433   1.377  13.682
81576SOL    HW246562   5.472   1.235  13.645
81577SOL     OW46563  11.114   4.270   6.719
81577SOL    HW146564  11.141   4.277   6.628
81577SOL    HW246565  11.073   4.184   6.726
81578SOL     OW46566   2.950  11.287   7.601
81578SOL    HW146567   2.919  11.366   7.646
81578SOL    HW246568   3.037  11.271   7.638
81579SOL     OW46569   1.002   2.675   1.276
81579SOL    HW146570   1.030   2.766   1.280
81579SOL    HW246571   1.079   2.627   1.246
81580SOL     OW46572  12.335  12.396  10.982
81580SOL    HW146573  12.414  12.382  10.931
81580SOL    HW246574  12.297  12.308  10.992
81581SOL     OW46575  14.832   3.476   0.543
81581SOL    HW146576  14.787   3.560   0.534
81581SOL    HW246577  14.868   3.477   0.632
81582SOL     OW46578   7.019   5.895   1.706
81582SOL    HW146579   7.024   5.986   1.676
81582SOL    HW246580   6.931   5.866   1.682
81583SOL     OW46581   9.438  12.216   4.341
81583SOL    HW146582   9.410  12.180   4.258
81583SOL    HW246583   9.358  12.245   4.384
81584SOL     OW46584   7.576   2.596  14.646
81584SOL    HW146585   7.633   2.547  14.705
81584SOL    HW246586   7.570   2.683  14.686
81585SOL     OW46587  12.768   5.451   5.854
81585SOL    HW146588  12.749   5.446   5.760
81585SOL    HW246589  12.777   5.544   5.872
81586SOL     OW46590  12.516  10.503  11.957
81586SOL    HW146591  12.534  10.416  11.993
81586SOL    HW246592  12.492  10.555  12.033
81587SOL     OW46593   9.953   7.072   6.785
81587SOL    HW146594   9.947   6.982   6.817
81587SOL    HW246595  10.030   7.073   6.729
81588SOL     OW46596   4.125   1.800  12.464
81588SOL    HW146597   4.108   1.829  12.374
81588SOL    HW246598   4.202   1.744  12.456
81589SOL     OW46599   0.486   6.148   5.635
81589SOL    HW146600   0.530   6.076   5.680
81589SOL    HW246601   0.497   6.223   5.693
81590SOL     OW46602  11.718   5.260   5.392
81590SOL    HW146603  11.756   5.289   5.475
81590SOL    HW246604  11.772   5.302   5.325
81591SOL     OW46605   1.733   9.832   4.197
81591SOL    HW146606   1.660   9.889   4.172
81591SOL    HW246607   1.692   9.752   4.229
81592SOL     OW46608   7.924   0.917   1.693
81592SOL    HW146609   7.881   0.963   1.766
81592SOL    HW246610   7.854   0.868   1.651
81593SOL     OW46611   8.065  11.019  13.633
81593SOL    HW146612   8.152  11.047  13.659
81593SOL    HW246613   8.049  10.940  13.685
81594SOL     OW46614  10.700  10.715   1.421
81594SOL    HW146615  10.607  10.733   1.433
81594SOL    HW246616  10.714  10.632   1.467
81595SOL     OW46617   0.301   0.628  14.735
81595SOL    HW146618   0.259   0.662  14.813
81595SOL    HW246619   0.330   0.540  14.758
81596SOL     OW46620  13.305   3.154   4.965
81596SOL    HW146621  13.396   3.185   4.968
81596SOL    HW246622  13.273   3.168   5.054
81597SOL     OW46623   0.861  10.665   8.545
81597SOL    HW146624   0.893  10.610   8.616
81597SOL    HW246625   0.768  10.679   8.566
81598SOL     OW46626  11.793   0.193   1.023
81598SOL    HW146627  11.731   0.235   0.964
81598SOL    HW246628  11.781   0.239   1.106
81599SOL     OW46629   8.354  10.225  14.847
81599SOL    HW146630   8.307  10.283   0.035
81599SOL    HW246631   8.420  10.282  14.807
81600SOL     OW46632  12.154   1.574   4.381
81600SOL    HW146633  12.176   1.486   4.350
81600SOL    HW246634  12.100   1.560   4.458
81601SOL     OW46635   4.533  12.043  13.912
81601SOL    HW146636   4.479  12.122  13.917
81601SOL    HW246637   4.560  12.038  13.820
81602SOL     OW46638   1.328   3.862   8.483
81602SOL    HW146639   1.408   3.857   8.537
81602SOL    HW246640   1.261   3.895   8.543
81603SOL     OW46641  14.638   5.337  13.696
81603SOL    HW146642  14.545   5.321  13.680
81603SOL    HW246643  14.657   5.292  13.778
81604SOL     OW46644   5.147   1.629   4.667
81604SOL    HW146645   5.063   1.586   4.655
81604SOL    HW246646   5.203   1.563   4.707
81605SOL     OW46647   7.832  14.733   8.082
81605SOL    HW146648   7.806  14.649   8.120
81605SOL    HW246649   7.925  14.742   8.105
81606SOL     OW46650  12.460  13.839   9.775
81606SOL    HW146651  12.527  13.907   9.780
81606SOL    HW246652  12.448  13.810   9.866
81607SOL     OW46653   2.659   6.675   5.397
81607SOL    HW146654   2.578   6.647   5.439
81607SOL    HW246655   2.727   6.658   5.462
81608SOL     OW46656  14.450   8.930   3.118
81608SOL    HW146657  14.405   8.971   3.045
81608SOL    HW246658  14.488   8.850   3.081
81609SOL     OW46659  11.783  14.204   2.598
81609SOL    HW146660  11.878  14.210   2.583
81609SOL    HW246661  11.772  14.221   2.691
81610SOL     OW46662   7.796  12.158   4.067
81610SOL    HW146663   7.845  12.241   4.071
81610SOL    HW246664   7.859  12.095   4.033
81611SOL     OW46665   4.611   5.317  11.308
81611SOL    HW146666   4.576   5.385  11.366
81611SOL    HW246667   4.675   5.271  11.362
81612SOL     OW46668  13.716   5.923  10.521
81612SOL    HW146669  13.688   6.014  10.530
81612SOL    HW246670  13.725   5.892  10.611
81613SOL     OW46671  10.007   0.455  10.564
81613SOL    HW146672  10.030   0.493  10.478
81613SOL    HW246673   9.914   0.472  10.573
81614SOL     OW46674  13.075   1.986  14.163
81614SOL    HW146675  13.080   2.079  14.184
81614SOL    HW246676  12.981   1.965  14.168
81615SOL     OW46677   4.536   4.254   8.978
81615SOL    HW146678   4.484   4.210   9.045
81615SOL    HW246679   4.496   4.227   8.896
81616SOL     OW46680   8.968   2.319   8.025
81616SOL    HW146681   9.029   2.248   8.049
81616SOL    HW246682   8.993   2.341   7.935
81617SOL     OW46683   6.748   4.192   4.211
81617SOL    HW146684   6.811   4.253   4.250
81617SOL    HW246685   6.675   4.190   4.273
81618SOL     OW46686  11.666  12.051   2.892
81618SOL    HW146687  11.575  12.065   2.916
81618SOL    HW246688  11.699  12.139   2.873
81619SOL     OW46689   1.405   0.186   1.135
81619SOL    HW146690   1.476   0.242   1.168
81619SOL    HW246691   1.332   0.203   1.195
81620SOL     OW46692   9.639   4.918   7.336
81620SOL    HW146693   9.669   4.998   7.295
81620SOL    HW246694   9.686   4.848   7.291
81621SOL     OW46695  14.314   3.237   2.591
81621SOL    HW146696  14.395   3.210   2.547
81621SOL    HW246697  14.299   3.169   2.656
81622SOL     OW46698  10.915   4.177   5.956
81622SOL    HW146699  11.007   4.192   5.978
81622SOL    HW246700  10.904   4.216   5.869
81623SOL     OW46701   3.980   2.035  14.778
81623SOL    HW146702   3.935   2.115  14.750
81623SOL    HW246703   3.918   1.965  14.758
81624SOL     OW46704   3.261   0.792  14.429
81624SOL    HW146705   3.296   0.849  14.498
81624SOL    HW246706   3.329   0.726  14.415
81625SOL     OW46707   2.405   4.128  13.437
81625SOL    HW146708   2.355   4.209  13.440
81625SOL    HW246709   2.496   4.155  13.443
81626SOL     OW46710  14.102   9.804   9.039
81626SOL    HW146711  14.058   9.815   9.123
81626SOL    HW246712  14.181   9.754   9.060
81627SOL     OW46713   6.598  12.082   2.688
81627SOL    HW146714   6.550  12.160   2.715
81627SOL    HW246715   6.611  12.094   2.593
81628SOL     OW46716  10.143   1.304   7.289
81628SOL    HW146717  10.225   1.294   7.240
81628SOL    HW246718  10.078   1.325   7.222
81629SOL     OW46719  14.170   5.611  13.141
81629SOL    HW146720  14.148   5.560  13.219
81629SOL    HW246721  14.199   5.696  13.176
81630SOL     OW46722  11.027   2.346   9.901
81630SOL    HW146723  10.978   2.327   9.981
81630SOL    HW246724  11.082   2.420   9.924
81631SOL     OW46725   8.605  10.288  13.203
81631SOL    HW146726   8.672  10.225  13.227
81631SOL    HW246727   8.647  10.374  13.215
81632SOL     OW46728   1.727   8.462   6.098
81632SOL    HW146729   1.808   8.507   6.074
81632SOL    HW246730   1.755   8.374   6.124
81633SOL     OW46731   7.236  14.112   1.433
81633SOL    HW146732   7.297  14.138   1.363
81633SOL    HW246733   7.216  14.193   1.479
81634SOL     OW46734   4.235   4.481  12.293
81634SOL    HW146735   4.212   4.396  12.256
81634SOL    HW246736   4.153   4.515  12.328
81635SOL     OW46737   3.226   8.868   4.758
81635SOL    HW146738   3.207   8.843   4.668
81635SOL    HW246739   3.316   8.901   4.756
81636SOL     OW46740   3.657   9.864  12.222
81636SOL    HW146741   3.722   9.916  12.270
81636SOL    HW246742   3.637   9.791  12.281
81637SOL     OW46743   1.701   8.499  10.573
81637SOL    HW146744   1.740   8.586  10.560
81637SOL    HW246745   1.697   8.462  10.486
81638SOL     OW46746   6.054   4.227   3.056
81638SOL    HW146747   6.026   4.186   3.138
81638SOL    HW246748   6.123   4.170   3.023
81639SOL     OW46749  13.237  13.302   3.301
81639SOL    HW146750  13.148  13.267   3.294
81639SOL    HW246751  13.289  13.228   3.332
81640SOL     OW46752  10.443   8.777   8.250
81640SOL    HW146753  10.422   8.799   8.341
81640SOL    HW246754  10.379   8.826   8.198
81641SOL     OW46755   2.194   6.325  13.753
81641SOL    HW146756   2.194   6.412  13.792
81641SOL    HW246757   2.176   6.266  13.827
81642SOL     OW46758  12.465  13.732  11.151
81642SOL    HW146759  12.521  13.656  11.135
81642SOL    HW246760  12.391  13.698  11.201
81643SOL     OW46761   0.699   6.469   8.991
81643SOL    HW146762   0.793   6.484   9.001
81643SOL    HW246763   0.676   6.412   9.064
81644SOL     OW46764   7.274   7.607   3.998
81644SOL    HW146765   7.255   7.514   3.983
81644SOL    HW246766   7.245   7.651   3.918
81645SOL     OW46767   9.847   1.313   7.696
81645SOL    HW146768   9.843   1.401   7.659
81645SOL    HW246769   9.802   1.258   7.633
81646SOL     OW46770   2.679   6.620   7.967
81646SOL    HW146771   2.677   6.563   7.891
81646SOL    HW246772   2.589   6.652   7.975
81647SOL     OW46773   7.961   3.016   4.747
81647SOL    HW146774   7.951   3.084   4.815
81647SOL    HW246775   7.891   2.953   4.765
81648SOL     OW46776  11.778   1.147  13.508
81648SOL    HW146777  11.857   1.191  13.478
81648SOL    HW246778  11.808   1.090  13.579
81649SOL     OW46779   5.935   7.425   3.992
81649SOL    HW146780   5.841   7.431   3.978
81649SOL    HW246781   5.957   7.505   4.040
81650SOL     OW46782  12.939   6.101  13.111
81650SOL    HW146783  12.958   6.170  13.175
81650SOL    HW246784  12.844   6.104  13.099
81651SOL     OW46785  12.558  10.064   1.816
81651SOL    HW146786  12.545  10.133   1.751
81651SOL    HW246787  12.540   9.982   1.769
81652SOL     OW46788  13.599  14.514  11.044
81652SOL    HW146789  13.626  14.594  10.998
81652SOL    HW246790  13.646  14.444  10.999
81653SOL     OW46791  14.867  12.634   5.927
81653SOL    HW146792   0.089  12.650   5.933
81653SOL    HW246793  14.828  12.720   5.941
81654SOL     OW46794   4.134   5.871  10.220
81654SOL    HW146795   4.076   5.814  10.170
81654SOL    HW246796   4.211   5.883  10.164
81655SOL     OW46797   6.148   1.401   4.743
81655SOL    HW146798   6.111   1.443   4.820
81655SOL    HW246799   6.089   1.327   4.725
81656SOL     OW46800   2.459   4.340  14.244
81656SOL    HW146801   2.380   4.376  14.205
81656SOL    HW246802   2.440   4.247  14.256
81657SOL     OW46803   2.519  12.372   1.408
81657SOL    HW146804   2.496  12.455   1.366
81657SOL    HW246805   2.606  12.387   1.443
81658SOL     OW46806  11.246  14.309   8.173
81658SOL    HW146807  11.279  14.399   8.179
81658SOL    HW246808  11.182  14.302   8.244
81659SOL     OW46809   9.118   8.214   5.888
81659SOL    HW146810   9.085   8.253   5.969
81659SOL    HW246811   9.206   8.184   5.910
81660SOL     OW46812   5.507  10.558  13.028
81660SOL    HW146813   5.424  10.600  13.009
81660SOL    HW246814   5.491  10.465  13.012
81661SOL     OW46815   0.313   2.991  10.635
81661SOL    HW146816   0.374   3.058  10.667
81661SOL    HW246817   0.269   3.032  10.561
81662SOL     OW46818   4.271   1.355   1.652
81662SOL    HW146819   4.241   1.378   1.564
81662SOL    HW246820   4.194   1.320   1.696
81663SOL     OW46821  12.219  11.167   8.702
81663SOL    HW146822  12.291  11.198   8.757
81663SOL    HW246823  12.260  11.151   8.616
81664SOL     OW46824   4.974   2.373  10.959
81664SOL    HW146825   5.024   2.455  10.956
81664SOL    HW246826   4.994   2.336  11.045
81665SOL     OW46827   3.846  11.431   2.882
81665SOL    HW146828   3.885  11.348   2.856
81665SOL    HW246829   3.764  11.407   2.926
81666SOL     OW46830   1.255   9.402  14.739
81666SOL    HW146831   1.284   9.325  14.788
81666SOL    HW246832   1.330   9.462  14.742
81667SOL     OW46833   1.873  14.579   6.322
81667SOL    HW146834   1.959  14.537   6.321
81667SOL    HW246835   1.841  14.567   6.412
81668SOL     OW46836   8.445   9.145  13.767
81668SOL    HW146837   8.471   9.208  13.834
81668SOL    HW246838   8.491   9.174  13.688
81669SOL     OW46839   4.210   8.687   3.592
81669SOL    HW146840   4.146   8.753   3.568
81669SOL    HW246841   4.277   8.734   3.640
81670SOL     OW46842   0.943   2.243   3.937
81670SOL    HW146843   0.921   2.336   3.943
81670SOL    HW246844   1.030   2.236   3.977
81671SOL     OW46845  11.422   8.810   5.376
81671SOL    HW146846  11.465   8.846   5.299
81671SOL    HW246847  11.427   8.716   5.365
81672SOL     OW46848   1.909  14.780   9.039
81672SOL    HW146849   1.914  14.865   9.083
81672SOL    HW246850   1.998  14.746   9.041
81673SOL     OW46851  12.695   8.712   7.417
81673SOL    HW146852  12.782   8.681   7.441
81673SOL    HW246853  12.654   8.638   7.372
81674SOL     OW46854  13.460   5.252   8.966
81674SOL    HW146855  13.369   5.272   8.989
81674SOL    HW246856  13.487   5.324   8.909
81675SOL     OW46857   9.918  11.178  13.621
81675SOL    HW146858   9.913  11.091  13.661
81675SOL    HW246859   9.856  11.231  13.671
81676SOL     OW46860   4.938  10.198   8.923
81676SOL    HW146861   4.887  10.121   8.948
81676SOL    HW246862   4.928  10.258   8.996
81677SOL     OW46863   1.323   7.082   3.686
81677SOL    HW146864   1.230   7.070   3.667
81677SOL    HW246865   1.350   7.000   3.729
81678SOL     OW46866   5.708   4.394  14.001
81678SOL    HW146867   5.696   4.337  13.925
81678SOL    HW246868   5.782   4.356  14.048
81679SOL     OW46869   0.489  13.325   0.920
81679SOL    HW146870   0.499  13.288   0.833
81679SOL    HW246871   0.472  13.418   0.905
81680SOL     OW46872   9.914  14.641   8.368
81680SOL    HW146873   9.908  14.611   8.459
81680SOL    HW246874   9.944  14.564   8.319
81681SOL     OW46875  12.972   5.233  10.804
81681SOL    HW146876  13.063   5.212  10.783
81681SOL    HW246877  12.923   5.154  10.780
81682SOL     OW46878  11.213   4.304   2.414
81682SOL    HW146879  11.301   4.275   2.389
81682SOL    HW246880  11.219   4.324   2.507
81683SOL     OW46881   6.612   0.022   2.467
81683SOL    HW146882   6.551   0.062   2.405
81683SOL    HW246883   6.643  14.815   2.424
81684SOL     OW46884   5.118  13.663  13.236
81684SOL    HW146885   5.155  13.634  13.153
81684SOL    HW246886   5.187  13.645  13.301
81685SOL     OW46887   4.924  13.378   2.830
81685SOL    HW146888   4.900  13.452   2.886
81685SOL    HW246889   4.888  13.301   2.874
81686SOL     OW46890   0.929   0.185  13.599
81686SOL    HW146891   0.911   0.163  13.507
81686SOL    HW246892   0.914   0.104  13.647
81687SOL     OW46893   4.252   5.250  12.524
81687SOL    HW146894   4.187   5.310  12.487
81687SOL    HW246895   4.319   5.242  12.456
81688SOL     OW46896   6.110   9.387  11.513
81688SOL    HW146897   6.073   9.410  11.598
81688SOL    HW246898   6.186   9.444  11.503
81689SOL     OW46899  14.593   5.401   7.689
81689SOL    HW146900  14.673   5.351   7.674
81689SOL    HW246901  14.599   5.427   7.781
81690SOL     OW46902   7.088   3.749   6.910
81690SOL    HW146903   7.069   3.691   6.836
81690SOL    HW246904   7.005   3.794   6.927
81691SOL     OW46905   3.457   2.585   3.361
81691SOL    HW146906   3.407   2.548   3.289
81691SOL    HW246907   3.471   2.676   3.336
81692SOL     OW46908   6.222  11.924   3.062
81692SOL    HW146909   6.278  11.895   2.990
81692SOL    HW246910   6.177  12.001   3.027
81693SOL     OW46911   1.583  10.194   2.344
81693SOL    HW146912   1.598  10.105   2.311
81693SOL    HW246913   1.550  10.181   2.433
81694SOL     OW46914  11.183   6.766  12.560
81694SOL    HW146915  11.159   6.811  12.479
81694SOL    HW246916  11.111   6.706  12.577
81695SOL     OW46917  14.372   5.434   0.650
81695SOL    HW146918  14.379   5.529   0.652
81695SOL    HW246919  14.462   5.403   0.652
81696SOL     OW46920   1.331   6.156   0.182
81696SOL    HW146921   1.277   6.232   0.160
81696SOL    HW246922   1.350   6.166   0.275
81697SOL     OW46923  11.502   8.209   7.231
81697SOL    HW146924  11.502   8.204   7.135
81697SOL    HW246925  11.417   8.250   7.252
81698SOL     OW46926  13.128   7.102  13.393
81698SOL    HW146927  13.098   7.026  13.344
81698SOL    HW246928  13.133   7.172  13.328
81699SOL     OW46929  12.172   5.201   4.782
81699SOL    HW146930  12.159   5.283   4.733
81699SOL    HW246931  12.091   5.189   4.831
81700SOL     OW46932   5.479   9.449   4.928
81700SOL    HW146933   5.510   9.478   5.014
81700SOL    HW246934   5.553   9.401   4.891
81701SOL     OW46935   5.583   6.282   3.523
81701SOL    HW146936   5.581   6.242   3.436
81701SOL    HW246937   5.620   6.214   3.580
81702SOL     OW46938   5.284  13.008  11.505
81702SOL    HW146939   5.274  13.098  11.473
81702SOL    HW246940   5.306  12.957  11.426
81703SOL     OW46941   5.020  12.085   7.709
81703SOL    HW146942   5.115  12.095   7.713
81703SOL    HW246943   5.004  12.048   7.622
81704SOL     OW46944   3.821   7.650   2.797
81704SOL    HW146945   3.751   7.668   2.734
81704SOL    HW246946   3.862   7.570   2.764
81705SOL     OW46947  14.465   6.016   6.088
81705SOL    HW146948  14.438   6.084   6.026
81705SOL    HW246949  14.445   6.053   6.174
81706SOL     OW46950  11.726  12.708  14.637
81706SOL    HW146951  11.817  12.698  14.665
81706SOL    HW246952  11.697  12.789  14.678
81707SOL     OW46953   8.396   2.629  10.195
81707SOL    HW146954   8.306   2.654  10.172
81707SOL    HW246955   8.446   2.710  10.190
81708SOL     OW46956   7.429  10.152   9.317
81708SOL    HW146957   7.432  10.080   9.254
81708SOL    HW246958   7.481  10.121   9.391
81709SOL     OW46959   4.270   2.494   3.375
81709SOL    HW146960   4.219   2.469   3.451
81709SOL    HW246961   4.356   2.454   3.390
81710SOL     OW46962  12.602   7.321  12.783
81710SOL    HW146963  12.690   7.320  12.821
81710SOL    HW246964  12.546   7.351  12.854
81711SOL     OW46965   5.697  13.154   3.550
81711SOL    HW146966   5.633  13.220   3.524
81711SOL    HW246967   5.650  13.098   3.612
81712SOL     OW46968   1.678   0.331   2.646
81712SOL    HW146969   1.661   0.371   2.561
81712SOL    HW246970   1.771   0.307   2.644
81713SOL     OW46971   3.893   0.069   1.656
81713SOL    HW146972   3.859   0.104   1.739
81713SOL    HW246973   3.961   0.132   1.631
81714SOL     OW46974  13.936   7.747  14.054
81714SOL    HW146975  13.960   7.674  14.111
81714SOL    HW246976  13.843   7.735  14.037
81715SOL     OW46977   8.767   3.839   7.506
81715SOL    HW146978   8.808   3.889   7.576
81715SOL    HW246979   8.703   3.784   7.551
81716SOL     OW46980  11.715   9.383  12.197
81716SOL    HW146981  11.656   9.456  12.216
81716SOL    HW246982  11.734   9.344  12.282
81717SOL     OW46983   6.503  13.937   8.056
81717SOL    HW146984   6.414  13.965   8.078
81717SOL    HW246985   6.510  13.848   8.090
81718SOL     OW46986   4.770   4.383  11.421
81718SOL    HW146987   4.754   4.346  11.507
81718SOL    HW246988   4.732   4.471  11.425
81719SOL     OW46989   5.215   9.423   0.575
81719SOL    HW146990   5.162   9.348   0.551
81719SOL    HW246991   5.215   9.478   0.497
81720SOL     OW46992  11.402   1.223   8.526
81720SOL    HW146993  11.338   1.152   8.517
81720SOL    HW246994  11.456   1.198   8.601
81721SOL     OW46995   4.783  11.309   6.598
81721SOL    HW146996   4.746  11.231   6.558
81721SOL    HW246997   4.709  11.369   6.608
81722SOL     OW46998  12.892   8.465   1.344
81722SOL    HW146999  12.927   8.376   1.349
81722SOL    HW247000  12.890   8.485   1.250
81723SOL     OW47001   1.011   4.499   8.597
81723SOL    HW147002   1.081   4.495   8.531
81723SOL    HW247003   1.005   4.410   8.632
81724SOL     OW47004   5.302  14.403   7.772
81724SOL    HW147005   5.301  14.308   7.759
81724SOL    HW247006   5.394  14.424   7.786
81725SOL     OW47007   9.207   0.544   0.476
81725SOL    HW147008   9.228   0.600   0.551
81725SOL    HW247009   9.181   0.460   0.515
81726SOL     OW47010  13.881   5.792  13.099
81726SOL    HW147011  13.827   5.749  13.032
81726SOL    HW247012  13.865   5.742  13.179
81727SOL     OW47013   3.830  12.855  12.605
81727SOL    HW147014   3.737  12.833  12.598
81727SOL    HW247015   3.831  12.945  12.635
81728SOL     OW47016   2.961   7.629   4.208
81728SOL    HW147017   2.902   7.557   4.185
81728SOL    HW247018   2.975   7.676   4.126
81729SOL     OW47019   6.349   6.263  13.645
81729SOL    HW147020   6.295   6.325  13.695
81729SOL    HW247021   6.350   6.183  13.698
81730SOL     OW47022  14.238   5.570   3.398
81730SOL    HW147023  14.154   5.526   3.383
81730SOL    HW247024  14.223   5.622   3.477
81731SOL     OW47025   7.100   4.181   5.777
81731SOL    HW147026   7.024   4.123   5.783
81731SOL    HW247027   7.111   4.196   5.683
81732SOL     OW47028   0.850  12.576   0.050
81732SOL    HW147029   0.885  12.659   0.082
81732SOL    HW247030   0.767  12.600   0.009
81733SOL     OW47031   2.010   6.585   5.277
81733SOL    HW147032   1.991   6.549   5.191
81733SOL    HW247033   2.049   6.513   5.326
81734SOL     OW47034  13.604   6.074   1.581
81734SOL    HW147035  13.624   5.980   1.587
81734SOL    HW247036  13.597   6.092   1.488
81735SOL     OW47037   9.757  12.331   0.525
81735SOL    HW147038   9.689  12.322   0.459
81735SOL    HW247039   9.839  12.314   0.478
81736SOL     OW47040  10.120  13.548  13.464
81736SOL    HW147041  10.120  13.570  13.557
81736SOL    HW247042  10.193  13.487  13.454
81737SOL     OW47043  10.073   0.473   7.997
81737SOL    HW147044  10.027   0.413   8.056
81737SOL    HW247045  10.165   0.462   8.020
81738SOL     OW47046  13.459   9.654   9.005
81738SOL    HW147047  13.412   9.646   8.922
81738SOL    HW247048  13.400   9.615   9.070
81739SOL     OW47049   5.873  10.487  12.157
81739SOL    HW147050   5.812  10.414  12.155
81739SOL    HW247051   5.873  10.521  12.067
81740SOL     OW47052   8.503   3.480   5.527
81740SOL    HW147053   8.542   3.567   5.516
81740SOL    HW247054   8.416   3.498   5.562
81741SOL     OW47055   8.111  13.928   3.545
81741SOL    HW147056   8.188  13.873   3.530
81741SOL    HW247057   8.072  13.938   3.458
81742SOL     OW47058   9.369   0.314  11.321
81742SOL    HW147059   9.458   0.339  11.296
81742SOL    HW247060   9.314   0.357  11.256
81743SOL     OW47061   0.024  13.413  11.300
81743SOL    HW147062   0.008  13.507  11.314
81743SOL    HW247063   0.048  13.407  11.208
81744SOL     OW47064  12.732   3.522  11.559
81744SOL    HW147065  12.809   3.471  11.586
81744SOL    HW247066  12.767   3.609  11.540
81745SOL     OW47067   3.403  11.126  13.294
81745SOL    HW147068   3.434  11.064  13.228
81745SOL    HW247069   3.315  11.150  13.264
81746SOL     OW47070   4.076   1.077  10.168
81746SOL    HW147071   4.169   1.098  10.175
81746SOL    HW247072   4.047   1.124  10.090
81747SOL     OW47073   9.674   1.786   8.738
81747SOL    HW147074   9.721   1.850   8.685
81747SOL    HW247075   9.637   1.836   8.810
81748SOL     OW47076  14.269   9.676   2.191
81748SOL    HW147077  14.363   9.683   2.207
81748SOL    HW247078  14.238   9.612   2.255
81749SOL     OW47079   3.943   6.619  11.437
81749SOL    HW147080   3.897   6.703  11.435
81749SOL    HW247081   3.873   6.553  11.431
81750SOL     OW47082   4.222  12.530   2.166
81750SOL    HW147083   4.212  12.541   2.261
81750SOL    HW247084   4.205  12.617   2.130
81751SOL     OW47085   1.059   9.012   4.888
81751SOL    HW147086   1.052   8.930   4.935
81751SOL    HW247087   1.146   9.009   4.847
81752SOL     OW47088   2.233  14.044  14.724
81752SOL    HW147089   2.297  14.001  14.781
81752SOL    HW247090   2.166  13.977  14.708
81753SOL     OW47091   7.360   4.306   2.021
81753SOL    HW147092   7.341   4.220   1.983
81753SOL    HW247093   7.385   4.360   1.946
81754SOL     OW47094  13.594   2.381   7.375
81754SOL    HW147095  13.574   2.474   7.392
81754SOL    HW247096  13.670   2.363   7.430
81755SOL     OW47097  11.821   5.491   4.505
81755SOL    HW147098  11.759   5.443   4.449
81755SOL    HW247099  11.893   5.430   4.519
81756SOL     OW47100   4.598  11.595   0.418
81756SOL    HW147101   4.680  11.606   0.466
81756SOL    HW247102   4.550  11.677   0.433
81757SOL     OW47103  10.712   7.614  14.203
81757SOL    HW147104  10.676   7.703  14.193
81757SOL    HW247105  10.700   7.574  14.117
81758SOL     OW47106   8.697   9.086   4.470
81758SOL    HW147107   8.691   8.991   4.456
81758SOL    HW247108   8.608   9.113   4.492
81759SOL     OW47109   4.946   6.242   0.740
81759SOL    HW147110   4.920   6.173   0.801
81759SOL    HW247111   4.895   6.319   0.768
81760SOL     OW47112   0.875  14.069   7.407
81760SOL    HW147113   0.925  13.993   7.378
81760SOL    HW247114   0.908  14.087   7.495
81761SOL     OW47115   8.007   4.099  13.295
81761SOL    HW147116   8.049   4.043  13.360
81761SOL    HW247117   7.914   4.092  13.313
81762SOL     OW47118   5.848   3.346   9.125
81762SOL    HW147119   5.870   3.428   9.168
81762SOL    HW247120   5.923   3.289   9.141
81763SOL     OW47121   6.368   0.427   6.817
81763SOL    HW147122   6.352   0.485   6.891
81763SOL    HW247123   6.440   0.468   6.768
81764SOL     OW47124   0.554   3.891  13.263
81764SOL    HW147125   0.583   3.943  13.187
81764SOL    HW247126   0.536   3.804  13.227
81765SOL     OW47127   3.990   4.092   6.759
81765SOL    HW147128   3.912   4.041   6.737
81765SOL    HW247129   3.992   4.091   6.855
81766SOL     OW47130   7.853   9.662   8.236
81766SOL    HW147131   7.943   9.642   8.208
81766SOL    HW247132   7.812   9.576   8.246
81767SOL     OW47133   2.149  12.016   5.379
81767SOL    HW147134   2.198  12.004   5.461
81767SOL    HW247135   2.141  11.928   5.343
81768SOL     OW47136   9.787   7.569   6.429
81768SOL    HW147137   9.870   7.615   6.439
81768SOL    HW247138   9.771   7.529   6.514
81769SOL     OW47139   7.490   6.961   4.781
81769SOL    HW147140   7.562   6.898   4.773
81769SOL    HW247141   7.529   7.045   4.756
81770SOL     OW47142  14.778   9.682   6.364
81770SOL    HW147143  14.838   9.618   6.402
81770SOL    HW247144  14.804   9.765   6.404
81771SOL     OW47145   1.442  13.000   8.687
81771SOL    HW147146   1.475  12.996   8.597
81771SOL    HW247147   1.512  13.043   8.736
81772SOL     OW47148  11.529   9.916   9.512
81772SOL    HW147149  11.511   9.885   9.423
81772SOL    HW247150  11.625   9.919   9.517
81773SOL     OW47151  10.086   6.745   6.643
81773SOL    HW147152  10.145   6.792   6.585
81773SOL    HW247153   9.999   6.780   6.623
81774SOL     OW47154   7.542   8.330   7.622
81774SOL    HW147155   7.459   8.373   7.604
81774SOL    HW247156   7.531   8.240   7.591
81775SOL     OW47157   3.049   4.887  10.099
81775SOL    HW147158   3.052   4.891  10.003
81775SOL    HW247159   3.135   4.915  10.127
81776SOL     OW47160   3.566   5.046  11.957
81776SOL    HW147161   3.474   5.053  11.983
81776SOL    HW247162   3.577   4.954  11.935
81777SOL     OW47163  13.227   6.242  11.072
81777SOL    HW147164  13.198   6.203  11.155
81777SOL    HW247165  13.319   6.261  11.086
81778SOL     OW47166   6.929   4.369   0.393
81778SOL    HW147167   6.868   4.310   0.348
81778SOL    HW247168   7.016   4.339   0.366
81779SOL     OW47169  12.595  11.098  11.346
81779SOL    HW147170  12.564  11.065  11.431
81779SOL    HW247171  12.515  11.115  11.296
81780SOL     OW47172   4.195   5.234   7.167
81780SOL    HW147173   4.179   5.303   7.232
81780SOL    HW247174   4.151   5.266   7.088
81781SOL     OW47175   9.407   0.759   0.261
81781SOL    HW147176   9.332   0.815   0.283
81781SOL    HW247177   9.394   0.738   0.168
81782SOL     OW47178   0.580   3.830  11.201
81782SOL    HW147179   0.560   3.785  11.119
81782SOL    HW247180   0.495   3.866  11.229
81783SOL     OW47181   8.287   6.416  10.724
81783SOL    HW147182   8.258   6.489  10.780
81783SOL    HW247183   8.270   6.338  10.776
81784SOL     OW47184   0.141   6.861   4.646
81784SOL    HW147185   0.223   6.813   4.640
81784SOL    HW247186   0.129   6.877   4.739
81785SOL     OW47187   5.984   2.284   7.527
81785SOL    HW147188   5.944   2.233   7.598
81785SOL    HW247189   5.921   2.354   7.509
81786SOL     OW47190  12.844   5.666   1.401
81786SOL    HW147191  12.939   5.673   1.400
81786SOL    HW247192  12.813   5.752   1.375
81787SOL     OW47193  11.692   6.204   5.744
81787SOL    HW147194  11.737   6.194   5.660
81787SOL    HW247195  11.637   6.282   5.732
81788SOL     OW47196   1.858   4.001  12.945
81788SOL    HW147197   1.953   3.994  12.938
81788SOL    HW247198   1.825   3.951  12.871
81789SOL     OW47199   4.042   6.323  14.488
81789SOL    HW147200   4.123   6.276  14.470
81789SOL    HW247201   3.973   6.257  14.479
81790SOL     OW47202  12.791   1.882  13.333
81790SOL    HW147203  12.859   1.933  13.289
81790SOL    HW247204  12.820   1.874  13.424
81791SOL     OW47205  14.857   0.445   7.636
81791SOL    HW147206   0.056   0.395   7.674
81791SOL    HW247207  14.831   0.505   7.706
81792SOL     OW47208   4.220  10.480  13.455
81792SOL    HW147209   4.144  10.538  13.458
81792SOL    HW247210   4.199  10.416  13.387
81793SOL     OW47211  11.828  11.204  11.623
81793SOL    HW147212  11.918  11.206  11.655
81793SOL    HW247213  11.831  11.149  11.545
81794SOL     OW47214   8.896  12.162   6.304
81794SOL    HW147215   8.852  12.102   6.365
81794SOL    HW247216   8.834  12.172   6.232
81795SOL     OW47217   6.241   8.970   9.427
81795SOL    HW147218   6.221   8.887   9.470
81795SOL    HW247219   6.172   8.980   9.361
81796SOL     OW47220  14.464   1.222   6.305
81796SOL    HW147221  14.451   1.278   6.228
81796SOL    HW247222  14.532   1.160   6.279
81797SOL     OW47223   1.797   5.145   0.736
81797SOL    HW147224   1.876   5.194   0.758
81797SOL    HW247225   1.822   5.093   0.660
81798SOL     OW47226   4.862   7.999   2.636
81798SOL    HW147227   4.923   8.057   2.591
81798SOL    HW247228   4.819   7.950   2.566
81799SOL     OW47229   6.797   0.769   4.980
81799SOL    HW147230   6.819   0.847   4.930
81799SOL    HW247231   6.702   0.760   4.970
81800SOL     OW47232   1.068   4.647  14.819
81800SOL    HW147233   1.105   4.579   0.003
81800SOL    HW247234   1.081   4.729  14.867
81801SOL     OW47235   3.508  11.909   4.533
81801SOL    HW147236   3.456  11.855   4.593
81801SOL    HW247237   3.594  11.867   4.532
81802SOL     OW47238   2.803   7.839   7.959
81802SOL    HW147239   2.757   7.756   7.976
81802SOL    HW247240   2.743   7.906   7.993
81803SOL     OW47241  13.450  12.177  14.777
81803SOL    HW147242  13.467  12.256  14.725
81803SOL    HW247243  13.430  12.109  14.712
81804SOL     OW47244   7.805   3.835   8.513
81804SOL    HW147245   7.782   3.805   8.425
81804SOL    HW247246   7.857   3.914   8.499
81805SOL     OW47247   8.967  13.779  14.064
81805SOL    HW147248   8.961  13.762  13.970
81805SOL    HW247249   9.053  13.743  14.089
81806SOL     OW47250  11.868   2.418  13.281
81806SOL    HW147251  11.913   2.394  13.200
81806SOL    HW247252  11.913   2.496  13.311
81807SOL     OW47253   4.343  14.030   7.200
81807SOL    HW147254   4.268  14.020   7.259
81807SOL    HW247255   4.392  13.948   7.210
81808SOL     OW47256  10.447   4.993   9.270
81808SOL    HW147257  10.370   4.939   9.251
81808SOL    HW247258  10.477   4.961   9.355
81809SOL     OW47259   5.706   2.857   6.611
81809SOL    HW147260   5.721   2.799   6.686
81809SOL    HW247261   5.672   2.938   6.649
81810SOL     OW47262  11.038  13.077  12.302
81810SOL    HW147263  11.078  12.998  12.338
81810SOL    HW247264  11.074  13.148  12.355
81811SOL     OW47265   9.640   6.858   8.327
81811SOL    HW147266   9.592   6.899   8.400
81811SOL    HW247267   9.702   6.799   8.369
81812SOL     OW47268   8.494  13.422   4.996
81812SOL    HW147269   8.520  13.344   5.045
81812SOL    HW247270   8.528  13.496   5.048
81813SOL     OW47271  11.498   6.695   2.471
81813SOL    HW147272  11.553   6.737   2.404
81813SOL    HW247273  11.494   6.604   2.444
81814SOL     OW47274   2.288   0.299  10.388
81814SOL    HW147275   2.381   0.312  10.407
81814SOL    HW247276   2.244   0.314  10.472
81815SOL     OW47277  14.369  12.745   4.167
81815SOL    HW147278  14.322  12.828   4.179
81815SOL    HW247279  14.448  12.755   4.221
81816SOL     OW47280   5.724   6.906   0.108
81816SOL    HW147281   5.715   6.996   0.077
81816SOL    HW247282   5.679   6.853   0.041
81817SOL     OW47283   9.619   8.924  11.268
81817SOL    HW147284   9.696   8.932  11.211
81817SOL    HW247285   9.554   8.981  11.227
81818SOL     OW47286   7.378  12.628   0.726
81818SOL    HW147287   7.307  12.610   0.788
81818SOL    HW247288   7.386  12.724   0.727
81819SOL     OW47289  11.365   9.395  14.052
81819SOL    HW147290  11.364   9.413  13.958
81819SOL    HW247291  11.273   9.397  14.079
81820SOL     OW47292  12.796  14.795   1.923
81820SOL    HW147293  12.810   0.004   1.875
81820SOL    HW247294  12.792  14.728   1.855
81821SOL     OW47295   6.149   3.391   5.560
81821SOL    HW147296   6.158   3.394   5.655
81821SOL    HW247297   6.110   3.475   5.537
81822SOL     OW47298  11.887   7.684   0.344
81822SOL    HW147299  11.805   7.683   0.394
81822SOL    HW247300  11.939   7.753   0.383
81823SOL     OW47301  12.198   7.441  10.470
81823SOL    HW147302  12.264   7.441  10.540
81823SOL    HW247303  12.204   7.528  10.432
81824SOL     OW47304   2.142   4.955   3.684
81824SOL    HW147305   2.068   4.916   3.731
81824SOL    HW247306   2.200   4.987   3.753
81825SOL     OW47307   6.903   1.299   0.496
81825SOL    HW147308   6.879   1.273   0.585
81825SOL    HW247309   6.991   1.337   0.505
81826SOL     OW47310   5.099   7.880   5.698
81826SOL    HW147311   5.023   7.831   5.728
81826SOL    HW247312   5.097   7.873   5.603
81827SOL     OW47313  14.279  10.312  11.778
81827SOL    HW147314  14.289  10.283  11.869
81827SOL    HW247315  14.252  10.234  11.730
81828SOL     OW47316   2.623   1.426  10.483
81828SOL    HW147317   2.643   1.374  10.406
81828SOL    HW247318   2.662   1.512  10.465
81829SOL     OW47319   9.951  12.319  11.448
81829SOL    HW147320   9.877  12.295  11.503
81829SOL    HW247321  10.027  12.313  11.506
81830SOL     OW47322   5.916   2.603  13.344
81830SOL    HW147323   6.009   2.626  13.334
81830SOL    HW247324   5.894   2.633  13.433
81831SOL     OW47325  11.362   5.517   1.448
81831SOL    HW147326  11.333   5.569   1.373
81831SOL    HW247327  11.284   5.472   1.479
81832SOL     OW47328  12.370   9.525  10.563
81832SOL    HW147329  12.280   9.497  10.545
81832SOL    HW247330  12.419   9.499  10.486
81833SOL     OW47331   9.232  12.480  13.614
81833SOL    HW147332   9.254  12.527  13.534
81833SOL    HW247333   9.310  12.485  13.668
81834SOL     OW47334   1.771   0.004   7.026
81834SOL    HW147335   1.705   0.066   6.997
81834SOL    HW247336   1.767   0.006   7.121
81835SOL     OW47337   0.654   5.661   7.044
81835SOL    HW147338   0.748   5.678   7.050
81835SOL    HW247339   0.633   5.616   7.125
81836SOL     OW47340   8.773  10.599  14.499
81836SOL    HW147341   8.740  10.656  14.569
81836SOL    HW247342   8.836  10.653  14.452
81837SOL     OW47343   5.067   7.660  14.739
81837SOL    HW147344   4.998   7.603  14.772
81837SOL    HW247345   5.146   7.631  14.786
81838SOL     OW47346  11.090  14.721  12.871
81838SOL    HW147347  11.136  14.754  12.793
81838SOL    HW247348  11.147  14.744  12.944
81839SOL     OW47349   7.919   7.656   8.246
81839SOL    HW147350   7.836   7.678   8.203
81839SOL    HW247351   7.892   7.616   8.329
81840SOL     OW47352  14.868   2.017   1.990
81840SOL    HW147353  14.789   2.031   2.043
81840SOL    HW247354   0.066   2.017   2.054
81841SOL     OW47355  11.490   4.943   2.592
81841SOL    HW147356  11.568   4.997   2.595
81841SOL    HW247357  11.484   4.915   2.500
81842SOL     OW47358   2.447   7.494  13.619
81842SOL    HW147359   2.445   7.535  13.706
81842SOL    HW247360   2.539   7.469  13.607
81843SOL     OW47361   3.325  12.870   2.922
81843SOL    HW147362   3.362  12.921   2.850
81843SOL    HW247363   3.397  12.816   2.952
81844SOL     OW47364   0.147  11.118  10.098
81844SOL    HW147365   0.086  11.052  10.130
81844SOL    HW247366   0.227  11.103  10.149
81845SOL     OW47367  11.336   2.839  11.225
81845SOL    HW147368  11.269   2.906  11.217
81845SOL    HW247369  11.411   2.874  11.177
81846SOL     OW47370   4.907   3.041  12.284
81846SOL    HW147371   4.963   2.993  12.345
81846SOL    HW247372   4.820   3.036  12.323
81847SOL     OW47373   8.759  12.908   7.482
81847SOL    HW147374   8.797  12.867   7.404
81847SOL    HW247375   8.833  12.944   7.530
81848SOL     OW47376   2.210   0.894  13.807
81848SOL    HW147377   2.179   0.940  13.885
81848SOL    HW247378   2.133   0.846  13.776
81849SOL     OW47379   5.667  11.307  14.369
81849SOL    HW147380   5.622  11.375  14.320
81849SOL    HW247381   5.614  11.229  14.356
81850SOL     OW47382   3.365   9.122   3.061
81850SOL    HW147383   3.319   9.084   2.986
81850SOL    HW247384   3.350   9.216   3.054
81851SOL     OW47385   8.557   3.098  12.934
81851SOL    HW147386   8.542   3.155  13.009
81851SOL    HW247387   8.547   3.156  12.858
81852SOL     OW47388   5.735   1.353   1.667
81852SOL    HW147389   5.749   1.431   1.722
81852SOL    HW247390   5.785   1.370   1.588
81853SOL     OW47391  13.239   1.058   8.264
81853SOL    HW147392  13.307   1.086   8.203
81853SOL    HW247393  13.212   0.972   8.232
81854SOL     OW47394  12.034  12.448   7.530
81854SOL    HW147395  11.939  12.439   7.535
81854SOL    HW247396  12.067  12.359   7.548
81855SOL     OW47397   5.867   5.514  10.210
81855SOL    HW147398   5.922   5.525  10.288
81855SOL    HW247399   5.907   5.570  10.144
81856SOL     OW47400   2.644  13.248  12.358
81856SOL    HW147401   2.664  13.283  12.271
81856SOL    HW247402   2.719  13.193  12.379
81857SOL     OW47403  12.392   5.012   0.457
81857SOL    HW147404  12.455   5.082   0.474
81857SOL    HW247405  12.355   4.991   0.543
81858SOL     OW47406   0.612   1.914   3.549
81858SOL    HW147407   0.566   1.906   3.465
81858SOL    HW247408   0.558   1.864   3.611
81859SOL     OW47409   1.361  12.790   3.927
81859SOL    HW147410   1.284  12.845   3.940
81859SOL    HW247411   1.359  12.726   3.997
81860SOL     OW47412   9.032   2.320  10.592
81860SOL    HW147413   9.033   2.295  10.684
81860SOL    HW247414   9.095   2.392  10.586
81861SOL     OW47415   1.363  12.516  11.330
81861SOL    HW147416   1.420  12.446  11.299
81861SOL    HW247417   1.301  12.473  11.388
81862SOL     OW47418  10.741  13.598  11.715
81862SOL    HW147419  10.775  13.537  11.649
81862SOL    HW247420  10.819  13.641  11.750
81863SOL     OW47421   9.066   0.576   6.618
81863SOL    HW147422   8.979   0.606   6.590
81863SOL    HW247423   9.059   0.565   6.713
81864SOL     OW47424   1.815   8.374   0.309
81864SOL    HW147425   1.888   8.434   0.324
81864SOL    HW247426   1.833   8.336   0.223
81865SOL     OW47427   9.667   0.706  13.747
81865SOL    HW147428   9.674   0.801  13.743
81865SOL    HW247429   9.728   0.681  13.817
81866SOL     OW47430   3.583   4.469  10.745
81866SOL    HW147431   3.609   4.379  10.725
81866SOL    HW247432   3.537   4.498  10.666
81867SOL     OW47433  11.498   6.551  11.665
81867SOL    HW147434  11.468   6.462  11.681
81867SOL    HW247435  11.419   6.604  11.662
81868SOL     OW47436   2.702   3.110   6.250
81868SOL    HW147437   2.657   3.088   6.331
81868SOL    HW247438   2.641   3.086   6.181
81869SOL     OW47439   0.761  14.309   5.899
81869SOL    HW147440   0.841  14.289   5.947
81869SOL    HW247441   0.704  14.234   5.916
81870SOL     OW47442  11.477  14.733   1.786
81870SOL    HW147443  11.429  14.670   1.840
81870SOL    HW247444  11.549  14.683   1.748
81871SOL     OW47445   5.205  14.383  13.837
81871SOL    HW147446   5.126  14.342  13.872
81871SOL    HW247447   5.239  14.320  13.773
81872SOL     OW47448  11.577  11.842   4.428
81872SOL    HW147449  11.489  11.835   4.463
81872SOL    HW247450  11.586  11.935   4.405
81873SOL     OW47451   0.830  12.924   2.518
81873SOL    HW147452   0.878  13.004   2.496
81873SOL    HW247453   0.868  12.857   2.461
81874SOL     OW47454   0.045   1.487  14.835
81874SOL    HW147455  14.823   1.491  14.822
81874SOL    HW247456   0.077   1.433  14.762
81875SOL     OW47457   0.746  14.371   2.561
81875SOL    HW147458   0.813  14.310   2.592
81875SOL    HW247459   0.663  14.333   2.589
81876SOL     OW47460  12.555  12.280   8.512
81876SOL    HW147461  12.631  12.235   8.548
81876SOL    HW247462  12.585  12.314   8.427
81877SOL     OW47463   2.355  14.010   1.838
81877SOL    HW147464   2.409  14.018   1.760
81877SOL    HW247465   2.350  14.099   1.873
81878SOL     OW47466   3.412  11.391   8.864
81878SOL    HW147467   3.342  11.435   8.816
81878SOL    HW247468   3.492  11.409   8.814
81879SOL     OW47469   3.272   3.300   2.561
81879SOL    HW147470   3.304   3.218   2.599
81879SOL    HW247471   3.197   3.273   2.508
81880SOL     OW47472  12.164   2.630  13.862
81880SOL    HW147473  12.186   2.537  13.860
81880SOL    HW247474  12.149   2.653  13.770
81881SOL     OW47475   2.513  11.982   9.990
81881SOL    HW147476   2.567  12.030  10.053
81881SOL    HW247477   2.571  11.968   9.915
81882SOL     OW47478   8.538  10.916   6.452
81882SOL    HW147479   8.509  10.907   6.361
81882SOL    HW247480   8.458  10.911   6.504
81883SOL     OW47481  11.207   2.948   8.486
81883SOL    HW147482  11.260   2.891   8.543
81883SOL    HW247483  11.256   3.030   8.483
81884SOL     OW47484  11.306   7.936  12.726
81884SOL    HW147485  11.264   8.021  12.716
81884SOL    HW247486  11.252   7.890  12.790
81885SOL     OW47487   4.971   0.793  12.549
81885SOL    HW147488   4.985   0.709  12.593
81885SOL    HW247489   4.882   0.787  12.513
81886SOL     OW47490   6.063  14.084  13.653
81886SOL    HW147491   5.988  14.077  13.712
81886SOL    HW247492   6.082  13.994  13.626
81887SOL     OW47493   0.283   7.862   3.594
81887SOL    HW147494   0.368   7.836   3.631
81887SOL    HW247495   0.236   7.780   3.583
81888SOL     OW47496  13.667   7.813   4.507
81888SOL    HW147497  13.746   7.850   4.545
81888SOL    HW247498  13.641   7.743   4.568
81889SOL     OW47499  11.895   5.337  14.279
81889SOL    HW147500  11.919   5.345  14.371
81889SOL    HW247501  11.820   5.277  14.279
81890SOL     OW47502   8.977   3.159   8.803
81890SOL    HW147503   8.934   3.109   8.872
81890SOL    HW247504   9.034   3.220   8.850
81891SOL     OW47505   2.277   9.870   4.535
81891SOL    HW147506   2.211   9.888   4.468
81891SOL    HW247507   2.356   9.913   4.503
81892SOL     OW47508  12.643   7.021   2.466
81892SOL    HW147509  12.584   7.046   2.395
81892SOL    HW247510  12.730   7.029   2.428
81893SOL     OW47511  14.154  12.889   7.979
81893SOL    HW147512  14.103  12.823   7.933
81893SOL    HW247513  14.089  12.953   8.009
81894SOL     OW47514   7.835   8.774  13.494
81894SOL    HW147515   7.915   8.782  13.546
81894SOL    HW247516   7.831   8.854  13.442
81895SOL     OW47517   1.652   9.591   5.259
81895SOL    HW147518   1.617   9.503   5.274
81895SOL    HW247519   1.698   9.585   5.176
81896SOL     OW47520  12.369  14.455   3.701
81896SOL    HW147521  12.449  14.444   3.754
81896SOL    HW247522  12.360  14.372   3.655
81897SOL     OW47523   9.012  10.390  13.604
81897SOL    HW147524   9.005  10.321  13.537
81897SOL    HW247525   9.105  10.397  13.622
81898SOL     OW47526   5.841   0.269  11.300
81898SOL    HW147527   5.810   0.253  11.210
81898SOL    HW247528   5.881   0.186  11.326
81899SOL     OW47529  13.568   3.409   6.232
81899SOL    HW147530  13.538   3.406   6.323
81899SOL    HW247531  13.642   3.348   6.230
81900SOL     OW47532  10.299   0.093   6.569
81900SOL    HW147533  10.301  14.871   6.562
81900SOL    HW247534  10.282   0.110   6.662
81901SOL     OW47535  11.615  10.790  10.895
81901SOL    HW147536  11.536  10.786  10.948
81901SOL    HW247537  11.583  10.798  10.805
81902SOL     OW47538  14.561  14.029   5.924
81902SOL    HW147539  14.548  14.092   5.853
81902SOL    HW247540  14.647  14.051   5.959
81903SOL     OW47541   1.285   5.319  11.702
81903SOL    HW147542   1.349   5.257  11.665
81903SOL    HW247543   1.261   5.375  11.628
81904SOL     OW47544  11.977   2.306   8.943
81904SOL    HW147545  11.970   2.214   8.968
81904SOL    HW247546  11.940   2.309   8.855
81905SOL     OW47547  11.912  10.886   3.737
81905SOL    HW147548  12.007  10.887   3.738
81905SOL    HW247549  11.887  10.973   3.709
81906SOL     OW47550  12.526  10.912  10.024
81906SOL    HW147551  12.554  10.964  10.099
81906SOL    HW247552  12.607  10.893   9.976
81907SOL     OW47553  11.712   8.899   6.932
81907SOL    HW147554  11.756   8.954   6.867
81907SOL    HW247555  11.620   8.903   6.909
81908SOL     OW47556   4.034   6.910   3.199
81908SOL    HW147557   4.127   6.931   3.189
81908SOL    HW247558   3.988   6.988   3.168
81909SOL     OW47559   2.222  12.617   6.124
81909SOL    HW147560   2.210  12.711   6.140
81909SOL    HW247561   2.265  12.613   6.039
81910SOL     OW47562  10.130   5.976  11.178
81910SOL    HW147563  10.058   5.926  11.140
81910SOL    HW247564  10.187   5.996  11.103
81911SOL     OW47565  11.450   0.582   1.001
81911SOL    HW147566  11.418   0.659   0.954
81911SOL    HW247567  11.513   0.616   1.064
81912SOL     OW47568   2.793   2.630   6.469
81912SOL    HW147569   2.830   2.612   6.383
81912SOL    HW247570   2.857   2.593   6.531
81913SOL     OW47571   4.619  14.189  14.677
81913SOL    HW147572   4.698  14.139  14.699
81913SOL    HW247573   4.643  14.237  14.598
81914SOL     OW47574  12.371   1.917   4.258
81914SOL    HW147575  12.395   1.978   4.327
81914SOL    HW247576  12.276   1.923   4.252
81915SOL     OW47577   0.611  11.192   0.918
81915SOL    HW147578   0.531  11.244   0.928
81915SOL    HW247579   0.580  11.106   0.890
81916SOL     OW47580   4.387  14.515   2.043
81916SOL    HW147581   4.292  14.506   2.030
81916SOL    HW247582   4.426  14.472   1.967
81917SOL     OW47583   6.763   6.810  11.858
81917SOL    HW147584   6.767   6.905  11.853
81917SOL    HW247585   6.824   6.780  11.790
81918SOL     OW47586   4.701   0.083  12.139
81918SOL    HW147587   4.718   0.150  12.204
81918SOL    HW247588   4.778   0.083  12.083
81919SOL     OW47589   2.439   2.541  13.211
81919SOL    HW147590   2.354   2.538  13.255
81919SOL    HW247591   2.420   2.522  13.119
81920SOL     OW47592  12.810   6.317  12.496
81920SOL    HW147593  12.899   6.287  12.517
81920SOL    HW247594  12.811   6.410  12.519
81921SOL     OW47595   9.237   8.295   3.490
81921SOL    HW147596   9.265   8.359   3.555
81921SOL    HW247597   9.228   8.346   3.409
81922SOL     OW47598   6.900  12.313  12.188
81922SOL    HW147599   6.809  12.340  12.199
81922SOL    HW247600   6.930  12.362  12.112
81923SOL     OW47601   8.823   1.919   5.945
81923SOL    HW147602   8.787   2.006   5.967
81923SOL    HW247603   8.747   1.869   5.915
81924SOL     OW47604   5.379   7.990   3.272
81924SOL    HW147605   5.422   7.910   3.239
81924SOL    HW247606   5.369   7.974   3.366
81925SOL     OW47607   5.964  14.309   4.423
81925SOL    HW147608   5.909  14.309   4.345
81925SOL    HW247609   5.986  14.401   4.436
81926SOL     OW47610   1.783  11.915   0.257
81926SOL    HW147611   1.871  11.943   0.235
81926SOL    HW247612   1.735  11.918   0.174
81927SOL     OW47613   3.906   2.832   9.371
81927SOL    HW147614   3.946   2.773   9.307
81927SOL    HW247615   3.848   2.776   9.422
81928SOL     OW47616   4.519   3.837   5.298
81928SOL    HW147617   4.551   3.833   5.208
81928SOL    HW247618   4.550   3.921   5.331
81929SOL     OW47619   6.312   6.303   5.908
81929SOL    HW147620   6.382   6.270   5.852
81929SOL    HW247621   6.333   6.268   5.995
81930SOL     OW47622   9.774  13.458   7.030
81930SOL    HW147623   9.726  13.472   7.111
81930SOL    HW247624   9.834  13.532   7.024
81931SOL     OW47625   2.120   7.550   2.229
81931SOL    HW147626   2.105   7.644   2.217
81931SOL    HW247627   2.199   7.545   2.282
81932SOL     OW47628  13.681  10.464   7.924
81932SOL    HW147629  13.742  10.494   7.992
81932SOL    HW247630  13.626  10.540   7.906
81933SOL     OW47631  12.297   3.752   9.795
81933SOL    HW147632  12.364   3.683   9.795
81933SOL    HW247633  12.347   3.834   9.799
81934SOL     OW47634   5.220  13.470   3.997
81934SOL    HW147635   5.202  13.403   3.932
81934SOL    HW247636   5.136  13.514   4.010
81935SOL     OW47637  10.224   8.439  10.600
81935SOL    HW147638  10.284   8.379  10.555
81935SOL    HW247639  10.199   8.392  10.680
81936SOL     OW47640   1.745  10.925   2.785
81936SOL    HW147641   1.684  10.970   2.727
81936SOL    HW247642   1.690  10.875   2.845
81937SOL     OW47643   8.663   2.006   1.846
81937SOL    HW147644   8.685   2.044   1.761
81937SOL    HW247645   8.571   2.027   1.859
81938SOL     OW47646   6.044  13.423   7.846
81938SOL    HW147647   6.139  13.432   7.842
81938SOL    HW247648   6.029  13.328   7.843
81939SOL     OW47649   9.712  13.061  11.371
81939SOL    HW147650   9.766  13.011  11.433
81939SOL    HW247651   9.657  12.996  11.328
81940SOL     OW47652   9.279  13.551  10.722
81940SOL    HW147653   9.245  13.581  10.638
81940SOL    HW247654   9.364  13.594  10.730
81941SOL     OW47655   9.186   6.848  13.867
81941SOL    HW147656   9.278   6.849  13.894
81941SOL    HW247657   9.139   6.880  13.943
81942SOL     OW47658   5.374  12.444   9.172
81942SOL    HW147659   5.391  12.515   9.234
81942SOL    HW247660   5.279  12.444   9.161
81943SOL     OW47661   7.455   4.804   0.050
81943SOL    HW147662   7.376   4.817   0.103
81943SOL    HW247663   7.520   4.772   0.113
81944SOL     OW47664  14.127   7.252   3.166
81944SOL    HW147665  14.036   7.241   3.193
81944SOL    HW247666  14.128   7.226   3.074
81945SOL     OW47667   4.393   9.249  12.093
81945SOL    HW147668   4.403   9.318  12.028
81945SOL    HW247669   4.377   9.170  12.041
81946SOL     OW47670  10.037   5.542   9.801
81946SOL    HW147671   9.985   5.542   9.721
81946SOL    HW247672  10.058   5.450   9.816
81947SOL     OW47673  10.035  12.735  12.858
81947SOL    HW147674  10.025  12.665  12.793
81947SOL    HW247675   9.979  12.805  12.826
81948SOL     OW47676   5.625  12.962   4.880
81948SOL    HW147677   5.543  12.990   4.839
81948SOL    HW247678   5.619  12.867   4.884
81949SOL     OW47679  14.503   2.545  10.430
81949SOL    HW147680  14.473   2.454  10.420
81949SOL    HW247681  14.598   2.538  10.435
81950SOL     OW47682   4.168  12.410   8.738
81950SOL    HW147683   4.223  12.354   8.793
81950SOL    HW247684   4.215  12.493   8.733
81951SOL     OW47685   8.201  10.045  11.220
81951SOL    HW147686   8.257  10.005  11.287
81951SOL    HW247687   8.206   9.984  11.146
81952SOL     OW47688   5.618   3.483   0.343
81952SOL    HW147689   5.575   3.421   0.284
81952SOL    HW247690   5.711   3.476   0.321
81953SOL     OW47691   5.327  12.274   0.317
81953SOL    HW147692   5.253  12.221   0.346
81953SOL    HW247693   5.327  12.349   0.377
81954SOL     OW47694   9.910   6.508  14.180
81954SOL    HW147695   9.932   6.492  14.272
81954SOL    HW247696   9.965   6.583  14.156
81955SOL     OW47697   1.799   7.052   4.766
81955SOL    HW147698   1.891   7.033   4.749
81955SOL    HW247699   1.798   7.145   4.792
81956SOL     OW47700  14.768   6.709   4.869
81956SOL    HW147701  14.706   6.691   4.941
81956SOL    HW247702  14.751   6.800   4.845
81957SOL     OW47703   0.226   4.354   6.851
81957SOL    HW147704   0.191   4.297   6.920
81957SOL    HW247705   0.152   4.369   6.793
81958SOL     OW47706   0.075  10.984  10.415
81958SOL    HW147707   0.042  11.072  10.398
81958SOL    HW247708   0.151  10.997  10.472
81959SOL     OW47709   5.066   9.055  11.322
81959SOL    HW147710   5.101   9.142  11.344
81959SOL    HW247711   5.120   9.025  11.249
81960SOL     OW47712   1.070   6.953   9.286
81960SOL    HW147713   1.137   6.929   9.222
81960SOL    HW247714   1.110   6.934   9.371
81961SOL     OW47715  11.152   6.504  11.313
81961SOL    HW147716  11.132   6.508  11.220
81961SOL    HW247717  11.067   6.502  11.356
81962SOL     OW47718   0.818   5.128   2.809
81962SOL    HW147719   0.769   5.090   2.736
81962SOL    HW247720   0.853   5.053   2.857
81963SOL     OW47721  11.367   0.768  10.249
81963SOL    HW147722  11.353   0.768  10.155
81963SOL    HW247723  11.355   0.859  10.275
81964SOL     OW47724   8.034   1.627   4.229
81964SOL    HW147725   7.997   1.669   4.151
81964SOL    HW247726   7.966   1.567   4.258
81965SOL     OW47727   5.834  10.475   5.401
81965SOL    HW147728   5.915  10.465   5.352
81965SOL    HW247729   5.841  10.411   5.472
81966SOL     OW47730   4.407   4.348  10.201
81966SOL    HW147731   4.403   4.429  10.150
81966SOL    HW247732   4.498   4.320  10.194
81967SOL     OW47733  10.119   0.023   9.532
81967SOL    HW147734  10.077  14.826   9.482
81967SOL    HW247735  10.114   0.100   9.475
81968SOL     OW47736   9.603  11.230  12.951
81968SOL    HW147737   9.644  11.178  12.882
81968SOL    HW247738   9.509  11.221  12.936
81969SOL     OW47739   9.585  10.854  11.480
81969SOL    HW147740   9.542  10.871  11.396
81969SOL    HW247741   9.525  10.892  11.545
81970SOL     OW47742  11.488  12.588   5.162
81970SOL    HW147743  11.455  12.550   5.243
81970SOL    HW247744  11.478  12.519   5.097
81971SOL     OW47745   6.012  11.023   9.786
81971SOL    HW147746   6.008  11.115   9.812
81971SOL    HW247747   5.972  11.022   9.699
81972SOL     OW47748   1.643  11.344   2.596
81972SOL    HW147749   1.625  11.297   2.677
81972SOL    HW247750   1.729  11.382   2.609
81973SOL     OW47751   5.352   8.325   0.029
81973SOL    HW147752   5.435   8.349  14.861
81973SOL    HW247753   5.334   8.237  14.869
81974SOL     OW47754   9.966   0.292   3.609
81974SOL    HW147755   9.886   0.342   3.628
81974SOL    HW247756  10.031   0.327   3.671
81975SOL     OW47757   0.531   6.202   6.743
81975SOL    HW147758   0.588   6.277   6.759
81975SOL    HW247759   0.552   6.140   6.813
81976SOL     OW47760   0.006   9.062   8.498
81976SOL    HW147761   0.052   9.145   8.485
81976SOL    HW247762   0.005   9.049   8.592
81977SOL     OW47763   8.184   9.978   2.401
81977SOL    HW147764   8.251   9.975   2.332
81977SOL    HW247765   8.231  10.007   2.479
81978SOL     OW47766   9.845   9.491   7.622
81978SOL    HW147767   9.757   9.458   7.605
81978SOL    HW247768   9.864   9.551   7.550
81979SOL     OW47769   6.471  10.266   3.848
81979SOL    HW147770   6.430  10.184   3.878
81979SOL    HW247771   6.538  10.238   3.785
81980SOL     OW47772   2.208   5.713   3.089
81980SOL    HW147773   2.144   5.663   3.040
81980SOL    HW247774   2.159   5.751   3.162
81981SOL     OW47775   5.450  12.087  14.600
81981SOL    HW147776   5.497  12.134  14.668
81981SOL    HW247777   5.519  12.043  14.549
81982SOL     OW47778  14.766   8.563   9.706
81982SOL    HW147779  14.815   8.607   9.775
81982SOL    HW247780  14.817   8.580   9.627
81983SOL     OW47781  13.433   6.581   5.295
81983SOL    HW147782  13.483   6.609   5.372
81983SOL    HW247783  13.451   6.487   5.289
81984SOL     OW47784   0.587   8.421   3.277
81984SOL    HW147785   0.637   8.339   3.284
81984SOL    HW247786   0.496   8.392   3.271
81985SOL     OW47787   6.318   6.605  11.722
81985SOL    HW147788   6.263   6.683  11.728
81985SOL    HW247789   6.269   6.538  11.769
81986SOL     OW47790  10.203   0.932   7.362
81986SOL    HW147791  10.234   0.924   7.452
81986SOL    HW247792  10.151   1.012   7.361
81987SOL     OW47793   1.342  11.104  11.448
81987SOL    HW147794   1.385  11.062  11.373
81987SOL    HW247795   1.348  11.039  11.518
81988SOL     OW47796   0.167   2.842   8.456
81988SOL    HW147797   0.143   2.842   8.364
81988SOL    HW247798   0.224   2.918   8.466
81989SOL     OW47799  10.489  13.095   3.473
81989SOL    HW147800  10.552  13.076   3.404
81989SOL    HW247801  10.537  13.080   3.555
81990SOL     OW47802  14.039   7.371   6.625
81990SOL    HW147803  13.970   7.436   6.611
81990SOL    HW247804  13.995   7.299   6.670
81991SOL     OW47805   5.787  11.958  11.276
81991SOL    HW147806   5.756  12.024  11.338
81991SOL    HW247807   5.752  11.876  11.309
81992SOL     OW47808   8.435  13.902   7.763
81992SOL    HW147809   8.530  13.908   7.763
81992SOL    HW247810   8.410  13.925   7.673
81993SOL     OW47811   5.124  11.356  14.422
81993SOL    HW147812   5.049  11.395  14.467
81993SOL    HW247813   5.089  11.331  14.336
81994SOL     OW47814   5.228  12.656   5.094
81994SOL    HW147815   5.251  12.748   5.080
81994SOL    HW247816   5.311  12.614   5.117
81995SOL     OW47817   6.964  12.407   2.366
81995SOL    HW147818   6.895  12.389   2.430
81995SOL    HW247819   7.042  12.366   2.403
81996SOL     OW47820   8.880  13.620  13.218
81996SOL    HW147821   8.871  13.614  13.313
81996SOL    HW247822   8.852  13.534  13.186
81997SOL     OW47823   2.106   2.662   2.673
81997SOL    HW147824   2.122   2.698   2.760
81997SOL    HW247825   2.043   2.723   2.633
81998SOL     OW47826   4.897   1.676   8.675
81998SOL    HW147827   4.869   1.710   8.590
81998SOL    HW247828   4.815   1.656   8.721
81999SOL     OW47829   6.890   9.788   6.888
81999SOL    HW147830   6.934   9.871   6.906
81999SOL    HW247831   6.952   9.738   6.835
82000SOL     OW47832   3.806   0.629   2.040
82000SOL    HW147833   3.774   0.605   2.127
82000SOL    HW247834   3.849   0.550   2.007
82001SOL     OW47835  14.668   5.863   5.511
82001SOL    HW147836  14.719   5.885   5.589
82001SOL    HW247837  14.579   5.851   5.542
82002SOL     OW47838   1.380   2.652   3.674
82002SOL    HW147839   1.434   2.574   3.687
82002SOL    HW247840   1.396   2.705   3.751
82003SOL     OW47841   9.921   5.754   4.612
82003SOL    HW147842   9.896   5.716   4.528
82003SOL    HW247843   9.854   5.724   4.673
82004SOL     OW47844   7.923  11.883  12.276
82004SOL    HW147845   7.914  11.978  12.276
82004SOL    HW247846   7.833  11.850  12.270
82005SOL     OW47847   2.555   1.470   5.923
82005SOL    HW147848   2.564   1.407   5.852
82005SOL    HW247849   2.623   1.446   5.986
82006SOL     OW47850   4.907   8.130   1.486
82006SOL    HW147851   4.987   8.099   1.529
82006SOL    HW247852   4.896   8.072   1.410
82007SOL     OW47853   1.417   3.194   7.990
82007SOL    HW147854   1.344   3.210   8.050
82007SOL    HW247855   1.402   3.105   7.957
82008SOL     OW47856   3.706   1.794   3.663
82008SOL    HW147857   3.715   1.850   3.586
82008SOL    HW247858   3.713   1.853   3.738
82009SOL     OW47859   1.003   9.053  12.961
82009SOL    HW147860   1.077   8.996  12.941
82009SOL    HW247861   0.941   8.997  13.008
82010SOL     OW47862   2.647  12.855   8.251
82010SOL    HW147863   2.652  12.950   8.237
82010SOL    HW247864   2.727  12.821   8.210
82011SOL     OW47865  12.361   5.329   4.951
82011SOL    HW147866  12.434   5.368   4.901
82011SOL    HW247867  12.302   5.295   4.884
82012SOL     OW47868   9.081   4.526   6.680
82012SOL    HW147869   9.031   4.447   6.701
82012SOL    HW247870   9.126   4.549   6.761
82013SOL     OW47871   5.867   9.087  11.844
82013SOL    HW147872   5.869   9.080  11.749
82013SOL    HW247873   5.935   9.027  11.874
82014SOL     OW47874   8.155  10.430   9.551
82014SOL    HW147875   8.249  10.416   9.537
82014SOL    HW247876   8.124  10.470   9.470
82015SOL     OW47877   3.935   9.206   3.332
82015SOL    HW147878   3.966   9.121   3.302
82015SOL    HW247879   3.948   9.204   3.427
82016SOL     OW47880  11.324   0.923  13.288
82016SOL    HW147881  11.245   0.870  13.284
82016SOL    HW247882  11.327   0.955  13.378
82017SOL     OW47883   0.971  10.646   8.015
82017SOL    HW147884   0.958  10.606   8.101
82017SOL    HW247885   0.906  10.716   8.010
82018SOL     OW47886  12.962  12.689   2.371
82018SOL    HW147887  13.026  12.732   2.314
82018SOL    HW247888  13.013  12.624   2.419
82019SOL     OW47889   9.418   8.310  14.004
82019SOL    HW147890   9.482   8.241  14.022
82019SOL    HW247891   9.467   8.377  13.957
82020SOL     OW47892   2.044   8.568  10.199
82020SOL    HW147893   2.003   8.611  10.274
82020SOL    HW247894   2.087   8.490  10.237
82021SOL     OW47895   0.919   0.999  12.543
82021SOL    HW147896   0.832   1.037  12.547
82021SOL    HW247897   0.904   0.905  12.536
82022SOL     OW47898  14.552   9.065  10.275
82022SOL    HW147899  14.513   9.150  10.292
82022SOL    HW247900  14.633   9.065  10.326
82023SOL     OW47901   8.333  11.018   7.065
82023SOL    HW147902   8.348  11.112   7.069
82023SOL    HW247903   8.238  11.009   7.068
82024SOL     OW47904   7.487   7.132   8.698
82024SOL    HW147905   7.425   7.069   8.664
82024SOL    HW247906   7.544   7.082   8.756
82025SOL     OW47907   9.312   6.646   1.344
82025SOL    HW147908   9.247   6.599   1.291
82025SOL    HW247909   9.261   6.705   1.399
82026SOL     OW47910   1.258  12.210  12.411
82026SOL    HW147911   1.270  12.252  12.496
82026SOL    HW247912   1.229  12.122  12.432
82027SOL     OW47913   9.241   6.605   5.632
82027SOL    HW147914   9.266   6.696   5.616
82027SOL    HW247915   9.320   6.555   5.613
82028SOL     OW47916   3.101   1.152  14.013
82028SOL    HW147917   3.099   1.182  14.104
82028SOL    HW247918   3.028   1.092  14.006
82029SOL     OW47919  11.146  10.161   6.501
82029SOL    HW147920  11.141  10.249   6.538
82029SOL    HW247921  11.182  10.174   6.413
82030SOL     OW47922   0.494  13.260  10.162
82030SOL    HW147923   0.426  13.263  10.094
82030SOL    HW247924   0.495  13.348  10.199
82031SOL     OW47925   3.647   6.637  13.562
82031SOL    HW147926   3.707   6.570  13.531
82031SOL    HW247927   3.653   6.632  13.657
82032SOL     OW47928   6.335  10.653   7.211
82032SOL    HW147929   6.310  10.587   7.146
82032SOL    HW247930   6.391  10.606   7.272
82033SOL     OW47931   7.694  12.102   3.012
82033SOL    HW147932   7.687  12.196   2.992
82033SOL    HW247933   7.688  12.059   2.927
82034SOL     OW47934   9.030   8.632  14.380
82034SOL    HW147935   9.035   8.669  14.468
82034SOL    HW247936   9.013   8.707  14.323
82035SOL     OW47937  10.127   6.616   7.865
82035SOL    HW147938  10.207   6.669   7.871
82035SOL    HW247939  10.058   6.672   7.901
82036SOL     OW47940   0.196  12.714   1.587
82036SOL    HW147941   0.288  12.691   1.576
82036SOL    HW247942   0.198  12.791   1.645
82037SOL     OW47943   4.142   3.911   5.313
82037SOL    HW147944   4.176   3.848   5.376
82037SOL    HW247945   4.162   3.872   5.228
82038SOL     OW47946  13.766   9.595  10.364
82038SOL    HW147947  13.678   9.562  10.348
82038SOL    HW247948  13.786   9.649  10.287
82039SOL     OW47949   3.520   1.851   1.263
82039SOL    HW147950   3.451   1.810   1.210
82039SOL    HW247951   3.487   1.847   1.353
82040SOL     OW47952   6.948   1.864   0.594
82040SOL    HW147953   6.926   1.921   0.520
82040SOL    HW247954   6.931   1.776   0.562
82041SOL     OW47955   9.986   4.402   1.018
82041SOL    HW147956   9.948   4.393   1.106
82041SOL    HW247957  10.044   4.327   1.009
82042SOL     OW47958   3.898   2.347  13.791
82042SOL    HW147959   3.923   2.357  13.882
82042SOL    HW247960   3.971   2.383  13.741
82043SOL     OW47961   2.223  13.246   2.305
82043SOL    HW147962   2.134  13.212   2.314
82043SOL    HW247963   2.215  13.339   2.322
82044SOL     OW47964   7.353   8.602   3.184
82044SOL    HW147965   7.411   8.676   3.199
82044SOL    HW247966   7.335   8.567   3.271
82045SOL     OW47967  11.102   7.173   7.591
82045SOL    HW147968  11.172   7.234   7.566
82045SOL    HW247969  11.102   7.175   7.686
82046SOL     OW47970   1.543   1.743  10.736
82046SOL    HW147971   1.516   1.746  10.828
82046SOL    HW247972   1.551   1.650  10.717
82047SOL     OW47973   9.237   1.749   9.847
82047SOL    HW147974   9.151   1.784   9.869
82047SOL    HW247975   9.219   1.676   9.787
82048SOL     OW47976   7.667  10.465  13.928
82048SOL    HW147977   7.589  10.520  13.938
82048SOL    HW247978   7.720  10.510  13.862
82049SOL     OW47979   7.647   5.881   8.349
82049SOL    HW147980   7.591   5.942   8.397
82049SOL    HW247981   7.684   5.825   8.417
82050SOL     OW47982  13.084   1.662   2.652
82050SOL    HW147983  13.009   1.716   2.680
82050SOL    HW247984  13.046   1.576   2.636
82051SOL     OW47985   9.506  14.099  10.687
82051SOL    HW147986   9.576  14.156  10.655
82051SOL    HW247987   9.534  14.073  10.774
82052SOL     OW47988   5.734   8.488   6.871
82052SOL    HW147989   5.711   8.459   6.959
82052SOL    HW247990   5.656   8.531   6.838
82053SOL     OW47991   8.269   6.915   5.469
82053SOL    HW147992   8.337   6.919   5.402
82053SOL    HW247993   8.286   6.833   5.515
82054SOL     OW47994  14.576  14.839   9.686
82054SOL    HW147995  14.576   0.012   9.602
82054SOL    HW247996  14.577   0.036   9.751
82055SOL     OW47997   1.783  10.333   2.218
82055SOL    HW147998   1.707  10.294   2.259
82055SOL    HW247999   1.851  10.329   2.285
82056SOL     OW48000   2.312   4.749   4.251
82056SOL    HW148001   2.278   4.731   4.339
82056SOL    HW248002   2.262   4.691   4.194
82057SOL     OW48003   8.068   9.947  11.888
82057SOL    HW148004   8.094   9.857  11.869
82057SOL    HW248005   8.002   9.939  11.957
82058SOL     OW48006   3.579   3.515   4.918
82058SOL    HW148007   3.654   3.470   4.881
82058SOL    HW248008   3.518   3.525   4.845
82059SOL     OW48009   2.616   9.375  13.785
82059SOL    HW148010   2.549   9.307  13.785
82059SOL    HW248011   2.678   9.348  13.717
82060SOL     OW48012  10.828   9.558   4.882
82060SOL    HW148013  10.803   9.515   4.963
82060SOL    HW248014  10.856   9.646   4.910
82061SOL     OW48015   7.805  11.656   9.686
82061SOL    HW148016   7.862  11.587   9.721
82061SOL    HW248017   7.735  11.663   9.751
82062SOL     OW48018   2.766   6.531  13.554
82062SOL    HW148019   2.858   6.554  13.568
82062SOL    HW248020   2.739   6.488  13.635
82063SOL     OW48021   6.608  12.932  12.660
82063SOL    HW148022   6.634  12.915  12.751
82063SOL    HW248023   6.666  12.876  12.608
82064SOL     OW48024   6.977  12.931   8.458
82064SOL    HW148025   6.938  12.887   8.383
82064SOL    HW248026   6.930  12.896   8.534
82065SOL     OW48027  14.710  14.046  13.587
82065SOL    HW148028  14.638  14.069  13.645
82065SOL    HW248029  14.766  13.989  13.640
82066SOL     OW48030  10.642   3.825   8.729
82066SOL    HW148031  10.616   3.886   8.659
82066SOL    HW248032  10.641   3.739   8.687
82067SOL     OW48033   9.527  10.309   4.215
82067SOL    HW148034   9.582  10.248   4.167
82067SOL    HW248035   9.575  10.326   4.296
82068SOL     OW48036   4.146   1.896   2.470
82068SOL    HW148037   4.083   1.868   2.537
82068SOL    HW248038   4.160   1.989   2.488
82069SOL     OW48039   5.270  12.368   8.403
82069SOL    HW148040   5.332  12.423   8.451
82069SOL    HW248041   5.315  12.285   8.391
82070SOL     OW48042   5.837  13.894   5.544
82070SOL    HW148043   5.826  13.815   5.598
82070SOL    HW248044   5.925  13.926   5.566
82071SOL     OW48045   0.126   3.803   7.997
82071SOL    HW148046   0.033   3.823   7.997
82071SOL    HW248047   0.140   3.753   7.917
82072SOL     OW48048   4.652  14.312   6.097
82072SOL    HW148049   4.664  14.407   6.091
82072SOL    HW248050   4.558  14.301   6.112
82073SOL     OW48051   4.465  11.403   1.929
82073SOL    HW148052   4.481  11.441   2.015
82073SOL    HW248053   4.482  11.474   1.868
82074SOL     OW48054   7.020   8.630   9.588
82074SOL    HW148055   6.943   8.664   9.542
82074SOL    HW248056   7.086   8.618   9.519
82075SOL     OW48057   6.123  13.336  11.117
82075SOL    HW148058   6.077  13.339  11.033
82075SOL    HW248059   6.144  13.244  11.130
82076SOL     OW48060   8.482   4.056  13.259
82076SOL    HW148061   8.527   4.046  13.175
82076SOL    HW248062   8.390   4.037  13.239
82077SOL     OW48063   1.836   1.619   3.019
82077SOL    HW148064   1.821   1.576   3.103
82077SOL    HW248065   1.756   1.603   2.969
82078SOL     OW48066   8.179   7.033  10.116
82078SOL    HW148067   8.247   7.055  10.052
82078SOL    HW248068   8.111   6.990  10.065
82079SOL     OW48069   1.746   8.750   7.113
82079SOL    HW148070   1.812   8.742   7.182
82079SOL    HW248071   1.786   8.808   7.047
82080SOL     OW48072   6.155   4.134   3.568
82080SOL    HW148073   6.071   4.175   3.589
82080SOL    HW248074   6.221   4.193   3.605
82081SOL     OW48075  10.660   2.140   7.588
82081SOL    HW148076  10.696   2.080   7.523
82081SOL    HW248077  10.662   2.226   7.546
82082SOL     OW48078   7.614   2.185   5.546
82082SOL    HW148079   7.549   2.206   5.613
82082SOL    HW248080   7.697   2.182   5.593
82083SOL     OW48081   1.587  12.742   8.778
82083SOL    HW148082   1.548  12.663   8.814
82083SOL    HW248083   1.519  12.780   8.722
82084SOL     OW48084  13.685  12.822  13.633
82084SOL    HW148085  13.693  12.857  13.722
82084SOL    HW248086  13.591  12.808  13.622
82085SOL     OW48087   8.387   2.022   8.082
82085SOL    HW148088   8.432   2.075   8.147
82085SOL    HW248089   8.385   2.077   8.003
82086SOL     OW48090  11.956   6.308  11.311
82086SOL    HW148091  11.970   6.387  11.258
82086SOL    HW248092  11.942   6.238  11.246
82087SOL     OW48093   2.241   2.918   7.049
82087SOL    HW148094   2.315   2.979   7.048
82087SOL    HW248095   2.166   2.973   7.070
82088SOL     OW48096   3.339  10.141   9.800
82088SOL    HW148097   3.357  10.205   9.731
82088SOL    HW248098   3.356  10.056   9.760
82089SOL     OW48099   9.882  11.248  12.997
82089SOL    HW148100   9.787  11.250  13.009
82089SOL    HW248101   9.902  11.329  12.949
82090SOL     OW48102   5.345   9.419  11.927
82090SOL    HW148103   5.378   9.508  11.937
82090SOL    HW248104   5.250   9.429  11.928
82091SOL     OW48105   5.878  14.242  12.779
82091SOL    HW148106   5.859  14.156  12.816
82091SOL    HW248107   5.962  14.231  12.734
82092SOL     OW48108   6.632  12.789  10.327
82092SOL    HW148109   6.676  12.732  10.390
82092SOL    HW248110   6.572  12.842  10.380
82093SOL     OW48111  11.282  14.151   6.008
82093SOL    HW148112  11.221  14.180   6.076
82093SOL    HW248113  11.240  14.178   5.926
82094SOL     OW48114  12.886   8.395   3.314
82094SOL    HW148115  12.833   8.474   3.320
82094SOL    HW248116  12.908   8.387   3.221
82095SOL     OW48117  14.380  10.447  14.091
82095SOL    HW148118  14.432  10.461  14.170
82095SOL    HW248119  14.331  10.529  14.080
82096SOL     OW48120   9.928   5.788  11.069
82096SOL    HW148121   9.845   5.786  11.021
82096SOL    HW248122   9.950   5.696  11.083
82097SOL     OW48123  13.618   4.644   7.772
82097SOL    HW148124  13.547   4.703   7.795
82097SOL    HW248125  13.614   4.636   7.677
82098SOL     OW48126  12.268  12.462   4.962
82098SOL    HW148127  12.186  12.510   4.946
82098SOL    HW248128  12.240  12.374   4.984
82099SOL     OW48129   1.515  12.710   2.238
82099SOL    HW148130   1.470  12.667   2.311
82099SOL    HW248131   1.514  12.644   2.168
82100SOL     OW48132   8.787   8.488   1.524
82100SOL    HW148133   8.758   8.433   1.597
82100SOL    HW248134   8.802   8.574   1.564
82101SOL     OW48135   1.861   1.680  14.353
82101SOL    HW148136   1.821   1.593  14.365
82101SOL    HW248137   1.953   1.667  14.373
82102SOL     OW48138   3.893   2.727  11.557
82102SOL    HW148139   3.910   2.795  11.491
82102SOL    HW248140   3.980   2.699  11.586
82103SOL     OW48141   7.725   8.058   3.351
82103SOL    HW148142   7.791   8.013   3.405
82103SOL    HW248143   7.773   8.129   3.309
82104SOL     OW48144   4.251  11.227  10.869
82104SOL    HW148145   4.199  11.298  10.909
82104SOL    HW248146   4.339  11.264  10.861
82105SOL     OW48147  12.886   1.059  11.131
82105SOL    HW148148  12.963   1.054  11.186
82105SOL    HW248149  12.920   1.068  11.042
82106SOL     OW48150   3.493  13.457  13.668
82106SOL    HW148151   3.515  13.458  13.761
82106SOL    HW248152   3.402  13.427  13.665
82107SOL     OW48153   0.464   2.629   3.773
82107SOL    HW148154   0.447   2.538   3.797
82107SOL    HW248155   0.377   2.669   3.771
82108SOL     OW48156   2.684  14.528   9.814
82108SOL    HW148157   2.682  14.488   9.727
82108SOL    HW248158   2.693  14.622   9.798
82109SOL     OW48159   2.089   1.176   0.942
82109SOL    HW148160   2.102   1.113   0.872
82109SOL    HW248161   2.066   1.123   1.019
82110SOL     OW48162   7.948   7.239   6.157
82110SOL    HW148163   7.872   7.255   6.214
82110SOL    HW248164   8.003   7.316   6.169
82111SOL     OW48165  10.135   5.297   7.490
82111SOL    HW148166  10.226   5.270   7.499
82111SOL    HW248167  10.104   5.304   7.580
82112SOL     OW48168   9.141   3.722   5.997
82112SOL    HW148169   9.118   3.747   5.907
82112SOL    HW248170   9.236   3.732   6.001
82113SOL     OW48171  13.843   5.388   1.639
82113SOL    HW148172  13.824   5.441   1.716
82113SOL    HW248173  13.794   5.429   1.568
82114SOL     OW48174   8.546  12.077   7.345
82114SOL    HW148175   8.604  12.131   7.291
82114SOL    HW248176   8.557  11.988   7.311
82115SOL     OW48177   4.697   7.698  10.408
82115SOL    HW148178   4.740   7.763  10.463
82115SOL    HW248179   4.620   7.743  10.374
82116SOL     OW48180   0.387  11.494   2.911
82116SOL    HW148181   0.367  11.444   2.989
82116SOL    HW248182   0.305  11.541   2.891
82117SOL     OW48183   6.352   2.873   9.323
82117SOL    HW148184   6.309   2.788   9.312
82117SOL    HW248185   6.344   2.892   9.416
82118SOL     OW48186  12.937   4.151   3.632
82118SOL    HW148187  12.881   4.225   3.653
82118SOL    HW248188  12.937   4.146   3.537
82119SOL     OW48189  10.817   6.337   2.241
82119SOL    HW148190  10.748   6.335   2.307
82119SOL    HW248191  10.898   6.344   2.291
82120SOL     OW48192   7.634   2.806   6.291
82120SOL    HW148193   7.637   2.776   6.200
82120SOL    HW248194   7.575   2.745   6.335
82121SOL     OW48195   2.423   1.805   5.431
82121SOL    HW148196   2.465   1.726   5.464
82121SOL    HW248197   2.488   1.874   5.441
82122SOL     OW48198   9.722  11.983   5.205
82122SOL    HW148199   9.630  11.964   5.186
82122SOL    HW248200   9.725  11.994   5.300
82123SOL     OW48201  11.016   3.080  13.508
82123SOL    HW148202  11.046   2.989  13.514
82123SOL    HW248203  10.921   3.073  13.498
82124SOL     OW48204  11.319   9.966   6.591
82124SOL    HW148205  11.352  10.015   6.666
82124SOL    HW248206  11.260  10.026   6.547
82125SOL     OW48207  13.708   2.449   3.400
82125SOL    HW148208  13.766   2.506   3.452
82125SOL    HW248209  13.620   2.484   3.416
82126SOL     OW48210   1.213  10.347   1.920
82126SOL    HW148211   1.185  10.352   1.829
82126SOL    HW248212   1.168  10.420   1.962
82127SOL     OW48213  12.197  11.502  12.721
82127SOL    HW148214  12.275  11.468  12.676
82127SOL    HW248215  12.230  11.577  12.771
82128SOL     OW48216  12.772   8.775   1.068
82128SOL    HW148217  12.789   8.810   1.155
82128SOL    HW248218  12.822   8.832   1.009
82129SOL     OW48219   1.575  10.666   1.848
82129SOL    HW148220   1.552  10.575   1.835
82129SOL    HW248221   1.524  10.693   1.925
82130SOL     OW48222   9.532  11.491   9.560
82130SOL    HW148223   9.591  11.458   9.628
82130SOL    HW248224   9.587  11.546   9.505
82131SOL     OW48225   3.395  10.426  10.770
82131SOL    HW148226   3.371  10.370  10.696
82131SOL    HW248227   3.468  10.380  10.812
82132SOL     OW48228   4.260   9.738   0.434
82132SOL    HW148229   4.190   9.793   0.471
82132SOL    HW248230   4.231   9.720   0.344
82133SOL     OW48231  11.927  14.054   9.120
82133SOL    HW148232  12.018  14.073   9.142
82133SOL    HW248233  11.910  13.968   9.158
82134SOL     OW48234   3.184  10.209  10.711
82134SOL    HW148235   3.220  10.239  10.794
82134SOL    HW248236   3.258  10.171  10.664
82135SOL     OW48237  13.251   6.409  11.953
82135SOL    HW148238  13.175   6.454  11.916
82135SOL    HW248239  13.297   6.476  12.003
82136SOL     OW48240   7.151   5.462   5.041
82136SOL    HW148241   7.076   5.476   4.984
82136SOL    HW248242   7.114   5.451   5.129
82137SOL     OW48243   5.187   9.330  11.254
82137SOL    HW148244   5.255   9.328  11.322
82137SOL    HW248245   5.236   9.336  11.172
82138SOL     OW48246   9.372   4.820  11.665
82138SOL    HW148247   9.319   4.797  11.589
82138SOL    HW248248   9.371   4.916  11.667
82139SOL     OW48249  11.308   6.248   4.103
82139SOL    HW148250  11.337   6.168   4.058
82139SOL    HW248251  11.327   6.318   4.041
82140SOL     OW48252   7.298   1.242   3.458
82140SOL    HW148253   7.322   1.297   3.532
82140SOL    HW248254   7.342   1.281   3.383
82141SOL     OW48255   8.145  10.637   0.262
82141SOL    HW148256   8.095  10.644   0.343
82141SOL    HW248257   8.079  10.633   0.193
82142SOL     OW48258   1.901  10.295   7.161
82142SOL    HW148259   1.892  10.270   7.253
82142SOL    HW248260   1.986  10.340   7.157
82143SOL     OW48261   8.907   3.067   1.430
82143SOL    HW148262   8.977   3.122   1.465
82143SOL    HW248263   8.942   2.978   1.433
82144SOL     OW48264   8.907   5.112   0.424
82144SOL    HW148265   8.979   5.069   0.470
82144SOL    HW248266   8.838   5.119   0.490
82145SOL     OW48267   8.675   8.174   2.268
82145SOL    HW148268   8.601   8.114   2.259
82145SOL    HW248269   8.751   8.117   2.280
82146SOL     OW48270   9.469   3.471   9.519
82146SOL    HW148271   9.378   3.445   9.533
82146SOL    HW248272   9.464   3.564   9.496
82147SOL     OW48273   2.290   6.725  11.429
82147SOL    HW148274   2.287   6.821  11.430
82147SOL    HW248275   2.220   6.700  11.369
82148SOL     OW48276  11.663  11.487  14.091
82148SOL    HW148277  11.736  11.513  14.035
82148SOL    HW248278  11.592  11.546  14.066
82149SOL     OW48279  11.419   1.611   4.182
82149SOL    HW148280  11.365   1.677   4.226
82149SOL    HW248281  11.467   1.659   4.116
82150SOL     OW48282   5.001  14.309   6.712
82150SOL    HW148283   5.050  14.390   6.724
82150SOL    HW248284   5.047  14.246   6.768
82151SOL     OW48285   8.825   3.748  10.807
82151SOL    HW148286   8.739   3.726  10.771
82151SOL    HW248287   8.846   3.833  10.770
82152SOL     OW48288   7.631  10.109   6.682
82152SOL    HW148289   7.700  10.117   6.749
82152SOL    HW248290   7.668  10.150   6.604
82153SOL     OW48291  12.882   4.937  10.723
82153SOL    HW148292  12.948   4.970  10.663
82153SOL    HW248293  12.821   4.888  10.667
82154SOL     OW48294   7.087  10.142   2.421
82154SOL    HW148295   7.174  10.167   2.389
82154SOL    HW248296   7.062  10.214   2.480
82155SOL     OW48297   8.424  14.107   3.577
82155SOL    HW148298   8.388  14.195   3.591
82155SOL    HW248299   8.404  14.087   3.486
82156SOL     OW48300   1.137  12.644  13.722
82156SOL    HW148301   1.092  12.566  13.690
82156SOL    HW248302   1.124  12.641  13.817
82157SOL     OW48303  12.615   4.275  10.700
82157SOL    HW148304  12.614   4.208  10.769
82157SOL    HW248305  12.681   4.244  10.638
82158SOL     OW48306   5.918   1.931   5.924
82158SOL    HW148307   5.938   1.947   5.832
82158SOL    HW248308   6.001   1.903   5.962
82159SOL     OW48309   4.832   6.751   1.748
82159SOL    HW148310   4.804   6.789   1.832
82159SOL    HW248311   4.890   6.818   1.710
82160SOL     OW48312   9.922  12.226   4.290
82160SOL    HW148313   9.900  12.204   4.381
82160SOL    HW248314   9.947  12.143   4.250
82161SOL     OW48315   7.851   3.985  12.076
82161SOL    HW148316   7.930   4.038  12.082
82161SOL    HW248317   7.826   3.989  11.984
82162SOL     OW48318  11.775   0.498  11.227
82162SOL    HW148319  11.819   0.556  11.165
82162SOL    HW248320  11.828   0.504  11.307
82163SOL     OW48321   2.014   5.873   0.513
82163SOL    HW148322   1.938   5.884   0.570
82163SOL    HW248323   2.089   5.884   0.570
82164SOL     OW48324   1.815   8.051  13.438
82164SOL    HW148325   1.831   8.079  13.528
82164SOL    HW248326   1.831   8.129  13.385
82165SOL     OW48327   6.577   1.080   1.306
82165SOL    HW148328   6.550   0.997   1.344
82165SOL    HW248329   6.515   1.144   1.342
82166SOL     OW48330   1.711   6.036  11.081
82166SOL    HW148331   1.704   5.964  11.018
82166SOL    HW248332   1.783   6.011  11.139
82167SOL     OW48333  10.127   9.618  11.248
82167SOL    HW148334  10.196   9.685  11.245
82167SOL    HW248335  10.070   9.645  11.320
82168SOL     OW48336  10.879   8.619   2.796
82168SOL    HW148337  10.836   8.671   2.727
82168SOL    HW248338  10.810   8.606   2.861
82169SOL     OW48339  10.742   1.466   8.348
82169SOL    HW148340  10.655   1.490   8.378
82169SOL    HW248341  10.740   1.481   8.253
82170SOL     OW48342  12.673   4.905  11.387
82170SOL    HW148343  12.710   4.825  11.424
82170SOL    HW248344  12.737   4.933  11.322
82171SOL     OW48345   5.816   3.180   2.670
82171SOL    HW148346   5.876   3.202   2.599
82171SOL    HW248347   5.840   3.239   2.741
82172SOL     OW48348  14.872   8.941  12.680
82172SOL    HW148349   0.084   8.929  12.723
82172SOL    HW248350  14.863   8.865  12.623
82173SOL     OW48351  10.588   5.486   4.691
82173SOL    HW148352  10.525   5.558   4.698
82173SOL    HW248353  10.543   5.420   4.638
82174SOL     OW48354  11.164  14.693   5.654
82174SOL    HW148355  11.124  14.780   5.655
82174SOL    HW248356  11.096  14.635   5.622
82175SOL     OW48357   6.793   5.182  13.566
82175SOL    HW148358   6.806   5.227  13.482
82175SOL    HW248359   6.700   5.159  13.566
82176SOL     OW48360   9.607   1.175   1.787
82176SOL    HW148361   9.678   1.181   1.851
82176SOL    HW248362   9.576   1.085   1.794
82177SOL     OW48363  13.382   0.812   1.712
82177SOL    HW148364  13.351   0.755   1.782
82177SOL    HW248365  13.309   0.818   1.651
82178SOL     OW48366   1.518   0.074   4.635
82178SOL    HW148367   1.431   0.047   4.665
82178SOL    HW248368   1.570   0.080   4.715
82179SOL     OW48369  11.007  13.578  12.563
82179SOL    HW148370  10.921  13.610  12.535
82179SOL    HW248371  11.067  13.650  12.546
82180SOL     OW48372  10.284   5.401   7.191
82180SOL    HW148373  10.377   5.423   7.180
82180SOL    HW248374  10.239   5.485   7.189
82181SOL     OW48375   7.838   6.544   7.020
82181SOL    HW148376   7.842   6.637   6.996
82181SOL    HW248377   7.843   6.497   6.936
82182SOL     OW48378   6.241  11.190  14.621
82182SOL    HW148379   6.213  11.271  14.662
82182SOL    HW248380   6.304  11.152  14.681
82183SOL     OW48381  12.294   8.600   2.624
82183SOL    HW148382  12.243   8.525   2.655
82183SOL    HW248383  12.377   8.593   2.672
82184SOL     OW48384  14.399  10.117  12.433
82184SOL    HW148385  14.319  10.154  12.395
82184SOL    HW248386  14.458  10.107  12.359
82185SOL     OW48387   6.010   8.497  12.701
82185SOL    HW148388   5.961   8.572  12.733
82185SOL    HW248389   6.101   8.527  12.697
82186SOL     OW48390   6.449  10.998  12.059
82186SOL    HW148391   6.425  10.969  11.971
82186SOL    HW248392   6.486  11.085  12.046
82187SOL     OW48393   9.650   4.938  13.991
82187SOL    HW148394   9.679   4.984  14.070
82187SOL    HW248395   9.586   4.875  14.023
82188SOL     OW48396   1.625   0.823   1.720
82188SOL    HW148397   1.634   0.780   1.634
82188SOL    HW248398   1.651   0.755   1.782
82189SOL     OW48399   3.436   6.387  11.475
82189SOL    HW148400   3.353   6.419  11.511
82189SOL    HW248401   3.489   6.366  11.551
82190SOL     OW48402   3.388   1.369  10.683
82190SOL    HW148403   3.332   1.440  10.714
82190SOL    HW248404   3.409   1.394  10.593
82191SOL     OW48405   5.239   2.254  12.123
82191SOL    HW148406   5.170   2.320  12.119
82191SOL    HW248407   5.259   2.234  12.032
82192SOL     OW48408  14.055   0.607   9.124
82192SOL    HW148409  14.057   0.688   9.175
82192SOL    HW248410  14.099   0.630   9.042
82193SOL     OW48411  11.837   2.407   2.913
82193SOL    HW148412  11.855   2.476   2.976
82193SOL    HW248413  11.880   2.436   2.833
82194SOL     OW48414  14.536   1.730  11.574
82194SOL    HW148415  14.455   1.739  11.623
82194SOL    HW248416  14.579   1.653  11.611
82195SOL     OW48417  14.376  12.634   9.994
82195SOL    HW148418  14.470  12.619   9.988
82195SOL    HW248419  14.349  12.586  10.072
82196SOL     OW48420  14.545  14.838  11.669
82196SOL    HW148421  14.541   0.046  11.617
82196SOL    HW248422  14.541  14.868  11.760
82197SOL     OW48423   7.415   6.086   9.687
82197SOL    HW148424   7.474   6.049   9.753
82197SOL    HW248425   7.329   6.085   9.728
82198SOL     OW48426   4.032   0.421   3.229
82198SOL    HW148427   4.079   0.342   3.203
82198SOL    HW248428   4.054   0.485   3.161
82199SOL     OW48429  10.610   6.439   3.018
82199SOL    HW148430  10.521   6.471   3.034
82199SOL    HW248431  10.640   6.410   3.105
82200SOL     OW48432  11.902   2.574   3.120
82200SOL    HW148433  11.891   2.637   3.191
82200SOL    HW248434  11.995   2.551   3.123
82201SOL     OW48435  12.662   1.967   7.615
82201SOL    HW148436  12.717   1.960   7.693
82201SOL    HW248437  12.684   2.052   7.578
82202SOL     OW48438  10.816   2.829   5.176
82202SOL    HW148439  10.897   2.829   5.227
82202SOL    HW248440  10.799   2.736   5.158
82203SOL     OW48441   0.714  10.016   2.590
82203SOL    HW148442   0.792  10.054   2.631
82203SOL    HW248443   0.731   9.922   2.590
82204SOL     OW48444  13.565  10.840   6.557
82204SOL    HW148445  13.590  10.858   6.647
82204SOL    HW248446  13.647  10.838   6.508
82205SOL     OW48447   7.454   6.312   5.257
82205SOL    HW148448   7.475   6.327   5.349
82205SOL    HW248449   7.363   6.281   5.258
82206SOL     OW48450   6.704   8.751   9.501
82206SOL    HW148451   6.742   8.781   9.419
82206SOL    HW248452   6.695   8.830   9.554
82207SOL     OW48453   4.227  12.717  11.116
82207SOL    HW148454   4.174  12.693  11.041
82207SOL    HW248455   4.193  12.802  11.144
82208SOL     OW48456   9.948   2.674   1.958
82208SOL    HW148457   9.933   2.638   2.045
82208SOL    HW248458  10.043   2.686   1.953
82209SOL     OW48459  14.506  11.373   2.354
82209SOL    HW148460  14.415  11.372   2.384
82209SOL    HW248461  14.541  11.289   2.382
82210SOL     OW48462   0.238  12.663   5.622
82210SOL    HW148463   0.294  12.595   5.585
82210SOL    HW248464   0.152  12.621   5.632
82211SOL     OW48465   7.822  11.729   3.912
82211SOL    HW148466   7.809  11.651   3.965
82211SOL    HW248467   7.773  11.712   3.831
82212SOL     OW48468   2.235  11.081   7.071
82212SOL    HW148469   2.314  11.028   7.084
82212SOL    HW248470   2.170  11.019   7.036
82213SOL     OW48471   8.413   0.987   7.666
82213SOL    HW148472   8.395   0.916   7.604
82213SOL    HW248473   8.327   1.024   7.687
82214SOL     OW48474   3.739  11.898   2.733
82214SOL    HW148475   3.783  11.813   2.727
82214SOL    HW248476   3.699  11.911   2.647
82215SOL     OW48477   6.443   8.206   2.370
82215SOL    HW148478   6.376   8.160   2.421
82215SOL    HW248479   6.393   8.263   2.311
82216SOL     OW48480   6.851   4.519  10.861
82216SOL    HW148481   6.792   4.507  10.936
82216SOL    HW248482   6.806   4.581  10.804
82217SOL     OW48483  12.230   0.546   2.293
82217SOL    HW148484  12.148   0.534   2.246
82217SOL    HW248485  12.227   0.480   2.363
82218SOL     OW48486  14.846  14.125   3.315
82218SOL    HW148487  14.786  14.195   3.343
82218SOL    HW248488  14.795  14.045   3.325
82219SOL     OW48489  11.158   2.030   9.293
82219SOL    HW148490  11.078   2.082   9.294
82219SOL    HW248491  11.219   2.080   9.238
82220SOL     OW48492  13.737   8.724   3.265
82220SOL    HW148493  13.748   8.704   3.172
82220SOL    HW248494  13.823   8.753   3.295
82221SOL     OW48495  14.584   0.808   8.746
82221SOL    HW148496  14.488   0.808   8.755
82221SOL    HW248497  14.607   0.900   8.736
82222SOL     OW48498  12.575  14.834   2.827
82222SOL    HW148499  12.497  14.830   2.882
82222SOL    HW248500  12.555   0.027   2.761
82223SOL     OW48501  10.683   7.843  14.461
82223SOL    HW148502  10.637   7.925  14.481
82223SOL    HW248503  10.654   7.783  14.530
82224SOL     OW48504   9.862   1.911   4.011
82224SOL    HW148505   9.797   1.957   3.958
82224SOL    HW248506   9.911   1.859   3.949
82225SOL     OW48507   3.819  13.404  13.001
82225SOL    HW148508   3.895  13.386  13.057
82225SOL    HW248509   3.784  13.317  12.980
82226SOL     OW48510  14.198   7.226  13.595
82226SOL    HW148511  14.240   7.261  13.673
82226SOL    HW248512  14.262   7.165  13.558
82227SOL     OW48513  12.796  14.832   4.601
82227SOL    HW148514  12.719   0.004   4.635
82227SOL    HW248515  12.761  14.773   4.534
82228SOL     OW48516   9.998   2.253   3.589
82228SOL    HW148517  10.049   2.240   3.669
82228SOL    HW248518   9.935   2.321   3.611
82229SOL     OW48519   3.604   8.226  13.537
82229SOL    HW148520   3.691   8.190  13.519
82229SOL    HW248521   3.588   8.285  13.463
82230SOL     OW48522   8.881  10.769   7.377
82230SOL    HW148523   8.961  10.728   7.410
82230SOL    HW248524   8.836  10.698   7.331
82231SOL     OW48525   2.554  11.562  13.771
82231SOL    HW148526   2.588  11.599  13.852
82231SOL    HW248527   2.630  11.549  13.715
82232SOL     OW48528  12.083   6.556  11.245
82232SOL    HW148529  12.120   6.585  11.329
82232SOL    HW248530  12.005   6.610  11.233
82233SOL     OW48531  13.526   9.772   0.981
82233SOL    HW148532  13.552   9.797   0.893
82233SOL    HW248533  13.439   9.809   0.992
82234SOL     OW48534   2.593   9.621   0.490
82234SOL    HW148535   2.547   9.704   0.478
82234SOL    HW248536   2.685   9.642   0.477
82235SOL     OW48537   2.539   4.478  10.624
82235SOL    HW148538   2.601   4.410  10.646
82235SOL    HW248539   2.456   4.450  10.663
82236SOL     OW48540   9.836  10.669   0.343
82236SOL    HW148541   9.854  10.650   0.251
82236SOL    HW248542   9.750  10.711   0.343
82237SOL     OW48543   4.741   3.325  10.514
82237SOL    HW148544   4.696   3.354  10.594
82237SOL    HW248545   4.684   3.353  10.443
82238SOL     OW48546  11.714   6.837  11.584
82238SOL    HW148547  11.632   6.867  11.545
82238SOL    HW248548  11.762   6.799  11.510
82239SOL     OW48549   0.712   7.615   3.442
82239SOL    HW148550   0.644   7.579   3.385
82239SOL    HW248551   0.698   7.710   3.438
82240SOL     OW48552   4.079  10.909   4.817
82240SOL    HW148553   4.040  10.882   4.901
82240SOL    HW248554   4.169  10.876   4.820
82241SOL     OW48555   0.507  12.101   2.554
82241SOL    HW148556   0.441  12.103   2.624
82241SOL    HW248557   0.501  12.186   2.512
82242SOL     OW48558   8.939   7.599  11.947
82242SOL    HW148559   8.854   7.566  11.918
82242SOL    HW248560   8.942   7.578  12.040
82243SOL     OW48561   1.968  14.386  10.188
82243SOL    HW148562   2.001  14.330  10.118
82243SOL    HW248563   2.011  14.354  10.267
82244SOL     OW48564   0.217   4.998   5.183
82244SOL    HW148565   0.132   5.022   5.220
82244SOL    HW248566   0.227   4.905   5.205
82245SOL     OW48567   8.881  13.317   5.547
82245SOL    HW148568   8.928  13.254   5.601
82245SOL    HW248569   8.913  13.403   5.576
82246SOL     OW48570   8.591  12.191  13.891
82246SOL    HW148571   8.684  12.191  13.871
82246SOL    HW248572   8.550  12.242  13.821
82247SOL     OW48573   3.951   1.831   3.250
82247SOL    HW148574   3.937   1.788   3.165
82247SOL    HW248575   3.895   1.909   3.246
82248SOL     OW48576   3.057  13.232   8.016
82248SOL    HW148577   3.111  13.303   7.980
82248SOL    HW248578   2.973  13.273   8.035
82249SOL     OW48579  10.364   2.872   4.912
82249SOL    HW148580  10.286   2.886   4.966
82249SOL    HW248581  10.436   2.903   4.965
82250SOL     OW48582   1.937  13.279   1.722
82250SOL    HW148583   1.920  13.190   1.754
82250SOL    HW248584   1.894  13.283   1.637
82251SOL     OW48585   7.529  13.063   1.534
82251SOL    HW148586   7.518  13.156   1.556
82251SOL    HW248587   7.622  13.046   1.549
82252SOL     OW48588   8.178   2.918   5.847
82252SOL    HW148589   8.184   3.014   5.855
82252SOL    HW248590   8.268   2.889   5.839
82253SOL     OW48591   6.033  13.689   3.532
82253SOL    HW148592   6.025  13.768   3.478
82253SOL    HW248593   5.948  13.680   3.575
82254SOL     OW48594   1.988  10.423   8.737
82254SOL    HW148595   2.007  10.484   8.665
82254SOL    HW248596   2.057  10.441   8.801
82255SOL     OW48597   7.328   8.875  13.897
82255SOL    HW148598   7.368   8.934  13.960
82255SOL    HW248599   7.318   8.927  13.817
82256SOL     OW48600   8.837   2.637   5.569
82256SOL    HW148601   8.745   2.642   5.544
82256SOL    HW248602   8.882   2.690   5.503
82257SOL     OW48603   8.597  12.215   5.920
82257SOL    HW148604   8.636  12.131   5.895
82257SOL    HW248605   8.584  12.260   5.836
82258SOL     OW48606  14.083   5.782  11.581
82258SOL    HW148607  14.157   5.842  11.594
82258SOL    HW248608  14.124   5.698  11.564
82259SOL     OW48609   3.358   4.998   6.839
82259SOL    HW148610   3.452   5.009   6.823
82259SOL    HW248611   3.334   4.921   6.788
82260SOL     OW48612   7.494   3.662  10.049
82260SOL    HW148613   7.507   3.619   9.964
82260SOL    HW248614   7.581   3.668  10.087
82261SOL     OW48615  13.322  12.966  14.847
82261SOL    HW148616  13.232  12.998  14.852
82261SOL    HW248617  13.359  12.985   0.060
82262SOL     OW48618  13.158   6.116   6.054
82262SOL    HW148619  13.120   6.204   6.045
82262SOL    HW248620  13.248   6.126   6.024
82263SOL     OW48621   2.687  12.242   9.327
82263SOL    HW148622   2.611  12.295   9.351
82263SOL    HW248623   2.650  12.162   9.289
82264SOL     OW48624  11.470   3.847   5.436
82264SOL    HW148625  11.555   3.841   5.393
82264SOL    HW248626  11.463   3.766   5.487
82265SOL     OW48627  10.560   4.021   9.702
82265SOL    HW148628  10.543   3.948   9.762
82265SOL    HW248629  10.518   4.096   9.744
82266SOL     OW48630   4.327   2.498   1.323
82266SOL    HW148631   4.241   2.461   1.344
82266SOL    HW248632   4.369   2.510   1.408
82267SOL     OW48633   9.861   2.203  12.954
82267SOL    HW148634   9.886   2.294  12.970
82267SOL    HW248635   9.910   2.153  13.020
82268SOL     OW48636   7.104  11.590   8.561
82268SOL    HW148637   7.185  11.605   8.512
82268SOL    HW248638   7.036  11.632   8.507
82269SOL     OW48639  11.785   2.862   8.808
82269SOL    HW148640  11.758   2.953   8.812
82269SOL    HW248641  11.785   2.833   8.900
82270SOL     OW48642   1.699   4.549   4.766
82270SOL    HW148643   1.645   4.571   4.842
82270SOL    HW248644   1.695   4.628   4.711
82271SOL     OW48645  14.001  10.940  14.591
82271SOL    HW148646  14.006  11.025  14.549
82271SOL    HW248647  13.944  10.954  14.667
82272SOL     OW48648   1.897   3.238  13.537
82272SOL    HW148649   1.908   3.290  13.456
82272SOL    HW248650   1.815   3.270  13.575
82273SOL     OW48651   9.302   2.896   6.687
82273SOL    HW148652   9.207   2.896   6.694
82273SOL    HW248653   9.331   2.962   6.751
82274SOL     OW48654   7.728   1.375   1.881
82274SOL    HW148655   7.746   1.424   1.961
82274SOL    HW248656   7.759   1.432   1.810
82275SOL     OW48657   8.085   6.956  14.041
82275SOL    HW148658   8.079   7.020  13.970
82275SOL    HW248659   8.116   7.007  14.116
82276SOL     OW48660   7.029  13.517   7.798
82276SOL    HW148661   6.982  13.535   7.717
82276SOL    HW248662   7.060  13.427   7.788
82277SOL     OW48663  11.783  10.146   6.562
82277SOL    HW148664  11.708  10.177   6.612
82277SOL    HW248665  11.787  10.052   6.580
82278SOL     OW48666   2.310   4.071   1.749
82278SOL    HW148667   2.283   4.137   1.685
82278SOL    HW248668   2.295   3.987   1.706
82279SOL     OW48669  12.321  11.180   0.357
82279SOL    HW148670  12.398  11.152   0.308
82279SOL    HW248671  12.352  11.253   0.411
82280SOL     OW48672   1.664   2.136   2.602
82280SOL    HW148673   1.619   2.179   2.675
82280SOL    HW248674   1.753   2.172   2.604
82281SOL     OW48675   5.188   6.234  14.131
82281SOL    HW148676   5.162   6.194  14.214
82281SOL    HW248677   5.107   6.240  14.081
82282SOL     OW48678   0.520   7.543  11.135
82282SOL    HW148679   0.433   7.577  11.114
82282SOL    HW248680   0.511   7.508  11.224
82283SOL     OW48681  10.533   0.662  14.614
82283SOL    HW148682  10.546   0.751  14.581
82283SOL    HW248683  10.439   0.653  14.623
82284SOL     OW48684   8.204   6.500   7.838
82284SOL    HW148685   8.136   6.432   7.845
82284SOL    HW248686   8.156   6.582   7.842
82285SOL     OW48687  13.959   2.687   7.809
82285SOL    HW148688  13.897   2.756   7.831
82285SOL    HW248689  13.932   2.613   7.862
82286SOL     OW48690   3.374   7.887  12.701
82286SOL    HW148691   3.424   7.825  12.648
82286SOL    HW248692   3.283   7.873  12.674
82287SOL     OW48693   1.293   4.819   3.577
82287SOL    HW148694   1.266   4.737   3.534
82287SOL    HW248695   1.358   4.856   3.518
82288SOL     OW48696   5.019  10.836   2.623
82288SOL    HW148697   4.946  10.785   2.587
82288SOL    HW248698   4.978  10.915   2.658
82289SOL     OW48699   4.824  13.901   1.501
82289SOL    HW148700   4.861  13.822   1.462
82289SOL    HW248701   4.846  13.970   1.438
82290SOL     OW48702   1.722  11.591  12.256
82290SOL    HW148703   1.750  11.682  12.258
82290SOL    HW248704   1.799  11.541  12.284
82291SOL     OW48705   6.305  13.282   4.265
82291SOL    HW148706   6.282  13.370   4.293
82291SOL    HW248707   6.279  13.226   4.339
82292SOL     OW48708  12.689  14.182  10.371
82292SOL    HW148709  12.652  14.111  10.423
82292SOL    HW248710  12.641  14.179  10.288
82293SOL     OW48711  10.131   5.411  10.358
82293SOL    HW148712  10.044   5.373  10.374
82293SOL    HW248713  10.151   5.458  10.439
82294SOL     OW48714   9.400   9.550  13.170
82294SOL    HW148715   9.346   9.581  13.098
82294SOL    HW248716   9.357   9.581  13.249
82295SOL     OW48717   2.548   4.637  14.158
82295SOL    HW148718   2.547   4.542  14.172
82295SOL    HW248719   2.571   4.674  14.243
82296SOL     OW48720   8.046   4.898   0.645
82296SOL    HW148721   8.111   4.877   0.712
82296SOL    HW248722   8.085   4.869   0.563
82297SOL     OW48723  10.501   9.212   1.272
82297SOL    HW148724  10.543   9.293   1.302
82297SOL    HW248725  10.571   9.164   1.228
82298SOL     OW48726  11.847   4.869  14.532
82298SOL    HW148727  11.875   4.898  14.445
82298SOL    HW248728  11.818   4.949  14.576
82299SOL     OW48729   8.605   5.187   2.534
82299SOL    HW148730   8.582   5.144   2.617
82299SOL    HW248731   8.529   5.172   2.478
82300SOL     OW48732  11.198  14.408   7.003
82300SOL    HW148733  11.224  14.500   7.016
82300SOL    HW248734  11.184  14.401   6.909
82301SOL     OW48735   6.163   4.411   4.202
82301SOL    HW148736   6.236   4.461   4.239
82301SOL    HW248737   6.091   4.474   4.197
82302SOL     OW48738  14.463   4.403   8.219
82302SOL    HW148739  14.517   4.347   8.275
82302SOL    HW248740  14.382   4.415   8.269
82303SOL     OW48741  14.765  13.117   3.377
82303SOL    HW148742  14.732  13.199   3.340
82303SOL    HW248743  14.836  13.091   3.319
82304SOL     OW48744   6.919   0.726  10.320
82304SOL    HW148745   6.919   0.727  10.224
82304SOL    HW248746   6.987   0.788  10.344
82305SOL     OW48747  13.888   1.903   2.712
82305SOL    HW148748  13.886   1.872   2.802
82305SOL    HW248749  13.863   1.827   2.659
82306SOL     OW48750   0.485  14.772   0.360
82306SOL    HW148751   0.427  14.815   0.297
82306SOL    HW248752   0.541  14.844   0.393
82307SOL     OW48753  11.790   7.424   8.391
82307SOL    HW148754  11.705   7.469   8.393
82307SOL    HW248755  11.832   7.455   8.311
82308SOL     OW48756  12.171   5.919   3.652
82308SOL    HW148757  12.183   5.966   3.569
82308SOL    HW248758  12.079   5.892   3.651
82309SOL     OW48759   3.066  10.495   0.391
82309SOL    HW148760   3.153  10.460   0.369
82309SOL    HW248761   3.008  10.459   0.324
82310SOL     OW48762  12.257   3.317   1.765
82310SOL    HW148763  12.321   3.335   1.834
82310SOL    HW248764  12.209   3.400   1.755
82311SOL     OW48765  11.098   5.330   2.684
82311SOL    HW148766  11.079   5.260   2.621
82311SOL    HW248767  11.183   5.364   2.657
82312SOL     OW48768   0.742   7.011  10.911
82312SOL    HW148769   0.773   7.088  10.960
82312SOL    HW248770   0.817   6.951  10.912
82313SOL     OW48771   8.451   4.518  11.173
82313SOL    HW148772   8.514   4.453  11.141
82313SOL    HW248773   8.366   4.485  11.145
82314SOL     OW48774   2.707   2.261  10.578
82314SOL    HW148775   2.764   2.217  10.516
82314SOL    HW248776   2.669   2.334  10.530
82315SOL     OW48777  13.470   1.308  12.486
82315SOL    HW148778  13.413   1.255  12.432
82315SOL    HW248779  13.558   1.290  12.454
82316SOL     OW48780  11.314   6.591   9.955
82316SOL    HW148781  11.283   6.674   9.990
82316SOL    HW248782  11.235   6.538   9.945
82317SOL     OW48783   7.887   0.666   2.359
82317SOL    HW148784   7.800   0.654   2.398
82317SOL    HW248785   7.945   0.611   2.411
82318SOL     OW48786  14.130  14.834  13.995
82318SOL    HW148787  14.107   0.034  13.938
82318SOL    HW248788  14.176   0.001  14.068
82319SOL     OW48789  12.507   8.710   5.365
82319SOL    HW148790  12.526   8.797   5.401
82319SOL    HW248791  12.413   8.700   5.378
82320SOL     OW48792   5.575  13.352   4.581
82320SOL    HW148793   5.570  13.385   4.671
82320SOL    HW248794   5.578  13.257   4.591
82321SOL     OW48795  13.749   2.297  14.822
82321SOL    HW148796  13.843   2.282  14.830
82321SOL    HW248797  13.711   2.261   0.029
82322SOL     OW48798   5.847  12.705  14.204
82322SOL    HW148799   5.886  12.701  14.117
82322SOL    HW248800   5.842  12.798  14.225
82323SOL     OW48801   4.833   4.550  14.078
82323SOL    HW148802   4.803   4.518  14.163
82323SOL    HW248803   4.928   4.538  14.080
82324SOL     OW48804  11.795   9.821   6.443
82324SOL    HW148805  11.718   9.816   6.499
82324SOL    HW248806  11.761   9.815   6.354
82325SOL     OW48807  13.016   0.425   8.364
82325SOL    HW148808  13.006   0.419   8.269
82325SOL    HW248809  12.985   0.341   8.397
82326SOL     OW48810   3.786   6.176  14.466
82326SOL    HW148811   3.735   6.216  14.396
82326SOL    HW248812   3.745   6.207  14.546
82327SOL     OW48813   3.024   3.242  10.273
82327SOL    HW148814   3.118   3.258  10.268
82327SOL    HW248815   2.992   3.261  10.184
82328SOL     OW48816  12.451   5.201   6.987
82328SOL    HW148817  12.498   5.120   7.003
82328SOL    HW248818  12.500   5.243   6.916
82329SOL     OW48819   4.202  13.885   4.791
82329SOL    HW148820   4.238  13.796   4.798
82329SOL    HW248821   4.276  13.941   4.816
82330SOL     OW48822  14.222   6.037   9.226
82330SOL    HW148823  14.148   6.070   9.277
82330SOL    HW248824  14.281   6.113   9.216
82331SOL     OW48825  12.560  11.841   3.364
82331SOL    HW148826  12.607  11.803   3.290
82331SOL    HW248827  12.477  11.872   3.326
82332SOL     OW48828  12.660   6.848   9.417
82332SOL    HW148829  12.680   6.771   9.469
82332SOL    HW248830  12.716   6.917   9.453
82333SOL     OW48831   1.603  11.547  14.578
82333SOL    HW148832   1.645  11.572  14.660
82333SOL    HW248833   1.568  11.459  14.594
82334SOL     OW48834   9.841  14.429   2.078
82334SOL    HW148835   9.902  14.501   2.063
82334SOL    HW248836   9.888  14.369   2.136
82335SOL     OW48837   5.284   7.734  12.895
82335SOL    HW148838   5.217   7.755  12.960
82335SOL    HW248839   5.241   7.749  12.810
82336SOL     OW48840  10.109   1.918   9.918
82336SOL    HW148841  10.120   1.980   9.990
82336SOL    HW248842  10.147   1.836   9.950
82337SOL     OW48843  11.749   2.266  14.731
82337SOL    HW148844  11.711   2.330  14.671
82337SOL    HW248845  11.681   2.200  14.743
82338SOL     OW48846  14.458  10.517  10.524
82338SOL    HW148847  14.522  10.589  10.525
82338SOL    HW248848  14.402  10.534  10.599
82339SOL     OW48849   5.256   7.010  10.982
82339SOL    HW148850   5.348   6.996  11.007
82339SOL    HW248851   5.210   7.021  11.065
82340SOL     OW48852   2.277   2.723  14.660
82340SOL    HW148853   2.240   2.721  14.572
82340SOL    HW248854   2.344   2.792  14.657
82341SOL     OW48855   5.054   1.036   9.480
82341SOL    HW148856   5.022   1.030   9.570
82341SOL    HW248857   4.990   0.988   9.427
82342SOL     OW48858   8.464   5.583  13.342
82342SOL    HW148859   8.371   5.572  13.362
82342SOL    HW248860   8.466   5.659  13.283
82343SOL     OW48861   5.745   3.313   3.037
82343SOL    HW148862   5.822   3.326   2.981
82343SOL    HW248863   5.677   3.281   2.977
82344SOL     OW48864   8.170  12.344  13.838
82344SOL    HW148865   8.153  12.438  13.828
82344SOL    HW248866   8.094  12.312  13.887
82345SOL     OW48867   0.938   1.420   6.779
82345SOL    HW148868   0.979   1.503   6.755
82345SOL    HW248869   0.884   1.440   6.855
82346SOL     OW48870   4.869   0.897   1.664
82346SOL    HW148871   4.808   0.823   1.661
82346SOL    HW248872   4.883   0.920   1.572
82347SOL     OW48873   0.901   4.950  13.367
82347SOL    HW148874   0.991   4.920  13.350
82347SOL    HW248875   0.856   4.939  13.284
82348SOL     OW48876  13.047   2.778   0.012
82348SOL    HW148877  13.043   2.872   0.033
82348SOL    HW248878  12.977   2.765  14.821
82349SOL     OW48879  10.963  14.843   0.781
82349SOL    HW148880  11.006  14.833   0.697
82349SOL    HW248881  10.934   0.062   0.783
82350SOL     OW48882   1.028   9.515   9.058
82350SOL    HW148883   0.970   9.520   9.134
82350SOL    HW248884   1.076   9.597   9.059
82351SOL     OW48885   1.991  14.704   5.257
82351SOL    HW148886   1.969  14.769   5.324
82351SOL    HW248887   1.922  14.713   5.192
82352SOL     OW48888   2.141  10.925  14.110
82352SOL    HW148889   2.079  10.997  14.096
82352SOL    HW248890   2.129  10.868  14.034
82353SOL     OW48891   0.406   3.044   3.844
82353SOL    HW148892   0.400   3.005   3.757
82353SOL    HW248893   0.316   3.044   3.877
82354SOL     OW48894   6.845   1.303   2.137
82354SOL    HW148895   6.891   1.316   2.221
82354SOL    HW248896   6.892   1.230   2.096
82355SOL     OW48897   0.781   5.697   1.841
82355SOL    HW148898   0.724   5.697   1.918
82355SOL    HW248899   0.721   5.690   1.767
82356SOL     OW48900   3.920   1.657  12.640
82356SOL    HW148901   3.983   1.729  12.639
82356SOL    HW248902   3.881   1.661  12.728
82357SOL     OW48903   9.553   3.800  13.690
82357SOL    HW148904   9.461   3.821  13.673
82357SOL    HW248905   9.567   3.825  13.781
82358SOL     OW48906   1.600   3.095  10.532
82358SOL    HW148907   1.534   3.039  10.491
82358SOL    HW248908   1.682   3.046  10.524
82359SOL     OW48909   8.217   4.572   4.841
82359SOL    HW148910   8.218   4.584   4.746
82359SOL    HW248911   8.280   4.636   4.875
82360SOL     OW48912  10.560  11.135  14.254
82360SOL    HW148913  10.580  11.159  14.344
82360SOL    HW248914  10.559  11.217  14.206
82361SOL     OW48915  14.302  14.285  11.869
82361SOL    HW148916  14.327  14.289  11.777
82361SOL    HW248917  14.291  14.191  11.886
82362SOL     OW48918  14.746  12.789   1.434
82362SOL    HW148919  14.807  12.862   1.427
82362SOL    HW248920  14.729  12.781   1.528
82363SOL     OW48921   3.536   4.103  11.964
82363SOL    HW148922   3.451   4.131  11.996
82363SOL    HW248923   3.549   4.151  11.883
82364SOL     OW48924   3.908  12.462   3.295
82364SOL    HW148925   3.859  12.475   3.214
82364SOL    HW248926   3.914  12.366   3.304
82365SOL     OW48927   7.226   2.580  13.954
82365SOL    HW148928   7.197   2.523  14.025
82365SOL    HW248929   7.154   2.580  13.891
82366SOL     OW48930  10.008  13.572   2.651
82366SOL    HW148931  10.018  13.667   2.644
82366SOL    HW248932  10.074  13.536   2.591
82367SOL     OW48933   8.107   4.871   6.419
82367SOL    HW148934   8.165   4.893   6.346
82367SOL    HW248935   8.146   4.793   6.458
82368SOL     OW48936  14.397   5.619  13.707
82368SOL    HW148937  14.399   5.553  13.776
82368SOL    HW248938  14.400   5.568  13.626
82369SOL     OW48939   8.440   0.392   2.207
82369SOL    HW148940   8.431   0.473   2.156
82369SOL    HW248941   8.353   0.379   2.246
82370SOL     OW48942  13.657   9.483  11.088
82370SOL    HW148943  13.687   9.517  11.003
82370SOL    HW248944  13.729   9.429  11.119
82371SOL     OW48945   9.199  10.571  10.682
82371SOL    HW148946   9.194  10.476  10.688
82371SOL    HW248947   9.283  10.589  10.641
82372SOL     OW48948   5.211   0.538   9.079
82372SOL    HW148949   5.251   0.615   9.038
82372SOL    HW248950   5.284   0.490   9.118
82373SOL     OW48951   4.482   7.178   2.380
82373SOL    HW148952   4.535   7.211   2.453
82373SOL    HW248953   4.540   7.183   2.304
82374SOL     OW48954   1.035   6.893   3.599
82374SOL    HW148955   1.120   6.850   3.596
82374SOL    HW248956   1.051   6.979   3.559
82375SOL     OW48957   2.173  13.836   3.570
82375SOL    HW148958   2.125  13.778   3.511
82375SOL    HW248959   2.252  13.858   3.521
82376SOL     OW48960   3.764  12.880   1.042
82376SOL    HW148961   3.751  12.824   0.965
82376SOL    HW248962   3.736  12.826   1.116
82377SOL     OW48963   2.675   7.952   4.100
82377SOL    HW148964   2.733   7.919   4.168
82377SOL    HW248965   2.658   8.043   4.126
82378SOL     OW48966   5.007   3.674   7.678
82378SOL    HW148967   5.037   3.585   7.660
82378SOL    HW248968   5.020   3.686   7.772
82379SOL     OW48969   9.094   3.496   9.349
82379SOL    HW148970   9.051   3.425   9.301
82379SOL    HW248971   9.116   3.560   9.282
82380SOL     OW48972   3.831  10.720   5.234
82380SOL    HW148973   3.769  10.759   5.295
82380SOL    HW248974   3.852  10.634   5.271
82381SOL     OW48975   4.585   1.343  10.065
82381SOL    HW148976   4.504   1.370  10.107
82381SOL    HW248977   4.643   1.419  10.071
82382SOL     OW48978  12.713   3.426  14.059
82382SOL    HW148979  12.623   3.412  14.030
82382SOL    HW248980  12.717   3.385  14.146
82383SOL     OW48981   5.985   0.734  11.402
82383SOL    HW148982   6.056   0.692  11.451
82383SOL    HW248983   5.938   0.661  11.362
82384SOL     OW48984   4.434   3.486  12.747
82384SOL    HW148985   4.487   3.552  12.793
82384SOL    HW248986   4.495   3.444  12.687
82385SOL     OW48987  14.307  13.353   2.545
82385SOL    HW148988  14.384  13.308   2.509
82385SOL    HW248989  14.240  13.285   2.553
82386SOL     OW48990   8.049   2.125   4.461
82386SOL    HW148991   8.102   2.167   4.393
82386SOL    HW248992   8.069   2.031   4.452
82387SOL     OW48993   5.984   6.964   8.246
82387SOL    HW148994   5.992   7.049   8.289
82387SOL    HW248995   5.890   6.950   8.237
82388SOL     OW48996   6.075   9.247   6.119
82388SOL    HW148997   6.063   9.335   6.157
82388SOL    HW248998   6.010   9.193   6.165
82389SOL     OW48999   2.218  11.866  11.156
82389SOL    HW149000   2.127  11.890  11.173
82389SOL    HW249001   2.266  11.948  11.161
82390SOL     OW49002  10.349   7.472  13.298
82390SOL    HW149003  10.426   7.456  13.243
82390SOL    HW249004  10.350   7.402  13.363
82391SOL     OW49005   6.000   6.579   2.349
82391SOL    HW149006   6.059   6.599   2.277
82391SOL    HW249007   6.036   6.626   2.424
82392SOL     OW49008  14.116   6.102   1.919
82392SOL    HW149009  14.166   6.022   1.905
82392SOL    HW249010  14.095   6.101   2.012
82393SOL     OW49011   9.871   3.948   5.053
82393SOL    HW149012   9.919   3.869   5.029
82393SOL    HW249013   9.914   4.018   5.003
82394SOL     OW49014   4.265   4.637   8.177
82394SOL    HW149015   4.293   4.701   8.111
82394SOL    HW249016   4.321   4.561   8.160
82395SOL     OW49017  10.293  13.174   2.201
82395SOL    HW149018  10.271  13.101   2.143
82395SOL    HW249019  10.375  13.208   2.167
82396SOL     OW49020  11.719  13.061   1.894
82396SOL    HW149021  11.809  13.044   1.868
82396SOL    HW249022  11.687  12.977   1.926
82397SOL     OW49023   1.739   7.339   8.379
82397SOL    HW149024   1.814   7.294   8.340
82397SOL    HW249025   1.768   7.429   8.390
82398SOL     OW49026  10.752  13.455   6.837
82398SOL    HW149027  10.662  13.466   6.806
82398SOL    HW249028  10.805  13.458   6.757
82399SOL     OW49029   2.121  13.148  11.398
82399SOL    HW149030   2.026  13.137  11.404
82399SOL    HW249031   2.157  13.061  11.416
82400SOL     OW49032   0.593   7.176   6.051
82400SOL    HW149033   0.562   7.156   5.963
82400SOL    HW249034   0.647   7.101   6.075
82401SOL     OW49035   2.996   7.669  13.776
82401SOL    HW149036   2.922   7.659  13.715
82401SOL    HW249037   2.985   7.757  13.812
82402SOL     OW49038   0.359   1.783  10.981
82402SOL    HW149039   0.379   1.702  10.934
82402SOL    HW249040   0.396   1.770  11.068
82403SOL     OW49041   8.895   9.186   1.110
82403SOL    HW149042   8.914   9.240   1.033
82403SOL    HW249043   8.904   9.247   1.184
82404SOL     OW49044  14.130   5.393   0.793
82404SOL    HW149045  14.219   5.414   0.766
82404SOL    HW249046  14.136   5.302   0.824
82405SOL     OW49047   0.532   4.914  11.728
82405SOL    HW149048   0.497   4.991  11.772
82405SOL    HW249049   0.627   4.930  11.723
82406SOL     OW49050   5.343   9.110   1.666
82406SOL    HW149051   5.388   9.171   1.608
82406SOL    HW249052   5.381   9.025   1.645
82407SOL     OW49053   0.963  10.482   1.824
82407SOL    HW149054   1.031  10.548   1.829
82407SOL    HW249055   0.917  10.488   1.908
82408SOL     OW49056   7.872   3.787   2.490
82408SOL    HW149057   7.923   3.865   2.510
82408SOL    HW249058   7.821   3.770   2.569
82409SOL     OW49059  14.209   9.980  11.098
82409SOL    HW149060  14.237  10.032  11.023
82409SOL    HW249061  14.142  10.032  11.141
82410SOL     OW49062   8.391   5.544   3.502
82410SOL    HW149063   8.472   5.492   3.504
82410SOL    HW249064   8.377   5.570   3.593
82411SOL     OW49065   0.154   5.949   5.384
82411SOL    HW149066   0.237   5.924   5.343
82411SOL    HW249067   0.173   6.030   5.430
82412SOL     OW49068   8.580   6.295   5.147
82412SOL    HW149069   8.636   6.218   5.142
82412SOL    HW249070   8.599   6.334   5.232
82413SOL     OW49071  14.147   5.296   6.166
82413SOL    HW149072  14.201   5.371   6.145
82413SOL    HW249073  14.154   5.287   6.261
82414SOL     OW49074  12.568   3.536  12.855
82414SOL    HW149075  12.568   3.470  12.785
82414SOL    HW249076  12.617   3.609  12.818
82415SOL     OW49077   5.678  10.931   4.177
82415SOL    HW149078   5.671  10.996   4.246
82415SOL    HW249079   5.743  10.966   4.117
82416SOL     OW49080   2.644   5.955  10.106
82416SOL    HW149081   2.686   6.009  10.040
82416SOL    HW249082   2.612   6.017  10.171
82417SOL     OW49083  10.564   1.273   1.452
82417SOL    HW149084  10.561   1.236   1.540
82417SOL    HW249085  10.484   1.243   1.410
82418SOL     OW49086  10.892  11.461  10.192
82418SOL    HW149087  10.954  11.503  10.132
82418SOL    HW249088  10.913  11.497  10.278
82419SOL     OW49089   7.070   4.420  14.303
82419SOL    HW149090   6.992   4.424  14.359
82419SOL    HW249091   7.126   4.355  14.345
82420SOL     OW49092  13.309   6.747  10.065
82420SOL    HW149093  13.302   6.817  10.130
82420SOL    HW249094  13.385   6.696  10.094
82421SOL     OW49095   8.667   5.762  12.592
82421SOL    HW149096   8.683   5.671  12.620
82421SOL    HW249097   8.708   5.768  12.506
82422SOL     OW49098   2.686   7.948  10.426
82422SOL    HW149099   2.739   8.025  10.403
82422SOL    HW249100   2.603   7.962  10.380
82423SOL     OW49101   9.879   4.737   8.901
82423SOL    HW149102   9.891   4.711   8.992
82423SOL    HW249103   9.788   4.715   8.882
82424SOL     OW49104  14.858   0.067  13.757
82424SOL    HW149105  14.797   0.139  13.741
82424SOL    HW249106   0.025   0.089  13.841
82425SOL     OW49107  12.600   1.421   5.287
82425SOL    HW149108  12.638   1.354   5.231
82425SOL    HW249109  12.540   1.374   5.344
82426SOL     OW49110   8.225   2.865   2.976
82426SOL    HW149111   8.228   2.923   2.900
82426SOL    HW249112   8.159   2.799   2.953
82427SOL     OW49113  12.194   6.640   6.697
82427SOL    HW149114  12.151   6.722   6.672
82427SOL    HW249115  12.183   6.635   6.792
82428SOL     OW49116  11.869   0.267   6.308
82428SOL    HW149117  11.821   0.192   6.343
82428SOL    HW249118  11.837   0.342   6.359
82429SOL     OW49119  13.730   5.721  14.392
82429SOL    HW149120  13.803   5.743  14.334
82429SOL    HW249121  13.708   5.631  14.371
82430SOL     OW49122   4.144   4.047   4.629
82430SOL    HW149123   4.103   4.119   4.581
82430SOL    HW249124   4.075   3.981   4.637
82431SOL     OW49125   2.414   4.784   3.293
82431SOL    HW149126   2.330   4.744   3.313
82431SOL    HW249127   2.447   4.813   3.378
82432SOL     OW49128   4.735   5.934   6.760
82432SOL    HW149129   4.648   5.971   6.777
82432SOL    HW249130   4.795   5.987   6.813
82433SOL     OW49131  10.924  11.815   4.822
82433SOL    HW149132  10.886  11.901   4.803
82433SOL    HW249133  10.971  11.791   4.742
82434SOL     OW49134  12.008   5.129  13.306
82434SOL    HW149135  12.076   5.146  13.242
82434SOL    HW249136  11.943   5.076  13.259
82435SOL     OW49137   9.588   9.535   4.379
82435SOL    HW149138   9.562   9.528   4.471
82435SOL    HW249139   9.646   9.460   4.364
82436SOL     OW49140   7.929   2.517  14.625
82436SOL    HW149141   7.892   2.498  14.539
82436SOL    HW249142   8.021   2.534  14.608
82437SOL     OW49143  12.894   1.604  14.698
82437SOL    HW149144  12.952   1.609  14.774
82437SOL    HW249145  12.810   1.635  14.730
82438SOL     OW49146   4.117   3.990  14.355
82438SOL    HW149147   4.180   3.919  14.348
82438SOL    HW249148   4.063   3.967  14.430
82439SOL     OW49149   1.779   2.721   3.341
82439SOL    HW149150   1.784   2.653   3.274
82439SOL    HW249151   1.799   2.675   3.423
82440SOL     OW49152  13.234   6.352   3.388
82440SOL    HW149153  13.302   6.335   3.454
82440SOL    HW249154  13.270   6.317   3.307
82441SOL     OW49155   3.713   9.263   9.095
82441SOL    HW149156   3.791   9.211   9.078
82441SOL    HW249157   3.661   9.257   9.015
82442SOL     OW49158   5.120   4.530   3.468
82442SOL    HW149159   5.171   4.529   3.387
82442SOL    HW249160   5.044   4.475   3.449
82443SOL     OW49161  11.618   0.222   5.314
82443SOL    HW149162  11.635   0.245   5.405
82443SOL    HW249163  11.704   0.229   5.271
82444SOL     OW49164   1.820   7.458   4.274
82444SOL    HW149165   1.744   7.412   4.239
82444SOL    HW249166   1.854   7.400   4.342
82445SOL     OW49167   5.692  12.746   4.362
82445SOL    HW149168   5.735  12.755   4.447
82445SOL    HW249169   5.711  12.828   4.317
82446SOL     OW49170  11.831   9.683  14.060
82446SOL    HW149171  11.754   9.735  14.085
82446SOL    HW249172  11.879   9.670  14.142
82447SOL     OW49173   2.662  10.710   7.920
82447SOL    HW149174   2.607  10.687   7.845
82447SOL    HW249175   2.617  10.672   7.996
82448SOL     OW49176   9.346  10.231  11.273
82448SOL    HW149177   9.419  10.291  11.255
82448SOL    HW249178   9.268  10.278  11.242
82449SOL     OW49179   6.239  12.777  10.536
82449SOL    HW149180   6.205  12.726  10.610
82449SOL    HW249181   6.161  12.812  10.493
82450SOL     OW49182   9.713   0.283   5.529
82450SOL    HW149183   9.676   0.252   5.612
82450SOL    HW249184   9.654   0.246   5.462
82451SOL     OW49185  12.666   0.377   1.755
82451SOL    HW149186  12.749   0.425   1.754
82451SOL    HW249187  12.682   0.303   1.813
82452SOL     OW49188   7.155  13.059   7.534
82452SOL    HW149189   7.250  13.047   7.528
82452SOL    HW249190   7.129  13.006   7.610
82453SOL     OW49191   6.227  13.554   4.315
82453SOL    HW149192   6.153  13.493   4.319
82453SOL    HW249193   6.190  13.634   4.277
82454SOL     OW49194  12.474   4.361  12.717
82454SOL    HW149195  12.437   4.383  12.803
82454SOL    HW249196  12.463   4.440  12.665
82455SOL     OW49197   4.243   4.675   5.102
82455SOL    HW149198   4.222   4.712   5.017
82455SOL    HW249199   4.335   4.697   5.116
82456SOL     OW49200  10.618   3.067  11.550
82456SOL    HW149201  10.525   3.059  11.569
82456SOL    HW249202  10.648   2.977  11.539
82457SOL     OW49203   3.022  13.672  11.463
82457SOL    HW149204   3.036  13.588  11.418
82457SOL    HW249205   2.978  13.727  11.398
82458SOL     OW49206  14.636  14.384  13.805
82458SOL    HW149207  14.624  14.353  13.715
82458SOL    HW249208  14.629  14.479  13.798
82459SOL     OW49209   0.269  12.676  12.202
82459SOL    HW149210   0.323  12.746  12.237
82459SOL    HW249211   0.331  12.613  12.165
82460SOL     OW49212   6.491   0.124   7.239
82460SOL    HW149213   6.525   0.101   7.153
82460SOL    HW249214   6.566   0.120   7.297
82461SOL     OW49215  14.766  14.436   8.343
82461SOL    HW149216  14.852  14.476   8.360
82461SOL    HW249217  14.737  14.476   8.261
82462SOL     OW49218   9.622  11.377   6.017
82462SOL    HW149219   9.606  11.285   5.997
82462SOL    HW249220   9.548  11.423   5.978
82463SOL     OW49221   4.027  10.421  11.994
82463SOL    HW149222   4.048  10.507  11.957
82463SOL    HW249223   3.996  10.369  11.920
82464SOL     OW49224  11.083   1.903   5.947
82464SOL    HW149225  11.147   1.963   5.985
82464SOL    HW249226  11.039   1.864   6.023
82465SOL     OW49227   6.970   5.257   4.000
82465SOL    HW149228   7.062   5.231   4.000
82465SOL    HW249229   6.971   5.352   3.998
82466SOL     OW49230   4.592   8.867  11.087
82466SOL    HW149231   4.548   8.816  11.019
82466SOL    HW249232   4.671   8.901  11.044
82467SOL     OW49233   6.728   9.152  11.109
82467SOL    HW149234   6.657   9.142  11.172
82467SOL    HW249235   6.807   9.128  11.159
82468SOL     OW49236   9.625   1.318  12.348
82468SOL    HW149237   9.688   1.384  12.377
82468SOL    HW249238   9.553   1.369  12.310
82469SOL     OW49239   5.307  11.379   9.696
82469SOL    HW149240   5.383  11.361   9.752
82469SOL    HW249241   5.341  11.437   9.627
82470SOL     OW49242  12.674  14.381   2.544
82470SOL    HW149243  12.636  14.424   2.468
82470SOL    HW249244  12.692  14.291   2.515
82471SOL     OW49245   9.276   4.928   6.593
82471SOL    HW149246   9.361   4.917   6.635
82471SOL    HW249247   9.293   4.914   6.500
82472SOL     OW49248  11.681   8.645  13.068
82472SOL    HW149249  11.722   8.710  13.012
82472SOL    HW249250  11.691   8.680  13.157
82473SOL     OW49251  11.417   7.456   8.628
82473SOL    HW149252  11.442   7.530   8.683
82473SOL    HW249253  11.496   7.403   8.622
82474SOL     OW49254   2.709   5.906  10.581
82474SOL    HW149255   2.623   5.868  10.563
82474SOL    HW249256   2.749   5.846  10.643
82475SOL     OW49257  11.028   1.646   3.797
82475SOL    HW149258  11.040   1.554   3.821
82475SOL    HW249259  10.976   1.644   3.717
82476SOL     OW49260   2.444   1.152   6.200
82476SOL    HW149261   2.447   1.062   6.232
82476SOL    HW249262   2.436   1.144   6.105
82477SOL     OW49263   2.494   4.830   3.544
82477SOL    HW149264   2.453   4.913   3.569
82477SOL    HW249265   2.466   4.768   3.611
82478SOL     OW49266   2.302  10.236   4.822
82478SOL    HW149267   2.328  10.153   4.783
82478SOL    HW249268   2.216  10.219   4.860
82479SOL     OW49269  13.933  10.334   7.888
82479SOL    HW149270  13.874  10.409   7.879
82479SOL    HW249271  13.916  10.300   7.975
82480SOL     OW49272   7.901   8.397   7.962
82480SOL    HW149273   7.840   8.324   7.973
82480SOL    HW249274   7.861   8.453   7.896
82481SOL     OW49275  13.089   4.499  10.696
82481SOL    HW149276  13.034   4.546  10.634
82481SOL    HW249277  13.028   4.455  10.755
82482SOL     OW49278   7.916  10.476   9.904
82482SOL    HW149279   7.881  10.508   9.987
82482SOL    HW249280   7.909  10.551   9.845
82483SOL     OW49281   2.895   7.270   4.842
82483SOL    HW149282   2.931   7.224   4.919
82483SOL    HW249283   2.872   7.357   4.875
82484SOL     OW49284   8.391   7.446   7.611
82484SOL    HW149285   8.300   7.474   7.601
82484SOL    HW249286   8.418   7.484   7.695
82485SOL     OW49287   6.078  12.904  13.020
82485SOL    HW149288   6.081  12.998  12.999
82485SOL    HW249289   6.076  12.861  12.934
82486SOL     OW49290   3.776   1.957   9.014
82486SOL    HW149291   3.693   1.997   8.991
82486SOL    HW249292   3.842   2.023   8.991
82487SOL     OW49293   0.920   5.651   8.116
82487SOL    HW149294   0.847   5.591   8.097
82487SOL    HW249295   0.988   5.594   8.152
82488SOL     OW49296   2.944   1.210   7.256
82488SOL    HW149297   2.992   1.292   7.268
82488SOL    HW249298   2.861   1.237   7.217
82489SOL     OW49299  10.965   0.870   9.610
82489SOL    HW149300  10.942   0.884   9.701
82489SOL    HW249301  10.970   0.957   9.572
82490SOL     OW49302   4.765   5.194   5.847
82490SOL    HW149303   4.723   5.252   5.910
82490SOL    HW249304   4.844   5.241   5.820
82491SOL     OW49305  11.446   1.987   3.151
82491SOL    HW149306  11.476   2.076   3.171
82491SOL    HW249307  11.507   1.956   3.084
82492SOL     OW49308   9.064   5.658   2.709
82492SOL    HW149309   9.108   5.743   2.703
82492SOL    HW249310   9.086   5.614   2.627
82493SOL     OW49311   8.595   8.321   0.958
82493SOL    HW149312   8.559   8.352   1.042
82493SOL    HW249313   8.689   8.335   0.966
82494SOL     OW49314   5.782   9.568   2.765
82494SOL    HW149315   5.803   9.539   2.854
82494SOL    HW249316   5.809   9.660   2.763
82495SOL     OW49317   2.138   6.372   4.535
82495SOL    HW149318   2.211   6.383   4.596
82495SOL    HW249319   2.168   6.304   4.474
82496SOL     OW49320  10.614   7.270   9.364
82496SOL    HW149321  10.534   7.274   9.417
82496SOL    HW249322  10.596   7.328   9.290
82497SOL     OW49323   3.511   8.591   9.111
82497SOL    HW149324   3.592   8.564   9.156
82497SOL    HW249325   3.471   8.509   9.083
82498SOL     OW49326   0.058   9.875  14.401
82498SOL    HW149327   0.151   9.897  14.394
82498SOL    HW249328   0.026   9.874  14.310
82499SOL     OW49329   6.011   8.647   6.928
82499SOL    HW149330   5.922   8.626   6.955
82499SOL    HW249331   6.017   8.614   6.838
82500SOL     OW49332  10.728   7.978   9.801
82500SOL    HW149333  10.737   8.062   9.846
82500SOL    HW249334  10.706   7.916   9.870
82501SOL     OW49335   8.319   4.209   0.032
82501SOL    HW149336   8.403   4.183  14.869
82501SOL    HW249337   8.278   4.127   0.060
82502SOL     OW49338  13.784  10.154  10.295
82502SOL    HW149339  13.789  10.198  10.210
82502SOL    HW249340  13.728  10.211  10.348
82503SOL     OW49341   7.058   5.817   3.760
82503SOL    HW149342   7.035   5.864   3.840
82503SOL    HW249343   7.105   5.739   3.790
82504SOL     OW49344  12.253  11.617   2.091
82504SOL    HW149345  12.294  11.656   2.168
82504SOL    HW249346  12.178  11.673   2.072
82505SOL     OW49347   0.537   3.343  11.793
82505SOL    HW149348   0.604   3.330  11.859
82505SOL    HW249349   0.458   3.302  11.831
82506SOL     OW49350  12.839  10.330   6.475
82506SOL    HW149351  12.877  10.368   6.396
82506SOL    HW249352  12.783  10.399   6.511
82507SOL     OW49353   8.170  11.702   9.110
82507SOL    HW149354   8.101  11.657   9.158
82507SOL    HW249355   8.243  11.640   9.107
82508SOL     OW49356   9.383   4.483   5.854
82508SOL    HW149357   9.399   4.562   5.905
82508SOL    HW249358   9.405   4.411   5.913
82509SOL     OW49359  14.275   8.321   5.722
82509SOL    HW149360  14.240   8.374   5.794
82509SOL    HW249361  14.285   8.382   5.649
82510SOL     OW49362   4.409   3.896  11.000
82510SOL    HW149363   4.431   3.977  10.955
82510SOL    HW249364   4.466   3.893  11.076
82511SOL     OW49365   3.609  11.765   0.875
82511SOL    HW149366   3.588  11.854   0.849
82511SOL    HW249367   3.652  11.727   0.798
82512SOL     OW49368  14.822   2.391   5.103
82512SOL    HW149369   0.001   2.472   5.097
82512SOL    HW249370  14.731   2.420   5.091
82513SOL     OW49371  10.339   3.803   5.070
82513SOL    HW149372  10.401   3.764   5.008
82513SOL    HW249373  10.324   3.891   5.036
82514SOL     OW49374   8.250   7.882   2.240
82514SOL    HW149375   8.256   7.949   2.307
82514SOL    HW249376   8.182   7.822   2.272
82515SOL     OW49377   1.334   1.648   0.137
82515SOL    HW149378   1.330   1.728   0.084
82515SOL    HW249379   1.243   1.622   0.149
82516SOL     OW49380   0.731   3.080   4.690
82516SOL    HW149381   0.781   3.107   4.613
82516SOL    HW249382   0.734   3.156   4.749
82517SOL     OW49383   7.433   4.475   3.100
82517SOL    HW149384   7.486   4.537   3.049
82517SOL    HW249385   7.431   4.513   3.188
82518SOL     OW49386   5.365   9.024   3.293
82518SOL    HW149387   5.440   9.002   3.348
82518SOL    HW249388   5.400   9.032   3.205
82519SOL     OW49389   7.265  10.174   8.998
82519SOL    HW149390   7.206  10.158   9.072
82519SOL    HW249391   7.316  10.251   9.024
82520SOL     OW49392   0.321   4.514   8.331
82520SOL    HW149393   0.247   4.524   8.271
82520SOL    HW249394   0.396   4.550   8.283
82521SOL     OW49395  11.992   1.517   1.807
82521SOL    HW149396  11.924   1.568   1.850
82521SOL    HW249397  11.955   1.429   1.798
82522SOL     OW49398   1.619  13.815   6.727
82522SOL    HW149399   1.587  13.868   6.799
82522SOL    HW249400   1.543  13.802   6.670
82523SOL     OW49401  12.875   1.897  11.317
82523SOL    HW149402  12.939   1.934  11.378
82523SOL    HW249403  12.858   1.809  11.350
82524SOL     OW49404   3.653   7.168   4.862
82524SOL    HW149405   3.736   7.193   4.822
82524SOL    HW249406   3.673   7.162   4.956
82525SOL     OW49407   5.040  10.900   2.181
82525SOL    HW149408   5.016  10.876   2.271
82525SOL    HW249409   5.004  10.988   2.169
82526SOL     OW49410  13.975  14.402   5.104
82526SOL    HW149411  14.044  14.467   5.117
82526SOL    HW249412  13.897  14.442   5.142
82527SOL     OW49413   8.000   8.928  14.264
82527SOL    HW149414   7.928   8.959  14.319
82527SOL    HW249415   8.005   8.991  14.193
82528SOL     OW49416  11.912   2.896   4.460
82528SOL    HW149417  11.914   2.800   4.455
82528SOL    HW249418  11.986   2.919   4.516
82529SOL     OW49419  10.272   1.195   8.935
82529SOL    HW149420  10.356   1.158   8.911
82529SOL    HW249421  10.284   1.290   8.927
82530SOL     OW49422   7.906   2.966   2.041
82530SOL    HW149423   7.980   2.982   1.982
82530SOL    HW249424   7.840   3.029   2.014
82531SOL     OW49425  13.330   6.898  14.116
82531SOL    HW149426  13.275   6.969  14.149
82531SOL    HW249427  13.415   6.910  14.158
82532SOL     OW49428   0.733   7.751   4.204
82532SOL    HW149429   0.667   7.693   4.243
82532SOL    HW249430   0.810   7.741   4.261
82533SOL     OW49431   9.241  12.263   5.097
82533SOL    HW149432   9.180  12.197   5.129
82533SOL    HW249433   9.261  12.317   5.173
82534SOL     OW49434  14.439   5.746   6.240
82534SOL    HW149435  14.423   5.825   6.189
82534SOL    HW249436  14.505   5.770   6.304
82535SOL     OW49437   9.820   2.058  14.217
82535SOL    HW149438   9.806   2.153  14.211
82535SOL    HW249439   9.734   2.023  14.241
82536SOL     OW49440  14.641  14.112  14.119
82536SOL    HW149441  14.656  14.181  14.183
82536SOL    HW249442  14.695  14.136  14.044
82537SOL     OW49443   8.110  13.396   2.250
82537SOL    HW149444   8.094  13.454   2.175
82537SOL    HW249445   8.123  13.310   2.210
82538SOL     OW49446  14.455  12.177  14.325
82538SOL    HW149447  14.383  12.114  14.321
82538SOL    HW249448  14.436  12.240  14.256
82539SOL     OW49449  13.430  11.002  10.981
82539SOL    HW149450  13.464  10.944  11.050
82539SOL    HW249451  13.499  11.004  10.916
82540SOL     OW49452   0.301   8.045   5.220
82540SOL    HW149453   0.207   8.032   5.233
82540SOL    HW249454   0.342   8.002   5.295
82541SOL     OW49455   2.281   6.273  14.455
82541SOL    HW149456   2.342   6.220  14.506
82541SOL    HW249457   2.283   6.234  14.368
82542SOL     OW49458   9.284   6.319   5.169
82542SOL    HW149459   9.264   6.373   5.092
82542SOL    HW249460   9.350   6.369   5.217
82543SOL     OW49461  12.527  11.596  11.740
82543SOL    HW149462  12.580  11.561  11.812
82543SOL    HW249463  12.563  11.682  11.722
82544SOL     OW49464   5.110  13.704  13.943
82544SOL    HW149465   5.033  13.652  13.919
82544SOL    HW249466   5.118  13.768  13.873
82545SOL     OW49467   7.540   2.314   9.844
82545SOL    HW149468   7.552   2.236   9.790
82545SOL    HW249469   7.624   2.360   9.840
82546SOL     OW49470   9.039   6.494  12.370
82546SOL    HW149471   8.952   6.529  12.352
82546SOL    HW249472   9.023   6.413  12.418
82547SOL     OW49473  13.608   7.232   0.473
82547SOL    HW149474  13.548   7.192   0.409
82547SOL    HW249475  13.621   7.322   0.441
82548SOL     OW49476  10.177   5.012   3.198
82548SOL    HW149477  10.143   5.083   3.143
82548SOL    HW249478  10.220   4.952   3.136
82549SOL     OW49479  12.971   7.375   1.073
82549SOL    HW149480  13.036   7.344   1.010
82549SOL    HW249481  13.023   7.408   1.146
82550SOL     OW49482   5.769   3.636   5.158
82550SOL    HW149483   5.711   3.712   5.156
82550SOL    HW249484   5.714   3.562   5.133
82551SOL     OW49485  13.736   5.200  13.381
82551SOL    HW149486  13.814   5.215  13.328
82551SOL    HW249487  13.768   5.196  13.471
82552SOL     OW49488   9.758  12.003   8.681
82552SOL    HW149489   9.725  11.913   8.672
82552SOL    HW249490   9.685  12.052   8.719
82553SOL     OW49491   4.929   7.137   0.257
82553SOL    HW149492   4.850   7.125   0.204
82553SOL    HW249493   4.963   7.222   0.230
82554SOL     OW49494   7.386  13.822   9.240
82554SOL    HW149495   7.380  13.865   9.155
82554SOL    HW249496   7.388  13.729   9.221
82555SOL     OW49497   8.216   8.192   7.630
82555SOL    HW149498   8.265   8.112   7.608
82555SOL    HW249499   8.129   8.160   7.655
82556SOL     OW49500   5.302  14.694   8.271
82556SOL    HW149501   5.257  14.620   8.310
82556SOL    HW249502   5.358  14.656   8.202
82557SOL     OW49503   6.049   6.355  14.017
82557SOL    HW149504   6.005   6.343  14.101
82557SOL    HW249505   6.012   6.287  13.961
82558SOL     OW49506   1.434   3.337   9.167
82558SOL    HW149507   1.428   3.373   9.079
82558SOL    HW249508   1.407   3.245   9.158
82559SOL     OW49509   5.298   3.637   3.196
82559SOL    HW149510   5.350   3.626   3.276
82559SOL    HW249511   5.251   3.555   3.187
82560SOL     OW49512   6.393   1.899   7.884
82560SOL    HW149513   6.341   1.969   7.846
82560SOL    HW249514   6.480   1.910   7.846
82561SOL     OW49515  10.925   4.184  14.266
82561SOL    HW149516  10.954   4.276  14.272
82561SOL    HW249517  10.894   4.163  14.354
82562SOL     OW49518   7.827   7.553   3.594
82562SOL    HW149519   7.743   7.568   3.638
82562SOL    HW249520   7.855   7.468   3.626
82563SOL     OW49521   0.731   1.776   9.224
82563SOL    HW149522   0.784   1.746   9.298
82563SOL    HW249523   0.753   1.716   9.153
82564SOL     OW49524   1.142   8.531  11.241
82564SOL    HW149525   1.191   8.474  11.181
82564SOL    HW249526   1.061   8.551  11.195
82565SOL     OW49527   5.477  10.315   2.652
82565SOL    HW149528   5.482  10.228   2.613
82565SOL    HW249529   5.500  10.301   2.744
82566SOL     OW49530   3.261  13.843   6.969
82566SOL    HW149531   3.213  13.760   6.981
82566SOL    HW249532   3.300  13.836   6.882
82567SOL     OW49533   7.631   7.418   7.846
82567SOL    HW149534   7.597   7.406   7.934
82567SOL    HW249535   7.600   7.342   7.798
82568SOL     OW49536   2.927   4.749   7.875
82568SOL    HW149537   2.855   4.788   7.827
82568SOL    HW249538   2.888   4.723   7.959
82569SOL     OW49539   5.611  14.270   6.763
82569SOL    HW149540   5.563  14.188   6.776
82569SOL    HW249541   5.676  14.250   6.696
82570SOL     OW49542   0.655   0.144  11.415
82570SOL    HW149543   0.652   0.165  11.508
82570SOL    HW249544   0.572   0.098  11.398
82571SOL     OW49545  10.760   2.225   0.988
82571SOL    HW149546  10.768   2.198   0.896
82571SOL    HW249547  10.709   2.306   0.984
82572SOL     OW49548  13.132   3.863   4.034
82572SOL    HW149549  13.043   3.895   4.020
82572SOL    HW249550  13.122   3.768   4.042
82573SOL     OW49551   5.306  14.854   2.028
82573SOL    HW149552   5.335   0.072   2.019
82573SOL    HW249553   5.326  14.814   1.944
82574SOL     OW49554   4.580   9.485   8.971
82574SOL    HW149555   4.570   9.417   9.038
82574SOL    HW249556   4.491   9.509   8.947
82575SOL     OW49557   8.451   4.301   6.017
82575SOL    HW149558   8.373   4.355   6.026
82575SOL    HW249559   8.421   4.222   5.972
82576SOL     OW49560   8.916  11.804  14.458
82576SOL    HW149561   8.956  11.719  14.438
82576SOL    HW249562   8.987  11.855  14.498
82577SOL     OW49563   7.440   9.704  13.838
82577SOL    HW149564   7.412   9.677  13.751
82577SOL    HW249565   7.365   9.685  13.895
82578SOL     OW49566  11.827   5.487  13.359
82578SOL    HW149567  11.854   5.483  13.268
82578SOL    HW249568  11.806   5.579  13.375
82579SOL     OW49569   4.694   1.800   6.757
82579SOL    HW149570   4.753   1.857   6.808
82579SOL    HW249571   4.606   1.831   6.779
82580SOL     OW49572  11.378  10.310   5.611
82580SOL    HW149573  11.342  10.396   5.592
82580SOL    HW249574  11.429  10.321   5.691
82581SOL     OW49575  14.873   6.854  12.625
82581SOL    HW149576   0.014   6.943  12.591
82581SOL    HW249577   0.079   6.834  12.675
82582SOL     OW49578  10.206   9.886   1.850
82582SOL    HW149579  10.227   9.977   1.829
82582SOL    HW249580  10.205   9.842   1.765
82583SOL     OW49581  14.307   2.647  14.571
82583SOL    HW149582  14.225   2.620  14.530
82583SOL    HW249583  14.294   2.630  14.664
82584SOL     OW49584  12.755  11.589   3.285
82584SOL    HW149585  12.720  11.558   3.369
82584SOL    HW249586  12.718  11.530   3.220
82585SOL     OW49587   3.654   8.628   2.994
82585SOL    HW149588   3.649   8.709   2.944
82585SOL    HW249589   3.640   8.655   3.084
82586SOL     OW49590  14.694   1.548  10.546
82586SOL    HW149591  14.641   1.561  10.624
82586SOL    HW249592  14.733   1.462  10.558
82587SOL     OW49593  11.384   2.212  13.601
82587SOL    HW149594  11.395   2.117  13.597
82587SOL    HW249595  11.424   2.238  13.684
82588SOL     OW49596   7.925   2.115  14.056
82588SOL    HW149597   7.902   2.085  13.969
82588SOL    HW249598   7.982   2.191  14.041
82589SOL     OW49599   2.227   1.541  12.480
82589SOL    HW149600   2.156   1.520  12.420
82589SOL    HW249601   2.209   1.631  12.509
82590SOL     OW49602   7.905  10.749  11.016
82590SOL    HW149603   7.844  10.676  11.006
82590SOL    HW249604   7.955  10.750  10.934
82591SOL     OW49605  12.335   8.358   2.204
82591SOL    HW149606  12.354   8.271   2.169
82591SOL    HW249607  12.402   8.373   2.270
82592SOL     OW49608  10.864   9.654   5.592
82592SOL    HW149609  10.848   9.631   5.684
82592SOL    HW249610  10.815   9.735   5.579
82593SOL     OW49611  11.927  13.370   1.517
82593SOL    HW149612  11.907  13.314   1.592
82593SOL    HW249613  11.934  13.458   1.554
82594SOL     OW49614   7.962  11.014   3.921
82594SOL    HW149615   8.020  11.049   3.988
82594SOL    HW249616   7.999  11.043   3.838
82595SOL     OW49617  12.764   4.212  11.811
82595SOL    HW149618  12.805   4.297  11.798
82595SOL    HW249619  12.820   4.168  11.875
82596SOL     OW49620   4.385   6.535  13.139
82596SOL    HW149621   4.314   6.478  13.170
82596SOL    HW249622   4.397   6.599  13.209
82597SOL     OW49623  11.443   6.650   7.089
82597SOL    HW149624  11.517   6.611   7.135
82597SOL    HW249625  11.403   6.708   7.154
82598SOL     OW49626   6.228   2.313  12.560
82598SOL    HW149627   6.207   2.304  12.653
82598SOL    HW249628   6.145   2.298  12.515
82599SOL     OW49629   6.128   9.375   2.820
82599SOL    HW149630   6.089   9.365   2.907
82599SOL    HW249631   6.150   9.467   2.812
82600SOL     OW49632   9.219   1.817  12.116
82600SOL    HW149633   9.166   1.893  12.090
82600SOL    HW249634   9.222   1.762  12.038
82601SOL     OW49635   8.504  14.493   6.975
82601SOL    HW149636   8.435  14.484   7.041
82601SOL    HW249637   8.568  14.550   7.015
82602SOL     OW49638   0.424   1.862   3.993
82602SOL    HW149639   0.415   1.946   3.947
82602SOL    HW249640   0.350   1.860   4.054
82603SOL     OW49641   6.820   7.165  13.733
82603SOL    HW149642   6.846   7.082  13.692
82603SOL    HW249643   6.901   7.200  13.769
82604SOL     OW49644  13.695   7.551  12.268
82604SOL    HW149645  13.727   7.527  12.355
82604SOL    HW249646  13.611   7.505  12.260
82605SOL     OW49647   0.687   6.122   8.066
82605SOL    HW149648   0.769   6.100   8.022
82605SOL    HW249649   0.712   6.142   8.156
82606SOL     OW49650  12.881   3.477   0.503
82606SOL    HW149651  12.788   3.492   0.485
82606SOL    HW249652  12.917   3.565   0.518
82607SOL     OW49653   3.335   9.803   3.408
82607SOL    HW149654   3.402   9.842   3.464
82607SOL    HW249655   3.323   9.866   3.337
82608SOL     OW49656   8.505  12.615  11.729
82608SOL    HW149657   8.458  12.532  11.739
82608SOL    HW249658   8.497  12.637  11.636
82609SOL     OW49659  13.552   6.373  11.984
82609SOL    HW149660  13.628   6.404  11.936
82609SOL    HW249661  13.479   6.378  11.922
82610SOL     OW49662   1.372   3.857  13.341
82610SOL    HW149663   1.404   3.933  13.293
82610SOL    HW249664   1.301   3.822  13.288
82611SOL     OW49665   2.594   5.813   3.201
82611SOL    HW149666   2.682   5.783   3.224
82611SOL    HW249667   2.595   5.817   3.105
82612SOL     OW49668  14.847   2.182  14.445
82612SOL    HW149669  14.821   2.235  14.520
82612SOL    HW249670  14.777   2.118  14.435
82613SOL     OW49671   2.578  11.409   0.846
82613SOL    HW149672   2.520  11.455   0.905
82613SOL    HW249673   2.635  11.357   0.903
82614SOL     OW49674   7.088   8.944  11.541
82614SOL    HW149675   7.068   8.863  11.588
82614SOL    HW249676   7.022   9.006  11.571
82615SOL     OW49677  12.559   1.596  14.358
82615SOL    HW149678  12.526   1.621  14.444
82615SOL    HW249679  12.654   1.609  14.364
82616SOL     OW49680   3.897  14.505   0.997
82616SOL    HW149681   3.807  14.496   0.966
82616SOL    HW249682   3.943  14.548   0.925
82617SOL     OW49683   7.727   1.478   2.557
82617SOL    HW149684   7.758   1.533   2.629
82617SOL    HW249685   7.723   1.537   2.482
82618SOL     OW49686   0.689  13.112   9.016
82618SOL    HW149687   0.605  13.147   8.988
82618SOL    HW249688   0.753  13.176   8.985
82619SOL     OW49689   1.432   2.707  10.594
82619SOL    HW149690   1.377   2.780  10.619
82619SOL    HW249691   1.452   2.662  10.677
82620SOL     OW49692  11.501  11.971   7.398
82620SOL    HW149693  11.583  11.981   7.448
82620SOL    HW249694  11.441  11.930   7.460
82621SOL     OW49695  13.234   1.536   9.882
82621SOL    HW149696  13.201   1.611   9.832
82621SOL    HW249697  13.325   1.527   9.854
82622SOL     OW49698   3.181  11.448   8.715
82622SOL    HW149699   3.127  11.369   8.713
82622SOL    HW249700   3.176  11.483   8.626
82623SOL     OW49701   9.905   4.983  10.497
82623SOL    HW149702   9.974   5.029  10.448
82623SOL    HW249703   9.903   4.895  10.457
82624SOL     OW49704   5.687   8.734   8.077
82624SOL    HW149705   5.665   8.649   8.114
82624SOL    HW249706   5.604   8.781   8.074
82625SOL     OW49707   5.986   9.214   7.843
82625SOL    HW149708   6.040   9.148   7.887
82625SOL    HW249709   5.990   9.191   7.751
82626SOL     OW49710   2.565  10.333   3.187
82626SOL    HW149711   2.489  10.358   3.136
82626SOL    HW249712   2.624  10.408   3.181
82627SOL     OW49713   6.451   6.560   1.334
82627SOL    HW149714   6.460   6.651   1.362
82627SOL    HW249715   6.387   6.563   1.263
82628SOL     OW49716   1.505   9.931   6.154
82628SOL    HW149717   1.492   9.885   6.071
82628SOL    HW249718   1.524  10.021   6.130
82629SOL     OW49719   8.032  13.051  13.851
82629SOL    HW149720   7.959  13.111  13.862
82629SOL    HW249721   7.991  12.965  13.840
82630SOL     OW49722   6.208  11.232  14.207
82630SOL    HW149723   6.281  11.283  14.242
82630SOL    HW249724   6.227  11.142  14.232
82631SOL     OW49725  10.605   2.227   8.776
82631SOL    HW149726  10.659   2.280   8.718
82631SOL    HW249727  10.640   2.138   8.767
82632SOL     OW49728   6.206  14.355  10.229
82632SOL    HW149729   6.214  14.279  10.171
82632SOL    HW249730   6.126  14.399  10.199
82633SOL     OW49731  14.493   3.646  11.490
82633SOL    HW149732  14.467   3.734  11.461
82633SOL    HW249733  14.586   3.641  11.470
82634SOL     OW49734   9.592  11.264   9.381
82634SOL    HW149735   9.505  11.247   9.346
82634SOL    HW249736   9.584  11.348   9.427
82635SOL     OW49737   1.188  12.249   8.295
82635SOL    HW149738   1.167  12.226   8.204
82635SOL    HW249739   1.254  12.318   8.287
82636SOL     OW49740   8.731  13.823   6.690
82636SOL    HW149741   8.781  13.761   6.637
82636SOL    HW249742   8.678  13.871   6.626
82637SOL     OW49743   9.423  11.449   8.288
82637SOL    HW149744   9.464  11.404   8.362
82637SOL    HW249745   9.482  11.521   8.268
82638SOL     OW49746  12.648   7.485  12.482
82638SOL    HW149747  12.620   7.533  12.404
82638SOL    HW249748  12.582   7.507  12.548
82639SOL     OW49749  10.137   9.810   3.112
82639SOL    HW149750  10.059   9.824   3.166
82639SOL    HW249751  10.127   9.873   3.040
82640SOL     OW49752   4.164   2.142  10.347
82640SOL    HW149753   4.242   2.183  10.385
82640SOL    HW249754   4.096   2.210  10.353
82641SOL     OW49755  13.726  12.359   5.261
82641SOL    HW149756  13.782  12.289   5.226
82641SOL    HW249757  13.636  12.328   5.244
82642SOL     OW49758   4.065   8.804   2.768
82642SOL    HW149759   4.144   8.826   2.719
82642SOL    HW249760   3.993   8.836   2.714
82643SOL     OW49761  13.010  11.303   8.594
82643SOL    HW149762  13.091  11.352   8.580
82643SOL    HW249763  12.995  11.308   8.689
82644SOL     OW49764   2.515   9.187   9.111
82644SOL    HW149765   2.542   9.106   9.066
82644SOL    HW249766   2.510   9.163   9.203
82645SOL     OW49767   9.309  13.175  10.861
82645SOL    HW149768   9.364  13.097  10.862
82645SOL    HW249769   9.366  13.246  10.892
82646SOL     OW49770   4.377  10.595  10.695
82646SOL    HW149771   4.439  10.616  10.764
82646SOL    HW249772   4.401  10.507  10.667
82647SOL     OW49773  14.441   9.647   7.165
82647SOL    HW149774  14.422   9.563   7.123
82647SOL    HW249775  14.357   9.675   7.202
82648SOL     OW49776  12.890   5.713  12.253
82648SOL    HW149777  12.918   5.787  12.198
82648SOL    HW249778  12.826   5.666  12.199
82649SOL     OW49779  14.303  10.324   9.111
82649SOL    HW149780  14.306  10.371   9.195
82649SOL    HW249781  14.210  10.311   9.094
82650SOL     OW49782   7.570   4.393  10.746
82650SOL    HW149783   7.614   4.314  10.778
82650SOL    HW249784   7.556   4.445  10.825
82651SOL     OW49785  12.974  14.291   2.153
82651SOL    HW149786  13.031  14.332   2.218
82651SOL    HW249787  12.918  14.362   2.122
82652SOL     OW49788  12.272   6.994  10.155
82652SOL    HW149789  12.264   6.903  10.126
82652SOL    HW249790  12.264   6.990  10.250
82653SOL     OW49791   1.588  10.702   7.042
82653SOL    HW149792   1.631  10.619   7.023
82653SOL    HW249793   1.546  10.687   7.127
82654SOL     OW49794   3.934  13.642  14.762
82654SOL    HW149795   3.900  13.555  14.740
82654SOL    HW249796   3.856  13.692  14.787
82655SOL     OW49797   5.974   3.655  13.307
82655SOL    HW149798   5.964   3.750  13.310
82655SOL    HW249799   5.988   3.635  13.214
82656SOL     OW49800   6.408   8.468  14.675
82656SOL    HW149801   6.313   8.474  14.673
82656SOL    HW249802   6.427   8.413  14.752
82657SOL     OW49803   6.054   5.609   9.332
82657SOL    HW149804   6.133   5.652   9.299
82657SOL    HW249805   6.054   5.627   9.426
82658SOL     OW49806   4.827  12.019   9.808
82658SOL    HW149807   4.815  12.047   9.898
82658SOL    HW249808   4.845  11.925   9.814
82659SOL     OW49809   7.429   5.405   5.464
82659SOL    HW149810   7.476   5.470   5.516
82659SOL    HW249811   7.350   5.451   5.435
82660SOL     OW49812  11.283  11.723  13.210
82660SOL    HW149813  11.231  11.802  13.197
82660SOL    HW249814  11.241  11.677  13.283
82661SOL     OW49815   2.073   0.851  10.159
82661SOL    HW149816   2.048   0.826  10.249
82661SOL    HW249817   2.101   0.768  10.119
82662SOL     OW49818   7.994   2.701  10.742
82662SOL    HW149819   7.947   2.668  10.666
82662SOL    HW249820   8.025   2.623  10.788
82663SOL     OW49821   7.971   8.748   8.684
82663SOL    HW149822   7.969   8.655   8.661
82663SOL    HW249823   8.059   8.778   8.661
82664SOL     OW49824  13.801  10.761   3.182
82664SOL    HW149825  13.793  10.817   3.104
82664SOL    HW249826  13.872  10.700   3.161
82665SOL     OW49827   1.468   3.314   5.678
82665SOL    HW149828   1.516   3.237   5.708
82665SOL    HW249829   1.511   3.388   5.719
82666SOL     OW49830  10.988   1.849   4.510
82666SOL    HW149831  11.051   1.887   4.449
82666SOL    HW249832  10.912   1.906   4.505
82667SOL     OW49833   1.979  11.856  12.512
82667SOL    HW149834   1.937  11.782  12.556
82667SOL    HW249835   2.073  11.844  12.530
82668SOL     OW49836  13.868  14.144   5.969
82668SOL    HW149837  13.822  14.211   6.019
82668SOL    HW249838  13.802  14.111   5.907
82669SOL     OW49839   9.449   3.762  11.777
82669SOL    HW149840   9.456   3.844  11.825
82669SOL    HW249841   9.540   3.737  11.759
82670SOL     OW49842   9.882  13.316  10.656
82670SOL    HW149843   9.911  13.395  10.610
82670SOL    HW249844   9.809  13.345  10.711
82671SOL     OW49845  13.281   9.224  14.840
82671SOL    HW149846  13.234   9.175  14.772
82671SOL    HW249847  13.234   9.204   0.048
82672SOL     OW49848  10.099   2.969   8.407
82672SOL    HW149849  10.180   2.940   8.365
82672SOL    HW249850  10.052   2.888   8.428
82673SOL     OW49851  11.013  10.802   9.055
82673SOL    HW149852  10.967  10.719   9.041
82673SOL    HW249853  10.986  10.829   9.143
82674SOL     OW49854   9.852  11.692  12.345
82674SOL    HW149855   9.946  11.703  12.358
82674SOL    HW249856   9.835  11.731  12.260
82675SOL     OW49857   4.585  12.472  10.557
82675SOL    HW149858   4.572  12.390  10.604
82675SOL    HW249859   4.673  12.464  10.520
82676SOL     OW49860   2.510   7.899  11.302
82676SOL    HW149861   2.567   7.845  11.357
82676SOL    HW249862   2.462   7.836  11.248
82677SOL     OW49863   6.446  11.081  14.809
82677SOL    HW149864   6.537  11.080  14.837
82677SOL    HW249865   6.448  11.052  14.718
82678SOL     OW49866   0.597  14.324   3.666
82678SOL    HW149867   0.657  14.386   3.624
82678SOL    HW249868   0.578  14.364   3.751
82679SOL     OW49869  14.440  13.552   3.824
82679SOL    HW149870  14.455  13.640   3.790
82679SOL    HW249871  14.389  13.508   3.756
82680SOL     OW49872   6.869   4.547   0.572
82680SOL    HW149873   6.887   4.482   0.504
82680SOL    HW249874   6.829   4.497   0.643
82681SOL     OW49875   6.197   1.347   9.579
82681SOL    HW149876   6.103   1.333   9.564
82681SOL    HW249877   6.224   1.406   9.509
82682SOL     OW49878  12.080  11.865   4.133
82682SOL    HW149879  12.161  11.917   4.128
82682SOL    HW249880  12.107  11.776   4.111
82683SOL     OW49881   1.969   4.122  10.188
82683SOL    HW149882   1.989   4.191  10.125
82683SOL    HW249883   1.967   4.042  10.135
82684SOL     OW49884   0.163   2.911  11.124
82684SOL    HW149885   0.123   2.935  11.040
82684SOL    HW249886   0.193   2.994  11.160
82685SOL     OW49887  11.986   7.057   9.666
82685SOL    HW149888  12.065   7.003   9.667
82685SOL    HW249889  12.009   7.132   9.611
82686SOL     OW49890  12.570   8.361   9.001
82686SOL    HW149891  12.542   8.452   8.993
82686SOL    HW249892  12.588   8.350   9.095
82687SOL     OW49893   7.330   8.878   8.398
82687SOL    HW149894   7.341   8.894   8.492
82687SOL    HW249895   7.332   8.966   8.359
82688SOL     OW49896   9.978   7.869   1.437
82688SOL    HW149897   9.889   7.865   1.401
82688SOL    HW249898   9.987   7.959   1.468
82689SOL     OW49899   1.018  12.388   0.659
82689SOL    HW149900   0.962  12.460   0.629
82689SOL    HW249901   1.055  12.418   0.741
82690SOL     OW49902  11.202   7.762   7.016
82690SOL    HW149903  11.163   7.809   6.943
82690SOL    HW249904  11.130   7.708   7.050
82691SOL     OW49905   4.617  13.800   6.423
82691SOL    HW149906   4.552  13.869   6.410
82691SOL    HW249907   4.570  13.719   6.405
82692SOL     OW49908  10.333   6.655  10.928
82692SOL    HW149909  10.405   6.621  10.980
82692SOL    HW249910  10.368   6.733  10.886
82693SOL     OW49911   9.160   8.283   0.725
82693SOL    HW149912   9.157   8.218   0.655
82693SOL    HW249913   9.084   8.264   0.780
82694SOL     OW49914  14.203  13.605  10.983
82694SOL    HW149915  14.259  13.635  10.912
82694SOL    HW249916  14.203  13.677  11.046
82695SOL     OW49917   1.071  12.198   5.986
82695SOL    HW149918   1.117  12.272   5.947
82695SOL    HW249919   1.109  12.121   5.942
82696SOL     OW49920   6.743  13.726   7.811
82696SOL    HW149921   6.707  13.800   7.763
82696SOL    HW249922   6.765  13.662   7.744
82697SOL     OW49923  12.034   1.234   3.395
82697SOL    HW149924  12.058   1.190   3.313
82697SOL    HW249925  12.116   1.237   3.445
82698SOL     OW49926   7.499   4.791   3.127
82698SOL    HW149927   7.510   4.752   3.041
82698SOL    HW249928   7.430   4.856   3.116
82699SOL     OW49929   2.426   9.324  13.287
82699SOL    HW149930   2.497   9.321  13.352
82699SOL    HW249931   2.467   9.294  13.206
82700SOL     OW49932  11.914  11.091   2.222
82700SOL    HW149933  11.992  11.094   2.278
82700SOL    HW249934  11.938  11.034   2.149
82701SOL     OW49935  10.466   0.709  12.676
82701SOL    HW149936  10.423   0.683  12.757
82701SOL    HW249937  10.528   0.638  12.657
82702SOL     OW49938  13.894   3.329   0.403
82702SOL    HW149939  13.939   3.289   0.328
82702SOL    HW249940  13.888   3.259   0.468
82703SOL     OW49941   6.902   5.247   1.698
82703SOL    HW149942   6.892   5.251   1.793
82703SOL    HW249943   6.835   5.186   1.668
82704SOL     OW49944  13.625  13.489   9.488
82704SOL    HW149945  13.612  13.477   9.582
82704SOL    HW249946  13.636  13.400   9.453
82705SOL     OW49947   3.082  10.226  10.412
82705SOL    HW149948   3.144  10.264  10.349
82705SOL    HW249949   3.124  10.240  10.497
82706SOL     OW49950   9.038   3.750  11.733
82706SOL    HW149951   9.078   3.760  11.646
82706SOL    HW249952   8.945   3.735  11.715
82707SOL     OW49953   5.651  12.153  12.306
82707SOL    HW149954   5.635  12.125  12.396
82707SOL    HW249955   5.572  12.201  12.281
82708SOL     OW49956   7.518   2.662   6.777
82708SOL    HW149957   7.597   2.628   6.819
82708SOL    HW249958   7.449   2.601   6.803
82709SOL     OW49959   7.058  10.343  10.307
82709SOL    HW149960   6.963  10.335  10.311
82709SOL    HW249961   7.080  10.323  10.216
82710SOL     OW49962   7.349   6.880  13.790
82710SOL    HW149963   7.293   6.827  13.733
82710SOL    HW249964   7.390   6.944  13.732
82711SOL     OW49965  10.695   2.151  11.039
82711SOL    HW149966  10.677   2.191  10.954
82711SOL    HW249967  10.613   2.109  11.064
82712SOL     OW49968   8.080  11.155  12.351
82712SOL    HW149969   8.040  11.135  12.436
82712SOL    HW249970   8.079  11.072  12.303
82713SOL     OW49971   9.847   9.886  12.853
82713SOL    HW149972   9.862   9.952  12.786
82713SOL    HW249973   9.867   9.930  12.936
82714SOL     OW49974  10.778   9.663   0.574
82714SOL    HW149975  10.803   9.749   0.541
82714SOL    HW249976  10.806   9.602   0.505
82715SOL     OW49977   0.801  11.126  14.285
82715SOL    HW149978   0.795  11.047  14.232
82715SOL    HW249979   0.756  11.194  14.234
82716SOL     OW49980   0.511  11.040   3.556
82716SOL    HW149981   0.504  11.113   3.495
82716SOL    HW249982   0.433  10.987   3.541
82717SOL     OW49983   5.573   6.538  12.575
82717SOL    HW149984   5.518   6.473  12.531
82717SOL    HW249985   5.580   6.506  12.665
82718SOL     OW49986   8.882   7.967  12.134
82718SOL    HW149987   8.945   7.963  12.205
82718SOL    HW249988   8.811   7.909  12.161
82719SOL     OW49989  12.361   9.564   8.417
82719SOL    HW149990  12.283   9.539   8.368
82719SOL    HW249991  12.345   9.532   8.506
82720SOL     OW49992   4.779   8.540   3.146
82720SOL    HW149993   4.827   8.581   3.074
82720SOL    HW249994   4.765   8.450   3.116
82721SOL     OW49995   4.505  13.546   9.287
82721SOL    HW149996   4.491  13.488   9.212
82721SOL    HW249997   4.501  13.634   9.249
82722SOL     OW49998   6.692  12.582   4.781
82722SOL    HW149999   6.708  12.675   4.761
82722SOL    HW250000   6.602  12.567   4.752
82723SOL     OW50001   5.408  12.719  12.020
82723SOL    HW150002   5.443  12.800  12.058
82723SOL    HW250003   5.314  12.737  12.010
82724SOL     OW50004   5.164   9.005   3.784
82724SOL    HW150005   5.230   9.061   3.824
82724SOL    HW250006   5.130   9.055   3.711
82725SOL     OW50007   0.480  11.106   0.588
82725SOL    HW150008   0.575  11.108   0.576
82725SOL    HW250009   0.457  11.013   0.589
82726SOL     OW50010  10.464   0.201   2.728
82726SOL    HW150011  10.436   0.112   2.748
82726SOL    HW250012  10.387   0.242   2.688
82727SOL     OW50013   8.434   9.835   7.743
82727SOL    HW150014   8.471   9.799   7.663
82727SOL    HW250015   8.393   9.760   7.786
82728SOL     OW50016   6.434  11.130   4.571
82728SOL    HW150017   6.516  11.124   4.523
82728SOL    HW250018   6.403  11.220   4.554
82729SOL     OW50019  12.577   5.221  14.803
82729SOL    HW150020  12.562   5.191  14.714
82729SOL    HW250021  12.559   5.144  14.857
82730SOL     OW50022  13.791  13.753   2.264
82730SOL    HW150023  13.767  13.697   2.190
82730SOL    HW250024  13.864  13.805   2.231
82731SOL     OW50025   7.081   8.547  14.010
82731SOL    HW150026   7.155   8.486  14.010
82731SOL    HW250027   7.087   8.593  13.926
82732SOL     OW50028   9.412  11.578   6.513
82732SOL    HW150029   9.427  11.484   6.507
82732SOL    HW250030   9.344  11.588   6.580
82733SOL     OW50031   6.884   5.760   6.541
82733SOL    HW150032   6.872   5.777   6.634
82733SOL    HW250033   6.823   5.688   6.522
82734SOL     OW50034   9.527   0.766   4.440
82734SOL    HW150035   9.577   0.737   4.516
82734SOL    HW250036   9.507   0.858   4.459
82735SOL     OW50037   0.041   5.988   4.812
82735SOL    HW150038   0.030   6.001   4.906
82735SOL    HW250039   0.136   5.980   4.800
82736SOL     OW50040  13.596   1.567   0.320
82736SOL    HW150041  13.530   1.550   0.388
82736SOL    HW250042  13.644   1.643   0.352
82737SOL     OW50043  10.163  14.576   5.897
82737SOL    HW150044  10.113  14.623   5.830
82737SOL    HW250045  10.246  14.554   5.855
82738SOL     OW50046   0.664   9.925  11.706
82738SOL    HW150047   0.728   9.888  11.647
82738SOL    HW250048   0.707  10.003  11.743
82739SOL     OW50049   4.058   5.745   0.157
82739SOL    HW150050   4.030   5.775   0.070
82739SOL    HW250051   4.149   5.776   0.164
82740SOL     OW50052   4.461   4.196  11.539
82740SOL    HW150053   4.503   4.232  11.460
82740SOL    HW250054   4.392   4.138  11.504
82741SOL     OW50055   3.981  13.058   0.232
82741SOL    HW150056   4.039  12.983   0.218
82741SOL    HW250057   3.957  13.087   0.144
82742SOL     OW50058  12.935   8.158   2.314
82742SOL    HW150059  12.889   8.241   2.320
82742SOL    HW250060  12.987   8.164   2.234
82743SOL     OW50061   8.809   4.926   6.508
82743SOL    HW150062   8.888   4.889   6.547
82743SOL    HW250063   8.741   4.862   6.528
82744SOL     OW50064   1.114   4.039   2.750
82744SOL    HW150065   1.046   4.077   2.695
82744SOL    HW250066   1.194   4.048   2.698
82745SOL     OW50067   9.912   6.398   2.332
82745SOL    HW150068   9.846   6.391   2.262
82745SOL    HW250069   9.912   6.490   2.356
82746SOL     OW50070   4.407  14.725   6.294
82746SOL    HW150071   4.461  14.646   6.288
82746SOL    HW250072   4.325  14.701   6.251
82747SOL     OW50073   4.184   1.589  13.514
82747SOL    HW150074   4.162   1.587  13.421
82747SOL    HW250075   4.271   1.629  13.518
82748SOL     OW50076   8.617   5.187  14.213
82748SOL    HW150077   8.686   5.227  14.267
82748SOL    HW250078   8.664   5.153  14.136
82749SOL     OW50079   3.572  13.121  13.915
82749SOL    HW150080   3.632  13.123  13.990
82749SOL    HW250081   3.518  13.199  13.925
82750SOL     OW50082  10.664   3.687   5.784
82750SOL    HW150083  10.672   3.594   5.763
82750SOL    HW250084  10.591   3.692   5.845
82751SOL     OW50085  10.828   0.292   5.446
82751SOL    HW150086  10.847   0.336   5.363
82751SOL    HW250087  10.914   0.285   5.489
82752SOL     OW50088  14.172   6.955  12.146
82752SOL    HW150089  14.190   6.985  12.057
82752SOL    HW250090  14.123   6.874  12.134
82753SOL     OW50091   0.368   7.849   7.589
82753SOL    HW150092   0.323   7.814   7.512
82753SOL    HW250093   0.461   7.843   7.567
82754SOL     OW50094   0.180   2.433   1.243
82754SOL    HW150095   0.208   2.508   1.191
82754SOL    HW250096   0.249   2.368   1.232
82755SOL     OW50097   0.719   8.722   4.216
82755SOL    HW150098   0.717   8.817   4.223
82755SOL    HW250099   0.750   8.692   4.302
82756SOL     OW50100   6.228   6.664   2.902
82756SOL    HW150101   6.206   6.681   2.994
82756SOL    HW250102   6.301   6.722   2.884
82757SOL     OW50103   6.312   2.611   7.904
82757SOL    HW150104   6.290   2.593   7.995
82757SOL    HW250105   6.241   2.573   7.854
82758SOL     OW50106   7.473   7.404   6.505
82758SOL    HW150107   7.551   7.350   6.506
82758SOL    HW250108   7.492   7.476   6.565
82759SOL     OW50109  10.149   3.869   2.742
82759SOL    HW150110  10.207   3.794   2.752
82759SOL    HW250111  10.187   3.937   2.797
82760SOL     OW50112   0.104   0.709   4.757
82760SOL    HW150113   0.097   0.639   4.823
82760SOL    HW250114   0.131   0.663   4.678
82761SOL     OW50115   6.589   4.367   2.966
82761SOL    HW150116   6.610   4.287   3.014
82761SOL    HW250117   6.582   4.339   2.874
82762SOL     OW50118   0.134   8.481  10.663
82762SOL    HW150119   0.219   8.498  10.704
82762SOL    HW250120   0.117   8.388  10.680
82763SOL     OW50121  10.695  11.670  13.322
82763SOL    HW150122  10.654  11.624  13.248
82763SOL    HW250123  10.695  11.605  13.393
82764SOL     OW50124   9.257  11.392   1.333
82764SOL    HW150125   9.339  11.388   1.381
82764SOL    HW250126   9.284  11.401   1.241
82765SOL     OW50127  14.318  14.464   4.930
82765SOL    HW150128  14.261  14.422   4.866
82765SOL    HW250129  14.355  14.539   4.884
82766SOL     OW50130  13.098   9.227   9.947
82766SOL    HW150131  13.031   9.203  10.010
82766SOL    HW250132  13.079   9.174   9.869
82767SOL     OW50133   4.348   1.287   5.478
82767SOL    HW150134   4.385   1.344   5.410
82767SOL    HW250135   4.404   1.209   5.477
82768SOL     OW50136  10.825   2.635   2.067
82768SOL    HW150137  10.919   2.648   2.063
82768SOL    HW250138  10.789   2.724   2.077
82769SOL     OW50139   3.750   2.811   2.772
82769SOL    HW150140   3.783   2.726   2.801
82769SOL    HW250141   3.827   2.858   2.740
82770SOL     OW50142  10.498   4.418   9.530
82770SOL    HW150143  10.574   4.360   9.536
82770SOL    HW250144  10.422   4.362   9.542
82771SOL     OW50145  14.750  12.989  12.410
82771SOL    HW150146  14.829  13.029  12.444
82771SOL    HW250147  14.683  13.057  12.416
82772SOL     OW50148   8.459  12.123  11.892
82772SOL    HW150149   8.511  12.112  11.972
82772SOL    HW250150   8.456  12.036  11.853
82773SOL     OW50151   0.247   6.438  10.311
82773SOL    HW150152   0.243   6.533  10.303
82773SOL    HW250153   0.208   6.405  10.230
82774SOL     OW50154   1.158  12.961   2.538
82774SOL    HW150155   1.101  13.029   2.500
82774SOL    HW250156   1.153  12.976   2.632
82775SOL     OW50157   8.246  14.736  13.124
82775SOL    HW150158   8.330  14.690  13.122
82775SOL    HW250159   8.187  14.675  13.169
82776SOL     OW50160   9.533  13.035   7.750
82776SOL    HW150161   9.518  12.947   7.714
82776SOL    HW250162   9.527  13.093   7.674
82777SOL     OW50163   5.495   8.232  10.716
82777SOL    HW150164   5.436   8.222  10.641
82777SOL    HW250165   5.530   8.320  10.708
82778SOL     OW50166  13.221  13.992   8.481
82778SOL    HW150167  13.269  13.912   8.503
82778SOL    HW250168  13.215  13.991   8.386
82779SOL     OW50169  10.149  10.587  12.136
82779SOL    HW150170  10.066  10.584  12.183
82779SOL    HW250171  10.185  10.673  12.157
82780SOL     OW50172   9.170  13.994  11.437
82780SOL    HW150173   9.105  13.929  11.461
82780SOL    HW250174   9.251  13.962  11.477
82781SOL     OW50175   9.634  12.919   2.765
82781SOL    HW150176   9.589  12.935   2.848
82781SOL    HW250177   9.668  13.005   2.740
82782SOL     OW50178   8.293   4.500   2.666
82782SOL    HW150179   8.223   4.517   2.603
82782SOL    HW250180   8.301   4.581   2.715
82783SOL     OW50181   5.101  11.395   3.110
82783SOL    HW150182   5.129  11.370   3.197
82783SOL    HW250183   5.092  11.491   3.114
82784SOL     OW50184   4.165  14.581  13.714
82784SOL    HW150185   4.202  14.631  13.787
82784SOL    HW250186   4.215  14.611  13.637
82785SOL     OW50187   1.309  12.536  14.021
82785SOL    HW150188   1.333  12.445  14.005
82785SOL    HW250189   1.215  12.535  14.036
82786SOL     OW50190  12.377   1.106  13.894
82786SOL    HW150191  12.315   1.146  13.834
82786SOL    HW250192  12.380   1.014  13.869
82787SOL     OW50193  12.110   9.679   7.797
82787SOL    HW150194  12.107   9.773   7.778
82787SOL    HW250195  12.027   9.645   7.765
82788SOL     OW50196  10.438  14.127   1.715
82788SOL    HW150197  10.364  14.145   1.773
82788SOL    HW250198  10.502  14.083   1.771
82789SOL     OW50199   3.259  12.364   6.645
82789SOL    HW150200   3.214  12.420   6.581
82789SOL    HW250201   3.315  12.424   6.694
82790SOL     OW50202  10.924  14.446   0.351
82790SOL    HW150203  10.883  14.530   0.330
82790SOL    HW250204  10.854  14.382   0.344
82791SOL     OW50205  11.774   2.878  12.095
82791SOL    HW150206  11.852   2.895  12.043
82791SOL    HW250207  11.807   2.862  12.184
82792SOL     OW50208  12.111  13.640   1.613
82792SOL    HW150209  12.030  13.636   1.665
82792SOL    HW250210  12.181  13.628   1.678
82793SOL     OW50211   0.896  11.041   6.313
82793SOL    HW150212   0.857  11.054   6.399
82793SOL    HW250213   0.878  10.949   6.293
82794SOL     OW50214   1.138   2.447  13.392
82794SOL    HW150215   1.196   2.421  13.320
82794SOL    HW250216   1.069   2.381  13.391
82795SOL     OW50217   3.421   1.392   3.949
82795SOL    HW150218   3.368   1.356   3.877
82795SOL    HW250219   3.459   1.472   3.913
82796SOL     OW50220  13.659   9.621  14.248
82796SOL    HW150221  13.626   9.553  14.307
82796SOL    HW250222  13.583   9.646  14.195
82797SOL     OW50223   5.923   1.364   9.602
82797SOL    HW150224   5.837   1.356   9.644
82797SOL    HW250225   5.968   1.432   9.653
82798SOL     OW50226  11.220   6.001  14.454
82798SOL    HW150227  11.238   5.929  14.393
82798SOL    HW250228  11.245   5.966  14.540
82799SOL     OW50229   0.922   1.816   6.975
82799SOL    HW150230   0.997   1.875   6.985
82799SOL    HW250231   0.847   1.868   7.002
82800SOL     OW50232   8.222   8.826   8.585
82800SOL    HW150233   8.310   8.862   8.590
82800SOL    HW250234   8.226   8.760   8.516
82801SOL     OW50235   7.491   0.016  11.037
82801SOL    HW150236   7.585   0.024  11.022
82801SOL    HW250237   7.451   0.041  10.953
82802SOL     OW50238  12.502  11.110   1.395
82802SOL    HW150239  12.429  11.063   1.355
82802SOL    HW250240  12.489  11.099   1.489
82803SOL     OW50241   3.819   2.146   4.119
82803SOL    HW150242   3.850   2.161   4.030
82803SOL    HW250243   3.726   2.127   4.110
82804SOL     OW50244   9.428  11.050  14.641
82804SOL    HW150245   9.340  11.035  14.608
82804SOL    HW250246   9.460  11.125  14.590
82805SOL     OW50247  11.560   4.595  14.406
82805SOL    HW150248  11.588   4.674  14.360
82805SOL    HW250249  11.618   4.527  14.374
82806SOL     OW50250   7.036   9.321   7.242
82806SOL    HW150251   7.056   9.300   7.151
82806SOL    HW250252   6.994   9.407   7.238
82807SOL     OW50253   3.115   1.437   8.040
82807SOL    HW150254   3.077   1.521   8.015
82807SOL    HW250255   3.079   1.419   8.127
82808SOL     OW50256   6.161  14.643  11.072
82808SOL    HW150257   6.195  14.726  11.105
82808SOL    HW250258   6.119  14.602  11.148
82809SOL     OW50259   8.887   1.423   3.213
82809SOL    HW150260   8.900   1.356   3.280
82809SOL    HW250261   8.911   1.379   3.131
82810SOL     OW50262   8.494  12.072   7.606
82810SOL    HW150263   8.567  12.134   7.617
82810SOL    HW250264   8.489  12.059   7.511
82811SOL     OW50265  13.052   3.724  10.945
82811SOL    HW150266  13.142   3.701  10.921
82811SOL    HW250267  13.013   3.756  10.864
82812SOL     OW50268  10.484  14.294  10.831
82812SOL    HW150269  10.406  14.302  10.885
82812SOL    HW250270  10.533  14.375  10.846
82813SOL     OW50271  13.538   3.084   0.487
82813SOL    HW150272  13.456   3.118   0.452
82813SOL    HW250273  13.554   3.135   0.566
82814SOL     OW50274  14.144  14.315   4.246
82814SOL    HW150275  14.143  14.381   4.176
82814SOL    HW250276  14.062  14.329   4.294
82815SOL     OW50277   8.071   3.575   9.465
82815SOL    HW150278   8.160   3.568   9.430
82815SOL    HW250279   8.051   3.487   9.496
82816SOL     OW50280   8.526   6.911   3.448
82816SOL    HW150281   8.604   6.938   3.401
82816SOL    HW250282   8.516   6.976   3.518
82817SOL     OW50283   0.920   1.815   1.364
82817SOL    HW150284   0.951   1.894   1.321
82817SOL    HW250285   0.924   1.747   1.296
82818SOL     OW50286   3.363   1.179   7.412
82818SOL    HW150287   3.413   1.101   7.436
82818SOL    HW250288   3.274   1.161   7.443
82819SOL     OW50289   3.892  11.489  12.544
82819SOL    HW150290   3.898  11.432  12.467
82819SOL    HW250291   3.973  11.473  12.591
82820SOL     OW50292   8.240  13.646   9.891
82820SOL    HW150293   8.266  13.659   9.799
82820SOL    HW250294   8.213  13.732   9.920
82821SOL     OW50295   5.890   5.914  13.813
82821SOL    HW150296   5.926   5.826  13.798
82821SOL    HW250297   5.959   5.973  13.781
82822SOL     OW50298   9.270   9.223   2.015
82822SOL    HW150299   9.361   9.201   2.033
82822SOL    HW250300   9.240   9.266   2.095
82823SOL     OW50301   0.799   7.596  14.410
82823SOL    HW150302   0.717   7.645  14.411
82823SOL    HW250303   0.789   7.530  14.479
82824SOL     OW50304   8.205   0.605  14.096
82824SOL    HW150305   8.295   0.638  14.099
82824SOL    HW250306   8.202   0.539  14.166
82825SOL     OW50307  12.024   8.559  10.760
82825SOL    HW150308  12.018   8.641  10.710
82825SOL    HW250309  12.092   8.509  10.715
82826SOL     OW50310  10.290   1.522  12.117
82826SOL    HW150311  10.364   1.490  12.065
82826SOL    HW250312  10.327   1.539  12.203
82827SOL     OW50313   1.042   0.343  14.708
82827SOL    HW150314   0.983   0.278  14.747
82827SOL    HW250315   1.073   0.301  14.627
82828SOL     OW50316   9.484   2.916   1.167
82828SOL    HW150317   9.444   2.843   1.215
82828SOL    HW250318   9.533   2.874   1.097
82829SOL     OW50319   1.114   7.039   6.801
82829SOL    HW150320   1.088   7.123   6.839
82829SOL    HW250321   1.209   7.047   6.789
82830SOL     OW50322   1.495  14.164  10.256
82830SOL    HW150323   1.583  14.193  10.230
82830SOL    HW250324   1.497  14.167  10.352
82831SOL     OW50325   4.404  11.945  13.324
82831SOL    HW150326   4.309  11.942  13.314
82831SOL    HW250327   4.422  11.902  13.407
82832SOL     OW50328  10.290  12.158  12.714
82832SOL    HW150329  10.197  12.180  12.713
82832SOL    HW250330  10.324  12.195  12.633
82833SOL     OW50331  10.438   3.747   0.630
82833SOL    HW150332  10.359   3.757   0.577
82833SOL    HW250333  10.509   3.769   0.571
82834SOL     OW50334  10.866  12.183  10.029
82834SOL    HW150335  10.815  12.249   9.982
82834SOL    HW250336  10.957  12.214  10.022
82835SOL     OW50337   6.121  14.567  13.013
82835SOL    HW150338   6.035  14.606  13.026
82835SOL    HW250339   6.117  14.484  13.061
82836SOL     OW50340   6.686   3.966   5.900
82836SOL    HW150341   6.672   3.884   5.949
82836SOL    HW250342   6.696   3.938   5.809
82837SOL     OW50343   0.572  11.493  11.056
82837SOL    HW150344   0.545  11.550  11.129
82837SOL    HW250345   0.499  11.433  11.044
82838SOL     OW50346   3.190   5.274   9.684
82838SOL    HW150347   3.209   5.307   9.772
82838SOL    HW250348   3.190   5.352   9.629
82839SOL     OW50349  10.617   5.379   1.108
82839SOL    HW150350  10.668   5.319   1.054
82839SOL    HW250351  10.549   5.412   1.049
82840SOL     OW50352   6.677   1.267  14.068
82840SOL    HW150353   6.704   1.218  13.990
82840SOL    HW250354   6.695   1.209  14.141
82841SOL     OW50355  14.480   7.639  12.130
82841SOL    HW150356  14.469   7.655  12.224
82841SOL    HW250357  14.482   7.544  12.122
82842SOL     OW50358   7.225   4.514   6.801
82842SOL    HW150359   7.214   4.562   6.718
82842SOL    HW250360   7.300   4.457   6.786
82843SOL     OW50361  10.872   1.507   1.627
82843SOL    HW150362  10.857   1.595   1.660
82843SOL    HW250363  10.825   1.504   1.543
82844SOL     OW50364   3.313   5.228  11.900
82844SOL    HW150365   3.261   5.209  11.821
82844SOL    HW250366   3.369   5.302  11.875
82845SOL     OW50367   1.550  13.537   1.341
82845SOL    HW150368   1.508  13.586   1.271
82845SOL    HW250369   1.479  13.511   1.399
82846SOL     OW50370  13.246  11.718   5.325
82846SOL    HW150371  13.181  11.779   5.290
82846SOL    HW250372  13.251  11.648   5.260
82847SOL     OW50373   3.911   6.032  11.695
82847SOL    HW150374   3.940   6.121  11.677
82847SOL    HW250375   3.873   6.036  11.783
82848SOL     OW50376   1.147   8.333  12.387
82848SOL    HW150377   1.057   8.309  12.366
82848SOL    HW250378   1.147   8.429  12.385
82849SOL     OW50379   1.937   9.015  13.368
82849SOL    HW150380   1.940   8.920  13.357
82849SOL    HW250381   2.010   9.047  13.316
82850SOL     OW50382   2.729  11.164  11.425
82850SOL    HW150383   2.706  11.241  11.373
82850SOL    HW250384   2.746  11.199  11.513
82851SOL     OW50385  11.212  12.719   5.082
82851SOL    HW150386  11.147  12.654   5.111
82851SOL    HW250387  11.291  12.668   5.066
82852SOL     OW50388   7.504  10.376   1.805
82852SOL    HW150389   7.411  10.355   1.800
82852SOL    HW250390   7.548  10.307   1.756
82853SOL     OW50391  10.672   8.422   8.977
82853SOL    HW150392  10.682   8.383   8.890
82853SOL    HW250393  10.629   8.507   8.959
82854SOL     OW50394  12.524   9.139   0.600
82854SOL    HW150395  12.536   9.056   0.645
82854SOL    HW250396  12.588   9.198   0.640
82855SOL     OW50397   4.818   0.843   4.909
82855SOL    HW150398   4.877   0.769   4.922
82855SOL    HW250399   4.868   0.920   4.936
82856SOL     OW50400   1.134  10.348  10.453
82856SOL    HW150401   1.166  10.421  10.399
82856SOL    HW250402   1.190  10.350  10.531
82857SOL     OW50403   1.242   3.881   9.142
82857SOL    HW150404   1.185   3.939   9.091
82857SOL    HW250405   1.261   3.809   9.082
82858SOL     OW50406   6.733  12.825  11.404
82858SOL    HW150407   6.787  12.799  11.329
82858SOL    HW250408   6.726  12.746  11.457
82859SOL     OW50409   2.778   0.602   1.892
82859SOL    HW150410   2.695   0.571   1.855
82859SOL    HW250411   2.831   0.523   1.902
82860SOL     OW50412   8.887  11.284  13.005
82860SOL    HW150413   8.901  11.217  13.072
82860SOL    HW250414   8.813  11.335  13.038
82861SOL     OW50415  14.369  10.992   9.427
82861SOL    HW150416  14.278  10.963   9.415
82861SOL    HW250417  14.387  10.974   9.519
82862SOL     OW50418  13.643   3.788   9.240
82862SOL    HW150419  13.572   3.826   9.188
82862SOL    HW250420  13.610   3.788   9.329
82863SOL     OW50421   1.072   3.965  13.959
82863SOL    HW150422   1.155   4.006  13.983
82863SOL    HW250423   1.078   3.953  13.864
82864SOL     OW50424   1.615   5.089  12.438
82864SOL    HW150425   1.654   5.003  12.458
82864SOL    HW250426   1.659   5.117  12.358
82865SOL     OW50427   8.683  14.366   5.377
82865SOL    HW150428   8.616  14.321   5.429
82865SOL    HW250429   8.673  14.330   5.289
82866SOL     OW50430   1.242  12.844   0.396
82866SOL    HW150431   1.296  12.888   0.463
82866SOL    HW250432   1.172  12.802   0.446
82867SOL     OW50433   2.694  14.628  12.413
82867SOL    HW150434   2.781  14.659  12.439
82867SOL    HW250435   2.651  14.603  12.495
82868SOL     OW50436   2.782   2.153   0.541
82868SOL    HW150437   2.838   2.209   0.487
82868SOL    HW250438   2.704   2.206   0.557
82869SOL     OW50439   0.379   6.102   8.021
82869SOL    HW150440   0.389   6.194   8.044
82869SOL    HW250441   0.467   6.065   8.034
82870SOL     OW50442   0.661  14.775  10.100
82870SOL    HW150443   0.573  14.809  10.084
82870SOL    HW250444   0.694  14.754  10.013
82871SOL     OW50445   8.775   4.277   1.769
82871SOL    HW150446   8.803   4.311   1.854
82871SOL    HW250447   8.846   4.301   1.709
82872SOL     OW50448  11.254   5.609   2.342
82872SOL    HW150449  11.276   5.600   2.435
82872SOL    HW250450  11.222   5.522   2.316
82873SOL     OW50451  13.355   8.924   6.177
82873SOL    HW150452  13.285   8.968   6.226
82873SOL    HW250453  13.417   8.993   6.155
82874SOL     OW50454  10.462  12.365  11.013
82874SOL    HW150455  10.536  12.354  10.953
82874SOL    HW250456  10.409  12.434  10.975
82875SOL     OW50457   1.109  12.781   4.308
82875SOL    HW150458   1.019  12.814   4.317
82875SOL    HW250459   1.161  12.839   4.363
82876SOL     OW50460   9.673   9.029   5.493
82876SOL    HW150461   9.714   9.115   5.500
82876SOL    HW250462   9.637   9.013   5.581
82877SOL     OW50463   6.621   0.378   8.481
82877SOL    HW150464   6.613   0.284   8.494
82877SOL    HW250465   6.532   0.412   8.493
82878SOL     OW50466   8.490   9.419  10.692
82878SOL    HW150467   8.400   9.393  10.713
82878SOL    HW250468   8.529   9.441  10.777
82879SOL     OW50469   6.384   8.238   9.774
82879SOL    HW150470   6.401   8.144   9.773
82879SOL    HW250471   6.428   8.271   9.695
82880SOL     OW50472   9.106  12.838   0.259
82880SOL    HW150473   9.059  12.767   0.303
82880SOL    HW250474   9.044  12.870   0.193
82881SOL     OW50475   1.577   1.427   3.719
82881SOL    HW150476   1.555   1.395   3.632
82881SOL    HW250477   1.511   1.387   3.776
82882SOL     OW50478   7.362   6.244   8.820
82882SOL    HW150479   7.420   6.319   8.829
82882SOL    HW250480   7.292   6.259   8.883
82883SOL     OW50481  14.809   4.129   4.194
82883SOL    HW150482  14.820   4.184   4.116
82883SOL    HW250483   0.021   4.134   4.238
82884SOL     OW50484  11.470   1.592   6.224
82884SOL    HW150485  11.448   1.661   6.161
82884SOL    HW250486  11.447   1.630   6.309
82885SOL     OW50487  12.139  12.371   9.000
82885SOL    HW150488  12.092  12.338   9.076
82885SOL    HW250489  12.231  12.349   9.017
82886SOL     OW50490  12.803  11.209  12.080
82886SOL    HW150491  12.768  11.176  11.997
82886SOL    HW250492  12.858  11.138  12.113
82887SOL     OW50493   1.060  13.029   8.495
82887SOL    HW150494   1.009  12.949   8.484
82887SOL    HW250495   1.057  13.045   8.590
82888SOL     OW50496  12.981   5.171   5.832
82888SOL    HW150497  12.891   5.139   5.842
82888SOL    HW250498  13.004   5.204   5.919
82889SOL     OW50499  14.131  13.524   5.811
82889SOL    HW150500  14.216  13.481   5.817
82889SOL    HW250501  14.148  13.615   5.834
82890SOL     OW50502   0.414  10.985  14.403
82890SOL    HW150503   0.334  11.023  14.364
82890SOL    HW250504   0.436  10.912  14.345
82891SOL     OW50505  12.155   1.432   8.830
82891SOL    HW150506  12.228   1.374   8.812
82891SOL    HW250507  12.195   1.514   8.859
82892SOL     OW50508   9.418   0.077  12.388
82892SOL    HW150509   9.354   0.106  12.452
82892SOL    HW250510   9.495   0.132  12.405
82893SOL     OW50511   1.082   1.089   8.061
82893SOL    HW150512   0.995   1.064   8.030
82893SOL    HW250513   1.098   1.174   8.021
82894SOL     OW50514   3.786   8.245   8.381
82894SOL    HW150515   3.848   8.316   8.389
82894SOL    HW250516   3.720   8.277   8.319
82895SOL     OW50517   7.319   9.326  14.624
82895SOL    HW150518   7.373   9.263  14.671
82895SOL    HW250519   7.382   9.393  14.595
82896SOL     OW50520   3.707   4.445   1.288
82896SOL    HW150521   3.792   4.465   1.327
82896SOL    HW250522   3.652   4.418   1.362
82897SOL     OW50523   5.215   6.147   9.192
82897SOL    HW150524   5.178   6.120   9.277
82897SOL    HW250525   5.209   6.069   9.138
82898SOL     OW50526  11.123   0.490   3.826
82898SOL    HW150527  11.158   0.550   3.760
82898SOL    HW250528  11.170   0.513   3.906
82899SOL     OW50529  12.677  11.884   3.896
82899SOL    HW150530  12.646  11.926   3.976
82899SOL    HW250531  12.746  11.824   3.925
82900SOL     OW50532  14.454  11.455   0.697
82900SOL    HW150533  14.380  11.395   0.693
82900SOL    HW250534  14.471  11.479   0.606
82901SOL     OW50535   6.822  11.012   3.832
82901SOL    HW150536   6.819  11.052   3.745
82901SOL    HW250537   6.867  11.076   3.887
82902SOL     OW50538   8.739  12.403  11.364
82902SOL    HW150539   8.760  12.364  11.449
82902SOL    HW250540   8.803  12.473  11.354
82903SOL     OW50541  12.434   4.797  13.264
82903SOL    HW150542  12.470   4.872  13.311
82903SOL    HW250543  12.493   4.725  13.286
82904SOL     OW50544   7.884   8.257   6.998
82904SOL    HW150545   7.887   8.174   7.046
82904SOL    HW250546   7.972   8.268   6.962
82905SOL     OW50547   1.402   0.330   6.688
82905SOL    HW150548   1.436   0.263   6.629
82905SOL    HW250549   1.316   0.297   6.715
82906SOL     OW50550   8.718   9.546   0.162
82906SOL    HW150551   8.758   9.561   0.248
82906SOL    HW250552   8.769   9.601   0.103
82907SOL     OW50553  10.215  11.946   7.081
82907SOL    HW150554  10.254  11.881   7.139
82907SOL    HW250555  10.127  11.915   7.064
82908SOL     OW50556  10.226   2.351   7.346
82908SOL    HW150557  10.253   2.278   7.290
82908SOL    HW250558  10.190   2.415   7.285
82909SOL     OW50559   7.459  13.779   5.533
82909SOL    HW150560   7.527  13.738   5.586
82909SOL    HW250561   7.381  13.725   5.547
82910SOL     OW50562   7.994   6.568  11.749
82910SOL    HW150563   8.017   6.593  11.838
82910SOL    HW250564   7.898   6.570  11.748
82911SOL     OW50565   4.740   5.830  13.997
82911SOL    HW150566   4.665   5.828  14.055
82911SOL    HW250567   4.798   5.761  14.029
82912SOL     OW50568   1.267   2.498   5.913
82912SOL    HW150569   1.234   2.445   5.841
82912SOL    HW250570   1.347   2.453   5.941
82913SOL     OW50571   9.761  12.793  13.611
82913SOL    HW150572   9.823  12.839  13.554
82913SOL    HW250573   9.676  12.805  13.567
82914SOL     OW50574  11.355   3.707   4.243
82914SOL    HW150575  11.384   3.616   4.233
82914SOL    HW250576  11.360   3.724   4.337
82915SOL     OW50577   0.967   6.323   7.371
82915SOL    HW150578   0.892   6.278   7.411
82915SOL    HW250579   0.929   6.372   7.299
82916SOL     OW50580   3.730   3.586   3.192
82916SOL    HW150581   3.819   3.571   3.160
82916SOL    HW250582   3.742   3.639   3.271
82917SOL     OW50583   4.627   4.773   6.761
82917SOL    HW150584   4.551   4.727   6.727
82917SOL    HW250585   4.652   4.723   6.839
82918SOL     OW50586   5.829   4.856   8.270
82918SOL    HW150587   5.818   4.815   8.184
82918SOL    HW250588   5.851   4.784   8.328
82919SOL     OW50589   2.852  14.632  10.742
82919SOL    HW150590   2.782  14.695  10.757
82919SOL    HW250591   2.903  14.632  10.823
82920SOL     OW50592   9.382  12.643   2.233
82920SOL    HW150593   9.418  12.554   2.239
82920SOL    HW250594   9.417  12.688   2.311
82921SOL     OW50595  10.904  13.691  10.710
82921SOL    HW150596  10.885  13.628  10.780
82921SOL    HW250597  10.819  13.727  10.686
82922SOL     OW50598   1.870   9.146   4.669
82922SOL    HW150599   1.889   9.210   4.600
82922SOL    HW250600   1.923   9.070   4.647
82923SOL     OW50601   1.640  13.627   4.798
82923SOL    HW150602   1.671  13.677   4.874
82923SOL    HW250603   1.642  13.536   4.827
82924SOL     OW50604  10.437   0.296   6.864
82924SOL    HW150605  10.360   0.255   6.826
82924SOL    HW250606  10.509   0.236   6.846
82925SOL     OW50607  11.558   6.531   0.620
82925SOL    HW150608  11.514   6.472   0.682
82925SOL    HW250609  11.541   6.619   0.654
82926SOL     OW50610   4.223   9.496   9.778
82926SOL    HW150611   4.297   9.458   9.825
82926SOL    HW250612   4.228   9.590   9.798
82927SOL     OW50613  14.514   6.081   6.938
82927SOL    HW150614  14.544   6.039   7.019
82927SOL    HW250615  14.508   6.009   6.875
82928SOL     OW50616   7.166  13.945  12.533
82928SOL    HW150617   7.115  13.974  12.457
82928SOL    HW250618   7.210  13.865  12.504
82929SOL     OW50619   9.793  12.873   8.510
82929SOL    HW150620   9.853  12.948   8.514
82929SOL    HW250621   9.793  12.837   8.599
82930SOL     OW50622   1.730   5.673   9.028
82930SOL    HW150623   1.729   5.584   9.064
82930SOL    HW250624   1.737   5.729   9.105
82931SOL     OW50625   7.124  13.025   1.469
82931SOL    HW150626   7.078  13.015   1.552
82931SOL    HW250627   7.055  13.028   1.403
82932SOL     OW50628   8.931  13.536   2.992
82932SOL    HW150629   8.918  13.622   3.031
82932SOL    HW250630   9.025  13.523   2.991
82933SOL     OW50631   7.491   2.044   1.451
82933SOL    HW150632   7.533   2.127   1.472
82933SOL    HW250633   7.553   2.000   1.393
82934SOL     OW50634   7.616   2.784   0.961
82934SOL    HW150635   7.628   2.693   0.937
82934SOL    HW250636   7.604   2.783   1.056
82935SOL     OW50637   1.862   2.172   8.967
82935SOL    HW150638   1.927   2.233   9.001
82935SOL    HW250639   1.913   2.103   8.925
82936SOL     OW50640  13.424   8.570   8.554
82936SOL    HW150641  13.386   8.548   8.468
82936SOL    HW250642  13.516   8.546   8.546
82937SOL     OW50643   3.170  13.664   1.374
82937SOL    HW150644   3.155  13.626   1.461
82937SOL    HW250645   3.124  13.749   1.378
82938SOL     OW50646  10.840  12.918  12.201
82938SOL    HW150647  10.908  12.851  12.194
82938SOL    HW250648  10.886  12.994  12.235
82939SOL     OW50649  13.629  11.888  12.563
82939SOL    HW150650  13.552  11.945  12.555
82939SOL    HW250651  13.618  11.844  12.647
82940SOL     OW50652   9.787  13.582   4.252
82940SOL    HW150653   9.837  13.664   4.251
82940SOL    HW250654   9.838  13.522   4.198
82941SOL     OW50655  10.992   1.180   0.461
82941SOL    HW150656  10.911   1.139   0.491
82941SOL    HW250657  11.041   1.197   0.542
82942SOL     OW50658   9.142   7.195   6.644
82942SOL    HW150659   9.125   7.158   6.557
82942SOL    HW250660   9.175   7.121   6.695
82943SOL     OW50661   0.278   8.255   2.966
82943SOL    HW150662   0.205   8.313   2.943
82943SOL    HW250663   0.356   8.305   2.944
82944SOL     OW50664   8.068   2.429  11.271
82944SOL    HW150665   7.997   2.372  11.301
82944SOL    HW250666   8.076   2.495  11.340
82945SOL     OW50667   8.193  10.252   2.834
82945SOL    HW150668   8.109  10.221   2.869
82945SOL    HW250669   8.222  10.318   2.897
82946SOL     OW50670   1.371   5.927   9.495
82946SOL    HW150671   1.348   5.860   9.430
82946SOL    HW250672   1.369   6.009   9.445
82947SOL     OW50673  11.229   5.699   6.329
82947SOL    HW150674  11.287   5.689   6.254
82947SOL    HW250675  11.148   5.736   6.293
82948SOL     OW50676   9.648  14.044  14.820
82948SOL    HW150677   9.686  13.985   0.013
82948SOL    HW250678   9.598  13.986  14.763
82949SOL     OW50679   9.715   3.598  11.302
82949SOL    HW150680   9.808   3.581  11.290
82949SOL    HW250681   9.711   3.673  11.361
82950SOL     OW50682   8.044   0.640   8.680
82950SOL    HW150683   8.094   0.720   8.695
82950SOL    HW250684   7.956   0.659   8.714
82951SOL     OW50685  10.586   6.095   9.822
82951SOL    HW150686  10.492   6.090   9.833
82951SOL    HW250687  10.620   6.117   9.909
82952SOL     OW50688   7.394  10.247  11.009
82952SOL    HW150689   7.485  10.228  11.032
82952SOL    HW250690   7.360  10.293  11.085
82953SOL     OW50691   8.679   6.295   7.104
82953SOL    HW150692   8.631   6.378   7.107
82953SOL    HW250693   8.612   6.229   7.081
82954SOL     OW50694   6.390  14.631   6.123
82954SOL    HW150695   6.450  14.657   6.193
82954SOL    HW250696   6.317  14.693   6.130
82955SOL     OW50697  12.924   5.321   9.092
82955SOL    HW150698  12.901   5.233   9.121
82955SOL    HW250699  12.868   5.337   9.015
82956SOL     OW50700  12.702  13.091  12.600
82956SOL    HW150701  12.611  13.072  12.625
82956SOL    HW250702  12.703  13.186  12.585
82957SOL     OW50703   5.713  10.264  12.182
82957SOL    HW150704   5.679  10.312  12.257
82957SOL    HW250705   5.656  10.187  12.175
82958SOL     OW50706   1.702  10.268   1.932
82958SOL    HW150707   1.724  10.175   1.924
82958SOL    HW250708   1.738  10.294   2.017
82959SOL     OW50709  14.057   7.604  13.440
82959SOL    HW150710  14.086   7.689  13.407
82959SOL    HW250711  14.010   7.564  13.366
82960SOL     OW50712   9.360   3.194   2.457
82960SOL    HW150713   9.453   3.208   2.440
82960SOL    HW250714   9.315   3.252   2.397
82961SOL     OW50715   4.879   0.530   3.256
82961SOL    HW150716   4.814   0.471   3.294
82961SOL    HW250717   4.868   0.612   3.304
82962SOL     OW50718   6.623   2.778   6.869
82962SOL    HW150719   6.560   2.705   6.870
82962SOL    HW250720   6.705   2.737   6.843
82963SOL     OW50721   5.231   3.064  13.341
82963SOL    HW150722   5.262   3.039  13.253
82963SOL    HW250723   5.144   3.101  13.326
82964SOL     OW50724   7.566  12.528  14.051
82964SOL    HW150725   7.521  12.444  14.063
82964SOL    HW250726   7.614  12.541  14.133
82965SOL     OW50727   7.217  14.461  12.200
82965SOL    HW150728   7.147  14.492  12.142
82965SOL    HW250729   7.177  14.391  12.251
82966SOL     OW50730  10.068   4.325  12.748
82966SOL    HW150731   9.999   4.371  12.700
82966SOL    HW250732  10.059   4.356  12.838
82967SOL     OW50733  10.425   0.315   4.435
82967SOL    HW150734  10.457   0.316   4.344
82967SOL    HW250735  10.504   0.327   4.488
82968SOL     OW50736   6.567  11.930  13.369
82968SOL    HW150737   6.549  12.013  13.412
82968SOL    HW250738   6.653  11.904  13.400
82969SOL     OW50739   1.571   5.015  13.757
82969SOL    HW150740   1.618   5.012  13.673
82969SOL    HW250741   1.481   4.991  13.735
82970SOL     OW50742  11.431   6.795   2.009
82970SOL    HW150743  11.384   6.822   2.088
82970SOL    HW250744  11.417   6.700   2.005
82971SOL     OW50745  13.567   3.350  11.043
82971SOL    HW150746  13.618   3.379  11.119
82971SOL    HW250747  13.630   3.349  10.971
82972SOL     OW50748  12.055   4.293   2.861
82972SOL    HW150749  12.052   4.372   2.808
82972SOL    HW250750  12.117   4.313   2.931
82973SOL     OW50751  14.707   5.973   5.971
82973SOL    HW150752  14.773   6.032   6.007
82973SOL    HW250753  14.628   5.990   6.023
82974SOL     OW50754  10.455   0.543  13.233
82974SOL    HW150755  10.551   0.539  13.229
82974SOL    HW250756  10.433   0.627  13.195
82975SOL     OW50757   3.655   9.126  12.911
82975SOL    HW150758   3.716   9.090  12.976
82975SOL    HW250759   3.610   9.049  12.875
82976SOL     OW50760  10.158   2.944   0.745
82976SOL    HW150761  10.251   2.966   0.736
82976SOL    HW250762  10.150   2.911   0.835
82977SOL     OW50763   4.768   8.809   1.586
82977SOL    HW150764   4.722   8.745   1.530
82977SOL    HW250765   4.704   8.879   1.598
82978SOL     OW50766   3.432   9.433  10.420
82978SOL    HW150767   3.406   9.432  10.328
82978SOL    HW250768   3.422   9.343  10.450
82979SOL     OW50769   2.774  13.116   8.790
82979SOL    HW150770   2.813  13.051   8.849
82979SOL    HW250771   2.772  13.197   8.841
82980SOL     OW50772  10.621   9.102   8.269
82980SOL    HW150773  10.680   9.169   8.235
82980SOL    HW250774  10.552   9.094   8.204
82981SOL     OW50775   2.380   5.159  12.443
82981SOL    HW150776   2.362   5.234  12.387
82981SOL    HW250777   2.408   5.197  12.526
82982SOL     OW50778   5.429  14.425   0.405
82982SOL    HW150779   5.335  14.430   0.419
82982SOL    HW250780   5.440  14.440   0.311
82983SOL     OW50781   2.273   8.305  12.670
82983SOL    HW150782   2.218   8.230  12.646
82983SOL    HW250783   2.351   8.295  12.616
82984SOL     OW50784   9.072   3.546   1.548
82984SOL    HW150785   9.025   3.626   1.571
82984SOL    HW250786   9.014   3.475   1.574
82985SOL     OW50787  12.293   3.918   6.234
82985SOL    HW150788  12.223   3.871   6.187
82985SOL    HW250789  12.369   3.860   6.229
82986SOL     OW50790  13.799   2.393   0.764
82986SOL    HW150791  13.816   2.442   0.845
82986SOL    HW250792  13.757   2.313   0.792
82987SOL     OW50793   3.145   9.874  14.117
82987SOL    HW150794   3.185   9.941  14.174
82987SOL    HW250795   3.157   9.792  14.165
82988SOL     OW50796   0.744   8.701   3.636
82988SOL    HW150797   0.679   8.767   3.662
82988SOL    HW250798   0.692   8.623   3.618
82989SOL     OW50799   9.809   5.307   9.270
82989SOL    HW150800   9.767   5.226   9.245
82989SOL    HW250801   9.885   5.280   9.322
82990SOL     OW50802   6.271   2.477  14.845
82990SOL    HW150803   6.293   2.557  14.798
82990SOL    HW250804   6.207   2.433  14.789
82991SOL     OW50805   8.844  11.855   3.630
82991SOL    HW150806   8.861  11.782   3.690
82991SOL    HW250807   8.835  11.813   3.545
82992SOL     OW50808   6.678   6.441  13.653
82992SOL    HW150809   6.646   6.420  13.566
82992SOL    HW250810   6.608   6.412  13.712
82993SOL     OW50811   2.888  10.889   7.764
82993SOL    HW150812   2.945  10.827   7.719
82993SOL    HW250813   2.818  10.835   7.801
82994SOL     OW50814   9.227   6.789   4.275
82994SOL    HW150815   9.255   6.728   4.207
82994SOL    HW250816   9.132   6.797   4.262
82995SOL     OW50817  13.607   4.462  13.579
82995SOL    HW150818  13.682   4.432  13.528
82995SOL    HW250819  13.644   4.488  13.663
82996SOL     OW50820   0.194   5.475   8.286
82996SOL    HW150821   0.141   5.444   8.212
82996SOL    HW250822   0.130   5.506   8.350
82997SOL     OW50823   9.823   8.343  12.129
82997SOL    HW150824   9.807   8.320  12.038
82997SOL    HW250825   9.737   8.335  12.171
82998SOL     OW50826  12.585  13.301   8.889
82998SOL    HW150827  12.490  13.312   8.889
82998SOL    HW250828  12.598  13.206   8.883
82999SOL     OW50829   1.966  10.880   2.635
82999SOL    HW150830   1.902  10.917   2.696
82999SOL    HW250831   1.981  10.949   2.571
83000SOL     OW50832  10.438  13.115  12.309
83000SOL    HW150833  10.504  13.078  12.368
83000SOL    HW250834  10.433  13.207  12.333
83001SOL     OW50835  10.619   9.747  12.469
83001SOL    HW150836  10.583   9.726  12.555
83001SOL    HW250837  10.564   9.699  12.407
83002SOL     OW50838  11.958  11.849   3.880
83002SOL    HW150839  11.863  11.851   3.889
83002SOL    HW250840  11.990  11.868   3.969
83003SOL     OW50841   5.449   9.513  10.510
83003SOL    HW150842   5.506   9.554  10.446
83003SOL    HW250843   5.462   9.419  10.496
83004SOL     OW50844   2.549   4.030  12.243
83004SOL    HW150845   2.616   4.057  12.306
83004SOL    HW250846   2.550   3.934  12.245
83005SOL     OW50847   4.949   2.562  14.580
83005SOL    HW150848   4.864   2.566  14.623
83005SOL    HW250849   5.011   2.592  14.646
83006SOL     OW50850   1.613   3.535  11.159
83006SOL    HW150851   1.532   3.490  11.135
83006SOL    HW250852   1.667   3.533  11.080
83007SOL     OW50853   6.742  10.202  10.984
83007SOL    HW150854   6.708  10.218  10.897
83007SOL    HW250855   6.749  10.289  11.024
83008SOL     OW50856   6.310  11.969   2.357
83008SOL    HW150857   6.310  12.050   2.307
83008SOL    HW250858   6.383  11.918   2.323
83009SOL     OW50859   9.760   7.701  11.147
83009SOL    HW150860   9.765   7.646  11.069
83009SOL    HW250861   9.778   7.641  11.219
83010SOL     OW50862  10.331   5.915   4.796
83010SOL    HW150863  10.379   5.926   4.878
83010SOL    HW250864  10.383   5.962   4.731
83011SOL     OW50865   5.680  10.682   5.590
83011SOL    HW150866   5.772  10.661   5.575
83011SOL    HW250867   5.644  10.602   5.629
83012SOL     OW50868  14.527   7.103   1.886
83012SOL    HW150869  14.574   7.084   1.805
83012SOL    HW250870  14.454   7.158   1.858
83013SOL     OW50871  12.697   5.055   0.626
83013SOL    HW150872  12.715   5.116   0.555
83013SOL    HW250873  12.688   5.110   0.704
83014SOL     OW50874  10.896   4.970   3.979
83014SOL    HW150875  10.853   4.918   4.046
83014SOL    HW250876  10.886   5.061   4.009
83015SOL     OW50877   5.717   0.903   8.091
83015SOL    HW150878   5.785   0.851   8.135
83015SOL    HW250879   5.663   0.838   8.046
83016SOL     OW50880  12.767   1.728  12.243
83016SOL    HW150881  12.735   1.804  12.193
83016SOL    HW250882  12.720   1.733  12.327
83017SOL     OW50883   4.117   2.986  12.338
83017SOL    HW150884   4.100   2.903  12.382
83017SOL    HW250885   4.057   3.048  12.378
83018SOL     OW50886   3.482   2.865  11.813
83018SOL    HW150887   3.432   2.906  11.742
83018SOL    HW250888   3.420   2.803  11.852
83019SOL     OW50889  13.659   6.147   3.079
83019SOL    HW150890  13.749   6.123   3.099
83019SOL    HW250891  13.661   6.243   3.070
83020SOL     OW50892   8.486   0.922   0.613
83020SOL    HW150893   8.534   0.904   0.694
83020SOL    HW250894   8.527   0.866   0.548
83021SOL     OW50895  10.368   4.339   3.848
83021SOL    HW150896  10.340   4.288   3.924
83021SOL    HW250897  10.287   4.370   3.808
83022SOL     OW50898   5.294   9.887   5.379
83022SOL    HW150899   5.364   9.852   5.435
83022SOL    HW250900   5.283   9.821   5.310
83023SOL     OW50901   9.457   4.742   9.663
83023SOL    HW150902   9.417   4.828   9.680
83023SOL    HW250903   9.548   4.763   9.639
83024SOL     OW50904   4.831   1.056   4.117
83024SOL    HW150905   4.854   0.980   4.064
83024SOL    HW250906   4.908   1.113   4.114
83025SOL     OW50907   8.312   0.549   8.556
83025SOL    HW150908   8.253   0.544   8.481
83025SOL    HW250909   8.259   0.589   8.625
83026SOL     OW50910   4.157   1.211   0.816
83026SOL    HW150911   4.151   1.272   0.890
83026SOL    HW250912   4.090   1.145   0.835
83027SOL     OW50913   6.871  12.954  12.796
83027SOL    HW150914   6.855  13.045  12.822
83027SOL    HW250915   6.883  12.958  12.701
83028SOL     OW50916   1.109   4.920   3.321
83028SOL    HW150917   1.157   5.002   3.331
83028SOL    HW250918   1.175   4.856   3.293
83029SOL     OW50919   9.995   5.843   8.242
83029SOL    HW150920   9.995   5.827   8.337
83029SOL    HW250921   9.909   5.813   8.214
83030SOL     OW50922  13.132   7.056  11.835
83030SOL    HW150923  13.168   7.142  11.812
83030SOL    HW250924  13.189   6.993  11.791
83031SOL     OW50925   3.460   8.558  12.669
83031SOL    HW150926   3.510   8.639  12.677
83031SOL    HW250927   3.523   8.493  12.640
83032SOL     OW50928  12.830   9.502   4.314
83032SOL    HW150929  12.920   9.531   4.325
83032SOL    HW250930  12.815   9.442   4.387
83033SOL     OW50931   5.926   9.799   4.931
83033SOL    HW150932   5.935   9.717   4.979
83033SOL    HW250933   5.917   9.772   4.839
83034SOL     OW50934   0.849   3.938   7.526
83034SOL    HW150935   0.787   3.966   7.593
83034SOL    HW250936   0.893   4.019   7.499
83035SOL     OW50937   3.186   6.862  12.502
83035SOL    HW150938   3.254   6.839  12.565
83035SOL    HW250939   3.136   6.932  12.545
83036SOL     OW50940   8.659   2.055   8.647
83036SOL    HW150941   8.669   1.966   8.615
83036SOL    HW250942   8.654   2.047   8.742
83037SOL     OW50943   4.865   4.015  12.652
83037SOL    HW150944   4.883   4.091  12.596
83037SOL    HW250945   4.892   3.940  12.599
83038SOL     OW50946   2.736  14.340   0.085
83038SOL    HW150947   2.764  14.396   0.157
83038SOL    HW250948   2.772  14.381   0.006
83039SOL     OW50949   5.903  11.735  10.659
83039SOL    HW150950   5.809  11.743  10.647
83039SOL    HW250951   5.916  11.648  10.695
83040SOL     OW50952   2.461   5.646  10.835
83040SOL    HW150953   2.505   5.569  10.869
83040SOL    HW250954   2.532   5.698  10.797
83041SOL     OW50955   6.559   0.008  12.725
83041SOL    HW150956   6.470   0.017  12.692
83041SOL    HW250957   6.610  14.850  12.649
83042SOL     OW50958   7.715   1.572   4.575
83042SOL    HW150959   7.703   1.486   4.536
83042SOL    HW250960   7.652   1.628   4.530
83043SOL     OW50961   9.364   4.359   7.122
83043SOL    HW150962   9.451   4.383   7.088
83043SOL    HW250963   9.315   4.334   7.044
83044SOL     OW50964  10.641   8.700   8.907
83044SOL    HW150965  10.720   8.677   8.858
83044SOL    HW250966  10.605   8.775   8.860
83045SOL     OW50967   5.727  10.499   1.569
83045SOL    HW150968   5.795  10.501   1.502
83045SOL    HW250969   5.681  10.582   1.559
83046SOL     OW50970   1.026   1.564   9.472
83046SOL    HW150971   1.049   1.546   9.564
83046SOL    HW250972   1.089   1.631   9.445
83047SOL     OW50973  14.520   2.572  13.559
83047SOL    HW150974  14.597   2.603  13.607
83047SOL    HW250975  14.536   2.479  13.544
83048SOL     OW50976   1.367  13.220   5.014
83048SOL    HW150977   1.445  13.165   5.013
83048SOL    HW250978   1.340  13.222   5.106
83049SOL     OW50979   8.424   9.771   5.615
83049SOL    HW150980   8.460   9.761   5.527
83049SOL    HW250981   8.391   9.684   5.637
83050SOL     OW50982   3.971   1.985  11.443
83050SOL    HW150983   3.883   1.974  11.480
83050SOL    HW250984   3.971   2.075  11.409
83051SOL     OW50985  12.119  12.436   2.024
83051SOL    HW150986  12.139  12.377   1.951
83051SOL    HW250987  12.199  12.436   2.077
83052SOL     OW50988  12.674   6.848   2.678
83052SOL    HW150989  12.647   6.907   2.608
83052SOL    HW250990  12.769   6.842   2.668
83053SOL     OW50991   7.670   9.770   6.936
83053SOL    HW150992   7.709   9.805   7.016
83053SOL    HW250993   7.712   9.684   6.925
83054SOL     OW50994  13.609   7.485  13.784
83054SOL    HW150995  13.686   7.447  13.826
83054SOL    HW250996  13.632   7.576  13.769
83055SOL     OW50997   8.642   1.559  13.616
83055SOL    HW150998   8.710   1.572  13.549
83055SOL    HW250999   8.625   1.647  13.649
83056SOL     OW51000  14.827   8.169   8.265
83056SOL    HW151001  14.837   8.074   8.259
83056SOL    HW251002  14.741   8.186   8.228
83057SOL     OW51003  13.050   6.836   3.387
83057SOL    HW151004  12.990   6.874   3.323
83057SOL    HW251005  13.062   6.905   3.453
83058SOL     OW51006  13.226   7.904   4.695
83058SOL    HW151007  13.287   7.907   4.769
83058SOL    HW251008  13.283   7.907   4.618
83059SOL     OW51009  12.089   8.228   3.770
83059SOL    HW151010  12.058   8.208   3.858
83059SOL    HW251011  12.029   8.181   3.712
83060SOL     OW51012   3.471  12.921   1.492
83060SOL    HW151013   3.463  12.889   1.402
83060SOL    HW251014   3.447  12.846   1.547
83061SOL     OW51015   3.601   5.552  13.533
83061SOL    HW151016   3.511   5.564  13.501
83061SOL    HW251017   3.656   5.576  13.459
83062SOL     OW51018   1.269   9.229   5.972
83062SOL    HW151019   1.213   9.165   5.926
83062SOL    HW251020   1.334   9.255   5.907
83063SOL     OW51021   6.036  10.282   0.139
83063SOL    HW151022   6.041  10.305   0.046
83063SOL    HW251023   5.949  10.242   0.149
83064SOL     OW51024   9.248   5.678   4.027
83064SOL    HW151025   9.169   5.675   4.081
83064SOL    HW251026   9.298   5.752   4.062
83065SOL     OW51027  11.215  11.361  13.437
83065SOL    HW151028  11.301  11.319  13.431
83065SOL    HW251029  11.189  11.349  13.529
83066SOL     OW51030   4.930   1.983  10.364
83066SOL    HW151031   4.865   1.937  10.310
83066SOL    HW251032   4.885   2.063  10.392
83067SOL     OW51033   5.669   6.792  11.156
83067SOL    HW151034   5.600   6.759  11.099
83067SOL    HW251035   5.747   6.743  11.129
83068SOL     OW51036  13.162  11.899  11.724
83068SOL    HW151037  13.139  11.812  11.757
83068SOL    HW251038  13.247  11.918  11.763
83069SOL     OW51039   6.288   8.014  10.682
83069SOL    HW151040   6.334   8.005  10.598
83069SOL    HW251041   6.345   7.974  10.746
83070SOL     OW51042   7.185   9.693   6.859
83070SOL    HW151043   7.262   9.750   6.858
83070SOL    HW251044   7.190   9.646   6.942
83071SOL     OW51045   8.020   3.890  10.625
83071SOL    HW151046   8.038   3.984  10.627
83071SOL    HW251047   7.932   3.884  10.588
83072SOL     OW51048  10.684  10.202   0.678
83072SOL    HW151049  10.693  10.126   0.735
83072SOL    HW251050  10.655  10.272   0.736
83073SOL     OW51051   5.138   4.005   2.106
83073SOL    HW151052   5.044   3.990   2.115
83073SOL    HW251053   5.154   4.003   2.012
83074SOL     OW51054   1.156   2.684   9.059
83074SOL    HW151055   1.071   2.640   9.056
83074SOL    HW251056   1.175   2.707   8.968
83075SOL     OW51057   2.710   6.890  10.680
83075SOL    HW151058   2.617   6.873  10.663
83075SOL    HW251059   2.732   6.833  10.753
83076SOL     OW51060   5.056   4.032   8.097
83076SOL    HW151061   5.020   3.974   8.163
83076SOL    HW251062   4.980   4.076   8.059
83077SOL     OW51063  13.583   3.377   6.840
83077SOL    HW151064  13.668   3.350   6.874
83077SOL    HW251065  13.597   3.467   6.810
83078SOL     OW51066   0.841   2.572  14.664
83078SOL    HW151067   0.754   2.556  14.627
83078SOL    HW251068   0.832   2.656  14.709
83079SOL     OW51069   5.471  11.852  13.605
83079SOL    HW151070   5.533  11.919  13.635
83079SOL    HW251071   5.485  11.778  13.665
83080SOL     OW51072   8.605   7.651   0.755
83080SOL    HW151073   8.690   7.612   0.776
83080SOL    HW251074   8.623   7.710   0.682
83081SOL     OW51075   2.275  14.187   7.719
83081SOL    HW151076   2.205  14.175   7.784
83081SOL    HW251077   2.265  14.113   7.660
83082SOL     OW51078  11.959   0.678   8.185
83082SOL    HW151079  11.907   0.740   8.134
83082SOL    HW251080  11.910   0.666   8.267
83083SOL     OW51081   3.782   5.797   8.418
83083SOL    HW151082   3.865   5.843   8.401
83083SOL    HW251083   3.809   5.707   8.439
83084SOL     OW51084  13.953   1.030  12.911
83084SOL    HW151085  13.904   1.086  12.972
83084SOL    HW251086  14.021   0.989  12.965
83085SOL     OW51087  14.786   6.794   9.527
83085SOL    HW151088  14.751   6.878   9.496
83085SOL    HW251089  14.823   6.813   9.613
83086SOL     OW51090  12.843  14.003  12.663
83086SOL    HW151091  12.765  13.948  12.663
83086SOL    HW251092  12.914  13.944  12.687
83087SOL     OW51093   5.805   5.652   3.373
83087SOL    HW151094   5.717   5.662   3.409
83087SOL    HW251095   5.804   5.565   3.332
83088SOL     OW51096  11.330  13.111  12.106
83088SOL    HW151097  11.355  13.121  12.198
83088SOL    HW251098  11.413  13.100  12.059
83089SOL     OW51099   2.499  11.112  14.783
83089SOL    HW151100   2.560  11.056  14.735
83089SOL    HW251101   2.522  11.101   0.002
83090SOL     OW51102   5.066   3.582   2.517
83090SOL    HW151103   5.081   3.524   2.591
83090SOL    HW251104   5.151   3.623   2.500
83091SOL     OW51105   9.729  12.166  14.729
83091SOL    HW151106   9.702  12.237  14.788
83091SOL    HW251107   9.668  12.095  14.747
83092SOL     OW51108  13.077   0.718   2.017
83092SOL    HW151109  13.000   0.772   2.031
83092SOL    HW251110  13.065   0.643   2.076
83093SOL     OW51111  12.948   8.003   8.094
83093SOL    HW151112  13.004   8.014   8.170
83093SOL    HW251113  12.900   7.922   8.111
83094SOL     OW51114   7.872   4.305   0.508
83094SOL    HW151115   7.833   4.261   0.584
83094SOL    HW251116   7.802   4.358   0.472
83095SOL     OW51117   3.603   0.301  12.020
83095SOL    HW151118   3.616   0.238  11.949
83095SOL    HW251119   3.543   0.258  12.080
83096SOL     OW51120   2.239  13.233  10.965
83096SOL    HW151121   2.335  13.226  10.966
83096SOL    HW251122   2.214  13.230  11.057
83097SOL     OW51123  10.231  11.061   2.092
83097SOL    HW151124  10.186  11.049   2.176
83097SOL    HW251125  10.162  11.089   2.032
83098SOL     OW51126   7.727   9.854  12.399
83098SOL    HW151127   7.726   9.797  12.475
83098SOL    HW251128   7.659   9.919  12.416
83099SOL     OW51129   5.335   1.477  14.482
83099SOL    HW151130   5.251   1.523  14.470
83099SOL    HW251131   5.329   1.439  14.569
83100SOL     OW51132  14.059   2.856  12.475
83100SOL    HW151133  14.101   2.862  12.561
83100SOL    HW251134  14.116   2.908  12.418
83101SOL     OW51135   6.171   3.026   3.769
83101SOL    HW151136   6.190   2.982   3.852
83101SOL    HW251137   6.101   2.974   3.730
83102SOL     OW51138   9.648   4.074   1.123
83102SOL    HW151139   9.648   4.112   1.211
83102SOL    HW251140   9.559   4.087   1.091
83103SOL     OW51141  12.887   8.315   3.016
83103SOL    HW151142  12.859   8.383   2.955
83103SOL    HW251143  12.868   8.233   2.971
83104SOL     OW51144   2.763  13.070   4.956
83104SOL    HW151145   2.738  13.160   4.935
83104SOL    HW251146   2.746  13.021   4.875
83105SOL     OW51147  13.655   3.290   7.437
83105SOL    HW151148  13.745   3.289   7.470
83105SOL    HW251149  13.661   3.334   7.352
83106SOL     OW51150   8.561   8.452  11.713
83106SOL    HW151151   8.614   8.375  11.692
83106SOL    HW251152   8.625   8.522  11.727
83107SOL     OW51153   0.193   6.359  13.668
83107SOL    HW151154   0.240   6.390  13.745
83107SOL    HW251155   0.257   6.364  13.597
83108SOL     OW51156   2.701   5.706   1.882
83108SOL    HW151157   2.664   5.705   1.794
83108SOL    HW251158   2.625   5.694   1.940
83109SOL     OW51159   7.418   5.788  11.477
83109SOL    HW151160   7.378   5.795  11.564
83109SOL    HW251161   7.466   5.705  11.479
83110SOL     OW51162   1.031   2.738   2.849
83110SOL    HW151163   0.940   2.757   2.825
83110SOL    HW251164   1.032   2.645   2.870
83111SOL     OW51165   1.788   8.493   9.228
83111SOL    HW151166   1.801   8.482   9.134
83111SOL    HW251167   1.725   8.424   9.251
83112SOL     OW51168   4.678   3.898   2.621
83112SOL    HW151169   4.598   3.881   2.672
83112SOL    HW251170   4.749   3.896   2.686
83113SOL     OW51171   6.867   1.302   2.792
83113SOL    HW151172   6.831   1.382   2.754
83113SOL    HW251173   6.905   1.330   2.875
83114SOL     OW51174   1.243   5.685  14.520
83114SOL    HW151175   1.173   5.669  14.457
83114SOL    HW251176   1.299   5.607  14.514
83115SOL     OW51177  13.329  12.575  12.674
83115SOL    HW151178  13.364  12.648  12.726
83115SOL    HW251179  13.406  12.527  12.645
83116SOL     OW51180  11.392   5.653  10.684
83116SOL    HW151181  11.393   5.614  10.597
83116SOL    HW251182  11.404   5.746  10.669
83117SOL     OW51183   0.649  12.453   7.214
83117SOL    HW151184   0.646  12.503   7.296
83117SOL    HW251185   0.694  12.372   7.238
83118SOL     OW51186  10.655   3.363   1.948
83118SOL    HW151187  10.733   3.345   2.000
83118SOL    HW251188  10.688   3.403   1.868
83119SOL     OW51189   6.410   4.298   3.249
83119SOL    HW151190   6.476   4.353   3.290
83119SOL    HW251191   6.328   4.320   3.294
83120SOL     OW51192   7.191  12.257   5.640
83120SOL    HW151193   7.129  12.328   5.624
83120SOL    HW251194   7.256  12.267   5.571
83121SOL     OW51195  13.919   8.813   2.415
83121SOL    HW151196  13.865   8.793   2.338
83121SOL    HW251197  13.997   8.758   2.404
83122SOL     OW51198  11.076  12.399  14.658
83122SOL    HW151199  11.164  12.367  14.638
83122SOL    HW251200  11.091  12.476  14.714
83123SOL     OW51201  13.667   7.014   4.207
83123SOL    HW151202  13.714   7.062   4.275
83123SOL    HW251203  13.604   6.960   4.255
83124SOL     OW51204  14.451  14.383  14.046
83124SOL    HW151205  14.486  14.334  13.972
83124SOL    HW251206  14.467  14.474  14.025
83125SOL     OW51207   7.703   9.372   3.684
83125SOL    HW151208   7.680   9.280   3.690
83125SOL    HW251209   7.620   9.417   3.671
83126SOL     OW51210   8.451  10.191  11.186
83126SOL    HW151211   8.421  10.280  11.169
83126SOL    HW251212   8.370  10.140  11.194
83127SOL     OW51213   0.625   8.150  11.288
83127SOL    HW151214   0.714   8.185  11.288
83127SOL    HW251215   0.608   8.129  11.196
83128SOL     OW51216   1.448   1.897   1.040
83128SOL    HW151217   1.490   1.814   1.061
83128SOL    HW251218   1.415   1.885   0.951
83129SOL     OW51219   7.021   6.537  12.089
83129SOL    HW151220   7.113   6.546  12.111
83129SOL    HW251221   6.978   6.516  12.172
83130SOL     OW51222  10.257   2.672   9.968
83130SOL    HW151223  10.336   2.617   9.961
83130SOL    HW251224  10.215   2.643  10.049
83131SOL     OW51225  14.184  10.553   4.217
83131SOL    HW151226  14.279  10.538   4.213
83131SOL    HW251227  14.149  10.504   4.142
83132SOL     OW51228   8.886   8.371   9.052
83132SOL    HW151229   8.956   8.306   9.058
83132SOL    HW251230   8.886   8.415   9.137
83133SOL     OW51231   5.701   2.008  10.157
83133SOL    HW151232   5.679   2.055  10.238
83133SOL    HW251233   5.781   1.959  10.179
83134SOL     OW51234  10.453   6.950   1.000
83134SOL    HW151235  10.469   6.869   1.049
83134SOL    HW251236  10.541   6.982   0.978
83135SOL     OW51237   5.972   6.464   9.192
83135SOL    HW151238   5.899   6.479   9.251
83135SOL    HW251239   6.044   6.516   9.228
83136SOL     OW51240  14.794   2.890   3.958
83136SOL    HW151241  14.728   2.852   4.016
83136SOL    HW251242  14.798   2.830   3.883
83137SOL     OW51243   6.398  12.057   0.248
83137SOL    HW151244   6.490  12.034   0.260
83137SOL    HW251245   6.397  12.152   0.245
83138SOL     OW51246   1.152   8.657   5.932
83138SOL    HW151247   1.200   8.727   5.977
83138SOL    HW251248   1.182   8.663   5.841
83139SOL     OW51249   5.687  11.558  14.814
83139SOL    HW151250   5.717  11.547   0.031
83139SOL    HW251251   5.611  11.616  14.821
83140SOL     OW51252   5.196   1.634   9.786
83140SOL    HW151253   5.240   1.719   9.782
83140SOL    HW251254   5.118   1.649   9.839
83141SOL     OW51255  10.827   9.532  10.274
83141SOL    HW151256  10.796   9.552  10.362
83141SOL    HW251257  10.776   9.590  10.217
83142SOL     OW51258   5.782   4.246   1.933
83142SOL    HW151259   5.825   4.256   1.848
83142SOL    HW251260   5.791   4.332   1.974
83143SOL     OW51261  10.451   7.334   3.045
83143SOL    HW151262  10.514   7.309   3.114
83143SOL    HW251263  10.388   7.263   3.044
83144SOL     OW51264  11.184  11.990  13.195
83144SOL    HW151265  11.216  12.072  13.232
83144SOL    HW251266  11.220  11.988  13.106
83145SOL     OW51267  10.502   5.423   8.371
83145SOL    HW151268  10.543   5.392   8.452
83145SOL    HW251269  10.496   5.518   8.382
83146SOL     OW51270  12.414   7.775   5.724
83146SOL    HW151271  12.451   7.688   5.710
83146SOL    HW251272  12.319   7.762   5.719
83147SOL     OW51273  12.724  13.011   3.450
83147SOL    HW151274  12.660  13.030   3.519
83147SOL    HW251275  12.723  13.089   3.394
83148SOL     OW51276   4.008   4.903   6.364
83148SOL    HW151277   3.977   4.970   6.303
83148SOL    HW251278   4.098   4.930   6.385
83149SOL     OW51279  13.389   0.623  10.834
83149SOL    HW151280  13.419   0.532  10.840
83149SOL    HW251281  13.387   0.641  10.740
83150SOL     OW51282   7.385   3.129   9.227
83150SOL    HW151283   7.317   3.064   9.247
83150SOL    HW251284   7.456   3.079   9.187
83151SOL     OW51285   4.555  13.907   1.552
83151SOL    HW151286   4.532  13.995   1.581
83151SOL    HW251287   4.647  13.897   1.576
83152SOL     OW51288  13.982   7.540   5.361
83152SOL    HW151289  14.002   7.456   5.320
83152SOL    HW251290  13.980   7.522   5.455
83153SOL     OW51291   8.235   6.821   2.008
83153SOL    HW151292   8.234   6.777   1.923
83153SOL    HW251293   8.290   6.765   2.063
83154SOL     OW51294  10.613   7.060  10.649
83154SOL    HW151295  10.681   7.122  10.674
83154SOL    HW251296  10.660   6.986  10.612
83155SOL     OW51297   0.820  11.487   7.064
83155SOL    HW151298   0.855  11.410   7.019
83155SOL    HW251299   0.777  11.451   7.142
83156SOL     OW51300  12.492   5.507   4.759
83156SOL    HW151301  12.426   5.555   4.710
83156SOL    HW251302  12.558   5.573   4.781
83157SOL     OW51303   1.346   0.397  11.671
83157SOL    HW151304   1.281   0.376  11.604
83157SOL    HW251305   1.324   0.339  11.744
83158SOL     OW51306   6.296  12.630  14.391
83158SOL    HW151307   6.365  12.565  14.384
83158SOL    HW251308   6.286  12.645  14.485
83159SOL     OW51309  12.363  12.402   1.521
83159SOL    HW151310  12.374  12.485   1.567
83159SOL    HW251311  12.409  12.415   1.438
83160SOL     OW51312   1.547  13.968  14.139
83160SOL    HW151313   1.541  13.917  14.220
83160SOL    HW251314   1.462  13.957  14.097
83161SOL     OW51315   3.145   8.378   6.522
83161SOL    HW151316   3.084   8.305   6.538
83161SOL    HW251317   3.205   8.375   6.597
83162SOL     OW51318   2.930  11.834   7.451
83162SOL    HW151319   2.933  11.751   7.498
83162SOL    HW251320   2.853  11.828   7.395
83163SOL     OW51321   1.063   9.689  10.661
83163SOL    HW151322   1.072   9.638  10.741
83163SOL    HW251323   1.082   9.779  10.688
83164SOL     OW51324  12.095  12.891  14.237
83164SOL    HW151325  12.048  12.860  14.314
83164SOL    HW251326  12.060  12.840  14.165
83165SOL     OW51327   9.742   2.681   4.439
83165SOL    HW151328   9.837   2.678   4.434
83165SOL    HW251329   9.721   2.632   4.519
83166SOL     OW51330  12.236   4.552   1.519
83166SOL    HW151331  12.145   4.536   1.492
83166SOL    HW251332  12.256   4.639   1.485
83167SOL     OW51333   7.454  12.574   5.495
83167SOL    HW151334   7.544  12.541   5.489
83167SOL    HW251335   7.451  12.647   5.434
83168SOL     OW51336   2.829   9.241  12.416
83168SOL    HW151337   2.875   9.183  12.477
83168SOL    HW251338   2.874   9.325  12.424
83169SOL     OW51339   0.030  11.174   7.110
83169SOL    HW151340   0.074  11.150   7.191
83169SOL    HW251341  14.810  11.182   7.134
83170SOL     OW51342   9.110   6.487   3.750
83170SOL    HW151343   9.173   6.514   3.817
83170SOL    HW251344   9.157   6.424   3.696
83171SOL     OW51345   5.358   3.717  12.529
83171SOL    HW151346   5.440   3.761  12.506
83171SOL    HW251347   5.319   3.693  12.445
83172SOL     OW51348   8.482   6.251   7.587
83172SOL    HW151349   8.442   6.337   7.570
83172SOL    HW251350   8.426   6.212   7.654
83173SOL     OW51351   3.609   8.500   4.013
83173SOL    HW151352   3.630   8.590   4.038
83173SOL    HW251353   3.528   8.480   4.061
83174SOL     OW51354   6.486   2.488  13.000
83174SOL    HW151355   6.521   2.491  12.911
83174SOL    HW251356   6.442   2.572  13.012
83175SOL     OW51357   3.384   8.372  11.619
83175SOL    HW151358   3.342   8.453  11.589
83175SOL    HW251359   3.473   8.377  11.584
83176SOL     OW51360  10.071  10.833   0.833
83176SOL    HW151361  10.089  10.758   0.777
83176SOL    HW251362   9.977  10.832   0.846
83177SOL     OW51363   7.334  13.670   7.946
83177SOL    HW151364   7.359  13.579   7.960
83177SOL    HW251365   7.337  13.681   7.851
83178SOL     OW51366  10.187  12.685   5.331
83178SOL    HW151367  10.214  12.776   5.345
83178SOL    HW251368  10.173  12.650   5.419
83179SOL     OW51369   1.823  10.014  14.748
83179SOL    HW151370   1.888  10.012  14.818
83179SOL    HW251371   1.740   9.998  14.791
83180SOL     OW51372   6.121  14.853   8.008
83180SOL    HW151373   6.188  14.838   8.074
83180SOL    HW251374   6.153  14.807   7.930
83181SOL     OW51375   0.112   7.223   6.620
83181SOL    HW151376   0.054   7.296   6.642
83181SOL    HW251377   0.115   7.171   6.701
83182SOL     OW51378   4.715  13.506  11.735
83182SOL    HW151379   4.714  13.487  11.641
83182SOL    HW251380   4.764  13.588  11.742
83183SOL     OW51381  13.867   4.863   7.359
83183SOL    HW151382  13.915   4.820   7.430
83183SOL    HW251383  13.784   4.816   7.354
83184SOL     OW51384   7.050   3.745   0.136
83184SOL    HW151385   7.111   3.817   0.120
83184SOL    HW251386   6.963   3.786   0.133
83185SOL     OW51387  11.402   7.419  10.712
83185SOL    HW151388  11.372   7.356  10.777
83185SOL    HW251389  11.383   7.504  10.752
83186SOL     OW51390   8.994   8.458   6.068
83186SOL    HW151391   8.900   8.441   6.074
83186SOL    HW251392   9.021   8.477   6.157
83187SOL     OW51393   9.834   4.431   9.987
83187SOL    HW151394   9.785   4.501  10.030
83187SOL    HW251395   9.920   4.433  10.028
83188SOL     OW51396  13.830  13.775   0.488
83188SOL    HW151397  13.848  13.842   0.422
83188SOL    HW251398  13.783  13.821   0.558
83189SOL     OW51399   2.758   5.462  13.153
83189SOL    HW151400   2.853   5.455  13.139
83189SOL    HW251401   2.747   5.545  13.200
83190SOL     OW51402   6.335   6.649  14.299
83190SOL    HW151403   6.273   6.625  14.230
83190SOL    HW251404   6.284   6.701  14.361
83191SOL     OW51405  14.445   3.585   5.284
83191SOL    HW151406  14.375   3.650   5.279
83191SOL    HW251407  14.479   3.579   5.194
83192SOL     OW51408   4.292   5.004   1.000
83192SOL    HW151409   4.229   5.074   0.984
83192SOL    HW251410   4.351   5.041   1.066
83193SOL     OW51411   6.996  14.517   1.410
83193SOL    HW151412   7.015  14.477   1.325
83193SOL    HW251413   6.962  14.604   1.389
83194SOL     OW51414  10.664   3.803  12.845
83194SOL    HW151415  10.709   3.720  12.852
83194SOL    HW251416  10.726   3.861  12.801
83195SOL     OW51417   0.230   6.865  13.578
83195SOL    HW151418   0.228   6.805  13.505
83195SOL    HW251419   0.148   6.914  13.572
83196SOL     OW51420  12.494  12.940   5.429
83196SOL    HW151421  12.451  12.938   5.515
83196SOL    HW251422  12.554  12.866   5.430
83197SOL     OW51423   2.727  11.976   3.177
83197SOL    HW151424   2.746  12.060   3.218
83197SOL    HW251425   2.761  11.985   3.088
83198SOL     OW51426   6.455  11.407   3.439
83198SOL    HW151427   6.425  11.449   3.520
83198SOL    HW251428   6.411  11.322   3.438
83199SOL     OW51429  11.489   4.388   5.353
83199SOL    HW151430  11.397   4.375   5.377
83199SOL    HW251431  11.512   4.473   5.392
83200SOL     OW51432   2.212   8.179   9.964
83200SOL    HW151433   2.187   8.144   9.878
83200SOL    HW251434   2.174   8.267   9.965
83201SOL     OW51435   5.387   4.102   8.251
83201SOL    HW151436   5.385   4.062   8.338
83201SOL    HW251437   5.353   4.035   8.192
83202SOL     OW51438   0.080   6.044   3.765
83202SOL    HW151439   0.095   6.047   3.859
83202SOL    HW251440  14.868   6.001   3.756
83203SOL     OW51441  10.005   9.963   3.966
83203SOL    HW151442   9.930   9.909   3.992
83203SOL    HW251443  10.038  10.000   4.048
83204SOL     OW51444   3.079  11.225  10.748
83204SOL    HW151445   3.154  11.224  10.690
83204SOL    HW251446   3.092  11.150  10.807
83205SOL     OW51447  14.019   3.805  12.690
83205SOL    HW151448  13.981   3.859  12.760
83205SOL    HW251449  14.025   3.863  12.615
83206SOL     OW51450   6.195   2.217  10.749
83206SOL    HW151451   6.250   2.291  10.722
83206SOL    HW251452   6.183   2.166  10.670
83207SOL     OW51453   0.915  10.262   1.624
83207SOL    HW151454   0.908  10.305   1.709
83207SOL    HW251455   0.826  10.229   1.607
83208SOL     OW51456   0.050  12.485  12.238
83208SOL    HW151457   0.140  12.496  12.207
83208SOL    HW251458   0.050  12.524  12.325
83209SOL     OW51459   2.556  10.993   8.278
83209SOL    HW151460   2.501  11.048   8.222
83209SOL    HW251461   2.645  11.025   8.263
83210SOL     OW51462   3.194  14.339  11.489
83210SOL    HW151463   3.182  14.402  11.417
83210SOL    HW251464   3.105  14.314  11.514
83211SOL     OW51465   0.203  11.960  11.978
83211SOL    HW151466   0.176  12.031  12.036
83211SOL    HW251467   0.191  11.881  12.030
83212SOL     OW51468   5.631   4.596   8.690
83212SOL    HW151469   5.595   4.538   8.757
83212SOL    HW251470   5.638   4.540   8.612
83213SOL     OW51471  13.843   1.420   1.107
83213SOL    HW151472  13.918   1.369   1.137
83213SOL    HW251473  13.871   1.458   1.023
83214SOL     OW51474   0.153  13.927   9.601
83214SOL    HW151475   0.125  13.857   9.660
83214SOL    HW251476   0.161  13.884   9.516
83215SOL     OW51477  14.271   5.953  10.896
83215SOL    HW151478  14.338   5.901  10.942
83215SOL    HW251479  14.316   6.034  10.873
83216SOL     OW51480   8.357  14.526   3.898
83216SOL    HW151481   8.347  14.477   3.979
83216SOL    HW251482   8.432  14.584   3.914
83217SOL     OW51483   9.676   2.786   0.457
83217SOL    HW151484   9.632   2.848   0.515
83217SOL    HW251485   9.751   2.835   0.422
83218SOL     OW51486   3.146  14.630   5.226
83218SOL    HW151487   3.179  14.557   5.172
83218SOL    HW251488   3.054  14.637   5.202
83219SOL     OW51489   9.275  12.069  11.764
83219SOL    HW151490   9.245  11.980  11.746
83219SOL    HW251491   9.360  12.058  11.807
83220SOL     OW51492   9.707   4.982  12.243
83220SOL    HW151493   9.722   5.004  12.335
83220SOL    HW251494   9.620   5.018  12.224
83221SOL     OW51495  10.894   7.914   2.073
83221SOL    HW151496  10.858   7.898   1.986
83221SOL    HW251497  10.852   7.850   2.129
83222SOL     OW51498   8.781   1.927   9.075
83222SOL    HW151499   8.826   1.845   9.055
83222SOL    HW251500   8.690   1.900   9.092
83223SOL     OW51501  11.567  11.050   6.121
83223SOL    HW151502  11.510  11.060   6.197
83223SOL    HW251503  11.543  10.965   6.084
83224SOL     OW51504   1.697  11.066  12.211
83224SOL    HW151505   1.721  11.130  12.144
83224SOL    HW251506   1.654  10.996  12.162
83225SOL     OW51507   4.427  11.151   4.159
83225SOL    HW151508   4.433  11.183   4.249
83225SOL    HW251509   4.343  11.105   4.155
83226SOL     OW51510  12.728   8.205   0.652
83226SOL    HW151511  12.772   8.287   0.673
83226SOL    HW251512  12.780   8.167   0.581
83227SOL     OW51513   1.296  14.654   8.542
83227SOL    HW151514   1.303  14.573   8.593
83227SOL    HW251515   1.385  14.690   8.544
83228SOL     OW51516   4.587   0.805   8.629
83228SOL    HW151517   4.619   0.851   8.552
83228SOL    HW251518   4.492   0.803   8.618
83229SOL     OW51519   5.268  14.158   6.129
83229SOL    HW151520   5.245  14.251   6.126
83229SOL    HW251521   5.338  14.152   6.194
83230SOL     OW51522  14.561  10.168   2.473
83230SOL    HW151523  14.592  10.096   2.418
83230SOL    HW251524  14.470  10.181   2.445
83231SOL     OW51525   4.278   1.767   8.170
83231SOL    HW151526   4.190   1.793   8.198
83231SOL    HW251527   4.275   1.671   8.168
83232SOL     OW51528  10.514   8.874   5.779
83232SOL    HW151529  10.456   8.937   5.737
83232SOL    HW251530  10.474   8.857   5.864
83233SOL     OW51531   3.067   3.392  13.281
83233SOL    HW151532   3.051   3.404  13.187
83233SOL    HW251533   3.139   3.451  13.301
83234SOL     OW51534   2.065   4.428  14.804
83234SOL    HW151535   2.048   4.504  14.749
83234SOL    HW251536   2.035   4.454   0.019
83235SOL     OW51537   0.139   6.729   2.946
83235SOL    HW151538   0.086   6.677   3.006
83235SOL    HW251539   0.222   6.742   2.992
83236SOL     OW51540  14.669   7.663   0.817
83236SOL    HW151541  14.705   7.634   0.734
83236SOL    HW251542  14.631   7.584   0.856
83237SOL     OW51543   6.282  14.598   6.922
83237SOL    HW151544   6.249  14.586   6.833
83237SOL    HW251545   6.292  14.692   6.931
83238SOL     OW51546   3.567  10.663   6.720
83238SOL    HW151547   3.571  10.745   6.770
83238SOL    HW251548   3.488  10.619   6.753
83239SOL     OW51549   6.238  11.565  10.694
83239SOL    HW151550   6.183  11.502  10.646
83239SOL    HW251551   6.315  11.514  10.719
83240SOL     OW51552   5.974   3.575   9.244
83240SOL    HW151553   5.955   3.605   9.333
83240SOL    HW251554   5.996   3.655   9.196
83241SOL     OW51555   2.569  11.911   3.376
83241SOL    HW151556   2.615  11.928   3.294
83241SOL    HW251557   2.479  11.939   3.360
83242SOL     OW51558  13.444   7.642   1.830
83242SOL    HW151559  13.384   7.651   1.756
83242SOL    HW251560  13.506   7.575   1.802
83243SOL     OW51561   9.832   6.215  13.766
83243SOL    HW151562   9.875   6.253  13.842
83243SOL    HW251563   9.762   6.161  13.802
83244SOL     OW51564   1.267  14.175  10.558
83244SOL    HW151565   1.210  14.221  10.619
83244SOL    HW251566   1.213  14.163  10.480
83245SOL     OW51567  12.720   6.243  13.720
83245SOL    HW151568  12.750   6.163  13.763
83245SOL    HW251569  12.626   6.230  13.708
83246SOL     OW51570  13.089   9.292  13.721
83246SOL    HW151571  13.166   9.248  13.757
83246SOL    HW251572  13.125   9.357  13.660
83247SOL     OW51573  14.197   8.837  10.228
83247SOL    HW151574  14.244   8.811  10.308
83247SOL    HW251575  14.267   8.857  10.165
83248SOL     OW51576   8.535   4.348   8.565
83248SOL    HW151577   8.444   4.358   8.535
83248SOL    HW251578   8.585   4.337   8.484
83249SOL     OW51579   2.177   0.168  11.860
83249SOL    HW151580   2.126   0.121  11.794
83249SOL    HW251581   2.112   0.207  11.917
83250SOL     OW51582   7.038   2.272  10.879
83250SOL    HW151583   6.949   2.252  10.909
83250SOL    HW251584   7.027   2.294  10.786
83251SOL     OW51585  13.407   7.620   1.312
83251SOL    HW151586  13.373   7.566   1.240
83251SOL    HW251587  13.454   7.558   1.368
83252SOL     OW51588  13.131   1.024  11.283
83252SOL    HW151589  13.216   1.008  11.243
83252SOL    HW251590  13.131   0.969  11.362
83253SOL     OW51591   4.252  13.249  10.708
83253SOL    HW151592   4.156  13.247  10.710
83253SOL    HW251593   4.274  13.333  10.749
83254SOL     OW51594   9.415   1.020   9.894
83254SOL    HW151595   9.358   0.983   9.826
83254SOL    HW251596   9.357   1.032   9.970
83255SOL     OW51597   8.662   8.293   7.736
83255SOL    HW151598   8.606   8.309   7.660
83255SOL    HW251599   8.746   8.265   7.699
83256SOL     OW51600  11.864   8.299  10.700
83256SOL    HW151601  11.810   8.310  10.778
83256SOL    HW251602  11.914   8.379  10.694
83257SOL     OW51603   0.591   2.176   3.025
83257SOL    HW151604   0.606   2.111   3.094
83257SOL    HW251605   0.607   2.128   2.944
83258SOL     OW51606   5.502  12.053   7.200
83258SOL    HW151607   5.447  12.131   7.193
83258SOL    HW251608   5.579  12.083   7.248
83259SOL     OW51609   6.475   0.437   3.143
83259SOL    HW151610   6.478   0.353   3.097
83259SOL    HW251611   6.548   0.434   3.204
83260SOL     OW51612  12.214  10.803  13.442
83260SOL    HW151613  12.147  10.796  13.374
83260SOL    HW251614  12.295  10.820  13.395
83261SOL     OW51615   4.399   5.230   3.943
83261SOL    HW151616   4.343   5.181   3.883
83261SOL    HW251617   4.347   5.238   4.023
83262SOL     OW51618   8.469   6.882   7.901
83262SOL    HW151619   8.431   6.795   7.914
83262SOL    HW251620   8.467   6.922   7.988
83263SOL     OW51621  11.656  13.557   9.657
83263SOL    HW151622  11.596  13.483   9.644
83263SOL    HW251623  11.689  13.546   9.746
83264SOL     OW51624   2.025  11.374   8.688
83264SOL    HW151625   1.951  11.416   8.731
83264SOL    HW251626   2.072  11.445   8.644
83265SOL     OW51627   8.282  12.855   3.370
83265SOL    HW151628   8.199  12.851   3.323
83265SOL    HW251629   8.348  12.862   3.301
83266SOL     OW51630   4.080  11.459  10.970
83266SOL    HW151631   4.095  11.502  11.054
83266SOL    HW251632   3.986  11.440  10.970
83267SOL     OW51633   4.636  11.292   8.011
83267SOL    HW151634   4.731  11.297   8.012
83267SOL    HW251635   4.616  11.207   8.050
83268SOL     OW51636   0.375   3.297   9.265
83268SOL    HW151637   0.393   3.380   9.310
83268SOL    HW251638   0.462   3.265   9.239
83269SOL     OW51639  12.629  13.096   6.549
83269SOL    HW151640  12.709  13.089   6.601
83269SOL    HW251641  12.622  13.189   6.528
83270SOL     OW51642   1.490  13.930   6.941
83270SOL    HW151643   1.547  14.008   6.944
83270SOL    HW251644   1.454  13.923   7.029
83271SOL     OW51645  11.399   3.793  12.732
83271SOL    HW151646  11.347   3.715  12.711
83271SOL    HW251647  11.368   3.819  12.819
83272SOL     OW51648   9.791   8.985   7.547
83272SOL    HW151649   9.856   8.990   7.477
83272SOL    HW251650   9.841   8.994   7.628
83273SOL     OW51651   8.569   2.307   8.933
83273SOL    HW151652   8.517   2.343   9.005
83273SOL    HW251653   8.624   2.240   8.973
83274SOL     OW51654  13.660   2.154   8.299
83274SOL    HW151655  13.639   2.065   8.325
83274SOL    HW251656  13.578   2.189   8.264
83275SOL     OW51657   9.364   6.994   4.382
83275SOL    HW151658   9.322   6.928   4.327
83275SOL    HW251659   9.349   6.964   4.472
83276SOL     OW51660   7.072   8.267   1.211
83276SOL    HW151661   7.003   8.308   1.158
83276SOL    HW251662   7.115   8.206   1.150
83277SOL     OW51663   7.435   8.718   6.095
83277SOL    HW151664   7.344   8.747   6.093
83277SOL    HW251665   7.445   8.664   6.016
83278SOL     OW51666   4.731   3.554   6.027
83278SOL    HW151667   4.747   3.460   6.015
83278SOL    HW251668   4.683   3.559   6.110
83279SOL     OW51669   1.589  13.744   2.918
83279SOL    HW151670   1.596  13.828   2.963
83279SOL    HW251671   1.666  13.741   2.861
83280SOL     OW51672  11.891   4.305   9.201
83280SOL    HW151673  11.797   4.320   9.213
83280SOL    HW251674  11.933   4.366   9.261
83281SOL     OW51675  10.814   8.514  14.530
83281SOL    HW151676  10.836   8.586  14.471
83281SOL    HW251677  10.893   8.461  14.534
83282SOL     OW51678  11.722  12.959   5.843
83282SOL    HW151679  11.718  13.027   5.776
83282SOL    HW251680  11.702  12.878   5.795
83283SOL     OW51681   5.692   0.326   9.158
83283SOL    HW151682   5.636   0.400   9.135
83283SOL    HW251683   5.778   0.349   9.122
83284SOL     OW51684  12.189   5.778   4.854
83284SOL    HW151685  12.203   5.790   4.760
83284SOL    HW251686  12.186   5.866   4.890
83285SOL     OW51687   5.014  10.033   0.374
83285SOL    HW151688   4.991  10.115   0.332
83285SOL    HW251689   4.939   9.976   0.357
83286SOL     OW51690  10.665   2.582  11.935
83286SOL    HW151691  10.652   2.509  11.995
83286SOL    HW251692  10.755   2.610  11.950
83287SOL     OW51693   3.476   6.054   1.055
83287SOL    HW151694   3.552   5.998   1.070
83287SOL    HW251695   3.466   6.056   0.960
83288SOL     OW51696   2.638   8.383  10.823
83288SOL    HW151697   2.645   8.473  10.854
83288SOL    HW251698   2.593   8.390  10.739
83289SOL     OW51699   3.250   8.192   2.457
83289SOL    HW151700   3.309   8.142   2.400
83289SOL    HW251701   3.164   8.154   2.441
83290SOL     OW51702   2.665   1.028   3.669
83290SOL    HW151703   2.705   1.109   3.700
83290SOL    HW251704   2.581   1.023   3.715
83291SOL     OW51705   1.240  10.719   8.965
83291SOL    HW151706   1.276  10.667   8.893
83291SOL    HW251707   1.306  10.712   9.034
83292SOL     OW51708   6.293   6.247   9.138
83292SOL    HW151709   6.309   6.320   9.197
83292SOL    HW251710   6.204   6.262   9.105
83293SOL     OW51711  13.911   7.759   1.405
83293SOL    HW151712  13.929   7.702   1.330
83293SOL    HW251713  13.819   7.742   1.425
83294SOL     OW51714   9.352   8.958  13.247
83294SOL    HW151715   9.299   9.036  13.262
83294SOL    HW251716   9.291   8.885  13.253
83295SOL     OW51717   6.478   9.526   1.060
83295SOL    HW151718   6.499   9.497   0.971
83295SOL    HW251719   6.461   9.444   1.108
83296SOL     OW51720   7.044   1.956  13.818
83296SOL    HW151721   6.967   2.003  13.853
83296SOL    HW251722   7.116   1.983  13.874
83297SOL     OW51723   2.585   8.723   9.254
83297SOL    HW151724   2.651   8.658   9.230
83297SOL    HW251725   2.602   8.742   9.346
83298SOL     OW51726   8.318   2.812   2.515
83298SOL    HW151727   8.233   2.797   2.556
83298SOL    HW251728   8.370   2.854   2.583
83299SOL     OW51729  13.336   9.155   5.274
83299SOL    HW151730  13.358   9.065   5.250
83299SOL    HW251731  13.419   9.202   5.270
83300SOL     OW51732   5.903   1.342  11.084
83300SOL    HW151733   5.863   1.255  11.087
83300SOL    HW251734   5.944   1.347  10.998
83301SOL     OW51735   6.395  11.353  14.374
83301SOL    HW151736   6.389  11.382  14.465
83301SOL    HW251737   6.487  11.327  14.364
83302SOL     OW51738   4.053   0.412   4.672
83302SOL    HW151739   3.978   0.439   4.620
83302SOL    HW251740   4.021   0.341   4.728
83303SOL     OW51741   7.166   3.158  11.387
83303SOL    HW151742   7.150   3.201  11.303
83303SOL    HW251743   7.245   3.106  11.372
83304SOL     OW51744   2.290  13.891  13.074
83304SOL    HW151745   2.301  13.895  13.169
83304SOL    HW251746   2.226  13.959  13.054
83305SOL     OW51747   3.909   0.947  13.682
83305SOL    HW151748   3.856   1.025  13.695
83305SOL    HW251749   3.971   0.947  13.755
83306SOL     OW51750   8.603   6.546   7.639
83306SOL    HW151751   8.528   6.568   7.583
83306SOL    HW251752   8.679   6.569   7.586
83307SOL     OW51753   3.902   4.092  10.144
83307SOL    HW151754   3.881   4.007  10.105
83307SOL    HW251755   3.991   4.111  10.114
83308SOL     OW51756   7.458  12.788  12.086
83308SOL    HW151757   7.513  12.768  12.162
83308SOL    HW251758   7.380  12.830  12.124
83309SOL     OW51759   2.588  13.965  11.174
83309SOL    HW151760   2.609  13.958  11.267
83309SOL    HW251761   2.596  13.876  11.140
83310SOL     OW51762   4.361  11.109   9.134
83310SOL    HW151763   4.398  11.035   9.086
83310SOL    HW251764   4.396  11.100   9.223
83311SOL     OW51765   7.070   3.620  14.679
83311SOL    HW151766   7.109   3.579  14.601
83311SOL    HW251767   7.063   3.550  14.743
83312SOL     OW51768   5.690   3.050  11.898
83312SOL    HW151769   5.659   3.035  11.988
83312SOL    HW251770   5.705   3.144  11.894
83313SOL     OW51771  11.687  12.861   7.830
83313SOL    HW151772  11.709  12.855   7.737
83313SOL    HW251773  11.771  12.880   7.873
83314SOL     OW51774   5.932   9.787   0.707
83314SOL    HW151775   6.012   9.787   0.654
83314SOL    HW251776   5.958   9.750   0.791
83315SOL     OW51777  14.137   5.261   9.311
83315SOL    HW151778  14.207   5.251   9.247
83315SOL    HW251779  14.143   5.353   9.339
83316SOL     OW51780   9.381   3.875  13.099
83316SOL    HW151781   9.294   3.888  13.061
83316SOL    HW251782   9.409   3.789  13.067
83317SOL     OW51783   8.371  13.619   7.529
83317SOL    HW151784   8.342  13.601   7.440
83317SOL    HW251785   8.466  13.631   7.522
83318SOL     OW51786   4.200   3.533   6.432
83318SOL    HW151787   4.196   3.627   6.414
83318SOL    HW251788   4.135   3.495   6.374
83319SOL     OW51789   0.757   9.467   4.868
83319SOL    HW151790   0.781   9.378   4.844
83319SOL    HW251791   0.718   9.503   4.788
83320SOL     OW51792   3.971  13.876   8.416
83320SOL    HW151793   3.877  13.872   8.400
83320SOL    HW251794   3.979  13.920   8.500
83321SOL     OW51795   1.500   0.505   8.201
83321SOL    HW151796   1.420   0.456   8.219
83321SOL    HW251797   1.512   0.559   8.279
83322SOL     OW51798   2.629  14.714   4.738
83322SOL    HW151799   2.550  14.675   4.776
83322SOL    HW251800   2.597  14.773   4.670
83323SOL     OW51801   3.193   1.363   7.789
83323SOL    HW151802   3.183   1.268   7.797
83323SOL    HW251803   3.189   1.395   7.879
83324SOL     OW51804   4.666   9.553   6.246
83324SOL    HW151805   4.703   9.465   6.251
83324SOL    HW251806   4.720   9.599   6.181
83325SOL     OW51807  12.380   5.120   8.238
83325SOL    HW151808  12.303   5.160   8.279
83325SOL    HW251809  12.345   5.051   8.181
83326SOL     OW51810   6.938   6.126   2.126
83326SOL    HW151811   6.902   6.212   2.105
83326SOL    HW251812   6.886   6.095   2.200
83327SOL     OW51813  12.831   0.207  12.181
83327SOL    HW151814  12.860   0.193  12.090
83327SOL    HW251815  12.758   0.269  12.173
83328SOL     OW51816   2.839  10.782   1.213
83328SOL    HW151817   2.746  10.800   1.203
83328SOL    HW251818   2.842  10.691   1.242
83329SOL     OW51819   8.609  13.290   3.072
83329SOL    HW151820   8.521  13.254   3.057
83329SOL    HW251821   8.628  13.339   2.992
83330SOL     OW51822  11.889   6.109   3.633
83330SOL    HW151823  11.975   6.141   3.662
83330SOL    HW251824  11.885   6.019   3.666
83331SOL     OW51825   5.116   9.323   2.723
83331SOL    HW151826   5.198   9.326   2.673
83331SOL    HW251827   5.142   9.299   2.812
83332SOL     OW51828  13.264   3.845   4.289
83332SOL    HW151829  13.222   3.760   4.287
83332SOL    HW251830  13.251   3.881   4.202
83333SOL     OW51831   1.031   4.240   6.703
83333SOL    HW151832   1.064   4.171   6.760
83333SOL    HW251833   1.109   4.285   6.672
83334SOL     OW51834  11.280  10.769  12.145
83334SOL    HW151835  11.216  10.839  12.131
83334SOL    HW251836  11.274  10.715  12.066
83335SOL     OW51837  10.354   5.460   2.072
83335SOL    HW151838  10.432   5.434   2.022
83335SOL    HW251839  10.292   5.489   2.005
83336SOL     OW51840  10.277   7.435   5.063
83336SOL    HW151841  10.312   7.381   5.134
83336SOL    HW251842  10.280   7.378   4.986
83337SOL     OW51843   4.942   5.168  13.278
83337SOL    HW151844   4.947   5.206  13.190
83337SOL    HW251845   4.990   5.085  13.270
83338SOL     OW51846   3.055   4.076   7.621
83338SOL    HW151847   3.133   4.027   7.647
83338SOL    HW251848   3.088   4.144   7.562
83339SOL     OW51849   8.719  12.677  11.147
83339SOL    HW151850   8.647  12.719  11.196
83339SOL    HW251851   8.787  12.665  11.213
83340SOL     OW51852  11.522  13.640   4.600
83340SOL    HW151853  11.487  13.656   4.512
83340SOL    HW251854  11.455  13.676   4.659
83341SOL     OW51855   7.450   9.328   9.853
83341SOL    HW151856   7.375   9.389   9.851
83341SOL    HW251857   7.518   9.375   9.901
83342SOL     OW51858  11.663   2.848   9.947
83342SOL    HW151859  11.602   2.899   9.895
83342SOL    HW251860  11.677   2.768   9.897
83343SOL     OW51861   9.834   8.548   2.316
83343SOL    HW151862   9.911   8.605   2.319
83343SOL    HW251863   9.853   8.478   2.378
83344SOL     OW51864   5.355   6.325  12.643
83344SOL    HW151865   5.373   6.265  12.570
83344SOL    HW251866   5.344   6.268  12.719
83345SOL     OW51867   5.900  10.785  11.851
83345SOL    HW151868   5.853  10.787  11.768
83345SOL    HW251869   5.904  10.692  11.874
83346SOL     OW51870   6.988   3.014   1.383
83346SOL    HW151871   7.016   2.953   1.315
83346SOL    HW251872   6.915   2.970   1.427
83347SOL     OW51873   5.834  14.045  14.665
83347SOL    HW151874   5.742  14.025  14.682
83347SOL    HW251875   5.848  14.020  14.574
83348SOL     OW51876  13.777   2.723   5.645
83348SOL    HW151877  13.857   2.775   5.649
83348SOL    HW251878  13.778   2.684   5.557
83349SOL     OW51879  14.413   4.775  13.976
83349SOL    HW151880  14.497   4.817  13.955
83349SOL    HW251881  14.350   4.847  13.973
83350SOL     OW51882   0.477   0.817  13.855
83350SOL    HW151883   0.486   0.806  13.760
83350SOL    HW251884   0.539   0.887  13.877
83351SOL     OW51885  10.889   2.082   5.286
83351SOL    HW151886  10.805   2.077   5.333
83351SOL    HW251887  10.954   2.055   5.350
83352SOL     OW51888   8.450   8.978   6.905
83352SOL    HW151889   8.423   8.887   6.912
83352SOL    HW251890   8.536   8.975   6.864
83353SOL     OW51891   4.732   2.488   5.401
83353SOL    HW151892   4.657   2.528   5.444
83353SOL    HW251893   4.705   2.398   5.383
83354SOL     OW51894   5.943   2.109   0.652
83354SOL    HW151895   5.884   2.036   0.633
83354SOL    HW251896   6.030   2.077   0.627
83355SOL     OW51897   5.209   7.601  11.161
83355SOL    HW151898   5.300   7.572  11.168
83355SOL    HW251899   5.215   7.689  11.123
83356SOL     OW51900  10.071   6.946   9.144
83356SOL    HW151901  10.086   7.040   9.159
83356SOL    HW251902   9.996   6.924   9.198
83357SOL     OW51903   0.376  14.236   0.525
83357SOL    HW151904   0.444  14.227   0.458
83357SOL    HW251905   0.317  14.302   0.491
83358SOL     OW51906  12.950   5.898   9.848
83358SOL    HW151907  12.883   5.839   9.883
83358SOL    HW251908  12.947   5.885   9.754
83359SOL     OW51909  13.175  14.575  12.260
83359SOL    HW151910  13.269  14.566  12.270
83359SOL    HW251911  13.147  14.623  12.339
83360SOL     OW51912   7.776   0.884   7.178
83360SOL    HW151913   7.861   0.841   7.166
83360SOL    HW251914   7.733   0.832   7.246
83361SOL     OW51915   1.891   1.144   2.016
83361SOL    HW151916   1.890   1.221   2.074
83361SOL    HW251917   1.878   1.070   2.075
83362SOL     OW51918   2.796   9.018  14.455
83362SOL    HW151919   2.785   8.978  14.368
83362SOL    HW251920   2.742   9.097  14.452
83363SOL     OW51921  14.184  14.591  13.836
83363SOL    HW151922  14.203  14.675  13.879
83363SOL    HW251923  14.129  14.545  13.899
83364SOL     OW51924   9.427   0.338  14.406
83364SOL    HW151925   9.383   0.417  14.374
83364SOL    HW251926   9.498   0.370  14.461
83365SOL     OW51927   9.144   0.294   8.129
83365SOL    HW151928   9.076   0.359   8.113
83365SOL    HW251929   9.207   0.307   8.058
83366SOL     OW51930  12.502   5.017  12.805
83366SOL    HW151931  12.466   5.104  12.790
83366SOL    HW251932  12.454   4.983  12.880
83367SOL     OW51933   6.209   8.298   6.152
83367SOL    HW151934   6.303   8.289   6.136
83367SOL    HW251935   6.168   8.240   6.088
83368SOL     OW51936   6.070   3.580  12.725
83368SOL    HW151937   6.052   3.667  12.760
83368SOL    HW251938   6.158   3.559  12.757
83369SOL     OW51939  10.880  12.792   5.074
83369SOL    HW151940  10.947  12.725   5.083
83369SOL    HW251941  10.919  12.871   5.112
83370SOL     OW51942   6.261   8.843  12.573
83370SOL    HW151943   6.207   8.914  12.538
83370SOL    HW251944   6.334   8.836  12.512
83371SOL     OW51945   2.693   6.132   5.876
83371SOL    HW151946   2.608   6.177   5.878
83371SOL    HW251947   2.672   6.041   5.859
83372SOL     OW51948   1.470   7.027  14.092
83372SOL    HW151949   1.547   7.013  14.148
83372SOL    HW251950   1.499   7.092  14.028
83373SOL     OW51951  11.073   1.306   7.703
83373SOL    HW151952  10.986   1.344   7.711
83373SOL    HW251953  11.094   1.273   7.791
83374SOL     OW51954   7.858  14.196   5.969
83374SOL    HW151955   7.818  14.111   5.982
83374SOL    HW251956   7.906  14.213   6.050
83375SOL     OW51957  14.236   6.711   6.690
83375SOL    HW151958  14.211   6.717   6.782
83375SOL    HW251959  14.293   6.786   6.676
83376SOL     OW51960   1.168  14.743  11.686
83376SOL    HW151961   1.148  14.790  11.605
83376SOL    HW251962   1.262  14.728  11.682
83377SOL     OW51963   5.800  12.460   7.525
83377SOL    HW151964   5.804  12.383   7.469
83377SOL    HW251965   5.762  12.429   7.607
83378SOL     OW51966   2.261   6.582  13.359
83378SOL    HW151967   2.331   6.576  13.424
83378SOL    HW251968   2.243   6.676  13.352
83379SOL     OW51969   6.767  14.720  13.344
83379SOL    HW151970   6.672  14.707  13.343
83379SOL    HW251971   6.802  14.634  13.368
83380SOL     OW51972   1.159  10.816  10.318
83380SOL    HW151973   1.174  10.904  10.352
83380SOL    HW251974   1.102  10.828  10.242
83381SOL     OW51975  12.303   9.000   4.453
83381SOL    HW151976  12.345   8.986   4.538
83381SOL    HW251977  12.372   8.979   4.389
83382SOL     OW51978   4.615  11.431   5.498
83382SOL    HW151979   4.707  11.408   5.508
83382SOL    HW251980   4.590  11.466   5.584
83383SOL     OW51981   9.523   6.267   0.011
83383SOL    HW151982   9.614   6.273   0.040
83383SOL    HW251983   9.522   6.192  14.823
83384SOL     OW51984   3.769   5.264  12.421
83384SOL    HW151985   3.732   5.305  12.342
83384SOL    HW251986   3.864   5.273  12.410
83385SOL     OW51987   2.925   4.420   9.188
83385SOL    HW151988   2.960   4.341   9.227
83385SOL    HW251989   2.973   4.431   9.106
83386SOL     OW51990   8.301   5.849  11.713
83386SOL    HW151991   8.254   5.801  11.781
83386SOL    HW251992   8.291   5.941  11.737
83387SOL     OW51993   9.060   7.185   9.730
83387SOL    HW151994   8.997   7.124   9.769
83387SOL    HW251995   9.052   7.264   9.783
83388SOL     OW51996   7.847   8.893  11.849
83388SOL    HW151997   7.888   8.965  11.897
83388SOL    HW251998   7.753   8.911  11.855
83389SOL     OW51999   5.784   7.303   6.569
83389SOL    HW152000   5.725   7.230   6.550
83389SOL    HW252001   5.793   7.302   6.665
83390SOL     OW52002   2.652   6.066   1.676
83390SOL    HW152003   2.675   6.093   1.765
83390SOL    HW252004   2.724   6.010   1.649
83391SOL     OW52005   8.124   6.322   9.358
83391SOL    HW152006   8.121   6.227   9.347
83391SOL    HW252007   8.055   6.356   9.302
83392SOL     OW52008   9.451   9.879   0.600
83392SOL    HW152009   9.457   9.790   0.568
83392SOL    HW252010   9.538   9.916   0.585
83393SOL     OW52011   5.061   5.974  14.097
83393SOL    HW152012   4.995   5.940  14.037
83393SOL    HW252013   5.133   6.001  14.040
83394SOL     OW52014   9.746   9.467   1.108
83394SOL    HW152015   9.681   9.462   1.039
83394SOL    HW252016   9.821   9.417   1.075
83395SOL     OW52017   1.984   9.542   9.507
83395SOL    HW152018   2.016   9.625   9.542
83395SOL    HW252019   1.943   9.565   9.424
83396SOL     OW52020   9.080   6.734  14.520
83396SOL    HW152021   9.057   6.823  14.494
83396SOL    HW252022   9.172   6.725  14.497
83397SOL     OW52023   7.739  11.873   8.125
83397SOL    HW152024   7.654  11.831   8.135
83397SOL    HW252025   7.748  11.887   8.031
83398SOL     OW52026   0.392  12.843   0.205
83398SOL    HW152027   0.445  12.859   0.127
83398SOL    HW252028   0.309  12.809   0.172
83399SOL     OW52029  11.851  12.151   1.960
83399SOL    HW152030  11.810  12.086   2.017
83399SOL    HW252031  11.911  12.101   1.905
83400SOL     OW52032   7.044   4.162   1.190
83400SOL    HW152033   7.014   4.229   1.128
83400SOL    HW252034   7.120   4.122   1.148
83401SOL     OW52035   7.800  10.504  12.007
83401SOL    HW152036   7.775  10.433  11.948
83401SOL    HW252037   7.888  10.530  11.978
83402SOL     OW52038   1.324   4.534   4.413
83402SOL    HW152039   1.347   4.478   4.487
83402SOL    HW252040   1.255   4.592   4.447
83403SOL     OW52041   3.982  11.820   2.978
83403SOL    HW152042   4.046  11.890   2.962
83403SOL    HW252043   3.994  11.796   3.070
83404SOL     OW52044  12.264  13.779   3.092
83404SOL    HW152045  12.292  13.688   3.082
83404SOL    HW252046  12.311  13.810   3.169
83405SOL     OW52047   0.513   2.645   6.907
83405SOL    HW152048   0.570   2.719   6.925
83405SOL    HW252049   0.560   2.569   6.941
83406SOL     OW52050   6.943  10.394   2.107
83406SOL    HW152051   7.004  10.425   2.175
83406SOL    HW252052   6.865  10.447   2.119
83407SOL     OW52053  13.748   6.461   5.721
83407SOL    HW152054  13.819   6.475   5.785
83407SOL    HW252055  13.690   6.398   5.764
83408SOL     OW52056   7.984   3.431  12.083
83408SOL    HW152057   7.910   3.437  12.144
83408SOL    HW252058   8.019   3.519  12.080
83409SOL     OW52059   9.089  12.591  11.731
83409SOL    HW152060   8.998  12.617  11.716
83409SOL    HW252061   9.139  12.640  11.666
83410SOL     OW52062   0.111   0.573  12.698
83410SOL    HW152063   0.112   0.506  12.765
83410SOL    HW252064   0.186   0.552  12.642
83411SOL     OW52065  14.087  13.286  14.027
83411SOL    HW152066  14.093  13.217  14.092
83411SOL    HW252067  14.068  13.365  14.077
83412SOL     OW52068   9.427   4.794   3.740
83412SOL    HW152069   9.400   4.880   3.769
83412SOL    HW252070   9.522   4.801   3.728
83413SOL     OW52071   7.119   2.825   2.046
83413SOL    HW152072   7.116   2.850   2.139
83413SOL    HW252073   7.041   2.771   2.033
83414SOL     OW52074   5.000  14.096   4.406
83414SOL    HW152075   5.085  14.054   4.419
83414SOL    HW252076   5.020  14.178   4.361
83415SOL     OW52077   9.468   1.288   6.289
83415SOL    HW152078   9.463   1.380   6.316
83415SOL    HW252079   9.556   1.279   6.252
83416SOL     OW52080   0.790   4.932  13.860
83416SOL    HW152081   0.745   4.889  13.933
83416SOL    HW252082   0.882   4.934  13.886
83417SOL     OW52083   3.208   8.734  14.145
83417SOL    HW152084   3.300   8.757  14.129
83417SOL    HW252085   3.166   8.817  14.165
83418SOL     OW52086  11.304  12.362  13.190
83418SOL    HW152087  11.214  12.356  13.160
83418SOL    HW252088  11.356  12.324  13.120
83419SOL     OW52089   8.689   1.207   0.774
83419SOL    HW152090   8.652   1.283   0.730
83419SOL    HW252091   8.688   1.229   0.867
83420SOL     OW52092   5.633   3.104   6.716
83420SOL    HW152093   5.719   3.135   6.744
83420SOL    HW252094   5.598   3.175   6.662
83421SOL     OW52095   7.117   0.655   2.960
83421SOL    HW152096   7.128   0.582   2.898
83421SOL    HW252097   7.083   0.727   2.906
83422SOL     OW52098   0.239  11.884   7.314
83422SOL    HW152099   0.322  11.932   7.323
83422SOL    HW252100   0.172  11.953   7.316
83423SOL     OW52101   9.893   9.437   1.474
83423SOL    HW152102   9.831   9.407   1.408
83423SOL    HW252103   9.872   9.530   1.487
83424SOL     OW52104  13.320  11.486  11.537
83424SOL    HW152105  13.325  11.563  11.594
83424SOL    HW252106  13.408  11.448  11.540
83425SOL     OW52107   1.767  12.742  10.014
83425SOL    HW152108   1.712  12.807  10.058
83425SOL    HW252109   1.758  12.663  10.066
83426SOL     OW52110  13.074   6.132   6.344
83426SOL    HW152111  13.081   6.110   6.252
83426SOL    HW252112  13.006   6.073   6.378
83427SOL     OW52113   2.089  14.003   0.135
83427SOL    HW152114   2.044  14.070   0.083
83427SOL    HW252115   2.174  14.041   0.155
83428SOL     OW52116   9.211   5.897   2.667
83428SOL    HW152117   9.141   5.956   2.638
83428SOL    HW252118   9.291   5.949   2.660
83429SOL     OW52119   6.758   8.520   8.684
83429SOL    HW152120   6.791   8.433   8.664
83429SOL    HW252121   6.689   8.506   8.748
83430SOL     OW52122   7.377   8.436   3.784
83430SOL    HW152123   7.300   8.490   3.804
83430SOL    HW252124   7.418   8.421   3.869
83431SOL     OW52125   9.984  11.003   7.487
83431SOL    HW152126   9.938  11.010   7.570
83431SOL    HW252127   9.942  10.930   7.442
83432SOL     OW52128  14.131   9.240   9.452
83432SOL    HW152129  14.181   9.238   9.534
83432SOL    HW252130  14.040   9.233   9.480
83433SOL     OW52131   0.190  12.782   4.272
83433SOL    HW152132   0.191  12.688   4.292
83433SOL    HW252133   0.182  12.824   4.358
83434SOL     OW52134   6.316   8.781   5.031
83434SOL    HW152135   6.329   8.783   4.936
83434SOL    HW252136   6.352   8.864   5.062
83435SOL     OW52137   0.963  14.406   5.356
83435SOL    HW152138   1.039  14.367   5.313
83435SOL    HW252139   0.993  14.492   5.384
83436SOL     OW52140   8.435   2.583  11.324
83436SOL    HW152141   8.379   2.639  11.270
83436SOL    HW252142   8.449   2.633  11.405
83437SOL     OW52143   2.421   4.853  12.852
83437SOL    HW152144   2.442   4.861  12.759
83437SOL    HW252145   2.334   4.813  12.854
83438SOL     OW52146   2.147   4.189   7.125
83438SOL    HW152147   2.225   4.209   7.176
83438SOL    HW252148   2.126   4.099   7.148
83439SOL     OW52149  13.460   6.576   1.156
83439SOL    HW152150  13.499   6.492   1.182
83439SOL    HW252151  13.513   6.605   1.082
83440SOL     OW52152   1.586   4.563   6.442
83440SOL    HW152153   1.494   4.574   6.466
83440SOL    HW252154   1.632   4.560   6.526
83441SOL     OW52155   8.787   2.307   5.219
83441SOL    HW152156   8.746   2.394   5.225
83441SOL    HW252157   8.881   2.326   5.214
83442SOL     OW52158   8.404  11.961   1.487
83442SOL    HW152159   8.346  11.898   1.528
83442SOL    HW252160   8.351  12.001   1.418
83443SOL     OW52161  13.427  13.228   5.943
83443SOL    HW152162  13.493  13.183   5.995
83443SOL    HW252163  13.412  13.311   5.988
83444SOL     OW52164   1.924  13.908   9.176
83444SOL    HW152165   1.846  13.958   9.199
83444SOL    HW252166   1.929  13.913   9.081
83445SOL     OW52167   8.364   4.693   1.846
83445SOL    HW152168   8.435   4.643   1.807
83445SOL    HW252169   8.408   4.752   1.907
83446SOL     OW52170   1.174   9.848   8.510
83446SOL    HW152171   1.242   9.809   8.455
83446SOL    HW252172   1.126   9.773   8.545
83447SOL     OW52173   7.239   3.970   1.141
83447SOL    HW152174   7.284   3.998   1.062
83447SOL    HW252175   7.266   3.879   1.153
83448SOL     OW52176   4.205   1.918  12.190
83448SOL    HW152177   4.217   1.906  12.096
83448SOL    HW252178   4.222   2.011  12.205
83449SOL     OW52179   4.871   1.483   3.821
83449SOL    HW152180   4.964   1.501   3.835
83449SOL    HW252181   4.858   1.497   3.728
83450SOL     OW52182   0.294   8.234   0.596
83450SOL    HW152183   0.374   8.189   0.625
83450SOL    HW252184   0.301   8.321   0.635
83451SOL     OW52185  14.685   4.013  14.155
83451SOL    HW152186  14.760   3.995  14.099
83451SOL    HW252187  14.694   3.951  14.228
83452SOL     OW52188   7.617   5.152   6.670
83452SOL    HW152189   7.652   5.133   6.583
83452SOL    HW252190   7.677   5.107   6.730
83453SOL     OW52191  11.227   8.925   9.938
83453SOL    HW152192  11.272   9.004   9.906
83453SOL    HW252193  11.261   8.854   9.883
83454SOL     OW52194   8.157  13.468  10.327
83454SOL    HW152195   8.153  13.436  10.237
83454SOL    HW252196   8.208  13.548  10.322
83455SOL     OW52197   0.178   5.483   8.647
83455SOL    HW152198   0.137   5.401   8.674
83455SOL    HW252199   0.172   5.539   8.725
83456SOL     OW52200   6.792   7.227   6.687
83456SOL    HW152201   6.772   7.133   6.691
83456SOL    HW252202   6.708   7.268   6.665
83457SOL     OW52203   6.963   4.183   2.899
83457SOL    HW152204   6.989   4.120   2.966
83457SOL    HW252205   6.993   4.267   2.931
83458SOL     OW52206   7.112   5.814   2.775
83458SOL    HW152207   7.063   5.827   2.694
83458SOL    HW252208   7.097   5.722   2.796
83459SOL     OW52209  13.333   5.514   6.425
83459SOL    HW152210  13.273   5.589   6.420
83459SOL    HW252211  13.305   5.467   6.504
83460SOL     OW52212  11.764  14.081   8.897
83460SOL    HW152213  11.688  14.127   8.933
83460SOL    HW252214  11.821  14.067   8.973
83461SOL     OW52215   6.647  13.957   4.511
83461SOL    HW152216   6.716  13.988   4.452
83461SOL    HW252217   6.634  14.029   4.572
83462SOL     OW52218   8.472   0.672  14.068
83462SOL    HW152219   8.516   0.591  14.094
83462SOL    HW252220   8.497   0.735  14.135
83463SOL     OW52221   1.702  14.489   9.022
83463SOL    HW152222   1.776  14.462   9.076
83463SOL    HW252223   1.707  14.434   8.944
83464SOL     OW52224   9.786   4.114   8.782
83464SOL    HW152225   9.878   4.115   8.756
83464SOL    HW252226   9.767   4.204   8.806
83465SOL     OW52227  12.024  13.551   8.991
83465SOL    HW152228  12.011  13.487   8.921
83465SOL    HW252229  11.989  13.633   8.956
83466SOL     OW52230  10.004   3.175   9.695
83466SOL    HW152231   9.961   3.212   9.618
83466SOL    HW252232  10.097   3.195   9.681
83467SOL     OW52233   3.178  13.583   5.513
83467SOL    HW152234   3.130  13.580   5.596
83467SOL    HW252235   3.191  13.677   5.497
83468SOL     OW52236   9.839   6.377  13.261
83468SOL    HW152237   9.920   6.406  13.303
83468SOL    HW252238   9.779   6.359  13.334
83469SOL     OW52239   1.080   6.555  10.501
83469SOL    HW152240   1.072   6.573  10.594
83469SOL    HW252241   1.172   6.574  10.480
83470SOL     OW52242   1.948   1.187  14.573
83470SOL    HW152243   1.866   1.234  14.556
83470SOL    HW252244   1.927   1.095  14.556
83471SOL     OW52245   6.636   8.893  13.196
83471SOL    HW152246   6.646   8.964  13.259
83471SOL    HW252247   6.722   8.883  13.156
83472SOL     OW52248   2.623   0.757   7.926
83472SOL    HW152249   2.604   0.748   7.832
83472SOL    HW252250   2.555   0.816   7.958
83473SOL     OW52251   5.310  14.359   4.188
83473SOL    HW152252   5.277  14.428   4.130
83473SOL    HW252253   5.326  14.285   4.129
83474SOL     OW52254   8.835   8.285   7.138
83474SOL    HW152255   8.784   8.205   7.124
83474SOL    HW252256   8.793   8.327   7.212
83475SOL     OW52257   2.459   1.892  10.814
83475SOL    HW152258   2.453   1.973  10.764
83475SOL    HW252259   2.461   1.919  10.905
83476SOL     OW52260  11.679   4.371  11.676
83476SOL    HW152261  11.609   4.319  11.637
83476SOL    HW252262  11.691   4.445  11.616
83477SOL     OW52263   1.042   3.279  13.369
83477SOL    HW152264   1.024   3.224  13.445
83477SOL    HW252265   1.135   3.265  13.351
83478SOL     OW52266   8.073   5.060  11.314
83478SOL    HW152267   7.990   5.046  11.358
83478SOL    HW252268   8.051   5.063  11.221
83479SOL     OW52269   4.973   7.101  12.997
83479SOL    HW152270   4.891   7.136  12.962
83479SOL    HW252271   4.949   7.064  13.082
83480SOL     OW52272   3.462  11.413  10.865
83480SOL    HW152273   3.450  11.461  10.783
83480SOL    HW252274   3.489  11.325  10.837
83481SOL     OW52275   2.428   7.793   3.069
83481SOL    HW152276   2.338   7.802   3.098
83481SOL    HW252277   2.433   7.845   2.988
83482SOL     OW52278  12.204  11.160   4.424
83482SOL    HW152279  12.297  11.178   4.407
83482SOL    HW252280  12.157  11.222   4.368
83483SOL     OW52281   1.649   9.551   9.384
83483SOL    HW152282   1.608   9.544   9.298
83483SOL    HW252283   1.648   9.462   9.419
83484SOL     OW52284   9.703   0.957   7.454
83484SOL    HW152285   9.744   0.917   7.530
83484SOL    HW252286   9.614   0.977   7.482
83485SOL     OW52287   1.019   2.027   5.833
83485SOL    HW152288   1.085   2.076   5.883
83485SOL    HW252289   0.937   2.075   5.849
83486SOL     OW52290  10.993   5.662   2.918
83486SOL    HW152291  10.949   5.744   2.941
83486SOL    HW252292  10.996   5.613   3.001
83487SOL     OW52293  10.116   0.656  14.738
83487SOL    HW152294  10.068   0.723  14.689
83487SOL    HW252295  10.189   0.703  14.777
83488SOL     OW52296  10.797   1.935   3.723
83488SOL    HW152297  10.752   2.016   3.749
83488SOL    HW252298  10.734   1.865   3.742
83489SOL     OW52299   3.183   5.013  14.195
83489SOL    HW152300   3.189   5.068  14.118
83489SOL    HW252301   3.089   5.002  14.210
83490SOL     OW52302   5.302   0.068   7.031
83490SOL    HW152303   5.326  14.854   7.064
83490SOL    HW252304   5.244   0.051   6.958
83491SOL     OW52305  12.919  10.651   2.054
83491SOL    HW152306  12.950  10.593   2.124
83491SOL    HW252307  12.951  10.738   2.080
83492SOL     OW52308   9.213   9.383   5.255
83492SOL    HW152309   9.214   9.293   5.287
83492SOL    HW252310   9.305   9.411   5.260
83493SOL     OW52311   1.887   0.233  14.616
83493SOL    HW152312   1.874   0.158  14.559
83493SOL    HW252313   1.943   0.200  14.686
83494SOL     OW52314   8.363  12.366   0.549
83494SOL    HW152315   8.416  12.353   0.470
83494SOL    HW252316   8.355  12.279   0.587
83495SOL     OW52317  13.439  11.644   6.364
83495SOL    HW152318  13.462  11.622   6.274
83495SOL    HW252319  13.387  11.569   6.394
83496SOL     OW52320   8.016   8.714  12.949
83496SOL    HW152321   8.064   8.646  12.996
83496SOL    HW252322   8.025   8.690  12.857
83497SOL     OW52323   8.006   1.599  13.737
83497SOL    HW152324   8.018   1.568  13.648
83497SOL    HW252325   8.001   1.694  13.729
83498SOL     OW52326   0.902  11.539   6.010
83498SOL    HW152327   0.964  11.606   6.040
83498SOL    HW252328   0.957  11.466   5.982
83499SOL     OW52329   6.942   7.715   8.242
83499SOL    HW152330   6.857   7.728   8.200
83499SOL    HW252331   7.003   7.705   8.169
83500SOL     OW52332  12.490   9.690   4.579
83500SOL    HW152333  12.477   9.605   4.536
83500SOL    HW252334  12.459   9.676   4.668
83501SOL     OW52335   2.878   9.257  10.234
83501SOL    HW152336   2.917   9.323  10.176
83501SOL    HW252337   2.787   9.283  10.242
83502SOL     OW52338   7.270   1.641   3.408
83502SOL    HW152339   7.338   1.708   3.415
83502SOL    HW252340   7.313   1.569   3.361
83503SOL     OW52341   4.689   2.922   6.824
83503SOL    HW152342   4.610   2.883   6.787
83503SOL    HW252343   4.753   2.850   6.825
83504SOL     OW52344   8.838   3.169   8.338
83504SOL    HW152345   8.872   3.110   8.405
83504SOL    HW252346   8.789   3.112   8.278
83505SOL     OW52347   2.657  10.620   9.886
83505SOL    HW152348   2.600  10.692   9.913
83505SOL    HW252349   2.655  10.558   9.960
83506SOL     OW52350  11.484   9.722   2.932
83506SOL    HW152351  11.507   9.661   3.002
83506SOL    HW252352  11.568   9.754   2.899
83507SOL     OW52353  12.998  14.159  12.883
83507SOL    HW152354  12.954  14.118  12.808
83507SOL    HW252355  13.007  14.088  12.947
83508SOL     OW52356   1.643   4.772  12.791
83508SOL    HW152357   1.679   4.789  12.704
83508SOL    HW252358   1.630   4.859  12.829
83509SOL     OW52359   3.440   2.455  11.187
83509SOL    HW152360   3.427   2.548  11.167
83509SOL    HW252361   3.372   2.434  11.251
83510SOL     OW52362  11.573   3.326   6.450
83510SOL    HW152363  11.637   3.272   6.495
83510SOL    HW252364  11.553   3.277   6.370
83511SOL     OW52365  10.091   5.887   7.342
83511SOL    HW152366  10.091   5.967   7.290
83511SOL    HW252367  10.006   5.886   7.386
83512SOL     OW52368   0.674   4.608   0.110
83512SOL    HW152369   0.706   4.647   0.192
83512SOL    HW252370   0.752   4.566   0.072
83513SOL     OW52371  14.029   8.100   0.013
83513SOL    HW152372  14.063   8.135   0.095
83513SOL    HW252373  14.077   8.017   0.001
83514SOL     OW52374   9.091   9.202   6.984
83514SOL    HW152375   9.118   9.213   7.076
83514SOL    HW252376   9.173   9.183   6.938
83515SOL     OW52377  11.148   0.375   6.256
83515SOL    HW152378  11.227   0.321   6.254
83515SOL    HW252379  11.178   0.463   6.236
83516SOL     OW52380   3.667   0.838   7.160
83516SOL    HW152381   3.606   0.855   7.088
83516SOL    HW252382   3.754   0.850   7.121
83517SOL     OW52383   6.706   0.225  11.771
83517SOL    HW152384   6.696   0.131  11.756
83517SOL    HW252385   6.780   0.250  11.716
83518SOL     OW52386   9.661   2.656   4.181
83518SOL    HW152387   9.590   2.720   4.175
83518SOL    HW252388   9.668   2.637   4.275
83519SOL     OW52389   6.256   5.037   4.370
83519SOL    HW152390   6.348   5.031   4.342
83519SOL    HW252391   6.222   4.948   4.359
83520SOL     OW52392   8.427   6.109  13.765
83520SOL    HW152393   8.447   6.030  13.816
83520SOL    HW252394   8.355   6.150  13.812
83521SOL     OW52395   3.276  12.041   7.570
83521SOL    HW152396   3.255  12.132   7.588
83521SOL    HW252397   3.213  11.991   7.623
83522SOL     OW52398   9.225   3.067   4.436
83522SOL    HW152399   9.313   3.030   4.441
83522SOL    HW252400   9.221   3.130   4.507
83523SOL     OW52401   3.455   0.949   0.869
83523SOL    HW152402   3.419   0.956   0.957
83523SOL    HW252403   3.468   1.040   0.840
83524SOL     OW52404   4.131   0.993   4.795
83524SOL    HW152405   4.103   1.084   4.795
83524SOL    HW252406   4.191   0.986   4.720
83525SOL     OW52407   5.260  14.121  13.202
83525SOL    HW152408   5.192  14.183  13.177
83525SOL    HW252409   5.313  14.110  13.123
83526SOL     OW52410  10.514   1.368  12.300
83526SOL    HW152411  10.571   1.334  12.231
83526SOL    HW252412  10.482   1.289  12.344
83527SOL     OW52413   6.546  12.185   0.991
83527SOL    HW152414   6.513  12.145   0.911
83527SOL    HW252415   6.585  12.112   1.039
83528SOL     OW52416   2.666  11.524   5.814
83528SOL    HW152417   2.664  11.447   5.757
83528SOL    HW252418   2.614  11.499   5.890
83529SOL     OW52419   2.666   8.770  13.094
83529SOL    HW152420   2.686   8.725  13.175
83529SOL    HW252421   2.582   8.814  13.111
83530SOL     OW52422   3.561  13.959   2.830
83530SOL    HW152423   3.525  14.045   2.810
83530SOL    HW252424   3.654  13.965   2.809
83531SOL     OW52425   4.373  13.424   9.681
83531SOL    HW152426   4.352  13.517   9.673
83531SOL    HW252427   4.410  13.415   9.768
83532SOL     OW52428   6.183  11.399  10.450
83532SOL    HW152429   6.152  11.326  10.503
83532SOL    HW252430   6.277  11.383  10.439
83533SOL     OW52431   4.120   8.545  10.651
83533SOL    HW152432   4.163   8.466  10.620
83533SOL    HW252433   4.084   8.522  10.737
83534SOL     OW52434  10.544   4.941  14.114
83534SOL    HW152435  10.622   4.961  14.062
83534SOL    HW252436  10.555   4.992  14.194
83535SOL     OW52437  11.213   5.740   4.932
83535SOL    HW152438  11.286   5.723   4.992
83535SOL    HW252439  11.255   5.765   4.850
83536SOL     OW52440  12.025  12.750   2.988
83536SOL    HW152441  11.967  12.777   3.059
83536SOL    HW252442  12.111  12.739   3.029
83537SOL     OW52443   4.783  10.327   3.429
83537SOL    HW152444   4.871  10.357   3.450
83537SOL    HW252445   4.793  10.232   3.415
83538SOL     OW52446   2.316   4.848   2.895
83538SOL    HW152447   2.378   4.897   2.841
83538SOL    HW252448   2.318   4.892   2.980
83539SOL     OW52449  13.962   3.077  13.008
83539SOL    HW152450  13.891   3.034  13.054
83539SOL    HW252451  13.945   3.061  12.915
83540SOL     OW52452   4.590   6.028  13.689
83540SOL    HW152453   4.548   5.946  13.714
83540SOL    HW252454   4.621   6.014  13.600
83541SOL     OW52455   9.382   2.434   9.286
83541SOL    HW152456   9.392   2.483   9.204
83541SOL    HW252457   9.288   2.421   9.295
83542SOL     OW52458  12.148   8.645  13.891
83542SOL    HW152459  12.056   8.667  13.874
83542SOL    HW252460  12.188   8.641  13.804
83543SOL     OW52461  10.566   4.301   1.841
83543SOL    HW152462  10.472   4.299   1.822
83543SOL    HW252463  10.590   4.393   1.832
83544SOL     OW52464  12.555   1.619   7.910
83544SOL    HW152465  12.486   1.657   7.856
83544SOL    HW252466  12.572   1.685   7.977
83545SOL     OW52467   4.791  12.190  13.742
83545SOL    HW152468   4.800  12.095  13.752
83545SOL    HW252469   4.717  12.201  13.682
83546SOL     OW52470  10.019   7.672   7.855
83546SOL    HW152471  10.001   7.765   7.840
83546SOL    HW252472  10.004   7.630   7.770
83547SOL     OW52473   0.328   6.391   7.518
83547SOL    HW152474   0.366   6.417   7.433
83547SOL    HW252475   0.299   6.301   7.504
83548SOL     OW52476  11.498   3.443   5.973
83548SOL    HW152477  11.538   3.394   6.046
83548SOL    HW252478  11.542   3.410   5.895
83549SOL     OW52479   9.134  13.940   9.558
83549SOL    HW152480   9.166  13.859   9.520
83549SOL    HW252481   9.048  13.954   9.520
83550SOL     OW52482   2.547   8.640   9.649
83550SOL    HW152483   2.500   8.558   9.664
83550SOL    HW252484   2.482   8.708   9.665
83551SOL     OW52485   8.502   5.614   2.944
83551SOL    HW152486   8.509   5.520   2.927
83551SOL    HW252487   8.437   5.645   2.880
83552SOL     OW52488   7.320   6.643   8.215
83552SOL    HW152489   7.249   6.590   8.180
83552SOL    HW252490   7.346   6.700   8.142
83553SOL     OW52491  13.764   4.890   4.685
83553SOL    HW152492  13.711   4.812   4.701
83553SOL    HW252493  13.760   4.939   4.767
83554SOL     OW52494   3.963   7.381   7.057
83554SOL    HW152495   3.958   7.293   7.020
83554SOL    HW252496   4.008   7.369   7.141
83555SOL     OW52497   8.889  12.022  12.062
83555SOL    HW152498   8.976  11.998  12.095
83555SOL    HW252499   8.899  12.023  11.967
83556SOL     OW52500   7.548   1.012  11.473
83556SOL    HW152501   7.454   1.024  11.468
83556SOL    HW252502   7.562   0.951  11.545
83557SOL     OW52503   2.799   0.867   0.490
83557SOL    HW152504   2.831   0.787   0.448
83557SOL    HW252505   2.704   0.858   0.491
83558SOL     OW52506   0.356   1.209   4.516
83558SOL    HW152507   0.295   1.159   4.571
83558SOL    HW252508   0.365   1.157   4.437
83559SOL     OW52509   2.057   0.912   3.867
83559SOL    HW152510   2.139   0.864   3.855
83559SOL    HW252511   2.068   0.991   3.814
83560SOL     OW52512   7.954  12.351   4.640
83560SOL    HW152513   8.037  12.328   4.681
83560SOL    HW252514   7.912  12.267   4.622
83561SOL     OW52515   3.570  12.967   9.975
83561SOL    HW152516   3.579  13.031  10.045
83561SOL    HW252517   3.478  12.940   9.979
83562SOL     OW52518  14.708   3.935   0.222
83562SOL    HW152519  14.625   3.893   0.202
83562SOL    HW252520  14.769   3.863   0.238
83563SOL     OW52521  12.348  13.195   6.000
83563SOL    HW152522  12.265  13.209   6.046
83563SOL    HW252523  12.415  13.217   6.064
83564SOL     OW52524   3.962  11.378   5.272
83564SOL    HW152525   3.989  11.287   5.261
83564SOL    HW252526   4.036  11.428   5.237
83565SOL     OW52527   7.839  10.216   1.445
83565SOL    HW152528   7.926  10.254   1.441
83565SOL    HW252529   7.855  10.122   1.455
83566SOL     OW52530   1.300   6.066   1.810
83566SOL    HW152531   1.223   6.026   1.852
83566SOL    HW252532   1.262   6.123   1.743
83567SOL     OW52533  14.546   2.927  11.462
83567SOL    HW152534  14.501   3.010  11.448
83567SOL    HW252535  14.632   2.940  11.421
83568SOL     OW52536   9.448   6.448   5.596
83568SOL    HW152537   9.446   6.432   5.501
83568SOL    HW252538   9.465   6.362   5.634
83569SOL     OW52539   9.795   8.640   6.450
83569SOL    HW152540   9.885   8.657   6.476
83569SOL    HW252541   9.742   8.673   6.523
83570SOL     OW52542   3.598  10.980  12.316
83570SOL    HW152543   3.563  11.027  12.392
83570SOL    HW252544   3.559  10.892  12.323
83571SOL     OW52545   1.593   4.574  11.622
83571SOL    HW152546   1.629   4.594  11.536
83571SOL    HW252547   1.621   4.485  11.640
83572SOL     OW52548   6.375   6.739   7.626
83572SOL    HW152549   6.317   6.664   7.611
83572SOL    HW252550   6.321   6.815   7.603
83573SOL     OW52551  13.078  12.492  13.451
83573SOL    HW152552  13.016  12.473  13.521
83573SOL    HW252553  13.151  12.431  13.466
83574SOL     OW52554   6.124   1.002  13.770
83574SOL    HW152555   6.085   0.944  13.704
83574SOL    HW252556   6.142   1.084  13.723
83575SOL     OW52557   2.801   1.181   4.910
83575SOL    HW152558   2.817   1.232   4.831
83575SOL    HW252559   2.880   1.129   4.921
83576SOL     OW52560   6.845   3.557   6.371
83576SOL    HW152561   6.799   3.639   6.356
83576SOL    HW252562   6.788   3.507   6.429
83577SOL     OW52563   0.269  13.747   5.372
83577SOL    HW152564   0.214  13.810   5.419
83577SOL    HW252565   0.355  13.753   5.415
83578SOL     OW52566  14.376  13.497  13.425
83578SOL    HW152567  14.467  13.505  13.396
83578SOL    HW252568  14.327  13.555  13.366
83579SOL     OW52569   0.469  13.450  14.258
83579SOL    HW152570   0.521  13.369  14.262
83579SOL    HW252571   0.433  13.460  14.346
83580SOL     OW52572   5.094   1.691  14.516
83580SOL    HW152573   5.135   1.761  14.567
83580SOL    HW252574   5.020   1.663  14.570
83581SOL     OW52575  13.490  14.521   5.710
83581SOL    HW152576  13.421  14.577   5.744
83581SOL    HW252577  13.453  14.432   5.716
83582SOL     OW52578   2.107  14.800   1.567
83582SOL    HW152579   2.083  14.771   1.655
83582SOL    HW252580   2.193  14.839   1.578
83583SOL     OW52581  13.405  11.289  12.883
83583SOL    HW152582  13.314  11.258  12.877
83583SOL    HW252583  13.440  11.279  12.795
83584SOL     OW52584  10.029  10.698   6.800
83584SOL    HW152585  10.041  10.741   6.716
83584SOL    HW252586   9.945  10.729   6.832
83585SOL     OW52587   7.517  14.411  14.516
83585SOL    HW152588   7.543  14.483  14.458
83585SOL    HW252589   7.422  14.412  14.514
83586SOL     OW52590   5.762   4.890   5.913
83586SOL    HW152591   5.707   4.962   5.946
83586SOL    HW252592   5.783   4.839   5.991
83587SOL     OW52593  10.998   2.989  10.114
83587SOL    HW152594  11.040   2.949  10.038
83587SOL    HW252595  10.942   2.920  10.150
83588SOL     OW52596   0.593  13.530   4.257
83588SOL    HW152597   0.671  13.539   4.203
83588SOL    HW252598   0.611  13.455   4.314
83589SOL     OW52599  12.703  13.821  10.650
83589SOL    HW152600  12.778  13.793  10.598
83589SOL    HW252601  12.721  13.912  10.671
83590SOL     OW52602   3.923  13.385  11.439
83590SOL    HW152603   3.960  13.409  11.524
83590SOL    HW252604   3.946  13.458  11.381
83591SOL     OW52605   9.270   5.278  12.441
83591SOL    HW152606   9.344   5.335  12.465
83591SOL    HW252607   9.193   5.335  12.445
83592SOL     OW52608  10.490   0.202   1.934
83592SOL    HW152609  10.452   0.257   2.003
83592SOL    HW252610  10.542   0.137   1.981
83593SOL     OW52611   4.674   3.272   0.405
83593SOL    HW152612   4.579   3.282   0.409
83593SOL    HW252613   4.698   3.306   0.318
83594SOL     OW52614   2.693   8.346  14.349
83594SOL    HW152615   2.754   8.278  14.379
83594SOL    HW252616   2.654   8.380  14.429
83595SOL     OW52617   9.981  12.496   4.756
83595SOL    HW152618  10.024  12.421   4.715
83595SOL    HW252619  10.009  12.571   4.705
83596SOL     OW52620   4.285  14.186  10.548
83596SOL    HW152621   4.372  14.215  10.574
83596SOL    HW252622   4.226  14.252  10.586
83597SOL     OW52623   9.301  12.708   7.370
83597SOL    HW152624   9.282  12.659   7.290
83597SOL    HW252625   9.270  12.796   7.351
83598SOL     OW52626   0.373   1.213  10.965
83598SOL    HW152627   0.303   1.156  10.997
83598SOL    HW252628   0.354   1.299  11.003
83599SOL     OW52629  10.893   8.216  12.285
83599SOL    HW152630  10.895   8.311  12.295
83599SOL    HW252631  10.812   8.188  12.328
83600SOL     OW52632  13.479   9.296   0.498
83600SOL    HW152633  13.418   9.358   0.456
83600SOL    HW252634  13.422   9.239   0.550
83601SOL     OW52635   8.291   1.278   9.691
83601SOL    HW152636   8.209   1.276   9.642
83601SOL    HW252637   8.345   1.341   9.644
83602SOL     OW52638   4.680   0.854  13.358
83602SOL    HW152639   4.610   0.872  13.295
83602SOL    HW252640   4.740   0.796  13.311
83603SOL     OW52641   7.163   1.028   8.463
83603SOL    HW152642   7.114   0.966   8.409
83603SOL    HW252643   7.254   1.018   8.433
83604SOL     OW52644   3.965   7.346   0.623
83604SOL    HW152645   3.977   7.396   0.542
83604SOL    HW252646   3.946   7.412   0.689
83605SOL     OW52647   1.009   7.220   3.004
83605SOL    HW152648   1.088   7.208   2.952
83605SOL    HW252649   0.985   7.132   3.032
83606SOL     OW52650   0.412  12.184  13.604
83606SOL    HW152651   0.466  12.156  13.678
83606SOL    HW252652   0.322  12.167  13.632
83607SOL     OW52653  13.959  10.828   2.717
83607SOL    HW152654  13.959  10.764   2.788
83607SOL    HW252655  13.867  10.833   2.690
83608SOL     OW52656   8.854  10.560  14.035
83608SOL    HW152657   8.915  10.527  13.970
83608SOL    HW252658   8.797  10.485  14.054
83609SOL     OW52659  13.347   9.885  13.663
83609SOL    HW152660  13.328   9.939  13.740
83609SOL    HW252661  13.330   9.796  13.693
83610SOL     OW52662   3.449   8.610  13.380
83610SOL    HW152663   3.397   8.635  13.304
83610SOL    HW252664   3.409   8.529  13.412
83611SOL     OW52665  14.634  10.352  13.004
83611SOL    HW152666  14.575  10.315  12.939
83611SOL    HW252667  14.584  10.351  13.086
83612SOL     OW52668   1.937   2.446   2.793
83612SOL    HW152669   2.012   2.451   2.733
83612SOL    HW252670   1.862   2.467   2.738
83613SOL     OW52671   9.283  13.813   7.369
83613SOL    HW152672   9.235  13.794   7.288
83613SOL    HW252673   9.369  13.842   7.340
83614SOL     OW52674   0.650   3.298   8.465
83614SOL    HW152675   0.566   3.338   8.444
83614SOL    HW252676   0.667   3.238   8.393
83615SOL     OW52677   8.400   4.935   5.471
83615SOL    HW152678   8.369   4.972   5.553
83615SOL    HW252679   8.493   4.957   5.468
83616SOL     OW52680   1.032   7.830   3.062
83616SOL    HW152681   0.959   7.801   3.007
83616SOL    HW252682   1.082   7.751   3.080
83617SOL     OW52683  13.535  10.794   3.431
83617SOL    HW152684  13.509  10.807   3.340
83617SOL    HW252685  13.605  10.729   3.428
83618SOL     OW52686   0.144  12.880   4.523
83618SOL    HW152687   0.177  12.955   4.573
83618SOL    HW252688   0.055  12.866   4.558
83619SOL     OW52689  13.930   7.954   6.982
83619SOL    HW152690  13.845   7.940   6.941
83619SOL    HW252691  13.925   8.042   7.021
83620SOL     OW52692   5.469   3.539  10.802
83620SOL    HW152693   5.470   3.469  10.868
83620SOL    HW252694   5.561   3.563  10.792
83621SOL     OW52695   1.523  11.088  13.877
83621SOL    HW152696   1.559  11.149  13.812
83621SOL    HW252697   1.563  11.003  13.855
83622SOL     OW52698   7.005  13.337   0.555
83622SOL    HW152699   7.000  13.347   0.650
83622SOL    HW252700   7.091  13.373   0.531
83623SOL     OW52701   8.767   7.671   7.552
83623SOL    HW152702   8.767   7.718   7.636
83623SOL    HW252703   8.816   7.591   7.570
83624SOL     OW52704  11.858   2.306   7.177
83624SOL    HW152705  11.872   2.379   7.238
83624SOL    HW252706  11.764   2.288   7.183
83625SOL     OW52707  13.610   8.514   1.737
83625SOL    HW152708  13.687   8.557   1.699
83625SOL    HW252709  13.590   8.443   1.676
83626SOL     OW52710   5.219  14.247  12.790
83626SOL    HW152711   5.212  14.320  12.852
83626SOL    HW252712   5.284  14.188  12.829
83627SOL     OW52713   5.611   1.285   2.293
83627SOL    HW152714   5.544   1.350   2.317
83627SOL    HW252715   5.656   1.266   2.375
83628SOL     OW52716   8.128  12.703   4.557
83628SOL    HW152717   8.036  12.723   4.574
83628SOL    HW252718   8.176  12.767   4.610
83629SOL     OW52719  14.272   4.065   7.665
83629SOL    HW152720  14.258   4.043   7.573
83629SOL    HW252721  14.217   4.142   7.679
83630SOL     OW52722  13.139   4.255   6.935
83630SOL    HW152723  13.175   4.302   6.859
83630SOL    HW252724  13.196   4.280   7.008
83631SOL     OW52725   4.327  11.341   9.841
83631SOL    HW152726   4.328  11.278   9.913
83631SOL    HW252727   4.285  11.296   9.769
83632SOL     OW52728   1.039  13.508   4.788
83632SOL    HW152729   1.126  13.505   4.749
83632SOL    HW252730   1.011  13.417   4.791
83633SOL     OW52731   7.564   1.076   8.657
83633SOL    HW152732   7.558   1.074   8.562
83633SOL    HW252733   7.479   1.044   8.688
83634SOL     OW52734  11.915  14.442   7.188
83634SOL    HW152735  11.940  14.356   7.221
83634SOL    HW252736  11.924  14.435   7.093
83635SOL     OW52737  12.167   8.941   6.310
83635SOL    HW152738  12.197   8.854   6.335
83635SOL    HW252739  12.168   8.940   6.214
83636SOL     OW52740  10.345   7.281   9.444
83636SOL    HW152741  10.315   7.198   9.405
83636SOL    HW252742  10.306   7.282   9.531
83637SOL     OW52743   4.545   8.684   7.348
83637SOL    HW152744   4.532   8.601   7.394
83637SOL    HW252745   4.636   8.706   7.364
83638SOL     OW52746   2.438   1.011   3.146
83638SOL    HW152747   2.493   0.941   3.112
83638SOL    HW252748   2.494   1.059   3.207
83639SOL     OW52749   2.870  10.569  11.192
83639SOL    HW152750   2.925  10.627  11.245
83639SOL    HW252751   2.915  10.564  11.108
83640SOL     OW52752   8.178   1.002  12.276
83640SOL    HW152753   8.201   1.069  12.339
83640SOL    HW252754   8.157   0.925  12.328
83641SOL     OW52755   1.453   5.197   6.826
83641SOL    HW152756   1.368   5.212   6.785
83641SOL    HW252757   1.491   5.284   6.835
83642SOL     OW52758  10.802   5.680  12.351
83642SOL    HW152759  10.852   5.657  12.430
83642SOL    HW252760  10.859   5.742  12.305
83643SOL     OW52761   5.571  10.782  13.491
83643SOL    HW152762   5.522  10.864  13.481
83643SOL    HW252763   5.560  10.737  13.407
83644SOL     OW52764   4.487   5.154   8.182
83644SOL    HW152765   4.556   5.196   8.234
83644SOL    HW252766   4.408   5.163   8.234
83645SOL     OW52767   9.334  13.682   4.279
83645SOL    HW152768   9.306  13.736   4.354
83645SOL    HW252769   9.256  13.677   4.223
83646SOL     OW52770  13.478   6.090   7.106
83646SOL    HW152771  13.476   5.995   7.095
83646SOL    HW252772  13.388   6.114   7.129
83647SOL     OW52773   8.533   3.921   3.767
83647SOL    HW152774   8.622   3.953   3.749
83647SOL    HW252775   8.534   3.897   3.859
83648SOL     OW52776   3.811  12.761   0.510
83648SOL    HW152777   3.831  12.790   0.421
83648SOL    HW252778   3.766  12.677   0.498
83649SOL     OW52779   4.277   3.631   3.633
83649SOL    HW152780   4.272   3.677   3.716
83649SOL    HW252781   4.333   3.686   3.578
83650SOL     OW52782  13.708  11.093  12.086
83650SOL    HW152783  13.689  11.002  12.063
83650SOL    HW252784  13.642  11.116  12.151
83651SOL     OW52785   5.900   4.211  10.260
83651SOL    HW152786   5.840   4.139  10.242
83651SOL    HW252787   5.968   4.203  10.194
83652SOL     OW52788   4.382  13.264   2.165
83652SOL    HW152789   4.304  13.214   2.143
83652SOL    HW252790   4.357  13.355   2.152
83653SOL     OW52791   6.112   2.029   8.041
83653SOL    HW152792   6.163   2.029   7.960
83653SOL    HW252793   6.076   2.117   8.047
83654SOL     OW52794   0.370   0.647  12.465
83654SOL    HW152795   0.408   0.561  12.448
83654SOL    HW252796   0.439   0.696  12.510
83655SOL     OW52797   2.645  11.394   6.988
83655SOL    HW152798   2.673  11.420   6.900
83655SOL    HW252799   2.587  11.465   7.016
83656SOL     OW52800  12.029  10.472   0.077
83656SOL    HW152801  11.953  10.425   0.045
83656SOL    HW252802  12.103  10.432   0.032
83657SOL     OW52803   5.193  14.060   1.919
83657SOL    HW152804   5.157  13.974   1.897
83657SOL    HW252805   5.221  14.096   1.835
83658SOL     OW52806   4.587  14.146  14.303
83658SOL    HW152807   4.605  14.085  14.374
83658SOL    HW252808   4.492  14.159  14.306
83659SOL     OW52809   7.682   1.176   2.914
83659SOL    HW152810   7.706   1.177   3.007
83659SOL    HW252811   7.671   1.083   2.893
83660SOL     OW52812  10.085   9.551   5.023
83660SOL    HW152813  10.004   9.557   4.973
83660SOL    HW252814  10.146   9.507   4.964
83661SOL     OW52815  14.085  11.212   5.758
83661SOL    HW152816  14.152  11.232   5.822
83661SOL    HW252817  14.111  11.259   5.679
83662SOL     OW52818   3.571   8.386   5.625
83662SOL    HW152819   3.535   8.443   5.693
83662SOL    HW252820   3.643   8.339   5.669
83663SOL     OW52821  10.183   6.397   2.638
83663SOL    HW152822  10.163   6.476   2.589
83663SOL    HW252823  10.205   6.427   2.725
83664SOL     OW52824  14.741   5.176  11.775
83664SOL    HW152825  14.825   5.130  11.775
83664SOL    HW252826  14.715   5.175  11.683
83665SOL     OW52827  11.563   4.418   5.670
83665SOL    HW152828  11.550   4.329   5.703
83665SOL    HW252829  11.631   4.455   5.726
83666SOL     OW52830   2.045   1.184   4.267
83666SOL    HW152831   2.139   1.176   4.283
83666SOL    HW252832   2.026   1.116   4.202
83667SOL     OW52833   5.553   6.192  12.835
83667SOL    HW152834   5.512   6.166  12.919
83667SOL    HW252835   5.567   6.286  12.844
83668SOL     OW52836   2.909  11.117   2.651
83668SOL    HW152837   2.829  11.072   2.675
83668SOL    HW252838   2.964  11.050   2.610
83669SOL     OW52839   5.705   9.481  11.593
83669SOL    HW152840   5.744   9.423  11.527
83669SOL    HW252841   5.710   9.568  11.555
83670SOL     OW52842   3.980   7.941   0.583
83670SOL    HW152843   4.066   7.975   0.559
83670SOL    HW252844   3.989   7.846   0.576
83671SOL     OW52845   8.578   0.361   1.417
83671SOL    HW152846   8.572   0.285   1.358
83671SOL    HW252847   8.531   0.333   1.496
83672SOL     OW52848   7.360  11.852   6.637
83672SOL    HW152849   7.296  11.852   6.709
83672SOL    HW252850   7.436  11.897   6.673
83673SOL     OW52851   4.907  11.011  14.007
83673SOL    HW152852   4.955  11.085  14.042
83673SOL    HW252853   4.880  10.960  14.084
83674SOL     OW52854   5.998   1.757  13.649
83674SOL    HW152855   6.053   1.772  13.725
83674SOL    HW252856   5.909   1.752  13.684
83675SOL     OW52857   6.724  11.108   0.828
83675SOL    HW152858   6.773  11.151   0.758
83675SOL    HW252859   6.723  11.171   0.900
83676SOL     OW52860   4.847  14.173   1.375
83676SOL    HW152861   4.795  14.253   1.388
83676SOL    HW252862   4.902  14.167   1.453
83677SOL     OW52863   4.608   1.326  10.590
83677SOL    HW152864   4.659   1.255  10.629
83677SOL    HW252865   4.656   1.348  10.510
83678SOL     OW52866  14.422   5.801  14.010
83678SOL    HW152867  14.500   5.749  14.029
83678SOL    HW252868  14.443   5.846  13.928
83679SOL     OW52869  14.377   6.742   3.316
83679SOL    HW152870  14.282   6.743   3.325
83679SOL    HW252871  14.393   6.763   3.224
83680SOL     OW52872   9.083   0.554  10.119
83680SOL    HW152873   9.087   0.481  10.180
83680SOL    HW252874   9.160   0.607  10.141
83681SOL     OW52875   3.997   5.964  10.637
83681SOL    HW152876   3.968   5.981  10.547
83681SOL    HW252877   3.925   5.914  10.676
83682SOL     OW52878   1.121   7.979  11.002
83682SOL    HW152879   1.207   7.939  11.006
83682SOL    HW252880   1.061   7.905  10.989
83683SOL     OW52881   6.834   7.213   3.896
83683SOL    HW152882   6.762   7.180   3.842
83683SOL    HW252883   6.912   7.202   3.842
83684SOL     OW52884   9.024  12.202  13.084
83684SOL    HW152885   8.936  12.193  13.047
83684SOL    HW252886   9.023  12.147  13.162
83685SOL     OW52887  13.176   4.237  13.389
83685SOL    HW152888  13.183   4.142  13.378
83685SOL    HW252889  13.264   4.264  13.416
83686SOL     OW52890   1.079   2.343   1.304
83686SOL    HW152891   1.065   2.406   1.375
83686SOL    HW252892   1.171   2.320   1.310
83687SOL     OW52893   4.928   0.671  10.555
83687SOL    HW152894   4.905   0.614  10.628
83687SOL    HW252895   4.910   0.618  10.477
83688SOL     OW52896  13.086  13.817   4.437
83688SOL    HW152897  13.034  13.898   4.430
83688SOL    HW252898  13.128  13.808   4.352
83689SOL     OW52899  13.794  13.932   0.061
83689SOL    HW152900  13.734  13.880   0.007
83689SOL    HW252901  13.851  13.976  14.870
83690SOL     OW52902   3.414  10.173   5.863
83690SOL    HW152903   3.375  10.140   5.783
83690SOL    HW252904   3.439  10.095   5.912
83691SOL     OW52905  14.291  14.134   4.815
83691SOL    HW152906  14.291  14.197   4.743
83691SOL    HW252907  14.373  14.152   4.861
83692SOL     OW52908   2.960   9.160   5.215
83692SOL    HW152909   3.048   9.176   5.180
83692SOL    HW252910   2.974   9.145   5.309
83693SOL     OW52911   5.332   5.357  11.887
83693SOL    HW152912   5.256   5.396  11.929
83693SOL    HW252913   5.407   5.388  11.938
83694SOL     OW52914  10.552  13.291   2.708
83694SOL    HW152915  10.577  13.323   2.795
83694SOL    HW252916  10.458  13.278   2.713
83695SOL     OW52917   3.865   5.559   1.184
83695SOL    HW152918   3.897   5.487   1.237
83695SOL    HW252919   3.819   5.616   1.245
83696SOL     OW52920   5.373  11.261  14.767
83696SOL    HW152921   5.457  11.295  14.735
83696SOL    HW252922   5.311  11.333  14.753
83697SOL     OW52923  10.154  12.353   4.607
83697SOL    HW152924  10.174  12.371   4.515
83697SOL    HW252925  10.158  12.257   4.613
83698SOL     OW52926  12.055   8.076  11.988
83698SOL    HW152927  12.107   8.001  11.960
83698SOL    HW252928  12.117   8.136  12.029
83699SOL     OW52929  13.884  10.152  14.167
83699SOL    HW152930  13.838  10.073  14.139
83699SOL    HW252931  13.974  10.139  14.140
83700SOL     OW52932  14.292   2.416  10.089
83700SOL    HW152933  14.201   2.425  10.060
83700SOL    HW252934  14.300   2.324  10.114
83701SOL     OW52935   3.514  11.174  10.627
83701SOL    HW152936   3.486  11.089  10.594
83701SOL    HW252937   3.547  11.157  10.715
83702SOL     OW52938  11.494   0.937  11.943
83702SOL    HW152939  11.501   0.967  12.034
83702SOL    HW252940  11.541   0.854  11.942
83703SOL     OW52941   5.169  13.805   3.131
83703SOL    HW152942   5.211  13.724   3.102
83703SOL    HW252943   5.149  13.790   3.224
83704SOL     OW52944   7.729   8.913  13.848
83704SOL    HW152945   7.799   8.964  13.806
83704SOL    HW252946   7.737   8.826  13.810
83705SOL     OW52947   3.351   2.516  14.106
83705SOL    HW152948   3.280   2.571  14.073
83705SOL    HW252949   3.421   2.525  14.041
83706SOL     OW52950   1.893   8.238   2.762
83706SOL    HW152951   1.905   8.302   2.692
83706SOL    HW252952   1.893   8.290   2.842
83707SOL     OW52953   1.486  10.264  13.385
83707SOL    HW152954   1.435  10.327  13.435
83707SOL    HW252955   1.568  10.255  13.434
83708SOL     OW52956   0.479  14.687   3.761
83708SOL    HW152957   0.542  14.728   3.702
83708SOL    HW252958   0.455  14.605   3.716
83709SOL     OW52959   8.885  14.639   3.197
83709SOL    HW152960   8.886  14.544   3.205
83709SOL    HW252961   8.837  14.669   3.274
83710SOL     OW52962   0.978   5.453   8.862
83710SOL    HW152963   1.031   5.420   8.935
83710SOL    HW252964   0.968   5.378   8.803
83711SOL     OW52965   8.513   7.323   8.486
83711SOL    HW152966   8.570   7.399   8.471
83711SOL    HW252967   8.561   7.249   8.448
83712SOL     OW52968   0.099   5.730   8.810
83712SOL    HW152969   0.009   5.762   8.809
83712SOL    HW252970   0.148   5.797   8.763
83713SOL     OW52971   5.653  13.635   2.970
83713SOL    HW152972   5.663  13.691   3.047
83713SOL    HW252973   5.694  13.684   2.899
83714SOL     OW52974   4.070  10.427  10.414
83714SOL    HW152975   4.034  10.492  10.353
83714SOL    HW252976   4.134  10.379  10.362
83715SOL     OW52977   4.795   8.259  14.329
83715SOL    HW152978   4.860   8.263  14.399
83715SOL    HW252979   4.845   8.238  14.250
83716SOL     OW52980   7.417  13.163  12.563
83716SOL    HW152981   7.367  13.158  12.644
83716SOL    HW252982   7.442  13.073  12.544
83717SOL     OW52983   2.425  10.296  10.106
83717SOL    HW152984   2.422  10.244  10.186
83717SOL    HW252985   2.502  10.352  10.116
83718SOL     OW52986  13.266   4.633  11.590
83718SOL    HW152987  13.346   4.595  11.625
83718SOL    HW252988  13.295   4.712  11.543
83719SOL     OW52989   9.636  11.178  11.410
83719SOL    HW152990   9.578  11.141  11.344
83719SOL    HW252991   9.608  11.138  11.492
83720SOL     OW52992   8.328  12.808   7.874
83720SOL    HW152993   8.260  12.761   7.922
83720SOL    HW252994   8.407  12.756   7.886
83721SOL     OW52995  12.911   8.767  14.346
83721SOL    HW152996  12.940   8.742  14.258
83721SOL    HW252997  12.847   8.700  14.370
83722SOL     OW52998  13.925   9.035   0.591
83722SOL    HW152999  13.994   8.994   0.540
83722SOL    HW253000  13.862   9.067   0.527
83723SOL     OW53001   1.545  13.065   1.716
83723SOL    HW153002   1.567  13.151   1.680
83723SOL    HW253003   1.491  13.084   1.793
83724SOL     OW53004  11.984   1.249   0.739
83724SOL    HW153005  11.902   1.283   0.702
83724SOL    HW253006  12.052   1.285   0.681
83725SOL     OW53007   0.892   0.070  10.322
83725SOL    HW153008   0.935  14.859  10.339
83725SOL    HW253009   0.808   0.046  10.283
83726SOL     OW53010   0.604   4.279   2.880
83726SOL    HW153011   0.615   4.230   2.962
83726SOL    HW253012   0.536   4.344   2.899
83727SOL     OW53013  10.446   2.965  11.860
83727SOL    HW153014  10.488   3.051  11.853
83727SOL    HW253015  10.408   2.950  11.773
83728SOL     OW53016  11.931   3.287   0.278
83728SOL    HW153017  11.912   3.209   0.225
83728SOL    HW253018  11.844   3.324   0.297
83729SOL     OW53019  13.117   5.667   7.306
83729SOL    HW153020  13.112   5.753   7.348
83729SOL    HW253021  13.134   5.606   7.377
83730SOL     OW53022  10.968   6.788  12.927
83730SOL    HW153023  11.014   6.850  12.871
83730SOL    HW253024  10.890   6.763  12.877
83731SOL     OW53025   0.689  14.776  11.095
83731SOL    HW153026   0.780  14.797  11.074
83731SOL    HW253027   0.641  14.857  11.080
83732SOL     OW53028   1.817  13.424   3.723
83732SOL    HW153029   1.832  13.442   3.630
83732SOL    HW253030   1.773  13.339   3.724
83733SOL     OW53031  10.723  14.348   4.994
83733SOL    HW153032  10.650  14.301   5.033
83733SOL    HW253033  10.705  14.348   4.900
83734SOL     OW53034   8.837   7.771  11.459
83734SOL    HW153035   8.783   7.849  11.470
83734SOL    HW253036   8.927   7.803  11.467
83735SOL     OW53037  12.670  11.585   5.023
83735SOL    HW153038  12.743  11.533   4.988
83735SOL    HW253039  12.638  11.535   5.098
83736SOL     OW53040   8.103   5.987   0.595
83736SOL    HW153041   8.131   6.021   0.510
83736SOL    HW253042   8.013   5.959   0.581
83737SOL     OW53043   6.111   8.840  12.818
83737SOL    HW153044   6.043   8.892  12.776
83737SOL    HW253045   6.179   8.831  12.752
83738SOL     OW53046  10.414  10.110   7.749
83738SOL    HW153047  10.392  10.143   7.836
83738SOL    HW253048  10.501  10.071   7.760
83739SOL     OW53049   9.778   8.469   3.639
83739SOL    HW153050   9.861   8.437   3.603
83739SOL    HW253051   9.734   8.391   3.672
83740SOL     OW53052   5.895   2.376   0.714
83740SOL    HW153053   5.910   2.284   0.692
83740SOL    HW253054   5.800   2.388   0.704
83741SOL     OW53055  14.239   8.087   8.902
83741SOL    HW153056  14.229   8.086   8.998
83741SOL    HW253057  14.230   7.996   8.876
83742SOL     OW53058   0.198  11.093   0.705
83742SOL    HW153059   0.251  11.091   0.785
83742SOL    HW253060   0.252  11.048   0.639
83743SOL     OW53061   7.801   6.202   2.940
83743SOL    HW153062   7.734   6.134   2.947
83743SOL    HW253063   7.766   6.276   2.990
83744SOL     OW53064  10.944   2.609  10.432
83744SOL    HW153065  10.951   2.520  10.468
83744SOL    HW253066  10.856   2.613  10.394
83745SOL     OW53067   8.076   1.608   1.772
83745SOL    HW153068   8.074   1.614   1.867
83745SOL    HW253069   7.984   1.606   1.746
83746SOL     OW53070   2.562   9.817   1.408
83746SOL    HW153071   2.546   9.824   1.502
83746SOL    HW253072   2.655   9.840   1.397
83747SOL     OW53073   0.612  12.131   6.061
83747SOL    HW153074   0.596  12.089   6.146
83747SOL    HW253075   0.596  12.061   5.997
83748SOL     OW53076   6.235   2.440   9.626
83748SOL    HW153077   6.155   2.395   9.597
83748SOL    HW253078   6.207   2.490   9.703
83749SOL     OW53079  12.590   8.013  13.100
83749SOL    HW153080  12.530   7.974  13.163
83749SOL    HW253081  12.663   7.951  13.094
83750SOL     OW53082   4.081   5.356   1.821
83750SOL    HW153083   4.172   5.356   1.851
83750SOL    HW253084   4.059   5.264   1.807
83751SOL     OW53085   8.887  12.609   5.752
83751SOL    HW153086   8.922  12.629   5.839
83751SOL    HW253087   8.797  12.581   5.768
83752SOL     OW53088   2.229   6.587   0.768
83752SOL    HW153089   2.230   6.529   0.692
83752SOL    HW253090   2.172   6.660   0.742
83753SOL     OW53091   0.184  10.730   8.881
83753SOL    HW153092   0.164  10.807   8.934
83753SOL    HW253093   0.099  10.690   8.862
83754SOL     OW53094  13.515   6.533   7.299
83754SOL    HW153095  13.538   6.440   7.289
83754SOL    HW253096  13.597   6.579   7.281
83755SOL     OW53097   2.976   2.473   5.444
83755SOL    HW153098   3.000   2.380   5.444
83755SOL    HW253099   3.046   2.515   5.494
83756SOL     OW53100   7.070  10.631  10.294
83756SOL    HW153101   7.072  10.535  10.288
83756SOL    HW253102   7.161  10.657  10.305
83757SOL     OW53103  10.522  12.727   1.947
83757SOL    HW153104  10.471  12.650   1.924
83757SOL    HW253105  10.577  12.743   1.870
83758SOL     OW53106   9.796  11.843   9.100
83758SOL    HW153107   9.807  11.934   9.128
83758SOL    HW253108   9.869  11.827   9.040
83759SOL     OW53109   2.911  11.493   4.470
83759SOL    HW153110   2.940  11.548   4.398
83759SOL    HW253111   2.823  11.463   4.444
83760SOL     OW53112   7.672   0.571  10.840
83760SOL    HW153113   7.600   0.568  10.904
83760SOL    HW253114   7.709   0.483  10.842
83761SOL     OW53115   7.035  11.012   2.218
83761SOL    HW153116   7.116  11.056   2.243
83761SOL    HW253117   6.970  11.044   2.281
83762SOL     OW53118   8.018   2.611  11.731
83762SOL    HW153119   8.086   2.672  11.757
83762SOL    HW253120   8.012   2.549  11.803
83763SOL     OW53121   5.536   6.343  12.368
83763SOL    HW153122   5.491   6.259  12.379
83763SOL    HW253123   5.629   6.321  12.374
83764SOL     OW53124   1.217   4.154  13.040
83764SOL    HW153125   1.150   4.166  13.107
83764SOL    HW253126   1.280   4.095  13.080
83765SOL     OW53127   2.405   4.629  11.536
83765SOL    HW153128   2.401   4.712  11.583
83765SOL    HW253129   2.494   4.596  11.552
83766SOL     OW53130   1.833  11.214  11.983
83766SOL    HW153131   1.813  11.307  11.995
83766SOL    HW253132   1.888  11.211  11.905
83767SOL     OW53133  14.178   2.998   9.480
83767SOL    HW153134  14.175   3.082   9.435
83767SOL    HW253135  14.131   3.013   9.562
83768SOL     OW53136   2.363   8.414  10.103
83768SOL    HW153137   2.352   8.509  10.108
83768SOL    HW253138   2.315   8.389  10.024
83769SOL     OW53139   2.712  14.166   6.863
83769SOL    HW153140   2.692  14.098   6.927
83769SOL    HW253141   2.746  14.239   6.914
83770SOL     OW53142   7.121   8.272  12.105
83770SOL    HW153143   7.047   8.240  12.053
83770SOL    HW253144   7.102   8.243  12.194
83771SOL     OW53145  12.627  14.167   8.944
83771SOL    HW153146  12.719  14.191   8.950
83771SOL    HW253147  12.609  14.120   9.026
83772SOL     OW53148   5.988   4.956   1.671
83772SOL    HW153149   5.908   4.912   1.645
83772SOL    HW253150   5.959   5.041   1.705
83773SOL     OW53151  11.894   3.376  14.818
83773SOL    HW153152  11.982   3.386  14.855
83773SOL    HW253153  11.897   3.293  14.770
83774SOL     OW53154   3.081   2.397   1.527
83774SOL    HW153155   3.057   2.322   1.581
83774SOL    HW253156   3.040   2.379   1.442
83775SOL     OW53157  11.469   1.465  10.004
83775SOL    HW153158  11.556   1.428  10.021
83775SOL    HW253159  11.423   1.398   9.954
83776SOL     OW53160   8.514   0.405   9.815
83776SOL    HW153161   8.459   0.478   9.842
83776SOL    HW253162   8.530   0.420   9.722
83777SOL     OW53163  14.271   5.830   0.495
83777SOL    HW153164  14.359   5.864   0.482
83777SOL    HW253165  14.234   5.884   0.565
83778SOL     OW53166   7.259   1.052   6.220
83778SOL    HW153167   7.290   1.138   6.191
83778SOL    HW253168   7.255   1.059   6.315
83779SOL     OW53169   3.958  14.202   4.577
83779SOL    HW153170   3.967  14.258   4.500
83779SOL    HW253171   3.943  14.114   4.541
83780SOL     OW53172  13.989   1.027   9.977
83780SOL    HW153173  13.972   1.121   9.986
83780SOL    HW253174  14.046   1.020   9.901
83781SOL     OW53175  10.572   7.625   6.091
83781SOL    HW153176  10.655   7.659   6.058
83781SOL    HW253177  10.556   7.547   6.039
83782SOL     OW53178   9.932  10.770  14.304
83782SOL    HW153179   9.988  10.723  14.243
83782SOL    HW253180   9.957  10.862  14.294
83783SOL     OW53181   2.954   6.591  10.913
83783SOL    HW153182   2.975   6.499  10.927
83783SOL    HW253183   2.859   6.596  10.923
83784SOL     OW53184   0.634   5.686   1.615
83784SOL    HW153185   0.592   5.606   1.583
83784SOL    HW253186   0.710   5.698   1.558
83785SOL     OW53187   0.432   0.457  13.646
83785SOL    HW153188   0.359   0.437  13.706
83785SOL    HW253189   0.503   0.486  13.703
83786SOL     OW53190   8.393   2.040   4.842
83786SOL    HW153191   8.376   1.954   4.882
83786SOL    HW253192   8.363   2.031   4.752
83787SOL     OW53193   7.577   6.584  14.332
83787SOL    HW153194   7.490   6.581  14.292
83787SOL    HW253195   7.584   6.673  14.366
83788SOL     OW53196   1.232   0.553  10.120
83788SOL    HW153197   1.257   0.511  10.201
83788SOL    HW253198   1.145   0.589  10.137
83789SOL     OW53199   4.841  11.203  13.296
83789SOL    HW153200   4.867  11.112  13.313
83789SOL    HW253201   4.830  11.207  13.201
83790SOL     OW53202  13.241   7.240   3.496
83790SOL    HW153203  13.226   7.314   3.439
83790SOL    HW253204  13.307   7.187   3.452
83791SOL     OW53205   7.449   8.961  14.194
83791SOL    HW153206   7.490   8.880  14.165
83791SOL    HW253207   7.450   9.018  14.117
83792SOL     OW53208   7.286   1.310  11.246
83792SOL    HW153209   7.212   1.287  11.190
83792SOL    HW253210   7.358   1.256  11.213
83793SOL     OW53211   4.548  14.216  10.621
83793SOL    HW153212   4.625  14.266  10.648
83793SOL    HW253213   4.523  14.167  10.699
83794SOL     OW53214  12.018   4.539  11.718
83794SOL    HW153215  12.024   4.633  11.736
83794SOL    HW253216  11.952   4.506  11.778
83795SOL     OW53217   6.500   8.259  10.373
83795SOL    HW153218   6.543   8.292  10.452
83795SOL    HW253219   6.461   8.336  10.332
83796SOL     OW53220   8.260   2.611   1.440
83796SOL    HW153221   8.352   2.586   1.434
83796SOL    HW253222   8.212   2.528   1.442
83797SOL     OW53223   1.181   4.224   8.313
83797SOL    HW153224   1.170   4.294   8.249
83797SOL    HW253225   1.102   4.171   8.304
83798SOL     OW53226  12.297   9.866  13.295
83798SOL    HW153227  12.242   9.789  13.314
83798SOL    HW253228  12.386   9.832  13.295
83799SOL     OW53229   7.850   0.245   9.165
83799SOL    HW153230   7.826   0.338   9.160
83799SOL    HW253231   7.939   0.246   9.201
83800SOL     OW53232  11.997   0.906   7.972
83800SOL    HW153233  12.049   0.934   8.047
83800SOL    HW253234  11.999   0.980   7.912
83801SOL     OW53235   4.625   1.052   7.157
83801SOL    HW153236   4.676   1.106   7.096
83801SOL    HW253237   4.660   0.964   7.144
83802SOL     OW53238  12.625  13.722   7.465
83802SOL    HW153239  12.669  13.776   7.531
83802SOL    HW253240  12.622  13.778   7.387
83803SOL     OW53241   6.266   5.242   1.426
83803SOL    HW153242   6.228   5.164   1.387
83803SOL    HW253243   6.197   5.276   1.483
83804SOL     OW53244  12.662   2.736  10.567
83804SOL    HW153245  12.656   2.654  10.519
83804SOL    HW253246  12.577   2.778  10.554
83805SOL     OW53247  14.475   9.847   0.545
83805SOL    HW153248  14.428   9.769   0.573
83805SOL    HW253249  14.411   9.897   0.495
83806SOL     OW53250   5.394   0.070   7.850
83806SOL    HW153251   5.450  14.866   7.864
83806SOL    HW253252   5.327   0.064   7.919
83807SOL     OW53253   2.183   2.114   0.574
83807SOL    HW153254   2.200   2.196   0.620
83807SOL    HW253255   2.270   2.076   0.560
83808SOL     OW53256   0.676   3.957   1.855
83808SOL    HW153257   0.733   3.883   1.835
83808SOL    HW253258   0.726   4.009   1.918
83809SOL     OW53259   2.345   1.038  13.185
83809SOL    HW153260   2.353   0.943  13.170
83809SOL    HW253261   2.423   1.062  13.234
83810SOL     OW53262   5.677  13.058  11.008
83810SOL    HW153263   5.617  13.006  11.062
83810SOL    HW253264   5.678  13.144  11.048
83811SOL     OW53265  13.790   5.741   9.682
83811SOL    HW153266  13.840   5.784   9.613
83811SOL    HW253267  13.855   5.723   9.751
83812SOL     OW53268   2.216   1.342   8.353
83812SOL    HW153269   2.144   1.314   8.297
83812SOL    HW253270   2.234   1.266   8.409
83813SOL     OW53271   0.240   1.338   3.021
83813SOL    HW153272   0.182   1.412   3.007
83813SOL    HW253273   0.279   1.353   3.107
83814SOL     OW53274  11.966   0.354   3.230
83814SOL    HW153275  12.015   0.274   3.207
83814SOL    HW253276  12.011   0.424   3.182
83815SOL     OW53277  13.789   2.793   1.402
83815SOL    HW153278  13.875   2.753   1.413
83815SOL    HW253279  13.760   2.764   1.316
83816SOL     OW53280   2.641   3.462   1.732
83816SOL    HW153281   2.651   3.526   1.802
83816SOL    HW253282   2.646   3.377   1.776
83817SOL     OW53283   5.889  13.981  12.890
83817SOL    HW153284   5.934  13.903  12.923
83817SOL    HW253285   5.797  13.963  12.904
83818SOL     OW53286  14.114   1.116   1.853
83818SOL    HW153287  14.019   1.102   1.855
83818SOL    HW253288  14.136   1.113   1.759
83819SOL     OW53289   3.441   3.903   8.113
83819SOL    HW153290   3.360   3.949   8.134
83819SOL    HW253291   3.496   3.970   8.073
83820SOL     OW53292   2.070   0.586   9.738
83820SOL    HW153293   2.023   0.644   9.799
83820SOL    HW253294   2.156   0.627   9.727
83821SOL     OW53295   8.013   1.841   3.581
83821SOL    HW153296   7.949   1.778   3.613
83821SOL    HW253297   7.969   1.926   3.586
83822SOL     OW53298   8.647  12.119   1.460
83822SOL    HW153299   8.695  12.044   1.426
83822SOL    HW253300   8.563  12.084   1.488
83823SOL     OW53301   0.412  12.624   7.139
83823SOL    HW153302   0.357  12.546   7.151
83823SOL    HW253303   0.500  12.595   7.163
83824SOL     OW53304  12.058   9.083   9.680
83824SOL    HW153305  11.963   9.089   9.685
83824SOL    HW253306  12.078   9.094   9.587
83825SOL     OW53307   3.977   5.362   8.232
83825SOL    HW153308   3.920   5.363   8.155
83825SOL    HW253309   4.027   5.444   8.226
83826SOL     OW53310   2.707   0.916   7.452
83826SOL    HW153311   2.721   0.828   7.489
83826SOL    HW253312   2.762   0.973   7.505
83827SOL     OW53313   4.000   1.802   5.756
83827SOL    HW153314   4.044   1.775   5.676
83827SOL    HW253315   4.044   1.883   5.782
83828SOL     OW53316   2.484   2.845  13.892
83828SOL    HW153317   2.464   2.817  13.802
83828SOL    HW253318   2.473   2.766  13.945
83829SOL     OW53319   1.228   4.806  12.438
83829SOL    HW153320   1.309   4.804  12.489
83829SOL    HW253321   1.250   4.763  12.356
83830SOL     OW53322   4.260  14.513  11.368
83830SOL    HW153323   4.248  14.424  11.334
83830SOL    HW253324   4.173  14.538  11.399
83831SOL     OW53325  11.718  13.227   6.614
83831SOL    HW153326  11.635  13.196   6.578
83831SOL    HW253327  11.720  13.320   6.593
83832SOL     OW53328  14.006  14.499   6.840
83832SOL    HW153329  13.946  14.537   6.776
83832SOL    HW253330  14.027  14.572   6.900
83833SOL     OW53331   8.315  14.656   0.016
83833SOL    HW153332   8.241  14.609  14.850
83833SOL    HW253333   8.379  14.664  14.818
83834SOL     OW53334   7.877  12.435  11.931
83834SOL    HW153335   7.915  12.515  11.968
83834SOL    HW253336   7.814  12.405  11.997
83835SOL     OW53337   1.931   5.864  11.152
83835SOL    HW153338   2.024   5.872  11.172
83835SOL    HW253339   1.927   5.794  11.086
83836SOL     OW53340  12.193  12.812   8.796
83836SOL    HW153341  12.163  12.745   8.858
83836SOL    HW253342  12.288  12.816   8.808
83837SOL     OW53343  14.717   8.821   4.957
83837SOL    HW153344  14.697   8.914   4.972
83837SOL    HW253345  14.632   8.778   4.960
83838SOL     OW53346   3.596   7.995  10.147
83838SOL    HW153347   3.686   8.026  10.148
83838SOL    HW253348   3.599   7.912  10.100
83839SOL     OW53349   6.267   5.079  10.143
83839SOL    HW153350   6.307   5.164  10.125
83839SOL    HW253351   6.228   5.088  10.230
83840SOL     OW53352   3.683  14.451   8.498
83840SOL    HW153353   3.776  14.467   8.509
83840SOL    HW253354   3.678  14.366   8.455
83841SOL     OW53355  12.816   5.126   4.551
83841SOL    HW153356  12.749   5.193   4.539
83841SOL    HW253357  12.891   5.157   4.501
83842SOL     OW53358   9.054   6.293   7.907
83842SOL    HW153359   8.959   6.302   7.911
83842SOL    HW253360   9.070   6.200   7.891
83843SOL     OW53361  11.379   5.233   2.812
83843SOL    HW153362  11.454   5.174   2.827
83843SOL    HW253363  11.416   5.305   2.761
83844SOL     OW53364   9.256  11.159   6.435
83844SOL    HW153365   9.239  11.162   6.529
83844SOL    HW253366   9.306  11.079   6.422
83845SOL     OW53367   0.348   5.166   5.443
83845SOL    HW153368   0.268   5.214   5.464
83845SOL    HW253369   0.336   5.137   5.353
83846SOL     OW53370   8.102   7.950  12.826
83846SOL    HW153371   8.110   7.860  12.795
83846SOL    HW253372   8.055   7.943  12.909
83847SOL     OW53373  14.078   0.061   9.261
83847SOL    HW153374  14.029  14.855   9.284
83847SOL    HW253375  14.143   0.032   9.197
83848SOL     OW53376   5.332   0.905   3.225
83848SOL    HW153377   5.426   0.885   3.222
83848SOL    HW253378   5.326   0.984   3.277
83849SOL     OW53379  11.877   8.599   4.578
83849SOL    HW153380  11.965   8.600   4.614
83849SOL    HW253381  11.881   8.657   4.502
83850SOL     OW53382   5.582   2.759  12.416
83850SOL    HW153383   5.564   2.666  12.407
83850SOL    HW253384   5.655   2.776  12.356
83851SOL     OW53385  14.074   0.641  14.750
83851SOL    HW153386  14.005   0.706  14.739
83851SOL    HW253387  14.046   0.567  14.696
83852SOL     OW53388   0.233   0.393  13.821
83852SOL    HW153389   0.246   0.466  13.882
83852SOL    HW253390   0.255   0.315  13.872
83853SOL     OW53391   1.809  10.343  13.112
83853SOL    HW153392   1.888  10.380  13.152
83853SOL    HW253393   1.757  10.418  13.085
83854SOL     OW53394   6.945  11.239  10.093
83854SOL    HW153395   7.000  11.219  10.169
83854SOL    HW253396   6.883  11.167  10.088
83855SOL     OW53397   4.178   7.508   1.586
83855SOL    HW153398   4.262   7.552   1.601
83855SOL    HW253399   4.157   7.468   1.670
83856SOL     OW53400  14.236   6.341   0.068
83856SOL    HW153401  14.290   6.339   0.148
83856SOL    HW253402  14.298   6.328  14.870
83857SOL     OW53403   1.553   0.840   9.791
83857SOL    HW153404   1.478   0.785   9.814
83857SOL    HW253405   1.536   0.923   9.835
83858SOL     OW53406   8.575   4.020  14.841
83858SOL    HW153407   8.560   3.974   0.051
83858SOL    HW253408   8.624   4.098  14.866
83859SOL     OW53409  12.213  11.649  14.762
83859SOL    HW153410  12.246  11.613  14.680
83859SOL    HW253411  12.157  11.723  14.735
83860SOL     OW53412   7.387  12.216   1.649
83860SOL    HW153413   7.358  12.278   1.716
83860SOL    HW253414   7.435  12.269   1.587
83861SOL     OW53415   0.176  10.215  12.554
83861SOL    HW153416   0.111  10.220  12.485
83861SOL    HW253417   0.125  10.197  12.634
83862SOL     OW53418   8.684   7.528   0.376
83862SOL    HW153419   8.629   7.605   0.391
83862SOL    HW253420   8.766   7.563   0.340
83863SOL     OW53421   3.944   0.840   8.028
83863SOL    HW153422   3.976   0.834   7.938
83863SOL    HW253423   3.887   0.917   8.028
83864SOL     OW53424   4.415   3.144   8.042
83864SOL    HW153425   4.330   3.101   8.051
83864SOL    HW253426   4.421   3.202   8.118
83865SOL     OW53427   0.537   2.631   6.122
83865SOL    HW153428   0.627   2.652   6.149
83865SOL    HW253429   0.498   2.591   6.200
83866SOL     OW53430   6.805   9.370   4.942
83866SOL    HW153431   6.892   9.335   4.923
83866SOL    HW253432   6.763   9.376   4.857
83867SOL     OW53433   9.443  14.037  11.881
83867SOL    HW153434   9.513  14.100  11.868
83867SOL    HW253435   9.370  14.070  11.829
83868SOL     OW53436  13.656  14.419   7.957
83868SOL    HW153437  13.635  14.425   7.864
83868SOL    HW253438  13.695  14.504   7.978
83869SOL     OW53439  12.033   2.934   9.750
83869SOL    HW153440  12.054   2.946   9.657
83869SOL    HW253441  11.979   3.010   9.773
83870SOL     OW53442  13.525  11.089   1.343
83870SOL    HW153443  13.454  11.068   1.403
83870SOL    HW253444  13.602  11.097   1.399
83871SOL     OW53445  10.771  10.558   6.956
83871SOL    HW153446  10.753  10.484   7.014
83871SOL    HW253447  10.866  10.572   6.964
83872SOL     OW53448  14.323  10.323   8.543
83872SOL    HW153449  14.312  10.264   8.469
83872SOL    HW253450  14.318  10.266   8.620
83873SOL     OW53451   3.285   0.452   1.331
83873SOL    HW153452   3.354   0.517   1.337
83873SOL    HW253453   3.319   0.376   1.378
83874SOL     OW53454   4.898  14.122   1.080
83874SOL    HW153455   4.991  14.135   1.060
83874SOL    HW253456   4.891  14.143   1.173
83875SOL     OW53457   9.821   4.136   1.823
83875SOL    HW153458   9.898   4.121   1.878
83875SOL    HW253459   9.748   4.101   1.874
83876SOL     OW53460   0.119   6.914   9.032
83876SOL    HW153461   0.165   6.836   9.001
83876SOL    HW253462   0.158   6.986   8.983
83877SOL     OW53463   8.467   6.784  10.798
83877SOL    HW153464   8.428   6.760  10.883
83877SOL    HW253465   8.561   6.780  10.813
83878SOL     OW53466   4.666  12.767  11.653
83878SOL    HW153467   4.611  12.720  11.715
83878SOL    HW253468   4.635  12.738  11.567
83879SOL     OW53469   4.577  12.685  14.054
83879SOL    HW153470   4.499  12.740  14.048
83879SOL    HW253471   4.542  12.596  14.065
83880SOL     OW53472   0.953  10.761   3.257
83880SOL    HW153473   1.012  10.753   3.182
83880SOL    HW253474   0.990  10.704   3.324
83881SOL     OW53475   8.269   5.082   5.676
83881SOL    HW153476   8.332   5.063   5.746
83881SOL    HW253477   8.213   5.150   5.713
83882SOL     OW53478  10.099   1.325   9.879
83882SOL    HW153479  10.182   1.296   9.842
83882SOL    HW253480  10.093   1.282   9.964
83883SOL     OW53481   7.680   7.899  11.639
83883SOL    HW153482   7.671   7.975  11.581
83883SOL    HW253483   7.749   7.846  11.598
83884SOL     OW53484   0.121  13.406  11.012
83884SOL    HW153485   0.054  13.418  10.945
83884SOL    HW253486   0.199  13.379  10.963
83885SOL     OW53487   8.756  12.771   9.562
83885SOL    HW153488   8.791  12.686   9.538
83885SOL    HW253489   8.825  12.811   9.615
83886SOL     OW53490   7.927   8.241  10.002
83886SOL    HW153491   7.973   8.309   9.952
83886SOL    HW253492   7.905   8.175   9.936
83887SOL     OW53493  13.508   1.659   7.482
83887SOL    HW153494  13.583   1.612   7.518
83887SOL    HW253495  13.512   1.745   7.524
83888SOL     OW53496  11.403   0.724   6.379
83888SOL    HW153497  11.437   0.661   6.443
83888SOL    HW253498  11.454   0.803   6.394
83889SOL     OW53499   5.722   7.551  11.495
83889SOL    HW153500   5.813   7.572  11.475
83889SOL    HW253501   5.677   7.636  11.499
83890SOL     OW53502  11.093  11.673  12.684
83890SOL    HW153503  11.037  11.738  12.727
83890SOL    HW253504  11.089  11.696  12.591
83891SOL     OW53505  13.648  12.470  13.003
83891SOL    HW153506  13.686  12.505  12.922
83891SOL    HW253507  13.694  12.387  13.016
83892SOL     OW53508   8.604  14.025  12.268
83892SOL    HW153509   8.616  14.110  12.227
83892SOL    HW253510   8.681  13.975  12.242
83893SOL     OW53511   0.051   8.585   9.483
83893SOL    HW153512   0.062   8.500   9.441
83893SOL    HW253513   0.137   8.626   9.478
83894SOL     OW53514   2.934  12.347   9.347
83894SOL    HW153515   2.988  12.268   9.341
83894SOL    HW253516   2.844  12.315   9.339
83895SOL     OW53517   7.681  14.434  11.883
83895SOL    HW153518   7.638  14.518  11.868
83895SOL    HW253519   7.622  14.369  11.846
83896SOL     OW53520   1.641   7.998   8.220
83896SOL    HW153521   1.578   8.036   8.281
83896SOL    HW253522   1.591   7.980   8.141
83897SOL     OW53523   6.099   8.080  11.849
83897SOL    HW153524   6.143   8.002  11.815
83897SOL    HW253525   6.075   8.130  11.771
83898SOL     OW53526  13.356   0.245  14.841
83898SOL    HW153527  13.417   0.207   0.030
83898SOL    HW253528  13.401   0.241  14.756
83899SOL     OW53529   9.965   7.301   2.977
83899SOL    HW153530   9.870   7.312   2.975
83899SOL    HW253531   9.993   7.309   2.886
83900SOL     OW53532   4.602  14.275   1.862
83900SOL    HW153533   4.675  14.214   1.867
83900SOL    HW253534   4.642  14.361   1.871
83901SOL     OW53535   0.674  10.087   5.308
83901SOL    HW153536   0.751  10.040   5.275
83901SOL    HW253537   0.643  10.137   5.233
83902SOL     OW53538  11.987   9.483   3.940
83902SOL    HW153539  11.922   9.539   3.982
83902SOL    HW253540  12.007   9.416   4.005
83903SOL     OW53541  14.716   0.419  11.013
83903SOL    HW153542  14.679   0.483  10.953
83903SOL    HW253543  14.663   0.340  11.000
83904SOL     OW53544  10.518  10.061   4.942
83904SOL    HW153545  10.586   9.999   4.968
83904SOL    HW253546  10.540  10.142   4.989
83905SOL     OW53547  13.695  13.020  14.549
83905SOL    HW153548  13.659  12.933  14.530
83905SOL    HW253549  13.760  13.034  14.481
83906SOL     OW53550   9.942   5.096  10.201
83906SOL    HW153551  10.034   5.126  10.200
83906SOL    HW253552   9.941   5.021  10.143
83907SOL     OW53553   0.398   0.504   7.283
83907SOL    HW153554   0.396   0.536   7.193
83907SOL    HW253555   0.482   0.460   7.291
83908SOL     OW53556   5.239  14.456   6.917
83908SOL    HW153557   5.288  14.374   6.927
83908SOL    HW253558   5.199  14.470   7.003
83909SOL     OW53559   0.599   4.496  12.742
83909SOL    HW153560   0.561   4.414  12.710
83909SOL    HW253561   0.624   4.543  12.663
83910SOL     OW53562   0.857   2.121   4.161
83910SOL    HW153563   0.875   2.140   4.069
83910SOL    HW253564   0.766   2.090   4.161
83911SOL     OW53565   7.072   8.006   3.103
83911SOL    HW153566   7.147   7.964   3.146
83911SOL    HW253567   7.001   7.998   3.167
83912SOL     OW53568   8.991  13.199   9.255
83912SOL    HW153569   9.069  13.170   9.207
83912SOL    HW253570   8.923  13.204   9.188
83913SOL     OW53571  12.006  12.872  13.583
83913SOL    HW153572  11.939  12.925  13.627
83913SOL    HW253573  11.956  12.807  13.533
83914SOL     OW53574  12.481   2.260   6.445
83914SOL    HW153575  12.406   2.272   6.503
83914SOL    HW253576  12.472   2.171   6.412
83915SOL     OW53577   5.913   2.968   6.948
83915SOL    HW153578   5.908   3.051   6.902
83915SOL    HW253579   6.006   2.943   6.943
83916SOL     OW53580   1.384   1.341  10.221
83916SOL    HW153581   1.390   1.300  10.134
83916SOL    HW253582   1.470   1.326  10.260
83917SOL     OW53583   0.808   4.975  11.683
83917SOL    HW153584   0.885   5.025  11.713
83917SOL    HW253585   0.798   4.999  11.591
83918SOL     OW53586   4.988  13.239   7.001
83918SOL    HW153587   4.941  13.314   6.964
83918SOL    HW253588   4.932  13.208   7.071
83919SOL     OW53589   7.515  11.885   5.508
83919SOL    HW153590   7.514  11.894   5.603
83919SOL    HW253591   7.428  11.915   5.480
83920SOL     OW53592   8.839   7.578   8.975
83920SOL    HW153593   8.886   7.495   8.982
83920SOL    HW253594   8.748   7.553   8.962
83921SOL     OW53595   6.412  10.734   0.509
83921SOL    HW153596   6.494  10.783   0.503
83921SOL    HW253597   6.347  10.800   0.534
83922SOL     OW53598   3.446   7.120   1.928
83922SOL    HW153599   3.361   7.124   1.972
83922SOL    HW253600   3.424   7.125   1.834
83923SOL     OW53601  10.552   4.193   3.681
83923SOL    HW153602  10.498   4.115   3.667
83923SOL    HW253603  10.504   4.244   3.746
83924SOL     OW53604   9.692   3.497  13.456
83924SOL    HW153605   9.679   3.498  13.361
83924SOL    HW253606   9.651   3.577  13.486
83925SOL     OW53607   8.469   3.862   1.242
83925SOL    HW153608   8.433   3.798   1.304
83925SOL    HW253609   8.563   3.849   1.246
83926SOL     OW53610   8.178   2.135  10.714
83926SOL    HW153611   8.145   2.225  10.714
83926SOL    HW253612   8.200   2.117  10.805
83927SOL     OW53613   8.007  11.265   1.362
83927SOL    HW153614   8.040  11.175   1.362
83927SOL    HW253615   7.981  11.280   1.271
83928SOL     OW53616   5.149   8.167   5.625
83928SOL    HW153617   5.144   8.081   5.667
83928SOL    HW253618   5.158   8.148   5.532
83929SOL     OW53619  13.350   0.258   0.475
83929SOL    HW153620  13.303   0.222   0.401
83929SOL    HW253621  13.284   0.268   0.544
83930SOL     OW53622   4.786   3.793  14.695
83930SOL    HW153623   4.755   3.852  14.764
83930SOL    HW253624   4.874   3.826  14.674
83931SOL     OW53625  10.021  12.678  13.251
83931SOL    HW153626  10.020  12.601  13.309
83931SOL    HW253627   9.937  12.673  13.205
83932SOL     OW53628   6.817   6.193   6.085
83932SOL    HW153629   6.822   6.097   6.088
83932SOL    HW253630   6.898   6.220   6.042
83933SOL     OW53631   5.619   4.070  12.994
83933SOL    HW153632   5.637   3.976  12.988
83933SOL    HW253633   5.626   4.102  12.904
83934SOL     OW53634   6.227   1.747   5.522
83934SOL    HW153635   6.290   1.812   5.491
83934SOL    HW253636   6.141   1.786   5.505
83935SOL     OW53637   6.239   3.180   3.415
83935SOL    HW153638   6.179   3.187   3.488
83935SOL    HW253639   6.187   3.143   3.343
83936SOL     OW53640   1.606  14.500   6.907
83936SOL    HW153641   1.581  14.476   6.996
83936SOL    HW253642   1.551  14.446   6.850
83937SOL     OW53643   7.506  12.803   5.027
83937SOL    HW153644   7.533  12.859   4.954
83937SOL    HW253645   7.417  12.831   5.047
83938SOL     OW53646   5.537   8.468  11.712
83938SOL    HW153647   5.547   8.456  11.806
83938SOL    HW253648   5.534   8.562  11.699
83939SOL     OW53649   4.162   0.747   3.556
83939SOL    HW153650   4.241   0.794   3.529
83939SOL    HW253651   4.180   0.656   3.534
83940SOL     OW53652   5.093   7.916  13.458
83940SOL    HW153653   5.043   7.996  13.444
83940SOL    HW253654   5.181   7.937  13.427
83941SOL     OW53655  11.817   2.248   1.805
83941SOL    HW153656  11.894   2.198   1.831
83941SOL    HW253657  11.769   2.190   1.746
83942SOL     OW53658  11.650   6.356   7.012
83942SOL    HW153659  11.686   6.416   7.077
83942SOL    HW253660  11.602   6.413   6.951
83943SOL     OW53661  10.748   2.246  12.520
83943SOL    HW153662  10.814   2.190  12.478
83943SOL    HW253663  10.745   2.324  12.465
83944SOL     OW53664   0.648  14.614   7.651
83944SOL    HW153665   0.594  14.693   7.650
83944SOL    HW253666   0.606  14.556   7.715
83945SOL     OW53667   4.422   3.302   6.060
83945SOL    HW153668   4.458   3.386   6.089
83945SOL    HW253669   4.455   3.291   5.971
83946SOL     OW53670   6.839   6.730   8.578
83946SOL    HW153671   6.746   6.725   8.553
83946SOL    HW253672   6.839   6.782   8.658
83947SOL     OW53673  12.196  10.656   6.857
83947SOL    HW153674  12.188  10.589   6.789
83947SOL    HW253675  12.212  10.737   6.810
83948SOL     OW53676   5.103   0.504   9.476
83948SOL    HW153677   5.054   0.551   9.409
83948SOL    HW253678   5.133   0.571   9.536
83949SOL     OW53679  13.597   9.721   4.218
83949SOL    HW153680  13.661   9.779   4.258
83949SOL    HW253681  13.606   9.639   4.265
83950SOL     OW53682  11.589   7.585   6.716
83950SOL    HW153683  11.641   7.514   6.678
83950SOL    HW253684  11.653   7.652   6.740
83951SOL     OW53685  13.113   5.859  14.715
83951SOL    HW153686  13.107   5.790  14.649
83951SOL    HW253687  13.134   5.938  14.665
83952SOL     OW53688   2.787   3.557  12.429
83952SOL    HW153689   2.804   3.555  12.524
83952SOL    HW253690   2.800   3.649  12.404
83953SOL     OW53691  12.612   7.063   5.660
83953SOL    HW153692  12.695   7.087   5.618
83953SOL    HW253693  12.555   7.039   5.587
83954SOL     OW53694  12.493  11.721  13.674
83954SOL    HW153695  12.441  11.767  13.740
83954SOL    HW253696  12.570  11.776  13.662
83955SOL     OW53697   7.591  13.854   1.506
83955SOL    HW153698   7.609  13.885   1.595
83955SOL    HW253699   7.616  13.928   1.450
83956SOL     OW53700  11.878   2.609   6.623
83956SOL    HW153701  11.847   2.552   6.694
83956SOL    HW253702  11.967   2.633   6.649
83957SOL     OW53703  14.158  11.331  12.961
83957SOL    HW153704  14.228  11.269  12.940
83957SOL    HW253705  14.191  11.380  13.037
83958SOL     OW53706   6.127   2.653   6.755
83958SOL    HW153707   6.066   2.605   6.810
83958SOL    HW253708   6.080   2.664   6.672
83959SOL     OW53709   9.424   4.680   7.585
83959SOL    HW153710   9.347   4.625   7.595
83959SOL    HW253711   9.462   4.684   7.672
83960SOL     OW53712  12.331  10.189   8.318
83960SOL    HW153713  12.276  10.133   8.373
83960SOL    HW253714  12.307  10.278   8.342
83961SOL     OW53715   6.705  11.568   2.620
83961SOL    HW153716   6.800  11.566   2.629
83961SOL    HW253717   6.675  11.621   2.693
83962SOL     OW53718  10.664   0.139   6.799
83962SOL    HW153719  10.725   0.208   6.826
83962SOL    HW253720  10.682   0.067   6.859
83963SOL     OW53721   8.555  12.684   5.000
83963SOL    HW153722   8.570  12.627   4.924
83963SOL    HW253723   8.629  12.745   5.000
83964SOL     OW53724   6.762   6.961   4.626
83964SOL    HW153725   6.701   7.035   4.631
83964SOL    HW253726   6.847   7.002   4.611
83965SOL     OW53727  13.197   4.311  10.494
83965SOL    HW153728  13.139   4.358  10.554
83965SOL    HW253729  13.194   4.362  10.413
83966SOL     OW53730   9.300   9.355   8.307
83966SOL    HW153731   9.250   9.435   8.323
83966SOL    HW253732   9.270   9.325   8.221
83967SOL     OW53733   2.160   1.294   7.726
83967SOL    HW153734   2.171   1.353   7.652
83967SOL    HW253735   2.176   1.348   7.803
83968SOL     OW53736   8.823  14.303  12.426
83968SOL    HW153737   8.783  14.383  12.392
83968SOL    HW253738   8.802  14.236  12.361
83969SOL     OW53739   6.132  12.015   8.307
83969SOL    HW153740   6.078  11.970   8.242
83969SOL    HW253741   6.100  11.981   8.391
83970SOL     OW53742   0.949   2.858   4.872
83970SOL    HW153743   0.941   2.832   4.964
83970SOL    HW253744   1.034   2.902   4.867
83971SOL     OW53745   7.880   8.486   2.996
83971SOL    HW153746   7.831   8.472   2.915
83971SOL    HW253747   7.818   8.529   3.055
83972SOL     OW53748   4.395  10.031   6.285
83972SOL    HW153749   4.445  10.091   6.340
83972SOL    HW253750   4.336   9.986   6.346
83973SOL     OW53751   1.233   8.215   7.976
83973SOL    HW153752   1.141   8.240   7.983
83973SOL    HW253753   1.250   8.165   8.056
83974SOL     OW53754  12.612  14.462   1.138
83974SOL    HW153755  12.684  14.512   1.176
83974SOL    HW253756  12.533  14.501   1.175
83975SOL     OW53757   1.671  10.840   3.600
83975SOL    HW153758   1.650  10.850   3.693
83975SOL    HW253759   1.638  10.753   3.577
83976SOL     OW53760   6.429  10.936   7.719
83976SOL    HW153761   6.454  10.875   7.649
83976SOL    HW253762   6.335  10.923   7.730
83977SOL     OW53763   7.251   8.549   5.793
83977SOL    HW153764   7.212   8.520   5.710
83977SOL    HW253765   7.211   8.634   5.810
83978SOL     OW53766   6.979   4.109   0.091
83978SOL    HW153767   6.884   4.095   0.087
83978SOL    HW253768   7.007   4.059   0.168
83979SOL     OW53769   7.662   0.429   0.178
83979SOL    HW153770   7.706   0.383   0.250
83979SOL    HW253771   7.614   0.500   0.221
83980SOL     OW53772  13.740   4.390   8.800
83980SOL    HW153773  13.762   4.431   8.717
83980SOL    HW253774  13.645   4.397   8.807
83981SOL     OW53775   6.632  12.408   0.679
83981SOL    HW153776   6.712  12.440   0.720
83981SOL    HW253777   6.594  12.485   0.637
83982SOL     OW53778  10.042   5.192   6.202
83982SOL    HW153779  10.105   5.220   6.268
83982SOL    HW253780   9.959   5.186   6.249
83983SOL     OW53781   6.661  13.758   5.300
83983SOL    HW153782   6.613  13.798   5.374
83983SOL    HW253783   6.752  13.758   5.328
83984SOL     OW53784  14.816   0.974   9.221
83984SOL    HW153785  14.804   0.907   9.288
83984SOL    HW253786  14.736   0.970   9.169
83985SOL     OW53787  14.696  12.879   1.168
83985SOL    HW153788  14.682  12.973   1.181
83985SOL    HW253789  14.720  12.846   1.255
83986SOL     OW53790   5.303   7.743   3.127
83986SOL    HW153791   5.263   7.829   3.114
83986SOL    HW253792   5.324   7.741   3.220
83987SOL     OW53793  13.119   8.628   6.716
83987SOL    HW153794  13.086   8.667   6.634
83987SOL    HW253795  13.047   8.572   6.746
83988SOL     OW53796   8.111   4.836  13.081
83988SOL    HW153797   8.091   4.792  12.998
83988SOL    HW253798   8.157   4.769  13.132
83989SOL     OW53799   3.467  12.512  13.426
83989SOL    HW153800   3.561  12.504  13.446
83989SOL    HW253801   3.464  12.532  13.332
83990SOL     OW53802  11.281  11.592   4.464
83990SOL    HW153803  11.196  11.610   4.422
83990SOL    HW253804  11.278  11.499   4.486
83991SOL     OW53805   4.315  10.944   1.803
83991SOL    HW153806   4.355  10.906   1.725
83991SOL    HW253807   4.377  11.010   1.833
83992SOL     OW53808  13.955   8.087   2.305
83992SOL    HW153809  13.872   8.066   2.347
83992SOL    HW253810  13.960   8.027   2.230
83993SOL     OW53811   2.963   6.323  10.961
83993SOL    HW153812   2.922   6.257  10.905
83993SOL    HW253813   2.944   6.294  11.050
83994SOL     OW53814   1.224   4.931  11.677
83994SOL    HW153815   1.195   4.848  11.640
83994SOL    HW253816   1.319   4.933  11.662
83995SOL     OW53817   4.278   2.426   6.978
83995SOL    HW153818   4.300   2.429   6.885
83995SOL    HW253819   4.255   2.334   6.994
83996SOL     OW53820  14.105  10.181   3.411
83996SOL    HW153821  14.146  10.247   3.355
83996SOL    HW253822  14.111  10.100   3.360
83997SOL     OW53823  10.838  12.482   2.473
83997SOL    HW153824  10.776  12.555   2.473
83997SOL    HW253825  10.901  12.504   2.542
83998SOL     OW53826   6.710   4.280   9.791
83998SOL    HW153827   6.733   4.311   9.878
83998SOL    HW253828   6.615   4.264   9.796
83999SOL     OW53829   3.071   9.214   2.328
83999SOL    HW153830   3.104   9.194   2.240
83999SOL    HW253831   3.148   9.208   2.384
84000SOL     OW53832  11.731  14.337   1.064
84000SOL    HW153833  11.767  14.275   1.001
84000SOL    HW253834  11.753  14.423   1.029
84001SOL     OW53835   3.012  11.927  10.067
84001SOL    HW153836   3.085  11.894  10.014
84001SOL    HW253837   2.991  12.012  10.029
84002SOL     OW53838   0.706   2.836  10.022
84002SOL    HW153839   0.764   2.857   9.949
84002SOL    HW253840   0.621   2.871   9.996
84003SOL     OW53841   1.974  11.426   6.802
84003SOL    HW153842   1.883  11.450   6.788
84003SOL    HW253843   1.988  11.438   6.896
84004SOL     OW53844   6.122   3.602   2.232
84004SOL    HW153845   6.121   3.634   2.141
84004SOL    HW253846   6.169   3.669   2.280
84005SOL     OW53847  14.372   7.429   0.719
84005SOL    HW153848  14.284   7.392   0.725
84005SOL    HW253849  14.388   7.438   0.625
84006SOL     OW53850  10.705   1.327   3.063
84006SOL    HW153851  10.730   1.378   2.986
84006SOL    HW253852  10.756   1.246   3.057
84007SOL     OW53853   1.433  11.955   2.463
84007SOL    HW153854   1.406  11.881   2.517
84007SOL    HW253855   1.366  12.022   2.479
84008SOL     OW53856   7.267  12.091   4.059
84008SOL    HW153857   7.283  12.067   4.150
84008SOL    HW253858   7.271  12.008   4.012
84009SOL     OW53859   8.330   6.360   9.881
84009SOL    HW153860   8.370   6.290   9.828
84009SOL    HW253861   8.355   6.441   9.836
84010SOL     OW53862   2.284   8.268   8.096
84010SOL    HW153863   2.340   8.291   8.022
84010SOL    HW253864   2.275   8.349   8.146
84011SOL     OW53865   8.736   6.586   8.810
84011SOL    HW153866   8.825   6.557   8.826
84011SOL    HW253867   8.720   6.653   8.876
84012SOL     OW53868  10.767   3.613  10.296
84012SOL    HW153869  10.708   3.584  10.366
84012SOL    HW253870  10.718   3.594  10.216
84013SOL     OW53871   4.626   7.919   1.681
84013SOL    HW153872   4.620   7.854   1.612
84013SOL    HW253873   4.713   7.907   1.719
84014SOL     OW53874   1.063  13.090   5.224
84014SOL    HW153875   1.150  13.104   5.261
84014SOL    HW253876   1.063  13.141   5.143
84015SOL     OW53877   7.090  12.419   1.391
84015SOL    HW153878   7.052  12.399   1.476
84015SOL    HW253879   7.035  12.490   1.357
84016SOL     OW53880   4.697   2.348  14.734
84016SOL    HW153881   4.641   2.309  14.668
84016SOL    HW253882   4.649   2.426  14.763
84017SOL     OW53883  11.146   4.667  11.525
84017SOL    HW153884  11.051   4.665  11.529
84017SOL    HW253885  11.167   4.649  11.433
84018SOL     OW53886   7.776   8.693   8.069
84018SOL    HW153887   7.839   8.740   8.014
84018SOL    HW253888   7.714   8.761   8.097
84019SOL     OW53889   8.504  14.162   8.392
84019SOL    HW153890   8.498  14.204   8.478
84019SOL    HW253891   8.431  14.198   8.343
84020SOL     OW53892   0.152  12.746   2.171
84020SOL    HW153893   0.167  12.652   2.159
84020SOL    HW253894   0.222  12.787   2.120
84021SOL     OW53895   5.408  12.468   6.029
84021SOL    HW153896   5.360  12.455   5.947
84021SOL    HW253897   5.377  12.553   6.062
84022SOL     OW53898   5.236   7.047   0.532
84022SOL    HW153899   5.318   7.069   0.577
84022SOL    HW253900   5.242   6.953   0.517
84023SOL     OW53901   9.341   4.533   3.269
84023SOL    HW153902   9.283   4.570   3.202
84023SOL    HW253903   9.380   4.456   3.227
84024SOL     OW53904  12.786   2.112  13.876
84024SOL    HW153905  12.881   2.127  13.883
84024SOL    HW253906  12.768   2.043  13.940
84025SOL     OW53907  11.164   7.903   0.141
84025SOL    HW153908  11.246   7.952   0.157
84025SOL    HW253909  11.185   7.844   0.069
84026SOL     OW53910  14.538   9.159   7.213
84026SOL    HW153911  14.490   9.141   7.133
84026SOL    HW253912  14.623   9.191   7.184
84027SOL     OW53913   2.960   8.563   1.150
84027SOL    HW153914   2.992   8.473   1.160
84027SOL    HW253915   2.866   8.553   1.135
84028SOL     OW53916   5.079  10.933   3.560
84028SOL    HW153917   5.172  10.947   3.574
84028SOL    HW253918   5.070  10.839   3.545
84029SOL     OW53919   9.255   5.184   2.244
84029SOL    HW153920   9.290   5.269   2.270
84029SOL    HW253921   9.331   5.125   2.247
84030SOL     OW53922  12.879   5.533   6.483
84030SOL    HW153923  12.957   5.483   6.505
84030SOL    HW253924  12.847   5.493   6.402
84031SOL     OW53925   8.933   5.912  13.162
84031SOL    HW153926   8.886   5.981  13.209
84031SOL    HW253927   8.873   5.837  13.162
84032SOL     OW53928  13.452  11.877   9.992
84032SOL    HW153929  13.474  11.959   9.947
84032SOL    HW253930  13.357  11.870   9.986
84033SOL     OW53931   6.319  13.446   8.008
84033SOL    HW153932   6.322  13.506   8.082
84033SOL    HW253933   6.264  13.374   8.038
84034SOL     OW53934   6.857   1.960   3.012
84034SOL    HW153935   6.819   2.048   3.009
84034SOL    HW253936   6.950   1.974   3.031
84035SOL     OW53937   6.639  10.744   9.187
84035SOL    HW153938   6.544  10.728   9.194
84035SOL    HW253939   6.674  10.714   9.271
84036SOL     OW53940  12.859   7.344  12.868
84036SOL    HW153941  12.877   7.369  12.777
84036SOL    HW253942  12.867   7.425  12.917
84037SOL     OW53943   5.851   6.785   6.626
84037SOL    HW153944   5.856   6.842   6.549
84037SOL    HW253945   5.869   6.697   6.591
84038SOL     OW53946  12.217  11.750   6.252
84038SOL    HW153947  12.244  11.817   6.188
84038SOL    HW253948  12.135  11.784   6.289
84039SOL     OW53949  10.134   6.270  13.705
84039SOL    HW153950  10.057   6.217  13.682
84039SOL    HW253951  10.098   6.351  13.739
84040SOL     OW53952  13.034  14.809  13.310
84040SOL    HW153953  12.981  14.851  13.243
84040SOL    HW253954  13.076   0.008  13.357
84041SOL     OW53955   6.749   7.343   1.237
84041SOL    HW153956   6.766   7.426   1.282
84041SOL    HW253957   6.663   7.354   1.197
84042SOL     OW53958  12.110   8.663  10.242
84042SOL    HW153959  12.073   8.583  10.279
84042SOL    HW253960  12.201   8.642  10.225
84043SOL     OW53961  10.554   4.124   9.110
84043SOL    HW153962  10.633   4.111   9.163
84043SOL    HW253963  10.584   4.114   9.019
84044SOL     OW53964   7.969   6.687   9.514
84044SOL    HW153965   7.985   6.677   9.420
84044SOL    HW253966   8.045   6.646   9.555
84045SOL     OW53967   9.526  14.833   5.867
84045SOL    HW153968   9.440  14.821   5.909
84045SOL    HW253969   9.578   0.007   5.932
84046SOL     OW53970   7.156  12.521   2.698
84046SOL    HW153971   7.117  12.599   2.658
84046SOL    HW253972   7.131  12.527   2.790
84047SOL     OW53973   4.224   5.559   4.313
84047SOL    HW153974   4.191   5.503   4.243
84047SOL    HW253975   4.256   5.498   4.380
84048SOL     OW53976  12.152   1.469  11.096
84048SOL    HW153977  12.059   1.458  11.116
84048SOL    HW253978  12.188   1.516  11.171
84049SOL     OW53979  11.595   1.127   5.278
84049SOL    HW153980  11.665   1.069   5.310
84049SOL    HW253981  11.535   1.069   5.232
84050SOL     OW53982   2.719   5.052  12.565
84050SOL    HW153983   2.685   5.026  12.650
84050SOL    HW253984   2.747   5.143  12.577
84051SOL     OW53985   9.401  14.650  10.130
84051SOL    HW153986   9.323  14.605  10.161
84051SOL    HW253987   9.432  14.596  10.057
84052SOL     OW53988   7.362   7.795   6.050
84052SOL    HW153989   7.373   7.857   6.122
84052SOL    HW253990   7.382   7.710   6.089
84053SOL     OW53991  14.074  12.447  14.790
84053SOL    HW153992  14.147  12.507  14.776
84053SOL    HW253993  14.011  12.471  14.721
84054SOL     OW53994  10.721   3.551   2.928
84054SOL    HW153995  10.802   3.572   2.974
84054SOL    HW253996  10.719   3.613   2.855
84055SOL     OW53997   5.844   2.496   0.952
84055SOL    HW153998   5.856   2.447   0.870
84055SOL    HW253999   5.835   2.429   1.019
84056SOL     OW54000  11.405   1.185  10.051
84056SOL    HW154001  11.423   1.210   9.960
84056SOL    HW254002  11.381   1.092  10.046
84057SOL     OW54003   0.273   8.141   3.671
84057SOL    HW154004   0.267   8.051   3.637
84057SOL    HW254005   0.234   8.136   3.758
84058SOL     OW54006   2.088   1.360   8.662
84058SOL    HW154007   2.086   1.306   8.582
84058SOL    HW254008   2.138   1.307   8.724
84059SOL     OW54009   6.197  14.202   9.778
84059SOL    HW154010   6.220  14.128   9.721
84059SOL    HW254011   6.276  14.254   9.783
84060SOL     OW54012   0.995  10.622   4.260
84060SOL    HW154013   1.032  10.542   4.298
84060SOL    HW254014   1.043  10.693   4.302
84061SOL     OW54015   9.425   0.953   7.546
84061SOL    HW154016   9.343   0.978   7.504
84061SOL    HW254017   9.445   1.025   7.605
84062SOL     OW54018   2.815   8.974   7.092
84062SOL    HW154019   2.879   8.966   7.162
84062SOL    HW254020   2.822   8.891   7.043
84063SOL     OW54021   0.922   1.810  11.574
84063SOL    HW154022   0.907   1.843  11.663
84063SOL    HW254023   1.013   1.833  11.556
84064SOL     OW54024   2.166  12.386   1.133
84064SOL    HW154025   2.100  12.385   1.065
84064SOL    HW254026   2.133  12.447   1.199
84065SOL     OW54027   8.471   6.216   8.259
84065SOL    HW154028   8.456   6.297   8.309
84065SOL    HW254029   8.464   6.146   8.325
84066SOL     OW54030   0.037   8.602   4.576
84066SOL    HW154031  14.864   8.519   4.591
84066SOL    HW254032   0.039   8.644   4.662
84067SOL     OW54033   3.488  11.713  11.291
84067SOL    HW154034   3.541  11.645  11.249
84067SOL    HW254035   3.459  11.769  11.219
84068SOL     OW54036  10.321   0.548   3.747
84068SOL    HW154037  10.307   0.594   3.664
84068SOL    HW254038  10.377   0.606   3.797
84069SOL     OW54039   2.520   6.517  11.949
84069SOL    HW154040   2.573   6.532  12.027
84069SOL    HW254041   2.583   6.517  11.876
84070SOL     OW54042   4.877   6.990  14.680
84070SOL    HW154043   4.829   6.943  14.748
84070SOL    HW254044   4.824   6.978  14.601
84071SOL     OW54045  11.730   5.518  14.637
84071SOL    HW154046  11.719   5.613  14.635
84071SOL    HW254047  11.640   5.484  14.637
84072SOL     OW54048   7.933  10.958  10.575
84072SOL    HW154049   7.930  10.954  10.479
84072SOL    HW254050   7.867  11.023  10.598
84073SOL     OW54051  11.778   4.486   1.927
84073SOL    HW154052  11.773   4.422   1.856
84073SOL    HW254053  11.687   4.510   1.944
84074SOL     OW54054  12.041   0.825   1.242
84074SOL    HW154055  12.089   0.743   1.251
84074SOL    HW254056  12.105   0.885   1.202
84075SOL     OW54057  13.275   3.826   2.124
84075SOL    HW154058  13.315   3.868   2.047
84075SOL    HW254059  13.285   3.890   2.194
84076SOL     OW54060   5.837   9.460  12.239
84076SOL    HW154061   5.925   9.422  12.238
84076SOL    HW254062   5.801   9.436  12.325
84077SOL     OW54063   1.842   2.682   2.954
84077SOL    HW154064   1.897   2.608   2.930
84077SOL    HW254065   1.756   2.643   2.973
84078SOL     OW54066   9.941   0.165   6.801
84078SOL    HW154067   9.858   0.122   6.780
84078SOL    HW254068   9.923   0.258   6.791
84079SOL     OW54069   4.578   0.440   4.855
84079SOL    HW154070   4.494   0.478   4.828
84079SOL    HW254071   4.554   0.359   4.901
84080SOL     OW54072   4.974   8.823   5.148
84080SOL    HW154073   4.895   8.775   5.172
84080SOL    HW254074   4.949   8.871   5.069
84081SOL     OW54075  11.510   6.583   4.973
84081SOL    HW154076  11.565   6.545   5.042
84081SOL    HW254077  11.422   6.585   5.011
84082SOL     OW54078   9.411   6.953   1.363
84082SOL    HW154079   9.463   6.919   1.436
84082SOL    HW254080   9.406   6.880   1.301
84083SOL     OW54081   9.584   4.141   2.182
84083SOL    HW154082   9.646   4.127   2.254
84083SOL    HW254083   9.603   4.070   2.120
84084SOL     OW54084   2.594   4.511   1.431
84084SOL    HW154085   2.500   4.512   1.444
84084SOL    HW254086   2.631   4.525   1.519
84085SOL     OW54087   7.340   2.124  12.254
84085SOL    HW154088   7.353   2.062  12.325
84085SOL    HW254089   7.315   2.205  12.297
84086SOL     OW54090   2.262  10.395  13.516
84086SOL    HW154091   2.273  10.334  13.589
84086SOL    HW254092   2.170  10.385  13.490
84087SOL     OW54093   4.728   5.360   1.891
84087SOL    HW154094   4.702   5.333   1.802
84087SOL    HW254095   4.679   5.441   1.907
84088SOL     OW54096   2.028  11.541   2.243
84088SOL    HW154097   2.123  11.530   2.236
84088SOL    HW254098   1.998  11.548   2.153
84089SOL     OW54099   6.529  10.312   2.879
84089SOL    HW154100   6.486  10.360   2.808
84089SOL    HW254101   6.541  10.224   2.844
84090SOL     OW54102   4.083   0.191  11.428
84090SOL    HW154103   4.171   0.199  11.391
84090SOL    HW254104   4.091   0.123  11.495
84091SOL     OW54105   2.195  12.970   3.526
84091SOL    HW154106   2.209  13.033   3.596
84091SOL    HW254107   2.272  12.979   3.470
84092SOL     OW54108   1.365   1.836  12.767
84092SOL    HW154109   1.347   1.806  12.678
84092SOL    HW254110   1.443   1.787  12.793
84093SOL     OW54111   3.361   5.972   1.685
84093SOL    HW154112   3.435   5.913   1.698
84093SOL    HW254113   3.402   6.057   1.668
84094SOL     OW54114   7.683   3.598   7.200
84094SOL    HW154115   7.657   3.542   7.273
84094SOL    HW254116   7.612   3.590   7.137
84095SOL     OW54117   6.267   4.657  13.055
84095SOL    HW154118   6.178   4.624  13.069
84095SOL    HW254119   6.294   4.688  13.141
84096SOL     OW54120   6.212   5.405  11.389
84096SOL    HW154121   6.263   5.439  11.315
84096SOL    HW254122   6.123   5.396  11.354
84097SOL     OW54123   1.582   4.386   2.460
84097SOL    HW154124   1.509   4.413   2.403
84097SOL    HW254125   1.659   4.425   2.419
84098SOL     OW54126   0.715   6.463   5.671
84098SOL    HW154127   0.796   6.435   5.627
84098SOL    HW254128   0.743   6.532   5.731
84099SOL     OW54129   5.023   9.101   2.067
84099SOL    HW154130   4.934   9.067   2.078
84099SOL    HW254131   5.042   9.089   1.974
84100SOL     OW54132  12.532   1.751   3.067
84100SOL    HW154133  12.495   1.710   3.145
84100SOL    HW254134  12.586   1.683   3.027
84101SOL     OW54135   1.787   8.980   8.519
84101SOL    HW154136   1.862   8.948   8.470
84101SOL    HW254137   1.755   8.904   8.567
84102SOL     OW54138   1.779   9.356  10.748
84102SOL    HW154139   1.804   9.332  10.659
84102SOL    HW254140   1.768   9.451  10.746
84103SOL     OW54141   1.313   7.042   8.398
84103SOL    HW154142   1.389   7.067   8.451
84103SOL    HW254143   1.255   6.997   8.459
84104SOL     OW54144   0.379   7.059  13.309
84104SOL    HW154145   0.451   7.122  13.299
84104SOL    HW254146   0.323   7.075  13.233
84105SOL     OW54147   6.335   4.328  14.724
84105SOL    HW154148   6.302   4.404  14.772
84105SOL    HW254149   6.374   4.273  14.792
84106SOL     OW54150   6.800   9.894   9.426
84106SOL    HW154151   6.780   9.895   9.520
84106SOL    HW254152   6.741   9.958   9.388
84107SOL     OW54153   0.895   3.545   9.213
84107SOL    HW154154   0.893   3.640   9.229
84107SOL    HW254155   0.804   3.522   9.194
84108SOL     OW54156   7.515   2.687   0.287
84108SOL    HW154157   7.563   2.606   0.272
84108SOL    HW254158   7.576   2.757   0.264
84109SOL     OW54159   1.739   8.367   3.952
84109SOL    HW154160   1.743   8.370   3.856
84109SOL    HW254161   1.704   8.453   3.977
84110SOL     OW54162  14.737   9.241   8.206
84110SOL    HW154163  14.701   9.186   8.136
84110SOL    HW254164  14.730   9.330   8.172
84111SOL     OW54165   6.863   7.033  11.689
84111SOL    HW154166   6.814   7.022  11.608
84111SOL    HW254167   6.952   7.055  11.661
84112SOL     OW54168   7.974   2.208  11.770
84112SOL    HW154169   7.888   2.246  11.753
84112SOL    HW254170   7.964   2.161  11.852
84113SOL     OW54171   6.683   0.820  10.948
84113SOL    HW154172   6.757   0.850  11.001
84113SOL    HW254173   6.716   0.820  10.858
84114SOL     OW54174   6.689  10.871   1.323
84114SOL    HW154175   6.597  10.855   1.345
84114SOL    HW254176   6.697  10.966   1.321
84115SOL     OW54177   8.951  10.957   1.427
84115SOL    HW154178   8.994  10.902   1.492
84115SOL    HW254179   8.981  10.921   1.343
84116SOL     OW54180  13.982   0.569   1.845
84116SOL    HW154181  13.982   0.521   1.762
84116SOL    HW254182  14.075   0.582   1.866
84117SOL     OW54183   9.262   3.870  12.077
84117SOL    HW154184   9.179   3.863  12.029
84117SOL    HW254185   9.259   3.957  12.117
84118SOL     OW54186   3.452   0.252   4.582
84118SOL    HW154187   3.369   0.206   4.572
84118SOL    HW254188   3.508   0.191   4.630
84119SOL     OW54189   3.228  14.788   2.669
84119SOL    HW154190   3.153  14.754   2.620
84119SOL    HW254191   3.259  14.714   2.721
84120SOL     OW54192   1.673   9.794  11.052
84120SOL    HW154193   1.665   9.871  11.108
84120SOL    HW254194   1.737   9.820  10.985
84121SOL     OW54195   4.567   2.113   1.689
84121SOL    HW154196   4.474   2.096   1.676
84121SOL    HW254197   4.585   2.083   1.779
84122SOL     OW54198  12.219   2.292  14.862
84122SOL    HW154199  12.216   2.248  14.777
84122SOL    HW254200  12.128   2.313   0.008
84123SOL     OW54201   8.286  12.967  12.127
84123SOL    HW154202   8.240  12.974  12.043
84123SOL    HW254203   8.220  12.987  12.193
84124SOL     OW54204   3.021  14.819   7.124
84124SOL    HW154205   3.082  14.860   7.062
84124SOL    HW254206   2.953  14.780   7.069
84125SOL     OW54207   4.275   1.112   4.992
84125SOL    HW154208   4.362   1.073   5.005
84125SOL    HW254209   4.232   1.052   4.931
84126SOL     OW54210  11.445   1.227   5.929
84126SOL    HW154211  11.502   1.251   6.002
84126SOL    HW254212  11.491   1.259   5.851
84127SOL     OW54213   8.708   7.391   3.628
84127SOL    HW154214   8.616   7.412   3.612
84127SOL    HW254215   8.709   7.296   3.642
84128SOL     OW54216   0.309   6.605   2.590
84128SOL    HW154217   0.261   6.539   2.640
84128SOL    HW254218   0.348   6.662   2.656
84129SOL     OW54219  11.051   2.772   5.350
84129SOL    HW154220  11.138   2.731   5.350
84129SOL    HW254221  11.009   2.739   5.429
84130SOL     OW54222   2.637   5.023  14.288
84130SOL    HW154223   2.640   5.068  14.204
84130SOL    HW254224   2.630   5.094  14.353
84131SOL     OW54225   5.421   1.393  10.104
84131SOL    HW154226   5.408   1.343  10.185
84131SOL    HW254227   5.492   1.346  10.059
84132SOL     OW54228   5.519  12.943  11.201
84132SOL    HW154229   5.487  12.883  11.269
84132SOL    HW254230   5.454  12.938  11.132
84133SOL     OW54231  13.372   7.910   4.467
84133SOL    HW154232  13.380   7.998   4.429
84133SOL    HW254233  13.460   7.873   4.458
84134SOL     OW54234   7.595   6.388   0.241
84134SOL    HW154235   7.575   6.380   0.148
84134SOL    HW254236   7.613   6.299   0.270
84135SOL     OW54237  12.562   3.796   0.896
84135SOL    HW154238  12.486   3.822   0.844
84135SOL    HW254239  12.579   3.705   0.869
84136SOL     OW54240   9.977   3.241  10.343
84136SOL    HW154241  10.054   3.225  10.288
84136SOL    HW254242   9.966   3.336  10.341
84137SOL     OW54243  11.399   4.115  13.281
84137SOL    HW154244  11.398   4.211  13.285
84137SOL    HW254245  11.491   4.094  13.262
84138SOL     OW54246   1.573   7.392  12.032
84138SOL    HW154247   1.527   7.351  12.106
84138SOL    HW254248   1.504   7.440  11.986
84139SOL     OW54249   8.463   7.210  11.238
84139SOL    HW154250   8.394   7.155  11.202
84139SOL    HW254251   8.534   7.206  11.174
84140SOL     OW54252  10.911   0.499   1.543
84140SOL    HW154253  10.987   0.445   1.565
84140SOL    HW254254  10.936   0.545   1.463
84141SOL     OW54255   6.244   0.931   7.305
84141SOL    HW154256   6.195   0.885   7.374
84141SOL    HW254257   6.291   0.862   7.259
84142SOL     OW54258  13.392  13.421   2.101
84142SOL    HW154259  13.350  13.464   2.027
84142SOL    HW254260  13.323  13.413   2.166
84143SOL     OW54261   6.923  11.570  11.502
84143SOL    HW154262   6.912  11.529  11.588
84143SOL    HW254263   6.936  11.663  11.521
84144SOL     OW54264  12.037  13.203   9.090
84144SOL    HW154265  12.059  13.175   9.001
84144SOL    HW254266  12.121  13.207   9.136
84145SOL     OW54267  14.149   2.442  10.498
84145SOL    HW154268  14.195   2.359  10.483
84145SOL    HW254269  14.182   2.500  10.430
84146SOL     OW54270   6.169  14.598   3.518
84146SOL    HW154271   6.080  14.563   3.512
84146SOL    HW254272   6.172  14.641   3.603
84147SOL     OW54273  13.053   4.941   5.589
84147SOL    HW154274  13.081   4.920   5.500
84147SOL    HW254275  13.076   5.033   5.600
84148SOL     OW54276  13.101  11.525   6.672
84148SOL    HW154277  13.044  11.452   6.697
84148SOL    HW254278  13.167  11.528   6.742
84149SOL     OW54279   6.961  11.162   6.118
84149SOL    HW154280   7.056  11.170   6.123
84149SOL    HW254281   6.928  11.250   6.136
84150SOL     OW54282  13.624  12.990   4.293
84150SOL    HW154283  13.707  13.032   4.267
84150SOL    HW254284  13.647  12.898   4.307
84151SOL     OW54285   4.624   8.370   3.894
84151SOL    HW154286   4.542   8.366   3.845
84151SOL    HW254287   4.597   8.383   3.985
84152SOL     OW54288   6.368   8.409   5.797
84152SOL    HW154289   6.450   8.451   5.770
84152SOL    HW254290   6.390   8.361   5.877
84153SOL     OW54291   1.315   9.280  14.202
84153SOL    HW154292   1.324   9.281  14.107
84153SOL    HW254293   1.401   9.252  14.234
84154SOL     OW54294   7.780  10.971   4.660
84154SOL    HW154295   7.760  11.014   4.744
84154SOL    HW254296   7.699  10.926   4.637
84155SOL     OW54297   1.445   8.068   8.419
84155SOL    HW154298   1.409   8.013   8.488
84155SOL    HW254299   1.479   8.145   8.465
84156SOL     OW54300   5.130   8.095   6.363
84156SOL    HW154301   5.102   8.039   6.435
84156SOL    HW254302   5.106   8.046   6.284
84157SOL     OW54303  11.740  13.594   1.266
84157SOL    HW154304  11.675  13.581   1.335
84157SOL    HW254305  11.784  13.676   1.289
84158SOL     OW54306   8.959   1.879   1.019
84158SOL    HW154307   8.894   1.817   1.053
84158SOL    HW254308   9.036   1.865   1.075
84159SOL     OW54309  10.620  12.285   7.594
84159SOL    HW154310  10.640  12.269   7.502
84159SOL    HW254311  10.652  12.374   7.610
84160SOL     OW54312   2.963  12.031   9.662
84160SOL    HW154313   2.959  12.008   9.569
84160SOL    HW254314   3.046  12.079   9.671
84161SOL     OW54315   1.156   4.081   4.381
84161SOL    HW154316   1.092   4.099   4.312
84161SOL    HW254317   1.241   4.088   4.337
84162SOL     OW54318   0.419   5.929  12.721
84162SOL    HW154319   0.406   5.888  12.806
84162SOL    HW254320   0.514   5.927  12.707
84163SOL     OW54321   4.297  13.770   7.660
84163SOL    HW154322   4.253  13.741   7.580
84163SOL    HW254323   4.298  13.693   7.716
84164SOL     OW54324  10.593   6.757  13.581
84164SOL    HW154325  10.635   6.772  13.666
84164SOL    HW254326  10.663   6.721  13.526
84165SOL     OW54327   4.758   3.888   5.837
84165SOL    HW154328   4.745   3.939   5.756
84165SOL    HW254329   4.769   3.798   5.807
84166SOL     OW54330   7.859  13.864   8.274
84166SOL    HW154331   7.941  13.814   8.268
84166SOL    HW254332   7.888  13.955   8.280
84167SOL     OW54333   5.862   3.506   5.665
84167SOL    HW154334   5.908   3.579   5.623
84167SOL    HW254335   5.823   3.457   5.592
84168SOL     OW54336  13.590   2.151   3.721
84168SOL    HW154337  13.528   2.179   3.654
84168SOL    HW254338  13.545   2.167   3.804
84169SOL     OW54339   3.223   0.637  11.169
84169SOL    HW154340   3.243   0.689  11.091
84169SOL    HW254341   3.162   0.570  11.138
84170SOL     OW54342   1.819   3.479   6.208
84170SOL    HW154343   1.882   3.517   6.270
84170SOL    HW254344   1.814   3.387   6.233
84171SOL     OW54345   5.387   8.957   1.171
84171SOL    HW154346   5.359   9.031   1.117
84171SOL    HW254347   5.356   8.979   1.259
84172SOL     OW54348   8.721  10.020   9.051
84172SOL    HW154349   8.678  10.094   9.009
84172SOL    HW254350   8.665   9.999   9.126
84173SOL     OW54351  12.691   4.182  13.617
84173SOL    HW154352  12.630   4.207  13.548
84173SOL    HW254353  12.777   4.202  13.581
84174SOL     OW54354   1.327   1.888   0.765
84174SOL    HW154355   1.416   1.854   0.756
84174SOL    HW254356   1.272   1.819   0.729
84175SOL     OW54357   6.839   4.763  12.570
84175SOL    HW154358   6.935   4.767  12.574
84175SOL    HW254359   6.811   4.854  12.576
84176SOL     OW54360  13.682   3.158   3.706
84176SOL    HW154361  13.635   3.155   3.623
84176SOL    HW254362  13.743   3.084   3.703
84177SOL     OW54363   8.467   0.700   1.715
84177SOL    HW154364   8.412   0.718   1.639
84177SOL    HW254365   8.478   0.605   1.714
84178SOL     OW54366   9.948  13.834   5.424
84178SOL    HW154367   9.920  13.755   5.471
84178SOL    HW254368   9.894  13.904   5.460
84179SOL     OW54369   8.154  11.876   8.050
84179SOL    HW154370   8.124  11.853   7.962
84179SOL    HW254371   8.080  11.924   8.089
84180SOL     OW54372   0.044   9.400   4.383
84180SOL    HW154373   0.021   9.313   4.415
84180SOL    HW254374  14.833   9.444   4.371
84181SOL     OW54375   5.012   0.026   1.263
84181SOL    HW154376   4.957  14.868   1.335
84181SOL    HW254377   4.958   0.015   1.185
84182SOL     OW54378   7.454  11.760  11.813
84182SOL    HW154379   7.525  11.702  11.784
84182SOL    HW254380   7.428  11.808  11.735
84183SOL     OW54381  10.794   4.071  10.993
84183SOL    HW154382  10.710   4.037  10.961
84183SOL    HW254383  10.860   4.015  10.952
84184SOL     OW54384   2.113   8.154  13.490
84184SOL    HW154385   2.026   8.183  13.519
84184SOL    HW254386   2.097   8.114  13.404
84185SOL     OW54387  11.892   1.181   2.995
84185SOL    HW154388  11.832   1.149   3.062
84185SOL    HW254389  11.888   1.277   3.001
84186SOL     OW54390   9.387  13.752   5.729
84186SOL    HW154391   9.323  13.781   5.663
84186SOL    HW254392   9.399  13.828   5.785
84187SOL     OW54393  12.049   9.854  10.694
84187SOL    HW154394  12.077   9.931  10.645
84187SOL    HW254395  11.975   9.884  10.747
84188SOL     OW54396   2.704   4.672  13.917
84188SOL    HW154397   2.664   4.721  13.989
84188SOL    HW254398   2.741   4.594  13.957
84189SOL     OW54399   8.198  12.141   9.035
84189SOL    HW154400   8.199  12.233   9.010
84189SOL    HW254401   8.154  12.096   8.963
84190SOL     OW54402   3.219   7.513   4.314
84190SOL    HW154403   3.257   7.596   4.345
84190SOL    HW254404   3.149   7.539   4.255
84191SOL     OW54405  12.203   8.769   2.422
84191SOL    HW154406  12.221   8.715   2.498
84191SOL    HW254407  12.160   8.709   2.360
84192SOL     OW54408   2.752  13.491   0.793
84192SOL    HW154409   2.741  13.411   0.845
84192SOL    HW254410   2.761  13.560   0.858
84193SOL     OW54411   2.161   2.768   4.347
84193SOL    HW154412   2.214   2.689   4.350
84193SOL    HW254413   2.224   2.839   4.334
84194SOL     OW54414   3.408   9.400  11.656
84194SOL    HW154415   3.421   9.314  11.617
84194SOL    HW254416   3.456   9.397  11.739
84195SOL     OW54417  11.493   1.892   3.445
84195SOL    HW154418  11.439   1.956   3.490
84195SOL    HW254419  11.576   1.937   3.429
84196SOL     OW54420  14.345  12.068   9.833
84196SOL    HW154421  14.392  12.092   9.753
84196SOL    HW254422  14.410  12.074   9.903
84197SOL     OW54423   9.819  14.496  10.391
84197SOL    HW154424   9.773  14.463  10.468
84197SOL    HW254425   9.773  14.577  10.367
84198SOL     OW54426   8.114   3.354  12.980
84198SOL    HW154427   8.148   3.275  13.021
84198SOL    HW254428   8.036   3.324  12.932
84199SOL     OW54429   9.174   1.302   1.856
84199SOL    HW154430   9.121   1.329   1.781
84199SOL    HW254431   9.258   1.346   1.843
84200SOL     OW54432  10.756   6.645  11.722
84200SOL    HW154433  10.750   6.563  11.673
84200SOL    HW254434  10.777   6.711  11.656
84201SOL     OW54435   3.752  10.708   1.667
84201SOL    HW154436   3.807  10.723   1.590
84201SOL    HW254437   3.665  10.688   1.632
84202SOL     OW54438   2.509   8.251   1.232
84202SOL    HW154439   2.550   8.165   1.227
84202SOL    HW254440   2.502   8.269   1.326
84203SOL     OW54441   6.240  12.859   3.717
84203SOL    HW154442   6.265  12.848   3.809
84203SOL    HW254443   6.323  12.864   3.670
84204SOL     OW54444   6.684   9.213   2.629
84204SOL    HW154445   6.656   9.173   2.711
84204SOL    HW254446   6.604   9.223   2.578
84205SOL     OW54447   6.179  13.243   2.680
84205SOL    HW154448   6.231  13.200   2.612
84205SOL    HW254449   6.109  13.180   2.700
84206SOL     OW54450   5.829  13.249  10.728
84206SOL    HW154451   5.781  13.166  10.725
84206SOL    HW254452   5.763  13.315  10.748
84207SOL     OW54453  11.014   6.623   9.443
84207SOL    HW154454  11.085   6.571   9.405
84207SOL    HW254455  10.997   6.582   9.528
84208SOL     OW54456   9.198   5.552  12.898
84208SOL    HW154457   9.263   5.488  12.869
84208SOL    HW254458   9.114   5.512  12.875
84209SOL     OW54459   5.771   2.930  10.789
84209SOL    HW154460   5.778   3.011  10.739
84209SOL    HW254461   5.678   2.907  10.787
84210SOL     OW54462  10.134  13.584   4.309
84210SOL    HW154463  10.081  13.507   4.328
84210SOL    HW254464  10.164  13.614   4.394
84211SOL     OW54465  11.834   7.002   0.162
84211SOL    HW154466  11.804   6.975   0.249
84211SOL    HW254467  11.755   7.031   0.117
84212SOL     OW54468  14.507   7.082  13.312
84212SOL    HW154469  14.472   6.992  13.311
84212SOL    HW254470  14.591   7.075  13.267
84213SOL     OW54471  10.108  14.200   9.599
84213SOL    HW154472  10.053  14.267   9.639
84213SOL    HW254473  10.092  14.121   9.650
84214SOL     OW54474   6.248   8.700  11.378
84214SOL    HW154475   6.267   8.682  11.286
84214SOL    HW254476   6.243   8.796  11.384
84215SOL     OW54477   0.989   3.357   4.667
84215SOL    HW154478   1.030   3.427   4.616
84215SOL    HW254479   1.059   3.324   4.723
84216SOL     OW54480   1.063   4.553  10.190
84216SOL    HW154481   1.092   4.479  10.243
84216SOL    HW254482   1.052   4.518  10.102
84217SOL     OW54483  11.217   7.956   2.336
84217SOL    HW154484  11.275   7.951   2.412
84217SOL    HW254485  11.142   7.901   2.359
84218SOL     OW54486   3.026   4.679  10.288
84218SOL    HW154487   3.121   4.670  10.289
84218SOL    HW254488   3.008   4.742  10.219
84219SOL     OW54489  13.684  10.110  14.375
84219SOL    HW154490  13.607  10.134  14.324
84219SOL    HW254491  13.757  10.150  14.328
84220SOL     OW54492   1.705   2.827   5.323
84220SOL    HW154493   1.707   2.795   5.413
84220SOL    HW254494   1.796   2.830   5.296
84221SOL     OW54495  13.393   8.762   6.489
84221SOL    HW154496  13.350   8.744   6.405
84221SOL    HW254497  13.487   8.758   6.469
84222SOL     OW54498   1.769  13.259   6.110
84222SOL    HW154499   1.822  13.297   6.180
84222SOL    HW254500   1.788  13.313   6.033
84223SOL     OW54501   4.084   1.127   9.076
84223SOL    HW154502   4.095   1.072   9.153
84223SOL    HW254503   4.173   1.145   9.046
84224SOL     OW54504   0.818   4.281   8.727
84224SOL    HW154505   0.759   4.356   8.728
84224SOL    HW254506   0.781   4.221   8.792
84225SOL     OW54507   9.484  10.210   3.605
84225SOL    HW154508   9.551  10.270   3.639
84225SOL    HW254509   9.497  10.211   3.510
84226SOL     OW54510   3.530   9.169  13.728
84226SOL    HW154511   3.478   9.102  13.774
84226SOL    HW254512   3.464   9.228  13.690
84227SOL     OW54513  13.443  14.781  11.152
84227SOL    HW154514  13.360  14.818  11.124
84227SOL    HW254515  13.438  14.689  11.125
84228SOL     OW54516   0.102   2.575   9.613
84228SOL    HW154517   0.022   2.526   9.632
84228SOL    HW254518   0.163   2.548   9.681
84229SOL     OW54519   8.427   8.740   5.280
84229SOL    HW154520   8.360   8.699   5.226
84229SOL    HW254521   8.509   8.700   5.252
84230SOL     OW54522   2.863  13.730   7.568
84230SOL    HW154523   2.781  13.712   7.613
84230SOL    HW254524   2.895  13.811   7.607
84231SOL     OW54525   9.022   8.674   5.055
84231SOL    HW154526   8.977   8.705   4.977
84231SOL    HW254527   8.963   8.609   5.093
84232SOL     OW54528  14.180   0.981   5.080
84232SOL    HW154529  14.267   0.962   5.044
84232SOL    HW254530  14.187   0.957   5.173
84233SOL     OW54531  13.922  12.660   8.451
84233SOL    HW154532  13.863  12.589   8.476
84233SOL    HW254533  14.006  12.618   8.436
84234SOL     OW54534   2.037   1.894  10.413
84234SOL    HW154535   2.030   1.907  10.507
84234SOL    HW254536   2.023   1.981  10.376
84235SOL     OW54537   5.103  10.744   8.338
84235SOL    HW154538   5.023  10.750   8.391
84235SOL    HW254539   5.172  10.724   8.401
84236SOL     OW54540   0.190   9.933   7.942
84236SOL    HW154541   0.264   9.936   7.881
84236SOL    HW254542   0.124   9.989   7.901
84237SOL     OW54543  14.030   6.603   8.991
84237SOL    HW154544  13.954   6.656   9.015
84237SOL    HW254545  14.004   6.556   8.912
84238SOL     OW54546   7.298   7.504   1.929
84238SOL    HW154547   7.231   7.563   1.894
84238SOL    HW254548   7.306   7.528   2.021
84239SOL     OW54549   6.403   9.565   2.024
84239SOL    HW154550   6.370   9.633   2.083
84239SOL    HW254551   6.373   9.592   1.937
84240SOL     OW54552  11.922   8.260  11.851
84240SOL    HW154553  11.996   8.317  11.832
84240SOL    HW254554  11.963   8.175  11.870
84241SOL     OW54555   5.993   9.675   2.510
84241SOL    HW154556   5.950   9.718   2.585
84241SOL    HW254557   6.044   9.744   2.469
84242SOL     OW54558   8.380  14.352   9.406
84242SOL    HW154559   8.436  14.275   9.394
84242SOL    HW254560   8.339  14.365   9.321
84243SOL     OW54561   4.517  11.641   2.220
84243SOL    HW154562   4.574  11.572   2.255
84243SOL    HW254563   4.475  11.680   2.297
84244SOL     OW54564   8.796  10.150   6.240
84244SOL    HW154565   8.828  10.099   6.165
84244SOL    HW254566   8.701  10.137   6.239
84245SOL     OW54567   0.679   1.930   5.201
84245SOL    HW154568   0.745   1.962   5.263
84245SOL    HW254569   0.714   1.952   5.115
84246SOL     OW54570  12.052  12.467   0.921
84246SOL    HW154571  12.056  12.516   1.003
84246SOL    HW254572  12.137  12.483   0.880
84247SOL     OW54573   1.519  11.051  13.256
84247SOL    HW154574   1.541  10.984  13.321
84247SOL    HW254575   1.587  11.118  13.268
84248SOL     OW54576   3.639   6.564   4.848
84248SOL    HW154577   3.729   6.533   4.835
84248SOL    HW254578   3.594   6.491   4.890
84249SOL     OW54579   4.650   4.911  11.438
84249SOL    HW154580   4.671   4.978  11.503
84249SOL    HW254581   4.703   4.934  11.362
84250SOL     OW54582   4.451   9.841   5.510
84250SOL    HW154583   4.518   9.904   5.482
84250SOL    HW254584   4.394   9.892   5.567
84251SOL     OW54585   3.103   0.082   5.591
84251SOL    HW154586   3.155   0.130   5.656
84251SOL    HW254587   3.015   0.118   5.600
84252SOL     OW54588   8.875   9.548   8.425
84252SOL    HW154589   8.817   9.573   8.497
84252SOL    HW254590   8.957   9.524   8.468
84253SOL     OW54591  11.710   7.973   5.358
84253SOL    HW154592  11.699   7.889   5.314
84253SOL    HW254593  11.630   7.984   5.409
84254SOL     OW54594   0.063   6.929   9.992
84254SOL    HW154595   0.154   6.905   9.972
84254SOL    HW254596   0.018   6.925   9.908
84255SOL     OW54597  14.557   2.265   6.351
84255SOL    HW154598  14.650   2.243   6.345
84255SOL    HW254599  14.514   2.181   6.368
84256SOL     OW54600   7.583   8.366   0.004
84256SOL    HW154601   7.519   8.432  14.850
84256SOL    HW254602   7.607   8.321  14.795
84257SOL     OW54603   2.154   9.791   3.471
84257SOL    HW154604   2.093   9.843   3.523
84257SOL    HW254605   2.174   9.715   3.526
84258SOL     OW54606   0.217  10.673  10.902
84258SOL    HW154607   0.204  10.582  10.926
84258SOL    HW254608   0.137  10.717  10.929
84259SOL     OW54609  14.867  10.679   2.724
84259SOL    HW154610   0.076  10.700   2.680
84259SOL    HW254611   0.015  10.606   2.782
84260SOL     OW54612   8.554   4.776   3.596
84260SOL    HW154613   8.470   4.775   3.550
84260SOL    HW254614   8.619   4.767   3.527
84261SOL     OW54615  10.778   4.354  13.337
84261SOL    HW154616  10.854   4.303  13.365
84261SOL    HW254617  10.805   4.445  13.345
84262SOL     OW54618  14.335   0.520   5.882
84262SOL    HW154619  14.302   0.502   5.970
84262SOL    HW254620  14.409   0.460   5.872
84263SOL     OW54621  11.013   1.555   7.198
84263SOL    HW154622  11.047   1.589   7.280
84263SOL    HW254623  11.089   1.547   7.141
84264SOL     OW54624   3.801   5.157   7.606
84264SOL    HW154625   3.871   5.186   7.548
84264SOL    HW254626   3.779   5.069   7.576
84265SOL     OW54627  12.828   7.811  13.956
84265SOL    HW154628  12.781   7.738  13.914
84265SOL    HW254629  12.877   7.770  14.027
84266SOL     OW54630   7.098   5.770  14.128
84266SOL    HW154631   7.005   5.748  14.123
84266SOL    HW254632   7.134   5.705  14.190
84267SOL     OW54633  11.965   9.694  10.450
84267SOL    HW154634  12.059   9.711  10.450
84267SOL    HW254635  11.933   9.737  10.530
84268SOL     OW54636   1.706   1.477   2.349
84268SOL    HW154637   1.662   1.458   2.267
84268SOL    HW254638   1.695   1.572   2.361
84269SOL     OW54639  10.955  12.238   8.346
84269SOL    HW154640  10.965  12.258   8.439
84269SOL    HW254641  11.040  12.261   8.307
84270SOL     OW54642  12.252   1.006   1.087
84270SOL    HW154643  12.198   1.065   1.034
84270SOL    HW254644  12.298   1.063   1.148
84271SOL     OW54645   2.094   6.849   0.751
84271SOL    HW154646   2.120   6.876   0.662
84271SOL    HW254647   2.148   6.903   0.809
84272SOL     OW54648  12.689   4.159   0.852
84272SOL    HW154649  12.615   4.142   0.911
84272SOL    HW254650  12.678   4.250   0.825
84273SOL     OW54651   7.750  11.611  10.099
84273SOL    HW154652   7.701  11.654  10.029
84273SOL    HW254653   7.734  11.665  10.177
84274SOL     OW54654   0.337   0.502  11.193
84274SOL    HW154655   0.326   0.407  11.188
84274SOL    HW254656   0.255   0.537  11.160
84275SOL     OW54657   6.785  10.447   0.936
84275SOL    HW154658   6.690  10.443   0.926
84275SOL    HW254659   6.816  10.493   0.857
84276SOL     OW54660  13.684   2.400   5.253
84276SOL    HW154661  13.653   2.320   5.295
84276SOL    HW254662  13.608   2.457   5.250
84277SOL     OW54663  13.537  11.870   5.134
84277SOL    HW154664  13.596  11.807   5.178
84277SOL    HW254665  13.467  11.815   5.099
84278SOL     OW54666   7.982  10.569   1.426
84278SOL    HW154667   7.889  10.574   1.402
84278SOL    HW254668   7.982  10.547   1.519
84279SOL     OW54669   3.181   2.933  11.213
84279SOL    HW154670   3.105   2.891  11.172
84279SOL    HW254671   3.155   2.948  11.304
84280SOL     OW54672   2.050   6.244   8.951
84280SOL    HW154673   2.041   6.315   8.888
84280SOL    HW254674   2.116   6.187   8.913
84281SOL     OW54675   9.384   9.940  13.597
84281SOL    HW154676   9.395   9.848  13.575
84281SOL    HW254677   9.314   9.971  13.539
84282SOL     OW54678  10.092   4.722   4.300
84282SOL    HW154679  10.075   4.638   4.259
84282SOL    HW254680  10.114   4.780   4.227
84283SOL     OW54681  12.687  12.333   7.646
84283SOL    HW154682  12.725  12.351   7.560
84283SOL    HW254683  12.636  12.253   7.633
84284SOL     OW54684   6.097   6.989  11.944
84284SOL    HW154685   6.173   7.012  11.996
84284SOL    HW254686   6.098   6.893  11.939
84285SOL     OW54687   2.903   5.002   7.356
84285SOL    HW154688   2.885   5.090   7.390
84285SOL    HW254689   2.979   5.014   7.299
84286SOL     OW54690   0.193   4.642   1.296
84286SOL    HW154691   0.249   4.718   1.278
84286SOL    HW254692   0.146   4.628   1.214
84287SOL     OW54693   0.239   5.517  12.439
84287SOL    HW154694   0.328   5.488  12.460
84287SOL    HW254695   0.247   5.612  12.429
84288SOL     OW54696   8.519   8.017  13.721
84288SOL    HW154697   8.590   7.961  13.752
84288SOL    HW254698   8.455   8.018  13.792
84289SOL     OW54699  11.501   1.661  11.958
84289SOL    HW154700  11.408   1.664  11.934
84289SOL    HW254701  11.503   1.686  12.050
84290SOL     OW54702  13.668  14.417   1.031
84290SOL    HW154703  13.717  14.427   1.113
84290SOL    HW254704  13.714  14.473   0.969
84291SOL     OW54705   1.897  13.432   9.275
84291SOL    HW154706   1.983  13.472   9.259
84291SOL    HW254707   1.837  13.505   9.281
84292SOL     OW54708   6.341  12.434  13.391
84292SOL    HW154709   6.373  12.381  13.318
84292SOL    HW254710   6.247  12.441  13.376
84293SOL     OW54711   9.626   4.325  14.792
84293SOL    HW154712   9.579   4.342   0.001
84293SOL    HW254713   9.600   4.396  14.734
84294SOL     OW54714   0.609   3.498   1.023
84294SOL    HW154715   0.690   3.474   0.977
84294SOL    HW254716   0.571   3.567   0.969
84295SOL     OW54717   7.276  10.852   2.561
84295SOL    HW154718   7.257  10.768   2.602
84295SOL    HW254719   7.303  10.909   2.633
84296SOL     OW54720   8.228   0.617   4.450
84296SOL    HW154721   8.202   0.642   4.362
84296SOL    HW254722   8.296   0.680   4.474
84297SOL     OW54723   7.341   5.089   4.131
84297SOL    HW154724   7.409   5.122   4.190
84297SOL    HW254725   7.334   4.996   4.152
84298SOL     OW54726   2.978   0.223   4.740
84298SOL    HW154727   2.909   0.225   4.807
84298SOL    HW254728   3.000   0.130   4.731
84299SOL     OW54729  10.301   2.119   7.185
84299SOL    HW154730  10.311   2.050   7.250
84299SOL    HW254731  10.358   2.094   7.113
84300SOL     OW54732   7.067   1.906  11.079
84300SOL    HW154733   6.985   1.870  11.046
84300SOL    HW254734   7.042   1.966  11.149
84301SOL     OW54735  12.786   2.852  14.235
84301SOL    HW154736  12.807   2.884  14.148
84301SOL    HW254737  12.864   2.870  14.287
84302SOL     OW54738   0.110   4.155   0.966
84302SOL    HW154739   0.053   4.231   0.969
84302SOL    HW254740   0.066   4.094   0.906
84303SOL     OW54741  14.084   7.154   4.825
84303SOL    HW154742  14.082   7.058   4.816
84303SOL    HW254743  14.090   7.187   4.735
84304SOL     OW54744  13.949   8.837  14.703
84304SOL    HW154745  13.949   8.802  14.792
84304SOL    HW254746  14.039   8.826  14.673
84305SOL     OW54747  13.117  11.617   4.318
84305SOL    HW154748  13.209  11.638   4.299
84305SOL    HW254749  13.104  11.649   4.408
84306SOL     OW54750   5.457   1.520  10.671
84306SOL    HW154751   5.525   1.549  10.733
84306SOL    HW254752   5.426   1.602  10.631
84307SOL     OW54753   2.310   1.211   4.373
84307SOL    HW154754   2.380   1.185   4.313
84307SOL    HW254755   2.346   1.285   4.422
84308SOL     OW54756   2.017  11.382   9.991
84308SOL    HW154757   2.039  11.437   9.916
84308SOL    HW254758   1.932  11.344   9.969
84309SOL     OW54759   4.841   3.859  11.046
84309SOL    HW154760   4.816   3.857  10.954
84309SOL    HW254761   4.813   3.945  11.076
84310SOL     OW54762   7.731   2.684  14.391
84310SOL    HW154763   7.692   2.663  14.476
84310SOL    HW254764   7.669   2.745  14.351
84311SOL     OW54765  10.312  10.784   6.206
84311SOL    HW154766  10.293  10.767   6.298
84311SOL    HW254767  10.324  10.879   6.201
84312SOL     OW54768  12.709  13.473  11.846
84312SOL    HW154769  12.707  13.519  11.762
84312SOL    HW254770  12.618  13.472  11.875
84313SOL     OW54771   9.967   4.441   5.741
84313SOL    HW154772   9.997   4.457   5.831
84313SOL    HW254773   9.920   4.358   5.746
84314SOL     OW54774   7.198   4.998   2.637
84314SOL    HW154775   7.181   4.913   2.594
84314SOL    HW254776   7.223   4.974   2.726
84315SOL     OW54777   7.848   3.501   3.275
84315SOL    HW154778   7.805   3.585   3.293
84315SOL    HW254779   7.909   3.489   3.348
84316SOL     OW54780   9.702   8.760  12.072
84316SOL    HW154781   9.662   8.764  11.985
84316SOL    HW254782   9.643   8.704  12.122
84317SOL     OW54783   4.223   6.389  11.127
84317SOL    HW154784   4.221   6.429  11.214
84317SOL    HW254785   4.316   6.375  11.109
84318SOL     OW54786   7.597  11.493  11.301
84318SOL    HW154787   7.599  11.588  11.295
84318SOL    HW254788   7.506  11.470  11.282
84319SOL     OW54789   3.155   8.575   2.391
84319SOL    HW154790   3.078   8.542   2.344
84319SOL    HW254791   3.121   8.605   2.475
84320SOL     OW54792   6.322   9.438   5.177
84320SOL    HW154793   6.235   9.398   5.170
84320SOL    HW254794   6.361   9.397   5.254
84321SOL     OW54795   9.080   1.457   4.733
84321SOL    HW154796   9.073   1.424   4.823
84321SOL    HW254797   9.022   1.533   4.731
84322SOL     OW54798   8.958   2.447  13.986
84322SOL    HW154799   8.871   2.408  13.975
84322SOL    HW254800   9.018   2.373  13.975
84323SOL     OW54801   3.764   4.571   1.639
84323SOL    HW154802   3.821   4.647   1.626
84323SOL    HW254803   3.824   4.500   1.661
84324SOL     OW54804  11.662   3.792   5.122
84324SOL    HW154805  11.649   3.885   5.104
84324SOL    HW254806  11.595   3.747   5.071
84325SOL     OW54807  13.823   7.797  13.749
84325SOL    HW154808  13.830   7.887  13.716
84325SOL    HW254809  13.807   7.807  13.843
84326SOL     OW54810   4.247   2.806   2.438
84326SOL    HW154811   4.323   2.834   2.489
84326SOL    HW254812   4.184   2.877   2.450
84327SOL     OW54813   2.423   1.446   5.300
84327SOL    HW154814   2.405   1.438   5.394
84327SOL    HW254815   2.519   1.447   5.294
84328SOL     OW54816   1.071  14.277   7.628
84328SOL    HW154817   1.138  14.329   7.583
84328SOL    HW254818   0.992  14.331   7.626
84329SOL     OW54819   5.521   2.179  13.386
84329SOL    HW154820   5.474   2.252  13.426
84329SOL    HW254821   5.531   2.204  13.294
84330SOL     OW54822  10.297  13.503   3.495
84330SOL    HW154823  10.217  13.496   3.546
84330SOL    HW254824  10.308  13.417   3.455
84331SOL     OW54825   2.442   4.481   2.275
84331SOL    HW154826   2.451   4.386   2.280
84331SOL    HW254827   2.376   4.495   2.207
84332SOL     OW54828   3.080   4.836   8.904
84332SOL    HW154829   3.127   4.768   8.854
84332SOL    HW254830   3.149   4.891   8.941
84333SOL     OW54831   8.857   5.364   4.342
84333SOL    HW154832   8.771   5.356   4.382
84333SOL    HW254833   8.842   5.419   4.265
84334SOL     OW54834   8.914  11.343   3.702
84334SOL    HW154835   8.909  11.319   3.794
84334SOL    HW254836   8.966  11.274   3.661
84335SOL     OW54837  13.052   9.881   9.663
84335SOL    HW154838  12.970   9.918   9.630
84335SOL    HW254839  13.050   9.899   9.757
84336SOL     OW54840   7.453   0.168   0.965
84336SOL    HW154841   7.407   0.136   1.042
84336SOL    HW254842   7.392   0.152   0.893
84337SOL     OW54843   0.955   3.341   7.137
84337SOL    HW154844   1.051   3.343   7.143
84337SOL    HW254845   0.928   3.429   7.163
84338SOL     OW54846   1.080   0.940   4.244
84338SOL    HW154847   1.174   0.958   4.254
84338SOL    HW254848   1.060   0.969   4.155
84339SOL     OW54849  13.048   0.417  13.527
84339SOL    HW154850  13.074   0.455  13.611
84339SOL    HW254851  12.997   0.486  13.485
84340SOL     OW54852   0.607   2.583   0.322
84340SOL    HW154853   0.552   2.526   0.375
84340SOL    HW254854   0.596   2.670   0.361
84341SOL     OW54855   1.922  12.818  10.839
84341SOL    HW154856   1.869  12.887  10.880
84341SOL    HW254857   2.009  12.858  10.832
84342SOL     OW54858  14.793   8.167  14.723
84342SOL    HW154859   0.003   8.147  14.766
84342SOL    HW254860  14.787   8.103  14.652
84343SOL     OW54861  11.488   1.529   9.155
84343SOL    HW154862  11.449   1.485   9.079
84343SOL    HW254863  11.413   1.558   9.207
84344SOL     OW54864   5.033   4.145   2.365
84344SOL    HW154865   4.995   4.061   2.392
84344SOL    HW254866   5.071   4.127   2.280
84345SOL     OW54867  10.619   9.060  14.334
84345SOL    HW154868  10.560   9.129  14.365
84345SOL    HW254869  10.677   9.044  14.408
84346SOL     OW54870   1.252  12.108   1.610
84346SOL    HW154871   1.244  12.048   1.685
84346SOL    HW254872   1.292  12.187   1.647
84347SOL     OW54873  10.939   5.370  14.845
84347SOL    HW154874  10.913   5.355   0.063
84347SOL    HW254875  10.981   5.456  14.846
84348SOL     OW54876   5.218   7.881   0.827
84348SOL    HW154877   5.169   7.867   0.746
84348SOL    HW254878   5.234   7.792   0.860
84349SOL     OW54879   2.953   4.989  10.400
84349SOL    HW154880   2.956   5.054  10.330
84349SOL    HW254881   2.972   4.906  10.355
84350SOL     OW54882   9.624   9.372  14.177
84350SOL    HW154883   9.672   9.330  14.106
84350SOL    HW254884   9.688   9.376  14.249
84351SOL     OW54885  11.086   7.788  10.012
84351SOL    HW154886  11.030   7.712   9.999
84351SOL    HW254887  11.101   7.822   9.923
84352SOL     OW54888   3.056   0.582   1.647
84352SOL    HW154889   3.020   0.508   1.598
84352SOL    HW254890   3.144   0.553   1.672
84353SOL     OW54891  10.437  13.830  12.468
84353SOL    HW154892  10.521  13.786  12.460
84353SOL    HW254893  10.396  13.791  12.544
84354SOL     OW54894   4.318  11.514   8.110
84354SOL    HW154895   4.279  11.499   8.197
84354SOL    HW254896   4.355  11.429   8.086
84355SOL     OW54897   3.217  14.128  13.169
84355SOL    HW154898   3.304  14.090  13.164
84355SOL    HW254899   3.206  14.151  13.262
84356SOL     OW54900   1.893   9.120   0.501
84356SOL    HW154901   1.872   9.177   0.575
84356SOL    HW254902   1.810   9.082   0.474
84357SOL     OW54903  10.849   1.249   2.230
84357SOL    HW154904  10.868   1.343   2.222
84357SOL    HW254905  10.891   1.224   2.312
84358SOL     OW54906   0.882   1.773  12.253
84358SOL    HW154907   0.789   1.780  12.275
84358SOL    HW254908   0.885   1.784  12.158
84359SOL     OW54909   9.700   4.611   5.352
84359SOL    HW154910   9.668   4.550   5.285
84359SOL    HW254911   9.795   4.598   5.353
84360SOL     OW54912  11.941  11.604  12.708
84360SOL    HW154913  12.014  11.546  12.730
84360SOL    HW254914  11.953  11.681  12.763
84361SOL     OW54915   6.178   2.382  13.505
84361SOL    HW154916   6.090   2.347  13.489
84361SOL    HW254917   6.178   2.467  13.460
84362SOL     OW54918   6.025   2.989  12.152
84362SOL    HW154919   6.111   3.024  12.175
84362SOL    HW254920   5.975   3.065  12.122
84363SOL     OW54921   6.564   4.308  12.521
84363SOL    HW154922   6.544   4.386  12.468
84363SOL    HW254923   6.521   4.236  12.475
84364SOL     OW54924  14.835   3.546   3.212
84364SOL    HW154925   0.049   3.504   3.220
84364SOL    HW254926  14.813   3.573   3.301
84365SOL     OW54927  14.558   1.080   0.508
84365SOL    HW154928  14.541   0.989   0.488
84365SOL    HW254929  14.561   1.083   0.604
84366SOL     OW54930  11.187   2.185   8.323
84366SOL    HW154931  11.191   2.280   8.312
84366SOL    HW254932  11.276   2.156   8.306
84367SOL     OW54933   7.391   2.969  11.997
84367SOL    HW154934   7.411   2.909  11.926
84367SOL    HW254935   7.356   3.047  11.953
84368SOL     OW54936  11.135  13.947  12.220
84368SOL    HW154937  11.137  13.905  12.306
84368SOL    HW254938  11.184  13.889  12.163
84369SOL     OW54939   9.605   1.186   2.300
84369SOL    HW154940   9.679   1.131   2.325
84369SOL    HW254941   9.646   1.264   2.262
84370SOL     OW54942   9.241   4.670   4.550
84370SOL    HW154943   9.203   4.707   4.471
84370SOL    HW254944   9.181   4.599   4.575
84371SOL     OW54945   3.128   9.609   9.086
84371SOL    HW154946   3.208   9.556   9.089
84371SOL    HW254947   3.156   9.697   9.108
84372SOL     OW54948   4.224  10.541   6.683
84372SOL    HW154949   4.234  10.504   6.771
84372SOL    HW254950   4.312  10.540   6.647
84373SOL     OW54951   4.541  12.603   0.501
84373SOL    HW154952   4.451  12.600   0.469
84373SOL    HW254953   4.559  12.514   0.530
84374SOL     OW54954  12.917   3.743  14.834
84374SOL    HW154955  12.968   3.664  14.848
84374SOL    HW254956  12.976   3.815  14.856
84375SOL     OW54957   1.157   2.121   0.653
84375SOL    HW154958   1.198   2.036   0.667
84375SOL    HW254959   1.071   2.113   0.694
84376SOL     OW54960   0.290   4.915   6.330
84376SOL    HW154961   0.332   4.828   6.337
84376SOL    HW254962   0.353   4.975   6.370
84377SOL     OW54963   8.974   9.915   1.791
84377SOL    HW154964   9.058   9.900   1.833
84377SOL    HW254965   8.986   9.887   1.700
84378SOL     OW54966  13.329   7.115   9.260
84378SOL    HW154967  13.349   7.059   9.335
84378SOL    HW254968  13.237   7.137   9.271
84379SOL     OW54969   4.484   6.741  10.414
84379SOL    HW154970   4.562   6.708  10.460
84379SOL    HW254971   4.437   6.791  10.481
84380SOL     OW54972   7.275  11.466   0.387
84380SOL    HW154973   7.246  11.419   0.308
84380SOL    HW254974   7.242  11.414   0.460
84381SOL     OW54975   8.751   0.606  10.599
84381SOL    HW154976   8.744   0.541  10.669
84381SOL    HW254977   8.756   0.690  10.644
84382SOL     OW54978   3.727   6.079  10.886
84382SOL    HW154979   3.723   6.014  10.817
84382SOL    HW254980   3.775   6.036  10.957
84383SOL     OW54981   5.077   3.531   4.700
84383SOL    HW154982   5.033   3.561   4.620
84383SOL    HW254983   5.008   3.529   4.766
84384SOL     OW54984  12.525   5.874  13.267
84384SOL    HW154985  12.545   5.917  13.349
84384SOL    HW254986  12.446   5.917  13.235
84385SOL     OW54987  14.125  13.417  14.662
84385SOL    HW154988  14.217  13.391  14.666
84385SOL    HW254989  14.077  13.336  14.677
84386SOL     OW54990   3.116   5.400  14.233
84386SOL    HW154991   3.195   5.350  14.211
84386SOL    HW254992   3.150   5.481  14.272
84387SOL     OW54993  10.782   5.963  11.109
84387SOL    HW154994  10.866   5.933  11.144
84387SOL    HW254995  10.751   5.889  11.056
84388SOL     OW54996  13.825   1.904   0.756
84388SOL    HW154997  13.885   1.836   0.725
84388SOL    HW254998  13.789   1.869   0.837
84389SOL     OW54999   0.133   3.340   4.995
84389SOL    HW155000   0.105   3.380   4.913
84389SOL    HW255001   0.181   3.409   5.040
84390SOL     OW55002   9.875  12.849  12.643
84390SOL    HW155003   9.882  12.944  12.651
84390SOL    HW255004   9.795  12.835  12.593
84391SOL     OW55005   9.381   6.706   4.785
84391SOL    HW155006   9.314   6.690   4.718
84391SOL    HW255007   9.340   6.767   4.846
84392SOL     OW55008   1.877   8.870   2.685
84392SOL    HW155009   1.875   8.827   2.770
84392SOL    HW255010   1.886   8.799   2.621
84393SOL     OW55011   0.113  10.600   6.237
84393SOL    HW155012   0.047  10.658   6.276
84393SOL    HW255013   0.180  10.660   6.204
84394SOL     OW55014   2.793   4.080   7.754
84394SOL    HW155015   2.767   3.989   7.747
84394SOL    HW255016   2.833   4.100   7.669
84395SOL     OW55017   2.472  10.266  13.853
84395SOL    HW155018   2.383  10.241  13.877
84395SOL    HW255019   2.488  10.348  13.900
84396SOL     OW55020   0.169   5.207   6.967
84396SOL    HW155021   0.181   5.112   6.967
84396SOL    HW255022   0.208   5.236   6.884
84397SOL     OW55023   0.400   0.494   1.325
84397SOL    HW155024   0.370   0.406   1.345
84397SOL    HW255025   0.373   0.547   1.401
84398SOL     OW55026   9.598  11.231   7.131
84398SOL    HW155027   9.680  11.187   7.110
84398SOL    HW255028   9.609  11.319   7.096
84399SOL     OW55029   6.917   0.395   9.207
84399SOL    HW155030   6.865   0.446   9.144
84399SOL    HW255031   6.861   0.321   9.230
84400SOL     OW55032   3.711  10.562  12.668
84400SOL    HW155033   3.805  10.573  12.677
84400SOL    HW255034   3.676  10.652  12.673
84401SOL     OW55035   1.820   1.138  13.501
84401SOL    HW155036   1.814   1.226  13.537
84401SOL    HW255037   1.906   1.134  13.461
84402SOL     OW55038   9.307  13.779   7.002
84402SOL    HW155039   9.273  13.691   7.018
84402SOL    HW255040   9.392  13.780   7.046
84403SOL     OW55041   1.409   7.514  11.620
84403SOL    HW155042   1.384   7.606  11.633
84403SOL    HW255043   1.503   7.511  11.640
84404SOL     OW55044   4.192   1.546   4.452
84404SOL    HW155045   4.203   1.528   4.545
84404SOL    HW255046   4.101   1.523   4.434
84405SOL     OW55047  10.714   1.071   1.258
84405SOL    HW155048  10.678   1.145   1.306
84405SOL    HW255049  10.776   1.111   1.197
84406SOL     OW55050   9.371   8.436   6.811
84406SOL    HW155051   9.319   8.479   6.879
84406SOL    HW255052   9.306   8.391   6.757
84407SOL     OW55053   3.245  13.060  10.558
84407SOL    HW155054   3.308  13.066  10.487
84407SOL    HW255055   3.160  13.051  10.515
84408SOL     OW55056   6.435   2.893  11.939
84408SOL    HW155057   6.457   2.921  12.028
84408SOL    HW255058   6.363   2.951  11.913
84409SOL     OW55059   2.920   5.188  13.872
84409SOL    HW155060   2.887   5.103  13.844
84409SOL    HW255061   2.961   5.225  13.794
84410SOL     OW55062   9.257   7.115  11.799
84410SOL    HW155063   9.186   7.086  11.741
84410SOL    HW255064   9.259   7.210  11.787
84411SOL     OW55065   7.198   6.048   0.535
84411SOL    HW155066   7.247   6.008   0.464
84411SOL    HW255067   7.107   6.028   0.516
84412SOL     OW55068   5.604   1.877  10.938
84412SOL    HW155069   5.563   1.927  10.867
84412SOL    HW255070   5.664   1.817  10.894
84413SOL     OW55071  13.730   5.840  11.313
84413SOL    HW155072  13.735   5.923  11.360
84413SOL    HW255073  13.817   5.801  11.325
84414SOL     OW55074   3.758  10.438   6.750
84414SOL    HW155075   3.754  10.528   6.718
84414SOL    HW255076   3.835  10.400   6.706
84415SOL     OW55077  14.090  11.387  12.415
84415SOL    HW155078  14.009  11.357  12.374
84415SOL    HW255079  14.159  11.348  12.362
84416SOL     OW55080   1.508   5.539  13.938
84416SOL    HW155081   1.504   5.620  13.990
84416SOL    HW255082   1.462   5.474  13.990
84417SOL     OW55083  14.833   8.610   1.404
84417SOL    HW155084  14.782   8.651   1.473
84417SOL    HW255085   0.052   8.625   1.430
84418SOL     OW55086   3.861  14.115   8.859
84418SOL    HW155087   3.948  14.138   8.890
84418SOL    HW255088   3.801  14.162   8.916
84419SOL     OW55089  14.397  14.181   4.302
84419SOL    HW155090  14.373  14.125   4.228
84419SOL    HW255091  14.318  14.233   4.319
84420SOL     OW55092  14.394   9.579   4.108
84420SOL    HW155093  14.402   9.577   4.203
84420SOL    HW255094  14.482   9.564   4.076
84421SOL     OW55095   5.721  12.558  14.434
84421SOL    HW155096   5.763  12.593  14.356
84421SOL    HW255097   5.726  12.463  14.423
84422SOL     OW55098   0.062   0.214  12.578
84422SOL    HW155099   0.123   0.245  12.511
84422SOL    HW255100   0.033   0.294  12.623
84423SOL     OW55101   5.796  14.829   4.075
84423SOL    HW155102   5.743  14.858   4.001
84423SOL    HW255103   5.801  14.734   4.065
84424SOL     OW55104   6.680   1.290   5.503
84424SOL    HW155105   6.735   1.234   5.448
84424SOL    HW255106   6.592   1.281   5.466
84425SOL     OW55107  12.647   8.564   0.803
84425SOL    HW155108  12.620   8.490   0.858
84425SOL    HW255109  12.617   8.540   0.715
84426SOL     OW55110  11.615   7.094   6.636
84426SOL    HW155111  11.680   7.053   6.693
84426SOL    HW255112  11.532   7.050   6.657
84427SOL     OW55113   1.314  11.708   1.216
84427SOL    HW155114   1.340  11.772   1.149
84427SOL    HW255115   1.285  11.761   1.290
84428SOL     OW55116  14.598   5.260   2.461
84428SOL    HW155117  14.541   5.320   2.414
84428SOL    HW255118  14.619   5.192   2.397
84429SOL     OW55119   6.480   7.073   7.954
84429SOL    HW155120   6.415   7.143   7.951
84429SOL    HW255121   6.563   7.117   7.972
84430SOL     OW55122   3.986   1.307   0.604
84430SOL    HW155123   4.055   1.264   0.654
84430SOL    HW255124   3.930   1.347   0.671
84431SOL     OW55125  14.023   3.221   4.598
84431SOL    HW155126  13.986   3.189   4.681
84431SOL    HW255127  14.002   3.315   4.598
84432SOL     OW55128  13.851  12.093   8.286
84432SOL    HW155129  13.819  12.030   8.350
84432SOL    HW255130  13.795  12.170   8.298
84433SOL     OW55131   6.164  11.409   2.588
84433SOL    HW155132   6.214  11.453   2.520
84433SOL    HW255133   6.086  11.377   2.543
84434SOL     OW55134   7.180   6.057  12.469
84434SOL    HW155135   7.260   6.040  12.520
84434SOL    HW255136   7.111   6.010  12.516
84435SOL     OW55137   0.104  14.122  11.151
84435SOL    HW155138   0.068  14.106  11.239
84435SOL    HW255139   0.101  14.217  11.141
84436SOL     OW55140  12.701   2.446   0.008
84436SOL    HW155141  12.705   2.351   0.003
84436SOL    HW255142  12.619   2.464   0.056
84437SOL     OW55143   4.403   1.489  10.310
84437SOL    HW155144   4.421   1.404  10.350
84437SOL    HW255145   4.313   1.483  10.280
84438SOL     OW55146  11.047   2.057   9.552
84438SOL    HW155147  11.081   2.045   9.641
84438SOL    HW255148  11.098   1.996   9.499
84439SOL     OW55149   2.547   0.835   0.425
84439SOL    HW155150   2.530   0.805   0.335
84439SOL    HW255151   2.460   0.840   0.465
84440SOL     OW55152   9.452   1.419   0.712
84440SOL    HW155153   9.439   1.411   0.617
84440SOL    HW255154   9.366   1.401   0.749
84441SOL     OW55155   1.973  14.535   9.855
84441SOL    HW155156   1.880  14.539   9.879
84441SOL    HW255157   1.989  14.442   9.838
84442SOL     OW55158   7.792   4.095   5.324
84442SOL    HW155159   7.802   4.190   5.327
84442SOL    HW255160   7.717   4.076   5.380
84443SOL     OW55161   8.995  11.437  11.142
84443SOL    HW155162   9.063  11.504  11.151
84443SOL    HW255163   8.970  11.439  11.050
84444SOL     OW55164  10.839   4.896   0.857
84444SOL    HW155165  10.917   4.871   0.907
84444SOL    HW255166  10.775   4.828   0.877
84445SOL     OW55167  11.583   7.234   8.683
84445SOL    HW155168  11.588   7.234   8.587
84445SOL    HW255169  11.668   7.199   8.711
84446SOL     OW55170   0.875   0.418   3.423
84446SOL    HW155171   0.910   0.434   3.511
84446SOL    HW255172   0.784   0.445   3.428
84447SOL     OW55173   3.911  11.530   7.121
84447SOL    HW155174   3.934  11.599   7.059
84447SOL    HW255175   3.961  11.551   7.200
84448SOL     OW55176   7.277  13.593   5.494
84448SOL    HW155177   7.208  13.528   5.497
84448SOL    HW255178   7.255  13.649   5.419
84449SOL     OW55179   3.413   6.799   2.129
84449SOL    HW155180   3.485   6.852   2.096
84449SOL    HW255181   3.362   6.777   2.052
84450SOL     OW55182   3.861   8.409   6.983
84450SOL    HW155183   3.843   8.320   7.013
84450SOL    HW255184   3.937   8.437   7.034
84451SOL     OW55185   4.260   8.452   9.737
84451SOL    HW155186   4.236   8.527   9.683
84451SOL    HW255187   4.300   8.390   9.676
84452SOL     OW55188  11.452  11.724   5.583
84452SOL    HW155189  11.535  11.749   5.622
84452SOL    HW255190  11.477  11.672   5.506
84453SOL     OW55191   9.000  10.693   4.814
84453SOL    HW155192   8.951  10.639   4.752
84453SOL    HW255193   8.933  10.739   4.864
84454SOL     OW55194  12.970   3.167   6.698
84454SOL    HW155195  13.057   3.128   6.701
84454SOL    HW255196  12.916   3.110   6.753
84455SOL     OW55197   7.356   9.739   3.617
84455SOL    HW155198   7.303   9.787   3.553
84455SOL    HW255199   7.436   9.715   3.569
84456SOL     OW55200  14.737  13.851  14.645
84456SOL    HW155201  14.653  13.886  14.617
84456SOL    HW255202  14.797  13.872  14.572
84457SOL     OW55203  12.713   8.970   7.632
84457SOL    HW155204  12.800   8.943   7.602
84457SOL    HW255205  12.652   8.923   7.576
84458SOL     OW55206   9.180   2.809   8.034
84458SOL    HW155207   9.199   2.872   7.965
84458SOL    HW255208   9.199   2.723   7.995
84459SOL     OW55209   2.857   0.961   1.543
84459SOL    HW155210   2.850   1.056   1.547
84459SOL    HW255211   2.848   0.932   1.633
84460SOL     OW55212   1.120  13.952   0.769
84460SOL    HW155213   1.112  13.878   0.828
84460SOL    HW255214   1.192  13.929   0.710
84461SOL     OW55215  12.067  12.975   1.941
84461SOL    HW155216  12.064  12.886   1.908
84461SOL    HW255217  12.133  13.019   1.886
84462SOL     OW55218  10.141  10.155  10.716
84462SOL    HW155219  10.090  10.074  10.720
84462SOL    HW255220  10.209  10.136  10.651
84463SOL     OW55221   5.449  14.773   2.719
84463SOL    HW155222   5.392  14.697   2.734
84463SOL    HW255223   5.399  14.829   2.660
84464SOL     OW55224   0.498   6.184   0.761
84464SOL    HW155225   0.573   6.220   0.807
84464SOL    HW255226   0.536   6.126   0.695
84465SOL     OW55227   8.980   4.517   1.742
84465SOL    HW155228   9.009   4.607   1.732
84465SOL    HW255229   8.970   4.484   1.653
84466SOL     OW55230  12.197  10.199   8.917
84466SOL    HW155231  12.103  10.215   8.913
84466SOL    HW255232  12.227  10.211   8.827
84467SOL     OW55233  11.262  14.632  13.906
84467SOL    HW155234  11.346  14.620  13.951
84467SOL    HW255235  11.211  14.555  13.929
84468SOL     OW55236   9.160   0.014  12.505
84468SOL    HW155237   9.067  14.868  12.521
84468SOL    HW255238   9.184  14.829  12.432
84469SOL     OW55239  14.868   9.407   8.908
84469SOL    HW155240   0.044   9.365   8.979
84469SOL    HW255241  14.842   9.492   8.943
84470SOL     OW55242   7.862   6.850  14.230
84470SOL    HW155243   7.878   6.875  14.321
84470SOL    HW255244   7.948   6.850  14.189
84471SOL     OW55245   6.202   4.008   9.848
84471SOL    HW155246   6.187   4.014   9.754
84471SOL    HW255247   6.286   4.053   9.862
84472SOL     OW55248   1.518   4.265  14.529
84472SOL    HW155249   1.566   4.348  14.530
84472SOL    HW255250   1.504   4.244  14.621
84473SOL     OW55251   6.120  10.614   0.371
84473SOL    HW155252   6.061  10.689   0.362
84473SOL    HW255253   6.192  10.632   0.311
84474SOL     OW55254   1.579   3.706  14.856
84474SOL    HW155255   1.627   3.753  14.788
84474SOL    HW255256   1.563   3.772   0.050
84475SOL     OW55257  14.576   4.100   7.132
84475SOL    HW155258  14.527   4.083   7.212
84475SOL    HW255259  14.583   4.195   7.128
84476SOL     OW55260  14.310   1.334   1.517
84476SOL    HW155261  14.252   1.387   1.572
84476SOL    HW255262  14.253   1.269   1.478
84477SOL     OW55263   8.366   9.830  13.594
84477SOL    HW155264   8.302   9.896  13.621
84477SOL    HW255265   8.428   9.878  13.538
84478SOL     OW55266   1.188   0.031  11.473
84478SOL    HW155267   1.125   0.051  11.403
84478SOL    HW255268   1.240   0.110  11.482
84479SOL     OW55269   0.363   0.504  12.920
84479SOL    HW155270   0.302   0.434  12.896
84479SOL    HW255271   0.419   0.466  12.987
84480SOL     OW55272   3.254   7.533  12.232
84480SOL    HW155273   3.161   7.549  12.214
84480SOL    HW255274   3.300   7.583  12.166
84481SOL     OW55275   3.261   5.121   8.659
84481SOL    HW155276   3.322   5.059   8.700
84481SOL    HW255277   3.316   5.195   8.633
84482SOL     OW55278   3.763   2.006  11.998
84482SOL    HW155279   3.717   1.932  12.037
84482SOL    HW255280   3.694   2.064  11.967
84483SOL     OW55281  14.389   2.576   7.415
84483SOL    HW155282  14.468   2.527   7.392
84483SOL    HW255283  14.347   2.594   7.331
84484SOL     OW55284   8.726   2.642   6.511
84484SOL    HW155285   8.805   2.593   6.492
84484SOL    HW255286   8.716   2.637   6.606
84485SOL     OW55287   2.114   0.734   1.737
84485SOL    HW155288   2.060   0.791   1.792
84485SOL    HW255289   2.199   0.776   1.734
84486SOL     OW55290  11.049  12.044  11.009
84486SOL    HW155291  11.039  12.131  11.047
84486SOL    HW255292  11.106  11.997  11.070
84487SOL     OW55293   0.383   3.697   3.021
84487SOL    HW155294   0.346   3.739   2.943
84487SOL    HW255295   0.477   3.710   3.013
84488SOL     OW55296   2.639   8.386   5.605
84488SOL    HW155297   2.673   8.344   5.526
84488SOL    HW255298   2.583   8.320   5.646
84489SOL     OW55299   6.862   4.071  14.416
84489SOL    HW155300   6.856   4.069  14.321
84489SOL    HW255301   6.845   4.163  14.438
84490SOL     OW55302   9.469   9.305  10.903
84490SOL    HW155303   9.381   9.322  10.870
84490SOL    HW255304   9.523   9.374  10.865
84491SOL     OW55305   1.093   7.581  11.982
84491SOL    HW155306   1.173   7.607  11.936
84491SOL    HW255307   1.057   7.510  11.928
84492SOL     OW55308  13.950   3.559   6.584
84492SOL    HW155309  13.917   3.637   6.538
84492SOL    HW255310  14.020   3.526   6.529
84493SOL     OW55311   3.195   1.136   2.457
84493SOL    HW155312   3.167   1.224   2.431
84493SOL    HW255313   3.135   1.078   2.410
84494SOL     OW55314   5.379   5.403   4.154
84494SOL    HW155315   5.419   5.452   4.083
84494SOL    HW255316   5.296   5.372   4.118
84495SOL     OW55317   6.360  12.304   0.603
84495SOL    HW155318   6.431  12.346   0.651
84495SOL    HW255319   6.281  12.322   0.654
84496SOL     OW55320  10.416  11.381  10.085
84496SOL    HW155321  10.386  11.358   9.997
84496SOL    HW255322  10.508  11.406  10.072
84497SOL     OW55323  12.579  14.268   7.254
84497SOL    HW155324  12.592  14.275   7.160
84497SOL    HW255325  12.588  14.358   7.287
84498SOL     OW55326  12.886   2.148  12.303
84498SOL    HW155327  12.822   2.218  12.290
84498SOL    HW255328  12.967   2.194  12.326
84499SOL     OW55329   3.485   9.642   2.480
84499SOL    HW155330   3.486   9.689   2.563
84499SOL    HW255331   3.577   9.617   2.466
84500SOL     OW55332  14.186  14.021   2.000
84500SOL    HW155333  14.210  13.928   2.005
84500SOL    HW255334  14.181  14.049   2.091
84501SOL     OW55335  10.088   4.165   0.150
84501SOL    HW155336  10.003   4.139   0.185
84501SOL    HW255337  10.105   4.251   0.189
84502SOL     OW55338   6.400   1.776  14.358
84502SOL    HW155339   6.358   1.707  14.409
84502SOL    HW255340   6.329   1.814  14.306
84503SOL     OW55341  12.152   8.619   8.461
84503SOL    HW155342  12.123   8.678   8.391
84503SOL    HW255343  12.145   8.532   8.422
84504SOL     OW55344   7.496   5.203   9.440
84504SOL    HW155345   7.550   5.272   9.400
84504SOL    HW255346   7.451   5.162   9.366
84505SOL     OW55347  11.096  10.687   6.701
84505SOL    HW155348  11.066  10.772   6.667
84505SOL    HW255349  11.179  10.672   6.655
84506SOL     OW55350   8.123   8.505   9.031
84506SOL    HW155351   8.146   8.594   9.060
84506SOL    HW255352   8.192   8.483   8.968
84507SOL     OW55353  14.696   9.174   9.778
84507SOL    HW155354  14.719   9.149   9.689
84507SOL    HW255355  14.698   9.091   9.827
84508SOL     OW55356   0.344  11.518   9.189
84508SOL    HW155357   0.250  11.500   9.200
84508SOL    HW255358   0.350  11.562   9.104
84509SOL     OW55359  13.198   1.975   0.677
84509SOL    HW155360  13.228   2.065   0.667
84509SOL    HW255361  13.266   1.933   0.730
84510SOL     OW55362  13.847  10.727   1.706
84510SOL    HW155363  13.898  10.653   1.739
84510SOL    HW255364  13.912  10.782   1.661
84511SOL     OW55365   4.029  13.361   9.792
84511SOL    HW155366   4.057  13.320   9.874
84511SOL    HW255367   4.040  13.455   9.806
84512SOL     OW55368   2.547   3.604   2.919
84512SOL    HW155369   2.538   3.567   2.831
84512SOL    HW255370   2.471   3.572   2.967
84513SOL     OW55371  11.152  13.441   9.309
84513SOL    HW155372  11.113  13.474   9.228
84513SOL    HW255373  11.093  13.472   9.379
84514SOL     OW55374   8.255  10.259   6.556
84514SOL    HW155375   8.202  10.325   6.511
84514SOL    HW255376   8.199  10.229   6.628
84515SOL     OW55377  11.032  11.019   5.207
84515SOL    HW155378  11.049  11.107   5.240
84515SOL    HW255379  10.939  11.005   5.220
84516SOL     OW55380  10.458  11.153   3.752
84516SOL    HW155381  10.501  11.235   3.777
84516SOL    HW255382  10.468  11.097   3.829
84517SOL     OW55383  12.270  11.937   3.222
84517SOL    HW155384  12.175  11.950   3.221
84517SOL    HW255385  12.304  12.000   3.158
84518SOL     OW55386  14.299   2.450   5.155
84518SOL    HW155387  14.252   2.480   5.078
84518SOL    HW255388  14.251   2.489   5.229
84519SOL     OW55389   9.694  10.685  10.588
84519SOL    HW155390   9.696  10.778  10.564
84519SOL    HW255391   9.739  10.682  10.672
84520SOL     OW55392   3.456   0.011   7.066
84520SOL    HW155393   3.550   0.021   7.082
84520SOL    HW255394   3.422   0.100   7.066
84521SOL     OW55395  11.757   9.912   7.726
84521SOL    HW155396  11.740   9.852   7.799
84521SOL    HW255397  11.700   9.987   7.743
84522SOL     OW55398   5.561   2.353  11.467
84522SOL    HW155399   5.566   2.433  11.413
84522SOL    HW255400   5.475   2.358  11.509
84523SOL     OW55401  12.720   6.228  12.242
84523SOL    HW155402  12.657   6.293  12.212
84523SOL    HW255403  12.732   6.248  12.335
84524SOL     OW55404   7.738   4.688   2.527
84524SOL    HW155405   7.751   4.744   2.604
84524SOL    HW255406   7.736   4.599   2.562
84525SOL     OW55407   9.845   2.378   9.522
84525SOL    HW155408   9.782   2.397   9.453
84525SOL    HW255409   9.913   2.445   9.511
84526SOL     OW55410   6.161  10.167  12.471
84526SOL    HW155411   6.163  10.083  12.518
84526SOL    HW255412   6.071  10.198  12.481
84527SOL     OW55413   0.376   2.983  12.475
84527SOL    HW155414   0.367   2.976  12.570
84527SOL    HW255415   0.379   2.893  12.445
84528SOL     OW55416   5.932  11.841   5.089
84528SOL    HW155417   5.926  11.936   5.076
84528SOL    HW255418   5.855  11.806   5.044
84529SOL     OW55419   4.071   1.299  14.252
84529SOL    HW155420   4.063   1.388  14.217
84529SOL    HW255421   4.037   1.305  14.341
84530SOL     OW55422   4.372   6.296   3.800
84530SOL    HW155423   4.440   6.232   3.817
84530SOL    HW255424   4.307   6.281   3.869
84531SOL     OW55425  14.043   9.673  11.238
84531SOL    HW155426  14.056   9.705  11.148
84531SOL    HW255427  13.995   9.743  11.282
84532SOL     OW55428   6.163   3.378   0.621
84532SOL    HW155429   6.068   3.365   0.615
84532SOL    HW255430   6.173   3.471   0.642
84533SOL     OW55431  13.633  12.479  14.406
84533SOL    HW155432  13.725  12.456  14.392
84533SOL    HW255433  13.587  12.440  14.331
84534SOL     OW55434   3.099  11.365   3.347
84534SOL    HW155435   3.042  11.382   3.271
84534SOL    HW255436   3.182  11.337   3.309
84535SOL     OW55437  13.656   1.387   5.622
84535SOL    HW155438  13.561   1.373   5.615
84535SOL    HW255439  13.679   1.431   5.541
84536SOL     OW55440  12.780   3.539   5.460
84536SOL    HW155441  12.849   3.528   5.395
84536SOL    HW255442  12.711   3.588   5.415
84537SOL     OW55443  10.884  13.484   6.589
84537SOL    HW155444  10.836  13.564   6.570
84537SOL    HW255445  10.872  13.429   6.512
84538SOL     OW55446  11.462   4.090   8.239
84538SOL    HW155447  11.367   4.100   8.227
84538SOL    HW255448  11.494   4.059   8.155
84539SOL     OW55449  10.178   8.556   9.759
84539SOL    HW155450  10.201   8.631   9.704
84539SOL    HW255451  10.213   8.578   9.845
84540SOL     OW55452  12.040   8.271  12.715
84540SOL    HW155453  11.965   8.330  12.718
84540SOL    HW255454  12.097   8.300  12.787
84541SOL     OW55455   8.567   0.090   6.257
84541SOL    HW155456   8.660   0.105   6.239
84541SOL    HW255457   8.522   0.165   6.219
84542SOL     OW55458   4.339   5.775   7.641
84542SOL    HW155459   4.413   5.829   7.670
84542SOL    HW255460   4.375   5.721   7.571
84543SOL     OW55461   6.989   6.769   0.625
84543SOL    HW155462   7.082   6.790   0.614
84543SOL    HW255463   6.983   6.736   0.715
84544SOL     OW55464   1.981  11.358   8.336
84544SOL    HW155465   1.946  11.441   8.368
84544SOL    HW255466   1.916  11.293   8.362
84545SOL     OW55467  10.090  14.363   8.577
84545SOL    HW155468  10.178  14.398   8.594
84545SOL    HW255469  10.104  14.271   8.558
84546SOL     OW55470   6.240   5.881   5.588
84546SOL    HW155471   6.212   5.941   5.518
84546SOL    HW255472   6.276   5.937   5.655
84547SOL     OW55473  12.464   3.456   3.859
84547SOL    HW155474  12.389   3.467   3.918
84547SOL    HW255475  12.518   3.389   3.901
84548SOL     OW55476   3.463   3.734   2.155
84548SOL    HW155477   3.438   3.808   2.100
84548SOL    HW255478   3.551   3.710   2.125
84549SOL     OW55479   6.186   0.969  10.494
84549SOL    HW155480   6.276   1.001  10.491
84549SOL    HW255481   6.135   1.046  10.520
84550SOL     OW55482  13.138  10.900   7.324
84550SOL    HW155483  13.053  10.939   7.304
84550SOL    HW255484  13.202  10.969   7.304
84551SOL     OW55485   1.102   0.623   9.732
84551SOL    HW155486   1.143   0.553   9.682
84551SOL    HW255487   1.023   0.582   9.770
84552SOL     OW55488  11.196   6.026  13.723
84552SOL    HW155489  11.186   6.119  13.742
84552SOL    HW255490  11.264   6.023  13.656
84553SOL     OW55491  14.396   5.454   6.587
84553SOL    HW155492  14.321   5.462   6.527
84553SOL    HW255493  14.471   5.442   6.530
84554SOL     OW55494   2.677   2.354  14.719
84554SOL    HW155495   2.689   2.273  14.670
84554SOL    HW255496   2.627   2.411  14.661
84555SOL     OW55497   9.493  10.634   8.471
84555SOL    HW155498   9.480  10.721   8.507
84555SOL    HW255499   9.495  10.647   8.376
84556SOL     OW55500  11.545   9.727  11.019
84556SOL    HW155501  11.561   9.799  11.080
84556SOL    HW255502  11.458   9.746  10.982
84557SOL     OW55503   3.968   4.280   2.842
84557SOL    HW155504   3.956   4.245   2.931
84557SOL    HW255505   3.976   4.374   2.854
84558SOL     OW55506   4.242   5.613   6.657
84558SOL    HW155507   4.317   5.625   6.599
84558SOL    HW255508   4.189   5.692   6.644
84559SOL     OW55509   9.274   5.440   2.347
84559SOL    HW155510   9.188   5.452   2.387
84559SOL    HW255511   9.279   5.510   2.281
84560SOL     OW55512  13.496   7.670   4.115
84560SOL    HW155513  13.546   7.696   4.038
84560SOL    HW255514  13.440   7.745   4.133
84561SOL     OW55515   7.774   9.651  12.576
84561SOL    HW155516   7.817   9.585  12.523
84561SOL    HW255517   7.691   9.611  12.603
84562SOL     OW55518  10.469   6.094  14.293
84562SOL    HW155519  10.433   6.179  14.267
84562SOL    HW255520  10.476   6.045  14.211
84563SOL     OW55521   1.076   8.584   1.855
84563SOL    HW155522   1.143   8.607   1.920
84563SOL    HW255523   1.055   8.493   1.873
84564SOL     OW55524   8.472   0.835   0.302
84564SOL    HW155525   8.537   0.770   0.275
84564SOL    HW255526   8.422   0.855   0.223
84565SOL     OW55527   6.624   5.454   0.587
84565SOL    HW155528   6.614   5.482   0.678
84565SOL    HW255529   6.627   5.535   0.537
84566SOL     OW55530   6.589   4.238   4.418
84566SOL    HW155531   6.599   4.302   4.489
84566SOL    HW255532   6.498   4.247   4.390
84567SOL     OW55533   9.296  12.197   9.989
84567SOL    HW155534   9.379  12.229  10.025
84567SOL    HW255535   9.322  12.131   9.925
84568SOL     OW55536   9.221   5.810  13.088
84568SOL    HW155537   9.198   5.733  13.037
84568SOL    HW255538   9.152   5.873  13.069
84569SOL     OW55539  11.766   4.449   4.709
84569SOL    HW155540  11.741   4.507   4.638
84569SOL    HW255541  11.687   4.439   4.761
84570SOL     OW55542   9.768  13.385   5.218
84570SOL    HW155543   9.816  13.312   5.181
84570SOL    HW255544   9.738  13.354   5.303
84571SOL     OW55545   1.109   7.847   4.196
84571SOL    HW155546   1.035   7.895   4.235
84571SOL    HW255547   1.157   7.813   4.272
84572SOL     OW55548  12.114   3.429   6.661
84572SOL    HW155549  12.150   3.341   6.672
84572SOL    HW255550  12.033   3.415   6.611
84573SOL     OW55551   4.220  10.489  13.034
84573SOL    HW155552   4.179  10.404  13.047
84573SOL    HW255553   4.314  10.471  13.035
84574SOL     OW55554   3.879   8.665  13.868
84574SOL    HW155555   3.966   8.626  13.857
84574SOL    HW255556   3.819   8.594  13.845
84575SOL     OW55557   2.771  12.545  11.343
84575SOL    HW155558   2.745  12.454  11.359
84575SOL    HW255559   2.716  12.573  11.271
84576SOL     OW55560   0.963  10.539  11.599
84576SOL    HW155561   0.879  10.526  11.557
84576SOL    HW255562   1.013  10.460  11.579
84577SOL     OW55563  13.322   1.157   9.302
84577SOL    HW155564  13.410   1.127   9.322
84577SOL    HW255565  13.310   1.137   9.209
84578SOL     OW55566   7.760  11.306   6.474
84578SOL    HW155567   7.783  11.267   6.390
84578SOL    HW255568   7.843  11.333   6.512
84579SOL     OW55569   9.463  12.799   7.570
84579SOL    HW155570   9.543  12.745   7.572
84579SOL    HW255571   9.401  12.748   7.518
84580SOL     OW55572   8.150   9.986  13.952
84580SOL    HW155573   8.057  10.003  13.937
84580SOL    HW255574   8.195  10.032  13.882
84581SOL     OW55575   2.464   4.410   5.833
84581SOL    HW155576   2.474   4.498   5.798
84581SOL    HW255577   2.500   4.353   5.765
84582SOL     OW55578  13.896   3.090  10.563
84582SOL    HW155579  13.879   3.027  10.493
84582SOL    HW255580  13.823   3.079  10.624
84583SOL     OW55581  12.680   0.236   7.808
84583SOL    HW155582  12.707   0.152   7.771
84583SOL    HW255583  12.586   0.242   7.787
84584SOL     OW55584   1.691  12.442   2.578
84584SOL    HW155585   1.765  12.404   2.531
84584SOL    HW255586   1.729  12.509   2.634
84585SOL     OW55587  14.489  13.005   3.033
84585SOL    HW155588  14.576  13.000   2.993
84585SOL    HW255589  14.429  13.010   2.958
84586SOL     OW55590   7.549  11.465   5.134
84586SOL    HW155591   7.522  11.555   5.155
84586SOL    HW255592   7.532  11.457   5.040
84587SOL     OW55593   3.326  14.721   0.122
84587SOL    HW155594   3.301  14.697   0.033
84587SOL    HW255595   3.379  14.647   0.152
84588SOL     OW55596   8.704   6.595  10.919
84588SOL    HW155597   8.665   6.516  10.882
84588SOL    HW255598   8.761   6.563  10.989
84589SOL     OW55599  13.582  10.999  11.410
84589SOL    HW155600  13.495  11.032  11.436
84589SOL    HW255601  13.625  11.075  11.371
84590SOL     OW55602   0.284  13.126   8.591
84590SOL    HW155603   0.345  13.105   8.521
84590SOL    HW255604   0.339  13.149   8.666
84591SOL     OW55605  13.513   6.591   9.060
84591SOL    HW155606  13.419   6.576   9.047
84591SOL    HW255607  13.516   6.665   9.122
84592SOL     OW55608   7.171  13.179   7.951
84592SOL    HW155609   7.170  13.087   7.980
84592SOL    HW255610   7.091  13.216   7.986
84593SOL     OW55611  13.218   2.347   7.536
84593SOL    HW155612  13.203   2.287   7.610
84593SOL    HW255613  13.266   2.420   7.574
84594SOL     OW55614   5.285  10.509  12.794
84594SOL    HW155615   5.247  10.569  12.858
84594SOL    HW255616   5.369  10.483  12.833
84595SOL     OW55617   1.624   5.129   3.859
84595SOL    HW155618   1.537   5.116   3.822
84595SOL    HW255619   1.666   5.193   3.801
84596SOL     OW55620   3.292  10.155   4.403
84596SOL    HW155621   3.217  10.100   4.425
84596SOL    HW255622   3.342  10.161   4.484
84597SOL     OW55623  12.385   5.174   1.130
84597SOL    HW155624  12.301   5.187   1.175
84597SOL    HW255625  12.450   5.211   1.190
84598SOL     OW55626  11.405   0.187  12.452
84598SOL    HW155627  11.446   0.248  12.391
84598SOL    HW255628  11.477   0.157  12.507
84599SOL     OW55629   9.565   6.191   3.255
84599SOL    HW155630   9.560   6.287   3.249
84599SOL    HW255631   9.659   6.173   3.259
84600SOL     OW55632  11.178  11.451   0.656
84600SOL    HW155633  11.148  11.535   0.692
84600SOL    HW255634  11.258  11.473   0.608
84601SOL     OW55635   3.465   9.335  14.831
84601SOL    HW155636   3.387   9.294  14.794
84601SOL    HW255637   3.455   9.326   0.053
84602SOL     OW55638  10.063   4.440   2.912
84602SOL    HW155639  10.108   4.358   2.894
84602SOL    HW255640   9.995   4.417   2.976
84603SOL     OW55641   5.106   5.962   7.048
84603SOL    HW155642   5.179   6.018   7.022
84603SOL    HW255643   5.054   6.017   7.107
84604SOL     OW55644  10.427  10.970  10.951
84604SOL    HW155645  10.365  10.924  11.007
84604SOL    HW255646  10.513  10.950  10.989
84605SOL     OW55647   8.827   2.623   3.569
84605SOL    HW155648   8.773   2.576   3.506
84605SOL    HW255649   8.813   2.715   3.549
84606SOL     OW55650   1.833  12.576  13.229
84606SOL    HW155651   1.907  12.579  13.289
84606SOL    HW255652   1.844  12.494  13.180
84607SOL     OW55653   7.486  11.371   6.864
84607SOL    HW155654   7.520  11.349   6.777
84607SOL    HW255655   7.498  11.291   6.916
84608SOL     OW55656   8.565  14.832   1.587
84608SOL    HW155657   8.470  14.827   1.574
84608SOL    HW255658   8.588  14.748   1.627
84609SOL     OW55659  12.273   9.380   1.998
84609SOL    HW155660  12.333   9.388   1.923
84609SOL    HW255661  12.186   9.380   1.958
84610SOL     OW55662   0.673   9.078   2.392
84610SOL    HW155663   0.605   9.146   2.387
84610SOL    HW255664   0.656   9.021   2.318
84611SOL     OW55665   7.524   9.302   4.160
84611SOL    HW155666   7.438   9.336   4.135
84611SOL    HW255667   7.575   9.381   4.181
84612SOL     OW55668   3.619  13.999  13.866
84612SOL    HW155669   3.538  14.035  13.901
84612SOL    HW255670   3.648  14.062  13.801
84613SOL     OW55671   8.033   7.177  14.483
84613SOL    HW155672   7.963   7.113  14.498
84613SOL    HW255673   8.017   7.246  14.547
84614SOL     OW55674  11.284  12.541   9.476
84614SOL    HW155675  11.312  12.547   9.384
84614SOL    HW255676  11.348  12.593   9.524
84615SOL     OW55677  13.992  13.613  13.870
84615SOL    HW155678  14.029  13.611  13.958
84615SOL    HW255679  14.068  13.604  13.812
84616SOL     OW55680  12.960  13.250   8.900
84616SOL    HW155681  12.966  13.223   8.809
84616SOL    HW255682  12.924  13.173   8.945
84617SOL     OW55683   2.720   4.211   1.667
84617SOL    HW155684   2.772   4.236   1.744
84617SOL    HW255685   2.756   4.265   1.596
84618SOL     OW55686   1.826  14.401   5.224
84618SOL    HW155687   1.774  14.449   5.159
84618SOL    HW255688   1.914  14.438   5.216
84619SOL     OW55689   3.409  11.272  13.977
84619SOL    HW155690   3.397  11.180  13.998
84619SOL    HW255691   3.492  11.296  14.019
84620SOL     OW55692   0.221   5.582   5.948
84620SOL    HW155693   0.215   5.499   5.900
84620SOL    HW255694   0.310   5.583   5.984
84621SOL     OW55695   4.389   1.171  14.830
84621SOL    HW155696   4.417   1.080  14.823
84621SOL    HW255697   4.376   1.185   0.051
84622SOL     OW55698  12.409  10.361  12.666
84622SOL    HW155699  12.467  10.365  12.742
84622SOL    HW255700  12.349  10.435  12.677
84623SOL     OW55701  11.175   5.022   3.780
84623SOL    HW155702  11.201   4.930   3.776
84623SOL    HW255703  11.086   5.023   3.743
84624SOL     OW55704   4.882   0.870   5.775
84624SOL    HW155705   4.891   0.866   5.680
84624SOL    HW255706   4.855   0.961   5.792
84625SOL     OW55707   2.082  13.623  10.541
84625SOL    HW155708   1.997  13.652  10.507
84625SOL    HW255709   2.089  13.532  10.512
84626SOL     OW55710   3.323  12.163   3.129
84626SOL    HW155711   3.417  12.148   3.116
84626SOL    HW255712   3.282  12.132   3.048
84627SOL     OW55713   9.955   8.395  14.471
84627SOL    HW155714   9.878   8.350  14.436
84627SOL    HW255715   9.982   8.455  14.401
84628SOL     OW55716  14.358  10.402  14.516
84628SOL    HW155717  14.380  10.475  14.459
84628SOL    HW255718  14.266  10.383  14.497
84629SOL     OW55719  12.693   4.207  12.761
84629SOL    HW155720  12.762   4.272  12.749
84629SOL    HW255721  12.612   4.254  12.742
84630SOL     OW55722   7.238   7.343   9.034
84630SOL    HW155723   7.222   7.404   8.962
84630SOL    HW255724   7.333   7.331   9.034
84631SOL     OW55725  12.405   4.383   4.428
84631SOL    HW155726  12.362   4.330   4.495
84631SOL    HW255727  12.475   4.328   4.394
84632SOL     OW55728   2.188   7.023   0.943
84632SOL    HW155729   2.194   6.951   1.006
84632SOL    HW255730   2.135   7.089   0.986
84633SOL     OW55731  11.360   6.510   0.379
84633SOL    HW155732  11.344   6.498   0.285
84633SOL    HW255733  11.453   6.533   0.385
84634SOL     OW55734   2.319   9.500  14.355
84634SOL    HW155735   2.405   9.541  14.368
84634SOL    HW255736   2.331   9.439  14.282
84635SOL     OW55737  10.533   9.995  10.418
84635SOL    HW155738  10.541   9.973  10.511
84635SOL    HW255739  10.540   9.910  10.373
84636SOL     OW55740  11.163  13.711   9.060
84636SOL    HW155741  11.164  13.794   9.013
84636SOL    HW255742  11.213  13.651   9.003
84637SOL     OW55743  10.957   3.530  13.714
84637SOL    HW155744  11.016   3.563  13.782
84637SOL    HW255745  11.012   3.477  13.657
84638SOL     OW55746   5.210  13.117   6.887
84638SOL    HW155747   5.201  13.033   6.933
84638SOL    HW255748   5.145  13.174   6.928
84639SOL     OW55749   7.867  13.068   7.626
84639SOL    HW155750   7.939  13.130   7.636
84639SOL    HW255751   7.895  13.008   7.557
84640SOL     OW55752   5.753   6.088  11.881
84640SOL    HW155753   5.729   6.179  11.859
84640SOL    HW255754   5.718   6.076  11.969
84641SOL     OW55755   9.203   3.582   5.643
84641SOL    HW155756   9.185   3.670   5.676
84641SOL    HW255757   9.296   3.583   5.622
84642SOL     OW55758   1.038   1.338   1.602
84642SOL    HW155759   1.011   1.312   1.690
84642SOL    HW255760   1.106   1.404   1.617
84643SOL     OW55761   3.532   6.209  12.299
84643SOL    HW155762   3.468   6.146  12.267
84643SOL    HW255763   3.604   6.204  12.236
84644SOL     OW55764   7.711   3.423  12.213
84644SOL    HW155765   7.656   3.354  12.175
84644SOL    HW255766   7.761   3.379  12.282
84645SOL     OW55767  11.768   5.973   3.425
84645SOL    HW155768  11.805   6.027   3.495
84645SOL    HW255769  11.831   5.902   3.414
84646SOL     OW55770   7.626   6.770   4.432
84646SOL    HW155771   7.667   6.805   4.511
84646SOL    HW255772   7.597   6.682   4.457
84647SOL     OW55773  13.090   7.460   1.695
84647SOL    HW155774  13.030   7.526   1.729
84647SOL    HW255775  13.165   7.464   1.753
84648SOL     OW55776   6.867  13.577   6.515
84648SOL    HW155777   6.886  13.622   6.432
84648SOL    HW255778   6.889  13.641   6.583
84649SOL     OW55779   0.904  12.000   7.373
84649SOL    HW155780   0.871  11.989   7.284
84649SOL    HW255781   0.891  11.915   7.414
84650SOL     OW55782   4.201  12.501  13.563
84650SOL    HW155783   4.276  12.537  13.515
84650SOL    HW255784   4.142  12.469  13.494
84651SOL     OW55785  14.249   1.708   9.995
84651SOL    HW155786  14.319   1.646   9.976
84651SOL    HW255787  14.184   1.657  10.044
84652SOL     OW55788   3.347   7.133   6.205
84652SOL    HW155789   3.391   7.101   6.127
84652SOL    HW255790   3.386   7.084   6.277
84653SOL     OW55791   6.431  14.222   3.218
84653SOL    HW155792   6.366  14.251   3.154
84653SOL    HW255793   6.500  14.180   3.166
84654SOL     OW55794   4.721   2.144  12.657
84654SOL    HW155795   4.739   2.103  12.573
84654SOL    HW255796   4.805   2.183  12.683
84655SOL     OW55797  13.929   6.965  11.477
84655SOL    HW155798  13.938   6.931  11.566
84655SOL    HW255799  13.900   7.055  11.488
84656SOL     OW55800   7.730   7.351  14.472
84656SOL    HW155801   7.735   7.440  14.506
84656SOL    HW255802   7.663   7.308  14.524
84657SOL     OW55803   0.419  13.162   1.136
84657SOL    HW155804   0.446  13.199   1.052
84657SOL    HW255805   0.442  13.070   1.131
84658SOL     OW55806  10.618   6.836   2.963
84658SOL    HW155807  10.607   6.897   2.890
84658SOL    HW255808  10.671   6.765   2.927
84659SOL     OW55809   3.743  11.249  14.002
84659SOL    HW155810   3.717  11.328  13.955
84659SOL    HW255811   3.814  11.212  13.949
84660SOL     OW55812  11.481   9.304   2.655
84660SOL    HW155813  11.533   9.359   2.713
84660SOL    HW255814  11.411   9.270   2.711
84661SOL     OW55815   8.887   2.653  13.198
84661SOL    HW155816   8.980   2.633  13.207
84661SOL    HW255817   8.869   2.643  13.105
84662SOL     OW55818   3.218  11.004  12.354
84662SOL    HW155819   3.304  11.043  12.368
84662SOL    HW255820   3.229  10.950  12.276
84663SOL     OW55821  10.708   9.980   0.279
84663SOL    HW155822  10.640  10.043   0.307
84663SOL    HW255823  10.746   9.948   0.361
84664SOL     OW55824   6.402   2.431   0.470
84664SOL    HW155825   6.374   2.366   0.535
84664SOL    HW255826   6.326   2.441   0.413
84665SOL     OW55827   0.643   7.147   2.871
84665SOL    HW155828   0.655   7.059   2.907
84665SOL    HW255829   0.554   7.171   2.897
84666SOL     OW55830  14.291  14.730  12.035
84666SOL    HW155831  14.228  14.736  11.964
84666SOL    HW255832  14.303  14.636  12.049
84667SOL     OW55833   4.205   3.485  14.015
84667SOL    HW155834   4.119   3.513  14.045
84667SOL    HW255835   4.265   3.512  14.085
84668SOL     OW55836   6.619  10.212  11.821
84668SOL    HW155837   6.648  10.138  11.873
84668SOL    HW255838   6.528  10.226  11.847
84669SOL     OW55839   0.490   0.238   5.379
84669SOL    HW155840   0.499   0.150   5.342
84669SOL    HW255841   0.402   0.266   5.355
84670SOL     OW55842  12.130   2.069   4.496
84670SOL    HW155843  12.081   1.997   4.455
84670SOL    HW255844  12.133   2.046   4.589
84671SOL     OW55845   9.245  13.052   0.623
84671SOL    HW155846   9.221  13.086   0.537
84671SOL    HW255847   9.272  12.962   0.607
84672SOL     OW55848   7.279   6.153  10.179
84672SOL    HW155849   7.289   6.058  10.182
84672SOL    HW255850   7.267   6.179  10.270
84673SOL     OW55851   2.839   2.081  12.720
84673SOL    HW155852   2.895   2.129  12.781
84673SOL    HW255853   2.750   2.099  12.750
84674SOL     OW55854   2.607  12.470   4.825
84674SOL    HW155855   2.676  12.497   4.764
84674SOL    HW255856   2.572  12.552   4.859
84675SOL     OW55857  13.775   5.312   7.782
84675SOL    HW155858  13.690   5.268   7.773
84675SOL    HW255859  13.832   5.246   7.821
84676SOL     OW55860   0.789   5.697  11.855
84676SOL    HW155861   0.763   5.657  11.938
84676SOL    HW255862   0.873   5.739  11.874
84677SOL     OW55863   8.149   3.128   9.122
84677SOL    HW155864   8.138   3.212   9.166
84677SOL    HW255865   8.134   3.147   9.030
84678SOL     OW55866   8.115   8.314   9.605
84678SOL    HW155867   8.158   8.321   9.520
84678SOL    HW255868   8.025   8.340   9.588
84679SOL     OW55869   1.459   9.940   2.030
84679SOL    HW155870   1.454   9.848   2.005
84679SOL    HW255871   1.491   9.939   2.120
84680SOL     OW55872   1.025   7.759   2.290
84680SOL    HW155873   1.086   7.694   2.325
84680SOL    HW255874   1.034   7.751   2.195
84681SOL     OW55875   6.366   8.973  11.310
84681SOL    HW155876   6.426   9.047  11.312
84681SOL    HW255877   6.422   8.896  11.303
84682SOL     OW55878  13.777   3.152  14.361
84682SOL    HW155879  13.776   3.231  14.414
84682SOL    HW255880  13.867   3.147  14.326
84683SOL     OW55881   4.031  11.954   5.936
84683SOL    HW155882   4.038  12.009   6.014
84683SOL    HW255883   3.939  11.927   5.933
84684SOL     OW55884   1.138   4.692   4.513
84684SOL    HW155885   1.120   4.779   4.548
84684SOL    HW255886   1.079   4.634   4.562
84685SOL     OW55887   3.639   6.754   1.809
84685SOL    HW155888   3.733   6.743   1.824
84685SOL    HW255889   3.608   6.801   1.886
84686SOL     OW55890   5.495   4.198   9.395
84686SOL    HW155891   5.440   4.125   9.369
84686SOL    HW255892   5.481   4.264   9.327
84687SOL     OW55893   4.529  11.946   6.360
84687SOL    HW155894   4.457  11.899   6.319
84687SOL    HW255895   4.573  11.991   6.288
84688SOL     OW55896   0.375  12.495   3.715
84688SOL    HW155897   0.369  12.472   3.623
84688SOL    HW255898   0.290  12.471   3.752
84689SOL     OW55899   4.848   5.874  12.830
84689SOL    HW155900   4.846   5.797  12.773
84689SOL    HW255901   4.877   5.945  12.773
84690SOL     OW55902   6.017   4.493   2.978
84690SOL    HW155903   6.008   4.472   2.885
84690SOL    HW255904   6.052   4.413   3.018
84691SOL     OW55905   2.322   0.375   3.368
84691SOL    HW155906   2.236   0.356   3.330
84691SOL    HW255907   2.329   0.314   3.441
84692SOL     OW55908   0.771  11.990  11.395
84692SOL    HW155909   0.751  12.033  11.312
84692SOL    HW255910   0.857  12.025  11.420
84693SOL     OW55911   3.837   5.588   0.210
84693SOL    HW155912   3.775   5.658   0.195
84693SOL    HW255913   3.923   5.628   0.197
84694SOL     OW55914   5.869   6.576  14.870
84694SOL    HW155915   5.819   6.647   0.038
84694SOL    HW255916   5.940   6.559   0.058
84695SOL     OW55917  12.911  10.772  11.628
84695SOL    HW155918  12.941  10.683  11.648
84695SOL    HW255919  12.889  10.771  11.535
84696SOL     OW55920  14.759  14.029   6.118
84696SOL    HW155921  14.772  14.042   6.212
84696SOL    HW255922  14.844  13.998   6.086
84697SOL     OW55923  10.522   8.790   7.795
84697SOL    HW155924  10.513   8.703   7.833
84697SOL    HW255925  10.433   8.821   7.782
84698SOL     OW55926   8.961   2.176   7.447
84698SOL    HW155927   9.010   2.136   7.375
84698SOL    HW255928   8.899   2.110   7.474
84699SOL     OW55929   3.103   4.597  14.116
84699SOL    HW155930   3.068   4.624  14.201
84699SOL    HW255931   3.162   4.524  14.136
84700SOL     OW55932   8.232  10.160  13.427
84700SOL    HW155933   8.181  10.117  13.359
84700SOL    HW255934   8.308  10.103  13.441
84701SOL     OW55935  10.621   1.308   0.441
84701SOL    HW155936  10.624   1.359   0.523
84701SOL    HW255937  10.612   1.374   0.373
84702SOL     OW55938   6.292  10.632   3.378
84702SOL    HW155939   6.385  10.621   3.360
84702SOL    HW255940   6.281  10.725   3.397
84703SOL     OW55941   6.693   6.705  12.378
84703SOL    HW155942   6.650   6.791  12.377
84703SOL    HW255943   6.633   6.648  12.427
84704SOL     OW55944   9.995   5.043  12.176
84704SOL    HW155945   9.920   4.998  12.213
84704SOL    HW255946  10.071   4.991  12.204
84705SOL     OW55947  13.162   0.367  10.076
84705SOL    HW155948  13.246   0.397  10.042
84705SOL    HW255949  13.152   0.279  10.039
84706SOL     OW55950   1.177  13.049   8.128
84706SOL    HW155951   1.218  13.093   8.202
84706SOL    HW255952   1.152  13.120   8.069
84707SOL     OW55953   5.055  12.936  14.836
84707SOL    HW155954   5.089  12.949  14.748
84707SOL    HW255955   5.072  12.844  14.855
84708SOL     OW55956   1.870   7.190   8.602
84708SOL    HW155957   1.843   7.191   8.510
84708SOL    HW255958   1.930   7.115   8.608
84709SOL     OW55959  10.971   9.443   2.041
84709SOL    HW155960  10.885   9.433   2.081
84709SOL    HW255961  10.995   9.534   2.057
84710SOL     OW55962   8.058  12.846   2.561
84710SOL    HW155963   8.112  12.824   2.485
84710SOL    HW255964   8.074  12.939   2.577
84711SOL     OW55965   9.633   4.446  12.376
84711SOL    HW155966   9.567   4.396  12.423
84711SOL    HW255967   9.590   4.528  12.353
84712SOL     OW55968   7.999  12.106  11.289
84712SOL    HW155969   7.957  12.120  11.373
84712SOL    HW255970   8.093  12.102  11.309
84713SOL     OW55971   7.372  10.187   6.729
84713SOL    HW155972   7.452  10.151   6.690
84713SOL    HW255973   7.394  10.278   6.748
84714SOL     OW55974   2.222   7.206   7.441
84714SOL    HW155975   2.239   7.160   7.524
84714SOL    HW255976   2.268   7.289   7.450
84715SOL     OW55977   2.936   0.602   6.775
84715SOL    HW155978   2.882   0.654   6.835
84715SOL    HW255979   2.912   0.511   6.794
84716SOL     OW55980   7.314   6.748   2.169
84716SOL    HW155981   7.410   6.755   2.168
84716SOL    HW255982   7.295   6.690   2.243
84717SOL     OW55983  10.754  10.411   8.542
84717SOL    HW155984  10.670  10.389   8.502
84717SOL    HW255985  10.805  10.330   8.537
84718SOL     OW55986   4.538   2.686  13.840
84718SOL    HW155987   4.579   2.766  13.806
84718SOL    HW255988   4.609   2.641  13.887
84719SOL     OW55989   8.426   1.671   9.539
84719SOL    HW155990   8.461   1.724   9.610
84719SOL    HW255991   8.441   1.580   9.566
84720SOL     OW55992  12.312  13.937   0.715
84720SOL    HW155993  12.393  13.927   0.765
84720SOL    HW255994  12.306  13.858   0.662
84721SOL     OW55995   1.816  14.200  13.351
84721SOL    HW155996   1.737  14.213  13.298
84721SOL    HW255997   1.787  14.208  13.441
84722SOL     OW55998   7.510   7.906   1.872
84722SOL    HW155999   7.526   7.997   1.901
84722SOL    HW256000   7.595   7.863   1.885
84723SOL     OW56001   5.691  11.082   5.870
84723SOL    HW156002   5.658  11.139   5.801
84723SOL    HW256003   5.636  11.003   5.864
84724SOL     OW56004   7.743  11.372  13.349
84724SOL    HW156005   7.657  11.373  13.390
84724SOL    HW256006   7.792  11.441  13.394
84725SOL     OW56007   9.629   2.863  12.415
84725SOL    HW156008   9.616   2.932  12.480
84725SOL    HW256009   9.718   2.831  12.432
84726SOL     OW56010   0.453   9.437  11.971
84726SOL    HW156011   0.498   9.506  11.923
84726SOL    HW256012   0.377   9.480  12.010
84727SOL     OW56013   6.029   9.465   6.586
84727SOL    HW156014   6.012   9.439   6.676
84727SOL    HW256015   6.001   9.390   6.533
84728SOL     OW56016   8.100   0.092   5.371
84728SOL    HW156017   8.175   0.109   5.428
84728SOL    HW256018   8.036   0.159   5.393
84729SOL     OW56019  11.478   7.274   0.249
84729SOL    HW156020  11.405   7.336   0.243
84729SOL    HW256021  11.554   7.329   0.266
84730SOL     OW56022   8.401   5.097   2.375
84730SOL    HW156023   8.354   5.148   2.310
84730SOL    HW256024   8.377   5.006   2.357
84731SOL     OW56025   4.579   1.780   3.164
84731SOL    HW156026   4.520   1.716   3.204
84731SOL    HW256027   4.564   1.771   3.070
84732SOL     OW56028   7.457   8.038  11.359
84732SOL    HW156029   7.486   8.074  11.275
84732SOL    HW256030   7.478   8.106  11.423
84733SOL     OW56031   4.791  12.372   2.810
84733SOL    HW156032   4.843  12.399   2.885
84733SOL    HW256033   4.721  12.438   2.804
84734SOL     OW56034  13.839   8.796   6.277
84734SOL    HW156035  13.794   8.796   6.362
84734SOL    HW256036  13.768   8.797   6.213
84735SOL     OW56037   1.177   9.951   5.099
84735SOL    HW156038   1.272   9.958   5.106
84735SOL    HW256039   1.162   9.860   5.071
84736SOL     OW56040  12.298   2.483   1.679
84736SOL    HW156041  12.243   2.520   1.747
84736SOL    HW256042  12.313   2.555   1.618
84737SOL     OW56043  11.121  13.157   5.717
84737SOL    HW156044  11.053  13.223   5.708
84737SOL    HW256045  11.163  13.176   5.801
84738SOL     OW56046   8.550   2.666   2.879
84738SOL    HW156047   8.509   2.642   2.962
84738SOL    HW256048   8.506   2.747   2.853
84739SOL     OW56049  10.610  13.065   4.005
84739SOL    HW156050  10.644  12.976   4.004
84739SOL    HW256051  10.529  13.059   4.056
84740SOL     OW56052   1.588   2.876   1.466
84740SOL    HW156053   1.598   2.956   1.518
84740SOL    HW256054   1.673   2.833   1.472
84741SOL     OW56055  12.488   4.575  12.111
84741SOL    HW156056  12.406   4.544  12.151
84741SOL    HW256057  12.491   4.529  12.026
84742SOL     OW56058   4.730   6.022  12.561
84742SOL    HW156059   4.658   5.962  12.541
84742SOL    HW256060   4.780   6.027  12.479
84743SOL     OW56061  11.082   7.632   4.010
84743SOL    HW156062  11.152   7.696   4.021
84743SOL    HW256063  11.031   7.638   4.091
84744SOL     OW56064   0.699   7.408   4.481
84744SOL    HW156065   0.654   7.475   4.429
84744SOL    HW256066   0.783   7.396   4.436
84745SOL     OW56067   6.887   8.569   7.543
84745SOL    HW156068   6.911   8.549   7.634
84745SOL    HW256069   6.969   8.594   7.501
84746SOL     OW56070   0.419   6.823   4.642
84746SOL    HW156071   0.483   6.754   4.660
84746SOL    HW256072   0.472   6.898   4.615
84747SOL     OW56073   2.509   0.358  11.238
84747SOL    HW156074   2.509   0.284  11.298
84747SOL    HW256075   2.426   0.403  11.254
84748SOL     OW56076  14.046   3.545   1.317
84748SOL    HW156077  14.047   3.632   1.356
84748SOL    HW256078  14.099   3.492   1.377
84749SOL     OW56079   0.765   9.437   9.183
84749SOL    HW156080   0.718   9.434   9.100
84749SOL    HW256081   0.715   9.497   9.237
84750SOL     OW56082  12.143  12.691   4.666
84750SOL    HW156083  12.104  12.773   4.698
84750SOL    HW256084  12.203  12.719   4.596
84751SOL     OW56085   0.974   6.574   9.755
84751SOL    HW156086   1.029   6.651   9.772
84751SOL    HW256087   1.028   6.518   9.699
84752SOL     OW56088   1.521   8.443   4.207
84752SOL    HW156089   1.442   8.434   4.260
84752SOL    HW256090   1.524   8.362   4.155
84753SOL     OW56091   4.240  13.328   3.576
84753SOL    HW156092   4.197  13.269   3.514
84753SOL    HW256093   4.318  13.358   3.529
84754SOL     OW56094   3.231   6.080   8.000
84754SOL    HW156095   3.190   6.143   7.941
84754SOL    HW256096   3.324   6.095   7.989
84755SOL     OW56097   4.552   4.729  13.436
84755SOL    HW156098   4.620   4.786  13.402
84755SOL    HW256099   4.584   4.640  13.420
84756SOL     OW56100   4.837   5.214  10.255
84756SOL    HW156101   4.807   5.203  10.346
84756SOL    HW256102   4.806   5.301  10.230
84757SOL     OW56103   9.561  10.082  13.459
84757SOL    HW156104   9.558  10.174  13.486
84757SOL    HW256105   9.513  10.035  13.527
84758SOL     OW56106  11.758  10.126   8.531
84758SOL    HW156107  11.736  10.076   8.453
84758SOL    HW256108  11.763  10.217   8.502
84759SOL     OW56109  12.922   2.949   3.308
84759SOL    HW156110  12.977   2.888   3.357
84759SOL    HW256111  12.841   2.901   3.290
84760SOL     OW56112   7.193   8.733   7.799
84760SOL    HW156113   7.141   8.658   7.769
84760SOL    HW256114   7.250   8.697   7.867
84761SOL     OW56115   7.156   8.368   1.485
84761SOL    HW156116   7.104   8.303   1.532
84761SOL    HW256117   7.150   8.342   1.393
84762SOL     OW56118  13.221  12.771   3.735
84762SOL    HW156119  13.269  12.826   3.797
84762SOL    HW256120  13.196  12.694   3.785
84763SOL     OW56121  10.160  14.359   8.886
84763SOL    HW156122  10.215  14.368   8.808
84763SOL    HW256123  10.184  14.274   8.923
84764SOL     OW56124   1.867  13.717   4.544
84764SOL    HW156125   1.844  13.640   4.491
84764SOL    HW256126   1.852  13.690   4.634
84765SOL     OW56127   5.948   8.205  13.189
84765SOL    HW156128   6.011   8.233  13.123
84765SOL    HW256129   5.929   8.284  13.239
84766SOL     OW56130   0.749   4.934  11.405
84766SOL    HW156131   0.814   5.003  11.397
84766SOL    HW256132   0.665   4.980  11.413
84767SOL     OW56133   0.100  12.152   0.967
84767SOL    HW156134   0.098  12.082   0.901
84767SOL    HW256135   0.189  12.188   0.961
84768SOL     OW56136   7.719  12.391   4.862
84768SOL    HW156137   7.793  12.378   4.922
84768SOL    HW256138   7.657  12.445   4.911
84769SOL     OW56139   4.019   3.875   6.029
84769SOL    HW156140   3.944   3.845   5.977
84769SOL    HW256141   4.054   3.949   5.980
84770SOL     OW56142  14.503  13.944   6.947
84770SOL    HW156143  14.535  14.032   6.928
84770SOL    HW256144  14.526  13.893   6.870
84771SOL     OW56145   3.333   3.692   8.029
84771SOL    HW156146   3.387   3.626   8.072
84771SOL    HW256147   3.384   3.772   8.034
84772SOL     OW56148  11.104   3.537   3.476
84772SOL    HW156149  11.048   3.609   3.449
84772SOL    HW256150  11.143   3.504   3.395
84773SOL     OW56151   4.296   6.380   2.950
84773SOL    HW156152   4.265   6.405   3.038
84773SOL    HW256153   4.342   6.297   2.964
84774SOL     OW56154   1.592   3.584   4.271
84774SOL    HW156155   1.561   3.575   4.361
84774SOL    HW256156   1.647   3.662   4.273
84775SOL     OW56157   9.340  11.892  13.463
84775SOL    HW156158   9.326  11.947  13.540
84775SOL    HW256159   9.428  11.857  13.473
84776SOL     OW56160   7.991   5.818  12.550
84776SOL    HW156161   7.916   5.866  12.584
84776SOL    HW256162   8.016   5.757  12.620
84777SOL     OW56163   7.557  14.019  10.437
84777SOL    HW156164   7.633  14.044  10.384
84777SOL    HW256165   7.492  14.088  10.420
84778SOL     OW56166   6.077   7.703   5.821
84778SOL    HW156167   6.120   7.726   5.903
84778SOL    HW256168   6.147   7.675   5.763
84779SOL     OW56169  14.473   1.530  11.328
84779SOL    HW156170  14.436   1.590  11.263
84779SOL    HW256171  14.516   1.462  11.276
84780SOL     OW56172   5.058  10.367  12.755
84780SOL    HW156173   5.149  10.393  12.770
84780SOL    HW256174   5.011  10.451  12.745
84781SOL     OW56175   5.296  10.555  11.671
84781SOL    HW156176   5.217  10.548  11.619
84781SOL    HW256177   5.269  10.535  11.761
84782SOL     OW56178   4.736  13.431   4.520
84782SOL    HW156179   4.668  13.398   4.461
84782SOL    HW256180   4.806  13.365   4.514
84783SOL     OW56181  12.994  13.254   0.285
84783SOL    HW156182  12.919  13.261   0.225
84783SOL    HW256183  12.955  13.230   0.369
84784SOL     OW56184  14.365   9.979   9.745
84784SOL    HW156185  14.342   9.887   9.731
84784SOL    HW256186  14.460   9.980   9.741
84785SOL     OW56187   0.186   7.624   3.500
84785SOL    HW156188   0.091   7.631   3.516
84785SOL    HW256189   0.195   7.631   3.405
84786SOL     OW56190  14.189  13.779   0.960
84786SOL    HW156191  14.257  13.840   0.990
84786SOL    HW256192  14.221  13.693   0.988
84787SOL     OW56193  14.216   9.503   2.470
84787SOL    HW156194  14.165   9.435   2.515
84787SOL    HW256195  14.274   9.538   2.538
84788SOL     OW56196  11.387  14.458   2.627
84788SOL    HW156197  11.416  14.544   2.657
84788SOL    HW256198  11.467  14.406   2.622
84789SOL     OW56199  10.123   7.662   3.378
84789SOL    HW156200  10.213   7.689   3.401
84789SOL    HW256201  10.069   7.698   3.448
84790SOL     OW56202   8.685  11.937   9.250
84790SOL    HW156203   8.608  11.988   9.226
84790SOL    HW256204   8.685  11.939   9.346
84791SOL     OW56205   0.352  10.653  12.119
84791SOL    HW156206   0.324  10.563  12.102
84791SOL    HW256207   0.433  10.663  12.070
84792SOL     OW56208   4.878   4.289  13.490
84792SOL    HW156209   4.903   4.214  13.543
84792SOL    HW256210   4.939   4.287  13.416
84793SOL     OW56211   3.573   0.967   4.773
84793SOL    HW156212   3.548   0.952   4.865
84793SOL    HW256213   3.634   1.040   4.776
84794SOL     OW56214   7.790   4.056  13.072
84794SOL    HW156215   7.724   4.108  13.117
84794SOL    HW256216   7.827   4.115  13.006
84795SOL     OW56217   9.963  12.117   3.889
84795SOL    HW156218  10.012  12.079   3.962
84795SOL    HW256219   9.944  12.043   3.831
84796SOL     OW56220   7.605   3.633  10.699
84796SOL    HW156221   7.546   3.643  10.773
84796SOL    HW256222   7.639   3.544  10.706
84797SOL     OW56223   6.662   8.983   9.646
84797SOL    HW156224   6.578   9.021   9.620
84797SOL    HW256225   6.684   9.028   9.727
84798SOL     OW56226   3.539   4.374   7.540
84798SOL    HW156227   3.543   4.469   7.534
84798SOL    HW256228   3.573   4.353   7.627
84799SOL     OW56229  14.125   3.110   7.053
84799SOL    HW156230  14.100   3.019   7.034
84799SOL    HW256231  14.209   3.122   7.007
84800SOL     OW56232   6.783  12.575  11.525
84800SOL    HW156233   6.726  12.568  11.601
84800SOL    HW256234   6.869  12.597  11.561
84801SOL     OW56235   6.435   5.390   3.260
84801SOL    HW156236   6.402   5.413   3.173
84801SOL    HW256237   6.409   5.299   3.273
84802SOL     OW56238   6.730  11.496  11.010
84802SOL    HW156239   6.694  11.548  11.082
84802SOL    HW256240   6.809  11.457  11.047
84803SOL     OW56241  13.473   0.844   8.218
84803SOL    HW156242  13.553   0.809   8.255
84803SOL    HW256243  13.423   0.767   8.191
84804SOL     OW56244   6.541   7.712   3.119
84804SOL    HW156245   6.506   7.627   3.146
84804SOL    HW256246   6.635   7.705   3.133
84805SOL     OW56247  12.842  13.481   6.884
84805SOL    HW156248  12.816  13.425   6.957
84805SOL    HW256249  12.764  13.534   6.866
84806SOL     OW56250  10.917   6.098  11.564
84806SOL    HW156251  10.958   6.162  11.622
84806SOL    HW256252  10.888   6.028  11.622
84807SOL     OW56253   6.042  12.589  11.323
84807SOL    HW156254   6.005  12.657  11.379
84807SOL    HW256255   5.969  12.528  11.308
84808SOL     OW56256  11.893   3.385   4.780
84808SOL    HW156257  11.971   3.406   4.727
84808SOL    HW256258  11.835   3.461   4.768
84809SOL     OW56259   2.991  12.461  13.446
84809SOL    HW156260   3.018  12.498  13.531
84809SOL    HW256261   3.007  12.367  13.455
84810SOL     OW56262   0.983   9.829   6.377
84810SOL    HW156263   0.948   9.753   6.423
84810SOL    HW256264   0.913   9.855   6.317
84811SOL     OW56265  14.368  14.594  11.566
84811SOL    HW156266  14.445  14.537  11.566
84811SOL    HW256267  14.400  14.677  11.602
84812SOL     OW56268   1.562   3.648  12.716
84812SOL    HW156269   1.529   3.676  12.630
84812SOL    HW256270   1.644   3.696  12.727
84813SOL     OW56271   5.372  11.032  12.838
84813SOL    HW156272   5.325  10.987  12.768
84813SOL    HW256273   5.304  11.062  12.898
84814SOL     OW56274  11.585   6.634  13.314
84814SOL    HW156275  11.493   6.653  13.294
84814SOL    HW256276  11.633   6.670  13.239
84815SOL     OW56277  11.184  13.604   9.552
84815SOL    HW156278  11.256  13.655   9.515
84815SOL    HW256279  11.115  13.669   9.569
84816SOL     OW56280   8.549   2.739   4.612
84816SOL    HW156281   8.501   2.677   4.668
84816SOL    HW256282   8.561   2.816   4.667
84817SOL     OW56283  12.185   6.070   0.531
84817SOL    HW156284  12.228   6.000   0.581
84817SOL    HW256285  12.167   6.138   0.595
84818SOL     OW56286   1.071  14.347   3.305
84818SOL    HW156287   1.007  14.332   3.375
84818SOL    HW256288   1.029  14.313   3.226
84819SOL     OW56289  14.183   0.364  11.266
84819SOL    HW156290  14.087   0.367  11.268
84819SOL    HW256291  14.204   0.292  11.207
84820SOL     OW56292  10.031   1.087   3.586
84820SOL    HW156293  10.052   1.058   3.497
84820SOL    HW256294  10.086   1.033   3.642
84821SOL     OW56295  11.206  12.669   9.991
84821SOL    HW156296  11.281  12.681  10.049
84821SOL    HW256297  11.206  12.746   9.935
84822SOL     OW56298  12.290   6.295   6.139
84822SOL    HW156299  12.223   6.362   6.151
84822SOL    HW256300  12.289   6.275   6.045
84823SOL     OW56301  11.201   9.982   8.036
84823SOL    HW156302  11.206  10.028   7.952
84823SOL    HW256303  11.236   9.895   8.018
84824SOL     OW56304  10.939   9.517  10.739
84824SOL    HW156305  10.978   9.550  10.658
84824SOL    HW256306  11.000   9.544  10.808
84825SOL     OW56307   6.614  13.942   5.106
84825SOL    HW156308   6.629  13.864   5.161
84825SOL    HW256309   6.646  13.916   5.020
84826SOL     OW56310  13.607   1.097   9.340
84826SOL    HW156311  13.606   1.002   9.344
84826SOL    HW256312  13.657   1.118   9.261
84827SOL     OW56313   7.644   4.453   1.187
84827SOL    HW156314   7.651   4.465   1.281
84827SOL    HW256315   7.609   4.364   1.176
84828SOL     OW56316  12.912   1.540   5.314
84828SOL    HW156317  12.857   1.534   5.393
84828SOL    HW256318  12.981   1.602   5.338
84829SOL     OW56319   1.954  12.690   1.572
84829SOL    HW156320   1.960  12.777   1.532
84829SOL    HW256321   1.867  12.688   1.613
84830SOL     OW56322   9.596   0.130   3.488
84830SOL    HW156323   9.557   0.142   3.575
84830SOL    HW256324   9.663   0.063   3.502
84831SOL     OW56325  11.762  11.117   0.136
84831SOL    HW156326  11.844  11.090   0.177
84831SOL    HW256327  11.772  11.097   0.043
84832SOL     OW56328  11.285   1.243   1.591
84832SOL    HW156329  11.226   1.178   1.554
84832SOL    HW256330  11.367   1.196   1.607
84833SOL     OW56331   5.877   8.856   0.181
84833SOL    HW156332   5.953   8.820   0.226
84833SOL    HW256333   5.816   8.881   0.250
84834SOL     OW56334  11.269   9.147  11.601
84834SOL    HW156335  11.291   9.237  11.576
84834SOL    HW256336  11.354   9.104  11.611
84835SOL     OW56337  14.619   2.769  13.073
84835SOL    HW156338  14.557   2.779  13.145
84835SOL    HW256339  14.640   2.676  13.072
84836SOL     OW56340   0.873   2.359   3.098
84836SOL    HW156341   0.877   2.454   3.108
84836SOL    HW256342   0.821   2.329   3.173
84837SOL     OW56343   2.822  11.504   1.989
84837SOL    HW156344   2.895  11.474   2.043
84837SOL    HW256345   2.759  11.540   2.050
84838SOL     OW56346  11.301   1.642  10.137
84838SOL    HW156347  11.288   1.611  10.227
84838SOL    HW256348  11.360   1.578  10.098
84839SOL     OW56349   2.890   6.311  11.231
84839SOL    HW156350   2.861   6.317  11.323
84839SOL    HW256351   2.914   6.401  11.209
84840SOL     OW56352  12.254   2.724   5.306
84840SOL    HW156353  12.338   2.755   5.341
84840SOL    HW256354  12.210   2.803   5.276
84841SOL     OW56355   8.298   3.262   1.246
84841SOL    HW156356   8.325   3.308   1.326
84841SOL    HW256357   8.379   3.248   1.197
84842SOL     OW56358   2.669  10.050   5.044
84842SOL    HW156359   2.631   9.993   5.111
84842SOL    HW256360   2.676  10.136   5.086
84843SOL     OW56361   0.891   8.976   2.539
84843SOL    HW156362   0.889   8.994   2.445
84843SOL    HW256363   0.862   9.057   2.580
84844SOL     OW56364   7.282   2.200   7.989
84844SOL    HW156365   7.350   2.231   7.930
84844SOL    HW256366   7.221   2.274   7.997
84845SOL     OW56367  11.409   6.315  10.621
84845SOL    HW156368  11.498   6.301  10.588
84845SOL    HW256369  11.404   6.409  10.638
84846SOL     OW56370  11.600   2.379   8.258
84846SOL    HW156371  11.583   2.468   8.289
84846SOL    HW256372  11.684   2.355   8.298
84847SOL     OW56373  14.834   1.357   1.846
84847SOL    HW156374  14.803   1.283   1.794
84847SOL    HW256375  14.818   1.332   1.937
84848SOL     OW56376   2.653   0.062   3.871
84848SOL    HW156377   2.669  14.848   3.909
84848SOL    HW256378   2.696   0.122   3.931
84849SOL     OW56379   7.664   8.422   5.029
84849SOL    HW156380   7.669   8.330   5.055
84849SOL    HW256381   7.708   8.425   4.944
84850SOL     OW56382  13.577  10.409   2.798
84850SOL    HW156383  13.488  10.375   2.787
84850SOL    HW256384  13.633  10.332   2.796
84851SOL     OW56385   4.750   7.623   3.632
84851SOL    HW156386   4.760   7.534   3.598
84851SOL    HW256387   4.655   7.635   3.639
84852SOL     OW56388   5.565   4.188   2.691
84852SOL    HW156389   5.548   4.096   2.671
84852SOL    HW256390   5.606   4.223   2.612
84853SOL     OW56391   1.724   5.739   1.455
84853SOL    HW156392   1.684   5.801   1.516
84853SOL    HW256393   1.817   5.760   1.457
84854SOL     OW56394   9.525   7.292   8.805
84854SOL    HW156395   9.430   7.278   8.805
84854SOL    HW256396   9.560   7.215   8.760
84855SOL     OW56397   8.809   0.117  14.608
84855SOL    HW156398   8.851   0.201  14.626
84855SOL    HW256399   8.847   0.057  14.673
84856SOL     OW56400   9.528   4.107  10.639
84856SOL    HW156401   9.488   4.032  10.682
84856SOL    HW256402   9.563   4.072  10.557
84857SOL     OW56403   9.882   9.550  14.584
84857SOL    HW156404   9.965   9.563  14.630
84857SOL    HW256405   9.817   9.544  14.653
84858SOL     OW56406   0.720   0.683   1.560
84858SOL    HW156407   0.792   0.625   1.583
84858SOL    HW256408   0.670   0.693   1.642
84859SOL     OW56409  11.409   8.525   2.384
84859SOL    HW156410  11.420   8.601   2.441
84859SOL    HW256411  11.363   8.559   2.307
84860SOL     OW56412   7.890  13.562   0.912
84860SOL    HW156413   7.891  13.658   0.906
84860SOL    HW256414   7.874  13.544   1.005
84861SOL     OW56415   1.440  13.700   1.763
84861SOL    HW156416   1.472  13.610   1.771
84861SOL    HW256417   1.514  13.754   1.790
84862SOL     OW56418   3.682   3.987   7.088
84862SOL    HW156419   3.619   4.053   7.060
84862SOL    HW256420   3.643   3.947   7.165
84863SOL     OW56421  12.093  10.733  10.623
84863SOL    HW156422  12.139  10.739  10.539
84863SOL    HW256423  12.162  10.746  10.689
84864SOL     OW56424   2.957  14.701  12.407
84864SOL    HW156425   3.008  14.673  12.331
84864SOL    HW256426   2.990  14.789  12.426
84865SOL     OW56427   5.619   6.103   2.628
84865SOL    HW156428   5.642   6.096   2.536
84865SOL    HW256429   5.546   6.042   2.639
84866SOL     OW56430   6.861   9.357   2.313
84866SOL    HW156431   6.824   9.409   2.385
84866SOL    HW256432   6.788   9.302   2.284
84867SOL     OW56433   1.080   0.559   8.728
84867SOL    HW156434   1.050   0.541   8.817
84867SOL    HW256435   1.074   0.654   8.719
84868SOL     OW56436  12.524   4.123   4.670
84868SOL    HW156437  12.466   4.191   4.702
84868SOL    HW256438  12.608   4.167   4.655
84869SOL     OW56439   2.468  13.573  10.964
84869SOL    HW156440   2.545  13.526  10.933
84869SOL    HW256441   2.398  13.548  10.902
84870SOL     OW56442  14.160   4.043   1.477
84870SOL    HW156443  14.222   4.107   1.443
84870SOL    HW256444  14.075   4.085   1.470
84871SOL     OW56445   8.001   6.546  13.272
84871SOL    HW156446   7.979   6.458  13.304
84871SOL    HW256447   7.985   6.603  13.347
84872SOL     OW56448   9.097   8.098  10.476
84872SOL    HW156449   9.016   8.141  10.503
84872SOL    HW256450   9.161   8.169  10.471
84873SOL     OW56451   6.954  10.479   0.417
84873SOL    HW156452   6.896  10.422   0.367
84873SOL    HW256453   6.988  10.424   0.488
84874SOL     OW56454  12.391  10.005   4.288
84874SOL    HW156455  12.312  10.031   4.337
84874SOL    HW256456  12.360   9.996   4.198
84875SOL     OW56457   4.560   4.750  11.089
84875SOL    HW156458   4.585   4.662  11.062
84875SOL    HW256459   4.478   4.766  11.042
84876SOL     OW56460   8.762  12.122   0.660
84876SOL    HW156461   8.708  12.044   0.649
84876SOL    HW256462   8.730  12.161   0.742
84877SOL     OW56463   6.056  13.753   6.595
84877SOL    HW156464   5.963  13.760   6.615
84877SOL    HW256465   6.077  13.835   6.550
84878SOL     OW56466   2.592  10.325  12.903
84878SOL    HW156467   2.547  10.274  12.836
84878SOL    HW256468   2.672  10.276  12.920
84879SOL     OW56469   3.984   3.881   9.805
84879SOL    HW156470   4.032   3.962   9.824
84879SOL    HW256471   4.039   3.834   9.743
84880SOL     OW56472   4.021   0.699  11.930
84880SOL    HW156473   4.055   0.617  11.965
84880SOL    HW256474   3.971   0.674  11.853
84881SOL     OW56475  11.911   5.156   2.839
84881SOL    HW156476  11.939   5.066   2.821
84881SOL    HW256477  11.993   5.206   2.838
84882SOL     OW56478   2.659   9.200   4.862
84882SOL    HW156479   2.680   9.185   4.955
84882SOL    HW256480   2.621   9.118   4.832
84883SOL     OW56481   4.827   1.496   5.785
84883SOL    HW156482   4.881   1.487   5.707
84883SOL    HW256483   4.738   1.511   5.751
84884SOL     OW56484  11.634   0.560   5.739
84884SOL    HW156485  11.647   0.613   5.660
84884SOL    HW256486  11.721   0.551   5.776
84885SOL     OW56487   0.500   5.595   8.004
84885SOL    HW156488   0.590   5.564   8.008
84885SOL    HW256489   0.506   5.686   7.976
84886SOL     OW56490  11.051   4.765   2.390
84886SOL    HW156491  10.976   4.706   2.390
84886SOL    HW256492  11.043   4.814   2.472
84887SOL     OW56493   4.104   6.458   0.007
84887SOL    HW156494   4.078   6.381  14.828
84887SOL    HW256495   4.023   6.490   0.045
84888SOL     OW56496  10.898   3.018  12.423
84888SOL    HW156497  10.874   2.926  12.420
84888SOL    HW256498  10.836   3.058  12.483
84889SOL     OW56499   5.243  11.946  13.690
84889SOL    HW156500   5.322  11.902  13.659
84889SOL    HW256501   5.237  12.026  13.637
84890SOL     OW56502  12.897   1.013   9.516
84890SOL    HW156503  12.989   1.021   9.491
84890SOL    HW256504  12.891   1.058   9.600
84891SOL     OW56505   8.465   1.498   1.102
84891SOL    HW156506   8.521   1.514   1.026
84891SOL    HW256507   8.518   1.524   1.177
84892SOL     OW56508  13.378  11.639  13.028
84892SOL    HW156509  13.345  11.574  13.090
84892SOL    HW256510  13.313  11.639  12.958
84893SOL     OW56511  13.235   6.195   2.210
84893SOL    HW156512  13.264   6.251   2.282
84893SOL    HW256513  13.143   6.219   2.197
84894SOL     OW56514  12.024   5.673   5.152
84894SOL    HW156515  12.070   5.590   5.162
84894SOL    HW256516  11.976   5.664   5.069
84895SOL     OW56517   8.682   0.352   2.503
84895SOL    HW156518   8.663   0.440   2.468
84895SOL    HW256519   8.632   0.293   2.447
84896SOL     OW56520   0.948   7.003   9.891
84896SOL    HW156521   0.924   7.053   9.969
84896SOL    HW256522   0.865   6.969   9.858
84897SOL     OW56523   2.358   6.321  13.532
84897SOL    HW156524   2.275   6.298  13.490
84897SOL    HW256525   2.336   6.333  13.624
84898SOL     OW56526   7.432   6.325   5.787
84898SOL    HW156527   7.476   6.284   5.713
84898SOL    HW256528   7.372   6.388   5.748
84899SOL     OW56529  10.750   2.797   2.383
84899SOL    HW156530  10.728   2.874   2.331
84899SOL    HW256531  10.767   2.830   2.471
84900SOL     OW56532  11.464   0.380   1.812
84900SOL    HW156533  11.393   0.445   1.809
84900SOL    HW256534  11.442   0.319   1.742
84901SOL     OW56535   2.435   6.433   0.058
84901SOL    HW156536   2.437   6.433  14.836
84901SOL    HW256537   2.391   6.352   0.082
84902SOL     OW56538  10.844  14.141  14.032
84902SOL    HW156539  10.822  14.071  14.092
84902SOL    HW256540  10.851  14.098  13.946
84903SOL     OW56541   4.907   4.413  11.962
84903SOL    HW156542   4.983   4.355  11.960
84903SOL    HW256543   4.835   4.358  11.931
84904SOL     OW56544   3.718   9.891  14.232
84904SOL    HW156545   3.775   9.832  14.182
84904SOL    HW256546   3.639   9.840  14.247
84905SOL     OW56547   2.818  11.681   1.330
84905SOL    HW156548   2.834  11.597   1.373
84905SOL    HW256549   2.856  11.671   1.243
84906SOL     OW56550   0.547   9.585   3.686
84906SOL    HW156551   0.543   9.530   3.608
84906SOL    HW256552   0.608   9.541   3.744
84907SOL     OW56553   7.063   6.658   0.867
84907SOL    HW156554   7.002   6.596   0.907
84907SOL    HW256555   7.141   6.654   0.923
84908SOL     OW56556   4.306   1.936   1.696
84908SOL    HW156557   4.215   1.903   1.698
84908SOL    HW256558   4.357   1.866   1.738
84909SOL     OW56559   7.676   5.999   9.223
84909SOL    HW156560   7.683   5.966   9.134
84909SOL    HW256561   7.658   5.922   9.277
84910SOL     OW56562   0.906  14.858  11.714
84910SOL    HW156563   0.893  14.817  11.628
84910SOL    HW256564   0.994  14.830  11.741
84911SOL     OW56565  13.213  13.405   6.751
84911SOL    HW156566  13.127  13.434   6.720
84911SOL    HW256567  13.207  13.413   6.847
84912SOL     OW56568  12.968  11.668   8.112
84912SOL    HW156569  12.964  11.755   8.152
84912SOL    HW256570  12.996  11.610   8.184
84913SOL     OW56571  12.104  10.582   7.682
84913SOL    HW156572  12.037  10.518   7.660
84913SOL    HW256573  12.062  10.667   7.667
84914SOL     OW56574   2.574   2.109   2.191
84914SOL    HW156575   2.538   2.088   2.277
84914SOL    HW256576   2.580   2.205   2.190
84915SOL     OW56577   9.642   5.728  14.535
84915SOL    HW156578   9.667   5.771  14.454
84915SOL    HW256579   9.719   5.738  14.592
84916SOL     OW56580  13.253   6.263   1.089
84916SOL    HW156581  13.306   6.238   1.165
84916SOL    HW256582  13.244   6.358   1.097
84917SOL     OW56583  14.377  12.979  12.583
84917SOL    HW156584  14.455  12.993  12.635
84917SOL    HW256585  14.304  12.999  12.642
84918SOL     OW56586  10.985   4.858   4.612
84918SOL    HW156587  10.914   4.868   4.548
84918SOL    HW256588  10.940   4.859   4.696
84919SOL     OW56589   1.153   0.834   8.743
84919SOL    HW156590   1.086   0.902   8.752
84919SOL    HW256591   1.197   0.855   8.660
84920SOL     OW56592   5.152  11.873   2.473
84920SOL    HW156593   5.135  11.832   2.388
84920SOL    HW256594   5.127  11.807   2.537
84921SOL     OW56595   8.073   7.222   0.797
84921SOL    HW156596   7.991   7.263   0.822
84921SOL    HW256597   8.140   7.287   0.816
84922SOL     OW56598   3.074  10.042   7.934
84922SOL    HW156599   3.019  10.103   7.886
84922SOL    HW256600   3.162  10.080   7.931
84923SOL     OW56601   1.148   5.971   9.862
84923SOL    HW156602   1.163   5.998   9.771
84923SOL    HW256603   1.205   6.027   9.913
84924SOL     OW56604   8.924   0.996   2.468
84924SOL    HW156605   8.836   0.974   2.499
84924SOL    HW256606   8.909   1.043   2.386
84925SOL     OW56607  10.253  10.926   1.380
84925SOL    HW156608  10.267  10.985   1.454
84925SOL    HW256609  10.310  10.959   1.311
84926SOL     OW56610  10.142   8.658   1.763
84926SOL    HW156611  10.050   8.661   1.738
84926SOL    HW256612  10.145   8.601   1.840
84927SOL     OW56613  14.621   4.498   6.992
84927SOL    HW156614  14.710   4.509   7.027
84927SOL    HW256615  14.633   4.446   6.912
84928SOL     OW56616  14.218   9.746  11.508
84928SOL    HW156617  14.154   9.703  11.565
84928SOL    HW256618  14.171   9.820  11.471
84929SOL     OW56619  13.663   6.275   1.817
84929SOL    HW156620  13.715   6.205   1.856
84929SOL    HW256621  13.714   6.302   1.740
84930SOL     OW56622   6.236  11.326   3.103
84930SOL    HW156623   6.272  11.317   3.015
84930SOL    HW256624   6.290  11.393   3.144
84931SOL     OW56625   4.072   5.155   0.948
84931SOL    HW156626   3.992   5.103   0.947
84931SOL    HW256627   4.042   5.246   0.953
84932SOL     OW56628   6.619   5.478  13.327
84932SOL    HW156629   6.585   5.496  13.239
84932SOL    HW256630   6.657   5.390  13.320
84933SOL     OW56631   2.623  11.969  11.641
84933SOL    HW156632   2.683  11.979  11.567
84933SOL    HW256633   2.616  12.057  11.677
84934SOL     OW56634  12.546   8.778  14.009
84934SOL    HW156635  12.514   8.852  13.958
84934SOL    HW256636  12.506   8.702  13.968
84935SOL     OW56637  13.574   8.021  13.993
84935SOL    HW156638  13.667   8.017  13.969
84935SOL    HW256639  13.569   8.088  14.061
84936SOL     OW56640   4.209   9.950  12.554
84936SOL    HW156641   4.203  10.026  12.612
84936SOL    HW256642   4.296   9.957  12.514
84937SOL     OW56643   4.731   9.848  12.725
84937SOL    HW156644   4.750   9.755  12.712
84937SOL    HW256645   4.635   9.853  12.726
84938SOL     OW56646   8.488   5.777   2.278
84938SOL    HW156647   8.393   5.773   2.291
84938SOL    HW256648   8.503   5.728   2.197
84939SOL     OW56649   3.005   4.813   5.715
84939SOL    HW156650   3.047   4.883   5.664
84939SOL    HW256651   2.986   4.854   5.799
84940SOL     OW56652   5.424   1.244  10.664
84940SOL    HW156653   5.332   1.244  10.688
84940SOL    HW256654   5.452   1.335  10.675
84941SOL     OW56655   8.701   6.958   2.520
84941SOL    HW156656   8.708   6.866   2.492
84941SOL    HW256657   8.651   6.954   2.602
84942SOL     OW56658   6.590   4.954   0.117
84942SOL    HW156659   6.670   4.936   0.067
84942SOL    HW256660   6.618   5.016   0.185
84943SOL     OW56661   3.823  14.705  10.159
84943SOL    HW156662   3.804  14.798  10.167
84943SOL    HW256663   3.894  14.689  10.221
84944SOL     OW56664  11.917  11.497   4.169
84944SOL    HW156665  11.868  11.562   4.219
84944SOL    HW256666  11.858  11.472   4.098
84945SOL     OW56667   4.596   9.153   6.596
84945SOL    HW156668   4.516   9.192   6.562
84945SOL    HW256669   4.611   9.197   6.680
84946SOL     OW56670  10.715  12.038  10.462
84946SOL    HW156671  10.696  11.945  10.469
84946SOL    HW256672  10.798  12.050  10.509
84947SOL     OW56673   1.384  14.225   8.401
84947SOL    HW156674   1.372  14.207   8.494
84947SOL    HW256675   1.430  14.148   8.368
84948SOL     OW56676   9.718   1.117   6.574
84948SOL    HW156677   9.784   1.058   6.612
84948SOL    HW256678   9.673   1.154   6.650
84949SOL     OW56679   4.131  12.108   3.363
84949SOL    HW156680   4.126  12.152   3.448
84949SOL    HW256681   4.159  12.019   3.384
84950SOL     OW56682   2.425  14.535   7.578
84950SOL    HW156683   2.438  14.539   7.673
84950SOL    HW256684   2.513  14.550   7.541
84951SOL     OW56685   4.554  11.083  10.882
84951SOL    HW156686   4.599  11.022  10.941
84951SOL    HW256687   4.624  11.135  10.842
84952SOL     OW56688  11.337   2.698  12.868
84952SOL    HW156689  11.361   2.754  12.942
84952SOL    HW256690  11.241   2.697  12.869
84953SOL     OW56691  12.513   0.346   2.168
84953SOL    HW156692  12.522   0.440   2.148
84953SOL    HW256693  12.443   0.316   2.110
84954SOL     OW56694   0.352   8.721  10.047
84954SOL    HW156695   0.444   8.696  10.056
84954SOL    HW256696   0.354   8.811  10.015
84955SOL     OW56697   7.128   4.833   3.810
84955SOL    HW156698   7.073   4.761   3.841
84955SOL    HW256699   7.131   4.821   3.715
84956SOL     OW56700   0.663   2.864   5.391
84956SOL    HW156701   0.739   2.812   5.364
84956SOL    HW256702   0.676   2.877   5.485
84957SOL     OW56703   4.912  10.405   0.747
84957SOL    HW156704   4.861  10.381   0.824
84957SOL    HW256705   4.971  10.474   0.778
84958SOL     OW56706  13.256  13.502   4.295
84958SOL    HW156707  13.280  13.420   4.338
84958SOL    HW256708  13.174  13.528   4.338
84959SOL     OW56709   1.039  10.923   7.165
84959SOL    HW156710   1.038  10.865   7.089
84959SOL    HW256711   0.952  10.914   7.204
84960SOL     OW56712   3.590   0.687  11.211
84960SOL    HW156713   3.531   0.721  11.278
84960SOL    HW256714   3.675   0.678  11.256
84961SOL     OW56715   7.167  12.330  13.057
84961SOL    HW156716   7.086  12.302  13.099
84961SOL    HW256717   7.141  12.354  12.968
84962SOL     OW56718   1.415   8.749  13.803
84962SOL    HW156719   1.416   8.822  13.742
84962SOL    HW256720   1.324   8.719  13.803
84963SOL     OW56721   4.127  13.147   3.358
84963SOL    HW156722   4.211  13.152   3.312
84963SOL    HW256723   4.094  13.059   3.338
84964SOL     OW56724   6.108   5.213   4.163
84964SOL    HW156725   6.118   5.144   4.097
84964SOL    HW256726   6.161   5.184   4.237
84965SOL     OW56727   9.750   3.596   5.504
84965SOL    HW156728   9.719   3.658   5.438
84965SOL    HW256729   9.739   3.510   5.464
84966SOL     OW56730   4.944   5.384  13.839
84966SOL    HW156731   5.018   5.363  13.782
84966SOL    HW256732   4.874   5.326  13.808
84967SOL     OW56733  11.138   8.484  13.945
84967SOL    HW156734  11.205   8.437  13.895
84967SOL    HW256735  11.132   8.437  14.028
84968SOL     OW56736  11.754  13.843   4.711
84968SOL    HW156737  11.675  13.811   4.668
84968SOL    HW256738  11.807  13.764   4.724
84969SOL     OW56739  10.348   0.550   2.107
84969SOL    HW156740  10.309   0.525   2.023
84969SOL    HW256741  10.385   0.468   2.141
84970SOL     OW56742  12.529  14.141   7.913
84970SOL    HW156743  12.459  14.140   7.849
84970SOL    HW256744  12.607  14.167   7.864
84971SOL     OW56745   5.547   4.752  11.373
84971SOL    HW156746   5.589   4.807  11.307
84971SOL    HW256747   5.515   4.814  11.439
84972SOL     OW56748   6.022   8.567  11.962
84972SOL    HW156749   5.974   8.569  12.045
84972SOL    HW256750   5.954   8.558  11.895
84973SOL     OW56751  10.458  10.828  11.254
84973SOL    HW156752  10.541  10.782  11.244
84973SOL    HW256753  10.397  10.761  11.287
84974SOL     OW56754   7.914  11.588  13.432
84974SOL    HW156755   7.979  11.539  13.383
84974SOL    HW256756   7.930  11.680  13.409
84975SOL     OW56757   2.951   5.159   6.216
84975SOL    HW156758   3.044   5.170   6.195
84975SOL    HW256759   2.950   5.086   6.278
84976SOL     OW56760   0.772   3.530   7.536
84976SOL    HW156761   0.774   3.465   7.466
84976SOL    HW256762   0.837   3.595   7.510
84977SOL     OW56763   6.862   3.897  10.794
84977SOL    HW156764   6.903   3.926  10.876
84977SOL    HW256765   6.935   3.891  10.732
84978SOL     OW56766   8.364   9.427   3.440
84978SOL    HW156767   8.407   9.356   3.488
84978SOL    HW256768   8.306   9.383   3.378
84979SOL     OW56769   5.718   1.606   4.981
84979SOL    HW156770   5.662   1.618   4.904
84979SOL    HW256771   5.677   1.661   5.048
84980SOL     OW56772   7.311  12.704   1.108
84980SOL    HW156773   7.401  12.672   1.107
84980SOL    HW256774   7.292  12.717   1.201
84981SOL     OW56775   4.658   3.130   2.300
84981SOL    HW156776   4.636   3.051   2.250
84981SOL    HW256777   4.730   3.102   2.357
84982SOL     OW56778   1.193   1.607   7.255
84982SOL    HW156779   1.099   1.586   7.256
84982SOL    HW256780   1.197   1.698   7.226
84983SOL     OW56781   3.279   5.982   2.395
84983SOL    HW156782   3.372   5.975   2.374
84983SOL    HW256783   3.234   5.952   2.316
84984SOL     OW56784   5.330   9.699   5.853
84984SOL    HW156785   5.293   9.757   5.920
84984SOL    HW256786   5.424   9.713   5.857
84985SOL     OW56787   8.249   4.589  12.197
84985SOL    HW156788   8.306   4.544  12.134
84985SOL    HW256789   8.239   4.677  12.160
84986SOL     OW56790   6.862   1.463  11.927
84986SOL    HW156791   6.925   1.535  11.925
84986SOL    HW256792   6.863   1.432  12.017
84987SOL     OW56793  12.123  10.187  11.665
84987SOL    HW156794  12.177  10.264  11.646
84987SOL    HW256795  12.054  10.190  11.598
84988SOL     OW56796   9.506   7.606   0.724
84988SOL    HW156797   9.492   7.654   0.642
84988SOL    HW256798   9.429   7.550   0.733
84989SOL     OW56799   1.903  11.345   3.470
84989SOL    HW156800   1.955  11.408   3.520
84989SOL    HW256801   1.940  11.347   3.382
84990SOL     OW56802   9.678  11.066   2.054
84990SOL    HW156803   9.717  11.090   1.970
84990SOL    HW256804   9.719  10.983   2.077
84991SOL     OW56805  11.768   6.719   5.357
84991SOL    HW156806  11.847   6.712   5.304
84991SOL    HW256807  11.793   6.774   5.431
84992SOL     OW56808   4.798  14.117  13.456
84992SOL    HW156809   4.721  14.171  13.476
84992SOL    HW256810   4.804  14.120  13.360
84993SOL     OW56811   3.244   1.131   2.773
84993SOL    HW156812   3.159   1.124   2.730
84993SOL    HW256813   3.306   1.096   2.709
84994SOL     OW56814  10.160  12.239  13.810
84994SOL    HW156815  10.234  12.192  13.772
84994SOL    HW256816  10.200  12.302  13.869
84995SOL     OW56817  11.039   8.368   1.000
84995SOL    HW156818  11.059   8.406   1.085
84995SOL    HW256819  11.088   8.421   0.937
84996SOL     OW56820   5.620   2.863   3.852
84996SOL    HW156821   5.566   2.926   3.900
84996SOL    HW256822   5.618   2.784   3.905
84997SOL     OW56823  14.142   0.994   2.722
84997SOL    HW156824  14.054   0.968   2.696
84997SOL    HW256825  14.138   0.997   2.818
84998SOL     OW56826   8.767  11.652   3.459
84998SOL    HW156827   8.796  11.567   3.493
84998SOL    HW256828   8.758  11.637   3.364
84999SOL     OW56829   0.975   6.143  13.712
84999SOL    HW156830   0.988   6.163  13.804
84999SOL    HW256831   0.956   6.227  13.670
85000SOL     OW56832   9.858   8.185   9.860
85000SOL    HW156833   9.788   8.130   9.897
85000SOL    HW256834   9.906   8.217   9.936
85001SOL     OW56835   7.111   2.476   0.775
85001SOL    HW156836   7.146   2.527   0.848
85001SOL    HW256837   7.113   2.386   0.807
85002SOL     OW56838  12.026   8.169   2.374
85002SOL    HW156839  12.000   8.253   2.413
85002SOL    HW256840  12.119   8.163   2.392
85003SOL     OW56841   9.392   6.437   9.079
85003SOL    HW156842   9.332   6.373   9.042
85003SOL    HW256843   9.359   6.453   9.168
85004SOL     OW56844   2.834  12.939  11.075
85004SOL    HW156845   2.925  12.947  11.104
85004SOL    HW256846   2.828  12.851  11.037
85005SOL     OW56847   7.140  12.207  11.406
85005SOL    HW156848   7.050  12.189  11.379
85005SOL    HW256849   7.170  12.275  11.345
85006SOL     OW56850   1.023   3.516   0.285
85006SOL    HW156851   0.998   3.546   0.198
85006SOL    HW256852   1.116   3.537   0.292
85007SOL     OW56853   8.359  13.503   3.501
85007SOL    HW156854   8.360  13.584   3.450
85007SOL    HW256855   8.364  13.433   3.436
85008SOL     OW56856   1.758   3.824  12.710
85008SOL    HW156857   1.837   3.802  12.661
85008SOL    HW256858   1.709   3.881  12.651
85009SOL     OW56859   6.629   7.461   7.560
85009SOL    HW156860   6.601   7.429   7.474
85009SOL    HW256861   6.715   7.421   7.573
85010SOL     OW56862   6.341   7.836   1.814
85010SOL    HW156863   6.286   7.846   1.893
85010SOL    HW256864   6.311   7.754   1.775
85011SOL     OW56865  14.349   8.725   9.510
85011SOL    HW156866  14.402   8.680   9.445
85011SOL    HW256867  14.328   8.657   9.575
85012SOL     OW56868  12.001  10.893  14.532
85012SOL    HW156869  12.073  10.837  14.504
85012SOL    HW256870  12.026  10.922  14.620
85013SOL     OW56871   1.425  10.581   5.401
85013SOL    HW156872   1.420  10.582   5.497
85013SOL    HW256873   1.485  10.509   5.381
85014SOL     OW56874   7.483   5.598   6.982
85014SOL    HW156875   7.493   5.676   7.037
85014SOL    HW256876   7.510   5.525   7.038
85015SOL     OW56877  13.337   2.491  10.647
85015SOL    HW156878  13.366   2.522  10.561
85015SOL    HW256879  13.242   2.503  10.646
85016SOL     OW56880   0.480   7.899  11.168
85016SOL    HW156881   0.429   7.949  11.232
85016SOL    HW256882   0.417   7.837  11.131
85017SOL     OW56883  11.975  10.000  14.655
85017SOL    HW156884  11.939   9.917  14.625
85017SOL    HW256885  11.924  10.023  14.732
85018SOL     OW56886   5.722  11.789  11.906
85018SOL    HW156887   5.755  11.734  11.835
85018SOL    HW256888   5.721  11.730  11.982
85019SOL     OW56889   0.394   6.290   3.757
85019SOL    HW156890   0.366   6.320   3.843
85019SOL    HW256891   0.325   6.230   3.729
85020SOL     OW56892  11.279   1.933   1.639
85020SOL    HW156893  11.355   1.954   1.585
85020SOL    HW256894  11.267   1.839   1.628
85021SOL     OW56895   9.091   5.902  11.233
85021SOL    HW156896   9.182   5.933  11.233
85021SOL    HW256897   9.045   5.965  11.288
85022SOL     OW56898  13.077   3.856   5.945
85022SOL    HW156899  13.067   3.792   5.875
85022SOL    HW256900  13.026   3.932   5.917
85023SOL     OW56901  13.519  11.213   5.150
85023SOL    HW156902  13.604  11.223   5.192
85023SOL    HW256903  13.513  11.119   5.129
85024SOL     OW56904   0.287   1.393   3.301
85024SOL    HW156905   0.327   1.391   3.387
85024SOL    HW256906   0.202   1.436   3.316
85025SOL     OW56907   9.921   0.469   1.804
85025SOL    HW156908   9.885   0.421   1.729
85025SOL    HW256909   9.899   0.414   1.879
85026SOL     OW56910   9.432   6.852   8.939
85026SOL    HW156911   9.517   6.873   8.899
85026SOL    HW256912   9.416   6.924   9.000
85027SOL     OW56913  14.286   6.342   3.223
85027SOL    HW156914  14.269   6.398   3.148
85027SOL    HW256915  14.267   6.253   3.191
85028SOL     OW56916   1.440   1.358  11.022
85028SOL    HW156917   1.437   1.292  11.092
85028SOL    HW256918   1.402   1.313  10.946
85029SOL     OW56919   8.961  12.468   7.837
85029SOL    HW156920   8.973  12.517   7.919
85029SOL    HW256921   9.006  12.521   7.771
85030SOL     OW56922  10.997   0.717  14.000
85030SOL    HW156923  11.024   0.640  14.049
85030SOL    HW256924  10.976   0.782  14.067
85031SOL     OW56925   0.579   2.974  12.774
85031SOL    HW156926   0.492   3.009  12.757
85031SOL    HW256927   0.564   2.885  12.804
85032SOL     OW56928   0.717  12.328   2.516
85032SOL    HW156929   0.672  12.405   2.483
85032SOL    HW256930   0.725  12.342   2.610
85033SOL     OW56931   6.153  10.614   5.155
85033SOL    HW156932   6.215  10.599   5.084
85033SOL    HW256933   6.179  10.698   5.193
85034SOL     OW56934  10.995   4.994   9.320
85034SOL    HW156935  10.928   4.939   9.361
85034SOL    HW256936  11.069   4.991   9.380
85035SOL     OW56937   3.276  12.934   2.100
85035SOL    HW156938   3.214  12.863   2.117
85035SOL    HW256939   3.293  12.972   2.186
85036SOL     OW56940  13.769   9.456   7.846
85036SOL    HW156941  13.851   9.450   7.797
85036SOL    HW256942  13.781   9.534   7.901
85037SOL     OW56943  14.495   4.843   1.991
85037SOL    HW156944  14.563   4.823   2.055
85037SOL    HW256945  14.455   4.758   1.971
85038SOL     OW56946   0.920  13.103  12.791
85038SOL    HW156947   0.838  13.058  12.810
85038SOL    HW256948   0.980  13.072  12.859
85039SOL     OW56949   6.265  12.292   4.828
85039SOL    HW156950   6.291  12.342   4.906
85039SOL    HW256951   6.344  12.245   4.801
85040SOL     OW56952  12.348   1.899  14.643
85040SOL    HW156953  12.378   1.810  14.624
85040SOL    HW256954  12.285   1.917  14.573
85041SOL     OW56955   7.093  11.683  10.182
85041SOL    HW156956   7.059  11.620  10.118
85041SOL    HW256957   7.073  11.769  10.145
85042SOL     OW56958   7.457   3.677  11.248
85042SOL    HW156959   7.422   3.744  11.190
85042SOL    HW256960   7.483   3.606  11.190
85043SOL     OW56961  13.427  13.425   4.080
85043SOL    HW156962  13.348  13.391   4.038
85043SOL    HW256963  13.395  13.467   4.160
85044SOL     OW56964   5.582   6.526   9.658
85044SOL    HW156965   5.525   6.598   9.630
85044SOL    HW256966   5.666   6.568   9.677
85045SOL     OW56967  13.643  12.734  14.555
85045SOL    HW156968  13.641  12.640  14.539
85045SOL    HW256969  13.587  12.745  14.632
85046SOL     OW56970   9.421   6.651  11.225
85046SOL    HW156971   9.437   6.676  11.316
85046SOL    HW256972   9.459   6.564  11.217
85047SOL     OW56973   8.397   8.057  11.364
85047SOL    HW156974   8.340   7.989  11.326
85047SOL    HW256975   8.344   8.137  11.359
85048SOL     OW56976   7.990  10.969  12.934
85048SOL    HW156977   7.948  11.055  12.942
85048SOL    HW256978   7.992  10.936  13.024
85049SOL     OW56979   0.713  11.761  11.209
85049SOL    HW156980   0.659  11.836  11.184
85049SOL    HW256981   0.659  11.714  11.272
85050SOL     OW56982  11.318   1.512   5.603
85050SOL    HW156983  11.234   1.554   5.585
85050SOL    HW256984  11.344   1.544   5.689
85051SOL     OW56985  10.881  12.067   6.206
85051SOL    HW156986  10.911  11.976   6.199
85051SOL    HW256987  10.786  12.060   6.212
85052SOL     OW56988   8.107  10.274   7.087
85052SOL    HW156989   8.146  10.219   7.019
85052SOL    HW256990   8.128  10.230   7.169
85053SOL     OW56991   7.854   4.972  12.250
85053SOL    HW156992   7.913   4.910  12.206
85053SOL    HW256993   7.769   4.928  12.250
85054SOL     OW56994   4.088  12.518  10.246
85054SOL    HW156995   3.997  12.540  10.265
85054SOL    HW256996   4.088  12.494  10.153
85055SOL     OW56997   3.013   4.368   6.758
85055SOL    HW156998   2.958   4.325   6.823
85055SOL    HW256999   2.986   4.459   6.759
85056SOL     OW57000  12.022   3.192   1.327
85056SOL    HW157001  12.047   3.104   1.353
85056SOL    HW257002  12.056   3.201   1.238
85057SOL     OW57003   9.463   1.905  12.612
85057SOL    HW157004   9.384   1.882  12.562
85057SOL    HW257005   9.436   1.979  12.665
85058SOL     OW57006   0.940  12.837   5.883
85058SOL    HW157007   0.877  12.907   5.863
85058SOL    HW257008   1.021  12.866   5.842
85059SOL     OW57009   4.286   9.375   8.879
85059SOL    HW157010   4.249   9.307   8.936
85059SOL    HW257011   4.245   9.456   8.910
85060SOL     OW57012   4.173   6.973   0.955
85060SOL    HW157013   4.224   7.047   0.923
85060SOL    HW257014   4.227   6.897   0.938
85061SOL     OW57015   4.499   1.282  12.234
85061SOL    HW157016   4.462   1.285  12.322
85061SOL    HW257017   4.521   1.190  12.220
85062SOL     OW57018   0.667   2.251  14.843
85062SOL    HW157019   0.738   2.192  14.818
85062SOL    HW257020   0.656   2.236   0.065
85063SOL     OW57021   8.878   7.439  14.728
85063SOL    HW157022   8.882   7.351  14.765
85063SOL    HW257023   8.919   7.430  14.642
85064SOL     OW57024   1.908   6.520  13.738
85064SOL    HW157025   1.869   6.574  13.669
85064SOL    HW257026   1.959   6.582  13.791
85065SOL     OW57027   5.410  10.581   8.806
85065SOL    HW157028   5.316  10.600   8.812
85065SOL    HW257029   5.417  10.488   8.828
85066SOL     OW57030   7.736   4.346   7.798
85066SOL    HW157031   7.814   4.401   7.805
85066SOL    HW257032   7.678   4.394   7.739
85067SOL     OW57033   2.641   9.695   5.850
85067SOL    HW157034   2.589   9.615   5.843
85067SOL    HW257035   2.677   9.708   5.762
85068SOL     OW57036  13.917   9.789   4.102
85068SOL    HW157037  13.999   9.785   4.053
85068SOL    HW257038  13.862   9.849   4.051
85069SOL     OW57039   8.440   8.235   9.631
85069SOL    HW157040   8.462   8.227   9.724
85069SOL    HW257041   8.405   8.323   9.622
85070SOL     OW57042  13.786  13.521  14.575
85070SOL    HW157043  13.874  13.520  14.537
85070SOL    HW257044  13.779  13.437  14.621
85071SOL     OW57045   9.094  10.357  12.101
85071SOL    HW157046   9.048  10.335  12.020
85071SOL    HW257047   9.024  10.380  12.163
85072SOL     OW57048  12.775   7.752  11.957
85072SOL    HW157049  12.734   7.823  11.908
85072SOL    HW257050  12.851   7.727  11.904
85073SOL     OW57051  10.771   0.084   4.429
85073SOL    HW157052  10.778   0.082   4.334
85073SOL    HW257053  10.700   0.145   4.447
85074SOL     OW57054   5.210  12.141   9.300
85074SOL    HW157055   5.194  12.051   9.329
85074SOL    HW257056   5.126  12.171   9.267
85075SOL     OW57057   1.376   7.884  14.600
85075SOL    HW157058   1.428   7.900  14.521
85075SOL    HW257059   1.314   7.957  14.602
85076SOL     OW57060   1.171   3.619  14.020
85076SOL    HW157061   1.249   3.594  14.069
85076SOL    HW257062   1.173   3.715  14.017
85077SOL     OW57063   9.582   1.267  14.092
85077SOL    HW157064   9.527   1.281  14.014
85077SOL    HW257065   9.577   1.172  14.108
85078SOL     OW57066  13.579   9.172   2.860
85078SOL    HW157067  13.496   9.156   2.905
85078SOL    HW257068  13.614   9.250   2.902
85079SOL     OW57069   5.370   9.642  11.585
85079SOL    HW157070   5.369   9.659  11.491
85079SOL    HW257071   5.386   9.548  11.591
85080SOL     OW57072   3.385   1.744  10.876
85080SOL    HW157073   3.465   1.698  10.851
85080SOL    HW257074   3.414   1.831  10.904
85081SOL     OW57075   9.416   8.360   2.174
85081SOL    HW157076   9.477   8.286   2.178
85081SOL    HW257077   9.467   8.431   2.134
85082SOL     OW57078   3.925   3.333   7.151
85082SOL    HW157079   4.017   3.306   7.158
85082SOL    HW257080   3.924   3.422   7.187
85083SOL     OW57081   7.787   4.094   2.573
85083SOL    HW157082   7.719   4.052   2.625
85083SOL    HW257083   7.768   4.068   2.482
85084SOL     OW57084   1.403   3.909   4.545
85084SOL    HW157085   1.489   3.950   4.550
85084SOL    HW257086   1.398   3.874   4.456
85085SOL     OW57087  12.395   7.728   1.300
85085SOL    HW157088  12.378   7.705   1.209
85085SOL    HW257089  12.399   7.823   1.301
85086SOL     OW57090  12.335   8.541   8.213
85086SOL    HW157091  12.268   8.599   8.177
85086SOL    HW257092  12.399   8.531   8.142
85087SOL     OW57093  10.138  10.356   6.763
85087SOL    HW157094  10.053  10.345   6.720
85087SOL    HW257095  10.174  10.436   6.725
85088SOL     OW57096   2.749   4.338  11.422
85088SOL    HW157097   2.722   4.252  11.453
85088SOL    HW257098   2.844   4.332  11.414
85089SOL     OW57099   9.543  12.202   6.677
85089SOL    HW157100   9.460  12.221   6.634
85089SOL    HW257101   9.532  12.237   6.766
85090SOL     OW57102   1.804   4.532  12.727
85090SOL    HW157103   1.878   4.588  12.705
85090SOL    HW257104   1.755   4.580  12.794
85091SOL     OW57105   4.577   7.961  12.601
85091SOL    HW157106   4.521   7.886  12.617
85091SOL    HW257107   4.613   7.947  12.514
85092SOL     OW57108   3.875   6.197   8.728
85092SOL    HW157109   3.940   6.185   8.658
85092SOL    HW257110   3.919   6.255   8.791
85093SOL     OW57111   3.959  10.239  13.829
85093SOL    HW157112   3.977  10.185  13.906
85093SOL    HW257113   3.964  10.329  13.862
85094SOL     OW57114  10.785  10.220   3.856
85094SOL    HW157115  10.719  10.216   3.788
85094SOL    HW257116  10.855  10.274   3.819
85095SOL     OW57117   1.484  12.104   0.029
85095SOL    HW157118   1.450  12.162  14.834
85095SOL    HW257119   1.470  12.151   0.111
85096SOL     OW57120   3.652   7.568   5.093
85096SOL    HW157121   3.643   7.597   5.184
85096SOL    HW257122   3.645   7.473   5.098
85097SOL     OW57123  14.390  10.324  11.125
85097SOL    HW157124  14.368  10.237  11.091
85097SOL    HW257125  14.431  10.368  11.051
85098SOL     OW57126   9.589  12.849   6.674
85098SOL    HW157127   9.669  12.837   6.725
85098SOL    HW257128   9.519  12.851   6.739
85099SOL     OW57129   7.445   1.895  12.051
85099SOL    HW157130   7.400   1.950  12.114
85099SOL    HW257131   7.445   1.808  12.091
85100SOL     OW57132  11.397  14.254   3.402
85100SOL    HW157133  11.397  14.251   3.498
85100SOL    HW257134  11.306  14.233   3.378
85101SOL     OW57135   6.834   5.679   0.708
85101SOL    HW157136   6.760   5.621   0.726
85101SOL    HW257137   6.852   5.722   0.792
85102SOL     OW57138  11.196  10.718   5.972
85102SOL    HW157139  11.236  10.640   5.935
85102SOL    HW257140  11.234  10.724   6.060
85103SOL     OW57141   9.719  11.548   4.497
85103SOL    HW157142   9.782  11.477   4.496
85103SOL    HW257143   9.687  11.551   4.588
85104SOL     OW57144   3.830   0.106  13.821
85104SOL    HW157145   3.814   0.079  13.911
85104SOL    HW257146   3.757   0.165  13.801
85105SOL     OW57147   5.731   7.750   9.772
85105SOL    HW157148   5.657   7.810   9.784
85105SOL    HW257149   5.760   7.767   9.683
85106SOL     OW57150   7.228   7.931   6.876
85106SOL    HW157151   7.272   7.888   6.803
85106SOL    HW257152   7.143   7.957   6.841
85107SOL     OW57153   5.100   6.995   6.568
85107SOL    HW157154   5.065   7.041   6.492
85107SOL    HW257155   5.142   6.917   6.531
85108SOL     OW57156  13.729   1.127   3.125
85108SOL    HW157157  13.655   1.173   3.165
85108SOL    HW257158  13.780   1.196   3.083
85109SOL     OW57159   8.166   7.276   1.295
85109SOL    HW157160   8.241   7.220   1.277
85109SOL    HW257161   8.123   7.236   1.370
85110SOL     OW57162   6.586  14.210   5.203
85110SOL    HW157163   6.491  14.212   5.203
85110SOL    HW257164   6.609  14.129   5.157
85111SOL     OW57165   3.287  10.975   7.648
85111SOL    HW157166   3.360  10.948   7.592
85111SOL    HW257167   3.317  10.957   7.737
85112SOL     OW57168   8.560   2.275   9.633
85112SOL    HW157169   8.569   2.275   9.728
85112SOL    HW257170   8.616   2.204   9.603
85113SOL     OW57171   9.862  11.510   1.069
85113SOL    HW157172   9.780  11.461   1.071
85113SOL    HW257173   9.836  11.600   1.052
85114SOL     OW57174   9.735   5.128   7.217
85114SOL    HW157175   9.787   5.108   7.139
85114SOL    HW257176   9.733   5.224   7.220
85115SOL     OW57177  14.625   7.286  13.534
85115SOL    HW157178  14.644   7.374  13.567
85115SOL    HW257179  14.638   7.228  13.609
85116SOL     OW57180   7.107   9.174   0.736
85116SOL    HW157181   7.186   9.131   0.704
85116SOL    HW257182   7.039   9.106   0.730
85117SOL     OW57183   1.591   5.546  11.934
85117SOL    HW157184   1.665   5.497  11.969
85117SOL    HW257185   1.569   5.609  12.002
85118SOL     OW57186   0.976   7.423   0.428
85118SOL    HW157187   1.004   7.335   0.404
85118SOL    HW257188   1.010   7.479   0.358
85119SOL     OW57189   4.044   7.008   3.640
85119SOL    HW157190   4.062   7.032   3.549
85119SOL    HW257191   4.030   7.092   3.684
85120SOL     OW57192   9.542  11.913   9.573
85120SOL    HW157193   9.520  11.963   9.652
85120SOL    HW257194   9.627  11.874   9.593
85121SOL     OW57195   6.814   7.092   8.703
85121SOL    HW157196   6.794   7.065   8.613
85121SOL    HW257197   6.728   7.103   8.744
85122SOL     OW57198  11.681  12.968   8.250
85122SOL    HW157199  11.728  12.965   8.167
85122SOL    HW257200  11.703  13.054   8.287
85123SOL     OW57201  14.630   4.206   0.225
85123SOL    HW157202  14.638   4.212   0.130
85123SOL    HW257203  14.647   4.114   0.245
85124SOL     OW57204   9.255  13.848  13.416
85124SOL    HW157205   9.212  13.820  13.335
85124SOL    HW257206   9.344  13.872  13.389
85125SOL     OW57207  12.509  13.333  10.236
85125SOL    HW157208  12.460  13.361  10.158
85125SOL    HW257209  12.510  13.237  10.230
85126SOL     OW57210   8.321  13.655   2.969
85126SOL    HW157211   8.376  13.582   2.944
85126SOL    HW257212   8.269  13.623   3.042
85127SOL     OW57213   3.800   3.867   7.795
85127SOL    HW157214   3.729   3.898   7.739
85127SOL    HW257215   3.758   3.805   7.855
85128SOL     OW57216  11.343   8.688  13.934
85128SOL    HW157217  11.354   8.719  14.025
85128SOL    HW257218  11.269   8.628  13.938
85129SOL     OW57219   2.356   1.840   7.770
85129SOL    HW157220   2.279   1.878   7.728
85129SOL    HW257221   2.334   1.837   7.863
85130SOL     OW57222   5.856   0.036   6.391
85130SOL    HW157223   5.879   0.088   6.467
85130SOL    HW257224   5.902  14.826   6.402
85131SOL     OW57225   0.912  12.774   4.802
85131SOL    HW157226   0.865  12.840   4.852
85131SOL    HW257227   0.897  12.798   4.711
85132SOL     OW57228   4.384  11.676   3.283
85132SOL    HW157229   4.420  11.760   3.312
85132SOL    HW257230   4.326  11.649   3.354
85133SOL     OW57231   1.996   5.241  13.378
85133SOL    HW157232   1.923   5.185  13.351
85133SOL    HW257233   1.956   5.311  13.429
85134SOL     OW57234   8.052  10.722  13.741
85134SOL    HW157235   8.120  10.726  13.808
85134SOL    HW257236   8.044  10.628  13.722
85135SOL     OW57237   4.511   3.934   8.761
85135SOL    HW157238   4.482   3.908   8.673
85135SOL    HW257239   4.586   3.991   8.746
85136SOL     OW57240  10.193  14.656  10.570
85136SOL    HW157241  10.103  14.685  10.586
85136SOL    HW257242  10.194  14.564  10.598
85137SOL     OW57243  12.957   4.016   8.126
85137SOL    HW157244  13.024   3.964   8.082
85137SOL    HW257245  12.925   4.076   8.058
85138SOL     OW57246  12.793   0.552   5.302
85138SOL    HW157247  12.730   0.530   5.369
85138SOL    HW257248  12.747   0.537   5.219
85139SOL     OW57249   5.636   3.098   4.430
85139SOL    HW157250   5.580   3.021   4.418
85139SOL    HW257251   5.608   3.159   4.362
85140SOL     OW57252  13.069   9.366   2.187
85140SOL    HW157253  13.022   9.408   2.260
85140SOL    HW257254  13.001   9.323   2.137
85141SOL     OW57255   8.040   9.122   4.137
85141SOL    HW157256   8.129   9.109   4.104
85141SOL    HW257257   7.997   9.037   4.127
85142SOL     OW57258   2.142   3.068  11.368
85142SOL    HW157259   2.110   3.158  11.359
85142SOL    HW257260   2.162   3.058  11.461
85143SOL     OW57261   8.090   6.668  10.580
85143SOL    HW157262   8.047   6.718  10.511
85143SOL    HW257263   8.137   6.599  10.534
85144SOL     OW57264   9.277   1.587   8.258
85144SOL    HW157265   9.214   1.611   8.190
85144SOL    HW257266   9.357   1.634   8.233
85145SOL     OW57267   0.786   0.326   8.791
85145SOL    HW157268   0.717   0.297   8.851
85145SOL    HW257269   0.750   0.405   8.750
85146SOL     OW57270   8.397  11.225   9.095
85146SOL    HW157271   8.375  11.132   9.099
85146SOL    HW257272   8.492  11.227   9.104
85147SOL     OW57273  13.090   8.128  12.470
85147SOL    HW157274  13.044   8.200  12.512
85147SOL    HW257275  13.170   8.167  12.436
85148SOL     OW57276   6.356  14.403   0.295
85148SOL    HW157277   6.380  14.492   0.321
85148SOL    HW257278   6.328  14.411   0.204
85149SOL     OW57279   6.144   3.064  10.065
85149SOL    HW157280   6.084   2.990  10.054
85149SOL    HW257281   6.125   3.098  10.152
85150SOL     OW57282  13.592   2.754   7.808
85150SOL    HW157283  13.643   2.776   7.730
85150SOL    HW257284  13.502   2.780   7.786
85151SOL     OW57285   9.985   8.690   5.332
85151SOL    HW157286   9.976   8.601   5.298
85151SOL    HW257287   9.932   8.744   5.273
85152SOL     OW57288  13.080   7.425  10.734
85152SOL    HW157289  13.041   7.339  10.718
85152SOL    HW257290  13.144   7.436  10.664
85153SOL     OW57291   4.403   8.078  10.272
85153SOL    HW157292   4.443   8.125  10.198
85153SOL    HW257293   4.408   8.140  10.345
85154SOL     OW57294   5.820  14.051   2.816
85154SOL    HW157295   5.733  14.072   2.849
85154SOL    HW257296   5.819  13.957   2.802
85155SOL     OW57297   1.351   6.937  12.470
85155SOL    HW157298   1.398   6.865  12.513
85155SOL    HW257299   1.404   6.957  12.392
85156SOL     OW57300  14.020  11.108  14.071
85156SOL    HW157301  14.034  11.146  13.984
85156SOL    HW257302  13.925  11.103  14.080
85157SOL     OW57303   2.653   0.238   6.427
85157SOL    HW157304   2.618   0.316   6.468
85157SOL    HW257305   2.649   0.171   6.495
85158SOL     OW57306  11.506  10.840   6.462
85158SOL    HW157307  11.582  10.836   6.520
85158SOL    HW257308  11.524  10.777   6.393
85159SOL     OW57309   5.544   6.020   7.210
85159SOL    HW157310   5.592   5.958   7.266
85159SOL    HW257311   5.610   6.084   7.184
85160SOL     OW57312   4.585   1.603  11.262
85160SOL    HW157313   4.623   1.665  11.200
85160SOL    HW257314   4.638   1.611  11.340
85161SOL     OW57315   5.637   5.771   5.097
85161SOL    HW157316   5.621   5.831   5.170
85161SOL    HW257317   5.553   5.768   5.050
85162SOL     OW57318   3.773   7.536   1.976
85162SOL    HW157319   3.698   7.551   2.033
85162SOL    HW257320   3.767   7.604   1.909
85163SOL     OW57321   8.314   1.306   2.606
85163SOL    HW157322   8.285   1.262   2.527
85163SOL    HW257323   8.247   1.285   2.672
85164SOL     OW57324  10.635   8.580   0.554
85164SOL    HW157325  10.604   8.594   0.643
85164SOL    HW257326  10.601   8.655   0.505
85165SOL     OW57327   1.467   8.005   7.557
85165SOL    HW157328   1.422   8.086   7.534
85165SOL    HW257329   1.433   7.983   7.644
85166SOL     OW57330   4.960  11.837   0.227
85166SOL    HW157331   4.978  11.837   0.133
85166SOL    HW257332   4.913  11.919   0.243
85167SOL     OW57333  11.123   5.631   1.965
85167SOL    HW157334  11.217   5.649   1.979
85167SOL    HW257335  11.079   5.696   2.020
85168SOL     OW57336   5.068   9.410   1.906
85168SOL    HW157337   5.128   9.404   1.832
85168SOL    HW257338   5.000   9.345   1.887
85169SOL     OW57339  10.741  11.382   1.266
85169SOL    HW157340  10.654  11.353   1.296
85169SOL    HW257341  10.775  11.434   1.339
85170SOL     OW57342   6.709  12.647   3.629
85170SOL    HW157343   6.655  12.609   3.698
85170SOL    HW257344   6.650  12.655   3.554
85171SOL     OW57345   9.281   5.795   7.832
85171SOL    HW157346   9.355   5.846   7.799
85171SOL    HW257347   9.293   5.795   7.927
85172SOL     OW57348  11.557  10.466   1.916
85172SOL    HW157349  11.476  10.415   1.922
85172SOL    HW257350  11.555  10.503   1.827
85173SOL     OW57351   2.786   3.457  12.707
85173SOL    HW157352   2.827   3.384  12.659
85173SOL    HW257353   2.698   3.426  12.725
85174SOL     OW57354   0.582   9.590   6.521
85174SOL    HW157355   0.589   9.503   6.558
85174SOL    HW257356   0.562   9.576   6.428
85175SOL     OW57357   0.471   4.607   9.718
85175SOL    HW157358   0.435   4.588   9.632
85175SOL    HW257359   0.555   4.650   9.700
85176SOL     OW57360  11.966   6.500   6.930
85176SOL    HW157361  11.974   6.560   7.004
85176SOL    HW257362  11.921   6.550   6.862
85177SOL     OW57363  13.738   8.175   1.950
85177SOL    HW157364  13.745   8.094   2.001
85177SOL    HW257365  13.670   8.156   1.885
85178SOL     OW57366  13.946   4.842   0.707
85178SOL    HW157367  13.946   4.747   0.692
85178SOL    HW257368  14.036   4.869   0.690
85179SOL     OW57369  10.110   9.387   0.835
85179SOL    HW157370  10.172   9.449   0.795
85179SOL    HW257371  10.095   9.321   0.767
85180SOL     OW57372  12.330   9.286   3.852
85180SOL    HW157373  12.332   9.256   3.761
85180SOL    HW257374  12.422   9.303   3.873
85181SOL     OW57375  10.997  12.133   9.636
85181SOL    HW157376  10.956  12.213   9.669
85181SOL    HW257377  11.056  12.162   9.566
85182SOL     OW57378   2.632   1.860   7.541
85182SOL    HW157379   2.671   1.898   7.463
85182SOL    HW257380   2.537   1.863   7.525
85183SOL     OW57381   4.076   3.115   5.262
85183SOL    HW157382   4.117   3.202   5.258
85183SOL    HW257383   4.006   3.120   5.197
85184SOL     OW57384   3.704  14.666   5.823
85184SOL    HW157385   3.619  14.657   5.866
85184SOL    HW257386   3.759  14.602   5.868
85185SOL     OW57387  10.878  14.039   7.818
85185SOL    HW157388  10.880  14.040   7.722
85185SOL    HW257389  10.786  14.053   7.840
85186SOL     OW57390  12.560   7.410   7.990
85186SOL    HW157391  12.613   7.440   7.917
85186SOL    HW257392  12.580   7.471   8.061
85187SOL     OW57393   6.921  12.483   9.561
85187SOL    HW157394   6.926  12.543   9.636
85187SOL    HW257395   6.961  12.402   9.593
85188SOL     OW57396   4.140   0.316   8.493
85188SOL    HW157397   4.049   0.308   8.522
85188SOL    HW257398   4.185   0.243   8.535
85189SOL     OW57399   6.302   4.264   3.770
85189SOL    HW157400   6.221   4.300   3.806
85189SOL    HW257401   6.369   4.329   3.790
85190SOL     OW57402   9.120   8.725   5.285
85190SOL    HW157403   9.047   8.740   5.345
85190SOL    HW257404   9.079   8.725   5.198
85191SOL     OW57405  10.851   4.560   2.403
85191SOL    HW157406  10.800   4.639   2.385
85191SOL    HW257407  10.802   4.517   2.473
85192SOL     OW57408   5.667  12.921   2.860
85192SOL    HW157409   5.612  12.983   2.811
85192SOL    HW257410   5.645  12.939   2.952
85193SOL     OW57411  12.982   1.400   2.605
85193SOL    HW157412  13.018   1.324   2.561
85193SOL    HW257413  12.907   1.365   2.654
85194SOL     OW57414  10.687  12.220  14.663
85194SOL    HW157415  10.777  12.193  14.680
85194SOL    HW257416  10.633  12.163  14.718
85195SOL     OW57417   9.341   6.065   6.081
85195SOL    HW157418   9.337   5.994   6.017
85195SOL    HW257419   9.368   6.022   6.162
85196SOL     OW57420   3.369  12.849  11.877
85196SOL    HW157421   3.340  12.899  11.800
85196SOL    HW257422   3.464  12.848  11.870
85197SOL     OW57423   3.878   2.433  13.038
85197SOL    HW157424   3.845   2.522  13.035
85197SOL    HW257425   3.909   2.416  12.949
85198SOL     OW57426  11.096   9.445  14.414
85198SOL    HW157427  11.085   9.537  14.389
85198SOL    HW257428  11.020   9.401  14.376
85199SOL     OW57429  14.607   1.623   1.225
85199SOL    HW157430  14.608   1.683   1.299
85199SOL    HW257431  14.532   1.566   1.241
85200SOL     OW57432  10.132   4.377  10.358
85200SOL    HW157433  10.061   4.317  10.337
85200SOL    HW257434  10.138   4.434  10.281
85201SOL     OW57435   5.631  12.704   4.001
85201SOL    HW157436   5.648  12.798   4.004
85201SOL    HW257437   5.564  12.693   3.933
85202SOL     OW57438  14.156  10.408   6.840
85202SOL    HW157439  14.110  10.345   6.784
85202SOL    HW257440  14.190  10.355   6.912
85203SOL     OW57441  10.076  10.205  13.717
85203SOL    HW157442  10.015  10.144  13.676
85203SOL    HW257443  10.126  10.150  13.778
85204SOL     OW57444   7.888   3.907   1.225
85204SOL    HW157445   7.942   3.829   1.213
85204SOL    HW257446   7.815   3.896   1.164
85205SOL     OW57447  12.511  10.466   6.491
85205SOL    HW157448  12.503  10.413   6.571
85205SOL    HW257449  12.435  10.440   6.438
85206SOL     OW57450   5.417  10.888   3.126
85206SOL    HW157451   5.484  10.824   3.102
85206SOL    HW257452   5.343  10.867   3.068
85207SOL     OW57453  12.521   0.288   6.335
85207SOL    HW157454  12.607   0.271   6.297
85207SOL    HW257455  12.516   0.383   6.344
85208SOL     OW57456   9.681   9.054   9.858
85208SOL    HW157457   9.630   9.045   9.777
85208SOL    HW257458   9.618   9.037   9.928
85209SOL     OW57459  12.534   6.405  13.226
85209SOL    HW157460  12.593   6.339  13.262
85209SOL    HW257461  12.567   6.421  13.138
85210SOL     OW57462   3.744   8.207   4.902
85210SOL    HW157463   3.830   8.191   4.863
85210SOL    HW257464   3.701   8.121   4.902
85211SOL     OW57465   7.368   2.435  13.012
85211SOL    HW157466   7.438   2.431  13.078
85211SOL    HW257467   7.403   2.385  12.938
85212SOL     OW57468   2.516  12.403   6.944
85212SOL    HW157469   2.427  12.385   6.915
85212SOL    HW257470   2.544  12.323   6.987
85213SOL     OW57471  13.079  13.963   1.552
85213SOL    HW157472  13.060  14.006   1.468
85213SOL    HW257473  13.088  13.870   1.530
85214SOL     OW57474   9.659   8.812   3.506
85214SOL    HW157475   9.673   8.718   3.490
85214SOL    HW257476   9.621   8.816   3.593
85215SOL     OW57477   9.642  13.089   0.890
85215SOL    HW157478   9.649  13.085   0.794
85215SOL    HW257479   9.728  13.060   0.921
85216SOL     OW57480  14.764   0.822   6.482
85216SOL    HW157481  14.854   0.823   6.515
85216SOL    HW257482  14.730   0.909   6.503
85217SOL     OW57483  11.317  12.870   3.611
85217SOL    HW157484  11.362  12.787   3.627
85217SOL    HW257485  11.351  12.929   3.678
85218SOL     OW57486   6.151   0.566  11.616
85218SOL    HW157487   6.112   0.530  11.696
85218SOL    HW257488   6.175   0.656  11.640
85219SOL     OW57489   5.048   3.601   9.968
85219SOL    HW157490   5.020   3.675  10.022
85219SOL    HW257491   5.022   3.625   9.880
85220SOL     OW57492  14.727   1.393   9.870
85220SOL    HW157493  14.752   1.464   9.929
85220SOL    HW257494  14.797   1.328   9.879
85221SOL     OW57495  11.336  11.445   9.217
85221SOL    HW157496  11.257  11.446   9.164
85221SOL    HW257497  11.310  11.489   9.298
85222SOL     OW57498   0.683   1.969  14.227
85222SOL    HW157499   0.778   1.962  14.240
85222SOL    HW257500   0.662   2.057  14.255
85223SOL     OW57501   7.084   3.460   6.334
85223SOL    HW157502   7.079   3.426   6.245
85223SOL    HW257503   6.997   3.497   6.351
85224SOL     OW57504  12.463   2.271  14.556
85224SOL    HW157505  12.404   2.213  14.508
85224SOL    HW257506  12.471   2.232  14.643
85225SOL     OW57507  14.178   3.046   9.072
85225SOL    HW157508  14.149   3.103   9.001
85225SOL    HW257509  14.243   2.989   9.032
85226SOL     OW57510   2.993   3.516   1.463
85226SOL    HW157511   3.061   3.476   1.409
85226SOL    HW257512   2.968   3.595   1.416
85227SOL     OW57513  13.747  14.732   4.550
85227SOL    HW157514  13.759  14.756   4.642
85227SOL    HW257515  13.756  14.636   4.549
85228SOL     OW57516   0.134   2.573  10.539
85228SOL    HW157517   0.177   2.655  10.517
85228SOL    HW257518   0.051   2.575  10.490
85229SOL     OW57519   6.888   8.894   5.529
85229SOL    HW157520   6.859   8.985   5.519
85229SOL    HW257521   6.965   8.888   5.472
85230SOL     OW57522   7.590   0.025   8.050
85230SOL    HW157523   7.548  14.813   8.059
85230SOL    HW257524   7.675   0.015   8.094
85231SOL     OW57525   8.714   5.951  14.065
85231SOL    HW157526   8.804   5.961  14.095
85231SOL    HW257527   8.661   5.994  14.132
85232SOL     OW57528   0.605   2.045   7.314
85232SOL    HW157529   0.620   1.999   7.232
85232SOL    HW257530   0.666   2.006   7.376
85233SOL     OW57531   9.804   0.410  14.361
85233SOL    HW157532   9.774   0.397  14.451
85233SOL    HW257533   9.725   0.401  14.308
85234SOL     OW57534  13.945   6.016   3.901
85234SOL    HW157535  14.005   6.064   3.844
85234SOL    HW257536  13.945   5.927   3.865
85235SOL     OW57537   6.995   4.687   1.279
85235SOL    HW157538   6.954   4.604   1.303
85235SOL    HW257539   6.922   4.749   1.276
85236SOL     OW57540   1.792   9.680  12.671
85236SOL    HW157541   1.737   9.750  12.705
85236SOL    HW257542   1.751   9.599  12.704
85237SOL     OW57543  14.445  12.601   3.643
85237SOL    HW157544  14.430  12.664   3.572
85237SOL    HW257545  14.421  12.649   3.723
85238SOL     OW57546   6.034   0.645  13.707
85238SOL    HW157547   5.961   0.689  13.751
85238SOL    HW257548   6.007   0.553  13.703
85239SOL     OW57549  14.143   8.534   1.651
85239SOL    HW157550  14.139   8.439   1.661
85239SOL    HW257551  14.065   8.556   1.600
85240SOL     OW57552   0.854  13.416  10.096
85240SOL    HW157553   0.823  13.505  10.078
85240SOL    HW257554   0.838  13.404  10.190
85241SOL     OW57555  14.312   4.547   8.773
85241SOL    HW157556  14.233   4.525   8.725
85241SOL    HW257557  14.376   4.569   8.705
85242SOL     OW57558  10.460  10.458  11.117
85242SOL    HW157559  10.399  10.396  11.077
85242SOL    HW257560  10.422  10.476  11.203
85243SOL     OW57561  12.566  10.090  11.378
85243SOL    HW157562  12.518  10.072  11.298
85243SOL    HW257563  12.507  10.144  11.431
85244SOL     OW57564   5.383   2.337   5.695
85244SOL    HW157565   5.322   2.339   5.621
85244SOL    HW257566   5.443   2.410   5.680
85245SOL     OW57567  13.683   6.688   5.006
85245SOL    HW157568  13.626   6.643   5.068
85245SOL    HW257569  13.638   6.682   4.922
85246SOL     OW57570  12.196   6.885   1.693
85246SOL    HW157571  12.130   6.822   1.722
85246SOL    HW257572  12.223   6.853   1.606
85247SOL     OW57573  12.843   7.591  13.067
85247SOL    HW157574  12.758   7.635  13.070
85247SOL    HW257575  12.895   7.643  13.006
85248SOL     OW57576   9.691  12.805   0.673
85248SOL    HW157577   9.664  12.897   0.671
85248SOL    HW257578   9.764  12.800   0.611
85249SOL     OW57579   6.339  12.046  10.493
85249SOL    HW157580   6.310  12.107  10.425
85249SOL    HW257581   6.346  11.961  10.449
85250SOL     OW57582   1.020  13.717   2.381
85250SOL    HW157583   1.036  13.707   2.287
85250SOL    HW257584   0.938  13.767   2.386
85251SOL     OW57585  13.157   3.862   3.697
85251SOL    HW157586  13.065   3.890   3.703
85251SOL    HW257587  13.157   3.774   3.734
85252SOL     OW57588  14.193   3.123   4.391
85252SOL    HW157589  14.184   3.035   4.428
85252SOL    HW257590  14.118   3.171   4.425
85253SOL     OW57591   7.523   9.051   4.004
85253SOL    HW157592   7.522   9.141   4.037
85253SOL    HW257593   7.498   8.998   4.080
85254SOL     OW57594   0.591  11.372   8.010
85254SOL    HW157595   0.601  11.337   7.922
85254SOL    HW257596   0.650  11.448   8.012
85255SOL     OW57597   2.638   5.239   5.093
85255SOL    HW157598   2.693   5.228   5.015
85255SOL    HW257599   2.641   5.333   5.112
85256SOL     OW57600   1.099   8.107   8.996
85256SOL    HW157601   1.088   8.199   8.971
85256SOL    HW257602   1.142   8.067   8.920
85257SOL     OW57603   2.770   4.923   7.732
85257SOL    HW157604   2.729   4.887   7.654
85257SOL    HW257605   2.763   5.018   7.721
85258SOL     OW57606  11.748   0.399   7.245
85258SOL    HW157607  11.780   0.324   7.196
85258SOL    HW257608  11.802   0.472   7.216
85259SOL     OW57609   9.809  14.190   3.850
85259SOL    HW157610   9.830  14.221   3.939
85259SOL    HW257611   9.755  14.112   3.864
85260SOL     OW57612   9.639   5.587   8.043
85260SOL    HW157613   9.709   5.541   8.088
85260SOL    HW257614   9.631   5.671   8.090
85261SOL     OW57615   4.458   0.064   2.761
85261SOL    HW157616   4.517   0.135   2.734
85261SOL    HW257617   4.489  14.861   2.712
85262SOL     OW57618  14.788   4.318   7.201
85262SOL    HW157619  14.797   4.229   7.236
85262SOL    HW257620  14.792   4.374   7.278
85263SOL     OW57621   6.959  13.087   2.286
85263SOL    HW157622   6.933  13.102   2.195
85263SOL    HW257623   6.877  13.097   2.336
85264SOL     OW57624  13.929   9.693   5.955
85264SOL    HW157625  13.923   9.785   5.982
85264SOL    HW257626  13.865   9.648   6.009
85265SOL     OW57627   3.025   0.154   3.629
85265SOL    HW157628   3.093   0.165   3.563
85265SOL    HW257629   3.010   0.059   3.633
85266SOL     OW57630  14.149  12.220  12.671
85266SOL    HW157631  14.161  12.312  12.647
85266SOL    HW257632  14.233  12.192  12.706
85267SOL     OW57633   9.213   1.775   2.629
85267SOL    HW157634   9.297   1.771   2.583
85267SOL    HW257635   9.155   1.820   2.567
85268SOL     OW57636   7.761   7.107   1.939
85268SOL    HW157637   7.850   7.130   1.913
85268SOL    HW257638   7.762   7.113   2.035
85269SOL     OW57639  13.219   0.320   3.979
85269SOL    HW157640  13.251   0.294   3.893
85269SOL    HW257641  13.133   0.358   3.962
85270SOL     OW57642   2.163   3.850   2.727
85270SOL    HW157643   2.138   3.798   2.803
85270SOL    HW257644   2.147   3.941   2.754
85271SOL     OW57645  11.092  13.578  11.640
85271SOL    HW157646  11.041  13.542  11.712
85271SOL    HW257647  11.122  13.502  11.591
85272SOL     OW57648   7.806   8.660  10.979
85272SOL    HW157649   7.825   8.599  10.908
85272SOL    HW257650   7.844   8.619  11.057
85273SOL     OW57651   7.182  14.864   5.580
85273SOL    HW157652   7.208   0.072   5.624
85273SOL    HW257653   7.247  14.853   5.510
85274SOL     OW57654   8.208  14.373  13.418
85274SOL    HW157655   8.195  14.451  13.471
85274SOL    HW257656   8.174  14.397  13.331
85275SOL     OW57657   8.491   0.386   4.983
85275SOL    HW157658   8.566   0.432   4.944
85275SOL    HW257659   8.453   0.336   4.911
85276SOL     OW57660   4.242  10.259   8.407
85276SOL    HW157661   4.331  10.228   8.421
85276SOL    HW257662   4.222  10.235   8.316
85277SOL     OW57663   2.282  13.369   5.423
85277SOL    HW157664   2.219  13.408   5.361
85277SOL    HW257665   2.358  13.426   5.418
85278SOL     OW57666   3.366   8.773   3.753
85278SOL    HW157667   3.429   8.703   3.737
85278SOL    HW257668   3.330   8.793   3.666
85279SOL     OW57669   9.954   3.709   2.859
85279SOL    HW157670  10.017   3.648   2.897
85279SOL    HW257671  10.005   3.788   2.840
85280SOL     OW57672  13.878  12.100   9.398
85280SOL    HW157673  13.794  12.144   9.387
85280SOL    HW257674  13.924  12.152   9.463
85281SOL     OW57675   1.916  11.651  11.092
85281SOL    HW157676   1.959  11.642  11.006
85281SOL    HW257677   1.860  11.573  11.098
85282SOL     OW57678  13.295   8.599   2.902
85282SOL    HW157679  13.321   8.558   2.820
85282SOL    HW257680  13.283   8.526   2.963
85283SOL     OW57681  13.173   1.678  10.759
85283SOL    HW157682  13.122   1.719  10.689
85283SOL    HW257683  13.125   1.597  10.779
85284SOL     OW57684   3.885  14.374  12.053
85284SOL    HW157685   3.827  14.298  12.045
85284SOL    HW257686   3.968  14.338  12.084
85285SOL     OW57687   0.758   3.544   1.649
85285SOL    HW157688   0.834   3.503   1.607
85285SOL    HW257689   0.709   3.470   1.686
85286SOL     OW57690  13.320   3.297   0.099
85286SOL    HW157691  13.356   3.374   0.142
85286SOL    HW257692  13.225   3.305   0.111
85287SOL     OW57693   1.149   6.817   0.098
85287SOL    HW157694   1.191   6.901   0.081
85287SOL    HW257695   1.128   6.819   0.192
85288SOL     OW57696   7.806   4.546   7.591
85288SOL    HW157697   7.835   4.631   7.558
85288SOL    HW257698   7.776   4.499   7.513
85289SOL     OW57699  11.631  13.667   3.680
85289SOL    HW157700  11.703  13.729   3.684
85289SOL    HW257701  11.552  13.721   3.690
85290SOL     OW57702   1.255   5.468   1.831
85290SOL    HW157703   1.162   5.483   1.816
85290SOL    HW257704   1.299   5.526   1.769
85291SOL     OW57705   7.679  14.582  10.725
85291SOL    HW157706   7.660  14.595  10.633
85291SOL    HW257707   7.599  14.607  10.771
85292SOL     OW57708  14.007   3.602  10.118
85292SOL    HW157709  14.051   3.526  10.158
85292SOL    HW257710  13.931   3.565  10.074
85293SOL     OW57711   1.976  10.457   9.171
85293SOL    HW157712   2.003  10.494   9.087
85293SOL    HW257713   1.956  10.365   9.152
85294SOL     OW57714  10.514  11.147   7.309
85294SOL    HW157715  10.471  11.232   7.304
85294SOL    HW257716  10.492  11.114   7.396
85295SOL     OW57717   0.120   4.215   9.746
85295SOL    HW157718   0.096   4.123   9.756
85295SOL    HW257719   0.078   4.259   9.820
85296SOL     OW57720   3.552   6.394   2.695
85296SOL    HW157721   3.574   6.361   2.608
85296SOL    HW257722   3.456   6.401   2.694
85297SOL     OW57723   0.687   9.526  14.150
85297SOL    HW157724   0.668   9.595  14.213
85297SOL    HW257725   0.709   9.572  14.069
85298SOL     OW57726   9.165  10.184   7.666
85298SOL    HW157727   9.105  10.138   7.725
85298SOL    HW257728   9.242  10.128   7.663
85299SOL     OW57729  13.618  12.691  13.185
85299SOL    HW157730  13.668  12.770  13.167
85299SOL    HW257731  13.648  12.628  13.120
85300SOL     OW57732   6.651  14.739   5.966
85300SOL    HW157733   6.599  14.726   6.045
85300SOL    HW257734   6.654  14.834   5.954
85301SOL     OW57735   5.077  11.775   4.462
85301SOL    HW157736   5.109  11.724   4.387
85301SOL    HW257737   4.995  11.732   4.487
85302SOL     OW57738   3.269   6.395  12.216
85302SOL    HW157739   3.264   6.373  12.123
85302SOL    HW257740   3.347   6.349  12.248
85303SOL     OW57741   7.537   2.500   2.849
85303SOL    HW157742   7.576   2.585   2.830
85303SOL    HW257743   7.472   2.488   2.780
85304SOL     OW57744   3.565   5.327  12.110
85304SOL    HW157745   3.474   5.355  12.118
85304SOL    HW257746   3.560   5.238  12.076
85305SOL     OW57747   3.100   3.908   8.789
85305SOL    HW157748   3.100   3.929   8.882
85305SOL    HW257749   3.187   3.870   8.772
85306SOL     OW57750   8.448   5.370   5.211
85306SOL    HW157751   8.386   5.340   5.144
85306SOL    HW257752   8.519   5.307   5.208
85307SOL     OW57753   9.543   0.429   3.749
85307SOL    HW157754   9.493   0.352   3.723
85307SOL    HW257755   9.625   0.394   3.784
85308SOL     OW57756  11.844  12.406  12.913
85308SOL    HW157757  11.810  12.456  12.839
85308SOL    HW257758  11.780  12.420  12.983
85309SOL     OW57759   8.653  14.378   7.843
85309SOL    HW157760   8.641  14.472   7.827
85309SOL    HW257761   8.706  14.373   7.922
85310SOL     OW57762   4.391  13.306  14.564
85310SOL    HW157763   4.408  13.373  14.498
85310SOL    HW257764   4.474  13.259  14.573
85311SOL     OW57765   7.558  12.140  14.103
85311SOL    HW157766   7.497  12.208  14.129
85311SOL    HW257767   7.563  12.147  14.008
85312SOL     OW57768   9.802   4.382   3.355
85312SOL    HW157769   9.746   4.456   3.379
85312SOL    HW257770   9.798   4.323   3.431
85313SOL     OW57771  12.094   1.457  10.378
85313SOL    HW157772  12.088   1.482  10.286
85313SOL    HW257773  12.078   1.363  10.379
85314SOL     OW57774  13.205   1.408   3.997
85314SOL    HW157775  13.132   1.422   3.936
85314SOL    HW257776  13.187   1.322   4.035
85315SOL     OW57777  11.229   8.035   0.958
85315SOL    HW157778  11.216   8.001   0.869
85315SOL    HW257779  11.224   7.957   1.014
85316SOL     OW57780  12.317  13.945   7.014
85316SOL    HW157781  12.379  13.872   7.024
85316SOL    HW257782  12.241  13.919   7.066
85317SOL     OW57783  12.199   6.913   1.137
85317SOL    HW157784  12.170   6.838   1.085
85317SOL    HW257785  12.289   6.929   1.108
85318SOL     OW57786   6.135   0.073   5.652
85318SOL    HW157787   6.051   0.028   5.651
85318SOL    HW257788   6.155   0.087   5.559
85319SOL     OW57789  13.924   1.966   6.164
85319SOL    HW157790  13.976   2.045   6.177
85319SOL    HW257791  13.965   1.900   6.220
85320SOL     OW57792  14.809   4.326  10.321
85320SOL    HW157793  14.838   4.306  10.410
85320SOL    HW257794  14.872   4.281  10.265
85321SOL     OW57795   2.128   6.454   6.347
85321SOL    HW157796   2.130   6.518   6.276
85321SOL    HW257797   2.035   6.448   6.370
85322SOL     OW57798   1.313   7.974   6.923
85322SOL    HW157799   1.319   7.957   7.017
85322SOL    HW257800   1.336   7.891   6.882
85323SOL     OW57801   1.792   6.247   3.182
85323SOL    HW157802   1.740   6.168   3.172
85323SOL    HW257803   1.770   6.279   3.270
85324SOL     OW57804  12.298   4.520  13.092
85324SOL    HW157805  12.274   4.447  13.034
85324SOL    HW257806  12.375   4.489  13.139
85325SOL     OW57807   5.217   3.197  10.923
85325SOL    HW157808   5.127   3.187  10.955
85325SOL    HW257809   5.208   3.255  10.846
85326SOL     OW57810   1.084   9.885  12.120
85326SOL    HW157811   1.144   9.960  12.121
85326SOL    HW257812   1.091   9.850  12.032
85327SOL     OW57813   8.769  14.768   2.968
85327SOL    HW157814   8.692  14.712   2.971
85327SOL    HW257815   8.828  14.731   3.033
85328SOL     OW57816   7.558  10.779  14.614
85328SOL    HW157817   7.592  10.701  14.659
85328SOL    HW257818   7.625  10.801  14.550
85329SOL     OW57819   6.856   6.030   9.894
85329SOL    HW157820   6.780   6.069   9.851
85329SOL    HW257821   6.914   6.006   9.821
85330SOL     OW57822   4.038   2.681   4.883
85330SOL    HW157823   4.119   2.641   4.852
85330SOL    HW257824   3.973   2.659   4.816
85331SOL     OW57825  12.520   3.844  11.229
85331SOL    HW157826  12.589   3.807  11.172
85331SOL    HW257827  12.486   3.768  11.277
85332SOL     OW57828   8.557   6.528  11.153
85332SOL    HW157829   8.501   6.585  11.101
85332SOL    HW257830   8.611   6.482  11.089
85333SOL     OW57831  10.349  14.198  10.263
85333SOL    HW157832  10.296  14.223  10.187
85333SOL    HW257833  10.354  14.278  10.316
85334SOL     OW57834   4.905  11.441   5.034
85334SOL    HW157835   4.909  11.516   5.092
85334SOL    HW257836   4.934  11.367   5.087
85335SOL     OW57837  10.701   2.118  13.873
85335SOL    HW157838  10.613   2.124  13.912
85335SOL    HW257839  10.761   2.132  13.947
85336SOL     OW57840   9.956   0.001   0.359
85336SOL    HW157841   9.912   0.041   0.284
85336SOL    HW257842   9.960   0.070   0.424
85337SOL     OW57843   3.371   9.139  10.646
85337SOL    HW157844   3.360   9.223  10.691
85337SOL    HW257845   3.310   9.080  10.689
85338SOL     OW57846  12.241  12.982  13.123
85338SOL    HW157847  12.262  13.075  13.133
85338SOL    HW257848  12.286  12.939  13.196
85339SOL     OW57849  12.969  10.121  14.306
85339SOL    HW157850  12.965  10.076  14.390
85339SOL    HW257851  12.877  10.136  14.282
85340SOL     OW57852  10.878   2.223   3.213
85340SOL    HW157853  10.954   2.190   3.165
85340SOL    HW257854  10.894   2.197   3.304
85341SOL     OW57855   9.123   2.245  13.993
85341SOL    HW157856   9.125   2.272  14.085
85341SOL    HW257857   9.113   2.150  13.996
85342SOL     OW57858   7.332   3.728   5.070
85342SOL    HW157859   7.363   3.726   5.161
85342SOL    HW257860   7.385   3.797   5.029
85343SOL     OW57861   6.977   5.271  11.381
85343SOL    HW157862   6.915   5.217  11.330
85343SOL    HW257863   6.924   5.307  11.452
85344SOL     OW57864  14.529   1.761  13.208
85344SOL    HW157865  14.462   1.697  13.184
85344SOL    HW257866  14.496   1.802  13.288
85345SOL     OW57867  12.983   1.207   8.147
85345SOL    HW157868  13.010   1.298   8.135
85345SOL    HW257869  13.062   1.156   8.127
85346SOL     OW57870  11.400   2.848   8.629
85346SOL    HW157871  11.480   2.818   8.586
85346SOL    HW257872  11.413   2.828   8.721
85347SOL     OW57873   7.231   2.840   1.771
85347SOL    HW157874   7.171   2.808   1.704
85347SOL    HW257875   7.176   2.849   1.850
85348SOL     OW57876   0.620   3.304  13.420
85348SOL    HW157877   0.684   3.375  13.413
85348SOL    HW257878   0.600   3.300  13.514
85349SOL     OW57879  12.476  12.976  10.683
85349SOL    HW157880  12.477  12.912  10.612
85349SOL    HW257881  12.568  12.988  10.706
85350SOL     OW57882   7.884   3.173   6.896
85350SOL    HW157883   7.854   3.262   6.876
85350SOL    HW257884   7.822   3.142   6.963
85351SOL     OW57885   4.109   2.328  11.879
85351SOL    HW157886   4.050   2.300  11.949
85351SOL    HW257887   4.084   2.275  11.803
85352SOL     OW57888  14.243   2.515   3.255
85352SOL    HW157889  14.209   2.597   3.220
85352SOL    HW257890  14.165   2.466   3.282
85353SOL     OW57891  11.708   7.296   9.464
85353SOL    HW157892  11.746   7.298   9.376
85353SOL    HW257893  11.779   7.323   9.521
85354SOL     OW57894   2.854   2.443   9.755
85354SOL    HW157895   2.858   2.536   9.733
85354SOL    HW257896   2.771   2.434   9.803
85355SOL     OW57897  13.610   5.139  14.060
85355SOL    HW157898  13.584   5.178  14.144
85355SOL    HW257899  13.651   5.211  14.012
85356SOL     OW57900  13.708  13.619  10.739
85356SOL    HW157901  13.737  13.528  10.734
85356SOL    HW257902  13.614  13.615  10.722
85357SOL     OW57903   5.468   0.355   6.784
85357SOL    HW157904   5.458   0.427   6.721
85357SOL    HW257905   5.395   0.366   6.845
85358SOL     OW57906  10.026   3.561   5.958
85358SOL    HW157907  10.059   3.596   5.875
85358SOL    HW257908  10.104   3.550   6.012
85359SOL     OW57909   9.905   3.195   2.964
85359SOL    HW157910   9.943   3.215   2.878
85359SOL    HW257911   9.925   3.102   2.978
85360SOL     OW57912   5.130   0.293   3.506
85360SOL    HW157913   5.129   0.332   3.418
85360SOL    HW257914   5.205   0.334   3.549
85361SOL     OW57915   9.852   0.798   7.651
85361SOL    HW157916   9.937   0.755   7.659
85361SOL    HW257917   9.791   0.727   7.630
85362SOL     OW57918   5.292   7.989   1.290
85362SOL    HW157919   5.232   8.023   1.224
85362SOL    HW257920   5.285   7.893   1.283
85363SOL     OW57921   6.602   1.453  13.831
85363SOL    HW157922   6.691   1.421  13.846
85363SOL    HW257923   6.592   1.450  13.735
85364SOL     OW57924  13.242   5.495   8.882
85364SOL    HW157925  13.232   5.444   8.962
85364SOL    HW257926  13.306   5.562   8.904
85365SOL     OW57927   3.320   9.559   5.304
85365SOL    HW157928   3.236   9.552   5.258
85365SOL    HW257929   3.383   9.518   5.244
85366SOL     OW57930  10.792   6.983   0.388
85366SOL    HW157931  10.719   6.924   0.371
85366SOL    HW257932  10.837   6.945   0.464
85367SOL     OW57933   6.853   7.423   3.253
85367SOL    HW157934   6.861   7.487   3.181
85367SOL    HW257935   6.817   7.345   3.211
85368SOL     OW57936   3.334   2.168  13.662
85368SOL    HW157937   3.422   2.138  13.684
85368SOL    HW257938   3.280   2.090  13.666
85369SOL     OW57939   1.251   2.929   2.820
85369SOL    HW157940   1.230   2.974   2.739
85369SOL    HW257941   1.189   2.856   2.824
85370SOL     OW57942   2.410   3.412  10.035
85370SOL    HW157943   2.444   3.498  10.008
85370SOL    HW257944   2.423   3.356   9.959
85371SOL     OW57945   0.574   0.414   0.265
85371SOL    HW157946   0.669   0.417   0.282
85371SOL    HW257947   0.567   0.382   0.175
85372SOL     OW57948   0.820  14.664  14.841
85372SOL    HW157949   0.824  14.728   0.038
85372SOL    HW257950   0.851  14.711  14.763
85373SOL     OW57951   0.183   0.968  10.773
85373SOL    HW157952   0.256   0.926  10.818
85373SOL    HW257953   0.119   0.986  10.842
85374SOL     OW57954   4.668   5.070   5.336
85374SOL    HW157955   4.654   5.101   5.425
85374SOL    HW257956   4.642   5.144   5.281
85375SOL     OW57957  12.385   1.490   0.299
85375SOL    HW157958  12.470   1.448   0.308
85375SOL    HW257959  12.325   1.419   0.277
85376SOL     OW57960   4.619  11.397  14.049
85376SOL    HW157961   4.643  11.342  13.974
85376SOL    HW257962   4.663  11.480  14.033
85377SOL     OW57963  14.116   3.928  12.233
85377SOL    HW157964  14.154   3.988  12.297
85377SOL    HW257965  14.186   3.912  12.170
85378SOL     OW57966   0.478   4.768   8.215
85378SOL    HW157967   0.527   4.791   8.294
85378SOL    HW257968   0.456   4.851   8.174
85379SOL     OW57969   0.176  12.806   3.122
85379SOL    HW157970   0.217  12.719   3.122
85379SOL    HW257971   0.174  12.831   3.029
85380SOL     OW57972   3.043   0.893   2.424
85380SOL    HW157973   3.033   0.927   2.335
85380SOL    HW257974   2.987   0.816   2.427
85381SOL     OW57975   4.507   2.898  10.478
85381SOL    HW157976   4.521   2.803  10.478
85381SOL    HW257977   4.582   2.933  10.430
85382SOL     OW57978   1.416   2.221   0.154
85382SOL    HW157979   1.346   2.213   0.088
85382SOL    HW257980   1.409   2.310   0.186
85383SOL     OW57981  10.628   5.774   9.321
85383SOL    HW157982  10.557   5.826   9.360
85383SOL    HW257983  10.583   5.715   9.260
85384SOL     OW57984  12.864  12.480  11.536
85384SOL    HW157985  12.850  12.395  11.579
85384SOL    HW257986  12.778  12.503  11.501
85385SOL     OW57987  10.300  11.018   5.112
85385SOL    HW157988  10.351  11.092   5.078
85385SOL    HW257989  10.209  11.045   5.102
85386SOL     OW57990   2.952  11.276  13.172
85386SOL    HW157991   3.028  11.290  13.115
85386SOL    HW257992   2.978  11.203  13.229
85387SOL     OW57993  13.578  13.040  11.100
85387SOL    HW157994  13.524  12.995  11.166
85387SOL    HW257995  13.593  12.974  11.033
85388SOL     OW57996   9.200  12.715   6.126
85388SOL    HW157997   9.249  12.790   6.094
85388SOL    HW257998   9.263  12.666   6.180
85389SOL     OW57999   0.227   7.907  13.062
85389SOL    HW158000   0.275   7.826  13.044
85389SOL    HW258001   0.237   7.959  12.983
85390SOL     OW58002  13.088  12.975   6.115
85390SOL    HW158003  13.166  12.922   6.128
85390SOL    HW258004  13.045  12.976   6.201
85391SOL     OW58005  13.562  14.004   8.566
85391SOL    HW158006  13.643  13.953   8.563
85391SOL    HW258007  13.492  13.939   8.563
85392SOL     OW58008  11.797   6.208   6.842
85392SOL    HW158009  11.778   6.255   6.761
85392SOL    HW258010  11.764   6.264   6.912
85393SOL     OW58011  13.384  13.339  11.504
85393SOL    HW158012  13.433  13.412  11.541
85393SOL    HW258013  13.303  13.379  11.470
85394SOL     OW58014  11.636   3.417  11.364
85394SOL    HW158015  11.548   3.384  11.381
85394SOL    HW258016  11.675   3.351  11.307
85395SOL     OW58017   9.162   3.703  11.488
85395SOL    HW158018   9.105   3.737  11.419
85395SOL    HW258019   9.231   3.655  11.441
85396SOL     OW58020   0.003  11.360  12.464
85396SOL    HW158021  14.812  11.387  12.399
85396SOL    HW258022   0.063  11.302  12.417
85397SOL     OW58023   8.799   8.082   1.791
85397SOL    HW158024   8.812   8.154   1.853
85397SOL    HW258025   8.815   8.003   1.843
85398SOL     OW58026   4.018   3.974   0.623
85398SOL    HW158027   4.108   3.976   0.589
85398SOL    HW258028   4.028   3.959   0.717
85399SOL     OW58029   1.340  14.058   9.761
85399SOL    HW158030   1.386  14.130   9.718
85399SOL    HW258031   1.402  13.986   9.760
85400SOL     OW58032  11.884   3.877  10.611
85400SOL    HW158033  11.828   3.808  10.576
85400SOL    HW258034  11.947   3.896  10.541
85401SOL     OW58035  10.583  13.747   0.598
85401SOL    HW158036  10.575  13.658   0.564
85401SOL    HW258037  10.675  13.769   0.588
85402SOL     OW58038  12.159  13.966   3.837
85402SOL    HW158039  12.149  13.874   3.864
85402SOL    HW258040  12.129  13.968   3.747
85403SOL     OW58041   9.790   2.864   8.376
85403SOL    HW158042   9.789   2.835   8.284
85403SOL    HW258043   9.831   2.792   8.423
85404SOL     OW58044   5.334   6.525  12.309
85404SOL    HW158045   5.315   6.567  12.394
85404SOL    HW258046   5.415   6.477  12.324
85405SOL     OW58047   8.138   6.919   9.116
85405SOL    HW158048   8.192   6.985   9.159
85405SOL    HW258049   8.100   6.964   9.040
85406SOL     OW58050   5.693   2.666  10.445
85406SOL    HW158051   5.638   2.620  10.509
85406SOL    HW258052   5.631   2.712  10.389
85407SOL     OW58053   8.880   8.361  10.192
85407SOL    HW158054   8.952   8.398  10.242
85407SOL    HW258055   8.814   8.339  10.259
85408SOL     OW58056   8.879   5.296   9.281
85408SOL    HW158057   8.895   5.383   9.244
85408SOL    HW258058   8.853   5.243   9.206
85409SOL     OW58059   1.104  12.082   8.059
85409SOL    HW158060   1.109  12.104   7.966
85409SOL    HW258061   1.020  12.037   8.068
85410SOL     OW58062   9.872   5.573   8.883
85410SOL    HW158063   9.920   5.655   8.895
85410SOL    HW258064   9.785   5.599   8.854
85411SOL     OW58065   6.836  13.803   4.116
85411SOL    HW158066   6.878  13.740   4.058
85411SOL    HW258067   6.862  13.888   4.081
85412SOL     OW58068   9.102  10.194   5.447
85412SOL    HW158069   9.132  10.261   5.385
85412SOL    HW258070   9.039  10.240   5.502
85413SOL     OW58071  13.514  13.913  10.925
85413SOL    HW158072  13.545  13.844  10.984
85413SOL    HW258073  13.506  13.990  10.982
85414SOL     OW58074   7.901   4.811   6.651
85414SOL    HW158075   7.966   4.796   6.583
85414SOL    HW258076   7.926   4.751   6.721
85415SOL     OW58077  13.320   8.007  11.763
85415SOL    HW158078  13.324   8.069  11.690
85415SOL    HW258079  13.387   8.037  11.824
85416SOL     OW58080   6.284  13.827   6.279
85416SOL    HW158081   6.278  13.918   6.251
85416SOL    HW258082   6.199  13.788   6.258
85417SOL     OW58083  13.209   9.076  12.980
85417SOL    HW158084  13.187   9.161  12.943
85417SOL    HW258085  13.159   9.013  12.927
85418SOL     OW58086   6.584  14.390   1.343
85418SOL    HW158087   6.647  14.322   1.320
85418SOL    HW258088   6.562  14.373   1.435
85419SOL     OW58089   7.657   0.537  12.492
85419SOL    HW158090   7.696   0.619  12.522
85419SOL    HW258091   7.715   0.507  12.421
85420SOL     OW58092   1.207   7.885   9.917
85420SOL    HW158093   1.260   7.859   9.992
85420SOL    HW258094   1.245   7.839   9.842
85421SOL     OW58095  12.546   5.420   8.211
85421SOL    HW158096  12.464   5.388   8.248
85421SOL    HW258097  12.615   5.378   8.263
85422SOL     OW58098   2.941  11.250   6.471
85422SOL    HW158099   2.910  11.339   6.454
85422SOL    HW258100   3.009  11.235   6.406
85423SOL     OW58101   8.055  14.367   7.774
85423SOL    HW158102   8.142  14.403   7.756
85423SOL    HW258103   8.048  14.291   7.716
85424SOL     OW58104  12.756  14.114   8.685
85424SOL    HW158105  12.711  14.104   8.769
85424SOL    HW258106  12.717  14.192   8.646
85425SOL     OW58107  10.400   0.516   6.417
85425SOL    HW158108  10.309   0.495   6.440
85425SOL    HW258109  10.408   0.492   6.325
85426SOL     OW58110   0.730  11.501  10.782
85426SOL    HW158111   0.692  11.428  10.734
85426SOL    HW258112   0.671  11.515  10.856
85427SOL     OW58113  14.576   6.069   7.336
85427SOL    HW158114  14.495   6.114   7.313
85427SOL    HW258115  14.620   6.128   7.398
85428SOL     OW58116   7.076   7.732   2.786
85428SOL    HW158117   7.016   7.693   2.723
85428SOL    HW258118   7.062   7.826   2.779
85429SOL     OW58119   9.885  14.027  14.180
85429SOL    HW158120   9.900  14.095  14.115
85429SOL    HW258121   9.932  14.057  14.258
85430SOL     OW58122   1.569  13.894   9.659
85430SOL    HW158123   1.517  13.820   9.630
85430SOL    HW258124   1.628  13.912   9.586
85431SOL     OW58125   1.229  11.656  10.415
85431SOL    HW158126   1.219  11.612  10.500
85431SOL    HW258127   1.255  11.745  10.437
85432SOL     OW58128   8.273   6.029  13.094
85432SOL    HW158129   8.355   6.012  13.048
85432SOL    HW258130   8.278   6.122  13.117
85433SOL     OW58131  10.809   5.893   3.026
85433SOL    HW158132  10.734   5.953   3.027
85433SOL    HW258133  10.812   5.858   3.115
85434SOL     OW58134   7.193   4.067  12.502
85434SOL    HW158135   7.113   4.077  12.554
85434SOL    HW258136   7.208   4.153  12.464
85435SOL     OW58137  12.200  13.215  14.206
85435SOL    HW158138  12.290  13.194  14.181
85435SOL    HW258139  12.202  13.308  14.228
85436SOL     OW58140  13.321  11.904  11.014
85436SOL    HW158141  13.265  11.981  11.030
85436SOL    HW258142  13.358  11.884  11.100
85437SOL     OW58143  12.160  12.002  10.943
85437SOL    HW158144  12.081  11.973  10.898
85437SOL    HW258145  12.133  12.082  10.989
85438SOL     OW58146   6.562   4.968   4.420
85438SOL    HW158147   6.551   4.901   4.353
85438SOL    HW258148   6.555   5.051   4.373
85439SOL     OW58149   2.784   6.405   7.001
85439SOL    HW158150   2.790   6.365   6.914
85439SOL    HW258151   2.729   6.482   6.988
85440SOL     OW58152  14.841  10.714  14.270
85440SOL    HW158153  14.784  10.645  14.305
85440SOL    HW258154   0.057  10.680  14.284
85441SOL     OW58155   8.443   6.611  10.549
85441SOL    HW158156   8.395   6.529  10.559
85441SOL    HW258157   8.412   6.666  10.620
85442SOL     OW58158   1.820  11.982  12.894
85442SOL    HW158159   1.853  11.896  12.921
85442SOL    HW258160   1.894  12.024  12.851
85443SOL     OW58161   4.404   6.348   0.474
85443SOL    HW158162   4.459   6.310   0.542
85443SOL    HW258163   4.442   6.317   0.392
85444SOL     OW58164   5.406   7.132   1.030
85444SOL    HW158165   5.354   7.196   0.982
85444SOL    HW258166   5.440   7.073   0.963
85445SOL     OW58167   2.776  11.830  13.783
85445SOL    HW158168   2.815  11.904  13.830
85445SOL    HW258169   2.836  11.757  13.798
85446SOL     OW58170  12.275   9.528   9.324
85446SOL    HW158171  12.362   9.522   9.287
85446SOL    HW258172  12.237   9.441   9.311
85447SOL     OW58173   4.422  14.244   2.454
85447SOL    HW158174   4.460  14.332   2.453
85447SOL    HW258175   4.357  14.247   2.525
85448SOL     OW58176   7.687   3.810   6.731
85448SOL    HW158177   7.619   3.874   6.749
85448SOL    HW258178   7.761   3.861   6.698
85449SOL     OW58179   2.654   4.265   8.506
85449SOL    HW158180   2.618   4.326   8.570
85449SOL    HW258181   2.654   4.180   8.551
85450SOL     OW58182   6.150   2.342   4.791
85450SOL    HW158183   6.131   2.398   4.716
85450SOL    HW258184   6.157   2.402   4.865
85451SOL     OW58185  10.108   1.552   6.334
85451SOL    HW158186  10.181   1.541   6.273
85451SOL    HW258187  10.044   1.604   6.285
85452SOL     OW58188   9.799   5.613  10.597
85452SOL    HW158189   9.830   5.611  10.507
85452SOL    HW258190   9.726   5.551  10.599
85453SOL     OW58191   6.685  10.980  13.991
85453SOL    HW158192   6.700  10.908  14.053
85453SOL    HW258193   6.592  10.974  13.969
85454SOL     OW58194   3.901   6.462   4.071
85454SOL    HW158195   3.839   6.465   4.144
85454SOL    HW258196   3.850   6.430   3.997
85455SOL     OW58197  10.616  10.421   0.848
85455SOL    HW158198  10.591  10.476   0.774
85455SOL    HW258199  10.707  10.443   0.866
85456SOL     OW58200  11.031  13.833   0.105
85456SOL    HW158201  10.964  13.830   0.036
85456SOL    HW258202  11.012  13.757   0.160
85457SOL     OW58203   5.217   6.319   5.832
85457SOL    HW158204   5.222   6.228   5.861
85457SOL    HW258205   5.210   6.369   5.913
85458SOL     OW58206   4.180   4.175   0.480
85458SOL    HW158207   4.174   4.175   0.384
85458SOL    HW258208   4.090   4.160   0.509
85459SOL     OW58209   0.566   1.084   7.975
85459SOL    HW158210   0.475   1.056   7.991
85459SOL    HW258211   0.561   1.136   7.895
85460SOL     OW58212   4.390   0.529   7.947
85460SOL    HW158213   4.397   0.485   8.032
85460SOL    HW258214   4.401   0.459   7.883
85461SOL     OW58215   3.404   6.904   9.607
85461SOL    HW158216   3.379   6.978   9.662
85461SOL    HW258217   3.385   6.827   9.661
85462SOL     OW58218   3.493   5.805   9.592
85462SOL    HW158219   3.418   5.747   9.575
85462SOL    HW258220   3.533   5.819   9.506
85463SOL     OW58221   6.103   5.041   3.965
85463SOL    HW158222   6.055   5.100   3.906
85463SOL    HW258223   6.047   4.965   3.974
85464SOL     OW58224   5.201   4.761   2.455
85464SOL    HW158225   5.127   4.706   2.478
85464SOL    HW258226   5.201   4.762   2.359
85465SOL     OW58227  13.404   8.449   2.700
85465SOL    HW158228  13.437   8.360   2.695
85465SOL    HW258229  13.378   8.471   2.610
85466SOL     OW58230  10.401   2.357   7.719
85466SOL    HW158231  10.404   2.412   7.640
85466SOL    HW258232  10.346   2.283   7.693
85467SOL     OW58233   3.113   1.880   7.738
85467SOL    HW158234   3.048   1.946   7.763
85467SOL    HW258235   3.195   1.913   7.772
85468SOL     OW58236  10.991  14.700  10.690
85468SOL    HW158237  10.953  14.738  10.769
85468SOL    HW258238  11.086  14.708  10.702
85469SOL     OW58239  10.126  11.842  10.419
85469SOL    HW158240  10.052  11.802  10.464
85469SOL    HW258241  10.086  11.903  10.357
85470SOL     OW58242  12.212   4.027   7.820
85470SOL    HW158243  12.178   3.940   7.802
85470SOL    HW258244  12.299   4.028   7.780
85471SOL     OW58245  12.378   2.326  10.478
85471SOL    HW158246  12.436   2.350  10.405
85471SOL    HW258247  12.374   2.405  10.532
85472SOL     OW58248  13.400   6.696  10.854
85472SOL    HW158249  13.417   6.623  10.913
85472SOL    HW258250  13.309   6.721  10.872
85473SOL     OW58251  11.445   2.951  12.388
85473SOL    HW158252  11.466   2.980  12.299
85473SOL    HW258253  11.361   2.993  12.408
85474SOL     OW58254   3.410   4.717   6.693
85474SOL    HW158255   3.444   4.629   6.709
85474SOL    HW258256   3.446   4.741   6.607
85475SOL     OW58257   3.423   0.096  14.444
85475SOL    HW158258   3.401   0.188  14.428
85475SOL    HW258259   3.425   0.087  14.539
85476SOL     OW58260   9.981   8.309  12.871
85476SOL    HW158261   9.903   8.349  12.832
85476SOL    HW258262   9.978   8.335  12.963
85477SOL     OW58263  13.123   8.749   1.234
85477SOL    HW158264  13.157   8.666   1.269
85477SOL    HW258265  13.046   8.768   1.287
85478SOL     OW58266   7.438  14.447   2.793
85478SOL    HW158267   7.352  14.412   2.771
85478SOL    HW258268   7.430  14.474   2.885
85479SOL     OW58269   5.407  13.445   4.215
85479SOL    HW158270   5.332  13.465   4.158
85479SOL    HW258271   5.429  13.529   4.255
85480SOL     OW58272  11.734   5.082  12.383
85480SOL    HW158273  11.788   5.025  12.438
85480SOL    HW258274  11.649   5.039  12.378
85481SOL     OW58275   6.343  11.594   4.802
85481SOL    HW158276   6.278  11.531   4.834
85481SOL    HW258277   6.398  11.613   4.878
85482SOL     OW58278   0.114   3.146   7.861
85482SOL    HW158279   0.064   3.198   7.925
85482SOL    HW258280   0.052   3.130   7.790
85483SOL     OW58281   0.001   0.134   8.577
85483SOL    HW158282   0.005   0.221   8.616
85483SOL    HW258283  14.780   0.115   8.573
85484SOL     OW58284  14.361   6.468   6.639
85484SOL    HW158285  14.303   6.542   6.657
85484SOL    HW258286  14.303   6.392   6.638
85485SOL     OW58287   5.843  10.783   8.451
85485SOL    HW158288   5.857  10.714   8.516
85485SOL    HW258289   5.756  10.817   8.470
85486SOL     OW58290  11.879   7.421  11.880
85486SOL    HW158291  11.795   7.414  11.835
85486SOL    HW258292  11.883   7.341  11.934
85487SOL     OW58293  12.234   8.896   3.589
85487SOL    HW158294  12.282   8.842   3.652
85487SOL    HW258295  12.144   8.864   3.593
85488SOL     OW58296   5.062  14.371   3.785
85488SOL    HW158297   5.138  14.350   3.731
85488SOL    HW258298   5.096  14.429   3.854
85489SOL     OW58299  12.320   1.129  12.203
85489SOL    HW158300  12.234   1.170  12.200
85489SOL    HW258301  12.310   1.048  12.153
85490SOL     OW58302   5.481   0.080  14.246
85490SOL    HW158303   5.566   0.073  14.203
85490SOL    HW258304   5.437  14.870  14.227
85491SOL     OW58305   9.399  12.271   2.636
85491SOL    HW158306   9.490  12.280   2.609
85491SOL    HW258307   9.357  12.353   2.607
85492SOL     OW58308  14.194  12.868   3.127
85492SOL    HW158309  14.165  12.832   3.043
85492SOL    HW258310  14.190  12.963   3.115
85493SOL     OW58311  13.378   2.209  11.988
85493SOL    HW158312  13.310   2.218  11.920
85493SOL    HW258313  13.458   2.190  11.939
85494SOL     OW58314   2.223  10.279   0.614
85494SOL    HW158315   2.266  10.247   0.693
85494SOL    HW258316   2.190  10.366   0.638
85495SOL     OW58317   4.967   1.884  12.188
85495SOL    HW158318   4.904   1.955  12.176
85495SOL    HW258319   5.033   1.900  12.121
85496SOL     OW58320   7.658   0.389  11.964
85496SOL    HW158321   7.651   0.426  11.876
85496SOL    HW258322   7.576   0.341  11.977
85497SOL     OW58323   5.260   6.012  13.416
85497SOL    HW158324   5.166   6.004  13.398
85497SOL    HW258325   5.269   5.983  13.507
85498SOL     OW58326   0.415   6.025   8.519
85498SOL    HW158327   0.415   5.971   8.440
85498SOL    HW258328   0.484   5.987   8.573
85499SOL     OW58329  14.448   2.134   2.949
85499SOL    HW158330  14.410   2.047   2.939
85499SOL    HW258331  14.389   2.179   3.009
85500SOL     OW58332  10.811  12.003   9.078
85500SOL    HW158333  10.747  11.988   9.148
85500SOL    HW258334  10.896  11.990   9.121
85501SOL     OW58335   6.750   7.626   1.341
85501SOL    HW158336   6.841   7.612   1.367
85501SOL    HW258337   6.755   7.695   1.274
85502SOL     OW58338   7.462   9.412   0.213
85502SOL    HW158339   7.432   9.487   0.162
85502SOL    HW258340   7.530   9.372   0.159
85503SOL     OW58341   7.729   0.883   9.174
85503SOL    HW158342   7.770   0.903   9.089
85503SOL    HW258343   7.716   0.968   9.215
85504SOL     OW58344   3.580   0.094   9.274
85504SOL    HW158345   3.523   0.167   9.299
85504SOL    HW258346   3.662   0.110   9.321
85505SOL     OW58347   2.226   4.832   0.471
85505SOL    HW158348   2.297   4.863   0.414
85505SOL    HW258349   2.262   4.757   0.517
85506SOL     OW58350  12.456   8.012   7.246
85506SOL    HW158351  12.464   7.951   7.173
85506SOL    HW258352  12.457   7.957   7.324
85507SOL     OW58353  11.832  11.466  12.120
85507SOL    HW158354  11.819  11.427  12.033
85507SOL    HW258355  11.751  11.445  12.167
85508SOL     OW58356  10.482   1.042   8.685
85508SOL    HW158357  10.415   0.991   8.639
85508SOL    HW258358  10.563   1.022   8.639
85509SOL     OW58359   7.944   5.783   5.516
85509SOL    HW158360   7.957   5.858   5.574
85509SOL    HW258361   8.024   5.732   5.524
85510SOL     OW58362   2.948   8.393   0.053
85510SOL    HW158363   2.855   8.396   0.074
85510SOL    HW258364   2.951   8.404  14.830
85511SOL     OW58365  13.335  14.202   3.650
85511SOL    HW158366  13.344  14.163   3.737
85511SOL    HW258367  13.277  14.141   3.603
85512SOL     OW58368   4.705   9.264  12.959
85512SOL    HW158369   4.711   9.263  12.863
85512SOL    HW258370   4.625   9.313  12.977
85513SOL     OW58371   7.507   0.354   8.867
85513SOL    HW158372   7.569   0.295   8.910
85513SOL    HW258373   7.448   0.381   8.937
85514SOL     OW58374   8.698   9.858   1.278
85514SOL    HW158375   8.713   9.768   1.307
85514SOL    HW258376   8.644   9.849   1.199
85515SOL     OW58377  13.896  11.372   6.986
85515SOL    HW158378  13.936  11.434   6.925
85515SOL    HW258379  13.841  11.316   6.932
85516SOL     OW58380   5.946   1.261   6.766
85516SOL    HW158381   5.907   1.263   6.853
85516SOL    HW258382   6.032   1.302   6.778
85517SOL     OW58383   3.870  10.491   9.623
85517SOL    HW158384   3.953  10.461   9.661
85517SOL    HW258385   3.803  10.447   9.675
85518SOL     OW58386   6.215   7.817   3.863
85518SOL    HW158387   6.246   7.838   3.775
85518SOL    HW258388   6.291   7.830   3.919
85519SOL     OW58389  12.140   1.350   4.139
85519SOL    HW158390  12.173   1.314   4.221
85519SOL    HW258391  12.069   1.291   4.113
85520SOL     OW58392   8.065   6.422   3.310
85520SOL    HW158393   8.015   6.477   3.249
85520SOL    HW258394   8.063   6.471   3.393
85521SOL     OW58395  13.765   7.907   2.066
85521SOL    HW158396  13.773   7.814   2.043
85521SOL    HW258397  13.673   7.928   2.048
85522SOL     OW58398   3.557   8.640  10.171
85522SOL    HW158399   3.652   8.640  10.168
85522SOL    HW258400   3.530   8.703  10.104
85523SOL     OW58401  12.894   3.935   8.366
85523SOL    HW158402  12.918   3.963   8.278
85523SOL    HW258403  12.798   3.932   8.365
85524SOL     OW58404  10.557  12.422   1.686
85524SOL    HW158405  10.552  12.359   1.758
85524SOL    HW258406  10.622  12.487   1.716
85525SOL     OW58407   5.311   0.340   0.765
85525SOL    HW158408   5.360   0.385   0.834
85525SOL    HW258409   5.378   0.308   0.705
85526SOL     OW58410  10.901   2.879  14.824
85526SOL    HW158411  10.983   2.832  14.810
85526SOL    HW258412  10.895   2.890   0.046
85527SOL     OW58413   3.183  13.979  11.400
85527SOL    HW158414   3.121  13.961  11.330
85527SOL    HW258415   3.128  13.996  11.477
85528SOL     OW58416   1.349   6.195   3.780
85528SOL    HW158417   1.342   6.113   3.830
85528SOL    HW258418   1.418   6.244   3.825
85529SOL     OW58419  12.283  11.366   4.166
85529SOL    HW158420  12.196  11.332   4.185
85529SOL    HW258421  12.267  11.454   4.131
85530SOL     OW58422   3.185  14.163   6.375
85530SOL    HW158423   3.275  14.193   6.387
85530SOL    HW258424   3.171  14.102   6.448
85531SOL     OW58425   5.506   1.845   0.051
85531SOL    HW158426   5.519   1.917  14.862
85531SOL    HW258427   5.502   1.888   0.137
85532SOL     OW58428  11.050  13.017   7.443
85532SOL    HW158429  11.009  13.064   7.370
85532SOL    HW258430  11.077  12.933   7.404
85533SOL     OW58431  12.432  12.680   2.917
85533SOL    HW158432  12.478  12.671   3.000
85533SOL    HW258433  12.361  12.616   2.921
85534SOL     OW58434  13.681  13.515   7.784
85534SOL    HW158435  13.590  13.525   7.812
85534SOL    HW258436  13.702  13.599   7.743
85535SOL     OW58437   8.832   3.624   4.839
85535SOL    HW158438   8.923   3.596   4.844
85535SOL    HW258439   8.824   3.663   4.752
85536SOL     OW58440  11.107   7.992   6.340
85536SOL    HW158441  11.162   7.944   6.402
85536SOL    HW258442  11.054   8.051   6.394
85537SOL     OW58443   1.156  11.291   6.449
85537SOL    HW158444   1.207  11.351   6.503
85537SOL    HW258445   1.084  11.262   6.505
85538SOL     OW58446  12.872   9.302   4.510
85538SOL    HW158447  12.952   9.349   4.485
85538SOL    HW258448  12.887   9.277   4.601
85539SOL     OW58449   1.961  10.588   1.650
85539SOL    HW158450   1.886  10.571   1.594
85539SOL    HW258451   2.034  10.544   1.606
85540SOL     OW58452  14.378   2.517  11.092
85540SOL    HW158453  14.390   2.571  11.170
85540SOL    HW258454  14.348   2.577  11.024
85541SOL     OW58455   9.300  13.133   6.537
85541SOL    HW158456   9.329  13.131   6.628
85541SOL    HW258457   9.335  13.216   6.503
85542SOL     OW58458   3.880   8.642  14.430
85542SOL    HW158459   3.814   8.711  14.423
85542SOL    HW258460   3.842   8.567  14.384
85543SOL     OW58461   5.546   3.865   1.650
85543SOL    HW158462   5.516   3.815   1.726
85543SOL    HW258463   5.466   3.897   1.609
85544SOL     OW58464   2.049   8.107  14.114
85544SOL    HW158465   2.130   8.107  14.165
85544SOL    HW258466   1.983   8.143  14.174
85545SOL     OW58467   9.646  11.493   7.058
85545SOL    HW158468   9.732  11.537   7.057
85545SOL    HW258469   9.583  11.565   7.049
85546SOL     OW58470   8.491   2.070   5.134
85546SOL    HW158471   8.458   2.086   5.045
85546SOL    HW258472   8.585   2.085   5.127
85547SOL     OW58473  11.892   4.798  13.334
85547SOL    HW158474  11.981   4.768  13.319
85547SOL    HW258475  11.840   4.756  13.266
85548SOL     OW58476   3.573   2.742  14.852
85548SOL    HW158477   3.629   2.679  14.807
85548SOL    HW258478   3.500   2.690   0.013
85549SOL     OW58479   3.127  14.165   2.973
85549SOL    HW158480   3.095  14.138   2.887
85549SOL    HW258481   3.205  14.218   2.955
85550SOL     OW58482   0.930  11.243   3.116
85550SOL    HW158483   0.953  11.335   3.107
85550SOL    HW258484   0.864  11.228   3.047
85551SOL     OW58485   6.607   0.930  14.262
85551SOL    HW158486   6.691   0.889  14.240
85551SOL    HW258487   6.632   1.014  14.300
85552SOL     OW58488   2.661  13.326   0.564
85552SOL    HW158489   2.587  13.272   0.593
85552SOL    HW258490   2.668  13.394   0.631
85553SOL     OW58491  14.649   3.162   6.020
85553SOL    HW158492  14.665   3.221   6.093
85553SOL    HW258493  14.734   3.120   6.004
85554SOL     OW58494   6.711   3.488   8.406
85554SOL    HW158495   6.679   3.508   8.494
85554SOL    HW258496   6.804   3.509   8.409
85555SOL     OW58497   0.483   8.432  11.043
85555SOL    HW158498   0.458   8.502  11.104
85555SOL    HW258499   0.577   8.443  11.030
85556SOL     OW58500   7.424  10.092  12.802
85556SOL    HW158501   7.372  10.172  12.798
85556SOL    HW258502   7.453  10.087  12.893
85557SOL     OW58503   3.379   4.831   3.269
85557SOL    HW158504   3.439   4.799   3.336
85557SOL    HW258505   3.304   4.771   3.273
85558SOL     OW58506  11.036   0.029   5.262
85558SOL    HW158507  11.041   0.110   5.211
85558SOL    HW258508  10.956  14.860   5.232
85559SOL     OW58509   1.902  14.529   4.637
85559SOL    HW158510   1.851  14.564   4.565
85559SOL    HW258511   1.837  14.504   4.703
85560SOL     OW58512  14.456   6.388  13.211
85560SOL    HW158513  14.390   6.413  13.146
85560SOL    HW258514  14.484   6.471  13.250
85561SOL     OW58515  13.103   1.201   0.598
85561SOL    HW158516  13.087   1.225   0.689
85561SOL    HW258517  13.112   1.106   0.599
85562SOL     OW58518   1.193   7.745   7.533
85562SOL    HW158519   1.184   7.810   7.603
85562SOL    HW258520   1.261   7.782   7.476
85563SOL     OW58521   6.007   8.744  14.306
85563SOL    HW158522   6.023   8.651  14.291
85563SOL    HW258523   5.912   8.754  14.296
85564SOL     OW58524  11.640  11.218  10.255
85564SOL    HW158525  11.556  11.181  10.227
85564SOL    HW258526  11.616  11.293  10.309
85565SOL     OW58527   2.426   9.054   1.648
85565SOL    HW158528   2.386   9.139   1.665
85565SOL    HW258529   2.353   8.992   1.652
85566SOL     OW58530   6.341   7.510  12.492
85566SOL    HW158531   6.367   7.598  12.465
85566SOL    HW258532   6.421   7.469  12.524
85567SOL     OW58533   2.036   3.732  10.753
85567SOL    HW158534   2.044   3.672  10.679
85567SOL    HW258535   2.031   3.675  10.830
85568SOL     OW58536  10.477   1.124   9.397
85568SOL    HW158537  10.419   1.067   9.448
85568SOL    HW258538  10.442   1.212   9.410
85569SOL     OW58539  11.890  10.701   0.668
85569SOL    HW158540  11.879  10.675   0.760
85569SOL    HW258541  11.801  10.700   0.632
85570SOL     OW58542  13.662  10.562   2.995
85570SOL    HW158543  13.749  10.591   2.969
85570SOL    HW258544  13.634  10.503   2.925
85571SOL     OW58545   0.908  12.240   0.290
85571SOL    HW158546   0.824  12.285   0.301
85571SOL    HW258547   0.966  12.306   0.253
85572SOL     OW58548   7.967   1.759   0.758
85572SOL    HW158549   7.909   1.699   0.804
85572SOL    HW258550   7.984   1.717   0.674
85573SOL     OW58551   2.158   6.194   9.863
85573SOL    HW158552   2.088   6.132   9.841
85573SOL    HW258553   2.234   6.162   9.815
85574SOL     OW58554  11.734  11.576   8.949
85574SOL    HW158555  11.794  11.643   8.982
85574SOL    HW258556  11.731  11.590   8.854
85575SOL     OW58557   7.816  13.657  11.601
85575SOL    HW158558   7.876  13.714  11.649
85575SOL    HW258559   7.857  13.644  11.516
85576SOL     OW58560   6.868   4.344  14.497
85576SOL    HW158561   6.897   4.373  14.584
85576SOL    HW258562   6.813   4.416  14.465
85577SOL     OW58563  14.144  12.256   9.864
85577SOL    HW158564  14.179  12.345   9.861
85577SOL    HW258565  14.218  12.200   9.838
85578SOL     OW58566   8.582  10.022   6.931
85578SOL    HW158567   8.569  10.115   6.947
85578SOL    HW258568   8.677  10.010   6.932
85579SOL     OW58569   0.787  10.611   4.593
85579SOL    HW158570   0.781  10.640   4.502
85579SOL    HW258571   0.861  10.660   4.629
85580SOL     OW58572   4.033  11.116   5.168
85580SOL    HW158573   4.048  11.177   5.096
85580SOL    HW258574   4.118  11.107   5.210
85581SOL     OW58575   6.578   9.651   6.079
85581SOL    HW158576   6.651   9.630   6.022
85581SOL    HW258577   6.613   9.643   6.168
85582SOL     OW58578   0.600  10.509   9.530
85582SOL    HW158579   0.590  10.573   9.601
85582SOL    HW258580   0.541  10.438   9.554
85583SOL     OW58581   6.182  12.303   2.634
85583SOL    HW158582   6.225  12.389   2.636
85583SOL    HW258583   6.112  12.310   2.699
85584SOL     OW58584  10.131   5.927   0.406
85584SOL    HW158585  10.137   5.851   0.464
85584SOL    HW258586  10.040   5.956   0.414
85585SOL     OW58587   4.071  10.504  10.957
85585SOL    HW158588   4.083  10.576  11.020
85585SOL    HW258589   4.126  10.528  10.883
85586SOL     OW58590  12.481  14.491  12.945
85586SOL    HW158591  12.500  14.397  12.943
85586SOL    HW258592  12.482  14.518  12.853
85587SOL     OW58593   4.875   3.551   4.969
85587SOL    HW158594   4.853   3.643   4.952
85587SOL    HW258595   4.856   3.538   5.062
85588SOL     OW58596   4.261   3.200   4.518
85588SOL    HW158597   4.340   3.204   4.464
85588SOL    HW258598   4.188   3.208   4.455
85589SOL     OW58599   8.001   2.083  11.158
85589SOL    HW158600   7.937   2.105  11.091
85589SOL    HW258601   8.086   2.096  11.115
85590SOL     OW58602   4.751  10.433   0.497
85590SOL    HW158603   4.734  10.339   0.487
85590SOL    HW258604   4.818  10.438   0.566
85591SOL     OW58605   7.093   7.225   0.563
85591SOL    HW158606   7.078   7.319   0.556
85591SOL    HW258607   7.164   7.216   0.628
85592SOL     OW58608   4.198   6.040   9.555
85592SOL    HW158609   4.191   6.134   9.573
85592SOL    HW258610   4.107   6.009   9.555
85593SOL     OW58611   3.051   2.023  12.234
85593SOL    HW158612   3.011   1.991  12.315
85593SOL    HW258613   3.045   1.948  12.174
85594SOL     OW58614   3.882  11.691   5.725
85594SOL    HW158615   3.966  11.657   5.694
85594SOL    HW258616   3.879  11.668   5.818
85595SOL     OW58617  14.827   1.162  12.170
85595SOL    HW158618  14.802   1.105  12.243
85595SOL    HW258619   0.033   1.121  12.133
85596SOL     OW58620  12.179   2.739   9.020
85596SOL    HW158621  12.154   2.666   8.963
85596SOL    HW258622  12.242   2.790   8.967
85597SOL     OW58623   7.566   9.609   1.935
85597SOL    HW158624   7.553   9.525   1.981
85597SOL    HW258625   7.479   9.632   1.903
85598SOL     OW58626  14.462   6.686   9.746
85598SOL    HW158627  14.504   6.649   9.668
85598SOL    HW258628  14.374   6.708   9.717
85599SOL     OW58629   5.369   8.859   5.539
85599SOL    HW158630   5.377   8.769   5.507
85599SOL    HW258631   5.429   8.909   5.483
85600SOL     OW58632   1.682  11.016  11.885
85600SOL    HW158633   1.706  11.106  11.908
85600SOL    HW258634   1.691  11.012  11.790
85601SOL     OW58635   2.138   3.252   6.234
85601SOL    HW158636   2.050   3.231   6.265
85601SOL    HW258637   2.124   3.289   6.147
85602SOL     OW58638  10.039  13.842   2.660
85602SOL    HW158639  10.120  13.850   2.610
85602SOL    HW258640  10.056  13.890   2.741
85603SOL     OW58641   9.862   0.215   4.365
85603SOL    HW158642   9.834   0.264   4.443
85603SOL    HW258643   9.877   0.283   4.299
85604SOL     OW58644  13.239   8.420   5.202
85604SOL    HW158645  13.262   8.342   5.152
85604SOL    HW258646  13.161   8.455   5.157
85605SOL     OW58647   2.405   6.870  10.959
85605SOL    HW158648   2.404   6.950  10.908
85605SOL    HW258649   2.448   6.806  10.902
85606SOL     OW58650   3.204   4.066   8.159
85606SOL    HW158651   3.193   4.112   8.076
85606SOL    HW258652   3.246   4.130   8.216
85607SOL     OW58653   7.734   0.837  12.531
85607SOL    HW158654   7.727   0.866  12.622
85607SOL    HW258655   7.702   0.910  12.479
85608SOL     OW58656   0.577  13.606   7.554
85608SOL    HW158657   0.592  13.526   7.503
85608SOL    HW258658   0.618  13.675   7.501
85609SOL     OW58659   5.963   8.471  10.765
85609SOL    HW158660   5.888   8.525  10.739
85609SOL    HW258661   6.020   8.531  10.812
85610SOL     OW58662  12.382   4.122   2.964
85610SOL    HW158663  12.314   4.054   2.963
85610SOL    HW258664  12.462   4.076   2.940
85611SOL     OW58665   3.184   5.205   9.179
85611SOL    HW158666   3.187   5.300   9.167
85611SOL    HW258667   3.111   5.191   9.238
85612SOL     OW58668   2.003   9.689   7.614
85612SOL    HW158669   2.077   9.667   7.558
85612SOL    HW258670   2.019   9.640   7.695
85613SOL     OW58671  11.651   3.827  13.025
85613SOL    HW158672  11.720   3.846  13.089
85613SOL    HW258673  11.693   3.769  12.961
85614SOL     OW58674  13.327  12.341   4.019
85614SOL    HW158675  13.355  12.433   4.020
85614SOL    HW258676  13.250  12.339   4.077
85615SOL     OW58677   9.306   7.712   5.437
85615SOL    HW158678   9.257   7.782   5.395
85615SOL    HW258679   9.306   7.640   5.374
85616SOL     OW58680  12.234   7.313   1.402
85616SOL    HW158681  12.330   7.314   1.409
85616SOL    HW258682  12.209   7.405   1.413
85617SOL     OW58683   2.022   9.262   2.511
85617SOL    HW158684   2.060   9.196   2.454
85617SOL    HW258685   1.928   9.246   2.508
85618SOL     OW58686   6.984   6.203  14.734
85618SOL    HW158687   7.062   6.250  14.762
85618SOL    HW258688   6.967   6.236  14.645
85619SOL     OW58689   5.899   4.538   4.197
85619SOL    HW158690   5.821   4.508   4.151
85619SOL    HW258691   5.866   4.577   4.278
85620SOL     OW58692   2.388   1.897   6.472
85620SOL    HW158693   2.296   1.886   6.447
85620SOL    HW258694   2.434   1.910   6.390
85621SOL     OW58695  13.911   0.434  10.366
85621SOL    HW158696  13.946   0.466  10.449
85621SOL    HW258697  13.833   0.486  10.351
85622SOL     OW58698   7.545   3.498   8.658
85622SOL    HW158699   7.575   3.424   8.604
85622SOL    HW258700   7.624   3.526   8.704
85623SOL     OW58701   0.607   3.000   7.677
85623SOL    HW158702   0.648   2.957   7.752
85623SOL    HW258703   0.514   2.986   7.689
85624SOL     OW58704   1.744   5.781  10.138
85624SOL    HW158705   1.650   5.768  10.156
85624SOL    HW258706   1.756   5.876  10.142
85625SOL     OW58707   1.777   1.424   8.070
85625SOL    HW158708   1.688   1.396   8.093
85625SOL    HW258709   1.828   1.404   8.149
85626SOL     OW58710   4.523   8.118   6.835
85626SOL    HW158711   4.531   8.169   6.754
85626SOL    HW258712   4.522   8.027   6.806
85627SOL     OW58713   1.326   7.617  14.625
85627SOL    HW158714   1.233   7.620  14.600
85627SOL    HW258715   1.364   7.696  14.588
85628SOL     OW58716   5.373  11.221   4.838
85628SOL    HW158717   5.445  11.209   4.900
85628SOL    HW258718   5.310  11.276   4.884
85629SOL     OW58719   7.904   2.970   9.795
85629SOL    HW158720   7.956   2.930   9.725
85629SOL    HW258721   7.824   3.000   9.751
85630SOL     OW58722  10.806   6.789  12.239
85630SOL    HW158723  10.767   6.767  12.155
85630SOL    HW258724  10.819   6.704  12.283
85631SOL     OW58725   6.450   6.499  11.461
85631SOL    HW158726   6.523   6.561  11.467
85631SOL    HW258727   6.410   6.501  11.548
85632SOL     OW58728  10.843   0.116  13.528
85632SOL    HW158729  10.829   0.051  13.598
85632SOL    HW258730  10.870   0.195  13.574
85633SOL     OW58731  13.267   2.202   7.307
85633SOL    HW158732  13.260   2.236   7.396
85633SOL    HW258733  13.185   2.155   7.292
85634SOL     OW58734   0.220  12.171   7.750
85634SOL    HW158735   0.240  12.086   7.712
85634SOL    HW258736   0.206  12.228   7.675
85635SOL     OW58737   0.597   3.090   5.137
85635SOL    HW158738   0.602   3.055   5.048
85635SOL    HW258739   0.520   3.047   5.174
85636SOL     OW58740   6.778   3.506  10.628
85636SOL    HW158741   6.811   3.460  10.551
85636SOL    HW258742   6.726   3.578  10.593
85637SOL     OW58743   4.817   6.367   0.390
85637SOL    HW158744   4.856   6.283   0.416
85637SOL    HW258745   4.740   6.343   0.339
85638SOL     OW58746  12.952   3.781   5.260
85638SOL    HW158747  12.964   3.859   5.314
85638SOL    HW258748  13.010   3.794   5.185
85639SOL     OW58749   6.676  13.031  13.154
85639SOL    HW158750   6.581  13.023  13.144
85639SOL    HW258751   6.694  13.124  13.141
85640SOL     OW58752  12.476   0.941   3.723
85640SOL    HW158753  12.388   0.905   3.738
85640SOL    HW258754  12.508   0.896   3.646
85641SOL     OW58755  14.581  12.259   4.220
85641SOL    HW158756  14.503  12.203   4.218
85641SOL    HW258757  14.608  12.259   4.312
85642SOL     OW58758   7.800  10.648  13.768
85642SOL    HW158759   7.878  10.703  13.771
85642SOL    HW258760   7.788  10.627  13.676
85643SOL     OW58761   0.961   2.392   0.099
85643SOL    HW158762   0.952   2.353   0.012
85643SOL    HW258763   0.985   2.318   0.156
85644SOL     OW58764   3.424  10.831  10.782
85644SOL    HW158765   3.346  10.877  10.811
85644SOL    HW258766   3.472  10.810  10.863
85645SOL     OW58767   3.001  14.646  13.599
85645SOL    HW158768   3.063  14.711  13.632
85645SOL    HW258769   3.032  14.562  13.634
85646SOL     OW58770   4.666   2.574   9.285
85646SOL    HW158771   4.709   2.628   9.351
85646SOL    HW258772   4.723   2.579   9.209
85647SOL     OW58773   0.404  11.698   5.439
85647SOL    HW158774   0.369  11.610   5.423
85647SOL    HW258775   0.498  11.689   5.428
85648SOL     OW58776   5.250   3.050   7.000
85648SOL    HW158777   5.266   3.144   6.993
85648SOL    HW258778   5.155   3.042   7.010
85649SOL     OW58779  12.591   2.789   2.931
85649SOL    HW158780  12.550   2.835   2.858
85649SOL    HW258781  12.637   2.857   2.979
85650SOL     OW58782   8.828  13.698   7.558
85650SOL    HW158783   8.859  13.699   7.648
85650SOL    HW258784   8.825  13.791   7.533
85651SOL     OW58785   1.000   8.367  10.434
85651SOL    HW158786   0.916   8.412  10.439
85651SOL    HW258787   0.977   8.277  10.409
85652SOL     OW58788  14.736   6.512   9.685
85652SOL    HW158789  14.810   6.572   9.673
85652SOL    HW258790  14.714   6.484   9.596
85653SOL     OW58791   9.717  14.047  13.860
85653SOL    HW158792   9.624  14.034  13.839
85653SOL    HW258793   9.727  14.142  13.867
85654SOL     OW58794   9.561   2.101   3.547
85654SOL    HW158795   9.516   2.061   3.473
85654SOL    HW258796   9.654   2.086   3.530
85655SOL     OW58797   9.839   6.875  10.803
85655SOL    HW158798   9.818   6.907  10.715
85655SOL    HW258799   9.934   6.864  10.803
85656SOL     OW58800   2.295   0.529  13.795
85656SOL    HW158801   2.209   0.571  13.791
85656SOL    HW258802   2.303   0.482  13.713
85657SOL     OW58803  13.422   0.538   5.564
85657SOL    HW158804  13.423   0.442   5.560
85657SOL    HW258805  13.505   0.561   5.606
85658SOL     OW58806   0.869   6.595  12.943
85658SOL    HW158807   0.875   6.675  12.995
85658SOL    HW258808   0.812   6.537  12.993
85659SOL     OW58809   1.599   5.263  14.164
85659SOL    HW158810   1.653   5.338  14.189
85659SOL    HW258811   1.524   5.301  14.118
85660SOL     OW58812   1.238   6.790  14.418
85660SOL    HW158813   1.248   6.868  14.363
85660SOL    HW258814   1.270   6.817  14.504
85661SOL     OW58815  14.349  10.243   5.151
85661SOL    HW158816  14.288  10.285   5.211
85661SOL    HW258817  14.317  10.153   5.143
85662SOL     OW58818   2.059   8.415   6.773
85662SOL    HW158819   2.114   8.395   6.849
85662SOL    HW258820   2.023   8.331   6.746
85663SOL     OW58821  11.013   6.803   6.691
85663SOL    HW158822  10.971   6.797   6.605
85663SOL    HW258823  10.990   6.721   6.735
85664SOL     OW58824   9.903   8.895   1.824
85664SOL    HW158825   9.961   8.897   1.748
85664SOL    HW258826   9.960   8.907   1.900
85665SOL     OW58827   1.302  10.185  12.587
85665SOL    HW158828   1.218  10.148  12.560
85665SOL    HW258829   1.317  10.257  12.526
85666SOL     OW58830   3.457   9.120  10.381
85666SOL    HW158831   3.428   9.129  10.472
85666SOL    HW258832   3.403   9.049  10.346
85667SOL     OW58833  11.973  12.781   6.643
85667SOL    HW158834  11.946  12.872   6.630
85667SOL    HW258835  11.989  12.774   6.737
85668SOL     OW58836   8.776   4.028   3.766
85668SOL    HW158837   8.735   4.100   3.813
85668SOL    HW258838   8.868   4.031   3.792
85669SOL     OW58839   5.009   8.443  10.820
85669SOL    HW158840   4.951   8.501  10.868
85669SOL    HW258841   4.996   8.357  10.859
85670SOL     OW58842   2.111   4.660   8.477
85670SOL    HW158843   2.121   4.749   8.510
85670SOL    HW258844   2.041   4.622   8.531
85671SOL     OW58845  10.356   3.659  12.902
85671SOL    HW158846  10.426   3.699  12.850
85671SOL    HW258847  10.391   3.660  12.992
85672SOL     OW58848   9.130  10.799   8.229
85672SOL    HW158849   9.222  10.779   8.247
85672SOL    HW258850   9.125  10.805   8.134
85673SOL     OW58851   0.532   0.015   0.944
85673SOL    HW158852   0.613   0.013   0.893
85673SOL    HW258853   0.496   0.102   0.929
85674SOL     OW58854  12.077   0.027   3.511
85674SOL    HW158855  12.119  14.821   3.478
85674SOL    HW258856  12.140   0.097   3.495
85675SOL     OW58857   0.053  13.218  12.407
85675SOL    HW158858   0.043  13.231  12.501
85675SOL    HW258859   0.091  13.299  12.375
85676SOL     OW58860  13.917   9.522  13.068
85676SOL    HW158861  13.991   9.562  13.021
85676SOL    HW258862  13.896   9.443  13.017
85677SOL     OW58863   0.450  11.498   7.210
85677SOL    HW158864   0.414  11.568   7.156
85677SOL    HW258865   0.416  11.417   7.172
85678SOL     OW58866  14.361  13.111   7.626
85678SOL    HW158867  14.297  13.057   7.578
85678SOL    HW258868  14.309  13.153   7.695
85679SOL     OW58869   1.173   7.918   1.518
85679SOL    HW158870   1.177   7.862   1.440
85679SOL    HW258871   1.120   7.993   1.491
85680SOL     OW58872   3.919  10.257   8.142
85680SOL    HW158873   4.005  10.255   8.101
85680SOL    HW258874   3.869  10.187   8.100
85681SOL     OW58875  13.309   1.940   9.033
85681SOL    HW158876  13.341   1.898   8.952
85681SOL    HW258877  13.314   1.871   9.099
85682SOL     OW58878   1.205  11.316   8.398
85682SOL    HW158879   1.259  11.251   8.354
85682SOL    HW258880   1.226  11.398   8.353
85683SOL     OW58881   8.492   4.163   1.451
85683SOL    HW158882   8.517   4.072   1.465
85683SOL    HW258883   8.402   4.158   1.418
85684SOL     OW58884   1.431   2.596   4.376
85684SOL    HW158885   1.399   2.647   4.301
85684SOL    HW258886   1.355   2.587   4.433
85685SOL     OW58887  10.107   6.627   2.531
85685SOL    HW158888  10.021   6.634   2.491
85685SOL    HW258889  10.167   6.666   2.468
85686SOL     OW58890   8.206  14.735  14.540
85686SOL    HW158891   8.294  14.698  14.540
85686SOL    HW258892   8.192  14.762  14.449
85687SOL     OW58893  13.736   0.693   5.373
85687SOL    HW158894  13.820   0.666   5.409
85687SOL    HW258895  13.720   0.779   5.413
85688SOL     OW58896  13.937   4.216   8.877
85688SOL    HW158897  13.982   4.191   8.796
85688SOL    HW258898  13.873   4.282   8.849
85689SOL     OW58899   8.969   0.610   3.974
85689SOL    HW158900   8.974   0.593   4.068
85689SOL    HW258901   8.888   0.660   3.963
85690SOL     OW58902   9.598  13.832   0.819
85690SOL    HW158903   9.628  13.836   0.910
85690SOL    HW258904   9.507  13.804   0.825
85691SOL     OW58905   0.904  10.125   2.044
85691SOL    HW158906   0.881  10.186   2.113
85691SOL    HW258907   1.000  10.131   2.038
85692SOL     OW58908   0.123  10.523   4.191
85692SOL    HW158909   0.191  10.500   4.255
85692SOL    HW258910   0.107  10.616   4.207
85693SOL     OW58911   6.437   3.740   2.106
85693SOL    HW158912   6.428   3.820   2.157
85693SOL    HW258913   6.476   3.768   2.023
85694SOL     OW58914  13.943  10.940  11.803
85694SOL    HW158915  13.863  10.958  11.754
85694SOL    HW258916  13.969  10.853  11.776
85695SOL     OW58917   6.319  14.236   1.931
85695SOL    HW158918   6.398  14.278   1.897
85695SOL    HW258919   6.331  14.234   2.026
85696SOL     OW58920  11.929   7.626   6.978
85696SOL    HW158921  11.858   7.656   7.035
85696SOL    HW258922  11.984   7.571   7.035
85697SOL     OW58923   2.725   3.266   0.674
85697SOL    HW158924   2.732   3.171   0.685
85697SOL    HW258925   2.631   3.283   0.678
85698SOL     OW58926   7.342   4.270  10.146
85698SOL    HW158927   7.423   4.292  10.101
85698SOL    HW258928   7.301   4.355  10.163
85699SOL     OW58929   6.847   5.400   9.873
85699SOL    HW158930   6.943   5.398   9.874
85699SOL    HW258931   6.825   5.483   9.833
85700SOL     OW58932  10.382   7.875   9.473
85700SOL    HW158933  10.466   7.920   9.458
85700SOL    HW258934  10.407   7.787   9.501
85701SOL     OW58935   0.200  12.482   9.220
85701SOL    HW158936   0.136  12.425   9.177
85701SOL    HW258937   0.278  12.475   9.166
85702SOL     OW58938   6.920   3.333  13.723
85702SOL    HW158939   6.974   3.320  13.801
85702SOL    HW258940   6.948   3.417  13.688
85703SOL     OW58941   6.194   6.628  12.398
85703SOL    HW158942   6.117   6.671  12.435
85703SOL    HW258943   6.167   6.537  12.385
85704SOL     OW58944   9.586   4.067  14.698
85704SOL    HW158945   9.521   4.054  14.768
85704SOL    HW258946   9.623   4.153  14.716
85705SOL     OW58947   0.027   0.049   9.875
85705SOL    HW158948   0.053  14.831   9.860
85705SOL    HW258949   0.099   0.101   9.838
85706SOL     OW58950   1.630  10.373   1.574
85706SOL    HW158951   1.595  10.406   1.657
85706SOL    HW258952   1.616  10.278   1.578
85707SOL     OW58953   9.603   5.438   2.876
85707SOL    HW158954   9.517   5.439   2.917
85707SOL    HW258955   9.656   5.382   2.932
85708SOL     OW58956   5.054   6.463   7.138
85708SOL    HW158957   5.000   6.505   7.071
85708SOL    HW258958   5.101   6.535   7.181
85709SOL     OW58959   5.924   1.194  14.045
85709SOL    HW158960   5.933   1.263  13.979
85709SOL    HW258961   5.906   1.115  13.994
85710SOL     OW58962   4.778  12.135  11.866
85710SOL    HW158963   4.807  12.144  11.957
85710SOL    HW258964   4.716  12.062  11.868
85711SOL     OW58965   1.146  14.016   5.028
85711SOL    HW158966   1.231  13.978   5.050
85711SOL    HW258967   1.125  13.980   4.942
85712SOL     OW58968  14.045  10.312   1.599
85712SOL    HW158969  13.976  10.283   1.540
85712SOL    HW258970  14.007  10.302   1.687
85713SOL     OW58971   6.815   5.216  12.300
85713SOL    HW158972   6.766   5.264  12.233
85713SOL    HW258973   6.785   5.126  12.291
85714SOL     OW58974   1.907   2.274   6.240
85714SOL    HW158975   1.923   2.202   6.179
85714SOL    HW258976   1.926   2.353   6.191
85715SOL     OW58977   2.117   1.144  12.961
85715SOL    HW158978   2.168   1.064  12.950
85715SOL    HW258979   2.102   1.175  12.871
85716SOL     OW58980   9.697  14.654   6.208
85716SOL    HW158981   9.726  14.565   6.231
85716SOL    HW258982   9.608  14.642   6.174
85717SOL     OW58983  11.245   3.259  10.716
85717SOL    HW158984  11.229   3.280  10.623
85717SOL    HW258985  11.217   3.169  10.725
85718SOL     OW58986   5.991   6.238   5.251
85718SOL    HW158987   5.896   6.233   5.256
85718SOL    HW258988   6.018   6.155   5.210
85719SOL     OW58989   0.876   7.046  12.909
85719SOL    HW158990   0.929   7.008  12.839
85719SOL    HW258991   0.818   7.107  12.864
85720SOL     OW58992  13.425   9.334  10.958
85720SOL    HW158993  13.417   9.300  10.869
85720SOL    HW258994  13.512   9.374  10.960
85721SOL     OW58995   3.644   4.657  12.260
85721SOL    HW158996   3.550   4.644  12.266
85721SOL    HW258997   3.658   4.748  12.289
85722SOL     OW58998   7.942   5.947   5.074
85722SOL    HW158999   7.954   5.929   4.981
85722SOL    HW259000   7.862   6.000   5.078
85723SOL     OW59001   7.239   5.749   2.325
85723SOL    HW159002   7.148   5.732   2.301
85723SOL    HW259003   7.248   5.844   2.322
85724SOL     OW59004   7.841   9.044   7.612
85724SOL    HW159005   7.772   9.064   7.677
85724SOL    HW259006   7.802   8.979   7.555
85725SOL     OW59007   0.448   1.101  13.084
85725SOL    HW159008   0.498   1.181  13.098
85725SOL    HW259009   0.495   1.034  13.135
85726SOL     OW59010  13.020   7.584   9.307
85726SOL    HW159011  12.930   7.612   9.293
85726SOL    HW259012  13.074   7.651   9.264
85727SOL     OW59013  14.130  10.139   0.273
85727SOL    HW159014  14.151  10.148   0.180
85727SOL    HW259015  14.099  10.226   0.299
85728SOL     OW59016  11.564   5.418   8.375
85728SOL    HW159017  11.553   5.369   8.457
85728SOL    HW259018  11.540   5.508   8.399
85729SOL     OW59019  10.456   1.101   5.347
85729SOL    HW159020  10.415   1.100   5.261
85729SOL    HW259021  10.519   1.173   5.343
85730SOL     OW59022  12.209  11.486   5.172
85730SOL    HW159023  12.242  11.419   5.232
85730SOL    HW259024  12.117  11.464   5.159
85731SOL     OW59025   2.944   3.564   2.693
85731SOL    HW159026   2.895   3.494   2.736
85731SOL    HW259027   2.876   3.625   2.663
85732SOL     OW59028   5.746   3.133   9.343
85732SOL    HW159029   5.835   3.166   9.353
85732SOL    HW259030   5.730   3.084   9.423
85733SOL     OW59031   0.160   7.636  13.251
85733SOL    HW159032   0.116   7.551  13.253
85733SOL    HW259033   0.252   7.615  13.234
85734SOL     OW59034   0.440  12.357   6.043
85734SOL    HW159035   0.452  12.452   6.035
85734SOL    HW259036   0.529  12.323   6.050
85735SOL     OW59037   7.946   5.922   8.420
85735SOL    HW159038   7.918   5.927   8.512
85735SOL    HW259039   7.870   5.953   8.371
85736SOL     OW59040   6.185   2.934  12.540
85736SOL    HW159041   6.228   2.991  12.476
85736SOL    HW259042   6.121   2.884  12.490
85737SOL     OW59043   0.016   5.194   7.633
85737SOL    HW159044   0.070   5.232   7.702
85737SOL    HW259045   0.070   5.124   7.597
85738SOL     OW59046   7.968   6.566  12.991
85738SOL    HW159047   8.007   6.484  12.962
85738SOL    HW259048   7.975   6.564  13.087
85739SOL     OW59049   3.895   2.752  14.724
85739SOL    HW159050   3.934   2.674  14.763
85739SOL    HW259051   3.944   2.765  14.643
85740SOL     OW59052   2.574   7.294   1.844
85740SOL    HW159053   2.534   7.230   1.902
85740SOL    HW259054   2.530   7.280   1.760
85741SOL     OW59055   3.060   5.705   2.323
85741SOL    HW159056   3.151   5.705   2.293
85741SOL    HW259057   3.037   5.612   2.329
85742SOL     OW59058   5.269  13.903   1.057
85742SOL    HW159059   5.241  13.925   1.146
85742SOL    HW259060   5.358  13.869   1.069
85743SOL     OW59061   8.953  11.143   0.737
85743SOL    HW159062   8.877  11.181   0.782
85743SOL    HW259063   9.027  11.162   0.795
85744SOL     OW59064  11.843   3.451   1.064
85744SOL    HW159065  11.832   3.395   1.142
85744SOL    HW259066  11.757   3.451   1.023
85745SOL     OW59067   1.280   1.496  14.327
85745SOL    HW159068   1.268   1.512  14.234
85745SOL    HW259069   1.313   1.406  14.332
85746SOL     OW59070  14.473   7.813   5.406
85746SOL    HW159071  14.418   7.889   5.423
85746SOL    HW259072  14.419   7.738   5.429
85747SOL     OW59073  13.446   6.026   2.786
85747SOL    HW159074  13.368   5.990   2.827
85747SOL    HW259075  13.460   6.110   2.828
85748SOL     OW59076  10.336  11.523   6.662
85748SOL    HW159077  10.259  11.527   6.605
85748SOL    HW259078  10.410  11.518   6.602
85749SOL     OW59079   2.442  14.427  10.692
85749SOL    HW159080   2.409  14.371  10.762
85749SOL    HW259081   2.367  14.482  10.668
85750SOL     OW59082  13.954  12.175  12.189
85750SOL    HW159083  13.982  12.092  12.150
85750SOL    HW259084  14.030  12.206  12.237
85751SOL     OW59085  10.350  13.823   0.707
85751SOL    HW159086  10.431  13.772   0.705
85751SOL    HW259087  10.377  13.910   0.735
85752SOL     OW59088   9.924   6.534   0.653
85752SOL    HW159089   9.866   6.609   0.640
85752SOL    HW259090   9.952   6.510   0.564
85753SOL     OW59091   8.984  13.539   5.670
85753SOL    HW159092   9.078  13.524   5.679
85753SOL    HW259093   8.950  13.532   5.760
85754SOL     OW59094   8.969   1.557  14.857
85754SOL    HW159095   8.964   1.646  14.823
85754SOL    HW259096   8.890   1.514  14.825
85755SOL     OW59097  11.908  10.566   6.713
85755SOL    HW159098  11.961  10.610   6.647
85755SOL    HW259099  11.947  10.479   6.722
85756SOL     OW59100  12.842   7.852  10.805
85756SOL    HW159101  12.845   7.757  10.790
85756SOL    HW259102  12.748   7.872  10.812
85757SOL     OW59103   7.197  13.108   3.916
85757SOL    HW159104   7.207  13.149   4.002
85757SOL    HW259105   7.270  13.046   3.910
85758SOL     OW59106   3.927   6.100  12.226
85758SOL    HW159107   3.922   6.195  12.218
85758SOL    HW259108   3.933   6.068  12.135
85759SOL     OW59109  14.465   8.663   3.038
85759SOL    HW159110  14.412   8.625   3.108
85759SOL    HW259111  14.407   8.668   2.962
85760SOL     OW59112   5.222  12.057  13.971
85760SOL    HW159113   5.242  12.024  13.883
85760SOL    HW259114   5.301  12.039  14.022
85761SOL     OW59115   8.764  12.351  10.037
85761SOL    HW159116   8.756  12.330  10.130
85761SOL    HW259117   8.858  12.363  10.023
85762SOL     OW59118   7.758  11.171   3.175
85762SOL    HW159119   7.682  11.167   3.233
85762SOL    HW259120   7.820  11.228   3.220
85763SOL     OW59121   5.631   2.793   5.775
85763SOL    HW159122   5.686   2.839   5.712
85763SOL    HW259123   5.548   2.840   5.774
85764SOL     OW59124   7.121  13.588  12.821
85764SOL    HW159125   7.051  13.524  12.829
85764SOL    HW259126   7.075  13.673  12.822
85765SOL     OW59127   5.261   0.106   0.211
85765SOL    HW159128   5.215   0.145   0.138
85765SOL    HW259129   5.274   0.178   0.273
85766SOL     OW59130   3.206   3.502   3.127
85766SOL    HW159131   3.141   3.557   3.083
85766SOL    HW259132   3.158   3.464   3.201
85767SOL     OW59133   5.695   9.299   0.614
85767SOL    HW159134   5.714   9.340   0.698
85767SOL    HW259135   5.747   9.218   0.615
85768SOL     OW59136  13.089   7.612  14.407
85768SOL    HW159137  13.158   7.675  14.426
85768SOL    HW259138  13.097   7.546  14.475
85769SOL     OW59139  12.687  10.122   0.789
85769SOL    HW159140  12.607  10.174   0.780
85769SOL    HW259141  12.676  10.051   0.726
85770SOL     OW59142   2.655   5.262   2.408
85770SOL    HW159143   2.580   5.241   2.352
85770SOL    HW259144   2.615   5.288   2.492
85771SOL     OW59145   1.233  10.768   5.623
85771SOL    HW159146   1.249  10.683   5.664
85771SOL    HW259147   1.317  10.795   5.587
85772SOL     OW59148   8.089   4.182   6.815
85772SOL    HW159149   8.077   4.236   6.893
85772SOL    HW259150   8.181   4.195   6.791
85773SOL     OW59151   5.171   2.517  13.205
85773SOL    HW159152   5.257   2.529  13.245
85773SOL    HW259153   5.188   2.522  13.110
85774SOL     OW59154   7.339  10.135   0.187
85774SOL    HW159155   7.406  10.071   0.164
85774SOL    HW259156   7.348  10.145   0.282
85775SOL     OW59157  11.849   2.808  10.635
85775SOL    HW159158  11.833   2.743  10.703
85775SOL    HW259159  11.803   2.774  10.558
85776SOL     OW59160   2.702   5.632   9.505
85776SOL    HW159161   2.667   5.563   9.561
85776SOL    HW259162   2.626   5.688   9.486
85777SOL     OW59163   2.494   3.993  11.995
85777SOL    HW159164   2.570   3.999  11.937
85777SOL    HW259165   2.527   4.022  12.080
85778SOL     OW59166   3.895   9.889   4.849
85778SOL    HW159167   3.836   9.931   4.911
85778SOL    HW259168   3.954   9.958   4.821
85779SOL     OW59169  14.769   3.748  14.675
85779SOL    HW159170  14.686   3.796  14.678
85779SOL    HW259171  14.767   3.691  14.752
85780SOL     OW59172   2.675   5.600   6.244
85780SOL    HW159173   2.760   5.561   6.223
85780SOL    HW259174   2.636   5.617   6.158
85781SOL     OW59175   9.775   0.016  11.091
85781SOL    HW159176   9.762   0.105  11.057
85781SOL    HW259177   9.763   0.025  11.186
85782SOL     OW59178  14.592   4.637   0.353
85782SOL    HW159179  14.673   4.599   0.386
85782SOL    HW259180  14.617   4.724   0.322
85783SOL     OW59181   5.605  10.560  12.636
85783SOL    HW159182   5.679  10.609  12.602
85783SOL    HW259183   5.545  10.628  12.669
85784SOL     OW59184  11.417   4.724   9.431
85784SOL    HW159185  11.371   4.740   9.348
85784SOL    HW259186  11.508   4.706   9.405
85785SOL     OW59187   1.770   2.157   1.317
85785SOL    HW159188   1.711   2.177   1.244
85785SOL    HW259189   1.848   2.212   1.300
85786SOL     OW59190   4.562   8.333  13.394
85786SOL    HW159191   4.621   8.260  13.374
85786SOL    HW259192   4.620   8.409  13.400
85787SOL     OW59193  10.477   6.488   5.583
85787SOL    HW159194  10.498   6.418   5.645
85787SOL    HW259195  10.400   6.531   5.619
85788SOL     OW59196   8.906   7.727   3.957
85788SOL    HW159197   8.835   7.702   3.899
85788SOL    HW259198   8.985   7.695   3.913
85789SOL     OW59199   4.239   6.403  13.323
85789SOL    HW159200   4.215   6.318  13.359
85789SOL    HW259201   4.165   6.460  13.343
85790SOL     OW59202   3.610   0.052  11.623
85790SOL    HW159203   3.617  14.829  11.626
85790SOL    HW259204   3.524   0.068  11.583
85791SOL     OW59205   2.661   5.390   8.125
85791SOL    HW159206   2.686   5.300   8.146
85791SOL    HW259207   2.711   5.411   8.046
85792SOL     OW59208  11.494  10.550  13.101
85792SOL    HW159209  11.508  10.593  13.186
85792SOL    HW259210  11.493  10.457  13.121
85793SOL     OW59211   2.205   0.434   4.041
85793SOL    HW159212   2.227   0.438   4.134
85793SOL    HW259213   2.124   0.485   4.033
85794SOL     OW59214   6.020   2.371   7.865
85794SOL    HW159215   5.974   2.454   7.875
85794SOL    HW259216   5.974   2.326   7.795
85795SOL     OW59217   0.299   1.584   9.856
85795SOL    HW159218   0.209   1.614   9.862
85795SOL    HW259219   0.308   1.553   9.766
85796SOL     OW59220  12.265   9.778  14.226
85796SOL    HW159221  12.300   9.838  14.160
85796SOL    HW259222  12.195   9.828  14.269
85797SOL     OW59223   4.249  11.056   0.672
85797SOL    HW159224   4.218  10.965   0.666
85797SOL    HW259225   4.343  11.050   0.656
85798SOL     OW59226   2.257   2.913   5.160
85798SOL    HW159227   2.339   2.889   5.117
85798SOL    HW259228   2.273   3.000   5.196
85799SOL     OW59229  10.356  11.953   9.826
85799SOL    HW159230  10.301  12.030   9.815
85799SOL    HW259231  10.410  11.974   9.903
85800SOL     OW59232   1.869   3.061   2.347
85800SOL    HW159233   1.777   3.043   2.330
85800SOL    HW259234   1.910   2.975   2.356
85801SOL     OW59235  13.529   9.387   7.698
85801SOL    HW159236  13.619   9.417   7.708
85801SOL    HW259237  13.482   9.461   7.659
85802SOL     OW59238   3.703  11.655  12.925
85802SOL    HW159239   3.778  11.613  12.968
85802SOL    HW259240   3.739  11.691  12.844
85803SOL     OW59241  11.967   5.692  10.223
85803SOL    HW159242  11.985   5.757  10.155
85803SOL    HW259243  11.930   5.742  10.295
85804SOL     OW59244   7.724   0.735   0.223
85804SOL    HW159245   7.812   0.699   0.212
85804SOL    HW259246   7.706   0.779   0.140
85805SOL     OW59247   5.450   6.434  13.612
85805SOL    HW159248   5.400   6.443  13.531
85805SOL    HW259249   5.529   6.388  13.586
85806SOL     OW59250  14.731   8.352   6.220
85806SOL    HW159251  14.733   8.398   6.304
85806SOL    HW259252  14.639   8.325   6.210
85807SOL     OW59253  12.854   8.857   1.312
85807SOL    HW159254  12.879   8.803   1.387
85807SOL    HW259255  12.843   8.945   1.348
85808SOL     OW59256   9.496   3.248   0.547
85808SOL    HW159257   9.433   3.290   0.606
85808SOL    HW259258   9.574   3.303   0.550
85809SOL     OW59259  14.423  10.339  13.326
85809SOL    HW159260  14.342  10.368  13.368
85809SOL    HW259261  14.395  10.281  13.255
85810SOL     OW59262   9.288   6.082  13.804
85810SOL    HW159263   9.238   6.129  13.872
85810SOL    HW259264   9.374   6.067  13.843
85811SOL     OW59265   2.837  12.099  13.871
85811SOL    HW159266   2.797  12.177  13.831
85811SOL    HW259267   2.930  12.106  13.848
85812SOL     OW59268   7.868  11.853  11.137
85812SOL    HW159269   7.889  11.764  11.110
85812SOL    HW259270   7.947  11.883  11.183
85813SOL     OW59271   7.304   5.106   2.227
85813SOL    HW159272   7.380   5.133   2.279
85813SOL    HW259273   7.241   5.178   2.238
85814SOL     OW59274  13.963  13.592  11.106
85814SOL    HW159275  14.050  13.587  11.067
85814SOL    HW259276  13.923  13.669  11.065
85815SOL     OW59277   9.106   5.480   0.597
85815SOL    HW159278   9.048   5.454   0.668
85815SOL    HW259279   9.113   5.575   0.605
85816SOL     OW59280   1.506  12.717  11.660
85816SOL    HW159281   1.465  12.794  11.700
85816SOL    HW259282   1.569  12.686  11.725
85817SOL     OW59283  14.250   3.179  11.310
85817SOL    HW159284  14.235   3.212  11.399
85817SOL    HW259285  14.166   3.193  11.265
85818SOL     OW59286   8.282   6.157   3.004
85818SOL    HW159287   8.296   6.076   3.052
85818SOL    HW259288   8.187   6.163   2.993
85819SOL     OW59289   1.175   2.966   0.408
85819SOL    HW159290   1.141   3.013   0.484
85819SOL    HW259291   1.211   3.034   0.351
85820SOL     OW59292  14.800  10.710   3.124
85820SOL    HW159293  14.739  10.648   3.084
85820SOL    HW259294  14.765  10.796   3.101
85821SOL     OW59295   9.011   1.368  12.364
85821SOL    HW159296   9.055   1.445  12.400
85821SOL    HW259297   8.919   1.379  12.388
85822SOL     OW59298   7.050   9.488   3.240
85822SOL    HW159299   7.123   9.545   3.262
85822SOL    HW259300   7.082   9.400   3.258
85823SOL     OW59301   0.863   2.800  10.745
85823SOL    HW159302   0.788   2.747  10.772
85823SOL    HW259303   0.932   2.736  10.725
85824SOL     OW59304  10.071   1.151   9.117
85824SOL    HW159305  10.147   1.171   9.063
85824SOL    HW259306  10.041   1.235   9.150
85825SOL     OW59307  14.564  11.803   7.479
85825SOL    HW159308  14.536  11.871   7.540
85825SOL    HW259309  14.660  11.807   7.481
85826SOL     OW59310   9.820   9.520   4.880
85826SOL    HW159311   9.804   9.565   4.797
85826SOL    HW259312   9.771   9.570   4.945
85827SOL     OW59313   1.362   9.308  10.395
85827SOL    HW159314   1.398   9.267  10.474
85827SOL    HW259315   1.324   9.391  10.426
85828SOL     OW59316  13.406   9.380  11.821
85828SOL    HW159317  13.375   9.293  11.846
85828SOL    HW259318  13.436   9.420  11.903
85829SOL     OW59319  13.838   1.016   0.069
85829SOL    HW159320  13.771   1.073   0.033
85829SOL    HW259321  13.803   0.986   0.153
85830SOL     OW59322   5.334   2.366  11.603
85830SOL    HW159323   5.313   2.273  11.615
85830SOL    HW259324   5.320   2.405  11.689
85831SOL     OW59325  14.416   7.453   5.059
85831SOL    HW159326  14.424   7.548   5.064
85831SOL    HW259327  14.485   7.426   4.999
85832SOL     OW59328   7.553   8.237  13.131
85832SOL    HW159329   7.493   8.220  13.058
85832SOL    HW259330   7.536   8.166  13.193
85833SOL     OW59331   4.582   0.091   3.093
85833SOL    HW159332   4.654   0.121   3.038
85833SOL    HW259333   4.568   0.162   3.156
85834SOL     OW59334   1.361  10.220   4.802
85834SOL    HW159335   1.326  10.307   4.785
85834SOL    HW259336   1.428  10.206   4.735
85835SOL     OW59337  13.504   6.859   3.444
85835SOL    HW159338  13.588   6.871   3.487
85835SOL    HW259339  13.506   6.920   3.370
85836SOL     OW59340   7.501  11.116   3.968
85836SOL    HW159341   7.584  11.152   3.998
85836SOL    HW259342   7.522  11.026   3.941
85837SOL     OW59343   0.412  14.576  13.840
85837SOL    HW159344   0.405  14.662  13.881
85837SOL    HW259345   0.505  14.567  13.819
85838SOL     OW59346   2.407  13.163   6.060
85838SOL    HW159347   2.322  13.120   6.054
85838SOL    HW259348   2.443  13.160   5.971
85839SOL     OW59349   2.007  14.136  13.616
85839SOL    HW159350   1.965  14.143  13.702
85839SOL    HW259351   2.097  14.163  13.630
85840SOL     OW59352   8.034   5.663   2.907
85840SOL    HW159353   8.111   5.702   2.865
85840SOL    HW259354   7.962   5.721   2.884
85841SOL     OW59355   2.434  11.490   4.574
85841SOL    HW159356   2.487  11.443   4.509
85841SOL    HW259357   2.410  11.424   4.639
85842SOL     OW59358   5.857   4.629   9.238
85842SOL    HW159359   5.876   4.720   9.219
85842SOL    HW259360   5.762   4.627   9.251
85843SOL     OW59361   9.891   3.800  13.308
85843SOL    HW159362   9.885   3.822  13.401
85843SOL    HW259363   9.803   3.770  13.285
85844SOL     OW59364   9.073   0.116   0.316
85844SOL    HW159365   9.165   0.119   0.293
85844SOL    HW259366   9.061   0.028   0.353
85845SOL     OW59367   2.607   7.267   8.422
85845SOL    HW159368   2.534   7.322   8.393
85845SOL    HW259369   2.599   7.265   8.518
85846SOL     OW59370   0.620   6.957  11.314
85846SOL    HW159371   0.630   6.939  11.407
85846SOL    HW259372   0.667   7.039  11.300
85847SOL     OW59373  14.526   8.136  10.456
85847SOL    HW159374  14.480   8.143  10.539
85847SOL    HW259375  14.520   8.043  10.432
85848SOL     OW59376  12.661   7.973   8.383
85848SOL    HW159377  12.591   7.910   8.404
85848SOL    HW259378  12.728   7.957   8.449
85849SOL     OW59379   5.702  13.380   1.960
85849SOL    HW159380   5.768  13.310   1.963
85849SOL    HW259381   5.679  13.387   1.867
85850SOL     OW59382  13.717   0.719   2.883
85850SOL    HW159383  13.693   0.812   2.886
85850SOL    HW259384  13.647   0.675   2.933
85851SOL     OW59385  14.620  10.597   9.724
85851SOL    HW159386  14.567  10.594   9.645
85851SOL    HW259387  14.641  10.505   9.742
85852SOL     OW59388  11.734   9.035  11.658
85852SOL    HW159389  11.655   9.006  11.612
85852SOL    HW259390  11.728   8.993  11.743
85853SOL     OW59391  14.849   2.502   8.183
85853SOL    HW159392  14.797   2.493   8.103
85853SOL    HW259393  14.865   2.412   8.211
85854SOL     OW59394   3.608   7.421  12.886
85854SOL    HW159395   3.693   7.379  12.879
85854SOL    HW259396   3.614   7.498  12.829
85855SOL     OW59397  10.097  12.006   5.216
85855SOL    HW159398  10.083  11.921   5.258
85855SOL    HW259399  10.086  11.989   5.123
85856SOL     OW59400   5.719   5.017   2.212
85856SOL    HW159401   5.730   5.025   2.117
85856SOL    HW259402   5.651   5.080   2.234
85857SOL     OW59403   4.604   8.767   6.805
85857SOL    HW159404   4.557   8.791   6.885
85857SOL    HW259405   4.538   8.774   6.736
85858SOL     OW59406   9.162   8.282  11.915
85858SOL    HW159407   9.066   8.283  11.911
85858SOL    HW259408   9.188   8.369  11.884
85859SOL     OW59409   8.777  11.685   9.202
85859SOL    HW159410   8.744  11.771   9.228
85859SOL    HW259411   8.813  11.699   9.115
85860SOL     OW59412   6.546   6.245   0.715
85860SOL    HW159413   6.494   6.292   0.779
85860SOL    HW259414   6.598   6.183   0.767
85861SOL     OW59415  10.107  14.488   9.720
85861SOL    HW159416  10.196  14.494   9.753
85861SOL    HW259417  10.053  14.528   9.788
85862SOL     OW59418   0.115  12.368   2.746
85862SOL    HW159419   0.161  12.329   2.820
85862SOL    HW259420   0.030  12.324   2.744
85863SOL     OW59421  14.336   0.547   3.165
85863SOL    HW159422  14.318   0.458   3.196
85863SOL    HW259423  14.380   0.590   3.239
85864SOL     OW59424   8.132   4.153   5.811
85864SOL    HW159425   8.074   4.085   5.845
85864SOL    HW259426   8.219   4.114   5.812
85865SOL     OW59427  10.006   1.082   2.550
85865SOL    HW159428  10.035   1.120   2.467
85865SOL    HW259429  10.036   1.144   2.617
85866SOL     OW59430  10.700   9.453   4.575
85866SOL    HW159431  10.715   9.525   4.638
85866SOL    HW259432  10.613   9.421   4.596
85867SOL     OW59433   9.815  10.726  10.211
85867SOL    HW159434   9.794  10.759  10.124
85867SOL    HW259435   9.798  10.632  10.207
85868SOL     OW59436  10.017   6.588  10.702
85868SOL    HW159437  10.034   6.529  10.776
85868SOL    HW259438   9.923   6.579  10.685
85869SOL     OW59439   2.812  13.972  13.036
85869SOL    HW159440   2.903  13.940  13.035
85869SOL    HW259441   2.817  14.061  13.001
85870SOL     OW59442   2.121   5.490  13.712
85870SOL    HW159443   2.070   5.423  13.666
85870SOL    HW259444   2.114   5.466  13.804
85871SOL     OW59445  10.811   0.361   7.773
85871SOL    HW159446  10.751   0.303   7.725
85871SOL    HW259447  10.884   0.304   7.799
85872SOL     OW59448   7.462   7.099  12.125
85872SOL    HW159449   7.406   7.068  12.053
85872SOL    HW259450   7.407   7.088  12.203
85873SOL     OW59451  11.146   3.061  11.269
85873SOL    HW159452  11.224   3.115  11.259
85873SOL    HW259453  11.073   3.122  11.258
85874SOL     OW59454   2.593   5.101  10.290
85874SOL    HW159455   2.563   5.190  10.274
85874SOL    HW259456   2.534   5.067  10.358
85875SOL     OW59457   7.339  10.593   7.342
85875SOL    HW159458   7.343  10.685   7.314
85875SOL    HW259459   7.256  10.586   7.390
85876SOL     OW59460   6.773   8.729   7.894
85876SOL    HW159461   6.754   8.672   7.969
85876SOL    HW259462   6.689   8.769   7.873
85877SOL     OW59463  12.023  13.937   8.405
85877SOL    HW159464  12.042  13.865   8.465
85877SOL    HW259465  12.011  13.894   8.320
85878SOL     OW59466   4.816  11.044  11.459
85878SOL    HW159467   4.792  11.130  11.494
85878SOL    HW259468   4.909  11.050  11.441
85879SOL     OW59469   1.176   1.719   8.357
85879SOL    HW159470   1.249   1.748   8.412
85879SOL    HW259471   1.100   1.766   8.391
85880SOL     OW59472   4.412   1.607   3.980
85880SOL    HW159473   4.331   1.557   3.973
85880SOL    HW259474   4.455   1.595   3.896
85881SOL     OW59475  10.389   4.749   3.398
85881SOL    HW159476  10.371   4.786   3.485
85881SOL    HW259477  10.474   4.706   3.406
85882SOL     OW59478  12.734  10.979  13.957
85882SOL    HW159479  12.690  11.064  13.969
85882SOL    HW259480  12.793  10.972  14.032
85883SOL     OW59481   7.839   0.500  13.951
85883SOL    HW159482   7.915   0.557  13.935
85883SOL    HW259483   7.814   0.469  13.864
85884SOL     OW59484   2.814   0.524  14.633
85884SOL    HW159485   2.878   0.546  14.701
85884SOL    HW259486   2.868   0.507  14.555
85885SOL     OW59487   3.627   0.774   5.155
85885SOL    HW159488   3.563   0.732   5.097
85885SOL    HW259489   3.633   0.715   5.230
85886SOL     OW59490   8.361   9.125  10.996
85886SOL    HW159491   8.386   9.056  10.935
85886SOL    HW259492   8.386   9.091  11.082
85887SOL     OW59493   1.359   3.572   1.987
85887SOL    HW159494   1.440   3.605   1.948
85887SOL    HW259495   1.294   3.639   1.969
85888SOL     OW59496   2.220   2.711  10.207
85888SOL    HW159497   2.150   2.776  10.208
85888SOL    HW259498   2.267   2.725  10.290
85889SOL     OW59499   1.230   6.960   9.491
85889SOL    HW159500   1.310   6.941   9.443
85889SOL    HW259501   1.247   7.044   9.534
85890SOL     OW59502   2.023  12.708   4.706
85890SOL    HW159503   2.001  12.634   4.649
85890SOL    HW259504   2.095  12.752   4.661
85891SOL     OW59505   3.064   7.758   1.203
85891SOL    HW159506   3.136   7.722   1.256
85891SOL    HW259507   3.094   7.747   1.112
85892SOL     OW59508  12.484  12.303   4.536
85892SOL    HW159509  12.459  12.263   4.619
85892SOL    HW259510  12.554  12.247   4.502
85893SOL     OW59511  13.300   5.765  11.190
85893SOL    HW159512  13.368   5.711  11.150
85893SOL    HW259513  13.258   5.810  11.116
85894SOL     OW59514  14.807   5.294   5.155
85894SOL    HW159515   0.004   5.319   5.094
85894SOL    HW259516  14.835   5.209   5.189
85895SOL     OW59517  12.405   0.825   0.381
85895SOL    HW159518  12.432   0.915   0.397
85895SOL    HW259519  12.362   0.798   0.463
85896SOL     OW59520   0.340   4.562   1.017
85896SOL    HW159521   0.358   4.469   1.004
85896SOL    HW259522   0.423   4.606   1.001
85897SOL     OW59523   5.688  14.580   0.994
85897SOL    HW159524   5.679  14.581   1.089
85897SOL    HW259525   5.630  14.509   0.966
85898SOL     OW59526   7.006  10.754  12.018
85898SOL    HW159527   6.974  10.836  12.056
85898SOL    HW259528   6.999  10.766  11.924
85899SOL     OW59529   5.263   6.289   2.250
85899SOL    HW159530   5.270   6.194   2.239
85899SOL    HW259531   5.169   6.306   2.241
85900SOL     OW59532  13.472   8.396   9.139
85900SOL    HW159533  13.470   8.307   9.101
85900SOL    HW259534  13.548   8.395   9.197
85901SOL     OW59535   4.936   1.736   7.522
85901SOL    HW159536   4.945   1.711   7.614
85901SOL    HW259537   4.864   1.799   7.521
85902SOL     OW59538   2.297  12.124  14.597
85902SOL    HW159539   2.219  12.162  14.638
85902SOL    HW259540   2.267  12.092  14.512
85903SOL     OW59541   0.926   4.068   7.173
85903SOL    HW159542   0.844   4.105   7.140
85903SOL    HW259543   0.985   4.070   7.098
85904SOL     OW59544   8.994  12.626   0.447
85904SOL    HW159545   9.024  12.646   0.536
85904SOL    HW259546   8.899  12.629   0.453
85905SOL     OW59547   7.207   3.827   3.170
85905SOL    HW159548   7.163   3.809   3.253
85905SOL    HW259549   7.144   3.877   3.119
85906SOL     OW59550   1.384  14.077   4.277
85906SOL    HW159551   1.395  13.992   4.235
85906SOL    HW259552   1.379  14.056   4.370
85907SOL     OW59553  12.526  10.951   0.588
85907SOL    HW159554  12.613  10.969   0.625
85907SOL    HW259555  12.535  10.969   0.495
85908SOL     OW59556  11.361  11.169  12.149
85908SOL    HW159557  11.419  11.244  12.136
85908SOL    HW259558  11.356  11.160  12.244
85909SOL     OW59559   3.831   9.277   0.086
85909SOL    HW159560   3.795   9.270  14.871
85909SOL    HW259561   3.883   9.358   0.085
85910SOL     OW59562  11.650  13.771   8.480
85910SOL    HW159563  11.671  13.821   8.559
85910SOL    HW259564  11.681  13.826   8.408
85911SOL     OW59565  11.596   3.564  12.658
85911SOL    HW159566  11.558   3.649  12.681
85911SOL    HW259567  11.544   3.536  12.582
85912SOL     OW59568   3.132   1.687  12.580
85912SOL    HW159569   3.142   1.700  12.485
85912SOL    HW259570   3.174   1.604  12.597
85913SOL     OW59571   8.937  14.013  10.864
85913SOL    HW159572   8.904  13.978  10.947
85913SOL    HW259573   9.024  13.976  10.854
85914SOL     OW59574   2.496  14.431   1.116
85914SOL    HW159575   2.402  14.442   1.127
85914SOL    HW259576   2.507  14.346   1.074
85915SOL     OW59577  10.184  11.409   8.995
85915SOL    HW159578  10.175  11.502   9.015
85915SOL    HW259579  10.273  11.388   9.023
85916SOL     OW59580   6.044   6.922   7.977
85916SOL    HW159581   6.082   6.845   7.934
85916SOL    HW259582   6.051   6.904   8.071
85917SOL     OW59583   8.262   2.246   5.145
85917SOL    HW159584   8.325   2.318   5.139
85917SOL    HW259585   8.313   2.173   5.180
85918SOL     OW59586   3.846   5.923  11.446
85918SOL    HW159587   3.798   5.844  11.471
85918SOL    HW259588   3.863   5.967  11.529
85919SOL     OW59589  10.129  12.408   5.499
85919SOL    HW159590  10.199  12.463   5.533
85919SOL    HW259591  10.134  12.328   5.551
85920SOL     OW59592   2.195  14.680   6.163
85920SOL    HW159593   2.133  14.752   6.147
85920SOL    HW259594   2.144  14.615   6.211
85921SOL     OW59595   2.206  13.556   3.123
85921SOL    HW159596   2.295  13.546   3.157
85921SOL    HW259597   2.174  13.466   3.113
85922SOL     OW59598   9.636   9.459  13.130
85922SOL    HW159599   9.615   9.368  13.150
85922SOL    HW259600   9.557   9.508  13.152
85923SOL     OW59601   8.075  11.538  13.999
85923SOL    HW159602   8.011  11.497  14.056
85923SOL    HW259603   8.032  11.618  13.968
85924SOL     OW59604  13.059  10.201   1.779
85924SOL    HW159605  13.134  10.189   1.836
85924SOL    HW259606  13.000  10.258   1.828
85925SOL     OW59607   5.893   3.163   7.969
85925SOL    HW159608   5.966   3.109   7.938
85925SOL    HW259609   5.836   3.103   8.016
85926SOL     OW59610   8.249   5.284   8.728
85926SOL    HW159611   8.293   5.341   8.791
85926SOL    HW259612   8.241   5.337   8.649
85927SOL     OW59613   9.192  10.091  14.521
85927SOL    HW159614   9.263  10.154  14.531
85927SOL    HW259615   9.212  10.045  14.439
85928SOL     OW59616   2.063   6.852  14.181
85928SOL    HW159617   2.058   6.881  14.272
85928SOL    HW259618   1.994   6.786  14.174
85929SOL     OW59619  12.124   2.705   5.741
85929SOL    HW159620  12.088   2.625   5.778
85929SOL    HW259621  12.219   2.697   5.754
85930SOL     OW59622   3.274   2.383   6.184
85930SOL    HW159623   3.222   2.382   6.104
85930SOL    HW259624   3.302   2.292   6.195
85931SOL     OW59625   2.949   6.861  14.362
85931SOL    HW159626   2.911   6.889  14.279
85931SOL    HW259627   2.998   6.937  14.394
85932SOL     OW59628  12.549  12.394  10.774
85932SOL    HW159629  12.555  12.362  10.684
85932SOL    HW259630  12.592  12.327  10.826
85933SOL     OW59631  11.341  13.415  11.813
85933SOL    HW159632  11.246  13.416  11.807
85933SOL    HW259633  11.366  13.327  11.783
85934SOL     OW59634   6.450   6.923  14.340
85934SOL    HW159635   6.370   6.975  14.329
85934SOL    HW259636   6.426   6.836  14.308
85935SOL     OW59637  13.232   1.581   1.350
85935SOL    HW159638  13.301   1.612   1.408
85935SOL    HW259639  13.209   1.658   1.297
85936SOL     OW59640   9.061  10.945   4.731
85936SOL    HW159641   9.010  10.972   4.655
85936SOL    HW259642   9.032  10.855   4.748
85937SOL     OW59643  12.159   5.837   9.207
85937SOL    HW159644  12.077   5.859   9.162
85937SOL    HW259645  12.132   5.812   9.295
85938SOL     OW59646   2.392   4.927  12.580
85938SOL    HW159647   2.397   5.003  12.523
85938SOL    HW259648   2.311   4.883  12.556
85939SOL     OW59649   3.923   1.834   7.638
85939SOL    HW159650   3.837   1.866   7.613
85939SOL    HW259651   3.920   1.740   7.622
85940SOL     OW59652   0.931   1.973   2.357
85940SOL    HW159653   0.927   2.038   2.427
85940SOL    HW259654   1.024   1.967   2.335
85941SOL     OW59655  12.190   7.228  11.422
85941SOL    HW159656  12.240   7.153  11.389
85941SOL    HW259657  12.105   7.191  11.446
85942SOL     OW59658  11.846   7.827  14.429
85942SOL    HW159659  11.819   7.829  14.521
85942SOL    HW259660  11.940   7.849  14.432
85943SOL     OW59661   3.399  13.757   9.239
85943SOL    HW159662   3.332  13.780   9.175
85943SOL    HW259663   3.448  13.686   9.198
85944SOL     OW59664   4.151  11.337   3.626
85944SOL    HW159665   4.236  11.338   3.581
85944SOL    HW259666   4.097  11.399   3.576
85945SOL     OW59667   9.661   5.768   6.570
85945SOL    HW159668   9.635   5.737   6.483
85945SOL    HW259669   9.734   5.711   6.594
85946SOL     OW59670   3.790  14.359   0.727
85946SOL    HW159671   3.706  14.376   0.770
85946SOL    HW259672   3.811  14.441   0.682
85947SOL     OW59673   6.956   9.946  14.025
85947SOL    HW159674   6.968   9.852  14.038
85947SOL    HW259675   6.922   9.977  14.108
85948SOL     OW59676   2.011   0.380  13.968
85948SOL    HW159677   2.003   0.468  14.005
85948SOL    HW259678   1.931   0.336  13.995
85949SOL     OW59679   2.692  10.868   1.809
85949SOL    HW159680   2.754  10.941   1.811
85949SOL    HW259681   2.679  10.846   1.901
85950SOL     OW59682   2.992   2.113   1.047
85950SOL    HW159683   2.909   2.114   0.999
85950SOL    HW259684   3.027   2.025   1.033
85951SOL     OW59685   3.637  11.115  11.642
85951SOL    HW159686   3.551  11.131  11.680
85951SOL    HW259687   3.695  11.101  11.718
85952SOL     OW59688   1.093  13.815  13.979
85952SOL    HW159689   1.108  13.826  13.885
85952SOL    HW259690   1.069  13.723  13.989
85953SOL     OW59691  10.350  12.736   9.004
85953SOL    HW159692  10.342  12.679   8.927
85953SOL    HW259693  10.443  12.738   9.023
85954SOL     OW59694   9.385  11.108   5.349
85954SOL    HW159695   9.450  11.108   5.279
85954SOL    HW259696   9.426  11.157   5.420
85955SOL     OW59697  12.655   6.052  13.087
85955SOL    HW159698  12.566   6.075  13.115
85955SOL    HW259699  12.642   5.989  13.016
85956SOL     OW59700   9.439  14.591  11.251
85956SOL    HW159701   9.355  14.623  11.282
85956SOL    HW259702   9.425  14.498  11.235
85957SOL     OW59703   2.228  14.179   3.265
85957SOL    HW159704   2.175  14.207   3.339
85957SOL    HW259705   2.182  14.213   3.188
85958SOL     OW59706   3.813   4.581  12.794
85958SOL    HW159707   3.809   4.648  12.862
85958SOL    HW259708   3.902   4.546  12.800
85959SOL     OW59709  14.469  14.481  12.661
85959SOL    HW159710  14.561  14.457  12.655
85959SOL    HW259711  14.469  14.567  12.702
85960SOL     OW59712   7.294   7.331  13.156
85960SOL    HW159713   7.249   7.345  13.239
85960SOL    HW259714   7.354   7.405  13.147
85961SOL     OW59715   5.590  10.312  11.914
85961SOL    HW159716   5.527  10.247  11.883
85961SOL    HW259717   5.642  10.265  11.979
85962SOL     OW59718  11.780   0.823   9.646
85962SOL    HW159719  11.692   0.784   9.643
85962SOL    HW259720  11.765   0.915   9.623
85963SOL     OW59721   9.381   8.550   5.974
85963SOL    HW159722   9.311   8.569   5.912
85963SOL    HW259723   9.367   8.459   6.000
85964SOL     OW59724   9.805   8.725   3.089
85964SOL    HW159725   9.777   8.740   2.999
85964SOL    HW259726   9.776   8.802   3.137
85965SOL     OW59727   5.198   9.266   5.969
85965SOL    HW159728   5.232   9.355   5.980
85965SOL    HW259729   5.123   9.276   5.911
85966SOL     OW59730   0.922   6.593   3.541
85966SOL    HW159731   0.946   6.502   3.553
85966SOL    HW259732   0.932   6.633   3.628
85967SOL     OW59733   7.476  12.584   4.871
85967SOL    HW159734   7.493  12.657   4.930
85967SOL    HW259735   7.472  12.623   4.784
85968SOL     OW59736   8.993   5.806   1.485
85968SOL    HW159737   8.927   5.862   1.443
85968SOL    HW259738   8.986   5.828   1.578
85969SOL     OW59739   8.084   3.000   5.520
85969SOL    HW159740   8.168   2.955   5.517
85969SOL    HW259741   8.021   2.938   5.483
85970SOL     OW59742   4.679   9.383   7.092
85970SOL    HW159743   4.681   9.327   7.169
85970SOL    HW259744   4.590   9.417   7.088
85971SOL     OW59745  13.208   6.930   5.776
85971SOL    HW159746  13.161   6.866   5.829
85971SOL    HW259747  13.187   6.907   5.685
85972SOL     OW59748   8.600   9.621  13.794
85972SOL    HW159749   8.540   9.559  13.835
85972SOL    HW259750   8.544   9.679  13.742
85973SOL     OW59751  13.862   9.518   4.545
85973SOL    HW159752  13.921   9.540   4.473
85973SOL    HW259753  13.893   9.433   4.576
85974SOL     OW59754   3.179   1.892  13.755
85974SOL    HW159755   3.174   1.806  13.713
85974SOL    HW259756   3.089   1.924  13.756
85975SOL     OW59757   1.960  13.144   2.649
85975SOL    HW159758   1.938  13.051   2.641
85975SOL    HW259759   2.027  13.148   2.716
85976SOL     OW59760   6.209   1.303   2.462
85976SOL    HW159761   6.248   1.287   2.376
85976SOL    HW259762   6.269   1.261   2.523
85977SOL     OW59763  14.017   8.852  10.866
85977SOL    HW159764  14.043   8.766  10.900
85977SOL    HW259765  14.057   8.857  10.780
85978SOL     OW59766  11.911  11.963  11.523
85978SOL    HW159767  11.901  11.868  11.515
85978SOL    HW259768  12.004  11.979  11.509
85979SOL     OW59769   9.795   5.608   3.460
85979SOL    HW159770   9.745   5.679   3.420
85979SOL    HW259771   9.884   5.642   3.466
85980SOL     OW59772  13.416   5.829   7.091
85980SOL    HW159773  13.420   5.807   7.184
85980SOL    HW259774  13.337   5.786   7.058
85981SOL     OW59775   0.785   3.839   8.840
85981SOL    HW159776   0.747   3.905   8.783
85981SOL    HW259777   0.833   3.781   8.782
85982SOL     OW59778  12.928   7.754  12.315
85982SOL    HW159779  12.894   7.840  12.289
85982SOL    HW259780  13.010   7.745  12.268
85983SOL     OW59781  10.479   1.645  11.332
85983SOL    HW159782  10.487   1.561  11.378
85983SOL    HW259783  10.479   1.621  11.239
85984SOL     OW59784   2.648   3.945   3.124
85984SOL    HW159785   2.596   3.924   3.201
85984SOL    HW259786   2.693   3.864   3.102
85985SOL     OW59787  10.470   0.213   5.159
85985SOL    HW159788  10.514   0.163   5.091
85985SOL    HW259789  10.528   0.209   5.235
85986SOL     OW59790   5.638  11.051   8.754
85986SOL    HW159791   5.732  11.036   8.747
85986SOL    HW259792   5.601  11.007   8.678
85987SOL     OW59793   2.000   4.340   7.300
85987SOL    HW159794   2.025   4.428   7.272
85987SOL    HW259795   2.056   4.282   7.249
85988SOL     OW59796   0.328   1.237  12.596
85988SOL    HW159797   0.315   1.175  12.525
85988SOL    HW259798   0.347   1.183  12.673
85989SOL     OW59799  14.436   4.901  13.640
85989SOL    HW159800  14.445   4.949  13.557
85989SOL    HW259801  14.487   4.821  13.627
85990SOL     OW59802   3.257   5.242   0.601
85990SOL    HW159803   3.289   5.156   0.628
85990SOL    HW259804   3.310   5.265   0.525
85991SOL     OW59805   3.185   4.353  11.706
85991SOL    HW159806   3.281   4.349  11.708
85991SOL    HW259807   3.164   4.438  11.744
85992SOL     OW59808   3.656  11.483  10.363
85992SOL    HW159809   3.725  11.539  10.327
85992SOL    HW259810   3.576  11.535  10.355
85993SOL     OW59811   3.903  10.911  11.602
85993SOL    HW159812   3.947  10.874  11.526
85993SOL    HW259813   3.832  10.964  11.566
85994SOL     OW59814   2.146   9.073  11.799
85994SOL    HW159815   2.146   8.981  11.826
85994SOL    HW259816   2.142   9.071  11.704
85995SOL     OW59817   6.846   9.010   4.648
85995SOL    HW159818   6.824   9.098   4.680
85995SOL    HW259819   6.784   8.993   4.577
85996SOL     OW59820   1.673   3.048  14.432
85996SOL    HW159821   1.711   3.041  14.520
85996SOL    HW259822   1.582   3.020  14.443
85997SOL     OW59823   9.121  14.775  13.752
85997SOL    HW159824   9.098  14.787  13.844
85997SOL    HW259825   9.118  14.864  13.716
85998SOL     OW59826   2.385  11.290  11.167
85998SOL    HW159827   2.350  11.316  11.081
85998SOL    HW259828   2.387  11.370  11.218
85999SOL     OW59829   2.314   2.495   1.105
85999SOL    HW159830   2.325   2.545   1.024
85999SOL    HW259831   2.393   2.441   1.110
86000SOL     OW59832  14.762   9.973   4.369
86000SOL    HW159833  14.784   9.904   4.307
86000SOL    HW259834  14.683   9.943   4.413
86001SOL     OW59835   7.478   3.689   8.867
86001SOL    HW159836   7.507   3.606   8.829
86001SOL    HW259837   7.452   3.742   8.791
86002SOL     OW59838   7.178  10.460   8.709
86002SOL    HW159839   7.213  10.453   8.797
86002SOL    HW259840   7.091  10.421   8.714
86003SOL     OW59841   7.910  10.084   6.527
86003SOL    HW159842   7.859  10.101   6.448
86003SOL    HW259843   7.960  10.004   6.507
86004SOL     OW59844   4.792   1.927   5.153
86004SOL    HW159845   4.829   1.983   5.221
86004SOL    HW259846   4.856   1.929   5.082
86005SOL     OW59847   3.140  14.782   1.073
86005SOL    HW159848   3.153  14.702   1.021
86005SOL    HW259849   3.095  14.752   1.152
86006SOL     OW59850   6.206   8.435   9.807
86006SOL    HW159851   6.142   8.397   9.868
86006SOL    HW259852   6.268   8.364   9.790
86007SOL     OW59853   6.845  14.186   9.194
86007SOL    HW159854   6.773  14.248   9.204
86007SOL    HW259855   6.818  14.129   9.122
86008SOL     OW59856  14.407   2.851  10.132
86008SOL    HW159857  14.409   2.861  10.036
86008SOL    HW259858  14.449   2.766  10.147
86009SOL     OW59859   9.874   0.360   2.352
86009SOL    HW159860   9.941   0.386   2.290
86009SOL    HW259861   9.904   0.275   2.386
86010SOL     OW59862   5.063  13.594  11.660
86010SOL    HW159863   5.021  13.577  11.576
86010SOL    HW259864   5.000  13.647  11.709
86011SOL     OW59865  12.664   3.320   8.509
86011SOL    HW159866  12.745   3.293   8.466
86011SOL    HW259867  12.641   3.246   8.566
86012SOL     OW59868   2.945   4.655   6.716
86012SOL    HW159869   2.920   4.652   6.808
86012SOL    HW259870   2.920   4.742   6.687
86013SOL     OW59871  10.306   9.669  10.982
86013SOL    HW159872  10.377   9.619  11.024
86013SOL    HW259873  10.298   9.630  10.895
86014SOL     OW59874   5.430   0.809   6.915
86014SOL    HW159875   5.495   0.836   6.980
86014SOL    HW259876   5.481   0.761   6.849
86015SOL     OW59877   9.804   5.205   9.983
86015SOL    HW159878   9.832   5.166  10.066
86015SOL    HW259879   9.758   5.134   9.937
86016SOL     OW59880   7.713   3.890   2.833
86016SOL    HW159881   7.735   3.812   2.782
86016SOL    HW259882   7.633   3.923   2.792
86017SOL     OW59883   1.074   4.668   9.379
86017SOL    HW159884   1.058   4.574   9.370
86017SOL    HW259885   1.129   4.691   9.305
86018SOL     OW59886  12.290   0.701   0.911
86018SOL    HW159887  12.238   0.686   0.990
86018SOL    HW259888  12.253   0.639   0.847
86019SOL     OW59889   7.166  10.587   3.113
86019SOL    HW159890   7.092  10.546   3.068
86019SOL    HW259891   7.166  10.547   3.200
86020SOL     OW59892  13.707  12.493   0.010
86020SOL    HW159893  13.729  12.428   0.077
86020SOL    HW259894  13.779  12.490  14.820
86021SOL     OW59895   1.401   3.696  12.977
86021SOL    HW159896   1.310   3.722  12.992
86021SOL    HW259897   1.410   3.695  12.881
86022SOL     OW59898  13.333   6.332  14.199
86022SOL    HW159899  13.362   6.264  14.138
86022SOL    HW259900  13.271   6.287  14.257
86023SOL     OW59901   2.576   7.566   1.749
86023SOL    HW159902   2.609   7.624   1.818
86023SOL    HW259903   2.549   7.487   1.795
86024SOL     OW59904  14.428  14.324  12.314
86024SOL    HW159905  14.461  14.242  12.276
86024SOL    HW259906  14.443  14.314  12.408
86025SOL     OW59907  14.548   0.274   5.814
86025SOL    HW159908  14.462   0.247   5.782
86025SOL    HW259909  14.564   0.217   5.889
86026SOL     OW59910  11.007   8.719   1.283
86026SOL    HW159911  10.959   8.733   1.364
86026SOL    HW259912  11.051   8.635   1.296
86027SOL     OW59913   1.598   0.518   6.674
86027SOL    HW159914   1.532   0.460   6.713
86027SOL    HW259915   1.567   0.606   6.693
86028SOL     OW59916  11.305  11.968   0.309
86028SOL    HW159917  11.302  12.030   0.382
86028SOL    HW259918  11.398  11.945   0.301
86029SOL     OW59919  13.557   9.123   6.187
86029SOL    HW159920  13.519   9.197   6.141
86029SOL    HW259921  13.569   9.154   6.277
86030SOL     OW59922   6.688   6.967   6.687
86030SOL    HW159923   6.624   6.990   6.620
86030SOL    HW259924   6.740   6.896   6.648
86031SOL     OW59925   5.395  14.255   7.005
86031SOL    HW159926   5.410  14.165   6.975
86031SOL    HW259927   5.478  14.281   7.045
86032SOL     OW59928   5.002  10.655   8.068
86032SOL    HW159929   5.095  10.663   8.090
86032SOL    HW259930   4.958  10.652   8.153
86033SOL     OW59931   5.460   2.834  10.629
86033SOL    HW159932   5.483   2.908  10.574
86033SOL    HW259933   5.415   2.773  10.571
86034SOL     OW59934   2.769   4.575   4.216
86034SOL    HW159935   2.840   4.640   4.220
86034SOL    HW259936   2.689   4.627   4.212
86035SOL     OW59937   9.685  14.854   4.581
86035SOL    HW159938   9.762  14.859   4.636
86035SOL    HW259939   9.669   0.072   4.554
86036SOL     OW59940   3.624   5.123   2.354
86036SOL    HW159941   3.675   5.201   2.376
86036SOL    HW259942   3.648   5.103   2.264
86037SOL     OW59943   5.777   3.490  12.972
86037SOL    HW159944   5.870   3.465  12.974
86037SOL    HW259945   5.763   3.519  12.882
86038SOL     OW59946   0.948   7.194   8.917
86038SOL    HW159947   1.011   7.122   8.917
86038SOL    HW259948   0.896   7.181   8.837
86039SOL     OW59949   2.926   3.620   5.065
86039SOL    HW159950   2.849   3.677   5.065
86039SOL    HW259951   2.977   3.649   5.140
86040SOL     OW59952   9.506   7.336   4.577
86040SOL    HW159953   9.510   7.246   4.610
86040SOL    HW259954   9.584   7.379   4.613
86041SOL     OW59955   0.630  11.525   1.412
86041SOL    HW159956   0.680  11.447   1.391
86041SOL    HW259957   0.571  11.498   1.483
86042SOL     OW59958  13.670   0.947   1.449
86042SOL    HW159959  13.648   0.971   1.539
86042SOL    HW259960  13.588   0.913   1.412
86043SOL     OW59961  13.957   2.764  13.940
86043SOL    HW159962  13.993   2.697  13.999
86043SOL    HW259963  13.904   2.714  13.877
86044SOL     OW59964   3.086   3.397   8.242
86044SOL    HW159965   3.080   3.493   8.239
86044SOL    HW259966   3.163   3.376   8.189
86045SOL     OW59967   6.728   4.792   4.233
86045SOL    HW159968   6.799   4.845   4.197
86045SOL    HW259969   6.767   4.706   4.248
86046SOL     OW59970   9.066   2.222   4.968
86046SOL    HW159971   9.098   2.239   4.880
86046SOL    HW259972   8.997   2.287   4.983
86047SOL     OW59973   5.220  11.677   5.011
86047SOL    HW159974   5.220  11.659   4.917
86047SOL    HW259975   5.304  11.722   5.026
86048SOL     OW59976   8.410  10.807  12.714
86048SOL    HW159977   8.368  10.742  12.771
86048SOL    HW259978   8.340  10.837  12.656
86049SOL     OW59979   6.926   5.312   8.432
86049SOL    HW159980   6.910   5.399   8.467
86049SOL    HW259981   6.869   5.254   8.483
86050SOL     OW59982  12.552   8.450   2.374
86050SOL    HW159983  12.612   8.520   2.347
86050SOL    HW259984  12.510   8.483   2.453
86051SOL     OW59985  14.402   1.876   4.437
86051SOL    HW159986  14.491   1.909   4.424
86051SOL    HW259987  14.393   1.869   4.532
86052SOL     OW59988  12.054   4.265  10.960
86052SOL    HW159989  12.121   4.307  10.907
86052SOL    HW259990  12.099   4.193  11.005
86053SOL     OW59991   6.989   6.020   9.661
86053SOL    HW159992   6.935   6.052   9.589
86053SOL    HW259993   7.067   5.985   9.619
86054SOL     OW59994  11.107  13.015  14.065
86054SOL    HW159995  11.055  12.943  14.100
86054SOL    HW259996  11.185  13.017  14.120
86055SOL     OW59997   8.689   8.289  13.850
86055SOL    HW159998   8.606   8.316  13.809
86055SOL    HW259999   8.730   8.232  13.785
86056SOL     OW60000   5.667   8.998   4.318
86056SOL    HW160001   5.685   8.911   4.354
86056SOL    HW260002   5.685   9.058   4.390
86057SOL     OW60003   5.173  10.526  14.173
86057SOL    HW160004   5.173  10.603  14.117
86057SOL    HW260005   5.171  10.561  14.262
86058SOL     OW60006   1.762   6.313   5.068
86058SOL    HW160007   1.789   6.234   5.021
86058SOL    HW260008   1.842   6.365   5.074
86059SOL     OW60009  12.773  13.205  11.099
86059SOL    HW160010  12.827  13.170  11.171
86059SOL    HW260011  12.704  13.254  11.143
86060SOL     OW60012   4.621   0.076  12.716
86060SOL    HW160013   4.704   0.116  12.689
86060SOL    HW260014   4.554   0.135  12.684
86061SOL     OW60015   1.043   7.605  10.477
86061SOL    HW160016   0.967   7.658  10.499
86061SOL    HW260017   1.032   7.525  10.527
86062SOL     OW60018   3.470   3.032   6.539
86062SOL    HW160019   3.448   2.957   6.483
86062SOL    HW260020   3.412   3.023   6.614
86063SOL     OW60021  13.485   0.380   7.154
86063SOL    HW160022  13.495   0.398   7.248
86063SOL    HW260023  13.503   0.464   7.112
86064SOL     OW60024  14.839   7.062   1.452
86064SOL    HW160025  14.824   6.978   1.408
86064SOL    HW260026  14.753   7.102   1.458
86065SOL     OW60027   8.294  10.303   2.252
86065SOL    HW160028   8.222  10.240   2.244
86065SOL    HW260029   8.314  10.305   2.345
86066SOL     OW60030   5.317  14.108   9.970
86066SOL    HW160031   5.229  14.125  10.004
86066SOL    HW260032   5.364  14.068  10.043
86067SOL     OW60033   6.358   1.551   3.700
86067SOL    HW160034   6.304   1.554   3.779
86067SOL    HW260035   6.323   1.620   3.644
86068SOL     OW60036   5.258   0.694  11.674
86068SOL    HW160037   5.344   0.736  11.672
86068SOL    HW260038   5.272   0.614  11.724
86069SOL     OW60039   4.435   4.777   3.445
86069SOL    HW160040   4.461   4.798   3.534
86069SOL    HW260041   4.408   4.685   3.449
86070SOL     OW60042   8.530  14.274   8.625
86070SOL    HW160043   8.617  14.313   8.623
86070SOL    HW260044   8.528  14.223   8.706
86071SOL     OW60045  12.180  13.891   6.369
86071SOL    HW160046  12.250  13.826   6.362
86071SOL    HW260047  12.124  13.858   6.439
86072SOL     OW60048   6.343  10.895   5.806
86072SOL    HW160049   6.324  10.827   5.742
86072SOL    HW260050   6.258  10.923   5.839
86073SOL     OW60051   5.878   2.216   5.592
86073SOL    HW160052   5.882   2.310   5.605
86073SOL    HW260053   5.797   2.189   5.635
86074SOL     OW60054   8.599   3.003   3.622
86074SOL    HW160055   8.532   2.946   3.585
86074SOL    HW260056   8.664   2.944   3.659
86075SOL     OW60057   3.173   6.462   7.572
86075SOL    HW160058   3.158   6.399   7.501
86075SOL    HW260059   3.265   6.451   7.595
86076SOL     OW60060   0.041  10.839   6.448
86076SOL    HW160061  14.848  10.812   6.384
86076SOL    HW260062   0.049  10.934   6.436
86077SOL     OW60063   6.715   0.678  12.733
86077SOL    HW160064   6.802   0.640  12.747
86077SOL    HW260065   6.689   0.647  12.647
86078SOL     OW60066  10.011  11.916   1.500
86078SOL    HW160067   9.969  11.938   1.584
86078SOL    HW260068  10.006  11.997   1.449
86079SOL     OW60069  13.222   7.654   2.641
86079SOL    HW160070  13.298   7.598   2.625
86079SOL    HW260071  13.212   7.704   2.560
86080SOL     OW60072  10.172   4.896   7.106
86080SOL    HW160073  10.235   4.824   7.109
86080SOL    HW260074  10.110   4.870   7.038
86081SOL     OW60075  12.323   1.938   0.861
86081SOL    HW160076  12.243   1.891   0.835
86081SOL    HW260077  12.373   1.945   0.780
86082SOL     OW60078   1.688   2.239  13.661
86082SOL    HW160079   1.773   2.269  13.692
86082SOL    HW260080   1.635   2.319  13.655
86083SOL     OW60081   4.783   4.994   3.950
86083SOL    HW160082   4.714   5.054   3.922
86083SOL    HW260083   4.756   4.966   4.038
86084SOL     OW60084   7.489  12.068   7.825
86084SOL    HW160085   7.481  12.152   7.781
86084SOL    HW260086   7.425  12.012   7.782
86085SOL     OW60087  13.030   8.051   9.098
86085SOL    HW160088  13.089   8.071   9.170
86085SOL    HW260089  12.960   8.116   9.104
86086SOL     OW60090   7.239   5.589   4.179
86086SOL    HW160091   7.165   5.535   4.153
86086SOL    HW260092   7.229   5.599   4.274
86087SOL     OW60093   0.505   2.224   5.242
86087SOL    HW160094   0.598   2.243   5.232
86087SOL    HW260095   0.465   2.309   5.262
86088SOL     OW60096   3.063   1.301   9.023
86088SOL    HW160097   3.097   1.275   8.937
86088SOL    HW260098   3.003   1.373   9.003
86089SOL     OW60099  11.615  12.638   3.534
86089SOL    HW160100  11.539  12.635   3.475
86089SOL    HW260101  11.684  12.592   3.486
86090SOL     OW60102   5.886   0.468   0.195
86090SOL    HW160103   5.860   0.379   0.220
86090SOL    HW260104   5.823   0.524   0.241
86091SOL     OW60105   9.179   8.602   0.245
86091SOL    HW160106   9.260   8.640   0.278
86091SOL    HW260107   9.143   8.554   0.320
86092SOL     OW60108   5.608   1.667  12.071
86092SOL    HW160109   5.643   1.745  12.028
86092SOL    HW260110   5.521   1.693  12.101
86093SOL     OW60111   1.470   0.703  14.581
86093SOL    HW160112   1.559   0.693  14.614
86093SOL    HW260113   1.415   0.669  14.651
86094SOL     OW60114   3.289  12.572   0.740
86094SOL    HW160115   3.237  12.651   0.728
86094SOL    HW260116   3.291  12.559   0.835
86095SOL     OW60117  12.521   0.081   1.452
86095SOL    HW160118  12.521   0.065   1.547
86095SOL    HW260119  12.441   0.038   1.421
86096SOL     OW60120   1.782   3.843   1.211
86096SOL    HW160121   1.762   3.930   1.178
86096SOL    HW260122   1.875   3.847   1.235
86097SOL     OW60123   2.882   5.433   6.546
86097SOL    HW160124   2.895   5.519   6.587
86097SOL    HW260125   2.795   5.406   6.575
86098SOL     OW60126   7.096  10.668  12.740
86098SOL    HW160127   7.149  10.726  12.795
86098SOL    HW260128   7.009  10.670  12.780
86099SOL     OW60129   7.351  14.368   8.233
86099SOL    HW160130   7.283  14.325   8.283
86099SOL    HW260131   7.339  14.461   8.251
86100SOL     OW60132  12.831   4.451  12.634
86100SOL    HW160133  12.794   4.521  12.688
86100SOL    HW260134  12.838   4.489  12.547
86101SOL     OW60135  11.977   9.046  14.126
86101SOL    HW160136  12.065   9.014  14.107
86101SOL    HW260137  11.977   9.137  14.099
86102SOL     OW60138  14.737   7.725   3.071
86102SOL    HW160139  14.718   7.809   3.112
86102SOL    HW260140  14.697   7.660   3.130
86103SOL     OW60141  14.416   1.428   8.794
86103SOL    HW160142  14.411   1.516   8.831
86103SOL    HW260143  14.325   1.404   8.777
86104SOL     OW60144   1.209   3.796   2.062
86104SOL    HW160145   1.158   3.849   2.123
86104SOL    HW260146   1.295   3.789   2.102
86105SOL     OW60147   1.467  14.284   9.652
86105SOL    HW160148   1.427  14.367   9.625
86105SOL    HW260149   1.552  14.310   9.689
86106SOL     OW60150  13.810   7.620   9.616
86106SOL    HW160151  13.716   7.621   9.629
86106SOL    HW260152  13.822   7.580   9.530
86107SOL     OW60153  12.488  10.118  11.782
86107SOL    HW160154  12.418  10.058  11.807
86107SOL    HW260155  12.530  10.140  11.865
86108SOL     OW60156   2.144   1.667   9.716
86108SOL    HW160157   2.194   1.732   9.765
86108SOL    HW260158   2.131   1.707   9.630
86109SOL     OW60159  12.740   3.697  11.813
86109SOL    HW160160  12.773   3.755  11.881
86109SOL    HW260161  12.653   3.672  11.843
86110SOL     OW60162  11.208   8.011   3.624
86110SOL    HW160163  11.291   8.013   3.672
86110SOL    HW260164  11.233   8.001   3.532
86111SOL     OW60165  14.099   4.384   7.400
86111SOL    HW160166  14.123   4.421   7.315
86111SOL    HW260167  14.012   4.420   7.418
86112SOL     OW60168  14.842  10.323   6.109
86112SOL    HW160169   0.034  10.282   6.166
86112SOL    HW260170   0.021  10.370   6.044
86113SOL     OW60171   0.996  13.859   1.778
86113SOL    HW160172   1.001  13.872   1.683
86113SOL    HW260173   1.066  13.797   1.798
86114SOL     OW60174   2.682   3.248   3.066
86114SOL    HW160175   2.737   3.325   3.049
86114SOL    HW260176   2.616   3.251   2.997
86115SOL     OW60177   3.948   7.833   1.883
86115SOL    HW160178   3.988   7.756   1.923
86115SOL    HW260179   3.870   7.800   1.839
86116SOL     OW60180   9.044  14.062  13.109
86116SOL    HW160181   9.120  14.059  13.051
86116SOL    HW260182   8.978  14.110  13.059
86117SOL     OW60183  13.315   4.339   4.787
86117SOL    HW160184  13.393   4.345   4.842
86117SOL    HW260185  13.333   4.398   4.714
86118SOL     OW60186   5.908  14.739   4.671
86118SOL    HW160187   5.954  14.822   4.661
86118SOL    HW260188   5.899  14.727   4.766
86119SOL     OW60189   4.525   2.444   5.120
86119SOL    HW160190   4.553   2.518   5.065
86119SOL    HW260191   4.471   2.484   5.188
86120SOL     OW60192   9.802   8.021   5.839
86120SOL    HW160193   9.896   8.011   5.851
86120SOL    HW260194   9.763   7.948   5.887
86121SOL     OW60195  14.735   3.672   7.541
86121SOL    HW160196  14.759   3.686   7.450
86121SOL    HW260197  14.640   3.658   7.539
86122SOL     OW60198   9.140   0.262   6.199
86122SOL    HW160199   9.193   0.306   6.133
86122SOL    HW260200   9.175   0.293   6.282
86123SOL     OW60201  14.346   8.972   1.816
86123SOL    HW160202  14.270   9.024   1.789
86123SOL    HW260203  14.339   8.891   1.766
86124SOL     OW60204  11.886   4.292   6.511
86124SOL    HW160205  11.807   4.307   6.564
86124SOL    HW260206  11.939   4.370   6.525
86125SOL     OW60207  10.725   3.155  13.457
86125SOL    HW160208  10.791   3.214  13.495
86125SOL    HW260209  10.716   3.185  13.367
86126SOL     OW60210   3.783   8.798   0.947
86126SOL    HW160211   3.788   8.816   0.854
86126SOL    HW260212   3.690   8.812   0.969
86127SOL     OW60213   2.795   6.711   2.594
86127SOL    HW160214   2.839   6.634   2.629
86127SOL    HW260215   2.859   6.782   2.606
86128SOL     OW60216   2.648  11.409   4.377
86128SOL    HW160217   2.591  11.472   4.333
86128SOL    HW260218   2.633  11.326   4.331
86129SOL     OW60219   5.712   8.450   8.230
86129SOL    HW160220   5.669   8.395   8.165
86129SOL    HW260221   5.656   8.444   8.307
86130SOL     OW60222  10.155   1.824   5.002
86130SOL    HW160223  10.093   1.752   5.016
86130SOL    HW260224  10.212   1.822   5.079
86131SOL     OW60225   2.301  14.475   8.447
86131SOL    HW160226   2.288  14.524   8.366
86131SOL    HW260227   2.380  14.512   8.486
86132SOL     OW60228   2.966   4.700   9.267
86132SOL    HW160229   2.951   4.606   9.260
86132SOL    HW260230   3.054   4.713   9.231
86133SOL     OW60231   6.963   9.600   2.991
86133SOL    HW160232   6.868   9.595   2.987
86133SOL    HW260233   6.984   9.592   3.085
86134SOL     OW60234  11.358   9.815   1.581
86134SOL    HW160235  11.382   9.876   1.511
86134SOL    HW260236  11.433   9.757   1.588
86135SOL     OW60237   4.679   4.935   4.192
86135SOL    HW160238   4.642   4.986   4.264
86135SOL    HW260239   4.735   4.870   4.234
86136SOL     OW60240   2.910  11.947   5.313
86136SOL    HW160241   2.855  11.878   5.275
86136SOL    HW260242   2.979  11.961   5.249
86137SOL     OW60243   1.121   1.478   5.820
86137SOL    HW160244   1.086   1.403   5.773
86137SOL    HW260245   1.046   1.535   5.834
86138SOL     OW60246   0.884  12.306  12.171
86138SOL    HW160247   0.933  12.231  12.136
86138SOL    HW260248   0.803  12.307  12.120
86139SOL     OW60249  13.235  11.003   6.147
86139SOL    HW160250  13.233  10.908   6.158
86139SOL    HW260251  13.179  11.037   6.216
86140SOL     OW60252   9.565   5.000   3.061
86140SOL    HW160253   9.507   5.045   3.122
86140SOL    HW260254   9.509   4.936   3.017
86141SOL     OW60255  10.831  11.973   8.427
86141SOL    HW160256  10.897  12.042   8.429
86141SOL    HW260257  10.820  11.952   8.334
86142SOL     OW60258  11.015   5.953  13.920
86142SOL    HW160259  11.005   5.859  13.902
86142SOL    HW260260  11.081   5.982  13.858
86143SOL     OW60261   1.367   7.416   5.740
86143SOL    HW160262   1.423   7.340   5.754
86143SOL    HW260263   1.375   7.436   5.647
86144SOL     OW60264  13.038   9.958   5.808
86144SOL    HW160265  13.124   9.917   5.810
86144SOL    HW260266  13.048  10.036   5.863
86145SOL     OW60267   3.677   9.328   2.658
86145SOL    HW160268   3.586   9.313   2.635
86145SOL    HW260269   3.711   9.241   2.682
86146SOL     OW60270   7.121   0.342   6.402
86146SOL    HW160271   7.139   0.371   6.492
86146SOL    HW260272   7.134   0.247   6.404
86147SOL     OW60273   1.622   8.235   3.403
86147SOL    HW160274   1.693   8.186   3.363
86147SOL    HW260275   1.570   8.267   3.329
86148SOL     OW60276  10.698   1.509   6.633
86148SOL    HW160277  10.615   1.499   6.585
86148SOL    HW260278  10.706   1.427   6.682
86149SOL     OW60279  13.701  12.677   6.353
86149SOL    HW160280  13.692  12.764   6.392
86149SOL    HW260281  13.614  12.638   6.359
86150SOL     OW60282  11.864   1.398   3.530
86150SOL    HW160283  11.911   1.445   3.599
86150SOL    HW260284  11.932   1.356   3.478
86151SOL     OW60285  10.066   1.986   8.257
86151SOL    HW160286  10.107   1.919   8.202
86151SOL    HW260287  10.138   2.020   8.310
86152SOL     OW60288   7.326   5.521   0.715
86152SOL    HW160289   7.358   5.460   0.648
86152SOL    HW260290   7.391   5.591   0.716
86153SOL     OW60291   6.370  10.915   3.448
86153SOL    HW160292   6.295  10.973   3.459
86153SOL    HW260293   6.386  10.914   3.354
86154SOL     OW60294   6.083  13.779  10.301
86154SOL    HW160295   6.044  13.866  10.300
86154SOL    HW260296   6.146  13.782  10.373
86155SOL     OW60297  10.510   7.014   5.935
86155SOL    HW160298  10.492   7.084   5.872
86155SOL    HW260299  10.590   7.041   5.979
86156SOL     OW60300   5.426   0.448   8.009
86156SOL    HW160301   5.449   0.419   7.921
86156SOL    HW260302   5.332   0.466   8.004
86157SOL     OW60303   3.101   8.661   3.815
86157SOL    HW160304   3.115   8.600   3.742
86157SOL    HW260305   3.180   8.715   3.816
86158SOL     OW60306   4.457  13.903  11.189
86158SOL    HW160307   4.473  13.878  11.098
86158SOL    HW260308   4.402  13.833  11.224
86159SOL     OW60309   7.136  10.818   9.326
86159SOL    HW160310   7.126  10.773   9.242
86159SOL    HW260311   7.129  10.911   9.306
86160SOL     OW60312   7.551   8.826   4.192
86160SOL    HW160313   7.511   8.740   4.209
86160SOL    HW260314   7.644   8.812   4.207
86161SOL     OW60315   9.599  12.526  11.075
86161SOL    HW160316   9.614  12.488  11.161
86161SOL    HW260317   9.668  12.591  11.065
86162SOL     OW60318   4.262   5.451   6.877
86162SOL    HW160319   4.277   5.498   6.794
86162SOL    HW260320   4.322   5.377   6.874
86163SOL     OW60321   8.367   6.155   6.410
86163SOL    HW160322   8.339   6.236   6.452
86163SOL    HW260323   8.444   6.128   6.461
86164SOL     OW60324   2.218  11.285   6.890
86164SOL    HW160325   2.130  11.307   6.861
86164SOL    HW260326   2.206  11.214   6.952
86165SOL     OW60327   9.132   6.696   8.101
86165SOL    HW160328   9.094   6.655   8.023
86165SOL    HW260329   9.226   6.702   8.081
86166SOL     OW60330   3.494   8.388   3.519
86166SOL    HW160331   3.566   8.329   3.500
86166SOL    HW260332   3.433   8.378   3.446
86167SOL     OW60333  14.577   6.492   6.777
86167SOL    HW160334  14.499   6.480   6.724
86167SOL    HW260335  14.550   6.551   6.848
86168SOL     OW60336   6.773  13.328   9.714
86168SOL    HW160337   6.777  13.394   9.783
86168SOL    HW260338   6.727  13.371   9.642
86169SOL     OW60339   1.202   9.146   4.110
86169SOL    HW160340   1.130   9.112   4.056
86169SOL    HW260341   1.263   9.184   4.047
86170SOL     OW60342  10.445   0.620   5.468
86170SOL    HW160343  10.476   0.581   5.550
86170SOL    HW260344  10.397   0.550   5.424
86171SOL     OW60345   0.496  10.466   2.154
86171SOL    HW160346   0.442  10.544   2.171
86171SOL    HW260347   0.521  10.435   2.241
86172SOL     OW60348  12.133  12.161  10.136
86172SOL    HW160349  12.109  12.114  10.216
86172SOL    HW260350  12.225  12.138  10.122
86173SOL     OW60351   1.011   0.804   6.743
86173SOL    HW160352   1.008   0.855   6.824
86173SOL    HW260353   1.088   0.838   6.696
86174SOL     OW60354   9.903   7.171  14.312
86174SOL    HW160355   9.916   7.254  14.358
86174SOL    HW260356   9.886   7.108  14.381
86175SOL     OW60357   2.123   6.210  13.451
86175SOL    HW160358   2.046   6.255  13.416
86175SOL    HW260359   2.108   6.206  13.545
86176SOL     OW60360   6.311   5.925  11.819
86176SOL    HW160361   6.355   5.998  11.775
86176SOL    HW260362   6.232   5.964  11.858
86177SOL     OW60363  11.353   9.666   9.440
86177SOL    HW160364  11.372   9.751   9.399
86177SOL    HW260365  11.417   9.607   9.401
86178SOL     OW60366   3.769   0.207   1.877
86178SOL    HW160367   3.821   0.284   1.900
86178SOL    HW260368   3.678   0.238   1.880
86179SOL     OW60369  14.460   8.764  11.848
86179SOL    HW160370  14.458   8.734  11.939
86179SOL    HW260371  14.374   8.802  11.833
86180SOL     OW60372   9.672   7.539   9.379
86180SOL    HW160373   9.585   7.578   9.370
86180SOL    HW260374   9.727   7.589   9.319
86181SOL     OW60375  11.741   9.068  13.338
86181SOL    HW160376  11.727   9.134  13.405
86181SOL    HW260377  11.835   9.069  13.321
86182SOL     OW60378  11.705   6.443  13.954
86182SOL    HW160379  11.725   6.505  13.884
86182SOL    HW260380  11.790   6.403  13.976
86183SOL     OW60381  14.759   0.211   6.771
86183SOL    HW160382  14.714   0.253   6.844
86183SOL    HW260383  14.774   0.282   6.708
86184SOL     OW60384  11.572  10.132   5.098
86184SOL    HW160385  11.496  10.171   5.141
86184SOL    HW260386  11.544  10.044   5.075
86185SOL     OW60387  10.676  12.778   3.703
86185SOL    HW160388  10.598  12.833   3.692
86185SOL    HW260389  10.690  12.740   3.616
86186SOL     OW60390  10.511   3.872   4.508
86186SOL    HW160391  10.436   3.894   4.454
86186SOL    HW260392  10.559   3.806   4.458
86187SOL     OW60393   8.680   3.152  14.216
86187SOL    HW160394   8.773   3.134  14.225
86187SOL    HW260395   8.637   3.086  14.271
86188SOL     OW60396   5.366  11.614   7.911
86188SOL    HW160397   5.396  11.666   7.986
86188SOL    HW260398   5.369  11.675   7.838
86189SOL     OW60399   6.216   2.658   1.148
86189SOL    HW160400   6.175   2.702   1.223
86189SOL    HW260401   6.172   2.573   1.143
86190SOL     OW60402  10.460   3.231  14.082
86190SOL    HW160403  10.429   3.155  14.034
86190SOL    HW260404  10.502   3.286  14.016
86191SOL     OW60405  14.854   6.460  13.847
86191SOL    HW160406   0.054   6.520  13.835
86191SOL    HW260407  14.867   6.392  13.780
86192SOL     OW60408   1.451   7.611   9.902
86192SOL    HW160409   1.546   7.619   9.909
86192SOL    HW260410   1.419   7.626   9.991
86193SOL     OW60411   9.865   5.402   6.468
86193SOL    HW160412   9.953   5.364   6.467
86193SOL    HW260413   9.877   5.492   6.438
86194SOL     OW60414   0.086   0.301   2.720
86194SOL    HW160415   0.150   0.231   2.707
86194SOL    HW260416   0.028   0.268   2.789
86195SOL     OW60417   7.762   7.215   5.947
86195SOL    HW160418   7.690   7.155   5.966
86195SOL    HW260419   7.835   7.184   6.001
86196SOL     OW60420   2.596  14.837   8.356
86196SOL    HW160421   2.647   0.016   8.418
86196SOL    HW260422   2.505  14.862   8.372
86197SOL     OW60423   3.860   0.609  13.869
86197SOL    HW160424   3.823   0.637  13.786
86197SOL    HW260425   3.863   0.689  13.922
86198SOL     OW60426   9.997   2.923   7.819
86198SOL    HW160427  10.059   2.852   7.834
86198SOL    HW260428   9.981   2.959   7.907
86199SOL     OW60429  11.596   9.016   0.114
86199SOL    HW160430  11.621   9.106   0.091
86199SOL    HW260431  11.677   8.966   0.105
86200SOL     OW60432   5.541  14.765  13.413
86200SOL    HW160433   5.545  14.774  13.318
86200SOL    HW260434   5.626  14.729  13.437
86201SOL     OW60435   5.305   2.635   6.334
86201SOL    HW160436   5.273   2.724   6.317
86201SOL    HW260437   5.391   2.648   6.373
86202SOL     OW60438   4.285  12.342   9.932
86202SOL    HW160439   4.295  12.423   9.881
86202SOL    HW260440   4.368  12.332   9.978
86203SOL     OW60441  11.566   5.515   7.951
86203SOL    HW160442  11.487   5.555   7.914
86203SOL    HW260443  11.603   5.583   8.007
86204SOL     OW60444   7.466   1.800  10.816
86204SOL    HW160445   7.406   1.870  10.792
86204SOL    HW260446   7.551   1.828  10.782
86205SOL     OW60447   0.316   1.669   1.934
86205SOL    HW160448   0.236   1.626   1.903
86205SOL    HW260449   0.301   1.762   1.917
86206SOL     OW60450   3.171   5.580   2.943
86206SOL    HW160451   3.223   5.636   2.886
86206SOL    HW260452   3.205   5.492   2.928
86207SOL     OW60453   8.586   9.551  10.982
86207SOL    HW160454   8.525   9.574  11.052
86207SOL    HW260455   8.664   9.519  11.028
86208SOL     OW60456   4.469   8.330   0.089
86208SOL    HW160457   4.476   8.335   0.185
86208SOL    HW260458   4.428   8.245   0.072
86209SOL     OW60459   0.685  11.079   0.127
86209SOL    HW160460   0.691  11.155   0.185
86209SOL    HW260461   0.770  11.076   0.084
86210SOL     OW60462   8.386  13.790   9.340
86210SOL    HW160463   8.295  13.804   9.367
86210SOL    HW260464   8.380  13.755   9.251
86211SOL     OW60465   8.424  10.044   7.187
86211SOL    HW160466   8.478  10.120   7.206
86211SOL    HW260467   8.453  10.015   7.100
86212SOL     OW60468   7.987   9.097   8.628
86212SOL    HW160469   8.053   9.114   8.562
86212SOL    HW260470   8.033   9.047   8.696
86213SOL     OW60471  11.148   6.645   8.699
86213SOL    HW160472  11.071   6.693   8.668
86213SOL    HW260473  11.215   6.712   8.710
86214SOL     OW60474   5.953  11.953   4.334
86214SOL    HW160475   6.037  11.993   4.311
86214SOL    HW260476   5.920  12.007   4.407
86215SOL     OW60477   5.192   2.464   0.716
86215SOL    HW160478   5.124   2.407   0.754
86215SOL    HW260479   5.248   2.487   0.791
86216SOL     OW60480  13.356   1.416  11.108
86216SOL    HW160481  13.377   1.365  11.187
86216SOL    HW260482  13.295   1.483  11.139
86217SOL     OW60483  11.529  11.705   4.044
86217SOL    HW160484  11.491  11.791   4.064
86217SOL    HW260485  11.596  11.723   3.978
86218SOL     OW60486  13.337   7.098   9.997
86218SOL    HW160487  13.268   7.100   9.930
86218SOL    HW260488  13.410   7.053   9.955
86219SOL     OW60489   4.308   0.343   6.130
86219SOL    HW160490   4.223   0.331   6.172
86219SOL    HW260491   4.312   0.437   6.112
86220SOL     OW60492  14.731   9.835   9.934
86220SOL    HW160493  14.761   9.914   9.979
86220SOL    HW260494  14.808   9.804   9.886
86221SOL     OW60495  14.547   6.808  14.322
86221SOL    HW160496  14.522   6.861  14.398
86221SOL    HW260497  14.569   6.723  14.359
86222SOL     OW60498  11.130   6.915   5.607
86222SOL    HW160499  11.193   6.959   5.664
86222SOL    HW260500  11.157   6.939   5.519
86223SOL     OW60501   0.996  11.972   1.838
86223SOL    HW160502   0.943  12.003   1.912
86223SOL    HW260503   1.062  11.916   1.877
86224SOL     OW60504  14.420  10.740   1.936
86224SOL    HW160505  14.481  10.674   1.904
86224SOL    HW260506  14.423  10.732   2.031
86225SOL     OW60507   9.737   0.891  14.295
86225SOL    HW160508   9.804   0.823  14.281
86225SOL    HW260509   9.718   0.924  14.208
86226SOL     OW60510   0.214   2.638  10.127
86226SOL    HW160511   0.241   2.694  10.200
86226SOL    HW260512   0.131   2.600  10.156
86227SOL     OW60513  12.591   7.050   2.196
86227SOL    HW160514  12.624   6.978   2.142
86227SOL    HW260515  12.499   7.061   2.168
86228SOL     OW60516   4.370  12.117   5.016
86228SOL    HW160517   4.323  12.040   5.048
86228SOL    HW260518   4.463  12.093   5.023
86229SOL     OW60519  12.203  10.982   7.455
86229SOL    HW160520  12.173  11.071   7.434
86229SOL    HW260521  12.244  10.951   7.374
86230SOL     OW60522   1.063   2.950  13.747
86230SOL    HW160523   1.149   2.914  13.727
86230SOL    HW260524   1.046   2.923  13.837
86231SOL     OW60525   7.344  11.054   8.162
86231SOL    HW160526   7.276  11.120   8.149
86231SOL    HW260527   7.416  11.101   8.204
86232SOL     OW60528  10.539   5.619  12.854
86232SOL    HW160529  10.618   5.573  12.882
86232SOL    HW260530  10.502   5.564  12.785
86233SOL     OW60531  10.337   9.363   9.520
86233SOL    HW160532  10.393   9.286   9.526
86233SOL    HW260533  10.274   9.342   9.451
86234SOL     OW60534   5.846   8.944   6.832
86234SOL    HW160535   5.809   9.015   6.779
86234SOL    HW260536   5.798   8.866   6.805
86235SOL     OW60537   5.239   2.059   4.744
86235SOL    HW160538   5.219   2.109   4.664
86235SOL    HW260539   5.184   2.098   4.811
86236SOL     OW60540  10.721  13.790  11.331
86236SOL    HW160541  10.679  13.875  11.340
86236SOL    HW260542  10.675  13.748  11.258
86237SOL     OW60543   9.413  10.964  11.676
86237SOL    HW160544   9.374  11.011  11.750
86237SOL    HW260545   9.434  10.878  11.711
86238SOL     OW60546  11.043  12.912  12.656
86238SOL    HW160547  11.073  12.892  12.568
86238SOL    HW260548  11.087  12.847  12.712
86239SOL     OW60549   2.473   4.636  13.015
86239SOL    HW160550   2.544   4.614  12.955
86239SOL    HW260551   2.435   4.716  12.977
86240SOL     OW60552  11.035   6.692   5.480
86240SOL    HW160553  11.051   6.776   5.524
86240SOL    HW260554  10.969   6.649   5.534
86241SOL     OW60555  14.096   8.216  13.019
86241SOL    HW160556  14.173   8.161  13.033
86241SOL    HW260557  14.028   8.154  12.990
86242SOL     OW60558   7.844   3.828   7.197
86242SOL    HW160559   7.836   3.828   7.293
86242SOL    HW260560   7.779   3.764   7.168
86243SOL     OW60561  13.863  13.996   5.241
86243SOL    HW160562  13.937  13.966   5.188
86243SOL    HW260563  13.789  13.942   5.212
86244SOL     OW60564   6.693  10.776   9.831
86244SOL    HW160565   6.785  10.795   9.846
86244SOL    HW260566   6.646  10.839   9.887
86245SOL     OW60567   9.111   5.889   4.849
86245SOL    HW160568   9.050   5.820   4.874
86245SOL    HW260569   9.084   5.914   4.761
86246SOL     OW60570   0.042   5.372   9.032
86246SOL    HW160571   0.033   5.299   9.093
86246SOL    HW260572  14.830   5.416   9.036
86247SOL     OW60573   0.249   7.078   6.094
86247SOL    HW160574   0.239   7.089   6.189
86247SOL    HW260575   0.327   7.129   6.072
86248SOL     OW60576   9.128   0.433  11.216
86248SOL    HW160577   9.125   0.417  11.121
86248SOL    HW260578   9.042   0.405  11.247
86249SOL     OW60579   6.472   8.795   3.931
86249SOL    HW160580   6.402   8.821   3.871
86249SOL    HW260581   6.426   8.760   4.007
86250SOL     OW60582   5.955   6.302  14.708
86250SOL    HW160583   5.881   6.316  14.767
86250SOL    HW260584   5.938   6.360  14.634
86251SOL     OW60585   5.126   8.513  11.914
86251SOL    HW160586   5.114   8.554  12.000
86251SOL    HW260587   5.153   8.424  11.934
86252SOL     OW60588   9.745   2.497  12.632
86252SOL    HW160589   9.777   2.504  12.542
86252SOL    HW260590   9.823   2.483  12.684
86253SOL     OW60591   9.190  10.863  13.436
86253SOL    HW160592   9.183  10.798  13.366
86253SOL    HW260593   9.244  10.821  13.503
86254SOL     OW60594  11.401   8.225   8.613
86254SOL    HW160595  11.486   8.194   8.645
86254SOL    HW260596  11.406   8.217   8.518
86255SOL     OW60597   5.733   2.529  12.737
86255SOL    HW160598   5.755   2.480  12.658
86255SOL    HW260599   5.796   2.601  12.739
86256SOL     OW60600   2.166   9.449  10.788
86256SOL    HW160601   2.244   9.470  10.840
86256SOL    HW260602   2.171   9.354  10.775
86257SOL     OW60603   6.368   6.609  13.899
86257SOL    HW160604   6.317   6.568  13.829
86257SOL    HW260605   6.305   6.623  13.970
86258SOL     OW60606   3.485   6.763  14.477
86258SOL    HW160607   3.421   6.833  14.474
86258SOL    HW260608   3.534   6.778  14.558
86259SOL     OW60609   3.448   2.670  12.856
86259SOL    HW160610   3.542   2.689  12.858
86259SOL    HW260611   3.436   2.598  12.917
86260SOL     OW60612  11.973   1.245   6.639
86260SOL    HW160613  11.890   1.200   6.652
86260SOL    HW260614  11.975   1.265   6.546
86261SOL     OW60615   6.469   1.298  12.384
86261SOL    HW160616   6.397   1.235  12.375
86261SOL    HW260617   6.430   1.383  12.362
86262SOL     OW60618   7.446   4.978   4.856
86262SOL    HW160619   7.421   4.895   4.816
86262SOL    HW260620   7.535   4.962   4.889
86263SOL     OW60621   2.874   9.577   7.654
86263SOL    HW160622   2.856   9.506   7.593
86263SOL    HW260623   2.790   9.622   7.663
86264SOL     OW60624   0.326   6.496  13.895
86264SOL    HW160625   0.403   6.544  13.925
86264SOL    HW260626   0.273   6.561  13.849
86265SOL     OW60627   4.371  14.592   1.043
86265SOL    HW160628   4.379  14.534   0.966
86265SOL    HW260629   4.282  14.626   1.038
86266SOL     OW60630   1.525   0.165   6.502
86266SOL    HW160631   1.461   0.151   6.432
86266SOL    HW260632   1.527   0.083   6.550
86267SOL     OW60633   2.675   1.134   0.804
86267SOL    HW160634   2.751   1.149   0.748
86267SOL    HW260635   2.612   1.090   0.748
86268SOL     OW60636   2.184  10.026  14.570
86268SOL    HW160637   2.215   9.935  14.568
86268SOL    HW260638   2.183  10.053  14.478
86269SOL     OW60639   9.019   0.165   1.740
86269SOL    HW160640   9.031   0.103   1.812
86269SOL    HW260641   8.934   0.143   1.703
86270SOL     OW60642  12.253   1.286   2.011
86270SOL    HW160643  12.312   1.356   1.981
86270SOL    HW260644  12.312   1.214   2.035
86271SOL     OW60645   0.798   6.712  14.216
86271SOL    HW160646   0.846   6.717  14.133
86271SOL    HW260647   0.715   6.669  14.193
86272SOL     OW60648  14.203   8.601   5.595
86272SOL    HW160649  14.130   8.646   5.552
86272SOL    HW260650  14.281   8.645   5.561
86273SOL     OW60651   8.988  12.849   3.998
86273SOL    HW160652   8.934  12.852   3.919
86273SOL    HW260653   9.038  12.768   3.990
86274SOL     OW60654   4.297  13.535   7.816
86274SOL    HW160655   4.237  13.461   7.824
86274SOL    HW260656   4.295  13.578   7.902
86275SOL     OW60657   6.596  10.665   2.529
86275SOL    HW160658   6.570  10.649   2.619
86275SOL    HW260659   6.584  10.759   2.516
86276SOL     OW60660   8.177  13.937   4.411
86276SOL    HW160661   8.252  13.940   4.352
86276SOL    HW260662   8.182  13.850   4.452
86277SOL     OW60663  13.184   5.947   3.948
86277SOL    HW160664  13.245   5.950   3.873
86277SOL    HW260665  13.161   5.854   3.955
86278SOL     OW60666   1.022   5.974  13.119
86278SOL    HW160667   1.097   5.951  13.064
86278SOL    HW260668   1.047   6.058  13.158
86279SOL     OW60669   0.759   7.045   9.255
86279SOL    HW160670   0.807   6.974   9.212
86279SOL    HW260671   0.759   7.021   9.348
86280SOL     OW60672   7.520  10.691   7.906
86280SOL    HW160673   7.564  10.654   7.983
86280SOL    HW260674   7.427  10.685   7.927
86281SOL     OW60675  12.533   1.843   8.070
86281SOL    HW160676  12.532   1.790   8.150
86281SOL    HW260677  12.572   1.926   8.098
86282SOL     OW60678   6.992   1.669   5.285
86282SOL    HW160679   7.056   1.703   5.222
86282SOL    HW260680   7.025   1.583   5.308
86283SOL     OW60681   2.508   7.345   1.372
86283SOL    HW160682   2.547   7.369   1.288
86283SOL    HW260683   2.498   7.249   1.367
86284SOL     OW60684   3.189   2.910   3.229
86284SOL    HW160685   3.147   2.930   3.146
86284SOL    HW260686   3.119   2.911   3.293
86285SOL     OW60687   0.624   8.187   7.685
86285SOL    HW160688   0.613   8.274   7.723
86285SOL    HW260689   0.578   8.191   7.601
86286SOL     OW60690   8.945  12.223   3.732
86286SOL    HW160691   9.021  12.252   3.782
86286SOL    HW260692   8.979  12.157   3.672
86287SOL     OW60693   5.625  14.773  12.705
86287SOL    HW160694   5.541  14.754  12.663
86287SOL    HW260695   5.688  14.720  12.656
86288SOL     OW60696  11.686   4.799   9.411
86288SOL    HW160697  11.745   4.875   9.417
86288SOL    HW260698  11.706   4.748   9.490
86289SOL     OW60699  14.624   2.328   4.240
86289SOL    HW160700  14.680   2.262   4.198
86289SOL    HW260701  14.680   2.405   4.248
86290SOL     OW60702   6.602   6.985   5.830
86290SOL    HW160703   6.654   6.975   5.910
86290SOL    HW260704   6.609   7.079   5.809
86291SOL     OW60705   0.243  12.785   5.910
86291SOL    HW160706   0.261  12.774   5.816
86291SOL    HW260707   0.300  12.857   5.937
86292SOL     OW60708  10.507   8.946   3.316
86292SOL    HW160709  10.594   8.926   3.283
86292SOL    HW260710  10.488   9.034   3.281
86293SOL     OW60711   3.540   8.818   4.139
86293SOL    HW160712   3.570   8.903   4.171
86293SOL    HW260713   3.584   8.808   4.055
86294SOL     OW60714  13.961  10.565   8.884
86294SOL    HW160715  14.051  10.580   8.857
86294SOL    HW260716  13.966  10.551   8.978
86295SOL     OW60717   9.569  10.794   8.863
86295SOL    HW160718   9.648  10.831   8.901
86295SOL    HW260719   9.523  10.753   8.937
86296SOL     OW60720   2.906   2.523  14.681
86296SOL    HW160721   2.826   2.573  14.665
86296SOL    HW260722   2.954   2.528  14.599
86297SOL     OW60723  12.428   2.026   5.684
86297SOL    HW160724  12.417   2.063   5.596
86297SOL    HW260725  12.418   1.932   5.672
86298SOL     OW60726   1.545   0.453   5.597
86298SOL    HW160727   1.572   0.493   5.679
86298SOL    HW260728   1.560   0.521   5.531
86299SOL     OW60729   9.868  11.361   6.572
86299SOL    HW160730   9.806  11.378   6.501
86299SOL    HW260731   9.836  11.280   6.612
86300SOL     OW60732  13.764  11.531   1.245
86300SOL    HW160733  13.674  11.503   1.265
86300SOL    HW260734  13.819  11.469   1.291
86301SOL     OW60735  13.535  10.352  11.718
86301SOL    HW160736  13.543  10.341  11.812
86301SOL    HW260737  13.482  10.277  11.689
86302SOL     OW60738   5.193   0.917   0.862
86302SOL    HW160739   5.099   0.920   0.881
86302SOL    HW260740   5.216   0.824   0.869
86303SOL     OW60741  12.745   7.172   0.149
86303SOL    HW160742  12.807   7.164   0.221
86303SOL    HW260743  12.787   7.230   0.086
86304SOL     OW60744   9.851  12.135  11.148
86304SOL    HW160745   9.904  12.056  11.157
86304SOL    HW260746   9.813  12.149  11.234
86305SOL     OW60747  10.850   5.400   4.599
86305SOL    HW160748  10.771   5.453   4.595
86305SOL    HW260749  10.921   5.463   4.612
86306SOL     OW60750  14.141   7.511  12.684
86306SOL    HW160751  14.212   7.575  12.684
86306SOL    HW260752  14.118   7.500  12.592
86307SOL     OW60753   5.381   4.492  14.695
86307SOL    HW160754   5.451   4.557  14.696
86307SOL    HW260755   5.379   4.460  14.605
86308SOL     OW60756   7.805   1.574  12.189
86308SOL    HW160757   7.763   1.576  12.103
86308SOL    HW260758   7.767   1.649  12.236
86309SOL     OW60759  10.123  10.920  12.328
86309SOL    HW160760  10.133  10.974  12.407
86309SOL    HW260761  10.143  10.980  12.256
86310SOL     OW60762  12.164  14.787  14.040
86310SOL    HW160763  12.246  14.831  14.066
86310SOL    HW260764  12.137  14.834  13.961
86311SOL     OW60765   7.004  10.073   5.175
86311SOL    HW160766   7.040  10.161   5.165
86311SOL    HW260767   6.948  10.079   5.253
86312SOL     OW60768   4.793   5.978   0.770
86312SOL    HW160769   4.849   5.916   0.816
86312SOL    HW260770   4.830   5.982   0.681
86313SOL     OW60771  14.492  10.608   0.873
86313SOL    HW160772  14.402  10.614   0.840
86313SOL    HW260773  14.483  10.610   0.968
86314SOL     OW60774  11.168  13.306  13.213
86314SOL    HW160775  11.244  13.365  13.214
86314SOL    HW260776  11.206  13.220  13.197
86315SOL     OW60777  14.418   2.414  14.785
86315SOL    HW160778  14.449   2.499  14.816
86315SOL    HW260779  14.422   2.357  14.862
86316SOL     OW60780   5.900   4.451  12.221
86316SOL    HW160781   5.836   4.397  12.175
86316SOL    HW260782   5.889   4.430  12.313
86317SOL     OW60783   2.034   1.209   6.787
86317SOL    HW160784   2.046   1.281   6.725
86317SOL    HW260785   1.949   1.172   6.764
86318SOL     OW60786   9.005   2.139   1.882
86318SOL    HW160787   9.051   2.167   1.961
86318SOL    HW260788   9.062   2.168   1.810
86319SOL     OW60789   8.700   9.585   9.102
86319SOL    HW160790   8.708   9.520   9.171
86319SOL    HW260791   8.655   9.659   9.144
86320SOL     OW60792   5.451   6.911   6.580
86320SOL    HW160793   5.483   6.864   6.657
86320SOL    HW260794   5.377   6.859   6.549
86321SOL     OW60795   9.910  14.199   0.963
86321SOL    HW160796  10.001  14.184   0.985
86321SOL    HW260797   9.911  14.276   0.907
86322SOL     OW60798   7.568  10.596  11.038
86322SOL    HW160799   7.478  10.572  11.058
86322SOL    HW260800   7.565  10.691  11.027
86323SOL     OW60801  10.849  12.074  13.331
86323SOL    HW160802  10.795  12.148  13.357
86323SOL    HW260803  10.910  12.063  13.404
86324SOL     OW60804   3.786  11.878  14.141
86324SOL    HW160805   3.794  11.879  14.045
86324SOL    HW260806   3.743  11.961  14.162
86325SOL     OW60807   3.526   8.548   1.622
86325SOL    HW160808   3.544   8.639   1.595
86325SOL    HW260809   3.605   8.500   1.597
86326SOL     OW60810  12.911   9.633  14.129
86326SOL    HW160811  12.997   9.605  14.097
86326SOL    HW260812  12.914   9.729  14.124
86327SOL     OW60813   4.224  14.192   4.632
86327SOL    HW160814   4.134  14.180   4.602
86327SOL    HW260815   4.255  14.103   4.650
86328SOL     OW60816   0.436  13.950  13.257
86328SOL    HW160817   0.347  13.955  13.221
86328SOL    HW260818   0.431  13.881  13.323
86329SOL     OW60819   2.912  14.334  11.537
86329SOL    HW160820   2.822  14.301  11.544
86329SOL    HW260821   2.902  14.426  11.514
86330SOL     OW60822  10.019   1.062  14.626
86330SOL    HW160823  10.070   1.080  14.705
86330SOL    HW260824   9.985   0.973  14.639
86331SOL     OW60825   2.854  10.226   4.706
86331SOL    HW160826   2.820  10.312   4.730
86331SOL    HW260827   2.898  10.240   4.622
86332SOL     OW60828   5.277   8.701  12.678
86332SOL    HW160829   5.238   8.636  12.736
86332SOL    HW260830   5.242   8.785  12.708
86333SOL     OW60831   7.860   0.689  10.482
86333SOL    HW160832   7.954   0.672  10.475
86333SOL    HW260833   7.823   0.651  10.402
86334SOL     OW60834   2.093   4.081   5.455
86334SOL    HW160835   2.076   3.991   5.483
86334SOL    HW260836   2.091   4.132   5.536
86335SOL     OW60837   0.091   2.145   7.336
86335SOL    HW160838   0.182   2.159   7.362
86335SOL    HW260839   0.074   2.053   7.358
86336SOL     OW60840   7.287   1.871   0.102
86336SOL    HW160841   7.357   1.927   0.136
86336SOL    HW260842   7.238   1.843   0.180
86337SOL     OW60843  12.180   0.986   0.687
86337SOL    HW160844  12.214   1.054   0.745
86337SOL    HW260845  12.251   0.922   0.680
86338SOL     OW60846   5.758   2.886   2.586
86338SOL    HW160847   5.759   2.948   2.659
86338SOL    HW260848   5.835   2.832   2.600
86339SOL     OW60849  14.043  14.164   6.597
86339SOL    HW160850  14.081  14.122   6.520
86339SOL    HW260851  14.114  14.217   6.634
86340SOL     OW60852  11.341   5.407  11.632
86340SOL    HW160853  11.285   5.475  11.595
86340SOL    HW260854  11.429   5.430  11.603
86341SOL     OW60855  13.244   2.900   3.925
86341SOL    HW160856  13.230   2.993   3.905
86341SOL    HW260857  13.189   2.883   4.001
86342SOL     OW60858  12.010   9.754  10.168
86342SOL    HW160859  12.083   9.789  10.118
86342SOL    HW260860  12.049   9.687  10.224
86343SOL     OW60861   0.163   6.285   6.386
86343SOL    HW160862   0.122   6.208   6.426
86343SOL    HW260863   0.221   6.319   6.455
86344SOL     OW60864   3.535  12.643   3.854
86344SOL    HW160865   3.446  12.618   3.826
86344SOL    HW260866   3.561  12.574   3.914
86345SOL     OW60867   4.441  10.872   9.035
86345SOL    HW160868   4.373  10.848   8.972
86345SOL    HW260869   4.434  10.806   9.104
86346SOL     OW60870   8.724   6.004   4.404
86346SOL    HW160871   8.647   6.026   4.351
86346SOL    HW260872   8.718   6.062   4.480
86347SOL     OW60873   8.499   5.929   7.924
86347SOL    HW160874   8.531   5.947   7.836
86347SOL    HW260875   8.461   6.011   7.954
86348SOL     OW60876   0.589   7.981   6.072
86348SOL    HW160877   0.629   7.904   6.033
86348SOL    HW260878   0.660   8.046   6.076
86349SOL     OW60879   1.329   3.674   1.479
86349SOL    HW160880   1.356   3.587   1.508
86349SOL    HW260881   1.406   3.709   1.433
86350SOL     OW60882  12.588   2.493  14.623
86350SOL    HW160883  12.559   2.404  14.602
86350SOL    HW260884  12.589   2.496  14.718
86351SOL     OW60885   6.803   7.671   3.078
86351SOL    HW160886   6.880   7.725   3.063
86351SOL    HW260887   6.745   7.691   3.005
86352SOL     OW60888   5.153   0.536   8.008
86352SOL    HW160889   5.155   0.570   7.919
86352SOL    HW260890   5.064   0.553   8.039
86353SOL     OW60891   8.415   7.207  12.213
86353SOL    HW160892   8.372   7.123  12.196
86353SOL    HW260893   8.360   7.248  12.281
86354SOL     OW60894   9.274   0.912   9.703
86354SOL    HW160895   9.288   0.871   9.618
86354SOL    HW260896   9.179   0.917   9.712
86355SOL     OW60897  13.463   5.377   1.967
86355SOL    HW160898  13.393   5.443   1.967
86355SOL    HW260899  13.427   5.304   2.019
86356SOL     OW60900  13.689   9.951   1.679
86356SOL    HW160901  13.644   9.934   1.761
86356SOL    HW260902  13.672   9.873   1.626
86357SOL     OW60903   2.903   8.699   8.950
86357SOL    HW160904   2.956   8.622   8.927
86357SOL    HW260905   2.924   8.763   8.881
86358SOL     OW60906  12.847   0.064  13.709
86358SOL    HW160907  12.777   0.039  13.649
86358SOL    HW260908  12.833   0.157  13.727
86359SOL     OW60909   9.444   7.409   0.993
86359SOL    HW160910   9.411   7.402   0.903
86359SOL    HW260911   9.539   7.419   0.983
86360SOL     OW60912   4.737  14.379  11.230
86360SOL    HW160913   4.820  14.342  11.201
86360SOL    HW260914   4.698  14.310  11.284
86361SOL     OW60915   1.500  14.126   1.179
86361SOL    HW160916   1.460  14.043   1.154
86361SOL    HW260917   1.429  14.189   1.177
86362SOL     OW60918   0.138  13.224   4.376
86362SOL    HW160919   0.103  13.192   4.292
86362SOL    HW260920   0.222  13.179   4.386
86363SOL     OW60921   3.804   6.381   4.376
86363SOL    HW160922   3.879   6.440   4.377
86363SOL    HW260923   3.728   6.440   4.378
86364SOL     OW60924   1.837  13.026   1.756
86364SOL    HW160925   1.747  13.011   1.782
86364SOL    HW260926   1.889  12.997   1.831
86365SOL     OW60927   5.365   2.282   1.901
86365SOL    HW160928   5.388   2.370   1.932
86365SOL    HW260929   5.413   2.223   1.959
86366SOL     OW60930   3.868   3.452  11.211
86366SOL    HW160931   3.910   3.520  11.159
86366SOL    HW260932   3.901   3.465  11.300
86367SOL     OW60933   9.224   9.146   1.773
86367SOL    HW160934   9.237   9.185   1.860
86367SOL    HW260935   9.255   9.056   1.783
86368SOL     OW60936  10.176   2.084  12.196
86368SOL    HW160937  10.140   2.014  12.143
86368SOL    HW260938  10.177   2.049  12.285
86369SOL     OW60939   7.864  10.071   7.926
86369SOL    HW160940   7.917  10.051   7.849
86369SOL    HW260941   7.779  10.099   7.889
86370SOL     OW60942   0.615  13.397  12.906
86370SOL    HW160943   0.559  13.426  12.978
86370SOL    HW260944   0.629  13.304  12.924
86371SOL     OW60945  12.839   4.334   1.804
86371SOL    HW160946  12.917   4.338   1.859
86371SOL    HW260947  12.816   4.241   1.802
86372SOL     OW60948   2.963   7.402   3.322
86372SOL    HW160949   3.033   7.337   3.316
86372SOL    HW260950   2.884   7.352   3.341
86373SOL     OW60951  10.708  11.440  13.491
86373SOL    HW160952  10.786  11.388  13.471
86373SOL    HW260953  10.682  11.411  13.578
86374SOL     OW60954  10.601   1.363   7.819
86374SOL    HW160955  10.518   1.322   7.795
86374SOL    HW260956  10.579   1.455   7.833
86375SOL     OW60957  10.158   8.540   2.022
86375SOL    HW160958  10.191   8.455   2.050
86375SOL    HW260959  10.178   8.599   2.094
86376SOL     OW60960   6.962   1.813   8.144
86376SOL    HW160961   6.923   1.761   8.214
86376SOL    HW260962   7.037   1.856   8.185
86377SOL     OW60963  10.163  10.027  11.399
86377SOL    HW160964  10.078  10.023  11.355
86377SOL    HW260965  10.224   9.987  11.336
86378SOL     OW60966   7.458   0.745   3.378
86378SOL    HW160967   7.436   0.810   3.445
86378SOL    HW260968   7.468   0.797   3.298
86379SOL     OW60969   8.941   1.634   1.792
86379SOL    HW160970   8.890   1.713   1.814
86379SOL    HW260971   9.017   1.667   1.745
86380SOL     OW60972   9.399   8.218   1.738
86380SOL    HW160973   9.343   8.188   1.809
86380SOL    HW260974   9.356   8.186   1.658
86381SOL     OW60975   8.343  10.227   9.303
86381SOL    HW160976   8.252  10.218   9.273
86381SOL    HW260977   8.342  10.304   9.359
86382SOL     OW60978  10.269  11.223   7.818
86382SOL    HW160979  10.343  11.270   7.780
86382SOL    HW260980  10.300  11.134   7.830
86383SOL     OW60981  11.160  14.620   4.852
86383SOL    HW160982  11.209  14.546   4.816
86383SOL    HW260983  11.088  14.580   4.901
86384SOL     OW60984  12.166  10.072   0.111
86384SOL    HW160985  12.095  10.008   0.100
86384SOL    HW260986  12.227  10.031   0.172
86385SOL     OW60987   7.289   1.060   8.728
86385SOL    HW160988   7.227   1.098   8.790
86385SOL    HW260989   7.236   1.036   8.652
86386SOL     OW60990  10.461  11.799   6.230
86386SOL    HW160991  10.440  11.706   6.228
86386SOL    HW260992  10.382  11.842   6.196
86387SOL     OW60993  10.549   6.993   2.747
86387SOL    HW160994  10.610   6.930   2.708
86387SOL    HW260995  10.585   7.078   2.723
86388SOL     OW60996   0.018   6.978   1.792
86388SOL    HW160997   0.095   6.999   1.844
86388SOL    HW260998  14.850   7.062   1.772
86389SOL     OW60999   0.593   9.855   3.357
86389SOL    HW161000   0.504   9.890   3.355
86389SOL    HW261001   0.617   9.854   3.450
86390SOL     OW61002  10.634  10.973  11.556
86390SOL    HW161003  10.543  10.945  11.561
86390SOL    HW261004  10.632  11.054  11.504
86391SOL     OW61005  10.909  11.538   5.667
86391SOL    HW161006  10.933  11.623   5.632
86391SOL    HW261007  10.827  11.516   5.622
86392SOL     OW61008   4.093  11.128  11.129
86392SOL    HW161009   4.077  11.155  11.039
86392SOL    HW261010   4.179  11.085  11.126
86393SOL     OW61011  11.455  12.194   9.984
86393SOL    HW161012  11.444  12.113   9.934
86393SOL    HW261013  11.387  12.190  10.052
86394SOL     OW61014  12.301   0.394  14.504
86394SOL    HW161015  12.297   0.299  14.496
86394SOL    HW261016  12.231   0.426  14.446
86395SOL     OW61017   6.245   0.824  10.009
86395SOL    HW161018   6.324   0.831   9.956
86395SOL    HW261019   6.222   0.915  10.030
86396SOL     OW61020   9.316   4.540   1.827
86396SOL    HW161021   9.300   4.561   1.735
86396SOL    HW261022   9.410   4.554   1.840
86397SOL     OW61023   5.766   7.603  14.607
86397SOL    HW161024   5.712   7.650  14.543
86397SOL    HW261025   5.820   7.671  14.647
86398SOL     OW61026   9.479   0.206   0.263
86398SOL    HW161027   9.567   0.241   0.271
86398SOL    HW261028   9.421   0.281   0.274
86399SOL     OW61029   9.880   7.804   6.150
86399SOL    HW161030   9.939   7.842   6.085
86399SOL    HW261031   9.938   7.758   6.211
86400SOL     OW61032  10.930   3.009   3.130
86400SOL    HW161033  10.927   2.941   3.063
86400SOL    HW261034  11.024   3.024   3.144
86401SOL     OW61035   0.413  14.605  10.224
86401SOL    HW161036   0.396  14.689  10.182
86401SOL    HW261037   0.469  14.627  10.299
86402SOL     OW61038   2.247   0.368  11.048
86402SOL    HW161039   2.265   0.396  10.958
86402SOL    HW261040   2.252   0.449  11.099
86403SOL     OW61041   9.268   8.695  10.376
86403SOL    HW161042   9.285   8.615  10.326
86403SOL    HW261043   9.325   8.761  10.336
86404SOL     OW61044   0.680   4.874   8.389
86404SOL    HW161045   0.612   4.902   8.450
86404SOL    HW261046   0.723   4.800   8.432
86405SOL     OW61047  14.397   1.728   8.852
86405SOL    HW161048  14.441   1.746   8.934
86405SOL    HW261049  14.305   1.750   8.869
86406SOL     OW61050   1.510   2.412   2.386
86406SOL    HW161051   1.464   2.335   2.421
86406SOL    HW261052   1.465   2.431   2.304
86407SOL     OW61053  14.166  13.725   0.518
86407SOL    HW161054  14.252  13.730   0.560
86407SOL    HW261055  14.123  13.651   0.561
86408SOL     OW61056   3.274   3.034   9.185
86408SOL    HW161057   3.326   2.955   9.199
86408SOL    HW261058   3.183   3.003   9.182
86409SOL     OW61059   1.902   0.765   8.286
86409SOL    HW161060   1.960   0.744   8.359
86409SOL    HW261061   1.958   0.806   8.221
86410SOL     OW61062   9.840   1.329  14.307
86410SOL    HW161063   9.835   1.400  14.243
86410SOL    HW261064   9.878   1.256  14.259
86411SOL     OW61065  12.207   5.996   4.641
86411SOL    HW161066  12.239   6.084   4.664
86411SOL    HW261067  12.262   5.968   4.569
86412SOL     OW61068   5.630   7.769   5.849
86412SOL    HW161069   5.565   7.833   5.820
86412SOL    HW261070   5.679   7.746   5.770
86413SOL     OW61071  11.346   4.698  13.902
86413SOL    HW161072  11.427   4.736  13.937
86413SOL    HW261073  11.284   4.701  13.975
86414SOL     OW61074   0.878   3.863   2.498
86414SOL    HW161075   0.872   3.936   2.560
86414SOL    HW261076   0.815   3.885   2.430
86415SOL     OW61077   5.969   2.065  13.804
86415SOL    HW161078   6.003   2.006  13.736
86415SOL    HW261079   5.897   2.015  13.844
86416SOL     OW61080   8.590   4.828   8.271
86416SOL    HW161081   8.565   4.750   8.320
86416SOL    HW261082   8.684   4.819   8.257
86417SOL     OW61083  13.145   7.145   2.355
86417SOL    HW161084  13.093   7.200   2.414
86417SOL    HW261085  13.100   7.150   2.271
86418SOL     OW61086   0.838   9.481  11.456
86418SOL    HW161087   0.840   9.393  11.419
86418SOL    HW261088   0.827   9.467  11.550
86419SOL     OW61089   5.468   2.485   4.082
86419SOL    HW161090   5.450   2.517   4.171
86419SOL    HW261091   5.489   2.393   4.094
86420SOL     OW61092   6.331  13.308   5.496
86420SOL    HW161093   6.343  13.302   5.591
86420SOL    HW261094   6.308  13.399   5.480
86421SOL     OW61095   5.595  13.118  10.286
86421SOL    HW161096   5.687  13.128  10.260
86421SOL    HW261097   5.599  13.057  10.360
86422SOL     OW61098   2.424  10.532   7.753
86422SOL    HW161099   2.448  10.468   7.686
86422SOL    HW261100   2.356  10.488   7.804
86423SOL     OW61101  11.851   1.822   3.167
86423SOL    HW161102  11.903   1.743   3.149
86423SOL    HW261103  11.798   1.798   3.243
86424SOL     OW61104   1.368   8.863   0.964
86424SOL    HW161105   1.369   8.768   0.952
86424SOL    HW261106   1.372   8.876   1.058
86425SOL     OW61107   3.622   6.067   3.205
86425SOL    HW161108   3.603   6.019   3.286
86425SOL    HW261109   3.553   6.133   3.200
86426SOL     OW61110  13.293   4.780   3.301
86426SOL    HW161111  13.260   4.774   3.391
86426SOL    HW261112  13.332   4.695   3.284
86427SOL     OW61113  11.983   7.431   6.403
86427SOL    HW161114  11.938   7.351   6.378
86427SOL    HW261115  11.914   7.496   6.416
86428SOL     OW61116   5.020  12.766   8.731
86428SOL    HW161117   5.099  12.724   8.766
86428SOL    HW261118   4.951  12.744   8.793
86429SOL     OW61119   5.581   5.480   2.634
86429SOL    HW161120   5.674   5.470   2.656
86429SOL    HW261121   5.557   5.566   2.668
86430SOL     OW61122   1.790   9.130   8.282
86430SOL    HW161123   1.766   9.116   8.374
86430SOL    HW261124   1.732   9.073   8.233
86431SOL     OW61125   1.168   1.632   1.226
86431SOL    HW161126   1.085   1.674   1.199
86431SOL    HW261127   1.203   1.596   1.145
86432SOL     OW61128  13.781   5.550  11.154
86432SOL    HW161129  13.730   5.554  11.235
86432SOL    HW261130  13.860   5.600  11.173
86433SOL     OW61131   6.262   6.594   8.329
86433SOL    HW161132   6.216   6.671   8.363
86433SOL    HW261133   6.352   6.604   8.362
86434SOL     OW61134  14.002   7.311   5.212
86434SOL    HW161135  14.055   7.363   5.153
86434SOL    HW261136  14.025   7.220   5.193
86435SOL     OW61137  13.764   2.844   5.359
86435SOL    HW161138  13.806   2.774   5.308
86435SOL    HW261139  13.817   2.922   5.341
86436SOL     OW61140  11.985  13.315   0.947
86436SOL    HW161141  11.948  13.228   0.965
86436SOL    HW261142  11.909  13.369   0.927
86437SOL     OW61143   4.201  13.052  14.120
86437SOL    HW161144   4.222  12.960  14.107
86437SOL    HW261145   4.107  13.053  14.141
86438SOL     OW61146   9.648   5.034   5.454
86438SOL    HW161147   9.664   5.123   5.485
86438SOL    HW261148   9.735   4.999   5.436
86439SOL     OW61149  10.319   7.271   9.725
86439SOL    HW161150  10.369   7.189   9.721
86439SOL    HW261151  10.385   7.340   9.724
86440SOL     OW61152  12.413  14.223  10.653
86440SOL    HW161153  12.320  14.204  10.666
86440SOL    HW261154  12.419  14.318  10.650
86441SOL     OW61155   9.658   5.827   4.255
86441SOL    HW161156   9.658   5.833   4.351
86441SOL    HW261157   9.568   5.850   4.230
86442SOL     OW61158   2.545   0.475   6.039
86442SOL    HW161159   2.594   0.395   6.060
86442SOL    HW261160   2.502   0.455   5.955
86443SOL     OW61161   1.871   0.900  12.825
86443SOL    HW161162   1.813   0.963  12.865
86443SOL    HW261163   1.821   0.863  12.752
86444SOL     OW61164  13.834  12.742   7.143
86444SOL    HW161165  13.771  12.797   7.097
86444SOL    HW261166  13.919  12.784   7.127
86445SOL     OW61167   1.507  10.355   9.491
86445SOL    HW161168   1.447  10.281   9.498
86445SOL    HW261169   1.507  10.378   9.398
86446SOL     OW61170   2.636   9.999   0.630
86446SOL    HW161171   2.669  10.089   0.624
86446SOL    HW261172   2.713   9.947   0.653
86447SOL     OW61173   5.343  11.720   2.857
86447SOL    HW161174   5.414  11.748   2.800
86447SOL    HW261175   5.300  11.802   2.882
86448SOL     OW61176   4.891  12.912   0.468
86448SOL    HW161177   4.927  12.999   0.452
86448SOL    HW261178   4.836  12.894   0.392
86449SOL     OW61179   4.136  12.793  10.063
86449SOL    HW161180   4.139  12.767  10.156
86449SOL    HW261181   4.228  12.811  10.041
86450SOL     OW61182   5.427   9.452   1.889
86450SOL    HW161183   5.457   9.538   1.920
86450SOL    HW261184   5.347   9.472   1.840
86451SOL     OW61185  11.251  10.674   7.472
86451SOL    HW161186  11.253  10.628   7.388
86451SOL    HW261187  11.342  10.692   7.492
86452SOL     OW61188   2.719  13.891   4.300
86452SOL    HW161189   2.651  13.903   4.234
86452SOL    HW261190   2.747  13.800   4.289
86453SOL     OW61191   8.831   6.479   8.126
86453SOL    HW161192   8.801   6.454   8.213
86453SOL    HW261193   8.857   6.571   8.135
86454SOL     OW61194   3.602  12.046  10.517
86454SOL    HW161195   3.593  12.012  10.427
86454SOL    HW261196   3.697  12.053  10.530
86455SOL     OW61197  12.146   7.315   0.552
86455SOL    HW161198  12.186   7.400   0.533
86455SOL    HW261199  12.219   7.258   0.573
86456SOL     OW61200  10.995  13.076   0.537
86456SOL    HW161201  10.990  13.114   0.449
86456SOL    HW261202  10.921  13.016   0.542
86457SOL     OW61203   9.529   5.919   4.791
86457SOL    HW161204   9.481   5.912   4.873
86457SOL    HW261205   9.577   6.001   4.798
86458SOL     OW61206   5.985   6.122   0.992
86458SOL    HW161207   5.893   6.109   1.012
86458SOL    HW261208   6.022   6.158   1.073
86459SOL     OW61209   3.103   9.384  14.197
86459SOL    HW161210   3.149   9.362  14.278
86459SOL    HW261211   3.053   9.463  14.218
86460SOL     OW61212  13.257  11.913   7.490
86460SOL    HW161213  13.347  11.944   7.484
86460SOL    HW261214  13.207  11.973   7.434
86461SOL     OW61215   6.955  12.277  14.391
86461SOL    HW161216   7.048  12.269  14.371
86461SOL    HW261217   6.918  12.324  14.316
86462SOL     OW61218  12.373  11.664   8.302
86462SOL    HW161219  12.330  11.725   8.361
86462SOL    HW261220  12.317  11.586   8.303
86463SOL     OW61221   3.986  13.215   4.634
86463SOL    HW161222   3.912  13.210   4.694
86463SOL    HW261223   3.967  13.290   4.577
86464SOL     OW61224   8.681  12.268   4.053
86464SOL    HW161225   8.742  12.232   3.989
86464SOL    HW261226   8.598  12.223   4.036
86465SOL     OW61227  13.680   5.841  13.487
86465SOL    HW161228  13.663   5.931  13.513
86465SOL    HW261229  13.726   5.803  13.562
86466SOL     OW61230   1.941   4.935   1.676
86466SOL    HW161231   1.889   4.964   1.601
86466SOL    HW261232   1.877   4.903   1.739
86467SOL     OW61233   9.193   6.284  14.871
86467SOL    HW161234   9.282   6.319  14.871
86467SOL    HW261235   9.185   6.240  14.786
86468SOL     OW61236  10.343  12.308   9.646
86468SOL    HW161237  10.430  12.270   9.632
86468SOL    HW261238  10.320  12.284   9.736
86469SOL     OW61239   7.337   1.339  13.820
86469SOL    HW161240   7.428   1.362  13.841
86469SOL    HW261241   7.285   1.409  13.860
86470SOL     OW61242  10.237   1.308  10.991
86470SOL    HW161243  10.165   1.248  10.971
86470SOL    HW261244  10.195   1.386  11.026
86471SOL     OW61245   3.425  12.686   8.035
86471SOL    HW161246   3.357  12.621   8.018
86471SOL    HW261247   3.399  12.727   8.118
86472SOL     OW61248  10.807  10.073   1.121
86472SOL    HW161249  10.881  10.033   1.075
86472SOL    HW261250  10.777  10.006   1.182
86473SOL     OW61251   2.451  11.081  12.366
86473SOL    HW161252   2.405  11.029  12.432
86473SOL    HW261253   2.394  11.157  12.352
86474SOL     OW61254   1.172   9.885   0.700
86474SOL    HW161255   1.111   9.938   0.753
86474SOL    HW261256   1.188   9.939   0.622
86475SOL     OW61257   7.356   6.644   6.814
86475SOL    HW161258   7.281   6.588   6.795
86475SOL    HW261259   7.428   6.583   6.831
86476SOL     OW61260   5.257  13.956  11.328
86476SOL    HW161261   5.234  14.032  11.275
86476SOL    HW261262   5.200  13.960  11.404
86477SOL     OW61263  13.143   0.770  10.500
86477SOL    HW161264  13.215   0.714  10.530
86477SOL    HW261265  13.064   0.717  10.513
86478SOL     OW61266  12.072   2.219  10.969
86478SOL    HW161267  12.031   2.164  10.903
86478SOL    HW261268  12.160   2.236  10.935
86479SOL     OW61269  11.570   9.608   5.413
86479SOL    HW161270  11.575   9.701   5.435
86479SOL    HW261271  11.660   9.576   5.424
86480SOL     OW61272   1.025   3.243   0.249
86480SOL    HW161273   1.030   3.337   0.264
86480SOL    HW261274   0.947   3.215   0.297
86481SOL     OW61275   4.886   4.849   2.765
86481SOL    HW161276   4.792   4.830   2.760
86481SOL    HW261277   4.902   4.906   2.689
86482SOL     OW61278   9.954   6.468   0.364
86482SOL    HW161279   9.880   6.502   0.314
86482SOL    HW261280   9.951   6.373   0.350
86483SOL     OW61281   5.508  10.710   3.595
86483SOL    HW161282   5.577  10.743   3.537
86483SOL    HW261283   5.534  10.741   3.682
86484SOL     OW61284   8.942  13.259  12.903
86484SOL    HW161285   8.963  13.329  12.841
86484SOL    HW261286   8.942  13.302  12.988
86485SOL     OW61287  13.951   4.561   3.439
86485SOL    HW161288  14.000   4.624   3.387
86485SOL    HW261289  13.961   4.478   3.392
86486SOL     OW61290   8.893   9.351   5.904
86486SOL    HW161291   8.896   9.280   5.969
86486SOL    HW261292   8.917   9.310   5.822
86487SOL     OW61293   2.333   1.465   0.287
86487SOL    HW161294   2.368   1.551   0.262
86487SOL    HW261295   2.409   1.417   0.319
86488SOL     OW61296  14.558   1.669  13.854
86488SOL    HW161297  14.548   1.655  13.760
86488SOL    HW261298  14.546   1.763  13.866
86489SOL     OW61299   1.207   0.794   7.720
86489SOL    HW161300   1.291   0.754   7.741
86489SOL    HW261301   1.152   0.777   7.796
86490SOL     OW61302  13.503  13.261  13.946
86490SOL    HW161303  13.469  13.172  13.934
86490SOL    HW261304  13.591  13.248  13.982
86491SOL     OW61305   8.367   4.864  10.098
86491SOL    HW161306   8.284   4.816  10.098
86491SOL    HW261307   8.350   4.942  10.151
86492SOL     OW61308   9.567  13.397   6.094
86492SOL    HW161309   9.521  13.439   6.021
86492SOL    HW261310   9.527  13.310   6.101
86493SOL     OW61311   6.877  13.944  13.240
86493SOL    HW161312   6.872  13.991  13.156
86493SOL    HW261313   6.896  13.853  13.215
86494SOL     OW61314  13.940   3.160   0.623
86494SOL    HW161315  13.967   3.071   0.646
86494SOL    HW261316  13.920   3.202   0.707
86495SOL     OW61317   2.538  11.095  14.250
86495SOL    HW161318   2.529  11.077  14.344
86495SOL    HW261319   2.632  11.102  14.236
86496SOL     OW61320   7.614   1.467  10.118
86496SOL    HW161321   7.704   1.435  10.105
86496SOL    HW261322   7.564   1.424  10.049
86497SOL     OW61323   5.577   2.212  11.173
86497SOL    HW161324   5.508   2.148  11.157
86497SOL    HW261325   5.563   2.241  11.262
86498SOL     OW61326   7.790   0.930   6.792
86498SOL    HW161327   7.775   0.900   6.702
86498SOL    HW261328   7.825   1.019   6.782
86499SOL     OW61329   4.383  10.922   1.066
86499SOL    HW161330   4.432  10.975   1.003
86499SOL    HW261331   4.449  10.867   1.108
86500SOL     OW61332   6.374  11.565   6.079
86500SOL    HW161333   6.389  11.492   6.019
86500SOL    HW261334   6.336  11.525   6.157
86501SOL     OW61335   6.266  12.068  12.372
86501SOL    HW161336   6.221  12.139  12.327
86501SOL    HW261337   6.348  12.106  12.401
86502SOL     OW61338   4.942   4.049  13.628
86502SOL    HW161339   5.023   4.019  13.669
86502SOL    HW261340   4.884   4.071  13.701
86503SOL     OW61341   9.203   2.164  12.926
86503SOL    HW161342   9.214   2.206  13.011
86503SOL    HW261343   9.122   2.115  12.933
86504SOL     OW61344   5.525  11.062  11.953
86504SOL    HW161345   5.605  11.036  11.999
86504SOL    HW261346   5.455  11.014  11.998
86505SOL     OW61347   2.140   5.761   5.798
86505SOL    HW161348   2.120   5.671   5.822
86505SOL    HW261349   2.227   5.756   5.758
86506SOL     OW61350   7.972   8.223   3.036
86506SOL    HW161351   7.970   8.315   3.012
86506SOL    HW261352   7.957   8.176   2.954
86507SOL     OW61353  14.845   4.451   6.700
86507SOL    HW161354   0.040   4.489   6.643
86507SOL    HW261355  14.764   4.459   6.649
86508SOL     OW61356   4.314   7.382  14.116
86508SOL    HW161357   4.278   7.427  14.040
86508SOL    HW261358   4.367   7.447  14.160
86509SOL     OW61359  14.738   9.813   4.802
86509SOL    HW161360  14.720   9.894   4.848
86509SOL    HW261361  14.781   9.757   4.867
86510SOL     OW61362   0.542   5.893   2.028
86510SOL    HW161363   0.594   5.828   2.075
86510SOL    HW261364   0.452   5.876   2.056
86511SOL     OW61365   8.688  11.490   5.260
86511SOL    HW161366   8.705  11.504   5.353
86511SOL    HW261367   8.662  11.398   5.254
86512SOL     OW61368   9.050   4.171   4.962
86512SOL    HW161369   8.968   4.145   5.005
86512SOL    HW261370   9.049   4.126   4.878
86513SOL     OW61371  11.784  12.596  11.611
86513SOL    HW161372  11.803  12.518  11.559
86513SOL    HW261373  11.772  12.563  11.700
86514SOL     OW61374  14.592   8.353   8.759
86514SOL    HW161375  14.512   8.404   8.752
86514SOL    HW261376  14.656   8.414   8.799
86515SOL     OW61377   8.193  11.937   3.181
86515SOL    HW161378   8.106  11.943   3.142
86515SOL    HW261379   8.178  11.946   3.275
86516SOL     OW61380   2.297   4.977  12.233
86516SOL    HW161381   2.333   5.053  12.279
86516SOL    HW261382   2.265   5.012  12.150
86517SOL     OW61383  10.304   0.722  11.751
86517SOL    HW161384  10.381   0.746  11.801
86517SOL    HW261385  10.315   0.628  11.734
86518SOL     OW61386   8.971   7.490  11.495
86518SOL    HW161387   8.946   7.576  11.461
86518SOL    HW261388   8.889   7.441  11.497
86519SOL     OW61389  11.462   9.389   9.652
86519SOL    HW161390  11.372   9.420   9.641
86519SOL    HW261391  11.495   9.438   9.728
86520SOL     OW61392  12.139  12.338  14.832
86520SOL    HW161393  12.214  12.283  14.850
86520SOL    HW261394  12.175  12.427  14.827
86521SOL     OW61395   1.385  10.465  13.551
86521SOL    HW161396   1.419  10.486  13.638
86521SOL    HW261397   1.290  10.471  13.561
86522SOL     OW61398   9.012   5.574   3.364
86522SOL    HW161399   8.920   5.549   3.357
86522SOL    HW261400   9.056   5.495   3.396
86523SOL     OW61401   2.223   0.075   1.914
86523SOL    HW161402   2.190  14.860   1.896
86523SOL    HW261403   2.296   0.062   1.974
86524SOL     OW61404   7.130  13.737   1.859
86524SOL    HW161405   7.087  13.711   1.777
86524SOL    HW261406   7.223  13.720   1.844
86525SOL     OW61407  14.370   5.827   7.817
86525SOL    HW161408  14.364   5.918   7.789
86525SOL    HW261409  14.426   5.829   7.895
86526SOL     OW61410   3.713   9.399   6.568
86526SOL    HW161411   3.779   9.333   6.546
86526SOL    HW261412   3.663   9.410   6.487
86527SOL     OW61413   0.939  14.548   1.083
86527SOL    HW161414   0.888  14.629   1.096
86527SOL    HW261415   0.923  14.497   1.162
86528SOL     OW61416   1.477   2.924  10.374
86528SOL    HW161417   1.454   2.849  10.431
86528SOL    HW261418   1.399   2.937  10.321
86529SOL     OW61419  11.323   2.021  12.532
86529SOL    HW161420  11.334   1.939  12.580
86529SOL    HW261421  11.293   1.994  12.445
86530SOL     OW61422  10.532  14.036   1.009
86530SOL    HW161423  10.492  14.045   0.923
86530SOL    HW261424  10.524  14.123   1.048
86531SOL     OW61425  10.300  12.806  10.457
86531SOL    HW161426  10.215  12.850  10.462
86531SOL    HW261427  10.323  12.811  10.364
86532SOL     OW61428   3.424   7.736   5.339
86532SOL    HW161429   3.403   7.770   5.426
86532SOL    HW261430   3.384   7.798   5.279
86533SOL     OW61431  13.627   6.190  10.536
86533SOL    HW161432  13.645   6.268  10.485
86533SOL    HW261433  13.652   6.213  10.626
86534SOL     OW61434   8.513   9.334   7.103
86534SOL    HW161435   8.524   9.375   7.189
86534SOL    HW261436   8.591   9.361   7.053
86535SOL     OW61437   9.231   1.922   1.585
86535SOL    HW161438   9.240   1.950   1.494
86535SOL    HW261439   9.232   2.004   1.635
86536SOL     OW61440  13.534   3.332   4.991
86536SOL    HW161441  13.538   3.373   5.077
86536SOL    HW261442  13.538   3.405   4.929
86537SOL     OW61443  11.466   7.009   7.978
86537SOL    HW161444  11.382   6.997   7.934
86537SOL    HW261445  11.448   6.991   8.070
86538SOL     OW61446  11.222  10.091  13.513
86538SOL    HW161447  11.208  10.169  13.460
86538SOL    HW261448  11.260  10.027  13.452
86539SOL     OW61449   1.224   5.507   5.057
86539SOL    HW161450   1.238   5.584   5.002
86539SOL    HW261451   1.296   5.448   5.036
86540SOL     OW61452   9.532   4.181  13.906
86540SOL    HW161453   9.485   4.207  13.827
86540SOL    HW261454   9.566   4.094  13.886
86541SOL     OW61455   4.361   9.036   0.666
86541SOL    HW161456   4.279   9.030   0.715
86541SOL    HW261457   4.428   9.012   0.729
86542SOL     OW61458  11.130  11.994   5.995
86542SOL    HW161459  11.205  11.963   5.943
86542SOL    HW261460  11.128  11.936   6.071
86543SOL     OW61461  14.028   9.145   7.027
86543SOL    HW161462  13.959   9.175   6.968
86543SOL    HW261463  13.982   9.115   7.105
86544SOL     OW61464   4.398   8.829   5.276
86544SOL    HW161465   4.399   8.846   5.182
86544SOL    HW261466   4.381   8.735   5.283
86545SOL     OW61467   1.128   8.430   1.402
86545SOL    HW161468   1.050   8.486   1.411
86545SOL    HW261469   1.121   8.396   1.313
86546SOL     OW61470  14.243   6.066  12.769
86546SOL    HW161471  14.179   6.032  12.706
86546SOL    HW261472  14.230   6.161  12.767
86547SOL     OW61473  10.750   4.774  14.436
86547SOL    HW161474  10.819   4.722  14.476
86547SOL    HW261475  10.672   4.753  14.488
86548SOL     OW61476   8.644   1.836  13.409
86548SOL    HW161477   8.613   1.921  13.377
86548SOL    HW261478   8.667   1.852  13.500
86549SOL     OW61479  12.391   6.110  13.078
86549SOL    HW161480  12.393   6.152  12.992
86549SOL    HW261481  12.338   6.168  13.133
86550SOL     OW61482  13.629   9.715  11.416
86550SOL    HW161483  13.690   9.747  11.350
86550SOL    HW261484  13.567   9.661  11.367
86551SOL     OW61485  10.946   3.558   0.179
86551SOL    HW161486  11.019   3.500   0.158
86551SOL    HW261487  10.940   3.554   0.275
86552SOL     OW61488   3.803  14.789   4.746
86552SOL    HW161489   3.878  14.821   4.796
86552SOL    HW261490   3.806  14.694   4.756
86553SOL     OW61491  10.504  14.296   4.643
86553SOL    HW161492  10.590  14.322   4.611
86553SOL    HW261493  10.468  14.239   4.575
86554SOL     OW61494   4.578   9.227   2.581
86554SOL    HW161495   4.648   9.265   2.527
86554SOL    HW261496   4.618   9.150   2.622
86555SOL     OW61497   6.119   0.669  14.286
86555SOL    HW161498   6.075   0.680  14.370
86555SOL    HW261499   6.213   0.665  14.308
86556SOL     OW61500   7.016   1.181   7.232
86556SOL    HW161501   7.099   1.212   7.194
86556SOL    HW261502   7.039   1.100   7.278
86557SOL     OW61503   2.998   1.719  10.531
86557SOL    HW161504   3.034   1.631  10.518
86557SOL    HW261505   3.060   1.762  10.590
86558SOL     OW61506   4.600  10.039  13.857
86558SOL    HW161507   4.584  10.132  13.839
86558SOL    HW261508   4.645  10.008  13.779
86559SOL     OW61509  13.432   8.364   4.569
86559SOL    HW161510  13.354   8.389   4.520
86559SOL    HW261511  13.454   8.276   4.537
86560SOL     OW61512   6.695   6.819   9.977
86560SOL    HW161513   6.719   6.752   9.913
86560SOL    HW261514   6.735   6.900   9.944
86561SOL     OW61515  11.132   4.495   6.878
86561SOL    HW161516  11.117   4.413   6.831
86561SOL    HW261517  11.045   4.520   6.910
86562SOL     OW61518   0.445   2.558  13.361
86562SOL    HW161519   0.539   2.549  13.371
86562SOL    HW261520   0.426   2.647  13.390
86563SOL     OW61521   4.428   2.643  14.606
86563SOL    HW161522   4.368   2.616  14.536
86563SOL    HW261523   4.515   2.621  14.572
86564SOL     OW61524  11.742  14.147   5.415
86564SOL    HW161525  11.703  14.063   5.439
86564SOL    HW261526  11.773  14.134   5.325
86565SOL     OW61527   0.530   9.012   5.976
86565SOL    HW161528   0.551   9.024   5.883
86565SOL    HW261529   0.453   9.067   5.989
86566SOL     OW61530   7.740  10.092   3.992
86566SOL    HW161531   7.767  10.183   4.003
86566SOL    HW261532   7.656  10.096   3.947
86567SOL     OW61533  11.136  13.548   6.987
86567SOL    HW161534  11.047  13.582   6.997
86567SOL    HW261535  11.131  13.491   6.910
86568SOL     OW61536   4.806   1.259   3.493
86568SOL    HW161537   4.882   1.298   3.537
86568SOL    HW261538   4.746   1.332   3.480
86569SOL     OW61539  11.929  12.274   5.362
86569SOL    HW161540  12.022  12.292   5.367
86569SOL    HW261541  11.898  12.328   5.289
86570SOL     OW61542   0.343   1.597   6.529
86570SOL    HW161543   0.423   1.606   6.477
86570SOL    HW261544   0.374   1.588   6.619
86571SOL     OW61545   0.374   8.036   4.775
86571SOL    HW161546   0.332   7.994   4.699
86571SOL    HW261547   0.468   8.022   4.760
86572SOL     OW61548  10.821   1.967  12.828
86572SOL    HW161549  10.739   2.017  12.833
86572SOL    HW261550  10.878   2.009  12.892
86573SOL     OW61551   7.096   0.357   4.852
86573SOL    HW161552   7.019   0.413   4.866
86573SOL    HW261553   7.059   0.270   4.837
86574SOL     OW61554  12.026   7.109   0.784
86574SOL    HW161555  12.023   7.100   0.688
86574SOL    HW261556  11.985   7.029   0.817
86575SOL     OW61557  13.926   2.616   2.021
86575SOL    HW161558  13.883   2.582   2.099
86575SOL    HW261559  13.893   2.706   2.013
86576SOL     OW61560  12.229  14.551   3.052
86576SOL    HW161561  12.313  14.507   3.070
86576SOL    HW261562  12.242  14.595   2.969
86577SOL     OW61563   2.593   3.598   9.996
86577SOL    HW161564   2.652   3.617   9.924
86577SOL    HW261565   2.602   3.673  10.055
86578SOL     OW61566   6.277   4.859  14.818
86578SOL    HW161567   6.347   4.919  14.845
86578SOL    HW261568   6.270   4.796   0.017
86579SOL     OW61569   3.263   0.719  14.792
86579SOL    HW161570   3.334   0.710  14.855
86579SOL    HW261571   3.298   0.777  14.724
86580SOL     OW61572   2.995   1.003  12.391
86580SOL    HW161573   3.044   1.072  12.346
86580SOL    HW261574   2.903   1.020  12.368
86581SOL     OW61575  11.949   2.866   2.405
86581SOL    HW161576  11.936   2.868   2.310
86581SOL    HW261577  11.861   2.880   2.442
86582SOL     OW61578   5.579  12.556   3.567
86582SOL    HW161579   5.528  12.479   3.544
86582SOL    HW261580   5.664  12.542   3.525
86583SOL     OW61581   7.131   7.086  11.607
86583SOL    HW161582   7.139   7.148  11.679
86583SOL    HW261583   7.221   7.070  11.580
86584SOL     OW61584  13.449  10.050   7.526
86584SOL    HW161585  13.542  10.029   7.536
86584SOL    HW261586  13.449  10.143   7.501
86585SOL     OW61587  11.315   1.667  10.642
86585SOL    HW161588  11.327   1.761  10.660
86585SOL    HW261589  11.330   1.625  10.727
86586SOL     OW61590   3.452   0.690   6.888
86586SOL    HW161591   3.357   0.684   6.900
86586SOL    HW261592   3.462   0.756   6.819
86587SOL     OW61593  11.513   5.606  11.139
86587SOL    HW161594  11.574   5.610  11.064
86587SOL    HW261595  11.493   5.697  11.158
86588SOL     OW61596  10.765   4.447   8.886
86588SOL    HW161597  10.681   4.423   8.924
86588SOL    HW261598  10.774   4.390   8.809
86589SOL     OW61599   5.565   5.528  11.908
86589SOL    HW161600   5.586   5.616  11.876
86589SOL    HW261601   5.539   5.541  11.999
86590SOL     OW61602   3.738   7.256   2.852
86590SOL    HW161603   3.707   7.168   2.829
86590SOL    HW261604   3.667   7.314   2.824
86591SOL     OW61605   3.272   4.325   9.095
86591SOL    HW161606   3.188   4.283   9.114
86591SOL    HW261607   3.328   4.253   9.066
86592SOL     OW61608  11.406  12.590  11.156
86592SOL    HW161609  11.323  12.545  11.148
86592SOL    HW261610  11.448  12.581  11.071
86593SOL     OW61611   1.065   3.071   6.375
86593SOL    HW161612   1.111   3.128   6.437
86593SOL    HW261613   1.130   3.008   6.346
86594SOL     OW61614   1.100  11.473   9.754
86594SOL    HW161615   1.115  11.387   9.793
86594SOL    HW261616   1.175  11.525   9.782
86595SOL     OW61617   2.884  10.367   0.198
86595SOL    HW161618   2.967  10.383   0.152
86595SOL    HW261619   2.861  10.277   0.174
86596SOL     OW61620   7.512  10.721  10.071
86596SOL    HW161621   7.571  10.741   9.999
86596SOL    HW261622   7.569  10.715  10.148
86597SOL     OW61623   1.860  10.546   2.063
86597SOL    HW161624   1.898  10.493   1.993
86597SOL    HW261625   1.809  10.484   2.116
86598SOL     OW61626   7.855   7.944   2.572
86598SOL    HW161627   7.818   7.994   2.499
86598SOL    HW261628   7.788   7.879   2.593
86599SOL     OW61629   4.651  13.685   7.447
86599SOL    HW161630   4.620  13.704   7.536
86599SOL    HW261631   4.735  13.640   7.460
86600SOL     OW61632  10.641   6.415   7.992
86600SOL    HW161633  10.726   6.390   8.029
86600SOL    HW261634  10.582   6.417   8.067
86601SOL     OW61635   4.706   3.206   0.677
86601SOL    HW161636   4.780   3.260   0.705
86601SOL    HW261637   4.703   3.218   0.582
86602SOL     OW61638   2.390   8.720   5.168
86602SOL    HW161639   2.308   8.757   5.134
86602SOL    HW261640   2.407   8.643   5.114
86603SOL     OW61641   3.496   8.612   6.429
86603SOL    HW161642   3.583   8.649   6.416
86603SOL    HW261643   3.509   8.539   6.489
86604SOL     OW61644   4.926   0.235   7.177
86604SOL    HW161645   4.884   0.258   7.095
86604SOL    HW261646   4.866   0.267   7.245
86605SOL     OW61647  11.086  10.599  10.117
86605SOL    HW161648  11.068  10.621  10.026
86605SOL    HW261649  11.159  10.537  10.114
86606SOL     OW61650   8.048  14.581   3.519
86606SOL    HW161651   7.969  14.636   3.518
86606SOL    HW261652   8.023  14.504   3.570
86607SOL     OW61653   7.636  10.549   6.743
86607SOL    HW161654   7.637  10.620   6.808
86607SOL    HW261655   7.678  10.476   6.788
86608SOL     OW61656   9.456   0.434  10.967
86608SOL    HW161657   9.380   0.391  10.929
86608SOL    HW261658   9.502   0.472  10.892
86609SOL     OW61659   2.805  13.652   4.293
86609SOL    HW161660   2.712  13.627   4.292
86609SOL    HW261661   2.850  13.579   4.251
86610SOL     OW61662  11.577  13.997  14.478
86610SOL    HW161663  11.566  13.947  14.560
86610SOL    HW261664  11.536  13.942  14.412
86611SOL     OW61665   4.802   8.012   8.280
86611SOL    HW161666   4.852   7.977   8.205
86611SOL    HW261667   4.782   8.102   8.254
86612SOL     OW61668  13.519   9.377   5.155
86612SOL    HW161669  13.573   9.450   5.125
86612SOL    HW261670  13.498   9.399   5.246
86613SOL     OW61671   8.698   4.559   2.169
86613SOL    HW161672   8.729   4.518   2.088
86613SOL    HW261673   8.708   4.653   2.153
86614SOL     OW61674   6.990   2.391   4.502
86614SOL    HW161675   6.961   2.376   4.412
86614SOL    HW261676   6.934   2.462   4.534
86615SOL     OW61677   2.649  13.965  11.457
86615SOL    HW161678   2.581  13.961  11.524
86615SOL    HW261679   2.718  13.907  11.489
86616SOL     OW61680  12.503   6.822   9.999
86616SOL    HW161681  12.525   6.834   9.907
86616SOL    HW261682  12.557   6.749  10.028
86617SOL     OW61683   6.738  14.406   0.417
86617SOL    HW161684   6.729  14.424   0.324
86617SOL    HW261685   6.832  14.402   0.432
86618SOL     OW61686   7.687  12.915   8.398
86618SOL    HW161687   7.597  12.913   8.367
86618SOL    HW261688   7.741  12.911   8.319
86619SOL     OW61689   4.959  13.407   6.600
86619SOL    HW161690   4.957  13.358   6.682
86619SOL    HW261691   5.029  13.365   6.549
86620SOL     OW61692  11.599   6.489   8.673
86620SOL    HW161693  11.584   6.493   8.578
86620SOL    HW261694  11.627   6.399   8.688
86621SOL     OW61695  10.147  12.476  10.577
86621SOL    HW161696  10.121  12.392  10.615
86621SOL    HW261697  10.088  12.487  10.502
86622SOL     OW61698   7.623   4.814  12.328
86622SOL    HW161699   7.559   4.835  12.260
86622SOL    HW261700   7.581   4.842  12.409
86623SOL     OW61701  12.271  10.206   2.232
86623SOL    HW161702  12.325  10.131   2.257
86623SOL    HW261703  12.307  10.234   2.148
86624SOL     OW61704   5.336  13.763  13.545
86624SOL    HW161705   5.310  13.672  13.530
86624SOL    HW261706   5.268  13.799  13.602
86625SOL     OW61707   4.929   1.793   5.366
86625SOL    HW161708   4.856   1.797   5.305
86625SOL    HW261709   4.890   1.762   5.448
86626SOL     OW61710  10.370   8.677   2.724
86626SOL    HW161711  10.430   8.605   2.743
86626SOL    HW261712  10.286   8.649   2.759
86627SOL     OW61713   8.240  10.199   0.903
86627SOL    HW161714   8.313  10.246   0.942
86627SOL    HW261715   8.254  10.108   0.929
86628SOL     OW61716  14.782   2.109   5.047
86628SOL    HW161717  14.688   2.092   5.056
86628SOL    HW261718  14.793   2.200   5.072
86629SOL     OW61719   4.181  11.758   8.025
86629SOL    HW161720   4.237  11.681   8.037
86629SOL    HW261721   4.199  11.787   7.936
86630SOL     OW61722   6.620  12.804   6.978
86630SOL    HW161723   6.647  12.876   7.034
86630SOL    HW261724   6.571  12.746   7.036
86631SOL     OW61725   5.410  11.974   2.276
86631SOL    HW161726   5.393  11.902   2.215
86631SOL    HW261727   5.368  12.050   2.237
86632SOL     OW61728   0.201   1.155   1.018
86632SOL    HW161729   0.233   1.106   1.094
86632SOL    HW261730   0.213   1.246   1.042
86633SOL     OW61731  13.915  12.855   3.827
86633SOL    HW161732  13.970  12.933   3.820
86633SOL    HW261733  13.878  12.845   3.739
86634SOL     OW61734  10.591  11.305  13.111
86634SOL    HW161735  10.683  11.304  13.135
86634SOL    HW261736  10.545  11.326  13.192
86635SOL     OW61737   3.506   7.527  10.735
86635SOL    HW161738   3.454   7.607  10.730
86635SOL    HW261739   3.493   7.495  10.825
86636SOL     OW61740   7.732  13.874   1.114
86636SOL    HW161741   7.815  13.838   1.145
86636SOL    HW261742   7.712  13.946   1.175
86637SOL     OW61743   5.047   0.896  10.778
86637SOL    HW161744   5.121   0.923  10.724
86637SOL    HW261745   5.069   0.928  10.866
86638SOL     OW61746   5.750   4.718   8.052
86638SOL    HW161747   5.797   4.658   7.995
86638SOL    HW261748   5.723   4.790   7.994
86639SOL     OW61749   2.553   0.680   7.682
86639SOL    HW161750   2.503   0.610   7.724
86639SOL    HW261751   2.489   0.730   7.632
86640SOL     OW61752   2.664   0.872   2.160
86640SOL    HW161753   2.750   0.832   2.145
86640SOL    HW261754   2.603   0.799   2.159
86641SOL     OW61755   4.394  13.406   0.208
86641SOL    HW161756   4.459  13.382   0.275
86641SOL    HW261757   4.368  13.323   0.168
86642SOL     OW61758  11.326   7.840  10.132
86642SOL    HW161759  11.371   7.761  10.161
86642SOL    HW261760  11.238   7.809  10.108
86643SOL     OW61761  12.187   8.875  11.943
86643SOL    HW161762  12.108   8.839  11.903
86643SOL    HW261763  12.206   8.817  12.017
86644SOL     OW61764   1.175  11.439   5.473
86644SOL    HW161765   1.214  11.477   5.551
86644SOL    HW261766   1.208  11.349   5.470
86645SOL     OW61767   1.693   3.925   1.526
86645SOL    HW161768   1.702   3.990   1.457
86645SOL    HW261769   1.687   3.841   1.480
86646SOL     OW61770  13.371   7.498   8.397
86646SOL    HW161771  13.318   7.418   8.398
86646SOL    HW261772  13.414   7.499   8.483
86647SOL     OW61773  13.549   0.462   0.217
86647SOL    HW161774  13.625   0.482   0.272
86647SOL    HW261775  13.540   0.366   0.223
86648SOL     OW61776  13.103   7.461  11.643
86648SOL    HW161777  13.196   7.473  11.662
86648SOL    HW261778  13.091   7.366  11.638
86649SOL     OW61779  10.156   5.034  13.910
86649SOL    HW161780  10.070   5.075  13.910
86649SOL    HW261781  10.216   5.104  13.887
86650SOL     OW61782  14.339   7.704   6.052
86650SOL    HW161783  14.282   7.697   5.975
86650SOL    HW261784  14.316   7.629   6.107
86651SOL     OW61785  12.517   5.332  11.382
86651SOL    HW161786  12.486   5.399  11.444
86651SOL    HW261787  12.478   5.357  11.298
86652SOL     OW61788   8.050   6.093  11.203
86652SOL    HW161789   8.059   6.023  11.138
86652SOL    HW261790   8.044   6.048  11.287
86653SOL     OW61791   0.522   0.522  10.104
86653SOL    HW161792   0.596   0.553  10.052
86653SOL    HW261793   0.518   0.583  10.178
86654SOL     OW61794   1.360  11.606   6.861
86654SOL    HW161795   1.344  11.649   6.777
86654SOL    HW261796   1.362  11.678   6.924
86655SOL     OW61797  14.816  11.865   9.489
86655SOL    HW161798   0.010  11.926   9.521
86655SOL    HW261799  14.793  11.898   9.402
86656SOL     OW61800   8.284  12.211   3.173
86656SOL    HW161801   8.262  12.121   3.151
86656SOL    HW261802   8.308  12.208   3.266
86657SOL     OW61803  11.194  11.900   7.392
86657SOL    HW161804  11.124  11.844   7.357
86657SOL    HW261805  11.164  11.924   7.479
86658SOL     OW61806   1.629   3.426   9.455
86658SOL    HW161807   1.637   3.367   9.380
86658SOL    HW261808   1.577   3.499   9.422
86659SOL     OW61809  10.229  13.017   9.901
86659SOL    HW161810  10.183  13.041   9.820
86659SOL    HW261811  10.160  12.994   9.963
86660SOL     OW61812  14.517   2.614   4.379
86660SOL    HW161813  14.459   2.632   4.453
86660SOL    HW261814  14.569   2.538   4.407
86661SOL     OW61815  11.076   2.088   3.039
86661SOL    HW161816  11.123   2.018   3.085
86661SOL    HW261817  11.139   2.121   2.974
86662SOL     OW61818  12.791   3.897  13.543
86662SOL    HW161819  12.766   3.981  13.505
86662SOL    HW261820  12.770   3.833  13.476
86663SOL     OW61821   0.231  13.368   3.270
86663SOL    HW161822   0.263  13.327   3.350
86663SOL    HW261823   0.136  13.363   3.276
86664SOL     OW61824   2.868   8.285   3.575
86664SOL    HW161825   2.875   8.319   3.664
86664SOL    HW261826   2.808   8.211   3.583
86665SOL     OW61827   6.862   4.120  14.107
86665SOL    HW161828   6.787   4.100  14.051
86665SOL    HW261829   6.938   4.112  14.050
86666SOL     OW61830  11.034  11.423   0.270
86666SOL    HW161831  10.977  11.488   0.230
86666SOL    HW261832  10.990  11.339   0.253
86667SOL     OW61833   1.376   6.404   2.249
86667SOL    HW161834   1.334   6.336   2.196
86667SOL    HW261835   1.373   6.369   2.338
86668SOL     OW61836   2.634  13.490   7.840
86668SOL    HW161837   2.627  13.551   7.914
86668SOL    HW261838   2.553  13.440   7.844
86669SOL     OW61839   8.021   5.779   6.160
86669SOL    HW161840   8.042   5.782   6.254
86669SOL    HW261841   8.036   5.868   6.129
86670SOL     OW61842   5.217   7.297   6.306
86670SOL    HW161843   5.142   7.243   6.332
86670SOL    HW261844   5.234   7.272   6.215
86671SOL     OW61845   9.008   0.578   5.434
86671SOL    HW161846   9.028   0.588   5.527
86671SOL    HW261847   9.016   0.667   5.399
86672SOL     OW61848  11.067   4.845   1.056
86672SOL    HW161849  11.107   4.918   1.009
86672SOL    HW261850  11.141   4.795   1.090
86673SOL     OW61851   9.018   6.296   0.391
86673SOL    HW161852   8.942   6.239   0.389
86673SOL    HW261853   9.024   6.332   0.303
86674SOL     OW61854   4.340   5.711   8.639
86674SOL    HW161855   4.338   5.739   8.548
86674SOL    HW261856   4.419   5.658   8.647
86675SOL     OW61857  13.932  12.678  12.653
86675SOL    HW161858  13.921  12.743  12.584
86675SOL    HW261859  14.015  12.701  12.695
86676SOL     OW61860  12.373  13.854  13.979
86676SOL    HW161861  12.427  13.875  13.903
86676SOL    HW261862  12.342  13.765  13.962
86677SOL     OW61863   2.886   6.436   1.627
86677SOL    HW161864   2.915   6.361   1.574
86677SOL    HW261865   2.967   6.479   1.655
86678SOL     OW61866  11.877  10.255  10.095
86678SOL    HW161867  11.790  10.233  10.128
86678SOL    HW261868  11.875  10.351  10.087
86679SOL     OW61869  13.712  12.050  13.414
86679SOL    HW161870  13.792  12.031  13.365
86679SOL    HW261871  13.723  12.005  13.498
86680SOL     OW61872   5.810   2.271  14.355
86680SOL    HW161873   5.801   2.232  14.268
86680SOL    HW261874   5.791   2.364  14.341
86681SOL     OW61875  14.558  11.483   5.837
86681SOL    HW161876  14.550  11.479   5.741
86681SOL    HW261877  14.511  11.406   5.869
86682SOL     OW61878   5.575  10.752   3.867
86682SOL    HW161879   5.626  10.681   3.907
86682SOL    HW261880   5.515  10.780   3.936
86683SOL     OW61881  14.131   0.113   5.528
86683SOL    HW161882  14.201   0.052   5.504
86683SOL    HW261883  14.084   0.128   5.446
86684SOL     OW61884   3.372   3.027  13.897
86684SOL    HW161885   3.370   3.034  13.992
86684SOL    HW261886   3.465   3.020  13.875
86685SOL     OW61887   9.372   9.328   0.575
86685SOL    HW161888   9.363   9.276   0.495
86685SOL    HW261889   9.303   9.394   0.568
86686SOL     OW61890  11.386   7.684  10.821
86686SOL    HW161891  11.365   7.734  10.742
86686SOL    HW261892  11.420   7.749  10.882
86687SOL     OW61893  11.913   9.466   5.126
86687SOL    HW161894  11.966   9.387   5.135
86687SOL    HW261895  11.881   9.464   5.036
86688SOL     OW61896   6.621  14.127   5.452
86688SOL    HW161897   6.581  14.197   5.503
86688SOL    HW261898   6.619  14.158   5.362
86689SOL     OW61899  13.206   1.322   4.790
86689SOL    HW161900  13.160   1.246   4.755
86689SOL    HW261901  13.286   1.327   4.737
86690SOL     OW61902   3.555  12.167  12.532
86690SOL    HW161903   3.638  12.200  12.566
86690SOL    HW261904   3.538  12.088  12.583
86691SOL     OW61905   2.582   4.334  10.182
86691SOL    HW161906   2.564   4.391  10.107
86691SOL    HW261907   2.500   4.331  10.231
86692SOL     OW61908   7.407   7.115  11.509
86692SOL    HW161909   7.427   7.168  11.432
86692SOL    HW261910   7.434   7.168  11.584
86693SOL     OW61911  10.983   0.450   2.903
86693SOL    HW161912  11.019   0.537   2.890
86693SOL    HW261913  10.956   0.449   2.995
86694SOL     OW61914   8.642  12.050   7.867
86694SOL    HW161915   8.655  11.975   7.810
86694SOL    HW261916   8.723  12.056   7.917
86695SOL     OW61917   2.134   6.880  12.961
86695SOL    HW161918   2.204   6.814  12.962
86695SOL    HW261919   2.055   6.832  12.984
86696SOL     OW61920  13.967   3.087  11.241
86696SOL    HW161921  13.898   3.025  11.266
86696SOL    HW261922  13.998   3.056  11.156
86697SOL     OW61923   4.907   4.435  10.396
86697SOL    HW161924   4.828   4.435  10.342
86697SOL    HW261925   4.978   4.457  10.336
86698SOL     OW61926   1.353   5.358  14.062
86698SOL    HW161927   1.322   5.304  14.134
86698SOL    HW261928   1.279   5.363  14.002
86699SOL     OW61929   0.964   7.608   4.691
86699SOL    HW161930   1.031   7.562   4.641
86699SOL    HW261931   1.013   7.653   4.761
86700SOL     OW61932  12.956  13.920   0.105
86700SOL    HW161933  13.027  13.860   0.085
86700SOL    HW261934  12.884  13.891   0.048
86701SOL     OW61935   7.005   0.081  11.876
86701SOL    HW161936   7.100   0.076  11.883
86701SOL    HW261937   6.990   0.113  11.786
86702SOL     OW61938  13.290   4.069   2.957
86702SOL    HW161939  13.385   4.058   2.954
86702SOL    HW261940  13.276   4.134   3.027
86703SOL     OW61941   2.260  11.037   4.634
86703SOL    HW161942   2.279  11.112   4.578
86703SOL    HW261943   2.316  10.967   4.599
86704SOL     OW61944   0.184   9.051   8.229
86704SOL    HW161945   0.121   8.996   8.182
86704SOL    HW261946   0.129   9.117   8.272
86705SOL     OW61947  14.271  10.083   8.404
86705SOL    HW161948  14.217  10.013   8.442
86705SOL    HW261949  14.358  10.070   8.442
86706SOL     OW61950   3.347   3.022   9.698
86706SOL    HW161951   3.428   3.002   9.649
86706SOL    HW261952   3.375   3.080   9.768
86707SOL     OW61953  12.498   2.410   9.861
86707SOL    HW161954  12.413   2.436   9.896
86707SOL    HW261955  12.480   2.331   9.811
86708SOL     OW61956   1.075   2.179   8.150
86708SOL    HW161957   1.127   2.179   8.069
86708SOL    HW261958   1.110   2.252   8.201
86709SOL     OW61959   6.338   1.684   6.587
86709SOL    HW161960   6.381   1.628   6.651
86709SOL    HW261961   6.406   1.745   6.559
86710SOL     OW61962  12.792   4.691   9.224
86710SOL    HW161963  12.704   4.729   9.225
86710SOL    HW261964  12.783   4.609   9.272
86711SOL     OW61965   4.146   9.637   4.233
86711SOL    HW161966   4.099   9.556   4.253
86711SOL    HW261967   4.221   9.637   4.292
86712SOL     OW61968  13.079   8.313  11.873
86712SOL    HW161969  13.083   8.230  11.826
86712SOL    HW261970  13.118   8.294  11.959
86713SOL     OW61971  13.269   5.895  11.973
86713SOL    HW161972  13.364   5.887  11.984
86713SOL    HW261973  13.232   5.844  12.045
86714SOL     OW61974  14.700   0.296   8.245
86714SOL    HW161975  14.658   0.265   8.165
86714SOL    HW261976  14.633   0.348   8.289
86715SOL     OW61977   5.312   9.521   8.519
86715SOL    HW161978   5.345   9.601   8.479
86715SOL    HW261979   5.319   9.536   8.613
86716SOL     OW61980  12.755   6.377  14.471
86716SOL    HW161981  12.769   6.375  14.566
86716SOL    HW261982  12.664   6.352  14.459
86717SOL     OW61983   5.930   3.701   0.507
86717SOL    HW161984   5.914   3.795   0.516
86717SOL    HW261985   5.890   3.662   0.584
86718SOL     OW61986  10.431   6.709  12.237
86718SOL    HW161987  10.359   6.655  12.271
86718SOL    HW261988  10.399   6.799  12.245
86719SOL     OW61989  13.345  13.963  12.195
86719SOL    HW161990  13.399  13.935  12.121
86719SOL    HW261991  13.394  14.036  12.234
86720SOL     OW61992  12.117  11.277   5.890
86720SOL    HW161993  12.064  11.324   5.955
86720SOL    HW261994  12.065  11.201   5.866
86721SOL     OW61995  12.558  11.061  10.269
86721SOL    HW161996  12.619  11.107  10.326
86721SOL    HW261997  12.527  10.986  10.321
86722SOL     OW61998  12.645   0.219   9.535
86722SOL    HW161999  12.629   0.308   9.567
86722SOL    HW262000  12.740   0.213   9.527
86723SOL     OW62001   9.995  12.830   1.466
86723SOL    HW162002   9.903  12.825   1.490
86723SOL    HW262003  10.025  12.739   1.468
86724SOL     OW62004   6.435  11.467   0.571
86724SOL    HW162005   6.356  11.416   0.586
86724SOL    HW262006   6.488  11.452   0.649
86725SOL     OW62007   6.745   0.790   4.287
86725SOL    HW162008   6.682   0.761   4.354
86725SOL    HW262009   6.700   0.861   4.241
86726SOL     OW62010  11.116   0.754   4.867
86726SOL    HW162011  11.164   0.711   4.796
86726SOL    HW262012  11.174   0.826   4.894
86727SOL     OW62013   5.246   8.293   1.714
86727SOL    HW162014   5.207   8.236   1.648
86727SOL    HW262015   5.340   8.290   1.697
86728SOL     OW62016  11.269  12.720  14.252
86728SOL    HW162017  11.303  12.643  14.207
86728SOL    HW262018  11.253  12.784  14.182
86729SOL     OW62019   7.176  13.893   4.193
86729SOL    HW162020   7.142  13.803   4.193
86729SOL    HW262021   7.272  13.882   4.189
86730SOL     OW62022   9.433   9.200   0.876
86730SOL    HW162023   9.521   9.177   0.905
86730SOL    HW262024   9.443   9.224   0.784
86731SOL     OW62025   1.708   7.881   5.836
86731SOL    HW162026   1.656   7.800   5.840
86731SOL    HW262027   1.791   7.854   5.797
86732SOL     OW62028  11.749   8.019   5.688
86732SOL    HW162029  11.758   8.090   5.751
86732SOL    HW262030  11.805   8.044   5.615
86733SOL     OW62031  11.413  13.047  12.900
86733SOL    HW162032  11.469  13.124  12.911
86733SOL    HW262033  11.324  13.081  12.904
86734SOL     OW62034   5.812   3.896  12.001
86734SOL    HW162035   5.843   3.934  11.919
86734SOL    HW262036   5.760   3.965  12.042
86735SOL     OW62037  14.516  12.245  11.986
86735SOL    HW162038  14.594  12.285  12.024
86735SOL    HW262039  14.549  12.169  11.938
86736SOL     OW62040  11.676   8.707   2.412
86736SOL    HW162041  11.602   8.677   2.360
86736SOL    HW262042  11.733   8.752   2.350
86737SOL     OW62043   8.721   8.167   9.270
86737SOL    HW162044   8.768   8.155   9.353
86737SOL    HW262045   8.787   8.151   9.203
86738SOL     OW62046   6.030   5.060  10.718
86738SOL    HW162047   6.052   5.145  10.679
86738SOL    HW262048   6.010   5.004  10.643
86739SOL     OW62049   7.581  12.142  13.832
86739SOL    HW162050   7.525  12.069  13.805
86739SOL    HW262051   7.552  12.215  13.779
86740SOL     OW62052  10.108  10.746   3.918
86740SOL    HW162053  10.159  10.690   3.860
86740SOL    HW262054  10.018  10.712   3.911
86741SOL     OW62055  12.667   9.882   5.328
86741SOL    HW162056  12.706   9.802   5.363
86741SOL    HW262057  12.620   9.921   5.402
86742SOL     OW62058   0.232  10.440  13.985
86742SOL    HW162059   0.188  10.402  14.062
86742SOL    HW262060   0.215  10.534  13.993
86743SOL     OW62061   5.256   5.773   4.568
86743SOL    HW162062   5.189   5.785   4.635
86743SOL    HW262063   5.328   5.831   4.595
86744SOL     OW62064  11.170  13.783  12.458
86744SOL    HW162065  11.261  13.756  12.448
86744SOL    HW262066  11.175  13.866  12.506
86745SOL     OW62067   1.974   6.131   1.964
86745SOL    HW162068   1.937   6.115   1.877
86745SOL    HW262069   1.995   6.224   1.965
86746SOL     OW62070   7.272   3.722  13.383
86746SOL    HW162071   7.266   3.629  13.362
86746SOL    HW262072   7.290   3.724  13.477
86747SOL     OW62073  12.984   9.206   7.580
86747SOL    HW162074  13.029   9.280   7.620
86747SOL    HW262075  13.048   9.135   7.582
86748SOL     OW62076   0.379   2.326  11.336
86748SOL    HW162077   0.414   2.380  11.406
86748SOL    HW262078   0.451   2.317  11.273
86749SOL     OW62079  13.305   4.280  12.984
86749SOL    HW162080  13.229   4.222  12.972
86749SOL    HW262081  13.381   4.223  12.971
86750SOL     OW62082   3.150   7.105  11.311
86750SOL    HW162083   3.181   7.196  11.308
86750SOL    HW262084   3.115   7.089  11.224
86751SOL     OW62085  10.696   6.249  13.207
86751SOL    HW162086  10.755   6.196  13.261
86751SOL    HW262087  10.658   6.186  13.145
86752SOL     OW62088  12.870   4.302   1.376
86752SOL    HW162089  12.882   4.391   1.410
86752SOL    HW262090  12.930   4.295   1.303
86753SOL     OW62091   7.519   7.117   1.195
86753SOL    HW162092   7.477   7.152   1.274
86753SOL    HW262093   7.603   7.083   1.227
86754SOL     OW62094  14.476  12.821  14.610
86754SOL    HW162095  14.423  12.817  14.530
86754SOL    HW262096  14.504  12.912  14.615
86755SOL     OW62097   7.415   3.323  14.277
86755SOL    HW162098   7.385   3.280  14.197
86755SOL    HW262099   7.386   3.266  14.348
86756SOL     OW62100  12.591   0.526   4.374
86756SOL    HW162101  12.650   0.517   4.299
86756SOL    HW262102  12.553   0.614   4.364
86757SOL     OW62103  11.639  11.194  13.739
86757SOL    HW162104  11.707  11.149  13.789
86757SOL    HW262105  11.574  11.127  13.720
86758SOL     OW62106   7.308   9.109   1.673
86758SOL    HW162107   7.232   9.098   1.729
86758SOL    HW262108   7.272   9.118   1.584
86759SOL     OW62109  12.016   1.120  11.016
86759SOL    HW162110  12.046   1.202  10.975
86759SOL    HW262111  12.044   1.051  10.956
86760SOL     OW62112   7.698  13.514   9.258
86760SOL    HW162113   7.774  13.508   9.199
86760SOL    HW262114   7.720  13.586   9.317
86761SOL     OW62115  13.368   4.396   9.974
86761SOL    HW162116  13.401   4.381  10.063
86761SOL    HW262117  13.347   4.490   9.972
86762SOL     OW62118   5.410   3.353   3.347
86762SOL    HW162119   5.386   3.263   3.368
86762SOL    HW262120   5.339   3.385   3.292
86763SOL     OW62121  12.082  10.693   1.356
86763SOL    HW162122  12.045  10.753   1.290
86763SOL    HW262123  12.032  10.612   1.345
86764SOL     OW62124   5.708   3.006  11.622
86764SOL    HW162125   5.716   3.013  11.717
86764SOL    HW262126   5.766   3.075  11.588
86765SOL     OW62127   2.128   5.620   8.758
86765SOL    HW162128   2.055   5.559   8.773
86765SOL    HW262129   2.197   5.566   8.721
86766SOL     OW62130  14.777   2.649  10.116
86766SOL    HW162131  14.682   2.643  10.127
86766SOL    HW262132  14.789   2.718  10.051
86767SOL     OW62133   0.757  10.229  10.042
86767SOL    HW162134   0.816  10.165  10.083
86767SOL    HW262135   0.708  10.178   9.977
86768SOL     OW62136   1.802   0.430  12.304
86768SOL    HW162137   1.735   0.449  12.370
86768SOL    HW262138   1.752   0.411  12.225
86769SOL     OW62139  12.687  11.890  13.558
86769SOL    HW162140  12.649  11.856  13.477
86769SOL    HW262141  12.733  11.969  13.532
86770SOL     OW62142   7.520   9.102  10.548
86770SOL    HW162143   7.501   9.019  10.505
86770SOL    HW262144   7.517   9.167  10.477
86771SOL     OW62145  13.160   4.194   1.362
86771SOL    HW162146  13.088   4.180   1.425
86771SOL    HW262147  13.119   4.241   1.290
86772SOL     OW62148   4.641  13.200  14.556
86772SOL    HW162149   4.718  13.166  14.512
86772SOL    HW262150   4.606  13.125  14.604
86773SOL     OW62151   0.180  10.887   5.206
86773SOL    HW162152   0.143  10.960   5.156
86773SOL    HW262153   0.198  10.820   5.139
86774SOL     OW62154   3.653  11.931  14.835
86774SOL    HW162155   3.742  11.942  14.801
86774SOL    HW262156   3.603  12.003  14.796
86775SOL     OW62157   7.679   5.541   1.144
86775SOL    HW162158   7.639   5.556   1.059
86775SOL    HW262159   7.772   5.531   1.126
86776SOL     OW62160  14.811  14.440   0.146
86776SOL    HW162161  14.801  14.350   0.176
86776SOL    HW262162   0.010  14.437   0.083
86777SOL     OW62163   5.753  12.907   7.439
86777SOL    HW162164   5.817  12.842   7.410
86777SOL    HW262165   5.717  12.871   7.520
86778SOL     OW62166   6.898   8.432   2.539
86778SOL    HW162167   6.859   8.353   2.501
86778SOL    HW262168   6.916   8.408   2.630
86779SOL     OW62169  14.089  14.675   5.953
86779SOL    HW162170  14.060  14.637   5.870
86779SOL    HW262171  14.183  14.690   5.942
86780SOL     OW62172   3.229   3.310   7.393
86780SOL    HW162173   3.262   3.251   7.326
86780SOL    HW262174   3.269   3.278   7.474
86781SOL     OW62175   7.273   9.441  10.720
86781SOL    HW162176   7.241   9.467  10.633
86781SOL    HW262177   7.262   9.519  10.774
86782SOL     OW62178   4.865   3.842   2.844
86782SOL    HW162179   4.866   3.775   2.912
86782SOL    HW262180   4.845   3.923   2.891
86783SOL     OW62181   8.244  14.049   9.512
86783SOL    HW162182   8.320  14.063   9.456
86783SOL    HW262183   8.245  14.124   9.572
86784SOL     OW62184  13.432   4.483  14.045
86784SOL    HW162185  13.438   4.538  14.123
86784SOL    HW262186  13.382   4.536  13.983
86785SOL     OW62187  14.587   0.825   0.425
86785SOL    HW162188  14.673   0.795   0.393
86785SOL    HW262189  14.580   0.788   0.513
86786SOL     OW62190   6.037   4.578   4.553
86786SOL    HW162191   5.987   4.496   4.562
86786SOL    HW262192   6.028   4.621   4.638
86787SOL     OW62193   5.404   2.769   2.195
86787SOL    HW162194   5.383   2.694   2.140
86787SOL    HW262195   5.451   2.829   2.138
86788SOL     OW62196   4.093   0.617  10.134
86788SOL    HW162197   4.178   0.573  10.145
86788SOL    HW262198   4.093   0.648  10.043
86789SOL     OW62199   5.771   1.751   7.107
86789SOL    HW162200   5.866   1.740   7.113
86789SOL    HW262201   5.758   1.803   7.028
86790SOL     OW62202  11.119   7.345   2.143
86790SOL    HW162203  11.152   7.277   2.084
86790SOL    HW262204  11.124   7.305   2.230
86791SOL     OW62205   2.177   5.529   9.409
86791SOL    HW162206   2.179   5.555   9.502
86791SOL    HW262207   2.135   5.443   9.410
86792SOL     OW62208   5.407   2.210   2.636
86792SOL    HW162209   5.344   2.241   2.570
86792SOL    HW262210   5.447   2.290   2.670
86793SOL     OW62211  13.948   9.106   7.743
86793SOL    HW162212  13.930   9.155   7.824
86793SOL    HW262213  14.039   9.079   7.751
86794SOL     OW62214  11.270   8.046   0.535
86794SOL    HW162215  11.321   8.027   0.613
86794SOL    HW262216  11.273   7.965   0.484
86795SOL     OW62217   1.882   8.182  14.307
86795SOL    HW162218   1.788   8.196  14.291
86795SOL    HW262219   1.886   8.157  14.400
86796SOL     OW62220  10.679  10.917   9.700
86796SOL    HW162221  10.663  10.828   9.730
86796SOL    HW262222  10.747  10.950   9.759
86797SOL     OW62223   4.905   0.003  10.329
86797SOL    HW162224   4.928   0.094  10.350
86797SOL    HW262225   4.988  14.828  10.334
86798SOL     OW62226   2.203   6.502   8.379
86798SOL    HW162227   2.262   6.482   8.452
86798SOL    HW262228   2.170   6.417   8.351
86799SOL     OW62229   0.576   5.817   7.351
86799SOL    HW162230   0.628   5.739   7.333
86799SOL    HW262231   0.536   5.839   7.266
86800SOL     OW62232   3.494   7.519   3.084
86800SOL    HW162233   3.458   7.506   3.172
86800SOL    HW262234   3.420   7.555   3.034
86801SOL     OW62235   7.600  13.949   1.769
86801SOL    HW162236   7.513  13.987   1.781
86801SOL    HW262237   7.655  14.021   1.741
86802SOL     OW62238  10.373   9.950   0.963
86802SOL    HW162239  10.347   9.860   0.942
86802SOL    HW262240  10.460   9.959   0.924
86803SOL     OW62241  11.277  14.742  10.691
86803SOL    HW162242  11.313  14.799  10.624
86803SOL    HW262243  11.352  14.721  10.748
86804SOL     OW62244   5.555   8.075   1.274
86804SOL    HW162245   5.607   7.997   1.257
86804SOL    HW262246   5.464   8.046   1.268
86805SOL     OW62247   7.964   6.996   9.379
86805SOL    HW162248   7.936   7.001   9.471
86805SOL    HW262249   7.886   7.021   9.330
86806SOL     OW62250  11.111  12.198   9.308
86806SOL    HW162251  11.094  12.105   9.294
86806SOL    HW262252  11.169  12.224   9.237
86807SOL     OW62253   5.793   9.686  14.798
86807SOL    HW162254   5.716   9.699  14.853
86807SOL    HW262255   5.812   9.592  14.806
86808SOL     OW62256   0.765  11.871   6.107
86808SOL    HW162257   0.727  11.891   6.192
86808SOL    HW262258   0.691  11.847   6.052
86809SOL     OW62259   7.888   2.207  11.379
86809SOL    HW162260   7.922   2.160  11.302
86809SOL    HW262261   7.859   2.138  11.438
86810SOL     OW62262   3.100  11.154   0.777
86810SOL    HW162263   3.159  11.091   0.736
86810SOL    HW262264   3.065  11.108   0.854
86811SOL     OW62265   5.097   7.067   4.515
86811SOL    HW162266   5.053   7.148   4.540
86811SOL    HW262267   5.080   7.058   4.422
86812SOL     OW62268   9.769   2.495  12.033
86812SOL    HW162269   9.765   2.512  11.939
86812SOL    HW262270   9.746   2.402  12.042
86813SOL     OW62271  11.344   8.224   3.451
86813SOL    HW162272  11.429   8.207   3.410
86813SOL    HW262273  11.354   8.309   3.493
86814SOL     OW62274   4.131   4.510  13.351
86814SOL    HW162275   4.157   4.440  13.412
86814SOL    HW262276   4.073   4.468  13.289
86815SOL     OW62277  14.676  14.154  12.314
86815SOL    HW162278  14.635  14.076  12.350
86815SOL    HW262279  14.736  14.183  12.382
86816SOL     OW62280  13.530   1.448   6.378
86816SOL    HW162281  13.499   1.419   6.464
86816SOL    HW262282  13.525   1.370   6.323
86817SOL     OW62283   9.150   3.972   4.591
86817SOL    HW162284   9.114   4.059   4.572
86817SOL    HW262285   9.076   3.913   4.579
86818SOL     OW62286   8.320   3.078   4.604
86818SOL    HW162287   8.287   2.994   4.571
86818SOL    HW262288   8.367   3.116   4.530
86819SOL     OW62289  11.387  13.002  13.844
86819SOL    HW162290  11.381  12.974  13.753
86819SOL    HW262291  11.372  13.097  13.841
86820SOL     OW62292   9.389   0.801   7.929
86820SOL    HW162293   9.336   0.850   7.992
86820SOL    HW262294   9.476   0.796   7.968
86821SOL     OW62295   0.626   0.369   9.421
86821SOL    HW162296   0.596   0.305   9.356
86821SOL    HW262297   0.569   0.445   9.409
86822SOL     OW62298   3.821   2.730   7.487
86822SOL    HW162299   3.813   2.702   7.396
86822SOL    HW262300   3.786   2.819   7.488
86823SOL     OW62301   0.857  12.414  10.331
86823SOL    HW162302   0.883  12.483  10.270
86823SOL    HW262303   0.939  12.369  10.351
86824SOL     OW62304  12.917  10.717   4.512
86824SOL    HW162305  12.965  10.657   4.570
86824SOL    HW262306  12.985  10.773   4.473
86825SOL     OW62307   0.748   0.527   0.822
86825SOL    HW162308   0.730   0.455   0.882
86825SOL    HW262309   0.786   0.595   0.877
86826SOL     OW62310   5.154  14.795   9.700
86826SOL    HW162311   5.233  14.785   9.753
86826SOL    HW262312   5.152   0.015   9.676
86827SOL     OW62313  10.076   5.837   3.683
86827SOL    HW162314   9.997   5.800   3.724
86827SOL    HW262315  10.042   5.898   3.618
86828SOL     OW62316  13.768   6.864   3.225
86828SOL    HW162317  13.852   6.887   3.185
86828SOL    HW262318  13.708   6.933   3.198
86829SOL     OW62319  12.363  14.821   9.710
86829SOL    HW162320  12.447  14.841   9.753
86829SOL    HW262321  12.299   0.003   9.756
86830SOL     OW62322   9.428   0.494   5.150
86830SOL    HW162323   9.510   0.538   5.173
86830SOL    HW262324   9.362   0.537   5.205
86831SOL     OW62325   3.935   4.490   9.616
86831SOL    HW162326   3.942   4.467   9.524
86831SOL    HW262327   3.871   4.428   9.652
86832SOL     OW62328   8.653  10.588   0.903
86832SOL    HW162329   8.687  10.646   0.971
86832SOL    HW262330   8.719  10.520   0.893
86833SOL     OW62331  11.075   6.507  14.848
86833SOL    HW162332  11.085   6.419  14.812
86833SOL    HW262333  10.985   6.532  14.824
86834SOL     OW62334  12.159   5.123  10.635
86834SOL    HW162335  12.086   5.091  10.581
86834SOL    HW262336  12.204   5.044  10.664
86835SOL     OW62337   9.209   8.769   0.724
86835SOL    HW162338   9.269   8.826   0.772
86835SOL    HW262339   9.124   8.785   0.765
86836SOL     OW62340  14.708   9.114   7.741
86836SOL    HW162341  14.777   9.048   7.744
86836SOL    HW262342  14.667   9.102   7.656
86837SOL     OW62343  13.984  10.764   9.871
86837SOL    HW162344  14.047  10.725   9.810
86837SOL    HW262345  13.902  10.769   9.821
86838SOL     OW62346  11.461   4.132   2.344
86838SOL    HW162347  11.548   4.158   2.375
86838SOL    HW262348  11.451   4.176   2.260
86839SOL     OW62349   8.353  13.955   2.242
86839SOL    HW162350   8.330  13.911   2.161
86839SOL    HW262351   8.447  13.938   2.252
86840SOL     OW62352   5.589   2.469  14.232
86840SOL    HW162353   5.531   2.395  14.249
86840SOL    HW262354   5.572   2.491  14.140
86841SOL     OW62355   0.033  10.426  14.690
86841SOL    HW162356  14.815  10.400  14.672
86841SOL    HW262357   0.054  10.380  14.772
86842SOL     OW62358  11.581   3.860   1.714
86842SOL    HW162359  11.527   3.903   1.648
86842SOL    HW262360  11.613   3.781   1.672
86843SOL     OW62361  10.628   3.595  10.069
86843SOL    HW162362  10.611   3.507  10.036
86843SOL    HW262363  10.599   3.653   9.999
86844SOL     OW62364   8.872  10.509  10.101
86844SOL    HW162365   8.879  10.580  10.038
86844SOL    HW262366   8.837  10.435  10.051
86845SOL     OW62367   9.459   5.965  13.230
86845SOL    HW162368   9.389   5.909  13.197
86845SOL    HW262369   9.441   6.051  13.192
86846SOL     OW62370   9.889   3.800   2.158
86846SOL    HW162371   9.964   3.774   2.212
86846SOL    HW262372   9.827   3.837   2.221
86847SOL     OW62373   3.334   6.251   3.197
86847SOL    HW162374   3.303   6.338   3.222
86847SOL    HW262375   3.345   6.205   3.280
86848SOL     OW62376   9.105   8.431   0.457
86848SOL    HW162377   9.138   8.429   0.547
86848SOL    HW262378   9.010   8.438   0.466
86849SOL     OW62379   4.077   5.283   3.751
86849SOL    HW162380   4.118   5.370   3.750
86849SOL    HW262381   4.012   5.287   3.681
86850SOL     OW62382   6.448   0.173   8.638
86850SOL    HW162383   6.514   0.148   8.702
86850SOL    HW262384   6.372   0.118   8.660
86851SOL     OW62385  12.405   4.996   5.844
86851SOL    HW162386  12.383   4.945   5.766
86851SOL    HW262387  12.478   5.051   5.817
86852SOL     OW62388   2.519   4.385   6.499
86852SOL    HW162389   2.529   4.452   6.567
86852SOL    HW262390   2.608   4.352   6.486
86853SOL     OW62391  10.092  10.634   1.647
86853SOL    HW162392  10.103  10.643   1.552
86853SOL    HW262393  10.113  10.542   1.665
86854SOL     OW62394   0.940  12.008  10.520
86854SOL    HW162395   0.950  12.083  10.579
86854SOL    HW262396   0.962  12.043  10.434
86855SOL     OW62397   5.712  13.498   4.049
86855SOL    HW162398   5.791  13.513   4.102
86855SOL    HW262399   5.667  13.426   4.093
86856SOL     OW62400   7.762   3.064   8.504
86856SOL    HW162401   7.739   3.137   8.561
86856SOL    HW262402   7.837   3.023   8.547
86857SOL     OW62403   8.063  12.631  12.679
86857SOL    HW162404   8.110  12.564  12.729
86857SOL    HW262405   8.008  12.675  12.744
86858SOL     OW62406  12.666  12.020   9.302
86858SOL    HW162407  12.586  12.069   9.284
86858SOL    HW262408  12.645  11.964   9.376
86859SOL     OW62409  11.693   4.158  13.828
86859SOL    HW162410  11.671   4.070  13.857
86859SOL    HW262411  11.610   4.206  13.833
86860SOL     OW62412  11.016   7.285   1.312
86860SOL    HW162413  10.952   7.255   1.377
86860SOL    HW262414  11.076   7.341   1.362
86861SOL     OW62415   3.730   1.465  12.290
86861SOL    HW162416   3.789   1.449  12.217
86861SOL    HW262417   3.652   1.413  12.270
86862SOL     OW62418   5.674  13.071   0.980
86862SOL    HW162419   5.708  13.159   0.995
86862SOL    HW262420   5.673  13.063   0.884
86863SOL     OW62421   5.812  11.584   5.341
86863SOL    HW162422   5.779  11.670   5.366
86863SOL    HW262423   5.886  11.603   5.283
86864SOL     OW62424   8.438   3.814   6.646
86864SOL    HW162425   8.408   3.833   6.557
86864SOL    HW262426   8.452   3.719   6.646
86865SOL     OW62427   2.285  13.180  14.078
86865SOL    HW162428   2.323  13.265  14.100
86865SOL    HW262429   2.342  13.116  14.121
86866SOL     OW62430  10.022  10.007  14.594
86866SOL    HW162431   9.962  10.021  14.667
86866SOL    HW262432  10.061   9.921  14.611
86867SOL     OW62433   7.781  11.962   5.514
86867SOL    HW162434   7.800  11.937   5.604
86867SOL    HW262435   7.685  11.961   5.509
86868SOL     OW62436   7.191   7.997   3.758
86868SOL    HW162437   7.273   7.985   3.710
86868SOL    HW262438   7.142   7.916   3.742
86869SOL     OW62439   5.248   1.780   8.675
86869SOL    HW162440   5.297   1.860   8.694
86869SOL    HW262441   5.298   1.710   8.716
86870SOL     OW62442   1.950   5.672   7.601
86870SOL    HW162443   1.985   5.656   7.514
86870SOL    HW262444   1.899   5.593   7.622
86871SOL     OW62445   5.102  14.213   3.093
86871SOL    HW162446   5.186  14.253   3.073
86871SOL    HW262447   5.065  14.190   3.008
86872SOL     OW62448   8.654  13.100  11.746
86872SOL    HW162449   8.666  13.014  11.786
86872SOL    HW262450   8.682  13.162  11.814
86873SOL     OW62451  11.982   5.833   4.170
86873SOL    HW162452  12.045   5.880   4.116
86873SOL    HW262453  11.909   5.894   4.181
86874SOL     OW62454  12.631  10.370  12.831
86874SOL    HW162455  12.678  10.329  12.903
86874SOL    HW262456  12.670  10.333  12.752
86875SOL     OW62457   9.586   2.508   8.733
86875SOL    HW162458   9.547   2.425   8.759
86875SOL    HW262459   9.518   2.573   8.748
86876SOL     OW62460  13.511  14.743  11.530
86876SOL    HW162461  13.589  14.741  11.585
86876SOL    HW262462  13.539  14.704  11.447
86877SOL     OW62463  14.386   4.311   3.229
86877SOL    HW162464  14.450   4.343   3.293
86877SOL    HW262465  14.377   4.218   3.249
86878SOL     OW62466   8.762   1.434  14.707
86878SOL    HW162467   8.696   1.383  14.753
86878SOL    HW262468   8.714   1.474  14.634
86879SOL     OW62469   8.537   5.847   1.970
86879SOL    HW162470   8.580   5.909   1.912
86879SOL    HW262471   8.595   5.771   1.973
86880SOL     OW62472  14.840  10.688  10.042
86880SOL    HW162473   0.036  10.622  10.033
86880SOL    HW262474  14.759  10.639  10.033
86881SOL     OW62475   5.471   0.679  14.730
86881SOL    HW162476   5.561   0.662  14.700
86881SOL    HW262477   5.435   0.740  14.666
86882SOL     OW62478   2.854  10.762   2.447
86882SOL    HW162479   2.888  10.852   2.438
86882SOL    HW262480   2.932  10.709   2.464
86883SOL     OW62481   8.482   1.400   9.544
86883SOL    HW162482   8.574   1.424   9.542
86883SOL    HW262483   8.482   1.305   9.526
86884SOL     OW62484   7.064   4.391  10.764
86884SOL    HW162485   6.998   4.424  10.824
86884SOL    HW262486   7.098   4.469  10.720
86885SOL     OW62487   3.009   3.128   1.672
86885SOL    HW162488   3.021   3.051   1.617
86885SOL    HW262489   2.947   3.183   1.623
86886SOL     OW62490   1.828   9.365  14.360
86886SOL    HW162491   1.797   9.403  14.277
86886SOL    HW262492   1.912   9.325  14.338
86887SOL     OW62493   2.520  13.878   8.300
86887SOL    HW162494   2.426  13.873   8.279
86887SOL    HW262495   2.531  13.966   8.338
86888SOL     OW62496   1.278   1.776   6.772
86888SOL    HW162497   1.365   1.745   6.748
86888SOL    HW262498   1.259   1.846   6.710
86889SOL     OW62499  13.305  14.134   9.139
86889SOL    HW162500  13.361  14.210   9.125
86889SOL    HW262501  13.226  14.169   9.180
86890SOL     OW62502   0.333   2.766  13.491
86890SOL    HW162503   0.405   2.807  13.539
86890SOL    HW262504   0.254   2.804  13.529
86891SOL     OW62505   4.571  10.348   8.709
86891SOL    HW162506   4.535  10.298   8.782
86891SOL    HW262507   4.649  10.298   8.683
86892SOL     OW62508   2.202   5.869  13.325
86892SOL    HW162509   2.175   5.844  13.413
86892SOL    HW262510   2.260   5.944  13.338
86893SOL     OW62511  11.225   1.284  13.748
86893SOL    HW162512  11.303   1.298  13.800
86893SOL    HW262513  11.210   1.367  13.704
86894SOL     OW62514   4.261   0.647   7.514
86894SOL    HW162515   4.191   0.713   7.520
86894SOL    HW262516   4.337   0.689   7.553
86895SOL     OW62517   9.707   7.303   1.307
86895SOL    HW162518   9.687   7.213   1.281
86895SOL    HW262519   9.732   7.347   1.226
86896SOL     OW62520  12.626  13.750  13.771
86896SOL    HW162521  12.653  13.719  13.857
86896SOL    HW262522  12.620  13.671  13.717
86897SOL     OW62523   1.457   2.170  10.455
86897SOL    HW162524   1.528   2.231  10.476
86897SOL    HW262525   1.502   2.086  10.441
86898SOL     OW62526   4.061   7.461   5.823
86898SOL    HW162527   4.111   7.480   5.901
86898SOL    HW262528   4.020   7.377   5.840
86899SOL     OW62529   4.626   4.356   2.777
86899SOL    HW162530   4.661   4.329   2.692
86899SOL    HW262531   4.700   4.353   2.836
86900SOL     OW62532   5.653   2.087   2.646
86900SOL    HW162533   5.681   2.171   2.610
86900SOL    HW262534   5.559   2.095   2.657
86901SOL     OW62535  12.080   4.104  12.404
86901SOL    HW162536  12.020   4.106  12.330
86901SOL    HW262537  12.115   4.193  12.408
86902SOL     OW62538   5.482  11.636  11.470
86902SOL    HW162539   5.493  11.540  11.470
86902SOL    HW262540   5.421  11.653  11.542
86903SOL     OW62541   6.283   2.446  11.357
86903SOL    HW162542   6.363   2.491  11.385
86903SOL    HW262543   6.248   2.407  11.437
86904SOL     OW62544  14.227   1.733   1.296
86904SOL    HW162545  14.257   1.698   1.380
86904SOL    HW262546  14.307   1.759   1.251
86905SOL     OW62547   2.600   2.622   1.983
86905SOL    HW162548   2.671   2.612   1.920
86905SOL    HW262549   2.547   2.543   1.973
86906SOL     OW62550   9.100  11.930   0.454
86906SOL    HW162551   9.113  11.843   0.417
86906SOL    HW262552   9.186  11.972   0.445
86907SOL     OW62553   3.596   7.585  12.629
86907SOL    HW162554   3.609   7.509  12.572
86907SOL    HW262555   3.678   7.634  12.624
86908SOL     OW62556   2.016   7.331   7.969
86908SOL    HW162557   1.970   7.367   8.045
86908SOL    HW262558   1.959   7.261   7.937
86909SOL     OW62559   9.800   7.293   7.056
86909SOL    HW162560   9.807   7.197   7.058
86909SOL    HW262561   9.858   7.319   6.984
86910SOL     OW62562  13.420   2.773   4.749
86910SOL    HW162563  13.340   2.820   4.772
86910SOL    HW262564  13.449   2.813   4.667
86911SOL     OW62565  10.068  12.534   6.057
86911SOL    HW162566  10.051  12.506   6.147
86911SOL    HW262567  10.085  12.453   6.010
86912SOL     OW62568   6.842   8.381   5.977
86912SOL    HW162569   6.753   8.382   5.942
86912SOL    HW262570   6.899   8.377   5.900
86913SOL     OW62571   1.468   3.260  10.112
86913SOL    HW162572   1.534   3.328  10.094
86913SOL    HW262573   1.501   3.183  10.066
86914SOL     OW62574   9.252   4.448  13.033
86914SOL    HW162575   9.326   4.388  13.041
86914SOL    HW262576   9.277   4.507  12.962
86915SOL     OW62577   0.629   9.937   2.944
86915SOL    HW162578   0.664   9.959   3.030
86915SOL    HW262579   0.703   9.899   2.897
86916SOL     OW62580   6.647   2.942   7.081
86916SOL    HW162581   6.620   2.879   7.014
86916SOL    HW262582   6.649   2.891   7.162
86917SOL     OW62583   6.120  14.214   3.802
86917SOL    HW162584   6.198  14.252   3.764
86917SOL    HW262585   6.086  14.155   3.734
86918SOL     OW62586  12.811   5.673  12.514
86918SOL    HW162587  12.865   5.681  12.436
86918SOL    HW262588  12.874   5.669  12.587
86919SOL     OW62589   6.388   7.379   2.756
86919SOL    HW162590   6.356   7.293   2.730
86919SOL    HW262591   6.310   7.432   2.768
86920SOL     OW62592   4.338  11.357   2.532
86920SOL    HW162593   4.403  11.317   2.590
86920SOL    HW262594   4.255  11.316   2.557
86921SOL     OW62595  10.907   4.275   4.898
86921SOL    HW162596  10.848   4.350   4.893
86921SOL    HW262597  10.884   4.233   4.981
86922SOL     OW62598  13.093   0.508   2.621
86922SOL    HW162599  13.024   0.453   2.583
86922SOL    HW262600  13.127   0.559   2.548
86923SOL     OW62601  14.679  14.622   6.604
86923SOL    HW162602  14.755  14.672   6.633
86923SOL    HW262603  14.713  14.536   6.580
86924SOL     OW62604   0.611  11.483   8.324
86924SOL    HW162605   0.633  11.550   8.259
86924SOL    HW262606   0.640  11.401   8.286
86925SOL     OW62607   3.100   6.995   4.947
86925SOL    HW162608   3.034   7.037   5.001
86925SOL    HW262609   3.061   6.991   4.859
86926SOL     OW62610  10.674   2.440   4.795
86926SOL    HW162611  10.661   2.531   4.822
86926SOL    HW262612  10.722   2.446   4.713
86927SOL     OW62613   2.408   9.317   3.376
86927SOL    HW162614   2.463   9.240   3.392
86927SOL    HW262615   2.320   9.281   3.363
86928SOL     OW62616   6.086   0.121   4.234
86928SOL    HW162617   6.027   0.170   4.290
86928SOL    HW262618   6.102   0.039   4.282
86929SOL     OW62619   9.259  13.465   5.639
86929SOL    HW162620   9.242  13.552   5.603
86929SOL    HW262621   9.268  13.409   5.562
86930SOL     OW62622  14.818  13.094  12.854
86930SOL    HW162623   0.020  13.055  12.899
86930SOL    HW262624  14.856  13.155  12.791
86931SOL     OW62625   8.063  13.508  13.946
86931SOL    HW162626   8.021  13.536  14.028
86931SOL    HW262627   8.097  13.421  13.965
86932SOL     OW62628  11.700   0.041   1.731
86932SOL    HW162629  11.613   0.013   1.759
86932SOL    HW262630  11.760  14.869   1.791
86933SOL     OW62631  14.182   0.460  12.158
86933SOL    HW162632  14.262   0.507  12.133
86933SOL    HW262633  14.205   0.415  12.240
86934SOL     OW62634   5.800   8.474   1.454
86934SOL    HW162635   5.732   8.542   1.456
86934SOL    HW262636   5.878   8.519   1.422
86935SOL     OW62637   5.435  13.210   4.911
86935SOL    HW162638   5.390  13.138   4.956
86935SOL    HW262639   5.408  13.202   4.820
86936SOL     OW62640   4.336  14.325   6.669
86936SOL    HW162641   4.310  14.401   6.721
86936SOL    HW262642   4.415  14.292   6.712
86937SOL     OW62643  13.196   0.696   6.521
86937SOL    HW162644  13.171   0.736   6.605
86937SOL    HW262645  13.204   0.603   6.540
86938SOL     OW62646  12.427   0.955   4.915
86938SOL    HW162647  12.460   1.040   4.885
86938SOL    HW262648  12.344   0.943   4.868
86939SOL     OW62649  11.516  12.641   4.827
86939SOL    HW162650  11.474  12.643   4.741
86939SOL    HW262651  11.456  12.590   4.882
86940SOL     OW62652   1.952  13.088   9.977
86940SOL    HW162653   2.016  13.082  10.048
86940SOL    HW262654   1.935  12.996   9.953
86941SOL     OW62655   3.463  13.595  10.505
86941SOL    HW162656   3.431  13.505  10.504
86941SOL    HW262657   3.554  13.588  10.476
86942SOL     OW62658   1.574   5.759  11.775
86942SOL    HW162659   1.621   5.695  11.829
86942SOL    HW262660   1.481   5.742  11.792
86943SOL     OW62661  11.562   8.181   6.164
86943SOL    HW162662  11.561   8.276   6.152
86943SOL    HW262663  11.654   8.156   6.158
86944SOL     OW62664  13.832  14.107   9.400
86944SOL    HW162665  13.790  14.135   9.482
86944SOL    HW262666  13.765  14.122   9.333
86945SOL     OW62667   5.352   5.986   2.187
86945SOL    HW162668   5.259   5.986   2.210
86945SOL    HW262669   5.357   6.037   2.105
86946SOL     OW62670   8.797   3.806   8.311
86946SOL    HW162671   8.844   3.778   8.233
86946SOL    HW262672   8.740   3.877   8.281
86947SOL     OW62673   5.897  13.745   7.624
86947SOL    HW162674   5.872  13.712   7.711
86947SOL    HW262675   5.934  13.668   7.580
86948SOL     OW62676   9.972  13.957   8.685
86948SOL    HW162677  10.006  13.980   8.599
86948SOL    HW262678   9.908  14.025   8.706
86949SOL     OW62679   6.288  14.292   6.761
86949SOL    HW162680   6.253  14.276   6.849
86949SOL    HW262681   6.214  14.276   6.702
86950SOL     OW62682   1.998  11.312   0.896
86950SOL    HW162683   1.994  11.340   0.987
86950SOL    HW262684   1.984  11.217   0.900
86951SOL     OW62685  10.981   9.337   7.467
86951SOL    HW162686  11.021   9.419   7.438
86951SOL    HW262687  11.014   9.271   7.405
86952SOL     OW62688  12.984   6.772  11.227
86952SOL    HW162689  12.924   6.697  11.231
86952SOL    HW262690  12.927   6.849  11.232
86953SOL     OW62691   6.983   5.122   4.357
86953SOL    HW162692   7.023   5.076   4.283
86953SOL    HW262693   6.901   5.156   4.322
86954SOL     OW62694  12.981   5.325   5.427
86954SOL    HW162695  13.039   5.288   5.492
86954SOL    HW262696  13.035   5.388   5.379
86955SOL     OW62697  10.120  13.849   8.983
86955SOL    HW162698  10.125  13.944   8.978
86955SOL    HW262699  10.077  13.822   8.902
86956SOL     OW62700   9.370   3.254  12.074
86956SOL    HW162701   9.276   3.262  12.058
86956SOL    HW262702   9.411   3.283  11.992
86957SOL     OW62703   8.662  12.529   7.771
86957SOL    HW162704   8.609  12.478   7.710
86957SOL    HW262705   8.750  12.494   7.761
86958SOL     OW62706   8.413  10.143   4.862
86958SOL    HW162707   8.392  10.225   4.818
86958SOL    HW262708   8.496  10.115   4.823
86959SOL     OW62709  12.408  10.175  12.905
86959SOL    HW162710  12.410  10.255  12.958
86959SOL    HW262711  12.357  10.113  12.957
86960SOL     OW62712   1.288   1.923  10.659
86960SOL    HW162713   1.284   2.015  10.634
86960SOL    HW262714   1.381   1.903  10.665
86961SOL     OW62715   4.709  10.365  11.670
86961SOL    HW162716   4.748  10.445  11.704
86961SOL    HW262717   4.619  10.388  11.649
86962SOL     OW62718   3.184  11.254   6.279
86962SOL    HW162719   3.265  11.270   6.327
86962SOL    HW262720   3.144  11.341   6.271
86963SOL     OW62721  12.297  11.225   7.801
86963SOL    HW162722  12.222  11.169   7.824
86963SOL    HW262723  12.286  11.303   7.855
86964SOL     OW62724   9.016   6.061   7.117
86964SOL    HW162725   9.065   6.143   7.110
86964SOL    HW262726   8.968   6.055   7.034
86965SOL     OW62727   7.822  12.708   2.457
86965SOL    HW162728   7.909  12.734   2.486
86965SOL    HW262729   7.828  12.614   2.443
86966SOL     OW62730   8.635  12.452   3.860
86966SOL    HW162731   8.598  12.528   3.905
86966SOL    HW262732   8.646  12.387   3.929
86967SOL     OW62733   0.310   8.520   4.012
86967SOL    HW162734   0.344   8.609   4.015
86967SOL    HW262735   0.262   8.516   3.929
86968SOL     OW62736  14.868   2.590   1.037
86968SOL    HW162737   0.023   2.515   1.090
86968SOL    HW262738   0.027   2.667   1.086
86969SOL     OW62739   7.490   0.743   2.753
86969SOL    HW162740   7.417   0.776   2.806
86969SOL    HW262741   7.451   0.677   2.696
86970SOL     OW62742   1.021   3.245   5.097
86970SOL    HW162743   1.039   3.322   5.043
86970SOL    HW262744   1.091   3.184   5.076
86971SOL     OW62745   0.208   1.003   6.550
86971SOL    HW162746   0.304   1.003   6.543
86971SOL    HW262747   0.179   0.952   6.474
86972SOL     OW62748   7.376  14.870   4.907
86972SOL    HW162749   7.442   0.059   4.875
86972SOL    HW262750   7.356   0.027   4.996
86973SOL     OW62751   2.246   1.709   8.940
86973SOL    HW162752   2.251   1.804   8.933
86973SOL    HW262753   2.177   1.684   8.878
86974SOL     OW62754  11.219   2.187   2.105
86974SOL    HW162755  11.257   2.272   2.129
86974SOL    HW262756  11.293   2.127   2.108
86975SOL     OW62757   4.900   0.752   0.601
86975SOL    HW162758   4.978   0.775   0.551
86975SOL    HW262759   4.921   0.779   0.691
86976SOL     OW62760   0.683   4.376  14.193
86976SOL    HW162761   0.733   4.309  14.239
86976SOL    HW262762   0.702   4.457  14.240
86977SOL     OW62763   5.460   2.779   1.391
86977SOL    HW162764   5.486   2.764   1.482
86977SOL    HW262765   5.393   2.847   1.397
86978SOL     OW62766   6.573   3.908  12.441
86978SOL    HW162767   6.510   3.899  12.513
86978SOL    HW262768   6.639   3.969  12.474
86979SOL     OW62769  11.229   0.111   7.745
86979SOL    HW162770  11.254   0.023   7.719
86979SOL    HW262771  11.311   0.152   7.774
86980SOL     OW62772  10.159   7.721   5.281
86980SOL    HW162773  10.074   7.678   5.290
86980SOL    HW262774  10.154   7.798   5.338
86981SOL     OW62775   7.303   6.323   7.001
86981SOL    HW162776   7.334   6.243   6.958
86981SOL    HW262777   7.373   6.387   6.987
86982SOL     OW62778   1.514   3.808  11.849
86982SOL    HW162779   1.430   3.846  11.875
86982SOL    HW262780   1.579   3.859  11.897
86983SOL     OW62781   3.004  14.520   6.746
86983SOL    HW162782   3.004  14.461   6.822
86983SOL    HW262783   3.037  14.467   6.674
86984SOL     OW62784   7.365  11.717   7.803
86984SOL    HW162785   7.403  11.707   7.716
86984SOL    HW262786   7.328  11.805   7.804
86985SOL     OW62787  14.604  12.718  10.648
86985SOL    HW162788  14.599  12.799  10.598
86985SOL    HW262789  14.567  12.740  10.734
86986SOL     OW62790   0.729  12.228  10.118
86986SOL    HW162791   0.702  12.219  10.210
86986SOL    HW262792   0.821  12.255  10.124
86987SOL     OW62793  14.838   4.017   5.036
86987SOL    HW162794  14.848   4.107   5.006
86987SOL    HW262795  14.817   3.967   4.957
86988SOL     OW62796   7.701   6.041   5.021
86988SOL    HW162797   7.655   6.020   4.939
86988SOL    HW262798   7.684   6.134   5.034
86989SOL     OW62799   7.746   3.541   5.454
86989SOL    HW162800   7.675   3.604   5.469
86989SOL    HW262801   7.779   3.521   5.542
86990SOL     OW62802  13.083  12.267  10.260
86990SOL    HW162803  13.091  12.349  10.212
86990SOL    HW262804  13.139  12.206  10.212
86991SOL     OW62805   1.850  13.277   8.615
86991SOL    HW162806   1.900  13.294   8.536
86991SOL    HW262807   1.903  13.216   8.666
86992SOL     OW62808  10.134  13.100   5.866
86992SOL    HW162809  10.090  13.185   5.868
86992SOL    HW262810  10.223  13.118   5.899
86993SOL     OW62811  11.673   3.237   4.231
86993SOL    HW162812  11.721   3.163   4.195
86993SOL    HW262813  11.717   3.256   4.314
86994SOL     OW62814  10.767   7.466   2.422
86994SOL    HW162815  10.725   7.441   2.340
86994SOL    HW262816  10.860   7.471   2.400
86995SOL     OW62817   7.157   7.231   3.838
86995SOL    HW162818   7.130   7.140   3.833
86995SOL    HW262819   7.192   7.241   3.927
86996SOL     OW62820   1.727   1.157   8.211
86996SOL    HW162821   1.650   1.200   8.174
86996SOL    HW262822   1.732   1.073   8.165
86997SOL     OW62823   7.510   4.159   9.784
86997SOL    HW162824   7.442   4.217   9.817
86997SOL    HW262825   7.529   4.192   9.696
86998SOL     OW62826  13.219   9.133   1.211
86998SOL    HW162827  13.241   9.041   1.221
86998SOL    HW262828  13.186   9.159   1.297
86999SOL     OW62829  14.272   1.065   9.385
86999SOL    HW162830  14.347   1.105   9.428
86999SOL    HW262831  14.245   0.995   9.445
87000SOL     OW62832   0.584   6.902   7.632
87000SOL    HW162833   0.590   6.811   7.662
87000SOL    HW262834   0.581   6.953   7.713
87001SOL     OW62835   6.629   6.142   9.667
87001SOL    HW162836   6.593   6.230   9.662
87001SOL    HW262837   6.552   6.086   9.677
87002SOL     OW62838   4.747   2.778  12.615
87002SOL    HW162839   4.758   2.710  12.549
87002SOL    HW262840   4.659   2.813  12.599
87003SOL     OW62841   8.916   9.272   7.429
87003SOL    HW162842   8.891   9.243   7.517
87003SOL    HW262843   8.834   9.275   7.380
87004SOL     OW62844  10.532   0.771   0.471
87004SOL    HW162845  10.582   0.701   0.513
87004SOL    HW262846  10.447   0.731   0.453
87005SOL     OW62847   0.820   0.038   0.214
87005SOL    HW162848   0.768   0.093   0.272
87005SOL    HW262849   0.833  14.829   0.263
87006SOL     OW62850   4.755  14.756   3.304
87006SOL    HW162851   4.785  14.847   3.309
87006SOL    HW262852   4.835  14.706   3.284
87007SOL     OW62853   7.048  10.269  14.196
87007SOL    HW162854   7.102  10.194  14.170
87007SOL    HW262855   7.034  10.255  14.290
87008SOL     OW62856   9.569  11.375  12.673
87008SOL    HW162857   9.658  11.396  12.645
87008SOL    HW262858   9.563  11.410  12.762
87009SOL     OW62859   1.068   9.473   8.114
87009SOL    HW162860   1.058   9.525   8.193
87009SOL    HW262861   1.096   9.387   8.144
87010SOL     OW62862  13.949  11.065   2.035
87010SOL    HW162863  13.890  11.008   2.084
87010SOL    HW262864  14.036  11.031   2.054
87011SOL     OW62865   8.839   8.777   6.003
87011SOL    HW162866   8.787   8.697   6.002
87011SOL    HW262867   8.841   8.807   5.912
87012SOL     OW62868  13.849   2.174   1.056
87012SOL    HW162869  13.900   2.098   1.031
87012SOL    HW262870  13.777   2.178   0.993
87013SOL     OW62871   3.269   8.156  10.185
87013SOL    HW162872   3.320   8.235  10.170
87013SOL    HW262873   3.221   8.173  10.266
87014SOL     OW62874   4.621   6.576   1.692
87014SOL    HW162875   4.557   6.636   1.654
87014SOL    HW262876   4.694   6.632   1.717
87015SOL     OW62877   9.195  11.611  12.305
87015SOL    HW162878   9.280  11.630  12.345
87015SOL    HW262879   9.198  11.516  12.288
87016SOL     OW62880   0.837   5.638   3.986
87016SOL    HW162881   0.871   5.697   4.053
87016SOL    HW262882   0.857   5.682   3.903
87017SOL     OW62883   6.372  10.344   9.461
87017SOL    HW162884   6.358  10.407   9.532
87017SOL    HW262885   6.388  10.399   9.384
87018SOL     OW62886   1.715   6.685   8.640
87018SOL    HW162887   1.776   6.638   8.583
87018SOL    HW262888   1.679   6.617   8.697
87019SOL     OW62889   9.316  14.490   1.420
87019SOL    HW162890   9.295  14.583   1.422
87019SOL    HW262891   9.325  14.466   1.512
87020SOL     OW62892  13.503   0.485   8.458
87020SOL    HW162893  13.527   0.549   8.391
87020SOL    HW262894  13.409   0.495   8.470
87021SOL     OW62895   2.893   7.080  11.489
87021SOL    HW162896   2.827   7.012  11.505
87021SOL    HW262897   2.972   7.048  11.533
87022SOL     OW62898   9.096   2.691   4.614
87022SOL    HW162899   9.068   2.744   4.540
87022SOL    HW262900   9.040   2.613   4.611
87023SOL     OW62901   7.006  12.238   8.315
87023SOL    HW162902   7.057  12.158   8.318
87023SOL    HW262903   6.922  12.215   8.354
87024SOL     OW62904   6.038  10.652   0.648
87024SOL    HW162905   6.029  10.566   0.687
87024SOL    HW262906   6.106  10.642   0.581
87025SOL     OW62907  10.049   9.232  14.283
87025SOL    HW162908  10.049   9.249  14.189
87025SOL    HW262909   9.983   9.292  14.318
87026SOL     OW62910   6.036  12.862   4.742
87026SOL    HW162911   6.096  12.935   4.757
87026SOL    HW262912   5.981  12.860   4.820
87027SOL     OW62913   9.868   7.874   3.375
87027SOL    HW162914   9.828   7.917   3.299
87027SOL    HW262915   9.902   7.946   3.428
87028SOL     OW62916   2.180   1.349   1.861
87028SOL    HW162917   2.136   1.408   1.800
87028SOL    HW262918   2.165   1.389   1.947
87029SOL     OW62919   0.457   2.334   7.285
87029SOL    HW162920   0.391   2.399   7.311
87029SOL    HW262921   0.437   2.258   7.339
87030SOL     OW62922   6.497   7.091   1.174
87030SOL    HW162923   6.414   7.079   1.127
87030SOL    HW262924   6.523   7.181   1.156
87031SOL     OW62925   4.964   5.443  13.354
87031SOL    HW162926   4.987   5.350  13.358
87031SOL    HW262927   5.046   5.488  13.375
87032SOL     OW62928  12.871  14.076   3.395
87032SOL    HW162929  12.959  14.071   3.357
87032SOL    HW262930  12.832  14.154   3.356
87033SOL     OW62931   4.470   8.681  10.384
87033SOL    HW162932   4.563   8.698  10.371
87033SOL    HW262933   4.426   8.764  10.365
87034SOL     OW62934   5.704   8.484   2.210
87034SOL    HW162935   5.640   8.554   2.214
87034SOL    HW262936   5.771   8.515   2.150
87035SOL     OW62937   9.047  13.887   7.831
87035SOL    HW162938   9.113  13.925   7.889
87035SOL    HW262939   9.044  13.946   7.756
87036SOL     OW62940   6.692   4.547   5.162
87036SOL    HW162941   6.692   4.631   5.116
87036SOL    HW262942   6.721   4.568   5.250
87037SOL     OW62943   5.286   5.256  11.643
87037SOL    HW162944   5.274   5.342  11.603
87037SOL    HW262945   5.326   5.274  11.728
87038SOL     OW62946   6.709   2.607  12.210
87038SOL    HW162947   6.770   2.566  12.271
87038SOL    HW262948   6.753   2.601  12.125
87039SOL     OW62949   8.168  14.258  11.089
87039SOL    HW162950   8.164  14.303  11.173
87039SOL    HW262951   8.253  14.214  11.089
87040SOL     OW62952   6.261   5.018  12.648
87040SOL    HW162953   6.240   4.950  12.713
87040SOL    HW262954   6.313   4.972  12.582
87041SOL     OW62955   2.673  13.889  13.921
87041SOL    HW162956   2.763  13.873  13.891
87041SOL    HW262957   2.661  13.828  13.994
87042SOL     OW62958  13.588  11.943  10.880
87042SOL    HW162959  13.671  11.951  10.832
87042SOL    HW262960  13.615  11.921  10.969
87043SOL     OW62961   7.129  11.481  14.249
87043SOL    HW162962   7.074  11.533  14.192
87043SOL    HW262963   7.136  11.396  14.205
87044SOL     OW62964  11.749   3.779   3.175
87044SOL    HW162965  11.769   3.855   3.229
87044SOL    HW262966  11.655   3.764   3.189
87045SOL     OW62967  11.607   0.278   5.616
87045SOL    HW162968  11.694   0.258   5.651
87045SOL    HW262969  11.595   0.372   5.632
87046SOL     OW62970   7.189  11.792   4.036
87046SOL    HW162971   7.207  11.707   4.075
87046SOL    HW262972   7.140  11.839   4.104
87047SOL     OW62973   0.830   6.443   0.584
87047SOL    HW162974   0.767   6.398   0.641
87047SOL    HW262975   0.877   6.372   0.540
87048SOL     OW62976  11.105   7.121   8.589
87048SOL    HW162977  11.190   7.083   8.611
87048SOL    HW262978  11.091   7.188   8.656
87049SOL     OW62979   1.200   6.536   6.684
87049SOL    HW162980   1.274   6.584   6.646
87049SOL    HW262981   1.125   6.594   6.672
87050SOL     OW62982   6.430   8.954   0.213
87050SOL    HW162983   6.370   8.896   0.260
87050SOL    HW262984   6.468   9.010   0.280
87051SOL     OW62985  11.583   2.512   0.545
87051SOL    HW162986  11.501   2.490   0.589
87051SOL    HW262987  11.556   2.564   0.469
87052SOL     OW62988   9.907   1.543   1.028
87052SOL    HW162989   9.813   1.559   1.035
87052SOL    HW262990   9.943   1.568   1.113
87053SOL     OW62991  10.594   0.439   2.637
87053SOL    HW162992  10.602   0.395   2.552
87053SOL    HW262993  10.575   0.368   2.699
87054SOL     OW62994   2.643  11.665  14.015
87054SOL    HW162995   2.674  11.724  14.084
87054SOL    HW262996   2.576  11.611  14.058
87055SOL     OW62997   2.943   1.396  11.720
87055SOL    HW162998   2.995   1.398  11.800
87055SOL    HW262999   2.986   1.457  11.661
87056SOL     OW63000  14.746   9.635  14.238
87056SOL    HW163001  14.689   9.687  14.181
87056SOL    HW263002  14.819   9.609  14.183
87057SOL     OW63003   4.419   2.458   8.295
87057SOL    HW163004   4.458   2.372   8.310
87057SOL    HW263005   4.453   2.485   8.210
87058SOL     OW63006  10.213   5.455   4.860
87058SOL    HW163007  10.239   5.468   4.768
87058SOL    HW263008  10.221   5.542   4.899
87059SOL     OW63009   5.799   0.509   3.620
87059SOL    HW163010   5.786   0.449   3.693
87059SOL    HW263011   5.892   0.503   3.599
87060SOL     OW63012   1.235   7.170   0.895
87060SOL    HW163013   1.239   7.175   0.990
87060SOL    HW263014   1.326   7.164   0.867
87061SOL     OW63015   2.536   1.340  14.608
87061SOL    HW163016   2.518   1.269  14.547
87061SOL    HW263017   2.498   1.310  14.691
87062SOL     OW63018   9.263  13.112   8.816
87062SOL    HW163019   9.297  13.163   8.742
87062SOL    HW263020   9.211  13.043   8.776
87063SOL     OW63021  12.764  10.342  11.394
87063SOL    HW163022  12.705  10.272  11.422
87063SOL    HW263023  12.731  10.368  11.308
87064SOL     OW63024   6.351  11.738   8.478
87064SOL    HW163025   6.366  11.710   8.569
87064SOL    HW263026   6.272  11.691   8.451
87065SOL     OW63027   7.661   7.484  12.111
87065SOL    HW163028   7.666   7.406  12.166
87065SOL    HW263029   7.711   7.462  12.033
87066SOL     OW63030   7.644  12.641   0.022
87066SOL    HW163031   7.625  12.555  14.856
87066SOL    HW263032   7.666  12.697  14.821
87067SOL     OW63033   5.449   5.322   8.596
87067SOL    HW163034   5.484   5.362   8.516
87067SOL    HW263035   5.514   5.257   8.620
87068SOL     OW63036  12.652   5.586   4.459
87068SOL    HW163037  12.690   5.503   4.431
87068SOL    HW263038  12.647   5.638   4.379
87069SOL     OW63039  12.426   8.474   5.536
87069SOL    HW163040  12.484   8.408   5.498
87069SOL    HW263041  12.483   8.527   5.592
87070SOL     OW63042  13.658   4.291   5.188
87070SOL    HW163043  13.602   4.336   5.251
87070SOL    HW263044  13.747   4.311   5.217
87071SOL     OW63045   7.154   4.508  12.983
87071SOL    HW163046   7.247   4.488  12.972
87071SOL    HW263047   7.119   4.507  12.895
87072SOL     OW63048  12.257   8.710   5.363
87072SOL    HW163049  12.230   8.644   5.426
87072SOL    HW263050  12.179   8.724   5.308
87073SOL     OW63051  12.700   6.690   7.327
87073SOL    HW163052  12.786   6.733   7.318
87073SOL    HW263053  12.719   6.608   7.371
87074SOL     OW63054  14.019   6.721  13.939
87074SOL    HW163055  14.017   6.679  14.025
87074SOL    HW263056  13.966   6.800  13.949
87075SOL     OW63057   2.807   0.296  10.455
87075SOL    HW163058   2.859   0.377  10.460
87075SOL    HW263059   2.861   0.230  10.499
87076SOL     OW63060   9.026  13.270   0.642
87076SOL    HW163061   8.993  13.314   0.563
87076SOL    HW263062   9.058  13.186   0.610
87077SOL     OW63063   3.857   4.399   2.230
87077SOL    HW163064   3.819   4.355   2.306
87077SOL    HW263065   3.826   4.348   2.155
87078SOL     OW63066   8.972   1.073  13.424
87078SOL    HW163067   8.914   1.039  13.493
87078SOL    HW263068   9.035   1.003  13.409
87079SOL     OW63069   7.154   4.521   3.376
87079SOL    HW163070   7.236   4.478   3.400
87079SOL    HW263071   7.181   4.593   3.318
87080SOL     OW63072  14.323   3.373  11.983
87080SOL    HW163073  14.247   3.422  12.013
87080SOL    HW263074  14.334   3.399  11.891
87081SOL     OW63075   0.678   4.246   7.145
87081SOL    HW163076   0.695   4.322   7.090
87081SOL    HW263077   0.665   4.282   7.233
87082SOL     OW63078   4.193  10.883  14.252
87082SOL    HW163079   4.106  10.917  14.275
87082SOL    HW263080   4.175  10.801  14.206
87083SOL     OW63081   6.241  12.892   4.069
87083SOL    HW163082   6.264  12.982   4.049
87083SOL    HW263083   6.213  12.893   4.160
87084SOL     OW63084   6.156   7.321  10.364
87084SOL    HW163085   6.247   7.322  10.393
87084SOL    HW263086   6.116   7.249  10.412
87085SOL     OW63087  13.690   3.968   0.389
87085SOL    HW163088  13.621   3.901   0.390
87085SOL    HW263089  13.760   3.929   0.336
87086SOL     OW63090  13.851   1.767   2.438
87086SOL    HW163091  13.939   1.805   2.440
87086SOL    HW263092  13.813   1.799   2.356
87087SOL     OW63093   0.715  14.202   4.099
87087SOL    HW163094   0.792  14.232   4.051
87087SOL    HW263095   0.680  14.131   4.045
87088SOL     OW63096  14.627   3.944  12.098
87088SOL    HW163097  14.701   3.962  12.039
87088SOL    HW263098  14.563   4.012  12.076
87089SOL     OW63099  12.282   4.714  10.069
87089SOL    HW163100  12.258   4.688  10.158
87089SOL    HW263101  12.320   4.801  10.078
87090SOL     OW63102   3.126  11.963  11.268
87090SOL    HW163103   3.183  11.946  11.343
87090SOL    HW263104   3.055  11.900  11.278
87091SOL     OW63105  11.492   0.337   2.567
87091SOL    HW163106  11.587   0.336   2.577
87091SOL    HW263107  11.464   0.417   2.612
87092SOL     OW63108  13.807   3.194   7.805
87092SOL    HW163109  13.840   3.193   7.715
87092SOL    HW263110  13.728   3.248   7.801
87093SOL     OW63111  14.589   4.695   5.205
87093SOL    HW163112  14.608   4.602   5.195
87093SOL    HW263113  14.661   4.740   5.161
87094SOL     OW63114   8.110  11.938  10.575
87094SOL    HW163115   8.023  11.938  10.615
87094SOL    HW263116   8.170  11.952  10.648
87095SOL     OW63117  13.799  11.214   9.971
87095SOL    HW163118  13.814  11.249  10.059
87095SOL    HW263119  13.868  11.148   9.960
87096SOL     OW63120   2.757   2.282   8.011
87096SOL    HW163121   2.844   2.281   7.973
87096SOL    HW263122   2.771   2.263   8.104
87097SOL     OW63123   9.717   9.834  13.747
87097SOL    HW163124   9.756   9.848  13.661
87097SOL    HW263125   9.632   9.795  13.729
87098SOL     OW63126  14.609   2.911  13.848
87098SOL    HW163127  14.544   2.910  13.778
87098SOL    HW263128  14.570   2.967  13.916
87099SOL     OW63129  10.615   5.832  10.255
87099SOL    HW163130  10.524   5.842  10.283
87099SOL    HW263131  10.617   5.748  10.209
87100SOL     OW63132   4.971  11.482  13.850
87100SOL    HW163133   5.010  11.477  13.937
87100SOL    HW263134   4.946  11.574  13.840
87101SOL     OW63135   8.577  14.400  14.866
87101SOL    HW163136   8.484  14.386  14.848
87101SOL    HW263137   8.620  14.321  14.833
87102SOL     OW63138   1.716   9.737   6.159
87102SOL    HW163139   1.688   9.680   6.088
87102SOL    HW263140   1.649   9.805   6.163
87103SOL     OW63141  12.645  13.747  12.231
87103SOL    HW163142  12.706  13.721  12.162
87103SOL    HW263143  12.566  13.697  12.213
87104SOL     OW63144   7.971   8.483   7.132
87104SOL    HW163145   7.918   8.506   7.208
87104SOL    HW263146   7.916   8.424   7.080
87105SOL     OW63147   4.139  12.259   4.994
87105SOL    HW163148   4.220  12.210   5.005
87105SOL    HW263149   4.091  12.247   5.076
87106SOL     OW63150  14.421   2.147   7.501
87106SOL    HW163151  14.485   2.146   7.429
87106SOL    HW263152  14.351   2.204   7.470
87107SOL     OW63153   2.946  12.992  12.061
87107SOL    HW163154   2.856  12.963  12.056
87107SOL    HW263155   2.982  12.978  11.974
87108SOL     OW63156   3.082  14.819   6.502
87108SOL    HW163157   3.103  14.811   6.409
87108SOL    HW263158   3.149  14.766   6.546
87109SOL     OW63159  10.605   1.349   5.717
87109SOL    HW163160  10.625   1.431   5.671
87109SOL    HW263161  10.596   1.374   5.808
87110SOL     OW63162  14.818   7.781   0.405
87110SOL    HW163163   0.019   7.834   0.374
87110SOL    HW263164  14.744   7.841   0.407
87111SOL     OW63165   0.326   5.243   1.090
87111SOL    HW163166   0.378   5.167   1.063
87111SOL    HW263167   0.365   5.271   1.173
87112SOL     OW63168  11.851   0.701   2.287
87112SOL    HW163169  11.782   0.747   2.335
87112SOL    HW263170  11.862   0.618   2.334
87113SOL     OW63171  13.029  12.215  12.928
87113SOL    HW163172  13.121  12.205  12.953
87113SOL    HW263173  12.989  12.261  13.002
87114SOL     OW63174   7.411  14.665  10.030
87114SOL    HW163175   7.317  14.651  10.025
87114SOL    HW263176   7.426  14.744   9.977
87115SOL     OW63177   6.297   0.861   2.463
87115SOL    HW163178   6.361   0.931   2.455
87115SOL    HW263179   6.213   0.906   2.467
87116SOL     OW63180  10.519  14.183  11.991
87116SOL    HW163181  10.455  14.195  11.921
87116SOL    HW263182  10.535  14.089  11.993
87117SOL     OW63183   3.188   8.262   3.829
87117SOL    HW163184   3.175   8.313   3.909
87117SOL    HW263185   3.278   8.280   3.802
87118SOL     OW63186  11.423   5.074   3.224
87118SOL    HW163187  11.462   5.154   3.261
87118SOL    HW263188  11.338   5.067   3.267
87119SOL     OW63189  11.854  10.853   9.763
87119SOL    HW163190  11.798  10.921   9.800
87119SOL    HW263191  11.936  10.898   9.742
87120SOL     OW63192  12.619  11.982  10.826
87120SOL    HW163193  12.664  12.013  10.747
87120SOL    HW263194  12.611  12.060  10.881
87121SOL     OW63195   6.568   9.362   5.343
87121SOL    HW163196   6.642   9.418   5.319
87121SOL    HW263197   6.533   9.402   5.422
87122SOL     OW63198  14.517   1.290   1.726
87122SOL    HW163199  14.438   1.312   1.677
87122SOL    HW263200  14.487   1.233   1.796
87123SOL     OW63201   6.914  11.550   3.098
87123SOL    HW163202   6.843  11.532   3.035
87123SOL    HW263203   6.943  11.463   3.125
87124SOL     OW63204   9.312   1.583   1.227
87124SOL    HW163205   9.390   1.556   1.179
87124SOL    HW263206   9.244   1.522   1.198
87125SOL     OW63207  13.126   9.888   6.331
87125SOL    HW163208  13.188   9.822   6.364
87125SOL    HW263209  13.058   9.837   6.288
87126SOL     OW63210   0.186   9.254   5.404
87126SOL    HW163211   0.159   9.311   5.332
87126SOL    HW263212   0.134   9.283   5.479
87127SOL     OW63213   6.384   4.050  13.534
87127SOL    HW163214   6.449   4.082  13.471
87127SOL    HW263215   6.394   3.954  13.531
87128SOL     OW63216   0.086  14.538   0.620
87128SOL    HW163217   0.083  14.443   0.626
87128SOL    HW263218   0.178  14.558   0.603
87129SOL     OW63219   2.695  14.558   7.495
87129SOL    HW163220   2.763  14.531   7.434
87129SOL    HW263221   2.739  14.615   7.557
87130SOL     OW63222   7.856   8.946   6.184
87130SOL    HW163223   7.935   8.892   6.185
87130SOL    HW263224   7.794   8.899   6.240
87131SOL     OW63225   8.110  12.575   7.232
87131SOL    HW163226   8.068  12.578   7.319
87131SOL    HW263227   8.075  12.496   7.191
87132SOL     OW63228   6.437   9.125  10.258
87132SOL    HW163229   6.502   9.181  10.215
87132SOL    HW263230   6.355   9.172  10.249
87133SOL     OW63231  12.361   5.279   0.764
87133SOL    HW163232  12.419   5.306   0.693
87133SOL    HW263233  12.417   5.230   0.824
87134SOL     OW63234   3.838   9.358  11.770
87134SOL    HW163235   3.830   9.453  11.773
87134SOL    HW263236   3.930   9.341  11.790
87135SOL     OW63237   5.005   6.148  10.035
87135SOL    HW163238   5.006   6.223   9.977
87135SOL    HW263239   4.915   6.142  10.067
87136SOL     OW63240   9.551   1.548   2.729
87136SOL    HW163241   9.632   1.532   2.680
87136SOL    HW263242   9.549   1.643   2.742
87137SOL     OW63243   7.842   6.100  10.556
87137SOL    HW163244   7.908   6.170  10.555
87137SOL    HW263245   7.760   6.144  10.532
87138SOL     OW63246  11.213  12.715   4.098
87138SOL    HW163247  11.155  12.786   4.070
87138SOL    HW263248  11.156  12.654   4.144
87139SOL     OW63249   7.173  11.963  10.031
87139SOL    HW163250   7.162  12.019  10.108
87139SOL    HW263251   7.092  11.913  10.025
87140SOL     OW63252  10.440   1.288  11.730
87140SOL    HW163253  10.455   1.193  11.729
87140SOL    HW263254  10.466   1.316  11.817
87141SOL     OW63255  14.814  12.842  13.447
87141SOL    HW163256  14.753  12.778  13.483
87141SOL    HW263257  14.771  12.877  13.369
87142SOL     OW63258  14.174   2.738   1.716
87142SOL    HW163259  14.095   2.780   1.753
87142SOL    HW263260  14.183   2.657   1.766
87143SOL     OW63261   7.338   1.729  12.528
87143SOL    HW163262   7.361   1.639  12.549
87143SOL    HW263263   7.245   1.736  12.552
87144SOL     OW63264   5.296   5.198  14.859
87144SOL    HW163265   5.294   5.290   0.013
87144SOL    HW263266   5.207   5.167  14.871
87145SOL     OW63267  12.177   4.371   0.781
87145SOL    HW163268  12.129   4.362   0.699
87145SOL    HW263269  12.269   4.364   0.755
87146SOL     OW63270  11.134   9.827   5.450
87146SOL    HW163271  11.092   9.851   5.533
87146SOL    HW263272  11.211   9.883   5.444
87147SOL     OW63273   4.306   8.062   3.521
87147SOL    HW163274   4.310   7.971   3.552
87147SOL    HW263275   4.397   8.086   3.504
87148SOL     OW63276  13.537   8.602  14.535
87148SOL    HW163277  13.521   8.509  14.515
87148SOL    HW263278  13.450   8.641  14.539
87149SOL     OW63279   1.763  13.080  13.421
87149SOL    HW163280   1.680  13.051  13.383
87149SOL    HW263281   1.751  13.072  13.516
87150SOL     OW63282  10.837   6.177  10.279
87150SOL    HW163283  10.762   6.217  10.234
87150SOL    HW263284  10.799   6.110  10.335
87151SOL     OW63285  14.328   4.897   3.306
87151SOL    HW163286  14.271   4.842   3.252
87151SOL    HW263287  14.405   4.844   3.322
87152SOL     OW63288   4.682  13.149   8.375
87152SOL    HW163289   4.654  13.177   8.288
87152SOL    HW263290   4.610  13.174   8.433
87153SOL     OW63291  10.782   0.097   0.243
87153SOL    HW163292  10.868   0.119   0.208
87153SOL    HW263293  10.797   0.017   0.295
87154SOL     OW63294   7.560   2.617   2.312
87154SOL    HW163295   7.627   2.606   2.379
87154SOL    HW263296   7.492   2.554   2.336
87155SOL     OW63297   6.623   7.686   6.318
87155SOL    HW163298   6.656   7.761   6.269
87155SOL    HW263299   6.657   7.699   6.407
87156SOL     OW63300   7.783   7.209   8.946
87156SOL    HW163301   7.750   7.260   8.871
87156SOL    HW263302   7.877   7.201   8.930
87157SOL     OW63303   4.136  11.299   5.000
87157SOL    HW163304   4.231  11.310   5.002
87157SOL    HW263305   4.102  11.387   4.981
87158SOL     OW63306   6.419   7.014  11.817
87158SOL    HW163307   6.387   7.035  11.905
87158SOL    HW263308   6.508   6.983  11.831
87159SOL     OW63309  13.587   2.831   5.797
87159SOL    HW163310  13.600   2.923   5.774
87159SOL    HW263311  13.646   2.783   5.739
87160SOL     OW63312   4.275  14.309   8.371
87160SOL    HW163313   4.188  14.289   8.338
87160SOL    HW263314   4.321  14.346   8.296
87161SOL     OW63315   3.365   2.722  12.388
87161SOL    HW163316   3.283   2.676  12.405
87161SOL    HW263317   3.343   2.815  12.396
87162SOL     OW63318  11.602   8.990   7.559
87162SOL    HW163319  11.664   9.048   7.514
87162SOL    HW263320  11.570   9.042   7.633
87163SOL     OW63321   3.066  13.265   3.216
87163SOL    HW163322   3.150  13.278   3.173
87163SOL    HW263323   3.087  13.261   3.309
87164SOL     OW63324   3.336  10.321  13.609
87164SOL    HW163325   3.315  10.332  13.516
87164SOL    HW263326   3.379  10.402  13.635
87165SOL     OW63327  12.625   6.997   3.043
87165SOL    HW163328  12.558   7.026   2.981
87165SOL    HW263329  12.579   6.936   3.101
87166SOL     OW63330   9.849   2.286  10.876
87166SOL    HW163331   9.874   2.265  10.786
87166SOL    HW263332   9.901   2.226  10.929
87167SOL     OW63333   8.457   9.713   8.021
87167SOL    HW163334   8.540   9.745   8.056
87167SOL    HW263335   8.412   9.674   8.096
87168SOL     OW63336   6.601   9.371   4.078
87168SOL    HW163337   6.579   9.282   4.051
87168SOL    HW263338   6.696   9.369   4.093
87169SOL     OW63339  13.627   6.741  12.189
87169SOL    HW163340  13.648   6.811  12.251
87169SOL    HW263341  13.690   6.672  12.209
87170SOL     OW63342   3.559  12.438   2.893
87170SOL    HW163343   3.506  12.479   2.961
87170SOL    HW263344   3.563  12.346   2.918
87171SOL     OW63345   8.743   5.459   4.663
87171SOL    HW163346   8.655   5.490   4.684
87171SOL    HW263347   8.784   5.532   4.616
87172SOL     OW63348  10.893  10.172   7.399
87172SOL    HW163349  10.963  10.115   7.365
87172SOL    HW263350  10.827  10.111   7.433
87173SOL     OW63351   8.519  13.090  13.682
87173SOL    HW163352   8.559  13.009  13.713
87173SOL    HW263353   8.426  13.080  13.702
87174SOL     OW63354   8.778  13.112   6.956
87174SOL    HW163355   8.734  13.151   6.881
87174SOL    HW263356   8.707  13.088   7.016
87175SOL     OW63357   2.772  14.151   0.675
87175SOL    HW163358   2.809  14.114   0.756
87175SOL    HW263359   2.829  14.118   0.606
87176SOL     OW63360  13.038  13.794   5.241
87176SOL    HW163361  12.968  13.730   5.232
87176SOL    HW263362  13.110  13.745   5.282
87177SOL     OW63363   2.105  12.502   7.205
87177SOL    HW163364   2.131  12.425   7.154
87177SOL    HW263365   2.130  12.480   7.294
87178SOL     OW63366   4.741   0.002   9.360
87178SOL    HW163367   4.690  14.857   9.281
87178SOL    HW263368   4.827   0.028   9.329
87179SOL     OW63369  12.924  12.108   6.548
87179SOL    HW163370  12.829  12.107   6.531
87179SOL    HW263371  12.963  12.123   6.462
87180SOL     OW63372   1.118   9.810   2.412
87180SOL    HW163373   1.150   9.763   2.488
87180SOL    HW263374   1.041   9.761   2.384
87181SOL     OW63375  14.309   3.324  13.567
87181SOL    HW163376  14.383   3.271  13.597
87181SOL    HW263377  14.260   3.266  13.508
87182SOL     OW63378   0.547   2.942  10.240
87182SOL    HW163379   0.549   2.899  10.326
87182SOL    HW263380   0.594   2.882  10.182
87183SOL     OW63381   7.404   1.901   2.699
87183SOL    HW163382   7.355   1.850   2.763
87183SOL    HW263383   7.338   1.955   2.656
87184SOL     OW63384   7.503   7.259   4.214
87184SOL    HW163385   7.540   7.172   4.232
87184SOL    HW263386   7.542   7.285   4.131
87185SOL     OW63387  11.856  14.513   2.305
87185SOL    HW163388  11.879  14.422   2.286
87185SOL    HW263389  11.765  14.510   2.335
87186SOL     OW63390   3.051   9.669  10.555
87186SOL    HW163391   3.055   9.764  10.564
87186SOL    HW263392   3.141   9.639  10.568
87187SOL     OW63393  11.427  13.050   0.745
87187SOL    HW163394  11.417  13.075   0.653
87187SOL    HW263395  11.498  12.985   0.745
87188SOL     OW63396   0.347  10.253   2.596
87188SOL    HW163397   0.311  10.169   2.622
87188SOL    HW263398   0.423  10.266   2.653
87189SOL     OW63399   6.127  10.287  11.555
87189SOL    HW163400   6.165  10.219  11.501
87189SOL    HW263401   6.035  10.261  11.566
87190SOL     OW63402  13.762   2.970   9.351
87190SOL    HW163403  13.667   2.973   9.344
87190SOL    HW263404  13.789   2.908   9.284
87191SOL     OW63405   6.469   5.284   9.878
87191SOL    HW163406   6.379   5.304   9.850
87191SOL    HW263407   6.524   5.341   9.825
87192SOL     OW63408  11.491   3.870   2.257
87192SOL    HW163409  11.499   3.955   2.301
87192SOL    HW263410  11.485   3.892   2.164
87193SOL     OW63411   7.003   2.240  10.103
87193SOL    HW163412   6.976   2.149  10.114
87193SOL    HW263413   7.075   2.251  10.165
87194SOL     OW63414   6.605  10.875   0.716
87194SOL    HW163415   6.607  10.795   0.767
87194SOL    HW263416   6.644  10.941   0.773
87195SOL     OW63417   3.633   8.258   6.056
87195SOL    HW163418   3.658   8.242   5.965
87195SOL    HW263419   3.615   8.171   6.091
87196SOL     OW63420  10.726   6.817  13.801
87196SOL    HW163421  10.716   6.791  13.892
87196SOL    HW263422  10.797   6.762  13.768
87197SOL     OW63423   8.620  11.759   3.945
87197SOL    HW163424   8.529  11.779   3.922
87197SOL    HW263425   8.666  11.843   3.936
87198SOL     OW63426  12.154  14.798   6.381
87198SOL    HW163427  12.192  14.755   6.305
87198SOL    HW263428  12.122  14.725   6.435
87199SOL     OW63429   9.466   7.880   1.552
87199SOL    HW163430   9.488   7.808   1.492
87199SOL    HW263431   9.371   7.888   1.545
87200SOL     OW63432  11.743   5.090   9.387
87200SOL    HW163433  11.712   5.123   9.302
87200SOL    HW263434  11.821   5.142   9.405
87201SOL     OW63435   3.719   0.975   7.403
87201SOL    HW163436   3.715   0.926   7.321
87201SOL    HW263437   3.643   0.945   7.453
87202SOL     OW63438   4.702   5.898   0.195
87202SOL    HW163439   4.729   5.927   0.108
87202SOL    HW263440   4.739   5.811   0.203
87203SOL     OW63441   6.208  13.946   6.748
87203SOL    HW163442   6.216  13.851   6.737
87203SOL    HW263443   6.179  13.978   6.663
87204SOL     OW63444  13.000  13.458  13.011
87204SOL    HW163445  13.089  13.452  13.045
87204SOL    HW263446  13.003  13.407  12.930
87205SOL     OW63447   7.066   6.142   4.845
87205SOL    HW163448   7.072   6.056   4.886
87205SOL    HW263449   7.134   6.194   4.886
87206SOL     OW63450   0.356   9.048  13.982
87206SOL    HW163451   0.440   9.001  13.989
87206SOL    HW263452   0.354   9.079  13.891
87207SOL     OW63453   0.841   8.582   0.552
87207SOL    HW163454   0.793   8.620   0.478
87207SOL    HW263455   0.777   8.526   0.596
87208SOL     OW63456   4.434   6.417   5.539
87208SOL    HW163457   4.444   6.321   5.540
87208SOL    HW263458   4.360   6.434   5.597
87209SOL     OW63459   8.381   4.135   6.941
87209SOL    HW163460   8.464   4.105   6.905
87209SOL    HW263461   8.400   4.223   6.976
87210SOL     OW63462   1.598  10.734   6.737
87210SOL    HW163463   1.610  10.644   6.704
87210SOL    HW263464   1.684  10.758   6.771
87211SOL     OW63465   1.038   3.344   6.201
87211SOL    HW163466   1.061   3.258   6.168
87211SOL    HW263467   1.067   3.405   6.134
87212SOL     OW63468   7.499   0.470  14.837
87212SOL    HW163469   7.567   0.450   0.028
87212SOL    HW263470   7.440   0.394  14.840
87213SOL     OW63471  14.456   6.090   5.675
87213SOL    HW163472  14.404   6.146   5.732
87213SOL    HW263473  14.546   6.118   5.689
87214SOL     OW63474  11.257  13.506   8.070
87214SOL    HW163475  11.191  13.571   8.092
87214SOL    HW263476  11.339  13.544   8.100
87215SOL     OW63477  14.144   3.531   3.587
87215SOL    HW163478  14.068   3.589   3.592
87215SOL    HW263479  14.107   3.445   3.566
87216SOL     OW63480   4.011   7.993   3.930
87216SOL    HW163481   4.031   8.014   3.839
87216SOL    HW263482   4.088   7.946   3.962
87217SOL     OW63483   0.019   8.982  14.578
87217SOL    HW163484   0.039   8.926  14.503
87217SOL    HW263485  14.817   9.034  14.550
87218SOL     OW63486   5.723  13.094   8.281
87218SOL    HW163487   5.641  13.052   8.306
87218SOL    HW263488   5.759  13.037   8.212
87219SOL     OW63489   1.816  12.687  12.417
87219SOL    HW163490   1.756  12.753  12.452
87219SOL    HW263491   1.821  12.621  12.486
87220SOL     OW63492  10.026   5.490   4.597
87220SOL    HW163493   9.988   5.514   4.513
87220SOL    HW263494  10.056   5.573   4.634
87221SOL     OW63495  13.121   1.341  13.942
87221SOL    HW163496  13.028   1.359  13.924
87221SOL    HW263497  13.121   1.253  13.979
87222SOL     OW63498   4.126   9.561   6.771
87222SOL    HW163499   4.034   9.536   6.770
87222SOL    HW263500   4.154   9.549   6.862
87223SOL     OW63501   5.855  11.728  12.428
87223SOL    HW163502   5.902  11.811  12.417
87223SOL    HW263503   5.848  11.718  12.523
87224SOL     OW63504   3.660   5.159   9.112
87224SOL    HW163505   3.679   5.066   9.105
87224SOL    HW263506   3.744   5.202   9.098
87225SOL     OW63507  10.795   0.246   3.738
87225SOL    HW163508  10.731   0.309   3.705
87225SOL    HW263509  10.744   0.167   3.754
87226SOL     OW63510  14.590  13.736  13.926
87226SOL    HW163511  14.568  13.826  13.949
87226SOL    HW263512  14.593  13.735  13.831
87227SOL     OW63513   1.738  11.734   8.807
87227SOL    HW163514   1.680  11.721   8.732
87227SOL    HW263515   1.737  11.651   8.854
87228SOL     OW63516   5.590   1.021  10.732
87228SOL    HW163517   5.527   1.087  10.703
87228SOL    HW263518   5.565   1.003  10.823
87229SOL     OW63519   0.497   3.416   7.712
87229SOL    HW163520   0.581   3.393   7.673
87229SOL    HW263521   0.432   3.366   7.662
87230SOL     OW63522  12.862   4.413  14.283
87230SOL    HW163523  12.881   4.418  14.189
87230SOL    HW263524  12.861   4.319  14.303
87231SOL     OW63525   5.424   7.072   6.039
87231SOL    HW163526   5.392   7.005   6.100
87231SOL    HW263527   5.463   7.139   6.095
87232SOL     OW63528   8.945   0.191   3.915
87232SOL    HW163529   8.933   0.107   3.871
87232SOL    HW263530   9.010   0.237   3.862
87233SOL     OW63531  13.944   7.435   7.334
87233SOL    HW163532  13.947   7.452   7.428
87233SOL    HW263533  14.026   7.389   7.316
87234SOL     OW63534  11.875  12.512  14.452
87234SOL    HW163535  11.866  12.461  14.371
87234SOL    HW263536  11.817  12.469  14.514
87235SOL     OW63537   1.947   0.642   5.208
87235SOL    HW163538   1.927   0.700   5.135
87235SOL    HW263539   1.903   0.681   5.283
87236SOL     OW63540   2.799  13.497   5.054
87236SOL    HW163541   2.780  13.449   4.974
87236SOL    HW263542   2.845  13.434   5.110
87237SOL     OW63543   8.244   1.245   0.531
87237SOL    HW163544   8.250   1.306   0.604
87237SOL    HW263545   8.225   1.160   0.572
87238SOL     OW63546   5.444   9.735   1.430
87238SOL    HW163547   5.424   9.763   1.340
87238SOL    HW263548   5.359   9.711   1.468
87239SOL     OW63549   7.405   2.597   4.697
87239SOL    HW163550   7.474   2.531   4.692
87239SOL    HW263551   7.344   2.572   4.628
87240SOL     OW63552   0.912   5.855  12.680
87240SOL    HW163553   0.982   5.835  12.742
87240SOL    HW263554   0.903   5.775  12.627
87241SOL     OW63555   5.516   4.353   2.011
87241SOL    HW163556   5.493   4.385   1.925
87241SOL    HW263557   5.603   4.389   2.028
87242SOL     OW63558   1.146   3.950   6.808
87242SOL    HW163559   1.156   3.997   6.890
87242SOL    HW263560   1.070   3.894   6.821
87243SOL     OW63561   9.395  10.541  10.262
87243SOL    HW163562   9.398  10.624  10.216
87243SOL    HW263563   9.302  10.524  10.276
87244SOL     OW63564  12.837   1.952   8.901
87244SOL    HW163565  12.866   2.043   8.903
87244SOL    HW263566  12.762   1.950   8.960
87245SOL     OW63567   6.961   8.167  11.882
87245SOL    HW163568   6.869   8.153  11.903
87245SOL    HW263569   6.987   8.087  11.835
87246SOL     OW63570   6.510   0.941   7.505
87246SOL    HW163571   6.436   0.944   7.566
87246SOL    HW263572   6.582   0.904   7.556
87247SOL     OW63573  14.569  10.167  11.812
87247SOL    HW163574  14.636  10.187  11.877
87247SOL    HW263575  14.535  10.253  11.786
87248SOL     OW63576   3.033  14.597   2.537
87248SOL    HW163577   2.965  14.536   2.509
87248SOL    HW263578   3.057  14.644   2.457
87249SOL     OW63579   0.912   3.528  12.261
87249SOL    HW163580   0.830   3.520  12.214
87249SOL    HW263581   0.964   3.453  12.233
87250SOL     OW63582  14.314   0.194   9.322
87250SOL    HW163583  14.230   0.149   9.316
87250SOL    HW263584  14.301   0.261   9.389
87251SOL     OW63585   0.555   6.102   1.692
87251SOL    HW163586   0.646   6.130   1.696
87251SOL    HW263587   0.508   6.178   1.659
87252SOL     OW63588   8.717   8.516  13.195
87252SOL    HW163589   8.701   8.590  13.253
87252SOL    HW263590   8.652   8.525  13.126
87253SOL     OW63591   7.896   8.793  11.302
87253SOL    HW163592   7.981   8.773  11.264
87253SOL    HW263593   7.916   8.832  11.387
87254SOL     OW63594   7.305  14.592   1.628
87254SOL    HW163595   7.289  14.617   1.720
87254SOL    HW263596   7.340  14.672   1.588
87255SOL     OW63597   8.448   3.573   9.608
87255SOL    HW163598   8.527   3.540   9.567
87255SOL    HW263599   8.392   3.600   9.535
87256SOL     OW63600   8.054   8.857   0.627
87256SOL    HW163601   7.980   8.892   0.578
87256SOL    HW263602   8.017   8.789   0.683
87257SOL     OW63603  13.259  12.800   1.414
87257SOL    HW163604  13.209  12.753   1.481
87257SOL    HW263605  13.240  12.892   1.431
87258SOL     OW63606   5.022  12.549   4.940
87258SOL    HW163607   5.099  12.579   4.989
87258SOL    HW263608   4.952  12.547   5.005
87259SOL     OW63609  12.864   1.490  12.024
87259SOL    HW163610  12.869   1.584  12.042
87259SOL    HW263611  12.825   1.453  12.103
87260SOL     OW63612  13.559   3.332   7.779
87260SOL    HW163613  13.571   3.363   7.689
87260SOL    HW263614  13.544   3.412   7.830
87261SOL     OW63615   9.904   6.077   2.266
87261SOL    HW163616   9.954   6.043   2.340
87261SOL    HW263617   9.967   6.084   2.195
87262SOL     OW63618   6.899  13.524   1.403
87262SOL    HW163619   6.982  13.481   1.382
87262SOL    HW263620   6.898  13.603   1.349
87263SOL     OW63621  12.712   5.789  14.455
87263SOL    HW163622  12.669   5.709  14.484
87263SOL    HW263623  12.757   5.822  14.533
87264SOL     OW63624  12.187   3.689   8.373
87264SOL    HW163625  12.266   3.657   8.328
87264SOL    HW263626  12.221   3.750   8.439
87265SOL     OW63627  14.007   5.509   2.556
87265SOL    HW163628  14.030   5.600   2.539
87265SOL    HW263629  14.004   5.469   2.469
87266SOL     OW63630   8.970   4.377  12.045
87266SOL    HW163631   8.985   4.302  11.987
87266SOL    HW263632   8.926   4.340  12.121
87267SOL     OW63633   9.988   9.857   1.228
87267SOL    HW163634   9.906   9.828   1.268
87267SOL    HW263635  10.006   9.792   1.160
87268SOL     OW63636  12.024   4.053   6.135
87268SOL    HW163637  12.084   4.089   6.070
87268SOL    HW263638  12.043   3.959   6.136
87269SOL     OW63639   7.815  11.158   6.921
87269SOL    HW163640   7.788  11.158   6.829
87269SOL    HW263641   7.734  11.146   6.970
87270SOL     OW63642   7.133   8.908  11.877
87270SOL    HW163643   7.053   8.919  11.930
87270SOL    HW263644   7.204   8.937  11.935
87271SOL     OW63645   5.884  11.633   7.642
87271SOL    HW163646   5.832  11.553   7.637
87271SOL    HW263647   5.912  11.650   7.552
87272SOL     OW63648   4.597   6.161   3.926
87272SOL    HW163649   4.566   6.129   4.010
87272SOL    HW263650   4.648   6.088   3.890
87273SOL     OW63651   7.200   3.505  10.842
87273SOL    HW163652   7.199   3.481  10.749
87273SOL    HW263653   7.114   3.477  10.875
87274SOL     OW63654   7.638   6.980   4.027
87274SOL    HW163655   7.569   6.982   4.094
87274SOL    HW263656   7.699   7.048   4.055
87275SOL     OW63657   7.328   5.106   8.799
87275SOL    HW163658   7.315   5.174   8.865
87275SOL    HW263659   7.266   5.128   8.729
87276SOL     OW63660   2.821   8.820   2.150
87276SOL    HW163661   2.834   8.886   2.083
87276SOL    HW263662   2.842   8.865   2.232
87277SOL     OW63663  12.463   3.278   5.605
87277SOL    HW163664  12.554   3.260   5.581
87277SOL    HW263665  12.415   3.273   5.522
87278SOL     OW63666  13.258  10.431   5.055
87278SOL    HW163667  13.338  10.414   5.106
87278SOL    HW263668  13.287  10.431   4.964
87279SOL     OW63669   0.255   2.325   0.923
87279SOL    HW163670   0.337   2.296   0.883
87279SOL    HW263671   0.227   2.400   0.871
87280SOL     OW63672   2.354   2.293   9.723
87280SOL    HW163673   2.259   2.284   9.727
87280SOL    HW263674   2.371   2.327   9.635
87281SOL     OW63675   2.400   4.731   9.815
87281SOL    HW163676   2.456   4.808   9.802
87281SOL    HW263677   2.379   4.701   9.727
87282SOL     OW63678   3.738   1.472   2.318
87282SOL    HW163679   3.729   1.392   2.370
87282SOL    HW263680   3.681   1.458   2.242
87283SOL     OW63681  10.113  14.045   7.210
87283SOL    HW163682  10.060  14.124   7.199
87283SOL    HW263683  10.070  13.996   7.279
87284SOL     OW63684   1.118   7.996  12.103
87284SOL    HW163685   1.210   7.970  12.100
87284SOL    HW263686   1.085   7.978  12.015
87285SOL     OW63687   7.297   6.271  11.673
87285SOL    HW163688   7.391   6.277  11.652
87285SOL    HW263689   7.276   6.356  11.712
87286SOL     OW63690   3.182  10.562  11.453
87286SOL    HW163691   3.112  10.524  11.507
87286SOL    HW263692   3.232  10.486  11.422
87287SOL     OW63693   2.214   6.793  13.694
87287SOL    HW163694   2.164   6.772  13.615
87287SOL    HW263695   2.173   6.873  13.727
87288SOL     OW63696  12.335   0.509   2.885
87288SOL    HW163697  12.342   0.414   2.894
87288SOL    HW263698  12.242   0.527   2.899
87289SOL     OW63699   5.335  10.217  13.581
87289SOL    HW163700   5.286  10.147  13.625
87289SOL    HW263701   5.355  10.280  13.649
87290SOL     OW63702  10.412   9.450   4.981
87290SOL    HW163703  10.501   9.420   5.000
87290SOL    HW263704  10.424   9.533   4.935
87291SOL     OW63705   7.497   9.741   4.197
87291SOL    HW163706   7.575   9.746   4.142
87291SOL    HW263707   7.515   9.801   4.270
87292SOL     OW63708   2.303   3.660   2.590
87292SOL    HW163709   2.305   3.586   2.651
87292SOL    HW263710   2.263   3.731   2.640
87293SOL     OW63711  14.228  13.943   8.462
87293SOL    HW163712  14.281  13.880   8.512
87293SOL    HW263713  14.230  14.023   8.514
87294SOL     OW63714   0.006   3.387  14.216
87294SOL    HW163715   0.072   3.397  14.148
87294SOL    HW263716   0.052   3.409  14.297
87295SOL     OW63717   4.954   6.041  14.618
87295SOL    HW163718   5.044   6.072  14.624
87295SOL    HW263719   4.944   6.012  14.527
87296SOL     OW63720   1.756   1.693   4.358
87296SOL    HW163721   1.719   1.605   4.347
87296SOL    HW263722   1.777   1.721   4.269
87297SOL     OW63723   4.333   9.835   8.782
87297SOL    HW163724   4.330   9.822   8.877
87297SOL    HW263725   4.249   9.802   8.751
87298SOL     OW63726  10.750  11.087   5.212
87298SOL    HW163727  10.782  11.167   5.173
87298SOL    HW263728  10.665  11.111   5.249
87299SOL     OW63729  11.820   5.456  10.672
87299SOL    HW163730  11.808   5.507  10.592
87299SOL    HW263731  11.778   5.509  10.741
87300SOL     OW63732   8.282   7.491   6.672
87300SOL    HW163733   8.339   7.416   6.690
87300SOL    HW263734   8.332   7.566   6.705
87301SOL     OW63735   0.078   1.586   1.867
87301SOL    HW163736   0.028   1.505   1.877
87301SOL    HW263737   0.012   1.656   1.874
87302SOL     OW63738   9.520   5.051  13.079
87302SOL    HW163739   9.615   5.040  13.075
87302SOL    HW263740   9.500   5.052  13.173
87303SOL     OW63741   7.589  10.875   5.025
87303SOL    HW163742   7.610  10.830   5.107
87303SOL    HW263743   7.643  10.955   5.028
87304SOL     OW63744   3.523   2.860   3.832
87304SOL    HW163745   3.473   2.843   3.752
87304SOL    HW263746   3.514   2.781   3.884
87305SOL     OW63747   5.571  10.491   7.516
87305SOL    HW163748   5.503  10.430   7.488
87305SOL    HW263749   5.524  10.560   7.563
87306SOL     OW63750   3.473  14.148   3.124
87306SOL    HW163751   3.532  14.116   3.192
87306SOL    HW263752   3.434  14.069   3.087
87307SOL     OW63753   4.966   1.451   6.711
87307SOL    HW163754   4.935   1.480   6.625
87307SOL    HW263755   5.023   1.521   6.741
87308SOL     OW63756   8.580  14.421  11.901
87308SOL    HW163757   8.553  14.508  11.928
87308SOL    HW263758   8.661  14.435  11.852
87309SOL     OW63759   9.733  10.310   8.711
87309SOL    HW163760   9.721  10.332   8.619
87309SOL    HW263761   9.728  10.394   8.756
87310SOL     OW63762  12.367  12.672   1.899
87310SOL    HW163763  12.292  12.655   1.955
87310SOL    HW263764  12.424  12.729   1.951
87311SOL     OW63765  13.321   2.106   6.598
87311SOL    HW163766  13.395   2.095   6.539
87311SOL    HW263767  13.256   2.155   6.547
87312SOL     OW63768  11.082  12.268   5.878
87312SOL    HW163769  11.055  12.294   5.966
87312SOL    HW263770  11.130  12.186   5.891
87313SOL     OW63771  11.400   1.787   7.827
87313SOL    HW163772  11.370   1.876   7.808
87313SOL    HW263773  11.478   1.800   7.882
87314SOL     OW63774   2.462  11.559   7.145
87314SOL    HW163775   2.397  11.611   7.097
87314SOL    HW263776   2.414  11.482   7.175
87315SOL     OW63777   3.839   0.790  10.541
87315SOL    HW163778   3.789   0.714  10.570
87315SOL    HW263779   3.878   0.825  10.622
87316SOL     OW63780   8.492  12.408   7.583
87316SOL    HW163781   8.410  12.453   7.563
87316SOL    HW263782   8.470  12.315   7.581
87317SOL     OW63783   6.214   2.052   2.215
87317SOL    HW163784   6.260   1.998   2.150
87317SOL    HW263785   6.158   1.991   2.262
87318SOL     OW63786   4.313  12.107  14.868
87318SOL    HW163787   4.361  12.183  14.834
87318SOL    HW263788   4.269  12.070  14.792
87319SOL     OW63789  13.655  13.319  12.502
87319SOL    HW163790  13.686  13.250  12.562
87319SOL    HW263791  13.583  13.278  12.454
87320SOL     OW63792   7.738   9.196  11.590
87320SOL    HW163793   7.759   9.219  11.680
87320SOL    HW263794   7.692   9.273  11.556
87321SOL     OW63795   3.518   9.698   8.021
87321SOL    HW163796   3.486   9.672   8.107
87321SOL    HW263797   3.600   9.651   8.010
87322SOL     OW63798   4.642  12.946   6.568
87322SOL    HW163799   4.611  12.874   6.622
87322SOL    HW263800   4.713  12.909   6.516
87323SOL     OW63801  14.497   8.674   6.434
87323SOL    HW163802  14.415   8.625   6.447
87323SOL    HW263803  14.560   8.608   6.404
87324SOL     OW63804  10.539  11.140   8.326
87324SOL    HW163805  10.461  11.121   8.378
87324SOL    HW263806  10.585  11.208   8.374
87325SOL     OW63807   6.156   2.075   0.275
87325SOL    HW163808   6.216   2.078   0.201
87325SOL    HW263809   6.136   2.167   0.294
87326SOL     OW63810  12.998  12.479   3.647
87326SOL    HW163811  13.023  12.516   3.732
87326SOL    HW263812  13.031  12.542   3.583
87327SOL     OW63813   4.373   4.693  13.982
87327SOL    HW163814   4.462   4.716  13.956
87327SOL    HW263815   4.324   4.691  13.900
87328SOL     OW63816  10.016  12.540   8.676
87328SOL    HW163817   9.929  12.568   8.647
87328SOL    HW263818  10.024  12.450   8.645
87329SOL     OW63819   6.252   3.872   1.763
87329SOL    HW163820   6.202   3.953   1.776
87329SOL    HW263821   6.320   3.897   1.700
87330SOL     OW63822  10.690   0.257  10.733
87330SOL    HW163823  10.666   0.206  10.655
87330SOL    HW263824  10.750   0.324  10.700
87331SOL     OW63825  11.307  12.345   8.803
87331SOL    HW163826  11.241  12.383   8.746
87331SOL    HW263827  11.368  12.417   8.819
87332SOL     OW63828   3.989   7.258  14.241
87332SOL    HW163829   3.902   7.252  14.281
87332SOL    HW263830   4.028   7.172  14.255
87333SOL     OW63831   8.595  11.499   1.283
87333SOL    HW163832   8.545  11.559   1.228
87333SOL    HW263833   8.621  11.551   1.359
87334SOL     OW63834   9.201   3.028   3.095
87334SOL    HW163835   9.169   3.050   3.183
87334SOL    HW263836   9.267   2.960   3.111
87335SOL     OW63837   8.456  12.304   1.294
87335SOL    HW163838   8.458  12.361   1.217
87335SOL    HW263839   8.374  12.328   1.338
87336SOL     OW63840  11.837  12.629   2.096
87336SOL    HW163841  11.812  12.553   2.043
87336SOL    HW263842  11.851  12.594   2.183
87337SOL     OW63843   3.746   7.204  11.983
87337SOL    HW163844   3.800   7.277  11.952
87337SOL    HW263845   3.745   7.214  12.078
87338SOL     OW63846   0.541   5.459  11.163
87338SOL    HW163847   0.613   5.459  11.101
87338SOL    HW263848   0.471   5.508  11.121
87339SOL     OW63849  14.352   0.640   8.149
87339SOL    HW163850  14.263   0.671   8.161
87339SOL    HW263851  14.346   0.545   8.156
87340SOL     OW63852   6.345  12.340   9.410
87340SOL    HW163853   6.284  12.288   9.357
87340SOL    HW263854   6.432  12.311   9.381
87341SOL     OW63855  14.045  12.455   2.416
87341SOL    HW163856  14.015  12.424   2.502
87341SOL    HW263857  14.136  12.428   2.412
87342SOL     OW63858   3.685   4.307   9.967
87342SOL    HW163859   3.742   4.362  10.020
87342SOL    HW263860   3.658   4.363   9.895
87343SOL     OW63861  10.449   6.764  14.209
87343SOL    HW163862  10.525   6.747  14.153
87343SOL    HW263863  10.447   6.859  14.218
87344SOL     OW63864   9.689  13.420   3.778
87344SOL    HW163865   9.684  13.436   3.684
87344SOL    HW263866   9.604  13.448   3.812
87345SOL     OW63867   6.216   3.029   9.805
87345SOL    HW163868   6.180   3.028   9.894
87345SOL    HW263869   6.163   3.094   9.759
87346SOL     OW63870   9.048   9.628  10.699
87346SOL    HW163871   9.087   9.711  10.728
87346SOL    HW263872   8.960   9.628  10.736
87347SOL     OW63873   0.230   0.860  12.770
87347SOL    HW163874   0.231   0.769  12.741
87347SOL    HW263875   0.154   0.866  12.828
87348SOL     OW63876  10.084   5.275  13.336
87348SOL    HW163877  10.046   5.210  13.395
87348SOL    HW263878  10.009   5.317  13.294
87349SOL     OW63879  12.685   0.418   8.464
87349SOL    HW163880  12.753   0.361   8.429
87349SOL    HW263881  12.669   0.384   8.552
87350SOL     OW63882   6.818   5.868   1.309
87350SOL    HW163883   6.754   5.806   1.344
87350SOL    HW263884   6.903   5.827   1.325
87351SOL     OW63885   0.719   1.763   3.176
87351SOL    HW163886   0.696   1.674   3.201
87351SOL    HW263887   0.771   1.752   3.096
87352SOL     OW63888   7.786   4.831   3.024
87352SOL    HW163889   7.828   4.775   3.089
87352SOL    HW263890   7.693   4.809   3.028
87353SOL     OW63891  12.313  14.038   1.660
87353SOL    HW163892  12.227  14.003   1.638
87353SOL    HW263893  12.372  14.003   1.593
87354SOL     OW63894   8.677   2.354   0.596
87354SOL    HW163895   8.596   2.307   0.578
87354SOL    HW263896   8.665   2.440   0.555
87355SOL     OW63897  14.554   9.588   2.189
87355SOL    HW163898  14.493   9.517   2.174
87355SOL    HW263899  14.623   9.549   2.244
87356SOL     OW63900   4.561  14.327   8.153
87356SOL    HW163901   4.548  14.236   8.182
87356SOL    HW263902   4.561  14.321   8.058
87357SOL     OW63903   9.543  13.395   4.889
87357SOL    HW163904   9.532  13.430   4.800
87357SOL    HW263905   9.456  13.364   4.914
87358SOL     OW63906  12.070   1.793  11.275
87358SOL    HW163907  12.159   1.759  11.282
87358SOL    HW263908  12.015   1.723  11.310
87359SOL     OW63909   9.198  13.932   1.866
87359SOL    HW163910   9.190  13.836   1.873
87359SOL    HW263911   9.107  13.963   1.862
87360SOL     OW63912  12.506  10.909   3.699
87360SOL    HW163913  12.518  10.814   3.697
87360SOL    HW263914  12.486  10.929   3.790
87361SOL     OW63915   2.878  12.987  10.033
87361SOL    HW163916   2.880  12.909  10.089
87361SOL    HW263917   2.968  12.998  10.004
87362SOL     OW63918   7.445  14.658   5.770
87362SOL    HW163919   7.420  14.588   5.709
87362SOL    HW263920   7.454  14.736   5.716
87363SOL     OW63921   7.981   0.059   1.487
87363SOL    HW163922   7.922  14.863   1.517
87363SOL    HW263923   8.015   0.098   1.567
87364SOL     OW63924   2.497   2.598   3.445
87364SOL    HW163925   2.422   2.578   3.502
87364SOL    HW263926   2.457   2.625   3.362
87365SOL     OW63927  12.876   7.924   7.253
87365SOL    HW163928  12.861   8.004   7.204
87365SOL    HW263929  12.963   7.896   7.227
87366SOL     OW63930  12.595   3.070   0.033
87366SOL    HW163931  12.546   2.990   0.053
87366SOL    HW263932  12.667   3.070   0.097
87367SOL     OW63933  12.243   8.276   1.392
87367SOL    HW163934  12.333   8.256   1.419
87367SOL    HW263935  12.233   8.370   1.410
87368SOL     OW63936   1.702   8.143   7.897
87368SOL    HW163937   1.699   8.174   7.987
87368SOL    HW263938   1.692   8.048   7.904
87369SOL     OW63939   1.965  12.406   7.662
87369SOL    HW163940   1.955  12.461   7.584
87369SOL    HW263941   1.881  12.360   7.669
87370SOL     OW63942   0.460   9.786   2.663
87370SOL    HW163943   0.523   9.858   2.665
87370SOL    HW263944   0.493   9.723   2.727
87371SOL     OW63945  13.041  11.992  14.209
87371SOL    HW163946  12.988  11.913  14.202
87371SOL    HW263947  12.992  12.049  14.267
87372SOL     OW63948   3.693   2.793  10.649
87372SOL    HW163949   3.732   2.820  10.732
87372SOL    HW263950   3.613   2.747  10.674
87373SOL     OW63951   6.047   6.376  12.367
87373SOL    HW163952   6.114   6.313  12.341
87373SOL    HW263953   5.965   6.341  12.332
87374SOL     OW63954   8.081   9.934   3.689
87374SOL    HW163955   8.166   9.951   3.729
87374SOL    HW263956   8.030   9.893   3.759
87375SOL     OW63957  10.016   2.738   8.229
87375SOL    HW163958  10.092   2.709   8.178
87375SOL    HW263959  10.032   2.703   8.317
87376SOL     OW63960   5.704   0.983  11.732
87376SOL    HW163961   5.709   0.992  11.827
87376SOL    HW263962   5.750   0.901  11.713
87377SOL     OW63963  13.150  10.128   0.171
87377SOL    HW163964  13.158  10.050   0.116
87377SOL    HW263965  13.071  10.114   0.222
87378SOL     OW63966  13.153  12.492   9.984
87378SOL    HW163967  13.150  12.399   9.965
87378SOL    HW263968  13.247  12.513   9.989
87379SOL     OW63969  12.453   1.734  13.660
87379SOL    HW163970  12.389   1.804  13.674
87379SOL    HW263971  12.409   1.654  13.689
87380SOL     OW63972   4.602  11.232   9.718
87380SOL    HW163973   4.537  11.187   9.771
87380SOL    HW263974   4.557  11.252   9.636
87381SOL     OW63975   7.989   1.724  12.456
87381SOL    HW163976   8.002   1.819  12.466
87381SOL    HW263977   7.911   1.705  12.507
87382SOL     OW63978  10.754  13.611   1.159
87382SOL    HW163979  10.759  13.703   1.135
87382SOL    HW263980  10.785  13.608   1.250
87383SOL     OW63981   9.829  14.676  10.092
87383SOL    HW163982   9.880  14.625  10.155
87383SOL    HW263983   9.894  14.730  10.046
87384SOL     OW63984   6.433   3.613   6.265
87384SOL    HW163985   6.382   3.658   6.332
87384SOL    HW263986   6.485   3.549   6.313
87385SOL     OW63987  13.515   9.864  10.150
87385SOL    HW163988  13.520   9.798  10.080
87385SOL    HW263989  13.600   9.859  10.193
87386SOL     OW63990  13.550   5.259   5.436
87386SOL    HW163991  13.489   5.201   5.392
87386SOL    HW263992  13.601   5.299   5.366
87387SOL     OW63993  13.338  14.842   3.145
87387SOL    HW163994  13.290  14.851   3.227
87387SOL    HW263995  13.418   0.020   3.159
87388SOL     OW63996  13.846   0.671   0.809
87388SOL    HW163997  13.875   0.748   0.760
87388SOL    HW263998  13.922   0.612   0.807
87389SOL     OW63999   8.354  11.558  10.725
87389SOL    HW164000   8.365  11.463  10.717
87389SOL    HW264001   8.296  11.581  10.653
87390SOL     OW64002   5.245   2.190   7.752
87390SOL    HW164003   5.187   2.263   7.727
87390SOL    HW264004   5.206   2.113   7.710
87391SOL     OW64005  13.449   5.463   0.555
87391SOL    HW164006  13.374   5.423   0.510
87391SOL    HW264007  13.517   5.396   0.553
87392SOL     OW64008   3.054   1.485   6.305
87392SOL    HW164009   3.077   1.479   6.212
87392SOL    HW264010   2.979   1.545   6.307
87393SOL     OW64011   0.968   6.038  10.311
87393SOL    HW164012   0.952   6.083  10.394
87393SOL    HW264013   0.995   5.950  10.336
87394SOL     OW64014   7.857   3.238   8.706
87394SOL    HW164015   7.889   3.315   8.659
87394SOL    HW264016   7.789   3.272   8.765
87395SOL     OW64017  10.948   3.929   4.321
87395SOL    HW164018  10.887   3.947   4.393
87395SOL    HW264019  11.017   3.878   4.362
87396SOL     OW64020   4.870   1.609  14.640
87396SOL    HW164021   4.847   1.604  14.548
87396SOL    HW264022   4.789   1.635  14.684
87397SOL     OW64023   3.837   8.101   8.862
87397SOL    HW164024   3.753   8.145   8.853
87397SOL    HW264025   3.824   8.015   8.822
87398SOL     OW64026   6.122   6.585   6.725
87398SOL    HW164027   6.154   6.652   6.665
87398SOL    HW264028   6.027   6.587   6.714
87399SOL     OW64029  10.485   7.919   5.579
87399SOL    HW164030  10.481   8.014   5.593
87399SOL    HW264031  10.556   7.907   5.516
87400SOL     OW64032   6.948   2.138   3.587
87400SOL    HW164033   6.937   2.124   3.680
87400SOL    HW264034   7.041   2.120   3.570
87401SOL     OW64035   6.227  13.078   8.537
87401SOL    HW164036   6.154  13.138   8.523
87401SOL    HW264037   6.187  12.991   8.538
87402SOL     OW64038   0.881   0.407   7.736
87402SOL    HW164039   0.868   0.471   7.807
87402SOL    HW264040   0.976   0.395   7.732
87403SOL     OW64041   6.414   0.027   6.706
87403SOL    HW164042   6.504  14.872   6.690
87403SOL    HW264043   6.408   0.035   6.801
87404SOL     OW64044   8.644   2.780  13.682
87404SOL    HW164045   8.661   2.753  13.772
87404SOL    HW264046   8.731   2.792  13.643
87405SOL     OW64047   3.073   7.215   7.895
87405SOL    HW164048   2.987   7.237   7.929
87405SOL    HW264049   3.056   7.152   7.825
87406SOL     OW64050   1.194   1.186   0.998
87406SOL    HW164051   1.186   1.136   1.080
87406SOL    HW264052   1.284   1.217   0.997
87407SOL     OW64053   9.813  10.559   4.591
87407SOL    HW164054   9.893  10.562   4.644
87407SOL    HW264055   9.756  10.625   4.631
87408SOL     OW64056  12.937  14.597   3.522
87408SOL    HW164057  12.998  14.536   3.564
87408SOL    HW264058  12.867  14.609   3.586
87409SOL     OW64059   3.778   7.395  10.162
87409SOL    HW164060   3.692   7.362  10.190
87409SOL    HW264061   3.766   7.415  10.069
87410SOL     OW64062  11.905   3.570   3.917
87410SOL    HW164063  11.855   3.594   3.994
87410SOL    HW264064  11.940   3.653   3.884
87411SOL     OW64065   1.896   9.168  11.871
87411SOL    HW164066   1.966   9.105  11.889
87411SOL    HW264067   1.941   9.244  11.835
87412SOL     OW64068   0.481  13.941  13.618
87412SOL    HW164069   0.481  13.947  13.713
87412SOL    HW264070   0.544  13.871  13.598
87413SOL     OW64071   6.527   0.526   7.647
87413SOL    HW164072   6.580   0.449   7.670
87413SOL    HW264073   6.573   0.599   7.687
87414SOL     OW64074   4.677   7.259   5.665
87414SOL    HW164075   4.651   7.181   5.616
87414SOL    HW264076   4.745   7.227   5.725
87415SOL     OW64077   5.285  14.328   7.257
87415SOL    HW164078   5.309  14.369   7.173
87415SOL    HW264079   5.304  14.396   7.322
87416SOL     OW64080  11.654   1.372  14.811
87416SOL    HW164081  11.588   1.381   0.007
87416SOL    HW264082  11.611   1.318  14.745
87417SOL     OW64083   4.594   3.636  11.401
87417SOL    HW164084   4.552   3.715  11.435
87417SOL    HW264085   4.652   3.668  11.332
87418SOL     OW64086   2.045   9.027   6.086
87418SOL    HW164087   2.043   9.029   5.990
87418SOL    HW264088   2.092   9.106   6.111
87419SOL     OW64089  12.720  12.706   8.481
87419SOL    HW164090  12.632  12.670   8.472
87419SOL    HW264091  12.753  12.714   8.392
87420SOL     OW64092  11.212  10.115  10.585
87420SOL    HW164093  11.278  10.046  10.597
87420SOL    HW264094  11.154  10.105  10.660
87421SOL     OW64095  11.026   2.599  11.602
87421SOL    HW164096  10.947   2.561  11.639
87421SOL    HW264097  11.017   2.693  11.618
87422SOL     OW64098   6.075   0.582   8.315
87422SOL    HW164099   6.122   0.656   8.354
87422SOL    HW264100   5.988   0.617   8.296
87423SOL     OW64101  10.564   2.080   5.331
87423SOL    HW164102  10.616   2.013   5.376
87423SOL    HW264103  10.509   2.032   5.270
87424SOL     OW64104   5.467  11.095   6.492
87424SOL    HW164105   5.466  11.111   6.398
87424SOL    HW264106   5.471  11.182   6.531
87425SOL     OW64107   7.681  14.142   8.558
87425SOL    HW164108   7.741  14.069   8.549
87425SOL    HW264109   7.735  14.215   8.588
87426SOL     OW64110  14.736  14.838   3.718
87426SOL    HW164111  14.798  14.777   3.679
87426SOL    HW264112  14.753  14.832   3.812
87427SOL     OW64113  10.592   2.495  13.783
87427SOL    HW164114  10.635   2.426  13.732
87427SOL    HW264115  10.609   2.576  13.734
87428SOL     OW64116   5.241  11.295  11.352
87428SOL    HW164117   5.156  11.335  11.371
87428SOL    HW264118   5.255  11.313  11.259
87429SOL     OW64119   1.317   5.284   2.914
87429SOL    HW164120   1.315   5.194   2.945
87429SOL    HW264121   1.233   5.297   2.869
87430SOL     OW64122   0.112   6.816   2.539
87430SOL    HW164123   0.177   6.746   2.544
87430SOL    HW264124   0.145   6.884   2.598
87431SOL     OW64125   6.753   7.271   9.550
87431SOL    HW164126   6.708   7.355   9.563
87431SOL    HW264127   6.686   7.205   9.571
87432SOL     OW64128   3.912   5.957  14.146
87432SOL    HW164129   3.967   5.999  14.080
87432SOL    HW264130   3.892   5.871  14.109
87433SOL     OW64131   6.984   1.850  14.186
87433SOL    HW164132   7.057   1.910  14.171
87433SOL    HW264133   6.914   1.906  14.221
87434SOL     OW64134   0.841   9.657   6.536
87434SOL    HW164135   0.749   9.639   6.513
87434SOL    HW264136   0.836   9.718   6.609
87435SOL     OW64137   7.039   6.402  13.696
87435SOL    HW164138   7.015   6.487  13.734
87435SOL    HW264139   7.112   6.422  13.637
87436SOL     OW64140   5.699   7.285   8.734
87436SOL    HW164141   5.643   7.360   8.754
87436SOL    HW264142   5.690   7.273   8.639
87437SOL     OW64143  12.997   3.455  10.134
87437SOL    HW164144  13.005   3.462  10.229
87437SOL    HW264145  12.904   3.470  10.117
87438SOL     OW64146   5.362   7.543  13.929
87438SOL    HW164147   5.268   7.531  13.918
87438SOL    HW264148   5.372   7.577  14.019
87439SOL     OW64149   1.559  12.905   0.459
87439SOL    HW164150   1.581  12.907   0.552
87439SOL    HW264151   1.611  12.832   0.424
87440SOL     OW64152  12.482  10.219  11.072
87440SOL    HW164153  12.413  10.266  11.119
87440SOL    HW264154  12.452  10.129  11.067
87441SOL     OW64155  11.706  13.051   2.302
87441SOL    HW164156  11.764  13.048   2.378
87441SOL    HW264157  11.644  13.121   2.321
87442SOL     OW64158   6.670   2.957   6.040
87442SOL    HW164159   6.760   2.990   6.035
87442SOL    HW264160   6.676   2.881   6.097
87443SOL     OW64161  12.013  11.251  12.764
87443SOL    HW164162  12.064  11.292  12.695
87443SOL    HW264163  11.944  11.203  12.719
87444SOL     OW64164  13.421  13.883   2.246
87444SOL    HW164165  13.354  13.820   2.220
87444SOL    HW264166  13.499  13.856   2.197
87445SOL     OW64167   3.814  12.336   5.643
87445SOL    HW164168   3.799  12.267   5.579
87445SOL    HW264169   3.849  12.290   5.719
87446SOL     OW64170   5.586   3.380   2.429
87446SOL    HW164171   5.568   3.294   2.466
87446SOL    HW264172   5.612   3.361   2.338
87447SOL     OW64173   3.202   2.061  10.542
87447SOL    HW164174   3.292   2.090  10.555
87447SOL    HW264175   3.187   1.994  10.609
87448SOL     OW64176   7.621  13.803  11.348
87448SOL    HW164177   7.674  13.773  11.275
87448SOL    HW264178   7.601  13.724  11.398
87449SOL     OW64179  14.023  12.537   1.223
87449SOL    HW164180  14.088  12.497   1.280
87449SOL    HW264181  13.962  12.465   1.202
87450SOL     OW64182   9.384   7.182  13.683
87450SOL    HW164183   9.455   7.237  13.714
87450SOL    HW264184   9.407   7.094  13.713
87451SOL     OW64185  12.692  13.032   0.392
87451SOL    HW164186  12.765  12.994   0.343
87451SOL    HW264187  12.651  12.957   0.435
87452SOL     OW64188   4.274  13.367  14.077
87452SOL    HW164189   4.191  13.404  14.046
87452SOL    HW264190   4.320  13.342  13.997
87453SOL     OW64191   3.595   6.317   4.994
87453SOL    HW164192   3.659   6.295   5.062
87453SOL    HW264193   3.603   6.246   4.930
87454SOL     OW64194   1.960   3.592   7.818
87454SOL    HW164195   2.048   3.624   7.798
87454SOL    HW264196   1.974   3.505   7.855
87455SOL     OW64197   0.892  11.735   9.457
87455SOL    HW164198   0.802  11.713   9.432
87455SOL    HW264199   0.901  11.700   9.546
87456SOL     OW64200   5.089   8.945   0.642
87456SOL    HW164201   5.089   8.862   0.594
87456SOL    HW264202   5.178   8.979   0.633
87457SOL     OW64203   4.424   6.839   9.381
87457SOL    HW164204   4.466   6.894   9.315
87457SOL    HW264205   4.443   6.883   9.464
87458SOL     OW64206   7.890   1.636   8.701
87458SOL    HW164207   7.904   1.576   8.628
87458SOL    HW264208   7.879   1.722   8.660
87459SOL     OW64209  11.895   3.371   3.700
87459SOL    HW164210  11.875   3.302   3.763
87459SOL    HW264211  11.921   3.446   3.754
87460SOL     OW64212   9.786   1.215   7.454
87460SOL    HW164213   9.762   1.123   7.443
87460SOL    HW264214   9.732   1.262   7.390
87461SOL     OW64215   1.927   2.090   6.614
87461SOL    HW164216   2.017   2.120   6.609
87461SOL    HW264217   1.927   2.026   6.685
87462SOL     OW64218   8.459   3.169   8.314
87462SOL    HW164219   8.509   3.134   8.240
87462SOL    HW264220   8.419   3.092   8.354
87463SOL     OW64221  12.528  14.367   1.478
87463SOL    HW164222  12.609  14.344   1.525
87463SOL    HW264223  12.493  14.282   1.450
87464SOL     OW64224  11.322  13.283   0.112
87464SOL    HW164225  11.378  13.326   0.047
87464SOL    HW264226  11.347  13.191   0.109
87465SOL     OW64227   6.076   8.137  14.681
87465SOL    HW164228   6.086   8.224  14.720
87465SOL    HW264229   5.996   8.103  14.721
87466SOL     OW64230   3.746   3.110   0.385
87466SOL    HW164231   3.657   3.107   0.421
87466SOL    HW264232   3.774   3.201   0.397
87467SOL     OW64233   9.379  12.415  12.730
87467SOL    HW164234   9.311  12.425  12.664
87467SOL    HW264235   9.364  12.487  12.791
87468SOL     OW64236   9.293   0.675  10.943
87468SOL    HW164237   9.349   0.598  10.953
87468SOL    HW264238   9.263   0.695  11.031
87469SOL     OW64239  14.158   8.761   6.881
87469SOL    HW164240  14.214   8.741   6.806
87469SOL    HW264241  14.119   8.846   6.861
87470SOL     OW64242   1.869   4.681   6.077
87470SOL    HW164243   1.913   4.606   6.117
87470SOL    HW264244   1.798   4.643   6.025
87471SOL     OW64245   9.088   6.090   0.748
87471SOL    HW164246   9.032   6.024   0.708
87471SOL    HW264247   9.072   6.082   0.842
87472SOL     OW64248   7.682   6.402  14.501
87472SOL    HW164249   7.739   6.458  14.554
87472SOL    HW264250   7.643   6.461  14.437
87473SOL     OW64251   6.871   4.288  12.787
87473SOL    HW164252   6.926   4.364  12.768
87473SOL    HW264253   6.781   4.321  12.778
87474SOL     OW64254   0.217   9.431   4.749
87474SOL    HW164255   0.234   9.363   4.815
87474SOL    HW264256   0.264   9.401   4.672
87475SOL     OW64257   7.804  14.381   8.639
87475SOL    HW164258   7.763  14.401   8.723
87475SOL    HW264259   7.769  14.446   8.579
87476SOL     OW64260   2.931   1.768  10.851
87476SOL    HW164261   2.909   1.791  10.941
87476SOL    HW264262   2.857   1.802  10.800
87477SOL     OW64263   6.287   3.132   7.658
87477SOL    HW164264   6.336   3.204   7.619
87477SOL    HW264265   6.352   3.082   7.707
87478SOL     OW64266   8.912   1.159   5.908
87478SOL    HW164267   8.867   1.243   5.902
87478SOL    HW264268   8.842   1.094   5.906
87479SOL     OW64269   2.019   8.390   7.537
87479SOL    HW164270   2.042   8.316   7.481
87479SOL    HW264271   1.955   8.355   7.599
87480SOL     OW64272   0.220  12.275   0.357
87480SOL    HW164273   0.160  12.333   0.310
87480SOL    HW264274   0.194  12.187   0.329
87481SOL     OW64275   5.357  11.063   4.615
87481SOL    HW164276   5.288  11.115   4.575
87481SOL    HW264277   5.382  11.112   4.694
87482SOL     OW64278   7.115   4.395   9.059
87482SOL    HW164279   7.146   4.356   8.977
87482SOL    HW264280   7.188   4.383   9.120
87483SOL     OW64281  12.722   4.447   9.346
87483SOL    HW164282  12.756   4.358   9.349
87483SOL    HW264283  12.676   4.459   9.429
87484SOL     OW64284  10.273   7.513  12.780
87484SOL    HW164285  10.268   7.429  12.734
87484SOL    HW264286  10.319   7.493  12.861
87485SOL     OW64287   9.536   4.679  12.942
87485SOL    HW164288   9.466   4.737  12.911
87485SOL    HW264289   9.580   4.651  12.862
87486SOL     OW64290  10.788  10.226   3.357
87486SOL    HW164291  10.875  10.260   3.379
87486SOL    HW264292  10.800  10.185   3.272
87487SOL     OW64293   3.962  13.580   1.473
87487SOL    HW164294   4.030  13.549   1.533
87487SOL    HW264295   3.977  13.531   1.393
87488SOL     OW64296   7.540  12.127   7.138
87488SOL    HW164297   7.601  12.162   7.073
87488SOL    HW264298   7.454  12.139   7.099
87489SOL     OW64299  13.540   0.233   3.316
87489SOL    HW164300  13.605   0.278   3.262
87489SOL    HW264301  13.584   0.153   3.345
87490SOL     OW64302   9.546   8.012  11.421
87490SOL    HW164303   9.631   7.979  11.449
87490SOL    HW264304   9.489   7.935  11.420
87491SOL     OW64305   3.702   3.441   9.451
87491SOL    HW164306   3.790   3.470   9.473
87491SOL    HW264307   3.657   3.434   9.536
87492SOL     OW64308   3.543   5.471   7.917
87492SOL    HW164309   3.492   5.443   7.841
87492SOL    HW264310   3.533   5.400   7.980
87493SOL     OW64311   1.814  12.197  12.433
87493SOL    HW164312   1.773  12.251  12.501
87493SOL    HW264313   1.810  12.251  12.355
87494SOL     OW64314   6.702   1.657  13.135
87494SOL    HW164315   6.671   1.697  13.216
87494SOL    HW264316   6.629   1.667  13.074
87495SOL     OW64317   0.313   9.480   4.293
87495SOL    HW164318   0.353   9.396   4.314
87495SOL    HW264319   0.233   9.482   4.346
87496SOL     OW64320  10.260   0.386   5.323
87496SOL    HW164321  10.170   0.356   5.309
87496SOL    HW264322  10.310   0.346   5.251
87497SOL     OW64323   4.142  10.110  11.670
87497SOL    HW164324   4.144  10.017  11.647
87497SOL    HW264325   4.230  10.129  11.703
87498SOL     OW64326   7.176   8.807  14.182
87498SOL    HW164327   7.100   8.810  14.125
87498SOL    HW264328   7.206   8.898  14.187
87499SOL     OW64329  13.672   4.025  14.144
87499SOL    HW164330  13.613   4.092  14.108
87499SOL    HW264331  13.758   4.068  14.147
87500SOL     OW64332   8.079  14.708  13.872
87500SOL    HW164333   8.052  14.618  13.894
87500SOL    HW264334   8.041  14.724  13.786
87501SOL     OW64335   6.985   4.074  12.679
87501SOL    HW164336   6.982   4.145  12.743
87501SOL    HW264337   6.925   4.008  12.713
87502SOL     OW64338   4.158   5.688  13.097
87502SOL    HW164339   4.210   5.699  13.177
87502SOL    HW264340   4.119   5.774  13.082
87503SOL     OW64341  11.732   8.287  12.760
87503SOL    HW164342  11.640   8.289  12.734
87503SOL    HW264343  11.756   8.379  12.771
87504SOL     OW64344   6.955   4.609   8.464
87504SOL    HW164345   6.930   4.586   8.553
87504SOL    HW264346   6.908   4.547   8.409
87505SOL     OW64347  13.264  14.324  13.757
87505SOL    HW164348  13.220  14.409  13.767
87505SOL    HW264349  13.334  14.326  13.822
87506SOL     OW64350   6.057   9.023   7.385
87506SOL    HW164351   6.054   9.092   7.451
87506SOL    HW264352   5.966   9.001   7.368
87507SOL     OW64353   6.005   7.093   8.502
87507SOL    HW164354   5.941   7.050   8.558
87507SOL    HW264355   6.089   7.078   8.545
87508SOL     OW64356   3.168  11.090   9.008
87508SOL    HW164357   3.083  11.046   9.014
87508SOL    HW264358   3.147  11.183   9.023
87509SOL     OW64359   5.622   6.577   8.418
87509SOL    HW164360   5.672   6.658   8.425
87509SOL    HW264361   5.590   6.561   8.507
87510SOL     OW64362  11.092  11.185   0.621
87510SOL    HW164363  11.125  11.273   0.638
87510SOL    HW264364  11.071  11.185   0.528
87511SOL     OW64365  10.254   1.214   7.962
87511SOL    HW164366  10.201   1.284   8.002
87511SOL    HW264367  10.208   1.193   7.881
87512SOL     OW64368   0.113   5.534  13.541
87512SOL    HW164369   0.190   5.544  13.596
87512SOL    HW264370   0.076   5.450  13.566
87513SOL     OW64371  11.106   9.535   8.024
87513SOL    HW164372  11.039   9.584   7.976
87513SOL    HW264373  11.189   9.560   7.982
87514SOL     OW64374   5.353  12.262   6.608
87514SOL    HW164375   5.385  12.290   6.695
87514SOL    HW264376   5.392  12.325   6.548
87515SOL     OW64377   4.967   2.017   0.634
87515SOL    HW164378   4.938   1.982   0.549
87515SOL    HW264379   5.009   1.943   0.678
87516SOL     OW64380   9.669  10.420  14.429
87516SOL    HW164381   9.650  10.497  14.376
87516SOL    HW264382   9.675  10.348  14.366
87517SOL     OW64383  12.341  10.026   7.731
87517SOL    HW164384  12.251  10.004   7.709
87517SOL    HW264385  12.362   9.972   7.807
87518SOL     OW64386  12.848   0.187   6.636
87518SOL    HW164387  12.914   0.172   6.568
87518SOL    HW264388  12.836   0.282   6.638
87519SOL     OW64389  10.483   3.978   7.399
87519SOL    HW164390  10.542   4.036   7.446
87519SOL    HW264391  10.460   4.026   7.319
87520SOL     OW64392   8.673   0.421   2.766
87520SOL    HW164393   8.738   0.366   2.810
87520SOL    HW264394   8.683   0.401   2.673
87521SOL     OW64395  10.846   4.953  14.041
87521SOL    HW164396  10.847   5.048  14.024
87521SOL    HW264397  10.887   4.914  13.964
87522SOL     OW64398  13.026   1.930   9.865
87522SOL    HW164399  12.952   1.967   9.914
87522SOL    HW264400  13.039   1.990   9.791
87523SOL     OW64401  10.086   1.839  12.104
87523SOL    HW164402  10.000   1.814  12.073
87523SOL    HW264403  10.103   1.779  12.177
87524SOL     OW64404   7.996   3.230   7.262
87524SOL    HW164405   8.046   3.243   7.181
87524SOL    HW264406   7.916   3.185   7.234
87525SOL     OW64407  11.373  12.023   1.014
87525SOL    HW164408  11.466  12.021   1.033
87525SOL    HW264409  11.330  12.004   1.098
87526SOL     OW64410   4.497   1.322   8.229
87526SOL    HW164411   4.469   1.236   8.200
87526SOL    HW264412   4.588   1.329   8.199
87527SOL     OW64413  11.983  10.737   5.270
87527SOL    HW164414  11.916  10.750   5.338
87527SOL    HW264415  12.014  10.647   5.285
87528SOL     OW64416   5.235   1.559   9.366
87528SOL    HW164417   5.172   1.573   9.295
87528SOL    HW264418   5.180   1.550   9.444
87529SOL     OW64419   8.099   7.657   1.026
87529SOL    HW164420   8.149   7.668   0.945
87529SOL    HW264421   8.145   7.588   1.073
87530SOL     OW64422  13.923   6.832   1.931
87530SOL    HW164423  13.831   6.822   1.905
87530SOL    HW264424  13.952   6.742   1.948
87531SOL     OW64425  13.316   5.002   4.191
87531SOL    HW164426  13.256   4.949   4.244
87531SOL    HW264427  13.376   5.040   4.255
87532SOL     OW64428  14.667   6.160   6.484
87532SOL    HW164429  14.729   6.227   6.453
87532SOL    HW264430  14.667   6.169   6.579
87533SOL     OW64431   6.596  13.285   1.754
87533SOL    HW164432   6.642  13.202   1.763
87533SOL    HW264433   6.623  13.318   1.668
87534SOL     OW64434   4.334  14.641  12.914
87534SOL    HW164435   4.268  14.707  12.935
87534SOL    HW264436   4.390  14.683  12.848
87535SOL     OW64437   3.977  14.730   7.038
87535SOL    HW164438   3.974  14.752   7.131
87535SOL    HW264439   4.069  14.741   7.013
87536SOL     OW64440   8.523  10.998   3.813
87536SOL    HW164441   8.524  10.949   3.731
87536SOL    HW264442   8.431  11.017   3.829
87537SOL     OW64443   9.398  11.181   7.763
87537SOL    HW164444   9.487  11.202   7.734
87537SOL    HW264445   9.409  11.110   7.826
87538SOL     OW64446  10.873  13.918  13.127
87538SOL    HW164447  10.960  13.950  13.151
87538SOL    HW264448  10.877  13.824  13.145
87539SOL     OW64449   4.813   8.739   2.568
87539SOL    HW164450   4.846   8.650   2.575
87539SOL    HW264451   4.855   8.774   2.489
87540SOL     OW64452   7.312   2.762   7.675
87540SOL    HW164453   7.393   2.710   7.678
87540SOL    HW264454   7.337   2.843   7.630
87541SOL     OW64455   8.922   2.861   0.949
87541SOL    HW164456   8.977   2.895   1.019
87541SOL    HW264457   8.848   2.820   0.994
87542SOL     OW64458   6.627  14.510  14.398
87542SOL    HW164459   6.642  14.574  14.468
87542SOL    HW264460   6.554  14.547  14.348
87543SOL     OW64461   1.084   5.279  12.459
87543SOL    HW164462   1.123   5.339  12.523
87543SOL    HW264463   1.079   5.195  12.505
87544SOL     OW64464   9.004   1.214  11.273
87544SOL    HW164465   9.010   1.135  11.219
87544SOL    HW264466   8.912   1.220  11.297
87545SOL     OW64467  13.041  13.082   6.390
87545SOL    HW164468  13.083  13.105   6.473
87545SOL    HW264469  13.008  12.993   6.404
87546SOL     OW64470   3.634   2.800  11.451
87546SOL    HW164471   3.720   2.774  11.483
87546SOL    HW264472   3.649   2.882  11.404
87547SOL     OW64473  10.320   8.788   1.615
87547SOL    HW164474  10.351   8.736   1.541
87547SOL    HW264475  10.250   8.735   1.654
87548SOL     OW64476   4.391   2.219   5.056
87548SOL    HW164477   4.313   2.226   5.112
87548SOL    HW264478   4.445   2.293   5.081
87549SOL     OW64479  10.956  10.146  10.148
87549SOL    HW164480  10.996  10.192  10.075
87549SOL    HW264481  10.889  10.206  10.180
87550SOL     OW64482  13.760   2.553   9.645
87550SOL    HW164483  13.766   2.522   9.736
87550SOL    HW264484  13.786   2.644   9.649
87551SOL     OW64485   1.066  14.805  14.436
87551SOL    HW164486   1.074   0.025  14.458
87551SOL    HW264487   1.156  14.772  14.445
87552SOL     OW64488   8.543   1.390  10.202
87552SOL    HW164489   8.549   1.397  10.106
87552SOL    HW264490   8.595   1.313  10.224
87553SOL     OW64491   9.687   1.212  12.625
87553SOL    HW164492   9.635   1.244  12.550
87553SOL    HW264493   9.632   1.229  12.701
87554SOL     OW64494  13.918   3.168  10.228
87554SOL    HW164495  13.845   3.225  10.254
87554SOL    HW264496  13.996   3.222  10.240
87555SOL     OW64497   7.594   7.790   3.578
87555SOL    HW164498   7.612   7.709   3.627
87555SOL    HW264499   7.676   7.838   3.582
87556SOL     OW64500  11.579   1.547   3.809
87556SOL    HW164501  11.539   1.557   3.723
87556SOL    HW264502  11.564   1.631   3.853
87557SOL     OW64503  11.774  10.082   5.625
87557SOL    HW164504  11.845  10.104   5.564
87557SOL    HW264505  11.796  10.129   5.705
87558SOL     OW64506   5.119   0.204   9.705
87558SOL    HW164507   5.044   0.213   9.645
87558SOL    HW264508   5.181   0.270   9.675
87559SOL     OW64509   6.167   5.490   0.400
87559SOL    HW164510   6.075   5.479   0.377
87559SOL    HW264511   6.178   5.585   0.408
87560SOL     OW64512   5.123   3.771   8.644
87560SOL    HW164513   5.107   3.861   8.616
87560SOL    HW264514   5.187   3.738   8.582
87561SOL     OW64515  10.350   9.465   1.766
87561SOL    HW164516  10.275   9.407   1.780
87561SOL    HW264517  10.353   9.520   1.844
87562SOL     OW64518   7.465   6.737   7.560
87562SOL    HW164519   7.521   6.701   7.628
87562SOL    HW264520   7.482   6.683   7.483
87563SOL     OW64521  13.981  11.568   6.828
87563SOL    HW164522  13.951  11.649   6.869
87563SOL    HW264523  13.927  11.560   6.748
87564SOL     OW64524  13.745   8.896   3.877
87564SOL    HW164525  13.777   8.834   3.812
87564SOL    HW264526  13.723   8.843   3.953
87565SOL     OW64527  12.573  10.874   6.215
87565SOL    HW164528  12.632  10.799   6.206
87565SOL    HW264529  12.628  10.950   6.197
87566SOL     OW64530   5.401   5.979   9.024
87566SOL    HW164531   5.326   5.997   8.968
87566SOL    HW264532   5.435   5.895   8.993
87567SOL     OW64533   7.201  13.969  11.050
87567SOL    HW164534   7.275  13.965  11.111
87567SOL    HW264535   7.239  14.003  10.969
87568SOL     OW64536  10.867  14.856  14.776
87568SOL    HW164537  10.906   0.014  14.858
87568SOL    HW264538  10.789   0.037  14.764
87569SOL     OW64539   5.650   2.921   3.321
87569SOL    HW164540   5.592   2.935   3.396
87569SOL    HW264541   5.728   2.881   3.359
87570SOL     OW64542  11.429  13.122  12.613
87570SOL    HW164543  11.399  13.041  12.654
87570SOL    HW264544  11.502  13.150  12.668
87571SOL     OW64545  10.528  11.557   3.388
87571SOL    HW164546  10.552  11.609   3.465
87571SOL    HW264547  10.432  11.555   3.389
87572SOL     OW64548   2.291   4.408   3.394
87572SOL    HW164549   2.260   4.468   3.463
87572SOL    HW264550   2.212   4.363   3.365
87573SOL     OW64551   7.450   3.878  12.564
87573SOL    HW164552   7.454   3.939  12.491
87573SOL    HW264553   7.436   3.793  12.523
87574SOL     OW64554  13.989   8.874   1.702
87574SOL    HW164555  14.061   8.936   1.699
87574SOL    HW264556  13.911   8.927   1.687
87575SOL     OW64557  10.410  14.822  12.522
87575SOL    HW164558  10.426   0.009  12.448
87575SOL    HW264559  10.489  14.828  12.575
87576SOL     OW64560   1.895   5.578   9.736
87576SOL    HW164561   1.881   5.609   9.826
87576SOL    HW264562   1.850   5.493   9.733
87577SOL     OW64563  11.335  14.562   8.167
87577SOL    HW164564  11.418  14.584   8.123
87577SOL    HW264565  11.269  14.610   8.118
87578SOL     OW64566   3.256   5.696   9.201
87578SOL    HW164567   3.189   5.707   9.269
87578SOL    HW264568   3.339   5.710   9.245
87579SOL     OW64569   0.548   5.620   1.999
87579SOL    HW164570   0.494   5.616   1.920
87579SOL    HW264571   0.555   5.530   2.028
87580SOL     OW64572   7.750  10.730   4.451
87580SOL    HW164573   7.660  10.746   4.478
87580SOL    HW264574   7.793  10.692   4.528
87581SOL     OW64575   7.132   5.449  14.826
87581SOL    HW164576   7.048   5.479  14.792
87581SOL    HW264577   7.119   5.356  14.844
87582SOL     OW64578  13.579  14.858   9.868
87582SOL    HW164579  13.655   0.028   9.828
87582SOL    HW264580  13.571   0.025   9.955
87583SOL     OW64581   4.709  13.805   8.121
87583SOL    HW164582   4.788  13.801   8.067
87583SOL    HW264583   4.738  13.774   8.207
87584SOL     OW64584   3.136   6.042   5.898
87584SOL    HW164585   3.081   5.993   5.959
87584SOL    HW264586   3.074   6.076   5.832
87585SOL     OW64587   6.269  11.824   7.393
87585SOL    HW164588   6.295  11.759   7.329
87585SOL    HW264589   6.175  11.809   7.406
87586SOL     OW64590  13.376   4.907  12.412
87586SOL    HW164591  13.427   4.836  12.374
87586SOL    HW264592  13.315   4.863  12.472
87587SOL     OW64593   2.509   2.299   0.662
87587SOL    HW164594   2.558   2.339   0.734
87587SOL    HW264595   2.417   2.318   0.682
87588SOL     OW64596   9.253  11.986  13.020
87588SOL    HW164597   9.208  11.975  13.104
87588SOL    HW264598   9.346  11.973  13.041
87589SOL     OW64599  11.872   7.807   6.121
87589SOL    HW164600  11.940   7.743   6.142
87589SOL    HW264601  11.791   7.756   6.125
87590SOL     OW64602   7.910   9.782   8.886
87590SOL    HW164603   7.843   9.740   8.831
87590SOL    HW264604   7.965   9.830   8.825
87591SOL     OW64605   1.423   1.018   5.051
87591SOL    HW164606   1.395   1.110   5.049
87591SOL    HW264607   1.371   0.976   4.982
87592SOL     OW64608   9.630   4.692   2.352
87592SOL    HW164609   9.615   4.665   2.261
87592SOL    HW264610   9.694   4.763   2.345
87593SOL     OW64611   2.390   9.658   1.019
87593SOL    HW164612   2.324   9.615   0.965
87593SOL    HW264613   2.372   9.626   1.108
87594SOL     OW64614   6.537   3.296  13.555
87594SOL    HW164615   6.516   3.206  13.531
87594SOL    HW264616   6.588   3.288  13.636
87595SOL     OW64617   6.900   3.241  13.024
87595SOL    HW164618   6.837   3.184  12.982
87595SOL    HW264619   6.917   3.200  13.109
87596SOL     OW64620   5.475  11.581   4.582
87596SOL    HW164621   5.521  11.612   4.660
87596SOL    HW264622   5.506  11.639   4.512
87597SOL     OW64623   5.746   6.472  10.575
87597SOL    HW164624   5.708   6.384  10.582
87597SOL    HW264625   5.671   6.530  10.568
87598SOL     OW64626   4.109  12.856   8.233
87598SOL    HW164627   4.074  12.773   8.265
87598SOL    HW264628   4.079  12.860   8.142
87599SOL     OW64629  11.534   0.270   5.982
87599SOL    HW164630  11.590   0.250   5.907
87599SOL    HW264631  11.485   0.347   5.955
87600SOL     OW64632   4.556   9.544  10.329
87600SOL    HW164633   4.495   9.618  10.326
87600SOL    HW264634   4.544   9.506  10.415
87601SOL     OW64635   2.308   0.439   8.751
87601SOL    HW164636   2.363   0.410   8.679
87601SOL    HW264637   2.233   0.379   8.750
87602SOL     OW64638   2.011   4.415   9.973
87602SOL    HW164639   2.104   4.407   9.995
87602SOL    HW264640   2.003   4.502   9.934
87603SOL     OW64641   1.572   6.017   0.857
87603SOL    HW164642   1.625   5.966   0.795
87603SOL    HW264643   1.505   6.057   0.803
87604SOL     OW64644   3.743   5.771   9.718
87604SOL    HW164645   3.740   5.678   9.698
87604SOL    HW264646   3.663   5.807   9.680
87605SOL     OW64647  12.862  13.525   4.648
87605SOL    HW164648  12.877  13.540   4.741
87605SOL    HW264649  12.950  13.517   4.611
87606SOL     OW64650   8.851  13.594   8.226
87606SOL    HW164651   8.896  13.661   8.279
87606SOL    HW264652   8.791  13.644   8.172
87607SOL     OW64653  11.899  11.839  10.922
87607SOL    HW164654  11.963  11.769  10.907
87607SOL    HW264655  11.829  11.821  10.859
87608SOL     OW64656   4.716  14.592  11.437
87608SOL    HW164657   4.691  14.518  11.382
87608SOL    HW264658   4.636  14.644  11.446
87609SOL     OW64659   4.872   4.867   9.033
87609SOL    HW164660   4.880   4.785   9.081
87609SOL    HW264661   4.959   4.906   9.036
87610SOL     OW64662   5.940   6.882   6.380
87610SOL    HW164663   5.946   6.802   6.327
87610SOL    HW264664   5.872   6.935   6.338
87611SOL     OW64665   0.806   0.147   2.612
87611SOL    HW164666   0.763   0.147   2.527
87611SOL    HW264667   0.855   0.065   2.615
87612SOL     OW64668  13.957  14.366  10.795
87612SOL    HW164669  14.017  14.441  10.791
87612SOL    HW264670  13.883  14.397  10.847
87613SOL     OW64671   9.097   8.915   1.402
87613SOL    HW164672   9.111   8.860   1.479
87613SOL    HW264673   9.057   8.856   1.338
87614SOL     OW64674   0.193   7.840   4.201
87614SOL    HW164675   0.187   7.782   4.125
87614SOL    HW264676   0.178   7.928   4.165
87615SOL     OW64677  13.146   4.991  12.857
87615SOL    HW164678  13.165   4.917  12.915
87615SOL    HW264679  13.188   4.968  12.774
87616SOL     OW64680   8.329   3.538   3.456
87616SOL    HW164681   8.310   3.621   3.500
87616SOL    HW264682   8.333   3.561   3.363
87617SOL     OW64683  14.869   1.175  13.644
87617SOL    HW164684  14.806   1.243  13.668
87617SOL    HW264685   0.056   1.170  13.720
87618SOL     OW64686   5.578   0.210   3.470
87618SOL    HW164687   5.548   0.272   3.537
87618SOL    HW264688   5.652   0.255   3.428
87619SOL     OW64689   6.941   9.891  13.380
87619SOL    HW164690   7.024   9.939  13.387
87619SOL    HW264691   6.893   9.916  13.459
87620SOL     OW64692   0.418   6.324  11.748
87620SOL    HW164693   0.421   6.358  11.658
87620SOL    HW264694   0.342   6.367  11.787
87621SOL     OW64695   5.606   0.926  13.119
87621SOL    HW164696   5.530   0.947  13.065
87621SOL    HW264697   5.597   0.833  13.139
87622SOL     OW64698   3.987   7.974   7.100
87622SOL    HW164699   4.045   7.898   7.099
87622SOL    HW264700   4.046   8.049   7.110
87623SOL     OW64701   1.470  14.746  11.109
87623SOL    HW164702   1.485  14.653  11.092
87623SOL    HW264703   1.532  14.791  11.052
87624SOL     OW64704   2.209   6.563  11.111
87624SOL    HW164705   2.220   6.628  11.042
87624SOL    HW264706   2.125   6.521  11.092
87625SOL     OW64707   4.523  11.335   9.463
87625SOL    HW164708   4.569  11.377   9.390
87625SOL    HW264709   4.512  11.405   9.528
87626SOL     OW64710  12.844  11.376   4.873
87626SOL    HW164711  12.881  11.438   4.810
87626SOL    HW264712  12.781  11.325   4.823
87627SOL     OW64713   2.713   5.035   3.017
87627SOL    HW164714   2.752   5.122   3.008
87627SOL    HW264715   2.729   5.011   3.108
87628SOL     OW64716  12.259   0.517  11.585
87628SOL    HW164717  12.193   0.586  11.593
87628SOL    HW264718  12.208   0.436  11.592
87629SOL     OW64719  13.019   3.223   3.856
87629SOL    HW164720  13.097   3.273   3.831
87629SOL    HW264721  12.975   3.278   3.920
87630SOL     OW64722  12.006   3.666   1.075
87630SOL    HW164723  11.967   3.578   1.067
87630SOL    HW264724  11.942   3.716   1.125
87631SOL     OW64725   8.719   0.769  13.436
87631SOL    HW164726   8.729   0.750  13.343
87631SOL    HW264727   8.807   0.758  13.472
87632SOL     OW64728   3.416  11.436   5.551
87632SOL    HW164729   3.397  11.363   5.610
87632SOL    HW264730   3.472  11.398   5.483
87633SOL     OW64731   7.022   8.147   2.557
87633SOL    HW164732   7.028   8.193   2.641
87633SOL    HW264733   7.077   8.198   2.498
87634SOL     OW64734  10.075  12.870   4.010
87634SOL    HW164735  10.097  12.873   4.103
87634SOL    HW264736   9.992  12.918   4.004
87635SOL     OW64737  13.702   0.794   6.606
87635SOL    HW164738  13.638   0.854   6.646
87635SOL    HW264739  13.660   0.708   6.609
87636SOL     OW64740   9.483  12.535  12.352
87636SOL    HW164741   9.537  12.463  12.384
87636SOL    HW264742   9.540  12.583  12.292
87637SOL     OW64743   9.791   6.900   4.573
87637SOL    HW164744   9.729   6.832   4.596
87637SOL    HW264745   9.872   6.876   4.619
87638SOL     OW64746   6.913   7.597   6.086
87638SOL    HW164747   6.916   7.690   6.109
87638SOL    HW264748   6.846   7.560   6.143
87639SOL     OW64749  13.873   3.570   7.453
87639SOL    HW164750  13.967   3.552   7.461
87639SOL    HW264751  13.867   3.636   7.384
87640SOL     OW64752   5.326   7.677  14.484
87640SOL    HW164753   5.345   7.596  14.437
87640SOL    HW264754   5.259   7.721  14.431
87641SOL     OW64755   8.944   5.398  14.651
87641SOL    HW164756   8.853   5.370  14.650
87641SOL    HW264757   8.983   5.357  14.573
87642SOL     OW64758  10.008   9.282   7.443
87642SOL    HW164759   9.956   9.351   7.485
87642SOL    HW264760  10.056   9.328   7.374
87643SOL     OW64761   7.479   2.317   6.386
87643SOL    HW164762   7.394   2.276   6.404
87643SOL    HW264763   7.511   2.272   6.308
87644SOL     OW64764   0.484   9.334   8.666
87644SOL    HW164765   0.394   9.365   8.655
87644SOL    HW264766   0.488   9.253   8.615
87645SOL     OW64767   4.493  11.313   6.406
87645SOL    HW164768   4.558  11.273   6.348
87645SOL    HW264769   4.420  11.334   6.348
87646SOL     OW64770  14.393   4.307  14.502
87646SOL    HW164771  14.388   4.247  14.577
87646SOL    HW264772  14.442   4.258  14.436
87647SOL     OW64773   4.152  12.054   6.995
87647SOL    HW164774   4.173  12.010   6.912
87647SOL    HW264775   4.223  12.028   7.054
87648SOL     OW64776  13.072  11.599   0.941
87648SOL    HW164777  13.043  11.655   0.868
87648SOL    HW264778  13.166  11.590   0.927
87649SOL     OW64779   3.198   4.604   5.420
87649SOL    HW164780   3.206   4.614   5.325
87649SOL    HW264781   3.228   4.688   5.456
87650SOL     OW64782   6.809  13.413  12.263
87650SOL    HW164783   6.775  13.474  12.328
87650SOL    HW264784   6.902  13.435  12.257
87651SOL     OW64785   4.862   8.747   6.692
87651SOL    HW164786   4.904   8.763   6.777
87651SOL    HW264787   4.769   8.756   6.709
87652SOL     OW64788   6.321   4.118   3.025
87652SOL    HW164789   6.297   4.190   2.967
87652SOL    HW264790   6.346   4.162   3.107
87653SOL     OW64791   2.052   0.698   8.540
87653SOL    HW164792   1.999   0.669   8.615
87653SOL    HW264793   2.107   0.767   8.575
87654SOL     OW64794   5.482  11.099  11.668
87654SOL    HW164795   5.406  11.041  11.673
87654SOL    HW264796   5.516  11.102  11.758
87655SOL     OW64797  11.683  12.018   7.597
87655SOL    HW164798  11.765  12.050   7.558
87655SOL    HW264799  11.705  11.932   7.632
87656SOL     OW64800  11.864   7.138   3.311
87656SOL    HW164801  11.838   7.069   3.250
87656SOL    HW264802  11.785   7.158   3.361
87657SOL     OW64803  12.342   9.883  12.463
87657SOL    HW164804  12.281   9.917  12.398
87657SOL    HW264805  12.373   9.960  12.510
87658SOL     OW64806   1.616  10.601   4.527
87658SOL    HW164807   1.696  10.654   4.527
87658SOL    HW264808   1.644  10.514   4.556
87659SOL     OW64809   1.377  13.991  10.053
87659SOL    HW164810   1.354  14.044   9.976
87659SOL    HW264811   1.396  14.054  10.122
87660SOL     OW64812   9.804  12.354   6.092
87660SOL    HW164813   9.824  12.403   6.012
87660SOL    HW264814   9.780  12.421   6.156
87661SOL     OW64815  11.145   2.688   7.318
87661SOL    HW164816  11.064   2.640   7.300
87661SOL    HW264817  11.115   2.775   7.347
87662SOL     OW64818   7.158  14.268   3.579
87662SOL    HW164819   7.231  14.326   3.558
87662SOL    HW264820   7.158  14.202   3.509
87663SOL     OW64821   2.769   6.778  11.630
87663SOL    HW164822   2.752   6.832  11.708
87663SOL    HW264823   2.687   6.781  11.581
87664SOL     OW64824  11.985   4.445  12.321
87664SOL    HW164825  11.946   4.502  12.255
87664SOL    HW264826  11.914   4.429  12.383
87665SOL     OW64827  13.024  13.444   3.501
87665SOL    HW164828  13.116  13.452   3.527
87665SOL    HW264829  13.015  13.352   3.474
87666SOL     OW64830   7.942   3.552   1.758
87666SOL    HW164831   8.016   3.491   1.753
87666SOL    HW264832   7.877   3.515   1.698
87667SOL     OW64833   8.970   8.347   5.730
87667SOL    HW164834   9.017   8.289   5.789
87667SOL    HW264835   9.038   8.398   5.686
87668SOL     OW64836  12.877   8.535   1.080
87668SOL    HW164837  12.874   8.480   1.002
87668SOL    HW264838  12.838   8.618   1.053
87669SOL     OW64839   7.957  11.881  13.371
87669SOL    HW164840   8.008  11.928  13.437
87669SOL    HW264841   7.885  11.940  13.350
87670SOL     OW64842  11.393  13.096   0.442
87670SOL    HW164843  11.477  13.052   0.425
87670SOL    HW264844  11.329  13.025   0.443
87671SOL     OW64845   8.699   7.549  12.782
87671SOL    HW164846   8.744   7.602  12.717
87671SOL    HW264847   8.744   7.464  12.779
87672SOL     OW64848   2.511  13.514   6.010
87672SOL    HW164849   2.556  13.548   6.087
87672SOL    HW264850   2.527  13.419   6.013
87673SOL     OW64851  11.798   0.201   5.797
87673SOL    HW164852  11.799   0.236   5.886
87673SOL    HW264853  11.858   0.126   5.800
87674SOL     OW64854  14.649   4.056   4.529
87674SOL    HW164855  14.620   4.091   4.613
87674SOL    HW264856  14.680   4.133   4.480
87675SOL     OW64857   5.999   7.917   1.473
87675SOL    HW164858   5.972   8.006   1.451
87675SOL    HW264859   5.963   7.863   1.403
87676SOL     OW64860  10.979   1.442   7.969
87676SOL    HW164861  10.905   1.441   8.030
87676SOL    HW264862  11.015   1.353   7.975
87677SOL     OW64863   8.421   1.696   4.014
87677SOL    HW164864   8.394   1.743   3.935
87677SOL    HW264865   8.345   1.642   4.036
87678SOL     OW64866  12.463  11.136   2.632
87678SOL    HW164867  12.479  11.141   2.538
87678SOL    HW264868  12.530  11.076   2.664
87679SOL     OW64869  12.265  12.492   2.832
87679SOL    HW164870  12.178  12.475   2.797
87679SOL    HW264871  12.325  12.464   2.762
87680SOL     OW64872   0.424   8.465   5.191
87680SOL    HW164873   0.497   8.453   5.251
87680SOL    HW264874   0.409   8.378   5.154
87681SOL     OW64875   4.366   9.642  14.380
87681SOL    HW164876   4.379   9.617  14.289
87681SOL    HW264877   4.348   9.736  14.377
87682SOL     OW64878  14.777   8.068  12.482
87682SOL    HW164879  14.858   8.114  12.507
87682SOL    HW264880  14.793   8.039  12.392
87683SOL     OW64881   2.725   7.900   2.746
87683SOL    HW164882   2.754   7.810   2.754
87683SOL    HW264883   2.631   7.898   2.764
87684SOL     OW64884   1.435   3.019  13.047
87684SOL    HW164885   1.342   3.004  13.066
87684SOL    HW264886   1.477   2.936  13.069
87685SOL     OW64887  14.856   1.262   8.855
87685SOL    HW164888  14.781   1.297   8.807
87685SOL    HW264889  14.837   1.283   8.947
87686SOL     OW64890   0.415   8.585   8.236
87686SOL    HW164891   0.444   8.601   8.147
87686SOL    HW264892   0.428   8.669   8.281
87687SOL     OW64893   0.703   3.349   2.759
87687SOL    HW164894   0.628   3.380   2.811
87687SOL    HW264895   0.679   3.369   2.669
87688SOL     OW64896  12.271   9.331   3.329
87688SOL    HW164897  12.279   9.332   3.234
87688SOL    HW264898  12.340   9.271   3.359
87689SOL     OW64899   7.319   2.974  11.596
87689SOL    HW164900   7.268   3.031  11.653
87689SOL    HW264901   7.405   2.967  11.639
87690SOL     OW64902  11.132  11.132  11.691
87690SOL    HW164903  11.188  11.209  11.680
87690SOL    HW264904  11.046  11.168  11.713
87691SOL     OW64905   1.513  12.057   7.448
87691SOL    HW164906   1.427  12.022   7.423
87691SOL    HW264907   1.575  12.001   7.401
87692SOL     OW64908   3.835  11.574   0.457
87692SOL    HW164909   3.873  11.578   0.369
87692SOL    HW264910   3.765  11.509   0.450
87693SOL     OW64911  14.252   8.438   5.969
87693SOL    HW164912  14.225   8.454   6.060
87693SOL    HW264913  14.332   8.490   5.959
87694SOL     OW64914  14.443   7.786   2.431
87694SOL    HW164915  14.366   7.831   2.397
87694SOL    HW264916  14.475   7.733   2.358
87695SOL     OW64917  11.266   2.466  11.315
87695SOL    HW164918  11.293   2.399  11.252
87695SOL    HW264919  11.233   2.538  11.261
87696SOL     OW64920   0.086   5.601   6.806
87696SOL    HW164921   0.132   5.548   6.871
87696SOL    HW264922  14.871   5.564   6.802
87697SOL     OW64923   8.622   6.276  13.506
87697SOL    HW164924   8.669   6.357  13.526
87697SOL    HW264925   8.659   6.211  13.567
87698SOL     OW64926   2.904   6.265   7.755
87698SOL    HW164927   2.970   6.318   7.798
87698SOL    HW264928   2.921   6.175   7.784
87699SOL     OW64929  13.522   8.070   9.061
87699SOL    HW164930  13.471   8.110   8.991
87699SOL    HW264931  13.458   8.020   9.112
87700SOL     OW64932   0.621   1.396   2.191
87700SOL    HW164933   0.580   1.415   2.106
87700SOL    HW264934   0.709   1.366   2.169
87701SOL     OW64935   2.436   6.334  10.418
87701SOL    HW164936   2.351   6.378  10.415
87701SOL    HW264937   2.421   6.259  10.477
87702SOL     OW64938   2.955   8.671   6.231
87702SOL    HW164939   3.048   8.688   6.217
87702SOL    HW264940   2.911   8.723   6.163
87703SOL     OW64941   1.699  11.052   9.269
87703SOL    HW164942   1.626  11.114   9.271
87703SOL    HW264943   1.660  10.969   9.294
87704SOL     OW64944   6.421   2.010   9.573
87704SOL    HW164945   6.497   2.001   9.515
87704SOL    HW264946   6.429   2.097   9.611
87705SOL     OW64947  13.022  12.090   6.292
87705SOL    HW164948  13.012  11.995   6.294
87705SOL    HW264949  12.952  12.121   6.234
87706SOL     OW64950   1.520  14.719   5.543
87706SOL    HW164951   1.471  14.719   5.460
87706SOL    HW264952   1.598  14.667   5.524
87707SOL     OW64953   0.408   1.650  10.629
87707SOL    HW164954   0.471   1.696  10.573
87707SOL    HW264955   0.455   1.637  10.711
87708SOL     OW64956   5.600   2.437  10.579
87708SOL    HW164957   5.544   2.381  10.526
87708SOL    HW264958   5.679   2.385  10.593
87709SOL     OW64959   8.424   6.341   4.448
87709SOL    HW164960   8.377   6.289   4.513
87709SOL    HW264961   8.472   6.277   4.396
87710SOL     OW64962   3.714   4.357  14.806
87710SOL    HW164963   3.663   4.437  14.815
87710SOL    HW264964   3.671   4.310  14.734
87711SOL     OW64965   3.733   4.904   4.715
87711SOL    HW164966   3.813   4.957   4.711
87711SOL    HW264967   3.737   4.861   4.801
87712SOL     OW64968   3.862   4.961   5.978
87712SOL    HW164969   3.915   4.994   5.906
87712SOL    HW264970   3.913   4.979   6.057
87713SOL     OW64971   4.026   3.579   4.858
87713SOL    HW164972   4.094   3.531   4.811
87713SOL    HW264973   3.977   3.625   4.790
87714SOL     OW64974   0.642   5.406   1.646
87714SOL    HW164975   0.668   5.390   1.737
87714SOL    HW264976   0.708   5.361   1.594
87715SOL     OW64977  10.932   3.942  12.992
87715SOL    HW164978  10.846   3.923  13.031
87715SOL    HW264979  10.989   3.958  13.067
87716SOL     OW64980  11.921   8.076   0.776
87716SOL    HW164981  11.861   8.151   0.779
87716SOL    HW264982  12.008   8.114   0.776
87717SOL     OW64983   6.140   6.190   1.997
87717SOL    HW164984   6.055   6.227   2.024
87717SOL    HW264985   6.197   6.205   2.073
87718SOL     OW64986  12.859  13.031  12.365
87718SOL    HW164987  12.823  13.104  12.315
87718SOL    HW264988  12.826  13.044  12.453
87719SOL     OW64989   4.401  14.160   1.045
87719SOL    HW164990   4.322  14.172   0.993
87719SOL    HW264991   4.381  14.085   1.102
87720SOL     OW64992  13.466   8.755  11.605
87720SOL    HW164993  13.527   8.685  11.581
87720SOL    HW264994  13.387   8.709  11.632
87721SOL     OW64995   7.366   0.429   7.093
87721SOL    HW164996   7.403   0.343   7.073
87721SOL    HW264997   7.413   0.490   7.035
87722SOL     OW64998   2.844   7.334  13.253
87722SOL    HW164999   2.820   7.404  13.193
87722SOL    HW265000   2.763   7.311  13.298
87723SOL     OW65001   6.933  14.415  12.549
87723SOL    HW165002   6.856  14.415  12.606
87723SOL    HW265003   6.980  14.495  12.573
87724SOL     OW65004   0.538   9.471  13.551
87724SOL    HW165005   0.463   9.473  13.612
87724SOL    HW265006   0.593   9.400  13.584
87725SOL     OW65007  10.917   6.087  14.345
87725SOL    HW165008  10.931   6.094  14.251
87725SOL    HW265009  11.005   6.082  14.382
87726SOL     OW65010  11.429   9.926  13.568
87726SOL    HW165011  11.411   9.908  13.476
87726SOL    HW265012  11.490   9.999  13.567
87727SOL     OW65013   9.684   5.466   6.824
87727SOL    HW165014   9.745   5.512   6.881
87727SOL    HW265015   9.604   5.519   6.826
87728SOL     OW65016  11.057   1.789  14.468
87728SOL    HW165017  10.999   1.856  14.503
87728SOL    HW265018  11.014   1.760  14.387
87729SOL     OW65019   3.315   0.021  11.949
87729SOL    HW165020   3.322   0.094  11.888
87729SOL    HW265021   3.233  14.851  11.926
87730SOL     OW65022   8.426   5.925   9.459
87730SOL    HW165023   8.357   5.979   9.423
87730SOL    HW265024   8.486   5.987   9.501
87731SOL     OW65025   6.282   1.941   3.751
87731SOL    HW165026   6.367   1.923   3.790
87731SOL    HW265027   6.267   1.868   3.690
87732SOL     OW65028  11.086  12.654   3.064
87732SOL    HW165029  11.069  12.660   2.970
87732SOL    HW265030  11.106  12.561   3.079
87733SOL     OW65031  11.550   5.260   3.388
87733SOL    HW165032  11.612   5.332   3.399
87733SOL    HW265033  11.504   5.255   3.472
87734SOL     OW65034   7.588   6.856  11.111
87734SOL    HW165035   7.522   6.787  11.119
87734SOL    HW265036   7.632   6.836  11.028
87735SOL     OW65037  11.977   1.168   4.047
87735SOL    HW165038  11.973   1.078   4.082
87735SOL    HW265039  12.034   1.161   3.970
87736SOL     OW65040  10.527   0.392   2.930
87736SOL    HW165041  10.480   0.345   2.860
87736SOL    HW265042  10.614   0.352   2.931
87737SOL     OW65043   2.691   2.698  10.708
87737SOL    HW165044   2.604   2.722  10.741
87737SOL    HW265045   2.695   2.603  10.720
87738SOL     OW65046   7.325  11.032   2.758
87738SOL    HW165047   7.371  11.050   2.840
87738SOL    HW265048   7.377  11.076   2.691
87739SOL     OW65049   7.448   3.033  12.404
87739SOL    HW165050   7.460   3.053  12.497
87739SOL    HW265051   7.461   2.939  12.398
87740SOL     OW65052   0.240  14.573   2.229
87740SOL    HW165053   0.309  14.539   2.286
87740SOL    HW265054   0.237  14.512   2.155
87741SOL     OW65055  12.630  10.481   0.215
87741SOL    HW165056  12.632  10.483   0.310
87741SOL    HW265057  12.544  10.444   0.194
87742SOL     OW65058   8.871  11.881   7.728
87742SOL    HW165059   8.893  11.968   7.762
87742SOL    HW265060   8.910  11.821   7.791
87743SOL     OW65061   5.629   4.125  12.707
87743SOL    HW165062   5.624   4.218  12.728
87743SOL    HW265063   5.557   4.111  12.645
87744SOL     OW65064  12.311   7.101   2.980
87744SOL    HW165065  12.224   7.098   3.021
87744SOL    HW265066  12.348   7.184   3.009
87745SOL     OW65067   1.760   1.630   7.203
87745SOL    HW165068   1.752   1.541   7.236
87745SOL    HW265069   1.710   1.683   7.264
87746SOL     OW65070   5.177   5.855   7.560
87746SOL    HW165071   5.192   5.935   7.509
87746SOL    HW265072   5.087   5.829   7.536
87747SOL     OW65073   6.610   8.347   0.704
87747SOL    HW165074   6.528   8.334   0.657
87747SOL    HW265075   6.678   8.313   0.645
87748SOL     OW65076   4.818  11.206  13.037
87748SOL    HW165077   4.749  11.261  13.001
87748SOL    HW265078   4.862  11.169  12.960
87749SOL     OW65079   7.838   1.438   9.951
87749SOL    HW165080   7.828   1.397   9.865
87749SOL    HW265081   7.930   1.427   9.972
87750SOL     OW65082  11.663   9.019   4.763
87750SOL    HW165083  11.660   8.931   4.799
87750SOL    HW265084  11.714   9.069   4.827
87751SOL     OW65085   0.097   1.034   3.365
87751SOL    HW165086   0.020   0.979   3.380
87751SOL    HW265087   0.167   0.992   3.417
87752SOL     OW65088   0.786   6.237  12.234
87752SOL    HW165089   0.792   6.223  12.329
87752SOL    HW265090   0.854   6.302  12.215
87753SOL     OW65091   1.154   2.895   9.236
87753SOL    HW165092   1.089   2.901   9.305
87753SOL    HW265093   1.124   2.822   9.180
87754SOL     OW65094   4.389  11.276   4.393
87754SOL    HW165095   4.410  11.363   4.427
87754SOL    HW265096   4.340  11.234   4.463
87755SOL     OW65097  12.298   0.173   3.456
87755SOL    HW165098  12.332   0.117   3.527
87755SOL    HW265099  12.307   0.262   3.490
87756SOL     OW65100  11.826   4.615   2.535
87756SOL    HW165101  11.836   4.587   2.625
87756SOL    HW265102  11.742   4.578   2.507
87757SOL     OW65103   6.650  14.227  10.952
87757SOL    HW165104   6.723  14.203  11.010
87757SOL    HW265105   6.652  14.322  10.949
87758SOL     OW65106   6.875   6.885   2.214
87758SOL    HW165107   6.935   6.959   2.221
87758SOL    HW265108   6.929   6.812   2.184
87759SOL     OW65109   2.189  11.910   4.876
87759SOL    HW165110   2.171  11.853   4.951
87759SOL    HW265111   2.281  11.936   4.887
87760SOL     OW65112   2.496   3.486  14.061
87760SOL    HW165113   2.548   3.528  13.992
87760SOL    HW265114   2.408   3.480  14.023
87761SOL     OW65115   4.402  13.969   4.615
87761SOL    HW165116   4.451  13.890   4.636
87761SOL    HW265117   4.406  13.975   4.519
87762SOL     OW65118   3.868  10.355  10.751
87762SOL    HW165119   3.865  10.386  10.841
87762SOL    HW265120   3.958  10.368  10.724
87763SOL     OW65121   6.217   1.185   0.110
87763SOL    HW165122   6.296   1.168   0.161
87763SOL    HW265123   6.147   1.189   0.175
87764SOL     OW65124   1.435  13.039   2.390
87764SOL    HW165125   1.356  12.998   2.426
87764SOL    HW265126   1.494  13.048   2.466
87765SOL     OW65127  10.144  13.959   3.746
87765SOL    HW165128  10.054  13.972   3.718
87765SOL    HW265129  10.137  13.899   3.821
87766SOL     OW65130   3.962   0.043   0.334
87766SOL    HW165131   3.890   0.083   0.383
87766SOL    HW265132   4.026   0.019   0.401
87767SOL     OW65133  11.913  10.584   3.637
87767SOL    HW165134  11.869  10.529   3.702
87767SOL    HW265135  11.901  10.673   3.669
87768SOL     OW65136  11.287   5.525   7.481
87768SOL    HW165137  11.323   5.552   7.397
87768SOL    HW265138  11.212   5.584   7.495
87769SOL     OW65139   1.002   3.265   7.423
87769SOL    HW165140   0.972   3.191   7.476
87769SOL    HW265141   0.928   3.286   7.366
87770SOL     OW65142   5.755   3.971  10.164
87770SOL    HW165143   5.669   3.977  10.123
87770SOL    HW265144   5.746   3.902  10.230
87771SOL     OW65145   8.645   8.334   5.230
87771SOL    HW165146   8.656   8.322   5.325
87771SOL    HW265147   8.551   8.338   5.217
87772SOL     OW65148   1.336   2.262  12.960
87772SOL    HW165149   1.398   2.282  12.890
87772SOL    HW265150   1.314   2.347  12.998
87773SOL     OW65151   7.648   2.747   2.811
87773SOL    HW165152   7.733   2.780   2.840
87773SOL    HW265153   7.586   2.816   2.837
87774SOL     OW65154   9.795  12.805   6.327
87774SOL    HW165155   9.716  12.855   6.348
87774SOL    HW265156   9.858  12.832   6.394
87775SOL     OW65157  10.665   7.835   5.406
87775SOL    HW165158  10.631   7.746   5.395
87775SOL    HW265159  10.696   7.860   5.319
87776SOL     OW65160   1.455   3.454   0.661
87776SOL    HW165161   1.471   3.360   0.648
87776SOL    HW265162   1.370   3.470   0.621
87777SOL     OW65163   5.256   7.206  14.520
87777SOL    HW165164   5.288   7.272  14.459
87777SOL    HW265165   5.331   7.148  14.534
87778SOL     OW65166   2.707  10.343  14.588
87778SOL    HW165167   2.708  10.433  14.621
87778SOL    HW265168   2.785  10.335  14.534
87779SOL     OW65169   3.036  11.867   0.783
87779SOL    HW165170   3.128  11.893   0.772
87779SOL    HW265171   3.040  11.772   0.794
87780SOL     OW65172   3.501   7.753   2.855
87780SOL    HW165173   3.510   7.716   2.768
87780SOL    HW265174   3.574   7.814   2.863
87781SOL     OW65175  10.826   8.215  10.642
87781SOL    HW165176  10.915   8.251  10.633
87781SOL    HW265177  10.785   8.270  10.708
87782SOL     OW65178   6.049  14.129  14.157
87782SOL    HW165179   6.077  14.219  14.140
87782SOL    HW265180   6.111  14.074  14.108
87783SOL     OW65181   3.859   3.314  10.310
87783SOL    HW165182   3.858   3.251  10.238
87783SOL    HW265183   3.854   3.261  10.389
87784SOL     OW65184   2.151   3.947  14.550
87784SOL    HW165185   2.056   3.948  14.545
87784SOL    HW265186   2.180   3.971  14.462
87785SOL     OW65187   6.013  12.063  13.736
87785SOL    HW165188   5.981  12.132  13.679
87785SOL    HW265189   6.100  12.094  13.764
87786SOL     OW65190   4.410   5.708   7.954
87786SOL    HW165191   4.344   5.737   7.891
87786SOL    HW265192   4.417   5.780   8.016
87787SOL     OW65193  12.935   9.925  14.119
87787SOL    HW165194  12.857   9.952  14.070
87787SOL    HW265195  12.945   9.991  14.187
87788SOL     OW65196  11.496   5.854   7.984
87788SOL    HW165197  11.408   5.845   8.022
87788SOL    HW265198  11.480   5.888   7.896
87789SOL     OW65199  13.781  10.945   3.717
87789SOL    HW165200  13.799  10.932   3.624
87789SOL    HW265201  13.724  11.022   3.720
87790SOL     OW65202   5.720   7.789  12.080
87790SOL    HW165203   5.735   7.837  12.161
87790SOL    HW265204   5.805   7.786  12.037
87791SOL     OW65205  12.053  13.930  12.401
87791SOL    HW165206  12.055  13.863  12.333
87791SOL    HW265207  12.074  14.011  12.355
87792SOL     OW65208   0.381   0.859  10.893
87792SOL    HW165209   0.402   0.832  10.982
87792SOL    HW265210   0.449   0.922  10.870
87793SOL     OW65211  14.336   7.779   3.177
87793SOL    HW165212  14.334   7.874   3.167
87793SOL    HW265213  14.245   7.752   3.165
87794SOL     OW65214   1.363   2.736   5.274
87794SOL    HW165215   1.361   2.723   5.179
87794SOL    HW265216   1.273   2.757   5.297
87795SOL     OW65217  12.105  13.278  13.149
87795SOL    HW165218  12.112  13.313  13.060
87795SOL    HW265219  12.164  13.332  13.201
87796SOL     OW65220  10.981   7.516  12.997
87796SOL    HW165221  11.066   7.490  12.963
87796SOL    HW265222  10.928   7.534  12.919
87797SOL     OW65223   3.018   4.023  13.940
87797SOL    HW165224   3.087   4.087  13.959
87797SOL    HW265225   3.021   4.013  13.845
87798SOL     OW65226  14.510   8.452   1.894
87798SOL    HW165227  14.534   8.460   1.987
87798SOL    HW265228  14.523   8.540   1.858
87799SOL     OW65229  14.814  10.192  10.856
87799SOL    HW165230  14.825  10.108  10.811
87799SOL    HW265231  14.802  10.169  10.948
87800SOL     OW65232   5.649   3.035   7.045
87800SOL    HW165233   5.737   3.049   7.010
87800SOL    HW265234   5.593   3.029   6.968
87801SOL     OW65235  13.443   7.195   8.553
87801SOL    HW165236  13.362   7.145   8.560
87801SOL    HW265237  13.489   7.157   8.478
87802SOL     OW65238   9.043   7.424  12.641
87802SOL    HW165239   8.997   7.478  12.705
87802SOL    HW265240   9.093   7.485  12.588
87803SOL     OW65241   9.624   3.037   6.500
87803SOL    HW165242   9.530   3.040   6.515
87803SOL    HW265243   9.636   2.968   6.435
87804SOL     OW65244  13.327  10.310   2.744
87804SOL    HW165245  13.292  10.244   2.803
87804SOL    HW265246  13.268  10.385   2.755
87805SOL     OW65247   9.281   5.449   5.545
87805SOL    HW165248   9.187   5.436   5.553
87805SOL    HW265249   9.307   5.492   5.627
87806SOL     OW65250  11.216  10.136   9.242
87806SOL    HW165251  11.156  10.111   9.313
87806SOL    HW265252  11.161  10.143   9.165
87807SOL     OW65253  13.123   1.447  12.486
87807SOL    HW165254  13.202   1.498  12.468
87807SOL    HW265255  13.133   1.419  12.577
87808SOL     OW65256  11.101  14.091   1.971
87808SOL    HW165257  11.123  14.036   2.046
87808SOL    HW265258  11.185  14.126   1.941
87809SOL     OW65259   0.498   8.572   5.464
87809SOL    HW165260   0.573   8.520   5.437
87809SOL    HW265261   0.429   8.508   5.481
87810SOL     OW65262  12.643  12.263  14.872
87810SOL    HW165263  12.634  12.210   0.078
87810SOL    HW265264  12.708  12.329   0.022
87811SOL     OW65265   9.738   6.128   5.175
87811SOL    HW165266   9.668   6.122   5.110
87811SOL    HW265267   9.798   6.056   5.153
87812SOL     OW65268  10.010  11.839  13.316
87812SOL    HW165269  10.086  11.818  13.370
87812SOL    HW265270   9.976  11.754  13.288
87813SOL     OW65271   6.720   0.488   6.152
87813SOL    HW165272   6.751   0.425   6.218
87813SOL    HW265273   6.673   0.554   6.202
87814SOL     OW65274  10.699   4.307   9.953
87814SOL    HW165275  10.716   4.238  10.018
87814SOL    HW265276  10.682   4.385  10.005
87815SOL     OW65277   2.726   0.010   0.015
87815SOL    HW165278   2.661  14.814   0.025
87815SOL    HW265279   2.690   0.085   0.062
87816SOL     OW65280   9.125   0.002   5.247
87816SOL    HW165281   9.063   0.066   5.211
87816SOL    HW265282   9.073  14.826   5.311
87817SOL     OW65283  10.634   7.386  13.458
87817SOL    HW165284  10.677   7.342  13.531
87817SOL    HW265285  10.705   7.413  13.400
87818SOL     OW65286   1.073   0.279  10.242
87818SOL    HW165287   1.130   0.267  10.166
87818SOL    HW265288   1.030   0.194  10.253
87819SOL     OW65289   0.545  11.420   5.952
87819SOL    HW165290   0.489  11.355   5.911
87819SOL    HW265291   0.570  11.381   6.036
87820SOL     OW65292   2.916  11.199  13.964
87820SOL    HW165293   2.964  11.182  14.045
87820SOL    HW265294   2.832  11.234  13.994
87821SOL     OW65295   2.159   5.656   9.691
87821SOL    HW165296   2.215   5.632   9.765
87821SOL    HW265297   2.076   5.611   9.708
87822SOL     OW65298   6.948   8.155   7.538
87822SOL    HW165299   6.908   8.074   7.569
87822SOL    HW265300   7.037   8.152   7.572
87823SOL     OW65301  11.226   1.483   2.291
87823SOL    HW165302  11.221   1.576   2.312
87823SOL    HW265303  11.156   1.468   2.228
87824SOL     OW65304   1.160   2.915  11.473
87824SOL    HW165305   1.092   2.980  11.454
87824SOL    HW265306   1.240   2.967  11.486
87825SOL     OW65307   9.628   0.355   9.936
87825SOL    HW165308   9.537   0.336   9.958
87825SOL    HW265309   9.640   0.446   9.962
87826SOL     OW65310   1.419   8.006  12.088
87826SOL    HW165311   1.496   8.048  12.048
87826SOL    HW265312   1.382   8.074  12.145
87827SOL     OW65313   4.375   4.468   1.893
87827SOL    HW165314   4.415   4.430   1.815
87827SOL    HW265315   4.399   4.409   1.964
87828SOL     OW65316   5.253   2.401   6.771
87828SOL    HW165317   5.344   2.429   6.776
87828SOL    HW265318   5.257   2.311   6.740
87829SOL     OW65319  12.884   8.562   8.258
87829SOL    HW165320  12.908   8.645   8.299
87829SOL    HW265321  12.949   8.499   8.291
87830SOL     OW65322  10.466   3.234   6.756
87830SOL    HW165323  10.519   3.264   6.682
87830SOL    HW265324  10.523   3.173   6.802
87831SOL     OW65325   0.392   8.138  14.434
87831SOL    HW165326   0.469   8.129  14.378
87831SOL    HW265327   0.426   8.169  14.518
87832SOL     OW65328   7.307   8.057   4.651
87832SOL    HW165329   7.352   7.983   4.608
87832SOL    HW265330   7.293   8.027   4.741
87833SOL     OW65331   9.084   7.543   3.801
87833SOL    HW165332   9.165   7.502   3.773
87833SOL    HW265333   9.050   7.587   3.723
87834SOL     OW65334   6.494  12.279   4.520
87834SOL    HW165335   6.409  12.250   4.486
87834SOL    HW265336   6.534  12.327   4.447
87835SOL     OW65337   5.894   4.977   4.346
87835SOL    HW165338   5.841   5.046   4.306
87835SOL    HW265339   5.836   4.901   4.348
87836SOL     OW65340   3.846   3.058  10.147
87836SOL    HW165341   3.828   2.992  10.215
87836SOL    HW265342   3.924   3.025  10.102
87837SOL     OW65343   6.609   0.365  10.347
87837SOL    HW165344   6.515   0.353  10.338
87837SOL    HW265345   6.648   0.284  10.314
87838SOL     OW65346  12.937  13.022   8.095
87838SOL    HW165347  12.937  12.950   8.032
87838SOL    HW265348  13.008  13.080   8.065
87839SOL     OW65349   1.380  13.466   4.537
87839SOL    HW165350   1.321  13.541   4.531
87839SOL    HW265351   1.359  13.425   4.621
87840SOL     OW65352   0.993   1.352   8.359
87840SOL    HW165353   0.946   1.435   8.354
87840SOL    HW265354   1.068   1.363   8.300
87841SOL     OW65355   1.306  13.248   5.275
87841SOL    HW165356   1.315  13.170   5.330
87841SOL    HW265357   1.342  13.319   5.327
87842SOL     OW65358   0.427   0.015  11.382
87842SOL    HW165359   0.344   0.011  11.428
87842SOL    HW265360   0.404   0.021  11.289
87843SOL     OW65361  13.492  11.027   6.284
87843SOL    HW165362  13.467  10.961   6.349
87843SOL    HW265363  13.409  11.061   6.251
87844SOL     OW65364   3.045  13.363   9.974
87844SOL    HW165365   3.076  13.302   9.906
87844SOL    HW265366   3.122  13.415   9.995
87845SOL     OW65367   5.973   5.949  10.793
87845SOL    HW165368   6.005   5.917  10.877
87845SOL    HW265369   6.038   5.920  10.729
87846SOL     OW65370  10.306  10.627  10.226
87846SOL    HW165371  10.222  10.582  10.228
87846SOL    HW265372  10.311  10.671  10.311
87847SOL     OW65373   6.474  11.143   3.009
87847SOL    HW165374   6.432  11.202   2.947
87847SOL    HW265375   6.551  11.191   3.040
87848SOL     OW65376   3.906   0.796   7.017
87848SOL    HW165377   3.990   0.793   7.063
87848SOL    HW265378   3.913   0.728   6.949
87849SOL     OW65379   7.487   1.594   6.195
87849SOL    HW165380   7.505   1.513   6.148
87849SOL    HW265381   7.416   1.635   6.145
87850SOL     OW65382   9.889   1.743   0.674
87850SOL    HW165383   9.958   1.678   0.688
87850SOL    HW265384   9.821   1.696   0.626
87851SOL     OW65385   6.243  13.610   1.369
87851SOL    HW165386   6.229  13.687   1.425
87851SOL    HW265387   6.193  13.629   1.290
87852SOL     OW65388   8.229  12.678   1.383
87852SOL    HW165389   8.291  12.638   1.322
87852SOL    HW265390   8.143  12.658   1.345
87853SOL     OW65391   0.526   2.686   3.179
87853SOL    HW165392   0.617   2.657   3.170
87853SOL    HW265393   0.510   2.740   3.102
87854SOL     OW65394   9.721   4.458   9.404
87854SOL    HW165395   9.637   4.463   9.357
87854SOL    HW265396   9.729   4.542   9.447
87855SOL     OW65397   4.625   4.930   4.532
87855SOL    HW165398   4.575   4.850   4.517
87855SOL    HW265399   4.576   4.997   4.484
87856SOL     OW65400   6.910   1.066   0.289
87856SOL    HW165401   6.896   0.993   0.349
87856SOL    HW265402   6.953   1.133   0.342
87857SOL     OW65403   6.217   3.285   4.088
87857SOL    HW165404   6.177   3.288   4.001
87857SOL    HW265405   6.162   3.224   4.137
87858SOL     OW65406   8.040   1.552   2.439
87858SOL    HW165407   8.001   1.466   2.453
87858SOL    HW265408   8.131   1.534   2.417
87859SOL     OW65409   2.006   3.119   0.280
87859SOL    HW165410   2.021   3.036   0.326
87859SOL    HW265411   1.928   3.102   0.227
87860SOL     OW65412   4.670   1.423  12.972
87860SOL    HW165413   4.757   1.389  12.996
87860SOL    HW265414   4.610   1.382  13.035
87861SOL     OW65415   4.745   9.076   1.970
87861SOL    HW165416   4.652   9.052   1.974
87861SOL    HW265417   4.791   8.993   1.956
87862SOL     OW65418   6.435   7.169   6.128
87862SOL    HW165419   6.464   7.078   6.134
87862SOL    HW265420   6.340   7.163   6.118
87863SOL     OW65421   1.420   7.742  12.994
87863SOL    HW165422   1.491   7.796  13.027
87863SOL    HW265423   1.463   7.662  12.963
87864SOL     OW65424  11.052   5.451   3.773
87864SOL    HW165425  10.990   5.471   3.843
87864SOL    HW265426  11.010   5.483   3.693
87865SOL     OW65427   9.997   6.565   4.779
87865SOL    HW165428   9.969   6.520   4.700
87865SOL    HW265429  10.061   6.506   4.819
87866SOL     OW65430  10.965  13.777   7.595
87866SOL    HW165431  10.949  13.753   7.504
87866SOL    HW265432  11.037  13.840   7.591
87867SOL     OW65433   8.663  12.616   6.690
87867SOL    HW165434   8.737  12.658   6.646
87867SOL    HW265435   8.638  12.678   6.759
87868SOL     OW65436  11.952   0.050   4.714
87868SOL    HW165437  12.009   0.121   4.740
87868SOL    HW265438  11.988   0.019   4.631
87869SOL     OW65439   2.995   3.266   8.704
87869SOL    HW165440   2.916   3.291   8.753
87869SOL    HW265441   3.051   3.222   8.768
87870SOL     OW65442  10.672   9.980  13.376
87870SOL    HW165443  10.729  10.013  13.446
87870SOL    HW265444  10.714  10.008  13.295
87871SOL     OW65445   8.389  11.293   4.549
87871SOL    HW165446   8.385  11.355   4.477
87871SOL    HW265447   8.387  11.347   4.628
87872SOL     OW65448  10.911   7.052   3.375
87872SOL    HW165449  10.944   7.039   3.463
87872SOL    HW265450  10.936   7.142   3.352
87873SOL     OW65451  14.738  11.512   7.509
87873SOL    HW165452  14.810  11.468   7.555
87873SOL    HW265453  14.659  11.487   7.556
87874SOL     OW65454   2.483  11.675   8.928
87874SOL    HW165455   2.413  11.687   8.864
87874SOL    HW265456   2.445  11.703   9.011
87875SOL     OW65457  13.911   6.616   5.262
87875SOL    HW165458  13.870   6.639   5.345
87875SOL    HW265459  13.983   6.678   5.253
87876SOL     OW65460   2.538   6.261   3.964
87876SOL    HW165461   2.541   6.254   3.868
87876SOL    HW265462   2.623   6.299   3.988
87877SOL     OW65463   7.116   0.423  12.914
87877SOL    HW165464   7.054   0.352  12.896
87877SOL    HW265465   7.097   0.449  13.004
87878SOL     OW65466   3.179   0.088   4.534
87878SOL    HW165467   3.206   0.049   4.451
87878SOL    HW265468   3.117   0.157   4.509
87879SOL     OW65469   9.679  14.531   0.914
87879SOL    HW165470   9.709  14.525   1.004
87879SOL    HW265471   9.754  14.502   0.862
87880SOL     OW65472   7.456   7.407   9.867
87880SOL    HW165473   7.380   7.417   9.810
87880SOL    HW265474   7.456   7.486   9.922
87881SOL     OW65475   0.337  11.706   8.949
87881SOL    HW165476   0.244  11.690   8.935
87881SOL    HW265477   0.340  11.778   9.012
87882SOL     OW65478  12.881   0.119   5.647
87882SOL    HW165479  12.897   0.183   5.716
87882SOL    HW265480  12.875   0.171   5.566
87883SOL     OW65481  11.197   7.642   4.539
87883SOL    HW165482  11.268   7.588   4.571
87883SOL    HW265483  11.233   7.731   4.538
87884SOL     OW65484  10.042   3.566  12.392
87884SOL    HW165485  10.129   3.565  12.432
87884SOL    HW265486  10.033   3.480  12.351
87885SOL     OW65487  13.084   0.263   6.918
87885SOL    HW165488  13.155   0.229   6.972
87885SOL    HW265489  13.011   0.204   6.935
87886SOL     OW65490   2.996   2.587   0.232
87886SOL    HW165491   2.970   2.640   0.308
87886SOL    HW265492   2.938   2.616   0.162
87887SOL     OW65493  11.388   8.486  10.297
87887SOL    HW165494  11.312   8.460  10.245
87887SOL    HW265495  11.371   8.452  10.385
87888SOL     OW65496  14.253   7.419  14.775
87888SOL    HW165497  14.341   7.382  14.782
87888SOL    HW265498  14.240   7.435  14.682
87889SOL     OW65499   2.602   1.129  13.683
87889SOL    HW165500   2.657   1.100  13.755
87889SOL    HW265501   2.627   1.220  13.668
87890SOL     OW65502   2.050   3.891   1.262
87890SOL    HW165503   2.058   3.882   1.357
87890SOL    HW265504   2.124   3.945   1.236
87891SOL     OW65505  13.505  12.463   4.590
87891SOL    HW165506  13.587  12.413   4.592
87891SOL    HW265507  13.445  12.410   4.538
87892SOL     OW65508   7.572  11.885   6.106
87892SOL    HW165509   7.583  11.963   6.162
87892SOL    HW265510   7.504  11.910   6.043
87893SOL     OW65511   5.826   0.572   8.907
87893SOL    HW165512   5.851   0.501   8.967
87893SOL    HW265513   5.836   0.533   8.820
87894SOL     OW65514   9.321   7.198   5.724
87894SOL    HW165515   9.290   7.232   5.808
87894SOL    HW265516   9.241   7.189   5.671
87895SOL     OW65517   6.465  12.714  11.918
87895SOL    HW165518   6.556  12.686  11.924
87895SOL    HW265519   6.419  12.660  11.982
87896SOL     OW65520   1.612  10.322   7.249
87896SOL    HW165521   1.598  10.333   7.343
87896SOL    HW265522   1.529  10.350   7.210
87897SOL     OW65523   6.912   2.730   4.157
87897SOL    HW165524   6.945   2.819   4.164
87897SOL    HW265525   6.879   2.709   4.245
87898SOL     OW65526   8.709   4.248   3.328
87898SOL    HW165527   8.769   4.235   3.254
87898SOL    HW265528   8.713   4.166   3.378
87899SOL     OW65529   4.988   3.498   6.873
87899SOL    HW165530   4.908   3.530   6.915
87899SOL    HW265531   4.985   3.534   6.784
87900SOL     OW65532   9.938  13.255   0.945
87900SOL    HW165533   9.940  13.199   1.023
87900SOL    HW265534   9.854  13.300   0.950
87901SOL     OW65535   3.033   6.944   7.797
87901SOL    HW165536   3.008   6.893   7.874
87901SOL    HW265537   3.056   6.878   7.731
87902SOL     OW65538   3.490   0.625   8.916
87902SOL    HW165539   3.511   0.606   9.007
87902SOL    HW265540   3.434   0.552   8.889
87903SOL     OW65541   0.014   3.047   6.010
87903SOL    HW165542   0.027   3.099   5.931
87903SOL    HW265543   0.023   2.956   5.980
87904SOL     OW65544   0.265  13.066   2.670
87904SOL    HW165545   0.280  13.071   2.575
87904SOL    HW265546   0.236  12.976   2.684
87905SOL     OW65547   0.773  10.666   5.055
87905SOL    HW165548   0.856  10.702   5.085
87905SOL    HW265549   0.799  10.599   4.992
87906SOL     OW65550   0.207   8.058   1.032
87906SOL    HW165551   0.206   7.973   1.077
87906SOL    HW265552   0.292   8.096   1.055
87907SOL     OW65553   1.327   8.236   6.755
87907SOL    HW165554   1.311   8.257   6.847
87907SOL    HW265555   1.373   8.152   6.757
87908SOL     OW65556   8.224   3.072  14.642
87908SOL    HW165557   8.178   3.039  14.565
87908SOL    HW265558   8.204   3.165  14.644
87909SOL     OW65559  11.743   5.139   0.870
87909SOL    HW165560  11.772   5.221   0.909
87909SOL    HW265561  11.809   5.118   0.804
87910SOL     OW65562  11.906   5.371   8.679
87910SOL    HW165563  11.916   5.276   8.671
87910SOL    HW265564  11.995   5.403   8.694
87911SOL     OW65565  13.794   6.781   0.833
87911SOL    HW165566  13.738   6.829   0.773
87911SOL    HW265567  13.872   6.759   0.781
87912SOL     OW65568  10.388   3.637   5.894
87912SOL    HW165569  10.427   3.705   5.949
87912SOL    HW265570  10.337   3.583   5.956
87913SOL     OW65571   7.225   1.419   5.724
87913SOL    HW165572   7.140   1.422   5.769
87913SOL    HW265573   7.226   1.334   5.680
87914SOL     OW65574   3.849   7.221   4.372
87914SOL    HW165575   3.788   7.162   4.417
87914SOL    HW265576   3.793   7.290   4.336
87915SOL     OW65577  10.970   6.093   0.576
87915SOL    HW165578  10.980   6.179   0.618
87915SOL    HW265579  11.058   6.071   0.546
87916SOL     OW65580  13.048  14.383   6.061
87916SOL    HW165581  12.978  14.448   6.068
87916SOL    HW265582  13.090  14.402   5.977
87917SOL     OW65583   8.087  12.168   6.926
87917SOL    HW165584   8.092  12.262   6.945
87917SOL    HW265585   7.999  12.142   6.953
87918SOL     OW65586   9.004   3.678   6.216
87918SOL    HW165587   9.064   3.694   6.289
87918SOL    HW265588   9.059   3.688   6.138
87919SOL     OW65589  14.794   2.813   6.940
87919SOL    HW165590  14.759   2.902   6.946
87919SOL    HW265591  14.848   2.803   7.018
87920SOL     OW65592   1.127   4.413   1.913
87920SOL    HW165593   1.080   4.400   1.831
87920SOL    HW265594   1.130   4.508   1.924
87921SOL     OW65595   1.585   3.416  12.360
87921SOL    HW165596   1.491   3.402  12.352
87921SOL    HW265597   1.597   3.508  12.339
87922SOL     OW65598  12.357   5.242   8.719
87922SOL    HW165599  12.303   5.164   8.705
87922SOL    HW265600  12.353   5.257   8.813
87923SOL     OW65601  11.769   0.757   7.003
87923SOL    HW165602  11.793   0.715   7.086
87923SOL    HW265603  11.762   0.850   7.025
87924SOL     OW65604  12.146   1.479   2.932
87924SOL    HW165605  12.204   1.539   2.886
87924SOL    HW265606  12.145   1.400   2.878
87925SOL     OW65607   6.311   9.713   9.855
87925SOL    HW165608   6.309   9.636   9.912
87925SOL    HW265609   6.220   9.741   9.848
87926SOL     OW65610   8.248   2.607  13.125
87926SOL    HW165611   8.301   2.685  13.113
87926SOL    HW265612   8.245   2.566  13.039
87927SOL     OW65613   3.692   4.261   7.772
87927SOL    HW165614   3.732   4.186   7.729
87927SOL    HW265615   3.764   4.323   7.785
87928SOL     OW65616   2.778   0.361   0.696
87928SOL    HW165617   2.743   0.294   0.637
87928SOL    HW265618   2.748   0.444   0.658
87929SOL     OW65619  10.917  14.725  13.738
87929SOL    HW165620  10.977  14.727  13.664
87929SOL    HW265621  10.882  14.636  13.739
87930SOL     OW65622   8.735  11.598  13.739
87930SOL    HW165623   8.716  11.635  13.653
87930SOL    HW265624   8.659  11.624  13.793
87931SOL     OW65625  13.948  11.933   9.688
87931SOL    HW165626  14.028  11.919   9.738
87931SOL    HW265627  13.955  12.023   9.656
87932SOL     OW65628  11.378   4.858  11.632
87932SOL    HW165629  11.355   4.845  11.724
87932SOL    HW265630  11.305   4.820  11.583
87933SOL     OW65631   0.790   0.667   2.856
87933SOL    HW165632   0.878   0.642   2.829
87933SOL    HW265633   0.803   0.741   2.916
87934SOL     OW65634   2.233   8.187   7.489
87934SOL    HW165635   2.170   8.118   7.509
87934SOL    HW265636   2.298   8.181   7.559
87935SOL     OW65637   8.823   8.440   8.661
87935SOL    HW165638   8.900   8.485   8.627
87935SOL    HW265639   8.849   8.408   8.748
87936SOL     OW65640   9.818  12.806   8.785
87936SOL    HW165641   9.855  12.823   8.872
87936SOL    HW265642   9.725  12.793   8.801
87937SOL     OW65643   4.357  12.823   4.707
87937SOL    HW165644   4.280  12.868   4.741
87937SOL    HW265645   4.360  12.846   4.615
87938SOL     OW65646   0.842  14.173  10.035
87938SOL    HW165647   0.772  14.108  10.041
87938SOL    HW265648   0.864  14.193  10.126
87939SOL     OW65649   6.306   6.856   6.831
87939SOL    HW165650   6.243   6.798   6.876
87939SOL    HW265651   6.257   6.890   6.756
87940SOL     OW65652   1.346   3.648  14.774
87940SOL    HW165653   1.427   3.660  14.825
87940SOL    HW265654   1.376   3.620  14.688
87941SOL     OW65655  10.558   3.009   2.534
87941SOL    HW165656  10.493   2.947   2.565
87941SOL    HW265657  10.640   2.979   2.573
87942SOL     OW65658   0.456   2.264  13.624
87942SOL    HW165659   0.418   2.231  13.543
87942SOL    HW265660   0.399   2.337  13.649
87943SOL     OW65661   1.727  11.219  10.987
87943SOL    HW165662   1.799  11.156  10.993
87943SOL    HW265663   1.754  11.279  10.917
87944SOL     OW65664   3.532   9.836   4.776
87944SOL    HW165665   3.529   9.926   4.745
87944SOL    HW265666   3.561   9.842   4.867
87945SOL     OW65667   1.596  13.567   3.751
87945SOL    HW165668   1.588  13.612   3.667
87945SOL    HW265669   1.668  13.505   3.738
87946SOL     OW65670   3.972   2.711   4.407
87946SOL    HW165671   3.949   2.755   4.489
87946SOL    HW265672   4.016   2.778   4.355
87947SOL     OW65673  14.560   3.917   6.879
87947SOL    HW165674  14.551   3.977   6.953
87947SOL    HW265675  14.484   3.935   6.824
87948SOL     OW65676   1.482   9.594  14.228
87948SOL    HW165677   1.464   9.602  14.322
87948SOL    HW265678   1.396   9.598  14.187
87949SOL     OW65679   9.679   7.628  10.009
87949SOL    HW165680   9.733   7.673   9.945
87949SOL    HW265681   9.629   7.564   9.958
87950SOL     OW65682  13.830  11.729  11.925
87950SOL    HW165683  13.838  11.638  11.895
87950SOL    HW265684  13.745  11.733  11.968
87951SOL     OW65685  12.387  11.818  11.221
87951SOL    HW165686  12.413  11.735  11.181
87951SOL    HW265687  12.410  11.884  11.156
87952SOL     OW65688   3.717   1.711  12.428
87952SOL    HW165689   3.723   1.621  12.396
87952SOL    HW265690   3.786   1.718  12.494
87953SOL     OW65691   1.418   3.526  13.238
87953SOL    HW165692   1.511   3.535  13.257
87953SOL    HW265693   1.393   3.610  13.198
87954SOL     OW65694   7.916   2.336   8.145
87954SOL    HW165695   7.837   2.363   8.190
87954SOL    HW265696   7.956   2.271   8.203
87955SOL     OW65697   9.699   4.656   4.599
87955SOL    HW165698   9.781   4.610   4.619
87955SOL    HW265699   9.634   4.587   4.587
87956SOL     OW65700  10.962   0.874   1.692
87956SOL    HW165701  11.014   0.844   1.766
87956SOL    HW265702  10.892   0.809   1.684
87957SOL     OW65703  10.328  11.158   4.565
87957SOL    HW165704  10.361  11.205   4.489
87957SOL    HW265705  10.406  11.127   4.610
87958SOL     OW65706   9.311  14.583   8.983
87958SOL    HW165707   9.372  14.513   8.958
87958SOL    HW265708   9.303  14.575   9.078
87959SOL     OW65709   0.059  13.148   6.263
87959SOL    HW165710   0.120  13.076   6.279
87959SOL    HW265711   0.068  13.206   6.338
87960SOL     OW65712   6.640   3.813   9.129
87960SOL    HW165713   6.720   3.792   9.177
87960SOL    HW265714   6.579   3.844   9.196
87961SOL     OW65715  14.115   0.616   5.737
87961SOL    HW165716  14.189   0.555   5.735
87961SOL    HW265717  14.123   0.660   5.822
87962SOL     OW65718   0.119   3.691   2.000
87962SOL    HW165719   0.066   3.688   1.920
87962SOL    HW265720   0.135   3.784   2.015
87963SOL     OW65721  13.942   9.434  11.106
87963SOL    HW165722  13.955   9.513  11.159
87963SOL    HW265723  14.029   9.393  11.102
87964SOL     OW65724   0.410   9.952   9.129
87964SOL    HW165725   0.355  10.030   9.139
87964SOL    HW265726   0.467   9.972   9.055
87965SOL     OW65727   0.000  14.628   0.362
87965SOL    HW165728  14.860  14.601   0.453
87965SOL    HW265729  14.816  14.570   0.311
87966SOL     OW65730   0.154  12.620  12.818
87966SOL    HW165731   0.210  12.557  12.864
87966SOL    HW265732   0.195  12.705  12.835
87967SOL     OW65733   7.019   7.400   4.208
87967SOL    HW165734   6.935   7.445   4.202
87967SOL    HW265735   7.083   7.470   4.221
87968SOL     OW65736  10.008  11.205   9.288
87968SOL    HW165737  10.044  11.292   9.306
87968SOL    HW265738   9.920  11.222   9.256
87969SOL     OW65739  10.818   5.947  14.743
87969SOL    HW165740  10.772   6.018  14.699
87969SOL    HW265741  10.755   5.913  14.807
87970SOL     OW65742  12.550   3.329  10.879
87970SOL    HW165743  12.480   3.288  10.828
87970SOL    HW265744  12.547   3.286  10.964
87971SOL     OW65745   9.103  11.426   2.309
87971SOL    HW165746   9.093  11.416   2.403
87971SOL    HW265747   9.188  11.469   2.298
87972SOL     OW65748   0.625  13.479   9.705
87972SOL    HW165749   0.621  13.539   9.779
87972SOL    HW265750   0.548  13.423   9.716
87973SOL     OW65751   4.574  13.957   7.932
87973SOL    HW165752   4.537  14.031   7.980
87973SOL    HW265753   4.616  13.904   8.000
87974SOL     OW65754   0.122  10.675   1.778
87974SOL    HW165755   0.113  10.627   1.861
87974SOL    HW265756   0.059  10.747   1.786
87975SOL     OW65757   7.199  11.210  14.246
87975SOL    HW165758   7.147  11.177  14.319
87975SOL    HW265759   7.156  11.175  14.168
87976SOL     OW65760   2.850   6.262   9.055
87976SOL    HW165761   2.909   6.230   9.124
87976SOL    HW265762   2.888   6.346   9.028
87977SOL     OW65763   2.508   4.605   6.663
87977SOL    HW165764   2.427   4.656   6.664
87977SOL    HW265765   2.561   4.646   6.594
87978SOL     OW65766   6.717   2.283   5.034
87978SOL    HW165767   6.649   2.230   4.992
87978SOL    HW265768   6.799   2.247   5.001
87979SOL     OW65769   3.814  14.092   2.580
87979SOL    HW165770   3.779  14.144   2.653
87979SOL    HW265771   3.863  14.022   2.621
87980SOL     OW65772   4.558   4.348   6.882
87980SOL    HW165773   4.608   4.338   6.801
87980SOL    HW265774   4.613   4.308   6.949
87981SOL     OW65775   5.794   6.014   6.967
87981SOL    HW165776   5.889   6.008   6.966
87981SOL    HW265777   5.775   6.087   7.027
87982SOL     OW65778  14.270  13.779  10.774
87982SOL    HW165779  14.244  13.716  10.707
87982SOL    HW265780  14.355  13.812  10.744
87983SOL     OW65781  13.958   7.518   1.590
87983SOL    HW165782  13.996   7.448   1.642
87983SOL    HW265783  14.032   7.576   1.569
87984SOL     OW65784   6.346   3.556   2.618
87984SOL    HW165785   6.258   3.567   2.581
87984SOL    HW265786   6.331   3.524   2.707
87985SOL     OW65787   1.947   7.458   7.646
87985SOL    HW165788   1.888   7.531   7.626
87985SOL    HW265789   2.012   7.495   7.706
87986SOL     OW65790  12.646  14.432  14.532
87986SOL    HW165791  12.652  14.474  14.446
87986SOL    HW265792  12.731  14.390  14.544
87987SOL     OW65793  14.047   6.809   6.015
87987SOL    HW165794  14.142   6.800   6.009
87987SOL    HW265795  14.024   6.766   6.098
87988SOL     OW65796  12.140  14.427   2.167
87988SOL    HW165797  12.201  14.420   2.241
87988SOL    HW265798  12.064  14.377   2.193
87989SOL     OW65799  14.260   3.464   6.644
87989SOL    HW165800  14.223   3.474   6.556
87989SOL    HW265801  14.187   3.433   6.697
87990SOL     OW65802   6.516   2.635   5.973
87990SOL    HW165803   6.479   2.566   6.029
87990SOL    HW265804   6.439   2.682   5.940
87991SOL     OW65805   8.339  11.881  12.759
87991SOL    HW165806   8.363  11.968  12.791
87991SOL    HW265807   8.244  11.884  12.750
87992SOL     OW65808   5.832   0.640  12.007
87992SOL    HW165809   5.867   0.706  12.067
87992SOL    HW265810   5.860   0.668  11.920
87993SOL     OW65811  10.286   0.105   2.267
87993SOL    HW165812  10.344   0.123   2.341
87993SOL    HW265813  10.339   0.050   2.209
87994SOL     OW65814   2.153   9.866   8.784
87994SOL    HW165815   2.060   9.883   8.795
87994SOL    HW265816   2.176   9.809   8.858
87995SOL     OW65817   6.897   3.039  11.834
87995SOL    HW165818   6.956   3.073  11.900
87995SOL    HW265819   6.951   3.028  11.756
87996SOL     OW65820  11.501   0.350  14.858
87996SOL    HW165821  11.467   0.399   0.061
87996SOL    HW265822  11.587   0.388  14.842
87997SOL     OW65823   8.083  14.455   3.107
87997SOL    HW165824   7.995  14.418   3.114
87997SOL    HW265825   8.104  14.449   3.013
87998SOL     OW65826  12.848   5.799  10.717
87998SOL    HW165827  12.772   5.856  10.702
87998SOL    HW265828  12.921   5.860  10.728
87999SOL     OW65829  11.931   9.231   9.136
87999SOL    HW165830  12.002   9.253   9.195
87999SOL    HW265831  11.937   9.136   9.124
88000SOL     OW65832   1.454   1.907   8.768
88000SOL    HW165833   1.394   1.972   8.806
88000SOL    HW265834   1.535   1.956   8.752
88001SOL     OW65835   1.359   0.918   3.785
88001SOL    HW165836   1.363   0.878   3.871
88001SOL    HW265837   1.407   0.858   3.728
88002SOL     OW65838   4.279   5.834   3.656
88002SOL    HW165839   4.212   5.806   3.593
88002SOL    HW265840   4.232   5.895   3.715
88003SOL     OW65841   1.406   7.200  13.127
88003SOL    HW165842   1.402   7.107  13.148
88003SOL    HW265843   1.392   7.205  13.033
88004SOL     OW65844   0.093   2.445   6.461
88004SOL    HW165845   0.143   2.526   6.465
88004SOL    HW265846   0.097   2.409   6.550
88005SOL     OW65847  11.068  11.337   1.912
88005SOL    HW165848  11.162  11.322   1.896
88005SOL    HW265849  11.025  11.300   1.835
88006SOL     OW65850   3.976  13.096   5.057
88006SOL    HW165851   3.922  13.175   5.048
88006SOL    HW265852   4.009  13.100   5.147
88007SOL     OW65853  14.292   3.112   1.455
88007SOL    HW165854  14.330   3.055   1.522
88007SOL    HW265855  14.314   3.069   1.372
88008SOL     OW65856   2.330   7.453   8.150
88008SOL    HW165857   2.328   7.373   8.098
88008SOL    HW265858   2.330   7.422   8.241
88009SOL     OW65859  10.529  11.945  11.761
88009SOL    HW165860  10.461  11.932  11.827
88009SOL    HW265861  10.526  11.864  11.709
88010SOL     OW65862  11.547   6.048   1.151
88010SOL    HW165863  11.629   6.038   1.199
88010SOL    HW265864  11.556   6.131   1.105
88011SOL     OW65865   4.853   1.550   3.066
88011SOL    HW165866   4.827   1.481   3.127
88011SOL    HW265867   4.898   1.503   2.995
88012SOL     OW65868  10.418   9.187   0.417
88012SOL    HW165869  10.383   9.111   0.371
88012SOL    HW265870  10.377   9.183   0.504
88013SOL     OW65871  11.590  14.575   2.009
88013SOL    HW165872  11.589  14.659   2.055
88013SOL    HW265873  11.503  14.539   2.023
88014SOL     OW65874  10.375   0.279   5.962
88014SOL    HW165875  10.414   0.322   6.038
88014SOL    HW265876  10.309   0.341   5.931
88015SOL     OW65877   0.603  14.400   7.822
88015SOL    HW165878   0.603  14.417   7.916
88015SOL    HW265879   0.622  14.306   7.815
88016SOL     OW65880  14.059  10.624   3.300
88016SOL    HW165881  14.124  10.692   3.288
88016SOL    HW265882  14.047  10.619   3.395
88017SOL     OW65883  10.434   2.887  10.875
88017SOL    HW165884  10.436   2.970  10.826
88017SOL    HW265885  10.423   2.820  10.808
88018SOL     OW65886   3.836   4.309   7.377
88018SOL    HW165887   3.836   4.392   7.423
88018SOL    HW265888   3.746   4.300   7.343
88019SOL     OW65889   2.799   9.695   0.788
88019SOL    HW165890   2.748   9.764   0.828
88019SOL    HW265891   2.764   9.614   0.826
88020SOL     OW65892   0.406  12.338   3.481
88020SOL    HW165893   0.365  12.276   3.421
88020SOL    HW265894   0.480  12.373   3.432
88021SOL     OW65895   3.760  10.726   4.489
88021SOL    HW165896   3.802  10.809   4.467
88021SOL    HW265897   3.761  10.723   4.585
88022SOL     OW65898  11.415   4.080   2.693
88022SOL    HW165899  11.322   4.102   2.701
88022SOL    HW265900  11.461   4.162   2.710
88023SOL     OW65901  13.219  10.727   8.701
88023SOL    HW165902  13.186  10.658   8.644
88023SOL    HW265903  13.298  10.689   8.741
88024SOL     OW65904   7.651   7.735  14.486
88024SOL    HW165905   7.588   7.743  14.557
88024SOL    HW265906   7.600   7.749  14.406
88025SOL     OW65907   1.884   5.795   1.711
88025SOL    HW165908   1.879   5.792   1.807
88025SOL    HW265909   1.935   5.718   1.687
88026SOL     OW65910  11.495   6.509   7.496
88026SOL    HW165911  11.463   6.426   7.460
88026SOL    HW265912  11.440   6.576   7.455
88027SOL     OW65913   2.839   5.699   3.253
88027SOL    HW165914   2.877   5.624   3.300
88027SOL    HW265915   2.908   5.727   3.193
88028SOL     OW65916  14.337   8.281   6.706
88028SOL    HW165917  14.379   8.200   6.734
88028SOL    HW265918  14.326   8.332   6.786
88029SOL     OW65919   2.716   3.112  13.198
88029SOL    HW165920   2.731   3.019  13.183
88029SOL    HW265921   2.676   3.116  13.285
88030SOL     OW65922  13.760   6.395   1.084
88030SOL    HW165923  13.727   6.399   0.995
88030SOL    HW265924  13.688   6.356   1.134
88031SOL     OW65925  13.976  10.610  10.126
88031SOL    HW165926  13.954  10.653  10.043
88031SOL    HW265927  14.061  10.570  10.110
88032SOL     OW65928   9.955   1.067  10.710
88032SOL    HW165929   9.978   1.010  10.637
88032SOL    HW265930   9.995   1.026  10.787
88033SOL     OW65931  10.900   4.897   7.053
88033SOL    HW165932  10.939   4.891   7.141
88033SOL    HW265933  10.819   4.946   7.066
88034SOL     OW65934   7.941  14.129   8.302
88034SOL    HW165935   7.934  14.212   8.349
88034SOL    HW265936   7.996  14.148   8.226
88035SOL     OW65937   1.667   2.382  10.490
88035SOL    HW165938   1.691   2.463  10.446
88035SOL    HW265939   1.693   2.395  10.581
88036SOL     OW65940   9.152  14.514  12.957
88036SOL    HW165941   9.089  14.586  12.958
88036SOL    HW265942   9.188  14.512  13.045
88037SOL     OW65943   6.505  10.227   4.330
88037SOL    HW165944   6.485  10.309   4.286
88037SOL    HW265945   6.480  10.242   4.422
88038SOL     OW65946   4.903   4.480  14.618
88038SOL    HW165947   4.900   4.413  14.685
88038SOL    HW265948   4.971   4.542  14.647
88039SOL     OW65949   2.356  10.357  13.068
88039SOL    HW165950   2.448  10.355  13.042
88039SOL    HW265951   2.316  10.285  13.020
88040SOL     OW65952  10.585   2.955   9.216
88040SOL    HW165953  10.541   3.035   9.244
88040SOL    HW265954  10.577   2.954   9.121
88041SOL     OW65955  14.606   7.566   5.953
88041SOL    HW165956  14.611   7.662   5.951
88041SOL    HW265957  14.512   7.548   5.954
88042SOL     OW65958   4.068   8.154  12.423
88042SOL    HW165959   4.075   8.156  12.327
88042SOL    HW265960   4.017   8.075  12.441
88043SOL     OW65961   4.352   7.295   1.167
88043SOL    HW165962   4.299   7.369   1.137
88043SOL    HW265963   4.293   7.245   1.223
88044SOL     OW65964   8.698   5.878   4.732
88044SOL    HW165965   8.724   5.821   4.804
88044SOL    HW265966   8.657   5.819   4.668
88045SOL     OW65967  10.582  10.284   8.800
88045SOL    HW165968  10.652  10.218   8.805
88045SOL    HW265969  10.623  10.360   8.760
88046SOL     OW65970  11.470   5.303   0.264
88046SOL    HW165971  11.383   5.343   0.270
88046SOL    HW265972  11.499   5.324   0.175
88047SOL     OW65973  13.455   7.644   3.559
88047SOL    HW165974  13.386   7.705   3.585
88047SOL    HW265975  13.532   7.674   3.607
88048SOL     OW65976   2.536  10.740   0.216
88048SOL    HW165977   2.466  10.754   0.153
88048SOL    HW265978   2.515  10.657   0.259
88049SOL     OW65979  14.860   8.774  13.079
88049SOL    HW165980  14.848   8.859  13.037
88049SOL    HW265981  14.805   8.778  13.158
88050SOL     OW65982   3.856   1.387   0.846
88050SOL    HW165983   3.813   1.448   0.906
88050SOL    HW265984   3.844   1.301   0.886
88051SOL     OW65985   2.442  12.510  12.803
88051SOL    HW165986   2.488  12.436  12.764
88051SOL    HW265987   2.472  12.511  12.894
88052SOL     OW65988   7.975   8.943   1.926
88052SOL    HW165989   7.979   8.931   1.831
88052SOL    HW265990   8.024   8.870   1.962
88053SOL     OW65991  12.481   0.090  11.314
88053SOL    HW165992  12.540   0.125  11.381
88053SOL    HW265993  12.499  14.869  11.312
88054SOL     OW65994   3.166  14.424   1.632
88054SOL    HW165995   3.163  14.402   1.725
88054SOL    HW265996   3.222  14.502   1.627
88055SOL     OW65997  14.330   2.318   4.287
88055SOL    HW165998  14.293   2.395   4.243
88055SOL    HW265999  14.424   2.324   4.271
88056SOL     OW66000   6.599  13.261  10.120
88056SOL    HW166001   6.609  13.355  10.128
88056SOL    HW266002   6.686  13.226  10.142
88057SOL     OW66003   6.340  12.335   9.977
88057SOL    HW166004   6.301  12.392   9.910
88057SOL    HW266005   6.284  12.257   9.977
88058SOL     OW66006   7.542  11.384   1.587
88058SOL    HW166007   7.451  11.384   1.559
88058SOL    HW266008   7.568  11.292   1.587
88059SOL     OW66009   8.991   0.048   1.371
88059SOL    HW166010   9.019   0.053   1.279
88059SOL    HW266011   8.985   0.139   1.399
88060SOL     OW66012   0.186   3.897   8.750
88060SOL    HW166013   0.162   3.870   8.661
88060SOL    HW266014   0.104   3.927   8.789
88061SOL     OW66015   4.206  13.041   5.251
88061SOL    HW166016   4.269  12.992   5.198
88061SOL    HW266017   4.236  13.132   5.245
88062SOL     OW66018   3.935   9.546   2.926
88062SOL    HW166019   3.959   9.496   3.004
88062SOL    HW266020   4.003   9.524   2.862
88063SOL     OW66021   2.308   1.980  12.820
88063SOL    HW166022   2.241   2.043  12.844
88063SOL    HW266023   2.322   1.928  12.900
88064SOL     OW66024   9.285   8.535  14.351
88064SOL    HW166025   9.267   8.442  14.362
88064SOL    HW266026   9.198   8.575  14.343
88065SOL     OW66027  13.262   8.285   8.344
88065SOL    HW166028  13.258   8.381   8.345
88065SOL    HW266029  13.272   8.263   8.251
88066SOL     OW66030  10.569   8.865   4.029
88066SOL    HW166031  10.575   8.887   3.936
88066SOL    HW266032  10.584   8.771   4.032
88067SOL     OW66033   9.120   4.776   6.174
88067SOL    HW166034   9.129   4.762   6.080
88067SOL    HW266035   9.120   4.688   6.212
88068SOL     OW66036  11.445   0.069   5.677
88068SOL    HW166037  11.437  14.867   5.618
88068SOL    HW266038  11.500   0.132   5.630
88069SOL     OW66039   6.300   2.389   5.104
88069SOL    HW166040   6.312   2.444   5.026
88069SOL    HW266041   6.270   2.305   5.069
88070SOL     OW66042  14.523   4.883  11.543
88070SOL    HW166043  14.448   4.928  11.582
88070SOL    HW266044  14.497   4.870  11.451
88071SOL     OW66045  12.172  13.053   0.123
88071SOL    HW166046  12.212  13.131   0.085
88071SOL    HW266047  12.212  13.046   0.210
88072SOL     OW66048   5.496   5.856   0.765
88072SOL    HW166049   5.415   5.807   0.752
88072SOL    HW266050   5.513   5.897   0.680
88073SOL     OW66051  11.502  12.238   0.822
88073SOL    HW166052  11.515  12.163   0.879
88073SOL    HW266053  11.509  12.202   0.733
88074SOL     OW66054   6.091   6.724  12.012
88074SOL    HW166055   6.049   6.696  12.094
88074SOL    HW266056   6.099   6.643  11.962
88075SOL     OW66057   1.962   6.698   7.298
88075SOL    HW166058   2.036   6.676   7.355
88075SOL    HW266059   2.003   6.724   7.215
88076SOL     OW66060  14.609  12.852   6.590
88076SOL    HW166061  14.652  12.933   6.563
88076SOL    HW266062  14.673  12.784   6.569
88077SOL     OW66063  12.021  10.978   5.172
88077SOL    HW166064  12.000  10.889   5.201
88077SOL    HW266065  12.117  10.981   5.170
88078SOL     OW66066   9.040  13.579  12.259
88078SOL    HW166067   9.090  13.500  12.281
88078SOL    HW266068   9.102  13.633  12.211
88079SOL     OW66069  14.700  14.579   2.969
88079SOL    HW166070  14.790  14.560   2.995
88079SOL    HW266071  14.666  14.494   2.940
88080SOL     OW66072  12.494   4.270   2.032
88080SOL    HW166073  12.507   4.264   1.937
88080SOL    HW266074  12.576   4.304   2.065
88081SOL     OW66075  10.650   1.542   0.645
88081SOL    HW166076  10.663   1.565   0.737
88081SOL    HW266077  10.737   1.518   0.614
88082SOL     OW66078   5.390   8.845   6.869
88082SOL    HW166079   5.303   8.871   6.838
88082SOL    HW266080   5.381   8.841   6.964
88083SOL     OW66081  11.354   5.890   8.540
88083SOL    HW166082  11.378   5.827   8.473
88083SOL    HW266083  11.269   5.859   8.572
88084SOL     OW66084  14.349   2.583   6.108
88084SOL    HW166085  14.444   2.578   6.099
88084SOL    HW266086  14.318   2.494   6.092
88085SOL     OW66087   1.655   0.383   6.435
88085SOL    HW166088   1.657   0.432   6.517
88085SOL    HW266089   1.612   0.300   6.458
88086SOL     OW66090  11.191  14.671   2.493
88086SOL    HW166091  11.181  14.619   2.572
88086SOL    HW266092  11.207  14.760   2.524
88087SOL     OW66093   3.978   3.940  14.698
88087SOL    HW166094   3.916   3.950  14.626
88087SOL    HW266095   3.995   3.846  14.701
88088SOL     OW66096  11.222   4.441   3.131
88088SOL    HW166097  11.161   4.411   3.199
88088SOL    HW266098  11.201   4.388   3.055
88089SOL     OW66099   0.843   3.961   4.440
88089SOL    HW166100   0.810   4.014   4.368
88089SOL    HW266101   0.914   3.909   4.401
88090SOL     OW66102  12.751   0.928   1.150
88090SOL    HW166103  12.656   0.923   1.162
88090SOL    HW266104  12.786   0.856   1.202
88091SOL     OW66105   9.734  12.099   6.157
88091SOL    HW166106   9.785  12.178   6.140
88091SOL    HW266107   9.645  12.130   6.171
88092SOL     OW66108   5.205  14.104   2.192
88092SOL    HW166109   5.236  14.194   2.181
88092SOL    HW266110   5.206  14.068   2.103
88093SOL     OW66111   1.573   8.983  11.557
88093SOL    HW166112   1.598   9.013  11.645
88093SOL    HW266113   1.502   8.921  11.573
88094SOL     OW66114   0.464   6.253   3.388
88094SOL    HW166115   0.417   6.171   3.404
88094SOL    HW266116   0.547   6.225   3.349
88095SOL     OW66117   8.789   6.124  13.706
88095SOL    HW166118   8.766   6.040  13.747
88095SOL    HW266119   8.874   6.108  13.665
88096SOL     OW66120   3.611  10.345   0.581
88096SOL    HW166121   3.527  10.300   0.570
88096SOL    HW266122   3.661  10.290   0.641
88097SOL     OW66123   4.778   1.292  12.165
88097SOL    HW166124   4.702   1.350  12.160
88097SOL    HW266125   4.752   1.223  12.227
88098SOL     OW66126   0.446   5.656   9.955
88098SOL    HW166127   0.383   5.603   9.906
88098SOL    HW266128   0.418   5.747   9.940
88099SOL     OW66129  10.378  14.106   0.793
88099SOL    HW166130  10.304  14.101   0.854
88099SOL    HW266131  10.340  14.139   0.712
88100SOL     OW66132  12.681   9.570   1.631
88100SOL    HW166133  12.600   9.591   1.586
88100SOL    HW266134  12.694   9.641   1.693
88101SOL     OW66135   9.863  13.081   2.863
88101SOL    HW166136   9.898  13.154   2.811
88101SOL    HW266137   9.851  13.117   2.950
88102SOL     OW66138   8.914  13.680   5.449
88102SOL    HW166139   8.936  13.629   5.527
88102SOL    HW266140   8.836  13.638   5.414
88103SOL     OW66141   7.861  12.948  12.338
88103SOL    HW166142   7.894  12.884  12.401
88103SOL    HW266143   7.939  12.980  12.293
88104SOL     OW66144  10.931   4.086  10.401
88104SOL    HW166145  10.963   4.029  10.471
88104SOL    HW266146  10.941   4.174  10.435
88105SOL     OW66147  10.727   8.133   7.147
88105SOL    HW166148  10.817   8.113   7.120
88105SOL    HW266149  10.732   8.222   7.184
88106SOL     OW66150   3.078  10.996   3.886
88106SOL    HW166151   2.993  10.966   3.919
88106SOL    HW266152   3.081  10.965   3.796
88107SOL     OW66153  13.088  10.799  10.562
88107SOL    HW166154  13.114  10.745  10.637
88107SOL    HW266155  13.024  10.746  10.515
88108SOL     OW66156   6.525   0.093   7.929
88108SOL    HW166157   6.547   0.036   7.855
88108SOL    HW266158   6.469   0.039   7.985
88109SOL     OW66159   4.277  12.280   3.164
88109SOL    HW166160   4.224  12.218   3.214
88109SOL    HW266161   4.213  12.338   3.123
88110SOL     OW66162  14.406  12.800   5.774
88110SOL    HW166163  14.406  12.732   5.706
88110SOL    HW266164  14.464  12.766   5.842
88111SOL     OW66165  12.741   7.051   7.454
88111SOL    HW166166  12.723   7.036   7.546
88111SOL    HW266167  12.770   6.966   7.421
88112SOL     OW66168   3.233   7.611   9.032
88112SOL    HW166169   3.321   7.622   8.998
88112SOL    HW266170   3.211   7.520   9.012
88113SOL     OW66171   1.966   7.753  13.062
88113SOL    HW166172   1.921   7.699  12.997
88113SOL    HW266173   1.966   7.841  13.024
88114SOL     OW66174  13.478   0.851   3.475
88114SOL    HW166175  13.448   0.895   3.395
88114SOL    HW266176  13.573   0.845   3.464
88115SOL     OW66177  10.883   3.137  14.204
88115SOL    HW166178  10.901   3.176  14.118
88115SOL    HW266179  10.859   3.047  14.184
88116SOL     OW66180   4.123  14.559  11.037
88116SOL    HW166181   4.095  14.478  11.078
88116SOL    HW266182   4.217  14.564  11.054
88117SOL     OW66183   2.614   7.175   0.948
88117SOL    HW166184   2.681   7.106   0.956
88117SOL    HW266185   2.586   7.170   0.857
88118SOL     OW66186  14.488  14.687   2.007
88118SOL    HW166187  14.458  14.607   2.051
88118SOL    HW266188  14.452  14.758   2.060
88119SOL     OW66189  13.769   8.023   2.503
88119SOL    HW166190  13.734   8.062   2.583
88119SOL    HW266191  13.692   7.984   2.461
88120SOL     OW66192  11.747  10.891   7.127
88120SOL    HW166193  11.842  10.904   7.120
88120SOL    HW266194  11.724  10.932   7.211
88121SOL     OW66195   6.652  11.424  10.564
88121SOL    HW166196   6.565  11.392  10.538
88121SOL    HW266197   6.680  11.362  10.632
88122SOL     OW66198   5.348  14.537   3.531
88122SOL    HW166199   5.365  14.589   3.610
88122SOL    HW266200   5.306  14.457   3.562
88123SOL     OW66201   0.747  12.233   1.008
88123SOL    HW166202   0.786  12.204   0.926
88123SOL    HW266203   0.742  12.154   1.062
88124SOL     OW66204   3.753  11.735   6.744
88124SOL    HW166205   3.745  11.822   6.784
88124SOL    HW266206   3.680  11.730   6.682
88125SOL     OW66207  13.832   9.242  11.475
88125SOL    HW166208  13.742   9.245  11.506
88125SOL    HW266209  13.851   9.332  11.448
88126SOL     OW66210   5.384   5.969   2.688
88126SOL    HW166211   5.306   5.993   2.639
88126SOL    HW266212   5.372   5.877   2.711
88127SOL     OW66213   7.686   0.971   2.228
88127SOL    HW166214   7.654   0.926   2.150
88127SOL    HW266215   7.767   0.924   2.250
88128SOL     OW66216  14.630   0.953   5.723
88128SOL    HW166217  14.616   1.033   5.673
88128SOL    HW266218  14.552   0.901   5.708
88129SOL     OW66219   8.301  13.192  14.303
88129SOL    HW166220   8.265  13.150  14.381
88129SOL    HW266221   8.295  13.125  14.235
88130SOL     OW66222   5.426   4.011   9.191
88130SOL    HW166223   5.369   3.964   9.130
88130SOL    HW266224   5.509   4.019   9.145
88131SOL     OW66225  14.492   0.999   4.396
88131SOL    HW166226  14.542   0.999   4.315
88131SOL    HW266227  14.478   0.907   4.416
88132SOL     OW66228  14.739   9.752   0.141
88132SOL    HW166229  14.695   9.811   0.202
88132SOL    HW266230  14.678   9.744   0.068
88133SOL     OW66231  11.367   7.663  12.085
88133SOL    HW166232  11.340   7.592  12.144
88133SOL    HW266233  11.423   7.718  12.138
88134SOL     OW66234   5.316   7.018   2.661
88134SOL    HW166235   5.357   7.101   2.636
88134SOL    HW266236   5.323   7.016   2.756
88135SOL     OW66237   1.125  11.897  14.098
88135SOL    HW166238   1.205  11.846  14.112
88135SOL    HW266239   1.078  11.891  14.181
88136SOL     OW66240   0.215  13.934   0.911
88136SOL    HW166241   0.267  13.979   0.844
88136SOL    HW266242   0.125  13.964   0.896
88137SOL     OW66243   6.582   8.144  13.944
88137SOL    HW166244   6.580   8.188  14.030
88137SOL    HW266245   6.635   8.066  13.959
88138SOL     OW66246   5.601  12.267   1.058
88138SOL    HW166247   5.611  12.172   1.054
88138SOL    HW266248   5.529  12.280   1.119
88139SOL     OW66249   4.612  10.976   3.671
88139SOL    HW166250   4.600  11.041   3.741
88139SOL    HW266251   4.528  10.975   3.624
88140SOL     OW66252  10.004   4.360   7.284
88140SOL    HW166253  10.037   4.449   7.300
88140SOL    HW266254   9.954   4.339   7.363
88141SOL     OW66255  12.028   0.340   4.538
88141SOL    HW166256  11.977   0.419   4.522
88141SOL    HW266257  11.991   0.275   4.478
88142SOL     OW66258   0.483   0.098  11.068
88142SOL    HW166259   0.420   0.152  11.115
88142SOL    HW266260   0.443   0.011  11.065
88143SOL     OW66261   7.585  14.841  12.332
88143SOL    HW166262   7.594  14.814  12.241
88143SOL    HW266263   7.600   0.063  12.331
88144SOL     OW66264   3.161  13.625   9.394
88144SOL    HW166265   3.242  13.675   9.386
88144SOL    HW266266   3.150  13.612   9.489
88145SOL     OW66267   7.074  13.118   3.280
88145SOL    HW166268   7.025  13.044   3.244
88145SOL    HW266269   7.125  13.080   3.352
88146SOL     OW66270   3.501  10.598   0.701
88146SOL    HW166271   3.547  10.514   0.698
88146SOL    HW266272   3.426  10.583   0.757
88147SOL     OW66273  11.605   8.467  14.070
88147SOL    HW166274  11.541   8.525  14.028
88147SOL    HW266275  11.656   8.524  14.127
88148SOL     OW66276   1.225   9.671   9.930
88148SOL    HW166277   1.181   9.611   9.871
88148SOL    HW266278   1.317   9.668   9.903
88149SOL     OW66279  12.560  11.786   6.181
88149SOL    HW166280  12.571  11.827   6.266
88149SOL    HW266281  12.495  11.717   6.195
88150SOL     OW66282   4.750   2.005   5.505
88150SOL    HW166283   4.758   1.910   5.512
88150SOL    HW266284   4.808   2.039   5.573
88151SOL     OW66285   1.201   4.917  13.309
88151SOL    HW166286   1.251   4.971  13.370
88151SOL    HW266287   1.249   4.835  13.305
88152SOL     OW66288  13.268   6.629   1.514
88152SOL    HW166289  13.336   6.649   1.578
88152SOL    HW266290  13.214   6.709   1.511
88153SOL     OW66291   9.565  10.966   1.684
88153SOL    HW166292   9.535  10.983   1.594
88153SOL    HW266293   9.586  10.873   1.685
88154SOL     OW66294   1.125   6.696  13.395
88154SOL    HW166295   1.035   6.704  13.427
88154SOL    HW266296   1.165   6.780  13.414
88155SOL     OW66297   3.536   8.368   4.763
88155SOL    HW166298   3.532   8.361   4.668
88155SOL    HW266299   3.608   8.311   4.789
88156SOL     OW66300   0.583   1.682   2.913
88156SOL    HW166301   0.678   1.674   2.921
88156SOL    HW266302   0.566   1.677   2.819
88157SOL     OW66303  11.620  10.021   9.031
88157SOL    HW166304  11.544   9.963   9.026
88157SOL    HW266305  11.582  10.109   9.041
88158SOL     OW66306   0.465  13.915   5.961
88158SOL    HW166307   0.438  13.941   5.872
88158SOL    HW266308   0.406  13.844   5.985
88159SOL     OW66309   2.561  12.811   3.741
88159SOL    HW166310   2.614  12.756   3.798
88159SOL    HW266311   2.516  12.749   3.683
88160SOL     OW66312   7.618   2.080  11.146
88160SOL    HW166313   7.658   2.142  11.207
88160SOL    HW266314   7.524   2.091  11.160
88161SOL     OW66315   6.468   2.484   1.643
88161SOL    HW166316   6.518   2.432   1.705
88161SOL    HW266317   6.411   2.538   1.698
88162SOL     OW66318   7.924  11.330   4.818
88162SOL    HW166319   7.962  11.284   4.743
88162SOL    HW266320   7.853  11.273   4.848
88163SOL     OW66321   7.551   8.022  13.572
88163SOL    HW166322   7.469   7.974  13.585
88163SOL    HW266323   7.597   8.013  13.655
88164SOL     OW66324   4.018  13.763   5.598
88164SOL    HW166325   4.044  13.672   5.580
88164SOL    HW266326   3.930  13.770   5.559
88165SOL     OW66327   0.193   2.045   8.259
88165SOL    HW166328   0.209   1.969   8.204
88165SOL    HW266329   0.190   2.119   8.198
88166SOL     OW66330  13.273   8.429   0.607
88166SOL    HW166331  13.346   8.380   0.568
88166SOL    HW266332  13.235   8.477   0.533
88167SOL     OW66333  13.496   6.313  12.462
88167SOL    HW166334  13.570   6.276  12.509
88167SOL    HW266335  13.497   6.271  12.376
88168SOL     OW66336   6.912  13.877   4.939
88168SOL    HW166337   6.856  13.802   4.918
88168SOL    HW266338   6.902  13.935   4.864
88169SOL     OW66339  11.702   2.698  10.401
88169SOL    HW166340  11.685   2.607  10.374
88169SOL    HW266341  11.620   2.744  10.383
88170SOL     OW66342  10.823   1.552   9.509
88170SOL    HW166343  10.850   1.630   9.558
88170SOL    HW266344  10.728   1.548   9.521
88171SOL     OW66345   4.714   6.824   3.528
88171SOL    HW166346   4.743   6.742   3.568
88171SOL    HW266347   4.692   6.880   3.602
88172SOL     OW66348   7.921   2.884  14.557
88172SOL    HW166349   7.903   2.790  14.558
88172SOL    HW266350   7.906   2.910  14.467
88173SOL     OW66351   3.453   2.702   5.902
88173SOL    HW166352   3.522   2.767   5.893
88173SOL    HW266353   3.460   2.648   5.824
88174SOL     OW66354   0.362  14.754   1.790
88174SOL    HW166355   0.297  14.698   1.832
88174SOL    HW266356   0.340  14.751   1.697
88175SOL     OW66357   5.784  11.136   6.854
88175SOL    HW166358   5.752  11.076   6.787
88175SOL    HW266359   5.840  11.082   6.910
88176SOL     OW66360   3.412   8.466   2.345
88176SOL    HW166361   3.395   8.415   2.266
88176SOL    HW266362   3.329   8.510   2.363
88177SOL     OW66363   0.711  10.723   3.924
88177SOL    HW166364   0.727  10.780   3.849
88177SOL    HW266365   0.721  10.634   3.890
88178SOL     OW66366  14.698   3.749   3.124
88178SOL    HW166367  14.755   3.673   3.132
88178SOL    HW266368  14.616   3.713   3.089
88179SOL     OW66369   4.935  14.743   5.598
88179SOL    HW166370   4.882  14.709   5.670
88179SOL    HW266371   4.876  14.800   5.549
88180SOL     OW66372   0.720  13.724   3.898
88180SOL    HW166373   0.663  13.662   3.853
88180SOL    HW266374   0.802  13.723   3.848
88181SOL     OW66375  12.457  12.012   5.353
88181SOL    HW166376  12.363  11.997   5.363
88181SOL    HW266377  12.482  11.957   5.279
88182SOL     OW66378   3.539   2.348   1.699
88182SOL    HW166379   3.555   2.281   1.766
88182SOL    HW266380   3.529   2.429   1.749
88183SOL     OW66381   6.430  10.712   2.747
88183SOL    HW166382   6.442  10.714   2.842
88183SOL    HW266383   6.388  10.795   2.726
88184SOL     OW66384   2.208  11.544  12.539
88184SOL    HW166385   2.288  11.582  12.502
88184SOL    HW266386   2.210  11.569  12.632
88185SOL     OW66387  10.670   0.423   5.641
88185SOL    HW166388  10.670   0.383   5.554
88185SOL    HW266389  10.601   0.376   5.689
88186SOL     OW66390  10.986  14.663  11.957
88186SOL    HW166391  10.982  14.753  11.989
88186SOL    HW266392  11.045  14.618  12.018
88187SOL     OW66393   7.119   9.143  13.904
88187SOL    HW166394   7.035   9.170  13.866
88187SOL    HW266395   7.170   9.223  13.910
88188SOL     OW66396  10.288   9.574   0.649
88188SOL    HW166397  10.210   9.613   0.610
88188SOL    HW266398  10.356   9.640   0.635
88189SOL     OW66399  13.447   7.463  14.302
88189SOL    HW166400  13.518   7.486  14.242
88189SOL    HW266401  13.437   7.540  14.358
88190SOL     OW66402   5.762   8.949  11.063
88190SOL    HW166403   5.711   8.893  11.121
88190SOL    HW266404   5.732   8.926  10.975
88191SOL     OW66405   7.775  13.079   9.927
88191SOL    HW166406   7.714  13.108   9.994
88191SOL    HW266407   7.860  13.115   9.954
88192SOL     OW66408   5.480   6.410   4.493
88192SOL    HW166409   5.445   6.467   4.424
88192SOL    HW266410   5.404   6.362   4.525
88193SOL     OW66411  14.295  13.323   6.559
88193SOL    HW166412  14.275  13.398   6.615
88193SOL    HW266413  14.222  13.263   6.574
88194SOL     OW66414   9.547   6.664   1.810
88194SOL    HW166415   9.544   6.659   1.905
88194SOL    HW266416   9.621   6.609   1.785
88195SOL     OW66417   5.931   7.248   1.158
88195SOL    HW166418   5.902   7.263   1.248
88195SOL    HW266419   5.867   7.187   1.121
88196SOL     OW66420  10.483   8.188   5.681
88196SOL    HW166421  10.467   8.282   5.673
88196SOL    HW266422  10.562   8.172   5.629
88197SOL     OW66423   2.404   7.446   9.063
88197SOL    HW166424   2.435   7.536   9.071
88197SOL    HW266425   2.441   7.401   9.139
88198SOL     OW66426   8.640  14.841   1.176
88198SOL    HW166427   8.712  14.872   1.122
88198SOL    HW266428   8.679  14.774   1.232
88199SOL     OW66429   6.090   5.915   1.309
88199SOL    HW166430   6.139   5.961   1.377
88199SOL    HW266431   6.095   5.974   1.233
88200SOL     OW66432   2.660   1.644  13.986
88200SOL    HW166433   2.741   1.606  13.953
88200SOL    HW266434   2.688   1.719  14.039
88201SOL     OW66435  14.635  12.617   3.913
88201SOL    HW166436  14.551  12.662   3.914
88201SOL    HW266437  14.684  12.658   3.842
88202SOL     OW66438   3.369   6.117   8.319
88202SOL    HW166439   3.436   6.147   8.259
88202SOL    HW266440   3.339   6.033   8.283
88203SOL     OW66441   5.782   1.355   6.304
88203SOL    HW166442   5.703   1.368   6.355
88203SOL    HW266443   5.851   1.339   6.369
88204SOL     OW66444   7.338  10.552   0.234
88204SOL    HW166445   7.415  10.495   0.241
88204SOL    HW266446   7.277  10.503   0.179
88205SOL     OW66447  12.876  11.123   5.373
88205SOL    HW166448  12.813  11.058   5.342
88205SOL    HW266449  12.895  11.176   5.295
88206SOL     OW66450   9.552   8.772  13.246
88206SOL    HW166451   9.499   8.849  13.224
88206SOL    HW266452   9.576   8.786  13.338
88207SOL     OW66453   5.823   7.148   2.600
88207SOL    HW166454   5.913   7.174   2.577
88207SOL    HW266455   5.833   7.062   2.640
88208SOL     OW66456   9.677   8.891   1.528
88208SOL    HW166457   9.708   8.943   1.454
88208SOL    HW266458   9.750   8.889   1.589
88209SOL     OW66459   4.288   2.318   9.250
88209SOL    HW166460   4.233   2.244   9.276
88209SOL    HW266461   4.368   2.278   9.217
88210SOL     OW66462   4.331   1.058   9.582
88210SOL    HW166463   4.346   1.093   9.669
88210SOL    HW266464   4.245   1.093   9.557
88211SOL     OW66465   9.831   8.599   4.330
88211SOL    HW166466   9.853   8.523   4.276
88211SOL    HW266467   9.735   8.606   4.324
88212SOL     OW66468   1.654   8.705   3.493
88212SOL    HW166469   1.721   8.648   3.530
88212SOL    HW266470   1.636   8.668   3.407
88213SOL     OW66471   1.335   9.179   1.075
88213SOL    HW166472   1.286   9.260   1.084
88213SOL    HW266473   1.271   9.115   1.044
88214SOL     OW66474   2.767  11.911   1.455
88214SOL    HW166475   2.763  11.829   1.406
88214SOL    HW266476   2.693  11.963   1.421
88215SOL     OW66477  13.766   0.503   6.884
88215SOL    HW166478  13.680   0.543   6.877
88215SOL    HW266479  13.798   0.527   6.970
88216SOL     OW66480   4.846  11.029   2.389
88216SOL    HW166481   4.846  10.948   2.438
88216SOL    HW266482   4.762  11.070   2.409
88217SOL     OW66483   7.693  12.663   9.652
88217SOL    HW166484   7.646  12.710   9.721
88217SOL    HW266485   7.775  12.710   9.642
88218SOL     OW66486   7.115   0.079   4.523
88218SOL    HW166487   7.094   0.003   4.578
88218SOL    HW266488   7.141   0.041   4.439
88219SOL     OW66489   6.335   7.915   7.290
88219SOL    HW166490   6.279   7.840   7.270
88219SOL    HW266491   6.278   7.991   7.280
88220SOL     OW66492   6.657   9.672   0.609
88220SOL    HW166493   6.677   9.668   0.516
88220SOL    HW266494   6.743   9.673   0.652
88221SOL     OW66495   8.978   1.842   9.956
88221SOL    HW166496   8.939   1.756   9.973
88221SOL    HW266497   9.048   1.849  10.021
88222SOL     OW66498   8.955   7.452  10.981
88222SOL    HW166499   9.035   7.427  10.935
88222SOL    HW266500   8.976   7.442  11.074
88223SOL     OW66501   4.381  13.625   5.869
88223SOL    HW166502   4.336  13.551   5.828
88223SOL    HW266503   4.375  13.608   5.963
88224SOL     OW66504   1.301  10.451   0.918
88224SOL    HW166505   1.258  10.523   0.872
88224SOL    HW266506   1.383  10.438   0.871
88225SOL     OW66507   1.063   6.096  14.784
88225SOL    HW166508   1.141   6.049  14.755
88225SOL    HW266509   0.990   6.043  14.753
88226SOL     OW66510   7.793   1.662   4.848
88226SOL    HW166511   7.861   1.727   4.832
88226SOL    HW266512   7.790   1.609   4.769
88227SOL     OW66513   7.321  14.823  12.198
88227SOL    HW166514   7.252  14.862  12.251
88227SOL    HW266515   7.396  14.818  12.257
88228SOL     OW66516  14.162   1.543   0.989
88228SOL    HW166517  14.125   1.615   1.041
88228SOL    HW266518  14.115   1.548   0.905
88229SOL     OW66519   7.332   2.646   1.410
88229SOL    HW166520   7.340   2.718   1.348
88229SOL    HW266521   7.392   2.669   1.481
88230SOL     OW66522  11.812   5.187   3.176
88230SOL    HW166523  11.805   5.182   3.081
88230SOL    HW266524  11.759   5.262   3.201
88231SOL     OW66525  11.258   4.063   3.913
88231SOL    HW166526  11.256   3.967   3.914
88231SOL    HW266527  11.192   4.088   3.848
88232SOL     OW66528  14.633   5.703  11.808
88232SOL    HW166529  14.652   5.758  11.732
88232SOL    HW266530  14.709   5.712  11.864
88233SOL     OW66531   7.465   0.796   7.438
88233SOL    HW166532   7.467   0.712   7.394
88233SOL    HW266533   7.414   0.853   7.380
88234SOL     OW66534   2.304   4.121   4.957
88234SOL    HW166535   2.338   4.209   4.974
88234SOL    HW266536   2.210   4.131   4.951
88235SOL     OW66537   8.538  12.456   3.126
88235SOL    HW166538   8.525  12.390   3.057
88235SOL    HW266539   8.449  12.487   3.145
88236SOL     OW66540   0.936  11.899   6.722
88236SOL    HW166541   1.021  11.920   6.761
88236SOL    HW266542   0.921  11.807   6.746
88237SOL     OW66543  12.066  12.859   5.930
88237SOL    HW166544  12.051  12.902   5.846
88237SOL    HW266545  11.998  12.895   5.987
88238SOL     OW66546   9.508   1.246  12.825
88238SOL    HW166547   9.485   1.154  12.838
88238SOL    HW266548   9.545   1.274  12.909
88239SOL     OW66549  12.816   9.009   0.714
88239SOL    HW166550  12.860   9.083   0.673
88239SOL    HW266551  12.880   8.974   0.776
88240SOL     OW66552   2.808   7.403   4.114
88240SOL    HW166553   2.807   7.336   4.045
88240SOL    HW266554   2.830   7.355   4.193
88241SOL     OW66555   8.400   1.064   3.107
88241SOL    HW166556   8.471   1.007   3.139
88241SOL    HW266557   8.397   1.136   3.170
88242SOL     OW66558  12.029   8.770   1.625
88242SOL    HW166559  12.074   8.838   1.575
88242SOL    HW266560  11.938   8.776   1.596
88243SOL     OW66561   5.830  10.436  13.326
88243SOL    HW166562   5.859  10.377  13.256
88243SOL    HW266563   5.895  10.507  13.325
88244SOL     OW66564   0.763   7.757  11.909
88244SOL    HW166565   0.782   7.809  11.986
88244SOL    HW266566   0.799   7.807  11.836
88245SOL     OW66567  11.533  12.791   3.880
88245SOL    HW166568  11.489  12.876   3.882
88245SOL    HW266569  11.515  12.753   3.966
88246SOL     OW66570  13.595   2.837  10.578
88246SOL    HW166571  13.597   2.783  10.657
88246SOL    HW266572  13.589   2.926  10.610
88247SOL     OW66573   7.671  13.587   1.534
88247SOL    HW166574   7.661  13.675   1.499
88247SOL    HW266575   7.752  13.589   1.584
88248SOL     OW66576   5.314   2.748   5.866
88248SOL    HW166577   5.300   2.842   5.858
88248SOL    HW266578   5.237   2.709   5.825
88249SOL     OW66579  14.071   7.732  12.311
88249SOL    HW166580  14.141   7.792  12.287
88249SOL    HW266581  14.038   7.766  12.394
88250SOL     OW66582  10.512   0.086  12.303
88250SOL    HW166583  10.579   0.059  12.241
88250SOL    HW266584  10.469   0.161  12.260
88251SOL     OW66585   7.435   3.016   1.845
88251SOL    HW166586   7.510   2.958   1.841
88251SOL    HW266587   7.368   2.973   1.791
88252SOL     OW66588   2.804  12.273  11.368
88252SOL    HW166589   2.771  12.186  11.347
88252SOL    HW266590   2.875  12.288  11.305
88253SOL     OW66591  12.808   9.432  10.859
88253SOL    HW166592  12.822   9.339  10.878
88253SOL    HW266593  12.715   9.439  10.840
88254SOL     OW66594  14.740  10.521   8.191
88254SOL    HW166595  14.742  10.604   8.239
88254SOL    HW266596  14.695  10.542   8.109
88255SOL     OW66597   1.969  10.005  14.148
88255SOL    HW166598   1.935  10.050  14.225
88255SOL    HW266599   1.922   9.922  14.146
88256SOL     OW66600  13.562  12.756  12.676
88256SOL    HW166601  13.609  12.675  12.693
88256SOL    HW266602  13.576  12.774  12.583
88257SOL     OW66603   9.604   5.741   0.105
88257SOL    HW166604   9.624   5.710   0.193
88257SOL    HW266605   9.646   5.827   0.099
88258SOL     OW66606   5.853   6.350   6.880
88258SOL    HW166607   5.819   6.299   6.954
88258SOL    HW266608   5.857   6.287   6.808
88259SOL     OW66609   0.884   2.207   5.037
88259SOL    HW166610   0.835   2.200   4.955
88259SOL    HW266611   0.921   2.120   5.051
88260SOL     OW66612   7.940  10.758   5.498
88260SOL    HW166613   7.924  10.764   5.404
88260SOL    HW266614   7.906  10.840   5.534
88261SOL     OW66615  12.026   9.865   2.240
88261SOL    HW166616  11.940   9.901   2.218
88261SOL    HW266617  12.086   9.906   2.178
88262SOL     OW66618   4.700  11.821   9.003
88262SOL    HW166619   4.701  11.726   8.990
88262SOL    HW266620   4.682  11.832   9.097
88263SOL     OW66621   3.413   9.242   6.122
88263SOL    HW166622   3.438   9.304   6.190
88263SOL    HW266623   3.495   9.199   6.098
88264SOL     OW66624   6.211   5.972   7.260
88264SOL    HW166625   6.165   5.888   7.261
88264SOL    HW266626   6.303   5.950   7.273
88265SOL     OW66627  10.783   0.265   2.851
88265SOL    HW166628  10.859   0.323   2.846
88265SOL    HW266629  10.799   0.210   2.927
88266SOL     OW66630  10.339   5.393   7.726
88266SOL    HW166631  10.266   5.453   7.715
88266SOL    HW266632  10.374   5.380   7.637
88267SOL     OW66633   3.979   4.794   0.088
88267SOL    HW166634   4.054   4.820   0.141
88267SOL    HW266635   3.903   4.812   0.143
88268SOL     OW66636   7.690   3.399   9.639
88268SOL    HW166637   7.720   3.394   9.548
88268SOL    HW266638   7.747   3.338   9.686
88269SOL     OW66639   3.811  13.592   5.116
88269SOL    HW166640   3.813  13.666   5.055
88269SOL    HW266641   3.740  13.613   5.177
88270SOL     OW66642   8.366   8.082  11.877
88270SOL    HW166643   8.421   8.069  11.799
88270SOL    HW266644   8.367   8.176  11.891
88271SOL     OW66645  12.085   5.193  14.121
88271SOL    HW166646  12.148   5.144  14.174
88271SOL    HW266647  12.045   5.255  14.181
88272SOL     OW66648   2.845   8.870   5.006
88272SOL    HW166649   2.933   8.882   5.040
88272SOL    HW266650   2.850   8.898   4.915
88273SOL     OW66651  13.585   6.146   4.922
88273SOL    HW166652  13.576   6.205   4.996
88273SOL    HW266653  13.580   6.203   4.845
88274SOL     OW66654   6.117   9.484   8.452
88274SOL    HW166655   6.175   9.418   8.490
88274SOL    HW266656   6.031   9.442   8.448
88275SOL     OW66657   1.864   4.051  12.310
88275SOL    HW166658   1.901   4.139  12.300
88275SOL    HW266659   1.808   4.057  12.387
88276SOL     OW66660   6.310  13.383   3.803
88276SOL    HW166661   6.394  13.416   3.771
88276SOL    HW266662   6.253  13.387   3.727
88277SOL     OW66663   4.785   3.716   8.269
88277SOL    HW166664   4.838   3.642   8.242
88277SOL    HW266665   4.747   3.750   8.188
88278SOL     OW66666  11.614   9.495   0.787
88278SOL    HW166667  11.679   9.468   0.722
88278SOL    HW266668  11.564   9.416   0.805
88279SOL     OW66669  13.906  10.175   3.603
88279SOL    HW166670  13.973  10.213   3.546
88279SOL    HW266671  13.825  10.186   3.554
88280SOL     OW66672   8.073  12.259   9.959
88280SOL    HW166673   8.110  12.204  10.028
88280SOL    HW266674   8.145  12.316   9.932
88281SOL     OW66675   6.343   0.727   7.096
88281SOL    HW166676   6.393   0.665   7.150
88281SOL    HW266677   6.410   0.781   7.053
88282SOL     OW66678  12.591   3.907   8.758
88282SOL    HW166679  12.527   3.858   8.810
88282SOL    HW266680  12.538   3.975   8.714
88283SOL     OW66681   0.309   0.082  12.105
88283SOL    HW166682   0.233   0.107  12.051
88283SOL    HW266683   0.272   0.025  12.173
88284SOL     OW66684   2.452  11.446   8.640
88284SOL    HW166685   2.428  11.539   8.640
88284SOL    HW266686   2.369  11.401   8.626
88285SOL     OW66687   7.822   3.589  11.806
88285SOL    HW166688   7.756   3.534  11.848
88285SOL    HW266689   7.856   3.644  11.876
88286SOL     OW66690   4.530   8.272   0.387
88286SOL    HW166691   4.557   8.181   0.404
88286SOL    HW266692   4.442   8.278   0.425
88287SOL     OW66693  11.400   9.692   7.926
88287SOL    HW166694  11.387   9.654   8.013
88287SOL    HW266695  11.484   9.737   7.931
88288SOL     OW66696  14.768   7.743   0.090
88288SOL    HW166697  14.743   7.836   0.094
88288SOL    HW266698  14.712   7.706   0.022
88289SOL     OW66699   1.185   6.939   4.305
88289SOL    HW166700   1.182   6.864   4.246
88289SOL    HW266701   1.159   6.905   4.390
88290SOL     OW66702   8.115   5.726  10.642
88290SOL    HW166703   8.097   5.639  10.678
88290SOL    HW266704   8.064   5.786  10.696
88291SOL     OW66705  13.959   6.936   6.490
88291SOL    HW166706  14.011   6.922   6.411
88291SOL    HW266707  14.023   6.955   6.559
88292SOL     OW66708   5.271  12.947   5.105
88292SOL    HW166709   5.212  12.987   5.042
88292SOL    HW266710   5.248  12.988   5.189
88293SOL     OW66711   2.507   0.863  10.341
88293SOL    HW166712   2.440   0.890  10.404
88293SOL    HW266713   2.523   0.942  10.289
88294SOL     OW66714  11.143   3.487  13.494
88294SOL    HW166715  11.166   3.404  13.452
88294SOL    HW266716  11.202   3.551  13.454
88295SOL     OW66717  12.703  12.552  10.044
88295SOL    HW166718  12.764  12.604   9.991
88295SOL    HW266719  12.683  12.475   9.991
88296SOL     OW66720  12.276   4.963   0.999
88296SOL    HW166721  12.310   5.032   1.056
88296SOL    HW266722  12.274   4.885   1.055
88297SOL     OW66723   3.590   2.987  13.133
88297SOL    HW166724   3.512   3.027  13.095
88297SOL    HW266725   3.646   3.061  13.159
88298SOL     OW66726   5.537  10.986   0.695
88298SOL    HW166727   5.582  10.988   0.611
88298SOL    HW266728   5.473  11.057   0.690
88299SOL     OW66729   1.333   7.144   9.819
88299SOL    HW166730   1.252   7.194   9.809
88299SOL    HW266731   1.381   7.158   9.738
88300SOL     OW66732  11.107  11.775   8.684
88300SOL    HW166733  11.100  11.800   8.592
88300SOL    HW266734  11.175  11.708   8.685
88301SOL     OW66735   2.168   2.061   7.659
88301SOL    HW166736   2.145   2.112   7.581
88301SOL    HW266737   2.151   2.120   7.732
88302SOL     OW66738   5.834   7.715   5.647
88302SOL    HW166739   5.900   7.716   5.716
88302SOL    HW266740   5.868   7.773   5.579
88303SOL     OW66741  10.263   3.854   8.622
88303SOL    HW166742  10.251   3.903   8.703
88303SOL    HW266743  10.346   3.885   8.587
88304SOL     OW66744   5.629   6.254   3.863
88304SOL    HW166745   5.678   6.211   3.793
88304SOL    HW266746   5.579   6.184   3.904
88305SOL     OW66747   7.388  10.573   5.846
88305SOL    HW166748   7.367  10.621   5.766
88305SOL    HW266749   7.321  10.505   5.852
88306SOL     OW66750   4.828   7.995  11.480
88306SOL    HW166751   4.863   8.073  11.525
88306SOL    HW266752   4.888   7.925  11.505
88307SOL     OW66753   4.089   7.264  11.036
88307SOL    HW166754   4.147   7.269  10.960
88307SOL    HW266755   4.004   7.295  11.004
88308SOL     OW66756   3.270   8.048  10.488
88308SOL    HW166757   3.197   8.102  10.458
88308SOL    HW266758   3.237   8.004  10.566
88309SOL     OW66759  10.865   7.477   6.106
88309SOL    HW166760  10.943   7.532   6.114
88309SOL    HW266761  10.874   7.433   6.021
88310SOL     OW66762   5.661  11.281   8.854
88310SOL    HW166763   5.629  11.197   8.821
88310SOL    HW266764   5.752  11.263   8.880
88311SOL     OW66765   2.354   7.421   3.366
88311SOL    HW166766   2.262   7.407   3.344
88311SOL    HW266767   2.366   7.516   3.355
88312SOL     OW66768  13.634  10.206   4.128
88312SOL    HW166769  13.705  10.240   4.074
88312SOL    HW266770  13.591  10.140   4.074
88313SOL     OW66771   3.916   5.338   4.099
88313SOL    HW166772   3.946   5.250   4.074
88313SOL    HW266773   3.949   5.395   4.030
88314SOL     OW66774  11.586  14.350  14.656
88314SOL    HW166775  11.525  14.289  14.698
88314SOL    HW266776  11.616  14.406  14.727
88315SOL     OW66777   3.993   2.126   0.454
88315SOL    HW166778   4.027   2.037   0.467
88315SOL    HW266779   3.968   2.128   0.361
88316SOL     OW66780   7.355   7.356   5.112
88316SOL    HW166781   7.294   7.381   5.043
88316SOL    HW266782   7.298   7.323   5.183
88317SOL     OW66783   3.745  10.099  12.574
88317SOL    HW166784   3.690  10.168  12.610
88317SOL    HW266785   3.822  10.097  12.631
88318SOL     OW66786   8.951  13.470   2.484
88318SOL    HW166787   9.047  13.464   2.493
88318SOL    HW266788   8.933  13.564   2.491
88319SOL     OW66789   6.572   3.806   8.538
88319SOL    HW166790   6.665   3.820   8.555
88319SOL    HW266791   6.566   3.787   8.445
88320SOL     OW66792  11.153  13.875   3.254
88320SOL    HW166793  11.197  13.794   3.226
88320SOL    HW266794  11.181  13.887   3.344
88321SOL     OW66795  10.373   3.885   0.919
88321SOL    HW166796  10.395   3.928   0.837
88321SOL    HW266797  10.279   3.869   0.913
88322SOL     OW66798   0.135   8.509   8.767
88322SOL    HW166799   0.162   8.439   8.708
88322SOL    HW266800   0.217   8.547   8.799
88323SOL     OW66801  12.518  11.894  10.349
88323SOL    HW166802  12.480  11.810  10.323
88323SOL    HW266803  12.606  11.893  10.311
88324SOL     OW66804  10.092   0.418  13.650
88324SOL    HW166805  10.095   0.469  13.569
88324SOL    HW266806  10.012   0.448  13.694
88325SOL     OW66807   6.473  10.136  10.578
88325SOL    HW166808   6.399  10.173  10.530
88325SOL    HW266809   6.499  10.060  10.527
88326SOL     OW66810   3.779   0.696   4.249
88326SOL    HW166811   3.844   0.765   4.255
88326SOL    HW266812   3.723   0.708   4.326
88327SOL     OW66813   2.037   5.394  10.044
88327SOL    HW166814   1.977   5.455  10.001
88327SOL    HW266815   2.013   5.308  10.010
88328SOL     OW66816   9.963   9.943  11.011
88328SOL    HW166817   9.887   9.971  10.960
88328SOL    HW266818   9.928   9.875  11.070
88329SOL     OW66819  13.032  10.614  10.102
88329SOL    HW166820  13.079  10.693  10.074
88329SOL    HW266821  12.977  10.644  10.174
88330SOL     OW66822   9.275   0.332  10.640
88330SOL    HW166823   9.339   0.268  10.610
88330SOL    HW266824   9.202   0.278  10.672
88331SOL     OW66825   7.828   5.864   2.846
88331SOL    HW166826   7.822   5.935   2.782
88331SOL    HW266827   7.763   5.800   2.818
88332SOL     OW66828   9.071   4.594   5.699
88332SOL    HW166829   9.119   4.636   5.770
88332SOL    HW266830   8.990   4.564   5.740
88333SOL     OW66831   0.692   3.612   4.903
88333SOL    HW166832   0.634   3.541   4.874
88333SOL    HW266833   0.706   3.595   4.997
88334SOL     OW66834   7.121  13.813   8.008
88334SOL    HW166835   7.196  13.759   7.987
88334SOL    HW266836   7.156  13.903   8.007
88335SOL     OW66837  12.219   0.901   3.828
88335SOL    HW166838  12.150   0.862   3.882
88335SOL    HW266839  12.172   0.947   3.759
88336SOL     OW66840  12.751   8.171  11.101
88336SOL    HW166841  12.666   8.175  11.058
88336SOL    HW266842  12.753   8.084  11.142
88337SOL     OW66843   1.354   6.909   2.444
88337SOL    HW166844   1.395   6.832   2.484
88337SOL    HW266845   1.288   6.873   2.385
88338SOL     OW66846   9.923   6.420   3.519
88338SOL    HW166847   9.990   6.360   3.550
88338SOL    HW266848   9.966   6.472   3.451
88339SOL     OW66849   4.817  10.233   8.665
88339SOL    HW166850   4.898  10.184   8.650
88339SOL    HW266851   4.807  10.233   8.761
88340SOL     OW66852   7.801  13.428  10.229
88340SOL    HW166853   7.814  13.371  10.304
88340SOL    HW266854   7.887  13.434  10.187
88341SOL     OW66855   0.038   4.517   8.500
88341SOL    HW166856  14.833   4.571   8.483
88341SOL    HW266857   0.109   4.580   8.511
88342SOL     OW66858  10.277  12.686   6.003
88342SOL    HW166859  10.311  12.719   6.086
88342SOL    HW266860  10.214  12.619   6.028
88343SOL     OW66861  11.926  13.669   3.821
88343SOL    HW166862  11.857  13.735   3.809
88343SOL    HW266863  11.879  13.589   3.843
88344SOL     OW66864   4.239   3.199   1.095
88344SOL    HW166865   4.218   3.107   1.084
88344SOL    HW266866   4.328   3.208   1.062
88345SOL     OW66867  12.250   6.720   9.878
88345SOL    HW166868  12.328   6.749   9.926
88345SOL    HW266869  12.179   6.770   9.917
88346SOL     OW66870  10.608   8.640   6.584
88346SOL    HW166871  10.569   8.569   6.534
88346SOL    HW266872  10.541   8.709   6.585
88347SOL     OW66873  12.074   0.893   7.031
88347SOL    HW166874  12.027   0.974   7.052
88347SOL    HW266875  12.078   0.845   7.114
88348SOL     OW66876   9.886   5.115  11.873
88348SOL    HW166877   9.894   5.102  11.968
88348SOL    HW266878   9.964   5.073  11.837
88349SOL     OW66879  12.027  14.350   9.308
88349SOL    HW166880  11.945  14.302   9.291
88349SOL    HW266881  12.015  14.386   9.397
88350SOL     OW66882  12.022   8.434   4.378
88350SOL    HW166883  12.079   8.419   4.453
88350SOL    HW266884  12.079   8.471   4.311
88351SOL     OW66885  13.817   5.574   9.431
88351SOL    HW166886  13.895   5.564   9.484
88351SOL    HW266887  13.787   5.663   9.450
88352SOL     OW66888  12.075   7.681   7.748
88352SOL    HW166889  12.136   7.636   7.689
88352SOL    HW266890  12.090   7.640   7.833
88353SOL     OW66891   0.331  14.188   2.435
88353SOL    HW166892   0.291  14.265   2.475
88353SOL    HW266893   0.279  14.114   2.467
88354SOL     OW66894   6.202  12.822  13.476
88354SOL    HW166895   6.227  12.914  13.469
88354SOL    HW266896   6.245  12.780  13.402
88355SOL     OW66897   4.939  12.207   6.503
88355SOL    HW166898   4.980  12.123   6.484
88355SOL    HW266899   4.884  12.224   6.427
88356SOL     OW66900   6.196   7.167   2.767
88356SOL    HW166901   6.151   7.083   2.759
88356SOL    HW266902   6.164   7.219   2.693
88357SOL     OW66903   3.567   9.236   8.870
88357SOL    HW166904   3.521   9.159   8.901
88357SOL    HW266905   3.499   9.304   8.864
88358SOL     OW66906   4.916   9.093  13.831
88358SOL    HW166907   4.989   9.037  13.803
88358SOL    HW266908   4.845   9.032  13.850
88359SOL     OW66909   5.821  12.834  11.159
88359SOL    HW166910   5.752  12.792  11.106
88359SOL    HW266911   5.900  12.825  11.105
88360SOL     OW66912  12.212  11.416   0.152
88360SOL    HW166913  12.191  11.355   0.222
88360SOL    HW266914  12.288  11.464   0.184
88361SOL     OW66915   8.833  11.595   6.215
88361SOL    HW166916   8.775  11.531   6.173
88361SOL    HW266917   8.784  11.625   6.292
88362SOL     OW66918   5.283  14.462   7.502
88362SOL    HW166919   5.300  14.421   7.587
88362SOL    HW266920   5.284  14.556   7.520
88363SOL     OW66921   8.588   8.236  12.318
88363SOL    HW166922   8.558   8.301  12.381
88363SOL    HW266923   8.509   8.204  12.276
88364SOL     OW66924   9.510   4.896   8.680
88364SOL    HW166925   9.549   4.816   8.716
88364SOL    HW266926   9.580   4.936   8.629
88365SOL     OW66927   1.386   1.392   9.511
88365SOL    HW166928   1.467   1.418   9.555
88365SOL    HW266929   1.374   1.459   9.443
88366SOL     OW66930   0.203   5.284  14.133
88366SOL    HW166931   0.181   5.322  14.048
88366SOL    HW266932   0.144   5.329  14.194
88367SOL     OW66933   7.519  11.935   3.614
88367SOL    HW166934   7.541  11.987   3.692
88367SOL    HW266935   7.468  11.861   3.648
88368SOL     OW66936   3.531  13.572   4.617
88368SOL    HW166937   3.480  13.495   4.642
88368SOL    HW266938   3.615  13.561   4.660
88369SOL     OW66939  13.492   7.140   4.754
88369SOL    HW166940  13.445   7.146   4.837
88369SOL    HW266941  13.555   7.069   4.767
88370SOL     OW66942   9.666   6.891  13.551
88370SOL    HW166943   9.613   6.919  13.625
88370SOL    HW266944   9.644   6.952  13.481
88371SOL     OW66945   0.221   9.206   3.125
88371SOL    HW166946   0.147   9.151   3.098
88371SOL    HW266947   0.234   9.185   3.217
88372SOL     OW66948   6.924   8.957   1.374
88372SOL    HW166949   7.017   8.976   1.387
88372SOL    HW266950   6.903   8.996   1.290
88373SOL     OW66951   6.621  13.862   3.084
88373SOL    HW166952   6.696  13.872   3.026
88373SOL    HW266953   6.556  13.924   3.051
88374SOL     OW66954  11.757   1.798  14.241
88374SOL    HW166955  11.767   1.705  14.225
88374SOL    HW266956  11.689   1.804  14.308
88375SOL     OW66957   2.924   0.946  10.316
88375SOL    HW166958   2.855   0.974  10.377
88375SOL    HW266959   2.906   0.854  10.300
88376SOL     OW66960   0.501   7.980   5.394
88376SOL    HW166961   0.583   7.987   5.345
88376SOL    HW266962   0.526   7.992   5.486
88377SOL     OW66963   9.942   7.322  14.843
88377SOL    HW166964   9.918   7.310  14.752
88377SOL    HW266965   9.926   7.415  14.860
88378SOL     OW66966  14.750   4.702  11.341
88378SOL    HW166967  14.836   4.701  11.384
88378SOL    HW266968  14.703   4.628  11.379
88379SOL     OW66969  11.046  14.253  12.965
88379SOL    HW166970  11.059  14.175  12.911
88379SOL    HW266971  11.128  14.302  12.957
88380SOL     OW66972   9.484   4.674  12.388
88380SOL    HW166973   9.576   4.697  12.382
88380SOL    HW266974   9.455   4.710  12.472
88381SOL     OW66975   4.409   8.749   1.332
88381SOL    HW166976   4.493   8.725   1.371
88381SOL    HW266977   4.363   8.797   1.400
88382SOL     OW66978  13.093   5.825  12.906
88382SOL    HW166979  13.063   5.895  12.964
88382SOL    HW266980  13.086   5.745  12.958
88383SOL     OW66981  12.830   2.043   3.565
88383SOL    HW166982  12.912   2.008   3.529
88383SOL    HW266983  12.781   1.965   3.593
88384SOL     OW66984   8.920   3.720   9.452
88384SOL    HW166985   8.988   3.655   9.436
88384SOL    HW266986   8.955   3.801   9.414
88385SOL     OW66987  10.229  13.592   7.633
88385SOL    HW166988  10.193  13.504   7.623
88385SOL    HW266989  10.295  13.599   7.564
88386SOL     OW66990   6.087   5.677   5.518
88386SOL    HW166991   6.144   5.748   5.547
88386SOL    HW266992   6.144   5.600   5.512
88387SOL     OW66993  10.448  11.706  11.556
88387SOL    HW166994  10.404  11.650  11.620
88387SOL    HW266995  10.453  11.652  11.477
88388SOL     OW66996  14.803   8.500   2.065
88388SOL    HW166997  14.803   8.412   2.028
88388SOL    HW266998  14.726   8.502   2.121
88389SOL     OW66999   4.882   4.664  11.837
88389SOL    HW167000   4.877   4.605  11.913
88389SOL    HW267001   4.812   4.727  11.852
88390SOL     OW67002  13.316   3.745  10.323
88390SOL    HW167003  13.320   3.708  10.411
88390SOL    HW267004  13.351   3.677  10.266
88391SOL     OW67005  10.553  13.968  10.300
88391SOL    HW167006  10.620  13.920  10.348
88391SOL    HW267007  10.572  14.061  10.317
88392SOL     OW67008   7.111  10.921  10.612
88392SOL    HW167009   7.094  10.828  10.599
88392SOL    HW267010   7.088  10.962  10.529
88393SOL     OW67011  14.329  11.448  13.916
88393SOL    HW167012  14.300  11.368  13.872
88393SOL    HW267013  14.344  11.510  13.845
88394SOL     OW67014   9.184  13.775  12.680
88394SOL    HW167015   9.150  13.735  12.601
88394SOL    HW267016   9.128  13.851  12.695
88395SOL     OW67017   1.391   0.060   8.715
88395SOL    HW167018   1.418  14.863   8.656
88395SOL    HW267019   1.440   0.043   8.796
88396SOL     OW67020  14.085   4.362   6.601
88396SOL    HW167021  14.171   4.395   6.625
88396SOL    HW267022  14.032   4.440   6.588
88397SOL     OW67023   0.884   2.695   8.575
88397SOL    HW167024   0.851   2.766   8.519
88397SOL    HW267025   0.882   2.732   8.663
88398SOL     OW67026   4.839  14.483   1.605
88398SOL    HW167027   4.824  14.571   1.641
88398SOL    HW267028   4.777  14.476   1.533
88399SOL     OW67029  12.915   8.911   9.327
88399SOL    HW167030  12.852   8.928   9.257
88399SOL    HW267031  12.900   8.981   9.390
88400SOL     OW67032  13.354  10.010  10.984
88400SOL    HW167033  13.317  10.021  11.071
88400SOL    HW267034  13.279   9.991  10.928
88401SOL     OW67035  11.338   6.564   5.637
88401SOL    HW167036  11.295   6.484   5.667
88401SOL    HW267037  11.300   6.633   5.691
88402SOL     OW67038  13.144  11.231   6.542
88402SOL    HW167039  13.102  11.236   6.456
88402SOL    HW267040  13.077  11.262   6.603
88403SOL     OW67041   1.050   2.247  12.023
88403SOL    HW167042   0.974   2.303  12.036
88403SOL    HW267043   1.073   2.259  11.930
88404SOL     OW67044  13.136   2.170  10.995
88404SOL    HW167045  13.083   2.133  10.924
88404SOL    HW267046  13.137   2.102  11.062
88405SOL     OW67047  11.948   9.664   0.669
88405SOL    HW167048  11.918   9.590   0.616
88405SOL    HW267049  11.990   9.623   0.745
88406SOL     OW67050  13.870  14.852   7.271
88406SOL    HW167051  13.798   0.016   7.323
88406SOL    HW267052  13.938  14.833   7.336
88407SOL     OW67053   7.597   8.343   1.133
88407SOL    HW167054   7.605   8.372   1.043
88407SOL    HW267055   7.519   8.387   1.166
88408SOL     OW67056   5.863   3.192  12.121
88408SOL    HW167057   5.905   3.243  12.190
88408SOL    HW267058   5.876   3.244  12.042
88409SOL     OW67059   8.923   4.856   3.855
88409SOL    HW167060   8.910   4.842   3.761
88409SOL    HW267061   8.980   4.784   3.882
88410SOL     OW67062   1.138   6.506   7.895
88410SOL    HW167063   1.223   6.469   7.919
88410SOL    HW267064   1.138   6.504   7.799
88411SOL     OW67065   7.507   0.954   6.328
88411SOL    HW167066   7.428   0.953   6.274
88411SOL    HW267067   7.482   1.004   6.405
88412SOL     OW67068   2.323   6.402   1.859
88412SOL    HW167069   2.300   6.323   1.810
88412SOL    HW267070   2.416   6.414   1.844
88413SOL     OW67071  13.853  10.199   5.835
88413SOL    HW167072  13.845  10.203   5.930
88413SOL    HW267073  13.938  10.240   5.816
88414SOL     OW67074  14.437  11.464   8.911
88414SOL    HW167075  14.363  11.440   8.856
88414SOL    HW267076  14.491  11.520   8.855
88415SOL     OW67077   2.890   6.881   0.778
88415SOL    HW167078   2.881   6.946   0.848
88415SOL    HW267079   2.937   6.808   0.817
88416SOL     OW67080   1.560   0.105  14.056
88416SOL    HW167081   1.499   0.149  13.996
88416SOL    HW267082   1.507   0.037  14.098
88417SOL     OW67083   6.674  12.739   9.044
88417SOL    HW167084   6.744  12.782   9.093
88417SOL    HW267085   6.631  12.683   9.108
88418SOL     OW67086   8.506   6.791   8.857
88418SOL    HW167087   8.513   6.879   8.820
88418SOL    HW267088   8.561   6.792   8.935
88419SOL     OW67089   1.135  12.808   5.497
88419SOL    HW167090   1.166  12.781   5.411
88419SOL    HW267091   1.041  12.788   5.496
88420SOL     OW67092  14.715   8.571   6.002
88420SOL    HW167093  14.772   8.565   5.925
88420SOL    HW267094  14.728   8.489   6.048
88421SOL     OW67095   0.056   8.400  14.847
88421SOL    HW167096   0.084   8.308  14.843
88421SOL    HW267097   0.095   8.433   0.055
88422SOL     OW67098  10.798  11.480  11.239
88422SOL    HW167099  10.767  11.537  11.309
88422SOL    HW267100  10.728  11.416  11.228
88423SOL     OW67101   8.967   2.485   0.772
88423SOL    HW167102   8.960   2.456   0.681
88423SOL    HW267103   8.984   2.579   0.766
88424SOL     OW67104   0.086   2.966   3.695
88424SOL    HW167105  14.870   2.966   3.658
88424SOL    HW267106   0.082   3.030   3.766
88425SOL     OW67107   1.747   1.380   8.540
88425SOL    HW167108   1.683   1.423   8.597
88425SOL    HW267109   1.767   1.445   8.473
88426SOL     OW67110   3.999  14.298   8.271
88426SOL    HW167111   3.943  14.254   8.335
88426SOL    HW267112   3.991  14.244   8.192
88427SOL     OW67113   0.201   9.249   0.697
88427SOL    HW167114   0.213   9.343   0.686
88427SOL    HW267115   0.109   9.238   0.719
88428SOL     OW67116  10.687   7.977  12.986
88428SOL    HW167117  10.608   8.020  12.953
88428SOL    HW267118  10.733   8.046  13.033
88429SOL     OW67119  12.472  12.890  14.728
88429SOL    HW167120  12.521  12.839  14.792
88429SOL    HW267121  12.521  12.878  14.646
88430SOL     OW67122  12.770   6.255   2.792
88430SOL    HW167123  12.810   6.176   2.755
88430SOL    HW267124  12.827   6.326   2.764
88431SOL     OW67125   3.484   6.167   2.959
88431SOL    HW167126   3.571   6.203   2.944
88431SOL    HW267127   3.457   6.202   3.044
88432SOL     OW67128   2.273  12.801   3.089
88432SOL    HW167129   2.355  12.755   3.110
88432SOL    HW267130   2.281  12.885   3.132
88433SOL     OW67131   0.225   1.810   3.344
88433SOL    HW167132   0.205   1.719   3.324
88433SOL    HW267133   0.317   1.810   3.369
88434SOL     OW67134   8.043   9.252   5.469
88434SOL    HW167135   7.959   9.246   5.422
88434SOL    HW267136   8.018   9.276   5.559
88435SOL     OW67137   4.947  14.542   2.943
88435SOL    HW167138   4.934  14.477   3.011
88435SOL    HW267139   5.025  14.590   2.971
88436SOL     OW67140  10.647   2.748   7.859
88436SOL    HW167141  10.714   2.791   7.911
88436SOL    HW267142  10.693   2.716   7.781
88437SOL     OW67143   5.770   1.372   0.698
88437SOL    HW167144   5.716   1.326   0.762
88437SOL    HW267145   5.706   1.411   0.638
88438SOL     OW67146  12.952   0.123  11.059
88438SOL    HW167147  13.015   0.193  11.075
88438SOL    HW267148  12.869   0.169  11.047
88439SOL     OW67149   5.798  10.296   2.851
88439SOL    HW167150   5.868  10.301   2.786
88439SOL    HW267151   5.770  10.387   2.865
88440SOL     OW67152   5.156   5.548   9.372
88440SOL    HW167153   5.157   5.595   9.288
88440SOL    HW267154   5.063   5.534   9.390
88441SOL     OW67155   9.473   4.390   0.155
88441SOL    HW167156   9.477   4.331   0.231
88441SOL    HW267157   9.442   4.474   0.191
88442SOL     OW67158  12.749  14.553  14.293
88442SOL    HW167159  12.765  14.496  14.218
88442SOL    HW267160  12.697  14.625  14.258
88443SOL     OW67161   1.962   0.596   8.798
88443SOL    HW167162   1.914   0.660   8.851
88443SOL    HW267163   1.911   0.515   8.807
88444SOL     OW67164   7.767   0.462  12.214
88444SOL    HW167165   7.806   0.547  12.196
88444SOL    HW267166   7.770   0.415  12.131
88445SOL     OW67167   5.291  14.739  10.939
88445SOL    HW167168   5.364  14.767  10.994
88445SOL    HW267169   5.235  14.816  10.932
88446SOL     OW67170   2.197   7.471   1.168
88446SOL    HW167171   2.223   7.494   1.258
88446SOL    HW267172   2.133   7.539   1.144
88447SOL     OW67173   6.580   0.966  12.642
88447SOL    HW167174   6.670   0.992  12.661
88447SOL    HW267175   6.580   0.871  12.653
88448SOL     OW67176  11.670   0.796  12.353
88448SOL    HW167177  11.628   0.711  12.342
88448SOL    HW267178  11.630   0.833  12.431
88449SOL     OW67179   8.814   3.414   1.484
88449SOL    HW167180   8.819   3.441   1.392
88449SOL    HW267181   8.753   3.340   1.484
88450SOL     OW67182   5.806   4.748  12.996
88450SOL    HW167183   5.847   4.680  13.049
88450SOL    HW267184   5.732   4.778  13.048
88451SOL     OW67185   8.860  11.087   9.687
88451SOL    HW167186   8.809  11.056   9.762
88451SOL    HW267187   8.951  11.068   9.710
88452SOL     OW67188  10.691   4.798  10.496
88452SOL    HW167189  10.602   4.835  10.497
88452SOL    HW267190  10.677   4.704  10.500
88453SOL     OW67191   9.852   0.972  11.598
88453SOL    HW167192   9.922   0.946  11.657
88453SOL    HW267193   9.880   0.942  11.511
88454SOL     OW67194   9.860   8.096  13.873
88454SOL    HW167195   9.818   8.179  13.894
88454SOL    HW267196   9.946   8.121  13.840
88455SOL     OW67197   4.479  12.915  13.614
88455SOL    HW167198   4.556  12.873  13.652
88455SOL    HW267199   4.494  12.913  13.520
88456SOL     OW67200  14.451   4.305   9.122
88456SOL    HW167201  14.512   4.252   9.173
88456SOL    HW267202  14.414   4.244   9.059
88457SOL     OW67203   4.372   4.866   7.897
88457SOL    HW167204   4.343   4.956   7.882
88457SOL    HW267205   4.426   4.871   7.976
88458SOL     OW67206   7.039   4.496  11.455
88458SOL    HW167207   6.971   4.436  11.486
88458SOL    HW267208   7.111   4.438  11.429
88459SOL     OW67209  13.562  11.199  13.773
88459SOL    HW167210  13.507  11.179  13.697
88459SOL    HW267211  13.563  11.294  13.778
88460SOL     OW67212   2.861   4.955  14.797
88460SOL    HW167213   2.855   4.994   0.011
88460SOL    HW267214   2.866   5.030  14.737
88461SOL     OW67215  11.888  11.693  11.465
88461SOL    HW167216  11.905  11.621  11.404
88461SOL    HW267217  11.893  11.653  11.552
88462SOL     OW67218   4.901   7.942  11.802
88462SOL    HW167219   4.808   7.924  11.783
88462SOL    HW267220   4.927   8.007  11.736
88463SOL     OW67221  14.713   4.801   9.944
88463SOL    HW167222  14.759   4.726   9.982
88463SOL    HW267223  14.622   4.787   9.967
88464SOL     OW67224  11.035   9.620  10.141
88464SOL    HW167225  10.990   9.688  10.092
88464SOL    HW267226  10.966   9.561  10.170
88465SOL     OW67227   2.790   1.043  10.553
88465SOL    HW167228   2.751   1.105  10.615
88465SOL    HW267229   2.749   0.959  10.575
88466SOL     OW67230   7.352   1.658   1.506
88466SOL    HW167231   7.427   1.716   1.496
88466SOL    HW267232   7.330   1.662   1.599
88467SOL     OW67233   0.053   8.271   0.742
88467SOL    HW167234   0.113   8.220   0.688
88467SOL    HW267235   0.049   8.357   0.700
88468SOL     OW67236   6.567   6.421   7.057
88468SOL    HW167237   6.613   6.385   7.133
88468SOL    HW267238   6.487   6.369   7.051
88469SOL     OW67239   1.146   5.289   4.729
88469SOL    HW167240   1.136   5.328   4.642
88469SOL    HW267241   1.136   5.195   4.715
88470SOL     OW67242  12.358   8.215   9.763
88470SOL    HW167243  12.320   8.271   9.831
88470SOL    HW267244  12.285   8.165   9.728
88471SOL     OW67245   4.392   4.269   5.106
88471SOL    HW167246   4.332   4.281   5.033
88471SOL    HW267247   4.419   4.358   5.131
88472SOL     OW67248   9.727   1.617   8.339
88472SOL    HW167249   9.746   1.690   8.399
88472SOL    HW267250   9.811   1.595   8.300
88473SOL     OW67251   1.421   1.267   8.668
88473SOL    HW167252   1.414   1.359   8.692
88473SOL    HW267253   1.338   1.247   8.624
88474SOL     OW67254   1.904   4.559  12.024
88474SOL    HW167255   1.826   4.508  12.047
88474SOL    HW267256   1.942   4.514  11.949
88475SOL     OW67257   4.805  10.238  14.714
88475SOL    HW167258   4.845  10.324  14.702
88475SOL    HW267259   4.823  10.216  14.806
88476SOL     OW67260   9.834  11.919   7.918
88476SOL    HW167261   9.794  11.969   7.847
88476SOL    HW267262   9.853  11.984   7.986
88477SOL     OW67263   9.002   2.606  14.202
88477SOL    HW167264   8.922   2.612  14.254
88477SOL    HW267265   8.972   2.584  14.113
88478SOL     OW67266   7.374   3.930   3.852
88478SOL    HW167267   7.432   4.007   3.859
88478SOL    HW267268   7.396   3.877   3.928
88479SOL     OW67269   2.221   0.886   3.536
88479SOL    HW167270   2.231   0.793   3.551
88479SOL    HW267271   2.267   0.902   3.453
88480SOL     OW67272   2.352   6.791   2.443
88480SOL    HW167273   2.322   6.726   2.380
88480SOL    HW267274   2.423   6.748   2.490
88481SOL     OW67275   6.058   5.906  11.575
88481SOL    HW167276   5.975   5.898  11.528
88481SOL    HW267277   6.114   5.838  11.538
88482SOL     OW67278  10.666   1.581   6.144
88482SOL    HW167279  10.687   1.627   6.225
88482SOL    HW267280  10.748   1.581   6.094
88483SOL     OW67281   9.932   3.381  13.547
88483SOL    HW167282   9.848   3.426  13.542
88483SOL    HW267283   9.968   3.388  13.458
88484SOL     OW67284   9.321  13.217   5.495
88484SOL    HW167285   9.259  13.164   5.545
88484SOL    HW267286   9.279  13.229   5.410
88485SOL     OW67287  13.265   1.347  12.769
88485SOL    HW167288  13.355   1.322  12.789
88485SOL    HW267289  13.231   1.275  12.716
88486SOL     OW67290  12.817  12.687   9.845
88486SOL    HW167291  12.870  12.755   9.886
88486SOL    HW267292  12.746  12.734   9.802
88487SOL     OW67293   8.776  13.057   6.005
88487SOL    HW167294   8.835  12.984   5.986
88487SOL    HW267295   8.757  13.048   6.099
88488SOL     OW67296   1.237   7.647   4.763
88488SOL    HW167297   1.278   7.719   4.811
88488SOL    HW267298   1.311   7.591   4.737
88489SOL     OW67299   2.787  13.017  13.417
88489SOL    HW167300   2.767  13.008  13.510
88489SOL    HW267301   2.872  13.061  13.415
88490SOL     OW67302   5.507  12.031   0.086
88490SOL    HW167303   5.516  12.087   0.163
88490SOL    HW267304   5.413  12.032   0.067
88491SOL     OW67305   8.739   1.987   6.607
88491SOL    HW167306   8.731   1.895   6.580
88491SOL    HW267307   8.832   1.998   6.624
88492SOL     OW67308   5.379   4.328   8.074
88492SOL    HW167309   5.288   4.324   8.046
88492SOL    HW267310   5.386   4.264   8.145
88493SOL     OW67311  10.488   3.929   5.758
88493SOL    HW167312  10.513   4.009   5.805
88493SOL    HW267313  10.563   3.871   5.767
88494SOL     OW67314   9.957  14.340   9.065
88494SOL    HW167315  10.026  14.352   8.999
88494SOL    HW267316   9.944  14.245   9.069
88495SOL     OW67317  10.295  13.186   2.769
88495SOL    HW167318  10.365  13.154   2.826
88495SOL    HW267319  10.228  13.218   2.829
88496SOL     OW67320  14.387   6.124   3.964
88496SOL    HW167321  14.408   6.208   3.922
88496SOL    HW267322  14.321   6.085   3.906
88497SOL     OW67323   3.059  11.598   2.725
88497SOL    HW167324   3.123  11.669   2.724
88497SOL    HW267325   3.057  11.568   2.816
88498SOL     OW67326  12.668   0.685   5.922
88498SOL    HW167327  12.592   0.635   5.893
88498SOL    HW267328  12.736   0.620   5.935
88499SOL     OW67329  13.850   1.399   8.916
88499SOL    HW167330  13.814   1.474   8.963
88499SOL    HW267331  13.917   1.363   8.975
88500SOL     OW67332  13.048   2.634   1.662
88500SOL    HW167333  12.982   2.683   1.710
88500SOL    HW267334  13.123   2.693   1.656
88501SOL     OW67335   2.869   4.003   0.813
88501SOL    HW167336   2.819   3.922   0.811
88501SOL    HW267337   2.841   4.048   0.893
88502SOL     OW67338   7.078  12.985  11.832
88502SOL    HW167339   7.073  13.075  11.864
88502SOL    HW267340   7.026  12.935  11.895
88503SOL     OW67341  14.123   8.599  11.511
88503SOL    HW167342  14.091   8.637  11.429
88503SOL    HW267343  14.043   8.581  11.562
88504SOL     OW67344  13.521   7.421   8.678
88504SOL    HW167345  13.479   7.414   8.764
88504SOL    HW267346  13.519   7.333   8.642
88505SOL     OW67347   6.140   4.550   2.412
88505SOL    HW167348   6.147   4.455   2.400
88505SOL    HW267349   6.046   4.565   2.425
88506SOL     OW67350   2.730  12.055  14.132
88506SOL    HW167351   2.783  12.058  14.053
88506SOL    HW267352   2.653  12.108  14.112
88507SOL     OW67353   7.089   3.188   4.242
88507SOL    HW167354   7.061   3.238   4.318
88507SOL    HW267355   7.021   3.121   4.231
88508SOL     OW67356  13.683   5.359   4.460
88508SOL    HW167357  13.653   5.275   4.495
88508SOL    HW267358  13.745   5.391   4.526
88509SOL     OW67359   7.546  10.123  13.060
88509SOL    HW167360   7.628  10.134  13.108
88509SOL    HW267361   7.520  10.211  13.036
88510SOL     OW67362   3.620  13.842  14.428
88510SOL    HW167363   3.688  13.897  14.467
88510SOL    HW267364   3.639  13.845  14.334
88511SOL     OW67365   4.799   5.799  11.319
88511SOL    HW167366   4.794   5.743  11.396
88511SOL    HW267367   4.892   5.824  11.314
88512SOL     OW67368   2.923   2.309   0.384
88512SOL    HW167369   2.851   2.328   0.324
88512SOL    HW267370   2.934   2.391   0.433
88513SOL     OW67371  11.888   8.819  13.855
88513SOL    HW167372  11.924   8.903  13.885
88513SOL    HW267373  11.893   8.824  13.760
88514SOL     OW67374   2.595   8.104  11.662
88514SOL    HW167375   2.645   8.130  11.584
88514SOL    HW267376   2.638   8.023  11.691
88515SOL     OW67377   2.383   3.590  12.928
88515SOL    HW167378   2.370   3.664  12.988
88515SOL    HW267379   2.394   3.514  12.985
88516SOL     OW67380   1.515   3.556   6.264
88516SOL    HW167381   1.587   3.503   6.230
88516SOL    HW267382   1.449   3.492   6.292
88517SOL     OW67383   7.303   3.676   7.639
88517SOL    HW167384   7.217   3.634   7.630
88517SOL    HW267385   7.307   3.704   7.730
88518SOL     OW67386  14.036   9.963   8.054
88518SOL    HW167387  14.051   9.950   7.960
88518SOL    HW267388  14.051   9.877   8.093
88519SOL     OW67389   1.194   0.974   5.949
88519SOL    HW167390   1.266   1.014   5.997
88519SOL    HW267391   1.132   0.947   6.017
88520SOL     OW67392  13.972  12.762  14.826
88520SOL    HW167393  13.951  12.851  14.853
88520SOL    HW267394  14.015  12.723   0.030
88521SOL     OW67395  11.457   3.016   7.780
88521SOL    HW167396  11.501   3.101   7.774
88521SOL    HW267397  11.416   3.017   7.867
88522SOL     OW67398   0.208   3.642  10.024
88522SOL    HW167399   0.133   3.583  10.011
88522SOL    HW267400   0.229   3.632  10.117
88523SOL     OW67401   9.583   4.211  11.365
88523SOL    HW167402   9.501   4.231  11.320
88523SOL    HW267403   9.644   4.278  11.332
88524SOL     OW67404   6.083   5.229   6.451
88524SOL    HW167405   6.137   5.211   6.528
88524SOL    HW267406   6.110   5.316   6.422
88525SOL     OW67407   7.670  13.142   1.019
88525SOL    HW167408   7.640  13.226   1.055
88525SOL    HW267409   7.594  13.084   1.028
88526SOL     OW67410   7.912   6.433   9.157
88526SOL    HW167411   7.917   6.412   9.064
88526SOL    HW267412   7.945   6.523   9.163
88527SOL     OW67413  14.674   5.294  12.826
88527SOL    HW167414  14.719   5.341  12.896
88527SOL    HW267415  14.631   5.362  12.775
88528SOL     OW67416   1.361   7.450   6.022
88528SOL    HW167417   1.364   7.458   5.927
88528SOL    HW267418   1.272   7.476   6.045
88529SOL     OW67419  11.813  13.938   8.658
88529SOL    HW167420  11.792  14.020   8.702
88529SOL    HW267421  11.871  13.962   8.586
88530SOL     OW67422   1.031   0.225  14.413
88530SOL    HW167423   1.123   0.233  14.388
88530SOL    HW267424   0.984   0.274  14.345
88531SOL     OW67425  12.716   5.269   5.148
88531SOL    HW167426  12.673   5.354   5.143
88531SOL    HW267427  12.644   5.206   5.144
88532SOL     OW67428   3.643  13.880   0.390
88532SOL    HW167429   3.713  13.871   0.454
88532SOL    HW267430   3.584  13.807   0.408
88533SOL     OW67431  14.137   9.401   6.479
88533SOL    HW167432  14.117   9.368   6.566
88533SOL    HW267433  14.179   9.486   6.494
88534SOL     OW67434  13.432   7.182  11.291
88534SOL    HW167435  13.448   7.125  11.366
88534SOL    HW267436  13.483   7.142  11.220
88535SOL     OW67437   0.907  12.990   1.108
88535SOL    HW167438   0.967  13.036   1.050
88535SOL    HW267439   0.922  13.029   1.194
88536SOL     OW67440   2.909  12.154   4.972
88536SOL    HW167441   2.823  12.175   5.008
88536SOL    HW267442   2.943  12.238   4.941
88537SOL     OW67443   4.560   2.854   8.431
88537SOL    HW167444   4.530   2.942   8.453
88537SOL    HW267445   4.542   2.846   8.337
88538SOL     OW67446   4.598   4.115   8.228
88538SOL    HW167447   4.626   4.095   8.317
88538SOL    HW267448   4.679   4.118   8.177
88539SOL     OW67449   8.686   8.436  11.972
88539SOL    HW167450   8.630   8.491  12.026
88539SOL    HW267451   8.626   8.375  11.929
88540SOL     OW67452   3.799   9.778   3.924
88540SOL    HW167453   3.707   9.750   3.920
88540SOL    HW267454   3.795   9.871   3.947
88541SOL     OW67455   3.287  14.859   4.296
88541SOL    HW167456   3.300   0.062   4.239
88541SOL    HW267457   3.206  14.819   4.264
88542SOL     OW67458   6.367   5.805  13.054
88542SOL    HW167459   6.376   5.822  12.961
88542SOL    HW267460   6.442   5.749  13.076
88543SOL     OW67461   2.118   8.687   3.924
88543SOL    HW167462   2.136   8.768   3.876
88543SOL    HW267463   2.199   8.636   3.917
88544SOL     OW67464  12.505  12.082  12.058
88544SOL    HW167465  12.473  12.005  12.012
88544SOL    HW267466  12.478  12.156  12.004
88545SOL     OW67467  11.852   9.205   3.268
88545SOL    HW167468  11.893   9.187   3.353
88545SOL    HW267469  11.897   9.283   3.236
88546SOL     OW67470   6.293   5.243  11.605
88546SOL    HW167471   6.263   5.307  11.541
88546SOL    HW267472   6.236   5.167  11.592
88547SOL     OW67473   2.800  10.375  12.678
88547SOL    HW167474   2.708  10.389  12.699
88547SOL    HW267475   2.832  10.317  12.748
88548SOL     OW67476   2.429   6.437  14.645
88548SOL    HW167477   2.511   6.391  14.630
88548SOL    HW267478   2.366   6.394  14.586
88549SOL     OW67479   7.759   0.381   7.232
88549SOL    HW167480   7.825   0.384   7.163
88549SOL    HW267481   7.684   0.336   7.193
88550SOL     OW67482  14.189   0.633   2.960
88550SOL    HW167483  14.210   0.611   3.050
88550SOL    HW267484  14.201   0.728   2.955
88551SOL     OW67485   5.700  14.676   6.973
88551SOL    HW167486   5.757  14.661   7.048
88551SOL    HW267487   5.636  14.740   7.005
88552SOL     OW67488   8.390   0.572   4.715
88552SOL    HW167489   8.398   0.591   4.622
88552SOL    HW267490   8.480   0.561   4.746
88553SOL     OW67491   4.187   8.602  11.653
88553SOL    HW167492   4.141   8.671  11.605
88553SOL    HW267493   4.274   8.599  11.614
88554SOL     OW67494  12.404   3.230  12.456
88554SOL    HW167495  12.322   3.182  12.469
88554SOL    HW267496  12.424   3.218  12.364
88555SOL     OW67497   3.215  10.103   5.620
88555SOL    HW167498   3.264  10.023   5.600
88555SOL    HW267499   3.128  10.087   5.585
88556SOL     OW67500   2.844   5.479   2.438
88556SOL    HW167501   2.790   5.400   2.430
88556SOL    HW267502   2.819   5.517   2.522
88557SOL     OW67503   2.730   6.799   3.553
88557SOL    HW167504   2.765   6.804   3.642
88557SOL    HW267505   2.639   6.827   3.562
88558SOL     OW67506   1.324   2.250  13.949
88558SOL    HW167507   1.337   2.316  14.017
88558SOL    HW267508   1.413   2.221  13.926
88559SOL     OW67509   9.525   9.878  11.045
88559SOL    HW167510   9.572   9.820  10.985
88559SOL    HW267511   9.473   9.934  10.987
88560SOL     OW67512  11.403  13.723   4.352
88560SOL    HW167513  11.430  13.671   4.276
88560SOL    HW267514  11.310  13.705   4.362
88561SOL     OW67515   9.685  14.750   6.461
88561SOL    HW167516   9.689  14.705   6.377
88561SOL    HW267517   9.777  14.762   6.486
88562SOL     OW67518  14.171   3.667  14.394
88562SOL    HW167519  14.100   3.630  14.342
88562SOL    HW267520  14.155   3.761  14.393
88563SOL     OW67521   2.024  10.542   7.454
88563SOL    HW167522   1.962  10.615   7.451
88563SOL    HW267523   2.091  10.564   7.390
88564SOL     OW67524   4.243   8.347   2.519
88564SOL    HW167525   4.198   8.263   2.524
88564SOL    HW267526   4.209   8.397   2.594
88565SOL     OW67527  13.147  12.415  12.208
88565SOL    HW167528  13.180  12.326  12.193
88565SOL    HW267529  13.208  12.471  12.161
88566SOL     OW67530  10.543   5.749   1.876
88566SOL    HW167531  10.466   5.697   1.856
88566SOL    HW267532  10.534   5.771   1.969
88567SOL     OW67533   7.934   6.221  11.880
88567SOL    HW167534   7.932   6.138  11.927
88567SOL    HW267535   7.978   6.282  11.939
88568SOL     OW67536   3.371  12.890   9.559
88568SOL    HW167537   3.298  12.857   9.507
88568SOL    HW267538   3.387  12.822   9.624
88569SOL     OW67539   6.241   6.229   2.232
88569SOL    HW167540   6.323   6.267   2.266
88569SOL    HW267541   6.179   6.239   2.304
88570SOL     OW67542  12.940   3.920  10.106
88570SOL    HW167543  13.008   3.856  10.086
88570SOL    HW267544  12.962   3.952  10.193
88571SOL     OW67545  12.566   1.437   0.531
88571SOL    HW167546  12.615   1.487   0.466
88571SOL    HW267547  12.625   1.366   0.557
88572SOL     OW67548  14.813   2.504  12.236
88572SOL    HW167549  14.718   2.495  12.248
88572SOL    HW267550  14.834   2.447  12.163
88573SOL     OW67551  10.658   6.454   0.617
88573SOL    HW167552  10.621   6.366   0.611
88573SOL    HW267553  10.734   6.453   0.558
88574SOL     OW67554   9.437  12.061  14.393
88574SOL    HW167555   9.504  12.003  14.430
88574SOL    HW267556   9.410  12.117  14.466
88575SOL     OW67557   1.145  11.690  12.862
88575SOL    HW167558   1.098  11.607  12.850
88575SOL    HW267559   1.150  11.728  12.774
88576SOL     OW67560   6.372  11.575   3.237
88576SOL    HW167561   6.391  11.521   3.314
88576SOL    HW267562   6.400  11.663   3.262
88577SOL     OW67563  10.158   1.346   5.202
88577SOL    HW167564  10.102   1.345   5.279
88577SOL    HW267565  10.118   1.412   5.144
88578SOL     OW67566   1.871   6.562   8.455
88578SOL    HW167567   1.872   6.468   8.471
88578SOL    HW267568   1.911   6.572   8.369
88579SOL     OW67569  14.811   0.078  10.774
88579SOL    HW167570  14.867   0.105  10.701
88579SOL    HW267571  14.779  14.864  10.750
88580SOL     OW67572  12.968   7.674   2.071
88580SOL    HW167573  12.888   7.641   2.111
88580SOL    HW267574  13.039   7.627   2.115
88581SOL     OW67575   3.857   1.023   3.257
88581SOL    HW167576   3.951   1.039   3.254
88581SOL    HW267577   3.843   0.954   3.192
88582SOL     OW67578  12.452  11.112   4.660
88582SOL    HW167579  12.438  11.019   4.645
88582SOL    HW267580  12.437  11.125   4.753
88583SOL     OW67581   2.858  11.024  13.749
88583SOL    HW167582   2.899  11.061  13.828
88583SOL    HW267583   2.802  10.954  13.782
88584SOL     OW67584   6.084   4.158   8.533
88584SOL    HW167585   6.132   4.112   8.602
88584SOL    HW267586   6.146   4.223   8.499
88585SOL     OW67587   6.668   6.312   5.543
88585SOL    HW167588   6.755   6.274   5.540
88585SOL    HW267589   6.612   6.249   5.498
88586SOL     OW67590  13.233   9.166   0.567
88586SOL    HW167591  13.249   9.089   0.512
88586SOL    HW267592  13.229   9.131   0.656
88587SOL     OW67593  12.484   6.597   3.503
88587SOL    HW167594  12.573   6.574   3.529
88587SOL    HW267595  12.470   6.548   3.422
88588SOL     OW67596   9.555  13.116   2.063
88588SOL    HW167597   9.624  13.170   2.022
88588SOL    HW267598   9.559  13.139   2.156
88589SOL     OW67599   7.958  13.781   9.128
88589SOL    HW167600   7.958  13.685   9.119
88589SOL    HW267601   8.048  13.807   9.110
88590SOL     OW67602   7.154   5.708  11.049
88590SOL    HW167603   7.246   5.724  11.030
88590SOL    HW267604   7.130   5.774  11.114
88591SOL     OW67605   2.937   8.016  13.810
88591SOL    HW167606   2.972   8.066  13.884
88591SOL    HW267607   2.995   8.036  13.737
88592SOL     OW67608   4.230  12.081  11.115
88592SOL    HW167609   4.159  12.019  11.131
88592SOL    HW267610   4.293  12.062  11.184
88593SOL     OW67611   8.916   7.954   6.052
88593SOL    HW167612   8.891   8.009   5.977
88593SOL    HW267613   9.009   7.938   6.039
88594SOL     OW67614  11.765   1.416   4.039
88594SOL    HW167615  11.823   1.341   4.049
88594SOL    HW267616  11.694   1.400   4.101
88595SOL     OW67617   6.350  11.803  10.377
88595SOL    HW167618   6.407  11.745  10.428
88595SOL    HW267619   6.264  11.795  10.418
88596SOL     OW67620   0.659   2.711  12.075
88596SOL    HW167621   0.605   2.787  12.096
88596SOL    HW267622   0.749   2.743  12.080
88597SOL     OW67623  13.321   4.539   7.322
88597SOL    HW167624  13.252   4.593   7.284
88597SOL    HW267625  13.309   4.547   7.417
88598SOL     OW67626  12.819   6.468  10.929
88598SOL    HW167627  12.912   6.471  10.951
88598SOL    HW267628  12.777   6.426  11.004
88599SOL     OW67629   7.258   5.412   4.612
88599SOL    HW167630   7.284   5.341   4.671
88599SOL    HW267631   7.242   5.369   4.528
88600SOL     OW67632  11.354   5.415  12.768
88600SOL    HW167633  11.329   5.328  12.737
88600SOL    HW267634  11.447   5.407  12.789
88601SOL     OW67635  10.440   0.605  11.491
88601SOL    HW167636  10.480   0.562  11.415
88601SOL    HW267637  10.346   0.600  11.475
88602SOL     OW67638  14.684   2.611   8.663
88602SOL    HW167639  14.660   2.629   8.572
88602SOL    HW267640  14.752   2.676   8.683
88603SOL     OW67641   3.660  13.418   4.863
88603SOL    HW167642   3.595  13.439   4.930
88603SOL    HW267643   3.680  13.326   4.877
88604SOL     OW67644   5.932   7.191   7.999
88604SOL    HW167645   5.980   7.110   7.984
88604SOL    HW267646   5.900   7.183   8.089
88605SOL     OW67647   1.943   1.942  11.144
88605SOL    HW167648   1.907   1.989  11.069
88605SOL    HW267649   1.898   1.857  11.142
88606SOL     OW67650   4.786   8.239   4.364
88606SOL    HW167651   4.720   8.213   4.299
88606SOL    HW267652   4.735   8.265   4.441
88607SOL     OW67653   6.053  13.550   4.636
88607SOL    HW167654   5.985  13.609   4.604
88607SOL    HW267655   6.017  13.462   4.624
88608SOL     OW67656   7.380   3.326   6.900
88608SOL    HW167657   7.338   3.241   6.914
88608SOL    HW267658   7.421   3.319   6.814
88609SOL     OW67659   9.405   7.609  14.607
88609SOL    HW167660   9.480   7.579  14.659
88609SOL    HW267661   9.444   7.650  14.530
88610SOL     OW67662   7.420   6.565   8.451
88610SOL    HW167663   7.335   6.537   8.483
88610SOL    HW267664   7.403   6.605   8.366
88611SOL     OW67665  12.072   7.325   4.814
88611SOL    HW167666  12.040   7.302   4.727
88611SOL    HW267667  12.017   7.275   4.874
88612SOL     OW67668  11.839   7.267  10.314
88612SOL    HW167669  11.761   7.215  10.300
88612SOL    HW267670  11.842   7.327  10.240
88613SOL     OW67671   9.738   3.145   8.355
88613SOL    HW167672   9.644   3.136   8.342
88613SOL    HW267673   9.770   3.056   8.365
88614SOL     OW67674  13.676  13.658  10.224
88614SOL    HW167675  13.748  13.605  10.190
88614SOL    HW267676  13.708  13.691  10.308
88615SOL     OW67677   5.239   6.090  14.417
88615SOL    HW167678   5.256   6.073  14.510
88615SOL    HW267679   5.299   6.033  14.370
88616SOL     OW67680   6.705  10.826  12.173
88616SOL    HW167681   6.627  10.852  12.125
88616SOL    HW267682   6.746  10.908  12.200
88617SOL     OW67683   7.988  13.857   3.983
88617SOL    HW167684   8.075  13.864   3.944
88617SOL    HW267685   7.930  13.835   3.910
88618SOL     OW67686  14.763   7.040   7.175
88618SOL    HW167687  14.740   7.120   7.127
88618SOL    HW267688  14.834   7.001   7.123
88619SOL     OW67689   7.190  10.353   4.926
88619SOL    HW167690   7.158  10.311   4.846
88619SOL    HW267691   7.205  10.444   4.900
88620SOL     OW67692   2.744   5.848  14.419
88620SOL    HW167693   2.697   5.777  14.463
88620SOL    HW267694   2.788   5.895  14.490
88621SOL     OW67695  12.606  12.294  13.894
88621SOL    HW167696  12.679  12.245  13.933
88621SOL    HW267697  12.572  12.236  13.826
88622SOL     OW67698   7.498   3.250   7.174
88622SOL    HW167699   7.446   3.196   7.234
88622SOL    HW267700   7.433   3.293   7.118
88623SOL     OW67701   7.984   3.369  13.931
88623SOL    HW167702   7.974   3.274  13.932
88623SOL    HW267703   7.917   3.399  13.869
88624SOL     OW67704  13.810  13.021   9.966
88624SOL    HW167705  13.868  12.988   9.898
88624SOL    HW267706  13.864  13.025  10.045
88625SOL     OW67707  12.510   3.076   3.401
88625SOL    HW167708  12.517   3.032   3.487
88625SOL    HW267709  12.601   3.088   3.374
88626SOL     OW67710  11.114   8.664  13.072
88626SOL    HW167711  11.093   8.733  13.009
88626SOL    HW267712  11.210   8.661  13.072
88627SOL     OW67713   8.517   2.291   4.833
88627SOL    HW167714   8.606   2.283   4.867
88627SOL    HW267715   8.478   2.205   4.847
88628SOL     OW67716   7.163   6.756  13.661
88628SOL    HW167717   7.119   6.716  13.585
88628SOL    HW267718   7.148   6.693  13.732
88629SOL     OW67719   2.118   0.735  11.561
88629SOL    HW167720   2.088   0.644  11.569
88629SOL    HW267721   2.211   0.728  11.541
88630SOL     OW67722  13.409   6.491   8.432
88630SOL    HW167723  13.415   6.466   8.524
88630SOL    HW267724  13.345   6.430   8.394
88631SOL     OW67725   0.833   8.720   7.734
88631SOL    HW167726   0.876   8.798   7.701
88631SOL    HW267727   0.904   8.667   7.770
88632SOL     OW67728  14.679  11.397  13.284
88632SOL    HW167729  14.700  11.402  13.191
88632SOL    HW267730  14.740  11.458  13.326
88633SOL     OW67731  14.075   4.734   1.283
88633SOL    HW167732  14.071   4.828   1.301
88633SOL    HW267733  14.097   4.728   1.190
88634SOL     OW67734  13.887  14.629   9.683
88634SOL    HW167735  13.934  14.701   9.724
88634SOL    HW267736  13.816  14.608   9.744
88635SOL     OW67737   9.588   3.183   0.880
88635SOL    HW167738   9.528   3.128   0.831
88635SOL    HW267739   9.549   3.270   0.877
88636SOL     OW67740   9.808   7.078   5.047
88636SOL    HW167741   9.824   7.023   4.970
88636SOL    HW267742   9.803   7.016   5.120
88637SOL     OW67743   1.327  10.373  12.407
88637SOL    HW167744   1.405  10.336  12.367
88637SOL    HW267745   1.256  10.349  12.348
88638SOL     OW67746   7.051   8.311   4.998
88638SOL    HW167747   7.013   8.248   5.058
88638SOL    HW267748   6.987   8.383   4.994
88639SOL     OW67749   5.092   8.021   1.013
88639SOL    HW167750   5.006   8.018   0.970
88639SOL    HW267751   5.153   7.990   0.947
88640SOL     OW67752  10.533   5.023   1.789
88640SOL    HW167753  10.506   5.069   1.709
88640SOL    HW267754  10.535   5.090   1.856
88641SOL     OW67755   4.286   8.563   9.464
88641SOL    HW167756   4.268   8.644   9.512
88641SOL    HW267757   4.307   8.592   9.375
88642SOL     OW67758   1.868   7.051   9.625
88642SOL    HW167759   1.844   6.960   9.609
88642SOL    HW267760   1.949   7.046   9.676
88643SOL     OW67761   1.109   7.114   3.480
88643SOL    HW167762   1.038   7.170   3.450
88643SOL    HW267763   1.175   7.120   3.411
88644SOL     OW67764   6.375   2.188  12.810
88644SOL    HW167765   6.281   2.202  12.823
88644SOL    HW267766   6.413   2.195  12.898
88645SOL     OW67767   4.010  11.243   6.478
88645SOL    HW167768   3.977  11.332   6.492
88645SOL    HW267769   4.030  11.211   6.566
88646SOL     OW67770  11.339   8.003  10.359
88646SOL    HW167771  11.432   8.021  10.344
88646SOL    HW267772  11.314   7.944  10.288
88647SOL     OW67773   4.592   4.803  10.078
88647SOL    HW167774   4.571   4.880  10.025
88647SOL    HW267775   4.640   4.838  10.153
88648SOL     OW67776   4.455   3.848   2.833
88648SOL    HW167777   4.405   3.803   2.902
88648SOL    HW267778   4.451   3.940   2.858
88649SOL     OW67779   8.547   3.845   2.631
88649SOL    HW167780   8.473   3.896   2.663
88649SOL    HW267781   8.601   3.909   2.584
88650SOL     OW67782   1.656   4.652   3.215
88650SOL    HW167783   1.676   4.690   3.129
88650SOL    HW267784   1.642   4.559   3.197
88651SOL     OW67785  13.485   2.457   5.621
88651SOL    HW167786  13.572   2.449   5.583
88651SOL    HW267787  13.445   2.530   5.575
88652SOL     OW67788   7.573   7.557  10.113
88652SOL    HW167789   7.527   7.632  10.150
88652SOL    HW267790   7.577   7.494  10.185
88653SOL     OW67791   4.439  12.250   3.674
88653SOL    HW167792   4.478  12.279   3.591
88653SOL    HW267793   4.365  12.195   3.648
88654SOL     OW67794   9.039  12.184   9.017
88654SOL    HW167795   8.975  12.113   9.013
88654SOL    HW267796   9.011  12.237   9.091
88655SOL     OW67797  10.981  13.657   7.327
88655SOL    HW167798  11.057  13.605   7.300
88655SOL    HW267799  10.908  13.595   7.326
88656SOL     OW67800   0.122   4.294   3.954
88656SOL    HW167801   0.166   4.239   3.890
88656SOL    HW267802   0.173   4.374   3.957
88657SOL     OW67803   9.983  14.571   6.132
88657SOL    HW167804   9.916  14.599   6.070
88657SOL    HW267805  10.065  14.574   6.083
88658SOL     OW67806   5.539   1.231   7.862
88658SOL    HW167807   5.448   1.215   7.886
88658SOL    HW267808   5.534   1.285   7.784
88659SOL     OW67809  10.591   8.483   1.745
88659SOL    HW167810  10.518   8.440   1.790
88659SOL    HW267811  10.608   8.561   1.796
88660SOL     OW67812  10.889   2.878   7.072
88660SOL    HW167813  10.824   2.912   7.010
88660SOL    HW267814  10.942   2.954   7.096
88661SOL     OW67815   9.246   5.735   1.763
88661SOL    HW167816   9.181   5.682   1.717
88661SOL    HW267817   9.245   5.820   1.718
88662SOL     OW67818   5.588   2.588   0.513
88662SOL    HW167819   5.569   2.680   0.493
88662SOL    HW267820   5.516   2.560   0.569
88663SOL     OW67821   0.488   1.771   3.744
88663SOL    HW167822   0.470   1.832   3.816
88663SOL    HW267823   0.407   1.722   3.733
88664SOL     OW67824   1.621  14.244  13.566
88664SOL    HW167825   1.536  14.225  13.605
88664SOL    HW267826   1.626  14.340  13.564
88665SOL     OW67827  13.285   7.212   4.607
88665SOL    HW167828  13.342   7.169   4.671
88665SOL    HW267829  13.345   7.247   4.541
88666SOL     OW67830   3.812   5.329  11.590
88666SOL    HW167831   3.740   5.271  11.615
88666SOL    HW267832   3.807   5.333  11.494
88667SOL     OW67833   5.204  11.582   2.062
88667SOL    HW167834   5.246  11.503   2.094
88667SOL    HW267835   5.137  11.552   2.002
88668SOL     OW67836   7.353   0.987   0.130
88668SOL    HW167837   7.437   1.033   0.130
88668SOL    HW267838   7.296   1.042   0.076
88669SOL     OW67839   5.125   6.290  10.738
88669SOL    HW167840   5.058   6.321  10.678
88669SOL    HW267841   5.076   6.249  10.809
88670SOL     OW67842   2.859   5.895   7.264
88670SOL    HW167843   2.911   5.895   7.184
88670SOL    HW267844   2.773   5.862   7.237
88671SOL     OW67845   4.106  11.633  12.918
88671SOL    HW167846   4.122  11.590  12.834
88671SOL    HW267847   4.141  11.721  12.906
88672SOL     OW67848   1.634  11.955  14.194
88672SOL    HW167849   1.635  11.859  14.201
88672SOL    HW267850   1.573  11.972  14.122
88673SOL     OW67851   8.918   8.813   4.845
88673SOL    HW167852   8.834   8.787   4.807
88673SOL    HW267853   8.918   8.908   4.840
88674SOL     OW67854   5.161   4.148  12.546
88674SOL    HW167855   5.161   4.078  12.611
88674SOL    HW267856   5.127   4.224  12.594
88675SOL     OW67857  10.318   9.891  11.241
88675SOL    HW167858  10.313   9.909  11.147
88675SOL    HW267859  10.405   9.852  11.253
88676SOL     OW67860   4.577  11.009   8.815
88676SOL    HW167861   4.520  10.979   8.744
88676SOL    HW267862   4.547  10.960   8.892
88677SOL     OW67863   3.387   6.613  11.157
88677SOL    HW167864   3.428   6.562  11.226
88677SOL    HW267865   3.353   6.691  11.200
88678SOL     OW67866  14.628   8.494   6.784
88678SOL    HW167867  14.693   8.534   6.842
88678SOL    HW267868  14.663   8.507   6.696
88679SOL     OW67869  13.969  12.877   2.798
88679SOL    HW167870  14.059  12.845   2.800
88679SOL    HW267871  13.928  12.833   2.723
88680SOL     OW67872   9.006  12.493   4.573
88680SOL    HW167873   8.969  12.451   4.651
88680SOL    HW267874   9.084  12.539   4.606
88681SOL     OW67875   6.043   9.140  10.056
88681SOL    HW167876   6.059   9.106  10.144
88681SOL    HW267877   6.082   9.227  10.056
88682SOL     OW67878   4.378  11.516   4.682
88682SOL    HW167879   4.452  11.556   4.636
88682SOL    HW267880   4.348  11.585   4.742
88683SOL     OW67881  10.853   2.959   5.621
88683SOL    HW167882  10.922   2.998   5.567
88683SOL    HW267883  10.869   2.865   5.615
88684SOL     OW67884  12.617   5.088  13.111
88684SOL    HW167885  12.597   5.093  13.018
88684SOL    HW267886  12.710   5.108  13.118
88685SOL     OW67887   0.107   3.443   5.972
88685SOL    HW167888   0.109   3.529   6.014
88685SOL    HW267889   0.036   3.396   6.016
88686SOL     OW67890   1.047   5.590   7.262
88686SOL    HW167891   1.057   5.640   7.342
88686SOL    HW267892   1.132   5.547   7.249
88687SOL     OW67893   6.019   6.371   4.963
88687SOL    HW167894   6.008   6.452   5.014
88687SOL    HW267895   6.114   6.361   4.955
88688SOL     OW67896   2.094  11.631  10.552
88688SOL    HW167897   2.186  11.658  10.550
88688SOL    HW267898   2.053  11.682  10.482
88689SOL     OW67899   8.050   5.797  11.633
88689SOL    HW167900   7.994   5.871  11.608
88689SOL    HW267901   8.139   5.827  11.612
88690SOL     OW67902  14.866  11.739  13.629
88690SOL    HW167903   0.021  11.721  13.719
88690SOL    HW267904  14.785  11.790  13.639
88691SOL     OW67905   5.505   7.194   2.958
88691SOL    HW167906   5.577   7.212   2.898
88691SOL    HW267907   5.448   7.134   2.910
88692SOL     OW67908   7.870   6.519   0.988
88692SOL    HW167909   7.834   6.560   0.909
88692SOL    HW267910   7.893   6.430   0.960
88693SOL     OW67911   9.549   1.301   1.341
88693SOL    HW167912   9.582   1.273   1.255
88693SOL    HW267913   9.594   1.384   1.358
88694SOL     OW67914   5.270   2.259  10.689
88694SOL    HW167915   5.238   2.216  10.769
88694SOL    HW267916   5.319   2.191  10.644
88695SOL     OW67917  11.666   5.411   7.373
88695SOL    HW167918  11.616   5.357   7.434
88695SOL    HW267919  11.714   5.472   7.429
88696SOL     OW67920   2.678  10.504   3.546
88696SOL    HW167921   2.651  10.563   3.476
88696SOL    HW267922   2.657  10.417   3.513
88697SOL     OW67923   8.332   9.660  13.384
88697SOL    HW167924   8.324   9.706  13.467
88697SOL    HW267925   8.305   9.724  13.318
88698SOL     OW67926   5.463   4.099  13.567
88698SOL    HW167927   5.458   4.041  13.642
88698SOL    HW267928   5.421   4.050  13.496
88699SOL     OW67929   2.995  14.124   8.389
88699SOL    HW167930   2.984  14.037   8.350
88699SOL    HW267931   3.087  14.145   8.377
88700SOL     OW67932  13.856  12.140  10.278
88700SOL    HW167933  13.879  12.089  10.200
88700SOL    HW267934  13.940  12.157  10.320
88701SOL     OW67935   5.624   5.125   9.247
88701SOL    HW167936   5.699   5.073   9.275
88701SOL    HW267937   5.609   5.097   9.156
88702SOL     OW67938  11.289   6.771   7.836
88702SOL    HW167939  11.237   6.802   7.911
88702SOL    HW267940  11.249   6.687   7.813
88703SOL     OW67941  11.617  12.248   0.547
88703SOL    HW167942  11.609  12.336   0.510
88703SOL    HW267943  11.710  12.227   0.539
88704SOL     OW67944   8.848   8.752   8.269
88704SOL    HW167945   8.794   8.675   8.251
88704SOL    HW267946   8.925   8.717   8.314
88705SOL     OW67947   9.159  13.864  10.795
88705SOL    HW167948   9.180  13.859  10.702
88705SOL    HW267949   9.244  13.879  10.838
88706SOL     OW67950  14.455   6.435  11.459
88706SOL    HW167951  14.384   6.492  11.427
88706SOL    HW267952  14.431   6.414  11.549
88707SOL     OW67953   5.916   5.904   5.952
88707SOL    HW167954   5.955   5.978   5.904
88707SOL    HW267955   5.888   5.844   5.883
88708SOL     OW67956  11.098  10.105   1.597
88708SOL    HW167957  11.150  10.104   1.517
88708SOL    HW267958  11.076  10.013   1.613
88709SOL     OW67959  10.519   9.527  12.632
88709SOL    HW167960  10.610   9.513  12.661
88709SOL    HW267961  10.466   9.509  12.710
88710SOL     OW67962   2.818   4.761   2.887
88710SOL    HW167963   2.727   4.732   2.886
88710SOL    HW267964   2.837   4.777   2.979
88711SOL     OW67965   1.627  13.945   9.943
88711SOL    HW167966   1.594  13.917   9.858
88711SOL    HW267967   1.548  13.954   9.997
88712SOL     OW67968  13.926  14.109  11.137
88712SOL    HW167969  13.952  14.018  11.151
88712SOL    HW267970  13.897  14.140  11.223
88713SOL     OW67971   1.620   8.206   0.992
88713SOL    HW167972   1.715   8.219   0.996
88713SOL    HW267973   1.584   8.294   0.986
88714SOL     OW67974  13.039   8.055   3.757
88714SOL    HW167975  13.084   7.976   3.726
88714SOL    HW267976  12.958   8.058   3.707
88715SOL     OW67977  10.088  13.267   5.370
88715SOL    HW167978  10.057  13.246   5.457
88715SOL    HW267979  10.010  13.268   5.315
88716SOL     OW67980   5.232   5.594   6.438
88716SOL    HW167981   5.280   5.518   6.406
88716SOL    HW267982   5.188   5.629   6.361
88717SOL     OW67983   4.972  14.392   5.095
88717SOL    HW167984   4.994  14.401   5.002
88717SOL    HW267985   5.051  14.422   5.141
88718SOL     OW67986   1.599   5.801   8.660
88718SOL    HW167987   1.566   5.761   8.580
88718SOL    HW267988   1.549   5.882   8.669
88719SOL     OW67989   4.135   7.652   6.561
88719SOL    HW167990   4.056   7.690   6.523
88719SOL    HW267991   4.148   7.701   6.643
88720SOL     OW67992  12.463   1.530  13.258
88720SOL    HW167993  12.516   1.458  13.224
88720SOL    HW267994  12.525   1.603  13.264
88721SOL     OW67995   1.567   1.717   2.261
88721SOL    HW167996   1.637   1.749   2.204
88721SOL    HW267997   1.561   1.783   2.330
88722SOL     OW67998   7.564   8.080  12.737
88722SOL    HW167999   7.631   8.012  12.733
88722SOL    HW268000   7.535   8.090  12.646
88723SOL     OW68001   4.620   4.826   2.755
88723SOL    HW168002   4.567   4.749   2.737
88723SOL    HW268003   4.584   4.894   2.698
88724SOL     OW68004   0.086  14.452  11.900
88724SOL    HW168005   0.056  14.396  11.971
88724SOL    HW268006   0.036  14.533  11.909
88725SOL     OW68007  10.994  14.681   5.896
88725SOL    HW168008  11.016  14.587   5.892
88725SOL    HW268009  11.079  14.725   5.901
88726SOL     OW68010   7.221   6.843   6.106
88726SOL    HW168011   7.217   6.850   6.011
88726SOL    HW268012   7.153   6.903   6.138
88727SOL     OW68013   1.785   7.255   6.501
88727SOL    HW168014   1.759   7.339   6.463
88727SOL    HW268015   1.881   7.258   6.500
88728SOL     OW68016   3.385  14.612   7.038
88728SOL    HW168017   3.338  14.613   6.955
88728SOL    HW268018   3.425  14.699   7.044
88729SOL     OW68019   2.857  14.280   6.006
88729SOL    HW168020   2.950  14.267   6.027
88729SOL    HW268021   2.856  14.301   5.913
88730SOL     OW68022  14.188   8.194   8.661
88730SOL    HW168023  14.157   8.284   8.651
88730SOL    HW268024  14.189   8.179   8.755
88731SOL     OW68025   7.321   1.942   6.370
88731SOL    HW168026   7.388   1.918   6.435
88731SOL    HW268027   7.291   1.859   6.334
88732SOL     OW68028  10.117  12.332   9.279
88732SOL    HW168029  10.179  12.292   9.219
88732SOL    HW268030  10.120  12.426   9.259
88733SOL     OW68031  14.859   0.934  13.199
88733SOL    HW168032  14.765   0.919  13.197
88733SOL    HW268033   0.006   0.957  13.290
88734SOL     OW68034  10.097  12.900   4.311
88734SOL    HW168035  10.141  12.821   4.341
88734SOL    HW268036  10.104  12.961   4.384
88735SOL     OW68037  12.841   6.148   5.739
88735SOL    HW168038  12.825   6.145   5.645
88735SOL    HW268039  12.901   6.221   5.752
88736SOL     OW68040   0.908  13.915  12.979
88736SOL    HW168041   0.835  13.856  12.960
88736SOL    HW268042   0.926  13.958  12.896
88737SOL     OW68043  13.780  12.668   2.968
88737SOL    HW168044  13.842  12.643   3.037
88737SOL    HW268045  13.835  12.697   2.896
88738SOL     OW68046   5.911   2.533   6.938
88738SOL    HW168047   5.973   2.526   7.010
88738SOL    HW268048   5.834   2.483   6.967
88739SOL     OW68049   5.953   0.936   5.166
88739SOL    HW168050   6.022   1.002   5.168
88739SOL    HW268051   5.999   0.853   5.178
88740SOL     OW68052   6.964   3.358   3.815
88740SOL    HW168053   6.904   3.421   3.775
88740SOL    HW268054   6.909   3.302   3.869
88741SOL     OW68055   4.379   3.930  12.970
88741SOL    HW168056   4.311   3.882  12.923
88741SOL    HW268057   4.368   4.021  12.941
88742SOL     OW68058   9.124  12.573   9.168
88742SOL    HW168059   9.167  12.499   9.209
88742SOL    HW268060   9.085  12.621   9.241
88743SOL     OW68061  11.176   6.560   7.190
88743SOL    HW168062  11.117   6.590   7.122
88743SOL    HW268063  11.263   6.589   7.161
88744SOL     OW68064  10.147   3.187   1.986
88744SOL    HW168065  10.102   3.243   2.049
88744SOL    HW268066  10.222   3.239   1.956
88745SOL     OW68067  12.089  12.580  13.588
88745SOL    HW168068  12.124  12.644  13.650
88745SOL    HW268069  11.996  12.602  13.581
88746SOL     OW68070   2.828   8.855  11.055
88746SOL    HW168071   2.905   8.888  11.102
88746SOL    HW268072   2.844   8.878  10.964
88747SOL     OW68073   1.681   1.171   9.259
88747SOL    HW168074   1.752   1.235   9.268
88747SOL    HW268075   1.672   1.134   9.347
88748SOL     OW68076   9.267   8.815   8.463
88748SOL    HW168077   9.206   8.864   8.519
88748SOL    HW268078   9.354   8.838   8.497
88749SOL     OW68079   3.177  12.776   1.645
88749SOL    HW168080   3.162  12.753   1.554
88749SOL    HW268081   3.272  12.774   1.656
88750SOL     OW68082   4.263   3.241  10.466
88750SOL    HW168083   4.209   3.190  10.526
88750SOL    HW268084   4.270   3.186  10.388
88751SOL     OW68085   9.183  11.205   6.707
88751SOL    HW168086   9.102  11.197   6.756
88751SOL    HW268087   9.227  11.281   6.745
88752SOL     OW68088   4.737   6.880   5.657
88752SOL    HW168089   4.736   6.953   5.595
88752SOL    HW268090   4.693   6.809   5.611
88753SOL     OW68091   5.509   9.327   0.430
88753SOL    HW168092   5.576   9.321   0.498
88753SOL    HW268093   5.554   9.301   0.350
88754SOL     OW68094   9.036   4.971   9.517
88754SOL    HW168095   8.954   5.000   9.478
88754SOL    HW268096   9.009   4.923   9.596
88755SOL     OW68097   3.518  13.605   8.384
88755SOL    HW168098   3.484  13.676   8.328
88755SOL    HW268099   3.612  13.619   8.387
88756SOL     OW68100   8.436  14.745   3.216
88756SOL    HW168101   8.346  14.714   3.230
88756SOL    HW268102   8.477  14.736   3.302
88757SOL     OW68103   6.600   3.962  10.712
88757SOL    HW168104   6.685   3.923  10.730
88757SOL    HW268105   6.619   4.034  10.652
88758SOL     OW68106   4.872   6.929   5.205
88758SOL    HW168107   4.836   6.907   5.118
88758SOL    HW268108   4.950   6.981   5.186
88759SOL     OW68109   7.351  13.263  12.069
88759SOL    HW168110   7.391  13.177  12.085
88759SOL    HW268111   7.342  13.268  11.974
88760SOL     OW68112   8.450  10.960  12.210
88760SOL    HW168113   8.373  10.920  12.249
88760SOL    HW268114   8.506  10.981  12.284
88761SOL     OW68115  10.524   8.022  14.206
88761SOL    HW168116  10.523   8.071  14.288
88761SOL    HW268117  10.610   7.979  14.205
88762SOL     OW68118   4.268   2.846   3.637
88762SOL    HW168119   4.309   2.928   3.665
88762SOL    HW268120   4.337   2.797   3.593
88763SOL     OW68121  12.617   7.978   4.165
88763SOL    HW168122  12.619   7.937   4.252
88763SOL    HW268123  12.555   8.050   4.173
88764SOL     OW68124   7.858   2.211   2.223
88764SOL    HW168125   7.783   2.202   2.282
88764SOL    HW268126   7.909   2.131   2.236
88765SOL     OW68127   5.790   7.288   5.904
88765SOL    HW168128   5.813   7.197   5.924
88765SOL    HW268129   5.848   7.340   5.959
88766SOL     OW68130   5.351  10.677   1.459
88766SOL    HW168131   5.285  10.745   1.445
88766SOL    HW268132   5.307  10.596   1.432
88767SOL     OW68133   7.853   9.128   8.334
88767SOL    HW168134   7.879   9.103   8.246
88767SOL    HW268135   7.840   9.046   8.380
88768SOL     OW68136  14.847   4.938   0.524
88768SOL    HW168137  14.773   4.947   0.464
88768SOL    HW268138  14.822   4.867   0.582
88769SOL     OW68139   2.327   5.339   8.028
88769SOL    HW168140   2.358   5.387   7.951
88769SOL    HW268141   2.355   5.392   8.103
88770SOL     OW68142  13.349   1.729   9.218
88770SOL    HW168143  13.407   1.673   9.270
88770SOL    HW268144  13.310   1.670   9.154
88771SOL     OW68145   6.708   6.608   1.169
88771SOL    HW168146   6.706   6.703   1.174
88771SOL    HW268147   6.670   6.579   1.252
88772SOL     OW68148   2.876  13.350   6.057
88772SOL    HW168149   2.820  13.273   6.046
88772SOL    HW268150   2.957  13.329   6.011
88773SOL     OW68151   5.584   4.249   6.084
88773SOL    HW168152   5.603   4.334   6.124
88773SOL    HW268153   5.489   4.248   6.072
88774SOL     OW68154   9.314   2.526  14.620
88774SOL    HW168155   9.231   2.494  14.585
88774SOL    HW268156   9.289   2.582  14.694
88775SOL     OW68157   0.885  12.657   1.500
88775SOL    HW168158   0.825  12.664   1.426
88775SOL    HW268159   0.970  12.639   1.460
88776SOL     OW68160  12.903  14.337  14.495
88776SOL    HW168161  12.906  14.283  14.416
88776SOL    HW268162  12.981  14.391  14.491
88777SOL     OW68163   3.029  13.007   0.382
88777SOL    HW168164   2.937  13.018   0.407
88777SOL    HW268165   3.078  13.057   0.448
88778SOL     OW68166  12.820   0.275   4.837
88778SOL    HW168167  12.814   0.259   4.743
88778SOL    HW268168  12.874   0.203   4.870
88779SOL     OW68169   4.409   9.926   2.201
88779SOL    HW168170   4.486   9.947   2.254
88779SOL    HW268171   4.401   9.998   2.139
88780SOL     OW68172   6.481  13.371   2.424
88780SOL    HW168173   6.556  13.430   2.434
88780SOL    HW268174   6.408  13.418   2.465
88781SOL     OW68175  14.363   7.784  12.880
88781SOL    HW168176  14.398   7.812  12.964
88781SOL    HW268177  14.385   7.691  12.875
88782SOL     OW68178  12.730   7.948  10.400
88782SOL    HW168179  12.745   8.003  10.477
88782SOL    HW268180  12.786   7.871  10.414
88783SOL     OW68181  13.609  13.139  11.722
88783SOL    HW168182  13.546  13.141  11.794
88783SOL    HW268183  13.638  13.230  11.713
88784SOL     OW68184  13.159   0.173  13.456
88784SOL    HW168185  13.117   0.259  13.465
88784SOL    HW268186  13.140   0.128  13.539
88785SOL     OW68187   3.375   9.678   8.565
88785SOL    HW168188   3.306   9.631   8.613
88785SOL    HW268189   3.442   9.612   8.548
88786SOL     OW68190   0.679   4.862   1.030
88786SOL    HW168191   0.760   4.905   1.001
88786SOL    HW268192   0.698   4.834   1.119
88787SOL     OW68193   1.755  13.692  12.630
88787SOL    HW168194   1.743  13.787  12.640
88787SOL    HW268195   1.848  13.678  12.642
88788SOL     OW68196   4.888   3.989  12.046
88788SOL    HW168197   4.872   3.937  11.967
88788SOL    HW268198   4.942   4.062  12.015
88789SOL     OW68199  12.289   1.053   7.953
88789SOL    HW168200  12.238   1.069   8.033
88789SOL    HW268201  12.351   0.984   7.978
88790SOL     OW68202   8.616   5.649   0.295
88790SOL    HW168203   8.650   5.565   0.325
88790SOL    HW268204   8.525   5.632   0.271
88791SOL     OW68205   0.651  14.128   7.259
88791SOL    HW168206   0.705  14.109   7.336
88791SOL    HW268207   0.563  14.141   7.293
88792SOL     OW68208  10.294  11.228  11.069
88792SOL    HW168209  10.317  11.183  10.987
88792SOL    HW268210  10.243  11.163  11.118
88793SOL     OW68211   4.580   0.580  13.251
88793SOL    HW168212   4.537   0.537  13.177
88793SOL    HW268213   4.657   0.622  13.213
88794SOL     OW68214   3.706   1.737   9.902
88794SOL    HW168215   3.727   1.731   9.996
88794SOL    HW268216   3.614   1.710   9.897
88795SOL     OW68217   3.703  13.570   1.577
88795SOL    HW168218   3.632  13.541   1.520
88795SOL    HW268219   3.783  13.549   1.529
88796SOL     OW68220   3.758   7.968   2.048
88796SOL    HW168221   3.837   7.918   2.026
88796SOL    HW268222   3.759   8.042   1.987
88797SOL     OW68223   8.842   2.251   1.512
88797SOL    HW168224   8.871   2.183   1.452
88797SOL    HW268225   8.920   2.272   1.564
88798SOL     OW68226   8.013   9.201  14.479
88798SOL    HW168227   7.947   9.139  14.510
88798SOL    HW268228   7.963   9.267  14.431
88799SOL     OW68229   3.177   7.375   5.534
88799SOL    HW168230   3.123   7.344   5.461
88799SOL    HW268231   3.202   7.295   5.581
88800SOL     OW68232   4.151  10.796   6.648
88800SOL    HW168233   4.169  10.709   6.684
88800SOL    HW268234   4.162  10.855   6.723
88801SOL     OW68235  11.734   2.712  13.004
88801SOL    HW168236  11.692   2.693  13.088
88801SOL    HW268237  11.778   2.630  12.980
88802SOL     OW68238   6.338  10.055   2.619
88802SOL    HW168239   6.431  10.058   2.641
88802SOL    HW268240   6.299  10.004   2.690
88803SOL     OW68241   3.860  11.929   5.264
88803SOL    HW168242   3.780  11.904   5.218
88803SOL    HW268243   3.893  11.847   5.301
88804SOL     OW68244   2.053  12.052   0.762
88804SOL    HW168245   2.135  12.083   0.801
88804SOL    HW268246   2.078  12.029   0.672
88805SOL     OW68247  11.673   9.072  14.663
88805SOL    HW168248  11.591   9.088  14.616
88805SOL    HW268249  11.693   8.980  14.644
88806SOL     OW68250  13.765   2.150   4.867
88806SOL    HW168251  13.781   2.140   4.961
88806SOL    HW268252  13.711   2.228   4.860
88807SOL     OW68253  13.612  11.611   9.796
88807SOL    HW168254  13.628  11.599   9.702
88807SOL    HW268255  13.696  11.595   9.837
88808SOL     OW68256   3.963  11.766  10.851
88808SOL    HW168257   3.929  11.686  10.891
88808SOL    HW268258   4.000  11.737  10.768
88809SOL     OW68259   1.218   5.493  11.474
88809SOL    HW168260   1.136   5.505  11.425
88809SOL    HW268261   1.285   5.534  11.419
88810SOL     OW68262  11.354   6.993   3.196
88810SOL    HW168263  11.273   7.000   3.146
88810SOL    HW268264  11.366   7.080   3.234
88811SOL     OW68265   6.160   8.588   3.138
88811SOL    HW168266   6.214   8.510   3.150
88811SOL    HW268267   6.070   8.557   3.144
88812SOL     OW68268  12.369   2.495   2.014
88812SOL    HW168269  12.457   2.479   1.980
88812SOL    HW268270  12.379   2.489   2.109
88813SOL     OW68271  13.096   3.606   1.622
88813SOL    HW168272  13.182   3.592   1.581
88813SOL    HW268273  13.104   3.690   1.666
88814SOL     OW68274   0.530   6.586   0.524
88814SOL    HW168275   0.614   6.611   0.564
88814SOL    HW268276   0.550   6.576   0.431
88815SOL     OW68277   1.528   7.615   7.754
88815SOL    HW168278   1.487   7.615   7.841
88815SOL    HW268279   1.464   7.569   7.698
88816SOL     OW68280  10.847   3.940  11.310
88816SOL    HW168281  10.918   4.004  11.315
88816SOL    HW268282  10.866   3.878  11.380
88817SOL     OW68283  10.366   2.266  11.466
88817SOL    HW168284  10.277   2.238  11.487
88817SOL    HW268285  10.412   2.185  11.443
88818SOL     OW68286   8.325   3.702   0.789
88818SOL    HW168287   8.368   3.765   0.730
88818SOL    HW268288   8.315   3.751   0.871
88819SOL     OW68289  12.176   0.515  13.402
88819SOL    HW168290  12.155   0.517  13.309
88819SOL    HW268291  12.268   0.490  13.405
88820SOL     OW68292   4.349   1.727   2.132
88820SOL    HW168293   4.389   1.764   2.210
88820SOL    HW268294   4.334   1.635   2.155
88821SOL     OW68295   8.660   2.818   6.292
88821SOL    HW168296   8.667   2.779   6.379
88821SOL    HW268297   8.715   2.763   6.236
88822SOL     OW68298  13.069   6.782   9.026
88822SOL    HW168299  13.019   6.728   8.964
88822SOL    HW268300  13.048   6.872   9.002
88823SOL     OW68301   4.552   3.124   2.853
88823SOL    HW168302   4.465   3.139   2.815
88823SOL    HW268303   4.611   3.122   2.777
88824SOL     OW68304   0.316   0.017  13.041
88824SOL    HW168305   0.223   0.026  13.021
88824SOL    HW268306   0.324   0.046  13.132
88825SOL     OW68307   0.121   4.992  14.657
88825SOL    HW168308   0.064   4.915  14.654
88825SOL    HW268309   0.210   4.957  14.653
88826SOL     OW68310  12.069  12.208   6.025
88826SOL    HW168311  12.032  12.199   6.113
88826SOL    HW268312  12.029  12.287   5.990
88827SOL     OW68313   9.391  12.353   9.669
88827SOL    HW168314   9.295  12.345   9.670
88827SOL    HW268315   9.419  12.280   9.613
88828SOL     OW68316  14.237   0.311   7.439
88828SOL    HW168317  14.329   0.333   7.448
88828SOL    HW268318  14.206   0.363   7.365
88829SOL     OW68319  11.997   8.640   7.140
88829SOL    HW168320  11.945   8.651   7.060
88829SOL    HW268321  11.973   8.553   7.172
88830SOL     OW68322  14.655   2.639   0.422
88830SOL    HW168323  14.679   2.701   0.491
88830SOL    HW268324  14.599   2.575   0.465
88831SOL     OW68325   5.580  14.225   3.633
88831SOL    HW168326   5.603  14.146   3.584
88831SOL    HW268327   5.648  14.288   3.609
88832SOL     OW68328  12.066   9.629   5.714
88832SOL    HW168329  12.081   9.544   5.755
88832SOL    HW268330  11.983   9.659   5.751
88833SOL     OW68331  12.329   9.719  12.705
88833SOL    HW168332  12.306   9.784  12.639
88833SOL    HW268333  12.298   9.635  12.669
88834SOL     OW68334  12.283  12.746  14.459
88834SOL    HW168335  12.320  12.826  14.496
88834SOL    HW268336  12.238  12.776  14.379
88835SOL     OW68337   0.084  10.831   9.817
88835SOL    HW168338   0.133  10.904   9.855
88835SOL    HW268339   0.124  10.753   9.855
88836SOL     OW68340  10.336   6.478   9.817
88836SOL    HW168341  10.352   6.571   9.801
88836SOL    HW268342  10.399   6.434   9.759
88837SOL     OW68343   4.784  14.341  10.669
88837SOL    HW168344   4.821  14.426  10.646
88837SOL    HW268345   4.818  14.323  10.757
88838SOL     OW68346   3.292  10.024   3.254
88838SOL    HW168347   3.245  10.103   3.279
88838SOL    HW268348   3.370  10.055   3.209
88839SOL     OW68349   6.846   4.073   8.091
88839SOL    HW168350   6.774   4.120   8.133
88839SOL    HW268351   6.888   4.025   8.162
88840SOL     OW68352  14.219  12.420  13.760
88840SOL    HW168353  14.169  12.500  13.741
88840SOL    HW268354  14.153  12.351  13.767
88841SOL     OW68355  14.462   3.409  12.668
88841SOL    HW168356  14.442   3.484  12.723
88841SOL    HW268357  14.378   3.365  12.656
88842SOL     OW68358  13.065   5.203   4.440
88842SOL    HW168359  13.103   5.289   4.452
88842SOL    HW268360  13.047   5.197   4.346
88843SOL     OW68361   6.954  14.006   7.549
88843SOL    HW168362   6.978  13.951   7.624
88843SOL    HW268363   7.025  14.070   7.543
88844SOL     OW68364  13.813   3.835   3.900
88844SOL    HW168365  13.896   3.847   3.853
88844SOL    HW268366  13.773   3.760   3.857
88845SOL     OW68367   2.970   3.529   4.810
88845SOL    HW168368   2.886   3.494   4.779
88845SOL    HW268369   2.954   3.554   4.901
88846SOL     OW68370  13.394  14.083   5.057
88846SOL    HW168371  13.348  14.135   4.992
88846SOL    HW268372  13.420  14.003   5.011
88847SOL     OW68373   0.925  12.282   7.766
88847SOL    HW168374   0.831  12.290   7.783
88847SOL    HW268375   0.938  12.323   7.681
88848SOL     OW68376   4.376   2.962  13.636
88848SOL    HW168377   4.382   3.021  13.561
88848SOL    HW268378   4.465   2.961  13.673
88849SOL     OW68379   0.011   1.541   9.446
88849SOL    HW168380   0.041   1.605   9.511
88849SOL    HW268381   0.069   1.555   9.370
88850SOL     OW68382   7.225  14.712  10.663
88850SOL    HW168383   7.172  14.648  10.616
88850SOL    HW268384   7.165  14.754  10.724
88851SOL     OW68385   2.816  10.588   6.722
88851SOL    HW168386   2.803  10.555   6.811
88851SOL    HW268387   2.899  10.635   6.725
88852SOL     OW68388   1.548   5.655   3.093
88852SOL    HW168389   1.514   5.599   3.023
88852SOL    HW268390   1.485   5.727   3.098
88853SOL     OW68391   3.844  14.259   4.283
88853SOL    HW168392   3.753  14.280   4.262
88853SOL    HW268393   3.844  14.164   4.298
88854SOL     OW68394   7.523   9.079  13.932
88854SOL    HW168395   7.545   9.165  13.894
88854SOL    HW268396   7.587   9.020  13.893
88855SOL     OW68397  14.790   5.509   6.261
88855SOL    HW168398  14.796   5.534   6.169
88855SOL    HW268399  14.829   5.583   6.308
88856SOL     OW68400  14.123  13.212   5.254
88856SOL    HW168401  14.100  13.242   5.166
88856SOL    HW268402  14.187  13.276   5.285
88857SOL     OW68403  11.707   5.276  12.567
88857SOL    HW168404  11.692   5.354  12.513
88857SOL    HW268405  11.716   5.205  12.504
88858SOL     OW68406   5.671   5.158   2.561
88858SOL    HW168407   5.604   5.095   2.536
88858SOL    HW268408   5.651   5.180   2.652
88859SOL     OW68409   2.140   3.557   6.231
88859SOL    HW168410   2.152   3.545   6.325
88859SOL    HW268411   2.175   3.478   6.191
88860SOL     OW68412  14.232   7.228   6.138
88860SOL    HW168413  14.323   7.200   6.143
88860SOL    HW268414  14.202   7.231   6.229
88861SOL     OW68415  14.497  13.663   3.394
88861SOL    HW168416  14.493  13.731   3.461
88861SOL    HW268417  14.548  13.702   3.323
88862SOL     OW68418   6.485  14.411   8.128
88862SOL    HW168419   6.562  14.400   8.183
88862SOL    HW268420   6.518  14.408   8.039
88863SOL     OW68421  12.592   2.243   6.914
88863SOL    HW168422  12.686   2.251   6.898
88863SOL    HW268423  12.568   2.324   6.960
88864SOL     OW68424  13.951   3.305   6.042
88864SOL    HW168425  13.944   3.314   6.137
88864SOL    HW268426  14.039   3.338   6.022
88865SOL     OW68427   2.708  11.983  12.206
88865SOL    HW168428   2.657  12.040  12.263
88865SOL    HW268429   2.786  12.034  12.184
88866SOL     OW68430   8.982   7.163  12.945
88866SOL    HW168431   8.976   7.225  13.018
88866SOL    HW268432   8.946   7.082  12.979
88867SOL     OW68433  12.478   9.159   2.987
88867SOL    HW168434  12.504   9.071   2.961
88867SOL    HW268435  12.522   9.217   2.925
88868SOL     OW68436   7.855   4.927   4.101
88868SOL    HW168437   7.911   4.896   4.030
88868SOL    HW268438   7.778   4.869   4.098
88869SOL     OW68439   1.686  13.226   3.911
88869SOL    HW168440   1.658  13.219   4.002
88869SOL    HW268441   1.615  13.187   3.860
88870SOL     OW68442   6.055   8.109   3.571
88870SOL    HW168443   6.043   8.195   3.530
88870SOL    HW268444   5.967   8.074   3.581
88871SOL     OW68445   7.736  10.448  11.213
88871SOL    HW168446   7.738  10.516  11.280
88871SOL    HW268447   7.683  10.484  11.143
88872SOL     OW68448  10.235   9.570   9.184
88872SOL    HW168449  10.198   9.542   9.100
88872SOL    HW268450  10.167   9.623   9.224
88873SOL     OW68451   9.702   5.412   7.213
88873SOL    HW168452   9.617   5.380   7.181
88873SOL    HW268453   9.695   5.507   7.208
88874SOL     OW68454   0.121   4.955   4.644
88874SOL    HW168455   0.145   4.862   4.639
88874SOL    HW268456   0.151   4.983   4.730
88875SOL     OW68457   4.234  13.190   2.523
88875SOL    HW168458   4.171  13.181   2.594
88875SOL    HW268459   4.234  13.284   2.503
88876SOL     OW68460   0.937   1.094   1.212
88876SOL    HW168461   0.954   1.183   1.241
88876SOL    HW268462   0.962   1.039   1.287
88877SOL     OW68463   8.563   9.968   9.746
88877SOL    HW168464   8.500   9.965   9.817
88877SOL    HW268465   8.553  10.055   9.708
88878SOL     OW68466   4.743   7.620   9.924
88878SOL    HW168467   4.788   7.540   9.949
88878SOL    HW268468   4.691   7.596   9.847
88879SOL     OW68469  10.137   6.626  14.516
88879SOL    HW168470  10.224   6.626  14.477
88879SOL    HW268471  10.121   6.717  14.541
88880SOL     OW68472  11.005   1.966   8.790
88880SOL    HW168473  10.917   1.989   8.760
88880SOL    HW268474  11.064   2.012   8.729
88881SOL     OW68475   3.897   4.086   9.439
88881SOL    HW168476   3.929   4.065   9.351
88881SOL    HW268477   3.809   4.121   9.425
88882SOL     OW68478   7.419   7.700   5.059
88882SOL    HW168479   7.477   7.726   4.987
88882SOL    HW268480   7.461   7.623   5.097
88883SOL     OW68481   9.518   9.035  13.552
88883SOL    HW168482   9.521   9.128  13.575
88883SOL    HW268483   9.426   9.017  13.534
88884SOL     OW68484  11.704   3.434   9.481
88884SOL    HW168485  11.639   3.383   9.433
88884SOL    HW268486  11.732   3.377   9.553
88885SOL     OW68487   1.472  11.218   9.244
88885SOL    HW168488   1.403  11.167   9.202
88885SOL    HW268489   1.428  11.263   9.316
88886SOL     OW68490   0.393  11.213   5.842
88886SOL    HW168491   0.361  11.169   5.763
88886SOL    HW268492   0.316  11.223   5.898
88887SOL     OW68493  10.406   7.046   3.348
88887SOL    HW168494  10.359   7.128   3.364
88887SOL    HW268495  10.498   7.067   3.364
88888SOL     OW68496   5.380   2.378  13.741
88888SOL    HW168497   5.335   2.363  13.658
88888SOL    HW268498   5.454   2.317  13.740
88889SOL     OW68499   4.178  12.728  14.773
88889SOL    HW168500   4.114  12.782  14.728
88889SOL    HW268501   4.143  12.639  14.767
88890SOL     OW68502  13.900   7.192  10.800
88890SOL    HW168503  13.812   7.205  10.765
88890SOL    HW268504  13.886   7.155  10.887
88891SOL     OW68505   1.095   5.337  13.958
88891SOL    HW168506   1.017   5.313  13.909
88891SOL    HW268507   1.077   5.425  13.991
88892SOL     OW68508   1.415   8.954   7.812
88892SOL    HW168509   1.371   9.006   7.744
88892SOL    HW268510   1.508   8.971   7.799
88893SOL     OW68511   4.504   8.415   4.145
88893SOL    HW168512   4.410   8.406   4.133
88893SOL    HW268513   4.528   8.341   4.202
88894SOL     OW68514   2.689   9.283   2.768
88894SOL    HW168515   2.604   9.261   2.728
88894SOL    HW268516   2.681   9.256   2.859
88895SOL     OW68517   8.848   4.821   2.203
88895SOL    HW168518   8.768   4.864   2.229
88895SOL    HW268519   8.911   4.842   2.271
88896SOL     OW68520  14.365  12.206   3.498
88896SOL    HW168521  14.324  12.229   3.415
88896SOL    HW268522  14.459  12.214   3.482
88897SOL     OW68523   1.248   6.975   7.784
88897SOL    HW168524   1.166   7.023   7.792
88897SOL    HW268525   1.223   6.891   7.745
88898SOL     OW68526   8.605   6.973  10.668
88898SOL    HW168527   8.632   6.927  10.588
88898SOL    HW268528   8.539   6.916  10.707
88899SOL     OW68529  10.253  11.324   1.250
88899SOL    HW168530  10.186  11.319   1.317
88899SOL    HW268531  10.225  11.261   1.183
88900SOL     OW68532  14.330   9.387   2.244
88900SOL    HW168533  14.274   9.311   2.228
88900SOL    HW268534  14.295   9.426   2.324
88901SOL     OW68535  13.236   4.754   4.649
88901SOL    HW168536  13.328   4.762   4.675
88901SOL    HW268537  13.187   4.765   4.730
88902SOL     OW68538   7.507   3.061   4.134
88902SOL    HW168539   7.427   3.111   4.118
88902SOL    HW268540   7.535   3.031   4.048
88903SOL     OW68541  11.993  11.132  11.987
88903SOL    HW168542  11.930  11.067  12.019
88903SOL    HW268543  11.965  11.214  12.028
88904SOL     OW68544   3.004   2.319   8.758
88904SOL    HW168545   3.076   2.260   8.736
88904SOL    HW268546   2.926   2.264   8.757
88905SOL     OW68547  13.643  11.742   8.830
88905SOL    HW168548  13.575  11.790   8.783
88905SOL    HW268549  13.594  11.682   8.887
88906SOL     OW68550  13.898   8.438   7.189
88906SOL    HW168551  13.943   8.412   7.269
88906SOL    HW268552  13.968   8.459   7.127
88907SOL     OW68553   3.148   5.277   0.160
88907SOL    HW168554   3.121   5.213   0.225
88907SOL    HW268555   3.213   5.332   0.206
88908SOL     OW68556   2.353  13.254  13.225
88908SOL    HW168557   2.316  13.237  13.138
88908SOL    HW268558   2.288  13.309  13.268
88909SOL     OW68559   0.247   6.246   7.242
88909SOL    HW168560   0.302   6.171   7.218
88909SOL    HW268561   0.223   6.229   7.333
88910SOL     OW68562   3.715  13.042   0.301
88910SOL    HW168563   3.810  13.045   0.309
88910SOL    HW268564   3.684  13.047   0.392
88911SOL     OW68565   2.258   0.326  14.123
88911SOL    HW168566   2.222   0.252  14.171
88911SOL    HW268567   2.194   0.344  14.054
88912SOL     OW68568   8.732  14.633   0.441
88912SOL    HW168569   8.675  14.640   0.518
88912SOL    HW268570   8.672  14.616   0.368
88913SOL     OW68571   1.716   6.792   4.849
88913SOL    HW168572   1.751   6.880   4.842
88913SOL    HW268573   1.752   6.746   4.773
88914SOL     OW68574   2.679  11.503  11.855
88914SOL    HW168575   2.661  11.597  11.860
88914SOL    HW268576   2.773  11.495  11.871
88915SOL     OW68577  10.552  13.549  14.181
88915SOL    HW168578  10.491  13.535  14.109
88915SOL    HW268579  10.610  13.618  14.150
88916SOL     OW68580  12.234   9.910   2.027
88916SOL    HW168581  12.269   9.834   1.980
88916SOL    HW268582  12.299   9.928   2.095
88917SOL     OW68583  12.346  14.831   3.224
88917SOL    HW168584  12.309  14.755   3.269
88917SOL    HW268585  12.441  14.816   3.228
88918SOL     OW68586   1.421   9.284   3.046
88918SOL    HW168587   1.470   9.363   3.022
88918SOL    HW268588   1.330   9.312   3.046
88919SOL     OW68589   6.374   5.497  11.190
88919SOL    HW168590   6.399   5.421  11.137
88919SOL    HW268591   6.456   5.542  11.209
88920SOL     OW68592  10.196   0.445   5.873
88920SOL    HW168593  10.225   0.516   5.816
88920SOL    HW268594  10.147   0.386   5.816
88921SOL     OW68595  13.392  11.988  11.834
88921SOL    HW168596  13.436  11.966  11.916
88921SOL    HW268597  13.463  11.999  11.771
88922SOL     OW68598   5.276  14.771  14.767
88922SOL    HW168599   5.306  14.687  14.801
88922SOL    HW268600   5.189  14.754  14.733
88923SOL     OW68601   5.006   1.867   2.464
88923SOL    HW168602   4.922   1.838   2.498
88923SOL    HW268603   4.996   1.961   2.452
88924SOL     OW68604   5.619   3.362  13.136
88924SOL    HW168605   5.667   3.410  13.069
88924SOL    HW268606   5.669   3.375  13.216
88925SOL     OW68607   2.176   9.053   1.710
88925SOL    HW168608   2.102   8.993   1.709
88925SOL    HW268609   2.179   9.089   1.621
88926SOL     OW68610   5.887  10.250   6.734
88926SOL    HW168611   5.855  10.183   6.673
88926SOL    HW268612   5.809  10.295   6.765
88927SOL     OW68613  11.911   1.654   6.896
88927SOL    HW168614  11.979   1.721   6.902
88927SOL    HW268615  11.854   1.684   6.825
88928SOL     OW68616   2.933  12.966   7.078
88928SOL    HW168617   2.959  13.050   7.042
88928SOL    HW268618   2.838  12.974   7.090
88929SOL     OW68619   1.702  13.176  10.015
88929SOL    HW168620   1.691  13.269  10.032
88929SOL    HW268621   1.795  13.166   9.996
88930SOL     OW68622   1.612   4.576  11.143
88930SOL    HW168623   1.557   4.526  11.202
88930SOL    HW268624   1.551   4.622  11.085
88931SOL     OW68625  12.319   2.827  13.043
88931SOL    HW168626  12.227   2.801  13.044
88931SOL    HW268627  12.318   2.922  13.039
88932SOL     OW68628  11.350   3.366   5.285
88932SOL    HW168629  11.436   3.367   5.244
88932SOL    HW268630  11.308   3.286   5.252
88933SOL     OW68631   3.833   1.106   4.647
88933SOL    HW168632   3.840   1.017   4.683
88933SOL    HW268633   3.814   1.092   4.554
88934SOL     OW68634   5.185   4.316   4.453
88934SOL    HW168635   5.114   4.252   4.458
88934SOL    HW268636   5.263   4.268   4.481
88935SOL     OW68637  14.288   0.816  14.843
88935SOL    HW168638  14.218   0.755  14.818
88935SOL    HW268639  14.332   0.838  14.761
88936SOL     OW68640   9.713  10.277   7.367
88936SOL    HW168641   9.655  10.303   7.295
88936SOL    HW268642   9.654  10.238   7.432
88937SOL     OW68643  11.405   9.828   4.925
88937SOL    HW168644  11.472   9.795   4.985
88937SOL    HW268645  11.341   9.758   4.918
88938SOL     OW68646   4.958   8.905   1.105
88938SOL    HW168647   4.962   8.952   1.189
88938SOL    HW268648   4.871   8.926   1.070
88939SOL     OW68649  10.182  10.802  11.391
88939SOL    HW168650  10.142  10.779  11.307
88939SOL    HW268651  10.204  10.718  11.431
88940SOL     OW68652   9.919  13.255  14.109
88940SOL    HW168653   9.863  13.218  14.041
88940SOL    HW268654   9.912  13.350  14.096
88941SOL     OW68655   0.412  12.686   4.955
88941SOL    HW168656   0.471  12.707   5.027
88941SOL    HW268657   0.369  12.605   4.983
88942SOL     OW68658  11.459   5.708   7.007
88942SOL    HW168659  11.452   5.641   7.075
88942SOL    HW268660  11.541   5.687   6.961
88943SOL     OW68661   1.371  12.818   3.549
88943SOL    HW168662   1.297  12.761   3.569
88943SOL    HW268663   1.427  12.813   3.626
88944SOL     OW68664   9.065  12.358   2.484
88944SOL    HW168665   8.997  12.356   2.552
88944SOL    HW268666   9.127  12.424   2.515
88945SOL     OW68667   8.870  14.821   3.842
88945SOL    HW168668   8.865  14.806   3.748
88945SOL    HW268669   8.810  14.757   3.880
88946SOL     OW68670  14.123   8.064   9.136
88946SOL    HW168671  14.040   8.086   9.092
88946SOL    HW268672  14.133   8.130   9.204
88947SOL     OW68673   8.320   9.230   4.223
88947SOL    HW168674   8.293   9.187   4.142
88947SOL    HW268675   8.409   9.259   4.207
88948SOL     OW68676   3.605   0.294  11.000
88948SOL    HW168677   3.678   0.357  10.999
88948SOL    HW268678   3.535   0.340  11.047
88949SOL     OW68679   8.278   4.779  14.177
88949SOL    HW168680   8.262   4.800  14.085
88949SOL    HW268681   8.267   4.862  14.223
88950SOL     OW68682   6.015  12.094   9.832
88950SOL    HW168683   6.035  12.160   9.765
88950SOL    HW268684   6.081  12.026   9.820
88951SOL     OW68685   4.672   8.938   4.602
88951SOL    HW168686   4.712   8.869   4.549
88951SOL    HW268687   4.713   9.019   4.570
88952SOL     OW68688   1.658   6.455  13.881
88952SOL    HW168689   1.590   6.515  13.851
88952SOL    HW268690   1.726   6.461  13.813
88953SOL     OW68691   5.445   6.447  11.759
88953SOL    HW168692   5.373   6.492  11.716
88953SOL    HW268693   5.408   6.414  11.841
88954SOL     OW68694   3.406  10.062  10.328
88954SOL    HW168695   3.495  10.028  10.336
88954SOL    HW268696   3.383  10.048  10.236
88955SOL     OW68697   2.230   8.865  10.522
88955SOL    HW168698   2.242   8.777  10.488
88955SOL    HW268699   2.164   8.904  10.465
88956SOL     OW68700  10.208   0.801   0.697
88956SOL    HW168701  10.233   0.812   0.789
88956SOL    HW268702  10.157   0.880   0.676
88957SOL     OW68703   2.769   2.469   5.653
88957SOL    HW168704   2.845   2.472   5.595
88957SOL    HW268705   2.698   2.504   5.600
88958SOL     OW68706   5.018   5.912  14.359
88958SOL    HW168707   5.008   5.912  14.264
88958SOL    HW268708   5.113   5.919  14.373
88959SOL     OW68709  13.280   0.442  13.750
88959SOL    HW168710  13.333   0.519  13.771
88959SOL    HW268711  13.306   0.377  13.816
88960SOL     OW68712   1.279   9.440   5.072
88960SOL    HW168713   1.271   9.533   5.052
88960SOL    HW268714   1.309   9.400   4.991
88961SOL     OW68715  12.243   8.662  14.130
88961SOL    HW168716  12.186   8.600  14.176
88961SOL    HW268717  12.218   8.653  14.038
88962SOL     OW68718   2.505  14.133   3.298
88962SOL    HW168719   2.552  14.191   3.238
88962SOL    HW268720   2.414  14.140   3.271
88963SOL     OW68721   9.289   5.412   6.188
88963SOL    HW168722   9.373   5.377   6.215
88963SOL    HW268723   9.231   5.336   6.185
88964SOL     OW68724   1.657  10.501   3.863
88964SOL    HW168725   1.707  10.579   3.839
88964SOL    HW268726   1.574  10.535   3.895
88965SOL     OW68727  12.956   3.048   0.199
88965SOL    HW168728  12.991   3.032   0.287
88965SOL    HW268729  12.862   3.064   0.214
88966SOL     OW68730   7.379   2.047  10.459
88966SOL    HW168731   7.434   2.105  10.510
88966SOL    HW268732   7.379   2.084  10.371
88967SOL     OW68733  12.505   3.018   9.269
88967SOL    HW168734  12.564   2.956   9.226
88967SOL    HW268735  12.423   2.971   9.278
88968SOL     OW68736   5.248  13.309  13.742
88968SOL    HW168737   5.308  13.383  13.729
88968SOL    HW268738   5.233  13.306  13.836
88969SOL     OW68739   3.529  13.402   1.443
88969SOL    HW168740   3.464  13.457   1.400
88969SOL    HW268741   3.507  13.313   1.415
88970SOL     OW68742   5.262   0.351   3.846
88970SOL    HW168743   5.188   0.298   3.875
88970SOL    HW268744   5.283   0.406   3.921
88971SOL     OW68745   9.572  11.949   7.277
88971SOL    HW168746   9.652  11.937   7.329
88971SOL    HW268747   9.510  11.989   7.338
88972SOL     OW68748  12.796   9.171   7.793
88972SOL    HW168749  12.855   9.182   7.718
88972SOL    HW268750  12.737   9.100   7.767
88973SOL     OW68751   1.244  11.759   5.256
88973SOL    HW168752   1.308  11.817   5.297
88973SOL    HW268753   1.296  11.705   5.196
88974SOL     OW68754  13.491   5.056   5.896
88974SOL    HW168755  13.461   5.138   5.856
88974SOL    HW268756  13.559   5.024   5.837
88975SOL     OW68757   2.813   2.638   3.945
88975SOL    HW168758   2.835   2.556   3.901
88975SOL    HW268759   2.781   2.611   4.031
88976SOL     OW68760  11.658   8.359  13.479
88976SOL    HW168761  11.694   8.399  13.558
88976SOL    HW268762  11.648   8.266  13.501
88977SOL     OW68763  13.502  10.909   9.213
88977SOL    HW168764  13.422  10.864   9.185
88977SOL    HW268765  13.494  10.913   9.308
88978SOL     OW68766   3.220  10.650   1.429
88978SOL    HW168767   3.273  10.653   1.350
88978SOL    HW268768   3.217  10.740   1.459
88979SOL     OW68769   0.510   2.916  10.981
88979SOL    HW168770   0.564   2.937  10.904
88979SOL    HW268771   0.541   2.977  11.048
88980SOL     OW68772   6.360   4.867  12.439
88980SOL    HW168773   6.323   4.861  12.351
88980SOL    HW268774   6.367   4.776  12.468
88981SOL     OW68775  14.047  13.567   4.067
88981SOL    HW168776  14.015  13.496   4.122
88981SOL    HW268777  14.080  13.632   4.129
88982SOL     OW68778  12.019   6.616   3.841
88982SOL    HW168779  12.106   6.613   3.801
88982SOL    HW268780  12.020   6.544   3.904
88983SOL     OW68781   2.719   5.630  13.973
88983SOL    HW168782   2.728   5.661  13.883
88983SOL    HW268783   2.782   5.558  13.980
88984SOL     OW68784  13.661   3.482  12.430
88984SOL    HW168785  13.620   3.559  12.470
88984SOL    HW268786  13.714   3.517  12.358
88985SOL     OW68787  14.503   2.030   4.792
88985SOL    HW168788  14.474   1.978   4.717
88985SOL    HW268789  14.508   1.967   4.864
88986SOL     OW68790   2.933   2.776   0.397
88986SOL    HW168791   2.887   2.829   0.462
88986SOL    HW268792   3.015   2.823   0.381
88987SOL     OW68793   8.848   3.110   9.035
88987SOL    HW168794   8.757   3.091   9.012
88987SOL    HW268795   8.878   3.030   9.078
88988SOL     OW68796  13.390   2.985  10.324
88988SOL    HW168797  13.378   3.006  10.231
88988SOL    HW268798  13.446   2.908  10.323
88989SOL     OW68799   0.390   9.071  14.276
88989SOL    HW168800   0.302   9.096  14.304
88989SOL    HW268801   0.388   9.080  14.181
88990SOL     OW68802  12.478  13.164   5.755
88990SOL    HW168803  12.419  13.093   5.732
88990SOL    HW268804  12.471  13.172   5.851
88991SOL     OW68805   0.157  13.830   9.345
88991SOL    HW168806   0.090  13.827   9.276
88991SOL    HW268807   0.235  13.863   9.300
88992SOL     OW68808   8.867   1.562  11.959
88992SOL    HW168809   8.953   1.593  11.929
88992SOL    HW268810   8.877   1.467  11.966
88993SOL     OW68811   6.344   2.595   4.913
88993SOL    HW168812   6.309   2.644   4.987
88993SOL    HW268813   6.336   2.655   4.838
88994SOL     OW68814   4.918  14.137   9.748
88994SOL    HW168815   4.963  14.213   9.783
88994SOL    HW268816   4.982  14.094   9.691
88995SOL     OW68817   9.956  12.859   6.551
88995SOL    HW168818  10.030  12.904   6.591
88995SOL    HW268819   9.972  12.766   6.568
88996SOL     OW68820   8.980  12.068   3.487
88996SOL    HW168821   8.967  11.982   3.526
88996SOL    HW268822   8.934  12.063   3.403
88997SOL     OW68823   6.681  12.234   2.421
88997SOL    HW168824   6.676  12.313   2.475
88997SOL    HW268825   6.594  12.226   2.383
88998SOL     OW68826   7.709   2.883   6.836
88998SOL    HW168827   7.737   2.908   6.748
88998SOL    HW268828   7.642   2.816   6.822
88999SOL     OW68829   3.822   4.171   6.459
88999SOL    HW168830   3.768   4.224   6.400
88999SOL    HW268831   3.818   4.082   6.422
89000SOL     OW68832   4.520  12.621  10.035
89000SOL    HW168833   4.504  12.589   9.947
89000SOL    HW268834   4.592  12.684  10.026
89001SOL     OW68835   1.002  11.392  13.755
89001SOL    HW168836   0.913  11.426  13.769
89001SOL    HW268837   1.059  11.465  13.777
89002SOL     OW68838  14.700   9.300   1.126
89002SOL    HW168839  14.693   9.251   1.208
89002SOL    HW268840  14.780   9.352   1.136
89003SOL     OW68841   6.202   9.717   2.219
89003SOL    HW168842   6.124   9.705   2.166
89003SOL    HW268843   6.186   9.796   2.269
89004SOL     OW68844   1.317   7.692   6.283
89004SOL    HW168845   1.394   7.735   6.320
89004SOL    HW268846   1.268   7.661   6.360
89005SOL     OW68847   0.064   4.222  12.505
89005SOL    HW168848   0.027   4.152  12.450
89005SOL    HW268849   0.062   4.300  12.449
89006SOL     OW68850   1.803  10.902  12.886
89006SOL    HW168851   1.724  10.861  12.921
89006SOL    HW268852   1.838  10.839  12.824
89007SOL     OW68853   5.692   5.402   5.265
89007SOL    HW168854   5.664   5.356   5.344
89007SOL    HW268855   5.741   5.478   5.298
89008SOL     OW68856   1.157  11.184  13.845
89008SOL    HW168857   1.110  11.249  13.792
89008SOL    HW268858   1.210  11.236  13.905
89009SOL     OW68859   4.060  10.314  14.490
89009SOL    HW168860   4.075  10.400  14.451
89009SOL    HW268861   4.148  10.283  14.514
89010SOL     OW68862   7.577   4.197   1.261
89010SOL    HW168863   7.500   4.154   1.297
89010SOL    HW268864   7.650   4.159   1.311
89011SOL     OW68865  12.207  13.067   1.720
89011SOL    HW168866  12.289  13.021   1.738
89011SOL    HW268867  12.215  13.095   1.629
89012SOL     OW68868  12.731   1.753  13.665
89012SOL    HW168869  12.639   1.750  13.692
89012SOL    HW268870  12.780   1.743  13.747
89013SOL     OW68871  14.475  11.463   9.859
89013SOL    HW168872  14.444  11.551   9.881
89013SOL    HW268873  14.504  11.470   9.768
89014SOL     OW68874   7.933  11.694  10.334
89014SOL    HW168875   7.852  11.698  10.385
89014SOL    HW268876   7.974  11.779  10.350
89015SOL     OW68877  10.846   5.346   0.227
89015SOL    HW168878  10.903   5.378   0.296
89015SOL    HW268879  10.786   5.419   0.209
89016SOL     OW68880  13.884   3.434  14.727
89016SOL    HW168881  13.962   3.393  14.687
89016SOL    HW268882  13.892   3.526  14.704
89017SOL     OW68883   9.179  12.867   8.711
89017SOL    HW168884   9.159  12.793   8.767
89017SOL    HW268885   9.262  12.844   8.669
89018SOL     OW68886  11.633  13.630  11.276
89018SOL    HW168887  11.597  13.708  11.233
89018SOL    HW268888  11.623  13.560  11.212
89019SOL     OW68889  10.564   9.803   2.075
89019SOL    HW168890  10.648   9.837   2.046
89019SOL    HW268891  10.581   9.768   2.163
89020SOL     OW68892  11.344  14.147   4.700
89020SOL    HW168893  11.380  14.195   4.625
89020SOL    HW268894  11.317  14.063   4.663
89021SOL     OW68895   5.883  12.906   9.072
89021SOL    HW168896   5.926  12.965   9.010
89021SOL    HW268897   5.901  12.944   9.158
89022SOL     OW68898   9.703  10.585   5.161
89022SOL    HW168899   9.666  10.579   5.073
89022SOL    HW268900   9.718  10.494   5.187
89023SOL     OW68901   8.841   8.977   9.936
89023SOL    HW168902   8.787   8.980  10.015
89023SOL    HW268903   8.920   8.930   9.962
89024SOL     OW68904  14.618  13.498   0.077
89024SOL    HW168905  14.535  13.511   0.122
89024SOL    HW268906  14.614  13.409   0.043
89025SOL     OW68907   9.747   1.782  13.095
89025SOL    HW168908   9.666   1.825  13.069
89025SOL    HW268909   9.787   1.754  13.013
89026SOL     OW68910   7.469   8.884  10.380
89026SOL    HW168911   7.487   8.837  10.299
89026SOL    HW268912   7.374   8.893  10.382
89027SOL     OW68913  11.841   9.718   8.354
89027SOL    HW168914  11.893   9.637   8.359
89027SOL    HW268915  11.751   9.688   8.358
89028SOL     OW68916  13.782   5.865   7.637
89028SOL    HW168917  13.816   5.803   7.702
89028SOL    HW268918  13.742   5.810   7.570
89029SOL     OW68919  10.614   1.045  10.852
89029SOL    HW168920  10.666   1.122  10.828
89029SOL    HW268921  10.679   0.974  10.858
89030SOL     OW68922   7.375   9.788   9.314
89030SOL    HW168923   7.352   9.819   9.227
89030SOL    HW268924   7.314   9.833   9.373
89031SOL     OW68925  13.488  10.212   4.654
89031SOL    HW168926  13.395  10.189   4.658
89031SOL    HW268927  13.493  10.278   4.585
89032SOL     OW68928  14.293  11.820   3.437
89032SOL    HW168929  14.278  11.734   3.476
89032SOL    HW268930  14.232  11.878   3.482
89033SOL     OW68931   9.968   2.033   5.123
89033SOL    HW168932  10.047   1.997   5.083
89033SOL    HW268933   9.907   2.044   5.049
89034SOL     OW68934   6.314   6.190   4.401
89034SOL    HW168935   6.318   6.249   4.477
89034SOL    HW268936   6.401   6.150   4.397
89035SOL     OW68937   7.539  12.855   0.142
89035SOL    HW168938   7.573  12.933   0.097
89035SOL    HW268939   7.580  12.782   0.097
89036SOL     OW68940  10.456  13.494   6.221
89036SOL    HW168941  10.392  13.459   6.159
89036SOL    HW268942  10.406  13.556   6.275
89037SOL     OW68943   7.465  10.282   7.543
89037SOL    HW168944   7.443  10.205   7.490
89037SOL    HW268945   7.381  10.313   7.576
89038SOL     OW68946   5.967   3.263  13.628
89038SOL    HW168947   6.019   3.197  13.675
89038SOL    HW268948   6.010   3.270  13.543
89039SOL     OW68949   5.406   8.807   1.578
89039SOL    HW168950   5.375   8.762   1.657
89039SOL    HW268951   5.328   8.821   1.526
89040SOL     OW68952  13.035   0.210  12.520
89040SOL    HW168953  12.990   0.140  12.567
89040SOL    HW268954  13.048   0.176  12.432
89041SOL     OW68955  14.648  14.133   5.322
89041SOL    HW168956  14.645  14.228   5.325
89041SOL    HW268957  14.568  14.105   5.367
89042SOL     OW68958   1.863   8.400   5.262
89042SOL    HW168959   1.837   8.407   5.354
89042SOL    HW268960   1.957   8.420   5.261
89043SOL     OW68961   8.081   6.585  14.517
89043SOL    HW168962   8.022   6.560  14.589
89043SOL    HW268963   8.023   6.594  14.441
89044SOL     OW68964   4.940   1.556   0.670
89044SOL    HW168965   4.890   1.506   0.735
89044SOL    HW268966   4.881   1.565   0.595
89045SOL     OW68967   8.271   1.115  14.782
89045SOL    HW168968   8.342   1.130  14.720
89045SOL    HW268969   8.227   1.200  14.790
89046SOL     OW68970  10.774   4.287   0.506
89046SOL    HW168971  10.701   4.229   0.484
89046SOL    HW268972  10.734   4.355   0.562
89047SOL     OW68973  13.313   4.285  13.817
89047SOL    HW168974  13.321   4.380  13.829
89047SOL    HW268975  13.339   4.270  13.726
89048SOL     OW68976  13.523   2.714   8.068
89048SOL    HW168977  13.560   2.714   7.980
89048SOL    HW268978  13.478   2.630   8.076
89049SOL     OW68979   0.792   0.713   9.026
89049SOL    HW168980   0.782   0.689   8.934
89049SOL    HW268981   0.841   0.796   9.024
89050SOL     OW68982  11.888   9.839   3.963
89050SOL    HW168983  11.831   9.820   3.889
89050SOL    HW268984  11.884   9.760   4.017
89051SOL     OW68985   9.917   5.055   8.148
89051SOL    HW168986   9.969   5.076   8.070
89051SOL    HW268987   9.922   5.134   8.202
89052SOL     OW68988   0.573   2.801   0.491
89052SOL    HW168989   0.495   2.848   0.462
89052SOL    HW268990   0.643   2.865   0.484
89053SOL     OW68991  12.176   9.233   4.370
89053SOL    HW168992  12.227   9.153   4.355
89053SOL    HW268993  12.243   9.301   4.379
89054SOL     OW68994  11.138   4.336   7.561
89054SOL    HW168995  11.186   4.289   7.492
89054SOL    HW268996  11.048   4.305   7.553
89055SOL     OW68997   3.689  13.601   6.248
89055SOL    HW168998   3.743  13.523   6.233
89055SOL    HW268999   3.726  13.667   6.189
89056SOL     OW69000  14.278  11.034  12.716
89056SOL    HW169001  14.184  11.036  12.702
89056SOL    HW269002  14.289  11.058  12.808
89057SOL     OW69003   5.177   8.632   5.099
89057SOL    HW169004   5.129   8.584   5.032
89057SOL    HW269005   5.116   8.699   5.130
89058SOL     OW69006  12.338   4.673  14.252
89058SOL    HW169007  12.373   4.731  14.320
89058SOL    HW269008  12.289   4.606  14.300
89059SOL     OW69009  12.980  12.695   0.268
89059SOL    HW169010  12.989  12.640   0.345
89059SOL    HW269011  13.037  12.655   0.202
89060SOL     OW69012   4.948   4.785   6.099
89060SOL    HW169013   4.943   4.876   6.070
89060SOL    HW269014   4.862   4.768   6.139
89061SOL     OW69015   9.402  10.828   7.624
89061SOL    HW169016   9.349  10.902   7.596
89061SOL    HW269017   9.430  10.850   7.713
89062SOL     OW69018   2.382   1.469   4.424
89062SOL    HW169019   2.457   1.528   4.427
89062SOL    HW269020   2.363   1.458   4.331
89063SOL     OW69021   2.122   7.978   1.428
89063SOL    HW169022   2.077   8.045   1.376
89063SOL    HW269023   2.201   7.958   1.379
89064SOL     OW69024   6.176   4.247  13.564
89064SOL    HW169025   6.189   4.225  13.472
89064SOL    HW269026   6.238   4.192  13.612
89065SOL     OW69027   0.547   0.588   7.857
89065SOL    HW169028   0.516   0.542   7.779
89065SOL    HW269029   0.638   0.558   7.867
89066SOL     OW69030   4.908   8.237  12.016
89066SOL    HW169031   4.875   8.147  12.017
89066SOL    HW269032   5.003   8.228  12.007
89067SOL     OW69033   0.673   9.908  14.436
89067SOL    HW169034   0.590   9.913  14.484
89067SOL    HW269035   0.649   9.927  14.345
89068SOL     OW69036   6.203  14.614   4.975
89068SOL    HW169037   6.265  14.575   5.037
89068SOL    HW269038   6.141  14.544   4.955
89069SOL     OW69039  12.831  11.658   6.076
89069SOL    HW169040  12.751  11.685   6.120
89069SOL    HW269041  12.901  11.677   6.139
89070SOL     OW69042  12.827  10.954  12.917
89070SOL    HW169043  12.860  10.904  12.992
89070SOL    HW269044  12.792  11.035  12.956
89071SOL     OW69045   1.726  13.409   6.594
89071SOL    HW169046   1.685  13.445   6.673
89071SOL    HW269047   1.701  13.316   6.594
89072SOL     OW69048   6.004  11.212   7.122
89072SOL    HW169049   6.067  11.190   7.054
89072SOL    HW269050   6.057  11.241   7.196
89073SOL     OW69051  13.578   8.215   7.609
89073SOL    HW169052  13.614   8.174   7.530
89073SOL    HW269053  13.544   8.142   7.660
89074SOL     OW69054  12.812   3.426   3.945
89074SOL    HW169055  12.800   3.486   3.871
89074SOL    HW269056  12.737   3.366   3.939
89075SOL     OW69057   9.587   1.924   7.652
89075SOL    HW169058   9.638   1.987   7.602
89075SOL    HW269059   9.497   1.934   7.620
89076SOL     OW69060  11.159   3.022  10.666
89076SOL    HW169061  11.098   2.987  10.601
89076SOL    HW269062  11.222   2.951  10.681
89077SOL     OW69063   7.887  11.020   6.310
89077SOL    HW169064   7.871  10.929   6.335
89077SOL    HW269065   7.870  11.022   6.215
89078SOL     OW69066   8.070  11.834   0.447
89078SOL    HW169067   8.048  11.917   0.407
89078SOL    HW269068   8.037  11.768   0.386
89079SOL     OW69069   5.748  14.716   8.822
89079SOL    HW169070   5.736  14.804   8.859
89079SOL    HW269071   5.754  14.730   8.728
89080SOL     OW69072   7.664   4.736   3.853
89080SOL    HW169073   7.594   4.673   3.833
89080SOL    HW269074   7.680   4.725   3.947
89081SOL     OW69075  14.618   7.147  12.488
89081SOL    HW169076  14.586   7.210  12.423
89081SOL    HW269077  14.713   7.159  12.488
89082SOL     OW69078   1.326  10.440  11.000
89082SOL    HW169079   1.272  10.471  11.073
89082SOL    HW269080   1.416  10.459  11.028
89083SOL     OW69081   9.970   6.364  13.950
89083SOL    HW169082   9.957   6.457  13.936
89083SOL    HW269083   9.967   6.353  14.046
89084SOL     OW69084   8.981  12.361   3.451
89084SOL    HW169085   8.987  12.275   3.492
89084SOL    HW269086   8.923  12.411   3.508
89085SOL     OW69087   0.428  13.754   5.609
89085SOL    HW169088   0.487  13.689   5.648
89085SOL    HW269089   0.353  13.757   5.668
89086SOL     OW69090  14.621   0.864  10.780
89086SOL    HW169091  14.656   0.945  10.744
89086SOL    HW269092  14.573   0.824  10.707
89087SOL     OW69093   5.718   6.852   9.655
89087SOL    HW169094   5.760   6.768   9.674
89087SOL    HW269095   5.788   6.917   9.664
89088SOL     OW69096   3.193   6.721   7.709
89088SOL    HW169097   3.206   6.693   7.800
89088SOL    HW269098   3.194   6.640   7.658
89089SOL     OW69099  12.939   8.790  12.606
89089SOL    HW169100  12.905   8.708  12.641
89089SOL    HW269101  12.939   8.778  12.511
89090SOL     OW69102  12.339   8.706   1.906
89090SOL    HW169103  12.380   8.641   1.849
89090SOL    HW269104  12.361   8.678   1.995
89091SOL     OW69105  11.491   4.676   2.667
89091SOL    HW169106  11.396   4.661   2.673
89091SOL    HW269107  11.499   4.768   2.642
89092SOL     OW69108   8.519   2.062   4.493
89092SOL    HW169109   8.525   2.034   4.401
89092SOL    HW269110   8.478   1.988   4.538
89093SOL     OW69111   7.485   0.169  13.294
89093SOL    HW169112   7.431   0.246  13.310
89093SOL    HW269113   7.429   0.095  13.321
89094SOL     OW69114  13.737   4.779  13.601
89094SOL    HW169115  13.821   4.733  13.595
89094SOL    HW269116  13.712   4.795  13.510
89095SOL     OW69117  12.497  13.711   6.595
89095SOL    HW169118  12.438  13.766   6.647
89095SOL    HW269119  12.502  13.754   6.510
89096SOL     OW69120  10.977   1.008   5.834
89096SOL    HW169121  10.901   0.969   5.792
89096SOL    HW269122  10.940   1.072   5.895
89097SOL     OW69123  14.681   1.827   9.856
89097SOL    HW169124  14.773   1.827   9.881
89097SOL    HW269125  14.635   1.858   9.934
89098SOL     OW69126   9.383   9.013   1.354
89098SOL    HW169127   9.301   8.978   1.390
89098SOL    HW269128   9.447   9.000   1.423
89099SOL     OW69129   1.654  10.135  13.187
89099SOL    HW169130   1.585  10.169  13.243
89099SOL    HW269131   1.679  10.209  13.132
89100SOL     OW69132   2.300   5.018   0.022
89100SOL    HW169133   2.364   5.066  14.842
89100SOL    HW269134   2.353   4.969   0.086
89101SOL     OW69135   6.885   7.174   2.637
89101SOL    HW169136   6.937   7.247   2.671
89101SOL    HW269137   6.846   7.206   2.556
89102SOL     OW69138   7.515   4.240   5.137
89102SOL    HW169139   7.472   4.275   5.058
89102SOL    HW269140   7.589   4.189   5.103
89103SOL     OW69141   2.530   7.311   4.746
89103SOL    HW169142   2.587   7.381   4.715
89103SOL    HW269143   2.487   7.279   4.667
89104SOL     OW69144   6.430   2.842   1.980
89104SOL    HW169145   6.341   2.870   2.000
89104SOL    HW269146   6.482   2.922   1.982
89105SOL     OW69147   0.020   4.219   4.509
89105SOL    HW169148   0.069   4.204   4.428
89105SOL    HW269149   0.064   4.164   4.574
89106SOL     OW69150   4.222   6.340  11.421
89106SOL    HW169151   4.219   6.378  11.509
89106SOL    HW269152   4.229   6.246  11.436
89107SOL     OW69153   2.722  12.734   0.360
89107SOL    HW169154   2.796  12.715   0.304
89107SOL    HW269155   2.646  12.704   0.311
89108SOL     OW69156   1.055   7.703   2.021
89108SOL    HW169157   1.004   7.636   1.974
89108SOL    HW269158   1.124   7.728   1.960
89109SOL     OW69159   2.871   9.938  13.042
89109SOL    HW169160   2.785   9.924  13.002
89109SOL    HW269161   2.852   9.948  13.135
89110SOL     OW69162   2.719  10.904   7.392
89110SOL    HW169163   2.754  10.823   7.430
89110SOL    HW269164   2.742  10.972   7.455
89111SOL     OW69165  12.820   4.517   4.666
89111SOL    HW169166  12.745   4.547   4.718
89111SOL    HW269167  12.893   4.513   4.728
89112SOL     OW69168   5.319   0.607   3.230
89112SOL    HW169169   5.397   0.551   3.232
89112SOL    HW269170   5.346   0.688   3.273
89113SOL     OW69171  14.179   9.264  14.208
89113SOL    HW169172  14.178   9.207  14.132
89113SOL    HW269173  14.271   9.266  14.235
89114SOL     OW69174   1.681  14.230   0.946
89114SOL    HW169175   1.708  14.249   0.856
89114SOL    HW269176   1.706  14.309   0.995
89115SOL     OW69177   9.797   6.639  12.588
89115SOL    HW169178   9.843   6.723  12.579
89115SOL    HW269179   9.824   6.606  12.674
89116SOL     OW69180  10.794   7.814   7.147
89116SOL    HW169181  10.862   7.878   7.168
89116SOL    HW269182  10.732   7.820   7.220
89117SOL     OW69183  14.345  12.014  13.515
89117SOL    HW169184  14.300  12.086  13.470
89117SOL    HW269185  14.275  11.963  13.555
89118SOL     OW69186  10.006   7.772   0.447
89118SOL    HW169187  10.023   7.727   0.530
89118SOL    HW269188  10.090   7.772   0.401
89119SOL     OW69189   4.896   3.479   9.618
89119SOL    HW169190   4.900   3.574   9.629
89119SOL    HW269191   4.928   3.444   9.701
89120SOL     OW69192   5.045  12.789  13.779
89120SOL    HW169193   5.089  12.862  13.734
89120SOL    HW269194   5.033  12.820  13.868
89121SOL     OW69195  12.784   1.791   3.974
89121SOL    HW169196  12.733   1.801   4.055
89121SOL    HW269197  12.752   1.861   3.918
89122SOL     OW69198   5.549   1.867  14.509
89122SOL    HW169199   5.457   1.885  14.527
89122SOL    HW269200   5.568   1.786  14.555
89123SOL     OW69201  12.610  14.535   5.873
89123SOL    HW169202  12.530  14.570   5.834
89123SOL    HW269203  12.599  14.550   5.967
89124SOL     OW69204   9.913   8.292   9.223
89124SOL    HW169205   9.965   8.334   9.155
89124SOL    HW269206   9.977   8.264   9.288
89125SOL     OW69207   4.564   1.634  10.495
89125SOL    HW169208   4.498   1.606  10.431
89125SOL    HW269209   4.585   1.554  10.544
89126SOL     OW69210   9.357   7.369   0.739
89126SOL    HW169211   9.381   7.276   0.737
89126SOL    HW269212   9.284   7.376   0.677
89127SOL     OW69213  11.150   3.298   7.215
89127SOL    HW169214  11.120   3.322   7.303
89127SOL    HW269215  11.239   3.331   7.210
89128SOL     OW69216   9.018   0.942  12.071
89128SOL    HW169217   8.942   0.889  12.094
89128SOL    HW269218   9.085   0.917  12.135
89129SOL     OW69219   9.151  10.011   7.088
89129SOL    HW169220   9.091  10.017   7.163
89129SOL    HW269221   9.143  10.095   7.043
89130SOL     OW69222   0.864  11.730   5.068
89130SOL    HW169223   0.814  11.715   5.148
89130SOL    HW269224   0.941  11.780   5.096
89131SOL     OW69225   3.969   1.336   9.204
89131SOL    HW169226   3.994   1.423   9.173
89131SOL    HW269227   4.013   1.276   9.143
89132SOL     OW69228   2.579  13.692  14.119
89132SOL    HW169229   2.548  13.726  14.203
89132SOL    HW269230   2.545  13.603  14.115
89133SOL     OW69231   6.641  14.328  12.128
89133SOL    HW169232   6.637  14.385  12.051
89133SOL    HW269233   6.610  14.383  12.200
89134SOL     OW69234   2.027  14.709  14.085
89134SOL    HW169235   1.965  14.781  14.074
89134SOL    HW269236   2.010  14.651  14.010
89135SOL     OW69237  12.891  10.233   2.676
89135SOL    HW169238  12.899  10.192   2.762
89135SOL    HW269239  12.976  10.217   2.634
89136SOL     OW69240   4.662   1.693   2.368
89136SOL    HW169241   4.588   1.753   2.358
89136SOL    HW269242   4.697   1.712   2.455
89137SOL     OW69243   8.938  13.763  13.755
89137SOL    HW169244   8.965  13.849  13.722
89137SOL    HW269245   8.981  13.700  13.696
89138SOL     OW69246   1.728   5.864  12.641
89138SOL    HW169247   1.815   5.829  12.622
89138SOL    HW269248   1.692   5.805  12.707
89139SOL     OW69249   1.005   4.259   1.700
89139SOL    HW169250   1.027   4.170   1.726
89139SOL    HW269251   1.063   4.277   1.626
89140SOL     OW69252   5.612  11.747   9.494
89140SOL    HW169253   5.552  11.816   9.467
89140SOL    HW269254   5.695  11.792   9.510
89141SOL     OW69255  12.408   1.731  12.155
89141SOL    HW169256  12.439   1.666  12.091
89141SOL    HW269257  12.349   1.788  12.106
89142SOL     OW69258   2.553   3.297   8.367
89142SOL    HW169259   2.648   3.285   8.369
89142SOL    HW269260   2.534   3.347   8.446
89143SOL     OW69261   9.752  10.053   2.675
89143SOL    HW169262   9.795  10.110   2.611
89143SOL    HW269263   9.809  10.056   2.752
89144SOL     OW69264   0.573  11.692   2.924
89144SOL    HW169265   0.513  11.617   2.918
89144SOL    HW269266   0.617  11.680   3.008
89145SOL     OW69267   8.386   1.537   0.126
89145SOL    HW169268   8.295   1.566   0.122
89145SOL    HW269269   8.389   1.476   0.199
89146SOL     OW69270   9.285   3.440   1.416
89146SOL    HW169271   9.216   3.475   1.473
89146SOL    HW269272   9.252   3.454   1.327
89147SOL     OW69273   2.768  12.662   5.585
89147SOL    HW169274   2.745  12.617   5.666
89147SOL    HW269275   2.707  12.628   5.520
89148SOL     OW69276  10.883   6.359  11.388
89148SOL    HW169277  10.879   6.264  11.394
89148SOL    HW269278  10.859   6.379  11.298
89149SOL     OW69279   5.932   1.418   3.933
89149SOL    HW169280   5.870   1.414   3.861
89149SOL    HW269281   5.917   1.337   3.982
89150SOL     OW69282  14.059   8.190   3.573
89150SOL    HW169283  14.109   8.149   3.502
89150SOL    HW269284  14.014   8.116   3.615
89151SOL     OW69285  14.435  13.304   4.892
89151SOL    HW169286  14.453  13.270   4.980
89151SOL    HW269287  14.506  13.270   4.838
89152SOL     OW69288  10.916   6.989  10.546
89152SOL    HW169289  10.938   7.022  10.633
89152SOL    HW269290  10.880   6.902  10.562
89153SOL     OW69291  10.559   6.252   3.398
89153SOL    HW169292  10.469   6.235   3.426
89153SOL    HW269293  10.613   6.201   3.459
89154SOL     OW69294  10.701   9.137   7.427
89154SOL    HW169295  10.635   9.130   7.359
89154SOL    HW269296  10.690   9.058   7.479
89155SOL     OW69297   8.585  12.609  13.092
89155SOL    HW169298   8.680  12.609  13.101
89155SOL    HW269299   8.568  12.555  13.014
89156SOL     OW69300   3.319   6.994   9.331
89156SOL    HW169301   3.409   6.980   9.300
89156SOL    HW269302   3.330   7.038   9.415
89157SOL     OW69303  10.658  13.653   6.516
89157SOL    HW169304  10.615  13.574   6.550
89157SOL    HW269305  10.586  13.711   6.491
89158SOL     OW69306   0.204  10.563  10.598
89158SOL    HW169307   0.267  10.625  10.560
89158SOL    HW269308   0.258  10.490  10.628
89159SOL     OW69309   7.504   2.789  11.829
89159SOL    HW169310   7.545   2.873  11.810
89159SOL    HW269311   7.498   2.745  11.745
89160SOL     OW69312   5.502   7.495   7.247
89160SOL    HW169313   5.424   7.454   7.211
89160SOL    HW269314   5.470   7.578   7.284
89161SOL     OW69315   9.094   2.742   5.821
89161SOL    HW169316   9.069   2.834   5.825
89161SOL    HW269317   9.187   2.743   5.798
89162SOL     OW69318   4.599  11.945  11.802
89162SOL    HW169319   4.561  11.940  11.714
89162SOL    HW269320   4.616  11.854  11.826
89163SOL     OW69321   7.885   9.440  12.412
89163SOL    HW169322   7.815   9.389  12.371
89163SOL    HW269323   7.923   9.491  12.340
89164SOL     OW69324   1.130   3.456   6.944
89164SOL    HW169325   1.088   3.542   6.954
89164SOL    HW269326   1.157   3.453   6.852
89165SOL     OW69327   8.419   9.103  10.102
89165SOL    HW169328   8.461   9.032  10.151
89165SOL    HW269329   8.334   9.114  10.144
89166SOL     OW69330   5.363   1.612   6.658
89166SOL    HW169331   5.359   1.524   6.696
89166SOL    HW269332   5.301   1.663   6.710
89167SOL     OW69333   3.269  11.542   9.250
89167SOL    HW169334   3.355  11.574   9.222
89167SOL    HW269335   3.288  11.477   9.317
89168SOL     OW69336   7.854  10.786   5.216
89168SOL    HW169337   7.816  10.867   5.180
89168SOL    HW269338   7.778  10.728   5.226
89169SOL     OW69339   3.610   4.915   9.415
89169SOL    HW169340   3.522   4.928   9.451
89169SOL    HW269341   3.600   4.935   9.322
89170SOL     OW69342  10.392   9.245  12.386
89170SOL    HW169343  10.344   9.278  12.309
89170SOL    HW269344  10.351   9.161  12.405
89171SOL     OW69345   4.990   7.139  10.534
89171SOL    HW169346   4.974   7.229  10.505
89171SOL    HW269347   5.012   7.147  10.626
89172SOL     OW69348  14.641   0.580  11.290
89172SOL    HW169349  14.697   0.647  11.250
89172SOL    HW269350  14.568   0.571  11.229
89173SOL     OW69351   5.681  14.627   5.861
89173SOL    HW169352   5.716  14.703   5.907
89173SOL    HW269353   5.587  14.627   5.881
89174SOL     OW69354   8.632  11.964  14.788
89174SOL    HW169355   8.606  12.054  14.805
89174SOL    HW269356   8.687  11.940  14.862
89175SOL     OW69357   1.884   5.478   5.846
89175SOL    HW169358   1.799   5.503   5.812
89175SOL    HW269359   1.873   5.389   5.878
89176SOL     OW69360   0.773  10.733   5.563
89176SOL    HW169361   0.785  10.651   5.514
89176SOL    HW269362   0.751  10.798   5.496
89177SOL     OW69363   5.123  14.135   8.194
89177SOL    HW169364   5.037  14.147   8.154
89177SOL    HW269365   5.104  14.095   8.279
89178SOL     OW69366   4.745   5.484  10.837
89178SOL    HW169367   4.777   5.559  10.788
89178SOL    HW269368   4.822   5.451  10.884
89179SOL     OW69369   6.130   2.506  13.779
89179SOL    HW169370   6.187   2.467  13.845
89179SOL    HW269371   6.148   2.457  13.699
89180SOL     OW69372   3.434   5.403   9.675
89180SOL    HW169373   3.480   5.323   9.651
89180SOL    HW269374   3.404   5.439   9.592
89181SOL     OW69375   9.399   2.745   4.273
89181SOL    HW169376   9.428   2.738   4.364
89181SOL    HW269377   9.371   2.837   4.265
89182SOL     OW69378  14.703   3.241   1.796
89182SOL    HW169379  14.618   3.284   1.808
89182SOL    HW269380  14.682   3.149   1.783
89183SOL     OW69381  14.168   4.371   7.851
89183SOL    HW169382  14.205   4.440   7.906
89183SOL    HW269383  14.186   4.290   7.899
89184SOL     OW69384  12.456   2.180   9.148
89184SOL    HW169385  12.456   2.275   9.134
89184SOL    HW269386  12.543   2.152   9.120
89185SOL     OW69387   7.886  11.691   6.731
89185SOL    HW169388   7.886  11.749   6.655
89185SOL    HW269389   7.811  11.719   6.783
89186SOL     OW69390   0.994   1.675  14.776
89186SOL    HW169391   0.990   1.767  14.751
89186SOL    HW269392   0.903   1.648  14.781
89187SOL     OW69393   2.093  10.477   6.309
89187SOL    HW169394   2.169  10.432   6.271
89187SOL    HW269395   2.122  10.567   6.322
89188SOL     OW69396   1.534   6.868   7.605
89188SOL    HW169397   1.596   6.867   7.532
89188SOL    HW269398   1.456   6.823   7.572
89189SOL     OW69399   1.804   2.472   7.642
89189SOL    HW169400   1.742   2.541   7.620
89189SOL    HW269401   1.885   2.498   7.598
89190SOL     OW69402   1.257  11.991  14.367
89190SOL    HW169403   1.305  11.925  14.317
89190SOL    HW269404   1.270  12.072  14.318
89191SOL     OW69405   1.054   7.674   5.341
89191SOL    HW169406   1.061   7.657   5.435
89191SOL    HW269407   1.095   7.759   5.329
89192SOL     OW69408  12.688   3.887   9.425
89192SOL    HW169409  12.761   3.878   9.487
89192SOL    HW269410  12.730   3.915   9.343
89193SOL     OW69411   9.111  13.913   0.809
89193SOL    HW169412   9.135  13.990   0.860
89193SOL    HW269413   9.195  13.872   0.787
89194SOL     OW69414   8.997  14.519   6.883
89194SOL    HW169415   9.006  14.470   6.801
89194SOL    HW269416   9.037  14.604   6.865
89195SOL     OW69417   2.862   3.734   6.700
89195SOL    HW169418   2.773   3.730   6.734
89195SOL    HW269419   2.869   3.658   6.642
89196SOL     OW69420   1.660   3.092   1.605
89196SOL    HW169421   1.708   3.080   1.687
89196SOL    HW269422   1.581   3.139   1.630
89197SOL     OW69423   8.094   0.795  11.152
89197SOL    HW169424   8.080   0.700  11.153
89197SOL    HW269425   8.022   0.830  11.204
89198SOL     OW69426   9.767   5.488   3.706
89198SOL    HW169427   9.753   5.522   3.618
89198SOL    HW269428   9.753   5.394   3.698
89199SOL     OW69429   2.111   0.096   2.474
89199SOL    HW169430   2.126   0.121   2.383
89199SOL    HW269431   2.108   0.180   2.522
89200SOL     OW69432   3.033   0.106   2.846
89200SOL    HW169433   3.116   0.063   2.865
89200SOL    HW269434   3.053   0.170   2.779
89201SOL     OW69435   0.418   4.537   9.450
89201SOL    HW169436   0.414   4.453   9.404
89201SOL    HW269437   0.443   4.601   9.383
89202SOL     OW69438   6.379   8.516   7.073
89202SOL    HW169439   6.406   8.596   7.026
89202SOL    HW269440   6.440   8.449   7.041
89203SOL     OW69441  10.280   2.398   9.560
89203SOL    HW169442  10.225   2.452   9.616
89203SOL    HW269443  10.357   2.452   9.543
89204SOL     OW69444   4.795   6.339   4.508
89204SOL    HW169445   4.877   6.301   4.539
89204SOL    HW269446   4.821   6.421   4.466
89205SOL     OW69447   4.500   2.544  13.581
89205SOL    HW169448   4.526   2.602  13.652
89205SOL    HW269449   4.420   2.583  13.546
89206SOL     OW69450   2.717   5.223   5.363
89206SOL    HW169451   2.700   5.136   5.398
89206SOL    HW269452   2.682   5.221   5.274
89207SOL     OW69453   5.064   6.490   5.014
89207SOL    HW169454   5.072   6.446   5.099
89207SOL    HW269455   5.152   6.483   4.976
89208SOL     OW69456  13.455   0.951   3.231
89208SOL    HW169457  13.498   0.934   3.148
89208SOL    HW269458  13.506   1.022   3.271
89209SOL     OW69459   6.681   1.316   4.628
89209SOL    HW169460   6.623   1.242   4.645
89209SOL    HW269461   6.738   1.286   4.557
89210SOL     OW69462   4.973   0.192   4.145
89210SOL    HW169463   4.961   0.099   4.163
89210SOL    HW269464   4.978   0.233   4.231
89211SOL     OW69465   3.109  12.917   5.263
89211SOL    HW169466   3.071  12.868   5.190
89211SOL    HW269467   3.155  12.851   5.315
89212SOL     OW69468   2.648  14.256  10.920
89212SOL    HW169469   2.665  14.205  10.842
89212SOL    HW269470   2.553  14.254  10.931
89213SOL     OW69471   8.293   2.217   7.287
89213SOL    HW169472   8.205   2.188   7.313
89213SOL    HW269473   8.352   2.162   7.338
89214SOL     OW69474   4.915   1.836   1.889
89214SOL    HW169475   4.866   1.829   1.808
89214SOL    HW269476   4.858   1.796   1.955
89215SOL     OW69477   7.348   7.636  11.204
89215SOL    HW169478   7.301   7.681  11.135
89215SOL    HW269479   7.344   7.695  11.279
89216SOL     OW69480   0.789   5.890   5.577
89216SOL    HW169481   0.722   5.889   5.645
89216SOL    HW269482   0.861   5.839   5.614
89217SOL     OW69483  14.226  12.948  14.156
89217SOL    HW169484  14.313  12.967  14.120
89217SOL    HW269485  14.190  12.882  14.097
89218SOL     OW69486  12.387   3.751   3.582
89218SOL    HW169487  12.441   3.814   3.629
89218SOL    HW269488  12.376   3.789   3.495
89219SOL     OW69489  11.003   3.264   9.996
89219SOL    HW169490  11.037   3.211  10.068
89219SOL    HW269491  10.916   3.229   9.978
89220SOL     OW69492  14.327   4.647  14.201
89220SOL    HW169493  14.367   4.676  14.119
89220SOL    HW269494  14.283   4.725  14.235
89221SOL     OW69495   3.578   1.198   0.151
89221SOL    HW169496   3.667   1.217   0.181
89221SOL    HW269497   3.560   1.110   0.183
89222SOL     OW69498   7.776   0.460   6.590
89222SOL    HW169499   7.774   0.376   6.546
89222SOL    HW269500   7.772   0.438   6.683
89223SOL     OW69501   7.229   3.894  12.221
89223SOL    HW169502   7.296   3.843  12.175
89223SOL    HW269503   7.278   3.956  12.274
89224SOL     OW69504  11.249   8.500   0.156
89224SOL    HW169505  11.218   8.569   0.214
89224SOL    HW269506  11.266   8.426   0.215
89225SOL     OW69507   6.287   7.778   0.668
89225SOL    HW169508   6.202   7.741   0.642
89225SOL    HW269509   6.325   7.809   0.586
89226SOL     OW69510   9.364   0.412   2.686
89226SOL    HW169511   9.324   0.475   2.745
89226SOL    HW269512   9.421   0.465   2.629
89227SOL     OW69513   7.143  14.428  13.915
89227SOL    HW169514   7.150  14.396  13.825
89227SOL    HW269515   7.169  14.520  13.910
89228SOL     OW69516   5.373   5.578   8.948
89228SOL    HW169517   5.430   5.596   9.023
89228SOL    HW269518   5.389   5.650   8.887
89229SOL     OW69519   9.460   0.448   4.120
89229SOL    HW169520   9.421   0.482   4.201
89229SOL    HW269521   9.386   0.437   4.061
89230SOL     OW69522  14.344  13.940  12.738
89230SOL    HW169523  14.264  13.930  12.687
89230SOL    HW269524  14.329  14.019  12.789
89231SOL     OW69525  14.060   2.653   0.257
89231SOL    HW169526  14.050   2.567   0.297
89231SOL    HW269527  14.006   2.649   0.177
89232SOL     OW69528  14.161   3.386   9.928
89232SOL    HW169529  14.242   3.381   9.979
89232SOL    HW269530  14.104   3.320   9.968
89233SOL     OW69531  13.651  13.807   7.754
89233SOL    HW169532  13.629  13.845   7.839
89233SOL    HW269533  13.610  13.865   7.690
89234SOL     OW69534   6.827  14.872   2.659
89234SOL    HW169535   6.806  14.782   2.685
89234SOL    HW269536   6.754   0.025   2.602
89235SOL     OW69537  12.301  14.413   6.191
89235SOL    HW169538  12.307  14.349   6.262
89235SOL    HW269539  12.209  14.438   6.189
89236SOL     OW69540  10.249   3.287  11.900
89236SOL    HW169541  10.318   3.224  11.881
89236SOL    HW269542  10.288   3.372  11.882
89237SOL     OW69543   2.586  10.193   5.399
89237SOL    HW169544   2.616  10.262   5.339
89237SOL    HW269545   2.592  10.234   5.486
89238SOL     OW69546  11.823  10.236   1.496
89238SOL    HW169547  11.784  10.302   1.553
89238SOL    HW269548  11.862  10.172   1.557
89239SOL     OW69549   2.393   8.075  11.475
89239SOL    HW169550   2.434   8.071  11.562
89239SOL    HW269551   2.449   8.021  11.420
89240SOL     OW69552   2.794   1.173   1.250
89240SOL    HW169553   2.800   1.204   1.340
89240SOL    HW269554   2.707   1.200   1.221
89241SOL     OW69555  13.071  11.491   5.248
89241SOL    HW169556  12.999  11.438   5.212
89241SOL    HW269557  13.086  11.455   5.335
89242SOL     OW69558   0.356   6.742  11.562
89242SOL    HW169559   0.334   6.827  11.523
89242SOL    HW269560   0.278   6.689  11.550
89243SOL     OW69561   2.532   6.077  12.936
89243SOL    HW169562   2.456   6.049  12.986
89243SOL    HW269563   2.555   6.002  12.882
89244SOL     OW69564   6.307   8.693   0.638
89244SOL    HW169565   6.240   8.629   0.662
89244SOL    HW269566   6.258   8.763   0.594
89245SOL     OW69567   0.677   6.156   8.570
89245SOL    HW169568   0.766   6.163   8.603
89245SOL    HW269569   0.642   6.076   8.610
89246SOL     OW69570   5.344  12.730  12.613
89246SOL    HW169571   5.421  12.719  12.558
89246SOL    HW269572   5.372  12.787  12.684
89247SOL     OW69573   1.424   6.812   0.632
89247SOL    HW169574   1.332   6.800   0.658
89247SOL    HW269575   1.421   6.877   0.562
89248SOL     OW69576   5.681   7.231  10.963
89248SOL    HW169577   5.751   7.255  11.023
89248SOL    HW269578   5.721   7.234  10.876
89249SOL     OW69579  10.509  10.435   5.796
89249SOL    HW169580  10.504  10.523   5.833
89249SOL    HW269581  10.585  10.438   5.737
89250SOL     OW69582   7.368  11.608   9.701
89250SOL    HW169583   7.287  11.571   9.666
89250SOL    HW269584   7.339  11.683   9.753
89251SOL     OW69585   3.742   7.612  11.074
89251SOL    HW169586   3.696   7.691  11.102
89251SOL    HW269587   3.776   7.573  11.155
89252SOL     OW69588   1.389   9.614   3.402
89252SOL    HW169589   1.365   9.706   3.389
89252SOL    HW269590   1.314   9.577   3.449
89253SOL     OW69591  13.968  12.864  13.566
89253SOL    HW169592  13.972  12.883  13.473
89253SOL    HW269593  13.879  12.834  13.581
89254SOL     OW69594   6.194   4.985   6.958
89254SOL    HW169595   6.253   5.060   6.960
89254SOL    HW269596   6.224   4.934   6.883
89255SOL     OW69597  13.764   6.434   6.463
89255SOL    HW169598  13.783   6.527   6.472
89255SOL    HW269599  13.755   6.403   6.554
89256SOL     OW69600   8.385   8.027   8.466
89256SOL    HW169601   8.396   8.040   8.560
89256SOL    HW269602   8.373   8.115   8.431
89257SOL     OW69603   7.053   6.494   3.331
89257SOL    HW169604   7.094   6.413   3.362
89257SOL    HW269605   7.056   6.552   3.407
89258SOL     OW69606  11.334   0.927  14.589
89258SOL    HW169607  11.270   0.911  14.520
89258SOL    HW269608  11.290   0.984  14.652
89259SOL     OW69609   5.645   7.161   1.407
89259SOL    HW169610   5.572   7.219   1.429
89259SOL    HW269611   5.629   7.082   1.459
89260SOL     OW69612   9.764   2.395   6.323
89260SOL    HW169613   9.775   2.473   6.268
89260SOL    HW269614   9.770   2.321   6.262
89261SOL     OW69615   5.417  10.453   6.959
89261SOL    HW169616   5.356  10.383   6.983
89261SOL    HW269617   5.382  10.489   6.877
89262SOL     OW69618   6.927   2.585   5.339
89262SOL    HW169619   6.919   2.674   5.305
89262SOL    HW269620   6.843   2.544   5.319
89263SOL     OW69621  10.073   5.557   1.005
89263SOL    HW169622  10.145   5.614   1.030
89263SOL    HW269623  10.057   5.577   0.912
89264SOL     OW69624  10.604  14.393  13.473
89264SOL    HW169625  10.658  14.447  13.415
89264SOL    HW269626  10.667  14.335  13.517
89265SOL     OW69627  11.088   9.291   1.219
89265SOL    HW169628  11.022   9.247   1.273
89265SOL    HW269629  11.055   9.285   1.130
89266SOL     OW69630  11.260  13.238   6.879
89266SOL    HW169631  11.183  13.278   6.838
89266SOL    HW269632  11.275  13.158   6.829
89267SOL     OW69633   4.210   3.358  12.432
89267SOL    HW169634   4.187   3.450  12.442
89267SOL    HW269635   4.135   3.310  12.467
89268SOL     OW69636   4.815  12.937   3.218
89268SOL    HW169637   4.745  12.950   3.155
89268SOL    HW269638   4.864  13.019   3.218
89269SOL     OW69639   2.925   6.791   3.184
89269SOL    HW169640   2.855   6.752   3.131
89269SOL    HW269641   2.883   6.865   3.228
89270SOL     OW69642  10.347  11.785   7.253
89270SOL    HW169643  10.262  11.756   7.287
89270SOL    HW269644  10.397  11.809   7.330
89271SOL     OW69645   3.345  13.666   3.483
89271SOL    HW169646   3.406  13.670   3.410
89271SOL    HW269647   3.330  13.758   3.506
89272SOL     OW69648   3.476   4.017  13.442
89272SOL    HW169649   3.490   4.012  13.536
89272SOL    HW269650   3.521   4.097  13.415
89273SOL     OW69651   6.687  10.197   9.667
89273SOL    HW169652   6.609  10.182   9.614
89273SOL    HW269653   6.657  10.186   9.758
89274SOL     OW69654   3.551   1.661   3.486
89274SOL    HW169655   3.588   1.732   3.539
89274SOL    HW269656   3.501   1.608   3.549
89275SOL     OW69657   9.352   5.442   8.744
89275SOL    HW169658   9.382   5.351   8.751
89275SOL    HW269659   9.273   5.437   8.690
89276SOL     OW69660   6.461  12.455  12.316
89276SOL    HW169661   6.416  12.476  12.235
89276SOL    HW269662   6.470  12.360  12.315
89277SOL     OW69663   1.725   3.377   2.472
89277SOL    HW169664   1.791   3.445   2.466
89277SOL    HW269665   1.677   3.397   2.553
89278SOL     OW69666   1.469  10.428   1.883
89278SOL    HW169667   1.546  10.375   1.905
89278SOL    HW269668   1.395  10.379   1.919
89279SOL     OW69669   6.623   5.020   4.001
89279SOL    HW169670   6.697   4.965   3.973
89279SOL    HW269671   6.546   4.966   3.986
89280SOL     OW69672  14.523   2.759   6.889
89280SOL    HW169673  14.617   2.755   6.906
89280SOL    HW269674  14.500   2.852   6.899
89281SOL     OW69675   7.628  12.497   7.965
89281SOL    HW169676   7.713  12.457   7.947
89281SOL    HW269677   7.565  12.428   7.947
89282SOL     OW69678   8.641   7.272  13.021
89282SOL    HW169679   8.722   7.308  13.057
89282SOL    HW269680   8.578   7.278  13.093
89283SOL     OW69681   3.150   8.417   5.537
89283SOL    HW169682   3.105   8.360   5.600
89283SOL    HW269683   3.241   8.387   5.538
89284SOL     OW69684  14.545  12.845   7.763
89284SOL    HW169685  14.562  12.824   7.671
89284SOL    HW269686  14.583  12.772   7.812
89285SOL     OW69687   2.087  12.505   6.725
89285SOL    HW169688   2.088  12.566   6.652
89285SOL    HW269689   2.014  12.533   6.780
89286SOL     OW69690   6.623   4.897   0.900
89286SOL    HW169691   6.688   4.878   0.832
89286SOL    HW269692   6.542   4.914   0.852
89287SOL     OW69693   3.328   9.727   3.110
89287SOL    HW169694   3.312   9.803   3.054
89287SOL    HW269695   3.412   9.692   3.080
89288SOL     OW69696  12.860   6.016   3.797
89288SOL    HW169697  12.796   6.086   3.786
89288SOL    HW269698  12.944   6.061   3.809
89289SOL     OW69699   0.454   6.552   3.519
89289SOL    HW169700   0.501   6.541   3.602
89289SOL    HW269701   0.438   6.462   3.489
89290SOL     OW69702   7.377   3.486  13.244
89290SOL    HW169703   7.357   3.412  13.302
89290SOL    HW269704   7.470   3.504  13.259
89291SOL     OW69705   6.571   4.104   1.295
89291SOL    HW169706   6.536   4.015   1.298
89291SOL    HW269707   6.515   4.150   1.232
89292SOL     OW69708   4.985   7.111  12.668
89292SOL    HW169709   5.005   7.017  12.668
89292SOL    HW269710   5.071   7.153  12.666
89293SOL     OW69711  10.046   1.364   8.082
89293SOL    HW169712  10.054   1.435   8.146
89293SOL    HW269713   9.956   1.370   8.051
89294SOL     OW69714   0.149   1.322  11.861
89294SOL    HW169715   0.082   1.253  11.863
89294SOL    HW269716   0.206   1.302  11.935
89295SOL     OW69717  12.389   3.868   3.843
89295SOL    HW169718  12.353   3.852   3.930
89295SOL    HW269719  12.368   3.960   3.825
89296SOL     OW69720   3.507   8.907   6.994
89296SOL    HW169721   3.417   8.893   7.025
89296SOL    HW269722   3.529   8.995   7.025
89297SOL     OW69723   5.939  13.049  14.724
89297SOL    HW169724   5.935  13.127  14.668
89297SOL    HW269725   5.953  12.977  14.663
89298SOL     OW69726   4.109  11.845   0.222
89298SOL    HW169727   4.191  11.892   0.236
89298SOL    HW269728   4.041  11.912   0.227
89299SOL     OW69729   0.896   9.791  10.441
89299SOL    HW169730   0.956   9.745  10.498
89299SOL    HW269731   0.854   9.722  10.389
89300SOL     OW69732   9.257  14.735  11.978
89300SOL    HW169733   9.346  14.755  12.007
89300SOL    HW269734   9.200  14.772  12.045
89301SOL     OW69735   3.459   1.001   8.470
89301SOL    HW169736   3.492   1.084   8.436
89301SOL    HW269737   3.404   0.966   8.399
89302SOL     OW69738   1.539   2.135  10.158
89302SOL    HW169739   1.468   2.136  10.223
89302SOL    HW269740   1.596   2.064  10.186
89303SOL     OW69741   1.773   9.604   6.882
89303SOL    HW169742   1.771   9.609   6.786
89303SOL    HW269743   1.711   9.534   6.903
89304SOL     OW69744  12.432  14.463   0.028
89304SOL    HW169745  12.516  14.471   0.074
89304SOL    HW269746  12.401  14.552   0.018
89305SOL     OW69747  11.015   7.325  10.581
89305SOL    HW169748  10.977   7.412  10.595
89305SOL    HW269749  11.104   7.342  10.550
89306SOL     OW69750  10.518  13.422   6.604
89306SOL    HW169751  10.468  13.478   6.662
89306SOL    HW269752  10.455  13.357   6.573
89307SOL     OW69753   2.221   7.110   8.889
89307SOL    HW169754   2.163   7.106   8.965
89307SOL    HW269755   2.169   7.154   8.821
89308SOL     OW69756   9.072   3.473  10.955
89308SOL    HW169757   9.094   3.470  10.862
89308SOL    HW269758   9.028   3.390  10.972
89309SOL     OW69759  11.194  11.444   2.857
89309SOL    HW169760  11.103  11.447   2.826
89309SOL    HW269761  11.245  11.417   2.781
89310SOL     OW69762  12.270  10.844  11.645
89310SOL    HW169763  12.296  10.909  11.710
89310SOL    HW269764  12.337  10.776  11.651
89311SOL     OW69765   6.572   4.849   2.629
89311SOL    HW169766   6.589   4.818   2.718
89311SOL    HW269767   6.644   4.909   2.610
89312SOL     OW69768  13.715   1.026  14.381
89312SOL    HW169769  13.748   1.104  14.337
89312SOL    HW269770  13.708   1.051  14.473
89313SOL     OW69771  10.140  11.339  14.727
89313SOL    HW169772  10.233  11.333  14.705
89313SOL    HW269773  10.132  11.293  14.810
89314SOL     OW69774   2.584   5.969   6.973
89314SOL    HW169775   2.675   5.988   6.948
89314SOL    HW269776   2.540   5.950   6.890
89315SOL     OW69777   2.581  10.641   4.494
89315SOL    HW169778   2.582  10.550   4.465
89315SOL    HW269779   2.610  10.637   4.585
89316SOL     OW69780   9.074  11.671   8.671
89316SOL    HW169781   9.132  11.642   8.742
89316SOL    HW269782   9.061  11.764   8.688
89317SOL     OW69783   7.135   2.852  10.806
89317SOL    HW169784   7.064   2.848  10.870
89317SOL    HW269785   7.091   2.844  10.721
89318SOL     OW69786   3.911   8.829   4.710
89318SOL    HW169787   3.925   8.910   4.759
89318SOL    HW269788   3.821   8.803   4.732
89319SOL     OW69789   3.717   2.712  12.849
89319SOL    HW169790   3.700   2.798  12.810
89319SOL    HW269791   3.758   2.662  12.779
89320SOL     OW69792   0.988  10.890   3.698
89320SOL    HW169793   1.002  10.802   3.662
89320SOL    HW269794   0.954  10.941   3.624
89321SOL     OW69795   1.766  11.058   0.344
89321SOL    HW169796   1.780  11.153   0.342
89321SOL    HW269797   1.800  11.031   0.430
89322SOL     OW69798   1.573  14.750   8.593
89322SOL    HW169799   1.582  14.655   8.589
89322SOL    HW269800   1.624  14.775   8.670
89323SOL     OW69801   2.933   5.893   0.463
89323SOL    HW169802   2.880   5.948   0.520
89323SOL    HW269803   3.022   5.902   0.497
89324SOL     OW69804   6.404   1.876   5.954
89324SOL    HW169805   6.429   1.960   5.916
89324SOL    HW269806   6.485   1.842   5.991
89325SOL     OW69807   8.097   2.777  14.311
89325SOL    HW169808   8.151   2.728  14.250
89325SOL    HW269809   8.149   2.781  14.391
89326SOL     OW69810  13.523   9.865   3.444
89326SOL    HW169811  13.464   9.941   3.447
89326SOL    HW269812  13.511   9.822   3.528
89327SOL     OW69813   8.744   2.481  13.652
89327SOL    HW169814   8.730   2.574  13.668
89327SOL    HW269815   8.779   2.477  13.563
89328SOL     OW69816  12.067   8.324   7.013
89328SOL    HW169817  12.083   8.277   6.931
89328SOL    HW269818  12.154   8.351   7.042
89329SOL     OW69819   9.985   8.032   1.847
89329SOL    HW169820   9.931   8.072   1.778
89329SOL    HW269821   9.929   7.964   1.885
89330SOL     OW69822   3.544   4.435   6.785
89330SOL    HW169823   3.453   4.411   6.803
89330SOL    HW269824   3.575   4.473   6.867
89331SOL     OW69825   0.980   0.741   3.957
89331SOL    HW169826   0.986   0.759   3.863
89331SOL    HW269827   1.071   0.732   3.986
89332SOL     OW69828   8.320  10.089   2.647
89332SOL    HW169829   8.322  10.003   2.689
89332SOL    HW269830   8.253  10.138   2.695
89333SOL     OW69831   0.942   9.504  11.113
89333SOL    HW169832   1.001   9.438  11.149
89333SOL    HW269833   0.956   9.498  11.018
89334SOL     OW69834   2.752  14.817  14.406
89334SOL    HW169835   2.676   0.002  14.411
89334SOL    HW269836   2.716  14.729  14.418
89335SOL     OW69837   4.468   5.121   4.396
89335SOL    HW169838   4.398   5.117   4.331
89335SOL    HW269839   4.448   5.199   4.449
89336SOL     OW69840   2.756   3.352   6.673
89336SOL    HW169841   2.831   3.304   6.638
89336SOL    HW269842   2.705   3.377   6.596
89337SOL     OW69843  13.244   2.169   4.896
89337SOL    HW169844  13.287   2.165   4.811
89337SOL    HW269845  13.310   2.138   4.958
89338SOL     OW69846  12.063   2.615   0.162
89338SOL    HW169847  12.120   2.595   0.088
89338SOL    HW269848  12.084   2.548   0.227
89339SOL     OW69849   3.483   0.944   1.907
89339SOL    HW169850   3.402   0.901   1.879
89339SOL    HW269851   3.465   1.038   1.897
89340SOL     OW69852   3.857   2.063   2.971
89340SOL    HW169853   3.768   2.028   2.978
89340SOL    HW269854   3.846   2.143   2.918
89341SOL     OW69855  13.325  13.337  13.720
89341SOL    HW169856  13.382  13.277  13.769
89341SOL    HW269857  13.385  13.398  13.677
89342SOL     OW69858   7.169   0.466   8.754
89342SOL    HW169859   7.106   0.512   8.809
89342SOL    HW269860   7.178   0.522   8.676
89343SOL     OW69861   5.560  11.830   9.930
89343SOL    HW169862   5.520  11.779  10.000
89343SOL    HW269863   5.487  11.859   9.876
89344SOL     OW69864   7.004   0.942   7.412
89344SOL    HW169865   6.985   0.854   7.446
89344SOL    HW269866   6.972   1.001   7.480
89345SOL     OW69867  10.558  11.747   5.151
89345SOL    HW169868  10.536  11.777   5.239
89345SOL    HW269869  10.621  11.811   5.119
89346SOL     OW69870  11.950   3.523   8.790
89346SOL    HW169871  11.964   3.525   8.885
89346SOL    HW269872  12.007   3.592   8.756
89347SOL     OW69873   4.552   9.854   6.549
89347SOL    HW169874   4.627   9.809   6.590
89347SOL    HW269875   4.512   9.788   6.494
89348SOL     OW69876   3.998   3.922   3.261
89348SOL    HW169877   3.992   3.890   3.171
89348SOL    HW269878   4.088   3.954   3.270
89349SOL     OW69879   0.759   2.879   5.632
89349SOL    HW169880   0.726   2.809   5.689
89349SOL    HW269881   0.825   2.924   5.686
89350SOL     OW69882   9.585   9.715   5.293
89350SOL    HW169883   9.491   9.706   5.305
89350SOL    HW269884   9.607   9.799   5.333
89351SOL     OW69885   7.204   6.626   1.363
89351SOL    HW169886   7.146   6.688   1.319
89351SOL    HW269887   7.289   6.670   1.364
89352SOL     OW69888   7.692  13.923  13.973
89352SOL    HW169889   7.683  14.009  13.932
89352SOL    HW269890   7.775  13.929  14.021
89353SOL     OW69891   5.530   3.558  12.284
89353SOL    HW169892   5.451   3.596  12.246
89353SOL    HW269893   5.596   3.565  12.214
89354SOL     OW69894  10.393   4.147  13.115
89354SOL    HW169895  10.429   4.074  13.064
89354SOL    HW269896  10.458   4.162  13.183
89355SOL     OW69897   2.761   2.514   7.048
89355SOL    HW169898   2.853   2.534   7.068
89355SOL    HW269899   2.718   2.599   7.048
89356SOL     OW69900   3.229   2.740   7.105
89356SOL    HW169901   3.279   2.808   7.151
89356SOL    HW269902   3.286   2.712   7.033
89357SOL     OW69903   4.258   4.000   7.918
89357SOL    HW169904   4.256   4.083   7.966
89357SOL    HW269905   4.183   3.952   7.950
89358SOL     OW69906   2.436  13.954   9.050
89358SOL    HW169907   2.357  13.977   9.099
89358SOL    HW269908   2.508  13.985   9.106
89359SOL     OW69909  11.861   4.522  14.849
89359SOL    HW169910  11.788   4.518  14.788
89359SOL    HW269911  11.848   4.447   0.034
89360SOL     OW69912   7.283   9.971   2.130
89360SOL    HW169913   7.290  10.014   2.215
89360SOL    HW269914   7.335  10.025   2.071
89361SOL     OW69915   7.214   1.745   2.869
89361SOL    HW169916   7.191   1.716   2.958
89361SOL    HW269917   7.215   1.665   2.817
89362SOL     OW69918  14.045   9.081  13.490
89362SOL    HW169919  14.081   9.169  13.475
89362SOL    HW269920  14.092   9.049  13.567
89363SOL     OW69921  10.597   7.671  14.679
89363SOL    HW169922  10.510   7.640  14.655
89363SOL    HW269923  10.613   7.635  14.766
89364SOL     OW69924  14.682   6.785  13.687
89364SOL    HW169925  14.767   6.771  13.729
89364SOL    HW269926  14.625   6.818  13.756
89365SOL     OW69927   6.898  14.751   4.858
89365SOL    HW169928   6.875  14.744   4.766
89365SOL    HW269929   6.819  14.722   4.904
89366SOL     OW69930  12.305   8.177   4.891
89366SOL    HW169931  12.384   8.133   4.923
89366SOL    HW269932  12.238   8.108   4.889
89367SOL     OW69933  13.880   9.955   6.036
89367SOL    HW169934  13.787   9.949   6.013
89367SOL    HW269935  13.884  10.020   6.106
89368SOL     OW69936   9.413  13.586   2.204
89368SOL    HW169937   9.460  13.669   2.200
89368SOL    HW269938   9.452  13.533   2.135
89369SOL     OW69939   9.953  12.693   5.157
89369SOL    HW169940   9.938  12.623   5.093
89369SOL    HW269941  10.022  12.659   5.214
89370SOL     OW69942  10.222   2.582  10.691
89370SOL    HW169943  10.205   2.524  10.618
89370SOL    HW269944  10.300   2.545  10.733
89371SOL     OW69945  13.868   3.081   8.816
89371SOL    HW169946  13.938   3.145   8.802
89371SOL    HW269947  13.882   3.015   8.748
89372SOL     OW69948   1.095  14.022   4.424
89372SOL    HW169949   1.111  13.932   4.394
89372SOL    HW269950   1.179  14.052   4.457
89373SOL     OW69951   8.225  13.537  13.720
89373SOL    HW169952   8.163  13.512  13.789
89373SOL    HW269953   8.173  13.537  13.640
89374SOL     OW69954   1.784   1.914  11.749
89374SOL    HW169955   1.857   1.916  11.688
89374SOL    HW269956   1.756   2.005  11.756
89375SOL     OW69957   3.737   0.716   1.160
89375SOL    HW169958   3.737   0.650   1.090
89375SOL    HW269959   3.815   0.769   1.142
89376SOL     OW69960  14.119  13.791  14.626
89376SOL    HW169961  14.212  13.807  14.642
89376SOL    HW269962  14.076  13.874  14.650
89377SOL     OW69963   8.243   0.530  13.031
89377SOL    HW169964   8.236   0.476  13.109
89377SOL    HW269965   8.293   0.477  12.969
89378SOL     OW69966   7.717   1.063   1.127
89378SOL    HW169967   7.718   0.968   1.124
89378SOL    HW269968   7.768   1.085   1.205
89379SOL     OW69969  12.034   4.570   9.121
89379SOL    HW169970  12.095   4.643   9.110
89379SOL    HW269971  12.082   4.507   9.175
89380SOL     OW69972   9.663   4.667  12.666
89380SOL    HW169973   9.703   4.672  12.579
89380SOL    HW269974   9.569   4.677  12.651
89381SOL     OW69975  10.715  10.180  14.381
89381SOL    HW169976  10.778  10.153  14.314
89381SOL    HW269977  10.703  10.274  14.367
89382SOL     OW69978  12.717   0.930   8.282
89382SOL    HW169979  12.657   1.000   8.309
89382SOL    HW269980  12.664   0.873   8.227
89383SOL     OW69981  10.892   3.577   0.798
89383SOL    HW169982  10.877   3.530   0.717
89383SOL    HW269983  10.813   3.631   0.809
89384SOL     OW69984   3.479  14.783  10.120
89384SOL    HW169985   3.560  14.792  10.070
89384SOL    HW269986   3.413  14.759  10.055
89385SOL     OW69987   1.292   8.208   2.525
89385SOL    HW169988   1.255   8.152   2.457
89385SOL    HW269989   1.227   8.207   2.595
89386SOL     OW69990  12.863   3.492  14.401
89386SOL    HW169991  12.799   3.420  14.396
89386SOL    HW269992  12.846   3.545  14.323
89387SOL     OW69993   3.906   8.377  12.436
89387SOL    HW169994   3.909   8.395  12.342
89387SOL    HW269995   3.974   8.311  12.450
89388SOL     OW69996   4.017  12.225   1.971
89388SOL    HW169997   3.987  12.168   2.042
89388SOL    HW269998   4.095  12.268   2.006
89389SOL     OW69999   7.856   7.133  11.958
89389SOL    HW170000   7.872   7.210  12.011
89389SOL    HW270001   7.834   7.167  11.871
89390SOL     OW70002  10.124  13.640  12.294
89390SOL    HW170003  10.085  13.720  12.330
89390SOL    HW270004  10.054  13.603  12.240
89391SOL     OW70005   7.065  13.312   9.982
89391SOL    HW170006   7.108  13.377   9.926
89391SOL    HW270007   7.125  13.237   9.982
89392SOL     OW70008  13.155   3.596   8.615
89392SOL    HW170009  13.188   3.519   8.662
89392SOL    HW270010  13.233   3.641   8.585
89393SOL     OW70011   6.116  14.040   2.054
89393SOL    HW170012   6.044  14.034   2.117
89393SOL    HW270013   6.076  14.078   1.976
89394SOL     OW70014   2.120   9.640   6.488
89394SOL    HW170015   2.047   9.631   6.426
89394SOL    HW270016   2.097   9.584   6.561
89395SOL     OW70017  10.767  14.160  12.091
89395SOL    HW170018  10.686  14.182  12.046
89395SOL    HW270019  10.823  14.236  12.078
89396SOL     OW70020   5.532  10.136   0.383
89396SOL    HW170021   5.511  10.174   0.468
89396SOL    HW270022   5.613  10.087   0.398
89397SOL     OW70023  10.400   7.789   2.847
89397SOL    HW170024  10.415   7.736   2.769
89397SOL    HW270025  10.370   7.727   2.913
89398SOL     OW70026   4.358   0.185   1.088
89398SOL    HW170027   4.381   0.192   0.995
89398SOL    HW270028   4.418   0.245   1.132
89399SOL     OW70029   7.955  14.702   4.343
89399SOL    HW170030   8.022  14.722   4.278
89399SOL    HW270031   7.923  14.787   4.372
89400SOL     OW70032  14.749  10.392   4.774
89400SOL    HW170033  14.717  10.360   4.858
89400SOL    HW270034  14.791  10.475   4.794
89401SOL     OW70035  14.760  11.965  13.347
89401SOL    HW170036  14.696  12.025  13.385
89401SOL    HW270037  14.751  11.977  13.252
89402SOL     OW70038   3.414   1.487   2.415
89402SOL    HW170039   3.475   1.415   2.428
89402SOL    HW270040   3.446   1.556   2.473
89403SOL     OW70041  11.603  12.556   1.827
89403SOL    HW170042  11.517  12.514   1.833
89403SOL    HW270043  11.665  12.486   1.849
89404SOL     OW70044  10.051   1.613   4.432
89404SOL    HW170045  10.004   1.645   4.355
89404SOL    HW270046  10.090   1.530   4.403
89405SOL     OW70047   4.039   3.226   9.836
89405SOL    HW170048   4.016   3.296   9.897
89405SOL    HW270049   4.131   3.242   9.814
89406SOL     OW70050   8.104   4.922   7.731
89406SOL    HW170051   8.178   4.955   7.782
89406SOL    HW270052   8.029   4.930   7.790
89407SOL     OW70053   4.379   8.558   4.937
89407SOL    HW170054   4.323   8.617   4.886
89407SOL    HW270055   4.325   8.481   4.952
89408SOL     OW70056   5.886   9.593   6.262
89408SOL    HW170057   5.878   9.503   6.292
89408SOL    HW270058   5.799   9.615   6.228
89409SOL     OW70059   8.244   6.900  13.662
89409SOL    HW170060   8.251   6.809  13.691
89409SOL    HW270061   8.317   6.911  13.600
89410SOL     OW70062   0.882   9.208   8.561
89410SOL    HW170063   0.821   9.163   8.619
89410SOL    HW270064   0.827   9.247   8.493
89411SOL     OW70065  14.640   9.176   5.943
89411SOL    HW170066  14.693   9.253   5.924
89411SOL    HW270067  14.700   9.102   5.934
89412SOL     OW70068   6.044   5.154   1.246
89412SOL    HW170069   6.013   5.113   1.164
89412SOL    HW270070   5.969   5.148   1.305
89413SOL     OW70071   6.728   3.443  12.104
89413SOL    HW170072   6.687   3.528  12.089
89413SOL    HW270073   6.822   3.461  12.104
89414SOL     OW70074  12.600   7.913  13.796
89414SOL    HW170075  12.666   7.857  13.836
89414SOL    HW270076  12.622   8.002  13.825
89415SOL     OW70077   5.338  14.771   1.748
89415SOL    HW170078   5.291  14.835   1.695
89415SOL    HW270079   5.280  14.695   1.751
89416SOL     OW70080  14.280  10.618  10.037
89416SOL    HW170081  14.325  10.538  10.063
89416SOL    HW270082  14.247  10.600   9.949
89417SOL     OW70083   3.090   4.122  12.359
89417SOL    HW170084   3.085   4.061  12.285
89417SOL    HW270085   3.000   4.133  12.388
89418SOL     OW70086  13.989  11.367  10.933
89418SOL    HW170087  14.033  11.297  10.981
89418SOL    HW270088  14.004  11.445  10.986
89419SOL     OW70089   5.968  12.795   0.756
89419SOL    HW170090   6.002  12.757   0.675
89419SOL    HW270091   5.939  12.720   0.807
89420SOL     OW70092   2.289   7.588  12.106
89420SOL    HW170093   2.338   7.532  12.166
89420SOL    HW270094   2.211   7.538  12.084
89421SOL     OW70095  11.921   0.143  10.671
89421SOL    HW170096  11.861   0.174  10.604
89421SOL    HW270097  11.898   0.051  10.683
89422SOL     OW70098  13.032   4.265  11.660
89422SOL    HW170099  13.008   4.174  11.677
89422SOL    HW270100  13.126   4.268  11.679
89423SOL     OW70101   1.039   5.353   9.670
89423SOL    HW170102   1.076   5.280   9.621
89423SOL    HW270103   1.082   5.350   9.755
89424SOL     OW70104   7.867  14.219   3.086
89424SOL    HW170105   7.784  14.203   3.041
89424SOL    HW270106   7.895  14.132   3.114
89425SOL     OW70107   3.137   0.756  14.153
89425SOL    HW170108   3.177   0.698  14.089
89425SOL    HW270109   3.176   0.731  14.236
89426SOL     OW70110   1.551  13.436  11.484
89426SOL    HW170111   1.632  13.392  11.510
89426SOL    HW270112   1.557  13.522  11.525
89427SOL     OW70113   8.291  13.191   9.823
89427SOL    HW170114   8.254  13.212   9.909
89427SOL    HW270115   8.328  13.273   9.793
89428SOL     OW70116   4.060   1.321   2.545
89428SOL    HW170117   4.059   1.363   2.459
89428SOL    HW270118   4.041   1.229   2.527
89429SOL     OW70119   3.016  11.620   9.385
89429SOL    HW170120   3.101  11.609   9.343
89429SOL    HW270121   2.968  11.540   9.365
89430SOL     OW70122  11.812  11.788   5.265
89430SOL    HW170123  11.854  11.719   5.317
89430SOL    HW270124  11.878  11.857   5.258
89431SOL     OW70125  11.709   4.583   6.863
89431SOL    HW170126  11.768   4.536   6.803
89431SOL    HW270127  11.701   4.670   6.824
89432SOL     OW70128   4.646   9.182   6.880
89432SOL    HW170129   4.655   9.243   6.953
89432SOL    HW270130   4.735   9.152   6.862
89433SOL     OW70131   2.165  12.639   2.121
89433SOL    HW170132   2.255  12.638   2.152
89433SOL    HW270133   2.168  12.689   2.040
89434SOL     OW70134   4.711   9.361   3.367
89434SOL    HW170135   4.668   9.278   3.346
89434SOL    HW270136   4.803   9.346   3.344
89435SOL     OW70137  13.511   1.698  11.524
89435SOL    HW170138  13.545   1.621  11.478
89435SOL    HW270139  13.585   1.759  11.527
89436SOL     OW70140  12.318   1.153  14.189
89436SOL    HW170141  12.373   1.104  14.250
89436SOL    HW270142  12.358   1.139  14.104
89437SOL     OW70143   5.554   6.425   3.093
89437SOL    HW170144   5.506   6.391   3.168
89437SOL    HW270145   5.625   6.362   3.080
89438SOL     OW70146  12.673  14.836   5.548
89438SOL    HW170147  12.644   0.010   5.470
89438SOL    HW270148  12.755   0.007   5.572
89439SOL     OW70149   7.263   7.859   9.783
89439SOL    HW170150   7.350   7.897   9.776
89439SOL    HW270151   7.273   7.789   9.848
89440SOL     OW70152   0.125   8.087  12.811
89440SOL    HW170153   0.138   8.157  12.747
89440SOL    HW270154   0.147   8.007  12.763
89441SOL     OW70155   8.529  10.011   7.498
89441SOL    HW170156   8.453   9.960   7.525
89441SOL    HW270157   8.595   9.946   7.475
89442SOL     OW70158   2.272   2.825  11.699
89442SOL    HW170159   2.217   2.766  11.647
89442SOL    HW270160   2.232   2.911  11.687
89443SOL     OW70161   1.652   9.422   3.195
89443SOL    HW170162   1.624   9.389   3.280
89443SOL    HW270163   1.667   9.343   3.142
89444SOL     OW70164   7.532  11.814   9.147
89444SOL    HW170165   7.618  11.815   9.105
89444SOL    HW270166   7.552  11.804   9.241
89445SOL     OW70167  14.681   8.714  11.358
89445SOL    HW170168  14.619   8.655  11.401
89445SOL    HW270169  14.661   8.800  11.394
89446SOL     OW70170  14.438  10.975   8.766
89446SOL    HW170171  14.469  10.903   8.710
89446SOL    HW270172  14.505  11.043   8.758
89447SOL     OW70173  13.244  10.850  11.349
89447SOL    HW170174  13.188  10.819  11.278
89447SOL    HW270175  13.288  10.927  11.313
89448SOL     OW70176   0.932  11.330   6.888
89448SOL    HW170177   0.947  11.236   6.880
89448SOL    HW270178   1.020  11.368   6.893
89449SOL     OW70179   9.082  10.954  10.561
89449SOL    HW170180   9.072  10.978  10.469
89449SOL    HW270181   8.992  10.951  10.595
89450SOL     OW70182   9.966   8.297   5.099
89450SOL    HW170183  10.023   8.357   5.051
89450SOL    HW270184   9.934   8.235   5.033
89451SOL     OW70185   4.072   9.948   7.511
89451SOL    HW170186   4.006   9.897   7.557
89451SOL    HW270187   4.127   9.883   7.467
89452SOL     OW70188  12.020  13.544  13.685
89452SOL    HW170189  11.960  13.495  13.629
89452SOL    HW270190  11.988  13.527  13.774
89453SOL     OW70191   0.522  12.032  13.402
89453SOL    HW170192   0.515  11.947  13.444
89453SOL    HW270193   0.477  12.093  13.461
89454SOL     OW70194  14.837   4.205   3.627
89454SOL    HW170195  14.762   4.157   3.591
89454SOL    HW270196   0.023   4.217   3.553
89455SOL     OW70197   3.709  12.959   7.301
89455SOL    HW170198   3.639  12.978   7.363
89455SOL    HW270199   3.780  13.018   7.327
89456SOL     OW70200  14.118   7.942   3.396
89456SOL    HW170201  14.089   7.944   3.304
89456SOL    HW270202  14.077   7.862   3.431
89457SOL     OW70203  10.762   5.417  14.426
89457SOL    HW170204  10.779   5.390  14.336
89457SOL    HW270205  10.838   5.470  14.450
89458SOL     OW70206   7.437  11.943   3.087
89458SOL    HW170207   7.415  11.929   2.995
89458SOL    HW270208   7.518  11.993   3.086
89459SOL     OW70209   7.880   0.665   3.761
89459SOL    HW170210   7.876   0.581   3.808
89459SOL    HW270211   7.946   0.650   3.693
89460SOL     OW70212  10.684  13.946   4.616
89460SOL    HW170213  10.634  13.865   4.623
89460SOL    HW270214  10.717  13.946   4.526
89461SOL     OW70215   6.760   9.948   4.602
89461SOL    HW170216   6.779   9.986   4.517
89461SOL    HW270217   6.669   9.974   4.620
89462SOL     OW70218   0.971   4.086   1.384
89462SOL    HW170219   1.020   4.150   1.435
89462SOL    HW270220   0.891   4.072   1.434
89463SOL     OW70221  12.588  11.530   7.731
89463SOL    HW170222  12.640  11.544   7.810
89463SOL    HW270223  12.498  11.545   7.759
89464SOL     OW70224   3.790  11.347   3.627
89464SOL    HW170225   3.803  11.390   3.712
89464SOL    HW270226   3.784  11.254   3.647
89465SOL     OW70227   3.767   0.499  12.567
89465SOL    HW170228   3.819   0.465  12.639
89465SOL    HW270229   3.763   0.426  12.504
89466SOL     OW70230   8.509  14.862   8.831
89466SOL    HW170231   8.527  14.814   8.750
89466SOL    HW270232   8.595   0.012   8.865
89467SOL     OW70233   2.812  13.203  11.082
89467SOL    HW170234   2.844  13.211  11.172
89467SOL    HW270235   2.828  13.111  11.060
89468SOL     OW70236   3.290   3.267   6.130
89468SOL    HW170237   3.312   3.320   6.054
89468SOL    HW270238   3.370   3.217   6.147
89469SOL     OW70239  10.571  12.045   9.978
89469SOL    HW170240  10.640  11.984  10.002
89469SOL    HW270241  10.615  12.130   9.970
89470SOL     OW70242   3.204   1.077   7.799
89470SOL    HW170243   3.183   1.087   7.707
89470SOL    HW270244   3.131   1.027   7.836
89471SOL     OW70245  11.664   1.222  12.613
89471SOL    HW170246  11.695   1.284  12.679
89471SOL    HW270247  11.737   1.163  12.597
89472SOL     OW70248   1.952   1.338   6.046
89472SOL    HW170249   2.010   1.264   6.061
89472SOL    HW270250   1.890   1.308   5.981
89473SOL     OW70251   0.935   3.824  14.713
89473SOL    HW170252   0.875   3.818  14.786
89473SOL    HW270253   1.015   3.861  14.750
89474SOL     OW70254   1.821   7.228   4.440
89474SOL    HW170255   1.898   7.218   4.496
89474SOL    HW270256   1.838   7.169   4.366
89475SOL     OW70257   7.149   5.041  14.481
89475SOL    HW170258   7.206   5.099  14.431
89475SOL    HW270259   7.199   4.961  14.493
89476SOL     OW70260   5.957   4.122   8.284
89476SOL    HW170261   6.000   4.192   8.235
89476SOL    HW270262   6.000   4.123   8.369
89477SOL     OW70263  12.331  14.435   3.377
89477SOL    HW170264  12.327  14.342   3.402
89477SOL    HW270265  12.368  14.434   3.288
89478SOL     OW70266  14.471   4.353  11.176
89478SOL    HW170267  14.427   4.322  11.255
89478SOL    HW270268  14.470   4.277  11.117
89479SOL     OW70269   9.157   8.025   8.983
89479SOL    HW170270   9.172   7.949   8.926
89479SOL    HW270271   9.245   8.056   9.004
89480SOL     OW70272   0.876   5.810   5.100
89480SOL    HW170273   0.875   5.870   5.175
89480SOL    HW270274   0.784   5.804   5.073
89481SOL     OW70275  12.485  10.612   3.703
89481SOL    HW170276  12.439  10.534   3.733
89481SOL    HW270277  12.561  10.578   3.656
89482SOL     OW70278   5.341   2.808  12.583
89482SOL    HW170279   5.329   2.804  12.678
89482SOL    HW270280   5.431   2.778  12.568
89483SOL     OW70281  10.267   6.809   0.260
89483SOL    HW170282  10.314   6.799   0.342
89483SOL    HW270283  10.177   6.785   0.281
89484SOL     OW70284   9.334   3.424  10.821
89484SOL    HW170285   9.379   3.410  10.904
89484SOL    HW270286   9.390   3.485  10.773
89485SOL     OW70287   8.328  14.316  14.822
89485SOL    HW170288   8.283  14.232  14.812
89485SOL    HW270289   8.273  14.379  14.776
89486SOL     OW70290  10.890   2.480   9.699
89486SOL    HW170291  10.906   2.421   9.772
89486SOL    HW270292  10.939   2.441   9.626
89487SOL     OW70293   0.679   9.649   9.538
89487SOL    HW170294   0.609   9.596   9.499
89487SOL    HW270295   0.726   9.685   9.463
89488SOL     OW70296   7.574   2.378  13.798
89488SOL    HW170297   7.561   2.335  13.883
89488SOL    HW270298   7.540   2.466  13.810
89489SOL     OW70299  11.448   5.040  14.365
89489SOL    HW170300  11.356   5.015  14.358
89489SOL    HW270301  11.456   5.075  14.454
89490SOL     OW70302   9.611   4.252   5.579
89490SOL    HW170303   9.656   4.258   5.663
89490SOL    HW270304   9.538   4.313   5.585
89491SOL     OW70305   8.623   1.786   9.746
89491SOL    HW170306   8.625   1.799   9.841
89491SOL    HW270307   8.692   1.722   9.730
89492SOL     OW70308   8.879   4.777   1.359
89492SOL    HW170309   8.813   4.839   1.328
89492SOL    HW270310   8.856   4.761   1.450
89493SOL     OW70311  13.754   1.799   1.002
89493SOL    HW170312  13.684   1.768   1.060
89493SOL    HW270313  13.835   1.779   1.050
89494SOL     OW70314   3.753  12.958   6.706
89494SOL    HW170315   3.785  12.916   6.786
89494SOL    HW270316   3.715  12.886   6.655
89495SOL     OW70317   6.140  11.446   4.897
89495SOL    HW170318   6.134  11.359   4.859
89495SOL    HW270319   6.070  11.496   4.853
89496SOL     OW70320  10.313   8.594   0.645
89496SOL    HW170321  10.363   8.597   0.727
89496SOL    HW270322  10.349   8.666   0.592
89497SOL     OW70323   2.320  13.389   9.134
89497SOL    HW170324   2.385  13.458   9.128
89497SOL    HW270325   2.349  13.324   9.069
89498SOL     OW70326   9.901   5.025   4.247
89498SOL    HW170327   9.852   4.969   4.307
89498SOL    HW270328   9.955   4.965   4.196
89499SOL     OW70329   5.275   6.216  13.777
89499SOL    HW170330   5.340   6.239  13.711
89499SOL    HW270331   5.204   6.278  13.764
89500SOL     OW70332   7.890   0.129   0.157
89500SOL    HW170333   7.881   0.054   0.099
89500SOL    HW270334   7.966   0.108   0.212
89501SOL     OW70335  11.626   0.776  10.381
89501SOL    HW170336  11.546   0.744  10.339
89501SOL    HW270337  11.694   0.766  10.315
89502SOL     OW70338   4.494   4.362  14.109
89502SOL    HW170339   4.495   4.395  14.199
89502SOL    HW270340   4.406   4.381  14.077
89503SOL     OW70341  14.239   5.390   8.443
89503SOL    HW170342  14.210   5.343   8.365
89503SOL    HW270343  14.314   5.441   8.413
89504SOL     OW70344   4.143   0.810   3.234
89504SOL    HW170345   4.086   0.755   3.182
89504SOL    HW270346   4.123   0.899   3.206
89505SOL     OW70347  10.647  13.131   6.892
89505SOL    HW170348  10.673  13.150   6.802
89505SOL    HW270349  10.606  13.212   6.923
89506SOL     OW70350   9.308   0.355   1.190
89506SOL    HW170351   9.285   0.283   1.249
89506SOL    HW270352   9.242   0.352   1.121
89507SOL     OW70353   2.017   0.809   0.611
89507SOL    HW170354   2.069   0.737   0.647
89507SOL    HW270355   1.970   0.771   0.537
89508SOL     OW70356   6.248  13.619   8.915
89508SOL    HW170357   6.186  13.690   8.931
89508SOL    HW270358   6.329  13.662   8.890
89509SOL     OW70359   6.837   3.287   1.568
89509SOL    HW170360   6.911   3.240   1.529
89509SOL    HW270361   6.877   3.355   1.622
89510SOL     OW70362   9.451   6.827   5.567
89510SOL    HW170363   9.493   6.887   5.505
89510SOL    HW270364   9.523   6.774   5.601
89511SOL     OW70365   0.444   1.280  13.889
89511SOL    HW170366   0.453   1.189  13.861
89511SOL    HW270367   0.471   1.332  13.813
89512SOL     OW70368   5.777   1.043   0.126
89512SOL    HW170369   5.748   1.084   0.208
89512SOL    HW270370   5.728   0.961   0.121
89513SOL     OW70371   0.586   7.206   8.190
89513SOL    HW170372   0.627   7.198   8.104
89513SOL    HW270373   0.578   7.301   8.203
89514SOL     OW70374   4.264   6.788   1.904
89514SOL    HW170375   4.341   6.837   1.934
89514SOL    HW270376   4.191   6.847   1.920
89515SOL     OW70377  14.334  11.614   3.937
89515SOL    HW170378  14.332  11.694   3.990
89515SOL    HW270379  14.310  11.544   3.997
89516SOL     OW70380  12.216   4.116  10.244
89516SOL    HW170381  12.302   4.075  10.250
89516SOL    HW270382  12.231   4.194  10.191
89517SOL     OW70383   8.992   7.362   3.549
89517SOL    HW170384   8.909   7.405   3.570
89517SOL    HW270385   9.046   7.431   3.512
89518SOL     OW70386   2.783   5.657   2.246
89518SOL    HW170387   2.807   5.571   2.280
89518SOL    HW270388   2.855   5.679   2.186
89519SOL     OW70389  11.653  14.283   0.694
89519SOL    HW170390  11.740  14.320   0.711
89519SOL    HW270391  11.594  14.334   0.749
89520SOL     OW70392  11.965  12.168   0.999
89520SOL    HW170393  11.944  12.168   1.092
89520SOL    HW270394  11.907  12.234   0.961
89521SOL     OW70395   5.497   4.458  13.062
89521SOL    HW170396   5.518   4.419  13.147
89521SOL    HW270397   5.403   4.441  13.051
89522SOL     OW70398   9.367  14.773   3.740
89522SOL    HW170399   9.380  14.702   3.678
89522SOL    HW270400   9.281  14.757   3.778
89523SOL     OW70401  14.730   5.427   2.611
89523SOL    HW170402  14.815   5.436   2.568
89523SOL    HW270403  14.686   5.356   2.564
89524SOL     OW70404  11.416   0.250   6.409
89524SOL    HW170405  11.363   0.189   6.460
89524SOL    HW270406  11.443   0.200   6.332
89525SOL     OW70407  14.349  11.748  10.755
89525SOL    HW170408  14.349  11.667  10.806
89525SOL    HW270409  14.343  11.719  10.664
89526SOL     OW70410   1.796   0.662   5.596
89526SOL    HW170411   1.797   0.746   5.643
89526SOL    HW270412   1.781   0.686   5.505
89527SOL     OW70413  10.390   9.507   0.362
89527SOL    HW170414  10.352   9.478   0.445
89527SOL    HW270415  10.450   9.436   0.338
89528SOL     OW70416   7.376   6.915  10.386
89528SOL    HW170417   7.337   7.002  10.390
89528SOL    HW270418   7.407   6.898  10.475
89529SOL     OW70419  10.445   7.532   1.822
89529SOL    HW170420  10.457   7.557   1.731
89529SOL    HW270421  10.395   7.450   1.817
89530SOL     OW70422   7.015  13.482   1.065
89530SOL    HW170423   7.106  13.484   1.092
89530SOL    HW270424   6.976  13.560   1.106
89531SOL     OW70425  13.633   3.532   8.750
89531SOL    HW170426  13.543   3.544   8.778
89531SOL    HW270427  13.653   3.441   8.775
89532SOL     OW70428  12.043  10.625   9.440
89532SOL    HW170429  12.013  10.612   9.530
89532SOL    HW270430  12.043  10.720   9.428
89533SOL     OW70431   4.746  13.776   0.043
89533SOL    HW170432   4.662  13.731   0.052
89533SOL    HW270433   4.802  13.713  14.871
89534SOL     OW70434  13.553   9.044   1.952
89534SOL    HW170435  13.518   8.958   1.928
89534SOL    HW270436  13.476   9.097   1.973
89535SOL     OW70437   1.339  12.462   9.112
89535SOL    HW170438   1.247  12.444   9.096
89535SOL    HW270439   1.376  12.377   9.139
89536SOL     OW70440   0.950   5.203   3.423
89536SOL    HW170441   0.878   5.265   3.424
89536SOL    HW270442   0.914   5.124   3.383
89537SOL     OW70443   3.152   9.479   4.901
89537SOL    HW170444   3.134   9.566   4.865
89537SOL    HW270445   3.076   9.427   4.877
89538SOL     OW70446   9.831   0.852   2.603
89538SOL    HW170447   9.848   0.791   2.675
89538SOL    HW270448   9.904   0.914   2.606
89539SOL     OW70449   2.188   1.513  14.706
89539SOL    HW170450   2.251   1.495  14.776
89539SOL    HW270451   2.146   1.594  14.733
89540SOL     OW70452   7.959   2.556   3.247
89540SOL    HW170453   7.992   2.539   3.159
89540SOL    HW270454   7.947   2.469   3.285
89541SOL     OW70455  14.449  11.754  11.313
89541SOL    HW170456  14.452  11.741  11.219
89541SOL    HW270457  14.535  11.787  11.336
89542SOL     OW70458  13.864   0.350   5.388
89542SOL    HW170459  13.891   0.441   5.400
89542SOL    HW270460  13.824   0.325   5.471
89543SOL     OW70461   7.886   2.779  12.539
89543SOL    HW170462   7.899   2.802  12.447
89543SOL    HW270463   7.826   2.846  12.572
89544SOL     OW70464   3.894   7.306   1.035
89544SOL    HW170465   3.820   7.263   1.078
89544SOL    HW270466   3.957   7.321   1.105
89545SOL     OW70467  14.012   3.564   5.154
89545SOL    HW170468  13.937   3.622   5.168
89545SOL    HW270469  14.056   3.560   5.239
89546SOL     OW70470   5.671   1.401   7.104
89546SOL    HW170471   5.732   1.329   7.087
89546SOL    HW270472   5.708   1.445   7.181
89547SOL     OW70473   2.418  13.685   5.258
89547SOL    HW170474   2.452  13.619   5.318
89547SOL    HW270475   2.437  13.769   5.301
89548SOL     OW70476   0.102   9.796  13.346
89548SOL    HW170477   0.045   9.855  13.297
89548SOL    HW270478   0.123   9.726  13.285
89549SOL     OW70479   3.387  14.339   5.307
89549SOL    HW170480   3.334  14.399   5.359
89549SOL    HW270481   3.384  14.256   5.354
89550SOL     OW70482   0.319  13.963   8.930
89550SOL    HW170483   0.230  13.993   8.912
89550SOL    HW270484   0.374  14.010   8.868
89551SOL     OW70485   6.259   5.974   5.852
89551SOL    HW170486   6.257   5.916   5.928
89551SOL    HW270487   6.188   6.036   5.869
89552SOL     OW70488   4.404  10.365  14.730
89552SOL    HW170489   4.419  10.343  14.822
89552SOL    HW270490   4.480  10.331  14.684
89553SOL     OW70491   4.344   7.121   3.393
89553SOL    HW170492   4.254   7.108   3.423
89553SOL    HW270493   4.374   7.199   3.440
89554SOL     OW70494   3.954   3.108  12.794
89554SOL    HW170495   4.024   3.173  12.800
89554SOL    HW270496   3.990   3.029  12.834
89555SOL     OW70497   0.780   1.986   1.880
89555SOL    HW170498   0.798   1.909   1.934
89555SOL    HW270499   0.698   1.965   1.835
89556SOL     OW70500   4.684  10.105  12.898
89556SOL    HW170501   4.598  10.125  12.861
89556SOL    HW270502   4.682  10.010  12.911
89557SOL     OW70503   3.544   5.299  12.711
89557SOL    HW170504   3.460   5.331  12.746
89557SOL    HW270505   3.549   5.336  12.623
89558SOL     OW70506  11.007  11.105   4.402
89558SOL    HW170507  11.066  11.109   4.478
89558SOL    HW270508  10.980  11.014   4.398
89559SOL     OW70509  14.627  13.520  10.539
89559SOL    HW170510  14.595  13.464  10.610
89559SOL    HW270511  14.552  13.576  10.517
89560SOL     OW70512  11.274  10.675  10.834
89560SOL    HW170513  11.229  10.608  10.782
89560SOL    HW270514  11.210  10.701  10.900
89561SOL     OW70515  10.818   4.791   2.064
89561SOL    HW170516  10.777   4.806   1.979
89561SOL    HW270517  10.885   4.725   2.048
89562SOL     OW70518  12.301   3.842   8.897
89562SOL    HW170519  12.333   3.766   8.948
89562SOL    HW270520  12.249   3.892   8.960
89563SOL     OW70521  13.116   5.508   5.263
89563SOL    HW170522  13.205   5.497   5.229
89563SOL    HW270523  13.105   5.602   5.271
89564SOL     OW70524  14.236   8.278   5.029
89564SOL    HW170525  14.278   8.264   4.944
89564SOL    HW270526  14.256   8.369   5.050
89565SOL     OW70527   6.315   9.374   0.696
89565SOL    HW170528   6.385   9.415   0.746
89565SOL    HW270529   6.336   9.280   0.699
89566SOL     OW70530  11.918   9.342   2.880
89566SOL    HW170531  11.979   9.269   2.888
89566SOL    HW270532  11.954   9.409   2.939
89567SOL     OW70533  12.570   5.382   6.769
89567SOL    HW170534  12.630   5.370   6.695
89567SOL    HW270535  12.628   5.405   6.842
89568SOL     OW70536   8.092   1.635   7.958
89568SOL    HW170537   8.101   1.658   8.050
89568SOL    HW270538   7.998   1.624   7.945
89569SOL     OW70539   0.079  14.207   8.328
89569SOL    HW170540   0.024  14.155   8.269
89569SOL    HW270541   0.019  14.272   8.366
89570SOL     OW70542   5.228   6.554   0.254
89570SOL    HW170543   5.174   6.539   0.331
89570SOL    HW270544   5.177   6.519   0.181
89571SOL     OW70545   1.728   5.820   0.757
89571SOL    HW170546   1.745   5.773   0.676
89571SOL    HW270547   1.760   5.762   0.826
89572SOL     OW70548  12.056   3.828   5.395
89572SOL    HW170549  12.074   3.920   5.380
89572SOL    HW270550  12.140   3.790   5.420
89573SOL     OW70551   2.291  13.234   8.054
89573SOL    HW170552   2.264  13.321   8.082
89573SOL    HW270553   2.222  13.204   7.995
89574SOL     OW70554   1.889  12.613   6.891
89574SOL    HW170555   1.900  12.642   6.982
89574SOL    HW270556   1.870  12.693   6.842
89575SOL     OW70557   4.764   6.665  10.480
89575SOL    HW170558   4.786   6.691  10.390
89575SOL    HW270559   4.782   6.743  10.532
89576SOL     OW70560   3.030  14.319  13.108
89576SOL    HW170561   3.055  14.363  13.026
89576SOL    HW270562   3.102  14.258  13.124
89577SOL     OW70563  14.832   3.544   9.968
89577SOL    HW170564  14.787   3.525   9.886
89577SOL    HW270565  14.775   3.505  10.035
89578SOL     OW70566  14.042   0.417   1.066
89578SOL    HW170567  14.090   0.468   1.132
89578SOL    HW270568  14.073   0.328   1.078
89579SOL     OW70569   8.399   9.054  11.656
89579SOL    HW170570   8.407   9.130  11.598
89579SOL    HW270571   8.305   9.040  11.664
89580SOL     OW70572  13.319   2.067   2.724
89580SOL    HW170573  13.246   2.109   2.769
89580SOL    HW270574  13.319   1.977   2.758
89581SOL     OW70575   0.530   8.804   0.982
89581SOL    HW170576   0.543   8.823   0.889
89581SOL    HW270577   0.569   8.717   0.994
89582SOL     OW70578   4.748  10.051   2.365
89582SOL    HW170579   4.720  10.131   2.407
89582SOL    HW270580   4.702   9.981   2.412
89583SOL     OW70581   7.300   9.296   2.402
89583SOL    HW170582   7.215   9.252   2.405
89583SOL    HW270583   7.292   9.369   2.464
89584SOL     OW70584   5.576  14.164   5.642
89584SOL    HW170585   5.657  14.199   5.680
89584SOL    HW270586   5.551  14.228   5.575
89585SOL     OW70587   9.248   3.821   8.400
89585SOL    HW170588   9.199   3.786   8.325
89585SOL    HW270589   9.232   3.758   8.470
89586SOL     OW70590   9.459   4.185   4.575
89586SOL    HW170591   9.372   4.197   4.612
89586SOL    HW270592   9.518   4.195   4.650
89587SOL     OW70593   6.101  11.816  10.484
89587SOL    HW170594   6.118  11.907  10.460
89587SOL    HW270595   6.031  11.821  10.550
89588SOL     OW70596   6.620  14.813   1.523
89588SOL    HW170597   6.531  14.841   1.500
89588SOL    HW270598   6.607  14.744   1.587
89589SOL     OW70599   2.267   7.403   6.975
89589SOL    HW170600   2.338   7.346   7.005
89589SOL    HW270601   2.292   7.490   7.004
89590SOL     OW70602   6.233   4.558  13.813
89590SOL    HW170603   6.309   4.583  13.866
89590SOL    HW270604   6.266   4.560  13.723
89591SOL     OW70605   3.137   2.068   2.532
89591SOL    HW170606   3.188   1.988   2.518
89591SOL    HW270607   3.063   2.040   2.585
89592SOL     OW70608   6.817  13.685   9.231
89592SOL    HW170609   6.852  13.663   9.317
89592SOL    HW270610   6.745  13.624   9.218
89593SOL     OW70611   7.016   7.421  12.041
89593SOL    HW170612   6.953   7.434  12.111
89593SOL    HW270613   7.084   7.487  12.057
89594SOL     OW70614   2.925   3.705   4.561
89594SOL    HW170615   3.000   3.728   4.506
89594SOL    HW270616   2.961   3.650   4.630
89595SOL     OW70617  12.949   8.470   5.804
89595SOL    HW170618  12.884   8.420   5.854
89595SOL    HW270619  12.931   8.447   5.712
89596SOL     OW70620   4.079  13.444  12.559
89596SOL    HW170621   4.058  13.354  12.585
89596SOL    HW270622   4.171  13.441  12.532
89597SOL     OW70623   9.393  12.948  14.343
89597SOL    HW170624   9.460  12.886  14.373
89597SOL    HW270625   9.341  12.966  14.421
89598SOL     OW70626   2.110   4.168   5.184
89598SOL    HW170627   2.092   4.176   5.278
89598SOL    HW270628   2.138   4.077   5.173
89599SOL     OW70629   1.031   6.736   8.459
89599SOL    HW170630   0.963   6.690   8.508
89599SOL    HW270631   1.042   6.684   8.379
89600SOL     OW70632   5.973   6.786  14.088
89600SOL    HW170633   5.981   6.837  14.170
89600SOL    HW270634   6.018   6.840  14.023
89601SOL     OW70635  11.310  13.377  13.582
89601SOL    HW170636  11.231  13.407  13.536
89601SOL    HW270637  11.278  13.352  13.669
89602SOL     OW70638   9.623  13.183   8.938
89602SOL    HW170639   9.670  13.253   8.983
89602SOL    HW270640   9.629  13.108   8.999
89603SOL     OW70641  12.835   8.078   2.549
89603SOL    HW170642  12.748   8.116   2.534
89603SOL    HW270643  12.878   8.083   2.464
89604SOL     OW70644   4.474   5.829   5.662
89604SOL    HW170645   4.538   5.899   5.677
89604SOL    HW270646   4.404   5.847   5.725
89605SOL     OW70647   4.446   9.832  11.495
89605SOL    HW170648   4.526   9.787  11.469
89605SOL    HW270649   4.451   9.918  11.453
89606SOL     OW70650   3.546  13.548   9.144
89606SOL    HW170651   3.632  13.569   9.108
89606SOL    HW270652   3.523  13.464   9.102
89607SOL     OW70653   5.498  14.110  13.840
89607SOL    HW170654   5.446  14.145  13.768
89607SOL    HW270655   5.532  14.026  13.807
89608SOL     OW70656   4.858  13.883   0.686
89608SOL    HW170657   4.945  13.921   0.692
89608SOL    HW270658   4.817  13.901   0.771
89609SOL     OW70659  14.016   2.307  11.033
89609SOL    HW170660  14.076   2.381  11.026
89609SOL    HW270661  13.943   2.329  10.974
89610SOL     OW70662   8.822   7.882   1.938
89610SOL    HW170663   8.738   7.837   1.930
89610SOL    HW270664   8.850   7.865   2.028
89611SOL     OW70665   2.758   1.427  13.393
89611SOL    HW170666   2.797   1.436  13.480
89611SOL    HW270667   2.762   1.515  13.356
89612SOL     OW70668  12.484   3.028   0.597
89612SOL    HW170669  12.528   3.113   0.608
89612SOL    HW270670  12.535   2.984   0.529
89613SOL     OW70671  11.024   4.368   5.239
89613SOL    HW170672  10.938   4.374   5.198
89613SOL    HW270673  11.013   4.409   5.325
89614SOL     OW70674  13.275  14.224   2.314
89614SOL    HW170675  13.220  14.146   2.307
89614SOL    HW270676  13.352  14.194   2.362
89615SOL     OW70677   9.314  11.446   5.364
89615SOL    HW170678   9.318  11.486   5.451
89615SOL    HW270679   9.337  11.354   5.379
89616SOL     OW70680   4.538  12.169   7.423
89616SOL    HW170681   4.512  12.077   7.409
89616SOL    HW270682   4.614  12.164   7.480
89617SOL     OW70683   1.498   4.690   2.635
89617SOL    HW170684   1.423   4.633   2.616
89617SOL    HW270685   1.486   4.765   2.576
89618SOL     OW70686   6.923  14.314   7.649
89618SOL    HW170687   6.941  14.239   7.707
89618SOL    HW270688   7.008  14.336   7.612
89619SOL     OW70689   1.036  12.756   0.783
89619SOL    HW170690   0.948  12.777   0.816
89619SOL    HW270691   1.079  12.841   0.775
89620SOL     OW70692   4.442  11.243   1.596
89620SOL    HW170693   4.499  11.201   1.660
89620SOL    HW270694   4.453  11.190   1.516
89621SOL     OW70695   4.755  12.112   6.128
89621SOL    HW170696   4.685  12.114   6.062
89621SOL    HW270697   4.830  12.073   6.083
89622SOL     OW70698   0.361   1.573   8.630
89622SOL    HW170699   0.357   1.507   8.562
89622SOL    HW270700   0.318   1.534   8.706
89623SOL     OW70701  13.545   7.892  10.791
89623SOL    HW170702  13.613   7.846  10.840
89623SOL    HW270703  13.589   7.972  10.760
89624SOL     OW70704   2.001   7.696   3.819
89624SOL    HW170705   1.964   7.784   3.809
89624SOL    HW270706   1.940   7.650   3.876
89625SOL     OW70707  11.778   2.180   5.912
89625SOL    HW170708  11.729   2.100   5.892
89625SOL    HW270709  11.711   2.246   5.926
89626SOL     OW70710   2.898  12.864   2.222
89626SOL    HW170711   2.919  12.941   2.275
89626SOL    HW270712   2.855  12.804   2.282
89627SOL     OW70713  12.944  14.051   5.249
89627SOL    HW170714  13.027  14.098   5.246
89627SOL    HW270715  12.968  13.958   5.248
89628SOL     OW70716   0.573   5.843  11.943
89628SOL    HW170717   0.628   5.792  11.884
89628SOL    HW270718   0.485   5.835  11.906
89629SOL     OW70719   7.964   4.881   5.234
89629SOL    HW170720   7.916   4.893   5.316
89629SOL    HW270721   7.905   4.916   5.167
89630SOL     OW70722   7.898   4.463  14.025
89630SOL    HW170723   7.957   4.391  14.047
89630SOL    HW270724   7.925   4.491  13.938
89631SOL     OW70725   4.085   2.866  12.871
89631SOL    HW170726   4.111   2.871  12.963
89631SOL    HW270727   4.127   2.787  12.838
89632SOL     OW70728   1.154   2.192   4.352
89632SOL    HW170729   1.234   2.192   4.299
89632SOL    HW270730   1.093   2.247   4.304
89633SOL     OW70731  13.358   3.309  13.569
89633SOL    HW170732  13.282   3.358  13.536
89633SOL    HW270733  13.364   3.233  13.511
89634SOL     OW70734   6.765   6.055   2.942
89634SOL    HW170735   6.725   6.092   3.021
89634SOL    HW270736   6.709   5.980   2.920
89635SOL     OW70737   9.895  13.726  10.864
89635SOL    HW170738   9.962  13.678  10.913
89635SOL    HW270739   9.871  13.799  10.920
89636SOL     OW70740   6.788   7.952  12.903
89636SOL    HW170741   6.841   7.971  12.980
89636SOL    HW270742   6.698   7.961  12.932
89637SOL     OW70743  14.494   4.752  14.851
89637SOL    HW170744  14.518   4.760  14.759
89637SOL    HW270745  14.461   4.839   0.002
89638SOL     OW70746  12.894   4.520   0.620
89638SOL    HW170747  12.821   4.502   0.561
89638SOL    HW270748  12.950   4.579   0.571
89639SOL     OW70749  14.016  14.340   2.941
89639SOL    HW170750  13.969  14.261   2.916
89639SOL    HW270751  14.061  14.369   2.862
89640SOL     OW70752   9.231   5.400  10.352
89640SOL    HW170753   9.312   5.356  10.326
89640SOL    HW270754   9.252   5.493  10.345
89641SOL     OW70755   6.591   4.450  13.844
89641SOL    HW170756   6.529   4.467  13.915
89641SOL    HW270757   6.551   4.381  13.792
89642SOL     OW70758   3.469   4.494  10.521
89642SOL    HW170759   3.405   4.425  10.543
89642SOL    HW270760   3.415   4.568  10.492
89643SOL     OW70761  11.370  11.065  12.742
89643SOL    HW170762  11.453  11.046  12.787
89643SOL    HW270763  11.318  10.986  12.753
89644SOL     OW70764  12.033   0.155   1.748
89644SOL    HW170765  11.955   0.130   1.698
89644SOL    HW270766  12.083   0.210   1.688
89645SOL     OW70767  11.116   4.285   3.351
89645SOL    HW170768  11.046   4.243   3.401
89645SOL    HW270769  11.191   4.287   3.411
89646SOL     OW70770  14.309   3.416   6.989
89646SOL    HW170771  14.375   3.425   7.058
89646SOL    HW270772  14.334   3.335   6.943
89647SOL     OW70773  12.447   3.526   7.461
89647SOL    HW170774  12.500   3.472   7.402
89647SOL    HW270775  12.356   3.510   7.433
89648SOL     OW70776   8.011  14.020  11.288
89648SOL    HW170777   7.959  13.996  11.365
89648SOL    HW270778   8.083  14.073  11.323
89649SOL     OW70779   9.883   9.452  14.313
89649SOL    HW170780   9.860   9.525  14.255
89649SOL    HW270781   9.903   9.494  14.397
89650SOL     OW70782  14.762   8.559   8.887
89650SOL    HW170783  14.855   8.549   8.868
89650SOL    HW270784  14.736   8.639   8.841
89651SOL     OW70785   4.987   6.468   4.668
89651SOL    HW170786   4.916   6.502   4.614
89651SOL    HW270787   5.032   6.547   4.700
89652SOL     OW70788  11.634  12.651   8.214
89652SOL    HW170789  11.625  12.704   8.293
89652SOL    HW270790  11.716  12.679   8.175
89653SOL     OW70791  12.070  13.265  13.837
89653SOL    HW170792  12.026  13.180  13.838
89653SOL    HW270793  12.021  13.317  13.901
89654SOL     OW70794   6.008   1.804   7.950
89654SOL    HW170795   6.041   1.781   7.864
89654SOL    HW270796   6.065   1.876   7.980
89655SOL     OW70797   6.202  12.631   7.451
89655SOL    HW170798   6.161  12.641   7.365
89655SOL    HW270799   6.287  12.673   7.443
89656SOL     OW70800   1.734  14.784   8.359
89656SOL    HW170801   1.823  14.768   8.391
89656SOL    HW270802   1.681  14.792   8.438
89657SOL     OW70803  10.516   3.851   0.166
89657SOL    HW170804  10.461   3.924   0.138
89657SOL    HW270805  10.518   3.792   0.090
89658SOL     OW70806  10.780  12.989  13.285
89658SOL    HW170807  10.817  13.066  13.326
89658SOL    HW270808  10.847  12.922  13.294
89659SOL     OW70809  10.741  12.033   0.287
89659SOL    HW170810  10.830  12.003   0.269
89659SOL    HW270811  10.718  11.993   0.370
89660SOL     OW70812  12.268  13.148   6.705
89660SOL    HW170813  12.335  13.093   6.664
89660SOL    HW270814  12.188  13.127   6.657
89661SOL     OW70815   1.627   6.526  11.531
89661SOL    HW170816   1.598   6.611  11.565
89661SOL    HW270817   1.685   6.491  11.599
89662SOL     OW70818  14.217   8.225   4.730
89662SOL    HW170819  14.199   8.261   4.643
89662SOL    HW270820  14.135   8.181   4.755
89663SOL     OW70821   0.504   8.813  13.028
89663SOL    HW170822   0.541   8.892  12.990
89663SOL    HW270823   0.479   8.839  13.117
89664SOL     OW70824   5.976   5.008  13.009
89664SOL    HW170825   5.941   4.956  13.081
89664SOL    HW270826   5.905   5.067  12.985
89665SOL     OW70827   9.343   1.922   1.895
89665SOL    HW170828   9.326   1.843   1.843
89665SOL    HW270829   9.265   1.933   1.948
89666SOL     OW70830   2.546   1.765   2.455
89666SOL    HW170831   2.493   1.700   2.501
89666SOL    HW270832   2.593   1.811   2.525
89667SOL     OW70833   0.618   8.060   1.831
89667SOL    HW170834   0.591   8.014   1.910
89667SOL    HW270835   0.601   8.153   1.850
89668SOL     OW70836  14.816   5.544   4.368
89668SOL    HW170837  14.811   5.639   4.368
89668SOL    HW270838  14.843   5.521   4.278
89669SOL     OW70839   1.029   7.435  14.596
89669SOL    HW170840   1.037   7.505  14.531
89669SOL    HW270841   1.088   7.367  14.566
89670SOL     OW70842   4.817   2.249  10.120
89670SOL    HW170843   4.881   2.316  10.141
89670SOL    HW270844   4.790   2.213  10.205
89671SOL     OW70845   6.088  13.143   7.837
89671SOL    HW170846   6.037  13.063   7.843
89671SOL    HW270847   6.121  13.144   7.747
89672SOL     OW70848   0.647   8.577   5.783
89672SOL    HW170849   0.645   8.506   5.720
89672SOL    HW270850   0.726   8.627   5.762
89673SOL     OW70851   5.701   6.760  14.743
89673SOL    HW170852   5.626   6.745  14.686
89673SOL    HW270853   5.745   6.675  14.748
89674SOL     OW70854  11.409   1.414   7.350
89674SOL    HW170855  11.444   1.367   7.426
89674SOL    HW270856  11.353   1.350   7.306
89675SOL     OW70857   2.393   5.477   5.984
89675SOL    HW170858   2.468   5.533   5.964
89675SOL    HW270859   2.326   5.504   5.921
89676SOL     OW70860   2.769   8.469  11.767
89676SOL    HW170861   2.819   8.544  11.799
89676SOL    HW270862   2.708   8.506  11.703
89677SOL     OW70863   4.880  13.322   5.139
89677SOL    HW170864   4.953  13.309   5.200
89677SOL    HW270865   4.863  13.416   5.142
89678SOL     OW70866   7.593   4.028   4.724
89678SOL    HW170867   7.645   3.949   4.739
89678SOL    HW270868   7.658   4.094   4.700
89679SOL     OW70869   2.240   0.681  14.709
89679SOL    HW170870   2.282   0.767  14.703
89679SOL    HW270871   2.313   0.619  14.714
89680SOL     OW70872   0.564   7.433  11.431
89680SOL    HW170873   0.641   7.398  11.476
89680SOL    HW270874   0.514   7.477  11.499
89681SOL     OW70875   2.984   5.750   1.871
89681SOL    HW170876   2.890   5.765   1.877
89681SOL    HW270877   3.023   5.837   1.875
89682SOL     OW70878  10.618  14.093   7.583
89682SOL    HW170879  10.703  14.050   7.575
89682SOL    HW270880  10.638  14.183   7.608
89683SOL     OW70881   9.375  14.300  13.587
89683SOL    HW170882   9.296  14.249  13.570
89683SOL    HW270883   9.384  14.357  13.510
89684SOL     OW70884   4.443   5.669   9.987
89684SOL    HW170885   4.390   5.593  10.010
89684SOL    HW270886   4.455   5.663   9.892
89685SOL     OW70887   1.756   2.569   1.330
89685SOL    HW170888   1.784   2.644   1.382
89685SOL    HW270889   1.661   2.567   1.342
89686SOL     OW70890   8.418   4.945   7.184
89686SOL    HW170891   8.435   4.986   7.099
89686SOL    HW270892   8.336   4.986   7.214
89687SOL     OW70893   2.453  13.176   0.643
89687SOL    HW170894   2.403  13.143   0.568
89687SOL    HW270895   2.387  13.216   0.700
89688SOL     OW70896  11.255   1.742   7.522
89688SOL    HW170897  11.318   1.814   7.530
89688SOL    HW270898  11.272   1.687   7.599
89689SOL     OW70899  14.832   6.796   2.205
89689SOL    HW170900  14.859   6.845   2.282
89689SOL    HW270901  14.787   6.719   2.240
89690SOL     OW70902   7.547   7.285   3.647
89690SOL    HW170903   7.538   7.308   3.555
89690SOL    HW270904   7.505   7.200   3.656
89691SOL     OW70905  11.289  12.533   6.809
89691SOL    HW170906  11.315  12.530   6.717
89691SOL    HW270907  11.326  12.453   6.846
89692SOL     OW70908   1.213   7.395   0.600
89692SOL    HW170909   1.160   7.355   0.531
89692SOL    HW270910   1.151   7.451   0.648
89693SOL     OW70911   8.448   2.528  10.480
89693SOL    HW170912   8.491   2.450  10.446
89693SOL    HW270913   8.381   2.548  10.415
89694SOL     OW70914   8.137   4.741  10.975
89694SOL    HW170915   8.146   4.714  10.883
89694SOL    HW270916   8.167   4.666  11.026
89695SOL     OW70917  12.990   9.167   7.125
89695SOL    HW170918  12.976   9.101   7.193
89695SOL    HW270919  12.902   9.184   7.090
89696SOL     OW70920   7.642   7.786   2.644
89696SOL    HW170921   7.549   7.765   2.654
89696SOL    HW270922   7.668   7.821   2.729
89697SOL     OW70923   4.805  11.776  13.853
89697SOL    HW170924   4.873  11.824  13.899
89697SOL    HW270925   4.759  11.727  13.921
89698SOL     OW70926   6.890   4.101  12.993
89698SOL    HW170927   6.885   4.018  12.945
89698SOL    HW270928   6.856   4.166  12.931
89699SOL     OW70929   8.631  13.325   0.134
89699SOL    HW170930   8.579  13.377   0.195
89699SOL    HW270931   8.721  13.339   0.161
89700SOL     OW70932   0.989  12.131   3.990
89700SOL    HW170933   0.906  12.162   3.953
89700SOL    HW270934   0.962  12.081   4.068
89701SOL     OW70935   6.401   5.088   3.298
89701SOL    HW170936   6.423   5.081   3.391
89701SOL    HW270937   6.308   5.108   3.297
89702SOL     OW70938   5.997  10.958   3.707
89702SOL    HW170939   6.028  11.022   3.643
89702SOL    HW270940   5.952  10.892   3.655
89703SOL     OW70941   7.134   3.742   6.610
89703SOL    HW170942   7.219   3.725   6.651
89703SOL    HW270943   7.085   3.660   6.620
89704SOL     OW70944  14.472  13.560  14.470
89704SOL    HW170945  14.414  13.513  14.531
89704SOL    HW270946  14.545  13.499  14.456
89705SOL     OW70947   9.035   7.958   8.003
89705SOL    HW170948   9.066   7.884   8.055
89705SOL    HW270949   9.101   8.026   8.017
89706SOL     OW70950  13.898  10.313  11.028
89706SOL    HW170951  13.809  10.338  11.054
89706SOL    HW270952  13.955  10.368  11.082
89707SOL     OW70953  10.663   6.051  14.465
89707SOL    HW170954  10.615   6.079  14.387
89707SOL    HW270955  10.756   6.060  14.441
89708SOL     OW70956   0.493   0.799  14.597
89708SOL    HW170957   0.557   0.732  14.572
89708SOL    HW270958   0.429   0.752  14.651
89709SOL     OW70959   9.502   2.894   4.013
89709SOL    HW170960   9.575   2.838   3.985
89709SOL    HW270961   9.544   2.974   4.044
89710SOL     OW70962   8.349   2.085   3.635
89710SOL    HW170963   8.305   2.169   3.645
89710SOL    HW270964   8.303   2.041   3.563
89711SOL     OW70965   8.782   4.520  11.512
89711SOL    HW170966   8.702   4.566  11.539
89711SOL    HW270967   8.827   4.501  11.594
89712SOL     OW70968  13.784  10.893   7.075
89712SOL    HW170969  13.704  10.932   7.109
89712SOL    HW270970  13.767  10.799   7.076
89713SOL     OW70971   0.373  12.987  11.597
89713SOL    HW170972   0.320  12.912  11.571
89713SOL    HW270973   0.326  13.063  11.564
89714SOL     OW70974   2.142   7.330  13.152
89714SOL    HW170975   2.149   7.424  13.166
89714SOL    HW270976   2.177   7.316  13.064
89715SOL     OW70977   2.505   7.262   3.559
89715SOL    HW170978   2.450   7.278   3.482
89715SOL    HW270979   2.458   7.303   3.631
89716SOL     OW70980   1.492  11.237  10.032
89716SOL    HW170981   1.497  11.141  10.030
89716SOL    HW270982   1.480  11.259  10.124
89717SOL     OW70983  12.319   1.583  10.540
89717SOL    HW170984  12.243   1.525  10.534
89717SOL    HW270985  12.351   1.572  10.629
89718SOL     OW70986   0.773   1.227   0.809
89718SOL    HW170987   0.839   1.172   0.852
89718SOL    HW270988   0.692   1.206   0.855
89719SOL     OW70989   2.953  10.156   2.477
89719SOL    HW170990   2.909  10.101   2.542
89719SOL    HW270991   2.967  10.097   2.402
89720SOL     OW70992  13.161   3.417  12.888
89720SOL    HW170993  13.072   3.436  12.918
89720SOL    HW270994  13.215   3.423  12.966
89721SOL     OW70995  10.736   9.239   0.774
89721SOL    HW170996  10.667   9.304   0.763
89721SOL    HW270997  10.817   9.286   0.754
89722SOL     OW70998   8.667  11.934   8.152
89722SOL    HW170999   8.594  11.901   8.100
89722SOL    HW271000   8.696  11.859   8.204
89723SOL     OW71001   2.301   2.223  12.491
89723SOL    HW171002   2.233   2.289  12.503
89723SOL    HW271003   2.259   2.140  12.515
89724SOL     OW71004   3.979  12.469   2.628
89724SOL    HW171005   3.912  12.401   2.616
89724SOL    HW271006   3.983  12.481   2.723
89725SOL     OW71007  14.473   5.738   5.306
89725SOL    HW171008  14.446   5.696   5.387
89725SOL    HW271009  14.494   5.828   5.332
89726SOL     OW71010  11.943   1.588   7.162
89726SOL    HW171011  11.906   1.603   7.075
89726SOL    HW271012  12.012   1.654   7.171
89727SOL     OW71013   0.086   6.402   3.654
89727SOL    HW171014   0.116   6.475   3.708
89727SOL    HW271015   0.013   6.365   3.702
89728SOL     OW71016  13.205   0.943   4.145
89728SOL    HW171017  13.214   0.915   4.237
89728SOL    HW271018  13.261   0.882   4.097
89729SOL     OW71019   0.284   8.999   4.748
89729SOL    HW171020   0.238   8.927   4.792
89729SOL    HW271021   0.303   9.061   4.819
89730SOL     OW71022   0.638   9.165  12.263
89730SOL    HW171023   0.609   9.177  12.353
89730SOL    HW271024   0.654   9.254  12.231
89731SOL     OW71025   6.876   4.759   7.951
89731SOL    HW171026   6.919   4.776   7.867
89731SOL    HW271027   6.815   4.831   7.962
89732SOL     OW71028  13.023   9.792   3.261
89732SOL    HW171029  12.961   9.861   3.236
89732SOL    HW271030  13.084   9.787   3.187
89733SOL     OW71031   5.266   6.672  10.075
89733SOL    HW171032   5.255   6.577  10.082
89733SOL    HW271033   5.265   6.703  10.166
89734SOL     OW71034   0.692  14.828   5.489
89734SOL    HW171035   0.608  14.830   5.535
89734SOL    HW271036   0.722  14.738   5.498
89735SOL     OW71037  14.594  10.884   2.349
89735SOL    HW171038  14.611  10.872   2.255
89735SOL    HW271039  14.644  10.813   2.391
89736SOL     OW71040   2.143   5.843  12.858
89736SOL    HW171041   2.228   5.816  12.825
89736SOL    HW271042   2.161   5.920  12.913
89737SOL     OW71043   8.934  12.981   6.749
89737SOL    HW171044   9.030  12.979   6.750
89737SOL    HW271045   8.911  13.030   6.827
89738SOL     OW71046  12.309  14.435   7.099
89738SOL    HW171047  12.273  14.506   7.153
89738SOL    HW271048  12.312  14.360   7.158
89739SOL     OW71049  14.143  12.329   8.107
89739SOL    HW171050  14.238  12.333   8.112
89739SOL    HW271051  14.124  12.237   8.087
89740SOL     OW71052  12.335   8.846  10.588
89740SOL    HW171053  12.357   8.843  10.681
89740SOL    HW271054  12.241   8.865  10.586
89741SOL     OW71055   3.174   1.256  10.260
89741SOL    HW171056   3.211   1.200  10.191
89741SOL    HW271057   3.250   1.299  10.299
89742SOL     OW71058  10.590  11.054   0.987
89742SOL    HW171059  10.672  11.078   1.031
89742SOL    HW271060  10.599  10.960   0.970
89743SOL     OW71061  13.824  11.388   9.623
89743SOL    HW171062  13.740  11.352   9.651
89743SOL    HW271063  13.868  11.413   9.704
89744SOL     OW71064   8.276   7.950  13.853
89744SOL    HW171065   8.284   7.911  13.766
89744SOL    HW271066   8.187   7.931  13.881
89745SOL     OW71067  11.534   4.739   6.013
89745SOL    HW171068  11.452   4.780   5.988
89745SOL    HW271069  11.525   4.648   5.987
89746SOL     OW71070   7.368   4.699   1.935
89746SOL    HW171071   7.450   4.665   1.971
89746SOL    HW271072   7.352   4.645   1.858
89747SOL     OW71073   4.786  11.593   0.829
89747SOL    HW171074   4.814  11.562   0.743
89747SOL    HW271075   4.720  11.530   0.857
89748SOL     OW71076   5.002   6.629   2.164
89748SOL    HW171077   5.059   6.706   2.161
89748SOL    HW271078   4.964   6.631   2.252
89749SOL     OW71079   7.871   1.302   1.139
89749SOL    HW171080   7.838   1.304   1.049
89749SOL    HW271081   7.902   1.213   1.151
89750SOL     OW71082   3.403  11.599  12.868
89750SOL    HW171083   3.380  11.563  12.953
89750SOL    HW271084   3.473  11.543  12.835
89751SOL     OW71085   8.885  10.929   0.340
89751SOL    HW171086   8.965  10.956   0.294
89751SOL    HW271087   8.866  10.842   0.306
89752SOL     OW71088   9.594   9.113   5.854
89752SOL    HW171089   9.653   9.139   5.925
89752SOL    HW271090   9.633   9.033   5.819
89753SOL     OW71091  10.514   7.226   0.673
89753SOL    HW171092  10.467   7.224   0.590
89753SOL    HW271093  10.535   7.135   0.691
89754SOL     OW71094   6.290  11.806  13.855
89754SOL    HW171095   6.264  11.874  13.917
89754SOL    HW271096   6.383  11.794  13.871
89755SOL     OW71097   7.720  14.304  11.386
89755SOL    HW171098   7.799  14.324  11.336
89755SOL    HW271099   7.747  14.234  11.446
89756SOL     OW71100   7.642   5.291  10.581
89756SOL    HW171101   7.678   5.365  10.630
89756SOL    HW271102   7.668   5.214  10.632
89757SOL     OW71103  11.352   9.132   6.619
89757SOL    HW171104  11.313   9.112   6.534
89757SOL    HW271105  11.331   9.224   6.635
89758SOL     OW71106   4.419   1.263  12.485
89758SOL    HW171107   4.486   1.278  12.552
89758SOL    HW271108   4.354   1.331  12.500
89759SOL     OW71109  11.413   7.409  11.322
89759SOL    HW171110  11.494   7.457  11.337
89759SOL    HW271111  11.436   7.317  11.340
89760SOL     OW71112  10.860   8.864  13.175
89760SOL    HW171113  10.772   8.885  13.206
89760SOL    HW271114  10.865   8.906  13.089
89761SOL     OW71115  14.457   3.530  12.242
89761SOL    HW171116  14.377   3.544  12.294
89761SOL    HW271117  14.513   3.478  12.299
89762SOL     OW71118   3.800   0.825  10.988
89762SOL    HW171119   3.764   0.913  10.993
89762SOL    HW271120   3.738   0.770  11.036
89763SOL     OW71121   9.329   0.447   9.767
89763SOL    HW171122   9.327   0.536   9.802
89763SOL    HW271123   9.333   0.390   9.844
89764SOL     OW71124  11.948   6.277   4.161
89764SOL    HW171125  11.884   6.231   4.216
89764SOL    HW271126  11.914   6.366   4.156
89765SOL     OW71127  13.326   3.366  13.880
89765SOL    HW171128  13.406   3.354  13.829
89765SOL    HW271129  13.275   3.429  13.829
89766SOL     OW71130   7.427   7.327   3.152
89766SOL    HW171131   7.455   7.238   3.174
89766SOL    HW271132   7.483   7.352   3.078
89767SOL     OW71133  12.151   1.946  14.119
89767SOL    HW171134  12.112   2.016  14.066
89767SOL    HW271135  12.245   1.963  14.115
89768SOL     OW71136  13.709   7.564   8.819
89768SOL    HW171137  13.663   7.559   8.902
89768SOL    HW271138  13.664   7.501   8.762
89769SOL     OW71139  14.561  11.412   0.937
89769SOL    HW171140  14.655  11.397   0.929
89769SOL    HW271141  14.527  11.400   0.848
89770SOL     OW71142   2.492   3.425   3.440
89770SOL    HW171143   2.437   3.399   3.513
89770SOL    HW271144   2.568   3.368   3.445
89771SOL     OW71145  14.490  14.313  13.074
89771SOL    HW171146  14.561  14.316  13.010
89771SOL    HW271147  14.471  14.405  13.092
89772SOL     OW71148   3.513  12.017   6.901
89772SOL    HW171149   3.473  11.960   6.966
89772SOL    HW271150   3.469  12.101   6.911
89773SOL     OW71151   7.790   3.111   4.300
89773SOL    HW171152   7.761   3.031   4.257
89773SOL    HW271153   7.857   3.082   4.362
89774SOL     OW71154   4.655   6.302  12.443
89774SOL    HW171155   4.677   6.211  12.465
89774SOL    HW271156   4.595   6.330  12.512
89775SOL     OW71157   6.790  11.862   7.881
89775SOL    HW171158   6.758  11.887   7.794
89775SOL    HW271159   6.713  11.868   7.937
89776SOL     OW71160   9.411  14.694   6.856
89776SOL    HW171161   9.464  14.727   6.784
89776SOL    HW271162   9.338  14.649   6.812
89777SOL     OW71163  14.629   6.753   4.100
89777SOL    HW171164  14.667   6.732   4.015
89777SOL    HW271165  14.699   6.734   4.163
89778SOL     OW71166   3.455   1.181   2.399
89778SOL    HW171167   3.363   1.184   2.425
89778SOL    HW271168   3.496   1.122   2.462
89779SOL     OW71169   0.176   2.487   9.039
89779SOL    HW171170   0.129   2.461   8.960
89779SOL    HW271171   0.176   2.582   9.038
89780SOL     OW71172   3.708   8.041  12.508
89780SOL    HW171173   3.674   8.109  12.450
89780SOL    HW271174   3.657   8.051  12.589
89781SOL     OW71175   9.053   0.919   0.572
89781SOL    HW171176   9.001   0.993   0.602
89781SOL    HW271177   9.125   0.959   0.522
89782SOL     OW71178   4.071  10.996  12.245
89782SOL    HW171179   4.152  10.978  12.293
89782SOL    HW271180   4.039  11.078  12.282
89783SOL     OW71181  14.351   0.745   6.133
89783SOL    HW171182  14.265   0.748   6.091
89783SOL    HW271183  14.412   0.722   6.064
89784SOL     OW71184  12.757   5.381  12.268
89784SOL    HW171185  12.767   5.305  12.324
89784SOL    HW271186  12.685   5.431  12.307
89785SOL     OW71187  11.914   8.519   3.415
89785SOL    HW171188  11.883   8.525   3.505
89785SOL    HW271189  12.002   8.557   3.417
89786SOL     OW71190   8.980   5.415   9.718
89786SOL    HW171191   9.043   5.421   9.646
89786SOL    HW271192   8.955   5.505   9.736
89787SOL     OW71193  14.116  12.721   9.348
89787SOL    HW171194  14.176  12.774   9.296
89787SOL    HW271195  14.159  12.712   9.433
89788SOL     OW71196   9.454   1.127  13.410
89788SOL    HW171197   9.527   1.082  13.368
89788SOL    HW271198   9.431   1.071  13.484
89789SOL     OW71199  13.595  12.954   3.204
89789SOL    HW171200  13.559  13.014   3.139
89789SOL    HW271201  13.688  12.945   3.181
89790SOL     OW71202   9.357   5.336  12.849
89790SOL    HW171203   9.438   5.385  12.866
89790SOL    HW271204   9.383   5.244  12.853
89791SOL     OW71205   4.091  10.803   9.176
89791SOL    HW171206   4.178  10.798   9.214
89791SOL    HW271207   4.091  10.883   9.124
89792SOL     OW71208  14.301  12.020   1.442
89792SOL    HW171209  14.336  11.961   1.509
89792SOL    HW271210  14.355  12.004   1.365
89793SOL     OW71211   0.016   2.327   7.515
89793SOL    HW171212   0.037   2.250   7.462
89793SOL    HW271213  14.855   2.390   7.452
89794SOL     OW71214   7.152   6.498  11.089
89794SOL    HW171215   7.245   6.479  11.102
89794SOL    HW271216   7.151   6.582  11.044
89795SOL     OW71217   6.526   3.219  10.560
89795SOL    HW171218   6.432   3.215  10.579
89795SOL    HW271219   6.545   3.313  10.555
89796SOL     OW71220   7.494  11.669   7.589
89796SOL    HW171221   7.468  11.577   7.595
89796SOL    HW271222   7.573  11.676   7.644
89797SOL     OW71223  12.264   0.218  14.251
89797SOL    HW171224  12.172   0.237  14.269
89797SOL    HW271225  12.301   0.301  14.221
89798SOL     OW71226   6.940  10.704  10.636
89798SOL    HW171227   7.020  10.657  10.658
89798SOL    HW271228   6.877  10.635  10.616
89799SOL     OW71229   2.816   7.563   5.821
89799SOL    HW171230   2.813   7.476   5.861
89799SOL    HW271231   2.909   7.579   5.804
89800SOL     OW71232   3.103  14.582  13.340
89800SOL    HW171233   3.057  14.629  13.410
89800SOL    HW271234   3.050  14.598  13.262
89801SOL     OW71235   6.643  12.440  13.609
89801SOL    HW171236   6.655  12.392  13.691
89801SOL    HW271237   6.727  12.432  13.565
89802SOL     OW71238   6.852   9.458   4.430
89802SOL    HW171239   6.894   9.499   4.506
89802SOL    HW271240   6.788   9.523   4.400
89803SOL     OW71241   0.252  12.185  10.313
89803SOL    HW171242   0.296  12.259  10.354
89803SOL    HW271243   0.317  12.114  10.317
89804SOL     OW71244   0.727   3.237   6.642
89804SOL    HW171245   0.757   3.252   6.732
89804SOL    HW271246   0.784   3.293   6.589
89805SOL     OW71247   0.257   9.421   0.199
89805SOL    HW171248   0.172   9.459   0.222
89805SOL    HW271249   0.261   9.340   0.250
89806SOL     OW71250   0.192   6.959   2.802
89806SOL    HW171251   0.177   6.867   2.822
89806SOL    HW271252   0.172   7.005   2.883
89807SOL     OW71253  10.590   1.001   7.811
89807SOL    HW171254  10.518   1.064   7.802
89807SOL    HW271255  10.573   0.936   7.743
89808SOL     OW71256   6.179  10.141  14.394
89808SOL    HW171257   6.089  10.111  14.405
89808SOL    HW271258   6.227  10.100  14.466
89809SOL     OW71259  11.707   3.506  13.305
89809SOL    HW171260  11.774   3.556  13.258
89809SOL    HW271261  11.693   3.556  13.385
89810SOL     OW71262   9.211   2.007  11.774
89810SOL    HW171263   9.293   1.974  11.738
89810SOL    HW271264   9.237   2.069  11.841
89811SOL     OW71265  13.161   2.158   2.943
89811SOL    HW171266  13.244   2.142   2.989
89811SOL    HW271267  13.116   2.074   2.947
89812SOL     OW71268  14.763   9.204   8.733
89812SOL    HW171269  14.727   9.246   8.656
89812SOL    HW271270  14.817   9.272   8.775
89813SOL     OW71271  14.245   7.936  11.618
89813SOL    HW171272  14.204   7.959  11.534
89813SOL    HW271273  14.308   8.007  11.633
89814SOL     OW71274   9.348  10.375   7.778
89814SOL    HW171275   9.269  10.355   7.729
89814SOL    HW271276   9.340  10.325   7.859
89815SOL     OW71277   4.366   5.178   5.415
89815SOL    HW171278   4.402   5.179   5.326
89815SOL    HW271279   4.331   5.266   5.427
89816SOL     OW71280   1.522   3.121   8.798
89816SOL    HW171281   1.552   3.097   8.711
89816SOL    HW271282   1.603   3.140   8.846
89817SOL     OW71283   4.983   1.876  13.165
89817SOL    HW171284   5.074   1.870  13.193
89817SOL    HW271285   4.982   1.837  13.078
89818SOL     OW71286  14.158   6.734   8.301
89818SOL    HW171287  14.121   6.819   8.275
89818SOL    HW271288  14.212   6.708   8.227
89819SOL     OW71289   3.078   7.693   2.085
89819SOL    HW171290   3.040   7.781   2.094
89819SOL    HW271291   3.058   7.651   2.169
89820SOL     OW71292   6.208  12.008   0.474
89820SOL    HW171293   6.168  11.926   0.446
89820SOL    HW271294   6.289  12.013   0.423
89821SOL     OW71295   6.107   5.912  14.333
89821SOL    HW171296   6.113   6.007  14.336
89821SOL    HW271297   6.044   5.894  14.263
89822SOL     OW71298   3.284   9.641   7.428
89822SOL    HW171299   3.345   9.615   7.496
89822SOL    HW271300   3.314   9.728   7.400
89823SOL     OW71301   6.211   8.919   7.706
89823SOL    HW171302   6.200   8.918   7.801
89823SOL    HW271303   6.132   8.876   7.673
89824SOL     OW71304   0.163   8.512   3.119
89824SOL    HW171305   0.078   8.553   3.103
89824SOL    HW271306   0.200   8.561   3.193
89825SOL     OW71307   1.411   3.089  12.198
89825SOL    HW171308   1.468   3.033  12.146
89825SOL    HW271309   1.362   3.140  12.133
89826SOL     OW71310   1.511   5.607  10.922
89826SOL    HW171311   1.563   5.630  10.999
89826SOL    HW271312   1.507   5.512  10.923
89827SOL     OW71313   9.131  10.555  12.743
89827SOL    HW171314   9.086  10.624  12.694
89827SOL    HW271315   9.121  10.580  12.835
89828SOL     OW71316   7.010   3.486  14.083
89828SOL    HW171317   6.918   3.473  14.059
89828SOL    HW271318   7.025   3.579  14.070
89829SOL     OW71319   7.948   1.161   7.606
89829SOL    HW171320   7.984   1.115   7.530
89829SOL    HW271321   7.931   1.093   7.670
89830SOL     OW71322   3.989   9.748  13.247
89830SOL    HW171323   3.929   9.686  13.206
89830SOL    HW271324   4.051   9.694  13.295
89831SOL     OW71325   2.301   2.141  14.652
89831SOL    HW171326   2.298   2.213  14.715
89831SOL    HW271327   2.214   2.140  14.612
89832SOL     OW71328   3.189  14.535  12.510
89832SOL    HW171329   3.266  14.527  12.454
89832SOL    HW271330   3.144  14.451  12.502
89833SOL     OW71331  11.366   4.079   6.375
89833SOL    HW171332  11.378   3.997   6.423
89833SOL    HW271333  11.402   4.061   6.288
89834SOL     OW71334   4.077   0.955  13.912
89834SOL    HW171335   4.026   0.937  13.991
89834SOL    HW271336   4.102   1.047  13.921
89835SOL     OW71337   2.409   1.286   1.443
89835SOL    HW171338   2.469   1.241   1.503
89835SOL    HW271339   2.456   1.286   1.359
89836SOL     OW71340  13.974  12.701   1.752
89836SOL    HW171341  14.038  12.669   1.689
89836SOL    HW271342  13.893  12.658   1.729
89837SOL     OW71343   9.573  13.034  13.674
89837SOL    HW171344   9.662  13.002  13.689
89837SOL    HW271345   9.582  13.097  13.603
89838SOL     OW71346  11.345   8.422   4.935
89838SOL    HW171347  11.366   8.439   4.843
89838SOL    HW271348  11.263   8.469   4.950
89839SOL     OW71349   0.333   8.032   8.598
89839SOL    HW171350   0.423   8.008   8.618
89839SOL    HW271351   0.284   8.010   8.678
89840SOL     OW71352  12.163   5.634   6.450
89840SOL    HW171353  12.170   5.720   6.410
89840SOL    HW271354  12.078   5.601   6.421
89841SOL     OW71355   3.756   6.349   6.130
89841SOL    HW171356   3.754   6.414   6.059
89841SOL    HW271357   3.689   6.378   6.191
89842SOL     OW71358   7.961   5.347   9.502
89842SOL    HW171359   8.032   5.328   9.564
89842SOL    HW271360   7.955   5.268   9.449
89843SOL     OW71361   6.666   5.880   4.195
89843SOL    HW171362   6.694   5.959   4.149
89843SOL    HW271363   6.738   5.819   4.184
89844SOL     OW71364   3.416  12.292   4.653
89844SOL    HW171365   3.471  12.214   4.658
89844SOL    HW271366   3.347  12.269   4.590
89845SOL     OW71367  13.491  14.429  10.510
89845SOL    HW171368  13.424  14.419  10.577
89845SOL    HW271369  13.445  14.417  10.427
89846SOL     OW71370   5.102   9.856  11.379
89846SOL    HW171371   5.068   9.860  11.290
89846SOL    HW271372   5.189   9.818  11.371
89847SOL     OW71373  12.696  11.772  11.369
89847SOL    HW171374  12.690  11.806  11.279
89847SOL    HW271375  12.751  11.835  11.415
89848SOL     OW71376   8.268   3.314  13.311
89848SOL    HW171377   8.319   3.368  13.370
89848SOL    HW271378   8.184   3.302  13.355
89849SOL     OW71379   2.519   3.734   7.744
89849SOL    HW171380   2.517   3.659   7.803
89849SOL    HW271381   2.512   3.697   7.656
89850SOL     OW71382   9.959   1.233   6.896
89850SOL    HW171383   9.966   1.290   6.972
89850SOL    HW271384  10.019   1.161   6.914
89851SOL     OW71385   7.840   4.751  14.536
89851SOL    HW171386   7.804   4.786  14.617
89851SOL    HW271387   7.767   4.754  14.474
89852SOL     OW71388   5.448  12.323   3.688
89852SOL    HW171389   5.529  12.338   3.737
89852SOL    HW271390   5.378  12.331   3.753
89853SOL     OW71391   4.543  14.229   6.824
89853SOL    HW171392   4.598  14.152   6.841
89853SOL    HW271393   4.602  14.303   6.832
89854SOL     OW71394  13.160   2.744  12.091
89854SOL    HW171395  13.249   2.771  12.067
89854SOL    HW271396  13.127   2.698  12.014
89855SOL     OW71397  13.439   3.832   5.815
89855SOL    HW171398  13.412   3.744   5.840
89855SOL    HW271399  13.412   3.887   5.889
89856SOL     OW71400   1.203   6.159   4.694
89856SOL    HW171401   1.278   6.102   4.673
89856SOL    HW271402   1.238   6.224   4.755
89857SOL     OW71403  11.295   8.704  12.431
89857SOL    HW171404  11.271   8.615  12.407
89857SOL    HW271405  11.234   8.728  12.501
89858SOL     OW71406   5.352   4.198   0.769
89858SOL    HW171407   5.386   4.115   0.802
89858SOL    HW271408   5.281   4.221   0.829
89859SOL     OW71409   3.018   8.148  14.694
89859SOL    HW171410   3.000   8.101  14.775
89859SOL    HW271411   3.113   8.142  14.683
89860SOL     OW71412  13.020  10.391   9.773
89860SOL    HW171413  12.946  10.418   9.827
89860SOL    HW271414  13.050  10.310   9.812
89861SOL     OW71415   2.715  13.208  14.006
89861SOL    HW171416   2.745  13.132  13.957
89861SOL    HW271417   2.793  13.261  14.020
89862SOL     OW71418  11.465   7.979   4.171
89862SOL    HW171419  11.519   8.042   4.123
89862SOL    HW271420  11.425   8.030   4.241
89863SOL     OW71421  14.352  11.062  11.075
89863SOL    HW171422  14.320  10.984  11.031
89863SOL    HW271423  14.368  11.034  11.165
89864SOL     OW71424  10.430   1.310  13.033
89864SOL    HW171425  10.437   1.363  12.954
89864SOL    HW271426  10.399   1.225  13.002
89865SOL     OW71427   9.387  12.552   3.681
89865SOL    HW171428   9.336  12.508   3.613
89865SOL    HW271429   9.331  12.623   3.711
89866SOL     OW71430   7.596   2.518   0.576
89866SOL    HW171431   7.576   2.425   0.580
89866SOL    HW271432   7.526   2.555   0.523
89867SOL     OW71433   8.831   9.110  11.489
89867SOL    HW171434   8.872   9.164  11.556
89867SOL    HW271435   8.746   9.151  11.475
89868SOL     OW71436   2.307   6.307   7.527
89868SOL    HW171437   2.316   6.301   7.623
89868SOL    HW271438   2.285   6.398   7.510
89869SOL     OW71439   4.868  12.542   4.411
89869SOL    HW171440   4.826  12.493   4.341
89869SOL    HW271441   4.796  12.574   4.465
89870SOL     OW71442   0.390   1.184   6.927
89870SOL    HW171443   0.478   1.215   6.907
89870SOL    HW271444   0.401   1.092   6.948
89871SOL     OW71445   0.623   1.396  12.870
89871SOL    HW171446   0.718   1.402  12.878
89871SOL    HW271447   0.608   1.338  12.795
89872SOL     OW71448  14.734  11.988   8.983
89872SOL    HW171449  14.645  12.023   8.987
89872SOL    HW271450  14.770  12.023   8.901
89873SOL     OW71451  13.611  12.199   5.499
89873SOL    HW171452  13.562  12.281   5.507
89873SOL    HW271453  13.659  12.208   5.416
89874SOL     OW71454  14.463   6.418   2.502
89874SOL    HW171455  14.498   6.475   2.434
89874SOL    HW271456  14.462   6.331   2.463
89875SOL     OW71457   2.862   8.740  12.351
89875SOL    HW171458   2.862   8.681  12.427
89875SOL    HW271459   2.934   8.800  12.367
89876SOL     OW71460   2.538  10.855   5.475
89876SOL    HW171461   2.569  10.766   5.491
89876SOL    HW271462   2.516  10.856   5.382
89877SOL     OW71463   7.516   1.413   9.854
89877SOL    HW171464   7.597   1.398   9.806
89877SOL    HW271465   7.456   1.451   9.789
89878SOL     OW71466   9.316  14.091   2.082
89878SOL    HW171467   9.250  14.135   2.137
89878SOL    HW271468   9.265  14.047   2.015
89879SOL     OW71469   0.301   0.963   0.565
89879SOL    HW171470   0.391   0.933   0.548
89879SOL    HW271471   0.311   1.034   0.629
89880SOL     OW71472   4.193  11.731  14.870
89880SOL    HW171473   4.210  11.765   0.085
89880SOL    HW271474   4.097  11.726  14.864
89881SOL     OW71475  12.383   6.157   0.100
89881SOL    HW171476  12.444   6.224   0.130
89881SOL    HW271477  12.307   6.165   0.158
89882SOL     OW71478   9.295  13.911  14.826
89882SOL    HW171479   9.295  13.996  14.872
89882SOL    HW271480   9.386  13.899  14.799
89883SOL     OW71481  14.854   7.275   8.789
89883SOL    HW171482  14.810   7.201   8.748
89883SOL    HW271483  14.821   7.352   8.743
89884SOL     OW71484  13.294   8.721   4.604
89884SOL    HW171485  13.249   8.706   4.687
89884SOL    HW271486  13.387   8.720   4.626
89885SOL     OW71487   8.348   6.629   5.205
89885SOL    HW171488   8.413   6.638   5.275
89885SOL    HW271489   8.383   6.561   5.148
89886SOL     OW71490   0.294   3.817   2.405
89886SOL    HW171491   0.335   3.743   2.450
89886SOL    HW271492   0.366   3.877   2.388
89887SOL     OW71493  13.809   6.530  12.229
89887SOL    HW171494  13.831   6.449  12.183
89887SOL    HW271495  13.850   6.521  12.315
89888SOL     OW71496  11.183  12.654  10.628
89888SOL    HW171497  11.272  12.622  10.611
89888SOL    HW271498  11.193  12.715  10.701
89889SOL     OW71499  12.869   0.534   2.412
89889SOL    HW171500  12.886   0.626   2.434
89889SOL    HW271501  12.813   0.503   2.483
89890SOL     OW71502   9.783   9.109  14.391
89890SOL    HW171503   9.875   9.135  14.397
89890SOL    HW271504   9.770   9.087  14.299
89891SOL     OW71505   8.471  11.126   4.339
89891SOL    HW171506   8.426  11.134   4.422
89891SOL    HW271507   8.441  11.201   4.287
89892SOL     OW71508   0.426   3.143   8.137
89892SOL    HW171509   0.463   3.177   8.055
89892SOL    HW271510   0.413   3.050   8.121
89893SOL     OW71511  10.632  14.136   7.889
89893SOL    HW171512  10.566  14.070   7.910
89893SOL    HW271513  10.611  14.210   7.946
89894SOL     OW71514  13.184   4.827  12.593
89894SOL    HW171515  13.089   4.824  12.584
89894SOL    HW271516  13.211   4.735  12.590
89895SOL     OW71517  12.634  13.307   2.976
89895SOL    HW171518  12.710  13.261   3.011
89895SOL    HW271519  12.606  13.254   2.902
89896SOL     OW71520   7.141  13.851  13.530
89896SOL    HW171521   7.215  13.857  13.470
89896SOL    HW271522   7.080  13.790  13.488
89897SOL     OW71523   5.050   6.226   7.956
89897SOL    HW171524   5.036   6.153   7.895
89897SOL    HW271525   5.124   6.197   8.010
89898SOL     OW71526  11.136  13.433   9.755
89898SOL    HW171527  11.165  13.494   9.688
89898SOL    HW271528  11.045  13.456   9.772
89899SOL     OW71529   2.106  14.248  14.076
89899SOL    HW171530   2.084  14.162  14.040
89899SOL    HW271531   2.179  14.230  14.136
89900SOL     OW71532   3.348   1.403   6.941
89900SOL    HW171533   3.372   1.460   7.014
89900SOL    HW271534   3.431   1.366   6.910
89901SOL     OW71535  11.187  13.533   7.242
89901SOL    HW171536  11.203  13.441   7.225
89901SOL    HW271537  11.189  13.574   7.155
89902SOL     OW71538   9.684  12.464  10.176
89902SOL    HW171539   9.625  12.528  10.216
89902SOL    HW271540   9.696  12.397  10.243
89903SOL     OW71541   4.549   0.372   9.193
89903SOL    HW171542   4.496   0.449   9.215
89903SOL    HW271543   4.589   0.393   9.109
89904SOL     OW71544  11.611   0.923   6.432
89904SOL    HW171545  11.588   1.000   6.484
89904SOL    HW271546  11.661   0.959   6.358
89905SOL     OW71547  10.163   3.755   7.792
89905SOL    HW171548  10.218   3.691   7.747
89905SOL    HW271549  10.104   3.788   7.724
89906SOL     OW71550   2.356   7.216   5.650
89906SOL    HW171551   2.393   7.264   5.577
89906SOL    HW271552   2.349   7.125   5.619
89907SOL     OW71553   1.563  12.645   5.684
89907SOL    HW171554   1.593  12.554   5.677
89907SOL    HW271555   1.469  12.640   5.665
89908SOL     OW71556   9.176  13.666  11.605
89908SOL    HW171557   9.170  13.616  11.524
89908SOL    HW271558   9.147  13.605  11.673
89909SOL     OW71559  13.703  11.109   3.423
89909SOL    HW171560  13.715  11.015   3.412
89909SOL    HW271561  13.774  11.148   3.372
89910SOL     OW71562   7.828   3.387   2.591
89910SOL    HW171563   7.911   3.421   2.556
89910SOL    HW271564   7.852   3.304   2.633
89911SOL     OW71565   2.868   4.433   2.843
89911SOL    HW171566   2.942   4.421   2.783
89911SOL    HW271567   2.802   4.371   2.812
89912SOL     OW71568   5.343   3.804   8.446
89912SOL    HW171569   5.405   3.872   8.471
89912SOL    HW271570   5.305   3.835   8.363
89913SOL     OW71571   0.226   7.720   5.717
89913SOL    HW171572   0.162   7.769   5.665
89913SOL    HW271573   0.180   7.700   5.799
89914SOL     OW71574   1.336   8.637   9.037
89914SOL    HW171575   1.330   8.608   8.946
89914SOL    HW271576   1.418   8.686   9.042
89915SOL     OW71577   6.773  13.404   2.648
89915SOL    HW171578   6.793  13.340   2.580
89915SOL    HW271579   6.711  13.360   2.705
89916SOL     OW71580  13.352   0.526   4.140
89916SOL    HW171581  13.332   0.470   4.065
89916SOL    HW271582  13.401   0.469   4.200
89917SOL     OW71583   4.372   0.453  14.674
89917SOL    HW171584   4.430   0.400  14.620
89917SOL    HW271585   4.363   0.403  14.756
89918SOL     OW71586  12.371  11.545   6.145
89918SOL    HW171587  12.345  11.453   6.145
89918SOL    HW271588  12.291  11.593   6.168
89919SOL     OW71589   8.445   6.267   0.261
89919SOL    HW171590   8.413   6.357   0.261
89919SOL    HW271591   8.464   6.247   0.352
89920SOL     OW71592   1.681   5.329   1.316
89920SOL    HW171593   1.586   5.342   1.309
89920SOL    HW271594   1.709   5.313   1.226
89921SOL     OW71595  11.152  13.965   8.951
89921SOL    HW171596  11.201  14.024   9.008
89921SOL    HW271597  11.116  14.022   8.883
89922SOL     OW71598  12.368   4.578   5.064
89922SOL    HW171599  12.393   4.636   4.993
89922SOL    HW271600  12.340   4.637   5.134
89923SOL     OW71601  12.655  13.807   2.222
89923SOL    HW171602  12.591  13.850   2.279
89923SOL    HW271603  12.610  13.728   2.191
89924SOL     OW71604   2.296   6.610  14.338
89924SOL    HW171605   2.318   6.648  14.252
89924SOL    HW271606   2.375   6.563  14.365
89925SOL     OW71607   4.103   3.659   2.778
89925SOL    HW171608   4.180   3.691   2.731
89925SOL    HW271609   4.101   3.565   2.758
89926SOL     OW71610   7.700  11.292   9.677
89926SOL    HW171611   7.618  11.322   9.637
89926SOL    HW271612   7.680  11.282   9.770
89927SOL     OW71613   0.883   5.687   9.594
89927SOL    HW171614   0.824   5.649   9.529
89927SOL    HW271615   0.910   5.613   9.648
89928SOL     OW71616   9.624  10.003  11.515
89928SOL    HW171617   9.555  10.060  11.548
89928SOL    HW271618   9.620  10.014  11.420
89929SOL     OW71619   5.077  11.899   9.347
89929SOL    HW171620   5.023  11.827   9.316
89929SOL    HW271621   5.029  11.936   9.421
89930SOL     OW71622   0.401   2.049   7.703
89930SOL    HW171623   0.368   1.963   7.679
89930SOL    HW271624   0.483   2.032   7.749
89931SOL     OW71625   4.896   0.728   6.095
89931SOL    HW171626   4.902   0.647   6.145
89931SOL    HW271627   4.889   0.699   6.004
89932SOL     OW71628   8.972  11.234  10.683
89932SOL    HW171629   8.964  11.207  10.775
89932SOL    HW271630   9.066  11.238  10.667
89933SOL     OW71631  10.875   1.541   2.163
89933SOL    HW171632  10.927   1.530   2.084
89933SOL    HW271633  10.787   1.561   2.132
89934SOL     OW71634   0.295   7.650   0.397
89934SOL    HW171635   0.245   7.707   0.455
89934SOL    HW271636   0.368   7.705   0.368
89935SOL     OW71637   6.580   9.115   5.456
89935SOL    HW171638   6.594   9.205   5.427
89935SOL    HW271639   6.507   9.084   5.402
89936SOL     OW71640  13.361   9.010   2.429
89936SOL    HW171641  13.293   9.035   2.367
89936SOL    HW271642  13.432   9.073   2.413
89937SOL     OW71643   9.369   0.593  10.686
89937SOL    HW171644   9.320   0.626  10.761
89937SOL    HW271645   9.333   0.506  10.669
89938SOL     OW71646  12.083  10.464  10.472
89938SOL    HW171647  12.069  10.371  10.455
89938SOL    HW271648  12.094  10.503  10.386
89939SOL     OW71649   8.583   4.819   0.205
89939SOL    HW171650   8.671   4.835   0.171
89939SOL    HW271651   8.528   4.819   0.127
89940SOL     OW71652  14.294  11.947  10.152
89940SOL    HW171653  14.201  11.939  10.129
89940SOL    HW271654  14.302  11.903  10.237
89941SOL     OW71655   4.084  12.992   1.813
89941SOL    HW171656   4.080  13.066   1.753
89941SOL    HW271657   4.127  12.922   1.764
89942SOL     OW71658   5.189   9.238  12.216
89942SOL    HW171659   5.159   9.152  12.245
89942SOL    HW271660   5.118   9.272  12.162
89943SOL     OW71661  11.853  14.817   3.230
89943SOL    HW171662  11.908  14.740   3.222
89943SOL    HW271663  11.812  14.827   3.144
89944SOL     OW71664  13.305  14.814   7.834
89944SOL    HW171665  13.308  14.797   7.740
89944SOL    HW271666  13.328  14.730   7.875
89945SOL     OW71667   7.249   1.888  14.056
89945SOL    HW171668   7.250   1.792  14.050
89945SOL    HW271669   7.340   1.914  14.044
89946SOL     OW71670   8.583   1.086   7.838
89946SOL    HW171671   8.537   1.054   7.760
89946SOL    HW271672   8.526   1.061   7.911
89947SOL     OW71673   9.567  11.112  10.327
89947SOL    HW171674   9.571  11.094  10.233
89947SOL    HW271675   9.565  11.207  10.334
89948SOL     OW71676   5.104   3.584  14.778
89948SOL    HW171677   5.108   3.680  14.776
89948SOL    HW271678   5.030   3.562  14.721
89949SOL     OW71679   7.804   3.105   5.868
89949SOL    HW171680   7.841   3.045   5.933
89949SOL    HW271681   7.724   3.138   5.910
89950SOL     OW71682  10.048  11.483  11.634
89950SOL    HW171683  10.047  11.561  11.689
89950SOL    HW271684  10.029  11.516  11.546
89951SOL     OW71685   4.453   2.865   1.282
89951SOL    HW171686   4.545   2.890   1.273
89951SOL    HW271687   4.424   2.848   1.192
89952SOL     OW71688  13.091   4.439  13.634
89952SOL    HW171689  13.007   4.442  13.588
89952SOL    HW271690  13.153   4.407  13.568
89953SOL     OW71691  10.099   5.549  10.595
89953SOL    HW171692  10.115   5.556  10.689
89953SOL    HW271693  10.019   5.601  10.581
89954SOL     OW71694   7.414   6.713  14.577
89954SOL    HW171695   7.404   6.618  14.573
89954SOL    HW271696   7.329   6.745  14.604
89955SOL     OW71697  10.194   5.619   8.659
89955SOL    HW171698  10.278   5.630   8.704
89955SOL    HW271699  10.128   5.627   8.728
89956SOL     OW71700   7.306  12.328   0.945
89956SOL    HW171701   7.217  12.293   0.950
89956SOL    HW271702   7.298  12.408   0.893
89957SOL     OW71703   4.623   0.213  11.659
89957SOL    HW171704   4.642   0.176  11.573
89957SOL    HW271705   4.620   0.137  11.717
89958SOL     OW71706   7.671   6.377   7.824
89958SOL    HW171707   7.631   6.389   7.738
89958SOL    HW271708   7.635   6.294   7.856
89959SOL     OW71709   7.874   6.059  14.537
89959SOL    HW171710   7.834   6.031  14.455
89959SOL    HW271711   7.819   6.022  14.605
89960SOL     OW71712  12.008   8.772   8.270
89960SOL    HW171713  11.988   8.713   8.197
89960SOL    HW271714  12.030   8.855   8.228
89961SOL     OW71715  11.249   5.628  11.293
89961SOL    HW171716  11.292   5.543  11.294
89961SOL    HW271717  11.311   5.686  11.248
89962SOL     OW71718   8.866   5.670   3.122
89962SOL    HW171719   8.908   5.624   3.049
89962SOL    HW271720   8.927   5.659   3.196
89963SOL     OW71721   3.058   8.854   4.527
89963SOL    HW171722   3.105   8.909   4.464
89963SOL    HW271723   2.984   8.819   4.477
89964SOL     OW71724  13.312   4.252  11.689
89964SOL    HW171725  13.332   4.188  11.757
89964SOL    HW271726  13.390   4.307  11.685
89965SOL     OW71727   1.879   3.743   7.428
89965SOL    HW171728   1.819   3.677   7.463
89965SOL    HW271729   1.836   3.775   7.349
89966SOL     OW71730  14.033   4.104   6.708
89966SOL    HW171731  14.083   4.045   6.652
89966SOL    HW271732  14.064   4.192   6.684
89967SOL     OW71733   3.467  13.433  11.355
89967SOL    HW171734   3.435  13.506  11.408
89967SOL    HW271735   3.391  13.375  11.345
89968SOL     OW71736  12.011   7.093   0.507
89968SOL    HW171737  11.923   7.075   0.475
89968SOL    HW271738  12.021   7.188   0.495
89969SOL     OW71739   6.041  11.817  10.924
89969SOL    HW171740   6.017  11.795  10.833
89969SOL    HW271741   6.074  11.734  10.960
89970SOL     OW71742   6.887   7.358   0.314
89970SOL    HW171743   6.952   7.327   0.378
89970SOL    HW271744   6.900   7.452   0.309
89971SOL     OW71745  11.063   4.884   2.659
89971SOL    HW171746  11.077   4.940   2.735
89971SOL    HW271747  10.968   4.883   2.648
89972SOL     OW71748   6.073   0.130  13.717
89972SOL    HW171749   6.133   0.155  13.646
89972SOL    HW271750   6.006   0.198  13.716
89973SOL     OW71751   2.794  10.593   7.470
89973SOL    HW171752   2.781  10.513   7.420
89973SOL    HW271753   2.874  10.632   7.433
89974SOL     OW71754  10.947   3.850  11.931
89974SOL    HW171755  10.934   3.896  12.014
89974SOL    HW271756  10.879   3.783  11.930
89975SOL     OW71757   5.897   9.342   8.472
89975SOL    HW171758   5.820   9.354   8.528
89975SOL    HW271759   5.862   9.325   8.385
89976SOL     OW71760   5.258  12.054   5.257
89976SOL    HW171761   5.212  11.988   5.205
89976SOL    HW271762   5.295  12.004   5.331
89977SOL     OW71763   1.024   8.582   4.545
89977SOL    HW171764   1.072   8.609   4.624
89977SOL    HW271765   1.033   8.487   4.542
89978SOL     OW71766   3.585   7.139   4.489
89978SOL    HW171767   3.567   7.068   4.551
89978SOL    HW271768   3.507   7.194   4.492
89979SOL     OW71769   3.850  13.876   5.838
89979SOL    HW171770   3.918  13.811   5.824
89979SOL    HW271771   3.890  13.941   5.896
89980SOL     OW71772   2.136   4.278   3.791
89980SOL    HW171773   2.073   4.232   3.736
89980SOL    HW271774   2.172   4.347   3.735
89981SOL     OW71775  13.979   0.293   8.945
89981SOL    HW171776  13.899   0.328   8.905
89981SOL    HW271777  13.948   0.223   9.002
89982SOL     OW71778  13.573   4.360   4.911
89982SOL    HW171779  13.665   4.364   4.885
89982SOL    HW271780  13.574   4.321   4.999
89983SOL     OW71781   2.001   3.176   4.512
89983SOL    HW171782   1.947   3.158   4.435
89983SOL    HW271783   1.942   3.166   4.586
89984SOL     OW71784   0.384   7.629   6.680
89984SOL    HW171785   0.443   7.660   6.611
89984SOL    HW271786   0.436   7.632   6.760
89985SOL     OW71787   5.255   0.228  12.547
89985SOL    HW171788   5.333   0.195  12.591
89985SOL    HW271789   5.253   0.321  12.567
89986SOL     OW71790   2.870   7.297  14.151
89986SOL    HW171791   2.866   7.322  14.059
89986SOL    HW271792   2.823   7.367  14.196
89987SOL     OW71793  11.640  12.197  12.637
89987SOL    HW171794  11.671  12.185  12.726
89987SOL    HW271795  11.666  12.117  12.591
89988SOL     OW71796   0.608   9.824  10.050
89988SOL    HW171797   0.610   9.907  10.004
89988SOL    HW271798   0.583   9.760   9.984
89989SOL     OW71799   3.078   5.466  11.103
89989SOL    HW171800   2.990   5.454  11.066
89989SOL    HW271801   3.123   5.523  11.041
89990SOL     OW71802   5.564   2.874  11.412
89990SOL    HW171803   5.596   2.784  11.401
89990SOL    HW271804   5.620   2.911  11.480
89991SOL     OW71805   9.118   5.755  13.371
89991SOL    HW171806   9.153   5.797  13.292
89991SOL    HW271807   9.044   5.811  13.396
89992SOL     OW71808   3.677   1.686   1.913
89992SOL    HW171809   3.690   1.690   2.007
89992SOL    HW271810   3.766   1.683   1.876
89993SOL     OW71811   1.579   9.164  12.074
89993SOL    HW171812   1.508   9.100  12.065
89993SOL    HW271813   1.631   9.131  12.147
89994SOL     OW71814   3.495   5.794  13.020
89994SOL    HW171815   3.567   5.857  13.019
89994SOL    HW271816   3.538   5.709  13.019
89995SOL     OW71817   7.439   7.776  11.696
89995SOL    HW171818   7.402   7.784  11.785
89995SOL    HW271819   7.525   7.817  11.703
89996SOL     OW71820  12.129   8.074   5.728
89996SOL    HW171821  12.126   8.146   5.792
89996SOL    HW271822  12.214   8.032   5.744
89997SOL     OW71823   5.460  12.414   9.490
89997SOL    HW171824   5.505  12.358   9.426
89997SOL    HW271825   5.519  12.415   9.565
89998SOL     OW71826   5.406   4.080  14.287
89998SOL    HW171827   5.428   4.172  14.302
89998SOL    HW271828   5.330   4.082  14.230
89999SOL     OW71829   3.228   1.139   6.997
89999SOL    HW171830   3.288   1.158   7.069
89999SOL    HW271831   3.275   1.166   6.918
90000SOL     OW71832   6.846   1.316   5.207
90000SOL    HW171833   6.813   1.226   5.214
90000SOL    HW271834   6.768   1.371   5.205
90001SOL     OW71835   5.427  10.732   6.782
90001SOL    HW171836   5.454  10.792   6.851
90001SOL    HW271837   5.409  10.788   6.707
90002SOL     OW71838  12.138  14.480  14.861
90002SOL    HW171839  12.219  14.503  14.816
90002SOL    HW271840  12.084  14.560  14.857
90003SOL     OW71841   0.099   3.598   4.453
90003SOL    HW171842   0.087   3.504   4.463
90003SOL    HW271843   0.019   3.628   4.410
90004SOL     OW71844  11.268   3.106  14.078
90004SOL    HW171845  11.228   3.154  14.151
90004SOL    HW271846  11.328   3.168  14.038
90005SOL     OW71847   3.502   8.992  13.367
90005SOL    HW171848   3.569   8.975  13.301
90005SOL    HW271849   3.542   8.965  13.449
90006SOL     OW71850   3.601   1.137   3.193
90006SOL    HW171851   3.541   1.069   3.223
90006SOL    HW271852   3.686   1.111   3.229
90007SOL     OW71853   3.731  10.553   0.448
90007SOL    HW171854   3.685  10.528   0.528
90007SOL    HW271855   3.778  10.474   0.422
90008SOL     OW71856   4.777   4.331  10.883
90008SOL    HW171857   4.790   4.414  10.837
90008SOL    HW271858   4.763   4.356  10.975
90009SOL     OW71859   7.513   2.268   8.648
90009SOL    HW171860   7.450   2.301   8.585
90009SOL    HW271861   7.489   2.176   8.661
90010SOL     OW71862   5.026  12.611  14.371
90010SOL    HW171863   4.989  12.686  14.323
90010SOL    HW271864   4.988  12.618  14.459
90011SOL     OW71865   6.170  11.219   9.450
90011SOL    HW171866   6.122  11.142   9.480
90011SOL    HW271867   6.102  11.284   9.433
90012SOL     OW71868   3.105   9.499  10.129
90012SOL    HW171869   3.189   9.458  10.151
90012SOL    HW271870   3.118   9.591  10.152
90013SOL     OW71871  14.395   7.399   2.851
90013SOL    HW171872  14.452   7.329   2.820
90013SOL    HW271873  14.416   7.409   2.943
90014SOL     OW71874   1.600   0.637   3.294
90014SOL    HW171875   1.645   0.556   3.317
90014SOL    HW271876   1.604   0.641   3.198
90015SOL     OW71877   6.960   0.138  12.847
90015SOL    HW171878   7.002   0.129  12.932
90015SOL    HW271879   6.866   0.129  12.866
90016SOL     OW71880   4.858  11.075   1.602
90016SOL    HW171881   4.880  10.983   1.593
90016SOL    HW271882   4.852  11.090   1.696
90017SOL     OW71883  10.856   7.250   5.099
90017SOL    HW171884  10.878   7.277   5.010
90017SOL    HW271885  10.937   7.263   5.149
90018SOL     OW71886  12.475  11.182   4.391
90018SOL    HW171887  12.466  11.149   4.480
90018SOL    HW271888  12.537  11.255   4.399
90019SOL     OW71889  13.050   4.741   3.993
90019SOL    HW171890  12.994   4.803   4.039
90019SOL    HW271891  13.041   4.659   4.042
90020SOL     OW71892   2.436  12.213   3.916
90020SOL    HW171893   2.519  12.178   3.885
90020SOL    HW271894   2.371  12.184   3.852
90021SOL     OW71895   7.431  11.469   7.907
90021SOL    HW171896   7.497  11.484   7.974
90021SOL    HW271897   7.412  11.556   7.872
90022SOL     OW71898  12.244  14.578  13.684
90022SOL    HW171899  12.166  14.587  13.739
90022SOL    HW271900  12.300  14.651  13.709
90023SOL     OW71901  10.436   2.493   7.478
90023SOL    HW171902  10.419   2.580   7.443
90023SOL    HW271903  10.372   2.437   7.434
90024SOL     OW71904   1.972   7.460  13.692
90024SOL    HW171905   1.877   7.467  13.682
90024SOL    HW271906   1.998   7.396  13.626
90025SOL     OW71907   5.453  13.657  13.221
90025SOL    HW171908   5.418  13.746  13.222
90025SOL    HW271909   5.427  13.620  13.305
90026SOL     OW71910   2.909   3.025   5.935
90026SOL    HW171911   2.991   3.022   5.985
90026SOL    HW271912   2.841   3.001   5.998
90027SOL     OW71913  10.392  10.243  13.761
90027SOL    HW171914  10.397  10.314  13.697
90027SOL    HW271915  10.393  10.163  13.709
90028SOL     OW71916  13.490   9.326   4.874
90028SOL    HW171917  13.514   9.324   4.967
90028SOL    HW271918  13.517   9.413   4.845
90029SOL     OW71919  10.630  10.275   6.790
90029SOL    HW171920  10.536  10.269   6.803
90029SOL    HW271921  10.644  10.361   6.750
90030SOL     OW71922  14.161  10.775   2.531
90030SOL    HW171923  14.097  10.808   2.594
90030SOL    HW271924  14.246  10.787   2.574
90031SOL     OW71925   1.889   3.680   9.819
90031SOL    HW171926   1.858   3.598   9.781
90031SOL    HW271927   1.819   3.743   9.800
90032SOL     OW71928   7.378   2.740   0.056
90032SOL    HW171929   7.419   2.727   0.141
90032SOL    HW271930   7.310   2.805   0.071
90033SOL     OW71931  13.858  14.809   6.012
90033SOL    HW171932  13.798  14.735   6.015
90033SOL    HW271933  13.945  14.769   6.018
90034SOL     OW71934  12.297   1.785   7.288
90034SOL    HW171935  12.266   1.820   7.372
90034SOL    HW271936  12.334   1.700   7.310
90035SOL     OW71937   2.958   9.552  11.488
90035SOL    HW171938   3.025   9.516  11.546
90035SOL    HW271939   2.904   9.607  11.544
90036SOL     OW71940   3.924   3.570   1.141
90036SOL    HW171941   4.018   3.587   1.138
90036SOL    HW271942   3.915   3.478   1.115
90037SOL     OW71943   4.926   7.584  10.731
90037SOL    HW171944   4.882   7.668  10.726
90037SOL    HW271945   4.858   7.523  10.761
90038SOL     OW71946   2.694   5.108  10.839
90038SOL    HW171947   2.676   5.024  10.879
90038SOL    HW271948   2.696   5.090  10.745
90039SOL     OW71949  13.068   2.400   5.733
90039SOL    HW171950  13.018   2.438   5.805
90039SOL    HW271951  13.015   2.327   5.702
90040SOL     OW71952   7.926   7.209  10.088
90040SOL    HW171953   7.919   7.276  10.020
90040SOL    HW271954   7.909   7.127  10.043
90041SOL     OW71955   8.297  11.425   7.857
90041SOL    HW171956   8.240  11.487   7.810
90041SOL    HW271957   8.371  11.477   7.886
90042SOL     OW71958   9.191  10.696   6.030
90042SOL    HW171959   9.112  10.659   5.991
90042SOL    HW271960   9.213  10.770   5.974
90043SOL     OW71961   4.264   8.323  10.586
90043SOL    HW171962   4.308   8.355  10.507
90043SOL    HW271963   4.335   8.299  10.645
90044SOL     OW71964  14.246   9.371   0.332
90044SOL    HW171965  14.278   9.362   0.422
90044SOL    HW271966  14.162   9.417   0.341
90045SOL     OW71967   2.947  13.695   1.681
90045SOL    HW171968   3.024  13.652   1.718
90045SOL    HW271969   2.973  13.787   1.672
90046SOL     OW71970  12.471   5.163   4.401
90046SOL    HW171971  12.517   5.223   4.459
90046SOL    HW271972  12.438   5.094   4.458
90047SOL     OW71973  11.482   5.390   7.603
90047SOL    HW171974  11.428   5.456   7.560
90047SOL    HW271975  11.517   5.434   7.681
90048SOL     OW71976   4.472  12.468   2.079
90048SOL    HW171977   4.543  12.458   2.141
90048SOL    HW271978   4.392  12.464   2.133
90049SOL     OW71979  10.005   9.337   6.260
90049SOL    HW171980  10.024   9.420   6.216
90049SOL    HW271981   9.947   9.362   6.333
90050SOL     OW71982  12.399  10.722  14.599
90050SOL    HW171983  12.327  10.745  14.541
90050SOL    HW271984  12.359  10.711  14.685
90051SOL     OW71985   3.766   8.990   7.802
90051SOL    HW171986   3.760   8.941   7.884
90051SOL    HW271987   3.714   8.940   7.740
90052SOL     OW71988   8.408   2.365   0.040
90052SOL    HW171989   8.348   2.351  14.839
90052SOL    HW271990   8.353   2.401   0.109
90053SOL     OW71991   1.271   4.158   0.542
90053SOL    HW171992   1.271   4.063   0.549
90053SOL    HW271993   1.321   4.187   0.618
90054SOL     OW71994   8.668   4.266  11.402
90054SOL    HW171995   8.739   4.321  11.435
90054SOL    HW271996   8.590   4.297  11.448
90055SOL     OW71997  13.112   0.488   7.184
90055SOL    HW171998  13.065   0.461   7.105
90055SOL    HW271999  13.204   0.485   7.159
90056SOL     OW72000   0.460   3.051   6.864
90056SOL    HW172001   0.383   2.993   6.864
90056SOL    HW272002   0.430   3.132   6.823
90057SOL     OW72003  13.247   0.002   3.852
90057SOL    HW172004  13.297   0.026   3.775
90057SOL    HW272005  13.292   0.045   3.925
90058SOL     OW72006  10.941   7.166   5.560
90058SOL    HW172007  10.848   7.162   5.582
90058SOL    HW272008  10.982   7.099   5.615
90059SOL     OW72009   3.912   4.474   6.860
90059SOL    HW172010   3.938   4.548   6.916
90059SOL    HW272011   3.895   4.403   6.922
90060SOL     OW72012   8.544   9.433  12.318
90060SOL    HW172013   8.449   9.444  12.327
90060SOL    HW272014   8.557   9.421  12.224
90061SOL     OW72015   1.732  13.958   3.214
90061SOL    HW172016   1.721  14.053   3.208
90061SOL    HW272017   1.754  13.931   3.125
90062SOL     OW72018   0.328  11.717   9.573
90062SOL    HW172019   0.422  11.696   9.571
90062SOL    HW272020   0.306  11.716   9.666
90063SOL     OW72021  13.500   7.193  13.997
90063SOL    HW172022  13.511   7.128  13.927
90063SOL    HW272023  13.493   7.141  14.077
90064SOL     OW72024  11.479   5.845  10.042
90064SOL    HW172025  11.390   5.878  10.029
90064SOL    HW272026  11.478   5.757  10.004
90065SOL     OW72027  14.201  12.171   5.148
90065SOL    HW172028  14.184  12.262   5.168
90065SOL    HW272029  14.167  12.122   5.223
90066SOL     OW72030   8.150   4.704   0.841
90066SOL    HW172031   8.225   4.649   0.822
90066SOL    HW272032   8.077   4.663   0.794
90067SOL     OW72033  10.939   8.750   0.334
90067SOL    HW172034  10.883   8.805   0.390
90067SOL    HW272035  10.879   8.712   0.270
90068SOL     OW72036   6.109   7.972   5.095
90068SOL    HW172037   6.182   7.918   5.064
90068SOL    HW272038   6.089   7.937   5.182
90069SOL     OW72039  10.180   8.283   9.923
90069SOL    HW172040  10.157   8.361   9.974
90069SOL    HW272041  10.150   8.210   9.977
90070SOL     OW72042   0.896   7.993   6.023
90070SOL    HW172043   0.908   8.088   6.026
90070SOL    HW272044   0.950   7.960   6.095
90071SOL     OW72045   3.133   7.107   9.061
90071SOL    HW172046   3.102   7.089   9.150
90071SOL    HW272047   3.216   7.060   9.054
90072SOL     OW72048   0.818   5.545  14.227
90072SOL    HW172049   0.727   5.574  14.218
90072SOL    HW272050   0.813   5.463  14.276
90073SOL     OW72051   8.600   4.552   0.250
90073SOL    HW172052   8.615   4.522   0.339
90073SOL    HW272053   8.607   4.647   0.255
90074SOL     OW72054   5.421  11.912   5.003
90074SOL    HW172055   5.439  11.989   5.057
90074SOL    HW272056   5.384  11.948   4.922
90075SOL     OW72057   2.531   6.732   0.664
90075SOL    HW172058   2.516   6.800   0.731
90075SOL    HW272059   2.538   6.651   0.714
90076SOL     OW72060  11.030   9.916   4.485
90076SOL    HW172061  11.116   9.875   4.475
90076SOL    HW272062  10.970   9.842   4.495
90077SOL     OW72063   9.274  14.798   5.737
90077SOL    HW172064   9.321  14.724   5.698
90077SOL    HW272065   9.186  14.792   5.700
90078SOL     OW72066   3.332   4.636   3.695
90078SOL    HW172067   3.304   4.549   3.726
90078SOL    HW272068   3.260   4.694   3.720
90079SOL     OW72069  13.728   7.707  10.314
90079SOL    HW172070  13.752   7.778  10.373
90079SOL    HW272071  13.777   7.631  10.345
90080SOL     OW72072   2.892   6.490   2.677
90080SOL    HW172073   2.924   6.499   2.587
90080SOL    HW272074   2.926   6.406   2.708
90081SOL     OW72075   5.357   3.344  10.011
90081SOL    HW172076   5.409   3.422  10.035
90081SOL    HW272077   5.267   3.368  10.034
90082SOL     OW72078   5.862  13.341   6.993
90082SOL    HW172079   5.944  13.382   6.965
90082SOL    HW272080   5.874  13.248   6.973
90083SOL     OW72081   5.258  12.312   3.100
90083SOL    HW172082   5.340  12.360   3.114
90083SOL    HW272083   5.282  12.221   3.116
90084SOL     OW72084  10.749   1.285  13.995
90084SOL    HW172085  10.712   1.270  13.908
90084SOL    HW272086  10.842   1.263  13.986
90085SOL     OW72087  12.302   4.654   6.877
90085SOL    HW172088  12.250   4.687   6.804
90085SOL    HW272089  12.254   4.682   6.955
90086SOL     OW72090   2.976   6.118  12.698
90086SOL    HW172091   3.016   6.116  12.785
90086SOL    HW272092   2.924   6.199  12.698
90087SOL     OW72093   6.509  11.126   5.884
90087SOL    HW172094   6.558  11.101   5.962
90087SOL    HW272095   6.456  11.050   5.863
90088SOL     OW72096  14.636   8.847   8.966
90088SOL    HW172097  14.710   8.821   9.021
90088SOL    HW272098  14.666   8.828   8.877
90089SOL     OW72099  13.731  12.026   4.423
90089SOL    HW172100  13.674  11.987   4.490
90089SOL    HW272101  13.706  11.982   4.342
90090SOL     OW72102  10.064   0.779   5.381
90090SOL    HW172103  10.044   0.871   5.361
90090SOL    HW272104  10.085   0.779   5.475
90091SOL     OW72105   2.597   4.813   8.504
90091SOL    HW172106   2.621   4.841   8.416
90091SOL    HW272107   2.574   4.894   8.550
90092SOL     OW72108   2.702   4.107   4.561
90092SOL    HW172109   2.757   4.129   4.636
90092SOL    HW272110   2.624   4.162   4.572
90093SOL     OW72111   8.631  11.817  13.942
90093SOL    HW172112   8.678  11.751  13.994
90093SOL    HW272113   8.639  11.898  13.993
90094SOL     OW72114   1.100  11.315  11.769
90094SOL    HW172115   1.007  11.336  11.773
90094SOL    HW272116   1.121  11.279  11.855
90095SOL     OW72117   4.097   5.884   0.435
90095SOL    HW172118   4.082   5.828   0.511
90095SOL    HW272119   4.084   5.825   0.360
90096SOL     OW72120   7.996   0.028   3.307
90096SOL    HW172121   7.927   0.095   3.298
90096SOL    HW272122   8.051   0.041   3.229
90097SOL     OW72123   1.433   8.668   2.440
90097SOL    HW172124   1.464   8.624   2.519
90097SOL    HW272125   1.342   8.640   2.432
90098SOL     OW72126  13.790   2.661  11.108
90098SOL    HW172127  13.791   2.598  11.181
90098SOL    HW272128  13.869   2.640  11.058
90099SOL     OW72129   8.825   3.476   3.696
90099SOL    HW172130   8.741   3.476   3.650
90099SOL    HW272131   8.803   3.498   3.786
90100SOL     OW72132  10.681  12.533   4.439
90100SOL    HW172133  10.739  12.608   4.456
90100SOL    HW272134  10.641  12.514   4.524
90101SOL     OW72135   0.480   5.276  10.918
90101SOL    HW172136   0.566   5.260  10.958
90101SOL    HW272137   0.455   5.192  10.879
90102SOL     OW72138  13.373   8.030   3.864
90102SOL    HW172139  13.461   8.064   3.849
90102SOL    HW272140  13.357   7.971   3.791
90103SOL     OW72141   0.222  12.917   3.627
90103SOL    HW172142   0.131  12.946   3.641
90103SOL    HW272143   0.214  12.826   3.598
90104SOL     OW72144   5.228  14.733   1.269
90104SOL    HW172145   5.171  14.809   1.281
90104SOL    HW272146   5.199  14.695   1.187
90105SOL     OW72147   5.048   2.391   4.319
90105SOL    HW172148   5.122   2.447   4.296
90105SOL    HW272149   5.088   2.307   4.340
90106SOL     OW72150   1.815   6.236   2.548
90106SOL    HW172151   1.840   6.329   2.546
90106SOL    HW272152   1.885   6.194   2.598
90107SOL     OW72153   1.991   1.472  13.028
90107SOL    HW172154   2.011   1.407  13.095
90107SOL    HW272155   1.903   1.450  12.998
90108SOL     OW72156   5.223   5.451   1.972
90108SOL    HW172157   5.163   5.391   2.017
90108SOL    HW272158   5.173   5.484   1.898
90109SOL     OW72159   9.252  11.399   2.950
90109SOL    HW172160   9.247  11.304   2.935
90109SOL    HW272161   9.336  11.412   2.993
90110SOL     OW72162   7.555  12.037   0.910
90110SOL    HW172163   7.560  12.094   0.987
90110SOL    HW272164   7.632  11.982   0.916
90111SOL     OW72165  10.786   4.319   3.770
90111SOL    HW172166  10.793   4.399   3.719
90111SOL    HW272167  10.717   4.268   3.727
90112SOL     OW72168   2.205  14.789   2.191
90112SOL    HW172169   2.112  14.769   2.181
90112SOL    HW272170   2.210   0.011   2.190
90113SOL     OW72171   3.404   1.087  11.067
90113SOL    HW172172   3.378   1.178  11.057
90113SOL    HW272173   3.334   1.047  11.118
90114SOL     OW72174   2.683   7.198   3.007
90114SOL    HW172175   2.610   7.194   3.068
90114SOL    HW272176   2.760   7.211   3.063
90115SOL     OW72177   9.725   3.067   0.176
90115SOL    HW172178   9.792   3.024   0.124
90115SOL    HW272179   9.650   3.007   0.175
90116SOL     OW72180   6.582  11.268   3.888
90116SOL    HW172181   6.509  11.241   3.944
90116SOL    HW272182   6.569  11.217   3.807
90117SOL     OW72183   3.162   8.250   9.068
90117SOL    HW172184   3.220   8.190   9.020
90117SOL    HW272185   3.149   8.207   9.153
90118SOL     OW72186   4.039   5.343  10.077
90118SOL    HW172187   3.990   5.316  10.155
90118SOL    HW272188   4.030   5.438  10.076
90119SOL     OW72189   4.374   8.823  14.559
90119SOL    HW172190   4.302   8.774  14.519
90119SOL    HW272191   4.336   8.909  14.579
90120SOL     OW72192   4.887   9.358  10.196
90120SOL    HW172193   4.877   9.452  10.185
90120SOL    HW272194   4.941   9.331  10.121
90121SOL     OW72195   1.020  12.469   9.033
90121SOL    HW172196   0.968  12.537   8.991
90121SOL    HW272197   0.960  12.395   9.041
90122SOL     OW72198   0.020   9.347  11.649
90122SOL    HW172199   0.025   9.409  11.576
90122SOL    HW272200  14.800   9.346  11.673
90123SOL     OW72201   0.909  14.505   6.391
90123SOL    HW172202   0.833  14.522   6.446
90123SOL    HW272203   0.919  14.584   6.338
90124SOL     OW72204   0.786  14.682  10.808
90124SOL    HW172205   0.788  14.777  10.796
90124SOL    HW272206   0.741  14.649  10.730
90125SOL     OW72207  13.058   7.176  13.955
90125SOL    HW172208  12.984   7.236  13.956
90125SOL    HW272209  13.072   7.156  13.862
90126SOL     OW72210  14.117  12.290  14.401
90126SOL    HW172211  14.180  12.329  14.461
90126SOL    HW272212  14.154  12.205  14.379
90127SOL     OW72213  13.721   8.953  13.167
90127SOL    HW172214  13.652   9.019  13.173
90127SOL    HW272215  13.802   9.003  13.174
90128SOL     OW72216   2.429  12.739   7.833
90128SOL    HW172217   2.430  12.732   7.928
90128SOL    HW272218   2.339  12.719   7.808
90129SOL     OW72219  14.382  12.664  12.495
90129SOL    HW172220  14.475  12.683  12.508
90129SOL    HW272221  14.357  12.717  12.420
90130SOL     OW72222   5.119   5.545  14.281
90130SOL    HW172223   5.040   5.583  14.321
90130SOL    HW272224   5.085   5.479  14.220
90131SOL     OW72225  10.976  14.616  10.432
90131SOL    HW172226  10.993  14.633  10.525
90131SOL    HW272227  10.948  14.525  10.429
90132SOL     OW72228   7.581  13.211   6.384
90132SOL    HW172229   7.542  13.262   6.456
90132SOL    HW272230   7.532  13.129   6.384
90133SOL     OW72231   3.534   6.955   8.025
90133SOL    HW172232   3.494   6.949   7.939
90133SOL    HW272233   3.517   7.045   8.054
90134SOL     OW72234   3.823   8.387   6.577
90134SOL    HW172235   3.868   8.408   6.658
90134SOL    HW272236   3.889   8.401   6.509
90135SOL     OW72237   1.689   3.311   8.580
90135SOL    HW172238   1.758   3.349   8.525
90135SOL    HW272239   1.626   3.274   8.518
90136SOL     OW72240   7.816   2.110   9.968
90136SOL    HW172241   7.740   2.081   9.919
90136SOL    HW272242   7.892   2.079   9.918
90137SOL     OW72243   0.157   6.840   6.555
90137SOL    HW172244   0.156   6.835   6.651
90137SOL    HW272245   0.224   6.778   6.528
90138SOL     OW72246   5.157  14.233   1.276
90138SOL    HW172247   5.105  14.303   1.316
90138SOL    HW272248   5.148  14.249   1.182
90139SOL     OW72249  12.904  12.791   1.121
90139SOL    HW172250  12.928  12.828   1.206
90139SOL    HW272251  12.963  12.833   1.059
90140SOL     OW72252   0.253   2.279  14.496
90140SOL    HW172253   0.230   2.269  14.589
90140SOL    HW272254   0.168   2.281  14.451
90141SOL     OW72255   9.542   6.744   0.487
90141SOL    HW172256   9.594   6.824   0.494
90141SOL    HW272257   9.489   6.755   0.409
90142SOL     OW72258  12.713   1.359   4.409
90142SOL    HW172259  12.761   1.279   4.388
90142SOL    HW272260  12.738   1.420   4.339
90143SOL     OW72261   1.067  11.795  10.226
90143SOL    HW172262   1.115  11.736  10.285
90143SOL    HW272263   1.135  11.852  10.189
90144SOL     OW72264   7.258   8.532  10.915
90144SOL    HW172265   7.209   8.546  10.833
90144SOL    HW272266   7.192   8.503  10.978
90145SOL     OW72267   9.632   3.047  13.356
90145SOL    HW172268   9.542   3.035  13.326
90145SOL    HW272269   9.630   3.127  13.408
90146SOL     OW72270   7.083   2.205   1.188
90146SOL    HW172271   7.006   2.151   1.169
90146SOL    HW272272   7.139   2.148   1.241
90147SOL     OW72273  14.145   1.996   3.346
90147SOL    HW172274  14.105   1.913   3.369
90147SOL    HW272275  14.188   1.981   3.262
90148SOL     OW72276   3.568   3.499  12.516
90148SOL    HW172277   3.514   3.562  12.564
90148SOL    HW272278   3.637   3.553  12.476
90149SOL     OW72279  12.052   5.783  14.030
90149SOL    HW172280  12.068   5.690  14.013
90149SOL    HW272281  12.016   5.817  13.948
90150SOL     OW72282   3.499   1.811   0.796
90150SOL    HW172283   3.552   1.888   0.817
90150SOL    HW272284   3.562   1.746   0.766
90151SOL     OW72285   6.222  13.154  13.633
90151SOL    HW172286   6.249  13.244  13.615
90151SOL    HW272287   6.221  13.112  13.547
90152SOL     OW72288   6.609   8.440   4.729
90152SOL    HW172289   6.518   8.432   4.701
90152SOL    HW272290   6.644   8.351   4.722
90153SOL     OW72291   8.999   4.149   1.632
90153SOL    HW172292   9.059   4.080   1.604
90153SOL    HW272293   9.030   4.174   1.719
90154SOL     OW72294  12.255   7.500   3.257
90154SOL    HW172295  12.273   7.565   3.325
90154SOL    HW272296  12.165   7.472   3.275
90155SOL     OW72297  11.458  12.070  12.367
90155SOL    HW172298  11.544  12.056  12.407
90155SOL    HW272299  11.396  12.031  12.428
90156SOL     OW72300   5.192   4.895  14.586
90156SOL    HW172301   5.176   4.987  14.609
90156SOL    HW272302   5.282   4.895  14.553
90157SOL     OW72303  13.874   9.995  13.810
90157SOL    HW172304  13.843   9.905  13.795
90157SOL    HW272305  13.796  10.049  13.804
90158SOL     OW72306   9.667  13.244   8.674
90158SOL    HW172307   9.663  13.212   8.765
90158SOL    HW272308   9.579  13.229   8.640
90159SOL     OW72309   3.689  13.812   6.048
90159SOL    HW172310   3.613  13.845   6.000
90159SOL    HW272311   3.760  13.812   5.984
90160SOL     OW72312   0.020  12.132  10.142
90160SOL    HW172313  14.845  12.120  10.224
90160SOL    HW272314   0.111  12.146  10.169
90161SOL     OW72315   6.544   5.185   7.172
90161SOL    HW172316   6.584   5.272   7.177
90161SOL    HW272317   6.619   5.125   7.167
90162SOL     OW72318   8.610   7.761   2.374
90162SOL    HW172319   8.672   7.811   2.427
90162SOL    HW272320   8.573   7.826   2.314
90163SOL     OW72321  10.681  13.741  12.976
90163SOL    HW172322  10.595  13.725  13.015
90163SOL    HW272323  10.702  13.831  13.000
90164SOL     OW72324   1.755   0.719   7.384
90164SOL    HW172325   1.746   0.795   7.441
90164SOL    HW272326   1.848   0.698   7.385
90165SOL     OW72327   5.097   1.887  11.305
90165SOL    HW172328   5.090   1.795  11.279
90165SOL    HW272329   5.174   1.891  11.361
90166SOL     OW72330   6.370  11.958  11.563
90166SOL    HW172331   6.390  12.011  11.486
90166SOL    HW272332   6.278  11.933  11.551
90167SOL     OW72333   0.034   8.062   2.153
90167SOL    HW172334   0.120   8.033   2.184
90167SOL    HW272335  14.864   8.099   2.230
90168SOL     OW72336   6.363  10.053  10.821
90168SOL    HW172337   6.268  10.041  10.827
90168SOL    HW272338   6.376  10.092  10.735
90169SOL     OW72339   3.261   5.928  12.955
90169SOL    HW172340   3.327   5.881  13.007
90169SOL    HW272341   3.213   5.858  12.909
90170SOL     OW72342   2.911   3.242   5.478
90170SOL    HW172343   2.957   3.242   5.395
90170SOL    HW272344   2.976   3.273   5.542
90171SOL     OW72345   7.612  13.344   9.492
90171SOL    HW172346   7.680  13.279   9.510
90171SOL    HW272347   7.653  13.406   9.432
90172SOL     OW72348  14.061   9.112  11.160
90172SOL    HW172349  13.979   9.141  11.121
90172SOL    HW272350  14.035   9.071  11.243
90173SOL     OW72351   7.602   2.053   2.788
90173SOL    HW172352   7.519   2.008   2.773
90173SOL    HW272353   7.639   2.012   2.866
90174SOL     OW72354  13.409   2.423  13.866
90174SOL    HW172355  13.471   2.367  13.913
90174SOL    HW272356  13.367   2.475  13.935
90175SOL     OW72357   8.691   4.751   5.926
90175SOL    HW172358   8.668   4.695   6.000
90175SOL    HW272359   8.606   4.780   5.891
90176SOL     OW72360   8.478   0.404   3.611
90176SOL    HW172361   8.470   0.461   3.534
90176SOL    HW272362   8.554   0.349   3.592
90177SOL     OW72363  13.629   6.975   4.902
90177SOL    HW172364  13.696   6.933   4.956
90177SOL    HW272365  13.554   6.985   4.960
90178SOL     OW72366  12.185  13.440   7.132
90178SOL    HW172367  12.229  13.421   7.050
90178SOL    HW272368  12.097  13.467   7.106
90179SOL     OW72369  14.369  14.863   5.215
90179SOL    HW172370  14.364  14.827   5.304
90179SOL    HW272371  14.459  14.845   5.187
90180SOL     OW72372  13.895   1.425  14.843
90180SOL    HW172373  13.913   1.422  14.749
90180SOL    HW272374  13.961   1.369   0.009
90181SOL     OW72375   0.393   3.851  10.822
90181SOL    HW172376   0.455   3.794  10.867
90181SOL    HW272377   0.410   3.938  10.858
90182SOL     OW72378   5.572   8.245   2.236
90182SOL    HW172379   5.512   8.255   2.310
90182SOL    HW272380   5.613   8.331   2.225
90183SOL     OW72381   3.273   1.717   7.379
90183SOL    HW172382   3.194   1.714   7.433
90183SOL    HW272383   3.342   1.748   7.439
90184SOL     OW72384   4.251   7.286   6.394
90184SOL    HW172385   4.267   7.239   6.476
90184SOL    HW272386   4.173   7.339   6.412
90185SOL     OW72387  14.056   3.269   3.531
90185SOL    HW172388  13.965   3.298   3.522
90185SOL    HW272389  14.057   3.216   3.611
90186SOL     OW72390   1.614   1.073  13.311
90186SOL    HW172391   1.639   1.001  13.253
90186SOL    HW272392   1.695   1.098  13.355
90187SOL     OW72393  12.454   6.483   7.533
90187SOL    HW172394  12.411   6.462   7.616
90187SOL    HW272395  12.411   6.563   7.502
90188SOL     OW72396  13.435   4.600   0.064
90188SOL    HW172397  13.352   4.581   0.108
90188SOL    HW272398  13.417   4.678   0.011
90189SOL     OW72399  11.198  10.427   1.521
90189SOL    HW172400  11.158  10.368   1.585
90189SOL    HW272401  11.124  10.463   1.472
90190SOL     OW72402  12.724   6.726   6.956
90190SOL    HW172403  12.676   6.788   6.901
90190SOL    HW272404  12.794   6.778   6.995
90191SOL     OW72405   3.660  10.470   9.259
90191SOL    HW172406   3.603  10.427   9.195
90191SOL    HW272407   3.691  10.549   9.215
90192SOL     OW72408   7.496   0.815   0.994
90192SOL    HW172409   7.437   0.864   0.937
90192SOL    HW272410   7.459   0.726   0.997
90193SOL     OW72411   2.324  11.507  11.317
90193SOL    HW172412   2.353  11.598  11.312
90193SOL    HW272413   2.234  11.512  11.349
90194SOL     OW72414  11.323   3.627   9.257
90194SOL    HW172415  11.350   3.705   9.306
90194SOL    HW272416  11.262   3.660   9.192
90195SOL     OW72417   9.548   2.697  13.980
90195SOL    HW172418   9.523   2.725  14.068
90195SOL    HW272419   9.579   2.607  13.992
90196SOL     OW72420   9.364   1.347   4.425
90196SOL    HW172421   9.270   1.332   4.439
90196SOL    HW272422   9.394   1.390   4.505
90197SOL     OW72423   6.091  12.277   8.263
90197SOL    HW172424   6.075  12.282   8.357
90197SOL    HW272425   6.112  12.185   8.247
90198SOL     OW72426   8.806  14.678   3.592
90198SOL    HW172427   8.786  14.757   3.541
90198SOL    HW272428   8.874  14.634   3.541
90199SOL     OW72429   1.570   7.244   0.948
90199SOL    HW172430   1.659   7.279   0.938
90199SOL    HW272431   1.514   7.309   0.905
90200SOL     OW72432  11.273   9.527   0.982
90200SOL    HW172433  11.304   9.494   1.067
90200SOL    HW272434  11.335   9.596   0.959
90201SOL     OW72435   3.756  14.634  14.682
90201SOL    HW172436   3.804  14.687  14.618
90201SOL    HW272437   3.702  14.575  14.629
90202SOL     OW72438   4.425   4.607  13.192
90202SOL    HW172439   4.354   4.577  13.248
90202SOL    HW272440   4.463   4.682  13.239
90203SOL     OW72441   0.100   1.470   3.938
90203SOL    HW172442   0.116   1.393   3.882
90203SOL    HW272443   0.005   1.470   3.951
90204SOL     OW72444  10.430  14.620   6.864
90204SOL    HW172445  10.437  14.610   6.959
90204SOL    HW272446  10.516  14.593   6.831
90205SOL     OW72447  10.924   0.125   8.091
90205SOL    HW172448  10.866   0.200   8.098
90205SOL    HW272449  10.987   0.149   8.023
90206SOL     OW72450   0.894   8.855  13.290
90206SOL    HW172451   0.882   8.902  13.373
90206SOL    HW272452   0.987   8.835  13.287
90207SOL     OW72453   9.510  12.421   1.262
90207SOL    HW172454   9.504  12.512   1.235
90207SOL    HW272455   9.493  12.371   1.181
90208SOL     OW72456   4.717  14.425   1.367
90208SOL    HW172457   4.796  14.456   1.322
90208SOL    HW272458   4.647  14.435   1.303
90209SOL     OW72459   9.914  13.901  14.508
90209SOL    HW172460   9.895  13.849  14.586
90209SOL    HW272461   9.959  13.979  14.541
90210SOL     OW72462   8.520  13.333   6.169
90210SOL    HW172463   8.429  13.302   6.174
90210SOL    HW272464   8.571  13.266   6.214
90211SOL     OW72465  14.599   5.410   6.404
90211SOL    HW172466  14.674   5.456   6.367
90211SOL    HW272467  14.566   5.356   6.331
90212SOL     OW72468   0.423   3.463   5.609
90212SOL    HW172469   0.399   3.375   5.639
90212SOL    HW272470   0.487   3.494   5.673
90213SOL     OW72471   2.927   9.977  10.451
90213SOL    HW172472   3.014   9.971  10.410
90213SOL    HW272473   2.924  10.063  10.491
90214SOL     OW72474   7.505  11.408  10.298
90214SOL    HW172475   7.441  11.347  10.333
90214SOL    HW272476   7.590  11.370  10.321
90215SOL     OW72477   3.546  12.809  12.578
90215SOL    HW172478   3.512  12.725  12.548
90215SOL    HW272479   3.493  12.830  12.655
90216SOL     OW72480   6.551  11.280  12.292
90216SOL    HW172481   6.469  11.232  12.281
90216SOL    HW272482   6.525  11.372  12.298
90217SOL     OW72483   6.323   7.301  12.298
90217SOL    HW172484   6.244   7.349  12.272
90217SOL    HW272485   6.338   7.327  12.389
90218SOL     OW72486  11.277   0.244  14.518
90218SOL    HW172487  11.184   0.244  14.496
90218SOL    HW272488  11.314   0.171  14.469
90219SOL     OW72489   8.771  14.201   6.294
90219SOL    HW172490   8.798  14.116   6.260
90219SOL    HW272491   8.845  14.259   6.276
90220SOL     OW72492  14.859   8.205   7.610
90220SOL    HW172493  14.800   8.129   7.613
90220SOL    HW272494  14.869   8.224   7.516
90221SOL     OW72495   8.326   1.665   3.089
90221SOL    HW172496   8.342   1.579   3.128
90221SOL    HW272497   8.335   1.650   2.995
90222SOL     OW72498  12.574   0.034  14.403
90222SOL    HW172499  12.592   0.116  14.357
90222SOL    HW272500  12.647   0.025  14.465
90223SOL     OW72501   1.030  12.119  10.273
90223SOL    HW172502   1.063  12.047  10.220
90223SOL    HW272503   1.090  12.192  10.256
90224SOL     OW72504  13.140   3.596   8.139
90224SOL    HW172505  13.083   3.529   8.177
90224SOL    HW272506  13.208   3.610   8.205
90225SOL     OW72507  13.044   6.369   6.005
90225SOL    HW172508  12.952   6.386   6.025
90225SOL    HW272509  13.092   6.408   6.079
90226SOL     OW72510   5.617  10.611   8.983
90226SOL    HW172511   5.572  10.563   9.053
90226SOL    HW272512   5.552  10.617   8.913
90227SOL     OW72513  10.627  12.814  11.284
90227SOL    HW172514  10.592  12.736  11.242
90227SOL    HW272515  10.636  12.790  11.376
90228SOL     OW72516   8.509  11.452  12.708
90228SOL    HW172517   8.433  11.482  12.758
90228SOL    HW272518   8.475  11.382  12.653
90229SOL     OW72519   8.411   0.737  12.780
90229SOL    HW172520   8.461   0.720  12.860
90229SOL    HW272521   8.422   0.657  12.728
90230SOL     OW72522  12.838  11.779  14.381
90230SOL    HW172523  12.840  11.835  14.458
90230SOL    HW272524  12.853  11.690  14.415
90231SOL     OW72525   7.054   7.884   2.406
90231SOL    HW172526   7.140   7.842   2.417
90231SOL    HW272527   7.064   7.970   2.449
90232SOL     OW72528   1.037   2.273  12.698
90232SOL    HW172529   0.947   2.275  12.730
90232SOL    HW272530   1.070   2.187  12.724
90233SOL     OW72531   5.663   9.614   0.987
90233SOL    HW172532   5.636   9.700   1.017
90233SOL    HW272533   5.632   9.609   0.897
90234SOL     OW72534   3.277   6.590  10.351
90234SOL    HW172535   3.208   6.650  10.323
90234SOL    HW272536   3.234   6.504  10.354
90235SOL     OW72537  12.823  14.419   1.895
90235SOL    HW172538  12.783  14.404   1.981
90235SOL    HW272539  12.804  14.340   1.845
90236SOL     OW72540   3.007   9.119  11.412
90236SOL    HW172541   3.049   9.200  11.384
90236SOL    HW272542   3.006   9.125  11.508
90237SOL     OW72543   7.358   2.767   3.166
90237SOL    HW172544   7.350   2.785   3.260
90237SOL    HW272545   7.303   2.690   3.152
90238SOL     OW72546   2.242   5.751   8.228
90238SOL    HW172547   2.227   5.718   8.316
90238SOL    HW272548   2.308   5.692   8.192
90239SOL     OW72549   1.971  12.213  10.335
90239SOL    HW172550   1.893  12.171  10.299
90239SOL    HW272551   1.938  12.294  10.375
90240SOL     OW72552   9.203   9.848  10.709
90240SOL    HW172553   9.216   9.861  10.615
90240SOL    HW272554   9.257   9.916  10.750
90241SOL     OW72555  12.793   5.252   9.782
90241SOL    HW172556  12.849   5.179   9.809
90241SOL    HW272557  12.745   5.218   9.706
90242SOL     OW72558  12.726   3.531   8.069
90242SOL    HW172559  12.751   3.539   7.977
90242SOL    HW272560  12.631   3.544   8.069
90243SOL     OW72561  11.421   5.479   5.554
90243SOL    HW172562  11.489   5.445   5.613
90243SOL    HW272563  11.339   5.455   5.597
90244SOL     OW72564   4.330   5.225  12.075
90244SOL    HW172565   4.406   5.228  12.133
90244SOL    HW272566   4.315   5.132  12.059
90245SOL     OW72567   7.231   2.013   7.508
90245SOL    HW172568   7.159   2.063   7.546
90245SOL    HW272569   7.299   2.012   7.576
90246SOL     OW72570  14.446  14.566  13.127
90246SOL    HW172571  14.376  14.627  13.151
90246SOL    HW272572  14.526  14.613  13.148
90247SOL     OW72573  12.718   4.426   9.859
90247SOL    HW172574  12.779   4.400   9.790
90247SOL    HW272575  12.759   4.503   9.900
90248SOL     OW72576   7.918   7.557   5.015
90248SOL    HW172577   7.873   7.510   5.085
90248SOL    HW272578   7.848   7.585   4.956
90249SOL     OW72579   4.755  10.700  11.534
90249SOL    HW172580   4.697  10.627  11.513
90249SOL    HW272581   4.778  10.686  11.626
90250SOL     OW72582   3.602   6.496   3.420
90250SOL    HW172583   3.545   6.524   3.491
90250SOL    HW272584   3.689   6.488   3.460
90251SOL     OW72585   6.040   2.764   5.269
90251SOL    HW172586   6.085   2.794   5.348
90251SOL    HW272587   5.974   2.703   5.300
90252SOL     OW72588   2.055   5.275  11.799
90252SOL    HW172589   1.985   5.322  11.844
90252SOL    HW272590   2.094   5.220  11.867
90253SOL     OW72591  13.187   8.127   9.290
90253SOL    HW172592  13.136   8.095   9.364
90253SOL    HW272593  13.182   8.223   9.297
90254SOL     OW72594   2.658   3.096   8.732
90254SOL    HW172595   2.726   3.033   8.755
90254SOL    HW272596   2.634   3.073   8.642
90255SOL     OW72597   2.952   4.758   9.527
90255SOL    HW172598   2.948   4.742   9.433
90255SOL    HW272599   3.045   4.773   9.544
90256SOL     OW72600  10.924  13.768   1.853
90256SOL    HW172601  10.968  13.705   1.910
90256SOL    HW272602  10.837  13.779   1.892
90257SOL     OW72603   8.931   8.002   4.212
90257SOL    HW172604   8.847   7.978   4.172
90257SOL    HW272605   8.960   7.922   4.256
90258SOL     OW72606   2.459  13.849   9.626
90258SOL    HW172607   2.551  13.864   9.649
90258SOL    HW272608   2.429  13.784   9.690
90259SOL     OW72609   7.976   4.639   9.664
90259SOL    HW172610   7.913   4.626   9.593
90259SOL    HW272611   7.936   4.706   9.719
90260SOL     OW72612   2.932   3.664   1.694
90260SOL    HW172613   2.970   3.611   1.624
90260SOL    HW272614   2.969   3.752   1.681
90261SOL     OW72615   4.981   3.724   7.947
90261SOL    HW172616   4.915   3.784   7.983
90261SOL    HW272617   4.989   3.655   8.012
90262SOL     OW72618   6.595  11.190   5.646
90262SOL    HW172619   6.567  11.159   5.732
90262SOL    HW272620   6.517  11.179   5.590
90263SOL     OW72621   8.806  14.162   7.786
90263SOL    HW172622   8.755  14.243   7.793
90263SOL    HW272623   8.897  14.191   7.788
90264SOL     OW72624  10.454  11.125  12.070
90264SOL    HW172625  10.543  11.135  12.036
90264SOL    HW272626  10.466  11.100  12.162
90265SOL     OW72627  10.392   3.359  11.643
90265SOL    HW172628  10.354   3.271  11.648
90265SOL    HW272629  10.372   3.387  11.553
90266SOL     OW72630  13.053   3.251   8.074
90266SOL    HW172631  13.010   3.166   8.090
90266SOL    HW272632  13.003   3.313   8.127
90267SOL     OW72633   6.405  12.221  10.251
90267SOL    HW172634   6.414  12.292  10.187
90267SOL    HW272635   6.377  12.146  10.199
90268SOL     OW72636   3.167  14.457  11.241
90268SOL    HW172637   3.101  14.394  11.209
90268SOL    HW272638   3.143  14.540  11.199
90269SOL     OW72639   9.314   4.442  12.741
90269SOL    HW172640   9.247   4.377  12.762
90269SOL    HW272641   9.386   4.390  12.704
90270SOL     OW72642   4.884   2.113   9.878
90270SOL    HW172643   4.868   2.158   9.961
90270SOL    HW272644   4.797   2.097   9.842
90271SOL     OW72645   4.475   4.490   4.873
90271SOL    HW172646   4.531   4.554   4.917
90271SOL    HW272647   4.399   4.540   4.843
90272SOL     OW72648  12.382   1.162   2.994
90272SOL    HW172649  12.354   1.072   2.978
90272SOL    HW272650  12.372   1.175   3.088
90273SOL     OW72651   2.844   4.720   7.366
90273SOL    HW172652   2.821   4.668   7.289
90273SOL    HW272653   2.880   4.801   7.330
90274SOL     OW72654  10.068   0.981  13.830
90274SOL    HW172655  10.073   1.069  13.792
90274SOL    HW272656  10.079   0.994  13.924
90275SOL     OW72657   9.267   7.868  12.184
90275SOL    HW172658   9.285   7.774  12.185
90275SOL    HW272659   9.247   7.888  12.093
90276SOL     OW72660  13.001   1.212  12.422
90276SOL    HW172661  13.058   1.284  12.393
90276SOL    HW272662  12.923   1.220  12.367
90277SOL     OW72663   2.369   5.649  10.361
90277SOL    HW172664   2.327   5.705  10.296
90277SOL    HW272665   2.340   5.561  10.339
90278SOL     OW72666   8.304   7.124  13.381
90278SOL    HW172667   8.393   7.108  13.411
90278SOL    HW272668   8.276   7.042  13.340
90279SOL     OW72669   4.557   9.606   2.451
90279SOL    HW172670   4.539   9.588   2.544
90279SOL    HW272671   4.634   9.554   2.430
90280SOL     OW72672  11.326   4.172   4.139
90280SOL    HW172673  11.245   4.206   4.177
90280SOL    HW272674  11.297   4.107   4.075
90281SOL     OW72675   3.403   3.936   3.955
90281SOL    HW172676   3.317   3.969   3.981
90281SOL    HW272677   3.385   3.877   3.882
90282SOL     OW72678  12.663   7.243   6.843
90282SOL    HW172679  12.644   7.156   6.809
90282SOL    HW272680  12.719   7.228   6.919
90283SOL     OW72681   0.506  12.640   5.990
90283SOL    HW172682   0.417  12.677   5.995
90283SOL    HW272683   0.543  12.677   5.910
90284SOL     OW72684   5.076   2.792  12.844
90284SOL    HW172685   5.023   2.864  12.879
90284SOL    HW272686   5.166   2.814  12.869
90285SOL     OW72687   9.459   0.658  13.567
90285SOL    HW172688   9.533   0.650  13.627
90285SOL    HW272689   9.385   0.623  13.617
90286SOL     OW72690  11.101  10.416   6.650
90286SOL    HW172691  11.132  10.398   6.739
90286SOL    HW272692  11.074  10.508   6.652
90287SOL     OW72693  14.118   9.218   2.184
90287SOL    HW172694  14.123   9.123   2.172
90287SOL    HW272695  14.051   9.231   2.251
90288SOL     OW72696   1.795   7.065   2.372
90288SOL    HW172697   1.734   7.118   2.424
90288SOL    HW272698   1.879   7.109   2.383
90289SOL     OW72699   6.462   1.597   2.327
90289SOL    HW172700   6.423   1.680   2.352
90289SOL    HW272701   6.465   1.546   2.408
90290SOL     OW72702  12.870   0.583   7.568
90290SOL    HW172703  12.888   0.563   7.476
90290SOL    HW272704  12.827   0.668   7.566
90291SOL     OW72705   3.621   4.871   3.094
90291SOL    HW172706   3.688   4.848   3.159
90291SOL    HW272707   3.541   4.881   3.144
90292SOL     OW72708   3.441   1.561  12.120
90292SOL    HW172709   3.351   1.559  12.150
90292SOL    HW272710   3.483   1.485  12.163
90293SOL     OW72711  12.193  10.830   9.803
90293SOL    HW172712  12.275  10.810   9.757
90293SOL    HW272713  12.150  10.897   9.748
90294SOL     OW72714   5.917  11.753   9.272
90294SOL    HW172715   5.861  11.828   9.252
90294SOL    HW272716   6.005  11.788   9.273
90295SOL     OW72717   1.788   3.062   0.135
90295SOL    HW172718   1.807   3.011   0.056
90295SOL    HW272719   1.704   3.029   0.165
90296SOL     OW72720   6.794  10.887   2.023
90296SOL    HW172721   6.823  10.979   2.023
90296SOL    HW272722   6.857  10.843   1.965
90297SOL     OW72723  12.108   6.196   3.751
90297SOL    HW172724  12.157   6.114   3.745
90297SOL    HW272725  12.042   6.178   3.819
90298SOL     OW72726  14.716   9.227  12.037
90298SOL    HW172727  14.767   9.274  12.103
90298SOL    HW272728  14.776   9.158  12.006
90299SOL     OW72729   7.087  12.543   6.891
90299SOL    HW172730   7.081  12.489   6.970
90299SOL    HW272731   7.024  12.503   6.831
90300SOL     OW72732   4.686  13.472  10.089
90300SOL    HW172733   4.621  13.514  10.146
90300SOL    HW272734   4.689  13.381  10.118
90301SOL     OW72735  10.501   3.391  14.822
90301SOL    HW172736  10.557   3.463  14.851
90301SOL    HW272737  10.560   3.317  14.812
90302SOL     OW72738   4.326   6.502   1.962
90302SOL    HW172739   4.315   6.596   1.950
90302SOL    HW272740   4.279   6.482   2.043
90303SOL     OW72741   3.922   0.037  11.092
90303SOL    HW172742   3.888  14.871  11.012
90303SOL    HW272743   3.972  14.838  11.133
90304SOL     OW72744   7.650  13.710   2.269
90304SOL    HW172745   7.743  13.730   2.257
90304SOL    HW272746   7.649  13.638   2.332
90305SOL     OW72747   4.038   0.291   6.177
90305SOL    HW172748   3.965   0.260   6.123
90305SOL    HW272749   4.029   0.243   6.260
90306SOL     OW72750   0.625   6.536   1.820
90306SOL    HW172751   0.719   6.519   1.809
90306SOL    HW272752   0.620   6.631   1.830
90307SOL     OW72753  13.703   4.572  11.140
90307SOL    HW172754  13.705   4.642  11.075
90307SOL    HW272755  13.789   4.576  11.183
90308SOL     OW72756  14.867   9.240  10.150
90308SOL    HW172757  14.814   9.315  10.122
90308SOL    HW272758  14.825   9.211  10.230
90309SOL     OW72759   8.519   8.673  10.637
90309SOL    HW172760   8.447   8.615  10.613
90309SOL    HW272761   8.538   8.650  10.728
90310SOL     OW72762   2.176  14.244   9.283
90310SOL    HW172763   2.158  14.150   9.285
90310SOL    HW272764   2.149  14.271   9.195
90311SOL     OW72765   5.671   3.438   3.273
90311SOL    HW172766   5.577   3.417   3.267
90311SOL    HW272767   5.703   3.424   3.184
90312SOL     OW72768   3.758   7.016  10.128
90312SOL    HW172769   3.831   7.074  10.152
90312SOL    HW272770   3.789   6.928  10.150
90313SOL     OW72771   8.963  13.798   1.934
90313SOL    HW172772   9.015  13.722   1.909
90313SOL    HW272773   8.874  13.765   1.944
90314SOL     OW72774   7.201  10.966  11.817
90314SOL    HW172775   7.166  11.018  11.744
90314SOL    HW272776   7.147  10.887  11.818
90315SOL     OW72777  14.279  12.447   0.934
90315SOL    HW172778  14.218  12.512   0.968
90315SOL    HW272779  14.358  12.497   0.914
90316SOL     OW72780   9.250  12.980   7.598
90316SOL    HW172781   9.317  12.915   7.578
90316SOL    HW272782   9.295  13.064   7.585
90317SOL     OW72783   1.773   5.469  13.876
90317SOL    HW172784   1.684   5.489  13.906
90317SOL    HW272785   1.781   5.517  13.794
90318SOL     OW72786   9.698   9.898   6.440
90318SOL    HW172787   9.636   9.919   6.509
90318SOL    HW272788   9.676   9.958   6.368
90319SOL     OW72789   8.472   8.989  13.393
90319SOL    HW172790   8.500   9.045  13.320
90319SOL    HW272791   8.377   8.983  13.384
90320SOL     OW72792  14.582   2.291   2.397
90320SOL    HW172793  14.668   2.271   2.434
90320SOL    HW272794  14.522   2.232   2.443
90321SOL     OW72795  11.958   1.368  11.587
90321SOL    HW172796  11.865   1.347  11.599
90321SOL    HW272797  12.000   1.283  11.570
90322SOL     OW72798   0.730   2.490  13.397
90322SOL    HW172799   0.791   2.416  13.404
90322SOL    HW272800   0.786   2.567  13.401
90323SOL     OW72801  12.768   0.279   6.234
90323SOL    HW172802  12.812   0.197   6.257
90323SOL    HW272803  12.839   0.343   6.229
90324SOL     OW72804   7.683   9.857   8.141
90324SOL    HW172805   7.741   9.786   8.168
90324SOL    HW272806   7.707   9.874   8.050
90325SOL     OW72807  12.863   6.196   8.071
90325SOL    HW172808  12.879   6.268   8.133
90325SOL    HW272809  12.938   6.197   8.012
90326SOL     OW72810  13.634  10.086  10.679
90326SOL    HW172811  13.541  10.097  10.696
90326SOL    HW272812  13.646   9.992  10.667
90327SOL     OW72813   7.117   2.971   7.272
90327SOL    HW172814   7.201   2.927   7.259
90327SOL    HW272815   7.103   3.022   7.192
90328SOL     OW72816   7.245   2.473   7.664
90328SOL    HW172817   7.244   2.536   7.591
90328SOL    HW272818   7.156   2.475   7.698
90329SOL     OW72819   0.088   2.560   6.844
90329SOL    HW172820   0.009   2.593   6.802
90329SOL    HW272821   0.158   2.616   6.811
90330SOL     OW72822  14.078   8.724   3.882
90330SOL    HW172823  14.010   8.704   3.818
90330SOL    HW272824  14.092   8.818   3.874
90331SOL     OW72825  13.027  12.561   0.501
90331SOL    HW172826  13.109  12.514   0.516
90331SOL    HW272827  12.959  12.494   0.504
90332SOL     OW72828   3.317  14.333   3.883
90332SOL    HW172829   3.362  14.371   3.959
90332SOL    HW272830   3.351  14.382   3.808
90333SOL     OW72831  10.440  12.062   5.595
90333SOL    HW172832  10.499  12.107   5.535
90333SOL    HW272833  10.498  12.024   5.661
90334SOL     OW72834   5.450   6.383   6.499
90334SOL    HW172835   5.452   6.460   6.556
90334SOL    HW272836   5.384   6.403   6.433
90335SOL     OW72837   1.051   9.409   8.441
90335SOL    HW172838   1.005   9.346   8.497
90335SOL    HW272839   1.078   9.358   8.365
90336SOL     OW72840   3.081   0.618   3.857
90336SOL    HW172841   3.036   0.562   3.794
90336SOL    HW272842   3.105   0.559   3.928
90337SOL     OW72843   0.895  10.027  11.401
90337SOL    HW172844   0.929  10.041  11.312
90337SOL    HW272845   0.800  10.028  11.390
90338SOL     OW72846  13.309   8.379  14.581
90338SOL    HW172847  13.267   8.431  14.514
90338SOL    HW272848  13.308   8.434  14.659
90339SOL     OW72849   1.642   5.362   4.054
90339SOL    HW172850   1.621   5.345   3.962
90339SOL    HW272851   1.737   5.372   4.055
90340SOL     OW72852   1.840   8.916  11.512
90340SOL    HW172853   1.745   8.928  11.515
90340SOL    HW272854   1.862   8.914  11.419
90341SOL     OW72855   8.202   7.053   7.821
90341SOL    HW172856   8.285   7.007   7.829
90341SOL    HW272857   8.154   7.031   7.901
90342SOL     OW72858   1.526  10.854  14.531
90342SOL    HW172859   1.476  10.915  14.585
90342SOL    HW272860   1.511  10.882  14.441
90343SOL     OW72861   1.830  13.821   8.673
90343SOL    HW172862   1.892  13.882   8.712
90343SOL    HW272863   1.878  13.738   8.667
90344SOL     OW72864  10.482   2.020   3.153
90344SOL    HW172865  10.422   1.953   3.186
90344SOL    HW272866  10.539   1.972   3.092
90345SOL     OW72867  10.828   0.200   8.615
90345SOL    HW172868  10.894   0.170   8.677
90345SOL    HW272869  10.761   0.131   8.617
90346SOL     OW72870   1.266  10.169   6.715
90346SOL    HW172871   1.322  10.218   6.654
90346SOL    HW272872   1.210  10.116   6.658
90347SOL     OW72873   8.850   6.375  11.858
90347SOL    HW172874   8.907   6.450  11.840
90347SOL    HW272875   8.910   6.307  11.888
90348SOL     OW72876   9.178  10.089   1.026
90348SOL    HW172877   9.088  10.114   1.005
90348SOL    HW272878   9.220  10.073   0.942
90349SOL     OW72879  10.035  11.654   8.085
90349SOL    HW172880  10.069  11.564   8.086
90349SOL    HW272881  10.008  11.670   8.175
90350SOL     OW72882   9.742   3.235   6.649
90350SOL    HW172883   9.832   3.229   6.617
90350SOL    HW272884   9.692   3.177   6.592
90351SOL     OW72885   8.986  11.730   5.271
90351SOL    HW172886   8.925  11.718   5.344
90351SOL    HW272887   8.972  11.653   5.216
90352SOL     OW72888  13.028   5.845   1.667
90352SOL    HW172889  12.966   5.911   1.636
90352SOL    HW272890  13.068   5.810   1.587
90353SOL     OW72891  10.168   4.089  14.086
90353SOL    HW172892  10.235   4.079  14.018
90353SOL    HW272893  10.104   4.019  14.067
90354SOL     OW72894  12.407   3.274   6.477
90354SOL    HW172895  12.369   3.286   6.564
90354SOL    HW272896  12.492   3.316   6.481
90355SOL     OW72897  11.802  11.421   8.659
90355SOL    HW172898  11.816  11.344   8.715
90355SOL    HW272899  11.735  11.393   8.597
90356SOL     OW72900   0.282   2.680   8.828
90356SOL    HW172901   0.319   2.684   8.916
90356SOL    HW272902   0.319   2.600   8.790
90357SOL     OW72903   0.589   5.716  12.394
90357SOL    HW172904   0.657   5.674  12.448
90357SOL    HW272905   0.560   5.647  12.335
90358SOL     OW72906   3.026   3.363   3.304
90358SOL    HW172907   3.039   3.358   3.399
90358SOL    HW272908   2.954   3.304   3.286
90359SOL     OW72909  11.507  14.541   3.500
90359SOL    HW172910  11.420  14.571   3.527
90359SOL    HW272911  11.495  14.448   3.480
90360SOL     OW72912   5.853  10.036   2.514
90360SOL    HW172913   5.821  10.044   2.425
90360SOL    HW272914   5.836  10.122   2.554
90361SOL     OW72915  11.579   3.056  14.187
90361SOL    HW172916  11.587   3.003  14.107
90361SOL    HW272917  11.484   3.065  14.199
90362SOL     OW72918  12.788  12.780   7.429
90362SOL    HW172919  12.755  12.831   7.355
90362SOL    HW272920  12.709  12.747   7.472
90363SOL     OW72921   7.091   0.773   5.087
90363SOL    HW172922   7.175   0.735   5.063
90363SOL    HW272923   7.064   0.822   5.009
90364SOL     OW72924  11.803  11.365   6.555
90364SOL    HW172925  11.807  11.442   6.498
90364SOL    HW272926  11.818  11.399   6.643
90365SOL     OW72927   2.900  12.948  13.893
90365SOL    HW172928   2.937  12.889  13.827
90365SOL    HW272929   2.857  12.890  13.955
90366SOL     OW72930   0.924   6.638   7.939
90366SOL    HW172931   0.932   6.716   7.884
90366SOL    HW272932   1.006   6.591   7.926
90367SOL     OW72933  10.966   1.443  12.342
90367SOL    HW172934  11.021   1.491  12.403
90367SOL    HW272935  10.898   1.505  12.317
90368SOL     OW72936   4.372  14.586   3.498
90368SOL    HW172937   4.458  14.573   3.457
90368SOL    HW272938   4.387  14.656   3.562
90369SOL     OW72939   7.924  13.585   8.401
90369SOL    HW172940   7.874  13.573   8.320
90369SOL    HW272941   7.941  13.495   8.431
90370SOL     OW72942   2.549   1.146   4.659
90370SOL    HW172943   2.580   1.138   4.750
90370SOL    HW272944   2.470   1.199   4.666
90371SOL     OW72945   2.450   7.975   2.246
90371SOL    HW172946   2.360   7.977   2.213
90371SOL    HW272947   2.502   7.948   2.171
90372SOL     OW72948  14.850   7.705  12.283
90372SOL    HW172949   0.018   7.705  12.196
90372SOL    HW272950   0.045   7.740  12.341
90373SOL     OW72951  12.533   2.241   9.657
90373SOL    HW172952  12.471   2.182   9.614
90373SOL    HW272953  12.609   2.186   9.676
90374SOL     OW72954   7.915  11.792  12.592
90374SOL    HW172955   7.931  11.808  12.685
90374SOL    HW272956   8.002  11.781  12.554
90375SOL     OW72957   9.083   9.292   0.388
90375SOL    HW172958   9.074   9.198   0.370
90375SOL    HW272959   9.045   9.334   0.310
90376SOL     OW72960   7.188   5.103   3.369
90376SOL    HW172961   7.274   5.064   3.352
90376SOL    HW272962   7.181   5.105   3.464
90377SOL     OW72963   7.406  12.090  11.432
90377SOL    HW172964   7.325  12.140  11.441
90377SOL    HW272965   7.397  12.044  11.349
90378SOL     OW72966  13.600   5.663   1.743
90378SOL    HW172967  13.533   5.626   1.685
90378SOL    HW272968  13.551   5.716   1.805
90379SOL     OW72969   2.034   8.559   0.373
90379SOL    HW172970   2.114   8.512   0.399
90379SOL    HW272971   2.064   8.649   0.359
90380SOL     OW72972   2.120   0.484   1.663
90380SOL    HW172973   2.134   0.578   1.678
90380SOL    HW272974   2.040   0.464   1.710
90381SOL     OW72975   1.944  11.003   7.630
90381SOL    HW172976   1.951  10.928   7.690
90381SOL    HW272977   2.030  11.007   7.587
90382SOL     OW72978   0.315  14.140   1.071
90382SOL    HW172979   0.236  14.146   1.125
90382SOL    HW272980   0.295  14.071   1.008
90383SOL     OW72981   3.605   5.034   6.428
90383SOL    HW172982   3.644   5.011   6.344
90383SOL    HW272983   3.594   5.129   6.424
90384SOL     OW72984   4.074   9.409  12.103
90384SOL    HW172985   4.079   9.490  12.153
90384SOL    HW272986   4.088   9.340  12.168
90385SOL     OW72987   1.186   7.679   7.113
90385SOL    HW172988   1.216   7.769   7.130
90385SOL    HW272989   1.262   7.625   7.135
90386SOL     OW72990   3.120   0.347  11.485
90386SOL    HW172991   3.066   0.359  11.563
90386SOL    HW272992   3.195   0.405  11.498
90387SOL     OW72993   5.281   5.388   9.582
90387SOL    HW172994   5.287   5.307   9.531
90387SOL    HW272995   5.247   5.453   9.520
90388SOL     OW72996   9.117   9.086   9.004
90388SOL    HW172997   9.151   9.022   9.066
90388SOL    HW272998   9.195   9.130   8.970
90389SOL     OW72999   2.412   6.283   5.128
90389SOL    HW173000   2.466   6.258   5.053
90389SOL    HW273001   2.434   6.219   5.196
90390SOL     OW73002   6.055   0.965   2.483
90390SOL    HW173003   5.982   0.905   2.469
90390SOL    HW273004   6.038   1.038   2.423
90391SOL     OW73005  14.004   4.002   7.797
90391SOL    HW173006  13.969   4.050   7.722
90391SOL    HW273007  14.056   3.931   7.758
90392SOL     OW73008  10.567   5.224   4.387
90392SOL    HW173009  10.512   5.247   4.462
90392SOL    HW273010  10.573   5.129   4.391
90393SOL     OW73011   2.293  13.577   1.512
90393SOL    HW173012   2.354  13.651   1.505
90393SOL    HW273013   2.218  13.603   1.458
90394SOL     OW73014  14.404  12.241   9.602
90394SOL    HW173015  14.376  12.327   9.635
90394SOL    HW273016  14.500  12.245   9.603
90395SOL     OW73017   8.300   2.786   1.888
90395SOL    HW173018   8.250   2.751   1.962
90395SOL    HW273019   8.312   2.879   1.909
90396SOL     OW73020   3.819   5.319   1.698
90396SOL    HW173021   3.780   5.380   1.634
90396SOL    HW273022   3.908   5.352   1.710
90397SOL     OW73023   2.936   1.471  12.349
90397SOL    HW173024   2.872   1.463  12.420
90397SOL    HW273025   2.903   1.413  12.280
90398SOL     OW73026  13.437   9.254   1.061
90398SOL    HW173027  13.397   9.341   1.065
90398SOL    HW273028  13.389   9.203   1.126
90399SOL     OW73029   5.623   7.521  12.070
90399SOL    HW173030   5.664   7.587  12.014
90399SOL    HW273031   5.664   7.535  12.156
90400SOL     OW73032   6.767   4.344   3.194
90400SOL    HW173033   6.830   4.378   3.131
90400SOL    HW273034   6.812   4.272   3.237
90401SOL     OW73035   3.464   8.730   2.636
90401SOL    HW173036   3.448   8.647   2.680
90401SOL    HW273037   3.554   8.723   2.604
90402SOL     OW73038  13.132  12.538   3.867
90402SOL    HW173039  13.093  12.577   3.945
90402SOL    HW273040  13.185  12.465   3.900
90403SOL     OW73041  12.729   5.809  11.945
90403SOL    HW173042  12.685   5.797  12.029
90403SOL    HW273043  12.821   5.787  11.963
90404SOL     OW73044  10.585   0.793  11.257
90404SOL    HW173045  10.552   0.762  11.342
90404SOL    HW273046  10.506   0.813  11.207
90405SOL     OW73047   6.626  11.734   8.746
90405SOL    HW173048   6.533  11.713   8.739
90405SOL    HW273049   6.669  11.649   8.759
90406SOL     OW73050   1.227   7.033   2.923
90406SOL    HW173051   1.214   7.018   2.829
90406SOL    HW273052   1.149   6.994   2.964
90407SOL     OW73053  11.493   0.987   9.698
90407SOL    HW173054  11.480   0.893   9.691
90407SOL    HW273055  11.550   1.009   9.623
90408SOL     OW73056  14.677  13.642  14.266
90408SOL    HW173057  14.733  13.591  14.325
90408SOL    HW273058  14.597  13.657  14.317
90409SOL     OW73059  14.563   4.772   3.321
90409SOL    HW173060  14.624   4.845   3.339
90409SOL    HW273061  14.565   4.719   3.401
90410SOL     OW73062   6.795   9.850   1.218
90410SOL    HW173063   6.717   9.892   1.180
90410SOL    HW273064   6.868   9.892   1.172
90411SOL     OW73065  11.754   3.928  14.686
90411SOL    HW173066  11.663   3.954  14.700
90411SOL    HW273067  11.802   4.011  14.684
90412SOL     OW73068   2.672   3.026   5.313
90412SOL    HW173069   2.617   3.032   5.234
90412SOL    HW273070   2.677   3.116   5.345
90413SOL     OW73071   1.761  11.801   5.432
90413SOL    HW173072   1.743  11.714   5.396
90413SOL    HW273073   1.769  11.786   5.526
90414SOL     OW73074  11.481  13.775   6.528
90414SOL    HW173075  11.533  13.791   6.607
90414SOL    HW273076  11.421  13.850   6.523
90415SOL     OW73077   7.586   9.593   5.739
90415SOL    HW173078   7.557   9.660   5.801
90415SOL    HW273079   7.505   9.563   5.698
90416SOL     OW73080   8.073  11.481  10.861
90416SOL    HW173081   8.022  11.406  10.890
90416SOL    HW273082   8.083  11.468  10.767
90417SOL     OW73083   9.515   1.268  10.596
90417SOL    HW173084   9.442   1.265  10.658
90417SOL    HW273085   9.526   1.361  10.577
90418SOL     OW73086   6.390  14.086   7.197
90418SOL    HW173087   6.306  14.044   7.214
90418SOL    HW273088   6.454  14.026   7.237
90419SOL     OW73089   9.070   7.315   9.201
90419SOL    HW173090   9.097   7.407   9.198
90419SOL    HW273091   9.050   7.300   9.294
90420SOL     OW73092   0.187  13.834   3.807
90420SOL    HW173093   0.186  13.739   3.799
90420SOL    HW273094   0.238  13.851   3.886
90421SOL     OW73095   7.321   2.789   5.433
90421SOL    HW173096   7.228   2.805   5.416
90421SOL    HW273097   7.364   2.871   5.409
90422SOL     OW73098   9.451   8.324   0.694
90422SOL    HW173099   9.466   8.255   0.628
90422SOL    HW273100   9.356   8.334   0.697
90423SOL     OW73101   4.630  13.281   8.784
90423SOL    HW173102   4.695  13.212   8.796
90423SOL    HW273103   4.677  13.351   8.737
90424SOL     OW73104  10.679   6.988  11.310
90424SOL    HW173105  10.710   7.054  11.249
90424SOL    HW273106  10.673   6.908  11.258
90425SOL     OW73107   9.551   3.499  10.247
90425SOL    HW173108   9.584   3.545  10.170
90425SOL    HW273109   9.529   3.568  10.309
90426SOL     OW73110  13.303  14.852   7.557
90426SOL    HW173111  13.298   0.074   7.568
90426SOL    HW273112  13.216  14.826   7.528
90427SOL     OW73113   9.351   0.068   2.348
90427SOL    HW173114   9.426   0.090   2.293
90427SOL    HW273115   9.306   0.152   2.362
90428SOL     OW73116  11.937  14.256   0.521
90428SOL    HW173117  11.947  14.297   0.435
90428SOL    HW273118  12.021  14.215   0.538
90429SOL     OW73119  13.804  13.069   8.357
90429SOL    HW173120  13.865  13.054   8.430
90429SOL    HW273121  13.779  12.982   8.327
90430SOL     OW73122  13.859   3.709   4.415
90430SOL    HW173123  13.882   3.740   4.328
90430SOL    HW273124  13.766   3.732   4.425
90431SOL     OW73125   2.025  13.591  10.922
90431SOL    HW173126   1.959  13.548  10.867
90431SOL    HW273127   2.109  13.569  10.881
90432SOL     OW73128  13.452  14.314   5.927
90432SOL    HW173129  13.373  14.260   5.923
90432SOL    HW273130  13.503  14.287   5.850
90433SOL     OW73131  10.851  12.456  13.930
90433SOL    HW173132  10.877  12.405  13.854
90433SOL    HW273133  10.919  12.440  13.995
90434SOL     OW73134   4.345   4.532  14.816
90434SOL    HW173135   4.371   4.624  14.817
90434SOL    HW273136   4.250   4.534  14.815
90435SOL     OW73137   0.462   3.027  11.297
90435SOL    HW173138   0.435   3.077  11.375
90435SOL    HW273139   0.423   3.075  11.224
90436SOL     OW73140   8.927  11.662   3.821
90436SOL    HW173141   8.949  11.673   3.913
90436SOL    HW273142   8.985  11.592   3.790
90437SOL     OW73143  13.245   1.633   7.877
90437SOL    HW173144  13.181   1.646   7.806
90437SOL    HW273145  13.275   1.542   7.866
90438SOL     OW73146   7.830  12.021   3.499
90438SOL    HW173147   7.810  11.983   3.413
90438SOL    HW273148   7.774  12.098   3.504
90439SOL     OW73149   1.550   7.368   5.222
90439SOL    HW173150   1.605   7.443   5.204
90439SOL    HW273151   1.611   7.295   5.230
90440SOL     OW73152   4.979   0.233   3.879
90440SOL    HW173153   4.998   0.147   3.841
90440SOL    HW273154   4.957   0.213   3.971
90441SOL     OW73155   5.434  12.937  11.721
90441SOL    HW173156   5.364  12.969  11.664
90441SOL    HW273157   5.503  12.909  11.660
90442SOL     OW73158   6.051   5.040   4.554
90442SOL    HW173159   5.985   5.011   4.490
90442SOL    HW273160   6.133   5.042   4.505
90443SOL     OW73161   6.796  12.228  11.788
90443SOL    HW173162   6.787  12.195  11.698
90443SOL    HW273163   6.722  12.288  11.799
90444SOL     OW73164   0.606   0.881  13.112
90444SOL    HW173165   0.674   0.814  13.109
90444SOL    HW273166   0.525   0.834  13.094
90445SOL     OW73167   6.368  13.230   8.302
90445SOL    HW173168   6.375  13.185   8.387
90445SOL    HW273169   6.299  13.183   8.256
90446SOL     OW73170  11.892   6.006   7.065
90446SOL    HW173171  11.853   6.063   7.132
90446SOL    HW273172  11.843   6.026   6.985
90447SOL     OW73173  12.255  13.912   9.089
90447SOL    HW173174  12.231  13.852   9.160
90447SOL    HW273175  12.262  13.997   9.132
90448SOL     OW73176   3.527  14.265  12.892
90448SOL    HW173177   3.517  14.210  12.815
90448SOL    HW273178   3.613  14.306  12.881
90449SOL     OW73179   9.707   9.341  12.633
90449SOL    HW173180   9.756   9.261  12.655
90449SOL    HW273181   9.677   9.374  12.718
90450SOL     OW73182  12.571  11.852   7.090
90450SOL    HW173183  12.620  11.934   7.099
90450SOL    HW273184  12.482  11.874   7.119
90451SOL     OW73185   1.781   8.775   2.193
90451SOL    HW173186   1.853   8.834   2.171
90451SOL    HW273187   1.823   8.691   2.210
90452SOL     OW73188  11.942  12.075   9.969
90452SOL    HW173189  11.872  12.071  10.033
90452SOL    HW273190  12.017  12.110  10.017
90453SOL     OW73191  10.914   7.462   2.669
90453SOL    HW173192  10.835   7.503   2.634
90453SOL    HW273193  10.986   7.509   2.628
90454SOL     OW73194  13.782   2.692   3.810
90454SOL    HW173195  13.688   2.703   3.794
90454SOL    HW273196  13.786   2.656   3.899
90455SOL     OW73197  11.061  12.775  12.013
90455SOL    HW173198  11.136  12.770  12.071
90455SOL    HW273199  11.076  12.707  11.948
90456SOL     OW73200   0.193  14.727   4.979
90456SOL    HW173201   0.276  14.688   5.003
90456SOL    HW273202   0.142  14.654   4.943
90457SOL     OW73203   1.137   9.247   8.232
90457SOL    HW173204   1.062   9.190   8.213
90457SOL    HW273205   1.211   9.187   8.237
90458SOL     OW73206   3.161  12.095  10.274
90458SOL    HW173207   3.099  12.040  10.226
90458SOL    HW273208   3.243  12.089  10.225
90459SOL     OW73209  13.978   8.074   4.761
90459SOL    HW173210  13.959   8.115   4.845
90459SOL    HW273211  13.913   8.004   4.752
90460SOL     OW73212   7.686   4.513   5.516
90460SOL    HW173213   7.658   4.459   5.441
90460SOL    HW273214   7.604   4.541   5.557
90461SOL     OW73215   9.939   5.108   1.066
90461SOL    HW173216   9.861   5.163   1.055
90461SOL    HW273217   9.927   5.037   1.003
90462SOL     OW73218   7.527   6.969   8.015
90462SOL    HW173219   7.516   6.987   7.922
90462SOL    HW273220   7.606   7.018   8.040
90463SOL     OW73221   7.495   0.764   9.099
90463SOL    HW173222   7.498   0.670   9.082
90463SOL    HW273223   7.587   0.791   9.099
90464SOL     OW73224   6.022   6.755  10.334
90464SOL    HW173225   6.104   6.727  10.375
90464SOL    HW273226   6.011   6.846  10.364
90465SOL     OW73227   9.418  12.181  13.793
90465SOL    HW173228   9.410  12.092  13.827
90465SOL    HW273229   9.448  12.233  13.868
90466SOL     OW73230  12.729  12.780   7.839
90466SOL    HW173231  12.733  12.685   7.850
90466SOL    HW273232  12.817  12.811   7.861
90467SOL     OW73233   2.868   5.682   6.624
90467SOL    HW173234   2.891   5.772   6.647
90467SOL    HW273235   2.810   5.690   6.548
90468SOL     OW73236   2.142   8.381   1.018
90468SOL    HW173237   2.089   8.460   1.023
90468SOL    HW273238   2.229   8.408   1.049
90469SOL     OW73239  13.413   4.563   3.225
90469SOL    HW173240  13.508   4.579   3.228
90469SOL    HW273241  13.405   4.467   3.224
90470SOL     OW73242  13.664   9.404   2.538
90470SOL    HW173243  13.687   9.495   2.521
90470SOL    HW273244  13.614   9.407   2.620
90471SOL     OW73245   7.454   8.493   5.204
90471SOL    HW173246   7.428   8.585   5.206
90471SOL    HW273247   7.520   8.489   5.134
90472SOL     OW73248   9.748   5.078  14.188
90472SOL    HW173249   9.814   5.137  14.225
90472SOL    HW273250   9.668   5.131  14.185
90473SOL     OW73251  14.601   3.456   1.102
90473SOL    HW173252  14.561   3.528   1.151
90473SOL    HW273253  14.685   3.491   1.072
90474SOL     OW73254  13.125  11.940   5.127
90474SOL    HW173255  13.119  11.873   5.059
90474SOL    HW273256  13.073  12.013   5.094
90475SOL     OW73257   1.552  12.825   6.944
90475SOL    HW173258   1.564  12.812   7.038
90475SOL    HW273259   1.576  12.740   6.906
90476SOL     OW73260   0.711   8.083   0.516
90476SOL    HW173261   0.627   8.068   0.560
90476SOL    HW273262   0.756   7.999   0.522
90477SOL     OW73263   6.355   5.091   9.035
90477SOL    HW173264   6.440   5.073   9.076
90477SOL    HW273265   6.318   5.004   9.020
90478SOL     OW73266   1.060  12.695   0.514
90478SOL    HW173267   1.051  12.720   0.606
90478SOL    HW273268   0.997  12.624   0.503
90479SOL     OW73269   9.142   4.955  11.153
90479SOL    HW173270   9.187   4.959  11.069
90479SOL    HW273271   9.095   5.038  11.160
90480SOL     OW73272  10.078   6.798  10.914
90480SOL    HW173273  10.100   6.797  10.821
90480SOL    HW273274  10.109   6.714  10.948
90481SOL     OW73275   8.196   9.380   1.831
90481SOL    HW173276   8.102   9.379   1.814
90481SOL    HW273277   8.234   9.324   1.763
90482SOL     OW73278  12.121   8.024   7.777
90482SOL    HW173279  12.087   8.044   7.865
90482SOL    HW273280  12.121   7.929   7.772
90483SOL     OW73281   9.416  10.208   0.346
90483SOL    HW173282   9.450  10.293   0.318
90483SOL    HW273283   9.348  10.228   0.411
90484SOL     OW73284   6.431  13.217   7.784
90484SOL    HW173285   6.381  13.201   7.704
90484SOL    HW273286   6.523  13.220   7.755
90485SOL     OW73287  10.691   7.024   5.605
90485SOL    HW173288  10.744   6.995   5.679
90485SOL    HW273289  10.647   6.944   5.575
90486SOL     OW73290   4.201   4.956   7.131
90486SOL    HW173291   4.212   5.049   7.149
90486SOL    HW273292   4.220   4.947   7.038
90487SOL     OW73293  10.668   8.055   6.406
90487SOL    HW173294  10.657   7.960   6.418
90487SOL    HW273295  10.585   8.092   6.435
90488SOL     OW73296  10.671  11.014   6.431
90488SOL    HW173297  10.683  10.920   6.447
90488SOL    HW273298  10.580  11.022   6.403
90489SOL     OW73299   1.648   4.011   8.328
90489SOL    HW173300   1.719   4.075   8.326
90489SOL    HW273301   1.570   4.059   8.301
90490SOL     OW73302  12.322   4.047   1.279
90490SOL    HW173303  12.265   3.971   1.290
90490SOL    HW273304  12.386   4.020   1.214
90491SOL     OW73305  14.306   2.303  12.165
90491SOL    HW173306  14.361   2.226  12.157
90491SOL    HW273307  14.323   2.337  12.253
90492SOL     OW73308  10.936   4.665   2.920
90492SOL    HW173309  11.016   4.689   2.966
90492SOL    HW273310  10.889   4.608   2.981
90493SOL     OW73311  14.768   8.666   3.110
90493SOL    HW173312  14.681   8.648   3.075
90493SOL    HW273313  14.754   8.735   3.174
90494SOL     OW73314   7.623  13.655   5.693
90494SOL    HW173315   7.703  13.692   5.731
90494SOL    HW273316   7.616  13.568   5.733
90495SOL     OW73317  11.354   2.254  11.137
90495SOL    HW173318  11.436   2.227  11.097
90495SOL    HW273319  11.301   2.174  11.138
90496SOL     OW73320   8.954  10.881  14.582
90496SOL    HW173321   8.970  10.883  14.677
90496SOL    HW273322   9.026  10.932  14.545
90497SOL     OW73323  14.464   7.873   7.448
90497SOL    HW173324  14.381   7.890   7.492
90497SOL    HW273325  14.459   7.781   7.421
90498SOL     OW73326   9.315   7.566   9.576
90498SOL    HW173327   9.404   7.598   9.560
90498SOL    HW273328   9.266   7.591   9.498
90499SOL     OW73329  14.681   0.650  14.807
90499SOL    HW173330  14.682   0.682  14.716
90499SOL    HW273331  14.612   0.584  14.808
90500SOL     OW73332   4.314  12.296   7.235
90500SOL    HW173333   4.292  12.303   7.328
90500SOL    HW273334   4.338  12.204   7.224
90501SOL     OW73335   0.676   0.713  13.451
90501SOL    HW173336   0.653   0.789  13.397
90501SOL    HW273337   0.638   0.638  13.404
90502SOL     OW73338  13.529  10.511   1.056
90502SOL    HW173339  13.438  10.481   1.046
90502SOL    HW273340  13.531  10.597   1.015
90503SOL     OW73341   3.558   5.919   2.324
90503SOL    HW173342   3.616   5.884   2.392
90503SOL    HW273343   3.610   5.915   2.244
90504SOL     OW73344   2.291   3.825   8.531
90504SOL    HW173345   2.237   3.898   8.502
90504SOL    HW273346   2.376   3.865   8.550
90505SOL     OW73347   7.383   3.604  14.790
90505SOL    HW173348   7.395   3.517  14.827
90505SOL    HW273349   7.304   3.596  14.736
90506SOL     OW73350   5.821   2.346  12.561
90506SOL    HW173351   5.816   2.251  12.561
90506SOL    HW273352   5.889   2.367  12.497
90507SOL     OW73353   0.032   7.918   2.469
90507SOL    HW173354   0.100   7.852   2.459
90507SOL    HW273355   0.078   8.001   2.455
90508SOL     OW73356  12.912  13.774   2.011
90508SOL    HW173357  12.878  13.723   2.085
90508SOL    HW273358  12.845  13.841   1.996
90509SOL     OW73359  10.264   5.101  10.186
90509SOL    HW173360  10.302   5.134  10.104
90509SOL    HW273361  10.285   5.008  10.186
90510SOL     OW73362   1.499   8.719   6.291
90510SOL    HW173363   1.494   8.631   6.253
90510SOL    HW273364   1.542   8.707   6.375
90511SOL     OW73365  14.294   0.925   8.062
90511SOL    HW173366  14.235   0.851   8.077
90511SOL    HW273367  14.238   1.002   8.069
90512SOL     OW73368  10.426   7.830   0.108
90512SOL    HW173369  10.387   7.915   0.130
90512SOL    HW273370  10.509   7.830   0.155
90513SOL     OW73371   0.053  12.253  11.130
90513SOL    HW173372   0.044  12.345  11.155
90513SOL    HW273373  14.865  12.207  11.188
90514SOL     OW73374  10.594  12.434   5.068
90514SOL    HW173375  10.507  12.432   5.108
90514SOL    HW273376  10.603  12.523   5.033
90515SOL     OW73377   6.095   1.137   9.284
90515SOL    HW173378   6.120   1.052   9.320
90515SOL    HW273379   6.038   1.116   9.211
90516SOL     OW73380   3.153   5.754  12.212
90516SOL    HW173381   3.240   5.787  12.233
90516SOL    HW273382   3.128   5.701  12.287
90517SOL     OW73383   2.730   6.758  11.069
90517SOL    HW173384   2.696   6.712  10.992
90517SOL    HW273385   2.652   6.789  11.115
90518SOL     OW73386   6.061   9.118   9.800
90518SOL    HW173387   6.050   9.130   9.894
90518SOL    HW273388   5.974   9.134   9.764
90519SOL     OW73389   6.501  13.709   6.936
90519SOL    HW173390   6.496  13.723   6.841
90519SOL    HW273391   6.507  13.797   6.973
90520SOL     OW73392  13.328   7.570   7.624
90520SOL    HW173393  13.269   7.610   7.561
90520SOL    HW273394  13.320   7.624   7.703
90521SOL     OW73395   8.756   7.960   8.782
90521SOL    HW173396   8.818   8.028   8.809
90521SOL    HW273397   8.788   7.933   8.695
90522SOL     OW73398  12.697   1.545   0.333
90522SOL    HW173399  12.693   1.636   0.305
90522SOL    HW273400  12.697   1.494   0.252
90523SOL     OW73401  11.255   5.093  13.899
90523SOL    HW173402  11.319   5.030  13.932
90523SOL    HW273403  11.308   5.164  13.863
90524SOL     OW73404   7.434  11.949  13.438
90524SOL    HW173405   7.464  12.034  13.406
90524SOL    HW273406   7.468  11.944  13.528
90525SOL     OW73407   7.031  13.817   2.759
90525SOL    HW173408   7.014  13.800   2.852
90525SOL    HW273409   7.125  13.837   2.756
90526SOL     OW73410   7.792   5.445   2.332
90526SOL    HW173411   7.795   5.419   2.239
90526SOL    HW273412   7.710   5.493   2.341
90527SOL     OW73413   1.433   1.119  14.584
90527SOL    HW173414   1.370   1.092  14.650
90527SOL    HW273415   1.512   1.141  14.633
90528SOL     OW73416   1.716   1.406  10.912
90528SOL    HW173417   1.747   1.328  10.959
90528SOL    HW273418   1.621   1.403  10.921
90529SOL     OW73419   2.259   6.254   0.638
90529SOL    HW173420   2.257   6.198   0.561
90529SOL    HW273421   2.192   6.320   0.622
90530SOL     OW73422   6.679   8.591  11.877
90530SOL    HW173423   6.653   8.654  11.944
90530SOL    HW273424   6.764   8.623  11.846
90531SOL     OW73425   5.163  12.699   9.941
90531SOL    HW173426   5.094  12.636   9.959
90531SOL    HW273427   5.142  12.732   9.853
90532SOL     OW73428  14.497  11.253   4.613
90532SOL    HW173429  14.531  11.343   4.613
90532SOL    HW273430  14.475  11.236   4.704
90533SOL     OW73431  13.636  10.687   3.753
90533SOL    HW173432  13.700  10.758   3.761
90533SOL    HW273433  13.585  10.709   3.675
90534SOL     OW73434   7.032   1.538   6.127
90534SOL    HW173435   6.969   1.466   6.129
90534SOL    HW273436   7.052   1.550   6.035
90535SOL     OW73437  12.641   4.378   6.315
90535SOL    HW173438  12.633   4.406   6.406
90535SOL    HW273439  12.575   4.310   6.305
90536SOL     OW73440  11.820  13.413  11.401
90536SOL    HW173441  11.740  13.374  11.366
90536SOL    HW273442  11.817  13.395  11.495
90537SOL     OW73443   2.422   3.113  14.858
90537SOL    HW173444   2.450   3.044   0.046
90537SOL    HW273445   2.464   3.192   0.019
90538SOL     OW73446   0.808   1.036   9.279
90538SOL    HW173447   0.798   1.098   9.206
90538SOL    HW273448   0.885   0.984   9.255
90539SOL     OW73449   8.499   0.744  11.697
90539SOL    HW173450   8.518   0.808  11.628
90539SOL    HW273451   8.449   0.794  11.762
90540SOL     OW73452  10.503  12.841  13.388
90540SOL    HW173453  10.487  12.857  13.295
90540SOL    HW273454  10.594  12.866  13.401
90541SOL     OW73455  12.779   1.306  12.207
90541SOL    HW173456  12.813   1.233  12.155
90541SOL    HW273457  12.685   1.306  12.189
90542SOL     OW73458  14.075  12.607  13.616
90542SOL    HW173459  14.011  12.546  13.580
90542SOL    HW273460  14.025  12.685  13.637
90543SOL     OW73461   4.373   2.053   0.782
90543SOL    HW173462   4.372   2.110   0.859
90543SOL    HW273463   4.431   2.096   0.720
90544SOL     OW73464   8.707  13.786   8.094
90544SOL    HW173465   8.719  13.876   8.066
90544SOL    HW273466   8.621  13.785   8.136
90545SOL     OW73467   7.606   5.964  10.195
90545SOL    HW173468   7.624   6.055  10.220
90545SOL    HW273469   7.631   5.912  10.272
90546SOL     OW73470  11.332   4.008   6.755
90546SOL    HW173471  11.342   3.913   6.750
90546SOL    HW273472  11.239   4.024   6.743
90547SOL     OW73473   4.940  12.787   3.427
90547SOL    HW173474   4.924  12.857   3.364
90547SOL    HW273475   4.974  12.831   3.505
90548SOL     OW73476   4.156  12.429   6.781
90548SOL    HW173477   4.117  12.362   6.837
90548SOL    HW273478   4.240  12.450   6.823
90549SOL     OW73479   5.247  12.685   6.123
90549SOL    HW173480   5.246  12.723   6.210
90549SOL    HW273481   5.235  12.759   6.064
90550SOL     OW73482   3.781   6.259   6.932
90550SOL    HW173483   3.810   6.348   6.911
90550SOL    HW273484   3.858   6.204   6.916
90551SOL     OW73485   4.168   4.499  10.621
90551SOL    HW173486   4.202   4.490  10.532
90551SOL    HW273487   4.175   4.411  10.658
90552SOL     OW73488   5.285  12.853   3.339
90552SOL    HW173489   5.263  12.922   3.401
90552SOL    HW273490   5.370  12.821   3.368
90553SOL     OW73491  14.471   9.431   1.059
90553SOL    HW173492  14.399   9.396   1.110
90553SOL    HW273493  14.549   9.389   1.096
90554SOL     OW73494   3.848   0.303  12.383
90554SOL    HW173495   3.811   0.215  12.390
90554SOL    HW273496   3.935   0.290  12.345
90555SOL     OW73497   5.695  12.053   1.275
90555SOL    HW173498   5.642  12.012   1.208
90555SOL    HW273499   5.662  12.018   1.357
90556SOL     OW73500  10.965   7.644   3.270
90556SOL    HW173501  10.943   7.590   3.194
90556SOL    HW273502  10.990   7.728   3.233
90557SOL     OW73503  11.956  13.802  11.081
90557SOL    HW173504  11.873  13.840  11.053
90557SOL    HW273505  12.016  13.819  11.009
90558SOL     OW73506   6.684   8.440   2.912
90558SOL    HW173507   6.592   8.465   2.906
90558SOL    HW273508   6.731   8.524   2.908
90559SOL     OW73509  12.839   5.626  14.728
90559SOL    HW173510  12.897   5.558  14.762
90559SOL    HW273511  12.781   5.580  14.667
90560SOL     OW73512   1.427   6.355  12.589
90560SOL    HW173513   1.438   6.340  12.683
90560SOL    HW273514   1.511   6.392  12.561
90561SOL     OW73515   2.804  14.248  12.972
90561SOL    HW173516   2.861  14.253  13.048
90561SOL    HW273517   2.789  14.339  12.947
90562SOL     OW73518  11.159  10.005   3.025
90562SOL    HW173519  11.130  10.033   3.112
90562SOL    HW273520  11.254  10.013   3.027
90563SOL     OW73521  13.267  10.882   5.155
90563SOL    HW173522  13.229  10.935   5.085
90563SOL    HW273523  13.194  10.831   5.189
90564SOL     OW73524   4.693   9.902   8.792
90564SOL    HW173525   4.655   9.846   8.858
90564SOL    HW273526   4.680   9.991   8.824
90565SOL     OW73527   3.470   9.184  14.513
90565SOL    HW173528   3.432   9.128  14.445
90565SOL    HW273529   3.524   9.124  14.566
90566SOL     OW73530  13.215  14.063  13.817
90566SOL    HW173531  13.251  14.145  13.785
90566SOL    HW273532  13.238  14.062  13.910
90567SOL     OW73533   4.958  14.640   9.568
90567SOL    HW173534   5.011  14.706   9.613
90567SOL    HW273535   5.018  14.567   9.555
90568SOL     OW73536  13.587   1.405   2.899
90568SOL    HW173537  13.672   1.409   2.855
90568SOL    HW273538  13.540   1.482   2.866
90569SOL     OW73539   4.426   5.991  10.935
90569SOL    HW173540   4.421   5.901  10.967
90569SOL    HW273541   4.495   5.989  10.869
90570SOL     OW73542   1.447   5.146   7.196
90570SOL    HW173543   1.521   5.180   7.145
90570SOL    HW273544   1.381   5.124   7.130
90571SOL     OW73545  14.126   8.278   3.816
90571SOL    HW173546  14.097   8.190   3.837
90571SOL    HW273547  14.108   8.287   3.722
90572SOL     OW73548   0.085  13.286  12.681
90572SOL    HW173549   0.038  13.330  12.751
90572SOL    HW273550   0.141  13.354  12.643
90573SOL     OW73551  11.951   7.288   4.267
90573SOL    HW173552  11.872   7.335   4.242
90573SOL    HW273553  12.022   7.351   4.254
90574SOL     OW73554  13.389   4.307   3.283
90574SOL    HW173555  13.367   4.219   3.254
90574SOL    HW273556  13.338   4.321   3.363
90575SOL     OW73557   5.712  11.634   1.164
90575SOL    HW173558   5.772  11.675   1.103
90575SOL    HW273559   5.754  11.644   1.250
90576SOL     OW73560   5.911   8.864   4.714
90576SOL    HW173561   5.990   8.899   4.672
90576SOL    HW273562   5.859   8.828   4.642
90577SOL     OW73563  12.097   4.569  14.703
90577SOL    HW173564  12.025   4.552  14.764
90577SOL    HW273565  12.107   4.664  14.704
90578SOL     OW73566  12.182  13.523  10.661
90578SOL    HW173567  12.191  13.478  10.577
90578SOL    HW273568  12.272  13.540  10.689
90579SOL     OW73569  13.312   9.698  12.783
90579SOL    HW173570  13.366   9.766  12.742
90579SOL    HW273571  13.285   9.737  12.866
90580SOL     OW73572   4.188   7.094   4.747
90580SOL    HW173573   4.192   7.149   4.825
90580SOL    HW273574   4.188   7.004   4.780
90581SOL     OW73575   8.186   3.781  11.377
90581SOL    HW173576   8.095   3.763  11.354
90581SOL    HW273577   8.188   3.777  11.473
90582SOL     OW73578   8.454   7.574   5.072
90582SOL    HW173579   8.526   7.636   5.082
90582SOL    HW273580   8.496   7.490   5.053
90583SOL     OW73581   0.511   0.780   0.792
90583SOL    HW173582   0.601   0.792   0.761
90583SOL    HW273583   0.487   0.865   0.829
90584SOL     OW73584   5.475  11.969  13.990
90584SOL    HW173585   5.571  11.968  13.988
90584SOL    HW273586   5.450  11.876  13.988
90585SOL     OW73587   1.678   8.314   3.653
90585SOL    HW173588   1.657   8.285   3.565
90585SOL    HW273589   1.597   8.353   3.686
90586SOL     OW73590   7.019   3.380   6.062
90586SOL    HW173591   7.014   3.284   6.059
90586SOL    HW273592   6.928   3.408   6.074
90587SOL     OW73593  11.992   0.074   7.254
90587SOL    HW173594  12.080   0.037   7.246
90587SOL    HW273595  11.934  14.870   7.262
90588SOL     OW73596   8.075  13.989  11.558
90588SOL    HW173597   8.085  13.904  11.600
90588SOL    HW273598   7.982  14.010  11.569
90589SOL     OW73599   9.943   5.164   0.283
90589SOL    HW173600  10.001   5.099   0.323
90589SOL    HW273601   9.858   5.121   0.280
90590SOL     OW73602   0.842   9.602   5.092
90590SOL    HW173603   0.805   9.684   5.062
90590SOL    HW273604   0.824   9.540   5.021
90591SOL     OW73605   7.299   2.348  13.688
90591SOL    HW173606   7.384   2.364  13.647
90591SOL    HW273607   7.317   2.284  13.756
90592SOL     OW73608   6.127  12.008  14.415
90592SOL    HW173609   6.089  12.096  14.420
90592SOL    HW273610   6.218  12.023  14.389
90593SOL     OW73611   8.189   1.487  10.452
90593SOL    HW173612   8.180   1.415  10.514
90593SOL    HW273613   8.100   1.522  10.443
90594SOL     OW73614  14.453   1.590  14.376
90594SOL    HW173615  14.373   1.638  14.398
90594SOL    HW273616  14.439   1.560  14.287
90595SOL     OW73617   9.630   9.074  11.523
90595SOL    HW173618   9.618   9.047  11.432
90595SOL    HW273619   9.661   9.165  11.517
90596SOL     OW73620   6.049   9.490   4.795
90596SOL    HW173621   5.999   9.506   4.875
90596SOL    HW273622   5.995   9.429   4.745
90597SOL     OW73623   8.178  14.317   9.721
90597SOL    HW173624   8.261  14.359   9.742
90597SOL    HW273625   8.143  14.368   9.648
90598SOL     OW73626  13.469  10.324   5.623
90598SOL    HW173627  13.411  10.323   5.699
90598SOL    HW273628  13.516  10.408   5.630
90599SOL     OW73629  14.869   6.170   9.375
90599SOL    HW173630  14.853   6.209   9.289
90599SOL    HW273631   0.049   6.235   9.422
90600SOL     OW73632   5.417  11.750   1.324
90600SOL    HW173633   5.491  11.769   1.382
90600SOL    HW273634   5.350  11.714   1.382
90601SOL     OW73635   7.226  12.730  10.127
90601SOL    HW173636   7.234  12.642  10.163
90601SOL    HW273637   7.261  12.723  10.038
90602SOL     OW73638   5.725   2.389   5.039
90602SOL    HW173639   5.667   2.379   4.964
90602SOL    HW273640   5.779   2.465   5.017
90603SOL     OW73641   3.430   9.280   5.707
90603SOL    HW173642   3.403   9.227   5.631
90603SOL    HW273643   3.374   9.358   5.702
90604SOL     OW73644  10.169   1.782   8.059
90604SOL    HW173645  10.155   1.742   7.973
90604SOL    HW273646  10.206   1.868   8.038
90605SOL     OW73647  12.530   0.007   7.023
90605SOL    HW173648  12.602   0.019   6.961
90605SOL    HW273649  12.554   0.062   7.098
90606SOL     OW73650   6.943   1.791   0.888
90606SOL    HW173651   6.879   1.836   0.944
90606SOL    HW273652   6.895   1.716   0.852
90607SOL     OW73653   9.166   1.890   7.066
90607SOL    HW173654   9.148   1.910   6.974
90607SOL    HW273655   9.096   1.829   7.091
90608SOL     OW73656   8.076  13.898  12.866
90608SOL    HW173657   8.094  13.882  12.773
90608SOL    HW273658   8.023  13.978  12.866
90609SOL     OW73659   4.560   6.658   5.114
90609SOL    HW173660   4.482   6.650   5.058
90609SOL    HW273661   4.633   6.633   5.056
90610SOL     OW73662   7.552   5.941   2.436
90610SOL    HW173663   7.512   5.917   2.519
90610SOL    HW273664   7.483   5.987   2.388
90611SOL     OW73665   7.741   4.246  13.290
90611SOL    HW173666   7.698   4.324  13.256
90611SOL    HW273667   7.793   4.277  13.364
90612SOL     OW73668   7.946   6.922  10.011
90612SOL    HW173669   7.872   6.947  10.066
90612SOL    HW273670   7.911   6.918   9.923
90613SOL     OW73671  13.298  14.086  10.799
90613SOL    HW173672  13.289  13.998  10.833
90613SOL    HW273673  13.212  14.127  10.813
90614SOL     OW73674   6.556   6.703  13.171
90614SOL    HW173675   6.577   6.796  13.169
90614SOL    HW273676   6.592   6.668  13.089
90615SOL     OW73677   2.275   0.150   7.824
90615SOL    HW173678   2.257   0.224   7.766
90615SOL    HW273679   2.369   0.154   7.840
90616SOL     OW73680   9.790   1.396   9.801
90616SOL    HW173681   9.788   1.338   9.726
90616SOL    HW273682   9.883   1.398   9.827
90617SOL     OW73683   9.074   8.599   6.678
90617SOL    HW173684   9.030   8.566   6.756
90617SOL    HW273685   9.010   8.656   6.636
90618SOL     OW73686   3.122   3.579   0.758
90618SOL    HW173687   3.111   3.650   0.694
90618SOL    HW273688   3.044   3.524   0.745
90619SOL     OW73689   5.535  11.716   2.628
90619SOL    HW173690   5.507  11.655   2.559
90619SOL    HW273691   5.500  11.801   2.601
90620SOL     OW73692  10.435   5.032   5.820
90620SOL    HW173693  10.413   5.120   5.851
90620SOL    HW273694  10.373   4.975   5.867
90621SOL     OW73695   7.410  14.626   7.833
90621SOL    HW173696   7.322  14.662   7.850
90621SOL    HW273697   7.451  14.624   7.920
90622SOL     OW73698   6.716  11.264   3.089
90622SOL    HW173699   6.735  11.233   3.178
90622SOL    HW273700   6.801  11.261   3.044
90623SOL     OW73701   7.877   5.860   0.486
90623SOL    HW173702   7.891   5.775   0.443
90623SOL    HW273703   7.783   5.876   0.479
90624SOL     OW73704   5.334   6.792  12.009
90624SOL    HW173705   5.408   6.827  11.960
90624SOL    HW273706   5.340   6.697  11.998
90625SOL     OW73707   4.796  10.104   3.625
90625SOL    HW173708   4.806  10.190   3.666
90625SOL    HW273709   4.880  10.060   3.642
90626SOL     OW73710  14.567   4.070   9.644
90626SOL    HW173711  14.534   3.981   9.654
90626SOL    HW273712  14.498   4.126   9.682
90627SOL     OW73713   1.170   2.465   4.054
90627SOL    HW173714   1.158   2.530   3.985
90627SOL    HW273715   1.116   2.497   4.126
90628SOL     OW73716  13.365   1.846   0.438
90628SOL    HW173717  13.289   1.861   0.494
90628SOL    HW273718  13.438   1.838   0.498
90629SOL     OW73719  12.190   6.796  12.416
90629SOL    HW173720  12.227   6.772  12.501
90629SOL    HW273721  12.228   6.882  12.397
90630SOL     OW73722  10.670   0.073   4.977
90630SOL    HW173723  10.751   0.122   4.987
90630SOL    HW273724  10.664   0.055   4.883
90631SOL     OW73725   4.106   1.536   1.449
90631SOL    HW173726   4.052   1.537   1.370
90631SOL    HW273727   4.077   1.613   1.499
90632SOL     OW73728  11.026   9.623   7.649
90632SOL    HW173729  10.992   9.609   7.561
90632SOL    HW273730  11.120   9.612   7.640
90633SOL     OW73731   0.980   2.405   7.732
90633SOL    HW173732   1.002   2.330   7.678
90633SOL    HW273733   1.065   2.443   7.756
90634SOL     OW73734   3.586   4.680  14.143
90634SOL    HW173735   3.606   4.670  14.050
90634SOL    HW273736   3.499   4.720  14.145
90635SOL     OW73737  11.845   8.425  13.200
90635SOL    HW173738  11.823   8.435  13.293
90635SOL    HW273739  11.789   8.488  13.155
90636SOL     OW73740   9.698   9.429  11.924
90636SOL    HW173741   9.645   9.350  11.937
90636SOL    HW273742   9.737   9.418  11.837
90637SOL     OW73743   0.281   9.080   1.547
90637SOL    HW173744   0.313   9.154   1.598
90637SOL    HW273745   0.226   9.031   1.608
90638SOL     OW73746   7.859   4.106   0.068
90638SOL    HW173747   7.801   4.100  14.865
90638SOL    HW273748   7.933   4.048   0.047
90639SOL     OW73749   0.149  13.967   4.153
90639SOL    HW173750   0.085  14.026   4.113
90639SOL    HW273751   0.171  14.008   4.236
90640SOL     OW73752  10.509   3.781  12.062
90640SOL    HW173753  10.481   3.871  12.050
90640SOL    HW273754  10.481   3.759  12.151
90641SOL     OW73755   2.464   1.073   4.159
90641SOL    HW173756   2.486   1.136   4.090
90641SOL    HW273757   2.370   1.060   4.150
90642SOL     OW73758   9.209  14.415   7.041
90642SOL    HW173759   9.187  14.473   6.968
90642SOL    HW273760   9.129  14.411   7.093
90643SOL     OW73761   9.208   5.940   8.114
90643SOL    HW173762   9.142   5.906   8.175
90643SOL    HW273763   9.246   6.015   8.158
90644SOL     OW73764   9.335   6.005  10.802
90644SOL    HW173765   9.296   6.092  10.804
90644SOL    HW273766   9.271   5.949  10.847
90645SOL     OW73767   7.826   7.304   8.620
90645SOL    HW173768   7.770   7.345   8.685
90645SOL    HW273769   7.915   7.328   8.646
90646SOL     OW73770   6.776   9.514   1.765
90646SOL    HW173771   6.814   9.602   1.774
90646SOL    HW273772   6.741   9.494   1.852
90647SOL     OW73773   0.662  11.783  12.693
90647SOL    HW173774   0.641  11.697  12.729
90647SOL    HW273775   0.747  11.805  12.732
90648SOL     OW73776   0.556  10.067   2.361
90648SOL    HW173777   0.596   9.993   2.314
90648SOL    HW273778   0.611  10.079   2.438
90649SOL     OW73779  10.293   9.642   0.925
90649SOL    HW173780  10.296   9.636   0.829
90649SOL    HW273781  10.385   9.641   0.952
90650SOL     OW73782   0.596   8.559   1.449
90650SOL    HW173783   0.550   8.623   1.504
90650SOL    HW273784   0.668   8.528   1.505
90651SOL     OW73785  13.633   3.647   0.823
90651SOL    HW173786  13.711   3.612   0.781
90651SOL    HW273787  13.665   3.717   0.880
90652SOL     OW73788  10.433   8.489  11.990
90652SOL    HW173789  10.339   8.504  12.000
90652SOL    HW273790  10.457   8.534  11.910
90653SOL     OW73791  13.080   5.325  10.535
90653SOL    HW173792  13.039   5.318  10.621
90653SOL    HW273793  13.165   5.365  10.553
90654SOL     OW73794   8.654   7.255   0.315
90654SOL    HW173795   8.677   7.329   0.371
90654SOL    HW273796   8.706   7.182   0.349
90655SOL     OW73797   0.818   7.839   8.025
90655SOL    HW173798   0.793   7.787   7.948
90655SOL    HW273799   0.871   7.780   8.078
90656SOL     OW73800   3.065   3.476  13.646
90656SOL    HW173801   2.980   3.448  13.681
90656SOL    HW273802   3.130   3.432  13.700
90657SOL     OW73803  11.326   3.747   4.527
90657SOL    HW173804  11.265   3.677   4.505
90657SOL    HW273805  11.271   3.826   4.531
90658SOL     OW73806  13.841   7.390   1.884
90658SOL    HW173807  13.905   7.358   1.821
90658SOL    HW273808  13.870   7.355   1.968
90659SOL     OW73809  13.897   3.434   2.346
90659SOL    HW173810  13.950   3.359   2.373
90659SOL    HW273811  13.825   3.436   2.408
90660SOL     OW73812   4.238  14.293   2.249
90660SOL    HW173813   4.277  14.300   2.162
90660SOL    HW273814   4.312  14.271   2.306
90661SOL     OW73815   1.129   1.670   0.724
90661SOL    HW173816   1.164   1.599   0.778
90661SOL    HW273817   1.074   1.626   0.660
90662SOL     OW73818   6.246   9.253   5.585
90662SOL    HW173819   6.267   9.236   5.677
90662SOL    HW273820   6.238   9.165   5.546
90663SOL     OW73821  13.486  13.533  13.578
90663SOL    HW173822  13.581  13.534  13.590
90663SOL    HW273823  13.461  13.626  13.577
90664SOL     OW73824   6.768   1.349   7.800
90664SOL    HW173825   6.817   1.381   7.725
90664SOL    HW273826   6.798   1.259   7.812
90665SOL     OW73827  11.465   2.636   4.100
90665SOL    HW173828  11.410   2.566   4.063
90665SOL    HW273829  11.402   2.703   4.127
90666SOL     OW73830   7.221   2.371  10.604
90666SOL    HW173831   7.188   2.427  10.675
90666SOL    HW273832   7.314   2.393  10.598
90667SOL     OW73833   1.887   7.192  11.693
90667SOL    HW173834   1.981   7.177  11.710
90667SOL    HW273835   1.850   7.206  11.780
90668SOL     OW73836   1.807   2.557   7.920
90668SOL    HW173837   1.811   2.531   7.827
90668SOL    HW273838   1.729   2.514   7.953
90669SOL     OW73839   0.601  14.017   4.498
90669SOL    HW173840   0.539  14.020   4.570
90669SOL    HW273841   0.683  13.987   4.538
90670SOL     OW73842   3.754   6.791  12.308
90670SOL    HW173843   3.692   6.862  12.326
90670SOL    HW273844   3.777   6.757  12.394
90671SOL     OW73845  13.297   8.927  13.463
90671SOL    HW173846  13.322   8.864  13.396
90671SOL    HW273847  13.343   8.898  13.542
90672SOL     OW73848   7.098   1.010  14.632
90672SOL    HW173849   7.056   0.928  14.606
90672SOL    HW273850   7.027   1.074  14.634
90673SOL     OW73851   3.529  11.880   3.880
90673SOL    HW173852   3.531  11.922   3.794
90673SOL    HW273853   3.525  11.953   3.942
90674SOL     OW73854   3.899   9.214   2.115
90674SOL    HW173855   3.885   9.229   2.021
90674SOL    HW273856   3.920   9.301   2.149
90675SOL     OW73857  12.959   8.954   8.851
90675SOL    HW173858  12.909   8.949   8.769
90675SOL    HW273859  12.966   8.863   8.880
90676SOL     OW73860  11.258  14.697   6.755
90676SOL    HW173861  11.244  14.717   6.847
90676SOL    HW273862  11.310  14.617   6.755
90677SOL     OW73863   2.019  14.617  11.627
90677SOL    HW173864   1.941  14.562  11.622
90677SOL    HW273865   2.019  14.667  11.546
90678SOL     OW73866  11.811   5.378   0.992
90678SOL    HW173867  11.757   5.430   0.932
90678SOL    HW273868  11.820   5.433   1.070
90679SOL     OW73869   6.981   2.555   7.689
90679SOL    HW173870   6.973   2.593   7.601
90679SOL    HW273871   6.973   2.629   7.748
90680SOL     OW73872   9.169  10.055   9.616
90680SOL    HW173873   9.166  10.116   9.542
90680SOL    HW273874   9.144  10.109   9.692
90681SOL     OW73875   5.830   5.225  11.681
90681SOL    HW173876   5.892   5.168  11.636
90681SOL    HW273877   5.874   5.310  11.684
90682SOL     OW73878  10.552   6.793   5.729
90682SOL    HW173879  10.622   6.802   5.795
90682SOL    HW273880  10.559   6.702   5.701
90683SOL     OW73881   6.637   7.451  14.869
90683SOL    HW173882   6.605   7.396  14.798
90683SOL    HW273883   6.721   7.410   0.021
90684SOL     OW73884   9.720   9.134   0.917
90684SOL    HW173885   9.696   9.089   0.998
90684SOL    HW273886   9.799   9.183   0.939
90685SOL     OW73887   5.634   8.430   7.966
90685SOL    HW173888   5.676   8.485   7.900
90685SOL    HW273889   5.554   8.400   7.924
90686SOL     OW73890  11.613   8.489  10.697
90686SOL    HW173891  11.629   8.580  10.723
90686SOL    HW273892  11.518   8.483  10.689
90687SOL     OW73893  14.102  12.124  13.064
90687SOL    HW173894  14.041  12.105  12.992
90687SOL    HW273895  14.173  12.172  13.023
90688SOL     OW73896   2.931   8.858   0.012
90688SOL    HW173897   2.935   8.886   0.104
90688SOL    HW273898   3.015   8.815  14.869
90689SOL     OW73899   2.563   4.674   2.877
90689SOL    HW173900   2.561   4.584   2.909
90689SOL    HW273901   2.471   4.703   2.882
90690SOL     OW73902   5.681   7.179   0.079
90690SOL    HW173903   5.609   7.199   0.139
90690SOL    HW273904   5.649   7.207  14.866
90691SOL     OW73905   0.629   9.532   4.627
90691SOL    HW173906   0.697   9.576   4.576
90691SOL    HW273907   0.551   9.584   4.612
90692SOL     OW73908   9.177  10.903   5.003
90692SOL    HW173909   9.127  10.928   5.081
90692SOL    HW273910   9.110  10.879   4.938
90693SOL     OW73911   4.954   0.964   2.213
90693SOL    HW173912   4.914   1.025   2.276
90693SOL    HW273913   5.040   1.002   2.195
90694SOL     OW73914   6.136   2.382  11.571
90694SOL    HW173915   6.122   2.436  11.649
90694SOL    HW273916   6.077   2.307  11.582
90695SOL     OW73917   5.310   9.447   3.159
90695SOL    HW173918   5.377   9.379   3.160
90695SOL    HW273919   5.335   9.505   3.087
90696SOL     OW73920   3.424   7.358  14.824
90696SOL    HW173921   3.350   7.313  14.865
90696SOL    HW273922   3.500   7.303  14.842
90697SOL     OW73923   5.767  14.075   9.930
90697SOL    HW173924   5.824  14.150   9.916
90697SOL    HW273925   5.678  14.111   9.920
90698SOL     OW73926   5.319   6.660   7.017
90698SOL    HW173927   5.249   6.655   7.083
90698SOL    HW273928   5.278   6.626   6.938
90699SOL     OW73929  12.658   6.735  11.917
90699SOL    HW173930  12.584   6.767  11.968
90699SOL    HW273931  12.719   6.699  11.982
90700SOL     OW73932  12.543   4.470   2.742
90700SOL    HW173933  12.578   4.390   2.781
90700SOL    HW273934  12.484   4.440   2.674
90701SOL     OW73935   7.340   5.838  12.873
90701SOL    HW173936   7.391   5.763  12.903
90701SOL    HW273937   7.252   5.804  12.859
90702SOL     OW73938  10.891   8.235  11.059
90702SOL    HW173939  10.899   8.144  11.087
90702SOL    HW273940  10.797   8.253  11.062
90703SOL     OW73941   1.012   0.626  10.391
90703SOL    HW173942   1.058   0.554  10.434
90703SOL    HW273943   0.985   0.591  10.306
90704SOL     OW73944  13.335   6.140   5.500
90704SOL    HW173945  13.330   6.055   5.457
90704SOL    HW273946  13.345   6.203   5.429
90705SOL     OW73947  13.875  11.145   0.445
90705SOL    HW173948  13.963  11.138   0.480
90705SOL    HW273949  13.841  11.228   0.480
90706SOL     OW73950  13.471   6.393   9.893
90706SOL    HW173951  13.467   6.357   9.804
90706SOL    HW273952  13.421   6.331   9.946
90707SOL     OW73953   2.735   1.387   8.675
90707SOL    HW173954   2.776   1.307   8.710
90707SOL    HW273955   2.650   1.358   8.643
90708SOL     OW73956   7.197   5.542   1.557
90708SOL    HW173957   7.239   5.539   1.471
90708SOL    HW273958   7.258   5.590   1.612
90709SOL     OW73959   5.371   3.442  13.066
90709SOL    HW173960   5.447   3.390  13.092
90709SOL    HW273961   5.302   3.377  13.051
90710SOL     OW73962   2.363   7.938   4.839
90710SOL    HW173963   2.353   7.984   4.923
90710SOL    HW273964   2.445   7.889   4.848
90711SOL     OW73965   1.555  13.908  12.539
90711SOL    HW173966   1.523  13.977  12.480
90711SOL    HW273967   1.520  13.933  12.625
90712SOL     OW73968   6.254  13.328   0.480
90712SOL    HW173969   6.159  13.336   0.491
90712SOL    HW273970   6.269  13.350   0.388
90713SOL     OW73971   7.616   5.738   9.354
90713SOL    HW173972   7.601   5.804   9.421
90713SOL    HW273973   7.709   5.717   9.362
90714SOL     OW73974   9.403   9.867   1.980
90714SOL    HW173975   9.429   9.777   1.997
90714SOL    HW273976   9.361   9.864   1.894
90715SOL     OW73977   9.673   8.710   8.948
90715SOL    HW173978   9.747   8.651   8.963
90715SOL    HW273979   9.713   8.796   8.940
90716SOL     OW73980   5.343   6.622   5.184
90716SOL    HW173981   5.369   6.599   5.094
90716SOL    HW273982   5.250   6.642   5.178
90717SOL     OW73983  12.932   9.302   5.884
90717SOL    HW173984  12.961   9.213   5.866
90717SOL    HW273985  12.846   9.308   5.842
90718SOL     OW73986  14.763   9.886  12.211
90718SOL    HW173987  14.853   9.905  12.186
90718SOL    HW273988  14.713   9.892  12.129
90719SOL     OW73989   2.733  11.469  13.231
90719SOL    HW173990   2.777  11.406  13.173
90719SOL    HW273991   2.765  11.447  13.319
90720SOL     OW73992   3.545  11.197   3.962
90720SOL    HW173993   3.535  11.120   3.905
90720SOL    HW273994   3.455  11.222   3.983
90721SOL     OW73995   0.834   2.396  10.790
90721SOL    HW173996   0.906   2.433  10.739
90721SOL    HW273997   0.768   2.466  10.793
90722SOL     OW73998   6.752   7.772   9.286
90722SOL    HW173999   6.786   7.798   9.372
90722SOL    HW274000   6.665   7.813   9.282
90723SOL     OW74001  14.416   4.852   1.353
90723SOL    HW174002  14.325   4.880   1.354
90723SOL    HW274003  14.465   4.931   1.330
90724SOL     OW74004   0.565   8.783   6.145
90724SOL    HW174005   0.653   8.749   6.160
90724SOL    HW274006   0.578   8.876   6.130
90725SOL     OW74007   8.214   9.249  12.057
90725SOL    HW174008   8.269   9.176  12.083
90725SOL    HW274009   8.270   9.326  12.065
90726SOL     OW74010  12.300   5.474   6.840
90726SOL    HW174011  12.342   5.558   6.822
90726SOL    HW274012  12.336   5.415   6.773
90727SOL     OW74013  10.677   2.061   6.589
90727SOL    HW174014  10.661   2.140   6.640
90727SOL    HW274015  10.596   2.010   6.599
90728SOL     OW74016   1.429   9.845   1.739
90728SOL    HW174017   1.406   9.937   1.753
90728SOL    HW274018   1.346   9.798   1.747
90729SOL     OW74019   0.264   2.792   4.211
90729SOL    HW174020   0.305   2.795   4.125
90729SOL    HW274021   0.179   2.833   4.199
90730SOL     OW74022   6.638  11.711   6.005
90730SOL    HW174023   6.713  11.653   6.016
90730SOL    HW274024   6.562  11.655   6.023
90731SOL     OW74025   4.576   0.437  11.806
90731SOL    HW174026   4.660   0.448  11.850
90731SOL    HW274027   4.587   0.358  11.753
90732SOL     OW74028   8.019   0.904  10.213
90732SOL    HW174029   8.057   0.856  10.139
90732SOL    HW274030   7.974   0.978  10.172
90733SOL     OW74031   1.726   6.173   0.648
90733SOL    HW174032   1.789   6.128   0.704
90733SOL    HW274033   1.765   6.171   0.561
90734SOL     OW74034  10.948  14.783   6.222
90734SOL    HW174035  10.914  14.755   6.137
90734SOL    HW274036  10.874  14.828   6.264
90735SOL     OW74037   3.329  12.815   9.978
90735SOL    HW174038   3.395  12.746   9.976
90735SOL    HW274039   3.247  12.770   9.956
90736SOL     OW74040   2.625  13.159  12.988
90736SOL    HW174041   2.671  13.097  13.045
90736SOL    HW274042   2.637  13.244  13.031
90737SOL     OW74043   9.093  13.418   4.160
90737SOL    HW174044   9.187  13.406   4.174
90737SOL    HW274045   9.054  13.406   4.247
90738SOL     OW74046  11.023   3.517   8.130
90738SOL    HW174047  11.105   3.537   8.085
90738SOL    HW274048  10.956   3.562   8.079
90739SOL     OW74049  10.983  10.013   7.781
90739SOL    HW174050  10.909  10.050   7.733
90739SOL    HW274051  11.052  10.079   7.772
90740SOL     OW74052  10.548  14.166  12.558
90740SOL    HW174053  10.603  14.123  12.493
90740SOL    HW274054  10.554  14.259  12.536
90741SOL     OW74055  13.156  14.435   5.832
90741SOL    HW174056  13.204  14.517   5.842
90741SOL    HW274057  13.164  14.413   5.739
90742SOL     OW74058   5.182  11.675   8.560
90742SOL    HW174059   5.152  11.646   8.646
90742SOL    HW274060   5.278  11.672   8.566
90743SOL     OW74061  11.178   7.383   7.023
90743SOL    HW174062  11.263   7.362   7.062
90743SOL    HW274063  11.122   7.406   7.097
90744SOL     OW74064   8.571   1.759   6.698
90744SOL    HW174065   8.478   1.777   6.682
90744SOL    HW274066   8.602   1.835   6.747
90745SOL     OW74067   2.869   7.361  12.555
90745SOL    HW174068   2.807   7.352  12.483
90745SOL    HW274069   2.955   7.357  12.514
90746SOL     OW74070   6.660   0.307   7.760
90746SOL    HW174071   6.702   0.380   7.806
90746SOL    HW274072   6.621   0.254   7.829
90747SOL     OW74073   3.154   3.638   4.417
90747SOL    HW174074   3.133   3.731   4.405
90747SOL    HW274075   3.190   3.611   4.333
90748SOL     OW74076   9.180  11.929  11.015
90748SOL    HW174077   9.098  11.975  11.002
90748SOL    HW274078   9.244  11.999  11.032
90749SOL     OW74079  12.132   8.556  12.886
90749SOL    HW174080  12.174   8.472  12.907
90749SOL    HW274081  12.193   8.600  12.828
90750SOL     OW74082   5.755   7.767   2.831
90750SOL    HW174083   5.784   7.764   2.922
90750SOL    HW274084   5.793   7.688   2.791
90751SOL     OW74085  12.067   1.601   1.370
90751SOL    HW174086  11.998   1.547   1.331
90751SOL    HW274087  12.089   1.665   1.303
90752SOL     OW74088   6.053   3.872   3.669
90752SOL    HW174089   6.065   3.963   3.642
90752SOL    HW274090   6.133   3.851   3.719
90753SOL     OW74091  14.834   4.427  10.901
90753SOL    HW174092   0.046   4.452  10.864
90753SOL    HW274093  14.781   4.403  10.825
90754SOL     OW74094  14.323   4.232   3.959
90754SOL    HW174095  14.301   4.211   3.868
90754SOL    HW274096  14.398   4.176   3.979
90755SOL     OW74097   8.858   6.781   3.854
90755SOL    HW174098   8.894   6.868   3.834
90755SOL    HW274099   8.877   6.728   3.777
90756SOL     OW74100   8.295  11.570   1.383
90756SOL    HW174101   8.288  11.488   1.432
90756SOL    HW274102   8.239  11.632   1.431
90757SOL     OW74103  12.111  10.892   4.424
90757SOL    HW174104  12.023  10.891   4.462
90757SOL    HW274105  12.137  10.984   4.426
90758SOL     OW74106   6.281   9.356   4.709
90758SOL    HW174107   6.286   9.366   4.614
90758SOL    HW274108   6.220   9.424   4.736
90759SOL     OW74109   5.906   6.755   4.486
90759SOL    HW174110   5.944   6.671   4.460
90759SOL    HW274111   5.852   6.782   4.410
90760SOL     OW74112   3.015   6.415  11.981
90760SOL    HW174113   3.109   6.396  11.978
90760SOL    HW274114   2.974   6.329  11.990
90761SOL     OW74115   7.552   8.570  13.263
90761SOL    HW174116   7.638   8.557  13.304
90761SOL    HW274117   7.495   8.509  13.309
90762SOL     OW74118   5.932  11.960   3.349
90762SOL    HW174119   5.953  11.890   3.288
90762SOL    HW274120   5.979  12.036   3.314
90763SOL     OW74121   7.818   7.498  13.126
90763SOL    HW174122   7.785   7.421  13.080
90763SOL    HW274123   7.882   7.536  13.065
90764SOL     OW74124   7.540   9.947   0.431
90764SOL    HW174125   7.480  10.014   0.466
90764SOL    HW274126   7.612   9.945   0.494
90765SOL     OW74127  11.754   8.827  14.650
90765SOL    HW174128  11.842   8.809  14.616
90765SOL    HW274129  11.745   8.768  14.725
90766SOL     OW74130  12.446   3.674   9.027
90766SOL    HW174131  12.419   3.608   9.090
90766SOL    HW274132  12.540   3.658   9.015
90767SOL     OW74133   9.389   2.136   0.815
90767SOL    HW174134   9.475   2.103   0.787
90767SOL    HW274135   9.406   2.178   0.899
90768SOL     OW74136   6.412   0.869   8.925
90768SOL    HW174137   6.386   0.880   8.833
90768SOL    HW274138   6.489   0.813   8.921
90769SOL     OW74139   4.308   9.512   1.302
90769SOL    HW174140   4.389   9.563   1.296
90769SOL    HW274141   4.290   9.508   1.396
90770SOL     OW74142  14.324   0.088   0.194
90770SOL    HW174143  14.402   0.035   0.211
90770SOL    HW274144  14.311   0.138   0.275
90771SOL     OW74145   3.811   1.842  10.836
90771SOL    HW174146   3.790   1.933  10.815
90771SOL    HW274147   3.864   1.848  10.916
90772SOL     OW74148  11.928  13.715   7.862
90772SOL    HW174149  11.995  13.649   7.877
90772SOL    HW274150  11.943  13.744   7.772
90773SOL     OW74151   8.411   0.297   6.660
90773SOL    HW174152   8.499   0.263   6.677
90773SOL    HW274153   8.422   0.392   6.664
90774SOL     OW74154   6.250   7.696  10.351
90774SOL    HW174155   6.303   7.677  10.429
90774SOL    HW274156   6.294   7.649  10.280
90775SOL     OW74157   0.873   6.052   7.882
90775SOL    HW174158   0.871   5.957   7.876
90775SOL    HW274159   0.859   6.083   7.793
90776SOL     OW74160   1.771  14.592   9.557
90776SOL    HW174161   1.779  14.504   9.592
90776SOL    HW274162   1.860  14.616   9.530
90777SOL     OW74163   0.775  13.134   8.522
90777SOL    HW174164   0.703  13.132   8.585
90777SOL    HW274165   0.817  13.048   8.532
90778SOL     OW74166   3.293   4.260   8.319
90778SOL    HW174167   3.381   4.270   8.284
90778SOL    HW274168   3.256   4.348   8.316
90779SOL     OW74169   7.938  11.138   2.665
90779SOL    HW174170   7.922  11.201   2.735
90779SOL    HW274171   7.947  11.053   2.710
90780SOL     OW74172   1.106   1.373   6.096
90780SOL    HW174173   1.101   1.411   6.009
90780SOL    HW274174   1.065   1.438   6.153
90781SOL     OW74175   8.547   6.753  12.403
90781SOL    HW174176   8.493   6.747  12.324
90781SOL    HW274177   8.517   6.832  12.447
90782SOL     OW74178  10.454  13.186   4.449
90782SOL    HW174179  10.422  13.173   4.359
90782SOL    HW274180  10.397  13.253   4.485
90783SOL     OW74181   3.521   2.917   5.206
90783SOL    HW174182   3.556   3.006   5.204
90783SOL    HW274183   3.426   2.929   5.198
90784SOL     OW74184   5.370   5.830   5.036
90784SOL    HW174185   5.314   5.830   5.114
90784SOL    HW274186   5.371   5.921   5.007
90785SOL     OW74187  10.595  13.656   8.790
90785SOL    HW174188  10.587  13.604   8.710
90785SOL    HW274189  10.684  13.692   8.788
90786SOL     OW74190  12.392   6.230   8.051
90786SOL    HW174191  12.307   6.270   8.069
90786SOL    HW274192  12.455   6.302   8.063
90787SOL     OW74193  14.323  11.590   5.426
90787SOL    HW174194  14.408  11.597   5.383
90787SOL    HW274195  14.266  11.649   5.376
90788SOL     OW74196   5.997  11.961   3.633
90788SOL    HW174197   5.991  11.868   3.655
90788SOL    HW274198   5.992  11.963   3.538
90789SOL     OW74199   3.702   1.577   1.478
90789SOL    HW174200   3.760   1.570   1.554
90789SOL    HW274201   3.615   1.591   1.516
90790SOL     OW74202  13.347   3.003  11.260
90790SOL    HW174203  13.360   2.919  11.305
90790SOL    HW274204  13.277   2.986  11.197
90791SOL     OW74205   7.460   3.045  12.678
90791SOL    HW174206   7.484   2.955  12.701
90791SOL    HW274207   7.507   3.099  12.742
90792SOL     OW74208   5.671   3.152   3.573
90792SOL    HW174209   5.688   3.058   3.573
90792SOL    HW274210   5.577   3.159   3.557
90793SOL     OW74211   5.358  14.512  14.838
90793SOL    HW174212   5.448  14.526  14.867
90793SOL    HW274213   5.319  14.459   0.034
90794SOL     OW74214   7.733   6.731   1.240
90794SOL    HW174215   7.789   6.714   1.165
90794SOL    HW274216   7.743   6.654   1.296
90795SOL     OW74217   7.632  10.846   6.370
90795SOL    HW174218   7.707  10.804   6.328
90795SOL    HW274219   7.619  10.927   6.322
90796SOL     OW74220  14.647   3.819   6.161
90796SOL    HW174221  14.584   3.841   6.092
90796SOL    HW274222  14.721   3.878   6.145
90797SOL     OW74223   3.642  13.645   5.306
90797SOL    HW174224   3.551  13.635   5.334
90797SOL    HW274225   3.683  13.695   5.376
90798SOL     OW74226   0.502  11.688  10.476
90798SOL    HW174227   0.587  11.705  10.436
90798SOL    HW274228   0.504  11.736  10.559
90799SOL     OW74229  13.360   2.935   2.531
90799SOL    HW174230  13.445   2.930   2.575
90799SOL    HW274231  13.297   2.901   2.595
90800SOL     OW74232   9.167   0.403   0.923
90800SOL    HW174233   9.099   0.411   0.856
90800SOL    HW274234   9.165   0.487   0.969
90801SOL     OW74235  10.187   8.238   5.660
90801SOL    HW174236  10.137   8.319   5.654
90801SOL    HW274237  10.276   8.267   5.683
90802SOL     OW74238  12.775   7.306   4.673
90802SOL    HW174239  12.849   7.288   4.615
90802SOL    HW274240  12.740   7.390   4.642
90803SOL     OW74241   6.036  13.975   1.773
90803SOL    HW174242   6.008  14.056   1.729
90803SOL    HW274243   5.957  13.921   1.776
90804SOL     OW74244   9.774  14.868  12.900
90804SOL    HW174245   9.855   0.043  12.880
90804SOL    HW274246   9.801  14.778  12.913
90805SOL     OW74247  11.715  11.281   4.112
90805SOL    HW174248  11.660  11.349   4.073
90805SOL    HW274249  11.667  11.252   4.190
90806SOL     OW74250   6.241   4.382   9.170
90806SOL    HW174251   6.297   4.389   9.093
90806SOL    HW274252   6.275   4.447   9.231
90807SOL     OW74253   7.830  10.017   1.772
90807SOL    HW174254   7.921  10.042   1.758
90807SOL    HW274255   7.834   9.951   1.842
90808SOL     OW74256   6.454  12.919  11.299
90808SOL    HW174257   6.524  12.859  11.324
90808SOL    HW274258   6.493  12.975  11.232
90809SOL     OW74259   3.415  12.781  10.375
90809SOL    HW174260   3.510  12.783  10.360
90809SOL    HW274261   3.400  12.696  10.418
90810SOL     OW74262  14.126   6.138   8.613
90810SOL    HW174263  14.176   6.163   8.691
90810SOL    HW274264  14.118   6.219   8.562
90811SOL     OW74265   2.792   7.692   0.141
90811SOL    HW174266   2.698   7.704   0.150
90811SOL    HW274267   2.806   7.598   0.153
90812SOL     OW74268   7.643  13.007  10.374
90812SOL    HW174269   7.637  12.912  10.371
90812SOL    HW274270   7.603  13.037  10.292
90813SOL     OW74271   4.071   4.577  14.822
90813SOL    HW174272   4.048   4.504   0.008
90813SOL    HW274273   4.030   4.653  14.862
90814SOL     OW74274   5.519   4.278   0.578
90814SOL    HW174275   5.465   4.238   0.646
90814SOL    HW274276   5.529   4.369   0.606
90815SOL     OW74277  12.198  11.268  11.038
90815SOL    HW174278  12.164  11.205  10.976
90815SOL    HW274279  12.150  11.349  11.019
90816SOL     OW74280  12.203  14.532  12.242
90816SOL    HW174281  12.178  14.494  12.158
90816SOL    HW274282  12.291  14.499  12.258
90817SOL     OW74283  12.393   9.554   8.831
90817SOL    HW174284  12.409   9.588   8.919
90817SOL    HW274285  12.473   9.576   8.783
90818SOL     OW74286  12.862   0.028   5.192
90818SOL    HW174287  12.918   0.060   5.121
90818SOL    HW274288  12.795   0.095   5.203
90819SOL     OW74289   7.143   2.440   9.456
90819SOL    HW174290   7.072   2.404   9.509
90819SOL    HW274291   7.175   2.514   9.508
90820SOL     OW74292   4.780   2.886   0.791
90820SOL    HW174293   4.714   2.907   0.858
90820SOL    HW274294   4.844   2.957   0.798
90821SOL     OW74295   1.506   5.068  14.841
90821SOL    HW174296   1.508   5.106   0.056
90821SOL    HW274297   1.548   4.983  14.851
90822SOL     OW74298   0.247  13.958   1.920
90822SOL    HW174299   0.285  13.915   1.843
90822SOL    HW274300   0.236  13.888   1.984
90823SOL     OW74301   3.537   0.246   2.770
90823SOL    HW174302   3.603   0.189   2.808
90823SOL    HW274303   3.519   0.312   2.838
90824SOL     OW74304   7.039  11.184  12.206
90824SOL    HW174305   7.051  11.109  12.147
90824SOL    HW274306   7.091  11.162  12.283
90825SOL     OW74307   7.825   0.645   8.821
90825SOL    HW174308   7.738   0.629   8.786
90825SOL    HW274309   7.818   0.730   8.865
90826SOL     OW74310   7.037   0.399   2.298
90826SOL    HW174311   6.988   0.431   2.374
90826SOL    HW274312   7.124   0.380   2.332
90827SOL     OW74313   0.215  13.967   9.975
90827SOL    HW174314   0.133  14.008   9.950
90827SOL    HW274315   0.274  14.040   9.994
90828SOL     OW74316   6.266   2.689   0.248
90828SOL    HW174317   6.335   2.627   0.227
90828SOL    HW274318   6.300   2.774   0.219
90829SOL     OW74319  14.414   4.671   6.858
90829SOL    HW174320  14.483   4.695   6.920
90829SOL    HW274321  14.435   4.721   6.779
90830SOL     OW74322   9.921   1.483   1.299
90830SOL    HW174323   9.959   1.411   1.349
90830SOL    HW274324   9.827   1.477   1.315
90831SOL     OW74325   5.908  14.043   8.388
90831SOL    HW174326   5.975  14.112   8.391
90831SOL    HW274327   5.942  13.973   8.443
90832SOL     OW74328   9.994   4.192   2.482
90832SOL    HW174329  10.007   4.233   2.397
90832SOL    HW274330  10.082   4.175   2.515
90833SOL     OW74331   6.275   3.773   6.429
90833SOL    HW174332   6.230   3.854   6.404
90833SOL    HW274333   6.317   3.795   6.513
90834SOL     OW74334  13.956   4.909   2.888
90834SOL    HW174335  14.000   4.936   2.807
90834SOL    HW274336  13.862   4.911   2.866
90835SOL     OW74337  11.068   9.042  11.409
90835SOL    HW174338  11.100   9.043  11.319
90835SOL    HW274339  11.130   9.095  11.458
90836SOL     OW74340  13.186  10.108   3.239
90836SOL    HW174341  13.099  10.069   3.249
90836SOL    HW274342  13.172  10.202   3.251
90837SOL     OW74343   2.989   0.931   7.916
90837SOL    HW174344   3.043   0.868   7.965
90837SOL    HW274345   2.924   0.961   7.980
90838SOL     OW74346  12.563   8.539   2.688
90838SOL    HW174347  12.659   8.541   2.681
90838SOL    HW274348  12.546   8.527   2.781
90839SOL     OW74349   7.840   4.481  11.086
90839SOL    HW174350   7.802   4.487  11.174
90839SOL    HW274351   7.766   4.486  11.027
90840SOL     OW74352   3.455   2.738  13.159
90840SOL    HW174353   3.478   2.684  13.083
90840SOL    HW274354   3.508   2.817  13.149
90841SOL     OW74355   8.851   8.852   0.268
90841SOL    HW174356   8.926   8.833   0.324
90841SOL    HW274357   8.776   8.812   0.313
90842SOL     OW74358  12.194   5.155   6.811
90842SOL    HW174359  12.266   5.176   6.870
90842SOL    HW274360  12.115   5.168   6.863
90843SOL     OW74361   3.458   9.835   1.454
90843SOL    HW174362   3.487   9.807   1.541
90843SOL    HW274363   3.527   9.803   1.395
90844SOL     OW74364   0.939  12.971  13.962
90844SOL    HW174365   0.946  12.880  13.934
90844SOL    HW274366   0.940  12.967  14.057
90845SOL     OW74367   8.212   4.951  14.406
90845SOL    HW174368   8.134   5.006  14.406
90845SOL    HW274369   8.283   5.012  14.427
90846SOL     OW74370  11.216   9.377   5.728
90846SOL    HW174371  11.179   9.362   5.641
90846SOL    HW274372  11.308   9.398   5.712
90847SOL     OW74373  12.934  12.562  10.214
90847SOL    HW174374  12.995  12.555  10.140
90847SOL    HW274375  12.849  12.578  10.173
90848SOL     OW74376   6.945  11.595  10.614
90848SOL    HW174377   6.955  11.645  10.694
90848SOL    HW274378   6.904  11.512  10.641
90849SOL     OW74379   6.015   4.645  13.166
90849SOL    HW174380   6.036   4.611  13.253
90849SOL    HW274381   5.984   4.734  13.183
90850SOL     OW74382   3.551   2.355  10.328
90850SOL    HW174383   3.592   2.269  10.333
90850SOL    HW274384   3.618   2.412  10.292
90851SOL     OW74385   1.540   5.620   0.862
90851SOL    HW174386   1.509   5.668   0.939
90851SOL    HW274387   1.569   5.688   0.801
90852SOL     OW74388   4.553  11.809   4.028
90852SOL    HW174389   4.547  11.863   3.950
90852SOL    HW274390   4.637  11.763   4.019
90853SOL     OW74391   1.836   8.428   1.174
90853SOL    HW174392   1.754   8.475   1.159
90853SOL    HW274393   1.900   8.474   1.120
90854SOL     OW74394   1.798   5.683  13.685
90854SOL    HW174395   1.720   5.732  13.711
90854SOL    HW274396   1.803   5.695  13.590
90855SOL     OW74397   4.802  10.281  11.416
90855SOL    HW174398   4.745  10.301  11.342
90855SOL    HW274399   4.761  10.323  11.491
90856SOL     OW74400   3.459   3.601  11.533
90856SOL    HW174401   3.416   3.559  11.458
90856SOL    HW274402   3.544   3.628  11.500
90857SOL     OW74403   0.155  14.171   0.223
90857SOL    HW174404   0.244  14.136   0.228
90857SOL    HW274405   0.164  14.264   0.242
90858SOL     OW74406   3.394  12.835   6.731
90858SOL    HW174407   3.301  12.855   6.746
90858SOL    HW274408   3.400  12.817   6.637
90859SOL     OW74409   8.083   1.214   3.438
90859SOL    HW174410   8.073   1.284   3.503
90859SOL    HW274411   8.007   1.158   3.450
90860SOL     OW74412   7.330  11.284   5.943
90860SOL    HW174413   7.346  11.211   5.884
90860SOL    HW274414   7.411  11.335   5.941
90861SOL     OW74415   8.151   4.805   7.494
90861SOL    HW174416   8.151   4.825   7.588
90861SOL    HW274417   8.103   4.722   7.487
90862SOL     OW74418   8.887   5.507  12.865
90862SOL    HW174419   8.871   5.450  12.790
90862SOL    HW274420   8.829   5.582  12.851
90863SOL     OW74421   0.464   3.435  12.385
90863SOL    HW174422   0.405   3.383  12.438
90863SOL    HW274423   0.529   3.469  12.448
90864SOL     OW74424  13.954   3.959   8.402
90864SOL    HW174425  14.036   4.007   8.395
90864SOL    HW274426  13.887   4.027   8.405
90865SOL     OW74427   9.140  10.993  13.005
90865SOL    HW174428   9.218  10.972  13.056
90865SOL    HW274429   9.067  10.977  13.065
90866SOL     OW74430   9.166  14.642  11.287
90866SOL    HW174431   9.164  14.598  11.202
90866SOL    HW274432   9.117  14.723  11.272
90867SOL     OW74433   7.500   2.148   1.109
90867SOL    HW174434   7.421   2.113   1.068
90867SOL    HW274435   7.487   2.243   1.111
90868SOL     OW74436   8.053   2.477  13.554
90868SOL    HW174437   8.117   2.465  13.625
90868SOL    HW274438   8.105   2.470  13.474
90869SOL     OW74439   6.550   2.741   2.469
90869SOL    HW174440   6.575   2.696   2.550
90869SOL    HW274441   6.590   2.689   2.399
90870SOL     OW74442  10.221  10.385  13.926
90870SOL    HW174443  10.251  10.363  14.014
90870SOL    HW274444  10.272  10.328  13.868
90871SOL     OW74445   5.169  10.080   9.138
90871SOL    HW174446   5.079  10.048   9.144
90871SOL    HW274447   5.164  10.172   9.163
90872SOL     OW74448   0.621  12.031   5.127
90872SOL    HW174449   0.710  12.057   5.106
90872SOL    HW274450   0.623  12.009   5.220
90873SOL     OW74451   7.754   3.308  14.803
90873SOL    HW174452   7.701   3.327  14.726
90873SOL    HW274453   7.784   3.218  14.791
90874SOL     OW74454   5.513  11.374   7.843
90874SOL    HW174455   5.446  11.306   7.837
90874SOL    HW274456   5.465  11.452   7.869
90875SOL     OW74457   4.166  10.392  11.229
90875SOL    HW174458   4.144  10.348  11.147
90875SOL    HW274459   4.219  10.467  11.203
90876SOL     OW74460  12.765   8.034  11.852
90876SOL    HW174461  12.843   8.019  11.798
90876SOL    HW274462  12.705   8.081  11.794
90877SOL     OW74463  12.385   3.323   0.863
90877SOL    HW174464  12.295   3.334   0.832
90877SOL    HW274465  12.397   3.393   0.927
90878SOL     OW74466  11.383  11.091   9.145
90878SOL    HW174467  11.310  11.147   9.172
90878SOL    HW274468  11.452  11.108   9.210
90879SOL     OW74469   8.030   8.897   4.486
90879SOL    HW174470   7.942   8.934   4.484
90879SOL    HW274471   8.024   8.818   4.433
90880SOL     OW74472   8.174  13.834  14.569
90880SOL    HW174473   8.092  13.793  14.597
90880SOL    HW274474   8.236  13.762  14.561
90881SOL     OW74475  12.839   5.249  10.402
90881SOL    HW174476  12.926   5.285  10.418
90881SOL    HW274477  12.787   5.324  10.373
90882SOL     OW74478   8.617   7.390   7.285
90882SOL    HW174479   8.606   7.482   7.308
90882SOL    HW274480   8.576   7.342   7.357
90883SOL     OW74481   7.409   6.208  12.021
90883SOL    HW174482   7.326   6.249  11.994
90883SOL    HW274483   7.382   6.127  12.065
90884SOL     OW74484  13.407   8.141   8.826
90884SOL    HW174485  13.373   8.065   8.779
90884SOL    HW274486  13.366   8.216   8.783
90885SOL     OW74487   4.096  12.723   7.011
90885SOL    HW174488   4.130  12.634   7.017
90885SOL    HW274489   4.076  12.747   7.102
90886SOL     OW74490   6.079   5.979  10.103
90886SOL    HW174491   6.137   6.013  10.170
90886SOL    HW274492   6.005   6.040  10.102
90887SOL     OW74493   5.457   4.566  13.400
90887SOL    HW174494   5.459   4.478  13.436
90887SOL    HW274495   5.488   4.622  13.471
90888SOL     OW74496   7.610   9.334  12.288
90888SOL    HW174497   7.558   9.413  12.298
90888SOL    HW274498   7.596   9.285  12.369
90889SOL     OW74499   2.953   7.659   4.775
90889SOL    HW174500   2.993   7.604   4.708
90889SOL    HW274501   2.903   7.598   4.830
90890SOL     OW74502   9.617   0.001   7.606
90890SOL    HW174503   9.646   0.089   7.627
90890SOL    HW274504   9.669  14.817   7.662
90891SOL     OW74505   6.064   0.250   8.036
90891SOL    HW174506   6.115   0.275   7.959
90891SOL    HW274507   6.063   0.154   8.033
90892SOL     OW74508   5.026  14.773  14.365
90892SOL    HW174509   5.079  14.850  14.346
90892SOL    HW274510   5.000  14.783  14.456
90893SOL     OW74511   6.211  14.549  11.752
90893SOL    HW174512   6.282  14.490  11.776
90893SOL    HW274513   6.136  14.517  11.803
90894SOL     OW74514   5.298   4.772  10.999
90894SOL    HW174515   5.298   4.866  10.981
90894SOL    HW274516   5.278   4.731  10.915
90895SOL     OW74517   1.617   1.100   7.322
90895SOL    HW174518   1.644   1.130   7.235
90895SOL    HW274519   1.700   1.079   7.366
90896SOL     OW74520   7.743  11.877   4.841
90896SOL    HW174521   7.713  11.927   4.765
90896SOL    HW274522   7.736  11.785   4.814
90897SOL     OW74523   9.580   8.004   2.884
90897SOL    HW174524   9.585   8.053   2.966
90897SOL    HW274525   9.612   8.065   2.818
90898SOL     OW74526  10.051   4.260   5.347
90898SOL    HW174527  10.115   4.312   5.299
90898SOL    HW274528  10.096   4.178   5.366
90899SOL     OW74529   6.095  13.621  11.136
90899SOL    HW174530   6.000  13.616  11.123
90899SOL    HW274531   6.126  13.534  11.112
90900SOL     OW74532   7.923   8.694   0.848
90900SOL    HW174533   8.016   8.675   0.852
90900SOL    HW274534   7.891   8.682   0.937
90901SOL     OW74535   0.976  11.617   3.265
90901SOL    HW174536   0.937  11.626   3.352
90901SOL    HW274537   1.057  11.568   3.280
90902SOL     OW74538   0.667  12.506  11.896
90902SOL    HW174539   0.739  12.563  11.922
90902SOL    HW274540   0.671  12.433  11.958
90903SOL     OW74541   3.786  11.972   0.642
90903SOL    HW174542   3.718  11.935   0.585
90903SOL    HW274543   3.763  12.064   0.650
90904SOL     OW74544   6.047   8.451   8.273
90904SOL    HW174545   5.965   8.495   8.296
90904SOL    HW274546   6.042   8.439   8.178
90905SOL     OW74547  10.507   4.811  14.585
90905SOL    HW174548  10.501   4.728  14.537
90905SOL    HW274549  10.418   4.847  14.581
90906SOL     OW74550   0.658  14.155   9.349
90906SOL    HW174551   0.581  14.158   9.291
90906SOL    HW274552   0.622  14.135   9.435
90907SOL     OW74553   9.217   0.794  10.125
90907SOL    HW174554   9.127   0.804  10.155
90907SOL    HW274555   9.261   0.875  10.150
90908SOL     OW74556  12.764   9.854   9.395
90908SOL    HW174557  12.741   9.762   9.384
90908SOL    HW274558  12.711   9.900   9.330
90909SOL     OW74559   8.949  14.034   3.640
90909SOL    HW174560   8.932  13.951   3.595
90909SOL    HW274561   8.902  14.099   3.588
90910SOL     OW74562   1.176   4.112  11.694
90910SOL    HW174563   1.108   4.075  11.750
90910SOL    HW274564   1.177   4.206  11.717
90911SOL     OW74565   9.425  13.608   8.960
90911SOL    HW174566   9.381  13.544   8.903
90911SOL    HW274567   9.386  13.593   9.046
90912SOL     OW74568   9.901  14.642   3.966
90912SOL    HW174569   9.906  14.619   3.873
90912SOL    HW274570   9.973  14.702   3.980
90913SOL     OW74571   4.814   1.308  13.833
90913SOL    HW174572   4.721   1.332  13.831
90913SOL    HW274573   4.843   1.319  13.743
90914SOL     OW74574  12.160   3.022   9.143
90914SOL    HW174575  12.161   3.094   9.080
90914SOL    HW274576  12.247   2.983   9.137
90915SOL     OW74577   5.221   6.798   6.426
90915SOL    HW174578   5.231   6.844   6.342
90915SOL    HW274579   5.193   6.710   6.401
90916SOL     OW74580   5.615   7.563   3.257
90916SOL    HW174581   5.544   7.535   3.199
90916SOL    HW274582   5.659   7.482   3.283
90917SOL     OW74583  14.385  14.737   2.392
90917SOL    HW174584  14.437  14.734   2.312
90917SOL    HW274585  14.448  14.723   2.462
90918SOL     OW74586  13.089   1.331   0.873
90918SOL    HW174587  13.008   1.281   0.881
90918SOL    HW274588  13.091   1.387   0.951
90919SOL     OW74589   9.982  12.446  14.856
90919SOL    HW174590  10.058  12.411   0.029
90919SOL    HW274591  10.001  12.432  14.763
90920SOL     OW74592   3.416  13.004   2.646
90920SOL    HW174593   3.466  12.932   2.607
90920SOL    HW274594   3.481  13.074   2.656
90921SOL     OW74595  13.290   8.614   7.376
90921SOL    HW174596  13.340   8.678   7.326
90921SOL    HW274597  13.352   8.579   7.440
90922SOL     OW74598   2.474   1.190   1.860
90922SOL    HW174599   2.480   1.285   1.867
90922SOL    HW274600   2.427   1.163   1.939
90923SOL     OW74601   1.765  11.833  13.359
90923SOL    HW174602   1.825  11.862  13.428
90923SOL    HW274603   1.718  11.759  13.397
90924SOL     OW74604   0.867   8.354  12.462
90924SOL    HW174605   0.781   8.357  12.420
90924SOL    HW274606   0.871   8.435  12.513
90925SOL     OW74607   1.865  11.994   3.897
90925SOL    HW174608   1.940  12.051   3.914
90925SOL    HW274609   1.900  11.905   3.908
90926SOL     OW74610   4.781   6.570   3.171
90926SOL    HW174611   4.688   6.548   3.181
90926SOL    HW274612   4.818   6.557   3.258
90927SOL     OW74613  10.113   5.966  14.062
90927SOL    HW174614  10.163   5.985  13.982
90927SOL    HW274615  10.119   6.046  14.113
90928SOL     OW74616  12.842   9.701   7.745
90928SOL    HW174617  12.747   9.710   7.738
90928SOL    HW274618  12.855   9.614   7.782
90929SOL     OW74619   4.767   5.628  11.538
90929SOL    HW174620   4.701   5.571  11.498
90929SOL    HW274621   4.792   5.582  11.618
90930SOL     OW74622  12.256   9.160  10.518
90930SOL    HW174623  12.300   9.179  10.435
90930SOL    HW274624  12.226   9.069  10.509
90931SOL     OW74625  14.617   7.394   1.789
90931SOL    HW174626  14.525   7.414   1.807
90931SOL    HW274627  14.652   7.474   1.750
90932SOL     OW74628  11.632   4.956   6.944
90932SOL    HW174629  11.581   4.968   7.024
90932SOL    HW274630  11.583   5.003   6.877
90933SOL     OW74631  14.781  10.550   5.644
90933SOL    HW174632  14.754  10.640   5.666
90933SOL    HW274633  14.863  10.562   5.596
90934SOL     OW74634   8.055  10.143  12.446
90934SOL    HW174635   8.045  10.049  12.453
90934SOL    HW274636   8.142  10.161  12.483
90935SOL     OW74637   5.197   3.535  11.792
90935SOL    HW174638   5.158   3.510  11.708
90935SOL    HW274639   5.251   3.460  11.816
90936SOL     OW74640  13.731  13.613  12.714
90936SOL    HW174641  13.701  13.699  12.742
90936SOL    HW274642  13.663  13.553  12.744
90937SOL     OW74643   0.520   0.610   9.396
90937SOL    HW174644   0.474   0.690   9.421
90937SOL    HW274645   0.555   0.628   9.309
90938SOL     OW74646  11.391   3.527  14.364
90938SOL    HW174647  11.448   3.486  14.299
90938SOL    HW274648  11.364   3.610  14.324
90939SOL     OW74649   5.840   8.901  12.297
90939SOL    HW174650   5.836   8.972  12.233
90939SOL    HW274651   5.919   8.918  12.347
90940SOL     OW74652   3.832   7.695  14.333
90940SOL    HW174653   3.767   7.717  14.399
90940SOL    HW274654   3.856   7.779  14.293
90941SOL     OW74655  10.128  10.440  13.549
90941SOL    HW174656  10.110  10.355  13.590
90941SOL    HW274657  10.222  10.440  13.532
90942SOL     OW74658   6.961   0.217   3.210
90942SOL    HW174659   6.994   0.127   3.206
90942SOL    HW274660   6.982   0.254   3.125
90943SOL     OW74661   4.777   7.864   0.661
90943SOL    HW174662   4.869   7.853   0.637
90943SOL    HW274663   4.778   7.875   0.756
90944SOL     OW74664   9.486  14.843  12.969
90944SOL    HW174665   9.442  14.800  12.895
90944SOL    HW274666   9.578  14.846  12.942
90945SOL     OW74667   2.919   3.546   7.152
90945SOL    HW174668   2.978   3.622   7.146
90945SOL    HW274669   2.926   3.504   7.066
90946SOL     OW74670   3.952  13.319  13.499
90946SOL    HW174671   4.006  13.266  13.440
90946SOL    HW274672   4.013  13.382  13.537
90947SOL     OW74673   9.773  14.458   6.611
90947SOL    HW174674   9.821  14.528   6.656
90947SOL    HW274675   9.707  14.429   6.674
90948SOL     OW74676   9.208   2.111  13.531
90948SOL    HW174677   9.207   2.206  13.529
90948SOL    HW274678   9.171   2.088  13.616
90949SOL     OW74679   5.944   4.087   1.322
90949SOL    HW174680   5.930   4.181   1.335
90949SOL    HW274681   6.038   4.078   1.310
90950SOL     OW74682  10.106   5.286   9.833
90950SOL    HW174683  10.101   5.308   9.926
90950SOL    HW274684  10.190   5.240   9.825
90951SOL     OW74685  11.032   8.020   4.912
90951SOL    HW174686  10.977   8.076   4.858
90951SOL    HW274687  11.111   8.072   4.929
90952SOL     OW74688   0.662   7.170   8.803
90952SOL    HW174689   0.681   7.077   8.798
90952SOL    HW274690   0.666   7.191   8.896
90953SOL     OW74691   9.044   2.817   6.698
90953SOL    HW174692   9.021   2.724   6.704
90953SOL    HW274693   8.995   2.848   6.622
90954SOL     OW74694   0.386  10.227   9.823
90954SOL    HW174695   0.302  10.182   9.818
90954SOL    HW274696   0.394  10.271   9.738
90955SOL     OW74697   9.537   5.307  10.840
90955SOL    HW174698   9.454   5.285  10.882
90955SOL    HW274699   9.564   5.227  10.796
90956SOL     OW74700   9.143  14.479  14.090
90956SOL    HW174701   9.184  14.528  14.162
90956SOL    HW274702   9.145  14.539  14.016
90957SOL     OW74703  11.375   3.991   1.585
90957SOL    HW174704  11.312   3.991   1.513
90957SOL    HW274705  11.325   4.021   1.660
90958SOL     OW74706  14.182  13.496  10.386
90958SOL    HW174707  14.141  13.555  10.322
90958SOL    HW274708  14.147  13.409  10.365
90959SOL     OW74709   8.648   2.044   5.643
90959SOL    HW174710   8.684   2.090   5.567
90959SOL    HW274711   8.688   2.088   5.718
90960SOL     OW74712   5.414   2.200  11.865
90960SOL    HW174713   5.440   2.264  11.799
90960SOL    HW274714   5.489   2.195  11.924
90961SOL     OW74715   2.874   4.725  10.514
90961SOL    HW174716   2.941   4.749  10.579
90961SOL    HW274717   2.924   4.697  10.437
90962SOL     OW74718   1.574   2.776   1.217
90962SOL    HW174719   1.654   2.731   1.245
90962SOL    HW274720   1.560   2.843   1.284
90963SOL     OW74721   6.137   0.286  14.113
90963SOL    HW174722   6.216   0.308  14.163
90963SOL    HW274723   6.106   0.371  14.080
90964SOL     OW74724   9.641   6.643  14.170
90964SOL    HW174725   9.718   6.591  14.190
90964SOL    HW274726   9.583   6.631  14.245
90965SOL     OW74727   0.166   2.990  14.184
90965SOL    HW174728   0.213   3.068  14.212
90965SOL    HW274729   0.197   2.973  14.095
90966SOL     OW74730   5.590   0.656  13.178
90966SOL    HW174731   5.614   0.645  13.271
90966SOL    HW274732   5.673   0.649  13.131
90967SOL     OW74733   1.384   5.544   7.583
90967SOL    HW174734   1.341   5.490   7.516
90967SOL    HW274735   1.315   5.601   7.615
90968SOL     OW74736  12.837   3.385   0.768
90968SOL    HW174737  12.898   3.397   0.696
90968SOL    HW274738  12.890   3.346   0.838
90969SOL     OW74739   9.179   8.349   4.731
90969SOL    HW174740   9.188   8.284   4.800
90969SOL    HW274741   9.251   8.410   4.746
90970SOL     OW74742   4.786  10.954   4.153
90970SOL    HW174743   4.770  10.867   4.191
90970SOL    HW274744   4.881  10.963   4.154
90971SOL     OW74745  14.453   2.813  10.531
90971SOL    HW174746  14.492   2.789  10.614
90971SOL    HW274747  14.459   2.734  10.477
90972SOL     OW74748   4.272   9.755   5.312
90972SOL    HW174749   4.247   9.670   5.347
90972SOL    HW274750   4.328   9.794   5.380
90973SOL     OW74751   7.316   3.552   0.910
90973SOL    HW174752   7.275   3.482   0.859
90973SOL    HW274753   7.272   3.548   0.995
90974SOL     OW74754  13.003  11.688  13.920
90974SOL    HW174755  13.033  11.598  13.923
90974SOL    HW274756  12.931  11.692  13.983
90975SOL     OW74757  14.803  10.033   8.344
90975SOL    HW174758  14.857   9.954   8.348
90975SOL    HW274759  14.750  10.031   8.424
90976SOL     OW74760   0.398   5.871   5.326
90976SOL    HW174761   0.434   5.902   5.242
90976SOL    HW274762   0.468   5.818   5.364
90977SOL     OW74763   5.880   8.345   5.627
90977SOL    HW174764   5.859   8.315   5.538
90977SOL    HW274765   5.935   8.422   5.614
90978SOL     OW74766   5.875   1.960   9.590
90978SOL    HW174767   5.913   1.887   9.542
90978SOL    HW274768   5.825   2.009   9.524
90979SOL     OW74769  13.816   4.714  11.935
90979SOL    HW174770  13.850   4.714  12.024
90979SOL    HW274771  13.721   4.717  11.945
90980SOL     OW74772  12.390   1.223  11.870
90980SOL    HW174773  12.400   1.254  11.960
90980SOL    HW274774  12.296   1.225  11.854
90981SOL     OW74775  13.046  10.094   3.685
90981SOL    HW174776  13.003  10.117   3.767
90981SOL    HW274777  13.099  10.171   3.664
90982SOL     OW74778   1.264  12.197   9.981
90982SOL    HW174779   1.285  12.174   9.891
90982SOL    HW274780   1.171  12.219   9.979
90983SOL     OW74781  13.486  13.012  10.652
90983SOL    HW174782  13.491  12.930  10.702
90983SOL    HW274783  13.542  12.997  10.576
90984SOL     OW74784   2.478   9.382  12.995
90984SOL    HW174785   2.534   9.455  13.022
90984SOL    HW274786   2.404   9.423  12.951
90985SOL     OW74787   9.835  11.955   1.932
90985SOL    HW174788   9.802  11.939   2.021
90985SOL    HW274789   9.929  11.936   1.937
90986SOL     OW74790  10.139   1.827  13.056
90986SOL    HW174791  10.069   1.805  12.995
90986SOL    HW274792  10.199   1.753  13.051
90987SOL     OW74793  12.066   3.791   8.636
90987SOL    HW174794  12.041   3.837   8.716
90987SOL    HW274795  12.162   3.796   8.635
90988SOL     OW74796   9.175   5.221   8.742
90988SOL    HW174797   9.156   5.143   8.793
90988SOL    HW274798   9.265   5.210   8.713
90989SOL     OW74799   2.223   3.063   2.458
90989SOL    HW174800   2.154   3.126   2.437
90989SOL    HW274801   2.298   3.118   2.483
90990SOL     OW74802   1.369  12.651   6.126
90990SOL    HW174803   1.439  12.631   6.188
90990SOL    HW274804   1.298  12.591   6.149
90991SOL     OW74805   5.992   5.632   2.912
90991SOL    HW174806   6.070   5.601   2.867
90991SOL    HW274807   5.998   5.594   3.000
90992SOL     OW74808  12.012   2.499  10.512
90992SOL    HW174809  12.033   2.538  10.428
90992SOL    HW274810  12.088   2.519  10.567
90993SOL     OW74811   3.682   6.266  10.651
90993SOL    HW174812   3.695   6.196  10.716
90993SOL    HW274813   3.767   6.277  10.610
90994SOL     OW74814   8.595  13.552  12.858
90994SOL    HW174815   8.654  13.617  12.896
90994SOL    HW274816   8.551  13.514  12.934
90995SOL     OW74817   7.643   6.260  12.428
90995SOL    HW174818   7.693   6.305  12.360
90995SOL    HW274819   7.678   6.295  12.510
90996SOL     OW74820  13.112   4.023   7.169
90996SOL    HW174821  13.085   4.088   7.105
90996SOL    HW274822  13.080   4.057   7.253
90997SOL     OW74823   0.369   3.312   9.917
90997SOL    HW174824   0.464   3.325   9.908
90997SOL    HW274825   0.339   3.293   9.828
90998SOL     OW74826   4.893   3.408   4.327
90998SOL    HW174827   4.840   3.425   4.249
90998SOL    HW274828   4.920   3.494   4.357
90999SOL     OW74829  11.032   3.038   2.235
90999SOL    HW174830  10.965   3.088   2.282
90999SOL    HW274831  11.053   2.966   2.293
91000SOL     OW74832   6.313   7.250   8.172
91000SOL    HW174833   6.344   7.267   8.083
91000SOL    HW274834   6.264   7.329   8.195
91001SOL     OW74835   9.300   9.865   6.809
91001SOL    HW174836   9.386   9.908   6.802
91001SOL    HW274837   9.238   9.937   6.818
91002SOL     OW74838   3.959   2.659  11.128
91002SOL    HW174839   3.923   2.576  11.158
91002SOL    HW274840   4.054   2.644  11.125
91003SOL     OW74841   5.958   3.631   2.783
91003SOL    HW174842   5.888   3.695   2.790
91003SOL    HW274843   6.039   3.682   2.789
91004SOL     OW74844  12.660  12.505   3.017
91004SOL    HW174845  12.615  12.486   2.934
91004SOL    HW274846  12.752  12.486   2.999
91005SOL     OW74847   8.298   9.623   9.063
91005SOL    HW174848   8.348   9.568   9.124
91005SOL    HW274849   8.233   9.667   9.118
91006SOL     OW74850   0.966   1.979  13.030
91006SOL    HW174851   1.054   1.992  12.994
91006SOL    HW274852   0.969   1.893  13.071
91007SOL     OW74853   6.366   4.544   3.659
91007SOL    HW174854   6.302   4.553   3.589
91007SOL    HW274855   6.402   4.632   3.671
91008SOL     OW74856   3.101  10.570   6.396
91008SOL    HW174857   3.154  10.588   6.318
91008SOL    HW274858   3.059  10.653   6.416
91009SOL     OW74859   8.014   6.158   7.779
91009SOL    HW174860   7.986   6.223   7.714
91009SOL    HW274861   7.982   6.074   7.744
91010SOL     OW74862  12.621   9.972   6.919
91010SOL    HW174863  12.699  10.001   6.966
91010SOL    HW274864  12.626  10.016   6.834
91011SOL     OW74865  10.310   4.821   0.387
91011SOL    HW174866  10.395   4.850   0.354
91011SOL    HW274867  10.251   4.830   0.312
91012SOL     OW74868   3.576   8.331   6.524
91012SOL    HW174869   3.657   8.353   6.568
91012SOL    HW274870   3.602   8.307   6.435
91013SOL     OW74871   8.262   9.278  10.793
91013SOL    HW174872   8.306   9.227  10.861
91013SOL    HW274873   8.178   9.235  10.781
91014SOL     OW74874  12.872  12.050   4.259
91014SOL    HW174875  12.946  12.039   4.199
91014SOL    HW274876  12.888  11.987   4.329
91015SOL     OW74877  12.084  14.237   6.105
91015SOL    HW174878  12.036  14.291   6.041
91015SOL    HW274879  12.137  14.178   6.051
91016SOL     OW74880   3.495   1.556  11.230
91016SOL    HW174881   3.554   1.561  11.305
91016SOL    HW274882   3.463   1.646  11.219
91017SOL     OW74883  14.228   3.690   6.328
91017SOL    HW174884  14.237   3.596   6.315
91017SOL    HW274885  14.174   3.719   6.255
91018SOL     OW74886   2.916   2.748   1.623
91018SOL    HW174887   2.974   2.824   1.620
91018SOL    HW274888   2.874   2.746   1.537
91019SOL     OW74889   5.830   6.819   0.810
91019SOL    HW174890   5.884   6.784   0.881
91019SOL    HW274891   5.863   6.908   0.798
91020SOL     OW74892  12.313   8.014   1.258
91020SOL    HW174893  12.261   7.976   1.187
91020SOL    HW274894  12.275   8.101   1.271
91021SOL     OW74895  11.468   6.484   1.438
91021SOL    HW174896  11.441   6.506   1.527
91021SOL    HW274897  11.403   6.419   1.409
91022SOL     OW74898  11.951  13.267   7.876
91022SOL    HW174899  11.894  13.270   7.799
91022SOL    HW274900  12.031  13.314   7.848
91023SOL     OW74901  13.251   8.824   4.863
91023SOL    HW174902  13.340   8.850   4.888
91023SOL    HW274903  13.252   8.728   4.870
91024SOL     OW74904   0.208  14.387  13.021
91024SOL    HW174905   0.183  14.462  13.075
91024SOL    HW274906   0.225  14.316  13.084
91025SOL     OW74907   8.619   7.614  11.427
91025SOL    HW174908   8.567   7.683  11.385
91025SOL    HW274909   8.699   7.658  11.455
91026SOL     OW74910  10.070   0.213  11.193
91026SOL    HW174911  10.158   0.251  11.193
91026SOL    HW274912  10.084   0.119  11.181
91027SOL     OW74913   6.688  10.805   8.628
91027SOL    HW174914   6.742  10.820   8.706
91027SOL    HW274915   6.601  10.784   8.662
91028SOL     OW74916   8.911  11.811   7.164
91028SOL    HW174917   8.886  11.721   7.186
91028SOL    HW274918   8.925  11.852   7.249
91029SOL     OW74919  11.916  13.902   1.952
91029SOL    HW174920  11.986  13.967   1.958
91029SOL    HW274921  11.898  13.878   2.043
91030SOL     OW74922  12.803  11.005   3.440
91030SOL    HW174923  12.865  10.932   3.449
91030SOL    HW274924  12.785  11.031   3.531
91031SOL     OW74925  13.719   6.459   3.936
91031SOL    HW174926  13.715   6.552   3.957
91031SOL    HW274927  13.628   6.434   3.918
91032SOL     OW74928   1.855   3.241   2.120
91032SOL    HW174929   1.883   3.172   2.180
91032SOL    HW274930   1.767   3.264   2.151
91033SOL     OW74931   3.241   6.247   4.175
91033SOL    HW174932   3.146   6.252   4.191
91033SOL    HW274933   3.280   6.261   4.261
91034SOL     OW74934   1.427  11.959   2.779
91034SOL    HW174935   1.349  12.009   2.801
91034SOL    HW274936   1.399  11.898   2.711
91035SOL     OW74937   7.229   0.278  11.192
91035SOL    HW174938   7.314   0.295  11.151
91035SOL    HW274939   7.192   0.205  11.142
91036SOL     OW74940  11.698  10.696  12.934
91036SOL    HW174941  11.718  10.612  12.892
91036SOL    HW274942  11.625  10.676  12.993
91037SOL     OW74943  11.135  10.666   4.820
91037SOL    HW174944  11.103  10.719   4.746
91037SOL    HW274945  11.138  10.728   4.893
91038SOL     OW74946   2.694  14.296  12.072
91038SOL    HW174947   2.603  14.282  12.097
91038SOL    HW274948   2.690  14.350  11.992
91039SOL     OW74949  11.919  11.139   9.136
91039SOL    HW174950  11.984  11.068   9.133
91039SOL    HW274951  11.962  11.213   9.094
91040SOL     OW74952   1.840   3.590   8.895
91040SOL    HW174953   1.876   3.633   8.817
91040SOL    HW274954   1.915   3.546   8.935
91041SOL     OW74955   6.442   1.782  11.828
91041SOL    HW174956   6.373   1.799  11.892
91041SOL    HW274957   6.456   1.866  11.785
91042SOL     OW74958   2.632  13.534  11.739
91042SOL    HW174959   2.581  13.457  11.712
91042SOL    HW274960   2.695  13.500  11.802
91043SOL     OW74961   7.921  13.833   3.717
91043SOL    HW174962   7.896  13.743   3.697
91043SOL    HW274963   7.997  13.850   3.662
91044SOL     OW74964  13.102  11.549   9.734
91044SOL    HW174965  13.184  11.572   9.778
91044SOL    HW274966  13.081  11.461   9.768
91045SOL     OW74967   9.891  10.378   2.069
91045SOL    HW174968   9.949  10.409   2.140
91045SOL    HW274969   9.910  10.284   2.063
91046SOL     OW74970   7.666   7.860   9.518
91046SOL    HW174971   7.615   7.779   9.512
91046SOL    HW274972   7.659   7.899   9.431
91047SOL     OW74973   4.711   5.129  14.014
91047SOL    HW174974   4.651   5.112  13.941
91047SOL    HW274975   4.681   5.069  14.083
91048SOL     OW74976   7.687   7.997   4.300
91048SOL    HW174977   7.600   7.968   4.272
91048SOL    HW274978   7.670   8.076   4.351
91049SOL     OW74979   8.591   5.730  11.932
91049SOL    HW174980   8.615   5.763  11.846
91049SOL    HW274981   8.506   5.687  11.918
91050SOL     OW74982  10.941   6.181   7.153
91050SOL    HW174983  10.950   6.269   7.188
91050SOL    HW274984  11.032   6.150   7.143
91051SOL     OW74985   9.244  10.466   5.797
91051SOL    HW174986   9.269  10.435   5.884
91051SOL    HW274987   9.173  10.528   5.814
91052SOL     OW74988  11.654   5.707  13.152
91052SOL    HW174989  11.561   5.716  13.131
91052SOL    HW274990  11.678   5.622  13.115
91053SOL     OW74991   3.300   7.108  11.993
91053SOL    HW174992   3.276   7.020  11.966
91053SOL    HW274993   3.267   7.115  12.083
91054SOL     OW74994   0.341  12.691   7.804
91054SOL    HW174995   0.306  12.745   7.875
91054SOL    HW274996   0.421  12.737   7.777
91055SOL     OW74997   9.607  14.744   1.207
91055SOL    HW174998   9.644  14.658   1.228
91055SOL    HW274999   9.589  14.783   1.293
91056SOL     OW75000   2.108  13.150   5.217
91056SOL    HW175001   2.018  13.119   5.229
91056SOL    HW275002   2.103  13.245   5.230
91057SOL     OW75003  13.115   3.647   2.282
91057SOL    HW175004  13.032   3.694   2.284
91057SOL    HW275005  13.160   3.680   2.205
91058SOL     OW75006   4.169   3.217   2.595
91058SOL    HW175007   4.173   3.198   2.689
91058SOL    HW275008   4.202   3.306   2.588
91059SOL     OW75009   3.662   9.595  14.570
91059SOL    HW175010   3.750   9.631  14.582
91059SOL    HW275011   3.671   9.529  14.503
91060SOL     OW75012   7.908   4.564   2.861
91060SOL    HW175013   7.913   4.484   2.809
91060SOL    HW275014   7.913   4.635   2.798
91061SOL     OW75015   8.749   8.040   0.934
91061SOL    HW175016   8.779   7.950   0.946
91061SOL    HW275017   8.686   8.054   1.005
91062SOL     OW75018   3.805  11.756   9.246
91062SOL    HW175019   3.796  11.722   9.157
91062SOL    HW275020   3.804  11.679   9.302
91063SOL     OW75021  14.410  12.502   6.806
91063SOL    HW175022  14.340  12.441   6.782
91063SOL    HW275023  14.487  12.447   6.818
91064SOL     OW75024   5.663  10.319  12.830
91064SOL    HW175025   5.636  10.389  12.770
91064SOL    HW275026   5.582  10.290  12.871
91065SOL     OW75027   2.096   8.714   8.421
91065SOL    HW175028   2.104   8.807   8.438
91065SOL    HW275029   2.154   8.673   8.486
91066SOL     OW75030   8.833   7.386   7.126
91066SOL    HW175031   8.880   7.462   7.161
91066SOL    HW275032   8.752   7.383   7.177
91067SOL     OW75033   6.712   0.868   6.439
91067SOL    HW175034   6.628   0.838   6.474
91067SOL    HW275035   6.697   0.959   6.414
91068SOL     OW75036   6.316   4.653   7.213
91068SOL    HW175037   6.241   4.708   7.190
91068SOL    HW275038   6.317   4.585   7.145
91069SOL     OW75039  12.227   4.378  11.795
91069SOL    HW175040  12.229   4.319  11.719
91069SOL    HW275041  12.146   4.429  11.783
91070SOL     OW75042   4.886   2.626   3.529
91070SOL    HW175043   4.934   2.543   3.526
91070SOL    HW275044   4.944   2.689   3.487
91071SOL     OW75045   0.679   8.350   9.516
91071SOL    HW175046   0.735   8.279   9.484
91071SOL    HW275047   0.596   8.308   9.537
91072SOL     OW75048   0.615   6.620   2.979
91072SOL    HW175049   0.553   6.664   2.921
91072SOL    HW275050   0.581   6.636   3.067
91073SOL     OW75051   6.665  14.073  10.239
91073SOL    HW175052   6.759  14.065  10.254
91073SOL    HW275053   6.658  14.128  10.160
91074SOL     OW75054   4.068   3.479   6.667
91074SOL    HW175055   4.010   3.553   6.684
91074SOL    HW275056   4.114   3.503   6.586
91075SOL     OW75057  11.547   6.950   6.360
91075SOL    HW175058  11.508   6.918   6.442
91075SOL    HW275059  11.515   7.039   6.351
91076SOL     OW75060   1.737   1.090   4.973
91076SOL    HW175061   1.786   1.105   5.054
91076SOL    HW275062   1.647   1.077   5.001
91077SOL     OW75063  11.047  13.230   3.114
91077SOL    HW175064  11.027  13.294   3.046
91077SOL    HW275065  11.121  13.180   3.079
91078SOL     OW75066   0.958   3.149  14.348
91078SOL    HW175067   1.005   3.223  14.310
91078SOL    HW275068   0.916   3.106  14.274
91079SOL     OW75069   1.971   2.744   4.811
91079SOL    HW175070   1.943   2.673   4.867
91079SOL    HW275071   2.061   2.762   4.837
91080SOL     OW75072  14.558  14.216  11.178
91080SOL    HW175073  14.627  14.246  11.238
91080SOL    HW275074  14.580  14.124  11.161
91081SOL     OW75075   9.472  12.085   7.489
91081SOL    HW175076   9.390  12.134   7.499
91081SOL    HW275077   9.486  12.044   7.574
91082SOL     OW75078   9.197  13.010   0.916
91082SOL    HW175079   9.251  13.088   0.925
91082SOL    HW275080   9.182  13.002   0.822
91083SOL     OW75081  11.849   9.574   1.472
91083SOL    HW175082  11.790   9.604   1.403
91083SOL    HW275083  11.849   9.478   1.463
91084SOL     OW75084   3.299   4.800   7.829
91084SOL    HW175085   3.219   4.854   7.830
91084SOL    HW275086   3.276   4.723   7.881
91085SOL     OW75087   7.707   4.449  12.705
91085SOL    HW175088   7.685   4.534  12.668
91085SOL    HW275089   7.802   4.442  12.695
91086SOL     OW75090  12.764   4.367   8.347
91086SOL    HW175091  12.792   4.318   8.270
91086SOL    HW275092  12.843   4.414   8.376
91087SOL     OW75093  10.391   7.979   0.994
91087SOL    HW175094  10.448   8.031   0.938
91087SOL    HW275095  10.442   7.901   1.014
91088SOL     OW75096   4.761  10.981   6.309
91088SOL    HW175097   4.821  10.939   6.247
91088SOL    HW275098   4.721  11.052   6.259
91089SOL     OW75099   3.541   4.052  12.955
91089SOL    HW175100   3.494   3.970  12.973
91089SOL    HW275101   3.492   4.094  12.885
91090SOL     OW75102   6.864   9.279  14.710
91090SOL    HW175103   6.941   9.307  14.761
91090SOL    HW275104   6.871   9.327  14.628
91091SOL     OW75105   6.452  11.565  12.318
91091SOL    HW175106   6.369  11.610  12.332
91091SOL    HW275107   6.517  11.635  12.315
91092SOL     OW75108  13.042   9.279   1.911
91092SOL    HW175109  13.034   9.190   1.878
91092SOL    HW275110  12.960   9.322   1.885
91093SOL     OW75111   0.779   1.699   9.480
91093SOL    HW175112   0.849   1.636   9.462
91093SOL    HW275113   0.823   1.771   9.526
91094SOL     OW75114   5.841  13.882   4.183
91094SOL    HW175115   5.856  13.961   4.133
91094SOL    HW275116   5.831  13.813   4.117
91095SOL     OW75117  12.121   9.576   8.277
91095SOL    HW175118  12.156   9.530   8.200
91095SOL    HW275119  12.133   9.669   8.257
91096SOL     OW75120  13.944  13.267   7.902
91096SOL    HW175121  13.872  13.269   7.839
91096SOL    HW275122  13.963  13.359   7.919
91097SOL     OW75123  11.314   2.952   6.097
91097SOL    HW175124  11.220   2.932   6.105
91097SOL    HW275125  11.348   2.941   6.186
91098SOL     OW75126   9.261   9.490   2.569
91098SOL    HW175127   9.302   9.451   2.647
91098SOL    HW275128   9.180   9.440   2.558
91099SOL     OW75129  13.710   7.861   8.998
91099SOL    HW175130  13.736   7.865   8.906
91099SOL    HW275131  13.675   7.947   9.017
91100SOL     OW75132  12.842  10.432  12.508
91100SOL    HW175133  12.823  10.358  12.566
91100SOL    HW275134  12.842  10.394  12.420
91101SOL     OW75135  11.357   8.281  12.059
91101SOL    HW175136  11.439   8.247  12.095
91101SOL    HW275137  11.295   8.277  12.132
91102SOL     OW75138  10.391  12.404   3.327
91102SOL    HW175139  10.305  12.381   3.293
91102SOL    HW275140  10.403  12.495   3.302
91103SOL     OW75141   7.030  13.689   9.020
91103SOL    HW175142   6.946  13.648   9.039
91103SOL    HW275143   7.083  13.618   8.983
91104SOL     OW75144   9.512  10.784   0.758
91104SOL    HW175145   9.603  10.812   0.763
91104SOL    HW275146   9.494  10.743   0.842
91105SOL     OW75147   8.306  10.515   5.751
91105SOL    HW175148   8.382  10.509   5.694
91105SOL    HW275149   8.320  10.448   5.818
91106SOL     OW75150   5.782   0.245  13.931
91106SOL    HW175151   5.812   0.277  13.847
91106SOL    HW275152   5.731   0.166  13.910
91107SOL     OW75153   8.288   8.501   2.431
91107SOL    HW175154   8.267   8.427   2.375
91107SOL    HW275155   8.208   8.519   2.479
91108SOL     OW75156  11.342  13.131   3.407
91108SOL    HW175157  11.276  13.062   3.410
91108SOL    HW275158  11.365  13.148   3.498
91109SOL     OW75159   5.791  14.638  13.483
91109SOL    HW175160   5.799  14.582  13.405
91109SOL    HW275161   5.843  14.594  13.550
91110SOL     OW75162   3.922  14.773   7.311
91110SOL    HW175163   3.945  14.733   7.395
91110SOL    HW275164   3.848  14.829   7.330
91111SOL     OW75165   1.989   4.470   1.393
91111SOL    HW175166   1.969   4.462   1.487
91111SOL    HW275167   2.085   4.473   1.390
91112SOL     OW75168   2.296   5.846   9.011
91112SOL    HW175169   2.312   5.865   9.103
91112SOL    HW275170   2.363   5.782   8.987
91113SOL     OW75171   8.534   7.002  12.537
91113SOL    HW175172   8.591   7.066  12.496
91113SOL    HW275173   8.451   7.048  12.548
91114SOL     OW75174   8.619  12.221   9.444
91114SOL    HW175175   8.532  12.201   9.479
91114SOL    HW275176   8.662  12.271   9.514
91115SOL     OW75177   0.193   6.419   3.394
91115SOL    HW175178   0.152   6.409   3.479
91115SOL    HW275179   0.263   6.354   3.393
91116SOL     OW75180   8.783   8.235   2.557
91116SOL    HW175181   8.714   8.229   2.491
91116SOL    HW275182   8.863   8.253   2.507
91117SOL     OW75183   9.676  12.308   4.183
91117SOL    HW175184   9.607  12.249   4.214
91117SOL    HW275185   9.757  12.269   4.216
91118SOL     OW75186   1.139  14.028   7.126
91118SOL    HW175187   1.092  14.017   7.044
91118SOL    HW275188   1.091  14.097   7.172
91119SOL     OW75189   3.655   4.043  11.572
91119SOL    HW175190   3.657   4.119  11.631
91119SOL    HW275191   3.585   4.063  11.510
91120SOL     OW75192  10.944   2.034  10.723
91120SOL    HW175193  10.890   1.964  10.759
91120SOL    HW275194  10.898   2.063  10.644
91121SOL     OW75195   2.992  13.703   6.674
91121SOL    HW175196   2.950  13.761   6.737
91121SOL    HW275197   2.947  13.719   6.591
91122SOL     OW75198   8.440   5.312   4.899
91122SOL    HW175199   8.444   5.408   4.894
91122SOL    HW275200   8.346   5.292   4.893
91123SOL     OW75201   1.915   5.682   4.808
91123SOL    HW175202   1.844   5.731   4.766
91123SOL    HW275203   1.908   5.594   4.772
91124SOL     OW75204  14.843   6.321   9.149
91124SOL    HW175205  14.772   6.384   9.158
91124SOL    HW275206   0.003   6.334   9.060
91125SOL     OW75207   5.083  14.835   9.995
91125SOL    HW175208   5.046  14.824   9.907
91125SOL    HW275209   5.129  14.753  10.012
91126SOL     OW75210   9.223  13.759   6.451
91126SOL    HW175211   9.153  13.823   6.462
91126SOL    HW275212   9.256  13.776   6.362
91127SOL     OW75213   7.832   8.107   7.819
91127SOL    HW175214   7.917   8.095   7.861
91127SOL    HW275215   7.852   8.142   7.733
91128SOL     OW75216  14.870   3.208  12.483
91128SOL    HW175217   0.003   3.117  12.454
91128SOL    HW275218   0.021   3.259  12.406
91129SOL     OW75219   3.958  13.557   6.582
91129SOL    HW175220   3.870  13.534   6.554
91129SOL    HW275221   3.946  13.603   6.665
91130SOL     OW75222   2.825  11.208  10.626
91130SOL    HW175223   2.921  11.209  10.632
91130SOL    HW275224   2.795  11.267  10.695
91131SOL     OW75225   8.126   6.511   0.389
91131SOL    HW175226   8.185   6.472   0.454
91131SOL    HW275227   8.098   6.437   0.335
91132SOL     OW75228  14.457   7.884   5.879
91132SOL    HW175229  14.427   7.809   5.930
91132SOL    HW275230  14.546   7.861   5.851
91133SOL     OW75231  10.484  11.384  13.347
91133SOL    HW175232  10.418  11.451  13.365
91133SOL    HW275233  10.565  11.421  13.385
91134SOL     OW75234   5.489  12.720   2.651
91134SOL    HW175235   5.462  12.694   2.739
91134SOL    HW275236   5.584  12.727   2.656
91135SOL     OW75237  13.136   9.221   3.931
91135SOL    HW175238  13.054   9.231   3.884
91135SOL    HW275239  13.168   9.310   3.945
91136SOL     OW75240   8.267  10.520  10.776
91136SOL    HW175241   8.188  10.569  10.754
91136SOL    HW275242   8.330  10.587  10.803
91137SOL     OW75243   0.142  12.468   2.033
91137SOL    HW175244   0.047  12.467   2.039
91137SOL    HW275245   0.160  12.458   1.939
91138SOL     OW75246   1.596   4.754  13.175
91138SOL    HW175247   1.683   4.751  13.136
91138SOL    HW275248   1.567   4.844  13.165
91139SOL     OW75249   2.562   2.696   1.233
91139SOL    HW175250   2.564   2.712   1.138
91139SOL    HW275251   2.593   2.606   1.243
91140SOL     OW75252   3.304   7.790   4.173
91140SOL    HW175253   3.339   7.758   4.256
91140SOL    HW275254   3.210   7.793   4.186
91141SOL     OW75255   6.892   3.497  10.068
91141SOL    HW175256   6.889   3.486  10.164
91141SOL    HW275257   6.976   3.540  10.052
91142SOL     OW75258   4.369  12.727   7.704
91142SOL    HW175259   4.423  12.716   7.782
91142SOL    HW275260   4.334  12.816   7.711
91143SOL     OW75261   8.251   4.135   9.347
91143SOL    HW175262   8.342   4.107   9.345
91143SOL    HW275263   8.202   4.057   9.371
91144SOL     OW75264   6.434   3.123   8.799
91144SOL    HW175265   6.522   3.118   8.763
91144SOL    HW275266   6.437   3.196   8.861
91145SOL     OW75267  11.211   1.862  11.282
91145SOL    HW175268  11.230   1.794  11.218
91145SOL    HW275269  11.295   1.907  11.296
91146SOL     OW75270   5.548  10.597   2.149
91146SOL    HW175271   5.475  10.556   2.194
91146SOL    HW275272   5.624  10.582   2.206
91147SOL     OW75273   2.885   5.176  13.180
91147SOL    HW175274   2.796   5.192  13.211
91147SOL    HW275275   2.876   5.170  13.085
91148SOL     OW75276   1.696   1.072   9.509
91148SOL    HW175277   1.791   1.065   9.507
91148SOL    HW275278   1.671   1.037   9.595
91149SOL     OW75279   8.039   6.040   1.366
91149SOL    HW175280   8.084   6.111   1.321
91149SOL    HW275281   7.962   6.023   1.311
91150SOL     OW75282   2.255  14.076   4.893
91150SOL    HW175283   2.233  14.056   4.984
91150SOL    HW275284   2.335  14.128   4.898
91151SOL     OW75285   1.817   8.429  14.028
91151SOL    HW175286   1.770   8.480  13.961
91151SOL    HW275287   1.856   8.494  14.085
91152SOL     OW75288   7.857   4.286   5.565
91152SOL    HW175289   7.889   4.265   5.478
91152SOL    HW275290   7.774   4.331   5.550
91153SOL     OW75291   5.480   9.610  12.892
91153SOL    HW175292   5.539   9.614  12.817
91153SOL    HW275293   5.536   9.625  12.968
91154SOL     OW75294   0.958   6.473   5.117
91154SOL    HW175295   0.915   6.556   5.140
91154SOL    HW275296   1.050   6.496   5.105
91155SOL     OW75297   9.819   3.075   4.629
91155SOL    HW175298   9.747   3.134   4.605
91155SOL    HW275299   9.893   3.106   4.576
91156SOL     OW75300   7.275   0.633  13.415
91156SOL    HW175301   7.187   0.669  13.424
91156SOL    HW275302   7.318   0.654  13.498
91157SOL     OW75303   5.809   6.348  11.505
91157SOL    HW175304   5.876   6.415  11.515
91157SOL    HW275305   5.836   6.297  11.430
91158SOL     OW75306  13.808   2.889   2.815
91158SOL    HW175307  13.866   2.938   2.874
91158SOL    HW275308  13.767   2.823   2.872
91159SOL     OW75309   4.199   3.465   5.748
91159SOL    HW175310   4.183   3.559   5.757
91159SOL    HW275311   4.178   3.446   5.656
91160SOL     OW75312  10.513   7.978  13.320
91160SOL    HW175313  10.482   7.888  13.335
91160SOL    HW275314  10.606   7.969  13.301
91161SOL     OW75315   4.519   7.200   1.649
91161SOL    HW175316   4.528   7.181   1.556
91161SOL    HW275317   4.564   7.128   1.693
91162SOL     OW75318   5.851   7.678  10.191
91162SOL    HW175319   5.900   7.682  10.108
91162SOL    HW275320   5.917   7.654  10.256
91163SOL     OW75321   0.315   3.708  11.531
91163SOL    HW175322   0.335   3.773  11.463
91163SOL    HW275323   0.399   3.690  11.573
91164SOL     OW75324   2.837  10.940  12.933
91164SOL    HW175325   2.753  10.930  12.889
91164SOL    HW275326   2.901  10.939  12.862
91165SOL     OW75327   6.061  14.023  12.362
91165SOL    HW175328   5.982  14.026  12.308
91165SOL    HW275329   6.133  14.026  12.299
91166SOL     OW75330  14.715   7.270  12.256
91166SOL    HW175331  14.693   7.305  12.170
91166SOL    HW275332  14.807   7.245  12.248
91167SOL     OW75333   5.898   4.327   4.610
91167SOL    HW175334   5.870   4.282   4.690
91167SOL    HW275335   5.991   4.305   4.602
91168SOL     OW75336   6.993   5.876   4.029
91168SOL    HW175337   6.959   5.965   4.034
91168SOL    HW275338   6.976   5.838   4.115
91169SOL     OW75339   3.873   8.864   6.972
91169SOL    HW175340   3.953   8.868   7.024
91169SOL    HW275341   3.875   8.944   6.919
91170SOL     OW75342   1.200  12.978  13.435
91170SOL    HW175343   1.156  12.913  13.380
91170SOL    HW275344   1.284  12.938  13.456
91171SOL     OW75345   0.326   2.232   8.944
91171SOL    HW175346   0.333   2.246   9.038
91171SOL    HW275347   0.263   2.161   8.934
91172SOL     OW75348   9.983   8.880  12.690
91172SOL    HW175349  10.003   8.812  12.755
91172SOL    HW275350  10.055   8.943  12.698
91173SOL     OW75351   4.556   8.395   8.323
91173SOL    HW175352   4.466   8.370   8.304
91173SOL    HW275353   4.609   8.341   8.264
91174SOL     OW75354   0.643   3.370   0.029
91174SOL    HW175355   0.614   3.285  14.870
91174SOL    HW275356   0.564   3.411   0.065
91175SOL     OW75357   7.813   4.996   0.241
91175SOL    HW175358   7.732   5.036   0.211
91175SOL    HW275359   7.790   4.906   0.260
91176SOL     OW75360   4.303   2.127  11.041
91176SOL    HW175361   4.327   2.090  11.126
91176SOL    HW275362   4.338   2.066  10.977
91177SOL     OW75363   4.864  10.125   0.112
91177SOL    HW175364   4.846  10.067   0.186
91177SOL    HW275365   4.916  10.197   0.150
91178SOL     OW75366   9.541   8.583   4.253
91178SOL    HW175367   9.448   8.599   4.265
91178SOL    HW275368   9.545   8.502   4.202
91179SOL     OW75369   4.393   7.333   5.247
91179SOL    HW175370   4.338   7.398   5.291
91179SOL    HW275371   4.346   7.250   5.256
91180SOL     OW75372  14.153  13.697   7.427
91180SOL    HW175373  14.071  13.724   7.470
91180SOL    HW275374  14.172  13.768   7.366
91181SOL     OW75375   0.536  12.792   6.352
91181SOL    HW175376   0.565  12.883   6.348
91181SOL    HW275377   0.600  12.743   6.301
91182SOL     OW75378   8.823   9.380  10.133
91182SOL    HW175379   8.831   9.449  10.198
91182SOL    HW275380   8.913   9.363  10.105
91183SOL     OW75381   1.819   3.733  14.013
91183SOL    HW175382   1.869   3.652  14.027
91183SOL    HW275383   1.778   3.721  13.927
91184SOL     OW75384   8.009  11.272   9.663
91184SOL    HW175385   7.918  11.250   9.647
91184SOL    HW275386   8.006  11.360   9.701
91185SOL     OW75387   4.445  10.607   9.779
91185SOL    HW175388   4.363  10.650   9.805
91185SOL    HW275389   4.430  10.514   9.795
91186SOL     OW75390  14.736  11.267   0.179
91186SOL    HW175391  14.727  11.322   0.257
91186SOL    HW275392  14.649  11.268   0.139
91187SOL     OW75393  12.071   8.382  14.204
91187SOL    HW175394  12.003   8.327  14.242
91187SOL    HW275395  12.135   8.393  14.274
91188SOL     OW75396   1.239   4.830   1.771
91188SOL    HW175397   1.276   4.856   1.686
91188SOL    HW275398   1.261   4.903   1.829
91189SOL     OW75399   8.207   9.114   0.432
91189SOL    HW175400   8.121   9.152   0.415
91189SOL    HW275401   8.267   9.164   0.377
91190SOL     OW75402   9.818   1.983   0.084
91190SOL    HW175403   9.867   2.059   0.115
91190SOL    HW275404   9.884   1.920   0.057
91191SOL     OW75405   2.441   7.980  10.249
91191SOL    HW175406   2.466   7.924  10.176
91191SOL    HW275407   2.345   7.974  10.252
91192SOL     OW75408  13.679   3.304  13.514
91192SOL    HW175409  13.736   3.346  13.449
91192SOL    HW275410  13.653   3.221  13.473
91193SOL     OW75411  10.023   8.863  10.814
91193SOL    HW175412   9.996   8.853  10.722
91193SOL    HW275413  10.101   8.919  10.809
91194SOL     OW75414   5.771   5.376   3.533
91194SOL    HW175415   5.845   5.372   3.472
91194SOL    HW275416   5.766   5.287   3.569
91195SOL     OW75417   4.866   2.133  13.027
91195SOL    HW175418   4.832   2.048  13.055
91195SOL    HW275419   4.851   2.190  13.103
91196SOL     OW75420  14.813   0.813   5.386
91196SOL    HW175421  14.818   0.728   5.429
91196SOL    HW275422   0.032   0.840   5.378
91197SOL     OW75423   0.634   8.533   0.720
91197SOL    HW175424   0.547   8.512   0.686
91197SOL    HW275425   0.623   8.528   0.815
91198SOL     OW75426   7.265   2.265   3.085
91198SOL    HW175427   7.352   2.263   3.043
91198SOL    HW275428   7.229   2.178   3.069
91199SOL     OW75429   5.430  10.475  14.835
91199SOL    HW175430   5.416  10.465   0.056
91199SOL    HW275431   5.510  10.426  14.817
91200SOL     OW75432  13.362   6.004   0.823
91200SOL    HW175433  13.309   6.025   0.746
91200SOL    HW275434  13.305   5.947   0.875
91201SOL     OW75435   5.982   7.012  13.135
91201SOL    HW175436   5.939   6.995  13.051
91201SOL    HW275437   5.976   6.929  13.182
91202SOL     OW75438   1.064   0.603  14.847
91202SOL    HW175439   1.000   0.612   0.044
91202SOL    HW275440   1.056   0.511  14.820
91203SOL     OW75441  12.752   6.669   3.718
91203SOL    HW175442  12.737   6.671   3.624
91203SOL    HW275443  12.843   6.698   3.728
91204SOL     OW75444   8.950   3.063   7.787
91204SOL    HW175445   8.881   3.017   7.741
91204SOL    HW275446   8.926   3.056   7.880
91205SOL     OW75447  14.116   6.894  12.747
91205SOL    HW175448  14.091   6.929  12.832
91205SOL    HW275449  14.202   6.854  12.761
91206SOL     OW75450   7.755   7.406   1.726
91206SOL    HW175451   7.713   7.444   1.649
91206SOL    HW275452   7.702   7.329   1.747
91207SOL     OW75453  11.237   8.349   5.251
91207SOL    HW175454  11.258   8.382   5.164
91207SOL    HW275455  11.144   8.371   5.263
91208SOL     OW75456  13.972   4.931   9.860
91208SOL    HW175457  13.982   5.019   9.824
91208SOL    HW275458  13.902   4.939   9.925
91209SOL     OW75459   6.057   0.805   3.639
91209SOL    HW175460   6.052   0.800   3.734
91209SOL    HW275461   6.094   0.720   3.613
91210SOL     OW75462   1.562  13.011   7.967
91210SOL    HW175463   1.636  13.071   7.967
91210SOL    HW275464   1.597  12.931   7.926
91211SOL     OW75465  14.182   2.494  12.618
91211SOL    HW175466  14.271   2.471  12.590
91211SOL    HW275467  14.195   2.563  12.683
91212SOL     OW75468   1.724   2.916  10.165
91212SOL    HW175469   1.674   2.953  10.239
91212SOL    HW275470   1.674   2.839  10.138
91213SOL     OW75471   5.196   7.274   0.842
91213SOL    HW175472   5.115   7.313   0.873
91213SOL    HW275473   5.168   7.208   0.779
91214SOL     OW75474   1.604  13.862   1.933
91214SOL    HW175475   1.684  13.914   1.925
91214SOL    HW275476   1.636  13.774   1.954
91215SOL     OW75477   5.986   9.991  13.593
91215SOL    HW175478   5.947   9.930  13.529
91215SOL    HW275479   5.949   9.965  13.677
91216SOL     OW75480   2.952   6.707   6.475
91216SOL    HW175481   2.983   6.797   6.461
91216SOL    HW275482   2.975   6.689   6.566
91217SOL     OW75483   8.220   6.749  14.727
91217SOL    HW175484   8.256   6.758  14.638
91217SOL    HW275485   8.181   6.662  14.728
91218SOL     OW75486   7.679   7.894   2.910
91218SOL    HW175487   7.608   7.925   2.966
91218SOL    HW275488   7.759   7.909   2.961
91219SOL     OW75489  14.399   7.982   0.050
91219SOL    HW175490  14.377   8.033   0.128
91219SOL    HW275491  14.491   7.999   0.034
91220SOL     OW75492  13.027   9.885   1.229
91220SOL    HW175493  12.985   9.897   1.315
91220SOL    HW275494  13.011   9.968   1.184
91221SOL     OW75495   2.122   8.469  10.602
91221SOL    HW175496   2.088   8.392  10.556
91221SOL    HW275497   2.197   8.437  10.651
91222SOL     OW75498  14.500  13.225   2.425
91222SOL    HW175499  14.574  13.169   2.449
91222SOL    HW275500  14.454  13.176   2.357
91223SOL     OW75501  13.923  14.442   3.313
91223SOL    HW175502  13.842  14.404   3.346
91223SOL    HW275503  13.982  14.442   3.388
91224SOL     OW75504   1.285   8.943  14.329
91224SOL    HW175505   1.244   8.888  14.263
91224SOL    HW275506   1.377   8.948  14.302
91225SOL     OW75507   9.874  12.250   2.978
91225SOL    HW175508   9.940  12.183   2.999
91225SOL    HW275509   9.907  12.291   2.898
91226SOL     OW75510   2.539  12.106   1.687
91226SOL    HW175511   2.572  12.106   1.597
91226SOL    HW275512   2.448  12.135   1.680
91227SOL     OW75513   5.358   7.357   1.224
91227SOL    HW175514   5.386   7.282   1.171
91227SOL    HW275515   5.435   7.413   1.227
91228SOL     OW75516  11.932  10.595   8.035
91228SOL    HW175517  11.892  10.576   7.950
91228SOL    HW275518  11.990  10.669   8.018
91229SOL     OW75519   7.470  10.009  11.489
91229SOL    HW175520   7.376  10.023  11.478
91229SOL    HW275521   7.487   9.927  11.443
91230SOL     OW75522   1.091  10.909   2.027
91230SOL    HW175523   1.011  10.879   2.070
91230SOL    HW275524   1.062  10.977   1.966
91231SOL     OW75525   0.619  11.328   4.700
91231SOL    HW175526   0.709  11.333   4.732
91231SOL    HW275527   0.622  11.368   4.613
91232SOL     OW75528  11.508   1.032   2.323
91232SOL    HW175529  11.505   1.009   2.416
91232SOL    HW275530  11.530   1.125   2.322
91233SOL     OW75531   7.483  12.371   3.626
91233SOL    HW175532   7.514  12.336   3.709
91233SOL    HW275533   7.388  12.381   3.638
91234SOL     OW75534  14.032   0.268  13.025
91234SOL    HW175535  13.975   0.305  13.093
91234SOL    HW275536  14.019   0.173  13.032
91235SOL     OW75537   3.031   4.449   4.235
91235SOL    HW175538   3.053   4.503   4.312
91235SOL    HW275539   2.936   4.449   4.232
91236SOL     OW75540  13.520  11.469   0.514
91236SOL    HW175541  13.491  11.479   0.604
91236SOL    HW275542  13.439  11.471   0.462
91237SOL     OW75543  11.597   3.745   9.125
91237SOL    HW175544  11.680   3.761   9.171
91237SOL    HW275545  11.560   3.669   9.171
91238SOL     OW75546   5.564   6.705  14.278
91238SOL    HW175547   5.596   6.790  14.249
91238SOL    HW275548   5.477   6.698  14.238
91239SOL     OW75549   9.786   3.642  13.732
91239SOL    HW175550   9.738   3.721  13.707
91239SOL    HW275551   9.870   3.650  13.688
91240SOL     OW75552  14.414   6.281   5.344
91240SOL    HW175553  14.398   6.351   5.407
91240SOL    HW275554  14.488   6.311   5.292
91241SOL     OW75555  12.085   7.863   7.113
91241SOL    HW175556  12.087   7.827   7.202
91241SOL    HW275557  12.153   7.815   7.066
91242SOL     OW75558   6.782   4.061   2.018
91242SOL    HW175559   6.796   4.003   2.093
91242SOL    HW275560   6.776   4.002   1.943
91243SOL     OW75561   5.883  10.830   5.878
91243SOL    HW175562   5.873  10.769   5.804
91243SOL    HW275563   5.949  10.788   5.934
91244SOL     OW75564   8.937   1.337  10.719
91244SOL    HW175565   8.873   1.325  10.648
91244SOL    HW275566   8.898   1.405  10.774
91245SOL     OW75567   4.638   6.907  13.205
91245SOL    HW175568   4.604   6.824  13.239
91245SOL    HW275569   4.560   6.957  13.183
91246SOL     OW75570   4.781   0.810   3.983
91246SOL    HW175571   4.730   0.803   3.902
91246SOL    HW275572   4.729   0.763   4.048
91247SOL     OW75573   2.724  10.828  11.222
91247SOL    HW175574   2.796  10.886  11.197
91247SOL    HW275575   2.757  10.740  11.201
91248SOL     OW75576   8.498  14.762  10.310
91248SOL    HW175577   8.539  14.847  10.327
91248SOL    HW275578   8.565  14.712  10.264
91249SOL     OW75579   3.798   8.084   4.071
91249SOL    HW175580   3.854   8.055   3.998
91249SOL    HW275581   3.767   8.003   4.111
91250SOL     OW75582   6.098   5.127   2.743
91250SOL    HW175583   6.056   5.135   2.658
91250SOL    HW275584   6.109   5.032   2.755
91251SOL     OW75585   1.162   1.419  14.782
91251SOL    HW175586   1.251   1.427  14.749
91251SOL    HW275587   1.122   1.505  14.764
91252SOL     OW75588  11.007  14.381   7.192
91252SOL    HW175589  10.982  14.465   7.230
91252SOL    HW275590  11.053  14.403   7.112
91253SOL     OW75591  12.780   3.661  14.170
91253SOL    HW175592  12.757   3.584  14.117
91253SOL    HW275593  12.798   3.730  14.106
91254SOL     OW75594  14.199  12.493   6.443
91254SOL    HW175595  14.105  12.505   6.447
91254SOL    HW275596  14.213  12.401   6.463
91255SOL     OW75597  13.224  10.845   6.420
91255SOL    HW175598  13.298  10.784   6.420
91255SOL    HW275599  13.235  10.895   6.501
91256SOL     OW75600   4.722  14.701  12.027
91256SOL    HW175601   4.716  14.656  12.111
91256SOL    HW275602   4.715  14.794  12.048
91257SOL     OW75603  14.269   0.533   9.402
91257SOL    HW175604  14.190   0.481   9.384
91257SOL    HW275605  14.264   0.552   9.496
91258SOL     OW75606  12.062  11.825   2.880
91258SOL    HW175607  12.030  11.850   2.793
91258SOL    HW275608  12.157  11.830   2.873
91259SOL     OW75609  14.332   4.395  14.151
91259SOL    HW175610  14.306   4.383  14.059
91259SOL    HW275611  14.331   4.490  14.164
91260SOL     OW75612  14.442  11.914  13.225
91260SOL    HW175613  14.425  11.955  13.310
91260SOL    HW275614  14.537  11.909  13.220
91261SOL     OW75615   8.978   8.747  12.145
91261SOL    HW175616   9.053   8.687  12.137
91261SOL    HW275617   8.968   8.785  12.058
91262SOL     OW75618   7.539   5.259   8.183
91262SOL    HW175619   7.472   5.326   8.200
91262SOL    HW275620   7.492   5.176   8.190
91263SOL     OW75621  12.002  11.751   2.114
91263SOL    HW175622  11.982  11.821   2.176
91263SOL    HW275623  11.917  11.718   2.086
91264SOL     OW75624   9.073   5.172   5.911
91264SOL    HW175625   9.049   5.263   5.898
91264SOL    HW275626   9.150   5.160   5.856
91265SOL     OW75627   1.801   9.977   5.871
91265SOL    HW175628   1.883   9.995   5.916
91265SOL    HW275629   1.804   9.884   5.852
91266SOL     OW75630   8.907   5.504   0.360
91266SOL    HW175631   8.982   5.458   0.398
91266SOL    HW275632   8.938   5.594   0.347
91267SOL     OW75633  10.613  11.329  11.113
91267SOL    HW175634  10.623  11.275  11.034
91267SOL    HW275635  10.550  11.396  11.089
91268SOL     OW75636   5.539  11.960   5.556
91268SOL    HW175637   5.594  11.889   5.521
91268SOL    HW275638   5.595  12.037   5.555
91269SOL     OW75639  13.359   7.962   0.409
91269SOL    HW175640  13.422   7.902   0.370
91269SOL    HW275641  13.289   7.905   0.442
91270SOL     OW75642   1.501  10.166   0.638
91270SOL    HW175643   1.545  10.124   0.711
91270SOL    HW275644   1.539  10.125   0.560
91271SOL     OW75645  11.325   0.327   5.387
91271SOL    HW175646  11.386   0.274   5.335
91271SOL    HW275647  11.372   0.343   5.469
91272SOL     OW75648   4.668   3.619   3.173
91272SOL    HW175649   4.694   3.531   3.146
91272SOL    HW275650   4.727   3.677   3.125
91273SOL     OW75651  10.936   4.274  11.104
91273SOL    HW175652  10.880   4.212  11.057
91273SOL    HW275653  11.001   4.219  11.148
91274SOL     OW75654   1.905   5.492  11.062
91274SOL    HW175655   1.939   5.556  10.999
91274SOL    HW275656   1.928   5.407  11.025
91275SOL     OW75657   9.735   1.912   3.152
91275SOL    HW175658   9.758   1.978   3.087
91275SOL    HW275659   9.753   1.955   3.236
91276SOL     OW75660   0.048   2.789   5.898
91276SOL    HW175661   0.131   2.744   5.915
91276SOL    HW275662   0.020   2.756   5.813
91277SOL     OW75663   8.011   5.408  14.386
91277SOL    HW175664   8.077   5.447  14.444
91277SOL    HW275665   7.958   5.481  14.356
91278SOL     OW75666   5.148   0.905   5.903
91278SOL    HW175667   5.198   0.867   5.831
91278SOL    HW275668   5.057   0.904   5.873
91279SOL     OW75669  14.444   2.416  14.237
91279SOL    HW175670  14.494   2.484  14.192
91279SOL    HW275671  14.482   2.413  14.325
91280SOL     OW75672  12.163   1.601  14.361
91280SOL    HW175673  12.164   1.630  14.269
91280SOL    HW275674  12.215   1.521  14.361
91281SOL     OW75675   6.877  14.354   4.475
91281SOL    HW175676   6.904  14.291   4.542
91281SOL    HW275677   6.927  14.433   4.495
91282SOL     OW75678   3.271   7.818   3.177
91282SOL    HW175679   3.353   7.859   3.151
91282SOL    HW275680   3.286   7.789   3.268
91283SOL     OW75681  12.859   9.498   4.039
91283SOL    HW175682  12.821   9.508   4.126
91283SOL    HW275683  12.863   9.587   4.005
91284SOL     OW75684  12.314  10.212   2.953
91284SOL    HW175685  12.344  10.300   2.932
91284SOL    HW275686  12.230  10.204   2.907
91285SOL     OW75687   4.187   5.681  10.391
91285SOL    HW175688   4.135   5.753  10.355
91285SOL    HW275689   4.273   5.691  10.350
91286SOL     OW75690  11.780   2.233  13.858
91286SOL    HW175691  11.806   2.206  13.770
91286SOL    HW275692  11.862   2.234  13.908
91287SOL     OW75693   5.025   1.375   3.593
91287SOL    HW175694   5.093   1.332   3.644
91287SOL    HW275695   5.066   1.454   3.560
91288SOL     OW75696   1.043   9.147  11.883
91288SOL    HW175697   1.023   9.085  11.813
91288SOL    HW275698   1.137   9.163  11.875
91289SOL     OW75699   2.083  13.601   7.513
91289SOL    HW175700   2.169  13.637   7.491
91289SOL    HW275701   2.022  13.673   7.496
91290SOL     OW75702   2.997  14.049   6.184
91290SOL    HW175703   3.033  14.083   6.266
91290SOL    HW275704   3.044  14.098   6.115
91291SOL     OW75705  14.331   7.320   5.579
91291SOL    HW175706  14.355   7.354   5.492
91291SOL    HW275707  14.326   7.225   5.566
91292SOL     OW75708   3.515  14.089   9.446
91292SOL    HW175709   3.584  14.132   9.495
91292SOL    HW275710   3.434  14.128   9.477
91293SOL     OW75711   4.477   2.524  14.840
91293SOL    HW175712   4.420   2.560  14.772
91293SOL    HW275713   4.536   2.596  14.863
91294SOL     OW75714  12.001   8.667  12.541
91294SOL    HW175715  12.008   8.596  12.478
91294SOL    HW275716  11.913   8.702  12.529
91295SOL     OW75717  11.165  13.976   7.543
91295SOL    HW175718  11.219  13.993   7.621
91295SOL    HW275719  11.224  13.995   7.470
91296SOL     OW75720  14.400   8.976   9.527
91296SOL    HW175721  14.386   8.884   9.503
91296SOL    HW275722  14.321   9.000   9.575
91297SOL     OW75723   8.339   0.255   1.574
91297SOL    HW175724   8.339   0.274   1.668
91297SOL    HW275725   8.312   0.337   1.533
91298SOL     OW75726   5.961  10.538   6.361
91298SOL    HW175727   5.948  10.615   6.417
91298SOL    HW275728   5.878  10.527   6.315
91299SOL     OW75729   8.998   0.519   8.074
91299SOL    HW175730   8.914   0.550   8.038
91299SOL    HW275731   9.049   0.599   8.086
91300SOL     OW75732   5.999   6.877  11.410
91300SOL    HW175733   5.981   6.968  11.434
91300SOL    HW275734   5.962   6.825  11.482
91301SOL     OW75735   3.091  13.854   3.712
91301SOL    HW175736   3.156  13.834   3.644
91301SOL    HW275737   3.058  13.769   3.739
91302SOL     OW75738   2.135   3.158   9.000
91302SOL    HW175739   2.225   3.176   9.028
91302SOL    HW275740   2.122   3.214   8.924
91303SOL     OW75741  11.591   9.439   7.978
91303SOL    HW175742  11.578   9.511   8.040
91303SOL    HW275743  11.683   9.416   7.987
91304SOL     OW75744   7.588   7.373  14.768
91304SOL    HW175745   7.666   7.421  14.797
91304SOL    HW275746   7.586   7.295  14.823
91305SOL     OW75747   1.670   6.630  12.203
91305SOL    HW175748   1.746   6.595  12.250
91305SOL    HW275749   1.595   6.590  12.246
91306SOL     OW75750  11.996   7.879  13.421
91306SOL    HW175751  11.977   7.856  13.512
91306SOL    HW275752  12.068   7.942  13.427
91307SOL     OW75753   8.843   9.315  14.334
91307SOL    HW175754   8.806   9.400  14.308
91307SOL    HW275755   8.813   9.303  14.424
91308SOL     OW75756   2.399   0.971   3.734
91308SOL    HW175757   2.400   0.898   3.796
91308SOL    HW275758   2.306   0.985   3.715
91309SOL     OW75759  10.928  12.816   9.954
91309SOL    HW175760  11.019  12.806   9.926
91309SOL    HW275761  10.923  12.905   9.986
91310SOL     OW75762   0.750   5.205   6.160
91310SOL    HW175763   0.776   5.120   6.196
91310SOL    HW275764   0.829   5.259   6.165
91311SOL     OW75765   0.929   1.206   7.060
91311SOL    HW175766   0.934   1.154   7.140
91311SOL    HW275767   1.016   1.242   7.049
91312SOL     OW75768   2.931  10.410   8.623
91312SOL    HW175769   2.854  10.383   8.572
91312SOL    HW275770   2.929  10.506   8.621
91313SOL     OW75771  11.968   7.053  11.134
91313SOL    HW175772  11.889   7.071  11.185
91313SOL    HW275773  11.948   6.971  11.087
91314SOL     OW75774  10.347   6.237   8.748
91314SOL    HW175775  10.306   6.151   8.736
91314SOL    HW275776  10.422   6.235   8.690
91315SOL     OW75777   2.879   8.574  12.107
91315SOL    HW175778   2.812   8.513  12.136
91315SOL    HW275779   2.885   8.639  12.177
91316SOL     OW75780   1.468   6.618  13.800
91316SOL    HW175781   1.433   6.676  13.868
91316SOL    HW275782   1.434   6.653  13.718
91317SOL     OW75783   3.055   3.381  11.130
91317SOL    HW175784   3.024   3.470  11.144
91317SOL    HW275785   3.068   3.374  11.035
91318SOL     OW75786  10.692  13.252  11.430
91318SOL    HW175787  10.606  13.262  11.471
91318SOL    HW275788  10.724  13.341  11.419
91319SOL     OW75789   5.959  13.400   5.651
91319SOL    HW175790   5.966  13.304   5.645
91319SOL    HW275791   5.883  13.422   5.597
91320SOL     OW75792  14.792  11.748   3.352
91320SOL    HW175793  14.711  11.797   3.365
91320SOL    HW275794  14.800  11.740   3.257
91321SOL     OW75795   1.238   2.132  11.482
91321SOL    HW175796   1.205   2.043  11.467
91321SOL    HW275797   1.328   2.120  11.510
91322SOL     OW75798  10.485   5.483  12.594
91322SOL    HW175799  10.391   5.483  12.576
91322SOL    HW275800  10.519   5.558  12.546
91323SOL     OW75801   1.195   3.479   7.499
91323SOL    HW175802   1.122   3.422   7.477
91323SOL    HW275803   1.157   3.547   7.555
91324SOL     OW75804   3.265   0.426  13.658
91324SOL    HW175805   3.182   0.381  13.643
91324SOL    HW275806   3.320   0.400  13.584
91325SOL     OW75807   5.250   5.153  12.185
91325SOL    HW175808   5.220   5.107  12.107
91325SOL    HW275809   5.170   5.179  12.230
91326SOL     OW75810   2.293   8.097   4.388
91326SOL    HW175811   2.253   8.114   4.303
91326SOL    HW275812   2.343   8.016   4.376
91327SOL     OW75813   6.582   5.287  14.839
91327SOL    HW175814   6.591   5.352  14.769
91327SOL    HW275815   6.646   5.219  14.818
91328SOL     OW75816  10.644  14.800   7.930
91328SOL    HW175817  10.578  14.867   7.945
91328SOL    HW275818  10.724  14.834   7.970
91329SOL     OW75819   6.953   6.890  13.990
91329SOL    HW175820   6.978   6.838  14.067
91329SOL    HW275821   6.904   6.964  14.026
91330SOL     OW75822  10.649  10.633  13.091
91330SOL    HW175823  10.608  10.679  13.018
91330SOL    HW275824  10.740  10.663  13.090
91331SOL     OW75825   5.302   3.603  10.309
91331SOL    HW175826   5.305   3.659  10.387
91331SOL    HW275827   5.385   3.556  10.311
91332SOL     OW75828   9.596  11.603   6.286
91332SOL    HW175829   9.550  11.604   6.370
91332SOL    HW275830   9.627  11.513   6.277
91333SOL     OW75831   0.294  13.927  12.042
91333SOL    HW175832   0.307  14.020  12.059
91333SOL    HW275833   0.330  13.913  11.955
91334SOL     OW75834   7.287  14.366  13.417
91334SOL    HW175835   7.381  14.381  13.426
91334SOL    HW275836   7.270  14.372  13.323
91335SOL     OW75837   6.838   8.574   5.363
91335SOL    HW175838   6.802   8.492   5.330
91335SOL    HW275839   6.768   8.611   5.417
91336SOL     OW75840  12.917   4.602   1.200
91336SOL    HW175841  12.961   4.531   1.154
91336SOL    HW275842  12.828   4.570   1.215
91337SOL     OW75843  14.868   2.645   7.640
91337SOL    HW175844   0.004   2.598   7.557
91337SOL    HW275845  14.783   2.617   7.674
91338SOL     OW75846   1.301   2.901   2.345
91338SOL    HW175847   1.252   2.872   2.421
91338SOL    HW275848   1.306   2.997   2.354
91339SOL     OW75849   2.601   5.826   2.919
91339SOL    HW175850   2.537   5.857   2.856
91339SOL    HW275851   2.654   5.903   2.939
91340SOL     OW75852   7.615  10.433   3.637
91340SOL    HW175853   7.598  10.491   3.562
91340SOL    HW275854   7.699  10.393   3.618
91341SOL     OW75855   0.032  13.156  11.972
91341SOL    HW175856   0.081  13.078  11.996
91341SOL    HW275857  14.844  13.170  12.045
91342SOL     OW75858   0.464   9.664   7.786
91342SOL    HW175859   0.410   9.655   7.864
91342SOL    HW275860   0.405   9.699   7.720
91343SOL     OW75861   9.219   8.022   2.225
91343SOL    HW175862   9.189   7.933   2.203
91343SOL    HW275863   9.203   8.029   2.319
91344SOL     OW75864   6.541  10.616  13.376
91344SOL    HW175865   6.632  10.624  13.346
91344SOL    HW275866   6.548  10.614  13.472
91345SOL     OW75867   0.925   4.786   2.431
91345SOL    HW175868   0.902   4.828   2.348
91345SOL    HW275869   0.863   4.713   2.438
91346SOL     OW75870  11.353   2.641   8.428
91346SOL    HW175871  11.293   2.656   8.501
91346SOL    HW275872  11.432   2.688   8.452
91347SOL     OW75873   8.003  14.367   2.645
91347SOL    HW175874   8.048  14.448   2.619
91347SOL    HW275875   8.046  14.342   2.727
91348SOL     OW75876  10.333  13.410   7.181
91348SOL    HW175877  10.287  13.351   7.241
91348SOL    HW275878  10.274  13.484   7.170
91349SOL     OW75879  10.074  14.521   9.441
91349SOL    HW175880  10.003  14.582   9.418
91349SOL    HW275881  10.086  14.532   9.535
91350SOL     OW75882   3.920   3.731   1.367
91350SOL    HW175883   3.881   3.683   1.294
91350SOL    HW275884   3.924   3.667   1.438
91351SOL     OW75885  10.611  11.866   8.881
91351SOL    HW175886  10.637  11.842   8.791
91351SOL    HW275887  10.694  11.884   8.925
91352SOL     OW75888   9.201   0.284   8.747
91352SOL    HW175889   9.173   0.213   8.804
91352SOL    HW275890   9.292   0.300   8.771
91353SOL     OW75891  11.038   3.335   3.092
91353SOL    HW175892  10.980   3.297   3.026
91353SOL    HW275893  11.063   3.261   3.147
91354SOL     OW75894  14.252   2.085   5.649
91354SOL    HW175895  14.246   2.158   5.587
91354SOL    HW275896  14.295   2.123   5.725
91355SOL     OW75897   5.051   0.820   7.106
91355SOL    HW175898   5.010   0.906   7.098
91355SOL    HW275899   5.003   0.777   7.177
91356SOL     OW75900   9.869   3.026   1.564
91356SOL    HW175901   9.780   3.015   1.597
91356SOL    HW275902   9.923   3.029   1.643
91357SOL     OW75903  14.369   2.677   4.600
91357SOL    HW175904  14.371   2.744   4.669
91357SOL    HW275905  14.389   2.595   4.646
91358SOL     OW75906  14.203  13.196   7.259
91358SOL    HW175907  14.233  13.124   7.204
91358SOL    HW275908  14.180  13.266   7.197
91359SOL     OW75909   1.280  10.308  14.858
91359SOL    HW175910   1.242  10.221  14.852
91359SOL    HW275911   1.373  10.296  14.840
91360SOL     OW75912   2.208   9.022   0.192
91360SOL    HW175913   2.157   9.077   0.132
91360SOL    HW275914   2.294   9.064   0.197
91361SOL     OW75915   7.300  14.783  11.421
91361SOL    HW175916   7.212  14.819  11.414
91361SOL    HW275917   7.342  14.837  11.488
91362SOL     OW75918   6.991   4.858   5.001
91362SOL    HW175919   6.953   4.905   4.927
91362SOL    HW275920   7.000   4.924   5.069
91363SOL     OW75921  10.529   7.230  14.373
91363SOL    HW175922  10.623   7.246  14.388
91363SOL    HW275923  10.489   7.317  14.383
91364SOL     OW75924   7.687   2.732   3.435
91364SOL    HW175925   7.604   2.771   3.411
91364SOL    HW275926   7.749   2.805   3.438
91365SOL     OW75927  11.464   9.916   8.489
91365SOL    HW175928  11.461   9.972   8.411
91365SOL    HW275929  11.394   9.852   8.476
91366SOL     OW75930   1.011   4.459   5.530
91366SOL    HW175931   1.001   4.505   5.446
91366SOL    HW275932   1.082   4.397   5.515
91367SOL     OW75933   2.121   6.317   4.893
91367SOL    HW175934   2.111   6.231   4.934
91367SOL    HW275935   2.187   6.304   4.826
91368SOL     OW75936  14.158   9.244   4.840
91368SOL    HW175937  14.062   9.247   4.837
91368SOL    HW275938  14.186   9.309   4.776
91369SOL     OW75939   8.005  11.232   6.583
91369SOL    HW175940   8.023  11.145   6.618
91369SOL    HW275941   8.042  11.292   6.648
91370SOL     OW75942  11.873  13.772   9.167
91370SOL    HW175943  11.920  13.778   9.084
91370SOL    HW275944  11.940  13.754   9.232
91371SOL     OW75945   0.713   7.396   7.121
91371SOL    HW175946   0.673   7.444   7.049
91371SOL    HW275947   0.639   7.357   7.169
91372SOL     OW75948   3.801   8.986   9.049
91372SOL    HW175949   3.783   8.982   9.142
91372SOL    HW275950   3.752   8.912   9.012
91373SOL     OW75951  13.929   0.567   6.020
91373SOL    HW175952  13.893   0.544   6.105
91373SOL    HW275953  13.892   0.502   5.960
91374SOL     OW75954   7.505  10.471   6.531
91374SOL    HW175955   7.539  10.487   6.619
91374SOL    HW275956   7.474  10.557   6.502
91375SOL     OW75957   3.590   0.200   3.207
91375SOL    HW175958   3.669   0.254   3.210
91375SOL    HW275959   3.613   0.120   3.255
91376SOL     OW75960   3.227  13.769   2.907
91376SOL    HW175961   3.178  13.687   2.907
91376SOL    HW275962   3.280  13.765   2.827
91377SOL     OW75963   5.906   4.206   2.267
91377SOL    HW175964   5.991   4.246   2.287
91377SOL    HW275965   5.924   4.145   2.195
91378SOL     OW75966   2.101   7.714   8.107
91378SOL    HW175967   2.160   7.745   8.175
91378SOL    HW275968   2.023   7.770   8.117
91379SOL     OW75969   7.366   9.291   7.110
91379SOL    HW175970   7.286   9.297   7.058
91379SOL    HW275971   7.405   9.378   7.104
91380SOL     OW75972  12.581   9.744   7.867
91380SOL    HW175973  12.506   9.792   7.901
91380SOL    HW275974  12.622   9.706   7.945
91381SOL     OW75975   1.944  14.387  11.049
91381SOL    HW175976   1.926  14.338  10.969
91381SOL    HW275977   1.876  14.359  11.110
91382SOL     OW75978   3.510   1.766   0.082
91382SOL    HW175979   3.519   1.674   0.060
91382SOL    HW275980   3.484   1.766   0.175
91383SOL     OW75981  13.512   6.311   5.311
91383SOL    HW175982  13.551   6.324   5.398
91383SOL    HW275983  13.582   6.335   5.250
91384SOL     OW75984   7.516  13.672  12.283
91384SOL    HW175985   7.507  13.607  12.213
91384SOL    HW275986   7.605  13.659  12.316
91385SOL     OW75987   9.940   3.322   1.368
91385SOL    HW175988  10.004   3.390   1.386
91385SOL    HW275989   9.935   3.272   1.449
91386SOL     OW75990   1.409  14.349   4.333
91386SOL    HW175991   1.358  14.401   4.271
91386SOL    HW275992   1.379  14.259   4.319
91387SOL     OW75993  10.837  14.499   1.327
91387SOL    HW175994  10.833  14.574   1.386
91387SOL    HW275995  10.904  14.523   1.263
91388SOL     OW75996   6.020   4.301   6.678
91388SOL    HW175997   5.975   4.220   6.699
91388SOL    HW275998   6.069   4.323   6.758
91389SOL     OW75999   3.458   5.210   9.301
91389SOL    HW176000   3.390   5.221   9.234
91389SOL    HW276001   3.538   5.194   9.251
91390SOL     OW76002   9.683  11.427   5.621
91390SOL    HW176003   9.769  11.399   5.589
91390SOL    HW276004   9.689  11.422   5.716
91391SOL     OW76005  13.410  10.244  14.679
91391SOL    HW176006  13.321  10.258  14.645
91391SOL    HW276007  13.467  10.290  14.617
91392SOL     OW76008   6.230   9.605   1.154
91392SOL    HW176009   6.226   9.685   1.206
91392SOL    HW276010   6.323   9.594   1.134
91393SOL     OW76011  14.252   1.641  14.552
91393SOL    HW176012  14.323   1.677  14.605
91393SOL    HW276013  14.178   1.700  14.568
91394SOL     OW76014  11.886   7.203  12.233
91394SOL    HW176015  11.912   7.122  12.277
91394SOL    HW276016  11.828   7.175  12.163
91395SOL     OW76017   2.159   9.338   0.049
91395SOL    HW176018   2.253   9.346   0.066
91395SOL    HW276019   2.119   9.346   0.136
91396SOL     OW76020   3.471   8.052  11.993
91396SOL    HW176021   3.547   8.022  11.944
91396SOL    HW276022   3.494   8.140  12.022
91397SOL     OW76023   9.487   1.348  13.592
91397SOL    HW176024   9.446   1.430  13.564
91397SOL    HW276025   9.452   1.282  13.533
91398SOL     OW76026   9.091   5.509  13.500
91398SOL    HW176027   9.100   5.596  13.462
91398SOL    HW276028   9.124   5.518  13.589
91399SOL     OW76029   2.030   3.450   4.982
91399SOL    HW176030   2.084   3.421   4.909
91399SOL    HW276031   2.059   3.540   4.998
91400SOL     OW76032  13.506   6.754   6.340
91400SOL    HW176033  13.503   6.845   6.368
91400SOL    HW276034  13.469   6.705   6.413
91401SOL     OW76035  14.775   8.730  11.062
91401SOL    HW176036  14.729   8.772  11.134
91401SOL    HW276037  14.721   8.654  11.040
91402SOL     OW76038  10.382   3.692   2.740
91402SOL    HW176039  10.465   3.714   2.697
91402SOL    HW276040  10.405   3.683   2.833
91403SOL     OW76041  13.020   2.511   0.639
91403SOL    HW176042  13.075   2.586   0.662
91403SOL    HW276043  13.014   2.460   0.719
91404SOL     OW76044   9.730   9.975   3.296
91404SOL    HW176045   9.691   9.956   3.211
91404SOL    HW276046   9.733  10.070   3.301
91405SOL     OW76047   0.348  14.428   8.995
91405SOL    HW176048   0.361  14.450   8.902
91405SOL    HW276049   0.267  14.473   9.019
91406SOL     OW76050   5.027   0.543  10.071
91406SOL    HW176051   5.052   0.451  10.064
91406SOL    HW276052   5.020   0.573   9.980
91407SOL     OW76053  12.751   9.487  12.231
91407SOL    HW176054  12.718   9.445  12.310
91407SOL    HW276055  12.714   9.575  12.233
91408SOL     OW76056   4.870   6.153  10.666
91408SOL    HW176057   4.902   6.084  10.724
91408SOL    HW276058   4.916   6.139  10.584
91409SOL     OW76059   0.520  12.296   0.760
91409SOL    HW176060   0.503  12.284   0.853
91409SOL    HW276061   0.449  12.250   0.716
91410SOL     OW76062   8.062   2.732   1.292
91410SOL    HW176063   8.060   2.641   1.262
91410SOL    HW276064   8.135   2.735   1.353
91411SOL     OW76065  14.513  11.468   5.566
91411SOL    HW176066  14.495  11.375   5.550
91411SOL    HW276067  14.432  11.513   5.539
91412SOL     OW76068   4.907   5.013  14.263
91412SOL    HW176069   4.920   5.088  14.205
91412SOL    HW276070   4.821   4.980  14.240
91413SOL     OW76071   4.166   9.217   9.874
91413SOL    HW176072   4.257   9.192   9.884
91413SOL    HW276073   4.167   9.313   9.874
91414SOL     OW76074  10.381  10.616   9.746
91414SOL    HW176075  10.431  10.535   9.751
91414SOL    HW276076  10.415  10.671   9.816
91415SOL     OW76077   7.068   3.082   6.160
91415SOL    HW176078   7.130   3.140   6.205
91415SOL    HW276079   7.108   2.995   6.164
91416SOL     OW76080   7.554   2.247   2.985
91416SOL    HW176081   7.548   2.334   2.945
91416SOL    HW276082   7.587   2.190   2.916
91417SOL     OW76083   8.096   6.441  11.990
91417SOL    HW176084   8.160   6.383  11.948
91417SOL    HW276085   8.071   6.395  12.070
91418SOL     OW76086   9.551   4.733   0.348
91418SOL    HW176087   9.560   4.762   0.257
91418SOL    HW276088   9.461   4.701   0.354
91419SOL     OW76089   5.397   5.582  14.288
91419SOL    HW176090   5.308   5.557  14.261
91419SOL    HW276091   5.428   5.637  14.217
91420SOL     OW76092   8.484  11.262  13.142
91420SOL    HW176093   8.449  11.349  13.159
91420SOL    HW276094   8.419  11.202  13.179
91421SOL     OW76095   8.315   4.204   7.801
91421SOL    HW176096   8.322   4.140   7.730
91421SOL    HW276097   8.232   4.182   7.844
91422SOL     OW76098  10.327   6.455   4.013
91422SOL    HW176099  10.258   6.392   3.991
91422SOL    HW276100  10.286   6.541   4.003
91423SOL     OW76101   9.447  13.197   3.929
91423SOL    HW176102   9.450  13.292   3.920
91423SOL    HW276103   9.537  13.172   3.951
91424SOL     OW76104   0.879  13.996   3.777
91424SOL    HW176105   0.902  13.904   3.772
91424SOL    HW276106   0.794  14.002   3.733
91425SOL     OW76107  10.721   8.802   2.662
91425SOL    HW176108  10.735   8.852   2.582
91425SOL    HW276109  10.628   8.779   2.660
91426SOL     OW76110  13.772  10.570  14.623
91426SOL    HW176111  13.794  10.496  14.680
91426SOL    HW276112  13.739  10.636  14.682
91427SOL     OW76113  11.311   2.681   9.364
91427SOL    HW176114  11.299   2.613   9.430
91427SOL    HW276115  11.231   2.677   9.311
91428SOL     OW76116   2.854   3.489  13.988
91428SOL    HW176117   2.880   3.429  13.918
91428SOL    HW276118   2.858   3.576  13.948
91429SOL     OW76119   7.216  10.639  13.561
91429SOL    HW176120   7.251  10.582  13.493
91429SOL    HW276121   7.282  10.637  13.630
91430SOL     OW76122   0.697  11.027  13.370
91430SOL    HW176123   0.666  11.039  13.460
91430SOL    HW276124   0.779  10.977  13.379
91431SOL     OW76125   6.523   3.548  14.089
91431SOL    HW176126   6.486   3.559  14.176
91431SOL    HW276127   6.478   3.612  14.035
91432SOL     OW76128   4.356   3.063   8.443
91432SOL    HW176129   4.284   3.001   8.430
91432SOL    HW276130   4.335   3.105   8.527
91433SOL     OW76131   6.513   0.906   6.975
91433SOL    HW176132   6.581   0.972   6.986
91433SOL    HW276133   6.533   0.864   6.892
91434SOL     OW76134   2.112   5.238  12.581
91434SOL    HW176135   2.128   5.195  12.497
91434SOL    HW276136   2.031   5.286  12.569
91435SOL     OW76137   5.307   1.641  11.897
91435SOL    HW176138   5.356   1.723  11.902
91435SOL    HW276139   5.247   1.645  11.972
91436SOL     OW76140   9.001  14.499   1.422
91436SOL    HW176141   9.001  14.594   1.432
91436SOL    HW276142   9.091  14.478   1.397
91437SOL     OW76143   6.208   5.613   3.810
91437SOL    HW176144   6.180   5.655   3.891
91437SOL    HW276145   6.296   5.647   3.795
91438SOL     OW76146   2.421   6.921   8.856
91438SOL    HW176147   2.333   6.944   8.887
91438SOL    HW276148   2.411   6.834   8.817
91439SOL     OW76149   9.676   6.502  11.911
91439SOL    HW176150   9.712   6.589  11.893
91439SOL    HW276151   9.600   6.518  11.967
91440SOL     OW76152  12.155  12.856   2.437
91440SOL    HW176153  12.236  12.907   2.440
91440SOL    HW276154  12.086  12.921   2.428
91441SOL     OW76155   6.676   9.355   0.355
91441SOL    HW176156   6.693   9.348   0.449
91441SOL    HW276157   6.762   9.342   0.314
91442SOL     OW76158   8.398  13.031   4.356
91442SOL    HW176159   8.458  13.102   4.334
91442SOL    HW276160   8.330  13.073   4.408
91443SOL     OW76161   9.920   3.230   2.178
91443SOL    HW176162   9.830   3.218   2.146
91443SOL    HW276163   9.931   3.163   2.245
91444SOL     OW76164   0.037   7.489   9.362
91444SOL    HW176165   0.005   7.498   9.272
91444SOL    HW276166   0.026   7.576   9.400
91445SOL     OW76167  11.023   4.668   8.115
91445SOL    HW176168  11.054   4.759   8.118
91445SOL    HW276169  11.102   4.616   8.102
91446SOL     OW76170   3.241   4.884   5.438
91446SOL    HW176171   3.147   4.891   5.457
91446SOL    HW276172   3.265   4.969   5.401
91447SOL     OW76173   6.285   3.892   1.022
91447SOL    HW176174   6.363   3.898   0.967
91447SOL    HW276175   6.312   3.837   1.096
91448SOL     OW76176  14.468  13.232  10.127
91448SOL    HW176177  14.418  13.280  10.061
91448SOL    HW276178  14.478  13.295  10.199
91449SOL     OW76179   4.250  14.547  13.287
91449SOL    HW176180   4.159  14.523  13.267
91449SOL    HW276181   4.298  14.529  13.206
91450SOL     OW76182   9.597   1.074   8.867
91450SOL    HW176183   9.557   0.987   8.865
91450SOL    HW276184   9.603   1.100   8.775
91451SOL     OW76185   5.052  14.270   9.019
91451SOL    HW176186   5.039  14.358   9.055
91451SOL    HW276187   5.115  14.282   8.949
91452SOL     OW76188  12.975  14.528   2.767
91452SOL    HW176189  13.065  14.545   2.739
91452SOL    HW276190  12.929  14.610   2.751
91453SOL     OW76191  10.797   7.518   5.417
91453SOL    HW176192  10.798   7.422   5.421
91453SOL    HW276193  10.713   7.539   5.376
91454SOL     OW76194  14.348   8.105   5.953
91454SOL    HW176195  14.375   8.175   5.892
91454SOL    HW276196  14.394   8.027   5.922
91455SOL     OW76197   1.426   4.149  10.511
91455SOL    HW176198   1.367   4.223  10.520
91455SOL    HW276199   1.482   4.172  10.438
91456SOL     OW76200   7.548  11.473   4.522
91456SOL    HW176201   7.529  11.385   4.556
91456SOL    HW276202   7.627  11.500   4.568
91457SOL     OW76203  12.855   9.464  13.258
91457SOL    HW176204  12.933   9.510  13.289
91457SOL    HW276205  12.882   9.425  13.175
91458SOL     OW76206  14.193   5.139   9.666
91458SOL    HW176207  14.227   5.052   9.686
91458SOL    HW276208  14.159   5.171   9.750
91459SOL     OW76209   3.834  14.521   4.805
91459SOL    HW176210   3.830  14.425   4.813
91459SOL    HW276211   3.857  14.552   4.892
91460SOL     OW76212   6.820   2.653   9.630
91460SOL    HW176213   6.728   2.673   9.646
91460SOL    HW276214   6.835   2.681   9.540
91461SOL     OW76215   7.565   8.265   6.559
91461SOL    HW176216   7.509   8.251   6.482
91461SOL    HW276217   7.649   8.293   6.522
91462SOL     OW76218  11.253  10.340   9.486
91462SOL    HW176219  11.271  10.332   9.392
91462SOL    HW276220  11.332  10.306   9.528
91463SOL     OW76221  14.830  11.152   0.602
91463SOL    HW176222   0.044  11.130   0.636
91463SOL    HW276223  14.781  11.182   0.679
91464SOL     OW76224  13.522   1.455   8.295
91464SOL    HW176225  13.456   1.394   8.329
91464SOL    HW276226  13.499   1.466   8.203
91465SOL     OW76227   3.328   9.194  12.013
91465SOL    HW176228   3.406   9.176  11.961
91465SOL    HW276229   3.300   9.281  11.985
91466SOL     OW76230  10.767   3.375  13.834
91466SOL    HW176231  10.822   3.359  13.910
91466SOL    HW276232  10.817   3.438  13.782
91467SOL     OW76233  12.371  13.649   2.217
91467SOL    HW176234  12.426  13.614   2.147
91467SOL    HW276235  12.303  13.583   2.229
91468SOL     OW76236   4.633   0.929  14.724
91468SOL    HW176237   4.584   0.982  14.661
91468SOL    HW276238   4.704   0.890  14.673
91469SOL     OW76239  14.195   0.140   6.777
91469SOL    HW176240  14.132   0.154   6.847
91469SOL    HW276241  14.169   0.201   6.708
91470SOL     OW76242  14.619   1.452   5.485
91470SOL    HW176243  14.602   1.526   5.427
91470SOL    HW276244  14.682   1.486   5.549
91471SOL     OW76245   8.178   8.938   5.914
91471SOL    HW176246   8.241   8.870   5.939
91471SOL    HW276247   8.225   9.020   5.927
91472SOL     OW76248   0.247   0.643   4.508
91472SOL    HW176249   0.321   0.690   4.546
91472SOL    HW276250   0.220   0.698   4.435
91473SOL     OW76251   1.643   2.531  13.701
91473SOL    HW176252   1.583   2.601  13.676
91473SOL    HW276253   1.691   2.566  13.776
91474SOL     OW76254   7.875   7.384   0.874
91474SOL    HW176255   7.868   7.479   0.886
91474SOL    HW276256   7.923   7.353   0.950
91475SOL     OW76257   2.179  12.256   1.436
91475SOL    HW176258   2.124  12.195   1.387
91475SOL    HW276259   2.182  12.335   1.381
91476SOL     OW76260   9.399   5.241  13.983
91476SOL    HW176261   9.427   5.324  13.945
91476SOL    HW276262   9.304   5.241  13.971
91477SOL     OW76263   9.524   9.080   8.939
91477SOL    HW176264   9.510   9.069   9.033
91477SOL    HW276265   9.436   9.090   8.903
91478SOL     OW76266   2.229   7.920   7.771
91478SOL    HW176267   2.290   7.991   7.752
91478SOL    HW276268   2.156   7.933   7.710
91479SOL     OW76269  11.816   6.898   6.462
91479SOL    HW176270  11.734   6.926   6.422
91479SOL    HW276271  11.840   6.819   6.413
91480SOL     OW76272   7.370   1.721   8.360
91480SOL    HW176273   7.359   1.637   8.315
91480SOL    HW276274   7.380   1.698   8.452
91481SOL     OW76275  13.935   8.749   2.857
91481SOL    HW176276  13.866   8.689   2.885
91481SOL    HW276277  13.939   8.739   2.762
91482SOL     OW76278  14.644   6.775  11.235
91482SOL    HW176279  14.595   6.694  11.221
91482SOL    HW276280  14.588   6.844  11.200
91483SOL     OW76281   9.989  12.554   9.835
91483SOL    HW176282  10.000  12.600   9.752
91483SOL    HW276283  10.042  12.475   9.827
91484SOL     OW76284  12.325   8.801  14.401
91484SOL    HW176285  12.270   8.766  14.332
91484SOL    HW276286  12.403   8.834  14.356
91485SOL     OW76287   6.010   2.495   9.234
91485SOL    HW176288   6.006   2.505   9.139
91485SOL    HW276289   5.963   2.414   9.252
91486SOL     OW76290   0.595   8.223   7.166
91486SOL    HW176291   0.685   8.256   7.157
91486SOL    HW276292   0.593   8.183   7.253
91487SOL     OW76293  11.479   7.019   4.745
91487SOL    HW176294  11.417   6.952   4.715
91487SOL    HW276295  11.517   6.982   4.825
91488SOL     OW76296   1.985   7.590   6.960
91488SOL    HW176297   1.987   7.683   6.941
91488SOL    HW276298   2.070   7.558   6.931
91489SOL     OW76299   4.369   9.448   0.257
91489SOL    HW176300   4.294   9.401   0.294
91489SOL    HW276301   4.330   9.501   0.187
91490SOL     OW76302   2.253  13.226  13.800
91490SOL    HW176303   2.260  13.182  13.885
91490SOL    HW276304   2.343  13.253  13.780
91491SOL     OW76305   6.605   8.723   5.803
91491SOL    HW176306   6.679   8.691   5.854
91491SOL    HW276307   6.563   8.788   5.859
91492SOL     OW76308   0.272   0.495   9.978
91492SOL    HW176309   0.351   0.441   9.984
91492SOL    HW276310   0.293   0.574  10.027
91493SOL     OW76311   3.986   4.699  11.203
91493SOL    HW176312   3.942   4.647  11.136
91493SOL    HW276313   4.033   4.766  11.153
91494SOL     OW76314   9.618   4.828   6.465
91494SOL    HW176315   9.692   4.833   6.405
91494SOL    HW276316   9.582   4.740   6.451
91495SOL     OW76317   6.152  13.728  13.815
91495SOL    HW176318   6.241  13.741  13.781
91495SOL    HW276319   6.151  13.777  13.897
91496SOL     OW76320  10.756   8.684   4.871
91496SOL    HW176321  10.820   8.739   4.915
91496SOL    HW276322  10.754   8.717   4.781
91497SOL     OW76323   1.985  11.752   9.730
91497SOL    HW176324   1.987  11.682   9.795
91497SOL    HW276325   2.049  11.816   9.760
91498SOL     OW76326   0.516   4.598   0.505
91498SOL    HW176327   0.486   4.545   0.432
91498SOL    HW276328   0.439   4.649   0.531
91499SOL     OW76329   1.924   5.831  11.674
91499SOL    HW176330   1.987   5.801  11.608
91499SOL    HW276331   1.858   5.763  11.677
91500SOL     OW76332  13.103   9.536   3.786
91500SOL    HW176333  13.152   9.533   3.704
91500SOL    HW276334  13.021   9.580   3.764
91501SOL     OW76335   2.192   6.783   3.354
91501SOL    HW176336   2.254   6.765   3.426
91501SOL    HW276337   2.217   6.722   3.285
91502SOL     OW76338   2.637   1.098  11.524
91502SOL    HW176339   2.697   1.027  11.543
91502SOL    HW276340   2.693   1.172  11.502
91503SOL     OW76341  12.062  11.595   6.569
91503SOL    HW176342  12.085  11.516   6.519
91503SOL    HW276343  12.147  11.636   6.588
91504SOL     OW76344   7.590  13.011   8.113
91504SOL    HW176345   7.607  12.952   8.040
91504SOL    HW276346   7.619  13.097   8.082
91505SOL     OW76347   1.465   4.648  10.909
91505SOL    HW176348   1.546   4.686  10.878
91505SOL    HW276349   1.470   4.555  10.884
91506SOL     OW76350   2.308   9.875   9.244
91506SOL    HW176351   2.266   9.806   9.192
91506SOL    HW276352   2.340   9.829   9.322
91507SOL     OW76353   3.578   6.622  11.381
91507SOL    HW176354   3.639   6.600  11.312
91507SOL    HW276355   3.537   6.538  11.405
91508SOL     OW76356  11.651   0.762  10.020
91508SOL    HW176357  11.731   0.733  10.064
91508SOL    HW276358  11.604   0.681  10.000
91509SOL     OW76359   5.303   2.654   3.217
91509SOL    HW176360   5.378   2.614   3.261
91509SOL    HW276361   5.275   2.589   3.153
91510SOL     OW76362   4.277   6.083  11.539
91510SOL    HW176363   4.208   6.030  11.499
91510SOL    HW276364   4.354   6.069  11.484
91511SOL     OW76365   4.261  12.509   0.371
91511SOL    HW176366   4.256  12.429   0.423
91511SOL    HW276367   4.292  12.481   0.286
91512SOL     OW76368   4.828  13.279   0.906
91512SOL    HW176369   4.804  13.217   0.837
91512SOL    HW276370   4.745  13.315   0.935
91513SOL     OW76371  14.048   9.382   5.304
91513SOL    HW176372  14.131   9.410   5.265
91513SOL    HW276373  14.059   9.398   5.398
91514SOL     OW76374   2.979  12.348  12.939
91514SOL    HW176375   2.939  12.272  12.897
91514SOL    HW276376   2.906  12.393  12.982
91515SOL     OW76377   7.442   9.387   1.027
91515SOL    HW176378   7.399   9.472   1.016
91515SOL    HW276379   7.518   9.391   0.969
91516SOL     OW76380  11.957  12.885  11.349
91516SOL    HW176381  12.051  12.899  11.338
91516SOL    HW276382  11.916  12.956  11.300
91517SOL     OW76383   7.341   1.793  11.108
91517SOL    HW176384   7.250   1.799  11.078
91517SOL    HW276385   7.391   1.770  11.030
91518SOL     OW76386   3.801  12.625  13.084
91518SOL    HW176387   3.873  12.683  13.060
91518SOL    HW276388   3.755  12.609  13.002
91519SOL     OW76389   4.061   5.352  11.190
91519SOL    HW176390   3.988   5.295  11.212
91519SOL    HW276391   4.130   5.293  11.161
91520SOL     OW76392   0.076  11.050   5.011
91520SOL    HW176393   0.035  11.137   5.014
91520SOL    HW276394   0.042  11.010   4.931
91521SOL     OW76395   9.268   0.813  11.451
91521SOL    HW176396   9.257   0.899  11.492
91521SOL    HW276397   9.346   0.777  11.493
91522SOL     OW76398   9.204  12.601   4.698
91522SOL    HW176399   9.175  12.691   4.714
91522SOL    HW276400   9.278  12.589   4.757
91523SOL     OW76401  13.445   5.816   5.730
91523SOL    HW176402  13.438   5.729   5.690
91523SOL    HW276403  13.354   5.842   5.744
91524SOL     OW76404   3.940   5.854   8.015
91524SOL    HW176405   3.855   5.878   8.053
91524SOL    HW276406   3.979   5.938   7.990
91525SOL     OW76407  14.807  12.072   1.353
91525SOL    HW176408  14.861  12.130   1.299
91525SOL    HW276409  14.780  12.126   1.427
91526SOL     OW76410  13.591  11.847   1.991
91526SOL    HW176411  13.656  11.801   2.044
91526SOL    HW276412  13.512  11.848   2.044
91527SOL     OW76413  11.162   7.014   7.958
91527SOL    HW176414  11.079   7.062   7.964
91527SOL    HW276415  11.208   7.037   8.039
91528SOL     OW76416   2.313   7.274   8.389
91528SOL    HW176417   2.283   7.216   8.318
91528SOL    HW276418   2.338   7.215   8.460
91529SOL     OW76419   2.113   9.300   3.367
91529SOL    HW176420   2.029   9.278   3.406
91529SOL    HW276421   2.096   9.380   3.317
91530SOL     OW76422  13.611  13.814   0.257
91530SOL    HW176423  13.623  13.833   0.350
91530SOL    HW276424  13.675  13.869   0.212
91531SOL     OW76425   2.555  12.816   1.810
91531SOL    HW176426   2.501  12.746   1.845
91531SOL    HW276427   2.637  12.811   1.858
91532SOL     OW76428   6.463  12.877   1.969
91532SOL    HW176429   6.529  12.916   2.026
91532SOL    HW276430   6.390  12.939   1.972
91533SOL     OW76431  10.580   8.440  12.965
91533SOL    HW176432  10.527   8.514  12.935
91533SOL    HW276433  10.652   8.480  13.013
91534SOL     OW76434   6.570   7.511  10.861
91534SOL    HW176435   6.610   7.590  10.824
91534SOL    HW276436   6.625   7.490  10.938
91535SOL     OW76437  14.522   4.586   1.322
91535SOL    HW176438  14.615   4.589   1.302
91535SOL    HW276439  14.500   4.674   1.353
91536SOL     OW76440  14.764   2.695  11.571
91536SOL    HW176441  14.813   2.624  11.612
91536SOL    HW276442  14.672   2.667  11.579
91537SOL     OW76443   6.276  14.199   8.620
91537SOL    HW176444   6.202  14.253   8.593
91537SOL    HW276445   6.310  14.162   8.539
91538SOL     OW76446  14.488  13.990  10.640
91538SOL    HW176447  14.544  13.961  10.568
91538SOL    HW276448  14.433  14.058  10.601
91539SOL     OW76449   6.378   4.381   7.111
91539SOL    HW176450   6.384   4.311   7.176
91539SOL    HW276451   6.409   4.342   7.030
91540SOL     OW76452   0.086   1.959  13.519
91540SOL    HW176453   0.148   1.921  13.456
91540SOL    HW276454   0.055   1.885  13.571
91541SOL     OW76455  12.136   1.260   2.780
91541SOL    HW176456  12.135   1.165   2.770
91541SOL    HW276457  12.203   1.290   2.719
91542SOL     OW76458   0.412   7.868   6.281
91542SOL    HW176459   0.408   7.773   6.277
91542SOL    HW276460   0.453   7.894   6.198
91543SOL     OW76461   0.822   9.167   4.809
91543SOL    HW176462   0.752   9.110   4.777
91543SOL    HW276463   0.898   9.110   4.817
91544SOL     OW76464   0.070   8.275   9.424
91544SOL    HW176465  14.850   8.270   9.403
91544SOL    HW276466   0.098   8.184   9.436
91545SOL     OW76467  11.125  14.487  12.618
91545SOL    HW176468  11.181  14.553  12.576
91545SOL    HW276469  11.042  14.532  12.635
91546SOL     OW76470  12.076  13.775  10.757
91546SOL    HW176471  12.111  13.690  10.732
91546SOL    HW276472  12.059  13.820  10.674
91547SOL     OW76473   6.982   9.586   4.631
91547SOL    HW176474   6.937   9.665   4.660
91547SOL    HW276475   7.012   9.544   4.712
91548SOL     OW76476   6.877   7.699   4.703
91548SOL    HW176477   6.812   7.757   4.663
91548SOL    HW276478   6.883   7.728   4.794
91549SOL     OW76479   2.671   0.890  14.699
91549SOL    HW176480   2.692   0.833  14.773
91549SOL    HW276481   2.727   0.967  14.710
91550SOL     OW76482   8.630  10.700   7.114
91550SOL    HW176483   8.682  10.638   7.164
91550SOL    HW276484   8.606  10.653   7.034
91551SOL     OW76485  10.322   0.524  10.070
91551SOL    HW176486  10.351   0.482   9.989
91551SOL    HW276487  10.256   0.587  10.042
91552SOL     OW76488  10.950   8.176   2.130
91552SOL    HW176489  10.931   8.084   2.110
91552SOL    HW276490  11.017   8.173   2.198
91553SOL     OW76491  10.993  10.522  14.174
91553SOL    HW176492  11.041  10.567  14.244
91553SOL    HW276493  10.993  10.585  14.102
91554SOL     OW76494  10.062  11.349   7.232
91554SOL    HW176495  10.127  11.279   7.228
91554SOL    HW276496  10.068  11.381   7.322
91555SOL     OW76497   9.078   1.953   3.344
91555SOL    HW176498   9.117   2.034   3.378
91555SOL    HW276499   9.124   1.883   3.389
91556SOL     OW76500   3.732   3.615   2.199
91556SOL    HW176501   3.774   3.668   2.132
91556SOL    HW276502   3.733   3.670   2.277
91557SOL     OW76503   8.163   2.893   8.307
91557SOL    HW176504   8.209   2.921   8.227
91557SOL    HW276505   8.116   2.971   8.336
91558SOL     OW76506  14.422  11.987   7.624
91558SOL    HW176507  14.412  12.079   7.649
91558SOL    HW276508  14.406  11.938   7.705
91559SOL     OW76509   4.832   9.156   4.460
91559SOL    HW176510   4.906   9.212   4.439
91559SOL    HW276511   4.764   9.217   4.491
91560SOL     OW76512   3.236  11.309   9.420
91560SOL    HW176513   3.225  11.215   9.412
91560SOL    HW276514   3.150  11.345   9.401
91561SOL     OW76515   6.964   0.958  11.722
91561SOL    HW176516   6.936   0.886  11.779
91561SOL    HW276517   7.022   1.011  11.776
91562SOL     OW76518   8.688  11.876  12.543
91562SOL    HW176519   8.780  11.880  12.567
91562SOL    HW276520   8.644  11.837  12.619
91563SOL     OW76521   2.960   1.896   6.180
91563SOL    HW176522   2.910   1.974   6.203
91563SOL    HW276523   3.050   1.915   6.208
91564SOL     OW76524   7.507   2.332   9.195
91564SOL    HW176525   7.436   2.283   9.237
91564SOL    HW276526   7.585   2.310   9.245
91565SOL     OW76527  10.214   4.158  12.185
91565SOL    HW176528  10.202   4.192  12.274
91565SOL    HW276529  10.268   4.223  12.141
91566SOL     OW76530   1.091   8.970  10.925
91566SOL    HW176531   1.112   8.993  10.834
91566SOL    HW276532   1.174   8.977  10.971
91567SOL     OW76533   8.704   7.117   6.718
91567SOL    HW176534   8.608   7.118   6.719
91567SOL    HW276535   8.729   7.137   6.808
91568SOL     OW76536   7.334   7.293  14.643
91568SOL    HW176537   7.385   7.370  14.620
91568SOL    HW276538   7.351   7.231  14.572
91569SOL     OW76539   1.996   1.332  14.030
91569SOL    HW176540   2.024   1.399  14.093
91569SOL    HW276541   2.070   1.271  14.025
91570SOL     OW76542   0.427   9.472   7.434
91570SOL    HW176543   0.379   9.465   7.516
91570SOL    HW276544   0.450   9.565   7.428
91571SOL     OW76545  11.018   5.371   1.981
91571SOL    HW176546  11.032   5.465   1.972
91571SOL    HW276547  11.030   5.336   1.893
91572SOL     OW76548   2.583   8.612   4.191
91572SOL    HW176549   2.658   8.595   4.248
91572SOL    HW276550   2.507   8.599   4.248
91573SOL     OW76551   3.240  12.042  13.452
91573SOL    HW176552   3.245  12.136  13.467
91573SOL    HW276553   3.296  12.003  13.520
91574SOL     OW76554  12.859   4.555   4.012
91574SOL    HW176555  12.851   4.605   4.094
91574SOL    HW276556  12.771   4.556   3.975
91575SOL     OW76557   2.623  10.235   8.767
91575SOL    HW176558   2.707  10.194   8.785
91575SOL    HW276559   2.558  10.167   8.785
91576SOL     OW76560   5.120   5.396  10.777
91576SOL    HW176561   5.158   5.389  10.689
91576SOL    HW276562   5.193   5.422  10.833
91577SOL     OW76563   8.133   3.339   5.091
91577SOL    HW176564   8.049   3.296   5.101
91577SOL    HW276565   8.155   3.371   5.178
91578SOL     OW76566   6.101   0.219   6.251
91578SOL    HW176567   6.012   0.236   6.219
91578SOL    HW276568   6.157   0.270   6.192
91579SOL     OW76569   0.735   7.249  14.087
91579SOL    HW176570   0.733   7.208  14.001
91579SOL    HW276571   0.741   7.176  14.149
91580SOL     OW76572   5.309   7.542  11.719
91580SOL    HW176573   5.362   7.538  11.798
91580SOL    HW276574   5.351   7.480  11.659
91581SOL     OW76575   9.978  14.283  13.690
91581SOL    HW176576  10.007  14.367  13.655
91581SOL    HW276577   9.891  14.301  13.727
91582SOL     OW76578  14.478  12.961   1.640
91582SOL    HW176579  14.498  13.000   1.725
91582SOL    HW276580  14.532  12.882   1.636
91583SOL     OW76581  11.454   8.016   3.174
91583SOL    HW176582  11.544   7.993   3.199
91583SOL    HW276583  11.455   8.111   3.163
91584SOL     OW76584   7.487   9.274   4.443
91584SOL    HW176585   7.476   9.369   4.452
91584SOL    HW276586   7.496   9.259   4.349
91585SOL     OW76587   7.225  14.041   6.988
91585SOL    HW176588   7.241  14.136   6.991
91585SOL    HW276589   7.165  14.025   7.061
91586SOL     OW76590   0.014   6.694   4.257
91586SOL    HW176591   0.014   6.617   4.314
91586SOL    HW276592   0.107   6.716   4.245
91587SOL     OW76593   9.713   2.888   7.874
91587SOL    HW176594   9.801   2.912   7.845
91587SOL    HW276595   9.655   2.947   7.826
91588SOL     OW76596   4.126  12.909  12.656
91588SOL    HW176597   4.069  12.908  12.733
91588SOL    HW276598   4.096  12.834  12.604
91589SOL     OW76599   7.894   6.546   2.055
91589SOL    HW176600   7.857   6.551   2.144
91589SOL    HW276601   7.818   6.535   1.998
91590SOL     OW76602  13.006   3.397   7.221
91590SOL    HW176603  12.960   3.389   7.138
91590SOL    HW276604  12.936   3.395   7.287
91591SOL     OW76605   6.623   7.253  14.301
91591SOL    HW176606   6.583   7.182  14.352
91591SOL    HW276607   6.673   7.303  14.365
91592SOL     OW76608   3.175  13.868   3.981
91592SOL    HW176609   3.186  13.891   3.889
91592SOL    HW276610   3.082  13.883   3.999
91593SOL     OW76611  13.008  10.813   2.411
91593SOL    HW176612  13.082  10.770   2.454
91593SOL    HW276613  13.025  10.801   2.318
91594SOL     OW76614   6.681  13.910  11.578
91594SOL    HW176615   6.653  13.848  11.510
91594SOL    HW276616   6.770  13.881  11.601
91595SOL     OW76617   6.675  11.813   0.475
91595SOL    HW176618   6.753  11.862   0.500
91595SOL    HW276619   6.628  11.870   0.414
91596SOL     OW76620   8.137  13.250   9.362
91596SOL    HW176621   8.147  13.296   9.445
91596SOL    HW276622   8.059  13.289   9.323
91597SOL     OW76623   2.577   9.514   9.707
91597SOL    HW176624   2.588   9.484   9.797
91597SOL    HW276625   2.633   9.591   9.700
91598SOL     OW76626   6.778  11.681  14.408
91598SOL    HW176627   6.745  11.614  14.349
91598SOL    HW276628   6.700  11.719  14.448
91599SOL     OW76629  10.623   9.387   3.060
91599SOL    HW176630  10.707   9.340   3.061
91599SOL    HW276631  10.627   9.441   2.981
91600SOL     OW76632  11.005  12.578   1.339
91600SOL    HW176633  11.007  12.655   1.282
91600SOL    HW276634  11.082  12.528   1.314
91601SOL     OW76635   7.101   0.934  10.931
91601SOL    HW176636   7.090   1.020  10.970
91601SOL    HW276637   7.035   0.880  10.973
91602SOL     OW76638   1.164   2.908   1.035
91602SOL    HW176639   1.248   2.892   1.078
91602SOL    HW276640   1.100   2.910   1.107
91603SOL     OW76641  10.748  12.864   7.830
91603SOL    HW176642  10.834  12.904   7.817
91603SOL    HW276643  10.738  12.860   7.925
91604SOL     OW76644   3.628   8.886  12.579
91604SOL    HW176645   3.563   8.935  12.528
91604SOL    HW276646   3.706   8.887  12.524
91605SOL     OW76647   6.772   7.542   4.469
91605SOL    HW176648   6.705   7.480   4.497
91605SOL    HW276649   6.841   7.534   4.534
91606SOL     OW76650  11.096  10.986   0.235
91606SOL    HW176651  11.031  11.028   0.290
91606SOL    HW276652  11.125  11.054   0.174
91607SOL     OW76653   3.857  13.087   3.546
91607SOL    HW176654   3.873  13.168   3.497
91607SOL    HW276655   3.765  13.092   3.572
91608SOL     OW76656   0.158   6.662  13.773
91608SOL    HW176657   0.193   6.711  13.699
91608SOL    HW276658   0.105   6.726  13.821
91609SOL     OW76659  13.909   8.587  10.344
91609SOL    HW176660  13.912   8.682  10.330
91609SOL    HW276661  13.824   8.560  10.308
91610SOL     OW76662  12.968   8.400   0.845
91610SOL    HW176663  12.986   8.353   0.763
91610SOL    HW276664  13.004   8.487   0.831
91611SOL     OW76665   0.794   6.348  11.363
91611SOL    HW176666   0.702   6.365  11.385
91611SOL    HW276667   0.813   6.410  11.292
91612SOL     OW76668   4.529  11.454  13.358
91612SOL    HW176669   4.567  11.516  13.295
91612SOL    HW276670   4.475  11.509  13.415
91613SOL     OW76671  13.967  10.358   4.908
91613SOL    HW176672  13.912  10.391   4.979
91613SOL    HW276673  13.906  10.319   4.847
91614SOL     OW76674  10.079   7.076  12.592
91614SOL    HW176675  10.012   7.009  12.602
91614SOL    HW276676  10.162   7.028  12.600
91615SOL     OW76677   5.758   8.131   2.584
91615SOL    HW176678   5.763   8.118   2.490
91615SOL    HW276679   5.691   8.199   2.595
91616SOL     OW76680   1.568   7.570  11.367
91616SOL    HW176681   1.504   7.525  11.313
91616SOL    HW276682   1.517   7.629  11.423
91617SOL     OW76683  12.150  12.554   0.221
91617SOL    HW176684  12.214  12.514   0.280
91617SOL    HW276685  12.196  12.561   0.138
91618SOL     OW76686  13.857  10.554   6.321
91618SOL    HW176687  13.893  10.590   6.240
91618SOL    HW276688  13.909  10.476   6.339
91619SOL     OW76689   3.153   6.538   5.722
91619SOL    HW176690   3.233   6.520   5.773
91619SOL    HW276691   3.088   6.477   5.758
91620SOL     OW76692   0.040   7.425  12.716
91620SOL    HW176693   0.012   7.496  12.659
91620SOL    HW276694   0.049   7.465  12.803
91621SOL     OW76695   0.824   5.851   3.091
91621SOL    HW176696   0.900   5.897   3.057
91621SOL    HW276697   0.749   5.900   3.058
91622SOL     OW76698   6.586   3.703   5.632
91622SOL    HW176699   6.612   3.695   5.540
91622SOL    HW276700   6.546   3.618   5.652
91623SOL     OW76701   3.278   6.048  10.485
91623SOL    HW176702   3.198   6.012  10.446
91623SOL    HW276703   3.249   6.083  10.570
91624SOL     OW76704   9.553   2.749  14.277
91624SOL    HW176705   9.628   2.808  14.265
91624SOL    HW276706   9.515   2.776  14.360
91625SOL     OW76707   2.531   4.566   7.708
91625SOL    HW176708   2.555   4.473   7.717
91625SOL    HW276709   2.441   4.571   7.740
91626SOL     OW76710   8.472   5.647   6.047
91626SOL    HW176711   8.433   5.730   6.017
91626SOL    HW276712   8.400   5.600   6.088
91627SOL     OW76713   0.145   4.166  13.988
91627SOL    HW176714   0.100   4.081  13.985
91627SOL    HW276715   0.083   4.225  14.032
91628SOL     OW76716   8.622   5.642   2.483
91628SOL    HW176717   8.597   5.691   2.404
91628SOL    HW276718   8.539   5.616   2.523
91629SOL     OW76719   3.120   9.443  12.763
91629SOL    HW176720   3.209   9.469  12.736
91629SOL    HW276721   3.068   9.449  12.683
91630SOL     OW76722   4.028   6.336  11.741
91630SOL    HW176723   4.072   6.404  11.690
91630SOL    HW276724   3.983   6.385  11.810
91631SOL     OW76725   0.042   3.319  12.254
91631SOL    HW176726  14.843   3.301  12.193
91631SOL    HW276727   0.052   3.414  12.251
91632SOL     OW76728  10.507   0.088   0.966
91632SOL    HW176729  10.534   0.132   0.886
91632SOL    HW276730  10.425   0.130   0.991
91633SOL     OW76731  14.371   1.923   9.069
91633SOL    HW176732  14.284   1.922   9.029
91633SOL    HW276733  14.355   1.940   9.162
91634SOL     OW76734   9.273  12.569  10.166
91634SOL    HW176735   9.199  12.618  10.131
91634SOL    HW276736   9.318  12.534  10.089
91635SOL     OW76737  11.256  13.634   2.859
91635SOL    HW176738  11.288  13.558   2.811
91635SOL    HW276739  11.173  13.606   2.896
91636SOL     OW76740   5.721  11.428   7.369
91636SOL    HW176741   5.631  11.408   7.394
91636SOL    HW276742   5.714  11.469   7.283
91637SOL     OW76743   4.703   4.063   1.428
91637SOL    HW176744   4.757   3.999   1.474
91637SOL    HW276745   4.698   4.030   1.339
91638SOL     OW76746   7.325  13.258   9.281
91638SOL    HW176747   7.232  13.280   9.280
91638SOL    HW276748   7.346  13.247   9.374
91639SOL     OW76749   5.488   6.764  11.457
91639SOL    HW176750   5.560   6.781  11.519
91639SOL    HW276751   5.480   6.668  11.456
91640SOL     OW76752  12.187  12.267   2.315
91640SOL    HW176753  12.229  12.345   2.277
91640SOL    HW276754  12.181  12.288   2.409
91641SOL     OW76755   0.638   3.732  12.668
91641SOL    HW176756   0.542   3.738  12.660
91641SOL    HW276757   0.671   3.811  12.626
91642SOL     OW76758   4.116   1.325   1.071
91642SOL    HW176759   4.196   1.346   1.120
91642SOL    HW276760   4.044   1.347   1.130
91643SOL     OW76761  13.667   9.827  10.547
91643SOL    HW176762  13.737   9.788  10.600
91643SOL    HW276763  13.703   9.829  10.458
91644SOL     OW76764   3.655   8.208  11.059
91644SOL    HW176765   3.632   8.116  11.073
91644SOL    HW276766   3.595   8.237  10.991
91645SOL     OW76767   2.310   4.723  14.867
91645SOL    HW176768   2.288   4.770  14.786
91645SOL    HW276769   2.227   4.715   0.041
91646SOL     OW76770   6.600   2.646   9.162
91646SOL    HW176771   6.596   2.708   9.090
91646SOL    HW276772   6.583   2.698   9.240
91647SOL     OW76773  11.970  14.582   7.495
91647SOL    HW176774  11.902  14.574   7.563
91647SOL    HW276775  11.956  14.507   7.438
91648SOL     OW76776   4.623   1.794  12.379
91648SOL    HW176777   4.684   1.726  12.350
91648SOL    HW276778   4.623   1.786  12.474
91649SOL     OW76779   6.760   4.993   9.550
91649SOL    HW176780   6.685   5.051   9.565
91649SOL    HW276781   6.725   4.924   9.493
91650SOL     OW76782   9.514   1.685   8.548
91650SOL    HW176783   9.453   1.750   8.512
91650SOL    HW276784   9.564   1.732   8.614
91651SOL     OW76785  10.304  14.561  11.499
91651SOL    HW176786  10.237  14.537  11.434
91651SOL    HW276787  10.286  14.653  11.519
91652SOL     OW76788  13.740   7.502   3.361
91652SOL    HW176789  13.795   7.477   3.435
91652SOL    HW276790  13.721   7.595   3.375
91653SOL     OW76791   9.321   1.187  10.806
91653SOL    HW176792   9.255   1.175  10.738
91653SOL    HW276793   9.331   1.100  10.845
91654SOL     OW76794  12.429   1.377   2.814
91654SOL    HW176795  12.420   1.308   2.879
91654SOL    HW276796  12.411   1.458   2.862
91655SOL     OW76797   1.268  14.208   1.837
91655SOL    HW176798   1.330  14.159   1.891
91655SOL    HW276799   1.277  14.169   1.750
91656SOL     OW76800   2.480   6.588   5.571
91656SOL    HW176801   2.389   6.604   5.599
91656SOL    HW276802   2.493   6.495   5.587
91657SOL     OW76803   0.152   2.769  13.116
91657SOL    HW176804   0.237   2.741  13.150
91657SOL    HW276805   0.165   2.860  13.091
91658SOL     OW76806   0.558   5.517   4.651
91658SOL    HW176807   0.633   5.462   4.673
91658SOL    HW276808   0.560   5.523   4.555
91659SOL     OW76809   4.302   7.638   5.674
91659SOL    HW176810   4.323   7.560   5.623
91659SOL    HW276811   4.259   7.605   5.752
91660SOL     OW76812   4.607   6.066   2.172
91660SOL    HW176813   4.654   6.085   2.091
91660SOL    HW276814   4.598   6.151   2.215
91661SOL     OW76815   2.134   5.053  11.943
91661SOL    HW176816   2.106   4.961  11.935
91661SOL    HW276817   2.224   5.054  11.913
91662SOL     OW76818   6.750  10.303   0.349
91662SOL    HW176819   6.688  10.369   0.380
91662SOL    HW276820   6.708  10.220   0.368
91663SOL     OW76821  14.760   0.696   9.710
91663SOL    HW176822  14.797   0.619   9.668
91663SOL    HW276823  14.697   0.661   9.774
91664SOL     OW76824  11.537  12.777   9.132
91664SOL    HW176825  11.563  12.819   9.214
91664SOL    HW276826  11.545  12.846   9.067
91665SOL     OW76827   9.776   8.316  10.180
91665SOL    HW176828   9.690   8.274  10.182
91665SOL    HW276829   9.835   8.251  10.218
91666SOL     OW76830   1.581   2.784   1.880
91666SOL    HW176831   1.658   2.736   1.910
91666SOL    HW276832   1.517   2.774   1.951
91667SOL     OW76833   6.604   7.515  11.589
91667SOL    HW176834   6.557   7.594  11.563
91667SOL    HW276835   6.541   7.468  11.644
91668SOL     OW76836   4.973  14.424  10.919
91668SOL    HW176837   5.055  14.438  10.872
91668SOL    HW276838   4.909  14.474  10.868
91669SOL     OW76839   5.767   2.769   6.881
91669SOL    HW176840   5.816   2.693   6.910
91669SOL    HW276841   5.820   2.844   6.909
91670SOL     OW76842   9.325   7.906   7.912
91670SOL    HW176843   9.342   7.816   7.882
91670SOL    HW276844   9.331   7.901   8.007
91671SOL     OW76845   9.091   2.979   1.768
91671SOL    HW176846   9.069   2.916   1.699
91671SOL    HW276847   9.167   2.940   1.812
91672SOL     OW76848   1.304  11.752   3.448
91672SOL    HW176849   1.273  11.673   3.492
91672SOL    HW276850   1.338  11.807   3.519
91673SOL     OW76851  13.915   6.942  14.066
91673SOL    HW176852  13.882   6.932  14.155
91673SOL    HW276853  13.899   7.035  14.045
91674SOL     OW76854  14.132  12.530   4.438
91674SOL    HW176855  14.173  12.612   4.464
91674SOL    HW276856  14.183  12.501   4.362
91675SOL     OW76857   0.365  13.403   5.225
91675SOL    HW176858   0.300  13.473   5.230
91675SOL    HW276859   0.428  13.433   5.158
91676SOL     OW76860  14.086   1.484  11.788
91676SOL    HW176861  14.042   1.406  11.756
91676SOL    HW276862  14.165   1.490  11.734
91677SOL     OW76863  10.266   6.416  14.659
91677SOL    HW176864  10.224   6.392  14.741
91677SOL    HW276865  10.233   6.504  14.640
91678SOL     OW76866  10.023   4.390   6.022
91678SOL    HW176867   9.937   4.383   6.064
91678SOL    HW276868  10.055   4.300   6.017
91679SOL     OW76869   1.343   3.896   6.625
91679SOL    HW176870   1.273   3.926   6.682
91679SOL    HW276871   1.395   3.837   6.680
91680SOL     OW76872   1.492   6.367   6.972
91680SOL    HW176873   1.530   6.279   6.963
91680SOL    HW276874   1.563   6.420   7.009
91681SOL     OW76875  10.848  14.525  12.580
91681SOL    HW176876  10.791  14.454  12.608
91681SOL    HW276877  10.822  14.544  12.490
91682SOL     OW76878   7.515   7.699  14.013
91682SOL    HW176879   7.590   7.682  13.956
91682SOL    HW276880   7.494   7.613  14.051
91683SOL     OW76881  13.100   3.534  14.844
91683SOL    HW176882  13.068   3.459  14.795
91683SOL    HW276883  13.106   3.503   0.062
91684SOL     OW76884  13.060   7.251   6.588
91684SOL    HW176885  13.053   7.299   6.506
91684SOL    HW276886  13.044   7.316   6.656
91685SOL     OW76887  11.428   4.823   7.973
91685SOL    HW176888  11.396   4.890   7.913
91685SOL    HW276889  11.424   4.741   7.923
91686SOL     OW76890   4.943   3.481  11.352
91686SOL    HW176891   4.919   3.572  11.339
91686SOL    HW276892   4.890   3.432  11.289
91687SOL     OW76893   9.176  14.269   8.876
91687SOL    HW176894   9.131  14.307   8.800
91687SOL    HW276895   9.265  14.303   8.870
91688SOL     OW76896   7.822  14.103   1.651
91688SOL    HW176897   7.771  14.163   1.597
91688SOL    HW276898   7.910  14.105   1.612
91689SOL     OW76899   6.847   2.386  13.755
91689SOL    HW176900   6.779   2.446  13.785
91689SOL    HW276901   6.800   2.312  13.718
91690SOL     OW76902   6.023   9.449  12.858
91690SOL    HW176903   6.105   9.469  12.903
91690SOL    HW276904   5.993   9.368  12.897
91691SOL     OW76905  13.562   7.397   1.797
91691SOL    HW176906  13.636   7.367   1.850
91691SOL    HW276907  13.485   7.375   1.849
91692SOL     OW76908   0.345   2.024   5.358
91692SOL    HW176909   0.406   2.088   5.320
91692SOL    HW276910   0.267   2.030   5.302
91693SOL     OW76911   5.145   6.167   3.444
91693SOL    HW176912   5.102   6.118   3.373
91693SOL    HW276913   5.073   6.207   3.492
91694SOL     OW76914   4.471   5.243   8.593
91694SOL    HW176915   4.530   5.243   8.517
91694SOL    HW276916   4.497   5.319   8.644
91695SOL     OW76917   8.265  14.444   0.791
91695SOL    HW176918   8.229  14.363   0.827
91695SOL    HW276919   8.310  14.485   0.865
91696SOL     OW76920   4.922  13.650   1.405
91696SOL    HW176921   4.962  13.666   1.320
91696SOL    HW276922   4.911  13.555   1.409
91697SOL     OW76923  14.170  12.292   2.148
91697SOL    HW176924  14.217  12.353   2.091
91697SOL    HW276925  14.213  12.299   2.232
91698SOL     OW76926  12.534   2.603   0.649
91698SOL    HW176927  12.494   2.544   0.585
91698SOL    HW276928  12.467   2.669   0.666
91699SOL     OW76929   8.439   7.993   5.223
91699SOL    HW176930   8.381   7.971   5.151
91699SOL    HW276931   8.441   8.089   5.225
91700SOL     OW76932   8.675   2.819  14.825
91700SOL    HW176933   8.628   2.748  14.869
91700SOL    HW276934   8.730   2.774  14.760
91701SOL     OW76935  12.488  13.862   8.060
91701SOL    HW176936  12.527  13.937   8.015
91701SOL    HW276937  12.461  13.804   7.989
91702SOL     OW76938   2.926  12.604   0.182
91702SOL    HW176939   2.991  12.674   0.174
91702SOL    HW276940   2.970  12.526   0.149
91703SOL     OW76941  13.220   9.064  13.868
91703SOL    HW176942  13.310   9.081  13.841
91703SOL    HW276943  13.201   8.976  13.837
91704SOL     OW76944   8.306   3.276   5.748
91704SOL    HW176945   8.357   3.196   5.739
91704SOL    HW276946   8.219   3.246   5.777
91705SOL     OW76947   2.498   1.943   6.727
91705SOL    HW176948   2.468   1.955   6.638
91705SOL    HW276949   2.582   1.897   6.718
91706SOL     OW76950   6.340   9.347   3.374
91706SOL    HW176951   6.315   9.368   3.464
91706SOL    HW276952   6.427   9.387   3.364
91707SOL     OW76953   3.783   9.779   0.025
91707SOL    HW176954   3.708   9.746  14.849
91707SOL    HW276955   3.811   9.705   0.078
91708SOL     OW76956   6.739   1.841   6.734
91708SOL    HW176957   6.816   1.843   6.791
91708SOL    HW276958   6.775   1.828   6.647
91709SOL     OW76959  11.405   3.287  11.453
91709SOL    HW176960  11.323   3.299  11.500
91709SOL    HW276961  11.383   3.226  11.382
91710SOL     OW76962   3.181  12.416   0.986
91710SOL    HW176963   3.161  12.323   0.991
91710SOL    HW276964   3.097  12.458   0.967
91711SOL     OW76965   2.805   2.472   5.922
91711SOL    HW176966   2.881   2.527   5.938
91711SOL    HW276967   2.792   2.475   5.827
91712SOL     OW76968   2.437  11.461  11.757
91712SOL    HW176969   2.445  11.481  11.663
91712SOL    HW276970   2.520  11.490  11.795
91713SOL     OW76971  12.489  11.863   5.761
91713SOL    HW176972  12.432  11.840   5.688
91713SOL    HW276973  12.501  11.781   5.810
91714SOL     OW76974   4.983  11.590   5.733
91714SOL    HW176975   4.989  11.611   5.640
91714SOL    HW276976   5.051  11.523   5.746
91715SOL     OW76977   5.040   3.076   8.433
91715SOL    HW176978   4.973   3.141   8.456
91715SOL    HW276979   5.020   3.000   8.487
91716SOL     OW76980  14.196   1.795   0.647
91716SOL    HW176981  14.215   1.774   0.555
91716SOL    HW276982  14.109   1.759   0.662
91717SOL     OW76983   7.487  11.619   2.954
91717SOL    HW176984   7.420  11.561   2.918
91717SOL    HW276985   7.448  11.706   2.953
91718SOL     OW76986  12.473   5.731   0.771
91718SOL    HW176987  12.418   5.652   0.768
91718SOL    HW276988  12.488   5.747   0.864
91719SOL     OW76989  13.871  11.239   3.226
91719SOL    HW176990  13.943  11.225   3.288
91719SOL    HW276991  13.841  11.328   3.244
91720SOL     OW76992   3.863   8.397  13.589
91720SOL    HW176993   3.896   8.466  13.532
91720SOL    HW276994   3.795   8.440  13.642
91721SOL     OW76995   0.594   3.916   8.266
91721SOL    HW176996   0.623   3.922   8.175
91721SOL    HW276997   0.550   3.999   8.282
91722SOL     OW76998   2.367   8.271  11.029
91722SOL    HW176999   2.376   8.176  11.016
91722SOL    HW277000   2.301   8.279  11.097
91723SOL     OW77001  10.276   7.233   5.910
91723SOL    HW177002  10.211   7.294   5.876
91723SOL    HW277003  10.334   7.216   5.836
91724SOL     OW77004  12.944   2.904   3.740
91724SOL    HW177005  12.907   2.979   3.695
91724SOL    HW277006  12.935   2.924   3.833
91725SOL     OW77007  12.725   5.368   4.308
91725SOL    HW177008  12.648   5.355   4.254
91725SOL    HW277009  12.796   5.324   4.260
91726SOL     OW77010   1.130   0.456  13.939
91726SOL    HW177011   1.128   0.430  13.847
91726SOL    HW277012   1.135   0.374  13.987
91727SOL     OW77013  12.343  14.820   8.253
91727SOL    HW177014  12.359  14.806   8.159
91727SOL    HW277015  12.378   0.035   8.270
91728SOL     OW77016   3.462  14.306   1.981
91728SOL    HW177017   3.480  14.393   1.944
91728SOL    HW277018   3.535  14.290   2.041
91729SOL     OW77019  13.513  12.914   3.837
91729SOL    HW177020  13.545  12.840   3.889
91729SOL    HW277021  13.452  12.959   3.896
91730SOL     OW77022  10.556   8.444   8.490
91730SOL    HW177023  10.629   8.438   8.428
91730SOL    HW277024  10.521   8.532   8.477
91731SOL     OW77025   5.469  10.181   2.055
91731SOL    HW177026   5.419  10.099   2.058
91731SOL    HW277027   5.478  10.207   2.147
91732SOL     OW77028   7.793   0.060   4.352
91732SOL    HW177029   7.703   0.028   4.349
91732SOL    HW277030   7.790   0.133   4.414
91733SOL     OW77031   7.984   1.424   7.572
91733SOL    HW177032   7.968   1.336   7.608
91733SOL    HW277033   8.028   1.470   7.643
91734SOL     OW77034   0.711   8.322   6.460
91734SOL    HW177035   0.617   8.310   6.474
91734SOL    HW277036   0.748   8.234   6.466
91735SOL     OW77037   9.804  10.038   7.019
91735SOL    HW177038   9.736   9.989   7.065
91735SOL    HW277039   9.760  10.075   6.943
91736SOL     OW77040   1.987   6.963   2.035
91736SOL    HW177041   2.001   6.882   1.987
91736SOL    HW277042   1.970   6.935   2.125
91737SOL     OW77043   3.367   5.365   7.401
91737SOL    HW177044   3.428   5.430   7.365
91737SOL    HW277045   3.340   5.313   7.325
91738SOL     OW77046   3.972   7.461   9.176
91738SOL    HW177047   4.018   7.432   9.098
91738SOL    HW277048   3.993   7.554   9.183
91739SOL     OW77049   9.877   5.343  10.356
91739SOL    HW177050   9.805   5.400  10.329
91739SOL    HW277051   9.868   5.265  10.303
91740SOL     OW77052   7.730   1.169   0.873
91740SOL    HW177053   7.773   1.095   0.829
91740SOL    HW277054   7.702   1.133   0.957
91741SOL     OW77055   4.086   5.363   2.459
91741SOL    HW177056   4.073   5.327   2.372
91741SOL    HW277057   4.149   5.303   2.500
91742SOL     OW77058  13.885  10.238   0.012
91742SOL    HW177059  13.841  10.323   0.023
91742SOL    HW277060  13.814  10.178  14.862
91743SOL     OW77061   7.327   6.300   0.611
91743SOL    HW177062   7.412   6.271   0.642
91743SOL    HW277063   7.278   6.220   0.593
91744SOL     OW77064   3.199   0.787   8.466
91744SOL    HW177065   3.214   0.742   8.550
91744SOL    HW277066   3.286   0.792   8.426
91745SOL     OW77067   1.991  11.409  10.654
91745SOL    HW177068   2.055  11.432  10.721
91745SOL    HW277069   2.019  11.457  10.577
91746SOL     OW77070  12.116   7.274  13.396
91746SOL    HW177071  12.167   7.354  13.400
91746SOL    HW277072  12.162   7.219  13.333
91747SOL     OW77073   6.237   4.533   9.757
91747SOL    HW177074   6.328   4.512   9.740
91747SOL    HW277075   6.235   4.558   9.849
91748SOL     OW77076   6.048   4.687   6.543
91748SOL    HW177077   6.018   4.766   6.589
91748SOL    HW277078   6.066   4.716   6.454
91749SOL     OW77079  14.400   0.655  10.790
91749SOL    HW177080  14.335   0.594  10.755
91749SOL    HW277081  14.428   0.616  10.873
91750SOL     OW77082   4.310   4.907   5.465
91750SOL    HW177083   4.346   4.990   5.433
91750SOL    HW277084   4.242   4.885   5.401
91751SOL     OW77085   7.955  10.289  10.379
91751SOL    HW177086   8.006  10.214  10.349
91751SOL    HW277087   7.943  10.273  10.472
91752SOL     OW77088   3.462   5.846  11.476
91752SOL    HW177089   3.402   5.859  11.404
91752SOL    HW277090   3.516   5.925  11.478
91753SOL     OW77091   9.299   6.153   4.593
91753SOL    HW177092   9.208   6.180   4.582
91753SOL    HW277093   9.326   6.125   4.506
91754SOL     OW77094  13.872   3.915   0.204
91754SOL    HW177095  13.955   3.962   0.204
91754SOL    HW277096  13.870   3.872   0.118
91755SOL     OW77097  14.342   3.903  10.779
91755SOL    HW177098  14.432   3.916  10.750
91755SOL    HW277099  14.340   3.815  10.815
91756SOL     OW77100   0.552  10.612   0.159
91756SOL    HW177101   0.620  10.593   0.095
91756SOL    HW277102   0.492  10.672   0.113
91757SOL     OW77103  14.557  11.189   8.458
91757SOL    HW177104  14.522  11.259   8.403
91757SOL    HW277105  14.495  11.183   8.531
91758SOL     OW77106   6.878   3.388   0.270
91758SOL    HW177107   6.961   3.366   0.313
91758SOL    HW277108   6.848   3.467   0.316
91759SOL     OW77109  13.269  11.363   9.348
91759SOL    HW177110  13.204  11.428   9.374
91759SOL    HW277111  13.225  11.310   9.281
91760SOL     OW77112   9.392   3.384   4.460
91760SOL    HW177113   9.334   3.439   4.407
91760SOL    HW277114   9.346   3.371   4.542
91761SOL     OW77115   9.389   4.813   4.721
91761SOL    HW177116   9.408   4.894   4.673
91761SOL    HW277117   9.340   4.759   4.659
91762SOL     OW77118   1.610   2.359   9.754
91762SOL    HW177119   1.676   2.428   9.748
91762SOL    HW277120   1.661   2.278   9.755
91763SOL     OW77121  14.183   2.248   1.859
91763SOL    HW177122  14.109   2.189   1.841
91763SOL    HW277123  14.233   2.203   1.927
91764SOL     OW77124  13.993   8.013   4.195
91764SOL    HW177125  14.046   8.045   4.267
91764SOL    HW277126  14.018   7.922   4.184
91765SOL     OW77127   5.041   6.465   1.301
91765SOL    HW177128   5.111   6.406   1.329
91765SOL    HW277129   5.072   6.552   1.326
91766SOL     OW77130   5.091  13.990  10.253
91766SOL    HW177131   5.179  13.993  10.292
91766SOL    HW277132   5.062  13.901  10.267
91767SOL     OW77133   5.045  13.383   9.960
91767SOL    HW177134   5.061  13.375  10.053
91767SOL    HW277135   5.089  13.308   9.920
91768SOL     OW77136  12.051  13.258   3.843
91768SOL    HW177137  12.099  13.177   3.828
91768SOL    HW277138  12.005  13.274   3.760
91769SOL     OW77139  13.123   7.629   0.857
91769SOL    HW177140  13.124   7.533   0.857
91769SOL    HW277141  13.200   7.654   0.805
91770SOL     OW77142   6.126  10.649   3.816
91770SOL    HW177143   6.190  10.707   3.774
91770SOL    HW277144   6.148  10.562   3.783
91771SOL     OW77145   3.650   8.513   7.566
91771SOL    HW177146   3.724   8.476   7.614
91771SOL    HW277147   3.690   8.569   7.500
91772SOL     OW77148  11.441   4.102  11.228
91772SOL    HW177149  11.526   4.144  11.221
91772SOL    HW277150  11.458   4.019  11.274
91773SOL     OW77151   4.669   0.592   2.060
91773SOL    HW177152   4.741   0.634   2.106
91773SOL    HW277153   4.707   0.510   2.027
91774SOL     OW77154   6.707   8.363   3.590
91774SOL    HW177155   6.720   8.279   3.635
91774SOL    HW277156   6.727   8.429   3.656
91775SOL     OW77157   9.059   7.151  11.327
91775SOL    HW177158   8.965   7.167  11.320
91775SOL    HW277159   9.076   7.149  11.421
91776SOL     OW77160   4.170  13.428  11.622
91776SOL    HW177161   4.212  13.368  11.559
91776SOL    HW277162   4.241  13.455  11.680
91777SOL     OW77163   2.238  13.741   2.886
91777SOL    HW177164   2.269  13.660   2.845
91777SOL    HW277165   2.202  13.713   2.970
91778SOL     OW77166   8.809   2.785   3.189
91778SOL    HW177167   8.786   2.833   3.269
91778SOL    HW277168   8.808   2.851   3.120
91779SOL     OW77169  11.141   6.028  10.373
91779SOL    HW177170  11.150   5.944  10.420
91779SOL    HW277171  11.050   6.028  10.342
91780SOL     OW77172   1.070  11.419  11.332
91780SOL    HW177173   1.140  11.474  11.365
91780SOL    HW277174   1.039  11.463  11.253
91781SOL     OW77175   6.953   2.376  11.322
91781SOL    HW177176   7.025   2.403  11.379
91781SOL    HW277177   6.883   2.352  11.382
91782SOL     OW77178   6.099  10.154   2.213
91782SOL    HW177179   6.014  10.180   2.179
91782SOL    HW277180   6.162  10.196   2.155
91783SOL     OW77181   6.903   6.053   3.269
91783SOL    HW177182   6.938   5.973   3.229
91783SOL    HW277183   6.827   6.075   3.215
91784SOL     OW77184   6.578  13.686  11.393
91784SOL    HW177185   6.547  13.739  11.320
91784SOL    HW277186   6.512  13.617  11.402
91785SOL     OW77187  11.228   3.743   8.784
91785SOL    HW177188  11.318   3.770   8.768
91785SOL    HW277189  11.236   3.662   8.833
91786SOL     OW77190   1.961   3.272   5.749
91786SOL    HW177191   1.882   3.227   5.779
91786SOL    HW277192   1.930   3.333   5.682
91787SOL     OW77193   9.636   5.948   6.776
91787SOL    HW177194   9.731   5.950   6.784
91787SOL    HW277195   9.619   5.886   6.705
91788SOL     OW77196   2.334  10.325   1.197
91788SOL    HW177197   2.290  10.243   1.174
91788SOL    HW277198   2.280  10.393   1.157
91789SOL     OW77199   1.708   1.834   4.606
91789SOL    HW177200   1.716   1.771   4.534
91789SOL    HW277201   1.614   1.837   4.624
91790SOL     OW77202   4.897   5.578   0.694
91790SOL    HW177203   4.949   5.519   0.640
91790SOL    HW277204   4.823   5.603   0.639
91791SOL     OW77205  14.554  14.102   8.599
91791SOL    HW177206  14.564  14.021   8.550
91791SOL    HW277207  14.465  14.099   8.633
91792SOL     OW77208   4.173  13.371  11.210
91792SOL    HW177209   4.177  13.351  11.117
91792SOL    HW277210   4.109  13.442  11.218
91793SOL     OW77211   3.709   6.516  14.101
91793SOL    HW177212   3.677   6.591  14.152
91793SOL    HW277213   3.798   6.541  14.076
91794SOL     OW77214   0.115   7.592   9.647
91794SOL    HW177215   0.128   7.687   9.645
91794SOL    HW277216   0.020   7.581   9.647
91795SOL     OW77217   5.164   9.196   8.454
91795SOL    HW177218   5.135   9.171   8.541
91795SOL    HW277219   5.085   9.227   8.410
91796SOL     OW77220   3.282   4.203   6.186
91796SOL    HW177221   3.296   4.285   6.139
91796SOL    HW277222   3.364   4.189   6.234
91797SOL     OW77223   8.081  11.812  13.140
91797SOL    HW177224   8.157  11.867  13.159
91797SOL    HW277225   8.014  11.842  13.202
91798SOL     OW77226   4.456   9.532   9.417
91798SOL    HW177227   4.461   9.608   9.475
91798SOL    HW277228   4.366   9.502   9.425
91799SOL     OW77229  12.141   0.109   9.118
91799SOL    HW177230  12.143   0.096   9.023
91799SOL    HW277231  12.192   0.036   9.153
91800SOL     OW77232   8.859   4.259  14.258
91800SOL    HW177233   8.765   4.273  14.265
91800SOL    HW277234   8.898   4.330  14.310
91801SOL     OW77235   2.258   6.701  10.002
91801SOL    HW177236   2.170   6.691  10.040
91801SOL    HW277237   2.242   6.712   9.908
91802SOL     OW77238  11.248  11.576   9.509
91802SOL    HW177239  11.343  11.562   9.513
91802SOL    HW277240  11.237  11.661   9.468
91803SOL     OW77241   8.238   3.741  13.776
91803SOL    HW177242   8.290   3.786  13.842
91803SOL    HW277243   8.221   3.655  13.813
91804SOL     OW77244   0.995  12.581   2.757
91804SOL    HW177245   1.056  12.594   2.829
91804SOL    HW277246   1.041  12.613   2.680
91805SOL     OW77247   3.838   5.954   8.826
91805SOL    HW177248   3.856   6.043   8.794
91805SOL    HW277249   3.784   5.967   8.904
91806SOL     OW77250   2.074   6.974   6.846
91806SOL    HW177251   2.100   7.035   6.776
91806SOL    HW277252   2.149   6.915   6.855
91807SOL     OW77253   0.143   6.389   9.465
91807SOL    HW177254   0.238   6.387   9.454
91807SOL    HW277255   0.129   6.448   9.539
91808SOL     OW77256   5.288  13.949  11.751
91808SOL    HW177257   5.294  13.855  11.765
91808SOL    HW277258   5.204  13.962  11.708
91809SOL     OW77259  12.651  13.307  10.461
91809SOL    HW177260  12.709  13.379  10.482
91809SOL    HW277261  12.590  13.343  10.396
91810SOL     OW77262   7.140   1.978   6.606
91810SOL    HW177263   7.189   1.975   6.524
91810SOL    HW277264   7.148   1.889   6.641
91811SOL     OW77265   7.745   6.706   5.838
91811SOL    HW177266   7.812   6.775   5.841
91811SOL    HW277267   7.794   6.624   5.844
91812SOL     OW77268   1.957  10.389  10.100
91812SOL    HW177269   1.981  10.298  10.120
91812SOL    HW277270   1.864  10.395  10.124
91813SOL     OW77271   5.408  11.931   2.551
91813SOL    HW177272   5.425  11.936   2.457
91813SOL    HW277273   5.313  11.921   2.558
91814SOL     OW77274   3.679   4.677   7.002
91814SOL    HW177275   3.691   4.656   7.094
91814SOL    HW277276   3.696   4.772   6.997
91815SOL     OW77277   9.920   4.229  11.548
91815SOL    HW177278   9.960   4.239  11.461
91815SOL    HW277279   9.876   4.145  11.544
91816SOL     OW77280  10.070  11.314   4.619
91816SOL    HW177281  10.153  11.266   4.621
91816SOL    HW277282  10.045  11.324   4.711
91817SOL     OW77283   8.718   1.105  12.125
91817SOL    HW177284   8.712   1.028  12.181
91817SOL    HW277285   8.678   1.077  12.042
91818SOL     OW77286   8.319   1.303   5.554
91818SOL    HW177287   8.326   1.229   5.614
91818SOL    HW277288   8.368   1.276   5.476
91819SOL     OW77289   6.572   8.437   9.142
91819SOL    HW177290   6.510   8.493   9.097
91819SOL    HW277291   6.658   8.477   9.124
91820SOL     OW77292   9.740   6.186   2.517
91820SOL    HW177293   9.764   6.255   2.456
91820SOL    HW277294   9.692   6.230   2.586
91821SOL     OW77295   9.685   4.686   0.654
91821SOL    HW177296   9.733   4.606   0.633
91821SOL    HW277297   9.608   4.683   0.598
91822SOL     OW77298   7.047   5.780   7.893
91822SOL    HW177299   7.136   5.813   7.908
91822SOL    HW277300   7.032   5.720   7.966
91823SOL     OW77301   6.281   7.453   8.599
91823SOL    HW177302   6.279   7.439   8.694
91823SOL    HW277303   6.370   7.429   8.573
91824SOL     OW77304   7.208   4.475   5.244
91824SOL    HW177305   7.255   4.414   5.300
91824SOL    HW277306   7.140   4.512   5.301
91825SOL     OW77307   8.430   2.212   4.123
91825SOL    HW177308   8.445   2.150   4.194
91825SOL    HW277309   8.419   2.157   4.045
91826SOL     OW77310   4.842   6.569  12.556
91826SOL    HW177311   4.780   6.642  12.550
91826SOL    HW277312   4.915   6.596  12.500
91827SOL     OW77313  11.770  14.534   6.058
91827SOL    HW177314  11.682  14.538   6.021
91827SOL    HW277315  11.759  14.559   6.150
91828SOL     OW77316   6.880   2.612   1.350
91828SOL    HW177317   6.799   2.575   1.385
91828SOL    HW277318   6.940   2.537   1.343
91829SOL     OW77319   9.396   7.087   6.964
91829SOL    HW177320   9.478   7.083   6.914
91829SOL    HW277321   9.418   7.136   7.043
91830SOL     OW77322   3.722  10.367   9.814
91830SOL    HW177323   3.644  10.414   9.845
91830SOL    HW277324   3.762  10.331   9.893
91831SOL     OW77325  10.410   2.887   7.844
91831SOL    HW177326  10.490   2.837   7.864
91831SOL    HW277327  10.428   2.974   7.880
91832SOL     OW77328   4.899  11.105   1.075
91832SOL    HW177329   4.904  11.192   1.035
91832SOL    HW277330   4.875  11.047   1.002
91833SOL     OW77331  10.938   6.136   6.612
91833SOL    HW177332  10.850   6.099   6.619
91833SOL    HW277333  10.978   6.116   6.697
91834SOL     OW77334   4.355  13.163   8.760
91834SOL    HW177335   4.442  13.167   8.798
91834SOL    HW277336   4.357  13.225   8.687
91835SOL     OW77337   4.050   1.517   5.856
91835SOL    HW177338   4.018   1.605   5.835
91835SOL    HW277339   3.977   1.459   5.837
91836SOL     OW77340  10.363   4.017  12.667
91836SOL    HW177341  10.309   4.016  12.746
91836SOL    HW277342  10.300   4.022  12.595
91837SOL     OW77343  11.503   9.197   1.848
91837SOL    HW177344  11.535   9.193   1.938
91837SOL    HW277345  11.411   9.222   1.856
91838SOL     OW77346   3.334   5.920   6.090
91838SOL    HW177347   3.253   5.953   6.051
91838SOL    HW277348   3.359   5.987   6.154
91839SOL     OW77349   1.475   5.519   6.311
91839SOL    HW177350   1.549   5.459   6.321
91839SOL    HW277351   1.508   5.589   6.255
91840SOL     OW77352  12.321   4.935   2.036
91840SOL    HW177353  12.301   4.987   2.114
91840SOL    HW277354  12.246   4.876   2.027
91841SOL     OW77355   4.102   2.094   3.065
91841SOL    HW177356   4.089   2.117   3.157
91841SOL    HW277357   4.016   2.065   3.035
91842SOL     OW77358  13.317   4.274   7.284
91842SOL    HW177359  13.305   4.358   7.328
91842SOL    HW277360  13.265   4.213   7.336
91843SOL     OW77361   8.037  14.513  13.180
91843SOL    HW177362   7.956  14.558  13.205
91843SOL    HW277363   8.015  14.467  13.099
91844SOL     OW77364  11.468   5.301   0.941
91844SOL    HW177365  11.534   5.369   0.932
91844SOL    HW277366  11.429   5.293   0.854
91845SOL     OW77367   3.493   6.491  10.236
91845SOL    HW177368   3.411   6.535  10.257
91845SOL    HW277369   3.517   6.444  10.316
91846SOL     OW77370   8.006   9.694  14.000
91846SOL    HW177371   7.917   9.662  13.983
91846SOL    HW277372   8.009   9.780  13.959
91847SOL     OW77373   7.590  10.900   8.215
91847SOL    HW177374   7.527  10.893   8.143
91847SOL    HW277375   7.588  10.813   8.256
91848SOL     OW77376   2.750   0.499  10.145
91848SOL    HW177377   2.792   0.416  10.122
91848SOL    HW277378   2.726   0.537  10.060
91849SOL     OW77379  12.880  12.267   0.555
91849SOL    HW177380  12.894  12.175   0.577
91849SOL    HW277381  12.882  12.313   0.639
91850SOL     OW77382   8.602  14.588  13.423
91850SOL    HW177383   8.575  14.673  13.459
91850SOL    HW277384   8.606  14.603  13.328
91851SOL     OW77385   7.380   7.389  10.820
91851SOL    HW177386   7.381   7.351  10.732
91851SOL    HW277387   7.373   7.313  10.878
91852SOL     OW77388   0.490   8.173   9.585
91852SOL    HW177389   0.481   8.099   9.645
91852SOL    HW277390   0.495   8.133   9.498
91853SOL     OW77391   5.525  12.761   3.411
91853SOL    HW177392   5.609  12.798   3.437
91853SOL    HW277393   5.520  12.678   3.459
91854SOL     OW77394  13.919   8.727   9.387
91854SOL    HW177395  13.965   8.799   9.345
91854SOL    HW277396  13.975   8.702   9.461
91855SOL     OW77397  11.434   9.693  10.440
91855SOL    HW177398  11.375   9.662  10.372
91855SOL    HW277399  11.519   9.657  10.416
91856SOL     OW77400   7.639   2.066   0.752
91856SOL    HW177401   7.715   2.045   0.698
91856SOL    HW277402   7.649   2.012   0.831
91857SOL     OW77403   3.512  11.428  12.666
91857SOL    HW177404   3.550  11.492  12.605
91857SOL    HW277405   3.581  11.363  12.678
91858SOL     OW77406   8.562   4.147   0.347
91858SOL    HW177407   8.472   4.115   0.359
91858SOL    HW277408   8.617   4.075   0.377
91859SOL     OW77409   6.317   0.022   9.593
91859SOL    HW177410   6.295  14.823   9.652
91859SOL    HW277411   6.237   0.036   9.542
91860SOL     OW77412  10.929   5.621  14.580
91860SOL    HW177413  11.001   5.662  14.628
91860SOL    HW277414  10.850   5.646  14.628
91861SOL     OW77415  14.787   6.739   3.629
91861SOL    HW177416  14.724   6.717   3.560
91861SOL    HW277417  14.737   6.736   3.710
91862SOL     OW77418   9.999   6.262   4.617
91862SOL    HW177419   9.978   6.170   4.606
91862SOL    HW277420   9.914   6.305   4.627
91863SOL     OW77421   9.856   6.656   9.903
91863SOL    HW177422   9.931   6.615   9.861
91863SOL    HW277423   9.793   6.669   9.832
91864SOL     OW77424   8.357   6.096   5.476
91864SOL    HW177425   8.346   6.001   5.480
91864SOL    HW277426   8.268   6.131   5.482
91865SOL     OW77427   9.751   7.510   6.685
91865SOL    HW177428   9.828   7.537   6.735
91865SOL    HW277429   9.689   7.480   6.751
91866SOL     OW77430   7.780   9.566  13.565
91866SOL    HW177431   7.808   9.655  13.547
91866SOL    HW277432   7.851   9.528  13.618
91867SOL     OW77433   6.926   1.832   6.959
91867SOL    HW177434   6.933   1.916   7.005
91867SOL    HW277435   7.013   1.816   6.924
91868SOL     OW77436   3.730   6.767  10.330
91868SOL    HW177437   3.744   6.678  10.361
91868SOL    HW277438   3.635   6.776  10.323
91869SOL     OW77439   0.891   3.643   0.706
91869SOL    HW177440   0.815   3.670   0.757
91869SOL    HW277441   0.856   3.624   0.619
91870SOL     OW77442  14.462   5.080   4.228
91870SOL    HW177443  14.391   5.119   4.278
91870SOL    HW277444  14.459   4.987   4.250
91871SOL     OW77445   0.213   8.009  13.678
91871SOL    HW177446   0.247   7.945  13.617
91871SOL    HW277447   0.118   8.011  13.662
91872SOL     OW77448   8.701  12.523   5.189
91872SOL    HW177449   8.667  12.433   5.184
91872SOL    HW277450   8.633  12.576   5.147
91873SOL     OW77451   5.512   5.113   0.139
91873SOL    HW177452   5.435   5.121   0.082
91873SOL    HW277453   5.574   5.177   0.105
91874SOL     OW77454   4.632   9.250   8.645
91874SOL    HW177455   4.682   9.240   8.726
91874SOL    HW277456   4.589   9.165   8.633
91875SOL     OW77457   8.330   7.365   2.568
91875SOL    HW177458   8.411   7.416   2.574
91875SOL    HW277459   8.262   7.425   2.598
91876SOL     OW77460   5.214   2.877   8.917
91876SOL    HW177461   5.297   2.843   8.885
91876SOL    HW277462   5.238   2.932   8.992
91877SOL     OW77463  14.859   0.901   8.134
91877SOL    HW177464  14.846   0.970   8.199
91877SOL    HW277465  14.776   0.853   8.134
91878SOL     OW77466   9.862  13.111   7.325
91878SOL    HW177467   9.902  13.197   7.336
91878SOL    HW277468   9.887  13.063   7.404
91879SOL     OW77469   2.278   0.744   7.654
91879SOL    HW177470   2.231   0.708   7.579
91879SOL    HW277471   2.304   0.832   7.625
91880SOL     OW77472   9.536   1.820   2.800
91880SOL    HW177473   9.473   1.881   2.838
91880SOL    HW277474   9.552   1.756   2.869
91881SOL     OW77475   7.498   2.752   9.767
91881SOL    HW177476   7.534   2.799   9.692
91881SOL    HW277477   7.572   2.699   9.799
91882SOL     OW77478  11.110  12.703   1.549
91882SOL    HW177479  11.039  12.757   1.585
91882SOL    HW277480  11.071  12.657   1.475
91883SOL     OW77481   9.592   9.756   5.690
91883SOL    HW177482   9.555   9.670   5.711
91883SOL    HW277483   9.684   9.750   5.717
91884SOL     OW77484  13.841  11.972   1.580
91884SOL    HW177485  13.884  11.894   1.614
91884SOL    HW277486  13.751  11.966   1.612
91885SOL     OW77487  14.733   2.583   6.377
91885SOL    HW177488  14.674   2.571   6.452
91885SOL    HW277489  14.814   2.539   6.403
91886SOL     OW77490   9.846   1.919  10.879
91886SOL    HW177491   9.755   1.924  10.851
91886SOL    HW277492   9.846   1.951  10.969
91887SOL     OW77493  14.449   7.807  14.689
91887SOL    HW177494  14.419   7.866  14.759
91887SOL    HW277495  14.376   7.747  14.676
91888SOL     OW77496   3.419   0.367  12.741
91888SOL    HW177497   3.441   0.343  12.650
91888SOL    HW277498   3.462   0.451  12.754
91889SOL     OW77499  12.215  11.872   1.776
91889SOL    HW177500  12.210  11.796   1.833
91889SOL    HW277501  12.238  11.945   1.834
91890SOL     OW77502   1.466   9.658   6.945
91890SOL    HW177503   1.496   9.748   6.938
91890SOL    HW277504   1.500   9.627   7.028
91891SOL     OW77505   9.138   9.540   1.561
91891SOL    HW177506   9.046   9.538   1.588
91891SOL    HW277507   9.137   9.575   1.473
91892SOL     OW77508   1.927  10.255   2.588
91892SOL    HW177509   1.964  10.311   2.520
91892SOL    HW277510   2.002  10.230   2.641
91893SOL     OW77511  14.162   3.023   6.741
91893SOL    HW177512  14.188   2.942   6.785
91893SOL    HW277513  14.194   3.093   6.799
91894SOL     OW77514   5.840  10.010   3.518
91894SOL    HW177515   5.871   9.929   3.477
91894SOL    HW277516   5.912  10.038   3.574
91895SOL     OW77517   7.693   7.203  12.202
91895SOL    HW177518   7.603   7.178  12.183
91895SOL    HW277519   7.743   7.122  12.195
91896SOL     OW77520  13.233  12.544  10.944
91896SOL    HW177521  13.182  12.492  10.882
91896SOL    HW277522  13.168  12.581  11.004
91897SOL     OW77523   6.903  11.379  10.785
91897SOL    HW177524   6.951  11.414  10.860
91897SOL    HW277525   6.814  11.365  10.818
91898SOL     OW77526   3.524   0.265   4.020
91898SOL    HW177527   3.550   0.228   4.105
91898SOL    HW277528   3.561   0.353   4.020
91899SOL     OW77529   0.434  12.943   6.018
91899SOL    HW177530   0.482  12.977   6.093
91899SOL    HW277531   0.466  12.994   5.943
91900SOL     OW77532   3.239   4.279   9.605
91900SOL    HW177533   3.170   4.340   9.632
91900SOL    HW277534   3.308   4.335   9.571
91901SOL     OW77535   7.620   2.659   8.630
91901SOL    HW177536   7.700   2.616   8.602
91901SOL    HW277537   7.644   2.751   8.641
91902SOL     OW77538  10.613   3.694   3.726
91902SOL    HW177539  10.655   3.669   3.644
91902SOL    HW277540  10.595   3.611   3.769
91903SOL     OW77541  10.592   8.931   9.941
91903SOL    HW177542  10.605   8.841   9.910
91903SOL    HW277543  10.581   8.982   9.861
91904SOL     OW77544  14.210   0.908  10.498
91904SOL    HW177545  14.205   0.950  10.584
91904SOL    HW277546  14.130   0.936  10.454
91905SOL     OW77547   1.655   6.263  12.339
91905SOL    HW177548   1.578   6.316  12.319
91905SOL    HW277549   1.662   6.202  12.265
91906SOL     OW77550   5.728   2.501   7.509
91906SOL    HW177551   5.664   2.552   7.459
91906SOL    HW277552   5.688   2.415   7.519
91907SOL     OW77553   5.476   9.169   7.961
91907SOL    HW177554   5.543   9.101   7.961
91907SOL    HW277555   5.523   9.251   7.951
91908SOL     OW77556   8.996  14.800   5.718
91908SOL    HW177557   8.952  14.815   5.635
91908SOL    HW277558   8.937  14.741   5.766
91909SOL     OW77559  10.289   6.881   7.314
91909SOL    HW177560  10.252   6.964   7.286
91909SOL    HW277561  10.260   6.871   7.404
91910SOL     OW77562   4.786   3.287   6.025
91910SOL    HW177563   4.871   3.273   5.984
91910SOL    HW277564   4.755   3.199   6.048
91911SOL     OW77565  13.488   4.516   8.051
91911SOL    HW177566  13.446   4.439   8.087
91911SOL    HW277567  13.544   4.483   7.980
91912SOL     OW77568   6.556  12.269  10.694
91912SOL    HW177569   6.544  12.175  10.681
91912SOL    HW277570   6.468  12.306  10.691
91913SOL     OW77571   1.128  10.309   9.052
91913SOL    HW177572   1.222  10.302   9.064
91913SOL    HW277573   1.104  10.390   9.099
91914SOL     OW77574   4.740   9.175  11.327
91914SOL    HW177575   4.755   9.264  11.294
91914SOL    HW277576   4.816   9.125  11.297
91915SOL     OW77577   5.884   4.210  10.761
91915SOL    HW177578   5.884   4.299  10.796
91915SOL    HW277579   5.818   4.211  10.691
91916SOL     OW77580  11.018  11.967   2.136
91916SOL    HW177581  11.071  12.035   2.094
91916SOL    HW277582  10.933  11.974   2.092
91917SOL     OW77583   8.219  10.538   6.754
91917SOL    HW177584   8.256  10.592   6.824
91917SOL    HW277585   8.159  10.596   6.708
91918SOL     OW77586   6.226   4.110   1.360
91918SOL    HW177587   6.288   4.037   1.361
91918SOL    HW277588   6.248   4.161   1.438
91919SOL     OW77589   5.135  14.715   0.998
91919SOL    HW177590   5.049  14.677   0.978
91919SOL    HW277591   5.139  14.795   0.946
91920SOL     OW77592   8.330   9.588   6.982
91920SOL    HW177593   8.327   9.502   7.024
91920SOL    HW277594   8.238   9.610   6.967
91921SOL     OW77595   0.991   7.954   7.131
91921SOL    HW177596   1.021   7.983   7.045
91921SOL    HW277597   0.941   7.875   7.114
91922SOL     OW77598  10.630  12.545   0.725
91922SOL    HW177599  10.576  12.620   0.703
91922SOL    HW277600  10.620  12.485   0.651
91923SOL     OW77601   9.271   5.160   4.110
91923SOL    HW177602   9.177   5.157   4.129
91923SOL    HW277603   9.286   5.247   4.073
91924SOL     OW77604  11.183   2.129   6.678
91924SOL    HW177605  11.188   2.076   6.758
91924SOL    HW277606  11.120   2.085   6.622
91925SOL     OW77607   8.759  10.553  10.782
91925SOL    HW177608   8.780  10.584  10.870
91925SOL    HW277609   8.842  10.553  10.736
91926SOL     OW77610   7.315   4.830   0.854
91926SOL    HW177611   7.237   4.782   0.880
91926SOL    HW277612   7.366   4.838   0.935
91927SOL     OW77613   2.949  13.981   1.697
91927SOL    HW177614   2.969  13.967   1.789
91927SOL    HW277615   2.884  14.052   1.697
91928SOL     OW77616  14.412   2.025   0.552
91928SOL    HW177617  14.494   1.988   0.518
91928SOL    HW277618  14.359   1.950   0.576
91929SOL     OW77619  12.191   5.024  12.214
91929SOL    HW177620  12.127   5.075  12.265
91929SOL    HW277621  12.194   5.068  12.129
91930SOL     OW77622   6.609   0.098   5.223
91930SOL    HW177623   6.604   0.058   5.136
91930SOL    HW277624   6.689   0.151   5.221
91931SOL     OW77625   1.351   8.626  13.520
91931SOL    HW177626   1.361   8.677  13.440
91931SOL    HW277627   1.420   8.560  13.515
91932SOL     OW77628   7.205   3.849   5.828
91932SOL    HW177629   7.200   3.754   5.842
91932SOL    HW277630   7.126   3.883   5.871
91933SOL     OW77631  13.378   5.691  10.777
91933SOL    HW177632  13.465   5.711  10.810
91933SOL    HW277633  13.335   5.645  10.850
91934SOL     OW77634  13.534   5.582   3.030
91934SOL    HW177635  13.514   5.489   3.024
91934SOL    HW277636  13.476   5.623   2.966
91935SOL     OW77637   1.288   2.161   7.325
91935SOL    HW177638   1.261   2.155   7.416
91935SOL    HW277639   1.340   2.082   7.310
91936SOL     OW77640   3.263   5.019  10.176
91936SOL    HW177641   3.336   5.037  10.117
91936SOL    HW277642   3.201   5.089  10.160
91937SOL     OW77643   3.683  11.168   3.194
91937SOL    HW177644   3.678  11.251   3.243
91937SOL    HW277645   3.691  11.195   3.103
91938SOL     OW77646  13.944  12.586   3.183
91938SOL    HW177647  14.012  12.533   3.141
91938SOL    HW277648  13.923  12.538   3.264
91939SOL     OW77649   1.211   4.739   9.135
91939SOL    HW177650   1.249   4.668   9.082
91939SOL    HW277651   1.174   4.799   9.071
91940SOL     OW77652   0.388   5.943   9.956
91940SOL    HW177653   0.421   5.967  10.043
91940SOL    HW277654   0.424   6.009   9.897
91941SOL     OW77655   8.106   9.579  14.595
91941SOL    HW177656   8.135   9.488  14.589
91941SOL    HW277657   8.112   9.600  14.688
91942SOL     OW77658   3.671   7.263   0.741
91942SOL    HW177659   3.733   7.229   0.805
91942SOL    HW277660   3.720   7.261   0.658
91943SOL     OW77661  14.459  13.289  12.255
91943SOL    HW177662  14.470  13.246  12.170
91943SOL    HW277663  14.457  13.383  12.233
91944SOL     OW77664   2.294   5.222   3.118
91944SOL    HW177665   2.359   5.291   3.107
91944SOL    HW277666   2.345   5.142   3.127
91945SOL     OW77667   5.260  12.005   2.884
91945SOL    HW177668   5.221  12.082   2.842
91945SOL    HW277669   5.328  12.042   2.941
91946SOL     OW77670   2.343   9.817  14.858
91946SOL    HW177671   2.272   9.752  14.850
91946SOL    HW277672   2.303   9.899  14.831
91947SOL     OW77673   3.438   7.327   4.861
91947SOL    HW177674   3.399   7.285   4.937
91947SOL    HW277675   3.523   7.285   4.851
91948SOL     OW77676  10.251  12.705   5.008
91948SOL    HW177677  10.292  12.618   5.012
91948SOL    HW277678  10.186  12.704   5.078
91949SOL     OW77679  11.653   8.456  11.544
91949SOL    HW177680  11.720   8.446  11.476
91949SOL    HW277681  11.701   8.443  11.626
91950SOL     OW77682  10.487  13.546   8.356
91950SOL    HW177683  10.581  13.549   8.374
91950SOL    HW277684  10.465  13.636   8.329
91951SOL     OW77685   9.958   7.877  12.482
91951SOL    HW177686  10.048   7.889  12.451
91951SOL    HW277687   9.904   7.912  12.412
91952SOL     OW77688  14.445   2.099   8.061
91952SOL    HW177689  14.400   2.162   8.004
91952SOL    HW277690  14.535   2.132   8.067
91953SOL     OW77691  10.326   2.208   9.953
91953SOL    HW177692  10.323   2.184   9.860
91953SOL    HW277693  10.247   2.259   9.967
91954SOL     OW77694  12.284   3.247   7.250
91954SOL    HW177695  12.332   3.256   7.168
91954SOL    HW277696  12.230   3.169   7.238
91955SOL     OW77697   8.580  14.350   2.311
91955SOL    HW177698   8.606  14.369   2.401
91955SOL    HW277699   8.498  14.301   2.320
91956SOL     OW77700   0.350  13.098  12.904
91956SOL    HW177701   0.367  13.134  12.816
91956SOL    HW277702   0.296  13.165  12.947
91957SOL     OW77703   5.645   1.437  10.418
91957SOL    HW177704   5.577   1.373  10.396
91957SOL    HW277705   5.634   1.506  10.352
91958SOL     OW77706   6.025  10.369   4.993
91958SOL    HW177707   6.059  10.458   5.006
91958SOL    HW277708   6.048  10.347   4.903
91959SOL     OW77709   6.077  13.595   8.426
91959SOL    HW177710   6.152  13.642   8.464
91959SOL    HW277711   6.065  13.520   8.484
91960SOL     OW77712  12.414  14.752   6.667
91960SOL    HW177713  12.472  14.781   6.597
91960SOL    HW277714  12.326  14.772   6.635
91961SOL     OW77715   0.521   4.089   4.900
91961SOL    HW177716   0.573   4.009   4.890
91961SOL    HW277717   0.455   4.067   4.965
91962SOL     OW77718   1.182   4.588   4.964
91962SOL    HW177719   1.240   4.664   4.965
91962SOL    HW277720   1.096   4.624   4.943
91963SOL     OW77721   3.734   7.722  10.166
91963SOL    HW177722   3.665   7.685  10.111
91963SOL    HW277723   3.810   7.727  10.109
91964SOL     OW77724   1.334   5.089  10.611
91964SOL    HW177725   1.330   5.003  10.651
91964SOL    HW277726   1.378   5.075  10.527
91965SOL     OW77727   6.641  14.619   9.313
91965SOL    HW177728   6.658  14.670   9.234
91965SOL    HW277729   6.568  14.665   9.355
91966SOL     OW77730   8.941  10.375  13.858
91966SOL    HW177731   8.977  10.378  13.769
91966SOL    HW277732   8.986  10.301  13.900
91967SOL     OW77733   2.260   6.815   8.594
91967SOL    HW177734   2.272   6.755   8.667
91967SOL    HW277735   2.313   6.779   8.523
91968SOL     OW77736   0.781   9.396   7.230
91968SOL    HW177737   0.847   9.430   7.169
91968SOL    HW277738   0.790   9.301   7.224
91969SOL     OW77739   1.485  13.054   2.769
91969SOL    HW177740   1.405  13.089   2.808
91969SOL    HW277741   1.487  12.962   2.796
91970SOL     OW77742  12.291  10.769  10.069
91970SOL    HW177743  12.261  10.773   9.978
91970SOL    HW277744  12.378  10.811  10.067
91971SOL     OW77745   3.409   6.704   3.079
91971SOL    HW177746   3.336   6.762   3.060
91971SOL    HW277747   3.439   6.675   2.993
91972SOL     OW77748   6.368   9.052   6.704
91972SOL    HW177749   6.277   9.022   6.697
91972SOL    HW277750   6.383   9.100   6.622
91973SOL     OW77751   4.747  10.468  13.679
91973SOL    HW177752   4.833  10.430  13.699
91973SOL    HW277753   4.751  10.556  13.715
91974SOL     OW77754   9.252   1.286   7.105
91974SOL    HW177755   9.223   1.199   7.080
91974SOL    HW277756   9.230   1.293   7.198
91975SOL     OW77757   9.963  11.388   1.852
91975SOL    HW177758  10.031  11.352   1.795
91975SOL    HW277759   9.968  11.336   1.932
91976SOL     OW77760   8.502   9.659   9.327
91976SOL    HW177761   8.489   9.565   9.337
91976SOL    HW277762   8.484   9.695   9.414
91977SOL     OW77763   9.102   6.258   6.033
91977SOL    HW177764   9.097   6.166   6.008
91977SOL    HW277765   9.147   6.256   6.118
91978SOL     OW77766   3.643   4.644   0.417
91978SOL    HW177767   3.660   4.682   0.504
91978SOL    HW277768   3.574   4.580   0.432
91979SOL     OW77769  10.240   8.904   2.622
91979SOL    HW177770  10.182   8.930   2.693
91979SOL    HW277771  10.316   8.866   2.666
91980SOL     OW77772   3.450   9.349  12.886
91980SOL    HW177773   3.459   9.382  12.797
91980SOL    HW277774   3.507   9.272  12.889
91981SOL     OW77775  14.148  11.225   0.151
91981SOL    HW177776  14.075  11.162   0.155
91981SOL    HW277777  14.213  11.182   0.096
91982SOL     OW77778   9.148   7.912  11.140
91982SOL    HW177779   9.199   7.907  11.221
91982SOL    HW277780   9.110   7.825  11.130
91983SOL     OW77781  11.908   4.688   5.303
91983SOL    HW177782  11.854   4.628   5.251
91983SOL    HW277783  11.956   4.739   5.238
91984SOL     OW77784   0.160  13.959   6.588
91984SOL    HW177785   0.103  13.961   6.511
91984SOL    HW277786   0.245  13.931   6.554
91985SOL     OW77787   9.106   3.822   5.009
91985SOL    HW177788   9.036   3.879   4.977
91985SOL    HW277789   9.174   3.829   4.942
91986SOL     OW77790  13.878   1.583   1.386
91986SOL    HW177791  13.883   1.505   1.442
91986SOL    HW277792  13.887   1.548   1.297
91987SOL     OW77793  14.563   0.179   2.571
91987SOL    HW177794  14.592   0.087   2.573
91987SOL    HW277795  14.610   0.220   2.643
91988SOL     OW77796   0.711   4.537   4.988
91988SOL    HW177797   0.727   4.527   5.082
91988SOL    HW277798   0.679   4.452   4.959
91989SOL     OW77799   3.189   1.347   5.386
91989SOL    HW177800   3.257   1.413   5.369
91989SOL    HW277801   3.108   1.397   5.389
91990SOL     OW77802   5.190   4.379  13.040
91990SOL    HW177803   5.252   4.312  13.010
91990SOL    HW277804   5.108   4.357  12.994
91991SOL     OW77805  11.813   1.485  10.763
91991SOL    HW177806  11.873   1.558  10.746
91991SOL    HW277807  11.856   1.410  10.722
91992SOL     OW77808   6.364   9.495   7.463
91992SOL    HW177809   6.315   9.493   7.546
91992SOL    HW277810   6.355   9.585   7.432
91993SOL     OW77811   9.806  13.376   5.736
91993SOL    HW177812   9.769  13.347   5.820
91993SOL    HW277813   9.766  13.461   5.720
91994SOL     OW77814   7.537  12.901  14.145
91994SOL    HW177815   7.455  12.872  14.104
91994SOL    HW277816   7.518  12.989  14.177
91995SOL     OW77817  13.275  11.354   6.131
91995SOL    HW177818  13.298  11.376   6.221
91995SOL    HW277819  13.188  11.315   6.137
91996SOL     OW77820   1.770   2.194  11.826
91996SOL    HW177821   1.809   2.160  11.907
91996SOL    HW277822   1.702   2.254  11.856
91997SOL     OW77823  12.716   2.953   5.538
91997SOL    HW177824  12.749   3.028   5.488
91997SOL    HW277825  12.673   2.992   5.614
91998SOL     OW77826   4.874  12.770   5.382
91998SOL    HW177827   4.882  12.837   5.315
91998SOL    HW277828   4.784  12.777   5.413
91999SOL     OW77829   2.550   2.319  11.485
91999SOL    HW177830   2.478   2.337  11.545
91999SOL    HW277831   2.507   2.307  11.400
92000SOL     OW77832   9.222  14.221  10.300
92000SOL    HW177833   9.257  14.308  10.284
92000SOL    HW277834   9.197  14.189  10.214
92001SOL     OW77835   2.155  10.274  13.833
92001SOL    HW177836   2.104  10.335  13.887
92001SOL    HW277837   2.162  10.195  13.887
92002SOL     OW77838   3.076   1.941   5.915
92002SOL    HW177839   3.027   1.905   5.988
92002SOL    HW277840   3.042   2.029   5.903
92003SOL     OW77841   9.849  12.536  13.704
92003SOL    HW177842   9.813  12.615  13.663
92003SOL    HW277843   9.773  12.484  13.728
92004SOL     OW77844  14.151   0.775   8.630
92004SOL    HW177845  14.166   0.852   8.576
92004SOL    HW277846  14.133   0.705   8.568
92005SOL     OW77847   9.161  11.458   8.260
92005SOL    HW177848   9.126  11.467   8.172
92005SOL    HW277849   9.256  11.449   8.247
92006SOL     OW77850  14.769  12.726   5.096
92006SOL    HW177851  14.686  12.774   5.094
92006SOL    HW277852  14.793  12.715   5.004
92007SOL     OW77853   0.306  14.865  11.730
92007SOL    HW177854   0.247  14.810  11.679
92007SOL    HW277855   0.346  14.805  11.793
92008SOL     OW77856   6.699   4.938   7.984
92008SOL    HW177857   6.664   4.974   8.066
92008SOL    HW277858   6.673   5.001   7.917
92009SOL     OW77859   7.620  14.249   2.268
92009SOL    HW177860   7.532  14.214   2.258
92009SOL    HW277861   7.609  14.344   2.269
92010SOL     OW77862   9.269  14.067   4.373
92010SOL    HW177863   9.288  14.077   4.280
92010SOL    HW277864   9.264  13.972   4.386
92011SOL     OW77865  10.499   5.590   5.205
92011SOL    HW177866  10.561   5.517   5.202
92011SOL    HW277867  10.488   5.616   5.114
92012SOL     OW77868  14.080   5.223   5.206
92012SOL    HW177869  14.164   5.269   5.214
92012SOL    HW277870  14.075   5.197   5.114
92013SOL     OW77871  12.950  10.774  10.811
92013SOL    HW177872  12.963  10.832  10.886
92013SOL    HW277873  12.864  10.798  10.776
92014SOL     OW77874   1.279   6.877   5.119
92014SOL    HW177875   1.197   6.924   5.105
92014SOL    HW277876   1.297   6.835   5.035
92015SOL     OW77877   9.605  14.200  12.730
92015SOL    HW177878   9.674  14.211  12.665
92015SOL    HW277879   9.549  14.131  12.695
92016SOL     OW77880   2.937   4.143  10.574
92016SOL    HW177881   2.992   4.109  10.502
92016SOL    HW277882   2.853   4.163  10.533
92017SOL     OW77883  14.173  10.915  13.806
92017SOL    HW177884  14.191  10.865  13.726
92017SOL    HW277885  14.115  10.859  13.857
92018SOL     OW77886   3.827   8.751   1.762
92018SOL    HW177887   3.884   8.686   1.802
92018SOL    HW277888   3.850   8.749   1.669
92019SOL     OW77889   6.083  13.827  13.565
92019SOL    HW177890   6.040  13.764  13.506
92019SOL    HW277891   6.121  13.772  13.634
92020SOL     OW77892   1.139   5.138   5.960
92020SOL    HW177893   1.051   5.100   5.950
92020SOL    HW277894   1.176   5.137   5.872
92021SOL     OW77895   5.641  14.866  13.860
92021SOL    HW177896   5.555  14.850  13.822
92021SOL    HW277897   5.642  14.813  13.940
92022SOL     OW77898   4.463   9.525   6.866
92022SOL    HW177899   4.501   9.596   6.918
92022SOL    HW277900   4.431   9.463   6.931
92023SOL     OW77901  11.484  13.144   3.150
92023SOL    HW177902  11.431  13.146   3.230
92023SOL    HW277903  11.541  13.220   3.158
92024SOL     OW77904   9.705  13.613   3.567
92024SOL    HW177905   9.799  13.597   3.564
92024SOL    HW277906   9.671  13.573   3.487
92025SOL     OW77907   8.727  11.839   5.010
92025SOL    HW177908   8.646  11.888   4.997
92025SOL    HW277909   8.775  11.888   5.077
92026SOL     OW77910  13.757  12.840   8.273
92026SOL    HW177911  13.824  12.777   8.301
92026SOL    HW277912  13.707  12.792   8.207
92027SOL     OW77913   1.134   3.166   0.584
92027SOL    HW177914   1.135   3.147   0.678
92027SOL    HW277915   1.063   3.229   0.573
92028SOL     OW77916  13.402   1.812   8.547
92028SOL    HW177917  13.479   1.759   8.526
92028SOL    HW277918  13.348   1.808   8.468
92029SOL     OW77919   7.377   1.048  14.562
92029SOL    HW177920   7.371   1.132  14.607
92029SOL    HW277921   7.289   1.012  14.565
92030SOL     OW77922   0.320   0.968   7.976
92030SOL    HW177923   0.228   0.988   7.963
92030SOL    HW277924   0.323   0.917   8.057
92031SOL     OW77925   0.941  12.134   8.645
92031SOL    HW177926   0.915  12.161   8.733
92031SOL    HW277927   0.906  12.046   8.635
92032SOL     OW77928   2.983  14.386  11.814
92032SOL    HW177929   2.997  14.366  11.722
92032SOL    HW277930   3.070  14.381  11.853
92033SOL     OW77931  14.521  14.837  13.722
92033SOL    HW177932  14.612  14.810  13.709
92033SOL    HW277933  14.515  14.859  13.815
92034SOL     OW77934   5.525  12.022  12.516
92034SOL    HW177935   5.466  12.054  12.585
92034SOL    HW277936   5.546  11.933  12.543
92035SOL     OW77937  11.797   4.120   8.182
92035SOL    HW177938  11.836   4.066   8.113
92035SOL    HW277939  11.707   4.134   8.153
92036SOL     OW77940   6.814   6.433  11.940
92036SOL    HW177941   6.754   6.504  11.963
92036SOL    HW277942   6.889   6.445  11.999
92037SOL     OW77943   6.093   1.419  12.096
92037SOL    HW177944   6.046   1.502  12.109
92037SOL    HW277945   6.024   1.353  12.097
92038SOL     OW77946  10.286   2.105   3.352
92038SOL    HW177947  10.363   2.123   3.297
92038SOL    HW277948  10.239   2.188   3.354
92039SOL     OW77949  10.134   7.801  13.858
92039SOL    HW177950  10.105   7.890  13.836
92039SOL    HW277951  10.164   7.764  13.775
92040SOL     OW77952   2.808   5.461  11.048
92040SOL    HW177953   2.716   5.459  11.073
92040SOL    HW277954   2.817   5.390  10.984
92041SOL     OW77955   1.887  12.330   2.428
92041SOL    HW177956   1.951  12.261   2.445
92041SOL    HW277957   1.922  12.377   2.352
92042SOL     OW77958  14.209   9.863   6.123
92042SOL    HW177959  14.194   9.841   6.215
92042SOL    HW277960  14.282   9.808   6.096
92043SOL     OW77961   9.495   2.630   0.957
92043SOL    HW177962   9.549   2.703   0.926
92043SOL    HW277963   9.526   2.554   0.907
92044SOL     OW77964   9.200   6.552   6.301
92044SOL    HW177965   9.230   6.462   6.312
92044SOL    HW277966   9.165   6.577   6.386
92045SOL     OW77967  12.646   6.583   9.124
92045SOL    HW177968  12.709   6.535   9.070
92045SOL    HW277969  12.583   6.619   9.062
92046SOL     OW77970  13.879   7.789  11.903
92046SOL    HW177971  13.888   7.808  11.996
92046SOL    HW277972  13.817   7.715  11.900
92047SOL     OW77973   1.592   4.357   9.825
92047SOL    HW177974   1.649   4.411   9.770
92047SOL    HW277975   1.644   4.341   9.904
92048SOL     OW77976  11.402   4.311   9.422
92048SOL    HW177977  11.307   4.304   9.429
92048SOL    HW277978  11.433   4.221   9.416
92049SOL     OW77979   2.520   8.987   1.312
92049SOL    HW177980   2.510   9.063   1.369
92049SOL    HW277981   2.555   8.919   1.369
92050SOL     OW77982  14.531  13.323   9.123
92050SOL    HW177983  14.436  13.321   9.126
92050SOL    HW277984  14.559  13.272   9.199
92051SOL     OW77985   6.867   2.110   2.072
92051SOL    HW177986   6.931   2.181   2.065
92051SOL    HW277987   6.783   2.155   2.085
92052SOL     OW77988   6.161   2.039   1.531
92052SOL    HW177989   6.146   1.981   1.606
92052SOL    HW277990   6.102   2.006   1.463
92053SOL     OW77991   2.251   3.216   8.299
92053SOL    HW177992   2.194   3.181   8.367
92053SOL    HW277993   2.340   3.193   8.327
92054SOL     OW77994  11.858   7.619  14.797
92054SOL    HW177995  11.796   7.626  14.869
92054SOL    HW277996  11.942   7.642  14.835
92055SOL     OW77997   4.994  12.485   9.956
92055SOL    HW177998   4.916  12.491  10.012
92055SOL    HW277999   5.053  12.427  10.003
92056SOL     OW78000   1.732   5.152   1.535
92056SOL    HW178001   1.725   5.193   1.448
92056SOL    HW278002   1.643   5.149   1.568
92057SOL     OW78003   2.710   9.179   7.519
92057SOL    HW178004   2.784   9.207   7.465
92057SOL    HW278005   2.745   9.177   7.608
92058SOL     OW78006   1.714  12.588  10.897
92058SOL    HW178007   1.796  12.585  10.846
92058SOL    HW278008   1.665  12.660  10.858
92059SOL     OW78009   7.616  11.062  14.759
92059SOL    HW178010   7.667  10.985  14.734
92059SOL    HW278011   7.525  11.032  14.757
92060SOL     OW78012  13.148  12.210  14.620
92060SOL    HW178013  13.129  12.118  14.605
92060SOL    HW278014  13.131  12.224  14.713
92061SOL     OW78015   1.607  10.568   8.197
92061SOL    HW178016   1.622  10.535   8.109
92061SOL    HW278017   1.514  10.588   8.200
92062SOL     OW78018   5.352   8.662  10.214
92062SOL    HW178019   5.281   8.602  10.233
92062SOL    HW278020   5.368   8.709  10.296
92063SOL     OW78021   8.513   3.226  12.021
92063SOL    HW178022   8.575   3.285  11.978
92063SOL    HW278023   8.495   3.266  12.106
92064SOL     OW78024  11.232   6.524   7.705
92064SOL    HW178025  11.279   6.542   7.623
92064SOL    HW278026  11.246   6.431   7.721
92065SOL     OW78027   5.643  12.376  13.268
92065SOL    HW178028   5.684  12.456  13.301
92065SOL    HW278029   5.713  12.332  13.219
92066SOL     OW78030   4.125  10.783   0.608
92066SOL    HW178031   4.044  10.763   0.656
92066SOL    HW278032   4.186  10.715   0.636
92067SOL     OW78033   8.233   9.318  14.656
92067SOL    HW178034   8.283   9.236  14.655
92067SOL    HW278035   8.150   9.297  14.613
92068SOL     OW78036   5.637  11.054  14.840
92068SOL    HW178037   5.674  10.975  14.801
92068SOL    HW278038   5.630  11.116  14.768
92069SOL     OW78039   6.168  13.230  11.804
92069SOL    HW178040   6.080  13.245  11.771
92069SOL    HW278041   6.204  13.162  11.747
92070SOL     OW78042  12.425   2.128   7.683
92070SOL    HW178043  12.372   2.061   7.640
92070SOL    HW278044  12.515   2.097   7.673
92071SOL     OW78045   1.109   2.168   9.949
92071SOL    HW178046   1.196   2.135   9.927
92071SOL    HW278047   1.087   2.125  10.032
92072SOL     OW78048   6.252   2.967   0.227
92072SOL    HW178049   6.176   2.967   0.285
92072SOL    HW278050   6.310   3.034   0.262
92073SOL     OW78051   6.551   7.325   1.051
92073SOL    HW178052   6.488   7.388   1.014
92073SOL    HW278053   6.623   7.325   0.989
92074SOL     OW78054  10.649   1.292   5.266
92074SOL    HW178055  10.715   1.273   5.200
92074SOL    HW278056  10.692   1.354   5.326
92075SOL     OW78057   1.053  10.572   0.347
92075SOL    HW178058   0.958  10.577   0.362
92075SOL    HW278059   1.062  10.567   0.252
92076SOL     OW78060   0.043  10.497  12.289
92076SOL    HW178061   0.064  10.583  12.327
92076SOL    HW278062   0.029  10.441  12.365
92077SOL     OW78063  13.890   7.325   6.132
92077SOL    HW178064  13.836   7.322   6.211
92077SOL    HW278065  13.918   7.235   6.118
92078SOL     OW78066  12.918  11.138  12.716
92078SOL    HW178067  12.894  11.076  12.785
92078SOL    HW278068  12.888  11.223  12.749
92079SOL     OW78069   5.357   1.637   3.088
92079SOL    HW178070   5.354   1.603   3.177
92079SOL    HW278071   5.326   1.727   3.095
92080SOL     OW78072   1.590   0.447   9.660
92080SOL    HW178073   1.673   0.447   9.612
92080SOL    HW278074   1.544   0.525   9.630
92081SOL     OW78075  11.028   6.670   5.835
92081SOL    HW178076  10.990   6.702   5.917
92081SOL    HW278077  10.979   6.591   5.815
92082SOL     OW78078  10.450   6.224  11.081
92082SOL    HW178079  10.435   6.161  11.152
92082SOL    HW278080  10.520   6.185  11.029
92083SOL     OW78081   7.005   1.124   6.748
92083SOL    HW178082   6.988   1.088   6.661
92083SOL    HW278083   6.922   1.165   6.773
92084SOL     OW78084   2.421   2.161   3.630
92084SOL    HW178085   2.459   2.245   3.658
92084SOL    HW278086   2.486   2.096   3.657
92085SOL     OW78087   0.537  13.083   1.642
92085SOL    HW178088   0.578  12.997   1.637
92085SOL    HW278089   0.541  13.117   1.553
92086SOL     OW78090  13.302   4.060   0.553
92086SOL    HW178091  13.256   3.987   0.595
92086SOL    HW278092  13.331   4.024   0.469
92087SOL     OW78093   5.760  13.202   9.885
92087SOL    HW178094   5.806  13.123   9.911
92087SOL    HW278095   5.674  13.172   9.856
92088SOL     OW78096  12.535   6.831   9.705
92088SOL    HW178097  12.543   6.909   9.650
92088SOL    HW278098  12.620   6.787   9.696
92089SOL     OW78099   1.461   8.215   4.097
92089SOL    HW178100   1.435   8.188   4.009
92089SOL    HW278101   1.452   8.136   4.150
92090SOL     OW78102   5.206  13.153   5.807
92090SOL    HW178103   5.212  13.240   5.845
92090SOL    HW278104   5.145  13.163   5.734
92091SOL     OW78105   2.484  12.962   5.557
92091SOL    HW178106   2.458  12.953   5.648
92091SOL    HW278107   2.412  13.009   5.516
92092SOL     OW78108   9.581  11.348   6.797
92092SOL    HW178109   9.623  11.377   6.877
92092SOL    HW278110   9.488  11.339   6.820
92093SOL     OW78111   2.226  13.615   9.768
92093SOL    HW178112   2.189  13.663   9.694
92093SOL    HW278113   2.251  13.683   9.830
92094SOL     OW78114   7.714   5.815  13.232
92094SOL    HW178115   7.670   5.856  13.158
92094SOL    HW278116   7.645   5.767  13.277
92095SOL     OW78117  12.858  13.234  12.050
92095SOL    HW178118  12.814  13.256  12.132
92095SOL    HW278119  12.827  13.299  11.988
92096SOL     OW78120  11.244   3.977   5.080
92096SOL    HW178121  11.278   4.018   5.160
92096SOL    HW278122  11.229   4.050   5.020
92097SOL     OW78123   1.438  13.266   7.752
92097SOL    HW178124   1.515  13.268   7.695
92097SOL    HW278125   1.440  13.179   7.792
92098SOL     OW78126  11.300   2.991  10.282
92098SOL    HW178127  11.253   2.968  10.362
92098SOL    HW278128  11.259   3.073  10.253
92099SOL     OW78129  11.375   6.702   3.706
92099SOL    HW178130  11.365   6.632   3.641
92099SOL    HW278131  11.467   6.729   3.698
92100SOL     OW78132   3.613  11.199   7.633
92100SOL    HW178133   3.663  11.145   7.693
92100SOL    HW278134   3.664  11.198   7.552
92101SOL     OW78135   8.079   8.064   7.901
92101SOL    HW178136   8.097   7.982   7.945
92101SOL    HW278137   8.164   8.108   7.895
92102SOL     OW78138  11.492   7.624  10.048
92102SOL    HW178139  11.420   7.562  10.036
92102SOL    HW278140  11.502   7.665   9.962
92103SOL     OW78141  10.590  11.217  10.663
92103SOL    HW178142  10.573  11.310  10.679
92103SOL    HW278143  10.624  11.184  10.746
92104SOL     OW78144   5.052  14.040  11.651
92104SOL    HW178145   4.980  14.030  11.714
92104SOL    HW278146   5.030  14.119  11.601
92105SOL     OW78147   0.208   7.991   8.837
92105SOL    HW178148   0.268   7.929   8.878
92105SOL    HW278149   0.122   7.950   8.846
92106SOL     OW78150   6.477   1.093   8.371
92106SOL    HW178151   6.526   1.149   8.311
92106SOL    HW278152   6.392   1.080   8.327
92107SOL     OW78153  10.397   9.996  14.081
92107SOL    HW178154  10.375  10.029  14.168
92107SOL    HW278155  10.417   9.904  14.094
92108SOL     OW78156   3.351   4.502   1.294
92108SOL    HW178157   3.267   4.540   1.319
92108SOL    HW278158   3.404   4.506   1.373
92109SOL     OW78159   6.376  13.817   9.273
92109SOL    HW178160   6.386  13.905   9.237
92109SOL    HW278161   6.312  13.828   9.344
92110SOL     OW78162   9.350  11.837   6.506
92110SOL    HW178163   9.398  11.758   6.482
92110SOL    HW278164   9.275  11.805   6.557
92111SOL     OW78165   9.672  10.942  14.394
92111SOL    HW178166   9.749  10.937  14.450
92111SOL    HW278167   9.707  10.963  14.307
92112SOL     OW78168  12.749   7.347  11.926
92112SOL    HW178169  12.811   7.418  11.941
92112SOL    HW278170  12.699   7.341  12.007
92113SOL     OW78171  14.435   2.697   4.023
92113SOL    HW178172  14.500   2.644   4.069
92113SOL    HW278173  14.425   2.776   4.076
92114SOL     OW78174   5.032  11.183   3.525
92114SOL    HW178175   5.058  11.092   3.538
92114SOL    HW278176   4.940  11.178   3.499
92115SOL     OW78177   0.650  11.301   4.040
92115SOL    HW178178   0.582  11.237   4.018
92115SOL    HW278179   0.722  11.282   3.980
92116SOL     OW78180  12.606   4.463   4.896
92116SOL    HW178181  12.513   4.453   4.917
92116SOL    HW278182  12.648   4.476   4.981
92117SOL     OW78183   0.603  11.165   6.589
92117SOL    HW178184   0.620  11.237   6.529
92117SOL    HW278185   0.578  11.092   6.533
92118SOL     OW78186  13.753  14.246   2.154
92118SOL    HW178187  13.720  14.159   2.175
92118SOL    HW278188  13.745  14.295   2.237
92119SOL     OW78189   6.478   5.511  12.003
92119SOL    HW178190   6.383   5.514  12.013
92119SOL    HW278191   6.492   5.505  11.908
92120SOL     OW78192   8.747  12.956   2.872
92120SOL    HW178193   8.669  12.997   2.834
92120SOL    HW278194   8.738  12.969   2.966
92121SOL     OW78195   4.192   4.383   6.673
92121SOL    HW178196   4.227   4.446   6.737
92121SOL    HW278197   4.264   4.370   6.611
92122SOL     OW78198  13.544  14.495   6.902
92122SOL    HW178199  13.533  14.575   6.850
92122SOL    HW278200  13.537  14.424   6.838
92123SOL     OW78201   3.176   9.316   9.474
92123SOL    HW178202   3.127   9.353   9.400
92123SOL    HW278203   3.251   9.273   9.433
92124SOL     OW78204  11.044  11.189  10.904
92124SOL    HW178205  11.106  11.227  10.966
92124SOL    HW278206  11.038  11.096  10.929
92125SOL     OW78207   2.555   4.380   7.434
92125SOL    HW178208   2.575   4.364   7.526
92125SOL    HW278209   2.601   4.461   7.412
92126SOL     OW78210   0.532   1.075  10.787
92126SOL    HW178211   0.465   1.127  10.832
92126SOL    HW278212   0.500   1.066  10.697
92127SOL     OW78213   2.434   6.582   3.961
92127SOL    HW178214   2.359   6.638   3.979
92127SOL    HW278215   2.440   6.525   4.038
92128SOL     OW78216   3.944   0.350  10.116
92128SOL    HW178217   3.915   0.312  10.199
92128SOL    HW278218   3.994   0.427  10.141
92129SOL     OW78219   3.087   4.722  10.723
92129SOL    HW178220   3.177   4.753  10.719
92129SOL    HW278221   3.094   4.627  10.718
92130SOL     OW78222   8.965   4.802   4.854
92130SOL    HW178223   8.998   4.870   4.794
92130SOL    HW278224   9.039   4.784   4.912
92131SOL     OW78225  11.509   7.609   5.454
92131SOL    HW178226  11.503   7.533   5.396
92131SOL    HW278227  11.435   7.663   5.429
92132SOL     OW78228   1.643   6.491   8.812
92132SOL    HW178229   1.570   6.553   8.805
92132SOL    HW278230   1.602   6.409   8.838
92133SOL     OW78231   8.519  10.734  13.042
92133SOL    HW178232   8.564  10.795  12.984
92133SOL    HW278233   8.431  10.726  13.004
92134SOL     OW78234   3.284   9.400   6.900
92134SOL    HW178235   3.203   9.350   6.885
92134SOL    HW278236   3.334   9.390   6.820
92135SOL     OW78237   5.776   3.191   7.601
92135SOL    HW178238   5.855   3.215   7.650
92135SOL    HW278239   5.736   3.275   7.578
92136SOL     OW78240   0.923   0.056  11.373
92136SOL    HW178241   0.889  14.846  11.407
92136SOL    HW278242   0.851   0.118  11.386
92137SOL     OW78243   0.221   0.494   8.520
92137SOL    HW178244   0.266   0.414   8.494
92137SOL    HW278245   0.149   0.463   8.575
92138SOL     OW78246   5.809   1.483   9.158
92138SOL    HW178247   5.812   1.579   9.156
92138SOL    HW278248   5.885   1.458   9.210
92139SOL     OW78249   4.273   5.405  12.771
92139SOL    HW178250   4.280   5.352  12.692
92139SOL    HW278251   4.331   5.362  12.834
92140SOL     OW78252   6.084   5.853  10.400
92140SOL    HW178253   6.120   5.924  10.347
92140SOL    HW278254   5.996   5.882  10.423
92141SOL     OW78255  13.313   0.099  10.020
92141SOL    HW178256  13.319   0.046  10.099
92141SOL    HW278257  13.401   0.134  10.006
92142SOL     OW78258   1.210   2.679   5.725
92142SOL    HW178259   1.254   2.616   5.783
92142SOL    HW278260   1.260   2.675   5.643
92143SOL     OW78261   5.162   0.958   8.841
92143SOL    HW178262   5.117   1.026   8.792
92143SOL    HW278263   5.249   0.952   8.800
92144SOL     OW78264  11.630   7.701   6.109
92144SOL    HW178265  11.561   7.761   6.138
92144SOL    HW278266  11.598   7.666   6.026
92145SOL     OW78267   4.377  14.846   6.523
92145SOL    HW178268   4.387  14.803   6.439
92145SOL    HW278269   4.389   0.066   6.504
92146SOL     OW78270   9.340   0.511   6.885
92146SOL    HW178271   9.292   0.434   6.914
92146SOL    HW278272   9.425   0.478   6.859
92147SOL     OW78273   0.010   4.268   3.348
92147SOL    HW178274   0.016   4.216   3.267
92147SOL    HW278275   0.098   4.304   3.360
92148SOL     OW78276  12.855   8.625   9.284
92148SOL    HW178277  12.842   8.718   9.306
92148SOL    HW278278  12.844   8.579   9.367
92149SOL     OW78279   4.452   5.139  12.346
92149SOL    HW178280   4.499   5.198  12.406
92149SOL    HW278281   4.456   5.053  12.389
92150SOL     OW78282   4.082   4.712  12.888
92150SOL    HW178283   4.148   4.779  12.869
92150SOL    HW278284   4.085   4.701  12.983
92151SOL     OW78285  14.428   9.332   2.707
92151SOL    HW178286  14.399   9.421   2.687
92151SOL    HW278287  14.452   9.294   2.623
92152SOL     OW78288  14.684   7.245   2.082
92152SOL    HW178289  14.642   7.331   2.093
92152SOL    HW278290  14.629   7.199   2.018
92153SOL     OW78291  10.367   3.079   1.007
92153SOL    HW178292  10.442   3.024   0.982
92153SOL    HW278293  10.399   3.133   1.079
92154SOL     OW78294   0.465   4.850   5.130
92154SOL    HW178295   0.507   4.835   5.215
92154SOL    HW278296   0.459   4.945   5.123
92155SOL     OW78297   2.936   3.615   6.126
92155SOL    HW178298   2.911   3.649   6.212
92155SOL    HW278299   2.995   3.541   6.145
92156SOL     OW78300  13.407   5.736  12.556
92156SOL    HW178301  13.333   5.721  12.496
92156SOL    HW278302  13.377   5.807  12.613
92157SOL     OW78303  14.852   8.933   4.117
92157SOL    HW178304   0.068   8.961   4.143
92157SOL    HW278305  14.867   8.854   4.066
92158SOL     OW78306   9.205   3.825   3.740
92158SOL    HW178307   9.167   3.911   3.756
92158SOL    HW278308   9.217   3.821   3.645
92159SOL     OW78309   2.496  12.162  14.355
92159SOL    HW178310   2.450  12.221  14.295
92159SOL    HW278311   2.438  12.155  14.431
92160SOL     OW78312   5.709   3.806   9.531
92160SOL    HW178313   5.769   3.877   9.509
92160SOL    HW278314   5.766   3.734   9.557
92161SOL     OW78315   9.259  10.397  13.464
92161SOL    HW178316   9.339  10.420  13.417
92161SOL    HW278317   9.188  10.419  13.403
92162SOL     OW78318   9.080   8.193   9.807
92162SOL    HW178319   9.138   8.176   9.881
92162SOL    HW278320   9.017   8.121   9.809
92163SOL     OW78321   7.391   1.362  12.325
92163SOL    HW178322   7.476   1.341  12.287
92163SOL    HW278323   7.412   1.402  12.410
92164SOL     OW78324   0.692  13.150   1.837
92164SOL    HW178325   0.623  13.173   1.899
92164SOL    HW278326   0.645  13.120   1.760
92165SOL     OW78327   9.115   9.659   4.364
92165SOL    HW178328   9.204   9.688   4.383
92165SOL    HW278329   9.063   9.739   4.363
92166SOL     OW78330   8.943  10.701   8.518
92166SOL    HW178331   8.874  10.704   8.585
92166SOL    HW278332   8.965  10.792   8.502
92167SOL     OW78333  11.294   3.564  10.176
92167SOL    HW178334  11.319   3.496  10.239
92167SOL    HW278335  11.203   3.584  10.197
92168SOL     OW78336  11.004   0.585  13.732
92168SOL    HW178337  11.013   0.495  13.762
92168SOL    HW278338  11.026   0.638  13.809
92169SOL     OW78339  14.176  13.399   1.528
92169SOL    HW178340  14.141  13.411   1.439
92169SOL    HW278341  14.234  13.323   1.521
92170SOL     OW78342   5.733  11.923   7.985
92170SOL    HW178343   5.792  11.853   7.957
92170SOL    HW278344   5.711  11.901   8.076
92171SOL     OW78345  14.012  10.658  14.525
92171SOL    HW178346  14.017  10.732  14.585
92171SOL    HW278347  13.931  10.613  14.551
92172SOL     OW78348   4.337  13.832  12.976
92172SOL    HW178349   4.319  13.775  13.051
92172SOL    HW278350   4.275  13.803  12.909
92173SOL     OW78351   3.749   6.680   8.764
92173SOL    HW178352   3.701   6.674   8.847
92173SOL    HW278353   3.840   6.664   8.788
92174SOL     OW78354   8.174   1.384  13.600
92174SOL    HW178355   8.175   1.414  13.509
92174SOL    HW278356   8.264   1.358  13.619
92175SOL     OW78357   0.569   6.858   5.996
92175SOL    HW178358   0.632   6.817   6.055
92175SOL    HW278359   0.484   6.828   6.028
92176SOL     OW78360   9.563   4.524  14.613
92176SOL    HW178361   9.499   4.595  14.614
92176SOL    HW278362   9.597   4.524  14.524
92177SOL     OW78363   6.779  10.420   9.331
92177SOL    HW178364   6.866  10.459   9.343
92177SOL    HW278365   6.793  10.327   9.345
92178SOL     OW78366   5.019   8.222  13.383
92178SOL    HW178367   5.098   8.185  13.343
92178SOL    HW278368   5.034   8.214  13.477
92179SOL     OW78369   5.734   7.755   6.947
92179SOL    HW178370   5.665   7.822   6.947
92179SOL    HW278371   5.688   7.674   6.928
92180SOL     OW78372  10.713  11.599   1.548
92180SOL    HW178373  10.792  11.614   1.495
92180SOL    HW278374  10.705  11.504   1.554
92181SOL     OW78375   1.024  13.301   6.372
92181SOL    HW178376   1.100  13.353   6.347
92181SOL    HW278377   0.971  13.360   6.425
92182SOL     OW78378   9.494  11.333   8.501
92182SOL    HW178379   9.524  11.341   8.591
92182SOL    HW278380   9.488  11.238   8.486
92183SOL     OW78381  13.174   2.464   2.920
92183SOL    HW178382  13.141   2.379   2.949
92183SOL    HW278383  13.266   2.464   2.947
92184SOL     OW78384   4.268   9.423   2.128
92184SOL    HW178385   4.179   9.421   2.163
92184SOL    HW278386   4.274   9.506   2.081
92185SOL     OW78387   3.656  13.292   3.585
92185SOL    HW178388   3.719  13.363   3.570
92185SOL    HW278389   3.588  13.331   3.640
92186SOL     OW78390   8.722   4.439   9.735
92186SOL    HW178391   8.641   4.477   9.699
92186SOL    HW278392   8.698   4.349   9.757
92187SOL     OW78393   0.535   0.808   7.630
92187SOL    HW178394   0.482   0.730   7.651
92187SOL    HW278395   0.623   0.773   7.615
92188SOL     OW78396   3.028  13.806   5.121
92188SOL    HW178397   3.115  13.786   5.154
92188SOL    HW278398   3.021  13.901   5.129
92189SOL     OW78399   2.473   1.585  11.083
92189SOL    HW178400   2.465   1.656  11.147
92189SOL    HW278401   2.466   1.505  11.135
92190SOL     OW78402   5.372   2.445   3.826
92190SOL    HW178403   5.388   2.445   3.921
92190SOL    HW278404   5.388   2.354   3.800
92191SOL     OW78405   6.887   8.543   3.936
92191SOL    HW178406   6.797   8.532   3.968
92191SOL    HW278407   6.900   8.469   3.877
92192SOL     OW78408   5.582   6.189   9.288
92192SOL    HW178409   5.662   6.138   9.305
92192SOL    HW278410   5.567   6.236   9.370
92193SOL     OW78411  14.668  13.296  11.440
92193SOL    HW178412  14.752  13.270  11.403
92193SOL    HW278413  14.683  13.384  11.475
92194SOL     OW78414   9.045  11.035  14.129
92194SOL    HW178415   8.977  10.992  14.078
92194SOL    HW278416   8.998  11.076  14.202
92195SOL     OW78417   6.862   1.002   8.256
92195SOL    HW178418   6.935   0.940   8.259
92195SOL    HW278419   6.789   0.952   8.219
92196SOL     OW78420  10.420  11.312  12.594
92196SOL    HW178421  10.358  11.258  12.643
92196SOL    HW278422  10.506  11.277  12.617
92197SOL     OW78423   9.382   4.129  14.425
92197SOL    HW178424   9.354   4.162  14.510
92197SOL    HW278425   9.452   4.187  14.398
92198SOL     OW78426   7.959  10.433  14.395
92198SOL    HW178427   7.887  10.487  14.361
92198SOL    HW278428   8.035  10.459  14.341
92199SOL     OW78429  13.736   9.754   3.286
92199SOL    HW178430  13.670   9.798   3.338
92199SOL    HW278431  13.819   9.776   3.328
92200SOL     OW78432   9.148  10.417  11.092
92200SOL    HW178433   9.126  10.508  11.073
92200SOL    HW278434   9.065  10.377  11.119
92201SOL     OW78435   0.618   0.775   4.172
92201SOL    HW178436   0.560   0.828   4.227
92201SOL    HW278437   0.699   0.769   4.222
92202SOL     OW78438  12.726   2.097   6.534
92202SOL    HW178439  12.752   2.064   6.620
92202SOL    HW278440  12.681   2.179   6.552
92203SOL     OW78441   0.662   5.828  12.777
92203SOL    HW178442   0.662   5.735  12.799
92203SOL    HW278443   0.747   5.843  12.736
92204SOL     OW78444   5.585  10.191   8.636
92204SOL    HW178445   5.595  10.106   8.679
92204SOL    HW278446   5.557  10.250   8.706
92205SOL     OW78447   0.557   6.779  12.418
92205SOL    HW178448   0.523   6.726  12.346
92205SOL    HW278449   0.633   6.824  12.382
92206SOL     OW78450   3.803  14.233   5.745
92206SOL    HW178451   3.825  14.256   5.655
92206SOL    HW278452   3.834  14.307   5.797
92207SOL     OW78453  13.644  13.488   6.742
92207SOL    HW178454  13.669  13.446   6.661
92207SOL    HW278455  13.560  13.531   6.722
92208SOL     OW78456   3.263  11.761   2.685
92208SOL    HW178457   3.282  11.739   2.594
92208SOL    HW278458   3.348  11.764   2.728
92209SOL     OW78459   7.547   6.323   8.335
92209SOL    HW178460   7.637   6.306   8.363
92209SOL    HW278461   7.518   6.394   8.393
92210SOL     OW78462   2.074   0.558   6.805
92210SOL    HW178463   2.106   0.605   6.728
92210SOL    HW278464   1.979   0.570   6.803
92211SOL     OW78465   4.551  14.519   1.621
92211SOL    HW178466   4.470  14.478   1.651
92211SOL    HW278467   4.595  14.547   1.701
92212SOL     OW78468   5.637   6.042   0.059
92212SOL    HW178469   5.732   6.049   0.061
92212SOL    HW278470   5.616   5.984   0.132
92213SOL     OW78471   0.687   9.252   2.162
92213SOL    HW178472   0.740   9.197   2.105
92213SOL    HW278473   0.734   9.335   2.166
92214SOL     OW78474   7.745   1.478  14.508
92214SOL    HW178475   7.652   1.468  14.530
92214SOL    HW278476   7.791   1.420  14.569
92215SOL     OW78477  11.754  13.521   3.491
92215SOL    HW178478  11.711  13.559   3.567
92215SOL    HW278479  11.818  13.587   3.463
92216SOL     OW78480   7.797   6.122   5.826
92216SOL    HW178481   7.761   6.034   5.837
92216SOL    HW278482   7.737   6.179   5.875
92217SOL     OW78483   1.853  10.197  13.996
92217SOL    HW178484   1.795  10.141  13.944
92217SOL    HW278485   1.919  10.138  14.031
92218SOL     OW78486   4.902  10.304   1.427
92218SOL    HW178487   4.901  10.209   1.429
92218SOL    HW278488   4.811  10.330   1.438
92219SOL     OW78489   8.476   8.698   8.864
92219SOL    HW178490   8.500   8.747   8.942
92219SOL    HW278491   8.554   8.701   8.808
92220SOL     OW78492  13.015   4.174  12.211
92220SOL    HW178493  13.077   4.181  12.138
92220SOL    HW278494  13.065   4.201  12.287
92221SOL     OW78495   5.633  12.465   0.111
92221SOL    HW178496   5.608  12.542   0.162
92221SOL    HW278497   5.719  12.488   0.076
92222SOL     OW78498  13.956   5.918   6.596
92222SOL    HW178499  13.884   5.857   6.581
92222SOL    HW278500  13.981   5.947   6.508
92223SOL     OW78501  10.165   5.374  12.923
92223SOL    HW178502  10.075   5.367  12.955
92223SOL    HW278503  10.219   5.350  12.998
92224SOL     OW78504   4.116   6.710  11.074
92224SOL    HW178505   4.143   6.710  11.166
92224SOL    HW278506   4.196   6.685  11.026
92225SOL     OW78507   4.150   3.219   6.605
92225SOL    HW178508   4.093   3.211   6.528
92225SOL    HW278509   4.139   3.310   6.633
92226SOL     OW78510  13.455  11.608  14.578
92226SOL    HW178511  13.496  11.522  14.576
92226SOL    HW278512  13.380  11.598  14.636
92227SOL     OW78513   8.820   6.125   1.141
92227SOL    HW178514   8.807   6.107   1.234
92227SOL    HW278515   8.757   6.193   1.120
92228SOL     OW78516   0.063  14.059   3.026
92228SOL    HW178517   0.047  14.046   3.120
92228SOL    HW278518   0.117  13.984   3.001
92229SOL     OW78519   6.316   2.760   3.896
92229SOL    HW178520   6.402   2.766   3.856
92229SOL    HW278521   6.308   2.837   3.951
92230SOL     OW78522   7.937  11.786   6.474
92230SOL    HW178523   8.006  11.725   6.450
92230SOL    HW278524   7.954  11.864   6.422
92231SOL     OW78525  10.603  14.028   6.111
92231SOL    HW178526  10.545  13.956   6.089
92231SOL    HW278527  10.557  14.106   6.080
92232SOL     OW78528  11.884   6.657   8.952
92232SOL    HW178529  11.811   6.684   8.896
92232SOL    HW278530  11.940   6.735   8.957
92233SOL     OW78531   7.552  11.543   0.496
92233SOL    HW178532   7.507  11.473   0.543
92233SOL    HW278533   7.499  11.555   0.416
92234SOL     OW78534  10.695   8.813  10.336
92234SOL    HW178535  10.743   8.895  10.331
92234SOL    HW278536  10.724   8.763  10.260
92235SOL     OW78537  11.461  11.218  13.388
92235SOL    HW178538  11.419  11.141  13.427
92235SOL    HW278539  11.464  11.198  13.295
92236SOL     OW78540   6.061   1.719   7.688
92236SOL    HW178541   6.074   1.632   7.649
92236SOL    HW278542   6.043   1.776   7.613
92237SOL     OW78543   0.246   4.878   1.197
92237SOL    HW178544   0.223   4.889   1.104
92237SOL    HW278545   0.244   4.967   1.233
92238SOL     OW78546   4.759   7.284  11.301
92238SOL    HW178547   4.839   7.244  11.266
92238SOL    HW278548   4.727   7.340  11.231
92239SOL     OW78549   4.751  11.580   8.711
92239SOL    HW178550   4.790  11.537   8.787
92239SOL    HW278551   4.823  11.629   8.672
92240SOL     OW78552   1.971  13.778  11.139
92240SOL    HW178553   2.040  13.842  11.120
92240SOL    HW278554   1.923  13.770  11.057
92241SOL     OW78555  10.548   1.311  11.016
92241SOL    HW178556  10.472   1.296  10.960
92241SOL    HW278557  10.521   1.283  11.103
92242SOL     OW78558   2.619   3.208   5.575
92242SOL    HW178559   2.576   3.223   5.659
92242SOL    HW278560   2.712   3.198   5.596
92243SOL     OW78561  11.635  14.394   7.872
92243SOL    HW178562  11.543  14.403   7.898
92243SOL    HW278563  11.681  14.381   7.955
92244SOL     OW78564   7.348   3.723  12.034
92244SOL    HW178565   7.437   3.694  12.052
92244SOL    HW278566   7.293   3.663  12.085
92245SOL     OW78567  11.378   8.630  13.090
92245SOL    HW178568  11.363   8.575  13.167
92245SOL    HW278569  11.473   8.645  13.090
92246SOL     OW78570   7.114   5.605   8.583
92246SOL    HW178571   7.022   5.580   8.588
92246SOL    HW278572   7.148   5.590   8.671
92247SOL     OW78573   9.441  11.547   5.002
92247SOL    HW178574   9.353  11.587   5.004
92247SOL    HW278575   9.479  11.571   5.086
92248SOL     OW78576   4.918  14.042   6.823
92248SOL    HW178577   4.988  13.994   6.780
92248SOL    HW278578   4.961  14.091   6.893
92249SOL     OW78579  14.285   6.191  11.709
92249SOL    HW178580  14.233   6.192  11.629
92249SOL    HW278581  14.309   6.282  11.724
92250SOL     OW78582   0.630   6.491   7.277
92250SOL    HW178583   0.543   6.513   7.243
92250SOL    HW278584   0.688   6.498   7.201
92251SOL     OW78585  14.441   5.435   2.284
92251SOL    HW178586  14.422   5.466   2.373
92251SOL    HW278587  14.360   5.395   2.254
92252SOL     OW78588   3.999   7.678   8.597
92252SOL    HW178589   3.936   7.649   8.530
92252SOL    HW278590   3.957   7.656   8.680
92253SOL     OW78591   8.970   7.978   9.178
92253SOL    HW178592   8.934   7.890   9.185
92253SOL    HW278593   9.045   7.969   9.120
92254SOL     OW78594  11.440   6.172   9.066
92254SOL    HW178595  11.349   6.172   9.036
92254SOL    HW278596  11.463   6.265   9.072
92255SOL     OW78597   2.002   7.397   7.395
92255SOL    HW178598   1.967   7.390   7.484
92255SOL    HW278599   2.097   7.385   7.405
92256SOL     OW78600  12.740  14.050   6.215
92256SOL    HW178601  12.686  14.097   6.152
92256SOL    HW278602  12.830  14.067   6.187
92257SOL     OW78603   5.706  10.718  14.449
92257SOL    HW178604   5.731  10.753  14.363
92257SOL    HW278605   5.743  10.630  14.450
92258SOL     OW78606  14.528   0.163   5.477
92258SOL    HW178607  14.595   0.172   5.409
92258SOL    HW278608  14.499   0.253   5.494
92259SOL     OW78609   6.607   7.007   3.242
92259SOL    HW178610   6.660   6.928   3.249
92259SOL    HW278611   6.529   6.979   3.193
92260SOL     OW78612   9.907  11.917  13.577
92260SOL    HW178613   9.892  11.963  13.660
92260SOL    HW278614   9.854  11.965  13.513
92261SOL     OW78615  13.033  14.320   6.699
92261SOL    HW178616  13.108  14.278   6.658
92261SOL    HW278617  13.034  14.287   6.789
92262SOL     OW78618   2.641   9.804   0.032
92262SOL    HW178619   2.687   9.882   0.000
92262SOL    HW278620   2.549   9.819   0.010
92263SOL     OW78621   2.380   5.433  11.888
92263SOL    HW178622   2.468   5.430  11.852
92263SOL    HW278623   2.323   5.441  11.811
92264SOL     OW78624   7.512   9.499   6.813
92264SOL    HW178625   7.486   9.554   6.739
92264SOL    HW278626   7.442   9.433   6.819
92265SOL     OW78627   3.180  13.291   8.318
92265SOL    HW178628   3.272  13.304   8.337
92265SOL    HW278629   3.166  13.336   8.234
92266SOL     OW78630   9.965   7.203  12.824
92266SOL    HW178631   9.973   7.123  12.772
92266SOL    HW278632   9.981   7.174  12.914
92267SOL     OW78633   3.581  12.122   9.591
92267SOL    HW178634   3.499  12.073   9.591
92267SOL    HW278635   3.648  12.058   9.569
92268SOL     OW78636  13.940   9.422  14.660
92268SOL    HW178637  14.034   9.410  14.669
92268SOL    HW278638  13.926   9.437  14.566
92269SOL     OW78639   5.442  10.289  12.994
92269SOL    HW178640   5.375  10.221  12.995
92269SOL    HW278641   5.496  10.272  13.071
92270SOL     OW78642   9.316  11.609   5.618
92270SOL    HW178643   9.352  11.695   5.597
92270SOL    HW278644   9.378  11.572   5.680
92271SOL     OW78645   0.983   1.869   3.304
92271SOL    HW178646   0.902   1.828   3.275
92271SOL    HW278647   1.025   1.901   3.224
92272SOL     OW78648  12.389  13.445  12.734
92272SOL    HW178649  12.384  13.504  12.658
92272SOL    HW278650  12.324  13.481  12.795
92273SOL     OW78651   5.892  12.088   4.986
92273SOL    HW178652   5.800  12.110   4.974
92273SOL    HW278653   5.929  12.086   4.898
92274SOL     OW78654  13.476   9.137   0.787
92274SOL    HW178655  13.430   9.220   0.784
92274SOL    HW278656  13.467   9.108   0.878
92275SOL     OW78657   3.019  12.342  11.197
92275SOL    HW178658   3.086  12.303  11.140
92275SOL    HW278659   3.049  12.431  11.211
92276SOL     OW78660   3.085  13.142   7.316
92276SOL    HW178661   3.063  13.051   7.296
92276SOL    HW278662   3.068  13.151   7.410
92277SOL     OW78663   7.235   9.143   3.042
92277SOL    HW178664   7.172   9.203   3.001
92277SOL    HW278665   7.305   9.201   3.073
92278SOL     OW78666   3.749   0.818   3.092
92278SOL    HW178667   3.661   0.826   3.055
92278SOL    HW278668   3.806   0.809   3.016
92279SOL     OW78669  12.773  11.323   3.766
92279SOL    HW178670  12.723  11.380   3.826
92279SOL    HW278671  12.745  11.351   3.679
92280SOL     OW78672  12.382   7.759   2.937
92280SOL    HW178673  12.432   7.805   2.870
92280SOL    HW278674  12.423   7.673   2.943
92281SOL     OW78675   3.300   8.837   3.489
92281SOL    HW178676   3.369   8.772   3.485
92281SOL    HW278677   3.320   8.899   3.420
92282SOL     OW78678   2.099  11.630   9.214
92282SOL    HW178679   2.028  11.683   9.177
92282SOL    HW278680   2.078  11.626   9.308
92283SOL     OW78681  12.483  14.048  11.482
92283SOL    HW178682  12.432  13.970  11.463
92283SOL    HW278683  12.511  14.081  11.397
92284SOL     OW78684  14.689   5.835  14.745
92284SOL    HW178685  14.692   5.921  14.702
92284SOL    HW278686  14.669   5.855  14.836
92285SOL     OW78687  13.037   8.820   6.240
92285SOL    HW178688  13.013   8.804   6.149
92285SOL    HW278689  13.106   8.757   6.259
92286SOL     OW78690   2.261   6.849   8.155
92286SOL    HW178691   2.189   6.786   8.151
92286SOL    HW278692   2.340   6.795   8.161
92287SOL     OW78693   1.601   6.486   2.116
92287SOL    HW178694   1.636   6.550   2.178
92287SOL    HW278695   1.544   6.430   2.169
92288SOL     OW78696   0.944   5.264  11.164
92288SOL    HW178697   0.849   5.263  11.154
92288SOL    HW278698   0.959   5.313  11.245
92289SOL     OW78699  12.043   4.877   9.586
92289SOL    HW178700  12.074   4.900   9.674
92289SOL    HW278701  11.948   4.894   9.589
92290SOL     OW78702  12.586   3.311   4.750
92290SOL    HW178703  12.660   3.373   4.756
92290SOL    HW278704  12.595   3.255   4.827
92291SOL     OW78705  10.150   4.152   2.825
92291SOL    HW178706  10.060   4.132   2.801
92291SOL    HW278707  10.197   4.157   2.742
92292SOL     OW78708   3.028   7.377   3.814
92292SOL    HW178709   2.955   7.343   3.762
92292SOL    HW278710   3.041   7.312   3.883
92293SOL     OW78711   9.236   7.852   8.434
92293SOL    HW178712   9.216   7.930   8.381
92293SOL    HW278713   9.323   7.826   8.407
92294SOL     OW78714   3.717  10.852  13.167
92294SOL    HW178715   3.626  10.880  13.174
92294SOL    HW278716   3.759  10.891  13.244
92295SOL     OW78717   2.031   5.437  12.913
92295SOL    HW178718   2.091   5.510  12.925
92295SOL    HW278719   2.048   5.379  12.987
92296SOL     OW78720   0.559  13.855   1.161
92296SOL    HW178721   0.567  13.948   1.141
92296SOL    HW278722   0.496  13.851   1.232
92297SOL     OW78723  11.084  12.136   4.915
92297SOL    HW178724  11.003  12.174   4.881
92297SOL    HW278725  11.151  12.161   4.852
92298SOL     OW78726  11.436  11.032   1.071
92298SOL    HW178727  11.381  11.050   0.995
92298SOL    HW278728  11.482  11.114   1.088
92299SOL     OW78729   4.407   7.728  11.323
92299SOL    HW178730   4.499   7.750  11.310
92299SOL    HW278731   4.390   7.747  11.415
92300SOL     OW78732   7.054  12.781   2.636
92300SOL    HW178733   7.024  12.794   2.546
92300SOL    HW278734   6.983  12.815   2.690
92301SOL     OW78735   1.165  13.455   1.768
92301SOL    HW178736   1.081  13.442   1.726
92301SOL    HW278737   1.225  13.397   1.720
92302SOL     OW78738   2.514  12.563   2.883
92302SOL    HW178739   2.461  12.496   2.925
92302SOL    HW278740   2.565  12.517   2.817
92303SOL     OW78741   7.437   6.545  13.634
92303SOL    HW178742   7.467   6.634  13.614
92303SOL    HW278743   7.446   6.498  13.551
92304SOL     OW78744   0.519  11.202   9.776
92304SOL    HW178745   0.611  11.211   9.749
92304SOL    HW278746   0.507  11.108   9.789
92305SOL     OW78747   0.866   1.341   9.659
92305SOL    HW178748   0.906   1.259   9.630
92305SOL    HW278749   0.797   1.358   9.594
92306SOL     OW78750   9.204  11.794  11.753
92306SOL    HW178751   9.235  11.765  11.838
92306SOL    HW278752   9.109  11.792  11.759
92307SOL     OW78753  12.464  14.865   1.724
92307SOL    HW178754  12.411  14.788   1.747
92307SOL    HW278755  12.522   0.004   1.800
92308SOL     OW78756   8.665   9.988  11.286
92308SOL    HW178757   8.645  10.077  11.256
92308SOL    HW278758   8.673   9.936  11.206
92309SOL     OW78759   7.271   3.475   1.170
92309SOL    HW178760   7.284   3.385   1.202
92309SOL    HW278761   7.186   3.501   1.207
92310SOL     OW78762   9.055   1.181   0.910
92310SOL    HW178763   9.026   1.112   0.851
92310SOL    HW278764   9.091   1.134   0.985
92311SOL     OW78765   4.875   5.928   4.057
92311SOL    HW178766   4.868   6.006   4.111
92311SOL    HW278767   4.823   5.862   4.103
92312SOL     OW78768   9.813   1.669  11.137
92312SOL    HW178769   9.898   1.713  11.139
92312SOL    HW278770   9.811   1.627  11.051
92313SOL     OW78771  13.673  13.268  14.640
92313SOL    HW178772  13.593  13.263  14.693
92313SOL    HW278773  13.669  13.190  14.584
92314SOL     OW78774   6.652  11.471   2.955
92314SOL    HW178775   6.716  11.405   2.982
92314SOL    HW278776   6.598  11.426   2.890
92315SOL     OW78777   4.990   4.059   1.695
92315SOL    HW178778   5.069   4.055   1.749
92315SOL    HW278779   5.021   4.086   1.609
92316SOL     OW78780   3.058  10.124   8.235
92316SOL    HW178781   3.150  10.127   8.206
92316SOL    HW278782   3.034  10.032   8.229
92317SOL     OW78783   1.994   5.138   6.732
92317SOL    HW178784   1.953   5.051   6.736
92317SOL    HW278785   2.083   5.121   6.701
92318SOL     OW78786   7.134  13.173   0.132
92318SOL    HW178787   7.122  13.215   0.047
92318SOL    HW278788   7.220  13.202   0.162
92319SOL     OW78789   9.469   3.733   9.457
92319SOL    HW178790   9.531   3.755   9.387
92319SOL    HW278791   9.503   3.781   9.533
92320SOL     OW78792   9.553   7.587   8.488
92320SOL    HW178793   9.483   7.535   8.528
92320SOL    HW278794   9.572   7.542   8.406
92321SOL     OW78795   0.149   3.467   1.529
92321SOL    HW178796   0.194   3.437   1.609
92321SOL    HW278797   0.100   3.544   1.558
92322SOL     OW78798   4.573   6.249   6.999
92322SOL    HW178799   4.534   6.335   6.986
92322SOL    HW278800   4.531   6.194   6.933
92323SOL     OW78801   7.763   8.670  12.198
92323SOL    HW178802   7.814   8.690  12.120
92323SOL    HW278803   7.790   8.581  12.222
92324SOL     OW78804   5.702   6.861   3.914
92324SOL    HW178805   5.724   6.905   3.831
92324SOL    HW278806   5.607   6.852   3.911
92325SOL     OW78807   3.093   4.648   2.818
92325SOL    HW178808   3.128   4.626   2.904
92325SOL    HW278809   2.998   4.645   2.829
92326SOL     OW78810   9.375  10.553   2.924
92326SOL    HW178811   9.319  10.531   2.850
92326SOL    HW278812   9.338  10.634   2.959
92327SOL     OW78813   3.835   5.416   2.723
92327SOL    HW178814   3.834   5.384   2.633
92327SOL    HW278815   3.748   5.451   2.738
92328SOL     OW78816  10.561   3.709   8.967
92328SOL    HW178817  10.465   3.701   8.966
92328SOL    HW278818  10.579   3.785   8.913
92329SOL     OW78819  12.938  12.065   8.894
92329SOL    HW178820  12.950  12.028   8.981
92329SOL    HW278821  13.026  12.094   8.868
92330SOL     OW78822  10.677   1.191   2.783
92330SOL    HW178823  10.594   1.189   2.830
92330SOL    HW278824  10.652   1.192   2.691
92331SOL     OW78825   3.235   2.932   7.890
92331SOL    HW178826   3.319   2.903   7.853
92331SOL    HW278827   3.239   2.905   7.982
92332SOL     OW78828   0.625   4.305  11.500
92332SOL    HW178829   0.545   4.358  11.496
92332SOL    HW278830   0.686   4.349  11.442
92333SOL     OW78831   4.766   2.751   2.425
92333SOL    HW178832   4.724   2.690   2.364
92333SOL    HW278833   4.695   2.809   2.453
92334SOL     OW78834  11.279  14.762  10.366
92334SOL    HW178835  11.302  14.670  10.353
92334SOL    HW278836  11.194  14.760  10.410
92335SOL     OW78837   6.436  13.857   0.105
92335SOL    HW178838   6.397  13.846   0.018
92335SOL    HW278839   6.529  13.840   0.093
92336SOL     OW78840   3.109  12.638   4.646
92336SOL    HW178841   3.092  12.615   4.554
92336SOL    HW278842   3.188  12.589   4.668
92337SOL     OW78843  12.074  13.068   2.710
92337SOL    HW178844  12.012  13.065   2.783
92337SOL    HW278845  12.160  13.063   2.752
92338SOL     OW78846   4.380   8.486   2.848
92338SOL    HW178847   4.368   8.461   2.940
92338SOL    HW278848   4.291   8.494   2.813
92339SOL     OW78849   1.810   7.568   1.648
92339SOL    HW178850   1.846   7.533   1.729
92339SOL    HW278851   1.887   7.589   1.595
92340SOL     OW78852  12.379  14.731  11.656
92340SOL    HW178853  12.316  14.676  11.609
92340SOL    HW278854  12.444  14.755  11.590
92341SOL     OW78855   4.454   4.389   9.229
92341SOL    HW178856   4.458   4.377   9.134
92341SOL    HW278857   4.383   4.332   9.258
92342SOL     OW78858  14.264   2.163   3.537
92342SOL    HW178859  14.344   2.120   3.568
92342SOL    HW278860  14.222   2.098   3.481
92343SOL     OW78861   2.076   6.869  12.293
92343SOL    HW178862   2.133   6.845  12.220
92343SOL    HW278863   2.132   6.860  12.370
92344SOL     OW78864   3.926   6.814   9.336
92344SOL    HW178865   3.958   6.831   9.247
92344SOL    HW278866   3.878   6.893   9.359
92345SOL     OW78867  11.915   9.908   0.067
92345SOL    HW178868  11.964   9.842   0.019
92345SOL    HW278869  11.843   9.860   0.108
92346SOL     OW78870   1.602  12.631   5.285
92346SOL    HW178871   1.519  12.611   5.242
92346SOL    HW278872   1.631  12.548   5.322
92347SOL     OW78873   9.378  10.488   0.009
92347SOL    HW178874   9.296  10.517  14.842
92347SOL    HW278875   9.446  10.510  14.818
92348SOL     OW78876   6.210  14.206   2.763
92348SOL    HW178877   6.235  14.297   2.780
92348SOL    HW278878   6.293  14.160   2.754
92349SOL     OW78879  14.711   3.191   4.875
92349SOL    HW178880  14.709   3.237   4.959
92349SOL    HW278881  14.744   3.256   4.812
92350SOL     OW78882  12.878  12.387   3.360
92350SOL    HW178883  12.923  12.459   3.404
92350SOL    HW278884  12.798  12.427   3.326
92351SOL     OW78885   6.050  13.310   4.413
92351SOL    HW178886   6.030  13.301   4.507
92351SOL    HW278887   5.996  13.383   4.384
92352SOL     OW78888  10.787   8.900   5.706
92352SOL    HW178889  10.696   8.917   5.729
92352SOL    HW278890  10.783   8.824   5.648
92353SOL     OW78891   6.791   3.066   0.618
92353SOL    HW178892   6.862   3.003   0.605
92353SOL    HW278893   6.825   3.128   0.682
92354SOL     OW78894   9.679  14.325  10.199
92354SOL    HW178895   9.715  14.246  10.159
92354SOL    HW278896   9.752  14.363  10.247
92355SOL     OW78897   5.739  10.236   7.883
92355SOL    HW178898   5.804  10.182   7.929
92355SOL    HW278899   5.681  10.266   7.953
92356SOL     OW78900   2.272   4.658   4.522
92356SOL    HW178901   2.339   4.687   4.583
92356SOL    HW278902   2.292   4.565   4.506
92357SOL     OW78903   7.582   7.708   9.892
92357SOL    HW178904   7.657   7.766   9.907
92357SOL    HW278905   7.572   7.661   9.974
92358SOL     OW78906   5.168   5.509   6.160
92358SOL    HW178907   5.083   5.472   6.183
92358SOL    HW278908   5.156   5.604   6.167
92359SOL     OW78909  10.754   7.722   2.185
92359SOL    HW178910  10.674   7.694   2.140
92359SOL    HW278911  10.725   7.747   2.272
92360SOL     OW78912  11.798   2.363   0.272
92360SOL    HW178913  11.803   2.337   0.364
92360SOL    HW278914  11.705   2.355   0.250
92361SOL     OW78915   4.600   3.512   1.202
92361SOL    HW178916   4.623   3.582   1.262
92361SOL    HW278917   4.531   3.549   1.147
92362SOL     OW78918   0.516  10.211   6.217
92362SOL    HW178919   0.518  10.199   6.122
92362SOL    HW278920   0.561  10.294   6.232
92363SOL     OW78921   1.618  11.147   3.477
92363SOL    HW178922   1.631  11.240   3.497
92363SOL    HW278923   1.594  11.108   3.562
92364SOL     OW78924   0.357   8.599   4.816
92364SOL    HW178925   0.450   8.596   4.839
92364SOL    HW278926   0.354   8.655   4.738
92365SOL     OW78927   5.329  11.554   1.770
92365SOL    HW178928   5.253  11.496   1.779
92365SOL    HW278929   5.329  11.605   1.851
92366SOL     OW78930   5.045  11.335  14.157
92366SOL    HW178931   5.090  11.265  14.110
92366SOL    HW278932   5.096  11.413  14.139
92367SOL     OW78933   5.817  12.624   1.411
92367SOL    HW178934   5.734  12.600   1.451
92367SOL    HW278935   5.793  12.671   1.332
92368SOL     OW78936   3.766   8.996   4.301
92368SOL    HW178937   3.801   9.080   4.272
92368SOL    HW278938   3.830   8.964   4.365
92369SOL     OW78939   1.740  13.127   0.916
92369SOL    HW178940   1.817  13.183   0.911
92369SOL    HW278941   1.669  13.185   0.941
92370SOL     OW78942  11.583  14.799  10.163
92370SOL    HW178943  11.674  14.773  10.150
92370SOL    HW278944  11.536  14.717  10.173
92371SOL     OW78945  12.961  13.600   1.826
92371SOL    HW178946  13.038  13.627   1.775
92371SOL    HW278947  12.929  13.682   1.865
92372SOL     OW78948  10.448  11.899   3.191
92372SOL    HW178949  10.463  11.943   3.108
92372SOL    HW278950  10.358  11.867   3.186
92373SOL     OW78951   4.177  12.099   3.948
92373SOL    HW178952   4.263  12.127   3.979
92373SOL    HW278953   4.183  12.004   3.944
92374SOL     OW78954   7.622   6.937   5.970
92374SOL    HW178955   7.676   6.859   5.967
92374SOL    HW278956   7.568   6.926   6.049
92375SOL     OW78957  12.205   3.178   3.880
92375SOL    HW178958  12.196   3.272   3.898
92375SOL    HW278959  12.140   3.136   3.937
92376SOL     OW78960   9.040   6.542   2.662
92376SOL    HW178961   8.976   6.471   2.678
92376SOL    HW278962   8.990   6.622   2.675
92377SOL     OW78963  13.297  10.400  11.166
92377SOL    HW178964  13.245  10.325  11.195
92377SOL    HW278965  13.306  10.387  11.072
92378SOL     OW78966   7.158   8.221   2.314
92378SOL    HW178967   7.072   8.247   2.282
92378SOL    HW278968   7.212   8.212   2.235
92379SOL     OW78969  12.873   0.753   0.821
92379SOL    HW178970  12.825   0.671   0.816
92379SOL    HW278971  12.892   0.764   0.914
92380SOL     OW78972   3.248   0.750   9.204
92380SOL    HW178973   3.210   0.828   9.165
92380SOL    HW278974   3.193   0.731   9.280
92381SOL     OW78975   6.338   1.520   2.825
92381SOL    HW178976   6.369   1.469   2.900
92381SOL    HW278977   6.252   1.483   2.805
92382SOL     OW78978   0.527   3.210   0.996
92382SOL    HW178979   0.468   3.274   1.037
92382SOL    HW278980   0.614   3.245   1.012
92383SOL     OW78981   1.265   8.735  10.829
92383SOL    HW178982   1.201   8.805  10.837
92383SOL    HW278983   1.347   8.780  10.806
92384SOL     OW78984  11.310  12.738  11.831
92384SOL    HW178985  11.305  12.816  11.776
92384SOL    HW278986  11.404  12.726  11.848
92385SOL     OW78987   2.111  14.217   5.997
92385SOL    HW178988   2.176  14.271   6.042
92385SOL    HW278989   2.028  14.242   6.035
92386SOL     OW78990  14.675  11.555   6.136
92386SOL    HW178991  14.697  11.644   6.163
92386SOL    HW278992  14.580  11.549   6.150
92387SOL     OW78993   3.295  11.403  14.279
92387SOL    HW178994   3.354  11.445  14.342
92387SOL    HW278995   3.300  11.310  14.300
92388SOL     OW78996   9.588   1.143   4.091
92388SOL    HW178997   9.663   1.083   4.086
92388SOL    HW278998   9.514   1.090   4.063
92389SOL     OW78999  11.983   3.660  11.742
92389SOL    HW179000  12.062   3.617  11.709
92389SOL    HW279001  11.912   3.599  11.721
92390SOL     OW79002   7.606   7.916  12.370
92390SOL    HW179003   7.596   7.898  12.463
92390SOL    HW279004   7.662   7.845  12.337
92391SOL     OW79005  14.785   7.579   2.861
92391SOL    HW179006  14.747   7.614   2.780
92391SOL    HW279007  14.771   7.649   2.925
92392SOL     OW79008   7.211   0.251  10.348
92392SOL    HW179009   7.147   0.273  10.415
92392SOL    HW279010   7.239   0.162  10.370
92393SOL     OW79011   4.585   1.984   4.969
92393SOL    HW179012   4.635   1.946   5.041
92393SOL    HW279013   4.517   2.037   5.011
92394SOL     OW79014   8.869  14.538  14.854
92394SOL    HW179015   8.904  14.527   0.070
92394SOL    HW279016   8.909  14.467  14.804
92395SOL     OW79017  13.834   5.135  12.676
92395SOL    HW179018  13.900   5.191  12.635
92395SOL    HW279019  13.752   5.184  12.665
92396SOL     OW79020   0.552   1.874  11.576
92396SOL    HW179021   0.611   1.939  11.614
92396SOL    HW279022   0.501   1.923  11.511
92397SOL     OW79023   5.842   8.192   4.001
92397SOL    HW179024   5.930   8.226   4.017
92397SOL    HW279025   5.814   8.237   3.921
92398SOL     OW79026   5.606   4.628  14.613
92398SOL    HW179027   5.665   4.554  14.618
92398SOL    HW279028   5.558   4.616  14.531
92399SOL     OW79029   8.097   3.236   0.804
92399SOL    HW179030   8.071   3.147   0.824
92399SOL    HW279031   8.191   3.238   0.818
92400SOL     OW79032  11.568   5.683   6.553
92400SOL    HW179033  11.635   5.725   6.608
92400SOL    HW279034  11.613   5.610   6.512
92401SOL     OW79035   2.150   0.163   3.664
92401SOL    HW179036   2.093   0.103   3.617
92401SOL    HW279037   2.233   0.159   3.615
92402SOL     OW79038   3.289   5.551  13.992
92402SOL    HW179039   3.287   5.639  14.028
92402SOL    HW279040   3.312   5.563  13.900
92403SOL     OW79041   5.654   7.893   8.673
92403SOL    HW179042   5.728   7.878   8.732
92403SOL    HW279043   5.654   7.988   8.659
92404SOL     OW79044   9.701   0.479  12.827
92404SOL    HW179045   9.607   0.494  12.833
92404SOL    HW279046   9.720   0.414  12.896
92405SOL     OW79047   2.725   2.640  13.604
92405SOL    HW179048   2.644   2.690  13.610
92405SOL    HW279049   2.790   2.695  13.649
92406SOL     OW79050  12.592   1.734   7.026
92406SOL    HW179051  12.501   1.710   7.007
92406SOL    HW279052  12.637   1.724   6.943
92407SOL     OW79053   0.282  13.991  12.576
92407SOL    HW179054   0.246  13.905  12.554
92407SOL    HW279055   0.257  14.048  12.503
92408SOL     OW79056  13.069   2.444   1.394
92408SOL    HW179057  13.100   2.508   1.330
92408SOL    HW279058  13.029   2.497   1.463
92409SOL     OW79059  11.623  13.056  10.449
92409SOL    HW179060  11.690  13.076  10.383
92409SOL    HW279061  11.672  13.038  10.529
92410SOL     OW79062   7.916  10.950   7.485
92410SOL    HW179063   7.938  10.863   7.452
92410SOL    HW279064   7.852  10.933   7.555
92411SOL     OW79065   2.293   3.499   9.077
92411SOL    HW179066   2.215   3.533   9.121
92411SOL    HW279067   2.309   3.415   9.119
92412SOL     OW79068  11.500   6.757   0.775
92412SOL    HW179069  11.537   6.750   0.863
92412SOL    HW279070  11.543   6.833   0.737
92413SOL     OW79071  14.387   9.299   5.657
92413SOL    HW179072  14.480   9.322   5.666
92413SOL    HW279073  14.353   9.303   5.746
92414SOL     OW79074   8.174  14.079  14.692
92414SOL    HW179075   8.164  13.999  14.640
92414SOL    HW279076   8.085  14.114  14.702
92415SOL     OW79077   8.020   6.698   9.187
92415SOL    HW179078   8.054   6.785   9.166
92415SOL    HW279079   8.097   6.648   9.215
92416SOL     OW79080   1.264   4.140   7.217
92416SOL    HW179081   1.294   4.220   7.261
92416SOL    HW279082   1.234   4.083   7.287
92417SOL     OW79083  13.607   9.408   6.843
92417SOL    HW179084  13.523   9.362   6.833
92417SOL    HW279085  13.594   9.491   6.797
92418SOL     OW79086   0.075   9.779  14.823
92418SOL    HW179087   0.077   9.683  14.822
92418SOL    HW279088   0.070   9.801   0.043
92419SOL     OW79089  13.589  12.959   5.381
92419SOL    HW179090  13.550  13.008   5.454
92419SOL    HW279091  13.552  13.000   5.303
92420SOL     OW79092  13.487   0.730   5.170
92420SOL    HW179093  13.488   0.820   5.140
92420SOL    HW279094  13.489   0.737   5.266
92421SOL     OW79095  10.729  14.263   9.660
92421SOL    HW179096  10.735  14.288   9.567
92421SOL    HW279097  10.650  14.209   9.665
92422SOL     OW79098  14.267   2.578  12.992
92422SOL    HW179099  14.290   2.649  13.051
92422SOL    HW279100  14.351   2.537  12.970
92423SOL     OW79101   8.271  12.350  10.730
92423SOL    HW179102   8.212  12.313  10.664
92423SOL    HW279103   8.241  12.440  10.741
92424SOL     OW79104  10.092   6.718  11.512
92424SOL    HW179105  10.077   6.729  11.418
92424SOL    HW279106  10.048   6.793  11.552
92425SOL     OW79107  13.515   1.634   5.999
92425SOL    HW179108  13.583   1.700   6.014
92425SOL    HW279109  13.564   1.552   5.986
92426SOL     OW79110   7.965  13.722  12.470
92426SOL    HW179111   8.044  13.668  12.477
92426SOL    HW279112   7.978  13.772  12.389
92427SOL     OW79113  10.803   0.247   2.111
92427SOL    HW179114  10.875   0.258   2.173
92427SOL    HW279115  10.844   0.254   2.025
92428SOL     OW79116  13.224  14.633  10.093
92428SOL    HW179117  13.261  14.590  10.016
92428SOL    HW279118  13.163  14.569  10.129
92429SOL     OW79119   4.426   1.502   5.342
92429SOL    HW179120   4.456   1.585   5.378
92429SOL    HW279121   4.333   1.517   5.322
92430SOL     OW79122   6.463   7.392   2.244
92430SOL    HW179123   6.382   7.424   2.205
92430SOL    HW279124   6.529   7.457   2.222
92431SOL     OW79125  10.877  10.642   5.392
92431SOL    HW179126  10.915  10.564   5.432
92431SOL    HW279127  10.785  10.619   5.374
92432SOL     OW79128   3.853   8.040  10.107
92432SOL    HW179129   3.839   8.118  10.053
92432SOL    HW279130   3.938   8.053  10.148
92433SOL     OW79131   7.331   8.354   9.102
92433SOL    HW179132   7.302   8.275   9.057
92433SOL    HW279133   7.348   8.326   9.192
92434SOL     OW79134  11.653   3.550   1.467
92434SOL    HW179135  11.647   3.495   1.545
92434SOL    HW279136  11.654   3.488   1.393
92435SOL     OW79137  10.139   3.977   4.562
92435SOL    HW179138  10.087   3.988   4.641
92435SOL    HW279139  10.078   3.941   4.498
92436SOL     OW79140   6.060   9.693   5.538
92436SOL    HW179141   6.080   9.778   5.578
92436SOL    HW279142   6.001   9.650   5.599
92437SOL     OW79143   1.336   1.614   4.184
92437SOL    HW179144   1.421   1.605   4.141
92437SOL    HW279145   1.322   1.529   4.226
92438SOL     OW79146   0.655   0.931   1.196
92438SOL    HW179147   0.736   0.890   1.166
92438SOL    HW279148   0.668   1.024   1.180
92439SOL     OW79149   1.779  14.363  11.644
92439SOL    HW179150   1.722  14.286  11.638
92439SOL    HW279151   1.730  14.426  11.696
92440SOL     OW79152   1.296   5.675   2.451
92440SOL    HW179153   1.322   5.712   2.535
92440SOL    HW279154   1.265   5.587   2.473
92441SOL     OW79155   2.809   0.552   9.885
92441SOL    HW179156   2.821   0.459   9.868
92441SOL    HW279157   2.896   0.582   9.912
92442SOL     OW79158   8.436   9.296  11.514
92442SOL    HW179159   8.463   9.371  11.567
92442SOL    HW279160   8.367   9.330  11.457
92443SOL     OW79161   2.933   8.063   8.889
92443SOL    HW179162   2.862   8.059   8.825
92443SOL    HW279163   3.008   8.023   8.843
92444SOL     OW79164  10.275   6.526  12.840
92444SOL    HW179165  10.260   6.432  12.840
92444SOL    HW279166  10.371   6.534  12.840
92445SOL     OW79167   3.026   7.561   2.321
92445SOL    HW179168   2.951   7.569   2.380
92445SOL    HW279169   3.098   7.531   2.378
92446SOL     OW79170   0.799   7.871  13.938
92446SOL    HW179171   0.714   7.915  13.936
92446SOL    HW279172   0.788   7.803  14.006
92447SOL     OW79173   0.024   5.391  11.291
92447SOL    HW179174   0.001   5.384  11.384
92447SOL    HW279175   0.118   5.409  11.292
92448SOL     OW79176   8.964   9.186  10.409
92448SOL    HW179177   8.877   9.177  10.370
92448SOL    HW279178   8.995   9.096  10.421
92449SOL     OW79179  11.460   6.536   1.693
92449SOL    HW179180  11.538   6.533   1.748
92449SOL    HW279181  11.387   6.532   1.755
92450SOL     OW79182   5.661   4.904  10.745
92450SOL    HW179183   5.572   4.941  10.743
92450SOL    HW279184   5.662   4.840  10.675
92451SOL     OW79185   1.946  10.817   7.261
92451SOL    HW179186   2.011  10.878   7.293
92451SOL    HW279187   1.955  10.820   7.166
92452SOL     OW79188   4.229   3.262  11.782
92452SOL    HW179189   4.136   3.281  11.775
92452SOL    HW279190   4.264   3.329  11.841
92453SOL     OW79191  11.348   9.138   9.807
92453SOL    HW179192  11.416   9.204   9.799
92453SOL    HW279193  11.302   9.140   9.723
92454SOL     OW79194   4.232   7.180   9.546
92454SOL    HW179195   4.322   7.207   9.525
92454SOL    HW279196   4.206   7.125   9.472
92455SOL     OW79197  14.670   2.200   8.488
92455SOL    HW179198  14.692   2.212   8.580
92455SOL    HW279199  14.742   2.241   8.440
92456SOL     OW79200   4.670   7.470   1.689
92456SOL    HW179201   4.750   7.441   1.644
92456SOL    HW279202   4.628   7.389   1.717
92457SOL     OW79203   3.084   0.895   6.975
92457SOL    HW179204   3.112   0.986   6.979
92457SOL    HW279205   3.048   0.877   7.062
92458SOL     OW79206  14.357   7.062   0.810
92458SOL    HW179207  14.422   7.057   0.740
92458SOL    HW279208  14.272   7.062   0.764
92459SOL     OW79209   7.448  13.330   8.707
92459SOL    HW179210   7.533  13.347   8.747
92459SOL    HW279211   7.385  13.366   8.770
92460SOL     OW79212  10.383   2.962  10.097
92460SOL    HW179213  10.396   2.986  10.189
92460SOL    HW279214  10.315   2.894  10.099
92461SOL     OW79215  11.585  12.782  13.671
92461SOL    HW179216  11.567  12.709  13.611
92461SOL    HW279217  11.612  12.854  13.614
92462SOL     OW79218   5.915   2.489   8.942
92462SOL    HW179219   6.008   2.480   8.920
92462SOL    HW279220   5.882   2.400   8.943
92463SOL     OW79221   0.966   1.738   1.089
92463SOL    HW179222   0.895   1.697   1.041
92463SOL    HW279223   0.999   1.806   1.030
92464SOL     OW79224  11.957   1.067   5.865
92464SOL    HW179225  11.912   1.017   5.796
92464SOL    HW279226  12.013   1.129   5.817
92465SOL     OW79227  11.601  12.711  11.952
92465SOL    HW179228  11.577  12.765  12.027
92465SOL    HW279229  11.694  12.729  11.938
92466SOL     OW79230   8.389   6.536   8.929
92466SOL    HW179231   8.467   6.482   8.943
92466SOL    HW279232   8.424   6.622   8.903
92467SOL     OW79233   2.848   8.423   6.354
92467SOL    HW179234   2.842   8.433   6.449
92467SOL    HW279235   2.912   8.489   6.327
92468SOL     OW79236   8.656   5.632   1.069
92468SOL    HW179237   8.681   5.724   1.061
92468SOL    HW279238   8.697   5.603   1.151
92469SOL     OW79239  11.953   8.208   8.830
92469SOL    HW179240  11.995   8.287   8.796
92469SOL    HW279241  12.011   8.137   8.804
92470SOL     OW79242   1.763   0.589   2.501
92470SOL    HW179243   1.852   0.622   2.486
92470SOL    HW279244   1.762   0.565   2.593
92471SOL     OW79245   1.203   1.329   2.481
92471SOL    HW179246   1.150   1.330   2.402
92471SOL    HW279247   1.211   1.236   2.503
92472SOL     OW79248   1.978  14.386   0.627
92472SOL    HW179249   2.069  14.391   0.657
92472SOL    HW279250   1.949  14.477   0.624
92473SOL     OW79251   1.199   1.890   7.130
92473SOL    HW179252   1.192   1.928   7.043
92473SOL    HW279253   1.122   1.922   7.177
92474SOL     OW79254   0.370   7.814   2.656
92474SOL    HW179255   0.356   7.889   2.714
92474SOL    HW279256   0.436   7.761   2.700
92475SOL     OW79257   4.671   9.149   7.860
92475SOL    HW179258   4.632   9.233   7.836
92475SOL    HW279259   4.753   9.145   7.811
92476SOL     OW79260  14.108   0.850   2.056
92476SOL    HW179261  14.059   0.768   2.052
92476SOL    HW279262  14.041   0.918   2.055
92477SOL     OW79263   3.016  14.534  10.969
92477SOL    HW179264   2.989  14.455  11.016
92477SOL    HW279265   3.083  14.504  10.908
92478SOL     OW79266   6.999   8.693   3.176
92478SOL    HW179267   6.944   8.646   3.239
92478SOL    HW279268   7.048   8.624   3.132
92479SOL     OW79269   8.348  12.119   8.528
92479SOL    HW179270   8.344  12.213   8.548
92479SOL    HW279271   8.300  12.110   8.445
92480SOL     OW79272   6.149   6.455   8.825
92480SOL    HW179273   6.073   6.498   8.864
92480SOL    HW279274   6.127   6.362   8.823
92481SOL     OW79275   1.824   5.298  12.383
92481SOL    HW179276   1.907   5.259  12.356
92481SOL    HW279277   1.849   5.369  12.442
92482SOL     OW79278   0.811   7.933   3.567
92482SOL    HW179279   0.798   8.016   3.521
92482SOL    HW279280   0.781   7.951   3.656
92483SOL     OW79281   7.433   7.201   6.300
92483SOL    HW179282   7.361   7.234   6.246
92483SOL    HW279283   7.403   7.215   6.390
92484SOL     OW79284   4.293   7.530   0.799
92484SOL    HW179285   4.245   7.457   0.761
92484SOL    HW279286   4.385   7.505   0.793
92485SOL     OW79287   2.091  13.734   6.681
92485SOL    HW179288   2.059  13.804   6.625
92485SOL    HW279289   2.075  13.654   6.631
92486SOL     OW79290   0.411   5.590  11.793
92486SOL    HW179291   0.427   5.643  11.715
92486SOL    HW279292   0.347   5.640  11.844
92487SOL     OW79293   4.366   7.369  12.103
92487SOL    HW179294   4.437   7.321  12.060
92487SOL    HW279295   4.292   7.361  12.042
92488SOL     OW79296   0.191   4.609   5.411
92488SOL    HW179297   0.121   4.545   5.396
92488SOL    HW279298   0.269   4.556   5.430
92489SOL     OW79299  13.981  14.566   8.114
92489SOL    HW179300  13.999  14.540   8.204
92489SOL    HW279301  14.063  14.605   8.083
92490SOL     OW79302   2.945  10.101   0.204
92490SOL    HW179303   3.028  10.095   0.156
92490SOL    HW279304   2.942  10.023   0.258
92491SOL     OW79305   9.110  10.828   4.175
92491SOL    HW179306   9.105  10.739   4.210
92491SOL    HW279307   9.166  10.875   4.237
92492SOL     OW79308   7.292  12.553   5.236
92492SOL    HW179309   7.251  12.518   5.157
92492SOL    HW279310   7.294  12.648   5.222
92493SOL     OW79311   7.236   5.191  11.485
92493SOL    HW179312   7.144   5.169  11.497
92493SOL    HW279313   7.235   5.275  11.439
92494SOL     OW79314  12.712  12.369   3.583
92494SOL    HW179315  12.755  12.356   3.498
92494SOL    HW279316  12.670  12.285   3.601
92495SOL     OW79317   9.165   9.793   2.960
92495SOL    HW179318   9.101   9.756   2.900
92495SOL    HW279319   9.165   9.887   2.939
92496SOL     OW79320   1.627   2.177   4.750
92496SOL    HW179321   1.680   2.111   4.705
92496SOL    HW279322   1.672   2.260   4.734
92497SOL     OW79323   5.087   9.934  12.004
92497SOL    HW179324   5.127   9.912  11.920
92497SOL    HW279325   5.044   9.853  12.032
92498SOL     OW79326  13.146  11.412   4.110
92498SOL    HW179327  13.076  11.425   4.046
92498SOL    HW279328  13.132  11.481   4.175
92499SOL     OW79329   5.930   1.645   5.247
92499SOL    HW179330   5.928   1.728   5.200
92499SOL    HW279331   5.923   1.669   5.340
92500SOL     OW79332   7.627  11.443   8.105
92500SOL    HW179333   7.697  11.493   8.148
92500SOL    HW279334   7.666  11.357   8.090
92501SOL     OW79335   5.335  14.674   6.169
92501SOL    HW179336   5.387  14.594   6.178
92501SOL    HW279337   5.389  14.732   6.116
92502SOL     OW79338  14.330  13.663   8.552
92502SOL    HW179339  14.340  13.644   8.646
92502SOL    HW279340  14.291  13.583   8.516
92503SOL     OW79341   8.516   2.906  10.157
92503SOL    HW179342   8.533   2.943  10.243
92503SOL    HW279343   8.590   2.848  10.140
92504SOL     OW79344  13.577  11.695  12.107
92504SOL    HW179345  13.646  11.717  12.169
92504SOL    HW279346  13.531  11.621  12.147
92505SOL     OW79347   1.490  12.060  12.690
92505SOL    HW179348   1.566  12.108  12.656
92505SOL    HW279349   1.436  12.127  12.731
92506SOL     OW79350  12.470   8.312   6.670
92506SOL    HW179351  12.550   8.315   6.722
92506SOL    HW279352  12.472   8.227   6.627
92507SOL     OW79353   1.961  13.964   0.487
92507SOL    HW179354   1.982  14.021   0.561
92507SOL    HW279355   2.042  13.915   0.471
92508SOL     OW79356  14.017  10.499   5.263
92508SOL    HW179357  14.040  10.407   5.275
92508SOL    HW279358  14.026  10.538   5.350
92509SOL     OW79359   5.810   1.043   7.773
92509SOL    HW179360   5.770   1.098   7.840
92509SOL    HW279361   5.818   1.099   7.696
92510SOL     OW79362   2.824   1.825  11.107
92510SOL    HW179363   2.799   1.742  11.149
92510SOL    HW279364   2.876   1.870  11.173
92511SOL     OW79365   5.565   7.832   1.532
92511SOL    HW179366   5.617   7.826   1.452
92511SOL    HW279367   5.629   7.840   1.602
92512SOL     OW79368   5.505   8.808  14.120
92512SOL    HW179369   5.547   8.836  14.038
92512SOL    HW279370   5.427   8.760  14.092
92513SOL     OW79371  12.273   3.647   0.137
92513SOL    HW179372  12.310   3.649   0.049
92513SOL    HW279373  12.220   3.726   0.143
92514SOL     OW79374  10.144   0.838  10.836
92514SOL    HW179375  10.125   0.744  10.843
92514SOL    HW279376  10.221   0.850  10.892
92515SOL     OW79377   7.881   3.437   5.659
92515SOL    HW179378   7.842   3.414   5.744
92515SOL    HW279379   7.872   3.358   5.606
92516SOL     OW79380   4.919   3.319  12.465
92516SOL    HW179381   4.860   3.274  12.405
92516SOL    HW279382   4.863   3.352  12.535
92517SOL     OW79383  12.907   0.845   3.091
92517SOL    HW179384  12.844   0.786   3.133
92517SOL    HW279385  12.993   0.811   3.119
92518SOL     OW79386   1.078   5.582   6.346
92518SOL    HW179387   1.108   5.618   6.262
92518SOL    HW279388   0.994   5.625   6.362
92519SOL     OW79389   7.233  13.545   0.807
92519SOL    HW179390   7.269  13.523   0.721
92519SOL    HW279391   7.152  13.493   0.813
92520SOL     OW79392  11.437  12.190  13.009
92520SOL    HW179393  11.521  12.158  13.043
92520SOL    HW279394  11.402  12.116  12.959
92521SOL     OW79395  12.136   7.538  12.532
92521SOL    HW179396  12.129   7.476  12.605
92521SOL    HW279397  12.045   7.560  12.510
92522SOL     OW79398   8.793   9.226   2.452
92522SOL    HW179399   8.792   9.130   2.451
92522SOL    HW279400   8.783   9.249   2.544
92523SOL     OW79401   0.912   7.906   0.546
92523SOL    HW179402   0.989   7.954   0.577
92523SOL    HW279403   0.903   7.832   0.606
92524SOL     OW79404   0.382   3.119   1.774
92524SOL    HW179405   0.382   3.215   1.771
92524SOL    HW279406   0.301   3.096   1.818
92525SOL     OW79407  12.836  14.739   8.862
92525SOL    HW179408  12.858  14.807   8.798
92525SOL    HW279409  12.771  14.684   8.818
92526SOL     OW79410   4.617   7.542   1.120
92526SOL    HW179411   4.522   7.538   1.135
92526SOL    HW279412   4.655   7.516   1.204
92527SOL     OW79413   2.026   0.024   1.335
92527SOL    HW179414   2.048  14.867   1.423
92527SOL    HW279415   2.000   0.116   1.346
92528SOL     OW79416   0.532   5.502   4.375
92528SOL    HW179417   0.486   5.573   4.331
92528SOL    HW279418   0.584   5.461   4.307
92529SOL     OW79419  12.867  10.298   5.083
92529SOL    HW179420  12.821  10.371   5.042
92529SOL    HW279421  12.948  10.289   5.033
92530SOL     OW79422  10.852   5.057  12.933
92530SOL    HW179423  10.889   5.079  12.847
92530SOL    HW279424  10.823   5.141  12.969
92531SOL     OW79425  11.516  14.668  10.789
92531SOL    HW179426  11.569  14.643  10.714
92531SOL    HW279427  11.571  14.648  10.865
92532SOL     OW79428   5.672  14.506  14.375
92532SOL    HW179429   5.709  14.593  14.358
92532SOL    HW279430   5.578  14.519  14.368
92533SOL     OW79431   9.065   4.883   7.260
92533SOL    HW179432   9.151   4.849   7.235
92533SOL    HW279433   9.050   4.847   7.348
92534SOL     OW79434   0.479   8.252   6.570
92534SOL    HW179435   0.390   8.218   6.579
92534SOL    HW279436   0.513   8.254   6.660
92535SOL     OW79437   1.945   2.203   2.561
92535SOL    HW179438   2.034   2.238   2.571
92535SOL    HW279439   1.932   2.148   2.638
92536SOL     OW79440   7.745   7.418   9.504
92536SOL    HW179441   7.709   7.345   9.554
92536SOL    HW279442   7.714   7.496   9.550
92537SOL     OW79443   1.988   8.878  10.350
92537SOL    HW179444   1.904   8.882  10.305
92537SOL    HW279445   1.992   8.959  10.401
92538SOL     OW79446   9.468   7.773   8.304
92538SOL    HW179447   9.507   7.705   8.359
92538SOL    HW279448   9.471   7.737   8.216
92539SOL     OW79449   4.566   2.696   7.852
92539SOL    HW179450   4.584   2.713   7.759
92539SOL    HW279451   4.559   2.783   7.892
92540SOL     OW79452   6.691   7.904   0.805
92540SOL    HW179453   6.628   7.855   0.858
92540SOL    HW279454   6.641   7.932   0.728
92541SOL     OW79455   7.294   5.884   6.852
92541SOL    HW179456   7.245   5.867   6.771
92541SOL    HW279457   7.273   5.811   6.909
92542SOL     OW79458  10.154   0.472   3.073
92542SOL    HW179459  10.127   0.390   3.114
92542SOL    HW279460  10.107   0.540   3.121
92543SOL     OW79461  10.558   6.207   0.619
92543SOL    HW179462  10.488   6.214   0.554
92543SOL    HW279463  10.609   6.132   0.591
92544SOL     OW79464   9.563   9.693  10.371
92544SOL    HW179465   9.575   9.639  10.449
92544SOL    HW279466   9.524   9.634  10.306
92545SOL     OW79467   4.540   0.298   1.750
92545SOL    HW179468   4.452   0.292   1.787
92545SOL    HW279469   4.569   0.387   1.772
92546SOL     OW79470   7.610   8.775  11.577
92546SOL    HW179471   7.630   8.736  11.662
92546SOL    HW279472   7.520   8.809  11.587
92547SOL     OW79473   2.198   6.382   6.639
92547SOL    HW179474   2.165   6.301   6.679
92547SOL    HW279475   2.170   6.377   6.548
92548SOL     OW79476   2.357   4.870   7.599
92548SOL    HW179477   2.440   4.830   7.573
92548SOL    HW279478   2.318   4.807   7.659
92549SOL     OW79479   5.668  12.448   5.560
92549SOL    HW179480   5.611  12.525   5.570
92549SOL    HW279481   5.735  12.458   5.628
92550SOL     OW79482   0.046  12.632  12.556
92550SOL    HW179483   0.106  12.660  12.625
92550SOL    HW279484   0.026  12.540  12.577
92551SOL     OW79485   5.982   9.530  11.699
92551SOL    HW179486   5.954   9.620  11.718
92551SOL    HW279487   5.941   9.477  11.767
92552SOL     OW79488   4.613   9.440   5.799
92552SOL    HW179489   4.535   9.388   5.822
92552SOL    HW279490   4.584   9.496   5.728
92553SOL     OW79491  10.740  12.777   2.543
92553SOL    HW179492  10.653  12.759   2.506
92553SOL    HW279493  10.738  12.871   2.564
92554SOL     OW79494   0.770   3.289  13.035
92554SOL    HW179495   0.786   3.337  13.116
92554SOL    HW279496   0.696   3.334  12.994
92555SOL     OW79497   1.585   8.640   6.532
92555SOL    HW179498   1.553   8.552   6.555
92555SOL    HW279499   1.550   8.696   6.600
92556SOL     OW79500   5.788  10.930  12.062
92556SOL    HW179501   5.835  11.011  12.044
92556SOL    HW279502   5.828  10.866  12.003
92557SOL     OW79503  11.319   7.900   4.523
92557SOL    HW179504  11.278   7.947   4.596
92557SOL    HW279505  11.337   7.968   4.458
92558SOL     OW79506   9.776   0.509   7.309
92558SOL    HW179507   9.827   0.554   7.376
92558SOL    HW279508   9.703   0.567   7.291
92559SOL     OW79509   5.005   6.195   4.298
92559SOL    HW179510   5.021   6.177   4.391
92559SOL    HW279511   4.924   6.148   4.278
92560SOL     OW79512  12.619   6.272   2.313
92560SOL    HW179513  12.713   6.273   2.297
92560SOL    HW279514  12.604   6.348   2.370
92561SOL     OW79515   0.245  14.797  11.173
92561SOL    HW179516   0.230  14.784  11.079
92561SOL    HW279517   0.158  14.799  11.212
92562SOL     OW79518   4.360   6.979  11.173
92562SOL    HW179519   4.358   7.007  11.081
92562SOL    HW279520   4.300   7.038  11.218
92563SOL     OW79521  10.654  10.622   2.876
92563SOL    HW179522  10.564  10.644   2.852
92563SOL    HW279523  10.707  10.693   2.839
92564SOL     OW79524   3.146   1.491   6.050
92564SOL    HW179525   3.197   1.570   6.033
92564SOL    HW279526   3.153   1.440   5.969
92565SOL     OW79527   3.326   2.806   9.369
92565SOL    HW179528   3.282   2.733   9.411
92565SOL    HW279529   3.306   2.882   9.424
92566SOL     OW79530  13.905   4.044   2.226
92566SOL    HW179531  13.816   4.026   2.195
92566SOL    HW279532  13.909   4.140   2.234
92567SOL     OW79533  13.185   5.740  11.659
92567SOL    HW179534  13.213   5.649  11.671
92567SOL    HW279535  13.158   5.769  11.747
92568SOL     OW79536   8.289  10.152  12.575
92568SOL    HW179537   8.316  10.088  12.642
92568SOL    HW279538   8.302  10.237  12.617
92569SOL     OW79539   3.750  11.099   7.849
92569SOL    HW179540   3.765  11.006   7.863
92569SOL    HW279541   3.699  11.127   7.926
92570SOL     OW79542  10.287  13.227   7.371
92570SOL    HW179543  10.362  13.240   7.430
92570SOL    HW279544  10.282  13.132   7.361
92571SOL     OW79545   9.959   9.271   1.043
92571SOL    HW179546  10.022   9.200   1.058
92571SOL    HW279547  10.002   9.328   0.979
92572SOL     OW79548   3.417   5.692   8.024
92572SOL    HW179549   3.494   5.700   8.080
92572SOL    HW279550   3.429   5.610   7.977
92573SOL     OW79551  10.406  12.263   0.238
92573SOL    HW179552  10.483  12.309   0.204
92573SOL    HW279553  10.414  12.269   0.333
92574SOL     OW79554   2.128   3.704   7.066
92574SOL    HW179555   2.097   3.635   7.125
92574SOL    HW279556   2.158   3.774   7.125
92575SOL     OW79557   0.865  12.897   4.322
92575SOL    HW179558   0.817  12.877   4.402
92575SOL    HW279559   0.797  12.902   4.254
92576SOL     OW79560   2.835   4.173   3.060
92576SOL    HW179561   2.820   4.265   3.084
92576SOL    HW279562   2.763   4.126   3.101
92577SOL     OW79563  13.045   1.159   8.730
92577SOL    HW179564  12.960   1.133   8.695
92577SOL    HW279565  13.104   1.090   8.703
92578SOL     OW79566   5.844   0.806   5.814
92578SOL    HW179567   5.887   0.792   5.730
92578SOL    HW279568   5.753   0.781   5.799
92579SOL     OW79569   9.546   4.889   6.846
92579SOL    HW179570   9.546   4.955   6.776
92579SOL    HW279571   9.496   4.929   6.917
92580SOL     OW79572   3.062   0.866  13.739
92580SOL    HW179573   3.120   0.797  13.770
92580SOL    HW279574   3.083   0.876  13.646
92581SOL     OW79575   3.096   8.003  11.748
92581SOL    HW179576   3.155   8.075  11.768
92581SOL    HW279577   3.025   8.044  11.698
92582SOL     OW79578   8.624   0.937   2.442
92582SOL    HW179579   8.617   1.032   2.453
92582SOL    HW279580   8.590   0.900   2.524
92583SOL     OW79581   4.783   2.236  13.601
92583SOL    HW179582   4.777   2.327  13.574
92583SOL    HW279583   4.745   2.186  13.529
92584SOL     OW79584   1.416   3.071  11.552
92584SOL    HW179585   1.398   3.105  11.464
92584SOL    HW279586   1.476   3.135  11.591
92585SOL     OW79587   2.106   5.702   5.041
92585SOL    HW179588   2.031   5.677   4.986
92585SOL    HW279589   2.161   5.756   4.984
92586SOL     OW79590  11.254  14.871  13.127
92586SOL    HW179591  11.277  14.785  13.091
92586SOL    HW279592  11.178  14.854  13.182
92587SOL     OW79593   0.408  11.736   1.648
92587SOL    HW179594   0.500  11.751   1.670
92587SOL    HW279595   0.385  11.656   1.695
92588SOL     OW79596   1.267   0.364   0.437
92588SOL    HW179597   1.335   0.307   0.473
92588SOL    HW279598   1.211   0.305   0.386
92589SOL     OW79599   1.653   7.205   7.514
92589SOL    HW179600   1.731   7.152   7.531
92589SOL    HW279601   1.591   7.178   7.582
92590SOL     OW79602   8.726  12.823   0.657
92590SOL    HW179603   8.796  12.773   0.699
92590SOL    HW279604   8.646  12.792   0.699
92591SOL     OW79605  13.226   4.699   3.550
92591SOL    HW179606  13.139   4.671   3.579
92591SOL    HW279607  13.233   4.790   3.580
92592SOL     OW79608   0.495   1.430  10.352
92592SOL    HW179609   0.556   1.489  10.398
92592SOL    HW279610   0.535   1.417  10.266
92593SOL     OW79611  11.898   3.642   9.508
92593SOL    HW179612  11.940   3.632   9.593
92593SOL    HW279613  11.859   3.556   9.490
92594SOL     OW79614   3.590   1.473   2.083
92594SOL    HW179615   3.579   1.544   2.018
92594SOL    HW279616   3.504   1.466   2.125
92595SOL     OW79617  14.584   3.155   3.492
92595SOL    HW179618  14.537   3.114   3.419
92595SOL    HW279619  14.516   3.200   3.542
92596SOL     OW79620   4.532  10.001  11.165
92596SOL    HW179621   4.505  10.039  11.081
92596SOL    HW279622   4.508   9.908  11.158
92597SOL     OW79623  11.281   9.615   6.891
92597SOL    HW179624  11.339   9.616   6.968
92597SOL    HW279625  11.310   9.539   6.841
92598SOL     OW79626  11.847   9.744  11.140
92598SOL    HW179627  11.799   9.693  11.075
92598SOL    HW279628  11.840   9.834  11.110
92599SOL     OW79629   6.942   7.755   0.827
92599SOL    HW179630   6.868   7.809   0.796
92599SOL    HW279631   7.006   7.818   0.859
92600SOL     OW79632  14.751   6.209   7.515
92600SOL    HW179633  14.759   6.130   7.568
92600SOL    HW279634  14.749   6.280   7.578
92601SOL     OW79635   7.260   0.546   7.352
92601SOL    HW179636   7.314   0.517   7.279
92601SOL    HW279637   7.177   0.570   7.312
92602SOL     OW79638   9.295  12.743  11.601
92602SOL    HW179639   9.336  12.822  11.635
92602SOL    HW279640   9.326  12.736  11.511
92603SOL     OW79641   6.348   9.392  11.355
92603SOL    HW179642   6.284   9.387  11.284
92603SOL    HW279643   6.395   9.474  11.340
92604SOL     OW79644   1.635   5.995   5.043
92604SOL    HW179645   1.552   5.949   5.032
92604SOL    HW279646   1.669   5.963   5.126
92605SOL     OW79647   2.268  14.076   1.175
92605SOL    HW179648   2.201  14.035   1.120
92605SOL    HW279649   2.259  14.170   1.158
92606SOL     OW79650   7.953   7.133   2.558
92606SOL    HW179651   8.006   7.148   2.480
92606SOL    HW279652   7.960   7.215   2.607
92607SOL     OW79653  14.353   2.004  13.675
92607SOL    HW179654  14.318   2.084  13.636
92607SOL    HW279655  14.303   1.993  13.756
92608SOL     OW79656  10.008   6.341   6.193
92608SOL    HW179657  10.073   6.408   6.174
92608SOL    HW279658   9.974   6.364   6.279
92609SOL     OW79659   7.081   8.882   0.233
92609SOL    HW179660   6.985   8.885   0.224
92609SOL    HW279661   7.111   8.959   0.185
92610SOL     OW79662  10.457  13.391   8.712
92610SOL    HW179663  10.507  13.337   8.651
92610SOL    HW279664  10.388  13.334   8.745
92611SOL     OW79665   8.389   5.820   4.707
92611SOL    HW179666   8.399   5.863   4.792
92611SOL    HW279667   8.450   5.747   4.710
92612SOL     OW79668  14.578  11.066   1.255
92612SOL    HW179669  14.639  11.106   1.192
92612SOL    HW279670  14.543  10.990   1.209
92613SOL     OW79671  11.287   6.809   2.607
92613SOL    HW179672  11.374   6.777   2.583
92613SOL    HW279673  11.289   6.812   2.703
92614SOL     OW79674   9.221  10.087   5.691
92614SOL    HW179675   9.177  10.099   5.607
92614SOL    HW279676   9.242   9.993   5.694
92615SOL     OW79677   0.392   5.332  12.988
92615SOL    HW179678   0.409   5.320  12.895
92615SOL    HW279679   0.466   5.290  13.031
92616SOL     OW79680  12.826   3.348   2.033
92616SOL    HW179681  12.911   3.335   2.075
92616SOL    HW279682  12.840   3.320   1.942
92617SOL     OW79683   7.632  14.030  12.609
92617SOL    HW179684   7.679  13.952  12.639
92617SOL    HW279685   7.581  14.058  12.684
92618SOL     OW79686   6.949   7.878  11.139
92618SOL    HW179687   7.006   7.937  11.189
92618SOL    HW279688   6.867   7.876  11.188
92619SOL     OW79689   9.441   4.744  14.067
92619SOL    HW179690   9.430   4.746  14.162
92619SOL    HW279691   9.351   4.741  14.033
92620SOL     OW79692  11.836  12.640   0.849
92620SOL    HW179693  11.907  12.584   0.880
92620SOL    HW279694  11.775  12.643   0.923
92621SOL     OW79695   2.970  13.752  12.867
92621SOL    HW179696   2.946  13.840  12.838
92621SOL    HW279697   2.993  13.706  12.787
92622SOL     OW79698   3.955   9.442   3.189
92622SOL    HW179699   4.046   9.447   3.218
92622SOL    HW279700   3.921   9.362   3.230
92623SOL     OW79701  14.306   4.286  12.369
92623SOL    HW179702  14.285   4.373  12.334
92623SOL    HW279703  14.383   4.301  12.425
92624SOL     OW79704   9.901   9.461   1.988
92624SOL    HW179705   9.855   9.497   1.912
92624SOL    HW279706   9.908   9.367   1.969
92625SOL     OW79707  13.841   4.760   3.944
92625SOL    HW179708  13.802   4.772   3.857
92625SOL    HW279709  13.884   4.844   3.962
92626SOL     OW79710   9.100   8.206   5.028
92626SOL    HW179711   9.183   8.250   5.008
92626SOL    HW279712   9.033   8.267   4.999
92627SOL     OW79713   8.605   8.545   8.430
92627SOL    HW179714   8.625   8.479   8.496
92627SOL    HW279715   8.649   8.514   8.351
92628SOL     OW79716   8.460  12.874   2.138
92628SOL    HW179717   8.467  12.822   2.217
92628SOL    HW279718   8.398  12.827   2.083
92629SOL     OW79719   6.037  14.424   0.683
92629SOL    HW179720   6.117  14.452   0.727
92629SOL    HW279721   5.975  14.494   0.700
92630SOL     OW79722   8.123   7.384   2.073
92630SOL    HW179723   8.135   7.294   2.103
92630SOL    HW279724   8.032   7.388   2.045
92631SOL     OW79725   7.549   3.508  11.917
92631SOL    HW179726   7.499   3.451  11.975
92631SOL    HW279727   7.485   3.540  11.854
92632SOL     OW79728  13.057   2.109  10.211
92632SOL    HW179729  12.979   2.064  10.243
92632SOL    HW279730  13.039   2.123  10.118
92633SOL     OW79731  10.421   6.545   4.546
92633SOL    HW179732  10.407   6.638   4.561
92633SOL    HW279733  10.349   6.518   4.489
92634SOL     OW79734  10.906   5.953   5.811
92634SOL    HW179735  10.830   5.913   5.852
92634SOL    HW279736  10.977   5.939   5.873
92635SOL     OW79737  11.389   4.292   2.136
92635SOL    HW179738  11.299   4.260   2.126
92635SOL    HW279739  11.394   4.369   2.080
92636SOL     OW79740   7.994   1.197   7.185
92636SOL    HW179741   7.911   1.170   7.224
92636SOL    HW279742   8.023   1.121   7.134
92637SOL     OW79743   0.041  11.762   3.019
92637SOL    HW179744   0.092  11.839   2.995
92637SOL    HW279745  14.826  11.779   2.983
92638SOL     OW79746  11.466   3.033  10.981
92638SOL    HW179747  11.404   2.971  10.943
92638SOL    HW279748  11.511   3.071  10.906
92639SOL     OW79749   8.957   1.977   6.349
92639SOL    HW179750   8.932   2.039   6.417
92639SOL    HW279751   8.874   1.937   6.321
92640SOL     OW79752  13.973   6.419   7.549
92640SOL    HW179753  13.956   6.332   7.514
92640SOL    HW279754  14.048   6.406   7.608
92641SOL     OW79755   7.381   9.478   4.570
92641SOL    HW179756   7.385   9.532   4.648
92641SOL    HW279757   7.442   9.519   4.508
92642SOL     OW79758  11.568  11.101   0.339
92642SOL    HW179759  11.481  11.140   0.330
92642SOL    HW279760  11.617  11.132   0.263
92643SOL     OW79761   1.210   8.151   1.356
92643SOL    HW179762   1.117   8.148   1.332
92643SOL    HW279763   1.215   8.219   1.424
92644SOL     OW79764   0.749   3.552   5.185
92644SOL    HW179765   0.815   3.503   5.234
92644SOL    HW279766   0.769   3.644   5.202
92645SOL     OW79767   1.465  10.747   9.281
92645SOL    HW179768   1.488  10.765   9.190
92645SOL    HW279769   1.416  10.664   9.277
92646SOL     OW79770   5.928   7.241  11.045
92646SOL    HW179771   5.968   7.223  11.130
92646SOL    HW279772   5.995   7.293  10.999
92647SOL     OW79773   8.865  14.815   2.713
92647SOL    HW179774   8.833  14.801   2.802
92647SOL    HW279775   8.946  14.764   2.708
92648SOL     OW79776  10.724   7.446   6.989
92648SOL    HW179777  10.644   7.487   6.956
92648SOL    HW279778  10.722   7.357   6.954
92649SOL     OW79779   9.662  12.578   8.083
92649SOL    HW179780   9.692  12.662   8.119
92649SOL    HW279781   9.614  12.602   8.004
92650SOL     OW79782   9.166  11.425  12.580
92650SOL    HW179783   9.092  11.484  12.594
92650SOL    HW279784   9.152  11.353  12.641
92651SOL     OW79785   1.471  12.699   4.862
92651SOL    HW179786   1.479  12.650   4.780
92651SOL    HW279787   1.379  12.726   4.864
92652SOL     OW79788  13.782   5.842  12.059
92652SOL    HW179789  13.862   5.812  12.101
92652SOL    HW279790  13.803   5.844  11.966
92653SOL     OW79791  13.996  13.699   4.563
92653SOL    HW179792  13.913  13.688   4.609
92653SOL    HW279793  14.002  13.622   4.506
92654SOL     OW79794   0.406   9.831  12.262
92654SOL    HW179795   0.424   9.906  12.204
92654SOL    HW279796   0.476   9.769  12.243
92655SOL     OW79797   9.352   9.727   4.444
92655SOL    HW179798   9.386   9.812   4.470
92655SOL    HW279799   9.420   9.664   4.470
92656SOL     OW79800   2.930   4.062  13.402
92656SOL    HW179801   2.935   3.983  13.348
92656SOL    HW279802   3.021   4.089  13.413
92657SOL     OW79803   8.019   4.696   7.134
92657SOL    HW179804   7.931   4.715   7.168
92657SOL    HW279805   8.059   4.639   7.200
92658SOL     OW79806   7.530   2.680  11.555
92658SOL    HW179807   7.569   2.595  11.534
92658SOL    HW279808   7.595   2.744  11.526
92659SOL     OW79809   2.930   0.202   7.212
92659SOL    HW179810   2.940   0.108   7.228
92659SOL    HW279811   2.938   0.241   7.299
92660SOL     OW79812   1.611   7.407   6.123
92660SOL    HW179813   1.526   7.450   6.120
92660SOL    HW279814   1.612   7.350   6.046
92661SOL     OW79815   4.239   9.963   1.650
92661SOL    HW179816   4.301  10.025   1.614
92661SOL    HW279817   4.253   9.882   1.601
92662SOL     OW79818  14.576   6.515   4.993
92662SOL    HW179819  14.542   6.428   4.972
92662SOL    HW279820  14.531   6.538   5.075
92663SOL     OW79821   2.600   3.060   2.669
92663SOL    HW179822   2.683   3.021   2.697
92663SOL    HW279823   2.552   2.987   2.628
92664SOL     OW79824   1.766  11.050   8.969
92664SOL    HW179825   1.682  11.003   8.966
92664SOL    HW279826   1.826  10.991   9.014
92665SOL     OW79827  14.158  10.703   9.393
92665SOL    HW179828  14.135  10.741   9.308
92665SOL    HW279829  14.106  10.754   9.456
92666SOL     OW79830   6.052  11.362   8.147
92666SOL    HW179831   6.032  11.385   8.057
92666SOL    HW279832   6.147  11.349   8.148
92667SOL     OW79833   6.672   4.569  12.129
92667SOL    HW179834   6.737   4.534  12.069
92667SOL    HW279835   6.720   4.585  12.210
92668SOL     OW79836   9.468  10.213   1.382
92668SOL    HW179837   9.462  10.251   1.295
92668SOL    HW279838   9.378  10.186   1.402
92669SOL     OW79839   4.232   0.699  11.653
92669SOL    HW179840   4.176   0.639  11.605
92669SOL    HW279841   4.321   0.676  11.627
92670SOL     OW79842   7.043   0.731  14.602
92670SOL    HW179843   7.041   0.643  14.564
92670SOL    HW279844   7.101   0.780  14.544
92671SOL     OW79845  13.037   9.642   4.364
92671SOL    HW179846  13.020   9.727   4.404
92671SOL    HW279847  13.130   9.644   4.342
92672SOL     OW79848   8.116  10.798   7.218
92672SOL    HW179849   8.204  10.796   7.255
92672SOL    HW279850   8.085  10.707   7.225
92673SOL     OW79851   9.401   5.756   6.422
92673SOL    HW179852   9.338   5.688   6.397
92673SOL    HW279853   9.376   5.780   6.511
92674SOL     OW79854  10.560  11.812   2.723
92674SOL    HW179855  10.540  11.735   2.669
92674SOL    HW279856  10.560  11.778   2.813
92675SOL     OW79857  10.187   4.942   9.000
92675SOL    HW179858  10.252   5.009   8.980
92675SOL    HW279859  10.237   4.872   9.043
92676SOL     OW79860  10.040   4.709  12.466
92676SOL    HW179861  10.023   4.769  12.539
92676SOL    HW279862  10.002   4.626  12.494
92677SOL     OW79863   8.985   0.739  13.462
92677SOL    HW179864   9.066   0.788  13.448
92677SOL    HW279865   8.971   0.742  13.557
92678SOL     OW79866   8.248  11.029   8.807
92678SOL    HW179867   8.332  11.024   8.760
92678SOL    HW279868   8.230  11.123   8.813
92679SOL     OW79869   5.459   4.092   3.147
92679SOL    HW179870   5.403   4.127   3.078
92679SOL    HW279871   5.478   4.003   3.120
92680SOL     OW79872   6.377   1.656   7.653
92680SOL    HW179873   6.344   1.742   7.628
92680SOL    HW279874   6.303   1.614   7.697
92681SOL     OW79875   3.104   9.496   5.163
92681SOL    HW179876   3.128   9.493   5.071
92681SOL    HW279877   3.136   9.414   5.200
92682SOL     OW79878   5.346  11.465  11.905
92682SOL    HW179879   5.342  11.469  11.809
92682SOL    HW279880   5.369  11.554  11.931
92683SOL     OW79881  10.192  11.788  13.538
92683SOL    HW179882  10.136  11.753  13.607
92683SOL    HW279883  10.231  11.710  13.497
92684SOL     OW79884   5.357   3.146  14.734
92684SOL    HW179885   5.452   3.140  14.726
92684SOL    HW279886   5.325   3.063  14.699
92685SOL     OW79887  14.113  11.091   2.381
92685SOL    HW179888  14.085  11.015   2.329
92685SOL    HW279889  14.117  11.058   2.471
92686SOL     OW79890   3.170   5.208  12.970
92686SOL    HW179891   3.157   5.276  13.036
92686SOL    HW279892   3.082   5.186  12.940
92687SOL     OW79893  14.840   3.368   4.713
92687SOL    HW179894   0.057   3.398   4.723
92687SOL    HW279895  14.829   3.354   4.619
92688SOL     OW79896  14.221   5.851  10.654
92688SOL    HW179897  14.214   5.850  10.750
92688SOL    HW279898  14.172   5.929  10.627
92689SOL     OW79899  12.040   4.323   9.858
92689SOL    HW179900  12.053   4.416   9.880
92689SOL    HW279901  11.961   4.298   9.905
92690SOL     OW79902   1.729   9.496  14.151
92690SOL    HW179903   1.733   9.510  14.056
92690SOL    HW279904   1.636   9.501  14.172
92691SOL     OW79905   9.473  12.345  11.951
92691SOL    HW179906   9.406  12.276  11.942
92691SOL    HW279907   9.440  12.417  11.898
92692SOL     OW79908   6.139   7.825   4.712
92692SOL    HW179909   6.077   7.892   4.741
92692SOL    HW279910   6.130   7.755   4.776
92693SOL     OW79911   7.110   0.837   5.400
92693SOL    HW179912   7.046   0.809   5.336
92693SOL    HW279913   7.110   0.932   5.395
92694SOL     OW79914  13.538   2.986  11.077
92694SOL    HW179915  13.477   2.998  11.150
92694SOL    HW279916  13.539   3.072  11.033
92695SOL     OW79917   5.231   4.703   9.629
92695SOL    HW179918   5.287   4.730   9.702
92695SOL    HW279919   5.165   4.772   9.622
92696SOL     OW79920   8.574   3.538  14.044
92696SOL    HW179921   8.599   3.495  14.125
92696SOL    HW279922   8.492   3.497  14.018
92697SOL     OW79923  13.341   8.205  12.096
92697SOL    HW179924  13.403   8.140  12.064
92697SOL    HW279925  13.263   8.155  12.119
92698SOL     OW79926   7.358  10.172   2.339
92698SOL    HW179927   7.451  10.171   2.360
92698SOL    HW279928   7.332  10.264   2.348
92699SOL     OW79929   7.736  14.582   7.300
92699SOL    HW179930   7.703  14.587   7.390
92699SOL    HW279931   7.662  14.548   7.249
92700SOL     OW79932  10.672  11.426   7.415
92700SOL    HW179933  10.761  11.409   7.444
92700SOL    HW279934  10.636  11.340   7.393
92701SOL     OW79935   9.369   7.956  14.248
92701SOL    HW179936   9.322   7.899  14.308
92701SOL    HW279937   9.309   7.969  14.174
92702SOL     OW79938   1.358   2.582  13.131
92702SOL    HW179939   1.394   2.501  13.167
92702SOL    HW279940   1.353   2.642  13.205
92703SOL     OW79941   2.875   0.073   0.543
92703SOL    HW179942   2.796   0.115   0.509
92703SOL    HW279943   2.932   0.063   0.466
92704SOL     OW79944   7.987   9.810  11.258
92704SOL    HW179945   8.043   9.859  11.197
92704SOL    HW279946   7.935   9.753  11.203
92705SOL     OW79947  12.484   3.488   3.591
92705SOL    HW179948  12.470   3.452   3.679
92705SOL    HW279949  12.410   3.548   3.578
92706SOL     OW79950   5.961   9.934  13.022
92706SOL    HW179951   5.937   9.841  13.023
92706SOL    HW279952   6.055   9.935  13.035
92707SOL     OW79953   3.849   3.917   5.202
92707SOL    HW179954   3.802   3.996   5.227
92707SOL    HW279955   3.887   3.938   5.116
92708SOL     OW79956   8.775   6.054  14.681
92708SOL    HW179957   8.771   6.115  14.608
92708SOL    HW279958   8.772   6.109  14.759
92709SOL     OW79959   6.741   7.061   8.440
92709SOL    HW179960   6.670   7.040   8.380
92709SOL    HW279961   6.774   7.146   8.409
92710SOL     OW79962   4.607   5.917  12.931
92710SOL    HW179963   4.679   5.958  12.884
92710SOL    HW279964   4.641   5.831  12.957
92711SOL     OW79965  14.392  13.954   7.195
92711SOL    HW179966  14.447  13.936   7.119
92711SOL    HW279967  14.428  13.898   7.264
92712SOL     OW79968   8.272  10.430   3.021
92712SOL    HW179969   8.361  10.451   3.048
92712SOL    HW279970   8.245  10.505   2.967
92713SOL     OW79971   9.785   4.668   2.756
92713SOL    HW179972   9.818   4.598   2.700
92713SOL    HW279973   9.742   4.622   2.829
92714SOL     OW79974   2.618   2.741   9.634
92714SOL    HW179975   2.561   2.730   9.710
92714SOL    HW279976   2.707   2.733   9.669
92715SOL     OW79977   1.323  10.533   9.197
92715SOL    HW179978   1.260  10.472   9.235
92715SOL    HW279979   1.382  10.478   9.146
92716SOL     OW79980   7.154  10.908   1.333
92716SOL    HW179981   7.230  10.876   1.283
92716SOL    HW279982   7.080  10.859   1.297
92717SOL     OW79983  14.832  14.187  13.934
92717SOL    HW179984  14.792  14.252  13.876
92717SOL    HW279985   0.031  14.151  13.882
92718SOL     OW79986  13.253   9.892   9.154
92718SOL    HW179987  13.176   9.852   9.195
92718SOL    HW279988  13.291   9.823   9.100
92719SOL     OW79989   3.631  10.045  14.726
92719SOL    HW179990   3.606   9.988  14.799
92719SOL    HW279991   3.714  10.084  14.754
92720SOL     OW79992  10.501   4.259   0.261
92720SOL    HW179993  10.466   4.334   0.213
92720SOL    HW279994  10.593   4.281   0.275
92721SOL     OW79995   6.740   3.755   3.151
92721SOL    HW179996   6.660   3.768   3.100
92721SOL    HW279997   6.723   3.799   3.234
92722SOL     OW79998  12.526   2.949   1.071
92722SOL    HW179999  12.462   2.900   1.123
92722SOL    HW280000  12.495   2.943   0.981
92723SOL     OW80001   2.043   5.410  10.828
92723SOL    HW180002   2.073   5.426  10.739
92723SOL    HW280003   2.036   5.315  10.834
92724SOL     OW80004   0.453   4.109  10.958
92724SOL    HW180005   0.466   4.199  10.929
92724SOL    HW280006   0.494   4.105  11.044
92725SOL     OW80007  13.225   4.815   1.855
92725SOL    HW180008  13.249   4.882   1.919
92725SOL    HW280009  13.294   4.819   1.789
92726SOL     OW80010   0.853  14.721   8.599
92726SOL    HW180011   0.942  14.756   8.601
92726SOL    HW280012   0.801  14.784   8.649
92727SOL     OW80013   4.156   0.283   5.748
92727SOL    HW180014   4.073   0.283   5.701
92727SOL    HW280015   4.222   0.300   5.680
92728SOL     OW80016   7.143   0.802   9.005
92728SOL    HW180017   7.126   0.722   9.055
92728SOL    HW280018   7.104   0.872   9.058
92729SOL     OW80019   9.647  12.363   8.560
92729SOL    HW180020   9.718  12.331   8.615
92729SOL    HW280021   9.679  12.349   8.470
92730SOL     OW80022   7.310   5.570  12.595
92730SOL    HW180023   7.305   5.659  12.561
92730SOL    HW280024   7.396   5.565  12.637
92731SOL     OW80025   4.150   0.089   7.335
92731SOL    HW180026   4.124   0.135   7.414
92731SOL    HW280027   4.070   0.047   7.303
92732SOL     OW80028  14.546   8.390  14.565
92732SOL    HW180029  14.560   8.326  14.636
92732SOL    HW280030  14.568   8.343  14.485
92733SOL     OW80031   1.578   9.098   4.070
92733SOL    HW180032   1.543   9.049   3.996
92733SOL    HW280033   1.604   9.182   4.033
92734SOL     OW80034   0.262  10.093  10.786
92734SOL    HW180035   0.210  10.053  10.855
92734SOL    HW280036   0.303  10.019  10.741
92735SOL     OW80037   1.962   3.930  10.000
92735SOL    HW180038   2.044   3.914   9.953
92735SOL    HW280039   1.940   3.845  10.039
92736SOL     OW80040  13.168  12.879   5.791
92736SOL    HW180041  13.228  12.812   5.759
92736SOL    HW280042  13.169  12.870   5.886
92737SOL     OW80043   1.930   8.618  10.450
92737SOL    HW180044   1.993   8.589  10.515
92737SOL    HW280045   1.950   8.711  10.437
92738SOL     OW80046   3.919  11.103  11.381
92738SOL    HW180047   3.965  11.102  11.297
92738SOL    HW280048   3.988  11.108  11.446
92739SOL     OW80049   8.802   4.324   0.847
92739SOL    HW180050   8.883   4.316   0.796
92739SOL    HW280051   8.793   4.240   0.891
92740SOL     OW80052  13.921   6.375   8.174
92740SOL    HW180053  13.856   6.355   8.242
92740SOL    HW280054  13.890   6.456   8.134
92741SOL     OW80055   1.567  10.650   3.430
92741SOL    HW180056   1.491  10.669   3.375
92741SOL    HW280057   1.593  10.561   3.406
92742SOL     OW80058   6.308   3.006   4.009
92742SOL    HW180059   6.241   3.017   4.077
92742SOL    HW280060   6.389   3.037   4.050
92743SOL     OW80061   9.939   3.386  13.282
92743SOL    HW180062   9.876   3.355  13.217
92743SOL    HW280063   9.996   3.446  13.233
92744SOL     OW80064  11.728   4.318   6.215
92744SOL    HW180065  11.815   4.317   6.255
92744SOL    HW280066  11.729   4.244   6.154
92745SOL     OW80067   0.298   4.693   5.992
92745SOL    HW180068   0.329   4.605   6.010
92745SOL    HW280069   0.319   4.743   6.071
92746SOL     OW80070  10.942  10.401  13.809
92746SOL    HW180071  10.870  10.413  13.747
92746SOL    HW280072  10.992  10.328  13.774
92747SOL     OW80073   8.482   0.618   7.528
92747SOL    HW180074   8.407   0.678   7.525
92747SOL    HW280075   8.469   0.569   7.610
92748SOL     OW80076   2.108   8.824   0.343
92748SOL    HW180077   2.162   8.888   0.298
92748SOL    HW280078   2.018   8.851   0.326
92749SOL     OW80079   0.425   5.129  12.212
92749SOL    HW180080   0.509   5.174  12.208
92749SOL    HW280081   0.396   5.141  12.303
92750SOL     OW80082   2.736  14.793   9.834
92750SOL    HW180083   2.679  14.805   9.910
92750SOL    HW280084   2.824  14.809   9.866
92751SOL     OW80085   3.075   0.440   9.803
92751SOL    HW180086   3.000   0.421   9.746
92751SOL    HW280087   3.151   0.425   9.747
92752SOL     OW80088   5.334   3.776  11.707
92752SOL    HW180089   5.357   3.801  11.796
92752SOL    HW280090   5.267   3.708  11.717
92753SOL     OW80091   2.725  12.498   8.602
92753SOL    HW180092   2.733  12.591   8.623
92753SOL    HW280093   2.811  12.474   8.565
92754SOL     OW80094   4.178   7.458   2.952
92754SOL    HW180095   4.139   7.539   2.984
92754SOL    HW280096   4.111   7.419   2.896
92755SOL     OW80097   1.305   7.237   2.360
92755SOL    HW180098   1.271   7.296   2.292
92755SOL    HW280099   1.261   7.154   2.343
92756SOL     OW80100   4.612   7.556   2.638
92756SOL    HW180101   4.568   7.641   2.636
92756SOL    HW280102   4.591   7.521   2.725
92757SOL     OW80103   8.506   3.389   9.383
92757SOL    HW180104   8.549   3.446   9.320
92757SOL    HW280105   8.553   3.306   9.377
92758SOL     OW80106   3.920   1.570   2.553
92758SOL    HW180107   3.867   1.549   2.476
92758SOL    HW280108   3.990   1.504   2.552
92759SOL     OW80109   7.479  11.542   3.398
92759SOL    HW180110   7.445  11.458   3.366
92759SOL    HW280111   7.538  11.518   3.469
92760SOL     OW80112   2.707  10.294  10.531
92760SOL    HW180113   2.701  10.338  10.616
92760SOL    HW280114   2.777  10.340  10.485
92761SOL     OW80115   7.476   3.377   4.434
92761SOL    HW180116   7.552   3.381   4.493
92761SOL    HW280117   7.467   3.284   4.414
92762SOL     OW80118  12.215   9.261  13.272
92762SOL    HW180119  12.284   9.247  13.208
92762SOL    HW280120  12.260   9.260  13.357
92763SOL     OW80121   7.163  14.066  13.252
92763SOL    HW180122   7.132  13.975  13.252
92763SOL    HW280123   7.248  14.062  13.208
92764SOL     OW80124   6.686   9.349   3.147
92764SOL    HW180125   6.687   9.417   3.079
92764SOL    HW280126   6.633   9.386   3.217
92765SOL     OW80127   5.771   5.132   3.667
92765SOL    HW180128   5.774   5.039   3.688
92765SOL    HW280129   5.685   5.161   3.697
92766SOL     OW80130  10.732   2.547   5.176
92766SOL    HW180131  10.807   2.518   5.228
92766SOL    HW280132  10.676   2.469   5.170
92767SOL     OW80133   2.970  12.480   8.506
92767SOL    HW180134   2.982  12.533   8.428
92767SOL    HW280135   3.027  12.404   8.492
92768SOL     OW80136   7.643   0.054   5.389
92768SOL    HW180137   7.712   0.025   5.330
92768SOL    HW280138   7.689   0.091   5.464
92769SOL     OW80139  10.809   1.047   9.080
92769SOL    HW180140  10.816   0.963   9.034
92769SOL    HW280141  10.748   1.098   9.028
92770SOL     OW80142   3.054  13.703   7.203
92770SOL    HW180143   3.069  13.663   7.117
92770SOL    HW280144   3.031  13.629   7.260
92771SOL     OW80145  11.223   2.636   3.697
92771SOL    HW180146  11.292   2.702   3.695
92771SOL    HW280147  11.146   2.683   3.728
92772SOL     OW80148   6.895  11.130   8.966
92772SOL    HW180149   6.840  11.162   8.894
92772SOL    HW280150   6.837  11.126   9.042
92773SOL     OW80151   5.626  12.059   4.122
92773SOL    HW180152   5.562  12.047   4.192
92773SOL    HW280153   5.687  12.125   4.157
92774SOL     OW80154   3.384   9.425   1.757
92774SOL    HW180155   3.354   9.446   1.846
92774SOL    HW280156   3.478   9.409   1.767
92775SOL     OW80157   9.810  11.535   3.708
92775SOL    HW180158   9.829  11.453   3.755
92775SOL    HW280159   9.894  11.561   3.671
92776SOL     OW80160   3.044  12.469   4.414
92776SOL    HW180161   3.102  12.473   4.338
92776SOL    HW280162   3.065  12.385   4.455
92777SOL     OW80163  13.521   7.695   4.961
92777SOL    HW180164  13.600   7.652   4.994
92777SOL    HW280165  13.455   7.679   5.029
92778SOL     OW80166  10.737   4.346   6.414
92778SOL    HW180167  10.832   4.342   6.406
92778SOL    HW280168  10.719   4.432   6.450
92779SOL     OW80169   0.328   7.399   3.530
92779SOL    HW180170   0.288   7.483   3.555
92779SOL    HW280171   0.254   7.343   3.509
92780SOL     OW80172  13.162  13.325   4.831
92780SOL    HW180173  13.134  13.383   4.760
92780SOL    HW280174  13.090  13.262   4.840
92781SOL     OW80175   7.170   1.761   6.222
92781SOL    HW180176   7.100   1.697   6.207
92781SOL    HW280177   7.232   1.745   6.151
92782SOL     OW80178   1.421   4.081  11.602
92782SOL    HW180179   1.396   4.066  11.511
92782SOL    HW280180   1.338   4.092  11.648
92783SOL     OW80181   5.331   4.245   2.935
92783SOL    HW180182   5.343   4.299   2.856
92783SOL    HW280183   5.261   4.290   2.983
92784SOL     OW80184   6.012  11.626  10.078
92784SOL    HW180185   6.039  11.627  10.170
92784SOL    HW280186   5.951  11.552  10.073
92785SOL     OW80187   6.327   5.044   8.462
92785SOL    HW180188   6.384   5.096   8.518
92785SOL    HW280189   6.307   5.102   8.388
92786SOL     OW80190   0.067   5.043  11.322
92786SOL    HW180191   0.000   5.013  11.260
92786SOL    HW280192   0.056   4.986  11.398
92787SOL     OW80193  10.262   9.520   2.615
92787SOL    HW180194  10.276   9.548   2.706
92787SOL    HW280195  10.168   9.503   2.609
92788SOL     OW80196   7.269  13.321  13.103
92788SOL    HW180197   7.267  13.239  13.153
92788SOL    HW280198   7.361  13.347  13.103
92789SOL     OW80199   8.060   6.418   2.432
92789SOL    HW180200   8.028   6.334   2.465
92789SOL    HW280201   7.990   6.479   2.450
92790SOL     OW80202   7.052   4.026   2.489
92790SOL    HW180203   7.022   3.935   2.495
92790SOL    HW280204   7.076   4.037   2.397
92791SOL     OW80205   8.443   7.813   3.946
92791SOL    HW180206   8.421   7.906   3.941
92791SOL    HW280207   8.363   7.771   3.977
92792SOL     OW80208  11.873  12.635   9.792
92792SOL    HW180209  11.946  12.632   9.730
92792SOL    HW280210  11.794  12.630   9.738
92793SOL     OW80211  12.880   7.757  14.224
92793SOL    HW180212  12.795   7.718  14.244
92793SOL    HW280213  12.942   7.685  14.232
92794SOL     OW80214   9.408   6.260  11.072
92794SOL    HW180215   9.468   6.333  11.061
92794SOL    HW280216   9.375   6.270  11.162
92795SOL     OW80217   6.083  12.817   8.506
92795SOL    HW180218   6.050  12.806   8.595
92795SOL    HW280219   6.114  12.730   8.480
92796SOL     OW80220  11.288  10.720   6.230
92796SOL    HW180221  11.317  10.654   6.293
92796SOL    HW280222  11.194  10.729   6.246
92797SOL     OW80223   2.806   7.717  10.518
92797SOL    HW180224   2.780   7.648  10.457
92797SOL    HW280225   2.769   7.797  10.482
92798SOL     OW80226   3.009   4.330   0.048
92798SOL    HW180227   2.928   4.280   0.045
92798SOL    HW280228   3.024   4.358  14.831
92799SOL     OW80229   7.062   7.117   3.095
92799SOL    HW180230   6.972   7.143   3.112
92799SOL    HW280231   7.057   7.024   3.074
92800SOL     OW80232  12.497  14.458   3.131
92800SOL    HW180233  12.547  14.533   3.099
92800SOL    HW280234  12.550  14.382   3.109
92801SOL     OW80235   7.013  11.149  13.810
92801SOL    HW180236   7.048  11.125  13.896
92801SOL    HW280237   6.919  11.153  13.822
92802SOL     OW80238  13.508  13.943  11.957
92802SOL    HW180239  13.577  13.926  11.893
92802SOL    HW280240  13.431  13.964  11.905
92803SOL     OW80241  14.809   3.398   7.794
92803SOL    HW180242  14.836   3.319   7.746
92803SOL    HW280243  14.862   3.468   7.756
92804SOL     OW80244  10.933  11.590   1.390
92804SOL    HW180245  10.970  11.608   1.304
92804SOL    HW280246  11.008  11.582   1.448
92805SOL     OW80247   4.213   2.758   5.238
92805SOL    HW180248   4.263   2.743   5.158
92805SOL    HW280249   4.126   2.725   5.219
92806SOL     OW80250  11.054   6.340   2.359
92806SOL    HW180251  10.989   6.285   2.402
92806SOL    HW280252  11.138   6.313   2.397
92807SOL     OW80253   0.032   9.764  13.873
92807SOL    HW180254  14.869   9.690  13.825
92807SOL    HW280255   0.125   9.766  13.848
92808SOL     OW80256  10.417  13.429  13.103
92808SOL    HW180257  10.504  13.415  13.068
92808SOL    HW280258  10.407  13.524  13.104
92809SOL     OW80259   1.249  10.584   1.178
92809SOL    HW180260   1.247  10.679   1.166
92809SOL    HW280261   1.261  10.549   1.089
92810SOL     OW80262   6.475   4.137   8.921
92810SOL    HW180263   6.554   4.110   8.875
92810SOL    HW280264   6.499   4.217   8.967
92811SOL     OW80265   3.386   3.412  10.558
92811SOL    HW180266   3.325   3.458  10.616
92811SOL    HW280267   3.406   3.330  10.603
92812SOL     OW80268   4.042   8.232   9.283
92812SOL    HW180269   3.985   8.183   9.222
92812SOL    HW280270   4.128   8.231   9.242
92813SOL     OW80271   7.165   7.301  11.161
92813SOL    HW180272   7.127   7.237  11.102
92813SOL    HW280273   7.110   7.379  11.151
92814SOL     OW80274  11.101  14.091   9.731
92814SOL    HW180275  11.186  14.135   9.729
92814SOL    HW280276  11.070  14.095   9.641
92815SOL     OW80277  11.881  13.583  12.316
92815SOL    HW180278  11.813  13.647  12.294
92815SOL    HW280279  11.837  13.498  12.307
92816SOL     OW80280   8.584  14.321  10.796
92816SOL    HW180281   8.623  14.248  10.748
92816SOL    HW280282   8.507  14.346  10.744
92817SOL     OW80283  14.576   7.212   2.693
92817SOL    HW180284  14.587   7.126   2.651
92817SOL    HW280285  14.647   7.216   2.757
92818SOL     OW80286  11.774  11.267   6.100
92818SOL    HW180287  11.806  11.184   6.066
92818SOL    HW280288  11.679  11.264   6.087
92819SOL     OW80289   6.042   6.780   9.240
92819SOL    HW180290   6.007   6.785   9.151
92819SOL    HW280291   6.047   6.871   9.269
92820SOL     OW80292   6.114  13.440   3.047
92820SOL    HW180293   6.059  13.460   2.971
92820SOL    HW280294   6.203  13.439   3.012
92821SOL     OW80295  10.527   9.083   4.210
92821SOL    HW180296  10.528   9.026   4.133
92821SOL    HW280297  10.595   9.047   4.267
92822SOL     OW80298   4.809  11.368   9.560
92822SOL    HW180299   4.743  11.318   9.608
92822SOL    HW280300   4.781  11.459   9.569
92823SOL     OW80301   2.964   9.223   6.081
92823SOL    HW180302   2.969   9.267   5.996
92823SOL    HW280303   2.939   9.292   6.143
92824SOL     OW80304  10.349  10.197   8.701
92824SOL    HW180305  10.431  10.220   8.743
92824SOL    HW280306  10.316  10.279   8.664
92825SOL     OW80307   6.359   2.666  11.785
92825SOL    HW180308   6.410   2.738  11.822
92825SOL    HW280309   6.318   2.703  11.706
92826SOL     OW80310   7.726   5.176   4.749
92826SOL    HW180311   7.774   5.234   4.689
92826SOL    HW280312   7.691   5.234   4.816
92827SOL     OW80313   4.749   6.396  10.683
92827SOL    HW180314   4.801   6.428  10.608
92827SOL    HW280315   4.787   6.311  10.703
92828SOL     OW80316  14.357   0.238  10.170
92828SOL    HW180317  14.347   0.324  10.211
92828SOL    HW280318  14.440   0.204  10.205
92829SOL     OW80319  11.734  11.522   9.703
92829SOL    HW180320  11.690  11.531   9.619
92829SOL    HW280321  11.827  11.520   9.681
92830SOL     OW80322   7.722   4.840   4.939
92830SOL    HW180323   7.703   4.748   4.957
92830SOL    HW280324   7.809   4.855   4.976
92831SOL     OW80325  10.338   4.430   7.167
92831SOL    HW180326  10.244   4.411   7.162
92831SOL    HW280327  10.368   4.380   7.243
92832SOL     OW80328   0.932   6.306   8.000
92832SOL    HW180329   0.929   6.220   7.959
92832SOL    HW280330   0.994   6.356   7.947
92833SOL     OW80331   4.199   0.056   0.154
92833SOL    HW180332   4.242  14.846   0.177
92833SOL    HW280333   4.118   0.029   0.111
92834SOL     OW80334  13.679   9.421  10.749
92834SOL    HW180335  13.767   9.448  10.720
92834SOL    HW280336  13.659   9.344  10.695
92835SOL     OW80337   7.214  14.830   9.474
92835SOL    HW180338   7.175   0.015   9.539
92835SOL    HW280339   7.298  14.870   9.454
92836SOL     OW80340   8.151   2.320   3.875
92836SOL    HW180341   8.098   2.378   3.930
92836SOL    HW280342   8.186   2.255   3.936
92837SOL     OW80343   0.822   5.310   1.886
92837SOL    HW180344   0.858   5.222   1.877
92837SOL    HW280345   0.897   5.368   1.872
92838SOL     OW80346   3.183   9.576   8.331
92838SOL    HW180347   3.176   9.667   8.361
92838SOL    HW280348   3.187   9.525   8.412
92839SOL     OW80349  11.451  10.905  12.310
92839SOL    HW180350  11.408  10.861  12.238
92839SOL    HW280351  11.380  10.948  12.358
92840SOL     OW80352   5.871  10.341  14.261
92840SOL    HW180353   5.860  10.391  14.342
92840SOL    HW280354   5.924  10.398  14.205
92841SOL     OW80355  12.331   3.232   9.783
92841SOL    HW180356  12.329   3.140   9.808
92841SOL    HW280357  12.421   3.247   9.754
92842SOL     OW80358   5.636   5.225  13.567
92842SOL    HW180359   5.603   5.139  13.540
92842SOL    HW280360   5.622   5.227  13.662
92843SOL     OW80361   1.801  13.131  14.652
92843SOL    HW180362   1.709  13.121  14.675
92843SOL    HW280363   1.847  13.130  14.736
92844SOL     OW80364   8.233  11.721  14.271
92844SOL    HW180365   8.274  11.637  14.290
92844SOL    HW280366   8.168  11.733  14.341
92845SOL     OW80367   9.235   2.473   2.424
92845SOL    HW180368   9.144   2.445   2.434
92845SOL    HW280369   9.284   2.417   2.484
92846SOL     OW80370  14.857   9.167   4.534
92846SOL    HW180371  14.792   9.146   4.467
92846SOL    HW280372  14.806   9.201   4.607
92847SOL     OW80373  14.144  11.644  10.556
92847SOL    HW180374  14.154  11.549  10.560
92847SOL    HW280375  14.066  11.663  10.608
92848SOL     OW80376  11.744   9.034   4.241
92848SOL    HW180377  11.759   8.999   4.329
92848SOL    HW280378  11.746   9.129   4.252
92849SOL     OW80379  10.990  10.009  12.753
92849SOL    HW180380  10.934   9.934  12.733
92849SOL    HW280381  11.079   9.977  12.742
92850SOL     OW80382   5.021   5.027  12.534
92850SOL    HW180383   4.943   5.049  12.583
92850SOL    HW280384   5.080   4.988  12.599
92851SOL     OW80385  10.094   4.461   3.739
92851SOL    HW180386  10.134   4.544   3.765
92851SOL    HW280387  10.001   4.471   3.762
92852SOL     OW80388  12.642   6.029  11.782
92852SOL    HW180389  12.642   5.949  11.834
92852SOL    HW280390  12.656   6.099  11.846
92853SOL     OW80391   6.392   8.178  12.472
92853SOL    HW180392   6.329   8.109  12.450
92853SOL    HW280393   6.372   8.201  12.562
92854SOL     OW80394  13.584   5.810  13.106
92854SOL    HW180395  13.623   5.883  13.057
92854SOL    HW280396  13.529   5.765  13.042
92855SOL     OW80397   1.010  14.806   7.856
92855SOL    HW180398   1.073  14.813   7.927
92855SOL    HW280399   0.996  14.712   7.844
92856SOL     OW80400   6.283  13.100   9.358
92856SOL    HW180401   6.269  13.079   9.450
92856SOL    HW280402   6.342  13.175   9.359
92857SOL     OW80403   4.368   2.881  12.296
92857SOL    HW180404   4.348   2.803  12.243
92857SOL    HW280405   4.286   2.930  12.299
92858SOL     OW80406  12.034   1.986  13.736
92858SOL    HW180407  12.014   1.892  13.733
92858SOL    HW280408  12.129   1.990  13.735
92859SOL     OW80409  13.771  13.089   3.488
92859SOL    HW180410  13.716  13.024   3.531
92859SOL    HW280411  13.824  13.126   3.558
92860SOL     OW80412   6.525   0.957  13.948
92860SOL    HW180413   6.612   0.937  13.912
92860SOL    HW280414   6.541   0.978  14.040
92861SOL     OW80415   9.042   9.593   4.854
92861SOL    HW180416   9.089   9.521   4.812
92861SOL    HW280417   8.961   9.553   4.885
92862SOL     OW80418  10.400  12.136   7.699
92862SOL    HW180419  10.476  12.179   7.661
92862SOL    HW280420  10.407  12.154   7.793
92863SOL     OW80421   5.095  10.907   7.902
92863SOL    HW180422   5.121  10.925   7.992
92863SOL    HW280423   5.048  10.986   7.874
92864SOL     OW80424  12.387  14.157   2.720
92864SOL    HW180425  12.356  14.244   2.696
92864SOL    HW280426  12.482  14.164   2.722
92865SOL     OW80427  13.546  13.684   2.849
92865SOL    HW180428  13.513  13.629   2.920
92865SOL    HW280429  13.623  13.637   2.817
92866SOL     OW80430   0.721   5.000  10.868
92866SOL    HW180431   0.658   4.954  10.923
92866SOL    HW280432   0.689   4.989  10.779
92867SOL     OW80433   3.814  10.939  12.525
92867SOL    HW180434   3.850  10.864  12.479
92867SOL    HW280435   3.761  10.984  12.459
92868SOL     OW80436  10.894   2.813   4.895
92868SOL    HW180437  10.821   2.812   4.956
92868SOL    HW280438  10.856   2.838   4.811
92869SOL     OW80439  13.721   6.798   6.831
92869SOL    HW180440  13.672   6.844   6.898
92869SOL    HW280441  13.685   6.830   6.748
92870SOL     OW80442  14.201   0.190  14.705
92870SOL    HW180443  14.162   0.157  14.623
92870SOL    HW280444  14.278   0.135  14.718
92871SOL     OW80445   8.613  11.019   7.824
92871SOL    HW180446   8.550  10.951   7.846
92871SOL    HW280447   8.560  11.094   7.796
92872SOL     OW80448   2.443   6.322   2.944
92872SOL    HW180449   2.413   6.291   3.030
92872SOL    HW280450   2.537   6.308   2.945
92873SOL     OW80451   2.876   7.923   5.972
92873SOL    HW180452   2.960   7.916   6.018
92873SOL    HW280453   2.900   7.947   5.882
92874SOL     OW80454  13.986   6.072   6.054
92874SOL    HW180455  14.035   6.039   5.978
92874SOL    HW280456  14.002   6.166   6.054
92875SOL     OW80457  14.624   0.215  11.507
92875SOL    HW180458  14.689   0.265  11.456
92875SOL    HW280459  14.659   0.216  11.596
92876SOL     OW80460   5.644  12.608   1.163
92876SOL    HW180461   5.577  12.571   1.220
92876SOL    HW280462   5.655  12.698   1.193
92877SOL     OW80463   3.519   9.308   8.072
92877SOL    HW180464   3.523   9.401   8.094
92877SOL    HW280465   3.576   9.266   8.136
92878SOL     OW80466  10.551   9.741  13.352
92878SOL    HW180467  10.617   9.705  13.293
92878SOL    HW280468  10.580   9.830  13.369
92879SOL     OW80469   5.119   7.951   3.922
92879SOL    HW180470   5.131   8.028   3.978
92879SOL    HW280471   5.082   7.986   3.841
92880SOL     OW80472   5.868   5.528   1.916
92880SOL    HW180473   5.835   5.442   1.943
92880SOL    HW280474   5.929   5.553   1.986
92881SOL     OW80475  12.659   7.425   1.995
92881SOL    HW180476  12.574   7.384   1.976
92881SOL    HW280477  12.637   7.506   2.041
92882SOL     OW80478   2.821   3.668  14.816
92882SOL    HW180479   2.886   3.731  14.784
92882SOL    HW280480   2.788   3.626  14.737
92883SOL     OW80481   1.545   8.955  14.287
92883SOL    HW180482   1.585   8.906  14.215
92883SOL    HW280483   1.556   9.047  14.262
92884SOL     OW80484   2.805  10.834   3.210
92884SOL    HW180485   2.826  10.819   3.118
92884SOL    HW280486   2.760  10.918   3.211
92885SOL     OW80487  10.511   2.265   9.290
92885SOL    HW180488  10.473   2.352   9.272
92885SOL    HW280489  10.565   2.247   9.213
92886SOL     OW80490  14.832   7.108  11.846
92886SOL    HW180491  14.852   7.190  11.800
92886SOL    HW280492   0.022   7.045  11.812
92887SOL     OW80493  13.137   6.723  14.731
92887SOL    HW180494  13.152   6.688  14.819
92887SOL    HW280495  13.220   6.766  14.708
92888SOL     OW80496   7.716  13.272   7.191
92888SOL    HW180497   7.624  13.244   7.187
92888SOL    HW280498   7.728  13.302   7.282
92889SOL     OW80499  12.236   0.733   7.848
92889SOL    HW180500  12.189   0.799   7.898
92889SOL    HW280501  12.240   0.657   7.906
92890SOL     OW80502   4.405  10.260  12.953
92890SOL    HW180503   4.463  10.333  12.932
92890SOL    HW280504   4.419  10.244  13.046
92891SOL     OW80505   5.391  13.605   5.570
92891SOL    HW180506   5.457  13.553   5.615
92891SOL    HW280507   5.437  13.645   5.497
92892SOL     OW80508   6.056   8.407  12.290
92892SOL    HW180509   6.031   8.354  12.214
92892SOL    HW280510   6.118   8.471  12.255
92893SOL     OW80511   6.913   6.351  12.862
92893SOL    HW180512   6.904   6.259  12.839
92893SOL    HW280513   6.985   6.353  12.925
92894SOL     OW80514   0.804   3.116  14.616
92894SOL    HW180515   0.842   3.116  14.528
92894SOL    HW280516   0.795   3.209  14.638
92895SOL     OW80517   5.030   9.814  12.286
92895SOL    HW180518   5.112   9.831  12.332
92895SOL    HW280519   4.979   9.893  12.299
92896SOL     OW80520   4.069   0.125   5.445
92896SOL    HW180521   4.040   0.207   5.406
92896SOL    HW280522   4.150   0.104   5.398
92897SOL     OW80523   1.699   3.864   6.611
92897SOL    HW180524   1.703   3.866   6.707
92897SOL    HW280525   1.672   3.953   6.586
92898SOL     OW80526  13.504  11.097   4.176
92898SOL    HW180527  13.598  11.093   4.195
92898SOL    HW280528  13.486  11.189   4.160
92899SOL     OW80529   1.340  10.534   9.650
92899SOL    HW180530   1.352  10.476   9.725
92899SOL    HW280531   1.399  10.498   9.583
92900SOL     OW80532  11.465   4.044   3.701
92900SOL    HW180533  11.406   4.047   3.625
92900SOL    HW280534  11.410   4.068   3.775
92901SOL     OW80535   5.793   9.327   6.276
92901SOL    HW180536   5.743   9.296   6.351
92901SOL    HW280537   5.827   9.248   6.235
92902SOL     OW80538   8.270   3.156   9.433
92902SOL    HW180539   8.274   3.211   9.511
92902SOL    HW280540   8.177   3.153   9.410
92903SOL     OW80541   2.419   8.711   4.483
92903SOL    HW180542   2.378   8.626   4.497
92903SOL    HW280543   2.509   8.700   4.514
92904SOL     OW80544   1.656   1.941   5.687
92904SOL    HW180545   1.694   1.886   5.618
92904SOL    HW280546   1.598   1.882   5.735
92905SOL     OW80547   1.466  14.441   0.178
92905SOL    HW180548   1.558  14.420   0.164
92905SOL    HW280549   1.422  14.357   0.178
92906SOL     OW80550   9.424  12.771   6.915
92906SOL    HW180551   9.461  12.691   6.877
92906SOL    HW280552   9.451  12.769   7.007
92907SOL     OW80553  12.228  10.025  11.365
92907SOL    HW180554  12.253   9.970  11.438
92907SOL    HW280555  12.132  10.032  11.371
92908SOL     OW80556   2.351  14.182   0.154
92908SOL    HW180557   2.396  14.143   0.079
92908SOL    HW280558   2.419  14.193   0.220
92909SOL     OW80559  14.108  10.194   6.660
92909SOL    HW180560  14.025  10.147   6.666
92909SOL    HW280561  14.151  10.157   6.582
92910SOL     OW80562  13.543   4.377  11.100
92910SOL    HW180563  13.469   4.401  11.155
92910SOL    HW280564  13.609   4.445  11.117
92911SOL     OW80565   0.836   9.623  14.700
92911SOL    HW180566   0.758   9.581  14.665
92911SOL    HW280567   0.909   9.570  14.667
92912SOL     OW80568   4.415  10.994   7.742
92912SOL    HW180569   4.374  10.945   7.671
92912SOL    HW280570   4.381  11.083   7.732
92913SOL     OW80571   8.562   9.631  14.415
92913SOL    HW180572   8.547   9.581  14.496
92913SOL    HW280573   8.539   9.721  14.437
92914SOL     OW80574  13.769   2.907  11.263
92914SOL    HW180575  13.699   2.919  11.199
92914SOL    HW280576  13.806   2.821  11.241
92915SOL     OW80577   5.216  12.721  13.109
92915SOL    HW180578   5.287  12.657  13.117
92915SOL    HW280579   5.230  12.781  13.182
92916SOL     OW80580   9.843   9.510   3.664
92916SOL    HW180581   9.761   9.559   3.668
92916SOL    HW280582   9.901   9.555   3.726
92917SOL     OW80583   4.234   9.146   8.091
92917SOL    HW180584   4.262   9.103   8.011
92917SOL    HW280585   4.141   9.125   8.098
92918SOL     OW80586   7.799   5.017   6.800
92918SOL    HW180587   7.867   4.962   6.762
92918SOL    HW280588   7.821   5.021   6.894
92919SOL     OW80589   3.489   7.590   6.545
92919SOL    HW180590   3.518   7.523   6.607
92919SOL    HW280591   3.428   7.644   6.595
92920SOL     OW80592   6.721  12.363   3.072
92920SOL    HW180593   6.652  12.297   3.061
92920SOL    HW280594   6.800  12.312   3.092
92921SOL     OW80595  10.120   3.871   6.838
92921SOL    HW180596  10.103   3.832   6.924
92921SOL    HW280597  10.037   3.910   6.812
92922SOL     OW80598   9.745   4.401   2.655
92922SOL    HW180599   9.711   4.430   2.570
92922SOL    HW280600   9.673   4.352   2.695
92923SOL     OW80601   3.409   9.951  11.532
92923SOL    HW180602   3.402  10.031  11.479
92923SOL    HW280603   3.412   9.982  11.622
92924SOL     OW80604   6.150   0.495   3.059
92924SOL    HW180605   6.170   0.520   3.149
92924SOL    HW280606   6.150   0.579   3.011
92925SOL     OW80607   4.593   6.495   1.961
92925SOL    HW180608   4.498   6.486   1.966
92925SOL    HW280609   4.610   6.520   1.870
92926SOL     OW80610   0.369   6.818   2.331
92926SOL    HW180611   0.438   6.798   2.268
92926SOL    HW280612   0.297   6.759   2.308
92927SOL     OW80613   4.195  11.372   8.327
92927SOL    HW180614   4.162  11.411   8.408
92927SOL    HW280615   4.117  11.338   8.283
92928SOL     OW80616   6.625   4.020  11.709
92928SOL    HW180617   6.616   3.929  11.680
92928SOL    HW280618   6.610   4.016  11.803
92929SOL     OW80619   6.727   9.961   3.998
92929SOL    HW180620   6.783   9.979   4.073
92929SOL    HW280621   6.678   9.883   4.022
92930SOL     OW80622   8.243   0.127   5.011
92930SOL    HW180623   8.300   0.110   5.086
92930SOL    HW280624   8.275   0.209   4.974
92931SOL     OW80625   9.722   8.315  12.485
92931SOL    HW180626   9.755   8.229  12.513
92931SOL    HW280627   9.695   8.302  12.394
92932SOL     OW80628  11.501   3.974   1.980
92932SOL    HW180629  11.440   4.041   1.951
92932SOL    HW280630  11.583   3.994   1.934
92933SOL     OW80631  13.900  10.214  10.046
92933SOL    HW180632  13.914  10.173   9.960
92933SOL    HW280633  13.984  10.254  10.067
92934SOL     OW80634   0.465  12.157  11.694
92934SOL    HW180635   0.492  12.071  11.725
92934SOL    HW280636   0.377  12.169  11.731
92935SOL     OW80637   8.413   5.719   8.135
92935SOL    HW180638   8.431   5.780   8.064
92935SOL    HW280639   8.490   5.662   8.138
92936SOL     OW80640   7.036  10.351   2.647
92936SOL    HW180641   7.010  10.417   2.582
92936SOL    HW280642   7.032  10.397   2.731
92937SOL     OW80643  12.343   7.240   3.461
92937SOL    HW180644  12.296   7.220   3.543
92937SOL    HW280645  12.324   7.332   3.445
92938SOL     OW80646  12.546  12.258   3.350
92938SOL    HW180647  12.614  12.192   3.334
92938SOL    HW280648  12.589  12.341   3.330
92939SOL     OW80649   7.267   1.339   4.084
92939SOL    HW180650   7.326   1.366   4.014
92939SOL    HW280651   7.276   1.244   4.087
92940SOL     OW80652   2.124  13.601  14.845
92940SOL    HW180653   2.181  13.633   0.043
92940SOL    HW280654   2.162  13.518  14.819
92941SOL     OW80655   0.560   4.520   3.492
92941SOL    HW180656   0.554   4.469   3.412
92941SOL    HW280657   0.508   4.471   3.556
92942SOL     OW80658   0.357  10.744  14.257
92942SOL    HW180659   0.436  10.695  14.280
92942SOL    HW280660   0.285  10.690  14.290
92943SOL     OW80661   6.957  13.463   3.653
92943SOL    HW180662   7.041  13.420   3.635
92943SOL    HW280663   6.915  13.470   3.568
92944SOL     OW80664   6.293   0.162   7.529
92944SOL    HW180665   6.208   0.118   7.527
92944SOL    HW280666   6.285   0.228   7.597
92945SOL     OW80667  11.894   3.792  12.395
92945SOL    HW180668  11.960   3.835  12.449
92945SOL    HW280669  11.828   3.860  12.379
92946SOL     OW80670  10.477  10.531   3.737
92946SOL    HW180671  10.477  10.591   3.812
92946SOL    HW280672  10.531  10.457   3.765
92947SOL     OW80673   1.466   7.550   3.013
92947SOL    HW180674   1.424   7.464   3.025
92947SOL    HW280675   1.465   7.563   2.918
92948SOL     OW80676   9.708  11.599   5.397
92948SOL    HW180677   9.772  11.661   5.432
92948SOL    HW280678   9.677  11.551   5.475
92949SOL     OW80679   2.010   9.113  14.287
92949SOL    HW180680   2.068   9.187  14.307
92949SOL    HW280681   1.980   9.083  14.373
92950SOL     OW80682   6.220  10.026   3.842
92950SOL    HW180683   6.220  10.001   3.935
92950SOL    HW280684   6.312  10.028   3.818
92951SOL     OW80685   1.458   0.490  12.155
92951SOL    HW180686   1.365   0.510  12.149
92951SOL    HW280687   1.497   0.565  12.199
92952SOL     OW80688   2.029  11.515  11.375
92952SOL    HW180689   2.002  11.444  11.433
92952SOL    HW280690   1.952  11.571  11.367
92953SOL     OW80691   1.876   2.188  14.384
92953SOL    HW180692   1.800   2.215  14.436
92953SOL    HW280693   1.946   2.247  14.412
92954SOL     OW80694   7.437  10.888  11.372
92954SOL    HW180695   7.424  10.794  11.357
92954SOL    HW280696   7.500  10.892  11.443
92955SOL     OW80697   6.359  13.766   8.225
92955SOL    HW180698   6.398  13.785   8.310
92955SOL    HW280699   6.324  13.677   8.234
92956SOL     OW80700   1.487  10.659  11.282
92956SOL    HW180701   1.513  10.710  11.206
92956SOL    HW280702   1.423  10.714  11.327
92957SOL     OW80703   5.091  14.364  13.214
92957SOL    HW180704   5.110  14.451  13.250
92957SOL    HW280705   4.997  14.353  13.227
92958SOL     OW80706  14.557  11.045   9.971
92958SOL    HW180707  14.559  10.949   9.971
92958SOL    HW280708  14.580  11.070   9.881
92959SOL     OW80709  14.466  10.222   6.824
92959SOL    HW180710  14.522  10.144   6.820
92959SOL    HW280711  14.393  10.196   6.879
92960SOL     OW80712   9.077  10.259  12.619
92960SOL    HW180713   8.990  10.230  12.592
92960SOL    HW280714   9.062  10.341  12.666
92961SOL     OW80715   3.025   3.207   7.735
92961SOL    HW180716   3.046   3.248   7.819
92961SOL    HW280717   3.109   3.205   7.688
92962SOL     OW80718  10.676   3.873   5.158
92962SOL    HW180719  10.654   3.783   5.181
92962SOL    HW280720  10.653   3.880   5.065
92963SOL     OW80721  13.199   0.735  13.070
92963SOL    HW180722  13.199   0.687  13.153
92963SOL    HW280723  13.176   0.669  13.004
92964SOL     OW80724   0.794   3.051  14.138
92964SOL    HW180725   0.774   2.977  14.081
92964SOL    HW280726   0.830   3.117  14.078
92965SOL     OW80727   8.504  14.844  13.916
92965SOL    HW180728   8.573  14.790  13.877
92965SOL    HW280729   8.450  14.782  13.965
92966SOL     OW80730   5.781  10.942   9.944
92966SOL    HW180731   5.868  10.943   9.903
92966SOL    HW280732   5.753  11.033   9.944
92967SOL     OW80733   3.061  14.318  12.158
92967SOL    HW180734   3.083  14.250  12.222
92967SOL    HW280735   2.985  14.362  12.196
92968SOL     OW80736  11.904  12.262   2.564
92968SOL    HW180737  11.828  12.206   2.552
92968SOL    HW280738  11.975  12.203   2.589
92969SOL     OW80739   6.684  11.203   4.446
92969SOL    HW180740   6.775  11.200   4.475
92969SOL    HW280741   6.688  11.243   4.359
92970SOL     OW80742  11.825   7.849   0.906
92970SOL    HW180743  11.843   7.923   0.848
92970SOL    HW280744  11.847   7.881   0.993
92971SOL     OW80745   2.664   2.659   2.830
92971SOL    HW180746   2.597   2.666   2.762
92971SOL    HW280747   2.725   2.730   2.811
92972SOL     OW80748   5.877   1.867   2.937
92972SOL    HW180749   5.878   1.773   2.921
92972SOL    HW280750   5.944   1.902   2.879
92973SOL     OW80751  11.139   0.338   1.946
92973SOL    HW180752  11.060   0.294   1.915
92973SOL    HW280753  11.192   0.268   1.984
92974SOL     OW80754  10.997   3.318   9.063
92974SOL    HW180755  11.031   3.338   9.150
92974SOL    HW280756  10.947   3.237   9.075
92975SOL     OW80757   1.619   7.593   6.665
92975SOL    HW180758   1.565   7.526   6.624
92975SOL    HW280759   1.708   7.572   6.636
92976SOL     OW80760   5.337   2.110  12.555
92976SOL    HW180761   5.289   2.064  12.623
92976SOL    HW280762   5.284   2.100  12.476
92977SOL     OW80763  11.078   4.810   6.547
92977SOL    HW180764  11.012   4.819   6.615
92977SOL    HW280765  11.161   4.824   6.591
92978SOL     OW80766   9.942   7.123  13.420
92978SOL    HW180767  10.021   7.177  13.433
92978SOL    HW280768   9.870   7.178  13.453
92979SOL     OW80769   3.478   1.442   8.447
92979SOL    HW180770   3.510   1.426   8.535
92979SOL    HW280771   3.467   1.355   8.409
92980SOL     OW80772  10.970   4.126   0.922
92980SOL    HW180773  10.984   4.072   0.844
92980SOL    HW280774  11.004   4.212   0.898
92981SOL     OW80775  11.709   9.984   8.289
92981SOL    HW180776  11.696   9.899   8.332
92981SOL    HW280777  11.625  10.003   8.249
92982SOL     OW80778   1.550   1.168  12.640
92982SOL    HW180779   1.533   1.074  12.645
92982SOL    HW280780   1.643   1.174  12.617
92983SOL     OW80781   1.520  10.267   4.136
92983SOL    HW180782   1.615  10.280   4.136
92983SOL    HW280783   1.488  10.325   4.205
92984SOL     OW80784   9.508   6.561   8.876
92984SOL    HW180785   9.478   6.522   8.958
92984SOL    HW280786   9.485   6.654   8.883
92985SOL     OW80787  10.446   1.220   3.569
92985SOL    HW180788  10.365   1.269   3.587
92985SOL    HW280789  10.421   1.158   3.500
92986SOL     OW80790   8.100   2.779   3.341
92986SOL    HW180791   8.048   2.706   3.306
92986SOL    HW280792   8.110   2.758   3.434
92987SOL     OW80793   2.491   0.900   9.760
92987SOL    HW180794   2.397   0.909   9.774
92987SOL    HW280795   2.505   0.806   9.749
92988SOL     OW80796  10.764   6.994  10.104
92988SOL    HW180797  10.678   6.988  10.062
92988SOL    HW280798  10.773   7.086  10.128
92989SOL     OW80799  14.870   5.228   4.821
92989SOL    HW180800   0.045   5.281   4.884
92989SOL    HW280801  14.837   5.290   4.756
92990SOL     OW80802   8.609   2.755   8.552
92990SOL    HW180803   8.559   2.831   8.521
92990SOL    HW280804   8.695   2.764   8.511
92991SOL     OW80805   9.187   8.402   1.302
92991SOL    HW180806   9.119   8.364   1.358
92991SOL    HW280807   9.269   8.369   1.338
92992SOL     OW80808   3.481   7.763   1.093
92992SOL    HW180809   3.426   7.750   1.015
92992SOL    HW280810   3.550   7.697   1.085
92993SOL     OW80811   4.581  13.378   9.046
92993SOL    HW180812   4.598  13.342   8.959
92993SOL    HW280813   4.635  13.457   9.051
92994SOL     OW80814  10.482   4.974   3.243
92994SOL    HW180815  10.477   4.935   3.155
92994SOL    HW280816  10.442   4.908   3.300
92995SOL     OW80817  11.006   9.725   0.274
92995SOL    HW180818  11.072   9.669   0.314
92995SOL    HW280819  10.929   9.668   0.264
92996SOL     OW80820  13.409   3.577   8.894
92996SOL    HW180821  13.365   3.517   8.834
92996SOL    HW280822  13.345   3.645   8.911
92997SOL     OW80823  11.317   3.769   9.711
92997SOL    HW180824  11.399   3.813   9.736
92997SOL    HW280825  11.344   3.680   9.690
92998SOL     OW80826  13.447  11.825  11.268
92998SOL    HW180827  13.441  11.892  11.337
92998SOL    HW280828  13.540  11.823  11.246
92999SOL     OW80829  11.032  11.363  14.107
92999SOL    HW180830  11.110  11.406  14.071
92999SOL    HW280831  10.985  11.433  14.153
93000SOL     OW80832   0.130   8.150  14.353
93000SOL    HW180833   0.216   8.182  14.383
93000SOL    HW280834   0.077   8.229  14.346
93001SOL     OW80835   4.582   3.427   5.175
93001SOL    HW180836   4.525   3.361   5.215
93001SOL    HW280837   4.525   3.471   5.111
93002SOL     OW80838   5.374  10.695   5.406
93002SOL    HW180839   5.395  10.607   5.374
93002SOL    HW280840   5.281  10.705   5.386
93003SOL     OW80841   4.669   8.607   6.374
93003SOL    HW180842   4.682   8.654   6.292
93003SOL    HW280843   4.662   8.675   6.440
93004SOL     OW80844  12.142   3.803  14.771
93004SOL    HW180845  12.070   3.740  14.776
93004SOL    HW280846  12.173   3.796  14.681
93005SOL     OW80847   0.392   2.847   4.722
93005SOL    HW180848   0.414   2.833   4.630
93005SOL    HW280849   0.299   2.869   4.722
93006SOL     OW80850  11.686  11.458   8.339
93006SOL    HW180851  11.724  11.545   8.331
93006SOL    HW280852  11.659  11.436   8.249
93007SOL     OW80853   5.365   5.586  12.773
93007SOL    HW180854   5.309   5.512  12.798
93007SOL    HW280855   5.329   5.616  12.690
93008SOL     OW80856  12.124  12.878   9.609
93008SOL    HW180857  12.200  12.896   9.552
93008SOL    HW280858  12.148  12.917   9.693
93009SOL     OW80859   3.172   7.563   7.273
93009SOL    HW180860   3.223   7.560   7.354
93009SOL    HW280861   3.224   7.512   7.211
93010SOL     OW80862  10.290  11.295  11.933
93010SOL    HW180863  10.205  11.285  11.976
93010SOL    HW280864  10.351  11.251  11.993
93011SOL     OW80865   3.957   4.034   7.033
93011SOL    HW180866   3.989   4.036   7.123
93011SOL    HW280867   3.863   4.052   7.041
93012SOL     OW80868  13.388   4.149  14.308
93012SOL    HW180869  13.331   4.072  14.304
93012SOL    HW280870  13.428   4.152  14.221
93013SOL     OW80871  11.858   1.788   6.325
93013SOL    HW180872  11.810   1.815   6.403
93013SOL    HW280873  11.950   1.797   6.349
93014SOL     OW80874  13.165  13.568   5.932
93014SOL    HW180875  13.072  13.574   5.908
93014SOL    HW280876  13.185  13.475   5.928
93015SOL     OW80877   9.445   6.652   0.723
93015SOL    HW180878   9.481   6.673   0.637
93015SOL    HW280879   9.363   6.701   0.727
93016SOL     OW80880   0.936   7.053  11.595
93016SOL    HW180881   0.909   6.969  11.558
93016SOL    HW280882   1.002   7.030  11.660
93017SOL     OW80883   0.900   2.010   9.195
93017SOL    HW180884   0.820   1.961   9.176
93017SOL    HW280885   0.970   1.944   9.195
93018SOL     OW80886   8.992   1.681   7.086
93018SOL    HW180887   8.904   1.685   7.048
93018SOL    HW280888   9.046   1.645   7.016
93019SOL     OW80889  13.866   8.415   5.958
93019SOL    HW180890  13.794   8.379   6.010
93019SOL    HW280891  13.944   8.372   5.991
93020SOL     OW80892   8.377  12.475   2.444
93020SOL    HW180893   8.308  12.468   2.510
93020SOL    HW280894   8.382  12.389   2.404
93021SOL     OW80895  14.568   1.570   5.845
93021SOL    HW180896  14.489   1.516   5.854
93021SOL    HW280897  14.616   1.556   5.926
93022SOL     OW80898   4.984  11.610   7.124
93022SOL    HW180899   4.910  11.670   7.114
93022SOL    HW280900   5.056  11.666   7.151
93023SOL     OW80901  11.701   9.346  11.428
93023SOL    HW180902  11.623   9.328  11.481
93023SOL    HW280903  11.673   9.414  11.367
93024SOL     OW80904   0.559   5.973   3.016
93024SOL    HW180905   0.467   5.966   3.043
93024SOL    HW280906   0.557   6.034   2.942
93025SOL     OW80907   8.846   8.462   4.306
93025SOL    HW180908   8.764   8.449   4.355
93025SOL    HW280909   8.899   8.385   4.326
93026SOL     OW80910   5.281  12.226   4.427
93026SOL    HW180911   5.244  12.148   4.386
93026SOL    HW280912   5.231  12.298   4.389
93027SOL     OW80913   8.915   9.419  13.088
93027SOL    HW180914   8.936   9.495  13.034
93027SOL    HW280915   8.826   9.436  13.120
93028SOL     OW80916   2.955   1.354   0.358
93028SOL    HW180917   2.915   1.392   0.280
93028SOL    HW280918   2.896   1.283   0.382
93029SOL     OW80919  14.677   3.848  10.403
93029SOL    HW180920  14.603   3.865  10.461
93029SOL    HW280921  14.752   3.889  10.447
93030SOL     OW80922   6.775  13.242   3.220
93030SOL    HW180923   6.871  13.235   3.212
93030SOL    HW280924   6.742  13.203   3.140
93031SOL     OW80925  14.121   0.931   5.457
93031SOL    HW180926  14.083   0.884   5.532
93031SOL    HW280927  14.052   0.931   5.391
93032SOL     OW80928   1.340   9.189   5.489
93032SOL    HW180929   1.372   9.245   5.418
93032SOL    HW280930   1.258   9.153   5.456
93033SOL     OW80931   7.759  12.911   2.310
93033SOL    HW180932   7.776  12.831   2.359
93033SOL    HW280933   7.666  12.905   2.285
93034SOL     OW80934  12.735   3.427   3.615
93034SOL    HW180935  12.791   3.490   3.659
93034SOL    HW280936  12.647   3.463   3.622
93035SOL     OW80937  12.658  14.609   1.546
93035SOL    HW180938  12.606  14.530   1.532
93035SOL    HW280939  12.601  14.667   1.596
93036SOL     OW80940   0.287   8.822   6.120
93036SOL    HW180941   0.280   8.910   6.158
93036SOL    HW280942   0.375   8.792   6.145
93037SOL     OW80943   8.971  11.871  10.030
93037SOL    HW180944   9.045  11.931  10.035
93037SOL    HW280945   9.005  11.795   9.984
93038SOL     OW80946   1.379   2.546  11.966
93038SOL    HW180947   1.303   2.587  11.924
93038SOL    HW280948   1.357   2.546  12.059
93039SOL     OW80949  12.032   4.116   3.682
93039SOL    HW180950  12.011   4.089   3.771
93039SOL    HW280951  11.991   4.050   3.626
93040SOL     OW80952   3.304  13.238   3.074
93040SOL    HW180953   3.375  13.212   3.015
93040SOL    HW280954   3.349  13.277   3.149
93041SOL     OW80955   0.081  13.296   9.252
93041SOL    HW180956   0.030  13.301   9.171
93041SOL    HW280957   0.078  13.204   9.278
93042SOL     OW80958   3.115   0.294   3.363
93042SOL    HW180959   3.188   0.355   3.371
93042SOL    HW280960   3.154   0.213   3.332
93043SOL     OW80961   7.004   4.377   5.948
93043SOL    HW180962   7.028   4.315   5.880
93043SOL    HW280963   6.908   4.376   5.948
93044SOL     OW80964  11.233   0.000   8.580
93044SOL    HW180965  11.313   0.039   8.615
93044SOL    HW280966  11.186   0.074   8.539
93045SOL     OW80967   5.763   3.597   2.030
93045SOL    HW180968   5.810   3.562   1.955
93045SOL    HW280969   5.768   3.692   2.019
93046SOL     OW80970   9.123   9.488  12.245
93046SOL    HW180971   9.119   9.504  12.150
93046SOL    HW280972   9.189   9.418  12.254
93047SOL     OW80973  14.219  10.533   0.327
93047SOL    HW180974  14.200  10.570   0.413
93047SOL    HW280975  14.142  10.480   0.307
93048SOL     OW80976   8.238   5.707  13.180
93048SOL    HW180977   8.158   5.713  13.232
93048SOL    HW280978   8.293   5.778  13.213
93049SOL     OW80979   1.799   9.911   8.114
93049SOL    HW180980   1.862   9.871   8.174
93049SOL    HW280981   1.727   9.939   8.170
93050SOL     OW80982   2.016   7.970   5.106
93050SOL    HW180983   2.054   7.904   5.164
93050SOL    HW280984   2.012   8.049   5.158
93051SOL     OW80985   3.016   2.849  11.536
93051SOL    HW180986   3.038   2.941  11.521
93051SOL    HW280987   2.993   2.844  11.628
93052SOL     OW80988   7.036   1.372  14.448
93052SOL    HW180989   6.962   1.371  14.387
93052SOL    HW280990   7.092   1.300  14.419
93053SOL     OW80991  14.535   8.927   3.564
93053SOL    HW180992  14.602   8.979   3.609
93053SOL    HW280993  14.453   8.973   3.580
93054SOL     OW80994   8.734   2.803   7.322
93054SOL    HW180995   8.798   2.808   7.392
93054SOL    HW280996   8.766   2.864   7.255
93055SOL     OW80997   7.584   2.729   1.256
93055SOL    HW180998   7.651   2.701   1.319
93055SOL    HW280999   7.532   2.651   1.239
93056SOL     OW81000   1.117   2.696   7.704
93056SOL    HW181001   1.193   2.732   7.658
93056SOL    HW281002   1.123   2.732   7.793
93057SOL     OW81003  11.840   9.517   8.078
93057SOL    HW181004  11.884   9.602   8.080
93057SOL    HW281005  11.907   9.455   8.108
93058SOL     OW81006   4.546   2.310  14.482
93058SOL    HW181007   4.476   2.267  14.530
93058SOL    HW281008   4.588   2.239  14.433
93059SOL     OW81009  10.894   7.066   8.285
93059SOL    HW181010  10.856   7.075   8.373
93059SOL    HW281011  10.977   7.112   8.290
93060SOL     OW81012  10.268  14.437   3.128
93060SOL    HW181013  10.228  14.375   3.189
93060SOL    HW281014  10.203  14.506   3.118
93061SOL     OW81015   2.184  14.362   0.014
93061SOL    HW181016   2.238  14.290   0.047
93061SOL    HW281017   2.097  14.324   0.003
93062SOL     OW81018  13.598   1.866  13.354
93062SOL    HW181019  13.527   1.802  13.361
93062SOL    HW281020  13.675   1.814  13.333
93063SOL     OW81021   1.455   5.739   0.321
93063SOL    HW181022   1.391   5.776   0.261
93063SOL    HW281023   1.512   5.685   0.265
93064SOL     OW81024   2.056  10.218   4.972
93064SOL    HW181025   2.068  10.312   4.984
93064SOL    HW281026   1.975  10.198   5.019
93065SOL     OW81027   1.271   3.176   2.362
93065SOL    HW181028   1.285   3.232   2.286
93065SOL    HW281029   1.247   3.235   2.433
93066SOL     OW81030   7.798  11.575   8.671
93066SOL    HW181031   7.807  11.480   8.672
93066SOL    HW281032   7.748  11.595   8.751
93067SOL     OW81033  12.027  12.346   7.253
93067SOL    HW181034  12.052  12.416   7.313
93067SOL    HW281035  11.979  12.391   7.183
93068SOL     OW81036  12.975  12.887   3.912
93068SOL    HW181037  12.979  12.797   3.945
93068SOL    HW281038  12.938  12.879   3.824
93069SOL     OW81039   2.243  11.735   1.381
93069SOL    HW181040   2.325  11.688   1.399
93069SOL    HW281041   2.238  11.801   1.450
93070SOL     OW81042   4.073   7.196   3.446
93070SOL    HW181043   4.105   7.279   3.410
93070SOL    HW281044   3.990   7.220   3.488
93071SOL     OW81045   9.245   8.509   3.724
93071SOL    HW181046   9.183   8.494   3.796
93071SOL    HW281047   9.331   8.492   3.761
93072SOL     OW81048   1.785   7.716   5.460
93072SOL    HW181049   1.726   7.656   5.506
93072SOL    HW281050   1.815   7.667   5.383
93073SOL     OW81051  11.695  10.033  14.746
93073SOL    HW181052  11.609  10.042  14.707
93073SOL    HW281053  11.738   9.965  14.694
93074SOL     OW81054  10.103  14.341  11.801
93074SOL    HW181055  10.127  14.434  11.797
93074SOL    HW281056  10.101  14.321  11.895
93075SOL     OW81057  14.624   8.379  10.367
93075SOL    HW181058  14.718   8.376  10.387
93075SOL    HW281059  14.588   8.304  10.414
93076SOL     OW81060   6.859  14.046   6.096
93076SOL    HW181061   6.823  13.968   6.053
93076SOL    HW281062   6.801  14.117   6.070
93077SOL     OW81063   4.134   8.593   1.680
93077SOL    HW181064   4.195   8.521   1.667
93077SOL    HW281065   4.057   8.569   1.629
93078SOL     OW81066   8.068   1.104   9.792
93078SOL    HW181067   8.054   1.157   9.714
93078SOL    HW281068   8.161   1.083   9.790
93079SOL     OW81069   1.930   5.154   2.028
93079SOL    HW181070   1.985   5.209   2.084
93079SOL    HW281071   1.957   5.065   2.048
93080SOL     OW81072  14.167  10.211  10.959
93080SOL    HW181073  14.105  10.272  10.999
93080SOL    HW281074  14.157  10.225  10.865
93081SOL     OW81075  10.454   9.836   3.432
93081SOL    HW181076  10.409   9.837   3.347
93081SOL    HW281077  10.484   9.746   3.442
93082SOL     OW81078   0.240   1.344   1.985
93082SOL    HW181079   0.160   1.392   1.962
93082SOL    HW281080   0.212   1.284   2.054
93083SOL     OW81081   9.733   7.174   2.744
93083SOL    HW181082   9.694   7.153   2.828
93083SOL    HW281083   9.669   7.229   2.700
93084SOL     OW81084   2.244  10.310  11.528
93084SOL    HW181085   2.312  10.248  11.502
93084SOL    HW281086   2.166  10.281  11.480
93085SOL     OW81087   3.853  14.436   5.917
93085SOL    HW181088   3.947  14.443   5.936
93085SOL    HW281089   3.817  14.388   5.992
93086SOL     OW81090   9.114   6.905   9.656
93086SOL    HW181091   9.064   6.931   9.579
93086SOL    HW281092   9.050   6.904   9.727
93087SOL     OW81093  14.757  11.103  13.637
93087SOL    HW181094  14.664  11.100  13.660
93087SOL    HW281095  14.760  11.143  13.550
93088SOL     OW81096   6.155   7.777   1.999
93088SOL    HW181097   6.109   7.829   2.065
93088SOL    HW281098   6.090   7.715   1.967
93089SOL     OW81099  11.796   5.890  10.349
93089SOL    HW181100  11.840   5.972  10.325
93089SOL    HW281101  11.724   5.882  10.286
93090SOL     OW81102   0.833   8.916  14.218
93090SOL    HW181103   0.782   8.936  14.296
93090SOL    HW281104   0.890   8.993  14.206
93091SOL     OW81105  13.350   1.554   5.748
93091SOL    HW181106  13.427   1.554   5.806
93091SOL    HW281107  13.352   1.468   5.706
93092SOL     OW81108   4.874   7.480  13.561
93092SOL    HW181109   4.951   7.424  13.546
93092SOL    HW281110   4.869   7.488  13.656
93093SOL     OW81111   4.597   9.944  12.155
93093SOL    HW181112   4.691   9.965  12.152
93093SOL    HW281113   4.562   9.977  12.072
93094SOL     OW81114   6.275   3.691   4.201
93094SOL    HW181115   6.186   3.726   4.196
93094SOL    HW281116   6.273   3.612   4.147
93095SOL     OW81117   9.560  14.613   4.530
93095SOL    HW181118   9.542  14.627   4.437
93095SOL    HW281119   9.614  14.688   4.555
93096SOL     OW81120   3.189  10.522  10.924
93096SOL    HW181121   3.217  10.585  10.990
93096SOL    HW281122   3.270  10.490  10.885
93097SOL     OW81123   9.421  14.465   2.349
93097SOL    HW181124   9.380  14.379   2.339
93097SOL    HW281125   9.488  14.467   2.281
93098SOL     OW81126  12.229   2.681   4.571
93098SOL    HW181127  12.325   2.679   4.565
93098SOL    HW281128  12.200   2.627   4.497
93099SOL     OW81129   5.004   9.545   1.011
93099SOL    HW181130   4.943   9.585   0.949
93099SOL    HW281131   5.053   9.482   0.958
93100SOL     OW81132   3.528   9.479   8.488
93100SOL    HW181133   3.482   9.396   8.481
93100SOL    HW281134   3.614   9.457   8.524
93101SOL     OW81135  12.885   6.359   5.082
93101SOL    HW181136  12.866   6.381   4.991
93101SOL    HW281137  12.923   6.439   5.119
93102SOL     OW81138   9.161   5.210   5.331
93102SOL    HW181139   9.195   5.121   5.323
93102SOL    HW281140   9.104   5.207   5.408
93103SOL     OW81141   5.987   2.098  10.873
93103SOL    HW181142   6.069   2.124  10.832
93103SOL    HW281143   5.961   2.174  10.925
93104SOL     OW81144   9.453  14.273   2.847
93104SOL    HW181145   9.463  14.191   2.798
93104SOL    HW281146   9.395  14.326   2.791
93105SOL     OW81147   9.639  11.222  10.075
93105SOL    HW181148   9.591  11.226   9.992
93105SOL    HW281149   9.704  11.293  10.069
93106SOL     OW81150   2.850  11.442   1.431
93106SOL    HW181151   2.818  11.394   1.507
93106SOL    HW281152   2.843  11.379   1.359
93107SOL     OW81153   1.019   5.146   4.494
93107SOL    HW181154   0.926   5.166   4.485
93107SOL    HW281155   1.055   5.154   4.406
93108SOL     OW81156   7.558   1.555   7.997
93108SOL    HW181157   7.559   1.619   8.068
93108SOL    HW281158   7.545   1.607   7.918
93109SOL     OW81159   1.908   4.354   8.564
93109SOL    HW181160   1.834   4.327   8.617
93109SOL    HW281161   1.985   4.337   8.618
93110SOL     OW81162  10.405  14.601  12.706
93110SOL    HW181163  10.357  14.677  12.674
93110SOL    HW281164  10.423  14.620  12.798
93111SOL     OW81165   0.715   8.517   3.072
93111SOL    HW181166   0.656   8.586   3.043
93111SOL    HW281167   0.670   8.478   3.148
93112SOL     OW81168   0.721  11.123  10.922
93112SOL    HW181169   0.792  11.059  10.929
93112SOL    HW281170   0.746  11.176  10.846
93113SOL     OW81171   3.057   9.321   8.147
93113SOL    HW181172   3.072   9.385   8.216
93113SOL    HW281173   3.078   9.367   8.066
93114SOL     OW81174   9.049   8.390  12.313
93114SOL    HW181175   9.018   8.448  12.382
93114SOL    HW281176   8.970   8.366  12.265
93115SOL     OW81177   8.183   4.003  13.090
93115SOL    HW181178   8.096   4.020  13.127
93115SOL    HW281179   8.171   3.927  13.033
93116SOL     OW81180  11.177  11.255  14.500
93116SOL    HW181181  11.219  11.321  14.556
93116SOL    HW281182  11.092  11.294  14.478
93117SOL     OW81183   1.292  14.543   9.816
93117SOL    HW181184   1.286  14.513   9.726
93117SOL    HW281185   1.238  14.622   9.819
93118SOL     OW81186   5.926  10.141  12.064
93118SOL    HW181187   5.846  10.183  12.093
93118SOL    HW281188   5.911  10.048  12.079
93119SOL     OW81189  12.836  13.171   6.750
93119SOL    HW181190  12.860  13.157   6.841
93119SOL    HW281191  12.897  13.237   6.718
93120SOL     OW81192  13.248   9.150   2.214
93120SOL    HW181193  13.190   9.224   2.230
93120SOL    HW281194  13.241   9.134   2.120
93121SOL     OW81195   9.894   3.463   4.899
93121SOL    HW181196   9.910   3.414   4.819
93121SOL    HW281197   9.843   3.539   4.872
93122SOL     OW81198   2.741   5.572   6.844
93122SOL    HW181199   2.660   5.538   6.806
93122SOL    HW281200   2.781   5.623   6.773
93123SOL     OW81201  12.160   1.647   5.958
93123SOL    HW181202  12.109   1.725   5.941
93123SOL    HW281203  12.095   1.580   5.981
93124SOL     OW81204   0.706   2.938   1.096
93124SOL    HW181205   0.722   3.005   1.163
93124SOL    HW281206   0.754   2.969   1.019
93125SOL     OW81207   5.756   9.160   3.782
93125SOL    HW181208   5.759   9.235   3.723
93125SOL    HW281209   5.816   9.184   3.853
93126SOL     OW81210   2.215  11.458   5.140
93126SOL    HW181211   2.270  11.381   5.152
93126SOL    HW281212   2.151  11.433   5.073
93127SOL     OW81213   4.059  12.687   7.456
93127SOL    HW181214   4.120  12.648   7.518
93127SOL    HW281215   4.017  12.613   7.413
93128SOL     OW81216   2.051   5.567  11.271
93128SOL    HW181217   2.089   5.636  11.217
93128SOL    HW281218   1.979   5.532  11.218
93129SOL     OW81219  10.856   6.437   4.395
93129SOL    HW181220  10.900   6.384   4.462
93129SOL    HW281221  10.880   6.527   4.416
93130SOL     OW81222  13.416  11.524   1.909
93130SOL    HW181223  13.424  11.604   1.858
93130SOL    HW281224  13.428  11.454   1.846
93131SOL     OW81225   3.291  13.802   9.917
93131SOL    HW181226   3.323  13.861   9.848
93131SOL    HW281227   3.346  13.724   9.910
93132SOL     OW81228  11.192  10.866  12.805
93132SOL    HW181229  11.264  10.803  12.798
93132SOL    HW281230  11.174  10.871  12.899
93133SOL     OW81231   6.384   6.547  10.868
93133SOL    HW181232   6.415   6.558  10.778
93133SOL    HW281233   6.302   6.597  10.871
93134SOL     OW81234   9.074   3.385   3.240
93134SOL    HW181235   9.030   3.447   3.298
93134SOL    HW281236   9.076   3.429   3.155
93135SOL     OW81237  10.330   3.056   4.725
93135SOL    HW181238  10.254   3.105   4.756
93135SOL    HW281239  10.332   2.978   4.780
93136SOL     OW81240   6.371   0.841  14.395
93136SOL    HW181241   6.305   0.909  14.386
93136SOL    HW281242   6.449   0.877  14.353
93137SOL     OW81243   2.624   5.407   0.102
93137SOL    HW181244   2.692   5.424   0.168
93137SOL    HW281245   2.580   5.328   0.134
93138SOL     OW81246  11.134   1.290   3.057
93138SOL    HW181247  11.082   1.298   2.977
93138SOL    HW281248  11.222   1.314   3.030
93139SOL     OW81249   5.963  10.041   0.994
93139SOL    HW181250   5.925  10.011   0.911
93139SOL    HW281251   5.888  10.065   1.048
93140SOL     OW81252   9.257   3.454   6.862
93140SOL    HW181253   9.269   3.396   6.937
93140SOL    HW281254   9.340   3.449   6.814
93141SOL     OW81255  10.643   0.622   8.122
93141SOL    HW181256  10.690   0.628   8.205
93141SOL    HW281257  10.644   0.712   8.088
93142SOL     OW81258   2.833  10.305   6.335
93142SOL    HW181259   2.833  10.225   6.283
93142SOL    HW281260   2.795  10.371   6.277
93143SOL     OW81261   2.521  13.589   4.382
93143SOL    HW181262   2.476  13.649   4.442
93143SOL    HW281263   2.546  13.515   4.438
93144SOL     OW81264  12.037  13.533   8.298
93144SOL    HW181265  12.044  13.575   8.384
93144SOL    HW281266  12.034  13.439   8.318
93145SOL     OW81267   0.782   5.222  13.399
93145SOL    HW181268   0.820   5.138  13.423
93145SOL    HW281269   0.692   5.201  13.374
93146SOL     OW81270   9.310   7.111   8.322
93146SOL    HW181271   9.354   7.162   8.253
93146SOL    HW281272   9.231   7.161   8.342
93147SOL     OW81273  12.223  14.605   1.003
93147SOL    HW181274  12.214  14.587   1.097
93147SOL    HW281275  12.254  14.522   0.965
93148SOL     OW81276   1.510  10.924  10.017
93148SOL    HW181277   1.428  10.894   9.978
93148SOL    HW281278   1.560  10.960   9.943
93149SOL     OW81279   6.358  12.963   5.154
93149SOL    HW181280   6.392  12.930   5.071
93149SOL    HW281281   6.381  13.056   5.155
93150SOL     OW81282   4.928   0.557  12.667
93150SOL    HW181283   4.840   0.595  12.661
93150SOL    HW281284   4.927   0.505  12.747
93151SOL     OW81285  13.661  13.104  13.579
93151SOL    HW181286  13.589  13.120  13.517
93151SOL    HW281287  13.675  13.010  13.575
93152SOL     OW81288  10.336   4.208   7.732
93152SOL    HW181289  10.284   4.260   7.793
93152SOL    HW281290  10.329   4.119   7.764
93153SOL     OW81291   6.366   7.238   9.776
93153SOL    HW181292   6.434   7.207   9.836
93153SOL    HW281293   6.296   7.269   9.834
93154SOL     OW81294  13.365   6.058  14.061
93154SOL    HW181295  13.271   6.056  14.042
93154SOL    HW281296  13.385   5.970  14.093
93155SOL     OW81297   7.691   6.538   3.557
93155SOL    HW181298   7.612   6.591   3.549
93155SOL    HW281299   7.681   6.469   3.491
93156SOL     OW81300  11.310   9.944  11.977
93156SOL    HW181301  11.273  10.030  11.957
93156SOL    HW281302  11.331   9.947  12.070
93157SOL     OW81303  13.286   3.891  12.137
93157SOL    HW181304  13.339   3.833  12.192
93157SOL    HW281305  13.329   3.889  12.052
93158SOL     OW81306  12.051   9.536   4.638
93158SOL    HW181307  12.099   9.616   4.616
93158SOL    HW281308  11.963   9.550   4.603
93159SOL     OW81309  13.988  11.311  11.372
93159SOL    HW181310  14.021  11.243  11.313
93159SOL    HW281311  14.056  11.378  11.373
93160SOL     OW81312  11.789  10.394   5.603
93160SOL    HW181313  11.730  10.466   5.627
93160SOL    HW281314  11.753  10.318   5.648
93161SOL     OW81315  14.684  13.234   1.452
93161SOL    HW181316  14.724  13.283   1.524
93161SOL    HW281317  14.710  13.143   1.467
93162SOL     OW81318   6.660  14.262   5.967
93162SOL    HW181319   6.574  14.277   5.928
93162SOL    HW281320   6.711  14.218   5.899
93163SOL     OW81321   9.921  12.098   7.266
93163SOL    HW181322   9.852  12.161   7.285
93163SOL    HW281323   9.889  12.016   7.302
93164SOL     OW81324   0.409   1.382  11.392
93164SOL    HW181325   0.445   1.355  11.477
93164SOL    HW281326   0.345   1.450  11.414
93165SOL     OW81327  10.996  12.101  14.440
93165SOL    HW181328  10.913  12.112  14.393
93165SOL    HW281329  10.973  12.113  14.532
93166SOL     OW81330   2.004   2.490   8.079
93166SOL    HW181331   2.091   2.511   8.044
93166SOL    HW281332   1.943   2.521   8.011
93167SOL     OW81333   3.091   0.076  12.383
93167SOL    HW181334   3.135   0.075  12.298
93167SOL    HW281335   3.038   0.156  12.382
93168SOL     OW81336   5.934   7.919   5.997
93168SOL    HW181337   5.926   7.876   5.912
93168SOL    HW281338   5.937   8.013   5.977
93169SOL     OW81339   5.855   4.880  12.176
93169SOL    HW181340   5.815   4.935  12.109
93169SOL    HW281341   5.784   4.825  12.208
93170SOL     OW81342   9.262   3.504  12.551
93170SOL    HW181343   9.181   3.461  12.523
93170SOL    HW281344   9.332   3.448  12.518
93171SOL     OW81345   1.397   9.894   6.421
93171SOL    HW181346   1.469   9.919   6.479
93171SOL    HW281347   1.429   9.915   6.333
93172SOL     OW81348  13.704   0.133   2.404
93172SOL    HW181349  13.787   0.121   2.450
93172SOL    HW281350  13.720   0.208   2.346
93173SOL     OW81351  14.454   1.604   2.764
93173SOL    HW181352  14.492   1.536   2.819
93173SOL    HW281353  14.387   1.559   2.712
93174SOL     OW81354  11.767   2.100   1.359
93174SOL    HW181355  11.839   2.161   1.344
93174SOL    HW281356  11.776   2.073   1.450
93175SOL     OW81357   2.124   1.818   3.944
93175SOL    HW181358   2.070   1.897   3.943
93175SOL    HW281359   2.158   1.814   4.034
93176SOL     OW81360   3.213   0.941  11.203
93176SOL    HW181361   3.226   0.994  11.281
93176SOL    HW281362   3.154   0.871  11.231
93177SOL     OW81363   0.708  14.810   4.889
93177SOL    HW181364   0.711  14.829   4.795
93177SOL    HW281365   0.785  14.754   4.904
93178SOL     OW81366  12.227  14.182   9.157
93178SOL    HW181367  12.320  14.201   9.170
93178SOL    HW281368  12.182  14.252   9.204
93179SOL     OW81369  13.735   1.538   7.170
93179SOL    HW181370  13.813   1.486   7.151
93179SOL    HW281371  13.668   1.473   7.191
93180SOL     OW81372  12.859  10.068  10.737
93180SOL    HW181373  12.925  10.097  10.800
93180SOL    HW281374  12.889   9.982  10.709
93181SOL     OW81375   0.741  13.855   2.461
93181SOL    HW181376   0.664  13.897   2.499
93181SOL    HW281377   0.787  13.925   2.416
93182SOL     OW81378  10.300   4.777   4.611
93182SOL    HW181379  10.343   4.774   4.525
93182SOL    HW281380  10.212   4.811   4.592
93183SOL     OW81381  14.239  11.864   4.575
93183SOL    HW181382  14.280  11.940   4.534
93183SOL    HW281383  14.145  11.880   4.568
93184SOL     OW81384   7.425   1.898  13.463
93184SOL    HW181385   7.454   1.839  13.533
93184SOL    HW281386   7.331   1.910  13.480
93185SOL     OW81387  12.747   8.064  13.458
93185SOL    HW181388  12.656   8.034  13.463
93185SOL    HW281389  12.792   7.996  13.408
93186SOL     OW81390   6.549   8.094  13.592
93186SOL    HW181391   6.488   8.060  13.657
93186SOL    HW281392   6.631   8.048  13.611
93187SOL     OW81393   3.137   7.202   7.397
93187SOL    HW181394   3.223   7.224   7.361
93187SOL    HW281395   3.155   7.129   7.457
93188SOL     OW81396   0.604   5.823   4.994
93188SOL    HW181397   0.653   5.811   4.913
93188SOL    HW281398   0.555   5.742   5.005
93189SOL     OW81399  13.034   8.151  14.727
93189SOL    HW181400  13.045   8.193  14.813
93189SOL    HW281401  13.119   8.111  14.709
93190SOL     OW81402   3.950   6.636  14.076
93190SOL    HW181403   4.015   6.579  14.036
93190SOL    HW281404   3.972   6.724  14.046
93191SOL     OW81405   6.797   8.112   7.284
93191SOL    HW181406   6.736   8.044   7.312
93191SOL    HW281407   6.864   8.114   7.353
93192SOL     OW81408  13.930   5.188  12.346
93192SOL    HW181409  13.944   5.251  12.416
93192SOL    HW281410  13.854   5.220  12.299
93193SOL     OW81411  11.907  13.063  13.014
93193SOL    HW181412  11.997  13.086  13.040
93193SOL    HW281413  11.908  12.967  13.009
93194SOL     OW81414   9.189  11.676   3.985
93194SOL    HW181415   9.120  11.702   4.047
93194SOL    HW281416   9.196  11.581   3.996
93195SOL     OW81417   5.498   2.022   6.880
93195SOL    HW181418   5.576   2.019   6.824
93195SOL    HW281419   5.486   1.931   6.908
93196SOL     OW81420   3.619   6.006   6.586
93196SOL    HW181421   3.558   5.935   6.602
93196SOL    HW281422   3.703   5.962   6.571
93197SOL     OW81423  11.924   6.559  10.626
93197SOL    HW181424  11.830   6.568  10.607
93197SOL    HW281425  11.966   6.619  10.565
93198SOL     OW81426   8.212   1.237   8.582
93198SOL    HW181427   8.156   1.260   8.508
93198SOL    HW281428   8.171   1.159   8.619
93199SOL     OW81429  14.634   7.056   2.452
93199SOL    HW181430  14.633   7.023   2.362
93199SOL    HW281431  14.654   6.979   2.506
93200SOL     OW81432   6.285   8.877   7.022
93200SOL    HW181433   6.375   8.857   7.047
93200SOL    HW281434   6.270   8.827   6.943
93201SOL     OW81435   8.337  14.598   5.432
93201SOL    HW181436   8.299  14.645   5.506
93201SOL    HW281437   8.343  14.664   5.363
93202SOL     OW81438   2.385   0.289   9.283
93202SOL    HW181439   2.378   0.334   9.198
93202SOL    HW281440   2.313   0.325   9.335
93203SOL     OW81441  14.130   2.648  12.314
93203SOL    HW181442  14.109   2.688  12.398
93203SOL    HW281443  14.052   2.597  12.291
93204SOL     OW81444   1.621  12.192   0.879
93204SOL    HW181445   1.578  12.183   0.794
93204SOL    HW281446   1.660  12.279   0.877
93205SOL     OW81447   1.531   8.363   3.140
93205SOL    HW181448   1.558   8.279   3.104
93205SOL    HW281449   1.466   8.396   3.078
93206SOL     OW81450   7.040  10.668   5.891
93206SOL    HW181451   7.128  10.681   5.927
93206SOL    HW281452   7.054  10.622   5.809
93207SOL     OW81453  12.086   5.657  11.915
93207SOL    HW181454  12.069   5.699  11.999
93207SOL    HW281455  12.124   5.727  11.861
93208SOL     OW81456   3.257   4.977   0.118
93208SOL    HW181457   3.207   4.896   0.127
93208SOL    HW281458   3.311   4.981   0.197
93209SOL     OW81459   2.647  10.253   0.982
93209SOL    HW181460   2.628  10.330   0.929
93209SOL    HW281461   2.584  10.187   0.953
93210SOL     OW81462   2.956   3.923  13.649
93210SOL    HW181463   2.864   3.906  13.626
93210SOL    HW281464   2.960   4.018  13.661
93211SOL     OW81465   9.409  12.393   0.903
93211SOL    HW181466   9.501  12.396   0.875
93211SOL    HW281467   9.387  12.485   0.921
93212SOL     OW81468   7.394   0.845  12.448
93212SOL    HW181469   7.410   0.822  12.540
93212SOL    HW281470   7.445   0.924  12.433
93213SOL     OW81471   5.767   2.502  14.756
93213SOL    HW181472   5.749   2.455  14.837
93213SOL    HW281473   5.707   2.464  14.692
93214SOL     OW81474   7.425   7.983   4.228
93214SOL    HW181475   7.401   8.003   4.137
93214SOL    HW281476   7.352   7.930   4.260
93215SOL     OW81477   3.046   6.640   4.064
93215SOL    HW181478   3.105   6.565   4.070
93215SOL    HW281479   2.959   6.602   4.055
93216SOL     OW81480  10.504   5.726   7.592
93216SOL    HW181481  10.441   5.729   7.664
93216SOL    HW281482  10.522   5.818   7.573
93217SOL     OW81483  13.850  12.998   0.644
93217SOL    HW181484  13.905  13.074   0.629
93217SOL    HW281485  13.769  13.034   0.681
93218SOL     OW81486  12.545  12.549  13.861
93218SOL    HW181487  12.530  12.575  13.952
93218SOL    HW281488  12.566  12.456  13.865
93219SOL     OW81489   0.668   7.557  14.660
93219SOL    HW181490   0.605   7.607  14.608
93219SOL    HW281491   0.614   7.499  14.714
93220SOL     OW81492  12.094  11.557   6.869
93220SOL    HW181493  12.003  11.564   6.897
93220SOL    HW281494  12.131  11.643   6.886
93221SOL     OW81495   8.382   6.613   5.976
93221SOL    HW181496   8.447   6.592   6.043
93221SOL    HW281497   8.337   6.531   5.959
93222SOL     OW81498   4.639  11.918  13.698
93222SOL    HW181499   4.692  11.862  13.754
93222SOL    HW281500   4.659  11.888  13.609
93223SOL     OW81501   3.107   8.061   2.707
93223SOL    HW181502   3.196   8.083   2.735
93223SOL    HW281503   3.052   8.083   2.783
93224SOL     OW81504   1.602  13.133   4.159
93224SOL    HW181505   1.614  13.135   4.254
93224SOL    HW281506   1.614  13.040   4.136
93225SOL     OW81507  13.780  12.857  11.960
93225SOL    HW181508  13.818  12.941  11.986
93225SOL    HW281509  13.759  12.814  12.043
93226SOL     OW81510  10.265  10.141   9.299
93226SOL    HW181511  10.310  10.209   9.349
93226SOL    HW281512  10.288  10.159   9.208
93227SOL     OW81513  14.522   3.098   2.810
93227SOL    HW181514  14.542   3.093   2.904
93227SOL    HW281515  14.529   3.191   2.789
93228SOL     OW81516   1.115   4.492   3.347
93228SOL    HW181517   1.055   4.564   3.364
93228SOL    HW281518   1.100   4.431   3.419
93229SOL     OW81519   6.530  12.714  12.338
93229SOL    HW181520   6.522  12.622  12.314
93229SOL    HW281521   6.620  12.724  12.368
93230SOL     OW81522   6.860  10.458  14.133
93230SOL    HW181523   6.860  10.536  14.189
93230SOL    HW281524   6.925  10.400  14.173
93231SOL     OW81525  14.422   4.974   4.822
93231SOL    HW181526  14.513   4.970   4.853
93231SOL    HW281527  14.425   5.030   4.745
93232SOL     OW81528   7.301   1.057   1.682
93232SOL    HW181529   7.365   1.112   1.637
93232SOL    HW281530   7.220   1.109   1.680
93233SOL     OW81531  12.287   5.925  13.484
93233SOL    HW181532  12.374   5.901  13.516
93233SOL    HW281533  12.273   5.870  13.407
93234SOL     OW81534  12.695   5.161  12.024
93234SOL    HW181535  12.705   5.221  12.097
93234SOL    HW281536  12.768   5.100  12.033
93235SOL     OW81537   0.603   0.552  14.502
93235SOL    HW181538   0.685   0.600  14.486
93235SOL    HW281539   0.617   0.467  14.460
93236SOL     OW81540  10.433  12.711   0.000
93236SOL    HW181541  10.364  12.777  14.869
93236SOL    HW281542  10.495  12.736  14.805
93237SOL     OW81543   4.267   6.576   0.393
93237SOL    HW181544   4.337   6.632   0.427
93237SOL    HW281545   4.293   6.487   0.417
93238SOL     OW81546   5.095  11.925   5.098
93238SOL    HW181547   5.084  11.987   5.026
93238SOL    HW281548   5.102  11.840   5.056
93239SOL     OW81549   5.476  13.873   2.668
93239SOL    HW181550   5.419  13.807   2.707
93239SOL    HW281551   5.439  13.889   2.581
93240SOL     OW81552   2.985  10.034   4.858
93240SOL    HW181553   3.045  10.105   4.834
93240SOL    HW281554   2.898  10.070   4.838
93241SOL     OW81555   5.246  13.348  13.249
93241SOL    HW181556   5.241  13.376  13.158
93241SOL    HW281557   5.195  13.267  13.253
93242SOL     OW81558   2.432  10.297   8.044
93242SOL    HW181559   2.387  10.319   7.963
93242SOL    HW281560   2.518  10.265   8.015
93243SOL     OW81561   7.518   1.743   4.441
93243SOL    HW181562   7.425   1.723   4.438
93243SOL    HW281563   7.528   1.797   4.520
93244SOL     OW81564  13.353   2.295   5.786
93244SOL    HW181565  13.261   2.319   5.772
93244SOL    HW281566  13.400   2.337   5.714
93245SOL     OW81567   7.938   7.339   3.695
93245SOL    HW181568   7.956   7.251   3.661
93245SOL    HW281569   8.009   7.356   3.757
93246SOL     OW81570  13.753   4.916  11.725
93246SOL    HW181571  13.767   4.842  11.785
93246SOL    HW281572  13.661   4.910  11.701
93247SOL     OW81573  11.927  12.106   7.943
93247SOL    HW181574  11.892  12.184   7.902
93247SOL    HW281575  11.894  12.108   8.033
93248SOL     OW81576  10.692   3.699  14.291
93248SOL    HW181577  10.626   3.636  14.320
93248SOL    HW281578  10.685   3.700  14.196
93249SOL     OW81579   4.827  10.387   3.824
93249SOL    HW181580   4.786  10.471   3.804
93249SOL    HW281581   4.919  10.409   3.838
93250SOL     OW81582   8.119  12.079   6.458
93250SOL    HW181583   8.155  11.993   6.439
93250SOL    HW281584   8.024  12.067   6.453
93251SOL     OW81585   1.789  12.755   5.835
93251SOL    HW181586   1.713  12.758   5.777
93251SOL    HW281587   1.849  12.820   5.800
93252SOL     OW81588   6.566   6.060  10.738
93252SOL    HW181589   6.636   6.018  10.687
93252SOL    HW281590   6.569   6.017  10.823
93253SOL     OW81591   1.663   7.963   1.645
93253SOL    HW181592   1.624   7.928   1.565
93253SOL    HW281593   1.594   8.019   1.682
93254SOL     OW81594   9.309  13.204  12.129
93254SOL    HW181595   9.370  13.134  12.152
93254SOL    HW281596   9.353  13.253  12.060
93255SOL     OW81597   4.135   8.764   0.593
93255SOL    HW181598   4.153   8.672   0.609
93255SOL    HW281599   4.217   8.799   0.558
93256SOL     OW81600  10.688  14.810  13.068
93256SOL    HW181601  10.734  14.815  12.984
93256SOL    HW281602  10.747  14.853  13.130
93257SOL     OW81603   2.361   9.322   1.347
93257SOL    HW181604   2.398   9.409   1.335
93257SOL    HW281605   2.366   9.282   1.260
93258SOL     OW81606  14.502   0.843   7.293
93258SOL    HW181607  14.512   0.932   7.327
93258SOL    HW281608  14.545   0.787   7.358
93259SOL     OW81609  12.402   1.272  10.237
93259SOL    HW181610  12.386   1.198  10.296
93259SOL    HW281611  12.363   1.245  10.154
93260SOL     OW81612   6.708   5.303  12.925
93260SOL    HW181613   6.784   5.247  12.917
93260SOL    HW281614   6.634   5.247  12.901
93261SOL     OW81615   5.913   9.369   5.800
93261SOL    HW181616   5.939   9.343   5.712
93261SOL    HW281617   5.966   9.314   5.858
93262SOL     OW81618   3.731   3.030  14.649
93262SOL    HW181619   3.746   2.971  14.723
93262SOL    HW281620   3.645   3.006  14.616
93263SOL     OW81621  12.075   7.365   6.024
93263SOL    HW181622  11.983   7.386   6.043
93263SOL    HW281623  12.076   7.270   6.014
93264SOL     OW81624  13.308   2.755  11.651
93264SOL    HW181625  13.345   2.683  11.701
93264SOL    HW281626  13.341   2.742  11.562
93265SOL     OW81627   4.476  10.570  14.527
93265SOL    HW181628   4.568  10.548  14.543
93265SOL    HW281629   4.428  10.520  14.592
93266SOL     OW81630   5.546  14.073   2.866
93266SOL    HW181631   5.522  14.165   2.861
93266SOL    HW281632   5.511  14.034   2.785
93267SOL     OW81633  11.768   2.943   7.493
93267SOL    HW181634  11.809   2.958   7.578
93267SOL    HW281635  11.834   2.972   7.429
93268SOL     OW81636  13.527   0.364   2.503
93268SOL    HW181637  13.605   0.345   2.450
93268SOL    HW281638  13.484   0.280   2.513
93269SOL     OW81639   0.843   4.230  11.144
93269SOL    HW181640   0.838   4.137  11.168
93269SOL    HW281641   0.755   4.264  11.161
93270SOL     OW81642  12.599   3.259   0.689
93270SOL    HW181643  12.676   3.315   0.686
93270SOL    HW281644  12.546   3.294   0.761
93271SOL     OW81645   1.185   7.344   3.778
93271SOL    HW181646   1.245   7.373   3.709
93271SOL    HW281647   1.099   7.340   3.736
93272SOL     OW81648  10.809   5.687   1.791
93272SOL    HW181649  10.726   5.729   1.811
93272SOL    HW281650  10.786   5.611   1.737
93273SOL     OW81651   7.265   6.218   5.003
93273SOL    HW181652   7.326   6.181   5.067
93273SOL    HW281653   7.313   6.216   4.920
93274SOL     OW81654   2.823   7.676  12.491
93274SOL    HW181655   2.850   7.651  12.579
93274SOL    HW281656   2.789   7.765  12.500
93275SOL     OW81657   6.718   2.893   4.579
93275SOL    HW181658   6.749   2.983   4.576
93275SOL    HW281659   6.696   2.878   4.671
93276SOL     OW81660  11.028  12.237   4.265
93276SOL    HW181661  10.938  12.230   4.296
93276SOL    HW281662  11.022  12.281   4.181
93277SOL     OW81663   4.183   9.472   5.414
93277SOL    HW181664   4.170   9.388   5.369
93277SOL    HW281665   4.167   9.452   5.506
93278SOL     OW81666   1.358  12.813   9.795
93278SOL    HW181667   1.307  12.873   9.849
93278SOL    HW281668   1.436  12.794   9.846
93279SOL     OW81669  10.435  12.059   5.144
93279SOL    HW181670  10.518  12.079   5.100
93279SOL    HW281671  10.375  12.036   5.073
93280SOL     OW81672  13.848   0.001   4.203
93280SOL    HW181673  13.779  14.852   4.265
93280SOL    HW281674  13.831   0.092   4.178
93281SOL     OW81675  10.426   8.205   1.464
93281SOL    HW181676  10.380   8.283   1.496
93281SOL    HW281677  10.388   8.188   1.378
93282SOL     OW81678  12.729   8.992   1.715
93282SOL    HW181679  12.698   9.041   1.792
93282SOL    HW281680  12.793   8.930   1.750
93283SOL     OW81681  12.944   2.188   5.526
93283SOL    HW181682  12.929   2.237   5.445
93283SOL    HW281683  12.861   2.144   5.543
93284SOL     OW81684   7.434   4.672   9.744
93284SOL    HW181685   7.458   4.618   9.669
93284SOL    HW281686   7.392   4.749   9.705
93285SOL     OW81687   8.076  10.620  11.627
93285SOL    HW181688   8.011  10.557  11.594
93285SOL    HW281689   8.159  10.574  11.620
93286SOL     OW81690   8.575   7.710  12.474
93286SOL    HW181691   8.619   7.703  12.389
93286SOL    HW281692   8.630   7.769  12.525
93287SOL     OW81693  11.760  12.998  10.671
93287SOL    HW181694  11.844  13.027  10.634
93287SOL    HW281695  11.749  13.053  10.748
93288SOL     OW81696  12.317  11.927  10.590
93288SOL    HW181697  12.332  11.884  10.675
93288SOL    HW281698  12.397  11.912  10.541
93289SOL     OW81699   2.951  11.360   8.214
93289SOL    HW181700   2.872  11.324   8.174
93289SOL    HW281701   2.940  11.455   8.210
93290SOL     OW81702  14.760   0.280  10.499
93290SOL    HW181703  14.768   0.373  10.520
93290SOL    HW281704  14.846   0.244  10.520
93291SOL     OW81705   6.610  10.858   7.399
93291SOL    HW181706   6.546  10.916   7.358
93291SOL    HW281707   6.556  10.790   7.441
93292SOL     OW81708  10.496   0.146   9.785
93292SOL    HW181709  10.510   0.059   9.824
93292SOL    HW281710  10.479   0.128   9.693
93293SOL     OW81711   1.632   9.194  13.923
93293SOL    HW181712   1.623   9.116  13.868
93293SOL    HW281713   1.697   9.171  13.988
93294SOL     OW81714  13.710   1.766  11.318
93294SOL    HW181715  13.770   1.751  11.245
93294SOL    HW281716  13.764   1.753  11.396
93295SOL     OW81717   7.919   3.461   7.663
93295SOL    HW181718   7.967   3.384   7.633
93295SOL    HW281719   7.860   3.482   7.591
93296SOL     OW81720   7.319   2.228   3.932
93296SOL    HW181721   7.324   2.280   4.013
93296SOL    HW281722   7.360   2.284   3.866
93297SOL     OW81723   8.287   9.360   5.385
93297SOL    HW181724   8.215   9.298   5.378
93297SOL    HW281725   8.244   9.444   5.403
93298SOL     OW81726   8.830   1.171   2.710
93298SOL    HW181727   8.915   1.136   2.737
93298SOL    HW281728   8.851   1.234   2.641
93299SOL     OW81729  12.804   8.713   4.690
93299SOL    HW181730  12.774   8.798   4.659
93299SOL    HW281731  12.869   8.686   4.626
93300SOL     OW81732  12.183  11.249  12.245
93300SOL    HW181733  12.270  11.247  12.205
93300SOL    HW281734  12.149  11.160  12.235
93301SOL     OW81735   8.479  11.169  10.431
93301SOL    HW181736   8.477  11.253  10.478
93301SOL    HW281737   8.397  11.168  10.382
93302SOL     OW81738   2.957   3.366  12.260
93302SOL    HW181739   2.916   3.281  12.244
93302SOL    HW281740   2.894   3.413  12.314
93303SOL     OW81741  14.251  10.820  10.359
93303SOL    HW181742  14.206  10.826  10.275
93303SOL    HW281743  14.343  10.831  10.337
93304SOL     OW81744   3.785   6.888   4.590
93304SOL    HW181745   3.706   6.856   4.634
93304SOL    HW281746   3.797   6.976   4.623
93305SOL     OW81747  14.122  14.843  12.257
93305SOL    HW181748  14.120  14.850  12.352
93305SOL    HW281749  14.212  14.817  12.236
93306SOL     OW81750  13.732   5.249   6.825
93306SOL    HW181751  13.754   5.306   6.751
93306SOL    HW281752  13.647   5.281   6.856
93307SOL     OW81753   5.493   3.502   1.152
93307SOL    HW181754   5.536   3.419   1.169
93307SOL    HW281755   5.551   3.568   1.191
93308SOL     OW81756  11.058  13.537   3.233
93308SOL    HW181757  11.081  13.480   3.307
93308SOL    HW281758  11.142  13.556   3.191
93309SOL     OW81759   3.576   9.583  11.179
93309SOL    HW181760   3.557   9.568  11.272
93309SOL    HW281761   3.542   9.506  11.134
93310SOL     OW81762  12.057   7.844   2.658
93310SOL    HW181763  12.071   7.882   2.744
93310SOL    HW281764  12.110   7.897   2.599
93311SOL     OW81765   0.080   8.208   5.397
93311SOL    HW181766   0.129   8.174   5.472
93311SOL    HW281767   0.061   8.131   5.344
93312SOL     OW81768   0.391   3.611   1.925
93312SOL    HW181769   0.314   3.627   1.980
93312SOL    HW281770   0.407   3.694   1.881
93313SOL     OW81771   1.576   9.598   3.960
93313SOL    HW181772   1.515   9.672   3.961
93313SOL    HW281773   1.596   9.582   4.052
93314SOL     OW81774  12.965   2.585  14.370
93314SOL    HW181775  13.049   2.624  14.348
93314SOL    HW281776  12.986   2.494  14.390
93315SOL     OW81777   0.857   5.708   0.831
93315SOL    HW181778   0.827   5.740   0.747
93315SOL    HW281779   0.935   5.761   0.851
93316SOL     OW81780   1.628   0.030  12.780
93316SOL    HW181781   1.608   0.123  12.784
93316SOL    HW281782   1.722   0.026  12.761
93317SOL     OW81783  11.805   9.631  12.759
93317SOL    HW181784  11.758   9.577  12.821
93317SOL    HW281785  11.898   9.610  12.774
93318SOL     OW81786  12.463  13.342   7.389
93318SOL    HW181787  12.457  13.435   7.367
93318SOL    HW281788  12.435  13.337   7.480
93319SOL     OW81789   1.031   6.096  12.113
93319SOL    HW181790   1.065   6.103  12.203
93319SOL    HW281791   0.936   6.098  12.123
93320SOL     OW81792   6.210   7.307  10.078
93320SOL    HW181793   6.272   7.373  10.048
93320SOL    HW281794   6.198   7.326  10.171
93321SOL     OW81795   7.763   4.745  13.226
93321SOL    HW181796   7.670   4.721  13.229
93321SOL    HW281797   7.797   4.698  13.149
93322SOL     OW81798  11.369  10.436  12.638
93322SOL    HW181799  11.460  10.427  12.609
93322SOL    HW281800  11.319  10.440  12.557
93323SOL     OW81801   1.158  11.235  12.052
93323SOL    HW181802   1.230  11.240  12.115
93323SOL    HW281803   1.198  11.202  11.972
93324SOL     OW81804   6.359  10.749   6.846
93324SOL    HW181805   6.356  10.844   6.830
93324SOL    HW281806   6.289  10.714   6.792
93325SOL     OW81807   7.230   0.788  13.686
93325SOL    HW181808   7.299   0.849  13.714
93325SOL    HW281809   7.159   0.843  13.655
93326SOL     OW81810   5.358  14.627  10.136
93326SOL    HW181811   5.437  14.598  10.181
93326SOL    HW281812   5.286  14.587  10.186
93327SOL     OW81813   0.937   4.640   4.883
93327SOL    HW181814   0.924   4.610   4.792
93327SOL    HW281815   0.850   4.636   4.922
93328SOL     OW81816   0.204  11.814   7.902
93328SOL    HW181817   0.249  11.748   7.955
93328SOL    HW281818   0.124  11.771   7.873
93329SOL     OW81819   7.673   4.671  10.530
93329SOL    HW181820   7.626   4.675  10.613
93329SOL    HW281821   7.608   4.697  10.464
93330SOL     OW81822   4.219  13.201   5.507
93330SOL    HW181823   4.231  13.253   5.428
93330SOL    HW281824   4.130  13.167   5.499
93331SOL     OW81825  14.318   0.294  14.037
93331SOL    HW181826  14.365   0.377  14.026
93331SOL    HW281827  14.228   0.319  14.055
93332SOL     OW81828   0.376   8.037   8.119
93332SOL    HW181829   0.341   8.056   8.031
93332SOL    HW281830   0.392   7.943   8.118
93333SOL     OW81831   1.768   4.716   5.481
93333SOL    HW181832   1.688   4.767   5.470
93333SOL    HW281833   1.816   4.729   5.400
93334SOL     OW81834  13.308  11.287  14.740
93334SOL    HW181835  13.287  11.380  14.733
93334SOL    HW281836  13.223  11.245  14.752
93335SOL     OW81837   4.096   3.023   4.661
93335SOL    HW181838   4.137   2.972   4.732
93335SOL    HW281839   4.168   3.075   4.625
93336SOL     OW81840   6.406  11.706   9.559
93336SOL    HW181841   6.479  11.768   9.565
93336SOL    HW281842   6.383  11.687   9.650
93337SOL     OW81843  13.015   2.575  11.750
93337SOL    HW181844  13.003   2.552  11.658
93337SOL    HW281845  13.075   2.509  11.784
93338SOL     OW81846   9.823   6.624  12.850
93338SOL    HW181847   9.868   6.646  12.932
93338SOL    HW281848   9.733   6.653  12.864
93339SOL     OW81849   1.983  14.835   3.537
93339SOL    HW181850   2.005  14.742   3.542
93339SOL    HW281851   1.925  14.850   3.612
93340SOL     OW81852  10.131   5.820   4.396
93340SOL    HW181853  10.141   5.858   4.309
93340SOL    HW281854  10.212   5.841   4.441
93341SOL     OW81855   1.852  12.540  11.797
93341SOL    HW181856   1.864  12.504  11.885
93341SOL    HW281857   1.810  12.625  11.811
93342SOL     OW81858  12.294   0.022   9.422
93342SOL    HW181859  12.316   0.039   9.513
93342SOL    HW281860  12.324   0.099   9.374
93343SOL     OW81861   9.981  12.015   8.852
93343SOL    HW181862   9.957  12.097   8.895
93343SOL    HW281863   9.912  12.000   8.788
93344SOL     OW81864  12.661  13.711   9.563
93344SOL    HW181865  12.678  13.764   9.641
93344SOL    HW281866  12.608  13.638   9.595
93345SOL     OW81867  12.182   7.668  11.266
93345SOL    HW181868  12.143   7.755  11.269
93345SOL    HW281869  12.245   7.667  11.337
93346SOL     OW81870   0.372   8.274   3.296
93346SOL    HW181871   0.371   8.179   3.308
93346SOL    HW281872   0.320   8.288   3.217
93347SOL     OW81873  14.664   5.642   1.230
93347SOL    HW181874  14.599   5.677   1.169
93347SOL    HW281875  14.730   5.600   1.174
93348SOL     OW81876  12.074   8.225  10.935
93348SOL    HW181877  12.099   8.214  10.844
93348SOL    HW281878  12.157   8.219  10.984
93349SOL     OW81879  13.913   1.377   3.119
93349SOL    HW181880  13.850   1.432   3.165
93349SOL    HW281881  13.927   1.422   3.035
93350SOL     OW81882   4.641   2.026   0.032
93350SOL    HW181883   4.616   2.026  14.812
93350SOL    HW281884   4.600   2.104   0.068
93351SOL     OW81885   7.319   4.385   5.663
93351SOL    HW181886   7.374   4.454   5.626
93351SOL    HW281887   7.295   4.417   5.749
93352SOL     OW81888   0.001   9.343   6.668
93352SOL    HW181889  14.838   9.287   6.737
93352SOL    HW281890  14.800   9.361   6.610
93353SOL     OW81891   4.013   2.104   8.950
93353SOL    HW181892   4.080   2.042   8.922
93353SOL    HW281893   3.981   2.143   8.869
93354SOL     OW81894  11.471  10.936   7.306
93354SOL    HW181895  11.390  10.960   7.261
93354SOL    HW281896  11.493  10.849   7.272
93355SOL     OW81897   3.483  14.113   1.776
93355SOL    HW181898   3.416  14.117   1.708
93355SOL    HW281899   3.457  14.178   1.841
93356SOL     OW81900   5.549   4.773   7.615
93356SOL    HW181901   5.542   4.690   7.567
93356SOL    HW281902   5.624   4.761   7.673
93357SOL     OW81903   2.497   9.713   3.697
93357SOL    HW181904   2.478   9.670   3.614
93357SOL    HW281905   2.450   9.796   3.692
93358SOL     OW81906   1.524   5.259   4.827
93358SOL    HW181907   1.498   5.283   4.738
93358SOL    HW281908   1.616   5.233   4.818
93359SOL     OW81909   6.479   1.203  13.678
93359SOL    HW181910   6.388   1.220  13.654
93359SOL    HW281911   6.478   1.204  13.774
93360SOL     OW81912   4.758   7.601   4.985
93360SOL    HW181913   4.801   7.662   5.045
93360SOL    HW281914   4.669   7.592   5.021
93361SOL     OW81915  12.636  13.236   1.478
93361SOL    HW181916  12.666  13.314   1.524
93361SOL    HW281917  12.716  13.196   1.444
93362SOL     OW81918  10.502  13.168   7.547
93362SOL    HW181919  10.533  13.152   7.636
93362SOL    HW281920  10.580  13.164   7.493
93363SOL     OW81921   2.490   4.391  13.796
93363SOL    HW181922   2.423   4.327  13.774
93363SOL    HW281923   2.447   4.451  13.857
93364SOL     OW81924   2.383   5.703   5.709
93364SOL    HW181925   2.478   5.714   5.716
93364SOL    HW281926   2.371   5.634   5.645
93365SOL     OW81927  10.387   3.984  14.654
93365SOL    HW181928  10.450   3.915  14.677
93365SOL    HW281929  10.324   3.984  14.725
93366SOL     OW81930  10.721   2.071   1.534
93366SOL    HW181931  10.670   2.127   1.475
93366SOL    HW281932  10.663   1.998   1.553
93367SOL     OW81933  11.078   4.235   4.286
93367SOL    HW181934  10.991   4.225   4.247
93367SOL    HW281935  11.080   4.171   4.357
93368SOL     OW81936   0.542   0.228  12.085
93368SOL    HW181937   0.466   0.173  12.107
93368SOL    HW281938   0.507   0.293  12.025
93369SOL     OW81939  10.096   3.972   8.437
93369SOL    HW181940  10.150   3.931   8.504
93369SOL    HW281941  10.025   3.909   8.422
93370SOL     OW81942   2.795  13.983   4.959
93370SOL    HW181943   2.777  13.895   4.992
93370SOL    HW281944   2.838  13.969   4.875
93371SOL     OW81945   0.593   7.328  12.621
93371SOL    HW181946   0.642   7.409  12.630
93371SOL    HW281947   0.502   7.356  12.609
93372SOL     OW81948   7.842   8.717   4.732
93372SOL    HW181949   7.768   8.719   4.792
93372SOL    HW281950   7.813   8.767   4.655
93373SOL     OW81951  13.625   4.639   5.169
93373SOL    HW181952  13.629   4.711   5.232
93373SOL    HW281953  13.610   4.561   5.222
93374SOL     OW81954   4.734   2.443   1.985
93374SOL    HW181955   4.736   2.350   2.006
93374SOL    HW281956   4.683   2.482   2.057
93375SOL     OW81957   6.954   5.106   9.968
93375SOL    HW181958   6.998   5.170  10.024
93375SOL    HW281959   6.861   5.131   9.971
93376SOL     OW81960   5.206   0.316   5.105
93376SOL    HW181961   5.227   0.225   5.083
93376SOL    HW281962   5.289   0.353   5.136
93377SOL     OW81963   0.344   6.836  14.334
93377SOL    HW181964   0.303   6.874  14.256
93377SOL    HW281965   0.334   6.904  14.401
93378SOL     OW81966   6.815   0.936   0.060
93378SOL    HW181967   6.885   0.877   0.035
93378SOL    HW281968   6.853   0.990   0.130
93379SOL     OW81969  10.087   6.909   3.551
93379SOL    HW181970  10.031   6.985   3.534
93379SOL    HW281971  10.054   6.841   3.493
93380SOL     OW81972   2.970  10.825  14.123
93380SOL    HW181973   3.009  10.771  14.053
93380SOL    HW281974   3.026  10.902  14.127
93381SOL     OW81975   2.743   7.689   1.945
93381SOL    HW181976   2.809   7.643   1.996
93381SOL    HW281977   2.784   7.700   1.858
93382SOL     OW81978  10.113  11.313  14.180
93382SOL    HW181979  10.017  11.314  14.189
93382SOL    HW281980  10.129  11.353  14.095
93383SOL     OW81981   7.034  11.048  12.761
93383SOL    HW181982   6.939  11.052  12.776
93383SOL    HW281983   7.063  10.974  12.814
93384SOL     OW81984   2.041  11.899   6.366
93384SOL    HW181985   1.974  11.950   6.412
93384SOL    HW281986   2.103  11.964   6.335
93385SOL     OW81987   8.885   8.352   4.885
93385SOL    HW181988   8.923   8.390   4.806
93385SOL    HW281989   8.862   8.262   4.860
93386SOL     OW81990   7.134   7.073   5.477
93386SOL    HW181991   7.096   7.085   5.564
93386SOL    HW281992   7.228   7.061   5.494
93387SOL     OW81993   8.922   5.619   2.174
93387SOL    HW181994   8.999   5.670   2.201
93387SOL    HW281995   8.953   5.567   2.100
93388SOL     OW81996   7.024  11.969   4.227
93388SOL    HW181997   7.005  12.038   4.164
93388SOL    HW281998   7.071  12.013   4.298
93389SOL     OW81999   9.725   6.019   2.930
93389SOL    HW182000   9.752   5.995   2.841
93389SOL    HW282001   9.807   6.027   2.979
93390SOL     OW82002   5.070  11.016   6.714
93390SOL    HW182003   5.071  11.104   6.751
93390SOL    HW282004   5.149  10.975   6.750
93391SOL     OW82005   9.407   0.094   1.730
93391SOL    HW182006   9.481   0.076   1.789
93391SOL    HW282007   9.338   0.035   1.761
93392SOL     OW82008  11.023  14.795   9.627
93392SOL    HW182009  11.020  14.803   9.722
93392SOL    HW282010  10.953  14.854   9.596
93393SOL     OW82011  11.744  14.838  10.999
93393SOL    HW182012  11.705   0.044  10.963
93393SOL    HW282013  11.796  14.802  10.927
93394SOL     OW82014   7.020   0.493   1.341
93394SOL    HW182015   7.039   0.521   1.430
93394SOL    HW282016   7.000   0.400   1.348
93395SOL     OW82017   2.012  14.613  14.638
93395SOL    HW182018   2.062  14.648  14.564
93395SOL    HW282019   2.078  14.572  14.694
93396SOL     OW82020  10.764  14.546  13.307
93396SOL    HW182021  10.698  14.615  13.304
93396SOL    HW282022  10.759  14.504  13.221
93397SOL     OW82023   2.734  11.983   7.262
93397SOL    HW182024   2.680  11.905   7.270
93397SOL    HW282025   2.692  12.048   7.319
93398SOL     OW82026  12.521   6.787   7.524
93398SOL    HW182027  12.579   6.773   7.449
93398SOL    HW282028  12.577   6.773   7.600
93399SOL     OW82029  13.283   1.710  14.709
93399SOL    HW182030  13.261   1.793  14.751
93399SOL    HW282031  13.332   1.662  14.775
93400SOL     OW82032   2.356  13.067   9.088
93400SOL    HW182033   2.412  12.997   9.055
93400SOL    HW282034   2.395  13.147   9.051
93401SOL     OW82035   8.081  10.093   7.687
93401SOL    HW182036   8.167  10.135   7.691
93401SOL    HW282037   8.027  10.153   7.635
93402SOL     OW82038  12.047   8.389   1.159
93402SOL    HW182039  12.024   8.481   1.166
93402SOL    HW282040  12.131   8.381   1.206
93403SOL     OW82041   6.625  14.295  11.751
93403SOL    HW182042   6.674  14.212  11.753
93403SOL    HW282043   6.594  14.302  11.661
93404SOL     OW82044   1.148   7.077  11.800
93404SOL    HW182045   1.234   7.050  11.767
93404SOL    HW282046   1.157   7.170  11.818
93405SOL     OW82047   6.066   7.618   9.445
93405SOL    HW182048   6.012   7.565   9.386
93405SOL    HW282049   6.156   7.599   9.420
93406SOL     OW82050  13.665   4.389   6.521
93406SOL    HW182051  13.643   4.401   6.428
93406SOL    HW282052  13.714   4.467   6.545
93407SOL     OW82053   5.362  13.108   4.644
93407SOL    HW182054   5.443  13.069   4.610
93407SOL    HW282055   5.295  13.042   4.626
93408SOL     OW82056   8.703  14.167  12.665
93408SOL    HW182057   8.616  14.198  12.640
93408SOL    HW282058   8.730  14.225  12.736
93409SOL     OW82059   5.622   5.910   8.747
93409SOL    HW182060   5.688   5.888   8.812
93409SOL    HW282061   5.657   5.988   8.703
93410SOL     OW82062   1.830   2.948  10.495
93410SOL    HW182063   1.884   3.016  10.455
93410SOL    HW282064   1.884   2.913  10.566
93411SOL     OW82065   0.499   2.267   0.843
93411SOL    HW182066   0.541   2.194   0.888
93411SOL    HW282067   0.557   2.286   0.769
93412SOL     OW82068   9.912   3.469   7.373
93412SOL    HW182069   9.881   3.559   7.384
93412SOL    HW282070   9.860   3.434   7.301
93413SOL     OW82071   3.626   8.793   3.877
93413SOL    HW182072   3.694   8.810   3.811
93413SOL    HW282073   3.555   8.853   3.854
93414SOL     OW82074  11.679  11.589   1.107
93414SOL    HW182075  11.619  11.648   1.061
93414SOL    HW282076  11.669  11.505   1.062
93415SOL     OW82077   8.492   3.521   8.831
93415SOL    HW182078   8.544   3.490   8.757
93415SOL    HW282079   8.555   3.535   8.901
93416SOL     OW82080  11.530  14.054  11.873
93416SOL    HW182081  11.621  14.075  11.854
93416SOL    HW282082  11.534  13.999  11.951
93417SOL     OW82083   8.453  13.456   5.373
93417SOL    HW182084   8.365  13.492   5.388
93417SOL    HW282085   8.513  13.525   5.402
93418SOL     OW82086   3.640   5.077   7.295
93418SOL    HW182087   3.717   5.025   7.319
93418SOL    HW282088   3.566   5.019   7.309
93419SOL     OW82089  11.946   7.469  12.217
93419SOL    HW182090  11.924   7.377  12.232
93419SOL    HW282091  11.939   7.511  12.303
93420SOL     OW82092   9.690   5.389   0.344
93420SOL    HW182093   9.711   5.314   0.399
93420SOL    HW282094   9.634   5.354   0.275
93421SOL     OW82095   4.450   2.004   4.036
93421SOL    HW182096   4.421   2.090   4.065
93421SOL    HW282097   4.543   2.000   4.059
93422SOL     OW82098  11.066   1.947   3.715
93422SOL    HW182099  10.973   1.926   3.704
93422SOL    HW282100  11.070   1.991   3.800
93423SOL     OW82101  12.950  13.858   8.992
93423SOL    HW182102  12.860  13.887   8.980
93423SOL    HW282103  13.002  13.926   8.949
93424SOL     OW82104   9.810  13.597   5.415
93424SOL    HW182105   9.768  13.663   5.360
93424SOL    HW282106   9.797  13.515   5.369
93425SOL     OW82107   3.464   0.060  10.358
93425SOL    HW182108   3.462   0.155  10.355
93425SOL    HW282109   3.486   0.033  10.269
93426SOL     OW82110   8.726   4.554   7.364
93426SOL    HW182111   8.725   4.460   7.381
93426SOL    HW282112   8.763   4.562   7.276
93427SOL     OW82113  10.690   7.188   2.566
93427SOL    HW182114  10.700   7.202   2.471
93427SOL    HW282115  10.751   7.250   2.605
93428SOL     OW82116  14.360  14.264   1.177
93428SOL    HW182117  14.287  14.252   1.237
93428SOL    HW282118  14.320  14.265   1.090
93429SOL     OW82119  14.761   6.065   9.990
93429SOL    HW182120  14.826   6.018   9.937
93429SOL    HW282121  14.709   6.113   9.926
93430SOL     OW82122   0.322   7.166   9.123
93430SOL    HW182123   0.281   7.212   9.197
93430SOL    HW282124   0.333   7.076   9.155
93431SOL     OW82125  13.381   7.168   8.992
93431SOL    HW182126  13.367   7.151   9.085
93431SOL    HW282127  13.403   7.082   8.955
93432SOL     OW82128   9.641   2.265   8.365
93432SOL    HW182129   9.683   2.210   8.299
93432SOL    HW282130   9.636   2.352   8.324
93433SOL     OW82131  12.582   8.666  12.588
93433SOL    HW182132  12.578   8.699  12.678
93433SOL    HW282133  12.584   8.570  12.598
93434SOL     OW82134  12.336  12.253   1.226
93434SOL    HW182135  12.418  12.204   1.229
93434SOL    HW282136  12.357  12.330   1.173
93435SOL     OW82137   2.636  13.818   6.281
93435SOL    HW182138   2.552  13.862   6.293
93435SOL    HW282139   2.668  13.851   6.197
93436SOL     OW82140   2.923   0.884   4.202
93436SOL    HW182141   2.921   0.789   4.191
93436SOL    HW282142   2.831   0.910   4.204
93437SOL     OW82143   0.902  11.321   8.068
93437SOL    HW182144   0.926  11.349   8.156
93437SOL    HW282145   0.917  11.226   8.068
93438SOL     OW82146   0.532   3.218   7.897
93438SOL    HW182147   0.494   3.171   7.823
93438SOL    HW282148   0.534   3.309   7.868
93439SOL     OW82149  13.778  14.188  12.848
93439SOL    HW182150  13.728  14.140  12.914
93439SOL    HW282151  13.714  14.242  12.803
93440SOL     OW82152   6.498   7.625   6.624
93440SOL    HW182153   6.409   7.597   6.601
93440SOL    HW282154   6.489   7.667   6.710
93441SOL     OW82155   6.813   1.831   7.595
93441SOL    HW182156   6.852   1.743   7.596
93441SOL    HW282157   6.875   1.885   7.643
93442SOL     OW82158  10.251   2.687   4.592
93442SOL    HW182159  10.319   2.734   4.543
93442SOL    HW282160  10.289   2.672   4.678
93443SOL     OW82161   8.031   2.141   5.962
93443SOL    HW182162   8.032   2.118   6.055
93443SOL    HW282163   8.112   2.104   5.927
93444SOL     OW82164  10.153  12.106   7.469
93444SOL    HW182165  10.086  12.090   7.402
93444SOL    HW282166  10.236  12.087   7.425
93445SOL     OW82167   3.582   0.808   6.499
93445SOL    HW182168   3.677   0.794   6.495
93445SOL    HW282169   3.556   0.819   6.408
93446SOL     OW82170   1.912   4.339   0.699
93446SOL    HW182171   1.872   4.426   0.690
93446SOL    HW282172   1.999   4.349   0.660
93447SOL     OW82173   2.899   2.211   4.737
93447SOL    HW182174   2.931   2.301   4.721
93447SOL    HW282175   2.966   2.172   4.793
93448SOL     OW82176   5.365   7.369   5.403
93448SOL    HW182177   5.281   7.336   5.371
93448SOL    HW282178   5.429   7.305   5.373
93449SOL     OW82179   9.942  13.955   7.803
93449SOL    HW182180   9.903  13.869   7.816
93449SOL    HW282181  10.014  13.940   7.741
93450SOL     OW82182   7.831  10.564   3.852
93450SOL    HW182183   7.804  10.599   3.767
93450SOL    HW282184   7.904  10.619   3.879
93451SOL     OW82185   5.161   0.182  14.611
93451SOL    HW182186   5.158   0.188  14.516
93451SOL    HW282187   5.088   0.124  14.634
93452SOL     OW82188  12.234   7.016   8.102
93452SOL    HW182189  12.216   7.108   8.081
93452SOL    HW282190  12.211   7.008   8.194
93453SOL     OW82191   2.827   1.585   5.573
93453SOL    HW182192   2.910   1.625   5.598
93453SOL    HW282193   2.801   1.533   5.649
93454SOL     OW82194   9.455   8.003   9.307
93454SOL    HW182195   9.499   8.015   9.392
93454SOL    HW282196   9.362   8.012   9.327
93455SOL     OW82197   2.532   8.094  14.089
93455SOL    HW182198   2.503   8.126  14.175
93455SOL    HW282199   2.619   8.058  14.105
93456SOL     OW82200  10.003  10.334  12.389
93456SOL    HW182201  10.048  10.275  12.450
93456SOL    HW282202  10.027  10.301  12.302
93457SOL     OW82203   1.335   8.924   2.496
93457SOL    HW182204   1.400   8.981   2.455
93457SOL    HW282205   1.370   8.836   2.483
93458SOL     OW82206   5.216   9.151  14.793
93458SOL    HW182207   5.283   9.170  14.859
93458SOL    HW282208   5.252   9.184  14.711
93459SOL     OW82209  11.187   2.901   2.936
93459SOL    HW182210  11.239   2.848   2.996
93459SOL    HW282211  11.106   2.851   2.925
93460SOL     OW82212   0.536   1.868   9.538
93460SOL    HW182213   0.486   1.801   9.490
93460SOL    HW282214   0.627   1.847   9.520
93461SOL     OW82215   7.426   7.263   1.431
93461SOL    HW182216   7.344   7.308   1.453
93461SOL    HW282217   7.456   7.226   1.514
93462SOL     OW82218   3.650   3.931   6.325
93462SOL    HW182219   3.564   3.932   6.367
93462SOL    HW282220   3.635   3.963   6.237
93463SOL     OW82221  13.895   2.187  13.558
93463SOL    HW182222  13.847   2.222  13.483
93463SOL    HW282223  13.856   2.101  13.574
93464SOL     OW82224   3.754  12.029  12.994
93464SOL    HW182225   3.812  11.953  13.005
93464SOL    HW282226   3.763  12.078  13.076
93465SOL     OW82227   4.535   8.988  13.599
93465SOL    HW182228   4.508   8.948  13.516
93465SOL    HW282229   4.472   8.954  13.663
93466SOL     OW82230   5.492   6.272   7.835
93466SOL    HW182231   5.478   6.364   7.812
93466SOL    HW282232   5.444   6.223   7.767
93467SOL     OW82233   6.156   5.801   2.221
93467SOL    HW182234   6.100   5.851   2.281
93467SOL    HW282235   6.208   5.868   2.176
93468SOL     OW82236   1.009   0.905  10.964
93468SOL    HW182237   0.914   0.910  10.959
93468SOL    HW282238   1.037   0.995  10.979
93469SOL     OW82239  12.077   7.054  14.085
93469SOL    HW182240  12.069   7.124  14.150
93469SOL    HW282241  12.027   7.085  14.010
93470SOL     OW82242  13.063  10.508   2.556
93470SOL    HW182243  12.973  10.517   2.525
93470SOL    HW282244  13.056  10.458   2.637
93471SOL     OW82245  12.118  11.736   9.266
93471SOL    HW182246  12.057  11.735   9.340
93471SOL    HW282247  12.193  11.786   9.297
93472SOL     OW82248   8.421  10.763   8.433
93472SOL    HW182249   8.335  10.720   8.424
93472SOL    HW282250   8.466  10.713   8.501
93473SOL     OW82251   5.542  11.001   8.077
93473SOL    HW182252   5.613  10.971   8.021
93473SOL    HW282253   5.490  11.058   8.019
93474SOL     OW82254   0.176  11.666  13.838
93474SOL    HW182255   0.230  11.661  13.758
93474SOL    HW282256   0.196  11.585  13.885
93475SOL     OW82257   2.563   0.212   7.846
93475SOL    HW182258   2.636   0.191   7.787
93475SOL    HW282259   2.599   0.197   7.934
93476SOL     OW82260   1.974   8.972   1.300
93476SOL    HW182261   1.980   9.066   1.285
93476SOL    HW282262   1.901   8.962   1.362
93477SOL     OW82263   2.890  14.642  12.964
93477SOL    HW182264   2.958  14.672  13.023
93477SOL    HW282265   2.937  14.618  12.884
93478SOL     OW82266   8.535   2.916   1.644
93478SOL    HW182267   8.501   2.854   1.709
93478SOL    HW282268   8.630   2.913   1.657
93479SOL     OW82269   9.672   8.832   4.435
93479SOL    HW182270   9.598   8.808   4.491
93479SOL    HW282271   9.740   8.768   4.456
93480SOL     OW82272  14.351  13.837   5.890
93480SOL    HW182273  14.288  13.908   5.878
93480SOL    HW282274  14.432  13.881   5.913
93481SOL     OW82275  14.050   6.219  12.405
93481SOL    HW182276  14.069   6.190  12.316
93481SOL    HW282277  14.126   6.271  12.430
93482SOL     OW82278   2.723  13.421  14.680
93482SOL    HW182279   2.772  13.350  14.722
93482SOL    HW282280   2.636  13.416  14.720
93483SOL     OW82281   3.920   3.058  10.481
93483SOL    HW182282   3.911   2.971  10.442
93483SOL    HW282283   3.914   3.042  10.575
93484SOL     OW82284   7.613   8.283   8.328
93484SOL    HW182285   7.686   8.271   8.388
93484SOL    HW282286   7.579   8.195   8.312
93485SOL     OW82287   0.443   6.095   6.257
93485SOL    HW182288   0.472   6.016   6.210
93485SOL    HW282289   0.488   6.089   6.342
93486SOL     OW82290  14.392   1.236  11.469
93486SOL    HW182291  14.343   1.317  11.456
93486SOL    HW282292  14.475   1.264  11.507
93487SOL     OW82293   7.758   5.068  10.709
93487SOL    HW182294   7.848   5.073  10.676
93487SOL    HW282295   7.764   5.101  10.799
93488SOL     OW82296   1.627   1.888   9.943
93488SOL    HW182297   1.640   1.860  10.034
93488SOL    HW282298   1.533   1.883   9.930
93489SOL     OW82299   9.927   8.141   2.215
93489SOL    HW182300   9.968   8.087   2.148
93489SOL    HW282301   9.903   8.222   2.168
93490SOL     OW82302   1.562   6.198   5.679
93490SOL    HW182303   1.585   6.183   5.588
93490SOL    HW282304   1.622   6.142   5.728
93491SOL     OW82305   2.463   2.099   4.535
93491SOL    HW182306   2.387   2.157   4.527
93491SOL    HW282307   2.448   2.050   4.616
93492SOL     OW82308   6.903   5.846   4.856
93492SOL    HW182309   6.833   5.828   4.794
93492SOL    HW282310   6.863   5.904   4.921
93493SOL     OW82311  11.643   2.338  11.958
93493SOL    HW182312  11.731   2.321  11.993
93493SOL    HW282313  11.620   2.424  11.992
93494SOL     OW82314   5.854   4.510  14.674
93494SOL    HW182315   5.880   4.435  14.621
93494SOL    HW282316   5.875   4.485  14.764
93495SOL     OW82317   9.411  12.979   2.574
93495SOL    HW182318   9.386  13.051   2.516
93495SOL    HW282319   9.493  13.008   2.615
93496SOL     OW82320   4.260   5.245   8.284
93496SOL    HW182321   4.231   5.261   8.374
93496SOL    HW282322   4.220   5.317   8.233
93497SOL     OW82323  11.263   0.298   3.133
93497SOL    HW182324  11.289   0.375   3.081
93497SOL    HW282325  11.338   0.239   3.127
93498SOL     OW82326  13.604  12.656   3.558
93498SOL    HW182327  13.693  12.641   3.524
93498SOL    HW282328  13.600  12.604   3.638
93499SOL     OW82329   0.003   9.318   1.562
93499SOL    HW182330  14.854   9.395   1.615
93499SOL    HW282331  14.872   9.245   1.624
93500SOL     OW82332   2.503   9.450   9.445
93500SOL    HW182333   2.468   9.362   9.434
93500SOL    HW282334   2.526   9.455   9.538
93501SOL     OW82335   3.488   0.768   6.024
93501SOL    HW182336   3.440   0.779   5.942
93501SOL    HW282337   3.563   0.826   6.015
93502SOL     OW82338   0.481  13.391  11.925
93502SOL    HW182339   0.411  13.437  11.878
93502SOL    HW282340   0.515  13.456  11.987
93503SOL     OW82341  13.322   1.287   8.395
93503SOL    HW182342  13.262   1.317   8.463
93503SOL    HW282343  13.286   1.203   8.366
93504SOL     OW82344   0.099  10.527   4.511
93504SOL    HW182345   0.044  10.448   4.505
93504SOL    HW282346   0.042  10.598   4.480
93505SOL     OW82347   7.817   1.436   3.051
93505SOL    HW182348   7.843   1.365   2.991
93505SOL    HW282349   7.895   1.451   3.105
93506SOL     OW82350   1.290   3.179   1.894
93506SOL    HW182351   1.268   3.176   1.801
93506SOL    HW282352   1.380   3.148   1.899
93507SOL     OW82353   0.245   9.109   0.455
93507SOL    HW182354   0.254   9.174   0.525
93507SOL    HW282355   0.202   9.156   0.384
93508SOL     OW82356   5.360   3.330  11.321
93508SOL    HW182357   5.309   3.266  11.370
93508SOL    HW282358   5.370   3.291  11.234
93509SOL     OW82359   4.465   4.738   8.971
93509SOL    HW182360   4.393   4.737   9.033
93509SOL    HW282361   4.455   4.657   8.920
93510SOL     OW82362   9.874  12.792   9.054
93510SOL    HW182363   9.889  12.698   9.057
93510SOL    HW282364   9.819  12.810   9.130
93511SOL     OW82365   7.323   4.172   5.941
93511SOL    HW182366   7.257   4.183   5.873
93511SOL    HW282367   7.282   4.116   6.006
93512SOL     OW82368  14.459   0.003   7.053
93512SOL    HW182369  14.489  14.863   6.963
93512SOL    HW282370  14.488  14.797   7.099
93513SOL     OW82371  13.535  14.496   0.476
93513SOL    HW182372  13.499  14.523   0.560
93513SOL    HW282373  13.615  14.547   0.467
93514SOL     OW82374   0.351  11.364  10.161
93514SOL    HW182375   0.338  11.450  10.200
93514SOL    HW282376   0.297  11.305  10.213
93515SOL     OW82377   4.800   0.112   4.780
93515SOL    HW182378   4.755   0.168   4.718
93515SOL    HW282379   4.734   0.092   4.846
93516SOL     OW82380   2.163   2.217  12.886
93516SOL    HW182381   2.198   2.181  12.968
93516SOL    HW282382   2.226   2.283  12.860
93517SOL     OW82383   6.881   7.333   0.045
93517SOL    HW182384   6.953   7.385   0.010
93517SOL    HW282385   6.884   7.347   0.139
93518SOL     OW82386  12.540   9.034   1.356
93518SOL    HW182387  12.467   9.083   1.393
93518SOL    HW282388  12.591   9.005   1.433
93519SOL     OW82389  13.220   3.314   9.691
93519SOL    HW182390  13.291   3.250   9.687
93519SOL    HW282391  13.140   3.261   9.691
93520SOL     OW82392   2.158   6.704  14.670
93520SOL    HW182393   2.146   6.669  14.582
93520SOL    HW282394   2.072   6.741  14.693
93521SOL     OW82395   9.645   1.329   7.241
93521SOL    HW182396   9.632   1.279   7.161
93521SOL    HW282397   9.589   1.406   7.231
93522SOL     OW82398  11.592   9.875   5.488
93522SOL    HW182399  11.636   9.955   5.517
93522SOL    HW282400  11.501   9.900   5.478
93523SOL     OW82401   2.924   1.703   0.099
93523SOL    HW182402   2.891   1.775   0.045
93523SOL    HW282403   3.003   1.673   0.054
93524SOL     OW82404   7.298  10.862  14.332
93524SOL    HW182405   7.332  10.934  14.384
93524SOL    HW282406   7.368  10.841  14.270
93525SOL     OW82407   8.656   9.508   3.896
93525SOL    HW182408   8.673   9.601   3.883
93525SOL    HW282409   8.705   9.465   3.825
93526SOL     OW82410   5.347  13.447  11.175
93526SOL    HW182411   5.320  13.538  11.159
93526SOL    HW282412   5.278  13.394  11.135
93527SOL     OW82413   1.877   9.583   6.312
93527SOL    HW182414   1.878   9.496   6.273
93527SOL    HW282415   1.811   9.631   6.261
93528SOL     OW82416  11.729   1.900   9.756
93528SOL    HW182417  11.730   1.806   9.740
93528SOL    HW282418  11.784   1.912   9.833
93529SOL     OW82419  13.579   9.507   5.451
93529SOL    HW182420  13.548   9.477   5.536
93529SOL    HW282421  13.500   9.534   5.405
93530SOL     OW82422  10.013   5.940   3.416
93530SOL    HW182423   9.973   5.859   3.385
93530SOL    HW282424   9.949   6.008   3.396
93531SOL     OW82425  11.298  11.670   7.147
93531SOL    HW182426  11.203  11.681   7.137
93531SOL    HW282427  11.328  11.754   7.183
93532SOL     OW82428   8.012  10.075  10.667
93532SOL    HW182429   8.057  10.099  10.748
93532SOL    HW282430   7.920  10.072  10.691
93533SOL     OW82431  13.151   7.334   8.853
93533SOL    HW182432  13.228   7.303   8.901
93533SOL    HW282433  13.108   7.394   8.914
93534SOL     OW82434   1.018  13.377   4.152
93534SOL    HW182435   1.005  13.322   4.075
93534SOL    HW282436   1.112  13.395   4.152
93535SOL     OW82437   7.471   5.714   7.463
93535SOL    HW182438   7.508   5.789   7.509
93535SOL    HW282439   7.547   5.671   7.424
93536SOL     OW82440   7.043   0.203   3.787
93536SOL    HW182441   7.070   0.285   3.745
93536SOL    HW282442   6.962   0.225   3.832
93537SOL     OW82443  11.161   7.482   1.068
93537SOL    HW182444  11.181   7.411   1.129
93537SOL    HW282445  11.117   7.438   0.995
93538SOL     OW82446   9.164   3.600   8.915
93538SOL    HW182447   9.230   3.666   8.895
93538SOL    HW282448   9.138   3.619   9.005
93539SOL     OW82449   8.019  12.848   1.181
93539SOL    HW182450   8.019  12.876   1.273
93539SOL    HW282451   8.075  12.912   1.137
93540SOL     OW82452   7.741   3.804   9.159
93540SOL    HW182453   7.724   3.718   9.120
93540SOL    HW282454   7.733   3.790   9.253
93541SOL     OW82455   3.565  10.395   4.076
93541SOL    HW182456   3.494  10.351   4.122
93541SOL    HW282457   3.560  10.363   3.986
93542SOL     OW82458   6.806  12.697  14.455
93542SOL    HW182459   6.848  12.761  14.513
93542SOL    HW282460   6.722  12.737  14.432
93543SOL     OW82461   4.506   8.170   9.320
93543SOL    HW182462   4.517   8.079   9.292
93543SOL    HW282463   4.593   8.209   9.309
93544SOL     OW82464   0.037  12.944   2.343
93544SOL    HW182465   0.060  12.868   2.291
93544SOL    HW282466   0.095  13.013   2.311
93545SOL     OW82467  10.451  13.103  14.331
93545SOL    HW182468  10.367  13.147  14.341
93545SOL    HW282469  10.482  13.089  14.420
93546SOL     OW82470   0.316   3.368  13.779
93546SOL    HW182471   0.284   3.342  13.693
93546SOL    HW282472   0.393   3.313  13.793
93547SOL     OW82473   2.003  10.755   4.076
93547SOL    HW182474   2.004  10.713   3.989
93547SOL    HW282475   1.977  10.684   4.136
93548SOL     OW82476   9.349   5.669  10.389
93548SOL    HW182477   9.333   5.666  10.483
93548SOL    HW282478   9.309   5.751  10.360
93549SOL     OW82479   0.858  14.421  11.524
93549SOL    HW182480   0.823  14.425  11.613
93549SOL    HW282481   0.794  14.370  11.475
93550SOL     OW82482   9.751   4.260   5.828
93550SOL    HW182483   9.728   4.170   5.849
93550SOL    HW282484   9.718   4.311   5.902
93551SOL     OW82485  13.550   8.611   4.703
93551SOL    HW182486  13.574   8.581   4.791
93551SOL    HW282487  13.496   8.541   4.668
93552SOL     OW82488   9.907  10.349   3.982
93552SOL    HW182489   9.986  10.344   4.036
93552SOL    HW282490   9.845  10.291   4.024
93553SOL     OW82491   0.805   0.171   3.174
93553SOL    HW182492   0.813   0.213   3.088
93553SOL    HW282493   0.834   0.238   3.236
93554SOL     OW82494  12.640   7.622   3.732
93554SOL    HW182495  12.637   7.603   3.638
93554SOL    HW282496  12.626   7.716   3.737
93555SOL     OW82497  13.928   7.002   0.010
93555SOL    HW182498  13.879   7.043   0.082
93555SOL    HW282499  13.965   7.076  14.835
93556SOL     OW82500   2.446   5.525   8.232
93556SOL    HW182501   2.471   5.616   8.246
93556SOL    HW282502   2.522   5.486   8.189
93557SOL     OW82503  12.986   9.899  11.024
93557SOL    HW182504  12.917   9.834  11.041
93557SOL    HW282505  13.044   9.858  10.961
93558SOL     OW82506   4.049   0.355  13.434
93558SOL    HW182507   4.106   0.431  13.441
93558SOL    HW282508   3.967   0.382  13.476
93559SOL     OW82509   9.724   5.697   4.784
93559SOL    HW182510   9.647   5.639   4.789
93559SOL    HW282511   9.689   5.784   4.802
93560SOL     OW82512   1.626   1.521  11.716
93560SOL    HW182513   1.615   1.470  11.796
93560SOL    HW282514   1.610   1.612  11.742
93561SOL     OW82515   7.015   3.047  11.585
93561SOL    HW182516   6.952   3.104  11.542
93561SOL    HW282517   7.095   3.056  11.533
93562SOL     OW82518   8.357  10.371   1.147
93562SOL    HW182519   8.326  10.454   1.112
93562SOL    HW282520   8.451  10.384   1.160
93563SOL     OW82521  14.073   0.251  13.357
93563SOL    HW182522  14.045   0.319  13.296
93563SOL    HW282523  13.994   0.230  13.407
93564SOL     OW82524   7.993   7.344  14.695
93564SOL    HW182525   7.903   7.376  14.696
93564SOL    HW282526   8.009   7.312  14.783
93565SOL     OW82527   9.580   9.419   2.602
93565SOL    HW182528   9.592   9.407   2.696
93565SOL    HW282529   9.519   9.349   2.577
93566SOL     OW82530   4.182   6.569  10.709
93566SOL    HW182531   4.154   6.502  10.771
93566SOL    HW282532   4.172   6.528  10.623
93567SOL     OW82533   1.858   8.434   8.978
93567SOL    HW182534   1.918   8.440   8.904
93567SOL    HW282535   1.773   8.413   8.938
93568SOL     OW82536   7.763   9.323   7.108
93568SOL    HW182537   7.752   9.229   7.119
93568SOL    HW282538   7.727   9.362   7.188
93569SOL     OW82539   5.674  11.884   3.427
93569SOL    HW182540   5.768  11.885   3.410
93569SOL    HW282541   5.641  11.810   3.375
93570SOL     OW82542   9.839   0.997   0.276
93570SOL    HW182543   9.788   1.076   0.258
93570SOL    HW282544   9.802   0.932   0.216
93571SOL     OW82545   2.665   8.720   6.441
93571SOL    HW182546   2.596   8.666   6.402
93571SOL    HW282547   2.717   8.750   6.367
93572SOL     OW82548  13.090  11.656  10.119
93572SOL    HW182549  13.016  11.605  10.086
93572SOL    HW282550  13.119  11.708  10.044
93573SOL     OW82551  11.496   1.142  13.429
93573SOL    HW182552  11.580   1.105  13.458
93573SOL    HW282553  11.435   1.121  13.500
93574SOL     OW82554   6.524  13.560   4.026
93574SOL    HW182555   6.440  13.586   4.064
93574SOL    HW282556   6.555  13.490   4.084
93575SOL     OW82557   7.229   3.331   3.621
93575SOL    HW182558   7.273   3.308   3.703
93575SOL    HW282559   7.141   3.356   3.647
93576SOL     OW82560   7.970   4.351   2.087
93576SOL    HW182561   8.001   4.260   2.083
93576SOL    HW282562   7.908   4.352   2.161
93577SOL     OW82563  13.944   6.610   8.404
93577SOL    HW182564  13.867   6.616   8.348
93577SOL    HW282565  14.011   6.661   8.359
93578SOL     OW82566   4.249   8.500  10.988
93578SOL    HW182567   4.188   8.572  10.970
93578SOL    HW282568   4.273   8.512  11.080
93579SOL     OW82569   5.911  14.053   5.296
93579SOL    HW182570   5.884  13.996   5.367
93579SOL    HW282571   5.929  13.994   5.223
93580SOL     OW82572   9.154  11.670  12.021
93580SOL    HW182573   9.078  11.613  12.008
93580SOL    HW282574   9.178  11.658  12.112
93581SOL     OW82575   5.164   7.647   7.438
93581SOL    HW182576   5.111   7.589   7.383
93581SOL    HW282577   5.220   7.693   7.377
93582SOL     OW82578  12.866  12.317   5.668
93582SOL    HW182579  12.872  12.223   5.686
93582SOL    HW282580  12.879  12.325   5.574
93583SOL     OW82581   6.297   3.844   3.802
93583SOL    HW182582   6.290   3.914   3.867
93583SOL    HW282583   6.283   3.763   3.851
93584SOL     OW82584   4.261  12.649  10.807
93584SOL    HW182585   4.282  12.556  10.811
93584SOL    HW282586   4.170  12.655  10.837
93585SOL     OW82587   6.963   2.177  12.524
93585SOL    HW182588   6.949   2.241  12.594
93585SOL    HW282589   6.883   2.179  12.473
93586SOL     OW82590  14.359   7.374   8.340
93586SOL    HW182591  14.335   7.439   8.406
93586SOL    HW282592  14.412   7.309   8.387
93587SOL     OW82593   7.210   8.970   4.640
93587SOL    HW182594   7.116   8.977   4.656
93587SOL    HW282595   7.225   9.025   4.564
93588SOL     OW82596   2.655  12.548  10.085
93588SOL    HW182597   2.566  12.582  10.092
93588SOL    HW282598   2.652  12.486  10.013
93589SOL     OW82599  13.999   4.477   2.964
93589SOL    HW182600  13.964   4.413   2.902
93589SOL    HW282601  14.041   4.543   2.909
93590SOL     OW82602   8.969   4.307   7.521
93590SOL    HW182603   9.005   4.335   7.437
93590SOL    HW282604   8.875   4.302   7.506
93591SOL     OW82605   1.505   7.090  14.507
93591SOL    HW182606   1.560   7.051  14.439
93591SOL    HW282607   1.425   7.038  14.505
93592SOL     OW82608  12.764  12.260   8.808
93592SOL    HW182609  12.807  12.187   8.854
93592SOL    HW282610  12.807  12.263   8.723
93593SOL     OW82611   1.461   1.388   3.455
93593SOL    HW182612   1.463   1.422   3.365
93593SOL    HW282613   1.379   1.420   3.491
93594SOL     OW82614   1.263  14.180   3.998
93594SOL    HW182615   1.186  14.169   4.054
93594SOL    HW282616   1.326  14.226   4.053
93595SOL     OW82617   7.800   3.011   0.329
93595SOL    HW182618   7.816   2.932   0.381
93595SOL    HW282619   7.736   2.984   0.263
93596SOL     OW82620  14.045   6.386  11.853
93596SOL    HW182621  14.084   6.424  11.932
93596SOL    HW282622  14.001   6.307  11.884
93597SOL     OW82623   6.797  13.208  10.532
93597SOL    HW182624   6.781  13.116  10.556
93597SOL    HW282625   6.888  13.209  10.502
93598SOL     OW82626   5.020   2.502   3.102
93598SOL    HW182627   5.074   2.567   3.056
93598SOL    HW282628   4.955   2.554   3.149
93599SOL     OW82629   6.778   3.064  14.722
93599SOL    HW182630   6.694   3.041  14.762
93599SOL    HW282631   6.756   3.131  14.658
93600SOL     OW82632   9.106  14.525   1.710
93600SOL    HW182633   9.016  14.523   1.677
93600SOL    HW282634   9.100  14.573   1.792
93601SOL     OW82635   1.699   7.537  13.674
93601SOL    HW182636   1.635   7.595  13.716
93601SOL    HW282637   1.731   7.588  13.600
93602SOL     OW82638   2.655   6.057   1.294
93602SOL    HW182639   2.598   6.086   1.223
93602SOL    HW282640   2.728   6.119   1.292
93603SOL     OW82641   6.748   1.545  12.778
93603SOL    HW182642   6.691   1.473  12.750
93603SOL    HW282643   6.694   1.595  12.840
93604SOL     OW82644   9.874   2.982   5.683
93604SOL    HW182645   9.782   2.960   5.701
93604SOL    HW282646   9.923   2.932   5.748
93605SOL     OW82647   7.862  14.720   3.669
93605SOL    HW182648   7.766  14.720   3.664
93605SOL    HW282649   7.881  14.772   3.747
93606SOL     OW82650  10.680  13.029  12.430
93606SOL    HW182651  10.664  12.993  12.517
93606SOL    HW282652  10.732  12.962  12.385
93607SOL     OW82653   1.616   2.752   2.547
93607SOL    HW182654   1.581   2.838   2.526
93607SOL    HW282655   1.612   2.703   2.464
93608SOL     OW82656   1.464   9.543  11.017
93608SOL    HW182657   1.506   9.459  11.036
93608SOL    HW282658   1.535   9.607  11.021
93609SOL     OW82659  13.042   7.046   8.921
93609SOL    HW182660  13.089   7.128   8.905
93609SOL    HW282661  12.950   7.071   8.919
93610SOL     OW82662  14.826   9.689   8.908
93610SOL    HW182663  14.833   9.735   8.825
93610SOL    HW282664  14.868   9.748   8.972
93611SOL     OW82665  12.486   0.530   9.857
93611SOL    HW182666  12.560   0.495   9.907
93611SOL    HW282667  12.515   0.524   9.766
93612SOL     OW82668   3.792  12.344   0.292
93612SOL    HW182669   3.841  12.289   0.353
93612SOL    HW282670   3.723  12.287   0.258
93613SOL     OW82671  10.549   2.908   8.920
93613SOL    HW182672  10.502   2.937   8.842
93613SOL    HW282673  10.567   2.815   8.905
93614SOL     OW82674   6.899   1.649   0.472
93614SOL    HW182675   6.892   1.613   0.383
93614SOL    HW282676   6.845   1.590   0.525
93615SOL     OW82677   4.303   4.008   3.339
93615SOL    HW182678   4.242   4.044   3.403
93615SOL    HW282679   4.349   4.084   3.304
93616SOL     OW82680   0.480  13.138   4.968
93616SOL    HW182681   0.501  13.103   5.054
93616SOL    HW282682   0.385  13.146   4.968
93617SOL     OW82683  13.122  10.554  11.877
93617SOL    HW182684  13.100  10.461  11.874
93617SOL    HW282685  13.116  10.582  11.786
93618SOL     OW82686   1.947  10.447   0.648
93618SOL    HW182687   1.944  10.454   0.744
93618SOL    HW282688   1.973  10.356   0.632
93619SOL     OW82689  13.830  14.462   4.571
93619SOL    HW182690  13.891  14.503   4.510
93619SOL    HW282691  13.865  14.374   4.585
93620SOL     OW82692   9.611   7.405  10.812
93620SOL    HW182693   9.531   7.436  10.770
93620SOL    HW282694   9.631   7.323  10.767
93621SOL     OW82695   6.202   3.317   2.819
93621SOL    HW182696   6.272   3.363   2.865
93621SOL    HW282697   6.196   3.232   2.862
93622SOL     OW82698   8.002   5.359  10.371
93622SOL    HW182699   7.926   5.395  10.324
93622SOL    HW282700   7.974   5.272  10.400
93623SOL     OW82701  10.569   7.805   6.472
93623SOL    HW182702  10.564   7.710   6.460
93623SOL    HW282703  10.520   7.821   6.553
93624SOL     OW82704   6.179   6.383  14.385
93624SOL    HW182705   6.235   6.408  14.458
93624SOL    HW282706   6.092   6.417  14.408
93625SOL     OW82707   4.356   8.276   0.841
93625SOL    HW182708   4.262   8.260   0.849
93625SOL    HW282709   4.366   8.371   0.850
93626SOL     OW82710   6.808   3.997   2.304
93626SOL    HW182711   6.827   3.906   2.327
93626SOL    HW282712   6.893   4.041   2.310
93627SOL     OW82713   8.866   5.998  11.992
93627SOL    HW182714   8.775   6.010  11.965
93627SOL    HW282715   8.892   5.914  11.954
93628SOL     OW82716   7.804   7.145   4.211
93628SOL    HW182717   7.872   7.204   4.180
93628SOL    HW282718   7.845   7.095   4.281
93629SOL     OW82719   7.547  12.584  13.449
93629SOL    HW182720   7.607  12.533  13.502
93629SOL    HW282721   7.478  12.612  13.509
93630SOL     OW82722   8.489   3.345   8.529
93630SOL    HW182723   8.568   3.323   8.578
93630SOL    HW282724   8.492   3.288   8.452
93631SOL     OW82725   0.839  13.279  10.373
93631SOL    HW182726   0.934  13.284  10.368
93631SOL    HW282727   0.812  13.364  10.408
93632SOL     OW82728   2.878   8.345   3.885
93632SOL    HW182729   2.962   8.328   3.927
93632SOL    HW282730   2.813   8.307   3.945
93633SOL     OW82731   5.551  14.825  10.581
93633SOL    HW182732   5.580   0.013  10.649
93633SOL    HW282733   5.630  14.777  10.556
93634SOL     OW82734   4.245   0.021   0.843
93634SOL    HW182735   4.156  14.861   0.832
93634SOL    HW282736   4.240   0.077   0.920
93635SOL     OW82737  14.238  11.277  12.230
93635SOL    HW182738  14.178  11.242  12.164
93635SOL    HW282739  14.294  11.202  12.253
93636SOL     OW82740   3.819   9.474   0.678
93636SOL    HW182741   3.732   9.515   0.675
93636SOL    HW282742   3.805   9.387   0.640
93637SOL     OW82743  11.191   9.415  13.463
93637SOL    HW182744  11.126   9.386  13.528
93637SOL    HW282745  11.160   9.501  13.435
93638SOL     OW82746  13.854   0.571   8.295
93638SOL    HW182747  13.903   0.595   8.373
93638SOL    HW282748  13.787   0.510   8.326
93639SOL     OW82749  10.814   4.934   2.919
93639SOL    HW182750  10.838   4.844   2.943
93639SOL    HW282751  10.724   4.943   2.952
93640SOL     OW82752   7.905   8.470  11.208
93640SOL    HW182753   7.992   8.444  11.177
93640SOL    HW282754   7.849   8.395  11.187
93641SOL     OW82755   1.242  14.777   4.109
93641SOL    HW182756   1.247  14.821   4.024
93641SOL    HW282757   1.332  14.768   4.138
93642SOL     OW82758  10.066   6.955   0.571
93642SOL    HW182759  10.103   6.923   0.653
93642SOL    HW282760  10.028   7.040   0.593
93643SOL     OW82761  11.769   3.624   4.752
93643SOL    HW182762  11.684   3.640   4.711
93643SOL    HW282763  11.788   3.703   4.802
93644SOL     OW82764   2.405   9.222   0.342
93644SOL    HW182765   2.316   9.221   0.376
93644SOL    HW282766   2.458   9.261   0.411
93645SOL     OW82767   1.471  12.776   4.412
93645SOL    HW182768   1.534  12.756   4.482
93645SOL    HW282769   1.393  12.726   4.435
93646SOL     OW82770  13.688  11.756  14.632
93646SOL    HW182771  13.674  11.817  14.705
93646SOL    HW282772  13.600  11.725  14.610
93647SOL     OW82773   5.443   5.614  10.881
93647SOL    HW182774   5.531   5.605  10.918
93647SOL    HW282775   5.397   5.535  10.909
93648SOL     OW82776   0.028  13.276  10.788
93648SOL    HW182777   0.036  13.192  10.744
93648SOL    HW282778   0.054  13.340  10.722
93649SOL     OW82779  12.063  12.313  13.012
93649SOL    HW182780  12.144  12.352  12.982
93649SOL    HW282781  11.995  12.373  12.982
93650SOL     OW82782   7.716   1.939   6.417
93650SOL    HW182783   7.696   1.934   6.324
93650SOL    HW282784   7.745   2.029   6.432
93651SOL     OW82785   5.758   7.121   9.261
93651SOL    HW182786   5.722   7.210   9.255
93651SOL    HW282787   5.827   7.128   9.327
93652SOL     OW82788   8.640  13.227   3.739
93652SOL    HW182789   8.703  13.185   3.797
93652SOL    HW282790   8.566  13.165   3.735
93653SOL     OW82791   5.276   8.305   0.301
93653SOL    HW182792   5.319   8.300   0.215
93653SOL    HW282793   5.348   8.320   0.362
93654SOL     OW82794  13.352   8.067   8.123
93654SOL    HW182795  13.294   8.017   8.180
93654SOL    HW282796  13.310   8.065   8.037
93655SOL     OW82797   2.742  11.611   8.105
93655SOL    HW182798   2.824  11.630   8.149
93655SOL    HW282799   2.675  11.630   8.170
93656SOL     OW82800  11.697   9.795  11.569
93656SOL    HW182801  11.740   9.758  11.646
93656SOL    HW282802  11.746   9.759  11.495
93657SOL     OW82803  12.103   6.375  11.668
93657SOL    HW182804  12.030   6.335  11.622
93657SOL    HW282805  12.105   6.465  11.636
93658SOL     OW82806   2.580   8.192   2.925
93658SOL    HW182807   2.581   8.278   2.882
93658SOL    HW282808   2.671   8.176   2.949
93659SOL     OW82809   9.187   7.632   1.324
93659SOL    HW182810   9.174   7.680   1.242
93659SOL    HW282811   9.271   7.587   1.311
93660SOL     OW82812   7.746   5.924   8.085
93660SOL    HW182813   7.658   5.896   8.060
93660SOL    HW282814   7.741   5.938   8.180
93661SOL     OW82815   2.965   7.082   9.802
93661SOL    HW182816   2.885   7.073   9.854
93661SOL    HW282817   2.968   7.175   9.778
93662SOL     OW82818  12.337   4.184   5.600
93662SOL    HW182819  12.324   4.107   5.545
93662SOL    HW282820  12.341   4.149   5.689
93663SOL     OW82821   5.782   9.391   0.866
93663SOL    HW182822   5.739   9.457   0.920
93663SOL    HW282823   5.875   9.417   0.866
93664SOL     OW82824   1.765   6.249  13.640
93664SOL    HW182825   1.827   6.321  13.631
93664SOL    HW282826   1.682   6.287  13.610
93665SOL     OW82827   8.718   3.055   2.669
93665SOL    HW182828   8.747   3.064   2.578
93665SOL    HW282829   8.777   3.112   2.718
93666SOL     OW82830   8.071  10.376  12.632
93666SOL    HW182831   8.020  10.295  12.635
93666SOL    HW282832   8.044  10.420  12.552
93667SOL     OW82833  14.271   7.550   4.627
93667SOL    HW182834  14.213   7.588   4.561
93667SOL    HW282835  14.344   7.611   4.632
93668SOL     OW82836   5.202  10.620  12.526
93668SOL    HW182837   5.152  10.698  12.549
93668SOL    HW282838   5.218  10.577  12.610
93669SOL     OW82839   1.428   9.851   8.054
93669SOL    HW182840   1.390   9.911   7.990
93669SOL    HW282841   1.363   9.782   8.065
93670SOL     OW82842   8.153  12.503   4.349
93670SOL    HW182843   8.057  12.498   4.354
93670SOL    HW282844   8.178  12.555   4.425
93671SOL     OW82845  10.800   4.172  11.962
93671SOL    HW182846  10.889   4.173  11.927
93671SOL    HW282847  10.801   4.101  12.027
93672SOL     OW82848   0.018   2.941   4.324
93672SOL    HW182849  14.814   2.944   4.381
93672SOL    HW282850   0.088   2.981   4.375
93673SOL     OW82851   3.927   6.415  11.141
93673SOL    HW182852   4.013   6.453  11.124
93673SOL    HW282853   3.893   6.393  11.054
93674SOL     OW82854   8.623   0.651   7.125
93674SOL    HW182855   8.641   0.560   7.101
93674SOL    HW282856   8.594   0.691   7.043
93675SOL     OW82857  10.601   5.539  12.254
93675SOL    HW182858  10.529   5.600  12.237
93675SOL    HW282859  10.664   5.590  12.305
93676SOL     OW82860   3.671  11.629   0.665
93676SOL    HW182861   3.606  11.560   0.681
93676SOL    HW282862   3.749  11.581   0.637
93677SOL     OW82863   3.357   7.163   0.993
93677SOL    HW182864   3.301   7.163   1.070
93677SOL    HW282865   3.396   7.076   0.991
93678SOL     OW82866  10.436  10.534   8.496
93678SOL    HW182867  10.443  10.616   8.447
93678SOL    HW282868  10.441  10.560   8.588
93679SOL     OW82869  12.631   3.984   2.913
93679SOL    HW182870  12.716   3.993   2.869
93679SOL    HW282871  12.613   3.890   2.913
93680SOL     OW82872   9.086   7.628  11.712
93680SOL    HW182873   9.042   7.602  11.793
93680SOL    HW282874   9.046   7.574  11.644
93681SOL     OW82875   9.648   4.330  12.120
93681SOL    HW182876   9.607   4.407  12.081
93681SOL    HW282877   9.663   4.354  12.211
93682SOL     OW82878   3.630   0.301   5.647
93682SOL    HW182879   3.706   0.256   5.610
93682SOL    HW282880   3.664   0.387   5.674
93683SOL     OW82881  12.641  11.876  10.097
93683SOL    HW182882  12.730  11.860  10.066
93683SOL    HW282883  12.616  11.795  10.143
93684SOL     OW82884   3.311   6.713   9.783
93684SOL    HW182885   3.366   6.635   9.788
93684SOL    HW282886   3.224   6.683   9.808
93685SOL     OW82887   7.585   7.149   0.058
93685SOL    HW182888   7.585   7.069   0.005
93685SOL    HW282889   7.635   7.126   0.136
93686SOL     OW82890   1.164   4.333  11.345
93686SOL    HW182891   1.190   4.308  11.256
93686SOL    HW282892   1.122   4.419  11.334
93687SOL     OW82893   7.523  11.022   9.786
93687SOL    HW182894   7.491  11.078   9.857
93687SOL    HW282895   7.449  11.016   9.726
93688SOL     OW82896   4.064   1.483  11.595
93688SOL    HW182897   4.107   1.398  11.589
93688SOL    HW282898   4.091   1.530  11.516
93689SOL     OW82899   1.349  12.257   6.190
93689SOL    HW182900   1.329  12.335   6.241
93689SOL    HW282901   1.298  12.187   6.231
93690SOL     OW82902  13.230  12.487   3.271
93690SOL    HW182903  13.303  12.473   3.331
93690SOL    HW282904  13.168  12.541   3.321
93691SOL     OW82905   1.440   8.639   4.668
93691SOL    HW182906   1.368   8.702   4.660
93691SOL    HW282907   1.503   8.666   4.601
93692SOL     OW82908   6.505   6.983   4.161
93692SOL    HW182909   6.584   7.037   4.151
93692SOL    HW282910   6.521   6.933   4.242
93693SOL     OW82911   9.441   0.040  10.198
93693SOL    HW182912   9.413  14.822  10.184
93693SOL    HW282913   9.399   0.065  10.281
93694SOL     OW82914  13.317  11.110   7.205
93694SOL    HW182915  13.300  11.112   7.111
93694SOL    HW282916  13.322  11.202   7.230
93695SOL     OW82917   2.633   3.393   1.048
93695SOL    HW182918   2.699   3.328   1.022
93695SOL    HW282919   2.649   3.406   1.142
93696SOL     OW82920  10.713   3.992   6.004
93696SOL    HW182921  10.742   4.025   6.089
93696SOL    HW282922  10.729   4.064   5.943
93697SOL     OW82923   6.978   5.579   2.826
93697SOL    HW182924   6.916   5.594   2.897
93697SOL    HW282925   7.036   5.510   2.859
93698SOL     OW82926   3.653   5.696  10.640
93698SOL    HW182927   3.570   5.729  10.607
93698SOL    HW282928   3.650   5.602  10.622
93699SOL     OW82929   6.262  11.890  12.570
93699SOL    HW182930   6.220  11.924  12.491
93699SOL    HW282931   6.340  11.944  12.580
93700SOL     OW82932   4.346  14.070   6.931
93700SOL    HW182933   4.355  14.059   7.026
93700SOL    HW282934   4.421  14.123   6.906
93701SOL     OW82935  14.640  10.682   4.262
93701SOL    HW182936  14.585  10.723   4.329
93701SOL    HW282937  14.601  10.596   4.248
93702SOL     OW82938   7.238   3.757   2.302
93702SOL    HW182939   7.196   3.757   2.216
93702SOL    HW282940   7.165   3.757   2.364
93703SOL     OW82941   3.963   9.617   0.859
93703SOL    HW182942   3.928   9.550   0.801
93703SOL    HW282943   4.028   9.663   0.807
93704SOL     OW82944  11.486   2.289   0.282
93704SOL    HW182945  11.482   2.270   0.376
93704SOL    HW282946  11.411   2.345   0.266
93705SOL     OW82947   1.065   2.965   1.312
93705SOL    HW182948   1.151   2.997   1.287
93705SOL    HW282949   1.018   3.043   1.343
93706SOL     OW82950   4.515  10.836  12.311
93706SOL    HW182951   4.504  10.741  12.317
93706SOL    HW282952   4.599  10.848  12.267
93707SOL     OW82953  12.150   7.604   8.484
93707SOL    HW182954  12.228   7.565   8.522
93707SOL    HW282955  12.077   7.554   8.520
93708SOL     OW82956   3.585  13.088   8.803
93708SOL    HW182957   3.574  13.139   8.722
93708SOL    HW282958   3.669  13.118   8.839
93709SOL     OW82959  13.226   9.204  10.493
93709SOL    HW182960  13.267   9.163  10.418
93709SOL    HW282961  13.147   9.152  10.509
93710SOL     OW82962   6.978   3.212  10.510
93710SOL    HW182963   7.018   3.132  10.476
93710SOL    HW282964   6.951   3.189  10.599
93711SOL     OW82965  14.684   9.980   1.535
93711SOL    HW182966  14.621  10.000   1.604
93711SOL    HW282967  14.674  10.052   1.472
93712SOL     OW82968   4.346   6.672   2.258
93712SOL    HW182969   4.252   6.659   2.271
93712SOL    HW282970   4.381   6.584   2.242
93713SOL     OW82971   7.336  10.377  10.780
93713SOL    HW182972   7.370  10.331  10.703
93713SOL    HW282973   7.363  10.323  10.854
93714SOL     OW82974  11.806  11.354   2.176
93714SOL    HW182975  11.713  11.334   2.169
93714SOL    HW282976  11.845  11.274   2.213
93715SOL     OW82977   8.512  10.234   6.685
93715SOL    HW182978   8.535  10.156   6.634
93715SOL    HW282979   8.436  10.270   6.640
93716SOL     OW82980  12.572   2.962   2.420
93716SOL    HW182981  12.516   2.886   2.437
93716SOL    HW282982  12.544   3.027   2.484
93717SOL     OW82983   7.055  10.294   3.158
93717SOL    HW182984   7.129  10.252   3.115
93717SOL    HW282985   7.080  10.298   3.251
93718SOL     OW82986  10.648   8.982   4.747
93718SOL    HW182987  10.637   8.892   4.717
93718SOL    HW282988  10.596   8.988   4.827
93719SOL     OW82989   5.129   4.647   6.288
93719SOL    HW182990   5.100   4.678   6.374
93719SOL    HW282991   5.082   4.702   6.226
93720SOL     OW82992   5.368   0.360   9.941
93720SOL    HW182993   5.397   0.423  10.007
93720SOL    HW282994   5.364   0.276   9.987
93721SOL     OW82995   7.662  10.997   7.293
93721SOL    HW182996   7.728  11.065   7.304
93721SOL    HW282997   7.702  10.919   7.331
93722SOL     OW82998   7.131   6.348  13.102
93722SOL    HW182999   7.113   6.276  13.163
93722SOL    HW283000   7.179   6.412  13.154
93723SOL     OW83001  12.803  12.017   3.691
93723SOL    HW183002  12.717  12.037   3.654
93723SOL    HW283003  12.785  11.998   3.783
93724SOL     OW83004   7.549  11.847   1.267
93724SOL    HW183005   7.619  11.785   1.245
93724SOL    HW283006   7.594  11.921   1.306
93725SOL     OW83007   9.214  14.870   9.190
93725SOL    HW183008   9.171  14.823   9.262
93725SOL    HW283009   9.287   0.042   9.231
93726SOL     OW83010   7.858  13.466   5.525
93726SOL    HW183011   7.911  13.482   5.603
93726SOL    HW283012   7.771  13.444   5.559
93727SOL     OW83013   2.394   4.061   4.604
93727SOL    HW183014   2.359   3.986   4.652
93727SOL    HW283015   2.408   4.128   4.672
93728SOL     OW83016  11.171   4.439   0.696
93728SOL    HW183017  11.266   4.428   0.703
93728SOL    HW283018  11.140   4.360   0.651
93729SOL     OW83019   2.552   6.565   6.158
93729SOL    HW183020   2.457   6.571   6.145
93729SOL    HW283021   2.571   6.637   6.218
93730SOL     OW83022  12.321  11.764   3.575
93730SOL    HW183023  12.410  11.797   3.562
93730SOL    HW283024  12.267  11.842   3.584
93731SOL     OW83025   4.014   1.986   6.544
93731SOL    HW183026   3.962   1.906   6.553
93731SOL    HW283027   4.047   1.982   6.454
93732SOL     OW83028   7.513   8.483  12.055
93732SOL    HW183029   7.493   8.552  12.118
93732SOL    HW283030   7.430   8.471  12.007
93733SOL     OW83031   5.545   9.822   3.521
93733SOL    HW183032   5.591   9.780   3.593
93733SOL    HW283033   5.597   9.900   3.501
93734SOL     OW83034  13.153   9.041   4.140
93734SOL    HW183035  13.148   9.082   4.054
93734SOL    HW283036  13.095   9.095   4.195
93735SOL     OW83037   4.060   4.711  13.157
93735SOL    HW183038   4.101   4.659  13.226
93735SOL    HW283039   3.992   4.761  13.203
93736SOL     OW83040  12.756   9.249   2.075
93736SOL    HW183041  12.771   9.341   2.096
93736SOL    HW283042  12.713   9.252   1.989
93737SOL     OW83043  13.611   4.906   3.598
93737SOL    HW183044  13.697   4.927   3.634
93737SOL    HW283045  13.629   4.867   3.512
93738SOL     OW83046   6.853  13.049   1.661
93738SOL    HW183047   6.776  13.006   1.699
93738SOL    HW283048   6.823  13.081   1.576
93739SOL     OW83049   3.326  14.436   4.496
93739SOL    HW183050   3.235  14.445   4.468
93739SOL    HW283051   3.371  14.510   4.455
93740SOL     OW83052  12.924   9.608   9.124
93740SOL    HW183053  12.842   9.647   9.092
93740SOL    HW283054  12.896   9.540   9.185
93741SOL     OW83055   0.191   8.140  14.823
93741SOL    HW183056   0.284   8.160  14.812
93741SOL    HW283057   0.189   8.055  14.867
93742SOL     OW83058   4.002  13.751   2.924
93742SOL    HW183059   4.038  13.664   2.909
93742SOL    HW283060   3.956  13.773   2.843
93743SOL     OW83061   5.869   3.891   8.105
93743SOL    HW183062   5.792   3.862   8.154
93743SOL    HW283063   5.912   3.955   8.161
93744SOL     OW83064   7.494   4.236  14.384
93744SOL    HW183065   7.539   4.222  14.301
93744SOL    HW283066   7.479   4.331  14.387
93745SOL     OW83067   6.949   0.124   0.276
93745SOL    HW183068   6.954   0.208   0.230
93745SOL    HW283069   6.980   0.142   0.364
93746SOL     OW83070  11.217  11.234   7.587
93746SOL    HW183071  11.211  11.141   7.607
93746SOL    HW283072  11.195  11.240   7.494
93747SOL     OW83073   0.355  14.339  10.132
93747SOL    HW183074   0.349  14.309  10.223
93747SOL    HW283075   0.336  14.433  10.137
93748SOL     OW83076   6.179  12.485   2.017
93748SOL    HW183077   6.226  12.408   1.986
93748SOL    HW283078   6.110  12.450   2.074
93749SOL     OW83079   6.398   6.336   8.715
93749SOL    HW183080   6.480   6.320   8.763
93749SOL    HW283081   6.351   6.399   8.768
93750SOL     OW83082   4.156   6.464   3.214
93750SOL    HW183083   4.078   6.420   3.249
93750SOL    HW283084   4.179   6.528   3.281
93751SOL     OW83085   9.613   7.643   4.202
93751SOL    HW183086   9.543   7.597   4.248
93751SOL    HW283087   9.642   7.582   4.134
93752SOL     OW83088  11.991   4.449  13.325
93752SOL    HW183089  12.076   4.465  13.285
93752SOL    HW283090  11.987   4.510  13.399
93753SOL     OW83091   7.633  12.193   8.035
93753SOL    HW183092   7.570  12.129   8.003
93753SOL    HW283093   7.701  12.195   7.968
93754SOL     OW83094  10.956  11.549   9.752
93754SOL    HW183095  11.000  11.487   9.810
93754SOL    HW283096  10.885  11.585   9.805
93755SOL     OW83097  12.162  12.213   5.743
93755SOL    HW183098  12.130  12.207   5.833
93755SOL    HW283099  12.104  12.277   5.701
93756SOL     OW83100  12.877   2.981   2.011
93756SOL    HW183101  12.803   2.988   1.950
93756SOL    HW283102  12.836   2.976   2.097
93757SOL     OW83103  14.668  12.996   9.531
93757SOL    HW183104  14.643  12.959   9.615
93757SOL    HW283105  14.749  12.952   9.507
93758SOL     OW83106   5.145   1.549  14.267
93758SOL    HW183107   5.106   1.573  14.351
93758SOL    HW283108   5.071   1.539  14.207
93759SOL     OW83109   5.890   1.338   5.223
93759SOL    HW183110   5.800   1.314   5.202
93759SOL    HW283111   5.889   1.434   5.230
93760SOL     OW83112   6.758   2.719  14.712
93760SOL    HW183113   6.829   2.717  14.776
93760SOL    HW283114   6.766   2.805  14.670
93761SOL     OW83115   9.921   5.285   4.330
93761SOL    HW183116   9.922   5.190   4.319
93761SOL    HW283117   9.893   5.319   4.245
93762SOL     OW83118   8.511   4.919  12.039
93762SOL    HW183119   8.521   4.895  12.131
93762SOL    HW283120   8.523   5.014  12.037
93763SOL     OW83121  11.731   0.200   3.238
93763SOL    HW183122  11.800   0.266   3.245
93763SOL    HW283123  11.777   0.116   3.239
93764SOL     OW83124  12.417   5.929   4.495
93764SOL    HW183125  12.463   6.008   4.522
93764SOL    HW283126  12.457   5.905   4.411
93765SOL     OW83127   0.748   6.286   0.799
93765SOL    HW183128   0.805   6.210   0.787
93765SOL    HW283129   0.780   6.326   0.880
93766SOL     OW83130  10.909   8.031  11.667
93766SOL    HW183131  10.915   8.048  11.573
93766SOL    HW283132  10.818   8.052  11.689
93767SOL     OW83133  10.545  14.651   4.922
93767SOL    HW183134  10.579  14.664   5.011
93767SOL    HW283135  10.456  14.620   4.935
93768SOL     OW83136   3.282  10.946   9.669
93768SOL    HW183137   3.298  11.016   9.732
93768SOL    HW283138   3.249  10.874   9.722
93769SOL     OW83139   3.846  12.457   6.715
93769SOL    HW183140   3.834  12.545   6.680
93769SOL    HW283141   3.935  12.457   6.750
93770SOL     OW83142   4.080   8.462   7.147
93770SOL    HW183143   4.115   8.432   7.231
93770SOL    HW283144   4.151   8.513   7.108
93771SOL     OW83145   1.380   8.927  13.418
93771SOL    HW183146   1.455   8.984  13.406
93771SOL    HW283147   1.355   8.937  13.510
93772SOL     OW83148   5.034  11.381   8.185
93772SOL    HW183149   5.015  11.415   8.272
93772SOL    HW283150   5.101  11.314   8.199
93773SOL     OW83151   2.803   1.636  14.484
93773SOL    HW183152   2.850   1.697  14.428
93773SOL    HW283153   2.799   1.555  14.433
93774SOL     OW83154  10.185  12.065  14.629
93774SOL    HW183155  10.121  12.114  14.578
93774SOL    HW283156  10.134  12.001  14.678
93775SOL     OW83157   3.736   7.897   1.198
93775SOL    HW183158   3.788   7.854   1.131
93775SOL    HW283159   3.645   7.877   1.176
93776SOL     OW83160   9.360   3.039  14.838
93776SOL    HW183161   9.417   2.967  14.812
93776SOL    HW283162   9.389   3.061   0.054
93777SOL     OW83163   3.360  10.588   2.041
93777SOL    HW183164   3.331  10.536   1.966
93777SOL    HW283165   3.284  10.641   2.064
93778SOL     OW83166   8.035  13.324   5.351
93778SOL    HW183167   7.976  13.390   5.387
93778SOL    HW283168   8.037  13.254   5.417
93779SOL     OW83169  12.267   0.499   0.151
93779SOL    HW183170  12.247   0.446   0.229
93779SOL    HW283171  12.191   0.487   0.094
93780SOL     OW83172  13.008   6.773   8.017
93780SOL    HW183173  12.930   6.825   8.037
93780SOL    HW283174  13.070   6.835   7.981
93781SOL     OW83175   8.453   3.613   5.261
93781SOL    HW183176   8.440   3.573   5.347
93781SOL    HW283177   8.475   3.704   5.280
93782SOL     OW83178   5.450   5.772   9.482
93782SOL    HW183179   5.499   5.712   9.425
93782SOL    HW283180   5.365   5.781   9.439
93783SOL     OW83181   8.826   6.479  11.107
93783SOL    HW183182   8.821   6.384  11.118
93783SOL    HW283183   8.865   6.510  11.189
93784SOL     OW83184   9.623   9.357   7.549
93784SOL    HW183185   9.529   9.347   7.535
93784SOL    HW283186   9.641   9.302   7.626
93785SOL     OW83187   3.173  14.254   4.201
93785SOL    HW183188   3.114  14.301   4.261
93785SOL    HW283189   3.230  14.322   4.165
93786SOL     OW83190   7.724   9.422   8.158
93786SOL    HW183191   7.734   9.339   8.205
93786SOL    HW283192   7.728   9.398   8.066
93787SOL     OW83193   4.562   3.284   2.592
93787SOL    HW183194   4.512   3.305   2.513
93787SOL    HW283195   4.644   3.248   2.559
93788SOL     OW83196   2.587  13.579   2.764
93788SOL    HW183197   2.534  13.628   2.702
93788SOL    HW283198   2.677  13.593   2.736
93789SOL     OW83199  10.273   5.993   8.675
93789SOL    HW183200  10.181   6.011   8.657
93789SOL    HW283201  10.315   5.996   8.590
93790SOL     OW83202  12.304   0.184   5.090
93790SOL    HW183203  12.293   0.228   5.174
93790SOL    HW283204  12.345   0.100   5.111
93791SOL     OW83205  12.553   3.908   9.689
93791SOL    HW183206  12.540   3.904   9.594
93791SOL    HW283207  12.588   3.995   9.705
93792SOL     OW83208   7.746  10.035  11.836
93792SOL    HW183209   7.823   9.996  11.795
93792SOL    HW283210   7.679  10.036  11.767
93793SOL     OW83211   1.780   3.789   5.385
93793SOL    HW183212   1.839   3.839   5.442
93793SOL    HW283213   1.719   3.855   5.352
93794SOL     OW83214  11.060  14.055   6.829
93794SOL    HW183215  11.036  13.967   6.800
93794SOL    HW283216  10.986  14.085   6.881
93795SOL     OW83217   8.918   2.432   4.601
93795SOL    HW183218   8.845   2.428   4.538
93795SOL    HW283219   8.994   2.453   4.547
93796SOL     OW83220  12.320   9.487   4.507
93796SOL    HW183221  12.378   9.436   4.565
93796SOL    HW283222  12.234   9.479   4.548
93797SOL     OW83223   3.960   2.675   5.274
93797SOL    HW183224   3.908   2.741   5.229
93797SOL    HW283225   3.896   2.618   5.316
93798SOL     OW83226   4.188  12.518   7.649
93798SOL    HW183227   4.246  12.446   7.628
93798SOL    HW283228   4.244  12.583   7.692
93799SOL     OW83229   3.725   0.610   5.467
93799SOL    HW183230   3.722   0.551   5.392
93799SOL    HW283231   3.807   0.658   5.456
93800SOL     OW83232  11.180   4.384  13.314
93800SOL    HW183233  11.126   4.389  13.236
93800SOL    HW283234  11.131   4.329  13.374
93801SOL     OW83235   0.546   5.189  13.657
93801SOL    HW183236   0.636   5.218  13.674
93801SOL    HW283237   0.501   5.203  13.740
93802SOL     OW83238   0.262   2.144   4.224
93802SOL    HW183239   0.327   2.132   4.293
93802SOL    HW283240   0.289   2.224   4.179
93803SOL     OW83241   0.245   4.139  13.265
93803SOL    HW183242   0.179   4.073  13.244
93803SOL    HW283243   0.322   4.090  13.293
93804SOL     OW83244   9.241   3.612   1.806
93804SOL    HW183245   9.311   3.561   1.764
93804SOL    HW283246   9.167   3.604   1.746
93805SOL     OW83247  10.617  13.499   0.334
93805SOL    HW183248  10.712  13.490   0.341
93805SOL    HW283249  10.584  13.469   0.419
93806SOL     OW83250   5.411  13.383   3.696
93806SOL    HW183251   5.490  13.352   3.740
93806SOL    HW283252   5.433  13.377   3.603
93807SOL     OW83253  14.815   2.189  13.441
93807SOL    HW183254  14.822   2.190  13.346
93807SOL    HW283255  14.869   2.114  13.468
93808SOL     OW83256   5.569   1.183   6.643
93808SOL    HW183257   5.637   1.250   6.655
93808SOL    HW283258   5.487   1.230   6.655
93809SOL     OW83259   2.356  13.725  10.660
93809SOL    HW183260   2.320  13.645  10.698
93809SOL    HW283261   2.289  13.755  10.598
93810SOL     OW83262  10.087   8.391   9.043
93810SOL    HW183263  10.138   8.382   8.962
93810SOL    HW283264  10.135   8.456   9.094
93811SOL     OW83265   9.830   5.150  13.895
93811SOL    HW183266   9.796   5.063  13.918
93811SOL    HW283267   9.804   5.205  13.969
93812SOL     OW83268  12.214  10.013   1.292
93812SOL    HW183269  12.287   9.998   1.352
93812SOL    HW283270  12.137   9.980   1.337
93813SOL     OW83271   3.079   6.660   7.286
93813SOL    HW183272   3.149   6.633   7.346
93813SOL    HW283273   3.060   6.582   7.234
93814SOL     OW83274   0.644  14.737   1.427
93814SOL    HW183275   0.733  14.712   1.401
93814SOL    HW283276   0.587  14.683   1.372
93815SOL     OW83277   0.571   1.701   8.064
93815SOL    HW183278   0.520   1.636   8.113
93815SOL    HW283279   0.579   1.776   8.123
93816SOL     OW83280   8.247   7.862  10.148
93816SOL    HW183281   8.230   7.899  10.234
93816SOL    HW283282   8.281   7.774  10.165
93817SOL     OW83283   8.339  10.600   4.811
93817SOL    HW183284   8.279  10.592   4.737
93817SOL    HW283285   8.409  10.538   4.792
93818SOL     OW83286   1.327   0.433  10.929
93818SOL    HW183287   1.305   0.450  11.021
93818SOL    HW283288   1.371   0.348  10.931
93819SOL     OW83289   7.287   2.607   2.706
93819SOL    HW183290   7.192   2.616   2.706
93819SOL    HW283291   7.319   2.693   2.678
93820SOL     OW83292   0.982   7.217   1.806
93820SOL    HW183293   0.938   7.152   1.752
93820SOL    HW283294   1.071   7.223   1.770
93821SOL     OW83295   0.910   2.262   6.742
93821SOL    HW183296   0.821   2.282   6.713
93821SOL    HW283297   0.900   2.230   6.831
93822SOL     OW83298   5.083   6.448   4.250
93822SOL    HW183299   5.079   6.361   4.290
93822SOL    HW283300   5.006   6.451   4.193
93823SOL     OW83301  13.220   0.591   4.478
93823SOL    HW183302  13.298   0.559   4.524
93823SOL    HW283303  13.212   0.536   4.401
93824SOL     OW83304   5.330   1.901   5.034
93824SOL    HW183305   5.282   1.918   5.114
93824SOL    HW283306   5.271   1.849   4.980
93825SOL     OW83307   6.124   7.129   6.081
93825SOL    HW183308   6.065   7.201   6.058
93825SOL    HW283309   6.131   7.133   6.176
93826SOL     OW83310  10.253   0.569   8.290
93826SOL    HW183311  10.328   0.572   8.350
93826SOL    HW283312  10.290   0.539   8.207
93827SOL     OW83313   1.828   6.244   0.067
93827SOL    HW183314   1.741   6.265   0.031
93827SOL    HW283315   1.883   6.233  14.862
93828SOL     OW83316   2.480   2.173   3.184
93828SOL    HW183317   2.556   2.230   3.172
93828SOL    HW283318   2.422   2.223   3.242
93829SOL     OW83319   6.244   1.303   3.190
93829SOL    HW183320   6.168   1.277   3.242
93829SOL    HW283321   6.245   1.242   3.117
93830SOL     OW83322   4.554   7.932  14.365
93830SOL    HW183323   4.485   7.986  14.403
93830SOL    HW283324   4.613   7.913  14.439
93831SOL     OW83325   6.495  10.106   9.504
93831SOL    HW183326   6.473  10.049   9.430
93831SOL    HW283327   6.427  10.173   9.505
93832SOL     OW83328   5.621   8.188   6.968
93832SOL    HW183329   5.688   8.250   6.999
93832SOL    HW283330   5.659   8.149   6.889
93833SOL     OW83331   2.969   0.489   2.650
93833SOL    HW183332   2.970   0.534   2.566
93833SOL    HW283333   3.049   0.518   2.694
93834SOL     OW83334  13.500  11.349   7.238
93834SOL    HW183335  13.590  11.318   7.239
93834SOL    HW283336  13.481  11.365   7.145
93835SOL     OW83337  13.375  12.209  14.461
93835SOL    HW183338  13.358  12.126  14.416
93835SOL    HW283339  13.313  12.209  14.534
93836SOL     OW83340   2.015   7.023  10.058
93836SOL    HW183341   2.019   6.927  10.059
93836SOL    HW283342   2.101   7.052  10.089
93837SOL     OW83343  13.734   5.214  11.984
93837SOL    HW183344  13.721   5.308  11.986
93837SOL    HW283345  13.723   5.190  11.892
93838SOL     OW83346   1.112  14.523   0.874
93838SOL    HW183347   1.185  14.576   0.904
93838SOL    HW283348   1.048  14.527   0.945
93839SOL     OW83349  11.657   1.907   2.984
93839SOL    HW183350  11.727   1.924   3.046
93839SOL    HW283351  11.699   1.912   2.898
93840SOL     OW83352   1.526   1.527  14.506
93840SOL    HW183353   1.516   1.619  14.530
93840SOL    HW283354   1.444   1.504  14.462
93841SOL     OW83355   9.664  10.962  10.538
93841SOL    HW183356   9.691  11.026  10.604
93841SOL    HW283357   9.639  11.014  10.462
93842SOL     OW83358  10.607   9.686   3.748
93842SOL    HW183359  10.617   9.598   3.785
93842SOL    HW283360  10.552   9.673   3.670
93843SOL     OW83361   5.171   2.432  13.912
93843SOL    HW183362   5.097   2.380  13.880
93843SOL    HW283363   5.235   2.429  13.841
93844SOL     OW83364  12.311   3.728   3.131
93844SOL    HW183365  12.367   3.760   3.202
93844SOL    HW283366  12.238   3.684   3.176
93845SOL     OW83367  11.137   8.419  11.989
93845SOL    HW183368  11.088   8.338  11.974
93845SOL    HW283369  11.228   8.391  11.994
93846SOL     OW83370   2.805   0.493   4.512
93846SOL    HW183371   2.780   0.585   4.504
93846SOL    HW283372   2.743   0.456   4.574
93847SOL     OW83373   4.000  14.656   3.364
93847SOL    HW183374   4.047  14.669   3.446
93847SOL    HW283375   4.052  14.701   3.298
93848SOL     OW83376  14.776  12.229  14.123
93848SOL    HW183377  14.737  12.258  14.041
93848SOL    HW283378  14.715  12.162  14.156
93849SOL     OW83379   6.209   2.642   9.858
93849SOL    HW183380   6.169   2.729   9.847
93849SOL    HW283381   6.284   2.658   9.915
93850SOL     OW83382   6.195  10.037   8.733
93850SOL    HW183383   6.235   9.952   8.715
93850SOL    HW283384   6.107  10.016   8.766
93851SOL     OW83385  12.388   8.425  12.283
93851SOL    HW183386  12.391   8.356  12.216
93851SOL    HW283387  12.305   8.412  12.328
93852SOL     OW83388  12.080  12.127   0.364
93852SOL    HW183389  11.988  12.104   0.375
93852SOL    HW283390  12.116  12.058   0.308
93853SOL     OW83391   6.750   2.610   3.204
93853SOL    HW183392   6.729   2.553   3.278
93853SOL    HW283393   6.808   2.677   3.242
93854SOL     OW83394   5.126  12.396   6.567
93854SOL    HW183395   5.213  12.358   6.580
93854SOL    HW283396   5.074  12.324   6.530
93855SOL     OW83397  11.887   0.665   7.221
93855SOL    HW183398  11.904   0.677   7.315
93855SOL    HW283399  11.946   0.593   7.196
93856SOL     OW83400   2.337  10.389   3.055
93856SOL    HW183401   2.285  10.319   3.094
93856SOL    HW283402   2.302  10.470   3.094
93857SOL     OW83403   9.397   0.571   8.711
93857SOL    HW183404   9.382   0.588   8.618
93857SOL    HW283405   9.435   0.483   8.713
93858SOL     OW83406  12.904  12.678  12.714
93858SOL    HW183407  12.954  12.599  12.696
93858SOL    HW283408  12.962  12.750  12.685
93859SOL     OW83409   1.007  11.441   2.109
93859SOL    HW183410   1.072  11.392   2.060
93859SOL    HW283411   0.974  11.506   2.046
93860SOL     OW83412   2.506   8.695   0.582
93860SOL    HW183413   2.425   8.687   0.632
93860SOL    HW283414   2.555   8.616   0.603
93861SOL     OW83415   3.931   2.425   7.808
93861SOL    HW183416   4.011   2.410   7.759
93861SOL    HW283417   3.861   2.415   7.743
93862SOL     OW83418   0.974   9.265   3.843
93862SOL    HW183419   0.926   9.253   3.761
93862SOL    HW283420   0.964   9.182   3.889
93863SOL     OW83421  11.581   7.777   5.672
93863SOL    HW183422  11.588   7.765   5.578
93863SOL    HW283423  11.651   7.838   5.694
93864SOL     OW83424  14.192   4.464   9.765
93864SOL    HW183425  14.103   4.454   9.730
93864SOL    HW283426  14.188   4.423   9.852
93865SOL     OW83427   8.896   5.545   2.867
93865SOL    HW183428   8.961   5.591   2.814
93865SOL    HW283429   8.830   5.516   2.803
93866SOL     OW83430   5.409   0.551   7.029
93866SOL    HW183431   5.379   0.629   6.982
93866SOL    HW283432   5.494   0.577   7.065
93867SOL     OW83433  12.233  14.754   8.645
93867SOL    HW183434  12.289  14.730   8.571
93867SOL    HW283435  12.186  14.674   8.667
93868SOL     OW83436   8.860   5.127   1.794
93868SOL    HW183437   8.785   5.068   1.792
93868SOL    HW283438   8.867   5.153   1.886
93869SOL     OW83439   3.451  14.708   5.950
93869SOL    HW183440   3.428  14.793   5.988
93869SOL    HW283441   3.396  14.645   5.997
93870SOL     OW83442   4.722   9.044   3.634
93870SOL    HW183443   4.802   9.041   3.581
93870SOL    HW283444   4.741   8.988   3.710
93871SOL     OW83445   8.858  10.578   8.290
93871SOL    HW183446   8.940  10.530   8.283
93871SOL    HW283447   8.862  10.620   8.375
93872SOL     OW83448   2.747  13.296   1.903
93872SOL    HW183449   2.696  13.224   1.940
93872SOL    HW283450   2.692  13.331   1.834
93873SOL     OW83451   1.423   0.004   7.013
93873SOL    HW183452   1.456   0.076   6.960
93873SOL    HW283453   1.486  14.806   6.999
93874SOL     OW83454   3.886   5.900  13.329
93874SOL    HW183455   3.969   5.884  13.373
93874SOL    HW283456   3.909   5.909  13.236
93875SOL     OW83457   5.624  14.270   9.585
93875SOL    HW183458   5.541  14.225   9.603
93875SOL    HW283459   5.691  14.202   9.594
93876SOL     OW83460  14.852   6.750  14.005
93876SOL    HW183461  14.819   6.828  13.961
93876SOL    HW283462  14.773   6.699  14.025
93877SOL     OW83463   1.628   5.915   6.721
93877SOL    HW183464   1.564   5.857   6.762
93877SOL    HW283465   1.676   5.858   6.660
93878SOL     OW83466   0.401   7.235   2.927
93878SOL    HW183467   0.315   7.194   2.937
93878SOL    HW283468   0.382   7.329   2.925
93879SOL     OW83469  10.925   7.613   7.031
93879SOL    HW183470  10.879   7.684   7.075
93879SOL    HW283471  10.862   7.541   7.029
93880SOL     OW83472  10.251  12.623   8.039
93880SOL    HW183473  10.334  12.667   8.023
93880SOL    HW283474  10.241  12.563   7.965
93881SOL     OW83475   1.353  10.669   3.276
93881SOL    HW183476   1.290  10.622   3.330
93881SOL    HW283477   1.299  10.717   3.213
93882SOL     OW83478  14.751  12.505   3.124
93882SOL    HW183479  14.739  12.598   3.143
93882SOL    HW283480  14.665  12.474   3.095
93883SOL     OW83481   4.295  12.696   2.780
93883SOL    HW183482   4.351  12.691   2.703
93883SOL    HW283483   4.332  12.767   2.833
93884SOL     OW83484   8.824  14.395   3.313
93884SOL    HW183485   8.756  14.392   3.381
93884SOL    HW283486   8.821  14.307   3.274
93885SOL     OW83487   1.359   2.163   2.480
93885SOL    HW183488   1.273   2.186   2.513
93885SOL    HW283489   1.397   2.108   2.549
93886SOL     OW83490   5.532   7.321   3.859
93886SOL    HW183491   5.459   7.312   3.919
93886SOL    HW283492   5.516   7.255   3.791
93887SOL     OW83493   0.168  14.536  13.305
93887SOL    HW183494   0.074  14.522  13.320
93887SOL    HW283495   0.211  14.471  13.361
93888SOL     OW83496   9.719  10.937  11.710
93888SOL    HW183497   9.635  10.983  11.712
93888SOL    HW283498   9.710  10.874  11.638
93889SOL     OW83499   1.054   5.024   6.315
93889SOL    HW183500   0.967   4.988   6.331
93889SOL    HW283501   1.040   5.100   6.259
93890SOL     OW83502   7.354  10.643  12.320
93890SOL    HW183503   7.440  10.623  12.283
93890SOL    HW283504   7.299  10.663  12.244
93891SOL     OW83505  12.317   8.232  10.031
93891SOL    HW183506  12.330   8.137  10.028
93891SOL    HW283507  12.228   8.246  10.001
93892SOL     OW83508   4.121  13.616   9.865
93892SOL    HW183509   4.071  13.694   9.889
93892SOL    HW283510   4.203  13.650   9.830
93893SOL     OW83511  10.714  13.162  14.275
93893SOL    HW183512  10.737  13.218  14.349
93893SOL    HW283513  10.624  13.135  14.293
93894SOL     OW83514   8.687   7.061   8.520
93894SOL    HW183515   8.687   7.014   8.436
93894SOL    HW283516   8.766   7.114   8.518
93895SOL     OW83517   2.231   8.743  13.498
93895SOL    HW183518   2.204   8.657  13.466
93895SOL    HW283519   2.324   8.750  13.475
93896SOL     OW83520   6.245   1.778   7.329
93896SOL    HW183521   6.268   1.755   7.419
93896SOL    HW283522   6.278   1.705   7.277
93897SOL     OW83523   4.973   5.186  14.061
93897SOL    HW183524   4.970   5.264  14.116
93897SOL    HW283525   4.884   5.177  14.026
93898SOL     OW83526   6.240   7.651   8.987
93898SOL    HW183527   6.317   7.659   8.930
93898SOL    HW283528   6.196   7.736   8.980
93899SOL     OW83529  11.421   8.691   9.460
93899SOL    HW183530  11.474   8.611   9.464
93899SOL    HW283531  11.485   8.762   9.460
93900SOL     OW83532   6.825  14.709   4.582
93900SOL    HW183533   6.841  14.738   4.493
93900SOL    HW283534   6.756  14.643   4.574
93901SOL     OW83535   6.007   6.461  12.108
93901SOL    HW183536   5.959   6.528  12.157
93901SOL    HW283537   5.978   6.378  12.144
93902SOL     OW83538   1.624  12.547   2.992
93902SOL    HW183539   1.641  12.565   3.084
93902SOL    HW283540   1.676  12.470   2.972
93903SOL     OW83541   3.509   6.121   7.854
93903SOL    HW183542   3.512   6.130   7.758
93903SOL    HW283543   3.513   6.211   7.886
93904SOL     OW83544   5.368   3.279   7.319
93904SOL    HW183545   5.430   3.254   7.387
93904SOL    HW283546   5.402   3.362   7.286
93905SOL     OW83547  13.928   5.544  12.862
93905SOL    HW183548  13.893   5.619  12.813
93905SOL    HW283549  13.860   5.523  12.925
93906SOL     OW83550  11.345  10.618  12.875
93906SOL    HW183551  11.385  10.558  12.812
93906SOL    HW283552  11.391  10.600  12.957
93907SOL     OW83553   6.568  11.210  11.927
93907SOL    HW183554   6.632  11.280  11.938
93907SOL    HW283555   6.497  11.251  11.876
93908SOL     OW83556  14.580   5.437   4.415
93908SOL    HW183557  14.591   5.360   4.358
93908SOL    HW283558  14.655   5.493   4.394
93909SOL     OW83559   1.143   5.498   3.214
93909SOL    HW183560   1.212   5.537   3.268
93909SOL    HW283561   1.151   5.541   3.129
93910SOL     OW83562   7.258   2.109  14.475
93910SOL    HW183563   7.230   2.018  14.469
93910SOL    HW283564   7.244   2.145  14.388
93911SOL     OW83565   1.872   8.199  13.659
93911SOL    HW183566   1.856   8.291  13.638
93911SOL    HW283567   1.923   8.200  13.739
93912SOL     OW83568   7.765   4.358  12.102
93912SOL    HW183569   7.768   4.452  12.084
93912SOL    HW283570   7.797   4.349  12.192
93913SOL     OW83571  13.413   9.759   6.081
93913SOL    HW183572  13.473   9.727   6.013
93913SOL    HW283573  13.329   9.718   6.061
93914SOL     OW83574   5.381   8.494   1.312
93914SOL    HW183575   5.377   8.524   1.221
93914SOL    HW283576   5.447   8.550   1.353
93915SOL     OW83577   4.393   8.303  11.413
93915SOL    HW183578   4.460   8.309  11.480
93915SOL    HW283579   4.373   8.209  11.405
93916SOL     OW83580  11.817   0.868   5.702
93916SOL    HW183581  11.779   0.789   5.664
93916SOL    HW283582  11.745   0.908   5.752
93917SOL     OW83583   2.441   8.477   5.064
93917SOL    HW183584   2.439   8.440   5.152
93917SOL    HW283585   2.488   8.412   5.012
93918SOL     OW83586   9.228  11.848   9.411
93918SOL    HW183587   9.153  11.789   9.410
93918SOL    HW283588   9.190  11.935   9.427
93919SOL     OW83589  13.283   1.223  10.889
93919SOL    HW183590  13.205   1.267  10.855
93919SOL    HW283591  13.316   1.282  10.957
93920SOL     OW83592   4.826   2.348   6.133
93920SOL    HW183593   4.791   2.364   6.221
93920SOL    HW283594   4.866   2.261   6.139
93921SOL     OW83595   9.116   2.189  11.108
93921SOL    HW183596   9.138   2.236  11.188
93921SOL    HW283597   9.062   2.116  11.138
93922SOL     OW83598   0.403   7.474   1.289
93922SOL    HW183599   0.422   7.566   1.307
93922SOL    HW283600   0.309   7.472   1.272
93923SOL     OW83601   3.781  12.726  12.053
93923SOL    HW183602   3.694  12.727  12.093
93923SOL    HW283603   3.839  12.758  12.121
93924SOL     OW83604   6.553   5.845   6.091
93924SOL    HW183605   6.524   5.789   6.163
93924SOL    HW283606   6.648   5.847   6.100
93925SOL     OW83607   3.964   6.571  13.769
93925SOL    HW183608   3.997   6.660  13.765
93925SOL    HW283609   4.016   6.529  13.837
93926SOL     OW83610  13.754   8.574   8.117
93926SOL    HW183611  13.838   8.620   8.117
93926SOL    HW283612  13.750   8.533   8.204
93927SOL     OW83613   1.158   4.993   5.088
93927SOL    HW183614   1.098   5.066   5.098
93927SOL    HW283615   1.239   5.033   5.056
93928SOL     OW83616   9.151   7.012   8.676
93928SOL    HW183617   9.079   6.953   8.655
93928SOL    HW283618   9.229   6.957   8.679
93929SOL     OW83619  12.035  13.943   1.082
93929SOL    HW183620  11.986  13.862   1.071
93929SOL    HW283621  12.068  13.964   0.995
93930SOL     OW83622  11.615   8.954   8.239
93930SOL    HW183623  11.579   8.966   8.327
93930SOL    HW283624  11.638   8.861   8.235
93931SOL     OW83625   1.355  13.172   4.558
93931SOL    HW183626   1.420  13.140   4.619
93931SOL    HW283627   1.318  13.249   4.601
93932SOL     OW83628   7.123  12.876  11.584
93932SOL    HW183629   7.126  12.896  11.677
93932SOL    HW283630   7.050  12.929  11.550
93933SOL     OW83631  14.852  13.505   5.699
93933SOL    HW183632   0.030  13.523   5.620
93933SOL    HW283633  14.816  13.590   5.724
93934SOL     OW83634   0.678   5.158   9.016
93934SOL    HW183635   0.588   5.190   9.003
93934SOL    HW283636   0.672   5.102   9.093
93935SOL     OW83637  14.137   2.609   3.736
93935SOL    HW183638  14.208   2.564   3.690
93935SOL    HW283639  14.074   2.540   3.757
93936SOL     OW83640   3.393  14.485   3.635
93936SOL    HW183641   3.380  14.577   3.658
93936SOL    HW283642   3.397  14.484   3.540
93937SOL     OW83643   9.459   0.573   8.240
93937SOL    HW183644   9.381   0.608   8.284
93937SOL    HW283645   9.532   0.614   8.287
93938SOL     OW83646  14.264   9.193  13.215
93938SOL    HW183647  14.247   9.283  13.244
93938SOL    HW283648  14.272   9.143  13.296
93939SOL     OW83649   6.747   9.524  14.257
93939SOL    HW183650   6.730   9.514  14.164
93939SOL    HW283651   6.706   9.447  14.297
93940SOL     OW83652   3.580   6.223   2.456
93940SOL    HW183653   3.510   6.167   2.492
93940SOL    HW283654   3.657   6.167   2.456
93941SOL     OW83655  14.515   5.582  11.249
93941SOL    HW183656  14.455   5.651  11.220
93941SOL    HW283657  14.548   5.543  11.168
93942SOL     OW83658  14.144   6.341   1.783
93942SOL    HW183659  14.125   6.258   1.827
93942SOL    HW283660  14.234   6.332   1.752
93943SOL     OW83661  10.202   2.531  14.362
93943SOL    HW183662  10.165   2.618  14.349
93943SOL    HW283663  10.289   2.536  14.323
93944SOL     OW83664   9.385   4.872   2.897
93944SOL    HW183665   9.338   4.844   2.818
93944SOL    HW283666   9.409   4.790   2.941
93945SOL     OW83667  11.332   0.691  12.964
93945SOL    HW183668  11.409   0.647  12.928
93945SOL    HW283669  11.312   0.644  13.045
93946SOL     OW83670   2.433  10.722   3.627
93946SOL    HW183671   2.485  10.658   3.675
93946SOL    HW283672   2.492  10.797   3.616
93947SOL     OW83673   1.517  11.573   2.626
93947SOL    HW183674   1.593  11.630   2.619
93947SOL    HW283675   1.554  11.484   2.621
93948SOL     OW83676  14.714  13.421  11.933
93948SOL    HW183677  14.731  13.375  12.016
93948SOL    HW283678  14.675  13.354  11.876
93949SOL     OW83679  12.722  12.756  10.583
93949SOL    HW183680  12.774  12.836  10.577
93949SOL    HW283681  12.656  12.765  10.514
93950SOL     OW83682  14.098   9.697   5.294
93950SOL    HW183683  14.144   9.631   5.243
93950SOL    HW283684  14.099   9.664   5.384
93951SOL     OW83685   0.839  14.398   7.549
93951SOL    HW183686   0.769  14.429   7.605
93951SOL    HW283687   0.826  14.444   7.466
93952SOL     OW83688  12.202  11.479   9.877
93952SOL    HW183689  12.214  11.385   9.893
93952SOL    HW283690  12.163  11.513   9.957
93953SOL     OW83691  11.776  11.931   8.459
93953SOL    HW183692  11.684  11.918   8.485
93953SOL    HW283693  11.817  11.971   8.537
93954SOL     OW83694  10.144  12.156   5.633
93954SOL    HW183695  10.086  12.084   5.659
93954SOL    HW283696  10.231  12.116   5.628
93955SOL     OW83697  11.591   9.330   1.548
93955SOL    HW183698  11.611   9.341   1.455
93955SOL    HW283699  11.571   9.237   1.558
93956SOL     OW83700  10.073  14.471   2.442
93956SOL    HW183701  10.018  14.420   2.383
93956SOL    HW283702  10.145  14.502   2.387
93957SOL     OW83703   8.927   4.203  11.247
93957SOL    HW183704   8.949   4.130  11.188
93957SOL    HW283705   8.849   4.172  11.294
93958SOL     OW83706  12.616   1.237   7.600
93958SOL    HW183707  12.588   1.290   7.526
93958SOL    HW283708  12.653   1.299   7.662
93959SOL     OW83709   7.286   8.935  10.692
93959SOL    HW183710   7.374   8.898  10.684
93959SOL    HW283711   7.300   9.023  10.728
93960SOL     OW83712  12.107   4.801   4.929
93960SOL    HW183713  12.088   4.864   4.859
93960SOL    HW283714  12.045   4.729   4.914
93961SOL     OW83715  14.374   4.296   5.579
93961SOL    HW183716  14.370   4.389   5.555
93961SOL    HW283717  14.301   4.283   5.640
93962SOL     OW83718   1.835   8.230   6.216
93962SOL    HW183719   1.905   8.205   6.155
93962SOL    HW283720   1.843   8.168   6.288
93963SOL     OW83721   7.467   0.664  13.802
93963SOL    HW183722   7.500   0.729  13.866
93963SOL    HW283723   7.388   0.704  13.766
93964SOL     OW83724  11.815   4.597   8.271
93964SOL    HW183725  11.765   4.623   8.194
93964SOL    HW283726  11.756   4.541   8.321
93965SOL     OW83727  11.546   5.805  12.229
93965SOL    HW183728  11.621   5.855  12.261
93965SOL    HW283729  11.492   5.870  12.183
93966SOL     OW83730  13.551  13.625  11.324
93966SOL    HW183731  13.553  13.684  11.248
93966SOL    HW283732  13.625  13.567  11.311
93967SOL     OW83733   3.832  13.658  10.017
93967SOL    HW183734   3.891  13.733  10.014
93967SOL    HW283735   3.795  13.653   9.928
93968SOL     OW83736   9.005   8.672   7.870
93968SOL    HW183737   8.947   8.626   7.809
93968SOL    HW283738   8.952   8.743   7.904
93969SOL     OW83739  11.073   5.684   1.698
93969SOL    HW183740  11.118   5.637   1.768
93969SOL    HW283741  10.987   5.705   1.733
93970SOL     OW83742   8.710   4.227   7.402
93970SOL    HW183743   8.624   4.187   7.389
93970SOL    HW283744   8.757   4.210   7.321
93971SOL     OW83745  13.607   6.392  10.296
93971SOL    HW183746  13.619   6.439  10.379
93971SOL    HW283747  13.513   6.399  10.278
93972SOL     OW83748   3.232  10.854  14.796
93972SOL    HW183749   3.157  10.799  14.820
93972SOL    HW283750   3.299  10.791  14.769
93973SOL     OW83751   6.106  11.216   6.850
93973SOL    HW183752   6.175  11.271   6.886
93973SOL    HW283753   6.035  11.276   6.830
93974SOL     OW83754  11.715  10.238  10.851
93974SOL    HW183755  11.661  10.228  10.930
93974SOL    HW283756  11.655  10.275  10.786
93975SOL     OW83757   6.753   6.642   9.793
93975SOL    HW183758   6.684   6.576   9.785
93975SOL    HW283759   6.785   6.655   9.704
93976SOL     OW83760  14.305   2.636   1.259
93976SOL    HW183761  14.368   2.707   1.244
93976SOL    HW283762  14.349   2.577   1.321
93977SOL     OW83763  14.243   4.574  12.823
93977SOL    HW183764  14.316   4.634  12.832
93977SOL    HW283765  14.172   4.614  12.873
93978SOL     OW83766  11.614  13.143  11.649
93978SOL    HW183767  11.645  13.121  11.737
93978SOL    HW283768  11.610  13.059  11.603
93979SOL     OW83769   6.347  11.682   8.752
93979SOL    HW183770   6.268  11.631   8.772
93979SOL    HW283771   6.381  11.707   8.838
93980SOL     OW83772   3.180  14.175  11.009
93980SOL    HW183773   3.219  14.233  10.943
93980SOL    HW283774   3.204  14.215  11.093
93981SOL     OW83775   3.817  10.626  10.012
93981SOL    HW183776   3.895  10.668  10.051
93981SOL    HW283777   3.792  10.559  10.076
93982SOL     OW83778   2.123   4.009   3.427
93982SOL    HW183779   2.209   4.048   3.409
93982SOL    HW283780   2.079   4.005   3.342
93983SOL     OW83781  12.448   9.066   8.646
93983SOL    HW183782  12.430   9.058   8.552
93983SOL    HW283783  12.498   9.147   8.654
93984SOL     OW83784   6.735   1.349   1.701
93984SOL    HW183785   6.710   1.258   1.709
93984SOL    HW283786   6.740   1.381   1.791
93985SOL     OW83787  14.794   6.458   9.959
93985SOL    HW183788  14.779   6.481   9.868
93985SOL    HW283789  14.707   6.438   9.994
93986SOL     OW83790   9.754   1.181  11.066
93986SOL    HW183791   9.849   1.170  11.065
93986SOL    HW283792   9.726   1.150  10.980
93987SOL     OW83793  12.063   6.245  10.046
93987SOL    HW183794  12.121   6.241   9.970
93987SOL    HW283795  12.083   6.330  10.086
93988SOL     OW83796   1.841   4.447   2.057
93988SOL    HW183797   1.863   4.362   2.019
93988SOL    HW283798   1.746   4.454   2.047
93989SOL     OW83799  12.125   0.469  14.786
93989SOL    HW183800  12.170   0.467  14.702
93989SOL    HW283801  12.048   0.523  14.771
93990SOL     OW83802  10.262  12.837   3.121
93990SOL    HW183803  10.168  12.846   3.136
93990SOL    HW283804  10.271  12.824   3.027
93991SOL     OW83805   4.105   6.697   8.015
93991SOL    HW183806   4.189   6.714   7.972
93991SOL    HW283807   4.069   6.621   7.970
93992SOL     OW83808   3.938  10.557   8.276
93992SOL    HW183809   3.982  10.590   8.355
93992SOL    HW283810   3.895  10.477   8.304
93993SOL     OW83811   4.539   1.343  11.895
93993SOL    HW183812   4.558   1.381  11.981
93993SOL    HW283813   4.521   1.418  11.839
93994SOL     OW83814  13.203  12.621   0.059
93994SOL    HW183815  13.269  12.634  14.863
93994SOL    HW283816  13.209  12.528   0.080
93995SOL     OW83817  12.883   6.787   3.967
93995SOL    HW183818  12.927   6.812   3.885
93995SOL    HW283819  12.790   6.795   3.948
93996SOL     OW83820  13.861   7.681   3.845
93996SOL    HW183821  13.923   7.650   3.911
93996SOL    HW283822  13.842   7.604   3.792
93997SOL     OW83823  10.610   7.088   8.769
93997SOL    HW183824  10.549   7.129   8.831
93997SOL    HW283825  10.687   7.067   8.821
93998SOL     OW83826   0.597   6.668  11.820
93998SOL    HW183827   0.620   6.733  11.887
93998SOL    HW283828   0.503   6.680  11.806
93999SOL     OW83829   3.425   6.492   2.404
93999SOL    HW183830   3.342   6.444   2.401
93999SOL    HW283831   3.491   6.427   2.381
94000SOL     OW83832   9.862  12.970   4.214
94000SOL    HW183833   9.818  13.027   4.278
94000SOL    HW283834   9.945  12.947   4.256
94001SOL     OW83835  10.163   6.012   9.895
94001SOL    HW183836  10.245   5.979   9.932
94001SOL    HW283837  10.189   6.089   9.844
94002SOL     OW83838  11.854  13.392  13.460
94002SOL    HW183839  11.762  13.414  13.476
94002SOL    HW283840  11.855  13.297  13.448
94003SOL     OW83841  10.097   3.422  10.698
94003SOL    HW183842  10.127   3.339  10.659
94003SOL    HW283843  10.049   3.395  10.776
94004SOL     OW83844   2.928  12.594   2.832
94004SOL    HW183845   2.920  12.670   2.889
94004SOL    HW283846   3.011  12.553   2.859
94005SOL     OW83847   5.968  11.299   2.778
94005SOL    HW183848   6.003  11.329   2.694
94005SOL    HW283849   5.876  11.282   2.762
94006SOL     OW83850  10.359   4.132  11.105
94006SOL    HW183851  10.372   4.116  11.199
94006SOL    HW283852  10.311   4.055  11.074
94007SOL     OW83853  10.534   8.415   5.171
94007SOL    HW183854  10.610   8.359   5.188
94007SOL    HW283855  10.570   8.491   5.125
94008SOL     OW83856   2.036   5.702   2.748
94008SOL    HW183857   2.115   5.665   2.708
94008SOL    HW283858   2.020   5.647   2.825
94009SOL     OW83859   7.114   6.032  11.025
94009SOL    HW183860   7.082   6.061  11.110
94009SOL    HW283861   7.209   6.029  11.034
94010SOL     OW83862  13.381   2.206  10.847
94010SOL    HW183863  13.291   2.235  10.859
94010SOL    HW283864  13.374   2.114  10.820
94011SOL     OW83865   5.196   3.748   1.850
94011SOL    HW183866   5.151   3.830   1.830
94011SOL    HW283867   5.258   3.770   1.919
94012SOL     OW83868  10.948  12.767   0.117
94012SOL    HW183869  10.870  12.724   0.152
94012SOL    HW283870  11.021  12.724   0.160
94013SOL     OW83871  10.758  12.147   1.090
94013SOL    HW183872  10.708  12.205   1.033
94013SOL    HW283873  10.695  12.115   1.154
94014SOL     OW83874   2.129   1.644   9.193
94014SOL    HW183875   2.144   1.680   9.106
94014SOL    HW283876   2.033   1.642   9.202
94015SOL     OW83877  14.195  11.284   7.894
94015SOL    HW183878  14.226  11.346   7.828
94015SOL    HW283879  14.222  11.199   7.861
94016SOL     OW83880   0.896   9.339  12.440
94016SOL    HW183881   0.981   9.383  12.449
94016SOL    HW283882   0.916   9.257  12.396
94017SOL     OW83883  10.052   1.834   6.941
94017SOL    HW183884  10.129   1.810   6.890
94017SOL    HW283885  10.067   1.795   7.027
94018SOL     OW83886   8.970   3.910   8.949
94018SOL    HW183887   8.908   3.933   9.018
94018SOL    HW283888   8.952   3.818   8.930
94019SOL     OW83889  12.724   3.331  11.969
94019SOL    HW183890  12.808   3.300  12.004
94019SOL    HW283891  12.671   3.252  11.963
94020SOL     OW83892   3.457   0.716   0.125
94020SOL    HW183893   3.495   0.803   0.130
94020SOL    HW283894   3.488   0.671   0.204
94021SOL     OW83895   6.045   4.348  10.569
94021SOL    HW183896   6.107   4.348  10.642
94021SOL    HW283897   6.079   4.282  10.509
94022SOL     OW83898   1.666   2.109   0.278
94022SOL    HW183899   1.583   2.153   0.256
94022SOL    HW283900   1.730   2.179   0.283
94023SOL     OW83901   6.991   5.492  13.829
94023SOL    HW183902   6.902   5.468  13.801
94023SOL    HW283903   7.028   5.537  13.753
94024SOL     OW83904   0.597   2.912   8.696
94024SOL    HW183905   0.502   2.914   8.679
94024SOL    HW283906   0.608   2.841   8.760
94025SOL     OW83907  12.824   2.994   1.045
94025SOL    HW183908  12.734   2.984   1.076
94025SOL    HW283909  12.815   3.019   0.953
94026SOL     OW83910   4.145   7.202   0.242
94026SOL    HW183911   4.234   7.192   0.277
94026SOL    HW283912   4.156   7.252   0.161
94027SOL     OW83913   3.679  12.034   3.362
94027SOL    HW183914   3.720  12.013   3.446
94027SOL    HW283915   3.587  12.050   3.384
94028SOL     OW83916   2.110   2.226   7.891
94028SOL    HW183917   2.127   2.311   7.932
94028SOL    HW283918   2.015   2.221   7.887
94029SOL     OW83919  12.447   7.874  12.539
94029SOL    HW183920  12.495   7.894  12.619
94029SOL    HW283921  12.512   7.880  12.469
94030SOL     OW83922   8.041  12.085   5.779
94030SOL    HW183923   8.078  12.027   5.844
94030SOL    HW283924   7.965  12.125   5.822
94031SOL     OW83925   1.030  13.164  13.076
94031SOL    HW183926   1.040  13.212  13.159
94031SOL    HW283927   1.058  13.075  13.096
94032SOL     OW83928   1.743   5.270   5.637
94032SOL    HW183929   1.737   5.234   5.725
94032SOL    HW283930   1.780   5.199   5.584
94033SOL     OW83931   6.521   0.468   1.667
94033SOL    HW183932   6.479   0.388   1.635
94033SOL    HW283933   6.558   0.443   1.751
94034SOL     OW83934   0.784   0.518   4.372
94034SOL    HW183935   0.717   0.524   4.441
94034SOL    HW283936   0.789   0.607   4.336
94035SOL     OW83937   9.422   8.748   1.540
94035SOL    HW183938   9.448   8.681   1.478
94035SOL    HW283939   9.491   8.815   1.534
94036SOL     OW83940   3.110  14.015   4.693
94036SOL    HW183941   3.037  13.955   4.706
94036SOL    HW283942   3.100  14.047   4.604
94037SOL     OW83943   6.366   2.945   0.625
94037SOL    HW183944   6.391   3.037   0.634
94037SOL    HW283945   6.449   2.898   0.617
94038SOL     OW83946  12.408   3.230   7.720
94038SOL    HW183947  12.462   3.206   7.795
94038SOL    HW283948  12.457   3.199   7.644
94039SOL     OW83949   4.001   6.620   2.711
94039SOL    HW183950   3.938   6.634   2.782
94039SOL    HW283951   3.989   6.528   2.687
94040SOL     OW83952  10.960   2.100  12.136
94040SOL    HW183953  10.901   2.041  12.182
94040SOL    HW283954  10.921   2.110  12.049
94041SOL     OW83955   4.416   3.030  14.401
94041SOL    HW183956   4.440   3.098  14.339
94041SOL    HW283957   4.326   3.007  14.378
94042SOL     OW83958   0.585  14.620  13.337
94042SOL    HW183959   0.521  14.549  13.332
94042SOL    HW283960   0.577  14.666  13.253
94043SOL     OW83961   7.702  14.391   8.892
94043SOL    HW183962   7.644  14.323   8.857
94043SOL    HW283963   7.714  14.369   8.984
94044SOL     OW83964   9.889   7.811   1.984
94044SOL    HW183965   9.885   7.738   1.923
94044SOL    HW283966   9.968   7.795   2.036
94045SOL     OW83967  13.238   7.354   7.845
94045SOL    HW183968  13.180   7.426   7.822
94045SOL    HW283969  13.309   7.396   7.895
94046SOL     OW83970  12.926   3.420   5.262
94046SOL    HW183971  13.013   3.450   5.235
94046SOL    HW283972  12.919   3.331   5.225
94047SOL     OW83973   9.030   7.244   5.628
94047SOL    HW183974   8.992   7.193   5.699
94047SOL    HW283975   9.006   7.334   5.646
94048SOL     OW83976  13.597  13.642   6.405
94048SOL    HW183977  13.603  13.661   6.311
94048SOL    HW283978  13.593  13.728   6.447
94049SOL     OW83979   5.137   3.418   2.789
94049SOL    HW183980   5.128   3.506   2.824
94049SOL    HW283981   5.227   3.414   2.756
94050SOL     OW83982   0.708   5.335   2.517
94050SOL    HW183983   0.667   5.314   2.433
94050SOL    HW283984   0.724   5.250   2.558
94051SOL     OW83985   9.162   6.051   2.088
94051SOL    HW183986   9.204   6.036   2.003
94051SOL    HW283987   9.222   6.110   2.135
94052SOL     OW83988   3.224   7.925   3.664
94052SOL    HW183989   3.253   7.940   3.754
94052SOL    HW283990   3.196   8.012   3.634
94053SOL     OW83991  10.494   5.610   3.418
94053SOL    HW183992  10.569   5.617   3.359
94053SOL    HW283993  10.488   5.517   3.439
94054SOL     OW83994  12.284   8.950   8.839
94054SOL    HW183995  12.348   8.973   8.772
94054SOL    HW283996  12.237   9.031   8.856
94055SOL     OW83997   3.362   7.091  14.452
94055SOL    HW183998   3.299   7.087  14.524
94055SOL    HW283999   3.357   7.181  14.420
94056SOL     OW84000   7.399  13.369   6.920
94056SOL    HW184001   7.318  13.394   6.875
94056SOL    HW284002   7.441  13.452   6.942
94057SOL     OW84003   4.184   0.445  11.103
94057SOL    HW184004   4.120   0.516  11.098
94057SOL    HW284005   4.137   0.374  11.146
94058SOL     OW84006  13.514   5.816  12.101
94058SOL    HW184007  13.512   5.816  12.197
94058SOL    HW284008  13.606   5.832  12.079
94059SOL     OW84009  11.170   9.941  13.878
94059SOL    HW184010  11.134   9.853  13.865
94059SOL    HW284011  11.246   9.927  13.935
94060SOL     OW84012   8.239   0.343  14.262
94060SOL    HW184013   8.188   0.385  14.331
94060SOL    HW284014   8.300   0.286  14.309
94061SOL     OW84015   3.246   2.932   4.798
94061SOL    HW184016   3.196   2.995   4.746
94061SOL    HW284017   3.303   2.888   4.734
94062SOL     OW84018  11.301  14.450   2.199
94062SOL    HW184019  11.275  14.404   2.279
94062SOL    HW284020  11.278  14.541   2.216
94063SOL     OW84021   2.815   2.717   9.321
94063SOL    HW184022   2.733   2.704   9.370
94063SOL    HW284023   2.863   2.635   9.334
94064SOL     OW84024   9.738   2.980   9.624
94064SOL    HW184025   9.659   2.941   9.662
94064SOL    HW284026   9.713   3.071   9.605
94065SOL     OW84027   1.255  10.594   8.540
94065SOL    HW184028   1.205  10.673   8.519
94065SOL    HW284029   1.202  10.522   8.506
94066SOL     OW84030  10.848  12.145  12.438
94066SOL    HW184031  10.792  12.118  12.511
94066SOL    HW284032  10.936  12.116  12.463
94067SOL     OW84033  10.644   1.795  12.454
94067SOL    HW184034  10.677   1.707  12.437
94067SOL    HW284035  10.611   1.791  12.544
94068SOL     OW84036  10.761   3.827  14.537
94068SOL    HW184037  10.774   3.741  14.577
94068SOL    HW284038  10.772   3.811  14.443
94069SOL     OW84039   4.303   9.885   9.283
94069SOL    HW184040   4.285   9.957   9.222
94069SOL    HW284041   4.311   9.928   9.369
94070SOL     OW84042  12.399   4.425  13.642
94070SOL    HW184043  12.348   4.424  13.723
94070SOL    HW284044  12.433   4.514  13.635
94071SOL     OW84045   8.977  12.356  13.671
94071SOL    HW184046   8.939  12.443  13.683
94071SOL    HW284047   9.071  12.372  13.656
94072SOL     OW84048   9.978   0.396  10.151
94072SOL    HW184049   9.970   0.479  10.199
94072SOL    HW284050  10.071   0.376  10.155
94073SOL     OW84051  13.477  13.948  11.608
94073SOL    HW184052  13.531  13.921  11.534
94073SOL    HW284053  13.539  13.992  11.667
94074SOL     OW84054   7.352  10.284  11.559
94074SOL    HW184055   7.357  10.203  11.611
94074SOL    HW284056   7.281  10.334  11.600
94075SOL     OW84057   3.590  10.503   1.938
94075SOL    HW184058   3.518  10.517   2.000
94075SOL    HW284059   3.559  10.432   1.882
94076SOL     OW84060   8.223   8.611  11.779
94076SOL    HW184061   8.290   8.672  11.749
94076SOL    HW284062   8.147   8.666  11.800
94077SOL     OW84063  10.858   7.654  11.756
94077SOL    HW184064  10.932   7.673  11.814
94077SOL    HW284065  10.886   7.685  11.669
94078SOL     OW84066  12.764   2.402   9.924
94078SOL    HW184067  12.670   2.398   9.906
94078SOL    HW284068  12.773   2.369  10.013
94079SOL     OW84069  11.551  14.831   1.461
94079SOL    HW184070  11.530   0.022   1.530
94079SOL    HW284071  11.493  14.757   1.479
94080SOL     OW84072   4.475   3.012   1.787
94080SOL    HW184073   4.445   3.103   1.795
94080SOL    HW284074   4.516   2.993   1.871
94081SOL     OW84075  12.629   0.894   7.030
94081SOL    HW184076  12.540   0.921   7.053
94081SOL    HW284077  12.641   0.811   7.076
94082SOL     OW84078  13.943   1.789   1.606
94082SOL    HW184079  14.020   1.781   1.662
94082SOL    HW284080  13.940   1.706   1.558
94083SOL     OW84081  13.142  13.604   2.782
94083SOL    HW184082  13.095  13.676   2.825
94083SOL    HW284083  13.183  13.644   2.705
94084SOL     OW84084  10.869  14.103   0.907
94084SOL    HW184085  10.830  14.100   0.820
94084SOL    HW284086  10.924  14.025   0.911
94085SOL     OW84087  13.612   8.240   5.165
94085SOL    HW184088  13.676   8.191   5.216
94085SOL    HW284089  13.530   8.193   5.177
94086SOL     OW84090   8.578   0.022  12.949
94086SOL    HW184091   8.543  14.831  12.887
94086SOL    HW284092   8.501   0.061  12.990
94087SOL     OW84093   2.514  14.712   3.035
94087SOL    HW184094   2.563  14.772   3.091
94087SOL    HW284095   2.489  14.764   2.959
94088SOL     OW84096   6.684   7.336  11.156
94088SOL    HW184097   6.682   7.431  11.172
94088SOL    HW284098   6.666   7.298  11.242
94089SOL     OW84099  12.582   9.439  11.568
94089SOL    HW184100  12.542   9.414  11.484
94089SOL    HW284101  12.655   9.378  11.578
94090SOL     OW84102  10.492   1.070  11.380
94090SOL    HW184103  10.553   1.006  11.417
94090SOL    HW284104  10.406   1.034  11.401
94091SOL     OW84105   9.966   4.610  10.606
94091SOL    HW184106  10.009   4.530  10.637
94091SOL    HW284107   9.976   4.672  10.678
94092SOL     OW84108   4.465   9.005   3.530
94092SOL    HW184109   4.546   9.043   3.564
94092SOL    HW284110   4.488   8.978   3.441
94093SOL     OW84111   3.196   3.088   6.685
94093SOL    HW184112   3.137   3.020   6.652
94093SOL    HW284113   3.247   3.044   6.753
94094SOL     OW84114   3.407   4.836   4.283
94094SOL    HW184115   3.332   4.874   4.328
94094SOL    HW284116   3.439   4.768   4.342
94095SOL     OW84117   2.920  10.718   4.157
94095SOL    HW184118   2.846  10.658   4.167
94095SOL    HW284119   2.886  10.804   4.181
94096SOL     OW84120   0.736   3.054  10.758
94096SOL    HW184121   0.774   3.107  10.688
94096SOL    HW284122   0.778   2.969  10.749
94097SOL     OW84123  11.427  13.410   4.731
94097SOL    HW184124  11.466  13.461   4.660
94097SOL    HW284125  11.402  13.327   4.690
94098SOL     OW84126   9.857   1.999   0.433
94098SOL    HW184127   9.938   1.958   0.465
94098SOL    HW284128   9.885   2.060   0.365
94099SOL     OW84129   9.831  13.956  11.033
94099SOL    HW184130   9.806  13.974  11.124
94099SOL    HW284131   9.844  14.042  10.994
94100SOL     OW84132  13.882   1.106   1.526
94100SOL    HW184133  13.953   1.044   1.536
94100SOL    HW284134  13.805   1.052   1.509
94101SOL     OW84135   2.111   1.776   5.579
94101SOL    HW184136   2.079   1.806   5.494
94101SOL    HW284137   2.109   1.855   5.634
94102SOL     OW84138   4.054  13.472   1.252
94102SOL    HW184139   4.141  13.471   1.212
94102SOL    HW284140   4.001  13.418   1.194
94103SOL     OW84141   1.728   9.699   1.504
94103SOL    HW184142   1.819   9.717   1.479
94103SOL    HW284143   1.677   9.724   1.427
94104SOL     OW84144   5.073   8.837   2.826
94104SOL    HW184145   5.076   8.921   2.779
94104SOL    HW284146   5.117   8.775   2.768
94105SOL     OW84147   2.449   5.851  12.172
94105SOL    HW184148   2.414   5.785  12.112
94105SOL    HW284149   2.413   5.934  12.141
94106SOL     OW84150  12.973   6.937   6.541
94106SOL    HW184151  12.949   7.030   6.549
94106SOL    HW284152  12.989   6.924   6.448
94107SOL     OW84153  11.064  13.284   0.701
94107SOL    HW184154  11.032  13.215   0.643
94107SOL    HW284155  11.047  13.251   0.789
94108SOL     OW84156   4.325  11.665   8.804
94108SOL    HW184157   4.365  11.648   8.718
94108SOL    HW284158   4.339  11.759   8.818
94109SOL     OW84159  10.759   6.776   5.182
94109SOL    HW184160  10.720   6.762   5.095
94109SOL    HW284161  10.755   6.871   5.195
94110SOL     OW84162   4.051   8.799   9.003
94110SOL    HW184163   4.085   8.864   9.064
94110SOL    HW284164   4.003   8.737   9.057
94111SOL     OW84165   2.023   2.811  14.454
94111SOL    HW184166   2.023   2.889  14.509
94111SOL    HW284167   2.041   2.844  14.366
94112SOL     OW84168  12.779   1.618  11.427
94112SOL    HW184169  12.737   1.669  11.496
94112SOL    HW284170  12.707   1.583  11.376
94113SOL     OW84171   3.194   7.190   5.304
94113SOL    HW184172   3.233   7.234   5.229
94113SOL    HW284173   3.268   7.170   5.361
94114SOL     OW84174   4.467   3.799   2.441
94114SOL    HW184175   4.551   3.771   2.405
94114SOL    HW284176   4.475   3.895   2.446
94115SOL     OW84177  11.582  14.274   4.779
94115SOL    HW184178  11.643  14.228   4.721
94115SOL    HW284179  11.503  14.220   4.779
94116SOL     OW84180  14.699   1.662   6.430
94116SOL    HW184181  14.646   1.692   6.504
94116SOL    HW284182  14.787   1.650   6.467
94117SOL     OW84183   9.906  14.149   1.789
94117SOL    HW184184   9.842  14.218   1.804
94117SOL    HW284185   9.855  14.076   1.755
94118SOL     OW84186   0.123  12.611   8.864
94118SOL    HW184187   0.143  12.519   8.881
94118SOL    HW284188   0.028  12.613   8.854
94119SOL     OW84189  12.779   6.836   9.137
94119SOL    HW184190  12.779   6.749   9.097
94119SOL    HW284191  12.720   6.828   9.212
94120SOL     OW84192  11.447   2.002   6.396
94120SOL    HW184193  11.503   2.023   6.322
94120SOL    HW284194  11.504   2.011   6.473
94121SOL     OW84195  10.889   7.979   1.494
94121SOL    HW184196  10.873   7.999   1.402
94121SOL    HW284197  10.901   7.884   1.496
94122SOL     OW84198   6.407   3.502   8.616
94122SOL    HW184199   6.425   3.516   8.523
94122SOL    HW284200   6.312   3.513   8.624
94123SOL     OW84201   0.533   1.231  11.620
94123SOL    HW184202   0.491   1.175  11.685
94123SOL    HW284203   0.609   1.181  11.591
94124SOL     OW84204  14.135  12.769  10.236
94124SOL    HW184205  14.163  12.686  10.198
94124SOL    HW284206  14.168  12.767  10.326
94125SOL     OW84207  13.372   2.687  10.988
94125SOL    HW184208  13.379   2.737  10.906
94125SOL    HW284209  13.445   2.719  11.041
94126SOL     OW84210   6.635  13.060   3.382
94126SOL    HW184211   6.668  13.142   3.344
94126SOL    HW284212   6.574  13.026   3.316
94127SOL     OW84213   9.989   8.584   6.874
94127SOL    HW184214   9.961   8.675   6.870
94127SOL    HW284215   9.911   8.534   6.847
94128SOL     OW84216   0.018   9.368   5.050
94128SOL    HW184217   0.086   9.311   5.014
94128SOL    HW284218  14.854   9.319   5.123
94129SOL     OW84219   6.049   5.159  14.599
94129SOL    HW184220   5.978   5.215  14.629
94129SOL    HW284221   6.128   5.210  14.614
94130SOL     OW84222   4.769  11.136  12.602
94130SOL    HW184223   4.815  11.073  12.547
94130SOL    HW284224   4.809  11.221  12.581
94131SOL     OW84225   7.399   6.769   0.846
94131SOL    HW184226   7.341   6.725   0.907
94131SOL    HW284227   7.449   6.698   0.804
94132SOL     OW84228   8.439   1.213   5.998
94132SOL    HW184229   8.372   1.279   5.984
94132SOL    HW284230   8.391   1.136   6.029
94133SOL     OW84231   7.626   0.498   1.073
94133SOL    HW184232   7.704   0.530   1.027
94133SOL    HW284233   7.554   0.515   1.013
94134SOL     OW84234  12.596  11.435   4.002
94134SOL    HW184235  12.526  11.473   3.949
94134SOL    HW284236  12.596  11.486   4.082
94135SOL     OW84237  11.780   0.176   8.742
94135SOL    HW184238  11.866   0.172   8.785
94135SOL    HW284239  11.745   0.262   8.766
94136SOL     OW84240  11.405   3.440   7.247
94136SOL    HW184241  11.483   3.386   7.250
94136SOL    HW284242  11.414   3.490   7.165
94137SOL     OW84243  10.201  12.247   6.690
94137SOL    HW184244  10.166  12.213   6.608
94137SOL    HW284245  10.213  12.341   6.674
94138SOL     OW84246   5.154  11.487   3.643
94138SOL    HW184247   5.098  11.409   3.639
94138SOL    HW284248   5.095  11.558   3.667
94139SOL     OW84249   6.454   9.795   9.639
94139SOL    HW184250   6.421   9.883   9.658
94139SOL    HW284251   6.432   9.744   9.717
94140SOL     OW84252   0.042   5.018   4.263
94140SOL    HW184253   0.050   5.064   4.347
94140SOL    HW284254   0.132   5.001   4.236
94141SOL     OW84255  10.913  13.162   1.701
94141SOL    HW184256  10.956  13.175   1.617
94141SOL    HW284257  10.983  13.169   1.765
94142SOL     OW84258  13.673   0.655  11.075
94142SOL    HW184259  13.690   0.750  11.077
94142SOL    HW284260  13.578   0.648  11.081
94143SOL     OW84261   2.145   5.267   9.481
94143SOL    HW184262   2.191   5.186   9.460
94143SOL    HW284263   2.053   5.249   9.460
94144SOL     OW84264  10.285   3.633  14.187
94144SOL    HW184265  10.319   3.702  14.130
94144SOL    HW284266  10.351   3.626  14.256
94145SOL     OW84267   0.977  10.888   5.652
94145SOL    HW184268   1.053  10.831   5.640
94145SOL    HW284269   0.902  10.828   5.646
94146SOL     OW84270  11.160   4.094   9.643
94146SOL    HW184271  11.131   4.184   9.629
94146SOL    HW284272  11.250   4.101   9.674
94147SOL     OW84273  11.533   2.724   2.955
94147SOL    HW184274  11.594   2.797   2.944
94147SOL    HW284275  11.588   2.651   2.982
94148SOL     OW84276   8.293   0.249  10.719
94148SOL    HW184277   8.285   0.250  10.624
94148SOL    HW284278   8.364   0.186  10.736
94149SOL     OW84279   0.994  11.438   4.494
94149SOL    HW184280   0.986  11.452   4.399
94149SOL    HW284281   0.925  11.492   4.532
94150SOL     OW84282   6.904  13.045  11.508
94150SOL    HW184283   6.858  13.055  11.591
94150SOL    HW284284   6.844  12.995  11.453
94151SOL     OW84285   0.755   2.456   3.945
94151SOL    HW184286   0.722   2.494   4.027
94151SOL    HW284287   0.749   2.527   3.882
94152SOL     OW84288   6.362   3.354  13.862
94152SOL    HW184289   6.303   3.411  13.814
94152SOL    HW284290   6.443   3.404  13.869
94153SOL     OW84291   7.155   6.068  14.357
94153SOL    HW184292   7.080   6.079  14.299
94153SOL    HW284293   7.170   5.974  14.361
94154SOL     OW84294   9.903   0.627  11.547
94154SOL    HW184295   9.879   0.665  11.631
94154SOL    HW284296   9.828   0.644  11.490
94155SOL     OW84297  10.946   4.992   8.002
94155SOL    HW184298  10.960   5.047   7.925
94155SOL    HW284299  11.035   4.974   8.034
94156SOL     OW84300  12.030   0.243   3.664
94156SOL    HW184301  12.041   0.149   3.648
94156SOL    HW284302  11.941   0.261   3.636
94157SOL     OW84303   3.448   8.728   8.025
94157SOL    HW184304   3.410   8.674   8.094
94157SOL    HW284305   3.400   8.704   7.946
94158SOL     OW84306   2.635   8.464   3.812
94158SOL    HW184307   2.605   8.389   3.761
94158SOL    HW284308   2.720   8.438   3.846
94159SOL     OW84309  11.681   7.514   2.912
94159SOL    HW184310  11.679   7.489   3.005
94159SOL    HW284311  11.767   7.485   2.882
94160SOL     OW84312   8.877   3.600   0.717
94160SOL    HW184313   8.866   3.507   0.697
94160SOL    HW284314   8.807   3.619   0.779
94161SOL     OW84315  10.939   1.083   2.706
94161SOL    HW184316  10.894   1.094   2.623
94161SOL    HW284317  10.888   1.016   2.753
94162SOL     OW84318   7.035  14.009   7.207
94162SOL    HW184319   7.028  14.006   7.302
94162SOL    HW284320   6.948  13.984   7.176
94163SOL     OW84321   1.556   9.977  10.660
94163SOL    HW184322   1.621  10.046  10.665
94163SOL    HW284323   1.605   9.896  10.673
94164SOL     OW84324   8.237   2.859  13.439
94164SOL    HW184325   8.173   2.797  13.403
94164SOL    HW284326   8.311   2.855  13.379
94165SOL     OW84327  11.264   0.358   0.844
94165SOL    HW184328  11.277   0.390   0.755
94165SOL    HW284329  11.307   0.424   0.899
94166SOL     OW84330   2.486   2.934  14.700
94166SOL    HW184331   2.463   2.952  14.609
94166SOL    HW284332   2.460   3.013  14.747
94167SOL     OW84333   9.431  14.516   0.705
94167SOL    HW184334   9.443  14.603   0.741
94167SOL    HW284335   9.501  14.508   0.640
94168SOL     OW84336  14.131   7.631   5.882
94168SOL    HW184337  14.108   7.710   5.832
94168SOL    HW284338  14.063   7.625   5.949
94169SOL     OW84339   6.829   0.439   2.585
94169SOL    HW184340   6.736   0.448   2.601
94169SOL    HW284341   6.863   0.529   2.587
94170SOL     OW84342   6.093  11.450  12.957
94170SOL    HW184343   6.168  11.490  12.913
94170SOL    HW284344   6.017  11.479  12.906
94171SOL     OW84345   1.599   7.517  14.593
94171SOL    HW184346   1.673   7.577  14.607
94171SOL    HW284347   1.525   7.560  14.638
94172SOL     OW84348  12.686   6.711  14.001
94172SOL    HW184349  12.609   6.673  14.043
94172SOL    HW284350  12.752   6.642  14.005
94173SOL     OW84351   6.884   9.105   0.485
94173SOL    HW184352   6.811   9.046   0.500
94173SOL    HW284353   6.962   9.053   0.507
94174SOL     OW84354  14.781  10.945  12.804
94174SOL    HW184355  14.785  10.860  12.759
94174SOL    HW284356  14.724  10.999  12.749
94175SOL     OW84357   2.730   9.572   3.311
94175SOL    HW184358   2.646   9.566   3.357
94175SOL    HW284359   2.770   9.486   3.325
94176SOL     OW84360   3.735   8.665   6.323
94176SOL    HW184361   3.731   8.620   6.239
94176SOL    HW284362   3.822   8.644   6.357
94177SOL     OW84363   2.554  14.533  12.645
94177SOL    HW184364   2.609  14.467  12.687
94177SOL    HW284365   2.493  14.482  12.591
94178SOL     OW84366   9.897   9.672   8.327
94178SOL    HW184367   9.952   9.673   8.249
94178SOL    HW284368   9.808   9.661   8.293
94179SOL     OW84369  13.158   9.788   3.047
94179SOL    HW184370  13.246   9.777   3.083
94179SOL    HW284371  13.173   9.822   2.959
94180SOL     OW84372  12.061   9.426   0.565
94180SOL    HW184373  12.107   9.392   0.641
94180SOL    HW284374  12.117   9.402   0.491
94181SOL     OW84375  14.581   1.936  13.801
94181SOL    HW184376  14.508   1.994  13.779
94181SOL    HW284377  14.631   1.985  13.867
94182SOL     OW84378  12.289  11.941   9.055
94182SOL    HW184379  12.254  11.919   8.969
94182SOL    HW284380  12.324  11.859   9.089
94183SOL     OW84381   0.465  11.490   2.649
94183SOL    HW184382   0.446  11.481   2.742
94183SOL    HW284383   0.506  11.407   2.625
94184SOL     OW84384   5.664   3.880  11.045
94184SOL    HW184385   5.577   3.920  11.054
94184SOL    HW284386   5.657   3.797  11.092
94185SOL     OW84387  12.107   9.635   4.968
94185SOL    HW184388  12.035   9.573   4.959
94185SOL    HW284389  12.068   9.720   4.954
94186SOL     OW84390   2.874   1.255  13.195
94186SOL    HW184391   2.899   1.320  13.129
94186SOL    HW284392   2.813   1.302  13.253
94187SOL     OW84393   4.782   1.080  11.200
94187SOL    HW184394   4.698   1.057  11.161
94187SOL    HW284395   4.827   0.996  11.213
94188SOL     OW84396  10.955   0.202  13.025
94188SOL    HW184397  10.907   0.249  12.957
94188SOL    HW284398  10.887   0.169  13.084
94189SOL     OW84399  11.662   5.784  12.749
94189SOL    HW184400  11.567   5.782  12.735
94189SOL    HW284401  11.686   5.876  12.737
94190SOL     OW84402   3.440  11.010  13.997
94190SOL    HW184403   3.499  10.979  13.929
94190SOL    HW284404   3.454  10.951  14.071
94191SOL     OW84405   2.800   8.460   5.837
94191SOL    HW184406   2.750   8.528   5.882
94191SOL    HW284407   2.742   8.431   5.767
94192SOL     OW84408   9.169   2.703   8.612
94192SOL    HW184409   9.090   2.661   8.644
94192SOL    HW284410   9.139   2.787   8.576
94193SOL     OW84411   9.687   6.700  10.915
94193SOL    HW184412   9.753   6.758  10.876
94193SOL    HW284413   9.661   6.642  10.843
94194SOL     OW84414   8.437   7.965   2.948
94194SOL    HW184415   8.451   8.007   3.033
94194SOL    HW284416   8.524   7.938   2.920
94195SOL     OW84417   6.197   6.934   7.577
94195SOL    HW184418   6.120   6.877   7.579
94195SOL    HW284419   6.161   7.022   7.593
94196SOL     OW84420   1.353   9.014  12.237
94196SOL    HW184421   1.318   9.097  12.205
94196SOL    HW284422   1.333   8.951  12.168
94197SOL     OW84423  10.625   3.422  14.568
94197SOL    HW184424  10.677   3.350  14.533
94197SOL    HW284425  10.570   3.381  14.635
94198SOL     OW84426  12.670   3.860  13.794
94198SOL    HW184427  12.684   3.879  13.702
94198SOL    HW284428  12.661   3.765  13.799
94199SOL     OW84429  12.476  13.087   4.585
94199SOL    HW184430  12.410  13.156   4.596
94199SOL    HW284431  12.426  13.007   4.571
94200SOL     OW84432   4.828   0.154   5.804
94200SOL    HW184433   4.732   0.160   5.796
94200SOL    HW284434   4.842   0.130   5.896
94201SOL     OW84435  12.118   7.255  10.261
94201SOL    HW184436  12.170   7.293  10.332
94201SOL    HW284437  12.028   7.263  10.291
94202SOL     OW84438   9.188   1.819   6.362
94202SOL    HW184439   9.262   1.879   6.356
94202SOL    HW284440   9.111   1.875   6.355
94203SOL     OW84441  11.614   2.421   4.324
94203SOL    HW184442  11.569   2.348   4.366
94203SOL    HW284443  11.582   2.421   4.233
94204SOL     OW84444  14.151   5.691   6.178
94204SOL    HW184445  14.173   5.693   6.271
94204SOL    HW284446  14.227   5.650   6.136
94205SOL     OW84447   2.284   0.765  13.191
94205SOL    HW184448   2.228   0.793  13.119
94205SOL    HW284449   2.237   0.792  13.270
94206SOL     OW84450   4.679   0.352  14.701
94206SOL    HW184451   4.709   0.269  14.665
94206SOL    HW284452   4.639   0.329  14.784
94207SOL     OW84453  14.462   6.930  11.016
94207SOL    HW184454  14.532   6.955  10.956
94207SOL    HW284455  14.439   6.841  10.989
94208SOL     OW84456  13.982  12.914   8.530
94208SOL    HW184457  13.943  12.916   8.617
94208SOL    HW284458  13.951  12.832   8.492
94209SOL     OW84459  11.589   6.285  12.604
94209SOL    HW184460  11.613   6.377  12.593
94209SOL    HW284461  11.506   6.288  12.652
94210SOL     OW84462  12.363  11.432   6.442
94210SOL    HW184463  12.352  11.478   6.359
94210SOL    HW284464  12.449  11.458   6.473
94211SOL     OW84465  10.227   0.519  13.420
94211SOL    HW184466  10.270   0.575  13.485
94211SOL    HW284467  10.292   0.508  13.351
94212SOL     OW84468   8.473   0.225  12.419
94212SOL    HW184469   8.458   0.301  12.362
94212SOL    HW284470   8.567   0.210  12.414
94213SOL     OW84471   2.623   0.513  11.960
94213SOL    HW184472   2.619   0.606  11.936
94213SOL    HW284473   2.698   0.507  12.019
94214SOL     OW84474   9.540   2.344   6.888
94214SOL    HW184475   9.617   2.389   6.856
94214SOL    HW284476   9.467   2.405   6.872
94215SOL     OW84477   6.303   0.595  10.472
94215SOL    HW184478   6.361   0.519  10.479
94215SOL    HW284479   6.353   0.667  10.511
94216SOL     OW84480   9.418   1.678   4.094
94216SOL    HW184481   9.485   1.639   4.038
94216SOL    HW284482   9.462   1.749   4.140
94217SOL     OW84483   3.025  14.326  10.123
94217SOL    HW184484   3.095  14.354  10.064
94217SOL    HW284485   2.975  14.263  10.072
94218SOL     OW84486   5.700  13.136   7.814
94218SOL    HW184487   5.767  13.069   7.825
94218SOL    HW284488   5.703  13.187   7.895
94219SOL     OW84489  12.965   3.960   4.390
94219SOL    HW184490  13.017   4.040   4.391
94219SOL    HW284491  13.015   3.898   4.444
94220SOL     OW84492   5.645   3.551  13.959
94220SOL    HW184493   5.703   3.609  14.009
94220SOL    HW284494   5.610   3.490  14.023
94221SOL     OW84495  11.116   9.161   7.892
94221SOL    HW184496  11.076   9.232   7.843
94221SOL    HW284497  11.172   9.204   7.957
94222SOL     OW84498  11.047   0.386  11.824
94222SOL    HW184499  11.012   0.474  11.810
94222SOL    HW284500  10.973   0.328  11.806
94223SOL     OW84501   2.290   1.790   3.540
94223SOL    HW184502   2.216   1.757   3.590
94223SOL    HW284503   2.361   1.799   3.604
94224SOL     OW84504   3.266  11.732  14.617
94224SOL    HW184505   3.305  11.750  14.702
94224SOL    HW284506   3.337  11.745  14.554
94225SOL     OW84507   2.773   6.089   5.517
94225SOL    HW184508   2.693   6.074   5.567
94225SOL    HW284509   2.743   6.123   5.433
94226SOL     OW84510   9.124   4.132  13.114
94226SOL    HW184511   9.057   4.193  13.084
94226SOL    HW284512   9.156   4.090  13.034
94227SOL     OW84513   7.843  12.194   2.635
94227SOL    HW184514   7.786  12.117   2.634
94227SOL    HW284515   7.914  12.173   2.574
94228SOL     OW84516   6.303   5.564   1.216
94228SOL    HW184517   6.335   5.505   1.149
94228SOL    HW284518   6.345   5.648   1.197
94229SOL     OW84519   8.078  13.485   1.285
94229SOL    HW184520   8.105  13.464   1.375
94229SOL    HW284521   8.082  13.402   1.238
94230SOL     OW84522   4.765  12.289  14.747
94230SOL    HW184523   4.775  12.341  14.826
94230SOL    HW284524   4.845  12.236  14.742
94231SOL     OW84525  14.644   0.690   1.734
94231SOL    HW184526  14.590   0.621   1.772
94231SOL    HW284527  14.667   0.658   1.647
94232SOL     OW84528   3.886  14.065   7.761
94232SOL    HW184529   3.932  14.149   7.752
94232SOL    HW284530   3.839  14.073   7.844
94233SOL     OW84531   1.361  10.348  13.921
94233SOL    HW184532   1.343  10.287  13.849
94233SOL    HW284533   1.416  10.415  13.881
94234SOL     OW84534   5.461   9.766   8.382
94234SOL    HW184535   5.425   9.809   8.304
94234SOL    HW284536   5.545   9.729   8.352
94235SOL     OW84537   1.922  14.746   5.884
94235SOL    HW184538   2.008  14.784   5.901
94235SOL    HW284539   1.920  14.733   5.790
94236SOL     OW84540   8.762  11.544   9.759
94236SOL    HW184541   8.856  11.540   9.740
94236SOL    HW284542   8.743  11.637   9.767
94237SOL     OW84543  10.122   9.517  14.747
94237SOL    HW184544  10.133   9.495  14.840
94237SOL    HW284545  10.195   9.475  14.703
94238SOL     OW84546   6.043  12.903  10.406
94238SOL    HW184547   6.048  12.998  10.420
94238SOL    HW284548   6.067  12.891  10.314
94239SOL     OW84549   4.582  10.349   9.979
94239SOL    HW184550   4.534  10.281   9.931
94239SOL    HW284551   4.527  10.368  10.055
94240SOL     OW84552  13.008   0.550   8.640
94240SOL    HW184553  12.966   0.635   8.654
94240SOL    HW284554  12.998   0.533   8.546
94241SOL     OW84555   0.742   6.940  12.247
94241SOL    HW184556   0.727   7.028  12.280
94241SOL    HW284557   0.818   6.908  12.295
94242SOL     OW84558   6.830   2.642   1.735
94242SOL    HW184559   6.873   2.659   1.652
94242SOL    HW284560   6.854   2.552   1.757
94243SOL     OW84561   2.151   2.198   0.976
94243SOL    HW184562   2.217   2.222   0.911
94243SOL    HW284563   2.199   2.146   1.041
94244SOL     OW84564  14.019  12.041   1.346
94244SOL    HW184565  13.974  12.015   1.426
94244SOL    HW284566  14.112  12.030   1.366
94245SOL     OW84567   5.723   8.454   1.895
94245SOL    HW184568   5.784   8.486   1.962
94245SOL    HW284569   5.779   8.425   1.823
94246SOL     OW84570   3.761   2.599   5.000
94246SOL    HW184571   3.844   2.647   5.001
94246SOL    HW284572   3.741   2.590   4.906
94247SOL     OW84573   6.995   5.650   2.287
94247SOL    HW184574   6.998   5.619   2.378
94247SOL    HW284575   6.909   5.691   2.279
94248SOL     OW84576  10.322   5.382  14.606
94248SOL    HW184577  10.266   5.459  14.622
94248SOL    HW284578  10.272   5.328  14.545
94249SOL     OW84579   8.628  13.882   3.043
94249SOL    HW184580   8.579  13.920   3.116
94249SOL    HW284581   8.602  13.935   2.967
94250SOL     OW84582   3.317  10.016  14.286
94250SOL    HW184583   3.276  10.098  14.258
94250SOL    HW284584   3.315  10.019  14.381
94251SOL     OW84585   5.942   0.201   9.860
94251SOL    HW184586   5.952   0.135   9.929
94251SOL    HW284587   5.858   0.243   9.880
94252SOL     OW84588   9.663   0.900  12.919
94252SOL    HW184589   9.585   0.922  12.868
94252SOL    HW284590   9.735   0.913  12.858
94253SOL     OW84591   6.064  10.484  13.578
94253SOL    HW184592   6.074  10.464  13.484
94253SOL    HW284593   6.141  10.444  13.618
94254SOL     OW84594  12.382   6.237  12.816
94254SOL    HW184595  12.339   6.286  12.745
94254SOL    HW284596  12.473   6.228  12.787
94255SOL     OW84597  14.187   1.831   1.748
94255SOL    HW184598  14.238   1.864   1.674
94255SOL    HW284599  14.252   1.820   1.818
94256SOL     OW84600   9.661   3.853   5.421
94256SOL    HW184601   9.676   3.905   5.342
94256SOL    HW284602   9.572   3.877   5.448
94257SOL     OW84603   3.116   4.613   1.392
94257SOL    HW184604   3.030   4.648   1.372
94257SOL    HW284605   3.169   4.689   1.416
94258SOL     OW84606   9.420  11.623  11.263
94258SOL    HW184607   9.377  11.638  11.347
94258SOL    HW284608   9.501  11.577  11.286
94259SOL     OW84609   2.776   0.057   9.594
94259SOL    HW184610   2.727  14.871   9.537
94259SOL    HW284611   2.755   0.029   9.683
94260SOL     OW84612  13.235   3.879   2.460
94260SOL    HW184613  13.318   3.924   2.475
94260SOL    HW284614  13.185   3.938   2.405
94261SOL     OW84615   7.266   4.603   1.693
94261SOL    HW184616   7.246   4.614   1.600
94261SOL    HW284617   7.288   4.510   1.702
94262SOL     OW84618   9.110  11.919   4.830
94262SOL    HW184619   9.115  11.824   4.827
94262SOL    HW284620   9.201  11.948   4.824
94263SOL     OW84621  12.446   9.004   4.673
94263SOL    HW184622  12.540   8.987   4.680
94263SOL    HW284623  12.415   9.008   4.763
94264SOL     OW84624  13.445   7.575   4.393
94264SOL    HW184625  13.528   7.561   4.438
94264SOL    HW284626  13.468   7.621   4.313
94265SOL     OW84627   5.816  13.250   0.079
94265SOL    HW184628   5.814  13.201   0.161
94265SOL    HW284629   5.735  13.227   0.035
94266SOL     OW84630  12.848   2.646  13.607
94266SOL    HW184631  12.905   2.569  13.609
94266SOL    HW284632  12.849   2.680  13.697
94267SOL     OW84633   7.779  13.845  13.586
94267SOL    HW184634   7.697  13.825  13.540
94267SOL    HW284635   7.792  13.771  13.645
94268SOL     OW84636  12.385   2.260  12.432
94268SOL    HW184637  12.389   2.263  12.528
94268SOL    HW284638  12.296   2.287  12.411
94269SOL     OW84639   2.940   3.014   9.594
94269SOL    HW184640   3.009   2.992   9.657
94269SOL    HW284641   2.866   2.959   9.619
94270SOL     OW84642   3.333   0.933  11.489
94270SOL    HW184643   3.317   0.960  11.579
94270SOL    HW284644   3.396   0.997  11.455
94271SOL     OW84645   5.460  12.546   3.205
94271SOL    HW184646   5.486  12.473   3.262
94271SOL    HW284647   5.380  12.580   3.245
94272SOL     OW84648   5.651   4.214   1.176
94272SOL    HW184649   5.598   4.279   1.131
94272SOL    HW284650   5.737   4.255   1.185
94273SOL     OW84651  13.713  11.870  11.193
94273SOL    HW184652  13.711  11.959  11.228
94273SOL    HW284653  13.784  11.826  11.240
94274SOL     OW84654   5.572   5.552  14.814
94274SOL    HW184655   5.516   5.486  14.856
94274SOL    HW284656   5.568   5.530  14.721
94275SOL     OW84657  11.026   0.598  10.875
94275SOL    HW184658  11.119   0.578  10.878
94275SOL    HW284659  11.009   0.643  10.957
94276SOL     OW84660  14.273   1.560   4.588
94276SOL    HW184661  14.302   1.495   4.652
94276SOL    HW284662  14.348   1.572   4.530
94277SOL     OW84663   8.819  11.364   5.551
94277SOL    HW184664   8.880  11.428   5.587
94277SOL    HW284665   8.874  11.289   5.528
94278SOL     OW84666   9.986   0.072  14.324
94278SOL    HW184667   9.944   0.054  14.408
94278SOL    HW284668  10.031   0.156  14.337
94279SOL     OW84669   2.247  11.644   4.384
94279SOL    HW184670   2.323  11.590   4.362
94279SOL    HW284671   2.240  11.639   4.480
94280SOL     OW84672   9.707  12.322  10.412
94280SOL    HW184673   9.711  12.334  10.507
94280SOL    HW284674   9.708  12.228  10.399
94281SOL     OW84675   5.588   5.379   1.748
94281SOL    HW184676   5.543   5.456   1.782
94281SOL    HW284677   5.584   5.315   1.819
94282SOL     OW84678  14.034   3.221   5.363
94282SOL    HW184679  14.099   3.255   5.302
94282SOL    HW284680  13.952   3.264   5.337
94283SOL     OW84681   2.612  12.382   4.443
94283SOL    HW184682   2.653  12.406   4.360
94283SOL    HW284683   2.656  12.437   4.508
94284SOL     OW84684   2.790   1.394   6.529
94284SOL    HW184685   2.812   1.370   6.619
94284SOL    HW284686   2.812   1.317   6.477
94285SOL     OW84687   3.071   9.526   0.356
94285SOL    HW184688   3.002   9.521   0.290
94285SOL    HW284689   3.024   9.544   0.438
94286SOL     OW84690   7.902   3.987  10.272
94286SOL    HW184691   7.966   3.993  10.201
94286SOL    HW284692   7.847   3.912  10.248
94287SOL     OW84693   5.655   0.403   8.428
94287SOL    HW184694   5.641   0.395   8.334
94287SOL    HW284695   5.664   0.313   8.459
94288SOL     OW84696   7.837  12.193   7.355
94288SOL    HW184697   7.745  12.219   7.353
94288SOL    HW284698   7.851  12.148   7.272
94289SOL     OW84699   6.468  12.146   8.133
94289SOL    HW184700   6.540  12.111   8.080
94289SOL    HW284701   6.463  12.088   8.209
94290SOL     OW84702   3.393  14.818  12.346
94290SOL    HW184703   3.341  14.832  12.426
94290SOL    HW284704   3.368   0.018  12.289
94291SOL     OW84705   6.303   8.928   9.023
94291SOL    HW184706   6.254   8.879   8.956
94291SOL    HW284707   6.276   9.019   9.011
94292SOL     OW84708   6.472   6.582  10.012
94292SOL    HW184709   6.537   6.617  10.073
94292SOL    HW284710   6.389   6.619  10.043
94293SOL     OW84711   9.001   4.884  12.315
94293SOL    HW184712   8.907   4.868  12.322
94293SOL    HW284713   9.029   4.828  12.242
94294SOL     OW84714   1.297   2.942  10.636
94294SOL    HW184715   1.206   2.972  10.630
94294SOL    HW284716   1.334   2.995  10.706
94295SOL     OW84717   5.386   8.242   6.406
94295SOL    HW184718   5.336   8.311   6.363
94295SOL    HW284719   5.335   8.162   6.390
94296SOL     OW84720  10.978   4.847  14.258
94296SOL    HW184721  10.931   4.881  14.182
94296SOL    HW284722  10.909   4.812  14.315
94297SOL     OW84723   3.332   2.275   4.738
94297SOL    HW184724   3.427   2.260   4.736
94297SOL    HW284725   3.296   2.210   4.678
94298SOL     OW84726   3.090  14.702   5.762
94298SOL    HW184727   3.087  14.779   5.705
94298SOL    HW284728   3.144  14.729   5.836
94299SOL     OW84729   4.036  10.704   5.515
94299SOL    HW184730   4.096  10.768   5.475
94299SOL    HW284731   4.024  10.638   5.447
94300SOL     OW84732   1.703   4.212  11.064
94300SOL    HW184733   1.669   4.170  11.143
94300SOL    HW284734   1.723   4.140  11.005
94301SOL     OW84735   7.026   2.305   5.745
94301SOL    HW184736   7.089   2.246   5.703
94301SOL    HW284737   7.046   2.391   5.706
94302SOL     OW84738   2.257   8.807  13.867
94302SOL    HW184739   2.272   8.858  13.787
94302SOL    HW284740   2.203   8.864  13.922
94303SOL     OW84741   9.382  11.988   4.157
94303SOL    HW184742   9.403  11.978   4.064
94303SOL    HW284743   9.467  11.991   4.201
94304SOL     OW84744   1.227   1.804   1.670
94304SOL    HW184745   1.264   1.808   1.583
94304SOL    HW284746   1.143   1.759   1.659
94305SOL     OW84747   2.967  10.873  12.683
94305SOL    HW184748   3.061  10.871  12.662
94305SOL    HW284749   2.930  10.938  12.624
94306SOL     OW84750   1.812   7.590   3.984
94306SOL    HW184751   1.717   7.595   4.000
94306SOL    HW284752   1.826   7.500   3.956
94307SOL     OW84753   5.322   1.562   2.814
94307SOL    HW184754   5.332   1.578   2.907
94307SOL    HW284755   5.360   1.640   2.772
94308SOL     OW84756   9.369   8.676  12.915
94308SOL    HW184757   9.279   8.703  12.897
94308SOL    HW284758   9.395   8.627  12.837
94309SOL     OW84759  12.556   5.682   3.911
94309SOL    HW184760  12.489   5.749   3.894
94309SOL    HW284761  12.522   5.603   3.870
94310SOL     OW84762   8.638  11.406   7.936
94310SOL    HW184763   8.714  11.411   7.879
94310SOL    HW284764   8.592  11.489   7.923
94311SOL     OW84765  14.300   7.463   9.586
94311SOL    HW184766  14.386   7.505   9.575
94311SOL    HW284767  14.237   7.534   9.577
94312SOL     OW84768   9.506   9.078  10.436
94312SOL    HW184769   9.419   9.113  10.456
94312SOL    HW284770   9.548   9.069  10.522
94313SOL     OW84771   9.785   9.460  10.112
94313SOL    HW184772   9.825   9.379  10.143
94313SOL    HW284773   9.693   9.452  10.137
94314SOL     OW84774   3.446  13.718   2.747
94314SOL    HW184775   3.525  13.665   2.738
94314SOL    HW284776   3.475  13.796   2.794
94315SOL     OW84777   8.780  11.272  10.340
94315SOL    HW184778   8.725  11.226  10.404
94315SOL    HW284779   8.785  11.212  10.266
94316SOL     OW84780   5.836  12.342   0.941
94316SOL    HW184781   5.753  12.325   0.984
94316SOL    HW284782   5.830  12.295   0.857
94317SOL     OW84783  12.131  10.428   2.303
94317SOL    HW184784  12.149  10.336   2.284
94317SOL    HW284785  12.076  10.426   2.381
94318SOL     OW84786   3.759   5.083   1.272
94318SOL    HW184787   3.854   5.073   1.281
94318SOL    HW284788   3.746   5.101   1.179
94319SOL     OW84789   8.251   6.979  12.200
94319SOL    HW184790   8.215   6.926  12.271
94319SOL    HW284791   8.199   6.957  12.123
94320SOL     OW84792   0.860  13.115  11.656
94320SOL    HW184793   0.823  13.186  11.604
94320SOL    HW284794   0.792  13.093  11.719
94321SOL     OW84795   0.779   4.231   4.104
94321SOL    HW184796   0.777   4.319   4.065
94321SOL    HW284797   0.688   4.214   4.130
94322SOL     OW84798   2.004   0.148   4.337
94322SOL    HW184799   2.097   0.126   4.326
94322SOL    HW284800   1.993   0.153   4.432
94323SOL     OW84801  13.719   1.982   7.078
94323SOL    HW184802  13.640   2.032   7.058
94323SOL    HW284803  13.709   1.901   7.028
94324SOL     OW84804   9.608   3.300   0.260
94324SOL    HW184805   9.582   3.300   0.352
94324SOL    HW284806   9.661   3.221   0.251
94325SOL     OW84807  11.049   2.963   6.199
94325SOL    HW184808  11.081   3.017   6.272
94325SOL    HW284809  10.973   3.010   6.166
94326SOL     OW84810   4.641   7.906   6.431
94326SOL    HW184811   4.729   7.877   6.409
94326SOL    HW284812   4.596   7.825   6.457
94327SOL     OW84813  10.837   4.605   6.022
94327SOL    HW184814  10.784   4.656   6.084
94327SOL    HW284815  10.773   4.562   5.965
94328SOL     OW84816   4.708   3.534   0.579
94328SOL    HW184817   4.645   3.569   0.641
94328SOL    HW284818   4.656   3.481   0.518
94329SOL     OW84819   3.227  10.841  12.605
94329SOL    HW184820   3.253  10.871  12.517
94329SOL    HW284821   3.277  10.897  12.665
94330SOL     OW84822   7.792   0.877  13.116
94330SOL    HW184823   7.794   0.797  13.170
94330SOL    HW284824   7.873   0.922  13.137
94331SOL     OW84825   2.348   5.613  13.379
94331SOL    HW184826   2.261   5.617  13.419
94331SOL    HW284827   2.362   5.520  13.362
94332SOL     OW84828   4.184  13.643   7.428
94332SOL    HW184829   4.255  13.646   7.365
94332SOL    HW284830   4.104  13.644   7.375
94333SOL     OW84831   9.356   1.128   1.262
94333SOL    HW184832   9.397   1.189   1.324
94333SOL    HW284833   9.416   1.053   1.259
94334SOL     OW84834  13.818  12.980   3.019
94334SOL    HW184835  13.848  13.033   3.093
94334SOL    HW284836  13.896  12.965   2.966
94335SOL     OW84837   1.705   9.351   2.161
94335SOL    HW184838   1.618   9.371   2.195
94335SOL    HW284839   1.689   9.297   2.084
94336SOL     OW84840   0.621  14.510   3.215
94336SOL    HW184841   0.695  14.533   3.271
94336SOL    HW284842   0.661  14.475   3.136
94337SOL     OW84843   2.748   4.975   3.283
94337SOL    HW184844   2.824   4.939   3.330
94337SOL    HW284845   2.698   5.021   3.350
94338SOL     OW84846   2.610  11.110   5.197
94338SOL    HW184847   2.590  11.016   5.194
94338SOL    HW284848   2.688  11.119   5.142
94339SOL     OW84849   4.471   1.940   9.587
94339SOL    HW184850   4.443   1.864   9.639
94339SOL    HW284851   4.509   1.902   9.508
94340SOL     OW84852  13.910   3.621   9.191
94340SOL    HW184853  13.843   3.665   9.245
94340SOL    HW284854  13.993   3.643   9.233
94341SOL     OW84855   6.018   6.661  13.688
94341SOL    HW184856   6.081   6.672  13.617
94341SOL    HW284857   6.023   6.743  13.738
94342SOL     OW84858   9.580   5.446  10.584
94342SOL    HW184859   9.504   5.504  10.578
94342SOL    HW284860   9.565   5.396  10.664
94343SOL     OW84861   7.201   1.942   7.883
94343SOL    HW184862   7.279   1.887   7.887
94343SOL    HW284863   7.229   2.025   7.923
94344SOL     OW84864  10.788   5.833   8.266
94344SOL    HW184865  10.792   5.926   8.246
94344SOL    HW284866  10.708   5.803   8.223
94345SOL     OW84867  11.476   1.315  12.420
94345SOL    HW184868  11.522   1.249  12.473
94345SOL    HW284869  11.482   1.395  12.472
94346SOL     OW84870  12.088   3.228   5.530
94346SOL    HW184871  12.041   3.298   5.484
94346SOL    HW284872  12.019   3.177   5.571
94347SOL     OW84873   9.052   4.816   3.462
94347SOL    HW184874   9.095   4.731   3.476
94347SOL    HW284875   9.009   4.808   3.377
94348SOL     OW84876   7.840   2.112   5.705
94348SOL    HW184877   7.871   2.023   5.691
94348SOL    HW284878   7.879   2.137   5.789
94349SOL     OW84879   8.969  14.010  13.644
94349SOL    HW184880   8.887  14.055  13.666
94349SOL    HW284881   8.957  13.983  13.553
94350SOL     OW84882   7.841   6.995   1.262
94350SOL    HW184883   7.802   6.908   1.255
94350SOL    HW284884   7.896   7.003   1.184
94351SOL     OW84885  13.676  10.970   0.555
94351SOL    HW184886  13.754  10.987   0.504
94351SOL    HW284887  13.708  10.945   0.642
94352SOL     OW84888   8.898   6.904   1.092
94352SOL    HW184889   8.956   6.972   1.126
94352SOL    HW284890   8.949   6.862   1.023
94353SOL     OW84891  13.958   1.259   2.530
94353SOL    HW184892  14.027   1.265   2.596
94353SOL    HW284893  13.995   1.302   2.453
94354SOL     OW84894   5.367   4.053   7.676
94354SOL    HW184895   5.374   4.026   7.768
94354SOL    HW284896   5.274   4.070   7.663
94355SOL     OW84897   7.884   2.636   1.717
94355SOL    HW184898   7.965   2.612   1.761
94355SOL    HW284899   7.898   2.612   1.625
94356SOL     OW84900   9.810  14.384   4.357
94356SOL    HW184901   9.774  14.456   4.305
94356SOL    HW284902   9.769  14.395   4.443
94357SOL     OW84903  14.046   9.881   0.985
94357SOL    HW184904  14.137   9.880   1.016
94357SOL    HW284905  14.016   9.970   1.005
94358SOL     OW84906   1.405   8.743   8.552
94358SOL    HW184907   1.497   8.753   8.576
94358SOL    HW284908   1.366   8.828   8.572
94359SOL     OW84909   9.539   4.162   0.824
94359SOL    HW184910   9.572   4.249   0.848
94359SOL    HW284911   9.493   4.132   0.902
94360SOL     OW84912   8.783  11.554  10.940
94360SOL    HW184913   8.724  11.580  11.011
94360SOL    HW284914   8.725  11.541  10.864
94361SOL     OW84915  11.056   9.291   8.182
94361SOL    HW184916  11.065   9.361   8.118
94361SOL    HW284917  11.146   9.260   8.196
94362SOL     OW84918  14.054  14.424  13.990
94362SOL    HW184919  13.980  14.439  14.050
94362SOL    HW284920  14.072  14.330  13.999
94363SOL     OW84921   2.169  12.580   5.800
94363SOL    HW184922   2.080  12.554   5.778
94363SOL    HW284923   2.201  12.512   5.859
94364SOL     OW84924   4.748  11.497  10.543
94364SOL    HW184925   4.676  11.552  10.513
94364SOL    HW284926   4.822  11.558  10.552
94365SOL     OW84927   0.006   2.973  12.361
94365SOL    HW184928  14.819   2.983  12.287
94365SOL    HW284929   0.063   2.900  12.336
94366SOL     OW84930   2.255  14.363   7.457
94366SOL    HW184931   2.269  14.287   7.514
94366SOL    HW284932   2.319  14.427   7.487
94367SOL     OW84933   0.775  14.175   1.432
94367SOL    HW184934   0.732  14.246   1.479
94367SOL    HW284935   0.837  14.139   1.495
94368SOL     OW84936  13.117   1.155   2.480
94368SOL    HW184937  13.163   1.194   2.555
94368SOL    HW284938  13.159   1.070   2.468
94369SOL     OW84939  13.194  10.116  11.231
94369SOL    HW184940  13.196  10.025  11.262
94369SOL    HW284941  13.125  10.117  11.165
94370SOL     OW84942  14.722   7.870   8.298
94370SOL    HW184943  14.639   7.849   8.341
94370SOL    HW284944  14.755   7.786   8.267
94371SOL     OW84945   3.239   4.154   4.814
94371SOL    HW184946   3.178   4.192   4.878
94371SOL    HW284947   3.303   4.224   4.798
94372SOL     OW84948   7.474   4.423   6.029
94372SOL    HW184949   7.443   4.337   6.059
94372SOL    HW284950   7.395   4.468   5.999
94373SOL     OW84951   2.621  11.200   1.199
94373SOL    HW184952   2.614  11.105   1.208
94373SOL    HW284953   2.626  11.233   1.289
94374SOL     OW84954   0.831  12.333   5.860
94374SOL    HW184955   0.864  12.423   5.853
94374SOL    HW284956   0.903  12.286   5.903
94375SOL     OW84957   0.742   4.411  12.365
94375SOL    HW184958   0.756   4.401  12.460
94375SOL    HW284959   0.817   4.367  12.326
94376SOL     OW84960   1.863   3.928   0.852
94376SOL    HW184961   1.790   3.867   0.867
94376SOL    HW284962   1.934   3.893   0.906
94377SOL     OW84963  12.337   3.668   4.745
94377SOL    HW184964  12.259   3.712   4.778
94377SOL    HW284965  12.408   3.731   4.760
94378SOL     OW84966   6.364   1.788  11.507
94378SOL    HW184967   6.450   1.827  11.487
94378SOL    HW284968   6.385   1.705  11.551
94379SOL     OW84969   5.213  10.638   6.058
94379SOL    HW184970   5.218  10.660   6.151
94379SOL    HW284971   5.134  10.585   6.050
94380SOL     OW84972   1.291  12.960   0.664
94380SOL    HW184973   1.340  13.041   0.676
94380SOL    HW284974   1.200  12.985   0.674
94381SOL     OW84975   6.229   8.414   3.488
94381SOL    HW184976   6.217   8.328   3.527
94381SOL    HW284977   6.320   8.437   3.506
94382SOL     OW84978   6.743   7.760   6.556
94382SOL    HW184979   6.798   7.793   6.627
94382SOL    HW284980   6.686   7.695   6.598
94383SOL     OW84981   3.215   0.511   7.791
94383SOL    HW184982   3.208   0.420   7.819
94383SOL    HW284983   3.310   0.528   7.789
94384SOL     OW84984   3.851   6.047   0.024
94384SOL    HW184985   3.758   6.065   0.031
94384SOL    HW284986   3.887   6.069   0.110
94385SOL     OW84987   7.892   9.540  10.896
94385SOL    HW184988   7.848   9.471  10.846
94385SOL    HW284989   7.957   9.493  10.948
94386SOL     OW84990   4.270   2.534  11.862
94386SOL    HW184991   4.194   2.477  11.874
94386SOL    HW284992   4.259   2.603  11.927
94387SOL     OW84993   0.647   1.152  11.065
94387SOL    HW184994   0.556   1.165  11.037
94387SOL    HW284995   0.651   1.193  11.152
94388SOL     OW84996   4.242   3.723  13.840
94388SOL    HW184997   4.239   3.645  13.895
94388SOL    HW284998   4.319   3.711  13.785
94389SOL     OW84999   4.064   9.653  14.291
94389SOL    HW185000   4.019   9.681  14.211
94389SOL    HW285001   4.121   9.727  14.314
94390SOL     OW85002   0.168  12.890  13.620
94390SOL    HW185003   0.115  12.843  13.555
94390SOL    HW285004   0.254  12.848  13.616
94391SOL     OW85005   0.058   2.281   1.905
94391SOL    HW185006   0.037   2.188   1.898
94391SOL    HW285007  14.860   2.317   1.959
94392SOL     OW85008  13.248  10.074   1.481
94392SOL    HW185009  13.283  10.133   1.548
94392SOL    HW285010  13.197  10.131   1.424
94393SOL     OW85011   8.701  10.049  13.580
94393SOL    HW185012   8.695   9.973  13.639
94393SOL    HW285013   8.688  10.124  13.638
94394SOL     OW85014   9.888   5.305   1.967
94394SOL    HW185015   9.944   5.309   2.045
94394SOL    HW285016   9.816   5.366   1.987
94395SOL     OW85017  11.297  12.498  12.852
94395SOL    HW185018  11.313  12.409  12.885
94395SOL    HW285019  11.384  12.536  12.844
94396SOL     OW85020   5.451  13.561  12.420
94396SOL    HW185021   5.374  13.517  12.384
94396SOL    HW285022   5.416  13.640  12.462
94397SOL     OW85023   0.863  13.445   6.579
94397SOL    HW185024   0.875  13.525   6.632
94397SOL    HW285025   0.830  13.477   6.495
94398SOL     OW85026   5.773  13.668   3.676
94398SOL    HW185027   5.769  13.725   3.753
94398SOL    HW285028   5.692  13.616   3.682
94399SOL     OW85029   2.272   6.646  12.702
94399SOL    HW185030   2.363   6.629  12.677
94399SOL    HW285031   2.271   6.634  12.797
94400SOL     OW85032   0.955   6.404  14.413
94400SOL    HW185033   1.005   6.395  14.494
94400SOL    HW285034   0.880   6.346  14.425
94401SOL     OW85035   1.543   5.011   7.418
94401SOL    HW185036   1.511   5.043   7.334
94401SOL    HW285037   1.527   5.084   7.479
94402SOL     OW85038  13.138   3.324  13.161
94402SOL    HW185039  13.081   3.320  13.239
94402SOL    HW285040  13.083   3.291  13.090
94403SOL     OW85041  12.206   4.484   5.864
94403SOL    HW185042  12.291   4.455   5.898
94403SOL    HW285043  12.155   4.404   5.855
94404SOL     OW85044   5.056   5.262   8.255
94404SOL    HW185045   5.067   5.167   8.259
94404SOL    HW285046   4.985   5.274   8.192
94405SOL     OW85047  11.203  11.607  14.216
94405SOL    HW185048  11.134  11.659  14.258
94405SOL    HW285049  11.270  11.598  14.283
94406SOL     OW85050   4.296  12.733  10.292
94406SOL    HW185051   4.258  12.725  10.379
94406SOL    HW285052   4.326  12.645  10.271
94407SOL     OW85053  14.052   2.531   8.279
94407SOL    HW185054  14.050   2.603   8.216
94407SOL    HW285055  13.977   2.547   8.336
94408SOL     OW85056   5.690  13.009  13.504
94408SOL    HW185057   5.737  13.011  13.420
94408SOL    HW285058   5.686  12.916  13.526
94409SOL     OW85059   2.443   3.421   2.732
94409SOL    HW185060   2.355   3.391   2.708
94409SOL    HW285061   2.475   3.355   2.793
94410SOL     OW85062   0.783   4.835   9.897
94410SOL    HW185063   0.796   4.929   9.891
94410SOL    HW285064   0.736   4.812   9.817
94411SOL     OW85065   2.142   3.521  11.653
94411SOL    HW185066   2.149   3.611  11.683
94411SOL    HW285067   2.162   3.468  11.730
94412SOL     OW85068   8.856   6.356   3.789
94412SOL    HW185069   8.936   6.409   3.791
94412SOL    HW285070   8.796   6.400   3.850
94413SOL     OW85071   3.294  14.201   1.246
94413SOL    HW185072   3.384  14.177   1.269
94413SOL    HW285073   3.246  14.194   1.328
94414SOL     OW85074   0.130  11.551   2.836
94414SOL    HW185075   0.096  11.615   2.898
94414SOL    HW285076   0.108  11.466   2.875
94415SOL     OW85077   6.230  13.669   6.898
94415SOL    HW185078   6.308  13.677   6.951
94415SOL    HW285079   6.170  13.735   6.932
94416SOL     OW85080   4.306   3.155  11.409
94416SOL    HW185081   4.333   3.240  11.442
94416SOL    HW285082   4.287   3.170  11.316
94417SOL     OW85083   1.937   9.147   2.812
94417SOL    HW185084   1.893   9.185   2.736
94417SOL    HW285085   1.955   9.056   2.787
94418SOL     OW85086   7.995  14.794   5.988
94418SOL    HW185087   7.981  14.758   5.900
94418SOL    HW285088   8.075  14.845   5.981
94419SOL     OW85089   6.057  13.661   1.742
94419SOL    HW185090   6.037  13.689   1.831
94419SOL    HW285091   6.051  13.566   1.744
94420SOL     OW85092   6.416   9.851  13.874
94420SOL    HW185093   6.483   9.848  13.941
94420SOL    HW285094   6.394   9.943  13.865
94421SOL     OW85095  14.218   0.020  13.647
94421SOL    HW185096  14.262  14.867  13.727
94421SOL    HW285097  14.131   0.048  13.675
94422SOL     OW85098   5.442   1.443  13.139
94422SOL    HW185099   5.399   1.383  13.078
94422SOL    HW285100   5.394   1.433  13.221
94423SOL     OW85101   0.575   4.189  11.203
94423SOL    HW185102   0.483   4.205  11.223
94423SOL    HW285103   0.605   4.130  11.272
94424SOL     OW85104   5.543  12.254   4.494
94424SOL    HW185105   5.457  12.246   4.453
94424SOL    HW285106   5.581  12.167   4.486
94425SOL     OW85107  12.420  13.677  10.735
94425SOL    HW185108  12.504  13.650  10.697
94425SOL    HW285109  12.376  13.725  10.665
94426SOL     OW85110  12.578  13.035   6.971
94426SOL    HW185111  12.607  12.955   6.926
94426SOL    HW285112  12.556  13.006   7.059
94427SOL     OW85113   2.821   8.099  11.223
94427SOL    HW185114   2.753   8.091  11.156
94427SOL    HW285115   2.835   8.010  11.253
94428SOL     OW85116   8.359  14.676   8.944
94428SOL    HW185117   8.422  14.603   8.942
94428SOL    HW285118   8.406  14.749   8.905
94429SOL     OW85119   3.893   0.867   5.101
94429SOL    HW185120   3.799   0.874   5.087
94429SOL    HW285121   3.908   0.911   5.185
94430SOL     OW85122   7.458   1.985   9.581
94430SOL    HW185123   7.423   2.041   9.511
94430SOL    HW285124   7.385   1.928   9.605
94431SOL     OW85125   4.289  13.869   1.847
94431SOL    HW185126   4.379  13.895   1.866
94431SOL    HW285127   4.294  13.823   1.764
94432SOL     OW85128   2.094  14.613   4.920
94432SOL    HW185129   2.177  14.590   4.962
94432SOL    HW285130   2.104  14.584   4.829
94433SOL     OW85131   9.432  14.804   5.400
94433SOL    HW185132   9.502  14.790   5.464
94433SOL    HW285133   9.441   0.024   5.376
94434SOL     OW85134  12.208   6.787   9.392
94434SOL    HW185135  12.261   6.714   9.359
94434SOL    HW285136  12.203   6.772   9.486
94435SOL     OW85137   4.771   6.940   1.062
94435SOL    HW185138   4.800   6.856   1.025
94435SOL    HW285139   4.845   6.999   1.048
94436SOL     OW85140   7.339  12.325   3.012
94436SOL    HW185141   7.394  12.325   3.090
94436SOL    HW285142   7.327  12.233   2.991
94437SOL     OW85143  10.285   4.904   5.372
94437SOL    HW185144  10.214   4.891   5.435
94437SOL    HW285145  10.297   4.999   5.369
94438SOL     OW85146   8.813   2.413   7.427
94438SOL    HW185147   8.849   2.501   7.441
94438SOL    HW285148   8.884   2.354   7.450
94439SOL     OW85149  13.011   4.559  12.176
94439SOL    HW185150  12.942   4.524  12.120
94439SOL    HW285151  13.085   4.500  12.162
94440SOL     OW85152   2.161   5.236   2.765
94440SOL    HW185153   2.247   5.279   2.767
94440SOL    HW285154   2.113   5.274   2.839
94441SOL     OW85155  12.756  10.469   5.394
94441SOL    HW185156  12.788  10.380   5.379
94441SOL    HW285157  12.813  10.525   5.341
94442SOL     OW85158  13.969  13.577   7.223
94442SOL    HW185159  13.993  13.570   7.316
94442SOL    HW285160  14.044  13.620   7.182
94443SOL     OW85161   1.691   1.335   0.714
94443SOL    HW185162   1.724   1.418   0.679
94443SOL    HW285163   1.734   1.268   0.661
94444SOL     OW85164   3.088   3.496   8.959
94444SOL    HW185165   3.168   3.466   9.001
94444SOL    HW285166   3.017   3.450   9.006
94445SOL     OW85167   9.812   0.074   6.249
94445SOL    HW185168   9.904   0.049   6.247
94445SOL    HW285169   9.765  14.864   6.263
94446SOL     OW85170  12.582  12.818   6.731
94446SOL    HW185171  12.510  12.836   6.670
94446SOL    HW285172  12.661  12.842   6.682
94447SOL     OW85173   5.762   0.673  13.419
94447SOL    HW185174   5.829   0.608  13.399
94447SOL    HW285175   5.788   0.710  13.503
94448SOL     OW85176   6.486   0.688   2.183
94448SOL    HW185177   6.441   0.610   2.151
94448SOL    HW285178   6.440   0.761   2.142
94449SOL     OW85179  14.654   0.851  10.006
94449SOL    HW185180  14.579   0.792  10.002
94449SOL    HW285181  14.727   0.796  10.035
94450SOL     OW85182   0.558   7.212   7.651
94450SOL    HW185183   0.591   7.150   7.716
94450SOL    HW285184   0.480   7.250   7.691
94451SOL     OW85185  10.214   4.900  12.367
94451SOL    HW185186  10.265   4.839  12.315
94451SOL    HW285187  10.146   4.846  12.408
94452SOL     OW85188  13.346   6.221   1.628
94452SOL    HW185189  13.297   6.156   1.678
94452SOL    HW285190  13.438   6.194   1.637
94453SOL     OW85191   0.977  14.031   8.165
94453SOL    HW185192   1.057  14.083   8.178
94453SOL    HW285193   0.941  14.022   8.253
94454SOL     OW85194  10.721   6.104  11.337
94454SOL    HW185195  10.757   6.059  11.261
94454SOL    HW285196  10.749   6.051  11.412
94455SOL     OW85197  12.021  11.986   5.308
94455SOL    HW185198  11.980  12.071   5.324
94455SOL    HW285199  12.085  12.004   5.239
94456SOL     OW85200   6.976   5.803   7.632
94456SOL    HW185201   7.001   5.786   7.723
94456SOL    HW285202   6.964   5.898   7.628
94457SOL     OW85203   9.563   7.504  11.902
94457SOL    HW185204   9.555   7.410  11.890
94457SOL    HW285205   9.490   7.541  11.853
94458SOL     OW85206   2.856   0.685   1.373
94458SOL    HW185207   2.893   0.705   1.459
94458SOL    HW285208   2.773   0.733   1.371
94459SOL     OW85209   3.296   5.692  11.946
94459SOL    HW185210   3.385   5.679  11.977
94459SOL    HW285211   3.296   5.656  11.857
94460SOL     OW85212   5.610   1.776   3.633
94460SOL    HW185213   5.699   1.802   3.609
94460SOL    HW285214   5.556   1.806   3.560
94461SOL     OW85215   4.585  14.789   2.573
94461SOL    HW185216   4.582  14.693   2.566
94461SOL    HW285217   4.672  14.808   2.609
94462SOL     OW85218  14.140   5.867   5.952
94462SOL    HW185219  14.108   5.798   6.010
94462SOL    HW285220  14.224   5.834   5.919
94463SOL     OW85221   1.195   6.408   3.310
94463SOL    HW185222   1.183   6.447   3.397
94463SOL    HW285223   1.281   6.438   3.281
94464SOL     OW85224   1.554  14.412   7.207
94464SOL    HW185225   1.641  14.397   7.244
94464SOL    HW285226   1.501  14.339   7.238
94465SOL     OW85227   3.980  14.587   3.878
94465SOL    HW185228   3.895  14.623   3.854
94465SOL    HW285229   3.962  14.531   3.954
94466SOL     OW85230   8.145  11.866   1.676
94466SOL    HW185231   8.051  11.867   1.689
94466SOL    HW285232   8.167  11.773   1.670
94467SOL     OW85233  10.164  10.957   4.504
94467SOL    HW185234  10.096  11.000   4.452
94467SOL    HW285235  10.224  11.027   4.529
94468SOL     OW85236   1.435  10.022   4.992
94468SOL    HW185237   1.363  10.046   4.934
94468SOL    HW285238   1.477   9.948   4.948
94469SOL     OW85239  14.005  13.379   9.648
94469SOL    HW185240  13.994  13.474   9.641
94469SOL    HW285241  13.946  13.353   9.718
94470SOL     OW85242  13.192   7.756   0.513
94470SOL    HW185243  13.223   7.697   0.444
94470SOL    HW285244  13.248   7.737   0.588
94471SOL     OW85245  10.799   0.692  14.768
94471SOL    HW185246  10.760   0.617  14.723
94471SOL    HW285247  10.830   0.657  14.852
94472SOL     OW85248   3.328  10.168  11.008
94472SOL    HW185249   3.371  10.082  11.004
94472SOL    HW285250   3.400  10.231  11.007
94473SOL     OW85251   4.973  11.654   1.546
94473SOL    HW185252   4.983  11.585   1.611
94473SOL    HW285253   4.930  11.611   1.472
94474SOL     OW85254   8.042   0.780   7.277
94474SOL    HW185255   8.134   0.762   7.255
94474SOL    HW285256   8.017   0.708   7.335
94475SOL     OW85257  10.550   2.734   4.051
94475SOL    HW185258  10.564   2.823   4.019
94475SOL    HW285259  10.638   2.696   4.054
94476SOL     OW85260   8.313  12.647   8.984
94476SOL    HW185261   8.319  12.740   9.005
94476SOL    HW285262   8.362  12.638   8.902
94477SOL     OW85263   0.138   8.712   6.317
94477SOL    HW185264   0.146   8.764   6.397
94477SOL    HW285265   0.186   8.762   6.251
94478SOL     OW85266   0.761   5.620   6.446
94478SOL    HW185267   0.736   5.607   6.354
94478SOL    HW285268   0.689   5.583   6.496
94479SOL     OW85269  10.433   2.229   3.969
94479SOL    HW185270  10.387   2.252   4.050
94479SOL    HW285271  10.494   2.302   3.955
94480SOL     OW85272  10.286  12.003   2.220
94480SOL    HW185273  10.343  12.054   2.277
94480SOL    HW285274  10.242  11.941   2.278
94481SOL     OW85275   1.431   4.680   2.223
94481SOL    HW185276   1.524   4.697   2.241
94481SOL    HW285277   1.386   4.758   2.254
94482SOL     OW85278  14.792  10.875   8.794
94482SOL    HW185279  14.767  10.925   8.871
94482SOL    HW285280  14.717  10.883   8.735
94483SOL     OW85281  14.418   6.847   5.159
94483SOL    HW185282  14.386   6.913   5.220
94483SOL    HW285283  14.469   6.787   5.212
94484SOL     OW85284   8.784   3.318   6.465
94484SOL    HW185285   8.759   3.228   6.486
94484SOL    HW285286   8.703   3.357   6.432
94485SOL     OW85287  10.389   3.572   7.753
94485SOL    HW185288  10.458   3.598   7.692
94485SOL    HW285289  10.411   3.615   7.835
94486SOL     OW85290   5.655   1.755  12.706
94486SOL    HW185291   5.630   1.663  12.712
94486SOL    HW285292   5.748   1.753  12.683
94487SOL     OW85293   8.236  13.069   1.962
94487SOL    HW185294   8.209  13.064   2.053
94487SOL    HW285295   8.269  12.981   1.942
94488SOL     OW85296  10.116  12.640  12.405
94488SOL    HW185297  10.091  12.708  12.342
94488SOL    HW285298  10.205  12.662  12.430
94489SOL     OW85299   1.742   6.581   6.559
94489SOL    HW185300   1.822   6.560   6.608
94489SOL    HW285301   1.758   6.547   6.471
94490SOL     OW85302  14.831  14.445   1.034
94490SOL    HW185303  14.782  14.400   0.965
94490SOL    HW285304  14.836  14.536   1.004
94491SOL     OW85305   4.194  11.653   6.337
94491SOL    HW185306   4.234  11.566   6.334
94491SOL    HW285307   4.105  11.639   6.307
94492SOL     OW85308  13.630   8.373   4.038
94492SOL    HW185309  13.663   8.291   4.075
94492SOL    HW285310  13.538   8.375   4.064
94493SOL     OW85311   7.023  12.384   4.363
94493SOL    HW185312   7.086  12.392   4.292
94493SOL    HW285313   6.972  12.465   4.358
94494SOL     OW85314  10.651   3.599   5.248
94494SOL    HW185315  10.594   3.530   5.214
94494SOL    HW285316  10.732   3.590   5.197
94495SOL     OW85317   7.769   9.282   0.661
94495SOL    HW185318   7.704   9.306   0.595
94495SOL    HW285319   7.749   9.190   0.681
94496SOL     OW85320   9.205   9.641  12.996
94496SOL    HW185321   9.164   9.578  12.936
94496SOL    HW285322   9.202   9.724  12.949
94497SOL     OW85323  14.379  12.371   9.318
94497SOL    HW185324  14.289  12.371   9.286
94497SOL    HW285325  14.385  12.294   9.374
94498SOL     OW85326   8.974   6.682   0.461
94498SOL    HW185327   9.039   6.637   0.515
94498SOL    HW285328   9.002   6.774   0.461
94499SOL     OW85329  13.971  10.245   1.853
94499SOL    HW185330  13.972  10.156   1.817
94499SOL    HW285331  13.901  10.243   1.918
94500SOL     OW85332  14.143   6.217   4.596
94500SOL    HW185333  14.139   6.255   4.508
94500SOL    HW285334  14.220   6.160   4.593
94501SOL     OW85335  14.416  11.049   0.928
94501SOL    HW185336  14.385  11.009   0.846
94501SOL    HW285337  14.428  10.975   0.988
94502SOL     OW85338  13.750  12.021   3.154
94502SOL    HW185339  13.701  12.092   3.112
94502SOL    HW285340  13.693  11.990   3.224
94503SOL     OW85341   0.426   4.459   6.156
94503SOL    HW185342   0.496   4.439   6.219
94503SOL    HW285343   0.442   4.399   6.083
94504SOL     OW85344  14.521   8.296   3.837
94504SOL    HW185345  14.610   8.283   3.804
94504SOL    HW285346  14.470   8.225   3.798
94505SOL     OW85347   1.358  11.022   6.707
94505SOL    HW185348   1.425  11.014   6.774
94505SOL    HW285349   1.299  11.090   6.740
94506SOL     OW85350   2.663  11.255  11.718
94506SOL    HW185351   2.581  11.239  11.672
94506SOL    HW285352   2.652  11.340  11.760
94507SOL     OW85353   6.847  13.861   2.404
94507SOL    HW185354   6.871  13.789   2.462
94507SOL    HW285355   6.860  13.826   2.316
94508SOL     OW85356  12.910  10.074   3.952
94508SOL    HW185357  12.920  10.102   4.043
94508SOL    HW285358  12.820  10.097   3.930
94509SOL     OW85359  10.340   3.768   4.209
94509SOL    HW185360  10.255   3.746   4.172
94509SOL    HW285361  10.389   3.686   4.208
94510SOL     OW85362  13.686  12.874   1.055
94510SOL    HW185363  13.775  12.862   1.087
94510SOL    HW285364  13.683  12.825   0.973
94511SOL     OW85365  12.386   0.686  14.205
94511SOL    HW185366  12.423   0.772  14.225
94511SOL    HW285367  12.293   0.694  14.226
94512SOL     OW85368  11.726   7.312  13.753
94512SOL    HW185369  11.716   7.243  13.688
94512SOL    HW285370  11.808   7.356  13.728
94513SOL     OW85371   1.243  14.562  13.259
94513SOL    HW185372   1.259  14.537  13.168
94513SOL    HW285373   1.305  14.634  13.275
94514SOL     OW85374   7.972  12.259  12.661
94514SOL    HW185375   7.919  12.303  12.728
94514SOL    HW285376   7.934  12.286  12.578
94515SOL     OW85377  12.799  12.178  14.660
94515SOL    HW185378  12.739  12.132  14.718
94515SOL    HW285379  12.880  12.187  14.711
94516SOL     OW85380   4.120   9.102  10.921
94516SOL    HW185381   4.043   9.051  10.894
94516SOL    HW285382   4.120   9.096  11.016
94517SOL     OW85383   4.494  11.819   5.275
94517SOL    HW185384   4.424  11.837   5.339
94517SOL    HW285385   4.550  11.897   5.278
94518SOL     OW85386  12.350   6.273   5.075
94518SOL    HW185387  12.414   6.225   5.127
94518SOL    HW285388  12.403   6.327   5.016
94519SOL     OW85389   1.466  12.859   6.338
94519SOL    HW185390   1.480  12.764   6.330
94519SOL    HW285391   1.536  12.898   6.285
94520SOL     OW85392  12.231  11.562  11.083
94520SOL    HW185393  12.326  11.562  11.070
94520SOL    HW285394  12.200  11.635  11.029
94521SOL     OW85395   3.304  10.353   5.575
94521SOL    HW185396   3.259  10.281   5.621
94521SOL    HW285397   3.335  10.313   5.494
94522SOL     OW85398  11.567   1.156   2.627
94522SOL    HW185399  11.532   1.184   2.712
94522SOL    HW285400  11.658   1.188   2.627
94523SOL     OW85401  14.338   6.536  10.140
94523SOL    HW185402  14.400   6.609  10.134
94523SOL    HW285403  14.255   6.574  10.111
94524SOL     OW85404   3.987   6.193   9.066
94524SOL    HW185405   4.065   6.138   9.060
94524SOL    HW285406   4.006   6.269   9.012
94525SOL     OW85407   9.106   2.381   4.133
94525SOL    HW185408   9.099   2.397   4.039
94525SOL    HW285409   9.023   2.412   4.169
94526SOL     OW85410   8.576   4.473   4.054
94526SOL    HW185411   8.654   4.420   4.035
94526SOL    HW285412   8.507   4.436   3.999
94527SOL     OW85413   8.142  14.228  14.415
94527SOL    HW185414   8.166  14.149  14.367
94527SOL    HW285415   8.145  14.202  14.507
94528SOL     OW85416   3.338   0.517  11.628
94528SOL    HW185417   3.393   0.564  11.566
94528SOL    HW285418   3.387   0.519  11.710
94529SOL     OW85419   0.984   4.527  11.532
94529SOL    HW185420   0.913   4.578  11.571
94529SOL    HW285421   0.956   4.436  11.541
94530SOL     OW85422   6.433  14.602  13.721
94530SOL    HW185423   6.444  14.516  13.763
94530SOL    HW285424   6.339  14.609  13.705
94531SOL     OW85425   9.652   1.550   3.873
94531SOL    HW185426   9.688   1.490   3.807
94531SOL    HW285427   9.667   1.506   3.956
94532SOL     OW85428   2.303   5.452   1.571
94532SOL    HW185429   2.379   5.508   1.556
94532SOL    HW285430   2.326   5.368   1.530
94533SOL     OW85431   9.342   4.975  10.523
94533SOL    HW185432   9.350   5.016  10.437
94533SOL    HW285433   9.388   5.035  10.583
94534SOL     OW85434   1.009   6.076  12.384
94534SOL    HW185435   0.930   6.031  12.414
94534SOL    HW285436   1.033   6.133  12.457
94535SOL     OW85437   7.965   7.498  10.941
94535SOL    HW185438   7.922   7.506  11.027
94535SOL    HW285439   7.894   7.510  10.878
94536SOL     OW85440  14.027   2.653   2.330
94536SOL    HW185441  14.069   2.598   2.265
94536SOL    HW285442  14.059   2.620   2.414
94537SOL     OW85443   3.353  12.203   3.834
94537SOL    HW185444   3.440  12.242   3.830
94537SOL    HW285445   3.340  12.183   3.927
94538SOL     OW85446   9.205   4.080  14.644
94538SOL    HW185447   9.247   4.079  14.730
94538SOL    HW285448   9.131   4.140  14.654
94539SOL     OW85449  14.798  11.697   7.828
94539SOL    HW185450  14.704  11.701   7.811
94539SOL    HW285451  14.806  11.666   7.918
94540SOL     OW85452  13.173   5.905  10.988
94540SOL    HW185453  13.094   5.873  11.031
94540SOL    HW285454  13.145   5.929  10.900
94541SOL     OW85455  12.235   8.634  13.609
94541SOL    HW185456  12.208   8.703  13.549
94541SOL    HW285457  12.330   8.645  13.617
94542SOL     OW85458   6.215   5.482  12.058
94542SOL    HW185459   6.140   5.541  12.054
94542SOL    HW285460   6.204   5.426  11.981
94543SOL     OW85461  11.489  11.565  11.862
94543SOL    HW185462  11.512  11.607  11.780
94543SOL    HW285463  11.473  11.473  11.839
94544SOL     OW85464   9.570   9.076   6.325
94544SOL    HW185465   9.609   8.989   6.332
94544SOL    HW285466   9.476   9.060   6.336
94545SOL     OW85467   9.103   4.282   4.155
94545SOL    HW185468   9.173   4.272   4.090
94545SOL    HW285469   9.141   4.339   4.222
94546SOL     OW85470   6.791   3.830   0.133
94546SOL    HW185471   6.742   3.761   0.090
94546SOL    HW285472   6.757   3.911   0.097
94547SOL     OW85473   5.283  11.006   6.908
94547SOL    HW185474   5.290  11.098   6.882
94547SOL    HW285475   5.370  10.985   6.942
94548SOL     OW85476   6.860   8.772   8.564
94548SOL    HW185477   6.778   8.822   8.552
94548SOL    HW285478   6.831   8.687   8.597
94549SOL     OW85479  12.657   6.186  14.699
94549SOL    HW185480  12.564   6.193  14.677
94549SOL    HW285481  12.673   6.092  14.705
94550SOL     OW85482   5.876   8.311   0.696
94550SOL    HW185483   5.955   8.333   0.746
94550SOL    HW285484   5.857   8.220   0.721
94551SOL     OW85485  10.975   3.592   5.504
94551SOL    HW185486  10.969   3.558   5.593
94551SOL    HW285487  11.067   3.583   5.482
94552SOL     OW85488   4.885   7.348  11.883
94552SOL    HW185489   4.973   7.313  11.892
94552SOL    HW285490   4.845   7.295  11.813
94553SOL     OW85491  12.318   8.113   2.067
94553SOL    HW185492  12.243   8.071   2.025
94553SOL    HW285493  12.353   8.172   2.000
94554SOL     OW85494   5.064   8.610   1.418
94554SOL    HW185495   5.006   8.540   1.446
94554SOL    HW285496   5.085   8.589   1.327
94555SOL     OW85497  11.704   6.825   2.318
94555SOL    HW185498  11.669   6.886   2.252
94555SOL    HW285499  11.726   6.880   2.393
94556SOL     OW85500   3.729  13.285   3.237
94556SOL    HW185501   3.776  13.212   3.197
94556SOL    HW285502   3.778  13.306   3.316
94557SOL     OW85503   8.702   1.978  11.040
94557SOL    HW185504   8.730   2.048  11.099
94557SOL    HW285505   8.777   1.964  10.981
94558SOL     OW85506  12.046  13.370   9.690
94558SOL    HW185507  12.128  13.320   9.691
94558SOL    HW285508  11.987  13.319   9.634
94559SOL     OW85509  10.611  14.654  13.605
94559SOL    HW185510  10.565  14.719  13.659
94559SOL    HW285511  10.573  14.664  13.517
94560SOL     OW85512   6.572  13.103   3.930
94560SOL    HW185513   6.482  13.115   3.958
94560SOL    HW285514   6.579  13.010   3.910
94561SOL     OW85515   8.181   2.698   5.216
94561SOL    HW185516   8.245   2.768   5.212
94561SOL    HW285517   8.176   2.675   5.309
94562SOL     OW85518  11.203  12.022   4.336
94562SOL    HW185519  11.142  12.084   4.296
94562SOL    HW285520  11.209  11.950   4.273
94563SOL     OW85521   3.701   7.425   0.256
94563SOL    HW185522   3.716   7.356   0.321
94563SOL    HW285523   3.778   7.422   0.200
94564SOL     OW85524  11.151  11.027  10.574
94564SOL    HW185525  11.223  11.085  10.548
94564SOL    HW285526  11.114  10.995  10.492
94565SOL     OW85527   9.840  10.084   8.796
94565SOL    HW185528   9.796  10.168   8.781
94565SOL    HW285529   9.872  10.059   8.709
94566SOL     OW85530   7.537  14.143  12.878
94566SOL    HW185531   7.562  14.160  12.969
94566SOL    HW285532   7.441  14.139  12.879
94567SOL     OW85533   7.695   0.961   4.855
94567SOL    HW185534   7.599   0.961   4.844
94567SOL    HW285535   7.722   1.048   4.829
94568SOL     OW85536   1.101   8.943   5.592
94568SOL    HW185537   1.079   9.018   5.536
94568SOL    HW285538   1.105   8.980   5.680
94569SOL     OW85539   9.282  12.708   5.100
94569SOL    HW185540   9.192  12.678   5.116
94569SOL    HW285541   9.298  12.773   5.168
94570SOL     OW85542  10.839   8.030   1.221
94570SOL    HW185543  10.751   8.000   1.244
94570SOL    HW285544  10.867   7.972   1.150
94571SOL     OW85545   1.576   6.354  10.420
94571SOL    HW185546   1.603   6.348  10.329
94571SOL    HW285547   1.627   6.427  10.456
94572SOL     OW85548   5.126  13.628   7.344
94572SOL    HW185549   5.069  13.705   7.338
94572SOL    HW285550   5.214  13.664   7.354
94573SOL     OW85551  10.338   0.238  11.178
94573SOL    HW185552  10.394   0.284  11.240
94573SOL    HW285553  10.370   0.265  11.092
94574SOL     OW85554   3.397  14.432   2.400
94574SOL    HW185555   3.468  14.394   2.452
94574SOL    HW285556   3.410  14.526   2.407
94575SOL     OW85557   8.957   6.706  13.430
94575SOL    HW185558   8.975   6.774  13.494
94575SOL    HW285559   8.912   6.751  13.359
94576SOL     OW85560   0.889   9.647   7.609
94576SOL    HW185561   0.897   9.603   7.694
94576SOL    HW285562   0.819   9.600   7.564
94577SOL     OW85563  13.051   6.230  12.591
94577SOL    HW185564  13.145   6.248  12.597
94577SOL    HW285565  13.024   6.210  12.681
94578SOL     OW85566  12.713   9.025   5.942
94578SOL    HW185567  12.668   9.074   5.873
94578SOL    HW285568  12.651   9.025   6.015
94579SOL     OW85569   6.939  13.408   6.318
94579SOL    HW185570   6.889  13.440   6.392
94579SOL    HW285571   7.031  13.422   6.343
94580SOL     OW85572   5.448   5.099   4.074
94580SOL    HW185573   5.354   5.081   4.071
94580SOL    HW285574   5.466   5.119   4.166
94581SOL     OW85575   8.900  11.420   8.898
94581SOL    HW185576   8.900  11.412   8.802
94581SOL    HW285577   8.945  11.503   8.914
94582SOL     OW85578  14.597  10.510  14.655
94582SOL    HW185579  14.513  10.489  14.614
94582SOL    HW285580  14.599  10.458  14.735
94583SOL     OW85581   5.851  11.337  11.792
94583SOL    HW185582   5.828  11.326  11.700
94583SOL    HW285583   5.843  11.431  11.807
94584SOL     OW85584   3.514  13.344   0.305
94584SOL    HW185585   3.445  13.321   0.367
94584SOL    HW285586   3.490  13.297   0.224
94585SOL     OW85587   7.294  10.910  13.468
94585SOL    HW185588   7.241  10.832  13.483
94585SOL    HW285589   7.383  10.877  13.460
94586SOL     OW85590   1.780   7.832   2.081
94586SOL    HW185591   1.715   7.901   2.093
94586SOL    HW285592   1.772   7.807   1.989
94587SOL     OW85593   3.862   5.626   2.222
94587SOL    HW185594   3.884   5.579   2.141
94587SOL    HW285595   3.940   5.615   2.277
94588SOL     OW85596  14.367   4.497   3.929
94588SOL    HW185597  14.330   4.410   3.944
94588SOL    HW285598  14.304   4.557   3.969
94589SOL     OW85599  10.390  12.741   1.579
94589SOL    HW185600  10.416  12.790   1.657
94589SOL    HW285601  10.379  12.651   1.610
94590SOL     OW85602  12.949   8.060  14.006
94590SOL    HW185603  12.906   7.978  13.982
94590SOL    HW285604  13.040   8.036  14.020
94591SOL     OW85605   1.089   9.047  11.305
94591SOL    HW185606   1.090   9.061  11.400
94591SOL    HW285607   1.136   8.964  11.293
94592SOL     OW85608   4.310   1.922  14.392
94592SOL    HW185609   4.246   1.912  14.463
94592SOL    HW285610   4.350   1.836  14.382
94593SOL     OW85611   9.505   3.437   0.789
94593SOL    HW185612   9.499   3.522   0.833
94593SOL    HW285613   9.553   3.455   0.708
94594SOL     OW85614  12.946   2.624   6.094
94594SOL    HW185615  13.032   2.663   6.081
94594SOL    HW285616  12.885   2.698   6.084
94595SOL     OW85617  13.732   0.437  13.418
94595SOL    HW185618  13.658   0.377  13.430
94595SOL    HW285619  13.709   0.514  13.470
94596SOL     OW85620   6.225   9.127  11.578
94596SOL    HW185621   6.151   9.153  11.524
94596SOL    HW285622   6.302   9.159  11.532
94597SOL     OW85623  13.656   6.908  11.708
94597SOL    HW185624  13.645   6.953  11.792
94597SOL    HW285625  13.728   6.847  11.722
94598SOL     OW85626  12.338  13.553   8.436
94598SOL    HW185627  12.249  13.574   8.408
94598SOL    HW285628  12.391  13.625   8.403
94599SOL     OW85629   4.711   9.282   5.012
94599SOL    HW185630   4.728   9.199   5.058
94599SOL    HW285631   4.616   9.292   5.016
94600SOL     OW85632   7.350  14.096  10.858
94600SOL    HW185633   7.309  14.114  10.773
94600SOL    HW285634   7.389  14.179  10.884
94601SOL     OW85635   9.935   1.802  10.152
94601SOL    HW185636   9.959   1.893  10.136
94601SOL    HW285637  10.000   1.771  10.215
94602SOL     OW85638   9.322   2.855  13.963
94602SOL    HW185639   9.406   2.822  13.931
94602SOL    HW285640   9.310   2.938  13.917
94603SOL     OW85641   5.834  14.739   6.674
94603SOL    HW185642   5.779  14.728   6.751
94603SOL    HW285643   5.870  14.828   6.683
94604SOL     OW85644   5.614  14.693  14.079
94604SOL    HW185645   5.539  14.637  14.097
94604SOL    HW285646   5.683  14.662  14.138
94605SOL     OW85647   7.274  13.394   0.515
94605SOL    HW185648   7.299  13.480   0.483
94605SOL    HW285649   7.352  13.340   0.502
94606SOL     OW85650   4.447  13.705  13.977
94606SOL    HW185651   4.514  13.771  13.956
94606SOL    HW285652   4.494  13.621  13.973
94607SOL     OW85653   9.081   5.276  11.735
94607SOL    HW185654   9.106   5.206  11.795
94607SOL    HW285655   9.143   5.346  11.752
94608SOL     OW85656  11.263   4.862  13.705
94608SOL    HW185657  11.274   4.819  13.790
94608SOL    HW285658  11.253   4.955  13.726
94609SOL     OW85659   1.019   0.116   5.216
94609SOL    HW185660   1.057   0.187   5.165
94609SOL    HW285661   1.011   0.151   5.305
94610SOL     OW85662  11.053   6.713  10.496
94610SOL    HW185663  11.056   6.663  10.415
94610SOL    HW285664  11.121   6.780  10.486
94611SOL     OW85665   4.957   3.586  10.643
94611SOL    HW185666   4.963   3.546  10.556
94611SOL    HW285667   4.866   3.574  10.669
94612SOL     OW85668  10.404   4.626   6.202
94612SOL    HW185669  10.354   4.545   6.209
94612SOL    HW285670  10.391   4.655   6.111
94613SOL     OW85671   4.571   5.562  11.029
94613SOL    HW185672   4.593   5.655  11.017
94613SOL    HW285673   4.623   5.517  10.963
94614SOL     OW85674  14.010  13.840  10.598
94614SOL    HW185675  14.022  13.745  10.607
94614SOL    HW285676  13.987  13.870  10.686
94615SOL     OW85677   0.257   5.567  10.180
94615SOL    HW185678   0.197   5.641  10.192
94615SOL    HW285679   0.333   5.605  10.136
94616SOL     OW85680  14.255   8.848   6.208
94616SOL    HW185681  14.183   8.871   6.265
94616SOL    HW285682  14.222   8.776   6.154
94617SOL     OW85683  10.385   7.390   7.572
94617SOL    HW185684  10.391   7.430   7.486
94617SOL    HW285685  10.338   7.308   7.558
94618SOL     OW85686   9.411  13.909  10.953
94618SOL    HW185687   9.345  13.966  10.993
94618SOL    HW285688   9.474  13.892  11.023
94619SOL     OW85689  12.129   3.511   6.036
94619SOL    HW185690  12.212   3.500   5.990
94619SOL    HW285691  12.066   3.528   5.966
94620SOL     OW85692   5.318   1.969   4.361
94620SOL    HW185693   5.246   2.025   4.389
94620SOL    HW285694   5.397   2.015   4.389
94621SOL     OW85695   8.805   5.100   5.889
94621SOL    HW185696   8.872   5.137   5.947
94621SOL    HW285697   8.854   5.064   5.816
94622SOL     OW85698   3.389   1.916   3.732
94622SOL    HW185699   3.316   1.977   3.719
94622SOL    HW285700   3.454   1.941   3.666
94623SOL     OW85701  13.867   3.169   1.628
94623SOL    HW185702  13.824   3.094   1.669
94623SOL    HW285703  13.960   3.156   1.646
94624SOL     OW85704   3.695  13.600   2.771
94624SOL    HW185705   3.706  13.533   2.704
94624SOL    HW285706   3.717  13.556   2.853
94625SOL     OW85707  11.204  11.805  13.986
94625SOL    HW185708  11.155  11.750  13.925
94625SOL    HW285709  11.206  11.755  14.067
94626SOL     OW85710  12.365  14.737   3.916
94626SOL    HW185711  12.287  14.788   3.892
94626SOL    HW285712  12.438  14.796   3.899
94627SOL     OW85713   5.340   3.014   5.511
94627SOL    HW185714   5.253   2.974   5.524
94627SOL    HW285715   5.325   3.107   5.524
94628SOL     OW85716   3.541   4.497   8.448
94628SOL    HW185717   3.487   4.548   8.387
94628SOL    HW285718   3.626   4.542   8.449
94629SOL     OW85719   3.209   0.668  10.872
94629SOL    HW185720   3.122   0.640  10.844
94629SOL    HW285721   3.230   0.742  10.815
94630SOL     OW85722   6.752   4.679   9.243
94630SOL    HW185723   6.801   4.759   9.224
94630SOL    HW285724   6.812   4.627   9.297
94631SOL     OW85725   5.100  13.166  12.139
94631SOL    HW185726   5.017  13.167  12.091
94631SOL    HW285727   5.099  13.083  12.187
94632SOL     OW85728  14.240   6.821   7.994
94632SOL    HW185729  14.325   6.849   7.961
94632SOL    HW285730  14.222   6.881   8.067
94633SOL     OW85731   7.664  10.530   5.637
94633SOL    HW185732   7.653  10.624   5.622
94633SOL    HW285733   7.627  10.515   5.724
94634SOL     OW85734  10.048   4.650  11.094
94634SOL    HW185735  10.129   4.700  11.081
94634SOL    HW285736  10.036   4.647  11.188
94635SOL     OW85737  11.037  12.535   9.818
94635SOL    HW185738  11.099  12.468   9.788
94635SOL    HW285739  11.089  12.592   9.875
94636SOL     OW85740   9.631   1.935   6.865
94636SOL    HW185741   9.594   2.009   6.817
94636SOL    HW285742   9.561   1.908   6.925
94637SOL     OW85743   6.880  14.299   1.563
94637SOL    HW185744   6.936  14.332   1.633
94637SOL    HW285745   6.878  14.370   1.499
94638SOL     OW85746   5.211   0.330   6.958
94638SOL    HW185747   5.244   0.244   6.983
94638SOL    HW285748   5.268   0.392   7.003
94639SOL     OW85749  10.554  12.592   8.731
94639SOL    HW185750  10.468  12.550   8.735
94639SOL    HW285751  10.602  12.554   8.804
94640SOL     OW85752   7.572  12.953  12.821
94640SOL    HW185753   7.534  12.881  12.872
94640SOL    HW285754   7.543  12.937  12.731
94641SOL     OW85755  13.811   3.471   3.012
94641SOL    HW185756  13.872   3.536   2.978
94641SOL    HW285757  13.861   3.423   3.078
94642SOL     OW85758   0.629   6.948   4.086
94642SOL    HW185759   0.663   6.987   4.006
94642SOL    HW285760   0.690   6.878   4.107
94643SOL     OW85761  10.998  12.996   5.277
94643SOL    HW185762  11.093  13.008   5.270
94643SOL    HW285763  10.981  12.991   5.371
94644SOL     OW85764  10.866   5.610   3.912
94644SOL    HW185765  10.810   5.580   3.983
94644SOL    HW285766  10.927   5.672   3.953
94645SOL     OW85767   8.288   2.525   2.197
94645SOL    HW185768   8.234   2.464   2.247
94645SOL    HW285769   8.319   2.475   2.122
94646SOL     OW85770  11.432   6.892  11.777
94646SOL    HW185771  11.496   6.844  11.829
94646SOL    HW285772  11.383   6.944  11.840
94647SOL     OW85773  10.393  14.311  12.206
94647SOL    HW185774  10.442  14.268  12.136
94647SOL    HW285775  10.459  14.360  12.255
94648SOL     OW85776  11.700  10.888  11.165
94648SOL    HW185777  11.607  10.875  11.182
94648SOL    HW285778  11.713  10.855  11.076
94649SOL     OW85779  11.701   1.585   5.866
94649SOL    HW185780  11.730   1.593   5.957
94649SOL    HW285781  11.623   1.529   5.871
94650SOL     OW85782   0.914   4.700  14.579
94650SOL    HW185783   1.004   4.693  14.546
94650SOL    HW285784   0.915   4.651  14.662
94651SOL     OW85785   3.434   3.601  13.617
94651SOL    HW185786   3.370   3.635  13.679
94651SOL    HW285787   3.449   3.511  13.646
94652SOL     OW85788   6.191   2.037   0.539
94652SOL    HW185789   6.220   1.949   0.564
94652SOL    HW285790   6.186   2.035   0.444
94653SOL     OW85791  13.936   4.940   6.367
94653SOL    HW185792  13.872   5.000   6.329
94653SOL    HW285793  13.954   4.976   6.454
94654SOL     OW85794   0.778  13.042   6.894
94654SOL    HW185795   0.746  12.953   6.906
94654SOL    HW285796   0.723  13.078   6.824
94655SOL     OW85797   3.036   1.412  12.980
94655SOL    HW185798   3.123   1.373  12.980
94655SOL    HW285799   3.044   1.491  13.033
94656SOL     OW85800   6.105  13.306  14.470
94656SOL    HW185801   6.050  13.329  14.396
94656SOL    HW285802   6.048  13.315  14.547
94657SOL     OW85803   9.725  12.781   0.116
94657SOL    HW185804   9.701  12.724   0.190
94657SOL    HW285805   9.769  12.855   0.157
94658SOL     OW85806   0.222  10.769   4.909
94658SOL    HW185807   0.315  10.751   4.922
94658SOL    HW285808   0.215  10.864   4.917
94659SOL     OW85809   1.446  14.062   1.942
94659SOL    HW185810   1.474  14.068   2.034
94659SOL    HW285811   1.471  13.974   1.915
94660SOL     OW85812  10.181   8.073   2.038
94660SOL    HW185813  10.234   7.994   2.024
94660SOL    HW285814  10.112   8.067   1.972
94661SOL     OW85815   7.624  13.259   4.080
94661SOL    HW185816   7.683  13.197   4.123
94661SOL    HW285817   7.591  13.212   4.004
94662SOL     OW85818  10.727   2.771   7.360
94662SOL    HW185819  10.800   2.757   7.300
94662SOL    HW285820  10.654   2.798   7.303
94663SOL     OW85821   0.890   4.572   2.058
94663SOL    HW185822   0.961   4.636   2.059
94663SOL    HW285823   0.829   4.606   1.991
94664SOL     OW85824   9.214  11.558   1.713
94664SOL    HW185825   9.203  11.533   1.621
94664SOL    HW285826   9.133  11.530   1.755
94665SOL     OW85827  13.012  12.631  14.378
94665SOL    HW185828  12.928  12.630  14.333
94665SOL    HW285829  13.011  12.552  14.433
94666SOL     OW85830   6.711   2.189   9.217
94666SOL    HW185831   6.770   2.241   9.272
94666SOL    HW285832   6.770   2.137   9.162
94667SOL     OW85833   3.549  10.821   8.560
94667SOL    HW185834   3.471  10.793   8.607
94667SOL    HW285835   3.539  10.915   8.548
94668SOL     OW85836   0.188   5.255  14.553
94668SOL    HW185837   0.159   5.171  14.516
94668SOL    HW285838   0.111   5.312  14.546
94669SOL     OW85839   7.330   4.844   5.681
94669SOL    HW185840   7.312   4.833   5.774
94669SOL    HW285841   7.351   4.937   5.671
94670SOL     OW85842   3.090   8.966   2.641
94670SOL    HW185843   3.009   9.016   2.638
94670SOL    HW285844   3.150   9.020   2.692
94671SOL     OW85845   9.035  13.665   0.634
94671SOL    HW185846   8.990  13.750   0.639
94671SOL    HW285847   8.967  13.604   0.608
94672SOL     OW85848   5.553   5.805  11.839
94672SOL    HW185849   5.583   5.864  11.770
94672SOL    HW285850   5.577   5.849  11.920
94673SOL     OW85851  14.446   3.206   7.412
94673SOL    HW185852  14.514   3.139   7.410
94673SOL    HW285853  14.366   3.161   7.386
94674SOL     OW85854   2.298  12.294  13.222
94674SOL    HW185855   2.264  12.218  13.174
94674SOL    HW285856   2.231  12.361  13.210
94675SOL     OW85857   9.561  13.573  12.387
94675SOL    HW185858   9.551  13.536  12.475
94675SOL    HW285859   9.493  13.639  12.381
94676SOL     OW85860  14.822   9.279   6.256
94676SOL    HW185861  14.867   9.341   6.312
94676SOL    HW285862  14.729   9.295   6.272
94677SOL     OW85863   5.835   8.428   5.072
94677SOL    HW185864   5.789   8.400   4.993
94677SOL    HW285865   5.903   8.362   5.085
94678SOL     OW85866   7.311   3.124   8.095
94678SOL    HW185867   7.316   3.123   8.190
94678SOL    HW285868   7.245   3.058   8.074
94679SOL     OW85869   0.984   6.253   4.058
94679SOL    HW185870   1.067   6.214   4.085
94679SOL    HW285871   1.008   6.310   3.985
94680SOL     OW85872   4.499  10.470   2.315
94680SOL    HW185873   4.460  10.402   2.370
94680SOL    HW285874   4.434  10.486   2.247
94681SOL     OW85875   7.074   8.049  12.785
94681SOL    HW185876   7.131   8.035  12.709
94681SOL    HW285877   7.021   7.970  12.791
94682SOL     OW85878   4.476   7.582  10.862
94682SOL    HW185879   4.408   7.649  10.850
94682SOL    HW285880   4.526   7.612  10.938
94683SOL     OW85881   2.526   1.384  12.739
94683SOL    HW185882   2.517   1.291  12.756
94683SOL    HW285883   2.519   1.425  12.826
94684SOL     OW85884   6.589   4.468   1.712
94684SOL    HW185885   6.652   4.399   1.733
94684SOL    HW285886   6.610   4.494   1.622
94685SOL     OW85887   3.315   5.336   4.211
94685SOL    HW185888   3.386   5.391   4.178
94685SOL    HW285889   3.236   5.388   4.198
94686SOL     OW85890   7.006   6.121   1.564
94686SOL    HW185891   7.043   6.186   1.505
94686SOL    HW285892   6.941   6.170   1.615
94687SOL     OW85893   5.489  14.102  10.806
94687SOL    HW185894   5.548  14.060  10.743
94687SOL    HW285895   5.531  14.088  10.890
94688SOL     OW85896  14.388  10.120   8.735
94688SOL    HW185897  14.355  10.035   8.705
94688SOL    HW285898  14.467  10.099   8.785
94689SOL     OW85899   8.284   3.946  10.571
94689SOL    HW185900   8.192   3.920  10.576
94689SOL    HW285901   8.326   3.898  10.642
94690SOL     OW85902  12.337  12.098  11.359
94690SOL    HW185903  12.418  12.127  11.399
94690SOL    HW285904  12.321  12.012  11.398
94691SOL     OW85905  10.551   2.941   0.249
94691SOL    HW185906  10.569   2.859   0.295
94691SOL    HW285907  10.637   2.983   0.241
94692SOL     OW85908   1.395  12.968   9.575
94692SOL    HW185909   1.394  12.904   9.646
94692SOL    HW285910   1.345  12.928   9.505
94693SOL     OW85911   1.689   2.739  11.186
94693SOL    HW185912   1.739   2.807  11.230
94693SOL    HW285913   1.632   2.702  11.254
94694SOL     OW85914  11.373   6.215   0.381
94694SOL    HW185915  11.309   6.203   0.311
94694SOL    HW285916  11.348   6.297   0.424
94695SOL     OW85917   8.941   6.114   5.759
94695SOL    HW185918   8.996   6.162   5.697
94695SOL    HW285919   9.003   6.060   5.809
94696SOL     OW85920  11.572  11.776   4.957
94696SOL    HW185921  11.666  11.770   4.969
94696SOL    HW285922  11.561  11.824   4.875
94697SOL     OW85923   4.705   9.794   0.024
94697SOL    HW185924   4.682   9.765  14.809
94697SOL    HW285925   4.641   9.862   0.044
94698SOL     OW85926  14.447  12.463   8.784
94698SOL    HW185927  14.432  12.396   8.851
94698SOL    HW285928  14.405  12.428   8.705
94699SOL     OW85929   1.795   2.336   0.349
94699SOL    HW185930   1.743   2.382   0.415
94699SOL    HW285931   1.809   2.401   0.280
94700SOL     OW85932   4.893  14.097   5.533
94700SOL    HW185933   4.935  14.018   5.569
94700SOL    HW285934   4.965  14.145   5.492
94701SOL     OW85935   1.581   0.456   0.014
94701SOL    HW185936   1.631   0.451   0.095
94701SOL    HW285937   1.490   0.444   0.041
94702SOL     OW85938   5.686   8.878  11.922
94702SOL    HW185939   5.604   8.904  11.963
94702SOL    HW285940   5.741   8.956  11.926
94703SOL     OW85941   6.993  13.461  14.497
94703SOL    HW185942   7.081  13.495  14.515
94703SOL    HW285943   6.953  13.453  14.584
94704SOL     OW85944   1.371   3.295   1.398
94704SOL    HW185945   1.442   3.344   1.358
94704SOL    HW285946   1.293   3.347   1.380
94705SOL     OW85947   2.523   9.935   6.348
94705SOL    HW185948   2.511   9.943   6.443
94705SOL    HW285949   2.459   9.870   6.321
94706SOL     OW85950   3.059   2.332  13.164
94706SOL    HW185951   3.012   2.415  13.158
94706SOL    HW285952   3.066   2.315  13.258
94707SOL     OW85953   7.007   8.035  10.174
94707SOL    HW185954   6.980   8.049  10.084
94707SOL    HW285955   6.973   8.111  10.222
94708SOL     OW85956   4.953  10.040   3.306
94708SOL    HW185957   5.015  10.009   3.240
94708SOL    HW285958   4.984  10.002   3.388
94709SOL     OW85959  11.715   1.543  13.268
94709SOL    HW185960  11.740   1.593  13.346
94709SOL    HW285961  11.637   1.588  13.236
94710SOL     OW85962  10.533   6.238   0.202
94710SOL    HW185963  10.488   6.186   0.269
94710SOL    HW285964  10.502   6.327   0.217
94711SOL     OW85965   6.133   0.026  13.976
94711SOL    HW185966   6.115   0.061  13.889
94711SOL    HW285967   6.148   0.103  14.031
94712SOL     OW85968   8.490   4.409  12.287
94712SOL    HW185969   8.500   4.372  12.199
94712SOL    HW285970   8.473   4.334  12.343
94713SOL     OW85971   7.098  11.843   3.777
94713SOL    HW185972   7.127  11.784   3.707
94713SOL    HW285973   7.126  11.801   3.857
94714SOL     OW85974  12.656  13.557   1.066
94714SOL    HW185975  12.561  13.548   1.059
94714SOL    HW285976  12.672  13.651   1.063
94715SOL     OW85977   9.650  10.736   4.012
94715SOL    HW185978   9.667  10.827   3.989
94715SOL    HW285979   9.556  10.732   4.025
94716SOL     OW85980   3.063  10.304  12.620
94716SOL    HW185981   3.121  10.306  12.696
94716SOL    HW285982   2.980  10.339  12.652
94717SOL     OW85983  10.222   3.769   9.940
94717SOL    HW185984  10.147   3.819   9.909
94717SOL    HW285985  10.185   3.685   9.969
94718SOL     OW85986   9.125  13.573   9.760
94718SOL    HW185987   9.045  13.601   9.716
94718SOL    HW285988   9.108  13.481   9.784
94719SOL     OW85989   8.351   5.534   6.433
94719SOL    HW185990   8.393   5.453   6.461
94719SOL    HW285991   8.331   5.519   6.340
94720SOL     OW85992   8.854   9.891   7.616
94720SOL    HW185993   8.798   9.894   7.694
94720SOL    HW285994   8.939   9.863   7.649
94721SOL     OW85995  14.656   5.693   5.116
94721SOL    HW185996  14.720   5.723   5.181
94721SOL    HW285997  14.574   5.685   5.166
94722SOL     OW85998   5.020   2.939  10.566
94722SOL    HW185999   4.998   2.866  10.508
94722SOL    HW286000   5.105   2.970  10.535
94723SOL     OW86001   1.248  14.791   1.888
94723SOL    HW186002   1.207   0.004   1.882
94723SOL    HW286003   1.342  14.808   1.887
94724SOL     OW86004  10.111   8.248   9.416
94724SOL    HW186005  10.176   8.216   9.353
94724SOL    HW286006  10.162   8.282   9.489
94725SOL     OW86007   4.232   2.747   7.637
94725SOL    HW186008   4.260   2.674   7.581
94725SOL    HW286009   4.310   2.802   7.646
94726SOL     OW86010   8.400   0.626   9.398
94726SOL    HW186011   8.464   0.697   9.392
94726SOL    HW286012   8.380   0.604   9.307
94727SOL     OW86013   2.299   3.181  11.131
94727SOL    HW186014   2.389   3.190  11.101
94727SOL    HW286015   2.305   3.132  11.213
94728SOL     OW86016   1.243  12.137  11.312
94728SOL    HW186017   1.220  12.224  11.347
94728SOL    HW286018   1.330  12.148  11.276
94729SOL     OW86019   1.113   7.674   1.636
94729SOL    HW186020   1.198   7.661   1.680
94729SOL    HW286021   1.129   7.747   1.575
94730SOL     OW86022   8.714   8.705   6.298
94730SOL    HW186023   8.776   8.756   6.245
94730SOL    HW286024   8.642   8.686   6.237
94731SOL     OW86025  10.180  10.328  12.627
94731SOL    HW186026  10.132  10.411  12.621
94731SOL    HW286027  10.251  10.345  12.688
94732SOL     OW86028   1.441   8.624  14.750
94732SOL    HW186029   1.499   8.595  14.680
94732SOL    HW286030   1.377   8.680  14.706
94733SOL     OW86031   1.460   5.957   7.448
94733SOL    HW186032   1.551   5.978   7.472
94733SOL    HW286033   1.467   5.880   7.392
94734SOL     OW86034  11.369  13.697   1.644
94734SOL    HW186035  11.282  13.732   1.623
94734SOL    HW286036  11.379  13.713   1.738
94735SOL     OW86037   5.495  11.678  10.177
94735SOL    HW186038   5.420  11.622  10.196
94735SOL    HW286039   5.531  11.699  10.263
94736SOL     OW86040   4.240   3.450   4.721
94736SOL    HW186041   4.319   3.494   4.688
94736SOL    HW286042   4.273   3.371   4.764
94737SOL     OW86043   8.815   2.219   9.470
94737SOL    HW186044   8.789   2.232   9.379
94737SOL    HW286045   8.807   2.125   9.484
94738SOL     OW86046   6.193   0.262  12.589
94738SOL    HW186047   6.217   0.173  12.561
94738SOL    HW286048   6.232   0.271  12.676
94739SOL     OW86049  11.587  11.873   8.747
94739SOL    HW186050  11.658  11.914   8.797
94739SOL    HW286051  11.627  11.794   8.711
94740SOL     OW86052   6.018   1.920   6.811
94740SOL    HW186053   6.027   2.015   6.811
94740SOL    HW286054   6.085   1.889   6.873
94741SOL     OW86055   9.587   8.435  14.290
94741SOL    HW186056   9.559   8.344  14.276
94741SOL    HW286057   9.506   8.482  14.308
94742SOL     OW86058  13.367  12.304   4.439
94742SOL    HW186059  13.393  12.271   4.353
94742SOL    HW286060  13.311  12.235   4.474
94743SOL     OW86061   8.362   4.031   2.682
94743SOL    HW186062   8.354   4.055   2.775
94743SOL    HW286063   8.350   4.113   2.635
94744SOL     OW86064   8.497  14.314  12.530
94744SOL    HW186065   8.467  14.223  12.525
94744SOL    HW286066   8.521  14.336  12.440
94745SOL     OW86067  10.893   5.515   4.987
94745SOL    HW186068  10.925   5.537   5.074
94745SOL    HW286069  10.966   5.469   4.945
94746SOL     OW86070  10.031   7.616   8.658
94746SOL    HW186071   9.986   7.535   8.684
94746SOL    HW286072  10.095   7.588   8.594
94747SOL     OW86073   8.033   3.740   3.017
94747SOL    HW186074   8.119   3.780   3.004
94747SOL    HW286075   7.978   3.810   3.053
94748SOL     OW86076  11.522   2.154   4.788
94748SOL    HW186077  11.574   2.107   4.723
94748SOL    HW286078  11.586   2.187   4.851
94749SOL     OW86079   3.360   8.946  14.402
94749SOL    HW186080   3.272   8.984  14.401
94749SOL    HW286081   3.383   8.937  14.310
94750SOL     OW86082  10.865   6.655  12.714
94750SOL    HW186083  10.905   6.592  12.654
94750SOL    HW286084  10.776   6.666  12.681
94751SOL     OW86085   8.053  14.121  10.617
94751SOL    HW186086   8.054  14.026  10.608
94751SOL    HW286087   8.043  14.136  10.711
94752SOL     OW86088   4.753   0.821   9.486
94752SOL    HW186089   4.778   0.731   9.465
94752SOL    HW286090   4.677   0.812   9.543
94753SOL     OW86091   7.798   5.805   5.840
94753SOL    HW186092   7.715   5.776   5.803
94753SOL    HW286093   7.859   5.734   5.818
94754SOL     OW86094   3.881  12.014   8.484
94754SOL    HW186095   3.907  12.055   8.567
94754SOL    HW286096   3.847  12.086   8.432
94755SOL     OW86097   0.732   8.144   0.902
94755SOL    HW186098   0.735   8.074   0.836
94755SOL    HW286099   0.700   8.101   0.981
94756SOL     OW86100   9.395  14.240   7.847
94756SOL    HW186101   9.439  14.204   7.770
94756SOL    HW286102   9.389  14.166   7.908
94757SOL     OW86103   3.692   6.185  13.594
94757SOL    HW186104   3.669   6.198  13.501
94757SOL    HW286105   3.734   6.267  13.620
94758SOL     OW86106  13.814  10.513   5.085
94758SOL    HW186107  13.733  10.515   5.137
94758SOL    HW286108  13.884  10.516   5.150
94759SOL     OW86109   1.208   4.816   8.693
94759SOL    HW186110   1.283   4.794   8.637
94759SOL    HW286111   1.247   4.841   8.776
94760SOL     OW86112  12.001  14.049  12.075
94760SOL    HW186113  12.079  13.998  12.052
94760SOL    HW286114  11.928  13.988  12.062
94761SOL     OW86115   9.360   9.573   0.239
94761SOL    HW186116   9.275   9.567   0.195
94761SOL    HW286117   9.387   9.664   0.224
94762SOL     OW86118  14.113   7.126   0.248
94762SOL    HW186119  14.159   7.066   0.306
94762SOL    HW286120  14.117   7.211   0.292
94763SOL     OW86121   6.475  10.482   6.382
94763SOL    HW186122   6.524  10.407   6.414
94763SOL    HW286123   6.383  10.459   6.398
94764SOL     OW86124  12.312   0.997  11.440
94764SOL    HW186125  12.310   0.917  11.389
94764SOL    HW286126  12.405   1.011  11.458
94765SOL     OW86127   0.223   8.203   0.335
94765SOL    HW186128   0.276   8.226   0.411
94765SOL    HW286129   0.187   8.287   0.305
94766SOL     OW86130   5.509   0.758  12.816
94766SOL    HW186131   5.570   0.691  12.784
94766SOL    HW286132   5.484   0.728  12.903
94767SOL     OW86133   7.725   5.149   1.462
94767SOL    HW186134   7.659   5.181   1.400
94767SOL    HW286135   7.808   5.160   1.417
94768SOL     OW86136  12.244   8.361  11.466
94768SOL    HW186137  12.206   8.440  11.504
94768SOL    HW286138  12.259   8.304  11.541
94769SOL     OW86139  12.525   0.534   5.471
94769SOL    HW186140  12.458   0.502   5.532
94769SOL    HW286141  12.603   0.544   5.526
94770SOL     OW86142  13.850   6.692   6.525
94770SOL    HW186143  13.939   6.663   6.503
94770SOL    HW286144  13.858   6.786   6.540
94771SOL     OW86145  11.421   7.778  13.886
94771SOL    HW186146  11.369   7.733  13.952
94771SOL    HW286147  11.502   7.803  13.931
94772SOL     OW86148   9.916   6.856  12.699
94772SOL    HW186149   9.934   6.779  12.753
94772SOL    HW286150   9.838   6.894  12.738
94773SOL     OW86151  14.703   9.912  13.850
94773SOL    HW186152  14.687   9.913  13.756
94773SOL    HW286153  14.779   9.854  13.860
94774SOL     OW86154   9.324  12.031   4.690
94774SOL    HW186155   9.387  11.970   4.652
94774SOL    HW286156   9.253  12.035   4.625
94775SOL     OW86157   8.494   5.767  13.554
94775SOL    HW186158   8.440   5.837  13.517
94775SOL    HW286159   8.513   5.710  13.480
94776SOL     OW86160   3.596  14.797  12.053
94776SOL    HW186161   3.617  14.715  12.098
94776SOL    HW286162   3.501  14.795  12.042
94777SOL     OW86163  12.751  13.843   1.120
94777SOL    HW186164  12.784  13.908   1.057
94777SOL    HW286165  12.699  13.894   1.182
94778SOL     OW86166  10.534  14.414  11.558
94778SOL    HW186167  10.528  14.322  11.583
94778SOL    HW286168  10.443  14.441  11.547
94779SOL     OW86169  11.654  12.340   2.343
94779SOL    HW186170  11.623  12.390   2.418
94779SOL    HW286171  11.743  12.372   2.328
94780SOL     OW86172   0.167   2.654   3.140
94780SOL    HW186173   0.157   2.719   3.210
94780SOL    HW286174   0.205   2.578   3.184
94781SOL     OW86175  13.935  11.988   6.541
94781SOL    HW186176  14.021  11.951   6.561
94781SOL    HW286177  13.880  11.960   6.614
94782SOL     OW86178   2.820  10.044   1.724
94782SOL    HW186179   2.850  10.102   1.654
94782SOL    HW286180   2.889  10.050   1.790
94783SOL     OW86181   9.439   4.003   6.903
94783SOL    HW186182   9.393   4.042   6.828
94783SOL    HW286183   9.393   3.920   6.918
94784SOL     OW86184  14.152   1.392  13.472
94784SOL    HW186185  14.237   1.369  13.509
94784SOL    HW286186  14.091   1.328  13.508
94785SOL     OW86187  13.967   0.476   0.532
94785SOL    HW186188  13.934   0.456   0.619
94785SOL    HW286189  13.902   0.440   0.472
94786SOL     OW86190  11.318  14.255   8.651
94786SOL    HW186191  11.261  14.298   8.588
94786SOL    HW286192  11.280  14.167   8.662
94787SOL     OW86193  10.486   4.538   5.542
94787SOL    HW186194  10.429   4.596   5.592
94787SOL    HW286195  10.559   4.593   5.516
94788SOL     OW86196   3.355  11.578  10.055
94788SOL    HW186197   3.404  11.593  10.136
94788SOL    HW286198   3.419  11.596   9.985
94789SOL     OW86199  10.449   9.196   3.628
94789SOL    HW186200  10.461   9.281   3.671
94789SOL    HW286201  10.384   9.214   3.560
94790SOL     OW86202   6.498   2.479   6.492
94790SOL    HW186203   6.489   2.566   6.453
94790SOL    HW286204   6.592   2.461   6.488
94791SOL     OW86205   3.692   6.490   8.570
94791SOL    HW186206   3.709   6.552   8.640
94791SOL    HW286207   3.627   6.429   8.608
94792SOL     OW86208   8.777   9.463   2.218
94792SOL    HW186209   8.861   9.430   2.185
94792SOL    HW286210   8.792   9.480   2.311
94793SOL     OW86211   2.175   2.178   3.521
94793SOL    HW186212   2.175   2.097   3.469
94793SOL    HW286213   2.264   2.183   3.557
94794SOL     OW86214  11.358  10.718  11.562
94794SOL    HW186215  11.432  10.662  11.585
94794SOL    HW286216  11.394  10.782  11.500
94795SOL     OW86217   6.990  12.454   8.130
94795SOL    HW186218   6.928  12.497   8.188
94795SOL    HW286219   6.998  12.365   8.166
94796SOL     OW86220  10.606  11.791  10.219
94796SOL    HW186221  10.665  11.847  10.169
94796SOL    HW286222  10.654  11.771  10.299
94797SOL     OW86223   5.711  10.283   2.312
94797SOL    HW186224   5.617  10.299   2.319
94797SOL    HW286225   5.718  10.190   2.291
94798SOL     OW86226  14.165   0.248  11.841
94798SOL    HW186227  14.095   0.313  11.853
94798SOL    HW286228  14.137   0.173  11.894
94799SOL     OW86229   6.222  14.706   0.638
94799SOL    HW186230   6.218  14.781   0.697
94799SOL    HW286231   6.138  14.707   0.592
94800SOL     OW86232  10.513   4.602   8.957
94800SOL    HW186233  10.561   4.679   8.986
94800SOL    HW286234  10.524   4.600   8.862
94801SOL     OW86235   3.250  10.110  13.783
94801SOL    HW186236   3.277  10.026  13.748
94801SOL    HW286237   3.276  10.174  13.716
94802SOL     OW86238  12.807   8.508   9.508
94802SOL    HW186239  12.888   8.544   9.545
94802SOL    HW286240  12.739   8.533   9.571
94803SOL     OW86241   0.284   5.425   2.296
94803SOL    HW186242   0.313   5.516   2.308
94803SOL    HW286243   0.362   5.378   2.267
94804SOL     OW86244  10.168  14.087   1.064
94804SOL    HW186245  10.197  14.143   1.135
94804SOL    HW286246  10.201  14.000   1.086
94805SOL     OW86247   2.833   2.560   3.378
94805SOL    HW186248   2.792   2.477   3.351
94805SOL    HW286249   2.832   2.613   3.298
94806SOL     OW86250   7.619   5.344   0.094
94806SOL    HW186251   7.614   5.319   0.002
94806SOL    HW286252   7.710   5.324   0.120
94807SOL     OW86253   9.102   0.090  12.072
94807SOL    HW186254   9.071   0.143  11.999
94807SOL    HW286255   9.172   0.143  12.112
94808SOL     OW86256   8.478  10.540  11.309
94808SOL    HW186257   8.387  10.558  11.286
94808SOL    HW286258   8.495  10.593  11.386
94809SOL     OW86259   1.753  12.437  12.269
94809SOL    HW186260   1.743  12.526  12.303
94809SOL    HW286261   1.672  12.393  12.294
94810SOL     OW86262   1.327   6.979   0.429
94810SOL    HW186263   1.276   6.899   0.412
94810SOL    HW286264   1.268   7.034   0.481
94811SOL     OW86265  11.617   9.895  14.369
94811SOL    HW186266  11.526   9.874  14.347
94811SOL    HW286267  11.657   9.918  14.285
94812SOL     OW86268   5.516   9.203   2.631
94812SOL    HW186269   5.511   9.190   2.536
94812SOL    HW286270   5.454   9.139   2.667
94813SOL     OW86271  12.766  13.289   0.130
94813SOL    HW186272  12.756  13.234   0.053
94813SOL    HW286273  12.688  13.270   0.183
94814SOL     OW86274   4.443   7.785   3.137
94814SOL    HW186275   4.497   7.853   3.098
94814SOL    HW286276   4.354   7.822   3.138
94815SOL     OW86277  14.162   3.588   4.312
94815SOL    HW186278  14.086   3.542   4.347
94815SOL    HW286279  14.233   3.525   4.317
94816SOL     OW86280   4.275  10.707   8.167
94816SOL    HW186281   4.194  10.690   8.119
94816SOL    HW286282   4.333  10.749   8.104
94817SOL     OW86283   4.505  12.387   9.386
94817SOL    HW186284   4.512  12.395   9.481
94817SOL    HW286285   4.589  12.351   9.358
94818SOL     OW86286   8.466   3.282  12.763
94818SOL    HW186287   8.390   3.288  12.704
94818SOL    HW286288   8.445   3.342  12.835
94819SOL     OW86289  12.599   6.142   4.829
94819SOL    HW186290  12.547   6.062   4.824
94819SOL    HW286291  12.651   6.131   4.909
94820SOL     OW86292   4.855   7.620   4.246
94820SOL    HW186293   4.945   7.649   4.255
94820SOL    HW286294   4.812   7.690   4.197
94821SOL     OW86295   4.421  13.052   1.701
94821SOL    HW186296   4.359  13.079   1.769
94821SOL    HW286297   4.496  13.017   1.749
94822SOL     OW86298   3.215   7.657  10.627
94822SOL    HW186299   3.127   7.635  10.656
94822SOL    HW286300   3.246   7.578  10.583
94823SOL     OW86301   5.688   9.782  12.724
94823SOL    HW186302   5.769   9.833  12.724
94823SOL    HW286303   5.618   9.846  12.732
94824SOL     OW86304  10.945  12.732   1.879
94824SOL    HW186305  11.018  12.785   1.846
94824SOL    HW286306  10.883  12.795   1.915
94825SOL     OW86307  13.778   5.917   7.177
94825SOL    HW186308  13.859   5.868   7.189
94825SOL    HW286309  13.777   5.940   7.084
94826SOL     OW86310  10.776   2.048   3.459
94826SOL    HW186311  10.787   1.996   3.539
94826SOL    HW286312  10.692   2.093   3.471
94827SOL     OW86313   7.943   7.694   6.029
94827SOL    HW186314   7.896   7.733   6.103
94827SOL    HW286315   7.885   7.626   5.996
94828SOL     OW86316  10.015   4.645  11.374
94828SOL    HW186317  10.073   4.712  11.409
94828SOL    HW286318   9.997   4.587  11.448
94829SOL     OW86319  10.554   9.680   6.056
94829SOL    HW186320  10.460   9.667   6.052
94829SOL    HW286321  10.566   9.773   6.039
94830SOL     OW86322  10.275   9.262   4.266
94830SOL    HW186323  10.208   9.195   4.275
94830SOL    HW286324  10.349   9.217   4.225
94831SOL     OW86325  11.885   5.920   0.226
94831SOL    HW186326  11.887   6.014   0.242
94831SOL    HW286327  11.899   5.881   0.312
94832SOL     OW86328   1.756   8.570  11.466
94832SOL    HW186329   1.826   8.537  11.410
94832SOL    HW286330   1.788   8.556  11.555
94833SOL     OW86331   9.674   9.658   2.521
94833SOL    HW186332   9.606   9.702   2.470
94833SOL    HW286333   9.647   9.567   2.524
94834SOL     OW86334   3.347   4.256   3.623
94834SOL    HW186335   3.337   4.315   3.698
94834SOL    HW286336   3.439   4.229   3.626
94835SOL     OW86337   0.203  11.414  14.863
94835SOL    HW186338   0.165  11.327   0.001
94835SOL    HW286339   0.234  11.417  14.773
94836SOL     OW86340   9.370   7.530   7.288
94836SOL    HW186341   9.333   7.603   7.338
94836SOL    HW286342   9.463   7.551   7.280
94837SOL     OW86343   8.651   8.952   5.644
94837SOL    HW186344   8.718   9.018   5.626
94837SOL    HW286345   8.594   8.953   5.567
94838SOL     OW86346   9.584   7.279   1.927
94838SOL    HW186347   9.534   7.348   1.970
94838SOL    HW286348   9.535   7.258   1.848
94839SOL     OW86349   3.801   4.893   7.458
94839SOL    HW186350   3.763   4.805   7.467
94839SOL    HW286351   3.883   4.889   7.507
94840SOL     OW86352   5.344   7.825   4.514
94840SOL    HW186353   5.260   7.784   4.492
94840SOL    HW286354   5.389   7.760   4.567
94841SOL     OW86355  11.600   3.254   5.457
94841SOL    HW186356  11.644   3.335   5.433
94841SOL    HW286357  11.587   3.208   5.374
94842SOL     OW86358   6.506   7.275  11.712
94842SOL    HW186359   6.465   7.188  11.716
94842SOL    HW286360   6.573   7.272  11.780
94843SOL     OW86361  13.222  11.495  13.948
94843SOL    HW186362  13.265  11.420  13.989
94843SOL    HW286363  13.289  11.534  13.893
94844SOL     OW86364   5.720   7.184   2.329
94844SOL    HW186365   5.675   7.268   2.322
94844SOL    HW286366   5.751   7.182   2.420
94845SOL     OW86367  10.760  12.333  13.010
94845SOL    HW186368  10.707  12.368  12.938
94845SOL    HW286369  10.705  12.264  13.049
94846SOL     OW86370   8.171  10.941   4.858
94846SOL    HW186371   8.111  10.914   4.788
94846SOL    HW286372   8.248  10.973   4.811
94847SOL     OW86373   7.935  14.598   2.386
94847SOL    HW186374   7.939  14.572   2.478
94847SOL    HW286375   7.855  14.557   2.352
94848SOL     OW86376   4.204   3.236  12.803
94848SOL    HW186377   4.226   3.158  12.752
94848SOL    HW286378   4.284   3.288  12.802
94849SOL     OW86379   6.949   2.331  12.899
94849SOL    HW186380   7.023   2.318  12.957
94849SOL    HW286381   6.899   2.249  12.906
94850SOL     OW86382  10.134  13.845   7.625
94850SOL    HW186383  10.151  13.754   7.650
94850SOL    HW286384  10.205  13.894   7.667
94851SOL     OW86385  10.927  11.447   1.015
94851SOL    HW186386  10.870  11.426   1.089
94851SOL    HW286387  10.969  11.529   1.040
94852SOL     OW86388   5.514   8.526  13.982
94852SOL    HW186389   5.609   8.538  13.979
94852SOL    HW286390   5.486   8.540  13.891
94853SOL     OW86391   8.361  10.350   2.517
94853SOL    HW186392   8.345  10.431   2.566
94853SOL    HW286393   8.327  10.281   2.574
94854SOL     OW86394   7.362  11.469   9.094
94854SOL    HW186395   7.374  11.563   9.082
94854SOL    HW286396   7.441  11.430   9.057
94855SOL     OW86397  11.316   5.567   7.867
94855SOL    HW186398  11.245   5.516   7.826
94855SOL    HW286399  11.287   5.658   7.861
94856SOL     OW86400   4.967  13.682   6.525
94856SOL    HW186401   4.885  13.717   6.562
94856SOL    HW286402   4.976  13.596   6.564
94857SOL     OW86403   3.231   2.409  11.356
94857SOL    HW186404   3.158   2.367  11.310
94857SOL    HW286405   3.197   2.495  11.380
94858SOL     OW86406   5.897   2.765  10.618
94858SOL    HW186407   5.865   2.822  10.688
94858SOL    HW286408   5.823   2.758  10.558
94859SOL     OW86409   8.198  11.641  12.039
94859SOL    HW186410   8.294  11.634  12.034
94859SOL    HW286411   8.179  11.731  12.015
94860SOL     OW86412  10.774  10.509  14.429
94860SOL    HW186413  10.840  10.574  14.455
94860SOL    HW286414  10.760  10.456  14.507
94861SOL     OW86415  10.261  14.008   2.822
94861SOL    HW186416  10.336  13.954   2.796
94861SOL    HW286417  10.300  14.091   2.850
94862SOL     OW86418   7.883   6.134   6.800
94862SOL    HW186419   7.931   6.066   6.751
94862SOL    HW286420   7.817   6.085   6.849
94863SOL     OW86421   6.474  12.173   7.204
94863SOL    HW186422   6.544  12.134   7.256
94863SOL    HW286423   6.461  12.113   7.131
94864SOL     OW86424   5.198   2.620   3.727
94864SOL    HW186425   5.243   2.542   3.761
94864SOL    HW286426   5.182   2.674   3.804
94865SOL     OW86427   8.056  13.892   7.048
94865SOL    HW186428   8.111  13.887   6.969
94865SOL    HW286429   7.973  13.853   7.021
94866SOL     OW86430   4.276  14.256   4.051
94866SOL    HW186431   4.268  14.348   4.076
94866SOL    HW286432   4.363  14.231   4.081
94867SOL     OW86433   9.083   2.504   1.930
94867SOL    HW186434   9.032   2.520   2.009
94867SOL    HW286435   9.150   2.440   1.957
94868SOL     OW86436   8.999  11.510  14.817
94868SOL    HW186437   9.001  11.605  14.806
94868SOL    HW286438   8.907  11.491  14.836
94869SOL     OW86439  11.453  10.912   1.872
94869SOL    HW186440  11.526  10.919   1.810
94869SOL    HW286441  11.415  11.000   1.873
94870SOL     OW86442   2.969   1.807   0.366
94870SOL    HW186443   2.882   1.839   0.388
94870SOL    HW286444   2.982   1.832   0.275
94871SOL     OW86445   2.877  13.417   8.583
94871SOL    HW186446   2.919  13.501   8.600
94871SOL    HW286447   2.800  13.417   8.640
94872SOL     OW86448   3.006  13.335   1.799
94872SOL    HW186449   3.060  13.259   1.821
94872SOL    HW286450   2.922  13.318   1.842
94873SOL     OW86451   0.959  10.894   1.755
94873SOL    HW186452   0.899  10.904   1.681
94873SOL    HW286453   0.902  10.899   1.832
94874SOL     OW86454  13.343   7.218   6.906
94874SOL    HW186455  13.292   7.139   6.890
94874SOL    HW286456  13.286   7.289   6.877
94875SOL     OW86457   7.892   4.275   6.438
94875SOL    HW186458   7.884   4.292   6.532
94875SOL    HW286459   7.850   4.190   6.426
94876SOL     OW86460   0.090  14.605   3.659
94876SOL    HW186461   0.112  14.632   3.748
94876SOL    HW286462   0.115  14.513   3.654
94877SOL     OW86463  10.943  10.995   1.689
94877SOL    HW186464  10.918  10.995   1.597
94877SOL    HW286465  10.915  10.910   1.722
94878SOL     OW86466   6.703   0.982  11.925
94878SOL    HW186467   6.628   1.038  11.946
94878SOL    HW286468   6.685   0.949  11.837
94879SOL     OW86469   6.875   2.046   6.488
94879SOL    HW186470   6.948   2.008   6.537
94879SOL    HW286471   6.877   1.999   6.404
94880SOL     OW86472  11.231   9.380   6.014
94880SOL    HW186473  11.136   9.386   6.006
94880SOL    HW286474  11.264   9.382   5.924
94881SOL     OW86475   6.539   7.100   9.984
94881SOL    HW186476   6.622   7.103   9.937
94881SOL    HW286477   6.533   7.011  10.017
94882SOL     OW86478  10.346   0.965  14.689
94882SOL    HW186479  10.436   0.944  14.664
94882SOL    HW286480  10.293   0.937  14.615
94883SOL     OW86481  10.980   2.870   7.627
94883SOL    HW186482  11.004   2.886   7.536
94883SOL    HW286483  11.055   2.900   7.677
94884SOL     OW86484   8.338  12.228   6.355
94884SOL    HW186485   8.268  12.183   6.402
94884SOL    HW286486   8.339  12.316   6.393
94885SOL     OW86487   1.750   7.771  11.595
94885SOL    HW186488   1.828   7.754  11.647
94885SOL    HW286489   1.708   7.685  11.585
94886SOL     OW86490   0.071  10.920   3.653
94886SOL    HW186491   0.036  10.983   3.716
94886SOL    HW286492   0.025  10.838   3.674
94887SOL     OW86493  10.642   6.104  10.923
94887SOL    HW186494  10.685   6.143  10.847
94887SOL    HW286495  10.713   6.073  10.979
94888SOL     OW86496   6.812  11.162   1.947
94888SOL    HW186497   6.743  11.135   1.888
94888SOL    HW286498   6.804  11.257   1.952
94889SOL     OW86499   8.000   9.107   7.903
94889SOL    HW186500   8.093   9.128   7.913
94889SOL    HW286501   7.955   9.186   7.934
94890SOL     OW86502   9.352  10.540  14.050
94890SOL    HW186503   9.306  10.492  14.119
94890SOL    HW286504   9.320  10.630  14.058
94891SOL     OW86505   7.024  13.451   3.071
94891SOL    HW186506   6.977  13.385   3.019
94891SOL    HW286507   7.110  13.412   3.087
94892SOL     OW86508  11.144  11.504   3.749
94892SOL    HW186509  11.055  11.538   3.757
94892SOL    HW286510  11.147  11.427   3.805
94893SOL     OW86511   2.885   0.657  13.348
94893SOL    HW186512   2.962   0.705  13.377
94893SOL    HW286513   2.812   0.717  13.364
94894SOL     OW86514   8.124  13.457   3.666
94894SOL    HW186515   8.170  13.437   3.584
94894SOL    HW286516   8.193  13.463   3.731
94895SOL     OW86517  14.326   4.993  13.112
94895SOL    HW186518  14.361   4.904  13.116
94895SOL    HW286519  14.391   5.041  13.061
94896SOL     OW86520  10.586   2.680  13.570
94896SOL    HW186521  10.498   2.700  13.603
94896SOL    HW286522  10.613   2.760  13.524
94897SOL     OW86523   6.778   0.149   6.629
94897SOL    HW186524   6.743   0.067   6.594
94897SOL    HW286525   6.810   0.127   6.716
94898SOL     OW86526  14.821   5.936  12.717
94898SOL    HW186527  14.759   6.006  12.696
94898SOL    HW286528   0.034   5.972  12.694
94899SOL     OW86529  14.532   9.982   8.455
94899SOL    HW186530  14.588   9.983   8.532
94899SOL    HW286531  14.543   9.895   8.418
94900SOL     OW86532   6.092   7.607  11.622
94900SOL    HW186533   6.053   7.579  11.539
94900SOL    HW286534   6.150   7.535  11.646
94901SOL     OW86535   9.603  12.653   0.319
94901SOL    HW186536   9.591  12.565   0.356
94901SOL    HW286537   9.514  12.683   0.300
94902SOL     OW86538   7.468   6.554   9.558
94902SOL    HW186539   7.409   6.595   9.495
94902SOL    HW286540   7.483   6.466   9.524
94903SOL     OW86541   9.131   5.643   8.069
94903SOL    HW186542   9.154   5.684   8.152
94903SOL    HW286543   9.052   5.689   8.040
94904SOL     OW86544  11.147  13.643   4.385
94904SOL    HW186545  11.088  13.581   4.427
94904SOL    HW286546  11.106  13.661   4.300
94905SOL     OW86547   3.798  14.250   4.822
94905SOL    HW186548   3.855  14.201   4.763
94905SOL    HW286549   3.722  14.273   4.769
94906SOL     OW86550   3.461  13.102   0.154
94906SOL    HW186551   3.549  13.098   0.194
94906SOL    HW286552   3.419  13.020   0.181
94907SOL     OW86553  12.222   6.101   3.477
94907SOL    HW186554  12.299   6.156   3.490
94907SOL    HW286555  12.156   6.160   3.441
94908SOL     OW86556   4.455  14.668   8.503
94908SOL    HW186557   4.442  14.628   8.417
94908SOL    HW286558   4.485  14.756   8.484
94909SOL     OW86559   7.924   0.916   8.899
94909SOL    HW186560   7.987   0.966   8.951
94909SOL    HW286561   7.876   0.983   8.849
94910SOL     OW86562  14.070  11.087  10.739
94910SOL    HW186563  14.161  11.061  10.727
94910SOL    HW286564  14.051  11.071  10.831
94911SOL     OW86565   9.047   4.671  12.152
94911SOL    HW186566   9.123   4.631  12.194
94911SOL    HW286567   8.997   4.598  12.117
94912SOL     OW86568   2.223   9.281  11.137
94912SOL    HW186569   2.194   9.250  11.052
94912SOL    HW286570   2.145   9.278  11.192
94913SOL     OW86571  12.669  13.995   5.316
94913SOL    HW186572  12.765  13.999   5.315
94913SOL    HW286573  12.643  14.057   5.384
94914SOL     OW86574   3.877   3.385  12.694
94914SOL    HW186575   3.799   3.431  12.727
94914SOL    HW286576   3.879   3.303  12.743
94915SOL     OW86577   4.106  10.941   8.699
94915SOL    HW186578   4.019  10.907   8.674
94915SOL    HW286579   4.095  10.967   8.790
94916SOL     OW86580   1.662   2.298  11.160
94916SOL    HW186581   1.702   2.371  11.112
94916SOL    HW286582   1.583   2.277  11.111
94917SOL     OW86583   9.516  14.341   7.113
94917SOL    HW186584   9.531  14.305   7.200
94917SOL    HW286585   9.548  14.432   7.118
94918SOL     OW86586  12.986  14.766   4.771
94918SOL    HW186587  12.927  14.805   4.707
94918SOL    HW286588  13.063  14.740   4.720
94919SOL     OW86589   6.045   5.460   1.171
94919SOL    HW186590   6.045   5.365   1.185
94919SOL    HW286591   6.137   5.485   1.181
94920SOL     OW86592   1.293  11.463   4.391
94920SOL    HW186593   1.197  11.456   4.394
94920SOL    HW286594   1.311  11.550   4.428
94921SOL     OW86595   2.256   5.985   7.863
94921SOL    HW186596   2.227   5.919   7.800
94921SOL    HW286597   2.346   6.003   7.839
94922SOL     OW86598   7.510   6.703   5.086
94922SOL    HW186599   7.472   6.786   5.113
94922SOL    HW286600   7.556   6.671   5.164
94923SOL     OW86601  13.397  10.936  14.692
94923SOL    HW186602  13.413  10.852  14.736
94923SOL    HW286603  13.302  10.948  14.699
94924SOL     OW86604   5.401   3.722  14.694
94924SOL    HW186605   5.493   3.703  14.713
94924SOL    HW286606   5.371   3.773  14.769
94925SOL     OW86607   3.081   8.118   6.823
94925SOL    HW186608   3.092   8.026   6.849
94925SOL    HW286609   3.116   8.168   6.896
94926SOL     OW86610   6.231   7.601  10.765
94926SOL    HW186611   6.280   7.671  10.807
94926SOL    HW286612   6.270   7.592  10.679
94927SOL     OW86613   3.012   7.336  12.966
94927SOL    HW186614   3.064   7.327  12.886
94927SOL    HW286615   3.049   7.412  13.011
94928SOL     OW86616   5.946   5.102   7.008
94928SOL    HW186617   5.961   5.196   6.996
94928SOL    HW286618   6.033   5.063   7.003
94929SOL     OW86619   4.332   3.376   1.434
94929SOL    HW186620   4.395   3.314   1.398
94929SOL    HW286621   4.290   3.328   1.506
94930SOL     OW86622   7.951  13.253  13.360
94930SOL    HW186623   8.034  13.242  13.314
94930SOL    HW286624   7.925  13.163  13.383
94931SOL     OW86625   6.492  12.513   5.740
94931SOL    HW186626   6.468  12.451   5.672
94931SOL    HW286627   6.422  12.505   5.805
94932SOL     OW86628   8.851  10.086   5.943
94932SOL    HW186629   8.767  10.048   5.969
94932SOL    HW286630   8.896  10.015   5.897
94933SOL     OW86631   9.862   3.911   9.073
94933SOL    HW186632   9.941   3.960   9.051
94933SOL    HW286633   9.798   3.938   9.007
94934SOL     OW86634   7.500  13.480   5.160
94934SOL    HW186635   7.586  13.484   5.118
94934SOL    HW286636   7.446  13.542   5.111
94935SOL     OW86637   3.205  14.567   7.883
94935SOL    HW186638   3.264  14.497   7.910
94935SOL    HW286639   3.262  14.643   7.869
94936SOL     OW86640  12.447   5.373   3.418
94936SOL    HW186641  12.371   5.402   3.468
94936SOL    HW286642  12.412   5.345   3.334
94937SOL     OW86643   5.877  14.357  10.777
94937SOL    HW186644   5.794  14.356  10.730
94937SOL    HW286645   5.881  14.273  10.822
94938SOL     OW86646   4.777   6.714  10.209
94938SOL    HW186647   4.704   6.773  10.187
94938SOL    HW286648   4.854   6.772  10.211
94939SOL     OW86649  13.457  10.237  14.266
94939SOL    HW186650  13.382  10.178  14.256
94939SOL    HW286651  13.420  10.314  14.310
94940SOL     OW86652   4.056  14.344  10.565
94940SOL    HW186653   3.991  14.294  10.515
94940SOL    HW286654   4.063  14.427  10.519
94941SOL     OW86655  11.035   7.345  13.360
94941SOL    HW186656  11.025   7.399  13.439
94941SOL    HW286657  10.990   7.395  13.291
94942SOL     OW86658   6.353   2.390   0.888
94942SOL    HW186659   6.360   2.341   0.807
94942SOL    HW286660   6.265   2.428   0.887
94943SOL     OW86661   6.014  11.632  11.280
94943SOL    HW186662   6.009  11.687  11.202
94943SOL    HW286663   6.048  11.690  11.348
94944SOL     OW86664  12.249   6.296  13.247
94944SOL    HW186665  12.184   6.365  13.234
94944SOL    HW286666  12.333   6.338  13.231
94945SOL     OW86667  11.157   7.564   3.436
94945SOL    HW186668  11.085   7.617   3.403
94945SOL    HW286669  11.235   7.600   3.394
94946SOL     OW86670   8.679   6.389   9.592
94946SOL    HW186671   8.751   6.328   9.575
94946SOL    HW286672   8.722   6.467   9.628
94947SOL     OW86673  14.080  11.340   5.394
94947SOL    HW186674  14.077  11.376   5.482
94947SOL    HW286675  14.126  11.256   5.404
94948SOL     OW86676   8.928  13.223   1.159
94948SOL    HW186677   9.005  13.265   1.196
94948SOL    HW286678   8.854  13.264   1.203
94949SOL     OW86679   6.577  10.423   8.287
94949SOL    HW186680   6.485  10.396   8.284
94949SOL    HW286681   6.621  10.350   8.331
94950SOL     OW86682  11.082   3.292   2.582
94950SOL    HW186683  11.158   3.266   2.530
94950SOL    HW286684  11.099   3.256   2.669
94951SOL     OW86685   8.323   0.885   0.083
94951SOL    HW186686   8.308   0.832   0.005
94951SOL    HW286687   8.295   0.973   0.058
94952SOL     OW86688   8.641  13.215  12.370
94952SOL    HW186689   8.607  13.178  12.288
94952SOL    HW286690   8.726  13.252  12.346
94953SOL     OW86691   1.124  10.232   4.663
94953SOL    HW186692   1.101  10.139   4.653
94953SOL    HW286693   1.215  10.232   4.692
94954SOL     OW86694  11.021   1.501   2.605
94954SOL    HW186695  11.052   1.564   2.670
94954SOL    HW286696  10.951   1.546   2.559
94955SOL     OW86697   5.547   6.911   4.938
94955SOL    HW186698   5.542   6.981   4.873
94955SOL    HW286699   5.624   6.860   4.913
94956SOL     OW86700   7.641  14.074  14.611
94956SOL    HW186701   7.692  14.086  14.691
94956SOL    HW286702   7.676  14.139  14.551
94957SOL     OW86703   2.814   9.789   1.903
94957SOL    HW186704   2.822   9.773   1.809
94957SOL    HW286705   2.719   9.786   1.919
94958SOL     OW86706   0.733   0.304   1.599
94958SOL    HW186707   0.660   0.280   1.656
94958SOL    HW286708   0.710   0.265   1.514
94959SOL     OW86709   5.553   0.617   8.572
94959SOL    HW186710   5.596   0.546   8.524
94959SOL    HW286711   5.563   0.694   8.516
94960SOL     OW86712   4.632  11.559   8.188
94960SOL    HW186713   4.577  11.482   8.173
94960SOL    HW286714   4.688  11.565   8.110
94961SOL     OW86715   9.287   8.490   1.812
94961SOL    HW186716   9.352   8.525   1.872
94961SOL    HW286717   9.327   8.411   1.775
94962SOL     OW86718   9.471  10.709  12.974
94962SOL    HW186719   9.477  10.635  12.914
94962SOL    HW286720   9.442  10.783  12.920
94963SOL     OW86721   9.183   6.570  13.317
94963SOL    HW186722   9.119   6.625  13.361
94963SOL    HW286723   9.267   6.594  13.357
94964SOL     OW86724  10.679  12.952   6.137
94964SOL    HW186725  10.705  12.911   6.054
94964SOL    HW286726  10.758  12.993   6.170
94965SOL     OW86727  12.048   9.653   1.932
94965SOL    HW186728  12.009   9.617   2.012
94965SOL    HW286729  12.020   9.745   1.932
94966SOL     OW86730   8.960   6.050   7.373
94966SOL    HW186731   8.868   6.076   7.376
94966SOL    HW286732   8.982   6.049   7.280
94967SOL     OW86733   8.711   1.510   4.362
94967SOL    HW186734   8.790   1.467   4.329
94967SOL    HW286735   8.739   1.599   4.385
94968SOL     OW86736  11.751   9.058   1.394
94968SOL    HW186737  11.662   9.047   1.426
94968SOL    HW286738  11.741   9.066   1.299
94969SOL     OW86739   3.823   7.435  11.298
94969SOL    HW186740   3.816   7.346  11.263
94969SOL    HW286741   3.761   7.438  11.371
94970SOL     OW86742   7.076  13.930  10.621
94970SOL    HW186743   7.082  13.980  10.702
94970SOL    HW286744   7.140  13.860  10.632
94971SOL     OW86745  11.528   4.508   9.989
94971SOL    HW186746  11.489   4.441  10.045
94971SOL    HW286747  11.552   4.579  10.050
94972SOL     OW86748   4.282   6.214   7.340
94972SOL    HW186749   4.269   6.299   7.381
94972SOL    HW286750   4.375   6.195   7.351
94973SOL     OW86751  10.187   8.690   7.035
94973SOL    HW186752  10.127   8.632   6.989
94973SOL    HW286753  10.263   8.697   6.977
94974SOL     OW86754   2.063   0.641  13.697
94974SOL    HW186755   2.030   0.559  13.659
94974SOL    HW286756   1.987   0.679  13.742
94975SOL     OW86757  14.869   0.390   8.646
94975SOL    HW186758  14.817   0.467   8.624
94975SOL    HW286759  14.855   0.377   8.740
94976SOL     OW86760  11.560   1.689   9.563
94976SOL    HW186761  11.583   1.780   9.542
94976SOL    HW286762  11.531   1.652   9.480
94977SOL     OW86763   6.193   6.278  10.736
94977SOL    HW186764   6.275   6.250  10.696
94977SOL    HW286765   6.127   6.219  10.700
94978SOL     OW86766   5.767  12.550   1.743
94978SOL    HW186767   5.744  12.494   1.817
94978SOL    HW286768   5.773  12.638   1.781
94979SOL     OW86769   8.657   1.523  11.749
94979SOL    HW186770   8.734   1.544  11.801
94979SOL    HW286771   8.583   1.533  11.808
94980SOL     OW86772   6.425   8.447   5.351
94980SOL    HW186773   6.374   8.429   5.272
94980SOL    HW286774   6.360   8.452   5.421
94981SOL     OW86775   5.412   7.374  13.459
94981SOL    HW186776   5.426   7.372  13.553
94981SOL    HW286777   5.443   7.460  13.431
94982SOL     OW86778   7.926   2.764  11.010
94982SOL    HW186779   8.007   2.733  11.051
94982SOL    HW286780   7.948   2.768  10.917
94983SOL     OW86781  10.099   5.034  13.547
94983SOL    HW186782  10.044   5.094  13.598
94983SOL    HW286783  10.078   4.947  13.583
94984SOL     OW86784   0.547   8.565  10.293
94984SOL    HW186785   0.596   8.495  10.249
94984SOL    HW286786   0.467   8.521  10.325
94985SOL     OW86787   9.856   2.515   4.666
94985SOL    HW186788   9.928   2.462   4.632
94985SOL    HW286789   9.897   2.599   4.688
94986SOL     OW86790   8.209  11.223  11.472
94986SOL    HW186791   8.134  11.249  11.526
94986SOL    HW286792   8.286  11.249  11.522
94987SOL     OW86793   6.904   8.068   0.587
94987SOL    HW186794   6.847   8.140   0.561
94987SOL    HW286795   6.883   8.053   0.679
94988SOL     OW86796  10.657   6.711  14.053
94988SOL    HW186797  10.650   6.626  14.010
94988SOL    HW286798  10.715   6.695  14.128
94989SOL     OW86799   7.355  13.063  11.326
94989SOL    HW186800   7.344  13.025  11.239
94989SOL    HW286801   7.267  13.093  11.351
94990SOL     OW86802  14.151   6.859  11.344
94990SOL    HW186803  14.072   6.885  11.392
94990SOL    HW286804  14.124   6.860  11.252
94991SOL     OW86805   6.592   7.717  14.848
94991SOL    HW186806   6.674   7.760  14.823
94991SOL    HW286807   6.616   7.625  14.863
94992SOL     OW86808   3.930   1.200   7.811
94992SOL    HW186809   3.903   1.112   7.837
94992SOL    HW286810   4.000   1.223   7.872
94993SOL     OW86811  11.085   6.172   5.253
94993SOL    HW186812  11.054   6.084   5.230
94993SOL    HW286813  11.064   6.225   5.176
94994SOL     OW86814   2.911   8.047   5.735
94994SOL    HW186815   2.969   8.114   5.698
94994SOL    HW286816   2.873   8.004   5.659
94995SOL     OW86817   5.473  14.739   1.476
94995SOL    HW186818   5.424  14.755   1.557
94995SOL    HW286819   5.458  14.817   1.423
94996SOL     OW86820   1.575   9.390  11.303
94996SOL    HW186821   1.649   9.429  11.256
94996SOL    HW286822   1.597   9.296  11.306
94997SOL     OW86823   1.806  11.931   5.982
94997SOL    HW186824   1.719  11.939   6.020
94997SOL    HW286825   1.866  11.947   6.056
94998SOL     OW86826   5.565   6.902   8.869
94998SOL    HW186827   5.512   6.942   8.801
94998SOL    HW286828   5.518   6.920   8.950
94999SOL     OW86829  13.086   3.333  10.714
94999SOL    HW186830  13.079   3.406  10.653
94999SOL    HW286831  13.059   3.369  10.798
95000SOL     OW86832   4.208   6.987   4.077
95000SOL    HW186833   4.231   7.080   4.077
95000SOL    HW286834   4.115   6.985   4.053
95001SOL     OW86835  12.819   1.091   2.501
95001SOL    HW186836  12.905   1.108   2.461
95001SOL    HW286837  12.840   1.057   2.588
95002SOL     OW86838   1.393   4.615  14.599
95002SOL    HW186839   1.453   4.609  14.525
95002SOL    HW286840   1.306   4.609  14.560
95003SOL     OW86841   3.023  14.590   7.651
95003SOL    HW186842   3.046  14.653   7.583
95003SOL    HW286843   3.105  14.570   7.695
95004SOL     OW86844  13.210   1.979   4.515
95004SOL    HW186845  13.277   1.915   4.492
95004SOL    HW286846  13.214   1.985   4.610
95005SOL     OW86847   6.811   1.315   7.132
95005SOL    HW186848   6.883   1.256   7.154
95005SOL    HW286849   6.812   1.380   7.201
95006SOL     OW86850   4.345  12.170   4.351
95006SOL    HW186851   4.351  12.253   4.305
95006SOL    HW286852   4.340  12.194   4.443
95007SOL     OW86853   2.961   5.787   8.130
95007SOL    HW186854   2.893   5.789   8.063
95007SOL    HW286855   3.043   5.796   8.082
95008SOL     OW86856  10.434   7.031  14.181
95008SOL    HW186857  10.347   7.067  14.162
95008SOL    HW286858  10.469   7.088  14.251
95009SOL     OW86859   5.550   8.570  13.127
95009SOL    HW186860   5.511   8.565  13.040
95009SOL    HW286861   5.479   8.547  13.187
95010SOL     OW86862  10.515   6.682   1.303
95010SOL    HW186863  10.568   6.654   1.378
95010SOL    HW286864  10.542   6.624   1.232
95011SOL     OW86865   4.078   4.529   6.130
95011SOL    HW186866   4.012   4.577   6.180
95011SOL    HW286867   4.110   4.591   6.065
95012SOL     OW86868  13.747   3.711   7.953
95012SOL    HW186869  13.701   3.784   7.910
95012SOL    HW286870  13.840   3.736   7.948
95013SOL     OW86871  10.389   0.518   0.243
95013SOL    HW186872  10.330   0.472   0.302
95013SOL    HW286873  10.357   0.608   0.244
95014SOL     OW86874  11.635   2.236   2.819
95014SOL    HW186875  11.707   2.287   2.857
95014SOL    HW286876  11.673   2.196   2.741
95015SOL     OW86877   2.474   7.223   3.189
95015SOL    HW186878   2.424   7.288   3.238
95015SOL    HW286879   2.430   7.140   3.207
95016SOL     OW86880   9.651   4.427   0.966
95016SOL    HW186881   9.654   4.522   0.957
95016SOL    HW286882   9.657   4.412   1.060
95017SOL     OW86883   6.136   7.223   7.612
95017SOL    HW186884   6.064   7.280   7.637
95017SOL    HW286885   6.215   7.276   7.625
95018SOL     OW86886  14.575   0.509  14.553
95018SOL    HW186887  14.491   0.497  14.597
95018SOL    HW286888  14.556   0.572  14.483
95019SOL     OW86889  12.411   8.044   8.089
95019SOL    HW186890  12.409   7.950   8.106
95019SOL    HW286891  12.350   8.081   8.153
95020SOL     OW86892   5.056   0.085   2.131
95020SOL    HW186893   5.141   0.042   2.137
95020SOL    HW286894   5.000   0.023   2.084
95021SOL     OW86895  11.739   1.729   1.206
95021SOL    HW186896  11.686   1.808   1.208
95021SOL    HW286897  11.827   1.759   1.228
95022SOL     OW86898  10.332   3.372   8.857
95022SOL    HW186899  10.321   3.358   8.951
95022SOL    HW286900  10.384   3.297   8.827
95023SOL     OW86901   3.660   6.694   0.835
95023SOL    HW186902   3.693   6.771   0.882
95023SOL    HW286903   3.680   6.620   0.892
95024SOL     OW86904   5.269   7.231   7.305
95024SOL    HW186905   5.351   7.182   7.314
95024SOL    HW286906   5.287   7.295   7.237
95025SOL     OW86907   0.812   5.283  14.321
95025SOL    HW186908   0.850   5.238  14.396
95025SOL    HW286909   0.737   5.230  14.296
95026SOL     OW86910   4.895  11.228   9.328
95026SOL    HW186911   4.987  11.255   9.338
95026SOL    HW286912   4.850  11.271   9.401
95027SOL     OW86913  10.676   9.854   5.610
95027SOL    HW186914  10.649   9.940   5.578
95027SOL    HW286915  10.603   9.825   5.665
95028SOL     OW86916   2.652  11.172  11.144
95028SOL    HW186917   2.624  11.088  11.182
95028SOL    HW286918   2.575  11.228  11.154
95029SOL     OW86919  12.864   3.301  12.748
95029SOL    HW186920  12.893   3.391  12.761
95029SOL    HW286921  12.778   3.309  12.705
95030SOL     OW86922   4.197  13.389   9.249
95030SOL    HW186923   4.188  13.481   9.273
95030SOL    HW286924   4.179  13.341   9.330
95031SOL     OW86925   4.787  12.115  12.945
95031SOL    HW186926   4.873  12.140  12.911
95031SOL    HW286927   4.786  12.150  13.035
95032SOL     OW86928   8.308  11.513   4.369
95032SOL    HW186929   8.337  11.584   4.427
95032SOL    HW286930   8.212  11.515   4.375
95033SOL     OW86931  11.154  10.723   8.419
95033SOL    HW186932  11.109  10.808   8.417
95033SOL    HW286933  11.086  10.659   8.401
95034SOL     OW86934  11.759   5.794   5.811
95034SOL    HW186935  11.730   5.866   5.867
95034SOL    HW286936  11.785   5.837   5.729
95035SOL     OW86937  13.042   6.847   0.394
95035SOL    HW186938  12.976   6.844   0.324
95035SOL    HW286939  13.064   6.755   0.409
95036SOL     OW86940   5.061   2.769   3.346
95036SOL    HW186941   5.109   2.810   3.419
95036SOL    HW286942   5.129   2.736   3.288
95037SOL     OW86943  11.705   4.024  10.955
95037SOL    HW186944  11.766   3.951  10.968
95037SOL    HW286945  11.725   4.056  10.867
95038SOL     OW86946   1.945  11.163   9.360
95038SOL    HW186947   1.860  11.128   9.333
95038SOL    HW286948   1.994  11.087   9.391
95039SOL     OW86949  13.749   6.547   4.585
95039SOL    HW186950  13.736   6.535   4.491
95039SOL    HW286951  13.804   6.473   4.611
95040SOL     OW86952  11.930   8.919   3.260
95040SOL    HW186953  12.025   8.918   3.271
95040SOL    HW286954  11.909   9.012   3.248
95041SOL     OW86955   9.191   9.551   0.447
95041SOL    HW186956   9.114   9.538   0.391
95041SOL    HW286957   9.264   9.553   0.385
95042SOL     OW86958  13.849  14.842  12.283
95042SOL    HW186959  13.935  14.837  12.242
95042SOL    HW286960  13.854  14.782  12.357
95043SOL     OW86961  11.862   4.830  10.883
95043SOL    HW186962  11.814   4.904  10.921
95043SOL    HW286963  11.851   4.759  10.946
95044SOL     OW86964   6.908   6.883   7.158
95044SOL    HW186965   6.876   6.887   7.068
95044SOL    HW286966   6.843   6.831   7.205
95045SOL     OW86967  13.401   5.971   3.761
95045SOL    HW186968  13.416   5.883   3.728
95045SOL    HW286969  13.484   5.997   3.801
95046SOL     OW86970   9.219  11.819  10.549
95046SOL    HW186971   9.273  11.850  10.621
95046SOL    HW286972   9.231  11.724  10.548
95047SOL     OW86973  14.163   9.372   4.118
95047SOL    HW186974  14.073   9.397   4.094
95047SOL    HW286975  14.215   9.450   4.099
95048SOL     OW86976  12.570   4.668   1.465
95048SOL    HW186977  12.577   4.598   1.530
95048SOL    HW286978  12.531   4.741   1.513
95049SOL     OW86979   8.960  13.038  13.295
95049SOL    HW186980   8.961  13.031  13.391
95049SOL    HW286981   9.027  13.102  13.274
95050SOL     OW86982  13.958   1.670   0.651
95050SOL    HW186983  13.928   1.598   0.706
95050SOL    HW286984  13.994   1.628   0.574
95051SOL     OW86985  13.854  11.680  13.890
95051SOL    HW186986  13.863  11.667  13.984
95051SOL    HW286987  13.841  11.775  13.880
95052SOL     OW86988   3.137  12.723   0.101
95052SOL    HW186989   3.156  12.805   0.146
95052SOL    HW286990   3.215  12.669   0.117
95053SOL     OW86991   0.250   5.391  11.892
95053SOL    HW186992   0.318   5.439  11.844
95053SOL    HW286993   0.169   5.414  11.848
95054SOL     OW86994   0.067   7.263   2.045
95054SOL    HW186995  14.850   7.260   2.078
95054SOL    HW286996   0.096   7.172   2.044
95055SOL     OW86997  13.156  14.247   2.600
95055SOL    HW186998  13.154  14.189   2.525
95055SOL    HW286999  13.073  14.231   2.645
95056SOL     OW87000   0.818   0.330   5.730
95056SOL    HW187001   0.745   0.268   5.735
95056SOL    HW287002   0.891   0.285   5.773
95057SOL     OW87003   8.464   8.952   5.458
95057SOL    HW187004   8.378   8.996   5.462
95057SOL    HW287005   8.449   8.878   5.398
95058SOL     OW87006   2.270  13.819   4.773
95058SOL    HW187007   2.325  13.766   4.830
95058SOL    HW287008   2.242  13.893   4.827
95059SOL     OW87009  11.813   8.639   9.213
95059SOL    HW187010  11.831   8.629   9.306
95059SOL    HW287011  11.721   8.665   9.209
95060SOL     OW87012   8.416   0.679  12.369
95060SOL    HW187013   8.400   0.754  12.427
95060SOL    HW287014   8.396   0.603  12.423
95061SOL     OW87015   9.436   0.698   7.605
95061SOL    HW187016   9.438   0.738   7.692
95061SOL    HW287017   9.428   0.772   7.545
95062SOL     OW87018   5.840   1.185   3.175
95062SOL    HW187019   5.881   1.098   3.171
95062SOL    HW287020   5.809   1.191   3.266
95063SOL     OW87021   3.604   2.343   6.390
95063SOL    HW187022   3.690   2.359   6.352
95063SOL    HW287023   3.582   2.254   6.362
95064SOL     OW87024   8.139   7.391   3.860
95064SOL    HW187025   8.225   7.350   3.851
95064SOL    HW287026   8.157   7.485   3.864
95065SOL     OW87027  13.834   0.554  10.869
95065SOL    HW187028  13.789   0.596  10.942
95065SOL    HW287029  13.876   0.477  10.908
95066SOL     OW87030  10.745   9.042   8.773
95066SOL    HW187031  10.756   8.983   8.698
95066SOL    HW287032  10.653   9.031   8.798
95067SOL     OW87033   3.665  10.688   6.225
95067SOL    HW187034   3.612  10.712   6.301
95067SOL    HW287035   3.637  10.600   6.203
95068SOL     OW87036   8.178   5.105   5.342
95068SOL    HW187037   8.207   5.109   5.251
95068SOL    HW287038   8.252   5.067   5.389
95069SOL     OW87039   8.961  11.609  12.618
95069SOL    HW187040   8.949  11.696  12.656
95069SOL    HW287041   8.876  11.565  12.630
95070SOL     OW87042  11.683   5.770   8.567
95070SOL    HW187043  11.603   5.747   8.520
95070SOL    HW287044  11.751   5.773   8.499
95071SOL     OW87045   6.887   4.479   2.392
95071SOL    HW187046   6.963   4.515   2.345
95071SOL    HW287047   6.849   4.417   2.330
95072SOL     OW87048  13.542   1.666   2.628
95072SOL    HW187049  13.555   1.712   2.545
95072SOL    HW287050  13.513   1.734   2.689
95073SOL     OW87051   9.669   1.533   1.382
95073SOL    HW187052   9.670   1.554   1.475
95073SOL    HW287053   9.629   1.608   1.340
95074SOL     OW87054  11.167   3.122   3.204
95074SOL    HW187055  11.243   3.083   3.161
95074SOL    HW287056  11.200   3.155   3.287
95075SOL     OW87057   8.256   1.490   2.264
95075SOL    HW187058   8.324   1.540   2.219
95075SOL    HW287059   8.247   1.410   2.212
95076SOL     OW87060   7.788   3.271   2.938
95076SOL    HW187061   7.830   3.356   2.949
95076SOL    HW287062   7.857   3.215   2.903
95077SOL     OW87063   9.209   1.587   5.473
95077SOL    HW187064   9.147   1.525   5.511
95077SOL    HW287065   9.219   1.559   5.382
95078SOL     OW87066  11.131   0.819  11.659
95078SOL    HW187067  11.192   0.783  11.595
95078SOL    HW287068  11.137   0.914  11.647
95079SOL     OW87069   7.653   6.337   0.841
95079SOL    HW187070   7.589   6.282   0.887
95079SOL    HW287071   7.738   6.303   0.868
95080SOL     OW87072   2.420   3.739   1.810
95080SOL    HW187073   2.424   3.821   1.859
95080SOL    HW287074   2.327   3.715   1.809
95081SOL     OW87075   0.255   9.116   8.753
95081SOL    HW187076   0.173   9.071   8.769
95081SOL    HW287077   0.229   9.206   8.731
95082SOL     OW87078  11.872   8.645   6.893
95082SOL    HW187079  11.830   8.711   6.839
95082SOL    HW287080  11.808   8.574   6.898
95083SOL     OW87081   3.473   1.312   1.472
95083SOL    HW187082   3.447   1.220   1.477
95083SOL    HW287083   3.551   1.318   1.526
95084SOL     OW87084   4.879  10.854   8.827
95084SOL    HW187085   4.832  10.828   8.748
95084SOL    HW287086   4.833  10.932   8.858
95085SOL     OW87087  12.833   3.511   5.725
95085SOL    HW187088  12.886   3.431   5.727
95085SOL    HW287089  12.807   3.520   5.633
95086SOL     OW87090   8.017  14.818   0.721
95086SOL    HW187091   7.990   0.003   0.793
95086SOL    HW287092   8.008  14.730   0.757
95087SOL     OW87093   5.204  12.257   3.540
95087SOL    HW187094   5.224  12.226   3.452
95087SOL    HW287095   5.265  12.329   3.555
95088SOL     OW87096  12.301  13.373  10.414
95088SOL    HW187097  12.238  13.386  10.343
95088SOL    HW287098  12.382  13.347  10.370
95089SOL     OW87099  13.596   9.980   4.975
95089SOL    HW187100  13.658  10.019   5.037
95089SOL    HW287101  13.650   9.924   4.919
95090SOL     OW87102   4.829  10.192  13.093
95090SOL    HW187103   4.906  10.208  13.038
95090SOL    HW287104   4.775  10.133  13.041
95091SOL     OW87105  14.783   6.404   6.411
95091SOL    HW187106  14.777   6.459   6.489
95091SOL    HW287107   0.001   6.374   6.410
95092SOL     OW87108   2.837   8.585   2.596
95092SOL    HW187109   2.871   8.498   2.575
95092SOL    HW287110   2.916   8.638   2.610
95093SOL     OW87111   5.831  11.013  13.002
95093SOL    HW187112   5.874  10.927  13.001
95093SOL    HW287113   5.891  11.070  12.954
95094SOL     OW87114  10.035   5.592   2.838
95094SOL    HW187115   9.961   5.615   2.781
95094SOL    HW287116  10.112   5.604   2.783
95095SOL     OW87117   3.146  13.368   9.537
95095SOL    HW187118   3.186  13.353   9.452
95095SOL    HW287119   3.054  13.347   9.525
95096SOL     OW87120  13.230   6.852   7.874
95096SOL    HW187121  13.231   6.937   7.918
95096SOL    HW287122  13.217   6.872   7.781
95097SOL     OW87123  11.221   0.063   7.114
95097SOL    HW187124  11.285   0.069   7.185
95097SOL    HW287125  11.229   0.147   7.068
95098SOL     OW87126  10.539   0.135  12.905
95098SOL    HW187127  10.533   0.071  12.975
95098SOL    HW287128  10.533   0.220  12.949
95099SOL     OW87129   5.541   4.272  10.284
95099SOL    HW187130   5.571   4.274  10.193
95099SOL    HW287131   5.449   4.248  10.278
95100SOL     OW87132  13.849  10.809   4.334
95100SOL    HW187133  13.760  10.782   4.310
95100SOL    HW287134  13.864  10.768   4.419
95101SOL     OW87135   0.344  11.719   5.753
95101SOL    HW187136   0.269  11.664   5.732
95101SOL    HW287137   0.420  11.667   5.727
95102SOL     OW87138   1.122   1.010   9.171
95102SOL    HW187139   1.207   1.037   9.137
95102SOL    HW287140   1.136   1.001   9.266
95103SOL     OW87141   3.021  13.246   0.027
95103SOL    HW187142   3.090  13.301   0.065
95103SOL    HW287143   2.958  13.233   0.098
95104SOL     OW87144   0.474   4.905  12.019
95104SOL    HW187145   0.443   4.983  12.066
95104SOL    HW287146   0.416   4.899  11.944
95105SOL     OW87147   5.933  11.664   5.899
95105SOL    HW187148   5.845  11.627   5.899
95105SOL    HW287149   5.985  11.601   5.949
95106SOL     OW87150   9.123   2.764   2.597
95106SOL    HW187151   9.107   2.803   2.684
95106SOL    HW287152   9.201   2.710   2.609
95107SOL     OW87153  13.570   5.922   0.995
95107SOL    HW187154  13.573   5.991   0.929
95107SOL    HW287155  13.498   5.866   0.968
95108SOL     OW87156   0.833   2.199   9.399
95108SOL    HW187157   0.867   2.150   9.324
95108SOL    HW287158   0.875   2.285   9.392
95109SOL     OW87159  11.648   9.396   2.858
95109SOL    HW187160  11.603   9.341   2.922
95109SOL    HW287161  11.741   9.378   2.872
95110SOL     OW87162  12.704  12.649   6.906
95110SOL    HW187163  12.741  12.696   6.981
95110SOL    HW287164  12.664  12.717   6.852
95111SOL     OW87165   0.728   1.263   7.542
95111SOL    HW187166   0.728   1.332   7.475
95111SOL    HW287167   0.818   1.229   7.541
95112SOL     OW87168  14.575  14.666   7.221
95112SOL    HW187169  14.517  14.592   7.241
95112SOL    HW287170  14.663  14.630   7.229
95113SOL     OW87171   5.482  11.077   3.604
95113SOL    HW187172   5.474  11.171   3.591
95113SOL    HW287173   5.562  11.052   3.557
95114SOL     OW87174  13.475   2.037   5.830
95114SOL    HW187175  13.407   2.102   5.811
95114SOL    HW287176  13.461   1.968   5.765
95115SOL     OW87177  11.380   2.967   9.431
95115SOL    HW187178  11.339   2.884   9.407
95115SOL    HW287179  11.344   3.031   9.369
95116SOL     OW87180  14.677   8.888  14.010
95116SOL    HW187181  14.681   8.949  14.083
95116SOL    HW287182  14.708   8.805  14.046
95117SOL     OW87183  14.252  13.376  11.281
95117SOL    HW187184  14.199  13.306  11.319
95117SOL    HW287185  14.194  13.421  11.220
95118SOL     OW87186   7.425   4.568   9.117
95118SOL    HW187187   7.418   4.546   9.024
95118SOL    HW287188   7.512   4.538   9.142
95119SOL     OW87189  13.222  14.305  12.818
95119SOL    HW187190  13.145  14.254  12.843
95119SOL    HW287191  13.292  14.239  12.809
95120SOL     OW87192   6.798   9.807  10.410
95120SOL    HW187193   6.882   9.768  10.433
95120SOL    HW287194   6.818   9.865  10.337
95121SOL     OW87195  14.135  10.634  13.800
95121SOL    HW187196  14.140  10.539  13.788
95121SOL    HW287197  14.157  10.647  13.892
95122SOL     OW87198   4.120   5.724   9.279
95122SOL    HW187199   4.155   5.707   9.192
95122SOL    HW287200   4.180   5.788   9.317
95123SOL     OW87201  14.014   8.350   5.294
95123SOL    HW187202  13.940   8.357   5.354
95123SOL    HW287203  13.980   8.379   5.209
95124SOL     OW87204   3.912   3.713   6.937
95124SOL    HW187205   4.000   3.693   6.970
95124SOL    HW287206   3.905   3.808   6.944
95125SOL     OW87207  12.531  11.264  13.502
95125SOL    HW187208  12.501  11.352  13.524
95125SOL    HW287209  12.617  11.257  13.542
95126SOL     OW87210   0.146   3.077   4.512
95126SOL    HW187211   0.155   3.025   4.591
95126SOL    HW287212   0.231   3.120   4.501
95127SOL     OW87213   2.276   2.043   1.157
95127SOL    HW187214   2.266   1.948   1.155
95127SOL    HW287215   2.290   2.063   1.249
95128SOL     OW87216   9.162  12.682   1.800
95128SOL    HW187217   9.232  12.747   1.797
95128SOL    HW287218   9.142  12.672   1.893
95129SOL     OW87219   4.704   2.540  13.971
95129SOL    HW187220   4.760   2.463  13.980
95129SOL    HW287221   4.734   2.600  14.039
95130SOL     OW87222  10.984   1.308   8.998
95130SOL    HW187223  10.981   1.273   8.909
95130SOL    HW287224  10.956   1.235   9.054
95131SOL     OW87225   4.314  13.993  13.331
95131SOL    HW187226   4.288  13.909  13.292
95131SOL    HW287227   4.410  13.988  13.337
95132SOL     OW87228  12.260   9.299   7.758
95132SOL    HW187229  12.169   9.276   7.778
95132SOL    HW287230  12.311   9.225   7.791
95133SOL     OW87231   5.014  14.346   4.343
95133SOL    HW187232   5.027  14.347   4.248
95133SOL    HW287233   5.026  14.436   4.371
95134SOL     OW87234  12.824  12.313   1.148
95134SOL    HW187235  12.791  12.261   1.221
95134SOL    HW287236  12.844  12.398   1.186
95135SOL     OW87237  14.207  13.631   4.984
95135SOL    HW187238  14.233  13.574   4.912
95135SOL    HW287239  14.265  13.708   4.976
95136SOL     OW87240  10.286  13.317   4.667
95136SOL    HW187241  10.248  13.403   4.687
95136SOL    HW287242  10.292  13.274   4.752
95137SOL     OW87243   8.830  12.704   7.265
95137SOL    HW187244   8.843  12.613   7.292
95137SOL    HW287245   8.736  12.717   7.270
95138SOL     OW87246   4.108   5.940  11.387
95138SOL    HW187247   4.015   5.929  11.405
95138SOL    HW287248   4.127   5.877  11.317
95139SOL     OW87249   6.478   5.523  11.727
95139SOL    HW187250   6.476   5.593  11.662
95139SOL    HW287251   6.495   5.444  11.677
95140SOL     OW87252   0.842   0.493  13.283
95140SOL    HW187253   0.895   0.530  13.353
95140SOL    HW287254   0.788   0.427  13.326
95141SOL     OW87255   6.670   2.858   3.027
95141SOL    HW187256   6.651   2.899   2.943
95141SOL    HW287257   6.765   2.847   3.027
95142SOL     OW87258  13.998   7.709  10.658
95142SOL    HW187259  13.917   7.664  10.634
95142SOL    HW287260  14.018   7.765  10.583
95143SOL     OW87261   4.614   2.419  10.014
95143SOL    HW187262   4.695   2.381  10.047
95143SOL    HW287263   4.551   2.347  10.015
95144SOL     OW87264  10.541   2.584   1.660
95144SOL    HW187265  10.494   2.661   1.692
95144SOL    HW287266  10.628   2.591   1.699
95145SOL     OW87267   2.352   0.562   9.887
95145SOL    HW187268   2.339   0.636   9.947
95145SOL    HW287269   2.421   0.592   9.827
95146SOL     OW87270   2.940   1.202   3.540
95146SOL    HW187271   2.949   1.157   3.624
95146SOL    HW287272   2.949   1.133   3.474
95147SOL     OW87273   1.030  13.286  14.242
95147SOL    HW187274   0.940  13.298  14.212
95147SOL    HW287275   1.025  13.215  14.305
95148SOL     OW87276   3.178   4.050   7.281
95148SOL    HW187277   3.175   4.127   7.338
95148SOL    HW287278   3.224   3.984   7.333
95149SOL     OW87279  12.466   0.959  14.323
95149SOL    HW187280  12.539   0.927  14.270
95149SOL    HW287281  12.454   0.891  14.389
95150SOL     OW87282  12.403   4.358   8.353
95150SOL    HW187283  12.408   4.291   8.285
95150SOL    HW287284  12.494   4.376   8.377
95151SOL     OW87285   8.797   1.247  13.349
95151SOL    HW187286   8.870   1.186  13.360
95151SOL    HW287287   8.723   1.205  13.392
95152SOL     OW87288   7.984   2.136   8.679
95152SOL    HW187289   8.043   2.178   8.742
95152SOL    HW287290   7.923   2.206   8.653
95153SOL     OW87291   5.820   0.676   5.461
95153SOL    HW187292   5.838   0.603   5.402
95153SOL    HW287293   5.886   0.670   5.529
95154SOL     OW87294  13.681  11.798   1.101
95154SOL    HW187295  13.698  11.805   1.007
95154SOL    HW287296  13.705  11.708   1.123
95155SOL     OW87297  11.305   3.195   3.421
95155SOL    HW187298  11.399   3.212   3.417
95155SOL    HW287299  11.270   3.265   3.475
95156SOL     OW87300  14.573  12.902   1.961
95156SOL    HW187301  14.625  12.968   1.915
95156SOL    HW287302  14.557  12.940   2.048
95157SOL     OW87303   7.936   1.582  14.094
95157SOL    HW187304   8.012   1.528  14.076
95157SOL    HW287305   7.972   1.668  14.116
95158SOL     OW87306   9.358  12.553   9.004
95158SOL    HW187307   9.323  12.536   8.917
95158SOL    HW287308   9.282  12.574   9.058
95159SOL     OW87309   8.933   1.843   0.308
95159SOL    HW187310   8.979   1.825   0.225
95159SOL    HW287311   8.946   1.764   0.360
95160SOL     OW87312   8.645   6.806  10.468
95160SOL    HW187313   8.728   6.784  10.426
95160SOL    HW287314   8.588   6.731  10.451
95161SOL     OW87315   6.518  10.546  12.195
95161SOL    HW187316   6.525  10.573  12.103
95161SOL    HW287317   6.531  10.627  12.244
95162SOL     OW87318   8.767   6.121   0.720
95162SOL    HW187319   8.788   6.134   0.628
95162SOL    HW287320   8.822   6.184   0.767
95163SOL     OW87321   5.281  10.870   5.896
95163SOL    HW187322   5.308  10.813   5.824
95163SOL    HW287323   5.242  10.811   5.960
95164SOL     OW87324   8.803   7.081   5.321
95164SOL    HW187325   8.790   7.050   5.232
95164SOL    HW287326   8.856   7.013   5.363
95165SOL     OW87327   1.316   2.763   0.312
95165SOL    HW187328   1.260   2.840   0.322
95165SOL    HW287329   1.269   2.707   0.251
95166SOL     OW87330   2.385   1.023  14.224
95166SOL    HW187331   2.404   1.089  14.157
95166SOL    HW287332   2.413   0.940  14.185
95167SOL     OW87333   1.317  10.385   3.707
95167SOL    HW187334   1.336  10.406   3.799
95167SOL    HW287335   1.365  10.304   3.690
95168SOL     OW87336   0.879   6.263   5.275
95168SOL    HW187337   0.883   6.317   5.354
95168SOL    HW287338   0.903   6.323   5.204
95169SOL     OW87339   8.502  14.707   3.483
95169SOL    HW187340   8.429  14.695   3.543
95169SOL    HW287341   8.572  14.744   3.538
95170SOL     OW87342   7.448  13.532  13.109
95170SOL    HW187343   7.538  13.542  13.140
95170SOL    HW287344   7.457  13.525  13.014
95171SOL     OW87345   6.967   6.609   7.895
95171SOL    HW187346   6.927   6.694   7.915
95171SOL    HW287347   6.910   6.545   7.939
95172SOL     OW87348  11.235   5.334   2.203
95172SOL    HW187349  11.156   5.376   2.169
95172SOL    HW287350  11.209   5.244   2.221
95173SOL     OW87351   2.964  12.644   9.933
95173SOL    HW187352   2.953  12.712   9.999
95173SOL    HW287353   2.883  12.647   9.882
95174SOL     OW87354   1.374  11.895  12.170
95174SOL    HW187355   1.325  11.977  12.180
95174SOL    HW287356   1.323  11.844  12.107
95175SOL     OW87357   5.819   6.979  10.717
95175SOL    HW187358   5.815   6.967  10.812
95175SOL    HW287359   5.799   7.071  10.703
95176SOL     OW87360  10.253   9.232   5.122
95176SOL    HW187361  10.318   9.301   5.109
95176SOL    HW287362  10.305   9.153   5.136
95177SOL     OW87363  12.823   7.080  10.421
95177SOL    HW187364  12.834   6.987  10.399
95177SOL    HW287365  12.900   7.101  10.474
95178SOL     OW87366   7.027  10.475   9.758
95178SOL    HW187367   6.958  10.483   9.824
95178SOL    HW287368   7.021  10.384   9.729
95179SOL     OW87369   3.577  14.775   9.712
95179SOL    HW187370   3.559  14.683   9.694
95179SOL    HW287371   3.648  14.798   9.652
95180SOL     OW87372   6.984   4.511   7.336
95180SOL    HW187373   7.038   4.504   7.258
95180SOL    HW287374   6.956   4.421   7.355
95181SOL     OW87375  14.207   1.589  14.155
95181SOL    HW187376  14.185   1.678  14.183
95181SOL    HW287377  14.286   1.599  14.103
95182SOL     OW87378   2.814  10.635  14.615
95182SOL    HW187379   2.730  10.675  14.636
95182SOL    HW287380   2.858  10.701  14.560
95183SOL     OW87381  11.484   0.114  11.224
95183SOL    HW187382  11.488   0.200  11.265
95183SOL    HW287383  11.483   0.053  11.298
95184SOL     OW87384  12.911  12.102   2.018
95184SOL    HW187385  12.844  12.056   1.968
95184SOL    HW287386  12.863  12.153   2.082
95185SOL     OW87387  12.303   0.938  10.193
95185SOL    HW187388  12.330   0.956  10.283
95185SOL    HW287389  12.385   0.924  10.146
95186SOL     OW87390   3.663   7.419   8.900
95186SOL    HW187391   3.752   7.386   8.903
95186SOL    HW287392   3.665   7.489   8.834
95187SOL     OW87393  14.695  10.155   0.395
95187SOL    HW187394  14.685  10.154   0.490
95187SOL    HW287395  14.755  10.228   0.378
95188SOL     OW87396   9.214   3.432  14.113
95188SOL    HW187397   9.181   3.413  14.200
95188SOL    HW287398   9.139   3.420  14.055
95189SOL     OW87399   1.944  14.529   0.316
95189SOL    HW187400   1.990  14.610   0.338
95189SOL    HW287401   2.013  14.463   0.307
95190SOL     OW87402  10.084   5.269   5.002
95190SOL    HW187403  10.030   5.235   4.931
95190SOL    HW287404  10.138   5.337   4.962
95191SOL     OW87405   8.495   2.076   7.638
95191SOL    HW187406   8.493   2.167   7.609
95191SOL    HW287407   8.531   2.080   7.727
95192SOL     OW87408   8.822   2.689  14.563
95192SOL    HW187409   8.909   2.724  14.581
95192SOL    HW287410   8.838   2.616  14.503
95193SOL     OW87411   0.461  10.658  10.390
95193SOL    HW187412   0.373  10.621  10.390
95193SOL    HW287413   0.462  10.716  10.313
95194SOL     OW87414   8.039  13.941  12.303
95194SOL    HW187415   7.996  14.026  12.300
95194SOL    HW287416   8.008  13.895  12.225
95195SOL     OW87417  10.660   3.700   3.421
95195SOL    HW187418  10.638   3.792   3.439
95195SOL    HW287419  10.637   3.688   3.329
95196SOL     OW87420   7.214   5.751  12.264
95196SOL    HW187421   7.153   5.734  12.335
95196SOL    HW287422   7.257   5.667  12.249
95197SOL     OW87423   3.921  13.097  14.015
95197SOL    HW187424   3.976  13.121  13.940
95197SOL    HW287425   3.896  13.181  14.054
95198SOL     OW87426   5.727  11.031   2.150
95198SOL    HW187427   5.731  11.125   2.168
95198SOL    HW287428   5.731  11.024   2.055
95199SOL     OW87429   1.997   4.629   1.888
95199SOL    HW187430   1.956   4.570   1.952
95199SOL    HW287431   1.946   4.710   1.894
95200SOL     OW87432  11.188  10.151  12.584
95200SOL    HW187433  11.105  10.116  12.616
95200SOL    HW287434  11.210  10.096  12.509
95201SOL     OW87435   4.129   2.374   2.514
95201SOL    HW187436   4.052   2.325   2.545
95201SOL    HW287437   4.095   2.436   2.450
95202SOL     OW87438   2.210   5.154   8.296
95202SOL    HW187439   2.152   5.222   8.264
95202SOL    HW287440   2.189   5.077   8.242
95203SOL     OW87441   5.104  11.714   0.731
95203SOL    HW187442   5.025  11.767   0.722
95203SOL    HW287443   5.163  11.766   0.786
95204SOL     OW87444  14.035   7.352  12.429
95204SOL    HW187445  14.085   7.364  12.349
95204SOL    HW287446  14.030   7.257  12.440
95205SOL     OW87447  10.006  10.200   0.979
95205SOL    HW187448  10.017  10.109   0.952
95205SOL    HW287449  10.086  10.220   1.028
95206SOL     OW87450  13.467  13.716   3.453
95206SOL    HW187451  13.542  13.656   3.452
95206SOL    HW287452  13.404  13.675   3.512
95207SOL     OW87453  11.207   5.514   0.025
95207SOL    HW187454  11.144   5.522   0.096
95207SOL    HW287455  11.178   5.578  14.832
95208SOL     OW87456   9.591  11.858  11.203
95208SOL    HW187457   9.536  11.783  11.180
95208SOL    HW287458   9.566  11.880  11.292
95209SOL     OW87459   8.753   5.220  14.441
95209SOL    HW187460   8.709   5.303  14.456
95209SOL    HW287461   8.790   5.196  14.526
95210SOL     OW87462   5.723  10.809   6.815
95210SOL    HW187463   5.725  10.874   6.745
95210SOL    HW287464   5.804  10.825   6.865
95211SOL     OW87465   7.070   7.380  10.352
95211SOL    HW187466   6.980   7.358  10.327
95211SOL    HW287467   7.060   7.442  10.424
95212SOL     OW87468  14.165   0.621   4.833
95212SOL    HW187469  14.139   0.667   4.912
95212SOL    HW287470  14.089   0.566   4.811
95213SOL     OW87471   8.169   8.926   2.551
95213SOL    HW187472   8.188   8.920   2.458
95213SOL    HW287473   8.106   8.855   2.567
95214SOL     OW87474   1.218  11.146   9.398
95214SOL    HW187475   1.254  11.234   9.414
95214SOL    HW287476   1.161  11.157   9.322
95215SOL     OW87477   7.152   5.606  13.631
95215SOL    HW187478   7.188   5.676  13.686
95215SOL    HW287479   7.136   5.648  13.547
95216SOL     OW87480  14.805   8.766   3.834
95216SOL    HW187481  14.777   8.676   3.821
95216SOL    HW287482  14.724   8.814   3.853
95217SOL     OW87483  12.262   1.699  10.275
95217SOL    HW187484  12.280   1.629  10.337
95217SOL    HW287485  12.236   1.655  10.195
95218SOL     OW87486   9.386  10.036  10.820
95218SOL    HW187487   9.306  10.088  10.819
95218SOL    HW287488   9.456  10.098  10.799
95219SOL     OW87489   1.695  11.358  11.263
95219SOL    HW187490   1.737  11.298  11.325
95219SOL    HW287491   1.716  11.321  11.177
95220SOL     OW87492  11.376  11.124   8.696
95220SOL    HW187493  11.420  11.146   8.614
95220SOL    HW287494  11.424  11.172   8.763
95221SOL     OW87495  12.038   4.439   7.175
95221SOL    HW187496  11.957   4.483   7.149
95221SOL    HW287497  12.097   4.450   7.100
95222SOL     OW87498   1.787  10.300   9.524
95222SOL    HW187499   1.718  10.356   9.559
95222SOL    HW287500   1.745  10.252   9.452
95223SOL     OW87501   3.171  12.629   7.275
95223SOL    HW187502   3.251  12.647   7.326
95223SOL    HW287503   3.108  12.597   7.340
95224SOL     OW87504   1.467   3.921   9.932
95224SOL    HW187505   1.529   3.978   9.977
95224SOL    HW287506   1.493   3.832   9.957
95225SOL     OW87507   3.640   0.186   6.267
95225SOL    HW187508   3.584   0.265   6.269
95225SOL    HW287509   3.691   0.190   6.348
95226SOL     OW87510  10.993   6.868   8.550
95226SOL    HW187511  11.066   6.832   8.500
95226SOL    HW287512  11.008   6.962   8.549
95227SOL     OW87513   3.446   6.734   5.466
95227SOL    HW187514   3.439   6.653   5.517
95227SOL    HW287515   3.537   6.738   5.439
95228SOL     OW87516  11.902   4.631   3.931
95228SOL    HW187517  11.916   4.536   3.940
95228SOL    HW287518  11.968   4.658   3.867
95229SOL     OW87519  12.757   0.525   5.616
95229SOL    HW187520  12.848   0.495   5.625
95229SOL    HW287521  12.707   0.470   5.676
95230SOL     OW87522  10.114   0.460   6.500
95230SOL    HW187523  10.059   0.411   6.438
95230SOL    HW287524  10.054   0.521   6.543
95231SOL     OW87525   8.841   0.070   0.183
95231SOL    HW187526   8.778   0.080   0.254
95231SOL    HW287527   8.923   0.104   0.219
95232SOL     OW87528   0.533   3.021   9.529
95232SOL    HW187529   0.499   2.932   9.532
95232SOL    HW287530   0.563   3.032   9.439
95233SOL     OW87531   3.144   6.993   8.562
95233SOL    HW187532   3.083   7.049   8.609
95233SOL    HW287533   3.211   6.970   8.626
95234SOL     OW87534   3.044   0.403   1.435
95234SOL    HW187535   3.131   0.442   1.428
95234SOL    HW287536   3.018   0.385   1.345
95235SOL     OW87537   8.601   9.131   3.240
95235SOL    HW187538   8.694   9.138   3.259
95235SOL    HW287539   8.584   9.200   3.176
95236SOL     OW87540   8.153   7.339  13.680
95236SOL    HW187541   8.239   7.369  13.711
95236SOL    HW287542   8.131   7.399  13.609
95237SOL     OW87543   1.986   7.128   1.419
95237SOL    HW187544   1.902   7.172   1.424
95237SOL    HW287545   1.993   7.079   1.501
95238SOL     OW87546   6.761   3.383   9.588
95238SOL    HW187547   6.705   3.425   9.523
95238SOL    HW287548   6.811   3.455   9.627
95239SOL     OW87549   4.878  12.515   3.456
95239SOL    HW187550   4.922  12.600   3.448
95239SOL    HW287551   4.846  12.514   3.546
95240SOL     OW87552   2.498   3.573   5.443
95240SOL    HW187553   2.537   3.494   5.406
95240SOL    HW287554   2.409   3.574   5.407
95241SOL     OW87555   0.531   7.748   5.724
95241SOL    HW187556   0.440   7.777   5.725
95241SOL    HW287557   0.531   7.664   5.768
95242SOL     OW87558  11.442  11.669   3.440
95242SOL    HW187559  11.367  11.616   3.412
95242SOL    HW287560  11.448  11.655   3.534
95243SOL     OW87561  13.116  10.527  10.793
95243SOL    HW187562  13.172  10.603  10.810
95243SOL    HW287563  13.027  10.559  10.810
95244SOL     OW87564   6.879  14.790   4.326
95244SOL    HW187565   6.900  14.872   4.283
95244SOL    HW287566   6.956  14.735   4.312
95245SOL     OW87567  11.303   0.621  10.477
95245SOL    HW187568  11.209   0.628  10.498
95245SOL    HW287569  11.315   0.679  10.402
95246SOL     OW87570   2.499  11.257   2.636
95246SOL    HW187571   2.426  11.318   2.633
95246SOL    HW287572   2.567  11.304   2.685
95247SOL     OW87573  12.166   3.162   6.435
95247SOL    HW187574  12.239   3.218   6.460
95247SOL    HW287575  12.197   3.073   6.452
95248SOL     OW87576   2.774   3.066  14.774
95248SOL    HW187577   2.709   2.996  14.774
95248SOL    HW287578   2.830   3.047  14.849
95249SOL     OW87579   3.288  14.258   9.634
95249SOL    HW187580   3.194  14.239   9.628
95249SOL    HW287581   3.293  14.354   9.641
95250SOL     OW87582  11.879  13.815   0.736
95250SOL    HW187583  11.847  13.874   0.668
95250SOL    HW287584  11.859  13.727   0.702
95251SOL     OW87585   1.574   7.185  11.585
95251SOL    HW187586   1.566   7.280  11.584
95251SOL    HW287587   1.603   7.162  11.497
95252SOL     OW87588   4.656   7.715  11.021
95252SOL    HW187589   4.639   7.766  11.100
95252SOL    HW287590   4.661   7.780  10.951
95253SOL     OW87591  11.569   1.740  10.972
95253SOL    HW187592  11.617   1.658  10.960
95253SOL    HW287593  11.548   1.742  11.065
95254SOL     OW87594  13.789  11.444   7.523
95254SOL    HW187595  13.761  11.467   7.611
95254SOL    HW287596  13.800  11.349   7.525
95255SOL     OW87597   6.861  10.414   3.750
95255SOL    HW187598   6.782  10.465   3.766
95255SOL    HW287599   6.839  10.326   3.781
95256SOL     OW87600   8.961   2.844  11.861
95256SOL    HW187601   8.921   2.897  11.792
95256SOL    HW287602   8.888   2.797  11.900
95257SOL     OW87603   9.376  11.035   0.612
95257SOL    HW187604   9.437  11.099   0.577
95257SOL    HW287605   9.298  11.044   0.556
95258SOL     OW87606   5.972   2.492   9.933
95258SOL    HW187607   5.993   2.401   9.955
95258SOL    HW287608   6.049   2.524   9.887
95259SOL     OW87609  11.606   1.724  11.258
95259SOL    HW187610  11.637   1.686  11.341
95259SOL    HW287611  11.663   1.800  11.244
95260SOL     OW87612   3.749  13.235   9.011
95260SOL    HW187613   3.831  13.247   8.963
95260SOL    HW287614   3.772  13.178   9.084
95261SOL     OW87615   8.494  13.328  13.482
95261SOL    HW187616   8.472  13.239  13.453
95261SOL    HW287617   8.528  13.316  13.570
95262SOL     OW87618  14.473   5.363   1.884
95262SOL    HW187619  14.486   5.402   1.798
95262SOL    HW287620  14.518   5.423   1.944
95263SOL     OW87621  10.328   3.058  12.941
95263SOL    HW187622  10.331   3.118  13.015
95263SOL    HW287623  10.402   3.085  12.885
95264SOL     OW87624   3.091  14.504  14.797
95264SOL    HW187625   3.030  14.550  14.855
95264SOL    HW287626   3.162  14.566  14.784
95265SOL     OW87627   0.828   4.634  12.129
95265SOL    HW187628   0.802   4.720  12.094
95265SOL    HW287629   0.751   4.605  12.179
95266SOL     OW87630  12.203   4.799   7.502
95266SOL    HW187631  12.151   4.729   7.463
95266SOL    HW287632  12.292   4.782   7.473
95267SOL     OW87633  10.900   8.682   4.034
95267SOL    HW187634  10.991   8.689   4.065
95267SOL    HW287635  10.895   8.744   3.961
95268SOL     OW87636  13.285   5.567   3.307
95268SOL    HW187637  13.239   5.623   3.369
95268SOL    HW287638  13.304   5.624   3.232
95269SOL     OW87639  11.763   0.235   1.543
95269SOL    HW187640  11.734   0.166   1.603
95269SOL    HW287641  11.845   0.202   1.506
95270SOL     OW87642   2.810   1.042   7.663
95270SOL    HW187643   2.858   1.101   7.720
95270SOL    HW287644   2.757   0.988   7.722
95271SOL     OW87645  11.929   0.179   9.268
95271SOL    HW187646  12.011   0.156   9.224
95271SOL    HW287647  11.861   0.140   9.213
95272SOL     OW87648  12.931   0.141   1.769
95272SOL    HW187649  12.885   0.170   1.690
95272SOL    HW287650  12.994   0.076   1.738
95273SOL     OW87651  14.689  11.406  10.980
95273SOL    HW187652  14.759  11.471  10.986
95273SOL    HW287653  14.726  11.337  10.925
95274SOL     OW87654   7.599   7.433   0.564
95274SOL    HW187655   7.553   7.384   0.495
95274SOL    HW287656   7.595   7.376   0.641
95275SOL     OW87657  13.208  11.277  13.686
95275SOL    HW187658  13.269  11.231  13.628
95275SOL    HW287659  13.209  11.227  13.767
95276SOL     OW87660  13.608   7.436  14.070
95276SOL    HW187661  13.575   7.493  14.001
95276SOL    HW287662  13.583   7.348  14.042
95277SOL     OW87663  11.206  11.452   1.425
95277SOL    HW187664  11.185  11.506   1.349
95277SOL    HW287665  11.273  11.391   1.394
95278SOL     OW87666   2.578  10.758  12.948
95278SOL    HW187667   2.645  10.736  12.883
95278SOL    HW287668   2.579  10.683  13.008
95279SOL     OW87669   5.310   5.260  13.405
95279SOL    HW187670   5.310   5.248  13.310
95279SOL    HW287671   5.290   5.353  13.418
95280SOL     OW87672  12.707  14.362   8.556
95280SOL    HW187673  12.633  14.383   8.613
95280SOL    HW287674  12.740  14.447   8.526
95281SOL     OW87675  11.554   8.981   8.888
95281SOL    HW187676  11.592   9.069   8.885
95281SOL    HW287677  11.461   8.996   8.906
95282SOL     OW87678   8.387   9.848  13.967
95282SOL    HW187679   8.403   9.754  13.960
95282SOL    HW287680   8.292   9.855  13.980
95283SOL     OW87681  13.086   5.608  13.053
95283SOL    HW187682  13.131   5.531  13.088
95283SOL    HW287683  12.994   5.582  13.049
95284SOL     OW87684   5.053   1.836   4.455
95284SOL    HW187685   5.142   1.799   4.452
95284SOL    HW287686   4.999   1.771   4.411
95285SOL     OW87687   0.968  14.482   8.675
95285SOL    HW187688   1.009  14.474   8.589
95285SOL    HW287689   0.920  14.565   8.670
95286SOL     OW87690   0.634   2.067   0.953
95286SOL    HW187691   0.721   2.102   0.933
95286SOL    HW287692   0.641   1.974   0.934
95287SOL     OW87693   0.851   4.297  14.699
95287SOL    HW187694   0.889   4.231  14.641
95287SOL    HW287695   0.785   4.341  14.645
95288SOL     OW87696  14.861   6.566   3.156
95288SOL    HW187697   0.025   6.481   3.180
95288SOL    HW287698  14.811   6.549   3.077
95289SOL     OW87699   8.470   4.904   7.463
95289SOL    HW187700   8.430   4.964   7.525
95289SOL    HW287701   8.438   4.932   7.377
95290SOL     OW87702   0.158  14.356   5.853
95290SOL    HW187703   0.243  14.345   5.896
95290SOL    HW287704   0.176  14.344   5.760
95291SOL     OW87705   4.164   6.233   4.692
95291SOL    HW187706   4.152   6.319   4.734
95291SOL    HW287707   4.134   6.246   4.602
95292SOL     OW87708   2.786  12.791   0.618
95292SOL    HW187709   2.750  12.749   0.540
95292SOL    HW287710   2.828  12.870   0.587
95293SOL     OW87711   3.319   9.265  13.170
95293SOL    HW187712   3.318   9.342  13.114
95293SOL    HW287713   3.410   9.254  13.196
95294SOL     OW87714   8.920   2.534   8.644
95294SOL    HW187715   8.923   2.536   8.548
95294SOL    HW287716   8.854   2.467   8.664
95295SOL     OW87717   2.333  13.404  12.284
95295SOL    HW187718   2.283  13.341  12.233
95295SOL    HW287719   2.391  13.351  12.338
95296SOL     OW87720   3.729   4.214   5.617
95296SOL    HW187721   3.748   4.210   5.523
95296SOL    HW287722   3.707   4.306   5.633
95297SOL     OW87723  14.318   4.977   8.598
95297SOL    HW187724  14.308   4.954   8.690
95297SOL    HW287725  14.245   5.036   8.580
95298SOL     OW87726   7.272   9.057   0.525
95298SOL    HW187727   7.259   8.963   0.518
95298SOL    HW287728   7.297   9.085   0.437
95299SOL     OW87729  11.374   7.601   6.526
95299SOL    HW187730  11.427   7.610   6.605
95299SOL    HW287731  11.363   7.507   6.515
95300SOL     OW87732   7.366  12.671   7.678
95300SOL    HW187733   7.442  12.686   7.734
95300SOL    HW287734   7.291  12.684   7.737
95301SOL     OW87735   5.731   9.128   1.131
95301SOL    HW187736   5.811   9.097   1.089
95301SOL    HW287737   5.665   9.123   1.062
95302SOL     OW87738   1.340   7.531   0.004
95302SOL    HW187739   1.308   7.610   0.047
95302SOL    HW287740   1.339   7.552  14.783
95303SOL     OW87741   1.791   0.667  13.756
95303SOL    HW187742   1.782   0.760  13.776
95303SOL    HW287743   1.759   0.659  13.666
95304SOL     OW87744  10.063   3.459   5.242
95304SOL    HW187745  10.087   3.462   5.335
95304SOL    HW287746  10.001   3.386   5.236
95305SOL     OW87747   1.801   6.820  14.029
95305SOL    HW187748   1.790   6.726  14.039
95305SOL    HW287749   1.840   6.832  13.942
95306SOL     OW87750  10.379   4.098   7.185
95306SOL    HW187751  10.290   4.130   7.200
95306SOL    HW287752  10.387   4.093   7.090
95307SOL     OW87753   5.861   4.956   9.772
95307SOL    HW187754   5.782   4.983   9.819
95307SOL    HW287755   5.865   5.014   9.696
95308SOL     OW87756  14.671   5.349   6.782
95308SOL    HW187757  14.609   5.295   6.733
95308SOL    HW287758  14.678   5.306   6.867
95309SOL     OW87759   0.432   5.631   5.059
95309SOL    HW187760   0.442   5.567   4.989
95309SOL    HW287761   0.400   5.580   5.134
95310SOL     OW87762  12.051  14.844   2.948
95310SOL    HW187763  12.063   0.040   3.014
95310SOL    HW287764  11.956  14.840   2.934
95311SOL     OW87765   3.160   6.805   3.589
95311SOL    HW187766   3.131   6.816   3.680
95311SOL    HW287767   3.115   6.725   3.560
95312SOL     OW87768   9.240   2.779   0.192
95312SOL    HW187769   9.285   2.770   0.276
95312SOL    HW287770   9.311   2.796   0.129
95313SOL     OW87771   7.779   2.257  10.512
95313SOL    HW187772   7.702   2.313  10.499
95313SOL    HW287773   7.780   2.242  10.607
95314SOL     OW87774   1.944   6.804   4.488
95314SOL    HW187775   2.024   6.788   4.539
95314SOL    HW287776   1.963   6.768   4.401
95315SOL     OW87777   5.919   3.380   2.838
95315SOL    HW187778   6.004   3.362   2.880
95315SOL    HW287779   5.923   3.473   2.816
95316SOL     OW87780   3.920  10.581   7.775
95316SOL    HW187781   3.880  10.514   7.830
95316SOL    HW287782   3.965  10.532   7.706
95317SOL     OW87783   3.603   3.547   0.629
95317SOL    HW187784   3.532   3.553   0.693
95317SOL    HW287785   3.682   3.534   0.681
95318SOL     OW87786   4.993  13.225  13.688
95318SOL    HW187787   5.086  13.234  13.706
95318SOL    HW287788   4.952  13.300  13.731
95319SOL     OW87789   5.566  13.185   8.054
95319SOL    HW187790   5.535  13.098   8.078
95319SOL    HW287791   5.573  13.232   8.137
95320SOL     OW87792  10.135   3.760   1.465
95320SOL    HW187793  10.146   3.841   1.516
95320SOL    HW287794  10.206   3.763   1.400
95321SOL     OW87795  10.254   0.729   4.413
95321SOL    HW187796  10.179   0.670   4.419
95321SOL    HW287797  10.323   0.686   4.464
95322SOL     OW87798   7.861   6.918   5.607
95322SOL    HW187799   7.773   6.954   5.602
95322SOL    HW287800   7.883   6.894   5.517
95323SOL     OW87801   4.442  14.599   2.788
95323SOL    HW187802   4.361  14.649   2.774
95323SOL    HW287803   4.480  14.639   2.867
95324SOL     OW87804   8.137   1.872   0.344
95324SOL    HW187805   8.206   1.833   0.291
95324SOL    HW287806   8.180   1.941   0.394
95325SOL     OW87807   5.094   2.333   2.130
95325SOL    HW187808   5.156   2.266   2.157
95325SOL    HW287809   5.068   2.308   2.041
95326SOL     OW87810  12.920   4.639   5.488
95326SOL    HW187811  12.928   4.733   5.500
95326SOL    HW287812  12.925   4.627   5.393
95327SOL     OW87813  13.289   3.600   5.885
95327SOL    HW187814  13.273   3.521   5.937
95327SOL    HW287815  13.206   3.618   5.842
95328SOL     OW87816  12.665   5.416   1.786
95328SOL    HW187817  12.576   5.439   1.814
95328SOL    HW287818  12.712   5.398   1.868
95329SOL     OW87819   0.436   4.122  12.847
95329SOL    HW187820   0.471   4.161  12.767
95329SOL    HW287821   0.348   4.093  12.822
95330SOL     OW87822  10.503  11.921  11.043
95330SOL    HW187823  10.502  11.992  11.107
95330SOL    HW287824  10.559  11.854  11.082
95331SOL     OW87825  11.896   0.579   7.500
95331SOL    HW187826  11.923   0.487   7.496
95331SOL    HW287827  11.932   0.612   7.582
95332SOL     OW87828  10.940   9.913   6.335
95332SOL    HW187829  10.939   9.930   6.429
95332SOL    HW287830  10.852   9.881   6.315
95333SOL     OW87831   7.582   5.314   9.971
95333SOL    HW187832   7.635   5.297   9.893
95333SOL    HW287833   7.565   5.408   9.968
95334SOL     OW87834   8.130   3.425   5.353
95334SOL    HW187835   8.175   3.479   5.418
95334SOL    HW287836   8.039   3.453   5.357
95335SOL     OW87837  10.426   6.894   5.071
95335SOL    HW187838  10.456   6.964   5.013
95335SOL    HW287839  10.432   6.932   5.159
95336SOL     OW87840  10.978   4.332   9.980
95336SOL    HW187841  10.966   4.410   9.927
95336SOL    HW287842  10.898   4.281   9.967
95337SOL     OW87843  10.081   2.398   0.995
95337SOL    HW187844  10.031   2.477   0.975
95337SOL    HW287845  10.165   2.430   1.027
95338SOL     OW87846  12.642   7.382   2.726
95338SOL    HW187847  12.715   7.322   2.709
95338SOL    HW287848  12.564   7.332   2.705
95339SOL     OW87849   0.337  14.285   3.564
95339SOL    HW187850   0.431  14.295   3.580
95339SOL    HW287851   0.325  14.311   3.473
95340SOL     OW87852  14.183  12.820   6.124
95340SOL    HW187853  14.255  12.871   6.088
95340SOL    HW287854  14.163  12.861   6.208
95341SOL     OW87855   0.209  11.844   9.347
95341SOL    HW187856   0.118  11.822   9.367
95341SOL    HW287857   0.258  11.816   9.424
95342SOL     OW87858  11.737   5.224  13.448
95342SOL    HW187859  11.757   5.216  13.542
95342SOL    HW287860  11.764   5.312  13.425
95343SOL     OW87861  11.336   7.255   3.259
95343SOL    HW187862  11.327   7.326   3.323
95343SOL    HW287863  11.354   7.300   3.176
95344SOL     OW87864  13.272   7.937   8.716
95344SOL    HW187865  13.181   7.954   8.742
95344SOL    HW287866  13.280   7.842   8.718
95345SOL     OW87867   4.952  13.319   1.712
95345SOL    HW187868   4.883  13.376   1.679
95345SOL    HW287869   5.032  13.350   1.669
95346SOL     OW87870  13.624   8.082   3.741
95346SOL    HW187871  13.702   8.031   3.763
95346SOL    HW287872  13.660   8.166   3.709
95347SOL     OW87873   2.853   4.298   1.373
95347SOL    HW187874   2.933   4.313   1.423
95347SOL    HW287875   2.814   4.385   1.363
95348SOL     OW87876   9.753   5.686   7.242
95348SOL    HW187877   9.776   5.716   7.154
95348SOL    HW287878   9.822   5.722   7.298
95349SOL     OW87879  14.765  10.737   1.143
95349SOL    HW187880  14.817  10.658   1.132
95349SOL    HW287881  14.721  10.726   1.228
95350SOL     OW87882   8.987   9.623   0.971
95350SOL    HW187883   8.914   9.656   0.919
95350SOL    HW287884   9.034   9.701   0.999
95351SOL     OW87885   5.666   5.138  10.280
95351SOL    HW187886   5.727   5.067  10.262
95351SOL    HW287887   5.588   5.094  10.314
95352SOL     OW87888   1.102   3.445   1.340
95352SOL    HW187889   1.095   3.463   1.434
95352SOL    HW287890   1.011   3.436   1.311
95353SOL     OW87891   5.456   4.969   2.488
95353SOL    HW187892   5.394   5.026   2.443
95353SOL    HW287893   5.481   4.904   2.422
95354SOL     OW87894   6.323  10.459   3.697
95354SOL    HW187895   6.360  10.411   3.771
95354SOL    HW287896   6.287  10.392   3.640
95355SOL     OW87897   5.767   0.205   2.457
95355SOL    HW187898   5.764   0.110   2.453
95355SOL    HW287899   5.779   0.233   2.366
95356SOL     OW87900  14.235   1.741   0.386
95356SOL    HW187901  14.261   1.823   0.344
95356SOL    HW287902  14.298   1.676   0.354
95357SOL     OW87903   7.374   3.168   0.869
95357SOL    HW187904   7.312   3.200   0.804
95357SOL    HW287905   7.318   3.134   0.940
95358SOL     OW87906  13.821  11.732  13.465
95358SOL    HW187907  13.794  11.655  13.514
95358SOL    HW287908  13.775  11.805  13.507
95359SOL     OW87909  11.577  13.422  13.587
95359SOL    HW187910  11.576  13.512  13.555
95359SOL    HW287911  11.485  13.403  13.608
95360SOL     OW87912   4.734  13.217   1.489
95360SOL    HW187913   4.686  13.139   1.460
95360SOL    HW287914   4.721  13.219   1.584
95361SOL     OW87915  11.010   8.201   0.475
95361SOL    HW187916  11.100   8.180   0.497
95361SOL    HW287917  11.015   8.282   0.425
95362SOL     OW87918  14.765   0.392   9.768
95362SOL    HW187919  14.734   0.392   9.677
95362SOL    HW287920  14.692   0.355   9.818
95363SOL     OW87921   4.476   2.868   5.927
95363SOL    HW187922   4.410   2.854   5.859
95363SOL    HW287923   4.546   2.915   5.882
95364SOL     OW87924   5.504   9.060   7.377
95364SOL    HW187925   5.457   9.024   7.452
95364SOL    HW287926   5.441   9.054   7.304
95365SOL     OW87927  11.590   5.794   3.134
95365SOL    HW187928  11.673   5.749   3.152
95365SOL    HW287929  11.523   5.736   3.171
95366SOL     OW87930   2.723   8.624  10.884
95366SOL    HW187931   2.816   8.602  10.880
95366SOL    HW287932   2.721   8.719  10.890
95367SOL     OW87933   8.903   4.710  10.676
95367SOL    HW187934   8.934   4.756  10.598
95367SOL    HW287935   8.956   4.744  10.748
95368SOL     OW87936  10.791  14.094   4.090
95368SOL    HW187937  10.704  14.066   4.062
95368SOL    HW287938  10.780  14.185   4.116
95369SOL     OW87939   9.685   3.550   2.188
95369SOL    HW187940   9.766   3.547   2.239
95369SOL    HW287941   9.674   3.643   2.167
95370SOL     OW87942   9.905   1.946   7.351
95370SOL    HW187943   9.871   1.879   7.292
95370SOL    HW287944   9.928   2.020   7.294
95371SOL     OW87945   2.484   2.150  10.688
95371SOL    HW187946   2.568   2.191  10.670
95371SOL    HW287947   2.420   2.220  10.681
95372SOL     OW87948  11.975  14.673   1.686
95372SOL    HW187949  12.046  14.678   1.750
95372SOL    HW287950  12.017  14.694   1.602
95373SOL     OW87951  12.616   8.868  13.394
95373SOL    HW187952  12.700   8.884  13.437
95373SOL    HW287953  12.639   8.858  13.301
95374SOL     OW87954   6.042   4.072   2.732
95374SOL    HW187955   5.973   4.011   2.757
95374SOL    HW287956   6.014   4.156   2.769
95375SOL     OW87957   6.576  11.876   1.866
95375SOL    HW187958   6.486  11.851   1.888
95375SOL    HW287959   6.613  11.905   1.949
95376SOL     OW87960  11.507   5.131  14.645
95376SOL    HW187961  11.483   5.039  14.660
95376SOL    HW287962  11.459   5.180  14.712
95377SOL     OW87963   8.706  11.041   5.085
95377SOL    HW187964   8.612  11.038   5.106
95377SOL    HW287965   8.723  11.133   5.066
95378SOL     OW87966   4.075   4.132   4.064
95378SOL    HW187967   4.121   4.146   4.147
95378SOL    HW287968   4.035   4.045   4.073
95379SOL     OW87969   5.007   3.056   7.104
95379SOL    HW187970   4.950   3.001   7.157
95379SOL    HW287971   5.040   3.122   7.165
95380SOL     OW87972   6.920   1.199   6.228
95380SOL    HW187973   6.826   1.182   6.219
95380SOL    HW287974   6.959   1.112   6.240
95381SOL     OW87975   9.879   5.791   6.999
95381SOL    HW187976   9.918   5.873   7.032
95381SOL    HW287977   9.869   5.806   6.905
95382SOL     OW87978   3.398   1.476   0.532
95382SOL    HW187979   3.348   1.548   0.493
95382SOL    HW287980   3.354   1.397   0.500
95383SOL     OW87981   6.166  11.792   5.808
95383SOL    HW187982   6.151  11.702   5.779
95383SOL    HW287983   6.176  11.784   5.903
95384SOL     OW87984   7.154   4.559  12.435
95384SOL    HW187985   7.135   4.648  12.465
95384SOL    HW287986   7.226   4.570  12.372
95385SOL     OW87987  12.693   9.008   3.686
95385SOL    HW187988  12.627   8.990   3.753
95385SOL    HW287989  12.657   8.968   3.607
95386SOL     OW87990  12.404  12.234  14.693
95386SOL    HW187991  12.475  12.258  14.752
95386SOL    HW287992  12.375  12.148  14.724
95387SOL     OW87993   0.513  14.692   4.362
95387SOL    HW187994   0.463  14.728   4.289
95387SOL    HW287995   0.447  14.650   4.418
95388SOL     OW87996  11.037   6.139  13.136
95388SOL    HW187997  10.980   6.125  13.060
95388SOL    HW287998  10.982   6.119  13.212
95389SOL     OW87999   3.886   5.042  13.882
95389SOL    HW188000   3.850   4.953  13.889
95389SOL    HW288001   3.838   5.081  13.809
95390SOL     OW88002  11.883  12.645   7.359
95390SOL    HW188003  11.807  12.659   7.302
95390SOL    HW288004  11.847  12.602   7.437
95391SOL     OW88005   0.761   0.260   5.324
95391SOL    HW188006   0.668   0.284   5.328
95391SOL    HW288007   0.762   0.166   5.340
95392SOL     OW88008   8.357   5.649  12.517
95392SOL    HW188009   8.351   5.600  12.435
95392SOL    HW288010   8.423   5.603  12.568
95393SOL     OW88011   7.813   3.838   5.606
95393SOL    HW188012   7.864   3.784   5.546
95393SOL    HW288013   7.874   3.906   5.634
95394SOL     OW88014   9.133   8.050   3.263
95394SOL    HW188015   9.131   8.055   3.358
95394SOL    HW288016   9.067   8.113   3.234
95395SOL     OW88017   9.469   5.114   5.969
95395SOL    HW188018   9.387   5.139   5.926
95395SOL    HW288019   9.537   5.160   5.920
95396SOL     OW88020   7.774   0.052   2.671
95396SOL    HW188021   7.796  14.833   2.657
95396SOL    HW288022   7.793   0.068   2.763
95397SOL     OW88023   9.081   4.303  12.737
95397SOL    HW188024   9.002   4.305  12.791
95397SOL    HW288025   9.060   4.246  12.663
95398SOL     OW88026   6.904   0.598  14.175
95398SOL    HW188027   6.998   0.610  14.189
95398SOL    HW288028   6.897   0.511  14.135
95399SOL     OW88029  14.035  11.148   1.771
95399SOL    HW188030  14.129  11.164   1.760
95399SOL    HW288031  14.029  11.095   1.850
95400SOL     OW88032   1.693   0.938   7.656
95400SOL    HW188033   1.779   0.971   7.631
95400SOL    HW288034   1.710   0.874   7.724
95401SOL     OW88035   3.736   1.060   9.937
95401SOL    HW188036   3.750   1.151   9.911
95401SOL    HW288037   3.824   1.025   9.948
95402SOL     OW88038   2.651   2.020   7.058
95402SOL    HW188039   2.622   2.109   7.081
95402SOL    HW288040   2.571   1.968   7.058
95403SOL     OW88041   3.954   2.226  11.323
95403SOL    HW188042   3.894   2.185  11.261
95403SOL    HW288043   3.902   2.296  11.364
95404SOL     OW88044   9.680   4.429   5.166
95404SOL    HW188045   9.722   4.377   5.235
95404SOL    HW288046   9.745   4.434   5.096
95405SOL     OW88047   0.234   0.188   9.274
95405SOL    HW188048   0.271   0.100   9.265
95405SOL    HW288049   0.238   0.206   9.368
95406SOL     OW88050  10.638   8.601   3.722
95406SOL    HW188051  10.551   8.594   3.762
95406SOL    HW288052  10.628   8.666   3.653
95407SOL     OW88053  11.413   1.250  14.272
95407SOL    HW188054  11.391   1.342  14.257
95407SOL    HW288055  11.341   1.201  14.233
95408SOL     OW88056  14.041  14.180   8.177
95408SOL    HW188057  14.132  14.195   8.202
95408SOL    HW288058  14.005  14.127   8.249
95409SOL     OW88059   8.958   0.259   3.479
95409SOL    HW188060   9.048   0.234   3.457
95409SOL    HW288061   8.952   0.351   3.454
95410SOL     OW88062  10.815   3.574   1.763
95410SOL    HW188063  10.776   3.633   1.699
95410SOL    HW288064  10.822   3.626   1.843
95411SOL     OW88065  13.056  10.659  12.133
95411SOL    HW188066  13.087  10.630  12.046
95411SOL    HW288067  12.978  10.711  12.114
95412SOL     OW88068   9.776  11.516  12.556
95412SOL    HW188069   9.784  11.574  12.480
95412SOL    HW288070   9.826  11.438  12.532
95413SOL     OW88071   7.617   9.674   8.545
95413SOL    HW188072   7.577   9.587   8.543
95413SOL    HW288073   7.573   9.723   8.476
95414SOL     OW88074  10.721   2.275  13.019
95414SOL    HW188075  10.695   2.282  12.927
95414SOL    HW288076  10.813   2.250  13.016
95415SOL     OW88077   3.809   3.762   3.393
95415SOL    HW188078   3.895   3.751   3.435
95415SOL    HW288079   3.817   3.843   3.343
95416SOL     OW88080   3.110   1.624   5.354
95416SOL    HW188081   3.162   1.608   5.275
95416SOL    HW288082   3.122   1.717   5.371
95417SOL     OW88083   4.119   8.397   8.019
95417SOL    HW188084   4.027   8.375   8.010
95417SOL    HW288085   4.149   8.412   7.929
95418SOL     OW88086  10.559   2.909   5.091
95418SOL    HW188087  10.613   2.987   5.083
95418SOL    HW288088  10.572   2.880   5.182
95419SOL     OW88089   5.757   9.994   0.778
95419SOL    HW188090   5.738  10.059   0.709
95419SOL    HW288091   5.793   9.919   0.731
95420SOL     OW88092  12.473   5.584   9.705
95420SOL    HW188093  12.516   5.554   9.785
95420SOL    HW288094  12.398   5.635   9.736
95421SOL     OW88095   1.747  11.046   7.133
95421SOL    HW188096   1.768  10.954   7.152
95421SOL    HW288097   1.777  11.060   7.044
95422SOL     OW88098  11.595   6.831  13.541
95422SOL    HW188099  11.689   6.835  13.559
95422SOL    HW288100  11.587   6.772  13.465
95423SOL     OW88101   5.549   9.598   0.726
95423SOL    HW188102   5.482   9.665   0.711
95423SOL    HW288103   5.621   9.623   0.668
95424SOL     OW88104   1.364  14.826  14.211
95424SOL    HW188105   1.399  14.775  14.284
95424SOL    HW288106   1.367   0.044  14.241
95425SOL     OW88107   0.595   9.968   1.688
95425SOL    HW188108   0.604  10.030   1.615
95425SOL    HW288109   0.618  10.019   1.765
95426SOL     OW88110   6.621   2.446   3.402
95426SOL    HW188111   6.648   2.355   3.415
95426SOL    HW288112   6.526   2.445   3.416
95427SOL     OW88113   9.884   7.825   3.958
95427SOL    HW188114   9.974   7.857   3.963
95427SOL    HW288115   9.851   7.834   4.047
95428SOL     OW88116   3.416   6.019   0.064
95428SOL    HW188117   3.354   5.957   0.025
95428SOL    HW288118   3.430   6.084  14.868
95429SOL     OW88119   4.335   3.827  14.195
95429SOL    HW188120   4.322   3.741  14.237
95429SOL    HW288121   4.402   3.869  14.248
95430SOL     OW88122  12.150   0.372   8.938
95430SOL    HW188123  12.222   0.419   8.979
95430SOL    HW288124  12.156   0.394   8.845
95431SOL     OW88125  11.921   9.497  12.061
95431SOL    HW188126  11.954   9.558  12.126
95431SOL    HW288127  11.844   9.457  12.103
95432SOL     OW88128   2.765   7.964   2.477
95432SOL    HW188129   2.734   7.923   2.558
95432SOL    HW288130   2.692   8.018   2.448
95433SOL     OW88131   6.192   2.037   7.287
95433SOL    HW188132   6.212   1.952   7.326
95433SOL    HW288133   6.189   2.019   7.193
95434SOL     OW88134  11.326   0.278   9.756
95434SOL    HW188135  11.339   0.197   9.707
95434SOL    HW288136  11.285   0.337   9.693
95435SOL     OW88137   1.445   8.702   4.939
95435SOL    HW188138   1.501   8.780   4.938
95435SOL    HW288139   1.454   8.665   4.851
95436SOL     OW88140   6.874   2.333   6.804
95436SOL    HW188141   6.829   2.270   6.860
95436SOL    HW288142   6.954   2.287   6.777
95437SOL     OW88143  11.694  12.405  14.619
95437SOL    HW188144  11.679  12.468  14.690
95437SOL    HW288145  11.738  12.331  14.660
95438SOL     OW88146   3.222   8.349   5.991
95438SOL    HW188147   3.264   8.434   5.978
95438SOL    HW288148   3.196   8.350   6.083
95439SOL     OW88149  10.893  13.747   1.437
95439SOL    HW188150  10.804  13.780   1.448
95439SOL    HW288151  10.943  13.822   1.407
95440SOL     OW88152   0.041  13.458   7.421
95440SOL    HW188153   0.116  13.517   7.411
95440SOL    HW288154   0.020  13.461   7.515
95441SOL     OW88155  12.125   8.100   3.145
95441SOL    HW188156  12.056   8.130   3.204
95441SOL    HW288157  12.203   8.150   3.171
95442SOL     OW88158   8.231  11.655   0.815
95442SOL    HW188159   8.177  11.602   0.757
95442SOL    HW288160   8.203  11.745   0.798
95443SOL     OW88161  14.429   7.083   0.161
95443SOL    HW188162  14.351   7.080   0.105
95443SOL    HW288163  14.404   7.035   0.240
95444SOL     OW88164  10.264  10.935   8.145
95444SOL    HW188165  10.333  10.869   8.148
95444SOL    HW288166  10.188  10.892   8.184
95445SOL     OW88167   2.871   3.753   0.950
95445SOL    HW188168   2.934   3.755   0.878
95445SOL    HW288169   2.802   3.693   0.921
95446SOL     OW88170   8.038   7.750   2.470
95446SOL    HW188171   7.957   7.775   2.426
95446SOL    HW288172   8.053   7.820   2.534
95447SOL     OW88173  14.186  14.436   9.384
95447SOL    HW188174  14.208  14.523   9.351
95447SOL    HW288175  14.092  14.440   9.400
95448SOL     OW88176   8.454   3.394   0.250
95448SOL    HW188177   8.387   3.378   0.318
95448SOL    HW288178   8.468   3.308   0.210
95449SOL     OW88179   0.635   4.680   6.941
95449SOL    HW188180   0.698   4.619   6.903
95449SOL    HW288181   0.555   4.628   6.952
95450SOL     OW88182   2.363   0.737  10.091
95450SOL    HW188183   2.287   0.694  10.131
95450SOL    HW288184   2.415   0.767  10.166
95451SOL     OW88185  14.709  12.361   7.137
95451SOL    HW188186  14.681  12.270   7.123
95451SOL    HW288187  14.772  12.378   7.067
95452SOL     OW88188  11.245  13.884   0.340
95452SOL    HW188189  11.315  13.913   0.281
95452SOL    HW288190  11.200  13.816   0.290
95453SOL     OW88191   3.810   1.441  10.809
95453SOL    HW188192   3.838   1.387  10.883
95453SOL    HW288193   3.772   1.379  10.747
95454SOL     OW88194   0.277   8.036   2.778
95454SOL    HW188195   0.288   8.095   2.853
95454SOL    HW288196   0.182   8.020   2.775
95455SOL     OW88197   1.124  12.796   6.908
95455SOL    HW188198   1.116  12.884   6.871
95455SOL    HW288199   1.044  12.784   6.959
95456SOL     OW88200   7.203   0.373   3.600
95456SOL    HW188201   7.141   0.379   3.528
95456SOL    HW288202   7.261   0.449   3.588
95457SOL     OW88203  12.748  10.236  13.033
95457SOL    HW188204  12.749  10.297  13.107
95457SOL    HW288205  12.694  10.163  13.064
95458SOL     OW88206   8.506   4.643  14.072
95458SOL    HW188207   8.473   4.558  14.044
95458SOL    HW288208   8.433   4.683  14.120
95459SOL     OW88209  11.141   3.867  11.410
95459SOL    HW188210  11.150   3.816  11.491
95459SOL    HW288211  11.148   3.802  11.340
95460SOL     OW88212   9.442   3.284   3.843
95460SOL    HW188213   9.444   3.196   3.807
95460SOL    HW288214   9.445   3.272   3.938
95461SOL     OW88215   3.903   5.787   1.911
95461SOL    HW188216   3.840   5.718   1.927
95461SOL    HW288217   3.978   5.766   1.967
95462SOL     OW88218   2.309  10.506   4.356
95462SOL    HW188219   2.250  10.549   4.418
95462SOL    HW288220   2.356  10.441   4.408
95463SOL     OW88221   0.615  13.261   4.755
95463SOL    HW188222   0.584  13.234   4.841
95463SOL    HW288223   0.554  13.329   4.728
95464SOL     OW88224   9.732   9.909   0.621
95464SOL    HW188225   9.755   9.824   0.584
95464SOL    HW288226   9.791   9.970   0.577
95465SOL     OW88227  10.338   6.047   7.363
95465SOL    HW188228  10.386   6.053   7.445
95465SOL    HW288229  10.300   5.959   7.363
95466SOL     OW88230  13.092   2.951   0.428
95466SOL    HW188231  13.110   2.872   0.376
95466SOL    HW288232  13.105   2.922   0.518
95467SOL     OW88233  12.028   8.882   7.228
95467SOL    HW188234  12.028   8.798   7.182
95467SOL    HW288235  12.048   8.859   7.319
95468SOL     OW88236   2.215   7.698   4.343
95468SOL    HW188237   2.144   7.661   4.290
95468SOL    HW288238   2.170   7.752   4.409
95469SOL     OW88239  13.945  12.051  12.536
95469SOL    HW188240  13.985  12.097  12.610
95469SOL    HW288241  13.925  11.963  12.570
95470SOL     OW88242   4.354   6.797   1.300
95470SOL    HW188243   4.310   6.875   1.335
95470SOL    HW288244   4.416   6.831   1.236
95471SOL     OW88245  14.553   4.075   4.784
95471SOL    HW188246  14.522   4.147   4.839
95471SOL    HW288247  14.480   4.012   4.783
95472SOL     OW88248   7.013  14.115   7.835
95472SOL    HW188249   7.047  14.167   7.908
95472SOL    HW288250   6.948  14.057   7.875
95473SOL     OW88251  11.613   4.106  14.427
95473SOL    HW188252  11.571   4.054  14.496
95473SOL    HW288253  11.701   4.124  14.461
95474SOL     OW88254  10.540   1.189   0.181
95474SOL    HW188255  10.526   1.194   0.275
95474SOL    HW288256  10.635   1.200   0.171
95475SOL     OW88257  10.064  12.182   0.549
95475SOL    HW188258  10.039  12.097   0.513
95475SOL    HW288259  10.023  12.246   0.490
95476SOL     OW88260  12.536   0.188  13.537
95476SOL    HW188261  12.442   0.176  13.520
95476SOL    HW288262  12.574   0.101  13.524
95477SOL     OW88263   9.062   4.909   5.278
95477SOL    HW188264   9.018   4.850   5.216
95477SOL    HW288265   9.042   4.873   5.364
95478SOL     OW88266  12.853   3.916   3.680
95478SOL    HW188267  12.762   3.923   3.653
95478SOL    HW288268  12.890   4.003   3.667
95479SOL     OW88269   7.902  10.070   5.857
95479SOL    HW188270   7.920  10.164   5.851
95479SOL    HW288271   7.973  10.030   5.806
95480SOL     OW88272  13.549   2.831   0.995
95480SOL    HW188273  13.617   2.887   1.033
95480SOL    HW288274  13.467   2.866   1.032
95481SOL     OW88275  11.563   2.655   4.464
95481SOL    HW188276  11.555   2.560   4.452
95481SOL    HW288277  11.552   2.669   4.558
95482SOL     OW88278   6.500   4.540   6.034
95482SOL    HW188279   6.537   4.535   6.122
95482SOL    HW288280   6.442   4.464   6.028
95483SOL     OW88281  14.733  13.011  10.702
95483SOL    HW188282  14.668  13.037  10.637
95483SOL    HW288283  14.797  12.959  10.653
95484SOL     OW88284   6.642  12.085   4.147
95484SOL    HW188285   6.713  12.087   4.082
95484SOL    HW288286   6.577  12.025   4.109
95485SOL     OW88287   8.729   7.885   6.807
95485SOL    HW188288   8.708   7.792   6.821
95485SOL    HW288289   8.806   7.883   6.750
95486SOL     OW88290   7.401  12.549   7.430
95486SOL    HW188291   7.306  12.539   7.420
95486SOL    HW288292   7.412  12.585   7.518
95487SOL     OW88293   9.168   5.826  12.201
95487SOL    HW188294   9.125   5.910  12.180
95487SOL    HW288295   9.220   5.806  12.123
95488SOL     OW88296   4.776   5.100  12.896
95488SOL    HW188297   4.811   5.012  12.909
95488SOL    HW288298   4.756   5.131  12.985
95489SOL     OW88299  14.042   7.253  12.750
95489SOL    HW188300  14.131   7.284  12.732
95489SOL    HW288301  14.016   7.208  12.670
95490SOL     OW88302   2.358   3.964   5.831
95490SOL    HW188303   2.314   3.923   5.757
95490SOL    HW288304   2.338   3.906   5.905
95491SOL     OW88305   6.711   6.941  13.123
95491SOL    HW188306   6.789   6.943  13.178
95491SOL    HW288307   6.741   6.973  13.038
95492SOL     OW88308  12.367  11.749   6.602
95492SOL    HW188309  12.414  11.671   6.632
95492SOL    HW288310  12.408  11.772   6.519
95493SOL     OW88311   9.968   4.167  10.423
95493SOL    HW188312   9.918   4.094  10.459
95493SOL    HW288313  10.007   4.132  10.343
95494SOL     OW88314   6.652   8.571   9.688
95494SOL    HW188315   6.558   8.584   9.690
95494SOL    HW288316   6.686   8.643   9.635
95495SOL     OW88317  13.525  14.045   7.690
95495SOL    HW188318  13.517  14.067   7.783
95495SOL    HW288319  13.568  14.122   7.651
95496SOL     OW88320   4.765  10.771  12.943
95496SOL    HW188321   4.716  10.788  13.024
95496SOL    HW288322   4.768  10.856  12.899
95497SOL     OW88323   1.260   5.713  10.848
95497SOL    HW188324   1.250   5.808  10.834
95497SOL    HW288325   1.352   5.703  10.874
95498SOL     OW88326  11.443   6.555   9.281
95498SOL    HW188327  11.506   6.617   9.243
95498SOL    HW288328  11.493   6.474   9.292
95499SOL     OW88329   9.813   2.956  10.466
95499SOL    HW188330   9.811   2.967  10.371
95499SOL    HW288331   9.735   2.905  10.486
95500SOL     OW88332   8.770   9.214   4.851
95500SOL    HW188333   8.832   9.169   4.908
95500SOL    HW288334   8.771   9.163   4.769
95501SOL     OW88335   2.215   5.231   6.565
95501SOL    HW188336   2.279   5.169   6.532
95501SOL    HW288337   2.225   5.308   6.509
95502SOL     OW88338   7.343   2.786  13.727
95502SOL    HW188339   7.401   2.844  13.778
95502SOL    HW288340   7.293   2.738  13.792
95503SOL     OW88341  10.205   3.220  14.637
95503SOL    HW188342  10.167   3.171  14.564
95503SOL    HW288343  10.288   3.175  14.654
95504SOL     OW88344   4.977   7.156  10.197
95504SOL    HW188345   5.053   7.206  10.226
95504SOL    HW288346   4.902   7.211  10.221
95505SOL     OW88347  12.879  10.985  11.035
95505SOL    HW188348  12.966  11.022  11.017
95505SOL    HW288349  12.829  11.002  10.956
95506SOL     OW88350  13.641   6.839  10.852
95506SOL    HW188351  13.609   6.907  10.912
95506SOL    HW288352  13.580   6.767  10.863
95507SOL     OW88353   5.860   9.646  11.971
95507SOL    HW188354   5.868   9.553  11.952
95507SOL    HW288355   5.920   9.661  12.043
95508SOL     OW88356   2.846   1.196   4.362
95508SOL    HW188357   2.783   1.125   4.349
95508SOL    HW288358   2.903   1.192   4.286
95509SOL     OW88359   2.278  12.947   4.762
95509SOL    HW188360   2.247  12.931   4.673
95509SOL    HW288361   2.198  12.957   4.814
95510SOL     OW88362   7.903   9.299   6.619
95510SOL    HW188363   7.840   9.310   6.548
95510SOL    HW288364   7.852   9.266   6.692
95511SOL     OW88365   4.701   0.845   6.602
95511SOL    HW188366   4.749   0.873   6.679
95511SOL    HW288367   4.672   0.926   6.560
95512SOL     OW88368  12.301  10.718  12.973
95512SOL    HW188369  12.295  10.813  12.981
95512SOL    HW288370  12.213  10.689  12.948
95513SOL     OW88371   2.300  10.611   9.321
95513SOL    HW188372   2.352  10.571   9.251
95513SOL    HW288373   2.258  10.537   9.365
95514SOL     OW88374  14.776  11.219   5.412
95514SOL    HW188375  14.832  11.284   5.369
95514SOL    HW288376  14.691  11.228   5.369
95515SOL     OW88377   9.164   6.543  13.681
95515SOL    HW188378   9.158   6.637  13.666
95515SOL    HW288379   9.257   6.527  13.697
95516SOL     OW88380   0.456   9.284   3.038
95516SOL    HW188381   0.369   9.259   3.070
95516SOL    HW288382   0.452   9.270   2.944
95517SOL     OW88383  11.846   5.173   9.905
95517SOL    HW188384  11.871   5.206   9.991
95517SOL    HW288385  11.775   5.110   9.924
95518SOL     OW88386   4.251  11.870   9.087
95518SOL    HW188387   4.298  11.797   9.128
95518SOL    HW288388   4.309  11.900   9.017
95519SOL     OW88389   1.119   2.536  12.795
95519SOL    HW188390   1.179   2.548  12.722
95519SOL    HW288391   1.082   2.448  12.782
95520SOL     OW88392   4.359  14.178   1.969
95520SOL    HW188393   4.440  14.217   1.939
95520SOL    HW288394   4.299  14.188   1.895
95521SOL     OW88395   7.236  14.307   6.990
95521SOL    HW188396   7.166  14.370   7.006
95521SOL    HW288397   7.313  14.361   6.972
95522SOL     OW88398   6.569   1.017  10.738
95522SOL    HW188399   6.541   0.988  10.825
95522SOL    HW288400   6.665   1.014  10.742
95523SOL     OW88401  12.177   3.243   5.830
95523SOL    HW188402  12.184   3.198   5.746
95523SOL    HW288403  12.260   3.224   5.875
95524SOL     OW88404  14.099   3.627   5.850
95524SOL    HW188405  14.148   3.689   5.905
95524SOL    HW288406  14.077   3.677   5.772
95525SOL     OW88407  10.783  13.658   5.622
95525SOL    HW188408  10.720  13.714   5.577
95525SOL    HW288409  10.842  13.719   5.666
95526SOL     OW88410   5.940   7.624   3.390
95526SOL    HW188411   5.973   7.657   3.473
95526SOL    HW288412   5.886   7.549   3.414
95527SOL     OW88413   3.647   9.582  10.058
95527SOL    HW188414   3.560   9.612  10.084
95527SOL    HW288415   3.643   9.573   9.963
95528SOL     OW88416   3.057   8.978  11.190
95528SOL    HW188417   3.048   9.001  11.283
95528SOL    HW288418   3.113   9.046  11.154
95529SOL     OW88419  13.942  13.561   1.180
95529SOL    HW188420  14.013  13.548   1.243
95529SOL    HW288421  13.888  13.483   1.190
95530SOL     OW88422  14.535  10.236   3.122
95530SOL    HW188423  14.504  10.147   3.106
95530SOL    HW288424  14.509  10.255   3.212
95531SOL     OW88425   0.815   6.226  13.365
95531SOL    HW188426   0.901   6.266  13.353
95531SOL    HW288427   0.779   6.270  13.443
95532SOL     OW88428   7.541  14.380   4.777
95532SOL    HW188429   7.635  14.365   4.763
95532SOL    HW288430   7.536  14.472   4.804
95533SOL     OW88431   4.373   5.196   2.790
95533SOL    HW188432   4.303   5.260   2.782
95533SOL    HW288433   4.426   5.228   2.864
95534SOL     OW88434   0.093  12.182  14.518
95534SOL    HW188435   0.052  12.234  14.450
95534SOL    HW288436   0.029  12.179  14.589
95535SOL     OW88437   5.814   9.356  11.838
95535SOL    HW188438   5.831   9.263  11.823
95535SOL    HW288439   5.775   9.386  11.756
95536SOL     OW88440   3.381   6.137   4.627
95536SOL    HW188441   3.445   6.066   4.622
95536SOL    HW288442   3.433   6.215   4.646
95537SOL     OW88443   9.509   5.068  14.488
95537SOL    HW188444   9.542   5.144  14.537
95537SOL    HW288445   9.470   5.106  14.409
95538SOL     OW88446  10.123  12.216   4.988
95538SOL    HW188447  10.147  12.234   5.079
95538SOL    HW288448  10.032  12.244   4.980
95539SOL     OW88449   7.233  12.769   4.116
95539SOL    HW188450   7.200  12.849   4.076
95539SOL    HW288451   7.166  12.745   4.181
95540SOL     OW88452   6.120   7.330   9.377
95540SOL    HW188453   6.034   7.372   9.377
95540SOL    HW288454   6.169   7.376   9.309
95541SOL     OW88455   3.353   1.164  13.160
95541SOL    HW188456   3.314   1.098  13.218
95541SOL    HW288457   3.436   1.187  13.202
95542SOL     OW88458   3.981   8.623   2.173
95542SOL    HW188459   3.961   8.599   2.083
95542SOL    HW288460   4.074   8.647   2.171
95543SOL     OW88461  11.573  12.077   9.055
95543SOL    HW188462  11.633  12.126   8.999
95543SOL    HW288463  11.486  12.101   9.024
95544SOL     OW88464  12.092  10.874   2.660
95544SOL    HW188465  12.039  10.861   2.738
95544SOL    HW288466  12.084  10.967   2.640
95545SOL     OW88467   3.140   3.676   3.392
95545SOL    HW188468   3.084   3.752   3.407
95545SOL    HW288469   3.154   3.639   3.480
95546SOL     OW88470  12.104  14.687   6.809
95546SOL    HW188471  12.130  14.661   6.721
95546SOL    HW288472  12.010  14.707   6.801
95547SOL     OW88473   8.680   0.250   6.649
95547SOL    HW188474   8.699   0.309   6.721
95547SOL    HW288475   8.765   0.219   6.619
95548SOL     OW88476  13.663  10.217   3.859
95548SOL    HW188477  13.747  10.257   3.879
95548SOL    HW288478  13.604  10.291   3.845
95549SOL     OW88479   1.555  10.228  14.597
95549SOL    HW188480   1.556  10.152  14.655
95549SOL    HW288481   1.611  10.204  14.523
95550SOL     OW88482   7.893  10.381   7.763
95550SOL    HW188483   7.890  10.327   7.684
95550SOL    HW288484   7.940  10.328   7.827
95551SOL     OW88485   8.351   8.177   4.351
95551SOL    HW188486   8.275   8.210   4.398
95551SOL    HW288487   8.417   8.247   4.360
95552SOL     OW88488  12.227   0.364   7.527
95552SOL    HW188489  12.308   0.351   7.576
95552SOL    HW288490  12.238   0.447   7.482
95553SOL     OW88491  13.850   2.660   5.201
95553SOL    HW188492  13.867   2.708   5.120
95553SOL    HW288493  13.806   2.580   5.172
95554SOL     OW88494   6.097   5.180   9.480
95554SOL    HW188495   6.058   5.163   9.394
95554SOL    HW288496   6.147   5.101   9.500
95555SOL     OW88497   5.778  10.862  12.577
95555SOL    HW188498   5.814  10.776  12.600
95555SOL    HW288499   5.808  10.877  12.487
95556SOL     OW88500   3.801   1.828   1.404
95556SOL    HW188501   3.802   1.855   1.312
95556SOL    HW288502   3.737   1.757   1.407
95557SOL     OW88503   9.481   4.412   2.776
95557SOL    HW188504   9.495   4.480   2.710
95557SOL    HW288505   9.400   4.369   2.749
95558SOL     OW88506   0.176   0.117   0.341
95558SOL    HW188507   0.180   0.209   0.367
95558SOL    HW288508   0.083   0.097   0.334
95559SOL     OW88509   5.532   3.452  10.269
95559SOL    HW188510   5.594   3.486  10.333
95559SOL    HW288511   5.583   3.444  10.188
95560SOL     OW88512  10.873  13.365   6.139
95560SOL    HW188513  10.784  13.329   6.134
95560SOL    HW288514  10.875  13.434   6.073
95561SOL     OW88515   8.056   8.522   2.579
95561SOL    HW188516   8.010   8.603   2.603
95561SOL    HW288517   8.034   8.461   2.648
95562SOL     OW88518   9.020   6.759   8.606
95562SOL    HW188519   9.001   6.782   8.515
95562SOL    HW288520   9.090   6.694   8.601
95563SOL     OW88521  14.270  10.903  10.032
95563SOL    HW188522  14.275  10.807  10.034
95563SOL    HW288523  14.361  10.932  10.044
95564SOL     OW88524   3.984  10.668  13.687
95564SOL    HW188525   3.973  10.629  13.600
95564SOL    HW288526   3.908  10.724  13.698
95565SOL     OW88527  10.834  12.573   4.759
95565SOL    HW188528  10.795  12.650   4.716
95565SOL    HW288529  10.873  12.608   4.840
95566SOL     OW88530  11.284  12.477   0.819
95566SOL    HW188531  11.331  12.434   0.747
95566SOL    HW288532  11.313  12.430   0.897
95567SOL     OW88533   7.531   9.959   0.158
95567SOL    HW188534   7.609  10.003   0.124
95567SOL    HW288535   7.550   9.945   0.250
95568SOL     OW88536  12.924   2.732  13.847
95568SOL    HW188537  12.990   2.798  13.867
95568SOL    HW288538  12.966   2.648  13.865
95569SOL     OW88539   4.203   6.274   1.810
95569SOL    HW188540   4.118   6.308   1.837
95569SOL    HW288541   4.266   6.340   1.838
95570SOL     OW88542   3.370   6.189   1.410
95570SOL    HW188543   3.382   6.234   1.494
95570SOL    HW288544   3.308   6.244   1.362
95571SOL     OW88545   7.969   5.799   2.092
95571SOL    HW188546   7.937   5.816   2.181
95571SOL    HW288547   8.007   5.883   2.064
95572SOL     OW88548   9.305   5.372   2.919
95572SOL    HW188549   9.277   5.463   2.929
95572SOL    HW288550   9.256   5.324   2.986
95573SOL     OW88551   1.614  10.134   0.174
95573SOL    HW188552   1.585  10.211   0.223
95573SOL    HW288553   1.709  10.145   0.167
95574SOL     OW88554   2.261   8.978  13.655
95574SOL    HW188555   2.237   8.900  13.604
95574SOL    HW288556   2.181   9.003  13.701
95575SOL     OW88557   8.092   0.411  10.874
95575SOL    HW188558   8.127   0.334  10.829
95575SOL    HW288559   8.079   0.475  10.804
95576SOL     OW88560   7.976  13.664  10.155
95576SOL    HW188561   8.027  13.737  10.120
95576SOL    HW288562   7.947  13.694  10.241
95577SOL     OW88563  11.385  11.348   5.498
95577SOL    HW188564  11.428  11.410   5.440
95577SOL    HW288565  11.414  11.262   5.468
95578SOL     OW88566   9.091  10.894   1.707
95578SOL    HW188567   9.133  10.975   1.678
95578SOL    HW288568   9.107  10.892   1.802
95579SOL     OW88569  11.869  12.983  14.864
95579SOL    HW188570  11.887  12.981  14.770
95579SOL    HW288571  11.932  12.921   0.029
95580SOL     OW88572   7.865   7.054   9.631
95580SOL    HW188573   7.791   7.111   9.612
95580SOL    HW288574   7.831   6.991   9.694
95581SOL     OW88575   3.231  11.524  11.814
95581SOL    HW188576   3.254  11.598  11.758
95581SOL    HW288577   3.314  11.496  11.853
95582SOL     OW88578   5.524   7.039  11.067
95582SOL    HW188579   5.587   6.967  11.062
95582SOL    HW288580   5.564   7.110  11.017
95583SOL     OW88581   9.708  13.855   0.147
95583SOL    HW188582   9.797  13.846   0.181
95583SOL    HW288583   9.656  13.794   0.199
95584SOL     OW88584   6.815   2.653  10.863
95584SOL    HW188585   6.817   2.740  10.903
95584SOL    HW288586   6.767   2.599  10.926
95585SOL     OW88587  14.378  14.437   6.942
95585SOL    HW188588  14.325  14.365   6.975
95585SOL    HW288589  14.321  14.513   6.947
95586SOL     OW88590   1.955   4.617   6.587
95586SOL    HW188591   1.990   4.699   6.554
95586SOL    HW288592   2.018   4.551   6.559
95587SOL     OW88593   9.874   9.852   2.549
95587SOL    HW188594   9.821   9.779   2.518
95587SOL    HW288595   9.814   9.904   2.603
95588SOL     OW88596   5.006   0.359   0.447
95588SOL    HW188597   4.998   0.264   0.438
95588SOL    HW288598   5.013   0.373   0.542
95589SOL     OW88599  10.317   6.155   0.464
95589SOL    HW188600  10.293   6.064   0.477
95589SOL    HW288601  10.255   6.205   0.517
95590SOL     OW88602   5.151   1.783   8.415
95590SOL    HW188603   5.236   1.757   8.381
95590SOL    HW288604   5.161   1.782   8.510
95591SOL     OW88605   5.491  13.869   5.119
95591SOL    HW188606   5.418  13.921   5.085
95591SOL    HW288607   5.523  13.920   5.193
95592SOL     OW88608   0.482   6.997   7.390
95592SOL    HW188609   0.550   6.952   7.341
95592SOL    HW288610   0.506   6.985   7.482
95593SOL     OW88611  12.720   2.837   5.918
95593SOL    HW188612  12.663   2.864   5.846
95593SOL    HW288613  12.668   2.773   5.967
95594SOL     OW88614  12.533  11.854   1.246
95594SOL    HW188615  12.485  11.785   1.290
95594SOL    HW288616  12.483  11.871   1.166
95595SOL     OW88617  10.444   4.201   9.897
95595SOL    HW188618  10.447   4.130   9.961
95595SOL    HW288619  10.513   4.262   9.925
95596SOL     OW88620   0.217  10.649   5.426
95596SOL    HW188621   0.211  10.696   5.343
95596SOL    HW288622   0.202  10.716   5.493
95597SOL     OW88623   9.499   4.244   6.020
95597SOL    HW188624   9.570   4.306   6.038
95597SOL    HW288625   9.430   4.267   6.083
95598SOL     OW88626  13.185   8.386   1.044
95598SOL    HW188627  13.142   8.315   1.091
95598SOL    HW288628  13.114   8.429   0.995
95599SOL     OW88629   1.664  11.160  10.345
95599SOL    HW188630   1.680  11.115  10.262
95599SOL    HW288631   1.729  11.123  10.405
95600SOL     OW88632   7.753   7.828   1.959
95600SOL    HW188633   7.774   7.921   1.969
95600SOL    HW288634   7.829   7.792   1.912
95601SOL     OW88635   3.621   4.155   0.193
95601SOL    HW188636   3.550   4.167   0.130
95601SOL    HW288637   3.694   4.207   0.158
95602SOL     OW88638  12.659   6.672   0.074
95602SOL    HW188639  12.588   6.706   0.021
95602SOL    HW288640  12.738   6.713   0.038
95603SOL     OW88641   7.375   1.990  12.494
95603SOL    HW188642   7.299   2.002  12.550
95603SOL    HW288643   7.383   1.896  12.483
95604SOL     OW88644   5.650  13.443   1.699
95604SOL    HW188645   5.618  13.533   1.709
95604SOL    HW288646   5.612  13.414   1.617
95605SOL     OW88647   9.553   6.699   5.217
95605SOL    HW188648   9.641   6.720   5.248
95605SOL    HW288649   9.567   6.659   5.131
95606SOL     OW88650  14.857   3.681  13.439
95606SOL    HW188651  14.783   3.729  13.475
95606SOL    HW288652  14.865   3.603  13.494
95607SOL     OW88653   2.070   7.197  11.947
95607SOL    HW188654   2.089   7.123  11.889
95607SOL    HW288655   2.029   7.158  12.024
95608SOL     OW88656   9.365  11.447   1.055
95608SOL    HW188657   9.388  11.495   0.975
95608SOL    HW288658   9.274  11.420   1.041
95609SOL     OW88659   7.488   4.328  12.143
95609SOL    HW188660   7.581   4.310  12.159
95609SOL    HW288661   7.453   4.246  12.108
95610SOL     OW88662  11.691   6.381   9.792
95610SOL    HW188663  11.627   6.328   9.745
95610SOL    HW288664  11.773   6.333   9.784
95611SOL     OW88665   0.966   6.460  10.920
95611SOL    HW188666   0.944   6.373  10.886
95611SOL    HW288667   0.910   6.472  10.996
95612SOL     OW88668   9.632   9.497  11.223
95612SOL    HW188669   9.682   9.494  11.142
95612SOL    HW288670   9.565   9.564  11.208
95613SOL     OW88671  11.668   9.820   3.766
95613SOL    HW188672  11.693   9.738   3.724
95613SOL    HW288673  11.604   9.858   3.706
95614SOL     OW88674   4.137   7.991   0.890
95614SOL    HW188675   4.103   7.918   0.839
95614SOL    HW288676   4.213   7.956   0.936
95615SOL     OW88677  14.288  14.458   2.511
95615SOL    HW188678  14.314  14.539   2.467
95615SOL    HW288679  14.328  14.389   2.458
95616SOL     OW88680   8.951   6.770   7.323
95616SOL    HW188681   8.997   6.814   7.252
95616SOL    HW288682   8.897   6.704   7.278
95617SOL     OW88683   9.787  11.493  10.498
95617SOL    HW188684   9.742  11.482  10.582
95617SOL    HW288685   9.850  11.422  10.494
95618SOL     OW88686  14.653   9.362   5.673
95618SOL    HW188687  14.748   9.350   5.664
95618SOL    HW288688  14.643   9.446   5.717
95619SOL     OW88689   8.514   2.920   3.271
95619SOL    HW188690   8.422   2.942   3.259
95619SOL    HW288691   8.524   2.904   3.364
95620SOL     OW88692   4.213   6.125  10.267
95620SOL    HW188693   4.168   6.044  10.243
95620SOL    HW288694   4.169   6.154  10.346
95621SOL     OW88695   2.779   7.021   6.488
95621SOL    HW188696   2.856   7.068   6.521
95621SOL    HW288697   2.756   7.067   6.407
95622SOL     OW88698   6.513  12.114   4.761
95622SOL    HW188699   6.578  12.142   4.826
95622SOL    HW288700   6.517  12.182   4.693
95623SOL     OW88701   5.818  13.903   0.775
95623SOL    HW188702   5.794  13.884   0.685
95623SOL    HW288703   5.750  13.861   0.828
95624SOL     OW88704   2.967   6.985   6.021
95624SOL    HW188705   2.996   7.062   5.972
95624SOL    HW288706   3.048   6.942   6.050
95625SOL     OW88707   4.730   5.268  13.686
95625SOL    HW188708   4.676   5.212  13.742
95625SOL    HW288709   4.669   5.302  13.621
95626SOL     OW88710   4.731  12.685  10.853
95626SOL    HW188711   4.647  12.710  10.891
95626SOL    HW288712   4.737  12.735  10.771
95627SOL     OW88713  12.303   1.312  13.286
95627SOL    HW188714  12.237   1.364  13.239
95627SOL    HW288715  12.381   1.368  13.287
95628SOL     OW88716  13.412  11.356   4.121
95628SOL    HW188717  13.324  11.375   4.153
95628SOL    HW288718  13.434  11.431   4.065
95629SOL     OW88719   2.230  10.154  10.984
95629SOL    HW188720   2.206  10.107  10.904
95629SOL    HW288721   2.277  10.231  10.953
95630SOL     OW88722  12.272   1.109   6.283
95630SOL    HW188723  12.229   1.127   6.367
95630SOL    HW288724  12.240   1.177   6.224
95631SOL     OW88725   1.918   0.410   7.382
95631SOL    HW188726   1.903   0.480   7.318
95631SOL    HW288727   1.987   0.356   7.343
95632SOL     OW88728   3.552   5.483   6.638
95632SOL    HW188729   3.475   5.501   6.585
95632SOL    HW288730   3.622   5.465   6.575
95633SOL     OW88731  11.733   4.771   1.302
95633SOL    HW188732  11.775   4.727   1.376
95633SOL    HW288733  11.733   4.706   1.232
95634SOL     OW88734  12.155   3.300   5.011
95634SOL    HW188735  12.128   3.333   4.925
95634SOL    HW288736  12.074   3.298   5.062
95635SOL     OW88737   8.627   4.336  14.608
95635SOL    HW188738   8.554   4.326  14.547
95635SOL    HW288739   8.640   4.431  14.614
95636SOL     OW88740   0.192  10.294   3.300
95636SOL    HW188741   0.129  10.231   3.265
95636SOL    HW288742   0.271  10.279   3.249
95637SOL     OW88743   6.483   2.673   1.313
95637SOL    HW188744   6.441   2.666   1.227
95637SOL    HW288745   6.524   2.759   1.313
95638SOL     OW88746   5.217   8.362   9.962
95638SOL    HW188747   5.162   8.389  10.035
95638SOL    HW288748   5.306   8.388   9.988
95639SOL     OW88749  14.663   3.669   0.844
95639SOL    HW188750  14.716   3.657   0.923
95639SOL    HW288751  14.582   3.710   0.875
95640SOL     OW88752   9.575  10.641   6.646
95640SOL    HW188753   9.638  10.598   6.704
95640SOL    HW288754   9.515  10.686   6.705
95641SOL     OW88755  10.836   5.296   4.048
95641SOL    HW188756  10.911   5.300   4.107
95641SOL    HW288757  10.769   5.352   4.089
95642SOL     OW88758  11.275   6.484   5.042
95642SOL    HW188759  11.186   6.452   5.024
95642SOL    HW288760  11.276   6.502   5.136
95643SOL     OW88761  10.543   0.368  12.117
95643SOL    HW188762  10.495   0.329  12.043
95643SOL    HW288763  10.474   0.407  12.171
95644SOL     OW88764  11.289  11.907   5.460
95644SOL    HW188765  11.356  11.846   5.493
95644SOL    HW288766  11.206  11.864   5.481
95645SOL     OW88767  11.960  12.317  11.308
95645SOL    HW188768  11.956  12.409  11.280
95645SOL    HW288769  11.974  12.321  11.402
95646SOL     OW88770   6.748  11.667  12.840
95646SOL    HW188771   6.723  11.759  12.853
95646SOL    HW288772   6.829  11.671  12.790
95647SOL     OW88773  11.421  12.255   6.039
95647SOL    HW188774  11.409  12.215   6.125
95647SOL    HW288775  11.515  12.273   6.034
95648SOL     OW88776  13.838   2.399  14.220
95648SOL    HW188777  13.934   2.403  14.225
95648SOL    HW288778  13.814   2.330  14.282
95649SOL     OW88779   1.161  13.582  13.445
95649SOL    HW188780   1.190  13.673  13.431
95649SOL    HW288781   1.212  13.553  13.520
95650SOL     OW88782   4.378  14.553  11.105
95650SOL    HW188783   4.356  14.554  11.198
95650SOL    HW288784   4.450  14.490  11.097
95651SOL     OW88785   7.566   3.339  10.209
95651SOL    HW188786   7.613   3.419  10.185
95651SOL    HW288787   7.550   3.295  10.125
95652SOL     OW88788  10.164   5.150   1.735
95652SOL    HW188789  10.150   5.131   1.643
95652SOL    HW288790  10.206   5.237   1.736
95653SOL     OW88791   9.941   3.916   5.883
95653SOL    HW188792   9.871   3.910   5.819
95653SOL    HW288793   9.978   3.828   5.885
95654SOL     OW88794  11.721  11.363   5.059
95654SOL    HW188795  11.643  11.419   5.057
95654SOL    HW288796  11.744  11.350   4.968
95655SOL     OW88797   4.571   7.427   3.912
95655SOL    HW188798   4.605   7.340   3.930
95655SOL    HW288799   4.537   7.422   3.822
95656SOL     OW88800  11.015   5.278   5.342
95656SOL    HW188801  11.009   5.187   5.314
95656SOL    HW288802  11.064   5.322   5.272
95657SOL     OW88803   9.058   9.397   9.981
95657SOL    HW188804   9.143   9.354   9.970
95657SOL    HW288805   8.998   9.347   9.924
95658SOL     OW88806   0.173   9.521   3.621
95658SOL    HW188807   0.263   9.522   3.589
95658SOL    HW288808   0.180   9.549   3.713
95659SOL     OW88809   8.411  14.163  11.036
95659SOL    HW188810   8.483  14.224  11.021
95659SOL    HW288811   8.406  14.111  10.956
95660SOL     OW88812   9.075  11.621   9.020
95660SOL    HW188813   9.162  11.583   9.007
95660SOL    HW288814   9.091  11.700   9.071
95661SOL     OW88815   9.804   5.954   9.703
95661SOL    HW188816   9.868   5.890   9.735
95661SOL    HW288817   9.830   5.972   9.613
95662SOL     OW88818   3.436   0.075   6.088
95662SOL    HW188819   3.507   0.138   6.077
95662SOL    HW288820   3.356   0.127   6.080
95663SOL     OW88821   7.213  14.335   7.996
95663SOL    HW188822   7.244  14.254   7.955
95663SOL    HW288823   7.263  14.341   8.078
95664SOL     OW88824   5.892  14.688  10.858
95664SOL    HW188825   5.897  14.605  10.810
95664SOL    HW288826   5.971  14.689  10.913
95665SOL     OW88827   9.937   9.159  12.964
95665SOL    HW188828   9.984   9.108  12.898
95665SOL    HW288829  10.006   9.192  13.021
95666SOL     OW88830   9.794   6.154   3.859
95666SOL    HW188831   9.794   6.092   3.932
95666SOL    HW288832   9.816   6.239   3.899
95667SOL     OW88833   0.573  10.454   3.462
95667SOL    HW188834   0.509  10.518   3.432
95667SOL    HW288835   0.652  10.474   3.411
95668SOL     OW88836  10.196  13.797   9.680
95668SOL    HW188837  10.239  13.730   9.732
95668SOL    HW288838  10.267  13.838   9.630
95669SOL     OW88839  11.447   0.719   8.522
95669SOL    HW188840  11.391   0.772   8.578
95669SOL    HW288841  11.393   0.643   8.499
95670SOL     OW88842   0.636   4.113   8.898
95670SOL    HW188843   0.570   4.044   8.906
95670SOL    HW288844   0.633   4.159   8.981
95671SOL     OW88845   6.461   7.751  11.484
95671SOL    HW188846   6.477   7.797  11.566
95671SOL    HW288847   6.462   7.819  11.417
95672SOL     OW88848   5.459   3.746   6.128
95672SOL    HW188849   5.385   3.807   6.133
95672SOL    HW288850   5.490   3.738   6.218
95673SOL     OW88851  13.749  12.431  11.087
95673SOL    HW188852  13.795  12.498  11.035
95673SOL    HW288853  13.657  12.448  11.071
95674SOL     OW88854  11.426   4.975   8.457
95674SOL    HW188855  11.458   4.906   8.516
95674SOL    HW288856  11.452   4.946   8.370
95675SOL     OW88857  12.550   9.721  14.122
95675SOL    HW188858  12.508   9.751  14.203
95675SOL    HW288859  12.484   9.669  14.078
95676SOL     OW88860   4.273  10.099   9.110
95676SOL    HW188861   4.201  10.114   9.171
95676SOL    HW288862   4.323  10.181   9.112
95677SOL     OW88863   0.586   7.144  13.097
95677SOL    HW188864   0.618   7.201  13.027
95677SOL    HW288865   0.560   7.204  13.167
95678SOL     OW88866  14.759   8.505  11.683
95678SOL    HW188867  14.727   8.580  11.632
95678SOL    HW288868  14.788   8.543  11.766
95679SOL     OW88869   6.713  12.713  13.201
95679SOL    HW188870   6.731  12.805  13.218
95679SOL    HW288871   6.659  12.685  13.275
95680SOL     OW88872  12.842  10.401   5.836
95680SOL    HW188873  12.771  10.343   5.863
95680SOL    HW288874  12.895  10.413   5.914
95681SOL     OW88875   8.465   3.348   7.595
95681SOL    HW188876   8.518   3.346   7.515
95681SOL    HW288877   8.518   3.302   7.660
95682SOL     OW88878   7.820   8.449   7.372
95682SOL    HW188879   7.798   8.357   7.390
95682SOL    HW288880   7.736   8.494   7.369
95683SOL     OW88881  11.861  12.098   6.931
95683SOL    HW188882  11.890  12.009   6.950
95683SOL    HW288883  11.794  12.116   6.997
95684SOL     OW88884  10.228   4.930   2.405
95684SOL    HW188885  10.168   4.918   2.479
95684SOL    HW288886  10.306   4.880   2.429
95685SOL     OW88887   1.706   5.343  11.675
95685SOL    HW188888   1.677   5.305  11.758
95685SOL    HW288889   1.733   5.268  11.622
95686SOL     OW88890   5.916   0.246  13.246
95686SOL    HW188891   5.977   0.193  13.194
95686SOL    HW288892   5.841   0.188  13.261
95687SOL     OW88893   4.014  11.009   1.380
95687SOL    HW188894   4.013  11.014   1.476
95687SOL    HW288895   4.105  10.992   1.358
95688SOL     OW88896  11.642   6.207   8.326
95688SOL    HW188897  11.571   6.178   8.384
95688SOL    HW288898  11.673   6.126   8.285
95689SOL     OW88899   6.932   2.413   1.863
95689SOL    HW188900   6.955   2.348   1.929
95689SOL    HW288901   6.971   2.379   1.782
95690SOL     OW88902   4.456   3.765   3.441
95690SOL    HW188903   4.550   3.751   3.456
95690SOL    HW288904   4.451   3.845   3.389
95691SOL     OW88905  12.540   1.465  10.412
95691SOL    HW188906  12.466   1.507  10.456
95691SOL    HW288907  12.501   1.390  10.367
95692SOL     OW88908  10.048   1.519   6.030
95692SOL    HW188909  10.001   1.594   5.994
95692SOL    HW288910  10.104   1.489   5.959
95693SOL     OW88911   3.613   9.556  13.028
95693SOL    HW188912   3.542   9.589  13.082
95693SOL    HW288913   3.569   9.508  12.957
95694SOL     OW88914   4.521  11.830  10.703
95694SOL    HW188915   4.599  11.792  10.743
95694SOL    HW288916   4.482  11.883  10.772
95695SOL     OW88917   4.193   9.667   0.703
95695SOL    HW188918   4.273   9.629   0.738
95695SOL    HW288919   4.171   9.612   0.627
95696SOL     OW88920  11.994   0.951  11.699
95696SOL    HW188921  11.947   0.887  11.753
95696SOL    HW288922  12.055   0.993  11.759
95697SOL     OW88923   5.151   1.508  13.869
95697SOL    HW188924   5.236   1.521  13.911
95697SOL    HW288925   5.087   1.519  13.939
95698SOL     OW88926  14.729   4.997   0.097
95698SOL    HW188927  14.781   4.920   0.117
95698SOL    HW288928  14.717   4.995   0.002
95699SOL     OW88929   2.165  12.924   7.986
95699SOL    HW188930   2.249  12.908   8.030
95699SOL    HW288931   2.177  13.010   7.944
95700SOL     OW88932  13.874  12.292  12.830
95700SOL    HW188933  13.958  12.308  12.787
95700SOL    HW288934  13.865  12.197  12.830
95701SOL     OW88935  11.699  10.700   1.399
95701SOL    HW188936  11.748  10.754   1.462
95701SOL    HW288937  11.644  10.762   1.352
95702SOL     OW88938  11.886   3.855   3.563
95702SOL    HW188939  11.856   3.861   3.654
95702SOL    HW288940  11.961   3.795   3.567
95703SOL     OW88941  10.352   7.723  13.687
95703SOL    HW188942  10.421   7.778  13.724
95703SOL    HW288943  10.353   7.742  13.593
95704SOL     OW88944   0.260  12.683  11.122
95704SOL    HW188945   0.230  12.774  11.130
95704SOL    HW288946   0.252  12.664  11.028
95705SOL     OW88947   3.797   0.951  13.292
95705SOL    HW188948   3.710   0.912  13.289
95705SOL    HW288949   3.857   0.877  13.290
95706SOL     OW88950   1.673   6.519   2.739
95706SOL    HW188951   1.712   6.488   2.821
95706SOL    HW288952   1.579   6.515   2.754
95707SOL     OW88953  14.631  12.892  10.454
95707SOL    HW188954  14.644  12.975  10.409
95707SOL    HW288955  14.579  12.840  10.393
95708SOL     OW88956  10.976   9.930   7.311
95708SOL    HW188957  11.028   9.899   7.236
95708SOL    HW288958  10.886   9.932   7.279
95709SOL     OW88959   1.653   0.644   1.476
95709SOL    HW188960   1.568   0.621   1.513
95709SOL    HW288961   1.635   0.665   1.385
95710SOL     OW88962  14.405   7.942   7.872
95710SOL    HW188963  14.486   7.953   7.921
95710SOL    HW288964  14.338   7.928   7.939
95711SOL     OW88965   2.413  10.629  13.462
95711SOL    HW188966   2.361  10.551  13.482
95711SOL    HW288967   2.414  10.634  13.367
95712SOL     OW88968   4.730   7.618   1.914
95712SOL    HW188969   4.747   7.636   1.822
95712SOL    HW288970   4.815   7.629   1.957
95713SOL     OW88971   5.840  14.161  13.500
95713SOL    HW188972   5.749  14.131  13.497
95713SOL    HW288973   5.885  14.093  13.550
95714SOL     OW88974   3.296  10.182   3.642
95714SOL    HW188975   3.204  10.201   3.627
95714SOL    HW288976   3.308  10.193   3.737
95715SOL     OW88977  13.703   9.987   7.182
95715SOL    HW188978  13.725   9.898   7.154
95715SOL    HW288979  13.623  10.008   7.135
95716SOL     OW88980   7.504   2.602  13.900
95716SOL    HW188981   7.521   2.696  13.904
95716SOL    HW288982   7.412   2.594  13.925
95717SOL     OW88983  14.269   6.302  13.428
95717SOL    HW188984  14.270   6.397  13.440
95717SOL    HW288985  14.308   6.289  13.341
95718SOL     OW88986  13.517   3.878   9.516
95718SOL    HW188987  13.506   3.912   9.605
95718SOL    HW288988  13.461   3.800   9.513
95719SOL     OW88989   6.430  10.671   3.029
95719SOL    HW188990   6.371  10.605   3.064
95719SOL    HW288991   6.500  10.678   3.095
95720SOL     OW88992  12.435   3.085   4.392
95720SOL    HW188993  12.400   3.086   4.303
95720SOL    HW288994  12.527   3.059   4.382
95721SOL     OW88995   2.601   8.124  13.227
95721SOL    HW188996   2.624   8.140  13.135
95721SOL    HW288997   2.506   8.138  13.230
95722SOL     OW88998  14.525  10.028  12.956
95722SOL    HW188999  14.583  10.008  12.882
95722SOL    HW289000  14.521   9.946  13.005
95723SOL     OW89001   2.826   9.596   9.059
95723SOL    HW189002   2.920   9.607   9.071
95723SOL    HW289003   2.808   9.506   9.088
95724SOL     OW89004   9.159  13.774   5.249
95724SOL    HW189005   9.181  13.868   5.250
95724SOL    HW289006   9.064  13.772   5.264
95725SOL     OW89007  10.904   9.323  10.933
95725SOL    HW189008  10.898   9.398  10.874
95725SOL    HW289009  10.979   9.343  10.989
95726SOL     OW89010   3.677  10.582   0.150
95726SOL    HW189011   3.679  10.591   0.245
95726SOL    HW289012   3.741  10.514   0.130
95727SOL     OW89013  12.033   0.927  12.996
95727SOL    HW189014  12.117   0.942  13.039
95727SOL    HW289015  12.046   0.845  12.947
95728SOL     OW89016   5.097   1.029   6.467
95728SOL    HW189017   5.160   1.073   6.411
95728SOL    HW289018   5.060   1.098   6.521
95729SOL     OW89019  14.458   8.078  13.897
95729SOL    HW189020  14.487   8.131  13.972
95729SOL    HW289021  14.447   7.990  13.933
95730SOL     OW89022   5.907   9.554   8.735
95730SOL    HW189023   5.931   9.502   8.659
95730SOL    HW289024   5.856   9.494   8.790
95731SOL     OW89025   0.412   9.045   3.425
95731SOL    HW189026   0.346   8.975   3.416
95731SOL    HW289027   0.370   9.110   3.481
95732SOL     OW89028   9.497  11.579   7.938
95732SOL    HW189029   9.442  11.637   7.990
95732SOL    HW289030   9.586  11.614   7.949
95733SOL     OW89031   5.371  14.559   9.363
95733SOL    HW189032   5.292  14.598   9.327
95733SOL    HW289033   5.400  14.497   9.296
95734SOL     OW89034   3.353   8.742   0.526
95734SOL    HW189035   3.402   8.688   0.464
95734SOL    HW289036   3.298   8.680   0.573
95735SOL     OW89037  11.811  12.440   5.202
95735SOL    HW189038  11.763  12.510   5.246
95735SOL    HW289039  11.790  12.450   5.110
95736SOL     OW89040   3.636   2.978  11.179
95736SOL    HW189041   3.682   3.060  11.161
95736SOL    HW289042   3.556   2.984  11.126
95737SOL     OW89043   9.335   9.176  12.463
95737SOL    HW189044   9.279   9.174  12.385
95737SOL    HW289045   9.424   9.179  12.428
95738SOL     OW89046  14.611   0.831  12.505
95738SOL    HW189047  14.590   0.791  12.420
95738SOL    HW289048  14.600   0.761  12.568
95739SOL     OW89049   3.282  12.201   4.119
95739SOL    HW189050   3.254  12.287   4.150
95739SOL    HW289051   3.271  12.143   4.195
95740SOL     OW89052  14.774   1.917  11.776
95740SOL    HW189053  14.695   1.865  11.761
95740SOL    HW289054  14.842   1.872  11.726
95741SOL     OW89055   6.981   0.429   8.086
95741SOL    HW189056   6.942   0.398   8.168
95741SOL    HW289057   6.987   0.524   8.096
95742SOL     OW89058   0.989  12.878   2.000
95742SOL    HW189059   1.015  12.961   1.959
95742SOL    HW289060   1.071  12.830   2.012
95743SOL     OW89061   2.199  10.285   7.350
95743SOL    HW189062   2.176  10.375   7.325
95743SOL    HW289063   2.115  10.245   7.375
95744SOL     OW89064   9.325  14.620   2.095
95744SOL    HW189065   9.350  14.557   2.028
95744SOL    HW289066   9.380  14.696   2.078
95745SOL     OW89067   3.594  11.660  14.114
95745SOL    HW189068   3.642  11.585  14.148
95745SOL    HW289069   3.652  11.734  14.127
95746SOL     OW89070  13.666   2.326   1.188
95746SOL    HW189071  13.587   2.292   1.230
95746SOL    HW289072  13.715   2.248   1.161
95747SOL     OW89073  14.437   8.194   4.555
95747SOL    HW189074  14.483   8.124   4.510
95747SOL    HW289075  14.379   8.149   4.617
95748SOL     OW89076  14.508  10.443   4.251
95748SOL    HW189077  14.493  10.433   4.345
95748SOL    HW289078  14.535  10.356   4.222
95749SOL     OW89079  14.265   1.753   7.733
95749SOL    HW189080  14.223   1.667   7.729
95749SOL    HW289081  14.299   1.759   7.822
95750SOL     OW89082   5.182  12.908   2.002
95750SOL    HW189083   5.200  12.836   2.062
95750SOL    HW289084   5.265  12.956   1.997
95751SOL     OW89085   1.369  11.216  12.243
95751SOL    HW189086   1.444  11.272  12.264
95751SOL    HW289087   1.335  11.189  12.328
95752SOL     OW89088   2.693   0.257   6.132
95752SOL    HW189089   2.747   0.224   6.061
95752SOL    HW289090   2.749   0.253   6.209
95753SOL     OW89091  14.095   2.869  10.581
95753SOL    HW189092  14.095   2.820  10.498
95753SOL    HW289093  14.104   2.960  10.555
95754SOL     OW89094  12.114   3.129  13.271
95754SOL    HW189095  12.173   3.123  13.195
95754SOL    HW289096  12.165   3.177  13.336
95755SOL     OW89097   0.935   7.241   9.174
95755SOL    HW189098   0.888   7.162   9.201
95755SOL    HW289099   0.937   7.236   9.078
95756SOL     OW89100  14.746   5.276   0.181
95756SOL    HW189101  14.714   5.190   0.151
95756SOL    HW289102  14.840   5.264   0.190
95757SOL     OW89103   2.852  10.347   7.281
95757SOL    HW189104   2.920  10.396   7.234
95757SOL    HW289105   2.770  10.380   7.246
95758SOL     OW89106   0.114   2.791   3.433
95758SOL    HW189107   0.182   2.724   3.436
95758SOL    HW289108   0.036   2.749   3.470
95759SOL     OW89109  12.970  13.363  12.470
95759SOL    HW189110  13.007  13.321  12.393
95759SOL    HW289111  12.998  13.455  12.463
95760SOL     OW89112  13.117   2.839  12.781
95760SOL    HW189113  13.040   2.893  12.768
95760SOL    HW289114  13.157   2.833  12.694
95761SOL     OW89115   5.896   4.264  14.551
95761SOL    HW189116   5.909   4.241  14.459
95761SOL    HW289117   5.977   4.238  14.594
95762SOL     OW89118   8.485   0.368   4.397
95762SOL    HW189119   8.474   0.281   4.436
95762SOL    HW289120   8.509   0.350   4.306
95763SOL     OW89121   1.848   7.669  11.970
95763SOL    HW189122   1.901   7.598  12.005
95763SOL    HW289123   1.909   7.741  11.956
95764SOL     OW89124   1.011   9.212  10.694
95764SOL    HW189125   1.010   9.206  10.790
95764SOL    HW289126   1.092   9.169  10.667
95765SOL     OW89127  10.767   1.535   3.349
95765SOL    HW189128  10.843   1.500   3.303
95765SOL    HW289129  10.775   1.630   3.341
95766SOL     OW89130  11.978   7.697   8.041
95766SOL    HW189131  12.013   7.723   8.126
95766SOL    HW289132  11.932   7.615   8.057
95767SOL     OW89133  11.347  11.904   2.626
95767SOL    HW189134  11.373  11.895   2.534
95767SOL    HW289135  11.272  11.846   2.636
95768SOL     OW89136   8.848  10.837   7.728
95768SOL    HW189137   8.790  10.780   7.679
95768SOL    HW289138   8.800  10.920   7.735
95769SOL     OW89139   7.970  14.549   9.302
95769SOL    HW189140   7.919  14.603   9.241
95769SOL    HW289141   7.905  14.499   9.350
95770SOL     OW89142   1.850   7.671  14.610
95770SOL    HW189143   1.864   7.657  14.704
95770SOL    HW289144   1.916   7.616  14.568
95771SOL     OW89145   5.321   6.302   8.943
95771SOL    HW189146   5.304   6.396   8.937
95771SOL    HW289147   5.372   6.283   8.864
95772SOL     OW89148   5.063   2.131   0.238
95772SOL    HW189149   4.981   2.088   0.264
95772SOL    HW289150   5.049   2.224   0.260
95773SOL     OW89151   5.796  10.473   4.731
95773SOL    HW189152   5.812  10.412   4.803
95773SOL    HW289153   5.853  10.548   4.751
95774SOL     OW89154   6.968   2.853   3.181
95774SOL    HW189155   7.030   2.837   3.252
95774SOL    HW289156   6.997   2.936   3.142
95775SOL     OW89157   9.867   8.175   4.615
95775SOL    HW189158   9.947   8.135   4.581
95775SOL    HW289159   9.798   8.111   4.596
95776SOL     OW89160  11.115   2.896   1.880
95776SOL    HW189161  11.130   2.841   1.957
95776SOL    HW289162  11.187   2.876   1.821
95777SOL     OW89163   2.909  12.051   3.490
95777SOL    HW189164   2.920  11.964   3.452
95777SOL    HW289165   2.997  12.075   3.520
95778SOL     OW89166   2.815   9.607  10.162
95778SOL    HW189167   2.764   9.567  10.091
95778SOL    HW289168   2.904   9.575  10.149
95779SOL     OW89169  13.145  11.634   2.762
95779SOL    HW189170  13.118  11.601   2.848
95779SOL    HW289171  13.236  11.608   2.754
95780SOL     OW89172  11.613  12.664  10.126
95780SOL    HW189173  11.707  12.680  10.132
95780SOL    HW289174  11.576  12.748  10.098
95781SOL     OW89175   7.752   7.602   3.048
95781SOL    HW189176   7.695   7.679   3.045
95781SOL    HW289177   7.839   7.637   3.065
95782SOL     OW89178   2.040   9.243   9.350
95782SOL    HW189179   2.037   9.243   9.445
95782SOL    HW289180   1.998   9.161   9.325
95783SOL     OW89181   6.981  11.578   6.420
95783SOL    HW189182   6.979  11.673   6.432
95783SOL    HW289183   7.060  11.550   6.466
95784SOL     OW89184   8.650   0.979   2.767
95784SOL    HW189185   8.715   1.044   2.743
95784SOL    HW289186   8.566   1.026   2.766
95785SOL     OW89187   8.830  14.367   0.750
95785SOL    HW189188   8.800  14.320   0.829
95785SOL    HW289189   8.780  14.448   0.750
95786SOL     OW89190   8.951   2.737   4.879
95786SOL    HW189191   9.044   2.728   4.899
95786SOL    HW289192   8.934   2.831   4.886
95787SOL     OW89193  10.747   0.635   7.354
95787SOL    HW189194  10.671   0.687   7.326
95787SOL    HW289195  10.790   0.689   7.420
95788SOL     OW89196  10.196  13.827   5.684
95788SOL    HW189197  10.157  13.741   5.668
95788SOL    HW289198  10.181  13.843   5.777
95789SOL     OW89199   9.672  12.004   1.186
95789SOL    HW189200   9.763  12.008   1.215
95789SOL    HW289201   9.671  12.053   1.104
95790SOL     OW89202  13.903   9.258   2.331
95790SOL    HW189203  13.855   9.334   2.299
95790SOL    HW289204  13.860   9.183   2.290
95791SOL     OW89205  14.239   6.691   3.943
95791SOL    HW189206  14.262   6.754   4.010
95791SOL    HW289207  14.144   6.702   3.932
95792SOL     OW89208   7.243   4.274  14.464
95792SOL    HW189209   7.332   4.240  14.467
95792SOL    HW289210   7.240   4.339  14.534
95793SOL     OW89211   1.645   4.895   2.853
95793SOL    HW189212   1.613   4.981   2.824
95793SOL    HW289213   1.725   4.882   2.803
95794SOL     OW89214   6.821  12.629   2.135
95794SOL    HW189215   6.779  12.562   2.081
95794SOL    HW289216   6.898  12.585   2.172
95795SOL     OW89217  11.555   0.233   8.067
95795SOL    HW189218  11.531   0.142   8.051
95795SOL    HW289219  11.554   0.274   7.981
95796SOL     OW89220  14.595  14.674   4.574
95796SOL    HW189221  14.648  14.753   4.568
95796SOL    HW289222  14.534  14.691   4.646
95797SOL     OW89223   3.142   6.276   8.247
95797SOL    HW189224   3.235   6.262   8.263
95797SOL    HW289225   3.107   6.189   8.228
95798SOL     OW89226   4.933   4.355  14.872
95798SOL    HW189227   4.934   4.264  14.842
95798SOL    HW289228   4.851   4.362   0.047
95799SOL     OW89229   4.784  14.416  12.442
95799SOL    HW189230   4.855  14.476  12.466
95799SOL    HW289231   4.814  14.330  12.473
95800SOL     OW89232  12.091   1.854   8.253
95800SOL    HW189233  12.048   1.841   8.337
95800SOL    HW289234  12.140   1.773   8.238
95801SOL     OW89235   7.826  14.454   4.184
95801SOL    HW189236   7.762  14.462   4.113
95801SOL    HW289237   7.775  14.469   4.263
95802SOL     OW89238  12.784   0.720   0.197
95802SOL    HW189239  12.772   0.629   0.170
95802SOL    HW289240  12.704   0.764   0.168
95803SOL     OW89241  11.354   3.641  14.617
95803SOL    HW189242  11.345   3.613  14.526
95803SOL    HW289243  11.421   3.583  14.653
95804SOL     OW89244   3.124   8.739  14.433
95804SOL    HW189245   3.097   8.830  14.434
95804SOL    HW289246   3.129   8.715  14.340
95805SOL     OW89247  14.550  11.875   3.342
95805SOL    HW189248  14.461  11.869   3.378
95805SOL    HW289249  14.547  11.950   3.283
95806SOL     OW89250   4.146   3.041   3.106
95806SOL    HW189251   4.196   2.964   3.133
95806SOL    HW289252   4.073   3.045   3.167
95807SOL     OW89253   4.523   6.562   0.728
95807SOL    HW189254   4.478   6.480   0.744
95807SOL    HW289255   4.484   6.596   0.647
95808SOL     OW89256   2.483  10.076   0.843
95808SOL    HW189257   2.395  10.113   0.845
95808SOL    HW289258   2.499  10.055   0.750
95809SOL     OW89259  13.149   6.606  13.738
95809SOL    HW189260  13.168   6.691  13.778
95809SOL    HW289261  13.210   6.546  13.781
95810SOL     OW89262   1.888   0.791   3.231
95810SOL    HW189263   1.910   0.826   3.317
95810SOL    HW289264   1.827   0.720   3.248
95811SOL     OW89265   0.044   4.030   7.341
95811SOL    HW189266  14.858   4.008   7.412
95811SOL    HW289267   0.114   4.081   7.383
95812SOL     OW89268   0.603   0.285   1.961
95812SOL    HW189269   0.695   0.302   1.940
95812SOL    HW289270   0.554   0.341   1.901
95813SOL     OW89271   1.404   0.600   7.760
95813SOL    HW189272   1.473   0.615   7.695
95813SOL    HW289273   1.438   0.528   7.813
95814SOL     OW89274   5.507   6.355   6.135
95814SOL    HW189275   5.433   6.408   6.166
95814SOL    HW289276   5.480   6.265   6.151
95815SOL     OW89277   4.008   4.228   4.458
95815SOL    HW189278   3.963   4.191   4.382
95815SOL    HW289279   3.940   4.274   4.507
95816SOL     OW89280   4.772   1.176   7.698
95816SOL    HW189281   4.705   1.201   7.761
95816SOL    HW289282   4.801   1.089   7.727
95817SOL     OW89283  11.252   9.154   4.106
95817SOL    HW189284  11.300   9.078   4.072
95817SOL    HW289285  11.170   9.155   4.057
95818SOL     OW89286  11.209  10.659  12.428
95818SOL    HW189287  11.274  10.660  12.358
95818SOL    HW289288  11.163  10.576  12.419
95819SOL     OW89289   5.183   0.722  12.887
95819SOL    HW189290   5.088   0.729  12.892
95819SOL    HW289291   5.198   0.642  12.837
95820SOL     OW89292   0.376  14.004   0.341
95820SOL    HW189293   0.463  14.007   0.379
95820SOL    HW289294   0.340  13.919   0.368
95821SOL     OW89295   7.122   0.773   9.408
95821SOL    HW189296   7.036   0.737   9.432
95821SOL    HW289297   7.144   0.832   9.480
95822SOL     OW89298   4.155   7.932   9.104
95822SOL    HW189299   4.203   7.892   9.031
95822SOL    HW289300   4.199   8.016   9.118
95823SOL     OW89301  10.394   7.141   8.970
95823SOL    HW189302  10.366   7.073   9.032
95823SOL    HW289303  10.340   7.217   8.992
95824SOL     OW89304   5.643   2.750   1.015
95824SOL    HW189305   5.601   2.829   0.982
95824SOL    HW289306   5.729   2.779   1.045
95825SOL     OW89307   2.232   4.434  14.139
95825SOL    HW189308   2.272   4.502  14.085
95825SOL    HW289309   2.138   4.440  14.121
95826SOL     OW89310  11.496  14.521  12.030
95826SOL    HW189311  11.463  14.608  12.007
95826SOL    HW289312  11.432  14.460  11.992
95827SOL     OW89313   6.641  10.382   8.866
95827SOL    HW189314   6.546  10.385   8.856
95827SOL    HW289315   6.662  10.462   8.914
95828SOL     OW89316  10.763   1.435   3.891
95828SOL    HW189317  10.708   1.463   3.818
95828SOL    HW289318  10.849   1.420   3.853
95829SOL     OW89319   3.327   6.197  14.051
95829SOL    HW189320   3.325   6.293  14.045
95829SOL    HW289321   3.250   6.175  14.102
95830SOL     OW89322  13.655   4.027   5.877
95830SOL    HW189323  13.592   3.971   5.832
95830SOL    HW289324  13.685   3.975   5.951
95831SOL     OW89325   6.657  10.123   0.006
95831SOL    HW189326   6.730  10.148   0.061
95831SOL    HW289327   6.693  10.058  14.819
95832SOL     OW89328   9.513   1.974   4.709
95832SOL    HW189329   9.553   1.972   4.622
95832SOL    HW289330   9.478   1.886   4.722
95833SOL     OW89331   9.988   0.022   9.930
95833SOL    HW189332  10.066   0.009   9.875
95833SOL    HW289333   9.967   0.114   9.918
95834SOL     OW89334   6.497   9.112   4.616
95834SOL    HW189335   6.483   9.025   4.578
95834SOL    HW289336   6.411   9.152   4.619
95835SOL     OW89337   9.539   2.850   0.119
95835SOL    HW189338   9.589   2.773   0.147
95835SOL    HW289339   9.535   2.842   0.024
95836SOL     OW89340  13.799  14.073  12.108
95836SOL    HW189341  13.879  14.091  12.058
95836SOL    HW289342  13.734  14.132  12.070
95837SOL     OW89343  11.303   7.006   1.760
95837SOL    HW189344  11.351   6.964   1.832
95837SOL    HW289345  11.322   6.953   1.683
95838SOL     OW89346   1.068   5.492  11.957
95838SOL    HW189347   1.162   5.473  11.955
95838SOL    HW289348   1.047   5.521  11.869
95839SOL     OW89349  14.484  10.024  12.125
95839SOL    HW189350  14.535   9.966  12.069
95839SOL    HW289351  14.423  10.068  12.066
95840SOL     OW89352   3.995   6.911   3.916
95840SOL    HW189353   4.022   6.824   3.948
95840SOL    HW289354   4.045   6.923   3.835
95841SOL     OW89355   1.400  10.969  12.081
95841SOL    HW189356   1.400  11.042  12.142
95841SOL    HW289357   1.431  10.894  12.133
95842SOL     OW89358   6.617   7.629  10.401
95842SOL    HW189359   6.664   7.561  10.352
95842SOL    HW289360   6.671   7.707  10.390
95843SOL     OW89361   8.744  11.545  10.316
95843SOL    HW189362   8.764  11.462  10.358
95843SOL    HW289363   8.649  11.555  10.326
95844SOL     OW89364   7.285   2.963  12.980
95844SOL    HW189365   7.366   2.916  12.965
95844SOL    HW289366   7.309   3.034  13.039
95845SOL     OW89367   6.146   5.706  11.408
95845SOL    HW189368   6.152   5.613  11.431
95845SOL    HW289369   6.198   5.714  11.328
95846SOL     OW89370   4.074  10.459   1.157
95846SOL    HW189371   4.091  10.527   1.221
95846SOL    HW289372   4.106  10.379   1.197
95847SOL     OW89373  10.490   8.922  11.182
95847SOL    HW189374  10.446   9.005  11.199
95847SOL    HW289375  10.568   8.947  11.131
95848SOL     OW89376  12.414  12.593   5.569
95848SOL    HW189377  12.420  12.642   5.651
95848SOL    HW289378  12.495  12.614   5.523
95849SOL     OW89379  13.008  11.024   0.156
95849SOL    HW189380  12.919  10.990   0.145
95849SOL    HW289381  13.036  10.989   0.240
95850SOL     OW89382   1.562   4.855   6.796
95850SOL    HW189383   1.611   4.787   6.751
95850SOL    HW289384   1.527   4.910   6.726
95851SOL     OW89385   5.725   4.455   3.532
95851SOL    HW189386   5.645   4.505   3.519
95851SOL    HW289387   5.775   4.468   3.451
95852SOL     OW89388   1.025  13.900   4.793
95852SOL    HW189389   1.105  13.864   4.754
95852SOL    HW289390   0.959  13.890   4.725
95853SOL     OW89391  11.627  10.899  13.156
95853SOL    HW189392  11.544  10.888  13.203
95853SOL    HW289393  11.694  10.873  13.220
95854SOL     OW89394  11.459  13.136  12.335
95854SOL    HW189395  11.451  13.115  12.428
95854SOL    HW289396  11.493  13.225  12.333
95855SOL     OW89397   0.885  11.373   9.424
95855SOL    HW189398   0.811  11.419   9.464
95855SOL    HW289399   0.854  11.283   9.411
95856SOL     OW89400  10.968   3.242  10.319
95856SOL    HW189401  10.876   3.256  10.337
95856SOL    HW289402  10.972   3.155  10.279
95857SOL     OW89403   9.782  13.395   9.049
95857SOL    HW189404   9.812  13.468   8.995
95857SOL    HW289405   9.782  13.429   9.138
95858SOL     OW89406   5.953   9.557   5.066
95858SOL    HW189407   5.953   9.462   5.079
95858SOL    HW289408   6.012   9.591   5.133
95859SOL     OW89409  12.473   4.073  10.378
95859SOL    HW189410  12.416   4.014  10.427
95859SOL    HW289411  12.468   4.157  10.424
95860SOL     OW89412   3.816   7.294   1.599
95860SOL    HW189413   3.758   7.266   1.528
95860SOL    HW289414   3.762   7.286   1.678
95861SOL     OW89415   1.102   2.559  14.509
95861SOL    HW189416   1.046   2.578  14.584
95861SOL    HW289417   1.179   2.516  14.548
95862SOL     OW89418  10.661   1.139  10.227
95862SOL    HW189419  10.689   1.047  10.235
95862SOL    HW289420  10.743   1.188  10.219
95863SOL     OW89421   0.951  14.166   4.697
95863SOL    HW189422   0.921  14.114   4.623
95863SOL    HW289423   1.044  14.181   4.680
95864SOL     OW89424  14.698   5.133   8.215
95864SOL    HW189425  14.650   5.134   8.132
95864SOL    HW289426  14.632   5.156   8.280
95865SOL     OW89427   4.454   8.034  11.131
95865SOL    HW189428   4.388   8.029  11.200
95865SOL    HW289429   4.420   8.100  11.070
95866SOL     OW89430   1.071   3.238  10.835
95866SOL    HW189431   1.056   3.205  10.747
95866SOL    HW289432   1.159   3.207  10.857
95867SOL     OW89433  13.164   6.560   3.672
95867SOL    HW189434  13.183   6.466   3.660
95867SOL    HW289435  13.216   6.585   3.748
95868SOL     OW89436   1.374   6.433   4.080
95868SOL    HW189437   1.319   6.357   4.066
95868SOL    HW289438   1.389   6.435   4.175
95869SOL     OW89439   6.980   9.336  10.889
95869SOL    HW189440   6.914   9.270  10.867
95869SOL    HW289441   6.945   9.381  10.966
95870SOL     OW89442   2.811   6.493   9.922
95870SOL    HW189443   2.759   6.464   9.847
95870SOL    HW289444   2.819   6.415   9.977
95871SOL     OW89445   5.192   3.282   2.381
95871SOL    HW189446   5.257   3.319   2.322
95871SOL    HW289447   5.220   3.192   2.397
95872SOL     OW89448   1.742  12.009   5.713
95872SOL    HW189449   1.766  11.993   5.805
95872SOL    HW289450   1.822  12.043   5.673
95873SOL     OW89451  13.338   7.749  11.630
95873SOL    HW189452  13.361   7.840  11.650
95873SOL    HW289453  13.347   7.742  11.535
95874SOL     OW89454   6.051   8.540   6.685
95874SOL    HW189455   6.097   8.520   6.604
95874SOL    HW289456   5.997   8.463   6.702
95875SOL     OW89457  11.310   0.421   7.323
95875SOL    HW189458  11.280   0.487   7.386
95875SOL    HW289459  11.327   0.343   7.376
95876SOL     OW89460   1.327   0.700   9.882
95876SOL    HW189461   1.252   0.681   9.826
95876SOL    HW289462   1.308   0.654   9.964
95877SOL     OW89463   6.088   9.822  14.469
95877SOL    HW189464   6.147   9.888  14.505
95877SOL    HW289465   6.007   9.870  14.450
95878SOL     OW89466   8.676   3.458   0.098
95878SOL    HW189467   8.608   3.468   0.164
95878SOL    HW289468   8.754   3.434   0.148
95879SOL     OW89469  13.377   0.296   5.633
95879SOL    HW189470  13.319   0.222   5.614
95879SOL    HW289471  13.342   0.334   5.713
95880SOL     OW89472  13.355   1.385  13.367
95880SOL    HW189473  13.311   1.305  13.338
95880SOL    HW289474  13.346   1.445  13.294
95881SOL     OW89475  12.108  11.250   3.496
95881SOL    HW189476  12.065  11.249   3.581
95881SOL    HW289477  12.196  11.215   3.513
95882SOL     OW89478   8.185   8.548   0.877
95882SOL    HW189479   8.270   8.522   0.841
95882SOL    HW289480   8.198   8.546   0.972
95883SOL     OW89481   3.968  11.339  10.435
95883SOL    HW189482   4.054  11.353  10.476
95883SOL    HW289483   3.910  11.318  10.508
95884SOL     OW89484   2.872  10.893   9.332
95884SOL    HW189485   2.961  10.917   9.357
95884SOL    HW289486   2.845  10.961   9.270
95885SOL     OW89487   7.554  14.462  13.634
95885SOL    HW189488   7.478  14.406  13.649
95885SOL    HW289489   7.577  14.448  13.542
95886SOL     OW89490  12.416  12.353   9.070
95886SOL    HW189491  12.459  12.318   8.992
95886SOL    HW289492  12.468  12.429   9.094
95887SOL     OW89493   7.429  14.861   0.661
95887SOL    HW189494   7.364   0.053   0.634
95887SOL    HW289495   7.513   0.028   0.637
95888SOL     OW89496   4.763   9.936   0.275
95888SOL    HW189497   4.746   9.885   0.196
95888SOL    HW289498   4.691   9.916   0.334
95889SOL     OW89499   7.315   8.270   5.585
95889SOL    HW189500   7.310   8.237   5.674
95889SOL    HW289501   7.229   8.252   5.547
95890SOL     OW89502  12.547  11.635  14.853
95890SOL    HW189503  12.588  11.697   0.040
95890SOL    HW289504  12.544  11.682  14.769
95891SOL     OW89505  14.706   1.656   3.228
95891SOL    HW189506  14.661   1.588   3.178
95891SOL    HW289507  14.647   1.731   3.226
95892SOL     OW89508   9.468   3.160   8.058
95892SOL    HW189509   9.438   3.232   8.003
95892SOL    HW289510   9.469   3.084   8.000
95893SOL     OW89511   5.165   5.422   7.902
95893SOL    HW189512   5.233   5.470   7.948
95893SOL    HW289513   5.194   5.421   7.811
95894SOL     OW89514   1.398   2.166  14.608
95894SOL    HW189515   1.381   2.078  14.642
95894SOL    HW289516   1.364   2.164  14.519
95895SOL     OW89517   6.508   4.168   1.963
95895SOL    HW189518   6.600   4.150   1.983
95895SOL    HW289519   6.493   4.257   1.994
95896SOL     OW89520   9.457   6.524  12.755
95896SOL    HW189521   9.472   6.614  12.727
95896SOL    HW289522   9.500   6.518  12.841
95897SOL     OW89523  11.525  10.235  12.365
95897SOL    HW189524  11.453  10.241  12.303
95897SOL    HW289525  11.568  10.152  12.344
95898SOL     OW89526   4.851  10.224  13.393
95898SOL    HW189527   4.780  10.220  13.329
95898SOL    HW289528   4.928  10.192  13.345
95899SOL     OW89529  13.958   8.846  11.618
95899SOL    HW189530  13.995   8.932  11.594
95899SOL    HW289531  13.870   8.847  11.579
95900SOL     OW89532  12.558  11.877   2.184
95900SOL    HW189533  12.613  11.885   2.262
95900SOL    HW289534  12.613  11.831   2.120
95901SOL     OW89535  14.844  11.811   1.389
95901SOL    HW189536  14.826  11.902   1.367
95901SOL    HW289537  14.759  11.776   1.418
95902SOL     OW89538  12.976   4.666   5.888
95902SOL    HW189539  12.973   4.573   5.865
95902SOL    HW289540  12.927   4.710   5.819
95903SOL     OW89541   9.257  10.319   4.203
95903SOL    HW189542   9.240  10.239   4.253
95903SOL    HW289543   9.352  10.324   4.199
95904SOL     OW89544   6.040  13.181  12.542
95904SOL    HW189545   6.011  13.226  12.462
95904SOL    HW289546   6.134  13.168  12.530
95905SOL     OW89547  14.302   8.235  14.314
95905SOL    HW189548  14.220   8.196  14.284
95905SOL    HW289549  14.276   8.294  14.385
95906SOL     OW89550  11.337   0.613   4.317
95906SOL    HW189551  11.431   0.625   4.331
95906SOL    HW289552  11.311   0.552   4.386
95907SOL     OW89553  11.445   5.496  13.705
95907SOL    HW189554  11.359   5.534  13.723
95907SOL    HW289555  11.451   5.494  13.609
95908SOL     OW89556   0.468   0.855   0.118
95908SOL    HW189557   0.443   0.762   0.116
95908SOL    HW289558   0.402   0.896   0.174
95909SOL     OW89559   3.875   4.553  12.204
95909SOL    HW189560   3.793   4.601  12.217
95909SOL    HW289561   3.909   4.539  12.292
95910SOL     OW89562  10.615  14.829   8.966
95910SOL    HW189563  10.709  14.820   8.981
95910SOL    HW289564  10.579  14.851   9.052
95911SOL     OW89565  12.781  13.722   0.006
95911SOL    HW189566  12.729  13.682   0.076
95911SOL    HW289567  12.758  13.673  14.800
95912SOL     OW89568   5.099   2.924  11.262
95912SOL    HW189569   5.168   2.859  11.272
95912SOL    HW289570   5.121   2.992  11.326
95913SOL     OW89571   9.588   8.769   7.595
95913SOL    HW189572   9.644   8.837   7.559
95913SOL    HW289573   9.546   8.809   7.670
95914SOL     OW89574   2.538  11.162   7.104
95914SOL    HW189575   2.557  11.207   7.187
95914SOL    HW289576   2.544  11.232   7.038
95915SOL     OW89577   5.978   2.275   8.115
95915SOL    HW189578   5.888   2.294   8.141
95915SOL    HW289579   5.988   2.318   8.030
95916SOL     OW89580  12.595   2.667   9.739
95916SOL    HW189581  12.574   2.584   9.780
95916SOL    HW289582  12.615   2.726   9.811
95917SOL     OW89583   8.618  14.178   5.162
95917SOL    HW189584   8.637  14.141   5.249
95917SOL    HW289585   8.538  14.134   5.134
95918SOL     OW89586   7.364  14.120  13.701
95918SOL    HW189587   7.393  14.171  13.776
95918SOL    HW289588   7.270  14.140  13.693
95919SOL     OW89589  12.610   8.707   2.275
95919SOL    HW189590  12.531   8.659   2.249
95919SOL    HW289591  12.660   8.718   2.194
95920SOL     OW89592   3.778  14.078  10.813
95920SOL    HW189593   3.799  14.170  10.800
95920SOL    HW289594   3.778  14.040  10.725
95921SOL     OW89595   2.833   7.068  12.742
95921SOL    HW189596   2.808   7.150  12.699
95921SOL    HW289597   2.815   7.084  12.835
95922SOL     OW89598  12.682  12.353  11.200
95922SOL    HW189599  12.720  12.290  11.261
95922SOL    HW289600  12.753  12.414  11.180
95923SOL     OW89601   3.562   9.605   6.961
95923SOL    HW189602   3.567   9.627   6.868
95923SOL    HW289603   3.470   9.615   6.984
95924SOL     OW89604   3.049  13.584   9.113
95924SOL    HW189605   3.098  13.613   9.190
95924SOL    HW289606   3.114  13.580   9.044
95925SOL     OW89607   3.645   5.167  11.745
95925SOL    HW189608   3.626   5.125  11.829
95925SOL    HW289609   3.602   5.111  11.680
95926SOL     OW89610   6.136   9.511   8.937
95926SOL    HW189611   6.114   9.604   8.945
95926SOL    HW289612   6.079   9.479   8.867
95927SOL     OW89613  11.546  13.159   4.711
95927SOL    HW189614  11.623  13.109   4.684
95927SOL    HW289615  11.482  13.143   4.642
95928SOL     OW89616   0.553   5.315   6.320
95928SOL    HW189617   0.569   5.405   6.346
95928SOL    HW289618   0.625   5.293   6.261
95929SOL     OW89619   2.243  14.830  13.555
95929SOL    HW189620   2.180  14.810  13.486
95929SOL    HW289621   2.223  14.767  13.624
95930SOL     OW89622  12.034   1.809   0.311
95930SOL    HW189623  12.022   1.723   0.272
95930SOL    HW289624  11.947   1.835   0.340
95931SOL     OW89625   3.278   8.594   7.067
95931SOL    HW189626   3.316   8.519   7.112
95931SOL    HW289627   3.230   8.641   7.135
95932SOL     OW89628   9.545   3.457   5.935
95932SOL    HW189629   9.623   3.472   5.989
95932SOL    HW289630   9.570   3.387   5.875
95933SOL     OW89631   8.586   4.655   5.561
95933SOL    HW189632   8.515   4.610   5.515
95933SOL    HW289633   8.555   4.664   5.651
95934SOL     OW89634   8.823   7.908   5.345
95934SOL    HW189635   8.744   7.886   5.395
95934SOL    HW289636   8.793   7.910   5.254
95935SOL     OW89637  11.856   3.242  13.589
95935SOL    HW189638  11.914   3.288  13.650
95935SOL    HW289639  11.815   3.174  13.643
95936SOL     OW89640  13.312   3.899   7.324
95936SOL    HW189641  13.245   3.938   7.268
95936SOL    HW289642  13.392   3.900   7.271
95937SOL     OW89643   7.355   0.601   3.573
95937SOL    HW189644   7.418   0.646   3.630
95937SOL    HW289645   7.366   0.643   3.488
95938SOL     OW89646   7.750   1.552   0.838
95938SOL    HW189647   7.680   1.600   0.881
95938SOL    HW289648   7.706   1.483   0.789
95939SOL     OW89649  11.433  13.317  14.249
95939SOL    HW189650  11.378  13.292  14.324
95939SOL    HW289651  11.504  13.253  14.249
95940SOL     OW89652  10.174  14.432   3.845
95940SOL    HW189653  10.230  14.378   3.790
95940SOL    HW289654  10.162  14.381   3.925
95941SOL     OW89655   3.857   3.774   0.971
95941SOL    HW189656   3.763   3.770   0.986
95941SOL    HW289657   3.895   3.719   1.039
95942SOL     OW89658   0.025   5.613  11.602
95942SOL    HW189659   0.114   5.588  11.577
95942SOL    HW289660  14.842   5.565  11.541
95943SOL     OW89661  14.485   1.087   2.369
95943SOL    HW189662  14.428   1.021   2.331
95943SOL    HW289663  14.516   1.049   2.451
95944SOL     OW89664   4.893  14.439  14.865
95944SOL    HW189665   4.931  14.352  14.854
95944SOL    HW289666   4.948  14.480   0.059
95945SOL     OW89667   2.321  11.197   0.445
95945SOL    HW189668   2.239  11.228   0.484
95945SOL    HW289669   2.294  11.123   0.390
95946SOL     OW89670   6.986   3.526  12.161
95946SOL    HW189671   7.045   3.532  12.236
95946SOL    HW289672   6.991   3.613  12.120
95947SOL     OW89673   9.333   1.260   9.421
95947SOL    HW189674   9.331   1.185   9.362
95947SOL    HW289675   9.423   1.291   9.419
95948SOL     OW89676   2.126   0.977   5.037
95948SOL    HW189677   2.048   0.976   5.092
95948SOL    HW289678   2.096   0.943   4.952
95949SOL     OW89679   9.158  12.418   2.875
95949SOL    HW189680   9.143  12.512   2.867
95949SOL    HW289681   9.206  12.408   2.958
95950SOL     OW89682  11.460   5.811  11.466
95950SOL    HW189683  11.528   5.752  11.435
95950SOL    HW289684  11.490   5.841  11.552
95951SOL     OW89685  13.739  13.910   3.350
95951SOL    HW189686  13.825  13.945   3.330
95951SOL    HW289687  13.720  13.939   3.439
95952SOL     OW89688   9.693   5.769  10.940
95952SOL    HW189689   9.630   5.787  10.870
95952SOL    HW289690   9.647   5.708  10.998
95953SOL     OW89691   8.227   9.852   0.242
95953SOL    HW189692   8.231   9.881   0.333
95953SOL    HW289693   8.317   9.833   0.218
95954SOL     OW89694  10.300  14.378   6.299
95954SOL    HW189695  10.325  14.470   6.296
95954SOL    HW289696  10.208  14.379   6.327
95955SOL     OW89697  13.248  13.726   6.152
95955SOL    HW189698  13.268  13.791   6.084
95955SOL    HW289699  13.217  13.650   6.103
95956SOL     OW89700   4.248  13.944   9.138
95956SOL    HW189701   4.205  13.980   9.215
95956SOL    HW289702   4.317  13.888   9.173
95957SOL     OW89703  11.574   3.156   1.224
95957SOL    HW189704  11.524   3.090   1.271
95957SOL    HW289705  11.595   3.116   1.140
95958SOL     OW89706   5.182  10.653   3.645
95958SOL    HW189707   5.253  10.619   3.699
95958SOL    HW289708   5.218  10.656   3.557
95959SOL     OW89709   0.807   6.328   9.379
95959SOL    HW189710   0.903   6.331   9.382
95959SOL    HW289711   0.782   6.297   9.466
95960SOL     OW89712   5.587   0.601   3.291
95960SOL    HW189713   5.565   0.679   3.342
95960SOL    HW289714   5.574   0.528   3.352
95961SOL     OW89715   5.559  13.753   1.011
95961SOL    HW189716   5.584  13.735   0.921
95961SOL    HW289717   5.641  13.749   1.060
95962SOL     OW89718  12.640  14.662  12.689
95962SOL    HW189719  12.672  14.677  12.600
95962SOL    HW289720  12.557  14.617  12.677
95963SOL     OW89721   4.079  11.792   2.411
95963SOL    HW189722   4.165  11.826   2.387
95963SOL    HW289723   4.068  11.816   2.503
95964SOL     OW89724  14.146   6.718  14.245
95964SOL    HW189725  14.052   6.725  14.263
95964SOL    HW289726  14.158   6.627  14.219
95965SOL     OW89727   4.072   6.634   9.525
95965SOL    HW189728   4.003   6.619   9.591
95965SOL    HW289729   4.032   6.695   9.463
95966SOL     OW89730   1.689   1.024   1.178
95966SOL    HW189731   1.651   1.040   1.092
95966SOL    HW289732   1.627   0.967   1.222
95967SOL     OW89733   9.139  13.602  11.325
95967SOL    HW189734   9.077  13.590  11.254
95967SOL    HW289735   9.224  13.608  11.282
95968SOL     OW89736   8.463  14.545   6.490
95968SOL    HW189737   8.517  14.623   6.478
95968SOL    HW289738   8.507  14.477   6.439
95969SOL     OW89739   5.585  12.591   9.741
95969SOL    HW189740   5.627  12.508   9.763
95969SOL    HW289741   5.528  12.609   9.816
95970SOL     OW89742   4.346   9.341   3.549
95970SOL    HW189743   4.369   9.249   3.561
95970SOL    HW289744   4.425   9.389   3.574
95971SOL     OW89745   8.981   0.270   9.672
95971SOL    HW189746   9.060   0.309   9.635
95971SOL    HW289747   8.984   0.294   9.765
95972SOL     OW89748   2.231  13.953   7.602
95972SOL    HW189749   2.243  13.886   7.669
95972SOL    HW289750   2.160  13.919   7.547
95973SOL     OW89751   5.925   5.878   6.229
95973SOL    HW189752   5.920   5.974   6.232
95973SOL    HW289753   5.894   5.855   6.141
95974SOL     OW89754   5.081  12.606   2.543
95974SOL    HW189755   5.071  12.699   2.522
95974SOL    HW289756   5.174  12.596   2.563
95975SOL     OW89757   7.995   0.463   2.544
95975SOL    HW189758   7.960   0.380   2.514
95975SOL    HW289759   8.086   0.444   2.566
95976SOL     OW89760   0.577   1.558  11.946
95976SOL    HW189761   0.507   1.610  11.986
95976SOL    HW289762   0.641   1.547  12.016
95977SOL     OW89763   3.298   7.144   3.737
95977SOL    HW189764   3.315   7.077   3.803
95977SOL    HW289765   3.218   7.114   3.692
95978SOL     OW89766   5.969   7.214   2.184
95978SOL    HW189767   5.995   7.290   2.236
95978SOL    HW289768   5.880   7.194   2.213
95979SOL     OW89769   5.782   5.248  10.710
95979SOL    HW189770   5.801   5.158  10.684
95979SOL    HW289771   5.758   5.291  10.627
95980SOL     OW89772   4.583   4.522   4.164
95980SOL    HW189773   4.508   4.513   4.106
95980SOL    HW289774   4.616   4.433   4.174
95981SOL     OW89775   2.252   1.112   0.319
95981SOL    HW189776   2.209   1.157   0.391
95981SOL    HW289777   2.197   1.131   0.243
95982SOL     OW89778   6.401   9.197  12.444
95982SOL    HW189779   6.476   9.142  12.423
95982SOL    HW289780   6.370   9.229  12.360
95983SOL     OW89781   2.565  11.820   5.975
95983SOL    HW189782   2.487  11.810   6.030
95983SOL    HW289783   2.638  11.803   6.034
95984SOL     OW89784  14.091   0.929   2.981
95984SOL    HW189785  14.080   1.020   3.008
95984SOL    HW289786  14.037   0.879   3.042
95985SOL     OW89787   4.610   6.088   8.871
95985SOL    HW189788   4.619   6.161   8.810
95985SOL    HW289789   4.541   6.034   8.833
95986SOL     OW89790   8.737  12.736  12.052
95986SOL    HW189791   8.757  12.703  12.140
95986SOL    HW289792   8.644  12.760  12.056
95987SOL     OW89793   3.311   8.362   6.791
95987SOL    HW189794   3.308   8.307   6.869
95987SOL    HW289795   3.388   8.419   6.805
95988SOL     OW89796   9.090   1.927   4.312
95988SOL    HW189797   9.143   2.004   4.290
95988SOL    HW289798   9.000   1.959   4.311
95989SOL     OW89799   7.195   8.914  10.411
95989SOL    HW189800   7.188   8.993  10.357
95989SOL    HW289801   7.194   8.946  10.501
95990SOL     OW89802   4.630   8.768  11.343
95990SOL    HW189803   4.714   8.812  11.357
95990SOL    HW289804   4.596   8.804  11.261
95991SOL     OW89805   7.898   7.618   6.569
95991SOL    HW189806   7.949   7.542   6.597
95991SOL    HW289807   7.946   7.653   6.494
95992SOL     OW89808   3.971   6.425   9.715
95992SOL    HW189809   4.040   6.373   9.675
95992SOL    HW289810   3.990   6.422   9.809
95993SOL     OW89811   3.207  12.246  14.099
95993SOL    HW189812   3.164  12.250  14.184
95993SOL    HW289813   3.300  12.235  14.121
95994SOL     OW89814  13.882   3.994   7.269
95994SOL    HW189815  13.846   3.905   7.268
95994SOL    HW289816  13.932   4.000   7.188
95995SOL     OW89817  12.922   8.352   7.659
95995SOL    HW189818  13.011   8.381   7.636
95995SOL    HW289819  12.874   8.433   7.674
95996SOL     OW89820   0.441  10.843  12.351
95996SOL    HW189821   0.430  10.808  12.263
95996SOL    HW289822   0.413  10.773  12.409
95997SOL     OW89823   3.145   4.340   3.442
95997SOL    HW189824   3.179   4.303   3.361
95997SOL    HW289825   3.211   4.318   3.508
95998SOL     OW89826  12.553  11.035   8.197
95998SOL    HW189827  12.547  11.131   8.188
95998SOL    HW289828  12.473  11.003   8.155
95999SOL     OW89829   3.278  11.123   3.493
95999SOL    HW189830   3.243  11.191   3.550
95999SOL    HW289831   3.205  11.061   3.482
96000SOL     OW89832   5.470  10.822  10.805
96000SOL    HW189833   5.502  10.859  10.887
96000SOL    HW289834   5.548  10.791  10.760
96001SOL     OW89835   5.398   9.277   0.713
96001SOL    HW189836   5.462   9.334   0.670
96001SOL    HW289837   5.314   9.317   0.692
96002SOL     OW89838  10.291  11.337   2.725
96002SOL    HW189839  10.239  11.292   2.658
96002SOL    HW289840  10.238  11.412   2.751
96003SOL     OW89841   6.368   7.027  13.049
96003SOL    HW189842   6.387   6.944  13.005
96003SOL    HW289843   6.413   7.021  13.133
96004SOL     OW89844   2.120  12.496  13.130
96004SOL    HW189845   2.132  12.560  13.201
96004SOL    HW289846   2.160  12.537  13.054
96005SOL     OW89847  11.466   2.979   2.560
96005SOL    HW189848  11.390   3.038   2.554
96005SOL    HW289849  11.434   2.903   2.607
96006SOL     OW89850   0.598   8.618  12.731
96006SOL    HW189851   0.522   8.583  12.683
96006SOL    HW289852   0.563   8.643  12.816
96007SOL     OW89853  13.126  13.024  14.404
96007SOL    HW189854  13.210  13.017  14.360
96007SOL    HW289855  13.130  13.108  14.451
96008SOL     OW89856   1.261  12.022   1.361
96008SOL    HW189857   1.240  12.063   1.445
96008SOL    HW289858   1.240  12.089   1.296
96009SOL     OW89859   2.854  14.353   3.178
96009SOL    HW189860   2.794  14.300   3.126
96009SOL    HW289861   2.888  14.292   3.244
96010SOL     OW89862   2.350   8.763   6.203
96010SOL    HW189863   2.413   8.702   6.243
96010SOL    HW289864   2.322   8.719   6.123
96011SOL     OW89865  13.867  13.880   7.016
96011SOL    HW189866  13.847  13.796   6.975
96011SOL    HW289867  13.919  13.928   6.951
96012SOL     OW89868   8.569   9.575   0.807
96012SOL    HW189869   8.572   9.480   0.799
96012SOL    HW289870   8.476   9.597   0.807
96013SOL     OW89871   2.573   8.806   1.489
96013SOL    HW189872   2.552   8.830   1.579
96013SOL    HW289873   2.642   8.740   1.497
96014SOL     OW89874   7.762   3.677   8.733
96014SOL    HW189875   7.751   3.731   8.654
96014SOL    HW289876   7.779   3.740   8.803
96015SOL     OW89877  11.634  11.854   1.780
96015SOL    HW189878  11.666  11.809   1.703
96015SOL    HW289879  11.684  11.936   1.783
96016SOL     OW89880   8.376   8.679   2.622
96016SOL    HW189881   8.339   8.626   2.550
96016SOL    HW289882   8.301   8.729   2.655
96017SOL     OW89883   3.974   8.705   3.855
96017SOL    HW189884   3.980   8.644   3.928
96017SOL    HW289885   4.014   8.786   3.888
96018SOL     OW89886   7.237   4.533   5.866
96018SOL    HW189887   7.258   4.598   5.933
96018SOL    HW289888   7.144   4.547   5.848
96019SOL     OW89889  14.040   7.878  10.454
96019SOL    HW189890  14.077   7.795  10.423
96019SOL    HW289891  13.987   7.910  10.381
96020SOL     OW89892   0.772   0.067  12.465
96020SOL    HW189893   0.719  14.866  12.493
96020SOL    HW289894   0.824   0.091  12.542
96021SOL     OW89895   0.466  10.511   5.534
96021SOL    HW189896   0.379  10.506   5.494
96021SOL    HW289897   0.521  10.548   5.465
96022SOL     OW89898   8.404  11.025   8.310
96022SOL    HW189899   8.398  10.934   8.340
96022SOL    HW289900   8.315  11.058   8.314
96023SOL     OW89901   7.918   5.256   0.321
96023SOL    HW189902   8.010   5.271   0.299
96023SOL    HW289903   7.904   5.163   0.303
96024SOL     OW89904  12.838   4.926  12.108
96024SOL    HW189905  12.843   4.877  12.189
96024SOL    HW289906  12.771   4.879  12.056
96025SOL     OW89907  10.604  11.902   6.778
96025SOL    HW189908  10.560  11.831   6.732
96025SOL    HW289909  10.535  11.967   6.792
96026SOL     OW89910   1.773  12.997  12.865
96026SOL    HW189911   1.758  13.091  12.852
96026SOL    HW289912   1.812  12.968  12.783
96027SOL     OW89913   7.475   4.461   1.835
96027SOL    HW189914   7.513   4.424   1.755
96027SOL    HW289915   7.550   4.496   1.883
96028SOL     OW89916   3.410   3.911   3.406
96028SOL    HW189917   3.428   3.817   3.412
96028SOL    HW289918   3.350   3.929   3.478
96029SOL     OW89919   3.733   0.891  11.977
96029SOL    HW189920   3.750   0.824  12.044
96029SOL    HW289921   3.668   0.851  11.919
96030SOL     OW89922   4.304  11.243   7.650
96030SOL    HW189923   4.307  11.329   7.606
96030SOL    HW289924   4.215  11.235   7.682
96031SOL     OW89925   9.244  11.529  10.459
96031SOL    HW189926   9.246  11.500  10.551
96031SOL    HW289927   9.160  11.495  10.426
96032SOL     OW89928   9.549   2.863  14.728
96032SOL    HW189929   9.616   2.797  14.747
96032SOL    HW289930   9.513   2.836  14.643
96033SOL     OW89931   4.540   7.789  12.131
96033SOL    HW189932   4.461   7.828  12.168
96033SOL    HW289933   4.582   7.745  12.204
96034SOL     OW89934   0.659   5.722   8.436
96034SOL    HW189935   0.633   5.767   8.355
96034SOL    HW289936   0.576   5.704   8.480
96035SOL     OW89937  13.836   8.664   7.762
96035SOL    HW189938  13.783   8.594   7.801
96035SOL    HW289939  13.925   8.629   7.761
96036SOL     OW89940   9.023   7.292  14.467
96036SOL    HW189941   9.069   7.290  14.382
96036SOL    HW289942   8.937   7.329  14.446
96037SOL     OW89943   1.043   5.215   0.476
96037SOL    HW189944   1.049   5.255   0.389
96037SOL    HW289945   1.125   5.240   0.520
96038SOL     OW89946   4.113  10.646  14.449
96038SOL    HW189947   4.029  10.653  14.495
96038SOL    HW289948   4.150  10.735  14.455
96039SOL     OW89949   1.178  12.593   5.094
96039SOL    HW189950   1.209  12.637   5.015
96039SOL    HW289951   1.134  12.662   5.144
96040SOL     OW89952   1.207   6.398  12.068
96040SOL    HW189953   1.235   6.327  12.010
96040SOL    HW289954   1.261   6.473  12.042
96041SOL     OW89955   9.667  14.417  14.416
96041SOL    HW189956   9.572  14.419  14.419
96041SOL    HW289957   9.695  14.477  14.486
96042SOL     OW89958   7.954   0.253  12.550
96042SOL    HW189959   7.948   0.231  12.456
96042SOL    HW289960   8.007   0.183  12.587
96043SOL     OW89961   5.784  11.761   4.174
96043SOL    HW189962   5.747  11.808   4.099
96043SOL    HW289963   5.833  11.828   4.222
96044SOL     OW89964  13.294   4.766   1.397
96044SOL    HW189965  13.377   4.719   1.393
96044SOL    HW289966  13.277   4.776   1.491
96045SOL     OW89967   0.261   8.673   3.348
96045SOL    HW189968   0.224   8.707   3.429
96045SOL    HW289969   0.354   8.658   3.368
96046SOL     OW89970   2.056   8.552   1.421
96046SOL    HW189971   2.124   8.591   1.366
96046SOL    HW289972   1.985   8.617   1.421
96047SOL     OW89973   1.107  14.799   8.672
96047SOL    HW189974   1.161   0.003   8.693
96047SOL    HW289975   1.164  14.742   8.621
96048SOL     OW89976   1.183   2.630   0.986
96048SOL    HW189977   1.248   2.610   1.052
96048SOL    HW289978   1.176   2.726   0.987
96049SOL     OW89979   8.093   2.659   9.923
96049SOL    HW189980   8.143   2.685   9.846
96049SOL    HW289981   8.122   2.570   9.942
96050SOL     OW89982   2.418   4.376   2.686
96050SOL    HW189983   2.423   4.466   2.653
96050SOL    HW289984   2.346   4.337   2.636
96051SOL     OW89985   2.036   3.076   7.534
96051SOL    HW189986   2.122   3.104   7.502
96051SOL    HW289987   2.038   3.097   7.627
96052SOL     OW89988  12.303  14.690   6.171
96052SOL    HW189989  12.330  14.599   6.164
96052SOL    HW289990  12.254  14.707   6.090
96053SOL     OW89991  13.840   6.725   1.387
96053SOL    HW189992  13.840   6.778   1.466
96053SOL    HW289993  13.803   6.782   1.319
96054SOL     OW89994   1.451  11.044   8.063
96054SOL    HW189995   1.410  11.115   8.012
96054SOL    HW289996   1.451  10.969   8.003
96055SOL     OW89997  14.333   7.061  13.035
96055SOL    HW189998  14.237   7.063  13.031
96055SOL    HW289999  14.353   7.002  13.108
96056SOL     OW90000  13.022  12.972   9.428
96056SOL    HW190001  12.927  12.961   9.431
96056SOL    HW290002  13.043  12.976   9.335
96057SOL     OW90003   6.969  11.988  13.979
96057SOL    HW190004   6.935  12.072  14.010
96057SOL    HW290005   7.009  11.949  14.056
96058SOL     OW90006   4.004   4.220   2.559
96058SOL    HW190007   3.942   4.279   2.515
96058SOL    HW290008   4.001   4.246   2.651
96059SOL     OW90009   0.483   4.059   0.633
96059SOL    HW190010   0.575   4.035   0.621
96059SOL    HW290011   0.482   4.109   0.715
96060SOL     OW90012   4.303   8.712   5.661
96060SOL    HW190013   4.389   8.669   5.664
96060SOL    HW290014   4.268   8.701   5.750
96061SOL     OW90015  14.202   8.425   4.311
96061SOL    HW190016  14.213   8.384   4.225
96061SOL    HW290017  14.122   8.386   4.346
96062SOL     OW90018   9.326  13.728   3.327
96062SOL    HW190019   9.322  13.755   3.235
96062SOL    HW290020   9.235  13.712   3.352
96063SOL     OW90021  10.116   8.339   6.901
96063SOL    HW190022  10.206   8.347   6.932
96063SOL    HW290023  10.087   8.429   6.887
96064SOL     OW90024   3.245  11.948  12.946
96064SOL    HW190025   3.268  11.993  13.028
96064SOL    HW290026   3.326  11.905  12.920
96065SOL     OW90027   2.384   6.435   0.421
96065SOL    HW190028   2.418   6.346   0.426
96065SOL    HW290029   2.450   6.482   0.370
96066SOL     OW90030   0.147   7.117  10.181
96066SOL    HW190031   0.119   7.061  10.108
96066SOL    HW290032   0.219   7.068  10.221
96067SOL     OW90033   0.855  11.669   4.614
96067SOL    HW190034   0.903  11.752   4.607
96067SOL    HW290035   0.814  11.673   4.701
96068SOL     OW90036  13.147  12.825  12.598
96068SOL    HW190037  13.158  12.894  12.664
96068SOL    HW290038  13.208  12.756  12.625
96069SOL     OW90039   4.741   5.812  13.253
96069SOL    HW190040   4.793   5.891  13.237
96069SOL    HW290041   4.768   5.751  13.184
96070SOL     OW90042   8.864   8.454   5.135
96070SOL    HW190043   8.793   8.410   5.182
96070SOL    HW290044   8.870   8.409   5.051
96071SOL     OW90045   5.211   3.298   6.831
96071SOL    HW190046   5.150   3.372   6.834
96071SOL    HW290047   5.199   3.262   6.743
96072SOL     OW90048   8.819  10.006  12.604
96072SOL    HW190049   8.776   9.969  12.527
96072SOL    HW290050   8.858   9.931  12.649
96073SOL     OW90051   7.918  11.406  12.095
96073SOL    HW190052   7.943  11.498  12.105
96073SOL    HW290053   7.899  11.396  12.001
96074SOL     OW90054   7.369   2.857   0.865
96074SOL    HW190055   7.409   2.882   0.782
96074SOL    HW290056   7.439   2.810   0.912
96075SOL     OW90057  13.684   5.643   4.061
96075SOL    HW190058  13.767   5.622   4.017
96075SOL    HW290059  13.707   5.652   4.153
96076SOL     OW90060  13.715   5.467  14.328
96076SOL    HW190061  13.665   5.386  14.325
96076SOL    HW290062  13.796   5.447  14.282
96077SOL     OW90063   8.556   3.220   1.117
96077SOL    HW190064   8.634   3.198   1.067
96077SOL    HW290065   8.584   3.221   1.208
96078SOL     OW90066   7.580  12.998   4.843
96078SOL    HW190067   7.665  13.039   4.824
96078SOL    HW290068   7.544  12.977   4.757
96079SOL     OW90069  13.690  12.307   8.306
96079SOL    HW190070  13.728  12.316   8.218
96079SOL    HW290071  13.733  12.375   8.358
96080SOL     OW90072   3.217   0.497  14.584
96080SOL    HW190073   3.214   0.558  14.657
96080SOL    HW290074   3.145   0.524  14.527
96081SOL     OW90075   1.663   8.512   5.078
96081SOL    HW190076   1.620   8.433   5.045
96081SOL    HW290077   1.740   8.480   5.125
96082SOL     OW90078  11.246   3.498   5.514
96082SOL    HW190079  11.238   3.425   5.574
96082SOL    HW290080  11.289   3.461   5.436
96083SOL     OW90081  10.898  12.643   5.803
96083SOL    HW190082  10.964  12.690   5.752
96083SOL    HW290083  10.821  12.641   5.746
96084SOL     OW90084   9.523   9.508   7.841
96084SOL    HW190085   9.434   9.508   7.877
96084SOL    HW290086   9.556   9.420   7.856
96085SOL     OW90087   5.011  13.353   4.423
96085SOL    HW190088   4.963  13.396   4.353
96085SOL    HW290089   5.101  13.345   4.389
96086SOL     OW90090   5.298  12.182  13.537
96086SOL    HW190091   5.377  12.212  13.582
96086SOL    HW290092   5.231  12.246  13.559
96087SOL     OW90093   7.891  14.795   2.080
96087SOL    HW190094   7.959  14.807   2.146
96087SOL    HW290095   7.916  14.715   2.034
96088SOL     OW90096  11.398  11.223   6.991
96088SOL    HW190097  11.433  11.185   6.911
96088SOL    HW290098  11.317  11.267   6.964
96089SOL     OW90099   1.229   0.593   6.625
96089SOL    HW190100   1.145   0.561   6.659
96089SOL    HW290101   1.281   0.514   6.612
96090SOL     OW90102   3.393   2.265   0.307
96090SOL    HW190103   3.318   2.232   0.356
96090SOL    HW290104   3.444   2.187   0.286
96091SOL     OW90105   1.860   7.837   7.899
96091SOL    HW190106   1.853   7.751   7.857
96091SOL    HW290107   1.923   7.884   7.845
96092SOL     OW90108  13.496  12.200   4.200
96092SOL    HW190109  13.454  12.240   4.124
96092SOL    HW290110  13.576  12.251   4.213
96093SOL     OW90111   7.469  14.337  10.910
96093SOL    HW190112   7.550  14.343  10.961
96093SOL    HW290113   7.457  14.426  10.875
96094SOL     OW90114   0.103   8.396   8.175
96094SOL    HW190115   0.171   8.420   8.238
96094SOL    HW290116   0.059   8.320   8.214
96095SOL     OW90117   4.139   0.648   2.360
96095SOL    HW190118   4.120   0.633   2.267
96095SOL    HW290119   4.075   0.714   2.386
96096SOL     OW90120   0.070   1.617   6.517
96096SOL    HW190121   0.031   1.545   6.566
96096SOL    HW290122   0.164   1.608   6.532
96097SOL     OW90123   2.587  14.644  11.456
96097SOL    HW190124   2.562  14.574  11.396
96097SOL    HW290125   2.506  14.695  11.469
96098SOL     OW90126  12.507   2.739   4.564
96098SOL    HW190127  12.522   2.817   4.618
96098SOL    HW290128  12.594   2.700   4.554
96099SOL     OW90129   1.910  10.240   1.522
96099SOL    HW190130   1.834  10.290   1.494
96099SOL    HW290131   1.979  10.305   1.532
96100SOL     OW90132  12.554  12.205   3.926
96100SOL    HW190133  12.511  12.288   3.905
96100SOL    HW290134  12.502  12.139   3.880
96101SOL     OW90135   7.549   1.438  13.953
96101SOL    HW190136   7.595   1.465  14.032
96101SOL    HW290137   7.611   1.455  13.882
96102SOL     OW90138   3.772  13.225   6.433
96102SOL    HW190139   3.735  13.178   6.358
96102SOL    HW290140   3.728  13.310   6.432
96103SOL     OW90141   1.646   1.109   9.808
96103SOL    HW190142   1.714   1.060   9.854
96103SOL    HW290143   1.679   1.199   9.808
96104SOL     OW90144   2.056   6.160   2.759
96104SOL    HW190145   2.053   6.256   2.762
96104SOL    HW290146   2.000   6.133   2.831
96105SOL     OW90147   8.403  10.821   7.244
96105SOL    HW190148   8.379  10.893   7.185
96105SOL    HW290149   8.490  10.794   7.214
96106SOL     OW90150   1.352   1.097   0.744
96106SOL    HW190151   1.313   1.098   0.657
96106SOL    HW290152   1.277   1.093   0.804
96107SOL     OW90153  13.613   6.012  12.370
96107SOL    HW190154  13.585   6.086  12.316
96107SOL    HW290155  13.709   6.011  12.361
96108SOL     OW90156   5.185  11.421   5.726
96108SOL    HW190157   5.178  11.328   5.704
96108SOL    HW290158   5.258  11.425   5.788
96109SOL     OW90159   6.028  12.284  14.360
96109SOL    HW190160   5.937  12.254  14.351
96109SOL    HW290161   6.028  12.372  14.322
96110SOL     OW90162   3.515   3.188   5.104
96110SOL    HW190163   3.581   3.256   5.095
96110SOL    HW290164   3.450   3.225   5.163
96111SOL     OW90165   2.218   5.768  11.162
96111SOL    HW190166   2.276   5.720  11.221
96111SOL    HW290167   2.220   5.718  11.081
96112SOL     OW90168   1.744   4.573   9.586
96112SOL    HW190169   1.727   4.601   9.496
96112SOL    HW290170   1.713   4.646   9.640
96113SOL     OW90171   5.822   9.308   2.085
96113SOL    HW190172   5.748   9.316   2.145
96113SOL    HW290173   5.804   9.372   2.017
96114SOL     OW90174   4.954   6.739   5.764
96114SOL    HW190175   4.914   6.658   5.795
96114SOL    HW290176   4.880   6.796   5.744
96115SOL     OW90177   7.818   7.119   2.196
96115SOL    HW190178   7.878   7.189   2.222
96115SOL    HW290179   7.875   7.045   2.176
96116SOL     OW90180   9.752   1.364   0.622
96116SOL    HW190181   9.685   1.348   0.688
96116SOL    HW290182   9.832   1.327   0.660
96117SOL     OW90183   4.952  10.071   0.656
96117SOL    HW190184   4.950  10.087   0.562
96117SOL    HW290185   4.861  10.085   0.685
96118SOL     OW90186  10.451   9.809   5.741
96118SOL    HW190187  10.365   9.849   5.726
96118SOL    HW290188  10.432   9.716   5.749
96119SOL     OW90189  10.155  14.022   5.358
96119SOL    HW190190  10.090  13.956   5.380
96119SOL    HW290191  10.162  14.077   5.436
96120SOL     OW90192   7.607   3.019  14.424
96120SOL    HW190193   7.689   3.068  14.430
96120SOL    HW290194   7.544   3.070  14.474
96121SOL     OW90195   7.274   8.761   7.181
96121SOL    HW190196   7.277   8.671   7.149
96121SOL    HW290197   7.206   8.803   7.128
96122SOL     OW90198   2.683   8.358   8.882
96122SOL    HW190199   2.725   8.301   8.947
96122SOL    HW290200   2.756   8.397   8.834
96123SOL     OW90201   7.935   2.344  12.498
96123SOL    HW190202   8.015   2.350  12.550
96123SOL    HW290203   7.894   2.430  12.509
96124SOL     OW90204   9.848  10.476  12.083
96124SOL    HW190205   9.753  10.463  12.076
96124SOL    HW290206   9.860  10.570  12.067
96125SOL     OW90207   8.224   7.214  12.964
96125SOL    HW190208   8.259   7.294  13.005
96125SOL    HW290209   8.297   7.179  12.913
96126SOL     OW90210   8.708   4.280   3.839
96126SOL    HW190211   8.781   4.326   3.881
96126SOL    HW290212   8.695   4.325   3.756
96127SOL     OW90213  14.344   2.894   4.198
96127SOL    HW190214  14.285   2.888   4.273
96127SOL    HW290215  14.413   2.954   4.226
96128SOL     OW90216   8.100  10.159   9.258
96128SOL    HW190217   8.078  10.066   9.250
96128SOL    HW290218   8.020  10.199   9.291
96129SOL     OW90219  13.121   2.612   8.553
96129SOL    HW190220  13.208   2.581   8.527
96129SOL    HW290221  13.136   2.659   8.634
96130SOL     OW90222   6.648  11.057   3.523
96130SOL    HW190223   6.648  10.965   3.551
96130SOL    HW290224   6.559  11.087   3.542
96131SOL     OW90225  13.756   0.228  13.938
96131SOL    HW190226  13.677   0.175  13.951
96131SOL    HW290227  13.809   0.211  14.016
96132SOL     OW90228  13.778   0.961   8.568
96132SOL    HW190229  13.816   1.016   8.637
96132SOL    HW290230  13.687   0.989   8.562
96133SOL     OW90231   0.944   3.919   4.911
96133SOL    HW190232   0.960   3.845   4.852
96133SOL    HW290233   0.848   3.930   4.911
96134SOL     OW90234   8.012   7.931  13.902
96134SOL    HW190235   7.971   7.847  13.883
96134SOL    HW290236   7.995   7.946  13.995
96135SOL     OW90237   8.740   9.945  10.606
96135SOL    HW190238   8.710   9.928  10.517
96135SOL    HW290239   8.668   9.993  10.646
96136SOL     OW90240   3.790   1.432   5.751
96136SOL    HW190241   3.848   1.392   5.686
96136SOL    HW290242   3.762   1.358   5.805
96137SOL     OW90243   8.615   8.631   2.961
96137SOL    HW190244   8.676   8.691   3.004
96137SOL    HW290245   8.660   8.546   2.965
96138SOL     OW90246  13.669  11.346   8.855
96138SOL    HW190247  13.630  11.301   8.780
96138SOL    HW290248  13.594  11.372   8.909
96139SOL     OW90249   1.877   8.740   2.921
96139SOL    HW190250   1.924   8.714   3.000
96139SOL    HW290251   1.786   8.718   2.939
96140SOL     OW90252  13.224   6.617   2.555
96140SOL    HW190253  13.140   6.662   2.569
96140SOL    HW290254  13.281   6.652   2.624
96141SOL     OW90255   5.723   4.477  12.679
96141SOL    HW190256   5.634   4.467  12.712
96141SOL    HW290257   5.773   4.508  12.754
96142SOL     OW90258   0.032   2.935  11.569
96142SOL    HW190259  14.838   2.868  11.558
96142SOL    HW290260   0.092   2.923  11.495
96143SOL     OW90261  11.714  13.012  13.203
96143SOL    HW190262  11.662  13.092  13.215
96143SOL    HW290263  11.777  13.035  13.135
96144SOL     OW90264   3.895   3.581  13.161
96144SOL    HW190265   3.842   3.631  13.099
96144SOL    HW290266   3.839   3.570  13.237
96145SOL     OW90267   3.756   0.266   6.504
96145SOL    HW190268   3.719   0.353   6.515
96145SOL    HW290269   3.781   0.239   6.592
96146SOL     OW90270   8.889   4.778   9.681
96146SOL    HW190271   8.810   4.830   9.688
96146SOL    HW290272   8.896   4.732   9.765
96147SOL     OW90273   7.983   0.663   6.587
96147SOL    HW190274   7.924   0.594   6.618
96147SOL    HW290275   8.020   0.628   6.506
96148SOL     OW90276   6.940  13.152  14.510
96148SOL    HW190277   6.876  13.223  14.499
96148SOL    HW290278   6.968  13.159  14.601
96149SOL     OW90279   3.212  10.980  10.864
96149SOL    HW190280   3.224  11.013  10.953
96149SOL    HW290281   3.129  10.932  10.868
96150SOL     OW90282  10.183  12.093  13.508
96150SOL    HW190283  10.104  12.129  13.468
96150SOL    HW290284  10.160  12.003  13.530
96151SOL     OW90285  13.868   5.171   4.304
96151SOL    HW190286  13.880   5.103   4.371
96151SOL    HW290287  13.783   5.152   4.265
96152SOL     OW90288   5.671   9.570   5.098
96152SOL    HW190289   5.761   9.591   5.073
96152SOL    HW290290   5.670   9.581   5.193
96153SOL     OW90291  11.849   3.979   3.341
96153SOL    HW190292  11.850   3.931   3.424
96153SOL    HW290293  11.834   4.070   3.366
96154SOL     OW90294   6.330   2.286   4.055
96154SOL    HW190295   6.305   2.377   4.067
96154SOL    HW290296   6.307   2.266   3.964
96155SOL     OW90297   3.801   8.635   7.345
96155SOL    HW190298   3.748   8.653   7.267
96155SOL    HW290299   3.829   8.544   7.335
96156SOL     OW90300   0.635  10.071   9.849
96156SOL    HW190301   0.543  10.099   9.842
96156SOL    HW290302   0.643  10.001   9.785
96157SOL     OW90303   1.397  12.044  13.724
96157SOL    HW190304   1.407  11.957  13.685
96157SOL    HW290305   1.481  12.087  13.709
96158SOL     OW90306   0.019  10.113   3.229
96158SOL    HW190307   0.006  10.113   3.134
96158SOL    HW290308  14.808  10.086   3.266
96159SOL     OW90309  11.312   3.934  10.028
96159SOL    HW190310  11.226   3.922   9.987
96159SOL    HW290311  11.374   3.922   9.957
96160SOL     OW90312  11.030  12.559   5.210
96160SOL    HW190313  10.941  12.543   5.242
96160SOL    HW290314  11.082  12.570   5.290
96161SOL     OW90315  11.754  11.444  11.079
96161SOL    HW190316  11.745  11.400  11.163
96161SOL    HW290317  11.753  11.537  11.100
96162SOL     OW90318  11.153   1.724  13.011
96162SOL    HW190319  11.125   1.720  12.919
96162SOL    HW290320  11.214   1.797  13.015
96163SOL     OW90321   6.323   3.553  10.141
96163SOL    HW190322   6.349   3.608  10.068
96163SOL    HW290323   6.274   3.481  10.101
96164SOL     OW90324   3.012   1.705   7.910
96164SOL    HW190325   2.939   1.650   7.880
96164SOL    HW290326   3.035   1.757   7.833
96165SOL     OW90327  14.556   7.123   7.813
96165SOL    HW190328  14.509   7.167   7.884
96165SOL    HW290329  14.644   7.159   7.816
96166SOL     OW90330   4.661   2.528   4.381
96166SOL    HW190331   4.713   2.586   4.326
96166SOL    HW290332   4.715   2.515   4.459
96167SOL     OW90333  13.286  13.677   9.112
96167SOL    HW190334  13.247  13.735   9.177
96167SOL    HW290335  13.352  13.627   9.160
96168SOL     OW90336  11.533   2.263  13.816
96168SOL    HW190337  11.500   2.271  13.906
96168SOL    HW290338  11.627   2.247  13.827
96169SOL     OW90339   8.871  10.391   2.559
96169SOL    HW190340   8.953  10.433   2.532
96169SOL    HW290341   8.814  10.400   2.483
96170SOL     OW90342   8.350   1.821   8.235
96170SOL    HW190343   8.347   1.847   8.327
96170SOL    HW290344   8.364   1.903   8.187
96171SOL     OW90345   3.658  11.947   2.985
96171SOL    HW190346   3.666  11.923   2.892
96171SOL    HW290347   3.746  11.932   3.021
96172SOL     OW90348   7.966   2.729  13.704
96172SOL    HW190349   7.981   2.645  13.661
96172SOL    HW290350   7.932   2.785  13.635
96173SOL     OW90351  11.375  12.011  13.888
96173SOL    HW190352  11.335  12.079  13.834
96173SOL    HW290353  11.311  11.941  13.890
96174SOL     OW90354   0.078   6.943   0.017
96174SOL    HW190355   0.089   6.853   0.046
96174SOL    HW290356   0.166   6.981   0.022
96175SOL     OW90357   6.137  12.859  12.054
96175SOL    HW190358   6.052  12.892  12.084
96175SOL    HW290359   6.182  12.937  12.021
96176SOL     OW90360   0.372   2.028   6.383
96176SOL    HW190361   0.390   2.092   6.315
96176SOL    HW290362   0.295   1.981   6.352
96177SOL     OW90363  11.111   3.429  12.880
96177SOL    HW190364  11.155   3.423  12.965
96177SOL    HW290365  11.150   3.506  12.838
96178SOL     OW90366   4.380  13.826   3.059
96178SOL    HW190367   4.311  13.882   3.024
96178SOL    HW290368   4.437  13.807   2.984
96179SOL     OW90369   8.136   1.234   9.119
96179SOL    HW190370   8.150   1.328   9.130
96179SOL    HW290371   8.042   1.226   9.100
96180SOL     OW90372  12.173   4.403   5.572
96180SOL    HW190373  12.234   4.476   5.577
96180SOL    HW290374  12.228   4.326   5.556
96181SOL     OW90375   4.861   2.154   5.282
96181SOL    HW190376   4.840   2.231   5.230
96181SOL    HW290377   4.808   2.163   5.361
96182SOL     OW90378  11.800  13.033  11.178
96182SOL    HW190379  11.742  12.961  11.204
96182SOL    HW290380  11.758  13.072  11.102
96183SOL     OW90381   6.946   0.173   5.490
96183SOL    HW190382   6.878   0.214   5.543
96183SOL    HW290383   6.983   0.106   5.546
96184SOL     OW90384   0.446   4.232  14.483
96184SOL    HW190385   0.488   4.186  14.411
96184SOL    HW290386   0.360   4.189  14.491
96185SOL     OW90387   5.310   6.663   5.972
96185SOL    HW190388   5.282   6.580   6.010
96185SOL    HW290389   5.239   6.724   5.993
96186SOL     OW90390   8.911   2.474  10.110
96186SOL    HW190391   8.990   2.420  10.117
96186SOL    HW290392   8.856   2.446  10.182
96187SOL     OW90393   0.716   9.112   0.828
96187SOL    HW190394   0.685   9.157   0.907
96187SOL    HW290395   0.637   9.102   0.774
96188SOL     OW90396  14.763  13.835  11.785
96188SOL    HW190397  14.822  13.777  11.832
96188SOL    HW290398  14.816  13.911  11.762
96189SOL     OW90399   7.582   7.292  13.210
96189SOL    HW190400   7.661   7.244  13.235
96189SOL    HW290401   7.528   7.293  13.289
96190SOL     OW90402   9.690  13.286  11.191
96190SOL    HW190403   9.683  13.217  11.258
96190SOL    HW290404   9.764  13.259  11.137
96191SOL     OW90405   1.202  10.374   7.457
96191SOL    HW190406   1.166  10.444   7.403
96191SOL    HW290407   1.296  10.374   7.437
96192SOL     OW90408   9.772  13.944   5.815
96192SOL    HW190409   9.854  13.902   5.843
96192SOL    HW290410   9.739  13.888   5.746
96193SOL     OW90411   0.214  11.073  11.769
96193SOL    HW190412   0.300  11.094  11.734
96193SOL    HW290413   0.232  11.031  11.854
96194SOL     OW90414  11.330   1.904   2.104
96194SOL    HW190415  11.239   1.909   2.135
96194SOL    HW290416  11.323   1.862   2.018
96195SOL     OW90417   4.981   3.539   7.285
96195SOL    HW190418   4.912   3.487   7.326
96195SOL    HW290419   4.951   3.629   7.292
96196SOL     OW90420  14.667   5.227   0.933
96196SOL    HW190421  14.757   5.196   0.940
96196SOL    HW290422  14.662   5.267   0.846
96197SOL     OW90423   1.945   2.536  12.948
96197SOL    HW190424   1.894   2.460  12.920
96197SOL    HW290425   1.922   2.548  13.040
96198SOL     OW90426   2.558   7.780   7.348
96198SOL    HW190427   2.598   7.708   7.397
96198SOL    HW290428   2.594   7.859   7.388
96199SOL     OW90429   7.129   7.508  11.681
96199SOL    HW190430   7.042   7.527  11.716
96199SOL    HW290431   7.113   7.479  11.591
96200SOL     OW90432   0.271   7.126   5.638
96200SOL    HW190433   0.362   7.119   5.666
96200SOL    HW290434   0.276   7.153   5.546
96201SOL     OW90435   4.662   7.495  10.690
96201SOL    HW190436   4.641   7.560  10.622
96201SOL    HW290437   4.608   7.521  10.765
96202SOL     OW90438   0.547   6.603   2.465
96202SOL    HW190439   0.571   6.668   2.399
96202SOL    HW290440   0.458   6.627   2.492
96203SOL     OW90441   7.566  12.725   9.959
96203SOL    HW190442   7.657  12.751   9.966
96203SOL    HW290443   7.543  12.693  10.047
96204SOL     OW90444  10.063   0.790   9.604
96204SOL    HW190445  10.068   0.884   9.621
96204SOL    HW290446   9.969   0.770   9.609
96205SOL     OW90447   0.417  10.355   0.966
96205SOL    HW190448   0.493  10.310   0.929
96205SOL    HW290449   0.341  10.310   0.928
96206SOL     OW90450   3.565   0.110   8.467
96206SOL    HW190451   3.544   0.061   8.546
96206SOL    HW290452   3.658   0.130   8.475
96207SOL     OW90453   3.404  14.469   4.147
96207SOL    HW190454   3.367  14.527   4.080
96207SOL    HW290455   3.433  14.528   4.217
96208SOL     OW90456  14.165   5.545   1.041
96208SOL    HW190457  14.142   5.633   1.011
96208SOL    HW290458  14.150   5.489   0.965
96209SOL     OW90459   9.619  10.420   9.372
96209SOL    HW190460   9.694  10.473   9.345
96209SOL    HW290461   9.563  10.480   9.420
96210SOL     OW90462   3.024  14.396   6.406
96210SOL    HW190463   2.934  14.372   6.383
96210SOL    HW290464   3.073  14.314   6.402
96211SOL     OW90465   5.405   6.880   0.069
96211SOL    HW190466   5.411   6.850   0.160
96211SOL    HW290467   5.350   6.958   0.072
96212SOL     OW90468   6.389   5.458   6.285
96212SOL    HW190469   6.320   5.495   6.339
96212SOL    HW290470   6.446   5.532   6.264
96213SOL     OW90471   7.251   4.814   1.182
96213SOL    HW190472   7.233   4.905   1.156
96213SOL    HW290473   7.190   4.797   1.253
96214SOL     OW90474  13.072   1.089  13.711
96214SOL    HW190475  13.134   1.019  13.731
96214SOL    HW290476  13.065   1.139  13.793
96215SOL     OW90477   2.655  10.856   2.085
96215SOL    HW190478   2.689  10.774   2.121
96215SOL    HW290479   2.560  10.847   2.089
96216SOL     OW90480   0.913   4.559  11.874
96216SOL    HW190481   0.999   4.599  11.887
96216SOL    HW290482   0.875   4.553  11.962
96217SOL     OW90483   3.643   8.102  12.767
96217SOL    HW190484   3.704   8.164  12.808
96217SOL    HW290485   3.677   8.016  12.789
96218SOL     OW90486   1.246   9.052   1.536
96218SOL    HW190487   1.220   9.137   1.501
96218SOL    HW290488   1.235   8.991   1.463
96219SOL     OW90489  12.947   5.882   7.619
96219SOL    HW190490  13.023   5.831   7.590
96219SOL    HW290491  12.946   5.958   7.561
96220SOL     OW90492   4.542   0.772   3.521
96220SOL    HW190493   4.477   0.801   3.457
96220SOL    HW290494   4.547   0.677   3.510
96221SOL     OW90495   6.785   1.125  13.038
96221SOL    HW190496   6.878   1.146  13.037
96221SOL    HW290497   6.742   1.210  13.051
96222SOL     OW90498   4.471   4.144  10.855
96222SOL    HW190499   4.448   4.234  10.877
96222SOL    HW290500   4.550   4.152  10.801
96223SOL     OW90501   1.091   5.425   2.519
96223SOL    HW190502   1.060   5.375   2.594
96223SOL    HW290503   1.017   5.480   2.494
96224SOL     OW90504   9.017  13.015  12.971
96224SOL    HW190505   9.004  12.957  12.896
96224SOL    HW290506   9.000  13.103  12.936
96225SOL     OW90507   9.416  10.568   6.050
96225SOL    HW190508   9.382  10.498   6.105
96225SOL    HW290509   9.339  10.620   6.028
96226SOL     OW90510   8.056   3.993   2.563
96226SOL    HW190511   8.034   4.084   2.544
96226SOL    HW290512   8.052   3.986   2.658
96227SOL     OW90513   3.865  10.618   3.242
96227SOL    HW190514   3.772  10.610   3.221
96227SOL    HW290515   3.871  10.587   3.333
96228SOL     OW90516  13.583   0.279  14.704
96228SOL    HW190517  13.646   0.209  14.687
96228SOL    HW290518  13.554   0.308  14.617
96229SOL     OW90519   7.084  13.386   9.364
96229SOL    HW190520   7.062  13.411   9.454
96229SOL    HW290521   7.066  13.465   9.313
96230SOL     OW90522  12.416  11.047   9.736
96230SOL    HW190523  12.423  10.956   9.708
96230SOL    HW290524  12.473  11.053   9.813
96231SOL     OW90525  14.547   3.511   3.515
96231SOL    HW190526  14.494   3.470   3.583
96231SOL    HW290527  14.527   3.463   3.435
96232SOL     OW90528  12.312  13.246   2.854
96232SOL    HW190529  12.361  13.171   2.888
96232SOL    HW290530  12.350  13.263   2.768
96233SOL     OW90531   9.766   0.439  11.793
96233SOL    HW190532   9.692   0.421  11.850
96233SOL    HW290533   9.780   0.534  11.800
96234SOL     OW90534   8.144   3.461   8.046
96234SOL    HW190535   8.218   3.518   8.067
96234SOL    HW290536   8.084   3.516   7.996
96235SOL     OW90537   5.881   2.888   5.031
96235SOL    HW190538   5.850   2.978   5.047
96235SOL    HW290539   5.956   2.878   5.090
96236SOL     OW90540  10.837   5.334   6.212
96236SOL    HW190541  10.878   5.255   6.249
96236SOL    HW290542  10.798   5.379   6.287
96237SOL     OW90543   3.418   8.945  10.037
96237SOL    HW190544   3.460   8.898   9.965
96237SOL    HW290545   3.491   8.973  10.093
96238SOL     OW90546   5.922  12.956  12.639
96238SOL    HW190547   5.981  12.881  12.638
96238SOL    HW290548   5.976  13.030  12.610
96239SOL     OW90549   5.919   8.468  13.226
96239SOL    HW190550   5.905   8.448  13.134
96239SOL    HW290551   5.897   8.560  13.235
96240SOL     OW90552  10.229   1.996  12.465
96240SOL    HW190553  10.172   1.923  12.490
96240SOL    HW290554  10.251   2.039  12.548
96241SOL     OW90555   4.139   2.382  13.104
96241SOL    HW190556   4.172   2.359  13.191
96241SOL    HW290557   4.082   2.457  13.118
96242SOL     OW90558   2.338   6.266   4.151
96242SOL    HW190559   2.394   6.321   4.206
96242SOL    HW290560   2.392   6.242   4.076
96243SOL     OW90561  11.097   9.587  10.958
96243SOL    HW190562  11.069   9.565  11.047
96243SOL    HW290563  11.097   9.683  10.956
96244SOL     OW90564   4.577   5.578   1.966
96244SOL    HW190565   4.482   5.570   1.972
96244SOL    HW290566   4.598   5.655   2.019
96245SOL     OW90567   6.926  11.213  11.798
96245SOL    HW190568   6.882  11.195  11.716
96245SOL    HW290569   6.886  11.294  11.830
96246SOL     OW90570  11.400  12.315  12.585
96246SOL    HW190571  11.349  12.254  12.638
96246SOL    HW290572  11.491  12.286  12.596
96247SOL     OW90573  10.890   6.608   2.049
96247SOL    HW190574  10.911   6.517   2.027
96247SOL    HW290575  10.831   6.602   2.124
96248SOL     OW90576   1.148   2.605   0.191
96248SOL    HW190577   1.116   2.669   0.127
96248SOL    HW290578   1.096   2.526   0.173
96249SOL     OW90579   9.153  14.551   4.061
96249SOL    HW190580   9.224  14.494   4.032
96249SOL    HW290581   9.077  14.493   4.070
96250SOL     OW90582   7.456   9.939   1.168
96250SOL    HW190583   7.455   9.887   1.249
96250SOL    HW290584   7.370   9.980   1.165
96251SOL     OW90585   1.899   7.965   6.425
96251SOL    HW190586   1.959   7.898   6.460
96251SOL    HW290587   1.866   7.927   6.344
96252SOL     OW90588  11.399   3.896  13.539
96252SOL    HW190589  11.404   3.970  13.478
96252SOL    HW290590  11.323   3.914  13.593
96253SOL     OW90591   2.011  14.177   3.412
96253SOL    HW190592   1.998  14.219   3.497
96253SOL    HW290593   1.979  14.088   3.424
96254SOL     OW90594   5.560   8.647   6.748
96254SOL    HW190595   5.518   8.642   6.662
96254SOL    HW290596   5.525   8.727   6.787
96255SOL     OW90597  13.959  12.201   1.675
96255SOL    HW190598  13.918  12.124   1.636
96255SOL    HW290599  14.042  12.211   1.627
96256SOL     OW90600   6.921  11.210  10.585
96256SOL    HW190601   6.914  11.270  10.659
96256SOL    HW290602   6.928  11.123  10.626
96257SOL     OW90603  13.878   6.085   5.443
96257SOL    HW190604  13.962   6.040   5.442
96257SOL    HW290605  13.829   6.044   5.514
96258SOL     OW90606  14.303  11.981   3.144
96258SOL    HW190607  14.219  12.028   3.148
96258SOL    HW290608  14.289  11.902   3.197
96259SOL     OW90609   5.071   5.025   3.367
96259SOL    HW190610   5.064   4.989   3.455
96259SOL    HW290611   4.983   5.019   3.331
96260SOL     OW90612   0.484   8.616   6.357
96260SOL    HW190613   0.445   8.550   6.299
96260SOL    HW290614   0.515   8.684   6.297
96261SOL     OW90615   1.120   3.890   6.387
96261SOL    HW190616   1.183   3.873   6.457
96261SOL    HW290617   1.091   3.804   6.359
96262SOL     OW90618  10.723  13.738   8.215
96262SOL    HW190619  10.730  13.682   8.292
96262SOL    HW290620  10.757  13.685   8.143
96263SOL     OW90621  10.994  13.812   9.585
96263SOL    HW190622  10.915  13.843   9.630
96263SOL    HW290623  11.020  13.885   9.529
96264SOL     OW90624  10.728   6.522   7.286
96264SOL    HW190625  10.650   6.549   7.237
96264SOL    HW290626  10.786   6.598   7.282
96265SOL     OW90627   4.204   7.319   9.285
96265SOL    HW190628   4.205   7.223   9.295
96265SOL    HW290629   4.112   7.343   9.300
96266SOL     OW90630   4.215   8.518  10.306
96266SOL    HW190631   4.297   8.553  10.342
96266SOL    HW290632   4.181   8.589  10.252
96267SOL     OW90633   2.520   9.715  13.319
96267SOL    HW190634   2.561   9.703  13.234
96267SOL    HW290635   2.565   9.653  13.377
96268SOL     OW90636  12.950   1.457   7.874
96268SOL    HW190637  12.991   1.482   7.957
96268SOL    HW290638  12.929   1.364   7.885
96269SOL     OW90639  12.637   7.241   0.909
96269SOL    HW190640  12.654   7.312   0.971
96269SOL    HW290641  12.627   7.285   0.824
96270SOL     OW90642  13.564   8.479   4.977
96270SOL    HW190643  13.478   8.462   4.938
96270SOL    HW290644  13.578   8.405   5.036
96271SOL     OW90645   2.326   9.825   5.944
96271SOL    HW190646   2.237   9.807   5.914
96271SOL    HW290647   2.333   9.780   6.028
96272SOL     OW90648   8.722   1.981  14.266
96272SOL    HW190649   8.735   1.984  14.171
96272SOL    HW290650   8.706   1.889  14.285
96273SOL     OW90651   8.926   6.384   7.628
96273SOL    HW190652   8.871   6.308   7.647
96273SOL    HW290653   8.885   6.427   7.553
96274SOL     OW90654  12.893   9.178   1.120
96274SOL    HW190655  12.804   9.171   1.154
96274SOL    HW290656  12.918   9.269   1.135
96275SOL     OW90657  13.163   4.800  12.195
96275SOL    HW190658  13.104   4.725  12.205
96275SOL    HW290659  13.230   4.787  12.262
96276SOL     OW90660   1.459  11.306   3.239
96276SOL    HW190661   1.377  11.257   3.233
96276SOL    HW290662   1.495  11.285   3.325
96277SOL     OW90663   9.138  12.911   2.624
96277SOL    HW190664   9.086  12.863   2.559
96277SOL    HW290665   9.221  12.928   2.579
96278SOL     OW90666   4.793  14.508   3.667
96278SOL    HW190667   4.783  14.542   3.756
96278SOL    HW290668   4.845  14.428   3.677
96279SOL     OW90669   8.618   9.866   8.503
96279SOL    HW190670   8.547   9.809   8.473
96279SOL    HW290671   8.698   9.814   8.492
96280SOL     OW90672  11.690  10.528   5.259
96280SOL    HW190673  11.698  10.602   5.318
96280SOL    HW290674  11.653  10.565   5.179
96281SOL     OW90675   9.015  11.023   3.083
96281SOL    HW190676   9.100  11.056   3.052
96281SOL    HW290677   8.981  11.094   3.137
96282SOL     OW90678   1.617   3.984  10.218
96282SOL    HW190679   1.571   4.059  10.254
96282SOL    HW290680   1.659   4.017  10.138
96283SOL     OW90681   7.179   2.263  10.369
96283SOL    HW190682   7.201   2.307  10.451
96283SOL    HW290683   7.109   2.202  10.392
96284SOL     OW90684   8.793  10.782  13.173
96284SOL    HW190685   8.728  10.850  13.159
96284SOL    HW290686   8.843  10.812  13.250
96285SOL     OW90687  13.456  11.037   6.780
96285SOL    HW190688  13.383  11.004   6.727
96285SOL    HW290689  13.523  10.969   6.773
96286SOL     OW90690   9.371  10.610   7.876
96286SOL    HW190691   9.390  10.659   7.796
96286SOL    HW290692   9.381  10.518   7.851
96287SOL     OW90693  13.134  14.858   9.837
96287SOL    HW190694  13.194  14.860   9.911
96287SOL    HW290695  13.191  14.851   9.760
96288SOL     OW90696   1.545   3.454   4.800
96288SOL    HW190697   1.630   3.495   4.816
96288SOL    HW290698   1.481   3.521   4.822
96289SOL     OW90699   2.119   1.778   6.051
96289SOL    HW190700   2.163   1.861   6.032
96289SOL    HW290701   2.187   1.724   6.093
96290SOL     OW90702   3.043  11.222   5.354
96290SOL    HW190703   3.072  11.160   5.287
96290SOL    HW290704   3.082  11.190   5.435
96291SOL     OW90705  13.345  12.841  13.679
96291SOL    HW190706  13.352  12.889  13.596
96291SOL    HW290707  13.382  12.755  13.661
96292SOL     OW90708   7.838  12.412   8.566
96292SOL    HW190709   7.788  12.331   8.569
96292SOL    HW290710   7.773  12.481   8.576
96293SOL     OW90711  10.210  13.381  12.550
96293SOL    HW190712  10.150  13.455  12.555
96293SOL    HW290713  10.254  13.380  12.635
96294SOL     OW90714   8.183   0.837   9.073
96294SOL    HW190715   8.113   0.799   9.021
96294SOL    HW290716   8.237   0.762   9.098
96295SOL     OW90717   8.331   3.548   4.388
96295SOL    HW190718   8.285   3.572   4.468
96295SOL    HW290719   8.388   3.623   4.370
96296SOL     OW90720  13.758   4.815   8.526
96296SOL    HW190721  13.751   4.876   8.599
96296SOL    HW290722  13.820   4.855   8.466
96297SOL     OW90723   5.741   0.603   9.993
96297SOL    HW190724   5.753   0.678   9.935
96297SOL    HW290725   5.696   0.639  10.069
96298SOL     OW90726   0.639   7.983  14.431
96298SOL    HW190727   0.720   7.984  14.481
96298SOL    HW290728   0.666   7.975  14.339
96299SOL     OW90729   4.610  13.180   7.840
96299SOL    HW190730   4.695  13.204   7.803
96299SOL    HW290731   4.563  13.141   7.766
96300SOL     OW90732   6.572   8.001   1.842
96300SOL    HW190733   6.612   7.914   1.853
96300SOL    HW290734   6.479   7.983   1.831
96301SOL     OW90735  10.396   6.136   1.144
96301SOL    HW190736  10.461   6.088   1.195
96301SOL    HW290737  10.363   6.203   1.203
96302SOL     OW90738   7.286   1.330   8.865
96302SOL    HW190739   7.236   1.403   8.827
96302SOL    HW290740   7.321   1.283   8.790
96303SOL     OW90741   0.968  14.451   9.786
96303SOL    HW190742   1.042  14.406   9.745
96303SOL    HW290743   1.000  14.540   9.804
96304SOL     OW90744   9.792  14.584   7.352
96304SOL    HW190745   9.861  14.589   7.285
96304SOL    HW290746   9.807  14.661   7.407
96305SOL     OW90747  14.192   7.354   2.045
96305SOL    HW190748  14.096   7.347   2.052
96305SOL    HW290749  14.225   7.285   2.102
96306SOL     OW90750   4.150  11.092   2.927
96306SOL    HW190751   4.155  11.108   3.022
96306SOL    HW290752   4.175  10.999   2.918
96307SOL     OW90753   6.560   9.770   5.770
96307SOL    HW190754   6.564   9.850   5.717
96307SOL    HW290755   6.590   9.798   5.856
96308SOL     OW90756   4.795   4.888  13.409
96308SOL    HW190757   4.800   4.982  13.391
96308SOL    HW290758   4.851   4.876  13.485
96309SOL     OW90759   3.070  14.740   2.342
96309SOL    HW190760   3.006  14.772   2.279
96309SOL    HW290761   3.155  14.768   2.306
96310SOL     OW90762   6.418   6.669   6.483
96310SOL    HW190763   6.441   6.641   6.572
96310SOL    HW290764   6.336   6.717   6.494
96311SOL     OW90765  12.868   7.368   8.520
96311SOL    HW190766  12.778   7.343   8.501
96311SOL    HW290767  12.897   7.415   8.441
96312SOL     OW90768  12.354  13.043  11.102
96312SOL    HW190769  12.292  13.056  11.030
96312SOL    HW290770  12.418  13.114  11.092
96313SOL     OW90771   5.833  12.398   3.389
96313SOL    HW190772   5.806  12.349   3.467
96313SOL    HW290773   5.896  12.462   3.422
96314SOL     OW90774   5.071   8.281   3.068
96314SOL    HW190775   5.150   8.330   3.091
96314SOL    HW290776   5.091   8.190   3.088
96315SOL     OW90777  12.498   9.098   6.300
96315SOL    HW190778  12.539   9.031   6.247
96315SOL    HW290779  12.484   9.172   6.241
96316SOL     OW90780  11.178  10.827  14.609
96316SOL    HW190781  11.177  10.806  14.703
96316SOL    HW290782  11.243  10.897  14.601
96317SOL     OW90783  14.863   1.910   7.133
96317SOL    HW190784  14.794   1.844   7.125
96317SOL    HW290785  14.835   1.982   7.078
96318SOL     OW90786   6.352   6.990   8.558
96318SOL    HW190787   6.290   6.933   8.513
96318SOL    HW290788   6.402   7.031   8.487
96319SOL     OW90789   3.264   0.105   8.038
96319SOL    HW190790   3.193   0.054   8.077
96319SOL    HW290791   3.344   0.063   8.072
96320SOL     OW90792   0.949  10.044  13.604
96320SOL    HW190793   0.922  10.102  13.532
96320SOL    HW290794   1.020   9.992  13.568
96321SOL     OW90795   5.669  13.095   1.807
96321SOL    HW190796   5.674  13.105   1.902
96321SOL    HW290797   5.756  13.067   1.781
96322SOL     OW90798   7.831   3.564  12.689
96322SOL    HW190799   7.792   3.618  12.619
96322SOL    HW290800   7.768   3.569  12.760
96323SOL     OW90801  12.654   2.111   4.578
96323SOL    HW190802  12.653   2.018   4.601
96323SOL    HW290803  12.562   2.136   4.578
96324SOL     OW90804   4.674   0.044   8.155
96324SOL    HW190805   4.768   0.026   8.155
96324SOL    HW290806   4.646   0.028   8.065
96325SOL     OW90807   1.268   8.032  10.473
96325SOL    HW190808   1.339   8.083  10.514
96325SOL    HW290809   1.195   8.040  10.534
96326SOL     OW90810   0.323  12.469  13.226
96326SOL    HW190811   0.312  12.500  13.136
96326SOL    HW290812   0.417  12.479  13.243
96327SOL     OW90813   6.758   7.079   2.876
96327SOL    HW190814   6.762   7.112   2.786
96327SOL    HW290815   6.827   7.013   2.880
96328SOL     OW90816   4.022   5.106   1.240
96328SOL    HW190817   4.083   5.161   1.190
96328SOL    HW290818   4.029   5.020   1.200
96329SOL     OW90819   3.117   6.333  11.531
96329SOL    HW190820   3.126   6.305  11.440
96329SOL    HW290821   3.097   6.252  11.578
96330SOL     OW90822   0.437  11.974  13.074
96330SOL    HW190823   0.498  11.907  13.041
96330SOL    HW290824   0.411  11.942  13.160
96331SOL     OW90825   3.677  14.446  10.256
96331SOL    HW190826   3.585  14.439  10.282
96331SOL    HW290827   3.693  14.540  10.248
96332SOL     OW90828   7.708   5.419   6.073
96332SOL    HW190829   7.720   5.364   5.995
96332SOL    HW290830   7.619   5.454   6.064
96333SOL     OW90831   7.324  11.729   8.969
96333SOL    HW190832   7.367  11.749   8.885
96333SOL    HW290833   7.384  11.763   9.035
96334SOL     OW90834   5.771  11.873   5.344
96334SOL    HW190835   5.832  11.913   5.406
96334SOL    HW290836   5.816  11.875   5.260
96335SOL     OW90837  12.052  11.253   4.230
96335SOL    HW190838  12.029  11.182   4.170
96335SOL    HW290839  11.991  11.324   4.207
96336SOL     OW90840   0.291   7.327  10.737
96336SOL    HW190841   0.274   7.415  10.772
96336SOL    HW290842   0.304   7.272  10.814
96337SOL     OW90843  11.616   4.635  10.757
96337SOL    HW190844  11.637   4.727  10.772
96337SOL    HW290845  11.568   4.609  10.836
96338SOL     OW90846   3.707   5.671   6.343
96338SOL    HW190847   3.727   5.579   6.358
96338SOL    HW290848   3.625   5.671   6.295
96339SOL     OW90849  13.070  10.435   3.706
96339SOL    HW190850  13.075  10.525   3.673
96339SOL    HW290851  13.119  10.436   3.788
96340SOL     OW90852  11.353  11.232   1.312
96340SOL    HW190853  11.371  11.190   1.396
96340SOL    HW290854  11.435  11.224   1.263
96341SOL     OW90855   8.330   2.373  12.351
96341SOL    HW190856   8.415   2.358  12.310
96341SOL    HW290857   8.327   2.467  12.368
96342SOL     OW90858   3.843  10.808   1.393
96342SOL    HW190859   3.843  10.741   1.324
96342SOL    HW290860   3.910  10.871   1.365
96343SOL     OW90861   1.798  11.841   3.417
96343SOL    HW190862   1.726  11.782   3.395
96343SOL    HW290863   1.757  11.927   3.425
96344SOL     OW90864  14.751  14.360  11.309
96344SOL    HW190865  14.805  14.363  11.388
96344SOL    HW290866  14.810  14.386  11.239
96345SOL     OW90867   8.503   8.888  13.677
96345SOL    HW190868   8.463   8.954  13.734
96345SOL    HW290869   8.530   8.937  13.599
96346SOL     OW90870   7.099   5.228  10.155
96346SOL    HW190871   7.173   5.278  10.119
96346SOL    HW290872   7.137   5.177  10.226
96347SOL     OW90873   3.896  13.099   3.055
96347SOL    HW190874   3.916  13.011   3.087
96347SOL    HW290875   3.834  13.085   2.983
96348SOL     OW90876   9.661   2.128   1.274
96348SOL    HW190877   9.657   2.221   1.252
96348SOL    HW290878   9.638   2.083   1.192
96349SOL     OW90879   4.286   5.869   4.202
96349SOL    HW190880   4.235   5.936   4.248
96349SOL    HW290881   4.352   5.842   4.266
96350SOL     OW90882   1.061  10.857   6.090
96350SOL    HW190883   1.102  10.775   6.065
96350SOL    HW290884   0.995  10.832   6.155
96351SOL     OW90885   8.199  11.706  11.407
96351SOL    HW190886   8.191  11.701  11.503
96351SOL    HW290887   8.276  11.653  11.388
96352SOL     OW90888  12.587   7.807  12.315
96352SOL    HW190889  12.678   7.789  12.340
96352SOL    HW290890  12.557   7.725  12.275
96353SOL     OW90891  11.945   3.849   5.780
96353SOL    HW190892  11.975   3.940   5.776
96353SOL    HW290893  12.022   3.799   5.806
96354SOL     OW90894   3.699  14.503   3.008
96354SOL    HW190895   3.734  14.549   2.932
96354SOL    HW290896   3.776  14.470   3.054
96355SOL     OW90897  13.495   6.269   2.545
96355SOL    HW190898  13.585   6.244   2.524
96355SOL    HW290899  13.473   6.217   2.622
96356SOL     OW90900   1.495   3.501  10.652
96356SOL    HW190901   1.464   3.488  10.562
96356SOL    HW290902   1.587   3.524  10.642
96357SOL     OW90903  12.527  14.056  12.613
96357SOL    HW190904  12.442  14.033  12.575
96357SOL    HW290905  12.576  13.973  12.615
96358SOL     OW90906   0.802   4.022   3.602
96358SOL    HW190907   0.845   4.028   3.687
96358SOL    HW290908   0.874   4.016   3.539
96359SOL     OW90909   5.370  12.819   5.534
96359SOL    HW190910   5.429  12.810   5.459
96359SOL    HW290911   5.375  12.912   5.557
96360SOL     OW90912  13.030  12.181  10.795
96360SOL    HW190913  13.106  12.183  10.852
96360SOL    HW290914  13.055  12.124  10.723
96361SOL     OW90915   6.421  13.067   0.249
96361SOL    HW190916   6.394  13.003   0.316
96361SOL    HW290917   6.500  13.107   0.284
96362SOL     OW90918  12.322   4.904   6.329
96362SOL    HW190919  12.382   4.829   6.326
96362SOL    HW290920  12.331   4.938   6.418
96363SOL     OW90921   1.043   9.092  12.383
96363SOL    HW190922   1.049   9.026  12.314
96363SOL    HW290923   1.072   9.048  12.462
96364SOL     OW90924   7.806   4.692   3.638
96364SOL    HW190925   7.888   4.741   3.651
96364SOL    HW290926   7.758   4.703   3.720
96365SOL     OW90927   7.190   3.569   9.504
96365SOL    HW190928   7.285   3.579   9.502
96365SOL    HW290929   7.169   3.554   9.596
96366SOL     OW90930   8.961   2.500   2.192
96366SOL    HW190931   8.973   2.567   2.259
96366SOL    HW290932   8.882   2.453   2.220
96367SOL     OW90933  10.390   1.790   5.666
96367SOL    HW190934  10.387   1.875   5.623
96367SOL    HW290935  10.298   1.761   5.668
96368SOL     OW90936   6.144  12.012   2.609
96368SOL    HW190937   6.136  12.107   2.596
96368SOL    HW290938   6.185  11.980   2.528
96369SOL     OW90939   0.108   0.807  12.134
96369SOL    HW190940   0.110   0.728  12.080
96369SOL    HW290941   0.134   0.777  12.221
96370SOL     OW90942  12.502   7.723   8.406
96370SOL    HW190943  12.439   7.693   8.472
96370SOL    HW290944  12.451   7.732   8.326
96371SOL     OW90945  12.245   5.155  13.153
96371SOL    HW190946  12.235   5.221  13.085
96371SOL    HW290947  12.307   5.194  13.215
96372SOL     OW90948  13.716   1.958  10.247
96372SOL    HW190949  13.737   1.964  10.154
96372SOL    HW290950  13.665   2.036  10.265
96373SOL     OW90951   8.354   0.062  13.305
96373SOL    HW190952   8.311   0.017  13.378
96373SOL    HW290953   8.316   0.022  13.227
96374SOL     OW90954   4.189   6.094   3.571
96374SOL    HW190955   4.246   6.149   3.625
96374SOL    HW290956   4.150   6.032   3.632
96375SOL     OW90957   9.753   0.933  14.002
96375SOL    HW190958   9.809   0.861  13.971
96375SOL    HW290959   9.814   1.004  14.022
96376SOL     OW90960   5.245   3.846  13.158
96376SOL    HW190961   5.197   3.793  13.221
96376SOL    HW290962   5.223   3.807  13.073
96377SOL     OW90963   8.580  13.877  11.323
96377SOL    HW190964   8.497  13.903  11.363
96377SOL    HW290965   8.637  13.953  11.335
96378SOL     OW90966   0.100   3.526   9.112
96378SOL    HW190967   0.149   3.603   9.141
96378SOL    HW290968   0.102   3.467   9.186
96379SOL     OW90969  12.993  13.230   8.624
96379SOL    HW190970  12.988  13.174   8.546
96379SOL    HW290971  12.920  13.290   8.615
96380SOL     OW90972  14.225   5.033   6.447
96380SOL    HW190973  14.173   5.114   6.445
96380SOL    HW290974  14.310   5.061   6.483
96381SOL     OW90975   9.908   5.862   6.759
96381SOL    HW190976   9.994   5.905   6.764
96381SOL    HW290977   9.916   5.801   6.685
96382SOL     OW90978  12.166   7.332   2.044
96382SOL    HW190979  12.093   7.291   1.997
96382SOL    HW290980  12.147   7.426   2.040
96383SOL     OW90981   4.587   9.577   9.742
96383SOL    HW190982   4.530   9.635   9.692
96383SOL    HW290983   4.534   9.549   9.817
96384SOL     OW90984   0.127   9.011  10.192
96384SOL    HW190985   0.094   9.100  10.178
96384SOL    HW290986   0.208   9.008  10.142
96385SOL     OW90987   7.455   6.160  13.333
96385SOL    HW190988   7.406   6.157  13.251
96385SOL    HW290989   7.532   6.105  13.317
96386SOL     OW90990   9.736   0.742   0.398
96386SOL    HW190991   9.682   0.755   0.476
96386SOL    HW290992   9.684   0.684   0.342
96387SOL     OW90993  13.314   6.448  13.890
96387SOL    HW190994  13.401   6.450  13.930
96387SOL    HW290995  13.307   6.360  13.851
96388SOL     OW90996  11.953   2.549  14.300
96388SOL    HW190997  11.891   2.476  14.304
96388SOL    HW290998  11.982   2.561  14.391
96389SOL     OW90999  11.309  12.436  10.211
96389SOL    HW191000  11.287  12.468  10.299
96389SOL    HW291001  11.225  12.413  10.172
96390SOL     OW91002  11.058   8.817  13.812
96390SOL    HW191003  10.966   8.836  13.791
96390SOL    HW291004  11.055   8.736  13.862
96391SOL     OW91005   2.357  11.707  14.390
96391SOL    HW191006   2.311  11.632  14.426
96391SOL    HW291007   2.326  11.782  14.441
96392SOL     OW91008   8.935   2.484  12.116
96392SOL    HW191009   9.024   2.509  12.141
96392SOL    HW291010   8.943   2.396  12.081
96393SOL     OW91011   9.065   0.114  10.503
96393SOL    HW191012   8.994   0.066  10.460
96393SOL    HW291013   9.144   0.083  10.460
96394SOL     OW91014   6.083   0.342   5.560
96394SOL    HW191015   6.130   0.392   5.493
96394SOL    HW291016   6.148   0.280   5.593
96395SOL     OW91017  10.207  12.329  12.241
96395SOL    HW191018  10.234  12.414  12.206
96395SOL    HW291019  10.116  12.341  12.266
96396SOL     OW91020   3.698   6.152   8.499
96396SOL    HW191021   3.760   6.170   8.569
96396SOL    HW291022   3.615   6.188   8.530
96397SOL     OW91023   1.091   5.183   4.229
96397SOL    HW191024   1.150   5.147   4.163
96397SOL    HW291025   1.043   5.253   4.184
96398SOL     OW91026   0.576   3.801  14.131
96398SOL    HW191027   0.507   3.735  14.121
96398SOL    HW291028   0.589   3.807  14.226
96399SOL     OW91029   0.593  11.372  11.389
96399SOL    HW191030   0.638  11.429  11.452
96399SOL    HW291031   0.662  11.336  11.335
96400SOL     OW91032  11.800   1.549   9.132
96400SOL    HW191033  11.712   1.513   9.135
96400SOL    HW291034  11.834   1.522   9.047
96401SOL     OW91035   3.045  12.648   8.297
96401SOL    HW191036   2.959  12.656   8.256
96401SOL    HW291037   3.102  12.708   8.249
96402SOL     OW91038   1.367  10.997   1.471
96402SOL    HW191039   1.366  11.063   1.540
96402SOL    HW291040   1.411  11.039   1.398
96403SOL     OW91041  11.215   8.440   6.044
96403SOL    HW191042  11.296   8.394   6.026
96403SOL    HW291043  11.163   8.429   5.964
96404SOL     OW91044  14.293   5.354  12.741
96404SOL    HW191045  14.253   5.361  12.828
96404SOL    HW291046  14.374   5.405  12.748
96405SOL     OW91047   9.851   1.321  10.743
96405SOL    HW191048   9.897   1.238  10.729
96405SOL    HW291049   9.819   1.345  10.656
96406SOL     OW91050   4.767  14.052   0.066
96406SOL    HW191051   4.824  14.072  14.864
96406SOL    HW291052   4.747  13.959   0.056
96407SOL     OW91053   6.404   7.868   3.307
96407SOL    HW191054   6.458   7.830   3.238
96407SOL    HW291055   6.333   7.805   3.320
96408SOL     OW91056   7.262  10.723   7.653
96408SOL    HW191057   7.353  10.725   7.625
96408SOL    HW291058   7.257  10.650   7.714
96409SOL     OW91059   1.818  13.284   8.057
96409SOL    HW191060   1.834  13.189   8.050
96409SOL    HW291061   1.896  13.324   8.017
96410SOL     OW91062   7.103   2.715   3.383
96410SOL    HW191063   7.161   2.648   3.346
96410SOL    HW291064   7.130   2.723   3.474
96411SOL     OW91065   5.240   4.630   1.143
96411SOL    HW191066   5.234   4.535   1.136
96411SOL    HW291067   5.275   4.658   1.058
96412SOL     OW91068  14.865   0.558   3.261
96412SOL    HW191069   0.078   0.550   3.302
96412SOL    HW291070  14.873   0.509   3.179
96413SOL     OW91071  14.469   8.717   4.545
96413SOL    HW191072  14.457   8.800   4.499
96413SOL    HW291073  14.462   8.651   4.477
96414SOL     OW91074   3.623   8.402  13.314
96414SOL    HW191075   3.715   8.426  13.306
96414SOL    HW291076   3.577   8.471  13.266
96415SOL     OW91077   0.858   2.596   3.693
96415SOL    HW191078   0.851   2.513   3.647
96415SOL    HW291079   0.934   2.639   3.654
96416SOL     OW91080   0.078  11.974   3.667
96416SOL    HW191081   0.074  12.018   3.751
96416SOL    HW291082   0.011  11.906   3.672
96417SOL     OW91083   7.437  13.985   0.986
96417SOL    HW191084   7.409  13.897   1.011
96417SOL    HW291085   7.510  13.971   0.925
96418SOL     OW91086   7.166   9.734  10.732
96418SOL    HW191087   7.116   9.806  10.694
96418SOL    HW291088   7.150   9.741  10.826
96419SOL     OW91089  13.538   9.742   2.674
96419SOL    HW191090  13.531   9.812   2.738
96419SOL    HW291091  13.541   9.662   2.726
96420SOL     OW91092   0.161  13.580   5.194
96420SOL    HW191093   0.214  13.653   5.226
96420SOL    HW291094   0.103  13.619   5.129
96421SOL     OW91095   3.815   4.658   2.281
96421SOL    HW191096   3.767   4.675   2.362
96421SOL    HW291097   3.850   4.570   2.292
96422SOL     OW91098  10.568  14.345  10.536
96422SOL    HW191099  10.528  14.298  10.609
96422SOL    HW291100  10.559  14.438  10.559
96423SOL     OW91101   6.405   0.785   4.355
96423SOL    HW191102   6.355   0.834   4.289
96423SOL    HW291103   6.361   0.700   4.360
96424SOL     OW91104  14.484   8.925   8.630
96424SOL    HW191105  14.503   8.945   8.538
96424SOL    HW291106  14.435   9.001   8.662
96425SOL     OW91107   3.764   6.371   3.842
96425SOL    HW191108   3.678   6.329   3.836
96425SOL    HW291109   3.750   6.459   3.808
96426SOL     OW91110   6.199   3.377   1.280
96426SOL    HW191111   6.149   3.299   1.257
96426SOL    HW291112   6.278   3.344   1.323
96427SOL     OW91113   2.885   9.271   0.370
96427SOL    HW191114   2.850   9.340   0.313
96427SOL    HW291115   2.856   9.189   0.329
96428SOL     OW91116  13.004   4.679   3.728
96428SOL    HW191117  12.931   4.742   3.728
96428SOL    HW291118  13.025   4.667   3.820
96429SOL     OW91119   9.757   7.878  10.128
96429SOL    HW191120   9.734   7.891  10.220
96429SOL    HW291121   9.711   7.797  10.103
96430SOL     OW91122  13.987  10.971   5.627
96430SOL    HW191123  13.906  11.013   5.657
96430SOL    HW291124  14.057  11.016   5.675
96431SOL     OW91125  10.650   1.544  14.099
96431SOL    HW191126  10.647   1.455  14.065
96431SOL    HW291127  10.735   1.578  14.070
96432SOL     OW91128   0.750   7.044  11.819
96432SOL    HW191129   0.667   7.091  11.809
96432SOL    HW291130   0.781   7.031  11.729
96433SOL     OW91131  12.298  14.340  10.387
96433SOL    HW191132  12.320  14.429  10.415
96433SOL    HW291133  12.383  14.300  10.365
96434SOL     OW91134  14.405   2.818   3.030
96434SOL    HW191135  14.473   2.848   2.970
96434SOL    HW291136  14.355   2.753   2.980
96435SOL     OW91137   8.055   3.274   1.101
96435SOL    HW191138   8.128   3.293   1.041
96435SOL    HW291139   8.078   3.319   1.182
96436SOL     OW91140  11.324   0.483   5.149
96436SOL    HW191141  11.236   0.497   5.113
96436SOL    HW291142  11.309   0.436   5.231
96437SOL     OW91143   9.835   5.562  13.434
96437SOL    HW191144   9.775   5.487  13.429
96437SOL    HW291145   9.866   5.560  13.525
96438SOL     OW91146  11.020   9.446   2.754
96438SOL    HW191147  10.969   9.474   2.830
96438SOL    HW291148  11.036   9.526   2.704
96439SOL     OW91149   2.201   6.886   7.896
96439SOL    HW191150   2.110   6.860   7.908
96439SOL    HW291151   2.237   6.889   7.984
96440SOL     OW91152  14.369   4.094  12.163
96440SOL    HW191153  14.360   4.099  12.258
96440SOL    HW291154  14.404   4.180  12.138
96441SOL     OW91155   8.050   7.455   7.528
96441SOL    HW191156   8.071   7.394   7.598
96441SOL    HW291157   7.959   7.480   7.544
96442SOL     OW91158   7.678   0.070   5.070
96442SOL    HW191159   7.694   0.154   5.113
96442SOL    HW291160   7.733   0.008   5.117
96443SOL     OW91161   4.564   7.602   0.201
96443SOL    HW191162   4.595   7.685   0.165
96443SOL    HW291163   4.628   7.580   0.269
96444SOL     OW91164   7.364   7.653   0.333
96444SOL    HW191165   7.287   7.691   0.289
96444SOL    HW291166   7.332   7.624   0.418
96445SOL     OW91167  12.612  14.022   9.179
96445SOL    HW191168  12.606  13.939   9.131
96445SOL    HW291169  12.654  13.998   9.262
96446SOL     OW91170   9.876   8.045  12.199
96446SOL    HW191171   9.881   8.136  12.168
96446SOL    HW291172   9.959   8.030  12.243
96447SOL     OW91173   0.619   5.951   5.786
96447SOL    HW191174   0.696   5.970   5.839
96447SOL    HW291175   0.545   5.958   5.847
96448SOL     OW91176  13.529   9.998   9.738
96448SOL    HW191177  13.438  10.030   9.737
96448SOL    HW291178  13.579  10.069   9.777
96449SOL     OW91179   0.886   2.721   0.460
96449SOL    HW191180   0.905   2.673   0.380
96449SOL    HW291181   0.878   2.654   0.528
96450SOL     OW91182   4.993   1.017   8.363
96450SOL    HW191183   5.060   1.009   8.431
96450SOL    HW291184   4.984   1.112   8.350
96451SOL     OW91185   3.604  13.727  13.885
96451SOL    HW191186   3.609  13.823  13.888
96451SOL    HW291187   3.528  13.705  13.939
96452SOL     OW91188   3.669   2.010   1.635
96452SOL    HW191189   3.690   2.002   1.542
96452SOL    HW291190   3.727   2.080   1.666
96453SOL     OW91191  12.021  12.700   8.374
96453SOL    HW191192  12.051  12.775   8.424
96453SOL    HW291193  12.066  12.708   8.290
96454SOL     OW91194   8.697   0.516   3.736
96454SOL    HW191195   8.742   0.578   3.679
96454SOL    HW291196   8.606   0.517   3.706
96455SOL     OW91197   0.329  11.288   5.203
96455SOL    HW191198   0.374  11.319   5.281
96455SOL    HW291199   0.236  11.298   5.223
96456SOL     OW91200  10.310  14.580   5.038
96456SOL    HW191201  10.236  14.521   5.052
96456SOL    HW291202  10.280  14.665   5.070
96457SOL     OW91203   5.269   1.123   9.622
96457SOL    HW191204   5.188   1.126   9.571
96457SOL    HW291205   5.334   1.089   9.561
96458SOL     OW91206   3.535   9.907   8.294
96458SOL    HW191207   3.468   9.887   8.228
96458SOL    HW291208   3.586   9.827   8.301
96459SOL     OW91209   4.107   0.232   7.909
96459SOL    HW191210   4.063   0.309   7.873
96459SOL    HW291211   4.185   0.222   7.856
96460SOL     OW91212  10.165   9.030  12.231
96460SOL    HW191213  10.114   9.071  12.301
96460SOL    HW291214  10.111   8.957  12.201
96461SOL     OW91215  14.141   4.145  10.266
96461SOL    HW191216  14.165   4.230  10.305
96461SOL    HW291217  14.151   4.082  10.337
96462SOL     OW91218   8.679   6.916   6.430
96462SOL    HW191219   8.768   6.883   6.418
96462SOL    HW291220   8.684   6.968   6.511
96463SOL     OW91221   4.160  11.348  11.298
96463SOL    HW191222   4.162  11.269  11.244
96463SOL    HW291223   4.171  11.316  11.387
96464SOL     OW91224   5.665   1.526  14.079
96464SOL    HW191225   5.637   1.530  14.170
96464SOL    HW291226   5.753   1.563  14.079
96465SOL     OW91227   4.683   2.610  10.763
96465SOL    HW191228   4.763   2.660  10.780
96465SOL    HW291229   4.702   2.522  10.796
96466SOL     OW91230  13.875  14.208  13.536
96466SOL    HW191231  13.894  14.135  13.594
96466SOL    HW291232  13.958  14.256  13.530
96467SOL     OW91233   1.523   8.957   6.055
96467SOL    HW191234   1.562   8.877   6.018
96467SOL    HW291235   1.430   8.938   6.060
96468SOL     OW91236  12.360  10.962   8.027
96468SOL    HW191237  12.290  11.008   7.981
96468SOL    HW291238  12.411  10.919   7.958
96469SOL     OW91239   8.642   3.317  11.519
96469SOL    HW191240   8.584   3.387  11.549
96469SOL    HW291241   8.657   3.264  11.597
96470SOL     OW91242   4.136   4.420   9.170
96470SOL    HW191243   4.128   4.325   9.154
96470SOL    HW291244   4.071   4.459   9.111
96471SOL     OW91245   5.511   7.571   5.465
96471SOL    HW191246   5.472   7.612   5.542
96471SOL    HW291247   5.460   7.491   5.451
96472SOL     OW91248  13.505   9.796  10.970
96472SOL    HW191249  13.465   9.713  10.997
96472SOL    HW291250  13.443   9.863  10.999
96473SOL     OW91251   4.903   2.506   4.556
96473SOL    HW191252   4.941   2.478   4.472
96473SOL    HW291253   4.926   2.436   4.617
96474SOL     OW91254   8.284  10.643  12.873
96474SOL    HW191255   8.199  10.685  12.859
96474SOL    HW291256   8.266  10.550  12.865
96475SOL     OW91257   2.324  11.733   2.970
96475SOL    HW191258   2.407  11.759   2.931
96475SOL    HW291259   2.258  11.785   2.924
96476SOL     OW91260   8.118   4.424   9.115
96476SOL    HW191261   8.130   4.331   9.093
96476SOL    HW291262   8.141   4.429   9.208
96477SOL     OW91263  14.431  11.899   1.185
96477SOL    HW191264  14.450  11.819   1.137
96477SOL    HW291265  14.500  11.961   1.158
96478SOL     OW91266   1.959  10.766  12.357
96478SOL    HW191267   1.931  10.856  12.375
96478SOL    HW291268   1.913  10.714  12.422
96479SOL     OW91269   1.049   1.627   4.217
96479SOL    HW191270   1.133   1.605   4.177
96479SOL    HW291271   0.983   1.586   4.161
96480SOL     OW91272  13.666   5.147   2.990
96480SOL    HW191273  13.749   5.192   2.973
96480SOL    HW291274  13.640   5.177   3.077
96481SOL     OW91275  13.305  14.522  13.010
96481SOL    HW191276  13.398  14.506  13.024
96481SOL    HW291277  13.279  14.461  12.941
96482SOL     OW91278  14.177   2.033   9.822
96482SOL    HW191279  14.175   2.061   9.730
96482SOL    HW291280  14.112   2.089   9.865
96483SOL     OW91281  11.315   9.377   3.199
96483SOL    HW191282  11.397   9.348   3.239
96483SOL    HW291283  11.278   9.297   3.162
96484SOL     OW91284   0.876  14.135   4.969
96484SOL    HW191285   0.970  14.118   4.981
96484SOL    HW291286   0.866  14.148   4.874
96485SOL     OW91287  10.039   5.018   4.818
96485SOL    HW191288  10.026   5.009   4.912
96485SOL    HW291289  10.000   5.103   4.796
96486SOL     OW91290  10.548  11.693   7.075
96486SOL    HW191291  10.506  11.657   6.996
96486SOL    HW291292  10.477  11.738   7.121
96487SOL     OW91293   3.393   6.312   6.494
96487SOL    HW191294   3.363   6.402   6.484
96487SOL    HW291295   3.430   6.309   6.582
96488SOL     OW91296   5.077  10.867   5.014
96488SOL    HW191297   5.103  10.857   4.923
96488SOL    HW291298   5.096  10.783   5.055
96489SOL     OW91299   4.893   8.412   1.523
96489SOL    HW191300   4.809   8.403   1.477
96489SOL    HW291301   4.933   8.325   1.516
96490SOL     OW91302  11.143   5.231  10.369
96490SOL    HW191303  11.214   5.259  10.427
96490SOL    HW291304  11.068   5.286  10.394
96491SOL     OW91305  11.169   5.095  10.758
96491SOL    HW191306  11.166   5.078  10.664
96491SOL    HW291307  11.085   5.135  10.779
96492SOL     OW91308  14.378   7.375   3.698
96492SOL    HW191309  14.351   7.285   3.681
96492SOL    HW291310  14.436   7.370   3.773
96493SOL     OW91311  13.882   4.060  11.145
96493SOL    HW191312  13.941   3.993  11.112
96493SOL    HW291313  13.795   4.019  11.143
96494SOL     OW91314  10.298  11.619   9.277
96494SOL    HW191315  10.377  11.606   9.330
96494SOL    HW291316  10.330  11.655   9.194
96495SOL     OW91317   2.296   9.499   5.590
96495SOL    HW191318   2.316   9.525   5.500
96495SOL    HW291319   2.262   9.579   5.631
96496SOL     OW91320   8.545   6.100   9.037
96496SOL    HW191321   8.558   6.147   9.119
96496SOL    HW291322   8.498   6.021   9.061
96497SOL     OW91323   9.956   3.680  12.975
96497SOL    HW191324   9.929   3.663  12.885
96497SOL    HW291325  10.014   3.607  12.997
96498SOL     OW91326   2.627   8.272   9.864
96498SOL    HW191327   2.695   8.339   9.865
96498SOL    HW291328   2.648   8.217   9.789
96499SOL     OW91329   5.694   0.207   6.710
96499SOL    HW191330   5.630   0.253   6.765
96499SOL    HW291331   5.738   0.277   6.662
96500SOL     OW91332  11.174   7.773   4.779
96500SOL    HW191333  11.109   7.842   4.770
96500SOL    HW291334  11.161   7.717   4.703
96501SOL     OW91335   4.231  12.279   1.656
96501SOL    HW191336   4.136  12.290   1.667
96501SOL    HW291337   4.246  12.185   1.671
96502SOL     OW91338  13.861  14.642   8.895
96502SOL    HW191339  13.814  14.585   8.955
96502SOL    HW291340  13.877  14.588   8.818
96503SOL     OW91341   7.098  12.566  11.625
96503SOL    HW191342   7.105  12.594  11.534
96503SOL    HW291343   7.136  12.639  11.675
96504SOL     OW91344   4.905   9.646   1.935
96504SOL    HW191345   4.954   9.569   1.907
96504SOL    HW291346   4.947   9.673   2.016
96505SOL     OW91347   8.981   5.452   5.889
96505SOL    HW191348   8.888   5.466   5.905
96505SOL    HW291349   9.025   5.512   5.949
96506SOL     OW91350   5.879   9.770  13.405
96506SOL    HW191351   5.790   9.774  13.440
96506SOL    HW291352   5.888   9.849  13.352
96507SOL     OW91353  13.692   4.507   0.495
96507SOL    HW191354  13.687   4.519   0.400
96507SOL    HW291355  13.703   4.413   0.507
96508SOL     OW91356   3.437   0.306   9.368
96508SOL    HW191357   3.418   0.390   9.411
96508SOL    HW291358   3.431   0.242   9.439
96509SOL     OW91359   7.717  11.268   1.882
96509SOL    HW191360   7.811  11.265   1.866
96509SOL    HW291361   7.693  11.176   1.900
96510SOL     OW91362   0.793  12.368  13.801
96510SOL    HW191363   0.801  12.296  13.864
96510SOL    HW291364   0.758  12.441  13.853
96511SOL     OW91365   1.752  10.028   5.503
96511SOL    HW191366   1.747  10.053   5.411
96511SOL    HW291367   1.706   9.944   5.507
96512SOL     OW91368   2.302  10.955   9.828
96512SOL    HW191369   2.327  10.876   9.780
96512SOL    HW291370   2.382  11.007   9.834
96513SOL     OW91371   8.353   9.726   8.487
96513SOL    HW191372   8.352   9.669   8.564
96513SOL    HW291373   8.274   9.779   8.496
96514SOL     OW91374   4.821   7.656   2.347
96514SOL    HW191375   4.756   7.598   2.308
96514SOL    HW291376   4.881   7.598   2.394
96515SOL     OW91377  10.108   8.008   4.722
96515SOL    HW191378  10.168   8.060   4.775
96515SOL    HW291379  10.070   7.945   4.783
96516SOL     OW91380   3.195   2.580   9.413
96516SOL    HW191381   3.238   2.525   9.479
96516SOL    HW291382   3.108   2.542   9.404
96517SOL     OW91383   6.946   2.229  10.603
96517SOL    HW191384   6.856   2.196  10.602
96517SOL    HW291385   6.936   2.323  10.589
96518SOL     OW91386   7.002   4.446  14.054
96518SOL    HW191387   6.911   4.467  14.076
96518SOL    HW291388   7.044   4.427  14.138
96519SOL     OW91389   7.464   3.330   2.758
96519SOL    HW191390   7.508   3.369   2.682
96519SOL    HW291391   7.372   3.328   2.734
96520SOL     OW91392  11.903  10.032   0.917
96520SOL    HW191393  11.964  10.080   0.973
96520SOL    HW291394  11.837  10.097   0.893
96521SOL     OW91395   8.911   3.656   6.570
96521SOL    HW191396   8.997   3.697   6.561
96521SOL    HW291397   8.931   3.565   6.592
96522SOL     OW91398   7.242  12.457   3.724
96522SOL    HW191399   7.216  12.412   3.805
96522SOL    HW291400   7.163  12.459   3.671
96523SOL     OW91401  10.870   5.653   2.350
96523SOL    HW191402  10.953   5.680   2.309
96523SOL    HW291403  10.893   5.633   2.441
96524SOL     OW91404  11.674   4.288   7.509
96524SOL    HW191405  11.673   4.371   7.460
96524SOL    HW291406  11.766   4.275   7.532
96525SOL     OW91407   7.591   1.135   6.056
96525SOL    HW191408   7.685   1.129   6.076
96525SOL    HW291409   7.552   1.064   6.107
96526SOL     OW91410  12.555   9.293   9.959
96526SOL    HW191411  12.474   9.342   9.946
96526SOL    HW291412  12.557   9.229   9.888
96527SOL     OW91413   4.069  13.731  10.895
96527SOL    HW191414   4.017  13.666  10.846
96527SOL    HW291415   4.100  13.791  10.828
96528SOL     OW91416   1.458   4.140   5.541
96528SOL    HW191417   1.553   4.132   5.539
96528SOL    HW291418   1.426   4.050   5.546
96529SOL     OW91419   7.140   7.802   1.589
96529SOL    HW191420   7.194   7.801   1.668
96529SOL    HW291421   7.203   7.815   1.517
96530SOL     OW91422  11.857   2.365   4.089
96530SOL    HW191423  11.782   2.383   4.146
96530SOL    HW291424  11.926   2.336   4.150
96531SOL     OW91425   5.618   3.480  14.247
96531SOL    HW191426   5.545   3.440  14.199
96531SOL    HW291427   5.664   3.406  14.287
96532SOL     OW91428  12.081   5.150   3.288
96532SOL    HW191429  12.081   5.135   3.382
96532SOL    HW291430  11.989   5.155   3.264
96533SOL     OW91431   5.064  10.901   7.523
96533SOL    HW191432   5.011  10.821   7.521
96533SOL    HW291433   5.021  10.957   7.587
96534SOL     OW91434   4.328  11.262   8.047
96534SOL    HW191435   4.253  11.256   7.988
96534SOL    HW291436   4.326  11.181   8.097
96535SOL     OW91437   3.329   5.610  13.156
96535SOL    HW191438   3.367   5.696  13.137
96535SOL    HW291439   3.401   5.548  13.143
96536SOL     OW91440   2.849   2.121  11.058
96536SOL    HW191441   2.878   2.104  10.968
96536SOL    HW291442   2.777   2.060  11.072
96537SOL     OW91443   9.028   9.214   0.105
96537SOL    HW191444   9.093   9.274   0.068
96537SOL    HW291445   9.056   9.127   0.075
96538SOL     OW91446  12.583  12.497   4.778
96538SOL    HW191447  12.640  12.423   4.799
96538SOL    HW291448  12.495  12.466   4.797
96539SOL     OW91449  12.374  12.390   2.609
96539SOL    HW191450  12.428  12.404   2.531
96539SOL    HW291451  12.286  12.415   2.582
96540SOL     OW91452  11.852   4.502   1.217
96540SOL    HW191453  11.917   4.491   1.287
96540SOL    HW291454  11.888   4.453   1.143
96541SOL     OW91455  13.047  14.246   2.991
96541SOL    HW191456  13.024  14.245   2.898
96541SOL    HW291457  13.083  14.158   3.008
96542SOL     OW91458  13.249  10.465   3.902
96542SOL    HW191459  13.338  10.456   3.868
96542SOL    HW291460  13.239  10.394   3.965
96543SOL     OW91461   4.993   1.127  12.322
96543SOL    HW191462   5.005   1.084  12.407
96543SOL    HW291463   4.899   1.119  12.304
96544SOL     OW91464   5.620   7.911  11.014
96544SOL    HW191465   5.582   7.947  11.093
96544SOL    HW291466   5.685   7.976  10.986
96545SOL     OW91467   0.684  10.365  12.439
96545SOL    HW191468   0.736  10.424  12.493
96545SOL    HW291469   0.593  10.387  12.461
96546SOL     OW91470   8.943   6.889   1.817
96546SOL    HW191471   9.023   6.924   1.858
96546SOL    HW291472   8.939   6.932   1.732
96547SOL     OW91473  14.008   7.682   3.482
96547SOL    HW191474  14.021   7.638   3.566
96547SOL    HW291475  14.066   7.635   3.422
96548SOL     OW91476   0.785   4.826  13.132
96548SOL    HW191477   0.717   4.891  13.115
96548SOL    HW291478   0.759   4.749  13.081
96549SOL     OW91479   0.431   7.703  14.815
96549SOL    HW191480   0.461   7.787  14.780
96549SOL    HW291481   0.391   7.659  14.740
96550SOL     OW91482   3.110   8.874   0.841
96550SOL    HW191483   3.139   8.945   0.899
96550SOL    HW291484   3.017   8.865   0.860
96551SOL     OW91485   4.616   0.359   6.083
96551SOL    HW191486   4.522   0.373   6.081
96551SOL    HW291487   4.649   0.402   6.004
96552SOL     OW91488  13.866   1.622  10.194
96552SOL    HW191489  13.901   1.675  10.265
96552SOL    HW291490  13.771   1.635  10.198
96553SOL     OW91491  12.554   9.234   2.721
96553SOL    HW191492  12.596   9.319   2.725
96553SOL    HW291493  12.597   9.188   2.649
96554SOL     OW91494  10.271  14.702   6.127
96554SOL    HW191495  10.318  14.773   6.082
96554SOL    HW291496  10.233  14.651   6.056
96555SOL     OW91497  12.360   6.315   2.595
96555SOL    HW191498  12.416   6.345   2.666
96555SOL    HW291499  12.344   6.223   2.614
96556SOL     OW91500  13.809   7.858   4.761
96556SOL    HW191501  13.810   7.890   4.851
96556SOL    HW291502  13.748   7.784   4.763
96557SOL     OW91503   1.149   1.326  11.849
96557SOL    HW191504   1.101   1.273  11.786
96557SOL    HW291505   1.152   1.273  11.929
96558SOL     OW91506   9.283   2.566   0.602
96558SOL    HW191507   9.305   2.639   0.544
96558SOL    HW291508   9.286   2.489   0.545
96559SOL     OW91509   5.268  14.601   4.724
96559SOL    HW191510   5.222  14.635   4.800
96559SOL    HW291511   5.270  14.506   4.738
96560SOL     OW91512   7.248   3.864   9.678
96560SOL    HW191513   7.253   3.806   9.601
96560SOL    HW291514   7.226   3.950   9.641
96561SOL     OW91515   0.183   1.093  13.033
96561SOL    HW191516   0.278   1.101  13.045
96561SOL    HW291517   0.156   1.028  13.098
96562SOL     OW91518  10.010   1.607   8.216
96562SOL    HW191519  10.003   1.652   8.300
96562SOL    HW291520  10.040   1.675   8.155
96563SOL     OW91521  10.428   8.406   9.152
96563SOL    HW191522  10.422   8.358   9.234
96563SOL    HW291523  10.493   8.357   9.101
96564SOL     OW91524   4.303   4.365   8.527
96564SOL    HW191525   4.276   4.447   8.484
96564SOL    HW291526   4.390   4.348   8.493
96565SOL     OW91527   0.770  13.495  10.988
96565SOL    HW191528   0.858  13.526  11.009
96565SOL    HW291529   0.739  13.456  11.070
96566SOL     OW91530   5.428  12.079   3.084
96566SOL    HW191531   5.483  12.008   3.052
96566SOL    HW291532   5.477  12.116   3.158
96567SOL     OW91533   7.513  10.743   3.310
96567SOL    HW191534   7.508  10.763   3.404
96567SOL    HW291535   7.606  10.736   3.291
96568SOL     OW91536   8.147   6.572   1.911
96568SOL    HW191537   8.182   6.537   1.993
96568SOL    HW291538   8.055   6.591   1.930
96569SOL     OW91539  12.046   1.673  12.078
96569SOL    HW191540  12.121   1.715  12.037
96569SOL    HW291541  11.974   1.685  12.015
96570SOL     OW91542   2.901   7.350   6.833
96570SOL    HW191543   2.830   7.362   6.770
96570SOL    HW291544   2.929   7.259   6.820
96571SOL     OW91545   6.181  12.387  10.527
96571SOL    HW191546   6.267  12.423  10.505
96571SOL    HW291547   6.131  12.391  10.446
96572SOL     OW91548   0.032  10.253   4.221
96572SOL    HW191549   0.066  10.257   4.311
96572SOL    HW291550   0.065  10.333   4.180
96573SOL     OW91551   4.604   2.405   5.692
96573SOL    HW191552   4.622   2.373   5.780
96573SOL    HW291553   4.575   2.327   5.644
96574SOL     OW91554   1.198   2.530   9.296
96574SOL    HW191555   1.210   2.604   9.236
96574SOL    HW291556   1.225   2.564   9.381
96575SOL     OW91557   2.270  13.099   5.479
96575SOL    HW191558   2.264  13.183   5.433
96575SOL    HW291559   2.203  13.044   5.436
96576SOL     OW91560   8.190   1.362   1.668
96576SOL    HW191561   8.194   1.350   1.573
96576SOL    HW291562   8.196   1.456   1.681
96577SOL     OW91563   9.270   3.076   1.265
96577SOL    HW191564   9.341   3.071   1.201
96577SOL    HW291565   9.315   3.085   1.349
96578SOL     OW91566   2.234  11.454   6.134
96578SOL    HW191567   2.165  11.426   6.073
96578SOL    HW291568   2.257  11.542   6.104
96579SOL     OW91569   6.692   5.739   8.163
96579SOL    HW191570   6.735   5.820   8.135
96579SOL    HW291571   6.714   5.676   8.094
96580SOL     OW91572   8.151   8.751   5.578
96580SOL    HW191573   8.153   8.846   5.569
96580SOL    HW291574   8.240   8.727   5.604
96581SOL     OW91575   7.738   1.238   3.393
96581SOL    HW191576   7.742   1.163   3.453
96581SOL    HW291577   7.756   1.201   3.306
96582SOL     OW91578   7.282   1.104  11.486
96582SOL    HW191579   7.236   1.173  11.438
96582SOL    HW291580   7.221   1.031  11.488
96583SOL     OW91581  13.906   5.750   3.321
96583SOL    HW191582  13.822   5.753   3.275
96583SOL    HW291583  13.893   5.804   3.399
96584SOL     OW91584  12.000   8.950   4.857
96584SOL    HW191585  11.934   8.883   4.841
96584SOL    HW291586  11.959   9.031   4.827
96585SOL     OW91587   7.478  11.844   7.016
96585SOL    HW191588   7.435  11.839   7.102
96585SOL    HW291589   7.562  11.801   7.029
96586SOL     OW91590   2.289  14.429  11.960
96586SOL    HW191591   2.219  14.473  11.912
96586SOL    HW291592   2.257  14.423  12.050
96587SOL     OW91593   5.834   8.090   8.183
96587SOL    HW191594   5.841   8.145   8.105
96587SOL    HW291595   5.744   8.104   8.213
96588SOL     OW91596   8.490   8.301   6.285
96588SOL    HW191597   8.582   8.328   6.286
96588SOL    HW291598   8.452   8.341   6.363
96589SOL     OW91599   4.826   1.267  13.306
96589SOL    HW191600   4.855   1.313  13.228
96589SOL    HW291601   4.852   1.176  13.291
96590SOL     OW91602   1.955  10.585  11.416
96590SOL    HW191603   1.982  10.674  11.396
96590SOL    HW291604   2.008  10.560  11.492
96591SOL     OW91605  11.298  12.826  13.525
96591SOL    HW191606  11.310  12.750  13.468
96591SOL    HW291607  11.306  12.791  13.613
96592SOL     OW91608   1.487  14.246  11.773
96592SOL    HW191609   1.560  14.193  11.741
96592SOL    HW291610   1.524  14.297  11.845
96593SOL     OW91611   6.322   7.653  13.011
96593SOL    HW191612   6.338   7.712  13.085
96593SOL    HW291613   6.245   7.602  13.037
96594SOL     OW91614  10.380   2.792  10.598
96594SOL    HW191615  10.320   2.745  10.655
96594SOL    HW291616  10.447   2.728  10.575
96595SOL     OW91617  12.002  12.245  13.913
96595SOL    HW191618  12.052  12.173  13.953
96595SOL    HW291619  12.068  12.303  13.877
96596SOL     OW91620   5.452   5.029  13.491
96596SOL    HW191621   5.400   5.104  13.461
96596SOL    HW291622   5.420   5.012  13.580
96597SOL     OW91623   3.262   8.055   4.767
96597SOL    HW191624   3.252   8.115   4.693
96597SOL    HW291625   3.293   8.110   4.839
96598SOL     OW91626  12.925   3.241   9.748
96598SOL    HW191627  12.894   3.324   9.785
96598SOL    HW291628  12.906   3.176   9.815
96599SOL     OW91629   5.073   0.859  11.795
96599SOL    HW191630   5.124   0.787  11.758
96599SOL    HW291631   5.091   0.855  11.889
96600SOL     OW91632   9.934   9.573   7.874
96600SOL    HW191633   9.905   9.483   7.891
96600SOL    HW291634   9.955   9.574   7.780
96601SOL     OW91635   6.683   1.353   3.131
96601SOL    HW191636   6.774   1.340   3.159
96601SOL    HW291637   6.632   1.296   3.188
96602SOL     OW91638   0.778   7.545   2.857
96602SOL    HW191639   0.871   7.524   2.868
96602SOL    HW291640   0.734   7.491   2.923
96603SOL     OW91641  12.009   7.168   5.553
96603SOL    HW191642  12.017   7.201   5.464
96603SOL    HW291643  12.098   7.148   5.580
96604SOL     OW91644   8.745   9.919   2.879
96604SOL    HW191645   8.737  10.005   2.840
96604SOL    HW291646   8.726   9.933   2.972
96605SOL     OW91647  10.966   8.056  11.404
96605SOL    HW191648  11.007   8.137  11.374
96605SOL    HW291649  10.923   8.019  11.327
96606SOL     OW91650   0.907   7.130   7.669
96606SOL    HW191651   0.925   7.037   7.686
96606SOL    HW291652   0.866   7.131   7.583
96607SOL     OW91653  13.256  12.654   3.056
96607SOL    HW191654  13.264  12.606   3.139
96607SOL    HW291655  13.344  12.689   3.040
96608SOL     OW91656   2.792   2.410  10.049
96608SOL    HW191657   2.835   2.493  10.068
96608SOL    HW291658   2.699   2.431  10.045
96609SOL     OW91659  10.380  14.209   0.185
96609SOL    HW191660  10.312  14.181   0.247
96609SOL    HW291661  10.385  14.138   0.121
96610SOL     OW91662  11.000   7.452  14.053
96610SOL    HW191663  10.914   7.486  14.078
96610SOL    HW291664  10.984   7.402  13.973
96611SOL     OW91665   4.083   0.596   6.286
96611SOL    HW191666   4.111   0.604   6.195
96611SOL    HW291667   3.989   0.616   6.285
96612SOL     OW91668   2.710  13.851  10.753
96612SOL    HW191669   2.661  13.932  10.737
96612SOL    HW291670   2.660  13.783  10.707
96613SOL     OW91671  13.387   2.316   2.394
96613SOL    HW191672  13.329   2.354   2.460
96613SOL    HW291673  13.410   2.389   2.337
96614SOL     OW91674  10.974  14.551  13.476
96614SOL    HW191675  10.925  14.550  13.394
96614SOL    HW291676  10.922  14.499  13.537
96615SOL     OW91677   7.413   8.347   7.897
96615SOL    HW191678   7.453   8.335   7.811
96615SOL    HW291679   7.480   8.393   7.948
96616SOL     OW91680   7.603  11.358   2.873
96616SOL    HW191681   7.624  11.414   2.948
96616SOL    HW291682   7.677  11.298   2.866
96617SOL     OW91683   8.451   2.612   2.397
96617SOL    HW191684   8.424   2.695   2.437
96617SOL    HW291685   8.386   2.596   2.328
96618SOL     OW91686   0.748   4.747   1.265
96618SOL    HW191687   0.706   4.697   1.336
96618SOL    HW291688   0.801   4.683   1.219
96619SOL     OW91689   6.053  10.184   6.988
96619SOL    HW191690   6.005  10.134   7.054
96619SOL    HW291691   5.995  10.187   6.913
96620SOL     OW91692  13.435   9.552  13.473
96620SOL    HW191693  13.480   9.509  13.400
96620SOL    HW291694  13.441   9.645  13.453
96621SOL     OW91695   2.081   3.031   9.496
96621SOL    HW191696   2.072   3.052   9.403
96621SOL    HW291697   2.128   2.948   9.497
96622SOL     OW91698   0.649   9.270   1.357
96622SOL    HW191699   0.685   9.355   1.331
96622SOL    HW291700   0.596   9.290   1.434
96623SOL     OW91701  11.053  14.455  14.338
96623SOL    HW191702  11.034  14.534  14.287
96623SOL    HW291703  11.148  14.451  14.341
96624SOL     OW91704   5.958   0.411   9.105
96624SOL    HW191705   5.975   0.457   9.187
96624SOL    HW291706   6.039   0.363   9.087
96625SOL     OW91707   2.868  11.258  14.667
96625SOL    HW191708   2.853  11.345  14.630
96625SOL    HW291709   2.908  11.275  14.753
96626SOL     OW91710  12.651  12.408   0.473
96626SOL    HW191711  12.707  12.331   0.485
96626SOL    HW291712  12.576  12.392   0.530
96627SOL     OW91713   9.051   7.781  12.836
96627SOL    HW191714   9.065   7.746  12.748
96627SOL    HW291715   9.139   7.788  12.873
96628SOL     OW91716   6.846   0.424   6.995
96628SOL    HW191717   6.935   0.458   6.985
96628SOL    HW291718   6.810   0.424   6.906
96629SOL     OW91719   3.104   5.774   7.472
96629SOL    HW191720   3.094   5.742   7.383
96629SOL    HW291721   3.188   5.739   7.501
96630SOL     OW91722   1.955  10.176   0.846
96630SOL    HW191723   1.869  10.217   0.856
96630SOL    HW291724   1.939  10.097   0.795
96631SOL     OW91725  13.451  11.651  10.954
96631SOL    HW191726  13.465  11.654  10.860
96631SOL    HW291727  13.396  11.727  10.973
96632SOL     OW91728   9.165   9.745  11.457
96632SOL    HW191729   9.211   9.829  11.449
96632SOL    HW291730   9.154   9.733  11.551
96633SOL     OW91731   7.820  11.539  13.141
96633SOL    HW191732   7.776  11.607  13.193
96633SOL    HW291733   7.810  11.459  13.192
96634SOL     OW91734  12.478   0.850   1.133
96634SOL    HW191735  12.513   0.826   1.047
96634SOL    HW291736  12.383   0.846   1.122
96635SOL     OW91737   0.069   6.095   8.155
96635SOL    HW191738   0.118   6.013   8.169
96635SOL    HW291739   0.039   6.119   8.243
96636SOL     OW91740   4.752   3.129   1.345
96636SOL    HW191741   4.672   3.176   1.323
96636SOL    HW291742   4.816   3.198   1.365
96637SOL     OW91743   1.956   2.818  14.811
96637SOL    HW191744   2.046   2.848  14.826
96637SOL    HW291745   1.963   2.723  14.807
96638SOL     OW91746   9.797   6.364   9.415
96638SOL    HW191747   9.886   6.382   9.385
96638SOL    HW291748   9.783   6.271   9.394
96639SOL     OW91749  11.952  10.509  11.973
96639SOL    HW191750  11.898  10.469  11.904
96639SOL    HW291751  11.963  10.600  11.946
96640SOL     OW91752  13.778  14.658   7.963
96640SOL    HW191753  13.829  14.701   7.894
96640SOL    HW291754  13.844  14.620   8.021
96641SOL     OW91755   6.942   8.889   6.206
96641SOL    HW191756   6.941   8.855   6.296
96641SOL    HW291757   6.853   8.874   6.174
96642SOL     OW91758   3.262  14.315   6.691
96642SOL    HW191759   3.261  14.327   6.786
96642SOL    HW291760   3.354  14.315   6.667
96643SOL     OW91761  10.170   5.307   6.415
96643SOL    HW191762  10.238   5.359   6.372
96643SOL    HW291763  10.197   5.303   6.507
96644SOL     OW91764   4.701   6.157  13.195
96644SOL    HW191765   4.661   6.239  13.168
96644SOL    HW291766   4.637   6.090  13.173
96645SOL     OW91767   4.640   9.624   1.000
96645SOL    HW191768   4.690   9.696   0.961
96645SOL    HW291769   4.667   9.547   0.951
96646SOL     OW91770  13.175  13.564  10.843
96646SOL    HW191771  13.215  13.556  10.930
96646SOL    HW291772  13.176  13.476  10.807
96647SOL     OW91773   6.497   8.936  10.489
96647SOL    HW191774   6.572   8.905  10.439
96647SOL    HW291775   6.449   8.991  10.427
96648SOL     OW91776   3.227   5.034   7.100
96648SOL    HW191777   3.221   5.127   7.124
96648SOL    HW291778   3.277   5.034   7.019
96649SOL     OW91779   2.843   8.555  13.659
96649SOL    HW191780   2.851   8.461  13.676
96649SOL    HW291781   2.900   8.571  13.584
96650SOL     OW91782   7.062  13.140   6.363
96650SOL    HW191783   7.134  13.130   6.301
96650SOL    HW291784   7.005  13.206   6.323
96651SOL     OW91785   5.061   3.044   5.499
96651SOL    HW191786   5.117   3.100   5.447
96651SOL    HW291787   5.030   3.100   5.570
96652SOL     OW91788   7.442   1.045   6.676
96652SOL    HW191789   7.457   1.089   6.760
96652SOL    HW291790   7.513   1.076   6.620
96653SOL     OW91791   0.804   7.722   5.265
96653SOL    HW191792   0.753   7.698   5.343
96653SOL    HW291793   0.894   7.698   5.287
96654SOL     OW91794   9.878   2.822   6.671
96654SOL    HW191795   9.958   2.831   6.619
96654SOL    HW291796   9.843   2.737   6.647
96655SOL     OW91797   3.448  11.120   8.879
96655SOL    HW191798   3.430  11.213   8.868
96655SOL    HW291799   3.362  11.080   8.892
96656SOL     OW91800  13.674   6.850   7.678
96656SOL    HW191801  13.728   6.794   7.623
96656SOL    HW291802  13.615   6.894   7.616
96657SOL     OW91803   0.894   7.823   1.375
96657SOL    HW191804   0.894   7.903   1.322
96657SOL    HW291805   0.913   7.753   1.313
96658SOL     OW91806   9.141   3.148   8.082
96658SOL    HW191807   9.169   3.189   8.164
96658SOL    HW291808   9.193   3.068   8.076
96659SOL     OW91809  14.662   1.300  11.250
96659SOL    HW191810  14.751   1.314  11.281
96659SOL    HW291811  14.646   1.207  11.266
96660SOL     OW91812   1.305   9.055  13.976
96660SOL    HW191813   1.327   9.128  13.918
96660SOL    HW291814   1.326   8.977  13.925
96661SOL     OW91815   6.583   0.038  10.485
96661SOL    HW191816   6.536  14.835  10.519
96661SOL    HW291817   6.553   0.047  10.394
96662SOL     OW91818   5.023   7.783   0.116
96662SOL    HW191819   4.951   7.720   0.109
96662SOL    HW291820   5.059   7.788   0.027
96663SOL     OW91821   9.781   9.337  11.419
96663SOL    HW191822   9.708   9.387  11.383
96663SOL    HW291823   9.844   9.332  11.348
96664SOL     OW91824  14.063   1.367   3.677
96664SOL    HW191825  13.972   1.396   3.684
96664SOL    HW291826  14.101   1.389   3.762
96665SOL     OW91827  14.656  12.383  11.717
96665SOL    HW191828  14.582  12.369  11.659
96665SOL    HW291829  14.636  12.331  11.794
96666SOL     OW91830  12.312   9.625   6.152
96666SOL    HW191831  12.342   9.538   6.123
96666SOL    HW291832  12.216   9.619   6.150
96667SOL     OW91833   9.293   7.223   7.939
96667SOL    HW191834   9.337   7.210   7.855
96667SOL    HW291835   9.295   7.137   7.980
96668SOL     OW91836   5.440   2.628  13.253
96668SOL    HW191837   5.463   2.713  13.215
96668SOL    HW291838   5.500   2.566  13.210
96669SOL     OW91839  13.809  10.209  13.009
96669SOL    HW191840  13.720  10.209  13.044
96669SOL    HW291841  13.801  10.247  12.922
96670SOL     OW91842   9.598   0.200  10.512
96670SOL    HW191843   9.656   0.229  10.441
96670SOL    HW291844   9.640   0.232  10.591
96671SOL     OW91845  11.092  14.588   2.800
96671SOL    HW191846  11.094  14.527   2.874
96671SOL    HW291847  11.179  14.628   2.800
96672SOL     OW91848   0.195   1.728   0.004
96672SOL    HW191849   0.139   1.651  14.873
96672SOL    HW291850   0.285   1.694   0.007
96673SOL     OW91851  11.012  10.276   9.888
96673SOL    HW191852  11.041  10.361   9.857
96673SOL    HW291853  10.983  10.230   9.810
96674SOL     OW91854  13.800   8.056   8.483
96674SOL    HW191855  13.808   8.117   8.410
96674SOL    HW291856  13.891   8.029   8.501
96675SOL     OW91857   0.309  11.615  12.846
96675SOL    HW191858   0.301  11.583  12.936
96675SOL    HW291859   0.219  11.622  12.815
96676SOL     OW91860   5.362   5.476  12.497
96676SOL    HW191861   5.367   5.432  12.412
96676SOL    HW291862   5.425   5.429  12.552
96677SOL     OW91863   9.404   4.271   8.249
96677SOL    HW191864   9.335   4.294   8.312
96677SOL    HW291865   9.437   4.187   8.281
96678SOL     OW91866   4.208   1.901  14.034
96678SOL    HW191867   4.274   1.840  14.068
96678SOL    HW291868   4.188   1.868  13.946
96679SOL     OW91869   5.019   9.190  12.774
96679SOL    HW191870   4.972   9.257  12.725
96679SOL    HW291871   5.073   9.145  12.709
96680SOL     OW91872   6.337   6.342   6.593
96680SOL    HW191873   6.422   6.337   6.548
96680SOL    HW291874   6.359   6.367   6.683
96681SOL     OW91875   5.059   6.393  12.478
96681SOL    HW191876   4.975   6.355  12.503
96681SOL    HW291877   5.118   6.372  12.551
96682SOL     OW91878  13.534   5.660   6.756
96682SOL    HW191879  13.574   5.647   6.841
96682SOL    HW291880  13.478   5.737   6.767
96683SOL     OW91881   0.088   5.272   2.153
96683SOL    HW191882   0.033   5.310   2.221
96683SOL    HW291883   0.157   5.337   2.138
96684SOL     OW91884   7.709  14.033   4.654
96684SOL    HW191885   7.793  13.988   4.643
96684SOL    HW291886   7.733  14.124   4.671
96685SOL     OW91887  10.266   6.636  10.234
96685SOL    HW191888  10.271   6.564  10.171
96685SOL    HW291889  10.252   6.593  10.318
96686SOL     OW91890   1.572   2.322  14.815
96686SOL    HW191891   1.575   2.280   0.028
96686SOL    HW291892   1.543   2.253  14.755
96687SOL     OW91893  14.316   4.164   0.683
96687SOL    HW191894  14.394   4.139   0.633
96687SOL    HW291895  14.243   4.137   0.627
96688SOL     OW91896   2.641   4.306   6.794
96688SOL    HW191897   2.710   4.264   6.846
96688SOL    HW291898   2.682   4.321   6.708
96689SOL     OW91899   6.902   9.837   4.964
96689SOL    HW191900   6.952   9.916   4.946
96689SOL    HW291901   6.824   9.867   5.011
96690SOL     OW91902   5.843   2.959   4.209
96690SOL    HW191903   5.756   2.930   4.238
96690SOL    HW291904   5.825   3.019   4.137
96691SOL     OW91905   8.353   8.563   4.563
96691SOL    HW191906   8.388   8.594   4.647
96691SOL    HW291907   8.259   8.557   4.577
96692SOL     OW91908   2.069   9.371   8.119
96692SOL    HW191909   2.058   9.395   8.212
96692SOL    HW291910   1.979   9.368   8.085
96693SOL     OW91911   4.630   4.069   2.404
96693SOL    HW191912   4.632   4.156   2.443
96693SOL    HW291913   4.643   4.010   2.479
96694SOL     OW91914  11.459   2.116   9.274
96694SOL    HW191915  11.474   2.115   9.179
96694SOL    HW291916  11.495   2.032   9.304
96695SOL     OW91917   4.612  11.889   1.724
96695SOL    HW191918   4.600  11.984   1.721
96695SOL    HW291919   4.609  11.867   1.817
96696SOL     OW91920   4.759   4.221   9.597
96696SOL    HW191921   4.714   4.268   9.526
96696SOL    HW291922   4.702   4.146   9.616
96697SOL     OW91923   8.109   0.486  10.592
96697SOL    HW191924   8.200   0.485  10.562
96697SOL    HW291925   8.065   0.422  10.535
96698SOL     OW91926   8.963   5.973   2.365
96698SOL    HW191927   8.884   5.943   2.319
96698SOL    HW291928   9.034   5.924   2.325
96699SOL     OW91929   7.184  10.270  10.530
96699SOL    HW191930   7.128  10.316  10.467
96699SOL    HW291931   7.123  10.234  10.594
96700SOL     OW91932   7.133   8.027   6.307
96700SOL    HW191933   7.138   8.121   6.323
96700SOL    HW291934   7.104   7.990   6.391
96701SOL     OW91935   5.384   3.516  14.492
96701SOL    HW191936   5.347   3.585  14.547
96701SOL    HW291937   5.439   3.465  14.552
96702SOL     OW91938   3.800   4.307   7.048
96702SOL    HW191939   3.849   4.308   7.130
96702SOL    HW291940   3.708   4.317   7.075
96703SOL     OW91941  12.890   8.590  13.778
96703SOL    HW191942  12.980   8.565  13.757
96703SOL    HW291943  12.838   8.511  13.761
96704SOL     OW91944   5.883   9.043   0.800
96704SOL    HW191945   5.890   9.058   0.894
96704SOL    HW291946   5.973   9.049   0.768
96705SOL     OW91947  11.220  14.833   6.179
96705SOL    HW191948  11.127  14.843   6.195
96705SOL    HW291949  11.229  14.834   6.084
96706SOL     OW91950  14.221  12.017   7.428
96706SOL    HW191951  14.280  12.087   7.456
96706SOL    HW291952  14.247  11.941   7.480
96707SOL     OW91953  12.070   9.930  14.394
96707SOL    HW191954  12.135   9.895  14.454
96707SOL    HW291955  12.016   9.988  14.448
96708SOL     OW91956   6.683  12.712   6.718
96708SOL    HW191957   6.624  12.729   6.792
96708SOL    HW291958   6.765  12.756   6.742
96709SOL     OW91959   4.488   1.060   5.634
96709SOL    HW191960   4.556   1.003   5.599
96709SOL    HW291961   4.414   1.002   5.653
96710SOL     OW91962   5.897   9.377   6.826
96710SOL    HW191963   5.917   9.345   6.914
96710SOL    HW291964   5.845   9.456   6.840
96711SOL     OW91965  12.132  10.577   0.578
96711SOL    HW191966  12.051  10.612   0.614
96711SOL    HW291967  12.105  10.530   0.499
96712SOL     OW91968   8.036   8.946   3.264
96712SOL    HW191969   8.119   8.954   3.217
96712SOL    HW291970   8.023   8.851   3.273
96713SOL     OW91971   9.555   9.940   3.072
96713SOL    HW191972   9.638   9.897   3.051
96713SOL    HW291973   9.544  10.007   3.004
96714SOL     OW91974   5.314   9.724   0.406
96714SOL    HW191975   5.323   9.764   0.320
96714SOL    HW291976   5.388   9.663   0.412
96715SOL     OW91977   5.319  13.513  13.440
96715SOL    HW191978   5.294  13.450  13.372
96715SOL    HW291979   5.324  13.460  13.520
96716SOL     OW91980  13.107  13.799   7.771
96716SOL    HW191981  13.151  13.770   7.851
96716SOL    HW291982  13.019  13.821   7.798
96717SOL     OW91983   4.814   0.105  13.052
96717SOL    HW191984   4.740   0.156  13.019
96717SOL    HW291985   4.809   0.116  13.147
96718SOL     OW91986   2.479   9.396   6.548
96718SOL    HW191987   2.554   9.451   6.571
96718SOL    HW291988   2.417   9.408   6.620
96719SOL     OW91989   8.107   0.777  14.629
96719SOL    HW191990   8.041   0.708  14.618
96719SOL    HW291991   8.133   0.800  14.539
96720SOL     OW91992   8.821   7.124   6.985
96720SOL    HW191993   8.827   7.201   7.041
96720SOL    HW291994   8.913   7.100   6.968
96721SOL     OW91995   2.888   2.567   5.025
96721SOL    HW191996   2.841   2.613   5.095
96721SOL    HW291997   2.849   2.600   4.944
96722SOL     OW91998   1.192   5.061   8.160
96722SOL    HW191999   1.129   5.124   8.126
96722SOL    HW292000   1.224   5.101   8.241
96723SOL     OW92001   2.113  14.451   6.286
96723SOL    HW192002   2.099  14.359   6.308
96723SOL    HW292003   2.205  14.457   6.263
96724SOL     OW92004   5.397  14.674  12.551
96724SOL    HW192005   5.323  14.734  12.550
96724SOL    HW292006   5.419  14.662  12.458
96725SOL     OW92007  11.520  10.747   7.534
96725SOL    HW192008  11.516  10.840   7.511
96725SOL    HW292009  11.571  10.745   7.615
96726SOL     OW92010   7.876   8.307   1.203
96726SOL    HW192011   7.865   8.299   1.298
96726SOL    HW292012   7.787   8.312   1.169
96727SOL     OW92013   8.074  11.538   7.734
96727SOL    HW192014   8.105  11.627   7.748
96727SOL    HW292015   8.007  11.546   7.666
96728SOL     OW92016   3.681  14.746   5.540
96728SOL    HW192017   3.649  14.725   5.628
96728SOL    HW292018   3.615  14.710   5.481
96729SOL     OW92019   8.825  10.631   4.182
96729SOL    HW192020   8.914  10.602   4.201
96729SOL    HW292021   8.783  10.555   4.141
96730SOL     OW92022  10.222   8.429   4.585
96730SOL    HW192023  10.165   8.392   4.652
96730SOL    HW292024  10.168   8.432   4.506
96731SOL     OW92025   7.919   3.906   5.026
96731SOL    HW192026   7.874   3.867   4.951
96731SOL    HW292027   8.009   3.875   5.019
96732SOL     OW92028   9.741   8.847  14.763
96732SOL    HW192029   9.693   8.913  14.714
96732SOL    HW292030   9.795   8.803  14.697
96733SOL     OW92031  12.781   8.972   2.102
96733SOL    HW192032  12.792   9.064   2.126
96733SOL    HW292033  12.686   8.959   2.099
96734SOL     OW92034  14.745   6.979   5.057
96734SOL    HW192035  14.763   7.057   5.109
96734SOL    HW292036  14.798   6.910   5.097
96735SOL     OW92037  11.970  13.634   9.700
96735SOL    HW192038  11.906  13.620   9.770
96735SOL    HW292039  12.003  13.547   9.679
96736SOL     OW92040  13.950  10.762  12.483
96736SOL    HW192041  13.937  10.724  12.396
96736SOL    HW292042  13.870  10.813  12.498
96737SOL     OW92043  12.817  13.404   1.297
96737SOL    HW192044  12.770  13.461   1.235
96737SOL    HW292045  12.797  13.440   1.383
96738SOL     OW92046   0.787   4.687  10.185
96738SOL    HW192047   0.795   4.779  10.159
96738SOL    HW292048   0.875   4.662  10.212
96739SOL     OW92049   0.037   7.820  11.088
96739SOL    HW192050   0.021   7.908  11.121
96739SOL    HW292051  14.831   7.771  11.111
96740SOL     OW92052  12.669   8.210   8.802
96740SOL    HW192053  12.633   8.280   8.857
96740SOL    HW292054  12.632   8.226   8.715
96741SOL     OW92055   1.457   5.750   4.433
96741SOL    HW192056   1.533   5.747   4.374
96741SOL    HW292057   1.384   5.716   4.380
96742SOL     OW92058  12.655  14.641   8.675
96742SOL    HW192059  12.659  14.736   8.683
96742SOL    HW292060  12.670  14.624   8.582
96743SOL     OW92061   6.832  12.925   5.507
96743SOL    HW192062   6.807  13.016   5.521
96743SOL    HW292063   6.832  12.886   5.594
96744SOL     OW92064   4.460   1.686  11.891
96744SOL    HW192065   4.412   1.760  11.855
96744SOL    HW292066   4.552   1.708  11.880
96745SOL     OW92067  10.434   5.380   0.256
96745SOL    HW192068  10.411   5.291   0.230
96745SOL    HW292069  10.459   5.372   0.348
96746SOL     OW92070   5.912  14.360  14.491
96746SOL    HW192071   5.820  14.385  14.481
96746SOL    HW292072   5.960  14.427  14.442
96747SOL     OW92073   9.884  14.185   0.318
96747SOL    HW192074   9.852  14.097   0.299
96747SOL    HW292075   9.825  14.219   0.385
96748SOL     OW92076   1.027  13.621   7.130
96748SOL    HW192077   1.123  13.623   7.130
96748SOL    HW292078   1.004  13.537   7.092
96749SOL     OW92079   6.600   2.963   9.639
96749SOL    HW192080   6.556   3.009   9.711
96749SOL    HW292081   6.570   2.873   9.645
96750SOL     OW92082   9.488   9.555  11.521
96750SOL    HW192083   9.448   9.576  11.436
96750SOL    HW292084   9.544   9.630  11.540
96751SOL     OW92085  10.894  10.841   2.262
96751SOL    HW192086  10.876  10.755   2.224
96751SOL    HW292087  10.812  10.890   2.251
96752SOL     OW92088   7.577  13.658   1.004
96752SOL    HW192089   7.647  13.695   1.057
96752SOL    HW292090   7.601  13.681   0.914
96753SOL     OW92091   5.880   3.470   1.827
96753SOL    HW192092   5.921   3.384   1.838
96753SOL    HW292093   5.840   3.467   1.740
96754SOL     OW92094  10.007   0.761  13.065
96754SOL    HW192095   9.987   0.690  13.126
96754SOL    HW292096   9.961   0.736  12.984
96755SOL     OW92097   6.652   0.825   8.168
96755SOL    HW192098   6.654   0.739   8.126
96755SOL    HW292099   6.592   0.815   8.242
96756SOL     OW92100   2.777   5.464  10.520
96756SOL    HW192101   2.824   5.478  10.602
96756SOL    HW292102   2.813   5.529  10.459
96757SOL     OW92103   4.447   1.065   1.484
96757SOL    HW192104   4.377   1.093   1.426
96757SOL    HW292105   4.478   0.982   1.447
96758SOL     OW92106   8.260   2.455  13.974
96758SOL    HW192107   8.355   2.459  13.964
96758SOL    HW292108   8.231   2.545  13.955
96759SOL     OW92109   1.589   1.383   6.987
96759SOL    HW192110   1.648   1.439   7.038
96759SOL    HW292111   1.592   1.298   7.030
96760SOL     OW92112  14.068  11.998   3.465
96760SOL    HW192113  14.021  12.082   3.466
96760SOL    HW292114  14.006  11.937   3.426
96761SOL     OW92115   8.461   8.261   9.911
96761SOL    HW192116   8.397   8.192   9.928
96761SOL    HW292117   8.531   8.246   9.975
96762SOL     OW92118  12.564   9.438  12.785
96762SOL    HW192119  12.590   9.516  12.834
96762SOL    HW292120  12.643   9.384  12.781
96763SOL     OW92121  12.318  12.640  13.450
96763SOL    HW192122  12.241  12.594  13.483
96763SOL    HW292123  12.295  12.732  13.453
96764SOL     OW92124  13.715   4.206   7.259
96764SOL    HW192125  13.666   4.167   7.332
96764SOL    HW292126  13.798   4.158   7.257
96765SOL     OW92127   6.385   4.873   7.789
96765SOL    HW192128   6.419   4.819   7.861
96765SOL    HW292129   6.366   4.811   7.719
96766SOL     OW92130   8.014  14.390   9.065
96766SOL    HW192131   7.927  14.390   9.107
96766SOL    HW292132   8.015  14.311   9.012
96767SOL     OW92133  11.130   7.144   9.627
96767SOL    HW192134  11.149   7.089   9.703
96767SOL    HW292135  11.058   7.098   9.582
96768SOL     OW92136   5.953   3.467  11.641
96768SOL    HW192137   6.023   3.519  11.601
96768SOL    HW292138   5.904   3.530  11.694
96769SOL     OW92139   2.124   7.815  12.002
96769SOL    HW192140   2.164   7.889  11.956
96769SOL    HW292141   2.187   7.744  11.992
96770SOL     OW92142   1.892   5.853   8.098
96770SOL    HW192143   1.983   5.880   8.088
96770SOL    HW292144   1.897   5.765   8.136
96771SOL     OW92145   2.947   6.687  10.491
96771SOL    HW192146   2.961   6.761  10.432
96771SOL    HW292147   2.929   6.613  10.433
96772SOL     OW92148   8.482   3.214   6.605
96772SOL    HW192149   8.479   3.282   6.537
96772SOL    HW292150   8.394   3.177   6.606
96773SOL     OW92151   8.880   0.190  11.045
96773SOL    HW192152   8.907   0.268  11.094
96773SOL    HW292153   8.810   0.222  10.987
96774SOL     OW92154   6.970   0.944  14.325
96774SOL    HW192155   6.983   0.984  14.239
96774SOL    HW292156   7.053   0.900  14.344
96775SOL     OW92157   7.772  10.809  14.840
96775SOL    HW192158   7.682  10.776  14.847
96775SOL    HW292159   7.781  10.868   0.041
96776SOL     OW92160   0.279  12.811   8.417
96776SOL    HW192161   0.343  12.880   8.398
96776SOL    HW292162   0.307  12.775   8.501
96777SOL     OW92163   0.078   6.572   7.312
96777SOL    HW192164   0.007   6.634   7.297
96777SOL    HW292165   0.038   6.486   7.298
96778SOL     OW92166  14.799   4.359  11.163
96778SOL    HW192167  14.705   4.339  11.164
96778SOL    HW292168  14.822   4.365  11.070
96779SOL     OW92169  11.233  14.825  14.870
96779SOL    HW192170  11.208   0.016  14.802
96779SOL    HW292171  11.326  14.840   0.011
96780SOL     OW92172  11.907   9.646  11.427
96780SOL    HW192173  11.852   9.613  11.355
96780SOL    HW292174  11.995   9.617  11.404
96781SOL     OW92175   1.801   4.896  14.271
96781SOL    HW192176   1.873   4.959  14.271
96781SOL    HW292177   1.755   4.913  14.190
96782SOL     OW92178   7.233  10.390   1.984
96782SOL    HW192179   7.147  10.379   2.025
96782SOL    HW292180   7.252  10.484   1.995
96783SOL     OW92181  14.302   3.764   2.837
96783SOL    HW192182  14.388   3.760   2.879
96783SOL    HW292183  14.241   3.739   2.907
96784SOL     OW92184   5.427   7.394  14.848
96784SOL    HW192185   5.473   7.344  14.781
96784SOL    HW292186   5.334   7.379  14.829
96785SOL     OW92187   8.609  13.257   6.773
96785SOL    HW192188   8.637  13.345   6.745
96785SOL    HW292189   8.536  13.274   6.832
96786SOL     OW92190  11.235   4.939   4.525
96786SOL    HW192191  11.252   5.025   4.564
96786SOL    HW292192  11.148   4.916   4.558
96787SOL     OW92193   3.917   0.142  13.204
96787SOL    HW192194   3.929   0.054  13.239
96787SOL    HW292195   3.977   0.197  13.255
96788SOL     OW92196  10.969  13.639   4.098
96788SOL    HW192197  11.013  13.724   4.092
96788SOL    HW292198  10.897  13.645   4.034
96789SOL     OW92199  11.892  11.811  10.289
96789SOL    HW192200  11.936  11.795  10.205
96789SOL    HW292201  11.940  11.756  10.352
96790SOL     OW92202   8.183   8.046  14.185
96790SOL    HW192203   8.115   8.086  14.240
96790SOL    HW292204   8.182   8.099  14.105
96791SOL     OW92205  13.590   4.680   7.497
96791SOL    HW192206  13.543   4.728   7.429
96791SOL    HW292207  13.621   4.601   7.453
96792SOL     OW92208   5.575   9.396  14.443
96792SOL    HW192209   5.523   9.398  14.363
96792SOL    HW292210   5.558   9.480  14.486
96793SOL     OW92211  11.540   0.083   8.654
96793SOL    HW192212  11.618   0.122   8.693
96793SOL    HW292213  11.563  14.863   8.644
96794SOL     OW92214  12.523  12.270   8.020
96794SOL    HW192215  12.587  12.204   8.049
96794SOL    HW292216  12.442  12.221   8.009
96795SOL     OW92217   8.977  11.256   0.173
96795SOL    HW192218   8.911  11.316   0.138
96795SOL    HW292219   8.972  11.179   0.117
96796SOL     OW92220   3.354   3.121  13.094
96796SOL    HW192221   3.348   3.104  13.188
96796SOL    HW292222   3.342   3.216  13.085
96797SOL     OW92223   7.064  11.254  10.356
96797SOL    HW192224   7.080  11.345  10.381
96797SOL    HW292225   7.010  11.219  10.428
96798SOL     OW92226   9.534   7.321  12.544
96798SOL    HW192227   9.477   7.351  12.473
96798SOL    HW292228   9.585   7.397  12.569
96799SOL     OW92229   8.579  14.579   5.818
96799SOL    HW192230   8.520  14.650   5.792
96799SOL    HW292231   8.551  14.504   5.767
96800SOL     OW92232  10.829   7.727  13.206
96800SOL    HW192233  10.853   7.638  13.234
96800SOL    HW292234  10.863   7.734  13.117
96801SOL     OW92235  13.489   8.661   7.768
96801SOL    HW192236  13.549   8.593   7.800
96801SOL    HW292237  13.485   8.725   7.839
96802SOL     OW92238   9.166   1.307   0.303
96802SOL    HW192239   9.179   1.367   0.229
96802SOL    HW292240   9.090   1.254   0.277
96803SOL     OW92241  11.232   7.023   8.216
96803SOL    HW192242  11.232   7.095   8.278
96803SOL    HW292243  11.215   6.945   8.269
96804SOL     OW92244   0.526   4.032   6.654
96804SOL    HW192245   0.488   4.119   6.635
96804SOL    HW292246   0.617   4.040   6.626
96805SOL     OW92247   8.655  12.182  13.092
96805SOL    HW192248   8.715  12.185  13.167
96805SOL    HW292249   8.581  12.236  13.118
96806SOL     OW92250   2.698   6.533  14.105
96806SOL    HW192251   2.663   6.579  14.181
96806SOL    HW292252   2.756   6.597  14.064
96807SOL     OW92253   8.830  12.645   5.436
96807SOL    HW192254   8.768  12.586   5.393
96807SOL    HW292255   8.778  12.721   5.461
96808SOL     OW92256   0.838   8.824   6.966
96808SOL    HW192257   0.777   8.752   6.949
96808SOL    HW292258   0.821   8.887   6.896
96809SOL     OW92259   3.606   2.033   3.908
96809SOL    HW192260   3.599   2.053   4.001
96809SOL    HW292261   3.537   1.968   3.891
96810SOL     OW92262   0.383   2.164   6.628
96810SOL    HW192263   0.367   2.131   6.540
96810SOL    HW292264   0.334   2.247   6.632
96811SOL     OW92265   8.949   7.414   2.877
96811SOL    HW192266   9.027   7.387   2.925
96811SOL    HW292267   8.915   7.333   2.839
96812SOL     OW92268   7.103   9.207   7.653
96812SOL    HW192269   7.159   9.213   7.576
96812SOL    HW292270   7.125   9.123   7.693
96813SOL     OW92271   0.327   1.058   6.172
96813SOL    HW192272   0.324   1.140   6.222
96813SOL    HW292273   0.418   1.049   6.145
96814SOL     OW92274   3.696   4.193  13.413
96814SOL    HW192275   3.764   4.128  13.432
96814SOL    HW292276   3.681   4.237  13.496
96815SOL     OW92277  12.916  11.039   7.319
96815SOL    HW192278  12.836  10.988   7.333
96815SOL    HW292279  12.892  11.103   7.252
96816SOL     OW92280  10.018   1.694   3.818
96816SOL    HW192281   9.940   1.648   3.786
96816SOL    HW292282  10.090   1.634   3.800
96817SOL     OW92283  11.518  13.231   2.343
96817SOL    HW192284  11.441  13.179   2.319
96817SOL    HW292285  11.494  13.321   2.320
96818SOL     OW92286  12.411   1.877  12.408
96818SOL    HW192287  12.464   1.957  12.417
96818SOL    HW292288  12.413   1.858  12.314
96819SOL     OW92289  12.622   2.414   1.437
96819SOL    HW192290  12.672   2.481   1.484
96819SOL    HW292291  12.630   2.335   1.491
96820SOL     OW92292   3.494  12.080  13.569
96820SOL    HW192293   3.552  12.155  13.560
96820SOL    HW292294   3.474  12.076  13.662
96821SOL     OW92295   6.627  10.041   5.483
96821SOL    HW192296   6.596  10.125   5.515
96821SOL    HW292297   6.553  10.005   5.434
96822SOL     OW92298   3.097   6.819   3.871
96822SOL    HW192299   3.148   6.883   3.922
96822SOL    HW292300   3.086   6.745   3.930
96823SOL     OW92301   7.284   4.016   3.532
96823SOL    HW192302   7.199   4.007   3.576
96823SOL    HW292303   7.265   4.064   3.452
96824SOL     OW92304  11.130   1.218   6.555
96824SOL    HW192305  11.049   1.225   6.504
96824SOL    HW292306  11.157   1.127   6.544
96825SOL     OW92307   8.839  10.868   9.085
96825SOL    HW192308   8.746  10.877   9.064
96825SOL    HW292309   8.872  10.958   9.085
96826SOL     OW92310   3.442   8.289   6.284
96826SOL    HW192311   3.365   8.341   6.310
96826SOL    HW292312   3.479   8.337   6.210
96827SOL     OW92313  10.381   4.604  12.810
96827SOL    HW192314  10.445   4.655  12.760
96827SOL    HW292315  10.307   4.664  12.821
96828SOL     OW92316   0.149   1.888  11.312
96828SOL    HW192317   0.111   1.969  11.346
96828SOL    HW292318   0.174   1.909  11.222
96829SOL     OW92319  11.470  12.390   3.200
96829SOL    HW192320  11.531  12.381   3.273
96829SOL    HW292321  11.391  12.427   3.239
96830SOL     OW92322  10.588   2.525   6.850
96830SOL    HW192323  10.672   2.481   6.862
96830SOL    HW292324  10.533   2.491   6.921
96831SOL     OW92325   6.624  14.267  10.446
96831SOL    HW192326   6.632  14.179  10.409
96831SOL    HW292327   6.594  14.253  10.535
96832SOL     OW92328  11.796  14.315   4.425
96832SOL    HW192329  11.751  14.382   4.475
96832SOL    HW292330  11.800  14.239   4.483
96833SOL     OW92331   1.561  11.706   3.306
96833SOL    HW192332   1.466  11.708   3.321
96833SOL    HW292333   1.572  11.654   3.227
96834SOL     OW92334   4.984   4.173   2.647
96834SOL    HW192335   4.951   4.185   2.559
96834SOL    HW292336   4.998   4.078   2.655
96835SOL     OW92337  14.121   3.914  11.345
96835SOL    HW192338  14.099   3.904  11.253
96835SOL    HW292339  14.039   3.893  11.391
96836SOL     OW92340   4.036  14.841   7.903
96836SOL    HW192341   4.075   0.055   7.911
96836SOL    HW292342   3.954  14.847   7.953
96837SOL     OW92343   7.453  13.398   8.231
96837SOL    HW192344   7.389  13.424   8.297
96837SOL    HW292345   7.518  13.346   8.279
96838SOL     OW92346   4.631  10.242  11.961
96838SOL    HW192347   4.538  10.260  11.968
96838SOL    HW292348   4.663  10.303  11.895
96839SOL     OW92349  11.097   9.759   8.985
96839SOL    HW192350  11.002   9.759   8.998
96839SOL    HW292351  11.113   9.683   8.930
96840SOL     OW92352   6.946   1.950   9.398
96840SOL    HW192353   6.987   1.867   9.424
96840SOL    HW292354   7.005   2.018   9.430
96841SOL     OW92355   6.746   9.658  14.489
96841SOL    HW192356   6.827   9.703  14.516
96841SOL    HW292357   6.774   9.599  14.419
96842SOL     OW92358  14.300   7.636   5.512
96842SOL    HW192359  14.259   7.578   5.576
96842SOL    HW292360  14.308   7.582   5.433
96843SOL     OW92361   1.030   4.362   4.410
96843SOL    HW192362   1.096   4.294   4.395
96843SOL    HW292363   0.965   4.321   4.467
96844SOL     OW92364  12.658   4.593  13.688
96844SOL    HW192365  12.585   4.585  13.749
96844SOL    HW292366  12.721   4.648  13.735
96845SOL     OW92367   8.059  10.393   3.166
96845SOL    HW192368   8.139  10.391   3.114
96845SOL    HW292369   7.997  10.443   3.113
96846SOL     OW92370  13.942  12.234   3.261
96846SOL    HW192371  13.970  12.191   3.180
96846SOL    HW292372  14.014  12.291   3.285
96847SOL     OW92373   2.713  14.504   6.716
96847SOL    HW192374   2.808  14.510   6.713
96847SOL    HW292375   2.689  14.463   6.633
96848SOL     OW92376   4.560   4.753   2.384
96848SOL    HW192377   4.467   4.736   2.402
96848SOL    HW292378   4.573   4.844   2.409
96849SOL     OW92379  13.777   8.197   0.049
96849SOL    HW192380  13.852   8.147   0.018
96849SOL    HW292381  13.804   8.232   0.133
96850SOL     OW92382   1.712   2.957   7.582
96850SOL    HW192383   1.643   3.023   7.578
96850SOL    HW292384   1.734   2.950   7.675
96851SOL     OW92385   8.351  11.364  12.507
96851SOL    HW192386   8.396  11.448  12.514
96851SOL    HW292387   8.259  11.385  12.518
96852SOL     OW92388   2.462   8.459  11.606
96852SOL    HW192389   2.444   8.500  11.690
96852SOL    HW292390   2.456   8.365  11.623
96853SOL     OW92391   8.523   5.143   9.676
96853SOL    HW192392   8.476   5.188   9.746
96853SOL    HW292393   8.515   5.202   9.600
96854SOL     OW92394   8.096  13.555   6.902
96854SOL    HW192395   8.172  13.607   6.928
96854SOL    HW292396   8.034  13.563   6.974
96855SOL     OW92397   0.597   5.933   3.334
96855SOL    HW192398   0.588   5.965   3.244
96855SOL    HW292399   0.529   5.979   3.383
96856SOL     OW92400  12.245  13.470  11.190
96856SOL    HW192401  12.255  13.508  11.103
96856SOL    HW292402  12.179  13.526  11.233
96857SOL     OW92403   8.563   9.876  10.049
96857SOL    HW192404   8.558   9.819   9.972
96857SOL    HW292405   8.472   9.891  10.073
96858SOL     OW92406  10.135  12.244  10.130
96858SOL    HW192407  10.187  12.237  10.050
96858SOL    HW292408  10.071  12.312  10.110
96859SOL     OW92409   3.539   2.571   1.315
96859SOL    HW192410   3.486   2.534   1.386
96859SOL    HW292411   3.483   2.566   1.238
96860SOL     OW92412  14.841  13.196   8.265
96860SOL    HW192413  14.763  13.147   8.239
96860SOL    HW292414  14.816  13.239   8.347
96861SOL     OW92415   3.814   5.727   1.640
96861SOL    HW192416   3.868   5.759   1.712
96861SOL    HW292417   3.855   5.764   1.561
96862SOL     OW92418   0.987  10.030  11.119
96862SOL    HW192419   0.920   9.962  11.121
96862SOL    HW292420   1.066   9.986  11.086
96863SOL     OW92421   2.785   5.741  11.864
96863SOL    HW192422   2.742   5.658  11.885
96863SOL    HW292423   2.791   5.786  11.948
96864SOL     OW92424   8.731  12.787   7.753
96864SOL    HW192425   8.750  12.783   7.659
96864SOL    HW292426   8.699  12.700   7.774
96865SOL     OW92427   6.191  10.395  13.954
96865SOL    HW192428   6.199  10.334  14.027
96865SOL    HW292429   6.099  10.421  13.954
96866SOL     OW92430   3.865  11.617  11.904
96866SOL    HW192431   3.937  11.620  11.840
96866SOL    HW292432   3.881  11.692  11.961
96867SOL     OW92433  10.630   6.971  11.970
96867SOL    HW192434  10.582   6.992  12.050
96867SOL    HW292435  10.627   7.052  11.919
96868SOL     OW92436  10.089   2.664  10.932
96868SOL    HW192437  10.097   2.611  10.853
96868SOL    HW292438  10.051   2.747  10.901
96869SOL     OW92439  11.752   1.684   0.912
96869SOL    HW192440  11.831   1.660   0.864
96869SOL    HW292441  11.775   1.668   1.004
96870SOL     OW92442  10.454   8.909   0.691
96870SOL    HW192443  10.473   8.888   0.600
96870SOL    HW292444  10.540   8.909   0.734
96871SOL     OW92445   8.643   4.939  10.295
96871SOL    HW192446   8.651   4.978  10.208
96871SOL    HW292447   8.622   4.847  10.279
96872SOL     OW92448  12.725  13.934   9.415
96872SOL    HW192449  12.733  13.861   9.476
96872SOL    HW292450  12.775  14.005   9.457
96873SOL     OW92451   6.457   0.943   8.016
96873SOL    HW192452   6.522   0.922   8.083
96873SOL    HW292453   6.497   1.014   7.966
96874SOL     OW92454  10.095   5.587   7.654
96874SOL    HW192455  10.104   5.600   7.560
96874SOL    HW292456  10.002   5.564   7.666
96875SOL     OW92457   0.119  14.263   4.594
96875SOL    HW192458   0.097  14.356   4.605
96875SOL    HW292459   0.071  14.218   4.663
96876SOL     OW92460  10.930   6.683  13.681
96876SOL    HW192461  10.937   6.717  13.591
96876SOL    HW292462  10.899   6.593  13.670
96877SOL     OW92463   9.069   3.834   5.741
96877SOL    HW192464   8.991   3.859   5.791
96877SOL    HW292465   9.078   3.903   5.675
96878SOL     OW92466  13.237   9.580   1.236
96878SOL    HW192467  13.247   9.671   1.209
96878SOL    HW292468  13.294   9.531   1.177
96879SOL     OW92469  11.411   1.735   1.897
96879SOL    HW192470  11.453   1.759   1.814
96879SOL    HW292471  11.321   1.714   1.872
96880SOL     OW92472  10.278   9.791   0.247
96880SOL    HW192473  10.200   9.783   0.193
96880SOL    HW292474  10.261   9.735   0.322
96881SOL     OW92475  12.719  14.369   5.275
96881SOL    HW192476  12.641  14.424   5.287
96881SOL    HW292477  12.770  14.382   5.355
96882SOL     OW92478   2.942   9.953   1.075
96882SOL    HW192479   3.016   9.893   1.078
96882SOL    HW292480   2.982  10.040   1.064
96883SOL     OW92481   4.837  12.430   9.731
96883SOL    HW192482   4.832  12.457   9.823
96883SOL    HW292483   4.931  12.418   9.715
96884SOL     OW92484   8.621  10.227  12.030
96884SOL    HW192485   8.574  10.291  12.083
96884SOL    HW292486   8.612  10.259  11.940
96885SOL     OW92487   0.350  12.249   0.970
96885SOL    HW192488   0.395  12.164   0.967
96885SOL    HW292489   0.377  12.287   1.053
96886SOL     OW92490   8.314  12.321   7.134
96886SOL    HW192491   8.306  12.285   7.223
96886SOL    HW292492   8.239  12.380   7.126
96887SOL     OW92493   3.299   7.500   5.906
96887SOL    HW192494   3.328   7.496   5.997
96887SOL    HW292495   3.350   7.571   5.868
96888SOL     OW92496   4.262   1.127   4.241
96888SOL    HW192497   4.289   1.219   4.246
96888SOL    HW292498   4.217   1.111   4.324
96889SOL     OW92499   1.980  14.425  12.634
96889SOL    HW192500   2.037  14.498  12.657
96889SOL    HW292501   1.900  14.466  12.601
96890SOL     OW92502   3.350  10.890  11.770
96890SOL    HW192503   3.296  10.967  11.752
96890SOL    HW292504   3.426  10.924  11.818
96891SOL     OW92505   6.910  14.848   7.425
96891SOL    HW192506   6.989  14.839   7.372
96891SOL    HW292507   6.849  14.783   7.388
96892SOL     OW92508  11.182   2.746  13.179
96892SOL    HW192509  11.254   2.779  13.233
96892SOL    HW292510  11.144   2.825  13.140
96893SOL     OW92511   9.277   9.402   3.514
96893SOL    HW192512   9.315   9.436   3.433
96893SOL    HW292513   9.306   9.462   3.582
96894SOL     OW92514  12.943  11.589  12.324
96894SOL    HW192515  12.868  11.643  12.350
96894SOL    HW292516  13.018  11.649  12.329
96895SOL     OW92517  11.658   9.122   5.677
96895SOL    HW192518  11.652   9.217   5.667
96895SOL    HW292519  11.604   9.087   5.606
96896SOL     OW92520   5.719   4.874   9.443
96896SOL    HW192521   5.680   4.800   9.398
96896SOL    HW292522   5.800   4.892   9.394
96897SOL     OW92523  12.518   6.167  10.587
96897SOL    HW192524  12.578   6.207  10.524
96897SOL    HW292525  12.465   6.239  10.621
96898SOL     OW92526  10.468   2.045  13.631
96898SOL    HW192527  10.542   2.094  13.595
96898SOL    HW292528  10.464   2.070  13.723
96899SOL     OW92529   2.721  11.450  11.404
96899SOL    HW192530   2.736  11.503  11.326
96899SOL    HW292531   2.755  11.504  11.476
96900SOL     OW92532  13.629  10.940   1.744
96900SOL    HW192533  13.685  11.018   1.745
96900SOL    HW292534  13.689  10.868   1.722
96901SOL     OW92535   4.641  12.594   7.014
96901SOL    HW192536   4.661  12.516   7.066
96901SOL    HW292537   4.716  12.652   7.028
96902SOL     OW92538   1.603   0.869   5.909
96902SOL    HW192539   1.596   0.956   5.948
96902SOL    HW292540   1.556   0.812   5.970
96903SOL     OW92541  13.664   2.560   8.602
96903SOL    HW192542  13.667   2.466   8.622
96903SOL    HW292543  13.685   2.603   8.685
96904SOL     OW92544   1.057   1.163  14.348
96904SOL    HW192545   1.136   1.207  14.317
96904SOL    HW292546   1.034   1.209  14.429
96905SOL     OW92547   7.546   5.708   1.553
96905SOL    HW192548   7.517   5.619   1.530
96905SOL    HW292549   7.472   5.746   1.600
96906SOL     OW92550   2.185  14.276   1.441
96906SOL    HW192551   2.266  14.226   1.426
96906SOL    HW292552   2.154  14.245   1.526
96907SOL     OW92553   6.552  13.843   6.262
96907SOL    HW192554   6.558  13.873   6.353
96907SOL    HW292555   6.462  13.812   6.253
96908SOL     OW92556   8.700   6.663   7.252
96908SOL    HW192557   8.669   6.615   7.176
96908SOL    HW292558   8.626   6.663   7.313
96909SOL     OW92559   0.485  11.049  13.206
96909SOL    HW192560   0.413  10.996  13.240
96909SOL    HW292561   0.558  11.032  13.265
96910SOL     OW92562   9.840   6.813   1.282
96910SOL    HW192563   9.776   6.879   1.307
96910SOL    HW292564   9.921   6.861   1.270
96911SOL     OW92565   2.162   4.735   6.225
96911SOL    HW192566   2.109   4.785   6.162
96911SOL    HW292567   2.134   4.644   6.213
96912SOL     OW92568   8.423   4.249   1.706
96912SOL    HW192569   8.494   4.211   1.758
96912SOL    HW292570   8.455   4.246   1.616
96913SOL     OW92571   0.620   7.710   2.669
96913SOL    HW192572   0.663   7.778   2.617
96913SOL    HW292573   0.691   7.668   2.717
96914SOL     OW92574   3.536  13.744  12.478
96914SOL    HW192575   3.565  13.732  12.388
96914SOL    HW292576   3.616  13.749  12.529
96915SOL     OW92577   7.564  14.063   8.342
96915SOL    HW192578   7.529  13.980   8.373
96915SOL    HW292579   7.624  14.091   8.412
96916SOL     OW92580   1.021   5.315   6.208
96916SOL    HW192581   1.031   5.389   6.268
96916SOL    HW292582   1.103   5.313   6.158
96917SOL     OW92583   5.575  13.739   4.899
96917SOL    HW192584   5.549  13.782   4.981
96917SOL    HW292585   5.495  13.699   4.866
96918SOL     OW92586   1.581  14.283   3.997
96918SOL    HW192587   1.618  14.354   3.945
96918SOL    HW292588   1.651  14.261   4.059
96919SOL     OW92589   1.458   2.845   3.007
96919SOL    HW192590   1.478   2.880   3.093
96919SOL    HW292591   1.362   2.843   3.003
96920SOL     OW92592  10.369   4.769   1.251
96920SOL    HW192593  10.369   4.710   1.175
96920SOL    HW292594  10.282   4.809   1.249
96921SOL     OW92595   3.357  13.010   0.827
96921SOL    HW192596   3.298  12.937   0.849
96921SOL    HW292597   3.417  13.016   0.901
96922SOL     OW92598  10.752   7.917  12.686
96922SOL    HW192599  10.779   8.007  12.706
96922SOL    HW292600  10.657   7.919  12.695
96923SOL     OW92601  11.256   0.075   8.160
96923SOL    HW192602  11.337   0.044   8.201
96923SOL    HW292603  11.245   0.019   8.084
96924SOL     OW92604   9.690   5.794   5.401
96924SOL    HW192605   9.643   5.836   5.329
96924SOL    HW292606   9.737   5.866   5.444
96925SOL     OW92607  13.005   3.644   7.774
96925SOL    HW192608  13.057   3.686   7.705
96925SOL    HW292609  13.043   3.679   7.856
96926SOL     OW92610   3.280   4.722  12.633
96926SOL    HW192611   3.235   4.679  12.560
96926SOL    HW292612   3.369   4.686  12.629
96927SOL     OW92613   8.909   2.211   6.510
96927SOL    HW192614   8.886   2.249   6.595
96927SOL    HW292615   9.004   2.219   6.506
96928SOL     OW92616   9.208   8.746   2.754
96928SOL    HW192617   9.298   8.724   2.730
96928SOL    HW292618   9.159   8.738   2.672
96929SOL     OW92619   2.843  12.751   6.792
96929SOL    HW192620   2.772  12.809   6.766
96929SOL    HW292621   2.801  12.665   6.803
96930SOL     OW92622  12.531   2.073   4.079
96930SOL    HW192623  12.456   2.024   4.114
96930SOL    HW292624  12.565   2.121   4.154
96931SOL     OW92625   9.904   9.439   7.024
96931SOL    HW192626   9.816   9.406   7.039
96931SOL    HW292627   9.900   9.477   6.936
96932SOL     OW92628   1.671   4.071  12.561
96932SOL    HW192629   1.595   4.092  12.615
96932SOL    HW292630   1.715   4.155  12.548
96933SOL     OW92631  13.665  11.960   8.472
96933SOL    HW192632  13.618  11.887   8.433
96933SOL    HW292633  13.609  12.036   8.456
96934SOL     OW92634  14.269   7.574   7.759
96934SOL    HW192635  14.352   7.618   7.741
96934SOL    HW292636  14.274   7.549   7.851
96935SOL     OW92637  14.519   5.887   9.744
96935SOL    HW192638  14.611   5.862   9.753
96935SOL    HW292639  14.509   5.913   9.652
96936SOL     OW92640   6.356   6.065   5.117
96936SOL    HW192641   6.422   6.045   5.051
96936SOL    HW292642   6.284   6.005   5.099
96937SOL     OW92643  11.308   6.023   3.459
96937SOL    HW192644  11.234   6.004   3.517
96937SOL    HW292645  11.335   5.937   3.426
96938SOL     OW92646   2.809  14.865  11.541
96938SOL    HW192647   2.865  14.803  11.588
96938SOL    HW292648   2.854   0.077  11.550
96939SOL     OW92649   3.397   5.367   8.631
96939SOL    HW192650   3.345   5.440   8.597
96939SOL    HW292651   3.478   5.408   8.663
96940SOL     OW92652  10.237   5.718  14.136
96940SOL    HW192653  10.181   5.796  14.142
96940SOL    HW292654  10.325   5.753  14.122
96941SOL     OW92655  12.060  12.327   3.274
96941SOL    HW192656  12.147  12.365   3.280
96941SOL    HW292657  12.057  12.285   3.188
96942SOL     OW92658  11.279   2.516  12.518
96942SOL    HW192659  11.359   2.561  12.547
96942SOL    HW292660  11.287   2.428  12.555
96943SOL     OW92661   0.029  13.093   3.770
96943SOL    HW192662   0.099  13.133   3.821
96943SOL    HW292663   0.008  13.158   3.703
96944SOL     OW92664   1.891   2.579   8.317
96944SOL    HW192665   1.920   2.550   8.231
96944SOL    HW292666   1.816   2.523   8.337
96945SOL     OW92667   8.987  13.919   6.551
96945SOL    HW192668   9.018  13.885   6.635
96945SOL    HW292669   8.891  13.913   6.558
96946SOL     OW92670   6.832   3.149   7.058
96946SOL    HW192671   6.769   3.081   7.080
96946SOL    HW292672   6.801   3.227   7.105
96947SOL     OW92673   7.412   8.246   9.595
96947SOL    HW192674   7.451   8.333   9.591
96947SOL    HW292675   7.354   8.248   9.671
96948SOL     OW92676   0.011   6.165   6.029
96948SOL    HW192677  14.851   6.244   5.987
96948SOL    HW292678   0.101   6.186   6.054
96949SOL     OW92679   5.755   9.857   7.310
96949SOL    HW192680   5.777   9.795   7.380
96949SOL    HW292681   5.791   9.940   7.340
96950SOL     OW92682   3.783  10.031  13.782
96950SOL    HW192683   3.717  10.034  13.852
96950SOL    HW292684   3.842  10.104  13.802
96951SOL     OW92685   4.323   1.610  11.104
96951SOL    HW192686   4.398   1.554  11.082
96951SOL    HW292687   4.362   1.683  11.154
96952SOL     OW92688   9.407   1.014   5.003
96952SOL    HW192689   9.396   0.998   5.097
96952SOL    HW292690   9.372   0.936   4.961
96953SOL     OW92691   1.126  10.804  12.346
96953SOL    HW192692   1.079  10.877  12.306
96953SOL    HW292693   1.213  10.838  12.364
96954SOL     OW92694   7.323   3.214  12.239
96954SOL    HW192695   7.230   3.204  12.262
96954SOL    HW292696   7.370   3.173  12.311
96955SOL     OW92697  14.163   7.852  14.416
96955SOL    HW192698  14.130   7.930  14.372
96955SOL    HW292699  14.101   7.783  14.392
96956SOL     OW92700   3.870  12.886   9.067
96956SOL    HW192701   3.870  12.834   8.986
96956SOL    HW292702   3.801  12.847   9.121
96957SOL     OW92703   6.296   3.358  11.676
96957SOL    HW192704   6.303   3.314  11.591
96957SOL    HW292705   6.253   3.441  11.656
96958SOL     OW92706  13.474  12.010   7.333
96958SOL    HW192707  13.438  11.999   7.245
96958SOL    HW292708  13.499  12.102   7.339
96959SOL     OW92709  11.506  13.775  14.252
96959SOL    HW192710  11.416  13.777  14.285
96959SOL    HW292711  11.528  13.682  14.248
96960SOL     OW92712   9.629  14.100   8.733
96960SOL    HW192713   9.704  14.159   8.736
96960SOL    HW292714   9.601  14.101   8.642
96961SOL     OW92715   3.134  13.010  13.053
96961SOL    HW192716   3.084  12.951  13.109
96961SOL    HW292717   3.068  13.066  13.011
96962SOL     OW92718  14.511  11.035   7.940
96962SOL    HW192719  14.515  10.979   8.017
96962SOL    HW292720  14.417  11.046   7.923
96963SOL     OW92721   3.207   7.895  11.469
96963SOL    HW192722   3.212   7.834  11.543
96963SOL    HW292723   3.169   7.974  11.507
96964SOL     OW92724   4.453  12.596   7.462
96964SOL    HW192725   4.455  12.506   7.496
96964SOL    HW292726   4.446  12.650   7.541
96965SOL     OW92727  12.897   4.685  13.319
96965SOL    HW192728  12.986   4.657  13.342
96965SOL    HW292729  12.887   4.769  13.363
96966SOL     OW92730   8.988   9.011  11.274
96966SOL    HW192731   8.990   9.079  11.207
96966SOL    HW292732   8.930   9.047  11.342
96967SOL     OW92733  13.259   4.901   7.533
96967SOL    HW192734  13.305   4.902   7.449
96967SOL    HW292735  13.169   4.926   7.512
96968SOL     OW92736   8.299   4.524   8.467
96968SOL    HW192737   8.219   4.473   8.481
96968SOL    HW292738   8.305   4.582   8.543
96969SOL     OW92739  11.003   6.401  10.908
96969SOL    HW192740  11.049   6.327  10.867
96969SOL    HW292741  10.983   6.460  10.836
96970SOL     OW92742  14.472  14.508   0.226
96970SOL    HW192743  14.505  14.420   0.242
96970SOL    HW292744  14.378  14.496   0.211
96971SOL     OW92745  11.165   4.624  11.248
96971SOL    HW192746  11.169   4.675  11.167
96971SOL    HW292747  11.078   4.584  11.247
96972SOL     OW92748   7.297  11.674   2.057
96972SOL    HW192749   7.283  11.595   2.005
96972SOL    HW292750   7.271  11.745   2.000
96973SOL     OW92751  11.791  11.317  11.321
96973SOL    HW192752  11.740  11.332  11.400
96973SOL    HW292753  11.794  11.222  11.312
96974SOL     OW92754   6.033  11.899  11.178
96974SOL    HW192755   6.033  11.877  11.085
96974SOL    HW292756   5.940  11.898  11.203
96975SOL     OW92757   2.131  12.811   4.264
96975SOL    HW192758   2.061  12.746   4.270
96975SOL    HW292759   2.098  12.878   4.205
96976SOL     OW92760   9.804   1.192   5.877
96976SOL    HW192761   9.799   1.253   5.803
96976SOL    HW292762   9.795   1.247   5.955
96977SOL     OW92763   2.352  11.953   1.251
96977SOL    HW192764   2.409  11.897   1.198
96977SOL    HW292765   2.313  11.894   1.315
96978SOL     OW92766   2.448  12.062   9.564
96978SOL    HW192767   2.385  12.049   9.494
96978SOL    HW292768   2.444  11.982   9.616
96979SOL     OW92769   3.175   9.464  13.505
96979SOL    HW192770   3.186   9.553  13.537
96979SOL    HW292771   3.156   9.474  13.412
96980SOL     OW92772  10.340   5.992   3.006
96980SOL    HW192773  10.278   5.934   2.960
96980SOL    HW292774  10.331   6.076   2.960
96981SOL     OW92775   6.503   6.436  10.424
96981SOL    HW192776   6.529   6.410  10.512
96981SOL    HW292777   6.582   6.475  10.386
96982SOL     OW92778   9.587   8.559   1.414
96982SOL    HW192779   9.681   8.554   1.397
96982SOL    HW292780   9.547   8.515   1.339
96983SOL     OW92781  10.728   2.282   4.261
96983SOL    HW192782  10.638   2.281   4.293
96983SOL    HW292783  10.726   2.229   4.182
96984SOL     OW92784   5.046  11.007   4.230
96984SOL    HW192785   5.092  10.933   4.190
96984SOL    HW292786   5.102  11.082   4.214
96985SOL     OW92787   1.566  13.784   0.451
96985SOL    HW192788   1.586  13.837   0.528
96985SOL    HW292789   1.643  13.792   0.395
96986SOL     OW92790   0.224  10.239   5.954
96986SOL    HW192791   0.162  10.268   5.888
96986SOL    HW292792   0.182  10.165   5.997
96987SOL     OW92793  11.464   7.457   7.715
96987SOL    HW192794  11.452   7.521   7.644
96987SOL    HW292795  11.415   7.494   7.789
96988SOL     OW92796  10.356   7.988   7.416
96988SOL    HW192797  10.364   8.041   7.496
96988SOL    HW292798  10.336   8.051   7.347
96989SOL     OW92799   2.112   3.617   0.202
96989SOL    HW192800   2.103   3.712   0.196
96989SOL    HW292801   2.206   3.602   0.214
96990SOL     OW92802   5.800   4.600   1.220
96990SOL    HW192803   5.715   4.641   1.206
96990SOL    HW292804   5.846   4.609   1.136
96991SOL     OW92805   3.321   1.295  12.677
96991SOL    HW192806   3.296   1.307  12.769
96991SOL    HW292807   3.396   1.234  12.681
96992SOL     OW92808  11.880   9.196   4.784
96992SOL    HW192809  11.883   9.225   4.693
96992SOL    HW292810  11.837   9.267   4.831
96993SOL     OW92811   0.982   1.317   7.920
96993SOL    HW192812   1.049   1.385   7.921
96993SOL    HW292813   0.929   1.334   7.998
96994SOL     OW92814  11.773   3.828   1.100
96994SOL    HW192815  11.737   3.916   1.091
96994SOL    HW292816  11.727   3.790   1.175
96995SOL     OW92817   1.112  14.586  12.557
96995SOL    HW192818   1.061  14.647  12.611
96995SOL    HW292819   1.177  14.642  12.515
96996SOL     OW92820   9.057   4.768   1.614
96996SOL    HW192821   9.081   4.798   1.702
96996SOL    HW292822   9.059   4.847   1.560
96997SOL     OW92823   3.278   4.354   4.527
96997SOL    HW192824   3.233   4.414   4.587
96997SOL    HW292825   3.214   4.285   4.511
96998SOL     OW92826   9.940   2.927  11.280
96998SOL    HW192827   9.970   2.839  11.259
96998SOL    HW292828  10.018   2.981  11.275
96999SOL     OW92829  14.141  13.786   2.274
96999SOL    HW192830  14.079  13.836   2.328
96999SOL    HW292831  14.164  13.711   2.327
97000SOL     OW92832   1.855   9.399   3.808
97000SOL    HW192833   1.874   9.351   3.889
97000SOL    HW292834   1.763   9.379   3.789
97001SOL     OW92835  13.405   6.339   4.403
97001SOL    HW192836  13.486   6.322   4.355
97001SOL    HW292837  13.369   6.253   4.422
97002SOL     OW92838   2.297  11.822   6.135
97002SOL    HW192839   2.332  11.816   6.224
97002SOL    HW292840   2.286  11.916   6.120
97003SOL     OW92841   6.075   5.518   3.137
97003SOL    HW192842   6.113   5.552   3.218
97003SOL    HW292843   6.145   5.468   3.096
97004SOL     OW92844  12.771   7.687   5.517
97004SOL    HW192845  12.723   7.748   5.460
97004SOL    HW292846  12.862   7.694   5.487
97005SOL     OW92847   4.186   8.794   1.504
97005SOL    HW192848   4.171   8.730   1.573
97005SOL    HW292849   4.113   8.781   1.443
97006SOL     OW92850   6.130   9.718   7.194
97006SOL    HW192851   6.180   9.728   7.275
97006SOL    HW292852   6.161   9.788   7.137
97007SOL     OW92853   0.127   3.948  10.764
97007SOL    HW192854   0.084   3.892  10.700
97007SOL    HW292855   0.212   3.905  10.779
97008SOL     OW92856   9.242   5.484  11.822
97008SOL    HW192857   9.275   5.490  11.911
97008SOL    HW292858   9.319   5.468  11.768
97009SOL     OW92859  14.165   0.504   3.902
97009SOL    HW192860  14.110   0.479   3.976
97009SOL    HW292861  14.248   0.531   3.942
97010SOL     OW92862   9.210  10.659   6.308
97010SOL    HW192863   9.196  10.660   6.213
97010SOL    HW292864   9.153  10.589   6.340
97011SOL     OW92865   6.615   6.304  12.676
97011SOL    HW192866   6.552   6.351  12.731
97011SOL    HW292867   6.688   6.284  12.735
97012SOL     OW92868   7.310   2.353   9.005
97012SOL    HW192869   7.383   2.349   9.066
97012SOL    HW292870   7.349   2.336   8.919
97013SOL     OW92871   8.522   4.017   7.779
97013SOL    HW192872   8.564   4.096   7.815
97013SOL    HW292873   8.541   4.020   7.685
97014SOL     OW92874  12.385  11.262  12.637
97014SOL    HW192875  12.428  11.184  12.671
97014SOL    HW292876  12.441  11.292  12.566
97015SOL     OW92877  10.347   9.524   3.215
97015SOL    HW192878  10.281   9.517   3.284
97015SOL    HW292879  10.327   9.452   3.155
97016SOL     OW92880   0.588   2.877   2.198
97016SOL    HW192881   0.672   2.848   2.164
97016SOL    HW292882   0.587   2.848   2.289
97017SOL     OW92883  13.204   7.371   2.755
97017SOL    HW192884  13.197   7.434   2.683
97017SOL    HW292885  13.190   7.286   2.713
97018SOL     OW92886   4.283  11.459   7.528
97018SOL    HW192887   4.227  11.506   7.589
97018SOL    HW292888   4.313  11.527   7.467
97019SOL     OW92889   0.724  12.019  13.219
97019SOL    HW192890   0.670  11.976  13.153
97019SOL    HW292891   0.663  12.040  13.290
97020SOL     OW92892  11.314  11.591   8.686
97020SOL    HW192893  11.295  11.537   8.609
97020SOL    HW292894  11.375  11.539   8.737
97021SOL     OW92895   4.499   2.208   2.167
97021SOL    HW192896   4.591   2.183   2.174
97021SOL    HW292897   4.501   2.303   2.156
97022SOL     OW92898   7.052  11.898  10.414
97022SOL    HW192899   7.083  11.874  10.502
97022SOL    HW292900   6.958  11.916  10.426
97023SOL     OW92901   7.112   7.729  12.985
97023SOL    HW192902   7.114   7.673  12.908
97023SOL    HW292903   7.079   7.673  13.055
97024SOL     OW92904   6.504   0.304  10.963
97024SOL    HW192905   6.495   0.285  11.056
97024SOL    HW292906   6.548   0.388  10.960
97025SOL     OW92907  13.545   2.109   9.577
97025SOL    HW192908  13.600   2.090   9.501
97025SOL    HW292909  13.469   2.051   9.566
97026SOL     OW92910  10.567   3.631  13.960
97026SOL    HW192911  10.519   3.549  13.947
97026SOL    HW292912  10.500   3.699  13.955
97027SOL     OW92913   2.323   9.871   6.560
97027SOL    HW192914   2.272   9.795   6.534
97027SOL    HW292915   2.287   9.896   6.645
97028SOL     OW92916   4.134   0.556  10.503
97028SOL    HW192917   4.187   0.537  10.580
97028SOL    HW292918   4.145   0.650  10.489
97029SOL     OW92919   7.797   6.814   2.888
97029SOL    HW192920   7.777   6.871   2.963
97029SOL    HW292921   7.786   6.871   2.812
97030SOL     OW92922   4.207   1.824   5.142
97030SOL    HW192923   4.284   1.777   5.111
97030SOL    HW292924   4.206   1.906   5.093
97031SOL     OW92925   8.988  14.244   2.020
97031SOL    HW192926   9.023  14.201   2.098
97031SOL    HW292927   8.899  14.268   2.044
97032SOL     OW92928   9.195   8.750   4.806
97032SOL    HW192929   9.101   8.735   4.811
97032SOL    HW292930   9.203   8.834   4.760
97033SOL     OW92931  14.030   9.566   6.943
97033SOL    HW192932  14.097   9.530   7.001
97033SOL    HW292933  14.015   9.655   6.975
97034SOL     OW92934  12.699   4.032   3.192
97034SOL    HW192935  12.681   4.020   3.099
97034SOL    HW292936  12.629   4.090   3.223
97035SOL     OW92937   8.909   3.551  13.730
97035SOL    HW192938   8.870   3.627  13.772
97035SOL    HW292939   8.861   3.476  13.767
97036SOL     OW92940  11.888   0.929  13.938
97036SOL    HW192941  11.868   1.021  13.957
97036SOL    HW292942  11.962   0.908  13.994
97037SOL     OW92943   8.729  14.143  13.370
97037SOL    HW192944   8.657  14.203  13.385
97037SOL    HW292945   8.693  14.076  13.312
97038SOL     OW92946  11.911   2.548  11.299
97038SOL    HW192947  11.859   2.611  11.249
97038SOL    HW292948  11.944   2.599  11.373
97039SOL     OW92949  11.555   8.978   3.567
97039SOL    HW192950  11.569   8.963   3.474
97039SOL    HW292951  11.573   9.072   3.579
97040SOL     OW92952   7.302   2.470   9.897
97040SOL    HW192953   7.308   2.481   9.992
97040SOL    HW292954   7.381   2.421   9.874
97041SOL     OW92955   8.990  12.549   6.045
97041SOL    HW192956   8.936  12.533   6.122
97041SOL    HW292957   9.075  12.575   6.079
97042SOL     OW92958   9.262   9.044   2.768
97042SOL    HW192959   9.301   8.990   2.700
97042SOL    HW292960   9.230   8.981   2.833
97043SOL     OW92961   5.723   1.709  13.731
97043SOL    HW192962   5.710   1.761  13.810
97043SOL    HW292963   5.648   1.649  13.729
97044SOL     OW92964  14.210   5.128   3.381
97044SOL    HW192965  14.118   5.131   3.409
97044SOL    HW292966  14.225   5.036   3.361
97045SOL     OW92967  13.809   5.622   6.180
97045SOL    HW192968  13.831   5.707   6.142
97045SOL    HW292969  13.730   5.638   6.231
97046SOL     OW92970  12.352   6.217   3.012
97046SOL    HW192971  12.294   6.293   3.017
97046SOL    HW292972  12.424   6.246   2.956
97047SOL     OW92973   2.851   0.920   5.413
97047SOL    HW192974   2.904   0.980   5.360
97047SOL    HW292975   2.761   0.950   5.400
97048SOL     OW92976   2.450  14.638  12.323
97048SOL    HW192977   2.452  14.713  12.382
97048SOL    HW292978   2.538  14.600  12.330
97049SOL     OW92979  14.600   7.412   2.451
97049SOL    HW192980  14.665   7.350   2.485
97049SOL    HW292981  14.607   7.487   2.509
97050SOL     OW92982   4.929  11.932   1.843
97050SOL    HW192983   4.885  12.008   1.881
97050SOL    HW292984   4.913  11.940   1.749
97051SOL     OW92985   8.043   0.251   6.787
97051SOL    HW192986   8.100   0.184   6.826
97051SOL    HW292987   8.008   0.208   6.709
97052SOL     OW92988  12.537   1.097   8.374
97052SOL    HW192989  12.493   1.158   8.433
97052SOL    HW292990  12.494   1.013   8.392
97053SOL     OW92991   6.454   4.196   0.804
97053SOL    HW192992   6.494   4.242   0.731
97053SOL    HW292993   6.520   4.131   0.830
97054SOL     OW92994   7.663  13.409  13.738
97054SOL    HW192995   7.715  13.488  13.725
97054SOL    HW292996   7.609  13.428  13.815
97055SOL     OW92997  10.739  10.432   5.638
97055SOL    HW192998  10.788  10.408   5.559
97055SOL    HW292999  10.797  10.493   5.684
97056SOL     OW93000   5.748  11.714   2.795
97056SOL    HW193001   5.718  11.766   2.870
97056SOL    HW293002   5.670  11.707   2.739
97057SOL     OW93003  14.424   4.148  14.750
97057SOL    HW193004  14.483   4.073  14.744
97057SOL    HW293005  14.468   4.207  14.812
97058SOL     OW93006   1.538   5.405   3.518
97058SOL    HW193007   1.537   5.324   3.468
97058SOL    HW293008   1.602   5.461   3.473
97059SOL     OW93009  13.098  10.335   6.877
97059SOL    HW193010  13.156  10.353   6.951
97059SOL    HW293011  13.138  10.382   6.804
97060SOL     OW93012  13.371   9.321   1.657
97060SOL    HW193013  13.354   9.335   1.750
97060SOL    HW293014  13.311   9.251   1.633
97061SOL     OW93015   4.167   2.634   8.784
97061SOL    HW193016   4.181   2.566   8.851
97061SOL    HW293017   4.213   2.602   8.707
97062SOL     OW93018   8.311   8.805   1.259
97062SOL    HW193019   8.297   8.747   1.334
97062SOL    HW293020   8.223   8.837   1.237
97063SOL     OW93021   8.476   3.778   4.332
97063SOL    HW193022   8.529   3.832   4.274
97063SOL    HW293023   8.532   3.764   4.409
97064SOL     OW93024   5.420  14.108   9.368
97064SOL    HW193025   5.407  14.147   9.455
97064SOL    HW293026   5.487  14.162   9.327
97065SOL     OW93027   2.402   9.791  14.058
97065SOL    HW193028   2.319   9.782  14.106
97065SOL    HW293029   2.404   9.714  14.000
97066SOL     OW93030   1.007  12.268   1.626
97066SOL    HW193031   1.037  12.344   1.676
97066SOL    HW293032   1.077  12.204   1.636
97067SOL     OW93033   0.531   6.290   2.500
97067SOL    HW193034   0.476   6.288   2.422
97067SOL    HW293035   0.592   6.363   2.485
97068SOL     OW93036   8.348   7.082   5.668
97068SOL    HW193037   8.419   7.019   5.661
97068SOL    HW293038   8.295   7.067   5.590
97069SOL     OW93039   5.284  11.340   3.983
97069SOL    HW193040   5.311  11.326   4.074
97069SOL    HW293041   5.284  11.252   3.944
97070SOL     OW93042   1.003   5.206   7.737
97070SOL    HW193043   0.989   5.283   7.793
97070SOL    HW293044   1.085   5.225   7.691
97071SOL     OW93045   6.336   5.052   2.200
97071SOL    HW193046   6.293   5.063   2.285
97071SOL    HW293047   6.390   4.974   2.210
97072SOL     OW93048  13.904   9.313   3.323
97072SOL    HW193049  13.854   9.239   3.358
97072SOL    HW293050  13.841   9.386   3.321
97073SOL     OW93051  13.381   8.759   9.689
97073SOL    HW193052  13.466   8.714   9.685
97073SOL    HW293053  13.355   8.770   9.598
97074SOL     OW93054   5.152  10.594   5.112
97074SOL    HW193055   5.146  10.499   5.119
97074SOL    HW293056   5.241  10.610   5.080
97075SOL     OW93057   8.735   3.767   6.347
97075SOL    HW193058   8.722   3.737   6.437
97075SOL    HW293059   8.792   3.701   6.308
97076SOL     OW93060   5.196   2.193   1.110
97076SOL    HW193061   5.148   2.273   1.130
97076SOL    HW293062   5.288   2.217   1.117
97077SOL     OW93063   4.839   0.107   6.155
97077SOL    HW193064   4.761   0.079   6.203
97077SOL    HW293065   4.900   0.135   6.222
97078SOL     OW93066   9.245  12.164  13.293
97078SOL    HW193067   9.332  12.197  13.317
97078SOL    HW293068   9.217  12.220  13.221
97079SOL     OW93069   0.160   2.011   8.696
97079SOL    HW193070   0.074   1.983   8.664
97079SOL    HW293071   0.146   2.027   8.789
97080SOL     OW93072  13.189   1.290  11.820
97080SOL    HW193073  13.201   1.303  11.726
97080SOL    HW293074  13.211   1.375  11.859
97081SOL     OW93075   7.466   3.488  11.008
97081SOL    HW193076   7.383   3.451  10.978
97081SOL    HW293077   7.532   3.428  10.976
97082SOL     OW93078  12.784   5.472   2.332
97082SOL    HW193079  12.858   5.486   2.391
97082SOL    HW293080  12.722   5.421   2.384
97083SOL     OW93081   3.204  12.275   6.130
97083SOL    HW193082   3.207  12.207   6.197
97083SOL    HW293083   3.188  12.356   6.178
97084SOL     OW93084  13.745   7.121   5.798
97084SOL    HW193085  13.833   7.105   5.765
97084SOL    HW293086  13.687   7.075   5.736
97085SOL     OW93087   1.512  12.303  11.233
97085SOL    HW193088   1.519  12.243  11.159
97085SOL    HW293089   1.569  12.266  11.300
97086SOL     OW93090  11.966  13.073   2.198
97086SOL    HW193091  12.001  13.033   2.118
97086SOL    HW293092  11.881  13.031   2.211
97087SOL     OW93093  14.426   9.250   7.862
97087SOL    HW193094  14.385   9.304   7.930
97087SOL    HW293095  14.478   9.312   7.811
97088SOL     OW93096   7.360   9.195  10.794
97088SOL    HW193097   7.422   9.190  10.722
97088SOL    HW293098   7.321   9.282  10.785
97089SOL     OW93099   0.893  14.735   6.231
97089SOL    HW193100   0.800  14.716   6.221
97089SOL    HW293101   0.919  14.773   6.147
97090SOL     OW93102  10.890   3.986   2.942
97090SOL    HW193103  10.799   3.966   2.964
97090SOL    HW293104  10.901   3.956   2.852
97091SOL     OW93105   6.589   0.312   0.865
97091SOL    HW193106   6.653   0.350   0.925
97091SOL    HW293107   6.609   0.218   0.864
97092SOL     OW93108  14.468   8.242  13.670
97092SOL    HW193109  14.454   8.201  13.756
97092SOL    HW293110  14.486   8.168  13.612
97093SOL     OW93111   3.541   5.860   0.464
97093SOL    HW193112   3.580   5.943   0.437
97093SOL    HW293113   3.455   5.859   0.423
97094SOL     OW93114   7.864   2.533   8.993
97094SOL    HW193115   7.830   2.583   9.067
97094SOL    HW293116   7.786   2.508   8.943
97095SOL     OW93117   2.164   2.308   8.787
97095SOL    HW193118   2.246   2.336   8.745
97095SOL    HW293119   2.105   2.290   8.714
97096SOL     OW93120   6.491  10.025   6.876
97096SOL    HW193121   6.549   9.982   6.814
97096SOL    HW293122   6.518   9.991   6.961
97097SOL     OW93123  13.170   2.448   6.161
97097SOL    HW193124  13.163   2.539   6.130
97097SOL    HW293125  13.127   2.396   6.093
97098SOL     OW93126   5.779  12.104   5.537
97098SOL    HW193127   5.786  12.137   5.627
97098SOL    HW293128   5.748  12.179   5.487
97099SOL     OW93129  10.393   3.733   7.082
97099SOL    HW193130  10.480   3.746   7.044
97099SOL    HW293131  10.358   3.657   7.035
97100SOL     OW93132   4.652   6.221   8.624
97100SOL    HW193133   4.684   6.215   8.534
97100SOL    HW293134   4.666   6.313   8.648
97101SOL     OW93135   7.650   2.383   7.183
97101SOL    HW193136   7.708   2.323   7.136
97101SOL    HW293137   7.676   2.374   7.275
97102SOL     OW93138   1.322  14.477  12.975
97102SOL    HW193139   1.405  14.453  12.934
97102SOL    HW293140   1.255  14.450  12.912
97103SOL     OW93141  11.644  13.986   5.727
97103SOL    HW193142  11.613  13.929   5.656
97103SOL    HW293143  11.724  14.027   5.692
97104SOL     OW93144   0.526   5.913  12.192
97104SOL    HW193145   0.538   5.887  12.101
97104SOL    HW293146   0.559   5.839  12.243
97105SOL     OW93147   9.785   2.695  14.639
97105SOL    HW193148   9.831   2.644  14.706
97105SOL    HW293149   9.839   2.773  14.626
97106SOL     OW93150   5.460  12.924   1.163
97106SOL    HW193151   5.469  12.932   1.258
97106SOL    HW293152   5.547  12.944   1.130
97107SOL     OW93153   0.342   4.809   2.658
97107SOL    HW193154   0.396   4.853   2.724
97107SOL    HW293155   0.404   4.788   2.588
97108SOL     OW93156   0.016   4.805   8.484
97108SOL    HW193157  14.808   4.786   8.533
97108SOL    HW293158   0.067   4.859   8.543
97109SOL     OW93159   5.180   7.310  12.481
97109SOL    HW193160   5.158   7.368  12.408
97109SOL    HW293161   5.271   7.286  12.465
97110SOL     OW93162   4.879   8.562   0.784
97110SOL    HW193163   4.935   8.629   0.824
97110SOL    HW293164   4.918   8.479   0.813
97111SOL     OW93165   4.439   0.925   4.408
97111SOL    HW193166   4.518   0.962   4.369
97111SOL    HW293167   4.402   0.869   4.339
97112SOL     OW93168  12.531  10.734   0.754
97112SOL    HW193169  12.618  10.696   0.742
97112SOL    HW293170  12.529  10.810   0.696
97113SOL     OW93171   6.472   5.844   7.325
97113SOL    HW193172   6.406   5.781   7.351
97113SOL    HW293173   6.555   5.795   7.328
97114SOL     OW93174  11.127   7.841   9.251
97114SOL    HW193175  11.191   7.772   9.236
97114SOL    HW293176  11.120   7.846   9.347
97115SOL     OW93177   1.095  14.614  10.530
97115SOL    HW193178   1.174  14.560  10.522
97115SOL    HW293179   1.108  14.664  10.611
97116SOL     OW93180  10.301  14.647   5.502
97116SOL    HW193181  10.247  14.570   5.519
97116SOL    HW293182  10.338  14.631   5.415
97117SOL     OW93183   3.290   7.110  12.306
97117SOL    HW193184   3.385   7.105  12.303
97117SOL    HW293185   3.263   7.029  12.350
97118SOL     OW93186   5.315   6.734  11.693
97118SOL    HW193187   5.307   6.798  11.763
97118SOL    HW293188   5.374   6.775  11.629
97119SOL     OW93189   0.023   4.953   9.478
97119SOL    HW193190  14.867   4.902   9.554
97119SOL    HW293191   0.109   4.986   9.503
97120SOL     OW93192   7.880   9.075   4.685
97120SOL    HW193193   7.797   9.113   4.715
97120SOL    HW293194   7.887   9.101   4.593
97121SOL     OW93195   1.942   2.287  10.659
97121SOL    HW193196   1.994   2.245  10.726
97121SOL    HW293197   1.877   2.338  10.707
97122SOL     OW93198   9.030   7.786   9.855
97122SOL    HW193199   9.077   7.716   9.809
97122SOL    HW293200   8.991   7.839   9.785
97123SOL     OW93201   6.318   6.565   3.330
97123SOL    HW193202   6.393   6.598   3.380
97123SOL    HW293203   6.255   6.537   3.397
97124SOL     OW93204  11.539   2.665   3.356
97124SOL    HW193205  11.519   2.646   3.448
97124SOL    HW293206  11.507   2.754   3.342
97125SOL     OW93207  10.281  11.616  14.596
97125SOL    HW193208  10.261  11.573  14.679
97125SOL    HW293209  10.242  11.560  14.529
97126SOL     OW93210  11.269   6.861   2.860
97126SOL    HW193211  11.187   6.901   2.889
97126SOL    HW293212  11.311   6.832   2.940
97127SOL     OW93213   1.811  11.059   5.808
97127SOL    HW193214   1.759  11.112   5.869
97127SOL    HW293215   1.759  10.980   5.796
97128SOL     OW93216   3.668  11.123   4.603
97128SOL    HW193217   3.576  11.143   4.586
97128SOL    HW293218   3.670  11.029   4.616
97129SOL     OW93219   1.050   1.562  11.755
97129SOL    HW193220   1.001   1.527  11.680
97129SOL    HW293221   1.075   1.484  11.806
97130SOL     OW93222   6.632   7.387   6.200
97130SOL    HW193223   6.568   7.458   6.188
97130SOL    HW293224   6.580   7.308   6.203
97131SOL     OW93225   7.747  13.278   1.341
97131SOL    HW193226   7.658  13.246   1.330
97131SOL    HW293227   7.738  13.361   1.388
97132SOL     OW93228   0.121   5.260   8.106
97132SOL    HW193229   0.051   5.266   8.042
97132SOL    HW293230   0.197   5.299   8.062
97133SOL     OW93231  10.246   6.399   4.358
97133SOL    HW193232  10.279   6.309   4.365
97133SOL    HW293233  10.273   6.428   4.271
97134SOL     OW93234   8.426   6.340  11.311
97134SOL    HW193235   8.474   6.392  11.247
97134SOL    HW293236   8.453   6.376  11.396
97135SOL     OW93237  10.381   3.839  11.348
97135SOL    HW193238  10.443   3.911  11.353
97135SOL    HW293239  10.413   3.785  11.276
97136SOL     OW93240   4.224   0.721   8.967
97136SOL    HW193241   4.292   0.787   8.954
97136SOL    HW293242   4.262   0.640   8.934
97137SOL     OW93243  13.943   7.981   6.602
97137SOL    HW193244  13.988   7.926   6.666
97137SOL    HW293245  13.850   7.965   6.617
97138SOL     OW93246   8.189   3.204   6.545
97138SOL    HW193247   8.220   3.113   6.550
97138SOL    HW293248   8.165   3.226   6.635
97139SOL     OW93249   2.872  11.886   4.971
97139SOL    HW193250   2.889  11.980   4.962
97139SOL    HW293251   2.788  11.881   5.017
97140SOL     OW93252   8.245   0.284   1.295
97140SOL    HW193253   8.336   0.263   1.273
97140SOL    HW293254   8.252   0.353   1.361
97141SOL     OW93255   4.927   6.721   0.371
97141SOL    HW193256   4.896   6.790   0.430
97141SOL    HW293257   4.859   6.654   0.374
97142SOL     OW93258  13.431   9.365  13.022
97142SOL    HW193259  13.431   9.381  12.928
97142SOL    HW293260  13.347   9.399  13.052
97143SOL     OW93261  10.318   8.440   7.223
97143SOL    HW193262  10.223   8.436   7.221
97143SOL    HW293263  10.339   8.521   7.175
97144SOL     OW93264   7.559  12.706   1.000
97144SOL    HW193265   7.515  12.736   0.921
97144SOL    HW293266   7.627  12.772   1.017
97145SOL     OW93267   8.946  12.381  14.319
97145SOL    HW193268   8.937  12.340  14.405
97145SOL    HW293269   8.930  12.474  14.336
97146SOL     OW93270  11.398   9.672   3.567
97146SOL    HW193271  11.316   9.690   3.613
97146SOL    HW293272  11.402   9.737   3.497
97147SOL     OW93273   2.691   1.764   6.432
97147SOL    HW193274   2.613   1.720   6.466
97147SOL    HW293275   2.656   1.828   6.369
97148SOL     OW93276   0.955  13.613   1.362
97148SOL    HW193277   0.894  13.626   1.289
97148SOL    HW293278   1.040  13.642   1.328
97149SOL     OW93279   2.856   8.690  11.868
97149SOL    HW193280   2.850   8.682  11.964
97149SOL    HW293281   2.786   8.751  11.846
97150SOL     OW93282  11.092   8.847   2.514
97150SOL    HW193283  11.177   8.890   2.507
97150SOL    HW293284  11.111   8.760   2.549
97151SOL     OW93285   2.113  12.304   8.021
97151SOL    HW193286   2.136  12.320   8.112
97151SOL    HW293287   2.083  12.389   7.988
97152SOL     OW93288  12.231  13.006   8.111
97152SOL    HW193289  12.287  13.058   8.168
97152SOL    HW293290  12.258  13.030   8.022
97153SOL     OW93291   8.309  12.122  13.702
97153SOL    HW193292   8.246  12.161  13.762
97153SOL    HW293293   8.380  12.186  13.696
97154SOL     OW93294  11.095   5.400   8.036
97154SOL    HW193295  11.092   5.346   8.114
97154SOL    HW293296  11.154   5.354   7.977
97155SOL     OW93297   3.021  13.775   6.278
97155SOL    HW193298   3.039  13.855   6.228
97155SOL    HW293299   2.953  13.800   6.339
97156SOL     OW93300   3.950  10.263   6.023
97156SOL    HW193301   3.924  10.355   6.015
97156SOL    HW293302   3.975  10.253   6.115
97157SOL     OW93303   9.510   1.595  10.046
97157SOL    HW193304   9.461   1.623   9.969
97157SOL    HW293305   9.602   1.601  10.020
97158SOL     OW93306   1.251   6.599   2.066
97158SOL    HW193307   1.306   6.589   1.988
97158SOL    HW293308   1.287   6.538   2.130
97159SOL     OW93309   4.519   3.290  11.671
97159SOL    HW193310   4.496   3.205  11.707
97159SOL    HW293311   4.484   3.353  11.734
97160SOL     OW93312   5.147  10.031   5.541
97160SOL    HW193313   5.187  10.118   5.549
97160SOL    HW293314   5.201   9.985   5.478
97161SOL     OW93315   9.489  12.686   4.669
97161SOL    HW193316   9.489  12.653   4.759
97161SOL    HW293317   9.396  12.705   4.651
97162SOL     OW93318   3.269   7.641   9.948
97162SOL    HW193319   3.229   7.727   9.937
97162SOL    HW293320   3.288   7.635  10.042
97163SOL     OW93321   2.528   1.090  10.167
97163SOL    HW193322   2.438   1.108  10.194
97163SOL    HW293323   2.520   1.043  10.084
97164SOL     OW93324  13.345  12.198   2.056
97164SOL    HW193325  13.427  12.205   2.105
97164SOL    HW293326  13.303  12.283   2.067
97165SOL     OW93327   0.057  14.231   0.643
97165SOL    HW193328   0.086  14.150   0.602
97165SOL    HW293329   0.004  14.203   0.717
97166SOL     OW93330   1.798   0.831   5.345
97166SOL    HW193331   1.816   0.913   5.391
97166SOL    HW293332   1.745   0.856   5.270
97167SOL     OW93333   4.404   4.350   3.622
97167SOL    HW193334   4.362   4.435   3.609
97167SOL    HW293335   4.489   4.359   3.579
97168SOL     OW93336   1.964   8.461   2.610
97168SOL    HW193337   1.992   8.552   2.608
97168SOL    HW293338   1.895   8.456   2.544
97169SOL     OW93339   1.983   7.694  10.156
97169SOL    HW193340   2.021   7.690  10.244
97169SOL    HW293341   2.037   7.633  10.105
97170SOL     OW93342  13.011   7.205   7.456
97170SOL    HW193343  12.989   7.205   7.549
97170SOL    HW293344  12.931   7.175   7.413
97171SOL     OW93345  14.105   2.303   7.738
97171SOL    HW193346  14.154   2.374   7.780
97171SOL    HW293347  14.095   2.237   7.807
97172SOL     OW93348  14.732  10.826   5.688
97172SOL    HW193349  14.772  10.884   5.753
97172SOL    HW293350  14.724  10.880   5.609
97173SOL     OW93351   6.447  13.648   9.850
97173SOL    HW193352   6.507  13.685   9.915
97173SOL    HW293353   6.372  13.619   9.901
97174SOL     OW93354  13.821  14.500  11.471
97174SOL    HW193355  13.810  14.542  11.385
97174SOL    HW293356  13.755  14.431  11.472
97175SOL     OW93357   9.919   8.347   0.387
97175SOL    HW193358   9.976   8.370   0.460
97175SOL    HW293359   9.979   8.337   0.313
97176SOL     OW93360  10.884   8.317   5.513
97176SOL    HW193361  10.837   8.234   5.504
97176SOL    HW293362  10.854   8.353   5.596
97177SOL     OW93363  14.335  13.237   8.221
97177SOL    HW193364  14.246  13.236   8.257
97177SOL    HW293365  14.328  13.291   8.142
97178SOL     OW93366  10.995   7.948  14.766
97178SOL    HW193367  11.068   8.003  14.796
97178SOL    HW293368  10.965   7.904  14.845
97179SOL     OW93369   4.049   7.367  11.508
97179SOL    HW193370   4.134   7.408  11.491
97179SOL    HW293371   4.028   7.322  11.427
97180SOL     OW93372   3.986  14.120   2.034
97180SOL    HW193373   4.001  14.147   2.124
97180SOL    HW293374   3.989  14.024   2.036
97181SOL     OW93375   6.046   9.176   6.524
97181SOL    HW193376   6.103   9.114   6.478
97181SOL    HW293377   6.048   9.147   6.616
97182SOL     OW93378   7.574  12.268   4.674
97182SOL    HW193379   7.620  12.327   4.734
97182SOL    HW293380   7.579  12.311   4.589
97183SOL     OW93381  13.279   4.270   4.299
97183SOL    HW193382  13.206   4.244   4.243
97183SOL    HW293383  13.249   4.252   4.388
97184SOL     OW93384   4.929   1.891  14.046
97184SOL    HW193385   4.897   1.964  14.099
97184SOL    HW293386   5.024   1.892  14.060
97185SOL     OW93387   0.441  11.582   4.947
97185SOL    HW193388   0.367  11.629   4.987
97185SOL    HW293389   0.415  11.490   4.951
97186SOL     OW93390  10.103   7.851   8.844
97186SOL    HW193391  10.053   7.927   8.815
97186SOL    HW293392  10.070   7.779   8.791
97187SOL     OW93393   7.918   3.706  12.068
97187SOL    HW193394   7.984   3.773  12.088
97187SOL    HW293395   7.835   3.744  12.096
97188SOL     OW93396  13.572   2.228  10.035
97188SOL    HW193397  13.639   2.169  10.002
97188SOL    HW293398  13.530   2.180  10.105
97189SOL     OW93399   8.328   3.004  12.622
97189SOL    HW193400   8.251   3.061  12.627
97189SOL    HW293401   8.332   2.962  12.708
97190SOL     OW93402  14.683  13.048   2.471
97190SOL    HW193403  14.670  12.976   2.531
97190SOL    HW293404  14.758  13.022   2.417
97191SOL     OW93405   9.562   4.092   3.076
97191SOL    HW193406   9.523   4.009   3.048
97191SOL    HW293407   9.655   4.071   3.088
97192SOL     OW93408   2.692   3.908   5.967
97192SOL    HW193409   2.670   4.001   5.972
97192SOL    HW293410   2.631   3.866   6.028
97193SOL     OW93411  11.049   0.513   9.344
97193SOL    HW193412  10.955   0.524   9.351
97193SOL    HW293413  11.085   0.562   9.417
97194SOL     OW93414   3.100   1.894   4.104
97194SOL    HW193415   3.044   1.946   4.047
97194SOL    HW293416   3.095   1.938   4.189
97195SOL     OW93417  12.022   9.463   9.566
97195SOL    HW193418  11.968   9.490   9.492
97195SOL    HW293419  11.959   9.442   9.635
97196SOL     OW93420   4.816   4.687   4.543
97196SOL    HW193421   4.816   4.702   4.449
97196SOL    HW293422   4.734   4.639   4.559
97197SOL     OW93423   3.102   7.548   5.034
97197SOL    HW193424   3.011   7.523   5.017
97197SOL    HW293425   3.097   7.627   5.087
97198SOL     OW93426   2.617   7.295   2.656
97198SOL    HW193427   2.642   7.378   2.615
97198SOL    HW293428   2.593   7.319   2.746
97199SOL     OW93429   0.782   9.755   2.534
97199SOL    HW193430   0.823   9.669   2.521
97199SOL    HW293431   0.732   9.770   2.454
97200SOL     OW93432   5.666   1.246  14.749
97200SOL    HW193433   5.647   1.154  14.734
97200SOL    HW293434   5.636   1.263  14.838
97201SOL     OW93435   1.186   7.578   3.128
97201SOL    HW193436   1.133   7.532   3.193
97201SOL    HW293437   1.229   7.648   3.177
97202SOL     OW93438  14.475   3.977   5.964
97202SOL    HW193439  14.530   3.953   5.889
97202SOL    HW293440  14.473   4.073   5.962
97203SOL     OW93441   6.886   1.011   9.417
97203SOL    HW193442   6.851   1.093   9.453
97203SOL    HW293443   6.911   0.959   9.493
97204SOL     OW93444  10.410  12.692   7.521
97204SOL    HW193445  10.428  12.624   7.586
97204SOL    HW293446  10.485  12.751   7.526
97205SOL     OW93447  12.370   8.309   3.516
97205SOL    HW193448  12.424   8.244   3.562
97205SOL    HW293449  12.337   8.366   3.586
97206SOL     OW93450  14.337   1.282   9.838
97206SOL    HW193451  14.393   1.230   9.895
97206SOL    HW293452  14.358   1.252   9.749
97207SOL     OW93453  13.605  13.770   1.204
97207SOL    HW193454  13.592  13.849   1.152
97207SOL    HW293455  13.686  13.785   1.252
97208SOL     OW93456  13.848   3.725   7.234
97208SOL    HW193457  13.934   3.705   7.199
97208SOL    HW293458  13.787   3.678   7.176
97209SOL     OW93459   6.934  13.108  14.057
97209SOL    HW193460   6.883  13.034  14.023
97209SOL    HW293461   6.913  13.181  13.999
97210SOL     OW93462  12.294   3.867   5.025
97210SOL    HW193463  12.260   3.949   5.062
97210SOL    HW293464  12.347   3.895   4.950
97211SOL     OW93465   5.818  11.225   9.696
97211SOL    HW193466   5.775  11.209   9.780
97211SOL    HW293467   5.814  11.320   9.685
97212SOL     OW93468   6.087   7.033   9.088
97212SOL    HW193469   6.035   7.113   9.081
97212SOL    HW293470   6.170   7.061   9.127
97213SOL     OW93471   6.702   3.415   9.191
97213SOL    HW193472   6.754   3.350   9.237
97213SOL    HW293473   6.678   3.480   9.258
97214SOL     OW93474   0.386  11.992   8.150
97214SOL    HW193475   0.420  12.047   8.220
97214SOL    HW293476   0.351  11.915   8.195
97215SOL     OW93477  11.289  14.524   5.863
97215SOL    HW193478  11.220  14.511   5.928
97215SOL    HW293479  11.250  14.581   5.797
97216SOL     OW93480   5.039   4.666   4.665
97216SOL    HW193481   5.004   4.696   4.749
97216SOL    HW293482   4.962   4.662   4.607
97217SOL     OW93483   8.484  14.811  10.008
97217SOL    HW193484   8.411  14.781   9.953
97217SOL    HW293485   8.512  14.732  10.055
97218SOL     OW93486   7.523   4.407   8.327
97218SOL    HW193487   7.444   4.413   8.381
97218SOL    HW293488   7.573   4.334   8.364
97219SOL     OW93489   2.039   6.522  13.206
97219SOL    HW193490   2.108   6.535  13.271
97219SOL    HW293491   2.078   6.551  13.123
97220SOL     OW93492   4.971  13.732  13.543
97220SOL    HW193493   4.962  13.791  13.468
97220SOL    HW293494   5.003  13.650  13.505
97221SOL     OW93495   6.920   8.383   3.342
97221SOL    HW193496   6.830   8.398   3.371
97221SOL    HW293497   6.915   8.380   3.247
97222SOL     OW93498   0.646   0.588   5.329
97222SOL    HW193499   0.693   0.580   5.411
97222SOL    HW293500   0.710   0.627   5.268
97223SOL     OW93501   8.863   7.735   4.486
97223SOL    HW193502   8.828   7.700   4.568
97223SOL    HW293503   8.867   7.659   4.428
97224SOL     OW93504   2.284   5.344  13.346
97224SOL    HW193505   2.189   5.329  13.345
97224SOL    HW293506   2.311   5.329  13.255
97225SOL     OW93507  14.845  13.002  14.107
97225SOL    HW193508  14.759  13.015  14.067
97225SOL    HW293509   0.029  12.978  14.034
97226SOL     OW93510   6.009   2.744   9.592
97226SOL    HW193511   5.965   2.660   9.600
97226SOL    HW293512   5.979   2.779   9.508
97227SOL     OW93513   5.975  10.106   8.011
97227SOL    HW193514   6.035  10.172   8.044
97227SOL    HW293515   6.032  10.036   7.977
97228SOL     OW93516   4.813  12.386   4.198
97228SOL    HW193517   4.761  12.308   4.181
97228SOL    HW293518   4.831  12.423   4.111
97229SOL     OW93519  10.060   1.043   5.254
97229SOL    HW193520  10.014   1.008   5.177
97229SOL    HW293521  10.037   1.135   5.256
97230SOL     OW93522  11.443  13.355  11.489
97230SOL    HW193523  11.438  13.321  11.399
97230SOL    HW293524  11.447  13.277  11.544
97231SOL     OW93525  11.587  10.191   1.755
97231SOL    HW193526  11.645  10.143   1.814
97231SOL    HW293527  11.634  10.272   1.736
97232SOL     OW93528   9.599   2.427  13.981
97232SOL    HW193529   9.594   2.441  13.887
97232SOL    HW293530   9.556   2.343  13.995
97233SOL     OW93531   2.762   4.282   2.121
97233SOL    HW193532   2.799   4.281   2.209
97233SOL    HW293533   2.670   4.259   2.132
97234SOL     OW93534  14.281   3.209   3.356
97234SOL    HW193535  14.256   3.137   3.298
97234SOL    HW293536  14.199   3.238   3.396
97235SOL     OW93537   8.540   0.102  14.612
97235SOL    HW193538   8.536   0.013  14.647
97235SOL    HW293539   8.630   0.129  14.624
97236SOL     OW93540  14.649   0.190   1.007
97236SOL    HW193541  14.557   0.200   1.031
97236SOL    HW293542  14.653   0.219   0.916
97237SOL     OW93543   8.443   6.581  11.771
97237SOL    HW193544   8.510   6.579  11.839
97237SOL    HW293545   8.373   6.634  11.809
97238SOL     OW93546   1.801  12.415  10.462
97238SOL    HW193547   1.711  12.402  10.491
97238SOL    HW293548   1.842  12.468  10.530
97239SOL     OW93549  14.375  14.626   3.263
97239SOL    HW193550  14.423  14.642   3.344
97239SOL    HW293551  14.289  14.666   3.278
97240SOL     OW93552   0.592  13.194  11.769
97240SOL    HW193553   0.566  13.284  11.788
97240SOL    HW293554   0.512  13.143  11.784
97241SOL     OW93555  13.951  14.636   5.694
97241SOL    HW193556  13.865  14.614   5.659
97241SOL    HW293557  13.953  14.731   5.695
97242SOL     OW93558   8.248   0.220  12.107
97242SOL    HW193559   8.184   0.249  12.042
97242SOL    HW293560   8.253   0.291  12.170
97243SOL     OW93561   2.141  13.513   0.745
97243SOL    HW193562   2.198  13.562   0.804
97243SOL    HW293563   2.166  13.544   0.658
97244SOL     OW93564   6.659  13.156   9.137
97244SOL    HW193565   6.663  13.127   9.046
97244SOL    HW293566   6.642  13.076   9.187
97245SOL     OW93567  12.194   7.776  13.228
97245SOL    HW193568  12.173   7.831  13.153
97245SOL    HW293569  12.115   7.778  13.282
97246SOL     OW93570   0.683   2.099   4.484
97246SOL    HW193571   0.704   2.084   4.392
97246SOL    HW293572   0.747   2.047   4.533
97247SOL     OW93573   1.519   8.252  10.468
97247SOL    HW193574   1.472   8.246  10.385
97247SOL    HW293575   1.591   8.312  10.451
97248SOL     OW93576   4.087   1.959   6.818
97248SOL    HW193577   3.995   1.939   6.835
97248SOL    HW293578   4.088   1.988   6.727
97249SOL     OW93579   5.891  14.770  13.743
97249SOL    HW193580   5.805  14.792  13.779
97249SOL    HW293581   5.914  14.844  13.687
97250SOL     OW93582  12.517   8.355  10.162
97250SOL    HW193583  12.573   8.278  10.167
97250SOL    HW293584  12.433   8.322  10.132
97251SOL     OW93585   0.279   7.644  12.875
97251SOL    HW193586   0.366   7.674  12.899
97251SOL    HW293587   0.285   7.548  12.876
97252SOL     OW93588   1.639   5.719   6.106
97252SOL    HW193589   1.640   5.777   6.183
97252SOL    HW293590   1.730   5.695   6.092
97253SOL     OW93591  10.990   2.371   1.486
97253SOL    HW193592  10.977   2.412   1.572
97253SOL    HW293593  11.067   2.315   1.497
97254SOL     OW93594   1.364  11.155  12.986
97254SOL    HW193595   1.302  11.091  12.952
97254SOL    HW293596   1.344  11.161  13.079
97255SOL     OW93597  13.700   5.901   2.014
97255SOL    HW193598  13.708   5.993   2.038
97255SOL    HW293599  13.784   5.862   2.038
97256SOL     OW93600  12.855   0.028  11.340
97256SOL    HW193601  12.800  14.826  11.315
97256SOL    HW293602  12.794   0.098  11.361
97257SOL     OW93603   6.587   3.175   0.894
97257SOL    HW193604   6.511   3.163   0.951
97257SOL    HW293605   6.552   3.222   0.818
97258SOL     OW93606   2.088   1.866   7.328
97258SOL    HW193607   2.087   1.956   7.295
97258SOL    HW293608   2.177   1.835   7.312
97259SOL     OW93609   6.339  11.633   0.399
97259SOL    HW193610   6.384  11.605   0.319
97259SOL    HW293611   6.357  11.562   0.461
97260SOL     OW93612   7.092  10.273   8.364
97260SOL    HW193613   7.076  10.231   8.279
97260SOL    HW293614   7.185  10.293   8.363
97261SOL     OW93615  14.027  11.607   2.888
97261SOL    HW193616  13.933  11.594   2.895
97261SOL    HW293617  14.062  11.568   2.969
97262SOL     OW93618   2.836   7.100   2.008
97262SOL    HW193619   2.853   7.079   2.100
97262SOL    HW293620   2.810   7.016   1.969
97263SOL     OW93621  13.728   0.606   2.100
97263SOL    HW193622  13.748   0.673   2.035
97263SOL    HW293623  13.773   0.635   2.180
97264SOL     OW93624  14.582   9.248   6.824
97264SOL    HW193625  14.585   9.176   6.761
97264SOL    HW293626  14.508   9.302   6.796
97265SOL     OW93627   0.390   5.124  14.232
97265SOL    HW193628   0.405   5.149  14.323
97265SOL    HW293629   0.323   5.185  14.201
97266SOL     OW93630   5.527   0.057   4.393
97266SOL    HW193631   5.488   0.042   4.307
97266SOL    HW293632   5.466   0.018   4.455
97267SOL     OW93633  14.157   8.190   8.389
97267SOL    HW193634  14.163   8.158   8.479
97267SOL    HW293635  14.236   8.243   8.377
97268SOL     OW93636  13.374  14.294   2.075
97268SOL    HW193637  13.391  14.208   2.037
97268SOL    HW293638  13.328  14.275   2.157
97269SOL     OW93639   9.310  13.664   9.240
97269SOL    HW193640   9.275  13.690   9.326
97269SOL    HW293641   9.266  13.582   9.219
97270SOL     OW93642   8.798   8.530   3.966
97270SOL    HW193643   8.759   8.536   3.879
97270SOL    HW293644   8.765   8.448   4.002
97271SOL     OW93645   8.863   2.054   4.359
97271SOL    HW193646   8.793   2.116   4.338
97271SOL    HW293647   8.927   2.105   4.408
97272SOL     OW93648   6.428   7.282   5.410
97272SOL    HW193649   6.444   7.200   5.456
97272SOL    HW293650   6.447   7.350   5.475
97273SOL     OW93651   0.142   8.312  12.635
97273SOL    HW193652   0.224   8.319  12.586
97273SOL    HW293653   0.074   8.339  12.573
97274SOL     OW93654   2.713   9.040  11.505
97274SOL    HW193655   2.658   9.050  11.427
97274SOL    HW293656   2.798   9.014  11.470
97275SOL     OW93657   3.137   0.117   9.788
97275SOL    HW193658   3.090   0.078   9.861
97275SOL    HW293659   3.130   0.211   9.802
97276SOL     OW93660   7.638  13.207  10.129
97276SOL    HW193661   7.564  13.238  10.077
97276SOL    HW293662   7.671  13.286  10.173
97277SOL     OW93663   4.634  13.255   5.725
97277SOL    HW193664   4.575  13.193   5.767
97277SOL    HW293665   4.706  13.201   5.693
97278SOL     OW93666   6.333  13.649   1.987
97278SOL    HW193667   6.342  13.579   1.923
97278SOL    HW293668   6.385  13.721   1.951
97279SOL     OW93669   8.217   1.686   0.838
97279SOL    HW193670   8.286   1.752   0.832
97279SOL    HW293671   8.138   1.730   0.809
97280SOL     OW93672   9.185  10.133   3.640
97280SOL    HW193673   9.278  10.156   3.630
97280SOL    HW293674   9.183  10.076   3.717
97281SOL     OW93675  13.963   3.055  11.641
97281SOL    HW193676  13.926   2.975  11.678
97281SOL    HW293677  14.052   3.032  11.616
97282SOL     OW93678   0.770   6.806   0.270
97282SOL    HW193679   0.782   6.844   0.357
97282SOL    HW293680   0.815   6.866   0.211
97283SOL     OW93681  10.747   8.890   8.393
97283SOL    HW193682  10.689   8.954   8.351
97283SOL    HW293683  10.800   8.855   8.321
97284SOL     OW93684   3.231   9.758  10.887
97284SOL    HW193685   3.302   9.736  10.827
97284SOL    HW293686   3.268   9.745  10.974
97285SOL     OW93687   8.744  12.029   2.583
97285SOL    HW193688   8.768  11.968   2.652
97285SOL    HW293689   8.648  12.035   2.587
97286SOL     OW93690  13.287   3.275   3.368
97286SOL    HW193691  13.203   3.230   3.380
97286SOL    HW293692  13.322   3.240   3.286
97287SOL     OW93693   1.623   7.327  10.546
97287SOL    HW193694   1.530   7.346  10.542
97287SOL    HW293695   1.661   7.372  10.471
97288SOL     OW93696  13.928   8.567  11.250
97288SOL    HW193697  13.993   8.626  11.214
97288SOL    HW293698  13.858   8.624  11.283
97289SOL     OW93699   3.957  11.478   3.436
97289SOL    HW193700   3.902  11.437   3.503
97289SOL    HW293701   3.899  11.541   3.393
97290SOL     OW93702   1.656   0.539  12.962
97290SOL    HW193703   1.650   0.473  13.030
97290SOL    HW293704   1.747   0.536  12.933
97291SOL     OW93705  11.165  13.193   1.835
97291SOL    HW193706  11.176  13.276   1.790
97291SOL    HW293707  11.213  13.203   1.917
97292SOL     OW93708   6.028   4.100  12.311
97292SOL    HW193709   6.079   4.150  12.247
97292SOL    HW293710   6.003   4.164  12.377
97293SOL     OW93711   5.484   1.193   0.472
97293SOL    HW193712   5.466   1.140   0.550
97293SOL    HW293713   5.447   1.142   0.399
97294SOL     OW93714  13.249  13.890   9.277
97294SOL    HW193715  13.265  13.966   9.220
97294SOL    HW293716  13.319  13.894   9.342
97295SOL     OW93717   8.477   2.182   0.561
97295SOL    HW193718   8.472   2.188   0.466
97295SOL    HW293719   8.387   2.162   0.589
97296SOL     OW93720   9.600  11.897  14.529
97296SOL    HW193721   9.665  11.834  14.498
97296SOL    HW293722   9.623  11.912  14.621
97297SOL     OW93723  12.843  14.084  14.275
97297SOL    HW193724  12.756  14.065  14.240
97297SOL    HW293725  12.860  14.174  14.248
97298SOL     OW93726   4.652   7.659  13.481
97298SOL    HW193727   4.722   7.594  13.481
97298SOL    HW293728   4.672   7.716  13.407
97299SOL     OW93729   4.771   5.240   2.877
97299SOL    HW193730   4.856   5.198   2.882
97299SOL    HW293731   4.760   5.285   2.961
97300SOL     OW93732  13.861   1.399  10.747
97300SOL    HW193733  13.790   1.349  10.789
97300SOL    HW293734  13.843   1.391  10.653
97301SOL     OW93735   9.916   7.064  10.511
97301SOL    HW193736   9.824   7.065  10.483
97301SOL    HW293737   9.944   7.155  10.502
97302SOL     OW93738   3.763  13.624   2.359
97302SOL    HW193739   3.737  13.543   2.404
97302SOL    HW293740   3.737  13.694   2.419
97303SOL     OW93741   3.783   4.921   6.961
97303SOL    HW193742   3.794   4.997   7.018
97303SOL    HW293743   3.806   4.953   6.874
97304SOL     OW93744   0.300   4.897  11.054
97304SOL    HW193745   0.251   4.951  11.116
97304SOL    HW293746   0.246   4.818  11.043
97305SOL     OW93747  13.704  14.336   4.066
97305SOL    HW193748  13.650  14.414   4.056
97305SOL    HW293749  13.722  14.307   3.976
97306SOL     OW93750   8.909   8.388   8.004
97306SOL    HW193751   8.840   8.366   7.941
97306SOL    HW293752   8.988   8.399   7.951
97307SOL     OW93753  14.022   7.519   3.992
97307SOL    HW193754  14.016   7.449   4.057
97307SOL    HW293755  14.017   7.474   3.907
97308SOL     OW93756   2.565   2.141   0.031
97308SOL    HW193757   2.570   2.227   0.071
97308SOL    HW293758   2.587   2.155  14.812
97309SOL     OW93759   0.134   5.608   5.363
97309SOL    HW193760   0.115   5.685   5.310
97309SOL    HW293761   0.190   5.554   5.307
97310SOL     OW93762   1.118   9.588   5.850
97310SOL    HW193763   1.101   9.561   5.941
97310SOL    HW293764   1.047   9.648   5.829
97311SOL     OW93765  10.382   4.136  14.414
97311SOL    HW193766  10.473   4.164  14.397
97311SOL    HW293767  10.383   4.104  14.504
97312SOL     OW93768   8.621   0.594   6.251
97312SOL    HW193769   8.632   0.689   6.256
97312SOL    HW293770   8.682   0.566   6.183
97313SOL     OW93771   9.487   2.325  11.249
97313SOL    HW193772   9.455   2.238  11.224
97313SOL    HW293773   9.409   2.370  11.282
97314SOL     OW93774  12.057  14.449   9.579
97314SOL    HW193775  12.056  14.542   9.558
97314SOL    HW293776  12.147  14.431   9.605
97315SOL     OW93777   6.374   1.513   4.587
97315SOL    HW193778   6.295   1.526   4.639
97315SOL    HW293779   6.446   1.519   4.650
97316SOL     OW93780   3.669  13.969   7.028
97316SOL    HW193781   3.714  13.930   6.953
97316SOL    HW293782   3.629  13.894   7.073
97317SOL     OW93783  12.034   7.743  11.001
97317SOL    HW193784  12.058   7.712  10.914
97317SOL    HW293785  11.994   7.667  11.044
97318SOL     OW93786   5.337  12.245  11.244
97318SOL    HW193787   5.371  12.329  11.276
97318SOL    HW293788   5.322  12.194  11.323
97319SOL     OW93789   2.773  13.046   6.507
97319SOL    HW193790   2.799  13.113   6.571
97319SOL    HW293791   2.855  13.016   6.468
97320SOL     OW93792  12.869   0.608  13.458
97320SOL    HW193793  12.797   0.551  13.433
97320SOL    HW293794  12.855   0.688  13.408
97321SOL     OW93795  12.466   1.649  14.610
97321SOL    HW193796  12.535   1.681  14.669
97321SOL    HW293797  12.416   1.588  14.664
97322SOL     OW93798   7.115   2.780  11.895
97322SOL    HW193799   7.153   2.832  11.966
97322SOL    HW293800   7.021   2.776  11.915
97323SOL     OW93801  11.752  10.055  10.519
97323SOL    HW193802  11.664  10.034  10.486
97323SOL    HW293803  11.809  10.048  10.442
97324SOL     OW93804  12.832  12.859  11.030
97324SOL    HW193805  12.784  12.908  11.097
97324SOL    HW293806  12.772  12.857  10.955
97325SOL     OW93807   6.262   0.016   4.967
97325SOL    HW193808   6.227  14.811   4.923
97325SOL    HW293809   6.353   0.020   4.939
97326SOL     OW93810   2.055   2.882   7.899
97326SOL    HW193811   2.133   2.863   7.847
97326SOL    HW293812   2.086   2.887   7.989
97327SOL     OW93813   5.498  11.325   6.650
97327SOL    HW193814   5.427  11.305   6.710
97327SOL    HW293815   5.481  11.415   6.622
97328SOL     OW93816  11.128   9.684   2.102
97328SOL    HW193817  11.188   9.621   2.143
97328SOL    HW293818  11.101   9.742   2.173
97329SOL     OW93819   3.774   0.804   0.193
97329SOL    HW193820   3.797   0.775   0.105
97329SOL    HW293821   3.842   0.768   0.249
97330SOL     OW93822  12.952  11.372  10.734
97330SOL    HW193823  12.935  11.419  10.652
97330SOL    HW293824  12.954  11.441  10.800
97331SOL     OW93825   8.646   5.099   2.926
97331SOL    HW193826   8.622   5.016   2.884
97331SOL    HW293827   8.739   5.090   2.946
97332SOL     OW93828  12.881  13.608   4.910
97332SOL    HW193829  12.787  13.607   4.928
97332SOL    HW293830  12.904  13.700   4.903
97333SOL     OW93831   6.065   0.805  13.495
97333SOL    HW193832   6.158   0.822  13.485
97333SOL    HW293833   6.059   0.740  13.565
97334SOL     OW93834  14.418   0.711  13.089
97334SOL    HW193835  14.405   0.685  12.998
97334SOL    HW293836  14.386   0.801  13.093
97335SOL     OW93837   7.327   6.024  12.216
97335SOL    HW193838   7.300   5.933  12.227
97335SOL    HW293839   7.294   6.068  12.295
97336SOL     OW93840  12.544   8.154   1.179
97336SOL    HW193841  12.481   8.084   1.163
97336SOL    HW293842  12.542   8.167   1.274
97337SOL     OW93843   0.208  11.049   6.153
97337SOL    HW193844   0.207  11.115   6.084
97337SOL    HW293845   0.257  11.090   6.225
97338SOL     OW93846  10.098   4.017   7.372
97338SOL    HW193847  10.151   3.951   7.327
97338SOL    HW293848  10.052   4.063   7.302
97339SOL     OW93849   0.942   4.715   3.380
97339SOL    HW193850   0.896   4.715   3.464
97339SOL    HW293851   0.985   4.800   3.377
97340SOL     OW93852   6.907  11.847  11.601
97340SOL    HW193853   6.814  11.869  11.596
97340SOL    HW293854   6.937  11.885  11.683
97341SOL     OW93855  10.082   9.034   5.593
97341SOL    HW193856  10.053   9.023   5.503
97341SOL    HW293857  10.033   9.110   5.625
97342SOL     OW93858  13.825   1.812   9.766
97342SOL    HW193859  13.800   1.858   9.686
97342SOL    HW293860  13.918   1.791   9.754
97343SOL     OW93861   9.339   1.307  11.682
97343SOL    HW193862   9.337   1.255  11.602
97343SOL    HW293863   9.306   1.249  11.750
97344SOL     OW93864   3.055  10.204   8.715
97344SOL    HW193865   3.005  10.273   8.671
97344SOL    HW293866   3.042  10.221   8.808
97345SOL     OW93867  12.675   6.630   2.847
97345SOL    HW193868  12.709   6.657   2.932
97345SOL    HW293869  12.663   6.713   2.799
97346SOL     OW93870   3.323  13.670   6.338
97346SOL    HW193871   3.355  13.637   6.254
97346SOL    HW293872   3.245  13.721   6.315
97347SOL     OW93873   2.829   9.892   5.383
97347SOL    HW193874   2.853   9.828   5.316
97347SOL    HW293875   2.869   9.974   5.354
97348SOL     OW93876   4.377  12.348  11.228
97348SOL    HW193877   4.400  12.308  11.144
97348SOL    HW293878   4.461  12.368  11.269
97349SOL     OW93879   7.747   4.109   9.934
97349SOL    HW193880   7.682   4.153   9.879
97349SOL    HW293881   7.748   4.019   9.903
97350SOL     OW93882  12.470   5.907  14.656
97350SOL    HW193883  12.458   6.002  14.654
97350SOL    HW293884  12.564   5.895  14.673
97351SOL     OW93885   6.948   0.596   0.488
97351SOL    HW193886   7.035   0.575   0.453
97351SOL    HW293887   6.948   0.691   0.495
97352SOL     OW93888   3.703  11.738   8.771
97352SOL    HW193889   3.626  11.758   8.718
97352SOL    HW293890   3.708  11.810   8.834
97353SOL     OW93891   4.390   4.604  12.492
97353SOL    HW193892   4.355   4.548  12.422
97353SOL    HW293893   4.313   4.640  12.535
97354SOL     OW93894   4.722   2.009  11.891
97354SOL    HW193895   4.629   2.033  11.895
97354SOL    HW293896   4.722   1.914  11.899
97355SOL     OW93897  10.175  14.712  14.402
97355SOL    HW193898  10.169  14.777  14.332
97355SOL    HW293899  10.099  14.656  14.388
97356SOL     OW93900   2.460   3.227   2.509
97356SOL    HW193901   2.475   3.314   2.545
97356SOL    HW293902   2.511   3.169   2.566
97357SOL     OW93903   4.641   5.012   6.494
97357SOL    HW193904   4.667   5.084   6.436
97357SOL    HW293905   4.681   5.034   6.578
97358SOL     OW93906   6.831  13.521   7.613
97358SOL    HW193907   6.855  13.519   7.521
97358SOL    HW293908   6.800  13.432   7.631
97359SOL     OW93909   5.145   4.561   4.329
97359SOL    HW193910   5.169   4.474   4.361
97359SOL    HW293911   5.097   4.602   4.401
97360SOL     OW93912  10.987   4.220  13.448
97360SOL    HW193913  11.001   4.135  13.406
97360SOL    HW293914  11.058   4.229  13.511
97361SOL     OW93915  11.093  14.453   3.046
97361SOL    HW193916  11.103  14.427   3.138
97361SOL    HW293917  11.011  14.412   3.018
97362SOL     OW93918   2.839  12.217   5.279
97362SOL    HW193919   2.840  12.127   5.310
97362SOL    HW293920   2.776  12.216   5.206
97363SOL     OW93921   0.757   2.324   9.872
97363SOL    HW193922   0.759   2.391   9.804
97363SOL    HW293923   0.759   2.241   9.825
97364SOL     OW93924  12.470   2.122  14.788
97364SOL    HW193925  12.392   2.154  14.833
97364SOL    HW293926  12.444   2.036  14.755
97365SOL     OW93927   0.886   8.105  10.439
97365SOL    HW193928   0.916   8.033  10.495
97365SOL    HW293929   0.881   8.067  10.351
97366SOL     OW93930  13.829   3.592   5.853
97366SOL    HW193931  13.920   3.617   5.868
97366SOL    HW293932  13.823   3.503   5.888
97367SOL     OW93933   8.255  12.904   4.709
97367SOL    HW193934   8.285  12.986   4.670
97367SOL    HW293935   8.272  12.915   4.803
97368SOL     OW93936  12.038   8.332   8.378
97368SOL    HW193937  11.980   8.370   8.444
97368SOL    HW293938  12.009   8.370   8.295
97369SOL     OW93939  12.781   1.681   8.968
97369SOL    HW193940  12.861   1.668   9.020
97369SOL    HW293941  12.811   1.730   8.891
97370SOL     OW93942  14.376   0.958   5.296
97370SOL    HW193943  14.438   0.885   5.298
97370SOL    HW293944  14.423   1.026   5.248
97371SOL     OW93945  12.366  10.813  11.029
97371SOL    HW193946  12.456  10.799  11.001
97371SOL    HW293947  12.374  10.850  11.117
97372SOL     OW93948  12.790   3.120  10.429
97372SOL    HW193949  12.833   3.036  10.417
97372SOL    HW293950  12.731   3.106  10.503
97373SOL     OW93951   5.811   5.445   3.157
97373SOL    HW193952   5.794   5.371   3.099
97373SOL    HW293953   5.906   5.458   3.152
97374SOL     OW93954  10.931  13.271   5.295
97374SOL    HW193955  10.958  13.181   5.273
97374SOL    HW293956  10.900  13.307   5.212
97375SOL     OW93957   3.351   8.841   1.868
97375SOL    HW193958   3.401   8.784   1.926
97375SOL    HW293959   3.283   8.784   1.832
97376SOL     OW93960  10.200   5.017  10.934
97376SOL    HW193961  10.209   4.977  10.847
97376SOL    HW293962  10.140   5.090  10.921
97377SOL     OW93963   4.794   8.889  13.945
97377SOL    HW193964   4.802   8.854  14.034
97377SOL    HW293965   4.721   8.841  13.907
97378SOL     OW93966   6.172   9.677   0.149
97378SOL    HW193967   6.266   9.668   0.131
97378SOL    HW293968   6.148   9.593   0.188
97379SOL     OW93969  10.947   9.482  11.903
97379SOL    HW193970  10.945   9.413  11.969
97379SOL    HW293971  10.900   9.444  11.828
97380SOL     OW93972   4.257  12.296  10.346
97380SOL    HW193973   4.310  12.375  10.360
97380SOL    HW293974   4.191  12.323  10.283
97381SOL     OW93975  14.358   5.783   2.087
97381SOL    HW193976  14.432   5.813   2.034
97381SOL    HW293977  14.370   5.826   2.171
97382SOL     OW93978  11.528  11.331  14.261
97382SOL    HW193979  11.580  11.379  14.197
97382SOL    HW293980  11.514  11.245  14.220
97383SOL     OW93981  10.985  11.782  10.366
97383SOL    HW193982  11.057  11.738  10.412
97383SOL    HW293983  11.019  11.798  10.278
97384SOL     OW93984   3.731   9.016  11.221
97384SOL    HW193985   3.774   9.009  11.136
97384SOL    HW293986   3.730   9.109  11.240
97385SOL     OW93987  10.112   8.170   4.106
97385SOL    HW193988  10.206   8.169   4.124
97385SOL    HW293989  10.092   8.262   4.091
97386SOL     OW93990   7.121  13.408   4.996
97386SOL    HW193991   7.051  13.397   4.931
97386SOL    HW293992   7.200  13.419   4.944
97387SOL     OW93993   1.126   5.560  11.038
97387SOL    HW193994   1.132   5.467  11.016
97387SOL    HW293995   1.154   5.605  10.959
97388SOL     OW93996   9.367   0.107   4.063
97388SOL    HW193997   9.420   0.161   4.005
97388SOL    HW293998   9.411   0.022   4.064
97389SOL     OW93999   9.680  10.360   1.727
97389SOL    HW194000   9.745  10.406   1.781
97389SOL    HW294001   9.596  10.384   1.764
97390SOL     OW94002   0.511   8.194  12.657
97390SOL    HW194003   0.487   8.286  12.666
97390SOL    HW294004   0.435   8.154  12.614
97391SOL     OW94005  11.713  10.619  14.275
97391SOL    HW194006  11.663  10.654  14.349
97391SOL    HW294007  11.796  10.592  14.314
97392SOL     OW94008  11.907   0.590  11.442
97392SOL    HW194009  11.989   0.620  11.480
97392SOL    HW294010  11.851   0.668  11.443
97393SOL     OW94011   0.445   6.152   4.784
97393SOL    HW194012   0.504   6.178   4.855
97393SOL    HW294013   0.418   6.063   4.806
97394SOL     OW94014   8.833   6.665   0.222
97394SOL    HW194015   8.903   6.705   0.273
97394SOL    HW294016   8.768   6.735   0.211
97395SOL     OW94017   0.642   1.435   5.070
97395SOL    HW194018   0.616   1.476   5.152
97395SOL    HW294019   0.585   1.358   5.063
97396SOL     OW94020   8.196   9.144  12.369
97396SOL    HW194021   8.246   9.063  12.364
97396SOL    HW294022   8.105   9.115  12.379
97397SOL     OW94023  11.472   6.519   4.269
97397SOL    HW194024  11.433   6.600   4.302
97397SOL    HW294025  11.408   6.451   4.291
97398SOL     OW94026   0.975   4.676   7.509
97398SOL    HW194027   0.924   4.606   7.550
97398SOL    HW294028   1.064   4.663   7.542
97399SOL     OW94029   2.654  10.831   9.500
97399SOL    HW194030   2.732  10.866   9.459
97399SOL    HW294031   2.581  10.873   9.455
97400SOL     OW94032  10.662   6.675   4.352
97400SOL    HW194033  10.616   6.707   4.429
97400SOL    HW294034  10.594   6.636   4.297
97401SOL     OW94035   7.454   5.072   9.968
97401SOL    HW194036   7.519   5.142   9.977
97401SOL    HW294037   7.378   5.114   9.928
97402SOL     OW94038   1.222   9.285   2.649
97402SOL    HW194039   1.310   9.292   2.686
97402SOL    HW294040   1.185   9.207   2.690
97403SOL     OW94041   4.398   9.791  11.948
97403SOL    HW194042   4.492   9.779  11.938
97403SOL    HW294043   4.381   9.879  11.914
97404SOL     OW94044  11.662   4.525   1.015
97404SOL    HW194045  11.576   4.483   1.011
97404SOL    HW294046  11.704   4.485   1.092
97405SOL     OW94047   6.349   2.514   7.124
97405SOL    HW194048   6.419   2.539   7.064
97405SOL    HW294049   6.392   2.502   7.208
97406SOL     OW94050  10.961   8.642   9.287
97406SOL    HW194051  10.908   8.700   9.343
97406SOL    HW294052  11.001   8.701   9.224
97407SOL     OW94053   8.506   3.378  14.539
97407SOL    HW194054   8.575   3.443  14.528
97407SOL    HW294055   8.478   3.387  14.630
97408SOL     OW94056  10.221   0.906   5.942
97408SOL    HW194057  10.134   0.942   5.925
97408SOL    HW294058  10.223   0.889   6.036
97409SOL     OW94059   4.433   5.073   1.260
97409SOL    HW194060   4.476   5.110   1.183
97409SOL    HW294061   4.357   5.130   1.275
97410SOL     OW94062  10.960  12.592  11.535
97410SOL    HW194063  11.003  12.574  11.619
97410SOL    HW294064  10.957  12.507  11.491
97411SOL     OW94065   4.683  12.584   4.616
97411SOL    HW194066   4.600  12.551   4.580
97411SOL    HW294067   4.659  12.618   4.702
97412SOL     OW94068  13.191   3.256  12.657
97412SOL    HW194069  13.139   3.316  12.710
97412SOL    HW294070  13.209   3.182  12.715
97413SOL     OW94071   1.899   9.501   8.777
97413SOL    HW194072   1.865   9.443   8.709
97413SOL    HW294073   1.986   9.466   8.797
97414SOL     OW94074  12.096   8.918   8.537
97414SOL    HW194075  12.043   8.892   8.461
97414SOL    HW294076  12.174   8.863   8.532
97415SOL     OW94077   5.929   3.405   1.337
97415SOL    HW194078   6.023   3.421   1.332
97415SOL    HW294079   5.908   3.356   1.258
97416SOL     OW94080   2.674   8.569   1.960
97416SOL    HW194081   2.743   8.623   1.921
97416SOL    HW294082   2.716   8.484   1.976
97417SOL     OW94083   3.582  10.512   4.888
97417SOL    HW194084   3.629  10.444   4.936
97417SOL    HW294085   3.537  10.563   4.955
97418SOL     OW94086  12.343   5.862   3.848
97418SOL    HW194087  12.294   5.842   3.768
97418SOL    HW294088  12.277   5.887   3.912
97419SOL     OW94089   6.892  12.829   6.125
97419SOL    HW194090   6.811  12.839   6.073
97419SOL    HW294091   6.872  12.870   6.209
97420SOL     OW94092   3.526   3.760   5.375
97420SOL    HW194093   3.494   3.706   5.448
97420SOL    HW294094   3.489   3.847   5.392
97421SOL     OW94095  10.302  11.181   6.918
97421SOL    HW194096  10.384  11.225   6.895
97421SOL    HW294097  10.236  11.221   6.862
97422SOL     OW94098   7.224  10.172   1.442
97422SOL    HW194099   7.305  10.170   1.391
97422SOL    HW294100   7.154  10.171   1.377
97423SOL     OW94101  14.198  12.889   3.694
97423SOL    HW194102  14.114  12.868   3.654
97423SOL    HW294103  14.250  12.926   3.623
97424SOL     OW94104   8.716  11.954  13.617
97424SOL    HW194105   8.647  11.939  13.553
97424SOL    HW294106   8.672  11.948  13.702
97425SOL     OW94107  13.985  14.760   5.338
97425SOL    HW194108  14.052  14.695   5.317
97425SOL    HW294109  14.002  14.833   5.279
97426SOL     OW94110   1.269  12.320  10.720
97426SOL    HW194111   1.226  12.373  10.652
97426SOL    HW294112   1.326  12.382  10.765
97427SOL     OW94113   7.047   0.507  11.673
97427SOL    HW194114   6.985   0.539  11.738
97427SOL    HW294115   7.025   0.555  11.593
97428SOL     OW94116   9.633   6.527   1.112
97428SOL    HW194117   9.663   6.548   1.023
97428SOL    HW294118   9.558   6.468   1.099
97429SOL     OW94119   7.881   2.742  14.866
97429SOL    HW194120   7.912   2.679  14.802
97429SOL    HW294121   7.957   2.760   0.049
97430SOL     OW94122  10.129   4.517   1.367
97430SOL    HW194123  10.066   4.583   1.341
97430SOL    HW294124  10.184   4.504   1.289
97431SOL     OW94125   9.591   4.366   0.602
97431SOL    HW194126   9.516   4.423   0.586
97431SOL    HW294127   9.568   4.283   0.562
97432SOL     OW94128   1.036   9.416   9.436
97432SOL    HW194129   0.994   9.330   9.427
97432SOL    HW294130   0.963   9.476   9.451
97433SOL     OW94131  11.578  13.690  13.491
97433SOL    HW194132  11.634  13.762  13.518
97433SOL    HW294133  11.611  13.665  13.405
97434SOL     OW94134   4.171   1.894  11.638
97434SOL    HW194135   4.089   1.898  11.589
97434SOL    HW294136   4.238   1.881  11.571
97435SOL     OW94137  12.922   0.279   5.840
97435SOL    HW194138  12.830   0.302   5.856
97435SOL    HW294139  12.970   0.359   5.860
97436SOL     OW94140   4.537   2.777   9.712
97436SOL    HW194141   4.469   2.747   9.653
97436SOL    HW294142   4.614   2.790   9.656
97437SOL     OW94143   9.643  11.450   2.251
97437SOL    HW194144   9.673  11.361   2.234
97437SOL    HW294145   9.713  11.490   2.303
97438SOL     OW94146   3.735  13.156   8.479
97438SOL    HW194147   3.785  13.186   8.555
97438SOL    HW294148   3.768  13.068   8.462
97439SOL     OW94149   3.922  13.184  14.457
97439SOL    HW194150   4.006  13.223  14.434
97439SOL    HW294151   3.857  13.247  14.427
97440SOL     OW94152   6.209   5.027   1.063
97440SOL    HW194153   6.168   5.049   1.146
97440SOL    HW294154   6.137   5.030   1.000
97441SOL     OW94155   2.872  11.954  11.480
97441SOL    HW194156   2.901  11.870  11.446
97441SOL    HW294157   2.795  11.976  11.428
97442SOL     OW94158  12.589   3.669  13.417
97442SOL    HW194159  12.561   3.621  13.339
97442SOL    HW294160  12.569   3.761  13.397
97443SOL     OW94161   8.352  14.489  13.648
97443SOL    HW194162   8.263  14.482  13.680
97443SOL    HW294163   8.355  14.572  13.600
97444SOL     OW94164   9.929  10.103   6.395
97444SOL    HW194165   9.856  10.059   6.353
97444SOL    HW294166   9.997  10.036   6.400
97445SOL     OW94167   9.236   7.006   7.551
97445SOL    HW194168   9.279   7.090   7.568
97445SOL    HW294169   9.166   7.027   7.490
97446SOL     OW94170   5.800  14.603   7.290
97446SOL    HW194171   5.886  14.561   7.295
97446SOL    HW294172   5.820  14.697   7.291
97447SOL     OW94173   9.400  11.419   9.917
97447SOL    HW194174   9.347  11.434   9.995
97447SOL    HW294175   9.396  11.325   9.903
97448SOL     OW94176   1.971   2.728   4.106
97448SOL    HW194177   2.010   2.702   4.190
97448SOL    HW294178   1.896   2.671   4.096
97449SOL     OW94179   8.219   3.909   6.970
97449SOL    HW194180   8.266   3.986   6.939
97449SOL    HW294181   8.282   3.864   7.027
97450SOL     OW94182  10.579   3.125   3.667
97450SOL    HW194183  10.612   3.069   3.597
97450SOL    HW294184  10.542   3.064   3.731
97451SOL     OW94185  11.701   9.653   1.866
97451SOL    HW194186  11.665   9.661   1.954
97451SOL    HW294187  11.697   9.559   1.848
97452SOL     OW94188   4.518   3.999   7.860
97452SOL    HW194189   4.431   3.961   7.866
97452SOL    HW294190   4.505   4.093   7.869
97453SOL     OW94191   3.461   2.125  10.808
97453SOL    HW194192   3.546   2.132  10.851
97453SOL    HW294193   3.414   2.204  10.836
97454SOL     OW94194   7.757   9.026  13.116
97454SOL    HW194195   7.745   9.067  13.030
97454SOL    HW294196   7.766   8.932  13.097
97455SOL     OW94197   9.883   6.766   8.840
97455SOL    HW194198   9.975   6.761   8.864
97455SOL    HW294199   9.841   6.696   8.891
97456SOL     OW94200  14.401   0.616   2.170
97456SOL    HW194201  14.356   0.633   2.088
97456SOL    HW294202  14.494   0.634   2.151
97457SOL     OW94203  12.450  12.095   1.552
97457SOL    HW194204  12.413  12.181   1.531
97457SOL    HW294205  12.544  12.112   1.562
97458SOL     OW94206  11.684   6.548  12.574
97458SOL    HW194207  11.695   6.619  12.511
97458SOL    HW294208  11.770   6.536  12.613
97459SOL     OW94209   7.555  14.815  12.864
97459SOL    HW194210   7.515   0.019  12.907
97459SOL    HW294211   7.623  14.852  12.808
97460SOL     OW94212   7.874   9.323  13.855
97460SOL    HW194213   7.915   9.297  13.938
97460SOL    HW294214   7.843   9.240  13.817
97461SOL     OW94215   5.053  12.786   6.638
97461SOL    HW194216   5.017  12.859   6.689
97461SOL    HW294217   4.996  12.712   6.658
97462SOL     OW94218   5.404   3.739  14.328
97462SOL    HW194219   5.400   3.647  14.356
97462SOL    HW294220   5.486   3.772  14.366
97463SOL     OW94221   5.813   1.339   2.940
97463SOL    HW194222   5.819   1.285   3.019
97463SOL    HW294223   5.827   1.429   2.971
97464SOL     OW94224   3.319   8.372  13.450
97464SOL    HW194225   3.360   8.303  13.398
97464SOL    HW294226   3.356   8.360  13.538
97465SOL     OW94227   6.141  14.739   4.323
97465SOL    HW194228   6.174  14.682   4.254
97465SOL    HW294229   6.079  14.686   4.372
97466SOL     OW94230   3.562   6.368   8.885
97466SOL    HW194231   3.564   6.304   8.956
97466SOL    HW294232   3.552   6.453   8.929
97467SOL     OW94233   8.711  10.930   9.901
97467SOL    HW194234   8.649  10.984   9.851
97467SOL    HW294235   8.666  10.912   9.983
97468SOL     OW94236  12.106   2.925  13.958
97468SOL    HW194237  12.169   2.982  14.002
97468SOL    HW294238  12.146   2.838  13.961
97469SOL     OW94239   0.856   4.385   2.891
97469SOL    HW194240   0.845   4.388   2.986
97469SOL    HW294241   0.785   4.330   2.860
97470SOL     OW94242  10.266   3.224   9.682
97470SOL    HW194243  10.353   3.205   9.719
97470SOL    HW294244  10.241   3.307   9.722
97471SOL     OW94245   2.585   2.740   0.944
97471SOL    HW194246   2.678   2.720   0.955
97471SOL    HW294247   2.579   2.834   0.958
97472SOL     OW94248   0.545   1.028   9.394
97472SOL    HW194249   0.483   1.017   9.322
97472SOL    HW294250   0.631   1.030   9.352
97473SOL     OW94251   2.413   7.847  13.080
97473SOL    HW194252   2.484   7.906  13.052
97473SOL    HW294253   2.399   7.790  13.005
97474SOL     OW94254  12.646   0.399  10.467
97474SOL    HW194255  12.711   0.389  10.536
97474SOL    HW294256  12.607   0.485  10.482
97475SOL     OW94257   8.644   9.073   1.728
97475SOL    HW194258   8.639   8.979   1.711
97475SOL    HW294259   8.555   9.105   1.712
97476SOL     OW94260   7.848  13.348   6.703
97476SOL    HW194261   7.836  13.394   6.786
97476SOL    HW294262   7.873  13.259   6.728
97477SOL     OW94263   9.588   3.101   1.332
97477SOL    HW194264   9.555   3.032   1.275
97477SOL    HW294265   9.663   3.137   1.284
97478SOL     OW94266   8.007   8.149   1.041
97478SOL    HW194267   7.962   8.202   1.107
97478SOL    HW294268   7.967   8.063   1.049
97479SOL     OW94269   4.912   1.566  10.987
97479SOL    HW194270   4.844   1.512  10.947
97479SOL    HW294271   4.991   1.513  10.982
97480SOL     OW94272  13.822   2.555   0.548
97480SOL    HW194273  13.893   2.619   0.558
97480SOL    HW294274  13.800   2.530   0.638
97481SOL     OW94275   8.149   3.696  12.471
97481SOL    HW194276   8.189   3.686  12.557
97481SOL    HW294277   8.115   3.786  12.471
97482SOL     OW94278   4.726   6.750   9.281
97482SOL    HW194279   4.730   6.738   9.376
97482SOL    HW294280   4.693   6.840   9.270
97483SOL     OW94281  14.077  11.904  10.705
97483SOL    HW194282  14.082  11.880  10.612
97483SOL    HW294283  14.168  11.902  10.735
97484SOL     OW94284  10.722   3.639   7.402
97484SOL    HW194285  10.756   3.701   7.467
97484SOL    HW294286  10.660   3.585   7.451
97485SOL     OW94287   3.744   0.092  14.732
97485SOL    HW194288   3.769   0.033  14.661
97485SOL    HW294289   3.747   0.180  14.692
97486SOL     OW94290  14.811   8.768   1.043
97486SOL    HW194291  14.784   8.859   1.052
97486SOL    HW294292  14.831   8.739   1.132
97487SOL     OW94293  10.588   8.968   7.120
97487SOL    HW194294  10.557   8.903   7.183
97487SOL    HW294295  10.547   9.050   7.147
97488SOL     OW94296   0.545   3.850  11.779
97488SOL    HW194297   0.520   3.921  11.720
97488SOL    HW294298   0.520   3.770  11.733
97489SOL     OW94299   1.847   9.317   6.207
97489SOL    HW194300   1.805   9.233   6.225
97489SOL    HW294301   1.875   9.310   6.115
97490SOL     OW94302   4.704  10.267  11.138
97490SOL    HW194303   4.732  10.325  11.067
97490SOL    HW294304   4.674  10.188  11.093
97491SOL     OW94305   5.292  12.416  10.642
97491SOL    HW194306   5.370  12.458  10.606
97491SOL    HW294307   5.278  12.339  10.588
97492SOL     OW94308   4.297  11.388   6.216
97492SOL    HW194309   4.219  11.351   6.175
97492SOL    HW294310   4.348  11.423   6.143
97493SOL     OW94311   2.726   5.115   7.092
97493SOL    HW194312   2.665   5.142   7.161
97493SOL    HW294313   2.810   5.107   7.136
97494SOL     OW94314  13.296  10.066  12.357
97494SOL    HW194315  13.388  10.043  12.360
97494SOL    HW294316  13.252   9.988  12.325
97495SOL     OW94317   3.294   5.848   0.322
97495SOL    HW194318   3.331   5.785   0.259
97495SOL    HW294319   3.207   5.869   0.287
97496SOL     OW94320   8.542  10.535   5.205
97496SOL    HW194321   8.554  10.568   5.294
97496SOL    HW294322   8.459  10.487   5.209
97497SOL     OW94323   9.504   2.706   9.969
97497SOL    HW194324   9.534   2.673   9.884
97497SOL    HW294325   9.518   2.800   9.965
97498SOL     OW94326   5.403   8.113  11.403
97498SOL    HW194327   5.443   8.149  11.483
97498SOL    HW294328   5.312   8.098  11.427
97499SOL     OW94329   9.753   4.772   9.887
97499SOL    HW194330   9.728   4.701   9.947
97499SOL    HW294331   9.739   4.735   9.800
97500SOL     OW94332   7.400   7.616  10.416
97500SOL    HW194333   7.309   7.641  10.433
97500SOL    HW294334   7.431   7.679  10.351
97501SOL     OW94335  13.778   2.683   7.140
97501SOL    HW194336  13.700   2.670   7.085
97501SOL    HW294337  13.752   2.650   7.226
97502SOL     OW94338   1.475  11.315  14.272
97502SOL    HW194339   1.551  11.280  14.318
97502SOL    HW294340   1.404  11.312  14.336
97503SOL     OW94341   3.821   5.048  13.390
97503SOL    HW194342   3.766   5.029  13.466
97503SOL    HW294343   3.876   5.122  13.418
97504SOL     OW94344   7.360   4.044   4.543
97504SOL    HW194345   7.287   4.006   4.592
97504SOL    HW294346   7.434   4.038   4.602
97505SOL     OW94347   8.777  14.043   4.689
97505SOL    HW194348   8.805  14.054   4.598
97505SOL    HW294349   8.830  14.105   4.738
97506SOL     OW94350   9.645  13.690  14.333
97506SOL    HW194351   9.628  13.728  14.247
97506SOL    HW294352   9.740  13.678  14.336
97507SOL     OW94353  14.116   4.930   9.494
97507SOL    HW194354  14.112   5.016   9.536
97507SOL    HW294355  14.136   4.949   9.402
97508SOL     OW94356   5.535   2.627   7.365
97508SOL    HW194357   5.496   2.708   7.333
97508SOL    HW294358   5.480   2.558   7.329
97509SOL     OW94359  12.229   3.011   5.464
97509SOL    HW194360  12.309   3.043   5.422
97509SOL    HW294361  12.169   3.085   5.461
97510SOL     OW94362   7.930   3.631  10.951
97510SOL    HW194363   7.897   3.625  11.041
97510SOL    HW294364   7.878   3.701  10.911
97511SOL     OW94365   2.889  14.061   8.905
97511SOL    HW194366   2.910  14.126   8.971
97511SOL    HW294367   2.827  14.105   8.847
97512SOL     OW94368  11.964   6.455  12.636
97512SOL    HW194369  11.988   6.440  12.545
97512SOL    HW294370  11.965   6.369  12.677
97513SOL     OW94371  10.394  14.480  10.135
97513SOL    HW194372  10.476  14.499  10.180
97513SOL    HW294373  10.331  14.465  10.206
97514SOL     OW94374   0.304   7.858   9.665
97514SOL    HW194375   0.331   7.784   9.612
97514SOL    HW294376   0.383   7.884   9.712
97515SOL     OW94377   7.548   5.143  12.389
97515SOL    HW194378   7.487   5.216  12.404
97515SOL    HW294379   7.555   5.137  12.294
97516SOL     OW94380   7.976  11.546   2.251
97516SOL    HW194381   7.989  11.626   2.303
97516SOL    HW294382   7.984  11.475   2.315
97517SOL     OW94383   9.444   2.213   3.788
97517SOL    HW194384   9.420   2.285   3.846
97517SOL    HW294385   9.465   2.255   3.704
97518SOL     OW94386   2.894   2.765  10.225
97518SOL    HW194387   2.959   2.706  10.265
97518SOL    HW294388   2.819   2.761  10.284
97519SOL     OW94389  14.684   8.468   3.446
97519SOL    HW194390  14.600   8.500   3.415
97519SOL    HW294391  14.730   8.439   3.367
97520SOL     OW94392  10.776   7.600   4.930
97520SOL    HW194393  10.720   7.669   4.896
97520SOL    HW294394  10.846   7.647   4.977
97521SOL     OW94395   7.042  11.121   3.376
97521SOL    HW194396   7.104  11.065   3.330
97521SOL    HW294397   7.064  11.110   3.469
97522SOL     OW94398   9.079   6.948  10.277
97522SOL    HW194399   9.136   6.995  10.337
97522SOL    HW294400   9.041   6.877  10.329
97523SOL     OW94401   9.650   5.678  13.784
97523SOL    HW194402   9.567   5.713  13.816
97523SOL    HW294403   9.717   5.727  13.831
97524SOL     OW94404   6.556  12.255   2.099
97524SOL    HW194405   6.505  12.281   2.176
97524SOL    HW294406   6.589  12.168   2.121
97525SOL     OW94407   0.818   4.779  13.626
97525SOL    HW194408   0.793   4.809  13.714
97525SOL    HW294409   0.812   4.857  13.571
97526SOL     OW94410   6.896   5.571   7.321
97526SOL    HW194411   6.907   5.549   7.414
97526SOL    HW294412   6.935   5.498   7.274
97527SOL     OW94413  11.302  14.498  14.254
97527SOL    HW194414  11.350  14.514  14.335
97527SOL    HW294415  11.356  14.537  14.186
97528SOL     OW94416   8.184   2.237   1.700
97528SOL    HW194417   8.148   2.160   1.656
97528SOL    HW294418   8.127   2.251   1.775
97529SOL     OW94419   6.737   4.762   4.991
97529SOL    HW194420   6.739   4.744   4.897
97529SOL    HW294421   6.826   4.788   5.013
97530SOL     OW94422   7.780  13.567   2.515
97530SOL    HW194423   7.725  13.496   2.485
97530SOL    HW294424   7.866  13.527   2.529
97531SOL     OW94425   0.248  12.299  14.831
97531SOL    HW194426   0.266  12.206  14.845
97531SOL    HW294427   0.242  12.309  14.736
97532SOL     OW94428   5.948   1.652   5.816
97532SOL    HW194429   5.863   1.650   5.771
97532SOL    HW294430   5.981   1.741   5.802
97533SOL     OW94431  14.320   2.482   3.565
97533SOL    HW194432  14.296   2.396   3.531
97533SOL    HW294433  14.313   2.540   3.490
97534SOL     OW94434   1.955  10.887  14.519
97534SOL    HW194435   1.988  10.797  14.523
97534SOL    HW294436   1.916  10.894  14.432
97535SOL     OW94437  14.866   5.374   1.376
97535SOL    HW194438   0.062   5.422   1.329
97535SOL    HW294439  14.865   5.287   1.336
97536SOL     OW94440   3.328   8.911   2.475
97536SOL    HW194441   3.236   8.908   2.501
97536SOL    HW294442   3.370   8.842   2.526
97537SOL     OW94443   7.766   3.825  11.011
97537SOL    HW194444   7.686   3.858  10.970
97537SOL    HW294445   7.755   3.845  11.104
97538SOL     OW94446   1.257  11.061  13.347
97538SOL    HW194447   1.275  11.112  13.426
97538SOL    HW294448   1.343  11.044  13.308
97539SOL     OW94449  13.486  10.610   6.023
97539SOL    HW194450  13.433  10.639   5.949
97539SOL    HW294451  13.570  10.655   6.013
97540SOL     OW94452   4.126   8.283   0.007
97540SOL    HW194453   4.175   8.364   0.024
97540SOL    HW294454   4.137   8.268  14.786
97541SOL     OW94455  10.438   6.524   0.265
97541SOL    HW194456  10.530   6.549   0.257
97541SOL    HW294457  10.417   6.537   0.357
97542SOL     OW94458   0.278   3.278   8.560
97542SOL    HW194459   0.298   3.277   8.467
97542SOL    HW294460   0.271   3.371   8.582
97543SOL     OW94461   5.923   0.581   1.833
97543SOL    HW194462   5.997   0.640   1.824
97543SOL    HW294463   5.862   0.606   1.763
97544SOL     OW94464   7.372   2.047   8.522
97544SOL    HW194465   7.319   2.053   8.442
97544SOL    HW294466   7.438   1.981   8.502
97545SOL     OW94467   7.175  12.691   5.710
97545SOL    HW194468   7.100  12.695   5.770
97545SOL    HW294469   7.163  12.609   5.662
97546SOL     OW94470   7.098   9.357   4.993
97546SOL    HW194471   7.129   9.302   4.921
97546SOL    HW294472   7.162   9.345   5.063
97547SOL     OW94473   6.480  12.634   9.470
97547SOL    HW194474   6.396  12.617   9.513
97547SOL    HW294475   6.545  12.592   9.526
97548SOL     OW94476   0.554   1.654   6.371
97548SOL    HW194477   0.599   1.618   6.295
97548SOL    HW294478   0.611   1.726   6.400
97549SOL     OW94479   7.192   1.430   9.535
97549SOL    HW194480   7.214   1.357   9.592
97549SOL    HW294481   7.133   1.392   9.469
97550SOL     OW94482  10.816   5.190   9.263
97550SOL    HW194483  10.882   5.121   9.257
97550SOL    HW294484  10.785   5.186   9.353
97551SOL     OW94485   5.185   1.130   2.154
97551SOL    HW194486   5.208   1.193   2.222
97551SOL    HW294487   5.258   1.133   2.092
97552SOL     OW94488   6.912  11.198   4.588
97552SOL    HW194489   6.884  11.113   4.623
97552SOL    HW294490   6.900  11.258   4.662
97553SOL     OW94491  12.967   7.275   0.662
97553SOL    HW194492  12.990   7.364   0.691
97553SOL    HW294493  12.981   7.220   0.739
97554SOL     OW94494   2.068   3.105  10.463
97554SOL    HW194495   2.092   3.179  10.407
97554SOL    HW294496   2.136   3.040  10.448
97555SOL     OW94497   6.923  10.129   2.169
97555SOL    HW194498   6.911  10.214   2.127
97555SOL    HW294499   6.963  10.150   2.254
97556SOL     OW94500   7.476   4.624   5.649
97556SOL    HW194501   7.510   4.603   5.736
97556SOL    HW294502   7.427   4.705   5.661
97557SOL     OW94503  13.310   5.883  10.571
97557SOL    HW194504  13.343   5.971  10.552
97557SOL    HW294505  13.344   5.862  10.657
97558SOL     OW94506  13.219   0.039   3.386
97558SOL    HW194507  13.208   0.134   3.377
97558SOL    HW294508  13.139   0.002   3.350
97559SOL     OW94509  13.413  10.373  12.189
97559SOL    HW194510  13.457  10.392  12.271
97559SOL    HW294511  13.321  10.359  12.213
97560SOL     OW94512   3.481   7.071   5.979
97560SOL    HW194513   3.572   7.042   5.971
97560SOL    HW294514   3.461   7.114   5.896
97561SOL     OW94515   6.806   3.430  12.367
97561SOL    HW194516   6.777   3.518  12.389
97561SOL    HW294517   6.768   3.412  12.281
97562SOL     OW94518   1.807  11.122   6.882
97562SOL    HW194519   1.864  11.105   6.807
97562SOL    HW294520   1.809  11.217   6.892
97563SOL     OW94521  10.288   9.028   0.210
97563SOL    HW194522  10.246   8.978   0.139
97563SOL    HW294523  10.237   9.108   0.216
97564SOL     OW94524   2.909   2.397   7.292
97564SOL    HW194525   2.903   2.486   7.326
97564SOL    HW294526   2.842   2.394   7.223
97565SOL     OW94527   1.445   1.914  12.053
97565SOL    HW194528   1.514   1.858  12.087
97565SOL    HW294529   1.469   2.002  12.082
97566SOL     OW94530  12.583   2.525  13.553
97566SOL    HW194531  12.666   2.567  13.573
97566SOL    HW294532  12.603   2.431  13.552
97567SOL     OW94533   0.772  11.632   1.900
97567SOL    HW194534   0.745  11.662   1.813
97567SOL    HW294535   0.853  11.584   1.885
97568SOL     OW94536   2.790  14.772   0.335
97568SOL    HW194537   2.880  14.796   0.311
97568SOL    HW294538   2.786  14.678   0.318
97569SOL     OW94539   2.662   9.212  13.386
97569SOL    HW194540   2.647   9.195  13.479
97569SOL    HW294541   2.746   9.172  13.367
97570SOL     OW94542   5.339  13.751  14.727
97570SOL    HW194543   5.260  13.698  14.715
97570SOL    HW294544   5.401  13.717  14.663
97571SOL     OW94545   4.678   7.844   6.145
97571SOL    HW194546   4.762   7.813   6.112
97571SOL    HW294547   4.678   7.819   6.238
97572SOL     OW94548   0.940   7.399  14.291
97572SOL    HW194549   0.885   7.472  14.319
97572SOL    HW294550   0.890   7.358  14.220
97573SOL     OW94551   4.680   3.503  13.918
97573SOL    HW194552   4.613   3.455  13.967
97573SOL    HW294553   4.707   3.573  13.978
97574SOL     OW94554   0.882  14.716   1.919
97574SOL    HW194555   0.800  14.677   1.887
97574SOL    HW294556   0.857  14.803   1.950
97575SOL     OW94557   3.480  12.803   1.960
97575SOL    HW194558   3.524  12.886   1.943
97575SOL    HW294559   3.409  12.826   2.020
97576SOL     OW94560   4.952   7.438  14.394
97576SOL    HW194561   5.003   7.384  14.333
97576SOL    HW294562   4.980   7.528  14.375
97577SOL     OW94563   9.929   4.650  11.707
97577SOL    HW194564   9.842   4.680  11.679
97577SOL    HW294565   9.941   4.690  11.793
97578SOL     OW94566   6.547  10.532   6.817
97578SOL    HW194567   6.472  10.487   6.777
97578SOL    HW294568   6.509  10.608   6.861
97579SOL     OW94569   4.522   1.863   9.973
97579SOL    HW194570   4.430   1.877   9.994
97579SOL    HW294571   4.522   1.785   9.918
97580SOL     OW94572   0.379  12.155  12.414
97580SOL    HW194573   0.392  12.160  12.509
97580SOL    HW294574   0.403  12.242  12.382
97581SOL     OW94575   5.153  13.870  14.139
97581SOL    HW194576   5.219  13.837  14.201
97581SOL    HW294577   5.157  13.808  14.066
97582SOL     OW94578   8.458   9.863   0.101
97582SOL    HW194579   8.519   9.926   0.064
97582SOL    HW294580   8.429   9.810   0.026
97583SOL     OW94581   5.776   1.657   8.768
97583SOL    HW194582   5.734   1.575   8.793
97583SOL    HW294583   5.714   1.725   8.795
97584SOL     OW94584   4.656   0.880   0.157
97584SOL    HW194585   4.648   0.895   0.063
97584SOL    HW294586   4.679   0.966   0.193
97585SOL     OW94587   7.622   4.691   5.227
97585SOL    HW194588   7.570   4.661   5.152
97585SOL    HW294589   7.559   4.736   5.284
97586SOL     OW94590  13.218   3.036   2.336
97586SOL    HW194591  13.276   2.986   2.393
97586SOL    HW294592  13.217   3.124   2.373
97587SOL     OW94593  14.806   8.389  13.774
97587SOL    HW194594  14.829   8.358  13.686
97587SOL    HW294595   0.013   8.430  13.807
97588SOL     OW94596   5.204  14.494  12.954
97588SOL    HW194597   5.293  14.494  12.989
97588SOL    HW294598   5.156  14.434  13.010
97589SOL     OW94599   6.025  13.767   1.022
97589SOL    HW194600   6.041  13.852   1.065
97589SOL    HW294601   6.068  13.775   0.937
97590SOL     OW94602  12.243   4.973   8.005
97590SOL    HW194603  12.167   5.016   8.043
97590SOL    HW294604  12.243   5.000   7.913
97591SOL     OW94605   0.261  13.640  10.605
97591SOL    HW194606   0.223  13.720  10.569
97591SOL    HW294607   0.278  13.661  10.696
97592SOL     OW94608   2.611   0.759  11.576
97592SOL    HW194609   2.681   0.816  11.609
97592SOL    HW294610   2.658   0.686  11.535
97593SOL     OW94611   1.945   1.292  10.237
97593SOL    HW194612   1.944   1.196  10.245
97593SOL    HW294613   2.036   1.316  10.255
97594SOL     OW94614   2.775   7.928  13.249
97594SOL    HW194615   2.763   7.882  13.332
97594SOL    HW294616   2.716   8.003  13.254
97595SOL     OW94617  12.757  12.624  12.380
97595SOL    HW194618  12.849  12.598  12.388
97595SOL    HW294619  12.713  12.581  12.453
97596SOL     OW94620   9.450   1.547  10.605
97596SOL    HW194621   9.364   1.528  10.565
97596SOL    HW294622   9.486   1.617  10.551
97597SOL     OW94623   1.500   4.875   5.513
97597SOL    HW194624   1.477   4.927   5.436
97597SOL    HW294625   1.495   4.936   5.586
97598SOL     OW94626   9.649   4.566   3.468
97598SOL    HW194627   9.580   4.589   3.406
97598SOL    HW294628   9.688   4.651   3.492
97599SOL     OW94629   7.750   6.985   2.672
97599SOL    HW194630   7.700   7.049   2.723
97599SOL    HW294631   7.824   7.036   2.637
97600SOL     OW94632   4.870  14.404   2.279
97600SOL    HW194633   4.796  14.387   2.337
97600SOL    HW294634   4.926  14.465   2.327
97601SOL     OW94635  13.045  11.482   8.299
97601SOL    HW194636  13.097  11.409   8.332
97601SOL    HW294637  13.011  11.525   8.378
97602SOL     OW94638   8.667   2.804   1.291
97602SOL    HW194639   8.743   2.828   1.344
97602SOL    HW294640   8.607   2.878   1.299
97603SOL     OW94641  14.464   0.663  10.063
97603SOL    HW194642  14.502   0.575  10.068
97603SOL    HW294643  14.371   0.651  10.083
97604SOL     OW94644  13.646   4.045   5.049
97604SOL    HW194645  13.651   4.132   5.089
97604SOL    HW294646  13.583   3.997   5.102
97605SOL     OW94647   1.066   8.237   0.297
97605SOL    HW194648   1.150   8.198   0.273
97605SOL    HW294649   1.001   8.176   0.264
97606SOL     OW94650   0.457   1.022  10.537
97606SOL    HW194651   0.432   1.080  10.465
97606SOL    HW294652   0.501   0.949  10.494
97607SOL     OW94653   8.343   9.393  11.270
97607SOL    HW194654   8.289   9.343  11.208
97607SOL    HW294655   8.358   9.477  11.226
97608SOL     OW94656   3.107   5.301   2.486
97608SOL    HW194657   3.152   5.347   2.415
97608SOL    HW294658   3.018   5.336   2.484
97609SOL     OW94659   4.306   3.035   1.413
97609SOL    HW194660   4.272   2.993   1.492
97609SOL    HW294661   4.359   2.968   1.371
97610SOL     OW94662   6.379   7.893   5.140
97610SOL    HW194663   6.367   7.799   5.122
97610SOL    HW294664   6.385   7.899   5.235
97611SOL     OW94665  10.990  12.843   9.600
97611SOL    HW194666  10.986  12.921   9.545
97611SOL    HW294667  10.933  12.864   9.675
97612SOL     OW94668   7.531  13.137  13.103
97612SOL    HW194669   7.459  13.075  13.115
97612SOL    HW294670   7.604  13.099  13.152
97613SOL     OW94671   0.810   7.919  12.331
97613SOL    HW194672   0.810   7.996  12.388
97613SOL    HW294673   0.741   7.937  12.267
97614SOL     OW94674   3.667   0.755  13.680
97614SOL    HW194675   3.709   0.827  13.632
97614SOL    HW294676   3.592   0.731  13.625
97615SOL     OW94677   1.331   9.918  13.885
97615SOL    HW194678   1.237   9.902  13.883
97615SOL    HW294679   1.356   9.901  13.976
97616SOL     OW94680   5.058   3.796  10.764
97616SOL    HW194681   5.032   3.719  10.713
97616SOL    HW294682   4.975   3.832  10.796
97617SOL     OW94683   6.749   3.975  14.633
97617SOL    HW194684   6.774   4.035  14.563
97617SOL    HW294685   6.832   3.935  14.661
97618SOL     OW94686   1.461  10.774   6.177
97618SOL    HW194687   1.548  10.752   6.143
97618SOL    HW294688   1.443  10.861   6.143
97619SOL     OW94689   7.893   7.895  13.009
97619SOL    HW194690   7.800   7.876  12.992
97619SOL    HW294691   7.902   7.882  13.104
97620SOL     OW94692   4.278   9.916   0.748
97620SOL    HW194693   4.225   9.935   0.826
97620SOL    HW294694   4.273   9.821   0.739
97621SOL     OW94695  10.013   0.409   0.202
97621SOL    HW194696  10.090   0.354   0.215
97621SOL    HW294697  10.013   0.469   0.277
97622SOL     OW94698   4.973   0.405   2.821
97622SOL    HW194699   5.056   0.422   2.865
97622SOL    HW294700   4.998   0.368   2.736
97623SOL     OW94701   7.996   1.245   2.428
97623SOL    HW194702   7.941   1.244   2.351
97623SOL    HW294703   8.080   1.210   2.398
97624SOL     OW94704  11.870  12.224  14.716
97624SOL    HW194705  11.877  12.226  14.621
97624SOL    HW294706  11.958  12.242  14.747
97625SOL     OW94707  11.025   5.288   6.681
97625SOL    HW194708  10.973   5.368   6.688
97625SOL    HW294709  10.963   5.220   6.657
97626SOL     OW94710  10.971   3.917   3.233
97626SOL    HW194711  10.942   3.939   3.144
97626SOL    HW294712  11.061   3.886   3.223
97627SOL     OW94713   3.419   6.602   9.400
97627SOL    HW194714   3.431   6.623   9.492
97627SOL    HW294715   3.505   6.617   9.361
97628SOL     OW94716   4.321   0.475  14.250
97628SOL    HW194717   4.394   0.488  14.189
97628SOL    HW294718   4.266   0.410  14.206
97629SOL     OW94719  11.420  12.252   1.281
97629SOL    HW194720  11.491  12.253   1.218
97629SOL    HW294721  11.462  12.268   1.366
97630SOL     OW94722  13.987   7.657   8.726
97630SOL    HW194723  13.899   7.674   8.760
97630SOL    HW294724  14.007   7.568   8.755
97631SOL     OW94725   3.807   6.961   0.554
97631SOL    HW194726   3.873   7.026   0.529
97631SOL    HW294727   3.821   6.947   0.647
97632SOL     OW94728  11.997   4.808  11.795
97632SOL    HW194729  11.907   4.836  11.780
97632SOL    HW294730  12.041   4.887  11.828
97633SOL     OW94731   6.837  14.235   7.255
97633SOL    HW194732   6.926  14.229   7.290
97633SOL    HW294733   6.792  14.159   7.291
97634SOL     OW94734   6.059   0.023   7.552
97634SOL    HW194735   6.048  14.864   7.462
97634SOL    HW294736   6.063  14.817   7.605
97635SOL     OW94737  11.303   9.200   9.414
97635SOL    HW194738  11.266   9.286   9.434
97635SOL    HW294739  11.242   9.138   9.454
97636SOL     OW94740   7.129   4.340   2.169
97636SOL    HW194741   7.221   4.332   2.144
97636SOL    HW294742   7.119   4.431   2.194
97637SOL     OW94743   8.543  10.437   3.754
97637SOL    HW194744   8.515  10.409   3.841
97637SOL    HW294745   8.581  10.524   3.767
97638SOL     OW94746   4.308   2.361   6.680
97638SOL    HW194747   4.297   2.369   6.586
97638SOL    HW294748   4.225   2.328   6.712
97639SOL     OW94749   1.347   2.776   9.390
97639SOL    HW194750   1.301   2.782   9.473
97639SOL    HW294751   1.285   2.809   9.325
97640SOL     OW94752   6.525  11.918   7.466
97640SOL    HW194753   6.507  11.976   7.541
97640SOL    HW294754   6.438  11.894   7.434
97641SOL     OW94755  11.234  13.160   5.979
97641SOL    HW194756  11.323  13.195   5.986
97641SOL    HW294757  11.218  13.118   6.064
97642SOL     OW94758   4.387  12.430   9.137
97642SOL    HW194759   4.403  12.366   9.207
97642SOL    HW294760   4.441  12.505   9.160
97643SOL     OW94761   7.921   8.841   8.953
97643SOL    HW194762   7.999   8.895   8.940
97643SOL    HW294763   7.891   8.820   8.865
97644SOL     OW94764   9.503  13.489   2.837
97644SOL    HW194765   9.496  13.543   2.916
97644SOL    HW294766   9.506  13.399   2.870
97645SOL     OW94767   4.388  10.832  10.502
97645SOL    HW194768   4.480  10.856  10.503
97645SOL    HW294769   4.378  10.767  10.571
97646SOL     OW94770  12.924   2.835  13.112
97646SOL    HW194771  12.915   2.745  13.081
97646SOL    HW294772  12.856   2.884  13.064
97647SOL     OW94773   8.220  14.578   9.929
97647SOL    HW194774   8.178  14.633   9.995
97647SOL    HW294775   8.154  14.564   9.862
97648SOL     OW94776   6.207  13.574  14.795
97648SOL    HW194777   6.226  13.503  14.857
97648SOL    HW294778   6.239  13.542  14.711
97649SOL     OW94779  10.800   9.407   5.106
97649SOL    HW194780  10.727   9.344   5.103
97649SOL    HW294781  10.822   9.412   5.199
97650SOL     OW94782   4.946   3.892   8.986
97650SOL    HW194783   4.902   3.807   8.985
97650SOL    HW294784   4.921   3.931   9.070
97651SOL     OW94785  13.400   8.107  10.016
97651SOL    HW194786  13.318   8.061  10.000
97651SOL    HW294787  13.440   8.117   9.930
97652SOL     OW94788   3.856   3.977   2.201
97652SOL    HW194789   3.883   3.915   2.133
97652SOL    HW294790   3.891   3.940   2.282
97653SOL     OW94791   1.850   0.242  10.189
97653SOL    HW194792   1.946   0.231  10.190
97653SOL    HW294793   1.836   0.316  10.130
97654SOL     OW94794  11.692   4.821   6.599
97654SOL    HW194795  11.667   4.914   6.600
97654SOL    HW294796  11.609   4.774   6.589
97655SOL     OW94797   2.724   5.427   7.255
97655SOL    HW194798   2.685   5.474   7.182
97655SOL    HW294799   2.655   5.369   7.286
97656SOL     OW94800   0.474  12.133   5.574
97656SOL    HW194801   0.436  12.182   5.647
97656SOL    HW294802   0.568  12.149   5.582
97657SOL     OW94803   6.461   5.214  11.902
97657SOL    HW194804   6.383   5.205  11.848
97657SOL    HW294805   6.428   5.236  11.989
97658SOL     OW94806   6.016   2.991   1.457
97658SOL    HW194807   6.018   3.054   1.385
97658SOL    HW294808   6.095   2.938   1.444
97659SOL     OW94809  10.941   6.241   5.924
97659SOL    HW194810  10.868   6.302   5.921
97659SOL    HW294811  10.914   6.169   5.867
97660SOL     OW94812   9.182  10.157   9.373
97660SOL    HW194813   9.183  10.253   9.383
97660SOL    HW294814   9.119  10.141   9.303
97661SOL     OW94815   2.300  11.871   9.808
97661SOL    HW194816   2.259  11.855   9.893
97661SOL    HW294817   2.392  11.849   9.821
97662SOL     OW94818   8.015   3.051   4.495
97662SOL    HW194819   7.997   3.032   4.587
97662SOL    HW294820   8.083   2.988   4.470
97663SOL     OW94821   5.790   4.089   9.217
97663SOL    HW194822   5.868   4.121   9.173
97663SOL    HW294823   5.750   4.029   9.154
97664SOL     OW94824   0.587   9.052   6.600
97664SOL    HW194825   0.664   9.050   6.656
97664SOL    HW294826   0.570   8.960   6.579
97665SOL     OW94827   7.132   9.105  14.506
97665SOL    HW194828   7.125   9.103  14.411
97665SOL    HW294829   7.226   9.097  14.523
97666SOL     OW94830   6.348   8.865  12.942
97666SOL    HW194831   6.348   8.922  13.020
97666SOL    HW294832   6.256   8.859  12.918
97667SOL     OW94833  12.216   6.995  10.409
97667SOL    HW194834  12.214   6.944  10.490
97667SOL    HW294835  12.178   7.080  10.433
97668SOL     OW94836  14.644   5.585   0.242
97668SOL    HW194837  14.706   5.535   0.296
97668SOL    HW294838  14.692   5.664   0.217
97669SOL     OW94839   1.712   9.062   3.747
97669SOL    HW194840   1.658   9.007   3.804
97669SOL    HW294841   1.794   9.013   3.737
97670SOL     OW94842  14.854  13.795  13.613
97670SOL    HW194843   0.066  13.781  13.655
97670SOL    HW294844  14.819  13.708  13.600
97671SOL     OW94845   6.501  11.140  12.967
97671SOL    HW194846   6.414  11.107  12.946
97671SOL    HW294847   6.485  11.224  13.010
97672SOL     OW94848   3.550  12.811   6.948
97672SOL    HW194849   3.576  12.897   6.981
97672SOL    HW294850   3.521  12.828   6.858
97673SOL     OW94851  14.144   2.085   0.701
97673SOL    HW194852  14.186   2.018   0.648
97673SOL    HW294853  14.136   2.160   0.643
97674SOL     OW94854   8.144  14.543   8.833
97674SOL    HW194855   8.205  14.588   8.892
97674SOL    HW294856   8.083  14.498   8.891
97675SOL     OW94857  13.768   6.405  11.836
97675SOL    HW194858  13.768   6.376  11.745
97675SOL    HW294859  13.858   6.433  11.852
97676SOL     OW94860  12.170  11.312  10.235
97676SOL    HW194861  12.192  11.370  10.308
97676SOL    HW294862  12.086  11.273  10.260
97677SOL     OW94863  13.827   4.474   3.920
97677SOL    HW194864  13.851   4.560   3.954
97677SOL    HW294865  13.785   4.491   3.836
97678SOL     OW94866   9.710   6.497   1.657
97678SOL    HW194867   9.702   6.449   1.739
97678SOL    HW294868   9.669   6.440   1.592
97679SOL     OW94869   0.333  10.318   4.532
97679SOL    HW194870   0.270  10.253   4.500
97679SOL    HW294871   0.364  10.363   4.453
97680SOL     OW94872  11.656   0.693   3.720
97680SOL    HW194873  11.602   0.772   3.722
97680SOL    HW294874  11.595   0.622   3.739
97681SOL     OW94875   7.670  10.483  10.788
97681SOL    HW194876   7.669  10.388  10.795
97681SOL    HW294877   7.656  10.514  10.877
97682SOL     OW94878   0.095  10.426  10.057
97682SOL    HW194879   0.019  10.393  10.106
97682SOL    HW294880   0.159  10.355  10.062
97683SOL     OW94881   0.556   3.343  10.537
97683SOL    HW194882   0.467   3.366  10.509
97683SOL    HW294883   0.603   3.427  10.537
97684SOL     OW94884   7.950   8.081   9.771
97684SOL    HW194885   7.866   8.066   9.727
97684SOL    HW294886   8.008   8.110   9.701
97685SOL     OW94887  11.484   2.269   4.149
97685SOL    HW194888  11.458   2.228   4.231
97685SOL    HW294889  11.519   2.197   4.096
97686SOL     OW94890   8.331  12.250   0.178
97686SOL    HW194891   8.322  12.180   0.113
97686SOL    HW294892   8.313  12.207   0.262
97687SOL     OW94893   0.751   0.547  10.487
97687SOL    HW194894   0.713   0.635  10.498
97687SOL    HW294895   0.843   0.564  10.469
97688SOL     OW94896   3.388   1.718  11.480
97688SOL    HW194897   3.348   1.745  11.562
97688SOL    HW294898   3.360   1.784  11.416
97689SOL     OW94899  13.104   9.441   7.667
97689SOL    HW194900  13.195   9.455   7.640
97689SOL    HW294901  13.088   9.508   7.733
97690SOL     OW94902   9.499  12.961   3.029
97690SOL    HW194903   9.459  12.875   3.019
97690SOL    HW294904   9.568  12.948   3.094
97691SOL     OW94905  11.563   1.650   7.457
97691SOL    HW194906  11.483   1.597   7.457
97691SOL    HW294907  11.534   1.736   7.426
97692SOL     OW94908  12.680  11.607   8.443
97692SOL    HW194909  12.698  11.672   8.511
97692SOL    HW294910  12.619  11.546   8.484
97693SOL     OW94911  10.456   1.721   2.850
97693SOL    HW194912  10.378   1.740   2.901
97693SOL    HW294913  10.529   1.741   2.909
97694SOL     OW94914   3.511   3.538   5.209
97694SOL    HW194915   3.513   3.625   5.249
97694SOL    HW294916   3.550   3.549   5.123
97695SOL     OW94917  14.024  10.359  11.573
97695SOL    HW194918  14.068  10.275  11.560
97695SOL    HW294919  13.956  10.341  11.638
97696SOL     OW94920   7.504   3.994   2.696
97696SOL    HW194921   7.493   4.085   2.722
97696SOL    HW294922   7.420   3.953   2.718
97697SOL     OW94923   8.534   1.468   9.926
97697SOL    HW194924   8.593   1.408   9.881
97697SOL    HW294925   8.447   1.444   9.895
97698SOL     OW94926   1.064   5.945   6.507
97698SOL    HW194927   1.109   5.926   6.425
97698SOL    HW294928   1.134   5.940   6.573
97699SOL     OW94929  12.602  12.376   2.783
97699SOL    HW194930  12.511  12.360   2.757
97699SOL    HW294931  12.652  12.368   2.702
97700SOL     OW94932   4.500   4.329   6.390
97700SOL    HW194933   4.405   4.324   6.378
97700SOL    HW294934   4.527   4.404   6.337
97701SOL     OW94935  13.573   3.533   9.126
97701SOL    HW194936  13.510   3.559   9.060
97701SOL    HW294937  13.610   3.615   9.159
97702SOL     OW94938   6.426   1.173  11.149
97702SOL    HW194939   6.403   1.094  11.100
97702SOL    HW294940   6.510   1.152  11.189
97703SOL     OW94941   2.141   7.088  10.490
97703SOL    HW194942   2.113   7.129  10.572
97703SOL    HW294943   2.212   7.144  10.458
97704SOL     OW94944   5.182  10.042  12.636
97704SOL    HW194945   5.100  10.008  12.671
97704SOL    HW294946   5.189  10.002  12.549
97705SOL     OW94947  11.963   1.393   8.576
97705SOL    HW194948  11.892   1.457   8.574
97705SOL    HW294949  11.948   1.342   8.656
97706SOL     OW94950   6.352   1.481  11.985
97706SOL    HW194951   6.427   1.452  12.038
97706SOL    HW294952   6.276   1.464  12.041
97707SOL     OW94953   5.914   5.144  12.643
97707SOL    HW194954   5.906   5.089  12.565
97707SOL    HW294955   5.853   5.105  12.706
97708SOL     OW94956   7.128  13.965   8.470
97708SOL    HW194957   7.075  13.946   8.548
97708SOL    HW294958   7.075  13.931   8.397
97709SOL     OW94959   5.838   5.245   4.163
97709SOL    HW194960   5.929   5.215   4.153
97709SOL    HW294961   5.838   5.292   4.246
97710SOL     OW94962  10.699   4.118   1.054
97710SOL    HW194963  10.669   4.027   1.060
97710SOL    HW294964  10.771   4.116   0.991
97711SOL     OW94965  13.261   0.994  14.762
97711SOL    HW194966  13.238   1.086  14.777
97711SOL    HW294967  13.304   0.966  14.843
97712SOL     OW94968   0.676   4.272   0.215
97712SOL    HW194969   0.714   4.344   0.165
97712SOL    HW294970   0.700   4.291   0.306
97713SOL     OW94971   3.466   6.064   0.763
97713SOL    HW194972   3.373   6.046   0.754
97713SOL    HW294973   3.482   6.136   0.701
97714SOL     OW94974  13.129   9.596   2.377
97714SOL    HW194975  13.219   9.629   2.381
97714SOL    HW294976  13.135   9.504   2.401
97715SOL     OW94977  13.626   9.707   1.459
97715SOL    HW194978  13.662   9.666   1.381
97715SOL    HW294979  13.550   9.653   1.481
97716SOL     OW94980   9.705  13.841   7.496
97716SOL    HW194981   9.644  13.874   7.429
97716SOL    HW294982   9.787  13.887   7.479
97717SOL     OW94983   1.099   0.095   9.938
97717SOL    HW194984   1.172   0.153   9.958
97717SOL    HW294985   1.081   0.109   9.845
97718SOL     OW94986  11.549   6.406   5.967
97718SOL    HW194987  11.632   6.426   6.010
97718SOL    HW294988  11.502   6.351   6.029
97719SOL     OW94989   7.849  14.084  13.737
97719SOL    HW194990   7.840  14.013  13.673
97719SOL    HW294991   7.759  14.110  13.757
97720SOL     OW94992  10.839   5.056   6.684
97720SOL    HW194993  10.806   4.966   6.695
97720SOL    HW294994  10.790   5.107   6.748
97721SOL     OW94995   0.683  10.923  14.136
97721SOL    HW194996   0.616  10.973  14.089
97721SOL    HW294997   0.730  10.875  14.068
97722SOL     OW94998  14.125   4.900  11.224
97722SOL    HW194999  14.180   4.975  11.245
97722SOL    HW295000  14.081   4.878  11.306
97723SOL     OW95001   3.589   1.162   6.269
97723SOL    HW195002   3.577   1.069   6.253
97723SOL    HW295003   3.548   1.205   6.194
97724SOL     OW95004  13.331  11.456  11.827
97724SOL    HW195005  13.418  11.490  11.807
97724SOL    HW295006  13.325  11.376  11.775
97725SOL     OW95007  12.197   6.850   5.112
97725SOL    HW195008  12.223   6.892   5.030
97725SOL    HW295009  12.256   6.775   5.120
97726SOL     OW95010   8.361  13.569   6.299
97726SOL    HW195011   8.370  13.514   6.221
97726SOL    HW295012   8.323  13.650   6.267
97727SOL     OW95013   6.700   0.851  12.168
97727SOL    HW195014   6.688   0.874  12.075
97727SOL    HW295015   6.712   0.936  12.211
97728SOL     OW95016   4.018   1.150   6.799
97728SOL    HW195017   4.087   1.202   6.841
97728SOL    HW295018   4.032   1.164   6.705
97729SOL     OW95019   6.797   3.808   1.150
97729SOL    HW195020   6.790   3.849   1.064
97729SOL    HW295021   6.707   3.785   1.173
97730SOL     OW95022  13.313   4.402   2.926
97730SOL    HW195023  13.244   4.369   2.984
97730SOL    HW295024  13.291   4.494   2.913
97731SOL     OW95025  13.123  10.465   7.522
97731SOL    HW195026  13.156  10.528   7.457
97731SOL    HW295027  13.033  10.492   7.538
97732SOL     OW95028  10.750   7.735   6.735
97732SOL    HW195029  10.682   7.678   6.770
97732SOL    HW295030  10.738   7.733   6.641
97733SOL     OW95031  11.446   0.372  12.033
97733SOL    HW195032  11.419   0.451  11.985
97733SOL    HW295033  11.538   0.359  12.008
97734SOL     OW95034  13.059   2.751   5.586
97734SOL    HW195035  12.977   2.722   5.547
97734SOL    HW295036  13.037   2.772   5.677
97735SOL     OW95037  11.294   8.398  10.534
97735SOL    HW195038  11.240   8.477  10.530
97735SOL    HW295039  11.230   8.326  10.531
97736SOL     OW95040  11.563   3.286   0.432
97736SOL    HW195041  11.611   3.204   0.445
97736SOL    HW295042  11.629   3.354   0.443
97737SOL     OW95043   2.511   6.968   8.502
97737SOL    HW195044   2.592   6.967   8.553
97737SOL    HW295045   2.487   6.876   8.493
97738SOL     OW95046   3.213  13.458   8.085
97738SOL    HW195047   3.254  13.544   8.090
97738SOL    HW295048   3.283  13.398   8.059
97739SOL     OW95049   8.477   6.603   4.461
97739SOL    HW195050   8.493   6.597   4.555
97739SOL    HW295051   8.443   6.517   4.437
97740SOL     OW95052  11.213   0.749   2.256
97740SOL    HW195053  11.208   0.654   2.259
97740SOL    HW295054  11.132   0.779   2.298
97741SOL     OW95055  12.060   7.316  12.715
97741SOL    HW195056  11.973   7.326  12.754
97741SOL    HW295057  12.074   7.222  12.709
97742SOL     OW95058   2.641   2.422   1.205
97742SOL    HW195059   2.600   2.341   1.173
97742SOL    HW295060   2.627   2.421   1.299
97743SOL     OW95061   4.327   0.845   5.707
97743SOL    HW195062   4.283   0.808   5.783
97743SOL    HW295063   4.331   0.773   5.644
97744SOL     OW95064   4.618   4.670   5.767
97744SOL    HW195065   4.712   4.674   5.781
97744SOL    HW295066   4.590   4.762   5.769
97745SOL     OW95067   7.575   4.035   7.669
97745SOL    HW195068   7.518   4.000   7.737
97745SOL    HW295069   7.589   3.962   7.609
97746SOL     OW95070   6.931   5.161  13.047
97746SOL    HW195071   6.933   5.076  13.092
97746SOL    HW295072   7.016   5.166  13.003
97747SOL     OW95073   2.500  14.524   1.360
97747SOL    HW195074   2.531  14.492   1.276
97747SOL    HW295075   2.560  14.596   1.382
97748SOL     OW95076   4.715   1.062  12.309
97748SOL    HW195077   4.673   1.001  12.248
97748SOL    HW295078   4.704   1.021  12.395
97749SOL     OW95079   2.127   7.786   6.191
97749SOL    HW195080   2.131   7.882   6.200
97749SOL    HW295081   2.195   7.766   6.128
97750SOL     OW95082   5.151   9.679  14.180
97750SOL    HW195083   5.186   9.656  14.265
97750SOL    HW295084   5.092   9.753  14.198
97751SOL     OW95085  12.792   8.794   8.018
97751SOL    HW195086  12.799   8.744   8.099
97751SOL    HW295087  12.712   8.761   7.976
97752SOL     OW95088  12.219   8.831   3.238
97752SOL    HW195089  12.233   8.894   3.167
97752SOL    HW295090  12.188   8.752   3.195
97753SOL     OW95091   1.215   0.969   6.644
97753SOL    HW195092   1.163   1.050   6.645
97753SOL    HW295093   1.295   0.992   6.692
97754SOL     OW95094  14.404  12.384   5.000
97754SOL    HW195095  14.490  12.392   4.958
97754SOL    HW295096  14.347  12.351   4.930
97755SOL     OW95097   3.069   9.295   5.751
97755SOL    HW195098   3.121   9.332   5.680
97755SOL    HW295099   3.005   9.363   5.773
97756SOL     OW95100   9.212   7.545   4.116
97756SOL    HW195101   9.241   7.506   4.033
97756SOL    HW295102   9.271   7.507   4.181
97757SOL     OW95103   9.429   5.548  13.271
97757SOL    HW195104   9.352   5.578  13.224
97757SOL    HW295105   9.428   5.597  13.354
97758SOL     OW95106  14.561   3.768   4.810
97758SOL    HW195107  14.485   3.824   4.794
97758SOL    HW295108  14.637   3.824   4.796
97759SOL     OW95109  14.040   4.594  10.989
97759SOL    HW195110  14.024   4.688  10.975
97759SOL    HW295111  13.993   4.574  11.070
97760SOL     OW95112  10.206   8.547   4.311
97760SOL    HW195113  10.140   8.542   4.243
97760SOL    HW295114  10.246   8.633   4.300
97761SOL     OW95115  11.251  12.305   7.572
97761SOL    HW195116  11.252  12.346   7.485
97761SOL    HW295117  11.170  12.336   7.612
97762SOL     OW95118   5.832   4.975  13.630
97762SOL    HW195119   5.915   5.019  13.614
97762SOL    HW295120   5.817   4.986  13.724
97763SOL     OW95121   1.417   1.368   6.751
97763SOL    HW195122   1.491   1.389   6.693
97763SOL    HW295123   1.452   1.376   6.839
97764SOL     OW95124   8.563  11.530   2.898
97764SOL    HW195125   8.471  11.503   2.889
97764SOL    HW295126   8.564  11.621   2.870
97765SOL     OW95127   9.705   2.445  13.700
97765SOL    HW195128   9.722   2.367  13.646
97765SOL    HW295129   9.787   2.457  13.749
97766SOL     OW95130   4.696   9.685   3.994
97766SOL    HW195131   4.625   9.628   3.965
97766SOL    HW295132   4.733   9.640   4.071
97767SOL     OW95133   7.586  10.848  13.626
97767SOL    HW195134   7.615  10.933  13.593
97767SOL    HW295135   7.623  10.842  13.714
97768SOL     OW95136  13.588   2.264   0.598
97768SOL    HW195137  13.614   2.211   0.522
97768SOL    HW295138  13.628   2.219   0.673
97769SOL     OW95139   1.945   6.708   2.890
97769SOL    HW195140   2.012   6.762   2.931
97769SOL    HW295141   1.912   6.760   2.817
97770SOL     OW95142  13.355   1.298  10.614
97770SOL    HW195143  13.327   1.206  10.616
97770SOL    HW295144  13.285   1.346  10.657
97771SOL     OW95145   9.435   2.870   3.122
97771SOL    HW195146   9.484   2.894   3.044
97771SOL    HW295147   9.478   2.918   3.193
97772SOL     OW95148  11.690   3.129  11.299
97772SOL    HW195149  11.639   3.055  11.332
97772SOL    HW295150  11.750   3.151  11.371
97773SOL     OW95151  13.107  13.160   5.267
97773SOL    HW195152  13.148  13.076   5.288
97773SOL    HW295153  13.167  13.225   5.304
97774SOL     OW95154   6.280   0.236   2.759
97774SOL    HW195155   6.263   0.230   2.853
97774SOL    HW295156   6.310   0.149   2.734
97775SOL     OW95157   7.396   4.448   7.315
97775SOL    HW195158   7.385   4.358   7.286
97775SOL    HW295159   7.382   4.445   7.409
97776SOL     OW95160   7.598   6.378   7.563
97776SOL    HW195161   7.689   6.355   7.547
97776SOL    HW295162   7.577   6.443   7.496
97777SOL     OW95163   9.872  11.068   0.138
97777SOL    HW195164   9.920  11.147   0.114
97777SOL    HW295165   9.795  11.068   0.082
97778SOL     OW95166   7.159   4.684   6.513
97778SOL    HW195167   7.245   4.719   6.535
97778SOL    HW295168   7.178   4.601   6.469
97779SOL     OW95169   3.110   3.954  10.761
97779SOL    HW195170   3.105   3.868  10.803
97779SOL    HW295171   3.030   3.960  10.709
97780SOL     OW95172  11.895  12.227  10.743
97780SOL    HW195173  11.813  12.200  10.703
97780SOL    HW295174  11.955  12.153  10.728
97781SOL     OW95175   7.754   3.763  10.179
97781SOL    HW195176   7.679   3.797  10.227
97781SOL    HW295177   7.786   3.690  10.233
97782SOL     OW95178   5.255   2.933   7.289
97782SOL    HW195179   5.342   2.901   7.267
97782SOL    HW295180   5.236   3.001   7.225
97783SOL     OW95181  11.819  10.817   1.584
97783SOL    HW195182  11.904  10.860   1.574
97783SOL    HW295183  11.829  10.762   1.662
97784SOL     OW95184   4.546  11.701   0.128
97784SOL    HW195185   4.630  11.659   0.142
97784SOL    HW295186   4.481  11.635   0.153
97785SOL     OW95187  10.446   9.912   7.176
97785SOL    HW195188  10.382   9.953   7.118
97785SOL    HW295189  10.412   9.927   7.264
97786SOL     OW95190   5.287   8.862  12.914
97786SOL    HW195191   5.285   8.809  12.993
97786SOL    HW295192   5.371   8.908  12.918
97787SOL     OW95193   9.841   8.094  12.587
97787SOL    HW195194   9.897   8.030  12.545
97787SOL    HW295195   9.889   8.120  12.666
97788SOL     OW95196  11.317   1.298   4.967
97788SOL    HW195197  11.239   1.244   4.978
97788SOL    HW295198  11.289   1.387   4.988
97789SOL     OW95199   5.477   3.234  11.058
97789SOL    HW195200   5.509   3.154  11.099
97789SOL    HW295201   5.389   3.212  11.027
97790SOL     OW95202  11.070   7.889   3.170
97790SOL    HW195203  11.159   7.876   3.202
97790SOL    HW295204  11.025   7.932   3.242
97791SOL     OW95205  14.853   1.545   8.400
97791SOL    HW195206  14.811   1.460   8.389
97791SOL    HW295207   0.069   1.532   8.368
97792SOL     OW95208   4.447   2.261  12.533
97792SOL    HW195209   4.515   2.279  12.467
97792SOL    HW295210   4.496   2.238  12.612
97793SOL     OW95211   3.864  12.806  11.256
97793SOL    HW195212   3.861  12.718  11.292
97793SOL    HW295213   3.773  12.828  11.238
97794SOL     OW95214  10.716   2.565  14.249
97794SOL    HW195215  10.746   2.532  14.165
97794SOL    HW295216  10.764   2.513  14.314
97795SOL     OW95217   0.893   3.170   2.707
97795SOL    HW195218   0.908   3.123   2.788
97795SOL    HW295219   0.830   3.239   2.731
97796SOL     OW95220  10.326   5.989   1.895
97796SOL    HW195221  10.356   5.909   1.851
97796SOL    HW295222  10.296   5.960   1.981
97797SOL     OW95223   1.296   0.692   7.375
97797SOL    HW195224   1.358   0.687   7.303
97797SOL    HW295225   1.346   0.665   7.452
97798SOL     OW95226   4.750   4.696   9.870
97798SOL    HW195227   4.785   4.776   9.832
97798SOL    HW295228   4.692   4.725   9.940
97799SOL     OW95229  11.559   1.320   5.715
97799SOL    HW195230  11.600   1.273   5.643
97799SOL    HW295231  11.493   1.376   5.674
97800SOL     OW95232  13.951  11.112   7.947
97800SOL    HW195233  14.014  11.182   7.929
97800SOL    HW295234  13.997  11.053   8.007
97801SOL     OW95235   1.939   5.400   5.210
97801SOL    HW195236   1.997   5.378   5.283
97801SOL    HW295237   1.997   5.408   5.134
97802SOL     OW95238   1.845   2.898   7.350
97802SOL    HW195239   1.856   2.969   7.287
97802SOL    HW295240   1.806   2.940   7.427
97803SOL     OW95241  13.645   7.229   2.013
97803SOL    HW195242  13.558   7.228   2.053
97803SOL    HW295243  13.703   7.194   2.081
97804SOL     OW95244   5.115  14.847   7.343
97804SOL    HW195245   5.165  14.772   7.312
97804SOL    HW295246   5.126  14.846   7.438
97805SOL     OW95247   6.830   3.881  12.793
97805SOL    HW195248   6.739   3.863  12.817
97805SOL    HW295249   6.871   3.795  12.791
97806SOL     OW95250  12.128   0.896  10.879
97806SOL    HW195251  12.106   0.827  10.816
97806SOL    HW295252  12.184   0.956  10.829
97807SOL     OW95253  10.684   5.514   2.567
97807SOL    HW195254  10.661   5.605   2.586
97807SOL    HW295255  10.775   5.506   2.595
97808SOL     OW95256   3.273   8.654   1.701
97808SOL    HW195257   3.364   8.631   1.683
97808SOL    HW295258   3.235   8.672   1.615
97809SOL     OW95259   8.871   6.629   3.610
97809SOL    HW195260   8.817   6.612   3.533
97809SOL    HW295261   8.916   6.546   3.626
97810SOL     OW95262  14.705   9.756   2.026
97810SOL    HW195263  14.796   9.729   2.015
97810SOL    HW295264  14.671   9.698   2.094
97811SOL     OW95265   7.214   9.651   7.175
97811SOL    HW195266   7.197   9.591   7.247
97811SOL    HW295267   7.305   9.636   7.151
97812SOL     OW95268   7.774  11.482   3.073
97812SOL    HW195269   7.752  11.574   3.065
97812SOL    HW295270   7.760  11.461   3.165
97813SOL     OW95271  10.341   1.777   1.243
97813SOL    HW195272  10.340   1.682   1.246
97813SOL    HW295273  10.278   1.804   1.310
97814SOL     OW95274   4.115   3.435   3.543
97814SOL    HW195275   4.139   3.382   3.467
97814SOL    HW295276   4.192   3.489   3.561
97815SOL     OW95277   3.231   8.451  14.173
97815SOL    HW195278   3.164   8.394  14.136
97815SOL    HW295279   3.208   8.539  14.144
97816SOL     OW95280   1.745  10.975  14.687
97816SOL    HW195281   1.782  10.925  14.614
97816SOL    HW295282   1.769  10.925  14.765
97817SOL     OW95283  14.205  12.945   5.670
97817SOL    HW195284  14.199  13.033   5.709
97817SOL    HW295285  14.275  12.902   5.719
97818SOL     OW95286  13.206   1.535  12.160
97818SOL    HW195287  13.240   1.559  12.074
97818SOL    HW295288  13.152   1.609  12.187
97819SOL     OW95289  13.472   7.247   5.636
97819SOL    HW195290  13.408   7.296   5.585
97819SOL    HW295291  13.482   7.164   5.590
97820SOL     OW95292   6.945   5.362   9.533
97820SOL    HW195293   6.880   5.365   9.603
97820SOL    HW295294   6.906   5.415   9.463
97821SOL     OW95295   8.246   2.136  14.544
97821SOL    HW195296   8.297   2.151  14.464
97821SOL    HW295297   8.248   2.219  14.590
97822SOL     OW95298  12.979   1.092   1.899
97822SOL    HW195299  12.913   1.155   1.870
97822SOL    HW295300  12.933   1.035   1.960
97823SOL     OW95301   3.975   7.384   2.055
97823SOL    HW195302   3.964   7.393   2.149
97823SOL    HW295303   3.896   7.424   2.018
97824SOL     OW95304   6.366   0.424  13.901
97824SOL    HW195305   6.306   0.458  13.967
97824SOL    HW295306   6.343   0.470  13.820
97825SOL     OW95307  10.787   5.284  13.899
97825SOL    HW195308  10.715   5.262  13.840
97825SOL    HW295309  10.865   5.251  13.855
97826SOL     OW95310   4.452   7.888   9.571
97826SOL    HW195311   4.364   7.907   9.538
97826SOL    HW295312   4.507   7.883   9.492
97827SOL     OW95313   6.850  11.276   4.004
97827SOL    HW195314   6.755  11.275   3.995
97827SOL    HW295315   6.866  11.274   4.098
97828SOL     OW95316   6.925   7.620   5.597
97828SOL    HW195317   7.015   7.629   5.629
97828SOL    HW295318   6.871   7.645   5.672
97829SOL     OW95319   7.790  11.232   7.680
97829SOL    HW195320   7.702  11.207   7.653
97829SOL    HW295321   7.807  11.179   7.758
97830SOL     OW95322  10.270   4.453   0.844
97830SOL    HW195323  10.180   4.420   0.852
97830SOL    HW295324  10.325   4.378   0.861
97831SOL     OW95325  13.056   3.944   5.454
97831SOL    HW195326  13.134   3.948   5.509
97831SOL    HW295327  12.988   3.907   5.511
97832SOL     OW95328   6.862  14.643   3.269
97832SOL    HW195329   6.819  14.597   3.341
97832SOL    HW295330   6.791  14.666   3.209
97833SOL     OW95331   1.850   6.813   2.474
97833SOL    HW195332   1.896   6.829   2.556
97833SOL    HW295333   1.822   6.899   2.444
97834SOL     OW95334   3.048  12.711  11.700
97834SOL    HW195335   2.976  12.659  11.663
97834SOL    HW295336   3.086  12.655  11.768
97835SOL     OW95337   1.377   5.846  11.283
97835SOL    HW195338   1.469   5.850  11.309
97835SOL    HW295339   1.356   5.753  11.282
97836SOL     OW95340   7.374   0.569   0.983
97836SOL    HW195341   7.306   0.573   0.916
97836SOL    HW295342   7.326   0.549   1.064
97837SOL     OW95343   9.346  12.346   3.084
97837SOL    HW195344   9.339  12.265   3.135
97837SOL    HW295345   9.427  12.335   3.034
97838SOL     OW95346  14.648   4.184   5.648
97838SOL    HW195347  14.569   4.217   5.604
97838SOL    HW295348  14.650   4.231   5.731
97839SOL     OW95349   0.509  14.844  13.710
97839SOL    HW195350   0.531   0.051  13.662
97839SOL    HW295351   0.547  14.773  13.657
97840SOL     OW95352   3.503   8.863   4.789
97840SOL    HW195353   3.511   8.770   4.812
97840SOL    HW295354   3.573   8.905   4.839
97841SOL     OW95355   9.047   6.043   1.018
97841SOL    HW195356   8.978   6.095   1.061
97841SOL    HW295357   9.021   5.953   1.035
97842SOL     OW95358  12.864   1.990   7.852
97842SOL    HW195359  12.847   2.084   7.855
97842SOL    HW295360  12.948   1.983   7.807
97843SOL     OW95361  13.136   5.096   2.011
97843SOL    HW195362  13.068   5.037   2.044
97843SOL    HW295363  13.147   5.162   2.080
97844SOL     OW95364  11.945  12.791  14.436
97844SOL    HW195365  11.934  12.702  14.401
97844SOL    HW295366  11.946  12.780  14.531
97845SOL     OW95367  14.153  10.968  12.437
97845SOL    HW195368  14.110  11.040  12.483
97845SOL    HW295369  14.092  10.895  12.445
97846SOL     OW95370   4.810   9.973   2.971
97846SOL    HW195371   4.828  10.052   3.022
97846SOL    HW295372   4.802  10.003   2.880
97847SOL     OW95373   9.545   0.534   2.258
97847SOL    HW195374   9.611   0.601   2.242
97847SOL    HW295375   9.576   0.457   2.211
97848SOL     OW95376   0.895  14.136  14.011
97848SOL    HW195377   0.900  14.041  14.026
97848SOL    HW295378   0.808  14.150  13.974
97849SOL     OW95379   0.636  10.644   2.533
97849SOL    HW195380   0.654  10.597   2.614
97849SOL    HW295381   0.587  10.582   2.479
97850SOL     OW95382   4.344   0.123  11.181
97850SOL    HW195383   4.400   0.197  11.160
97850SOL    HW295384   4.344   0.118  11.276
97851SOL     OW95385   0.977  12.035   4.813
97851SOL    HW195386   0.898  12.000   4.771
97851SOL    HW295387   0.944  12.080   4.891
97852SOL     OW95388   6.968   4.067  13.411
97852SOL    HW195389   7.011   4.004  13.354
97852SOL    HW295390   7.017   4.148  13.398
97853SOL     OW95391  12.187   9.652  10.796
97853SOL    HW195392  12.145   9.729  10.756
97853SOL    HW295393  12.257   9.629  10.735
97854SOL     OW95394   0.137  14.716   0.116
97854SOL    HW195395   0.100  14.663   0.045
97854SOL    HW295396   0.111  14.669   0.196
97855SOL     OW95397   6.114  11.766  12.776
97855SOL    HW195398   6.152  11.803  12.697
97855SOL    HW295399   6.185  11.716  12.816
97856SOL     OW95400  13.637   4.516  11.440
97856SOL    HW195401  13.638   4.455  11.367
97856SOL    HW295402  13.612   4.600  11.401
97857SOL     OW95403   6.169  11.516   6.753
97857SOL    HW195404   6.090  11.566   6.734
97857SOL    HW295405   6.241  11.576   6.735
97858SOL     OW95406   4.578   4.435   8.494
97858SOL    HW195407   4.627   4.515   8.478
97858SOL    HW295408   4.610   4.373   8.428
97859SOL     OW95409   4.193  11.135   3.831
97859SOL    HW195410   4.117  11.128   3.888
97859SOL    HW295411   4.171  11.206   3.770
97860SOL     OW95412  14.033   2.923  14.224
97860SOL    HW195413  14.068   3.002  14.266
97860SOL    HW295414  14.091   2.853  14.253
97861SOL     OW95415   9.657   2.933   9.201
97861SOL    HW195416   9.702   2.868   9.255
97861SOL    HW295417   9.565   2.909   9.205
97862SOL     OW95418  11.124   2.822   6.492
97862SOL    HW195419  11.151   2.795   6.580
97862SOL    HW295420  11.194   2.880   6.462
97863SOL     OW95421   4.670   1.607   6.936
97863SOL    HW195422   4.731   1.554   6.884
97863SOL    HW295423   4.635   1.670   6.875
97864SOL     OW95424   9.591   8.634   6.995
97864SOL    HW195425   9.535   8.710   6.980
97864SOL    HW295426   9.532   8.559   6.988
97865SOL     OW95427  10.303   1.062  12.889
97865SOL    HW195428  10.263   1.039  12.973
97865SOL    HW295429  10.233   1.049  12.825
97866SOL     OW95430   9.138  14.295   5.232
97866SOL    HW195431   9.086  14.217   5.216
97866SOL    HW295432   9.213  14.287   5.173
97867SOL     OW95433  10.062   1.601  14.281
97867SOL    HW195434  10.094   1.642  14.361
97867SOL    HW295435   9.994   1.659  14.249
97868SOL     OW95436  10.460   9.939   3.708
97868SOL    HW195437  10.455   9.933   3.613
97868SOL    HW295438  10.504   9.859   3.735
97869SOL     OW95439   0.856   0.267   9.978
97869SOL    HW195440   0.874   0.174   9.964
97869SOL    HW295441   0.776   0.268  10.032
97870SOL     OW95442   7.295   6.891   6.954
97870SOL    HW195443   7.309   6.814   6.899
97870SOL    HW295444   7.250   6.954   6.897
97871SOL     OW95445   9.465  13.663   5.406
97871SOL    HW195446   9.530  13.687   5.340
97871SOL    HW295447   9.419  13.588   5.368
97872SOL     OW95448   8.845   1.536   2.876
97872SOL    HW195449   8.795   1.560   2.797
97872SOL    HW295450   8.930   1.578   2.864
97873SOL     OW95451  11.973   0.191  10.920
97873SOL    HW195452  11.949   0.172  10.829
97873SOL    HW295453  11.890   0.210  10.963
97874SOL     OW95454   8.843   5.953  10.654
97874SOL    HW195455   8.881   5.878  10.610
97874SOL    HW295456   8.749   5.941  10.646
97875SOL     OW95457   4.952   0.959   6.185
97875SOL    HW195458   4.997   0.943   6.268
97875SOL    HW295459   4.947   0.872   6.144
97876SOL     OW95460  10.073  10.713   7.547
97876SOL    HW195461  10.122  10.794   7.560
97876SOL    HW295462  10.119  10.668   7.476
97877SOL     OW95463   3.575  11.762   2.239
97877SOL    HW195464   3.516  11.750   2.165
97877SOL    HW295465   3.623  11.679   2.246
97878SOL     OW95466   3.811   0.415  13.546
97878SOL    HW195467   3.744   0.476  13.578
97878SOL    HW295468   3.764   0.358  13.485
97879SOL     OW95469   8.571   7.649   6.805
97879SOL    HW195470   8.578   7.591   6.881
97879SOL    HW295471   8.625   7.608   6.738
97880SOL     OW95472   8.131  12.034   7.515
97880SOL    HW195473   8.135  12.126   7.492
97880SOL    HW295474   8.090  11.992   7.440
97881SOL     OW95475   7.556   8.807   2.407
97881SOL    HW195476   7.641   8.839   2.376
97881SOL    HW295477   7.503   8.886   2.416
97882SOL     OW95478   8.340   2.734   1.150
97882SOL    HW195479   8.279   2.689   1.092
97882SOL    HW295480   8.396   2.664   1.184
97883SOL     OW95481   7.216   1.594  10.125
97883SOL    HW195482   7.233   1.509  10.086
97883SOL    HW295483   7.268   1.595  10.206
97884SOL     OW95484   2.046   0.988  14.760
97884SOL    HW195485   1.964   0.993  14.712
97884SOL    HW295486   2.052   0.897  14.789
97885SOL     OW95487   4.527   0.181  13.479
97885SOL    HW195488   4.553   0.264  13.517
97885SOL    HW295489   4.445   0.200  13.433
97886SOL     OW95490  11.417   1.562  12.898
97886SOL    HW195491  11.430   1.478  12.855
97886SOL    HW295492  11.406   1.540  12.991
97887SOL     OW95493   9.374   2.217   5.386
97887SOL    HW195494   9.442   2.215   5.318
97887SOL    HW295495   9.327   2.134   5.374
97888SOL     OW95496   0.719   5.513   9.956
97888SOL    HW195497   0.729   5.484   9.865
97888SOL    HW295498   0.625   5.517   9.969
97889SOL     OW95499  12.989   1.946   2.740
97889SOL    HW195500  13.004   2.038   2.719
97889SOL    HW295501  12.909   1.924   2.692
97890SOL     OW95502  14.640   9.899   0.323
97890SOL    HW195503  14.673   9.988   0.332
97890SOL    HW295504  14.584   9.888   0.400
97891SOL     OW95505   8.341   3.802   1.784
97891SOL    HW195506   8.295   3.857   1.847
97891SOL    HW295507   8.365   3.724   1.835
97892SOL     OW95508   6.557  12.748   0.084
97892SOL    HW195509   6.575  12.830   0.038
97892SOL    HW295510   6.558  12.681   0.016
97893SOL     OW95511   3.926   3.575  14.069
97893SOL    HW195512   3.946   3.517  13.995
97893SOL    HW295513   3.886   3.518  14.134
97894SOL     OW95514  14.382   0.989  13.063
97894SOL    HW195515  14.335   1.056  13.113
97894SOL    HW295516  14.408   1.033  12.983
97895SOL     OW95517  13.714  12.535  12.712
97895SOL    HW195518  13.742  12.446  12.733
97895SOL    HW295519  13.793  12.580  12.684
97896SOL     OW95520   6.413  10.447   4.790
97896SOL    HW195521   6.386  10.523   4.841
97896SOL    HW295522   6.434  10.381   4.855
97897SOL     OW95523   1.945   8.698  14.017
97897SOL    HW195524   2.009   8.746  14.070
97897SOL    HW295525   1.998   8.635  13.968
97898SOL     OW95526  11.783   0.519   4.498
97898SOL    HW195527  11.722   0.558   4.435
97898SOL    HW295528  11.733   0.448   4.539
97899SOL     OW95529  11.660   5.444   3.113
97899SOL    HW195530  11.709   5.526   3.106
97899SOL    HW295531  11.680   5.397   3.032
97900SOL     OW95532   5.564  14.096  13.495
97900SOL    HW195533   5.527  14.023  13.445
97900SOL    HW295534   5.493  14.126  13.550
97901SOL     OW95535  12.745   2.370   5.087
97901SOL    HW195536  12.771   2.278   5.096
97901SOL    HW295537  12.651   2.369   5.105
97902SOL     OW95538  11.978   4.948   5.632
97902SOL    HW195539  12.027   4.893   5.693
97902SOL    HW295540  12.019   5.034   5.641
97903SOL     OW95541   5.880  12.371   8.980
97903SOL    HW195542   5.835  12.429   9.041
97903SOL    HW295543   5.973  12.379   9.004
97904SOL     OW95544   0.298   4.722  14.581
97904SOL    HW195545   0.349   4.788  14.534
97904SOL    HW295546   0.343   4.640  14.562
97905SOL     OW95547   6.655  10.269   2.095
97905SOL    HW195548   6.666  10.356   2.133
97905SOL    HW295549   6.593  10.282   2.023
97906SOL     OW95550  11.336  11.892   5.822
97906SOL    HW195551  11.289  11.809   5.810
97906SOL    HW295552  11.426  11.866   5.840
97907SOL     OW95553   6.472   6.116   6.133
97907SOL    HW195554   6.499   6.025   6.115
97907SOL    HW295555   6.521   6.168   6.069
97908SOL     OW95556   3.967   7.824   8.027
97908SOL    HW195557   4.031   7.878   7.981
97908SOL    HW295558   3.924   7.774   7.957
97909SOL     OW95559   1.074   2.935  14.496
97909SOL    HW195560   1.024   3.013  14.473
97909SOL    HW295561   1.013   2.881  14.545
97910SOL     OW95562   9.305  14.080   3.073
97910SOL    HW195563   9.326  14.145   3.006
97910SOL    HW295564   9.228  14.115   3.118
97911SOL     OW95565   3.091   3.125   4.376
97911SOL    HW195566   3.061   3.213   4.401
97911SOL    HW295567   3.087   3.125   4.280
97912SOL     OW95568  10.932   8.762  11.535
97912SOL    HW195569  10.945   8.760  11.630
97912SOL    HW295570  10.972   8.845  11.508
97913SOL     OW95571  13.876   5.386   4.868
97913SOL    HW195572  13.782   5.376   4.858
97913SOL    HW295573  13.887   5.427   4.954
97914SOL     OW95574   9.664   3.469   8.539
97914SOL    HW195575   9.751   3.438   8.516
97914SOL    HW295576   9.607   3.435   8.469
97915SOL     OW95577   8.951   0.678  10.926
97915SOL    HW195578   8.989   0.668  11.013
97915SOL    HW295579   8.857   0.693  10.943
97916SOL     OW95580   4.580   7.904   8.081
97916SOL    HW195581   4.671   7.923   8.060
97916SOL    HW295582   4.561   7.822   8.033
97917SOL     OW95583   5.759  11.021   1.862
97917SOL    HW195584   5.774  10.993   1.771
97917SOL    HW295585   5.714  11.105   1.854
97918SOL     OW95586  11.630  11.016   1.688
97918SOL    HW195587  11.673  11.070   1.754
97918SOL    HW295588  11.700  10.986   1.631
97919SOL     OW95589  10.631  12.944   4.471
97919SOL    HW195590  10.592  13.031   4.479
97919SOL    HW295591  10.564  12.893   4.425
97920SOL     OW95592   1.636   9.480   8.539
97920SOL    HW195593   1.660   9.526   8.458
97920SOL    HW295594   1.561   9.427   8.515
97921SOL     OW95595  13.158   3.657  12.754
97921SOL    HW195596  13.186   3.576  12.797
97921SOL    HW295597  13.067   3.641  12.730
97922SOL     OW95598   7.116   1.030   9.228
97922SOL    HW195599   7.190   1.044   9.287
97922SOL    HW295600   7.039   1.030   9.286
97923SOL     OW95601   0.597   7.001  13.445
97923SOL    HW195602   0.562   6.919  13.413
97923SOL    HW295603   0.688   7.002  13.414
97924SOL     OW95604  10.500  11.004   7.828
97924SOL    HW195605  10.494  10.921   7.875
97924SOL    HW295606  10.529  11.066   7.894
97925SOL     OW95607   6.121   0.738   7.738
97925SOL    HW195608   6.092   0.745   7.829
97925SOL    HW295609   6.130   0.644   7.722
97926SOL     OW95610   2.925  11.537   7.124
97926SOL    HW195611   3.003  11.554   7.072
97926SOL    HW295612   2.867  11.611   7.104
97927SOL     OW95613  10.752  10.940   4.966
97927SOL    HW195614  10.756  11.001   5.040
97927SOL    HW295615  10.818  10.972   4.905
97928SOL     OW95616  12.957   5.241   0.648
97928SOL    HW195617  12.997   5.171   0.596
97928SOL    HW295618  12.969   5.213   0.739
97929SOL     OW95619   4.663   0.688   0.716
97929SOL    HW195620   4.623   0.624   0.657
97929SOL    HW295621   4.751   0.702   0.680
97930SOL     OW95622  13.486   7.034  10.564
97930SOL    HW195623  13.524   7.049  10.477
97930SOL    HW295624  13.484   6.939  10.574
97931SOL     OW95625   7.054   5.579   2.034
97931SOL    HW195626   7.043   5.604   2.126
97931SOL    HW295627   6.984   5.516   2.018
97932SOL     OW95628   4.262  10.941  13.912
97932SOL    HW195629   4.237  11.029  13.883
97932SOL    HW295630   4.240  10.939  14.005
97933SOL     OW95631   4.190   4.677   9.937
97933SOL    HW195632   4.115   4.628   9.903
97933SOL    HW295633   4.215   4.736   9.866
97934SOL     OW95634  14.633   7.634  13.037
97934SOL    HW195635  14.563   7.588  12.991
97934SOL    HW295636  14.646   7.585  13.118
97935SOL     OW95637  11.545  14.099   8.560
97935SOL    HW195638  11.608  14.150   8.510
97935SOL    HW295639  11.473  14.159   8.576
97936SOL     OW95640   4.149  11.688   5.956
97936SOL    HW195641   4.127  11.781   5.962
97936SOL    HW295642   4.201  11.681   5.875
97937SOL     OW95643   4.950  13.749  10.258
97937SOL    HW195644   4.868  13.792  10.283
97937SOL    HW295645   4.930  13.708  10.173
97938SOL     OW95646   7.759   7.328   7.558
97938SOL    HW195647   7.744   7.421   7.572
97938SOL    HW295648   7.701   7.284   7.620
97939SOL     OW95649   4.551  10.944   8.495
97939SOL    HW195650   4.532  11.037   8.512
97939SOL    HW295651   4.465  10.904   8.487
97940SOL     OW95652   6.348   1.903   3.232
97940SOL    HW195653   6.404   1.887   3.308
97940SOL    HW295654   6.351   1.998   3.220
97941SOL     OW95655   1.035   5.016  12.584
97941SOL    HW195656   1.109   4.982  12.633
97941SOL    HW295657   0.990   4.939  12.550
97942SOL     OW95658   9.436   5.952   6.924
97942SOL    HW195659   9.418   6.034   6.971
97942SOL    HW295660   9.513   5.971   6.871
97943SOL     OW95661  12.907  10.678   7.304
97943SOL    HW195662  12.830  10.731   7.283
97943SOL    HW295663  12.890  10.646   7.392
97944SOL     OW95664   4.622   3.085   4.612
97944SOL    HW195665   4.668   3.159   4.573
97944SOL    HW295666   4.587   3.037   4.537
97945SOL     OW95667   0.048  14.394  12.314
97945SOL    HW195668   0.081  14.472  12.270
97945SOL    HW295669  14.850  14.363  12.258
97946SOL     OW95670   9.040  11.423   4.599
97946SOL    HW195671   9.046  11.495   4.662
97946SOL    HW295672   9.129  11.391   4.590
97947SOL     OW95673  14.728   0.444   9.509
97947SOL    HW195674  14.643   0.467   9.472
97947SOL    HW295675  14.791   0.488   9.453
97948SOL     OW95676   2.390   6.459   3.423
97948SOL    HW195677   2.306   6.416   3.407
97948SOL    HW295678   2.411   6.440   3.514
97949SOL     OW95679   0.762   8.659   8.133
97949SOL    HW195680   0.746   8.682   8.224
97949SOL    HW295681   0.857   8.665   8.123
97950SOL     OW95682   9.514  13.371  10.397
97950SOL    HW195683   9.559  13.411  10.471
97950SOL    HW295684   9.564  13.292  10.377
97951SOL     OW95685  14.479   2.103   0.803
97951SOL    HW195686  14.466   2.108   0.709
97951SOL    HW295687  14.438   2.021   0.829
97952SOL     OW95688  13.232   4.876  13.143
97952SOL    HW195689  13.151   4.838  13.108
97952SOL    HW295690  13.273   4.804  13.191
97953SOL     OW95691   4.567   1.950  13.396
97953SOL    HW195692   4.542   2.007  13.324
97953SOL    HW295693   4.662   1.943  13.390
97954SOL     OW95694   8.802   4.736   5.405
97954SOL    HW195695   8.859   4.659   5.403
97954SOL    HW295696   8.720   4.704   5.443
97955SOL     OW95697   5.304   6.491  12.025
97955SOL    HW195698   5.218   6.449  12.024
97955SOL    HW295699   5.338   6.473  12.113
97956SOL     OW95700  14.439  11.675   9.072
97956SOL    HW195701  14.431  11.586   9.038
97956SOL    HW295702  14.380  11.727   9.016
97957SOL     OW95703   0.815   0.773   4.593
97957SOL    HW195704   0.832   0.715   4.667
97957SOL    HW295705   0.890   0.832   4.591
97958SOL     OW95706  11.494   3.901   2.988
97958SOL    HW195707  11.552   3.977   2.983
97958SOL    HW295708  11.418   3.925   2.935
97959SOL     OW95709   4.963   1.458   8.067
97959SOL    HW195710   4.992   1.407   7.991
97959SOL    HW295711   5.026   1.529   8.074
97960SOL     OW95712   4.230   9.902  14.330
97960SOL    HW195713   4.224   9.913  14.235
97960SOL    HW295714   4.166   9.963  14.366
97961SOL     OW95715   3.810   5.050   5.597
97961SOL    HW195716   3.891   5.094   5.573
97961SOL    HW295717   3.743   5.118   5.593
97962SOL     OW95718  14.298  12.722   4.559
97962SOL    HW195719  14.243  12.800   4.554
97962SOL    HW295720  14.370  12.739   4.498
97963SOL     OW95721   4.284  14.481   7.295
97963SOL    HW195722   4.320  14.417   7.234
97963SOL    HW295723   4.329  14.463   7.378
97964SOL     OW95724   5.089   9.201   7.819
97964SOL    HW195725   5.080   9.169   7.909
97964SOL    HW295726   5.004   9.182   7.779
97965SOL     OW95727  13.830   3.374   5.306
97965SOL    HW195728  13.844   3.410   5.218
97965SOL    HW295729  13.768   3.433   5.348
97966SOL     OW95730   4.261   4.532  13.703
97966SOL    HW195731   4.188   4.594  13.700
97966SOL    HW295732   4.247   4.481  13.783
97967SOL     OW95733   6.668  13.930   6.537
97967SOL    HW195734   6.681  14.022   6.558
97967SOL    HW295735   6.756  13.895   6.524
97968SOL     OW95736  14.389   3.898  12.693
97968SOL    HW195737  14.336   3.855  12.759
97968SOL    HW295738  14.325   3.942  12.636
97969SOL     OW95739  11.147  10.156   0.410
97969SOL    HW195740  11.073  10.149   0.471
97969SOL    HW295741  11.138  10.080   0.353
97970SOL     OW95742   6.990   4.998   5.779
97970SOL    HW195743   6.930   5.017   5.851
97970SOL    HW295744   7.061   5.061   5.788
97971SOL     OW95745   0.022  11.200  11.000
97971SOL    HW195746   0.092  11.158  10.949
97971SOL    HW295747   0.068  11.263  11.055
97972SOL     OW95748  10.787   3.796   7.602
97972SOL    HW195749  10.776   3.766   7.693
97972SOL    HW295750  10.863   3.853   7.605
97973SOL     OW95751   0.738  13.326   8.196
97973SOL    HW195752   0.796  13.315   8.271
97973SOL    HW295753   0.726  13.238   8.162
97974SOL     OW95754   3.765   7.937   5.330
97974SOL    HW195755   3.733   7.943   5.420
97974SOL    HW295756   3.797   7.848   5.321
97975SOL     OW95757   6.651  12.854   5.990
97975SOL    HW195758   6.672  12.819   5.903
97975SOL    HW295759   6.658  12.949   5.980
97976SOL     OW95760   5.853   0.539  11.313
97976SOL    HW195761   5.835   0.445  11.313
97976SOL    HW295762   5.770   0.580  11.333
97977SOL     OW95763   3.561  10.959   1.649
97977SOL    HW195764   3.494  11.007   1.698
97977SOL    HW295765   3.596  10.896   1.712
97978SOL     OW95766   6.923  12.761   6.821
97978SOL    HW195767   6.930  12.825   6.892
97978SOL    HW295768   6.966  12.682   6.855
97979SOL     OW95769  13.509   6.970   0.081
97979SOL    HW195770  13.572   6.898   0.081
97979SOL    HW295771  13.496   6.991   0.173
97980SOL     OW95772  12.715   3.062  13.988
97980SOL    HW195773  12.794   3.039  13.938
97980SOL    HW295774  12.651   3.087  13.921
97981SOL     OW95775   7.490  11.421   9.883
97981SOL    HW195776   7.449  11.475   9.950
97981SOL    HW295777   7.465  11.463   9.800
97982SOL     OW95778   7.764  10.855   8.567
97982SOL    HW195779   7.737  10.791   8.502
97982SOL    HW295780   7.693  10.919   8.568
97983SOL     OW95781  13.530   2.739   3.714
97983SOL    HW195782  13.515   2.818   3.662
97983SOL    HW295783  13.458   2.681   3.691
97984SOL     OW95784  13.767   1.717  14.668
97984SOL    HW195785  13.700   1.702  14.602
97984SOL    HW295786  13.720   1.762  14.739
97985SOL     OW95787   4.226  14.047   5.153
97985SOL    HW195788   4.289  14.017   5.088
97985SOL    HW295789   4.272  14.118   5.199
97986SOL     OW95790  12.695  14.447   8.156
97986SOL    HW195791  12.725  14.357   8.143
97986SOL    HW295792  12.611  14.451   8.109
97987SOL     OW95793   5.620   2.686  12.090
97987SOL    HW195794   5.528   2.711  12.089
97987SOL    HW295795   5.624   2.610  12.148
97988SOL     OW95796   7.612   5.405  12.642
97988SOL    HW195797   7.675   5.439  12.705
97988SOL    HW295798   7.665   5.366  12.573
97989SOL     OW95799  12.151   8.008  14.056
97989SOL    HW195800  12.067   8.031  14.018
97989SOL    HW295801  12.204   7.979  13.982
97990SOL     OW95802  12.281  12.589   0.704
97990SOL    HW195803  12.332  12.512   0.729
97990SOL    HW295804  12.344  12.661   0.708
97991SOL     OW95805  13.224   0.860   4.409
97991SOL    HW195806  13.225   0.767   4.428
97991SOL    HW295807  13.288   0.898   4.470
97992SOL     OW95808   9.500   0.546  14.629
97992SOL    HW195809   9.591   0.560  14.655
97992SOL    HW295810   9.490   0.598  14.549
97993SOL     OW95811   2.407   3.746   9.196
97993SOL    HW195812   2.453   3.697   9.263
97993SOL    HW295813   2.323   3.700   9.186
97994SOL     OW95814   8.631   1.858   4.067
97994SOL    HW195815   8.722   1.834   4.047
97994SOL    HW295816   8.581   1.779   4.046
97995SOL     OW95817  10.514   5.192  13.718
97995SOL    HW195818  10.450   5.137  13.763
97995SOL    HW295819  10.510   5.163  13.627
97996SOL     OW95820  12.159   2.055   7.033
97996SOL    HW195821  12.112   2.123   6.984
97996SOL    HW295822  12.244   2.047   6.990
97997SOL     OW95823   4.954   5.167   0.076
97997SOL    HW195824   4.959   5.170  14.853
97997SOL    HW295825   4.924   5.255   0.101
97998SOL     OW95826   8.691   4.715   4.104
97998SOL    HW195827   8.776   4.700   4.145
97998SOL    HW295828   8.650   4.629   4.100
97999SOL     OW95829   6.664  13.714   3.450
97999SOL    HW195830   6.703  13.791   3.409
97999SOL    HW295831   6.739  13.658   3.473
98000SOL     OW95832   0.905   5.807   8.359
98000SOL    HW195833   0.891   5.739   8.292
98000SOL    HW295834   0.822   5.811   8.406
98001SOL     OW95835  14.481   3.246  11.184
98001SOL    HW195836  14.410   3.214  11.239
98001SOL    HW295837  14.438   3.294  11.113
98002SOL     OW95838   9.375  13.247   8.604
98002SOL    HW195839   9.284  13.253   8.575
98002SOL    HW295840   9.390  13.326   8.655
98003SOL     OW95841  11.835  10.239   7.852
98003SOL    HW195842  11.909  10.198   7.897
98003SOL    HW295843  11.762  10.179   7.866
98004SOL     OW95844   9.600   4.737   7.837
98004SOL    HW195845   9.658   4.758   7.910
98004SOL    HW295846   9.631   4.794   7.766
98005SOL     OW95847   4.252   6.987  14.255
98005SOL    HW195848   4.313   7.015  14.186
98005SOL    HW295849   4.170   6.969  14.209
98006SOL     OW95850  10.486  12.746   4.792
98006SOL    HW195851  10.497  12.738   4.887
98006SOL    HW295852  10.448  12.662   4.766
98007SOL     OW95853  13.324  10.600  12.914
98007SOL    HW195854  13.355  10.576  13.001
98007SOL    HW295855  13.284  10.521  12.879
98008SOL     OW95856  14.176   4.640   2.807
98008SOL    HW195857  14.233   4.716   2.820
98008SOL    HW295858  14.208   4.599   2.727
98009SOL     OW95859   4.273   9.948  10.095
98009SOL    HW195860   4.265   9.988  10.182
98009SOL    HW295861   4.358   9.978  10.062
98010SOL     OW95862   4.406   4.648   5.520
98010SOL    HW195863   4.377   4.736   5.497
98010SOL    HW295864   4.419   4.651   5.615
98011SOL     OW95865   2.031   9.051   8.949
98011SOL    HW195866   2.042   9.138   8.909
98011SOL    HW295867   1.964   9.009   8.895
98012SOL     OW95868   9.594   2.344   0.199
98012SOL    HW195869   9.505   2.379   0.208
98012SOL    HW295870   9.646   2.394   0.262
98013SOL     OW95871   5.053   6.186   3.868
98013SOL    HW195872   4.993   6.259   3.880
98013SOL    HW295873   5.139   6.223   3.888
98014SOL     OW95874  14.855  13.887   8.406
98014SOL    HW195875   0.008  13.801   8.374
98014SOL    HW295876  14.809  13.928   8.333
98015SOL     OW95877   9.674  14.537   8.105
98015SOL    HW195878   9.719  14.622   8.105
98015SOL    HW295879   9.586  14.557   8.071
98016SOL     OW95880   4.035   3.554   9.113
98016SOL    HW195881   4.004   3.509   9.192
98016SOL    HW295882   4.130   3.548   9.118
98017SOL     OW95883   4.864   8.698   2.906
98017SOL    HW195884   4.788   8.746   2.874
98017SOL    HW295885   4.939   8.746   2.871
98018SOL     OW95886   7.573  11.403   7.340
98018SOL    HW195887   7.549  11.487   7.302
98018SOL    HW295888   7.664  11.390   7.314
98019SOL     OW95889   6.689   2.217   8.217
98019SOL    HW195890   6.715   2.248   8.130
98019SOL    HW295891   6.706   2.122   8.214
98020SOL     OW95892  13.668   3.636  14.165
98020SOL    HW195893  13.576   3.622  14.144
98020SOL    HW295894  13.668   3.716  14.218
98021SOL     OW95895   1.189   3.690  10.465
98021SOL    HW195896   1.224   3.777  10.484
98021SOL    HW295897   1.237   3.662  10.386
98022SOL     OW95898   4.058  13.145   7.558
98022SOL    HW195899   4.079  13.238   7.559
98022SOL    HW295900   3.997  13.132   7.630
98023SOL     OW95901   0.875   1.434  13.278
98023SOL    HW195902   0.846   1.521  13.303
98023SOL    HW295903   0.884   1.387  13.361
98024SOL     OW95904   7.306   9.610   0.968
98024SOL    HW195905   7.305   9.621   1.064
98024SOL    HW295906   7.230   9.555   0.949
98025SOL     OW95907   5.585  10.048   3.310
98025SOL    HW195908   5.530  10.111   3.357
98025SOL    HW295909   5.532  10.020   3.236
98026SOL     OW95910  13.964   9.665   2.795
98026SOL    HW195911  13.980   9.570   2.797
98026SOL    HW295912  13.879   9.675   2.838
98027SOL     OW95913  14.494   1.080   8.616
98027SOL    HW195914  14.483   1.090   8.711
98027SOL    HW295915  14.425   1.135   8.578
98028SOL     OW95916   4.138   3.350   8.690
98028SOL    HW195917   4.058   3.304   8.716
98028SOL    HW295918   4.146   3.332   8.596
98029SOL     OW95919   7.691  10.962   0.615
98029SOL    HW195920   7.668  10.871   0.634
98029SOL    HW295921   7.688  11.006   0.700
98030SOL     OW95922  11.277   6.620  12.094
98030SOL    HW195923  11.191   6.579  12.094
98030SOL    HW295924  11.260   6.713  12.110
98031SOL     OW95925   7.386  11.844   2.340
98031SOL    HW195926   7.376  11.898   2.262
98031SOL    HW295927   7.438  11.769   2.311
98032SOL     OW95928   5.838   4.192   5.401
98032SOL    HW195929   5.843   4.097   5.388
98032SOL    HW295930   5.928   4.219   5.419
98033SOL     OW95931  14.498   6.791  12.390
98033SOL    HW195932  14.513   6.859  12.324
98033SOL    HW295933  14.455   6.837  12.462
98034SOL     OW95934  11.634   6.744  12.838
98034SOL    HW195935  11.647   6.649  12.845
98034SOL    HW295936  11.584   6.755  12.757
98035SOL     OW95937   8.354   3.747  10.763
98035SOL    HW195938   8.429   3.708  10.718
98035SOL    HW295939   8.308   3.673  10.802
98036SOL     OW95940   1.757   7.380   9.606
98036SOL    HW195941   1.663   7.399   9.603
98036SOL    HW295942   1.762   7.287   9.626
98037SOL     OW95943   4.467   0.789   7.991
98037SOL    HW195944   4.546   0.781   8.045
98037SOL    HW295945   4.451   0.700   7.959
98038SOL     OW95946  11.638   4.083   9.092
98038SOL    HW195947  11.730   4.059   9.082
98038SOL    HW295948  11.613   4.044   9.176
98039SOL     OW95949   4.147   8.872  11.877
98039SOL    HW195950   4.168   8.961  11.905
98039SOL    HW295951   4.226   8.840  11.835
98040SOL     OW95952   7.841  10.981  14.179
98040SOL    HW195953   7.854  10.901  14.127
98040SOL    HW295954   7.761  11.020  14.143
98041SOL     OW95955   3.040   2.206  13.404
98041SOL    HW195956   2.954   2.172  13.429
98041SOL    HW295957   3.068   2.257  13.480
98042SOL     OW95958   5.147  12.478  12.004
98042SOL    HW195959   5.150  12.494  11.910
98042SOL    HW295960   5.234  12.443  12.024
98043SOL     OW95961   2.481  13.640   4.894
98043SOL    HW195962   2.503  13.561   4.844
98043SOL    HW295963   2.468  13.608   4.983
98044SOL     OW95964   1.974   8.936   9.254
98044SOL    HW195965   1.904   8.875   9.278
98044SOL    HW295966   1.949   8.966   9.166
98045SOL     OW95967  14.275  14.327   3.030
98045SOL    HW195968  14.321  14.301   2.950
98045SOL    HW295969  14.182  14.324   3.006
98046SOL     OW95970  12.031   1.841   1.524
98046SOL    HW195971  12.108   1.874   1.478
98046SOL    HW295972  12.035   1.746   1.514
98047SOL     OW95973   3.100   9.870   2.537
98047SOL    HW195974   3.067   9.940   2.481
98047SOL    HW295975   3.169   9.910   2.589
98048SOL     OW95976  10.585   2.275   2.343
98048SOL    HW195977  10.568   2.366   2.321
98048SOL    HW295978  10.578   2.271   2.438
98049SOL     OW95979  12.550   9.784  14.503
98049SOL    HW195980  12.497   9.859  14.475
98049SOL    HW295981  12.640   9.808  14.481
98050SOL     OW95982   4.129   4.076   5.877
98050SOL    HW195983   4.219   4.106   5.866
98050SOL    HW295984   4.079   4.156   5.891
98051SOL     OW95985  10.615   9.201   1.891
98051SOL    HW195986  10.696   9.246   1.866
98051SOL    HW295987  10.643   9.124   1.940
98052SOL     OW95988  11.652  11.810  10.746
98052SOL    HW195989  11.580  11.774  10.799
98052SOL    HW295990  11.632  11.781  10.657
98053SOL     OW95991   7.147   4.156  11.393
98053SOL    HW195992   7.207   4.225  11.421
98053SOL    HW295993   7.115   4.118  11.475
98054SOL     OW95994   1.152   0.388   5.248
98054SOL    HW195995   1.100   0.368   5.327
98054SOL    HW295996   1.139   0.481   5.234
98055SOL     OW95997   4.331  12.003   8.317
98055SOL    HW195998   4.335  12.023   8.224
98055SOL    HW295999   4.260  11.939   8.325
98056SOL     OW96000  13.990   1.208  13.594
98056SOL    HW196001  13.920   1.148  13.565
98056SOL    HW296002  13.958   1.244  13.677
98057SOL     OW96003   3.799   0.508   0.464
98057SOL    HW196004   3.716   0.467   0.438
98057SOL    HW296005   3.787   0.529   0.556
98058SOL     OW96006   1.978  10.187   9.044
98058SOL    HW196007   1.995  10.139   8.963
98058SOL    HW296008   2.059  10.178   9.094
98059SOL     OW96009  10.711   7.422   3.117
98059SOL    HW196010  10.731   7.515   3.100
98059SOL    HW296011  10.749   7.376   3.041
98060SOL     OW96012   9.704   9.927  10.317
98060SOL    HW196013   9.771   9.868  10.285
98060SOL    HW296014   9.636   9.870  10.353
98061SOL     OW96015   8.461   6.751   1.714
98061SOL    HW196016   8.508   6.832   1.736
98061SOL    HW296017   8.465   6.698   1.793
98062SOL     OW96018   7.637  12.933   8.990
98062SOL    HW196019   7.649  12.935   8.895
98062SOL    HW296020   7.703  12.871   9.021
98063SOL     OW96021   2.291   6.159   0.884
98063SOL    HW196022   2.295   6.183   0.791
98063SOL    HW296023   2.208   6.197   0.915
98064SOL     OW96024   4.119   8.071   4.359
98064SOL    HW196025   4.156   7.985   4.382
98064SOL    HW296026   4.042   8.079   4.416
98065SOL     OW96027  12.010  11.261   3.770
98065SOL    HW196028  11.945  11.330   3.770
98065SOL    HW296029  11.974  11.193   3.826
98066SOL     OW96030   8.307  10.814  11.094
98066SOL    HW196031   8.285  10.896  11.139
98066SOL    HW296032   8.271  10.745  11.150
98067SOL     OW96033  12.529   0.824   3.475
98067SOL    HW196034  12.551   0.857   3.388
98067SOL    HW296035  12.606   0.775   3.503
98068SOL     OW96036   9.252   3.037  12.999
98068SOL    HW196037   9.207   3.019  12.916
98068SOL    HW296038   9.214   2.973  13.061
98069SOL     OW96039   2.417   8.501   2.467
98069SOL    HW196040   2.346   8.457   2.513
98069SOL    HW296041   2.380   8.524   2.382
98070SOL     OW96042  13.678   5.180  11.691
98070SOL    HW196043  13.699   5.088  11.709
98070SOL    HW296044  13.582   5.181  11.681
98071SOL     OW96045  10.832   9.825   1.875
98071SOL    HW196046  10.750   9.799   1.833
98071SOL    HW296047  10.896   9.761   1.844
98072SOL     OW96048   9.390   8.092   9.052
98072SOL    HW196049   9.467   8.115   9.000
98072SOL    HW296050   9.425   8.074   9.140
98073SOL     OW96051   6.273   5.173   7.180
98073SOL    HW196052   6.259   5.092   7.229
98073SOL    HW296053   6.368   5.175   7.164
98074SOL     OW96054   6.006   6.572   5.164
98074SOL    HW196055   6.090   6.615   5.150
98074SOL    HW296056   6.025   6.504   5.229
98075SOL     OW96057   7.733   6.874  11.928
98075SOL    HW196058   7.638   6.886  11.920
98075SOL    HW296059   7.765   6.960  11.957
98076SOL     OW96060   1.766  13.860  10.203
98076SOL    HW196061   1.768  13.953  10.226
98076SOL    HW296062   1.729  13.858  10.114
98077SOL     OW96063  12.047   9.219   2.381
98077SOL    HW196064  12.113   9.181   2.323
98077SOL    HW296065  12.071   9.312   2.386
98078SOL     OW96066  13.666   8.856   9.343
98078SOL    HW196067  13.702   8.905   9.269
98078SOL    HW296068  13.726   8.782   9.355
98079SOL     OW96069   5.591   2.853   4.278
98079SOL    HW196070   5.496   2.864   4.282
98079SOL    HW296071   5.603   2.762   4.251
98080SOL     OW96072   7.132  10.039   9.927
98080SOL    HW196073   7.200  10.106   9.919
98080SOL    HW296074   7.052  10.087   9.947
98081SOL     OW96075  11.976   5.014   0.086
98081SOL    HW196076  11.972   4.996   0.180
98081SOL    HW296077  11.963   4.929   0.045
98082SOL     OW96078   9.549   6.437   9.520
98082SOL    HW196079   9.490   6.364   9.501
98082SOL    HW296080   9.634   6.409   9.485
98083SOL     OW96081   1.635   5.134   9.058
98083SOL    HW196082   1.705   5.075   9.030
98083SOL    HW296083   1.612   5.182   8.979
98084SOL     OW96084  14.737  14.419  10.856
98084SOL    HW196085  14.660  14.372  10.888
98084SOL    HW296086  14.793  14.351  10.820
98085SOL     OW96087   1.223   8.910   3.629
98085SOL    HW196088   1.243   8.921   3.536
98085SOL    HW296089   1.196   8.997   3.658
98086SOL     OW96090   6.212   4.123  14.356
98086SOL    HW196091   6.138   4.116  14.295
98086SOL    HW296092   6.172   4.147  14.439
98087SOL     OW96093   5.395   3.190   0.833
98087SOL    HW196094   5.360   3.278   0.850
98087SOL    HW296095   5.327   3.131   0.865
98088SOL     OW96096   7.241   6.517   5.696
98088SOL    HW196097   7.249   6.582   5.626
98088SOL    HW296098   7.152   6.483   5.687
98089SOL     OW96099   2.262   6.230   3.693
98089SOL    HW196100   2.321   6.305   3.692
98089SOL    HW296101   2.308   6.163   3.743
98090SOL     OW96102   2.849  14.464   0.294
98090SOL    HW196103   2.944  14.463   0.300
98090SOL    HW296104   2.819  14.460   0.385
98091SOL     OW96105  14.213   6.094   5.158
98091SOL    HW196106  14.248   6.147   5.230
98091SOL    HW296107  14.162   6.026   5.201
98092SOL     OW96108   9.100   9.796  12.485
98092SOL    HW196109   9.192   9.819  12.479
98092SOL    HW296110   9.076   9.815  12.576
98093SOL     OW96111   4.145   2.744   1.257
98093SOL    HW196112   4.216   2.712   1.314
98093SOL    HW296113   4.112   2.665   1.214
98094SOL     OW96114  14.003   7.671   6.277
98094SOL    HW196115  13.952   7.677   6.196
98094SOL    HW296116  14.068   7.603   6.260
98095SOL     OW96117   5.854   1.225   6.097
98095SOL    HW196118   5.816   1.232   6.185
98095SOL    HW296119   5.908   1.304   6.088
98096SOL     OW96120   2.436  11.888  14.187
98096SOL    HW196121   2.471  11.963  14.235
98096SOL    HW296122   2.414  11.824  14.255
98097SOL     OW96123  12.296   8.218  12.117
98097SOL    HW196124  12.272   8.149  12.179
98097SOL    HW296125  12.370   8.183  12.068
98098SOL     OW96126  10.146  11.109   1.100
98098SOL    HW196127  10.140  11.017   1.125
98098SOL    HW296128  10.079  11.120   1.032
98099SOL     OW96129  14.536   7.082   0.590
98099SOL    HW196130  14.577   7.142   0.528
98099SOL    HW296131  14.606   7.021   0.614
98100SOL     OW96132  13.219   7.456  14.780
98100SOL    HW196133  13.237   7.529  14.840
98100SOL    HW296134  13.222   7.379  14.836
98101SOL     OW96135  13.916   9.501  10.574
98101SOL    HW196136  13.985   9.567  10.573
98101SOL    HW296137  13.874   9.508  10.489
98102SOL     OW96138   8.233   0.086   5.929
98102SOL    HW196139   8.149   0.096   5.886
98102SOL    HW296140   8.264   0.176   5.943
98103SOL     OW96141   4.283  13.398   4.609
98103SOL    HW196142   4.200  13.405   4.656
98103SOL    HW296143   4.284  13.474   4.551
98104SOL     OW96144   8.350   1.450   4.899
98104SOL    HW196145   8.353   1.415   4.810
98104SOL    HW296146   8.439   1.477   4.918
98105SOL     OW96147  11.341   3.043   6.833
98105SOL    HW196148  11.301   3.130   6.827
98105SOL    HW296149  11.385   3.042   6.918
98106SOL     OW96150   0.631   1.611  12.628
98106SOL    HW196151   0.539   1.585  12.619
98106SOL    HW296152   0.680   1.530  12.612
98107SOL     OW96153   2.213   5.474  11.691
98107SOL    HW196154   2.162   5.402  11.728
98107SOL    HW296155   2.147   5.535  11.657
98108SOL     OW96156   3.267   0.553   5.240
98108SOL    HW196157   3.174   0.541   5.223
98108SOL    HW296158   3.276   0.646   5.260
98109SOL     OW96159  13.229   2.048   7.996
98109SOL    HW196160  13.188   1.962   8.001
98109SOL    HW296161  13.169   2.106   8.043
98110SOL     OW96162  10.385  11.388   7.194
98110SOL    HW196163  10.415  11.447   7.124
98110SOL    HW296164  10.301  11.355   7.163
98111SOL     OW96165   0.062   9.592   7.687
98111SOL    HW196166   0.059   9.565   7.596
98111SOL    HW296167   0.022   9.519   7.735
98112SOL     OW96168   2.077  11.024   5.851
98112SOL    HW196169   1.983  11.043   5.846
98112SOL    HW296170   2.082  10.928   5.857
98113SOL     OW96171   5.187  10.207   1.351
98113SOL    HW196172   5.169  10.280   1.410
98113SOL    HW296173   5.272  10.230   1.311
98114SOL     OW96174   3.979   6.310   3.383
98114SOL    HW196175   3.991   6.247   3.454
98114SOL    HW296176   3.951   6.390   3.426
98115SOL     OW96177   6.823   2.685   2.335
98115SOL    HW196178   6.810   2.779   2.348
98115SOL    HW296179   6.862   2.677   2.248
98116SOL     OW96180   2.031   0.790  10.406
98116SOL    HW196181   1.985   0.759  10.484
98116SOL    HW296182   2.112   0.741  10.404
98117SOL     OW96183   8.950   2.226   2.944
98117SOL    HW196184   8.942   2.137   2.910
98117SOL    HW296185   8.959   2.215   3.039
98118SOL     OW96186   3.961   3.452   1.431
98118SOL    HW196187   4.011   3.504   1.368
98118SOL    HW296188   3.987   3.362   1.414
98119SOL     OW96189   9.862   1.449  12.782
98119SOL    HW196190   9.781   1.478  12.822
98119SOL    HW296191   9.873   1.358  12.812
98120SOL     OW96192  10.105   4.006  13.564
98120SOL    HW196193  10.134   3.992  13.474
98120SOL    HW296194  10.016   4.043  13.555
98121SOL     OW96195   9.155   5.386   6.557
98121SOL    HW196196   9.154   5.316   6.622
98121SOL    HW296197   9.065   5.389   6.525
98122SOL     OW96198  14.769   5.983   1.109
98122SOL    HW196199  14.779   5.890   1.088
98122SOL    HW296200  14.833   5.999   1.178
98123SOL     OW96201   6.185   3.717   5.787
98123SOL    HW196202   6.202   3.657   5.860
98123SOL    HW296203   6.271   3.733   5.749
98124SOL     OW96204   4.789   7.282  10.839
98124SOL    HW196205   4.726   7.330  10.786
98124SOL    HW296206   4.808   7.341  10.913
98125SOL     OW96207  14.861   8.307  13.520
98125SOL    HW196208  14.821   8.391  13.496
98125SOL    HW296209   0.035   8.280  13.441
98126SOL     OW96210  11.944  10.242  10.602
98126SOL    HW196211  12.025  10.191  10.607
98126SOL    HW296212  11.876  10.178  10.585
98127SOL     OW96213  13.307   0.045   9.387
98127SOL    HW196214  13.238   0.086   9.440
98127SOL    HW296215  13.389   0.077   9.425
98128SOL     OW96216   3.371   7.595   9.386
98128SOL    HW196217   3.402   7.675   9.429
98128SOL    HW296218   3.449   7.540   9.377
98129SOL     OW96219   0.498   0.310  13.102
98129SOL    HW196220   0.548   0.278  13.177
98129SOL    HW296221   0.437   0.238  13.082
98130SOL     OW96222   3.737   0.389   8.175
98130SOL    HW196223   3.756   0.350   8.260
98130SOL    HW296224   3.768   0.479   8.182
98131SOL     OW96225   4.311  14.475   5.322
98131SOL    HW196226   4.284  14.557   5.364
98131SOL    HW296227   4.237  14.416   5.335
98132SOL     OW96228  13.386  11.492  13.657
98132SOL    HW196229  13.377  11.505  13.563
98132SOL    HW296230  13.323  11.424  13.679
98133SOL     OW96231  12.373   3.666  11.530
98133SOL    HW196232  12.463   3.636  11.545
98133SOL    HW296233  12.325   3.635  11.607
98134SOL     OW96234   8.558   8.531  14.218
98134SOL    HW196235   8.537   8.441  14.246
98134SOL    HW296236   8.635   8.521  14.162
98135SOL     OW96237   3.455   7.526   8.176
98135SOL    HW196238   3.547   7.541   8.198
98135SOL    HW296239   3.418   7.483   8.253
98136SOL     OW96240   7.579  11.411   0.233
98136SOL    HW196241   7.503  11.407   0.175
98136SOL    HW296242   7.645  11.357   0.189
98137SOL     OW96243   1.739  12.291   2.962
98137SOL    HW196244   1.770  12.235   3.034
98137SOL    HW296245   1.681  12.234   2.912
98138SOL     OW96246  14.105   1.085  14.495
98138SOL    HW196247  14.174   1.143  14.528
98138SOL    HW296248  14.025   1.136  14.507
98139SOL     OW96249   9.429   2.226  11.534
98139SOL    HW196250   9.390   2.299  11.582
98139SOL    HW296251   9.398   2.148  11.579
98140SOL     OW96252   9.928   3.438  11.024
98140SOL    HW196253   9.848   3.446  10.973
98140SOL    HW296254   9.909   3.370  11.089
98141SOL     OW96255   1.040   9.382   5.679
98141SOL    HW196256   1.058   9.464   5.726
98141SOL    HW296257   1.108   9.379   5.611
98142SOL     OW96258   6.138   2.003   5.299
98142SOL    HW196259   6.088   1.923   5.286
98142SOL    HW296260   6.074   2.074   5.296
98143SOL     OW96261  10.403  10.037  13.496
98143SOL    HW196262  10.496  10.022  13.481
98143SOL    HW296263  10.364  10.033  13.409
98144SOL     OW96264   5.929   9.990   8.880
98144SOL    HW196265   5.918  10.083   8.897
98144SOL    HW296266   5.884   9.947   8.953
98145SOL     OW96267   0.968   6.804   1.587
98145SOL    HW196268   1.002   6.762   1.509
98145SOL    HW296269   1.042   6.854   1.621
98146SOL     OW96270  11.837   8.115   1.889
98146SOL    HW196271  11.804   8.205   1.884
98146SOL    HW296272  11.842   8.086   1.798
98147SOL     OW96273   6.478   0.109   6.213
98147SOL    HW196274   6.506   0.018   6.226
98147SOL    HW296275   6.388   0.111   6.245
98148SOL     OW96276  13.197  10.815   1.718
98148SOL    HW196277  13.253  10.801   1.794
98148SOL    HW296278  13.240  10.766   1.648
98149SOL     OW96279  13.313   9.132  11.897
98149SOL    HW196280  13.351   9.095  11.817
98149SOL    HW296281  13.373   9.103  11.966
98150SOL     OW96282   8.624   6.345  10.880
98150SOL    HW196283   8.597   6.308  10.796
98150SOL    HW296284   8.576   6.294  10.946
98151SOL     OW96285   1.957  13.081   2.017
98151SOL    HW196286   2.024  13.019   2.046
98151SOL    HW296287   1.877  13.053   2.062
98152SOL     OW96288   6.971   7.515   3.868
98152SOL    HW196289   6.940   7.454   3.934
98152SOL    HW296290   6.991   7.461   3.792
98153SOL     OW96291   3.651  14.535   1.593
98153SOL    HW196292   3.700  14.469   1.544
98153SOL    HW296293   3.671  14.518   1.684
98154SOL     OW96294   6.492   1.447   1.538
98154SOL    HW196295   6.506   1.441   1.632
98154SOL    HW296296   6.404   1.484   1.529
98155SOL     OW96297   5.738   1.351   3.721
98155SOL    HW196298   5.652   1.388   3.699
98155SOL    HW296299   5.800   1.413   3.682
98156SOL     OW96300  14.639  11.909   3.633
98156SOL    HW196301  14.668  11.831   3.680
98156SOL    HW296302  14.636  11.881   3.541
98157SOL     OW96303  11.586  12.571  12.881
98157SOL    HW196304  11.607  12.536  12.968
98157SOL    HW296305  11.589  12.666  12.892
98158SOL     OW96306   5.495   1.485   9.794
98158SOL    HW196307   5.538   1.553   9.742
98158SOL    HW296308   5.406   1.519   9.809
98159SOL     OW96309   9.258   9.777  11.729
98159SOL    HW196310   9.311   9.698  11.716
98159SOL    HW296311   9.239   9.778  11.823
98160SOL     OW96312  11.668   8.994  10.684
98160SOL    HW196313  11.738   8.988  10.749
98160SOL    HW296314  11.709   8.970  10.601
98161SOL     OW96315   7.503   3.605  10.451
98161SOL    HW196316   7.515   3.691  10.410
98161SOL    HW296317   7.520   3.620  10.544
98162SOL     OW96318  13.673   3.655   3.720
98162SOL    HW196319  13.710   3.567   3.729
98162SOL    HW296320  13.592   3.642   3.671
98163SOL     OW96321  13.016   7.146   1.789
98163SOL    HW196322  13.064   7.105   1.861
98163SOL    HW296323  12.993   7.232   1.823
98164SOL     OW96324   0.873   8.219   0.029
98164SOL    HW196325   0.836   8.206   0.117
98164SOL    HW296326   0.938   8.289   0.041
98165SOL     OW96327  11.175   1.635  11.900
98165SOL    HW196328  11.187   1.729  11.887
98165SOL    HW296329  11.084   1.619  11.872
98166SOL     OW96330   7.637   2.094   8.256
98166SOL    HW196331   7.615   2.170   8.309
98166SOL    HW296332   7.713   2.055   8.299
98167SOL     OW96333  12.193   0.983   9.131
98167SOL    HW196334  12.258   0.997   9.200
98167SOL    HW296335  12.110   0.971   9.179
98168SOL     OW96336   4.532  13.274   2.832
98168SOL    HW196337   4.528  13.191   2.785
98168SOL    HW296338   4.625  13.292   2.841
98169SOL     OW96339   7.076   2.086   0.047
98169SOL    HW196340   7.111   2.006   0.085
98169SOL    HW296341   7.142   2.153   0.065
98170SOL     OW96342  13.216   8.577  10.940
98170SOL    HW196343  13.290   8.517  10.947
98170SOL    HW296344  13.140   8.523  10.963
98171SOL     OW96345  13.291  10.771   5.864
98171SOL    HW196346  13.333  10.853   5.890
98171SOL    HW296347  13.244  10.794   5.784
98172SOL     OW96348   3.932  12.055   7.537
98172SOL    HW196349   3.842  12.026   7.552
98172SOL    HW296350   3.961  12.007   7.460
98173SOL     OW96351   8.521   5.023   5.838
98173SOL    HW196352   8.513   5.067   5.923
98173SOL    HW296353   8.613   4.998   5.833
98174SOL     OW96354  14.165   3.456   7.398
98174SOL    HW196355  14.105   3.383   7.384
98174SOL    HW296356  14.209   3.436   7.480
98175SOL     OW96357   9.885  13.227   3.836
98175SOL    HW196358   9.829  13.296   3.800
98175SOL    HW296359   9.833  13.147   3.827
98176SOL     OW96360   2.967  12.997   5.553
98176SOL    HW196361   2.889  13.005   5.499
98176SOL    HW296362   3.036  12.972   5.492
98177SOL     OW96363   4.441   2.225   0.061
98177SOL    HW196364   4.382   2.284   0.014
98177SOL    HW296365   4.383   2.174   0.118
98178SOL     OW96366   8.830   9.121   0.307
98178SOL    HW196367   8.811   9.028   0.294
98178SOL    HW296368   8.893   9.142   0.238
98179SOL     OW96369  14.226   9.304  11.078
98179SOL    HW196370  14.197   9.237  11.139
98179SOL    HW296371  14.267   9.371  11.134
98180SOL     OW96372   8.793   3.269  10.030
98180SOL    HW196373   8.883   3.249  10.055
98180SOL    HW296374   8.782   3.226   9.945
98181SOL     OW96375   3.588   0.433   4.424
98181SOL    HW196376   3.520   0.498   4.405
98181SOL    HW296377   3.550   0.375   4.489
98182SOL     OW96378   2.678   4.532   4.777
98182SOL    HW196379   2.758   4.502   4.821
98182SOL    HW296380   2.618   4.554   4.848
98183SOL     OW96381   3.999   0.699   5.460
98183SOL    HW196382   4.062   0.728   5.395
98183SOL    HW296383   4.052   0.659   5.529
98184SOL     OW96384  11.024   1.941  10.271
98184SOL    HW196385  11.117   1.940  10.297
98184SOL    HW296386  11.005   1.850  10.249
98185SOL     OW96387  12.527  10.785   0.313
98185SOL    HW196388  12.488  10.698   0.318
98185SOL    HW296389  12.468  10.834   0.255
98186SOL     OW96390  11.557   4.585   0.089
98186SOL    HW196391  11.586   4.667   0.049
98186SOL    HW296392  11.613   4.575   0.166
98187SOL     OW96393   6.084   9.705  12.129
98187SOL    HW196394   6.063   9.695  12.222
98187SOL    HW296395   6.170   9.747  12.128
98188SOL     OW96396   5.597   1.470   0.174
98188SOL    HW196397   5.548   1.504   0.249
98188SOL    HW296398   5.538   1.406   0.134
98189SOL     OW96399   2.363   8.585   0.839
98189SOL    HW196400   2.370   8.525   0.914
98189SOL    HW296401   2.293   8.646   0.865
98190SOL     OW96402   0.243   1.588  11.522
98190SOL    HW196403   0.229   1.497  11.548
98190SOL    HW296404   0.307   1.622  11.585
98191SOL     OW96405   7.834   5.536  13.481
98191SOL    HW196406   7.771   5.467  13.504
98191SOL    HW296407   7.860   5.516  13.391
98192SOL     OW96408   7.184   5.085   1.835
98192SOL    HW196409   7.180   5.130   1.751
98192SOL    HW296410   7.098   5.100   1.874
98193SOL     OW96411   5.962  14.785   0.205
98193SOL    HW196412   5.989  14.852   0.143
98193SOL    HW296413   5.870  14.803   0.221
98194SOL     OW96414   7.363  14.193  10.386
98194SOL    HW196415   7.305  14.162  10.317
98194SOL    HW296416   7.304  14.211  10.460
98195SOL     OW96417  13.043   9.770   5.312
98195SOL    HW196418  13.057   9.786   5.219
98195SOL    HW296419  13.030   9.857   5.350
98196SOL     OW96420   5.589  12.306   5.880
98196SOL    HW196421   5.515  12.344   5.928
98196SOL    HW296422   5.551  12.278   5.796
98197SOL     OW96423   3.991   3.145   8.788
98197SOL    HW196424   4.021   3.054   8.794
98197SOL    HW296425   3.900   3.142   8.817
98198SOL     OW96426   0.811   7.379   8.008
98198SOL    HW196427   0.821   7.363   8.102
98198SOL    HW296428   0.777   7.468   8.002
98199SOL     OW96429  10.142   5.839   2.915
98199SOL    HW196430  10.120   5.750   2.890
98199SOL    HW296431  10.118   5.892   2.839
98200SOL     OW96432   9.391  13.031   8.016
98200SOL    HW196433   9.313  13.084   8.035
98200SOL    HW296434   9.426  13.069   7.935
98201SOL     OW96435  10.222   3.319  13.950
98201SOL    HW196436  10.297   3.349  14.001
98201SOL    HW296437  10.146   3.341  14.004
98202SOL     OW96438   1.780  14.820   0.601
98202SOL    HW196439   1.755  14.772   0.522
98202SOL    HW296440   1.745   0.035   0.588
98203SOL     OW96441  14.652   1.807   6.721
98203SOL    HW196442  14.560   1.825   6.702
98203SOL    HW296443  14.700   1.880   6.682
98204SOL     OW96444  12.646   0.680   0.578
98204SOL    HW196445  12.667   0.619   0.649
98204SOL    HW296446  12.643   0.626   0.499
98205SOL     OW96447   6.272   4.051   5.883
98205SOL    HW196448   6.310   3.982   5.828
98205SOL    HW296449   6.180   4.053   5.858
98206SOL     OW96450   3.182  11.702   1.009
98206SOL    HW196451   3.209  11.791   1.032
98206SOL    HW296452   3.262  11.650   1.013
98207SOL     OW96453   9.642   9.416   7.299
98207SOL    HW196454   9.642   9.411   7.395
98207SOL    HW296455   9.671   9.506   7.281
98208SOL     OW96456  10.171   0.970  13.087
98208SOL    HW196457  10.168   1.007  13.175
98208SOL    HW296458  10.118   0.891  13.092
98209SOL     OW96459   5.447   1.719   9.052
98209SOL    HW196460   5.457   1.694   8.961
98209SOL    HW296461   5.355   1.745   9.060
98210SOL     OW96462  10.039   4.283  11.313
98210SOL    HW196463  10.126   4.295  11.352
98210SOL    HW296464  10.046   4.324  11.227
98211SOL     OW96465   1.495   3.124   3.573
98211SOL    HW196466   1.457   3.128   3.486
98211SOL    HW296467   1.554   3.048   3.570
98212SOL     OW96468  12.771   1.627  13.263
98212SOL    HW196469  12.780   1.719  13.285
98212SOL    HW296470  12.847   1.608  13.208
98213SOL     OW96471   4.791   3.686   3.906
98213SOL    HW196472   4.698   3.699   3.925
98213SOL    HW296473   4.822   3.771   3.876
98214SOL     OW96474   5.544   3.317   8.008
98214SOL    HW196475   5.554   3.247   7.943
98214SOL    HW296476   5.470   3.368   7.977
98215SOL     OW96477   8.517  14.532   9.847
98215SOL    HW196478   8.524  14.489   9.762
98215SOL    HW296479   8.423  14.543   9.861
98216SOL     OW96480  14.682  13.119   6.524
98216SOL    HW196481  14.685  13.197   6.469
98216SOL    HW296482  14.612  13.138   6.587
98217SOL     OW96483   6.269   3.549  12.468
98217SOL    HW196484   6.227   3.474  12.511
98217SOL    HW296485   6.359   3.519  12.453
98218SOL     OW96486   3.276   8.979   0.252
98218SOL    HW196487   3.288   9.072   0.269
98218SOL    HW296488   3.365   8.946   0.240
98219SOL     OW96489   6.169  10.842   7.779
98219SOL    HW196490   6.074  10.831   7.790
98219SOL    HW296491   6.198  10.758   7.744
98220SOL     OW96492   2.753  12.032   6.327
98220SOL    HW196493   2.734  11.941   6.305
98220SOL    HW296494   2.797  12.067   6.249
98221SOL     OW96495   0.241   5.658   3.143
98221SOL    HW196496   0.198   5.647   3.058
98221SOL    HW296497   0.281   5.573   3.161
98222SOL     OW96498  11.489  10.249  11.647
98222SOL    HW196499  11.501  10.165  11.690
98222SOL    HW296500  11.424  10.231  11.578
98223SOL     OW96501   5.426   9.427   6.377
98223SOL    HW196502   5.488   9.378   6.432
98223SOL    HW296503   5.442   9.395   6.289
98224SOL     OW96504  11.491  14.870   8.323
98224SOL    HW196505  11.451  14.785   8.344
98224SOL    HW296506  11.584  14.851   8.312
98225SOL     OW96507   3.272   2.989   0.994
98225SOL    HW196508   3.341   2.999   1.059
98225SOL    HW296509   3.227   2.908   1.019
98226SOL     OW96510   0.283   6.909   7.232
98226SOL    HW196511   0.349   6.899   7.163
98226SOL    HW296512   0.319   6.977   7.289
98227SOL     OW96513  14.266  12.812  14.407
98227SOL    HW196514  14.200  12.861  14.359
98227SOL    HW296515  14.315  12.764  14.340
98228SOL     OW96516   5.086  13.856   3.525
98228SOL    HW196517   5.158  13.823   3.579
98228SOL    HW296518   5.118  13.938   3.489
98229SOL     OW96519   3.780   5.997  11.182
98229SOL    HW196520   3.869   5.990  11.148
98229SOL    HW296521   3.789   5.979  11.275
98230SOL     OW96522   7.279   1.399   1.436
98230SOL    HW196523   7.351   1.352   1.479
98230SOL    HW296524   7.285   1.488   1.469
98231SOL     OW96525  13.756  14.663   9.290
98231SOL    HW196526  13.727  14.712   9.214
98231SOL    HW296527  13.742  14.571   9.266
98232SOL     OW96528   9.796   9.662   0.454
98232SOL    HW196529   9.714   9.641   0.499
98232SOL    HW296530   9.838   9.578   0.440
98233SOL     OW96531   3.415   2.236   4.320
98233SOL    HW196532   3.345   2.266   4.262
98233SOL    HW296533   3.472   2.313   4.329
98234SOL     OW96534   1.572  10.694   5.042
98234SOL    HW196535   1.635  10.624   5.026
98234SOL    HW296536   1.557  10.733   4.957
98235SOL     OW96537  12.763   9.236  12.724
98235SOL    HW196538  12.737   9.145  12.740
98235SOL    HW296539  12.859   9.232  12.720
98236SOL     OW96540   2.540   0.057  12.777
98236SOL    HW196541   2.524   0.073  12.870
98236SOL    HW296542   2.636   0.054  12.770
98237SOL     OW96543  10.139  12.289  11.659
98237SOL    HW196544  10.186  12.249  11.732
98237SOL    HW296545  10.081  12.354  11.700
98238SOL     OW96546  13.640   0.664  11.912
98238SOL    HW196547  13.652   0.748  11.956
98238SOL    HW296548  13.658   0.599  11.979
98239SOL     OW96549   1.126  10.809  14.433
98239SOL    HW196550   1.204  10.769  14.395
98239SOL    HW296551   1.103  10.751  14.506
98240SOL     OW96552   4.186   7.247  14.593
98240SOL    HW196553   4.231   7.253  14.678
98240SOL    HW296554   4.254   7.264  14.529
98241SOL     OW96555   3.022  10.332   5.832
98241SOL    HW196556   3.064  10.388   5.897
98241SOL    HW296557   2.989  10.257   5.881
98242SOL     OW96558  12.081   9.766   3.410
98242SOL    HW196559  12.028   9.810   3.476
98242SOL    HW296560  12.108   9.684   3.452
98243SOL     OW96561  10.979   3.888   8.824
98243SOL    HW196562  11.065   3.849   8.808
98243SOL    HW296563  10.997   3.981   8.838
98244SOL     OW96564  11.015   3.951   7.682
98244SOL    HW196565  10.978   4.013   7.745
98244SOL    HW296566  11.008   3.996   7.598
98245SOL     OW96567   6.209   7.373   0.498
98245SOL    HW196568   6.123   7.408   0.522
98245SOL    HW296569   6.268   7.404   0.567
98246SOL     OW96570   5.717  13.363   1.004
98246SOL    HW196571   5.806  13.386   1.031
98246SOL    HW296572   5.676  13.446   0.981
98247SOL     OW96573   7.833   1.628   1.389
98247SOL    HW196574   7.892   1.625   1.313
98247SOL    HW296575   7.819   1.536   1.412
98248SOL     OW96576   3.942   6.898  12.716
98248SOL    HW196577   3.946   6.866  12.807
98248SOL    HW296578   3.922   6.820  12.664
98249SOL     OW96579   1.415   9.461   4.492
98249SOL    HW196580   1.370   9.380   4.516
98249SOL    HW296581   1.486   9.432   4.434
98250SOL     OW96582   5.386   7.644   1.406
98250SOL    HW196583   5.342   7.608   1.483
98250SOL    HW296584   5.451   7.705   1.442
98251SOL     OW96585   9.584   4.027   1.606
98251SOL    HW196586   9.560   4.106   1.656
98251SOL    HW296587   9.655   3.987   1.656
98252SOL     OW96588   3.632   0.441  13.162
98252SOL    HW196589   3.604   0.495  13.088
98252SOL    HW296590   3.675   0.502  13.221
98253SOL     OW96591   5.631   3.612   3.665
98253SOL    HW196592   5.574   3.622   3.589
98253SOL    HW296593   5.718   3.638   3.634
98254SOL     OW96594   9.700   7.185  13.780
98254SOL    HW196595   9.713   7.176  13.685
98254SOL    HW296596   9.787   7.173  13.817
98255SOL     OW96597   4.612  12.951   7.508
98255SOL    HW196598   4.540  13.013   7.516
98255SOL    HW296599   4.654  12.951   7.594
98256SOL     OW96600  11.511   0.990  12.204
98256SOL    HW196601  11.514   1.069  12.257
98256SOL    HW296602  11.586   0.938  12.233
98257SOL     OW96603  14.154   9.661   0.191
98257SOL    HW196604  14.062   9.635   0.203
98257SOL    HW296605  14.149   9.751   0.160
98258SOL     OW96606   1.965  13.852  13.546
98258SOL    HW196607   2.056  13.832  13.571
98258SOL    HW296608   1.961  13.948  13.549
98259SOL     OW96609  11.283   6.846  14.340
98259SOL    HW196610  11.344   6.898  14.288
98259SOL    HW296611  11.328   6.835  14.424
98260SOL     OW96612   8.392  13.850   3.567
98260SOL    HW196613   8.407  13.943   3.586
98260SOL    HW296614   8.434  13.803   3.639
98261SOL     OW96615   5.685   7.319   1.939
98261SOL    HW196616   5.696   7.414   1.947
98261SOL    HW296617   5.602   7.301   1.982
98262SOL     OW96618   6.850   1.118  13.549
98262SOL    HW196619   6.786   1.078  13.490
98262SOL    HW296620   6.861   1.207  13.517
98263SOL     OW96621   3.317   7.560   1.911
98263SOL    HW196622   3.255   7.568   1.983
98263SOL    HW296623   3.366   7.480   1.930
98264SOL     OW96624   4.385  12.992  10.659
98264SOL    HW196625   4.312  12.935  10.636
98264SOL    HW296626   4.344  13.077  10.676
98265SOL     OW96627  12.659  14.246  12.469
98265SOL    HW196628  12.613  14.192  12.533
98265SOL    HW296629  12.675  14.188  12.395
98266SOL     OW96630   2.392   1.130   7.642
98266SOL    HW196631   2.312   1.184   7.646
98266SOL    HW296632   2.462   1.192   7.621
98267SOL     OW96633   8.831   5.827   1.974
98267SOL    HW196634   8.797   5.748   2.017
98267SOL    HW296635   8.802   5.899   2.030
98268SOL     OW96636  10.958   1.531   9.275
98268SOL    HW196637  11.006   1.613   9.281
98268SOL    HW296638  10.904   1.529   9.354
98269SOL     OW96639   8.530   5.643  13.903
98269SOL    HW196640   8.465   5.628  13.836
98269SOL    HW296641   8.517   5.572  13.966
98270SOL     OW96642  10.647   3.253  10.243
98270SOL    HW196643  10.632   3.159  10.249
98270SOL    HW296644  10.620   3.276  10.154
98271SOL     OW96645   2.398   6.941   4.012
98271SOL    HW196646   2.479   6.893   3.998
98271SOL    HW296647   2.412   7.025   3.969
98272SOL     OW96648  12.462  10.840   4.637
98272SOL    HW196649  12.428  10.752   4.653
98272SOL    HW296650  12.526  10.828   4.567
98273SOL     OW96651   4.286   2.190  12.282
98273SOL    HW196652   4.340   2.181  12.361
98273SOL    HW296653   4.242   2.275  12.294
98274SOL     OW96654  14.620  10.278   9.965
98274SOL    HW196655  14.551  10.270   9.899
98274SOL    HW296656  14.613  10.197  10.016
98275SOL     OW96657  14.484  13.024  13.818
98275SOL    HW196658  14.458  13.115  13.805
98275SOL    HW296659  14.488  12.987  13.730
98276SOL     OW96660   2.655   8.187  13.883
98276SOL    HW196661   2.664   8.276  13.915
98276SOL    HW296662   2.605   8.142  13.951
98277SOL     OW96663   0.912   4.988   8.274
98277SOL    HW196664   0.951   4.956   8.355
98277SOL    HW296665   0.824   4.949   8.273
98278SOL     OW96666   9.338  12.526  10.981
98278SOL    HW196667   9.418  12.548  11.029
98278SOL    HW296668   9.322  12.602  10.925
98279SOL     OW96669  14.088   0.822   3.353
98279SOL    HW196670  14.173   0.837   3.312
98279SOL    HW296671  14.028   0.810   3.280
98280SOL     OW96672  13.487   2.034   7.327
98280SOL    HW196673  13.438   2.114   7.310
98280SOL    HW296674  13.561   2.061   7.380
98281SOL     OW96675   4.074   3.116   1.311
98281SOL    HW196676   4.149   3.166   1.279
98281SOL    HW296677   4.109   3.062   1.381
98282SOL     OW96678   6.186  11.560   5.538
98282SOL    HW196679   6.161  11.652   5.524
98282SOL    HW296680   6.279  11.557   5.516
98283SOL     OW96681  14.307   5.020  14.578
98283SOL    HW196682  14.242   5.055  14.638
98283SOL    HW296683  14.280   4.929  14.564
98284SOL     OW96684  13.942   5.989   3.525
98284SOL    HW196685  13.868   6.049   3.518
98284SOL    HW296686  14.012   6.031   3.475
98285SOL     OW96687   5.619   0.268  11.452
98285SOL    HW196688   5.699   0.271  11.400
98285SOL    HW296689   5.552   0.306  11.396
98286SOL     OW96690  12.621   5.029   4.170
98286SOL    HW196691  12.666   5.066   4.094
98286SOL    HW296692  12.560   5.097   4.198
98287SOL     OW96693  13.363   5.227   2.187
98287SOL    HW196694  13.305   5.302   2.199
98287SOL    HW296695  13.339   5.167   2.258
98288SOL     OW96696   6.856   8.997   7.908
98288SOL    HW196697   6.767   9.030   7.893
98288SOL    HW296698   6.851   8.904   7.887
98289SOL     OW96699   4.470  14.525   2.484
98289SOL    HW196700   4.478  14.554   2.393
98289SOL    HW296701   4.405  14.585   2.522
98290SOL     OW96702   6.523   7.978  11.275
98290SOL    HW196703   6.592   7.913  11.258
98290SOL    HW296704   6.554   8.026  11.352
98291SOL     OW96705   6.078   5.564   2.082
98291SOL    HW196706   6.098   5.648   2.122
98291SOL    HW296707   6.122   5.499   2.138
98292SOL     OW96708  12.312   6.222   1.402
98292SOL    HW196709  12.376   6.191   1.466
98292SOL    HW296710  12.314   6.317   1.410
98293SOL     OW96711   2.787  10.831  10.077
98293SOL    HW196712   2.858  10.785  10.033
98293SOL    HW296713   2.826  10.913  10.106
98294SOL     OW96714   0.826   9.571  10.286
98294SOL    HW196715   0.856   9.485  10.315
98294SOL    HW296716   0.815   9.561  10.191
98295SOL     OW96717   1.525   4.460   0.224
98295SOL    HW196718   1.485   4.464   0.138
98295SOL    HW296719   1.576   4.379   0.224
98296SOL     OW96720   3.624   3.854   4.285
98296SOL    HW196721   3.617   3.918   4.214
98296SOL    HW296722   3.563   3.885   4.351
98297SOL     OW96723  10.099   5.344  11.743
98297SOL    HW196724  10.120   5.438  11.745
98297SOL    HW296725  10.184   5.302  11.730
98298SOL     OW96726   1.110  10.348   1.308
98298SOL    HW196727   1.096  10.414   1.376
98298SOL    HW296728   1.111  10.398   1.227
98299SOL     OW96729   0.651   7.813   7.523
98299SOL    HW196730   0.735   7.780   7.555
98299SOL    HW296731   0.635   7.764   7.443
98300SOL     OW96732  13.771   8.398   0.805
98300SOL    HW196733  13.820   8.475   0.833
98300SOL    HW296734  13.730   8.423   0.723
98301SOL     OW96735  10.794  14.104   5.200
98301SOL    HW196736  10.781  14.036   5.266
98301SOL    HW296737  10.728  14.086   5.133
98302SOL     OW96738   0.560   1.464   1.150
98302SOL    HW196739   0.524   1.553   1.153
98302SOL    HW296740   0.500   1.416   1.094
98303SOL     OW96741  14.702   7.124  10.001
98303SOL    HW196742  14.719   7.061   9.930
98303SOL    HW296743  14.661   7.198   9.957
98304SOL     OW96744   7.792   1.312  14.777
98304SOL    HW196745   7.758   1.361  14.852
98304SOL    HW296746   7.728   1.243  14.762
98305SOL     OW96747   3.461   9.088   6.371
98305SOL    HW196748   3.374   9.059   6.399
98305SOL    HW296749   3.516   9.010   6.380
98306SOL     OW96750   7.298  10.667   1.248
98306SOL    HW196751   7.300  10.615   1.328
98306SOL    HW296752   7.236  10.621   1.191
98307SOL     OW96753   1.669   8.111   3.026
98307SOL    HW196754   1.747   8.115   2.970
98307SOL    HW296755   1.703   8.105   3.115
98308SOL     OW96756   4.148   3.294  12.180
98308SOL    HW196757   4.055   3.275  12.183
98308SOL    HW296758   4.172   3.316  12.270
98309SOL     OW96759   0.699  10.869   3.710
98309SOL    HW196760   0.756  10.946   3.714
98309SOL    HW296761   0.630  10.894   3.649
98310SOL     OW96762   3.871   8.402  10.023
98310SOL    HW196763   3.883   8.355  10.106
98310SOL    HW296764   3.802   8.354   9.978
98311SOL     OW96765   6.036  14.049  10.300
98311SOL    HW196766   6.123  14.085  10.319
98311SOL    HW296767   6.016  14.082  10.212
98312SOL     OW96768   9.540  13.507   1.985
98312SOL    HW196769   9.544  13.550   1.899
98312SOL    HW296770   9.617  13.450   1.986
98313SOL     OW96771  10.549   0.468  13.895
98313SOL    HW196772  10.578   0.559  13.896
98313SOL    HW296773  10.629   0.416  13.885
98314SOL     OW96774   9.810   5.415  11.795
98314SOL    HW196775   9.818   5.448  11.705
98314SOL    HW296776   9.869   5.340  11.798
98315SOL     OW96777   7.752  14.473   8.150
98315SOL    HW196778   7.765  14.453   8.243
98315SOL    HW296779   7.818  14.421   8.105
98316SOL     OW96780  10.010   0.590   4.403
98316SOL    HW196781   9.935   0.545   4.364
98316SOL    HW296782   9.999   0.578   4.497
98317SOL     OW96783   5.147   8.580   5.558
98317SOL    HW196784   5.073   8.593   5.500
98317SOL    HW296785   5.111   8.590   5.646
98318SOL     OW96786   4.573  14.419   2.208
98318SOL    HW196787   4.501  14.434   2.146
98318SOL    HW296788   4.642  14.378   2.156
98319SOL     OW96789   3.058   6.557   1.349
98319SOL    HW196790   3.031   6.517   1.432
98319SOL    HW296791   2.977   6.571   1.301
98320SOL     OW96792   7.373   8.136  12.916
98320SOL    HW196793   7.435   8.117  12.846
98320SOL    HW296794   7.312   8.199  12.879
98321SOL     OW96795   9.537   4.823   1.493
98321SOL    HW196796   9.524   4.875   1.572
98321SOL    HW296797   9.607   4.868   1.445
98322SOL     OW96798  13.367  13.259  10.628
98322SOL    HW196799  13.426  13.188  10.602
98322SOL    HW296800  13.356  13.247  10.722
98323SOL     OW96801  13.443   1.788   7.878
98323SOL    HW196802  13.378   1.722   7.903
98323SOL    HW296803  13.403   1.834   7.805
98324SOL     OW96804   9.650   6.430   2.227
98324SOL    HW196805   9.629   6.338   2.214
98324SOL    HW296806   9.630   6.447   2.319
98325SOL     OW96807   3.658  11.211  12.696
98325SOL    HW196808   3.681  11.157  12.771
98325SOL    HW296809   3.729  11.198  12.633
98326SOL     OW96810   4.807   1.655   6.009
98326SOL    HW196811   4.801   1.740   5.966
98326SOL    HW296812   4.824   1.593   5.939
98327SOL     OW96813   2.823   4.188  10.167
98327SOL    HW196814   2.856   4.275  10.189
98327SOL    HW296815   2.728   4.195  10.179
98328SOL     OW96816  11.830  13.077   9.311
98328SOL    HW196817  11.799  13.163   9.336
98328SOL    HW296818  11.917  13.070   9.350
98329SOL     OW96819   5.812   1.168  14.301
98329SOL    HW196820   5.840   1.078  14.319
98329SOL    HW296821   5.852   1.188  14.217
98330SOL     OW96822   6.964   6.653   6.923
98330SOL    HW196823   6.979   6.649   7.017
98330SOL    HW296824   6.871   6.635   6.913
98331SOL     OW96825  13.158  14.618   2.576
98331SOL    HW196826  13.243  14.625   2.620
98331SOL    HW296827  13.174  14.561   2.501
98332SOL     OW96828   6.309   4.690   0.175
98332SOL    HW196829   6.353   4.617   0.219
98332SOL    HW296830   6.315   4.763   0.237
98333SOL     OW96831   1.437   6.433   4.340
98333SOL    HW196832   1.488   6.381   4.402
98333SOL    HW296833   1.348   6.432   4.376
98334SOL     OW96834   1.850  10.703  10.051
98334SOL    HW196835   1.771  10.651  10.049
98334SOL    HW296836   1.915  10.651  10.003
98335SOL     OW96837   2.817   5.774   9.892
98335SOL    HW196838   2.902   5.765   9.937
98335SOL    HW296839   2.840   5.778   9.799
98336SOL     OW96840   8.127   1.720   8.503
98336SOL    HW196841   8.165   1.642   8.543
98336SOL    HW296842   8.201   1.780   8.493
98337SOL     OW96843   1.365   0.893  12.035
98337SOL    HW196844   1.343   0.985  12.055
98337SOL    HW296845   1.391   0.856  12.119
98338SOL     OW96846   8.218   4.158   1.356
98338SOL    HW196847   8.170   4.103   1.418
98338SOL    HW296848   8.166   4.155   1.276
98339SOL     OW96849   9.474   1.084  14.417
98339SOL    HW196850   9.520   1.104  14.498
98339SOL    HW296851   9.542   1.051  14.358
98340SOL     OW96852  14.004   0.580   3.508
98340SOL    HW196853  13.913   0.600   3.529
98340SOL    HW296854  14.041   0.662   3.476
98341SOL     OW96855   8.916   3.233   5.963
98341SOL    HW196856   8.860   3.191   6.027
98341SOL    HW296857   9.000   3.244   6.007
98342SOL     OW96858  12.650   5.251  13.782
98342SOL    HW196859  12.694   5.322  13.828
98342SOL    HW296860  12.604   5.202  13.850
98343SOL     OW96861  14.164  12.228  10.643
98343SOL    HW196862  14.253  12.226  10.680
98343SOL    HW296863  14.112  12.177  10.705
98344SOL     OW96864   6.179   1.566   8.655
98344SOL    HW196865   6.269   1.598   8.662
98344SOL    HW296866   6.173   1.497   8.721
98345SOL     OW96867   3.620   4.556   7.286
98345SOL    HW196868   3.549   4.619   7.272
98345SOL    HW296869   3.639   4.562   7.380
98346SOL     OW96870   8.307   6.791  11.897
98346SOL    HW196871   8.226   6.795  11.948
98346SOL    HW296872   8.317   6.879  11.862
98347SOL     OW96873   9.482   4.404   2.206
98347SOL    HW196874   9.521   4.327   2.163
98347SOL    HW296875   9.523   4.479   2.162
98348SOL     OW96876   3.590   5.961   4.613
98348SOL    HW196877   3.567   5.869   4.626
98348SOL    HW296878   3.581   5.974   4.518
98349SOL     OW96879   0.564   6.886   9.466
98349SOL    HW196880   0.652   6.849   9.472
98349SOL    HW296881   0.514   6.821   9.417
98350SOL     OW96882   5.312  13.643   2.732
98350SOL    HW196883   5.322  13.555   2.696
98350SOL    HW296884   5.224  13.670   2.706
98351SOL     OW96885   4.814  14.604   5.821
98351SOL    HW196886   4.820  14.514   5.789
98351SOL    HW296887   4.727  14.611   5.859
98352SOL     OW96888  14.055  12.846   3.375
98352SOL    HW196889  14.148  12.838   3.398
98352SOL    HW296890  14.053  12.840   3.280
98353SOL     OW96891  13.808  14.832   2.084
98353SOL    HW196892  13.725  14.827   2.132
98353SOL    HW296893  13.830  14.741   2.065
98354SOL     OW96894   5.815   4.931  10.221
98354SOL    HW196895   5.881   4.972  10.164
98354SOL    HW296896   5.831   4.837  10.212
98355SOL     OW96897   7.074   8.399   6.665
98355SOL    HW196898   7.107   8.487   6.646
98355SOL    HW296899   7.109   8.344   6.595
98356SOL     OW96900   8.846   7.847  10.663
98356SOL    HW196901   8.844   7.754  10.684
98356SOL    HW296902   8.931   7.877  10.696
98357SOL     OW96903   7.009   3.501  14.354
98357SOL    HW196904   7.014   3.468  14.265
98357SOL    HW296905   6.949   3.576  14.349
98358SOL     OW96906   3.296  13.721  10.326
98358SOL    HW196907   3.366  13.685  10.381
98358SOL    HW296908   3.224  13.738  10.387
98359SOL     OW96909   5.664   2.158   5.167
98359SOL    HW196910   5.685   2.199   5.251
98359SOL    HW296911   5.711   2.211   5.102
98360SOL     OW96912   7.703  11.795  13.631
98360SOL    HW196913   7.669  11.714  13.593
98360SOL    HW296914   7.797  11.789  13.618
98361SOL     OW96915   9.788   6.725   9.381
98361SOL    HW196916   9.851   6.706   9.311
98361SOL    HW296917   9.715   6.666   9.363
98362SOL     OW96918   2.895   4.376  13.482
98362SOL    HW196919   2.816   4.413  13.521
98362SOL    HW296920   2.890   4.401  13.389
98363SOL     OW96921  10.723  10.258  11.996
98363SOL    HW196922  10.633  10.234  12.021
98363SOL    HW296923  10.765  10.175  11.976
98364SOL     OW96924   9.775  12.314   3.930
98364SOL    HW196925   9.832  12.239   3.919
98364SOL    HW296926   9.745  12.308   4.021
98365SOL     OW96927   1.419  14.126  11.450
98365SOL    HW196928   1.360  14.051  11.440
98365SOL    HW296929   1.385  14.173  11.526
98366SOL     OW96930   6.884   6.771  14.783
98366SOL    HW196931   6.858   6.726  14.863
98366SOL    HW296932   6.861   6.863  14.798
98367SOL     OW96933   1.236   8.466   2.366
98367SOL    HW196934   1.272   8.387   2.406
98367SOL    HW296935   1.246   8.451   2.272
98368SOL     OW96936  12.317  13.004   5.240
98368SOL    HW196937  12.356  12.967   5.320
98368SOL    HW296938  12.383  13.064   5.207
98369SOL     OW96939   9.031   9.429  11.989
98369SOL    HW196940   8.987   9.480  11.920
98369SOL    HW296941   9.121   9.421  11.959
98370SOL     OW96942  13.412   0.942  11.213
98370SOL    HW196943  13.470   0.896  11.274
98370SOL    HW296944  13.385   0.876  11.151
98371SOL     OW96945   3.770   1.584   8.437
98371SOL    HW196946   3.702   1.529   8.476
98371SOL    HW296947   3.739   1.600   8.348
98372SOL     OW96948   2.109   0.420   2.162
98372SOL    HW196949   2.105   0.515   2.158
98372SOL    HW296950   2.046   0.396   2.230
98373SOL     OW96951  10.145   8.584   9.214
98373SOL    HW196952  10.071   8.621   9.262
98373SOL    HW296953  10.201   8.547   9.283
98374SOL     OW96954   9.432   0.487  12.299
98374SOL    HW196955   9.452   0.577  12.323
98374SOL    HW296956   9.498   0.434  12.343
98375SOL     OW96957  12.368  13.685  13.009
98375SOL    HW196958  12.324  13.727  13.083
98375SOL    HW296959  12.383  13.756  12.946
98376SOL     OW96960  12.841   2.095   1.230
98376SOL    HW196961  12.867   2.167   1.173
98376SOL    HW296962  12.891   2.109   1.310
98377SOL     OW96963   8.816   0.444   6.087
98377SOL    HW196964   8.829   0.383   6.014
98377SOL    HW296965   8.852   0.397   6.162
98378SOL     OW96966   5.912   8.367  13.491
98378SOL    HW196967   6.004   8.341  13.486
98378SOL    HW296968   5.900   8.427  13.418
98379SOL     OW96969  10.037  13.710   3.451
98379SOL    HW196970  10.022  13.648   3.379
98379SOL    HW296971  10.117  13.757   3.425
98380SOL     OW96972  10.720   6.533   1.427
98380SOL    HW196973  10.672   6.460   1.466
98380SOL    HW296974  10.777   6.493   1.362
98381SOL     OW96975   3.637  11.145   1.309
98381SOL    HW196976   3.713  11.133   1.365
98381SOL    HW296977   3.595  11.059   1.306
98382SOL     OW96978  11.595  13.220   1.145
98382SOL    HW196979  11.601  13.145   1.204
98382SOL    HW296980  11.681  13.262   1.152
98383SOL     OW96981   3.326  11.457  13.094
98383SOL    HW196982   3.277  11.375  13.094
98383SOL    HW296983   3.416  11.430  13.113
98384SOL     OW96984   3.018  13.778  14.143
98384SOL    HW196985   3.006  13.807  14.052
98384SOL    HW296986   2.957  13.704  14.152
98385SOL     OW96987   6.318   5.937  10.957
98385SOL    HW196988   6.279   5.915  10.872
98385SOL    HW296989   6.261   6.006  10.992
98386SOL     OW96990   8.767  10.148   4.075
98386SOL    HW196991   8.706  10.082   4.109
98386SOL    HW296992   8.843  10.142   4.133
98387SOL     OW96993   5.754  13.759  14.605
98387SOL    HW196994   5.736  13.743  14.698
98387SOL    HW296995   5.847  13.781  14.602
98388SOL     OW96996  13.360   9.311  11.461
98388SOL    HW196997  13.443   9.288  11.503
98388SOL    HW296998  13.384   9.369  11.389
98389SOL     OW96999   3.872  10.101   7.184
98389SOL    HW197000   3.818  10.129   7.110
98389SOL    HW297001   3.950  10.157   7.178
98390SOL     OW97002   4.953   3.186  10.978
98390SOL    HW197003   4.912   3.181  11.064
98390SOL    HW297004   4.905   3.257  10.934
98391SOL     OW97005   8.719   3.026  10.688
98391SOL    HW197006   8.757   3.080  10.618
98391SOL    HW297007   8.653   2.973  10.643
98392SOL     OW97008   6.520  11.807   8.116
98392SOL    HW197009   6.446  11.777   8.063
98392SOL    HW297010   6.480  11.863   8.182
98393SOL     OW97011  10.189  14.863  12.009
98393SOL    HW197012  10.116   0.048  12.030
98393SOL    HW297013  10.186  14.794  12.076
98394SOL     OW97014   7.675  11.737   0.643
98394SOL    HW197015   7.621  11.660   0.622
98394SOL    HW297016   7.664  11.749   0.737
98395SOL     OW97017   8.669  11.279   6.911
98395SOL    HW197018   8.640  11.228   6.835
98395SOL    HW297019   8.701  11.362   6.874
98396SOL     OW97020   0.313   3.133  12.238
98396SOL    HW197021   0.312   3.105  12.330
98396SOL    HW297022   0.230   3.180  12.227
98397SOL     OW97023   5.250   3.070   4.931
98397SOL    HW197024   5.191   3.025   4.992
98397SOL    HW297025   5.214   3.158   4.924
98398SOL     OW97026   2.589  13.230   3.024
98398SOL    HW197027   2.551  13.219   2.937
98398SOL    HW297028   2.605  13.141   3.055
98399SOL     OW97029   2.099   5.705  13.524
98399SOL    HW197030   2.006   5.703  13.500
98399SOL    HW297031   2.104   5.651  13.603
98400SOL     OW97032   7.461   8.803   6.901
98400SOL    HW197033   7.488   8.803   6.993
98400SOL    HW297034   7.366   8.808   6.904
98401SOL     OW97035  14.685  12.841  12.116
98401SOL    HW197036  14.640  12.768  12.159
98401SOL    HW297037  14.720  12.893  12.188
98402SOL     OW97038  14.130  11.140   9.238
98402SOL    HW197039  14.092  11.179   9.159
98402SOL    HW297040  14.185  11.210   9.275
98403SOL     OW97041   6.150  12.328  10.900
98403SOL    HW197042   6.058  12.313  10.922
98403SOL    HW297043   6.150  12.414  10.857
98404SOL     OW97044   4.647  12.691   3.401
98404SOL    HW197045   4.669  12.773   3.357
98404SOL    HW297046   4.716  12.630   3.373
98405SOL     OW97047   6.156  11.726   6.163
98405SOL    HW197048   6.234  11.680   6.132
98405SOL    HW297049   6.186  11.815   6.181
98406SOL     OW97050   7.264  11.815  14.447
98406SOL    HW197051   7.237  11.724  14.436
98406SOL    HW297052   7.184  11.866  14.431
98407SOL     OW97053   9.982   2.993   8.136
98407SOL    HW197054   9.996   2.906   8.173
98407SOL    HW297055  10.036   3.051   8.190
98408SOL     OW97056  13.455   2.983  12.385
98408SOL    HW197057  13.519   2.983  12.314
98408SOL    HW297058  13.412   2.898  12.380
98409SOL     OW97059  14.289  13.629  11.658
98409SOL    HW197060  14.385  13.628  11.654
98409SOL    HW297061  14.264  13.536  11.651
98410SOL     OW97062  12.397  11.333   5.558
98410SOL    HW197063  12.356  11.304   5.476
98410SOL    HW297064  12.323  11.349   5.617
98411SOL     OW97065   0.041   3.320   4.453
98411SOL    HW197066   0.063   3.229   4.472
98411SOL    HW297067  14.829   3.315   4.408
98412SOL     OW97068   1.321   8.893   2.104
98412SOL    HW197069   1.253   8.934   2.158
98412SOL    HW297070   1.388   8.961   2.095
98413SOL     OW97071  10.636  12.233   2.810
98413SOL    HW197072  10.638  12.182   2.729
98413SOL    HW297073  10.722  12.275   2.814
98414SOL     OW97074   2.603   2.392   4.370
98414SOL    HW197075   2.636   2.305   4.390
98414SOL    HW297076   2.562   2.421   4.452
98415SOL     OW97077  13.996   8.775   3.322
98415SOL    HW197078  14.051   8.760   3.245
98415SOL    HW297079  14.058   8.799   3.391
98416SOL     OW97080   3.688   1.809   7.104
98416SOL    HW197081   3.668   1.882   7.162
98416SOL    HW297082   3.691   1.732   7.162
98417SOL     OW97083  11.678   8.431   3.244
98417SOL    HW197084  11.729   8.444   3.324
98417SOL    HW297085  11.686   8.513   3.197
98418SOL     OW97086   7.900   5.907  10.735
98418SOL    HW197087   7.869   5.966  10.666
98418SOL    HW297088   7.837   5.918  10.806
98419SOL     OW97089  11.045   0.734   2.861
98419SOL    HW197090  11.005   0.765   2.943
98419SOL    HW297091  11.104   0.804   2.835
98420SOL     OW97092   6.766  11.404  13.919
98420SOL    HW197093   6.760  11.325  13.866
98420SOL    HW297094   6.817  11.465  13.866
98421SOL     OW97095   9.320   5.758  12.405
98421SOL    HW197096   9.257   5.784  12.337
98421SOL    HW297097   9.392   5.718  12.356
98422SOL     OW97098   5.992  11.193   1.550
98422SOL    HW197099   5.991  11.272   1.605
98422SOL    HW297100   6.038  11.220   1.471
98423SOL     OW97101   2.561  12.081   2.899
98423SOL    HW197102   2.632  12.039   2.949
98423SOL    HW297103   2.547  12.165   2.943
98424SOL     OW97104   5.128   7.464   1.162
98424SOL    HW197105   5.200   7.409   1.195
98424SOL    HW297106   5.169   7.520   1.096
98425SOL     OW97107   9.993  11.295  10.261
98425SOL    HW197108   9.957  11.326  10.177
98425SOL    HW297109  10.056  11.362  10.285
98426SOL     OW97110   2.191   3.075  11.648
98426SOL    HW197111   2.253   3.141  11.676
98426SOL    HW297112   2.105   3.112  11.670
98427SOL     OW97113  12.484  12.790   0.733
98427SOL    HW197114  12.523  12.796   0.646
98427SOL    HW297115  12.478  12.880   0.763
98428SOL     OW97116   5.828   7.618   8.753
98428SOL    HW197117   5.740   7.628   8.717
98428SOL    HW297118   5.864   7.707   8.753
98429SOL     OW97119   4.596  13.927  13.870
98429SOL    HW197120   4.672  13.922  13.812
98429SOL    HW297121   4.589  14.020  13.892
98430SOL     OW97122   6.064   0.123  10.145
98430SOL    HW197123   5.976   0.145  10.178
98430SOL    HW297124   6.104   0.209  10.129
98431SOL     OW97125   1.075   7.836   5.008
98431SOL    HW197126   1.050   7.744   5.002
98431SOL    HW297127   1.135   7.840   5.082
98432SOL     OW97128   3.606   8.573   1.126
98432SOL    HW197129   3.643   8.539   1.044
98432SOL    HW297130   3.522   8.611   1.100
98433SOL     OW97131   7.688  13.809  14.561
98433SOL    HW197132   7.614  13.776  14.510
98433SOL    HW297133   7.657  13.891  14.598
98434SOL     OW97134  12.063   1.667   7.637
98434SOL    HW197135  12.007   1.650   7.561
98434SOL    HW297136  12.016   1.627   7.710
98435SOL     OW97137  11.722   7.696   7.103
98435SOL    HW197138  11.707   7.694   7.197
98435SOL    HW297139  11.719   7.789   7.081
98436SOL     OW97140  13.437  10.934   8.230
98436SOL    HW197141  13.438  11.015   8.281
98436SOL    HW297142  13.352  10.895   8.249
98437SOL     OW97143   1.272  10.440   2.993
98437SOL    HW197144   1.347  10.433   3.052
98437SOL    HW297145   1.228  10.356   2.999
98438SOL     OW97146  10.737  10.333   4.442
98438SOL    HW197147  10.688  10.268   4.391
98438SOL    HW297148  10.717  10.312   4.533
98439SOL     OW97149   8.202  13.104   5.163
98439SOL    HW197150   8.111  13.077   5.156
98439SOL    HW297151   8.198  13.199   5.175
98440SOL     OW97152  13.509   3.707   3.316
98440SOL    HW197153  13.479   3.695   3.226
98440SOL    HW297154  13.434   3.743   3.363
98441SOL     OW97155  10.601  14.731   6.221
98441SOL    HW197156  10.630  14.791   6.290
98441SOL    HW297157  10.535  14.780   6.173
98442SOL     OW97158   6.117   2.232  11.905
98442SOL    HW197159   6.093   2.320  11.933
98442SOL    HW297160   6.091   2.228  11.812
98443SOL     OW97161   4.927  12.744   7.290
98443SOL    HW197162   4.837  12.776   7.278
98443SOL    HW297163   4.962  12.799   7.360
98444SOL     OW97164  14.833   5.578   8.475
98444SOL    HW197165   0.043   5.591   8.522
98444SOL    HW297166  14.775   5.647   8.509
98445SOL     OW97167  11.126   1.143   0.712
98445SOL    HW197168  11.062   1.073   0.720
98445SOL    HW297169  11.199   1.116   0.768
98446SOL     OW97170   3.272   5.654   9.536
98446SOL    HW197171   3.193   5.629   9.586
98446SOL    HW297172   3.267   5.602   9.456
98447SOL     OW97173  12.695   7.399   1.170
98447SOL    HW197174  12.702   7.487   1.207
98447SOL    HW297175  12.785   7.377   1.145
98448SOL     OW97176   2.607   8.246   6.947
98448SOL    HW197177   2.563   8.323   6.983
98448SOL    HW297178   2.696   8.277   6.928
98449SOL     OW97179   7.455   3.129  14.781
98449SOL    HW197180   7.379   3.186  14.772
98449SOL    HW297181   7.524   3.186  14.815
98450SOL     OW97182   9.066   5.464   1.246
98450SOL    HW197183   8.987   5.517   1.236
98450SOL    HW297184   9.124   5.518   1.300
98451SOL     OW97185   2.098  12.563   3.347
98451SOL    HW197186   2.132  12.585   3.434
98451SOL    HW297187   2.010  12.528   3.365
98452SOL     OW97188   9.567   1.694   4.981
98452SOL    HW197189   9.593   1.684   4.889
98452SOL    HW297190   9.617   1.627   5.028
98453SOL     OW97191   9.271  14.339   6.046
98453SOL    HW197192   9.198  14.357   6.106
98453SOL    HW297193   9.278  14.244   6.045
98454SOL     OW97194   1.543  10.249   5.556
98454SOL    HW197195   1.450  10.232   5.570
98454SOL    HW297196   1.585  10.164   5.566
98455SOL     OW97197  14.577   5.329   3.713
98455SOL    HW197198  14.552   5.362   3.799
98455SOL    HW297199  14.566   5.404   3.654
98456SOL     OW97200   3.967   0.848   1.068
98456SOL    HW197201   4.007   0.766   1.037
98456SOL    HW297202   3.987   0.912   1.000
98457SOL     OW97203  10.312   4.289   6.708
98457SOL    HW197204  10.351   4.362   6.661
98457SOL    HW297205  10.219   4.312   6.716
98458SOL     OW97206  13.944   5.384   0.385
98458SOL    HW197207  13.929   5.306   0.333
98458SOL    HW297208  14.040   5.390   0.392
98459SOL     OW97209   1.727   5.179   6.946
98459SOL    HW197210   1.691   5.247   7.002
98459SOL    HW297211   1.802   5.221   6.903
98460SOL     OW97212  11.522   8.169   2.408
98460SOL    HW197213  11.556   8.080   2.401
98460SOL    HW297214  11.453   8.163   2.474
98461SOL     OW97215   9.490   1.306   3.505
98461SOL    HW197216   9.518   1.314   3.597
98461SOL    HW297217   9.496   1.395   3.471
98462SOL     OW97218  13.582   9.289  11.644
98462SOL    HW197219  13.658   9.299  11.701
98462SOL    HW297220  13.507   9.290  11.704
98463SOL     OW97221  13.782  10.469   3.633
98463SOL    HW197222  13.762  10.478   3.540
98463SOL    HW297223  13.732  10.539   3.675
98464SOL     OW97224   0.488  13.646   2.138
98464SOL    HW197225   0.528  13.595   2.208
98464SOL    HW297226   0.394  13.631   2.148
98465SOL     OW97227   7.293   6.216   6.168
98465SOL    HW197228   7.348   6.290   6.192
98465SOL    HW297229   7.324   6.144   6.223
98466SOL     OW97230   4.097   6.474  10.448
98466SOL    HW197231   4.192   6.473  10.437
98466SOL    HW297232   4.073   6.565  10.435
98467SOL     OW97233  13.097   4.114  12.915
98467SOL    HW197234  13.027   4.158  12.963
98467SOL    HW297235  13.064   4.106  12.826
98468SOL     OW97236  13.484   9.948   4.046
98468SOL    HW197237  13.404   9.944   4.100
98468SOL    HW297238  13.546   9.891   4.092
98469SOL     OW97239   0.163   0.551  11.519
98469SOL    HW197240   0.237   0.601  11.552
98469SOL    HW297241   0.101   0.550  11.592
98470SOL     OW97242   5.411  11.709  14.031
98470SOL    HW197243   5.420  11.707  14.126
98470SOL    HW297244   5.445  11.625  14.002
98471SOL     OW97245  13.813  10.665   2.182
98471SOL    HW197246  13.755  10.734   2.216
98471SOL    HW297247  13.839  10.615   2.259
98472SOL     OW97248   0.546   5.537  12.175
98472SOL    HW197249   0.621   5.564  12.122
98472SOL    HW297250   0.560   5.444  12.191
98473SOL     OW97251   3.234   2.352  12.694
98473SOL    HW197252   3.183   2.322  12.770
98473SOL    HW297253   3.325   2.350  12.725
98474SOL     OW97254   3.392   7.708   2.193
98474SOL    HW197255   3.357   7.782   2.242
98474SOL    HW297256   3.438   7.747   2.119
98475SOL     OW97257   4.335   1.289  14.431
98475SOL    HW197258   4.269   1.353  14.459
98475SOL    HW297259   4.284   1.216  14.397
98476SOL     OW97260   3.499  10.327   3.511
98476SOL    HW197261   3.421  10.273   3.523
98476SOL    HW297262   3.466  10.417   3.514
98477SOL     OW97263   6.801  12.574  14.020
98477SOL    HW197264   6.841  12.541  14.100
98477SOL    HW297265   6.727  12.626  14.049
98478SOL     OW97266   5.240   1.013  10.346
98478SOL    HW197267   5.225   0.940  10.407
98478SOL    HW297268   5.336   1.021  10.342
98479SOL     OW97269   1.129   4.486   7.275
98479SOL    HW197270   1.191   4.414   7.277
98479SOL    HW297271   1.162   4.549   7.340
98480SOL     OW97272   3.993  13.581   5.866
98480SOL    HW197273   4.070  13.549   5.820
98480SOL    HW297274   3.930  13.510   5.860
98481SOL     OW97275   8.537  13.882   0.557
98481SOL    HW197276   8.568  13.897   0.468
98481SOL    HW297277   8.455  13.834   0.546
98482SOL     OW97278   1.026   3.353   2.279
98482SOL    HW197279   0.998   3.262   2.287
98482SOL    HW297280   1.012   3.390   2.366
98483SOL     OW97281   4.664  12.008  11.061
98483SOL    HW197282   4.742  12.032  11.011
98483SOL    HW297283   4.675  11.915  11.080
98484SOL     OW97284  12.423   7.138   8.315
98484SOL    HW197285  12.465   7.057   8.345
98484SOL    HW297286  12.442   7.143   8.222
98485SOL     OW97287   9.847   7.069   3.626
98485SOL    HW197288   9.765   7.021   3.612
98485SOL    HW297289   9.821   7.146   3.676
98486SOL     OW97290   6.258   5.916  14.793
98486SOL    HW197291   6.166   5.893  14.780
98486SOL    HW297292   6.278   5.883   0.008
98487SOL     OW97293  13.560   1.155   4.596
98487SOL    HW197294  13.601   1.168   4.511
98487SOL    HW297295  13.523   1.240   4.618
98488SOL     OW97296  14.733   3.491   9.692
98488SOL    HW197297  14.748   3.476   9.599
98488SOL    HW297298  14.641   3.518   9.697
98489SOL     OW97299   7.167  13.291   3.612
98489SOL    HW197300   7.235  13.223   3.608
98489SOL    HW297301   7.091  13.247   3.649
98490SOL     OW97302   7.127   0.546   5.455
98490SOL    HW197303   7.069   0.521   5.527
98490SOL    HW297304   7.142   0.640   5.467
98491SOL     OW97305  14.871   5.946   0.594
98491SOL    HW197306  14.839   6.005   0.526
98491SOL    HW297307   0.079   5.986   0.625
98492SOL     OW97308   6.083   4.923   0.573
98492SOL    HW197309   6.073   4.978   0.495
98492SOL    HW297310   5.994   4.892   0.591
98493SOL     OW97311   5.158   8.741   7.795
98493SOL    HW197312   5.071   8.700   7.796
98493SOL    HW297313   5.171   8.773   7.884
98494SOL     OW97314   2.722   9.224   9.928
98494SOL    HW197315   2.802   9.276   9.916
98494SOL    HW297316   2.675   9.269   9.998
98495SOL     OW97317   8.333   3.621   3.191
98495SOL    HW197318   8.379   3.604   3.109
98495SOL    HW297319   8.287   3.704   3.177
98496SOL     OW97320   7.003  14.197   8.793
98496SOL    HW197321   7.077  14.241   8.751
98496SOL    HW297322   7.040  14.115   8.826
98497SOL     OW97323   1.785   6.098   3.831
98497SOL    HW197324   1.837   6.178   3.843
98497SOL    HW297325   1.698   6.121   3.863
98498SOL     OW97326   7.324   3.444   6.058
98498SOL    HW197327   7.336   3.534   6.087
98498SOL    HW297328   7.257   3.449   5.990
98499SOL     OW97329  12.349   9.684  11.307
98499SOL    HW197330  12.371   9.729  11.388
98499SOL    HW297331  12.258   9.655  11.318
98500SOL     OW97332   2.693   9.077   8.780
98500SOL    HW197333   2.745   9.140   8.831
98500SOL    HW297334   2.677   9.122   8.696
98501SOL     OW97335  11.476   0.698   6.092
98501SOL    HW197336  11.457   0.716   6.184
98501SOL    HW297337  11.569   0.718   6.082
98502SOL     OW97338   3.183   3.938  13.125
98502SOL    HW197339   3.091   3.941  13.099
98502SOL    HW297340   3.187   3.990  13.206
98503SOL     OW97341   0.104   0.863   8.942
98503SOL    HW197342   0.125   0.934   9.002
98503SOL    HW297343   0.083   0.906   8.859
98504SOL     OW97344   9.144   8.080  12.879
98504SOL    HW197345   9.136   7.986  12.862
98504SOL    HW297346   9.237   8.094  12.895
98505SOL     OW97347   2.782   8.996  10.125
98505SOL    HW197348   2.739   9.032  10.048
98505SOL    HW297349   2.797   9.071  10.182
98506SOL     OW97350   3.701   7.788   8.984
98506SOL    HW197351   3.768   7.742   9.035
98506SOL    HW297352   3.746   7.816   8.905
98507SOL     OW97353   5.529   0.665   6.671
98507SOL    HW197354   5.541   0.759   6.680
98507SOL    HW297355   5.560   0.645   6.583
98508SOL     OW97356   9.835   4.117   0.271
98508SOL    HW197357   9.836   4.127   0.366
98508SOL    HW297358   9.807   4.202   0.238
98509SOL     OW97359   2.953  12.706   3.930
98509SOL    HW197360   2.922  12.618   3.950
98509SOL    HW297361   2.920  12.724   3.842
98510SOL     OW97362  12.635   3.648   2.462
98510SOL    HW197363  12.662   3.558   2.482
98510SOL    HW297364  12.571   3.638   2.391
98511SOL     OW97365  14.543   8.970   4.146
98511SOL    HW197366  14.628   8.969   4.103
98511SOL    HW297367  14.497   8.893   4.110
98512SOL     OW97368  11.983  14.070   3.552
98512SOL    HW197369  12.039  14.064   3.474
98512SOL    HW297370  11.970  14.164   3.565
98513SOL     OW97371  14.321   1.257   6.552
98513SOL    HW197372  14.351   1.281   6.465
98513SOL    HW297373  14.247   1.199   6.537
98514SOL     OW97374   3.079   1.689   7.017
98514SOL    HW197375   3.014   1.759   7.010
98514SOL    HW297376   3.163   1.733   7.015
98515SOL     OW97377   4.962  10.665   3.449
98515SOL    HW197378   4.920  10.707   3.524
98515SOL    HW297379   4.890  10.632   3.395
98516SOL     OW97380   8.716   0.967   5.885
98516SOL    HW197381   8.722   0.920   5.803
98516SOL    HW297382   8.622   0.971   5.904
98517SOL     OW97383  11.129   6.724   4.142
98517SOL    HW197384  11.086   6.657   4.089
98517SOL    HW297385  11.186   6.770   4.081
98518SOL     OW97386   3.854   6.761   3.373
98518SOL    HW197387   3.788   6.746   3.305
98518SOL    HW297388   3.937   6.762   3.326
98519SOL     OW97389   9.956   8.013   5.232
98519SOL    HW197390  10.027   8.058   5.277
98519SOL    HW297391   9.879   8.070   5.246
98520SOL     OW97392   3.554   3.384   9.691
98520SOL    HW197393   3.486   3.415   9.752
98520SOL    HW297394   3.578   3.298   9.725
98521SOL     OW97395   3.769   8.871   0.699
98521SOL    HW197396   3.744   8.941   0.638
98521SOL    HW297397   3.710   8.799   0.677
98522SOL     OW97398   6.436   4.034   6.101
98522SOL    HW197399   6.432   4.119   6.143
98522SOL    HW297400   6.376   4.041   6.027
98523SOL     OW97401   5.746   4.281   2.530
98523SOL    HW197402   5.839   4.265   2.547
98523SOL    HW297403   5.745   4.354   2.468
98524SOL     OW97404  14.458   0.522  13.940
98524SOL    HW197405  14.463   0.460  13.867
98524SOL    HW297406  14.535   0.579  13.928
98525SOL     OW97407   4.600   8.014   0.470
98525SOL    HW197408   4.620   7.943   0.408
98525SOL    HW297409   4.633   7.981   0.554
98526SOL     OW97410   5.251   9.348   4.233
98526SOL    HW197411   5.347   9.346   4.237
98526SOL    HW297412   5.230   9.441   4.233
98527SOL     OW97413  11.007   8.347  14.242
98527SOL    HW197414  11.048   8.328  14.326
98527SOL    HW297415  10.988   8.441  14.245
98528SOL     OW97416  10.626   4.508   5.852
98528SOL    HW197417  10.633   4.601   5.829
98528SOL    HW297418  10.532   4.489   5.846
98529SOL     OW97419   6.316  11.097   1.831
98529SOL    HW197420   6.343  11.010   1.803
98529SOL    HW297421   6.223  11.087   1.853
98530SOL     OW97422   3.081  13.817  13.106
98530SOL    HW197423   3.099  13.744  13.164
98530SOL    HW297424   3.056  13.777  13.023
98531SOL     OW97425   1.762  11.316   6.096
98531SOL    HW197426   1.700  11.350   6.161
98531SOL    HW297427   1.764  11.384   6.028
98532SOL     OW97428  11.985   7.657   3.380
98532SOL    HW197429  12.059   7.615   3.422
98532SOL    HW297430  12.020   7.740   3.347
98533SOL     OW97431   7.044   1.666  14.394
98533SOL    HW197432   6.967   1.693  14.344
98533SOL    HW297433   7.050   1.572  14.381
98534SOL     OW97434   3.445  11.536   1.401
98534SOL    HW197435   3.537  11.517   1.380
98534SOL    HW297436   3.419  11.465   1.461
98535SOL     OW97437  13.283  12.493  13.842
98535SOL    HW197438  13.327  12.408  13.835
98535SOL    HW297439  13.334  12.551  13.786
98536SOL     OW97440   9.375   1.795  14.245
98536SOL    HW197441   9.459   1.750  14.256
98536SOL    HW297442   9.316   1.727  14.214
98537SOL     OW97443   1.336   3.175   7.540
98537SOL    HW197444   1.399   3.186   7.611
98537SOL    HW297445   1.254   3.209   7.575
98538SOL     OW97446   7.519   0.721   7.952
98538SOL    HW197447   7.577   0.665   8.003
98538SOL    HW297448   7.544   0.703   7.861
98539SOL     OW97449   1.109  12.454   0.922
98539SOL    HW197450   1.034  12.462   0.980
98539SOL    HW297451   1.177  12.412   0.975
98540SOL     OW97452   6.624  13.330   5.826
98540SOL    HW197453   6.541  13.283   5.812
98540SOL    HW297454   6.649  13.361   5.739
98541SOL     OW97455   3.950  14.056  11.046
98541SOL    HW197456   4.018  14.031  10.984
98541SOL    HW297457   3.872  14.070  10.993
98542SOL     OW97458   9.598  11.196   0.614
98542SOL    HW197459   9.667  11.152   0.663
98542SOL    HW297460   9.625  11.288   0.610
98543SOL     OW97461  14.399   1.211   0.778
98543SOL    HW197462  14.371   1.287   0.728
98543SOL    HW297463  14.494   1.211   0.770
98544SOL     OW97464   7.984  13.401   4.510
98544SOL    HW197465   7.908  13.460   4.510
98544SOL    HW297466   8.021  13.410   4.598
98545SOL     OW97467   2.718  14.336   3.480
98545SOL    HW197468   2.693  14.341   3.572
98545SOL    HW297469   2.650  14.385   3.434
98546SOL     OW97470   9.276   5.149   5.710
98546SOL    HW197471   9.286   5.238   5.678
98546SOL    HW297472   9.353   5.102   5.677
98547SOL     OW97473   6.687  10.912   5.060
98547SOL    HW197474   6.649  10.824   5.062
98547SOL    HW297475   6.637  10.961   5.125
98548SOL     OW97476  12.944   8.947   0.181
98548SOL    HW197477  13.016   8.958   0.242
98548SOL    HW297478  12.965   8.867   0.133
98549SOL     OW97479  11.336   8.512  13.548
98549SOL    HW197480  11.253   8.487  13.508
98549SOL    HW297481  11.395   8.525  13.473
98550SOL     OW97482   0.214   2.936  11.975
98550SOL    HW197483   0.211   2.855  12.025
98550SOL    HW297484   0.131   2.938  11.927
98551SOL     OW97485   0.020   5.459  12.124
98551SOL    HW197486   0.111   5.476  12.149
98551SOL    HW297487   0.025   5.432  12.033
98552SOL     OW97488  12.647   9.150   2.335
98552SOL    HW197489  12.603   9.133   2.252
98552SOL    HW297490  12.582   9.195   2.389
98553SOL     OW97491   1.680  10.383  12.786
98553SOL    HW197492   1.776  10.380  12.780
98553SOL    HW297493   1.654  10.453  12.726
98554SOL     OW97494   5.311   3.678   3.848
98554SOL    HW197495   5.257   3.697   3.771
98554SOL    HW297496   5.376   3.615   3.817
98555SOL     OW97497   4.594  13.174  12.418
98555SOL    HW197498   4.632  13.182  12.330
98555SOL    HW297499   4.523  13.110  12.407
98556SOL     OW97500   2.527   1.464  13.242
98556SOL    HW197501   2.561   1.448  13.154
98556SOL    HW297502   2.596   1.433  13.301
98557SOL     OW97503   5.118   6.868   9.881
98557SOL    HW197504   5.152   6.844   9.795
98557SOL    HW297505   5.173   6.820   9.943
98558SOL     OW97506  12.991   7.384   3.958
98558SOL    HW197507  13.055   7.428   3.902
98558SOL    HW297508  12.911   7.437   3.950
98559SOL     OW97509   9.691   3.635  11.711
98559SOL    HW197510   9.778   3.636  11.751
98559SOL    HW297511   9.702   3.685  11.630
98560SOL     OW97512   8.517  10.474   5.575
98560SOL    HW197513   8.468  10.412   5.520
98560SOL    HW297514   8.587  10.422   5.614
98561SOL     OW97515  12.175  14.379  12.702
98561SOL    HW197516  12.089  14.346  12.676
98561SOL    HW297517  12.167  14.400  12.795
98562SOL     OW97518  12.693   3.129   8.067
98562SOL    HW197519  12.718   3.114   7.976
98562SOL    HW297520  12.620   3.190   8.062
98563SOL     OW97521   3.739   2.334   7.968
98563SOL    HW197522   3.754   2.333   8.062
98563SOL    HW297523   3.823   2.360   7.930
98564SOL     OW97524   5.112   1.347   7.362
98564SOL    HW197525   5.141   1.434   7.391
98564SOL    HW297526   5.019   1.344   7.386
98565SOL     OW97527   7.990   9.325  11.309
98565SOL    HW197528   7.970   9.382  11.384
98565SOL    HW297529   7.923   9.257  11.312
98566SOL     OW97530   2.595  11.510   0.593
98566SOL    HW197531   2.568  11.461   0.670
98566SOL    HW297532   2.681  11.476   0.572
98567SOL     OW97533  10.358   5.842   1.648
98567SOL    HW197534  10.344   5.908   1.580
98567SOL    HW297535  10.450   5.854   1.673
98568SOL     OW97536   9.794   0.906   3.311
98568SOL    HW197537   9.726   0.845   3.282
98568SOL    HW297538   9.754   0.951   3.386
98569SOL     OW97539  12.267   4.086  13.331
98569SOL    HW197540  12.234   3.999  13.356
98569SOL    HW297541  12.202   4.118  13.268
98570SOL     OW97542   7.948   6.251   4.865
98570SOL    HW197543   7.976   6.307   4.937
98570SOL    HW297544   7.890   6.187   4.906
98571SOL     OW97545  13.951   2.939   6.258
98571SOL    HW197546  14.010   2.881   6.306
98571SOL    HW297547  13.991   2.947   6.171
98572SOL     OW97548   1.379   4.834   5.949
98572SOL    HW197549   1.383   4.887   6.028
98572SOL    HW297550   1.441   4.875   5.888
98573SOL     OW97551  12.656  12.105   9.709
98573SOL    HW197552  12.568  12.097   9.748
98573SOL    HW297553  12.716  12.096   9.784
98574SOL     OW97554   6.373   1.660   9.855
98574SOL    HW197555   6.287   1.625   9.831
98574SOL    HW297556   6.407   1.697   9.774
98575SOL     OW97557   5.720   3.735  10.322
98575SOL    HW197558   5.728   3.809  10.383
98575SOL    HW297559   5.733   3.658  10.376
98576SOL     OW97560  14.122  14.174  14.084
98576SOL    HW197561  14.171  14.157  14.164
98576SOL    HW297562  14.066  14.097  14.072
98577SOL     OW97563   2.608  13.472   2.086
98577SOL    HW197564   2.554  13.504   2.014
98577SOL    HW297565   2.579  13.382   2.100
98578SOL     OW97566   3.621   8.137   0.178
98578SOL    HW197567   3.584   8.126   0.090
98578SOL    HW297568   3.564   8.085   0.234
98579SOL     OW97569  10.376   8.645   2.197
98579SOL    HW197570  10.333   8.656   2.282
98579SOL    HW297571  10.467   8.625   2.218
98580SOL     OW97572   4.808   0.334   8.485
98580SOL    HW197573   4.738   0.277   8.517
98580SOL    HW297574   4.889   0.292   8.514
98581SOL     OW97575  12.182  14.213  12.338
98581SOL    HW197576  12.242  14.287  12.347
98581SOL    HW297577  12.100  14.243  12.376
98582SOL     OW97578   5.366   9.369  12.904
98582SOL    HW197579   5.388   9.462  12.897
98582SOL    HW297580   5.272   9.367  12.918
98583SOL     OW97581  10.322   1.082   2.241
98583SOL    HW197582  10.386   1.150   2.219
98583SOL    HW297583  10.315   1.030   2.161
98584SOL     OW97584   1.116   3.620   0.845
98584SOL    HW197585   1.037   3.605   0.793
98584SOL    HW297586   1.084   3.631   0.935
98585SOL     OW97587  13.849   9.041   5.568
98585SOL    HW197588  13.754   9.045   5.580
98585SOL    HW297589  13.876   9.132   5.562
98586SOL     OW97590   3.167   0.671   2.045
98586SOL    HW197591   3.189   0.705   2.132
98586SOL    HW297592   3.204   0.735   1.984
98587SOL     OW97593   1.847  10.928   9.759
98587SOL    HW197594   1.850  10.925   9.855
98587SOL    HW297595   1.936  10.954   9.733
98588SOL     OW97596   4.982  11.301  13.523
98588SOL    HW197597   4.915  11.291  13.455
98588SOL    HW297598   4.935  11.337  13.598
98589SOL     OW97599  10.649   0.087  11.773
98589SOL    HW197600  10.722   0.134  11.814
98589SOL    HW297601  10.639   0.007  11.826
98590SOL     OW97602   1.931   0.119  14.159
98590SOL    HW197603   1.865   0.057  14.190
98590SOL    HW297604   1.912   0.201  14.205
98591SOL     OW97605  13.939   5.061  13.826
98591SOL    HW197606  13.859   5.011  13.841
98591SOL    HW297607  13.954   5.108  13.908
98592SOL     OW97608  10.914  10.445   0.184
98592SOL    HW197609  10.896  10.430   0.277
98592SOL    HW297610  10.919  10.357   0.147
98593SOL     OW97611  14.184   7.784   1.739
98593SOL    HW197612  14.235   7.718   1.692
98593SOL    HW297613  14.216   7.780   1.829
98594SOL     OW97614  10.119  10.606   1.382
98594SOL    HW197615  10.199  10.600   1.330
98594SOL    HW297616  10.062  10.664   1.331
98595SOL     OW97617  14.350   0.972   7.680
98595SOL    HW197618  14.325   0.933   7.596
98595SOL    HW297619  14.301   1.054   7.685
98596SOL     OW97620  10.087   0.323  13.251
98596SOL    HW197621  10.049   0.411  13.241
98596SOL    HW297622  10.137   0.328  13.333
98597SOL     OW97623  12.924  14.734   9.920
98597SOL    HW197624  12.990  14.784   9.872
98597SOL    HW297625  12.955  14.735  10.011
98598SOL     OW97626  12.363  10.663   1.234
98598SOL    HW197627  12.388  10.692   1.145
98598SOL    HW297628  12.272  10.692   1.244
98599SOL     OW97629   9.251   4.783   2.338
98599SOL    HW197630   9.185   4.850   2.320
98599SOL    HW297631   9.325   4.831   2.374
98600SOL     OW97632   8.511   7.289  13.261
98600SOL    HW197633   8.500   7.269  13.354
98600SOL    HW297634   8.547   7.377  13.260
98601SOL     OW97635   1.310   4.984   2.654
98601SOL    HW197636   1.262   4.906   2.628
98601SOL    HW297637   1.401   4.963   2.638
98602SOL     OW97638  11.022  14.763  11.687
98602SOL    HW197639  10.978  14.712  11.618
98602SOL    HW297640  11.044  14.698  11.754
98603SOL     OW97641  14.543   6.391   0.927
98603SOL    HW197642  14.552   6.481   0.957
98603SOL    HW297643  14.450   6.382   0.904
98604SOL     OW97644   7.869   4.894   6.153
98604SOL    HW197645   7.931   4.830   6.117
98604SOL    HW297646   7.919   4.976   6.157
98605SOL     OW97647   1.203   4.319  14.158
98605SOL    HW197648   1.201   4.382  14.087
98605SOL    HW297649   1.159   4.363  14.231
98606SOL     OW97650   6.051  10.836   5.415
98606SOL    HW197651   6.088  10.887   5.343
98606SOL    HW297652   6.118  10.838   5.483
98607SOL     OW97653   9.048   5.618   4.202
98607SOL    HW197654   8.995   5.548   4.164
98607SOL    HW297655   8.984   5.680   4.238
98608SOL     OW97656   9.904   5.520  11.150
98608SOL    HW197657   9.841   5.490  11.085
98608SOL    HW297658   9.893   5.460  11.224
98609SOL     OW97659   6.203   4.640   2.692
98609SOL    HW197660   6.179   4.717   2.744
98609SOL    HW297661   6.139   4.638   2.621
98610SOL     OW97662  10.633   4.271   4.412
98610SOL    HW197663  10.690   4.252   4.486
98610SOL    HW297664  10.544   4.263   4.448
98611SOL     OW97665  10.392   7.275   6.779
98611SOL    HW197666  10.409   7.181   6.767
98611SOL    HW297667  10.381   7.309   6.691
98612SOL     OW97668  14.261   4.271  10.513
98612SOL    HW197669  14.298   4.300  10.597
98612SOL    HW297670  14.223   4.185  10.532
98613SOL     OW97671   3.643   9.189   1.632
98613SOL    HW197672   3.576   9.124   1.611
98613SOL    HW297673   3.726   9.145   1.616
98614SOL     OW97674   5.533  12.411  13.553
98614SOL    HW197675   5.552  12.413  13.459
98614SOL    HW297676   5.608  12.366  13.592
98615SOL     OW97677   8.056   5.814   3.570
98615SOL    HW197678   8.058   5.910   3.571
98615SOL    HW297679   7.992   5.793   3.502
98616SOL     OW97680   7.125  13.543  10.659
98616SOL    HW197681   7.099  13.571  10.571
98616SOL    HW297682   7.180  13.466  10.644
98617SOL     OW97683   4.127   6.449  13.935
98617SOL    HW197684   4.222   6.448  13.947
98617SOL    HW297685   4.103   6.357  13.932
98618SOL     OW97686   5.524   8.939  13.236
98618SOL    HW197687   5.473   8.945  13.317
98618SOL    HW297688   5.563   8.852  13.238
98619SOL     OW97689   4.751   4.114   0.388
98619SOL    HW197690   4.822   4.113   0.324
98619SOL    HW297691   4.672   4.097   0.336
98620SOL     OW97692  13.007   5.195   5.154
98620SOL    HW197693  12.914   5.217   5.144
98620SOL    HW297694  13.035   5.245   5.230
98621SOL     OW97695  11.615  13.234  12.801
98621SOL    HW197696  11.660  13.216  12.719
98621SOL    HW297697  11.686  13.255  12.863
98622SOL     OW97698   3.122   7.390   6.999
98622SOL    HW197699   3.037   7.386   6.955
98622SOL    HW297700   3.133   7.303   7.039
98623SOL     OW97701   7.113   2.845  14.588
98623SOL    HW197702   7.180   2.858  14.522
98623SOL    HW297703   7.136   2.762  14.630
98624SOL     OW97704   6.863   5.077   7.702
98624SOL    HW197705   6.893   4.990   7.729
98624SOL    HW297706   6.772   5.081   7.732
98625SOL     OW97707  10.215   2.544   3.818
98625SOL    HW197708  10.190   2.452   3.827
98625SOL    HW297709  10.211   2.579   3.906
98626SOL     OW97710   5.319   6.019   7.343
98626SOL    HW197711   5.383   6.038   7.412
98626SOL    HW297712   5.372   6.004   7.265
98627SOL     OW97713   4.451  11.016   4.575
98627SOL    HW197714   4.380  11.080   4.585
98627SOL    HW297715   4.518  11.061   4.526
98628SOL     OW97716   7.687   3.296   5.343
98628SOL    HW197717   7.710   3.216   5.389
98628SOL    HW297718   7.704   3.366   5.406
98629SOL     OW97719   1.925   7.109   3.167
98629SOL    HW197720   1.885   7.098   3.080
98629SOL    HW297721   1.940   7.020   3.198
98630SOL     OW97722   4.282   7.567   5.968
98630SOL    HW197723   4.346   7.496   5.972
98630SOL    HW297724   4.325   7.640   6.013
98631SOL     OW97725   7.895   3.931   6.354
98631SOL    HW197726   7.805   3.954   6.380
98631SOL    HW297727   7.884   3.870   6.281
98632SOL     OW97728   4.395   6.482   8.577
98632SOL    HW197729   4.481   6.499   8.615
98632SOL    HW297730   4.388   6.544   8.505
98633SOL     OW97731   9.137   8.143  11.003
98633SOL    HW197732   9.193   8.212  11.038
98633SOL    HW297733   9.157   8.066  11.056
98634SOL     OW97734   6.462   7.576  10.182
98634SOL    HW197735   6.513   7.616  10.252
98634SOL    HW297736   6.434   7.649  10.127
98635SOL     OW97737   3.405  10.215  10.563
98635SOL    HW197738   3.493  10.221  10.599
98635SOL    HW297739   3.417  10.178  10.476
98636SOL     OW97740  10.576   1.955   3.921
98636SOL    HW197741  10.492   1.985   3.954
98636SOL    HW297742  10.570   1.859   3.925
98637SOL     OW97743   9.921  11.866  11.481
98637SOL    HW197744   9.936  11.961  11.483
98637SOL    HW297745  10.002  11.830  11.446
98638SOL     OW97746   9.760   6.108  14.207
98638SOL    HW197747   9.699   6.176  14.178
98638SOL    HW297748   9.846   6.141  14.182
98639SOL     OW97749  11.103  14.149   3.480
98639SOL    HW197750  11.060  14.177   3.561
98639SOL    HW297751  11.149  14.069   3.504
98640SOL     OW97752  11.603   7.672  13.086
98640SOL    HW197753  11.567   7.593  13.126
98640SOL    HW297754  11.571   7.743  13.141
98641SOL     OW97755  11.178   1.334   9.960
98641SOL    HW197756  11.190   1.314   9.868
98641SOL    HW297757  11.256   1.298  10.003
98642SOL     OW97758  10.020   6.109   2.005
98642SOL    HW197759  10.069   6.071   1.933
98642SOL    HW297760  10.012   6.202   1.982
98643SOL     OW97761   1.204  10.316  12.121
98643SOL    HW197762   1.128  10.298  12.065
98643SOL    HW297763   1.185  10.402  12.158
98644SOL     OW97764   6.132   5.405   0.655
98644SOL    HW197765   6.138   5.422   0.561
98644SOL    HW297766   6.176   5.480   0.695
98645SOL     OW97767   7.443   8.103   4.915
98645SOL    HW197768   7.429   8.168   4.983
98645SOL    HW297769   7.374   8.038   4.929
98646SOL     OW97770  13.346  11.902   2.112
98646SOL    HW197771  13.276  11.901   2.047
98646SOL    HW297772  13.353  11.994   2.139
98647SOL     OW97773   9.839  13.873   3.572
98647SOL    HW197774   9.879  13.794   3.535
98647SOL    HW297775   9.757  13.883   3.524
98648SOL     OW97776   9.611  13.817   3.733
98648SOL    HW197777   9.703  13.842   3.727
98648SOL    HW297778   9.604  13.737   3.681
98649SOL     OW97779   9.626   0.723   5.182
98649SOL    HW197780   9.555   0.775   5.144
98649SOL    HW297781   9.623   0.744   5.275
98650SOL     OW97782   2.955   9.302   4.840
98650SOL    HW197783   3.019   9.237   4.811
98650SOL    HW297784   2.878   9.251   4.864
98651SOL     OW97785   5.986  14.664   8.244
98651SOL    HW197786   5.965  14.579   8.284
98651SOL    HW297787   6.052  14.642   8.177
98652SOL     OW97788  13.019  13.176   3.385
98652SOL    HW197789  13.060  13.122   3.453
98652SOL    HW297790  12.944  13.124   3.355
98653SOL     OW97791   2.750  11.008  12.402
98653SOL    HW197792   2.803  11.072  12.354
98653SOL    HW297793   2.663  11.047  12.406
98654SOL     OW97794   8.483   9.865  14.583
98654SOL    HW197795   8.434   9.903  14.656
98654SOL    HW297796   8.428   9.882  14.506
98655SOL     OW97797  14.209   8.895  12.911
98655SOL    HW197798  14.146   8.965  12.897
98655SOL    HW297799  14.218   8.853  12.825
98656SOL     OW97800   7.319  10.680  10.392
98656SOL    HW197801   7.357  10.606  10.344
98656SOL    HW297802   7.327  10.655  10.484
98657SOL     OW97803   7.824   2.261   6.989
98657SOL    HW197804   7.866   2.175   6.983
98657SOL    HW297805   7.746   2.253   6.934
98658SOL     OW97806  11.798   2.209   5.597
98658SOL    HW197807  11.729   2.169   5.544
98658SOL    HW297808  11.835   2.136   5.647
98659SOL     OW97809   8.829   9.791  10.085
98659SOL    HW197810   8.886   9.832  10.019
98659SOL    HW297811   8.743   9.828  10.069
98660SOL     OW97812  11.769   9.352   0.217
98660SOL    HW197813  11.723   9.321   0.139
98660SOL    HW297814  11.799   9.272   0.261
98661SOL     OW97815   2.787   0.739   6.288
98661SOL    HW197816   2.770   0.667   6.350
98661SOL    HW297817   2.768   0.818   6.338
98662SOL     OW97818  10.139   5.606   0.350
98662SOL    HW197819  10.161   5.533   0.292
98662SOL    HW297820  10.051   5.632   0.323
98663SOL     OW97821   5.096  13.531   4.657
98663SOL    HW197822   5.080  13.500   4.746
98663SOL    HW297823   5.108  13.451   4.605
98664SOL     OW97824   7.683   9.423   0.898
98664SOL    HW197825   7.716   9.378   0.820
98664SOL    HW297826   7.756   9.422   0.959
98665SOL     OW97827   0.299   6.332   4.006
98665SOL    HW197828   0.340   6.372   4.083
98665SOL    HW297829   0.241   6.264   4.043
98666SOL     OW97830   5.137   2.109  12.938
98666SOL    HW197831   5.106   2.185  12.890
98666SOL    HW297832   5.060   2.079  12.987
98667SOL     OW97833   2.024  11.368   0.489
98667SOL    HW197834   2.020  11.344   0.397
98667SOL    HW297835   2.014  11.284   0.535
98668SOL     OW97836   1.293   0.796   6.912
98668SOL    HW197837   1.229   0.739   6.871
98668SOL    HW297838   1.253   0.883   6.910
98669SOL     OW97839   7.808   4.443   1.461
98669SOL    HW197840   7.849   4.412   1.381
98669SOL    HW297841   7.861   4.517   1.489
98670SOL     OW97842  12.048   2.950  10.513
98670SOL    HW197843  12.096   2.902  10.445
98670SOL    HW297844  11.978   2.890  10.539
98671SOL     OW97845   5.035  11.366   8.745
98671SOL    HW197846   5.070  11.337   8.829
98671SOL    HW297847   5.010  11.285   8.700
98672SOL     OW97848  10.196   8.174  14.762
98672SOL    HW197849  10.287   8.149  14.746
98672SOL    HW297850  10.164   8.109  14.824
98673SOL     OW97851  14.725  14.061   8.185
98673SOL    HW197852  14.686  14.130   8.238
98673SOL    HW297853  14.651  14.013   8.149
98674SOL     OW97854   7.000   3.092  12.486
98674SOL    HW197855   7.060   3.045  12.545
98674SOL    HW297856   6.927   3.031  12.473
98675SOL     OW97857  12.117   4.020   0.514
98675SOL    HW197858  12.096   4.086   0.580
98675SOL    HW297859  12.163   4.068   0.445
98676SOL     OW97860  11.265  13.086   5.472
98676SOL    HW197861  11.336  13.149   5.468
98676SOL    HW297862  11.211  13.116   5.545
98677SOL     OW97863   4.953   4.668   9.207
98677SOL    HW197864   4.930   4.576   9.197
98677SOL    HW297865   5.042   4.667   9.243
98678SOL     OW97866   8.406  11.733   6.625
98678SOL    HW197867   8.381  11.673   6.695
98678SOL    HW297868   8.494  11.763   6.648
98679SOL     OW97869  14.657   2.649  11.186
98679SOL    HW197870  14.695   2.580  11.133
98679SOL    HW297871  14.728   2.712  11.199
98680SOL     OW97872   5.253   7.532   0.615
98680SOL    HW197873   5.193   7.477   0.564
98680SOL    HW297874   5.339   7.515   0.576
98681SOL     OW97875   4.341   6.343   1.136
98681SOL    HW197876   4.329   6.399   1.213
98681SOL    HW297877   4.300   6.392   1.064
98682SOL     OW97878  10.944   4.050   7.434
98682SOL    HW197879  10.970   4.051   7.342
98682SOL    HW297880  10.872   4.113   7.440
98683SOL     OW97881   1.441   2.137   3.324
98683SOL    HW197882   1.428   2.046   3.298
98683SOL    HW297883   1.353   2.169   3.346
98684SOL     OW97884   8.094   6.624   8.462
98684SOL    HW197885   8.041   6.700   8.483
98684SOL    HW297886   8.173   6.634   8.516
98685SOL     OW97887   8.956   1.696   9.690
98685SOL    HW197888   9.010   1.773   9.674
98685SOL    HW297889   8.913   1.680   9.605
98686SOL     OW97890   6.485   9.650   7.725
98686SOL    HW197891   6.542   9.680   7.655
98686SOL    HW297892   6.512   9.559   7.741
98687SOL     OW97893  11.293  10.926   2.582
98687SOL    HW197894  11.285  10.909   2.489
98687SOL    HW297895  11.203  10.937   2.613
98688SOL     OW97896  13.629  10.559  11.266
98688SOL    HW197897  13.594  10.515  11.344
98688SOL    HW297898  13.596  10.508  11.193
98689SOL     OW97899   0.157  13.751  11.031
98689SOL    HW197900   0.158  13.838  10.990
98689SOL    HW297901   0.242  13.743  11.072
98690SOL     OW97902   5.608   6.436  10.952
98690SOL    HW197903   5.543   6.426  10.882
98690SOL    HW297904   5.653   6.518  10.931
98691SOL     OW97905  13.368   5.644   1.430
98691SOL    HW197906  13.432   5.606   1.370
98691SOL    HW297907  13.377   5.593   1.511
98692SOL     OW97908   0.001   8.053   0.254
98692SOL    HW197909   0.075   8.083   0.307
98692SOL    HW297910  14.800   8.106   0.283
98693SOL     OW97911   0.947   5.594   4.712
98693SOL    HW197912   1.032   5.559   4.736
98693SOL    HW297913   0.965   5.682   4.680
98694SOL     OW97914   4.064   1.610  12.982
98694SOL    HW197915   3.985   1.644  12.939
98694SOL    HW297916   4.075   1.521  12.948
98695SOL     OW97917  13.424  12.069   3.277
98695SOL    HW197918  13.364  12.089   3.349
98695SOL    HW297919  13.503  12.120   3.297
98696SOL     OW97920  11.665  13.107  10.934
98696SOL    HW197921  11.578  13.080  10.961
98696SOL    HW297922  11.656  13.201  10.915
98697SOL     OW97923  13.236  10.514   3.042
98697SOL    HW197924  13.332  10.511   3.045
98697SOL    HW297925  13.208  10.461   3.116
98698SOL     OW97926  11.184  10.072   7.496
98698SOL    HW197927  11.103  10.033   7.528
98698SOL    HW297928  11.239   9.997   7.471
98699SOL     OW97929   7.236   0.899   3.148
98699SOL    HW197930   7.319   0.942   3.167
98699SOL    HW297931   7.249   0.857   3.062
98700SOL     OW97932   6.536   1.018   2.403
98700SOL    HW197933   6.615   0.969   2.426
98700SOL    HW297934   6.569   1.098   2.362
98701SOL     OW97935  11.099   6.854  12.118
98701SOL    HW197936  11.117   6.948  12.116
98701SOL    HW297937  11.015   6.845  12.073
98702SOL     OW97938   3.079   8.396  12.032
98702SOL    HW197939   3.010   8.463  12.028
98702SOL    HW297940   3.137   8.426  12.103
98703SOL     OW97941   4.907   7.837   9.779
98703SOL    HW197942   4.865   7.766   9.828
98703SOL    HW297943   4.991   7.801   9.752
98704SOL     OW97944   6.678   1.760   2.858
98704SOL    HW197945   6.731   1.838   2.877
98704SOL    HW297946   6.662   1.721   2.944
98705SOL     OW97947   4.868   8.996   5.988
98705SOL    HW197948   4.888   8.920   5.934
98705SOL    HW297949   4.824   8.961   6.065
98706SOL     OW97950   2.369   0.496   0.803
98706SOL    HW197951   2.395   0.448   0.724
98706SOL    HW297952   2.444   0.486   0.862
98707SOL     OW97953   0.375  11.772   1.100
98707SOL    HW197954   0.428  11.703   1.061
98707SOL    HW297955   0.321  11.727   1.166
98708SOL     OW97956   3.098  10.484  14.346
98708SOL    HW197957   3.141  10.556  14.393
98708SOL    HW297958   3.046  10.527  14.278
98709SOL     OW97959   0.974   0.007   1.368
98709SOL    HW197960   0.915   0.006   1.444
98709SOL    HW297961   0.933   0.067   1.306
98710SOL     OW97962  13.741   8.211   7.042
98710SOL    HW197963  13.798   8.277   7.082
98710SOL    HW297964  13.653   8.243   7.060
98711SOL     OW97965  14.702   3.668   8.407
98711SOL    HW197966  14.630   3.671   8.470
98711SOL    HW297967  14.708   3.575   8.383
98712SOL     OW97968  14.120   5.911  13.191
98712SOL    HW197969  14.046   5.885  13.138
98712SOL    HW297970  14.172   5.969  13.134
98713SOL     OW97971   0.100   5.955  12.110
98713SOL    HW197972   0.177   6.012  12.104
98713SOL    HW297973   0.078   5.954  12.203
98714SOL     OW97974   0.522   6.060  11.754
98714SOL    HW197975   0.498   6.152  11.740
98714SOL    HW297976   0.586   6.063  11.826
98715SOL     OW97977   7.473  10.980   2.065
98715SOL    HW197978   7.488  10.932   1.984
98715SOL    HW297979   7.561  10.994   2.100
98716SOL     OW97980   1.599   4.718   1.168
98716SOL    HW197981   1.675   4.662   1.180
98716SOL    HW297982   1.634   4.807   1.170
98717SOL     OW97983   8.623   8.217  11.133
98717SOL    HW197984   8.618   8.226  11.038
98717SOL    HW297985   8.539   8.177  11.158
98718SOL     OW97986   4.334  14.193  10.013
98718SOL    HW197987   4.304  14.270  10.061
98718SOL    HW297988   4.422  14.176  10.048
98719SOL     OW97989   0.447   2.828   4.458
98719SOL    HW197990   0.485   2.781   4.384
98719SOL    HW297991   0.370   2.872   4.422
98720SOL     OW97992  14.485  11.802   6.437
98720SOL    HW197993  14.560  11.757   6.475
98720SOL    HW297994  14.462  11.870   6.501
98721SOL     OW97995   3.224  14.593   3.346
98721SOL    HW197996   3.298  14.533   3.356
98721SOL    HW297997   3.147  14.536   3.349
98722SOL     OW97998   5.594   7.649  10.930
98722SOL    HW197999   5.606   7.743  10.945
98722SOL    HW298000   5.586   7.611  11.017
98723SOL     OW98001   1.056  13.124   2.190
98723SOL    HW198002   1.046  13.150   2.098
98723SOL    HW298003   1.127  13.059   2.189
98724SOL     OW98004   9.492  11.237  12.456
98724SOL    HW198005   9.511  11.283  12.538
98724SOL    HW298006   9.578  11.220  12.418
98725SOL     OW98007   9.521   7.956   0.909
98725SOL    HW198008   9.446   7.948   0.850
98725SOL    HW298009   9.596   7.963   0.850
98726SOL     OW98010  14.408   6.580   8.328
98726SOL    HW198011  14.336   6.519   8.312
98726SOL    HW298012  14.481   6.544   8.277
98727SOL     OW98013   1.088   8.477   0.477
98727SOL    HW198014   1.108   8.384   0.463
98727SOL    HW298015   1.004   8.477   0.522
98728SOL     OW98016   3.888  13.126   8.715
98728SOL    HW198017   3.939  13.084   8.784
98728SOL    HW298018   3.945  13.122   8.638
98729SOL     OW98019  12.738   6.514   7.716
98729SOL    HW198020  12.787   6.437   7.689
98729SOL    HW298021  12.653   6.505   7.673
98730SOL     OW98022   9.810   0.899  10.200
98730SOL    HW198023   9.844   0.815  10.172
98730SOL    HW298024   9.718   0.883  10.221
98731SOL     OW98025  13.734   3.841   3.498
98731SOL    HW198026  13.651   3.839   3.449
98731SOL    HW298027  13.712   3.808   3.585
98732SOL     OW98028   3.832   1.058   2.338
98732SOL    HW198029   3.766   1.036   2.272
98732SOL    HW298030   3.795   1.134   2.384
98733SOL     OW98031   0.720  10.735   1.245
98733SOL    HW198032   0.786  10.748   1.314
98733SOL    HW298033   0.639  10.715   1.292
98734SOL     OW98034   8.305   8.996  14.073
98734SOL    HW198035   8.312   9.090  14.093
98734SOL    HW298036   8.356   8.953  14.141
98735SOL     OW98037   9.365  11.635   8.790
98735SOL    HW198038   9.389  11.626   8.698
98735SOL    HW298039   9.397  11.722   8.815
98736SOL     OW98040  12.986   9.311   0.582
98736SOL    HW198041  13.073   9.286   0.614
98736SOL    HW298042  13.003   9.368   0.507
98737SOL     OW98043   1.948   7.304  11.202
98737SOL    HW198044   1.923   7.381  11.150
98737SOL    HW298045   1.874   7.291  11.262
98738SOL     OW98046   6.656   5.951  12.970
98738SOL    HW198047   6.601   5.923  12.897
98738SOL    HW298048   6.731   5.994  12.928
98739SOL     OW98049   4.420   1.844   2.361
98739SOL    HW198050   4.448   1.928   2.398
98739SOL    HW298051   4.338   1.824   2.405
98740SOL     OW98052   8.174  12.841   6.969
98740SOL    HW198053   8.207  12.809   7.054
98740SOL    HW298054   8.238  12.907   6.942
98741SOL     OW98055   3.630  14.077  12.418
98741SOL    HW198056   3.555  14.057  12.362
98741SOL    HW298057   3.609  14.037  12.502
98742SOL     OW98058  13.897   8.718  11.846
98742SOL    HW198059  13.928   8.767  11.769
98742SOL    HW298060  13.974   8.671  11.877
98743SOL     OW98061  13.568  11.776  12.868
98743SOL    HW198062  13.510  11.712  12.910
98743SOL    HW298063  13.653  11.763  12.909
98744SOL     OW98064   7.173   8.402  10.528
98744SOL    HW198065   7.135   8.429  10.612
98744SOL    HW298066   7.158   8.477  10.470
98745SOL     OW98067   3.596   4.789   2.817
98745SOL    HW198068   3.586   4.825   2.905
98745SOL    HW298069   3.687   4.808   2.794
98746SOL     OW98070   4.785   2.606   0.139
98746SOL    HW198071   4.829   2.601   0.054
98746SOL    HW298072   4.850   2.645   0.198
98747SOL     OW98073   1.614  11.919   4.339
98747SOL    HW198074   1.558  11.882   4.272
98747SOL    HW298075   1.666  11.986   4.294
98748SOL     OW98076  10.777   0.518   3.851
98748SOL    HW198077  10.774   0.422   3.849
98748SOL    HW298078  10.837   0.541   3.779
98749SOL     OW98079   3.050   9.792   2.047
98749SOL    HW198080   3.122   9.732   2.027
98749SOL    HW298081   2.972   9.747   2.016
98750SOL     OW98082   5.598   5.890  10.689
98750SOL    HW198083   5.596   5.815  10.630
98750SOL    HW298084   5.506   5.911  10.704
98751SOL     OW98085   1.953  13.115  13.798
98751SOL    HW198086   1.974  13.029  13.834
98751SOL    HW298087   1.991  13.177  13.861
98752SOL     OW98088   9.941   3.831   9.423
98752SOL    HW198089   9.850   3.810   9.404
98752SOL    HW298090   9.991   3.762   9.379
98753SOL     OW98091  10.490   0.805   1.385
98753SOL    HW198092  10.398   0.784   1.366
98753SOL    HW298093  10.524   0.839   1.302
98754SOL     OW98094  14.466  12.635  13.984
98754SOL    HW198095  14.434  12.545  13.983
98754SOL    HW298096  14.477  12.658  13.891
98755SOL     OW98097  14.636   4.425   2.412
98755SOL    HW198098  14.547   4.461   2.411
98755SOL    HW298099  14.626   4.337   2.376
98756SOL     OW98100  10.208   6.440   5.448
98756SOL    HW198101  10.300   6.430   5.475
98756SOL    HW298102  10.158   6.393   5.514
98757SOL     OW98103   8.055  14.171   4.769
98757SOL    HW198104   8.023  14.084   4.743
98757SOL    HW298105   8.074  14.162   4.863
98758SOL     OW98106   0.163  12.068   2.442
98758SOL    HW198107   0.164  12.026   2.356
98758SOL    HW298108   0.240  12.125   2.441
98759SOL     OW98109  13.673  14.473   4.802
98759SOL    HW198110  13.601  14.415   4.779
98759SOL    HW298111  13.731  14.471   4.726
98760SOL     OW98112  10.014   0.426   2.119
98760SOL    HW198113  10.046   0.473   2.043
98760SOL    HW298114   9.969   0.349   2.083
98761SOL     OW98115  12.186  13.843   7.277
98761SOL    HW198116  12.184  13.908   7.348
98761SOL    HW298117  12.095  13.837   7.248
98762SOL     OW98118   2.086   1.290   4.616
98762SOL    HW198119   2.078   1.278   4.521
98762SOL    HW298120   2.128   1.375   4.626
98763SOL     OW98121  11.501   7.228   3.565
98763SOL    HW198122  11.421   7.274   3.589
98763SOL    HW298123  11.550   7.292   3.513
98764SOL     OW98124   4.010  12.511   5.588
98764SOL    HW198125   4.091  12.460   5.592
98764SOL    HW298126   3.940  12.446   5.598
98765SOL     OW98127  13.236   3.140  11.515
98765SOL    HW198128  13.239   3.088  11.435
98765SOL    HW298129  13.178   3.091  11.573
98766SOL     OW98130   8.983   7.911  14.683
98766SOL    HW198131   9.015   7.995  14.650
98766SOL    HW298132   8.888   7.915  14.672
98767SOL     OW98133   3.663  14.250   2.795
98767SOL    HW198134   3.731  14.266   2.861
98767SOL    HW298135   3.585  14.293   2.831
98768SOL     OW98136   7.443   8.703  12.245
98768SOL    HW198137   7.405   8.787  12.216
98768SOL    HW298138   7.536   8.723  12.260
98769SOL     OW98139   7.449  12.688   8.989
98769SOL    HW198140   7.411  12.625   9.051
98769SOL    HW298141   7.518  12.731   9.039
98770SOL     OW98142  11.979   5.382   3.389
98770SOL    HW198143  12.041   5.455   3.383
98770SOL    HW298144  11.967   5.352   3.299
98771SOL     OW98145  11.539   5.240   7.993
98771SOL    HW198146  11.537   5.335   7.987
98771SOL    HW298147  11.468   5.218   8.055
98772SOL     OW98148   8.317   1.424   0.746
98772SOL    HW198149   8.289   1.512   0.769
98772SOL    HW298150   8.410   1.422   0.770
98773SOL     OW98151  11.964  12.261  12.616
98773SOL    HW198152  11.872  12.246  12.640
98773SOL    HW298153  11.962  12.340  12.562
98774SOL     OW98154   5.149   1.163   2.523
98774SOL    HW198155   5.153   1.243   2.470
98774SOL    HW298156   5.207   1.180   2.596
98775SOL     OW98157   8.226   2.574   8.265
98775SOL    HW198158   8.194   2.577   8.354
98775SOL    HW298159   8.183   2.647   8.220
98776SOL     OW98160   0.381  12.905  12.585
98776SOL    HW198161   0.353  12.992  12.612
98776SOL    HW298162   0.436  12.873  12.657
98777SOL     OW98163  14.416   9.237  14.302
98777SOL    HW198164  14.484   9.300  14.327
98777SOL    HW298165  14.428   9.164  14.362
98778SOL     OW98166  12.251   0.781   3.497
98778SOL    HW198167  12.243   0.869   3.533
98778SOL    HW298168  12.344   0.770   3.479
98779SOL     OW98169   8.194   7.157   2.407
98779SOL    HW198170   8.247   7.212   2.464
98779SOL    HW298171   8.251   7.082   2.386
98780SOL     OW98172  14.501  12.673   9.433
98780SOL    HW198173  14.554  12.667   9.512
98780SOL    HW298174  14.424  12.724   9.459
98781SOL     OW98175  10.770   1.705   4.963
98781SOL    HW198176  10.760   1.627   4.908
98781SOL    HW298177  10.858   1.698   5.000
98782SOL     OW98178   9.325   0.719  13.204
98782SOL    HW198179   9.417   0.704  13.184
98782SOL    HW298180   9.277   0.668  13.139
98783SOL     OW98181  12.932   2.995  10.772
98783SOL    HW198182  12.945   3.073  10.718
98783SOL    HW298183  12.988   2.929  10.732
98784SOL     OW98184   7.395   4.069  11.992
98784SOL    HW198185   7.401   3.978  12.021
98784SOL    HW298186   7.330   4.067  11.922
98785SOL     OW98187   6.014   0.468   6.982
98785SOL    HW198188   6.003   0.488   6.889
98785SOL    HW298189   6.046   0.378   6.984
98786SOL     OW98190   7.183  14.432   5.396
98786SOL    HW198191   7.130  14.479   5.331
98786SOL    HW298192   7.186  14.491   5.471
98787SOL     OW98193  11.922   0.864   0.505
98787SOL    HW198194  11.892   0.791   0.560
98787SOL    HW298195  11.919   0.830   0.416
98788SOL     OW98196  12.979   8.788   4.452
98788SOL    HW198197  12.916   8.855   4.424
98788SOL    HW298198  13.026   8.827   4.525
98789SOL     OW98199   8.737   1.671   5.365
98789SOL    HW198200   8.824   1.694   5.398
98789SOL    HW298201   8.677   1.724   5.418
98790SOL     OW98202   8.005   5.406   1.817
98790SOL    HW198203   8.078   5.414   1.756
98790SOL    HW298204   7.935   5.364   1.766
98791SOL     OW98205   4.105  11.031   8.952
98791SOL    HW198206   4.163  11.107   8.960
98791SOL    HW298207   4.025  11.057   8.997
98792SOL     OW98208   0.347   9.965  10.010
98792SOL    HW198209   0.346   9.870  10.002
98792SOL    HW298210   0.301   9.997   9.933
98793SOL     OW98211  10.286  12.593   7.055
98793SOL    HW198212  10.361  12.598   6.996
98793SOL    HW298213  10.312  12.530   7.122
98794SOL     OW98214   3.987  13.302   7.308
98794SOL    HW198215   4.067  13.318   7.357
98794SOL    HW298216   3.916  13.316   7.371
98795SOL     OW98217   5.979  13.936   3.114
98795SOL    HW198218   6.058  13.905   3.070
98795SOL    HW298219   5.949  14.010   3.061
98796SOL     OW98220  13.852   7.338   2.990
98796SOL    HW198221  13.942   7.344   2.959
98796SOL    HW298222  13.832   7.245   2.987
98797SOL     OW98223  13.427  11.531   0.739
98797SOL    HW198224  13.401  11.549   0.829
98797SOL    HW298225  13.400  11.610   0.690
98798SOL     OW98226  10.606   1.090   4.853
98798SOL    HW198227  10.542   1.028   4.818
98798SOL    HW298228  10.600   1.079   4.948
98799SOL     OW98229   3.310   0.136   3.916
98799SOL    HW198230   3.347   0.075   3.853
98799SOL    HW298231   3.386   0.175   3.959
98800SOL     OW98232  14.776   0.126   1.258
98800SOL    HW198233  14.865   0.097   1.237
98800SOL    HW298234  14.735   0.140   1.172
98801SOL     OW98235   0.150   2.010  14.805
98801SOL    HW198236   0.077   2.007  14.744
98801SOL    HW298237   0.172   1.919  14.823
98802SOL     OW98238   0.748   5.391   8.329
98802SOL    HW198239   0.729   5.470   8.380
98802SOL    HW298240   0.741   5.320   8.393
98803SOL     OW98241   1.757  12.412   0.918
98803SOL    HW198242   1.821  12.461   0.866
98803SOL    HW298243   1.710  12.479   0.967
98804SOL     OW98244   5.796   1.906  13.926
98804SOL    HW198245   5.706   1.939  13.935
98804SOL    HW298246   5.829   1.902  14.016
98805SOL     OW98247  11.569  10.082  12.061
98805SOL    HW198248  11.544  10.154  12.003
98805SOL    HW298249  11.512  10.009  12.034
98806SOL     OW98250   0.027  13.519   4.871
98806SOL    HW198251  14.850  13.590   4.911
98806SOL    HW298252   0.022  13.537   4.777
98807SOL     OW98253   8.755   6.930  12.958
98807SOL    HW198254   8.720   6.999  13.015
98807SOL    HW298255   8.686   6.913  12.895
98808SOL     OW98256  14.499   5.123   8.419
98808SOL    HW198257  14.468   5.079   8.498
98808SOL    HW298258  14.525   5.210   8.448
98809SOL     OW98259   3.815   1.554   7.487
98809SOL    HW198260   3.905   1.534   7.512
98809SOL    HW298261   3.762   1.487   7.532
98810SOL     OW98262   2.699   3.526   2.401
98810SOL    HW198263   2.721   3.434   2.393
98810SOL    HW298264   2.740   3.568   2.325
98811SOL     OW98265   1.692   5.619   0.237
98811SOL    HW198266   1.767   5.560   0.241
98811SOL    HW298267   1.670   5.625   0.144
98812SOL     OW98268   6.462  14.135  13.498
98812SOL    HW198269   6.478  14.163  13.407
98812SOL    HW298270   6.388  14.187  13.527
98813SOL     OW98271   2.081  12.788   7.527
98813SOL    HW198272   2.082  12.767   7.620
98813SOL    HW298273   2.040  12.875   7.522
98814SOL     OW98274   8.341   7.775   6.166
98814SOL    HW198275   8.363   7.856   6.212
98814SOL    HW298276   8.326   7.802   6.076
98815SOL     OW98277   7.523   6.965   4.264
98815SOL    HW198278   7.572   6.910   4.325
98815SOL    HW298279   7.443   6.987   4.310
98816SOL     OW98280   4.048   2.746  14.498
98816SOL    HW198281   4.102   2.784  14.429
98816SOL    HW298282   4.028   2.658  14.467
98817SOL     OW98283   3.926   9.536  14.802
98817SOL    HW198284   3.900   9.575  14.719
98817SOL    HW298285   3.984   9.464  14.777
98818SOL     OW98286   9.196   3.887   5.252
98818SOL    HW198287   9.159   3.839   5.178
98818SOL    HW298288   9.249   3.955   5.213
98819SOL     OW98289   1.962  11.441   5.267
98819SOL    HW198290   1.965  11.348   5.289
98819SOL    HW298291   2.054  11.466   5.258
98820SOL     OW98292  10.340   7.351   3.323
98820SOL    HW198293  10.402   7.401   3.376
98820SOL    HW298294  10.304   7.416   3.262
98821SOL     OW98295   0.018   5.689   0.518
98821SOL    HW198296   0.046   5.712   0.429
98821SOL    HW298297  14.868   5.773   0.558
98822SOL     OW98298   7.504   2.438  13.521
98822SOL    HW198299   7.470   2.401  13.439
98822SOL    HW298300   7.597   2.451  13.504
98823SOL     OW98301  13.675   4.092   2.877
98823SOL    HW198302  13.764   4.066   2.855
98823SOL    HW298303  13.679   4.187   2.886
98824SOL     OW98304   9.852   2.374   5.625
98824SOL    HW198305   9.920   2.442   5.622
98824SOL    HW298306   9.771   2.420   5.607
98825SOL     OW98307   8.006  13.014   7.950
98825SOL    HW198308   7.948  13.085   7.921
98825SOL    HW298309   8.085  13.058   7.981
98826SOL     OW98310   9.980  13.307  13.423
98826SOL    HW198311  10.021  13.391  13.441
98826SOL    HW298312  10.040  13.242  13.459
98827SOL     OW98313   1.726   8.998  13.027
98827SOL    HW198314   1.683   9.066  13.079
98827SOL    HW298315   1.666   8.924  13.029
98828SOL     OW98316   5.930   8.864   9.534
98828SOL    HW198317   5.938   8.935   9.470
98828SOL    HW298318   6.014   8.819   9.530
98829SOL     OW98319  12.056  10.950   6.532
98829SOL    HW198320  11.988  10.994   6.481
98829SOL    HW298321  12.134  11.004   6.518
98830SOL     OW98322   0.147   8.909   3.750
98830SOL    HW198323   0.089   8.843   3.788
98830SOL    HW298324   0.090   8.986   3.739
98831SOL     OW98325   7.087   3.481   7.626
98831SOL    HW198326   7.097   3.445   7.538
98831SOL    HW298327   7.059   3.407   7.679
98832SOL     OW98328   7.728  14.678  13.534
98832SOL    HW198329   7.673  14.651  13.608
98832SOL    HW298330   7.665  14.715  13.471
98833SOL     OW98331  10.550   0.239  13.537
98833SOL    HW198332  10.621   0.186  13.574
98833SOL    HW298333  10.471   0.207  13.581
98834SOL     OW98334   1.329   5.437  11.949
98834SOL    HW198335   1.419   5.468  11.934
98834SOL    HW298336   1.310   5.382  11.874
98835SOL     OW98337   0.538   6.858  10.116
98835SOL    HW198338   0.576   6.913  10.184
98835SOL    HW298339   0.540   6.770  10.152
98836SOL     OW98340  13.751   4.799   6.582
98836SOL    HW198341  13.791   4.882   6.609
98836SOL    HW298342  13.676   4.825   6.528
98837SOL     OW98343  14.328   2.788   4.857
98837SOL    HW198344  14.386   2.788   4.933
98837SOL    HW298345  14.264   2.719   4.876
98838SOL     OW98346   4.029   4.842   4.538
98838SOL    HW198347   4.022   4.824   4.444
98838SOL    HW298348   4.095   4.780   4.569
98839SOL     OW98349  12.511  12.567  12.114
98839SOL    HW198350  12.530  12.502  12.181
98839SOL    HW298351  12.586  12.565  12.056
98840SOL     OW98352  12.185   1.194  13.723
98840SOL    HW198353  12.119   1.212  13.656
98840SOL    HW298354  12.268   1.188  13.675
98841SOL     OW98355   5.768  11.705   1.995
98841SOL    HW198356   5.807  11.629   2.038
98841SOL    HW298357   5.841  11.766   1.984
98842SOL     OW98358  11.133   6.485   1.848
98842SOL    HW198359  11.082   6.451   1.922
98842SOL    HW298360  11.069   6.533   1.796
98843SOL     OW98361   2.914  12.687  10.935
98843SOL    HW198362   2.983  12.668  10.872
98843SOL    HW298363   2.837  12.707  10.882
98844SOL     OW98364  10.968  12.511   2.237
98844SOL    HW198365  10.922  12.478   2.314
98844SOL    HW298366  10.957  12.606   2.242
98845SOL     OW98367   3.622   5.591   0.561
98845SOL    HW198368   3.579   5.665   0.518
98845SOL    HW298369   3.555   5.556   0.620
98846SOL     OW98370  10.699  13.431   1.848
98846SOL    HW198371  10.612  13.470   1.852
98846SOL    HW298372  10.745  13.467   1.923
98847SOL     OW98373   6.603   5.985   3.324
98847SOL    HW198374   6.547   6.026   3.390
98847SOL    HW298375   6.674   5.944   3.374
98848SOL     OW98376   9.971   2.698   4.038
98848SOL    HW198377  10.045   2.650   4.073
98848SOL    HW298378   9.901   2.684   4.101
98849SOL     OW98379  10.801   0.452   7.178
98849SOL    HW198380  10.774   0.513   7.246
98849SOL    HW298381  10.719   0.425   7.136
98850SOL     OW98382  12.377  14.044   6.189
98850SOL    HW198383  12.297  14.025   6.237
98850SOL    HW298384  12.355  14.029   6.097
98851SOL     OW98385   0.258   9.724   9.137
98851SOL    HW198386   0.302   9.668   9.073
98851SOL    HW298387   0.315   9.801   9.144
98852SOL     OW98388   1.738   6.561  10.540
98852SOL    HW198389   1.765   6.640  10.587
98852SOL    HW298390   1.816   6.505  10.540
98853SOL     OW98391   1.454   8.388   7.937
98853SOL    HW198392   1.544   8.364   7.959
98853SOL    HW298393   1.403   8.309   7.957
98854SOL     OW98394   0.635   3.082  13.225
98854SOL    HW198395   0.609   3.133  13.148
98854SOL    HW298396   0.642   3.147  13.295
98855SOL     OW98397   8.089   1.838  13.148
98855SOL    HW198398   8.082   1.898  13.074
98855SOL    HW298399   8.021   1.773  13.132
98856SOL     OW98400  10.238  14.047  12.430
98856SOL    HW198401  10.268  14.070  12.518
98856SOL    HW298402  10.305  13.987  12.397
98857SOL     OW98403   3.802   4.179   3.349
98857SOL    HW198404   3.869   4.130   3.396
98857SOL    HW298405   3.738   4.113   3.321
98858SOL     OW98406   9.148   2.641  13.241
98858SOL    HW198407   9.188   2.645  13.328
98858SOL    HW298408   9.222   2.635  13.181
98859SOL     OW98409   7.551   0.071  14.375
98859SOL    HW198410   7.627   0.090  14.319
98859SOL    HW298411   7.588   0.024  14.450
98860SOL     OW98412   5.882   8.216  10.472
98860SOL    HW198413   5.827   8.143  10.501
98860SOL    HW298414   5.957   8.174  10.431
98861SOL     OW98415  11.594   2.054   0.215
98861SOL    HW198416  11.539   2.133   0.218
98861SOL    HW298417  11.631   2.047   0.303
98862SOL     OW98418   6.608   8.824   3.662
98862SOL    HW198419   6.537   8.854   3.719
98862SOL    HW298420   6.629   8.901   3.609
98863SOL     OW98421  12.767   8.927   7.046
98863SOL    HW198422  12.856   8.891   7.047
98863SOL    HW298423  12.752   8.957   7.135
98864SOL     OW98424   5.111   5.021  10.420
98864SOL    HW198425   5.169   5.082  10.374
98864SOL    HW298426   5.063   5.076  10.482
98865SOL     OW98427   1.669  12.741  11.878
98865SOL    HW198428   1.718  12.748  11.960
98865SOL    HW298429   1.581  12.716  11.904
98866SOL     OW98430   8.367  13.006  11.702
98866SOL    HW198431   8.447  12.963  11.733
98866SOL    HW298432   8.398  13.089  11.665
98867SOL     OW98433  11.765  13.882  13.644
98867SOL    HW198434  11.695  13.918  13.699
98867SOL    HW298435  11.824  13.956  13.630
98868SOL     OW98436   9.621   1.307   4.344
98868SOL    HW198437   9.614   1.230   4.288
98868SOL    HW298438   9.534   1.316   4.383
98869SOL     OW98439  11.496   7.623   2.757
98869SOL    HW198440  11.532   7.708   2.732
98869SOL    HW298441  11.556   7.591   2.825
98870SOL     OW98442   3.876  10.549   3.502
98870SOL    HW198443   3.935  10.511   3.567
98870SOL    HW298444   3.791  10.509   3.520
98871SOL     OW98445   5.497   4.407   0.962
98871SOL    HW198446   5.461   4.339   1.020
98871SOL    HW298447   5.419   4.451   0.928
98872SOL     OW98448   1.857  12.797   5.320
98872SOL    HW198449   1.888  12.731   5.381
98872SOL    HW298450   1.781  12.757   5.277
98873SOL     OW98451   8.141   5.744   8.796
98873SOL    HW198452   8.212   5.695   8.755
98873SOL    HW298453   8.062   5.693   8.775
98874SOL     OW98454   4.255   8.289   4.301
98874SOL    HW198455   4.350   8.279   4.302
98874SOL    HW298456   4.222   8.205   4.332
98875SOL     OW98457  10.712  13.799   5.091
98875SOL    HW198458  10.643  13.795   5.157
98875SOL    HW298459  10.676  13.751   5.016
98876SOL     OW98460   4.849   7.111   3.101
98876SOL    HW198461   4.916   7.100   3.034
98876SOL    HW298462   4.858   7.033   3.156
98877SOL     OW98463   7.281   7.229   8.456
98877SOL    HW198464   7.264   7.208   8.364
98877SOL    HW298465   7.366   7.189   8.475
98878SOL     OW98466   0.807   8.558   9.406
98878SOL    HW198467   0.895   8.524   9.422
98878SOL    HW298468   0.748   8.489   9.438
98879SOL     OW98469  12.804   6.371  11.742
98879SOL    HW198470  12.715   6.401  11.756
98879SOL    HW298471  12.806   6.340  11.652
98880SOL     OW98472  12.838   3.357   4.216
98880SOL    HW198473  12.779   3.283   4.200
98880SOL    HW298474  12.855   3.392   4.128
98881SOL     OW98475   1.762   1.478  11.288
98881SOL    HW198476   1.822   1.488  11.362
98881SOL    HW298477   1.768   1.385  11.264
98882SOL     OW98478   0.278   1.299   5.784
98882SOL    HW198479   0.252   1.298   5.692
98882SOL    HW298480   0.220   1.236   5.826
98883SOL     OW98481   2.166  10.544  11.920
98883SOL    HW198482   2.238  10.518  11.977
98883SOL    HW298483   2.120  10.612  11.970
98884SOL     OW98484   1.706  13.615   9.259
98884SOL    HW198485   1.662  13.588   9.179
98884SOL    HW298486   1.733  13.705   9.242
98885SOL     OW98487   7.132   9.704  13.031
98885SOL    HW198488   7.117   9.798  13.040
98885SOL    HW298489   7.224   9.696  13.008
98886SOL     OW98490  13.472   5.685   5.410
98886SOL    HW198491  13.444   5.613   5.466
98886SOL    HW298492  13.513   5.643   5.335
98887SOL     OW98493   4.261   7.755  10.827
98887SOL    HW198494   4.193   7.714  10.773
98887SOL    HW298495   4.229   7.747  10.916
98888SOL     OW98496  14.678  11.007   2.891
98888SOL    HW198497  14.708  11.010   2.982
98888SOL    HW298498  14.696  11.095   2.857
98889SOL     OW98499  12.552   4.106  13.819
98889SOL    HW198500  12.582   4.016  13.806
98889SOL    HW298501  12.588   4.155  13.744
98890SOL     OW98502  14.656   1.071   2.672
98890SOL    HW198503  14.566   1.037   2.676
98890SOL    HW298504  14.695   1.044   2.755
98891SOL     OW98505   6.737  11.829  14.744
98891SOL    HW198506   6.651  11.822  14.701
98891SOL    HW298507   6.717  11.831  14.837
98892SOL     OW98508  13.401   2.407  12.907
98892SOL    HW198509  13.397   2.401  13.003
98892SOL    HW298510  13.482   2.360  12.884
98893SOL     OW98511   2.004   3.755   3.596
98893SOL    HW198512   2.019   3.841   3.556
98893SOL    HW298513   1.909   3.743   3.591
98894SOL     OW98514   9.917   3.781  12.256
98894SOL    HW198515   9.850   3.726  12.216
98894SOL    HW298516   9.988   3.721  12.280
98895SOL     OW98517   3.187   1.769   1.904
98895SOL    HW198518   3.212   1.859   1.883
98895SOL    HW298519   3.092   1.771   1.911
98896SOL     OW98520   6.217   1.275  13.643
98896SOL    HW198521   6.127   1.265  13.613
98896SOL    HW298522   6.226   1.368  13.662
98897SOL     OW98523   1.926   6.920   2.702
98897SOL    HW198524   1.914   7.005   2.745
98897SOL    HW298525   2.017   6.921   2.673
98898SOL     OW98526   7.382   9.637  12.988
98898SOL    HW198527   7.456   9.697  12.995
98898SOL    HW298528   7.420   9.549  12.995
98899SOL     OW98529  13.092   5.435   4.945
98899SOL    HW198530  13.147   5.425   5.022
98899SOL    HW298531  13.056   5.347   4.929
98900SOL     OW98532   9.345  12.908   4.569
98900SOL    HW198533   9.316  12.890   4.480
98900SOL    HW298534   9.425  12.857   4.579
98901SOL     OW98535   8.029   3.874  13.654
98901SOL    HW198536   8.036   3.951  13.711
98901SOL    HW298537   8.100   3.816  13.683
98902SOL     OW98538  10.314  11.561   6.175
98902SOL    HW198539  10.224  11.593   6.178
98902SOL    HW298540  10.315  11.498   6.103
98903SOL     OW98541   6.195  13.455   3.531
98903SOL    HW198542   6.125  13.390   3.523
98903SOL    HW298543   6.150  13.538   3.548
98904SOL     OW98544   8.257   4.398   0.643
98904SOL    HW198545   8.333   4.442   0.602
98904SOL    HW298546   8.191   4.467   0.650
98905SOL     OW98547  11.573  14.430   5.000
98905SOL    HW198548  11.588  14.361   5.064
98905SOL    HW298549  11.565  14.383   4.916
98906SOL     OW98550  13.803  13.264  12.299
98906SOL    HW198551  13.781  13.297  12.386
98906SOL    HW298552  13.808  13.343  12.245
98907SOL     OW98553   9.802   2.104  12.282
98907SOL    HW198554   9.755   2.128  12.362
98907SOL    HW298555   9.851   2.026  12.306
98908SOL     OW98556   1.537  12.323  12.373
98908SOL    HW198557   1.524  12.314  12.468
98908SOL    HW298558   1.478  12.258  12.335
98909SOL     OW98559  12.190  11.417   1.615
98909SOL    HW198560  12.148  11.331   1.616
98909SOL    HW298561  12.189  11.446   1.706
98910SOL     OW98562   8.536  10.167  10.585
98910SOL    HW198563   8.527  10.262  10.572
98910SOL    HW298564   8.453  10.131  10.555
98911SOL     OW98565   6.687   2.650   0.965
98911SOL    HW198566   6.751   2.624   0.899
98911SOL    HW298567   6.653   2.734   0.933
98912SOL     OW98568   2.226  10.589   1.121
98912SOL    HW198569   2.240  10.656   1.054
98912SOL    HW298570   2.195  10.638   1.197
98913SOL     OW98571   8.362   4.071   3.615
98913SOL    HW198572   8.278   4.026   3.617
98913SOL    HW298573   8.426   4.002   3.634
98914SOL     OW98574  12.070   4.534   7.839
98914SOL    HW198575  11.997   4.551   7.899
98914SOL    HW298576  12.123   4.467   7.882
98915SOL     OW98577  13.485   2.209   1.527
98915SOL    HW198578  13.436   2.265   1.588
98915SOL    HW298579  13.575   2.239   1.534
98916SOL     OW98580   4.542  12.821   5.087
98916SOL    HW198581   4.456  12.830   5.048
98916SOL    HW298582   4.527  12.773   5.169
98917SOL     OW98583   1.739  10.442   5.652
98917SOL    HW198584   1.661  10.399   5.619
98917SOL    HW298585   1.812  10.392   5.615
98918SOL     OW98586   4.086   1.226   5.237
98918SOL    HW198587   4.113   1.163   5.171
98918SOL    HW298588   4.143   1.301   5.224
98919SOL     OW98589   2.173   5.444  10.276
98919SOL    HW198590   2.221   5.368  10.308
98919SOL    HW298591   2.134   5.415  10.194
98920SOL     OW98592   9.791   3.614   6.858
98920SOL    HW198593   9.849   3.585   6.928
98920SOL    HW298594   9.825   3.572   6.779
98921SOL     OW98595  10.538  11.307   6.843
98921SOL    HW198596  10.587  11.265   6.913
98921SOL    HW298597  10.564  11.398   6.846
98922SOL     OW98598   7.839  10.598   0.855
98922SOL    HW198599   7.911  10.537   0.869
98922SOL    HW298600   7.869  10.680   0.895
98923SOL     OW98601   9.767   2.074   4.215
98923SOL    HW198602   9.777   2.167   4.194
98923SOL    HW298603   9.796   2.028   4.137
98924SOL     OW98604   7.689  11.193   7.984
98924SOL    HW198605   7.741  11.135   8.040
98924SOL    HW298606   7.613  11.140   7.960
98925SOL     OW98607  11.277  12.749  13.159
98925SOL    HW198608  11.222  12.677  13.188
98925SOL    HW298609  11.308  12.723  13.073
98926SOL     OW98610  11.736   1.187   3.664
98926SOL    HW198611  11.745   1.264   3.608
98926SOL    HW298612  11.660   1.206   3.720
98927SOL     OW98613   0.913   0.247   9.011
98927SOL    HW198614   0.990   0.304   9.018
98927SOL    HW298615   0.887   0.253   8.919
98928SOL     OW98616  11.147   6.613   3.207
98928SOL    HW198617  11.123   6.549   3.275
98928SOL    HW298618  11.064   6.652   3.180
98929SOL     OW98619  13.617  13.848   3.105
98929SOL    HW198620  13.649  13.863   3.194
98929SOL    HW298621  13.588  13.757   3.105
98930SOL     OW98622   3.474   2.116  12.012
98930SOL    HW198623   3.453   2.111  12.105
98930SOL    HW298624   3.474   2.209  11.991
98931SOL     OW98625   4.762   8.524   8.131
98931SOL    HW198626   4.691   8.578   8.166
98931SOL    HW298627   4.839   8.582   8.131
98932SOL     OW98628   9.160  14.177   5.522
98932SOL    HW198629   9.235  14.235   5.536
98932SOL    HW298630   9.089  14.235   5.493
98933SOL     OW98631   7.677   9.045  10.187
98933SOL    HW198632   7.659   8.952  10.203
98933SOL    HW298633   7.608   9.073  10.128
98934SOL     OW98634   7.248   1.308  10.701
98934SOL    HW198635   7.260   1.401  10.722
98934SOL    HW298636   7.290   1.298  10.616
98935SOL     OW98637   3.060   9.596   2.589
98935SOL    HW198638   3.028   9.580   2.500
98935SOL    HW298639   3.058   9.692   2.598
98936SOL     OW98640  10.787  10.490  14.014
98936SOL    HW198641  10.845  10.471  14.088
98936SOL    HW298642  10.839  10.468  13.937
98937SOL     OW98643   2.100  13.340  13.241
98937SOL    HW198644   2.056  13.300  13.166
98937SOL    HW298645   2.055  13.305  13.317
98938SOL     OW98646  13.114   0.585   3.101
98938SOL    HW198647  13.071   0.564   3.018
98938SOL    HW298648  13.050   0.563   3.168
98939SOL     OW98649   7.728   6.151   7.157
98939SOL    HW198650   7.691   6.111   7.078
98939SOL    HW298651   7.814   6.109   7.168
98940SOL     OW98652   3.392  12.558   3.560
98940SOL    HW198653   3.358  12.600   3.639
98940SOL    HW298654   3.317  12.557   3.500
98941SOL     OW98655   8.566   1.136   0.240
98941SOL    HW198656   8.587   1.150   0.332
98941SOL    HW298657   8.559   1.041   0.231
98942SOL     OW98658  10.368   8.915  12.369
98942SOL    HW198659  10.373   8.819  12.362
98942SOL    HW298660  10.293   8.939  12.314
98943SOL     OW98661  12.340  14.433   5.905
98943SOL    HW198662  12.263  14.429   5.961
98943SOL    HW298663  12.396  14.361   5.936
98944SOL     OW98664   1.803   0.923   6.806
98944SOL    HW198665   1.795   0.905   6.712
98944SOL    HW298666   1.726   0.882   6.845
98945SOL     OW98667   8.469   6.434   7.862
98945SOL    HW198668   8.389   6.457   7.814
98945SOL    HW298669   8.540   6.466   7.806
98946SOL     OW98670   0.599   8.183  10.082
98946SOL    HW198671   0.637   8.268  10.057
98946SOL    HW298672   0.596   8.187  10.178
98947SOL     OW98673   7.972   9.135   9.755
98947SOL    HW198674   8.033   9.173   9.691
98947SOL    HW298675   7.909   9.086   9.702
98948SOL     OW98676  11.778   4.624   8.908
98948SOL    HW198677  11.688   4.657   8.905
98948SOL    HW298678  11.790   4.597   8.999
98949SOL     OW98679   5.042   0.728   9.828
98949SOL    HW198680   4.962   0.680   9.808
98949SOL    HW298681   5.014   0.818   9.843
98950SOL     OW98682   5.871   3.692   3.582
98950SOL    HW198683   5.944   3.746   3.612
98950SOL    HW298684   5.913   3.616   3.540
98951SOL     OW98685  12.167   4.449   4.866
98951SOL    HW198686  12.233   4.495   4.919
98951SOL    HW298687  12.097   4.428   4.928
98952SOL     OW98688   7.143   2.340   7.114
98952SOL    HW198689   7.236   2.319   7.104
98952SOL    HW298690   7.129   2.414   7.054
98953SOL     OW98691   0.430   7.019   3.469
98953SOL    HW198692   0.394   6.936   3.437
98953SOL    HW298693   0.515   6.995   3.507
98954SOL     OW98694   1.572   0.192   6.927
98954SOL    HW198695   1.560   0.284   6.948
98954SOL    HW298696   1.622   0.193   6.845
98955SOL     OW98697   2.343  14.417   2.880
98955SOL    HW198698   2.297  14.340   2.847
98955SOL    HW298699   2.301  14.436   2.964
98956SOL     OW98700   9.767  14.478   2.477
98956SOL    HW198701   9.839  14.492   2.538
98956SOL    HW298702   9.694  14.527   2.514
98957SOL     OW98703   2.322   8.840  14.304
98957SOL    HW198704   2.351   8.910  14.362
98957SOL    HW298705   2.283   8.775  14.363
98958SOL     OW98706  13.807   5.619   0.430
98958SOL    HW198707  13.732   5.610   0.371
98958SOL    HW298708  13.855   5.537   0.420
98959SOL     OW98709   1.915   5.172   2.349
98959SOL    HW198710   1.996   5.140   2.389
98959SOL    HW298711   1.873   5.094   2.314
98960SOL     OW98712   6.182   0.340   8.996
98960SOL    HW198713   6.265   0.293   8.990
98960SOL    HW298714   6.207   0.431   9.014
98961SOL     OW98715   9.146   3.228   1.542
98961SOL    HW198716   9.198   3.297   1.500
98961SOL    HW298717   9.205   3.153   1.544
98962SOL     OW98718   7.654  14.038  10.737
98962SOL    HW198719   7.584  14.010  10.677
98962SOL    HW298720   7.679  14.124  10.706
98963SOL     OW98721   4.753   5.280   4.588
98963SOL    HW198722   4.720   5.370   4.598
98963SOL    HW298723   4.696   5.228   4.645
98964SOL     OW98724   8.498  14.641  11.355
98964SOL    HW198725   8.493  14.682  11.268
98964SOL    HW298726   8.418  14.669  11.399
98965SOL     OW98727   4.241  10.930  14.502
98965SOL    HW198728   4.212  11.021  14.511
98965SOL    HW298729   4.246  10.916  14.408
98966SOL     OW98730  14.817  12.334  13.239
98966SOL    HW198731   0.011  12.326  13.308
98966SOL    HW298732  14.736  12.305  13.280
98967SOL     OW98733   4.991  13.751   5.306
98967SOL    HW198734   5.052  13.821   5.280
98967SOL    HW298735   5.001  13.684   5.238
98968SOL     OW98736   7.257   2.646   7.283
98968SOL    HW198737   7.287   2.626   7.195
98968SOL    HW298738   7.337   2.657   7.334
98969SOL     OW98739   0.059   5.714   2.447
98969SOL    HW198740   0.042   5.620   2.459
98969SOL    HW298741  14.861   5.757   2.495
98970SOL     OW98742   1.799   2.948   8.501
98970SOL    HW198743   1.723   2.993   8.465
98970SOL    HW298744   1.806   2.979   8.591
98971SOL     OW98745   1.942   8.023   2.942
98971SOL    HW198746   1.892   7.948   2.911
98971SOL    HW298747   1.949   8.081   2.866
98972SOL     OW98748  13.361   5.311   9.525
98972SOL    HW198749  13.456   5.310   9.516
98972SOL    HW298750  13.341   5.238   9.583
98973SOL     OW98751   2.796   6.005   8.494
98973SOL    HW198752   2.848   5.926   8.506
98973SOL    HW298753   2.760   6.024   8.581
98974SOL     OW98754   9.321   0.404   6.050
98974SOL    HW198755   9.408   0.370   6.074
98974SOL    HW298756   9.312   0.485   6.100
98975SOL     OW98757   5.408   7.023  14.702
98975SOL    HW198758   5.322   6.986  14.685
98975SOL    HW298759   5.454   6.957  14.754
98976SOL     OW98760   9.557   0.800  12.330
98976SOL    HW198761   9.508   0.789  12.411
98976SOL    HW298762   9.598   0.886  12.338
98977SOL     OW98763   9.557   9.051   7.420
98977SOL    HW198764   9.582   9.020   7.333
98977SOL    HW298765   9.640   9.058   7.467
98978SOL     OW98766   2.491   5.578  12.505
98978SOL    HW198767   2.533   5.552  12.587
98978SOL    HW298768   2.554   5.637  12.464
98979SOL     OW98769   7.956   2.048   6.242
98979SOL    HW198770   7.863   2.042   6.221
98979SOL    HW298771   7.959   2.073   6.334
98980SOL     OW98772   0.438   2.577   2.367
98980SOL    HW198773   0.500   2.648   2.383
98980SOL    HW298774   0.396   2.601   2.284
98981SOL     OW98775   2.190   9.903   6.800
98981SOL    HW198776   2.110   9.932   6.755
98981SOL    HW298777   2.160   9.838   6.863
98982SOL     OW98778  11.809  14.819   1.418
98982SOL    HW198779  11.715  14.826   1.435
98982SOL    HW298780  11.842  14.761   1.487
98983SOL     OW98781   3.083   9.948   8.906
98983SOL    HW198782   3.056  10.015   8.844
98983SOL    HW298783   3.003   9.899   8.926
98984SOL     OW98784  13.800   6.453   2.944
98984SOL    HW198785  13.728   6.478   2.887
98984SOL    HW298786  13.831   6.370   2.908
98985SOL     OW98787   9.879  11.865   6.053
98985SOL    HW198788   9.819  11.934   6.026
98985SOL    HW298789   9.856  11.847   6.144
98986SOL     OW98790  14.788   8.658   1.660
98986SOL    HW198791  14.753   8.627   1.743
98986SOL    HW298792  14.743   8.741   1.644
98987SOL     OW98793  11.512   7.983   7.378
98987SOL    HW198794  11.447   7.941   7.321
98987SOL    HW298795  11.512   8.075   7.351
98988SOL     OW98796   8.676  12.147   8.342
98988SOL    HW198797   8.706  12.116   8.428
98988SOL    HW298798   8.635  12.071   8.301
98989SOL     OW98799  10.755   6.708   1.081
98989SOL    HW198800  10.794   6.652   1.148
98989SOL    HW298801  10.828   6.728   1.022
98990SOL     OW98802   6.997   0.222  14.752
98990SOL    HW198803   6.954   0.149  14.707
98990SOL    HW298804   7.068   0.248  14.694
98991SOL     OW98805   4.083   7.521   4.905
98991SOL    HW198806   4.176   7.541   4.903
98991SOL    HW298807   4.060   7.507   4.813
98992SOL     OW98808   7.994   1.470   2.070
98992SOL    HW198809   7.952   1.393   2.030
98992SOL    HW298810   8.082   1.440   2.092
98993SOL     OW98811   3.754   7.431   9.818
98993SOL    HW198812   3.803   7.437   9.736
98993SOL    HW298813   3.718   7.342   9.818
98994SOL     OW98814   3.089   0.694   8.030
98994SOL    HW198815   3.139   0.613   8.018
98994SOL    HW298816   2.998   0.666   8.033
98995SOL     OW98817  11.384   0.582   2.597
98995SOL    HW198818  11.386   0.664   2.549
98995SOL    HW298819  11.291   0.568   2.617
98996SOL     OW98820   0.500  10.831   5.646
98996SOL    HW198821   0.414  10.793   5.629
98996SOL    HW298822   0.561  10.757   5.637
98997SOL     OW98823   9.701   3.742   0.073
98997SOL    HW198824   9.689   3.794  14.866
98997SOL    HW298825   9.724   3.807   0.140
98998SOL     OW98826   0.990   7.944  14.493
98998SOL    HW198827   0.956   7.922  14.580
98998SOL    HW298828   1.007   8.038  14.497
98999SOL     OW98829   5.097   1.075  14.357
98999SOL    HW198830   5.084   1.088  14.263
98999SOL    HW298831   5.189   1.051  14.367
99000SOL     OW98832   5.524  10.873   5.101
99000SOL    HW198833   5.487  10.785   5.099
99000SOL    HW298834   5.580  10.874   5.179
99001SOL     OW98835  14.698   7.245   6.454
99001SOL    HW198836  14.696   7.339   6.471
99001SOL    HW298837  14.734   7.238   6.365
99002SOL     OW98838   8.230  13.808   1.010
99002SOL    HW198839   8.244  13.723   1.051
99002SOL    HW298840   8.184  13.860   1.076
99003SOL     OW98841  14.051   1.976   4.024
99003SOL    HW198842  14.117   1.997   4.091
99003SOL    HW298843  14.014   2.060   4.000
99004SOL     OW98844  12.504  11.045  12.300
99004SOL    HW198845  12.463  11.084  12.223
99004SOL    HW298846  12.456  10.964  12.315
99005SOL     OW98847   8.623   7.457   3.965
99005SOL    HW198848   8.691   7.434   4.029
99005SOL    HW298849   8.648   7.543   3.933
99006SOL     OW98850   7.665   3.224  13.480
99006SOL    HW198851   7.684   3.183  13.395
99006SOL    HW298852   7.652   3.317  13.459
99007SOL     OW98853   4.499   3.216  13.015
99007SOL    HW198854   4.537   3.297  13.049
99007SOL    HW298855   4.429   3.195  13.076
99008SOL     OW98856  12.503   3.639  10.332
99008SOL    HW198857  12.579   3.601  10.377
99008SOL    HW298858  12.464   3.566  10.284
99009SOL     OW98859   8.663   0.405  10.990
99009SOL    HW198860   8.641   0.425  11.081
99009SOL    HW298861   8.578   0.406  10.944
99010SOL     OW98862  14.331   8.838   7.240
99010SOL    HW198863  14.384   8.839   7.319
99010SOL    HW298864  14.241   8.844   7.271
99011SOL     OW98865   0.512   9.628  14.359
99011SOL    HW198866   0.547   9.563  14.419
99011SOL    HW298867   0.431   9.588  14.326
99012SOL     OW98868   8.364   9.876   4.407
99012SOL    HW198869   8.361   9.968   4.433
99012SOL    HW298870   8.404   9.831   4.481
99013SOL     OW98871   0.538   9.064   7.789
99013SOL    HW198872   0.575   8.979   7.814
99013SOL    HW298873   0.614   9.115   7.760
99014SOL     OW98874   8.432   7.466   0.215
99014SOL    HW198875   8.521   7.431   0.204
99014SOL    HW298876   8.409   7.445   0.306
99015SOL     OW98877   5.077   5.118   4.256
99015SOL    HW198878   5.007   5.140   4.317
99015SOL    HW298879   5.154   5.165   4.288
99016SOL     OW98880   6.245   9.252  11.843
99016SOL    HW198881   6.175   9.222  11.901
99016SOL    HW298882   6.230   9.204  11.761
99017SOL     OW98883   9.369   9.962   6.441
99017SOL    HW198884   9.398   9.940   6.353
99017SOL    HW298885   9.329   9.881   6.474
99018SOL     OW98886   9.608   2.600  10.225
99018SOL    HW198887   9.578   2.654  10.153
99018SOL    HW298888   9.530   2.555  10.256
99019SOL     OW98889  12.994  10.600   8.010
99019SOL    HW198890  13.087  10.599   7.985
99019SOL    HW298891  12.949  10.634   7.932
99020SOL     OW98892  11.389   2.644   5.175
99020SOL    HW198893  11.439   2.565   5.151
99020SOL    HW298894  11.455   2.714   5.176
99021SOL     OW98895   5.762  11.335   7.076
99021SOL    HW198896   5.844  11.286   7.068
99021SOL    HW298897   5.735  11.352   6.986
99022SOL     OW98898  11.860   6.250  13.282
99022SOL    HW198899  11.905   6.334  13.272
99022SOL    HW298900  11.921   6.196  13.332
99023SOL     OW98901  11.446  13.510   5.007
99023SOL    HW198902  11.454  13.477   4.918
99023SOL    HW298903  11.354  13.534   5.016
99024SOL     OW98904   9.288  13.596   5.064
99024SOL    HW198905   9.245  13.569   4.983
99024SOL    HW298906   9.226  13.655   5.105
99025SOL     OW98907   3.339   5.862   8.234
99025SOL    HW198908   3.375   5.824   8.154
99025SOL    HW298909   3.301   5.788   8.281
99026SOL     OW98910   2.630  14.463  10.515
99026SOL    HW198911   2.569  14.456  10.589
99026SOL    HW298912   2.714  14.435  10.552
99027SOL     OW98913   9.294   6.197  14.353
99027SOL    HW198914   9.353   6.126  14.328
99027SOL    HW298915   9.211   6.153  14.372
99028SOL     OW98916   2.728  11.077   6.416
99028SOL    HW198917   2.728  10.997   6.468
99028SOL    HW298918   2.799  11.129   6.454
99029SOL     OW98919   1.857  11.168   0.001
99029SOL    HW198920   1.809  11.113  14.813
99029SOL    HW298921   1.874  11.249  14.825
99030SOL     OW98922  11.534  11.205  11.542
99030SOL    HW198923  11.607  11.197  11.603
99030SOL    HW298924  11.545  11.292  11.503
99031SOL     OW98925   3.007   4.004   8.332
99031SOL    HW198926   3.081   4.042   8.283
99031SOL    HW298927   3.045   3.928   8.377
99032SOL     OW98928   3.848   9.019   1.547
99032SOL    HW198929   3.849   8.928   1.578
99032SOL    HW298930   3.939   9.036   1.521
99033SOL     OW98931   6.871  14.082   0.482
99033SOL    HW198932   6.867  14.102   0.389
99033SOL    HW298933   6.907  14.161   0.523
99034SOL     OW98934   1.995   5.152   0.294
99034SOL    HW198935   1.958   5.219   0.236
99034SOL    HW298936   2.062   5.199   0.344
99035SOL     OW98937  14.075   3.769   1.463
99035SOL    HW198938  14.054   3.735   1.550
99035SOL    HW298939  14.115   3.855   1.480
99036SOL     OW98940  12.128   6.160  13.433
99036SOL    HW198941  12.177   6.077  13.431
99036SOL    HW298942  12.175   6.217  13.373
99037SOL     OW98943   1.332   0.098   2.827
99037SOL    HW198944   1.326   0.003   2.835
99037SOL    HW298945   1.261   0.131   2.882
99038SOL     OW98946  10.912  13.143   7.228
99038SOL    HW198947  10.895  13.234   7.205
99038SOL    HW298948  10.895  13.094   7.148
99039SOL     OW98949  13.207  14.757   0.683
99039SOL    HW198950  13.300  14.734   0.690
99039SOL    HW298951  13.171  14.734   0.768
99040SOL     OW98952   4.585   9.958   1.632
99040SOL    HW198953   4.621   9.883   1.586
99040SOL    HW298954   4.538   9.920   1.706
99041SOL     OW98955   2.632   8.503  14.579
99041SOL    HW198956   2.720   8.480  14.611
99041SOL    HW298957   2.595   8.559  14.647
99042SOL     OW98958   1.556  12.544   9.850
99042SOL    HW198959   1.576  12.483   9.921
99042SOL    HW298960   1.541  12.488   9.774
99043SOL     OW98961  12.144   9.630  13.594
99043SOL    HW198962  12.198   9.708  13.580
99043SOL    HW298963  12.132   9.626  13.689
99044SOL     OW98964   7.651   2.343   3.921
99044SOL    HW198965   7.581   2.373   3.864
99044SOL    HW298966   7.631   2.251   3.937
99045SOL     OW98967   6.202   1.450  14.237
99045SOL    HW198968   6.295   1.432  14.226
99045SOL    HW298969   6.161   1.364  14.246
99046SOL     OW98970   9.386   2.822  12.724
99046SOL    HW198971   9.418   2.732  12.729
99046SOL    HW298972   9.458   2.876  12.756
99047SOL     OW98973   2.966   2.515  12.901
99047SOL    HW198974   2.942   2.547  12.988
99047SOL    HW298975   3.035   2.576  12.873
99048SOL     OW98976   7.112   8.950  13.677
99048SOL    HW198977   7.094   8.972  13.769
99048SOL    HW298978   7.101   9.032  13.630
99049SOL     OW98979   3.983   3.154  11.260
99049SOL    HW198980   3.992   3.209  11.182
99049SOL    HW298981   4.037   3.198  11.326
99050SOL     OW98982   6.052   3.723  14.128
99050SOL    HW198983   6.075   3.711  14.036
99050SOL    HW298984   5.961   3.751  14.127
99051SOL     OW98985   5.922   4.149  13.606
99051SOL    HW198986   6.004   4.199  13.607
99051SOL    HW298987   5.882   4.166  13.691
99052SOL     OW98988  13.051   8.271   8.703
99052SOL    HW198989  13.140   8.305   8.696
99052SOL    HW298990  13.002   8.342   8.745
99053SOL     OW98991   6.674   3.241  13.796
99053SOL    HW198992   6.761   3.269  13.766
99053SOL    HW298993   6.671   3.270  13.887
99054SOL     OW98994   7.454   7.306  11.299
99054SOL    HW198995   7.524   7.307  11.234
99054SOL    HW298996   7.375   7.284  11.250
99055SOL     OW98997   2.393   1.964   9.650
99055SOL    HW198998   2.356   1.995   9.568
99055SOL    HW298999   2.319   1.963   9.711
99056SOL     OW99000  12.012   6.682   7.141
99056SOL    HW199001  11.944   6.744   7.170
99056SOL    HW299002  12.042   6.640   7.221
99057SOL     OW99003   3.208   5.227  11.645
99057SOL    HW199004   3.276   5.216  11.578
99057SOL    HW299005   3.127   5.201  11.602
99058SOL     OW99006   9.643   2.705   7.525
99058SOL    HW199007   9.617   2.654   7.449
99058SOL    HW299008   9.561   2.716   7.575
99059SOL     OW99009   5.845  11.492   9.668
99059SOL    HW199010   5.782  11.520   9.735
99059SOL    HW299011   5.922  11.547   9.682
99060SOL     OW99012  14.446   6.923   4.026
99060SOL    HW199013  14.500   6.997   3.999
99060SOL    HW299014  14.507   6.864   4.070
99061SOL     OW99015   0.375   3.100  13.660
99061SOL    HW199016   0.402   3.023  13.609
99061SOL    HW299017   0.298   3.133  13.614
99062SOL     OW99018   2.612   9.301  11.623
99062SOL    HW199019   2.670   9.273  11.552
99062SOL    HW299020   2.538   9.241  11.618
99063SOL     OW99021   0.244   2.610   0.333
99063SOL    HW199022   0.324   2.557   0.333
99063SOL    HW299023   0.253   2.667   0.410
99064SOL     OW99024   2.950   4.890  10.922
99064SOL    HW199025   2.976   4.982  10.932
99064SOL    HW299026   3.021   4.851  10.872
99065SOL     OW99027   9.649  13.788  14.061
99065SOL    HW199028   9.673  13.738  13.983
99065SOL    HW299029   9.699  13.869  14.055
99066SOL     OW99030  12.895   6.001   0.624
99066SOL    HW199031  12.839   5.928   0.649
99066SOL    HW299032  12.872   6.018   0.533
99067SOL     OW99033   0.803   8.069   6.917
99067SOL    HW199034   0.801   8.114   7.002
99067SOL    HW299035   0.882   8.101   6.874
99068SOL     OW99036  13.685   7.001  11.295
99068SOL    HW199037  13.671   6.919  11.247
99068SOL    HW299038  13.716   6.973  11.381
99069SOL     OW99039   3.830  14.641   0.574
99069SOL    HW199040   3.896  14.709   0.585
99069SOL    HW299041   3.753  14.675   0.620
99070SOL     OW99042   8.049   6.392  13.795
99070SOL    HW199043   8.062   6.485  13.778
99070SOL    HW299044   8.007   6.359  13.716
99071SOL     OW99045  13.204   3.060   1.459
99071SOL    HW199046  13.167   2.976   1.432
99071SOL    HW299047  13.282   3.037   1.510
99072SOL     OW99048   4.209   4.706  10.337
99072SOL    HW199049   4.273   4.636  10.329
99072SOL    HW299050   4.125   4.664  10.317
99073SOL     OW99051  13.216   3.377  11.639
99073SOL    HW199052  13.226   3.425  11.557
99073SOL    HW299053  13.228   3.285  11.614
99074SOL     OW99054   5.740  11.744   6.203
99074SOL    HW199055   5.723  11.778   6.291
99074SOL    HW299056   5.764  11.652   6.217
99075SOL     OW99057  14.233  13.919   2.557
99075SOL    HW199058  14.214  13.924   2.650
99075SOL    HW299059  14.147  13.919   2.515
99076SOL     OW99060   0.546   9.652   9.251
99076SOL    HW199061   0.565   9.741   9.278
99076SOL    HW299062   0.544   9.656   9.155
99077SOL     OW99063   8.987   9.690   6.424
99077SOL    HW199064   8.984   9.632   6.500
99077SOL    HW299065   8.944   9.641   6.354
99078SOL     OW99066  14.523   3.069  10.279
99078SOL    HW199067  14.490   2.983  10.252
99078SOL    HW299068  14.539   3.115  10.196
99079SOL     OW99069  11.903   1.310  12.321
99079SOL    HW199070  11.976   1.340  12.375
99079SOL    HW299071  11.868   1.390  12.282
99080SOL     OW99072  14.213   7.721   3.808
99080SOL    HW199073  14.308   7.728   3.797
99080SOL    HW299074  14.184   7.812   3.819
99081SOL     OW99075  12.859   8.025   9.741
99081SOL    HW199076  12.767   8.030   9.714
99081SOL    HW299077  12.855   8.015   9.836
99082SOL     OW99078   5.276   3.840   7.091
99082SOL    HW199079   5.199   3.822   7.036
99082SOL    HW299080   5.329   3.760   7.084
99083SOL     OW99081  10.621   3.744   8.296
99083SOL    HW199082  10.576   3.691   8.361
99083SOL    HW299083  10.714   3.728   8.312
99084SOL     OW99084  11.704  14.568  10.599
99084SOL    HW199085  11.707  14.558  10.504
99084SOL    HW299086  11.726  14.481  10.633
99085SOL     OW99087   2.597  12.796   5.162
99085SOL    HW199088   2.633  12.879   5.190
99085SOL    HW299089   2.597  12.741   5.240
99086SOL     OW99090   3.910  13.862  10.563
99086SOL    HW199091   3.843  13.864  10.494
99086SOL    HW299092   3.964  13.939  10.545
99087SOL     OW99093  11.059   8.451   5.026
99087SOL    HW199094  11.038   8.540   4.999
99087SOL    HW299095  11.009   8.438   5.106
99088SOL     OW99096   5.748   1.896  12.246
99088SOL    HW199097   5.792   1.888  12.331
99088SOL    HW299098   5.660   1.862  12.261
99089SOL     OW99099   9.159   3.620  13.426
99089SOL    HW199100   9.222   3.691  13.414
99089SOL    HW299101   9.089   3.658  13.478
99090SOL     OW99102  12.909  13.189   1.441
99090SOL    HW199103  12.898  13.265   1.385
99090SOL    HW299104  12.931  13.225   1.527
99091SOL     OW99105   7.558  13.773   4.678
99091SOL    HW199106   7.626  13.840   4.689
99091SOL    HW299107   7.501  13.808   4.609
99092SOL     OW99108  12.385   0.641   2.661
99092SOL    HW199109  12.329   0.599   2.596
99092SOL    HW299110  12.374   0.589   2.741
99093SOL     OW99111   2.407   6.165   9.146
99093SOL    HW199112   2.385   6.096   9.208
99093SOL    HW299113   2.381   6.246   9.190
99094SOL     OW99114  12.279   4.288   4.660
99094SOL    HW199115  12.238   4.366   4.698
99094SOL    HW299116  12.224   4.215   4.688
99095SOL     OW99117   9.771   4.198  10.768
99095SOL    HW199118   9.726   4.201  10.853
99095SOL    HW299119   9.700   4.203  10.704
99096SOL     OW99120  14.151   7.075   5.156
99096SOL    HW199121  14.223   7.122   5.198
99096SOL    HW299122  14.189   7.044   5.073
99097SOL     OW99123  13.744  12.902   6.734
99097SOL    HW199124  13.707  12.937   6.816
99097SOL    HW299125  13.727  12.807   6.739
99098SOL     OW99126   0.627  10.331  10.868
99098SOL    HW199127   0.688  10.285  10.811
99098SOL    HW299128   0.568  10.376  10.808
99099SOL     OW99129  13.056   2.501  10.626
99099SOL    HW199130  13.006   2.567  10.673
99099SOL    HW299131  13.015   2.497  10.539
99100SOL     OW99132   4.038   8.779  11.503
99100SOL    HW199133   4.067   8.866  11.475
99100SOL    HW299134   3.944   8.778  11.484
99101SOL     OW99135   0.110   1.241   6.632
99101SOL    HW199136   0.136   1.156   6.596
99101SOL    HW299137   0.193   1.288   6.642
99102SOL     OW99138   1.961   0.654   4.512
99102SOL    HW199139   1.921   0.567   4.504
99102SOL    HW299140   1.996   0.656   4.601
99103SOL     OW99141  11.568   3.209  12.035
99103SOL    HW199142  11.613   3.198  12.119
99103SOL    HW299143  11.563   3.121  11.999
99104SOL     OW99144   1.912  14.431  13.205
99104SOL    HW199145   2.005  14.434  13.230
99104SOL    HW299146   1.881  14.348  13.240
99105SOL     OW99147  13.749  10.077   6.537
99105SOL    HW199148  13.716  10.166   6.526
99105SOL    HW299149  13.760  10.067   6.632
99106SOL     OW99150   1.281   6.901  13.516
99106SOL    HW199151   1.214   6.879  13.581
99106SOL    HW299152   1.351   6.941  13.567
99107SOL     OW99153   7.252   6.545  13.256
99107SOL    HW199154   7.321   6.595  13.213
99107SOL    HW299155   7.181   6.607  13.270
99108SOL     OW99156   8.212   5.316   9.178
99108SOL    HW199157   8.215   5.281   9.089
99108SOL    HW299158   8.291   5.370   9.184
99109SOL     OW99159   7.774   0.769  11.546
99109SOL    HW199160   7.702   0.810  11.595
99109SOL    HW299161   7.848   0.771  11.606
99110SOL     OW99162   3.815  12.473  14.223
99110SOL    HW199163   3.734  12.457  14.272
99110SOL    HW299164   3.814  12.408  14.153
99111SOL     OW99165   5.663  14.361   8.188
99111SOL    HW199166   5.677  14.307   8.111
99111SOL    HW299167   5.622  14.302   8.252
99112SOL     OW99168  13.867   1.369   1.534
99112SOL    HW199169  13.783   1.367   1.579
99112SOL    HW299170  13.879   1.279   1.502
99113SOL     OW99171   2.976   5.981   2.825
99113SOL    HW199172   2.905   5.917   2.826
99113SOL    HW299173   3.006   5.983   2.734
99114SOL     OW99174  11.470   2.920   6.335
99114SOL    HW199175  11.558   2.924   6.297
99114SOL    HW299176  11.485   2.919   6.430
99115SOL     OW99177   4.707  11.807  12.899
99115SOL    HW199178   4.642  11.863  12.941
99115SOL    HW299179   4.788  11.859  12.902
99116SOL     OW99180   6.878  13.164  14.802
99116SOL    HW199181   6.945  13.124  14.859
99116SOL    HW299182   6.795  13.138  14.841
99117SOL     OW99183   0.133   9.820  11.372
99117SOL    HW199184   0.162   9.763  11.300
99117SOL    HW299185   0.197   9.804  11.442
99118SOL     OW99186  13.623   8.243   8.673
99118SOL    HW199187  13.601   8.175   8.609
99118SOL    HW299188  13.554   8.237   8.739
99119SOL     OW99189   0.598   6.766  10.868
99119SOL    HW199190   0.638   6.852  10.877
99119SOL    HW299191   0.557   6.749  10.953
99120SOL     OW99192   3.883   5.421  12.638
99120SOL    HW199193   3.830   5.358  12.590
99120SOL    HW299194   3.963   5.430  12.586
99121SOL     OW99195   3.097  11.820   4.830
99121SOL    HW199196   3.006  11.849   4.827
99121SOL    HW299197   3.147  11.894   4.795
99122SOL     OW99198   7.566   8.491  12.936
99122SOL    HW199199   7.558   8.445  13.020
99122SOL    HW299200   7.649   8.459  12.899
99123SOL     OW99201   6.006   5.844  14.780
99123SOL    HW199202   5.923   5.829  14.736
99123SOL    HW299203   5.983   5.853  14.873
99124SOL     OW99204   0.651  14.055   0.443
99124SOL    HW199205   0.731  14.094   0.408
99124SOL    HW299206   0.654  14.074   0.537
99125SOL     OW99207   6.794   2.492   8.901
99125SOL    HW199208   6.706   2.459   8.887
99125SOL    HW299209   6.800   2.506   8.995
99126SOL     OW99210   8.157  14.500  11.215
99126SOL    HW199211   8.174  14.506  11.309
99126SOL    HW299212   8.170  14.589  11.182
99127SOL     OW99213   6.604   5.064   7.765
99127SOL    HW199214   6.533   5.001   7.773
99127SOL    HW299215   6.571   5.129   7.702
99128SOL     OW99216   0.368   5.310  12.724
99128SOL    HW199217   0.371   5.405  12.737
99128SOL    HW299218   0.276   5.291  12.707
99129SOL     OW99219   8.506   0.027   6.799
99129SOL    HW199220   8.510  14.821   6.744
99129SOL    HW299221   8.597   0.044   6.823
99130SOL     OW99222   0.277   3.813   5.955
99130SOL    HW199223   0.348   3.763   5.995
99130SOL    HW299224   0.209   3.815   6.022
99131SOL     OW99225   0.810  13.069  12.406
99131SOL    HW199226   0.903  13.070  12.386
99131SOL    HW299227   0.772  13.007  12.345
99132SOL     OW99228   4.596   3.722   7.296
99132SOL    HW199229   4.519   3.743   7.244
99132SOL    HW299230   4.628   3.639   7.260
99133SOL     OW99231   9.255   9.354   2.279
99133SOL    HW199232   9.182   9.300   2.309
99133SOL    HW299233   9.298   9.384   2.359
99134SOL     OW99234   6.133   9.450   7.201
99134SOL    HW199235   6.108   9.542   7.197
99134SOL    HW299236   6.227   9.451   7.214
99135SOL     OW99237  13.932   3.663   1.053
99135SOL    HW199238  13.855   3.715   1.032
99135SOL    HW299239  13.987   3.721   1.106
99136SOL     OW99240   2.117   3.791   0.921
99136SOL    HW199241   2.169   3.834   0.989
99136SOL    HW299242   2.180   3.737   0.873
99137SOL     OW99243  10.582  10.280   5.086
99137SOL    HW199244  10.540  10.260   5.169
99137SOL    HW299245  10.547  10.366   5.061
99138SOL     OW99246   8.606   4.131   4.079
99138SOL    HW199247   8.562   4.137   3.994
99138SOL    HW299248   8.682   4.190   4.070
99139SOL     OW99249   9.875   9.953   5.784
99139SOL    HW199250   9.814   9.975   5.713
99139SOL    HW299251   9.961   9.978   5.750
99140SOL     OW99252   3.568   8.386   3.012
99140SOL    HW199253   3.503   8.396   2.943
99140SOL    HW299254   3.605   8.474   3.024
99141SOL     OW99255   3.016   4.322  11.479
99141SOL    HW199256   3.068   4.307  11.558
99141SOL    HW299257   3.080   4.346  11.412
99142SOL     OW99258   6.741   9.814   7.881
99142SOL    HW199259   6.744   9.900   7.924
99142SOL    HW299260   6.667   9.770   7.923
99143SOL     OW99261   9.441   1.851   7.036
99143SOL    HW199262   9.476   1.896   7.113
99143SOL    HW299263   9.346   1.861   7.044
99144SOL     OW99264   8.091  13.241   7.597
99144SOL    HW199265   8.112  13.266   7.507
99144SOL    HW299266   8.137  13.159   7.611
99145SOL     OW99267  13.602   5.692   0.610
99145SOL    HW199268  13.686   5.669   0.571
99145SOL    HW299269  13.541   5.627   0.575
99146SOL     OW99270  10.103   1.697   5.646
99146SOL    HW199271  10.047   1.622   5.666
99146SOL    HW299272  10.079   1.763   5.711
99147SOL     OW99273  10.844  13.342   8.913
99147SOL    HW199274  10.824  13.249   8.907
99147SOL    HW299275  10.762  13.382   8.942
99148SOL     OW99276   0.515   1.183   0.400
99148SOL    HW199277   0.431   1.185   0.354
99148SOL    HW299278   0.516   1.099   0.445
99149SOL     OW99279   4.468   6.309   9.610
99149SOL    HW199280   4.495   6.354   9.530
99149SOL    HW299281   4.550   6.297   9.659
99150SOL     OW99282   1.532  12.326   4.021
99150SOL    HW199283   1.505  12.361   4.106
99150SOL    HW299284   1.610  12.377   3.997
99151SOL     OW99285   9.989  11.791   0.035
99151SOL    HW199286  10.003  11.870  14.856
99151SOL    HW299287   9.912  11.750  14.869
99152SOL     OW99288   6.435  12.206  13.213
99152SOL    HW199289   6.364  12.142  13.203
99152SOL    HW299290   6.468  12.192  13.301
99153SOL     OW99291   8.780  12.259   6.645
99153SOL    HW199292   8.722  12.282   6.717
99153SOL    HW299293   8.770  12.164   6.635
99154SOL     OW99294  10.244   9.679   2.855
99154SOL    HW199295  10.231   9.757   2.802
99154SOL    HW299296  10.234   9.709   2.945
99155SOL     OW99297   0.877  10.479   1.001
99155SOL    HW199298   0.832  10.481   1.086
99155SOL    HW299299   0.834  10.548   0.951
99156SOL     OW99300   1.543   2.530  12.532
99156SOL    HW199301   1.610   2.591  12.502
99156SOL    HW299302   1.541   2.461  12.465
99157SOL     OW99303  12.465   0.061   8.568
99157SOL    HW199304  12.470   0.023   8.656
99157SOL    HW299305  12.555   0.059   8.536
99158SOL     OW99306  10.638   5.241  11.703
99158SOL    HW199307  10.688   5.243  11.785
99158SOL    HW299308  10.627   5.334  11.680
99159SOL     OW99309   8.593  14.593  10.100
99159SOL    HW199310   8.633  14.523  10.151
99159SOL    HW299311   8.591  14.558  10.010
99160SOL     OW99312   0.116   4.974   8.710
99160SOL    HW199313   0.197   4.941   8.748
99160SOL    HW299314   0.132   5.066   8.692
99161SOL     OW99315  14.702  11.640  10.121
99161SOL    HW199316  14.616  11.623  10.081
99161SOL    HW299317  14.765  11.606  10.057
99162SOL     OW99318   8.543  14.339   2.585
99162SOL    HW199319   8.526  14.412   2.645
99162SOL    HW299320   8.462  14.289   2.584
99163SOL     OW99321  14.443  11.539  13.383
99163SOL    HW199322  14.521  11.497  13.420
99163SOL    HW299323  14.380  11.539  13.454
99164SOL     OW99324   1.475   0.466   6.976
99164SOL    HW199325   1.383   0.442   6.969
99164SOL    HW299326   1.478   0.558   6.950
99165SOL     OW99327   9.163   0.950  13.966
99165SOL    HW199328   9.183   0.972  14.057
99165SOL    HW299329   9.222   1.006  13.914
99166SOL     OW99330  13.165   5.661  10.480
99166SOL    HW199331  13.215   5.739  10.504
99166SOL    HW299332  13.205   5.591  10.530
99167SOL     OW99333  14.392   7.119  10.726
99167SOL    HW199334  14.302   7.087  10.724
99167SOL    HW299335  14.386   7.209  10.757
99168SOL     OW99336  13.969   7.076  13.800
99168SOL    HW199337  14.031   7.148  13.812
99168SOL    HW299338  14.020   6.998  13.823
99169SOL     OW99339  12.747   1.247   3.832
99169SOL    HW199340  12.724   1.337   3.855
99169SOL    HW299341  12.775   1.252   3.740
99170SOL     OW99342   5.598   3.877   4.117
99170SOL    HW199343   5.536   3.805   4.100
99170SOL    HW299344   5.592   3.933   4.040
99171SOL     OW99345  14.035   6.964   3.179
99171SOL    HW199346  14.122   7.001   3.167
99171SOL    HW299347  14.050   6.878   3.218
99172SOL     OW99348  14.482  13.202   7.383
99172SOL    HW199349  14.401  13.249   7.361
99172SOL    HW299350  14.463  13.161   7.468
99173SOL     OW99351  11.326  12.494   5.909
99173SOL    HW199352  11.239  12.521   5.938
99173SOL    HW299353  11.349  12.420   5.966
99174SOL     OW99354   0.795   9.499   2.193
99174SOL    HW199355   0.848   9.501   2.272
99174SOL    HW299356   0.859   9.501   2.121
99175SOL     OW99357   1.630   5.450   8.495
99175SOL    HW199358   1.713   5.496   8.511
99175SOL    HW299359   1.568   5.519   8.472
99176SOL     OW99360   3.436  10.155   0.482
99176SOL    HW199361   3.378  10.095   0.529
99176SOL    HW299362   3.504  10.099   0.445
99177SOL     OW99363   3.691   2.765  11.027
99177SOL    HW199364   3.777   2.743  11.062
99177SOL    HW299365   3.657   2.832  11.087
99178SOL     OW99366  14.574   1.546   1.716
99178SOL    HW199367  14.556   1.453   1.729
99178SOL    HW299368  14.524   1.589   1.786
99179SOL     OW99369   7.435   5.820   6.494
99179SOL    HW199370   7.412   5.840   6.403
99179SOL    HW299371   7.352   5.794   6.535
99180SOL     OW99372   1.782  13.449  10.993
99180SOL    HW199373   1.714  13.432  10.928
99180SOL    HW299374   1.788  13.545  10.997
99181SOL     OW99375   3.625   3.353   4.139
99181SOL    HW199376   3.582   3.329   4.057
99181SOL    HW299377   3.668   3.437   4.120
99182SOL     OW99378   0.341  12.140  10.595
99182SOL    HW199379   0.397  12.160  10.670
99182SOL    HW299380   0.391  12.171  10.519
99183SOL     OW99381   0.288   0.912  13.309
99183SOL    HW199382   0.242   0.868  13.380
99183SOL    HW299383   0.372   0.867  13.303
99184SOL     OW99384  14.255  10.653   5.427
99184SOL    HW199385  14.277  10.590   5.495
99184SOL    HW299386  14.167  10.684   5.451
99185SOL     OW99387   6.600  13.800   0.963
99185SOL    HW199388   6.660  13.741   0.917
99185SOL    HW299389   6.643  13.885   0.958
99186SOL     OW99390   4.679   1.001   4.344
99186SOL    HW199391   4.739   1.043   4.282
99186SOL    HW299392   4.693   1.048   4.427
99187SOL     OW99393  11.758   5.515   9.137
99187SOL    HW199394  11.766   5.566   9.218
99187SOL    HW299395  11.846   5.483   9.120
99188SOL     OW99396   0.275   3.877   7.222
99188SOL    HW199397   0.205   3.932   7.258
99188SOL    HW299398   0.354   3.906   7.267
99189SOL     OW99399   1.642   8.376   0.046
99189SOL    HW199400   1.633   8.374  14.824
99189SOL    HW299401   1.584   8.308   0.078
99190SOL     OW99402  12.856  14.589   6.030
99190SOL    HW199403  12.791  14.529   6.067
99190SOL    HW299404  12.833  14.595   5.937
99191SOL     OW99405   0.249   4.585  13.532
99191SOL    HW199406   0.201   4.519  13.484
99191SOL    HW299407   0.292   4.637  13.464
99192SOL     OW99408   8.184  12.959   7.625
99192SOL    HW199409   8.147  12.910   7.552
99192SOL    HW299410   8.175  12.901   7.701
99193SOL     OW99411   6.747   3.874   7.218
99193SOL    HW199412   6.721   3.887   7.309
99193SOL    HW299413   6.842   3.881   7.220
99194SOL     OW99414   0.578   9.805  11.918
99194SOL    HW199415   0.639   9.823  11.990
99194SOL    HW299416   0.609   9.862  11.847
99195SOL     OW99417   5.262   6.465   7.739
99195SOL    HW199418   5.252   6.559   7.753
99195SOL    HW299419   5.229   6.425   7.819
99196SOL     OW99420   3.959   0.833  10.238
99196SOL    HW199421   4.015   0.907  10.215
99196SOL    HW299422   4.009   0.756  10.210
99197SOL     OW99423   3.612  10.029  14.015
99197SOL    HW199424   3.529  10.068  14.042
99197SOL    HW299425   3.651   9.995  14.096
99198SOL     OW99426  10.043   4.064   4.795
99198SOL    HW199427  10.138   4.076   4.788
99198SOL    HW299428  10.007   4.153   4.786
99199SOL     OW99429   0.302  12.263  11.355
99199SOL    HW199430   0.269  12.338  11.403
99199SOL    HW299431   0.374  12.298  11.302
99200SOL     OW99432   5.826   8.216   0.035
99200SOL    HW199433   5.749   8.256  14.868
99200SOL    HW299434   5.877   8.290   0.069
99201SOL     OW99435   9.218  13.715   5.515
99201SOL    HW199436   9.156  13.703   5.444
99201SOL    HW299437   9.304  13.700   5.475
99202SOL     OW99438   9.815   4.311   3.088
99202SOL    HW199439   9.781   4.335   3.174
99202SOL    HW299440   9.884   4.247   3.107
99203SOL     OW99441  12.481   1.724   1.311
99203SOL    HW199442  12.465   1.645   1.363
99203SOL    HW299443  12.575   1.738   1.317
99204SOL     OW99444   4.871   3.816   9.473
99204SOL    HW199445   4.863   3.795   9.380
99204SOL    HW299446   4.791   3.782   9.513
99205SOL     OW99447  10.290   0.239  14.823
99205SOL    HW199448  10.351   0.292  14.770
99205SOL    HW299449  10.306   0.267   0.040
99206SOL     OW99450   5.473  14.268  14.613
99206SOL    HW199451   5.418  14.201  14.572
99206SOL    HW299452   5.457  14.258  14.707
99207SOL     OW99453   2.196   3.119   9.793
99207SOL    HW199454   2.179   3.086   9.881
99207SOL    HW299455   2.134   3.072   9.737
99208SOL     OW99456  12.687   0.805  13.932
99208SOL    HW199457  12.756   0.857  13.972
99208SOL    HW299458  12.695   0.822  13.838
99209SOL     OW99459   9.678   6.192   0.963
99209SOL    HW199460   9.714   6.273   0.927
99209SOL    HW299461   9.594   6.218   1.002
99210SOL     OW99462  12.988   7.363  11.207
99210SOL    HW199463  13.023   7.371  11.119
99210SOL    HW299464  13.053   7.312  11.255
99211SOL     OW99465   8.717  12.530   8.677
99211SOL    HW199466   8.751  12.617   8.654
99211SOL    HW299467   8.791  12.486   8.720
99212SOL     OW99468  10.038   0.547   7.129
99212SOL    HW199469  10.020   0.573   7.219
99212SOL    HW299470   9.956   0.566   7.082
99213SOL     OW99471  14.321  10.017  10.224
99213SOL    HW199472  14.308   9.934  10.269
99213SOL    HW299473  14.312  10.083  10.293
99214SOL     OW99474  12.889   5.378  13.578
99214SOL    HW199475  12.902   5.399  13.671
99214SOL    HW299476  12.801   5.411  13.559
99215SOL     OW99477  10.603   0.595   4.762
99215SOL    HW199478  10.674   0.630   4.817
99215SOL    HW299479  10.598   0.502   4.787
99216SOL     OW99480   1.516   0.741   2.467
99216SOL    HW199481   1.600   0.750   2.511
99216SOL    HW299482   1.453   0.725   2.537
99217SOL     OW99483  12.522   7.454  14.395
99217SOL    HW199484  12.600   7.408  14.364
99217SOL    HW299485  12.453   7.429  14.333
99218SOL     OW99486  12.946   5.972  12.120
99218SOL    HW199487  12.930   6.055  12.076
99218SOL    HW299488  12.955   5.995  12.213
99219SOL     OW99489  12.307  11.920   1.044
99219SOL    HW199490  12.250  11.929   1.121
99219SOL    HW299491  12.305  12.006   1.003
99220SOL     OW99492   6.813  12.213   8.996
99220SOL    HW199493   6.862  12.163   8.930
99220SOL    HW299494   6.855  12.299   8.998
99221SOL     OW99495   5.482   5.366  10.512
99221SOL    HW199496   5.564   5.377  10.463
99221SOL    HW299497   5.506   5.313  10.588
99222SOL     OW99498   1.398  10.337   8.991
99222SOL    HW199499   1.430  10.294   8.912
99222SOL    HW299500   1.476  10.377   9.030
99223SOL     OW99501   5.510   0.967  10.296
99223SOL    HW199502   5.567   0.978  10.372
99223SOL    HW299503   5.557   0.906  10.240
99224SOL     OW99504   7.728   8.827   4.463
99224SOL    HW199505   7.654   8.848   4.519
99224SOL    HW299506   7.693   8.762   4.401
99225SOL     OW99507   6.107   0.432  10.651
99225SOL    HW199508   6.126   0.507  10.593
99225SOL    HW299509   6.192   0.389  10.661
99226SOL     OW99510   7.598   9.320   5.110
99226SOL    HW199511   7.539   9.346   5.040
99226SOL    HW299512   7.593   9.224   5.112
99227SOL     OW99513   6.040   8.576   0.648
99227SOL    HW199514   5.987   8.569   0.568
99227SOL    HW299515   6.062   8.485   0.670
99228SOL     OW99516   1.751   6.342  10.191
99228SOL    HW199517   1.761   6.375  10.101
99228SOL    HW299518   1.811   6.397  10.243
99229SOL     OW99519   1.032  13.025   1.442
99229SOL    HW199520   1.111  12.971   1.431
99229SOL    HW299521   0.991  12.991   1.521
99230SOL     OW99522  13.617   5.590  11.383
99230SOL    HW199523  13.634   5.680  11.356
99230SOL    HW299524  13.531   5.593  11.424
99231SOL     OW99525   9.029   7.695  12.441
99231SOL    HW199526   9.035   7.634  12.368
99231SOL    HW299527   9.100   7.667  12.500
99232SOL     OW99528  10.457   6.166  12.863
99232SOL    HW199529  10.516   6.127  12.928
99232SOL    HW299530  10.514   6.217  12.805
99233SOL     OW99531   2.338  11.172  13.648
99233SOL    HW199532   2.426  11.209  13.659
99233SOL    HW299533   2.353  11.079  13.632
99234SOL     OW99534   1.814  10.448  14.281
99234SOL    HW199535   1.747  10.488  14.336
99234SOL    HW299536   1.809  10.495  14.198
99235SOL     OW99537  11.814  12.664   6.463
99235SOL    HW199538  11.876  12.700   6.528
99235SOL    HW299539  11.869  12.613   6.404
99236SOL     OW99540  10.826   4.466   0.272
99236SOL    HW199541  10.881   4.395   0.239
99236SOL    HW299542  10.820   4.451   0.366
99237SOL     OW99543   4.278   2.517  10.223
99237SOL    HW199544   4.339   2.584  10.192
99237SOL    HW299545   4.268   2.535  10.316
99238SOL     OW99546   0.211  14.338  14.514
99238SOL    HW199547   0.144  14.406  14.509
99238SOL    HW299548   0.291  14.385  14.538
99239SOL     OW99549   2.850   6.634  13.879
99239SOL    HW199550   2.940   6.626  13.910
99239SOL    HW299551   2.848   6.717  13.832
99240SOL     OW99552   7.269  11.525   4.067
99240SOL    HW199553   7.203  11.501   4.002
99240SOL    HW299554   7.301  11.441   4.101
99241SOL     OW99555  14.318   3.682  13.756
99241SOL    HW199556  14.282   3.761  13.714
99241SOL    HW299557  14.356   3.632  13.684
99242SOL     OW99558   2.470   9.759  11.043
99242SOL    HW199559   2.546   9.722  11.088
99242SOL    HW299560   2.402   9.766  11.111
99243SOL     OW99561   6.513   9.558  12.337
99243SOL    HW199562   6.583   9.501  12.370
99243SOL    HW299563   6.504   9.535  12.245
99244SOL     OW99564  10.733   6.312   6.316
99244SOL    HW199565  10.642   6.287   6.324
99244SOL    HW299566  10.778   6.232   6.290
99245SOL     OW99567   7.315  13.458   0.125
99245SOL    HW199568   7.232  13.460   0.172
99245SOL    HW299569   7.359  13.539   0.152
99246SOL     OW99570   5.861  10.834   5.036
99246SOL    HW199571   5.938  10.807   4.987
99246SOL    HW299572   5.870  10.791   5.121
99247SOL     OW99573  13.149  13.645   1.356
99247SOL    HW199574  13.173  13.625   1.447
99247SOL    HW299575  13.221  13.699   1.324
99248SOL     OW99576   8.287  12.770   1.974
99248SOL    HW199577   8.280  12.686   1.929
99248SOL    HW299578   8.198  12.806   1.972
99249SOL     OW99579   2.842   6.888   8.251
99249SOL    HW199580   2.809   6.829   8.319
99249SOL    HW299581   2.780   6.962   8.252
99250SOL     OW99582   1.506  10.852   4.584
99250SOL    HW199583   1.418  10.870   4.618
99250SOL    HW299584   1.504  10.759   4.560
99251SOL     OW99585   3.838   2.607   5.962
99251SOL    HW199586   3.749   2.593   5.994
99251SOL    HW299587   3.849   2.702   5.961
99252SOL     OW99588   5.445  13.697  10.533
99252SOL    HW199589   5.465  13.677  10.442
99252SOL    HW299590   5.398  13.620  10.565
99253SOL     OW99591   3.954   7.811   6.449
99253SOL    HW199592   3.960   7.791   6.356
99253SOL    HW299593   3.942   7.906   6.453
99254SOL     OW99594   8.253   5.584   0.773
99254SOL    HW199595   8.232   5.600   0.681
99254SOL    HW299596   8.335   5.631   0.789
99255SOL     OW99597   4.514   3.145   0.972
99255SOL    HW199598   4.572   3.217   0.946
99255SOL    HW299599   4.517   3.084   0.898
99256SOL     OW99600  12.850   7.343  14.829
99256SOL    HW199601  12.830   7.403  14.757
99256SOL    HW299602  12.897   7.271  14.787
99257SOL     OW99603   7.256  13.552  12.124
99257SOL    HW199604   7.268  13.638  12.083
99257SOL    HW299605   7.344  13.514  12.124
99258SOL     OW99606   9.171   3.833   6.670
99258SOL    HW199607   9.101   3.887   6.706
99258SOL    HW299608   9.217   3.797   6.747
99259SOL     OW99609   7.752   6.954  10.217
99259SOL    HW199610   7.701   6.889  10.264
99259SOL    HW299611   7.704   6.967  10.135
99260SOL     OW99612   4.198  11.746   8.292
99260SOL    HW199613   4.179  11.747   8.198
99260SOL    HW299614   4.294  11.749   8.296
99261SOL     OW99615   5.749   8.420   9.923
99261SOL    HW199616   5.768   8.514   9.923
99261SOL    HW299617   5.738   8.397   9.831
99262SOL     OW99618   6.394  12.268   1.621
99262SOL    HW199619   6.456  12.197   1.609
99262SOL    HW299620   6.396  12.316   1.538
99263SOL     OW99621   9.608  10.342  11.647
99263SOL    HW199622   9.534  10.281  11.644
99263SOL    HW299623   9.659  10.316  11.723
99264SOL     OW99624  12.352   2.686   0.404
99264SOL    HW199625  12.395   2.603   0.424
99264SOL    HW299626  12.395   2.716   0.324
99265SOL     OW99627   6.350   8.506   4.448
99265SOL    HW199628   6.286   8.564   4.406
99265SOL    HW299629   6.303   8.423   4.457
99266SOL     OW99630   1.074   5.148  10.637
99266SOL    HW199631   1.051   5.102  10.717
99266SOL    HW299632   1.167   5.130  10.625
99267SOL     OW99633  11.159   6.568  11.036
99267SOL    HW199634  11.115   6.517  10.969
99267SOL    HW299635  11.139   6.659  11.016
99268SOL     OW99636  14.196   3.377   5.943
99268SOL    HW199637  14.183   3.468   5.917
99268SOL    HW299638  14.288   3.360   5.926
99269SOL     OW99639   2.334   7.695   3.410
99269SOL    HW199640   2.242   7.681   3.430
99269SOL    HW299641   2.354   7.781   3.448
99270SOL     OW99642  10.171  14.574   7.449
99270SOL    HW199643  10.177  14.507   7.381
99270SOL    HW299644  10.151  14.526   7.529
99271SOL     OW99645   0.575   5.749  13.364
99271SOL    HW199646   0.622   5.829  13.341
99271SOL    HW299647   0.483   5.775  13.368
99272SOL     OW99648  10.479   3.861   9.887
99272SOL    HW199649  10.402   3.815   9.853
99272SOL    HW299650  10.451   3.896   9.972
99273SOL     OW99651   6.061   8.012   0.650
99273SOL    HW199652   6.042   8.025   0.743
99273SOL    HW299653   6.080   7.918   0.643
99274SOL     OW99654   2.290   1.142  14.734
99274SOL    HW199655   2.209   1.093  14.745
99274SOL    HW299656   2.288   1.208  14.804
99275SOL     OW99657  14.055   1.450   8.025
99275SOL    HW199658  13.973   1.400   8.031
99275SOL    HW299659  14.059   1.476   7.932
99276SOL     OW99660  14.339   9.205   9.134
99276SOL    HW199661  14.422   9.170   9.167
99276SOL    HW299662  14.289   9.227   9.212
99277SOL     OW99663   3.091   9.731   2.891
99277SOL    HW199664   3.117   9.657   2.947
99277SOL    HW299665   3.160   9.796   2.903
99278SOL     OW99666   4.539  14.277   3.632
99278SOL    HW199667   4.543  14.359   3.582
99278SOL    HW299668   4.458  14.236   3.604
99279SOL     OW99669  11.998   6.128   6.244
99279SOL    HW199670  12.050   6.055   6.211
99279SOL    HW299671  11.929   6.086   6.296
99280SOL     OW99672   7.300   7.190   7.880
99280SOL    HW199673   7.356   7.120   7.848
99280SOL    HW299674   7.297   7.176   7.975
99281SOL     OW99675   5.285  13.214   0.716
99281SOL    HW199676   5.245  13.142   0.764
99281SOL    HW299677   5.221  13.285   0.722
99282SOL     OW99678  10.259   0.227  14.139
99282SOL    HW199679  10.285   0.138  14.163
99282SOL    HW299680  10.206   0.258  14.213
99283SOL     OW99681  13.829   5.637   8.729
99283SOL    HW199682  13.892   5.654   8.659
99283SOL    HW299683  13.764   5.707   8.720
99284SOL     OW99684   8.037   9.762   7.113
99284SOL    HW199685   8.115   9.784   7.163
99284SOL    HW299686   8.016   9.672   7.141
99285SOL     OW99687   1.052   3.137  10.575
99285SOL    HW199688   0.968   3.182  10.567
99285SOL    HW299689   1.075   3.114  10.485
99286SOL     OW99690  13.555  12.167   9.941
99286SOL    HW199691  13.505  12.211  10.011
99286SOL    HW299692  13.636  12.141   9.984
99287SOL     OW99693   3.265  12.954  10.240
99287SOL    HW199694   3.310  12.914  10.314
99287SOL    HW299695   3.298  12.906  10.163
99288SOL     OW99696  11.376   0.891  11.341
99288SOL    HW199697  11.313   0.827  11.373
99288SOL    HW299698  11.378   0.959  11.408
99289SOL     OW99699   1.760   7.297   1.505
99289SOL    HW199700   1.769   7.383   1.545
99289SOL    HW299701   1.728   7.315   1.417
99290SOL     OW99702   1.973   7.827   2.252
99290SOL    HW199703   1.943   7.805   2.340
99290SOL    HW299704   1.899   7.805   2.195
99291SOL     OW99705  11.492   4.467   9.191
99291SOL    HW199706  11.470   4.409   9.263
99291SOL    HW299707  11.579   4.500   9.212
99292SOL     OW99708   3.989   2.159   4.857
99292SOL    HW199709   4.026   2.223   4.797
99292SOL    HW299710   3.943   2.211   4.922
99293SOL     OW99711   4.650   1.850   7.815
99293SOL    HW199712   4.560   1.844   7.847
99293SOL    HW299713   4.702   1.805   7.882
99294SOL     OW99714   5.394   8.473   2.033
99294SOL    HW199715   5.398   8.518   2.118
99294SOL    HW299716   5.429   8.536   1.970
99295SOL     OW99717  11.753   6.971   2.559
99295SOL    HW199718  11.671   7.013   2.586
99295SOL    HW299719  11.784   6.924   2.636
99296SOL     OW99720   2.813   6.591   3.379
99296SOL    HW199721   2.855   6.650   3.316
99296SOL    HW299722   2.781   6.649   3.448
99297SOL     OW99723   3.655   8.702   7.097
99297SOL    HW199724   3.590   8.765   7.068
99297SOL    HW299725   3.739   8.740   7.072
99298SOL     OW99726   1.918  10.187  12.906
99298SOL    HW199727   1.873  10.254  12.956
99298SOL    HW299728   2.011  10.199  12.927
99299SOL     OW99729   6.889  10.229   8.543
99299SOL    HW199730   6.899  10.286   8.619
99299SOL    HW299731   6.970  10.240   8.494
99300SOL     OW99732   0.085   9.582   3.883
99300SOL    HW199733   0.173   9.613   3.904
99300SOL    HW299734   0.037   9.661   3.857
99301SOL     OW99735   6.861  13.299  12.554
99301SOL    HW199736   6.928  13.286  12.487
99301SOL    HW299737   6.808  13.219  12.550
99302SOL     OW99738  12.363   9.816  11.557
99302SOL    HW199739  12.442   9.867  11.574
99302SOL    HW299740  12.321   9.808  11.643
99303SOL     OW99741   0.015  10.284   8.215
99303SOL    HW199742  14.840  10.367   8.217
99303SOL    HW299743  14.821  10.218   8.233
99304SOL     OW99744   8.402  12.460   0.857
99304SOL    HW199745   8.366  12.371   0.852
99304SOL    HW299746   8.393  12.494   0.768
99305SOL     OW99747   8.793   2.630   1.527
99305SOL    HW199748   8.791   2.575   1.449
99305SOL    HW299749   8.751   2.578   1.595
99306SOL     OW99750  11.215   0.195   4.286
99306SOL    HW199751  11.244   0.115   4.242
99306SOL    HW299752  11.152   0.164   4.351
99307SOL     OW99753  10.513  12.632  12.682
99307SOL    HW199754  10.468  12.643  12.598
99307SOL    HW299755  10.447  12.594  12.740
99308SOL     OW99756  14.016   5.023   2.304
99308SOL    HW199757  14.082   5.061   2.361
99308SOL    HW299758  13.974   5.099   2.263
99309SOL     OW99759  14.757   8.610   5.748
99309SOL    HW199760  14.733   8.702   5.751
99309SOL    HW299761  14.817   8.602   5.673
99310SOL     OW99762   4.414   9.909   5.875
99310SOL    HW199763   4.491   9.961   5.852
99310SOL    HW299764   4.363   9.966   5.932
99311SOL     OW99765   8.691  10.172   7.238
99311SOL    HW199766   8.764  10.204   7.185
99311SOL    HW299767   8.732  10.137   7.316
99312SOL     OW99768   0.261   0.831   5.985
99312SOL    HW199769   0.205   0.887   6.038
99312SOL    HW299770   0.312   0.781   6.049
99313SOL     OW99771  10.245   5.206   5.255
99313SOL    HW199772  10.176   5.254   5.208
99313SOL    HW299773  10.278   5.143   5.191
99314SOL     OW99774   7.110  11.273   7.732
99314SOL    HW199775   7.048  11.213   7.775
99314SOL    HW299776   7.182  11.280   7.794
99315SOL     OW99777  12.506   9.225   0.331
99315SOL    HW199778  12.460   9.308   0.346
99315SOL    HW299779  12.514   9.186   0.417
99316SOL     OW99780   7.353   2.908   9.945
99316SOL    HW199781   7.433   2.857   9.948
99316SOL    HW299782   7.336   2.923   9.852
99317SOL     OW99783  10.131  13.301   9.202
99317SOL    HW199784  10.064  13.244   9.163
99317SOL    HW299785  10.134  13.377   9.143
99318SOL     OW99786   4.107   5.747   4.016
99318SOL    HW199787   4.180   5.717   3.961
99318SOL    HW299788   4.149   5.787   4.092
99319SOL     OW99789   0.658  13.342   2.195
99319SOL    HW199790   0.650  13.350   2.290
99319SOL    HW299791   0.717  13.413   2.170
99320SOL     OW99792   7.974  12.686   6.238
99320SOL    HW199793   7.883  12.655   6.241
99320SOL    HW299794   7.967  12.781   6.246
99321SOL     OW99795   4.696  10.189   0.747
99321SOL    HW199796   4.649  10.172   0.829
99321SOL    HW299797   4.736  10.275   0.759
99322SOL     OW99798   7.162  13.997   5.486
99322SOL    HW199799   7.135  14.088   5.481
99322SOL    HW299800   7.219  13.984   5.410
99323SOL     OW99801  11.295   4.550  14.333
99323SOL    HW199802  11.390   4.555  14.344
99323SOL    HW299803  11.259   4.595  14.410
99324SOL     OW99804  10.761   3.088  12.676
99324SOL    HW199805  10.809   3.171  12.679
99324SOL    HW299806  10.759   3.058  12.767
99325SOL     OW99807   4.261   5.969   9.258
99325SOL    HW199808   4.241   6.019   9.179
99325SOL    HW299809   4.238   6.027   9.330
99326SOL     OW99810   8.778   5.905   5.675
99326SOL    HW199811   8.692   5.945   5.689
99326SOL    HW299812   8.840   5.965   5.716
99327SOL     OW99813  12.331   0.565   9.039
99327SOL    HW199814  12.425   0.553   9.024
99327SOL    HW299815  12.301   0.618   8.966
99328SOL     OW99816  12.268   1.239   9.302
99328SOL    HW199817  12.206   1.236   9.228
99328SOL    HW299818  12.231   1.305   9.361
99329SOL     OW99819  12.478   9.554  14.405
99329SOL    HW199820  12.554   9.499  14.384
99329SOL    HW299821  12.514   9.626  14.457
99330SOL     OW99822  12.957   1.743   2.233
99330SOL    HW199823  12.873   1.697   2.228
99330SOL    HW299824  13.022   1.678   2.206
99331SOL     OW99825   1.081  12.809   5.218
99331SOL    HW199826   1.084  12.904   5.234
99331SOL    HW299827   0.990  12.791   5.196
99332SOL     OW99828   0.392   2.559   1.650
99332SOL    HW199829   0.454   2.533   1.582
99332SOL    HW299830   0.444   2.609   1.713
99333SOL     OW99831  11.781   9.816  14.585
99333SOL    HW199832  11.728   9.816  14.505
99333SOL    HW299833  11.763   9.732  14.626
99334SOL     OW99834  11.291  10.058   6.025
99334SOL    HW199835  11.199  10.044   6.047
99334SOL    HW299836  11.308   9.996   5.954
99335SOL     OW99837   2.825  11.738   6.892
99335SOL    HW199838   2.848  11.793   6.967
99335SOL    HW299839   2.886  11.665   6.896
99336SOL     OW99840   6.456   4.077  10.018
99336SOL    HW199841   6.475   3.984  10.031
99336SOL    HW299842   6.522   4.123  10.069
99337SOL     OW99843  11.108   6.683   4.795
99337SOL    HW199844  11.188   6.736   4.793
99337SOL    HW299845  11.054   6.718   4.724
99338SOL     OW99846   2.696  13.176  11.891
99338SOL    HW199847   2.679  13.117  11.964
99338SOL    HW299848   2.705  13.118  11.815
99339SOL     OW99849  10.561  14.237   2.744
99339SOL    HW199850  10.629  14.170   2.732
99339SOL    HW299851  10.517  14.212   2.825
99340SOL     OW99852   8.085   8.830  13.573
99340SOL    HW199853   8.129   8.899  13.624
99340SOL    HW299854   8.145   8.811  13.501
99341SOL     OW99855   9.258  12.976  14.590
99341SOL    HW199856   9.186  12.934  14.637
99341SOL    HW299857   9.288  13.045  14.648
99342SOL     OW99858   6.947   7.221   1.601
99342SOL    HW199859   6.870   7.185   1.557
99342SOL    HW299860   6.987   7.146   1.644
99343SOL     OW99861   8.310  10.518   8.345
99343SOL    HW199862   8.396  10.536   8.307
99343SOL    HW299863   8.251  10.517   8.269
99344SOL     OW99864  12.316   9.906   9.353
99344SOL    HW199865  12.331   9.905   9.447
99344SOL    HW299866  12.243   9.845   9.340
99345SOL     OW99867  12.042  12.113  12.817
99345SOL    HW199868  12.019  12.181  12.880
99345SOL    HW299869  12.051  12.159  12.734
99346SOL     OW99870   7.578   4.209   5.749
99346SOL    HW199871   7.498   4.223   5.799
99346SOL    HW299872   7.645   4.257   5.797
99347SOL     OW99873   7.583  14.394   5.244
99347SOL    HW199874   7.536  14.473   5.270
99347SOL    HW299875   7.645  14.424   5.177
99348SOL     OW99876  14.233   6.118   3.092
99348SOL    HW199877  14.319   6.086   3.064
99348SOL    HW299878  14.185   6.134   3.011
99349SOL     OW99879   8.775  14.090   1.155
99349SOL    HW199880   8.730  14.006   1.150
99349SOL    HW299881   8.708  14.153   1.181
99350SOL     OW99882   6.413   9.553   8.939
99350SOL    HW199883   6.446   9.463   8.940
99350SOL    HW299884   6.318   9.543   8.943
99351SOL     OW99885  13.240   9.780   4.547
99351SOL    HW199886  13.322   9.818   4.579
99351SOL    HW299887  13.267   9.714   4.483
99352SOL     OW99888  13.802   1.249   4.424
99352SOL    HW199889  13.856   1.316   4.467
99352SOL    HW299890  13.825   1.168   4.468
99353SOL     OW99891   0.055  13.601   4.592
99353SOL    HW199892   0.087  13.553   4.516
99353SOL    HW299893   0.014  13.680   4.555
99354SOL     OW99894   8.988  13.444  14.620
99354SOL    HW199895   8.972  13.351  14.631
99354SOL    HW299896   8.916  13.487  14.667
99355SOL     OW99897   0.387  10.012  11.644
99355SOL    HW199898   0.370   9.939  11.584
99355SOL    HW299899   0.460   9.983  11.698
99356SOL     OW99900   7.282   5.714   6.261
99356SOL    HW199901   7.366   5.696   6.218
99356SOL    HW299902   7.280   5.654   6.336
99357SOL     OW99903  14.260  10.447   1.743
99357SOL    HW199904  14.344  10.443   1.697
99357SOL    HW299905  14.210  10.373   1.709
99358SOL     OW99906  10.282   9.261  11.120
99358SOL    HW199907  10.324   9.279  11.036
99358SOL    HW299908  10.338   9.305  11.184
99359SOL     OW99909  13.594   8.235  14.200
99359SOL    HW199910  13.598   8.279  14.285
99359SOL    HW299911  13.523   8.278  14.154
99360SOL     OW99912   8.498   5.709   9.024
99360SOL    HW199913   8.576   5.697   9.078
99360SOL    HW299914   8.451   5.782   9.065
99361SOL     OW99915  14.501  13.570   4.252
99361SOL    HW199916  14.474  13.577   4.343
99361SOL    HW299917  14.589  13.532   4.256
99362SOL     OW99918   2.731   4.622   1.167
99362SOL    HW199919   2.670   4.582   1.229
99362SOL    HW299920   2.777   4.548   1.128
99363SOL     OW99921  12.324   4.647  10.588
99363SOL    HW199922  12.266   4.581  10.625
99363SOL    HW299923  12.412   4.619  10.613
99364SOL     OW99924   8.501   9.278   5.176
99364SOL    HW199925   8.421   9.225   5.174
99364SOL    HW299926   8.473   9.360   5.217
99365SOL     OW99927   0.287  13.061  10.731
99365SOL    HW199928   0.351  12.992  10.751
99365SOL    HW299929   0.307  13.131  10.793
99366SOL     OW99930   8.669   0.155  10.202
99366SOL    HW199931   8.729   0.096  10.156
99366SOL    HW299932   8.587   0.148  10.154
99367SOL     OW99933  12.346   3.008  14.009
99367SOL    HW199934  12.369   3.099  14.030
99367SOL    HW299935  12.352   3.004  13.914
99368SOL     OW99936  10.478   6.283   6.437
99368SOL    HW199937  10.384   6.283   6.457
99368SOL    HW299938  10.520   6.295   6.522
99369SOL     OW99939   1.326   2.239   1.376
99369SOL    HW199940   1.372   2.217   1.457
99369SOL    HW299941   1.308   2.154   1.335
99370SOL     OW99942   0.075   0.207   5.507
99370SOL    HW199943   0.117   0.138   5.455
99370SOL    HW299944  14.866   0.167   5.538
99371SOL     OW99945  11.171   1.618   9.588
99371SOL    HW199946  11.086   1.635   9.628
99371SOL    HW299947  11.235   1.633   9.658
99372SOL     OW99948   3.756   0.479  12.201
99372SOL    HW199949   3.719   0.428  12.129
99372SOL    HW299950   3.763   0.417  12.273
99373SOL     OW99951   4.939   6.307   3.567
99373SOL    HW199952   4.860   6.253   3.559
99373SOL    HW299953   4.936   6.340   3.657
99374SOL     OW99954   1.985   6.528  11.788
99374SOL    HW199955   2.048   6.593  11.756
99374SOL    HW299956   2.013   6.446  11.748
99375SOL     OW99957   6.719  13.444   6.703
99375SOL    HW199958   6.773  13.506   6.654
99375SOL    HW299959   6.641  13.432   6.650
99376SOL     OW99960  13.471   8.572   0.840
99376SOL    HW199961  13.484   8.549   0.748
99376SOL    HW299962  13.528   8.648   0.853
99377SOL     OW99963   9.534   1.903  12.941
99377SOL    HW199964   9.567   1.988  12.969
99377SOL    HW299965   9.501   1.918  12.852
99378SOL     OW99966   5.944   7.822  13.496
99378SOL    HW199967   5.947   7.795  13.404
99378SOL    HW299968   5.854   7.806  13.523
99379SOL     OW99969  14.451   6.443   1.255
99379SOL    HW199970  14.468   6.353   1.229
99379SOL    HW299971  14.367   6.464   1.216
99380SOL     OW99972   6.838   4.939   9.192
99380SOL    HW199973   6.842   5.035   9.200
99380SOL    HW299974   6.841   4.922   9.098
99381SOL     OW99975   1.449  10.634  12.465
99381SOL    HW199976   1.509  10.623  12.539
99381SOL    HW299977   1.408  10.548  12.454
99382SOL     OW99978  10.020   5.238   7.170
99382SOL    HW199979  10.079   5.206   7.238
99382SOL    HW299980  10.026   5.333   7.175
99383SOL     OW99981   1.476  14.771   6.561
99383SOL    HW199982   1.384  14.785   6.581
99383SOL    HW299983   1.481  14.679   6.532
99384SOL     OW99984   5.261  12.684   4.042
99384SOL    HW199985   5.172  12.699   4.073
99384SOL    HW299986   5.290  12.769   4.009
99385SOL     OW99987   5.382  13.825   4.043
99385SOL    HW199988   5.381  13.812   4.138
99385SOL    HW299989   5.475  13.823   4.020
99386SOL     OW99990   2.563   3.005   9.414
99386SOL    HW199991   2.559   3.030   9.506
99386SOL    HW299992   2.533   3.082   9.366
99387SOL     OW99993   1.387   4.462   9.933
99387SOL    HW199994   1.453   4.411   9.886
99387SOL    HW299995   1.351   4.521   9.866
99388SOL     OW99996   7.682   3.254  11.026
99388SOL    HW199997   7.663   3.247  11.120
99388SOL    HW299998   7.736   3.177  11.007
99389SOL     OW99999  11.783   1.653  13.896
99389SOL    HW1    0  11.795   1.626  13.988
99389SOL    HW2    1  11.871   1.643  13.858
99390SOL     OW    2   6.846   4.821   9.772
99390SOL    HW1    3   6.834   4.859   9.859
99390SOL    HW2    4   6.818   4.890   9.711
99391SOL     OW    5  12.443   0.095  14.785
99391SOL    HW1    6  12.449   0.131  14.696
99391SOL    HW2    7  12.352   0.111  14.811
99392SOL     OW    8  11.914  14.447  11.001
99392SOL    HW1    9  11.944  14.481  10.917
99392SOL    HW2   10  11.819  14.441  10.991
99393SOL     OW   11   5.970   0.823   0.103
99393SOL    HW1   12   6.042   0.849   0.046
99393SOL    HW2   13   5.951   0.901   0.155
99394SOL     OW   14   2.078   9.378  12.044
99394SOL    HW1   15   2.078   9.286  12.070
99394SOL    HW2   16   2.165   9.410  12.067
99395SOL     OW   17   8.628   2.517  12.834
99395SOL    HW1   18   8.676   2.595  12.864
99395SOL    HW2   19   8.606   2.536  12.743
99396SOL     OW   20  11.559   9.050   5.932
99396SOL    HW1   21  11.624   9.084   5.993
99396SOL    HW2   22  11.597   9.063   5.845
99397SOL     OW   23   6.674   1.276   5.793
99397SOL    HW1   24   6.585   1.276   5.829
99397SOL    HW2   25   6.665   1.314   5.706
99398SOL     OW   26   9.527   3.394   7.125
99398SOL    HW1   27   9.616   3.363   7.139
99398SOL    HW2   28   9.472   3.317   7.133
99399SOL     OW   29   0.615  11.789   8.186
99399SOL    HW1   30   0.647  11.841   8.260
99399SOL    HW2   31   0.534  11.832   8.160
99400SOL     OW   32  10.912   1.800   4.035
99400SOL    HW1   33  10.990   1.756   4.067
99400SOL    HW2   34  10.873   1.739   3.973
99401SOL     OW   35  12.434  14.821   0.890
99401SOL    HW1   36  12.400  14.737   0.921
99401SOL    HW2   37  12.498  14.847   0.956
99402SOL     OW   38   1.598  12.822   9.054
99402SOL    HW1   39   1.677  12.874   9.068
99402SOL    HW2   40   1.596  12.807   8.960
99403SOL     OW   41  12.167   4.090   1.773
99403SOL    HW1   42  12.073   4.081   1.788
99403SOL    HW2   43  12.174   4.158   1.706
99404SOL     OW   44   9.915  14.644   3.398
99404SOL    HW1   45   9.986  14.628   3.460
99404SOL    HW2   46   9.874  14.559   3.385
99405SOL     OW   47   4.328   7.374   5.540
99405SOL    HW1   48   4.370   7.327   5.612
99405SOL    HW2   49   4.366   7.335   5.461
99406SOL     OW   50  10.842   1.919  12.310
99406SOL    HW1   51  10.769   1.889  12.365
99406SOL    HW2   52  10.879   1.839  12.273
99407SOL     OW   53   0.848   0.624   7.910
99407SOL    HW1   54   0.937   0.630   7.943
99407SOL    HW2   55   0.836   0.703   7.856
99408SOL     OW   56  13.405   8.994  10.844
99408SOL    HW1   57  13.409   9.079  10.802
99408SOL    HW2   58  13.312   8.980  10.862
99409SOL     OW   59   9.307   6.455   9.354
99409SOL    HW1   60   9.301   6.380   9.413
99409SOL    HW2   61   9.232   6.511   9.377
99410SOL     OW   62   6.504   1.391   7.861
99410SOL    HW1   63   6.446   1.465   7.881
99410SOL    HW2   64   6.581   1.432   7.822
99411SOL     OW   65   0.130  14.666   9.863
99411SOL    HW1   66   0.105  14.599   9.926
99411SOL    HW2   67   0.146  14.619   9.781
99412SOL     OW   68  10.318   9.539  11.754
99412SOL    HW1   69  10.356   9.548  11.841
99412SOL    HW2   70  10.240   9.485  11.767
99413SOL     OW   71   4.017  13.193   1.628
99413SOL    HW1   72   4.058  13.167   1.546
99413SOL    HW2   73   4.030  13.288   1.633
99414SOL     OW   74  10.356   9.452   8.711
99414SOL    HW1   75  10.343   9.546   8.722
99414SOL    HW2   76  10.402   9.424   8.790
99415SOL     OW   77   8.910   4.497   5.292
99415SOL    HW1   78   8.939   4.478   5.203
99415SOL    HW2   79   8.855   4.422   5.316
99416SOL     OW   80   9.576  14.163   6.364
99416SOL    HW1   81   9.557  14.256   6.356
99416SOL    HW2   82   9.531  14.135   6.443
99417SOL     OW   83   7.804  11.896  11.696
99417SOL    HW1   84   7.875  11.942  11.742
99417SOL    HW2   85   7.724  11.935  11.731
99418SOL     OW   86   0.663   8.342  13.174
99418SOL    HW1   87   0.758   8.335  13.169
99418SOL    HW2   88   0.645   8.375  13.262
99419SOL     OW   89   9.654   6.123   9.370
99419SOL    HW1   90   9.597   6.166   9.306
99419SOL    HW2   91   9.632   6.030   9.363
99420SOL     OW   92  11.817   9.996   2.140
99420SOL    HW1   93  11.769  10.004   2.057
99420SOL    HW2   94  11.825  10.086   2.171
99421SOL     OW   95   2.151   3.582   8.852
99421SOL    HW1   96   2.225   3.617   8.803
99421SOL    HW2   97   2.191   3.527   8.920
99422SOL     OW   98  12.855  13.201   4.353
99422SOL    HW1   99  12.766  13.168   4.342
99422SOL    HW2  100  12.903  13.168   4.277
99423SOL     OW  101   8.980   4.227  14.571
99423SOL    HW1  102   9.032   4.262  14.498
99423SOL    HW2  103   8.902   4.191  14.529
99424SOL     OW  104  10.407  11.290   6.255
99424SOL    HW1  105  10.471  11.358   6.235
99424SOL    HW2  106  10.328  11.337   6.280
99425SOL     OW  107  10.502   5.808   3.790
99425SOL    HW1  108  10.539   5.873   3.850
99425SOL    HW2  109  10.578   5.774   3.741
99426SOL     OW  110   0.754  12.926  12.976
99426SOL    HW1  111   0.744  12.832  12.987
99426SOL    HW2  112   0.664  12.960  12.972
99427SOL     OW  113   6.824   1.752   3.265
99427SOL    HW1  114   6.763   1.698   3.214
99427SOL    HW2  115   6.824   1.836   3.221
99428SOL     OW  116  11.861   9.802  13.204
99428SOL    HW1  117  11.945   9.768  13.175
99428SOL    HW2  118  11.867   9.803  13.300
99429SOL     OW  119  13.241  10.512   7.769
99429SOL    HW1  120  13.186  10.505   7.691
99429SOL    HW2  121  13.283  10.598   7.761
99430SOL     OW  122   0.774  14.791   0.844
99430SOL    HW1  123   0.817  14.751   0.768
99430SOL    HW2  124   0.783  14.725   0.914
99431SOL     OW  125   0.175  14.813  14.166
99431SOL    HW1  126   0.144   0.011  14.109
99431SOL    HW2  127   0.227  14.858  14.233
99432SOL     OW  128   9.038   6.398   6.820
99432SOL    HW1  129   9.120   6.441   6.798
99432SOL    HW2  130   9.044   6.312   6.777
99433SOL     OW  131   1.381  10.382   7.113
99433SOL    HW1  132   1.310  10.441   7.137
99433SOL    HW2  133   1.401  10.404   7.022
99434SOL     OW  134   7.089   6.782  13.194
99434SOL    HW1  135   7.048   6.845  13.253
99434SOL    HW2  136   7.135   6.835  13.129
99435SOL     OW  137  12.830  14.571   5.591
99435SOL    HW1  138  12.870  14.599   5.509
99435SOL    HW2  139  12.847  14.643   5.652
99436SOL     OW  140   1.898   1.323   2.239
99436SOL    HW1  141   1.978   1.322   2.292
99436SOL    HW2  142   1.832   1.361   2.297
99437SOL     OW  143   8.079   2.251   9.607
99437SOL    HW1  144   8.088   2.263   9.702
99437SOL    HW2  145   8.071   2.157   9.596
99438SOL     OW  146  12.385   9.224   5.821
99438SOL    HW1  147  12.423   9.279   5.752
99438SOL    HW2  148  12.324   9.167   5.775
99439SOL     OW  149  12.458   4.621  12.567
99439SOL    HW1  150  12.509   4.557  12.518
99439SOL    HW2  151  12.486   4.706  12.532
99440SOL     OW  152  10.682   2.433   6.377
99440SOL    HW1  153  10.672   2.507   6.317
99440SOL    HW2  154  10.738   2.466   6.447
99441SOL     OW  155   3.919   2.781  12.108
99441SOL    HW1  156   3.957   2.740  12.030
99441SOL    HW2  157   3.982   2.850  12.131
99442SOL     OW  158   1.771   3.506  10.928
99442SOL    HW1  159   1.858   3.542  10.943
99442SOL    HW2  160   1.753   3.523  10.836
99443SOL     OW  161  12.661   4.568  14.159
99443SOL    HW1  162  12.580   4.517  14.152
99443SOL    HW2  163  12.710   4.526  14.229
99444SOL     OW  164  13.357   3.164   2.075
99444SOL    HW1  165  13.285   3.201   2.025
99444SOL    HW2  166  13.327   3.165   2.165
99445SOL     OW  167   9.667   4.850  14.358
99445SOL    HW1  168   9.619   4.897  14.426
99445SOL    HW2  169   9.679   4.914  14.288
99446SOL     OW  170  11.477   0.170  10.631
99446SOL    HW1  171  11.436   0.251  10.603
99446SOL    HW2  172  11.492   0.121  10.550
99447SOL     OW  173   1.437   1.442   4.671
99447SOL    HW1  174   1.505   1.414   4.732
99447SOL    HW2  175   1.359   1.452   4.725
99448SOL     OW  176   3.938  14.248  13.934
99448SOL    HW1  177   3.869  14.312  13.915
99448SOL    HW2  178   3.924  14.178  13.870
99449SOL     OW  179  13.339   2.975   0.058
99449SOL    HW1  180  13.414   3.034   0.057
99449SOL    HW2  181  13.354   2.917   0.132
99450SOL     OW  182   2.474   6.285   5.827
99450SOL    HW1  183   2.386   6.298   5.865
99450SOL    HW2  184   2.460   6.223   5.756
99451SOL     OW  185  13.827   0.800  14.287
99451SOL    HW1  186  13.776   0.864  14.337
99451SOL    HW2  187  13.918   0.825  14.302
99452SOL     OW  188   8.579  13.944  13.220
99452SOL    HW1  189   8.601  13.875  13.283
99452SOL    HW2  190   8.486  13.961  13.236
99453SOL     OW  191  12.522   4.117   6.510
99453SOL    HW1  192  12.562   4.056   6.572
99453SOL    HW2  193  12.574   4.106   6.430
99454SOL     OW  194  14.766   5.853   2.231
99454SOL    HW1  195  14.844   5.893   2.195
99454SOL    HW2  196  14.731   5.799   2.160
99455SOL     OW  197   0.961   1.255  10.609
99455SOL    HW1  198   0.900   1.204  10.662
99455SOL    HW2  199   0.914   1.273  10.528
99456SOL     OW  200   3.320  13.564  14.699
99456SOL    HW1  201   3.332  13.631  14.632
99456SOL    HW2  202   3.238  13.520  14.674
99457SOL     OW  203  12.346   2.901   8.713
99457SOL    HW1  204  12.294   2.922   8.636
99457SOL    HW2  205  12.360   2.806   8.708
99458SOL     OW  206  13.803   2.516   1.007
99458SOL    HW1  207  13.844   2.496   1.091
99458SOL    HW2  208  13.709   2.499   1.021
99459SOL     OW  209  13.174   8.760   8.094
99459SOL    HW1  210  13.210   8.835   8.142
99459SOL    HW2  211  13.250   8.723   8.048
99460SOL     OW  212  12.237   4.493   7.634
99460SOL    HW1  213  12.184   4.531   7.704
99460SOL    HW2  214  12.190   4.516   7.553
99461SOL     OW  215   0.860   8.927  12.690
99461SOL    HW1  216   0.843   8.911  12.783
99461SOL    HW2  217   0.781   8.969  12.657
99462SOL     OW  218   6.942  13.339  13.161
99462SOL    HW1  219   6.982  13.307  13.242
99462SOL    HW2  220   7.015  13.374  13.110
99463SOL     OW  221  10.738   3.357   0.258
99463SOL    HW1  222  10.713   3.270   0.225
99463SOL    HW2  223  10.793   3.394   0.189
99464SOL     OW  224   3.088  10.005  10.193
99464SOL    HW1  225   3.139  10.053  10.127
99464SOL    HW2  226   3.059  10.073  10.254
99465SOL     OW  227   7.800  13.013   1.527
99465SOL    HW1  228   7.803  12.950   1.455
99465SOL    HW2  229   7.850  13.088   1.495
99466SOL     OW  230   4.306   4.156  12.829
99466SOL    HW1  231   4.274   4.242  12.858
99466SOL    HW2  232   4.229   4.114  12.791
99467SOL     OW  233   7.742   4.651   8.466
99467SOL    HW1  234   7.724   4.559   8.448
99467SOL    HW2  235   7.830   4.666   8.430
99468SOL     OW  236   0.967   6.268  11.559
99468SOL    HW1  237   1.043   6.231  11.514
99468SOL    HW2  238   0.903   6.284  11.489
99469SOL     OW  239  14.652  10.967   4.152
99469SOL    HW1  240  14.683  10.877   4.159
99469SOL    HW2  241  14.596  10.968   4.075
99470SOL     OW  242  12.585   3.251   9.736
99470SOL    HW1  243  12.642   3.316   9.776
99470SOL    HW2  244  12.609   3.252   9.643
99471SOL     OW  245   8.411   7.506   3.265
99471SOL    HW1  246   8.471   7.450   3.217
99471SOL    HW2  247   8.388   7.455   3.343
99472SOL     OW  248  11.131   1.346   6.813
99472SOL    HW1  249  11.056   1.399   6.840
99472SOL    HW2  250  11.113   1.324   6.722
99473SOL     OW  251   5.703  13.606   8.960
99473SOL    HW1  252   5.609  13.586   8.956
99473SOL    HW2  253   5.746  13.522   8.950
99474SOL     OW  254  13.955   2.228   5.575
99474SOL    HW1  255  13.991   2.139   5.580
99474SOL    HW2  256  14.017   2.281   5.625
99475SOL     OW  257   3.674  11.026  10.091
99475SOL    HW1  258   3.667  11.117  10.119
99475SOL    HW2  259   3.649  10.975  10.169
99476SOL     OW  260   0.598   9.359  11.718
99476SOL    HW1  261   0.663   9.428  11.730
99476SOL    HW2  262   0.533   9.374  11.786
99477SOL     OW  263   9.184   5.246   3.111
99477SOL    HW1  264   9.205   5.263   3.203
99477SOL    HW2  265   9.094   5.276   3.100
99478SOL     OW  266   4.560   3.703   4.041
99478SOL    HW1  267   4.527   3.789   4.068
99478SOL    HW2  268   4.544   3.646   4.116
99479SOL     OW  269   0.578   8.723   2.592
99479SOL    HW1  270   0.501   8.668   2.575
99479SOL    HW2  271   0.546   8.790   2.653
99480SOL     OW  272   6.886  12.727  14.803
99480SOL    HW1  273   6.914  12.774  14.725
99480SOL    HW2  274   6.889  12.793   0.000
99481SOL     OW  275  12.874   9.711  12.020
99481SOL    HW1  276  12.955   9.671  12.050
99481SOL    HW2  277  12.815   9.706  12.095
99482SOL     OW  278   1.384   5.983   8.989
99482SOL    HW1  279   1.421   5.902   8.954
99482SOL    HW2  280   1.447   6.012   9.056
99483SOL     OW  281  11.476   0.273   8.441
99483SOL    HW1  282  11.441   0.256   8.354
99483SOL    HW2  283  11.469   0.189   8.487
99484SOL     OW  284   9.081   5.041   4.713
99484SOL    HW1  285   9.156   5.053   4.770
99484SOL    HW2  286   9.119   5.020   4.627
99485SOL     OW  287   0.033   3.928  14.027
99485SOL    HW1  288   0.034   3.860  14.094
99485SOL    HW2  289   0.020   3.881  13.945
99486SOL     OW  290   7.619   8.550   3.374
99486SOL    HW1  291   7.687   8.485   3.357
99486SOL    HW2  292   7.619   8.605   3.295
99487SOL     OW  293   6.894  12.047   2.451
99487SOL    HW1  294   6.814  12.099   2.437
99487SOL    HW2  295   6.884  12.010   2.538
99488SOL     OW  296   4.048   3.654  14.758
99488SOL    HW1  297   4.141   3.648  14.778
99488SOL    HW2  298   4.031   3.580  14.699
99489SOL     OW  299  13.721  11.456  13.519
99489SOL    HW1  300  13.807  11.421  13.493
99489SOL    HW2  301  13.658  11.401  13.471
99490SOL     OW  302  10.424  10.394   4.729
99490SOL    HW1  303  10.403  10.474   4.681
99490SOL    HW2  304  10.516  10.378   4.710
99491SOL     OW  305   8.744   1.711   6.988
99491SOL    HW1  306   8.700   1.796   6.991
99491SOL    HW2  307   8.674   1.647   6.998
99492SOL     OW  308  13.704  11.637   4.603
99492SOL    HW1  309  13.681  11.730   4.616
99492SOL    HW2  310  13.687  11.596   4.688
99493SOL     OW  311   6.780   5.110  11.308
99493SOL    HW1  312   6.774   5.016  11.292
99493SOL    HW2  313   6.692   5.143  11.289
99494SOL     OW  314   9.321   2.373   0.045
99494SOL    HW1  315   9.251   2.385   0.109
99494SOL    HW2  316   9.351   2.462   0.026
99495SOL     OW  317  10.843  14.406   6.865
99495SOL    HW1  318  10.918  14.407   6.805
99495SOL    HW2  319  10.848  14.321   6.908
99496SOL     OW  320   8.862   6.298   1.440
99496SOL    HW1  321   8.803   6.345   1.499
99496SOL    HW2  322   8.884   6.362   1.372
99497SOL     OW  323  13.147   3.291   4.795
99497SOL    HW1  324  13.173   3.332   4.713
99497SOL    HW2  325  13.228   3.253   4.830
99498SOL     OW  326   3.181   1.960  10.248
99498SOL    HW1  327   3.161   1.991  10.336
99498SOL    HW2  328   3.261   2.007  10.224
99499SOL     OW  329   9.116   1.666   2.869
99499SOL    HW1  330   9.083   1.751   2.898
99499SOL    HW2  331   9.150   1.683   2.781
99500SOL     OW  332   9.291   4.635   1.580
99500SOL    HW1  333   9.281   4.595   1.494
99500SOL    HW2  334   9.220   4.700   1.584
99501SOL     OW  335   1.137   8.761  12.922
99501SOL    HW1  336   1.150   8.692  12.857
99501SOL    HW2  337   1.179   8.727  13.001
99502SOL     OW  338   7.087  12.630   4.651
99502SOL    HW1  339   7.003  12.675   4.660
99502SOL    HW2  340   7.129  12.673   4.577
99503SOL     OW  341   6.792   6.052   9.450
99503SOL    HW1  342   6.742   6.091   9.522
99503SOL    HW2  343   6.823   6.126   9.400
99504SOL     OW  344  13.185  11.680   7.592
99504SOL    HW1  345  13.098  11.706   7.622
99504SOL    HW2  346  13.214  11.752   7.536
99505SOL     OW  347   3.101   8.900  12.608
99505SOL    HW1  348   3.085   8.907  12.514
99505SOL    HW2  349   3.141   8.814  12.619
99506SOL     OW  350  13.811  10.207   9.604
99506SOL    HW1  351  13.763  10.236   9.681
99506SOL    HW2  352  13.760  10.239   9.530
99507SOL     OW  353   4.963  10.870  10.634
99507SOL    HW1  354   4.923  10.917  10.707
99507SOL    HW2  355   5.054  10.857  10.660
99508SOL     OW  356  14.160   1.763  12.563
99508SOL    HW1  357  14.115   1.847  12.548
99508SOL    HW2  358  14.092   1.706  12.598
99509SOL     OW  359   3.995  10.814  10.482
99509SOL    HW1  360   4.028  10.799  10.393
99509SOL    HW2  361   4.063  10.865  10.524
99510SOL     OW  362   3.749   0.078  10.207
99510SOL    HW1  363   3.725   0.113  10.293
99510SOL    HW2  364   3.720   0.145  10.145
99511SOL     OW  365   3.568   4.419   5.481
99511SOL    HW1  366   3.529   4.377   5.558
99511SOL    HW2  367   3.508   4.399   5.409
99512SOL     OW  368  14.311  12.294   2.847
99512SOL    HW1  369  14.368  12.231   2.892
99512SOL    HW2  370  14.289  12.252   2.764
99513SOL     OW  371   8.469  12.095   6.154
99513SOL    HW1  372   8.527  12.162   6.119
99513SOL    HW2  373   8.421  12.138   6.224
99514SOL     OW  374  11.226  12.056   0.774
99514SOL    HW1  375  11.285  12.063   0.849
99514SOL    HW2  376  11.283  12.063   0.698
99515SOL     OW  377   0.889   1.460  12.042
99515SOL    HW1  378   0.914   1.550  12.020
99515SOL    HW2  379   0.819   1.470  12.107
99516SOL     OW  380   1.285   1.735   2.957
99516SOL    HW1  381   1.284   1.683   3.037
99516SOL    HW2  382   1.236   1.682   2.893
99517SOL     OW  383   5.626   5.603  12.836
99517SOL    HW1  384   5.536   5.595  12.806
99517SOL    HW2  385   5.646   5.517  12.873
99518SOL     OW  386  12.193   1.150   5.555
99518SOL    HW1  387  12.111   1.104   5.538
99518SOL    HW2  388  12.260   1.082   5.549
99519SOL     OW  389   6.138   3.874  11.789
99519SOL    HW1  390   6.088   3.952  11.768
99519SOL    HW2  391   6.178   3.893  11.874
99520SOL     OW  392  10.842   0.779   4.813
99520SOL    HW1  393  10.840   0.754   4.720
99520SOL    HW2  394  10.935   0.786   4.834
99521SOL     OW  395   5.319   1.354  14.197
99521SOL    HW1  396   5.390   1.369  14.260
99521SOL    HW2  397   5.250   1.414  14.224
99522SOL     OW  398   5.926   2.569   4.960
99522SOL    HW1  399   5.917   2.663   4.974
99522SOL    HW2  400   5.934   2.560   4.865
99523SOL     OW  401   9.139  11.094  11.635
99523SOL    HW1  402   9.157  11.031  11.566
99523SOL    HW2  403   9.159  11.048  11.717
99524SOL     OW  404  13.920  13.350   4.231
99524SOL    HW1  405  13.834  13.348   4.273
99524SOL    HW2  406  13.979  13.384   4.298
99525SOL     OW  407  10.833   8.881   2.396
99525SOL    HW1  408  10.832   8.971   2.363
99525SOL    HW2  409  10.908   8.879   2.456
99526SOL     OW  410   8.840  11.552  13.993
99526SOL    HW1  411   8.907  11.617  13.969
99526SOL    HW2  412   8.784  11.546  13.915
99527SOL     OW  413   8.284   2.082   0.795
99527SOL    HW1  414   8.252   2.077   0.885
99527SOL    HW2  415   8.343   2.007   0.787
99528SOL     OW  416   6.926   6.632   1.516
99528SOL    HW1  417   6.878   6.556   1.483
99528SOL    HW2  418   6.993   6.649   1.450
99529SOL     OW  419  12.510   2.503   6.293
99529SOL    HW1  420  12.531   2.413   6.318
99529SOL    HW2  421  12.527   2.505   6.199
99530SOL     OW  422   2.081   9.784   4.713
99530SOL    HW1  423   2.084   9.837   4.793
99530SOL    HW2  424   2.157   9.814   4.662
99531SOL     OW  425   5.938  12.626   2.354
99531SOL    HW1  426   5.910  12.710   2.318
99531SOL    HW2  427   6.020  12.646   2.399
99532SOL     OW  428  14.302   0.906  10.779
99532SOL    HW1  429  14.293   0.951  10.863
99532SOL    HW2  430  14.318   0.815  10.802
99533SOL     OW  431   5.067   2.201  12.503
99533SOL    HW1  432   5.052   2.221  12.595
99533SOL    HW2  433   5.074   2.105  12.501
99534SOL     OW  434  13.433  14.219   0.922
99534SOL    HW1  435  13.405  14.259   0.839
99534SOL    HW2  436  13.366  14.246   0.985
99535SOL     OW  437   6.449  11.123  13.654
99535SOL    HW1  438   6.494  11.085  13.578
99535SOL    HW2  439   6.372  11.067  13.666
99536SOL     OW  440  14.007  14.167  10.274
99536SOL    HW1  441  14.000  14.186  10.368
99536SOL    HW2  442  14.102  14.164  10.258
99537SOL     OW  443  11.373   9.482   2.167
99537SOL    HW1  444  11.404   9.436   2.245
99537SOL    HW2  445  11.421   9.565   2.167
99538SOL     OW  446  12.045   3.223   1.051
99538SOL    HW1  447  12.136   3.194   1.047
99538SOL    HW2  448  12.034   3.278   0.974
99539SOL     OW  449   1.683   5.059   1.943
99539SOL    HW1  450   1.618   5.113   1.898
99539SOL    HW2  451   1.759   5.117   1.954
99540SOL     OW  452   1.554   8.430  10.077
99540SOL    HW1  453   1.528   8.497  10.014
99540SOL    HW2  454   1.509   8.350  10.048
99541SOL     OW  455   2.209   6.218  11.377
99541SOL    HW1  456   2.117   6.242  11.377
99541SOL    HW2  457   2.256   6.302  11.373
99542SOL     OW  458   3.841  14.278  12.519
99542SOL    HW1  459   3.826  14.314  12.606
99542SOL    HW2  460   3.766  14.221  12.503
99543SOL     OW  461   7.578   0.857   1.988
99543SOL    HW1  462   7.487   0.836   1.967
99543SOL    HW2  463   7.627   0.777   1.967
99544SOL     OW  464  13.532  10.105   0.465
99544SOL    HW1  465  13.518  10.018   0.502
99544SOL    HW2  466  13.445  10.133   0.436
99545SOL     OW  467   0.507  11.535   7.791
99545SOL    HW1  468   0.418  11.504   7.777
99545SOL    HW2  469   0.563  11.466   7.755
99546SOL     OW  470   6.012   9.421   3.962
99546SOL    HW1  471   5.957   9.345   3.981
99546SOL    HW2  472   6.100   9.394   3.990
99547SOL     OW  473   9.856  14.691  14.566
99547SOL    HW1  474   9.843  14.598  14.583
99547SOL    HW2  475   9.770  14.722  14.535
99548SOL     OW  476  12.129  10.163   5.800
99548SOL    HW1  477  12.087  10.087   5.841
99548SOL    HW2  478  12.060  10.229   5.797
99549SOL     OW  479  11.033   5.531  14.336
99549SOL    HW1  480  10.993   5.567  14.415
99549SOL    HW2  481  11.038   5.605  14.276
99550SOL     OW  482   0.671   0.953   6.203
99550SOL    HW1  483   0.737   1.005   6.248
99550SOL    HW2  484   0.657   0.998   6.120
99551SOL     OW  485   2.215  11.960   1.528
99551SOL    HW1  486   2.220  11.917   1.613
99551SOL    HW2  487   2.249  12.048   1.543
99552SOL     OW  488  10.804   2.959  13.137
99552SOL    HW1  489  10.761   3.043  13.118
99552SOL    HW2  490  10.818   2.920  13.051
99553SOL     OW  491   2.614   5.009   6.084
99553SOL    HW1  492   2.528   5.043   6.060
99553SOL    HW2  493   2.605   4.986   6.177
99554SOL     OW  494   7.718   5.057   5.951
99554SOL    HW1  495   7.763   5.006   6.018
99554SOL    HW2  496   7.763   5.034   5.869
99555SOL     OW  497   0.601  10.340   5.709
99555SOL    HW1  498   0.567  10.399   5.642
99555SOL    HW2  499   0.689  10.318   5.679
99556SOL     OW  500  13.148   4.520   9.813
99556SOL    HW1  501  13.160   4.529   9.719
99556SOL    HW2  502  13.157   4.426   9.829
99557SOL     OW  503  13.742   3.555   4.125
99557SOL    HW1  504  13.832   3.527   4.112
99557SOL    HW2  505  13.748   3.624   4.192
99558SOL     OW  506   5.289   4.319  13.496
99558SOL    HW1  507   5.287   4.371  13.576
99558SOL    HW2  508   5.300   4.229  13.526
99559SOL     OW  509   3.910  10.815   9.439
99559SOL    HW1  510   3.968  10.805   9.514
99559SOL    HW2  511   3.966  10.807   9.362
99560SOL     OW  512  10.178   3.409  11.209
99560SOL    HW1  513  10.096   3.370  11.181
99560SOL    HW2  514  10.175   3.499  11.177
99561SOL     OW  515  12.306   2.750   4.942
99561SOL    HW1  516  12.246   2.823   4.960
99561SOL    HW2  517  12.393   2.789   4.947
99562SOL     OW  518   4.617   7.061  11.408
99562SOL    HW1  519   4.536   7.062  11.356
99562SOL    HW2  520   4.656   7.147  11.392
99563SOL     OW  521   7.170  14.787   1.029
99563SOL    HW1  522   7.087  14.814   0.990
99563SOL    HW2  523   7.222  14.753   0.956
99564SOL     OW  524   5.702   2.106   9.422
99564SOL    HW1  525   5.607   2.109   9.406
99564SOL    HW2  526   5.725   2.195   9.446
99565SOL     OW  527   8.580  11.341   6.440
99565SOL    HW1  528   8.556  11.353   6.348
99565SOL    HW2  529   8.630  11.260   6.442
99566SOL     OW  530  13.972  14.502   6.188
99566SOL    HW1  531  14.051  14.448   6.188
99566SOL    HW2  532  13.986  14.565   6.118
99567SOL     OW  533   1.506   3.984   3.122
99567SOL    HW1  534   1.538   4.020   3.039
99567SOL    HW2  535   1.431   3.930   3.097
99568SOL     OW  536   7.649  10.239   9.906
99568SOL    HW1  537   7.708  10.247   9.981
99568SOL    HW2  538   7.610  10.326   9.897
99569SOL     OW  539   2.949  14.104   2.287
99569SOL    HW1  540   2.956  14.040   2.358
99569SOL    HW2  541   2.855  14.105   2.265
99570SOL     OW  542   7.829  13.618   4.436
99570SOL    HW1  543   7.841  13.577   4.350
99570SOL    HW2  544   7.823  13.712   4.417
99571SOL     OW  545  11.690   5.213   9.134
99571SOL    HW1  546  11.656   5.149   9.071
99571SOL    HW2  547  11.646   5.295   9.112
99572SOL     OW  548  14.700   5.916   7.125
99572SOL    HW1  549  14.688   5.970   7.203
99572SOL    HW2  550  14.697   5.826   7.157
99573SOL     OW  551   1.075   3.608   4.514
99573SOL    HW1  552   1.110   3.691   4.483
99573SOL    HW2  553   1.066   3.554   4.435
99574SOL     OW  554   6.282   1.531   9.404
99574SOL    HW1  555   6.360   1.523   9.350
99574SOL    HW2  556   6.269   1.625   9.414
99575SOL     OW  557   7.814   0.907   0.839
99575SOL    HW1  558   7.777   0.882   0.924
99575SOL    HW2  559   7.799   0.831   0.783
99576SOL     OW  560  14.198  13.817   5.457
99576SOL    HW1  561  14.150  13.751   5.506
99576SOL    HW2  562  14.169  13.808   5.367
99577SOL     OW  563  13.377   0.435   6.604
99577SOL    HW1  564  13.391   0.357   6.658
99577SOL    HW2  565  13.302   0.479   6.644
99578SOL     OW  566  13.812   9.590   1.299
99578SOL    HW1  567  13.809   9.501   1.332
99578SOL    HW2  568  13.876   9.588   1.228
99579SOL     OW  569   6.252   2.329   7.597
99579SOL    HW1  570   6.160   2.305   7.584
99579SOL    HW2  571   6.252   2.425   7.592
99580SOL     OW  572   6.271   2.210   4.390
99580SOL    HW1  573   6.358   2.192   4.353
99580SOL    HW2  574   6.212   2.156   4.337
99581SOL     OW  575   3.255  13.334   9.304
99581SOL    HW1  576   3.321  13.268   9.283
99581SOL    HW2  577   3.306  13.412   9.327
99582SOL     OW  578   2.031   7.852   6.910
99582SOL    HW1  579   2.107   7.907   6.931
99582SOL    HW2  580   1.958   7.895   6.955
99583SOL     OW  581  12.825   7.389  14.268
99583SOL    HW1  582  12.791   7.403  14.180
99583SOL    HW2  583  12.870   7.305  14.263
99584SOL     OW  584   5.991   2.668   7.879
99584SOL    HW1  585   6.043   2.736   7.921
99584SOL    HW2  586   5.948   2.712   7.806
99585SOL     OW  587   0.534   3.600  11.668
99585SOL    HW1  588   0.627   3.590  11.650
99585SOL    HW2  589   0.507   3.514  11.700
99586SOL     OW  590   3.104   8.645  11.809
99586SOL    HW1  591   3.016   8.676  11.829
99586SOL    HW2  592   3.120   8.575  11.873
99587SOL     OW  593   6.634   4.909  13.181
99587SOL    HW1  594   6.589   4.884  13.100
99587SOL    HW2  595   6.713   4.855  13.182
99588SOL     OW  596  10.348  12.220  12.432
99588SOL    HW1  597  10.282  12.264  12.378
99588SOL    HW2  598  10.431  12.257  12.403
99589SOL     OW  599   5.723   5.601   3.681
99589SOL    HW1  600   5.631   5.611   3.702
99589SOL    HW2  601   5.727   5.522   3.627
99590SOL     OW  602   5.731  10.647   9.429
99590SOL    HW1  603   5.643  10.611   9.434
99590SOL    HW2  604   5.721  10.731   9.385
99591SOL     OW  605   9.927  12.736   7.660
99591SOL    HW1  606   9.843  12.710   7.622
99591SOL    HW2  607   9.916  12.720   7.754
99592SOL     OW  608  10.086   4.914   1.862
99592SOL    HW1  609  10.111   5.005   1.851
99592SOL    HW2  610  10.075   4.881   1.773
99593SOL     OW  611   1.778   2.575   6.838
99593SOL    HW1  612   1.749   2.587   6.748
99593SOL    HW2  613   1.821   2.489   6.838
99594SOL     OW  614   0.972  13.409  12.395
99594SOL    HW1  615   1.049  13.418  12.451
99594SOL    HW2  616   0.906  13.369  12.452
99595SOL     OW  617  13.609   9.913   2.304
99595SOL    HW1  618  13.539   9.909   2.368
99595SOL    HW2  619  13.661   9.834   2.321
99596SOL     OW  620  10.222   3.525   0.961
99596SOL    HW1  621  10.201   3.614   0.990
99596SOL    HW2  622  10.218   3.529   0.866
99597SOL     OW  623   7.295   2.069   0.915
99597SOL    HW1  624   7.272   1.977   0.924
99597SOL    HW2  625   7.344   2.074   0.833
99598SOL     OW  626   7.879   1.801   2.992
99598SOL    HW1  627   7.959   1.756   2.963
99598SOL    HW2  628   7.910   1.869   3.052
99599SOL     OW  629   7.763   4.282  12.907
99599SOL    HW1  630   7.687   4.270  12.964
99599SOL    HW2  631   7.733   4.344  12.841
99600SOL     OW  632  10.918   1.437   0.693
99600SOL    HW1  633  10.985   1.461   0.629
99600SOL    HW2  634  10.962   1.442   0.777
99601SOL     OW  635   1.051   4.584   3.769
99601SOL    HW1  636   0.987   4.614   3.705
99601SOL    HW2  637   1.110   4.528   3.718
99602SOL     OW  638  12.497   3.913  14.797
99602SOL    HW1  639  12.569   3.884  14.854
99602SOL    HW2  640  12.538   3.923  14.711
99603SOL     OW  641   9.541   1.302   3.775
99603SOL    HW1  642   9.597   1.226   3.760
99603SOL    HW2  643   9.462   1.266   3.816
99604SOL     OW  644   4.132  12.390  12.849
99604SOL    HW1  645   4.052  12.373  12.899
99604SOL    HW2  646   4.181  12.308  12.852
99605SOL     OW  647  13.365  12.777   8.281
99605SOL    HW1  648  13.459  12.765   8.265
99605SOL    HW2  649  13.356  12.765   8.376
99606SOL     OW  650   7.705   2.013  12.219
99606SOL    HW1  651   7.637   2.057  12.271
99606SOL    HW2  652   7.672   1.923  12.209
99607SOL     OW  653   6.754   1.988   7.203
99607SOL    HW1  654   6.730   1.917   7.262
99607SOL    HW2  655   6.849   1.991   7.206
99608SOL     OW  656   7.663  13.932   0.844
99608SOL    HW1  657   7.700  13.890   0.922
99608SOL    HW2  658   7.740  13.959   0.794
99609SOL     OW  659  12.383  13.582   9.715
99609SOL    HW1  660  12.397  13.676   9.725
99609SOL    HW2  661  12.342  13.573   9.629
99610SOL     OW  662   2.778   0.015   6.672
99610SOL    HW1  663   2.734   0.004   6.757
99610SOL    HW2  664   2.852   0.072   6.691
99611SOL     OW  665   0.812  13.837  13.977
99611SOL    HW1  666   0.868  13.838  13.899
99611SOL    HW2  667   0.774  13.749  13.978
99612SOL     OW  668   5.484   8.536   7.520
99612SOL    HW1  669   5.416   8.560   7.584
99612SOL    HW2  670   5.490   8.441   7.527
99613SOL     OW  671  14.462  11.554  10.508
99613SOL    HW1  672  14.489  11.536  10.598
99613SOL    HW2  673  14.468  11.470  10.463
99614SOL     OW  674  13.141   5.678   2.997
99614SOL    HW1  675  13.097   5.742   3.053
99614SOL    HW2  676  13.110   5.698   2.909
99615SOL     OW  677  12.649  10.965   9.288
99615SOL    HW1  678  12.650  11.033   9.220
99615SOL    HW2  679  12.741  10.942   9.301
99616SOL     OW  680  10.302   3.288  13.152
99616SOL    HW1  681  10.233   3.345  13.117
99616SOL    HW2  682  10.350   3.343  13.214
99617SOL     OW  683   9.562   2.839  10.532
99617SOL    HW1  684   9.508   2.848  10.611
99617SOL    HW2  685   9.510   2.882  10.464
99618SOL     OW  686   8.099   6.663  11.508
99618SOL    HW1  687   8.090   6.757  11.526
99618SOL    HW2  688   8.077   6.621  11.591
99619SOL     OW  689  13.731  12.215  13.128
99619SOL    HW1  690  13.640  12.202  13.157
99619SOL    HW2  691  13.770  12.128  13.135
99620SOL     OW  692  11.205   0.956   2.787
99620SOL    HW1  693  11.112   0.977   2.773
99620SOL    HW2  694  11.250   0.995   2.712
99621SOL     OW  695   6.761  12.318  14.169
99621SOL    HW1  696   6.756  12.232  14.212
99621SOL    HW2  697   6.681  12.323  14.117
99622SOL     OW  698   1.359   9.050   8.535
99622SOL    HW1  699   1.281   9.093   8.568
99622SOL    HW2  700   1.428   9.071   8.598
99623SOL     OW  701  14.862   5.559   0.015
99623SOL    HW1  702  14.792   5.495   0.002
99623SOL    HW2  703  14.835   5.635  14.836
99624SOL     OW  704   7.726   9.379  12.819
99624SOL    HW1  705   7.658   9.380  12.887
99624SOL    HW2  706   7.694   9.441  12.753
99625SOL     OW  707  13.124   9.991   4.975
99625SOL    HW1  708  13.063   9.923   5.001
99625SOL    HW2  709  13.187   9.948   4.917
99626SOL     OW  710   0.461   9.259   2.425
99626SOL    HW1  711   0.370   9.288   2.434
99626SOL    HW2  712   0.510   9.319   2.481
99627SOL     OW  713   5.714  11.585   9.884
99627SOL    HW1  714   5.664  11.663   9.906
99627SOL    HW2  715   5.744  11.551   9.969
99628SOL     OW  716  11.613   2.638  14.303
99628SOL    HW1  717  11.693   2.585  14.300
99628SOL    HW2  718  11.582   2.641  14.213
99629SOL     OW  719  10.624  10.971  14.041
99629SOL    HW1  720  10.592  11.010  14.123
99629SOL    HW2  721  10.550  10.921  14.008
99630SOL     OW  722   2.148   9.116   6.878
99630SOL    HW1  723   2.239   9.104   6.906
99630SOL    HW2  724   2.154   9.141   6.786
99631SOL     OW  725  11.642   6.741   8.772
99631SOL    HW1  726  11.662   6.787   8.690
99631SOL    HW2  727  11.632   6.649   8.746
99632SOL     OW  728   5.523  13.489  11.850
99632SOL    HW1  729   5.618  13.478  11.839
99632SOL    HW2  730   5.510  13.488  11.945
99633SOL     OW  731  10.266  14.402  13.981
99633SOL    HW1  732  10.181  14.435  13.954
99633SOL    HW2  733  10.312  14.479  14.016
99634SOL     OW  734   0.752   7.562  12.654
99634SOL    HW1  735   0.712   7.649  12.649
99634SOL    HW2  736   0.824   7.565  12.591
99635SOL     OW  737  14.262   6.513   9.100
99635SOL    HW1  738  14.327   6.567   9.055
99635SOL    HW2  739  14.178   6.544   9.068
99636SOL     OW  740   5.643  14.331  11.779
99636SOL    HW1  741   5.575  14.265  11.784
99636SOL    HW2  742   5.606  14.408  11.823
99637SOL     OW  743   0.567  10.966  12.000
99637SOL    HW1  744   0.621  10.887  12.006
99637SOL    HW2  745   0.618  11.025  11.943
99638SOL     OW  746   8.777  13.591   0.580
99638SOL    HW1  747   8.755  13.567   0.670
99638SOL    HW2  748   8.786  13.507   0.535
99639SOL     OW  749   7.225   9.866  11.796
99639SOL    HW1  750   7.180   9.904  11.872
99639SOL    HW2  751   7.183   9.908  11.720
99640SOL     OW  752  13.221   3.327   2.684
99640SOL    HW1  753  13.138   3.280   2.689
99640SOL    HW2  754  13.282   3.275   2.736
99641SOL     OW  755   5.610   2.180  12.053
99641SOL    HW1  756   5.701   2.201  12.071
99641SOL    HW2  757   5.574   2.152  12.137
99642SOL     OW  758  14.430   3.615  14.482
99642SOL    HW1  759  14.485   3.667  14.424
99642SOL    HW2  760  14.342   3.650  14.470
99643SOL     OW  761  14.240  12.959  11.874
99643SOL    HW1  762  14.199  12.900  11.812
99643SOL    HW2  763  14.331  12.929  11.879
99644SOL     OW  764  14.101   8.699   2.248
99644SOL    HW1  765  14.126   8.775   2.194
99644SOL    HW2  766  14.064   8.637   2.185
99645SOL     OW  767  11.013  11.238  10.528
99645SOL    HW1  768  10.975  11.284  10.603
99645SOL    HW2  769  11.050  11.158  10.565
99646SOL     OW  770   0.919  10.547  12.113
99646SOL    HW1  771   0.912  10.641  12.096
99646SOL    HW2  772   1.010  10.534  12.138
99647SOL     OW  773   2.054   0.371   2.527
99647SOL    HW1  774   2.071   0.349   2.618
99647SOL    HW2  775   2.125   0.431   2.503
99648SOL     OW  776   8.195   4.807   8.040
99648SOL    HW1  777   8.127   4.865   8.074
99648SOL    HW2  778   8.226   4.759   8.117
99649SOL     OW  779   2.137  12.205   7.153
99649SOL    HW1  780   2.209  12.148   7.178
99649SOL    HW2  781   2.063  12.175   7.206
99650SOL     OW  782  13.287   7.325   4.047
99650SOL    HW1  783  13.352   7.341   4.116
99650SOL    HW2  784  13.252   7.411   4.026
99651SOL     OW  785   8.924   6.048   3.518
99651SOL    HW1  786   8.918   5.960   3.482
99651SOL    HW2  787   8.833   6.075   3.531
99652SOL     OW  788   2.184   3.657  14.513
99652SOL    HW1  789   2.175   3.746  14.549
99652SOL    HW2  790   2.212   3.670  14.422
99653SOL     OW  791   8.529  14.716  11.960
99653SOL    HW1  792   8.441  14.753  11.950
99653SOL    HW2  793   8.546  14.721  12.054
99654SOL     OW  794   9.131   4.387   9.834
99654SOL    HW1  795   9.095   4.435   9.909
99654SOL    HW2  796   9.120   4.447   9.760
99655SOL     OW  797   6.182  10.700  13.048
99655SOL    HW1  798   6.263  10.678  13.093
99655SOL    HW2  799   6.172  10.633  12.981
99656SOL     OW  800   2.588  14.159   5.066
99656SOL    HW1  801   2.645  14.102   5.014
99656SOL    HW2  802   2.598  14.128   5.156
99657SOL     OW  803  11.768   1.438   0.642
99657SOL    HW1  804  11.836   1.490   0.684
99657SOL    HW2  805  11.789   1.441   0.549
99658SOL     OW  806   1.883  12.813   4.926
99658SOL    HW1  807   1.871  12.750   4.997
99658SOL    HW2  808   1.934  12.766   4.860
99659SOL     OW  809  13.538   9.360   3.731
99659SOL    HW1  810  13.454   9.316   3.712
99659SOL    HW2  811  13.530   9.388   3.822
99660SOL     OW  812  12.130  10.208  13.655
99660SOL    HW1  813  12.129  10.195  13.561
99660SOL    HW2  814  12.104  10.300  13.667
99661SOL     OW  815   1.474  10.558  13.793
99661SOL    HW1  816   1.471  10.649  13.821
99661SOL    HW2  817   1.563  10.546  13.760
99662SOL     OW  818  12.173  13.910  10.943
99662SOL    HW1  819  12.137  13.873  10.863
99662SOL    HW2  820  12.172  14.004  10.929
99663SOL     OW  821   2.825   5.162   9.894
99663SOL    HW1  822   2.810   5.257   9.897
99663SOL    HW2  823   2.754   5.126   9.947
99664SOL     OW  824  11.510  13.012  11.151
99664SOL    HW1  825  11.514  12.916  11.144
99664SOL    HW2  826  11.463  13.029  11.232
99665SOL     OW  827   4.340   4.093   9.240
99665SOL    HW1  828   4.300   4.051   9.316
99665SOL    HW2  829   4.266   4.119   9.185
99666SOL     OW  830  10.967   4.738  13.183
99666SOL    HW1  831  11.062   4.728  13.186
99666SOL    HW2  832  10.934   4.669  13.240
99667SOL     OW  833   9.717   9.722   2.812
99667SOL    HW1  834   9.626   9.753   2.811
99667SOL    HW2  835   9.741   9.714   2.719
99668SOL     OW  836  12.622   3.776   7.173
99668SOL    HW1  837  12.547   3.821   7.212
99668SOL    HW2  838  12.587   3.693   7.141
99669SOL     OW  839   9.048   2.725  12.732
99669SOL    HW1  840   8.974   2.747  12.676
99669SOL    HW2  841   9.108   2.799  12.724
99670SOL     OW  842   6.743   9.873   5.963
99670SOL    HW1  843   6.716   9.842   6.049
99670SOL    HW2  844   6.833   9.841   5.953
99671SOL     OW  845  13.984  14.771  13.364
99671SOL    HW1  846  13.973  14.836  13.433
99671SOL    HW2  847  13.971  14.687  13.408
99672SOL     OW  848  10.269  11.759   8.384
99672SOL    HW1  849  10.301  11.709   8.459
99672SOL    HW2  850  10.175  11.740   8.381
99673SOL     OW  851   2.024   5.596  14.101
99673SOL    HW1  852   1.970   5.627  14.029
99673SOL    HW2  853   2.067   5.674  14.135
99674SOL     OW  854  13.110   6.459  11.593
99674SOL    HW1  855  13.103   6.428  11.502
99674SOL    HW2  856  13.156   6.388  11.638
99675SOL     OW  857   8.045   4.389   7.026
99675SOL    HW1  858   8.140   4.403   7.022
99675SOL    HW2  859   8.033   4.331   7.101
99676SOL     OW  860   7.147   6.118   4.565
99676SOL    HW1  861   7.176   6.209   4.564
99676SOL    HW2  862   7.099   6.109   4.648
99677SOL     OW  863   2.245   7.901   8.306
99677SOL    HW1  864   2.232   7.960   8.232
99677SOL    HW2  865   2.156   7.873   8.329
99678SOL     OW  866   8.234  12.622  11.260
99678SOL    HW1  867   8.301  12.554  11.253
99678SOL    HW2  868   8.151  12.577  11.243
99679SOL     OW  869  13.962   1.583   7.770
99679SOL    HW1  870  13.906   1.507   7.754
99679SOL    HW2  871  14.035   1.572   7.709
99680SOL     OW  872  10.351   9.192   7.640
99680SOL    HW1  873  10.284   9.249   7.679
99680SOL    HW2  874  10.327   9.104   7.669
99681SOL     OW  875   1.242   6.336   0.444
99681SOL    HW1  876   1.331   6.301   0.437
99681SOL    HW2  877   1.230   6.388   0.365
99682SOL     OW  878   2.155  12.358   3.869
99682SOL    HW1  879   2.247  12.332   3.875
99682SOL    HW2  880   2.106  12.281   3.899
99683SOL     OW  881   3.381   1.050   4.481
99683SOL    HW1  882   3.463   1.066   4.527
99683SOL    HW2  883   3.406   1.036   4.390
99684SOL     OW  884   3.299   9.444   4.070
99684SOL    HW1  885   3.301   9.407   3.982
99684SOL    HW2  886   3.216   9.492   4.074
99685SOL     OW  887  14.134   6.746  10.056
99685SOL    HW1  888  14.089   6.713   9.978
99685SOL    HW2  889  14.122   6.841  10.052
99686SOL     OW  890   5.894  11.325   0.664
99686SOL    HW1  891   5.883  11.319   0.570
99686SOL    HW2  892   5.808  11.303   0.700
99687SOL     OW  893   7.237  13.529   7.408
99687SOL    HW1  894   7.149  13.551   7.380
99687SOL    HW2  895   7.242  13.434   7.400
99688SOL     OW  896   1.357  12.115   3.473
99688SOL    HW1  897   1.298  12.189   3.456
99688SOL    HW2  898   1.340  12.092   3.564
99689SOL     OW  899   5.095   2.270   1.873
99689SOL    HW1  900   5.190   2.276   1.882
99689SOL    HW2  901   5.081   2.192   1.819
99690SOL     OW  902   7.193  14.840  14.847
99690SOL    HW1  903   7.251  14.872   0.043
99690SOL    HW2  904   7.151   0.045  14.812
99691SOL     OW  905   5.827  11.532   4.425
99691SOL    HW1  906   5.757  11.592   4.398
99691SOL    HW2  907   5.832  11.468   4.354
99692SOL     OW  908  13.128   2.625   9.066
99692SOL    HW1  909  13.153   2.593   8.979
99692SOL    HW2  910  13.051   2.679   9.050
99693SOL     OW  911   3.356   1.694   8.777
99693SOL    HW1  912   3.300   1.649   8.840
99693SOL    HW2  913   3.412   1.752   8.830
99694SOL     OW  914  10.112   1.342  10.302
99694SOL    HW1  915  10.111   1.397  10.380
99694SOL    HW2  916  10.025   1.354  10.263
99695SOL     OW  917   6.854   3.211   0.884
99695SOL    HW1  918   6.858   3.304   0.860
99695SOL    HW2  919   6.762   3.196   0.907
99696SOL     OW  920   2.332   0.582   5.237
99696SOL    HW1  921   2.427   0.574   5.252
99696SOL    HW2  922   2.293   0.564   5.322
99697SOL     OW  923  13.991  12.080   8.031
99697SOL    HW1  924  13.911  12.055   7.985
99697SOL    HW2  925  13.969  12.073   8.124
99698SOL     OW  926   6.165   9.378   1.840
99698SOL    HW1  927   6.105   9.314   1.880
99698SOL    HW2  928   6.241   9.326   1.814
99699SOL     OW  929  11.884   5.526  11.750
99699SOL    HW1  930  11.809   5.501  11.803
99699SOL    HW2  931  11.939   5.579  11.809
99700SOL     OW  932   1.647   6.646   2.345
99700SOL    HW1  933   1.663   6.557   2.376
99700SOL    HW2  934   1.711   6.700   2.392
99701SOL     OW  935   6.426   1.620   4.349
99701SOL    HW1  936   6.431   1.566   4.427
99701SOL    HW2  937   6.513   1.660   4.342
99702SOL     OW  938  14.402  13.511   4.506
99702SOL    HW1  939  14.399  13.418   4.483
99702SOL    HW2  940  14.383  13.513   4.600
99703SOL     OW  941   1.023   8.862   2.947
99703SOL    HW1  942   1.025   8.833   2.856
99703SOL    HW2  943   1.051   8.785   2.997
99704SOL     OW  944  12.522   1.329  12.209
99704SOL    HW1  945  12.488   1.409  12.251
99704SOL    HW2  946  12.464   1.260  12.241
99705SOL     OW  947   6.627  12.842   3.916
99705SOL    HW1  948   6.577  12.819   3.838
99705SOL    HW2  949   6.709  12.793   3.908
99706SOL     OW  950  12.434   4.136   9.335
99706SOL    HW1  951  12.506   4.161   9.279
99706SOL    HW2  952  12.355   4.164   9.288
99707SOL     OW  953   8.089   2.386  10.674
99707SOL    HW1  954   8.026   2.416  10.740
99707SOL    HW2  955   8.101   2.462  10.616
99708SOL     OW  956   7.046   1.936  11.861
99708SOL    HW1  957   7.138   1.947  11.835
99708SOL    HW2  958   7.024   2.018  11.905
99709SOL     OW  959  12.582   0.493   3.042
99709SOL    HW1  960  12.539   0.469   2.960
99709SOL    HW2  961  12.559   0.423   3.102
99710SOL     OW  962   1.442   2.931   1.032
99710SOL    HW1  963   1.490   2.914   0.951
99710SOL    HW2  964   1.488   2.879   1.098
99711SOL     OW  965   7.958  10.846   1.460
99711SOL    HW1  966   8.033  10.876   1.408
99711SOL    HW2  967   7.948  10.754   1.437
99712SOL     OW  968  12.081   1.418  10.692
99712SOL    HW1  969  12.120   1.396  10.777
99712SOL    HW2  970  12.040   1.337  10.663
99713SOL     OW  971   3.002   5.361   7.227
99713SOL    HW1  972   2.909   5.379   7.222
99713SOL    HW2  973   3.024   5.372   7.319
99714SOL     OW  974   4.039   1.285  11.349
99714SOL    HW1  975   4.131   1.309  11.347
99714SOL    HW2  976   4.036   1.199  11.307
99715SOL     OW  977   2.445   1.709   5.957
99715SOL    HW1  978   2.502   1.634   5.938
99715SOL    HW2  979   2.395   1.722   5.876
99716SOL     OW  980  12.307  12.405   3.773
99716SOL    HW1  981  12.285  12.318   3.804
99716SOL    HW2  982  12.261  12.413   3.689
99717SOL     OW  983  13.419  11.361   1.689
99717SOL    HW1  984  13.380  11.408   1.616
99717SOL    HW2  985  13.513  11.376   1.680
99718SOL     OW  986  12.351   8.396  10.903
99718SOL    HW1  987  12.316   8.463  10.962
99718SOL    HW2  988  12.292   8.396  10.828
99719SOL     OW  989   9.924  13.657  10.031
99719SOL    HW1  990  10.009  13.640   9.989
99719SOL    HW2  991   9.938  13.738  10.080
99720SOL     OW  992   0.433  14.730   6.112
99720SOL    HW1  993   0.443  14.720   6.207
99720SOL    HW2  994   0.364  14.795   6.102
99721SOL     OW  995   9.791   0.684   9.174
99721SOL    HW1  996   9.822   0.624   9.242
99721SOL    HW2  997   9.854   0.673   9.102
99722SOL     OW  998  11.393   8.046   3.854
99722SOL    HW1  999  11.442   7.991   3.793
99722SOL    HW2 1000  11.461   8.096   3.900
99723SOL     OW 1001   3.932  12.223   9.437
99723SOL    HW1 1002   3.872  12.151   9.420
99723SOL    HW2 1003   3.984  12.231   9.357
99724SOL     OW 1004  11.274   1.660   1.627
99724SOL    HW1 1005  11.231   1.629   1.548
99724SOL    HW2 1006  11.302   1.581   1.673
99725SOL     OW 1007   2.737   0.547  11.410
99725SOL    HW1 1008   2.825   0.551  11.371
99725SOL    HW2 1009   2.680   0.523  11.337
99726SOL     OW 1010   4.877   9.592  13.486
99726SOL    HW1 1011   4.973   9.586  13.486
99726SOL    HW2 1012   4.850   9.547  13.406
99727SOL     OW 1013  12.585  14.438  11.445
99727SOL    HW1 1014  12.506  14.443  11.498
99727SOL    HW2 1015  12.651  14.485  11.496
99728SOL     OW 1016  11.334   8.880   9.254
99728SOL    HW1 1017  11.343   8.837   9.339
99728SOL    HW2 1018  11.241   8.877   9.234
99729SOL     OW 1019   7.263   4.872   2.872
99729SOL    HW1 1020   7.176   4.861   2.911
99729SOL    HW2 1021   7.293   4.783   2.854
99730SOL     OW 1022   0.996  13.860  13.396
99730SOL    HW1 1023   0.950  13.914  13.331
99730SOL    HW2 1024   0.947  13.778  13.398
99731SOL     OW 1025   4.880  14.285   8.643
99731SOL    HW1 1026   4.921  14.310   8.561
99731SOL    HW2 1027   4.923  14.203   8.668
99732SOL     OW 1028   7.617  10.520   4.872
99732SOL    HW1 1029   7.594  10.603   4.916
99732SOL    HW2 1030   7.576  10.453   4.927
99733SOL     OW 1031  14.503   3.388   6.721
99733SOL    HW1 1032  14.534   3.478   6.729
99733SOL    HW2 1033  14.413   3.397   6.689
99734SOL     OW 1034   3.206   7.349  11.220
99734SOL    HW1 1035   3.266   7.422  11.237
99734SOL    HW2 1036   3.249   7.297  11.152
99735SOL     OW 1037   0.196   4.991   7.624
99735SOL    HW1 1038   0.160   4.903   7.632
99735SOL    HW2 1039   0.272   4.979   7.567
99736SOL     OW 1040   0.257   3.048   9.872
99736SOL    HW1 1041   0.338   3.018   9.831
99736SOL    HW2 1042   0.285   3.104   9.944
99737SOL     OW 1043   9.544   0.952   3.153
99737SOL    HW1 1044   9.594   1.003   3.217
99737SOL    HW2 1045   9.595   0.958   3.072
99738SOL     OW 1046  13.871   8.228  12.626
99738SOL    HW1 1047  13.887   8.212  12.719
99738SOL    HW2 1048  13.816   8.306  12.624
99739SOL     OW 1049   2.030   5.068   8.695
99739SOL    HW1 1050   2.002   5.080   8.604
99739SOL    HW2 1051   2.106   5.126   8.704
99740SOL     OW 1052   9.787   2.138   6.132
99740SOL    HW1 1053   9.705   2.123   6.087
99740SOL    HW2 1054   9.854   2.128   6.064
99741SOL     OW 1055  11.406   4.465   4.382
99741SOL    HW1 1056  11.486   4.431   4.342
99741SOL    HW2 1057  11.415   4.443   4.475
99742SOL     OW 1058   0.512  11.951  12.076
99742SOL    HW1 1059   0.530  11.938  11.983
99742SOL    HW2 1060   0.417  11.943  12.084
99743SOL     OW 1061   8.761  11.882  10.230
99743SOL    HW1 1062   8.781  11.789  10.241
99743SOL    HW2 1063   8.816  11.910  10.156
99744SOL     OW 1064  12.108  14.216   2.859
99744SOL    HW1 1065  12.122  14.145   2.922
99744SOL    HW2 1066  12.194  14.258   2.851
99745SOL     OW 1067   7.624   9.632  14.193
99745SOL    HW1 1068   7.709   9.639  14.236
99745SOL    HW2 1069   7.646   9.625  14.100
99746SOL     OW 1070  12.211   1.514   5.264
99746SOL    HW1 1071  12.291   1.473   5.297
99746SOL    HW2 1072  12.143   1.483   5.324
99747SOL     OW 1073  12.398   5.480   1.520
99747SOL    HW1 1074  12.439   5.561   1.490
99747SOL    HW2 1075  12.364   5.501   1.607
99748SOL     OW 1076   3.248   7.329   8.991
99748SOL    HW1 1077   3.191   7.258   9.022
99748SOL    HW2 1078   3.269   7.305   8.901
99749SOL     OW 1079  12.721  13.454  13.001
99749SOL    HW1 1080  12.811  13.427  13.022
99749SOL    HW2 1081  12.696  13.513  13.072
99750SOL     OW 1082   2.194   5.126   1.002
99750SOL    HW1 1083   2.249   5.059   0.961
99750SOL    HW2 1084   2.230   5.138   1.089
99751SOL     OW 1085   1.120  10.066   0.159
99751SOL    HW1 1086   1.111  10.093   0.251
99751SOL    HW2 1087   1.032  10.073   0.123
99752SOL     OW 1088  10.781  11.245  13.960
99752SOL    HW1 1089  10.726  11.167  13.966
99752SOL    HW2 1090  10.838  11.239  14.037
99753SOL     OW 1091  10.188  11.804   6.323
99753SOL    HW1 1092  10.261  11.841   6.372
99753SOL    HW2 1093  10.110  11.832   6.371
99754SOL     OW 1094   6.653  13.423   9.492
99754SOL    HW1 1095   6.672  13.398   9.402
99754SOL    HW2 1096   6.596  13.500   9.484
99755SOL     OW 1097   8.992   5.380   0.054
99755SOL    HW1 1098   9.023   5.467   0.081
99755SOL    HW2 1099   8.991   5.384  14.831
99756SOL     OW 1100   4.787   8.735   5.582
99756SOL    HW1 1101   4.705   8.784   5.581
99756SOL    HW2 1102   4.768   8.657   5.528
99757SOL     OW 1103   2.352   6.313   5.463
99757SOL    HW1 1104   2.439   6.351   5.446
99757SOL    HW2 1105   2.364   6.220   5.445
99758SOL     OW 1106   6.589  12.552   4.276
99758SOL    HW1 1107   6.546  12.469   4.257
99758SOL    HW2 1108   6.528  12.618   4.244
99759SOL     OW 1109   4.478  14.064   8.207
99759SOL    HW1 1110   4.501  14.002   8.276
99759SOL    HW2 1111   4.383  14.072   8.213
99760SOL     OW 1112   6.911   4.729   6.017
99760SOL    HW1 1113   6.887   4.694   6.103
99760SOL    HW2 1114   6.943   4.818   6.035
99761SOL     OW 1115   0.720   9.097  10.644
99761SOL    HW1 1116   0.790   9.151  10.608
99761SOL    HW2 1117   0.648   9.107  10.582
99762SOL     OW 1118  14.381   3.062   6.333
99762SOL    HW1 1119  14.304   3.075   6.389
99762SOL    HW2 1120  14.357   2.988   6.277
99763SOL     OW 1121  13.573   4.237   6.122
99763SOL    HW1 1122  13.575   4.321   6.166
99763SOL    HW2 1123  13.483   4.228   6.090
99764SOL     OW 1124   3.621  12.080   5.693
99764SOL    HW1 1125   3.683  12.127   5.749
99764SOL    HW2 1126   3.569  12.027   5.753
99765SOL     OW 1127  11.916  14.321   1.956
99765SOL    HW1 1128  11.916  14.415   1.971
99765SOL    HW2 1129  11.920  14.312   1.861
99766SOL     OW 1130  10.571   2.688   7.110
99766SOL    HW1 1131  10.578   2.783   7.109
99766SOL    HW2 1132  10.557   2.664   7.018
99767SOL     OW 1133  10.390   3.560  10.928
99767SOL    HW1 1134  10.381   3.614  10.850
99767SOL    HW2 1135  10.447   3.488  10.902
99768SOL     OW 1136  13.893   8.979  10.507
99768SOL    HW1 1137  13.889   8.965  10.412
99768SOL    HW2 1138  13.977   8.941  10.533
99769SOL     OW 1139  14.550   1.099  14.433
99769SOL    HW1 1140  14.493   1.106  14.356
99769SOL    HW2 1141  14.555   1.189  14.467
99770SOL     OW 1142   5.827   7.021  14.669
99770SOL    HW1 1143   5.808   6.929  14.691
99770SOL    HW2 1144   5.867   7.057  14.748
99771SOL     OW 1145   3.140   3.622   5.950
99771SOL    HW1 1146   3.079   3.609   6.023
99771SOL    HW2 1147   3.114   3.705   5.912
99772SOL     OW 1148  10.114  10.698   4.234
99772SOL    HW1 1149  10.076  10.726   4.150
99772SOL    HW2 1150  10.045  10.717   4.298
99773SOL     OW 1151  12.912   2.789  11.881
99773SOL    HW1 1152  12.828   2.813  11.842
99773SOL    HW2 1153  12.939   2.710  11.835
99774SOL     OW 1154   8.387   9.996   4.066
99774SOL    HW1 1155   8.382   9.959   3.977
99774SOL    HW2 1156   8.310  10.051   4.074
99775SOL     OW 1157  12.195  14.170   0.536
99775SOL    HW1 1158  12.235  14.103   0.591
99775SOL    HW2 1159  12.261  14.240   0.533
99776SOL     OW 1160   8.110  14.061   0.599
99776SOL    HW1 1161   8.159  14.095   0.673
99776SOL    HW2 1162   8.176  14.032   0.537
99777SOL     OW 1163   2.955   2.125  10.730
99777SOL    HW1 1164   2.975   2.112  10.638
99777SOL    HW2 1165   2.882   2.066  10.747
99778SOL     OW 1166  14.649   4.566   0.066
99778SOL    HW1 1167  14.613   4.545   0.152
99778SOL    HW2 1168  14.597   4.640   0.035
99779SOL     OW 1169   1.070   8.000  12.392
99779SOL    HW1 1170   0.997   7.950  12.426
99779SOL    HW2 1171   1.077   7.974  12.300
99780SOL     OW 1172   9.132   7.486   5.855
99780SOL    HW1 1173   9.048   7.454   5.823
99780SOL    HW2 1174   9.163   7.545   5.786
99781SOL     OW 1175   4.665  12.803   2.937
99781SOL    HW1 1176   4.639  12.715   2.909
99781SOL    HW2 1177   4.758  12.808   2.915
99782SOL     OW 1178   8.743   7.277  12.749
99782SOL    HW1 1179   8.822   7.247  12.795
99782SOL    HW2 1180   8.671   7.240  12.799
99783SOL     OW 1181  13.471   7.406   8.936
99783SOL    HW1 1182  13.432   7.320   8.945
99783SOL    HW2 1183  13.518   7.420   9.018
99784SOL     OW 1184   9.514   4.072  12.021
99784SOL    HW1 1185   9.487   3.980  12.010
99784SOL    HW2 1186   9.573   4.071  12.096
99785SOL     OW 1187   1.459   2.642  10.854
99785SOL    HW1 1188   1.467   2.729  10.893
99785SOL    HW2 1189   1.516   2.586  10.907
99786SOL     OW 1190  12.304   3.663   1.079
99786SOL    HW1 1191  12.293   3.569   1.096
99786SOL    HW2 1192  12.215   3.696   1.071
99787SOL     OW 1193  14.771  12.119  10.373
99787SOL    HW1 1194  14.732  12.191  10.422
99787SOL    HW2 1195  14.770  12.045  10.434
99788SOL     OW 1196   7.177   0.263   5.655
99788SOL    HW1 1197   7.221   0.316   5.722
99788SOL    HW2 1198   7.167   0.322   5.581
99789SOL     OW 1199  10.354  12.922   1.354
99789SOL    HW1 1200  10.442  12.884   1.348
99789SOL    HW2 1201  10.323  12.896   1.441
99790SOL     OW 1202   7.395   1.354   4.833
99790SOL    HW1 1203   7.417   1.404   4.912
99790SOL    HW2 1204   7.319   1.398   4.796
99791SOL     OW 1205   8.983  10.078  10.644
99791SOL    HW1 1206   9.008  10.041  10.559
99791SOL    HW2 1207   8.888  10.067  10.647
99792SOL     OW 1208   8.982  13.701  12.479
99792SOL    HW1 1209   9.003  13.667  12.391
99792SOL    HW2 1210   8.897  13.743  12.468
99793SOL     OW 1211  11.352   8.475   2.687
99793SOL    HW1 1212  11.365   8.427   2.605
99793SOL    HW2 1213  11.266   8.515   2.678
99794SOL     OW 1214   4.602  14.137   0.640
99794SOL    HW1 1215   4.636  14.143   0.729
99794SOL    HW2 1216   4.509  14.157   0.648
99795SOL     OW 1217   5.589  11.075  14.214
99795SOL    HW1 1218   5.668  11.082  14.162
99795SOL    HW2 1219   5.518  11.079  14.151
99796SOL     OW 1220  10.733   8.598  12.790
99796SOL    HW1 1221  10.808   8.595  12.731
99796SOL    HW2 1222  10.771   8.594  12.878
99797SOL     OW 1223   1.984  14.815   4.129
99797SOL    HW1 1224   1.990   0.020   4.073
99797SOL    HW2 1225   1.978  14.849   4.218
99798SOL     OW 1226   9.804  13.918   8.928
99798SOL    HW1 1227   9.737  13.856   8.958
99798SOL    HW2 1228   9.812  13.901   8.834
99799SOL     OW 1229   1.285   6.201  11.080
99799SOL    HW1 1230   1.367   6.203  11.129
99799SOL    HW2 1231   1.252   6.290  11.084
99800SOL     OW 1232  12.939   9.431  11.382
99800SOL    HW1 1233  12.847   9.409  11.395
99800SOL    HW2 1234  12.984   9.391  11.456
99801SOL     OW 1235  12.767   4.229   0.379
99801SOL    HW1 1236  12.757   4.310   0.430
99801SOL    HW2 1237  12.797   4.165   0.443
99802SOL     OW 1238   4.171   2.879   3.890
99802SOL    HW1 1239   4.218   2.807   3.933
99802SOL    HW2 1240   4.192   2.869   3.797
99803SOL     OW 1241  10.524   1.443  11.956
99803SOL    HW1 1242  10.576   1.504  11.904
99803SOL    HW2 1243  10.583   1.369  11.971
99804SOL     OW 1244   3.269   9.664   5.688
99804SOL    HW1 1245   3.238   9.754   5.702
99804SOL    HW2 1246   3.358   9.664   5.723
99805SOL     OW 1247   3.657   8.587   2.502
99805SOL    HW1 1248   3.578   8.558   2.457
99805SOL    HW2 1249   3.728   8.542   2.457
99806SOL     OW 1250   6.631   7.686  14.195
99806SOL    HW1 1251   6.712   7.643  14.222
99806SOL    HW2 1252   6.569   7.614  14.179
99807SOL     OW 1253   2.294   1.636   6.195
99807SOL    HW1 1254   2.373   1.672   6.154
99807SOL    HW2 1255   2.323   1.555   6.236
99808SOL     OW 1256  11.530   5.757   7.460
99808SOL    HW1 1257  11.551   5.736   7.551
99808SOL    HW2 1258  11.615   5.776   7.420
99809SOL     OW 1259  11.352   8.149   8.980
99809SOL    HW1 1260  11.324   8.197   8.902
99809SOL    HW2 1261  11.282   8.086   8.996
99810SOL     OW 1262   8.246  13.047  13.632
99810SOL    HW1 1263   8.222  13.101  13.558
99810SOL    HW2 1264   8.181  13.068  13.699
99811SOL     OW 1265   7.542   6.461   0.491
99811SOL    HW1 1266   7.581   6.458   0.403
99811SOL    HW2 1267   7.470   6.398   0.488
99812SOL     OW 1268  12.983  12.805   6.315
99812SOL    HW1 1269  12.949  12.747   6.247
99812SOL    HW2 1270  13.003  12.747   6.389
99813SOL     OW 1271   1.006  13.645  10.978
99813SOL    HW1 1272   1.048  13.568  10.941
99813SOL    HW2 1273   1.076  13.710  10.986
99814SOL     OW 1274   8.385   8.162   0.138
99814SOL    HW1 1275   8.402   8.068   0.140
99814SOL    HW2 1276   8.328   8.175   0.062
99815SOL     OW 1277  13.304   8.566   8.293
99815SOL    HW1 1278  13.346   8.544   8.210
99815SOL    HW2 1279  13.263   8.651   8.277
99816SOL     OW 1280   0.350   3.267   9.609
99816SOL    HW1 1281   0.282   3.200   9.612
99816SOL    HW2 1282   0.416   3.232   9.549
99817SOL     OW 1283   2.648  11.695   7.319
99817SOL    HW1 1284   2.626  11.643   7.396
99817SOL    HW2 1285   2.592  11.659   7.249
99818SOL     OW 1286   6.458  12.110  14.646
99818SOL    HW1 1287   6.443  12.017  14.664
99818SOL    HW2 1288   6.467  12.114  14.551
99819SOL     OW 1289   9.554   8.360   3.244
99819SOL    HW1 1290   9.550   8.361   3.340
99819SOL    HW2 1291   9.604   8.438   3.221
99820SOL     OW 1292   1.404   9.737  13.670
99820SOL    HW1 1293   1.485   9.687  13.666
99820SOL    HW2 1294   1.413   9.790  13.750
99821SOL     OW 1295   1.832   1.381   5.560
99821SOL    HW1 1296   1.846   1.434   5.481
99821SOL    HW2 1297   1.897   1.412   5.622
99822SOL     OW 1298   1.840   7.575   8.282
99822SOL    HW1 1299   1.819   7.549   8.192
99822SOL    HW2 1300   1.912   7.637   8.272
99823SOL     OW 1301   0.482   5.287  11.468
99823SOL    HW1 1302   0.449   5.354  11.408
99823SOL    HW2 1303   0.529   5.337  11.535
99824SOL     OW 1304   8.726   6.113  12.692
99824SOL    HW1 1305   8.784   6.077  12.626
99824SOL    HW2 1306   8.751   6.070  12.774
99825SOL     OW 1307  13.675   8.269   9.807
99825SOL    HW1 1308  13.589   8.242   9.774
99825SOL    HW2 1309  13.737   8.240   9.740
99826SOL     OW 1310  12.366   1.744   9.603
99826SOL    HW1 1311  12.284   1.755   9.652
99826SOL    HW2 1312  12.382   1.649   9.605
99827SOL     OW 1313  12.787  10.687   0.081
99827SOL    HW1 1314  12.731  10.616   0.111
99827SOL    HW2 1315  12.728  10.762   0.073
99828SOL     OW 1316   0.682  12.840   4.538
99828SOL    HW1 1317   0.656  12.929   4.515
99828SOL    HW2 1318   0.668  12.833   4.632
99829SOL     OW 1319  12.870  13.880  14.454
99829SOL    HW1 1320  12.873  13.956  14.395
99829SOL    HW2 1321  12.791  13.895  14.507
99830SOL     OW 1322   6.179  11.517   5.854
99830SOL    HW1 1323   6.130  11.437   5.870
99830SOL    HW2 1324   6.271  11.489   5.852
99831SOL     OW 1325   3.237  11.291   2.150
99831SOL    HW1 1326   3.314  11.237   2.168
99831SOL    HW2 1327   3.271  11.381   2.148
99832SOL     OW 1328   7.199  11.011   5.855
99832SOL    HW1 1329   7.262  11.030   5.786
99832SOL    HW2 1330   7.233  10.933   5.899
99833SOL     OW 1331   1.550   5.397  14.730
99833SOL    HW1 1332   1.611   5.324  14.727
99833SOL    HW2 1333   1.583   5.453  14.800
99834SOL     OW 1334   6.767   1.565   0.815
99834SOL    HW1 1335   6.676   1.541   0.801
99834SOL    HW2 1336   6.817   1.500   0.766
99835SOL     OW 1337   9.040   5.035   8.327
99835SOL    HW1 1338   9.127   5.071   8.314
99835SOL    HW2 1339   8.991   5.062   8.250
99836SOL     OW 1340   6.533   6.536   9.032
99836SOL    HW1 1341   6.584   6.607   8.994
99836SOL    HW2 1342   6.442   6.560   9.015
99837SOL     OW 1343   8.368   8.036   6.273
99837SOL    HW1 1344   8.395   8.122   6.307
99837SOL    HW2 1345   8.272   8.040   6.273
99838SOL     OW 1346   8.754   1.826   7.832
99838SOL    HW1 1347   8.742   1.920   7.828
99838SOL    HW2 1348   8.742   1.804   7.925
99839SOL     OW 1349  12.397   2.478   1.289
99839SOL    HW1 1350  12.359   2.528   1.361
99839SOL    HW2 1351  12.484   2.455   1.319
99840SOL     OW 1352  11.366  13.028   9.729
99840SOL    HW1 1353  11.359  13.103   9.789
99840SOL    HW2 1354  11.455  13.035   9.694
99841SOL     OW 1355   8.429   7.143   1.740
99841SOL    HW1 1356   8.469   7.206   1.800
99841SOL    HW2 1357   8.501   7.116   1.683
99842SOL     OW 1358   1.093   9.997  12.513
99842SOL    HW1 1359   1.062   9.931  12.574
99842SOL    HW2 1360   1.035   9.989  12.437
99843SOL     OW 1361   9.840   2.203  14.617
99843SOL    HW1 1362   9.781   2.227  14.689
99843SOL    HW2 1363   9.803   2.246  14.540
99844SOL     OW 1364   7.356   7.614   2.151
99844SOL    HW1 1365   7.326   7.672   2.221
99844SOL    HW2 1366   7.451   7.620   2.153
99845SOL     OW 1367   7.673   8.368  11.031
99845SOL    HW1 1368   7.632   8.450  11.055
99845SOL    HW2 1369   7.617   8.300  11.069
99846SOL     OW 1370   0.716   7.615  10.438
99846SOL    HW1 1371   0.636   7.649  10.397
99846SOL    HW2 1372   0.709   7.520  10.428
99847SOL     OW 1373   4.871   0.991  12.040
99847SOL    HW1 1374   4.843   1.081  12.055
99847SOL    HW2 1375   4.857   0.977  11.946
99848SOL     OW 1376   1.617   4.177   4.445
99848SOL    HW1 1377   1.684   4.241   4.418
99848SOL    HW2 1378   1.620   4.178   4.540
99849SOL     OW 1379  12.484   2.757   7.772
99849SOL    HW1 1380  12.508   2.673   7.812
99849SOL    HW2 1381  12.398   2.777   7.809
99850SOL     OW 1382   4.932   4.093   5.439
99850SOL    HW1 1383   4.871   4.020   5.437
99850SOL    HW2 1384   4.876   4.169   5.458
99851SOL     OW 1385   0.170   7.453   2.357
99851SOL    HW1 1386   0.214   7.468   2.273
99851SOL    HW2 1387   0.095   7.398   2.335
99852SOL     OW 1388  14.536   9.611  13.233
99852SOL    HW1 1389  14.550   9.662  13.152
99852SOL    HW2 1390  14.624   9.600  13.269
99853SOL     OW 1391   9.818  12.073   7.691
99853SOL    HW1 1392   9.908  12.067   7.723
99853SOL    HW2 1393   9.821  12.036   7.603
99854SOL     OW 1394   5.803   4.665  10.580
99854SOL    HW1 1395   5.778   4.595  10.520
99854SOL    HW2 1396   5.842   4.620  10.655
99855SOL     OW 1397  11.578   1.678   0.391
99855SOL    HW1 1398  11.634   1.729   0.332
99855SOL    HW2 1399  11.622   1.684   0.476
99856SOL     OW 1400   3.989   9.162  13.683
99856SOL    HW1 1401   3.985   9.250  13.647
99856SOL    HW2 1402   3.942   9.108  13.619
99857SOL     OW 1403   0.526  12.186   8.764
99857SOL    HW1 1404   0.522  12.261   8.705
99857SOL    HW2 1405   0.587  12.213   8.833
99858SOL     OW 1406   8.329   6.844   1.282
99858SOL    HW1 1407   8.383   6.770   1.255
99858SOL    HW2 1408   8.309   6.827   1.375
99859SOL     OW 1409   2.626   8.815   3.985
99859SOL    HW1 1410   2.604   8.752   4.054
99859SOL    HW2 1411   2.720   8.801   3.970
99860SOL     OW 1412  12.966  10.915   3.714
99860SOL    HW1 1413  12.881  10.958   3.711
99860SOL    HW2 1414  13.028  10.985   3.735
99861SOL     OW 1415  10.319   8.596   2.467
99861SOL    HW1 1416  10.380   8.652   2.516
99861SOL    HW2 1417  10.356   8.508   2.476
99862SOL     OW 1418   7.378  13.987  11.919
99862SOL    HW1 1419   7.290  14.003  11.885
99862SOL    HW2 1420   7.368  13.993  12.014
99863SOL     OW 1421  11.720   5.114   0.351
99863SOL    HW1 1422  11.781   5.188   0.356
99863SOL    HW2 1423  11.634   5.155   0.347
99864SOL     OW 1424   9.977   7.708  10.590
99864SOL    HW1 1425   9.953   7.800  10.581
99864SOL    HW2 1426  10.015   7.702  10.678
99865SOL     OW 1427  12.840   0.476   7.826
99865SOL    HW1 1428  12.867   0.500   7.738
99865SOL    HW2 1429  12.776   0.407   7.813
99866SOL     OW 1430   9.504   3.428   4.773
99866SOL    HW1 1431   9.566   3.498   4.790
99866SOL    HW2 1432   9.498   3.381   4.856
99867SOL     OW 1433  12.566   9.804  10.834
99867SOL    HW1 1434  12.562   9.722  10.884
99867SOL    HW2 1435  12.590   9.870  10.898
99868SOL     OW 1436   6.554   1.628  12.538
99868SOL    HW1 1437   6.635   1.678  12.551
99868SOL    HW2 1438   6.573   1.571  12.464
99869SOL     OW 1439   7.130   7.898   2.140
99869SOL    HW1 1440   7.084   7.877   2.221
99869SOL    HW2 1441   7.170   7.984   2.157
99870SOL     OW 1442   5.692  13.618   5.136
99870SOL    HW1 1443   5.755  13.667   5.190
99870SOL    HW2 1444   5.689  13.666   5.054
99871SOL     OW 1445   7.873   5.642  10.476
99871SOL    HW1 1446   7.838   5.621  10.562
99871SOL    HW2 1447   7.960   5.602  10.475
99872SOL     OW 1448   6.819  10.498  10.136
99872SOL    HW1 1449   6.822  10.505  10.041
99872SOL    HW2 1450   6.755  10.429  10.154
99873SOL     OW 1451  14.641   7.500   0.269
99873SOL    HW1 1452  14.573   7.449   0.226
99873SOL    HW2 1453  14.686   7.545   0.197
99874SOL     OW 1454  12.497   3.543   8.581
99874SOL    HW1 1455  12.568   3.479   8.578
99874SOL    HW2 1456  12.486   3.570   8.489
99875SOL     OW 1457   2.501  12.766  10.522
99875SOL    HW1 1458   2.475  12.701  10.456
99875SOL    HW2 1459   2.473  12.728  10.606
99876SOL     OW 1460   5.329   1.470  11.270
99876SOL    HW1 1461   5.361   1.479  11.360
99876SOL    HW2 1462   5.316   1.560  11.239
99877SOL     OW 1463   4.742   2.282   1.555
99877SOL    HW1 1464   4.825   2.241   1.579
99877SOL    HW2 1465   4.685   2.267   1.630
99878SOL     OW 1466  14.352  13.640   1.936
99878SOL    HW1 1467  14.345  13.585   1.858
99878SOL    HW2 1468  14.262  13.647   1.968
99879SOL     OW 1469   9.392   4.015  12.522
99879SOL    HW1 1470   9.297   4.030  12.522
99879SOL    HW2 1471   9.401   3.921  12.540
99880SOL     OW 1472   1.394  13.571   2.221
99880SOL    HW1 1473   1.344  13.515   2.281
99880SOL    HW2 1474   1.344  13.570   2.140
99881SOL     OW 1475  12.111   0.420   8.650
99881SOL    HW1 1476  12.027   0.466   8.646
99881SOL    HW2 1477  12.089   0.329   8.629
99882SOL     OW 1478   9.360   7.026  11.280
99882SOL    HW1 1479   9.322   6.985  11.358
99882SOL    HW2 1480   9.310   6.988  11.207
99883SOL     OW 1481   8.324   3.050  11.933
99883SOL    HW1 1482   8.238   3.090  11.927
99883SOL    HW2 1483   8.377   3.113  11.982
99884SOL     OW 1484   1.387   3.686   5.498
99884SOL    HW1 1485   1.407   3.776   5.523
99884SOL    HW2 1486   1.469   3.638   5.512
99885SOL     OW 1487  12.499  10.588   4.057
99885SOL    HW1 1488  12.439  10.657   4.027
99885SOL    HW2 1489  12.498  10.596   4.152
99886SOL     OW 1490   2.021   3.338  11.919
99886SOL    HW1 1491   2.112   3.368  11.908
99886SOL    HW2 1492   2.005   3.343  12.013
99887SOL     OW 1493   5.851  12.510   8.394
99887SOL    HW1 1494   5.889  12.447   8.457
99887SOL    HW2 1495   5.776  12.465   8.358
99888SOL     OW 1496  12.819   1.123   4.284
99888SOL    HW1 1497  12.907   1.146   4.253
99888SOL    HW2 1498  12.834   1.056   4.351
99889SOL     OW 1499   2.548  10.691  14.606
99889SOL    HW1 1500   2.558  10.678  14.512
99889SOL    HW2 1501   2.454  10.704  14.619
99890SOL     OW 1502  10.410   3.493   3.815
99890SOL    HW1 1503  10.394   3.481   3.908
99890SOL    HW2 1504  10.335   3.546   3.785
99891SOL     OW 1505   0.828  13.187   9.936
99891SOL    HW1 1506   0.841  13.236  10.017
99891SOL    HW2 1507   0.909  13.200   9.887
99892SOL     OW 1508   8.158   7.570   2.684
99892SOL    HW1 1509   8.068   7.571   2.718
99892SOL    HW2 1510   8.162   7.643   2.623
99893SOL     OW 1511   3.072  12.827  13.235
99893SOL    HW1 1512   3.108  12.739  13.239
99893SOL    HW2 1513   3.115  12.874  13.306
99894SOL     OW 1514   4.729  10.848  12.150
99894SOL    HW1 1515   4.776  10.888  12.077
99894SOL    HW2 1516   4.685  10.772  12.112
99895SOL     OW 1517   5.655   7.326   0.691
99895SOL    HW1 1518   5.738   7.313   0.737
99895SOL    HW2 1519   5.590   7.338   0.760
99896SOL     OW 1520   4.788   1.602   6.532
99896SOL    HW1 1521   4.715   1.635   6.584
99896SOL    HW2 1522   4.768   1.627   6.442
99897SOL     OW 1523   9.612   4.031  13.192
99897SOL    HW1 1524   9.649   3.950  13.227
99897SOL    HW2 1525   9.539   4.002  13.137
99898SOL     OW 1526   3.277   8.938   1.281
99898SOL    HW1 1527   3.199   8.888   1.257
99898SOL    HW2 1528   3.272   8.947   1.376
99899SOL     OW 1529   2.344  11.087   3.418
99899SOL    HW1 1530   2.353  11.179   3.397
99899SOL    HW2 1531   2.264  11.059   3.373
99900SOL     OW 1532  14.256   2.578   0.605
99900SOL    HW1 1533  14.170   2.617   0.590
99900SOL    HW2 1534  14.278   2.601   0.695
99901SOL     OW 1535   9.364  11.880   5.575
99901SOL    HW1 1536   9.289  11.896   5.517
99901SOL    HW2 1537   9.432  11.939   5.543
99902SOL     OW 1538   3.975   3.721   8.097
99902SOL    HW1 1539   4.009   3.810   8.096
99902SOL    HW2 1540   3.889   3.728   8.137
99903SOL     OW 1541  11.567   7.900   3.655
99903SOL    HW1 1542  11.504   7.832   3.631
99903SOL    HW2 1543  11.585   7.947   3.574
99904SOL     OW 1544  11.040   2.550   8.902
99904SOL    HW1 1545  11.116   2.503   8.936
99904SOL    HW2 1546  11.064   2.642   8.908
99905SOL     OW 1547   8.067   5.726  12.317
99905SOL    HW1 1548   8.102   5.637  12.314
99905SOL    HW2 1549   8.040   5.738  12.408
99906SOL     OW 1550  12.572  13.558   3.586
99906SOL    HW1 1551  12.589  13.574   3.493
99906SOL    HW2 1552  12.650  13.591   3.631
99907SOL     OW 1553  10.844   0.355  12.833
99907SOL    HW1 1554  10.849   0.412  12.757
99907SOL    HW2 1555  10.756   0.368  12.868
99908SOL     OW 1556   9.569  11.771   2.846
99908SOL    HW1 1557   9.577  11.729   2.932
99908SOL    HW2 1558   9.644  11.830   2.841
99909SOL     OW 1559  10.502   7.110   4.937
99909SOL    HW1 1560  10.541   7.180   4.988
99909SOL    HW2 1561  10.408   7.124   4.943
99910SOL     OW 1562   4.010   7.113   1.560
99910SOL    HW1 1563   4.093   7.129   1.605
99910SOL    HW2 1564   3.954   7.186   1.587
99911SOL     OW 1565  12.020  11.271   9.524
99911SOL    HW1 1566  12.051  11.189   9.562
99911SOL    HW2 1567  11.927  11.258   9.509
99912SOL     OW 1568   2.236   3.711   4.063
99912SOL    HW1 1569   2.245   3.802   4.093
99912SOL    HW2 1570   2.196   3.717   3.977
99913SOL     OW 1571   1.392   7.209  11.038
99913SOL    HW1 1572   1.339   7.217  10.959
99913SOL    HW2 1573   1.375   7.120  11.070
99914SOL     OW 1574   7.473  10.060   3.939
99914SOL    HW1 1575   7.462   9.969   3.911
99914SOL    HW2 1576   7.439  10.112   3.866
99915SOL     OW 1577   9.325   2.292   0.481
99915SOL    HW1 1578   9.301   2.205   0.450
99915SOL    HW2 1579   9.397   2.277   0.542
99916SOL     OW 1580   3.844   0.479   6.885
99916SOL    HW1 1581   3.809   0.541   6.821
99916SOL    HW2 1582   3.777   0.475   6.953
99917SOL     OW 1583  14.625   2.744   9.618
99917SOL    HW1 1584  14.627   2.649   9.623
99917SOL    HW2 1585  14.533   2.768   9.625
99918SOL     OW 1586   5.102   7.017   8.590
99918SOL    HW1 1587   5.012   6.988   8.603
99918SOL    HW2 1588   5.101   7.060   8.504
99919SOL     OW 1589   8.758   0.470   8.951
99919SOL    HW1 1590   8.734   0.429   9.034
99919SOL    HW2 1591   8.719   0.414   8.884
99920SOL     OW 1592   0.614   9.372   8.919
99920SOL    HW1 1593   0.581   9.329   8.840
99920SOL    HW2 1594   0.584   9.317   8.991
99921SOL     OW 1595   6.006   9.843   6.257
99921SOL    HW1 1596   5.958   9.760   6.262
99921SOL    HW2 1597   5.941   9.905   6.223
99922SOL     OW 1598  14.198   5.607  13.999
99922SOL    HW1 1599  14.253   5.541  13.956
99922SOL    HW2 1600  14.256   5.648  14.063
99923SOL     OW 1601   4.994   0.630   3.592
99923SOL    HW1 1602   4.941   0.675   3.526
99923SOL    HW2 1603   4.942   0.553   3.616
99924SOL     OW 1604   7.237   5.201   7.929
99924SOL    HW1 1605   7.262   5.290   7.902
99924SOL    HW2 1606   7.272   5.145   7.860
99925SOL     OW 1607  13.772   6.347  11.550
99925SOL    HW1 1608  13.820   6.280  11.502
99925SOL    HW2 1609  13.805   6.430  11.516
99926SOL     OW 1610   8.877  10.623   7.878
99926SOL    HW1 1611   8.904  10.639   7.969
99926SOL    HW2 1612   8.867  10.710   7.840
99927SOL     OW 1613   6.008   9.873   3.298
99927SOL    HW1 1614   6.000   9.801   3.236
99927SOL    HW2 1615   6.101   9.879   3.317
99928SOL     OW 1616  11.477   2.591  14.067
99928SOL    HW1 1617  11.385   2.564  14.057
99928SOL    HW2 1618  11.518   2.567  13.984
99929SOL     OW 1619  12.620   4.461   8.673
99929SOL    HW1 1620  12.647   4.455   8.581
99929SOL    HW2 1621  12.660   4.543   8.703
99930SOL     OW 1622   5.658   7.279   5.357
99930SOL    HW1 1623   5.696   7.191   5.364
99930SOL    HW2 1624   5.716   7.334   5.409
99931SOL     OW 1625   7.881  12.057   3.758
99931SOL    HW1 1626   7.788  12.078   3.770
99931SOL    HW2 1627   7.894  12.058   3.663
99932SOL     OW 1628   4.204   3.361  14.333
99932SOL    HW1 1629   4.135   3.294  14.340
99932SOL    HW2 1630   4.280   3.313  14.301
99933SOL     OW 1631   5.621   9.042   9.857
99933SOL    HW1 1632   5.551   9.019   9.918
99933SOL    HW2 1633   5.601   8.993   9.777
99934SOL     OW 1634   5.571  13.396  14.761
99934SOL    HW1 1635   5.477  13.412  14.751
99934SOL    HW2 1636   5.580  13.301  14.760
99935SOL     OW 1637  12.809  10.465   4.289
99935SOL    HW1 1638  12.763  10.536   4.335
99935SOL    HW2 1639  12.799  10.486   4.197
99936SOL     OW 1640  12.183   1.420  12.104
99936SOL    HW1 1641  12.133   1.497  12.077
99936SOL    HW2 1642  12.271   1.452  12.121
99937SOL     OW 1643   6.624   8.205   4.305
99937SOL    HW1 1644   6.623   8.300   4.316
99937SOL    HW2 1645   6.643   8.191   4.213
99938SOL     OW 1646   7.409   2.420   0.049
99938SOL    HW1 1647   7.417   2.431   0.144
99938SOL    HW2 1648   7.373   2.503   0.019
99939SOL     OW 1649   2.475   5.726   9.424
99939SOL    HW1 1650   2.431   5.775   9.355
99939SOL    HW2 1651   2.432   5.641   9.425
99940SOL     OW 1652   8.120  14.483  11.510
99940SOL    HW1 1653   8.049  14.466  11.573
99940SOL    HW2 1654   8.171  14.553  11.551
99941SOL     OW 1655   8.734  12.194   5.018
99941SOL    HW1 1656   8.777  12.154   4.942
99941SOL    HW2 1657   8.801  12.250   5.057
99942SOL     OW 1658   8.336   7.210   2.783
99942SOL    HW1 1659   8.256   7.250   2.819
99942SOL    HW2 1660   8.352   7.257   2.702
99943SOL     OW 1661   6.003   1.880   6.535
99943SOL    HW1 1662   6.016   1.902   6.628
99943SOL    HW2 1663   5.964   1.792   6.536
99944SOL     OW 1664   3.472   0.564   0.351
99944SOL    HW1 1665   3.427   0.555   0.435
99944SOL    HW2 1666   3.497   0.475   0.327
99945SOL     OW 1667   8.686   8.751  10.430
99945SOL    HW1 1668   8.633   8.747  10.509
99945SOL    HW2 1669   8.775   8.733  10.459
99946SOL     OW 1670  14.558  12.500   0.918
99946SOL    HW1 1671  14.651  12.516   0.930
99946SOL    HW2 1672  14.552  12.455   0.833
99947SOL     OW 1673  12.614   7.078  10.857
99947SOL    HW1 1674  12.632   7.010  10.793
99947SOL    HW2 1675  12.693   7.133  10.857
99948SOL     OW 1676   7.724   4.804   6.371
99948SOL    HW1 1677   7.719   4.886   6.421
99948SOL    HW2 1678   7.773   4.828   6.292
99949SOL     OW 1679  13.310   8.002   5.555
99949SOL    HW1 1680  13.245   7.966   5.616
99949SOL    HW2 1681  13.393   7.996   5.602
99950SOL     OW 1682   0.671   7.093   8.438
99950SOL    HW1 1683   0.582   7.106   8.471
99950SOL    HW2 1684   0.672   7.136   8.353
99951SOL     OW 1685   5.396   9.782   1.164
99951SOL    HW1 1686   5.406   9.745   1.077
99951SOL    HW2 1687   5.363   9.871   1.149
99952SOL     OW 1688  14.638   4.209   8.677
99952SOL    HW1 1689  14.579   4.140   8.651
99952SOL    HW2 1690  14.611   4.232   8.766
99953SOL     OW 1691  14.665   7.944   5.586
99953SOL    HW1 1692  14.616   8.024   5.606
99953SOL    HW2 1693  14.618   7.905   5.512
99954SOL     OW 1694  14.041   9.081  11.476
99954SOL    HW1 1695  13.959   9.129  11.464
99954SOL    HW2 1696  14.107   9.149  11.485
99955SOL     OW 1697   5.847  10.750   3.636
99955SOL    HW1 1698   5.832  10.679   3.575
99955SOL    HW2 1699   5.850  10.709   3.722
99956SOL     OW 1700   9.709  10.260  12.285
99956SOL    HW1 1701   9.710  10.337  12.341
99956SOL    HW2 1702   9.801  10.236  12.274
99957SOL     OW 1703  11.570   5.036   5.495
99957SOL    HW1 1704  11.635   4.966   5.492
99957SOL    HW2 1705  11.616   5.114   5.466
99958SOL     OW 1706   6.544  10.471  14.062
99958SOL    HW1 1707   6.620  10.417  14.040
99958SOL    HW2 1708   6.477  10.408  14.088
99959SOL     OW 1709   0.740   2.558   7.779
99959SOL    HW1 1710   0.691   2.514   7.709
99959SOL    HW2 1711   0.813   2.499   7.798
99960SOL     OW 1712   4.670  10.938  11.739
99960SOL    HW1 1713   4.679  11.029  11.711
99960SOL    HW2 1714   4.651  10.890  11.659
99961SOL     OW 1715   0.424   2.233   5.590
99961SOL    HW1 1716   0.358   2.245   5.658
99961SOL    HW2 1717   0.375   2.199   5.515
99962SOL     OW 1718  14.063  13.424   6.699
99962SOL    HW1 1719  14.002  13.470   6.641
99962SOL    HW2 1720  14.041  13.455   6.786
99963SOL     OW 1721   6.118   6.519   3.531
99963SOL    HW1 1722   6.126   6.544   3.623
99963SOL    HW2 1723   6.024   6.503   3.519
99964SOL     OW 1724   6.845   6.034  11.659
99964SOL    HW1 1725   6.925   5.988  11.632
99964SOL    HW2 1726   6.812   5.983  11.734
99965SOL     OW 1727   6.423   5.238   6.543
99965SOL    HW1 1728   6.408   5.325   6.579
99965SOL    HW2 1729   6.420   5.251   6.448
99966SOL     OW 1730   6.346  10.555   5.809
99966SOL    HW1 1731   6.361  10.562   5.903
99966SOL    HW2 1732   6.430  10.579   5.770
99967SOL     OW 1733  10.435   0.009   6.013
99967SOL    HW1 1734  10.400   0.097   6.003
99967SOL    HW2 1735  10.466  14.857   5.926
99968SOL     OW 1736  10.577   8.757   0.078
99968SOL    HW1 1737  10.602   8.823   0.142
99968SOL    HW2 1738  10.562   8.807  14.870
99969SOL     OW 1739   5.942   1.253  13.564
99969SOL    HW1 1740   5.881   1.185  13.536
99969SOL    HW2 1741   5.896   1.335  13.545
99970SOL     OW 1742  14.322   0.135   5.751
99970SOL    HW1 1743  14.276   0.152   5.833
99970SOL    HW2 1744  14.252   0.124   5.687
99971SOL     OW 1745  14.127  12.922   4.205
99971SOL    HW1 1746  14.109  12.945   4.113
99971SOL    HW2 1747  14.090  12.835   4.215
99972SOL     OW 1748   6.847   4.888   0.044
99972SOL    HW1 1749   6.900   4.937   0.107
99972SOL    HW2 1750   6.911   4.858  14.851
99973SOL     OW 1751   6.708   5.481  13.638
99973SOL    HW1 1752   6.732   5.388  13.637
99973SOL    HW2 1753   6.637   5.488  13.574
99974SOL     OW 1754   2.655  13.016   1.004
99974SOL    HW1 1755   2.659  12.921   0.997
99974SOL    HW2 1756   2.579  13.033   1.058
99975SOL     OW 1757  13.374  11.132  13.530
99975SOL    HW1 1758  13.355  11.061  13.469
99975SOL    HW2 1759  13.433  11.190  13.483
99976SOL     OW 1760   5.977   9.525  13.459
99976SOL    HW1 1761   6.067   9.514  13.491
99976SOL    HW2 1762   5.971   9.617  13.435
99977SOL     OW 1763   9.107   3.627   2.994
99977SOL    HW1 1764   9.013   3.614   2.980
99977SOL    HW2 1765   9.138   3.667   2.912
99978SOL     OW 1766   4.361   7.482   4.890
99978SOL    HW1 1767   4.387   7.563   4.935
99978SOL    HW2 1768   4.443   7.434   4.879
99979SOL     OW 1769  14.374  13.727  10.205
99979SOL    HW1 1770  14.304  13.766  10.257
99979SOL    HW2 1771  14.455  13.757  10.247
99980SOL     OW 1772   2.919   6.823   1.517
99980SOL    HW1 1773   2.845   6.883   1.526
99980SOL    HW2 1774   2.990   6.878   1.483
99981SOL     OW 1775  11.279   0.690   5.428
99981SOL    HW1 1776  11.267   0.696   5.523
99981SOL    HW2 1777  11.190   0.691   5.393
99982SOL     OW 1778   5.641   8.701   5.874
99982SOL    HW1 1779   5.674   8.611   5.875
99982SOL    HW2 1780   5.559   8.695   5.824
99983SOL     OW 1781  10.306   3.611  12.178
99983SOL    HW1 1782  10.217   3.645  12.180
99983SOL    HW2 1783  10.323   3.594  12.085
99984SOL     OW 1784   8.477  13.252   5.204
99984SOL    HW1 1785   8.435  13.178   5.248
99984SOL    HW2 1786   8.467  13.325   5.264
99985SOL     OW 1787  12.547  13.814   7.231
99985SOL    HW1 1788  12.625  13.862   7.204
99985SOL    HW2 1789  12.520  13.765   7.153
99986SOL     OW 1790   0.892  12.957  11.421
99986SOL    HW1 1791   0.808  12.926  11.455
99986SOL    HW2 1792   0.926  13.014  11.489
99987SOL     OW 1793   7.276   9.533   5.401
99987SOL    HW1 1794   7.232   9.612   5.370
99987SOL    HW2 1795   7.307   9.556   5.489
99988SOL     OW 1796   8.390   2.770   6.189
99988SOL    HW1 1797   8.465   2.829   6.197
99988SOL    HW2 1798   8.428   2.683   6.179
99989SOL     OW 1799   9.840   5.054  11.185
99989SOL    HW1 1800   9.928   5.020  11.200
99989SOL    HW2 1801   9.787   5.016  11.256
99990SOL     OW 1802   5.597   0.933   1.694
99990SOL    HW1 1803   5.522   0.907   1.641
99990SOL    HW2 1804   5.587   1.027   1.705
99991SOL     OW 1805  11.215  10.690   3.481
99991SOL    HW1 1806  11.230  10.717   3.572
99991SOL    HW2 1807  11.123  10.711   3.465
99992SOL     OW 1808   6.402   2.740  13.076
99992SOL    HW1 1809   6.310   2.761  13.094
99992SOL    HW2 1810   6.448   2.765  13.156
99993SOL     OW 1811   2.214   8.627  12.033
99993SOL    HW1 1812   2.203   8.653  12.124
99993SOL    HW2 1813   2.156   8.551  12.022
99994SOL     OW 1814   3.837   8.865   9.883
99994SOL    HW1 1815   3.908   8.929   9.891
99994SOL    HW2 1816   3.882   8.780   9.883
99995SOL     OW 1817   1.004   0.368   7.318
99995SOL    HW1 1818   0.945   0.332   7.252
99995SOL    HW2 1819   1.085   0.317   7.308
99996SOL     OW 1820  12.492  12.117  13.635
99996SOL    HW1 1821  12.396  12.112  13.633
99996SOL    HW2 1822  12.519  12.079  13.551
99997SOL     OW 1823   6.969  11.701   0.630
99997SOL    HW1 1824   7.010  11.674   0.548
99997SOL    HW2 1825   6.952  11.795   0.619
99998SOL     OW 1826   6.345  13.285   6.187
99998SOL    HW1 1827   6.363  13.198   6.153
99998SOL    HW2 1828   6.265  13.312   6.142
99999SOL     OW 1829  10.683  11.594   4.418
99999SOL    HW1 1830  10.717  11.676   4.383
99999SOL    HW2 1831  10.757  11.533   4.410
    0SOL     OW 1832   5.588  13.323  12.398
    0SOL    HW1 1833   5.551  13.410  12.405
    0SOL    HW2 1834   5.526  13.266  12.444
    1SOL     OW 1835   2.815   9.331   2.407
    1SOL    HW1 1836   2.835   9.367   2.321
    1SOL    HW2 1837   2.893   9.282   2.432
    2SOL     OW 1838   8.042   4.721  13.555
    2SOL    HW1 1839   8.036   4.807  13.513
    2SOL    HW2 1840   8.131   4.717  13.589
    3SOL     OW 1841   9.106   7.250   0.262
    3SOL    HW1 1842   9.090   7.344   0.271
    3SOL    HW2 1843   9.165   7.229   0.334
    4SOL     OW 1844  13.874  12.830  11.477
    4SOL    HW1 1845  13.920  12.796  11.554
    4SOL    HW2 1846  13.845  12.917  11.503
    5SOL     OW 1847  12.400  12.579  12.977
    5SOL    HW1 1848  12.463  12.623  12.921
    5SOL    HW2 1849  12.346  12.528  12.918
    6SOL     OW 1850   1.856  12.974   7.142
    6SOL    HW1 1851   1.794  13.026   7.091
    6SOL    HW2 1852   1.861  12.890   7.095
    7SOL     OW 1853   1.444  10.623   3.981
    7SOL    HW1 1854   1.423  10.689   4.047
    7SOL    HW2 1855   1.361  10.579   3.963
    8SOL     OW 1856  14.081   3.588   0.080
    8SOL    HW1 1857  14.121   3.501   0.080
    8SOL    HW2 1858  14.007   3.581   0.019
    9SOL     OW 1859   1.774   5.753   6.565
    9SOL    HW1 1860   1.815   5.670   6.541
    9SOL    HW2 1861   1.778   5.806   6.485
   10SOL     OW 1862  13.176   5.476   4.481
   10SOL    HW1 1863  13.270   5.458   4.486
   10SOL    HW2 1864  13.170   5.571   4.476
   11SOL     OW 1865  12.596  11.248   7.697
   11SOL    HW1 1866  12.587  11.343   7.690
   11SOL    HW2 1867  12.508  11.217   7.717
   12SOL     OW 1868   1.666  12.394   5.674
   12SOL    HW1 1869   1.656  12.332   5.747
   12SOL    HW2 1870   1.589  12.379   5.621
   13SOL     OW 1871  10.444  13.609   3.028
   13SOL    HW1 1872  10.402  13.556   3.096
   13SOL    HW2 1873  10.423  13.699   3.051
   14SOL     OW 1874   6.310  10.191   7.254
   14SOL    HW1 1875   6.351  10.197   7.168
   14SOL    HW2 1876   6.348  10.264   7.304
   15SOL     OW 1877  13.780   8.200  10.052
   15SOL    HW1 1878  13.698   8.204  10.100
   15SOL    HW2 1879  13.765   8.251   9.973
   16SOL     OW 1880   2.709   9.075  14.126
   16SOL    HW1 1881   2.668   9.042  14.047
   16SOL    HW2 1882   2.770   9.006  14.153
   17SOL     OW 1883   7.812  10.228   7.103
   17SOL    HW1 1884   7.784  10.269   7.021
   17SOL    HW2 1885   7.907  10.221   7.096
   18SOL     OW 1886   0.419   2.244   6.213
   18SOL    HW1 1887   0.429   2.326   6.262
   18SOL    HW2 1888   0.344   2.260   6.155
   19SOL     OW 1889   9.139   0.252   2.632
   19SOL    HW1 1890   9.209   0.316   2.637
   19SOL    HW2 1891   9.126   0.238   2.538
   20SOL     OW 1892   9.456  13.527   8.698
   20SOL    HW1 1893   9.548  13.548   8.681
   20SOL    HW2 1894   9.415  13.613   8.711
   21SOL     OW 1895   5.440  14.661   5.371
   21SOL    HW1 1896   5.360  14.698   5.334
   21SOL    HW2 1897   5.410  14.611   5.447
   22SOL     OW 1898  11.014   6.289  13.430
   22SOL    HW1 1899  11.072   6.348  13.479
   22SOL    HW2 1900  10.997   6.334  13.348
   23SOL     OW 1901   7.819   4.129  10.470
   23SOL    HW1 1902   7.840   4.082  10.389
   23SOL    HW2 1903   7.900   4.126  10.521
   24SOL     OW 1904   5.739   1.307   9.389
   24SOL    HW1 1905   5.691   1.389   9.374
   24SOL    HW2 1906   5.812   1.332   9.445
   25SOL     OW 1907   3.351   9.617   9.301
   25SOL    HW1 1908   3.438   9.620   9.341
   25SOL    HW2 1909   3.367   9.609   9.207
   26SOL     OW 1910   7.183  13.896   4.955
   26SOL    HW1 1911   7.207  13.986   4.975
   26SOL    HW2 1912   7.088  13.894   4.964
   27SOL     OW 1913  14.707  10.801  14.852
   27SOL    HW1 1914  14.741  10.792   0.068
   27SOL    HW2 1915  14.724  10.716  14.811
   28SOL     OW 1916   4.128   8.068  13.183
   28SOL    HW1 1917   4.218   8.049  13.208
   28SOL    HW2 1918   4.119   8.030  13.095
   29SOL     OW 1919   9.933   8.051   2.468
   29SOL    HW1 1920   9.917   8.100   2.387
   29SOL    HW2 1921   9.976   8.114   2.526
   30SOL     OW 1922   6.298  14.371  10.941
   30SOL    HW1 1923   6.318  14.464  10.926
   30SOL    HW2 1924   6.280  14.336  10.854
   31SOL     OW 1925   7.397   9.718   8.399
   31SOL    HW1 1926   7.435   9.689   8.316
   31SOL    HW2 1927   7.332   9.783   8.374
   32SOL     OW 1928  12.903   6.061  13.502
   32SOL    HW1 1929  12.893   6.011  13.583
   32SOL    HW2 1930  12.998   6.070  13.491
   33SOL     OW 1931   3.732   3.933   1.479
   33SOL    HW1 1932   3.669   3.937   1.407
   33SOL    HW2 1933   3.771   3.846   1.473
   34SOL     OW 1934   3.896   1.798   8.540
   34SOL    HW1 1935   3.852   1.736   8.482
   34SOL    HW2 1936   3.947   1.744   8.600
   35SOL     OW 1937   9.976   8.066   3.550
   35SOL    HW1 1938  10.004   8.149   3.510
   35SOL    HW2 1939   9.921   8.092   3.624
   36SOL     OW 1940   9.339   0.693   3.477
   36SOL    HW1 1941   9.315   0.777   3.439
   36SOL    HW2 1942   9.435   0.690   3.471
   37SOL     OW 1943   4.674  11.063   6.563
   37SOL    HW1 1944   4.658  10.985   6.617
   37SOL    HW2 1945   4.702  11.027   6.478
   38SOL     OW 1946   5.898  11.699   7.933
   38SOL    HW1 1947   5.883  11.707   7.839
   38SOL    HW2 1948   5.897  11.605   7.950
   39SOL     OW 1949  10.921   5.241  13.319
   39SOL    HW1 1950  10.929   5.254  13.414
   39SOL    HW2 1951  10.972   5.162  13.301
   40SOL     OW 1952   1.859   0.980   7.403
   40SOL    HW1 1953   1.912   0.979   7.324
   40SOL    HW2 1954   1.919   1.007   7.473
   41SOL     OW 1955   4.007   4.336   5.885
   41SOL    HW1 1956   4.003   4.391   5.963
   41SOL    HW2 1957   3.932   4.364   5.832
   42SOL     OW 1958  13.732  11.046  14.281
   42SOL    HW1 1959  13.644  11.039  14.319
   42SOL    HW2 1960  13.718  11.087  14.195
   43SOL     OW 1961   6.205   4.328   4.610
   43SOL    HW1 1962   6.238   4.358   4.526
   43SOL    HW2 1963   6.275   4.347   4.672
   44SOL     OW 1964  10.790   3.982  12.699
   44SOL    HW1 1965  10.717   4.042  12.692
   44SOL    HW2 1966  10.855   4.029  12.752
   45SOL     OW 1967   4.156   2.493   0.958
   45SOL    HW1 1968   4.247   2.511   0.980
   45SOL    HW2 1969   4.117   2.460   1.039
   46SOL     OW 1970   3.184   0.826   4.060
   46SOL    HW1 1971   3.113   0.859   4.115
   46SOL    HW2 1972   3.151   0.744   4.024
   47SOL     OW 1973   9.949  11.283   5.404
   47SOL    HW1 1974  10.029  11.252   5.447
   47SOL    HW2 1975   9.879  11.231   5.445
   48SOL     OW 1976   0.944  13.881  13.712
   48SOL    HW1 1977   0.879  13.950  13.699
   48SOL    HW2 1978   0.978  13.864  13.624
   49SOL     OW 1979   4.998   2.229   8.735
   49SOL    HW1 1980   5.064   2.283   8.777
   49SOL    HW2 1981   5.046   2.180   8.668
   50SOL     OW 1982   3.323   3.335   6.722
   50SOL    HW1 1983   3.315   3.248   6.684
   50SOL    HW2 1984   3.339   3.393   6.648
   51SOL     OW 1985   6.611  10.970   7.964
   51SOL    HW1 1986   6.570  10.972   7.878
   51SOL    HW2 1987   6.538  10.983   8.025
   52SOL     OW 1988   8.305  11.150   3.883
   52SOL    HW1 1989   8.357  11.220   3.843
   52SOL    HW2 1990   8.335  11.146   3.973
   53SOL     OW 1991  13.083   5.371   1.312
   53SOL    HW1 1992  13.029   5.301   1.350
   53SOL    HW2 1993  13.020   5.435   1.280
   54SOL     OW 1994   8.818   2.313   7.739
   54SOL    HW1 1995   8.888   2.375   7.760
   54SOL    HW2 1996   8.770   2.354   7.667
   55SOL     OW 1997   1.201   4.563   7.612
   55SOL    HW1 1998   1.227   4.478   7.577
   55SOL    HW2 1999   1.192   4.549   7.706
   56SOL     OW 2000  10.173  13.508   1.900
   56SOL    HW1 2001  10.179  13.429   1.846
   56SOL    HW2 2002  10.115  13.566   1.850
   57SOL     OW 2003   5.107   4.775   1.341
   57SOL    HW1 2004   5.064   4.693   1.366
   57SOL    HW2 2005   5.145   4.757   1.255
   58SOL     OW 2006   9.485  14.386   3.325
   58SOL    HW1 2007   9.569  14.339   3.326
   58SOL    HW2 2008   9.422  14.322   3.359
   59SOL     OW 2009  11.220   3.867  11.896
   59SOL    HW1 2010  11.236   3.957  11.922
   59SOL    HW2 2011  11.129   3.851  11.921
   60SOL     OW 2012   0.059   0.062   4.173
   60SOL    HW1 2013   0.006   0.087   4.248
   60SOL    HW2 2014   0.148   0.052   4.208
   61SOL     OW 2015  13.541  14.512   2.075
   61SOL    HW1 2016  13.608  14.503   2.143
   61SOL    HW2 2017  13.512  14.422   2.059
   62SOL     OW 2018   7.153   9.966   6.562
   62SOL    HW1 2019   7.085  10.015   6.608
   62SOL    HW2 2020   7.227   9.966   6.622
   63SOL     OW 2021   4.660   0.766   7.186
   63SOL    HW1 2022   4.625   0.711   7.116
   63SOL    HW2 2023   4.733   0.715   7.221
   64SOL     OW 2024   3.876  12.498  11.003
   64SOL    HW1 2025   3.936  12.427  11.028
   64SOL    HW2 2026   3.808  12.497  11.071
   65SOL     OW 2027   8.240   0.376   2.619
   65SOL    HW1 2028   8.288   0.353   2.540
   65SOL    HW2 2029   8.299   0.435   2.666
   66SOL     OW 2030   3.551   0.781  11.797
   66SOL    HW1 2031   3.527   0.854  11.740
   66SOL    HW2 2032   3.576   0.711  11.736
   67SOL     OW 2033   1.240   8.652   2.056
   67SOL    HW1 2034   1.200   8.642   2.142
   67SOL    HW2 2035   1.282   8.738   2.059
   68SOL     OW 2036   4.541   2.540   6.826
   68SOL    HW1 2037   4.499   2.514   6.908
   68SOL    HW2 2038   4.616   2.480   6.818
   69SOL     OW 2039  10.976   3.541  11.439
   69SOL    HW1 2040  11.069   3.558  11.450
   69SOL    HW2 2041  10.943   3.531  11.529
   70SOL     OW 2042   6.966   0.164   1.723
   70SOL    HW1 2043   7.039   0.105   1.704
   70SOL    HW2 2044   6.999   0.251   1.698
   71SOL     OW 2045   2.130   5.709  11.522
   71SOL    HW1 2046   2.176   5.788  11.495
   71SOL    HW2 2047   2.106   5.666  11.440
   72SOL     OW 2048   1.123   3.468   3.347
   72SOL    HW1 2049   1.144   3.484   3.255
   72SOL    HW2 2050   1.088   3.379   3.348
   73SOL     OW 2051   4.671  12.547   8.568
   73SOL    HW1 2052   4.622  12.532   8.650
   73SOL    HW2 2053   4.636  12.481   8.508
   74SOL     OW 2054   7.018  12.085  11.073
   74SOL    HW1 2055   6.974  12.110  11.154
   74SOL    HW2 2056   7.095  12.142  11.069
   75SOL     OW 2057   8.227   3.619   2.055
   75SOL    HW1 2058   8.307   3.641   2.104
   75SOL    HW2 2059   8.236   3.526   2.034
   76SOL     OW 2060   0.032  12.679   9.334
   76SOL    HW1 2061   0.125  12.661   9.323
   76SOL    HW2 2062  14.864  12.640   9.257
   77SOL     OW 2063  14.801   6.880  12.097
   77SOL    HW1 2064  14.806   6.975  12.107
   77SOL    HW2 2065  14.712   6.857  12.125
   78SOL     OW 2066   0.956   6.700   6.645
   78SOL    HW1 2067   0.876   6.675   6.599
   78SOL    HW2 2068   0.956   6.796   6.643
   79SOL     OW 2069   0.921   1.028   0.933
   79SOL    HW1 2070   0.977   0.954   0.912
   79SOL    HW2 2071   0.949   1.056   1.021
   80SOL     OW 2072   9.380  12.180  14.160
   80SOL    HW1 2073   9.324  12.248  14.198
   80SOL    HW2 2074   9.415  12.133  14.236
   81SOL     OW 2075  13.870  11.120   2.729
   81SOL    HW1 2076  13.825  11.036   2.732
   81SOL    HW2 2077  13.954  11.101   2.687
   82SOL     OW 2078  14.829   5.033  10.914
   82SOL    HW1 2079   0.007   5.113  10.926
   82SOL    HW2 2080  14.803   5.008  11.002
   83SOL     OW 2081   0.246   3.754   9.251
   83SOL    HW1 2082   0.327   3.805   9.258
   83SOL    HW2 2083   0.219   3.741   9.342
   84SOL     OW 2084   1.014  13.818  10.097
   84SOL    HW1 2085   1.073  13.743  10.093
   84SOL    HW2 2086   1.032  13.867  10.016
   85SOL     OW 2087  10.198   2.328  11.156
   85SOL    HW1 2088  10.181   2.333  11.062
   85SOL    HW2 2089  10.142   2.257  11.187
   86SOL     OW 2090  13.531   3.941   6.571
   86SOL    HW1 2091  13.579   4.019   6.543
   86SOL    HW2 2092  13.506   3.897   6.489
   87SOL     OW 2093   6.586   3.947  13.137
   87SOL    HW1 2094   6.571   4.004  13.212
   87SOL    HW2 2095   6.668   3.903  13.156
   88SOL     OW 2096   7.782  10.904   7.710
   88SOL    HW1 2097   7.735  10.826   7.683
   88SOL    HW2 2098   7.814  10.884   7.798
   89SOL     OW 2099  11.511  11.715   5.284
   89SOL    HW1 2100  11.601  11.742   5.265
   89SOL    HW2 2101  11.477  11.685   5.200
   90SOL     OW 2102   9.358   1.572  11.635
   90SOL    HW1 2103   9.355   1.477  11.629
   90SOL    HW2 2104   9.315   1.593  11.718
   91SOL     OW 2105   0.811   3.183   1.194
   91SOL    HW1 2106   0.880   3.165   1.258
   91SOL    HW2 2107   0.818   3.276   1.176
   92SOL     OW 2108  14.594  13.192   2.833
   92SOL    HW1 2109  14.648  13.160   2.761
   92SOL    HW2 2110  14.504  13.179   2.802
   93SOL     OW 2111  13.662   5.836  11.050
   93SOL    HW1 2112  13.589   5.774  11.045
   93SOL    HW2 2113  13.699   5.823  11.138
   94SOL     OW 2114   9.209   1.504   9.427
   94SOL    HW1 2115   9.242   1.418   9.401
   94SOL    HW2 2116   9.252   1.522   9.511
   95SOL     OW 2117   0.419   0.344  14.215
   95SOL    HW1 2118   0.408   0.384  14.301
   95SOL    HW2 2119   0.436   0.417  14.156
   96SOL     OW 2120  10.561   8.475   2.673
   96SOL    HW1 2121  10.595   8.473   2.584
   96SOL    HW2 2122  10.628   8.430   2.726
   97SOL     OW 2123   1.175   7.275  14.210
   97SOL    HW1 2124   1.242   7.340  14.189
   97SOL    HW2 2125   1.098   7.328  14.235
   98SOL     OW 2126   6.469   5.816  12.032
   98SOL    HW1 2127   6.447   5.723  12.027
   98SOL    HW2 2128   6.471   5.845  11.941
   99SOL     OW 2129  13.447  13.814   6.986
   99SOL    HW1 2130  13.359  13.799   6.951
   99SOL    HW2 2131  13.474  13.897   6.947
  100SOL     OW 2132   8.212   0.435  12.293
  100SOL    HW1 2133   8.158   0.486  12.232
  100SOL    HW2 2134   8.169   0.447  12.378
  101SOL     OW 2135   6.683   6.562  12.939
  101SOL    HW1 2136   6.667   6.616  12.862
  101SOL    HW2 2137   6.769   6.523  12.924
  102SOL     OW 2138   7.186   8.845   6.871
  102SOL    HW1 2139   7.167   8.888   6.955
  102SOL    HW2 2140   7.173   8.913   6.805
  103SOL     OW 2141   7.101  13.058   9.782
  103SOL    HW1 2142   7.033  13.037   9.847
  103SOL    HW2 2143   7.182  13.059   9.833
  104SOL     OW 2144   6.145   0.601  12.252
  104SOL    HW1 2145   6.152   0.507  12.269
  104SOL    HW2 2146   6.082   0.633  12.316
  105SOL     OW 2147   2.488   1.604   6.501
  105SOL    HW1 2148   2.415   1.660   6.530
  105SOL    HW2 2149   2.505   1.546   6.575
  106SOL     OW 2150  13.882  10.213  10.755
  106SOL    HW1 2151  13.853  10.281  10.815
  106SOL    HW2 2152  13.802  10.180  10.714
  107SOL     OW 2153   4.311   1.503   2.509
  107SOL    HW1 2154   4.305   1.509   2.413
  107SOL    HW2 2155   4.351   1.418   2.525
  108SOL     OW 2156   0.517  14.467   5.768
  108SOL    HW1 2157   0.492  14.470   5.860
  108SOL    HW2 2158   0.434  14.475   5.720
  109SOL     OW 2159   2.898  13.450   2.073
  109SOL    HW1 2160   2.945  13.377   2.114
  109SOL    HW2 2161   2.813  13.412   2.049
  110SOL     OW 2162   6.632  13.148  12.451
  110SOL    HW1 2163   6.588  13.107  12.376
  110SOL    HW2 2164   6.642  13.077  12.515
  111SOL     OW 2165   1.010   4.164  11.492
  111SOL    HW1 2166   1.071   4.227  11.454
  111SOL    HW2 2167   1.065   4.104  11.542
  112SOL     OW 2168   8.361   2.056  11.645
  112SOL    HW1 2169   8.433   2.073  11.584
  112SOL    HW2 2170   8.294   2.013  11.591
  113SOL     OW 2171   1.440   9.663   2.785
  113SOL    HW1 2172   1.523   9.696   2.748
  113SOL    HW2 2173   1.452   9.670   2.879
  114SOL     OW 2174   6.206   6.897   0.196
  114SOL    HW1 2175   6.119   6.894   0.237
  114SOL    HW2 2176   6.195   6.850   0.114
  115SOL     OW 2177   9.389  14.069   4.963
  115SOL    HW1 2178   9.373  14.149   5.013
  115SOL    HW2 2179   9.328  14.073   4.890
  116SOL     OW 2180  14.161  10.549   4.952
  116SOL    HW1 2181  14.098  10.478   4.941
  116SOL    HW2 2182  14.214  10.523   5.027
  117SOL     OW 2183   6.419   2.243  10.440
  117SOL    HW1 2184   6.358   2.196  10.497
  117SOL    HW2 2185   6.466   2.174  10.392
  118SOL     OW 2186  10.309   2.182   6.051
  118SOL    HW1 2187  10.364   2.199   6.128
  118SOL    HW2 2188  10.372   2.167   5.981
  119SOL     OW 2189   2.152   1.368  13.574
  119SOL    HW1 2190   2.200   1.346  13.494
  119SOL    HW2 2191   2.218   1.371  13.642
  120SOL     OW 2192   7.583   5.948  12.119
  120SOL    HW1 2193   7.489   5.943  12.135
  120SOL    HW2 2194   7.591   6.003  12.042
  121SOL     OW 2195   9.583  11.654   8.237
  121SOL    HW1 2196   9.645  11.584   8.217
  121SOL    HW2 2197   9.638  11.729   8.261
  122SOL     OW 2198  13.236   6.038   0.297
  122SOL    HW1 2199  13.213   6.043   0.204
  122SOL    HW2 2200  13.185   6.108   0.338
  123SOL     OW 2201   0.945   4.946   8.898
  123SOL    HW1 2202   0.949   4.852   8.884
  123SOL    HW2 2203   0.873   4.959   8.960
  124SOL     OW 2204   6.047   4.699  14.677
  124SOL    HW1 2205   6.120   4.645  14.706
  124SOL    HW2 2206   5.972   4.638  14.676
  125SOL     OW 2207   6.952   3.411   0.004
  125SOL    HW1 2208   6.865   3.404  14.836
  125SOL    HW2 2209   6.934   3.414   0.098
  126SOL     OW 2210   4.100  13.375   7.067
  126SOL    HW1 2211   4.166  13.311   7.040
  126SOL    HW2 2212   4.050  13.331   7.136
  127SOL     OW 2213   8.429   4.764  14.838
  127SOL    HW1 2214   8.371   4.692  14.813
  127SOL    HW2 2215   8.470   4.790  14.755
  128SOL     OW 2216   5.992  10.282  11.825
  128SOL    HW1 2217   5.958  10.238  11.747
  128SOL    HW2 2218   5.964  10.226  11.897
  129SOL     OW 2219  13.144  10.167   2.572
  129SOL    HW1 2220  13.160  10.213   2.490
  129SOL    HW2 2221  13.218  10.192   2.628
  130SOL     OW 2222   3.730   4.258   8.363
  130SOL    HW1 2223   3.693   4.224   8.444
  130SOL    HW2 2224   3.802   4.314   8.391
  131SOL     OW 2225   8.028   7.379   1.743
  131SOL    HW1 2226   8.024   7.288   1.774
  131SOL    HW2 2227   7.937   7.407   1.738
  132SOL     OW 2228   6.432  11.765   1.013
  132SOL    HW1 2229   6.391  11.727   1.091
  132SOL    HW2 2230   6.372  11.743   0.941
  133SOL     OW 2231   4.372   5.505  12.284
  133SOL    HW1 2232   4.295   5.455  12.256
  133SOL    HW2 2233   4.399   5.552  12.205
  134SOL     OW 2234   5.604   8.346  14.795
  134SOL    HW1 2235   5.576   8.324  14.706
  134SOL    HW2 2236   5.634   8.437  14.789
  135SOL     OW 2237   1.490   6.498   3.599
  135SOL    HW1 2238   1.516   6.544   3.679
  135SOL    HW2 2239   1.563   6.514   3.539
  136SOL     OW 2240   4.498   1.081   0.648
  136SOL    HW1 2241   4.512   1.109   0.558
  136SOL    HW2 2242   4.414   1.036   0.646
  137SOL     OW 2243   2.204   5.628  10.934
  137SOL    HW1 2244   2.193   5.536  10.908
  137SOL    HW2 2245   2.296   5.648  10.915
  138SOL     OW 2246   6.344   8.424   1.053
  138SOL    HW1 2247   6.422   8.376   1.025
  138SOL    HW2 2248   6.302   8.366   1.118
  139SOL     OW 2249   0.092  11.991   8.429
  139SOL    HW1 2250   0.025  11.948   8.481
  139SOL    HW2 2251   0.148  12.035   8.493
  140SOL     OW 2252  10.490   0.494   0.648
  140SOL    HW1 2253  10.469   0.427   0.713
  140SOL    HW2 2254  10.414   0.495   0.589
  141SOL     OW 2255   9.561   2.968   0.627
  141SOL    HW1 2256   9.468   2.949   0.639
  141SOL    HW2 2257   9.564   3.063   0.616
  142SOL     OW 2258   0.546   8.001   9.322
  142SOL    HW1 2259   0.500   8.085   9.322
  142SOL    HW2 2260   0.631   8.019   9.281
  143SOL     OW 2261  14.282   2.493   8.560
  143SOL    HW1 2262  14.321   2.440   8.629
  143SOL    HW2 2263  14.332   2.471   8.481
  144SOL     OW 2264   5.396   4.957   2.949
  144SOL    HW1 2265   5.347   4.884   2.910
  144SOL    HW2 2266   5.347   4.978   3.028
  145SOL     OW 2267   4.445   0.302   8.433
  145SOL    HW1 2268   4.361   0.305   8.478
  145SOL    HW2 2269   4.473   0.211   8.441
  146SOL     OW 2270  11.562   2.561  10.625
  146SOL    HW1 2271  11.544   2.565  10.719
  146SOL    HW2 2272  11.650   2.523  10.619
  147SOL     OW 2273   9.834   6.638   6.474
  147SOL    HW1 2274   9.769   6.641   6.545
  147SOL    HW2 2275   9.814   6.714   6.420
  148SOL     OW 2276   4.903  14.569   0.953
  148SOL    HW1 2277   4.870  14.594   0.867
  148SOL    HW2 2278   4.826  14.571   1.010
  149SOL     OW 2279   0.179   7.874   8.426
  149SOL    HW1 2280   0.108   7.857   8.487
  149SOL    HW2 2281   0.242   7.926   8.476
  150SOL     OW 2282  13.957  14.246  10.534
  150SOL    HW1 2283  13.864  14.225  10.548
  150SOL    HW2 2284  13.981  14.298  10.611
  151SOL     OW 2285   5.254   2.441   1.266
  151SOL    HW1 2286   5.245   2.425   1.360
  151SOL    HW2 2287   5.347   2.427   1.248
  152SOL     OW 2288  13.246   8.931   3.473
  152SOL    HW1 2289  13.293   9.015   3.472
  152SOL    HW2 2290  13.250   8.902   3.564
  153SOL     OW 2291   4.734   4.119   0.703
  153SOL    HW1 2292   4.734   4.192   0.641
  153SOL    HW2 2293   4.672   4.144   0.771
  154SOL     OW 2294   4.337   6.133   8.512
  154SOL    HW1 2295   4.388   6.208   8.542
  154SOL    HW2 2296   4.395   6.088   8.450
  155SOL     OW 2297  14.720   2.827   9.875
  155SOL    HW1 2298  14.814   2.840   9.870
  155SOL    HW2 2299  14.696   2.791   9.789
  156SOL     OW 2300   2.159   6.122   0.408
  156SOL    HW1 2301   2.089   6.146   0.348
  156SOL    HW2 2302   2.126   6.046   0.455
  157SOL     OW 2303  13.711  11.652   2.634
  157SOL    HW1 2304  13.737  11.563   2.659
  157SOL    HW2 2305  13.793  11.700   2.628
  158SOL     OW 2306   6.582   2.706   8.483
  158SOL    HW1 2307   6.614   2.791   8.454
  158SOL    HW2 2308   6.607   2.700   8.575
  159SOL     OW 2309   5.461   0.867  10.022
  159SOL    HW1 2310   5.385   0.871  10.080
  159SOL    HW2 2311   5.424   0.852   9.935
  160SOL     OW 2312   5.393   5.693  13.286
  160SOL    HW1 2313   5.469   5.673  13.231
  160SOL    HW2 2314   5.319   5.692  13.226
  161SOL     OW 2315  13.187   0.932  10.815
  161SOL    HW1 2316  13.167   0.936  10.721
  161SOL    HW2 2317  13.272   0.975  10.823
  162SOL     OW 2318   2.789  13.621  11.214
  162SOL    HW1 2319   2.694  13.635  11.215
  162SOL    HW2 2320   2.826  13.707  11.191
  163SOL     OW 2321   3.133   6.536   1.705
  163SOL    HW1 2322   3.083   6.612   1.736
  163SOL    HW2 2323   3.214   6.574   1.669
  164SOL     OW 2324  11.116  11.010   5.806
  164SOL    HW1 2325  11.030  11.043   5.832
  164SOL    HW2 2326  11.120  10.921   5.840
  165SOL     OW 2327  11.409   7.184  12.187
  165SOL    HW1 2328  11.381   7.183  12.095
  165SOL    HW2 2329  11.465   7.107  12.197
  166SOL     OW 2330   0.674   4.057   7.710
  166SOL    HW1 2331   0.758   4.093   7.741
  166SOL    HW2 2332   0.625   4.133   7.682
  167SOL     OW 2333   0.016   7.618  11.511
  167SOL    HW1 2334   0.031   7.711  11.529
  167SOL    HW2 2335  14.797   7.614  11.483
  168SOL     OW 2336   7.090   4.278   8.567
  168SOL    HW1 2337   7.030   4.224   8.619
  168SOL    HW2 2338   7.032   4.331   8.512
  169SOL     OW 2339  10.043  12.166   1.069
  169SOL    HW1 2340  10.049  12.218   0.989
  169SOL    HW2 2341  10.133  12.161   1.101
  170SOL     OW 2342   5.768   6.126   1.154
  170SOL    HW1 2343   5.688   6.076   1.170
  170SOL    HW2 2344   5.769   6.192   1.223
  171SOL     OW 2345   6.478   7.060   8.324
  171SOL    HW1 2346   6.455   7.140   8.276
  171SOL    HW2 2347   6.491   6.994   8.256
  172SOL     OW 2348   5.156  13.662  10.420
  172SOL    HW1 2349   5.076  13.675  10.369
  172SOL    HW2 2350   5.190  13.750  10.434
  173SOL     OW 2351  12.521   1.366   9.145
  173SOL    HW1 2352  12.487   1.280   9.171
  173SOL    HW2 2353  12.480   1.428   9.205
  174SOL     OW 2354   7.089   7.395   0.909
  174SOL    HW1 2355   7.053   7.331   0.970
  174SOL    HW2 2356   7.065   7.362   0.822
  175SOL     OW 2357  14.204   3.709   0.319
  175SOL    HW1 2358  14.132   3.685   0.377
  175SOL    HW2 2359  14.170   3.692   0.231
  176SOL     OW 2360   9.060  13.727   3.346
  176SOL    HW1 2361   8.993  13.779   3.390
  176SOL    HW2 2362   9.035  13.728   3.254
  177SOL     OW 2363  12.813  10.443   2.469
  177SOL    HW1 2364  12.757  10.406   2.401
  177SOL    HW2 2365  12.757  10.444   2.547
  178SOL     OW 2366   9.413   9.319  11.636
  178SOL    HW1 2367   9.435   9.401  11.592
  178SOL    HW2 2368   9.361   9.271  11.572
  179SOL     OW 2369   5.515   9.102   4.561
  179SOL    HW1 2370   5.521   9.190   4.525
  179SOL    HW2 2371   5.574   9.102   4.636
  180SOL     OW 2372  13.364   0.596   0.967
  180SOL    HW1 2373  13.402   0.517   0.930
  180SOL    HW2 2374  13.284   0.567   1.010
  181SOL     OW 2375  11.873   6.762  14.043
  181SOL    HW1 2376  11.962   6.741  14.070
  181SOL    HW2 2377  11.821   6.756  14.123
  182SOL     OW 2378   5.248   0.648   0.937
  182SOL    HW1 2379   5.310   0.642   1.010
  182SOL    HW2 2380   5.171   0.600   0.966
  183SOL     OW 2381   1.126  13.787   5.928
  183SOL    HW1 2382   1.131  13.701   5.887
  183SOL    HW2 2383   1.104  13.769   6.020
  184SOL     OW 2384  13.641  10.126   8.313
  184SOL    HW1 2385  13.614  10.192   8.377
  184SOL    HW2 2386  13.707  10.074   8.359
  185SOL     OW 2387   0.757   7.393   6.094
  185SOL    HW1 2388   0.836   7.364   6.140
  185SOL    HW2 2389   0.713   7.312   6.070
  186SOL     OW 2390   1.297   4.781   9.549
  186SOL    HW1 2391   1.256   4.733   9.477
  186SOL    HW2 2392   1.308   4.870   9.515
  187SOL     OW 2393  10.816   0.416   3.470
  187SOL    HW1 2394  10.751   0.402   3.539
  187SOL    HW2 2395  10.862   0.496   3.495
  188SOL     OW 2396  10.243   1.786   3.005
  188SOL    HW1 2397  10.280   1.791   3.092
  188SOL    HW2 2398  10.154   1.754   3.019
  189SOL     OW 2399  14.184  10.877   6.089
  189SOL    HW1 2400  14.276  10.905   6.094
  189SOL    HW2 2401  14.139  10.950   6.047
  190SOL     OW 2402  12.625   8.882  10.570
  190SOL    HW1 2403  12.532   8.896  10.553
  190SOL    HW2 2404  12.656   8.966  10.603
  191SOL     OW 2405   2.950   9.679   2.350
  191SOL    HW1 2406   2.968   9.772   2.357
  191SOL    HW2 2407   2.990   9.653   2.266
  192SOL     OW 2408   9.829  12.874   1.075
  192SOL    HW1 2409   9.790  12.920   1.149
  192SOL    HW2 2410   9.921  12.862   1.099
  193SOL     OW 2411   7.955  12.502   0.099
  193SOL    HW1 2412   7.984  12.542   0.017
  193SOL    HW2 2413   7.884  12.443   0.072
  194SOL     OW 2414   0.638   1.378   8.561
  194SOL    HW1 2415   0.658   1.305   8.618
  194SOL    HW2 2416   0.546   1.398   8.577
  195SOL     OW 2417  13.477   7.957  11.295
  195SOL    HW1 2418  13.428   8.031  11.259
  195SOL    HW2 2419  13.474   7.890  11.226
  196SOL     OW 2420   8.797  13.821  12.130
  196SOL    HW1 2421   8.832  13.836  12.042
  196SOL    HW2 2422   8.706  13.796  12.116
  197SOL     OW 2423   4.054   9.077  11.204
  197SOL    HW1 2424   4.021   9.074  11.294
  197SOL    HW2 2425   4.141   9.036  11.209
  198SOL     OW 2426  12.888   4.416   5.843
  198SOL    HW1 2427  12.815   4.370   5.801
  198SOL    HW2 2428  12.856   4.438   5.930
  199SOL     OW 2429   0.336   2.047  11.124
  199SOL    HW1 2430   0.342   1.984  11.052
  199SOL    HW2 2431   0.409   2.107  11.109
  200SOL     OW 2432   8.571   1.023  10.541
  200SOL    HW1 2433   8.477   1.036  10.555
  200SOL    HW2 2434   8.604   1.111  10.521
  201SOL     OW 2435   5.386   6.094   5.547
  201SOL    HW1 2436   5.457   6.031   5.562
  201SOL    HW2 2437   5.315   6.042   5.509
  202SOL     OW 2438   3.102  10.132   4.172
  202SOL    HW1 2439   3.154  10.145   4.251
  202SOL    HW2 2440   3.135  10.050   4.134
  203SOL     OW 2441   2.387   8.536  12.394
  203SOL    HW1 2442   2.472   8.497  12.414
  203SOL    HW2 2443   2.407   8.625  12.366
  204SOL     OW 2444   8.877   0.044   1.072
  204SOL    HW1 2445   8.961   0.039   1.118
  204SOL    HW2 2446   8.871   0.136   1.044
  205SOL     OW 2447   7.965   3.658   2.013
  205SOL    HW1 2448   7.960   3.630   1.922
  205SOL    HW2 2449   8.055   3.638   2.039
  206SOL     OW 2450   4.916   1.747   2.815
  206SOL    HW1 2451   4.990   1.800   2.845
  206SOL    HW2 2452   4.930   1.662   2.856
  207SOL     OW 2453   3.626   5.451   8.722
  207SOL    HW1 2454   3.699   5.399   8.755
  207SOL    HW2 2455   3.644   5.540   8.752
  208SOL     OW 2456   3.963   8.477   5.906
  208SOL    HW1 2457   4.059   8.479   5.911
  208SOL    HW2 2458   3.940   8.563   5.871
  209SOL     OW 2459   3.279  10.289   6.367
  209SOL    HW1 2460   3.362  10.313   6.325
  209SOL    HW2 2461   3.236  10.373   6.385
  210SOL     OW 2462   8.639   9.829   2.111
  210SOL    HW1 2463   8.621   9.922   2.093
  210SOL    HW2 2464   8.734   9.824   2.118
  211SOL     OW 2465   8.042   0.303  10.405
  211SOL    HW1 2466   8.120   0.274  10.358
  211SOL    HW2 2467   7.973   0.243  10.376
  212SOL     OW 2468   3.520   4.302   8.195
  212SOL    HW1 2469   3.597   4.299   8.253
  212SOL    HW2 2470   3.526   4.386   8.151
  213SOL     OW 2471   4.566   9.899   4.647
  213SOL    HW1 2472   4.602   9.825   4.697
  213SOL    HW2 2473   4.636   9.923   4.586
  214SOL     OW 2474  12.966   6.919   2.333
  214SOL    HW1 2475  13.031   6.989   2.333
  214SOL    HW2 2476  13.016   6.841   2.306
  215SOL     OW 2477  12.732   5.019   6.255
  215SOL    HW1 2478  12.730   4.987   6.165
  215SOL    HW2 2479  12.643   5.048   6.272
  216SOL     OW 2480   1.368  12.211  10.412
  216SOL    HW1 2481   1.319  12.213  10.494
  216SOL    HW2 2482   1.451  12.169  10.434
  217SOL     OW 2483   2.022   1.507   5.765
  217SOL    HW1 2484   2.046   1.596   5.738
  217SOL    HW2 2485   2.101   1.455   5.750
  218SOL     OW 2486  10.885  10.314   2.932
  218SOL    HW1 2487  10.832  10.234   2.937
  218SOL    HW2 2488  10.882  10.351   3.021
  219SOL     OW 2489   2.009  14.337   6.880
  219SOL    HW1 2490   1.998  14.429   6.904
  219SOL    HW2 2491   2.100  14.332   6.850
  220SOL     OW 2492   7.195  10.403   6.488
  220SOL    HW1 2493   7.277  10.359   6.512
  220SOL    HW2 2494   7.134  10.380   6.558
  221SOL     OW 2495   1.792   1.957   9.173
  221SOL    HW1 2496   1.814   1.946   9.266
  221SOL    HW2 2497   1.774   2.051   9.164
  222SOL     OW 2498   2.699  13.733   9.754
  222SOL    HW1 2499   2.789  13.706   9.767
  222SOL    HW2 2500   2.655  13.713   9.837
  223SOL     OW 2501   4.431   1.083  11.968
  223SOL    HW1 2502   4.465   1.169  11.947
  223SOL    HW2 2503   4.483   1.023  11.914
  224SOL     OW 2504   0.398  10.746   8.669
  224SOL    HW1 2505   0.329  10.739   8.734
  224SOL    HW2 2506   0.479  10.748   8.720
  225SOL     OW 2507   4.034  11.214  12.439
  225SOL    HW1 2508   4.077  11.291  12.401
  225SOL    HW2 2509   4.083  11.196  12.519
  226SOL     OW 2510   7.679   4.049  14.753
  226SOL    HW1 2511   7.732   4.027  14.676
  226SOL    HW2 2512   7.630   3.969  14.772
  227SOL     OW 2513  11.486   9.086   1.448
  227SOL    HW1 2514  11.426   9.083   1.373
  227SOL    HW2 2515  11.439   9.042   1.518
  228SOL     OW 2516  10.864   7.774   7.924
  228SOL    HW1 2517  10.798   7.706   7.923
  228SOL    HW2 2518  10.881   7.792   7.831
  229SOL     OW 2519   0.321  14.600  14.302
  229SOL    HW1 2520   0.289  14.658  14.232
  229SOL    HW2 2521   0.416  14.601  14.291
  230SOL     OW 2522   3.800  12.869   5.190
  230SOL    HW1 2523   3.797  12.778   5.219
  230SOL    HW2 2524   3.783  12.864   5.096
  231SOL     OW 2525   2.559  14.713   0.998
  231SOL    HW1 2526   2.513  14.755   1.071
  231SOL    HW2 2527   2.558  14.620   1.019
  232SOL     OW 2528  11.073   1.083  10.071
  232SOL    HW1 2529  11.058   0.990  10.086
  232SOL    HW2 2530  11.117   1.087   9.986
  233SOL     OW 2531   6.063   2.831   8.234
  233SOL    HW1 2532   6.041   2.742   8.207
  233SOL    HW2 2533   6.043   2.833   8.328
  234SOL     OW 2534  12.979   7.674   8.779
  234SOL    HW1 2535  13.058   7.649   8.731
  234SOL    HW2 2536  12.996   7.762   8.812
  235SOL     OW 2537  12.432  12.733  11.028
  235SOL    HW1 2538  12.442  12.801  11.094
  235SOL    HW2 2539  12.486  12.661  11.058
  236SOL     OW 2540   3.853   5.534   9.152
  236SOL    HW1 2541   3.836   5.623   9.183
  236SOL    HW2 2542   3.930   5.543   9.095
  237SOL     OW 2543  12.400  14.722  12.286
  237SOL    HW1 2544  12.451  14.666  12.228
  237SOL    HW2 2545  12.309  14.695  12.272
  238SOL     OW 2546   4.693  13.725   2.638
  238SOL    HW1 2547   4.749  13.707   2.562
  238SOL    HW2 2548   4.742  13.790   2.689
  239SOL     OW 2549   9.067   8.356   9.386
  239SOL    HW1 2550   9.104   8.336   9.300
  239SOL    HW2 2551   8.977   8.384   9.367
  240SOL     OW 2552   3.729   1.341  10.343
  240SOL    HW1 2553   3.768   1.296  10.419
  240SOL    HW2 2554   3.710   1.272  10.281
  241SOL     OW 2555   2.413   4.675   6.080
  241SOL    HW1 2556   2.318   4.666   6.084
  241SOL    HW2 2557   2.446   4.608   6.140
  242SOL     OW 2558   0.332   3.342   2.266
  242SOL    HW1 2559   0.335   3.436   2.253
  242SOL    HW2 2560   0.423   3.313   2.257
  243SOL     OW 2561   1.172  11.165   7.232
  243SOL    HW1 2562   1.094  11.110   7.234
  243SOL    HW2 2563   1.159  11.227   7.304
  244SOL     OW 2564   8.856   3.957   3.024
  244SOL    HW1 2565   8.831   3.868   3.049
  244SOL    HW2 2566   8.811   3.973   2.941
  245SOL     OW 2567   8.083  12.569   9.849
  245SOL    HW1 2568   8.063  12.656   9.816
  245SOL    HW2 2569   8.179  12.567   9.855
  246SOL     OW 2570   0.375  14.650   0.947
  246SOL    HW1 2571   0.431  14.722   0.917
  246SOL    HW2 2572   0.331  14.685   1.025
  247SOL     OW 2573   8.505   0.230   9.343
  247SOL    HW1 2574   8.511   0.286   9.420
  247SOL    HW2 2575   8.421   0.252   9.303
  248SOL     OW 2576  12.831   4.890   8.546
  248SOL    HW1 2577  12.772   4.958   8.512
  248SOL    HW2 2578  12.788   4.808   8.524
  249SOL     OW 2579   1.069   7.667   9.136
  249SOL    HW1 2580   1.132   7.600   9.110
  249SOL    HW2 2581   0.990   7.618   9.160
  250SOL     OW 2582   2.099  10.575   8.963
  250SOL    HW1 2583   2.138  10.656   8.995
  250SOL    HW2 2584   2.171  10.528   8.921
  251SOL     OW 2585  12.321  11.962   8.144
  251SOL    HW1 2586  12.345  11.970   8.236
  251SOL    HW2 2587  12.265  12.039   8.127
  252SOL     OW 2588  10.105  10.541   9.790
  252SOL    HW1 2589  10.192  10.560   9.754
  252SOL    HW2 2590  10.103  10.446   9.799
  253SOL     OW 2591  11.332   1.556   8.072
  253SOL    HW1 2592  11.395   1.628   8.072
  253SOL    HW2 2593  11.382   1.481   8.039
  254SOL     OW 2594   2.116  13.988  12.396
  254SOL    HW1 2595   2.154  13.949  12.317
  254SOL    HW2 2596   2.182  13.972  12.464
  255SOL     OW 2597   3.281   0.709   9.771
  255SOL    HW1 2598   3.297   0.615   9.781
  255SOL    HW2 2599   3.313   0.747   9.853
  256SOL     OW 2600  10.114   4.394  11.074
  256SOL    HW1 2601  10.202   4.432  11.071
  256SOL    HW2 2602  10.055   4.469  11.072
  257SOL     OW 2603   7.815   5.935   6.332
  257SOL    HW1 2604   7.850   5.864   6.386
  257SOL    HW2 2605   7.892   5.976   6.293
  258SOL     OW 2606   8.566   6.163   3.406
  258SOL    HW1 2607   8.621   6.167   3.484
  258SOL    HW2 2608   8.482   6.129   3.439
  259SOL     OW 2609  11.451  12.287   9.583
  259SOL    HW1 2610  11.476  12.315   9.495
  259SOL    HW2 2611  11.488  12.199   9.591
  260SOL     OW 2612   4.459  12.539   3.505
  260SOL    HW1 2613   4.414  12.585   3.576
  260SOL    HW2 2614   4.528  12.599   3.477
  261SOL     OW 2615   4.705  10.202   8.292
  261SOL    HW1 2616   4.613  10.181   8.308
  261SOL    HW2 2617   4.748  10.116   8.286
  262SOL     OW 2618   9.648   5.689   8.773
  262SOL    HW1 2619   9.640   5.784   8.775
  262SOL    HW2 2620   9.576   5.660   8.716
  263SOL     OW 2621   3.762   3.801   9.660
  263SOL    HW1 2622   3.825   3.771   9.594
  263SOL    HW2 2623   3.816   3.842   9.728
  264SOL     OW 2624   5.211  11.316   7.419
  264SOL    HW1 2625   5.252  11.230   7.412
  264SOL    HW2 2626   5.145  11.305   7.487
  265SOL     OW 2627   8.177   9.887  12.925
  265SOL    HW1 2628   8.134   9.831  12.861
  265SOL    HW2 2629   8.260   9.911  12.885
  266SOL     OW 2630   7.095   1.727   9.431
  266SOL    HW1 2631   7.097   1.634   9.450
  266SOL    HW2 2632   7.109   1.733   9.336
  267SOL     OW 2633  13.136   0.041   5.732
  267SOL    HW1 2634  13.151   0.126   5.774
  267SOL    HW2 2635  13.052   0.050   5.687
  268SOL     OW 2636  11.096   0.451   8.040
  268SOL    HW1 2637  11.006   0.420   8.030
  268SOL    HW2 2638  11.149   0.384   7.996
  269SOL     OW 2639  13.951   3.402  10.989
  269SOL    HW1 2640  13.873   3.397  10.934
  269SOL    HW2 2641  14.002   3.324  10.967
  270SOL     OW 2642   4.417   7.151   0.345
  270SOL    HW1 2643   4.435   7.204   0.423
  270SOL    HW2 2644   4.462   7.197   0.274
  271SOL     OW 2645  13.079   4.909  14.240
  271SOL    HW1 2646  13.102   4.975  14.306
  271SOL    HW2 2647  13.154   4.850  14.237
  272SOL     OW 2648   5.479   8.313   4.585
  272SOL    HW1 2649   5.392   8.352   4.582
  272SOL    HW2 2650   5.465   8.221   4.561
  273SOL     OW 2651   2.227  11.369   7.180
  273SOL    HW1 2652   2.256  11.278   7.175
  273SOL    HW2 2653   2.138  11.369   7.145
  274SOL     OW 2654   4.090   6.468   3.708
  274SOL    HW1 2655   4.141   6.546   3.689
  274SOL    HW2 2656   4.074   6.472   3.803
  275SOL     OW 2657  14.367   8.711  10.897
  275SOL    HW1 2658  14.351   8.800  10.929
  275SOL    HW2 2659  14.282   8.681  10.865
  276SOL     OW 2660  14.282   3.210  12.647
  276SOL    HW1 2661  14.262   3.196  12.554
  276SOL    HW2 2662  14.293   3.122  12.683
  277SOL     OW 2663   7.286   1.957  10.691
  277SOL    HW1 2664   7.312   1.986  10.604
  277SOL    HW2 2665   7.279   2.038  10.742
  278SOL     OW 2666  14.606   0.894  13.197
  278SOL    HW1 2667  14.608   0.809  13.152
  278SOL    HW2 2668  14.522   0.933  13.172
  279SOL     OW 2669   2.331   4.674   9.557
  279SOL    HW1 2670   2.347   4.585   9.525
  279SOL    HW2 2671   2.388   4.729   9.503
  280SOL     OW 2672   9.643   0.393   0.958
  280SOL    HW1 2673   9.592   0.426   0.884
  280SOL    HW2 2674   9.730   0.377   0.921
  281SOL     OW 2675  13.066   2.491   0.004
  281SOL    HW1 2676  13.038   2.461   0.091
  281SOL    HW2 2677  13.094   2.582   0.019
  282SOL     OW 2678  10.972  10.014  13.046
  282SOL    HW1 2679  10.973  10.052  12.959
  282SOL    HW2 2680  10.983   9.920  13.031
  283SOL     OW 2681  12.299   4.963   2.885
  283SOL    HW1 2682  12.380   4.913   2.899
  283SOL    HW2 2683  12.247   4.946   2.963
  284SOL     OW 2684  11.827   5.943   5.191
  284SOL    HW1 2685  11.791   6.017   5.143
  284SOL    HW2 2686  11.902   5.979   5.238
  285SOL     OW 2687   1.945   3.966   5.878
  285SOL    HW1 2688   1.896   4.028   5.932
  285SOL    HW2 2689   1.954   3.888   5.933
  286SOL     OW 2690  12.459   7.915  13.541
  286SOL    HW1 2691  12.406   7.836  13.550
  286SOL    HW2 2692  12.503   7.924  13.626
  287SOL     OW 2693   3.033   4.318  14.234
  287SOL    HW1 2694   3.118   4.331  14.193
  287SOL    HW2 2695   3.019   4.224  14.233
  288SOL     OW 2696   0.079  13.160   2.896
  288SOL    HW1 2697   0.160  13.116   2.868
  288SOL    HW2 2698   0.109  13.240   2.940
  289SOL     OW 2699   5.120   8.073  12.361
  289SOL    HW1 2700   5.150   8.029  12.440
  289SOL    HW2 2701   5.199   8.105  12.318
  290SOL     OW 2702  11.341   2.574  13.534
  290SOL    HW1 2703  11.383   2.649  13.492
  290SOL    HW2 2704  11.404   2.502  13.526
  291SOL     OW 2705   1.956   7.033   5.565
  291SOL    HW1 2706   1.968   7.025   5.470
  291SOL    HW2 2707   1.904   6.956   5.590
  292SOL     OW 2708   5.860   4.259   0.570
  292SOL    HW1 2709   5.878   4.353   0.574
  292SOL    HW2 2710   5.827   4.245   0.481
  293SOL     OW 2711   5.750   0.712   1.623
  293SOL    HW1 2712   5.699   0.772   1.677
  293SOL    HW2 2713   5.814   0.767   1.579
  294SOL     OW 2714  14.771  10.881   7.416
  294SOL    HW1 2715  14.863  10.906   7.427
  294SOL    HW2 2716  14.774  10.788   7.395
  295SOL     OW 2717  14.164   8.438   6.286
  295SOL    HW1 2718  14.071   8.424   6.268
  295SOL    HW2 2719  14.180   8.530   6.264
  296SOL     OW 2720   1.285   3.826   3.089
  296SOL    HW1 2721   1.254   3.860   3.173
  296SOL    HW2 2722   1.308   3.735   3.107
  297SOL     OW 2723  12.492  14.145  14.410
  297SOL    HW1 2724  12.543  14.222  14.438
  297SOL    HW2 2725  12.419  14.180  14.361
  298SOL     OW 2726   9.431  10.619  10.549
  298SOL    HW1 2727   9.449  10.610  10.455
  298SOL    HW2 2728   9.517  10.631  10.589
  299SOL     OW 2729  12.158   8.561   8.003
  299SOL    HW1 2730  12.177   8.481   7.953
  299SOL    HW2 2731  12.063   8.560   8.015
  300SOL     OW 2732   9.635   1.002  11.269
  300SOL    HW1 2733   9.638   1.064  11.196
  300SOL    HW2 2734   9.618   1.056  11.346
  301SOL     OW 2735   8.333  10.196   1.658
  301SOL    HW1 2736   8.402  10.210   1.593
  301SOL    HW2 2737   8.307  10.285   1.684
  302SOL     OW 2738   9.773   5.118   1.780
  302SOL    HW1 2739   9.784   5.185   1.846
  302SOL    HW2 2740   9.826   5.148   1.706
  303SOL     OW 2741   5.209   5.975  10.619
  303SOL    HW1 2742   5.193   6.028  10.540
  303SOL    HW2 2743   5.209   5.885  10.587
  304SOL     OW 2744  14.335   0.279  12.321
  304SOL    HW1 2745  14.271   0.240  12.380
  304SOL    HW2 2746  14.386   0.338  12.377
  305SOL     OW 2747   9.753   7.881   1.275
  305SOL    HW1 2748   9.737   7.791   1.247
  305SOL    HW2 2749   9.673   7.928   1.252
  306SOL     OW 2750   0.799   7.022   6.117
  306SOL    HW1 2751   0.853   7.049   6.191
  306SOL    HW2 2752   0.799   6.926   6.121
  307SOL     OW 2753   3.010   3.885  11.184
  307SOL    HW1 2754   3.008   3.883  11.280
  307SOL    HW2 2755   2.940   3.945  11.159
  308SOL     OW 2756   3.326   3.251  11.672
  308SOL    HW1 2757   3.362   3.166  11.646
  308SOL    HW2 2758   3.401   3.300  11.704
  309SOL     OW 2759   7.871   8.059   2.008
  309SOL    HW1 2760   7.883   8.115   2.084
  309SOL    HW2 2761   7.876   8.117   1.933
  310SOL     OW 2762  11.660   5.471   6.408
  310SOL    HW1 2763  11.735   5.412   6.414
  310SOL    HW2 2764  11.584   5.414   6.413
  311SOL     OW 2765  10.554   9.378   5.388
  311SOL    HW1 2766  10.563   9.473   5.381
  311SOL    HW2 2767  10.459   9.363   5.387
  312SOL     OW 2768   5.624  12.500  11.112
  312SOL    HW1 2769   5.630  12.594  11.094
  312SOL    HW2 2770   5.538  12.475  11.077
  313SOL     OW 2771   6.147  13.479  13.127
  313SOL    HW1 2772   6.235  13.449  13.105
  313SOL    HW2 2773   6.155  13.574  13.135
  314SOL     OW 2774   7.595   6.122   8.933
  314SOL    HW1 2775   7.600   6.186   9.004
  314SOL    HW2 2776   7.554   6.170   8.861
  315SOL     OW 2777  11.910   0.239   7.715
  315SOL    HW1 2778  11.892   0.147   7.698
  315SOL    HW2 2779  11.929   0.276   7.629
  316SOL     OW 2780   5.943   2.812  10.335
  316SOL    HW1 2781   5.916   2.754  10.264
  316SOL    HW2 2782   5.900   2.775  10.413
  317SOL     OW 2783   4.006   4.599  14.050
  317SOL    HW1 2784   3.982   4.507  14.052
  317SOL    HW2 2785   4.087   4.604  14.101
  318SOL     OW 2786   8.686   0.405  13.185
  318SOL    HW1 2787   8.756   0.385  13.248
  318SOL    HW2 2788   8.628   0.466  13.232
  319SOL     OW 2789  11.670   4.312   3.721
  319SOL    HW1 2790  11.612   4.279   3.790
  319SOL    HW2 2791  11.644   4.403   3.709
  320SOL     OW 2792   9.621   9.583   8.210
  320SOL    HW1 2793   9.666   9.633   8.141
  320SOL    HW2 2794   9.530   9.578   8.182
  321SOL     OW 2795   1.592   1.568  10.012
  321SOL    HW1 2796   1.629   1.496  10.063
  321SOL    HW2 2797   1.499   1.547  10.005
  322SOL     OW 2798   9.267   7.806   0.927
  322SOL    HW1 2799   9.244   7.854   1.006
  322SOL    HW2 2800   9.359   7.826   0.913
  323SOL     OW 2801   7.467   0.276   9.533
  323SOL    HW1 2802   7.544   0.321   9.499
  323SOL    HW2 2803   7.470   0.188   9.494
  324SOL     OW 2804   1.176   4.690  11.575
  324SOL    HW1 2805   1.243   4.639  11.620
  324SOL    HW2 2806   1.109   4.627  11.551
  325SOL     OW 2807   3.276  10.020   6.761
  325SOL    HW1 2808   3.308   9.943   6.715
  325SOL    HW2 2809   3.256   9.989   6.849
  326SOL     OW 2810  14.381  14.145   2.809
  326SOL    HW1 2811  14.368  14.065   2.860
  326SOL    HW2 2812  14.302  14.153   2.756
  327SOL     OW 2813   1.542  13.216   0.097
  327SOL    HW1 2814   1.515  13.168   0.175
  327SOL    HW2 2815   1.461  13.233   0.049
  328SOL     OW 2816  12.995   9.628   5.558
  328SOL    HW1 2817  13.034   9.693   5.499
  328SOL    HW2 2818  13.060   9.557   5.561
  329SOL     OW 2819   4.742   7.627   6.328
  329SOL    HW1 2820   4.799   7.561   6.290
  329SOL    HW2 2821   4.736   7.603   6.421
  330SOL     OW 2822   5.035   0.429   4.608
  330SOL    HW1 2823   5.058   0.349   4.657
  330SOL    HW2 2824   4.941   0.439   4.622
  331SOL     OW 2825   7.884   5.998  11.573
  331SOL    HW1 2826   7.889   6.088  11.607
  331SOL    HW2 2827   7.791   5.976  11.576
  332SOL     OW 2828   2.827  12.657   4.358
  332SOL    HW1 2829   2.797  12.590   4.297
  332SOL    HW2 2830   2.906  12.621   4.397
  333SOL     OW 2831   6.666   4.787   5.607
  333SOL    HW1 2832   6.597   4.838   5.649
  333SOL    HW2 2833   6.676   4.709   5.662
  334SOL     OW 2834   1.661   1.661   3.439
  334SOL    HW1 2835   1.569   1.680   3.458
  334SOL    HW2 2836   1.658   1.586   3.379
  335SOL     OW 2837  11.453  14.249   6.303
  335SOL    HW1 2838  11.460  14.166   6.256
  335SOL    HW2 2839  11.439  14.314   6.234
  336SOL     OW 2840   6.495   0.563  14.411
  336SOL    HW1 2841   6.465   0.653  14.428
  336SOL    HW2 2842   6.590   0.567  14.426
  337SOL     OW 2843  10.631   8.321  13.457
  337SOL    HW1 2844  10.650   8.243  13.509
  337SOL    HW2 2845  10.635   8.393  13.520
  338SOL     OW 2846   8.266   5.764   1.311
  338SOL    HW1 2847   8.278   5.832   1.244
  338SOL    HW2 2848   8.180   5.782   1.348
  339SOL     OW 2849   0.236  10.384   4.804
  339SOL    HW1 2850   0.233  10.354   4.714
  339SOL    HW2 2851   0.316  10.437   4.810
  340SOL     OW 2852   7.481   7.793  10.236
  340SOL    HW1 2853   7.566   7.828  10.263
  340SOL    HW2 2854   7.424   7.870  10.231
  341SOL     OW 2855  10.816   2.385  11.305
  341SOL    HW1 2856  10.751   2.327  11.344
  341SOL    HW2 2857  10.888   2.386  11.367
  342SOL     OW 2858   3.967  10.542   5.978
  342SOL    HW1 2859   3.957  10.578   6.066
  342SOL    HW2 2860   3.928  10.607   5.920
  343SOL     OW 2861   5.617   6.300   0.059
  343SOL    HW1 2862   5.636   6.342  14.848
  343SOL    HW2 2863   5.609   6.207   0.038
  344SOL     OW 2864   7.567  12.148   4.221
  344SOL    HW1 2865   7.652  12.142   4.176
  344SOL    HW2 2866   7.512  12.083   4.178
  345SOL     OW 2867  13.015   2.357   0.843
  345SOL    HW1 2868  12.978   2.321   0.762
  345SOL    HW2 2869  12.944   2.350   0.907
  346SOL     OW 2870   6.614   6.184   2.059
  346SOL    HW1 2871   6.579   6.241   1.991
  346SOL    HW2 2872   6.550   6.188   2.129
  347SOL     OW 2873   5.392  14.025   1.493
  347SOL    HW1 2874   5.476  14.063   1.520
  347SOL    HW2 2875   5.413  13.972   1.417
  348SOL     OW 2876   7.346   5.332  11.939
  348SOL    HW1 2877   7.365   5.300  11.851
  348SOL    HW2 2878   7.432   5.334  11.982
  349SOL     OW 2879  13.585   7.172   6.813
  349SOL    HW1 2880  13.568   7.087   6.772
  349SOL    HW2 2881  13.499   7.200   6.844
  350SOL     OW 2882   6.037   6.626   0.640
  350SOL    HW1 2883   6.096   6.701   0.631
  350SOL    HW2 2884   6.068   6.563   0.575
  351SOL     OW 2885  14.333   3.394  13.068
  351SOL    HW1 2886  14.333   3.396  13.164
  351SOL    HW2 2887  14.242   3.411  13.043
  352SOL     OW 2888  13.238   3.404   9.985
  352SOL    HW1 2889  13.208   3.369   9.901
  352SOL    HW2 2890  13.159   3.412  10.037
  353SOL     OW 2891   5.462   4.681   5.461
  353SOL    HW1 2892   5.461   4.598   5.508
  353SOL    HW2 2893   5.554   4.707   5.460
  354SOL     OW 2894   3.240   3.941   2.878
  354SOL    HW1 2895   3.277   3.917   2.963
  354SOL    HW2 2896   3.208   4.031   2.890
  355SOL     OW 2897   7.309   7.965   8.484
  355SOL    HW1 2898   7.220   7.973   8.450
  355SOL    HW2 2899   7.363   7.954   8.406
  356SOL     OW 2900   4.199  11.798   5.357
  356SOL    HW1 2901   4.206  11.722   5.299
  356SOL    HW2 2902   4.146  11.767   5.431
  357SOL     OW 2903   1.299  10.166  13.726
  357SOL    HW1 2904   1.333  10.121  13.649
  357SOL    HW2 2905   1.250  10.099  13.774
  358SOL     OW 2906   3.028   3.851  14.748
  358SOL    HW1 2907   3.089   3.777  14.751
  358SOL    HW2 2908   3.070   3.919  14.801
  359SOL     OW 2909   0.774   2.627  12.977
  359SOL    HW1 2910   0.869   2.636  12.965
  359SOL    HW2 2911   0.748   2.710  13.018
  360SOL     OW 2912  11.549   3.730   8.337
  360SOL    HW1 2913  11.464   3.714   8.298
  360SOL    HW2 2914  11.536   3.809   8.391
  361SOL     OW 2915   4.644  14.176   5.470
  361SOL    HW1 2916   4.622  14.198   5.560
  361SOL    HW2 2917   4.723  14.122   5.477
  362SOL     OW 2918   3.399   4.782   1.357
  362SOL    HW1 2919   3.388   4.807   1.449
  362SOL    HW2 2920   3.493   4.772   1.345
  363SOL     OW 2921   8.011  10.094   2.031
  363SOL    HW1 2922   8.043  10.127   1.947
  363SOL    HW2 2923   7.997  10.001   2.016
  364SOL     OW 2924  14.101   0.576  13.506
  364SOL    HW1 2925  14.114   0.667  13.532
  364SOL    HW2 2926  14.016   0.574  13.464
  365SOL     OW 2927  14.069   1.080  14.088
  365SOL    HW1 2928  14.095   1.152  14.145
  365SOL    HW2 2929  14.043   1.010  14.147
  366SOL     OW 2930   7.588   7.733   4.393
  366SOL    HW1 2931   7.648   7.792   4.346
  366SOL    HW2 2932   7.567   7.665   4.329
  367SOL     OW 2933  12.775  13.948   8.446
  367SOL    HW1 2934  12.680  13.957   8.450
  367SOL    HW2 2935  12.807  14.037   8.440
  368SOL     OW 2936   7.966  13.790   1.629
  368SOL    HW1 2937   7.913  13.770   1.707
  368SOL    HW2 2938   8.034  13.850   1.661
  369SOL     OW 2939   7.679  11.272   6.208
  369SOL    HW1 2940   7.637  11.297   6.126
  369SOL    HW2 2941   7.767  11.245   6.183
  370SOL     OW 2942   3.122   8.126   5.452
  370SOL    HW1 2943   3.153   8.181   5.524
  370SOL    HW2 2944   3.150   8.172   5.373
  371SOL     OW 2945   7.515  13.607   6.953
  371SOL    HW1 2946   7.471  13.615   7.038
  371SOL    HW2 2947   7.480  13.680   6.901
  372SOL     OW 2948   0.549   5.976   3.654
  372SOL    HW1 2949   0.510   5.938   3.733
  372SOL    HW2 2950   0.478   5.978   3.591
  373SOL     OW 2951   5.208  13.569  13.004
  373SOL    HW1 2952   5.124  13.566  12.959
  373SOL    HW2 2953   5.259  13.498  12.965
  374SOL     OW 2954   6.589   8.015   7.731
  374SOL    HW1 2955   6.505   7.980   7.698
  374SOL    HW2 2956   6.655   7.960   7.688
  375SOL     OW 2957   8.163  11.575   9.464
  375SOL    HW1 2958   8.101  11.545   9.398
  375SOL    HW2 2959   8.219  11.499   9.480
  376SOL     OW 2960   8.235  10.520  14.267
  376SOL    HW1 2961   8.268  10.478  14.187
  376SOL    HW2 2962   8.312  10.525  14.324
  377SOL     OW 2963   2.177  12.005   6.721
  377SOL    HW1 2964   2.146  12.094   6.731
  377SOL    HW2 2965   2.100  11.950   6.735
  378SOL     OW 2966  13.141   4.966   9.585
  378SOL    HW1 2967  13.164   5.055   9.609
  378SOL    HW2 2968  13.151   4.916   9.666
  379SOL     OW 2969  12.938   7.030  10.138
  379SOL    HW1 2970  13.008   6.972  10.169
  379SOL    HW2 2971  12.966   7.118  10.163
  380SOL     OW 2972  13.776   3.476   5.563
  380SOL    HW1 2973  13.836   3.402   5.559
  380SOL    HW2 2974  13.795   3.518   5.647
  381SOL     OW 2975   3.787   9.183   0.990
  381SOL    HW1 2976   3.867   9.232   0.970
  381SOL    HW2 2977   3.793   9.165   1.083
  382SOL     OW 2978  12.167   1.301   4.403
  382SOL    HW1 2979  12.090   1.314   4.458
  382SOL    HW2 2980  12.240   1.336   4.455
  383SOL     OW 2981   4.253   3.134   2.847
  383SOL    HW1 2982   4.265   3.052   2.800
  383SOL    HW2 2983   4.226   3.108   2.935
  384SOL     OW 2984  13.622   2.207  14.345
  384SOL    HW1 2985  13.689   2.254  14.395
  384SOL    HW2 2986  13.649   2.115  14.350
  385SOL     OW 2987   6.276   0.004  10.719
  385SOL    HW1 2988   6.188   0.040  10.733
  385SOL    HW2 2989   6.334   0.080  10.726
  386SOL     OW 2990  13.949  11.260  13.580
  386SOL    HW1 2991  13.900  11.180  13.559
  386SOL    HW2 2992  14.038  11.243  13.548
  387SOL     OW 2993  13.026   6.498  10.246
  387SOL    HW1 2994  12.962   6.538  10.188
  387SOL    HW2 2995  12.985   6.417  10.276
  388SOL     OW 2996   1.863   6.178   1.303
  388SOL    HW1 2997   1.855   6.145   1.213
  388SOL    HW2 2998   1.891   6.102   1.354
  389SOL     OW 2999   6.564   3.081  10.782
  389SOL    HW1 3000   6.594   3.003  10.734
  389SOL    HW2 3001   6.550   3.147  10.714
  390SOL     OW 3002  10.268   6.950   3.897
  390SOL    HW1 3003  10.347   6.992   3.864
  390SOL    HW2 3004  10.207   6.952   3.823
  391SOL     OW 3005  14.420   4.775   6.611
  391SOL    HW1 3006  14.351   4.832   6.578
  391SOL    HW2 3007  14.476   4.757   6.536
  392SOL     OW 3008  14.770   8.034   3.652
  392SOL    HW1 3009  14.711   7.987   3.592
  392SOL    HW2 3010  14.831   8.079   3.595
  393SOL     OW 3011  12.105  14.689  12.012
  393SOL    HW1 3012  12.087  14.700  12.105
  393SOL    HW2 3013  12.059  14.609  11.987
  394SOL     OW 3014   9.975   9.667  12.758
  394SOL    HW1 3015  10.067   9.691  12.747
  394SOL    HW2 3016   9.931   9.749  12.779
  395SOL     OW 3017   4.313  14.730   0.300
  395SOL    HW1 3018   4.329  14.656   0.241
  395SOL    HW2 3019   4.294  14.689   0.384
  396SOL     OW 3020  11.581   9.169   9.556
  396SOL    HW1 3021  11.563   9.250   9.604
  396SOL    HW2 3022  11.515   9.167   9.486
  397SOL     OW 3023   3.919  11.540  13.087
  397SOL    HW1 3024   3.916  11.445  13.087
  397SOL    HW2 3025   4.003  11.562  13.048
  398SOL     OW 3026  10.683   8.145   5.893
  398SOL    HW1 3027  10.680   8.130   5.988
  398SOL    HW2 3028  10.592   8.164   5.869
  399SOL     OW 3029  12.584   9.393   6.062
  399SOL    HW1 3030  12.571   9.375   6.155
  399SOL    HW2 3031  12.499   9.427   6.032
  400SOL     OW 3032  13.982   2.370   1.202
  400SOL    HW1 3033  13.940   2.303   1.150
  400SOL    HW2 3034  14.074   2.370   1.173
  401SOL     OW 3035   9.913   0.656   5.769
  401SOL    HW1 3036   9.861   0.607   5.706
  401SOL    HW2 3037   9.987   0.689   5.717
  402SOL     OW 3038   4.402  13.121  14.309
  402SOL    HW1 3039   4.353  13.089  14.233
  402SOL    HW2 3040   4.343  13.184  14.350
  403SOL     OW 3041  13.993   9.074  10.029
  403SOL    HW1 3042  13.952   9.016   9.965
  403SOL    HW2 3043  13.976   9.032  10.114
  404SOL     OW 3044  12.492   5.074   9.285
  404SOL    HW1 3045  12.427   5.107   9.346
  404SOL    HW2 3046  12.518   4.989   9.321
  405SOL     OW 3047   6.590  10.163  11.514
  405SOL    HW1 3048   6.663  10.142  11.456
  405SOL    HW2 3049   6.548  10.078  11.531
  406SOL     OW 3050  12.551   6.444   5.442
  406SOL    HW1 3051  12.498   6.369   5.467
  406SOL    HW2 3052  12.531   6.459   5.349
  407SOL     OW 3053  10.218  14.311   7.357
  407SOL    HW1 3054  10.152  14.293   7.290
  407SOL    HW2 3055  10.284  14.244   7.345
  408SOL     OW 3056   3.012   9.151  12.627
  408SOL    HW1 3057   3.040   9.177  12.715
  408SOL    HW2 3058   3.021   9.056  12.626
  409SOL     OW 3059   8.990   4.612  12.436
  409SOL    HW1 3060   9.072   4.576  12.403
  409SOL    HW2 3061   8.986   4.701  12.402
  410SOL     OW 3062   4.916   8.204   5.742
  410SOL    HW1 3063   4.907   8.118   5.784
  410SOL    HW2 3064   5.000   8.200   5.697
  411SOL     OW 3065   0.916   0.522   9.906
  411SOL    HW1 3066   0.913   0.431   9.937
  411SOL    HW2 3067   0.828   0.540   9.875
  412SOL     OW 3068  11.257  10.398   0.454
  412SOL    HW1 3069  11.349  10.384   0.434
  412SOL    HW2 3070  11.214  10.316   0.430
  413SOL     OW 3071   5.911   6.313   2.081
  413SOL    HW1 3072   5.831   6.355   2.047
  413SOL    HW2 3073   5.968   6.387   2.104
  414SOL     OW 3074   5.197   2.542   0.124
  414SOL    HW1 3075   5.203   2.447   0.126
  414SOL    HW2 3076   5.147   2.565   0.202
  415SOL     OW 3077  12.393   4.670   8.298
  415SOL    HW1 3078  12.312   4.722   8.299
  415SOL    HW2 3079  12.365   4.582   8.325
  416SOL     OW 3080   3.845   8.749  10.743
  416SOL    HW1 3081   3.817   8.666  10.780
  416SOL    HW2 3082   3.796   8.757  10.661
  417SOL     OW 3083  10.477  10.537   6.733
  417SOL    HW1 3084  10.412  10.568   6.796
  417SOL    HW2 3085  10.548  10.600   6.740
  418SOL     OW 3086  12.832   6.475   5.498
  418SOL    HW1 3087  12.848   6.381   5.491
  418SOL    HW2 3088  12.737   6.484   5.491
  419SOL     OW 3089   4.822   3.868  11.811
  419SOL    HW1 3090   4.846   3.776  11.824
  419SOL    HW2 3091   4.855   3.889  11.724
  420SOL     OW 3092   4.719  12.860   1.259
  420SOL    HW1 3093   4.735  12.955   1.256
  420SOL    HW2 3094   4.655  12.849   1.330
  421SOL     OW 3095  10.966   9.794   4.159
  421SOL    HW1 3096  10.907   9.742   4.104
  421SOL    HW2 3097  10.907   9.851   4.209
  422SOL     OW 3098   2.858   3.374   5.138
  422SOL    HW1 3099   2.886   3.465   5.127
  422SOL    HW2 3100   2.934   3.331   5.176
  423SOL     OW 3101   6.698   6.462  14.576
  423SOL    HW1 3102   6.661   6.407  14.507
  423SOL    HW2 3103   6.702   6.550  14.538
  424SOL     OW 3104  10.413   2.708   0.974
  424SOL    HW1 3105  10.330   2.753   0.988
  424SOL    HW2 3106  10.394   2.616   0.994
  425SOL     OW 3107   7.721   6.627  10.309
  425SOL    HW1 3108   7.689   6.617  10.220
  425SOL    HW2 3109   7.713   6.540  10.347
  426SOL     OW 3110  13.010   4.362   2.412
  426SOL    HW1 3111  13.029   4.344   2.320
  426SOL    HW2 3112  13.095   4.382   2.451
  427SOL     OW 3113  13.159  10.163  13.000
  427SOL    HW1 3114  13.160  10.245  12.950
  427SOL    HW2 3115  13.175  10.189  13.090
  428SOL     OW 3116   2.247  12.047   9.070
  428SOL    HW1 3117   2.269  11.968   9.120
  428SOL    HW2 3118   2.201  12.103   9.132
  429SOL     OW 3119   8.733  11.107   2.290
  429SOL    HW1 3120   8.661  11.044   2.300
  429SOL    HW2 3121   8.716  11.150   2.206
  430SOL     OW 3122   4.701   5.621   6.744
  430SOL    HW1 3123   4.643   5.690   6.778
  430SOL    HW2 3124   4.761   5.668   6.685
  431SOL     OW 3125   4.789  14.343   4.507
  431SOL    HW1 3126   4.763  14.432   4.532
  431SOL    HW2 3127   4.872  14.354   4.460
  432SOL     OW 3128   6.279   2.540  12.368
  432SOL    HW1 3129   6.272   2.452  12.403
  432SOL    HW2 3130   6.255   2.532  12.276
  433SOL     OW 3131   5.412   7.132  12.403
  433SOL    HW1 3132   5.361   7.055  12.426
  433SOL    HW2 3133   5.425   7.126  12.309
  434SOL     OW 3134   1.234  12.795   1.457
  434SOL    HW1 3135   1.320  12.836   1.465
  434SOL    HW2 3136   1.221  12.785   1.362
  435SOL     OW 3137   3.940   2.807   1.447
  435SOL    HW1 3138   4.004   2.763   1.503
  435SOL    HW2 3139   3.981   2.808   1.360
  436SOL     OW 3140   8.823   6.976   5.082
  436SOL    HW1 3141   8.881   7.044   5.046
  436SOL    HW2 3142   8.741   6.989   5.036
  437SOL     OW 3143   1.208   0.749   8.996
  437SOL    HW1 3144   1.163   0.816   9.047
  437SOL    HW2 3145   1.201   0.778   8.905
  438SOL     OW 3146   6.768  11.868  10.547
  438SOL    HW1 3147   6.682  11.878  10.505
  438SOL    HW2 3148   6.770  11.776  10.575
  439SOL     OW 3149   3.049   1.216  11.191
  439SOL    HW1 3150   3.053   1.310  11.176
  439SOL    HW2 3151   3.066   1.177  11.105
  440SOL     OW 3152   7.450   6.704   4.094
  440SOL    HW1 3153   7.466   6.786   4.141
  440SOL    HW2 3154   7.534   6.657   4.099
  441SOL     OW 3155  10.896   1.190   8.721
  441SOL    HW1 3156  10.818   1.224   8.764
  441SOL    HW2 3157  10.932   1.265   8.674
  442SOL     OW 3158  14.063  13.050  14.499
  442SOL    HW1 3159  14.041  12.958  14.515
  442SOL    HW2 3160  14.026  13.096  14.574
  443SOL     OW 3161   6.939  10.187   8.918
  443SOL    HW1 3162   6.975  10.154   9.001
  443SOL    HW2 3163   7.015  10.194   8.861
  444SOL     OW 3164   8.985  14.684   5.046
  444SOL    HW1 3165   9.005  14.749   4.979
  444SOL    HW2 3166   8.892  14.665   5.035
  445SOL     OW 3167  11.017   6.700   0.464
  445SOL    HW1 3168  11.025   6.609   0.492
  445SOL    HW2 3169  11.037   6.699   0.371
  446SOL     OW 3170  13.859  11.445  11.868
  446SOL    HW1 3171  13.889  11.380  11.931
  446SOL    HW2 3172  13.894  11.416  11.784
  447SOL     OW 3173   0.529   5.366   7.129
  447SOL    HW1 3174   0.435   5.365   7.115
  447SOL    HW2 3175   0.549   5.281   7.167
  448SOL     OW 3176   8.969   2.844   7.459
  448SOL    HW1 3177   9.017   2.922   7.431
  448SOL    HW2 3178   9.022   2.770   7.428
  449SOL     OW 3179  13.619  13.341  10.236
  449SOL    HW1 3180  13.687  13.404  10.212
  449SOL    HW2 3181  13.580  13.314  10.153
  450SOL     OW 3182  13.363   8.516   7.059
  450SOL    HW1 3183  13.417   8.455   7.108
  450SOL    HW2 3184  13.406   8.601   7.070
  451SOL     OW 3185   3.567   4.847  14.591
  451SOL    HW1 3186   3.569   4.861  14.497
  451SOL    HW2 3187   3.560   4.935  14.629
  452SOL     OW 3188   7.962  10.862   5.771
  452SOL    HW1 3189   8.050  10.840   5.741
  452SOL    HW2 3190   7.947  10.804   5.846
  453SOL     OW 3191   8.147   8.215   4.503
  453SOL    HW1 3192   8.110   8.303   4.493
  453SOL    HW2 3193   8.140   8.197   4.596
  454SOL     OW 3194  14.212  10.738  10.614
  454SOL    HW1 3195  14.193  10.757  10.522
  454SOL    HW2 3196  14.242  10.821  10.650
  455SOL     OW 3197   4.131  13.854   3.268
  455SOL    HW1 3198   4.084  13.775   3.295
  455SOL    HW2 3199   4.122  13.857   3.173
  456SOL     OW 3200  14.083  10.751   0.681
  456SOL    HW1 3201  14.152  10.698   0.721
  456SOL    HW2 3202  14.128  10.830   0.650
  457SOL     OW 3203  14.660  12.741  12.486
  457SOL    HW1 3204  14.740  12.705  12.525
  457SOL    HW2 3205  14.683  12.831  12.464
  458SOL     OW 3206   7.349  10.767   0.437
  458SOL    HW1 3207   7.347  10.717   0.518
  458SOL    HW2 3208   7.349  10.702   0.368
  459SOL     OW 3209   5.891   6.375   9.683
  459SOL    HW1 3210   5.841   6.449   9.718
  459SOL    HW2 3211   5.962   6.416   9.633
  460SOL     OW 3212  11.569   8.505  11.927
  460SOL    HW1 3213  11.521   8.587  11.936
  460SOL    HW2 3214  11.506   8.444  11.887
  461SOL     OW 3215   3.060   6.283  13.163
  461SOL    HW1 3216   2.977   6.243  13.191
  461SOL    HW2 3217   3.034   6.365  13.121
  462SOL     OW 3218  12.319  10.787   5.288
  462SOL    HW1 3219  12.306  10.711   5.345
  462SOL    HW2 3220  12.282  10.860   5.338
  463SOL     OW 3221   2.162   0.315  13.129
  463SOL    HW1 3222   2.220   0.374  13.080
  463SOL    HW2 3223   2.219   0.245  13.159
  464SOL     OW 3224  11.235   6.638  11.575
  464SOL    HW1 3225  11.223   6.714  11.517
  464SOL    HW2 3226  11.261   6.567  11.516
  465SOL     OW 3227   2.858   6.853  13.725
  465SOL    HW1 3228   2.948   6.886  13.732
  465SOL    HW2 3229   2.825   6.891  13.644
  466SOL     OW 3230   8.738   0.146  12.361
  466SOL    HW1 3231   8.810   0.199  12.396
  466SOL    HW2 3232   8.770   0.114  12.277
  467SOL     OW 3233   0.709  12.126  11.156
  467SOL    HW1 3234   0.772  12.185  11.114
  467SOL    HW2 3235   0.695  12.056  11.093
  468SOL     OW 3236   1.116   6.970  12.341
  468SOL    HW1 3237   1.189   6.950  12.399
  468SOL    HW2 3238   1.057   6.895  12.350
  469SOL     OW 3239   7.352   3.576   6.352
  469SOL    HW1 3240   7.326   3.655   6.305
  469SOL    HW2 3241   7.269   3.540   6.384
  470SOL     OW 3242   6.415   0.626   8.257
  470SOL    HW1 3243   6.447   0.617   8.347
  470SOL    HW2 3244   6.335   0.678   8.265
  471SOL     OW 3245  12.510  14.786  10.407
  471SOL    HW1 3246  12.428  14.762  10.452
  471SOL    HW2 3247  12.489  14.868  10.363
  472SOL     OW 3248   4.078   2.091   5.822
  472SOL    HW1 3249   4.090   2.035   5.899
  472SOL    HW2 3250   4.051   2.176   5.859
  473SOL     OW 3251   8.921   7.550   2.650
  473SOL    HW1 3252   8.906   7.490   2.577
  473SOL    HW2 3253   8.924   7.494   2.727
  474SOL     OW 3254  11.160  13.538   1.396
  474SOL    HW1 3255  11.120  13.452   1.401
  474SOL    HW2 3256  11.157  13.572   1.485
  475SOL     OW 3257   2.705  10.165   9.549
  475SOL    HW1 3258   2.629  10.210   9.585
  475SOL    HW2 3259   2.668  10.100   9.488
  476SOL     OW 3260   4.346  10.596   1.751
  476SOL    HW1 3261   4.267  10.625   1.707
  476SOL    HW2 3262   4.316  10.556   1.832
  477SOL     OW 3263  14.639   7.916   6.564
  477SOL    HW1 3264  14.691   7.837   6.578
  477SOL    HW2 3265  14.607   7.940   6.651
  478SOL     OW 3266   4.459   0.727   6.385
  478SOL    HW1 3267   4.542   0.679   6.383
  478SOL    HW2 3268   4.480   0.813   6.351
  479SOL     OW 3269   3.175   9.270   1.308
  479SOL    HW1 3270   3.265   9.294   1.331
  479SOL    HW2 3271   3.177   9.260   1.213
  480SOL     OW 3272   1.489  10.916   1.088
  480SOL    HW1 3273   1.512  10.930   1.180
  480SOL    HW2 3274   1.539  10.838   1.063
  481SOL     OW 3275   7.620  10.485   7.009
  481SOL    HW1 3276   7.655  10.497   7.097
  481SOL    HW2 3277   7.530  10.456   7.023
  482SOL     OW 3278   2.670  11.642  10.065
  482SOL    HW1 3279   2.660  11.549  10.086
  482SOL    HW2 3280   2.731  11.675  10.131
  483SOL     OW 3281   3.547   6.399   1.962
  483SOL    HW1 3282   3.633   6.367   1.991
  483SOL    HW2 3283   3.561   6.491   1.941
  484SOL     OW 3284   4.763   9.017   6.253
  484SOL    HW1 3285   4.747   8.929   6.218
  484SOL    HW2 3286   4.802   9.003   6.339
  485SOL     OW 3287   2.200   3.116   4.271
  485SOL    HW1 3288   2.121   3.122   4.217
  485SOL    HW2 3289   2.271   3.142   4.214
  486SOL     OW 3290  10.413   2.001   6.632
  486SOL    HW1 3291  10.366   2.062   6.690
  486SOL    HW2 3292  10.424   1.922   6.685
  487SOL     OW 3293   8.582   4.624  13.698
  487SOL    HW1 3294   8.632   4.629  13.616
  487SOL    HW2 3295   8.626   4.684  13.757
  488SOL     OW 3296   9.377   1.531   5.768
  488SOL    HW1 3297   9.281   1.534   5.769
  488SOL    HW2 3298   9.402   1.567   5.683
  489SOL     OW 3299   0.727  11.193   1.169
  489SOL    HW1 3300   0.686  11.189   1.083
  489SOL    HW2 3301   0.665  11.151   1.228
  490SOL     OW 3302   8.057  10.723  10.152
  490SOL    HW1 3303   8.080  10.635  10.183
  490SOL    HW2 3304   8.016  10.708  10.067
  491SOL     OW 3305   4.692   3.317   4.524
  491SOL    HW1 3306   4.686   3.372   4.602
  491SOL    HW2 3307   4.764   3.354   4.473
  492SOL     OW 3308  12.628   7.446  13.417
  492SOL    HW1 3309  12.686   7.396  13.359
  492SOL    HW2 3310  12.681   7.520  13.445
  493SOL     OW 3311   5.163  13.410   1.333
  493SOL    HW1 3312   5.099  13.341   1.315
  493SOL    HW2 3313   5.216  13.414   1.254
  494SOL     OW 3314  10.383   7.849   6.682
  494SOL    HW1 3315  10.383   7.797   6.763
  494SOL    HW2 3316  10.293   7.880   6.674
  495SOL     OW 3317   9.386   2.319   7.503
  495SOL    HW1 3318   9.435   2.378   7.560
  495SOL    HW2 3319   9.452   2.258   7.469
  496SOL     OW 3320   3.214   2.269   1.968
  496SOL    HW1 3321   3.249   2.338   1.912
  496SOL    HW2 3322   3.279   2.257   2.036
  497SOL     OW 3323   9.683   2.619   2.504
  497SOL    HW1 3324   9.767   2.581   2.476
  497SOL    HW2 3325   9.697   2.641   2.597
  498SOL     OW 3326  12.375   7.580   7.648
  498SOL    HW1 3327  12.453   7.634   7.659
  498SOL    HW2 3328  12.391   7.530   7.568
  499SOL     OW 3329   2.776  13.320   3.831
  499SOL    HW1 3330   2.766  13.411   3.859
  499SOL    HW2 3331   2.694  13.278   3.858
  500SOL     OW 3332  14.727   3.051   7.179
  500SOL    HW1 3333  14.703   3.126   7.124
  500SOL    HW2 3334  14.822   3.049   7.177
  501SOL     OW 3335  10.674  12.827   7.556
  501SOL    HW1 3336  10.680  12.919   7.529
  501SOL    HW2 3337  10.708  12.826   7.645
  502SOL     OW 3338   5.900  12.687  13.003
  502SOL    HW1 3339   5.929  12.767  13.047
  502SOL    HW2 3340   5.804  12.695  13.000
  503SOL     OW 3341   4.661  12.332  13.199
  503SOL    HW1 3342   4.580  12.311  13.245
  503SOL    HW2 3343   4.727  12.277  13.240
  504SOL     OW 3344  13.273   7.537   0.353
  504SOL    HW1 3345  13.199   7.516   0.297
  504SOL    HW2 3346  13.285   7.460   0.408
  505SOL     OW 3347   5.757   2.804   9.934
  505SOL    HW1 3348   5.721   2.718   9.953
  505SOL    HW2 3349   5.686   2.851   9.890
  506SOL     OW 3350  11.848  13.576   1.666
  506SOL    HW1 3351  11.831  13.628   1.745
  506SOL    HW2 3352  11.765  13.575   1.619
  507SOL     OW 3353   4.405  11.464   1.093
  507SOL    HW1 3354   4.336  11.400   1.075
  507SOL    HW2 3355   4.460  11.422   1.159
  508SOL     OW 3356   0.639  11.460   5.578
  508SOL    HW1 3357   0.664  11.459   5.485
  508SOL    HW2 3358   0.680  11.382   5.615
  509SOL     OW 3359   6.515   1.455   0.795
  509SOL    HW1 3360   6.497   1.361   0.800
  509SOL    HW2 3361   6.439   1.495   0.838
  510SOL     OW 3362  12.515   3.754   6.735
  510SOL    HW1 3363  12.428   3.759   6.697
  510SOL    HW2 3364  12.553   3.840   6.718
  511SOL     OW 3365   4.837  14.408   6.494
  511SOL    HW1 3366   4.888  14.473   6.446
  511SOL    HW2 3367   4.902  14.362   6.548
  512SOL     OW 3368   6.506   4.699  14.403
  512SOL    HW1 3369   6.419   4.703  14.442
  512SOL    HW2 3370   6.560   4.755  14.460
  513SOL     OW 3371   2.304   4.333   9.894
  513SOL    HW1 3372   2.288   4.344   9.800
  513SOL    HW2 3373   2.392   4.368   9.907
  514SOL     OW 3374   0.476   2.022   2.368
  514SOL    HW1 3375   0.481   2.053   2.277
  514SOL    HW2 3376   0.562   1.983   2.385
  515SOL     OW 3377   4.437   8.576   7.657
  515SOL    HW1 3378   4.400   8.499   7.702
  515SOL    HW2 3379   4.531   8.558   7.652
  516SOL     OW 3380  11.784  11.987   9.469
  516SOL    HW1 3381  11.857  11.928   9.485
  516SOL    HW2 3382  11.747  11.958   9.385
  517SOL     OW 3383   8.190   8.904   7.251
  517SOL    HW1 3384   8.161   8.881   7.163
  517SOL    HW2 3385   8.274   8.948   7.238
  518SOL     OW 3386  10.926   9.299   3.166
  518SOL    HW1 3387  10.992   9.293   3.236
  518SOL    HW2 3388  10.882   9.214   3.167
  519SOL     OW 3389  10.446   1.362   6.953
  519SOL    HW1 3390  10.422   1.292   6.893
  519SOL    HW2 3391  10.371   1.421   6.952
  520SOL     OW 3392  10.887   1.832   9.039
  520SOL    HW1 3393  10.879   1.744   9.003
  520SOL    HW2 3394  10.937   1.881   8.974
  521SOL     OW 3395  14.414   0.549  12.486
  521SOL    HW1 3396  14.365   0.628  12.466
  521SOL    HW2 3397  14.454   0.565  12.571
  522SOL     OW 3398   0.600   8.968  12.655
  522SOL    HW1 3399   0.576   9.043  12.601
  522SOL    HW2 3400   0.586   8.892  12.599
  523SOL     OW 3401  14.600   6.913   5.822
  523SOL    HW1 3402  14.678   6.857   5.829
  523SOL    HW2 3403  14.629   6.998   5.856
  524SOL     OW 3404   0.074  12.117  10.704
  524SOL    HW1 3405   0.063  12.027  10.675
  524SOL    HW2 3406   0.162  12.141  10.677
  525SOL     OW 3407   9.264   0.754   9.168
  525SOL    HW1 3408   9.249   0.807   9.091
  525SOL    HW2 3409   9.185   0.765   9.221
  526SOL     OW 3410  12.275   2.890   2.132
  526SOL    HW1 3411  12.242   2.911   2.219
  526SOL    HW2 3412  12.230   2.809   2.108
  527SOL     OW 3413   9.473   0.763  13.970
  527SOL    HW1 3414   9.455   0.702  14.041
  527SOL    HW2 3415   9.438   0.721  13.892
  528SOL     OW 3416   7.426  14.223  14.225
  528SOL    HW1 3417   7.379  14.158  14.277
  528SOL    HW2 3418   7.366  14.297  14.219
  529SOL     OW 3419   7.780  13.915   3.116
  529SOL    HW1 3420   7.764  13.852   3.045
  529SOL    HW2 3421   7.693  13.948   3.139
  530SOL     OW 3422   9.112   2.219   2.129
  530SOL    HW1 3423   9.069   2.172   2.201
  530SOL    HW2 3424   9.141   2.301   2.168
  531SOL     OW 3425  14.021   8.597  14.423
  531SOL    HW1 3426  14.042   8.548  14.343
  531SOL    HW2 3427  13.939   8.558  14.454
  532SOL     OW 3428   6.687   3.807   6.339
  532SOL    HW1 3429   6.654   3.884   6.385
  532SOL    HW2 3430   6.661   3.821   6.248
  533SOL     OW 3431  10.471   0.486  11.263
  533SOL    HW1 3432  10.434   0.488  11.175
  533SOL    HW2 3433  10.546   0.426  11.255
  534SOL     OW 3434  14.116  10.598   5.844
  534SOL    HW1 3435  14.030  10.573   5.876
  534SOL    HW2 3436  14.109  10.591   5.748
  535SOL     OW 3437   3.375  12.081   1.479
  535SOL    HW1 3438   3.423  12.046   1.554
  535SOL    HW2 3439   3.329  12.005   1.443
  536SOL     OW 3440   4.702   2.932   2.661
  536SOL    HW1 3441   4.725   2.884   2.741
  536SOL    HW2 3442   4.785   2.965   2.627
  537SOL     OW 3443   5.536   7.821   7.472
  537SOL    HW1 3444   5.518   7.743   7.525
  537SOL    HW2 3445   5.474   7.815   7.399
  538SOL     OW 3446   6.473   3.022   8.143
  538SOL    HW1 3447   6.400   2.992   8.090
  538SOL    HW2 3448   6.441   3.103   8.185
  539SOL     OW 3449   2.179  13.431   3.415
  539SOL    HW1 3450   2.142  13.497   3.357
  539SOL    HW2 3451   2.180  13.350   3.363
  540SOL     OW 3452  13.185  11.311   4.927
  540SOL    HW1 3453  13.150  11.348   4.846
  540SOL    HW2 3454  13.250  11.375   4.957
  541SOL     OW 3455   2.080  12.988  12.664
  541SOL    HW1 3456   2.142  12.979  12.737
  541SOL    HW2 3457   2.125  13.042  12.600
  542SOL     OW 3458   8.367  11.512  11.781
  542SOL    HW1 3459   8.298  11.577  11.768
  542SOL    HW2 3460   8.410  11.539  11.862
  543SOL     OW 3461   9.341   4.123   2.797
  543SOL    HW1 3462   9.286   4.101   2.872
  543SOL    HW2 3463   9.295   4.197   2.755
  544SOL     OW 3464   3.693   6.515  11.691
  544SOL    HW1 3465   3.668   6.603  11.664
  544SOL    HW2 3466   3.708   6.468  11.609
  545SOL     OW 3467   5.468   2.099   6.101
  545SOL    HW1 3468   5.476   2.149   6.020
  545SOL    HW2 3469   5.498   2.159   6.169
  546SOL     OW 3470  13.516   3.557  13.414
  546SOL    HW1 3471  13.489   3.484  13.471
  546SOL    HW2 3472  13.546   3.515  13.334
  547SOL     OW 3473  13.583  13.487   1.479
  547SOL    HW1 3474  13.627  13.537   1.410
  547SOL    HW2 3475  13.568  13.551   1.549
  548SOL     OW 3476   8.159  11.632   8.202
  548SOL    HW1 3477   8.069  11.622   8.169
  548SOL    HW2 3478   8.197  11.701   8.147
  549SOL     OW 3479   7.947   3.469   7.352
  549SOL    HW1 3480   7.981   3.380   7.342
  549SOL    HW2 3481   7.863   3.458   7.396
  550SOL     OW 3482  12.479   0.560  12.333
  550SOL    HW1 3483  12.557   0.522  12.292
  550SOL    HW2 3484  12.469   0.646  12.292
  551SOL     OW 3485   9.479   0.683   0.527
  551SOL    HW1 3486   9.455   0.706   0.438
  551SOL    HW2 3487   9.413   0.726   0.582
  552SOL     OW 3488  12.565   0.242   5.581
  552SOL    HW1 3489  12.543   0.152   5.606
  552SOL    HW2 3490  12.575   0.239   5.486
  553SOL     OW 3491  12.073  12.379   1.385
  553SOL    HW1 3492  12.031  12.372   1.470
  553SOL    HW2 3493  12.163  12.407   1.405
  554SOL     OW 3494   3.912  10.906   6.920
  554SOL    HW1 3495   3.940  10.815   6.928
  554SOL    HW2 3496   3.900  10.936   7.010
  555SOL     OW 3497  14.396  14.182  11.633
  555SOL    HW1 3498  14.339  14.204  11.559
  555SOL    HW2 3499  14.455  14.114  11.599
  556SOL     OW 3500   1.413  14.593   6.253
  556SOL    HW1 3501   1.389  14.658   6.187
  556SOL    HW2 3502   1.500  14.563   6.226
  557SOL     OW 3503   4.207   9.387  11.726
  557SOL    HW1 3504   4.207   9.454  11.658
  557SOL    HW2 3505   4.200   9.304  11.678
  558SOL     OW 3506   0.698   3.028   3.171
  558SOL    HW1 3507   0.743   2.993   3.095
  558SOL    HW2 3508   0.705   3.123   3.162
  559SOL     OW 3509  11.957   6.824   5.660
  559SOL    HW1 3510  11.902   6.746   5.652
  559SOL    HW2 3511  11.905   6.894   5.620
  560SOL     OW 3512   9.572  14.172   2.176
  560SOL    HW1 3513   9.488  14.139   2.143
  560SOL    HW2 3514   9.568  14.266   2.160
  561SOL     OW 3515  11.044  10.613   5.129
  561SOL    HW1 3516  10.990  10.618   5.208
  561SOL    HW2 3517  11.055  10.519   5.114
  562SOL     OW 3518  10.764   6.917   8.103
  562SOL    HW1 3519  10.718   6.973   8.040
  562SOL    HW2 3520  10.799   6.978   8.168
  563SOL     OW 3521   7.971   8.504   2.278
  563SOL    HW1 3522   8.007   8.502   2.366
  563SOL    HW2 3523   7.902   8.571   2.281
  564SOL     OW 3524   1.610   3.909   9.268
  564SOL    HW1 3525   1.611   3.992   9.220
  564SOL    HW2 3526   1.522   3.905   9.307
  565SOL     OW 3527   0.436   1.870   8.257
  565SOL    HW1 3528   0.360   1.850   8.313
  565SOL    HW2 3529   0.489   1.930   8.310
  566SOL     OW 3530   4.280  10.912  11.451
  566SOL    HW1 3531   4.267  11.005  11.432
  566SOL    HW2 3532   4.307  10.909  11.542
  567SOL     OW 3533  10.234   2.853   8.999
  567SOL    HW1 3534  10.328   2.868   8.991
  567SOL    HW2 3535  10.205   2.914   9.067
  568SOL     OW 3536   9.182   5.540  13.737
  568SOL    HW1 3537   9.204   5.448  13.727
  568SOL    HW2 3538   9.114   5.541  13.804
  569SOL     OW 3539   5.870  11.494   8.673
  569SOL    HW1 3540   5.885  11.458   8.586
  569SOL    HW2 3541   5.851  11.418   8.728
  570SOL     OW 3542   3.967   8.500   1.474
  570SOL    HW1 3543   3.962   8.465   1.385
  570SOL    HW2 3544   3.936   8.428   1.529
  571SOL     OW 3545   9.387   3.762   6.245
  571SOL    HW1 3546   9.426   3.844   6.274
  571SOL    HW2 3547   9.418   3.750   6.155
  572SOL     OW 3548  14.079  10.778   1.510
  572SOL    HW1 3549  14.112  10.832   1.438
  572SOL    HW2 3550  14.139  10.797   1.583
  573SOL     OW 3551   8.519   5.530   8.504
  573SOL    HW1 3552   8.576   5.579   8.564
  573SOL    HW2 3553   8.579   5.495   8.437
  574SOL     OW 3554   7.943  10.084   0.618
  574SOL    HW1 3555   7.917  10.095   0.527
  574SOL    HW2 3556   7.861  10.066   0.664
  575SOL     OW 3557   9.692   1.608   4.400
  575SOL    HW1 3558   9.760   1.630   4.337
  575SOL    HW2 3559   9.657   1.524   4.370
  576SOL     OW 3560   2.277   7.264   7.962
  576SOL    HW1 3561   2.188   7.299   7.967
  576SOL    HW2 3562   2.293   7.251   7.869
  577SOL     OW 3563   7.669   7.965   7.964
  577SOL    HW1 3564   7.677   7.884   7.914
  577SOL    HW2 3565   7.714   8.030   7.910
  578SOL     OW 3566  11.503   7.036  13.133
  578SOL    HW1 3567  11.593   7.067  13.122
  578SOL    HW2 3568  11.475   7.074  13.216
  579SOL     OW 3569   7.520  10.708   0.849
  579SOL    HW1 3570   7.506  10.747   0.935
  579SOL    HW2 3571   7.605  10.664   0.856
  580SOL     OW 3572  14.115   8.941   4.720
  580SOL    HW1 3573  14.138   9.031   4.743
  580SOL    HW2 3574  14.024   8.945   4.694
  581SOL     OW 3575   2.217  12.955  11.697
  581SOL    HW1 3576   2.208  12.908  11.614
  581SOL    HW2 3577   2.134  13.002  11.706
  582SOL     OW 3578   5.631   0.925   3.237
  582SOL    HW1 3579   5.696   0.893   3.174
  582SOL    HW2 3580   5.682   0.961   3.308
  583SOL     OW 3581  13.891   5.153  10.601
  583SOL    HW1 3582  13.840   5.072  10.593
  583SOL    HW2 3583  13.982   5.123  10.605
  584SOL     OW 3584   3.748   8.151  11.715
  584SOL    HW1 3585   3.799   8.178  11.638
  584SOL    HW2 3586   3.661   8.131  11.681
  585SOL     OW 3587  13.901   3.778  11.412
  585SOL    HW1 3588  13.811   3.789  11.382
  585SOL    HW2 3589  13.897   3.701  11.469
  586SOL     OW 3590   1.077  10.074   6.072
  586SOL    HW1 3591   1.166  10.107   6.083
  586SOL    HW2 3592   1.081  10.021   5.992
  587SOL     OW 3593   6.948   5.123  13.824
  587SOL    HW1 3594   6.982   5.041  13.790
  587SOL    HW2 3595   6.899   5.160  13.751
  588SOL     OW 3596   2.612   1.905   1.700
  588SOL    HW1 3597   2.582   1.970   1.763
  588SOL    HW2 3598   2.559   1.828   1.717
  589SOL     OW 3599   1.659   3.836   4.733
  589SOL    HW1 3600   1.716   3.906   4.766
  589SOL    HW2 3601   1.706   3.755   4.754
  590SOL     OW 3602   7.179   4.489   8.221
  590SOL    HW1 3603   7.201   4.470   8.312
  590SOL    HW2 3604   7.147   4.579   8.223
  591SOL     OW 3605  11.922   9.152  14.523
  591SOL    HW1 3606  11.929   9.065  14.483
  591SOL    HW2 3607  11.837   9.150  14.568
  592SOL     OW 3608   2.670  14.410  14.151
  592SOL    HW1 3609   2.580  14.432  14.127
  592SOL    HW2 3610   2.664  14.322  14.189
  593SOL     OW 3611  14.719  11.889  11.246
  593SOL    HW1 3612  14.797  11.840  11.275
  593SOL    HW2 3613  14.735  11.979  11.275
  594SOL     OW 3614   7.172  12.229   6.462
  594SOL    HW1 3615   7.181  12.182   6.545
  594SOL    HW2 3616   7.125  12.309   6.485
  595SOL     OW 3617   5.385   8.676   0.001
  595SOL    HW1 3618   5.403   8.616   0.073
  595SOL    HW2 3619   5.320   8.630  14.820
  596SOL     OW 3620   5.246   6.838  10.364
  596SOL    HW1 3621   5.206   6.815  10.448
  596SOL    HW2 3622   5.268   6.931  10.373
  597SOL     OW 3623   9.536  14.344   4.721
  597SOL    HW1 3624   9.619  14.383   4.698
  597SOL    HW2 3625   9.473  14.416   4.719
  598SOL     OW 3626  11.329   7.315   7.529
  598SOL    HW1 3627  11.382   7.335   7.606
  598SOL    HW2 3628  11.389   7.271   7.469
  599SOL     OW 3629   3.333   9.575   1.189
  599SOL    HW1 3630   3.356   9.569   1.096
  599SOL    HW2 3631   3.368   9.495   1.228
  600SOL     OW 3632  14.577   7.392   9.488
  600SOL    HW1 3633  14.626   7.326   9.438
  600SOL    HW2 3634  14.573   7.468   9.429
  601SOL     OW 3635  13.209  10.177   1.989
  601SOL    HW1 3636  13.303  10.158   1.990
  601SOL    HW2 3637  13.191  10.213   2.076
  602SOL     OW 3638   3.258   5.984   2.093
  602SOL    HW1 3639   3.314   6.060   2.082
  602SOL    HW2 3640   3.177   6.007   2.047
  603SOL     OW 3641   4.026   1.734   4.217
  603SOL    HW1 3642   4.093   1.769   4.159
  603SOL    HW2 3643   4.051   1.764   4.305
  604SOL     OW 3644   2.179   4.623  12.242
  604SOL    HW1 3645   2.213   4.548  12.291
  604SOL    HW2 3646   2.227   4.621  12.159
  605SOL     OW 3647   8.301  12.888   4.099
  605SOL    HW1 3648   8.275  12.966   4.050
  605SOL    HW2 3649   8.320  12.921   4.187
  606SOL     OW 3650   6.745   9.094  10.146
  606SOL    HW1 3651   6.763   9.181  10.180
  606SOL    HW2 3652   6.797   9.035  10.201
  607SOL     OW 3653  10.316   7.844   1.921
  607SOL    HW1 3654  10.310   7.895   1.840
  607SOL    HW2 3655  10.254   7.772   1.908
  608SOL     OW 3656  11.979  13.936   6.957
  608SOL    HW1 3657  12.070  13.944   6.929
  608SOL    HW2 3658  11.932  13.909   6.878
  609SOL     OW 3659   5.900  10.546   7.057
  609SOL    HW1 3660   5.904  10.641   7.046
  609SOL    HW2 3661   5.809  10.524   7.038
  610SOL     OW 3662   4.542   0.999   6.255
  610SOL    HW1 3663   4.491   1.075   6.228
  610SOL    HW2 3664   4.600   0.981   6.181
  611SOL     OW 3665   7.446   5.890   3.905
  611SOL    HW1 3666   7.399   5.950   3.848
  611SOL    HW2 3667   7.388   5.875   3.979
  612SOL     OW 3668   7.842   0.749  10.741
  612SOL    HW1 3669   7.776   0.686  10.772
  612SOL    HW2 3670   7.864   0.719  10.653
  613SOL     OW 3671   4.428   6.130   1.642
  613SOL    HW1 3672   4.339   6.126   1.678
  613SOL    HW2 3673   4.436   6.221   1.611
  614SOL     OW 3674  10.141   4.908   9.832
  614SOL    HW1 3675  10.113   4.992   9.795
  614SOL    HW2 3676  10.147   4.850   9.756
  615SOL     OW 3677  12.003   2.451  11.906
  615SOL    HW1 3678  11.932   2.402  11.948
  615SOL    HW2 3679  11.959   2.506  11.841
  616SOL     OW 3680   5.995  14.817   5.107
  616SOL    HW1 3681   5.956  14.748   5.161
  616SOL    HW2 3682   6.069  14.774   5.064
  617SOL     OW 3683  13.389   2.745   1.381
  617SOL    HW1 3684  13.372   2.651   1.383
  617SOL    HW2 3685  13.376   2.771   1.290
  618SOL     OW 3686   9.855   7.877   8.257
  618SOL    HW1 3687   9.826   7.837   8.339
  618SOL    HW2 3688   9.892   7.804   8.207
  619SOL     OW 3689   7.322   1.743   4.750
  619SOL    HW1 3690   7.255   1.810   4.757
  619SOL    HW2 3691   7.372   1.749   4.832
  620SOL     OW 3692   3.212   1.932  12.992
  620SOL    HW1 3693   3.279   1.866  12.978
  620SOL    HW2 3694   3.188   1.961  12.904
  621SOL     OW 3695   4.034   2.119  11.728
  621SOL    HW1 3696   3.996   2.050  11.782
  621SOL    HW2 3697   4.098   2.074  11.673
  622SOL     OW 3698   7.284   6.563  14.193
  622SOL    HW1 3699   7.302   6.542  14.102
  622SOL    HW2 3700   7.258   6.480  14.233
  623SOL     OW 3701   1.649   7.141  12.406
  623SOL    HW1 3702   1.739   7.174  12.403
  623SOL    HW2 3703   1.603   7.190  12.337
  624SOL     OW 3704   7.580   0.807   6.922
  624SOL    HW1 3705   7.667   0.845   6.909
  624SOL    HW2 3706   7.527   0.845   6.853
  625SOL     OW 3707   6.440   1.622   8.632
  625SOL    HW1 3708   6.506   1.611   8.700
  625SOL    HW2 3709   6.428   1.717   8.625
  626SOL     OW 3710  12.974   2.478  11.482
  626SOL    HW1 3711  12.962   2.396  11.435
  626SOL    HW2 3712  12.917   2.541  11.438
  627SOL     OW 3713  12.853   8.078  12.854
  627SOL    HW1 3714  12.812   8.163  12.838
  627SOL    HW2 3715  12.785   8.014  12.834
  628SOL     OW 3716   8.221  12.110  10.149
  628SOL    HW1 3717   8.269  12.152  10.220
  628SOL    HW2 3718   8.158  12.053  10.193
  629SOL     OW 3719  13.380  10.878  12.095
  629SOL    HW1 3720  13.365  10.784  12.110
  629SOL    HW2 3721  13.334  10.896  12.013
  630SOL     OW 3722   7.795   9.992   8.371
  630SOL    HW1 3723   7.781   9.960   8.282
  630SOL    HW2 3724   7.812   9.913   8.422
  631SOL     OW 3725  12.738   8.127   9.376
  631SOL    HW1 3726  12.810   8.184   9.403
  631SOL    HW2 3727  12.770   8.039   9.393
  632SOL     OW 3728   4.612   4.971   3.378
  632SOL    HW1 3729   4.560   4.891   3.387
  632SOL    HW2 3730   4.684   4.946   3.321
  633SOL     OW 3731  14.494   1.284   2.187
  633SOL    HW1 3732  14.416   1.261   2.136
  633SOL    HW2 3733  14.498   1.218   2.256
  634SOL     OW 3734  10.578   2.279   3.305
  634SOL    HW1 3735  10.651   2.322   3.259
  634SOL    HW2 3736  10.568   2.195   3.260
  635SOL     OW 3737   3.384   6.010  12.132
  635SOL    HW1 3738   3.374   6.055  12.049
  635SOL    HW2 3739   3.334   5.929  12.122
  636SOL     OW 3740   8.112   2.540   9.300
  636SOL    HW1 3741   8.080   2.453   9.276
  636SOL    HW2 3742   8.147   2.529   9.389
  637SOL     OW 3743  13.705   1.725   6.753
  637SOL    HW1 3744  13.673   1.816   6.757
  637SOL    HW2 3745  13.700   1.702   6.661
  638SOL     OW 3746   7.812   1.685   9.840
  638SOL    HW1 3747   7.783   1.745   9.909
  638SOL    HW2 3748   7.799   1.598   9.878
  639SOL     OW 3749   5.037  10.767   9.067
  639SOL    HW1 3750   4.982  10.844   9.053
  639SOL    HW2 3751   5.126  10.801   9.065
  640SOL     OW 3752   0.201   5.104   8.996
  640SOL    HW1 3753   0.124   5.100   9.054
  640SOL    HW2 3754   0.219   5.013   8.975
  641SOL     OW 3755   6.774   0.128   8.546
  641SOL    HW1 3756   6.746   0.044   8.508
  641SOL    HW2 3757   6.867   0.134   8.526
  642SOL     OW 3758   7.116   8.580   0.313
  642SOL    HW1 3759   7.204   8.580   0.276
  642SOL    HW2 3760   7.096   8.672   0.328
  643SOL     OW 3761   1.345  11.500   7.968
  643SOL    HW1 3762   1.410  11.570   7.963
  643SOL    HW2 3763   1.272  11.530   7.913
  644SOL     OW 3764   8.284  12.802   0.567
  644SOL    HW1 3765   8.232  12.806   0.487
  644SOL    HW2 3766   8.225  12.764   0.632
  645SOL     OW 3767   9.381   3.365   3.157
  645SOL    HW1 3768   9.471   3.352   3.127
  645SOL    HW2 3769   9.326   3.327   3.088
  646SOL     OW 3770   1.381  10.762   5.206
  646SOL    HW1 3771   1.446  10.717   5.152
  646SOL    HW2 3772   1.377  10.709   5.286
  647SOL     OW 3773   9.670   3.817   9.268
  647SOL    HW1 3774   9.638   3.905   9.288
  647SOL    HW2 3775   9.716   3.826   9.185
  648SOL     OW 3776  13.998   1.946  11.196
  648SOL    HW1 3777  14.034   1.857  11.204
  648SOL    HW2 3778  14.073   2.000  11.172
  649SOL     OW 3779  11.487   9.562  10.699
  649SOL    HW1 3780  11.480   9.466  10.702
  649SOL    HW2 3781  11.548   9.579  10.627
  650SOL     OW 3782  13.664   8.153  10.344
  650SOL    HW1 3783  13.753   8.179  10.366
  650SOL    HW2 3784  13.629   8.228  10.295
  651SOL     OW 3785   4.476   5.962  12.618
  651SOL    HW1 3786   4.387   5.956  12.653
  651SOL    HW2 3787   4.529   5.992  12.692
  652SOL     OW 3788   5.666   8.500   0.698
  652SOL    HW1 3789   5.701   8.587   0.715
  652SOL    HW2 3790   5.743   8.443   0.697
  653SOL     OW 3791   9.841   2.411   2.886
  653SOL    HW1 3792   9.930   2.426   2.919
  653SOL    HW2 3793   9.784   2.448   2.954
  654SOL     OW 3794  13.754   0.711   9.199
  654SOL    HW1 3795  13.845   0.739   9.186
  654SOL    HW2 3796  13.701   0.783   9.165
  655SOL     OW 3797   4.892   9.593   9.864
  655SOL    HW1 3798   4.968   9.650   9.866
  655SOL    HW2 3799   4.861   9.591   9.955
  656SOL     OW 3800   0.643   3.978   8.008
  656SOL    HW1 3801   0.733   3.984   7.976
  656SOL    HW2 3802   0.594   4.039   7.954
  657SOL     OW 3803   7.658   8.209  12.329
  657SOL    HW1 3804   7.633   8.127  12.371
  657SOL    HW2 3805   7.706   8.183  12.251
  658SOL     OW 3806   9.774   1.827  10.389
  658SOL    HW1 3807   9.846   1.779  10.349
  658SOL    HW2 3808   9.816   1.897  10.439
  659SOL     OW 3809   7.395   9.054   2.794
  659SOL    HW1 3810   7.426   8.965   2.781
  659SOL    HW2 3811   7.324   9.046   2.857
  660SOL     OW 3812  10.773   6.333   0.090
  660SOL    HW1 3813  10.845   6.285   0.129
  660SOL    HW2 3814  10.694   6.291   0.123
  661SOL     OW 3815   6.405   3.859   7.531
  661SOL    HW1 3816   6.373   3.771   7.554
  661SOL    HW2 3817   6.414   3.857   7.436
  662SOL     OW 3818   8.107   4.092   8.204
  662SOL    HW1 3819   8.155   4.144   8.268
  662SOL    HW2 3820   8.169   4.025   8.175
  663SOL     OW 3821   5.326  14.048  14.509
  663SOL    HW1 3822   5.311  13.972  14.453
  663SOL    HW2 3823   5.306  14.017  14.597
  664SOL     OW 3824  11.072  11.978  11.294
  664SOL    HW1 3825  11.083  12.030  11.374
  664SOL    HW2 3826  11.160  11.949  11.272
  665SOL     OW 3827  13.329   5.679   2.732
  665SOL    HW1 3828  13.286   5.613   2.785
  665SOL    HW2 3829  13.269   5.753   2.731
  666SOL     OW 3830   8.124   9.046  11.659
  666SOL    HW1 3831   8.082   8.962  11.642
  666SOL    HW2 3832   8.055   9.111  11.645
  667SOL     OW 3833   9.690   9.357  13.901
  667SOL    HW1 3834   9.643   9.275  13.921
  667SOL    HW2 3835   9.765   9.329  13.848
  668SOL     OW 3836  13.501   7.709   0.397
  668SOL    HW1 3837  13.534   7.667   0.477
  668SOL    HW2 3838  13.439   7.645   0.361
  669SOL     OW 3839  13.275   3.188   5.683
  669SOL    HW1 3840  13.343   3.244   5.645
  669SOL    HW2 3841  13.318   3.145   5.757
  670SOL     OW 3842   0.150  10.537   9.643
  670SOL    HW1 3843   0.101  10.462   9.609
  670SOL    HW2 3844   0.169  10.590   9.565
  671SOL     OW 3845   9.587   8.653   4.983
  671SOL    HW1 3846   9.650   8.628   5.051
  671SOL    HW2 3847   9.502   8.635   5.021
  672SOL     OW 3848   0.061   1.096   0.291
  672SOL    HW1 3849   0.037   1.015   0.335
  672SOL    HW2 3850  14.849   1.136   0.269
  673SOL     OW 3851   5.521   2.515  13.978
  673SOL    HW1 3852   5.457   2.454  13.941
  673SOL    HW2 3853   5.468   2.588  14.011
  674SOL     OW 3854   0.745  12.294   9.417
  674SOL    HW1 3855   0.707  12.222   9.466
  674SOL    HW2 3856   0.820  12.255   9.372
  675SOL     OW 3857   0.864  11.980  12.434
  675SOL    HW1 3858   0.775  11.967  12.400
  675SOL    HW2 3859   0.857  12.059  12.488
  676SOL     OW 3860   6.986  12.888  14.595
  676SOL    HW1 3861   6.957  12.970  14.554
  676SOL    HW2 3862   7.047  12.850  14.531
  677SOL     OW 3863  10.349  13.588   9.781
  677SOL    HW1 3864  10.402  13.581   9.702
  677SOL    HW2 3865  10.374  13.512   9.834
  678SOL     OW 3866   1.834   8.196  10.222
  678SOL    HW1 3867   1.908   8.186  10.282
  678SOL    HW2 3868   1.812   8.107  10.196
  679SOL     OW 3869   6.541  14.636   7.881
  679SOL    HW1 3870   6.607  14.581   7.923
  679SOL    HW2 3871   6.591  14.697   7.827
  680SOL     OW 3872   7.810   2.033  10.963
  680SOL    HW1 3873   7.733   2.052  11.016
  680SOL    HW2 3874   7.777   1.981  10.890
  681SOL     OW 3875   5.997  13.509  13.752
  681SOL    HW1 3876   6.053  13.485  13.678
  681SOL    HW2 3877   6.039  13.586  13.789
  682SOL     OW 3878   6.733  12.288  12.426
  682SOL    HW1 3879   6.664  12.350  12.403
  682SOL    HW2 3880   6.709  12.207  12.382
  683SOL     OW 3881   9.462  10.748  14.476
  683SOL    HW1 3882   9.419  10.823  14.516
  683SOL    HW2 3883   9.538  10.784  14.431
  684SOL     OW 3884  12.714   7.850   5.909
  684SOL    HW1 3885  12.728   7.774   5.966
  684SOL    HW2 3886  12.627   7.835   5.871
  685SOL     OW 3887   3.330   4.087  13.684
  685SOL    HW1 3888   3.285   4.144  13.746
  685SOL    HW2 3889   3.399   4.141  13.646
  686SOL     OW 3890  10.405  11.027   6.336
  686SOL    HW1 3891  10.324  11.004   6.380
  686SOL    HW2 3892  10.395  11.118   6.311
  687SOL     OW 3893   8.236   3.874   5.028
  687SOL    HW1 3894   8.292   3.932   5.079
  687SOL    HW2 3895   8.295   3.806   4.996
  688SOL     OW 3896   8.135   0.263   0.637
  688SOL    HW1 3897   8.162   0.277   0.728
  688SOL    HW2 3898   8.189   0.324   0.587
  689SOL     OW 3899   7.385   9.398   4.922
  689SOL    HW1 3900   7.357   9.325   4.866
  689SOL    HW2 3901   7.361   9.477   4.873
  690SOL     OW 3902   0.223   1.652   7.822
  690SOL    HW1 3903   0.129   1.641   7.834
  690SOL    HW2 3904   0.261   1.570   7.853
  691SOL     OW 3905   5.687   6.195   5.250
  691SOL    HW1 3906   5.628   6.262   5.285
  691SOL    HW2 3907   5.651   6.112   5.283
  692SOL     OW 3908  14.072  12.070   2.398
  692SOL    HW1 3909  14.102  12.160   2.411
  692SOL    HW2 3910  14.045  12.068   2.306
  693SOL     OW 3911  13.082  11.756  14.774
  693SOL    HW1 3912  12.991  11.767  14.747
  693SOL    HW2 3913  13.133  11.802  14.708
  694SOL     OW 3914   0.029  11.749   1.643
  694SOL    HW1 3915   0.095  11.805   1.683
  694SOL    HW2 3916   0.043  11.758   1.549
  695SOL     OW 3917  14.369   7.970   8.587
  695SOL    HW1 3918  14.340   8.051   8.630
  695SOL    HW2 3919  14.402   7.916   8.659
  696SOL     OW 3920   1.446  13.247   8.102
  696SOL    HW1 3921   1.445  13.153   8.083
  696SOL    HW2 3922   1.479  13.254   8.192
  697SOL     OW 3923   6.715   9.716   4.448
  697SOL    HW1 3924   6.643   9.684   4.502
  697SOL    HW2 3925   6.749   9.792   4.495
  698SOL     OW 3926   5.957   5.419  11.259
  698SOL    HW1 3927   5.986   5.464  11.180
  698SOL    HW2 3928   5.907   5.484  11.308
  699SOL     OW 3929   0.945   7.176   5.009
  699SOL    HW1 3930   0.905   7.231   5.076
  699SOL    HW2 3931   1.020   7.227   4.978
  700SOL     OW 3932   5.926   6.223  11.303
  700SOL    HW1 3933   5.910   6.289  11.236
  700SOL    HW2 3934   5.867   6.150  11.279
  701SOL     OW 3935   4.301  10.813   8.418
  701SOL    HW1 3936   4.274  10.768   8.338
  701SOL    HW2 3937   4.289  10.748   8.487
  702SOL     OW 3938   0.803   7.122   1.314
  702SOL    HW1 3939   0.715   7.159   1.326
  702SOL    HW2 3940   0.789   7.042   1.263
  703SOL     OW 3941  14.034   7.763   6.748
  703SOL    HW1 3942  14.124   7.785   6.726
  703SOL    HW2 3943  14.042   7.706   6.825
  704SOL     OW 3944  12.587   7.216   5.913
  704SOL    HW1 3945  12.605   7.154   5.983
  704SOL    HW2 3946  12.608   7.169   5.833
  705SOL     OW 3947   8.679   5.160   6.595
  705SOL    HW1 3948   8.715   5.081   6.555
  705SOL    HW2 3949   8.724   5.166   6.680
  706SOL     OW 3950   5.934   0.577  14.760
  706SOL    HW1 3951   6.028   0.585  14.746
  706SOL    HW2 3952   5.924   0.574  14.855
  707SOL     OW 3953   6.439   9.581  10.883
  707SOL    HW1 3954   6.509   9.523  10.851
  707SOL    HW2 3955   6.436   9.652  10.819
  708SOL     OW 3956  14.683   4.081  11.409
  708SOL    HW1 3957  14.710   4.015  11.473
  708SOL    HW2 3958  14.673   4.032  11.327
  709SOL     OW 3959  13.420   2.360   7.133
  709SOL    HW1 3960  13.342   2.321   7.173
  709SOL    HW2 3961  13.469   2.396   7.207
  710SOL     OW 3962  10.839   5.971   0.315
  710SOL    HW1 3963  10.786   5.995   0.391
  710SOL    HW2 3964  10.776   5.937   0.252
  711SOL     OW 3965   1.007   6.302  12.600
  711SOL    HW1 3966   0.925   6.302  12.551
  711SOL    HW2 3967   0.984   6.262  12.684
  712SOL     OW 3968   7.343  14.487   0.495
  712SOL    HW1 3969   7.315  14.447   0.412
  712SOL    HW2 3970   7.314  14.578   0.489
  713SOL     OW 3971   1.443   8.651   5.458
  713SOL    HW1 3972   1.425   8.677   5.367
  713SOL    HW2 3973   1.402   8.720   5.511
  714SOL     OW 3974  11.427  12.933   2.121
  714SOL    HW1 3975  11.510  12.892   2.098
  714SOL    HW2 3976  11.435  13.023   2.090
  715SOL     OW 3977   9.565   0.420   4.755
  715SOL    HW1 3978   9.564   0.349   4.690
  715SOL    HW2 3979   9.584   0.376   4.838
  716SOL     OW 3980  14.803   7.344  10.153
  716SOL    HW1 3981  14.726   7.365  10.206
  716SOL    HW2 3982  14.787   7.255  10.123
  717SOL     OW 3983   4.361   7.289  14.380
  717SOL    HW1 3984   4.315   7.306  14.297
  717SOL    HW2 3985   4.420   7.363  14.390
  718SOL     OW 3986   8.583   7.328   5.088
  718SOL    HW1 3987   8.626   7.275   5.021
  718SOL    HW2 3988   8.511   7.274   5.119
  719SOL     OW 3989   4.559   8.287   4.978
  719SOL    HW1 3990   4.568   8.378   5.005
  719SOL    HW2 3991   4.480   8.286   4.924
  720SOL     OW 3992  10.125  10.992   9.678
  720SOL    HW1 3993  10.121  11.087   9.674
  720SOL    HW2 3994  10.156  10.973   9.767
  721SOL     OW 3995  13.807   4.247   3.639
  721SOL    HW1 3996  13.787   4.232   3.732
  721SOL    HW2 3997  13.795   4.342   3.628
  722SOL     OW 3998   6.710   7.838   2.878
  722SOL    HW1 3999   6.794   7.883   2.883
  722SOL    HW2 4000   6.646   7.902   2.911
  723SOL     OW 4001   8.407  13.432  10.107
  723SOL    HW1 4002   8.499  13.456  10.096
  723SOL    HW2 4003   8.362  13.472  10.033
  724SOL     OW 4004  13.938  10.606   2.933
  724SOL    HW1 4005  13.984  10.537   2.886
  724SOL    HW2 4006  14.005  10.673   2.948
  725SOL     OW 4007   6.781   7.979   2.610
  725SOL    HW1 4008   6.850   8.041   2.586
  725SOL    HW2 4009   6.785   7.975   2.706
  726SOL     OW 4010   0.387  12.297   5.775
  726SOL    HW1 4011   0.411  12.285   5.867
  726SOL    HW2 4012   0.292  12.289   5.773
  727SOL     OW 4013  10.098   3.337   1.093
  727SOL    HW1 4014  10.128   3.374   1.176
  727SOL    HW2 4015  10.152   3.378   1.027
  728SOL     OW 4016   0.707   1.439   1.378
  728SOL    HW1 4017   0.633   1.379   1.385
  728SOL    HW2 4018   0.688   1.492   1.301
  729SOL     OW 4019   2.931  13.901  14.522
  729SOL    HW1 4020   2.932  13.967  14.591
  729SOL    HW2 4021   2.855  13.846  14.542
  730SOL     OW 4022   9.336   4.211  11.227
  730SOL    HW1 4023   9.380   4.140  11.181
  730SOL    HW2 4024   9.342   4.286  11.168
  731SOL     OW 4025  10.488   0.933  10.081
  731SOL    HW1 4026  10.523   1.018  10.108
  731SOL    HW2 4027  10.501   0.876  10.157
  732SOL     OW 4028  14.067   4.905   5.182
  732SOL    HW1 4029  14.076   4.997   5.207
  732SOL    HW2 4030  14.146   4.886   5.132
  733SOL     OW 4031   4.584   1.518  12.119
  733SOL    HW1 4032   4.526   1.472  12.179
  733SOL    HW2 4033   4.535   1.595  12.091
  734SOL     OW 4034   3.447   4.835   6.457
  734SOL    HW1 4035   3.512   4.905   6.449
  734SOL    HW2 4036   3.386   4.851   6.385
  735SOL     OW 4037   9.870   0.438   6.799
  735SOL    HW1 4038   9.894   0.498   6.728
  735SOL    HW2 4039   9.857   0.494   6.875
  736SOL     OW 4040   6.651   0.952  14.723
  736SOL    HW1 4041   6.712   0.925  14.654
  736SOL    HW2 4042   6.707   0.968  14.799
  737SOL     OW 4043   5.810   8.671  12.731
  737SOL    HW1 4044   5.807   8.741  12.797
  737SOL    HW2 4045   5.784   8.714  12.649
  738SOL     OW 4046   1.926   9.944   0.720
  738SOL    HW1 4047   1.842   9.912   0.752
  738SOL    HW2 4048   1.978   9.865   0.706
  739SOL     OW 4049   3.033   8.301   1.240
  739SOL    HW1 4050   2.968   8.266   1.300
  739SOL    HW2 4051   3.075   8.225   1.201
  740SOL     OW 4052  12.580   0.345   8.995
  740SOL    HW1 4053  12.662   0.336   9.044
  740SOL    HW2 4054  12.534   0.263   9.009
  741SOL     OW 4055   9.138   4.441   5.413
  741SOL    HW1 4056   9.190   4.494   5.353
  741SOL    HW2 4057   9.048   4.471   5.400
  742SOL     OW 4058  11.278   0.900  12.834
  742SOL    HW1 4059  11.299   0.819  12.880
  742SOL    HW2 4060  11.363   0.944  12.825
  743SOL     OW 4061   6.787  11.118   6.979
  743SOL    HW1 4062   6.865  11.124   7.034
  743SOL    HW2 4063   6.784  11.026   6.952
  744SOL     OW 4064   2.603  11.096   0.161
  744SOL    HW1 4065   2.697  11.084   0.147
  744SOL    HW2 4066   2.596  11.140   0.246
  745SOL     OW 4067   3.045   5.777  12.841
  745SOL    HW1 4068   3.059   5.811  12.753
  745SOL    HW2 4069   3.017   5.686  12.827
  746SOL     OW 4070   2.636   8.708   7.797
  746SOL    HW1 4071   2.635   8.682   7.889
  746SOL    HW2 4072   2.611   8.629   7.750
  747SOL     OW 4073   0.980   5.675  14.398
  747SOL    HW1 4074   0.910   5.633  14.348
  747SOL    HW2 4075   0.971   5.768  14.379
  748SOL     OW 4076  11.132   0.333   1.568
  748SOL    HW1 4077  11.191   0.340   1.493
  748SOL    HW2 4078  11.147   0.413   1.618
  749SOL     OW 4079   3.797   9.098  11.629
  749SOL    HW1 4080   3.795   9.174  11.687
  749SOL    HW2 4081   3.705   9.080  11.611
  750SOL     OW 4082   9.267   9.960  11.317
  750SOL    HW1 4083   9.289  10.049  11.290
  750SOL    HW2 4084   9.250   9.914  11.235
  751SOL     OW 4085   2.260   5.195  10.356
  751SOL    HW1 4086   2.264   5.156  10.269
  751SOL    HW2 4087   2.314   5.138  10.411
  752SOL     OW 4088  13.004   2.354   9.083
  752SOL    HW1 4089  12.929   2.386   9.132
  752SOL    HW2 4090  13.067   2.426   9.083
  753SOL     OW 4091   1.920   7.818  13.664
  753SOL    HW1 4092   2.007   7.778  13.665
  753SOL    HW2 4093   1.925   7.886  13.732
  754SOL     OW 4094   9.328   5.573   5.828
  754SOL    HW1 4095   9.242   5.533   5.842
  754SOL    HW2 4096   9.354   5.605   5.914
  755SOL     OW 4097   1.553   5.493  11.514
  755SOL    HW1 4098   1.550   5.424  11.448
  755SOL    HW2 4099   1.607   5.457  11.584
  756SOL     OW 4100  14.837  10.289   7.568
  756SOL    HW1 4101   0.037  10.250   7.617
  756SOL    HW2 4102  14.768  10.300   7.634
  757SOL     OW 4103  14.202  10.843  11.189
  757SOL    HW1 4104  14.162  10.787  11.255
  757SOL    HW2 4105  14.259  10.903  11.238
  758SOL     OW 4106   2.330   1.829   6.915
  758SOL    HW1 4107   2.254   1.786   6.874
  758SOL    HW2 4108   2.374   1.874   6.842
  759SOL     OW 4109  11.886   2.244  12.070
  759SOL    HW1 4110  11.931   2.170  12.030
  759SOL    HW2 4111  11.845   2.208  12.148
  760SOL     OW 4112   6.894   2.732   4.452
  760SOL    HW1 4113   6.814   2.761   4.494
  760SOL    HW2 4114   6.931   2.668   4.513
  761SOL     OW 4115   1.869   0.336   7.645
  761SOL    HW1 4116   1.875   0.383   7.562
  761SOL    HW2 4117   1.791   0.281   7.636
  762SOL     OW 4118  11.395   5.838  13.075
  762SOL    HW1 4119  11.340   5.839  12.998
  762SOL    HW2 4120  11.436   5.925  13.077
  763SOL     OW 4121   3.908  10.154  12.801
  763SOL    HW1 4122   3.986  10.132  12.851
  763SOL    HW2 4123   3.934  10.229  12.746
  764SOL     OW 4124   4.982   6.101   8.682
  764SOL    HW1 4125   4.933   6.023   8.708
  764SOL    HW2 4126   5.026   6.076   8.602
  765SOL     OW 4127   6.579   2.027  14.700
  765SOL    HW1 4128   6.494   2.068  14.683
  765SOL    HW2 4129   6.608   1.998  14.613
  766SOL     OW 4130   8.679  10.492   2.244
  766SOL    HW1 4131   8.623  10.423   2.280
  766SOL    HW2 4132   8.617  10.557   2.209
  767SOL     OW 4133   3.230   0.987   6.304
  767SOL    HW1 4134   3.173   0.989   6.381
  767SOL    HW2 4135   3.213   1.070   6.259
  768SOL     OW 4136   9.950   0.755   3.603
  768SOL    HW1 4137   9.891   0.686   3.570
  768SOL    HW2 4138  10.038   0.724   3.582
  769SOL     OW 4139  13.438  13.980   9.462
  769SOL    HW1 4140  13.414  14.070   9.485
  769SOL    HW2 4141  13.458  13.938   9.545
  770SOL     OW 4142   3.162   2.894  13.734
  770SOL    HW1 4143   3.224   2.963  13.713
  770SOL    HW2 4144   3.209   2.813  13.715
  771SOL     OW 4145   5.375  13.717   4.317
  771SOL    HW1 4146   5.296  13.755   4.357
  771SOL    HW2 4147   5.433  13.701   4.391
  772SOL     OW 4148   8.022   0.992   7.016
  772SOL    HW1 4149   7.979   1.031   6.940
  772SOL    HW2 4150   8.066   0.914   6.982
  773SOL     OW 4151   8.491   2.899   2.748
  773SOL    HW1 4152   8.557   2.962   2.719
  773SOL    HW2 4153   8.422   2.952   2.786
  774SOL     OW 4154   0.986   8.779   4.986
  774SOL    HW1 4155   0.892   8.783   4.967
  774SOL    HW2 4156   0.990   8.771   5.082
  775SOL     OW 4157   7.400  14.771   8.914
  775SOL    HW1 4158   7.456  14.815   8.850
  775SOL    HW2 4159   7.409  14.824   8.994
  776SOL     OW 4160   1.319   9.447   5.351
  776SOL    HW1 4161   1.304   9.430   5.258
  776SOL    HW2 4162   1.411   9.425   5.364
  777SOL     OW 4163  10.116  11.713   1.736
  777SOL    HW1 4164  10.183  11.696   1.669
  777SOL    HW2 4165  10.033  11.706   1.689
  778SOL     OW 4166   9.037   2.434   3.886
  778SOL    HW1 4167   8.958   2.485   3.868
  778SOL    HW2 4168   9.092   2.447   3.809
  779SOL     OW 4169   0.222   9.378   2.572
  779SOL    HW1 4170   0.298   9.343   2.619
  779SOL    HW2 4171   0.229   9.473   2.582
  780SOL     OW 4172  10.789   3.352   5.421
  780SOL    HW1 4173  10.832   3.437   5.431
  780SOL    HW2 4174  10.860   3.292   5.398
  781SOL     OW 4175  11.024   2.065  11.330
  781SOL    HW1 4176  10.951   2.045  11.271
  781SOL    HW2 4177  11.097   2.012  11.297
  782SOL     OW 4178   8.262  14.700   1.739
  782SOL    HW1 4179   8.207  14.634   1.696
  782SOL    HW2 4180   8.269  14.770   1.675
  783SOL     OW 4181  13.800   8.483  14.548
  783SOL    HW1 4182  13.717   8.516  14.515
  783SOL    HW2 4183  13.816   8.534  14.628
  784SOL     OW 4184  11.429   7.589   7.239
  784SOL    HW1 4185  11.406   7.680   7.222
  784SOL    HW2 4186  11.440   7.550   7.152
  785SOL     OW 4187   5.533   0.311   0.182
  785SOL    HW1 4188   5.458   0.312   0.241
  785SOL    HW2 4189   5.507   0.367   0.109
  786SOL     OW 4190  13.707   9.461  13.606
  786SOL    HW1 4191  13.666   9.462  13.520
  786SOL    HW2 4192  13.794   9.497  13.592
  787SOL     OW 4193   7.961   1.213  13.297
  787SOL    HW1 4194   7.917   1.217  13.382
  787SOL    HW2 4195   7.921   1.284  13.246
  788SOL     OW 4196   0.314  10.049  11.159
  788SOL    HW1 4197   0.368   9.973  11.138
  788SOL    HW2 4198   0.365  10.124  11.128
  789SOL     OW 4199  10.765   5.612  13.895
  789SOL    HW1 4200  10.705   5.606  13.970
  789SOL    HW2 4201  10.749   5.531  13.846
  790SOL     OW 4202   0.228   6.092   0.801
  790SOL    HW1 4203   0.234   6.001   0.828
  790SOL    HW2 4204   0.318   6.123   0.799
  791SOL     OW 4205   1.466  14.139   2.216
  791SOL    HW1 4206   1.375  14.159   2.195
  791SOL    HW2 4207   1.478  14.172   2.305
  792SOL     OW 4208   8.073   1.668  12.174
  792SOL    HW1 4209   8.075   1.693  12.266
  792SOL    HW2 4210   7.992   1.618  12.164
  793SOL     OW 4211   0.934  11.812   1.207
  793SOL    HW1 4212   0.841  11.794   1.216
  793SOL    HW2 4213   0.939  11.906   1.187
  794SOL     OW 4214  10.693   4.300   7.993
  794SOL    HW1 4215  10.686   4.378   7.938
  794SOL    HW2 4216  10.757   4.244   7.947
  795SOL     OW 4217   1.022  13.453   5.151
  795SOL    HW1 4218   1.068  13.377   5.117
  795SOL    HW2 4219   1.043  13.524   5.089
  796SOL     OW 4220  13.373  12.294   1.465
  796SOL    HW1 4221  13.318  12.294   1.387
  796SOL    HW2 4222  13.343  12.219   1.516
  797SOL     OW 4223   9.691  11.754   2.431
  797SOL    HW1 4224   9.621  11.792   2.378
  797SOL    HW2 4225   9.653  11.673   2.467
  798SOL     OW 4226   5.416  14.713   4.164
  798SOL    HW1 4227   5.435  14.680   4.252
  798SOL    HW2 4228   5.394  14.635   4.114
  799SOL     OW 4229   8.229   4.722  10.312
  799SOL    HW1 4230   8.307   4.712  10.367
  799SOL    HW2 4231   8.203   4.633  10.290
  800SOL     OW 4232   9.138   7.471   8.094
  800SOL    HW1 4233   9.212   7.476   8.034
  800SOL    HW2 4234   9.091   7.392   8.068
  801SOL     OW 4235   4.329   4.440   7.016
  801SOL    HW1 4236   4.292   4.372   7.072
  801SOL    HW2 4237   4.404   4.399   6.974
  802SOL     OW 4238   2.666  14.232   1.293
  802SOL    HW1 4239   2.686  14.324   1.309
  802SOL    HW2 4240   2.672  14.223   1.198
  803SOL     OW 4241  10.429  13.112   5.961
  803SOL    HW1 4242  10.477  13.034   5.989
  803SOL    HW2 4243  10.474  13.141   5.882
  804SOL     OW 4244   4.710   9.630  13.231
  804SOL    HW1 4245   4.750   9.692  13.293
  804SOL    HW2 4246   4.648   9.581  13.284
  805SOL     OW 4247   5.537   4.897   7.898
  805SOL    HW1 4248   5.492   4.879   7.981
  805SOL    HW2 4249   5.467   4.919   7.837
  806SOL     OW 4250   9.085  14.719   0.117
  806SOL    HW1 4251   9.148  14.790   0.125
  806SOL    HW2 4252   9.009  14.748   0.169
  807SOL     OW 4253   8.173   5.257  12.823
  807SOL    HW1 4254   8.123   5.306  12.888
  807SOL    HW2 4255   8.253   5.231  12.868
  808SOL     OW 4256   4.872  13.361  10.529
  808SOL    HW1 4257   4.928  13.290  10.561
  808SOL    HW2 4258   4.787  13.320  10.517
  809SOL     OW 4259  11.573   8.720   7.605
  809SOL    HW1 4260  11.566   8.814   7.584
  809SOL    HW2 4261  11.614   8.718   7.691
  810SOL     OW 4262   6.947   0.687  12.465
  810SOL    HW1 4263   6.974   0.653  12.550
  810SOL    HW2 4264   6.991   0.772  12.459
  811SOL     OW 4265  10.687  12.380  14.237
  811SOL    HW1 4266  10.647  12.355  14.320
  811SOL    HW2 4267  10.778  12.399  14.260
  812SOL     OW 4268  10.028   6.879   1.562
  812SOL    HW1 4269  10.091   6.881   1.634
  812SOL    HW2 4270   9.967   6.809   1.586
  813SOL     OW 4271  13.298   4.433   9.285
  813SOL    HW1 4272  13.204   4.433   9.305
  813SOL    HW2 4273  13.340   4.458   9.367
  814SOL     OW 4274   2.189  10.996   4.186
  814SOL    HW1 4275   2.221  10.946   4.110
  814SOL    HW2 4276   2.100  11.020   4.163
  815SOL     OW 4277   6.721   2.199   3.447
  815SOL    HW1 4278   6.645   2.168   3.496
  815SOL    HW2 4279   6.796   2.168   3.497
  816SOL     OW 4280   0.314  10.747   3.617
  816SOL    HW1 4281   0.287  10.663   3.579
  816SOL    HW2 4282   0.233  10.797   3.625
  817SOL     OW 4283  12.087  12.977   9.874
  817SOL    HW1 4284  12.000  12.961   9.912
  817SOL    HW2 4285  12.148  12.936   9.935
  818SOL     OW 4286   5.376   2.952  12.292
  818SOL    HW1 4287   5.403   2.889  12.359
  818SOL    HW2 4288   5.436   3.026  12.304
  819SOL     OW 4289   6.636   1.820   7.394
  819SOL    HW1 4290   6.603   1.737   7.428
  819SOL    HW2 4291   6.685   1.859   7.467
  820SOL     OW 4292   2.765  11.100   1.557
  820SOL    HW1 4293   2.854  11.110   1.525
  820SOL    HW2 4294   2.761  11.009   1.587
  821SOL     OW 4295   2.841   1.965   2.899
  821SOL    HW1 4296   2.766   1.942   2.955
  821SOL    HW2 4297   2.831   2.059   2.884
  822SOL     OW 4298   7.518   5.554   4.141
  822SOL    HW1 4299   7.552   5.584   4.226
  822SOL    HW2 4300   7.423   5.559   4.150
  823SOL     OW 4301   3.221   8.240   4.565
  823SOL    HW1 4302   3.211   8.331   4.537
  823SOL    HW2 4303   3.231   8.190   4.484
  824SOL     OW 4304  13.151   8.470  13.461
  824SOL    HW1 4305  13.144   8.375  13.457
  824SOL    HW2 4306  13.065   8.501  13.430
  825SOL     OW 4307  11.034   9.513   8.403
  825SOL    HW1 4308  11.113   9.487   8.450
  825SOL    HW2 4309  11.012   9.437   8.350
  826SOL     OW 4310  14.778   3.028   2.248
  826SOL    HW1 4311  14.857   3.071   2.215
  826SOL    HW2 4312  14.706   3.084   2.218
  827SOL     OW 4313   4.842  11.864   3.728
  827SOL    HW1 4314   4.848  11.938   3.667
  827SOL    HW2 4315   4.874  11.898   3.811
  828SOL     OW 4316   1.447   8.007  12.777
  828SOL    HW1 4317   1.371   8.061  12.757
  828SOL    HW2 4318   1.410   7.925  12.812
  829SOL     OW 4319  13.180   4.898   4.392
  829SOL    HW1 4320  13.097   4.851   4.385
  829SOL    HW2 4321  13.228   4.853   4.461
  830SOL     OW 4322   4.213   6.606  14.506
  830SOL    HW1 4323   4.133   6.645  14.469
  830SOL    HW2 4324   4.199   6.512  14.497
  831SOL     OW 4325   7.633   1.664   2.336
  831SOL    HW1 4326   7.555   1.707   2.301
  831SOL    HW2 4327   7.651   1.711   2.418
  832SOL     OW 4328   6.978   5.902  12.588
  832SOL    HW1 4329   6.994   5.830  12.649
  832SOL    HW2 4330   6.910   5.869  12.529
  833SOL     OW 4331   3.661  11.862   1.867
  833SOL    HW1 4332   3.740  11.812   1.886
  833SOL    HW2 4333   3.646  11.849   1.774
  834SOL     OW 4334   2.591  14.237   0.318
  834SOL    HW1 4335   2.655  14.246   0.248
  834SOL    HW2 4336   2.560  14.326   0.333
  835SOL     OW 4337   9.604   5.681   0.380
  835SOL    HW1 4338   9.625   5.628   0.457
  835SOL    HW2 4339   9.526   5.731   0.406
  836SOL     OW 4340   6.709   9.927  12.669
  836SOL    HW1 4341   6.730   9.922  12.762
  836SOL    HW2 4342   6.754   9.852  12.630
  837SOL     OW 4343   8.712   6.913   0.570
  837SOL    HW1 4344   8.784   6.947   0.517
  837SOL    HW2 4345   8.654   6.988   0.583
  838SOL     OW 4346   0.848   3.829   5.198
  838SOL    HW1 4347   0.943   3.832   5.189
  838SOL    HW2 4348   0.822   3.921   5.205
  839SOL     OW 4349   2.841   7.996   0.968
  839SOL    HW1 4350   2.758   8.042   0.983
  839SOL    HW2 4351   2.835   7.965   0.878
  840SOL     OW 4352   5.580   0.654   3.013
  840SOL    HW1 4353   5.583   0.641   3.108
  840SOL    HW2 4354   5.563   0.748   3.003
  841SOL     OW 4355   3.031   6.417   7.134
  841SOL    HW1 4356   3.055   6.338   7.182
  841SOL    HW2 4357   2.937   6.408   7.118
  842SOL     OW 4358   4.745   2.914  11.878
  842SOL    HW1 4359   4.738   2.967  11.798
  842SOL    HW2 4360   4.837   2.888  11.881
  843SOL     OW 4361  13.842  11.879   8.659
  843SOL    HW1 4362  13.803  11.923   8.584
  843SOL    HW2 4363  13.775  11.884   8.728
  844SOL     OW 4364  13.651  10.796  13.058
  844SOL    HW1 4365  13.731  10.801  13.111
  844SOL    HW2 4366  13.594  10.736  13.106
  845SOL     OW 4367   7.131  12.475  13.987
  845SOL    HW1 4368   7.088  12.550  13.945
  845SOL    HW2 4369   7.061  12.433  14.037
  846SOL     OW 4370   9.234   4.223   8.016
  846SOL    HW1 4371   9.292   4.195   7.945
  846SOL    HW2 4372   9.293   4.240   8.090
  847SOL     OW 4373   5.347   9.781  13.715
  847SOL    HW1 4374   5.394   9.741  13.641
  847SOL    HW2 4375   5.412   9.837  13.757
  848SOL     OW 4376   2.776   7.416   0.821
  848SOL    HW1 4377   2.832   7.373   0.886
  848SOL    HW2 4378   2.746   7.496   0.864
  849SOL     OW 4379  12.300   6.803   3.495
  849SOL    HW1 4380  12.232   6.755   3.448
  849SOL    HW2 4381  12.377   6.745   3.493
  850SOL     OW 4382   5.930  10.019   1.660
  850SOL    HW1 4383   5.853   9.966   1.680
  850SOL    HW2 4384   5.900  10.081   1.593
  851SOL     OW 4385  11.804   7.257  12.777
  851SOL    HW1 4386  11.796   7.291  12.688
  851SOL    HW2 4387  11.824   7.164  12.766
  852SOL     OW 4388   8.822  10.934  10.974
  852SOL    HW1 4389   8.808  10.964  10.884
  852SOL    HW2 4390   8.914  10.909  10.976
  853SOL     OW 4391   2.913   7.149   0.055
  853SOL    HW1 4392   2.898   7.085  14.858
  853SOL    HW2 4393   2.888   7.104   0.135
  854SOL     OW 4394   1.978  13.899  13.248
  854SOL    HW1 4395   1.920  13.925  13.176
  854SOL    HW2 4396   2.001  13.808  13.229
  855SOL     OW 4397   5.580   5.962   5.322
  855SOL    HW1 4398   5.495   5.917   5.316
  855SOL    HW2 4399   5.628   5.914   5.390
  856SOL     OW 4400   5.857   6.218  12.239
  856SOL    HW1 4401   5.808   6.157  12.294
  856SOL    HW2 4402   5.923   6.164  12.196
  857SOL     OW 4403  10.943  13.998   9.977
  857SOL    HW1 4404  11.003  13.997   9.902
  857SOL    HW2 4405  10.872  14.057   9.950
  858SOL     OW 4406   2.288   8.296  12.958
  858SOL    HW1 4407   2.316   8.380  12.993
  858SOL    HW2 4408   2.311   8.299  12.865
  859SOL     OW 4409  14.381   7.915  10.645
  859SOL    HW1 4410  14.377   7.896  10.551
  859SOL    HW2 4411  14.323   7.990  10.657
  860SOL     OW 4412   0.412  10.644  11.780
  860SOL    HW1 4413   0.488  10.663  11.836
  860SOL    HW2 4414   0.418  10.708  11.709
  861SOL     OW 4415   5.429   8.864   0.408
  861SOL    HW1 4416   5.350   8.893   0.364
  861SOL    HW2 4417   5.433   8.918   0.487
  862SOL     OW 4418   7.690   5.941   3.609
  862SOL    HW1 4419   7.641   5.903   3.682
  862SOL    HW2 4420   7.730   6.020   3.645
  863SOL     OW 4421   2.999  12.065   1.468
  863SOL    HW1 4422   2.963  12.121   1.399
  863SOL    HW2 4423   2.926  12.009   1.494
  864SOL     OW 4424  12.670   3.705   6.471
  864SOL    HW1 4425  12.661   3.720   6.565
  864SOL    HW2 4426  12.734   3.634   6.465
  865SOL     OW 4427   7.527   4.830   8.506
  865SOL    HW1 4428   7.564   4.774   8.437
  865SOL    HW2 4429   7.566   4.916   8.489
  866SOL     OW 4430  14.555  10.746  13.666
  866SOL    HW1 4431  14.631  10.733  13.609
  866SOL    HW2 4432  14.593  10.765  13.752
  867SOL     OW 4433   8.504   0.241  13.962
  867SOL    HW1 4434   8.411   0.257  13.978
  867SOL    HW2 4435   8.509   0.150  13.935
  868SOL     OW 4436   8.119   1.630   8.252
  868SOL    HW1 4437   8.111   1.658   8.344
  868SOL    HW2 4438   8.180   1.693   8.213
  869SOL     OW 4439   3.465   6.957   2.771
  869SOL    HW1 4440   3.449   6.865   2.791
  869SOL    HW2 4441   3.559   6.967   2.777
  870SOL     OW 4442   2.525  10.812   3.022
  870SOL    HW1 4443   2.515  10.805   3.117
  870SOL    HW2 4444   2.568  10.731   2.996
  871SOL     OW 4445   0.016   3.264  10.201
  871SOL    HW1 4446  14.796   3.272  10.222
  871SOL    HW2 4447   0.018   3.239  10.108
  872SOL     OW 4448  14.184   5.845   2.783
  872SOL    HW1 4449  14.237   5.854   2.862
  872SOL    HW2 4450  14.097   5.824   2.815
  873SOL     OW 4451   0.412  10.998   4.873
  873SOL    HW1 4452   0.411  11.009   4.968
  873SOL    HW2 4453   0.498  10.960   4.855
  874SOL     OW 4454  13.216  11.875   9.198
  874SOL    HW1 4455  13.141  11.822   9.226
  874SOL    HW2 4456  13.178  11.959   9.172
  875SOL     OW 4457   8.202   5.486   9.874
  875SOL    HW1 4458   8.262   5.498   9.949
  875SOL    HW2 4459   8.143   5.416   9.902
  876SOL     OW 4460  12.597   8.395  14.157
  876SOL    HW1 4461  12.555   8.340  14.091
  876SOL    HW2 4462  12.686   8.360  14.163
  877SOL     OW 4463   2.294   9.681   0.591
  877SOL    HW1 4464   2.382   9.715   0.607
  877SOL    HW2 4465   2.278   9.698   0.498
  878SOL     OW 4466   7.734  10.387  13.347
  878SOL    HW1 4467   7.747  10.476  13.313
  878SOL    HW2 4468   7.716  10.399  13.440
  879SOL     OW 4469  10.129   0.190   1.383
  879SOL    HW1 4470  10.145   0.266   1.326
  879SOL    HW2 4471  10.190   0.124   1.351
  880SOL     OW 4472   9.773   0.340  12.614
  880SOL    HW1 4473   9.747   0.396  12.687
  880SOL    HW2 4474   9.860   0.309  12.637
  881SOL     OW 4475   3.845   6.761   8.190
  881SOL    HW1 4476   3.809   6.762   8.279
  881SOL    HW2 4477   3.770   6.742   8.134
  882SOL     OW 4478   4.800   5.975   3.323
  882SOL    HW1 4479   4.714   5.966   3.282
  882SOL    HW2 4480   4.787   6.037   3.394
  883SOL     OW 4481   2.807  13.230   6.690
  883SOL    HW1 4482   2.826  13.324   6.692
  883SOL    HW2 4483   2.745  13.216   6.762
  884SOL     OW 4484   6.069   1.459   7.593
  884SOL    HW1 4485   6.053   1.463   7.499
  884SOL    HW2 4486   6.079   1.365   7.612
  885SOL     OW 4487   7.388   6.056  11.070
  885SOL    HW1 4488   7.390   5.986  11.135
  885SOL    HW2 4489   7.426   6.132  11.114
  886SOL     OW 4490   1.527   1.023   4.602
  886SOL    HW1 4491   1.518   1.091   4.669
  886SOL    HW2 4492   1.609   0.979   4.624
  887SOL     OW 4493  13.146  13.594   7.531
  887SOL    HW1 4494  13.176  13.670   7.582
  887SOL    HW2 4495  13.059  13.575   7.567
  888SOL     OW 4496  14.593   4.030   6.452
  888SOL    HW1 4497  14.685   4.006   6.464
  888SOL    HW2 4498  14.593   4.093   6.381
  889SOL     OW 4499   6.801   5.525   9.371
  889SOL    HW1 4500   6.708   5.522   9.390
  889SOL    HW2 4501   6.826   5.616   9.388
  890SOL     OW 4502  12.281   7.027   3.327
  890SOL    HW1 4503  12.310   7.108   3.369
  890SOL    HW2 4504  12.302   6.958   3.391
  891SOL     OW 4505   4.954  10.317   1.852
  891SOL    HW1 4506   4.936  10.385   1.917
  891SOL    HW2 4507   4.875  10.311   1.799
  892SOL     OW 4508   2.251   1.365   5.808
  892SOL    HW1 4509   2.293   1.446   5.836
  892SOL    HW2 4510   2.209   1.331   5.887
  893SOL     OW 4511   1.852   5.781   3.869
  893SOL    HW1 4512   1.871   5.765   3.961
  893SOL    HW2 4513   1.894   5.865   3.850
  894SOL     OW 4514   3.697   1.810   6.376
  894SOL    HW1 4515   3.656   1.726   6.358
  894SOL    HW2 4516   3.756   1.793   6.449
  895SOL     OW 4517   2.706   6.561  12.149
  895SOL    HW1 4518   2.781   6.558  12.090
  895SOL    HW2 4519   2.735   6.512  12.226
  896SOL     OW 4520   4.861  14.142  10.350
  896SOL    HW1 4521   4.803  14.074  10.316
  896SOL    HW2 4522   4.950  14.110  10.332
  897SOL     OW 4523   5.760   3.189   9.645
  897SOL    HW1 4524   5.686   3.237   9.681
  897SOL    HW2 4525   5.814   3.257   9.604
  898SOL     OW 4526   3.516   2.374   5.244
  898SOL    HW1 4527   3.448   2.388   5.178
  898SOL    HW2 4528   3.538   2.462   5.274
  899SOL     OW 4529   2.942   0.036   8.691
  899SOL    HW1 4530   2.892   0.086   8.627
  899SOL    HW2 4531   3.014   0.094   8.716
  900SOL     OW 4532  11.117   0.742  13.285
  900SOL    HW1 4533  11.069   0.701  13.357
  900SOL    HW2 4534  11.155   0.668  13.237
  901SOL     OW 4535   7.940  14.226  14.025
  901SOL    HW1 4536   7.960  14.208  14.117
  901SOL    HW2 4537   7.976  14.151  13.977
  902SOL     OW 4538  13.625  10.249   7.755
  902SOL    HW1 4539  13.637  10.328   7.808
  902SOL    HW2 4540  13.541  10.213   7.784
  903SOL     OW 4541  11.770  11.704   1.337
  903SOL    HW1 4542  11.862  11.724   1.319
  903SOL    HW2 4543  11.733  11.680   1.252
  904SOL     OW 4544  14.835   1.093   9.595
  904SOL    HW1 4545   0.045   1.070   9.638
  904SOL    HW2 4546  14.769   1.086   9.664
  905SOL     OW 4547   3.224   0.696   0.618
  905SOL    HW1 4548   3.260   0.769   0.568
  905SOL    HW2 4549   3.286   0.684   0.690
  906SOL     OW 4550   5.351  14.183   0.576
  906SOL    HW1 4551   5.346  14.128   0.497
  906SOL    HW2 4552   5.318  14.268   0.547
  907SOL     OW 4553  12.863   6.734   6.132
  907SOL    HW1 4554  12.933   6.738   6.196
  907SOL    HW2 4555  12.784   6.759   6.181
  908SOL     OW 4556   0.875   5.772   6.626
  908SOL    HW1 4557   0.935   5.825   6.574
  908SOL    HW2 4558   0.839   5.709   6.564
  909SOL     OW 4559   7.257   6.133  10.677
  909SOL    HW1 4560   7.170   6.096  10.690
  909SOL    HW2 4561   7.260   6.156  10.584
  910SOL     OW 4562   5.169   6.190   1.624
  910SOL    HW1 4563   5.224   6.112   1.626
  910SOL    HW2 4564   5.086   6.161   1.664
  911SOL     OW 4565   1.599  13.729  13.214
  911SOL    HW1 4566   1.601  13.812  13.263
  911SOL    HW2 4567   1.684  13.689  13.232
  912SOL     OW 4568   4.557   8.878   5.516
  912SOL    HW1 4569   4.514   8.874   5.431
  912SOL    HW2 4570   4.486   8.883   5.579
  913SOL     OW 4571  12.843   7.194   2.668
  913SOL    HW1 4572  12.910   7.141   2.712
  913SOL    HW2 4573  12.768   7.135   2.657
  914SOL     OW 4574   6.077  10.562   9.694
  914SOL    HW1 4575   6.117  10.633   9.744
  914SOL    HW2 4576   5.983  10.578   9.702
  915SOL     OW 4577   2.945   7.488  11.177
  915SOL    HW1 4578   3.018   7.427  11.186
  915SOL    HW2 4579   2.965   7.539  11.098
  916SOL     OW 4580  14.842   4.042   0.540
  916SOL    HW1 4581  14.853   3.963   0.593
  916SOL    HW2 4582   0.033   4.031   0.469
  917SOL     OW 4583   2.428  14.188  12.239
  917SOL    HW1 4584   2.387  14.272  12.258
  917SOL    HW2 4585   2.355  14.126  12.235
  918SOL     OW 4586   5.230   6.822  10.750
  918SOL    HW1 4587   5.315   6.842  10.712
  918SOL    HW2 4588   5.222   6.883  10.824
  919SOL     OW 4589   6.745  11.744   8.271
  919SOL    HW1 4590   6.721  11.651   8.277
  919SOL    HW2 4591   6.680  11.782   8.211
  920SOL     OW 4592  11.340   9.055  12.622
  920SOL    HW1 4593  11.271   9.110  12.586
  920SOL    HW2 4594  11.421   9.091  12.587
  921SOL     OW 4595  14.022   4.150  10.663
  921SOL    HW1 4596  13.978   4.158  10.578
  921SOL    HW2 4597  13.999   4.231  10.709
  922SOL     OW 4598   1.551   0.161  11.897
  922SOL    HW1 4599   1.605   0.217  11.841
  922SOL    HW2 4600   1.461   0.192  11.881
  923SOL     OW 4601   7.280   6.545  12.215
  923SOL    HW1 4602   7.221   6.589  12.277
  923SOL    HW2 4603   7.330   6.484  12.269
  924SOL     OW 4604   9.341   0.450  13.422
  924SOL    HW1 4605   9.343   0.497  13.338
  924SOL    HW2 4606   9.418   0.481  13.469
  925SOL     OW 4607   5.758   1.755  13.006
  925SOL    HW1 4608   5.751   1.752  12.911
  925SOL    HW2 4609   5.743   1.665  13.035
  926SOL     OW 4610   9.098  11.132   7.754
  926SOL    HW1 4611   9.061  11.181   7.681
  926SOL    HW2 4612   9.193  11.143   7.745
  927SOL     OW 4613  13.861  12.436   2.218
  927SOL    HW1 4614  13.921  12.437   2.292
  927SOL    HW2 4615  13.891  12.364   2.162
  928SOL     OW 4616   6.722   5.902   5.364
  928SOL    HW1 4617   6.701   5.858   5.282
  928SOL    HW2 4618   6.788   5.968   5.340
  929SOL     OW 4619   0.664  14.088   5.151
  929SOL    HW1 4620   0.678  14.162   5.210
  929SOL    HW2 4621   0.733  14.095   5.086
  930SOL     OW 4622   7.760   1.495  13.819
  930SOL    HW1 4623   7.786   1.551  13.892
  930SOL    HW2 4624   7.842   1.466  13.781
  931SOL     OW 4625   4.614   9.566   5.071
  931SOL    HW1 4626   4.665   9.517   5.006
  931SOL    HW2 4627   4.604   9.506   5.145
  932SOL     OW 4628   4.439   4.788   4.779
  932SOL    HW1 4629   4.401   4.874   4.761
  932SOL    HW2 4630   4.527   4.807   4.812
  933SOL     OW 4631  10.392  12.583  12.401
  933SOL    HW1 4632  10.461  12.641  12.367
  933SOL    HW2 4633  10.422  12.495  12.377
  934SOL     OW 4634  14.781   9.316  13.277
  934SOL    HW1 4635  14.764   9.401  13.319
  934SOL    HW2 4636  14.747   9.251  13.339
  935SOL     OW 4637  13.935  12.881   0.414
  935SOL    HW1 4638  13.910  12.896   0.506
  935SOL    HW2 4639  13.877  12.937   0.364
  936SOL     OW 4640  12.702  12.226   2.536
  936SOL    HW1 4641  12.775  12.168   2.515
  936SOL    HW2 4642  12.633  12.168   2.566
  937SOL     OW 4643  10.195   3.854   2.129
  937SOL    HW1 4644  10.272   3.900   2.094
  937SOL    HW2 4645  10.210   3.762   2.108
  938SOL     OW 4646   3.537   0.020   2.607
  938SOL    HW1 4647   3.540   0.099   2.661
  938SOL    HW2 4648   3.497  14.826   2.664
  939SOL     OW 4649   1.461   4.547  10.171
  939SOL    HW1 4650   1.445   4.506  10.086
  939SOL    HW2 4651   1.388   4.608  10.181
  940SOL     OW 4652   6.176  12.205   3.779
  940SOL    HW1 4653   6.147  12.186   3.690
  940SOL    HW2 4654   6.125  12.144   3.834
  941SOL     OW 4655   3.859  12.839   6.919
  941SOL    HW1 4656   3.806  12.763   6.943
  941SOL    HW2 4657   3.949  12.812   6.938
  942SOL     OW 4658   4.575   4.004  13.149
  942SOL    HW1 4659   4.519   3.967  13.080
  942SOL    HW2 4660   4.571   3.940  13.220
  943SOL     OW 4661   2.007   3.670   8.154
  943SOL    HW1 4662   2.047   3.587   8.180
  943SOL    HW2 4663   1.974   3.653   8.065
  944SOL     OW 4664   6.677   9.862   5.132
  944SOL    HW1 4665   6.657   9.768   5.137
  944SOL    HW2 4666   6.659   9.895   5.220
  945SOL     OW 4667  11.226   3.503   3.207
  945SOL    HW1 4668  11.290   3.551   3.155
  945SOL    HW2 4669  11.184   3.443   3.145
  946SOL     OW 4670   6.183   2.664  14.178
  946SOL    HW1 4671   6.117   2.598  14.198
  946SOL    HW2 4672   6.263   2.614  14.164
  947SOL     OW 4673  13.313   3.607   5.510
  947SOL    HW1 4674  13.275   3.519   5.513
  947SOL    HW2 4675  13.407   3.592   5.502
  948SOL     OW 4676   9.933   4.576   1.789
  948SOL    HW1 4677   9.883   4.656   1.774
  948SOL    HW2 4678   9.926   4.526   1.707
  949SOL     OW 4679   8.846  11.529   1.605
  949SOL    HW1 4680   8.882  11.482   1.681
  949SOL    HW2 4681   8.887  11.615   1.609
  950SOL     OW 4682  10.093   2.074   1.308
  950SOL    HW1 4683  10.044   2.100   1.386
  950SOL    HW2 4684  10.147   2.001   1.337
  951SOL     OW 4685   2.877   2.035   8.272
  951SOL    HW1 4686   2.799   2.091   8.271
  951SOL    HW2 4687   2.862   1.971   8.204
  952SOL     OW 4688  11.261   2.866   4.154
  952SOL    HW1 4689  11.332   2.875   4.218
  952SOL    HW2 4690  11.244   2.956   4.125
  953SOL     OW 4691  13.763   5.295   7.266
  953SOL    HW1 4692  13.819   5.247   7.328
  953SOL    HW2 4693  13.804   5.281   7.181
  954SOL     OW 4694   7.566  12.882  11.433
  954SOL    HW1 4695   7.501  12.946  11.402
  954SOL    HW2 4696   7.640  12.893  11.372
  955SOL     OW 4697   3.256   9.229   5.178
  955SOL    HW1 4698   3.288   9.166   5.114
  955SOL    HW2 4699   3.278   9.191   5.263
  956SOL     OW 4700   1.191   5.674   8.521
  956SOL    HW1 4701   1.112   5.653   8.472
  956SOL    HW2 4702   1.162   5.684   8.612
  957SOL     OW 4703   7.606  14.551   6.310
  957SOL    HW1 4704   7.692  14.534   6.272
  957SOL    HW2 4705   7.592  14.480   6.372
  958SOL     OW 4706   3.852   5.855  14.528
  958SOL    HW1 4707   3.884   5.945  14.537
  958SOL    HW2 4708   3.798   5.841  14.606
  959SOL     OW 4709  10.561   8.849   6.261
  959SOL    HW1 4710  10.531   8.822   6.348
  959SOL    HW2 4711  10.654   8.867   6.272
  960SOL     OW 4712   3.557   2.490  11.607
  960SOL    HW1 4713   3.614   2.536  11.669
  960SOL    HW2 4714   3.495   2.557  11.578
  961SOL     OW 4715   2.538  12.200  12.379
  961SOL    HW1 4716   2.459  12.208  12.432
  961SOL    HW2 4717   2.610  12.202  12.442
  962SOL     OW 4718  12.496  13.074   0.857
  962SOL    HW1 4719  12.576  13.085   0.806
  962SOL    HW2 4720  12.452  13.158   0.852
  963SOL     OW 4721   8.289   4.975  11.018
  963SOL    HW1 4722   8.342   4.908  11.062
  963SOL    HW2 4723   8.199   4.942  11.025
  964SOL     OW 4724  10.551  10.414  10.120
  964SOL    HW1 4725  10.480  10.455  10.169
  964SOL    HW2 4726  10.594  10.358  10.183
  965SOL     OW 4727  10.376   8.261  10.476
  965SOL    HW1 4728  10.468   8.285  10.491
  965SOL    HW2 4729  10.379   8.206  10.398
  966SOL     OW 4730   7.113   7.486   8.298
  966SOL    HW1 4731   7.087   7.458   8.210
  966SOL    HW2 4732   7.092   7.580   8.301
  967SOL     OW 4733  12.578   0.150   5.331
  967SOL    HW1 4734  12.584   0.177   5.239
  967SOL    HW2 4735  12.525   0.070   5.328
  968SOL     OW 4736   9.069   6.928   0.191
  968SOL    HW1 4737   9.062   6.868   0.117
  968SOL    HW2 4738   9.082   7.014   0.151
  969SOL     OW 4739   6.148  10.861  11.951
  969SOL    HW1 4740   6.061  10.843  11.914
  969SOL    HW2 4741   6.147  10.956  11.967
  970SOL     OW 4742  12.549   6.221  11.005
  970SOL    HW1 4743  12.617   6.155  11.017
  970SOL    HW2 4744  12.486   6.180  10.946
  971SOL     OW 4745   7.733  14.324   9.153
  971SOL    HW1 4746   7.752  14.339   9.245
  971SOL    HW2 4747   7.673  14.249   9.152
  972SOL     OW 4748  10.098   6.487  11.240
  972SOL    HW1 4749  10.053   6.510  11.322
  972SOL    HW2 4750  10.179   6.446  11.268
  973SOL     OW 4751   5.814   5.212   4.841
  973SOL    HW1 4752   5.743   5.247   4.894
  973SOL    HW2 4753   5.893   5.253   4.876
  974SOL     OW 4754   8.836   8.493   0.486
  974SOL    HW1 4755   8.801   8.414   0.444
  974SOL    HW2 4756   8.813   8.483   0.578
  975SOL     OW 4757   5.827   7.591   0.895
  975SOL    HW1 4758   5.785   7.667   0.936
  975SOL    HW2 4759   5.917   7.618   0.880
  976SOL     OW 4760   4.579   2.611  10.524
  976SOL    HW1 4761   4.511   2.545  10.524
  976SOL    HW2 4762   4.614   2.611  10.613
  977SOL     OW 4763   3.509   4.207   4.529
  977SOL    HW1 4764   3.425   4.251   4.535
  977SOL    HW2 4765   3.490   4.124   4.485
  978SOL     OW 4766   5.965   4.478  13.427
  978SOL    HW1 4767   5.932   4.390  13.409
  978SOL    HW2 4768   5.887   4.533  13.429
  979SOL     OW 4769   4.320  11.226   5.504
  979SOL    HW1 4770   4.379  11.163   5.544
  979SOL    HW2 4771   4.308  11.194   5.414
  980SOL     OW 4772  13.375  14.597   0.229
  980SOL    HW1 4773  13.416  14.525   0.278
  980SOL    HW2 4774  13.302  14.555   0.183
  981SOL     OW 4775  14.672   9.699   7.920
  981SOL    HW1 4776  14.699   9.738   7.836
  981SOL    HW2 4777  14.635   9.772   7.969
  982SOL     OW 4778  10.894   2.028  14.454
  982SOL    HW1 4779  10.828   2.088  14.419
  982SOL    HW2 4780  10.924   2.069  14.535
  983SOL     OW 4781  12.433   6.793  11.671
  983SOL    HW1 4782  12.459   6.867  11.725
  983SOL    HW2 4783  12.382   6.737  11.729
  984SOL     OW 4784   3.917   0.823   6.547
  984SOL    HW1 4785   4.008   0.851   6.561
  984SOL    HW2 4786   3.890   0.868   6.466
  985SOL     OW 4787  13.500  13.818   1.984
  985SOL    HW1 4788  13.591  13.795   1.965
  985SOL    HW2 4789  13.496  13.913   1.972
  986SOL     OW 4790   7.710   0.919  10.449
  986SOL    HW1 4791   7.623   0.913  10.487
  986SOL    HW2 4792   7.746   0.831  10.457
  987SOL     OW 4793   5.229   1.312   6.928
  987SOL    HW1 4794   5.262   1.312   7.018
  987SOL    HW2 4795   5.245   1.223   6.896
  988SOL     OW 4796   8.451   8.710  12.612
  988SOL    HW1 4797   8.374   8.707  12.669
  988SOL    HW2 4798   8.437   8.786  12.556
  989SOL     OW 4799   8.448   7.927  10.939
  989SOL    HW1 4800   8.397   7.961  10.865
  989SOL    HW2 4801   8.538   7.954  10.921
  990SOL     OW 4802   1.036  14.842   9.517
  990SOL    HW1 4803   0.955  14.815   9.474
  990SOL    HW2 4804   1.012   0.047   9.566
  991SOL     OW 4805   8.908  12.543   6.316
  991SOL    HW1 4806   8.829  12.497   6.344
  991SOL    HW2 4807   8.980  12.490   6.348
  992SOL     OW 4808  10.905  13.590  14.696
  992SOL    HW1 4809  10.865  13.539  14.766
  992SOL    HW2 4810  10.918  13.526  14.625
  993SOL     OW 4811  12.720  12.623   3.679
  993SOL    HW1 4812  12.715  12.534   3.644
  993SOL    HW2 4813  12.680  12.677   3.611
  994SOL     OW 4814   3.269   0.135   1.623
  994SOL    HW1 4815   3.319   0.059   1.654
  994SOL    HW2 4816   3.323   0.171   1.553
  995SOL     OW 4817  14.080  13.233  10.038
  995SOL    HW1 4818  14.138  13.177  10.089
  995SOL    HW2 4819  14.132  13.261   9.963
  996SOL     OW 4820  13.803   1.000  13.478
  996SOL    HW1 4821  13.859   0.969  13.408
  996SOL    HW2 4822  13.751   1.070  13.438
  997SOL     OW 4823  13.576   6.930  13.562
  997SOL    HW1 4824  13.551   6.891  13.478
  997SOL    HW2 4825  13.631   7.005  13.537
  998SOL     OW 4826  12.942   6.324  14.291
  998SOL    HW1 4827  12.873   6.271  14.251
  998SOL    HW2 4828  12.903   6.354  14.373
  999SOL     OW 4829   1.177   5.626   5.600
  999SOL    HW1 4830   1.220   5.707   5.627
  999SOL    HW2 4831   1.097   5.623   5.651
 1000SOL     OW 4832   9.950  12.480  10.392
 1000SOL    HW1 4833   9.902  12.547  10.343
 1000SOL    HW2 4834   9.882  12.425  10.431
 1001SOL     OW 4835   4.340   0.635   3.295
 1001SOL    HW1 4836   4.286   0.568   3.336
 1001SOL    HW2 4837   4.279   0.704   3.268
 1002SOL     OW 4838   2.724   9.454   1.070
 1002SOL    HW1 4839   2.788   9.439   1.139
 1002SOL    HW2 4840   2.678   9.533   1.097
 1003SOL     OW 4841  12.831  10.388  14.671
 1003SOL    HW1 4842  12.777  10.311  14.651
 1003SOL    HW2 4843  12.783  10.461  14.632
 1004SOL     OW 4844   4.796   9.215   0.360
 1004SOL    HW1 4845   4.783   9.130   0.318
 1004SOL    HW2 4846   4.708   9.251   0.370
 1005SOL     OW 4847   0.879   3.908  11.503
 1005SOL    HW1 4848   0.855   3.888  11.594
 1005SOL    HW2 4849   0.895   4.002  11.503
 1006SOL     OW 4850   8.974   2.923  10.152
 1006SOL    HW1 4851   8.989   2.970  10.233
 1006SOL    HW2 4852   9.055   2.873  10.138
 1007SOL     OW 4853   7.467  11.154  10.656
 1007SOL    HW1 4854   7.399  11.189  10.598
 1007SOL    HW2 4855   7.445  11.061  10.664
 1008SOL     OW 4856   2.706  13.812  12.669
 1008SOL    HW1 4857   2.690  13.718  12.677
 1008SOL    HW2 4858   2.782  13.819  12.612
 1009SOL     OW 4859   3.186   4.583  13.795
 1009SOL    HW1 4860   3.228   4.660  13.757
 1009SOL    HW2 4861   3.094   4.590  13.769
 1010SOL     OW 4862   5.601   6.380   2.601
 1010SOL    HW1 4863   5.574   6.296   2.638
 1010SOL    HW2 4864   5.599   6.365   2.506
 1011SOL     OW 4865  13.152   4.827   2.599
 1011SOL    HW1 4866  13.137   4.805   2.691
 1011SOL    HW2 4867  13.213   4.901   2.601
 1012SOL     OW 4868   3.561   5.635  12.012
 1012SOL    HW1 4869   3.614   5.714  12.003
 1012SOL    HW2 4870   3.586   5.598  12.096
 1013SOL     OW 4871   7.890   0.140   4.112
 1013SOL    HW1 4872   7.878   0.067   4.051
 1013SOL    HW2 4873   7.869   0.103   4.198
 1014SOL     OW 4874   8.442   2.435   5.295
 1014SOL    HW1 4875   8.438   2.356   5.350
 1014SOL    HW2 4876   8.532   2.464   5.303
 1015SOL     OW 4877   7.153   2.969   0.145
 1015SOL    HW1 4878   7.085   2.917   0.187
 1015SOL    HW2 4879   7.109   3.014   0.073
 1016SOL     OW 4880   1.206  10.860   1.145
 1016SOL    HW1 4881   1.285  10.891   1.102
 1016SOL    HW2 4882   1.135  10.905   1.099
 1017SOL     OW 4883   5.383  11.611   0.314
 1017SOL    HW1 4884   5.442  11.549   0.356
 1017SOL    HW2 4885   5.437  11.689   0.300
 1018SOL     OW 4886   5.365   8.224  11.163
 1018SOL    HW1 4887   5.461   8.219  11.160
 1018SOL    HW2 4888   5.343   8.201  11.253
 1019SOL     OW 4889   7.748   8.877   7.413
 1019SOL    HW1 4890   7.800   8.814   7.363
 1019SOL    HW2 4891   7.659   8.868   7.378
 1020SOL     OW 4892   9.177   9.805  12.017
 1020SOL    HW1 4893   9.232   9.764  12.084
 1020SOL    HW2 4894   9.087   9.794  12.049
 1021SOL     OW 4895   6.493   0.783  10.585
 1021SOL    HW1 4896   6.582   0.756  10.560
 1021SOL    HW2 4897   6.504   0.871  10.621
 1022SOL     OW 4898   4.446  13.707   2.480
 1022SOL    HW1 4899   4.499  13.729   2.557
 1022SOL    HW2 4900   4.506  13.718   2.406
 1023SOL     OW 4901   4.930   4.987   1.814
 1023SOL    HW1 4902   4.838   5.012   1.812
 1023SOL    HW2 4903   4.975   5.057   1.765
 1024SOL     OW 4904  12.319  12.310  12.480
 1024SOL    HW1 4905  12.363  12.231  12.512
 1024SOL    HW2 4906  12.228  12.284  12.466
 1025SOL     OW 4907  12.047   1.151   0.966
 1025SOL    HW1 4908  11.966   1.101   0.982
 1025SOL    HW2 4909  12.035   1.190   0.880
 1026SOL     OW 4910   3.935   9.064   6.796
 1026SOL    HW1 4911   3.903   9.148   6.829
 1026SOL    HW2 4912   3.949   9.080   6.702
 1027SOL     OW 4913   1.433   9.557   1.163
 1027SOL    HW1 4914   1.502   9.509   1.209
 1027SOL    HW2 4915   1.358   9.553   1.222
 1028SOL     OW 4916   0.410  10.805  10.719
 1028SOL    HW1 4917   0.499  10.781  10.748
 1028SOL    HW2 4918   0.352  10.757  10.778
 1029SOL     OW 4919   7.460   4.351   6.709
 1029SOL    HW1 4920   7.390   4.300   6.668
 1029SOL    HW2 4921   7.538   4.331   6.657
 1030SOL     OW 4922   8.865   9.589  10.312
 1030SOL    HW1 4923   8.861   9.663  10.251
 1030SOL    HW2 4924   8.796   9.607  10.376
 1031SOL     OW 4925  14.592   3.923  12.963
 1031SOL    HW1 4926  14.568   3.917  13.055
 1031SOL    HW2 4927  14.548   3.848  12.922
 1032SOL     OW 4928  11.109   9.877   9.820
 1032SOL    HW1 4929  11.159   9.803   9.787
 1032SOL    HW2 4930  11.135   9.950   9.765
 1033SOL     OW 4931   5.961  11.177   4.269
 1033SOL    HW1 4932   5.981  11.186   4.176
 1033SOL    HW2 4933   5.878  11.222   4.281
 1034SOL     OW 4934   7.516   3.916   5.004
 1034SOL    HW1 4935   7.581   3.985   5.015
 1034SOL    HW2 4936   7.506   3.907   4.909
 1035SOL     OW 4937   6.179   2.280   1.674
 1035SOL    HW1 4938   6.268   2.274   1.709
 1035SOL    HW2 4939   6.168   2.199   1.624
 1036SOL     OW 4940  12.323   3.343  14.425
 1036SOL    HW1 4941  12.261   3.280  14.462
 1036SOL    HW2 4942  12.381   3.365  14.498
 1037SOL     OW 4943   8.723   8.815   7.938
 1037SOL    HW1 4944   8.742   8.813   8.032
 1037SOL    HW2 4945   8.711   8.723   7.914
 1038SOL     OW 4946   1.880  12.178   5.403
 1038SOL    HW1 4947   1.945  12.110   5.421
 1038SOL    HW2 4948   1.832  12.145   5.327
 1039SOL     OW 4949   7.638   6.232  12.958
 1039SOL    HW1 4950   7.726   6.212  12.926
 1039SOL    HW2 4951   7.634   6.328  12.955
 1040SOL     OW 4952   8.462   1.646   8.938
 1040SOL    HW1 4953   8.423   1.624   8.854
 1040SOL    HW2 4954   8.553   1.668   8.918
 1041SOL     OW 4955  11.175   2.696   7.987
 1041SOL    HW1 4956  11.166   2.755   8.061
 1041SOL    HW2 4957  11.251   2.642   8.007
 1042SOL     OW 4958   7.789   2.296  13.343
 1042SOL    HW1 4959   7.737   2.216  13.342
 1042SOL    HW2 4960   7.813   2.308  13.435
 1043SOL     OW 4961   0.265   5.499   0.041
 1043SOL    HW1 4962   0.267   5.407   0.015
 1043SOL    HW2 4963   0.172   5.520   0.050
 1044SOL     OW 4964   2.526   6.409   9.204
 1044SOL    HW1 4965   2.598   6.473   9.203
 1044SOL    HW2 4966   2.570   6.324   9.210
 1045SOL     OW 4967  11.259   9.495   7.547
 1045SOL    HW1 4968  11.265   9.401   7.530
 1045SOL    HW2 4969  11.334   9.514   7.604
 1046SOL     OW 4970   5.613   6.737   5.987
 1046SOL    HW1 4971   5.607   6.723   6.082
 1046SOL    HW2 4972   5.527   6.711   5.954
 1047SOL     OW 4973   0.807   3.815  11.763
 1047SOL    HW1 4974   0.718   3.832  11.733
 1047SOL    HW2 4975   0.802   3.823  11.858
 1048SOL     OW 4976  11.189   4.283   6.445
 1048SOL    HW1 4977  11.265   4.227   6.429
 1048SOL    HW2 4978  11.208   4.364   6.399
 1049SOL     OW 4979  12.079  14.720   9.442
 1049SOL    HW1 4980  12.046  14.763   9.521
 1049SOL    HW2 4981  12.156  14.772   9.417
 1050SOL     OW 4982  14.761  12.309  10.809
 1050SOL    HW1 4983  14.825  12.246  10.776
 1050SOL    HW2 4984  14.786  12.392  10.768
 1051SOL     OW 4985  10.409  14.612   1.496
 1051SOL    HW1 4986  10.474  14.573   1.437
 1051SOL    HW2 4987  10.394  14.544   1.563
 1052SOL     OW 4988  13.340   8.109   2.941
 1052SOL    HW1 4989  13.357   8.015   2.932
 1052SOL    HW2 4990  13.291   8.132   2.862
 1053SOL     OW 4991  12.543   9.618   0.377
 1053SOL    HW1 4992  12.503   9.683   0.435
 1053SOL    HW2 4993  12.480   9.607   0.306
 1054SOL     OW 4994   0.004   4.369  14.108
 1054SOL    HW1 4995  14.808   4.394  14.170
 1054SOL    HW2 4996   0.079   4.349  14.163
 1055SOL     OW 4997   7.881  10.930  11.708
 1055SOL    HW1 4998   7.957  10.942  11.765
 1055SOL    HW2 4999   7.806  10.948  11.765
 1056SOL     OW 5000   9.979   2.711   8.528
 1056SOL    HW1 5001   9.913   2.643   8.540
 1056SOL    HW2 5002  10.011   2.729   8.616
 1057SOL     OW 5003  14.837  11.751   4.095
 1057SOL    HW1 5004  14.777  11.677   4.095
 1057SOL    HW2 5005   0.043  11.719   4.139
 1058SOL     OW 5006   8.335   7.786   3.331
 1058SOL    HW1 5007   8.276   7.773   3.257
 1058SOL    HW2 5008   8.372   7.699   3.347
 1059SOL     OW 5009   4.169  13.202  10.046
 1059SOL    HW1 5010   4.247  13.197  10.101
 1059SOL    HW2 5011   4.127  13.284  10.072
 1060SOL     OW 5012   8.252   9.727   6.062
 1060SOL    HW1 5013   8.267   9.650   6.118
 1060SOL    HW2 5014   8.285   9.800   6.114
 1061SOL     OW 5015   7.516  11.611   2.230
 1061SOL    HW1 5016   7.587  11.569   2.180
 1061SOL    HW2 5017   7.447  11.626   2.166
 1062SOL     OW 5018  10.001   6.781   0.373
 1062SOL    HW1 5019  10.008   6.691   0.404
 1062SOL    HW2 5020  10.028   6.834   0.447
 1063SOL     OW 5021  11.000   8.099   7.109
 1063SOL    HW1 5022  11.071   8.113   7.046
 1063SOL    HW2 5023  11.039   8.116   7.194
 1064SOL     OW 5024   0.516   1.667  11.202
 1064SOL    HW1 5025   0.424   1.680  11.226
 1064SOL    HW2 5026   0.558   1.636  11.282
 1065SOL     OW 5027   8.805  14.530   4.670
 1065SOL    HW1 5028   8.848  14.616   4.672
 1065SOL    HW2 5029   8.823  14.496   4.583
 1066SOL     OW 5030  12.703   1.261   9.899
 1066SOL    HW1 5031  12.781   1.211   9.874
 1066SOL    HW2 5032  12.681   1.229   9.987
 1067SOL     OW 5033   8.350   1.876   8.492
 1067SOL    HW1 5034   8.416   1.848   8.556
 1067SOL    HW2 5035   8.349   1.972   8.498
 1068SOL     OW 5036   5.614   1.910   9.166
 1068SOL    HW1 5037   5.564   1.970   9.220
 1068SOL    HW2 5038   5.550   1.844   9.138
 1069SOL     OW 5039   8.126   0.461  12.562
 1069SOL    HW1 5040   8.061   0.391  12.564
 1069SOL    HW2 5041   8.103   0.517  12.636
 1070SOL     OW 5042   5.244   5.663   8.404
 1070SOL    HW1 5043   5.173   5.648   8.341
 1070SOL    HW2 5044   5.225   5.603   8.476
 1071SOL     OW 5045  14.222   5.843   4.771
 1071SOL    HW1 5046  14.211   5.928   4.813
 1071SOL    HW2 5047  14.192   5.780   4.837
 1072SOL     OW 5048   7.260   7.472   7.840
 1072SOL    HW1 5049   7.327   7.524   7.884
 1072SOL    HW2 5050   7.289   7.381   7.849
 1073SOL     OW 5051   6.912  13.613  14.830
 1073SOL    HW1 5052   6.942  13.667  14.757
 1073SOL    HW2 5053   6.857  13.546  14.789
 1074SOL     OW 5054   7.050   9.291  10.098
 1074SOL    HW1 5055   7.089   9.369  10.059
 1074SOL    HW2 5056   7.037   9.231  10.025
 1075SOL     OW 5057   7.878  10.288   9.322
 1075SOL    HW1 5058   7.917  10.351   9.261
 1075SOL    HW2 5059   7.814  10.240   9.270
 1076SOL     OW 5060   0.180   9.015   7.462
 1076SOL    HW1 5061   0.173   9.086   7.526
 1076SOL    HW2 5062   0.270   8.984   7.471
 1077SOL     OW 5063   8.369   1.880   2.691
 1077SOL    HW1 5064   8.440   1.918   2.744
 1077SOL    HW2 5065   8.346   1.950   2.630
 1078SOL     OW 5066   0.338   9.924  13.417
 1078SOL    HW1 5067   0.254   9.880  13.406
 1078SOL    HW2 5068   0.391   9.863  13.469
 1079SOL     OW 5069   2.753   3.049   2.154
 1079SOL    HW1 5070   2.818   3.119   2.145
 1079SOL    HW2 5071   2.804   2.970   2.170
 1080SOL     OW 5072   9.154   1.618  14.121
 1080SOL    HW1 5073   9.148   1.526  14.094
 1080SOL    HW2 5074   9.097   1.624  14.198
 1081SOL     OW 5075   6.772   5.570   3.397
 1081SOL    HW1 5076   6.749   5.597   3.486
 1081SOL    HW2 5077   6.863   5.598   3.386
 1082SOL     OW 5078   9.394   5.284   2.692
 1082SOL    HW1 5079   9.345   5.311   2.770
 1082SOL    HW2 5080   9.453   5.357   2.674
 1083SOL     OW 5081   5.727   3.860   5.766
 1083SOL    HW1 5082   5.675   3.782   5.786
 1083SOL    HW2 5083   5.677   3.933   5.802
 1084SOL     OW 5084   1.893   6.166   5.883
 1084SOL    HW1 5085   1.940   6.185   5.802
 1084SOL    HW2 5086   1.857   6.078   5.870
 1085SOL     OW 5087  11.540  13.952  12.422
 1085SOL    HW1 5088  11.630  13.973  12.445
 1085SOL    HW2 5089  11.533  13.857  12.432
 1086SOL     OW 5090   3.493  13.832   2.170
 1086SOL    HW1 5091   3.480  13.776   2.094
 1086SOL    HW2 5092   3.586  13.820   2.193
 1087SOL     OW 5093   9.951   8.922   8.008
 1087SOL    HW1 5094  10.025   8.925   7.946
 1087SOL    HW2 5095   9.883   8.973   7.964
 1088SOL     OW 5096  10.730  14.088   2.954
 1088SOL    HW1 5097  10.786  14.027   2.906
 1088SOL    HW2 5098  10.789  14.160   2.979
 1089SOL     OW 5099   5.798  11.956  10.812
 1089SOL    HW1 5100   5.865  11.972  10.746
 1089SOL    HW2 5101   5.839  11.980  10.895
 1090SOL     OW 5102   7.241   5.279   3.979
 1090SOL    HW1 5103   7.292   5.261   3.899
 1090SOL    HW2 5104   7.270   5.213   4.041
 1091SOL     OW 5105   4.158   3.210   0.229
 1091SOL    HW1 5106   4.094   3.139   0.240
 1091SOL    HW2 5107   4.109   3.289   0.250
 1092SOL     OW 5108   3.942  12.219  11.350
 1092SOL    HW1 5109   3.872  12.247  11.409
 1092SOL    HW2 5110   3.923  12.128  11.331
 1093SOL     OW 5111   7.166   7.727   5.129
 1093SOL    HW1 5112   7.166   7.664   5.200
 1093SOL    HW2 5113   7.249   7.713   5.084
 1094SOL     OW 5114   8.212   0.369   9.591
 1094SOL    HW1 5115   8.129   0.321   9.593
 1094SOL    HW2 5116   8.279   0.301   9.603
 1095SOL     OW 5117   2.447   3.984   7.463
 1095SOL    HW1 5118   2.393   3.930   7.406
 1095SOL    HW2 5119   2.397   3.992   7.544
 1096SOL     OW 5120  14.868   4.312   0.612
 1096SOL    HW1 5121  14.868   4.345   0.522
 1096SOL    HW2 5122  14.842   4.220   0.604
 1097SOL     OW 5123  13.256   2.574   2.259
 1097SOL    HW1 5124  13.230   2.607   2.173
 1097SOL    HW2 5125  13.324   2.635   2.289
 1098SOL     OW 5126   7.335  14.685   0.852
 1098SOL    HW1 5127   7.346  14.760   0.793
 1098SOL    HW2 5128   7.398  14.621   0.820
 1099SOL     OW 5129  14.728  11.835   2.216
 1099SOL    HW1 5130  14.816  11.867   2.234
 1099SOL    HW2 5131  14.731  11.742   2.239
 1100SOL     OW 5132  11.039   9.554  11.226
 1100SOL    HW1 5133  11.072   9.615  11.292
 1100SOL    HW2 5134  11.026   9.472  11.274
 1101SOL     OW 5135   6.287   7.851   9.287
 1101SOL    HW1 5136   6.248   7.873   9.372
 1101SOL    HW2 5137   6.234   7.900   9.223
 1102SOL     OW 5138   1.071   6.395   9.392
 1102SOL    HW1 5139   1.110   6.457   9.331
 1102SOL    HW2 5140   1.118   6.409   9.474
 1103SOL     OW 5141   8.133   7.749   7.649
 1103SOL    HW1 5142   8.191   7.773   7.721
 1103SOL    HW2 5143   8.191   7.740   7.573
 1104SOL     OW 5144  12.861   1.757   7.978
 1104SOL    HW1 5145  12.802   1.688   7.947
 1104SOL    HW2 5146  12.842   1.832   7.922
 1105SOL     OW 5147  13.976   8.697   4.502
 1105SOL    HW1 5148  14.068   8.714   4.521
 1105SOL    HW2 5149  13.941   8.781   4.472
 1106SOL     OW 5150   5.297  13.151  14.397
 1106SOL    HW1 5151   5.313  13.126  14.306
 1106SOL    HW2 5152   5.381  13.185  14.428
 1107SOL     OW 5153   3.141   2.703   9.948
 1107SOL    HW1 5154   3.162   2.708  10.041
 1107SOL    HW2 5155   3.202   2.637   9.914
 1108SOL     OW 5156   6.129   4.106   5.524
 1108SOL    HW1 5157   6.099   4.105   5.433
 1108SOL    HW2 5158   6.091   4.028   5.563
 1109SOL     OW 5159   9.203  13.465  10.955
 1109SOL    HW1 5160   9.218  13.480  10.862
 1109SOL    HW2 5161   9.271  13.515  10.999
 1110SOL     OW 5162  13.411  12.259  13.817
 1110SOL    HW1 5163  13.437  12.223  13.732
 1110SOL    HW2 5164  13.380  12.183  13.866
 1111SOL     OW 5165  10.899  12.757   8.457
 1111SOL    HW1 5166  10.992  12.736   8.454
 1111SOL    HW2 5167  10.895  12.851   8.442
 1112SOL     OW 5168   5.145   0.265   0.003
 1112SOL    HW1 5169   5.184   0.352   0.001
 1112SOL    HW2 5170   5.135   0.241  14.784
 1113SOL     OW 5171   1.987  12.462   4.525
 1113SOL    HW1 5172   1.950  12.472   4.437
 1113SOL    HW2 5173   2.081  12.470   4.512
 1114SOL     OW 5174  11.973   9.910   2.966
 1114SOL    HW1 5175  12.027   9.835   2.942
 1114SOL    HW2 5176  11.966   9.961   2.886
 1115SOL     OW 5177   5.993   0.945  10.979
 1115SOL    HW1 5178   5.910   0.976  11.016
 1115SOL    HW2 5179   5.969   0.916  10.890
 1116SOL     OW 5180  13.448   8.490  13.939
 1116SOL    HW1 5181  13.431   8.407  13.983
 1116SOL    HW2 5182  13.412   8.556  13.997
 1117SOL     OW 5183   4.147   5.147  13.153
 1117SOL    HW1 5184   4.077   5.087  13.130
 1117SOL    HW2 5185   4.105   5.215  13.206
 1118SOL     OW 5186   5.203   7.532   4.900
 1118SOL    HW1 5187   5.227   7.447   4.938
 1118SOL    HW2 5188   5.150   7.574   4.968
 1119SOL     OW 5189   9.683   7.462  14.704
 1119SOL    HW1 5190   9.775   7.483  14.688
 1119SOL    HW2 5191   9.674   7.371  14.674
 1120SOL     OW 5192   7.538  11.255  12.259
 1120SOL    HW1 5193   7.510  11.276  12.170
 1120SOL    HW2 5194   7.632  11.237  12.251
 1121SOL     OW 5195   3.910  13.810   1.332
 1121SOL    HW1 5196   3.829  13.799   1.282
 1121SOL    HW2 5197   3.908  13.738   1.395
 1122SOL     OW 5198   6.900  10.032   1.911
 1122SOL    HW1 5199   6.872  10.074   1.992
 1122SOL    HW2 5200   6.846   9.954   1.904
 1123SOL     OW 5201  13.455   8.853   1.658
 1123SOL    HW1 5202  13.447   8.786   1.590
 1123SOL    HW2 5203  13.462   8.803   1.740
 1124SOL     OW 5204   5.873  10.605  12.692
 1124SOL    HW1 5205   5.820  10.540  12.738
 1124SOL    HW2 5206   5.892  10.672  12.758
 1125SOL     OW 5207  10.148   6.889   5.737
 1125SOL    HW1 5208  10.107   6.975   5.744
 1125SOL    HW2 5209  10.114   6.840   5.812
 1126SOL     OW 5210   8.566   7.563   9.564
 1126SOL    HW1 5211   8.491   7.578   9.621
 1126SOL    HW2 5212   8.627   7.512   9.617
 1127SOL     OW 5213   2.301   4.413  10.765
 1127SOL    HW1 5214   2.258   4.398  10.849
 1127SOL    HW2 5215   2.248   4.364  10.701
 1128SOL     OW 5216   3.409   9.267  12.343
 1128SOL    HW1 5217   3.496   9.304  12.327
 1128SOL    HW2 5218   3.356   9.341  12.370
 1129SOL     OW 5219   6.646   3.840  11.057
 1129SOL    HW1 5220   6.661   3.921  11.106
 1129SOL    HW2 5221   6.670   3.861  10.967
 1130SOL     OW 5222   1.950   2.645   0.939
 1130SOL    HW1 5223   1.868   2.680   0.972
 1130SOL    HW2 5224   2.016   2.674   1.002
 1131SOL     OW 5225  14.793   3.216  11.446
 1131SOL    HW1 5226  14.726   3.283  11.431
 1131SOL    HW2 5227  14.817   3.187  11.359
 1132SOL     OW 5228   6.734   5.371  11.049
 1132SOL    HW1 5229   6.805   5.432  11.027
 1132SOL    HW2 5230   6.705   5.399  11.136
 1133SOL     OW 5231   9.429   1.596   8.973
 1133SOL    HW1 5232   9.483   1.674   8.957
 1133SOL    HW2 5233   9.417   1.594   9.068
 1134SOL     OW 5234  14.344   2.433   6.528
 1134SOL    HW1 5235  14.405   2.374   6.485
 1134SOL    HW2 5236  14.397   2.507   6.556
 1135SOL     OW 5237  10.291  13.907   0.449
 1135SOL    HW1 5238  10.301  13.849   0.525
 1135SOL    HW2 5239  10.357  13.877   0.387
 1136SOL     OW 5240  12.599  13.702   1.345
 1136SOL    HW1 5241  12.692  13.686   1.328
 1136SOL    HW2 5242  12.556  13.621   1.317
 1137SOL     OW 5243  13.127   7.779   9.121
 1137SOL    HW1 5244  13.097   7.858   9.077
 1137SOL    HW2 5245  13.210   7.804   9.162
 1138SOL     OW 5246   9.073   6.173   6.659
 1138SOL    HW1 5247   9.010   6.107   6.688
 1138SOL    HW2 5248   9.158   6.130   6.664
 1139SOL     OW 5249   2.047  14.784  13.377
 1139SOL    HW1 5250   1.962  14.742  13.388
 1139SOL    HW2 5251   2.052  14.804  13.283
 1140SOL     OW 5252  13.152  13.754   2.215
 1140SOL    HW1 5253  13.135  13.661   2.230
 1140SOL    HW2 5254  13.102  13.776   2.136
 1141SOL     OW 5255   1.783   9.448  14.599
 1141SOL    HW1 5256   1.790   9.444  14.504
 1141SOL    HW2 5257   1.800   9.539  14.621
 1142SOL     OW 5258  12.837   8.443  12.132
 1142SOL    HW1 5259  12.931   8.433  12.149
 1142SOL    HW2 5260  12.807   8.354  12.114
 1143SOL     OW 5261  11.637   6.532   1.876
 1143SOL    HW1 5262  11.562   6.529   1.935
 1143SOL    HW2 5263  11.690   6.456   1.902
 1144SOL     OW 5264   9.228   1.009   4.649
 1144SOL    HW1 5265   9.161   1.022   4.716
 1144SOL    HW2 5266   9.225   0.915   4.631
 1145SOL     OW 5267  12.643  11.773  13.329
 1145SOL    HW1 5268  12.651  11.678  13.320
 1145SOL    HW2 5269  12.584  11.799  13.259
 1146SOL     OW 5270  11.373  13.564   5.790
 1146SOL    HW1 5271  11.434  13.593   5.722
 1146SOL    HW2 5272  11.409  13.480   5.820
 1147SOL     OW 5273  13.616   4.243   2.146
 1147SOL    HW1 5274  13.526   4.263   2.173
 1147SOL    HW2 5275  13.617   4.148   2.134
 1148SOL     OW 5276   4.858   2.017   6.763
 1148SOL    HW1 5277   4.931   1.958   6.780
 1148SOL    HW2 5278   4.898   2.095   6.725
 1149SOL     OW 5279  11.309   4.384   5.577
 1149SOL    HW1 5280  11.277   4.300   5.609
 1149SOL    HW2 5281  11.402   4.385   5.599
 1150SOL     OW 5282   8.754   9.425   1.868
 1150SOL    HW1 5283   8.824   9.413   1.932
 1150SOL    HW2 5284   8.756   9.518   1.847
 1151SOL     OW 5285   0.155   9.422  12.652
 1151SOL    HW1 5286   0.088   9.483  12.679
 1151SOL    HW2 5287   0.224   9.431  12.718
 1152SOL     OW 5288   1.347  12.792  11.396
 1152SOL    HW1 5289   1.396  12.781  11.478
 1152SOL    HW2 5290   1.380  12.723  11.339
 1153SOL     OW 5291   9.042   8.410   1.720
 1153SOL    HW1 5292   9.116   8.470   1.726
 1153SOL    HW2 5293   9.002   8.412   1.807
 1154SOL     OW 5294   4.955   7.472   6.183
 1154SOL    HW1 5295   5.047   7.481   6.208
 1154SOL    HW2 5296   4.941   7.377   6.180
 1155SOL     OW 5297   5.998   3.331   8.473
 1155SOL    HW1 5298   5.925   3.351   8.532
 1155SOL    HW2 5299   5.966   3.258   8.420
 1156SOL     OW 5300   0.544   9.661  13.135
 1156SOL    HW1 5301   0.556   9.580  13.185
 1156SOL    HW2 5302   0.549   9.731  13.200
 1157SOL     OW 5303   8.132   4.756   5.735
 1157SOL    HW1 5304   8.104   4.807   5.658
 1157SOL    HW2 5305   8.150   4.669   5.700
 1158SOL     OW 5306  12.014  11.189   8.402
 1158SOL    HW1 5307  12.048  11.100   8.418
 1158SOL    HW2 5308  11.922  11.184   8.428
 1159SOL     OW 5309  12.303   4.714   2.682
 1159SOL    HW1 5310  12.361   4.745   2.613
 1159SOL    HW2 5311  12.285   4.791   2.735
 1160SOL     OW 5312  14.164   6.340   7.736
 1160SOL    HW1 5313  14.137   6.313   7.824
 1160SOL    HW2 5314  14.183   6.258   7.691
 1161SOL     OW 5315   8.866   9.958   6.941
 1161SOL    HW1 5316   8.919   9.977   7.018
 1161SOL    HW2 5317   8.922   9.979   6.867
 1162SOL     OW 5318  14.130   4.317   1.929
 1162SOL    HW1 5319  14.216   4.312   1.972
 1162SOL    HW2 5320  14.085   4.388   1.973
 1163SOL     OW 5321   2.476  10.771   6.469
 1163SOL    HW1 5322   2.519  10.686   6.476
 1163SOL    HW2 5323   2.402  10.765   6.530
 1164SOL     OW 5324  13.518  11.333  10.768
 1164SOL    HW1 5325  13.509  11.418  10.725
 1164SOL    HW2 5326  13.610  11.311  10.758
 1165SOL     OW 5327   7.752  10.508  13.023
 1165SOL    HW1 5328   7.763  10.531  12.931
 1165SOL    HW2 5329   7.685  10.569  13.056
 1166SOL     OW 5330  14.312  12.117   4.534
 1166SOL    HW1 5331  14.245  12.167   4.580
 1166SOL    HW2 5332  14.394  12.161   4.554
 1167SOL     OW 5333  12.926  14.590   8.142
 1167SOL    HW1 5334  12.840  14.546   8.137
 1167SOL    HW2 5335  12.988  14.518   8.155
 1168SOL     OW 5336  12.073  11.270   4.907
 1168SOL    HW1 5337  12.119  11.273   4.823
 1168SOL    HW2 5338  12.142  11.252   4.971
 1169SOL     OW 5339  12.512   9.065   9.749
 1169SOL    HW1 5340  12.475   9.025   9.828
 1169SOL    HW2 5341  12.525   8.992   9.689
 1170SOL     OW 5342   8.378   0.901  12.542
 1170SOL    HW1 5343   8.340   0.989  12.549
 1170SOL    HW2 5344   8.352   0.858  12.624
 1171SOL     OW 5345   7.334  13.489  10.160
 1171SOL    HW1 5346   7.401  13.557  10.154
 1171SOL    HW2 5347   7.375  13.412  10.122
 1172SOL     OW 5348   1.459  10.846   6.535
 1172SOL    HW1 5349   1.404  10.913   6.577
 1172SOL    HW2 5350   1.496  10.796   6.607
 1173SOL     OW 5351  13.618   9.610   3.966
 1173SOL    HW1 5352  13.608   9.673   4.037
 1173SOL    HW2 5353  13.570   9.533   3.995
 1174SOL     OW 5354  12.465   3.925   4.836
 1174SOL    HW1 5355  12.552   3.889   4.856
 1174SOL    HW2 5356  12.484   4.006   4.788
 1175SOL     OW 5357  14.183   2.189   2.666
 1175SOL    HW1 5358  14.237   2.260   2.700
 1175SOL    HW2 5359  14.202   2.115   2.724
 1176SOL     OW 5360   0.028   4.012   8.471
 1176SOL    HW1 5361   0.044   4.092   8.519
 1176SOL    HW2 5362  14.806   3.998   8.478
 1177SOL     OW 5363  10.776   9.543   0.258
 1177SOL    HW1 5364  10.741   9.459   0.288
 1177SOL    HW2 5365  10.711   9.575   0.195
 1178SOL     OW 5366  11.501   5.387  14.551
 1178SOL    HW1 5367  11.406   5.395  14.548
 1178SOL    HW2 5368  11.516   5.300  14.589
 1179SOL     OW 5369   7.731   2.370   2.035
 1179SOL    HW1 5370   7.726   2.316   2.115
 1179SOL    HW2 5371   7.690   2.453   2.060
 1180SOL     OW 5372   2.692   0.565   9.126
 1180SOL    HW1 5373   2.669   0.472   9.127
 1180SOL    HW2 5374   2.784   0.567   9.152
 1181SOL     OW 5375  13.190  10.274   7.837
 1181SOL    HW1 5376  13.193  10.369   7.836
 1181SOL    HW2 5377  13.228  10.250   7.921
 1182SOL     OW 5378   8.608   1.531   4.959
 1182SOL    HW1 5379   8.611   1.626   4.956
 1182SOL    HW2 5380   8.660   1.502   4.884
 1183SOL     OW 5381   9.717   7.935  10.380
 1183SOL    HW1 5382   9.653   8.000  10.409
 1183SOL    HW2 5383   9.764   7.910  10.459
 1184SOL     OW 5384  12.613   0.804  10.261
 1184SOL    HW1 5385  12.708   0.806  10.252
 1184SOL    HW2 5386  12.597   0.816  10.355
 1185SOL     OW 5387   4.017   5.414  12.943
 1185SOL    HW1 5388   3.968   5.415  12.860
 1185SOL    HW2 5389   4.109   5.408  12.916
 1186SOL     OW 5390   9.798   8.783   2.803
 1186SOL    HW1 5391   9.770   8.846   2.737
 1186SOL    HW2 5392   9.891   8.803   2.817
 1187SOL     OW 5393   2.105   7.705  10.400
 1187SOL    HW1 5394   2.057   7.755  10.467
 1187SOL    HW2 5395   2.197   7.714  10.425
 1188SOL     OW 5396   7.330   5.160  13.261
 1188SOL    HW1 5397   7.275   5.228  13.301
 1188SOL    HW2 5398   7.361   5.199  13.180
 1189SOL     OW 5399   6.834   1.077   5.836
 1189SOL    HW1 5400   6.761   1.016   5.845
 1189SOL    HW2 5401   6.792   1.161   5.814
 1190SOL     OW 5402   8.218  12.389   2.044
 1190SOL    HW1 5403   8.171  12.399   1.961
 1190SOL    HW2 5404   8.302  12.350   2.021
 1191SOL     OW 5405  13.116   3.821  12.965
 1191SOL    HW1 5406  13.102   3.914  12.951
 1191SOL    HW2 5407  13.126   3.785  12.877
 1192SOL     OW 5408   2.358   2.911  11.308
 1192SOL    HW1 5409   2.314   2.829  11.330
 1192SOL    HW2 5410   2.290   2.978  11.316
 1193SOL     OW 5411   9.590  10.985   9.115
 1193SOL    HW1 5412   9.596  10.905   9.167
 1193SOL    HW2 5413   9.677  10.994   9.075
 1194SOL     OW 5414  11.482   0.531  10.710
 1194SOL    HW1 5415  11.448   0.615  10.740
 1194SOL    HW2 5416  11.427   0.510  10.634
 1195SOL     OW 5417   8.244   7.133  10.704
 1195SOL    HW1 5418   8.198   7.060  10.743
 1195SOL    HW2 5419   8.176   7.198  10.685
 1196SOL     OW 5420  13.060  10.319  13.802
 1196SOL    HW1 5421  13.054  10.405  13.759
 1196SOL    HW2 5422  12.971  10.299  13.830
 1197SOL     OW 5423   0.676   9.665   7.157
 1197SOL    HW1 5424   0.712   9.586   7.198
 1197SOL    HW2 5425   0.724   9.737   7.197
 1198SOL     OW 5426   9.029  14.000  12.826
 1198SOL    HW1 5427   8.944  13.965  12.802
 1198SOL    HW2 5428   9.017  14.095  12.827
 1199SOL     OW 5429  10.704   5.355  11.314
 1199SOL    HW1 5430  10.790   5.390  11.336
 1199SOL    HW2 5431  10.703   5.269  11.355
 1200SOL     OW 5432  10.677   0.633   6.126
 1200SOL    HW1 5433  10.761   0.588   6.121
 1200SOL    HW2 5434  10.651   0.627   6.218
 1201SOL     OW 5435   6.089  10.365   5.261
 1201SOL    HW1 5436   6.147  10.439   5.242
 1201SOL    HW2 5437   6.074  10.325   5.175
 1202SOL     OW 5438  13.376   5.134   5.257
 1202SOL    HW1 5439  13.447   5.087   5.214
 1202SOL    HW2 5440  13.317   5.065   5.289
 1203SOL     OW 5441   2.657  13.931   0.194
 1203SOL    HW1 5442   2.732  13.990   0.205
 1203SOL    HW2 5443   2.693  13.843   0.209
 1204SOL     OW 5444   5.234   2.092   2.126
 1204SOL    HW1 5445   5.305   2.035   2.095
 1204SOL    HW2 5446   5.155   2.055   2.087
 1205SOL     OW 5447  12.993  13.857   4.863
 1205SOL    HW1 5448  12.961  13.926   4.922
 1205SOL    HW2 5449  13.022  13.905   4.785
 1206SOL     OW 5450   9.309   5.027  14.148
 1206SOL    HW1 5451   9.295   5.000  14.058
 1206SOL    HW2 5452   9.349   5.114  14.142
 1207SOL     OW 5453   2.479   9.487   5.827
 1207SOL    HW1 5454   2.429   9.458   5.904
 1207SOL    HW2 5455   2.416   9.484   5.755
 1208SOL     OW 5456   6.672   5.435   8.345
 1208SOL    HW1 5457   6.693   5.353   8.390
 1208SOL    HW2 5458   6.747   5.451   8.288
 1209SOL     OW 5459   5.351  10.454  11.313
 1209SOL    HW1 5460   5.259  10.438  11.293
 1209SOL    HW2 5461   5.366  10.544  11.283
 1210SOL     OW 5462  10.920   7.596  10.684
 1210SOL    HW1 5463  10.828   7.612  10.662
 1210SOL    HW2 5464  10.966   7.674  10.654
 1211SOL     OW 5465   2.407  10.422   4.662
 1211SOL    HW1 5466   2.402  10.511   4.698
 1211SOL    HW2 5467   2.362  10.367   4.727
 1212SOL     OW 5468   7.427   7.624   6.255
 1212SOL    HW1 5469   7.389   7.645   6.340
 1212SOL    HW2 5470   7.407   7.532   6.241
 1213SOL     OW 5471   7.162   9.396  13.220
 1213SOL    HW1 5472   7.181   9.388  13.126
 1213SOL    HW2 5473   7.074   9.435  13.223
 1214SOL     OW 5474   2.491  10.220  10.358
 1214SOL    HW1 5475   2.406  10.254  10.386
 1214SOL    HW2 5476   2.553  10.252  10.423
 1215SOL     OW 5477   8.797  10.833   6.042
 1215SOL    HW1 5478   8.845  10.842   6.124
 1215SOL    HW2 5479   8.857  10.866   5.975
 1216SOL     OW 5480   9.492  12.769  12.926
 1216SOL    HW1 5481   9.482  12.679  12.957
 1216SOL    HW2 5482   9.425  12.779  12.859
 1217SOL     OW 5483   0.255   0.292   7.393
 1217SOL    HW1 5484   0.321   0.263   7.455
 1217SOL    HW2 5485   0.299   0.360   7.341
 1218SOL     OW 5486  14.129  12.095   7.743
 1218SOL    HW1 5487  14.053  12.137   7.783
 1218SOL    HW2 5488  14.190  12.083   7.816
 1219SOL     OW 5489  13.436   2.762   6.424
 1219SOL    HW1 5490  13.422   2.668   6.437
 1219SOL    HW2 5491  13.469   2.770   6.335
 1220SOL     OW 5492   9.589  11.937   0.821
 1220SOL    HW1 5493   9.611  12.010   0.878
 1220SOL    HW2 5494   9.499  11.954   0.793
 1221SOL     OW 5495   7.233   4.760   7.548
 1221SOL    HW1 5496   7.220   4.675   7.505
 1221SOL    HW2 5497   7.323   4.755   7.582
 1222SOL     OW 5498   2.397   2.982   8.648
 1222SOL    HW1 5499   2.384   2.945   8.561
 1222SOL    HW2 5500   2.487   3.014   8.647
 1223SOL     OW 5501   5.231   7.066   5.216
 1223SOL    HW1 5502   5.319   7.053   5.181
 1223SOL    HW2 5503   5.241   7.063   5.311
 1224SOL     OW 5504  12.331  14.711  14.800
 1224SOL    HW1 5505  12.377  14.794  14.812
 1224SOL    HW2 5506  12.354  14.684  14.711
 1225SOL     OW 5507  14.458  14.270   3.834
 1225SOL    HW1 5508  14.422  14.188   3.867
 1225SOL    HW2 5509  14.552  14.255   3.829
 1226SOL     OW 5510   4.870   1.804   3.142
 1226SOL    HW1 5511   4.784   1.834   3.173
 1226SOL    HW2 5512   4.856   1.713   3.118
 1227SOL     OW 5513   9.961   7.863   4.881
 1227SOL    HW1 5514   9.947   7.793   4.945
 1227SOL    HW2 5515   9.873   7.896   4.861
 1228SOL     OW 5516   7.179   4.262   2.555
 1228SOL    HW1 5517   7.264   4.237   2.519
 1228SOL    HW2 5518   7.124   4.184   2.545
 1229SOL     OW 5519   1.509   6.341  11.753
 1229SOL    HW1 5520   1.480   6.330  11.663
 1229SOL    HW2 5521   1.580   6.405  11.748
 1230SOL     OW 5522   0.479   8.225  11.933
 1230SOL    HW1 5523   0.458   8.258  11.846
 1230SOL    HW2 5524   0.570   8.250  11.947
 1231SOL     OW 5525  10.395  12.839   9.586
 1231SOL    HW1 5526  10.412  12.886   9.668
 1231SOL    HW2 5527  10.415  12.748   9.606
 1232SOL     OW 5528   0.697  11.108   2.160
 1232SOL    HW1 5529   0.609  11.146   2.166
 1232SOL    HW2 5530   0.755  11.176   2.192
 1233SOL     OW 5531   0.902   3.017   7.863
 1233SOL    HW1 5532   0.822   2.964   7.873
 1233SOL    HW2 5533   0.972   2.959   7.892
 1234SOL     OW 5534   9.835   3.728   7.402
 1234SOL    HW1 5535   9.752   3.775   7.408
 1234SOL    HW2 5536   9.900   3.789   7.437
 1235SOL     OW 5537   9.805   2.571  11.780
 1235SOL    HW1 5538   9.725   2.548  11.733
 1235SOL    HW2 5539   9.875   2.528  11.731
 1236SOL     OW 5540   4.322   3.434  11.991
 1236SOL    HW1 5541   4.393   3.469  12.045
 1236SOL    HW2 5542   4.261   3.397  12.055
 1237SOL     OW 5543  13.703   0.371  12.487
 1237SOL    HW1 5544  13.654   0.294  12.460
 1237SOL    HW2 5545  13.756   0.342  12.561
 1238SOL     OW 5546  10.626   1.451   1.071
 1238SOL    HW1 5547  10.674   1.376   1.035
 1238SOL    HW2 5548  10.611   1.508   0.995
 1239SOL     OW 5549   5.445   8.265   4.949
 1239SOL    HW1 5550   5.386   8.272   5.024
 1239SOL    HW2 5551   5.396   8.211   4.886
 1240SOL     OW 5552   6.634   2.754   7.290
 1240SOL    HW1 5553   6.727   2.771   7.307
 1240SOL    HW2 5554   6.626   2.659   7.297
 1241SOL     OW 5555  12.513   8.382  14.414
 1241SOL    HW1 5556  12.486   8.290  14.406
 1241SOL    HW2 5557  12.540   8.406  14.325
 1242SOL     OW 5558  13.461   7.488   2.560
 1242SOL    HW1 5559  13.415   7.481   2.476
 1242SOL    HW2 5560  13.537   7.430   2.551
 1243SOL     OW 5561   8.234   2.461   9.547
 1243SOL    HW1 5562   8.176   2.391   9.577
 1243SOL    HW2 5563   8.268   2.501   9.628
 1244SOL     OW 5564   7.457  11.527  12.011
 1244SOL    HW1 5565   7.489  11.594  11.950
 1244SOL    HW2 5566   7.500  11.447  11.983
 1245SOL     OW 5567   7.766  14.402   3.359
 1245SOL    HW1 5568   7.795  14.476   3.305
 1245SOL    HW2 5569   7.753  14.440   3.446
 1246SOL     OW 5570   4.277   1.486   5.678
 1246SOL    HW1 5571   4.288   1.404   5.629
 1246SOL    HW2 5572   4.186   1.483   5.707
 1247SOL     OW 5573   4.970   9.032   7.083
 1247SOL    HW1 5574   5.020   8.953   7.062
 1247SOL    HW2 5575   4.942   9.066   6.998
 1248SOL     OW 5576   2.061   9.400   4.503
 1248SOL    HW1 5577   2.038   9.420   4.594
 1248SOL    HW2 5578   2.066   9.485   4.459
 1249SOL     OW 5579   2.151   8.205   1.684
 1249SOL    HW1 5580   2.149   8.296   1.713
 1249SOL    HW2 5581   2.060   8.184   1.665
 1250SOL     OW 5582   7.637   9.559   2.906
 1250SOL    HW1 5583   7.698   9.486   2.894
 1250SOL    HW2 5584   7.625   9.595   2.818
 1251SOL     OW 5585   3.522   9.816   2.107
 1251SOL    HW1 5586   3.560   9.729   2.122
 1251SOL    HW2 5587   3.430   9.807   2.131
 1252SOL     OW 5588   6.923   7.966   1.497
 1252SOL    HW1 5589   6.998   8.006   1.542
 1252SOL    HW2 5590   6.905   7.887   1.548
 1253SOL     OW 5591  14.224   6.128   9.664
 1253SOL    HW1 5592  14.238   6.077   9.744
 1253SOL    HW2 5593  14.216   6.218   9.695
 1254SOL     OW 5594   8.032  12.196  12.211
 1254SOL    HW1 5595   8.028  12.291  12.205
 1254SOL    HW2 5596   8.124  12.177  12.232
 1255SOL     OW 5597   1.981  12.851  11.234
 1255SOL    HW1 5598   1.941  12.914  11.174
 1255SOL    HW2 5599   1.918  12.779  11.239
 1256SOL     OW 5600  13.121   7.709   4.145
 1256SOL    HW1 5601  13.182   7.778   4.119
 1256SOL    HW2 5602  13.146   7.688   4.236
 1257SOL     OW 5603   7.742   1.277   5.025
 1257SOL    HW1 5604   7.686   1.249   5.098
 1257SOL    HW2 5605   7.819   1.314   5.068
 1258SOL     OW 5606   0.976  14.126   1.669
 1258SOL    HW1 5607   0.905  14.079   1.712
 1258SOL    HW2 5608   1.045  14.060   1.657
 1259SOL     OW 5609   8.449   2.646   9.343
 1259SOL    HW1 5610   8.383   2.707   9.376
 1259SOL    HW2 5611   8.521   2.651   9.407
 1260SOL     OW 5612  13.429   2.806  14.140
 1260SOL    HW1 5613  13.450   2.740  14.205
 1260SOL    HW2 5614  13.509   2.857  14.131
 1261SOL     OW 5615  14.230  14.732   1.025
 1261SOL    HW1 5616  14.318  14.716   0.993
 1261SOL    HW2 5617  14.196  14.802   0.969
 1262SOL     OW 5618   8.301  12.694   6.456
 1262SOL    HW1 5619   8.249  12.699   6.537
 1262SOL    HW2 5620   8.350  12.775   6.454
 1263SOL     OW 5621   0.865  10.023   9.592
 1263SOL    HW1 5622   0.957   9.998   9.595
 1263SOL    HW2 5623   0.819   9.949   9.632
 1264SOL     OW 5624   1.488   6.750  14.113
 1264SOL    HW1 5625   1.463   6.829  14.066
 1264SOL    HW2 5626   1.525   6.782  14.196
 1265SOL     OW 5627   6.804  13.907  11.214
 1265SOL    HW1 5628   6.715  13.894  11.181
 1265SOL    HW2 5629   6.859  13.906  11.136
 1266SOL     OW 5630   7.295   7.327   0.367
 1266SOL    HW1 5631   7.230   7.386   0.404
 1266SOL    HW2 5632   7.244   7.259   0.324
 1267SOL     OW 5633   7.723  11.661   1.156
 1267SOL    HW1 5634   7.670  11.593   1.197
 1267SOL    HW2 5635   7.811  11.622   1.151
 1268SOL     OW 5636   5.424   3.763  11.991
 1268SOL    HW1 5637   5.423   3.668  11.981
 1268SOL    HW2 5638   5.515   3.788  11.975
 1269SOL     OW 5639   5.546  11.363   9.851
 1269SOL    HW1 5640   5.622  11.323   9.894
 1269SOL    HW2 5641   5.579  11.448   9.820
 1270SOL     OW 5642   6.837   9.438  11.099
 1270SOL    HW1 5643   6.784   9.508  11.137
 1270SOL    HW2 5644   6.776   9.365  11.087
 1271SOL     OW 5645  12.023   7.075   5.933
 1271SOL    HW1 5646  12.106   7.030   5.946
 1271SOL    HW2 5647  11.979   7.023   5.865
 1272SOL     OW 5648   1.842   3.037  12.969
 1272SOL    HW1 5649   1.787   2.989  12.907
 1272SOL    HW2 5650   1.931   3.013  12.945
 1273SOL     OW 5651  13.720   4.927   1.784
 1273SOL    HW1 5652  13.690   4.972   1.706
 1273SOL    HW2 5653  13.815   4.938   1.784
 1274SOL     OW 5654   9.568   3.744  14.652
 1274SOL    HW1 5655   9.477   3.773  14.648
 1274SOL    HW2 5656   9.564   3.656  14.690
 1275SOL     OW 5657  11.600   1.763   8.649
 1275SOL    HW1 5658  11.517   1.739   8.690
 1275SOL    HW2 5659  11.578   1.837   8.592
 1276SOL     OW 5660  11.898   7.351   3.034
 1276SOL    HW1 5661  11.912   7.378   2.943
 1276SOL    HW2 5662  11.976   7.383   3.081
 1277SOL     OW 5663   7.390   5.649  13.210
 1277SOL    HW1 5664   7.341   5.704  13.270
 1277SOL    HW2 5665   7.426   5.579  13.264
 1278SOL     OW 5666   2.435   0.296  13.553
 1278SOL    HW1 5667   2.502   0.365  13.548
 1278SOL    HW2 5668   2.374   0.317  13.482
 1279SOL     OW 5669  13.457   2.310   9.791
 1279SOL    HW1 5670  13.493   2.275   9.873
 1279SOL    HW2 5671  13.464   2.237   9.729
 1280SOL     OW 5672   6.983  10.584   4.722
 1280SOL    HW1 5673   6.989  10.618   4.633
 1280SOL    HW2 5674   7.000  10.490   4.713
 1281SOL     OW 5675  12.617   5.677   2.495
 1281SOL    HW1 5676  12.630   5.590   2.457
 1281SOL    HW2 5677  12.606   5.661   2.589
 1282SOL     OW 5678   8.692   6.939   5.695
 1282SOL    HW1 5679   8.739   6.873   5.645
 1282SOL    HW2 5680   8.621   6.891   5.738
 1283SOL     OW 5681  12.193   3.747   5.801
 1283SOL    HW1 5682  12.286   3.766   5.812
 1283SOL    HW2 5683  12.192   3.658   5.765
 1284SOL     OW 5684   3.736   8.187   2.868
 1284SOL    HW1 5685   3.739   8.233   2.785
 1284SOL    HW2 5686   3.704   8.252   2.931
 1285SOL     OW 5687  13.808   3.851   4.947
 1285SOL    HW1 5688  13.824   3.808   5.031
 1285SOL    HW2 5689  13.756   3.928   4.968
 1286SOL     OW 5690  12.927  14.328   0.766
 1286SOL    HW1 5691  12.933  14.406   0.711
 1286SOL    HW2 5692  12.973  14.260   0.716
 1287SOL     OW 5693   5.806  14.506  13.230
 1287SOL    HW1 5694   5.827  14.555  13.151
 1287SOL    HW2 5695   5.846  14.420  13.216
 1288SOL     OW 5696   3.800   3.237   5.177
 1288SOL    HW1 5697   3.738   3.234   5.250
 1288SOL    HW2 5698   3.827   3.329   5.173
 1289SOL     OW 5699   3.698  14.548  12.185
 1289SOL    HW1 5700   3.700  14.553  12.280
 1289SOL    HW2 5701   3.767  14.486  12.162
 1290SOL     OW 5702   5.561   0.685  10.554
 1290SOL    HW1 5703   5.619   0.678  10.629
 1290SOL    HW2 5704   5.618   0.715  10.482
 1291SOL     OW 5705  11.597   0.430  11.601
 1291SOL    HW1 5706  11.685   0.402  11.626
 1291SOL    HW2 5707  11.599   0.525  11.609
 1292SOL     OW 5708   3.889   8.733   5.841
 1292SOL    HW1 5709   3.803   8.738   5.882
 1292SOL    HW2 5710   3.904   8.821   5.806
 1293SOL     OW 5711  11.634   2.112   2.477
 1293SOL    HW1 5712  11.571   2.041   2.489
 1293SOL    HW2 5713  11.601   2.160   2.401
 1294SOL     OW 5714  12.083   2.238   2.709
 1294SOL    HW1 5715  12.020   2.167   2.704
 1294SOL    HW2 5716  12.044   2.308   2.655
 1295SOL     OW 5717   8.877   9.470   1.604
 1295SOL    HW1 5718   8.923   9.389   1.583
 1295SOL    HW2 5719   8.824   9.449   1.681
 1296SOL     OW 5720   1.732   8.997   8.894
 1296SOL    HW1 5721   1.656   9.030   8.943
 1296SOL    HW2 5722   1.698   8.922   8.845
 1297SOL     OW 5723   7.484   4.344   9.570
 1297SOL    HW1 5724   7.402   4.392   9.559
 1297SOL    HW2 5725   7.504   4.311   9.482
 1298SOL     OW 5726  10.200  10.422   4.033
 1298SOL    HW1 5727  10.283  10.375   4.025
 1298SOL    HW2 5728  10.178  10.449   3.943
 1299SOL     OW 5729  10.247  12.646   8.508
 1299SOL    HW1 5730  10.277  12.556   8.496
 1299SOL    HW2 5731  10.202  12.645   8.592
 1300SOL     OW 5732  10.613   9.244  14.651
 1300SOL    HW1 5733  10.623   9.335  14.680
 1300SOL    HW2 5734  10.598   9.251  14.557
 1301SOL     OW 5735  12.181  10.470   3.730
 1301SOL    HW1 5736  12.137  10.549   3.700
 1301SOL    HW2 5737  12.176  10.475   3.826
 1302SOL     OW 5738  10.167   7.229   0.763
 1302SOL    HW1 5739  10.218   7.172   0.820
 1302SOL    HW2 5740  10.233   7.282   0.717
 1303SOL     OW 5741   0.489   3.680   6.410
 1303SOL    HW1 5742   0.473   3.702   6.502
 1303SOL    HW2 5743   0.402   3.661   6.375
 1304SOL     OW 5744   6.684  10.135   6.034
 1304SOL    HW1 5745   6.597  10.156   6.069
 1304SOL    HW2 5746   6.686  10.039   6.032
 1305SOL     OW 5747  10.500   9.258   1.663
 1305SOL    HW1 5748  10.439   9.325   1.694
 1305SOL    HW2 5749  10.535   9.219   1.743
 1306SOL     OW 5750   1.398  12.150   6.702
 1306SOL    HW1 5751   1.408  12.191   6.788
 1306SOL    HW2 5752   1.303  12.135   6.694
 1307SOL     OW 5753   6.128  13.011   2.008
 1307SOL    HW1 5754   6.178  13.052   2.079
 1307SOL    HW2 5755   6.091  13.084   1.959
 1308SOL     OW 5756   9.217   9.225   5.630
 1308SOL    HW1 5757   9.225   9.186   5.543
 1308SOL    HW2 5758   9.197   9.317   5.614
 1309SOL     OW 5759   3.663   9.866   9.750
 1309SOL    HW1 5760   3.573   9.879   9.721
 1309SOL    HW2 5761   3.709   9.945   9.722
 1310SOL     OW 5762  11.519  14.384   5.788
 1310SOL    HW1 5763  11.438  14.432   5.805
 1310SOL    HW2 5764  11.511  14.354   5.698
 1311SOL     OW 5765   8.834  12.129   8.069
 1311SOL    HW1 5766   8.906  12.093   8.121
 1311SOL    HW2 5767   8.755  12.089   8.106
 1312SOL     OW 5768   4.036   4.587   2.083
 1312SOL    HW1 5769   3.966   4.522   2.095
 1312SOL    HW2 5770   4.045   4.594   1.988
 1313SOL     OW 5771   7.866   3.359   5.150
 1313SOL    HW1 5772   7.884   3.450   5.176
 1313SOL    HW2 5773   7.782   3.339   5.191
 1314SOL     OW 5774   1.888  14.029   1.849
 1314SOL    HW1 5775   1.809  14.079   1.829
 1314SOL    HW2 5776   1.881  13.952   1.792
 1315SOL     OW 5777  10.398  10.612   4.226
 1315SOL    HW1 5778  10.306  10.634   4.241
 1315SOL    HW2 5779  10.400  10.516   4.221
 1316SOL     OW 5780  10.830  12.466  13.258
 1316SOL    HW1 5781  10.771  12.521  13.309
 1316SOL    HW2 5782  10.791  12.464  13.170
 1317SOL     OW 5783  11.424   5.452   1.950
 1317SOL    HW1 5784  11.468   5.524   1.996
 1317SOL    HW2 5785  11.344   5.492   1.915
 1318SOL     OW 5786  14.686   9.405   2.357
 1318SOL    HW1 5787  14.740   9.344   2.407
 1318SOL    HW2 5788  14.596   9.386   2.386
 1319SOL     OW 5789   2.364   6.367   1.289
 1319SOL    HW1 5790   2.375   6.330   1.377
 1319SOL    HW2 5791   2.430   6.437   1.283
 1320SOL     OW 5792   2.939  13.428   4.653
 1320SOL    HW1 5793   2.849  13.459   4.641
 1320SOL    HW2 5794   2.961  13.386   4.570
 1321SOL     OW 5795   0.240   4.788  10.123
 1321SOL    HW1 5796   0.330   4.757  10.137
 1321SOL    HW2 5797   0.230   4.790  10.028
 1322SOL     OW 5798   0.958  10.730  13.593
 1322SOL    HW1 5799   1.031  10.788  13.617
 1322SOL    HW2 5800   0.957  10.663  13.661
 1323SOL     OW 5801   4.041  14.368   0.285
 1323SOL    HW1 5802   4.103  14.328   0.224
 1323SOL    HW2 5803   4.083  14.449   0.313
 1324SOL     OW 5804   1.477  11.049   1.839
 1324SOL    HW1 5805   1.451  11.127   1.888
 1324SOL    HW2 5806   1.424  10.978   1.874
 1325SOL     OW 5807   1.352   9.530   7.313
 1325SOL    HW1 5808   1.406   9.456   7.340
 1325SOL    HW2 5809   1.392   9.606   7.354
 1326SOL     OW 5810   2.463   4.620   0.190
 1326SOL    HW1 5811   2.402   4.647   0.121
 1326SOL    HW2 5812   2.455   4.525   0.192
 1327SOL     OW 5813  11.410   5.950  12.777
 1327SOL    HW1 5814  11.337   5.895  12.805
 1327SOL    HW2 5815  11.370   6.015  12.719
 1328SOL     OW 5816   1.622   5.876  12.371
 1328SOL    HW1 5817   1.664   5.894  12.455
 1328SOL    HW2 5818   1.583   5.959  12.345
 1329SOL     OW 5819   6.651   1.018   6.716
 1329SOL    HW1 5820   6.597   1.080   6.666
 1329SOL    HW2 5821   6.721   0.993   6.655
 1330SOL     OW 5822   8.458   7.712  12.860
 1330SOL    HW1 5823   8.527   7.662  12.816
 1330SOL    HW2 5824   8.482   7.803  12.846
 1331SOL     OW 5825   7.210   7.421   6.554
 1331SOL    HW1 5826   7.302   7.427   6.527
 1331SOL    HW2 5827   7.177   7.343   6.511
 1332SOL     OW 5828   5.976   1.408  13.877
 1332SOL    HW1 5829   5.963   1.472  13.946
 1332SOL    HW2 5830   6.068   1.420  13.851
 1333SOL     OW 5831   8.395   3.654   8.078
 1333SOL    HW1 5832   8.459   3.671   8.009
 1333SOL    HW2 5833   8.446   3.662   8.159
 1334SOL     OW 5834   7.928   0.124   0.921
 1334SOL    HW1 5835   7.903   0.216   0.908
 1334SOL    HW2 5836   7.978   0.125   1.002
 1335SOL     OW 5837  10.507  10.492  13.899
 1335SOL    HW1 5838  10.446  10.460  13.965
 1335SOL    HW2 5839  10.593  10.460  13.928
 1336SOL     OW 5840   6.117  10.440   6.721
 1336SOL    HW1 5841   6.128  10.458   6.814
 1336SOL    HW2 5842   6.023  10.428   6.709
 1337SOL     OW 5843   4.599  14.570   6.492
 1337SOL    HW1 5844   4.571  14.611   6.574
 1337SOL    HW2 5845   4.682  14.527   6.513
 1338SOL     OW 5846  12.878   1.034   7.339
 1338SOL    HW1 5847  12.913   1.122   7.323
 1338SOL    HW2 5848  12.880   1.025   7.434
 1339SOL     OW 5849   6.612   7.063   3.744
 1339SOL    HW1 5850   6.588   7.129   3.678
 1339SOL    HW2 5851   6.528   7.037   3.782
 1340SOL     OW 5852   5.206   7.190   9.703
 1340SOL    HW1 5853   5.203   7.282   9.730
 1340SOL    HW2 5854   5.126   7.152   9.738
 1341SOL     OW 5855   2.280   1.823  10.363
 1341SOL    HW1 5856   2.205   1.828  10.422
 1341SOL    HW2 5857   2.309   1.913  10.354
 1342SOL     OW 5858   6.034   8.810  11.619
 1342SOL    HW1 5859   6.034   8.863  11.540
 1342SOL    HW2 5860   6.016   8.721  11.588
 1343SOL     OW 5861   2.243  10.058   1.124
 1343SOL    HW1 5862   2.281  10.012   1.199
 1343SOL    HW2 5863   2.175   9.998   1.091
 1344SOL     OW 5864  13.007  12.821   7.897
 1344SOL    HW1 5865  13.085  12.848   7.946
 1344SOL    HW2 5866  13.019  12.727   7.883
 1345SOL     OW 5867   1.753   7.663   7.642
 1345SOL    HW1 5868   1.674   7.645   7.693
 1345SOL    HW2 5869   1.721   7.707   7.563
 1346SOL     OW 5870  10.529   4.802   1.460
 1346SOL    HW1 5871  10.474   4.768   1.389
 1346SOL    HW2 5872  10.470   4.808   1.535
 1347SOL     OW 5873   1.500   6.321   6.118
 1347SOL    HW1 5874   1.480   6.238   6.161
 1347SOL    HW2 5875   1.472   6.387   6.181
 1348SOL     OW 5876   4.736  14.760   0.127
 1348SOL    HW1 5877   4.802  14.705   0.169
 1348SOL    HW2 5878   4.704  14.708   0.053
 1349SOL     OW 5879  13.873   2.535   5.890
 1349SOL    HW1 5880  13.873   2.542   5.795
 1349SOL    HW2 5881  13.781   2.517   5.912
 1350SOL     OW 5882  13.002  14.742   0.943
 1350SOL    HW1 5883  12.911  14.770   0.957
 1350SOL    HW2 5884  13.055  14.810   0.984
 1351SOL     OW 5885  11.766   8.038   7.912
 1351SOL    HW1 5886  11.840   7.997   7.956
 1351SOL    HW2 5887  11.804   8.076   7.832
 1352SOL     OW 5888   5.412   7.730  13.686
 1352SOL    HW1 5889   5.389   7.734  13.593
 1352SOL    HW2 5890   5.356   7.663  13.723
 1353SOL     OW 5891   1.840   9.278  10.466
 1353SOL    HW1 5892   1.758   9.325  10.452
 1353SOL    HW2 5893   1.898   9.308  10.396
 1354SOL     OW 5894   9.005  11.934   8.562
 1354SOL    HW1 5895   8.918  11.970   8.545
 1354SOL    HW2 5896   9.040  11.988   8.633
 1355SOL     OW 5897   2.207  13.060  14.863
 1355SOL    HW1 5898   2.300  13.041  14.863
 1355SOL    HW2 5899   2.175  13.020   0.072
 1356SOL     OW 5900   8.799  12.605   0.183
 1356SOL    HW1 5901   8.859  12.538   0.150
 1356SOL    HW2 5902   8.807  12.600   0.278
 1357SOL     OW 5903   4.084  14.315   5.269
 1357SOL    HW1 5904   4.006  14.370   5.267
 1357SOL    HW2 5905   4.059  14.239   5.321
 1358SOL     OW 5906   4.256  14.250  13.442
 1358SOL    HW1 5907   4.224  14.302  13.369
 1358SOL    HW2 5908   4.274  14.163  13.404
 1359SOL     OW 5909  11.354   7.492  13.447
 1359SOL    HW1 5910  11.333   7.403  13.475
 1359SOL    HW2 5911  11.315   7.548  13.515
 1360SOL     OW 5912   0.417  13.324  13.685
 1360SOL    HW1 5913   0.329  13.314  13.721
 1360SOL    HW2 5914   0.473  13.333  13.761
 1361SOL     OW 5915   8.475   4.558   0.580
 1361SOL    HW1 5916   8.521   4.493   0.527
 1361SOL    HW2 5917   8.541   4.591   0.640
 1362SOL     OW 5918  11.917   7.673  13.908
 1362SOL    HW1 5919  11.851   7.690  13.974
 1362SOL    HW2 5920  12.000   7.670  13.957
 1363SOL     OW 5921   2.454  14.349  13.035
 1363SOL    HW1 5922   2.406  14.366  12.954
 1363SOL    HW2 5923   2.399  14.287  13.083
 1364SOL     OW 5924  10.637   8.719   2.308
 1364SOL    HW1 5925  10.650   8.638   2.357
 1364SOL    HW2 5926  10.710   8.774   2.333
 1365SOL     OW 5927   4.337   5.974   8.798
 1365SOL    HW1 5928   4.322   5.900   8.739
 1365SOL    HW2 5929   4.342   6.050   8.740
 1366SOL     OW 5930  12.227   2.438   6.407
 1366SOL    HW1 5931  12.237   2.383   6.329
 1366SOL    HW2 5932  12.311   2.482   6.417
 1367SOL     OW 5933   2.630  14.432   5.003
 1367SOL    HW1 5934   2.622  14.401   4.913
 1367SOL    HW2 5935   2.651  14.354   5.054
 1368SOL     OW 5936   5.186   9.805   3.901
 1368SOL    HW1 5937   5.114   9.779   3.959
 1368SOL    HW2 5938   5.233   9.724   3.884
 1369SOL     OW 5939   1.741   5.356  12.055
 1369SOL    HW1 5940   1.684   5.279  12.059
 1369SOL    HW2 5941   1.803   5.343  12.127
 1370SOL     OW 5942   3.835   6.536   3.550
 1370SOL    HW1 5943   3.895   6.538   3.625
 1370SOL    HW2 5944   3.829   6.627   3.522
 1371SOL     OW 5945  13.232   3.093   6.683
 1371SOL    HW1 5946  13.245   3.050   6.599
 1371SOL    HW2 5947  13.313   3.141   6.699
 1372SOL     OW 5948  11.916  14.335   3.557
 1372SOL    HW1 5949  11.838  14.387   3.577
 1372SOL    HW2 5950  11.989  14.394   3.575
 1373SOL     OW 5951   7.982  12.595  11.439
 1373SOL    HW1 5952   7.926  12.539  11.493
 1373SOL    HW2 5953   7.922  12.644  11.383
 1374SOL     OW 5954   0.079   6.566   8.705
 1374SOL    HW1 5955   0.059   6.657   8.684
 1374SOL    HW2 5956   0.008   6.539   8.763
 1375SOL     OW 5957  14.084  10.195   5.320
 1375SOL    HW1 5958  14.032  10.195   5.400
 1375SOL    HW2 5959  14.076  10.106   5.285
 1376SOL     OW 5960   7.662  11.742   6.460
 1376SOL    HW1 5961   7.746  11.696   6.457
 1376SOL    HW2 5962   7.686  11.835   6.468
 1377SOL     OW 5963  11.035  13.975   1.418
 1377SOL    HW1 5964  11.004  13.989   1.507
 1377SOL    HW2 5965  11.004  14.052   1.370
 1378SOL     OW 5966   1.376   0.075  13.052
 1378SOL    HW1 5967   1.320   0.088  12.975
 1378SOL    HW2 5968   1.426   0.157  13.059
 1379SOL     OW 5969   2.400   8.803   6.760
 1379SOL    HW1 5970   2.378   8.768   6.674
 1379SOL    HW2 5971   2.316   8.808   6.806
 1380SOL     OW 5972   3.181   8.690   1.457
 1380SOL    HW1 5973   3.108   8.716   1.400
 1380SOL    HW2 5974   3.256   8.682   1.398
 1381SOL     OW 5975  11.236   6.836  10.065
 1381SOL    HW1 5976  11.144   6.831  10.092
 1381SOL    HW2 5977  11.239   6.912  10.007
 1382SOL     OW 5978   6.764  11.874   7.614
 1382SOL    HW1 5979   6.691  11.906   7.560
 1382SOL    HW2 5980   6.756  11.778   7.610
 1383SOL     OW 5981   9.414   9.679   1.206
 1383SOL    HW1 5982   9.400   9.772   1.223
 1383SOL    HW2 5983   9.376   9.664   1.119
 1384SOL     OW 5984   5.159  13.942   1.296
 1384SOL    HW1 5985   5.216  13.923   1.371
 1384SOL    HW2 5986   5.149  14.037   1.296
 1385SOL     OW 5987   3.665   4.533   2.671
 1385SOL    HW1 5988   3.649   4.591   2.745
 1385SOL    HW2 5989   3.677   4.592   2.597
 1386SOL     OW 5990  11.553   0.132  10.873
 1386SOL    HW1 5991  11.478   0.103  10.926
 1386SOL    HW2 5992  11.523   0.119  10.783
 1387SOL     OW 5993   6.942   6.707  12.835
 1387SOL    HW1 5994   6.885   6.782  12.853
 1387SOL    HW2 5995   6.961   6.671  12.922
 1388SOL     OW 5996   7.164  11.130  13.550
 1388SOL    HW1 5997   7.172  11.126  13.645
 1388SOL    HW2 5998   7.205  11.049  13.519
 1389SOL     OW 5999   5.974   1.886  10.101
 1389SOL    HW1 6000   6.032   1.825  10.146
 1389SOL    HW2 6001   5.955   1.845  10.017
 1390SOL     OW 6002   4.220   8.666   2.443
 1390SOL    HW1 6003   4.231   8.679   2.349
 1390SOL    HW2 6004   4.272   8.588   2.463
 1391SOL     OW 6005   0.118   8.739   0.159
 1391SOL    HW1 6006   0.201   8.766   0.197
 1391SOL    HW2 6007   0.066   8.819   0.156
 1392SOL     OW 6008  12.980   1.335   0.110
 1392SOL    HW1 6009  12.927   1.347   0.032
 1392SOL    HW2 6010  12.998   1.241   0.113
 1393SOL     OW 6011   2.633   1.860  10.400
 1393SOL    HW1 6012   2.696   1.788  10.394
 1393SOL    HW2 6013   2.553   1.824  10.362
 1394SOL     OW 6014   3.434   4.137  11.437
 1394SOL    HW1 6015   3.352   4.098  11.466
 1394SOL    HW2 6016   3.412   4.182  11.355
 1395SOL     OW 6017   6.298  14.860  13.450
 1395SOL    HW1 6018   6.225  14.800  13.437
 1395SOL    HW2 6019   6.256   0.073  13.462
 1396SOL     OW 6020   1.011   3.731  13.761
 1396SOL    HW1 6021   0.977   3.736  13.851
 1396SOL    HW2 6022   0.934   3.745  13.706
 1397SOL     OW 6023  10.890   9.631   7.417
 1397SOL    HW1 6024  10.796   9.627   7.400
 1397SOL    HW2 6025  10.930   9.608   7.333
 1398SOL     OW 6026   8.436   1.497  14.277
 1398SOL    HW1 6027   8.356   1.548  14.261
 1398SOL    HW2 6028   8.486   1.505  14.196
 1399SOL     OW 6029  13.067   9.656  13.379
 1399SOL    HW1 6030  13.097   9.724  13.438
 1399SOL    HW2 6031  13.127   9.659  13.305
 1400SOL     OW 6032   9.067  11.253   9.033
 1400SOL    HW1 6033   9.148  11.303   9.025
 1400SOL    HW2 6034   9.001  11.305   8.986
 1401SOL     OW 6035  11.605   1.089  10.508
 1401SOL    HW1 6036  11.691   1.114  10.473
 1401SOL    HW2 6037  11.620   1.005  10.551
 1402SOL     OW 6038  10.936  10.262   9.371
 1402SOL    HW1 6039  10.847  10.248   9.338
 1402SOL    HW2 6040  10.967  10.341   9.326
 1403SOL     OW 6041   1.715   2.466   6.086
 1403SOL    HW1 6042   1.706   2.487   5.993
 1403SOL    HW2 6043   1.638   2.413   6.106
 1404SOL     OW 6044   9.247   5.198   1.497
 1404SOL    HW1 6045   9.152   5.203   1.492
 1404SOL    HW2 6046   9.265   5.105   1.511
 1405SOL     OW 6047   2.412  11.557   0.151
 1405SOL    HW1 6048   2.426  11.577   0.244
 1405SOL    HW2 6049   2.497  11.526   0.120
 1406SOL     OW 6050  12.559  14.655   3.347
 1406SOL    HW1 6051  12.537  14.571   3.308
 1406SOL    HW2 6052  12.511  14.656   3.429
 1407SOL     OW 6053   2.319   3.791  13.103
 1407SOL    HW1 6054   2.294   3.882  13.112
 1407SOL    HW2 6055   2.246   3.742  13.140
 1408SOL     OW 6056   6.338  12.277   5.932
 1408SOL    HW1 6057   6.433  12.275   5.934
 1408SOL    HW2 6058   6.313  12.203   5.876
 1409SOL     OW 6059   6.912  11.983   0.584
 1409SOL    HW1 6060   6.969  12.049   0.544
 1409SOL    HW2 6061   6.838  12.033   0.619
 1410SOL     OW 6062   4.445  12.143   2.406
 1410SOL    HW1 6063   4.535  12.173   2.419
 1410SOL    HW2 6064   4.403  12.213   2.357
 1411SOL     OW 6065  13.693   1.043   4.805
 1411SOL    HW1 6066  13.622   1.094   4.767
 1411SOL    HW2 6067  13.769   1.062   4.749
 1412SOL     OW 6068   6.933  12.521  12.479
 1412SOL    HW1 6069   6.914  12.428  12.470
 1412SOL    HW2 6070   7.026  12.525  12.499
 1413SOL     OW 6071   5.431  14.864   3.420
 1413SOL    HW1 6072   5.468   0.079   3.411
 1413SOL    HW2 6073   5.357   0.003   3.479
 1414SOL     OW 6074   4.090   1.780   0.193
 1414SOL    HW1 6075   4.174   1.790   0.150
 1414SOL    HW2 6076   4.105   1.810   0.283
 1415SOL     OW 6077   7.909   5.251  12.191
 1415SOL    HW1 6078   7.994   5.278  12.225
 1415SOL    HW2 6079   7.908   5.156  12.202
 1416SOL     OW 6080   4.671   0.110   2.123
 1416SOL    HW1 6081   4.624   0.073   2.198
 1416SOL    HW2 6082   4.677   0.204   2.142
 1417SOL     OW 6083  10.490   3.782  12.617
 1417SOL    HW1 6084  10.449   3.868  12.631
 1417SOL    HW2 6085  10.554   3.775  12.688
 1418SOL     OW 6086   8.812   2.969   7.132
 1418SOL    HW1 6087   8.824   3.058   7.166
 1418SOL    HW2 6088   8.854   2.970   7.046
 1419SOL     OW 6089   3.886   7.617   2.308
 1419SOL    HW1 6090   3.797   7.582   2.316
 1419SOL    HW2 6091   3.942   7.540   2.310
 1420SOL     OW 6092   6.631   4.601   3.119
 1420SOL    HW1 6093   6.539   4.625   3.104
 1420SOL    HW2 6094   6.645   4.525   3.063
 1421SOL     OW 6095   8.766  11.299   9.903
 1421SOL    HW1 6096   8.689  11.337   9.862
 1421SOL    HW2 6097   8.827  11.372   9.911
 1422SOL     OW 6098   2.697   0.128  11.041
 1422SOL    HW1 6099   2.689   0.075  11.120
 1422SOL    HW2 6100   2.638   0.202  11.055
 1423SOL     OW 6101   3.613   2.199   4.661
 1423SOL    HW1 6102   3.622   2.106   4.640
 1423SOL    HW2 6103   3.652   2.244   4.586
 1424SOL     OW 6104   9.878   1.131  13.111
 1424SOL    HW1 6105   9.788   1.102  13.129
 1424SOL    HW2 6106   9.882   1.134  13.015
 1425SOL     OW 6107   3.703   7.156   1.163
 1425SOL    HW1 6108   3.640   7.220   1.197
 1425SOL    HW2 6109   3.747   7.122   1.241
 1426SOL     OW 6110  12.940   2.131  12.778
 1426SOL    HW1 6111  13.008   2.189  12.743
 1426SOL    HW2 6112  12.902   2.090  12.700
 1427SOL     OW 6113   5.961  12.490   5.426
 1427SOL    HW1 6114   6.024  12.422   5.449
 1427SOL    HW2 6115   6.010  12.548   5.367
 1428SOL     OW 6116  11.215   3.792   7.150
 1428SOL    HW1 6117  11.197   3.797   7.244
 1428SOL    HW2 6118  11.310   3.784   7.144
 1429SOL     OW 6119  11.279   7.644  13.695
 1429SOL    HW1 6120  11.237   7.722  13.658
 1429SOL    HW2 6121  11.328   7.676  13.770
 1430SOL     OW 6122   6.917   4.260   6.197
 1430SOL    HW1 6123   6.948   4.340   6.155
 1430SOL    HW2 6124   6.841   4.234   6.145
 1431SOL     OW 6125  13.833  11.723  14.409
 1431SOL    HW1 6126  13.885  11.651  14.444
 1431SOL    HW2 6127  13.768  11.741  14.477
 1432SOL     OW 6128   1.331   6.360   2.525
 1432SOL    HW1 6129   1.250   6.402   2.556
 1432SOL    HW2 6130   1.382   6.346   2.605
 1433SOL     OW 6131  12.876  14.660  10.483
 1433SOL    HW1 6132  12.854  14.569  10.502
 1433SOL    HW2 6133  12.911  14.695  10.565
 1434SOL     OW 6134   5.692  11.048  13.207
 1434SOL    HW1 6135   5.625  11.093  13.156
 1434SOL    HW2 6136   5.760  11.025  13.143
 1435SOL     OW 6137   9.505   2.966   4.469
 1435SOL    HW1 6138   9.492   2.892   4.528
 1435SOL    HW2 6139   9.567   3.023   4.515
 1436SOL     OW 6140   2.401   6.997  14.778
 1436SOL    HW1 6141   2.407   6.939  14.854
 1436SOL    HW2 6142   2.420   6.940  14.703
 1437SOL     OW 6143   7.701   9.048   0.796
 1437SOL    HW1 6144   7.614   9.079   0.772
 1437SOL    HW2 6145   7.708   8.962   0.754
 1438SOL     OW 6146   5.533   6.691   9.240
 1438SOL    HW1 6147   5.606   6.716   9.184
 1438SOL    HW2 6148   5.467   6.758   9.225
 1439SOL     OW 6149   8.615   2.055   3.877
 1439SOL    HW1 6150   8.634   1.987   3.941
 1439SOL    HW2 6151   8.684   2.120   3.890
 1440SOL     OW 6152   4.901   8.208   0.380
 1440SOL    HW1 6153   4.968   8.204   0.449
 1440SOL    HW2 6154   4.922   8.286   0.330
 1441SOL     OW 6155   1.936   7.088  12.157
 1441SOL    HW1 6156   1.950   7.011  12.212
 1441SOL    HW2 6157   1.855   7.126  12.189
 1442SOL     OW 6158   6.899   8.215   8.329
 1442SOL    HW1 6159   6.987   8.205   8.366
 1442SOL    HW2 6160   6.911   8.275   8.255
 1443SOL     OW 6161   7.693   0.225  13.158
 1443SOL    HW1 6162   7.611   0.204  13.204
 1443SOL    HW2 6163   7.665   0.256  13.072
 1444SOL     OW 6164   1.342   8.173  13.844
 1444SOL    HW1 6165   1.297   8.107  13.896
 1444SOL    HW2 6166   1.331   8.144  13.754
 1445SOL     OW 6167   4.281   1.438   9.125
 1445SOL    HW1 6168   4.204   1.494   9.124
 1445SOL    HW2 6169   4.342   1.480   9.064
 1446SOL     OW 6170   3.716   3.840  10.347
 1446SOL    HW1 6171   3.674   3.860  10.263
 1446SOL    HW2 6172   3.734   3.746  10.343
 1447SOL     OW 6173   1.859  11.666  12.678
 1447SOL    HW1 6174   1.856  11.722  12.755
 1447SOL    HW2 6175   1.832  11.580  12.710
 1448SOL     OW 6176   6.354  13.548  12.412
 1448SOL    HW1 6177   6.363  13.615  12.480
 1448SOL    HW2 6178   6.379  13.467  12.456
 1449SOL     OW 6179   2.844  11.400   0.526
 1449SOL    HW1 6180   2.867  11.393   0.618
 1449SOL    HW2 6181   2.881  11.321   0.486
 1450SOL     OW 6182  11.168  11.570   5.162
 1450SOL    HW1 6183  11.104  11.560   5.232
 1450SOL    HW2 6184  11.151  11.657   5.126
 1451SOL     OW 6185  12.104   0.132   8.609
 1451SOL    HW1 6186  12.155   0.051   8.622
 1451SOL    HW2 6187  12.140   0.170   8.529
 1452SOL     OW 6188  10.954   9.053  14.527
 1452SOL    HW1 6189  11.046   9.081  14.528
 1452SOL    HW2 6190  10.914   9.099  14.600
 1453SOL     OW 6191  12.344   1.062   2.404
 1453SOL    HW1 6192  12.259   1.020   2.422
 1453SOL    HW2 6193  12.400   0.990   2.376
 1454SOL     OW 6194   4.483   8.897   3.929
 1454SOL    HW1 6195   4.410   8.887   3.990
 1454SOL    HW2 6196   4.453   8.854   3.849
 1455SOL     OW 6197  14.138  12.463  14.067
 1455SOL    HW1 6198  14.103  12.387  14.020
 1455SOL    HW2 6199  14.233  12.450  14.066
 1456SOL     OW 6200   7.680  10.225   8.543
 1456SOL    HW1 6201   7.766  10.187   8.523
 1456SOL    HW2 6202   7.618  10.156   8.521
 1457SOL     OW 6203   5.135   5.391   4.541
 1457SOL    HW1 6204   5.090   5.454   4.486
 1457SOL    HW2 6205   5.156   5.439   4.621
 1458SOL     OW 6206   5.518   4.381  14.225
 1458SOL    HW1 6207   5.577   4.456  14.231
 1458SOL    HW2 6208   5.561   4.322  14.162
 1459SOL     OW 6209   4.834  10.442  10.522
 1459SOL    HW1 6210   4.914  10.494  10.518
 1459SOL    HW2 6211   4.816  10.418  10.432
 1460SOL     OW 6212  10.119   4.946  11.838
 1460SOL    HW1 6213  10.127   4.880  11.907
 1460SOL    HW2 6214  10.200   4.938  11.788
 1461SOL     OW 6215   2.674   0.974   4.306
 1461SOL    HW1 6216   2.593   0.994   4.259
 1461SOL    HW2 6217   2.647   0.915   4.376
 1462SOL     OW 6218  11.750   1.602   6.142
 1462SOL    HW1 6219  11.657   1.592   6.159
 1462SOL    HW2 6220  11.786   1.637   6.223
 1463SOL     OW 6221   4.685   0.915   6.040
 1463SOL    HW1 6222   4.668   0.834   5.993
 1463SOL    HW2 6223   4.764   0.898   6.091
 1464SOL     OW 6224   2.252  11.758  13.988
 1464SOL    HW1 6225   2.276  11.701  14.061
 1464SOL    HW2 6226   2.328  11.815  13.977
 1465SOL     OW 6227   9.461   8.552   4.538
 1465SOL    HW1 6228   9.419   8.638   4.544
 1465SOL    HW2 6229   9.480   8.541   4.445
 1466SOL     OW 6230   9.279   9.762   8.548
 1466SOL    HW1 6231   9.373   9.750   8.561
 1466SOL    HW2 6232   9.266   9.856   8.555
 1467SOL     OW 6233   0.420  11.572  13.305
 1467SOL    HW1 6234   0.514  11.587  13.296
 1467SOL    HW2 6235   0.408  11.554  13.399
 1468SOL     OW 6236   9.018  14.638  11.809
 1468SOL    HW1 6237   9.022  14.600  11.721
 1468SOL    HW2 6238   9.108  14.660  11.830
 1469SOL     OW 6239  12.101  14.288   4.471
 1469SOL    HW1 6240  12.094  14.376   4.433
 1469SOL    HW2 6241  12.130  14.303   4.561
 1470SOL     OW 6242  12.384   0.092   5.900
 1470SOL    HW1 6243  12.475   0.123   5.902
 1470SOL    HW2 6244  12.337   0.154   5.956
 1471SOL     OW 6245  11.705   9.918   5.988
 1471SOL    HW1 6246  11.675   9.858   6.056
 1471SOL    HW2 6247  11.747   9.990   6.036
 1472SOL     OW 6248   4.200   4.240   7.208
 1472SOL    HW1 6249   4.240   4.187   7.139
 1472SOL    HW2 6250   4.109   4.210   7.212
 1473SOL     OW 6251   6.859   2.171   2.353
 1473SOL    HW1 6252   6.819   2.113   2.418
 1473SOL    HW2 6253   6.849   2.124   2.270
 1474SOL     OW 6254   0.696   1.878   8.913
 1474SOL    HW1 6255   0.760   1.931   8.866
 1474SOL    HW2 6256   0.742   1.797   8.935
 1475SOL     OW 6257   6.194   6.105   5.400
 1475SOL    HW1 6258   6.249   6.103   5.321
 1475SOL    HW2 6259   6.160   6.194   5.403
 1476SOL     OW 6260   5.048  10.673   7.739
 1476SOL    HW1 6261   5.127  10.705   7.696
 1476SOL    HW2 6262   5.034  10.735   7.811
 1477SOL     OW 6263   5.356   1.943  11.949
 1477SOL    HW1 6264   5.394   1.928  12.035
 1477SOL    HW2 6265   5.386   2.031  11.925
 1478SOL     OW 6266   1.441   4.291  10.263
 1478SOL    HW1 6267   1.347   4.298  10.279
 1478SOL    HW2 6268   1.467   4.378  10.232
 1479SOL     OW 6269   0.452   3.792   0.363
 1479SOL    HW1 6270   0.493   3.805   0.278
 1479SOL    HW2 6271   0.363   3.825   0.352
 1480SOL     OW 6272   8.799   2.438   1.301
 1480SOL    HW1 6273   8.802   2.353   1.346
 1480SOL    HW2 6274   8.871   2.434   1.238
 1481SOL     OW 6275   0.501   9.838   6.606
 1481SOL    HW1 6276   0.433   9.816   6.669
 1481SOL    HW2 6277   0.534   9.753   6.575
 1482SOL     OW 6278  14.349   1.315   2.858
 1482SOL    HW1 6279  14.442   1.337   2.856
 1482SOL    HW2 6280  14.347   1.224   2.889
 1483SOL     OW 6281   1.102  14.352  12.112
 1483SOL    HW1 6282   1.170  14.296  12.149
 1483SOL    HW2 6283   1.150  14.424  12.070
 1484SOL     OW 6284   9.821   2.300   7.726
 1484SOL    HW1 6285   9.891   2.269   7.783
 1484SOL    HW2 6286   9.750   2.325   7.785
 1485SOL     OW 6287   2.485  13.960  14.867
 1485SOL    HW1 6288   2.479  13.873  14.826
 1485SOL    HW2 6289   2.548  13.948   0.066
 1486SOL     OW 6290   0.775  14.398   3.021
 1486SOL    HW1 6291   0.815  14.482   2.999
 1486SOL    HW2 6292   0.848  14.338   3.028
 1487SOL     OW 6293   5.453   6.780   0.486
 1487SOL    HW1 6294   5.358   6.776   0.491
 1487SOL    HW2 6295   5.479   6.832   0.563
 1488SOL     OW 6296   4.945  11.838  10.251
 1488SOL    HW1 6297   4.928  11.896  10.177
 1488SOL    HW2 6298   4.861  11.795  10.268
 1489SOL     OW 6299  12.696  14.353   7.784
 1489SOL    HW1 6300  12.692  14.449   7.783
 1489SOL    HW2 6301  12.649  14.327   7.704
 1490SOL     OW 6302  13.542   5.904  10.183
 1490SOL    HW1 6303  13.576   5.970  10.123
 1490SOL    HW2 6304  13.619   5.875  10.233
 1491SOL     OW 6305  10.659   5.905   6.763
 1491SOL    HW1 6306  10.745   5.870   6.789
 1491SOL    HW2 6307  10.596   5.844   6.800
 1492SOL     OW 6308   6.007   8.512   4.668
 1492SOL    HW1 6309   5.918   8.499   4.637
 1492SOL    HW2 6310   6.062   8.481   4.597
 1493SOL     OW 6311  12.526   1.175   3.532
 1493SOL    HW1 6312  12.613   1.213   3.533
 1493SOL    HW2 6313  12.527   1.110   3.602
 1494SOL     OW 6314   8.617   3.729   5.549
 1494SOL    HW1 6315   8.691   3.706   5.605
 1494SOL    HW2 6316   8.557   3.777   5.606
 1495SOL     OW 6317  13.754   9.195   3.539
 1495SOL    HW1 6318  13.791   9.280   3.563
 1495SOL    HW2 6319  13.801   9.132   3.593
 1496SOL     OW 6320  11.246   6.096  14.213
 1496SOL    HW1 6321  11.333   6.130  14.194
 1496SOL    HW2 6322  11.238   6.101  14.308
 1497SOL     OW 6323   6.429   6.950  11.446
 1497SOL    HW1 6324   6.524   6.950  11.443
 1497SOL    HW2 6325   6.402   6.920  11.359
 1498SOL     OW 6326   9.254   1.195   8.838
 1498SOL    HW1 6327   9.164   1.173   8.817
 1498SOL    HW2 6328   9.273   1.272   8.784
 1499SOL     OW 6329   5.681  12.017   2.164
 1499SOL    HW1 6330   5.630  12.066   2.100
 1499SOL    HW2 6331   5.625  12.013   2.241
 1500SOL     OW 6332   3.117  11.107   8.329
 1500SOL    HW1 6333   3.150  11.056   8.403
 1500SOL    HW2 6334   3.051  11.165   8.368
 1501SOL     OW 6335   0.045   6.346  11.892
 1501SOL    HW1 6336   0.077   6.268  11.847
 1501SOL    HW2 6337   0.105   6.416  11.864
 1502SOL     OW 6338   6.220  13.208   1.667
 1502SOL    HW1 6339   6.259  13.248   1.589
 1502SOL    HW2 6340   6.249  13.117   1.664
 1503SOL     OW 6341   7.728  14.610   0.735
 1503SOL    HW1 6342   7.815  14.573   0.752
 1503SOL    HW2 6343   7.718  14.679   0.801
 1504SOL     OW 6344  10.901   6.981   9.538
 1504SOL    HW1 6345  10.906   7.043   9.465
 1504SOL    HW2 6346  10.870   6.900   9.499
 1505SOL     OW 6347   1.500  14.489  10.009
 1505SOL    HW1 6348   1.430  14.480   9.944
 1505SOL    HW2 6349   1.565  14.544   9.966
 1506SOL     OW 6350   3.740  12.498   7.854
 1506SOL    HW1 6351   3.665  12.443   7.831
 1506SOL    HW2 6352   3.803  12.482   7.783
 1507SOL     OW 6353   0.807  12.902   7.507
 1507SOL    HW1 6354   0.802  12.831   7.571
 1507SOL    HW2 6355   0.724  12.950   7.517
 1508SOL     OW 6356   7.095  14.303   9.997
 1508SOL    HW1 6357   7.183  14.312   9.959
 1508SOL    HW2 6358   7.059  14.225   9.956
 1509SOL     OW 6359   9.425  14.445   1.902
 1509SOL    HW1 6360   9.342  14.407   1.874
 1509SOL    HW2 6361   9.453  14.500   1.829
 1510SOL     OW 6362  12.414   6.401   0.714
 1510SOL    HW1 6363  12.502   6.439   0.709
 1510SOL    HW2 6364  12.421   6.319   0.665
 1511SOL     OW 6365  13.020   6.306   0.864
 1511SOL    HW1 6366  13.098   6.273   0.908
 1511SOL    HW2 6367  12.982   6.368   0.926
 1512SOL     OW 6368  14.165   1.987  14.861
 1512SOL    HW1 6369  14.085   2.039  14.854
 1512SOL    HW2 6370  14.157   1.920  14.793
 1513SOL     OW 6371   7.763  11.763  10.543
 1513SOL    HW1 6372   7.685  11.731  10.498
 1513SOL    HW2 6373   7.765  11.714  10.625
 1514SOL     OW 6374   8.600   4.808   2.890
 1514SOL    HW1 6375   8.533   4.769   2.947
 1514SOL    HW2 6376   8.683   4.779   2.928
 1515SOL     OW 6377   4.934   7.240   5.911
 1515SOL    HW1 6378   4.911   7.219   6.002
 1515SOL    HW2 6379   4.956   7.155   5.872
 1516SOL     OW 6380   0.318   0.014  10.455
 1516SOL    HW1 6381   0.401   0.028  10.500
 1516SOL    HW2 6382   0.335   0.039  10.365
 1517SOL     OW 6383  14.387   6.754   0.253
 1517SOL    HW1 6384  14.330   6.772   0.178
 1517SOL    HW2 6385  14.475   6.777   0.222
 1518SOL     OW 6386   3.603   5.729   7.488
 1518SOL    HW1 6387   3.629   5.819   7.504
 1518SOL    HW2 6388   3.640   5.680   7.563
 1519SOL     OW 6389  13.386  11.117   8.656
 1519SOL    HW1 6390  13.416  11.026   8.652
 1519SOL    HW2 6391  13.298  11.111   8.693
 1520SOL     OW 6392   0.382  13.713  13.392
 1520SOL    HW1 6393   0.358  13.629  13.352
 1520SOL    HW2 6394   0.356  13.705  13.483
 1521SOL     OW 6395   4.813   4.973  10.704
 1521SOL    HW1 6396   4.744   4.920  10.665
 1521SOL    HW2 6397   4.769   5.054  10.731
 1522SOL     OW 6398   9.521   8.934   5.291
 1522SOL    HW1 6399   9.567   8.977   5.363
 1522SOL    HW2 6400   9.453   8.882   5.334
 1523SOL     OW 6401   0.499  10.328   7.072
 1523SOL    HW1 6402   0.545  10.246   7.052
 1523SOL    HW2 6403   0.548  10.394   7.024
 1524SOL     OW 6404   5.138   2.674  12.283
 1524SOL    HW1 6405   5.088   2.674  12.201
 1524SOL    HW2 6406   5.091   2.736  12.339
 1525SOL     OW 6407   4.277   8.283   0.491
 1525SOL    HW1 6408   4.211   8.274   0.422
 1525SOL    HW2 6409   4.287   8.194   0.526
 1526SOL     OW 6410  14.247   3.036   2.840
 1526SOL    HW1 6411  14.341   3.051   2.844
 1526SOL    HW2 6412  14.236   2.944   2.866
 1527SOL     OW 6413   9.635   8.236   1.876
 1527SOL    HW1 6414   9.589   8.223   1.958
 1527SOL    HW2 6415   9.569   8.225   1.808
 1528SOL     OW 6416   2.286   5.584  12.930
 1528SOL    HW1 6417   2.243   5.666  12.903
 1528SOL    HW2 6418   2.327   5.606  13.014
 1529SOL     OW 6419   4.757   8.007  12.803
 1529SOL    HW1 6420   4.799   8.074  12.748
 1529SOL    HW2 6421   4.683   7.977  12.751
 1530SOL     OW 6422   7.682  12.582  12.704
 1530SOL    HW1 6423   7.755  12.575  12.766
 1530SOL    HW2 6424   7.603  12.580  12.758
 1531SOL     OW 6425  10.801   0.990  13.927
 1531SOL    HW1 6426  10.885   1.019  13.890
 1531SOL    HW2 6427  10.735   1.030  13.871
 1532SOL     OW 6428   7.380   3.991  13.338
 1532SOL    HW1 6429   7.342   3.904  13.341
 1532SOL    HW2 6430   7.370   4.019  13.247
 1533SOL     OW 6431   8.254   6.351   0.580
 1533SOL    HW1 6432   8.319   6.289   0.547
 1533SOL    HW2 6433   8.290   6.379   0.665
 1534SOL     OW 6434   5.710   9.861   8.029
 1534SOL    HW1 6435   5.727   9.915   8.107
 1534SOL    HW2 6436   5.615   9.858   8.023
 1535SOL     OW 6437  10.391   1.953   7.989
 1535SOL    HW1 6438  10.407   1.951   7.894
 1535SOL    HW2 6439  10.469   1.913   8.027
 1536SOL     OW 6440   0.900  13.599  13.402
 1536SOL    HW1 6441   0.853  13.528  13.444
 1536SOL    HW2 6442   0.993  13.578  13.416
 1537SOL     OW 6443   8.214  11.661   7.213
 1537SOL    HW1 6444   8.215  11.598   7.286
 1537SOL    HW2 6445   8.301  11.654   7.174
 1538SOL     OW 6446   7.622  13.410   2.361
 1538SOL    HW1 6447   7.540  13.392   2.316
 1538SOL    HW2 6448   7.681  13.340   2.334
 1539SOL     OW 6449  12.843   5.614  12.940
 1539SOL    HW1 6450  12.780   5.656  12.998
 1539SOL    HW2 6451  12.792   5.589  12.863
 1540SOL     OW 6452   4.009   7.055  14.457
 1540SOL    HW1 6453   4.071   6.984  14.473
 1540SOL    HW2 6454   4.051   7.132  14.496
 1541SOL     OW 6455  12.963  11.800   8.797
 1541SOL    HW1 6456  12.955  11.896   8.798
 1541SOL    HW2 6457  13.056  11.783   8.808
 1542SOL     OW 6458  13.457   2.279   2.764
 1542SOL    HW1 6459  13.418   2.195   2.741
 1542SOL    HW2 6460  13.433   2.337   2.692
 1543SOL     OW 6461   3.472   1.426  11.516
 1543SOL    HW1 6462   3.393   1.373  11.531
 1543SOL    HW2 6463   3.447   1.514  11.544
 1544SOL     OW 6464   5.100   1.364  12.664
 1544SOL    HW1 6465   5.129   1.379  12.574
 1544SOL    HW2 6466   5.103   1.450  12.706
 1545SOL     OW 6467   0.665   5.060   8.742
 1545SOL    HW1 6468   0.679   5.093   8.831
 1545SOL    HW2 6469   0.607   5.124   8.702
 1546SOL     OW 6470   1.436  10.971  14.837
 1546SOL    HW1 6471   1.400  10.957  14.749
 1546SOL    HW2 6472   1.492  10.894  14.852
 1547SOL     OW 6473   6.159   0.632   6.100
 1547SOL    HW1 6474   6.146   0.680   6.182
 1547SOL    HW2 6475   6.077   0.644   6.052
 1548SOL     OW 6476   6.362   8.539  10.817
 1548SOL    HW1 6477   6.338   8.458  10.771
 1548SOL    HW2 6478   6.362   8.606  10.750
 1549SOL     OW 6479   1.534  13.104   7.486
 1549SOL    HW1 6480   1.468  13.044   7.519
 1549SOL    HW2 6481   1.616  13.056   7.490
 1550SOL     OW 6482   1.006   9.548   2.482
 1550SOL    HW1 6483   1.016   9.453   2.488
 1550SOL    HW2 6484   1.070   9.584   2.544
 1551SOL     OW 6485   4.302   6.898   8.571
 1551SOL    HW1 6486   4.332   6.988   8.561
 1551SOL    HW2 6487   4.377   6.844   8.544
 1552SOL     OW 6488   6.774  11.086   6.618
 1552SOL    HW1 6489   6.728  11.037   6.686
 1552SOL    HW2 6490   6.846  11.130   6.664
 1553SOL     OW 6491  10.298   8.636  13.184
 1553SOL    HW1 6492  10.308   8.602  13.273
 1553SOL    HW2 6493  10.386   8.662  13.158
 1554SOL     OW 6494   3.517   8.572   5.877
 1554SOL    HW1 6495   3.584   8.563   5.944
 1554SOL    HW2 6496   3.436   8.585   5.927
 1555SOL     OW 6497  14.692   8.692   9.397
 1555SOL    HW1 6498  14.775   8.663   9.435
 1555SOL    HW2 6499  14.655   8.612   9.358
 1556SOL     OW 6500   4.506  11.868  14.634
 1556SOL    HW1 6501   4.531  11.915  14.714
 1556SOL    HW2 6502   4.584  11.873  14.578
 1557SOL     OW 6503   6.340  10.997   8.567
 1557SOL    HW1 6504   6.296  11.030   8.646
 1557SOL    HW2 6505   6.286  11.028   8.495
 1558SOL     OW 6506   4.260  12.730  11.588
 1558SOL    HW1 6507   4.257  12.666  11.518
 1558SOL    HW2 6508   4.184  12.710  11.642
 1559SOL     OW 6509   3.947   8.567  12.658
 1559SOL    HW1 6510   3.933   8.512  12.581
 1559SOL    HW2 6511   3.949   8.656  12.625
 1560SOL     OW 6512   4.193  11.559   5.215
 1560SOL    HW1 6513   4.242  11.509   5.150
 1560SOL    HW2 6514   4.245  11.552   5.295
 1561SOL     OW 6515   2.083   7.391   8.794
 1561SOL    HW1 6516   2.018   7.351   8.737
 1561SOL    HW2 6517   2.150   7.424   8.734
 1562SOL     OW 6518  11.812   5.053  12.940
 1562SOL    HW1 6519  11.840   4.964  12.915
 1562SOL    HW2 6520  11.786   5.044  13.032
 1563SOL     OW 6521   5.263   8.655   4.783
 1563SOL    HW1 6522   5.185   8.633   4.834
 1563SOL    HW2 6523   5.257   8.601   4.705
 1564SOL     OW 6524   6.889   1.468   3.871
 1564SOL    HW1 6525   6.931   1.554   3.867
 1564SOL    HW2 6526   6.916   1.423   3.791
 1565SOL     OW 6527   2.521   1.217   8.936
 1565SOL    HW1 6528   2.431   1.246   8.927
 1565SOL    HW2 6529   2.552   1.256   9.018
 1566SOL     OW 6530  10.671  13.477  13.344
 1566SOL    HW1 6531  10.679  13.388  13.379
 1566SOL    HW2 6532  10.606  13.469  13.273
 1567SOL     OW 6533  13.839   3.856   3.164
 1567SOL    HW1 6534  13.866   3.941   3.198
 1567SOL    HW2 6535  13.888   3.793   3.217
 1568SOL     OW 6536   3.049   7.947   5.081
 1568SOL    HW1 6537   2.958   7.972   5.063
 1568SOL    HW2 6538   3.101   8.006   5.025
 1569SOL     OW 6539  13.645   6.622   8.347
 1569SOL    HW1 6540  13.600   6.541   8.369
 1569SOL    HW2 6541  13.604   6.651   8.265
 1570SOL     OW 6542   5.477  10.962   0.955
 1570SOL    HW1 6543   5.519  10.965   0.869
 1570SOL    HW2 6544   5.504  11.043   0.998
 1571SOL     OW 6545  14.089   9.854   0.015
 1571SOL    HW1 6546  14.084   9.944   0.046
 1571SOL    HW2 6547  14.041   9.854  14.805
 1572SOL     OW 6548   2.918   3.011   4.973
 1572SOL    HW1 6549   3.000   3.057   4.987
 1572SOL    HW2 6550   2.864   3.072   4.923
 1573SOL     OW 6551   4.769  12.924   1.654
 1573SOL    HW1 6552   4.818  12.882   1.724
 1573SOL    HW2 6553   4.732  13.003   1.694
 1574SOL     OW 6554   6.041   3.612   5.452
 1574SOL    HW1 6555   6.010   3.583   5.366
 1574SOL    HW2 6556   6.114   3.670   5.433
 1575SOL     OW 6557   2.904   1.514  13.925
 1575SOL    HW1 6558   2.881   1.444  13.986
 1575SOL    HW2 6559   2.997   1.531  13.941
 1576SOL     OW 6560  11.517   8.430   8.304
 1576SOL    HW1 6561  11.476   8.347   8.326
 1576SOL    HW2 6562  11.486   8.491   8.370
 1577SOL     OW 6563   8.423   9.653   6.743
 1577SOL    HW1 6564   8.378   9.653   6.827
 1577SOL    HW2 6565   8.516   9.648   6.766
 1578SOL     OW 6566   0.188  11.538   8.189
 1578SOL    HW1 6567   0.248  11.581   8.128
 1578SOL    HW2 6568   0.225  11.556   8.276
 1579SOL     OW 6569   2.416  14.523  14.075
 1579SOL    HW1 6570   2.377  14.473  14.147
 1579SOL    HW2 6571   2.405  14.615  14.101
 1580SOL     OW 6572   4.829   7.022   9.467
 1580SOL    HW1 6573   4.877   6.942   9.446
 1580SOL    HW2 6574   4.743   7.010   9.425
 1581SOL     OW 6575   9.048   3.002  14.692
 1581SOL    HW1 6576   9.004   2.964  14.769
 1581SOL    HW2 6577   9.139   3.013  14.720
 1582SOL     OW 6578  10.682   2.492   1.432
 1582SOL    HW1 6579  10.756   2.454   1.478
 1582SOL    HW2 6580  10.628   2.531   1.501
 1583SOL     OW 6581   9.216   7.988   1.154
 1583SOL    HW1 6582   9.131   7.945   1.168
 1583SOL    HW2 6583   9.197   8.081   1.166
 1584SOL     OW 6584   4.663   5.404   1.344
 1584SOL    HW1 6585   4.569   5.405   1.358
 1584SOL    HW2 6586   4.698   5.467   1.408
 1585SOL     OW 6587  11.248   9.625   6.484
 1585SOL    HW1 6588  11.325   9.591   6.438
 1585SOL    HW2 6589  11.191   9.657   6.414
 1586SOL     OW 6590   3.903   5.602   0.541
 1586SOL    HW1 6591   3.808   5.591   0.541
 1586SOL    HW2 6592   3.934   5.542   0.473
 1587SOL     OW 6593   3.739   4.678   1.994
 1587SOL    HW1 6594   3.734   4.668   2.089
 1587SOL    HW2 6595   3.715   4.592   1.959
 1588SOL     OW 6596   5.488  11.719  14.740
 1588SOL    HW1 6597   5.424  11.669  14.690
 1588SOL    HW2 6598   5.435  11.775  14.797
 1589SOL     OW 6599  14.039  11.828   1.695
 1589SOL    HW1 6600  14.045  11.737   1.726
 1589SOL    HW2 6601  14.032  11.880   1.774
 1590SOL     OW 6602   8.173   4.457   9.667
 1590SOL    HW1 6603   8.261   4.478   9.697
 1590SOL    HW2 6604   8.123   4.538   9.679
 1591SOL     OW 6605   0.943   3.873   7.884
 1591SOL    HW1 6606   0.974   3.952   7.840
 1591SOL    HW2 6607   0.858   3.856   7.845
 1592SOL     OW 6608  11.894   6.196  13.634
 1592SOL    HW1 6609  11.970   6.175  13.579
 1592SOL    HW2 6610  11.913   6.284  13.667
 1593SOL     OW 6611   0.057   0.946   0.050
 1593SOL    HW1 6612   0.092   0.857   0.059
 1593SOL    HW2 6613   0.054   0.980   0.140
 1594SOL     OW 6614   4.096   6.399  10.900
 1594SOL    HW1 6615   4.050   6.317  10.880
 1594SOL    HW2 6616   4.164   6.373  10.963
 1595SOL     OW 6617   1.136  14.014   1.329
 1595SOL    HW1 6618   1.139  14.025   1.234
 1595SOL    HW2 6619   1.192  14.085   1.363
 1596SOL     OW 6620   3.051   4.671   3.758
 1596SOL    HW1 6621   2.967   4.652   3.800
 1596SOL    HW2 6622   3.048   4.766   3.742
 1597SOL     OW 6623  10.819   8.727  12.203
 1597SOL    HW1 6624  10.883   8.656  12.204
 1597SOL    HW2 6625  10.745   8.690  12.155
 1598SOL     OW 6626   7.939   5.562   2.518
 1598SOL    HW1 6627   7.897   5.522   2.443
 1598SOL    HW2 6628   7.943   5.492   2.583
 1599SOL     OW 6629  10.103  12.446  11.885
 1599SOL    HW1 6630  10.106  12.539  11.863
 1599SOL    HW2 6631  10.170  12.435  11.952
 1600SOL     OW 6632   4.827   5.984   5.076
 1600SOL    HW1 6633   4.765   5.997   5.004
 1600SOL    HW2 6634   4.904   5.945   5.034
 1601SOL     OW 6635   1.131   5.721  12.805
 1601SOL    HW1 6636   1.155   5.794  12.861
 1601SOL    HW2 6637   1.199   5.719  12.738
 1602SOL     OW 6638   6.069  11.646   1.758
 1602SOL    HW1 6639   6.041  11.682   1.674
 1602SOL    HW2 6640   6.038  11.709   1.823
 1603SOL     OW 6641   9.831  14.651   4.240
 1603SOL    HW1 6642   9.912  14.627   4.284
 1603SOL    HW2 6643   9.852  14.646   4.146
 1604SOL     OW 6644   5.507  14.379   3.865
 1604SOL    HW1 6645   5.515  14.343   3.777
 1604SOL    HW2 6646   5.514  14.303   3.923
 1605SOL     OW 6647   3.708   8.979   7.201
 1605SOL    HW1 6648   3.781   9.036   7.178
 1605SOL    HW2 6649   3.692   8.926   7.123
 1606SOL     OW 6650   8.221   2.877   4.465
 1606SOL    HW1 6651   8.299   2.829   4.435
 1606SOL    HW2 6652   8.186   2.822   4.535
 1607SOL     OW 6653   1.873   5.252   3.247
 1607SOL    HW1 6654   1.946   5.267   3.307
 1607SOL    HW2 6655   1.831   5.338   3.240
 1608SOL     OW 6656  13.755  10.192   0.576
 1608SOL    HW1 6657  13.823  10.134   0.542
 1608SOL    HW2 6658  13.676  10.168   0.527
 1609SOL     OW 6659  12.737   2.092   4.311
 1609SOL    HW1 6660  12.701   2.092   4.400
 1609SOL    HW2 6661  12.824   2.053   4.321
 1610SOL     OW 6662   1.819   6.990  10.910
 1610SOL    HW1 6663   1.767   7.036  10.845
 1610SOL    HW2 6664   1.821   7.049  10.985
 1611SOL     OW 6665  14.730  14.309   7.741
 1611SOL    HW1 6666  14.732  14.329   7.647
 1611SOL    HW2 6667  14.638  14.315   7.765
 1612SOL     OW 6668   0.692   0.424  11.402
 1612SOL    HW1 6669   0.651   0.338  11.416
 1612SOL    HW2 6670   0.768   0.424  11.460
 1613SOL     OW 6671  10.586   0.731   3.256
 1613SOL    HW1 6672  10.614   0.695   3.171
 1613SOL    HW2 6673  10.524   0.800   3.233
 1614SOL     OW 6674   7.255   8.085   8.993
 1614SOL    HW1 6675   7.165   8.062   9.018
 1614SOL    HW2 6676   7.260   8.065   8.900
 1615SOL     OW 6677   9.758  13.656   1.206
 1615SOL    HW1 6678   9.674  13.634   1.166
 1615SOL    HW2 6679   9.823  13.641   1.137
 1616SOL     OW 6680   9.186   4.809   5.858
 1616SOL    HW1 6681   9.114   4.840   5.803
 1616SOL    HW2 6682   9.255   4.874   5.846
 1617SOL     OW 6683   3.589   8.711  13.594
 1617SOL    HW1 6684   3.594   8.807  13.595
 1617SOL    HW2 6685   3.559   8.689  13.506
 1618SOL     OW 6686  10.609   0.148   5.383
 1618SOL    HW1 6687  10.602   0.054   5.402
 1618SOL    HW2 6688  10.692   0.174   5.422
 1619SOL     OW 6689   3.804  11.871   3.916
 1619SOL    HW1 6690   3.835  11.959   3.934
 1619SOL    HW2 6691   3.871  11.814   3.956
 1620SOL     OW 6692  11.724   7.524  14.136
 1620SOL    HW1 6693  11.736   7.440  14.091
 1620SOL    HW2 6694  11.726   7.501  14.229
 1621SOL     OW 6695  13.526   3.488  10.661
 1621SOL    HW1 6696  13.561   3.576  10.678
 1621SOL    HW2 6697  13.511   3.486  10.567
 1622SOL     OW 6698  10.564  13.239   4.775
 1622SOL    HW1 6699  10.558  13.144   4.766
 1622SOL    HW2 6700  10.473  13.269   4.769
 1623SOL     OW 6701  13.205   3.922   4.616
 1623SOL    HW1 6702  13.194   3.829   4.636
 1623SOL    HW2 6703  13.202   3.966   4.700
 1624SOL     OW 6704   3.906   3.959  10.519
 1624SOL    HW1 6705   3.834   3.913  10.475
 1624SOL    HW2 6706   3.867   4.043  10.546
 1625SOL     OW 6707  12.535   9.048   8.946
 1625SOL    HW1 6708  12.529   8.998   8.865
 1625SOL    HW2 6709  12.628   9.069   8.955
 1626SOL     OW 6710   8.619   1.479   3.103
 1626SOL    HW1 6711   8.622   1.573   3.085
 1626SOL    HW2 6712   8.711   1.452   3.104
 1627SOL     OW 6713  11.974   7.495  13.050
 1627SOL    HW1 6714  12.060   7.536  13.056
 1627SOL    HW2 6715  11.912   7.564  13.073
 1628SOL     OW 6716  12.886   2.004   8.180
 1628SOL    HW1 6717  12.919   1.943   8.246
 1628SOL    HW2 6718  12.897   1.957   8.097
 1629SOL     OW 6719   4.536   2.770   3.967
 1629SOL    HW1 6720   4.542   2.732   3.879
 1629SOL    HW2 6721   4.449   2.745   3.998
 1630SOL     OW 6722  12.738  10.844   9.813
 1630SOL    HW1 6723  12.685  10.905   9.761
 1630SOL    HW2 6724  12.722  10.759   9.774
 1631SOL     OW 6725  14.487  14.666   0.991
 1631SOL    HW1 6726  14.572  14.686   0.951
 1631SOL    HW2 6727  14.509  14.613   1.067
 1632SOL     OW 6728   5.227   0.761   8.209
 1632SOL    HW1 6729   5.252   0.771   8.117
 1632SOL    HW2 6730   5.296   0.806   8.257
 1633SOL     OW 6731   6.008   9.215  11.354
 1633SOL    HW1 6732   6.050   9.229  11.270
 1633SOL    HW2 6733   6.044   9.282  11.411
 1634SOL     OW 6734   8.720   3.749  14.219
 1634SOL    HW1 6735   8.654   3.739  14.151
 1634SOL    HW2 6736   8.738   3.660  14.249
 1635SOL     OW 6737  13.869   7.133  11.884
 1635SOL    HW1 6738  13.939   7.136  11.948
 1635SOL    HW2 6739  13.792   7.165  11.931
 1636SOL     OW 6740   5.293  14.288   3.607
 1636SOL    HW1 6741   5.256  14.239   3.534
 1636SOL    HW2 6742   5.381  14.253   3.618
 1637SOL     OW 6743   8.159   9.707   0.028
 1637SOL    HW1 6744   8.237   9.652   0.039
 1637SOL    HW2 6745   8.158   9.763   0.106
 1638SOL     OW 6746   6.356  11.641   1.240
 1638SOL    HW1 6747   6.441  11.633   1.285
 1638SOL    HW2 6748   6.292  11.617   1.306
 1639SOL     OW 6749  11.040   9.143   5.512
 1639SOL    HW1 6750  11.070   9.064   5.557
 1639SOL    HW2 6751  10.987   9.189   5.577
 1640SOL     OW 6752   9.883   1.207   0.884
 1640SOL    HW1 6753   9.794   1.206   0.848
 1640SOL    HW2 6754   9.939   1.222   0.809
 1641SOL     OW 6755   9.670   2.380   1.146
 1641SOL    HW1 6756   9.657   2.408   1.055
 1641SOL    HW2 6757   9.761   2.400   1.164
 1642SOL     OW 6758   4.635   7.439  12.783
 1642SOL    HW1 6759   4.589   7.455  12.700
 1642SOL    HW2 6760   4.692   7.515  12.794
 1643SOL     OW 6761  12.017  10.747   4.168
 1643SOL    HW1 6762  11.954  10.812   4.138
 1643SOL    HW2 6763  12.087  10.799   4.208
 1644SOL     OW 6764   8.503   2.136  14.380
 1644SOL    HW1 6765   8.518   2.224  14.346
 1644SOL    HW2 6766   8.578   2.085  14.348
 1645SOL     OW 6767   1.025  12.234   6.252
 1645SOL    HW1 6768   1.016  12.210   6.160
 1645SOL    HW2 6769   1.063  12.322   6.250
 1646SOL     OW 6770   9.233   0.410   3.948
 1646SOL    HW1 6771   9.155   0.462   3.965
 1646SOL    HW2 6772   9.230   0.394   3.853
 1647SOL     OW 6773   5.513   4.364   7.765
 1647SOL    HW1 6774   5.487   4.456   7.777
 1647SOL    HW2 6775   5.475   4.338   7.682
 1648SOL     OW 6776   1.394   5.812   2.766
 1648SOL    HW1 6777   1.384   5.732   2.818
 1648SOL    HW2 6778   1.443   5.872   2.822
 1649SOL     OW 6779   0.050  14.260  10.769
 1649SOL    HW1 6780   0.054  14.251  10.674
 1649SOL    HW2 6781   0.091  14.180  10.802
 1650SOL     OW 6782   4.499   0.474  10.449
 1650SOL    HW1 6783   4.468   0.384  10.446
 1650SOL    HW2 6784   4.491   0.500  10.541
 1651SOL     OW 6785  13.842   7.087   8.122
 1651SOL    HW1 6786  13.764   7.060   8.171
 1651SOL    HW2 6787  13.838   7.183   8.123
 1652SOL     OW 6788  12.471  13.440   1.278
 1652SOL    HW1 6789  12.383  13.458   1.313
 1652SOL    HW2 6790  12.510  13.380   1.342
 1653SOL     OW 6791   3.607  12.755   9.093
 1653SOL    HW1 6792   3.577  12.795   9.012
 1653SOL    HW2 6793   3.574  12.813   9.162
 1654SOL     OW 6794   4.499  11.240   6.889
 1654SOL    HW1 6795   4.480  11.245   6.795
 1654SOL    HW2 6796   4.490  11.148   6.910
 1655SOL     OW 6797  12.525   7.083   9.570
 1655SOL    HW1 6798  12.599   7.130   9.610
 1655SOL    HW2 6799  12.527   7.110   9.478
 1656SOL     OW 6800   8.549   8.852   3.978
 1656SOL    HW1 6801   8.573   8.945   3.979
 1656SOL    HW2 6802   8.588   8.816   4.057
 1657SOL     OW 6803   3.189   9.250   0.634
 1657SOL    HW1 6804   3.117   9.274   0.575
 1657SOL    HW2 6805   3.211   9.160   0.610
 1658SOL     OW 6806   7.513  12.953   2.887
 1658SOL    HW1 6807   7.427  12.939   2.849
 1658SOL    HW2 6808   7.562  12.874   2.865
 1659SOL     OW 6809  12.733   7.985   3.912
 1659SOL    HW1 6810  12.682   7.982   3.993
 1659SOL    HW2 6811  12.808   7.928   3.928
 1660SOL     OW 6812   9.322   0.437   0.214
 1660SOL    HW1 6813   9.276   0.480   0.286
 1660SOL    HW2 6814   9.255   0.425   0.147
 1661SOL     OW 6815   7.679  13.744   2.940
 1661SOL    HW1 6816   7.637  13.661   2.963
 1661SOL    HW2 6817   7.638  13.769   2.857
 1662SOL     OW 6818  14.054   9.312   6.736
 1662SOL    HW1 6819  13.995   9.313   6.811
 1662SOL    HW2 6820  14.087   9.222   6.733
 1663SOL     OW 6821   7.467   7.142   6.702
 1663SOL    HW1 6822   7.511   7.066   6.662
 1663SOL    HW2 6823   7.374   7.124   6.690
 1664SOL     OW 6824  12.647   0.177  14.030
 1664SOL    HW1 6825  12.658   0.269  14.054
 1664SOL    HW2 6826  12.734   0.139  14.039
 1665SOL     OW 6827   0.178   7.607   3.226
 1665SOL    HW1 6828   0.225   7.556   3.159
 1665SOL    HW2 6829   0.100   7.640   3.181
 1666SOL     OW 6830   4.312   1.650  10.622
 1666SOL    HW1 6831   4.408   1.645  10.617
 1666SOL    HW2 6832   4.293   1.644  10.716
 1667SOL     OW 6833   0.330  14.821   9.195
 1667SOL    HW1 6834   0.368  14.739   9.224
 1667SOL    HW2 6835   0.317  14.810   9.101
 1668SOL     OW 6836  14.182   6.211  13.688
 1668SOL    HW1 6837  14.126   6.271  13.736
 1668SOL    HW2 6838  14.206   6.259  13.608
 1669SOL     OW 6839   0.733  12.925  11.864
 1669SOL    HW1 6840   0.658  12.974  11.898
 1669SOL    HW2 6841   0.710  12.907  11.773
 1670SOL     OW 6842   1.968   7.501  12.291
 1670SOL    HW1 6843   1.958   7.578  12.347
 1670SOL    HW2 6844   2.014   7.534  12.213
 1671SOL     OW 6845   7.226   0.256  10.858
 1671SOL    HW1 6846   7.247   0.334  10.807
 1671SOL    HW2 6847   7.290   0.191  10.831
 1672SOL     OW 6848  10.628  12.901  14.507
 1672SOL    HW1 6849  10.719  12.929  14.513
 1672SOL    HW2 6850  10.586  12.940  14.583
 1673SOL     OW 6851  12.655   8.577   9.719
 1673SOL    HW1 6852  12.702   8.541   9.794
 1673SOL    HW2 6853  12.584   8.629   9.757
 1674SOL     OW 6854   8.001   0.758   9.706
 1674SOL    HW1 6855   8.076   0.731   9.653
 1674SOL    HW2 6856   7.939   0.685   9.699
 1675SOL     OW 6857  11.025   8.814   7.636
 1675SOL    HW1 6858  11.043   8.745   7.572
 1675SOL    HW2 6859  11.073   8.787   7.714
 1676SOL     OW 6860  10.804   5.284  10.488
 1676SOL    HW1 6861  10.725   5.271  10.436
 1676SOL    HW2 6862  10.847   5.198  10.488
 1677SOL     OW 6863   7.546   1.522   8.910
 1677SOL    HW1 6864   7.504   1.568   8.837
 1677SOL    HW2 6865   7.613   1.467   8.868
 1678SOL     OW 6866   3.301   9.722   0.620
 1678SOL    HW1 6867   3.250   9.793   0.581
 1678SOL    HW2 6868   3.240   9.680   0.681
 1679SOL     OW 6869  14.472  14.005  10.919
 1679SOL    HW1 6870  14.496  13.924  10.965
 1679SOL    HW2 6871  14.461  13.978  10.828
 1680SOL     OW 6872  13.970  11.876   4.511
 1680SOL    HW1 6873  13.961  11.813   4.440
 1680SOL    HW2 6874  13.887  11.924   4.512
 1681SOL     OW 6875   6.454  10.293   6.055
 1681SOL    HW1 6876   6.434  10.274   5.964
 1681SOL    HW2 6877   6.413  10.378   6.072
 1682SOL     OW 6878   3.016  10.244   3.613
 1682SOL    HW1 6879   3.014  10.340   3.615
 1682SOL    HW2 6880   2.977  10.218   3.697
 1683SOL     OW 6881  13.719  14.038   5.766
 1683SOL    HW1 6882  13.704  14.004   5.677
 1683SOL    HW2 6883  13.731  13.959   5.819
 1684SOL     OW 6884   8.252   3.205   4.125
 1684SOL    HW1 6885   8.170   3.251   4.108
 1684SOL    HW2 6886   8.266   3.215   4.219
 1685SOL     OW 6887   7.668   3.554   4.896
 1685SOL    HW1 6888   7.653   3.536   4.989
 1685SOL    HW2 6889   7.593   3.607   4.869
 1686SOL     OW 6890   6.820   4.052   8.435
 1686SOL    HW1 6891   6.823   3.974   8.492
 1686SOL    HW2 6892   6.912   4.067   8.411
 1687SOL     OW 6893   3.324   7.853   0.856
 1687SOL    HW1 6894   3.345   7.945   0.838
 1687SOL    HW2 6895   3.376   7.804   0.792
 1688SOL     OW 6896   8.383   7.649   8.591
 1688SOL    HW1 6897   8.373   7.730   8.541
 1688SOL    HW2 6898   8.334   7.584   8.541
 1689SOL     OW 6899   0.059  14.566   8.989
 1689SOL    HW1 6900   0.010  14.526   8.917
 1689SOL    HW2 6901   0.036  14.658   8.987
 1690SOL     OW 6902  10.111  12.462  14.606
 1690SOL    HW1 6903  10.148  12.438  14.521
 1690SOL    HW2 6904  10.163  12.536  14.635
 1691SOL     OW 6905  12.454  13.522  11.940
 1691SOL    HW1 6906  12.372  13.482  11.912
 1691SOL    HW2 6907  12.447  13.614  11.913
 1692SOL     OW 6908   3.714   6.325  12.813
 1692SOL    HW1 6909   3.658   6.334  12.737
 1692SOL    HW2 6910   3.730   6.415  12.842
 1693SOL     OW 6911  13.484  11.435   9.164
 1693SOL    HW1 6912  13.560  11.466   9.213
 1693SOL    HW2 6913  13.424  11.403   9.231
 1694SOL     OW 6914   4.701  11.968   2.670
 1694SOL    HW1 6915   4.789  11.995   2.697
 1694SOL    HW2 6916   4.657  12.050   2.648
 1695SOL     OW 6917   9.604   2.238   9.898
 1695SOL    HW1 6918   9.593   2.265   9.807
 1695SOL    HW2 6919   9.607   2.142   9.895
 1696SOL     OW 6920  14.241   0.999   0.147
 1696SOL    HW1 6921  14.283   0.945   0.214
 1696SOL    HW2 6922  14.235   0.942   0.070
 1697SOL     OW 6923   7.949   7.719   7.845
 1697SOL    HW1 6924   8.001   7.759   7.915
 1697SOL    HW2 6925   8.011   7.707   7.773
 1698SOL     OW 6926   8.097   7.334   2.894
 1698SOL    HW1 6927   8.089   7.322   2.988
 1698SOL    HW2 6928   8.035   7.404   2.873
 1699SOL     OW 6929  14.472   1.598   0.919
 1699SOL    HW1 6930  14.390   1.567   0.957
 1699SOL    HW2 6931  14.520   1.518   0.898
 1700SOL     OW 6932   5.429  12.192  13.255
 1700SOL    HW1 6933   5.370  12.175  13.328
 1700SOL    HW2 6934   5.492  12.255  13.289
 1701SOL     OW 6935   9.173  13.193   8.008
 1701SOL    HW1 6936   9.107  13.231   8.065
 1701SOL    HW2 6937   9.154  13.230   7.921
 1702SOL     OW 6938   1.601   2.336   4.035
 1702SOL    HW1 6939   1.521   2.320   3.984
 1702SOL    HW2 6940   1.572   2.387   4.110
 1703SOL     OW 6941   5.359   3.411   2.158
 1703SOL    HW1 6942   5.405   3.485   2.197
 1703SOL    HW2 6943   5.278   3.447   2.124
 1704SOL     OW 6944   7.517   2.766   1.595
 1704SOL    HW1 6945   7.549   2.797   1.680
 1704SOL    HW2 6946   7.597   2.745   1.547
 1705SOL     OW 6947   0.733   5.623   7.769
 1705SOL    HW1 6948   0.677   5.694   7.737
 1705SOL    HW2 6949   0.756   5.574   7.690
 1706SOL     OW 6950  11.145   9.507   4.301
 1706SOL    HW1 6951  11.058   9.486   4.267
 1706SOL    HW2 6952  11.194   9.536   4.225
 1707SOL     OW 6953   4.497   5.280   6.877
 1707SOL    HW1 6954   4.514   5.186   6.877
 1707SOL    HW2 6955   4.529   5.310   6.791
 1708SOL     OW 6956   4.793  14.030   3.162
 1708SOL    HW1 6957   4.767  13.966   3.228
 1708SOL    HW2 6958   4.767  13.990   3.079
 1709SOL     OW 6959  12.241  12.609  10.637
 1709SOL    HW1 6960  12.332  12.590  10.660
 1709SOL    HW2 6961  12.199  12.635  10.719
 1710SOL     OW 6962   2.891   4.017   6.959
 1710SOL    HW1 6963   2.936   3.932   6.951
 1710SOL    HW2 6964   2.821   4.001   7.022
 1711SOL     OW 6965  13.486   5.020   4.892
 1711SOL    HW1 6966  13.398   5.056   4.880
 1711SOL    HW2 6967  13.540   5.096   4.913
 1712SOL     OW 6968   7.743   7.970   6.633
 1712SOL    HW1 6969   7.804   8.036   6.665
 1712SOL    HW2 6970   7.759   7.893   6.689
 1713SOL     OW 6971   4.893   4.412   4.992
 1713SOL    HW1 6972   4.976   4.401   4.945
 1713SOL    HW2 6973   4.832   4.441   4.925
 1714SOL     OW 6974   7.753  10.199  12.580
 1714SOL    HW1 6975   7.838  10.167  12.549
 1714SOL    HW2 6976   7.717  10.245  12.505
 1715SOL     OW 6977   5.750  13.646  11.481
 1715SOL    HW1 6978   5.788  13.732  11.495
 1715SOL    HW2 6979   5.718  13.619  11.567
 1716SOL     OW 6980  12.386  11.716   9.937
 1716SOL    HW1 6981  12.349  11.631   9.913
 1716SOL    HW2 6982  12.444  11.739   9.865
 1717SOL     OW 6983  14.604  11.926  14.558
 1717SOL    HW1 6984  14.674  11.886  14.611
 1717SOL    HW2 6985  14.650  11.966  14.484
 1718SOL     OW 6986   5.523   0.945   7.688
 1718SOL    HW1 6987   5.617   0.949   7.674
 1718SOL    HW2 6988   5.513   0.912   7.778
 1719SOL     OW 6989   9.272   2.303   1.046
 1719SOL    HW1 6990   9.230   2.217   1.034
 1719SOL    HW2 6991   9.249   2.352   0.968
 1720SOL     OW 6992   3.624   8.801   7.649
 1720SOL    HW1 6993   3.537   8.829   7.621
 1720SOL    HW2 6994   3.616   8.706   7.662
 1721SOL     OW 6995   1.392   3.934   4.831
 1721SOL    HW1 6996   1.476   3.913   4.790
 1721SOL    HW2 6997   1.407   4.017   4.876
 1722SOL     OW 6998  13.639   7.633  11.841
 1722SOL    HW1 6999  13.600   7.562  11.891
 1722SOL    HW2 7000  13.584   7.709  11.860
 1723SOL     OW 7001   2.833  12.593  11.610
 1723SOL    HW1 7002   2.755  12.577  11.664
 1723SOL    HW2 7003   2.798  12.606  11.521
 1724SOL     OW 7004   8.721   2.130   2.339
 1724SOL    HW1 7005   8.663   2.116   2.414
 1724SOL    HW2 7006   8.694   2.063   2.276
 1725SOL     OW 7007   8.415  14.477  11.647
 1725SOL    HW1 7008   8.453  14.481  11.734
 1725SOL    HW2 7009   8.359  14.554  11.642
 1726SOL     OW 7010  13.387   3.952   6.812
 1726SOL    HW1 7011  13.444   3.963   6.736
 1726SOL    HW2 7012  13.424   4.010   6.878
 1727SOL     OW 7013   8.309  10.749   1.893
 1727SOL    HW1 7014   8.285  10.781   1.980
 1727SOL    HW2 7015   8.392  10.702   1.908
 1728SOL     OW 7016   4.467   5.698   9.664
 1728SOL    HW1 7017   4.446   5.717   9.572
 1728SOL    HW2 7018   4.563   5.695   9.665
 1729SOL     OW 7019  11.755   0.477  14.852
 1729SOL    HW1 7020  11.800   0.397  14.827
 1729SOL    HW2 7021  11.801   0.546  14.804
 1730SOL     OW 7022   2.479   3.648   3.285
 1730SOL    HW1 7023   2.473   3.578   3.350
 1730SOL    HW2 7024   2.496   3.727   3.337
 1731SOL     OW 7025   4.890   5.819   7.618
 1731SOL    HW1 7026   4.844   5.790   7.697
 1731SOL    HW2 7027   4.837   5.783   7.546
 1732SOL     OW 7028  10.713   2.552   3.255
 1732SOL    HW1 7029  10.801   2.519   3.239
 1732SOL    HW2 7030  10.726   2.633   3.305
 1733SOL     OW 7031  12.039   6.835  10.017
 1733SOL    HW1 7032  12.051   6.911  10.074
 1733SOL    HW2 7033  11.946   6.835   9.995
 1734SOL     OW 7034   9.048  10.391   9.506
 1734SOL    HW1 7035   8.981  10.434   9.453
 1734SOL    HW2 7036   9.005  10.373   9.589
 1735SOL     OW 7037  14.687   1.548  13.252
 1735SOL    HW1 7038  14.761   1.572  13.307
 1735SOL    HW2 7039  14.644   1.631  13.232
 1736SOL     OW 7040   8.169   5.206   4.738
 1736SOL    HW1 7041   8.103   5.143   4.709
 1736SOL    HW2 7042   8.119   5.276   4.780
 1737SOL     OW 7043   1.136   2.409   5.359
 1737SOL    HW1 7044   1.061   2.351   5.366
 1737SOL    HW2 7045   1.212   2.351   5.362
 1738SOL     OW 7046   1.998   6.666   3.875
 1738SOL    HW1 7047   1.941   6.668   3.953
 1738SOL    HW2 7048   2.087   6.661   3.911
 1739SOL     OW 7049  14.154   5.767   9.476
 1739SOL    HW1 7050  14.065   5.797   9.459
 1739SOL    HW2 7051  14.149   5.727   9.563
 1740SOL     OW 7052   5.389  11.021   2.600
 1740SOL    HW1 7053   5.405  11.064   2.684
 1740SOL    HW2 7054   5.476  10.994   2.570
 1741SOL     OW 7055  10.715  12.556   0.978
 1741SOL    HW1 7056  10.678  12.535   0.892
 1741SOL    HW2 7057  10.797  12.601   0.959
 1742SOL     OW 7058  13.159   9.106   8.312
 1742SOL    HW1 7059  13.142   9.065   8.396
 1742SOL    HW2 7060  13.080   9.088   8.261
 1743SOL     OW 7061  11.643   6.377  13.407
 1743SOL    HW1 7062  11.639   6.465  13.369
 1743SOL    HW2 7063  11.706   6.331  13.351
 1744SOL     OW 7064   7.688   1.092   1.537
 1744SOL    HW1 7065   7.727   1.113   1.622
 1744SOL    HW2 7066   7.761   1.064   1.483
 1745SOL     OW 7067   5.797  14.810   9.814
 1745SOL    HW1 7068   5.792  14.755   9.893
 1745SOL    HW2 7069   5.713  14.855   9.811
 1746SOL     OW 7070   5.865  12.598  10.025
 1746SOL    HW1 7071   5.945  12.612  10.077
 1746SOL    HW2 7072   5.885  12.637   9.939
 1747SOL     OW 7073   4.133  10.340   5.148
 1747SOL    HW1 7074   4.102  10.254   5.178
 1747SOL    HW2 7075   4.221  10.323   5.115
 1748SOL     OW 7076   6.507   3.903   5.035
 1748SOL    HW1 7077   6.462   3.824   5.007
 1748SOL    HW2 7078   6.576   3.916   4.970
 1749SOL     OW 7079   8.268  10.681   5.982
 1749SOL    HW1 7080   8.272  10.596   5.939
 1749SOL    HW2 7081   8.356  10.717   5.973
 1750SOL     OW 7082   3.203   2.514   3.077
 1750SOL    HW1 7083   3.126   2.546   3.029
 1750SOL    HW2 7084   3.167   2.477   3.158
 1751SOL     OW 7085   7.213  14.382   1.517
 1751SOL    HW1 7086   7.238  14.456   1.572
 1751SOL    HW2 7087   7.120  14.397   1.498
 1752SOL     OW 7088   8.736   3.855  13.449
 1752SOL    HW1 7089   8.755   3.826  13.359
 1752SOL    HW2 7090   8.681   3.785  13.485
 1753SOL     OW 7091  12.243   6.226  10.954
 1753SOL    HW1 7092  12.152   6.198  10.949
 1753SOL    HW2 7093  12.245   6.285  11.030
 1754SOL     OW 7094   6.812  12.765   9.434
 1754SOL    HW1 7095   6.878  12.703   9.403
 1754SOL    HW2 7096   6.824  12.766   9.529
 1755SOL     OW 7097  10.328   7.878  10.067
 1755SOL    HW1 7098  10.260   7.887  10.000
 1755SOL    HW2 7099  10.298   7.807  10.123
 1756SOL     OW 7100   4.950   6.429   7.470
 1756SOL    HW1 7101   4.889   6.362   7.500
 1756SOL    HW2 7102   5.036   6.385   7.471
 1757SOL     OW 7103  10.513  12.315   6.548
 1757SOL    HW1 7104  10.436  12.352   6.591
 1757SOL    HW2 7105  10.573  12.293   6.619
 1758SOL     OW 7106   5.225   0.252  12.265
 1758SOL    HW1 7107   5.228   0.342  12.234
 1758SOL    HW2 7108   5.246   0.258  12.359
 1759SOL     OW 7109   9.266   9.326   3.990
 1759SOL    HW1 7110   9.221   9.384   4.051
 1759SOL    HW2 7111   9.260   9.371   3.906
 1760SOL     OW 7112   7.072   0.836   2.751
 1760SOL    HW1 7113   7.155   0.884   2.745
 1760SOL    HW2 7114   7.011   0.900   2.786
 1761SOL     OW 7115   1.744  14.355  14.371
 1761SOL    HW1 7116   1.811  14.402  14.322
 1761SOL    HW2 7117   1.676  14.334  14.306
 1762SOL     OW 7118   9.296   6.580   3.337
 1762SOL    HW1 7119   9.261   6.665   3.365
 1762SOL    HW2 7120   9.223   6.519   3.352
 1763SOL     OW 7121  10.270  13.302   4.925
 1763SOL    HW1 7122  10.229  13.388   4.940
 1763SOL    HW2 7123  10.244  13.250   5.001
 1764SOL     OW 7124   0.759  12.157   2.344
 1764SOL    HW1 7125   0.711  12.084   2.384
 1764SOL    HW2 7126   0.751  12.228   2.407
 1765SOL     OW 7127  13.069  13.137  10.745
 1765SOL    HW1 7128  13.026  13.190  10.811
 1765SOL    HW2 7129  13.122  13.075  10.795
 1766SOL     OW 7130   2.719  10.403   0.421
 1766SOL    HW1 7131   2.638  10.432   0.381
 1766SOL    HW2 7132   2.777  10.383   0.348
 1767SOL     OW 7133  13.915  10.955   8.240
 1767SOL    HW1 7134  13.992  10.995   8.198
 1767SOL    HW2 7135  13.950  10.913   8.319
 1768SOL     OW 7136   6.174  10.900   7.120
 1768SOL    HW1 7137   6.217  10.815   7.116
 1768SOL    HW2 7138   6.246  10.963   7.124
 1769SOL     OW 7139   7.441   6.050  11.800
 1769SOL    HW1 7140   7.378   6.092  11.742
 1769SOL    HW2 7141   7.459   6.116  11.868
 1770SOL     OW 7142  13.338  12.450  13.007
 1770SOL    HW1 7143  13.313  12.537  12.977
 1770SOL    HW2 7144  13.433  12.454  13.017
 1771SOL     OW 7145   1.717   6.225   7.779
 1771SOL    HW1 7146   1.807   6.236   7.748
 1771SOL    HW2 7147   1.722   6.154   7.842
 1772SOL     OW 7148   5.524   3.595  12.872
 1772SOL    HW1 7149   5.456   3.595  12.805
 1772SOL    HW2 7150   5.484   3.551  12.946
 1773SOL     OW 7151   8.004   0.878   0.322
 1773SOL    HW1 7152   7.941   0.910   0.386
 1773SOL    HW2 7153   7.981   0.786   0.308
 1774SOL     OW 7154   6.835   5.676  14.188
 1774SOL    HW1 7155   6.769   5.745  14.193
 1774SOL    HW2 7156   6.789   5.602  14.147
 1775SOL     OW 7157   5.025   0.961   1.882
 1775SOL    HW1 7158   5.113   0.999   1.876
 1775SOL    HW2 7159   4.990   0.971   1.793
 1776SOL     OW 7160  10.537   7.125   1.651
 1776SOL    HW1 7161  10.449   7.108   1.617
 1776SOL    HW2 7162  10.525   7.132   1.746
 1777SOL     OW 7163  12.947   2.596  10.292
 1777SOL    HW1 7164  13.017   2.532  10.277
 1777SOL    HW2 7165  12.881   2.575  10.227
 1778SOL     OW 7166   4.309  14.155   7.889
 1778SOL    HW1 7167   4.393  14.201   7.879
 1778SOL    HW2 7168   4.245  14.225   7.905
 1779SOL     OW 7169  10.379   0.025  13.245
 1779SOL    HW1 7170  10.323   0.025  13.167
 1779SOL    HW2 7171  10.405   0.117  13.255
 1780SOL     OW 7172  10.163   5.969  13.321
 1780SOL    HW1 7173  10.180   5.985  13.228
 1780SOL    HW2 7174  10.100   6.037  13.346
 1781SOL     OW 7175   0.290   3.215  14.255
 1781SOL    HW1 7176   0.369   3.165  14.273
 1781SOL    HW2 7177   0.245   3.220  14.340
 1782SOL     OW 7178   9.561   8.713   1.041
 1782SOL    HW1 7179   9.516   8.638   1.080
 1782SOL    HW2 7180   9.637   8.675   0.996
 1783SOL     OW 7181   4.660   4.626  11.359
 1783SOL    HW1 7182   4.732   4.651  11.302
 1783SOL    HW2 7183   4.631   4.709  11.398
 1784SOL     OW 7184   1.358  10.793  13.897
 1784SOL    HW1 7185   1.290  10.851  13.931
 1784SOL    HW2 7186   1.383  10.831  13.813
 1785SOL     OW 7187   3.238   7.651   2.936
 1785SOL    HW1 7188   3.227   7.687   3.024
 1785SOL    HW2 7189   3.299   7.711   2.893
 1786SOL     OW 7190   2.575   0.383  10.972
 1786SOL    HW1 7191   2.550   0.396  11.063
 1786SOL    HW2 7192   2.496   0.400  10.922
 1787SOL     OW 7193   8.925   2.167   8.402
 1787SOL    HW1 7194   8.943   2.185   8.494
 1787SOL    HW2 7195   8.923   2.071   8.397
 1788SOL     OW 7196   2.570   8.175   8.386
 1788SOL    HW1 7197   2.609   8.099   8.429
 1788SOL    HW2 7198   2.479   8.149   8.371
 1789SOL     OW 7199   4.503   7.721   4.497
 1789SOL    HW1 7200   4.541   7.713   4.585
 1789SOL    HW2 7201   4.524   7.639   4.454
 1790SOL     OW 7202   6.062  11.758  11.713
 1790SOL    HW1 7203   6.038  11.829  11.773
 1790SOL    HW2 7204   6.109  11.801  11.642
 1791SOL     OW 7205   7.821   2.005  10.418
 1791SOL    HW1 7206   7.887   1.981  10.482
 1791SOL    HW2 7207   7.812   2.100  10.428
 1792SOL     OW 7208  11.428  13.084  13.571
 1792SOL    HW1 7209  11.389  13.013  13.519
 1792SOL    HW2 7210  11.355  13.143  13.590
 1793SOL     OW 7211   8.797   8.579  11.374
 1793SOL    HW1 7212   8.777   8.653  11.318
 1793SOL    HW2 7213   8.730   8.514  11.353
 1794SOL     OW 7214  10.647   9.474  10.912
 1794SOL    HW1 7215  10.661   9.515  10.827
 1794SOL    HW2 7216  10.633   9.381  10.892
 1795SOL     OW 7217  11.809  14.215   4.179
 1795SOL    HW1 7218  11.818  14.290   4.120
 1795SOL    HW2 7219  11.825  14.251   4.266
 1796SOL     OW 7220   6.001   3.677   3.902
 1796SOL    HW1 7221   6.018   3.767   3.930
 1796SOL    HW2 7222   6.085   3.632   3.911
 1797SOL     OW 7223   5.421   9.298  11.390
 1797SOL    HW1 7224   5.474   9.220  11.374
 1797SOL    HW2 7225   5.455   9.334  11.471
 1798SOL     OW 7226   7.722   5.601  11.685
 1798SOL    HW1 7227   7.775   5.570  11.612
 1798SOL    HW2 7228   7.763   5.562  11.762
 1799SOL     OW 7229   0.184   1.810   2.977
 1799SOL    HW1 7230   0.241   1.855   2.915
 1799SOL    HW2 7231   0.188   1.863   3.056
 1800SOL     OW 7232  11.103   3.883  14.376
 1800SOL    HW1 7233  11.022   3.877  14.326
 1800SOL    HW2 7234  11.087   3.831  14.455
 1801SOL     OW 7235   0.893   9.197   9.195
 1801SOL    HW1 7236   0.852   9.283   9.197
 1801SOL    HW2 7237   0.920   9.181   9.285
 1802SOL     OW 7238   0.753  13.336   6.169
 1802SOL    HW1 7239   0.802  13.280   6.109
 1802SOL    HW2 7240   0.680  13.370   6.116
 1803SOL     OW 7241   1.901  12.690   7.155
 1803SOL    HW1 7242   1.815  12.673   7.193
 1803SOL    HW2 7243   1.951  12.611   7.173
 1804SOL     OW 7244   9.076   6.355   8.221
 1804SOL    HW1 7245   9.016   6.396   8.158
 1804SOL    HW2 7246   9.034   6.368   8.306
 1805SOL     OW 7247   5.224   0.308  13.110
 1805SOL    HW1 7248   5.156   0.365  13.074
 1805SOL    HW2 7249   5.300   0.324  13.055
 1806SOL     OW 7250   6.213   7.242   0.098
 1806SOL    HW1 7251   6.268   7.166   0.119
 1806SOL    HW2 7252   6.205   7.288   0.181
 1807SOL     OW 7253   4.517   7.497  12.550
 1807SOL    HW1 7254   4.493   7.436  12.480
 1807SOL    HW2 7255   4.577   7.558  12.508
 1808SOL     OW 7256   5.592   6.610   2.919
 1808SOL    HW1 7257   5.561   6.542   2.978
 1808SOL    HW2 7258   5.540   6.598   2.839
 1809SOL     OW 7259  10.936   8.281  10.327
 1809SOL    HW1 7260  10.852   8.288  10.372
 1809SOL    HW2 7261  10.990   8.227  10.385
 1810SOL     OW 7262  13.469   2.597   3.377
 1810SOL    HW1 7263  13.393   2.586   3.434
 1810SOL    HW2 7264  13.505   2.682   3.403
 1811SOL     OW 7265   3.306   3.012   1.300
 1811SOL    HW1 7266   3.384   3.006   1.355
 1811SOL    HW2 7267   3.333   3.066   1.226
 1812SOL     OW 7268   5.935   4.622   8.400
 1812SOL    HW1 7269   5.904   4.532   8.388
 1812SOL    HW2 7270   6.008   4.631   8.340
 1813SOL     OW 7271   1.245   7.879   5.217
 1813SOL    HW1 7272   1.286   7.854   5.299
 1813SOL    HW2 7273   1.223   7.971   5.228
 1814SOL     OW 7274   4.579   5.406   9.180
 1814SOL    HW1 7275   4.595   5.355   9.260
 1814SOL    HW2 7276   4.666   5.421   9.144
 1815SOL     OW 7277   8.634   4.558   1.776
 1815SOL    HW1 7278   8.637   4.622   1.705
 1815SOL    HW2 7279   8.706   4.497   1.756
 1816SOL     OW 7280   8.045  11.222  11.753
 1816SOL    HW1 7281   8.037  11.136  11.796
 1816SOL    HW2 7282   7.995  11.213  11.672
 1817SOL     OW 7283  12.279   4.372  14.603
 1817SOL    HW1 7284  12.228   4.442  14.645
 1817SOL    HW2 7285  12.293   4.308  14.673
 1818SOL     OW 7286   3.452   2.851   5.587
 1818SOL    HW1 7287   3.371   2.842   5.636
 1818SOL    HW2 7288   3.446   2.938   5.546
 1819SOL     OW 7289   2.906   3.292   2.071
 1819SOL    HW1 7290   2.987   3.309   2.118
 1819SOL    HW2 7291   2.920   3.328   1.983
 1820SOL     OW 7292  10.776   7.202  12.207
 1820SOL    HW1 7293  10.691   7.163  12.187
 1820SOL    HW2 7294  10.823   7.202  12.124
 1821SOL     OW 7295   3.992   9.759   3.084
 1821SOL    HW1 7296   3.957   9.681   3.040
 1821SOL    HW2 7297   3.927   9.781   3.150
 1822SOL     OW 7298   1.900   6.356   7.472
 1822SOL    HW1 7299   1.804   6.356   7.481
 1822SOL    HW2 7300   1.931   6.407   7.546
 1823SOL     OW 7301   1.863  10.320  12.058
 1823SOL    HW1 7302   1.802  10.325  11.985
 1823SOL    HW2 7303   1.865  10.409  12.094
 1824SOL     OW 7304   0.001   8.773   2.365
 1824SOL    HW1 7305  14.779   8.787   2.361
 1824SOL    HW2 7306   0.035   8.854   2.404
 1825SOL     OW 7307   4.200   4.618   4.539
 1825SOL    HW1 7308   4.175   4.589   4.451
 1825SOL    HW2 7309   4.294   4.634   4.534
 1826SOL     OW 7310  11.422   1.320   2.039
 1826SOL    HW1 7311  11.335   1.283   2.052
 1826SOL    HW2 7312  11.457   1.329   2.128
 1827SOL     OW 7313  11.900   0.750   2.026
 1827SOL    HW1 7314  11.808   0.766   2.003
 1827SOL    HW2 7315  11.898   0.739   2.121
 1828SOL     OW 7316   6.142  13.302   6.002
 1828SOL    HW1 7317   6.047  13.316   5.998
 1828SOL    HW2 7318   6.162  13.254   5.923
 1829SOL     OW 7319   0.247   1.090   1.539
 1829SOL    HW1 7320   0.198   1.116   1.461
 1829SOL    HW2 7321   0.311   1.160   1.552
 1830SOL     OW 7322   5.137   7.554  11.916
 1830SOL    HW1 7323   5.162   7.474  11.962
 1830SOL    HW2 7324   5.185   7.550  11.833
 1831SOL     OW 7325   7.432   1.794   7.918
 1831SOL    HW1 7326   7.497   1.776   7.850
 1831SOL    HW2 7327   7.463   1.874   7.960
 1832SOL     OW 7328   0.118   9.366   1.904
 1832SOL    HW1 7329   0.070   9.389   1.984
 1832SOL    HW2 7330   0.050   9.354   1.838
 1833SOL     OW 7331   4.567  10.097  11.443
 1833SOL    HW1 7332   4.548  10.109  11.350
 1833SOL    HW2 7333   4.662  10.112  11.450
 1834SOL     OW 7334   6.575  13.402  10.796
 1834SOL    HW1 7335   6.606  13.323  10.751
 1834SOL    HW2 7336   6.485  13.413  10.766
 1835SOL     OW 7337   6.391   2.324  13.220
 1835SOL    HW1 7338   6.315   2.368  13.257
 1835SOL    HW2 7339   6.417   2.378  13.145
 1836SOL     OW 7340   2.825  13.853   5.423
 1836SOL    HW1 7341   2.819  13.788   5.493
 1836SOL    HW2 7342   2.790  13.809   5.346
 1837SOL     OW 7343   8.218   4.554  14.334
 1837SOL    HW1 7344   8.258   4.601  14.261
 1837SOL    HW2 7345   8.183   4.623  14.391
 1838SOL     OW 7346   9.777   8.142  12.993
 1838SOL    HW1 7347   9.829   8.156  13.071
 1838SOL    HW2 7348   9.838   8.155  12.920
 1839SOL     OW 7349  13.040  11.170  14.151
 1839SOL    HW1 7350  13.134  11.186  14.150
 1839SOL    HW2 7351  13.010  11.204  14.235
 1840SOL     OW 7352   2.593   4.491   4.435
 1840SOL    HW1 7353   2.668   4.509   4.379
 1840SOL    HW2 7354   2.629   4.486   4.524
 1841SOL     OW 7355   8.045   3.732   5.398
 1841SOL    HW1 7356   7.995   3.685   5.331
 1841SOL    HW2 7357   8.048   3.823   5.366
 1842SOL     OW 7358  12.672  13.897   1.539
 1842SOL    HW1 7359  12.661  13.833   1.468
 1842SOL    HW2 7360  12.629  13.976   1.507
 1843SOL     OW 7361   2.257   1.336   8.927
 1843SOL    HW1 7362   2.241   1.323   9.021
 1843SOL    HW2 7363   2.246   1.431   8.914
 1844SOL     OW 7364  11.383  13.256   3.639
 1844SOL    HW1 7365  11.428  13.328   3.684
 1844SOL    HW2 7366  11.299  13.248   3.684
 1845SOL     OW 7367  12.674   6.326   3.743
 1845SOL    HW1 7368  12.720   6.388   3.801
 1845SOL    HW2 7369  12.586   6.321   3.780
 1846SOL     OW 7370  10.464   8.994   8.491
 1846SOL    HW1 7371  10.394   9.060   8.494
 1846SOL    HW2 7372  10.534   9.036   8.441
 1847SOL     OW 7373  12.990   1.953   4.105
 1847SOL    HW1 7374  12.907   1.921   4.068
 1847SOL    HW2 7375  12.971   1.965   4.198
 1848SOL     OW 7376  14.264  11.439  12.694
 1848SOL    HW1 7377  14.350  11.437  12.737
 1848SOL    HW2 7378  14.281  11.409  12.605
 1849SOL     OW 7379   0.997  13.869   1.502
 1849SOL    HW1 7380   0.947  13.793   1.472
 1849SOL    HW2 7381   1.017  13.917   1.422
 1850SOL     OW 7382  14.774  12.037   6.510
 1850SOL    HW1 7383  14.782  12.016   6.416
 1850SOL    HW2 7384  14.725  12.119   6.512
 1851SOL     OW 7385  13.570  11.362  11.531
 1851SOL    HW1 7386  13.612  11.329  11.452
 1851SOL    HW2 7387  13.548  11.283  11.581
 1852SOL     OW 7388  12.998   6.176   0.239
 1852SOL    HW1 7389  12.978   6.088   0.207
 1852SOL    HW2 7390  12.929   6.194   0.303
 1853SOL     OW 7391  14.704   5.728   2.605
 1853SOL    HW1 7392  14.706   5.633   2.614
 1853SOL    HW2 7393  14.755   5.761   2.678
 1854SOL     OW 7394   8.347   2.921   5.263
 1854SOL    HW1 7395   8.349   3.010   5.297
 1854SOL    HW2 7396   8.436   2.906   5.231
 1855SOL     OW 7397   2.369   7.773   8.841
 1855SOL    HW1 7398   2.379   7.805   8.931
 1855SOL    HW2 7399   2.327   7.846   8.795
 1856SOL     OW 7400  14.736  14.417   2.570
 1856SOL    HW1 7401  14.780  14.468   2.501
 1856SOL    HW2 7402  14.683  14.354   2.522
 1857SOL     OW 7403  12.586  13.960  13.580
 1857SOL    HW1 7404  12.645  14.035  13.583
 1857SOL    HW2 7405  12.629  13.894  13.634
 1858SOL     OW 7406   4.905   9.453  14.616
 1858SOL    HW1 7407   4.885   9.526  14.673
 1858SOL    HW2 7408   4.910   9.377  14.674
 1859SOL     OW 7409  12.907   3.455   8.234
 1859SOL    HW1 7410  12.837   3.471   8.172
 1859SOL    HW2 7411  12.870   3.393   8.297
 1860SOL     OW 7412   9.352   7.665  13.786
 1860SOL    HW1 7413   9.302   7.699  13.860
 1860SOL    HW2 7414   9.424   7.615  13.827
 1861SOL     OW 7415   0.580   2.705  12.769
 1861SOL    HW1 7416   0.634   2.657  12.707
 1861SOL    HW2 7417   0.610   2.674  12.855
 1862SOL     OW 7418   9.818   2.687   6.189
 1862SOL    HW1 7419   9.859   2.677   6.103
 1862SOL    HW2 7420   9.886   2.724   6.244
 1863SOL     OW 7421  11.396   8.921  13.417
 1863SOL    HW1 7422  11.454   8.929  13.492
 1863SOL    HW2 7423  11.384   9.011  13.386
 1864SOL     OW 7424   2.083   5.954   3.657
 1864SOL    HW1 7425   2.087   5.981   3.565
 1864SOL    HW2 7426   2.124   6.026   3.704
 1865SOL     OW 7427  12.882  11.160   2.111
 1865SOL    HW1 7428  12.930  11.241   2.124
 1865SOL    HW2 7429  12.905  11.132   2.023
 1866SOL     OW 7430  12.160  11.015   0.969
 1866SOL    HW1 7431  12.139  11.057   0.886
 1866SOL    HW2 7432  12.256  11.018   0.974
 1867SOL     OW 7433   3.813   0.972   0.607
 1867SOL    HW1 7434   3.884   0.958   0.544
 1867SOL    HW2 7435   3.755   0.897   0.595
 1868SOL     OW 7436  12.248  11.797   6.880
 1868SOL    HW1 7437  12.313  11.774   6.814
 1868SOL    HW2 7438  12.195  11.865   6.839
 1869SOL     OW 7439  12.461   7.886   9.506
 1869SOL    HW1 7440  12.505   7.804   9.526
 1869SOL    HW2 7441  12.495   7.948   9.570
 1870SOL     OW 7442   7.714  14.736   4.082
 1870SOL    HW1 7443   7.790  14.702   4.033
 1870SOL    HW2 7444   7.749  14.757   4.168
 1871SOL     OW 7445   7.385  11.610   5.436
 1871SOL    HW1 7446   7.459  11.667   5.453
 1871SOL    HW2 7447   7.371  11.615   5.342
 1872SOL     OW 7448   9.402   9.596   3.007
 1872SOL    HW1 7449   9.319   9.634   2.979
 1872SOL    HW2 7450   9.464   9.621   2.939
 1873SOL     OW 7451   7.619  14.589   4.369
 1873SOL    HW1 7452   7.564  14.622   4.298
 1873SOL    HW2 7453   7.620  14.660   4.434
 1874SOL     OW 7454   5.376  14.130   5.276
 1874SOL    HW1 7455   5.361  14.209   5.225
 1874SOL    HW2 7456   5.463  14.142   5.314
 1875SOL     OW 7457   9.281  14.634  12.378
 1875SOL    HW1 7458   9.371  14.618  12.352
 1875SOL    HW2 7459   9.275  14.596  12.466
 1876SOL     OW 7460   9.574   2.756   7.028
 1876SOL    HW1 7461   9.669   2.747   7.029
 1876SOL    HW2 7462   9.547   2.709   6.949
 1877SOL     OW 7463   0.947  13.289   8.394
 1877SOL    HW1 7464   0.878  13.241   8.441
 1877SOL    HW2 7465   1.023  13.230   8.396
 1878SOL     OW 7466   5.423  11.785   7.167
 1878SOL    HW1 7467   5.487  11.716   7.149
 1878SOL    HW2 7468   5.471  11.866   7.154
 1879SOL     OW 7469  14.447   2.316   7.852
 1879SOL    HW1 7470  14.378   2.365   7.896
 1879SOL    HW2 7471  14.507   2.383   7.819
 1880SOL     OW 7472  14.435  14.303   9.348
 1880SOL    HW1 7473  14.403  14.235   9.407
 1880SOL    HW2 7474  14.356  14.351   9.323
 1881SOL     OW 7475  13.023   4.144   0.875
 1881SOL    HW1 7476  12.951   4.181   0.926
 1881SOL    HW2 7477  13.087   4.215   0.870
 1882SOL     OW 7478  13.031  11.968   7.933
 1882SOL    HW1 7479  13.087  11.988   7.858
 1882SOL    HW2 7480  12.977  11.894   7.905
 1883SOL     OW 7481  10.884  14.764  10.926
 1883SOL    HW1 7482  10.959  14.822  10.936
 1883SOL    HW2 7483  10.809  14.818  10.952
 1884SOL     OW 7484   5.692  11.716  11.308
 1884SOL    HW1 7485   5.755  11.646  11.326
 1884SOL    HW2 7486   5.613  11.690  11.355
 1885SOL     OW 7487  12.071   0.963   2.952
 1885SOL    HW1 7488  12.038   1.052   2.945
 1885SOL    HW2 7489  12.091   0.937   2.862
 1886SOL     OW 7490   6.853   8.496   4.940
 1886SOL    HW1 7491   6.812   8.508   4.855
 1886SOL    HW2 7492   6.789   8.530   5.003
 1887SOL     OW 7493   5.249   8.980   2.533
 1887SOL    HW1 7494   5.211   8.934   2.458
 1887SOL    HW2 7495   5.334   9.011   2.502
 1888SOL     OW 7496   6.243  13.560   5.447
 1888SOL    HW1 7497   6.161  13.599   5.476
 1888SOL    HW2 7498   6.259  13.597   5.360
 1889SOL     OW 7499   0.988   6.284   0.420
 1889SOL    HW1 7500   1.076   6.246   0.426
 1889SOL    HW2 7501   0.953   6.251   0.337
 1890SOL     OW 7502  14.392  11.992   7.940
 1890SOL    HW1 7503  14.362  12.003   8.030
 1890SOL    HW2 7504  14.454  12.065   7.927
 1891SOL     OW 7505  10.237  10.733   6.476
 1891SOL    HW1 7506  10.283  10.650   6.469
 1891SOL    HW2 7507  10.286  10.782   6.543
 1892SOL     OW 7508   3.175  14.768  11.558
 1892SOL    HW1 7509   3.151  14.825  11.631
 1892SOL    HW2 7510   3.230  14.700  11.598
 1893SOL     OW 7511  11.249   6.337   3.679
 1893SOL    HW1 7512  11.181   6.271   3.671
 1893SOL    HW2 7513  11.201   6.418   3.700
 1894SOL     OW 7514   0.121   5.725   5.072
 1894SOL    HW1 7515   0.061   5.779   5.124
 1894SOL    HW2 7516   0.181   5.788   5.032
 1895SOL     OW 7517   7.136   3.765   0.801
 1895SOL    HW1 7518   7.106   3.737   0.888
 1895SOL    HW2 7519   7.229   3.742   0.799
 1896SOL     OW 7520   1.036   4.857   6.081
 1896SOL    HW1 7521   1.097   4.784   6.094
 1896SOL    HW2 7522   1.056   4.918   6.153
 1897SOL     OW 7523  12.447   7.559   1.762
 1897SOL    HW1 7524  12.424   7.485   1.818
 1897SOL    HW2 7525  12.363   7.597   1.737
 1898SOL     OW 7526   5.057   1.776   7.784
 1898SOL    HW1 7527   5.032   1.816   7.868
 1898SOL    HW2 7528   5.017   1.689   7.787
 1899SOL     OW 7529   3.335   3.365   8.712
 1899SOL    HW1 7530   3.266   3.323   8.764
 1899SOL    HW2 7531   3.327   3.324   8.626
 1900SOL     OW 7532   1.184   2.767  12.184
 1900SOL    HW1 7533   1.170   2.800  12.273
 1900SOL    HW2 7534   1.118   2.699  12.173
 1901SOL     OW 7535   2.937   0.235   0.305
 1901SOL    HW1 7536   2.967   0.269   0.221
 1901SOL    HW2 7537   2.970   0.297   0.369
 1902SOL     OW 7538  13.783  11.103  12.915
 1902SOL    HW1 7539  13.736  11.172  12.962
 1902SOL    HW2 7540  13.783  11.028  12.976
 1903SOL     OW 7541   3.037   4.720  14.357
 1903SOL    HW1 7542   3.015   4.636  14.397
 1903SOL    HW2 7543   3.031   4.783  14.429
 1904SOL     OW 7544   3.968   9.610  12.336
 1904SOL    HW1 7545   3.935   9.532  12.382
 1904SOL    HW2 7546   3.989   9.672  12.405
 1905SOL     OW 7547   2.318  11.152   5.834
 1905SOL    HW1 7548   2.234  11.107   5.842
 1905SOL    HW2 7549   2.352  11.125   5.748
 1906SOL     OW 7550  13.128   3.516   9.533
 1906SOL    HW1 7551  13.173   3.455   9.592
 1906SOL    HW2 7552  13.092   3.583   9.592
 1907SOL     OW 7553  10.265  14.675   6.419
 1907SOL    HW1 7554  10.340  14.647   6.472
 1907SOL    HW2 7555  10.303  14.692   6.332
 1908SOL     OW 7556   3.201  13.664   1.820
 1908SOL    HW1 7557   3.190  13.614   1.901
 1908SOL    HW2 7558   3.228  13.751   1.849
 1909SOL     OW 7559  12.261  11.507   2.864
 1909SOL    HW1 7560  12.201  11.435   2.842
 1909SOL    HW2 7561  12.347  11.475   2.836
 1910SOL     OW 7562   5.139  13.136   9.880
 1910SOL    HW1 7563   5.171  13.111   9.794
 1910SOL    HW2 7564   5.175  13.070   9.940
 1911SOL     OW 7565  14.617   8.750   8.026
 1911SOL    HW1 7566  14.682   8.683   8.044
 1911SOL    HW2 7567  14.574   8.765   8.110
 1912SOL     OW 7568  13.587   1.885   3.728
 1912SOL    HW1 7569  13.591   1.980   3.740
 1912SOL    HW2 7570  13.507   1.858   3.773
 1913SOL     OW 7571  10.828  12.574  14.786
 1913SOL    HW1 7572  10.890  12.581  14.859
 1913SOL    HW2 7573  10.878  12.534  14.715
 1914SOL     OW 7574   7.482   3.561  14.398
 1914SOL    HW1 7575   7.464   3.479  14.352
 1914SOL    HW2 7576   7.409   3.571  14.459
 1915SOL     OW 7577  11.249   1.612   4.439
 1915SOL    HW1 7578  11.257   1.673   4.513
 1915SOL    HW2 7579  11.160   1.579   4.446
 1916SOL     OW 7580   9.128  13.241   8.541
 1916SOL    HW1 7581   9.091  13.153   8.537
 1916SOL    HW2 7582   9.053  13.299   8.524
 1917SOL     OW 7583   3.650   4.781  11.931
 1917SOL    HW1 7584   3.708   4.764  11.857
 1917SOL    HW2 7585   3.706   4.773  12.008
 1918SOL     OW 7586   9.250  13.613   0.498
 1918SOL    HW1 7587   9.240  13.673   0.424
 1918SOL    HW2 7588   9.171  13.625   0.550
 1919SOL     OW 7589  13.817   0.712  11.526
 1919SOL    HW1 7590  13.740   0.657  11.535
 1919SOL    HW2 7591  13.869   0.695  11.605
 1920SOL     OW 7592   4.204   0.721   0.124
 1920SOL    HW1 7593   4.288   0.742   0.166
 1920SOL    HW2 7594   4.222   0.730   0.030
 1921SOL     OW 7595   6.549  11.344   2.703
 1921SOL    HW1 7596   6.557  11.267   2.647
 1921SOL    HW2 7597   6.620  11.402   2.674
 1922SOL     OW 7598  12.092   4.185  13.136
 1922SOL    HW1 7599  12.121   4.163  13.048
 1922SOL    HW2 7600  11.998   4.199  13.127
 1923SOL     OW 7601  11.298   0.326  10.502
 1923SOL    HW1 7602  11.254   0.277  10.433
 1923SOL    HW2 7603  11.258   0.413  10.499
 1924SOL     OW 7604   7.290  10.592   6.280
 1924SOL    HW1 7605   7.241  10.546   6.347
 1924SOL    HW2 7606   7.236  10.668   6.258
 1925SOL     OW 7607   4.407   0.712  14.782
 1925SOL    HW1 7608   4.501   0.729  14.776
 1925SOL    HW2 7609   4.393   0.633  14.729
 1926SOL     OW 7610   0.029  10.350   5.816
 1926SOL    HW1 7611  14.840  10.422   5.823
 1926SOL    HW2 7612   0.006  10.306   5.735
 1927SOL     OW 7613   4.374  12.016   8.055
 1927SOL    HW1 7614   4.347  11.968   7.976
 1927SOL    HW2 7615   4.455  12.060   8.029
 1928SOL     OW 7616  14.591  13.384   0.461
 1928SOL    HW1 7617  14.517  13.331   0.487
 1928SOL    HW2 7618  14.622  13.344   0.380
 1929SOL     OW 7619   7.837   5.346   2.717
 1929SOL    HW1 7620   7.750   5.312   2.696
 1929SOL    HW2 7621   7.841   5.346   2.812
 1930SOL     OW 7622  12.861  11.901   7.423
 1930SOL    HW1 7623  12.909  11.964   7.369
 1930SOL    HW2 7624  12.813  11.847   7.361
 1931SOL     OW 7625  14.329   6.976  11.786
 1931SOL    HW1 7626  14.413   7.005  11.750
 1931SOL    HW2 7627  14.350   6.894  11.832
 1932SOL     OW 7628   9.773  12.756   4.026
 1932SOL    HW1 7629   9.761  12.831   4.083
 1932SOL    HW2 7630   9.819  12.692   4.079
 1933SOL     OW 7631  10.416   3.525   1.380
 1933SOL    HW1 7632  10.426   3.620   1.389
 1933SOL    HW2 7633  10.455   3.505   1.296
 1934SOL     OW 7634   4.142   4.696   6.532
 1934SOL    HW1 7635   4.188   4.725   6.454
 1934SOL    HW2 7636   4.126   4.775   6.583
 1935SOL     OW 7637   5.147  14.696   3.007
 1935SOL    HW1 7638   5.162  14.781   2.965
 1935SOL    HW2 7639   5.204  14.695   3.083
 1936SOL     OW 7640  10.793  13.471   7.288
 1936SOL    HW1 7641  10.723  13.523   7.328
 1936SOL    HW2 7642  10.750  13.426   7.214
 1937SOL     OW 7643   6.229   3.149  11.061
 1937SOL    HW1 7644   6.156   3.087  11.067
 1937SOL    HW2 7645   6.187   3.235  11.051
 1938SOL     OW 7646   4.507  10.522  13.386
 1938SOL    HW1 7647   4.532  10.434  13.416
 1938SOL    HW2 7648   4.424  10.540  13.430
 1939SOL     OW 7649  13.387   1.410  13.909
 1939SOL    HW1 7650  13.296   1.387  13.925
 1939SOL    HW2 7651  13.386   1.451  13.822
 1940SOL     OW 7652   8.556   5.133   1.036
 1940SOL    HW1 7653   8.475   5.183   1.022
 1940SOL    HW2 7654   8.526   5.051   1.074
 1941SOL     OW 7655   0.630   3.279   8.751
 1941SOL    HW1 7656   0.645   3.249   8.661
 1941SOL    HW2 7657   0.591   3.203   8.795
 1942SOL     OW 7658   8.707   6.650   2.497
 1942SOL    HW1 7659   8.657   6.575   2.530
 1942SOL    HW2 7660   8.740   6.621   2.412
 1943SOL     OW 7661   2.644  10.114  12.184
 1943SOL    HW1 7662   2.698  10.075  12.115
 1943SOL    HW2 7663   2.624  10.202  12.153
 1944SOL     OW 7664  13.413   5.329   4.309
 1944SOL    HW1 7665  13.415   5.392   4.381
 1944SOL    HW2 7666  13.506   5.310   4.292
 1945SOL     OW 7667  14.827  12.674  11.925
 1945SOL    HW1 7668   0.043  12.679  11.962
 1945SOL    HW2 7669  14.781  12.747  11.966
 1946SOL     OW 7670   2.486   7.541  14.210
 1946SOL    HW1 7671   2.561   7.492  14.244
 1946SOL    HW2 7672   2.514   7.633  14.212
 1947SOL     OW 7673   7.927  12.703  14.366
 1947SOL    HW1 7674   7.862  12.717  14.434
 1947SOL    HW2 7675   7.892  12.631  14.313
 1948SOL     OW 7676   7.120  14.130  13.546
 1948SOL    HW1 7677   7.164  14.136  13.462
 1948SOL    HW2 7678   7.100  14.037  13.557
 1949SOL     OW 7679   3.107  10.880   3.649
 1949SOL    HW1 7680   3.074  10.886   3.559
 1949SOL    HW2 7681   3.186  10.826   3.642
 1950SOL     OW 7682  14.588   0.110   8.877
 1950SOL    HW1 7683  14.564   0.152   8.794
 1950SOL    HW2 7684  14.573   0.177   8.943
 1951SOL     OW 7685   5.641   3.756  12.694
 1951SOL    HW1 7686   5.608   3.721  12.777
 1951SOL    HW2 7687   5.679   3.841  12.717
 1952SOL     OW 7688  11.959   4.468   4.454
 1952SOL    HW1 7689  11.977   4.530   4.384
 1952SOL    HW2 7690  11.994   4.509   4.533
 1953SOL     OW 7691  12.685   7.585   6.976
 1953SOL    HW1 7692  12.653   7.583   6.886
 1953SOL    HW2 7693  12.752   7.653   6.976
 1954SOL     OW 7694  10.350   5.380   2.534
 1954SOL    HW1 7695  10.401   5.369   2.615
 1954SOL    HW2 7696  10.411   5.359   2.464
 1955SOL     OW 7697   6.003  11.189  12.627
 1955SOL    HW1 7698   5.984  11.183  12.721
 1955SOL    HW2 7699   5.989  11.100  12.595
 1956SOL     OW 7700  12.738   4.283  12.117
 1956SOL    HW1 7701  12.782   4.353  12.069
 1956SOL    HW2 7702  12.808   4.239  12.164
 1957SOL     OW 7703   5.978   1.277   6.467
 1957SOL    HW1 7704   5.971   1.233   6.552
 1957SOL    HW2 7705   6.071   1.274   6.446
 1958SOL     OW 7706   1.966   6.369  13.976
 1958SOL    HW1 7707   1.969   6.423  13.897
 1958SOL    HW2 7708   1.905   6.298  13.954
 1959SOL     OW 7709  13.455  14.334   3.452
 1959SOL    HW1 7710  13.403  14.411   3.429
 1959SOL    HW2 7711  13.412  14.298   3.530
 1960SOL     OW 7712  12.223  11.145  14.199
 1960SOL    HW1 7713  12.151  11.094  14.237
 1960SOL    HW2 7714  12.296  11.084  14.194
 1961SOL     OW 7715   8.794   3.082   0.819
 1961SOL    HW1 7716   8.760   3.152   0.874
 1961SOL    HW2 7717   8.831   3.018   0.880
 1962SOL     OW 7718   1.089   0.216   2.912
 1962SOL    HW1 7719   1.094   0.235   2.819
 1962SOL    HW2 7720   1.001   0.245   2.938
 1963SOL     OW 7721   1.674   0.591  10.652
 1963SOL    HW1 7722   1.661   0.531  10.578
 1963SOL    HW2 7723   1.701   0.535  10.724
 1964SOL     OW 7724   9.481   9.600   1.991
 1964SOL    HW1 7725   9.524   9.550   1.922
 1964SOL    HW2 7726   9.523   9.570   2.072
 1965SOL     OW 7727  12.321  11.471  11.321
 1965SOL    HW1 7728  12.416  11.481  11.327
 1965SOL    HW2 7729  12.302  11.484  11.228
 1966SOL     OW 7730  14.163   9.542  12.869
 1966SOL    HW1 7731  14.210   9.562  12.950
 1966SOL    HW2 7732  14.179   9.449  12.854
 1967SOL     OW 7733   4.093   2.742   9.898
 1967SOL    HW1 7734   4.021   2.756   9.836
 1967SOL    HW2 7735   4.110   2.648   9.894
 1968SOL     OW 7736  10.601  14.441   5.748
 1968SOL    HW1 7737  10.661  14.514   5.761
 1968SOL    HW2 7738  10.515  14.476   5.772
 1969SOL     OW 7739  10.618   5.323   1.404
 1969SOL    HW1 7740  10.574   5.407   1.386
 1969SOL    HW2 7741  10.661   5.300   1.322
 1970SOL     OW 7742   4.925   2.006  11.141
 1970SOL    HW1 7743   4.991   1.973  11.203
 1970SOL    HW2 7744   4.960   1.983  11.055
 1971SOL     OW 7745   5.513   3.051   3.997
 1971SOL    HW1 7746   5.511   3.146   3.983
 1971SOL    HW2 7747   5.461   3.037   4.076
 1972SOL     OW 7748   9.054   0.982   9.935
 1972SOL    HW1 7749   9.101   1.012  10.013
 1972SOL    HW2 7750   8.989   0.920   9.968
 1973SOL     OW 7751   6.005  13.237   9.737
 1973SOL    HW1 7752   5.932  13.255   9.796
 1973SOL    HW2 7753   5.997  13.301   9.667
 1974SOL     OW 7754  14.249   1.568   6.900
 1974SOL    HW1 7755  14.210   1.611   6.824
 1974SOL    HW2 7756  14.262   1.477   6.872
 1975SOL     OW 7757  14.731   8.911  11.801
 1975SOL    HW1 7758  14.665   8.891  11.868
 1975SOL    HW2 7759  14.689   8.976  11.745
 1976SOL     OW 7760  10.330   9.638  13.954
 1976SOL    HW1 7761  10.284   9.590  13.886
 1976SOL    HW2 7762  10.262   9.678  14.007
 1977SOL     OW 7763   7.644   5.603   8.143
 1977SOL    HW1 7764   7.594   5.685   8.143
 1977SOL    HW2 7765   7.621   5.561   8.226
 1978SOL     OW 7766   6.946   6.299   9.697
 1978SOL    HW1 7767   6.916   6.296   9.606
 1978SOL    HW2 7768   6.968   6.208   9.718
 1979SOL     OW 7769   4.403  13.659   8.043
 1979SOL    HW1 7770   4.439  13.589   7.988
 1979SOL    HW2 7771   4.480  13.707   8.075
 1980SOL     OW 7772   5.624  10.669   4.134
 1980SOL    HW1 7773   5.612  10.629   4.221
 1980SOL    HW2 7774   5.612  10.763   4.149
 1981SOL     OW 7775   3.630   7.194   8.715
 1981SOL    HW1 7776   3.639   7.117   8.771
 1981SOL    HW2 7777   3.624   7.268   8.775
 1982SOL     OW 7778   5.335   5.497   0.046
 1982SOL    HW1 7779   5.252   5.530   0.011
 1982SOL    HW2 7780   5.323   5.497   0.141
 1983SOL     OW 7781   9.803  11.292   4.156
 1983SOL    HW1 7782   9.866  11.227   4.186
 1983SOL    HW2 7783   9.781  11.342   4.235
 1984SOL     OW 7784   5.959  10.661  14.870
 1984SOL    HW1 7785   5.886  10.647   0.059
 1984SOL    HW2 7786   5.943  10.748  14.834
 1985SOL     OW 7787   7.158  12.893   1.848
 1985SOL    HW1 7788   7.096  12.887   1.921
 1985SOL    HW2 7789   7.125  12.829   1.784
 1986SOL     OW 7790   2.412   6.739   0.036
 1986SOL    HW1 7791   2.502   6.749   0.066
 1986SOL    HW2 7792   2.397   6.645   0.035
 1987SOL     OW 7793   0.879   2.167   7.430
 1987SOL    HW1 7794   0.971   2.154   7.454
 1987SOL    HW2 7795   0.830   2.128   7.503
 1988SOL     OW 7796   9.244   6.270   8.939
 1988SOL    HW1 7797   9.262   6.266   8.845
 1988SOL    HW2 7798   9.176   6.204   8.952
 1989SOL     OW 7799  11.924  10.273   2.142
 1989SOL    HW1 7800  11.852  10.330   2.115
 1989SOL    HW2 7801  11.995  10.333   2.162
 1990SOL     OW 7802   7.394   9.077   7.596
 1990SOL    HW1 7803   7.403   8.982   7.603
 1990SOL    HW2 7804   7.366   9.092   7.506
 1991SOL     OW 7805   8.314   5.528  12.279
 1991SOL    HW1 7806   8.399   5.507  12.242
 1991SOL    HW2 7807   8.272   5.442  12.290
 1992SOL     OW 7808   9.559   6.077  10.956
 1992SOL    HW1 7809   9.530   6.160  10.995
 1992SOL    HW2 7810   9.493   6.058  10.889
 1993SOL     OW 7811   7.307  12.076   0.127
 1993SOL    HW1 7812   7.344  12.036   0.206
 1993SOL    HW2 7813   7.280  12.001   0.073
 1994SOL     OW 7814   2.489   3.092  14.099
 1994SOL    HW1 7815   2.448   3.085  14.186
 1994SOL    HW2 7816   2.487   3.003  14.065
 1995SOL     OW 7817   1.837   1.249   7.852
 1995SOL    HW1 7818   1.821   1.306   7.928
 1995SOL    HW2 7819   1.855   1.163   7.890
 1996SOL     OW 7820   5.976  11.793  13.834
 1996SOL    HW1 7821   6.068  11.786  13.857
 1996SOL    HW2 7822   5.964  11.885  13.809
 1997SOL     OW 7823   0.824   9.469   3.725
 1997SOL    HW1 7824   0.802   9.402   3.660
 1997SOL    HW2 7825   0.817   9.423   3.809
 1998SOL     OW 7826  10.762   0.225  14.482
 1998SOL    HW1 7827  10.677   0.260  14.456
 1998SOL    HW2 7828  10.746   0.181  14.566
 1999SOL     OW 7829   7.898   7.703   1.630
 1999SOL    HW1 7830   7.817   7.655   1.649
 1999SOL    HW2 7831   7.963   7.665   1.689
 2000SOL     OW 7832  14.101  10.801   5.252
 2000SOL    HW1 7833  14.088  10.750   5.173
 2000SOL    HW2 7834  14.186  10.773   5.285
 2001SOL     OW 7835  10.230   3.668   3.703
 2001SOL    HW1 7836  10.151   3.622   3.677
 2001SOL    HW2 7837  10.201   3.731   3.769
 2002SOL     OW 7838  10.961  13.859   4.961
 2002SOL    HW1 7839  10.989  13.949   4.948
 2002SOL    HW2 7840  10.876  13.865   5.004
 2003SOL     OW 7841  10.427   0.871  10.926
 2003SOL    HW1 7842  10.491   0.937  10.900
 2003SOL    HW2 7843  10.399   0.899  11.014
 2004SOL     OW 7844  12.860  11.344   9.025
 2004SOL    HW1 7845  12.895  11.285   8.958
 2004SOL    HW2 7846  12.935  11.398   9.051
 2005SOL     OW 7847   8.811  10.650  11.029
 2005SOL    HW1 7848   8.783  10.740  11.013
 2005SOL    HW2 7849   8.905  10.657  11.044
 2006SOL     OW 7850   5.133  11.878   6.462
 2006SOL    HW1 7851   5.165  11.801   6.415
 2006SOL    HW2 7852   5.040  11.883   6.439
 2007SOL     OW 7853   3.421   0.889  12.047
 2007SOL    HW1 7854   3.453   0.866  11.960
 2007SOL    HW2 7855   3.464   0.827  12.106
 2008SOL     OW 7856   0.042   5.745  14.616
 2008SOL    HW1 7857   0.006   5.744  14.528
 2008SOL    HW2 7858  14.848   5.787  14.670
 2009SOL     OW 7859  10.378  13.152  10.560
 2009SOL    HW1 7860  10.379  13.080  10.623
 2009SOL    HW2 7861  10.324  13.219  10.601
 2010SOL     OW 7862   5.895  14.243  11.243
 2010SOL    HW1 7863   5.948  14.246  11.164
 2010SOL    HW2 7864   5.825  14.180  11.224
 2011SOL     OW 7865   0.775  13.683   4.759
 2011SOL    HW1 7866   0.862  13.648   4.779
 2011SOL    HW2 7867   0.761  13.660   4.667
 2012SOL     OW 7868  12.073   7.631   6.179
 2012SOL    HW1 7869  12.103   7.596   6.095
 2012SOL    HW2 7870  12.067   7.555   6.236
 2013SOL     OW 7871  10.432   9.795   9.143
 2013SOL    HW1 7872  10.346   9.759   9.165
 2013SOL    HW2 7873  10.482   9.787   9.224
 2014SOL     OW 7874   9.917   6.091  12.752
 2014SOL    HW1 7875   9.874   6.172  12.779
 2014SOL    HW2 7876   9.982   6.074  12.821
 2015SOL     OW 7877   5.962  13.587   9.981
 2015SOL    HW1 7878   5.886  13.554   9.933
 2015SOL    HW2 7879   5.974  13.676   9.950
 2016SOL     OW 7880   4.867   8.867  11.435
 2016SOL    HW1 7881   4.939   8.809  11.411
 2016SOL    HW2 7882   4.899   8.955  11.416
 2017SOL     OW 7883   4.817   7.947   7.686
 2017SOL    HW1 7884   4.869   7.890   7.630
 2017SOL    HW2 7885   4.873   7.967   7.761
 2018SOL     OW 7886   8.523  12.549   2.698
 2018SOL    HW1 7887   8.431  12.539   2.673
 2018SOL    HW2 7888   8.571  12.539   2.616
 2019SOL     OW 7889   5.433  12.747   0.502
 2019SOL    HW1 7890   5.366  12.815   0.500
 2019SOL    HW2 7891   5.507  12.788   0.548
 2020SOL     OW 7892  13.029   9.784   9.278
 2020SOL    HW1 7893  12.962   9.818   9.337
 2020SOL    HW2 7894  12.984   9.719   9.225
 2021SOL     OW 7895  13.360   1.431  13.648
 2021SOL    HW1 7896  13.374   1.456  13.556
 2021SOL    HW2 7897  13.355   1.336  13.646
 2022SOL     OW 7898   5.849  11.193   1.185
 2022SOL    HW1 7899   5.798  11.193   1.266
 2022SOL    HW2 7900   5.821  11.272   1.138
 2023SOL     OW 7901   8.602   5.213   0.124
 2023SOL    HW1 7902   8.582   5.291   0.175
 2023SOL    HW2 7903   8.697   5.215   0.113
 2024SOL     OW 7904   6.523   4.574  10.367
 2024SOL    HW1 7905   6.558   4.503  10.421
 2024SOL    HW2 7906   6.446   4.605  10.415
 2025SOL     OW 7907  14.554   1.455   7.582
 2025SOL    HW1 7908  14.474   1.406   7.560
 2025SOL    HW2 7909  14.610   1.443   7.506
 2026SOL     OW 7910   2.892   6.267  10.530
 2026SOL    HW1 7911   2.864   6.356  10.509
 2026SOL    HW2 7912   2.983   6.276  10.557
 2027SOL     OW 7913  14.033  14.575  11.653
 2027SOL    HW1 7914  14.099  14.505  11.653
 2027SOL    HW2 7915  13.960  14.539  11.603
 2028SOL     OW 7916   4.099   8.969   5.103
 2028SOL    HW1 7917   4.088   9.039   5.167
 2028SOL    HW2 7918   4.191   8.973   5.077
 2029SOL     OW 7919   6.524  10.917   6.389
 2029SOL    HW1 7920   6.454  10.933   6.452
 2029SOL    HW2 7921   6.579  10.850   6.430
 2030SOL     OW 7922  12.827  10.730  12.322
 2030SOL    HW1 7923  12.913  10.689  12.333
 2030SOL    HW2 7924  12.802  10.756  12.410
 2031SOL     OW 7925   8.795   0.494  13.915
 2031SOL    HW1 7926   8.875   0.496  13.968
 2031SOL    HW2 7927   8.802   0.412  13.866
 2032SOL     OW 7928  11.241   6.357   6.912
 2032SOL    HW1 7929  11.237   6.450   6.892
 2032SOL    HW2 7930  11.322   6.327   6.870
 2033SOL     OW 7931  11.439  12.519   2.959
 2033SOL    HW1 7932  11.469  12.491   3.045
 2033SOL    HW2 7933  11.390  12.443   2.925
 2034SOL     OW 7934  14.086   9.009   2.563
 2034SOL    HW1 7935  14.155   8.945   2.580
 2034SOL    HW2 7936  14.021   8.961   2.513
 2035SOL     OW 7937   2.621   4.508  13.219
 2035SOL    HW1 7938   2.577   4.513  13.304
 2035SOL    HW2 7939   2.556   4.541  13.157
 2036SOL     OW 7940   3.489   5.202  10.454
 2036SOL    HW1 7941   3.568   5.180  10.504
 2036SOL    HW2 7942   3.444   5.118  10.444
 2037SOL     OW 7943  14.688   1.746   2.600
 2037SOL    HW1 7944  14.738   1.728   2.521
 2037SOL    HW2 7945  14.724   1.829   2.633
 2038SOL     OW 7946   4.565  13.761   5.213
 2038SOL    HW1 7947   4.625  13.696   5.249
 2038SOL    HW2 7948   4.540  13.814   5.289
 2039SOL     OW 7949   7.657   7.139   1.688
 2039SOL    HW1 7950   7.675   7.124   1.780
 2039SOL    HW2 7951   7.565   7.118   1.677
 2040SOL     OW 7952   1.110   1.957   3.086
 2040SOL    HW1 7953   1.137   2.047   3.104
 2040SOL    HW2 7954   1.088   1.958   2.992
 2041SOL     OW 7955  13.851   7.739  12.172
 2041SOL    HW1 7956  13.917   7.751  12.240
 2041SOL    HW2 7957  13.788   7.677  12.209
 2042SOL     OW 7958  13.104  12.658   4.125
 2042SOL    HW1 7959  13.108  12.566   4.150
 2042SOL    HW2 7960  13.042  12.697   4.186
 2043SOL     OW 7961   5.266   8.376  13.131
 2043SOL    HW1 7962   5.179   8.378  13.093
 2043SOL    HW2 7963   5.323   8.346  13.059
 2044SOL     OW 7964  13.619   3.995   6.232
 2044SOL    HW1 7965  13.572   4.069   6.193
 2044SOL    HW2 7966  13.702   4.032   6.262
 2045SOL     OW 7967   1.569   0.545   0.819
 2045SOL    HW1 7968   1.499   0.595   0.777
 2045SOL    HW2 7969   1.540   0.535   0.910
 2046SOL     OW 7970  13.508   5.864  11.684
 2046SOL    HW1 7971  13.540   5.785  11.728
 2046SOL    HW2 7972  13.483   5.923  11.755
 2047SOL     OW 7973  11.141   9.777   6.232
 2047SOL    HW1 7974  11.080   9.831   6.281
 2047SOL    HW2 7975  11.095   9.757   6.150
 2048SOL     OW 7976   4.553   4.366  10.489
 2048SOL    HW1 7977   4.599   4.428  10.432
 2048SOL    HW2 7978   4.569   4.280  10.449
 2049SOL     OW 7979   8.604  11.555   9.370
 2049SOL    HW1 7980   8.674  11.585   9.311
 2049SOL    HW2 7981   8.528  11.544   9.313
 2050SOL     OW 7982   3.790   8.402   0.950
 2050SOL    HW1 7983   3.803   8.430   0.860
 2050SOL    HW2 7984   3.742   8.319   0.943
 2051SOL     OW 7985   3.462  10.457   9.901
 2051SOL    HW1 7986   3.382  10.467   9.850
 2051SOL    HW2 7987   3.455  10.524   9.970
 2052SOL     OW 7988   0.688   4.429  14.535
 2052SOL    HW1 7989   0.612   4.379  14.506
 2052SOL    HW2 7990   0.704   4.491  14.465
 2053SOL     OW 7991   9.918   0.570   4.671
 2053SOL    HW1 7992   9.933   0.630   4.744
 2053SOL    HW2 7993   9.953   0.487   4.701
 2054SOL     OW 7994  14.497  14.235   4.954
 2054SOL    HW1 7995  14.569  14.265   4.898
 2054SOL    HW2 7996  14.442  14.313   4.965
 2055SOL     OW 7997   1.565   5.054  11.074
 2055SOL    HW1 7998   1.473   5.080  11.077
 2055SOL    HW2 7999   1.604   5.112  11.008
 2056SOL     OW 8000   8.984   3.009  12.079
 2056SOL    HW1 8001   8.897   3.044  12.098
 2056SOL    HW2 8002   8.967   2.933  12.024
 2057SOL     OW 8003   0.586  13.055   3.245
 2057SOL    HW1 8004   0.537  13.118   3.191
 2057SOL    HW2 8005   0.676  13.088   3.242
 2058SOL     OW 8006  14.544   5.923   8.019
 2058SOL    HW1 8007  14.605   5.880   8.079
 2058SOL    HW2 8008  14.582   6.010   8.006
 2059SOL     OW 8009  12.361  14.166   3.863
 2059SOL    HW1 8010  12.288  14.105   3.879
 2059SOL    HW2 8011  12.379  14.156   3.769
 2060SOL     OW 8012   0.832   6.069   1.613
 2060SOL    HW1 8013   0.899   6.069   1.544
 2060SOL    HW2 8014   0.871   6.017   1.684
 2061SOL     OW 8015  11.108  14.146  12.016
 2061SOL    HW1 8016  11.118  14.089  12.092
 2061SOL    HW2 8017  11.051  14.216  12.045
 2062SOL     OW 8018   5.980  14.513   8.651
 2062SOL    HW1 8019   5.912  14.446   8.641
 2062SOL    HW2 8020   5.939  14.593   8.617
 2063SOL     OW 8021   3.012   6.557   3.612
 2063SOL    HW1 8022   3.041   6.484   3.666
 2063SOL    HW2 8023   2.984   6.518   3.530
 2064SOL     OW 8024   8.783   2.501   3.817
 2064SOL    HW1 8025   8.713   2.440   3.795
 2064SOL    HW2 8026   8.802   2.547   3.735
 2065SOL     OW 8027  11.118   9.948   2.018
 2065SOL    HW1 8028  11.196   9.982   1.974
 2065SOL    HW2 8029  11.120   9.854   2.002
 2066SOL     OW 8030   7.481   2.532   5.609
 2066SOL    HW1 8031   7.472   2.513   5.702
 2066SOL    HW2 8032   7.391   2.536   5.576
 2067SOL     OW 8033  10.335   8.413   6.661
 2067SOL    HW1 8034  10.241   8.403   6.648
 2067SOL    HW2 8035  10.345   8.418   6.756
 2068SOL     OW 8036  13.967   8.210   5.001
 2068SOL    HW1 8037  14.056   8.246   5.002
 2068SOL    HW2 8038  13.911   8.285   5.024
 2069SOL     OW 8039  11.061   9.438  10.503
 2069SOL    HW1 8040  11.117   9.408  10.575
 2069SOL    HW2 8041  11.076   9.373  10.434
 2070SOL     OW 8042  13.202   9.780  14.111
 2070SOL    HW1 8043  13.248   9.834  14.175
 2070SOL    HW2 8044  13.111   9.810  14.115
 2071SOL     OW 8045  10.864   9.712   6.939
 2071SOL    HW1 8046  10.797   9.773   6.910
 2071SOL    HW2 8047  10.947   9.760   6.926
 2072SOL     OW 8048   6.375   7.129   4.953
 2072SOL    HW1 8049   6.287   7.149   4.986
 2072SOL    HW2 8050   6.382   7.180   4.872
 2073SOL     OW 8051   3.111   8.570  13.527
 2073SOL    HW1 8052   3.133   8.608  13.612
 2073SOL    HW2 8053   3.179   8.504  13.512
 2074SOL     OW 8054   5.074  13.410   9.376
 2074SOL    HW1 8055   4.988  13.369   9.365
 2074SOL    HW2 8056   5.063  13.471   9.448
 2075SOL     OW 8057   9.429  10.691   9.066
 2075SOL    HW1 8058   9.396  10.766   9.117
 2075SOL    HW2 8059   9.352  10.659   9.020
 2076SOL     OW 8060   1.159  14.084   2.443
 2076SOL    HW1 8061   1.159  14.121   2.355
 2076SOL    HW2 8062   1.251  14.085   2.470
 2077SOL     OW 8063   7.390   8.458   2.773
 2077SOL    HW1 8064   7.440   8.486   2.849
 2077SOL    HW2 8065   7.347   8.538   2.742
 2078SOL     OW 8066  12.592   0.791   2.616
 2078SOL    HW1 8067  12.513   0.742   2.641
 2078SOL    HW2 8068  12.568   0.883   2.628
 2079SOL     OW 8069   7.669  12.091  12.260
 2079SOL    HW1 8070   7.661  11.999  12.237
 2079SOL    HW2 8071   7.616  12.100  12.339
 2080SOL     OW 8072  14.684   1.255  10.283
 2080SOL    HW1 8073  14.768   1.278  10.322
 2080SOL    HW2 8074  14.640   1.339  10.272
 2081SOL     OW 8075   5.009   6.552   2.676
 2081SOL    HW1 8076   4.990   6.524   2.765
 2081SOL    HW2 8077   5.039   6.643   2.685
 2082SOL     OW 8078   5.010   9.451  14.230
 2082SOL    HW1 8079   5.048   9.523  14.179
 2082SOL    HW2 8080   5.040   9.372  14.186
 2083SOL     OW 8081   0.814  12.547   1.739
 2083SOL    HW1 8082   0.896  12.524   1.781
 2083SOL    HW2 8083   0.840  12.590   1.657
 2084SOL     OW 8084  11.264   7.960   1.829
 2084SOL    HW1 8085  11.209   8.026   1.786
 2084SOL    HW2 8086  11.343   8.008   1.854
 2085SOL     OW 8087   2.368   9.755  12.402
 2085SOL    HW1 8088   2.311   9.763  12.325
 2085SOL    HW2 8089   2.444   9.810  12.381
 2086SOL     OW 8090   5.348   4.806   2.689
 2086SOL    HW1 8091   5.289   4.780   2.619
 2086SOL    HW2 8092   5.414   4.860   2.645
 2087SOL     OW 8093   7.880   9.549  11.807
 2087SOL    HW1 8094   7.801   9.521  11.851
 2087SOL    HW2 8095   7.856   9.632  11.765
 2088SOL     OW 8096  11.486  11.614  13.926
 2088SOL    HW1 8097  11.525  11.701  13.911
 2088SOL    HW2 8098  11.483  11.574  13.839
 2089SOL     OW 8099  12.089   7.048   0.224
 2089SOL    HW1 8100  12.075   7.056   0.319
 2089SOL    HW2 8101  12.008   7.008   0.192
 2090SOL     OW 8102   9.998  14.586   7.211
 2090SOL    HW1 8103  10.051  14.617   7.138
 2090SOL    HW2 8104  10.038  14.627   7.288
 2091SOL     OW 8105   5.102   7.874   7.191
 2091SOL    HW1 8106   5.017   7.829   7.187
 2091SOL    HW2 8107   5.104   7.913   7.279
 2092SOL     OW 8108   6.858   9.013   1.684
 2092SOL    HW1 8109   6.803   9.091   1.675
 2092SOL    HW2 8110   6.873   8.982   1.595
 2093SOL     OW 8111  10.771   8.354   1.327
 2093SOL    HW1 8112  10.847   8.296   1.323
 2093SOL    HW2 8113  10.725   8.329   1.407
 2094SOL     OW 8114   0.571   4.798   6.258
 2094SOL    HW1 8115   0.522   4.876   6.233
 2094SOL    HW2 8116   0.596   4.757   6.175
 2095SOL     OW 8117   8.831  11.547   2.593
 2095SOL    HW1 8118   8.851  11.574   2.503
 2095SOL    HW2 8119   8.916  11.530   2.632
 2096SOL     OW 8120  11.527   7.228   1.043
 2096SOL    HW1 8121  11.513   7.270   0.958
 2096SOL    HW2 8122  11.449   7.248   1.094
 2097SOL     OW 8123   3.089   4.623   4.434
 2097SOL    HW1 8124   3.134   4.604   4.516
 2097SOL    HW2 8125   3.131   4.702   4.400
 2098SOL     OW 8126   3.588  10.684   2.220
 2098SOL    HW1 8127   3.505  10.731   2.230
 2098SOL    HW2 8128   3.578  10.605   2.273
 2099SOL     OW 8129   6.843   2.405   8.611
 2099SOL    HW1 8130   6.863   2.366   8.696
 2099SOL    HW2 8131   6.840   2.499   8.627
 2100SOL     OW 8132   1.205   2.252  14.860
 2100SOL    HW1 8133   1.123   2.211  14.836
 2100SOL    HW2 8134   1.227   2.307  14.784
 2101SOL     OW 8135   4.986   7.870  14.015
 2101SOL    HW1 8136   4.978   7.945  14.075
 2101SOL    HW2 8137   5.048   7.900  13.949
 2102SOL     OW 8138  11.742   9.678   2.831
 2102SOL    HW1 8139  11.830   9.661   2.864
 2102SOL    HW2 8140  11.696   9.595   2.843
 2103SOL     OW 8141   3.337   3.241  10.913
 2103SOL    HW1 8142   3.384   3.325  10.918
 2103SOL    HW2 8143   3.306   3.226  11.002
 2104SOL     OW 8144   1.232   1.277  10.641
 2104SOL    HW1 8145   1.247   1.284  10.547
 2104SOL    HW2 8146   1.138   1.263  10.650
 2105SOL     OW 8147   8.744  12.929  14.020
 2105SOL    HW1 8148   8.801  12.856  14.047
 2105SOL    HW2 8149   8.805  12.999  13.995
 2106SOL     OW 8150   0.262   6.037   9.357
 2106SOL    HW1 8151   0.171   6.065   9.357
 2106SOL    HW2 8152   0.264   5.959   9.301
 2107SOL     OW 8153  10.842   3.283   2.917
 2107SOL    HW1 8154  10.807   3.195   2.910
 2107SOL    HW2 8155  10.765   3.340   2.921
 2108SOL     OW 8156  13.391  10.744   7.582
 2108SOL    HW1 8157  13.465  10.685   7.597
 2108SOL    HW2 8158  13.429  10.832   7.589
 2109SOL     OW 8159  11.990   1.565   0.163
 2109SOL    HW1 8160  11.945   1.561   0.079
 2109SOL    HW2 8161  12.065   1.506   0.153
 2110SOL     OW 8162   6.990   7.277   8.102
 2110SOL    HW1 8163   6.936   7.282   8.023
 2110SOL    HW2 8164   7.023   7.187   8.102
 2111SOL     OW 8165   3.686   3.640   3.604
 2111SOL    HW1 8166   3.596   3.672   3.602
 2111SOL    HW2 8167   3.732   3.692   3.538
 2112SOL     OW 8168  10.622   1.463   9.796
 2112SOL    HW1 8169  10.583   1.497   9.877
 2112SOL    HW2 8170  10.599   1.529   9.730
 2113SOL     OW 8171  11.751   3.590  10.474
 2113SOL    HW1 8172  11.811   3.525  10.512
 2113SOL    HW2 8173  11.679   3.595  10.537
 2114SOL     OW 8174  13.104   5.520   5.786
 2114SOL    HW1 8175  13.023   5.470   5.775
 2114SOL    HW2 8176  13.169   5.455   5.811
 2115SOL     OW 8177  11.233  10.954   4.778
 2115SOL    HW1 8178  11.325  10.974   4.798
 2115SOL    HW2 8179  11.194  10.932   4.862
 2116SOL     OW 8180  14.733  14.343  12.111
 2116SOL    HW1 8181  14.693  14.429  12.125
 2116SOL    HW2 8182  14.687  14.286  12.173
 2117SOL     OW 8183   8.931  14.827  11.193
 2117SOL    HW1 8184   8.933   0.038  11.148
 2117SOL    HW2 8185   8.903  14.848  11.282
 2118SOL     OW 8186   6.981  10.632  13.143
 2118SOL    HW1 8187   6.986  10.670  13.231
 2118SOL    HW2 8188   7.064  10.584  13.133
 2119SOL     OW 8189  10.873  14.031   6.024
 2119SOL    HW1 8190  10.781  14.015   6.046
 2119SOL    HW2 8191  10.875  14.121   5.990
 2120SOL     OW 8192   7.813  12.580   4.631
 2120SOL    HW1 8193   7.876  12.507   4.626
 2120SOL    HW2 8194   7.739  12.544   4.680
 2121SOL     OW 8195  12.150   8.561   9.817
 2121SOL    HW1 8196  12.169   8.605   9.735
 2121SOL    HW2 8197  12.084   8.615   9.860
 2122SOL     OW 8198   9.856   8.527   8.984
 2122SOL    HW1 8199   9.916   8.454   8.970
 2122SOL    HW2 8200   9.816   8.509   9.070
 2123SOL     OW 8201   4.655   7.261  13.165
 2123SOL    HW1 8202   4.664   7.269  13.070
 2123SOL    HW2 8203   4.579   7.205  13.177
 2124SOL     OW 8204  12.731   1.635   0.997
 2124SOL    HW1 8205  12.765   1.683   1.072
 2124SOL    HW2 8206  12.719   1.546   1.029
 2125SOL     OW 8207   5.524   2.824  10.279
 2125SOL    HW1 8208   5.494   2.915  10.291
 2125SOL    HW2 8209   5.455   2.771  10.319
 2126SOL     OW 8210   7.794  10.590  10.175
 2126SOL    HW1 8211   7.786  10.668  10.120
 2126SOL    HW2 8212   7.808  10.625  10.263
 2127SOL     OW 8213   3.346   0.602   7.225
 2127SOL    HW1 8214   3.400   0.681   7.218
 2127SOL    HW2 8215   3.262   0.626   7.185
 2128SOL     OW 8216   4.200  11.650   2.145
 2128SOL    HW1 8217   4.156  11.567   2.163
 2128SOL    HW2 8218   4.293  11.631   2.155
 2129SOL     OW 8219  10.029   4.675   6.592
 2129SOL    HW1 8220  10.094   4.705   6.656
 2129SOL    HW2 8221   9.956   4.643   6.645
 2130SOL     OW 8222   6.857   7.493  12.641
 2130SOL    HW1 8223   6.770   7.465  12.671
 2130SOL    HW2 8224   6.839   7.558  12.573
 2131SOL     OW 8225   3.997  10.211  10.535
 2131SOL    HW1 8226   4.021  10.302  10.518
 2131SOL    HW2 8227   3.970  10.211  10.627
 2132SOL     OW 8228  13.448   6.043   5.928
 2132SOL    HW1 8229  13.529   6.008   5.891
 2132SOL    HW2 8230  13.468   6.056   6.021
 2133SOL     OW 8231  11.338   8.859  11.034
 2133SOL    HW1 8232  11.276   8.915  10.988
 2133SOL    HW2 8233  11.310   8.770  11.014
 2134SOL     OW 8234   9.366   0.230   4.367
 2134SOL    HW1 8235   9.323   0.309   4.333
 2134SOL    HW2 8236   9.395   0.183   4.289
 2135SOL     OW 8237   3.360   5.699   2.233
 2135SOL    HW1 8238   3.391   5.780   2.273
 2135SOL    HW2 8239   3.391   5.703   2.143
 2136SOL     OW 8240   2.989   0.815   9.853
 2136SOL    HW1 8241   3.034   0.900   9.848
 2136SOL    HW2 8242   2.896   0.837   9.845
 2137SOL     OW 8243   9.770   4.223   8.511
 2137SOL    HW1 8244   9.800   4.156   8.572
 2137SOL    HW2 8245   9.693   4.261   8.553
 2138SOL     OW 8246  14.849  13.245   5.754
 2138SOL    HW1 8247  14.864  13.338   5.736
 2138SOL    HW2 8248  14.803  13.245   5.838
 2139SOL     OW 8249  10.135   8.744   8.472
 2139SOL    HW1 8250  10.076   8.671   8.491
 2139SOL    HW2 8251  10.103   8.780   8.389
 2140SOL     OW 8252   7.903   1.160   4.365
 2140SOL    HW1 8253   7.975   1.160   4.302
 2140SOL    HW2 8254   7.946   1.176   4.450
 2141SOL     OW 8255  11.503   5.165  13.321
 2141SOL    HW1 8256  11.444   5.221  13.371
 2141SOL    HW2 8257  11.589   5.207  13.328
 2142SOL     OW 8258   6.869   8.035   1.032
 2142SOL    HW1 8259   6.806   8.002   0.968
 2142SOL    HW2 8260   6.845   7.993   1.114
 2143SOL     OW 8261  12.016  13.671  10.408
 2143SOL    HW1 8262  11.955  13.703  10.474
 2143SOL    HW2 8263  11.977  13.588  10.378
 2144SOL     OW 8264   6.890   7.565   2.279
 2144SOL    HW1 8265   6.971   7.519   2.302
 2144SOL    HW2 8266   6.914   7.622   2.206
 2145SOL     OW 8267   8.101  13.493  11.876
 2145SOL    HW1 8268   8.181  13.497  11.928
 2145SOL    HW2 8269   8.117  13.425  11.811
 2146SOL     OW 8270  10.271  11.051  14.249
 2146SOL    HW1 8271  10.230  11.093  14.173
 2146SOL    HW2 8272  10.358  11.090  14.254
 2147SOL     OW 8273  14.138   3.406   6.417
 2147SOL    HW1 8274  14.220   3.386   6.372
 2147SOL    HW2 8275  14.117   3.327   6.465
 2148SOL     OW 8276   6.579  12.015  10.977
 2148SOL    HW1 8277   6.489  11.982  10.979
 2148SOL    HW2 8278   6.597  12.030  10.884
 2149SOL     OW 8279   7.390   0.803   8.822
 2149SOL    HW1 8280   7.416   0.805   8.914
 2149SOL    HW2 8281   7.339   0.884   8.810
 2150SOL     OW 8282   1.268   3.557   2.387
 2150SOL    HW1 8283   1.227   3.632   2.429
 2150SOL    HW2 8284   1.208   3.533   2.317
 2151SOL     OW 8285   1.868   1.934   3.302
 2151SOL    HW1 8286   1.821   1.968   3.226
 2151SOL    HW2 8287   1.836   1.987   3.375
 2152SOL     OW 8288  11.398   8.064   2.858
 2152SOL    HW1 8289  11.402   7.999   2.788
 2152SOL    HW2 8290  11.459   8.033   2.924
 2153SOL     OW 8291   3.309   9.529   6.435
 2153SOL    HW1 8292   3.213   9.529   6.439
 2153SOL    HW2 8293   3.329   9.597   6.370
 2154SOL     OW 8294   8.814  14.813   9.394
 2154SOL    HW1 8295   8.724  14.828   9.366
 2154SOL    HW2 8296   8.841   0.024   9.433
 2155SOL     OW 8297  12.136  12.417   3.552
 2155SOL    HW1 8298  12.095  12.481   3.494
 2155SOL    HW2 8299  12.067  12.394   3.615
 2156SOL     OW 8300   3.298   0.365  14.372
 2156SOL    HW1 8301   3.254   0.392  14.452
 2156SOL    HW2 8302   3.292   0.441  14.314
 2157SOL     OW 8303  10.855  10.930   3.722
 2157SOL    HW1 8304  10.790  10.901   3.658
 2157SOL    HW2 8305  10.803  10.969   3.792
 2158SOL     OW 8306   0.234   8.041  10.386
 2158SOL    HW1 8307   0.295   8.024  10.315
 2158SOL    HW2 8308   0.189   8.122  10.361
 2159SOL     OW 8309   5.908   7.824  14.302
 2159SOL    HW1 8310   5.960   7.816  14.221
 2159SOL    HW2 8311   5.918   7.916  14.327
 2160SOL     OW 8312  11.611  10.684   9.666
 2160SOL    HW1 8313  11.525  10.725   9.663
 2160SOL    HW2 8314  11.672  10.756   9.679
 2161SOL     OW 8315   1.176   2.850  12.437
 2161SOL    HW1 8316   1.088   2.843  12.475
 2161SOL    HW2 8317   1.225   2.903  12.500
 2162SOL     OW 8318   0.346   2.102  11.679
 2162SOL    HW1 8319   0.420   2.061  11.633
 2162SOL    HW2 8320   0.303   2.156  11.613
 2163SOL     OW 8321  14.524  12.620  13.206
 2163SOL    HW1 8322  14.434  12.650  13.222
 2163SOL    HW2 8323  14.569  12.697  13.174
 2164SOL     OW 8324   3.032  11.704  11.428
 2164SOL    HW1 8325   3.088  11.759  11.483
 2164SOL    HW2 8326   3.090  11.635  11.396
 2165SOL     OW 8327  12.033   3.925  11.711
 2165SOL    HW1 8328  12.015   3.832  11.724
 2165SOL    HW2 8329  12.093   3.928  11.636
 2166SOL     OW 8330   3.682  12.321   3.489
 2166SOL    HW1 8331   3.763  12.324   3.540
 2166SOL    HW2 8332   3.677  12.406   3.446
 2167SOL     OW 8333   0.220  10.001   8.770
 2167SOL    HW1 8334   0.199   9.919   8.726
 2167SOL    HW2 8335   0.315   9.997   8.783
 2168SOL     OW 8336   2.635   0.523   3.427
 2168SOL    HW1 8337   2.591   0.531   3.342
 2168SOL    HW2 8338   2.616   0.605   3.472
 2169SOL     OW 8339   2.511   4.636   7.156
 2169SOL    HW1 8340   2.456   4.603   7.085
 2169SOL    HW2 8341   2.596   4.595   7.142
 2170SOL     OW 8342   4.558   9.469  13.665
 2170SOL    HW1 8343   4.597   9.385  13.641
 2170SOL    HW2 8344   4.610   9.499  13.740
 2171SOL     OW 8345   1.871  10.592  12.121
 2171SOL    HW1 8346   1.825  10.670  12.092
 2171SOL    HW2 8347   1.939  10.625  12.180
 2172SOL     OW 8348   6.235   4.821   8.116
 2172SOL    HW1 8349   6.243   4.863   8.202
 2172SOL    HW2 8350   6.324   4.824   8.080
 2173SOL     OW 8351  14.259  13.383   7.981
 2173SOL    HW1 8352  14.231  13.343   7.899
 2173SOL    HW2 8353  14.201  13.459   7.992
 2174SOL     OW 8354   0.706   8.538   2.153
 2174SOL    HW1 8355   0.745   8.587   2.224
 2174SOL    HW2 8356   0.619   8.514   2.185
 2175SOL     OW 8357   2.526   7.294   8.776
 2175SOL    HW1 8358   2.462   7.337   8.833
 2175SOL    HW2 8359   2.473   7.237   8.720
 2176SOL     OW 8360   7.249   7.316   2.600
 2176SOL    HW1 8361   7.202   7.273   2.671
 2176SOL    HW2 8362   7.304   7.248   2.562
 2177SOL     OW 8363   7.209  12.632  13.237
 2177SOL    HW1 8364   7.158  12.689  13.294
 2177SOL    HW2 8365   7.145  12.593  13.178
 2178SOL     OW 8366  13.737   0.795   6.210
 2178SOL    HW1 8367  13.765   0.806   6.119
 2178SOL    HW2 8368  13.819   0.792   6.260
 2179SOL     OW 8369   0.982   2.620   6.821
 2179SOL    HW1 8370   1.019   2.544   6.866
 2179SOL    HW2 8371   1.040   2.692   6.844
 2180SOL     OW 8372   4.048   8.134  10.863
 2180SOL    HW1 8373   4.017   8.225  10.863
 2180SOL    HW2 8374   4.139   8.139  10.892
 2181SOL     OW 8375   7.905   7.899   1.069
 2181SOL    HW1 8376   7.850   7.880   1.145
 2181SOL    HW2 8377   7.963   7.823   1.061
 2182SOL     OW 8378  12.469   0.609   7.476
 2182SOL    HW1 8379  12.384   0.592   7.435
 2182SOL    HW2 8380  12.521   0.531   7.457
 2183SOL     OW 8381  11.538  12.813  12.968
 2183SOL    HW1 8382  11.494  12.895  12.946
 2183SOL    HW2 8383  11.606  12.838  13.031
 2184SOL     OW 8384  12.756   2.268  14.361
 2184SOL    HW1 8385  12.667   2.269  14.325
 2184SOL    HW2 8386  12.751   2.208  14.435
 2185SOL     OW 8387   9.993   7.815   4.402
 2185SOL    HW1 8388  10.074   7.820   4.453
 2185SOL    HW2 8389   9.984   7.902   4.363
 2186SOL     OW 8390   8.643  11.368   3.115
 2186SOL    HW1 8391   8.567  11.398   3.164
 2186SOL    HW2 8392   8.618  11.377   3.023
 2187SOL     OW 8393  11.264   6.839   7.165
 2187SOL    HW1 8394  11.210   6.870   7.091
 2187SOL    HW2 8395  11.232   6.889   7.240
 2188SOL     OW 8396  11.210   2.228   2.833
 2188SOL    HW1 8397  11.216   2.274   2.749
 2188SOL    HW2 8398  11.267   2.278   2.892
 2189SOL     OW 8399  11.741   9.349   1.778
 2189SOL    HW1 8400  11.647   9.334   1.775
 2189SOL    HW2 8401  11.779   9.275   1.731
 2190SOL     OW 8402   9.094   3.007  10.434
 2190SOL    HW1 8403   9.077   2.940  10.500
 2190SOL    HW2 8404   9.188   3.004  10.420
 2191SOL     OW 8405  12.554   3.103  13.786
 2191SOL    HW1 8406  12.494   3.167  13.746
 2191SOL    HW2 8407  12.583   3.048  13.713
 2192SOL     OW 8408   3.602  12.123   1.949
 2192SOL    HW1 8409   3.591  12.043   1.899
 2192SOL    HW2 8410   3.612  12.192   1.882
 2193SOL     OW 8411   7.727  12.391  14.807
 2193SOL    HW1 8412   7.690  12.318  14.855
 2193SOL    HW2 8413   7.762  12.352  14.727
 2194SOL     OW 8414   1.989  12.873   2.232
 2194SOL    HW1 8415   1.899  12.844   2.246
 2194SOL    HW2 8416   2.033  12.797   2.194
 2195SOL     OW 8417   8.226   4.431   6.049
 2195SOL    HW1 8418   8.198   4.431   6.141
 2195SOL    HW2 8419   8.146   4.413   5.999
 2196SOL     OW 8420   4.522   6.001   9.542
 2196SOL    HW1 8421   4.466   6.075   9.518
 2196SOL    HW2 8422   4.461   5.934   9.573
 2197SOL     OW 8423   7.209   1.156  11.836
 2197SOL    HW1 8424   7.192   1.210  11.913
 2197SOL    HW2 8425   7.196   1.214  11.761
 2198SOL     OW 8426   9.340  11.041   3.217
 2198SOL    HW1 8427   9.328  11.039   3.312
 2198SOL    HW2 8428   9.434  11.053   3.205
 2199SOL     OW 8429   3.236  14.037   4.352
 2199SOL    HW1 8430   3.180  13.963   4.325
 2199SOL    HW2 8431   3.209  14.109   4.295
 2200SOL     OW 8432   0.690   5.555  10.583
 2200SOL    HW1 8433   0.667   5.583  10.495
 2200SOL    HW2 8434   0.674   5.461  10.583
 2201SOL     OW 8435   1.083   7.561   4.417
 2201SOL    HW1 8436   1.065   7.468   4.402
 2201SOL    HW2 8437   1.013   7.606   4.370
 2202SOL     OW 8438   2.125   2.047   0.140
 2202SOL    HW1 8439   2.098   1.961   0.106
 2202SOL    HW2 8440   2.068   2.062   0.215
 2203SOL     OW 8441   1.223   9.090   9.483
 2203SOL    HW1 8442   1.140   9.077   9.527
 2203SOL    HW2 8443   1.283   9.120   9.551
 2204SOL     OW 8444   8.805   5.565   1.291
 2204SOL    HW1 8445   8.775   5.598   1.376
 2204SOL    HW2 8446   8.799   5.470   1.299
 2205SOL     OW 8447   3.724   1.869   5.936
 2205SOL    HW1 8448   3.696   1.939   5.877
 2205SOL    HW2 8449   3.791   1.822   5.886
 2206SOL     OW 8450  11.382   2.682   2.072
 2206SOL    HW1 8451  11.427   2.741   2.011
 2206SOL    HW2 8452  11.392   2.724   2.157
 2207SOL     OW 8453   9.297   0.443   7.523
 2207SOL    HW1 8454   9.358   0.484   7.585
 2207SOL    HW2 8455   9.349   0.429   7.444
 2208SOL     OW 8456   8.619   4.294   0.125
 2208SOL    HW1 8457   8.596   4.250   0.207
 2208SOL    HW2 8458   8.625   4.386   0.149
 2209SOL     OW 8459  13.665   0.467   6.568
 2209SOL    HW1 8460  13.579   0.496   6.538
 2209SOL    HW2 8461  13.707   0.432   6.489
 2210SOL     OW 8462  12.478  12.832  10.461
 2210SOL    HW1 8463  12.507  12.796  10.377
 2210SOL    HW2 8464  12.383  12.840  10.452
 2211SOL     OW 8465   8.863   6.752   2.692
 2211SOL    HW1 8466   8.804   6.715   2.628
 2211SOL    HW2 8467   8.806   6.793   2.758
 2212SOL     OW 8468   0.204  10.186   6.272
 2212SOL    HW1 8469   0.255  10.264   6.297
 2212SOL    HW2 8470   0.270  10.123   6.243
 2213SOL     OW 8471  10.235   4.751  14.491
 2213SOL    HW1 8472  10.189   4.796  14.420
 2213SOL    HW2 8473  10.257   4.665  14.454
 2214SOL     OW 8474   4.934   4.171   4.373
 2214SOL    HW1 8475   4.881   4.230   4.319
 2214SOL    HW2 8476   4.886   4.165   4.456
 2215SOL     OW 8477  12.594   2.443   4.341
 2215SOL    HW1 8478  12.537   2.407   4.409
 2215SOL    HW2 8479  12.681   2.446   4.382
 2216SOL     OW 8480   9.250   9.730   5.043
 2216SOL    HW1 8481   9.328   9.756   4.994
 2216SOL    HW2 8482   9.188   9.700   4.977
 2217SOL     OW 8483   1.702  11.613   4.565
 2217SOL    HW1 8484   1.757  11.690   4.548
 2217SOL    HW2 8485   1.622  11.649   4.604
 2218SOL     OW 8486   2.039  14.250  11.725
 2218SOL    HW1 8487   2.096  14.320  11.693
 2218SOL    HW2 8488   1.954  14.268  11.685
 2219SOL     OW 8489   7.088   0.930   1.470
 2219SOL    HW1 8490   7.016   0.968   1.520
 2219SOL    HW2 8491   7.044   0.881   1.399
 2220SOL     OW 8492  10.699  12.509   7.276
 2220SOL    HW1 8493  10.630  12.458   7.319
 2220SOL    HW2 8494  10.775  12.452   7.276
 2221SOL     OW 8495   4.315   2.024   3.783
 2221SOL    HW1 8496   4.391   2.043   3.838
 2221SOL    HW2 8497   4.345   1.954   3.725
 2222SOL     OW 8498   7.435   8.198   5.848
 2222SOL    HW1 8499   7.476   8.123   5.892
 2222SOL    HW2 8500   7.368   8.228   5.909
 2223SOL     OW 8501   1.522  13.828  12.818
 2223SOL    HW1 8502   1.442  13.795  12.859
 2223SOL    HW2 8503   1.591  13.771  12.852
 2224SOL     OW 8504   5.853   1.281  10.390
 2224SOL    HW1 8505   5.928   1.338  10.375
 2224SOL    HW2 8506   5.780   1.341  10.405
 2225SOL     OW 8507  13.112  13.427  11.465
 2225SOL    HW1 8508  13.027  13.455  11.432
 2225SOL    HW2 8509  13.097  13.410  11.558
 2226SOL     OW 8510   5.745   1.515  12.470
 2226SOL    HW1 8511   5.649   1.514  12.477
 2226SOL    HW2 8512   5.762   1.500  12.377
 2227SOL     OW 8513   5.378  13.056   0.116
 2227SOL    HW1 8514   5.318  13.009   0.059
 2227SOL    HW2 8515   5.439  12.990   0.148
 2228SOL     OW 8516  14.720  13.542  13.562
 2228SOL    HW1 8517  14.729  13.453  13.597
 2228SOL    HW2 8518  14.645  13.579  13.607
 2229SOL     OW 8519  13.359   4.663   6.807
 2229SOL    HW1 8520  13.336   4.634   6.719
 2229SOL    HW2 8521  13.455   4.665   6.807
 2230SOL     OW 8522  11.683  14.474   1.459
 2230SOL    HW1 8523  11.714  14.403   1.403
 2230SOL    HW2 8524  11.601  14.502   1.418
 2231SOL     OW 8525  12.343   9.773   2.841
 2231SOL    HW1 8526  12.315   9.777   2.932
 2231SOL    HW2 8527  12.367   9.681   2.827
 2232SOL     OW 8528   6.591   4.802  11.093
 2232SOL    HW1 8529   6.609   4.811  11.187
 2232SOL    HW2 8530   6.497   4.784  11.089
 2233SOL     OW 8531   3.137   0.718   3.192
 2233SOL    HW1 8532   3.064   0.671   3.232
 2233SOL    HW2 8533   3.177   0.766   3.264
 2234SOL     OW 8534   8.712   1.089   3.926
 2234SOL    HW1 8535   8.680   1.133   3.847
 2234SOL    HW2 8536   8.807   1.099   3.923
 2235SOL     OW 8537   4.432  12.552  14.457
 2235SOL    HW1 8538   4.349  12.511  14.483
 2235SOL    HW2 8539   4.418  12.646  14.472
 2236SOL     OW 8540   1.077  14.062   6.608
 2236SOL    HW1 8541   1.004  14.114   6.640
 2236SOL    HW2 8542   1.155  14.110   6.636
 2237SOL     OW 8543  12.272  10.435   7.510
 2237SOL    HW1 8544  12.209  10.482   7.564
 2237SOL    HW2 8545  12.326  10.504   7.471
 2238SOL     OW 8546  14.184   5.204   7.766
 2238SOL    HW1 8547  14.206   5.151   7.689
 2238SOL    HW2 8548  14.220   5.290   7.747
 2239SOL     OW 8549   8.097  14.331   8.644
 2239SOL    HW1 8550   8.013  14.299   8.673
 2239SOL    HW2 8551   8.113  14.409   8.698
 2240SOL     OW 8552  13.582  13.441   9.757
 2240SOL    HW1 8553  13.636  13.381   9.808
 2240SOL    HW2 8554  13.495  13.435   9.797
 2241SOL     OW 8555   4.206   8.507   6.592
 2241SOL    HW1 8556   4.292   8.490   6.629
 2241SOL    HW2 8557   4.154   8.430   6.615
 2242SOL     OW 8558   3.259  11.546  11.399
 2242SOL    HW1 8559   3.284  11.481  11.334
 2242SOL    HW2 8560   3.325  11.615  11.390
 2243SOL     OW 8561   7.977   7.468   9.396
 2243SOL    HW1 8562   7.959   7.482   9.303
 2243SOL    HW2 8563   7.893   7.443   9.433
 2244SOL     OW 8564   9.316   7.381   2.078
 2244SOL    HW1 8565   9.289   7.326   2.151
 2244SOL    HW2 8566   9.274   7.342   2.001
 2245SOL     OW 8567   5.979  14.120  13.275
 2245SOL    HW1 8568   5.999  14.051  13.338
 2245SOL    HW2 8569   5.891  14.151  13.300
 2246SOL     OW 8570   0.899   6.872   1.833
 2246SOL    HW1 8571   0.873   6.831   1.751
 2246SOL    HW2 8572   0.829   6.849   1.895
 2247SOL     OW 8573   8.068   3.221  11.680
 2247SOL    HW1 8574   8.120   3.291  11.719
 2247SOL    HW2 8575   7.977   3.244  11.701
 2248SOL     OW 8576   2.517   5.489   0.837
 2248SOL    HW1 8577   2.610   5.470   0.846
 2248SOL    HW2 8578   2.512   5.548   0.761
 2249SOL     OW 8579  11.619  10.821   3.440
 2249SOL    HW1 8580  11.681  10.780   3.380
 2249SOL    HW2 8581  11.539  10.770   3.430
 2250SOL     OW 8582   7.186  11.385   3.463
 2250SOL    HW1 8583   7.094  11.361   3.478
 2250SOL    HW2 8584   7.230  11.362   3.544
 2251SOL     OW 8585  11.380  10.757   9.356
 2251SOL    HW1 8586  11.425  10.833   9.393
 2251SOL    HW2 8587  11.289  10.767   9.387
 2252SOL     OW 8588   1.686   7.442   8.849
 2252SOL    HW1 8589   1.769   7.458   8.894
 2252SOL    HW2 8590   1.663   7.352   8.871
 2253SOL     OW 8591   8.968  13.407   9.000
 2253SOL    HW1 8592   8.950  13.489   8.954
 2253SOL    HW2 8593   8.885  13.384   9.041
 2254SOL     OW 8594   8.912   6.512   4.595
 2254SOL    HW1 8595   8.837   6.555   4.554
 2254SOL    HW2 8596   8.926   6.560   4.676
 2255SOL     OW 8597  13.618   4.513   6.163
 2255SOL    HW1 8598  13.535   4.514   6.210
 2255SOL    HW2 8599  13.628   4.601   6.128
 2256SOL     OW 8600  14.542   8.192   5.083
 2256SOL    HW1 8601  14.523   8.279   5.117
 2256SOL    HW2 8602  14.469   8.138   5.113
 2257SOL     OW 8603   2.686   8.038   3.246
 2257SOL    HW1 8604   2.748   8.095   3.200
 2257SOL    HW2 8605   2.601   8.082   3.235
 2258SOL     OW 8606   7.779   3.964  11.800
 2258SOL    HW1 8607   7.759   3.924  11.715
 2258SOL    HW2 8608   7.704   4.022  11.817
 2259SOL     OW 8609   3.443  11.410   3.634
 2259SOL    HW1 8610   3.394  11.364   3.703
 2259SOL    HW2 8611   3.508  11.462   3.681
 2260SOL     OW 8612   4.526   0.670   4.697
 2260SOL    HW1 8613   4.579   0.748   4.681
 2260SOL    HW2 8614   4.556   0.606   4.633
 2261SOL     OW 8615   7.993  10.144   3.047
 2261SOL    HW1 8616   8.008  10.080   3.116
 2261SOL    HW2 8617   7.984  10.227   3.093
 2262SOL     OW 8618  12.741   5.305   8.894
 2262SOL    HW1 8619  12.748   5.211   8.876
 2262SOL    HW2 8620  12.699   5.341   8.816
 2263SOL     OW 8621   7.940  10.839  11.463
 2263SOL    HW1 8622   7.986  10.758  11.484
 2263SOL    HW2 8623   7.901  10.866  11.547
 2264SOL     OW 8624  10.975  13.421  12.775
 2264SOL    HW1 8625  11.006  13.470  12.700
 2264SOL    HW2 8626  10.880  13.423  12.768
 2265SOL     OW 8627  10.148   2.048   4.809
 2265SOL    HW1 8628  10.217   2.050   4.743
 2265SOL    HW2 8629  10.150   1.959   4.843
 2266SOL     OW 8630   6.213   4.943   5.290
 2266SOL    HW1 8631   6.241   5.033   5.278
 2266SOL    HW2 8632   6.172   4.919   5.207
 2267SOL     OW 8633  10.111  11.661   7.389
 2267SOL    HW1 8634  10.099  11.574   7.427
 2267SOL    HW2 8635  10.101  11.721   7.463
 2268SOL     OW 8636  12.733   6.050   9.588
 2268SOL    HW1 8637  12.733   5.960   9.621
 2268SOL    HW2 8638  12.729   6.040   9.493
 2269SOL     OW 8639   6.302   9.671  11.620
 2269SOL    HW1 8640   6.241   9.670  11.694
 2269SOL    HW2 8641   6.252   9.710  11.549
 2270SOL     OW 8642   7.456   9.999  11.188
 2270SOL    HW1 8643   7.447   9.966  11.099
 2270SOL    HW2 8644   7.524  10.066  11.182
 2271SOL     OW 8645   2.125   4.843   6.866
 2271SOL    HW1 8646   2.183   4.774   6.899
 2271SOL    HW2 8647   2.038   4.819   6.898
 2272SOL     OW 8648  13.557  10.054   6.938
 2272SOL    HW1 8649  13.534  10.121   6.873
 2272SOL    HW2 8650  13.483  10.052   6.998
 2273SOL     OW 8651   8.231   2.446  13.340
 2273SOL    HW1 8652   8.207   2.380  13.275
 2273SOL    HW2 8653   8.245   2.526  13.290
 2274SOL     OW 8654  13.000  13.655   7.119
 2274SOL    HW1 8655  13.019  13.575   7.169
 2274SOL    HW2 8656  12.985  13.623   7.030
 2275SOL     OW 8657   4.369   9.658   4.035
 2275SOL    HW1 8658   4.410   9.730   3.988
 2275SOL    HW2 8659   4.375   9.682   4.127
 2276SOL     OW 8660   0.619  11.579  10.048
 2276SOL    HW1 8661   0.671  11.650  10.084
 2276SOL    HW2 8662   0.529  11.604  10.066
 2277SOL     OW 8663  10.308   7.006   9.394
 2277SOL    HW1 8664  10.346   6.956   9.466
 2277SOL    HW2 8665  10.216   6.980   9.393
 2278SOL     OW 8666   9.575  13.621   9.545
 2278SOL    HW1 8667   9.530  13.542   9.515
 2278SOL    HW2 8668   9.655  13.588   9.586
 2279SOL     OW 8669   4.033  10.654   2.322
 2279SOL    HW1 8670   4.036  10.713   2.246
 2279SOL    HW2 8671   3.964  10.591   2.300
 2280SOL     OW 8672   9.129  10.430  11.644
 2280SOL    HW1 8673   9.089  10.501  11.593
 2280SOL    HW2 8674   9.216  10.420  11.606
 2281SOL     OW 8675  14.029   1.214   0.093
 2281SOL    HW1 8676  14.107   1.181   0.138
 2281SOL    HW2 8677  13.991   1.137   0.050
 2282SOL     OW 8678   2.681   9.616   2.318
 2282SOL    HW1 8679   2.635   9.564   2.383
 2282SOL    HW2 8680   2.771   9.620   2.349
 2283SOL     OW 8681   2.670   6.337  14.620
 2283SOL    HW1 8682   2.734   6.280  14.663
 2283SOL    HW2 8683   2.723   6.400  14.571
 2284SOL     OW 8684  11.464   5.581   4.552
 2284SOL    HW1 8685  11.514   5.578   4.633
 2284SOL    HW2 8686  11.389   5.523   4.568
 2285SOL     OW 8687  10.296  11.626   2.161
 2285SOL    HW1 8688  10.285  11.535   2.190
 2285SOL    HW2 8689  10.264  11.678   2.235
 2286SOL     OW 8690   4.407  14.560   5.040
 2286SOL    HW1 8691   4.397  14.609   5.121
 2286SOL    HW2 8692   4.345  14.487   5.047
 2287SOL     OW 8693  12.300   4.424   7.035
 2287SOL    HW1 8694  12.378   4.419   7.089
 2287SOL    HW2 8695  12.327   4.474   6.958
 2288SOL     OW 8696   5.316   2.534   7.819
 2288SOL    HW1 8697   5.244   2.475   7.795
 2288SOL    HW2 8698   5.294   2.565   7.907
 2289SOL     OW 8699   9.069   0.642   6.159
 2289SOL    HW1 8700   9.057   0.734   6.136
 2289SOL    HW2 8701   8.987   0.600   6.134
 2290SOL     OW 8702   4.401   2.438   2.886
 2290SOL    HW1 8703   4.459   2.443   2.963
 2290SOL    HW2 8704   4.369   2.347   2.886
 2291SOL     OW 8705  14.113   1.811   8.689
 2291SOL    HW1 8706  14.144   1.866   8.617
 2291SOL    HW2 8707  14.118   1.722   8.655
 2292SOL     OW 8708   6.899  13.030   1.289
 2292SOL    HW1 8709   6.865  12.974   1.219
 2292SOL    HW2 8710   6.821  13.065   1.332
 2293SOL     OW 8711   3.481   1.472  10.982
 2293SOL    HW1 8712   3.499   1.501  11.072
 2293SOL    HW2 8713   3.539   1.524  10.927
 2294SOL     OW 8714   1.287   8.212   5.151
 2294SOL    HW1 8715   1.319   8.257   5.229
 2294SOL    HW2 8716   1.356   8.226   5.085
 2295SOL     OW 8717   7.809   1.587   5.963
 2295SOL    HW1 8718   7.890   1.536   5.953
 2295SOL    HW2 8719   7.778   1.565   6.051
 2296SOL     OW 8720   9.180   9.937  13.791
 2296SOL    HW1 8721   9.257   9.961  13.739
 2296SOL    HW2 8722   9.131   9.876  13.736
 2297SOL     OW 8723   4.375   3.230   1.902
 2297SOL    HW1 8724   4.445   3.252   1.964
 2297SOL    HW2 8725   4.318   3.307   1.902
 2298SOL     OW 8726   2.893   4.665   0.824
 2298SOL    HW1 8727   2.986   4.674   0.845
 2298SOL    HW2 8728   2.851   4.732   0.877
 2299SOL     OW 8729   4.152  11.501   8.981
 2299SOL    HW1 8730   4.205  11.522   9.058
 2299SOL    HW2 8731   4.183  11.563   8.914
 2300SOL     OW 8732   8.459  12.440  11.331
 2300SOL    HW1 8733   8.552  12.416  11.330
 2300SOL    HW2 8734   8.440  12.457  11.424
 2301SOL     OW 8735   9.041   0.831   7.829
 2301SOL    HW1 8736   9.085   0.914   7.812
 2301SOL    HW2 8737   8.985   0.849   7.905
 2302SOL     OW 8738   7.017   8.650  11.888
 2302SOL    HW1 8739   6.983   8.621  11.972
 2302SOL    HW2 8740   7.047   8.740  11.904
 2303SOL     OW 8741  10.720  13.023   9.106
 2303SOL    HW1 8742  10.796  13.062   9.150
 2303SOL    HW2 8743  10.659  13.096   9.096
 2304SOL     OW 8744  14.378   3.469  14.221
 2304SOL    HW1 8745  14.320   3.533  14.262
 2304SOL    HW2 8746  14.356   3.473  14.128
 2305SOL     OW 8747  11.511   8.272  12.992
 2305SOL    HW1 8748  11.504   8.234  12.904
 2305SOL    HW2 8749  11.592   8.322  12.991
 2306SOL     OW 8750   6.781   0.248   9.769
 2306SOL    HW1 8751   6.735   0.167   9.790
 2306SOL    HW2 8752   6.717   0.317   9.785
 2307SOL     OW 8753  11.900  14.045   9.570
 2307SOL    HW1 8754  11.833  14.081   9.512
 2307SOL    HW2 8755  11.856  14.039   9.655
 2308SOL     OW 8756   0.556   8.120   4.356
 2308SOL    HW1 8757   0.590   8.114   4.446
 2308SOL    HW2 8758   0.506   8.040   4.344
 2309SOL     OW 8759  13.935   1.372  14.485
 2309SOL    HW1 8760  14.026   1.399  14.486
 2309SOL    HW2 8761  13.888   1.446  14.448
 2310SOL     OW 8762   5.371   0.964   8.329
 2310SOL    HW1 8763   5.409   1.010   8.405
 2310SOL    HW2 8764   5.331   1.033   8.277
 2311SOL     OW 8765   4.406   3.316   0.278
 2311SOL    HW1 8766   4.389   3.407   0.252
 2311SOL    HW2 8767   4.331   3.267   0.245
 2312SOL     OW 8768   9.236   9.119   3.832
 2312SOL    HW1 8769   9.264   9.040   3.877
 2312SOL    HW2 8770   9.236   9.187   3.899
 2313SOL     OW 8771  11.139  10.764   9.463
 2313SOL    HW1 8772  11.127  10.818   9.540
 2313SOL    HW2 8773  11.101  10.679   9.486
 2314SOL     OW 8774  12.333   1.974   6.625
 2314SOL    HW1 8775  12.248   1.940   6.596
 2314SOL    HW2 8776  12.383   1.985   6.544
 2315SOL     OW 8777  14.350   4.609   1.926
 2315SOL    HW1 8778  14.317   4.667   1.857
 2315SOL    HW2 8779  14.374   4.528   1.879
 2316SOL     OW 8780   5.171  11.771   7.271
 2316SOL    HW1 8781   5.152  11.856   7.230
 2316SOL    HW2 8782   5.252  11.742   7.228
 2317SOL     OW 8783   6.690   0.899   6.111
 2317SOL    HW1 8784   6.675   0.985   6.149
 2317SOL    HW2 8785   6.774   0.870   6.147
 2318SOL     OW 8786   9.725  11.485  13.254
 2318SOL    HW1 8787   9.637  11.465  13.221
 2318SOL    HW2 8788   9.755  11.558  13.201
 2319SOL     OW 8789   4.903  11.369   5.556
 2319SOL    HW1 8790   4.937  11.457   5.540
 2319SOL    HW2 8791   4.919  11.322   5.474
 2320SOL     OW 8792   9.465   2.913   8.562
 2320SOL    HW1 8793   9.401   2.845   8.583
 2320SOL    HW2 8794   9.492   2.894   8.472
 2321SOL     OW 8795   3.818   7.259   3.558
 2321SOL    HW1 8796   3.748   7.235   3.618
 2321SOL    HW2 8797   3.778   7.255   3.471
 2322SOL     OW 8798  11.628   8.121  10.932
 2322SOL    HW1 8799  11.713   8.076  10.941
 2322SOL    HW2 8800  11.636   8.198  10.988
 2323SOL     OW 8801   7.307   7.621   4.747
 2323SOL    HW1 8802   7.357   7.686   4.796
 2323SOL    HW2 8803   7.310   7.653   4.657
 2324SOL     OW 8804   3.279   3.985   3.619
 2324SOL    HW1 8805   3.217   3.967   3.690
 2324SOL    HW2 8806   3.277   4.081   3.610
 2325SOL     OW 8807   2.408  10.569   5.525
 2325SOL    HW1 8808   2.401  10.505   5.596
 2325SOL    HW2 8809   2.318  10.581   5.495
 2326SOL     OW 8810   5.302   1.064   1.816
 2326SOL    HW1 8811   5.241   1.092   1.748
 2326SOL    HW2 8812   5.388   1.088   1.782
 2327SOL     OW 8813   5.300   2.478  12.317
 2327SOL    HW1 8814   5.288   2.418  12.244
 2327SOL    HW2 8815   5.248   2.555  12.294
 2328SOL     OW 8816   1.112  13.368   0.546
 2328SOL    HW1 8817   1.033  13.404   0.506
 2328SOL    HW2 8818   1.183  13.397   0.490
 2329SOL     OW 8819   0.573  11.896  11.004
 2329SOL    HW1 8820   0.569  11.804  11.027
 2329SOL    HW2 8821   0.509  11.938  11.062
 2330SOL     OW 8822   0.507   6.972   3.767
 2330SOL    HW1 8823   0.414   6.983   3.788
 2330SOL    HW2 8824   0.524   6.879   3.784
 2331SOL     OW 8825  12.642   2.598   5.289
 2331SOL    HW1 8826  12.633   2.634   5.201
 2331SOL    HW2 8827  12.655   2.504   5.276
 2332SOL     OW 8828   5.895  10.228   2.013
 2332SOL    HW1 8829   5.868  10.294   1.949
 2332SOL    HW2 8830   5.913  10.150   1.960
 2333SOL     OW 8831   2.061   9.504   1.709
 2333SOL    HW1 8832   2.052   9.594   1.740
 2333SOL    HW2 8833   2.109   9.512   1.626
 2334SOL     OW 8834   1.223  13.831   7.633
 2334SOL    HW1 8835   1.213  13.758   7.695
 2334SOL    HW2 8836   1.176  13.904   7.674
 2335SOL     OW 8837  12.140  11.920   7.842
 2335SOL    HW1 8838  12.221  11.953   7.882
 2335SOL    HW2 8839  12.073  11.982   7.869
 2336SOL     OW 8840  13.513   6.953   5.784
 2336SOL    HW1 8841  13.494   6.924   5.873
 2336SOL    HW2 8842  13.427   6.956   5.741
 2337SOL     OW 8843   6.271   6.581   1.100
 2337SOL    HW1 8844   6.176   6.573   1.109
 2337SOL    HW2 8845   6.287   6.676   1.095
 2338SOL     OW 8846   8.089  13.155   6.740
 2338SOL    HW1 8847   8.155  13.214   6.778
 2338SOL    HW2 8848   8.132  13.117   6.663
 2339SOL     OW 8849   4.723   2.345   6.703
 2339SOL    HW1 8850   4.749   2.365   6.613
 2339SOL    HW2 8851   4.667   2.268   6.696
 2340SOL     OW 8852   0.240   0.619   3.868
 2340SOL    HW1 8853   0.214   0.527   3.880
 2340SOL    HW2 8854   0.330   0.623   3.900
 2341SOL     OW 8855   4.736   4.921   8.366
 2341SOL    HW1 8856   4.755   4.922   8.272
 2341SOL    HW2 8857   4.770   5.004   8.398
 2342SOL     OW 8858   8.441  12.140   4.546
 2342SOL    HW1 8859   8.458  12.168   4.456
 2342SOL    HW2 8860   8.481  12.208   4.600
 2343SOL     OW 8861   6.612  14.416   7.320
 2343SOL    HW1 8862   6.678  14.347   7.318
 2343SOL    HW2 8863   6.575  14.417   7.232
 2344SOL     OW 8864  13.704   8.868  11.570
 2344SOL    HW1 8865  13.676   8.947  11.524
 2344SOL    HW2 8866  13.624   8.832  11.608
 2345SOL     OW 8867   8.978   3.641  12.519
 2345SOL    HW1 8868   9.028   3.628  12.439
 2345SOL    HW2 8869   8.982   3.556  12.564
 2346SOL     OW 8870   6.787   3.815   9.926
 2346SOL    HW1 8871   6.811   3.817   9.834
 2346SOL    HW2 8872   6.862   3.853   9.972
 2347SOL     OW 8873   6.946   5.997   6.371
 2347SOL    HW1 8874   6.941   6.087   6.402
 2347SOL    HW2 8875   6.934   5.944   6.449
 2348SOL     OW 8876   9.223   8.621   6.975
 2348SOL    HW1 8877   9.130   8.639   6.958
 2348SOL    HW2 8878   9.268   8.700   6.946
 2349SOL     OW 8879   2.428  14.748  12.597
 2349SOL    HW1 8880   2.476  14.678  12.641
 2349SOL    HW2 8881   2.457  14.828  12.641
 2350SOL     OW 8882  11.492  11.232   7.955
 2350SOL    HW1 8883  11.488  11.188   8.040
 2350SOL    HW2 8884  11.585  11.249   7.942
 2351SOL     OW 8885   6.570   6.350   2.875
 2351SOL    HW1 8886   6.537   6.393   2.953
 2351SOL    HW2 8887   6.527   6.264   2.873
 2352SOL     OW 8888  11.243   8.890  11.880
 2352SOL    HW1 8889  11.181   8.860  11.947
 2352SOL    HW2 8890  11.269   8.977  11.908
 2353SOL     OW 8891   9.232   7.014   6.205
 2353SOL    HW1 8892   9.277   7.065   6.138
 2353SOL    HW2 8893   9.246   6.923   6.180
 2354SOL     OW 8894   4.812  11.596   0.176
 2354SOL    HW1 8895   4.886  11.577   0.119
 2354SOL    HW2 8896   4.839  11.672   0.227
 2355SOL     OW 8897   4.552   5.916   7.701
 2355SOL    HW1 8898   4.535   5.990   7.642
 2355SOL    HW2 8899   4.568   5.957   7.786
 2356SOL     OW 8900   0.980   6.230  12.880
 2356SOL    HW1 8901   1.053   6.229  12.943
 2356SOL    HW2 8902   0.917   6.291  12.917
 2357SOL     OW 8903   6.747   9.797  13.186
 2357SOL    HW1 8904   6.685   9.746  13.238
 2357SOL    HW2 8905   6.811   9.829  13.249
 2358SOL     OW 8906   7.981   3.760  14.363
 2358SOL    HW1 8907   8.043   3.710  14.417
 2358SOL    HW2 8908   7.921   3.800  14.426
 2359SOL     OW 8909  13.054   6.083   1.103
 2359SOL    HW1 8910  13.128   6.141   1.086
 2359SOL    HW2 8911  12.991   6.137   1.152
 2360SOL     OW 8912   5.966  13.575   3.256
 2360SOL    HW1 8913   6.018  13.541   3.183
 2360SOL    HW2 8914   6.031  13.602   3.321
 2361SOL     OW 8915   6.165   1.504   5.109
 2361SOL    HW1 8916   6.096   1.514   5.175
 2361SOL    HW2 8917   6.120   1.522   5.026
 2362SOL     OW 8918  13.847   2.481  12.625
 2362SOL    HW1 8919  13.822   2.551  12.564
 2362SOL    HW2 8920  13.906   2.524  12.687
 2363SOL     OW 8921  14.687   2.352   6.770
 2363SOL    HW1 8922  14.664   2.431   6.818
 2363SOL    HW2 8923  14.775   2.369   6.735
 2364SOL     OW 8924   7.092   3.866  12.979
 2364SOL    HW1 8925   7.032   3.833  12.913
 2364SOL    HW2 8926   7.167   3.807  12.974
 2365SOL     OW 8927   5.017   9.712   4.210
 2365SOL    HW1 8928   4.999   9.656   4.135
 2365SOL    HW2 8929   4.984   9.798   4.184
 2366SOL     OW 8930   8.582   4.401   4.406
 2366SOL    HW1 8931   8.640   4.475   4.393
 2366SOL    HW2 8932   8.495   4.433   4.382
 2367SOL     OW 8933   9.983   8.671   4.554
 2367SOL    HW1 8934  10.015   8.593   4.599
 2367SOL    HW2 8935   9.937   8.638   4.477
 2368SOL     OW 8936   6.967   2.812  10.609
 2368SOL    HW1 8937   6.918   2.812  10.691
 2368SOL    HW2 8938   6.906   2.776  10.545
 2369SOL     OW 8939  10.748   0.725   8.358
 2369SOL    HW1 8940  10.773   0.677   8.437
 2369SOL    HW2 8941  10.805   0.802   8.357
 2370SOL     OW 8942   6.380   1.953   5.407
 2370SOL    HW1 8943   6.306   1.977   5.352
 2370SOL    HW2 8944   6.373   2.009   5.484
 2371SOL     OW 8945   1.874   9.252   4.347
 2371SOL    HW1 8946   1.920   9.168   4.348
 2371SOL    HW2 8947   1.933   9.312   4.391
 2372SOL     OW 8948  10.551   6.086   3.875
 2372SOL    HW1 8949  10.510   6.122   3.953
 2372SOL    HW2 8950  10.488   6.103   3.805
 2373SOL     OW 8951   0.802   8.519   1.636
 2373SOL    HW1 8952   0.825   8.426   1.632
 2373SOL    HW2 8953   0.796   8.539   1.729
 2374SOL     OW 8954   0.114   6.804   3.812
 2374SOL    HW1 8955   0.052   6.802   3.739
 2374SOL    HW2 8956   0.151   6.716   3.814
 2375SOL     OW 8957  11.806   1.818   2.276
 2375SOL    HW1 8958  11.875   1.820   2.210
 2375SOL    HW2 8959  11.732   1.863   2.235
 2376SOL     OW 8960   3.123  11.363   6.790
 2376SOL    HW1 8961   3.126  11.442   6.844
 2376SOL    HW2 8962   3.197  11.311   6.821
 2377SOL     OW 8963   7.145   3.795   8.571
 2377SOL    HW1 8964   7.193   3.877   8.557
 2377SOL    HW2 8965   7.212   3.726   8.563
 2378SOL     OW 8966  12.815  14.683  11.730
 2378SOL    HW1 8967  12.907  14.663  11.710
 2378SOL    HW2 8968  12.799  14.640  11.814
 2379SOL     OW 8969  13.372   5.478   1.641
 2379SOL    HW1 8970  13.278   5.493   1.635
 2379SOL    HW2 8971  13.385   5.395   1.596
 2380SOL     OW 8972   1.836  10.081   8.398
 2380SOL    HW1 8973   1.842  10.152   8.334
 2380SOL    HW2 8974   1.842  10.125   8.483
 2381SOL     OW 8975  14.356  10.505  11.402
 2381SOL    HW1 8976  14.279  10.547  11.363
 2381SOL    HW2 8977  14.346  10.519  11.496
 2382SOL     OW 8978   2.569  10.340   2.035
 2382SOL    HW1 8979   2.501  10.295   1.985
 2382SOL    HW2 8980   2.575  10.427   1.994
 2383SOL     OW 8981  10.552   3.872  13.474
 2383SOL    HW1 8982  10.508   3.829  13.547
 2383SOL    HW2 8983  10.632   3.908  13.512
 2384SOL     OW 8984   1.684   0.633   8.055
 2384SOL    HW1 8985   1.598   0.631   8.097
 2384SOL    HW2 8986   1.726   0.552   8.083
 2385SOL     OW 8987  11.078   8.432  13.461
 2385SOL    HW1 8988  11.019   8.498  13.425
 2385SOL    HW2 8989  11.023   8.378  13.517
 2386SOL     OW 8990   2.024   0.370   0.452
 2386SOL    HW1 8991   1.942   0.384   0.499
 2386SOL    HW2 8992   1.997   0.340   0.365
 2387SOL     OW 8993   2.027   3.791   2.471
 2387SOL    HW1 8994   2.070   3.847   2.536
 2387SOL    HW2 8995   1.935   3.789   2.498
 2388SOL     OW 8996   6.823   6.056  12.087
 2388SOL    HW1 8997   6.874   6.075  12.166
 2388SOL    HW2 8998   6.887   6.020  12.026
 2389SOL     OW 8999   4.724  11.793  14.464
 2389SOL    HW1 9000   4.760  11.722  14.516
 2389SOL    HW2 9001   4.743  11.769  14.374
 2390SOL     OW 9002  13.641   1.097   5.693
 2390SOL    HW1 9003  13.581   1.126   5.761
 2390SOL    HW2 9004  13.668   1.177   5.648
 2391SOL     OW 9005  11.823   8.580   9.981
 2391SOL    HW1 9006  11.747   8.575  10.040
 2391SOL    HW2 9007  11.834   8.491   9.949
 2392SOL     OW 9008   7.939  11.189   9.999
 2392SOL    HW1 9009   7.864  11.248  10.006
 2392SOL    HW2 9010   7.911  11.122   9.936
 2393SOL     OW 9011   0.468  10.928   9.759
 2393SOL    HW1 9012   0.496  10.842   9.788
 2393SOL    HW2 9013   0.433  10.914   9.671
 2394SOL     OW 9014   6.601  10.400   0.736
 2394SOL    HW1 9015   6.597  10.305   0.750
 2394SOL    HW2 9016   6.512  10.425   0.711
 2395SOL     OW 9017  11.581   2.042  14.800
 2395SOL    HW1 9018  11.623   2.016   0.009
 2395SOL    HW2 9019  11.543   1.961  14.765
 2396SOL     OW 9020   7.341   4.110   1.379
 2396SOL    HW1 9021   7.328   4.067   1.464
 2396SOL    HW2 9022   7.290   4.057   1.318
 2397SOL     OW 9023   4.589   2.050  11.420
 2397SOL    HW1 9024   4.622   2.139  11.413
 2397SOL    HW2 9025   4.536   2.037  11.341
 2398SOL     OW 9026   2.557   5.448   6.698
 2398SOL    HW1 9027   2.512   5.373   6.737
 2398SOL    HW2 9028   2.488   5.493   6.648
 2399SOL     OW 9029  12.355   9.846   7.965
 2399SOL    HW1 9030  12.373   9.847   8.059
 2399SOL    HW2 9031  12.268   9.884   7.957
 2400SOL     OW 9032   1.658   0.923   8.652
 2400SOL    HW1 9033   1.619   0.950   8.569
 2400SOL    HW2 9034   1.597   0.857   8.686
 2401SOL     OW 9035  12.963   4.498   5.180
 2401SOL    HW1 9036  12.888   4.450   5.145
 2401SOL    HW2 9037  13.039   4.458   5.138
 2402SOL     OW 9038   8.836   5.495   4.083
 2402SOL    HW1 9039   8.796   5.556   4.022
 2402SOL    HW2 9040   8.801   5.410   4.059
 2403SOL     OW 9041   4.692   6.228   4.816
 2403SOL    HW1 9042   4.605   6.189   4.814
 2403SOL    HW2 9043   4.677   6.322   4.810
 2404SOL     OW 9044  12.845  13.477  10.201
 2404SOL    HW1 9045  12.914  13.450  10.140
 2404SOL    HW2 9046  12.764  13.471  10.150
 2405SOL     OW 9047   2.123  12.321  11.657
 2405SOL    HW1 9048   2.066  12.384  11.614
 2405SOL    HW2 9049   2.070  12.241  11.663
 2406SOL     OW 9050  10.105   9.095   2.787
 2406SOL    HW1 9051  10.173   9.163   2.790
 2406SOL    HW2 9052  10.025   9.142   2.763
 2407SOL     OW 9053  10.635   1.211  13.553
 2407SOL    HW1 9054  10.559   1.180  13.505
 2407SOL    HW2 9055  10.695   1.136  13.554
 2408SOL     OW 9056  13.506   0.650   1.345
 2408SOL    HW1 9057  13.458   0.590   1.402
 2408SOL    HW2 9058  13.571   0.594   1.302
 2409SOL     OW 9059  13.949  13.424  11.525
 2409SOL    HW1 9060  13.936  13.332  11.500
 2409SOL    HW2 9061  14.024  13.422  11.583
 2410SOL     OW 9062  13.658   5.112   3.900
 2410SOL    HW1 9063  13.659   5.032   3.848
 2410SOL    HW2 9064  13.589   5.165   3.860
 2411SOL     OW 9065   8.553  12.840  10.074
 2411SOL    HW1 9066   8.460  12.855  10.059
 2411SOL    HW2 9067   8.570  12.878  10.160
 2412SOL     OW 9068   0.093   4.876   0.956
 2412SOL    HW1 9069   0.097   4.971   0.941
 2412SOL    HW2 9070   0.000   4.855   0.959
 2413SOL     OW 9071  11.646   5.475  12.817
 2413SOL    HW1 9072  11.689   5.446  12.737
 2413SOL    HW2 9073  11.648   5.571  12.812
 2414SOL     OW 9074   8.690   6.865  14.678
 2414SOL    HW1 9075   8.765   6.817  14.714
 2414SOL    HW2 9076   8.615   6.809  14.698
 2415SOL     OW 9077   6.640   5.974   8.393
 2415SOL    HW1 9078   6.609   6.038   8.457
 2415SOL    HW2 9079   6.671   6.026   8.320
 2416SOL     OW 9080   4.564   6.491   2.795
 2416SOL    HW1 9081   4.494   6.495   2.730
 2416SOL    HW2 9082   4.523   6.521   2.876
 2417SOL     OW 9083   8.724   1.306   9.769
 2417SOL    HW1 9084   8.812   1.289   9.803
 2417SOL    HW2 9085   8.679   1.221   9.773
 2418SOL     OW 9086   2.008   6.186  14.744
 2418SOL    HW1 9087   1.981   6.243  14.672
 2418SOL    HW2 9088   2.070   6.125  14.705
 2419SOL     OW 9089   4.107   9.009   0.757
 2419SOL    HW1 9090   4.101   8.933   0.699
 2419SOL    HW2 9091   4.061   8.982   0.837
 2420SOL     OW 9092   4.157   2.227  12.799
 2420SOL    HW1 9093   4.154   2.135  12.771
 2420SOL    HW2 9094   4.130   2.225  12.891
 2421SOL     OW 9095   0.700   1.536   4.649
 2421SOL    HW1 9096   0.712   1.441   4.654
 2421SOL    HW2 9097   0.730   1.559   4.561
 2422SOL     OW 9098   6.369   7.701  14.668
 2422SOL    HW1 9099   6.454   7.722  14.707
 2422SOL    HW2 9100   6.324   7.651  14.736
 2423SOL     OW 9101   8.949  14.431   2.684
 2423SOL    HW1 9102   8.956  14.511   2.631
 2423SOL    HW2 9103   8.947  14.463   2.774
 2424SOL     OW 9104  13.986   1.262   0.362
 2424SOL    HW1 9105  13.977   1.240   0.269
 2424SOL    HW2 9106  14.022   1.182   0.402
 2425SOL     OW 9107  13.360  14.412   5.038
 2425SOL    HW1 9108  13.302  14.371   5.103
 2425SOL    HW2 9109  13.309  14.486   5.004
 2426SOL     OW 9110   0.835  14.341  12.715
 2426SOL    HW1 9111   0.835  14.254  12.754
 2426SOL    HW2 9112   0.897  14.335  12.643
 2427SOL     OW 9113  12.321   1.142   5.125
 2427SOL    HW1 9114  12.295   1.218   5.072
 2427SOL    HW2 9115  12.412   1.125   5.099
 2428SOL     OW 9116   7.224   0.634   7.936
 2428SOL    HW1 9117   7.243   0.722   7.903
 2428SOL    HW2 9118   7.256   0.576   7.867
 2429SOL     OW 9119   2.719  13.857   1.226
 2429SOL    HW1 9120   2.643  13.837   1.279
 2429SOL    HW2 9121   2.696  13.939   1.181
 2430SOL     OW 9122  10.281  14.078   8.734
 2430SOL    HW1 9123  10.313  13.987   8.739
 2430SOL    HW2 9124  10.287  14.110   8.824
 2431SOL     OW 9125   0.755   1.820   6.500
 2431SOL    HW1 9126   0.680   1.869   6.533
 2431SOL    HW2 9127   0.797   1.785   6.579
 2432SOL     OW 9128   7.366   3.325  13.979
 2432SOL    HW1 9129   7.422   3.333  13.901
 2432SOL    HW2 9130   7.356   3.414  14.011
 2433SOL     OW 9131  12.380   7.340   1.103
 2433SOL    HW1 9132  12.315   7.304   1.162
 2433SOL    HW2 9133  12.454   7.364   1.159
 2434SOL     OW 9134  14.414   7.529   1.168
 2434SOL    HW1 9135  14.324   7.541   1.137
 2434SOL    HW2 9136  14.461   7.605   1.134
 2435SOL     OW 9137   4.137   8.519   2.723
 2435SOL    HW1 9138   4.094   8.604   2.724
 2435SOL    HW2 9139   4.076   8.459   2.766
 2436SOL     OW 9140  12.656  11.591   1.610
 2436SOL    HW1 9141  12.613  11.531   1.550
 2436SOL    HW2 9142  12.732  11.624   1.562
 2437SOL     OW 9143  10.138   7.526   0.900
 2437SOL    HW1 9144  10.222   7.497   0.863
 2437SOL    HW2 9145  10.159   7.552   0.989
 2438SOL     OW 9146  11.800  13.357   6.005
 2438SOL    HW1 9147  11.810  13.274   5.957
 2438SOL    HW2 9148  11.878  13.407   5.982
 2439SOL     OW 9149   6.737   9.249   4.683
 2439SOL    HW1 9150   6.721   9.342   4.665
 2439SOL    HW2 9151   6.652   9.207   4.670
 2440SOL     OW 9152  14.188   5.745   5.667
 2440SOL    HW1 9153  14.227   5.787   5.744
 2440SOL    HW2 9154  14.201   5.652   5.682
 2441SOL     OW 9155  11.981   3.687   7.710
 2441SOL    HW1 9156  11.928   3.758   7.674
 2441SOL    HW2 9157  11.930   3.653   7.784
 2442SOL     OW 9158   4.954   0.167  12.024
 2442SOL    HW1 9159   5.006   0.247  12.024
 2442SOL    HW2 9160   5.013   0.100  11.990
 2443SOL     OW 9161   8.570   2.812  14.493
 2443SOL    HW1 9162   8.589   2.897  14.532
 2443SOL    HW2 9163   8.644   2.757  14.517
 2444SOL     OW 9164   6.082   0.712   7.091
 2444SOL    HW1 9165   6.051   0.624   7.070
 2444SOL    HW2 9166   6.178   0.703   7.094
 2445SOL     OW 9167   5.588  13.116   3.072
 2445SOL    HW1 9168   5.591  13.143   2.981
 2445SOL    HW2 9169   5.497  13.127   3.098
 2446SOL     OW 9170   5.933   2.313   1.378
 2446SOL    HW1 9171   5.950   2.219   1.387
 2446SOL    HW2 9172   6.020   2.353   1.383
 2447SOL     OW 9173   2.850   8.346   6.891
 2447SOL    HW1 9174   2.902   8.399   6.951
 2447SOL    HW2 9175   2.909   8.327   6.818
 2448SOL     OW 9176   4.456   7.160  10.079
 2448SOL    HW1 9177   4.445   7.250  10.111
 2448SOL    HW2 9178   4.373   7.139  10.037
 2449SOL     OW 9179  12.221   4.794   8.483
 2449SOL    HW1 9180  12.223   4.867   8.545
 2449SOL    HW2 9181  12.273   4.725   8.525
 2450SOL     OW 9182  11.828  10.888   8.091
 2450SOL    HW1 9183  11.756  10.883   8.028
 2450SOL    HW2 9184  11.787  10.868   8.175
 2451SOL     OW 9185   6.478   0.615   6.537
 2451SOL    HW1 9186   6.539   0.634   6.466
 2451SOL    HW2 9187   6.407   0.565   6.496
 2452SOL     OW 9188  14.856   2.608   0.229
 2452SOL    HW1 9189  14.812   2.604   0.314
 2452SOL    HW2 9190   0.075   2.624   0.251
 2453SOL     OW 9191  12.422  10.896   4.010
 2453SOL    HW1 9192  12.507  10.879   4.050
 2453SOL    HW2 9193  12.407  10.990   4.021
 2454SOL     OW 9194   0.229   4.359   7.563
 2454SOL    HW1 9195   0.229   4.419   7.638
 2454SOL    HW2 9196   0.167   4.399   7.502
 2455SOL     OW 9197   3.930   7.430  10.406
 2455SOL    HW1 9198   3.864   7.462  10.345
 2455SOL    HW2 9199   3.894   7.348  10.440
 2456SOL     OW 9200   8.337   6.579  13.083
 2456SOL    HW1 9201   8.405   6.627  13.035
 2456SOL    HW2 9202   8.309   6.640  13.152
 2457SOL     OW 9203   9.302   9.321   2.782
 2457SOL    HW1 9204   9.209   9.343   2.786
 2457SOL    HW2 9205   9.305   9.226   2.781
 2458SOL     OW 9206   5.898   2.131   7.741
 2458SOL    HW1 9207   5.856   2.081   7.671
 2458SOL    HW2 9208   5.892   2.076   7.818
 2459SOL     OW 9209   4.635   3.915  11.469
 2459SOL    HW1 9210   4.658   3.983  11.406
 2459SOL    HW2 9211   4.719   3.884  11.503
 2460SOL     OW 9212  11.173  12.749   2.733
 2460SOL    HW1 9213  11.117  12.815   2.774
 2460SOL    HW2 9214  11.221  12.797   2.666
 2461SOL     OW 9215   2.763  10.986   4.728
 2461SOL    HW1 9216   2.845  11.015   4.687
 2461SOL    HW2 9217   2.705  11.061   4.721
 2462SOL     OW 9218   4.010   8.147   4.853
 2462SOL    HW1 9219   3.993   8.053   4.855
 2462SOL    HW2 9220   4.046   8.168   4.940
 2463SOL     OW 9221   3.900  13.028   4.306
 2463SOL    HW1 9222   3.946  12.999   4.385
 2463SOL    HW2 9223   3.969  13.066   4.251
 2464SOL     OW 9224   4.085   1.985   9.922
 2464SOL    HW1 9225   4.006   2.026   9.956
 2464SOL    HW2 9226   4.136   1.962  10.000
 2465SOL     OW 9227   4.823   3.199   8.512
 2465SOL    HW1 9228   4.805   3.283   8.553
 2465SOL    HW2 9229   4.770   3.136   8.562
 2466SOL     OW 9230  12.527  10.158   8.530
 2466SOL    HW1 9231  12.487  10.117   8.453
 2466SOL    HW2 9232  12.458  10.215   8.564
 2467SOL     OW 9233   2.552   5.523  14.185
 2467SOL    HW1 9234   2.633   5.551  14.143
 2467SOL    HW2 9235   2.484   5.541  14.121
 2468SOL     OW 9236   9.143   1.244   5.758
 2468SOL    HW1 9237   9.115   1.228   5.668
 2468SOL    HW2 9238   9.068   1.219   5.812
 2469SOL     OW 9239   3.855   3.093   2.921
 2469SOL    HW1 9240   3.894   3.057   3.000
 2469SOL    HW2 9241   3.890   3.039   2.850
 2470SOL     OW 9242   2.085   7.464  11.982
 2470SOL    HW1 9243   2.081   7.370  11.999
 2470SOL    HW2 9244   2.088   7.471  11.887
 2471SOL     OW 9245   7.631  12.072   3.829
 2471SOL    HW1 9246   7.671  12.058   3.914
 2471SOL    HW2 9247   7.586  12.156   3.837
 2472SOL     OW 9248   0.267  13.283   0.692
 2472SOL    HW1 9249   0.277  13.350   0.625
 2472SOL    HW2 9250   0.245  13.204   0.644
 2473SOL     OW 9251   8.367   9.233  14.371
 2473SOL    HW1 9252   8.451   9.224  14.325
 2473SOL    HW2 9253   8.340   9.143  14.389
 2474SOL     OW 9254  11.459   1.721   7.153
 2474SOL    HW1 9255  11.529   1.781   7.127
 2474SOL    HW2 9256  11.504   1.649   7.195
 2475SOL     OW 9257   7.401   0.314   1.941
 2475SOL    HW1 9258   7.397   0.252   1.868
 2475SOL    HW2 9259   7.311   0.318   1.974
 2476SOL     OW 9260   2.604   3.669   9.406
 2476SOL    HW1 9261   2.655   3.738   9.363
 2476SOL    HW2 9262   2.622   3.591   9.354
 2477SOL     OW 9263  14.561  10.884   1.686
 2477SOL    HW1 9264  14.503  10.935   1.742
 2477SOL    HW2 9265  14.545  10.793   1.710
 2478SOL     OW 9266   3.526   4.170  14.118
 2478SOL    HW1 9267   3.576   4.099  14.160
 2478SOL    HW2 9268   3.569   4.250  14.148
 2479SOL     OW 9269  11.098   4.451   2.209
 2479SOL    HW1 9270  11.020   4.481   2.256
 2479SOL    HW2 9271  11.163   4.437   2.278
 2480SOL     OW 9272   6.850  10.988  13.339
 2480SOL    HW1 9273   6.850  10.960  13.247
 2480SOL    HW2 9274   6.897  10.918  13.385
 2481SOL     OW 9275   5.204  12.700   1.190
 2481SOL    HW1 9276   5.152  12.778   1.172
 2481SOL    HW2 9277   5.239  12.673   1.105
 2482SOL     OW 9278   7.810  13.656   9.469
 2482SOL    HW1 9279   7.747  13.728   9.471
 2482SOL    HW2 9280   7.828  13.637   9.561
 2483SOL     OW 9281  11.888   0.490  12.604
 2483SOL    HW1 9282  11.833   0.568  12.612
 2483SOL    HW2 9283  11.915   0.470  12.694
 2484SOL     OW 9284   4.345   8.957   0.418
 2484SOL    HW1 9285   4.366   8.957   0.511
 2484SOL    HW2 9286   4.425   8.926   0.375
 2485SOL     OW 9287   4.348   0.560   8.342
 2485SOL    HW1 9288   4.379   0.479   8.380
 2485SOL    HW2 9289   4.425   0.617   8.341
 2486SOL     OW 9290   6.365   0.468   8.497
 2486SOL    HW1 9291   6.302   0.487   8.429
 2486SOL    HW2 9292   6.314   0.426   8.567
 2487SOL     OW 9293   9.178  12.919   5.359
 2487SOL    HW1 9294   9.274  12.920   5.357
 2487SOL    HW2 9295   9.155  12.944   5.448
 2488SOL     OW 9296   6.366   6.730  10.387
 2488SOL    HW1 9297   6.425   6.731  10.312
 2488SOL    HW2 9298   6.377   6.643  10.426
 2489SOL     OW 9299   5.068  10.131   4.109
 2489SOL    HW1 9300   5.113  10.156   4.028
 2489SOL    HW2 9301   4.996  10.075   4.080
 2490SOL     OW 9302   7.006   6.070   8.240
 2490SOL    HW1 9303   7.099   6.090   8.225
 2490SOL    HW2 9304   6.999   5.976   8.226
 2491SOL     OW 9305   2.409  10.261  12.712
 2491SOL    HW1 9306   2.460  10.336  12.681
 2491SOL    HW2 9307   2.382  10.216  12.632
 2492SOL     OW 9308   5.964   1.052  14.656
 2492SOL    HW1 9309   5.896   1.086  14.714
 2492SOL    HW2 9310   6.040   1.108  14.673
 2493SOL     OW 9311  13.891   8.287   1.737
 2493SOL    HW1 9312  13.851   8.219   1.682
 2493SOL    HW2 9313  13.820   8.317   1.793
 2494SOL     OW 9314  10.572   5.728  13.632
 2494SOL    HW1 9315  10.534   5.707  13.718
 2494SOL    HW2 9316  10.500   5.713  13.571
 2495SOL     OW 9317   1.626  12.057   3.484
 2495SOL    HW1 9318   1.623  12.037   3.578
 2495SOL    HW2 9319   1.538  12.085   3.462
 2496SOL     OW 9320  14.364   1.009  12.253
 2496SOL    HW1 9321  14.269   1.016  12.248
 2496SOL    HW2 9322  14.394   1.011  12.162
 2497SOL     OW 9323   7.019   6.138   3.513
 2497SOL    HW1 9324   6.977   6.102   3.435
 2497SOL    HW2 9325   7.011   6.068   3.579
 2498SOL     OW 9326   6.478   5.982  12.720
 2498SOL    HW1 9327   6.387   5.976  12.689
 2498SOL    HW2 9328   6.509   6.066  12.688
 2499SOL     OW 9329  11.987  14.195   8.546
 2499SOL    HW1 9330  12.018  14.112   8.511
 2499SOL    HW2 9331  12.013  14.193   8.638
 2500SOL     OW 9332  10.081  12.531   1.181
 2500SOL    HW1 9333   9.999  12.575   1.159
 2500SOL    HW2 9334  10.060  12.437   1.175
 2501SOL     OW 9335   6.542   8.910   4.337
 2501SOL    HW1 9336   6.618   8.967   4.350
 2501SOL    HW2 9337   6.577   8.836   4.287
 2502SOL     OW 9338  13.948  12.902  13.294
 2502SOL    HW1 9339  13.927  12.994  13.309
 2502SOL    HW2 9340  13.895  12.878  13.218
 2503SOL     OW 9341   3.050  14.062  11.658
 2503SOL    HW1 9342   3.049  13.967  11.666
 2503SOL    HW2 9343   2.960  14.089  11.677
 2504SOL     OW 9344  14.818  14.076  12.001
 2504SOL    HW1 9345  14.826  14.171  12.001
 2504SOL    HW2 9346  14.852  14.049  11.915
 2505SOL     OW 9347   6.697   2.074   6.128
 2505SOL    HW1 9348   6.746   2.004   6.171
 2505SOL    HW2 9349   6.656   2.122   6.200
 2506SOL     OW 9350   2.596  12.799   5.792
 2506SOL    HW1 9351   2.633  12.811   5.704
 2506SOL    HW2 9352   2.510  12.760   5.776
 2507SOL     OW 9353  14.030  11.506   6.265
 2507SOL    HW1 9354  13.979  11.569   6.214
 2507SOL    HW2 9355  14.035  11.428   6.209
 2508SOL     OW 9356  11.241   1.708   6.813
 2508SOL    HW1 9357  11.337   1.715   6.812
 2508SOL    HW2 9358  11.222   1.651   6.888
 2509SOL     OW 9359  10.851   3.575   5.038
 2509SOL    HW1 9360  10.924   3.547   4.982
 2509SOL    HW2 9361  10.864   3.670   5.048
 2510SOL     OW 9362   0.757   4.687  12.604
 2510SOL    HW1 9363   0.758   4.759  12.666
 2510SOL    HW2 9364   0.788   4.726  12.522
 2511SOL     OW 9365  10.623   9.215   2.429
 2511SOL    HW1 9366  10.596   9.123   2.434
 2511SOL    HW2 9367  10.606   9.250   2.516
 2512SOL     OW 9368  12.905   2.939   8.494
 2512SOL    HW1 9369  12.818   2.897   8.496
 2512SOL    HW2 9370  12.945   2.906   8.414
 2513SOL     OW 9371   7.085  10.460  12.159
 2513SOL    HW1 9372   7.171  10.503  12.152
 2513SOL    HW2 9373   7.027  10.513  12.106
 2514SOL     OW 9374   2.587   3.674  13.441
 2514SOL    HW1 9375   2.615   3.590  13.407
 2514SOL    HW2 9376   2.586   3.732  13.365
 2515SOL     OW 9377   5.223  13.221   0.300
 2515SOL    HW1 9378   5.267  13.303   0.279
 2515SOL    HW2 9379   5.274  13.153   0.256
 2516SOL     OW 9380  12.517   1.648   2.413
 2516SOL    HW1 9381  12.450   1.580   2.404
 2516SOL    HW2 9382  12.589   1.618   2.357
 2517SOL     OW 9383  10.856   2.302   5.930
 2517SOL    HW1 9384  10.922   2.365   5.959
 2517SOL    HW2 9385  10.777   2.326   5.980
 2518SOL     OW 9386  14.271   0.418  10.698
 2518SOL    HW1 9387  14.361   0.409  10.665
 2518SOL    HW2 9388  14.232   0.332  10.683
 2519SOL     OW 9389   6.573  14.425   2.713
 2519SOL    HW1 9390   6.481  14.445   2.733
 2519SOL    HW2 9391   6.576  14.418   2.618
 2520SOL     OW 9392   8.705   1.784   1.506
 2520SOL    HW1 9393   8.796   1.813   1.510
 2520SOL    HW2 9394   8.653   1.864   1.511
 2521SOL     OW 9395   4.812   4.732   9.426
 2521SOL    HW1 9396   4.850   4.723   9.339
 2521SOL    HW2 9397   4.882   4.767   9.480
 2522SOL     OW 9398  10.865   4.614  10.294
 2522SOL    HW1 9399  10.957   4.594  10.276
 2522SOL    HW2 9400  10.868   4.666  10.374
 2523SOL     OW 9401   3.775   4.090   0.589
 2523SOL    HW1 9402   3.861   4.062   0.558
 2523SOL    HW2 9403   3.764   4.046   0.673
 2524SOL     OW 9404  13.838  12.872   5.416
 2524SOL    HW1 9405  13.841  12.850   5.509
 2524SOL    HW2 9406  13.752  12.911   5.403
 2525SOL     OW 9407  10.491  12.913   7.250
 2525SOL    HW1 9408  10.443  12.943   7.173
 2525SOL    HW2 9409  10.435  12.845   7.288
 2526SOL     OW 9410  10.488   1.259   8.543
 2526SOL    HW1 9411  10.502   1.184   8.600
 2526SOL    HW2 9412  10.406   1.240   8.498
 2527SOL     OW 9413   9.456  11.849  14.229
 2527SOL    HW1 9414   9.456  11.932  14.278
 2527SOL    HW2 9415   9.365  11.839  14.201
 2528SOL     OW 9416  14.485  14.122  13.243
 2528SOL    HW1 9417  14.573  14.086  13.258
 2528SOL    HW2 9418  14.500  14.194  13.181
 2529SOL     OW 9419  12.836   8.686   9.001
 2529SOL    HW1 9420  12.841   8.658   9.092
 2529SOL    HW2 9421  12.792   8.770   9.004
 2530SOL     OW 9422   3.297   0.390   8.226
 2530SOL    HW1 9423   3.204   0.372   8.215
 2530SOL    HW2 9424   3.340   0.335   8.161
 2531SOL     OW 9425  13.030  14.110   0.635
 2531SOL    HW1 9426  13.028  14.084   0.543
 2531SOL    HW2 9427  13.119  14.092   0.664
 2532SOL     OW 9428   4.348   2.962   5.667
 2532SOL    HW1 9429   4.275   3.008   5.708
 2532SOL    HW2 9430   4.327   2.961   5.574
 2533SOL     OW 9431   0.381   2.430  11.008
 2533SOL    HW1 9432   0.378   2.500  11.072
 2533SOL    HW2 9433   0.303   2.443  10.954
 2534SOL     OW 9434   7.950   0.221  11.083
 2534SOL    HW1 9435   7.959   0.129  11.106
 2534SOL    HW2 9436   8.029   0.242  11.034
 2535SOL     OW 9437   2.727   2.639  12.886
 2535SOL    HW1 9438   2.788   2.576  12.849
 2535SOL    HW2 9439   2.764   2.725  12.863
 2536SOL     OW 9440  13.280   5.153   4.618
 2536SOL    HW1 9441  13.336   5.098   4.564
 2536SOL    HW2 9442  13.212   5.184   4.558
 2537SOL     OW 9443   7.652   1.217  12.592
 2537SOL    HW1 9444   7.575   1.178  12.632
 2537SOL    HW2 9445   7.649   1.187  12.500
 2538SOL     OW 9446  12.713  11.836  11.092
 2538SOL    HW1 9447  12.699  11.906  11.029
 2538SOL    HW2 9448  12.789  11.788  11.059
 2539SOL     OW 9449   8.011   8.800   4.075
 2539SOL    HW1 9450   8.095   8.794   4.029
 2539SOL    HW2 9451   7.947   8.820   4.007
 2540SOL     OW 9452  12.766   5.113  10.058
 2540SOL    HW1 9453  12.816   5.049  10.006
 2540SOL    HW2 9454  12.763   5.074  10.146
 2541SOL     OW 9455   5.047  12.193   5.368
 2541SOL    HW1 9456   4.971  12.239   5.329
 2541SOL    HW2 9457   5.112  12.193   5.298
 2542SOL     OW 9458  12.640   8.361   4.493
 2542SOL    HW1 9459  12.616   8.363   4.585
 2542SOL    HW2 9460  12.618   8.449   4.460
 2543SOL     OW 9461  13.709   6.829  10.120
 2543SOL    HW1 9462  13.642   6.761  10.129
 2543SOL    HW2 9463  13.745   6.838  10.209
 2544SOL     OW 9464  10.796  11.932  10.066
 2544SOL    HW1 9465  10.884  11.894  10.056
 2544SOL    HW2 9466  10.811  12.026  10.070
 2545SOL     OW 9467   1.606   1.455   2.641
 2545SOL    HW1 9468   1.666   1.380   2.646
 2545SOL    HW2 9469   1.577   1.455   2.549
 2546SOL     OW 9470  11.688   6.445   1.054
 2546SOL    HW1 9471  11.721   6.401   1.132
 2546SOL    HW2 9472  11.730   6.398   0.981
 2547SOL     OW 9473   2.781  13.909   7.300
 2547SOL    HW1 9474   2.874  13.928   7.307
 2547SOL    HW2 9475   2.752  13.895   7.390
 2548SOL     OW 9476   6.330   2.644   1.820
 2548SOL    HW1 9477   6.237   2.652   1.843
 2548SOL    HW2 9478   6.374   2.711   1.872
 2549SOL     OW 9479   4.666   7.668   7.654
 2549SOL    HW1 9480   4.610   7.670   7.576
 2549SOL    HW2 9481   4.651   7.753   7.696
 2550SOL     OW 9482   3.123   8.647   6.820
 2550SOL    HW1 9483   3.192   8.643   6.885
 2550SOL    HW2 9484   3.123   8.559   6.780
 2551SOL     OW 9485   6.777   0.766   6.843
 2551SOL    HW1 9486   6.692   0.775   6.800
 2551SOL    HW2 9487   6.756   0.736   6.931
 2552SOL     OW 9488   0.957  12.089   2.713
 2552SOL    HW1 9489   0.910  12.171   2.729
 2552SOL    HW2 9490   0.902  12.021   2.754
 2553SOL     OW 9491  12.349   1.541   6.375
 2553SOL    HW1 9492  12.357   1.573   6.465
 2553SOL    HW2 9493  12.297   1.461   6.382
 2554SOL     OW 9494   1.244   3.157   6.592
 2554SOL    HW1 9495   1.260   3.102   6.668
 2554SOL    HW2 9496   1.195   3.232   6.626
 2555SOL     OW 9497   4.957   2.655  13.321
 2555SOL    HW1 9498   4.881   2.662  13.263
 2555SOL    HW2 9499   5.017   2.596  13.276
 2556SOL     OW 9500   4.065  13.049  12.991
 2556SOL    HW1 9501   3.973  13.069  12.976
 2556SOL    HW2 9502   4.112  13.121  12.950
 2557SOL     OW 9503   8.780   0.059   5.951
 2557SOL    HW1 9504   8.781   0.092   6.041
 2557SOL    HW2 9505   8.694   0.082   5.918
 2558SOL     OW 9506   4.133   0.189  12.382
 2558SOL    HW1 9507   4.126   0.094  12.380
 2558SOL    HW2 9508   4.226   0.207  12.369
 2559SOL     OW 9509   0.091   0.767   0.906
 2559SOL    HW1 9510   0.173   0.719   0.893
 2559SOL    HW2 9511   0.100   0.807   0.993
 2560SOL     OW 9512  10.663   1.906   2.989
 2560SOL    HW1 9513  10.740   1.862   3.023
 2560SOL    HW2 9514  10.694   1.950   2.910
 2561SOL     OW 9515  10.431  14.861   0.337
 2561SOL    HW1 9516  10.480  14.779   0.334
 2561SOL    HW2 9517  10.428   0.011   0.430
 2562SOL     OW 9518   8.888   7.606   2.077
 2562SOL    HW1 9519   8.853   7.520   2.099
 2562SOL    HW2 9520   8.983   7.596   2.081
 2563SOL     OW 9521  14.266   8.375   5.404
 2563SOL    HW1 9522  14.188   8.354   5.353
 2563SOL    HW2 9523  14.240   8.450   5.458
 2564SOL     OW 9524   0.336  13.470  13.259
 2564SOL    HW1 9525   0.327  13.506  13.171
 2564SOL    HW2 9526   0.409  13.409  13.252
 2565SOL     OW 9527  14.821   9.612  14.493
 2565SOL    HW1 9528   0.014   9.680  14.511
 2565SOL    HW2 9529  14.789   9.634  14.406
 2566SOL     OW 9530   7.944  13.226   1.825
 2566SOL    HW1 9531   7.937  13.180   1.741
 2566SOL    HW2 9532   8.020  13.187   1.867
 2567SOL     OW 9533   9.530   7.201   4.286
 2567SOL    HW1 9534   9.614   7.157   4.298
 2567SOL    HW2 9535   9.465   7.140   4.322
 2568SOL     OW 9536  12.485   8.729   3.331
 2568SOL    HW1 9537  12.452   8.661   3.390
 2568SOL    HW2 9538  12.411   8.750   3.274
 2569SOL     OW 9539   7.594   5.210   3.907
 2569SOL    HW1 9540   7.539   5.213   3.986
 2569SOL    HW2 9541   7.532   5.205   3.835
 2570SOL     OW 9542   2.806   2.824  13.785
 2570SOL    HW1 9543   2.849   2.871  13.713
 2570SOL    HW2 9544   2.768   2.892  13.840
 2571SOL     OW 9545   4.120   4.774   1.427
 2571SOL    HW1 9546   4.117   4.783   1.332
 2571SOL    HW2 9547   4.207   4.804   1.452
 2572SOL     OW 9548   1.235   0.873   8.487
 2572SOL    HW1 9549   1.222   0.791   8.439
 2572SOL    HW2 9550   1.253   0.938   8.420
 2573SOL     OW 9551   4.287  14.487   4.214
 2573SOL    HW1 9552   4.352  14.455   4.276
 2573SOL    HW2 9553   4.338  14.522   4.142
 2574SOL     OW 9554   6.933   8.137   5.163
 2574SOL    HW1 9555   6.955   8.061   5.110
 2574SOL    HW2 9556   6.844   8.119   5.194
 2575SOL     OW 9557   9.671  12.866   3.227
 2575SOL    HW1 9558   9.710  12.804   3.166
 2575SOL    HW2 9559   9.643  12.812   3.301
 2576SOL     OW 9560   7.846   6.169   8.273
 2576SOL    HW1 9561   7.842   6.176   8.369
 2576SOL    HW2 9562   7.920   6.224   8.249
 2577SOL     OW 9563   9.665  13.350   6.730
 2577SOL    HW1 9564   9.584  13.400   6.724
 2577SOL    HW2 9565   9.715  13.375   6.652
 2578SOL     OW 9566   7.498   4.073   8.684
 2578SOL    HW1 9567   7.440   4.130   8.734
 2578SOL    HW2 9568   7.553   4.132   8.633
 2579SOL     OW 9569  11.913  14.287  14.087
 2579SOL    HW1 9570  11.888  14.375  14.061
 2579SOL    HW2 9571  11.846  14.230  14.048
 2580SOL     OW 9572   8.755   1.289   1.028
 2580SOL    HW1 9573   8.703   1.290   1.108
 2580SOL    HW2 9574   8.786   1.379   1.019
 2581SOL     OW 9575  13.454  11.309   9.966
 2581SOL    HW1 9576  13.545  11.290   9.987
 2581SOL    HW2 9577  13.404  11.238  10.005
 2582SOL     OW 9578  12.532  11.565   6.673
 2582SOL    HW1 9579  12.554  11.559   6.766
 2582SOL    HW2 9580  12.615  11.553   6.627
 2583SOL     OW 9581   1.284  11.489  14.539
 2583SOL    HW1 9582   1.289  11.395  14.553
 2583SOL    HW2 9583   1.288  11.528  14.626
 2584SOL     OW 9584   9.899   9.567  12.023
 2584SOL    HW1 9585   9.813   9.527  12.013
 2584SOL    HW2 9586   9.931   9.535  12.107
 2585SOL     OW 9587  13.140   7.801  11.042
 2585SOL    HW1 9588  13.209   7.865  11.023
 2585SOL    HW2 9589  13.097   7.787  10.957
 2586SOL     OW 9590   9.492  10.447  11.218
 2586SOL    HW1 9591   9.455  10.497  11.145
 2586SOL    HW2 9592   9.579  10.484  11.230
 2587SOL     OW 9593  11.868   2.285  11.394
 2587SOL    HW1 9594  11.883   2.370  11.351
 2587SOL    HW2 9595  11.904   2.296  11.481
 2588SOL     OW 9596   9.112   1.478   2.538
 2588SOL    HW1 9597   9.139   1.567   2.558
 2588SOL    HW2 9598   9.188   1.424   2.560
 2589SOL     OW 9599  14.822  13.853   4.504
 2589SOL    HW1 9600  14.735  13.854   4.464
 2589SOL    HW2 9601  14.860  13.937   4.480
 2590SOL     OW 9602  12.498   7.102  13.102
 2590SOL    HW1 9603  12.548   7.184  13.092
 2590SOL    HW2 9604  12.555   7.035  13.064
 2591SOL     OW 9605   4.197   4.263   4.871
 2591SOL    HW1 9606   4.236   4.216   4.797
 2591SOL    HW2 9607   4.187   4.353   4.840
 2592SOL     OW 9608  11.867   1.064  13.200
 2592SOL    HW1 9609  11.807   1.131  13.171
 2592SOL    HW2 9610  11.929   1.054  13.128
 2593SOL     OW 9611   5.304  12.274  11.638
 2593SOL    HW1 9612   5.300  12.194  11.586
 2593SOL    HW2 9613   5.251  12.255  11.715
 2594SOL     OW 9614   2.389  14.403  12.486
 2594SOL    HW1 9615   2.353  14.451  12.412
 2594SOL    HW2 9616   2.325  14.334  12.503
 2595SOL     OW 9617   6.061   0.737   9.707
 2595SOL    HW1 9618   6.042   0.829   9.725
 2595SOL    HW2 9619   5.977   0.701   9.677
 2596SOL     OW 9620   1.705  10.954   7.509
 2596SOL    HW1 9621   1.796  10.943   7.537
 2596SOL    HW2 9622   1.684  10.872   7.464
 2597SOL     OW 9623   4.124  11.809   4.204
 2597SOL    HW1 9624   4.101  11.900   4.184
 2597SOL    HW2 9625   4.049  11.758   4.174
 2598SOL     OW 9626   4.673  13.832   7.106
 2598SOL    HW1 9627   4.595  13.795   7.149
 2598SOL    HW2 9628   4.700  13.903   7.164
 2599SOL     OW 9629   5.144  13.843   9.826
 2599SOL    HW1 9630   5.185  13.884   9.903
 2599SOL    HW2 9631   5.182  13.755   9.824
 2600SOL     OW 9632   0.383   2.759  13.921
 2600SOL    HW1 9633   0.337   2.675  13.923
 2600SOL    HW2 9634   0.314   2.824  13.932
 2601SOL     OW 9635   7.952   8.725   3.476
 2601SOL    HW1 9636   7.873   8.741   3.528
 2601SOL    HW2 9637   8.018   8.782   3.516
 2602SOL     OW 9638   2.646   2.015  12.120
 2602SOL    HW1 9639   2.554   2.014  12.145
 2602SOL    HW2 9640   2.668   2.108  12.111
 2603SOL     OW 9641   7.805  14.443   5.614
 2603SOL    HW1 9642   7.848  14.384   5.675
 2603SOL    HW2 9643   7.845  14.424   5.529
 2604SOL     OW 9644   2.916  13.366   7.174
 2604SOL    HW1 9645   2.956  13.283   7.149
 2604SOL    HW2 9646   2.942  13.378   7.265
 2605SOL     OW 9647  12.186   5.856   1.005
 2605SOL    HW1 9648  12.162   5.775   1.050
 2605SOL    HW2 9649  12.224   5.911   1.074
 2606SOL     OW 9650  13.659   2.785  10.290
 2606SOL    HW1 9651  13.639   2.770  10.383
 2606SOL    HW2 9652  13.721   2.858  10.291
 2607SOL     OW 9653  12.870   4.890   7.878
 2607SOL    HW1 9654  12.848   4.940   7.799
 2607SOL    HW2 9655  12.787   4.877   7.922
 2608SOL     OW 9656   0.014  10.472  13.756
 2608SOL    HW1 9657   0.065  10.550  13.774
 2608SOL    HW2 9658   0.055  10.434  13.678
 2609SOL     OW 9659  10.261  12.533   3.759
 2609SOL    HW1 9660  10.229  12.452   3.799
 2609SOL    HW2 9661  10.185  12.569   3.714
 2610SOL     OW 9662   8.690   8.014  14.287
 2610SOL    HW1 9663   8.648   8.083  14.235
 2610SOL    HW2 9664   8.624   7.991  14.352
 2611SOL     OW 9665   6.295   0.033  11.163
 2611SOL    HW1 9666   6.332   0.116  11.192
 2611SOL    HW2 9667   6.364  14.841  11.181
 2612SOL     OW 9668  12.171  12.638   2.264
 2612SOL    HW1 9669  12.148  12.693   2.339
 2612SOL    HW2 9670  12.107  12.661   2.197
 2613SOL     OW 9671   1.296  13.979  10.751
 2613SOL    HW1 9672   1.317  13.890  10.723
 2613SOL    HW2 9673   1.290  14.029  10.669
 2614SOL     OW 9674  14.629   0.609  13.678
 2614SOL    HW1 9675  14.573   0.680  13.647
 2614SOL    HW2 9676  14.716   0.650  13.687
 2615SOL     OW 9677  10.068   8.397   2.844
 2615SOL    HW1 9678  10.019   8.459   2.790
 2615SOL    HW2 9679  10.135   8.449   2.887
 2616SOL     OW 9680  10.244  11.455   5.912
 2616SOL    HW1 9681  10.170  11.395   5.899
 2616SOL    HW2 9682  10.236  11.519   5.841
 2617SOL     OW 9683   3.610   8.842  12.845
 2617SOL    HW1 9684   3.630   8.860  12.753
 2617SOL    HW2 9685   3.655   8.760  12.864
 2618SOL     OW 9686  11.255   1.544   7.041
 2618SOL    HW1 9687  11.340   1.572   7.074
 2618SOL    HW2 9688  11.274   1.461   6.996
 2619SOL     OW 9689   5.071   9.153   8.725
 2619SOL    HW1 9690   5.032   9.080   8.773
 2619SOL    HW2 9691   5.075   9.225   8.788
 2620SOL     OW 9692   4.261   5.140  11.096
 2620SOL    HW1 9693   4.312   5.219  11.113
 2620SOL    HW2 9694   4.264   5.091  11.178
 2621SOL     OW 9695   0.736  14.205  11.768
 2621SOL    HW1 9696   0.740  14.296  11.795
 2621SOL    HW2 9697   0.828  14.180  11.755
 2622SOL     OW 9698   6.185  10.886   2.477
 2622SOL    HW1 9699   6.178  10.802   2.523
 2622SOL    HW2 9700   6.222  10.946   2.543
 2623SOL     OW 9701   8.238   9.119   8.440
 2623SOL    HW1 9702   8.185   9.074   8.375
 2623SOL    HW2 9703   8.304   9.055   8.466
 2624SOL     OW 9704  13.837   2.552  10.176
 2624SOL    HW1 9705  13.875   2.633  10.211
 2624SOL    HW2 9706  13.810   2.503  10.254
 2625SOL     OW 9707  11.481  12.487   7.972
 2625SOL    HW1 9708  11.534  12.545   8.026
 2625SOL    HW2 9709  11.402  12.538   7.953
 2626SOL     OW 9710   9.866   5.771  13.915
 2626SOL    HW1 9711   9.914   5.806  13.990
 2626SOL    HW2 9712   9.923   5.788  13.840
 2627SOL     OW 9713   9.500  12.924   8.320
 2627SOL    HW1 9714   9.568  12.859   8.304
 2627SOL    HW2 9715   9.518  12.994   8.257
 2628SOL     OW 9716  14.517   6.609   7.981
 2628SOL    HW1 9717  14.481   6.575   7.900
 2628SOL    HW2 9718  14.571   6.683   7.954
 2629SOL     OW 9719   8.002  10.680   0.498
 2629SOL    HW1 9720   8.020  10.702   0.589
 2629SOL    HW2 9721   7.937  10.610   0.502
 2630SOL     OW 9722  10.394   1.760   7.160
 2630SOL    HW1 9723  10.465   1.706   7.125
 2630SOL    HW2 9724  10.404   1.756   7.255
 2631SOL     OW 9725   8.651   0.112   0.388
 2631SOL    HW1 9726   8.642   0.192   0.439
 2631SOL    HW2 9727   8.646   0.041   0.453
 2632SOL     OW 9728   0.678  10.439   6.276
 2632SOL    HW1 9729   0.759  10.467   6.319
 2632SOL    HW2 9730   0.693  10.456   6.183
 2633SOL     OW 9731  12.718   6.011  11.008
 2633SOL    HW1 9732  12.705   5.966  10.925
 2633SOL    HW2 9733  12.674   5.956  11.073
 2634SOL     OW 9734   0.147   8.633  11.123
 2634SOL    HW1 9735   0.114   8.550  11.157
 2634SOL    HW2 9736   0.069   8.679  11.093
 2635SOL     OW 9737   7.052   7.900  14.573
 2635SOL    HW1 9738   7.016   7.986  14.555
 2635SOL    HW2 9739   7.146   7.910  14.558
 2636SOL     OW 9740   4.397   0.921  12.582
 2636SOL    HW1 9741   4.377   0.940  12.673
 2636SOL    HW2 9742   4.319   0.948  12.533
 2637SOL     OW 9743  11.645   2.486   3.170
 2637SOL    HW1 9744  11.735   2.512   3.149
 2637SOL    HW2 9745  11.614   2.553   3.231
 2638SOL     OW 9746  14.178  13.802   0.221
 2638SOL    HW1 9747  14.225  13.782   0.303
 2638SOL    HW2 9748  14.247  13.816   0.157
 2639SOL     OW 9749   4.141  10.007   8.233
 2639SOL    HW1 9750   4.099  10.015   8.319
 2639SOL    HW2 9751   4.210   9.942   8.246
 2640SOL     OW 9752   8.456  11.828   4.902
 2640SOL    HW1 9753   8.462  11.908   4.954
 2640SOL    HW2 9754   8.512  11.845   4.826
 2641SOL     OW 9755   4.694   0.343   0.720
 2641SOL    HW1 9756   4.767   0.281   0.718
 2641SOL    HW2 9757   4.700   0.388   0.635
 2642SOL     OW 9758   2.622  14.184  14.273
 2642SOL    HW1 9759   2.544  14.147  14.314
 2642SOL    HW2 9760   2.686  14.113  14.276
 2643SOL     OW 9761   7.666   2.536   0.850
 2643SOL    HW1 9762   7.634   2.539   0.760
 2643SOL    HW2 9763   7.734   2.468   0.850
 2644SOL     OW 9764   9.004   0.344   5.323
 2644SOL    HW1 9765   9.018   0.436   5.343
 2644SOL    HW2 9766   9.090   0.303   5.337
 2645SOL     OW 9767  14.102  14.272   5.923
 2645SOL    HW1 9768  14.031  14.227   5.969
 2645SOL    HW2 9769  14.164  14.295   5.992
 2646SOL     OW 9770   9.694   3.921   3.907
 2646SOL    HW1 9771   9.622   3.956   3.959
 2646SOL    HW2 9772   9.651   3.875   3.835
 2647SOL     OW 9773   7.290   8.602   9.019
 2647SOL    HW1 9774   7.271   8.581   8.928
 2647SOL    HW2 9775   7.299   8.517   9.062
 2648SOL     OW 9776   8.888  10.149   1.933
 2648SOL    HW1 9777   8.900  10.093   1.856
 2648SOL    HW2 9778   8.958  10.213   1.927
 2649SOL     OW 9779   2.170   2.876   9.009
 2649SOL    HW1 9780   2.181   2.855   8.917
 2649SOL    HW2 9781   2.151   2.969   9.012
 2650SOL     OW 9782   0.442   1.507   9.648
 2650SOL    HW1 9783   0.507   1.486   9.715
 2650SOL    HW2 9784   0.427   1.424   9.602
 2651SOL     OW 9785   6.260   3.847   8.468
 2651SOL    HW1 9786   6.230   3.830   8.379
 2651SOL    HW2 9787   6.333   3.786   8.481
 2652SOL     OW 9788   3.183   9.294  10.814
 2652SOL    HW1 9789   3.103   9.294  10.762
 2652SOL    HW2 9790   3.195   9.385  10.839
 2653SOL     OW 9791   8.932   2.301  13.262
 2653SOL    HW1 9792   8.876   2.232  13.296
 2653SOL    HW2 9793   8.893   2.324  13.177
 2654SOL     OW 9794   4.585  10.445   2.699
 2654SOL    HW1 9795   4.523  10.376   2.724
 2654SOL    HW2 9796   4.530  10.514   2.661
 2655SOL     OW 9797   8.737   3.304   2.962
 2655SOL    HW1 9798   8.702   3.235   3.017
 2655SOL    HW2 9799   8.801   3.261   2.906
 2656SOL     OW 9800   4.551   2.888  13.294
 2656SOL    HW1 9801   4.633   2.928  13.322
 2656SOL    HW2 9802   4.483   2.950  13.321
 2657SOL     OW 9803   0.926   8.983   4.555
 2657SOL    HW1 9804   0.933   9.059   4.613
 2657SOL    HW2 9805   0.991   9.000   4.487
 2658SOL     OW 9806   1.905   0.239  11.604
 2658SOL    HW1 9807   1.904   0.272  11.514
 2658SOL    HW2 9808   1.989   0.194  11.613
 2659SOL     OW 9809   0.309   5.347   4.507
 2659SOL    HW1 9810   0.366   5.371   4.434
 2659SOL    HW2 9811   0.249   5.422   4.517
 2660SOL     OW 9812   9.209   0.724  11.187
 2660SOL    HW1 9813   9.235   0.749  11.276
 2660SOL    HW2 9814   9.115   0.742  11.183
 2661SOL     OW 9815  12.051   2.144   7.340
 2661SOL    HW1 9816  12.139   2.177   7.320
 2661SOL    HW2 9817  11.995   2.186   7.275
 2662SOL     OW 9818   7.102   5.406   9.841
 2662SOL    HW1 9819   7.176   5.463   9.865
 2662SOL    HW2 9820   7.112   5.394   9.746
 2663SOL     OW 9821   5.090   5.092  11.528
 2663SOL    HW1 9822   5.127   5.173  11.561
 2663SOL    HW2 9823   5.139   5.073  11.448
 2664SOL     OW 9824  13.442  10.174   6.702
 2664SOL    HW1 9825  13.500  10.221   6.641
 2664SOL    HW2 9826  13.382  10.125   6.645
 2665SOL     OW 9827   4.030  11.948   4.561
 2665SOL    HW1 9828   4.109  11.939   4.614
 2665SOL    HW2 9829   4.057  11.921   4.473
 2666SOL     OW 9830  11.507   8.913   8.562
 2666SOL    HW1 9831  11.535   8.854   8.632
 2666SOL    HW2 9832  11.435   8.962   8.600
 2667SOL     OW 9833   0.490  14.321   1.188
 2667SOL    HW1 9834   0.419  14.273   1.146
 2667SOL    HW2 9835   0.568  14.298   1.137
 2668SOL     OW 9836  10.776   5.739  10.952
 2668SOL    HW1 9837  10.736   5.789  10.881
 2668SOL    HW2 9838  10.832   5.675  10.907
 2669SOL     OW 9839   4.615   7.882   8.752
 2669SOL    HW1 9840   4.610   7.951   8.686
 2669SOL    HW2 9841   4.694   7.833   8.730
 2670SOL     OW 9842   4.015  14.004   0.113
 2670SOL    HW1 9843   4.107  13.980   0.097
 2670SOL    HW2 9844   3.977  14.009   0.025
 2671SOL     OW 9845   2.160  14.646   4.602
 2671SOL    HW1 9846   2.078  14.596   4.604
 2671SOL    HW2 9847   2.189  14.641   4.510
 2672SOL     OW 9848   7.772   8.560   6.638
 2672SOL    HW1 9849   7.760   8.494   6.706
 2672SOL    HW2 9850   7.844   8.615   6.669
 2673SOL     OW 9851   0.962   8.157   3.121
 2673SOL    HW1 9852   0.981   8.250   3.130
 2673SOL    HW2 9853   1.046   8.114   3.138
 2674SOL     OW 9854  13.353  14.665   5.195
 2674SOL    HW1 9855  13.396  14.585   5.225
 2674SOL    HW2 9856  13.300  14.638   5.121
 2675SOL     OW 9857   7.055   7.515   9.774
 2675SOL    HW1 9858   6.991   7.585   9.756
 2675SOL    HW2 9859   7.002   7.435   9.775
 2676SOL     OW 9860   5.139   6.691   4.745
 2676SOL    HW1 9861   5.220   6.697   4.695
 2676SOL    HW2 9862   5.142   6.766   4.805
 2677SOL     OW 9863   2.561   2.721   8.639
 2677SOL    HW1 9864   2.596   2.803   8.605
 2677SOL    HW2 9865   2.638   2.673   8.671
 2678SOL     OW 9866   4.655  12.631   5.957
 2678SOL    HW1 9867   4.660  12.718   5.996
 2678SOL    HW2 9868   4.739  12.620   5.911
 2679SOL     OW 9869  12.148   0.854  14.043
 2679SOL    HW1 9870  12.188   0.839  14.129
 2679SOL    HW2 9871  12.214   0.903  13.994
 2680SOL     OW 9872   0.045  10.573   7.096
 2680SOL    HW1 9873   0.032  10.666   7.075
 2680SOL    HW2 9874   0.084  10.536   7.017
 2681SOL     OW 9875   7.489   2.672   7.423
 2681SOL    HW1 9876   7.504   2.755   7.468
 2681SOL    HW2 9877   7.574   2.651   7.383
 2682SOL     OW 9878   9.394   3.556   3.770
 2682SOL    HW1 9879   9.441   3.474   3.782
 2682SOL    HW2 9880   9.310   3.531   3.733
 2683SOL     OW 9881  10.178  10.066  13.928
 2683SOL    HW1 9882  10.249  10.083  13.990
 2683SOL    HW2 9883  10.208   9.990  13.878
 2684SOL     OW 9884   5.069  13.551   3.671
 2684SOL    HW1 9885   5.025  13.521   3.751
 2684SOL    HW2 9886   5.155  13.580   3.701
 2685SOL     OW 9887  13.457  12.817  13.413
 2685SOL    HW1 9888  13.525  12.790  13.352
 2685SOL    HW2 9889  13.381  12.764  13.391
 2686SOL     OW 9890  10.906   2.321  10.210
 2686SOL    HW1 9891  10.894   2.290  10.300
 2686SOL    HW2 9892  10.959   2.401  10.219
 2687SOL     OW 9893   4.977  12.577   0.244
 2687SOL    HW1 9894   4.926  12.646   0.287
 2687SOL    HW2 9895   5.032  12.624   0.181
 2688SOL     OW 9896   3.156  13.140   2.862
 2688SOL    HW1 9897   3.211  13.187   2.925
 2688SOL    HW2 9898   3.067  13.161   2.889
 2689SOL     OW 9899   3.680   4.178  12.700
 2689SOL    HW1 9900   3.660   4.084  12.693
 2689SOL    HW2 9901   3.637   4.206  12.780
 2690SOL     OW 9902  13.039   3.655   9.806
 2690SOL    HW1 9903  13.035   3.748   9.782
 2690SOL    HW2 9904  12.947   3.630   9.821
 2691SOL     OW 9905  11.468   8.044   9.739
 2691SOL    HW1 9906  11.476   8.044   9.835
 2691SOL    HW2 9907  11.382   8.004   9.722
 2692SOL     OW 9908   0.070  12.334   7.551
 2692SOL    HW1 9909   0.102  12.421   7.573
 2692SOL    HW2 9910   0.014  12.310   7.625
 2693SOL     OW 9911   9.404   5.384   1.904
 2693SOL    HW1 9912   9.449   5.320   1.960
 2693SOL    HW2 9913   9.329   5.412   1.956
 2694SOL     OW 9914  14.155   4.103   4.587
 2694SOL    HW1 9915  14.078   4.156   4.563
 2694SOL    HW2 9916  14.134   4.067   4.673
 2695SOL     OW 9917  10.726   0.057   2.321
 2695SOL    HW1 9918  10.802   0.003   2.343
 2695SOL    HW2 9919  10.761   0.127   2.266
 2696SOL     OW 9920  10.802  11.481  14.873
 2696SOL    HW1 9921  10.842  11.397   0.020
 2696SOL    HW2 9922  10.822  11.536   0.075
 2697SOL     OW 9923   3.765   0.024   2.473
 2697SOL    HW1 9924   3.779   0.118   2.475
 2697SOL    HW2 9925   3.696   0.008   2.537
 2698SOL     OW 9926  13.077   2.116  13.568
 2698SOL    HW1 9927  13.168   2.096  13.588
 2698SOL    HW2 9928  13.041   2.033  13.536
 2699SOL     OW 9929  10.460   8.087   2.857
 2699SOL    HW1 9930  10.497   8.109   2.772
 2699SOL    HW2 9931  10.456   7.991   2.858
 2700SOL     OW 9932   5.739   2.328   8.254
 2700SOL    HW1 9933   5.702   2.295   8.171
 2700SOL    HW2 9934   5.712   2.419   8.257
 2701SOL     OW 9935  14.412   8.149   0.822
 2701SOL    HW1 9936  14.356   8.168   0.897
 2701SOL    HW2 9937  14.448   8.063   0.839
 2702SOL     OW 9938  12.987   6.254   3.136
 2702SOL    HW1 9939  12.891   6.263   3.136
 2702SOL    HW2 9940  13.001   6.159   3.142
 2703SOL     OW 9941   3.485  10.904  10.530
 2703SOL    HW1 9942   3.475  10.873  10.620
 2703SOL    HW2 9943   3.478  10.825  10.477
 2704SOL     OW 9944   1.012  11.138   9.130
 2704SOL    HW1 9945   0.946  11.173   9.069
 2704SOL    HW2 9946   0.964  11.126   9.212
 2705SOL     OW 9947   5.194   7.315  10.920
 2705SOL    HW1 9948   5.228   7.404  10.923
 2705SOL    HW2 9949   5.232   7.272  10.996
 2706SOL     OW 9950   4.222  10.683   7.363
 2706SOL    HW1 9951   4.309  10.723   7.366
 2706SOL    HW2 9952   4.213  10.638   7.447
 2707SOL     OW 9953  13.285   2.751   7.820
 2707SOL    HW1 9954  13.225   2.735   7.746
 2707SOL    HW2 9955  13.227   2.760   7.896
 2708SOL     OW 9956   5.529   8.866  11.122
 2708SOL    HW1 9957   5.469   8.851  11.049
 2708SOL    HW2 9958   5.485   8.826  11.197
 2709SOL     OW 9959  11.749  11.145   8.467
 2709SOL    HW1 9960  11.746  11.144   8.372
 2709SOL    HW2 9961  11.672  11.197   8.493
 2710SOL     OW 9962   6.713  10.663   9.460
 2710SOL    HW1 9963   6.741  10.573   9.441
 2710SOL    HW2 9964   6.766  10.690   9.535
 2711SOL     OW 9965  11.826  10.004  11.126
 2711SOL    HW1 9966  11.919  10.001  11.105
 2711SOL    HW2 9967  11.795  10.085  11.087
 2712SOL     OW 9968   9.075   2.655   4.199
 2712SOL    HW1 9969   9.015   2.714   4.153
 2712SOL    HW2 9970   9.092   2.698   4.282
 2713SOL     OW 9971  14.755  13.447   2.741
 2713SOL    HW1 9972  14.705  13.513   2.789
 2713SOL    HW2 9973  14.720  13.363   2.773
 2714SOL     OW 9974  12.713   6.984  12.605
 2714SOL    HW1 9975  12.740   7.074  12.622
 2714SOL    HW2 9976  12.787   6.931  12.634
 2715SOL     OW 9977   6.267   5.948   2.577
 2715SOL    HW1 9978   6.303   5.987   2.656
 2715SOL    HW2 9979   6.336   5.961   2.511
 2716SOL     OW 9980  13.993  13.496   3.038
 2716SOL    HW1 9981  14.054  13.464   2.971
 2716SOL    HW2 9982  13.999  13.591   3.033
 2717SOL     OW 9983   1.378  13.312  10.254
 2717SOL    HW1 9984   1.444  13.372  10.288
 2717SOL    HW2 9985   1.373  13.331  10.161
 2718SOL     OW 9986   9.137  11.943   5.441
 2718SOL    HW1 9987   9.095  11.914   5.360
 2718SOL    HW2 9988   9.137  12.039   5.435
 2719SOL     OW 9989  12.810   9.185   3.088
 2719SOL    HW1 9990  12.806   9.100   3.132
 2719SOL    HW2 9991  12.853   9.167   3.005
 2720SOL     OW 9992  11.957   8.744  13.003
 2720SOL    HW1 9993  11.958   8.650  12.987
 2720SOL    HW2 9994  11.942   8.753  13.097
 2721SOL     OW 9995   8.600  10.550   3.467
 2721SOL    HW1 9996   8.606  10.639   3.502
 2721SOL    HW2 9997   8.668  10.545   3.400
 2722SOL     OW 9998   4.778  10.915   0.593
 2722SOL    HW1 9999   4.816  10.829   0.574
 2722SOL    HW210000   4.686  10.907   0.568
 2723SOL     OW10001  10.972   4.858   9.648
 2723SOL    HW110002  10.974   4.845   9.743
 2723SOL    HW210003  11.054   4.820   9.617
 2724SOL     OW10004  11.124   3.395  11.170
 2724SOL    HW110005  11.174   3.452  11.228
 2724SOL    HW210006  11.179   3.385  11.093
 2725SOL     OW10007   0.872   0.862   8.523
 2725SOL    HW110008   0.859   0.835   8.432
 2725SOL    HW210009   0.899   0.954   8.516
 2726SOL     OW10010  13.140   6.548   1.907
 2726SOL    HW110011  13.181   6.513   1.828
 2726SOL    HW210012  13.122   6.640   1.885
 2727SOL     OW10013  14.701   8.444   4.415
 2727SOL    HW110014  14.606   8.438   4.405
 2727SOL    HW210015  14.716   8.416   4.505
 2728SOL     OW10016  11.006  10.822  10.741
 2728SOL    HW110017  11.039  10.830  10.830
 2728SOL    HW210018  11.058  10.883  10.689
 2729SOL     OW10019  11.903   5.534   9.791
 2729SOL    HW110020  11.833   5.529   9.855
 2729SOL    HW210021  11.886   5.614   9.742
 2730SOL     OW10022   7.808   0.510  13.126
 2730SOL    HW110023   7.788   0.538  13.036
 2730SOL    HW210024   7.802   0.415  13.123
 2731SOL     OW10025   0.801   1.196  12.130
 2731SOL    HW110026   0.830   1.269  12.075
 2731SOL    HW210027   0.813   1.118  12.074
 2732SOL     OW10028  11.296   3.233   2.434
 2732SOL    HW110029  11.352   3.300   2.473
 2732SOL    HW210030  11.355   3.182   2.378
 2733SOL     OW10031   2.666  11.523   1.731
 2733SOL    HW110032   2.652  11.539   1.825
 2733SOL    HW210033   2.717  11.598   1.701
 2734SOL     OW10034   0.951   8.434   2.200
 2734SOL    HW110035   0.858   8.446   2.177
 2734SOL    HW210036   0.950   8.374   2.274
 2735SOL     OW10037   1.910   9.219   9.786
 2735SOL    HW110038   1.996   9.243   9.749
 2735SOL    HW210039   1.931   9.173   9.867
 2736SOL     OW10040   2.893   1.196   2.310
 2736SOL    HW110041   2.862   1.199   2.219
 2736SOL    HW210042   2.826   1.145   2.356
 2737SOL     OW10043   0.203  14.846   0.601
 2737SOL    HW110044   0.217   0.020   0.519
 2737SOL    HW210045   0.263  14.772   0.598
 2738SOL     OW10046   1.818   9.598  11.673
 2738SOL    HW110047   1.819   9.615  11.767
 2738SOL    HW210048   1.870   9.668  11.635
 2739SOL     OW10049   3.292  14.508   1.279
 2739SOL    HW110050   3.208  14.546   1.308
 2739SOL    HW210051   3.275  14.414   1.275
 2740SOL     OW10052  12.665   2.988   1.833
 2740SOL    HW110053  12.644   2.909   1.784
 2740SOL    HW210054  12.594   2.996   1.897
 2741SOL     OW10055   1.301   5.035   0.434
 2741SOL    HW110056   1.374   4.993   0.479
 2741SOL    HW210057   1.223   4.998   0.475
 2742SOL     OW10058   0.676   0.729  11.884
 2742SOL    HW110059   0.642   0.801  11.831
 2742SOL    HW210060   0.751   0.696  11.835
 2743SOL     OW10061   7.230   0.320  11.798
 2743SOL    HW110062   7.199   0.365  11.719
 2743SOL    HW210063   7.164   0.340  11.864
 2744SOL     OW10064   7.213   1.011  13.011
 2744SOL    HW110065   7.259   0.935  13.046
 2744SOL    HW210066   7.216   1.076  13.082
 2745SOL     OW10067  11.055   8.871  12.897
 2745SOL    HW110068  10.983   8.934  12.903
 2745SOL    HW210069  11.133   8.923  12.914
 2746SOL     OW10070   9.184   9.667  10.442
 2746SOL    HW110071   9.163   9.597  10.379
 2746SOL    HW210072   9.143   9.638  10.524
 2747SOL     OW10073   6.782  13.833   9.725
 2747SOL    HW110074   6.832  13.873   9.654
 2747SOL    HW210075   6.723  13.771   9.681
 2748SOL     OW10076  12.415   6.735   5.728
 2748SOL    HW110077  12.343   6.755   5.668
 2748SOL    HW210078  12.479   6.689   5.673
 2749SOL     OW10079   8.015  11.829  12.872
 2749SOL    HW110080   8.049  11.913  12.842
 2749SOL    HW210081   8.025  11.831  12.967
 2750SOL     OW10082   1.859   8.680  11.003
 2750SOL    HW110083   1.924   8.730  10.953
 2750SOL    HW210084   1.775   8.701  10.962
 2751SOL     OW10085  12.685   5.079   1.118
 2751SOL    HW110086  12.753   5.012   1.115
 2751SOL    HW210087  12.648   5.072   1.206
 2752SOL     OW10088   5.889   0.911   2.949
 2752SOL    HW110089   5.860   0.969   2.879
 2752SOL    HW210090   5.843   0.828   2.931
 2753SOL     OW10091   2.479   9.696  10.595
 2753SOL    HW110092   2.473   9.749  10.515
 2753SOL    HW210093   2.572   9.694  10.615
 2754SOL     OW10094   7.796   4.946  13.632
 2754SOL    HW110095   7.785   4.990  13.716
 2754SOL    HW210096   7.826   5.015  13.573
 2755SOL     OW10097   8.678  10.668   0.578
 2755SOL    HW110098   8.726  10.748   0.599
 2755SOL    HW210099   8.738  10.597   0.602
 2756SOL     OW10100   6.475  10.032   7.953
 2756SOL    HW110101   6.523  10.024   8.035
 2756SOL    HW210102   6.443  10.122   7.953
 2757SOL     OW10103   2.057   0.368   5.883
 2757SOL    HW110104   1.991   0.301   5.900
 2757SOL    HW210105   2.132   0.341   5.936
 2758SOL     OW10106   0.612   4.153  10.674
 2758SOL    HW110107   0.674   4.196  10.733
 2758SOL    HW210108   0.571   4.226  10.627
 2759SOL     OW10109  11.384   0.080   0.710
 2759SOL    HW110110  11.349   0.138   0.778
 2759SOL    HW210111  11.465   0.046   0.747
 2760SOL     OW10112   4.047   0.524   8.199
 2760SOL    HW110113   4.141   0.513   8.216
 2760SOL    HW210114   4.025   0.609   8.237
 2761SOL     OW10115   5.977   0.818  14.522
 2761SOL    HW110116   5.946   0.904  14.550
 2761SOL    HW210117   5.963   0.761  14.597
 2762SOL     OW10118   7.835   3.358  11.406
 2762SOL    HW110119   7.871   3.421  11.343
 2762SOL    HW210120   7.741   3.360  11.390
 2763SOL     OW10121  14.709   4.996   4.829
 2763SOL    HW110122  14.771   5.069   4.833
 2763SOL    HW210123  14.761   4.921   4.800
 2764SOL     OW10124  10.471   1.825   9.010
 2764SOL    HW110125  10.552   1.825   9.061
 2764SOL    HW210126  10.408   1.778   9.064
 2765SOL     OW10127   6.392  11.367   4.332
 2765SOL    HW110128   6.385  11.396   4.423
 2765SOL    HW210129   6.345  11.283   4.330
 2766SOL     OW10130  10.419   1.243   0.753
 2766SOL    HW110131  10.421   1.212   0.662
 2766SOL    HW210132  10.510   1.264   0.774
 2767SOL     OW10133   6.745  13.973   7.333
 2767SOL    HW110134   6.786  13.961   7.419
 2767SOL    HW210135   6.674  13.908   7.331
 2768SOL     OW10136   9.696   0.160  10.178
 2768SOL    HW110137   9.602   0.142  10.184
 2768SOL    HW210138   9.704   0.227  10.109
 2769SOL     OW10139  13.646  11.387   3.153
 2769SOL    HW110140  13.614  11.346   3.233
 2769SOL    HW210141  13.566  11.413   3.106
 2770SOL     OW10142  10.610   7.754   8.652
 2770SOL    HW110143  10.550   7.753   8.578
 2770SOL    HW210144  10.619   7.846   8.676
 2771SOL     OW10145   3.551   9.580  10.809
 2771SOL    HW110146   3.587   9.547  10.727
 2771SOL    HW210147   3.517   9.502  10.853
 2772SOL     OW10148  10.370   8.658  12.341
 2772SOL    HW110149  10.330   8.576  12.370
 2772SOL    HW210150  10.464   8.639  12.339
 2773SOL     OW10151   2.398   1.786   7.430
 2773SOL    HW110152   2.372   1.751   7.345
 2773SOL    HW210153   2.405   1.708   7.486
 2774SOL     OW10154   3.189  10.108   0.091
 2774SOL    HW110155   3.201  10.128  14.871
 2774SOL    HW210156   3.252  10.163   0.137
 2775SOL     OW10157   7.526  10.850  14.170
 2775SOL    HW110158   7.579  10.868  14.092
 2775SOL    HW210159   7.561  10.769  14.205
 2776SOL     OW10160   5.734   3.245  13.464
 2776SOL    HW110161   5.711   3.334  13.438
 2776SOL    HW210162   5.813   3.255  13.517
 2777SOL     OW10163  13.244   0.338   4.959
 2777SOL    HW110164  13.170   0.397   4.969
 2777SOL    HW210165  13.304   0.362   5.029
 2778SOL     OW10166  11.818   8.223   1.154
 2778SOL    HW110167  11.771   8.274   1.088
 2778SOL    HW210168  11.907   8.258   1.153
 2779SOL     OW10169  14.804   7.851   9.725
 2779SOL    HW110170  14.795   7.798   9.804
 2779SOL    HW210171  14.855   7.927   9.752
 2780SOL     OW10172  13.451  14.371  13.951
 2780SOL    HW110173  13.544  14.356  13.962
 2780SOL    HW210174  13.411  14.340  14.033
 2781SOL     OW10175   1.973   8.084   4.782
 2781SOL    HW110176   2.037   8.119   4.721
 2781SOL    HW210177   2.010   8.102   4.869
 2782SOL     OW10178  11.301  12.813   3.183
 2782SOL    HW110179  11.218  12.777   3.152
 2782SOL    HW210180  11.343  12.849   3.105
 2783SOL     OW10181  14.549   0.211  13.167
 2783SOL    HW110182  14.612   0.221  13.239
 2783SOL    HW210183  14.464   0.205  13.211
 2784SOL     OW10184  12.377   6.881   7.253
 2784SOL    HW110185  12.343   6.872   7.342
 2784SOL    HW210186  12.383   6.791   7.220
 2785SOL     OW10187   1.308  11.166   5.381
 2785SOL    HW110188   1.390  11.168   5.430
 2785SOL    HW210189   1.313  11.085   5.329
 2786SOL     OW10190   7.885   2.880   2.876
 2786SOL    HW110191   7.954   2.813   2.872
 2786SOL    HW210192   7.899   2.924   2.960
 2787SOL     OW10193  11.652  12.901   0.693
 2787SOL    HW110194  11.603  12.818   0.696
 2787SOL    HW210195  11.713  12.895   0.766
 2788SOL     OW10196   7.884  12.676   0.637
 2788SOL    HW110197   7.933  12.611   0.586
 2788SOL    HW210198   7.872  12.749   0.576
 2789SOL     OW10199   4.105  14.695   3.089
 2789SOL    HW110200   4.173  14.762   3.088
 2789SOL    HW210201   4.154  14.612   3.093
 2790SOL     OW10202  13.148   5.834   8.861
 2790SOL    HW110203  13.102   5.860   8.781
 2790SOL    HW210204  13.235   5.806   8.831
 2791SOL     OW10205   1.363   5.836   3.096
 2791SOL    HW110206   1.345   5.903   3.163
 2791SOL    HW210207   1.277   5.798   3.077
 2792SOL     OW10208   1.094   3.369   9.245
 2792SOL    HW110209   1.012   3.418   9.236
 2792SOL    HW210210   1.151   3.405   9.177
 2793SOL     OW10211  14.450   8.634   0.155
 2793SOL    HW110212  14.366   8.638   0.110
 2793SOL    HW210213  14.512   8.673   0.094
 2794SOL     OW10214  13.415   2.544   8.434
 2794SOL    HW110215  13.400   2.634   8.462
 2794SOL    HW210216  13.495   2.518   8.480
 2795SOL     OW10217  11.218   9.531  14.853
 2795SOL    HW110218  11.245   9.479  14.777
 2795SOL    HW210219  11.295   9.534   0.036
 2796SOL     OW10220  14.673   4.728   5.609
 2796SOL    HW110221  14.610   4.762   5.545
 2796SOL    HW210222  14.738   4.798   5.618
 2797SOL     OW10223   6.576  13.045  14.851
 2797SOL    HW110224   6.500  13.081   0.024
 2797SOL    HW210225   6.539  13.008  14.770
 2798SOL     OW10226  10.914  10.295   5.091
 2798SOL    HW110227  10.829  10.280   5.132
 2798SOL    HW210228  10.896  10.354   5.018
 2799SOL     OW10229  10.839  11.551  11.833
 2799SOL    HW110230  10.802  11.639  11.827
 2799SOL    HW210231  10.775  11.495  11.788
 2800SOL     OW10232   3.771   4.231  12.452
 2800SOL    HW110233   3.732   4.217  12.538
 2800SOL    HW210234   3.802   4.321  12.453
 2801SOL     OW10235   5.166   7.504   9.829
 2801SOL    HW110236   5.096   7.546   9.780
 2801SOL    HW210237   5.243   7.558   9.814
 2802SOL     OW10238   3.764   3.272   6.932
 2802SOL    HW110239   3.678   3.309   6.950
 2802SOL    HW210240   3.819   3.302   7.004
 2803SOL     OW10241   0.537  11.897   3.852
 2803SOL    HW110242   0.521  11.920   3.760
 2803SOL    HW210243   0.610  11.835   3.849
 2804SOL     OW10244   4.482  10.618   8.674
 2804SOL    HW110245   4.507  10.541   8.726
 2804SOL    HW210246   4.421  10.584   8.608
 2805SOL     OW10247   5.670   9.166   7.597
 2805SOL    HW110248   5.626   9.235   7.647
 2805SOL    HW210249   5.637   9.175   7.508
 2806SOL     OW10250  13.847  12.502   3.458
 2806SOL    HW110251  13.930  12.531   3.496
 2806SOL    HW210252  13.802  12.458   3.530
 2807SOL     OW10253  10.186  11.010   5.709
 2807SOL    HW110254  10.123  10.938   5.707
 2807SOL    HW210255  10.271  10.968   5.693
 2808SOL     OW10256  11.051  11.656   3.422
 2808SOL    HW110257  11.039  11.719   3.492
 2808SOL    HW210258  10.968  11.607   3.419
 2809SOL     OW10259  12.097   7.574  11.749
 2809SOL    HW110260  12.155   7.538  11.681
 2809SOL    HW210261  12.041   7.500  11.774
 2810SOL     OW10262   2.451   7.238   4.036
 2810SOL    HW110263   2.404   7.262   3.956
 2810SOL    HW210264   2.435   7.311   4.096
 2811SOL     OW10265   5.026   0.267   7.866
 2811SOL    HW110266   5.071   0.315   7.935
 2811SOL    HW210267   5.049   0.313   7.785
 2812SOL     OW10268   5.067   8.726  12.258
 2812SOL    HW110269   5.003   8.750  12.191
 2812SOL    HW210270   5.132   8.796  12.255
 2813SOL     OW10271   8.880   1.137   7.672
 2813SOL    HW110272   8.883   1.061   7.730
 2813SOL    HW210273   8.803   1.122   7.616
 2814SOL     OW10274   3.780   6.243   9.627
 2814SOL    HW110275   3.838   6.314   9.653
 2814SOL    HW210276   3.772   6.252   9.532
 2815SOL     OW10277   4.386   8.929   7.340
 2815SOL    HW110278   4.425   8.843   7.351
 2815SOL    HW210279   4.370   8.960   7.429
 2816SOL     OW10280   1.502   2.434   1.267
 2816SOL    HW110281   1.441   2.376   1.314
 2816SOL    HW210282   1.462   2.446   1.181
 2817SOL     OW10283   4.787   1.858   9.652
 2817SOL    HW110284   4.746   1.862   9.738
 2817SOL    HW210285   4.842   1.780   9.655
 2818SOL     OW10286   5.751   0.256  12.600
 2818SOL    HW110287   5.807   0.288  12.671
 2818SOL    HW210288   5.706   0.333  12.568
 2819SOL     OW10289   0.895   7.170  13.191
 2819SOL    HW110290   0.915   7.143  13.102
 2819SOL    HW210291   0.799   7.180  13.193
 2820SOL     OW10292   0.564   1.527   5.303
 2820SOL    HW110293   0.557   1.481   5.386
 2820SOL    HW210294   0.548   1.619   5.324
 2821SOL     OW10295  12.407   0.564  13.542
 2821SOL    HW110296  12.424   0.568  13.636
 2821SOL    HW210297  12.439   0.648  13.508
 2822SOL     OW10298   3.775   5.686   9.985
 2822SOL    HW110299   3.715   5.613   9.971
 2822SOL    HW210300   3.777   5.731   9.900
 2823SOL     OW10301  11.798   7.683   7.666
 2823SOL    HW110302  11.893   7.696   7.671
 2823SOL    HW210303  11.761   7.769   7.682
 2824SOL     OW10304   0.941   9.720   3.064
 2824SOL    HW110305   0.991   9.761   2.994
 2824SOL    HW210306   0.869   9.675   3.020
 2825SOL     OW10307   7.526  14.136   0.504
 2825SOL    HW110308   7.597  14.175   0.555
 2825SOL    HW210309   7.479  14.081   0.567
 2826SOL     OW10310   4.810  10.402  10.934
 2826SOL    HW110311   4.817  10.487  10.890
 2826SOL    HW210312   4.793  10.340  10.863
 2827SOL     OW10313   8.689   6.670   6.600
 2827SOL    HW110314   8.680   6.576   6.609
 2827SOL    HW210315   8.697   6.702   6.689
 2828SOL     OW10316   7.834  13.475   1.802
 2828SOL    HW110317   7.761  13.445   1.856
 2828SOL    HW210318   7.888  13.397   1.788
 2829SOL     OW10319  11.523   7.972   1.651
 2829SOL    HW110320  11.486   7.955   1.564
 2829SOL    HW210321  11.447   7.991   1.706
 2830SOL     OW10322  12.819  13.654   3.555
 2830SOL    HW110323  12.875  13.593   3.604
 2830SOL    HW210324  12.801  13.725   3.616
 2831SOL     OW10325  11.904  14.253   5.873
 2831SOL    HW110326  11.867  14.320   5.815
 2831SOL    HW210327  11.903  14.173   5.820
 2832SOL     OW10328  10.520   5.783  11.989
 2832SOL    HW110329  10.479   5.721  12.049
 2832SOL    HW210330  10.495   5.869  12.023
 2833SOL     OW10331   1.210  12.616  13.426
 2833SOL    HW110332   1.254  12.532  13.414
 2833SOL    HW210333   1.249  12.653  13.505
 2834SOL     OW10334   7.118   6.084  13.230
 2834SOL    HW110335   7.118   6.071  13.324
 2834SOL    HW210336   7.037   6.044  13.199
 2835SOL     OW10337   5.414   3.756   6.690
 2835SOL    HW110338   5.426   3.661   6.698
 2835SOL    HW210339   5.382   3.769   6.601
 2836SOL     OW10340   3.383   6.162   3.437
 2836SOL    HW110341   3.332   6.157   3.518
 2836SOL    HW210342   3.470   6.130   3.461
 2837SOL     OW10343   3.395  14.084  12.240
 2837SOL    HW110344   3.375  14.119  12.153
 2837SOL    HW210345   3.386  13.989  12.230
 2838SOL     OW10346  13.634   7.619   4.714
 2838SOL    HW110347  13.553   7.633   4.762
 2838SOL    HW210348  13.680   7.550   4.763
 2839SOL     OW10349   3.946  11.784  12.117
 2839SOL    HW110350   3.870  11.834  12.148
 2839SOL    HW210351   4.021  11.841  12.136
 2840SOL     OW10352   1.302   8.354  11.112
 2840SOL    HW110353   1.343   8.358  11.026
 2840SOL    HW210354   1.367   8.389  11.172
 2841SOL     OW10355   1.649   9.876   7.871
 2841SOL    HW110356   1.560   9.864   7.906
 2841SOL    HW210357   1.704   9.878   7.949
 2842SOL     OW10358   2.179  12.168   6.403
 2842SOL    HW110359   2.104  12.201   6.452
 2842SOL    HW210360   2.255  12.203   6.449
 2843SOL     OW10361  13.622   8.328   5.664
 2843SOL    HW110362  13.648   8.418   5.685
 2843SOL    HW210363  13.681   8.274   5.715
 2844SOL     OW10364   7.939   0.165  10.663
 2844SOL    HW110365   7.984   0.136  10.584
 2844SOL    HW210366   7.859   0.112  10.665
 2845SOL     OW10367  13.763   2.471   4.012
 2845SOL    HW110368  13.834   2.470   4.077
 2845SOL    HW210369  13.800   2.428   3.935
 2846SOL     OW10370   7.671   9.241  11.868
 2846SOL    HW110371   7.661   9.332  11.897
 2846SOL    HW210372   7.690   9.192  11.948
 2847SOL     OW10373   2.247   7.723  11.267
 2847SOL    HW110374   2.160   7.763  11.254
 2847SOL    HW210375   2.251   7.706  11.361
 2848SOL     OW10376   4.539   9.296   0.411
 2848SOL    HW110377   4.484   9.352   0.356
 2848SOL    HW210378   4.484   9.274   0.486
 2849SOL     OW10379   1.384   7.790   0.007
 2849SOL    HW110380   1.477   7.799  14.860
 2849SOL    HW210381   1.343   7.779  14.794
 2850SOL     OW10382   1.244   3.890   9.736
 2850SOL    HW110383   1.317   3.917   9.792
 2850SOL    HW210384   1.184   3.844   9.795
 2851SOL     OW10385  10.503  11.779   4.726
 2851SOL    HW110386  10.425  11.783   4.670
 2851SOL    HW210387  10.563  11.843   4.688
 2852SOL     OW10388   5.418   8.901   4.402
 2852SOL    HW110389   5.431   8.971   4.466
 2852SOL    HW210390   5.472   8.926   4.327
 2853SOL     OW10391  10.275  13.724   7.909
 2853SOL    HW110392  10.288  13.676   7.827
 2853SOL    HW210393  10.359  13.716   7.954
 2854SOL     OW10394  10.668   9.404   6.140
 2854SOL    HW110395  10.622   9.456   6.074
 2854SOL    HW210396  10.627   9.430   6.223
 2855SOL     OW10397   9.834   4.414  10.419
 2855SOL    HW110398   9.842   4.318  10.421
 2855SOL    HW210399   9.882   4.444  10.496
 2856SOL     OW10400   7.207   9.021   2.106
 2856SOL    HW110401   7.239   8.952   2.163
 2856SOL    HW210402   7.184   8.976   2.024
 2857SOL     OW10403  13.581   0.898  10.408
 2857SOL    HW110404  13.635   0.971  10.375
 2857SOL    HW210405  13.575   0.914  10.502
 2858SOL     OW10406   7.541   6.232   6.368
 2858SOL    HW110407   7.515   6.304   6.426
 2858SOL    HW210408   7.560   6.159   6.426
 2859SOL     OW10409  10.028   4.339   6.743
 2859SOL    HW110410   9.967   4.286   6.795
 2859SOL    HW210411   9.984   4.423   6.732
 2860SOL     OW10412  12.866   3.891   4.969
 2860SOL    HW110413  12.796   3.828   4.985
 2860SOL    HW210414  12.844   3.966   5.025
 2861SOL     OW10415   8.809  11.117   4.214
 2861SOL    HW110416   8.728  11.105   4.164
 2861SOL    HW210417   8.799  11.203   4.255
 2862SOL     OW10418   8.578   0.557   8.482
 2862SOL    HW110419   8.630   0.611   8.541
 2862SOL    HW210420   8.487   0.571   8.509
 2863SOL     OW10421   6.668   8.537   7.299
 2863SOL    HW110422   6.713   8.601   7.244
 2863SOL    HW210423   6.593   8.585   7.335
 2864SOL     OW10424  11.491   0.778   6.808
 2864SOL    HW110425  11.490   0.727   6.890
 2864SOL    HW210426  11.513   0.867   6.836
 2865SOL     OW10427  12.820   9.997   7.478
 2865SOL    HW110428  12.911  10.025   7.493
 2865SOL    HW210429  12.778  10.002   7.564
 2866SOL     OW10430   0.671  14.641   9.567
 2866SOL    HW110431   0.737  14.624   9.500
 2866SOL    HW210432   0.674  14.736   9.579
 2867SOL     OW10433   5.853   8.642  14.603
 2867SOL    HW110434   5.768   8.632  14.646
 2867SOL    HW210435   5.883   8.729  14.631
 2868SOL     OW10436   4.440  13.054   4.244
 2868SOL    HW110437   4.448  13.136   4.293
 2868SOL    HW210438   4.479  13.075   4.158
 2869SOL     OW10439  11.812   4.445  12.904
 2869SOL    HW110440  11.884   4.406  12.853
 2869SOL    HW210441  11.746   4.468  12.839
 2870SOL     OW10442   7.943   7.777   4.447
 2870SOL    HW110443   7.865   7.764   4.502
 2870SOL    HW210444   8.017   7.763   4.507
 2871SOL     OW10445   6.846   1.964   0.375
 2871SOL    HW110446   6.756   1.971   0.406
 2871SOL    HW210447   6.840   1.915   0.293
 2872SOL     OW10448   4.772   0.931   7.416
 2872SOL    HW110449   4.753   0.925   7.323
 2872SOL    HW210450   4.725   0.857   7.455
 2873SOL     OW10451   5.920   8.264   7.619
 2873SOL    HW110452   5.952   8.345   7.578
 2873SOL    HW210453   5.826   8.264   7.600
 2874SOL     OW10454   6.264   2.919   9.575
 2874SOL    HW110455   6.270   2.949   9.666
 2874SOL    HW210456   6.177   2.879   9.569
 2875SOL     OW10457   9.740  14.430   8.916
 2875SOL    HW110458   9.753  14.388   8.831
 2875SOL    HW210459   9.814  14.400   8.969
 2876SOL     OW10460  14.139   4.526   1.486
 2876SOL    HW110461  14.143   4.602   1.429
 2876SOL    HW210462  14.092   4.556   1.563
 2877SOL     OW10463  14.071   8.762   0.772
 2877SOL    HW110464  14.047   8.749   0.680
 2877SOL    HW210465  14.164   8.785   0.770
 2878SOL     OW10466   0.423   8.291  14.015
 2878SOL    HW110467   0.379   8.240  13.947
 2878SOL    HW210468   0.355   8.351  14.047
 2879SOL     OW10469   3.678   4.677   9.524
 2879SOL    HW110470   3.708   4.707   9.610
 2879SOL    HW210471   3.656   4.758   9.477
 2880SOL     OW10472   5.104   3.672  13.347
 2880SOL    HW110473   5.099   3.685  13.442
 2880SOL    HW210474   5.024   3.625  13.324
 2881SOL     OW10475  11.133   7.522   1.934
 2881SOL    HW110476  11.085   7.460   1.879
 2881SOL    HW210477  11.174   7.469   2.002
 2882SOL     OW10478  12.675  14.685  12.427
 2882SOL    HW110479  12.623  14.635  12.364
 2882SOL    HW210480  12.708  14.760  12.378
 2883SOL     OW10481   9.229   4.430  14.566
 2883SOL    HW110482   9.173   4.503  14.593
 2883SOL    HW210483   9.311   4.443  14.615
 2884SOL     OW10484   2.560  12.905   9.019
 2884SOL    HW110485   2.551  12.833   9.081
 2884SOL    HW210486   2.653  12.905   8.995
 2885SOL     OW10487   9.268   0.797   4.147
 2885SOL    HW110488   9.263   0.823   4.056
 2885SOL    HW210489   9.249   0.876   4.197
 2886SOL     OW10490  13.756   4.118   8.043
 2886SOL    HW110491  13.790   4.177   7.975
 2886SOL    HW210492  13.833   4.074   8.077
 2887SOL     OW10493   4.971   2.106   6.150
 2887SOL    HW110494   5.018   2.103   6.234
 2887SOL    HW210495   5.028   2.060   6.089
 2888SOL     OW10496   3.657   8.866   2.890
 2888SOL    HW110497   3.694   8.851   2.803
 2888SOL    HW210498   3.706   8.941   2.924
 2889SOL     OW10499   6.826   4.107   2.670
 2889SOL    HW110500   6.869   4.133   2.751
 2889SOL    HW210501   6.895   4.109   2.604
 2890SOL     OW10502   7.183   1.836  14.549
 2890SOL    HW110503   7.207   1.789  14.629
 2890SOL    HW210504   7.122   1.778  14.504
 2891SOL     OW10505   5.964   8.590   4.079
 2891SOL    HW110506   5.929   8.506   4.051
 2891SOL    HW210507   6.003   8.573   4.165
 2892SOL     OW10508   3.140  10.541   4.340
 2892SOL    HW110509   3.046  10.555   4.333
 2892SOL    HW210510   3.172  10.614   4.392
 2893SOL     OW10511   0.924   7.057   6.369
 2893SOL    HW110512   0.909   7.045   6.463
 2893SOL    HW210513   0.992   6.994   6.347
 2894SOL     OW10514   6.676   9.672   6.334
 2894SOL    HW110515   6.734   9.742   6.363
 2894SOL    HW210516   6.616   9.658   6.408
 2895SOL     OW10517   4.219   2.207   9.775
 2895SOL    HW110518   4.293   2.198   9.715
 2895SOL    HW210519   4.176   2.122   9.774
 2896SOL     OW10520   3.076   4.157   0.837
 2896SOL    HW110521   3.003   4.098   0.820
 2896SOL    HW210522   3.122   4.118   0.911
 2897SOL     OW10523   2.011   4.084  13.658
 2897SOL    HW110524   1.931   4.093  13.608
 2897SOL    HW210525   1.985   4.039  13.738
 2898SOL     OW10526   3.078   0.214   4.251
 2898SOL    HW110527   3.087   0.262   4.169
 2898SOL    HW210528   3.090   0.280   4.319
 2899SOL     OW10529   7.784   3.312   1.401
 2899SOL    HW110530   7.800   3.217   1.407
 2899SOL    HW210531   7.710   3.320   1.340
 2900SOL     OW10532  10.566   1.584  10.069
 2900SOL    HW110533  10.617   1.655  10.107
 2900SOL    HW210534  10.481   1.590  10.111
 2901SOL     OW10535   8.566  13.191   8.526
 2901SOL    HW110536   8.622  13.229   8.459
 2901SOL    HW210537   8.481  13.235   8.515
 2902SOL     OW10538   8.763   3.690  13.239
 2902SOL    HW110539   8.795   3.622  13.298
 2902SOL    HW210540   8.833   3.700  13.174
 2903SOL     OW10541  12.098   8.599  11.550
 2903SOL    HW110542  12.027   8.662  11.558
 2903SOL    HW210543  12.122   8.578  11.640
 2904SOL     OW10544   3.229   6.268   2.426
 2904SOL    HW110545   3.272   6.184   2.412
 2904SOL    HW210546   3.181   6.257   2.508
 2905SOL     OW10547   3.636   0.455   0.039
 2905SOL    HW110548   3.607   0.546   0.029
 2905SOL    HW210549   3.572   0.416   0.099
 2906SOL     OW10550   6.392   0.946  10.222
 2906SOL    HW110551   6.320   0.883  10.216
 2906SOL    HW210552   6.467   0.894  10.251
 2907SOL     OW10553   5.894   3.786  14.837
 2907SOL    HW110554   5.927   3.803   0.053
 2907SOL    HW210555   5.963   3.736  14.795
 2908SOL     OW10556  11.016   5.110   2.442
 2908SOL    HW110557  11.079   5.070   2.502
 2908SOL    HW210558  11.064   5.117   2.359
 2909SOL     OW10559  12.362  10.642   3.437
 2909SOL    HW110560  12.414  10.674   3.364
 2909SOL    HW210561  12.319  10.721   3.472
 2910SOL     OW10562  14.119  14.399   6.397
 2910SOL    HW110563  14.028  14.402   6.425
 2910SOL    HW210564  14.165  14.457   6.459
 2911SOL     OW10565   1.148   5.630  10.117
 2911SOL    HW110566   1.094   5.655  10.043
 2911SOL    HW210567   1.149   5.707  10.174
 2912SOL     OW10568   5.402   8.583   4.095
 2912SOL    HW110569   5.439   8.498   4.071
 2912SOL    HW210570   5.311   8.580   4.065
 2913SOL     OW10571   1.365  13.237   6.626
 2913SOL    HW110572   1.327  13.149   6.628
 2913SOL    HW210573   1.452  13.226   6.666
 2914SOL     OW10574   7.067   3.398   3.060
 2914SOL    HW110575   7.133   3.466   3.045
 2914SOL    HW210576   7.005   3.438   3.121
 2915SOL     OW10577   9.453  10.407   3.125
 2915SOL    HW110578   9.432  10.456   3.045
 2915SOL    HW210579   9.396  10.331   3.122
 2916SOL     OW10580   3.943  13.624  12.679
 2916SOL    HW110581   3.851  13.601  12.688
 2916SOL    HW210582   3.983  13.546  12.640
 2917SOL     OW10583  12.609   4.531   1.700
 2917SOL    HW110584  12.700   4.537   1.672
 2917SOL    HW210585  12.598   4.439   1.725
 2918SOL     OW10586  10.927  13.025   6.659
 2918SOL    HW110587  10.931  12.982   6.574
 2918SOL    HW210588  10.851  13.082   6.654
 2919SOL     OW10589   0.518   6.669  10.421
 2919SOL    HW110590   0.505   6.740  10.483
 2919SOL    HW210591   0.530   6.591  10.475
 2920SOL     OW10592  12.371   8.199  14.060
 2920SOL    HW110593  12.297   8.151  14.099
 2920SOL    HW210594  12.341   8.222  13.972
 2921SOL     OW10595   5.682   7.843   1.238
 2921SOL    HW110596   5.759   7.797   1.273
 2921SOL    HW210597   5.694   7.842   1.143
 2922SOL     OW10598   3.448   0.033  14.713
 2922SOL    HW110599   3.443  14.836  14.778
 2922SOL    HW210600   3.526   0.083  14.737
 2923SOL     OW10601   2.446   9.770  12.100
 2923SOL    HW110602   2.488   9.817  12.172
 2923SOL    HW210603   2.470   9.820  12.022
 2924SOL     OW10604   6.507   5.342  12.426
 2924SOL    HW110605   6.587   5.375  12.384
 2924SOL    HW210606   6.538   5.271  12.483
 2925SOL     OW10607   4.617   3.254   2.027
 2925SOL    HW110608   4.604   3.219   2.115
 2925SOL    HW210609   4.680   3.325   2.039
 2926SOL     OW10610  13.743  10.979   6.212
 2926SOL    HW110611  13.786  11.065   6.207
 2926SOL    HW210612  13.656  10.999   6.246
 2927SOL     OW10613   2.034   7.188   1.132
 2927SOL    HW110614   2.094   7.262   1.148
 2927SOL    HW210615   2.019   7.150   1.219
 2928SOL     OW10616   1.779   6.397   2.945
 2928SOL    HW110617   1.847   6.371   2.882
 2928SOL    HW210618   1.789   6.337   3.018
 2929SOL     OW10619  13.589  13.582   2.553
 2929SOL    HW110620  13.510  13.590   2.606
 2929SOL    HW210621  13.558  13.558   2.466
 2930SOL     OW10622   4.379  11.866   2.391
 2930SOL    HW110623   4.408  11.957   2.387
 2930SOL    HW210624   4.407  11.835   2.477
 2931SOL     OW10625  11.018  14.179  10.664
 2931SOL    HW110626  11.087  14.187  10.598
 2931SOL    HW210627  11.039  14.097  10.710
 2932SOL     OW10628  11.778  12.359  11.883
 2932SOL    HW110629  11.770  12.277  11.834
 2932SOL    HW210630  11.856  12.348  11.936
 2933SOL     OW10631  10.011   9.108   6.733
 2933SOL    HW110632  10.026   9.203   6.737
 2933SOL    HW210633  10.026   9.086   6.641
 2934SOL     OW10634  10.083   5.080   7.926
 2934SOL    HW110635  10.033   5.102   7.848
 2934SOL    HW210636  10.165   5.130   7.917
 2935SOL     OW10637   5.391  10.379  12.160
 2935SOL    HW110638   5.362  10.330  12.237
 2935SOL    HW210639   5.416  10.312  12.096
 2936SOL     OW10640  11.588  12.031   8.075
 2936SOL    HW110641  11.676  12.041   8.111
 2936SOL    HW210642  11.538  12.104   8.112
 2937SOL     OW10643  12.501   5.956   8.453
 2937SOL    HW110644  12.505   5.861   8.454
 2937SOL    HW210645  12.472   5.980   8.541
 2938SOL     OW10646   3.144  10.752   3.158
 2938SOL    HW110647   3.106  10.775   3.242
 2938SOL    HW210648   3.092  10.678   3.128
 2939SOL     OW10649  13.199   3.236  10.999
 2939SOL    HW110650  13.266   3.287  10.955
 2939SOL    HW210651  13.116   3.266  10.961
 2940SOL     OW10652  11.458   8.233  11.626
 2940SOL    HW110653  11.400   8.229  11.549
 2940SOL    HW210654  11.536   8.279  11.595
 2941SOL     OW10655   8.605   4.834  13.880
 2941SOL    HW110656   8.657   4.893  13.934
 2941SOL    HW210657   8.579   4.764  13.939
 2942SOL     OW10658  11.343  14.297   1.444
 2942SOL    HW110659  11.250  14.307   1.463
 2942SOL    HW210660  11.347  14.242   1.366
 2943SOL     OW10661   1.969  11.773   5.802
 2943SOL    HW110662   1.884  11.734   5.782
 2943SOL    HW210663   1.951  11.836   5.871
 2944SOL     OW10664   0.459   6.598   8.753
 2944SOL    HW110665   0.523   6.658   8.715
 2944SOL    HW210666   0.505   6.514   8.759
 2945SOL     OW10667  13.997   8.775   5.459
 2945SOL    HW110668  14.002   8.866   5.486
 2945SOL    HW210669  13.908   8.763   5.427
 2946SOL     OW10670   1.117  13.493  14.451
 2946SOL    HW110671   1.106  13.444  14.370
 2946SOL    HW210672   1.122  13.584  14.423
 2947SOL     OW10673  10.805   8.424   8.298
 2947SOL    HW110674  10.871   8.484   8.263
 2947SOL    HW210675  10.773   8.377   8.222
 2948SOL     OW10676   8.883   5.137   8.814
 2948SOL    HW110677   8.922   5.100   8.734
 2948SOL    HW210678   8.793   5.157   8.789
 2949SOL     OW10679   5.430   2.776   1.661
 2949SOL    HW110680   5.431   2.694   1.711
 2949SOL    HW210681   5.507   2.823   1.691
 2950SOL     OW10682   1.643   4.284  13.613
 2950SOL    HW110683   1.563   4.309  13.659
 2950SOL    HW210684   1.669   4.201  13.653
 2951SOL     OW10685   3.596  14.081   0.200
 2951SOL    HW110686   3.605  14.012   0.266
 2951SOL    HW210687   3.681  14.124   0.198
 2952SOL     OW10688   1.551  12.081   7.723
 2952SOL    HW110689   1.563  11.990   7.750
 2952SOL    HW210690   1.549  12.077   7.627
 2953SOL     OW10691  13.039   9.401   3.053
 2953SOL    HW110692  13.064   9.433   3.140
 2953SOL    HW210693  13.004   9.314   3.069
 2954SOL     OW10694   3.840   5.523  13.094
 2954SOL    HW110695   3.814   5.596  13.040
 2954SOL    HW210696   3.904   5.475  13.041
 2955SOL     OW10697   4.467   6.742  12.916
 2955SOL    HW110698   4.554   6.753  12.877
 2955SOL    HW210699   4.481   6.679  12.987
 2956SOL     OW10700   1.087  12.181   7.469
 2956SOL    HW110701   1.007  12.129   7.464
 2956SOL    HW210702   1.057  12.269   7.491
 2957SOL     OW10703  10.133   4.195  14.350
 2957SOL    HW110704  10.222   4.175  14.381
 2957SOL    HW210705  10.131   4.160  14.261
 2958SOL     OW10706   3.440  11.872   9.004
 2958SOL    HW110707   3.411  11.832   8.921
 2958SOL    HW210708   3.451  11.798   9.063
 2959SOL     OW10709   6.177   8.097   5.953
 2959SOL    HW110710   6.203   8.007   5.972
 2959SOL    HW210711   6.122   8.090   5.874
 2960SOL     OW10712   8.332  12.191  12.267
 2960SOL    HW110713   8.354  12.147  12.349
 2960SOL    HW210714   8.414  12.196  12.218
 2961SOL     OW10715   4.549  14.260  12.482
 2961SOL    HW110716   4.595  14.253  12.565
 2961SOL    HW210717   4.612  14.228  12.417
 2962SOL     OW10718  14.198   5.210  13.747
 2962SOL    HW110719  14.273   5.203  13.688
 2962SOL    HW210720  14.122   5.193  13.692
 2963SOL     OW10721   5.855  11.385   6.803
 2963SOL    HW110722   5.800  11.421   6.734
 2963SOL    HW210723   5.836  11.291   6.802
 2964SOL     OW10724   2.029   3.504  12.620
 2964SOL    HW110725   2.026   3.580  12.563
 2964SOL    HW210726   1.997   3.536  12.705
 2965SOL     OW10727   5.320   4.272   6.007
 2965SOL    HW110728   5.284   4.302   5.923
 2965SOL    HW210729   5.302   4.344   6.068
 2966SOL     OW10730  11.966  12.402   0.318
 2966SOL    HW110731  12.021  12.324   0.320
 2966SOL    HW210732  12.023  12.471   0.283
 2967SOL     OW10733   4.416   2.607   5.345
 2967SOL    HW110734   4.328   2.630   5.377
 2967SOL    HW210735   4.432   2.668   5.273
 2968SOL     OW10736   3.363   0.890   7.206
 2968SOL    HW110737   3.422   0.886   7.282
 2968SOL    HW210738   3.386   0.971   7.161
 2969SOL     OW10739  12.872  10.002   7.067
 2969SOL    HW110740  12.878  10.052   7.148
 2969SOL    HW210741  12.912   9.918   7.088
 2970SOL     OW10742  10.538   8.797  13.103
 2970SOL    HW110743  10.562   8.788  13.010
 2970SOL    HW210744  10.546   8.891  13.120
 2971SOL     OW10745   2.110   4.907  13.565
 2971SOL    HW110746   2.137   4.976  13.626
 2971SOL    HW210747   2.017   4.924  13.549
 2972SOL     OW10748  10.961   5.755   4.820
 2972SOL    HW110749  11.052   5.756   4.850
 2972SOL    HW210750  10.915   5.703   4.886
 2973SOL     OW10751   0.153  13.256   0.938
 2973SOL    HW110752   0.194  13.269   0.853
 2973SOL    HW210753   0.173  13.165   0.961
 2974SOL     OW10754   6.431   1.892   8.268
 2974SOL    HW110755   6.375   1.927   8.199
 2974SOL    HW210756   6.459   1.968   8.318
 2975SOL     OW10757   9.260  11.429  14.534
 2975SOL    HW110758   9.226  11.353  14.582
 2975SOL    HW210759   9.355  11.421  14.542
 2976SOL     OW10760   3.929   6.643   2.395
 2976SOL    HW110761   3.875   6.571   2.429
 2976SOL    HW210762   3.981   6.672   2.470
 2977SOL     OW10763   0.220   0.454   2.312
 2977SOL    HW110764   0.144   0.513   2.312
 2977SOL    HW210765   0.256   0.463   2.224
 2978SOL     OW10766   2.148  14.025   8.609
 2978SOL    HW110767   2.168  13.979   8.528
 2978SOL    HW210768   2.209  13.988   8.673
 2979SOL     OW10769   0.832   5.058   3.986
 2979SOL    HW110770   0.918   5.099   3.974
 2979SOL    HW210771   0.846   4.992   4.054
 2980SOL     OW10772   3.805  14.374  12.772
 2980SOL    HW110773   3.796  14.467  12.795
 2980SOL    HW210774   3.865  14.339  12.838
 2981SOL     OW10775  11.343  12.296   6.937
 2981SOL    HW110776  11.346  12.226   6.872
 2981SOL    HW210777  11.415  12.277   6.996
 2982SOL     OW10778   9.760   6.876   0.250
 2982SOL    HW110779   9.847   6.860   0.285
 2982SOL    HW210780   9.726   6.949   0.302
 2983SOL     OW10781   1.675   4.551   7.291
 2983SOL    HW110782   1.655   4.644   7.295
 2983SOL    HW210783   1.734   4.535   7.365
 2984SOL     OW10784   6.432  14.110   1.026
 2984SOL    HW110785   6.518  14.106   0.985
 2984SOL    HW210786   6.372  14.075   0.960
 2985SOL     OW10787   0.875   9.717   6.931
 2985SOL    HW110788   0.958   9.763   6.941
 2985SOL    HW210789   0.828   9.766   6.863
 2986SOL     OW10790  12.560   9.295   8.203
 2986SOL    HW110791  12.625   9.262   8.140
 2986SOL    HW210792  12.613   9.331   8.274
 2987SOL     OW10793  10.909   4.557  11.154
 2987SOL    HW110794  10.852   4.620  11.109
 2987SOL    HW210795  10.921   4.486  11.091
 2988SOL     OW10796  10.381   5.117  14.522
 2988SOL    HW110797  10.419   5.153  14.602
 2988SOL    HW210798  10.455   5.105  14.463
 2989SOL     OW10799  13.794  11.402   0.857
 2989SOL    HW110800  13.846  11.366   0.929
 2989SOL    HW210801  13.705  11.369   0.873
 2990SOL     OW10802   7.009   0.544   7.640
 2990SOL    HW110803   6.959   0.580   7.568
 2990SOL    HW210804   7.090   0.596   7.641
 2991SOL     OW10805   4.366  11.365   3.222
 2991SOL    HW110806   4.453  11.341   3.192
 2991SOL    HW210807   4.367  11.461   3.224
 2992SOL     OW10808   3.879   8.550   5.451
 2992SOL    HW110809   3.898   8.552   5.357
 2992SOL    HW210810   3.860   8.458   5.470
 2993SOL     OW10811   4.922   3.962   6.578
 2993SOL    HW110812   4.908   3.963   6.483
 2993SOL    HW210813   5.017   3.963   6.588
 2994SOL     OW10814  10.718   5.509   2.194
 2994SOL    HW110815  10.777   5.546   2.259
 2994SOL    HW210816  10.666   5.583   2.164
 2995SOL     OW10817  10.426  14.579  12.033
 2995SOL    HW110818  10.493  14.548  11.971
 2995SOL    HW210819  10.347  14.587  11.979
 2996SOL     OW10820  13.447   8.106   8.438
 2996SOL    HW110821  13.397   8.055   8.501
 2996SOL    HW210822  13.386   8.174   8.408
 2997SOL     OW10823  13.636   8.032  11.480
 2997SOL    HW110824  13.578   8.015  11.405
 2997SOL    HW210825  13.662   7.945  11.510
 2998SOL     OW10826   2.484   6.063   5.657
 2998SOL    HW110827   2.423   6.023   5.720
 2998SOL    HW210828   2.456   6.028   5.572
 2999SOL     OW10829   1.419  11.194   4.550
 2999SOL    HW110830   1.436  11.283   4.583
 2999SOL    HW210831   1.505  11.163   4.522
 3000SOL     OW10832   8.871  12.432   1.029
 3000SOL    HW110833   8.955  12.448   1.073
 3000SOL    HW210834   8.806  12.473   1.085
 3001SOL     OW10835   8.984  11.768  13.613
 3001SOL    HW110836   8.893  11.797  13.602
 3001SOL    HW210837   9.032  11.849  13.632
 3002SOL     OW10838   3.376   8.863   2.875
 3002SOL    HW110839   3.375   8.805   2.798
 3002SOL    HW210840   3.468   8.883   2.888
 3003SOL     OW10841   5.289   7.807  11.711
 3003SOL    HW110842   5.285   7.713  11.696
 3003SOL    HW210843   5.370   7.820  11.761
 3004SOL     OW10844   0.645   7.769   0.137
 3004SOL    HW110845   0.610   7.725   0.060
 3004SOL    HW210846   0.719   7.820   0.105
 3005SOL     OW10847   0.465   5.957   7.123
 3005SOL    HW110848   0.464   5.921   7.034
 3005SOL    HW210849   0.500   6.045   7.113
 3006SOL     OW10850   5.812   9.512  13.984
 3006SOL    HW110851   5.746   9.449  14.013
 3006SOL    HW210852   5.786   9.594  14.026
 3007SOL     OW10853  14.494   2.296   2.114
 3007SOL    HW110854  14.404   2.326   2.101
 3007SOL    HW210855  14.506   2.294   2.209
 3008SOL     OW10856  14.487   5.778  10.909
 3008SOL    HW110857  14.582   5.791  10.912
 3008SOL    HW210858  14.477   5.689  10.876
 3009SOL     OW10859   8.136  14.542  12.552
 3009SOL    HW110860   8.229  14.542  12.526
 3009SOL    HW210861   8.090  14.507  12.476
 3010SOL     OW10862   8.437   9.795  10.904
 3010SOL    HW110863   8.508   9.742  10.940
 3010SOL    HW210864   8.469   9.885  10.909
 3011SOL     OW10865  12.280   4.128   3.796
 3011SOL    HW110866  12.275   4.158   3.887
 3011SOL    HW210867  12.188   4.125   3.767
 3012SOL     OW10868  12.474  13.991  13.087
 3012SOL    HW110869  12.444  13.955  13.004
 3012SOL    HW210870  12.538  14.059  13.062
 3013SOL     OW10871   7.113  13.148  14.252
 3013SOL    HW110872   7.064  13.124  14.173
 3013SOL    HW210873   7.046  13.159  14.319
 3014SOL     OW10874   1.609  14.837  13.438
 3014SOL    HW110875   1.675  14.770  13.458
 3014SOL    HW210876   1.653   0.047  13.457
 3015SOL     OW10877  12.166   7.804  12.827
 3015SOL    HW110878  12.168   7.824  12.921
 3015SOL    HW210879  12.075   7.819  12.801
 3016SOL     OW10880   9.935  11.291  13.390
 3016SOL    HW110881   9.845  11.281  13.356
 3016SOL    HW210882   9.936  11.239  13.470
 3017SOL     OW10883   8.686   4.359  13.660
 3017SOL    HW110884   8.782   4.357  13.661
 3017SOL    HW210885   8.664   4.446  13.693
 3018SOL     OW10886   7.783  11.627  12.836
 3018SOL    HW110887   7.755  11.614  12.927
 3018SOL    HW210888   7.799  11.721  12.829
 3019SOL     OW10889   9.824   3.781  14.375
 3019SOL    HW110890   9.752   3.727  14.342
 3019SOL    HW210891   9.882   3.718  14.419
 3020SOL     OW10892   5.350  13.193   7.731
 3020SOL    HW110893   5.398  13.233   7.803
 3020SOL    HW210894   5.346  13.261   7.664
 3021SOL     OW10895  10.581  11.572  13.046
 3021SOL    HW110896  10.497  11.613  13.024
 3021SOL    HW210897  10.565  11.478  13.037
 3022SOL     OW10898   9.815  10.386  11.475
 3022SOL    HW110899   9.738  10.366  11.527
 3022SOL    HW210900   9.783  10.439  11.402
 3023SOL     OW10901   8.781  11.977   6.471
 3023SOL    HW110902   8.858  11.924   6.450
 3023SOL    HW210903   8.711  11.939   6.418
 3024SOL     OW10904   7.118   1.488   1.712
 3024SOL    HW110905   7.049   1.487   1.778
 3024SOL    HW210906   7.179   1.555   1.743
 3025SOL     OW10907  10.639  12.918   3.078
 3025SOL    HW110908  10.696  12.841   3.069
 3025SOL    HW210909  10.551  12.886   3.059
 3026SOL     OW10910   0.152   1.078   9.096
 3026SOL    HW110911   0.076   1.037   9.139
 3026SOL    HW210912   0.172   1.154   9.150
 3027SOL     OW10913   8.164   2.642   0.947
 3027SOL    HW110914   8.169   2.571   0.883
 3027SOL    HW210915   8.130   2.600   1.027
 3028SOL     OW10916  11.755   1.592   1.899
 3028SOL    HW110917  11.743   1.507   1.855
 3028SOL    HW210918  11.702   1.585   1.979
 3029SOL     OW10919   7.625  12.130  12.811
 3029SOL    HW110920   7.603  12.038  12.826
 3029SOL    HW210921   7.698  12.127  12.749
 3030SOL     OW10922   0.778  13.354  14.171
 3030SOL    HW110923   0.712  13.319  14.231
 3030SOL    HW210924   0.731  13.367  14.089
 3031SOL     OW10925   6.087  12.208   6.991
 3031SOL    HW110926   6.147  12.232   7.063
 3031SOL    HW210927   6.109  12.116   6.972
 3032SOL     OW10928  14.104  12.322   6.017
 3032SOL    HW110929  14.147  12.393   6.066
 3032SOL    HW210930  14.021  12.360   5.989
 3033SOL     OW10931  14.658  12.150   9.568
 3033SOL    HW110932  14.672  12.169   9.476
 3033SOL    HW210933  14.741  12.110   9.597
 3034SOL     OW10934   8.736   1.948  13.109
 3034SOL    HW110935   8.718   1.858  13.137
 3034SOL    HW210936   8.706   2.002  13.182
 3035SOL     OW10937   1.143   5.331   9.064
 3035SOL    HW110938   1.225   5.382   9.066
 3035SOL    HW210939   1.171   5.240   9.054
 3036SOL     OW10940  12.318  12.801   7.422
 3036SOL    HW110941  12.262  12.804   7.500
 3036SOL    HW210942  12.274  12.740   7.363
 3037SOL     OW10943   3.015   8.903   6.552
 3037SOL    HW110944   2.967   8.922   6.472
 3037SOL    HW210945   3.103   8.878   6.522
 3038SOL     OW10946   7.524   6.061   3.402
 3038SOL    HW110947   7.580   6.041   3.477
 3038SOL    HW210948   7.571   6.129   3.354
 3039SOL     OW10949   6.213   6.005  13.398
 3039SOL    HW110950   6.141   6.037  13.453
 3039SOL    HW210951   6.174   5.936  13.345
 3040SOL     OW10952  10.262  14.086  10.552
 3040SOL    HW110953  10.218  14.011  10.593
 3040SOL    HW210954  10.271  14.060  10.460
 3041SOL     OW10955   2.396  11.715  11.518
 3041SOL    HW110956   2.388  11.811  11.521
 3041SOL    HW210957   2.475  11.700  11.467
 3042SOL     OW10958   2.015  13.449   4.647
 3042SOL    HW110959   2.017  13.371   4.703
 3042SOL    HW210960   1.944  13.432   4.584
 3043SOL     OW10961  11.000  13.353   4.057
 3043SOL    HW110962  10.964  13.317   3.976
 3043SOL    HW210963  10.990  13.448   4.046
 3044SOL     OW10964   1.789  12.279   8.809
 3044SOL    HW110965   1.850  12.343   8.773
 3044SOL    HW210966   1.788  12.297   8.903
 3045SOL     OW10967   0.696   8.596   1.889
 3045SOL    HW110968   0.605   8.576   1.869
 3045SOL    HW210969   0.708   8.566   1.980
 3046SOL     OW10970   6.700  10.300  13.254
 3046SOL    HW110971   6.709  10.391  13.227
 3046SOL    HW210972   6.682  10.253  13.172
 3047SOL     OW10973   0.508   0.021  13.971
 3047SOL    HW110974   0.551  14.809  13.986
 3047SOL    HW210975   0.514   0.033  13.876
 3048SOL     OW10976   2.174   9.694  11.043
 3048SOL    HW110977   2.190   9.687  11.137
 3048SOL    HW210978   2.188   9.605  11.009
 3049SOL     OW10979  10.706   6.479  14.331
 3049SOL    HW110980  10.726   6.551  14.391
 3049SOL    HW210981  10.791   6.450  14.298
 3050SOL     OW10982  12.850   6.515   4.524
 3050SOL    HW110983  12.933   6.548   4.560
 3050SOL    HW210984  12.876   6.444   4.466
 3051SOL     OW10985   1.386   0.234  14.768
 3051SOL    HW110986   1.421   0.267  14.686
 3051SOL    HW210987   1.356   0.312  14.815
 3052SOL     OW10988   6.194   4.804   8.513
 3052SOL    HW110989   6.231   4.728   8.468
 3052SOL    HW210990   6.237   4.879   8.472
 3053SOL     OW10991   5.148   1.945  10.195
 3053SOL    HW110992   5.088   1.930  10.121
 3053SOL    HW210993   5.091   1.947  10.271
 3054SOL     OW10994   9.298   8.436  11.095
 3054SOL    HW110995   9.216   8.484  11.109
 3054SOL    HW210996   9.316   8.395  11.180
 3055SOL     OW10997  10.997   0.463   8.285
 3055SOL    HW110998  11.046   0.467   8.203
 3055SOL    HW210999  11.027   0.539   8.335
 3056SOL     OW11000  10.991   7.691   5.302
 3056SOL    HW111001  11.007   7.732   5.387
 3056SOL    HW211002  10.966   7.601   5.323
 3057SOL     OW11003   5.922   4.876  13.266
 3057SOL    HW111004   5.969   4.854  13.346
 3057SOL    HW211005   5.833   4.896  13.295
 3058SOL     OW11006   2.182   0.410   5.422
 3058SOL    HW111007   2.121   0.424   5.350
 3058SOL    HW211008   2.128   0.408   5.501
 3059SOL     OW11009   8.714   1.481   1.679
 3059SOL    HW111010   8.667   1.544   1.623
 3059SOL    HW211011   8.746   1.534   1.752
 3060SOL     OW11012   8.603  10.240   1.830
 3060SOL    HW111013   8.683  10.291   1.843
 3060SOL    HW211014   8.553  10.290   1.765
 3061SOL     OW11015   8.166   3.549  10.415
 3061SOL    HW111016   8.146   3.625  10.361
 3061SOL    HW211017   8.087   3.536  10.469
 3062SOL     OW11018   3.537  10.888   7.660
 3062SOL    HW111019   3.598  10.901   7.734
 3062SOL    HW211020   3.587  10.915   7.583
 3063SOL     OW11021   0.215   3.656   9.735
 3063SOL    HW111022   0.247   3.567   9.753
 3063SOL    HW211023   0.183   3.687   9.820
 3064SOL     OW11024   3.750  12.260   1.637
 3064SOL    HW111025   3.779  12.175   1.603
 3064SOL    HW211026   3.689  12.293   1.571
 3065SOL     OW11027   9.127   8.930   8.702
 3065SOL    HW111028   9.044   8.935   8.749
 3065SOL    HW211029   9.181   8.999   8.742
 3066SOL     OW11030   5.382   7.236   8.453
 3066SOL    HW111031   5.322   7.299   8.414
 3066SOL    HW211032   5.350   7.151   8.424
 3067SOL     OW11033  13.812  12.697  11.755
 3067SOL    HW111034  13.806  12.741  11.840
 3067SOL    HW211035  13.904  12.669  11.750
 3068SOL     OW11036   8.857  11.058  12.801
 3068SOL    HW111037   8.831  11.113  12.727
 3068SOL    HW211038   8.853  11.116  12.877
 3069SOL     OW11039   3.083  11.273  11.294
 3069SOL    HW111040   3.074  11.328  11.371
 3069SOL    HW211041   3.053  11.327  11.221
 3070SOL     OW11042   5.946   2.519  11.320
 3070SOL    HW111043   6.038   2.496  11.337
 3070SOL    HW211044   5.896   2.446  11.357
 3071SOL     OW11045  10.749  12.799   3.968
 3071SOL    HW111046  10.742  12.708   3.997
 3071SOL    HW211047  10.723  12.797   3.876
 3072SOL     OW11048  11.430   2.157   8.213
 3072SOL    HW111049  11.494   2.087   8.222
 3072SOL    HW211050  11.481   2.238   8.217
 3073SOL     OW11051  13.680  12.039   1.264
 3073SOL    HW111052  13.654  11.977   1.195
 3073SOL    HW211053  13.721  11.984   1.331
 3074SOL     OW11054  10.187   3.697   8.077
 3074SOL    HW111055  10.164   3.676   7.986
 3074SOL    HW211056  10.113   3.664   8.128
 3075SOL     OW11057   3.484   9.297  10.137
 3075SOL    HW111058   3.396   9.272  10.166
 3075SOL    HW211059   3.527   9.330  10.216
 3076SOL     OW11060   4.883   7.517  14.871
 3076SOL    HW111061   4.806   7.572  14.859
 3076SOL    HW211062   4.873   7.447  14.807
 3077SOL     OW11063  12.845   4.897   3.725
 3077SOL    HW111064  12.923   4.932   3.768
 3077SOL    HW211065  12.839   4.947   3.643
 3078SOL     OW11066   2.535  12.915   0.744
 3078SOL    HW111067   2.536  13.008   0.723
 3078SOL    HW211068   2.624  12.885   0.726
 3079SOL     OW11069   0.284  13.255   1.700
 3079SOL    HW111070   0.302  13.190   1.633
 3079SOL    HW211071   0.351  13.322   1.688
 3080SOL     OW11072  14.026   1.021   7.393
 3080SOL    HW111073  14.061   0.947   7.443
 3080SOL    HW211074  14.101   1.078   7.379
 3081SOL     OW11075   7.179   2.399  11.519
 3081SOL    HW111076   7.219   2.477  11.481
 3081SOL    HW211077   7.243   2.369  11.585
 3082SOL     OW11078  11.378   4.826  11.214
 3082SOL    HW111079  11.315   4.814  11.143
 3082SOL    HW211080  11.355   4.759  11.278
 3083SOL     OW11081   4.659  14.565  14.771
 3083SOL    HW111082   4.729  14.508  14.802
 3083SOL    HW211083   4.578  14.519  14.793
 3084SOL     OW11084   2.665   4.873  10.916
 3084SOL    HW111085   2.761   4.869  10.920
 3084SOL    HW211086   2.638   4.781  10.917
 3085SOL     OW11087   4.306  13.598   5.483
 3085SOL    HW111088   4.284  13.645   5.402
 3085SOL    HW211089   4.222  13.576   5.522
 3086SOL     OW11090   7.225   7.023   3.303
 3086SOL    HW111091   7.183   7.086   3.244
 3086SOL    HW211092   7.174   6.943   3.292
 3087SOL     OW11093   8.965   2.046  12.058
 3087SOL    HW111094   9.017   2.123  12.034
 3087SOL    HW211095   8.918   2.022  11.978
 3088SOL     OW11096  13.114   3.709  10.053
 3088SOL    HW111097  13.088   3.633  10.106
 3088SOL    HW211098  13.112   3.676   9.963
 3089SOL     OW11099  11.885  13.495   2.568
 3089SOL    HW111100  11.860  13.412   2.607
 3089SOL    HW211101  11.874  13.559   2.639
 3090SOL     OW11102   5.557  13.657   5.362
 3090SOL    HW111103   5.599  13.616   5.287
 3090SOL    HW211104   5.585  13.749   5.359
 3091SOL     OW11105   7.178   9.956   0.067
 3091SOL    HW111106   7.255   9.925   0.018
 3091SOL    HW211107   7.200  10.045   0.093
 3092SOL     OW11108   9.614  10.817   0.305
 3092SOL    HW111109   9.597  10.899   0.258
 3092SOL    HW211110   9.528  10.783   0.326
 3093SOL     OW11111   9.221   2.539   4.991
 3093SOL    HW111112   9.256   2.477   4.928
 3093SOL    HW211113   9.257   2.511   5.075
 3094SOL     OW11114  10.296  12.757   2.541
 3094SOL    HW111115  10.266  12.755   2.450
 3094SOL    HW211116  10.271  12.843   2.573
 3095SOL     OW11117   1.491   6.091   6.384
 3095SOL    HW111118   1.435   6.016   6.362
 3095SOL    HW211119   1.523   6.071   6.472
 3096SOL     OW11120   4.442   0.101   0.456
 3096SOL    HW111121   4.380   0.071   0.389
 3096SOL    HW211122   4.528   0.074   0.423
 3097SOL     OW11123   4.533   2.048  10.380
 3097SOL    HW111124   4.489   2.130  10.362
 3097SOL    HW211125   4.463   1.988  10.405
 3098SOL     OW11126   8.856   9.687  13.975
 3098SOL    HW111127   8.834   9.671  14.067
 3098SOL    HW211128   8.773   9.682  13.928
 3099SOL     OW11129   8.260  14.430  10.155
 3099SOL    HW111130   8.254  14.483  10.076
 3099SOL    HW211131   8.254  14.493  10.227
 3100SOL     OW11132  14.518   1.543  12.387
 3100SOL    HW111133  14.487   1.622  12.432
 3100SOL    HW211134  14.475   1.471  12.434
 3101SOL     OW11135   8.318   2.221   9.209
 3101SOL    HW111136   8.365   2.265   9.279
 3101SOL    HW211137   8.276   2.292   9.160
 3102SOL     OW11138  12.084   5.916  10.952
 3102SOL    HW111139  12.180   5.921  10.960
 3102SOL    HW211140  12.065   5.956  10.867
 3103SOL     OW11141   2.926  11.605   3.837
 3103SOL    HW111142   2.931  11.699   3.823
 3103SOL    HW211143   3.011  11.581   3.872
 3104SOL     OW11144  14.031  13.841  13.118
 3104SOL    HW111145  14.125  13.827  13.105
 3104SOL    HW211146  14.001  13.880  13.036
 3105SOL     OW11147   2.093   7.498   8.494
 3105SOL    HW111148   2.088   7.586   8.457
 3105SOL    HW211149   2.183   7.490   8.524
 3106SOL     OW11150   4.290  12.129  12.405
 3106SOL    HW111151   4.381  12.123  12.433
 3106SOL    HW211152   4.251  12.194  12.463
 3107SOL     OW11153   6.160   6.404   5.350
 3107SOL    HW111154   6.105   6.345   5.298
 3107SOL    HW211155   6.100   6.441   5.415
 3108SOL     OW11156   5.089   4.182  11.953
 3108SOL    HW111157   5.133   4.232  12.022
 3108SOL    HW211158   5.152   4.114  11.930
 3109SOL     OW11159   8.573  13.450  10.627
 3109SOL    HW111160   8.521  13.448  10.547
 3109SOL    HW211161   8.658  13.414  10.601
 3110SOL     OW11162   2.050   4.748   3.897
 3110SOL    HW111163   1.970   4.793   3.927
 3110SOL    HW211164   2.019   4.681   3.837
 3111SOL     OW11165   4.364   9.982   3.142
 3111SOL    HW111166   4.370   9.887   3.130
 3111SOL    HW211167   4.270  10.001   3.132
 3112SOL     OW11168   4.348  12.655   1.564
 3112SOL    HW111169   4.348  12.582   1.627
 3112SOL    HW211170   4.276  12.634   1.504
 3113SOL     OW11171   6.239   2.110   7.803
 3113SOL    HW111172   6.323   2.154   7.791
 3113SOL    HW211173   6.188   2.134   7.725
 3114SOL     OW11174   0.668   0.635   9.911
 3114SOL    HW111175   0.684   0.706   9.974
 3114SOL    HW211176   0.672   0.678   9.826
 3115SOL     OW11177  12.655   0.254  10.235
 3115SOL    HW111178  12.643   0.280  10.326
 3115SOL    HW211179  12.750   0.240  10.226
 3116SOL     OW11180   1.227   4.975   7.716
 3116SOL    HW111181   1.294   4.936   7.660
 3116SOL    HW211182   1.176   4.901   7.748
 3117SOL     OW11183  12.136   3.334   7.641
 3117SOL    HW111184  12.224   3.303   7.662
 3117SOL    HW211185  12.125   3.413   7.695
 3118SOL     OW11186   9.984  13.857  12.420
 3118SOL    HW111187  10.055  13.851  12.485
 3118SOL    HW211188   9.948  13.945  12.432
 3119SOL     OW11189   7.091  14.548   4.213
 3119SOL    HW111190   7.096  14.569   4.306
 3119SOL    HW211191   7.182  14.531   4.188
 3120SOL     OW11192   5.234  13.010  12.799
 3120SOL    HW111193   5.192  12.925  12.809
 3120SOL    HW211194   5.188  13.051  12.725
 3121SOL     OW11195   2.796  13.248  12.668
 3121SOL    HW111196   2.727  13.182  12.681
 3121SOL    HW211197   2.755  13.331  12.692
 3122SOL     OW11198   5.627   6.999  12.500
 3122SOL    HW111199   5.616   7.005  12.594
 3122SOL    HW211200   5.555   7.051  12.464
 3123SOL     OW11201  10.384   6.548   3.139
 3123SOL    HW111202  10.384   6.644   3.141
 3123SOL    HW211203  10.345   6.523   3.223
 3124SOL     OW11204   3.185   3.951  12.118
 3124SOL    HW111205   3.159   3.879  12.176
 3124SOL    HW211206   3.252   3.999  12.168
 3125SOL     OW11207  13.478  11.616   7.073
 3125SOL    HW111208  13.479  11.637   7.166
 3125SOL    HW211209  13.571  11.605   7.050
 3126SOL     OW11210   8.987   7.090   4.298
 3126SOL    HW111211   8.982   6.996   4.312
 3126SOL    HW211212   9.051   7.101   4.227
 3127SOL     OW11213   4.520   7.515  14.410
 3127SOL    HW111214   4.473   7.563  14.478
 3127SOL    HW211215   4.573   7.581  14.366
 3128SOL     OW11216   7.576   6.414   2.144
 3128SOL    HW111217   7.615   6.410   2.057
 3128SOL    HW211218   7.488   6.377   2.132
 3129SOL     OW11219   5.608  14.831   1.755
 3129SOL    HW111220   5.513  14.819   1.767
 3129SOL    HW211221   5.620   0.053   1.760
 3130SOL     OW11222   8.863   7.173   2.739
 3130SOL    HW111223   8.839   7.139   2.653
 3130SOL    HW211224   8.801   7.133   2.800
 3131SOL     OW11225  13.869   0.820   4.018
 3131SOL    HW111226  13.909   0.746   4.062
 3131SOL    HW211227  13.943   0.875   3.992
 3132SOL     OW11228   3.987   9.101   8.904
 3132SOL    HW111229   4.070   9.114   8.950
 3132SOL    HW211230   3.929   9.064   8.971
 3133SOL     OW11231   7.438   4.732   6.561
 3133SOL    HW111232   7.507   4.681   6.516
 3133SOL    HW211233   7.474   4.747   6.649
 3134SOL     OW11234   0.326  11.913   4.031
 3134SOL    HW111235   0.265  11.987   4.031
 3134SOL    HW211236   0.394  11.937   3.968
 3135SOL     OW11237  12.111  10.673   6.571
 3135SOL    HW111238  12.086  10.764   6.561
 3135SOL    HW211239  12.174  10.658   6.500
 3136SOL     OW11240   7.531   6.445   6.960
 3136SOL    HW111241   7.568   6.375   7.014
 3136SOL    HW211242   7.607   6.488   6.922
 3137SOL     OW11243  10.373   4.202   1.367
 3137SOL    HW111244  10.440   4.218   1.434
 3137SOL    HW211245  10.382   4.275   1.306
 3138SOL     OW11246   0.013  13.082  11.535
 3138SOL    HW111247  14.806  13.063  11.486
 3138SOL    HW211248   0.017  13.015  11.603
 3139SOL     OW11249   1.188  12.880   6.447
 3139SOL    HW111250   1.217  12.816   6.512
 3139SOL    HW211251   1.262  12.889   6.386
 3140SOL     OW11252   2.042  12.638   9.430
 3140SOL    HW111253   2.106  12.690   9.383
 3140SOL    HW211254   1.961  12.689   9.425
 3141SOL     OW11255  14.207   0.617   1.520
 3141SOL    HW111256  14.118   0.603   1.553
 3141SOL    HW211257  14.248   0.530   1.522
 3142SOL     OW11258   9.666  11.512  10.767
 3142SOL    HW111259   9.611  11.581  10.731
 3142SOL    HW211260   9.704  11.550  10.846
 3143SOL     OW11261   1.768   2.409   3.807
 3143SOL    HW111262   1.726   2.382   3.889
 3143SOL    HW211263   1.850   2.450   3.835
 3144SOL     OW11264   9.953   1.086   3.150
 3144SOL    HW111265   9.907   1.053   3.227
 3144SOL    HW211266   9.898   1.062   3.076
 3145SOL     OW11267   3.677   9.729   1.315
 3145SOL    HW111268   3.725   9.648   1.299
 3145SOL    HW211269   3.738   9.783   1.365
 3146SOL     OW11270   7.454  11.745   8.139
 3146SOL    HW111271   7.441  11.659   8.180
 3146SOL    HW211272   7.391  11.747   8.067
 3147SOL     OW11273   6.860   9.240  14.396
 3147SOL    HW111274   6.878   9.150  14.422
 3147SOL    HW211275   6.771   9.237  14.361
 3148SOL     OW11276   7.812  14.707   9.148
 3148SOL    HW111277   7.751  14.672   9.083
 3148SOL    HW211278   7.756  14.733   9.222
 3149SOL     OW11279   8.287  10.124   8.411
 3149SOL    HW111280   8.279  10.068   8.487
 3149SOL    HW211281   8.380  10.141   8.402
 3150SOL     OW11282   0.156   2.392   6.055
 3150SOL    HW111283   0.217   2.359   5.990
 3150SOL    HW211284   0.184   2.482   6.071
 3151SOL     OW11285   0.714  10.548   2.769
 3151SOL    HW111286   0.724  10.475   2.829
 3151SOL    HW211287   0.798  10.594   2.772
 3152SOL     OW11288   1.440  14.098   6.636
 3152SOL    HW111289   1.427  14.061   6.549
 3152SOL    HW211290   1.367  14.065   6.688
 3153SOL     OW11291   9.708   9.899   1.030
 3153SOL    HW111292   9.716   9.814   1.072
 3153SOL    HW211293   9.722   9.962   1.100
 3154SOL     OW11294  11.571  11.839  11.641
 3154SOL    HW111295  11.536  11.878  11.721
 3154SOL    HW211296  11.661  11.815  11.663
 3155SOL     OW11297  12.030  14.481  10.457
 3155SOL    HW111298  12.093  14.421  10.417
 3155SOL    HW211299  11.948  14.463  10.411
 3156SOL     OW11300   0.927  14.387  13.341
 3156SOL    HW111301   0.848  14.341  13.312
 3156SOL    HW211302   0.953  14.342  13.421
 3157SOL     OW11303  12.338  14.803   1.318
 3157SOL    HW111304  12.389  14.723   1.304
 3157SOL    HW211305  12.296  14.820   1.234
 3158SOL     OW11306   8.231   1.705  10.121
 3158SOL    HW111307   8.172   1.773  10.154
 3158SOL    HW211308   8.317   1.745  10.121
 3159SOL     OW11309   7.908  13.011   5.735
 3159SOL    HW111310   7.850  12.945   5.776
 3159SOL    HW211311   7.964  13.041   5.807
 3160SOL     OW11312   8.711   2.096   7.854
 3160SOL    HW111313   8.755   2.153   7.790
 3160SOL    HW211314   8.727   2.140   7.938
 3161SOL     OW11315   9.542   6.057  14.703
 3161SOL    HW111316   9.579   6.059  14.615
 3161SOL    HW211317   9.468   5.996  14.697
 3162SOL     OW11318  11.451  10.739   5.790
 3162SOL    HW111319  11.403  10.799   5.732
 3162SOL    HW211320  11.437  10.776   5.878
 3163SOL     OW11321   6.213   5.162  13.055
 3163SOL    HW111322   6.142   5.121  13.005
 3163SOL    HW211323   6.194   5.140  13.146
 3164SOL     OW11324  12.334   9.733  13.842
 3164SOL    HW111325  12.259   9.784  13.811
 3164SOL    HW211326  12.410   9.778  13.805
 3165SOL     OW11327   3.467   2.874   7.705
 3165SOL    HW111328   3.413   2.839   7.634
 3165SOL    HW211329   3.532   2.806   7.721
 3166SOL     OW11330   2.415   5.756  13.148
 3166SOL    HW111331   2.506   5.736  13.169
 3166SOL    HW211332   2.366   5.728  13.225
 3167SOL     OW11333   3.622   3.010   7.239
 3167SOL    HW111334   3.654   2.948   7.173
 3167SOL    HW211335   3.667   2.986   7.319
 3168SOL     OW11336  10.313   6.053  12.277
 3168SOL    HW111337  10.314   6.020  12.366
 3168SOL    HW211338  10.221   6.073  12.260
 3169SOL     OW11339   3.575   6.650   9.648
 3169SOL    HW111340   3.545   6.571   9.694
 3169SOL    HW211341   3.668   6.657   9.670
 3170SOL     OW11342   2.264   9.901  11.491
 3170SOL    HW111343   2.200   9.946  11.546
 3170SOL    HW211344   2.251   9.808  11.510
 3171SOL     OW11345  14.123   4.685   7.271
 3171SOL    HW111346  14.034   4.648   7.270
 3171SOL    HW211347  14.143   4.701   7.179
 3172SOL     OW11348   1.749   0.214   6.733
 3172SOL    HW111349   1.822   0.185   6.788
 3172SOL    HW211350   1.791   0.259   6.660
 3173SOL     OW11351   3.794  11.008  12.148
 3173SOL    HW111352   3.855  10.941  12.181
 3173SOL    HW211353   3.709  10.981  12.181
 3174SOL     OW11354   9.007  10.028  10.371
 3174SOL    HW111355   9.042   9.954  10.321
 3174SOL    HW211356   8.935  10.061  10.317
 3175SOL     OW11357   2.848   0.371   4.000
 3175SOL    HW111358   2.922   0.310   3.992
 3175SOL    HW211359   2.834   0.403   3.911
 3176SOL     OW11360   3.173   9.034   5.821
 3176SOL    HW111361   3.102   9.001   5.877
 3176SOL    HW211362   3.167   9.129   5.828
 3177SOL     OW11363   3.065   8.981  14.206
 3177SOL    HW111364   3.069   9.047  14.137
 3177SOL    HW211365   2.987   8.929  14.186
 3178SOL     OW11366   8.379   0.799  14.671
 3178SOL    HW111367   8.289   0.765  14.670
 3178SOL    HW211368   8.382   0.863  14.601
 3179SOL     OW11369  11.619   2.404  13.119
 3179SOL    HW111370  11.652   2.350  13.191
 3179SOL    HW211371  11.583   2.482  13.161
 3180SOL     OW11372  10.657  13.860   1.470
 3180SOL    HW111373  10.624  13.950   1.472
 3180SOL    HW211374  10.578  13.806   1.483
 3181SOL     OW11375   8.376  11.533   4.814
 3181SOL    HW111376   8.334  11.475   4.876
 3181SOL    HW211377   8.342  11.620   4.836
 3182SOL     OW11378  11.123   5.522   4.231
 3182SOL    HW111379  11.174   5.527   4.150
 3182SOL    HW211380  11.113   5.429   4.248
 3183SOL     OW11381   9.647   2.616   5.769
 3183SOL    HW111382   9.736   2.648   5.783
 3183SOL    HW211383   9.645   2.591   5.676
 3184SOL     OW11384   7.367   5.119   7.641
 3184SOL    HW111385   7.430   5.072   7.587
 3184SOL    HW211386   7.289   5.128   7.586
 3185SOL     OW11387   1.202   3.520   0.590
 3185SOL    HW111388   1.169   3.530   0.679
 3185SOL    HW211389   1.125   3.501   0.537
 3186SOL     OW11390   7.370  10.553  13.340
 3186SOL    HW111391   7.452  10.602  13.340
 3186SOL    HW211392   7.385  10.481  13.402
 3187SOL     OW11393   0.914   6.682   4.760
 3187SOL    HW111394   0.949   6.631   4.833
 3187SOL    HW211395   0.928   6.773   4.787
 3188SOL     OW11396   0.578   4.252  12.589
 3188SOL    HW111397   0.619   4.204  12.517
 3188SOL    HW211398   0.506   4.301  12.548
 3189SOL     OW11399   8.810   4.738   3.026
 3189SOL    HW111400   8.885   4.793   3.048
 3189SOL    HW211401   8.801   4.678   3.100
 3190SOL     OW11402  13.336   6.025  12.935
 3190SOL    HW111403  13.301   5.979  13.012
 3190SOL    HW211404  13.382   6.101  12.972
 3191SOL     OW11405   9.123   9.767   1.984
 3191SOL    HW111406   9.187   9.781   2.053
 3191SOL    HW211407   9.156   9.691   1.935
 3192SOL     OW11408   2.082   3.993   8.481
 3192SOL    HW111409   2.037   3.940   8.416
 3192SOL    HW211410   2.026   4.070   8.492
 3193SOL     OW11411   7.694  13.998   7.706
 3193SOL    HW111412   7.655  14.013   7.620
 3193SOL    HW211413   7.713  14.086   7.739
 3194SOL     OW11414   0.683  10.471   7.609
 3194SOL    HW111415   0.692  10.376   7.598
 3194SOL    HW211416   0.639  10.481   7.693
 3195SOL     OW11417   7.025  13.279  10.792
 3195SOL    HW111418   7.119  13.289  10.774
 3195SOL    HW211419   7.012  13.185  10.800
 3196SOL     OW11420   8.043   7.504   9.041
 3196SOL    HW111421   7.967   7.469   9.087
 3196SOL    HW211422   8.006   7.555   8.969
 3197SOL     OW11423  10.161   8.955   7.778
 3197SOL    HW111424  10.140   8.879   7.723
 3197SOL    HW211425  10.109   9.027   7.741
 3198SOL     OW11426   9.583   6.329   4.921
 3198SOL    HW111427   9.569   6.253   4.977
 3198SOL    HW211428   9.673   6.320   4.890
 3199SOL     OW11429   6.441   4.882   5.752
 3199SOL    HW111430   6.407   4.932   5.678
 3199SOL    HW211431   6.380   4.809   5.762
 3200SOL     OW11432  13.565   6.160  11.280
 3200SOL    HW111433  13.484   6.204  11.309
 3200SOL    HW211434  13.581   6.095  11.348
 3201SOL     OW11435  11.013   3.700   4.778
 3201SOL    HW111436  10.986   3.766   4.842
 3201SOL    HW211437  11.066   3.638   4.829
 3202SOL     OW11438   0.489   9.707   6.953
 3202SOL    HW111439   0.560   9.737   7.010
 3202SOL    HW211440   0.479   9.615   6.975
 3203SOL     OW11441   6.842  14.115  13.444
 3203SOL    HW111442   6.921  14.164  13.467
 3203SOL    HW211443   6.871  14.053  13.378
 3204SOL     OW11444  10.737   3.648  12.017
 3204SOL    HW111445  10.696   3.567  11.986
 3204SOL    HW211446  10.664   3.707  12.035
 3205SOL     OW11447   0.910   3.770   1.807
 3205SOL    HW111448   0.956   3.728   1.880
 3205SOL    HW211449   0.842   3.708   1.783
 3206SOL     OW11450  12.697   3.246   5.469
 3206SOL    HW111451  12.741   3.330   5.481
 3206SOL    HW211452  12.747   3.202   5.400
 3207SOL     OW11453   8.573  10.744   4.271
 3207SOL    HW111454   8.656  10.704   4.246
 3207SOL    HW211455   8.562  10.818   4.210
 3208SOL     OW11456   5.591  14.098   3.925
 3208SOL    HW111457   5.617  14.144   4.005
 3208SOL    HW211458   5.660  14.120   3.862
 3209SOL     OW11459  11.609  14.432   5.404
 3209SOL    HW111460  11.516  14.452   5.395
 3209SOL    HW211461  11.612  14.337   5.416
 3210SOL     OW11462  14.764  13.902   2.820
 3210SOL    HW111463  14.833  13.883   2.757
 3210SOL    HW211464  14.684  13.869   2.778
 3211SOL     OW11465   8.817   6.609   7.497
 3211SOL    HW111466   8.789   6.648   7.414
 3211SOL    HW211467   8.894   6.660   7.522
 3212SOL     OW11468  12.393   2.556   9.296
 3212SOL    HW111469  12.402   2.528   9.387
 3212SOL    HW211470  12.471   2.520   9.253
 3213SOL     OW11471  11.762  10.177   1.220
 3213SOL    HW111472  11.835  10.157   1.161
 3213SOL    HW211473  11.804  10.188   1.306
 3214SOL     OW11474   1.652   3.945   3.351
 3214SOL    HW111475   1.615   3.956   3.263
 3214SOL    HW211476   1.595   3.997   3.408
 3215SOL     OW11477   5.421  10.700  11.237
 3215SOL    HW111478   5.466  10.667  11.159
 3215SOL    HW211479   5.440  10.793  11.237
 3216SOL     OW11480  10.302  10.969  12.975
 3216SOL    HW111481  10.208  10.957  12.963
 3216SOL    HW211482  10.337  10.977  12.886
 3217SOL     OW11483  11.977   7.456  11.362
 3217SOL    HW111484  11.991   7.506  11.281
 3217SOL    HW211485  12.064   7.425  11.386
 3218SOL     OW11486  14.707  11.845   9.874
 3218SOL    HW111487  14.657  11.823   9.796
 3218SOL    HW211488  14.727  11.761   9.915
 3219SOL     OW11489   4.841   2.941   2.118
 3219SOL    HW111490   4.832   2.848   2.096
 3219SOL    HW211491   4.875   2.981   2.038
 3220SOL     OW11492   0.763   4.767   8.028
 3220SOL    HW111493   0.832   4.813   8.077
 3220SOL    HW211494   0.699   4.835   8.007
 3221SOL     OW11495   9.190   2.203   3.378
 3221SOL    HW111496   9.239   2.242   3.450
 3221SOL    HW211497   9.117   2.263   3.364
 3222SOL     OW11498  12.072  10.031  11.022
 3222SOL    HW111499  12.166  10.024  11.007
 3222SOL    HW211500  12.058  10.123  11.044
 3223SOL     OW11501   5.091   7.429  11.487
 3223SOL    HW111502   5.185   7.448  11.483
 3223SOL    HW211503   5.058   7.486  11.557
 3224SOL     OW11504  10.366  14.294   9.615
 3224SOL    HW111505  10.359  14.389   9.602
 3224SOL    HW211506  10.276  14.262   9.608
 3225SOL     OW11507  10.677  14.780   8.559
 3225SOL    HW111508  10.751  14.723   8.579
 3225SOL    HW211509  10.673  14.782   8.464
 3226SOL     OW11510   1.854   1.363  14.797
 3226SOL    HW111511   1.905   1.357  14.717
 3226SOL    HW211512   1.780   1.304  14.783
 3227SOL     OW11513  14.626  13.161   9.326
 3227SOL    HW111514  14.666  13.083   9.289
 3227SOL    HW211515  14.608  13.138   9.417
 3228SOL     OW11516   4.786  12.654   8.837
 3228SOL    HW111517   4.708  12.668   8.891
 3228SOL    HW211518   4.755  12.603   8.763
 3229SOL     OW11519   8.346  13.614  14.471
 3229SOL    HW111520   8.303  13.594  14.388
 3229SOL    HW211521   8.318  13.544  14.530
 3230SOL     OW11522   9.549   4.489   4.242
 3230SOL    HW111523   9.561   4.476   4.336
 3230SOL    HW211524   9.484   4.560   4.236
 3231SOL     OW11525   2.097  12.155   4.425
 3231SOL    HW111526   2.116  12.104   4.504
 3231SOL    HW211527   2.180  12.197   4.403
 3232SOL     OW11528   6.051   1.816  14.517
 3232SOL    HW111529   6.107   1.767  14.577
 3232SOL    HW211530   5.973   1.762  14.507
 3233SOL     OW11531   2.600   6.678  10.257
 3233SOL    HW111532   2.625   6.754  10.309
 3233SOL    HW211533   2.646   6.691  10.173
 3234SOL     OW11534   0.026   8.911   8.053
 3234SOL    HW111535  14.814   8.955   8.042
 3234SOL    HW211536   0.003   8.821   8.076
 3235SOL     OW11537  12.131   8.685   5.812
 3235SOL    HW111538  12.037   8.686   5.829
 3235SOL    HW211539  12.141   8.625   5.738
 3236SOL     OW11540   7.433  10.194  13.843
 3236SOL    HW111541   7.380  10.118  13.820
 3236SOL    HW211542   7.500  10.198  13.774
 3237SOL     OW11543  10.927   1.939   7.184
 3237SOL    HW111544  10.945   2.033   7.188
 3237SOL    HW211545  11.013   1.897   7.185
 3238SOL     OW11546   6.663  11.172   9.927
 3238SOL    HW111547   6.645  11.233   9.998
 3238SOL    HW211548   6.639  11.086   9.962
 3239SOL     OW11549  10.459   3.461   1.114
 3239SOL    HW111550  10.400   3.500   1.050
 3239SOL    HW211551  10.539   3.514   1.108
 3240SOL     OW11552  10.040  13.600  11.061
 3240SOL    HW111553  10.090  13.682  11.061
 3240SOL    HW211554  10.065  13.557  11.142
 3241SOL     OW11555  11.369   2.427   6.925
 3241SOL    HW111556  11.384   2.456   7.015
 3241SOL    HW211557  11.317   2.347   6.934
 3242SOL     OW11558   7.513   4.809  10.069
 3242SOL    HW111559   7.533   4.819  10.162
 3242SOL    HW211560   7.479   4.895  10.042
 3243SOL     OW11561   5.551   8.615   4.875
 3243SOL    HW111562   5.601   8.534   4.887
 3243SOL    HW211563   5.460   8.590   4.891
 3244SOL     OW11564   6.074   0.078   4.596
 3244SOL    HW111565   6.167   0.100   4.594
 3244SOL    HW211566   6.030   0.154   4.560
 3245SOL     OW11567   6.708   3.237   7.563
 3245SOL    HW111568   6.721   3.256   7.656
 3245SOL    HW211569   6.691   3.143   7.559
 3246SOL     OW11570  11.489   3.914   8.951
 3246SOL    HW111571  11.517   3.989   9.003
 3246SOL    HW211572  11.519   3.838   9.001
 3247SOL     OW11573  11.248   1.006   6.065
 3247SOL    HW111574  11.251   0.925   6.014
 3247SOL    HW211575  11.279   1.074   6.005
 3248SOL     OW11576   3.221  14.600   8.658
 3248SOL    HW111577   3.236  14.551   8.738
 3248SOL    HW211578   3.135  14.640   8.670
 3249SOL     OW11579  14.033  11.333   2.561
 3249SOL    HW111580  14.088  11.327   2.639
 3249SOL    HW211581  13.954  11.284   2.583
 3250SOL     OW11582   2.225   9.194   7.202
 3250SOL    HW111583   2.292   9.227   7.262
 3250SOL    HW211584   2.264   9.204   7.115
 3251SOL     OW11585  12.755  12.099  12.183
 3251SOL    HW111586  12.672  12.124  12.142
 3251SOL    HW211587  12.791  12.182  12.215
 3252SOL     OW11588   4.903   5.717   1.316
 3252SOL    HW111589   4.934   5.657   1.384
 3252SOL    HW211590   4.896   5.664   1.238
 3253SOL     OW11591  13.012   6.419   7.830
 3253SOL    HW111592  13.091   6.465   7.859
 3253SOL    HW211593  13.028   6.401   7.737
 3254SOL     OW11594   1.755   2.870   5.620
 3254SOL    HW111595   1.812   2.896   5.692
 3254SOL    HW211596   1.740   2.950   5.571
 3255SOL     OW11597   0.764   4.609   1.817
 3255SOL    HW111598   0.813   4.676   1.770
 3255SOL    HW211599   0.673   4.638   1.814
 3256SOL     OW11600  10.126  13.146   2.443
 3256SOL    HW111601  10.040  13.135   2.403
 3256SOL    HW211602  10.188  13.146   2.370
 3257SOL     OW11603   9.705   0.948   4.826
 3257SOL    HW111604   9.627   1.001   4.810
 3257SOL    HW211605   9.671   0.864   4.856
 3258SOL     OW11606   1.752   4.879  12.575
 3258SOL    HW111607   1.744   4.840  12.488
 3258SOL    HW211608   1.843   4.909  12.580
 3259SOL     OW11609   5.682   3.913   5.099
 3259SOL    HW111610   5.686   3.920   5.003
 3259SOL    HW211611   5.594   3.945   5.121
 3260SOL     OW11612   5.564  10.878  12.968
 3260SOL    HW111613   5.652  10.914  12.978
 3260SOL    HW211614   5.512  10.950  12.932
 3261SOL     OW11615   8.691   5.860   8.438
 3261SOL    HW111616   8.610   5.822   8.405
 3261SOL    HW211617   8.719   5.801   8.508
 3262SOL     OW11618   3.237  11.634   0.524
 3262SOL    HW111619   3.221  11.575   0.450
 3262SOL    HW211620   3.259  11.718   0.482
 3263SOL     OW11621   6.436   9.437  11.913
 3263SOL    HW111622   6.355   9.389  11.899
 3263SOL    HW211623   6.417   9.527  11.887
 3264SOL     OW11624  11.143  14.102  10.165
 3264SOL    HW111625  11.077  14.041  10.131
 3264SOL    HW211626  11.155  14.166  10.094
 3265SOL     OW11627  12.083  12.786   6.963
 3265SOL    HW111628  12.151  12.850   6.941
 3265SOL    HW211629  12.119  12.702   6.934
 3266SOL     OW11630  11.044  14.422   5.975
 3266SOL    HW111631  10.967  14.365   5.969
 3266SOL    HW211632  11.057  14.435   6.069
 3267SOL     OW11633   4.374   4.287   4.578
 3267SOL    HW111634   4.414   4.343   4.644
 3267SOL    HW211635   4.422   4.204   4.584
 3268SOL     OW11636   8.865   1.567   7.732
 3268SOL    HW111637   8.813   1.625   7.788
 3268SOL    HW211638   8.836   1.479   7.754
 3269SOL     OW11639   7.848   3.334   0.859
 3269SOL    HW111640   7.936   3.327   0.822
 3269SOL    HW211641   7.846   3.270   0.931
 3270SOL     OW11642   6.758   6.373   5.869
 3270SOL    HW111643   6.760   6.318   5.947
 3270SOL    HW211644   6.680   6.345   5.822
 3271SOL     OW11645   9.554   4.380   3.774
 3271SOL    HW111646   9.580   4.332   3.852
 3271SOL    HW211647   9.546   4.314   3.705
 3272SOL     OW11648   4.636   4.549   3.803
 3272SOL    HW111649   4.680   4.553   3.718
 3272SOL    HW211650   4.684   4.611   3.858
 3273SOL     OW11651  14.108   6.892   7.059
 3273SOL    HW111652  14.058   6.955   7.110
 3273SOL    HW211653  14.160   6.844   7.124
 3274SOL     OW11654   5.821   4.560   1.747
 3274SOL    HW111655   5.891   4.501   1.777
 3274SOL    HW211656   5.846   4.646   1.780
 3275SOL     OW11657   8.675   9.157  12.413
 3275SOL    HW111658   8.662   9.240  12.369
 3275SOL    HW211659   8.754   9.169  12.466
 3276SOL     OW11660  14.843   5.954   8.522
 3276SOL    HW111661   0.039   5.967   8.586
 3276SOL    HW211662  14.772   6.012   8.550
 3277SOL     OW11663   3.284   3.673   6.285
 3277SOL    HW111664   3.217   3.739   6.271
 3277SOL    HW211665   3.365   3.713   6.253
 3278SOL     OW11666   2.378   7.537  10.781
 3278SOL    HW111667   2.375   7.631  10.797
 3278SOL    HW211668   2.450   7.505  10.837
 3279SOL     OW11669   0.300   2.593   1.021
 3279SOL    HW111670   0.337   2.505   1.031
 3279SOL    HW211671   0.235   2.584   0.952
 3280SOL     OW11672   7.866   7.507   1.328
 3280SOL    HW111673   7.896   7.457   1.252
 3280SOL    HW211674   7.836   7.441   1.390
 3281SOL     OW11675   9.064   3.181  10.012
 3281SOL    HW111676   9.009   3.108   9.982
 3281SOL    HW211677   9.105   3.214   9.933
 3282SOL     OW11678   8.714   4.065   2.387
 3282SOL    HW111679   8.679   4.129   2.448
 3282SOL    HW211680   8.804   4.095   2.370
 3283SOL     OW11681   9.200   8.409   4.453
 3283SOL    HW111682   9.225   8.384   4.542
 3283SOL    HW211683   9.130   8.348   4.429
 3284SOL     OW11684   7.663   4.450   2.639
 3284SOL    HW111685   7.699   4.372   2.596
 3284SOL    HW211686   7.642   4.421   2.728
 3285SOL     OW11687  10.368   3.304   0.809
 3285SOL    HW111688  10.378   3.237   0.876
 3285SOL    HW211689  10.285   3.283   0.766
 3286SOL     OW11690  12.338  10.495  11.120
 3286SOL    HW111691  12.309  10.449  11.199
 3286SOL    HW211692  12.299  10.447  11.048
 3287SOL     OW11693   1.134  12.358  11.414
 3287SOL    HW111694   1.088  12.438  11.390
 3287SOL    HW211695   1.101  12.337  11.502
 3288SOL     OW11696  14.791   3.411  10.576
 3288SOL    HW111697  14.750   3.458  10.503
 3288SOL    HW211698  14.717   3.378  10.627
 3289SOL     OW11699  13.179   5.727  12.144
 3289SOL    HW111700  13.240   5.654  12.131
 3289SOL    HW211701  13.206   5.765  12.228
 3290SOL     OW11702   2.416  13.223   6.643
 3290SOL    HW111703   2.423  13.318   6.649
 3290SOL    HW211704   2.481  13.197   6.579
 3291SOL     OW11705   5.230  10.431   8.030
 3291SOL    HW111706   5.152  10.411   7.977
 3291SOL    HW211707   5.245  10.525   8.014
 3292SOL     OW11708   0.384   3.995  13.987
 3292SOL    HW111709   0.323   4.061  13.954
 3292SOL    HW211710   0.354   3.976  14.076
 3293SOL     OW11711  11.117   0.468  10.195
 3293SOL    HW111712  11.021   0.477  10.201
 3293SOL    HW211713  11.135   0.380  10.226
 3294SOL     OW11714  11.868  10.338   7.002
 3294SOL    HW111715  11.935  10.386   7.052
 3294SOL    HW211716  11.918  10.271   6.954
 3295SOL     OW11717   5.828   8.492  12.487
 3295SOL    HW111718   5.913   8.504  12.444
 3295SOL    HW211719   5.845   8.508  12.579
 3296SOL     OW11720   2.573   1.680   0.748
 3296SOL    HW111721   2.656   1.699   0.791
 3296SOL    HW211722   2.594   1.678   0.655
 3297SOL     OW11723  12.371   3.859  13.593
 3297SOL    HW111724  12.331   3.915  13.660
 3297SOL    HW211725  12.443   3.912  13.558
 3298SOL     OW11726   7.806  12.371   7.632
 3298SOL    HW111727   7.780  12.288   7.592
 3298SOL    HW211728   7.792  12.358   7.726
 3299SOL     OW11729   0.628   1.807  12.985
 3299SOL    HW111730   0.590   1.891  13.013
 3299SOL    HW211731   0.552   1.751  12.968
 3300SOL     OW11732  10.373  13.487  13.687
 3300SOL    HW111733  10.397  13.567  13.641
 3300SOL    HW211734  10.349  13.426  13.617
 3301SOL     OW11735   0.201  13.065   8.170
 3301SOL    HW111736   0.123  13.108   8.204
 3301SOL    HW211737   0.266  13.135   8.164
 3302SOL     OW11738   7.598   1.799  14.844
 3302SOL    HW111739   7.584   1.852  14.765
 3302SOL    HW211740   7.548   1.843   0.039
 3303SOL     OW11741   3.912   4.413   7.728
 3303SOL    HW111742   4.006   4.429   7.718
 3303SOL    HW211743   3.875   4.498   7.749
 3304SOL     OW11744  10.904   4.526   9.402
 3304SOL    HW111745  10.965   4.553   9.334
 3304SOL    HW211746  10.846   4.602   9.414
 3305SOL     OW11747   0.386   1.465   9.175
 3305SOL    HW111748   0.448   1.393   9.189
 3305SOL    HW211749   0.419   1.511   9.097
 3306SOL     OW11750   8.972  14.284  13.966
 3306SOL    HW111751   9.024  14.217  14.010
 3306SOL    HW211752   9.019  14.366  13.984
 3307SOL     OW11753  13.126   2.870  10.619
 3307SOL    HW111754  13.125   2.954  10.572
 3307SOL    HW211755  13.148   2.805  10.552
 3308SOL     OW11756  10.079   1.552   6.605
 3308SOL    HW111757  10.080   1.541   6.510
 3308SOL    HW211758  10.019   1.486   6.637
 3309SOL     OW11759  13.941   8.718   8.541
 3309SOL    HW111760  13.994   8.638   8.540
 3309SOL    HW211761  13.980   8.772   8.610
 3310SOL     OW11762   6.748   7.081  14.110
 3310SOL    HW111763   6.669   7.046  14.068
 3310SOL    HW211764   6.715   7.143  14.174
 3311SOL     OW11765  14.298   2.401   2.384
 3311SOL    HW111766  14.301   2.393   2.480
 3311SOL    HW211767  14.376   2.451   2.362
 3312SOL     OW11768   8.109   2.223  10.386
 3312SOL    HW111769   8.129   2.178  10.468
 3312SOL    HW211770   8.069   2.305  10.413
 3313SOL     OW11771   6.863  14.558   5.429
 3313SOL    HW111772   6.802  14.528   5.362
 3313SOL    HW211773   6.909  14.631   5.388
 3314SOL     OW11774   4.093  12.144   0.172
 3314SOL    HW111775   4.033  12.155   0.098
 3314SOL    HW211776   4.179  12.169   0.138
 3315SOL     OW11777   2.743   7.439  12.785
 3315SOL    HW111778   2.792   7.408  12.708
 3315SOL    HW211779   2.811   7.461  12.848
 3316SOL     OW11780   4.878  10.373   8.433
 3316SOL    HW111781   4.819  10.331   8.370
 3316SOL    HW211782   4.862  10.326   8.515
 3317SOL     OW11783   1.189  13.174  11.802
 3317SOL    HW111784   1.105  13.216  11.824
 3317SOL    HW211785   1.229  13.154  11.886
 3318SOL     OW11786   4.446  12.066   3.126
 3318SOL    HW111787   4.397  12.148   3.138
 3318SOL    HW211788   4.378  11.999   3.117
 3319SOL     OW11789   5.812   4.691  11.665
 3319SOL    HW111790   5.765   4.755  11.610
 3319SOL    HW211791   5.856   4.633  11.603
 3320SOL     OW11792  10.974   0.147  12.423
 3320SOL    HW111793  10.995   0.228  12.375
 3320SOL    HW211794  11.033   0.082  12.386
 3321SOL     OW11795   5.482   2.287   7.792
 3321SOL    HW111796   5.460   2.380   7.800
 3321SOL    HW211797   5.398   2.243   7.786
 3322SOL     OW11798  11.581   8.804  14.438
 3322SOL    HW111799  11.654   8.819  14.498
 3322SOL    HW211800  11.505   8.839  14.484
 3323SOL     OW11801   0.424   3.397  12.069
 3323SOL    HW111802   0.394   3.315  12.030
 3323SOL    HW211803   0.403   3.388  12.162
 3324SOL     OW11804   2.071   0.764   2.794
 3324SOL    HW111805   2.159   0.802   2.795
 3324SOL    HW211806   2.022   0.818   2.856
 3325SOL     OW11807   8.283  11.993  10.757
 3325SOL    HW111808   8.373  12.013  10.786
 3325SOL    HW211809   8.235  11.978  10.838
 3326SOL     OW11810   1.581  13.546   7.428
 3326SOL    HW111811   1.577  13.549   7.332
 3326SOL    HW211812   1.490  13.532   7.455
 3327SOL     OW11813   4.337  10.866   2.194
 3327SOL    HW111814   4.275  10.929   2.157
 3327SOL    HW211815   4.323  10.871   2.289
 3328SOL     OW11816  13.663   8.001   6.830
 3328SOL    HW111817  13.594   8.024   6.767
 3328SOL    HW211818  13.685   8.083   6.873
 3329SOL     OW11819  14.688  13.043   0.872
 3329SOL    HW111820  14.695  12.950   0.890
 3329SOL    HW211821  14.624  13.075   0.936
 3330SOL     OW11822   2.945  13.217   8.421
 3330SOL    HW111823   2.913  13.293   8.469
 3330SOL    HW211824   3.029  13.245   8.384
 3331SOL     OW11825   8.090  10.437  10.165
 3331SOL    HW111826   8.121  10.377  10.096
 3331SOL    HW211827   8.021  10.387  10.210
 3332SOL     OW11828   6.874   5.939   6.115
 3332SOL    HW111829   6.885   5.969   6.205
 3332SOL    HW211830   6.953   5.886   6.098
 3333SOL     OW11831   7.683  12.217   6.654
 3333SOL    HW111832   7.758  12.239   6.599
 3333SOL    HW211833   7.608  12.258   6.611
 3334SOL     OW11834   1.903  13.447  11.710
 3334SOL    HW111835   1.838  13.493  11.763
 3334SOL    HW211836   1.853  13.417  11.634
 3335SOL     OW11837   7.363   4.437   0.127
 3335SOL    HW111838   7.309   4.400   0.056
 3335SOL    HW211839   7.414   4.363   0.159
 3336SOL     OW11840  12.775  13.775   5.463
 3336SOL    HW111841  12.730  13.845   5.416
 3336SOL    HW211842  12.814  13.721   5.395
 3337SOL     OW11843  10.147   3.049  14.199
 3337SOL    HW111844  10.168   3.135  14.235
 3337SOL    HW211845  10.221   2.994  14.224
 3338SOL     OW11846   8.473  14.144   9.959
 3338SOL    HW111847   8.457  14.178   9.871
 3338SOL    HW211848   8.531  14.070   9.947
 3339SOL     OW11849   5.338   1.698   4.410
 3339SOL    HW111850   5.343   1.776   4.355
 3339SOL    HW211851   5.339   1.731   4.500
 3340SOL     OW11852   7.851   0.437  10.199
 3340SOL    HW111853   7.796   0.514  10.216
 3340SOL    HW211854   7.822   0.372  10.263
 3341SOL     OW11855  13.433   1.703   1.525
 3341SOL    HW111856  13.464   1.612   1.532
 3341SOL    HW211857  13.480   1.749   1.595
 3342SOL     OW11858  14.846   6.838  10.479
 3342SOL    HW111859   0.045   6.818  10.538
 3342SOL    HW211860  14.843   6.763  10.419
 3343SOL     OW11861   9.818   6.050  10.857
 3343SOL    HW111862   9.854   6.002  10.932
 3343SOL    HW211863   9.731   6.077  10.885
 3344SOL     OW11864  13.052   7.504   0.181
 3344SOL    HW111865  12.993   7.446   0.133
 3344SOL    HW211866  13.006   7.588   0.182
 3345SOL     OW11867   5.731  14.313   1.286
 3345SOL    HW111868   5.813  14.319   1.335
 3345SOL    HW211869   5.684  14.394   1.308
 3346SOL     OW11870   1.361   2.279   6.929
 3346SOL    HW111871   1.285   2.319   6.970
 3346SOL    HW211872   1.427   2.349   6.926
 3347SOL     OW11873  12.475  14.538  12.038
 3347SOL    HW111874  12.443  14.622  12.005
 3347SOL    HW211875  12.437  14.473  11.979
 3348SOL     OW11876   7.963   9.834   2.438
 3348SOL    HW111877   8.050   9.867   2.416
 3348SOL    HW211878   7.930   9.796   2.357
 3349SOL     OW11879  14.706  10.262  12.023
 3349SOL    HW111880  14.668  10.228  12.103
 3349SOL    HW211881  14.796  10.285  12.046
 3350SOL     OW11882   1.274   9.659   4.752
 3350SOL    HW111883   1.217   9.592   4.790
 3350SOL    HW211884   1.326   9.611   4.687
 3351SOL     OW11885  10.814   8.683   3.265
 3351SOL    HW111886  10.879   8.652   3.202
 3351SOL    HW211887  10.862   8.742   3.323
 3352SOL     OW11888   1.310  11.671  13.120
 3352SOL    HW111889   1.401  11.680  13.094
 3352SOL    HW211890   1.263  11.657  13.037
 3353SOL     OW11891  10.626   8.120  11.750
 3353SOL    HW111892  10.636   8.193  11.690
 3353SOL    HW211893  10.637   8.159  11.837
 3354SOL     OW11894  10.986  13.625  13.095
 3354SOL    HW111895  10.956  13.534  13.094
 3354SOL    HW211896  11.041  13.631  13.174
 3355SOL     OW11897   3.060   3.824   2.000
 3355SOL    HW111898   3.000   3.840   2.072
 3355SOL    HW211899   3.009   3.843   1.921
 3356SOL     OW11900   9.944  10.372   8.152
 3356SOL    HW111901   9.950  10.378   8.057
 3356SOL    HW211902   9.926  10.280   8.170
 3357SOL     OW11903  13.833   4.874  12.863
 3357SOL    HW111904  13.833   4.940  12.793
 3357SOL    HW211905  13.740   4.853  12.875
 3358SOL     OW11906   5.947  13.508   1.047
 3358SOL    HW111907   6.014  13.467   1.101
 3358SOL    HW211908   5.982  13.594   1.026
 3359SOL     OW11909   5.624  11.378   0.706
 3359SOL    HW111910   5.537  11.338   0.707
 3359SOL    HW211911   5.640  11.404   0.797
 3360SOL     OW11912   0.855   2.348   4.638
 3360SOL    HW111913   0.814   2.419   4.688
 3360SOL    HW211914   0.945   2.346   4.670
 3361SOL     OW11915  11.471   1.575   5.358
 3361SOL    HW111916  11.492   1.668   5.348
 3361SOL    HW211917  11.397   1.573   5.419
 3362SOL     OW11918  12.344   5.628  14.764
 3362SOL    HW111919  12.387   5.691  14.707
 3362SOL    HW211920  12.254   5.660  14.772
 3363SOL     OW11921   3.262  10.970   8.511
 3363SOL    HW111922   3.342  11.015   8.538
 3363SOL    HW211923   3.243  10.910   8.583
 3364SOL     OW11924   7.849   0.816   4.356
 3364SOL    HW111925   7.921   0.841   4.298
 3364SOL    HW211926   7.794   0.895   4.359
 3365SOL     OW11927  12.339   3.884   0.759
 3365SOL    HW111928  12.248   3.867   0.785
 3365SOL    HW211929  12.335   3.902   0.665
 3366SOL     OW11930  11.986   7.992   5.517
 3366SOL    HW111931  11.984   7.897   5.531
 3366SOL    HW211932  12.047   8.025   5.583
 3367SOL     OW11933   0.163  13.549   5.491
 3367SOL    HW111934   0.244  13.498   5.482
 3367SOL    HW211935   0.179  13.628   5.441
 3368SOL     OW11936   3.894  14.509   5.627
 3368SOL    HW111937   3.863  14.532   5.714
 3368SOL    HW211938   3.832  14.551   5.568
 3369SOL     OW11939  14.488   0.929  14.037
 3369SOL    HW111940  14.437   0.946  13.959
 3369SOL    HW211941  14.446   0.982  14.105
 3370SOL     OW11942  12.446   9.617   1.509
 3370SOL    HW111943  12.483   9.610   1.421
 3370SOL    HW211944  12.357   9.652   1.494
 3371SOL     OW11945  14.567  13.653  11.632
 3371SOL    HW111946  14.657  13.649  11.665
 3371SOL    HW211947  14.577  13.668  11.538
 3372SOL     OW11948  10.600  12.595   5.517
 3372SOL    HW111949  10.626  12.663   5.579
 3372SOL    HW211950  10.616  12.513   5.564
 3373SOL     OW11951  10.414   1.868   0.099
 3373SOL    HW111952  10.392   1.823   0.180
 3373SOL    HW211953  10.346   1.934   0.089
 3374SOL     OW11954   2.718   0.446  13.152
 3374SOL    HW111955   2.762   0.514  13.201
 3374SOL    HW211956   2.638   0.488  13.119
 3375SOL     OW11957  13.675   8.761   8.602
 3375SOL    HW111958  13.642   8.788   8.516
 3375SOL    HW211959  13.762   8.725   8.583
 3376SOL     OW11960   4.947  13.104   2.035
 3376SOL    HW111961   5.022  13.058   2.074
 3376SOL    HW211962   4.966  13.103   1.941
 3377SOL     OW11963  12.484   6.519  10.083
 3377SOL    HW111964  12.509   6.472  10.004
 3377SOL    HW211965  12.479   6.451  10.151
 3378SOL     OW11966  10.611   1.608   5.626
 3378SOL    HW111967  10.653   1.648   5.702
 3378SOL    HW211968  10.534   1.662   5.609
 3379SOL     OW11969   1.151   0.289   8.674
 3379SOL    HW111970   1.127   0.378   8.701
 3379SOL    HW211971   1.228   0.301   8.617
 3380SOL     OW11972   5.290   7.179   7.724
 3380SOL    HW111973   5.369   7.144   7.766
 3380SOL    HW211974   5.313   7.270   7.705
 3381SOL     OW11975  13.873  12.386   6.216
 3381SOL    HW111976  13.810  12.447   6.254
 3381SOL    HW211977  13.890  12.322   6.285
 3382SOL     OW11978   5.527   5.554  12.178
 3382SOL    HW111979   5.468   5.610  12.228
 3382SOL    HW211980   5.503   5.465  12.204
 3383SOL     OW11981   9.382  14.452   5.826
 3383SOL    HW111982   9.470  14.423   5.847
 3383SOL    HW211983   9.327  14.416   5.895
 3384SOL     OW11984   4.443   3.082   6.271
 3384SOL    HW111985   4.533   3.102   6.297
 3384SOL    HW211986   4.431   3.128   6.188
 3385SOL     OW11987  10.132   9.547   6.156
 3385SOL    HW111988  10.154   9.612   6.090
 3385SOL    HW211989  10.213   9.499   6.171
 3386SOL     OW11990   0.419   1.470  13.291
 3386SOL    HW111991   0.440   1.500  13.380
 3386SOL    HW211992   0.504   1.459  13.249
 3387SOL     OW11993  13.467   3.603   0.573
 3387SOL    HW111994  13.372   3.596   0.582
 3387SOL    HW211995  13.500   3.594   0.663
 3388SOL     OW11996   0.603  12.065  12.582
 3388SOL    HW111997   0.597  12.062  12.487
 3388SOL    HW211998   0.601  11.973  12.609
 3389SOL     OW11999  10.942   2.314   7.710
 3389SOL    HW112000  11.002   2.241   7.691
 3389SOL    HW212001  10.862   2.272   7.741
 3390SOL     OW12002   6.961   3.118   0.383
 3390SOL    HW112003   6.913   3.124   0.465
 3390SOL    HW212004   7.039   3.067   0.404
 3391SOL     OW12005   5.133   0.672  11.432
 3391SOL    HW112006   5.176   0.667  11.517
 3391SOL    HW212007   5.041   0.691  11.452
 3392SOL     OW12008  13.109   2.347   2.218
 3392SOL    HW112009  13.171   2.420   2.224
 3392SOL    HW212010  13.076   2.350   2.128
 3393SOL     OW12011  11.511   9.526  14.266
 3393SOL    HW112012  11.462   9.503  14.187
 3393SOL    HW212013  11.461   9.598  14.305
 3394SOL     OW12014  14.662   6.129   3.981
 3394SOL    HW112015  14.633   6.039   3.967
 3394SOL    HW212016  14.600   6.164   4.046
 3395SOL     OW12017  12.229   1.800   5.540
 3395SOL    HW112018  12.228   1.705   5.557
 3395SOL    HW212019  12.294   1.811   5.471
 3396SOL     OW12020   0.083  13.312  11.741
 3396SOL    HW112021   0.071  13.250  11.669
 3396SOL    HW212022   0.067  13.259  11.820
 3397SOL     OW12023  13.447   6.174   0.444
 3397SOL    HW112024  13.400   6.148   0.365
 3397SOL    HW212025  13.471   6.092   0.486
 3398SOL     OW12026  10.010   7.191   3.393
 3398SOL    HW112027   9.940   7.169   3.454
 3398SOL    HW212028  10.056   7.264   3.433
 3399SOL     OW12029  14.548  12.134   2.487
 3399SOL    HW112030  14.570  12.070   2.554
 3399SOL    HW212031  14.632  12.165   2.454
 3400SOL     OW12032  13.128   0.197   9.540
 3400SOL    HW112033  13.055   0.244   9.580
 3400SOL    HW212034  13.206   0.233   9.583
 3401SOL     OW12035  13.952   0.469   4.769
 3401SOL    HW112036  13.871   0.425   4.795
 3401SOL    HW212037  13.951   0.467   4.673
 3402SOL     OW12038   5.623  11.499  13.370
 3402SOL    HW112039   5.542  11.505  13.421
 3402SOL    HW212040   5.593  11.485  13.280
 3403SOL     OW12041   5.140  14.705   4.986
 3403SOL    HW112042   5.152  14.649   5.063
 3403SOL    HW212043   5.083  14.653   4.929
 3404SOL     OW12044   7.576  14.292   4.409
 3404SOL    HW112045   7.582  14.388   4.412
 3404SOL    HW212046   7.660  14.262   4.441
 3405SOL     OW12047   0.971  10.172  12.784
 3405SOL    HW112048   0.886  10.160  12.741
 3405SOL    HW212049   1.035  10.160  12.714
 3406SOL     OW12050  12.313   3.124   4.674
 3406SOL    HW112051  12.349   3.134   4.586
 3406SOL    HW212052  12.302   3.213   4.706
 3407SOL     OW12053   9.491  14.262   3.819
 3407SOL    HW112054   9.576  14.241   3.858
 3407SOL    HW212055   9.495  14.356   3.801
 3408SOL     OW12056   6.800  10.998  10.120
 3408SOL    HW112057   6.717  10.952  10.108
 3408SOL    HW212058   6.796  11.032  10.209
 3409SOL     OW12059  10.629   7.696   3.067
 3409SOL    HW112060  10.631   7.761   3.138
 3409SOL    HW212061  10.542   7.657   3.072
 3410SOL     OW12062   3.008   6.562   5.497
 3410SOL    HW112063   2.936   6.592   5.553
 3410SOL    HW212064   3.082   6.553   5.557
 3411SOL     OW12065   8.796   1.983   5.114
 3411SOL    HW112066   8.794   2.040   5.037
 3411SOL    HW212067   8.885   1.991   5.147
 3412SOL     OW12068   1.446  14.094  12.828
 3412SOL    HW112069   1.440  14.100  12.924
 3412SOL    HW212070   1.480  14.006  12.812
 3413SOL     OW12071   6.075   8.421   8.010
 3413SOL    HW112072   6.038   8.508   7.997
 3413SOL    HW212073   6.152   8.419   7.953
 3414SOL     OW12074  10.273   4.356  11.432
 3414SOL    HW112075  10.237   4.392  11.513
 3414SOL    HW212076  10.356   4.403  11.420
 3415SOL     OW12077   1.738   4.708   1.569
 3415SOL    HW112078   1.698   4.722   1.483
 3415SOL    HW212079   1.783   4.623   1.561
 3416SOL     OW12080  13.816  11.739  10.967
 3416SOL    HW112081  13.765  11.668  11.006
 3416SOL    HW212082  13.792  11.817  11.017
 3417SOL     OW12083  12.499   9.029  12.969
 3417SOL    HW112084  12.422   8.987  12.930
 3417SOL    HW212085  12.537   8.961  13.025
 3418SOL     OW12086   6.192  12.112  10.052
 3418SOL    HW112087   6.205  12.019  10.073
 3418SOL    HW212088   6.101  12.117  10.023
 3419SOL     OW12089   9.715   2.451  11.342
 3419SOL    HW112090   9.689   2.541  11.322
 3419SOL    HW212091   9.649   2.397  11.299
 3420SOL     OW12092  14.374   3.207   8.601
 3420SOL    HW112093  14.414   3.292   8.620
 3420SOL    HW212094  14.402   3.150   8.673
 3421SOL     OW12095   2.874   2.967  14.508
 3421SOL    HW112096   2.864   3.019  14.588
 3421SOL    HW212097   2.943   3.011  14.459
 3422SOL     OW12098   7.054   8.469   9.787
 3422SOL    HW112099   7.104   8.393   9.757
 3422SOL    HW212100   7.047   8.525   9.710
 3423SOL     OW12101   0.870  12.815   8.431
 3423SOL    HW112102   0.932  12.741   8.430
 3423SOL    HW212103   0.845  12.826   8.339
 3424SOL     OW12104   6.460  14.015   1.488
 3424SOL    HW112105   6.403  14.004   1.412
 3424SOL    HW212106   6.547  13.989   1.457
 3425SOL     OW12107   7.480   1.213   7.660
 3425SOL    HW112108   7.475   1.298   7.618
 3425SOL    HW212109   7.465   1.231   7.753
 3426SOL     OW12110  11.581   3.297   7.067
 3426SOL    HW112111  11.561   3.214   7.026
 3426SOL    HW212112  11.663   3.281   7.115
 3427SOL     OW12113   1.376   5.086   4.983
 3427SOL    HW112114   1.432   5.113   4.911
 3427SOL    HW212115   1.370   5.162   5.040
 3428SOL     OW12116   8.651   8.690   0.431
 3428SOL    HW112117   8.734   8.643   0.426
 3428SOL    HW212118   8.589   8.627   0.467
 3429SOL     OW12119   5.215   9.407  10.337
 3429SOL    HW112120   5.278   9.416  10.266
 3429SOL    HW212121   5.189   9.315  10.335
 3430SOL     OW12122   7.912   6.514  14.743
 3430SOL    HW112123   7.936   6.422  14.731
 3430SOL    HW212124   7.818   6.513  14.756
 3431SOL     OW12125  13.082  11.670   5.030
 3431SOL    HW112126  13.074  11.615   5.107
 3431SOL    HW212127  12.995  11.706   5.016
 3432SOL     OW12128   2.828   9.540  14.709
 3432SOL    HW112129   2.815   9.517  14.617
 3432SOL    HW212130   2.817   9.457  14.757
 3433SOL     OW12131   8.966   8.977  14.458
 3433SOL    HW112132   8.959   8.975  14.362
 3433SOL    HW212133   8.898   8.916  14.488
 3434SOL     OW12134   5.959  14.520   2.818
 3434SOL    HW112135   5.979  14.452   2.882
 3434SOL    HW212136   5.867  14.507   2.796
 3435SOL     OW12137  11.781  14.335  10.728
 3435SOL    HW112138  11.727  14.347  10.806
 3435SOL    HW212139  11.744  14.259  10.684
 3436SOL     OW12140   1.481   8.312  12.937
 3436SOL    HW112141   1.476   8.342  12.847
 3436SOL    HW212142   1.391   8.315  12.969
 3437SOL     OW12143   1.744   6.429   7.066
 3437SOL    HW112144   1.762   6.417   6.973
 3437SOL    HW212145   1.818   6.388   7.111
 3438SOL     OW12146   8.663   2.884   0.217
 3438SOL    HW112147   8.714   2.804   0.226
 3438SOL    HW212148   8.633   2.884   0.126
 3439SOL     OW12149   4.416  11.085  12.835
 3439SOL    HW112150   4.424  11.111  12.926
 3439SOL    HW212151   4.328  11.048  12.828
 3440SOL     OW12152   1.056   8.791   2.693
 3440SOL    HW112153   1.100   8.720   2.647
 3440SOL    HW212154   0.991   8.823   2.630
 3441SOL     OW12155   1.278  14.581   2.784
 3441SOL    HW112156   1.262  14.564   2.877
 3441SOL    HW212157   1.193  14.568   2.743
 3442SOL     OW12158   4.504  11.587   1.712
 3442SOL    HW112159   4.539  11.675   1.699
 3442SOL    HW212160   4.410  11.595   1.696
 3443SOL     OW12161   4.142   0.095   1.269
 3443SOL    HW112162   4.218   0.104   1.212
 3443SOL    HW212163   4.118   0.185   1.291
 3444SOL     OW12164   6.716   2.154  12.974
 3444SOL    HW112165   6.653   2.127  12.907
 3444SOL    HW212166   6.673   2.135  13.057
 3445SOL     OW12167  12.665   0.243   5.087
 3445SOL    HW112168  12.687   0.336   5.080
 3445SOL    HW212169  12.691   0.206   5.002
 3446SOL     OW12170   2.150   5.355   7.750
 3446SOL    HW112171   2.174   5.270   7.787
 3446SOL    HW212172   2.115   5.335   7.663
 3447SOL     OW12173   5.727   7.093   6.283
 3447SOL    HW112174   5.665   7.155   6.243
 3447SOL    HW212175   5.811   7.139   6.281
 3448SOL     OW12176   7.576   0.457  13.541
 3448SOL    HW112177   7.668   0.444  13.564
 3448SOL    HW212178   7.549   0.373  13.504
 3449SOL     OW12179  12.163   8.448   9.063
 3449SOL    HW112180  12.110   8.520   9.097
 3449SOL    HW212181  12.120   8.369   9.095
 3450SOL     OW12182   5.737   6.879   9.107
 3450SOL    HW112183   5.763   6.966   9.138
 3450SOL    HW212184   5.695   6.894   9.023
 3451SOL     OW12185   2.826   8.409  12.682
 3451SOL    HW112186   2.772   8.439  12.756
 3451SOL    HW212187   2.814   8.314  12.681
 3452SOL     OW12188   3.417   4.507   4.121
 3452SOL    HW112189   3.401   4.528   4.213
 3452SOL    HW212190   3.335   4.529   4.077
 3453SOL     OW12191  11.383   2.872   0.972
 3453SOL    HW112192  11.327   2.883   1.049
 3453SOL    HW212193  11.431   2.955   0.965
 3454SOL     OW12194  13.984  14.040   8.397
 3454SOL    HW112195  14.061  13.986   8.414
 3454SOL    HW212196  13.915  13.976   8.375
 3455SOL     OW12197  14.749  11.884   0.615
 3455SOL    HW112198  14.695  11.919   0.544
 3455SOL    HW212199  14.697  11.811   0.650
 3456SOL     OW12200   0.205   1.466  10.129
 3456SOL    HW112201   0.266   1.393  10.123
 3456SOL    HW212202   0.260   1.544  10.135
 3457SOL     OW12203  12.837   5.053   2.828
 3457SOL    HW112204  12.861   5.018   2.914
 3457SOL    HW212205  12.919   5.085   2.791
 3458SOL     OW12206   4.356  10.031   4.399
 3458SOL    HW112207   4.433  10.087   4.409
 3458SOL    HW212208   4.303  10.076   4.333
 3459SOL     OW12209   4.317   3.615  14.348
 3459SOL    HW112210   4.283   3.525  14.356
 3459SOL    HW212211   4.286   3.659  14.427
 3460SOL     OW12212   9.475  10.392   5.410
 3460SOL    HW112213   9.462  10.486   5.405
 3460SOL    HW212214   9.541  10.380   5.478
 3461SOL     OW12215   7.521   1.253  14.741
 3461SOL    HW112216   7.432   1.221  14.756
 3461SOL    HW212217   7.538   1.314  14.813
 3462SOL     OW12218  13.181   4.234  14.618
 3462SOL    HW112219  13.272   4.232  14.588
 3462SOL    HW212220  13.187   4.230  14.714
 3463SOL     OW12221   4.898   8.980   5.445
 3463SOL    HW112222   4.980   8.962   5.399
 3463SOL    HW212223   4.872   8.895   5.481
 3464SOL     OW12224   7.539   5.594   8.853
 3464SOL    HW112225   7.504   5.624   8.937
 3464SOL    HW212226   7.589   5.515   8.875
 3465SOL     OW12227   8.434   6.515  12.140
 3465SOL    HW112228   8.372   6.535  12.210
 3465SOL    HW212229   8.389   6.452  12.085
 3466SOL     OW12230  14.622   0.323   1.367
 3466SOL    HW112231  14.695   0.269   1.338
 3466SOL    HW212232  14.588   0.363   1.286
 3467SOL     OW12233   6.016   7.737   6.190
 3467SOL    HW112234   6.028   7.786   6.108
 3467SOL    HW212235   5.921   7.730   6.199
 3468SOL     OW12236   6.515   8.216   8.100
 3468SOL    HW112237   6.453   8.239   8.031
 3468SOL    HW212238   6.498   8.281   8.169
 3469SOL     OW12239  10.654  10.002   0.889
 3469SOL    HW112240  10.708   9.927   0.862
 3469SOL    HW212241  10.681  10.020   0.979
 3470SOL     OW12242   9.002   3.993   5.507
 3470SOL    HW112243   9.062   4.037   5.446
 3470SOL    HW212244   8.979   3.911   5.462
 3471SOL     OW12245   8.875   9.442  12.356
 3471SOL    HW112246   8.944   9.448  12.290
 3471SOL    HW212247   8.869   9.349  12.377
 3472SOL     OW12248   9.158   7.879   1.471
 3472SOL    HW112249   9.074   7.882   1.518
 3472SOL    HW212250   9.155   7.796   1.423
 3473SOL     OW12251  12.061   6.625   1.515
 3473SOL    HW112252  12.017   6.539   1.515
 3473SOL    HW212253  12.154   6.604   1.520
 3474SOL     OW12254   7.789   5.938   4.136
 3474SOL    HW112255   7.814   5.948   4.044
 3474SOL    HW212256   7.808   5.847   4.156
 3475SOL     OW12257   0.074   0.106   8.250
 3475SOL    HW112258   0.049   0.194   8.280
 3475SOL    HW212259   0.163   0.094   8.284
 3476SOL     OW12260   1.833  10.206   8.630
 3476SOL    HW112261   1.770  10.223   8.699
 3476SOL    HW212262   1.893  10.281   8.635
 3477SOL     OW12263  14.511  12.472  13.426
 3477SOL    HW112264  14.417  12.487  13.434
 3477SOL    HW212265  14.536  12.518  13.345
 3478SOL     OW12266  11.763   9.947  14.129
 3478SOL    HW112267  11.732   9.998  14.054
 3478SOL    HW212268  11.856   9.967  14.136
 3479SOL     OW12269  13.938  13.642  11.369
 3479SOL    HW112270  13.924  13.560  11.415
 3479SOL    HW212271  13.957  13.617  11.278
 3480SOL     OW12272   6.666   0.849   9.304
 3480SOL    HW112273   6.747   0.889   9.337
 3480SOL    HW212274   6.596   0.903   9.340
 3481SOL     OW12275   8.427  11.741  10.926
 3481SOL    HW112276   8.389  11.681  10.862
 3481SOL    HW212277   8.446  11.686  11.002
 3482SOL     OW12278   6.450   0.977  12.250
 3482SOL    HW112279   6.540   1.005  12.270
 3482SOL    HW212280   6.452   0.882  12.263
 3483SOL     OW12281  13.664   1.800  10.859
 3483SOL    HW112282  13.698   1.798  10.769
 3483SOL    HW212283  13.666   1.893  10.883
 3484SOL     OW12284   3.361  13.494  11.755
 3484SOL    HW112285   3.416  13.550  11.810
 3484SOL    HW212286   3.365  13.534  11.668
 3485SOL     OW12287   7.847   0.291   2.229
 3485SOL    HW112288   7.828   0.302   2.322
 3485SOL    HW212289   7.777   0.235   2.196
 3486SOL     OW12290  12.323   1.467   8.215
 3486SOL    HW112291  12.363   1.393   8.168
 3486SOL    HW212292  12.259   1.503   8.155
 3487SOL     OW12293   0.027   1.018   0.814
 3487SOL    HW112294   0.064   1.061   0.891
 3487SOL    HW212295   0.046   0.925   0.828
 3488SOL     OW12296   5.209   8.928   6.491
 3488SOL    HW112297   5.234   8.855   6.435
 3488SOL    HW212298   5.265   9.000   6.462
 3489SOL     OW12299  14.383   1.868   4.032
 3489SOL    HW112300  14.311   1.835   3.979
 3489SOL    HW212301  14.341   1.899   4.113
 3490SOL     OW12302   6.727   8.542  13.168
 3490SOL    HW112303   6.781   8.509  13.096
 3490SOL    HW212304   6.746   8.635  13.171
 3491SOL     OW12305   8.896   5.971   6.660
 3491SOL    HW112306   8.925   5.886   6.628
 3491SOL    HW212307   8.869   5.954   6.750
 3492SOL     OW12308   2.140  13.824   1.026
 3492SOL    HW112309   2.196  13.805   0.951
 3492SOL    HW212310   2.164  13.757   1.091
 3493SOL     OW12311   5.635   5.074  12.791
 3493SOL    HW112312   5.670   5.111  12.872
 3493SOL    HW212313   5.681   4.991  12.781
 3494SOL     OW12314   4.370  10.972   5.670
 3494SOL    HW112315   4.342  10.889   5.632
 3494SOL    HW212316   4.465  10.966   5.673
 3495SOL     OW12317  14.692   7.090  12.796
 3495SOL    HW112318  14.727   7.108  12.708
 3495SOL    HW212319  14.724   7.164  12.849
 3496SOL     OW12320  14.239   6.976   6.463
 3496SOL    HW112321  14.288   7.048   6.424
 3496SOL    HW212322  14.278   6.964   6.550
 3497SOL     OW12323   5.093  13.683   6.817
 3497SOL    HW112324   5.103  13.750   6.750
 3497SOL    HW212325   5.011  13.705   6.861
 3498SOL     OW12326  12.738   5.757   5.032
 3498SOL    HW112327  12.817   5.762   4.978
 3498SOL    HW212328  12.667   5.783   4.973
 3499SOL     OW12329  13.677  14.043   6.454
 3499SOL    HW112330  13.624  14.043   6.374
 3499SOL    HW212331  13.626  13.993   6.517
 3500SOL     OW12332   0.643   2.291   6.680
 3500SOL    HW112333   0.629   2.360   6.614
 3500SOL    HW212334   0.574   2.228   6.662
 3501SOL     OW12335  13.143  13.514   4.623
 3501SOL    HW112336  13.183  13.600   4.612
 3501SOL    HW212337  13.209  13.453   4.590
 3502SOL     OW12338   2.581   4.939   9.757
 3502SOL    HW112339   2.569   5.028   9.723
 3502SOL    HW212340   2.661   4.944   9.809
 3503SOL     OW12341   3.419  13.845   5.956
 3503SOL    HW112342   3.338  13.843   5.904
 3503SOL    HW212343   3.431  13.755   5.984
 3504SOL     OW12344  13.659  12.406  13.643
 3504SOL    HW112345  13.663  12.449  13.728
 3504SOL    HW212346  13.598  12.334  13.655
 3505SOL     OW12347   5.046   7.634   6.944
 3505SOL    HW112348   5.042   7.565   6.877
 3505SOL    HW212349   5.139   7.646   6.960
 3506SOL     OW12350   7.296   6.144   8.241
 3506SOL    HW112351   7.336   6.057   8.248
 3506SOL    HW212352   7.366   6.205   8.265
 3507SOL     OW12353  11.926   4.366   5.776
 3507SOL    HW112354  11.840   4.408   5.778
 3507SOL    HW212355  11.969   4.402   5.699
 3508SOL     OW12356   3.546   0.376  13.947
 3508SOL    HW112357   3.585   0.330  13.873
 3508SOL    HW212358   3.453   0.356  13.942
 3509SOL     OW12359   2.387  12.182  11.443
 3509SOL    HW112360   2.358  12.097  11.477
 3509SOL    HW212361   2.390  12.239  11.521
 3510SOL     OW12362   9.001   6.636   4.033
 3510SOL    HW112363   8.948   6.572   4.081
 3510SOL    HW212364   8.946   6.663   3.960
 3511SOL     OW12365  14.090  12.762  12.284
 3511SOL    HW112366  14.150  12.728  12.218
 3511SOL    HW212367  14.141  12.827  12.333
 3512SOL     OW12368   6.372   3.221  11.896
 3512SOL    HW112369   6.350   3.272  11.818
 3512SOL    HW212370   6.310   3.149  11.896
 3513SOL     OW12371   2.493   3.078  13.651
 3513SOL    HW112372   2.532   3.030  13.724
 3513SOL    HW212373   2.544   3.052  13.574
 3514SOL     OW12374   7.956   9.333   3.821
 3514SOL    HW112375   7.874   9.357   3.777
 3514SOL    HW212376   7.955   9.237   3.822
 3515SOL     OW12377   4.405   9.773  10.341
 3515SOL    HW112378   4.317   9.779  10.303
 3515SOL    HW212379   4.415   9.855  10.390
 3516SOL     OW12380   4.962  11.092   8.409
 3516SOL    HW112381   4.933  11.182   8.396
 3516SOL    HW212382   4.901  11.039   8.356
 3517SOL     OW12383   9.324  12.505  14.448
 3517SOL    HW112384   9.414  12.483  14.424
 3517SOL    HW212385   9.271  12.474  14.376
 3518SOL     OW12386  12.223  10.698   2.134
 3518SOL    HW112387  12.260  10.774   2.179
 3518SOL    HW212388  12.179  10.649   2.202
 3519SOL     OW12389   9.357  14.140   8.422
 3519SOL    HW112390   9.386  14.142   8.331
 3519SOL    HW212391   9.397  14.217   8.461
 3520SOL     OW12392  13.048  13.352   2.845
 3520SOL    HW112393  13.039  13.339   2.940
 3520SOL    HW212394  13.070  13.445   2.836
 3521SOL     OW12395   6.036  13.226   1.880
 3521SOL    HW112396   6.107  13.220   1.817
 3521SOL    HW212397   6.073  13.274   1.954
 3522SOL     OW12398  12.330  11.324  13.730
 3522SOL    HW112399  12.359  11.261  13.795
 3522SOL    HW212400  12.401  11.388  13.724
 3523SOL     OW12401   5.977  14.793   7.077
 3523SOL    HW112402   5.995  14.704   7.048
 3523SOL    HW212403   5.934  14.834   7.002
 3524SOL     OW12404   1.557   8.352   2.821
 3524SOL    HW112405   1.520   8.266   2.837
 3524SOL    HW212406   1.647   8.346   2.853
 3525SOL     OW12407   4.891   7.140  12.109
 3525SOL    HW112408   4.971   7.119  12.060
 3525SOL    HW212409   4.859   7.221  12.069
 3526SOL     OW12410  10.440   1.313  13.991
 3526SOL    HW112411  10.488   1.372  13.933
 3526SOL    HW212412  10.366   1.366  14.023
 3527SOL     OW12413   3.507   6.411  10.497
 3527SOL    HW112414   3.493   6.488  10.552
 3527SOL    HW212415   3.583   6.367  10.535
 3528SOL     OW12416   9.444  12.083   2.213
 3528SOL    HW112417   9.383  12.063   2.284
 3528SOL    HW212418   9.402  12.153   2.164
 3529SOL     OW12419   2.450   9.561   3.466
 3529SOL    HW112420   2.432   9.469   3.447
 3529SOL    HW212421   2.407   9.609   3.394
 3530SOL     OW12422  12.803   9.621   0.296
 3530SOL    HW112423  12.797   9.677   0.219
 3530SOL    HW212424  12.712   9.602   0.318
 3531SOL     OW12425   5.883   0.769  11.706
 3531SOL    HW112426   5.870   0.709  11.633
 3531SOL    HW212427   5.978   0.781  11.711
 3532SOL     OW12428   3.918   1.110  10.388
 3532SOL    HW112429   3.858   1.037  10.403
 3532SOL    HW212430   3.960   1.091  10.304
 3533SOL     OW12431  11.139   7.246   2.395
 3533SOL    HW112432  11.104   7.261   2.483
 3533SOL    HW212433  11.182   7.161   2.400
 3534SOL     OW12434   8.130  14.509  14.729
 3534SOL    HW112435   8.094  14.570  14.664
 3534SOL    HW212436   8.059  14.447  14.746
 3535SOL     OW12437   2.977   0.805  11.294
 3535SOL    HW112438   2.998   0.712  11.289
 3535SOL    HW212439   2.886   0.808  11.324
 3536SOL     OW12440   2.158   5.992   3.108
 3536SOL    HW112441   2.213   6.068   3.126
 3536SOL    HW212442   2.220   5.923   3.084
 3537SOL     OW12443   9.049  12.395  11.929
 3537SOL    HW112444   9.065  12.463  11.863
 3537SOL    HW212445   8.954  12.393  11.939
 3538SOL     OW12446  13.219   2.348  11.739
 3538SOL    HW112447  13.168   2.280  11.783
 3538SOL    HW212448  13.219   2.322  11.647
 3539SOL     OW12449   4.133   5.953   4.698
 3539SOL    HW112450   4.222   5.922   4.716
 3539SOL    HW212451   4.139   6.048   4.701
 3540SOL     OW12452  14.716  10.975  11.008
 3540SOL    HW112453  14.781  11.045  11.008
 3540SOL    HW212454  14.710  10.947  11.099
 3541SOL     OW12455   2.737   6.098   2.937
 3541SOL    HW112456   2.721   6.179   2.986
 3541SOL    HW212457   2.817   6.062   2.975
 3542SOL     OW12458   1.929   4.094   8.738
 3542SOL    HW112459   1.995   4.032   8.706
 3542SOL    HW212460   1.847   4.063   8.701
 3543SOL     OW12461   2.542  14.452   9.034
 3543SOL    HW112462   2.494  14.507   8.972
 3543SOL    HW212463   2.624  14.501   9.050
 3544SOL     OW12464  11.738   0.400   8.902
 3544SOL    HW112465  11.794   0.375   8.977
 3544SOL    HW212466  11.778   0.479   8.867
 3545SOL     OW12467   7.848   9.703  14.323
 3545SOL    HW112468   7.808   9.772  14.376
 3545SOL    HW212469   7.933   9.739  14.298
 3546SOL     OW12470   8.720   9.388  13.849
 3546SOL    HW112471   8.707   9.483  13.839
 3546SOL    HW212472   8.679   9.350  13.771
 3547SOL     OW12473   2.450  10.950  14.038
 3547SOL    HW112474   2.362  10.928  14.071
 3547SOL    HW212475   2.481  11.020  14.096
 3548SOL     OW12476  10.624   4.806  11.553
 3548SOL    HW112477  10.610   4.764  11.469
 3548SOL    HW212478  10.593   4.742  11.618
 3549SOL     OW12479  14.870  12.063   9.855
 3549SOL    HW112480  14.804  11.997   9.874
 3549SOL    HW212481   0.012  12.107   9.939
 3550SOL     OW12482   6.021   7.452   5.406
 3550SOL    HW112483   5.927   7.441   5.424
 3550SOL    HW212484   6.043   7.380   5.348
 3551SOL     OW12485   1.949   5.717  12.562
 3551SOL    HW112486   1.997   5.638  12.589
 3551SOL    HW212487   1.945   5.712  12.467
 3552SOL     OW12488   0.444  13.920  13.886
 3552SOL    HW112489   0.455  13.828  13.861
 3552SOL    HW212490   0.354  13.926  13.917
 3553SOL     OW12491   8.983  12.875   4.600
 3553SOL    HW112492   8.896  12.835   4.592
 3553SOL    HW212493   9.035  12.832   4.533
 3554SOL     OW12494   0.228   0.285   3.398
 3554SOL    HW112495   0.257   0.377   3.400
 3554SOL    HW212496   0.146   0.285   3.448
 3555SOL     OW12497   1.938  12.914   9.420
 3555SOL    HW112498   1.843  12.903   9.407
 3555SOL    HW212499   1.953  13.007   9.406
 3556SOL     OW12500   6.398   2.666  10.076
 3556SOL    HW112501   6.361   2.622  10.152
 3556SOL    HW212502   6.491   2.675  10.097
 3557SOL     OW12503  12.300   2.199   2.035
 3557SOL    HW112504  12.336   2.175   1.950
 3557SOL    HW212505  12.376   2.199   2.094
 3558SOL     OW12506   1.931   1.628   2.262
 3558SOL    HW112507   1.878   1.558   2.223
 3558SOL    HW212508   1.882   1.654   2.340
 3559SOL     OW12509  10.418  13.104  13.541
 3559SOL    HW112510  10.441  13.012  13.530
 3559SOL    HW212511  10.453  13.128  13.627
 3560SOL     OW12512  14.288   1.871   3.082
 3560SOL    HW112513  14.221   1.812   3.047
 3560SOL    HW212514  14.369   1.845   3.037
 3561SOL     OW12515   4.039   3.337   3.804
 3561SOL    HW112516   4.053   3.373   3.717
 3561SOL    HW212517   3.966   3.277   3.794
 3562SOL     OW12518   7.987  11.212   7.525
 3562SOL    HW112519   7.925  11.241   7.591
 3562SOL    HW212520   7.950  11.131   7.491
 3563SOL     OW12521   7.997  14.521   0.747
 3563SOL    HW112522   8.003  14.486   0.658
 3563SOL    HW212523   8.086  14.514   0.782
 3564SOL     OW12524  14.299  10.716   3.991
 3564SOL    HW112525  14.350  10.731   4.070
 3564SOL    HW212526  14.270  10.625   3.998
 3565SOL     OW12527   8.962   2.526   6.622
 3565SOL    HW112528   8.945   2.453   6.681
 3565SOL    HW212529   9.021   2.491   6.556
 3566SOL     OW12530   4.346   0.182  11.449
 3566SOL    HW112531   4.425   0.133  11.473
 3566SOL    HW212532   4.293   0.183  11.528
 3567SOL     OW12533  11.787   7.056   9.861
 3567SOL    HW112534  11.838   7.063   9.780
 3567SOL    HW212535  11.842   7.097   9.928
 3568SOL     OW12536  10.012  13.275   1.448
 3568SOL    HW112537  10.059  13.294   1.529
 3568SOL    HW212538  10.018  13.356   1.397
 3569SOL     OW12539   1.894   8.020  11.086
 3569SOL    HW112540   1.908   8.098  11.033
 3569SOL    HW212541   1.816   7.979  11.049
 3570SOL     OW12542  13.581   2.947   5.137
 3570SOL    HW112543  13.486   2.945   5.150
 3570SOL    HW212544  13.617   2.918   5.221
 3571SOL     OW12545   4.219   2.132   6.989
 3571SOL    HW112546   4.165   2.085   6.926
 3571SOL    HW212547   4.307   2.130   6.952
 3572SOL     OW12548   8.911  13.433   7.300
 3572SOL    HW112549   8.857  13.461   7.226
 3572SOL    HW212550   8.847  13.410   7.368
 3573SOL     OW12551   7.567   2.748   8.949
 3573SOL    HW112552   7.588   2.791   8.866
 3573SOL    HW212553   7.584   2.655   8.933
 3574SOL     OW12554   5.408  10.621   5.043
 3574SOL    HW112555   5.396  10.576   4.959
 3574SOL    HW212556   5.449  10.556   5.100
 3575SOL     OW12557   9.441   7.661   8.047
 3575SOL    HW112558   9.523   7.613   8.051
 3575SOL    HW212559   9.397   7.628   7.969
 3576SOL     OW12560   4.456   5.336   3.002
 3576SOL    HW112561   4.442   5.416   3.052
 3576SOL    HW212562   4.465   5.267   3.068
 3577SOL     OW12563   7.764  14.659  10.975
 3577SOL    HW112564   7.742  14.749  10.951
 3577SOL    HW212565   7.758  14.611  10.892
 3578SOL     OW12566   5.139   8.103  11.422
 3578SOL    HW112567   5.124   8.110  11.516
 3578SOL    HW212568   5.069   8.155  11.382
 3579SOL     OW12569   4.693   1.172   5.324
 3579SOL    HW112570   4.698   1.250   5.269
 3579SOL    HW212571   4.675   1.101   5.263
 3580SOL     OW12572   4.805   4.928   8.103
 3580SOL    HW112573   4.885   4.885   8.072
 3580SOL    HW212574   4.787   4.994   8.037
 3581SOL     OW12575   2.418  11.991  10.562
 3581SOL    HW112576   2.332  12.027  10.540
 3581SOL    HW212577   2.444  12.037  10.641
 3582SOL     OW12578  10.642   4.063   6.409
 3582SOL    HW112579  10.713   4.071   6.473
 3582SOL    HW212580  10.678   4.101   6.329
 3583SOL     OW12581   8.447   6.735   9.959
 3583SOL    HW112582   8.431   6.759  10.050
 3583SOL    HW212583   8.359   6.725   9.921
 3584SOL     OW12584   4.418   8.108  13.135
 3584SOL    HW112585   4.497   8.155  13.110
 3584SOL    HW212586   4.348   8.148  13.082
 3585SOL     OW12587   2.435   6.531   2.738
 3585SOL    HW112588   2.389   6.613   2.753
 3585SOL    HW212589   2.407   6.474   2.810
 3586SOL     OW12590  10.974  11.650  13.125
 3586SOL    HW112591  11.035  11.715  13.161
 3586SOL    HW212592  11.028  11.573  13.109
 3587SOL     OW12593   7.541  13.120   6.764
 3587SOL    HW112594   7.571  13.198   6.810
 3587SOL    HW212595   7.621  13.079   6.732
 3588SOL     OW12596   0.022  13.003   1.546
 3588SOL    HW112597   0.054  13.054   1.472
 3588SOL    HW212598   0.099  12.988   1.601
 3589SOL     OW12599   4.528  10.496   0.297
 3589SOL    HW112600   4.584  10.467   0.369
 3589SOL    HW212601   4.455  10.541   0.340
 3590SOL     OW12602   0.519  11.901   7.487
 3590SOL    HW112603   0.579  11.881   7.416
 3590SOL    HW212604   0.561  11.865   7.565
 3591SOL     OW12605   5.526  10.002   3.031
 3591SOL    HW112606   5.438   9.970   3.011
 3591SOL    HW212607   5.521  10.097   3.019
 3592SOL     OW12608   5.060   6.757  14.785
 3592SOL    HW112609   5.019   6.826  14.734
 3592SOL    HW212610   5.059   6.789   0.002
 3593SOL     OW12611  14.366  11.010   6.703
 3593SOL    HW112612  14.460  11.024   6.692
 3593SOL    HW212613  14.337  10.969   6.621
 3594SOL     OW12614  13.690  14.538   0.083
 3594SOL    HW112615  13.630  14.533   0.158
 3594SOL    HW212616  13.742  14.458   0.089
 3595SOL     OW12617  10.846   6.002   4.155
 3595SOL    HW112618  10.761   5.960   4.167
 3595SOL    HW212619  10.825   6.083   4.108
 3596SOL     OW12620   4.485  10.927  14.161
 3596SOL    HW112621   4.394  10.899  14.154
 3596SOL    HW212622   4.515  10.935  14.070
 3597SOL     OW12623  10.481  13.375  12.723
 3597SOL    HW112624  10.556  13.337  12.770
 3597SOL    HW212625  10.404  13.332  12.761
 3598SOL     OW12626   3.190   6.269   1.709
 3598SOL    HW112627   3.174   6.234   1.796
 3598SOL    HW212628   3.167   6.362   1.715
 3599SOL     OW12629  12.147   7.281  14.305
 3599SOL    HW112630  12.078   7.336  14.343
 3599SOL    HW212631  12.155   7.208  14.366
 3600SOL     OW12632  13.982   3.153  12.465
 3600SOL    HW112633  13.897   3.191  12.443
 3600SOL    HW212634  13.965   3.060  12.480
 3601SOL     OW12635   2.013   2.538   3.870
 3601SOL    HW112636   2.098   2.511   3.905
 3601SOL    HW212637   2.018   2.634   3.867
 3602SOL     OW12638   0.085  11.448   1.251
 3602SOL    HW112639   0.146  11.377   1.270
 3602SOL    HW212640   0.007  11.426   1.301
 3603SOL     OW12641   2.462   9.933   2.863
 3603SOL    HW112642   2.374   9.972   2.857
 3603SOL    HW212643   2.496   9.938   2.774
 3604SOL     OW12644   6.900   2.281  11.674
 3604SOL    HW112645   6.841   2.313  11.743
 3604SOL    HW212646   6.940   2.360  11.638
 3605SOL     OW12647   5.849  11.454   4.845
 3605SOL    HW112648   5.822  11.475   4.934
 3605SOL    HW212649   5.777  11.404   4.808
 3606SOL     OW12650   3.207   9.079  11.628
 3606SOL    HW112651   3.192   9.036  11.712
 3606SOL    HW212652   3.213   9.007  11.565
 3607SOL     OW12653  11.764  14.023   9.810
 3607SOL    HW112654  11.712  13.949   9.778
 3607SOL    HW212655  11.830  13.983   9.867
 3608SOL     OW12656   9.922   6.170   6.682
 3608SOL    HW112657   9.877   6.105   6.629
 3608SOL    HW212658  10.002   6.127   6.712
 3609SOL     OW12659   0.166   9.309   9.786
 3609SOL    HW112660   0.074   9.322   9.811
 3609SOL    HW212661   0.212   9.302   9.869
 3610SOL     OW12662  14.570   9.953  13.255
 3610SOL    HW112663  14.507   9.992  13.193
 3610SOL    HW212664  14.515   9.914  13.323
 3611SOL     OW12665  12.964   1.638   0.127
 3611SOL    HW112666  12.876   1.674   0.142
 3611SOL    HW212667  12.960   1.550   0.163
 3612SOL     OW12668  12.064  13.470   9.263
 3612SOL    HW112669  12.024  13.384   9.266
 3612SOL    HW212670  12.076  13.488   9.170
 3613SOL     OW12671   1.762   1.966   2.086
 3613SOL    HW112672   1.702   2.003   2.022
 3613SOL    HW212673   1.790   2.041   2.139
 3614SOL     OW12674  11.638  14.202  11.208
 3614SOL    HW112675  11.572  14.170  11.147
 3614SOL    HW212676  11.603  14.182  11.295
 3615SOL     OW12677   6.633  13.568   5.107
 3615SOL    HW112678   6.680  13.495   5.147
 3615SOL    HW212679   6.648  13.642   5.166
 3616SOL     OW12680  10.097  14.691   0.731
 3616SOL    HW112681  10.021  14.670   0.677
 3616SOL    HW212682  10.172  14.661   0.680
 3617SOL     OW12683  13.208   1.026   0.901
 3617SOL    HW112684  13.243   1.109   0.868
 3617SOL    HW212685  13.172   0.983   0.823
 3618SOL     OW12686  10.781   9.964  12.430
 3618SOL    HW112687  10.713   9.897  12.436
 3618SOL    HW212688  10.733  10.047  12.436
 3619SOL     OW12689   0.155  10.252  12.815
 3619SOL    HW112690   0.174  10.345  12.830
 3619SOL    HW212691   0.235  10.217  12.777
 3620SOL     OW12692   6.841  11.169   1.363
 3620SOL    HW112693   6.928  11.134   1.341
 3620SOL    HW212694   6.858  11.235   1.430
 3621SOL     OW12695  10.399   9.863  14.687
 3621SOL    HW112696  10.349   9.916  14.749
 3621SOL    HW212697  10.436   9.927  14.626
 3622SOL     OW12698   7.824   3.073   5.199
 3622SOL    HW112699   7.880   3.024   5.138
 3622SOL    HW212700   7.845   3.165   5.181
 3623SOL     OW12701  11.680   2.152  13.387
 3623SOL    HW112702  11.711   2.190  13.305
 3623SOL    HW212703  11.754   2.161  13.447
 3624SOL     OW12704   2.724   2.419   0.807
 3624SOL    HW112705   2.759   2.352   0.865
 3624SOL    HW212706   2.798   2.478   0.791
 3625SOL     OW12707   8.381   8.821   0.053
 3625SOL    HW112708   8.474   8.845   0.047
 3625SOL    HW212709   8.380   8.745   0.111
 3626SOL     OW12710   8.307  12.912  10.048
 3626SOL    HW112711   8.334  13.004  10.050
 3626SOL    HW212712   8.218  12.913  10.083
 3627SOL     OW12713   9.979  12.733   0.000
 3627SOL    HW112714   9.976  12.650  14.826
 3627SOL    HW212715   9.888  12.762   0.003
 3628SOL     OW12716   8.880   8.215   8.492
 3628SOL    HW112717   8.928   8.272   8.431
 3628SOL    HW212718   8.826   8.275   8.544
 3629SOL     OW12719  10.805   5.445  12.102
 3629SOL    HW112720  10.758   5.471  12.181
 3629SOL    HW212721  10.793   5.517  12.041
 3630SOL     OW12722   9.292  10.065   2.159
 3630SOL    HW112723   9.333  10.005   2.096
 3630SOL    HW212724   9.332  10.150   2.139
 3631SOL     OW12725  10.139   9.983   8.392
 3631SOL    HW112726  10.188   9.936   8.324
 3631SOL    HW212727  10.207  10.024   8.446
 3632SOL     OW12728   0.946   6.815   5.902
 3632SOL    HW112729   1.032   6.852   5.884
 3632SOL    HW212730   0.898   6.886   5.945
 3633SOL     OW12731  10.101   6.280   7.058
 3633SOL    HW112732  10.172   6.289   6.994
 3633SOL    HW212733  10.144   6.283   7.143
 3634SOL     OW12734   8.612   3.032   7.495
 3634SOL    HW112735   8.530   3.039   7.544
 3634SOL    HW212736   8.646   2.945   7.517
 3635SOL     OW12737   9.102  12.609  14.571
 3635SOL    HW112738   9.195  12.604  14.552
 3635SOL    HW212739   9.063  12.648  14.493
 3636SOL     OW12740   2.991  14.676  14.146
 3636SOL    HW112741   3.078  14.663  14.108
 3636SOL    HW212742   2.939  14.714  14.076
 3637SOL     OW12743   7.192   6.866  11.162
 3637SOL    HW112744   7.148   6.887  11.244
 3637SOL    HW212745   7.272   6.821  11.188
 3638SOL     OW12746   8.859  11.549  11.775
 3638SOL    HW112747   8.786  11.530  11.834
 3638SOL    HW212748   8.882  11.640  11.794
 3639SOL     OW12749   3.948  10.014  10.333
 3639SOL    HW112750   3.880  10.037  10.270
 3639SOL    HW212751   3.962  10.093  10.384
 3640SOL     OW12752   3.278   1.806  11.719
 3640SOL    HW112753   3.313   1.744  11.784
 3640SOL    HW212754   3.255   1.883  11.771
 3641SOL     OW12755  11.400  12.406   4.920
 3641SOL    HW112756  11.375  12.365   5.003
 3641SOL    HW212757  11.370  12.345   4.854
 3642SOL     OW12758   8.937  10.751   6.764
 3642SOL    HW112759   8.926  10.783   6.854
 3642SOL    HW212760   8.847  10.744   6.731
 3643SOL     OW12761  11.402   0.187   7.451
 3643SOL    HW112762  11.488   0.226   7.463
 3643SOL    HW212763  11.417   0.093   7.453
 3644SOL     OW12764   0.395  13.429   5.647
 3644SOL    HW112765   0.330  13.491   5.679
 3644SOL    HW212766   0.373  13.346   5.691
 3645SOL     OW12767  14.789  13.681   7.759
 3645SOL    HW112768  14.846  13.740   7.710
 3645SOL    HW212769  14.813  13.594   7.730
 3646SOL     OW12770   5.289   4.988   5.964
 3646SOL    HW112771   5.261   4.896   5.965
 3646SOL    HW212772   5.210   5.037   5.985
 3647SOL     OW12773   2.289   8.123  13.716
 3647SOL    HW112774   2.236   8.094  13.791
 3647SOL    HW212775   2.227   8.126  13.643
 3648SOL     OW12776   1.484   1.873   1.907
 3648SOL    HW112777   1.491   1.795   1.851
 3648SOL    HW212778   1.516   1.844   1.992
 3649SOL     OW12779   2.027  11.713  10.794
 3649SOL    HW112780   2.010  11.807  10.780
 3649SOL    HW212781   2.040  11.679  10.705
 3650SOL     OW12782   9.274   2.549   7.961
 3650SOL    HW112783   9.236   2.526   8.046
 3650SOL    HW212784   9.296   2.465   7.921
 3651SOL     OW12785  11.155   7.918  11.755
 3651SOL    HW112786  11.068   7.943  11.724
 3651SOL    HW212787  11.191   7.999  11.792
 3652SOL     OW12788  11.388   6.284   3.422
 3652SOL    HW112789  11.378   6.324   3.508
 3652SOL    HW212790  11.344   6.199   3.429
 3653SOL     OW12791   9.154   1.825   0.125
 3653SOL    HW112792   9.196   1.774   0.195
 3653SOL    HW212793   9.193   1.790   0.045
 3654SOL     OW12794   9.868   5.943   7.779
 3654SOL    HW112795   9.781   5.917   7.810
 3654SOL    HW212796   9.892   5.875   7.716
 3655SOL     OW12797  12.543   7.600   0.489
 3655SOL    HW112798  12.581   7.520   0.526
 3655SOL    HW212799  12.505   7.572   0.406
 3656SOL     OW12800  13.243   9.769   5.778
 3656SOL    HW112801  13.196   9.746   5.858
 3656SOL    HW212802  13.238   9.690   5.724
 3657SOL     OW12803  11.983   7.794   1.185
 3657SOL    HW112804  11.958   7.710   1.146
 3657SOL    HW212805  12.060   7.821   1.135
 3658SOL     OW12806   4.213   9.253   4.785
 3658SOL    HW112807   4.129   9.269   4.829
 3658SOL    HW212808   4.201   9.289   4.697
 3659SOL     OW12809   7.588  14.188   2.530
 3659SOL    HW112810   7.624  14.207   2.444
 3659SOL    HW212811   7.503  14.233   2.532
 3660SOL     OW12812   6.026   2.445   1.839
 3660SOL    HW112813   6.028   2.387   1.916
 3660SOL    HW212814   6.097   2.413   1.783
 3661SOL     OW12815  11.455   9.252  11.216
 3661SOL    HW112816  11.496   9.336  11.235
 3661SOL    HW212817  11.448   9.249  11.121
 3662SOL     OW12818  12.321   9.409   9.859
 3662SOL    HW112819  12.280   9.451   9.934
 3662SOL    HW212820  12.250   9.393   9.797
 3663SOL     OW12821   3.185   5.934   0.591
 3663SOL    HW112822   3.222   5.847   0.605
 3663SOL    HW212823   3.244   5.977   0.529
 3664SOL     OW12824   1.879  12.932  14.300
 3664SOL    HW112825   1.809  12.995  14.282
 3664SOL    HW212826   1.859  12.898  14.387
 3665SOL     OW12827  14.562   0.299   0.379
 3665SOL    HW112828  14.608   0.216   0.380
 3665SOL    HW212829  14.584   0.338   0.295
 3666SOL     OW12830   3.155   8.577   3.301
 3666SOL    HW112831   3.071   8.623   3.299
 3666SOL    HW212832   3.220   8.642   3.276
 3667SOL     OW12833   5.223   6.378   0.802
 3667SOL    HW112834   5.151   6.440   0.807
 3667SOL    HW212835   5.183   6.293   0.820
 3668SOL     OW12836   8.294   4.956   6.220
 3668SOL    HW112837   8.293   4.893   6.148
 3668SOL    HW212838   8.367   4.929   6.275
 3669SOL     OW12839   0.635   9.269   1.041
 3669SOL    HW112840   0.554   9.220   1.058
 3669SOL    HW212841   0.705   9.212   1.072
 3670SOL     OW12842   8.634   4.896   9.969
 3670SOL    HW112843   8.644   4.879   9.875
 3670SOL    HW212844   8.544   4.871   9.988
 3671SOL     OW12845  13.772   6.779  11.081
 3671SOL    HW112846  13.739   6.694  11.110
 3671SOL    HW212847  13.737   6.790  10.992
 3672SOL     OW12848  13.235   1.866   4.798
 3672SOL    HW112849  13.241   1.772   4.782
 3672SOL    HW212850  13.324   1.893   4.819
 3673SOL     OW12851   8.691   6.747   5.194
 3673SOL    HW112852   8.753   6.675   5.203
 3673SOL    HW212853   8.731   6.805   5.128
 3674SOL     OW12854   4.759  10.314   4.826
 3674SOL    HW112855   4.684  10.263   4.855
 3674SOL    HW212856   4.797  10.349   4.907
 3675SOL     OW12857   6.056   1.108  12.964
 3675SOL    HW112858   6.102   1.082  13.044
 3675SOL    HW212859   5.983   1.046  12.957
 3676SOL     OW12860  10.659  12.325   3.328
 3676SOL    HW112861  10.683  12.263   3.259
 3676SOL    HW212862  10.563  12.328   3.325
 3677SOL     OW12863   7.819   6.841   6.973
 3677SOL    HW112864   7.748   6.903   6.961
 3677SOL    HW212865   7.856   6.830   6.885
 3678SOL     OW12866   0.069   6.614  10.752
 3678SOL    HW112867   0.152   6.604  10.799
 3678SOL    HW212868   0.078   6.697  10.706
 3679SOL     OW12869  11.085   9.725  10.484
 3679SOL    HW112870  11.008   9.756  10.437
 3679SOL    HW212871  11.080   9.630  10.480
 3680SOL     OW12872  12.854   5.878   0.974
 3680SOL    HW112873  12.908   5.955   0.991
 3680SOL    HW212874  12.917   5.808   0.958
 3681SOL     OW12875  13.740   5.377   0.619
 3681SOL    HW112876  13.788   5.442   0.671
 3681SOL    HW212877  13.807   5.333   0.568
 3682SOL     OW12878   2.213   8.360   2.582
 3682SOL    HW112879   2.218   8.292   2.649
 3682SOL    HW212880   2.140   8.416   2.610
 3683SOL     OW12881   9.470   3.041  14.102
 3683SOL    HW112882   9.403   3.009  14.042
 3683SOL    HW212883   9.537   3.079  14.046
 3684SOL     OW12884  11.683   5.524   3.429
 3684SOL    HW112885  11.737   5.575   3.369
 3684SOL    HW212886  11.622   5.588   3.466
 3685SOL     OW12887   3.073   4.929  14.561
 3685SOL    HW112888   2.989   4.961  14.595
 3685SOL    HW212889   3.134   4.938  14.635
 3686SOL     OW12890   5.165   4.618  11.900
 3686SOL    HW112891   5.181   4.541  11.846
 3686SOL    HW212892   5.092   4.663  11.858
 3687SOL     OW12893   7.042   2.135   5.972
 3687SOL    HW112894   6.973   2.074   5.945
 3687SOL    HW212895   7.042   2.203   5.905
 3688SOL     OW12896   0.495   0.487   9.741
 3688SOL    HW112897   0.409   0.521   9.717
 3688SOL    HW212898   0.516   0.532   9.824
 3689SOL     OW12899   8.481  10.579   3.099
 3689SOL    HW112900   8.557  10.529   3.128
 3689SOL    HW212901   8.503  10.609   3.011
 3690SOL     OW12902   3.870   9.951  12.402
 3690SOL    HW112903   3.915   9.889  12.459
 3690SOL    HW212904   3.816  10.004  12.461
 3691SOL     OW12905  11.276   9.031  10.284
 3691SOL    HW112906  11.284   8.996  10.373
 3691SOL    HW212907  11.342   8.984  10.233
 3692SOL     OW12908   0.289   6.324  10.766
 3692SOL    HW112909   0.315   6.311  10.674
 3692SOL    HW212910   0.197   6.296  10.768
 3693SOL     OW12911   2.249  10.780   0.860
 3693SOL    HW112912   2.275  10.688   0.852
 3693SOL    HW212913   2.312  10.828   0.807
 3694SOL     OW12914   9.649  13.385  14.280
 3694SOL    HW112915   9.734  13.426  14.263
 3694SOL    HW212916   9.617  13.361  14.193
 3695SOL     OW12917   3.438   8.391  14.326
 3695SOL    HW112918   3.491   8.465  14.353
 3695SOL    HW212919   3.358   8.430  14.291
 3696SOL     OW12920   0.209   7.396   0.478
 3696SOL    HW112921   0.199   7.413   0.572
 3696SOL    HW212922   0.233   7.481   0.440
 3697SOL     OW12923  10.381  12.236   0.525
 3697SOL    HW112924  10.378  12.174   0.598
 3697SOL    HW212925  10.346  12.317   0.561
 3698SOL     OW12926   8.907   6.319   0.870
 3698SOL    HW112927   8.919   6.275   0.954
 3698SOL    HW212928   8.859   6.399   0.891
 3699SOL     OW12929   8.509   6.706   6.386
 3699SOL    HW112930   8.478   6.674   6.471
 3699SOL    HW212931   8.593   6.748   6.406
 3700SOL     OW12932   6.415  14.245  11.156
 3700SOL    HW112933   6.397  14.291  11.074
 3700SOL    HW212934   6.414  14.152  11.132
 3701SOL     OW12935   9.184  13.137   7.039
 3701SOL    HW112936   9.178  13.151   7.134
 3701SOL    HW212937   9.278  13.141   7.020
 3702SOL     OW12938   3.700   4.901   8.971
 3702SOL    HW112939   3.712   4.813   8.936
 3702SOL    HW212940   3.776   4.951   8.940
 3703SOL     OW12941   6.597   6.211  11.995
 3703SOL    HW112942   6.631   6.300  11.985
 3703SOL    HW212943   6.675   6.157  12.011
 3704SOL     OW12944   9.471  10.205  12.180
 3704SOL    HW112945   9.471  10.238  12.090
 3704SOL    HW212946   9.562  10.179  12.195
 3705SOL     OW12947  14.797   2.034  10.944
 3705SOL    HW112948  14.734   2.035  10.872
 3705SOL    HW212949  14.744   2.048  11.022
 3706SOL     OW12950   6.111   4.801   7.159
 3706SOL    HW112951   6.121   4.847   7.076
 3706SOL    HW212952   6.041   4.849   7.204
 3707SOL     OW12953   7.546   4.045   9.255
 3707SOL    HW112954   7.599   4.046   9.335
 3707SOL    HW212955   7.565   3.961   9.214
 3708SOL     OW12956  13.935   4.459  14.042
 3708SOL    HW112957  14.020   4.456  13.998
 3708SOL    HW212958  13.903   4.369  14.039
 3709SOL     OW12959   6.785  10.603   7.539
 3709SOL    HW112960   6.791  10.658   7.618
 3709SOL    HW212961   6.847  10.642   7.478
 3710SOL     OW12962   6.072   5.364  12.679
 3710SOL    HW112963   6.115   5.324  12.604
 3710SOL    HW212964   5.987   5.321  12.684
 3711SOL     OW12965  13.043   4.872   8.710
 3711SOL    HW112966  13.055   4.777   8.722
 3711SOL    HW212967  12.988   4.879   8.632
 3712SOL     OW12968   1.915   6.761   9.509
 3712SOL    HW112969   1.911   6.712   9.591
 3712SOL    HW212970   1.850   6.720   9.453
 3713SOL     OW12971   7.929  11.867  14.241
 3713SOL    HW112972   7.919  11.810  14.164
 3713SOL    HW212973   7.965  11.809  14.309
 3714SOL     OW12974  10.120   4.490   4.121
 3714SOL    HW112975  10.187   4.428   4.149
 3714SOL    HW212976  10.169   4.561   4.080
 3715SOL     OW12977   7.570  13.620   8.466
 3715SOL    HW112978   7.651  13.640   8.419
 3715SOL    HW212979   7.525  13.557   8.410
 3716SOL     OW12980   0.210  13.907   4.723
 3716SOL    HW112981   0.118  13.932   4.734
 3716SOL    HW212982   0.216  13.877   4.632
 3717SOL     OW12983   2.078   2.001   5.717
 3717SOL    HW112984   2.157   2.022   5.767
 3717SOL    HW212985   2.036   2.085   5.700
 3718SOL     OW12986   8.547  10.862   3.574
 3718SOL    HW112987   8.529  10.891   3.485
 3718SOL    HW212988   8.641  10.876   3.585
 3719SOL     OW12989   4.471   8.027   0.130
 3719SOL    HW112990   4.544   8.058   0.183
 3719SOL    HW212991   4.402   8.008   0.193
 3720SOL     OW12992   4.467   9.662   6.394
 3720SOL    HW112993   4.543   9.608   6.373
 3720SOL    HW212994   4.412   9.607   6.448
 3721SOL     OW12995   2.242  12.759   9.271
 3721SOL    HW112996   2.280  12.805   9.345
 3721SOL    HW212997   2.219  12.829   9.209
 3722SOL     OW12998   8.507  13.097  13.348
 3722SOL    HW112999   8.559  13.021  13.374
 3722SOL    HW213000   8.545  13.125  13.265
 3723SOL     OW13001   6.320   9.494   6.048
 3723SOL    HW113002   6.255   9.565   6.049
 3723SOL    HW213003   6.394   9.529   6.098
 3724SOL     OW13004   4.744   4.389  11.139
 3724SOL    HW113005   4.680   4.360  11.204
 3724SOL    HW213006   4.813   4.431  11.190
 3725SOL     OW13007   4.385   7.741   5.038
 3725SOL    HW113008   4.295   7.763   5.063
 3725SOL    HW213009   4.428   7.825   5.026
 3726SOL     OW13010   4.222   3.359  14.699
 3726SOL    HW113011   4.239   3.430  14.762
 3726SOL    HW213012   4.168   3.400  14.632
 3727SOL     OW13013  11.217  12.677   8.653
 3727SOL    HW113014  11.217  12.740   8.581
 3727SOL    HW213015  11.194  12.728   8.730
 3728SOL     OW13016   4.726   7.338  10.193
 3728SOL    HW113017   4.780   7.381  10.259
 3728SOL    HW213018   4.683   7.266  10.240
 3729SOL     OW13019   2.120   1.587  10.951
 3729SOL    HW113020   2.099   1.592  11.044
 3729SOL    HW213021   2.036   1.585  10.907
 3730SOL     OW13022  14.081   1.556  13.280
 3730SOL    HW113023  14.165   1.601  13.285
 3730SOL    HW213024  14.078   1.502  13.359
 3731SOL     OW13025   2.816   7.790   2.249
 3731SOL    HW113026   2.819   7.835   2.334
 3731SOL    HW213027   2.794   7.699   2.271
 3732SOL     OW13028   6.116   0.415  11.169
 3732SOL    HW113029   6.176   0.417  11.244
 3732SOL    HW213030   6.032   0.444  11.205
 3733SOL     OW13031   7.941   7.443   7.899
 3733SOL    HW113032   7.848   7.442   7.879
 3733SOL    HW213033   7.963   7.535   7.908
 3734SOL     OW13034   4.525   9.569   2.748
 3734SOL    HW113035   4.518   9.651   2.796
 3734SOL    HW213036   4.581   9.514   2.804
 3735SOL     OW13037   9.072  13.321  11.394
 3735SOL    HW113038   9.035  13.409  11.405
 3735SOL    HW213039   9.090  13.315  11.300
 3736SOL     OW13040   2.003  13.077  11.790
 3736SOL    HW113041   1.999  13.160  11.838
 3736SOL    HW213042   1.920  13.073  11.743
 3737SOL     OW13043   2.210   2.810   4.909
 3737SOL    HW113044   2.214   2.863   4.989
 3737SOL    HW213045   2.294   2.765   4.907
 3738SOL     OW13046   5.936   2.777   9.324
 3738SOL    HW113047   5.982   2.804   9.245
 3738SOL    HW213048   5.929   2.682   9.315
 3739SOL     OW13049   6.306   3.325   6.991
 3739SOL    HW113050   6.394   3.289   6.981
 3739SOL    HW213051   6.253   3.251   7.020
 3740SOL     OW13052  12.174   4.672  12.012
 3740SOL    HW113053  12.193   4.579  12.025
 3740SOL    HW213054  12.085   4.673  11.976
 3741SOL     OW13055  12.474   8.366   7.633
 3741SOL    HW113056  12.496   8.392   7.544
 3741SOL    HW213057  12.386   8.329   7.627
 3742SOL     OW13058  10.314   8.454   8.899
 3742SOL    HW113059  10.332   8.547   8.914
 3742SOL    HW213060  10.360   8.409   8.971
 3743SOL     OW13061   3.461  13.102   2.372
 3743SOL    HW113062   3.449  13.176   2.431
 3743SOL    HW213063   3.401  13.035   2.404
 3744SOL     OW13064  12.505   2.259  14.184
 3744SOL    HW113065  12.420   2.282  14.147
 3744SOL    HW213066  12.567   2.317  14.139
 3745SOL     OW13067   4.311   5.494   9.731
 3745SOL    HW113068   4.369   5.560   9.693
 3745SOL    HW213069   4.236   5.544   9.762
 3746SOL     OW13070   2.706   8.373   5.315
 3746SOL    HW113071   2.759   8.294   5.298
 3746SOL    HW213072   2.759   8.445   5.280
 3747SOL     OW13073  13.124   7.349   5.852
 3747SOL    HW113074  13.109   7.366   5.759
 3747SOL    HW213075  13.200   7.290   5.854
 3748SOL     OW13076  12.772  14.168   0.329
 3748SOL    HW113077  12.790  14.075   0.344
 3748SOL    HW213078  12.843  14.197   0.272
 3749SOL     OW13079  12.915   0.542   3.698
 3749SOL    HW113080  12.929   0.447   3.705
 3749SOL    HW213081  12.988   0.573   3.645
 3750SOL     OW13082  12.963  13.964  10.644
 3750SOL    HW113083  12.986  14.057  10.635
 3750SOL    HW213084  12.978  13.927  10.557
 3751SOL     OW13085  13.222   4.273   5.101
 3751SOL    HW113086  13.206   4.301   5.191
 3751SOL    HW213087  13.217   4.177   5.104
 3752SOL     OW13088   7.324   7.978  14.635
 3752SOL    HW113089   7.348   8.029  14.713
 3752SOL    HW213090   7.326   8.040  14.563
 3753SOL     OW13091   1.381   4.695  12.764
 3753SOL    HW113092   1.372   4.602  12.748
 3753SOL    HW213093   1.474   4.707  12.787
 3754SOL     OW13094  13.475  13.917   2.706
 3754SOL    HW113095  13.465  13.857   2.780
 3754SOL    HW213096  13.554  13.886   2.661
 3755SOL     OW13097   6.216   0.567   4.337
 3755SOL    HW113098   6.135   0.609   4.310
 3755SOL    HW213099   6.266   0.557   4.256
 3756SOL     OW13100  10.416   6.718   6.114
 3756SOL    HW113101  10.397   6.812   6.114
 3756SOL    HW213102  10.402   6.691   6.205
 3757SOL     OW13103   0.099   0.695  12.435
 3757SOL    HW113104   0.077   0.666  12.523
 3757SOL    HW213105   0.190   0.669  12.422
 3758SOL     OW13106   5.416   6.983  11.790
 3758SOL    HW113107   5.498   7.033  11.790
 3758SOL    HW213108   5.370   7.013  11.711
 3759SOL     OW13109  12.381  10.068   9.961
 3759SOL    HW113110  12.300  10.043   9.917
 3759SOL    HW213111  12.434  10.110   9.894
 3760SOL     OW13112   7.904   8.813   5.643
 3760SOL    HW113113   7.863   8.822   5.557
 3760SOL    HW213114   7.996   8.794   5.624
 3761SOL     OW13115  13.354   8.764   0.229
 3761SOL    HW113116  13.299   8.686   0.238
 3761SOL    HW213117  13.390   8.757   0.140
 3762SOL     OW13118   3.641   0.742  10.037
 3762SOL    HW113119   3.664   0.834  10.021
 3762SOL    HW213120   3.633   0.736  10.132
 3763SOL     OW13121   0.722  12.641   3.673
 3763SOL    HW113122   0.778  12.613   3.601
 3763SOL    HW213123   0.645  12.678   3.630
 3764SOL     OW13124   3.999  12.136  10.231
 3764SOL    HW113125   3.948  12.076  10.176
 3764SOL    HW213126   3.977  12.223  10.198
 3765SOL     OW13127  12.454   2.375   5.070
 3765SOL    HW113128  12.387   2.441   5.087
 3765SOL    HW213129  12.428   2.299   5.122
 3766SOL     OW13130   9.516   6.969  13.775
 3766SOL    HW113131   9.589   7.006  13.825
 3766SOL    HW213132   9.494   6.888  13.821
 3767SOL     OW13133  12.498   2.960   7.496
 3767SOL    HW113134  12.534   3.042   7.463
 3767SOL    HW213135  12.566   2.894   7.476
 3768SOL     OW13136   9.508  12.525  13.031
 3768SOL    HW113137   9.597  12.534  13.063
 3768SOL    HW213138   9.471  12.452  13.080
 3769SOL     OW13139  10.667  13.657  12.016
 3769SOL    HW113140  10.639  13.578  12.062
 3769SOL    HW213141  10.679  13.628  11.925
 3770SOL     OW13142   4.157   0.489   3.473
 3770SOL    HW113143   4.099   0.469   3.399
 3770SOL    HW213144   4.144   0.416   3.533
 3771SOL     OW13145   9.819   1.361   6.096
 3771SOL    HW113146   9.905   1.399   6.077
 3771SOL    HW213147   9.816   1.352   6.191
 3772SOL     OW13148  13.420   9.123   3.995
 3772SOL    HW113149  13.340   9.122   4.048
 3772SOL    HW213150  13.481   9.067   4.042
 3773SOL     OW13151   2.802   3.647   5.476
 3773SOL    HW113152   2.764   3.586   5.539
 3773SOL    HW213153   2.735   3.659   5.409
 3774SOL     OW13154  12.857   1.452  10.935
 3774SOL    HW113155  12.897   1.397  11.002
 3774SOL    HW213156  12.778   1.488  10.976
 3775SOL     OW13157   7.340  11.870   4.649
 3775SOL    HW113158   7.301  11.928   4.715
 3775SOL    HW213159   7.358  11.789   4.697
 3776SOL     OW13160  11.097   0.285   5.511
 3776SOL    HW113161  11.163   0.292   5.441
 3776SOL    HW213162  11.137   0.329   5.586
 3777SOL     OW13163  11.432  11.570  14.381
 3777SOL    HW113164  11.461  11.481  14.361
 3777SOL    HW213165  11.504  11.626  14.350
 3778SOL     OW13166   3.048   1.096   4.915
 3778SOL    HW113167   3.090   1.177   4.944
 3778SOL    HW213168   3.119   1.031   4.915
 3779SOL     OW13169  14.742  14.016  13.202
 3779SOL    HW113170  14.749  14.066  13.121
 3779SOL    HW213171  14.797  14.064  13.264
 3780SOL     OW13172   7.491  12.716   6.413
 3780SOL    HW113173   7.559  12.663   6.371
 3780SOL    HW213174   7.438  12.652   6.461
 3781SOL     OW13175  11.853   3.735   6.330
 3781SOL    HW113176  11.779   3.684   6.362
 3781SOL    HW213177  11.814   3.819   6.304
 3782SOL     OW13178  14.606   4.401   4.096
 3782SOL    HW113179  14.552   4.466   4.051
 3782SOL    HW213180  14.602   4.324   4.039
 3783SOL     OW13181   9.462  11.857  12.285
 3783SOL    HW113182   9.491  11.946  12.265
 3783SOL    HW213183   9.514  11.831  12.361
 3784SOL     OW13184   9.630   1.865   5.398
 3784SOL    HW113185   9.630   1.902   5.310
 3784SOL    HW213186   9.709   1.899   5.440
 3785SOL     OW13187   7.873   3.809  12.964
 3785SOL    HW113188   7.850   3.890  13.008
 3785SOL    HW213189   7.809   3.800  12.894
 3786SOL     OW13190   2.670  11.353  13.986
 3786SOL    HW113191   2.575  11.343  13.984
 3786SOL    HW213192   2.684  11.448  13.982
 3787SOL     OW13193   8.413   3.202   2.981
 3787SOL    HW113194   8.456   3.256   3.048
 3787SOL    HW213195   8.321   3.227   2.987
 3788SOL     OW13196  13.164  13.430   8.692
 3788SOL    HW113197  13.085  13.377   8.679
 3788SOL    HW213198  13.132  13.518   8.710
 3789SOL     OW13199   7.114  13.172  12.090
 3789SOL    HW113200   7.183  13.231  12.061
 3789SOL    HW213201   7.153  13.125  12.165
 3790SOL     OW13202   8.482   4.943  13.251
 3790SOL    HW113203   8.503   5.007  13.183
 3790SOL    HW213204   8.455   4.995  13.326
 3791SOL     OW13205   2.445   7.962   3.749
 3791SOL    HW113206   2.420   7.993   3.662
 3791SOL    HW213207   2.507   7.891   3.732
 3792SOL     OW13208  12.079   0.588   3.598
 3792SOL    HW113209  12.145   0.655   3.582
 3792SOL    HW213210  12.115   0.508   3.560
 3793SOL     OW13211   3.566   3.452   2.058
 3793SOL    HW113212   3.623   3.505   2.115
 3793SOL    HW213213   3.516   3.516   2.008
 3794SOL     OW13214  11.664   8.008  12.733
 3794SOL    HW113215  11.659   8.009  12.829
 3794SOL    HW213216  11.717   8.084  12.711
 3795SOL     OW13217  14.660   2.477   9.692
 3795SOL    HW113218  14.632   2.396   9.650
 3795SOL    HW213219  14.653   2.459   9.785
 3796SOL     OW13220   5.501   6.354   9.876
 3796SOL    HW113221   5.536   6.405   9.803
 3796SOL    HW213222   5.572   6.354   9.941
 3797SOL     OW13223  11.101  11.094   1.412
 3797SOL    HW113224  11.112  11.174   1.361
 3797SOL    HW213225  11.026  11.051   1.373
 3798SOL     OW13226   9.109   5.621   6.038
 3798SOL    HW113227   9.188   5.615   6.092
 3798SOL    HW213228   9.056   5.689   6.079
 3799SOL     OW13229   2.745   2.108  10.313
 3799SOL    HW113230   2.806   2.076  10.246
 3799SOL    HW213231   2.705   2.030  10.349
 3800SOL     OW13232   6.923   3.023   5.917
 3800SOL    HW113233   6.920   2.928   5.929
 3800SOL    HW213234   7.002   3.051   5.964
 3801SOL     OW13235   2.168  14.263  12.524
 3801SOL    HW113236   2.131  14.199  12.584
 3801SOL    HW213237   2.107  14.337  12.528
 3802SOL     OW13238   2.746  13.059  14.381
 3802SOL    HW113239   2.775  12.975  14.418
 3802SOL    HW213240   2.675  13.087  14.439
 3803SOL     OW13241  12.414   2.127   5.417
 3803SOL    HW113242  12.401   2.204   5.472
 3803SOL    HW213243  12.388   2.156   5.329
 3804SOL     OW13244  11.271   1.907   8.848
 3804SOL    HW113245  11.264   1.923   8.754
 3804SOL    HW213246  11.230   1.822   8.861
 3805SOL     OW13247  10.976   5.448  11.327
 3805SOL    HW113248  11.047   5.437  11.263
 3805SOL    HW213249  10.994   5.532  11.369
 3806SOL     OW13250   7.640  10.604   8.186
 3806SOL    HW113251   7.548  10.623   8.168
 3806SOL    HW213252   7.641  10.573   8.277
 3807SOL     OW13253   4.082   8.320   0.284
 3807SOL    HW113254   4.095   8.297   0.191
 3807SOL    HW213255   4.084   8.416   0.285
 3808SOL     OW13256   7.550   6.557   0.740
 3808SOL    HW113257   7.561   6.476   0.790
 3808SOL    HW213258   7.540   6.527   0.649
 3809SOL     OW13259   8.307   6.025   1.940
 3809SOL    HW113260   8.321   6.079   2.017
 3809SOL    HW213261   8.360   5.947   1.955
 3810SOL     OW13262  13.555   1.490  10.660
 3810SOL    HW113263  13.488   1.424  10.643
 3810SOL    HW213264  13.526   1.534  10.740
 3811SOL     OW13265   0.685   2.101   5.911
 3811SOL    HW113266   0.708   2.144   5.829
 3811SOL    HW213267   0.592   2.081   5.903
 3812SOL     OW13268  13.537   7.632   8.091
 3812SOL    HW113269  13.611   7.681   8.126
 3812SOL    HW213270  13.478   7.622   8.165
 3813SOL     OW13271   1.035  11.914   5.237
 3813SOL    HW113272   1.089  11.838   5.259
 3813SOL    HW213273   1.096  11.976   5.195
 3814SOL     OW13274  14.231  13.525   5.508
 3814SOL    HW113275  14.146  13.492   5.539
 3814SOL    HW213276  14.287  13.524   5.586
 3815SOL     OW13277   3.993  14.120   8.601
 3815SOL    HW113278   4.077  14.097   8.640
 3815SOL    HW213279   3.933  14.127   8.675
 3816SOL     OW13280  12.182  11.342   9.319
 3816SOL    HW113281  12.129  11.321   9.396
 3816SOL    HW213282  12.266  11.297   9.335
 3817SOL     OW13283   1.132   2.838  12.798
 3817SOL    HW113284   1.134   2.913  12.738
 3817SOL    HW213285   1.080   2.772  12.751
 3818SOL     OW13286   6.382   2.178   1.870
 3818SOL    HW113287   6.435   2.242   1.917
 3818SOL    HW213288   6.443   2.106   1.852
 3819SOL     OW13289  13.740   9.618   6.155
 3819SOL    HW113290  13.786   9.542   6.190
 3819SOL    HW213291  13.652   9.612   6.191
 3820SOL     OW13292   9.310   3.362  14.811
 3820SOL    HW113293   9.352   3.284  14.774
 3820SOL    HW213294   9.369   3.434  14.789
 3821SOL     OW13295   9.671   7.943  10.740
 3821SOL    HW113296   9.586   7.898  10.736
 3821SOL    HW213297   9.692   7.948  10.833
 3822SOL     OW13298   5.130   0.891   4.134
 3822SOL    HW113299   5.092   0.906   4.221
 3822SOL    HW213300   5.104   0.801   4.112
 3823SOL     OW13301   7.070   6.635   3.829
 3823SOL    HW113302   6.991   6.667   3.873
 3823SOL    HW213303   7.116   6.584   3.896
 3824SOL     OW13304   9.832  14.088   3.127
 3824SOL    HW113305   9.771  14.092   3.200
 3824SOL    HW213306   9.872  14.175   3.123
 3825SOL     OW13307   6.763   4.576  12.370
 3825SOL    HW113308   6.671   4.568  12.396
 3825SOL    HW213309   6.791   4.659  12.409
 3826SOL     OW13310   9.582  12.504   9.582
 3826SOL    HW113311   9.620  12.569   9.641
 3826SOL    HW213312   9.513  12.462   9.633
 3827SOL     OW13313  13.801   8.777   4.958
 3827SOL    HW113314  13.799   8.712   4.887
 3827SOL    HW213315  13.867   8.840   4.930
 3828SOL     OW13316   2.970  13.677   4.888
 3828SOL    HW113317   3.007  13.732   4.957
 3828SOL    HW213318   2.904  13.623   4.932
 3829SOL     OW13319   2.895   8.403  14.653
 3829SOL    HW113320   2.985   8.429  14.635
 3829SOL    HW213321   2.897   8.307  14.653
 3830SOL     OW13322  11.048   2.983   7.382
 3830SOL    HW113323  11.143   2.979   7.390
 3830SOL    HW213324  11.032   3.030   7.300
 3831SOL     OW13325   7.259  14.854   4.277
 3831SOL    HW113326   7.248   0.023   4.192
 3831SOL    HW213327   7.328  14.789   4.263
 3832SOL     OW13328   3.800  12.345   8.787
 3832SOL    HW113329   3.713  12.345   8.828
 3832SOL    HW213330   3.854  12.398   8.846
 3833SOL     OW13331   1.785   7.247   5.536
 3833SOL    HW113332   1.851   7.180   5.554
 3833SOL    HW213333   1.703   7.198   5.526
 3834SOL     OW13334  13.143   9.202   0.217
 3834SOL    HW113335  13.084   9.259   0.266
 3834SOL    HW213336  13.185   9.148   0.283
 3835SOL     OW13337   3.483  10.028   1.956
 3835SOL    HW113338   3.486  10.006   1.863
 3835SOL    HW213339   3.522   9.952   2.000
 3836SOL     OW13340   8.711  14.669  11.626
 3836SOL    HW113341   8.629  14.663  11.577
 3836SOL    HW213342   8.735  14.578  11.643
 3837SOL     OW13343   4.568  11.664  12.117
 3837SOL    HW113344   4.622  11.672  12.196
 3837SOL    HW213345   4.509  11.739  12.121
 3838SOL     OW13346   2.627   6.638   6.851
 3838SOL    HW113347   2.540   6.618   6.815
 3838SOL    HW213348   2.626   6.733   6.862
 3839SOL     OW13349   1.913   6.249   5.462
 3839SOL    HW113350   1.930   6.318   5.526
 3839SOL    HW213351   1.947   6.284   5.379
 3840SOL     OW13352   9.716  12.823   9.297
 3840SOL    HW113353   9.779  12.752   9.300
 3840SOL    HW213354   9.697  12.842   9.389
 3841SOL     OW13355   9.886  10.424  14.702
 3841SOL    HW113356   9.904  10.504  14.653
 3841SOL    HW213357   9.940  10.357  14.660
 3842SOL     OW13358  13.875   2.921   3.702
 3842SOL    HW113359  13.855   2.841   3.751
 3842SOL    HW213360  13.929   2.891   3.629
 3843SOL     OW13361  13.662   1.120  12.407
 3843SOL    HW113362  13.736   1.059  12.402
 3843SOL    HW213363  13.588   1.065  12.434
 3844SOL     OW13364  13.979  13.503  14.153
 3844SOL    HW113365  14.032  13.582  14.150
 3844SOL    HW213366  13.934  13.508  14.237
 3845SOL     OW13367   4.779  12.149   3.851
 3845SOL    HW113368   4.857  12.177   3.803
 3845SOL    HW213369   4.735  12.231   3.875
 3846SOL     OW13370  13.656   5.742   3.222
 3846SOL    HW113371  13.609   5.816   3.184
 3846SOL    HW213372  13.629   5.667   3.171
 3847SOL     OW13373  11.498  10.455   9.066
 3847SOL    HW113374  11.428  10.392   9.049
 3847SOL    HW213375  11.487  10.478   9.159
 3848SOL     OW13376  13.839   0.431   7.607
 3848SOL    HW113377  13.793   0.505   7.567
 3848SOL    HW213378  13.777   0.396   7.670
 3849SOL     OW13379   8.998   7.952   5.030
 3849SOL    HW113380   8.907   7.951   5.061
 3849SOL    HW213381   9.031   8.039   5.053
 3850SOL     OW13382  13.938   6.506  14.419
 3850SOL    HW113383  13.913   6.506  14.511
 3850SOL    HW213384  13.857   6.524  14.372
 3851SOL     OW13385   6.739   9.444   7.379
 3851SOL    HW113386   6.767   9.394   7.456
 3851SOL    HW213387   6.695   9.520   7.416
 3852SOL     OW13388   4.231   7.193  11.256
 3852SOL    HW113389   4.299   7.257  11.277
 3852SOL    HW213390   4.186   7.229  11.180
 3853SOL     OW13391   9.944   7.539   5.283
 3853SOL    HW113392   9.857   7.572   5.302
 3853SOL    HW213393   9.930   7.452   5.245
 3854SOL     OW13394   0.250   3.495   3.243
 3854SOL    HW113395   0.269   3.499   3.337
 3854SOL    HW213396   0.289   3.575   3.207
 3855SOL     OW13397  11.661  14.860   9.863
 3855SOL    HW113398  11.592  14.824   9.918
 3855SOL    HW213399  11.732   0.006   9.924
 3856SOL     OW13400   6.543   3.950   9.333
 3856SOL    HW113401   6.466   3.999   9.362
 3856SOL    HW213402   6.617   3.993   9.377
 3857SOL     OW13403   8.951  11.781   8.002
 3857SOL    HW113404   8.878  11.733   8.042
 3857SOL    HW213405   9.013  11.714   7.975
 3858SOL     OW13406   8.757   7.887  13.833
 3858SOL    HW113407   8.788   7.801  13.804
 3858SOL    HW213408   8.760   7.882  13.929
 3859SOL     OW13409   6.948  12.768   1.412
 3859SOL    HW113410   6.933  12.846   1.358
 3859SOL    HW213411   6.959  12.697   1.348
 3860SOL     OW13412   7.906  14.406  12.973
 3860SOL    HW113413   7.887  14.440  12.885
 3860SOL    HW213414   7.910  14.311  12.961
 3861SOL     OW13415  14.693   6.241   6.765
 3861SOL    HW113416  14.618   6.209   6.815
 3861SOL    HW213417  14.690   6.336   6.774
 3862SOL     OW13418   4.604  11.364   5.230
 3862SOL    HW113419   4.599  11.269   5.220
 3862SOL    HW213420   4.593  11.379   5.324
 3863SOL     OW13421   6.314  12.704  13.232
 3863SOL    HW113422   6.311  12.770  13.164
 3863SOL    HW213423   6.317  12.621  13.184
 3864SOL     OW13424   7.487  13.481  10.399
 3864SOL    HW113425   7.466  13.565  10.440
 3864SOL    HW213426   7.434  13.479  10.320
 3865SOL     OW13427   5.562  11.780  13.358
 3865SOL    HW113428   5.644  11.734  13.372
 3865SOL    HW213429   5.533  11.805  13.446
 3866SOL     OW13430  12.301  13.495  14.196
 3866SOL    HW113431  12.361  13.550  14.247
 3866SOL    HW213432  12.223  13.488  14.251
 3867SOL     OW13433   0.467   4.096  12.091
 3867SOL    HW113434   0.543   4.048  12.059
 3867SOL    HW213435   0.480   4.185  12.060
 3868SOL     OW13436   5.091   4.247  13.992
 3868SOL    HW113437   5.099   4.333  14.033
 3868SOL    HW213438   5.070   4.266  13.900
 3869SOL     OW13439   8.587  14.435   3.508
 3869SOL    HW113440   8.546  14.517   3.482
 3869SOL    HW213441   8.599  14.443   3.603
 3870SOL     OW13442   2.456   2.343   8.753
 3870SOL    HW113443   2.480   2.327   8.844
 3870SOL    HW213444   2.413   2.428   8.753
 3871SOL     OW13445   4.910   7.673   7.194
 3871SOL    HW113446   4.817   7.653   7.187
 3871SOL    HW213447   4.942   7.671   7.104
 3872SOL     OW13448   6.647  11.716   4.104
 3872SOL    HW113449   6.647  11.657   4.180
 3872SOL    HW213450   6.740  11.734   4.088
 3873SOL     OW13451  13.092   2.801   5.297
 3873SOL    HW113452  13.036   2.824   5.371
 3873SOL    HW213453  13.031   2.774   5.229
 3874SOL     OW13454   0.817   4.102   5.256
 3874SOL    HW113455   0.893   4.102   5.315
 3874SOL    HW213456   0.756   4.165   5.295
 3875SOL     OW13457   5.136  10.723  10.202
 3875SOL    HW113458   5.145  10.763  10.116
 3875SOL    HW213459   5.209  10.757  10.253
 3876SOL     OW13460   5.949   6.670   9.470
 3876SOL    HW113461   5.995   6.709   9.395
 3876SOL    HW213462   6.014   6.612   9.510
 3877SOL     OW13463   2.393   4.275   8.829
 3877SOL    HW113464   2.484   4.258   8.804
 3877SOL    HW213465   2.397   4.287   8.924
 3878SOL     OW13466  14.031   7.082  12.530
 3878SOL    HW113467  13.949   7.038  12.552
 3878SOL    HW213468  14.099   7.027  12.570
 3879SOL     OW13469   9.442   7.523   9.094
 3879SOL    HW113470   9.491   7.588   9.144
 3879SOL    HW213471   9.433   7.562   9.007
 3880SOL     OW13472   6.027   1.276  11.326
 3880SOL    HW113473   5.997   1.338  11.258
 3880SOL    HW213474   5.948   1.255  11.375
 3881SOL     OW13475  11.298   0.959   4.936
 3881SOL    HW113476  11.339   0.989   5.016
 3881SOL    HW213477  11.361   0.980   4.867
 3882SOL     OW13478   5.243   8.465   4.570
 3882SOL    HW113479   5.163   8.423   4.537
 3882SOL    HW213480   5.262   8.533   4.505
 3883SOL     OW13481  14.696   9.620  11.762
 3883SOL    HW113482  14.716   9.676  11.686
 3883SOL    HW213483  14.603   9.599  11.752
 3884SOL     OW13484   0.604   3.465  12.612
 3884SOL    HW113485   0.690   3.426  12.629
 3884SOL    HW213486   0.621   3.559  12.607
 3885SOL     OW13487   7.287  11.309  14.673
 3885SOL    HW113488   7.192  11.320  14.668
 3885SOL    HW213489   7.322  11.380  14.620
 3886SOL     OW13490  13.475  14.424   3.783
 3886SOL    HW113491  13.518  14.353   3.734
 3886SOL    HW213492  13.435  14.479   3.715
 3887SOL     OW13493   7.681   6.472   5.641
 3887SOL    HW113494   7.651   6.561   5.663
 3887SOL    HW213495   7.763   6.485   5.594
 3888SOL     OW13496   4.854  11.075  10.033
 3888SOL    HW113497   4.855  11.079   9.938
 3888SOL    HW213498   4.788  11.009  10.054
 3889SOL     OW13499   2.986  11.640   8.207
 3889SOL    HW113500   3.003  11.704   8.276
 3889SOL    HW213501   3.066  11.641   8.154
 3890SOL     OW13502  12.822  10.551  13.097
 3890SOL    HW113503  12.868  10.548  13.013
 3890SOL    HW213504  12.730  10.554  13.073
 3891SOL     OW13505   2.318   4.223   5.611
 3891SOL    HW113506   2.264   4.285   5.561
 3891SOL    HW213507   2.327   4.263   5.697
 3892SOL     OW13508   4.043  11.357  13.334
 3892SOL    HW113509   3.952  11.347  13.304
 3892SOL    HW213510   4.094  11.303  13.274
 3893SOL     OW13511   7.139  11.180  13.021
 3893SOL    HW113512   7.121  11.094  12.984
 3893SOL    HW213513   7.216  11.166  13.077
 3894SOL     OW13514  13.041   2.764   3.442
 3894SOL    HW113515  13.017   2.678   3.408
 3894SOL    HW213516  13.045   2.752   3.537
 3895SOL     OW13517   2.720  14.336   9.609
 3895SOL    HW113518   2.738  14.288   9.690
 3895SOL    HW213519   2.749  14.277   9.540
 3896SOL     OW13520   0.375   0.429   9.079
 3896SOL    HW113521   0.373   0.362   9.147
 3896SOL    HW213522   0.447   0.486   9.103
 3897SOL     OW13523   8.380   0.259   4.776
 3897SOL    HW113524   8.455   0.220   4.730
 3897SOL    HW213525   8.306   0.246   4.717
 3898SOL     OW13526   1.980   8.189   4.411
 3898SOL    HW113527   2.020   8.108   4.378
 3898SOL    HW213528   1.951   8.235   4.332
 3899SOL     OW13529   9.696   5.827   6.050
 3899SOL    HW113530   9.632   5.851   6.116
 3899SOL    HW213531   9.780   5.860   6.083
 3900SOL     OW13532  11.484   1.000  12.543
 3900SOL    HW113533  11.540   1.059  12.594
 3900SOL    HW213534  11.506   0.913  12.573
 3901SOL     OW13535   4.526  12.939  10.242
 3901SOL    HW113536   4.541  12.912  10.332
 3901SOL    HW213537   4.463  12.876  10.208
 3902SOL     OW13538  14.189  14.357  11.565
 3902SOL    HW113539  14.242  14.436  11.559
 3902SOL    HW213540  14.203  14.312  11.482
 3903SOL     OW13541   6.121   0.213  13.446
 3903SOL    HW113542   6.052   0.179  13.388
 3903SOL    HW213543   6.164   0.280  13.393
 3904SOL     OW13544  14.701   0.321   5.262
 3904SOL    HW113545  14.718   0.376   5.339
 3904SOL    HW213546  14.607   0.329   5.247
 3905SOL     OW13547  12.161   0.709  10.043
 3905SOL    HW113548  12.082   0.726   9.992
 3905SOL    HW213549  12.185   0.795  10.079
 3906SOL     OW13550   6.208   0.934   2.735
 3906SOL    HW113551   6.218   1.020   2.694
 3906SOL    HW213552   6.160   0.882   2.670
 3907SOL     OW13553  13.685  14.454  14.448
 3907SOL    HW113554  13.597  14.426  14.425
 3907SOL    HW213555  13.696  14.430  14.540
 3908SOL     OW13556   9.033   8.111   8.696
 3908SOL    HW113557   8.981   8.141   8.621
 3908SOL    HW213558   9.036   8.015   8.686
 3909SOL     OW13559   1.765   1.268   8.900
 3909SOL    HW113560   1.684   1.277   8.849
 3909SOL    HW213561   1.799   1.182   8.876
 3910SOL     OW13562   1.916   5.747   1.985
 3910SOL    HW113563   1.930   5.813   2.053
 3910SOL    HW213564   2.000   5.703   1.976
 3911SOL     OW13565   4.681   0.756   8.140
 3911SOL    HW113566   4.770   0.762   8.104
 3911SOL    HW213567   4.684   0.680   8.197
 3912SOL     OW13568  12.080   2.644   2.536
 3912SOL    HW113569  12.149   2.681   2.481
 3912SOL    HW213570  12.006   2.705   2.526
 3913SOL     OW13571   9.742   0.688  12.178
 3913SOL    HW113572   9.769   0.756  12.116
 3913SOL    HW213573   9.658   0.718  12.212
 3914SOL     OW13574  10.972   1.670  11.306
 3914SOL    HW113575  11.062   1.686  11.280
 3914SOL    HW213576  10.961   1.719  11.387
 3915SOL     OW13577  12.920   4.347   9.686
 3915SOL    HW113578  12.973   4.301   9.751
 3915SOL    HW213579  12.976   4.418   9.655
 3916SOL     OW13580  13.135   5.231   5.631
 3916SOL    HW113581  13.074   5.216   5.703
 3916SOL    HW213582  13.218   5.251   5.673
 3917SOL     OW13583   6.312  10.264   8.595
 3917SOL    HW113584   6.248  10.207   8.638
 3917SOL    HW213585   6.300  10.349   8.636
 3918SOL     OW13586  11.943  14.316   7.448
 3918SOL    HW113587  11.986  14.237   7.416
 3918SOL    HW213588  11.858  14.287   7.480
 3919SOL     OW13589  11.521   2.938  14.694
 3919SOL    HW113590  11.531   2.867  14.757
 3919SOL    HW213591  11.493   2.894  14.613
 3920SOL     OW13592   7.849   3.079  10.263
 3920SOL    HW113593   7.891   3.041  10.186
 3920SOL    HW213594   7.921   3.097  10.323
 3921SOL     OW13595  11.135   6.594   7.442
 3921SOL    HW113596  11.055   6.647   7.436
 3921SOL    HW213597  11.153   6.568   7.352
 3922SOL     OW13598  11.991   7.169   6.653
 3922SOL    HW113599  11.972   7.201   6.565
 3922SOL    HW213600  11.937   7.222   6.711
 3923SOL     OW13601  12.878   6.872   0.178
 3923SOL    HW113602  12.796   6.875   0.227
 3923SOL    HW213603  12.854   6.832   0.094
 3924SOL     OW13604   1.136   7.249  13.561
 3924SOL    HW113605   1.187   7.233  13.482
 3924SOL    HW213606   1.190   7.307  13.614
 3925SOL     OW13607   6.522  11.048   5.251
 3925SOL    HW113608   6.555  11.137   5.235
 3925SOL    HW213609   6.534  11.035   5.345
 3926SOL     OW13610   0.331  12.841  12.898
 3926SOL    HW113611   0.333  12.935  12.916
 3926SOL    HW213612   0.297  12.801  12.978
 3927SOL     OW13613  13.767   6.787  10.606
 3927SOL    HW113614  13.857   6.760  10.626
 3927SOL    HW213615  13.724   6.792  10.690
 3928SOL     OW13616   8.974   9.182  11.067
 3928SOL    HW113617   8.988   9.216  10.978
 3928SOL    HW213618   8.895   9.226  11.097
 3929SOL     OW13619  10.829   4.683   8.453
 3929SOL    HW113620  10.742   4.686   8.414
 3929SOL    HW213621  10.864   4.597   8.427
 3930SOL     OW13622   3.697  11.354   4.813
 3930SOL    HW113623   3.728  11.265   4.833
 3930SOL    HW213624   3.635  11.374   4.884
 3931SOL     OW13625  10.527   0.719   4.206
 3931SOL    HW113626  10.488   0.762   4.282
 3931SOL    HW213627  10.614   0.692   4.235
 3932SOL     OW13628   5.383   2.612  11.160
 3932SOL    HW113629   5.335   2.530  11.144
 3932SOL    HW213630   5.397   2.648  11.073
 3933SOL     OW13631  12.154   5.495   4.640
 3933SOL    HW113632  12.079   5.551   4.619
 3933SOL    HW213633  12.230   5.552   4.627
 3934SOL     OW13634   6.930   2.005  12.847
 3934SOL    HW113635   6.853   2.030  12.900
 3934SOL    HW213636   6.918   1.912  12.829
 3935SOL     OW13637   2.778   4.393   6.587
 3935SOL    HW113638   2.848   4.332   6.562
 3935SOL    HW213639   2.814   4.480   6.567
 3936SOL     OW13640   8.610   6.346  13.119
 3936SOL    HW113641   8.678   6.397  13.163
 3936SOL    HW213642   8.601   6.387  13.033
 3937SOL     OW13643   8.095   3.117   8.025
 3937SOL    HW113644   8.027   3.156   8.080
 3937SOL    HW213645   8.108   3.179   7.954
 3938SOL     OW13646   2.255   0.887   2.043
 3938SOL    HW113647   2.252   0.935   1.960
 3938SOL    HW213648   2.247   0.795   2.017
 3939SOL     OW13649   1.456  12.103   7.128
 3939SOL    HW113650   1.482  12.090   7.219
 3939SOL    HW213651   1.534  12.140   7.086
 3940SOL     OW13652   2.071   8.770  12.600
 3940SOL    HW113653   2.102   8.794  12.687
 3940SOL    HW213654   2.144   8.724  12.560
 3941SOL     OW13655   0.594   4.190   3.534
 3941SOL    HW113656   0.670   4.140   3.563
 3941SOL    HW213657   0.529   4.179   3.603
 3942SOL     OW13658   0.495   9.623   8.635
 3942SOL    HW113659   0.520   9.531   8.629
 3942SOL    HW213660   0.570   9.671   8.601
 3943SOL     OW13661   7.136   6.986   7.286
 3943SOL    HW113662   7.219   6.974   7.241
 3943SOL    HW213663   7.069   6.963   7.221
 3944SOL     OW13664   0.691   0.286   7.589
 3944SOL    HW113665   0.725   0.197   7.582
 3944SOL    HW213666   0.755   0.331   7.645
 3945SOL     OW13667   5.061   1.747   0.178
 3945SOL    HW113668   5.101   1.831   0.199
 3945SOL    HW213669   4.978   1.770   0.137
 3946SOL     OW13670   8.861   3.532   2.876
 3946SOL    HW113671   8.785   3.571   2.834
 3946SOL    HW213672   8.836   3.440   2.890
 3947SOL     OW13673   8.096  11.050   1.929
 3947SOL    HW113674   8.054  11.049   2.015
 3947SOL    HW213675   8.095  11.142   1.902
 3948SOL     OW13676   5.994   2.244   2.247
 3948SOL    HW113677   6.015   2.275   2.335
 3948SOL    HW213678   6.078   2.221   2.209
 3949SOL     OW13679   8.905   1.291   7.445
 3949SOL    HW113680   8.924   1.245   7.526
 3949SOL    HW213681   8.991   1.316   7.411
 3950SOL     OW13682   7.122   8.392   8.393
 3950SOL    HW113683   7.198   8.393   8.334
 3950SOL    HW213684   7.105   8.485   8.411
 3951SOL     OW13685  13.880   9.213   4.823
 3951SOL    HW113686  13.864   9.280   4.890
 3951SOL    HW213687  13.860   9.130   4.866
 3952SOL     OW13688  14.214   8.126  13.551
 3952SOL    HW113689  14.192   8.206  13.598
 3952SOL    HW213690  14.188   8.143  13.460
 3953SOL     OW13691  12.138  14.171  10.900
 3953SOL    HW113692  12.149  14.265  10.915
 3953SOL    HW213693  12.118  14.163  10.807
 3954SOL     OW13694   9.752   1.390  11.595
 3954SOL    HW113695   9.839   1.365  11.626
 3954SOL    HW213696   9.766   1.472  11.548
 3955SOL     OW13697   6.735   7.440   4.796
 3955SOL    HW113698   6.806   7.393   4.752
 3955SOL    HW213699   6.766   7.530   4.801
 3956SOL     OW13700   3.113   8.359  12.792
 3956SOL    HW113701   3.172   8.288  12.768
 3956SOL    HW213702   3.025   8.321  12.783
 3957SOL     OW13703  10.389   9.358   6.797
 3957SOL    HW113704  10.353   9.312   6.721
 3957SOL    HW213705  10.413   9.289   6.858
 3958SOL     OW13706  12.326   8.451   9.356
 3958SOL    HW113707  12.313   8.403   9.274
 3958SOL    HW213708  12.393   8.400   9.402
 3959SOL     OW13709   3.627   7.531  12.136
 3959SOL    HW113710   3.544   7.541  12.090
 3959SOL    HW213711   3.693   7.527  12.066
 3960SOL     OW13712  11.732   4.570  11.856
 3960SOL    HW113713  11.697   4.501  11.800
 3960SOL    HW213714  11.659   4.591  11.915
 3961SOL     OW13715   6.846  14.516   2.451
 3961SOL    HW113716   6.889  14.443   2.497
 3961SOL    HW213717   6.853  14.493   2.358
 3962SOL     OW13718   2.560   1.631  14.873
 3962SOL    HW113719   2.549   1.596  14.785
 3962SOL    HW213720   2.638   1.587   0.034
 3963SOL     OW13721   3.104   3.922   9.074
 3963SOL    HW113722   3.177   3.861   9.079
 3963SOL    HW213723   3.053   3.904   9.153
 3964SOL     OW13724   3.594   3.761   1.008
 3964SOL    HW113725   3.539   3.767   0.930
 3964SOL    HW213726   3.557   3.687   1.057
 3965SOL     OW13727  11.926   2.569   9.642
 3965SOL    HW113728  11.899   2.616   9.564
 3965SOL    HW213729  11.991   2.506   9.611
 3966SOL     OW13730  12.773  11.656  12.831
 3966SOL    HW113731  12.810  11.742  12.851
 3966SOL    HW213732  12.708  11.673  12.763
 3967SOL     OW13733   0.487   3.607  10.314
 3967SOL    HW113734   0.512   3.683  10.262
 3967SOL    HW213735   0.551   3.539  10.292
 3968SOL     OW13736   9.602   2.081   0.469
 3968SOL    HW113737   9.544   2.060   0.396
 3968SOL    HW213738   9.683   2.034   0.449
 3969SOL     OW13739   8.161   6.183  13.429
 3969SOL    HW113740   8.104   6.260  13.417
 3969SOL    HW213741   8.118   6.113  13.380
 3970SOL     OW13742  14.045   3.342  13.086
 3970SOL    HW113743  14.034   3.252  13.056
 3970SOL    HW213744  13.958   3.381  13.080
 3971SOL     OW13745   0.258   2.620   0.014
 3971SOL    HW113746   0.314   2.550  14.852
 3971SOL    HW213747   0.245   2.597   0.106
 3972SOL     OW13748  14.416   7.455   5.340
 3972SOL    HW113749  14.496   7.410   5.366
 3972SOL    HW213750  14.417   7.452   5.244
 3973SOL     OW13751  12.234  13.228   1.011
 3973SOL    HW113752  12.204  13.233   1.102
 3973SOL    HW213753  12.156  13.248   0.959
 3974SOL     OW13754  10.161   3.554   0.484
 3974SOL    HW113755  10.075   3.568   0.444
 3974SOL    HW213756  10.221   3.607   0.431
 3975SOL     OW13757   9.159   1.806   5.880
 3975SOL    HW113758   9.253   1.802   5.861
 3975SOL    HW213759   9.127   1.718   5.862
 3976SOL     OW13760   6.014   0.909  14.015
 3976SOL    HW113761   5.948   0.869  13.958
 3976SOL    HW213762   6.085   0.934  13.956
 3977SOL     OW13763   6.998   6.711   1.215
 3977SOL    HW113764   6.951   6.629   1.198
 3977SOL    HW213765   6.929   6.778   1.215
 3978SOL     OW13766  10.687   9.751  10.992
 3978SOL    HW113767  10.736   9.743  11.073
 3978SOL    HW213768  10.671   9.661  10.963
 3979SOL     OW13769  10.119  10.537  10.666
 3979SOL    HW113770  10.083  10.502  10.585
 3979SOL    HW213771  10.091  10.628  10.668
 3980SOL     OW13772   5.110   4.966  11.990
 3980SOL    HW113773   5.150   4.902  11.932
 3980SOL    HW213774   5.044   5.010  11.936
 3981SOL     OW13775   5.533   7.500   0.920
 3981SOL    HW113776   5.620   7.531   0.896
 3981SOL    HW213777   5.528   7.513   1.015
 3982SOL     OW13778   9.408   9.873  10.062
 3982SOL    HW113779   9.358   9.881   9.981
 3982SOL    HW213780   9.346   9.898  10.131
 3983SOL     OW13781   1.696  11.952   1.016
 3983SOL    HW113782   1.760  11.895   0.974
 3983SOL    HW213783   1.690  12.028   0.958
 3984SOL     OW13784   9.586   5.059  12.730
 3984SOL    HW113785   9.491   5.061  12.719
 3984SOL    HW213786   9.605   4.971  12.763
 3985SOL     OW13787  12.246  11.216   9.872
 3985SOL    HW113788  12.283  11.209   9.960
 3985SOL    HW213789  12.298  11.153   9.820
 3986SOL     OW13790  11.202   8.645  10.656
 3986SOL    HW113791  11.178   8.703  10.583
 3986SOL    HW213792  11.262   8.697  10.710
 3987SOL     OW13793   3.798   5.352   0.349
 3987SOL    HW113794   3.789   5.442   0.317
 3987SOL    HW213795   3.826   5.303   0.271
 3988SOL     OW13796  12.605   8.898   2.911
 3988SOL    HW113797  12.617   8.812   2.951
 3988SOL    HW213798  12.688   8.943   2.925
 3989SOL     OW13799   9.867   8.135   1.188
 3989SOL    HW113800   9.824   8.055   1.218
 3989SOL    HW213801   9.848   8.199   1.256
 3990SOL     OW13802   6.601   4.840  10.326
 3990SOL    HW113803   6.577   4.755  10.363
 3990SOL    HW213804   6.521   4.892  10.335
 3991SOL     OW13805   5.900   8.425   3.179
 3991SOL    HW113806   5.965   8.356   3.165
 3991SOL    HW213807   5.817   8.385   3.153
 3992SOL     OW13808   8.736   8.000  12.424
 3992SOL    HW113809   8.680   8.058  12.475
 3992SOL    HW213810   8.749   8.046  12.341
 3993SOL     OW13811  13.576   0.127   0.512
 3993SOL    HW113812  13.496   0.177   0.501
 3993SOL    HW213813  13.586   0.076   0.432
 3994SOL     OW13814   3.109  14.397   7.472
 3994SOL    HW113815   3.060  14.472   7.438
 3994SOL    HW213816   3.093  14.398   7.566
 3995SOL     OW13817   7.571   5.927   9.519
 3995SOL    HW113818   7.649   5.978   9.544
 3995SOL    HW213819   7.499   5.968   9.568
 3996SOL     OW13820   8.875   7.901   7.066
 3996SOL    HW113821   8.789   7.941   7.064
 3996SOL    HW213822   8.868   7.826   7.008
 3997SOL     OW13823   3.787   2.351   6.932
 3997SOL    HW113824   3.718   2.345   6.998
 3997SOL    HW213825   3.839   2.427   6.960
 3998SOL     OW13826   4.949   4.384   4.192
 3998SOL    HW113827   5.015   4.344   4.249
 3998SOL    HW213828   4.983   4.372   4.104
 3999SOL     OW13829   6.118   1.189   7.644
 3999SOL    HW113830   6.153   1.207   7.731
 3999SOL    HW213831   6.155   1.104   7.621
 4000SOL     OW13832  14.121   0.607  11.509
 4000SOL    HW113833  14.078   0.640  11.588
 4000SOL    HW213834  14.137   0.685  11.456
 4001SOL     OW13835  10.771   5.610   4.363
 4001SOL    HW113836  10.852   5.575   4.401
 4001SOL    HW213837  10.790   5.702   4.348
 4002SOL     OW13838   9.525   2.059   0.154
 4002SOL    HW113839   9.604   2.008   0.137
 4002SOL    HW213840   9.549   2.149   0.130
 4003SOL     OW13841  13.458   9.072   5.667
 4003SOL    HW113842  13.451   8.988   5.623
 4003SOL    HW213843  13.547   9.075   5.701
 4004SOL     OW13844   5.991  12.935  11.505
 4004SOL    HW113845   6.064  12.918  11.446
 4004SOL    HW213846   5.935  12.997  11.458
 4005SOL     OW13847   7.281   1.377   9.143
 4005SOL    HW113848   7.280   1.362   9.048
 4005SOL    HW213849   7.322   1.462   9.154
 4006SOL     OW13850   4.289  12.553   9.498
 4006SOL    HW113851   4.358  12.497   9.464
 4006SOL    HW213852   4.326  12.641   9.496
 4007SOL     OW13853   2.829   3.742  13.862
 4007SOL    HW113854   2.752   3.773  13.814
 4007SOL    HW213855   2.881   3.820  13.878
 4008SOL     OW13856   3.354  11.176   4.490
 4008SOL    HW113857   3.270  11.222   4.497
 4008SOL    HW213858   3.373  11.175   4.396
 4009SOL     OW13859  14.521   8.469  12.599
 4009SOL    HW113860  14.577   8.392  12.604
 4009SOL    HW213861  14.466   8.464  12.677
 4010SOL     OW13862   4.362  12.299   8.908
 4010SOL    HW113863   4.376  12.211   8.942
 4010SOL    HW213864   4.364  12.355   8.986
 4011SOL     OW13865   5.938   6.304   8.503
 4011SOL    HW113866   6.034   6.299   8.499
 4011SOL    HW213867   5.919   6.396   8.523
 4012SOL     OW13868   6.247   3.446   9.275
 4012SOL    HW113869   6.156   3.434   9.250
 4012SOL    HW213870   6.278   3.519   9.221
 4013SOL     OW13871  13.052   1.402   1.569
 4013SOL    HW113872  13.068   1.406   1.663
 4013SOL    HW213873  13.075   1.488   1.536
 4014SOL     OW13874   7.427   9.834   6.836
 4014SOL    HW113875   7.444   9.780   6.759
 4014SOL    HW213876   7.515   9.857   6.868
 4015SOL     OW13877   7.810   1.628   7.287
 4015SOL    HW113878   7.797   1.547   7.237
 4015SOL    HW213879   7.888   1.668   7.248
 4016SOL     OW13880  10.079  14.218   6.400
 4016SOL    HW113881  10.137  14.169   6.459
 4016SOL    HW213882   9.993  14.214   6.442
 4017SOL     OW13883  13.352   4.961  11.525
 4017SOL    HW113884  13.262   4.995  11.519
 4017SOL    HW213885  13.404   5.023  11.475
 4018SOL     OW13886  12.912   0.580  10.568
 4018SOL    HW113887  12.932   0.536  10.485
 4018SOL    HW213888  12.896   0.509  10.630
 4019SOL     OW13889   4.839   7.056   8.672
 4019SOL    HW113890   4.884   7.101   8.743
 4019SOL    HW213891   4.816   7.126   8.610
 4020SOL     OW13892   8.853   8.689   1.042
 4020SOL    HW113893   8.876   8.778   1.069
 4020SOL    HW213894   8.825   8.646   1.123
 4021SOL     OW13895   2.557   3.835   2.794
 4021SOL    HW113896   2.560   3.766   2.861
 4021SOL    HW213897   2.490   3.896   2.826
 4022SOL     OW13898   0.352  13.314   8.093
 4022SOL    HW113899   0.282  13.338   8.033
 4022SOL    HW213900   0.404  13.394   8.104
 4023SOL     OW13901   4.718   3.265   4.992
 4023SOL    HW113902   4.714   3.197   5.058
 4023SOL    HW213903   4.678   3.341   5.034
 4024SOL     OW13904   8.326  14.431   0.246
 4024SOL    HW113905   8.410  14.476   0.256
 4024SOL    HW213906   8.346  14.355   0.191
 4025SOL     OW13907   2.364   5.899   2.184
 4025SOL    HW113908   2.292   5.837   2.200
 4025SOL    HW213909   2.405   5.911   2.269
 4026SOL     OW13910   1.490   8.059   2.809
 4026SOL    HW113911   1.418   7.999   2.829
 4026SOL    HW213912   1.543   8.061   2.888
 4027SOL     OW13913   5.512   4.239  13.828
 4027SOL    HW113914   5.568   4.304  13.786
 4027SOL    HW213915   5.426   4.251  13.786
 4028SOL     OW13916   9.457   8.236  11.587
 4028SOL    HW113917   9.373   8.193  11.606
 4028SOL    HW213918   9.508   8.168  11.543
 4029SOL     OW13919   9.076   6.184  11.828
 4029SOL    HW113920   9.143   6.252  11.833
 4029SOL    HW213921   9.111   6.112  11.881
 4030SOL     OW13922   6.375  14.589   3.344
 4030SOL    HW113923   6.432  14.513   3.353
 4030SOL    HW213924   6.315  14.582   3.418
 4031SOL     OW13925  11.569  12.989   9.341
 4031SOL    HW113926  11.655  13.000   9.301
 4031SOL    HW213927  11.507  13.006   9.270
 4032SOL     OW13928  10.810   0.871   2.801
 4032SOL    HW113929  10.865   0.793   2.807
 4032SOL    HW213930  10.731   0.841   2.757
 4033SOL     OW13931   5.556   2.885  13.200
 4033SOL    HW113932   5.523   2.930  13.278
 4033SOL    HW213933   5.594   2.954  13.146
 4034SOL     OW13934   2.221   2.128   9.131
 4034SOL    HW113935   2.158   2.060   9.108
 4034SOL    HW213936   2.170   2.195   9.176
 4035SOL     OW13937   7.867   7.926   5.582
 4035SOL    HW113938   7.793   7.918   5.642
 4035SOL    HW213939   7.863   7.846   5.528
 4036SOL     OW13940  11.666   9.360   8.348
 4036SOL    HW113941  11.666   9.284   8.406
 4036SOL    HW213942  11.754   9.397   8.358
 4037SOL     OW13943   1.265   2.132   5.963
 4037SOL    HW113944   1.260   2.162   6.054
 4037SOL    HW213945   1.359   2.133   5.943
 4038SOL     OW13946  11.138   4.507   3.608
 4038SOL    HW113947  11.138   4.463   3.693
 4038SOL    HW213948  11.185   4.447   3.550
 4039SOL     OW13949  12.928  10.752   7.766
 4039SOL    HW113950  12.974  10.806   7.702
 4039SOL    HW213951  12.884  10.815   7.823
 4040SOL     OW13952  13.836   9.315   5.143
 4040SOL    HW113953  13.772   9.386   5.136
 4040SOL    HW213954  13.904   9.350   5.200
 4041SOL     OW13955   2.263   8.568  11.184
 4041SOL    HW113956   2.302   8.623  11.116
 4041SOL    HW213957   2.338   8.533  11.232
 4042SOL     OW13958  14.001   4.520   2.099
 4042SOL    HW113959  14.077   4.573   2.123
 4042SOL    HW213960  13.926   4.571   2.129
 4043SOL     OW13961  12.924   6.767  11.781
 4043SOL    HW113962  12.839   6.759  11.740
 4043SOL    HW213963  12.907   6.814  11.863
 4044SOL     OW13964   1.879   1.905  13.027
 4044SOL    HW113965   1.814   1.839  13.054
 4044SOL    HW213966   1.830   1.987  13.028
 4045SOL     OW13967   2.708  13.773  11.645
 4045SOL    HW113968   2.666  13.841  11.699
 4045SOL    HW213969   2.656  13.694  11.661
 4046SOL     OW13970   5.651   2.304  11.716
 4046SOL    HW113971   5.638   2.331  11.625
 4046SOL    HW213972   5.656   2.387  11.765
 4047SOL     OW13973   8.265   1.851   1.945
 4047SOL    HW113974   8.337   1.911   1.925
 4047SOL    HW213975   8.212   1.897   2.010
 4048SOL     OW13976  11.697   1.429   3.319
 4048SOL    HW113977  11.657   1.516   3.321
 4048SOL    HW213978  11.760   1.429   3.390
 4049SOL     OW13979  11.248  13.458  14.553
 4049SOL    HW113980  11.226  13.477  14.644
 4049SOL    HW213981  11.341  13.481  14.546
 4050SOL     OW13982   0.231  10.267   7.015
 4050SOL    HW113983   0.322  10.274   7.042
 4050SOL    HW213984   0.226  10.182   6.971
 4051SOL     OW13985  13.200   3.052   3.647
 4051SOL    HW113986  13.135   3.078   3.713
 4051SOL    HW213987  13.283   3.084   3.681
 4052SOL     OW13988   5.521   0.001   2.957
 4052SOL    HW113989   5.466  14.830   2.892
 4052SOL    HW213990   5.592   0.041   2.906
 4053SOL     OW13991   8.545   2.432   3.135
 4053SOL    HW113992   8.471   2.484   3.105
 4053SOL    HW213993   8.621   2.471   3.093
 4054SOL     OW13994   2.078   8.340   9.573
 4054SOL    HW113995   2.083   8.323   9.479
 4054SOL    HW213996   2.059   8.433   9.580
 4055SOL     OW13997  12.081  13.465   0.505
 4055SOL    HW113998  12.145  13.415   0.557
 4055SOL    HW213999  12.009  13.481   0.566
 4056SOL     OW14000   6.896   4.342  12.303
 4056SOL    HW114001   6.853   4.426  12.323
 4056SOL    HW214002   6.980   4.347  12.348
 4057SOL     OW14003   6.753   1.463   6.667
 4057SOL    HW114004   6.822   1.529   6.676
 4057SOL    HW214005   6.769   1.402   6.740
 4058SOL     OW14006   6.981   1.925  12.426
 4058SOL    HW114007   6.951   1.914  12.335
 4058SOL    HW214008   6.980   2.020  12.440
 4059SOL     OW14009  11.323  10.912   2.294
 4059SOL    HW114010  11.337  10.839   2.233
 4059SOL    HW214011  11.394  10.973   2.275
 4060SOL     OW14012   1.137   5.890   2.711
 4060SOL    HW114013   1.079   5.899   2.787
 4060SOL    HW214014   1.222   5.868   2.749
 4061SOL     OW14015  13.366  12.809  10.245
 4061SOL    HW114016  13.285  12.859  10.255
 4061SOL    HW214017  13.414  12.856  10.177
 4062SOL     OW14018   3.843  12.019   3.614
 4062SOL    HW114019   3.875  12.103   3.646
 4062SOL    HW214020   3.760  12.006   3.660
 4063SOL     OW14021   0.075   9.965   0.633
 4063SOL    HW114022  14.860   9.927   0.631
 4063SOL    HW214023   0.115   9.929   0.712
 4064SOL     OW14024   3.897   6.055   1.839
 4064SOL    HW114025   3.966   6.067   1.773
 4064SOL    HW214026   3.908   5.964   1.868
 4065SOL     OW14027   1.219   8.535   4.993
 4065SOL    HW114028   1.174   8.555   5.075
 4065SOL    HW214029   1.293   8.597   4.990
 4066SOL     OW14030   0.496  13.460   6.660
 4066SOL    HW114031   0.481  13.372   6.694
 4066SOL    HW214032   0.561  13.449   6.591
 4067SOL     OW14033   1.418   3.696   5.203
 4067SOL    HW114034   1.392   3.666   5.290
 4067SOL    HW214035   1.453   3.784   5.217
 4068SOL     OW14036   2.941   1.877  11.359
 4068SOL    HW114037   2.935   1.960  11.406
 4068SOL    HW214038   2.955   1.812  11.428
 4069SOL     OW14039  13.373  11.793   6.758
 4069SOL    HW114040  13.321  11.782   6.679
 4069SOL    HW214041  13.462  11.770   6.731
 4070SOL     OW14042   4.030   6.393   9.974
 4070SOL    HW114043   3.971   6.381  10.048
 4070SOL    HW214044   4.118   6.385  10.011
 4071SOL     OW14045   7.954   3.525  11.236
 4071SOL    HW114046   8.035   3.493  11.197
 4071SOL    HW214047   7.979   3.608  11.278
 4072SOL     OW14048   0.755   2.662   6.678
 4072SOL    HW114049   0.846   2.645   6.702
 4072SOL    HW214050   0.721   2.717   6.748
 4073SOL     OW14051   1.498   7.417   9.642
 4073SOL    HW114052   1.478   7.456   9.727
 4073SOL    HW214053   1.420   7.366   9.620
 4074SOL     OW14054   1.697  11.337   0.316
 4074SOL    HW114055   1.726  11.343   0.407
 4074SOL    HW214056   1.731  11.417   0.275
 4075SOL     OW14057   0.477  11.062   5.167
 4075SOL    HW114058   0.537  11.114   5.112
 4075SOL    HW214059   0.410  11.125   5.195
 4076SOL     OW14060  11.296   2.292   7.553
 4076SOL    HW114061  11.267   2.243   7.630
 4076SOL    HW214062  11.217   2.334   7.519
 4077SOL     OW14063  12.960  13.734  13.011
 4077SOL    HW114064  12.969  13.639  13.017
 4077SOL    HW214065  12.939  13.763  13.100
 4078SOL     OW14066  10.872  13.707   8.870
 4078SOL    HW114067  10.914  13.703   8.784
 4078SOL    HW214068  10.927  13.766   8.921
 4079SOL     OW14069   8.586   6.555  14.211
 4079SOL    HW114070   8.582   6.598  14.296
 4079SOL    HW214071   8.668   6.586  14.172
 4080SOL     OW14072   1.618   0.088  14.857
 4080SOL    HW114073   1.646   0.170  14.816
 4080SOL    HW214074   1.523   0.095  14.862
 4081SOL     OW14075  11.383   0.467   0.205
 4081SOL    HW114076  11.353   0.547   0.162
 4081SOL    HW214077  11.407   0.495   0.293
 4082SOL     OW14078   8.398   3.168   3.910
 4082SOL    HW114079   8.355   3.189   3.993
 4082SOL    HW214080   8.327   3.147   3.850
 4083SOL     OW14081  10.021   5.091   6.743
 4083SOL    HW114082  10.065   5.167   6.705
 4083SOL    HW214083   9.973   5.052   6.669
 4084SOL     OW14084   7.145   2.073  14.215
 4084SOL    HW114085   7.199   2.014  14.162
 4084SOL    HW214086   7.111   2.137  14.153
 4085SOL     OW14087   1.777  14.672   6.808
 4085SOL    HW114088   1.770  14.744   6.871
 4085SOL    HW214089   1.726  14.602   6.848
 4086SOL     OW14090   3.899  10.966   0.261
 4086SOL    HW114091   3.887  11.060   0.273
 4086SOL    HW214092   3.993  10.952   0.272
 4087SOL     OW14093   4.582   1.363  14.797
 4087SOL    HW114094   4.497   1.319  14.797
 4087SOL    HW214095   4.564   1.450  14.760
 4088SOL     OW14096   6.398   8.599   7.635
 4088SOL    HW114097   6.491   8.576   7.636
 4088SOL    HW214098   6.388   8.654   7.557
 4089SOL     OW14099  10.728   4.526   6.817
 4089SOL    HW114100  10.660   4.501   6.880
 4089SOL    HW214101  10.761   4.444   6.782
 4090SOL     OW14102   9.203   3.239  10.671
 4090SOL    HW114103   9.113   3.271  10.673
 4090SOL    HW214104   9.254   3.304  10.720
 4091SOL     OW14105  10.179   1.056   6.454
 4091SOL    HW114106  10.140   1.122   6.397
 4091SOL    HW214107  10.274   1.072   6.447
 4092SOL     OW14108   8.393   7.056   6.881
 4092SOL    HW114109   8.308   7.015   6.897
 4092SOL    HW214110   8.438   7.050   6.966
 4093SOL     OW14111   9.596   0.967   0.523
 4093SOL    HW114112   9.653   0.950   0.449
 4093SOL    HW214113   9.572   1.059   0.515
 4094SOL     OW14114   7.170   0.235   7.357
 4094SOL    HW114115   7.096   0.248   7.298
 4094SOL    HW214116   7.220   0.316   7.353
 4095SOL     OW14117   0.733   1.606   8.747
 4095SOL    HW114118   0.652   1.655   8.734
 4095SOL    HW214119   0.712   1.517   8.716
 4096SOL     OW14120  11.233   1.225  14.678
 4096SOL    HW114121  11.150   1.202  14.636
 4096SOL    HW214122  11.216   1.309  14.720
 4097SOL     OW14123  12.927   9.236   4.197
 4097SOL    HW114124  12.958   9.294   4.266
 4097SOL    HW214125  12.911   9.294   4.122
 4098SOL     OW14126   9.532   8.755   6.471
 4098SOL    HW114127   9.445   8.721   6.449
 4098SOL    HW214128   9.547   8.722   6.560
 4099SOL     OW14129   0.147   6.632  11.225
 4099SOL    HW114130   0.089   6.669  11.158
 4099SOL    HW214131   0.125   6.680  11.305
 4100SOL     OW14132  11.111   3.633   5.926
 4100SOL    HW114133  11.042   3.609   5.864
 4100SOL    HW214134  11.107   3.728   5.931
 4101SOL     OW14135   9.980   3.443  14.839
 4101SOL    HW114136   9.963   3.456  14.746
 4101SOL    HW214137   9.900   3.402  14.872
 4102SOL     OW14138   2.949  10.853   8.294
 4102SOL    HW114139   3.038  10.886   8.299
 4102SOL    HW214140   2.945  10.805   8.211
 4103SOL     OW14141   7.385   9.086  11.409
 4103SOL    HW114142   7.336   9.168  11.404
 4103SOL    HW214143   7.426   9.088  11.495
 4104SOL     OW14144   3.069   1.004  10.118
 4104SOL    HW114145   3.014   1.057  10.059
 4104SOL    HW214146   3.013   0.987  10.194
 4105SOL     OW14147   2.680  14.093   2.245
 4105SOL    HW114148   2.605  14.152   2.231
 4105SOL    HW214149   2.642  14.005   2.239
 4106SOL     OW14150  13.456  11.796   5.802
 4106SOL    HW114151  13.425  11.884   5.783
 4106SOL    HW214152  13.406  11.740   5.742
 4107SOL     OW14153  13.363   4.949   6.126
 4107SOL    HW114154  13.396   4.960   6.037
 4107SOL    HW214155  13.438   4.965   6.182
 4108SOL     OW14156  13.243   8.708  14.582
 4108SOL    HW114157  13.238   8.788  14.529
 4108SOL    HW214158  13.179   8.649  14.542
 4109SOL     OW14159   3.560  10.331  11.010
 4109SOL    HW114160   3.625  10.401  11.009
 4109SOL    HW214161   3.610  10.252  11.027
 4110SOL     OW14162   9.549  12.681   1.171
 4110SOL    HW114163   9.582  12.725   1.092
 4110SOL    HW214164   9.477  12.736   1.202
 4111SOL     OW14165   3.453   7.203  11.353
 4111SOL    HW114166   3.448   7.110  11.374
 4111SOL    HW214167   3.427   7.209  11.261
 4112SOL     OW14168   1.438   1.296   1.049
 4112SOL    HW114169   1.484   1.355   1.108
 4112SOL    HW214170   1.507   1.255   0.997
 4113SOL     OW14171   3.848   9.953   5.198
 4113SOL    HW114172   3.880  10.015   5.264
 4113SOL    HW214173   3.925   9.903   5.172
 4114SOL     OW14174  13.835  13.459   2.550
 4114SOL    HW114175  13.813  13.375   2.509
 4114SOL    HW214176  13.751  13.494   2.580
 4115SOL     OW14177  13.970  14.073  11.863
 4115SOL    HW114178  14.044  14.118  11.905
 4115SOL    HW214179  13.977  13.982  11.893
 4116SOL     OW14180   4.215   7.313   4.101
 4116SOL    HW114181   4.163   7.385   4.065
 4116SOL    HW214182   4.305   7.344   4.096
 4117SOL     OW14183  13.708   9.138   0.434
 4117SOL    HW114184  13.671   9.057   0.399
 4117SOL    HW214185  13.633   9.185   0.471
 4118SOL     OW14186   2.736  11.886   0.982
 4118SOL    HW114187   2.802  11.871   0.914
 4118SOL    HW214188   2.763  11.967   1.025
 4119SOL     OW14189  13.951  13.820   1.089
 4119SOL    HW114190  13.928  13.734   1.125
 4119SOL    HW214191  14.041  13.810   1.058
 4120SOL     OW14192  14.464   7.680   1.830
 4120SOL    HW114193  14.466   7.726   1.913
 4120SOL    HW214194  14.525   7.728   1.774
 4121SOL     OW14195   7.722  11.872  13.056
 4121SOL    HW114196   7.786  11.936  13.088
 4121SOL    HW214197   7.694  11.825  13.134
 4122SOL     OW14198   3.847   1.359  11.122
 4122SOL    HW114199   3.785   1.388  11.190
 4122SOL    HW214200   3.933   1.372  11.162
 4123SOL     OW14201  10.859  11.561  14.235
 4123SOL    HW114202  10.798  11.557  14.161
 4123SOL    HW214203  10.840  11.645  14.276
 4124SOL     OW14204  14.024  12.229  11.413
 4124SOL    HW114205  14.091  12.289  11.447
 4124SOL    HW214206  14.051  12.143  11.443
 4125SOL     OW14207   0.738   3.603  12.925
 4125SOL    HW114208   0.697   3.678  12.882
 4125SOL    HW214209   0.776   3.639  13.005
 4126SOL     OW14210   8.740  12.470   9.268
 4126SOL    HW114211   8.665  12.426   9.229
 4126SOL    HW214212   8.737  12.559   9.233
 4127SOL     OW14213   9.585   0.702  10.251
 4127SOL    HW114214   9.567   0.766  10.320
 4127SOL    HW214215   9.518   0.634  10.264
 4128SOL     OW14216   1.990  14.261   1.232
 4128SOL    HW114217   2.046  14.275   1.307
 4128SOL    HW214218   1.979  14.166   1.227
 4129SOL     OW14219   2.525  12.197  14.711
 4129SOL    HW114220   2.570  12.114  14.723
 4129SOL    HW214221   2.433  12.174  14.703
 4130SOL     OW14222  10.991   6.131  10.058
 4130SOL    HW114223  10.947   6.078   9.992
 4130SOL    HW214224  10.934   6.128  10.134
 4131SOL     OW14225   5.672  12.166   3.833
 4131SOL    HW114226   5.632  12.174   3.920
 4131SOL    HW214227   5.717  12.081   3.834
 4132SOL     OW14228   4.550   2.668   3.259
 4132SOL    HW114229   4.536   2.576   3.236
 4132SOL    HW214230   4.487   2.717   3.207
 4133SOL     OW14231   3.829  11.619  10.050
 4133SOL    HW114232   3.881  11.618  10.131
 4133SOL    HW214233   3.875  11.559   9.991
 4134SOL     OW14234   1.764   4.344   8.132
 4134SOL    HW114235   1.789   4.351   8.224
 4134SOL    HW214236   1.809   4.266   8.100
 4135SOL     OW14237   1.491   5.344  12.481
 4135SOL    HW114238   1.538   5.261  12.493
 4135SOL    HW214239   1.408   5.331  12.526
 4136SOL     OW14240   7.899   6.839   6.698
 4136SOL    HW114241   7.945   6.921   6.680
 4136SOL    HW214242   7.911   6.787   6.619
 4137SOL     OW14243   2.964  11.167   0.444
 4137SOL    HW114244   3.046  11.154   0.493
 4137SOL    HW214245   2.901  11.111   0.489
 4138SOL     OW14246   5.503   1.512  12.666
 4138SOL    HW114247   5.443   1.496  12.738
 4138SOL    HW214248   5.573   1.448  12.677
 4139SOL     OW14249   0.831   5.946   9.032
 4139SOL    HW114250   0.877   5.935   8.948
 4139SOL    HW214251   0.900   5.951   9.097
 4140SOL     OW14252  10.408  10.194   0.130
 4140SOL    HW114253  10.393  10.247   0.208
 4140SOL    HW214254  10.324  10.151   0.114
 4141SOL     OW14255   7.293  11.313  12.390
 4141SOL    HW114256   7.313  11.391  12.339
 4141SOL    HW214257   7.365  11.253  12.371
 4142SOL     OW14258   9.079   0.168  10.775
 4142SOL    HW114259   9.099   0.080  10.807
 4142SOL    HW214260   9.056   0.154  10.683
 4143SOL     OW14261  11.535  11.730  10.053
 4143SOL    HW114262  11.519  11.807   9.998
 4143SOL    HW214263  11.557  11.766  10.139
 4144SOL     OW14264  13.629   5.244   9.163
 4144SOL    HW114265  13.565   5.233   9.093
 4144SOL    HW214266  13.659   5.155   9.184
 4145SOL     OW14267   4.074   5.427   1.000
 4145SOL    HW114268   4.139   5.497   0.993
 4145SOL    HW214269   4.030   5.444   1.083
 4146SOL     OW14270  13.878  14.200  12.383
 4146SOL    HW114271  13.894  14.132  12.317
 4146SOL    HW214272  13.890  14.155  12.467
 4147SOL     OW14273   5.972  12.509   7.913
 4147SOL    HW114274   5.933  12.514   7.825
 4147SOL    HW214275   5.899  12.489   7.971
 4148SOL     OW14276   8.382   1.796   0.224
 4148SOL    HW114277   8.391   1.805   0.129
 4148SOL    HW214278   8.443   1.725   0.246
 4149SOL     OW14279   8.000   8.481  11.511
 4149SOL    HW114280   7.955   8.454  11.431
 4149SOL    HW214281   8.070   8.539  11.481
 4150SOL     OW14282  10.632   1.963   9.270
 4150SOL    HW114283  10.544   1.964   9.308
 4150SOL    HW214284  10.637   2.043   9.219
 4151SOL     OW14285   2.509   5.662   2.185
 4151SOL    HW114286   2.500   5.754   2.159
 4151SOL    HW214287   2.602   5.652   2.206
 4152SOL     OW14288   8.427   4.289   1.174
 4152SOL    HW114289   8.367   4.354   1.138
 4152SOL    HW214290   8.398   4.278   1.264
 4153SOL     OW14291  11.320  11.720   6.536
 4153SOL    HW114292  11.280  11.766   6.610
 4153SOL    HW214293  11.326  11.629   6.565
 4154SOL     OW14294   0.396   1.997   0.069
 4154SOL    HW114295   0.341   2.022  14.868
 4154SOL    HW214296   0.461   1.937   0.032
 4155SOL     OW14297  10.774  11.026   0.712
 4155SOL    HW114298  10.824  11.087   0.766
 4155SOL    HW214299  10.705  10.993   0.770
 4156SOL     OW14300  10.889   0.150  14.124
 4156SOL    HW114301  10.923   0.063  14.106
 4156SOL    HW214302  10.797   0.135  14.146
 4157SOL     OW14303   1.482   8.532  11.621
 4157SOL    HW114304   1.529   8.461  11.576
 4157SOL    HW214305   1.434   8.576  11.551
 4158SOL     OW14306  12.178   0.849  12.091
 4158SOL    HW114307  12.259   0.805  12.117
 4158SOL    HW214308  12.116   0.778  12.077
 4159SOL     OW14309   9.340  13.706   0.754
 4159SOL    HW114310   9.331  13.615   0.779
 4159SOL    HW214311   9.334  13.705   0.658
 4160SOL     OW14312   8.310   1.685   6.855
 4160SOL    HW114313   8.252   1.743   6.903
 4160SOL    HW214314   8.291   1.701   6.763
 4161SOL     OW14315  11.290   2.468   9.017
 4161SOL    HW114316  11.280   2.455   9.111
 4161SOL    HW214317  11.384   2.474   9.004
 4162SOL     OW14318   0.342  10.358   6.621
 4162SOL    HW114319   0.266  10.369   6.563
 4162SOL    HW214320   0.410  10.412   6.581
 4163SOL     OW14321  10.074   4.883   2.625
 4163SOL    HW114322  10.120   4.807   2.659
 4163SOL    HW214323   9.983   4.872   2.654
 4164SOL     OW14324   1.908  13.621   7.250
 4164SOL    HW114325   1.840  13.643   7.187
 4164SOL    HW214326   1.893  13.681   7.323
 4165SOL     OW14327  12.731   1.841   6.726
 4165SOL    HW114328  12.677   1.786   6.670
 4165SOL    HW214329  12.792   1.780   6.768
 4166SOL     OW14330  12.246   9.589   9.596
 4166SOL    HW114331  12.157   9.555   9.585
 4166SOL    HW214332  12.292   9.563   9.516
 4167SOL     OW14333   1.433   6.891   9.907
 4167SOL    HW114334   1.388   6.847   9.979
 4167SOL    HW214335   1.378   6.967   9.887
 4168SOL     OW14336   0.508  12.483  13.598
 4168SOL    HW114337   0.591  12.497  13.551
 4168SOL    HW214338   0.478  12.397  13.568
 4169SOL     OW14339  11.397   8.364   3.953
 4169SOL    HW114340  11.325   8.335   4.009
 4169SOL    HW214341  11.457   8.289   3.951
 4170SOL     OW14342   0.821   1.177   5.351
 4170SOL    HW114343   0.772   1.157   5.272
 4170SOL    HW214344   0.913   1.176   5.324
 4171SOL     OW14345   4.916   2.362  14.362
 4171SOL    HW114346   4.972   2.435  14.337
 4171SOL    HW214347   4.913   2.366  14.458
 4172SOL     OW14348   5.313   5.732   5.774
 4172SOL    HW114349   5.244   5.676   5.737
 4172SOL    HW214350   5.272   5.770   5.852
 4173SOL     OW14351   1.948  10.103  11.784
 4173SOL    HW114352   2.019  10.166  11.793
 4173SOL    HW214353   1.913  10.119  11.696
 4174SOL     OW14354   5.848   0.107   6.903
 4174SOL    HW114355   5.776   0.122   6.964
 4174SOL    HW214356   5.813   0.133   6.818
 4175SOL     OW14357   8.976  10.426   8.902
 4175SOL    HW114358   9.025  10.397   8.825
 4175SOL    HW214359   8.979  10.351   8.962
 4176SOL     OW14360  12.381  10.146   7.470
 4176SOL    HW114361  12.366  10.234   7.504
 4176SOL    HW214362  12.372  10.089   7.547
 4177SOL     OW14363   7.184   2.020   4.363
 4177SOL    HW114364   7.228   2.067   4.433
 4177SOL    HW214365   7.090   2.034   4.379
 4178SOL     OW14366  13.077   2.676   4.024
 4178SOL    HW114367  13.056   2.605   4.084
 4178SOL    HW214368  13.046   2.647   3.939
 4179SOL     OW14369  12.352   7.582   2.549
 4179SOL    HW114370  12.339   7.491   2.521
 4179SOL    HW214371  12.320   7.584   2.639
 4180SOL     OW14372  10.111   3.823  11.315
 4180SOL    HW114373  10.204   3.838  11.298
 4180SOL    HW214374  10.105   3.731  11.340
 4181SOL     OW14375   5.843  12.122   6.841
 4181SOL    HW114376   5.770  12.071   6.876
 4181SOL    HW214377   5.921  12.070   6.860
 4182SOL     OW14378   3.199   7.130  10.580
 4182SOL    HW114379   3.142   7.065  10.622
 4182SOL    HW214380   3.206   7.101  10.489
 4183SOL     OW14381  12.824   3.004   2.556
 4183SOL    HW114382  12.871   3.043   2.482
 4183SOL    HW214383  12.744   2.969   2.517
 4184SOL     OW14384  14.005  11.427   6.548
 4184SOL    HW114385  14.050  11.502   6.508
 4184SOL    HW214386  14.072  11.359   6.553
 4185SOL     OW14387  11.278  12.159   2.352
 4185SOL    HW114388  11.222  12.147   2.275
 4185SOL    HW214389  11.277  12.254   2.366
 4186SOL     OW14390  14.138  10.270   5.784
 4186SOL    HW114391  14.184  10.337   5.835
 4186SOL    HW214392  14.185  10.189   5.803
 4187SOL     OW14393  14.828   9.417  10.596
 4187SOL    HW114394   0.049   9.419  10.617
 4187SOL    HW214395  14.786   9.464  10.668
 4188SOL     OW14396   1.951   1.847   2.946
 4188SOL    HW114397   1.897   1.772   2.972
 4188SOL    HW214398   2.025   1.846   3.007
 4189SOL     OW14399   7.025   4.930   0.348
 4189SOL    HW114400   7.004   5.019   0.321
 4189SOL    HW214401   7.087   4.940   0.420
 4190SOL     OW14402  12.480  13.752   8.324
 4190SOL    HW114403  12.500  13.815   8.393
 4190SOL    HW214404  12.471  13.805   8.245
 4191SOL     OW14405   1.210  11.954   0.106
 4191SOL    HW114406   1.297  11.959   0.066
 4191SOL    HW214407   1.151  11.940   0.032
 4192SOL     OW14408   6.336   2.433   9.103
 4192SOL    HW114409   6.331   2.433   9.198
 4192SOL    HW214410   6.249   2.404   9.074
 4193SOL     OW14411  10.606   6.515   3.482
 4193SOL    HW114412  10.551   6.544   3.555
 4193SOL    HW214413  10.563   6.436   3.450
 4194SOL     OW14414   1.073  11.174   2.762
 4194SOL    HW114415   1.081  11.269   2.752
 4194SOL    HW214416   1.076  11.159   2.856
 4195SOL     OW14417   4.097   2.148   8.254
 4195SOL    HW114418   4.180   2.173   8.215
 4195SOL    HW214419   4.058   2.088   8.191
 4196SOL     OW14420   2.477  12.497   7.447
 4196SOL    HW114421   2.463  12.462   7.535
 4196SOL    HW214422   2.547  12.561   7.457
 4197SOL     OW14423   0.617   9.992   0.502
 4197SOL    HW114424   0.687  10.057   0.512
 4197SOL    HW214425   0.618   9.969   0.409
 4198SOL     OW14426  10.264   0.675   3.494
 4198SOL    HW114427  10.322   0.606   3.460
 4198SOL    HW214428  10.229   0.717   3.415
 4199SOL     OW14429   7.628  13.460   3.024
 4199SOL    HW114430   7.647  13.395   3.092
 4199SOL    HW214431   7.548  13.427   2.982
 4200SOL     OW14432   3.235   5.469   9.099
 4200SOL    HW114433   3.322   5.438   9.074
 4200SOL    HW214434   3.246   5.562   9.119
 4201SOL     OW14435  12.005   7.896   9.914
 4201SOL    HW114436  12.018   7.804   9.894
 4201SOL    HW214437  12.059   7.912   9.991
 4202SOL     OW14438   0.203   7.784   7.335
 4202SOL    HW114439   0.149   7.818   7.264
 4202SOL    HW214440   0.255   7.714   7.294
 4203SOL     OW14441  14.228   2.802   6.889
 4203SOL    HW114442  14.171   2.725   6.886
 4203SOL    HW214443  14.316   2.767   6.905
 4204SOL     OW14444   9.987   6.246   4.326
 4204SOL    HW114445   9.976   6.160   4.367
 4204SOL    HW214446  10.041   6.295   4.389
 4205SOL     OW14447   9.967   5.411  12.750
 4205SOL    HW114448  10.043   5.414  12.808
 4205SOL    HW214449   9.909   5.345  12.789
 4206SOL     OW14450   9.680   8.012   0.176
 4206SOL    HW114451   9.707   8.104   0.181
 4206SOL    HW214452   9.589   8.013   0.205
 4207SOL     OW14453   9.848  12.884  10.247
 4207SOL    HW114454   9.839  12.831  10.327
 4207SOL    HW214455   9.770  12.863  10.196
 4208SOL     OW14456   2.767   9.749  14.329
 4208SOL    HW114457   2.737   9.747  14.238
 4208SOL    HW214458   2.752   9.840  14.358
 4209SOL     OW14459   8.967   2.155  14.526
 4209SOL    HW114460   8.921   2.139  14.609
 4209SOL    HW214461   9.059   2.141  14.546
 4210SOL     OW14462  13.089   3.075   9.315
 4210SOL    HW114463  13.049   3.148   9.364
 4210SOL    HW214464  13.018   3.041   9.261
 4211SOL     OW14465   2.880   1.164   6.936
 4211SOL    HW114466   2.944   1.175   6.866
 4211SOL    HW214467   2.917   1.211   7.010
 4212SOL     OW14468   8.284   2.419   9.990
 4212SOL    HW114469   8.311   2.376  10.070
 4212SOL    HW214470   8.364   2.458   9.955
 4213SOL     OW14471   0.255   8.389   9.171
 4213SOL    HW114472   0.166   8.361   9.192
 4213SOL    HW214473   0.269   8.359   9.081
 4214SOL     OW14474  10.660   3.402   8.946
 4214SOL    HW114475  10.723   3.401   8.874
 4214SOL    HW214476  10.630   3.493   8.951
 4215SOL     OW14477   4.362   2.773   6.973
 4215SOL    HW114478   4.400   2.767   6.886
 4215SOL    HW214479   4.395   2.695   7.019
 4216SOL     OW14480   5.861  13.595   6.064
 4216SOL    HW114481   5.770  13.589   6.091
 4216SOL    HW214482   5.873  13.526   6.000
 4217SOL     OW14483   0.790   0.555   3.918
 4217SOL    HW114484   0.788   0.491   3.990
 4217SOL    HW214485   0.856   0.618   3.944
 4218SOL     OW14486   9.646   1.512   6.385
 4218SOL    HW114487   9.583   1.571   6.344
 4218SOL    HW214488   9.650   1.540   6.477
 4219SOL     OW14489   6.844  12.121   1.592
 4219SOL    HW114490   6.854  12.027   1.605
 4219SOL    HW214491   6.823  12.131   1.499
 4220SOL     OW14492   9.975   8.052   2.927
 4220SOL    HW114493   9.930   7.993   2.987
 4220SOL    HW214494  10.067   8.023   2.930
 4221SOL     OW14495  10.658   0.603   7.726
 4221SOL    HW114496  10.568   0.572   7.742
 4221SOL    HW214497  10.713   0.527   7.746
 4222SOL     OW14498   5.227   8.819  14.088
 4222SOL    HW114499   5.222   8.915  14.091
 4222SOL    HW214500   5.246   8.793  14.178
 4223SOL     OW14501   6.496   2.361   1.394
 4223SOL    HW114502   6.477   2.408   1.475
 4223SOL    HW214503   6.510   2.429   1.329
 4224SOL     OW14504   3.328   0.845   8.888
 4224SOL    HW114505   3.388   0.776   8.915
 4224SOL    HW214506   3.279   0.807   8.815
 4225SOL     OW14507   0.229   7.831   2.193
 4225SOL    HW114508   0.324   7.845   2.189
 4225SOL    HW214509   0.214   7.793   2.279
 4226SOL     OW14510  10.859   2.592   5.848
 4226SOL    HW114511  10.790   2.600   5.782
 4226SOL    HW214512  10.817   2.620   5.929
 4227SOL     OW14513   9.430  11.393  13.660
 4227SOL    HW114514   9.363  11.388  13.729
 4227SOL    HW214515   9.437  11.304  13.626
 4228SOL     OW14516   0.866  14.097  10.861
 4228SOL    HW114517   0.898  14.182  10.891
 4228SOL    HW214518   0.897  14.036  10.927
 4229SOL     OW14519   8.431  11.692   3.612
 4229SOL    HW114520   8.509  11.648   3.645
 4229SOL    HW214521   8.398  11.741   3.688
 4230SOL     OW14522   8.095  12.319   9.283
 4230SOL    HW114523   8.170  12.361   9.241
 4230SOL    HW214524   8.020  12.375   9.261
 4231SOL     OW14525   8.626   8.387  11.342
 4231SOL    HW114526   8.602   8.334  11.417
 4231SOL    HW214527   8.631   8.325  11.269
 4232SOL     OW14528   4.036   5.959   3.720
 4232SOL    HW114529   3.992   6.040   3.693
 4232SOL    HW214530   3.969   5.911   3.769
 4233SOL     OW14531  12.498  10.485  10.155
 4233SOL    HW114532  12.513  10.430  10.233
 4233SOL    HW214533  12.421  10.447  10.114
 4234SOL     OW14534  10.003   8.346   8.273
 4234SOL    HW114535  10.088   8.388   8.284
 4234SOL    HW214536  10.017   8.256   8.305
 4235SOL     OW14537   7.458  10.978   6.862
 4235SOL    HW114538   7.442  10.884   6.873
 4235SOL    HW214539   7.439  10.995   6.770
 4236SOL     OW14540  10.673   0.327   4.544
 4236SOL    HW114541  10.682   0.328   4.639
 4236SOL    HW214542  10.754   0.367   4.512
 4237SOL     OW14543   7.745  10.263   2.950
 4237SOL    HW114544   7.710  10.320   3.019
 4237SOL    HW214545   7.823  10.223   2.988
 4238SOL     OW14546   4.492  10.102   7.578
 4238SOL    HW114547   4.531  10.014   7.582
 4238SOL    HW214548   4.552  10.156   7.629
 4239SOL     OW14549   8.984   3.230  12.866
 4239SOL    HW114550   8.919   3.294  12.896
 4239SOL    HW214551   8.949   3.198  12.782
 4240SOL     OW14552   2.024   6.679  12.582
 4240SOL    HW114553   2.099   6.666  12.641
 4240SOL    HW214554   1.973   6.599  12.591
 4241SOL     OW14555  12.032   9.388   3.183
 4241SOL    HW114556  12.089   9.409   3.109
 4241SOL    HW214557  12.091   9.372   3.256
 4242SOL     OW14558   4.214  14.704   3.838
 4242SOL    HW114559   4.283  14.654   3.881
 4242SOL    HW214560   4.133  14.659   3.861
 4243SOL     OW14561   6.590   2.178   2.097
 4243SOL    HW114562   6.581   2.272   2.115
 4243SOL    HW214563   6.517   2.138   2.145
 4244SOL     OW14564  14.234  14.213   0.380
 4244SOL    HW114565  14.316  14.168   0.361
 4244SOL    HW214566  14.188  14.155   0.440
 4245SOL     OW14567   8.201  13.695   5.186
 4245SOL    HW114568   8.148  13.617   5.201
 4245SOL    HW214569   8.187  13.749   5.264
 4246SOL     OW14570   7.565   4.923  11.383
 4246SOL    HW114571   7.628   4.852  11.372
 4246SOL    HW214572   7.499   4.888  11.443
 4247SOL     OW14573   4.241   6.848   4.867
 4247SOL    HW114574   4.241   6.885   4.955
 4247SOL    HW214575   4.300   6.773   4.872
 4248SOL     OW14576   8.930  11.348  14.177
 4248SOL    HW114577   8.891  11.424  14.133
 4248SOL    HW214578   8.874  11.275  14.154
 4249SOL     OW14579  11.221   3.600  12.654
 4249SOL    HW114580  11.168   3.668  12.695
 4249SOL    HW214581  11.158   3.544  12.609
 4250SOL     OW14582   3.883  10.279   2.364
 4250SOL    HW114583   3.928  10.314   2.441
 4250SOL    HW214584   3.842  10.356   2.324
 4251SOL     OW14585  12.646   7.200   8.435
 4251SOL    HW114586  12.555   7.212   8.406
 4251SOL    HW214587  12.639   7.186   8.529
 4252SOL     OW14588   9.107   8.964  10.452
 4252SOL    HW114589   9.168   8.998  10.518
 4252SOL    HW214590   9.137   8.874  10.437
 4253SOL     OW14591  12.874   0.973  14.042
 4253SOL    HW114592  12.969   0.976  14.047
 4253SOL    HW214593  12.848   1.064  14.029
 4254SOL     OW14594  14.184   9.228  12.127
 4254SOL    HW114595  14.276   9.204  12.114
 4254SOL    HW214596  14.170   9.220  12.221
 4255SOL     OW14597   0.486   8.416   2.269
 4255SOL    HW114598   0.456   8.385   2.354
 4255SOL    HW214599   0.409   8.407   2.212
 4256SOL     OW14600  10.518   5.175   4.022
 4256SOL    HW114601  10.587   5.149   4.083
 4256SOL    HW214602  10.470   5.244   4.068
 4257SOL     OW14603  14.837   5.220   5.638
 4257SOL    HW114604  14.750   5.217   5.599
 4257SOL    HW214605  14.835   5.297   5.694
 4258SOL     OW14606   0.286   0.484   5.894
 4258SOL    HW114607   0.376   0.457   5.910
 4258SOL    HW214608   0.292   0.551   5.826
 4259SOL     OW14609   9.076  14.601   1.989
 4259SOL    HW114610   9.020  14.538   2.032
 4259SOL    HW214611   9.156  14.602   2.041
 4260SOL     OW14612  14.872  11.936  12.449
 4260SOL    HW114613  14.862  11.903  12.538
 4260SOL    HW214614   0.093  11.950  12.438
 4261SOL     OW14615   5.944   2.367   0.069
 4261SOL    HW114616   6.017   2.312   0.042
 4261SOL    HW214617   5.887   2.308   0.119
 4262SOL     OW14618   2.237  10.197   0.888
 4262SOL    HW114619   2.143  10.187   0.875
 4262SOL    HW214620   2.255  10.150   0.969
 4263SOL     OW14621   6.569   9.454   9.231
 4263SOL    HW114622   6.579   9.503   9.312
 4263SOL    HW214623   6.486   9.407   9.241
 4264SOL     OW14624  11.033   2.357   6.712
 4264SOL    HW114625  11.104   2.293   6.721
 4264SOL    HW214626  11.073   2.440   6.741
 4265SOL     OW14627   6.337   3.070   4.728
 4265SOL    HW114628   6.396   3.137   4.763
 4265SOL    HW214629   6.250   3.097   4.757
 4266SOL     OW14630   9.282   9.760   7.087
 4266SOL    HW114631   9.227   9.835   7.066
 4266SOL    HW214632   9.325   9.739   7.004
 4267SOL     OW14633   6.779   6.740   7.554
 4267SOL    HW114634   6.752   6.807   7.617
 4267SOL    HW214635   6.875   6.748   7.550
 4268SOL     OW14636   9.235   1.207  11.947
 4268SOL    HW114637   9.328   1.209  11.971
 4268SOL    HW214638   9.189   1.228  12.028
 4269SOL     OW14639   2.941   5.177   6.646
 4269SOL    HW114640   3.014   5.130   6.607
 4269SOL    HW214641   2.947   5.266   6.609
 4270SOL     OW14642   0.017  11.519   1.768
 4270SOL    HW114643   0.082  11.519   1.839
 4270SOL    HW214644   0.025  11.606   1.729
 4271SOL     OW14645   6.095   7.046  10.475
 4271SOL    HW114646   6.109   7.021  10.566
 4271SOL    HW214647   6.004   7.024  10.458
 4272SOL     OW14648  11.300   9.071   7.040
 4272SOL    HW114649  11.249   9.152   7.036
 4272SOL    HW214650  11.289   9.041   7.130
 4273SOL     OW14651  13.236   5.874   8.146
 4273SOL    HW114652  13.207   5.965   8.136
 4273SOL    HW214653  13.325   5.881   8.180
 4274SOL     OW14654  14.440   5.328  14.430
 4274SOL    HW114655  14.348   5.302  14.434
 4274SOL    HW214656  14.470   5.297  14.345
 4275SOL     OW14657   4.088   4.839   1.150
 4275SOL    HW114658   4.037   4.758   1.152
 4275SOL    HW214659   4.151   4.826   1.079
 4276SOL     OW14660   1.463   5.475  13.668
 4276SOL    HW114661   1.496   5.473  13.758
 4276SOL    HW214662   1.370   5.455  13.676
 4277SOL     OW14663  12.338  10.560   0.276
 4277SOL    HW114664  12.282  10.636   0.293
 4277SOL    HW214665  12.277  10.489   0.258
 4278SOL     OW14666   4.829   2.581   0.873
 4278SOL    HW114667   4.920   2.572   0.902
 4278SOL    HW214668   4.821   2.673   0.848
 4279SOL     OW14669  12.914   8.703   6.019
 4279SOL    HW114670  12.913   8.658   5.935
 4279SOL    HW214671  12.852   8.654   6.073
 4280SOL     OW14672   0.624   3.416   2.514
 4280SOL    HW114673   0.586   3.503   2.512
 4280SOL    HW214674   0.672   3.409   2.431
 4281SOL     OW14675   8.219   5.955  14.178
 4281SOL    HW114676   8.126   5.964  14.157
 4281SOL    HW214677   8.227   5.989  14.267
 4282SOL     OW14678  12.126   1.681   0.560
 4282SOL    HW114679  12.084   1.749   0.507
 4282SOL    HW214680  12.220   1.700   0.553
 4283SOL     OW14681   9.072   7.440  11.241
 4283SOL    HW114682   9.105   7.353  11.218
 4283SOL    HW214683   9.038   7.429  11.330
 4284SOL     OW14684   7.649  14.574   8.506
 4284SOL    HW114685   7.673  14.654   8.460
 4284SOL    HW214686   7.554  14.574   8.508
 4285SOL     OW14687   4.787   3.557   6.366
 4285SOL    HW114688   4.702   3.527   6.336
 4285SOL    HW214689   4.781   3.555   6.462
 4286SOL     OW14690   0.786   6.915   3.517
 4286SOL    HW114691   0.869   6.895   3.560
 4286SOL    HW214692   0.742   6.975   3.577
 4287SOL     OW14693   6.916   8.895  12.081
 4287SOL    HW114694   6.971   8.854  12.147
 4287SOL    HW214695   6.918   8.988  12.102
 4288SOL     OW14696   1.906   3.866   8.294
 4288SOL    HW114697   1.946   3.785   8.263
 4288SOL    HW214698   1.812   3.853   8.285
 4289SOL     OW14699   5.356  11.114   3.257
 4289SOL    HW114700   5.398  11.062   3.188
 4289SOL    HW214701   5.363  11.059   3.335
 4290SOL     OW14702  14.364   1.882   6.166
 4290SOL    HW114703  14.283   1.849   6.126
 4290SOL    HW214704  14.422   1.806   6.170
 4291SOL     OW14705   8.842  12.515  13.015
 4291SOL    HW114706   8.909  12.476  13.071
 4291SOL    HW214707   8.889  12.542  12.936
 4292SOL     OW14708   8.187   3.950  10.038
 4292SOL    HW114709   8.188   4.034   9.992
 4292SOL    HW214710   8.280   3.926  10.046
 4293SOL     OW14711  13.318  11.076   9.626
 4293SOL    HW114712  13.254  11.146   9.614
 4293SOL    HW214713  13.332  11.070   9.720
 4294SOL     OW14714  14.164   3.659  13.206
 4294SOL    HW114715  14.121   3.596  13.148
 4294SOL    HW214716  14.234   3.610  13.248
 4295SOL     OW14717  11.650   9.230   8.820
 4295SOL    HW114718  11.735   9.266   8.843
 4295SOL    HW214719  11.587   9.295   8.851
 4296SOL     OW14720  13.585   1.121  13.372
 4296SOL    HW114721  13.561   1.035  13.337
 4296SOL    HW214722  13.510   1.177  13.352
 4297SOL     OW14723   0.969  14.232   3.080
 4297SOL    HW114724   1.060  14.209   3.063
 4297SOL    HW214725   0.922  14.148   3.077
 4298SOL     OW14726  13.163  14.808  11.335
 4298SOL    HW114727  13.072  14.837  11.325
 4298SOL    HW214728  13.210   0.012  11.366
 4299SOL     OW14729   1.367  11.807   4.236
 4299SOL    HW114730   1.427  11.776   4.169
 4299SOL    HW214731   1.326  11.885   4.198
 4300SOL     OW14732  12.240   1.623   3.279
 4300SOL    HW114733  12.312   1.684   3.299
 4300SOL    HW214734  12.203   1.602   3.365
 4301SOL     OW14735  11.762   8.131  14.821
 4301SOL    HW114736  11.817   8.184  14.763
 4301SOL    HW214737  11.697   8.193  14.855
 4302SOL     OW14738  10.944  13.032  13.827
 4302SOL    HW114739  10.962  12.952  13.777
 4302SOL    HW214740  11.007  13.030  13.899
 4303SOL     OW14741   3.332   5.408  10.374
 4303SOL    HW114742   3.387   5.338  10.409
 4303SOL    HW214743   3.394   5.473  10.340
 4304SOL     OW14744   0.455  12.614   1.532
 4304SOL    HW114745   0.478  12.580   1.618
 4304SOL    HW214746   0.538  12.618   1.485
 4305SOL     OW14747   9.448   3.478   6.655
 4305SOL    HW114748   9.363   3.441   6.632
 4305SOL    HW214749   9.511   3.432   6.600
 4306SOL     OW14750   7.734  13.206  12.669
 4306SOL    HW114751   7.666  13.189  12.604
 4306SOL    HW214752   7.688  13.206  12.752
 4307SOL     OW14753  12.241   9.024  13.828
 4307SOL    HW114754  12.237   8.997  13.919
 4307SOL    HW214755  12.335   9.028  13.808
 4308SOL     OW14756   0.212   9.522   0.567
 4308SOL    HW114757   0.200   9.617   0.569
 4308SOL    HW214758   0.306   9.509   0.571
 4309SOL     OW14759  12.986  14.036   1.275
 4309SOL    HW114760  12.946  14.120   1.251
 4309SOL    HW214761  13.047  14.017   1.204
 4310SOL     OW14762  12.863   2.284  12.987
 4310SOL    HW114763  12.886   2.222  12.918
 4310SOL    HW214764  12.944   2.334  13.002
 4311SOL     OW14765  13.888   4.124   7.588
 4311SOL    HW114766  13.928   4.157   7.508
 4311SOL    HW214767  13.798   4.104   7.563
 4312SOL     OW14768   2.745  13.636   1.028
 4312SOL    HW114769   2.836  13.610   1.042
 4312SOL    HW214770   2.732  13.710   1.087
 4313SOL     OW14771   8.752   5.769  12.846
 4313SOL    HW114772   8.698   5.816  12.782
 4313SOL    HW214773   8.842   5.796  12.826
 4314SOL     OW14774   3.247   1.271   3.468
 4314SOL    HW114775   3.188   1.323   3.414
 4314SOL    HW214776   3.235   1.181   3.438
 4315SOL     OW14777   3.346   0.280   7.008
 4315SOL    HW114778   3.268   0.336   7.009
 4315SOL    HW214779   3.380   0.288   6.919
 4316SOL     OW14780   3.551  11.867   8.513
 4316SOL    HW114781   3.565  11.956   8.546
 4316SOL    HW214782   3.601  11.865   8.431
 4317SOL     OW14783  12.414   6.037   8.703
 4317SOL    HW114784  12.372   6.083   8.776
 4317SOL    HW214785  12.454   5.960   8.744
 4318SOL     OW14786   4.581   8.817   5.827
 4318SOL    HW114787   4.673   8.832   5.848
 4318SOL    HW214788   4.582   8.740   5.770
 4319SOL     OW14789   0.592   8.453   8.014
 4319SOL    HW114790   0.637   8.371   8.034
 4319SOL    HW214791   0.627   8.516   8.077
 4320SOL     OW14792  10.945   8.092   7.665
 4320SOL    HW114793  10.948   8.186   7.644
 4320SOL    HW214794  11.032   8.060   7.641
 4321SOL     OW14795   0.155   4.245   9.094
 4321SOL    HW114796   0.154   4.235   8.999
 4321SOL    HW214797   0.142   4.157   9.128
 4322SOL     OW14798   9.622   5.520  12.605
 4322SOL    HW114799   9.609   5.474  12.522
 4322SOL    HW214800   9.696   5.579  12.588
 4323SOL     OW14801  12.280  12.899   2.837
 4323SOL    HW114802  12.337  12.823   2.847
 4323SOL    HW214803  12.201  12.876   2.887
 4324SOL     OW14804  14.127   6.266  11.466
 4324SOL    HW114805  14.078   6.185  11.479
 4324SOL    HW214806  14.152   6.265  11.373
 4325SOL     OW14807   9.401   1.205  13.877
 4325SOL    HW114808   9.442   1.257  13.807
 4325SOL    HW214809   9.445   1.120  13.872
 4326SOL     OW14810   4.560  11.431   7.780
 4326SOL    HW114811   4.594  11.390   7.860
 4326SOL    HW214812   4.492  11.370   7.749
 4327SOL     OW14813   3.751   3.334   2.493
 4327SOL    HW114814   3.667   3.371   2.467
 4327SOL    HW214815   3.738   3.239   2.490
 4328SOL     OW14816   6.691  14.829  11.768
 4328SOL    HW114817   6.693  14.756  11.706
 4328SOL    HW214818   6.598  14.841  11.788
 4329SOL     OW14819  11.552   3.118  12.936
 4329SOL    HW114820  11.641   3.084  12.952
 4329SOL    HW214821  11.545   3.124  12.841
 4330SOL     OW14822   5.521  14.008   1.936
 4330SOL    HW114823   5.426  14.014   1.924
 4330SOL    HW214824   5.550  14.099   1.946
 4331SOL     OW14825   4.630  12.409   7.229
 4331SOL    HW114826   4.558  12.415   7.292
 4331SOL    HW214827   4.708  12.430   7.280
 4332SOL     OW14828   7.011  13.727   3.024
 4332SOL    HW114829   7.019  13.637   3.054
 4332SOL    HW214830   6.990  13.777   3.102
 4333SOL     OW14831   7.056   5.470   6.340
 4333SOL    HW114832   7.011   5.516   6.411
 4333SOL    HW214833   7.144   5.455   6.373
 4334SOL     OW14834   4.609   6.172  11.859
 4334SOL    HW114835   4.595   6.183  11.953
 4334SOL    HW214836   4.533   6.123  11.829
 4335SOL     OW14837  12.143  10.943   8.876
 4335SOL    HW114838  12.140  11.028   8.832
 4335SOL    HW214839  12.127  10.879   8.806
 4336SOL     OW14840   9.292  12.098   2.851
 4336SOL    HW114841   9.338  12.162   2.796
 4336SOL    HW214842   9.206  12.138   2.867
 4337SOL     OW14843   5.225  11.295   8.953
 4337SOL    HW114844   5.318  11.305   8.973
 4337SOL    HW214845   5.201  11.211   8.992
 4338SOL     OW14846   4.855  12.057   1.053
 4338SOL    HW114847   4.927  12.102   1.096
 4338SOL    HW214848   4.876  11.964   1.060
 4339SOL     OW14849   7.414   0.665   5.723
 4339SOL    HW114850   7.363   0.747   5.729
 4339SOL    HW214851   7.408   0.640   5.631
 4340SOL     OW14852   8.948   3.869   8.071
 4340SOL    HW114853   9.028   3.824   8.096
 4340SOL    HW214854   8.973   3.961   8.060
 4341SOL     OW14855   5.073  10.002  13.964
 4341SOL    HW114856   5.117  10.085  13.982
 4341SOL    HW214857   4.992  10.006  14.015
 4342SOL     OW14858   2.999  13.393   2.717
 4342SOL    HW114859   2.938  13.465   2.702
 4342SOL    HW214860   2.944  13.321   2.748
 4343SOL     OW14861  13.135  13.860   3.532
 4343SOL    HW114862  13.206  13.853   3.596
 4343SOL    HW214863  13.072  13.793   3.559
 4344SOL     OW14864  10.650  12.965   5.418
 4344SOL    HW114865  10.665  12.986   5.326
 4344SOL    HW214866  10.556  12.978   5.431
 4345SOL     OW14867  12.112   4.453   9.363
 4345SOL    HW114868  12.143   4.378   9.414
 4345SOL    HW214869  12.078   4.514   9.428
 4346SOL     OW14870   2.640  13.667   2.262
 4346SOL    HW114871   2.562  13.718   2.239
 4346SOL    HW214872   2.657  13.613   2.185
 4347SOL     OW14873  14.724   1.779   8.346
 4347SOL    HW114874  14.631   1.776   8.367
 4347SOL    HW214875  14.758   1.696   8.381
 4348SOL     OW14876  10.929  14.780   7.745
 4348SOL    HW114877  10.912  14.699   7.698
 4348SOL    HW214878  10.952  14.751   7.834
 4349SOL     OW14879   3.284   3.325   8.046
 4349SOL    HW114880   3.219   3.348   7.980
 4349SOL    HW214881   3.363   3.304   7.996
 4350SOL     OW14882  12.055   7.807   6.406
 4350SOL    HW114883  11.993   7.876   6.381
 4350SOL    HW214884  12.054   7.746   6.332
 4351SOL     OW14885   0.371   8.786   4.042
 4351SOL    HW114886   0.314   8.800   4.118
 4351SOL    HW214887   0.375   8.872   3.999
 4352SOL     OW14888  12.119   5.415   7.770
 4352SOL    HW114889  12.028   5.434   7.747
 4352SOL    HW214890  12.162   5.500   7.771
 4353SOL     OW14891   9.085  13.310   9.707
 4353SOL    HW114892   9.039  13.229   9.729
 4353SOL    HW214893   9.160  13.311   9.766
 4354SOL     OW14894   3.772   2.908   3.703
 4354SOL    HW114895   3.700   2.883   3.761
 4354SOL    HW214896   3.832   2.833   3.705
 4355SOL     OW14897  13.260  13.790   4.222
 4355SOL    HW114898  13.327  13.731   4.257
 4355SOL    HW214899  13.226  13.744   4.145
 4356SOL     OW14900   1.529  14.515  10.773
 4356SOL    HW114901   1.459  14.517  10.838
 4356SOL    HW214902   1.484  14.526  10.689
 4357SOL     OW14903  10.282   2.440   1.605
 4357SOL    HW114904  10.309   2.353   1.573
 4357SOL    HW214905  10.364   2.487   1.618
 4358SOL     OW14906  11.605   5.817  13.622
 4358SOL    HW114907  11.629   5.902  13.586
 4358SOL    HW214908  11.547   5.837  13.695
 4359SOL     OW14909  13.685   4.615   3.266
 4359SOL    HW114910  13.695   4.605   3.171
 4359SOL    HW214911  13.774   4.607   3.300
 4360SOL     OW14912   5.531   4.620   3.475
 4360SOL    HW114913   5.552   4.698   3.425
 4360SOL    HW214914   5.453   4.645   3.526
 4361SOL     OW14915   5.635  12.751  10.987
 4361SOL    HW114916   5.608  12.701  10.911
 4361SOL    HW214917   5.603  12.840  10.971
 4362SOL     OW14918  10.229   0.372   2.281
 4362SOL    HW114919  10.173   0.419   2.219
 4362SOL    HW214920  10.223   0.280   2.254
 4363SOL     OW14921   7.360  13.086   8.640
 4363SOL    HW114922   7.382  13.037   8.719
 4363SOL    HW214923   7.391  13.174   8.656
 4364SOL     OW14924   6.029   5.885   6.544
 4364SOL    HW114925   6.106   5.878   6.601
 4364SOL    HW214926   6.062   5.928   6.465
 4365SOL     OW14927   4.233   0.593   5.615
 4365SOL    HW114928   4.162   0.574   5.678
 4365SOL    HW214929   4.248   0.510   5.571
 4366SOL     OW14930   2.638   5.412  12.179
 4366SOL    HW114931   2.654   5.431  12.086
 4366SOL    HW214932   2.563   5.467  12.202
 4367SOL     OW14933   6.391  11.521  13.490
 4367SOL    HW114934   6.367  11.461  13.420
 4367SOL    HW214935   6.485  11.506  13.503
 4368SOL     OW14936  12.893  12.024   1.203
 4368SOL    HW114937  12.970  11.967   1.192
 4368SOL    HW214938  12.850  11.991   1.282
 4369SOL     OW14939   2.855   9.180   7.777
 4369SOL    HW114940   2.935   9.232   7.774
 4369SOL    HW214941   2.803   9.221   7.846
 4370SOL     OW14942   6.281  14.804   9.168
 4370SOL    HW114943   6.311  14.720   9.132
 4370SOL    HW214944   6.338  14.820   9.243
 4371SOL     OW14945  13.338  10.516   2.104
 4371SOL    HW114946  13.280  10.521   2.028
 4371SOL    HW214947  13.426  10.528   2.069
 4372SOL     OW14948  10.282  11.985  13.875
 4372SOL    HW114949  10.264  11.891  13.873
 4372SOL    HW214950  10.313  12.002  13.964
 4373SOL     OW14951   8.444  11.696   1.189
 4373SOL    HW114952   8.394  11.765   1.146
 4373SOL    HW214953   8.383  11.655   1.250
 4374SOL     OW14954   5.673   0.591  10.836
 4374SOL    HW114955   5.750   0.556  10.880
 4374SOL    HW214956   5.650   0.526  10.770
 4375SOL     OW14957   0.025   9.597   4.919
 4375SOL    HW114958   0.017   9.516   4.969
 4375SOL    HW214959   0.085   9.576   4.848
 4376SOL     OW14960  12.605   0.929  14.760
 4376SOL    HW114961  12.641   0.843  14.740
 4376SOL    HW214962  12.563   0.919  14.846
 4377SOL     OW14963   7.808   9.152   8.926
 4377SOL    HW114964   7.763   9.203   8.993
 4377SOL    HW214965   7.819   9.065   8.964
 4378SOL     OW14966  11.028   8.169  11.976
 4378SOL    HW114967  10.935   8.189  11.981
 4378SOL    HW214968  11.035   8.078  12.005
 4379SOL     OW14969   2.915   2.007   3.183
 4379SOL    HW114970   2.931   1.992   3.090
 4379SOL    HW214971   2.820   2.003   3.192
 4380SOL     OW14972   2.962  10.399  10.691
 4380SOL    HW114973   2.882  10.349  10.706
 4380SOL    HW214974   3.032  10.334  10.695
 4381SOL     OW14975   3.401  11.358   5.940
 4381SOL    HW114976   3.460  11.416   5.988
 4381SOL    HW214977   3.407  11.275   5.987
 4382SOL     OW14978   2.409  10.121  11.437
 4382SOL    HW114979   2.412  10.134  11.342
 4382SOL    HW214980   2.376  10.031  11.447
 4383SOL     OW14981   2.268   9.775   1.943
 4383SOL    HW114982   2.360   9.797   1.959
 4383SOL    HW214983   2.262   9.682   1.962
 4384SOL     OW14984  10.385   3.091   3.258
 4384SOL    HW114985  10.478   3.108   3.243
 4384SOL    HW214986  10.353   3.169   3.304
 4385SOL     OW14987  11.952   7.502   1.284
 4385SOL    HW114988  11.858   7.511   1.270
 4385SOL    HW214989  11.980   7.434   1.222
 4386SOL     OW14990  12.936   1.356  14.310
 4386SOL    HW114991  13.029   1.365  14.333
 4386SOL    HW214992  12.913   1.268  14.340
 4387SOL     OW14993   2.926   7.696   8.239
 4387SOL    HW114994   2.910   7.610   8.277
 4387SOL    HW214995   2.847   7.746   8.258
 4388SOL     OW14996   8.313   9.897   3.004
 4388SOL    HW114997   8.309   9.982   3.048
 4388SOL    HW214998   8.252   9.842   3.052
 4389SOL     OW14999   0.062   7.372   1.530
 4389SOL    HW115000   0.021   7.337   1.450
 4389SOL    HW215001   0.021   7.323   1.601
 4390SOL     OW15002   8.986  12.995   8.533
 4390SOL    HW115003   9.064  12.959   8.575
 4390SOL    HW215004   8.914  12.938   8.562
 4391SOL     OW15005   3.935  14.732   4.512
 4391SOL    HW115006   3.904  14.800   4.573
 4391SOL    HW215007   3.991  14.677   4.566
 4392SOL     OW15008   4.838   3.020  10.270
 4392SOL    HW115009   4.888   3.053  10.345
 4392SOL    HW215010   4.898   3.027  10.196
 4393SOL     OW15011   0.658  10.875   4.861
 4393SOL    HW115012   0.650  10.793   4.909
 4393SOL    HW215013   0.751  10.897   4.869
 4394SOL     OW15014   8.673  11.596   4.144
 4394SOL    HW115015   8.677  11.662   4.074
 4394SOL    HW215016   8.677  11.647   4.225
 4395SOL     OW15017  14.043   8.128  12.128
 4395SOL    HW115018  14.131   8.093  12.112
 4395SOL    HW215019  14.030   8.118  12.222
 4396SOL     OW15020  14.571   7.003   9.594
 4396SOL    HW115021  14.487   6.977   9.632
 4396SOL    HW215022  14.549   7.037   9.508
 4397SOL     OW15023  13.786   5.634   8.221
 4397SOL    HW115024  13.761   5.560   8.165
 4397SOL    HW215025  13.860   5.601   8.272
 4398SOL     OW15026  14.487   1.780   4.959
 4398SOL    HW115027  14.509   1.836   5.033
 4398SOL    HW215028  14.447   1.702   4.998
 4399SOL     OW15029  14.206  14.043   5.810
 4399SOL    HW115030  14.272  14.091   5.761
 4399SOL    HW215031  14.156  14.111   5.856
 4400SOL     OW15032   0.625   1.087   2.859
 4400SOL    HW115033   0.588   1.165   2.818
 4400SOL    HW215034   0.617   1.018   2.792
 4401SOL     OW15035   8.487  13.045   0.411
 4401SOL    HW115036   8.507  13.066   0.502
 4401SOL    HW215037   8.505  12.951   0.403
 4402SOL     OW15038  13.264   1.393   7.734
 4402SOL    HW115039  13.200   1.396   7.663
 4402SOL    HW215040  13.244   1.311   7.781
 4403SOL     OW15041   8.119   1.397   7.351
 4403SOL    HW115042   8.085   1.319   7.308
 4403SOL    HW215043   8.066   1.406   7.430
 4404SOL     OW15044   1.179  12.113   5.133
 4404SOL    HW115045   1.211  12.181   5.192
 4404SOL    HW215046   1.221  12.132   5.049
 4405SOL     OW15047   1.307  10.955   3.986
 4405SOL    HW115048   1.314  10.863   4.012
 4405SOL    HW215049   1.385  10.996   4.024
 4406SOL     OW15050   3.983   2.360  14.095
 4406SOL    HW115051   3.975   2.271  14.131
 4406SOL    HW215052   4.057   2.354  14.034
 4407SOL     OW15053   2.265   1.275   3.476
 4407SOL    HW115054   2.225   1.360   3.457
 4407SOL    HW215055   2.195   1.212   3.459
 4408SOL     OW15056   8.389   6.825   4.624
 4408SOL    HW115057   8.312   6.768   4.631
 4408SOL    HW215058   8.372   6.895   4.686
 4409SOL     OW15059   9.411   4.706  12.649
 4409SOL    HW115060   9.380   4.772  12.712
 4409SOL    HW215061   9.360   4.628  12.669
 4410SOL     OW15062   8.203  10.259  10.015
 4410SOL    HW115063   8.164  10.175   9.992
 4410SOL    HW215064   8.271  10.237  10.079
 4411SOL     OW15065   0.134  14.735  11.578
 4411SOL    HW115066   0.175  14.662  11.531
 4411SOL    HW215067   0.054  14.696  11.615
 4412SOL     OW15068   9.990  11.298   0.924
 4412SOL    HW115069  10.019  11.348   0.847
 4412SOL    HW215070   9.958  11.365   0.984
 4413SOL     OW15071   6.080   6.896   1.223
 4413SOL    HW115072   5.999   6.852   1.251
 4413SOL    HW215073   6.104   6.951   1.298
 4414SOL     OW15074   3.179  11.967  12.637
 4414SOL    HW115075   3.220  11.885  12.663
 4414SOL    HW215076   3.194  12.025  12.712
 4415SOL     OW15077  13.380   5.497   7.861
 4415SOL    HW115078  13.389   5.465   7.951
 4415SOL    HW215079  13.316   5.567   7.867
 4416SOL     OW15080   2.352   5.013   8.736
 4416SOL    HW115081   2.443   5.012   8.706
 4416SOL    HW215082   2.355   4.975   8.824
 4417SOL     OW15083   6.054   6.934   2.692
 4417SOL    HW115084   5.971   6.899   2.662
 4417SOL    HW215085   6.117   6.909   2.624
 4418SOL     OW15086  11.950   1.491   7.879
 4418SOL    HW115087  11.986   1.420   7.932
 4418SOL    HW215088  11.873   1.521   7.926
 4419SOL     OW15089   4.051  12.626   5.327
 4419SOL    HW115090   4.062  12.570   5.404
 4419SOL    HW215091   4.094  12.708   5.351
 4420SOL     OW15092  11.032   1.586   2.944
 4420SOL    HW115093  11.087   1.524   2.991
 4420SOL    HW215094  10.957   1.535   2.915
 4421SOL     OW15095   4.107  14.651   2.352
 4421SOL    HW115096   4.113  14.665   2.447
 4421SOL    HW215097   4.076  14.561   2.342
 4422SOL     OW15098  14.475   7.597   9.950
 4422SOL    HW115099  14.571   7.596   9.946
 4422SOL    HW215100  14.449   7.653   9.876
 4423SOL     OW15101  14.504   6.201  10.688
 4423SOL    HW115102  14.548   6.285  10.679
 4423SOL    HW215103  14.525   6.153  10.608
 4424SOL     OW15104   1.009  11.974  13.262
 4424SOL    HW115105   0.914  11.980  13.266
 4424SOL    HW215106   1.036  12.051  13.212
 4425SOL     OW15107   7.796   5.624   0.689
 4425SOL    HW115108   7.846   5.677   0.628
 4425SOL    HW215109   7.808   5.534   0.658
 4426SOL     OW15110   1.165   5.228   2.028
 4426SOL    HW115111   1.247   5.258   1.989
 4426SOL    HW215112   1.130   5.305   2.072
 4427SOL     OW15113   6.500  11.852   6.658
 4427SOL    HW115114   6.523  11.944   6.672
 4427SOL    HW215115   6.487  11.844   6.564
 4428SOL     OW15116   5.631   5.340   1.243
 4428SOL    HW115117   5.684   5.400   1.191
 4428SOL    HW215118   5.545   5.380   1.246
 4429SOL     OW15119   2.115   8.353  13.165
 4429SOL    HW115120   2.071   8.435  13.142
 4429SOL    HW215121   2.157   8.324  13.084
 4430SOL     OW15122   1.256   1.253  12.359
 4430SOL    HW115123   1.301   1.312  12.419
 4430SOL    HW215124   1.211   1.311  12.298
 4431SOL     OW15125  11.507   0.365   3.325
 4431SOL    HW115126  11.565   0.292   3.303
 4431SOL    HW215127  11.565   0.431   3.363
 4432SOL     OW15128  14.064   2.602   6.815
 4432SOL    HW115129  13.990   2.657   6.840
 4432SOL    HW215130  14.035   2.512   6.832
 4433SOL     OW15131   1.939  10.916  10.417
 4433SOL    HW115132   2.027  10.880  10.428
 4433SOL    HW215133   1.940  10.998  10.466
 4434SOL     OW15134   2.038   0.372   9.156
 4434SOL    HW115135   2.117   0.376   9.102
 4434SOL    HW215136   2.070   0.386   9.245
 4435SOL     OW15137   5.013  11.217   7.234
 4435SOL    HW115138   5.098  11.248   7.265
 4435SOL    HW215139   4.956  11.220   7.310
 4436SOL     OW15140   6.518   5.832   2.810
 4436SOL    HW115141   6.463   5.908   2.830
 4436SOL    HW215142   6.564   5.814   2.892
 4437SOL     OW15143   7.584   8.509   6.236
 4437SOL    HW115144   7.605   8.463   6.155
 4437SOL    HW215145   7.529   8.583   6.208
 4438SOL     OW15146  14.294  13.875   3.804
 4438SOL    HW115147  14.346  13.940   3.851
 4438SOL    HW215148  14.242  13.926   3.742
 4439SOL     OW15149  14.785   4.319  11.475
 4439SOL    HW115150  14.721   4.380  11.438
 4439SOL    HW215151  14.759   4.233  11.441
 4440SOL     OW15152   9.956   6.468  11.511
 4440SOL    HW115153   9.908   6.405  11.565
 4440SOL    HW215154  10.036   6.487  11.560
 4441SOL     OW15155   2.137  11.590   0.585
 4441SOL    HW115156   2.103  11.511   0.545
 4441SOL    HW215157   2.172  11.561   0.670
 4442SOL     OW15158   2.721   9.708  12.007
 4442SOL    HW115159   2.671   9.665  11.938
 4442SOL    HW215160   2.687   9.672  12.089
 4443SOL     OW15161   7.029   3.865   3.370
 4443SOL    HW115162   7.075   3.883   3.452
 4443SOL    HW215163   6.949   3.819   3.398
 4444SOL     OW15164  10.710   3.960   4.898
 4444SOL    HW115165  10.686   4.005   4.817
 4444SOL    HW215166  10.802   3.982   4.912
 4445SOL     OW15167   5.228  10.868   9.982
 4445SOL    HW115168   5.146  10.831   9.950
 4445SOL    HW215169   5.234  10.954   9.939
 4446SOL     OW15170   3.866  13.142   7.771
 4446SOL    HW115171   3.819  13.212   7.816
 4446SOL    HW215172   3.818  13.062   7.793
 4447SOL     OW15173   8.482   2.546   4.007
 4447SOL    HW115174   8.565   2.579   4.040
 4447SOL    HW215175   8.421   2.555   4.081
 4448SOL     OW15176   8.964  13.856   9.800
 4448SOL    HW115177   8.895  13.792   9.781
 4448SOL    HW215178   9.009  13.869   9.716
 4449SOL     OW15179   6.540  10.768  11.842
 4449SOL    HW115180   6.577  10.700  11.785
 4449SOL    HW215181   6.615  10.823  11.864
 4450SOL     OW15182  11.006   3.817   5.232
 4450SOL    HW115183  11.073   3.881   5.259
 4450SOL    HW215184  10.931   3.836   5.288
 4451SOL     OW15185   1.943  12.424  12.026
 4451SOL    HW115186   1.879  12.406  12.094
 4451SOL    HW215187   2.012  12.473  12.070
 4452SOL     OW15188  11.303   6.519   0.123
 4452SOL    HW115189  11.362   6.559   0.060
 4452SOL    HW215190  11.217   6.523   0.081
 4453SOL     OW15191  10.311   8.641   3.348
 4453SOL    HW115192  10.251   8.567   3.349
 4453SOL    HW215193  10.259   8.715   3.380
 4454SOL     OW15194   1.896   0.167   5.946
 4454SOL    HW115195   1.890   0.090   5.889
 4454SOL    HW215196   1.806   0.183   5.975
 4455SOL     OW15197   1.633   2.412   9.104
 4455SOL    HW115198   1.689   2.482   9.070
 4455SOL    HW215199   1.563   2.403   9.039
 4456SOL     OW15200   4.556   3.072  10.826
 4456SOL    HW115201   4.631   3.047  10.772
 4456SOL    HW215202   4.508   3.135  10.772
 4457SOL     OW15203  11.197   4.920   7.026
 4457SOL    HW115204  11.237   4.840   6.993
 4457SOL    HW215205  11.105   4.914   7.000
 4458SOL     OW15206  11.203  12.453   3.760
 4458SOL    HW115207  11.221  12.429   3.669
 4458SOL    HW215208  11.289  12.475   3.796
 4459SOL     OW15209  13.744   0.923   3.431
 4459SOL    HW115210  13.811   0.904   3.497
 4459SOL    HW215211  13.770   1.007   3.394
 4460SOL     OW15212   2.934  13.979  13.641
 4460SOL    HW115213   2.936  13.917  13.568
 4460SOL    HW215214   2.933  14.065  13.599
 4461SOL     OW15215   6.821   2.842  14.451
 4461SOL    HW115216   6.900   2.862  14.502
 4461SOL    HW215217   6.844   2.764  14.402
 4462SOL     OW15218   7.160   3.882  11.450
 4462SOL    HW115219   7.113   3.855  11.529
 4462SOL    HW215220   7.095   3.875  11.380
 4463SOL     OW15221  13.093   8.828   7.758
 4463SOL    HW115222  13.138   8.744   7.762
 4463SOL    HW215223  13.095   8.860   7.848
 4464SOL     OW15224  10.669   9.965   8.544
 4464SOL    HW115225  10.732   9.957   8.473
 4464SOL    HW215226  10.701  10.039   8.596
 4465SOL     OW15227   6.835   0.477   5.890
 4465SOL    HW115228   6.785   0.491   5.971
 4465SOL    HW215229   6.896   0.407   5.912
 4466SOL     OW15230   1.417   6.184  11.960
 4466SOL    HW115231   1.478   6.241  11.914
 4466SOL    HW215232   1.357   6.153  11.891
 4467SOL     OW15233   6.218   3.821  14.708
 4467SOL    HW115234   6.172   3.881  14.767
 4467SOL    HW215235   6.169   3.739  14.715
 4468SOL     OW15236   9.515   9.682   6.669
 4468SOL    HW115237   9.514   9.587   6.682
 4468SOL    HW215238   9.470   9.696   6.586
 4469SOL     OW15239  13.587   1.749  14.456
 4469SOL    HW115240  13.558   1.775  14.369
 4469SOL    HW215241  13.508   1.718  14.500
 4470SOL     OW15242   7.545   4.795   9.492
 4470SOL    HW115243   7.492   4.805   9.413
 4470SOL    HW215244   7.552   4.883   9.528
 4471SOL     OW15245   3.617   0.134  14.228
 4471SOL    HW115246   3.642   0.068  14.163
 4471SOL    HW215247   3.525   0.115  14.248
 4472SOL     OW15248   4.946  14.853   3.725
 4472SOL    HW115249   4.900   0.001   3.644
 4472SOL    HW215250   4.886  14.796   3.774
 4473SOL     OW15251   2.606  10.799   1.039
 4473SOL    HW115252   2.574  10.711   1.060
 4473SOL    HW215253   2.580  10.853   1.114
 4474SOL     OW15254   8.659   2.959   4.437
 4474SOL    HW115255   8.732   2.967   4.375
 4474SOL    HW215256   8.606   3.037   4.422
 4475SOL     OW15257  13.629   3.808  14.395
 4475SOL    HW115258  13.676   3.877  14.441
 4475SOL    HW215259  13.589   3.851  14.320
 4476SOL     OW15260   1.083  12.694  11.444
 4476SOL    HW115261   1.147  12.762  11.423
 4476SOL    HW215262   1.032  12.730  11.517
 4477SOL     OW15263  13.975  10.358   0.266
 4477SOL    HW115264  13.940  10.420   0.201
 4477SOL    HW215265  13.902  10.299   0.285
 4478SOL     OW15266   2.288  11.556   2.229
 4478SOL    HW115267   2.363  11.604   2.265
 4478SOL    HW215268   2.315  11.531   2.141
 4479SOL     OW15269   8.206   8.710  10.743
 4479SOL    HW115270   8.126   8.740  10.698
 4479SOL    HW215271   8.205   8.615  10.733
 4480SOL     OW15272   3.402   4.648   7.057
 4480SOL    HW115273   3.391   4.553   7.049
 4480SOL    HW215274   3.480   4.668   7.007
 4481SOL     OW15275   8.414   9.703   4.200
 4481SOL    HW115276   8.407   9.772   4.265
 4481SOL    HW215277   8.359   9.733   4.127
 4482SOL     OW15278   1.757  12.297  11.689
 4482SOL    HW115279   1.782  12.381  11.727
 4482SOL    HW215280   1.752  12.237  11.764
 4483SOL     OW15281  11.556   7.428   9.652
 4483SOL    HW115282  11.598   7.374   9.584
 4483SOL    HW215283  11.483   7.375   9.683
 4484SOL     OW15284   1.858   0.494   9.547
 4484SOL    HW115285   1.933   0.488   9.606
 4484SOL    HW215286   1.871   0.577   9.500
 4485SOL     OW15287   8.341   1.230  14.315
 4485SOL    HW115288   8.364   1.322  14.325
 4485SOL    HW215289   8.246   1.228  14.326
 4486SOL     OW15290   1.023   7.589   7.357
 4486SOL    HW115291   1.021   7.646   7.280
 4486SOL    HW215292   1.076   7.637   7.421
 4487SOL     OW15293  10.474  13.908  10.981
 4487SOL    HW115294  10.456  13.974  10.914
 4487SOL    HW215295  10.569  13.895  10.976
 4488SOL     OW15296   1.809   0.524   0.634
 4488SOL    HW115297   1.841   0.454   0.691
 4488SOL    HW215298   1.728   0.553   0.676
 4489SOL     OW15299   8.065  12.499   0.518
 4489SOL    HW115300   8.157  12.512   0.542
 4489SOL    HW215301   8.069  12.463   0.429
 4490SOL     OW15302   0.458  12.549  11.605
 4490SOL    HW115303   0.440  12.569  11.513
 4490SOL    HW215304   0.552  12.528  11.606
 4491SOL     OW15305   0.521   7.181  11.743
 4491SOL    HW115306   0.575   7.221  11.676
 4491SOL    HW215307   0.432   7.210  11.722
 4492SOL     OW15308   3.446   0.517   5.579
 4492SOL    HW115309   3.513   0.488   5.641
 4492SOL    HW215310   3.471   0.476   5.496
 4493SOL     OW15311   9.587  14.746   2.055
 4493SOL    HW115312   9.641  14.772   2.130
 4493SOL    HW215313   9.609  14.810   1.987
 4494SOL     OW15314  13.550   9.014   3.713
 4494SOL    HW115315  13.620   8.976   3.766
 4494SOL    HW215316  13.587   9.094   3.677
 4495SOL     OW15317   4.036  13.011  10.192
 4495SOL    HW115318   4.056  12.936  10.136
 4495SOL    HW215319   4.081  13.085  10.151
 4496SOL     OW15320   8.199  14.329   2.881
 4496SOL    HW115321   8.271  14.299   2.826
 4496SOL    HW215322   8.156  14.249   2.911
 4497SOL     OW15323   4.778  12.130   5.622
 4497SOL    HW115324   4.808  12.211   5.583
 4497SOL    HW215325   4.788  12.065   5.552
 4498SOL     OW15326   4.600   0.647   5.949
 4498SOL    HW115327   4.690   0.638   5.918
 4498SOL    HW215328   4.549   0.590   5.892
 4499SOL     OW15329  12.142   0.255  12.976
 4499SOL    HW115330  12.070   0.203  12.940
 4499SOL    HW215331  12.202   0.190  13.013
 4500SOL     OW15332  14.448   5.000  14.311
 4500SOL    HW115333  14.366   5.026  14.354
 4500SOL    HW215334  14.421   4.976  14.222
 4501SOL     OW15335  10.682  14.116   8.825
 4501SOL    HW115336  10.757  14.124   8.883
 4501SOL    HW215337  10.618  14.065   8.874
 4502SOL     OW15338   9.180  13.287   1.281
 4502SOL    HW115339   9.168  13.346   1.355
 4502SOL    HW215340   9.234  13.336   1.219
 4503SOL     OW15341  13.563  12.966   5.809
 4503SOL    HW115342  13.582  12.953   5.901
 4503SOL    HW215343  13.616  13.041   5.784
 4504SOL     OW15344   3.583  14.114  10.051
 4504SOL    HW115345   3.526  14.177  10.095
 4504SOL    HW215346   3.543  14.102   9.965
 4505SOL     OW15347  10.942  11.444   4.978
 4505SOL    HW115348  11.010  11.385   5.009
 4505SOL    HW215349  10.974  11.532   4.999
 4506SOL     OW15350  11.716  10.247  13.285
 4506SOL    HW115351  11.787  10.183  13.289
 4506SOL    HW215352  11.735  10.308  13.356
 4507SOL     OW15353   2.509   4.506   9.905
 4507SOL    HW115354   2.464   4.586   9.875
 4507SOL    HW215355   2.600   4.531   9.913
 4508SOL     OW15356   2.927  14.808   2.137
 4508SOL    HW115357   2.956  14.777   2.051
 4508SOL    HW215358   2.854  14.868   2.117
 4509SOL     OW15359   9.740   0.044  12.637
 4509SOL    HW115360   9.778   0.132  12.632
 4509SOL    HW215361   9.712   0.035  12.728
 4510SOL     OW15362   4.179  13.636   6.831
 4510SOL    HW115363   4.133  13.558   6.802
 4510SOL    HW215364   4.121  13.674   6.897
 4511SOL     OW15365   7.327   0.125   1.755
 4511SOL    HW115366   7.275   0.181   1.697
 4511SOL    HW215367   7.370   0.063   1.696
 4512SOL     OW15368  11.578   6.867   7.529
 4512SOL    HW115369  11.520   6.803   7.489
 4512SOL    HW215370  11.561   6.860   7.623
 4513SOL     OW15371   6.119  10.929   5.181
 4513SOL    HW115372   6.062  10.995   5.143
 4513SOL    HW215373   6.205  10.944   5.141
 4514SOL     OW15374   6.229   9.190  13.994
 4514SOL    HW115375   6.166   9.238  14.048
 4514SOL    HW215376   6.197   9.099  13.997
 4515SOL     OW15377   6.944   0.805  11.098
 4515SOL    HW115378   6.958   0.881  11.155
 4515SOL    HW215379   6.894   0.744  11.152
 4516SOL     OW15380   6.121   1.451   1.837
 4516SOL    HW115381   6.192   1.407   1.791
 4516SOL    HW215382   6.059   1.381   1.857
 4517SOL     OW15383   5.949  10.882   4.281
 4517SOL    HW115384   5.904  10.877   4.196
 4517SOL    HW215385   6.001  10.962   4.276
 4518SOL     OW15386   8.983   1.624  14.348
 4518SOL    HW115387   9.002   1.537  14.382
 4518SOL    HW215388   8.895   1.644  14.381
 4519SOL     OW15389   7.477  13.287   4.462
 4519SOL    HW115390   7.491  13.361   4.521
 4519SOL    HW215391   7.564  13.253   4.445
 4520SOL     OW15392   5.501   9.149   3.720
 4520SOL    HW115393   5.590   9.144   3.755
 4520SOL    HW215394   5.453   9.201   3.784
 4521SOL     OW15395   4.394   3.537   5.030
 4521SOL    HW115396   4.343   3.619   5.036
 4521SOL    HW215397   4.328   3.468   5.036
 4522SOL     OW15398   4.626   9.601   0.280
 4522SOL    HW115399   4.697   9.555   0.235
 4522SOL    HW215400   4.548   9.549   0.262
 4523SOL     OW15401   7.735  10.769   6.888
 4523SOL    HW115402   7.780  10.719   6.956
 4523SOL    HW215403   7.678  10.829   6.935
 4524SOL     OW15404  10.487   6.708  11.300
 4524SOL    HW115405  10.467   6.615  11.293
 4524SOL    HW215406  10.461   6.731  11.390
 4525SOL     OW15407   4.549   5.988   7.991
 4525SOL    HW115408   4.614   6.044   8.033
 4525SOL    HW215409   4.465   6.018   8.026
 4526SOL     OW15410  12.672   2.260  13.693
 4526SOL    HW115411  12.587   2.223  13.669
 4526SOL    HW215412  12.709   2.197  13.754
 4527SOL     OW15413   1.262   1.786   5.192
 4527SOL    HW115414   1.340   1.821   5.234
 4527SOL    HW215415   1.283   1.787   5.098
 4528SOL     OW15416  11.743   3.420  12.002
 4528SOL    HW115417  11.699   3.498  11.967
 4528SOL    HW215418  11.677   3.351  11.997
 4529SOL     OW15419   8.999  14.273  12.833
 4529SOL    HW115420   8.932  14.270  12.902
 4529SOL    HW215421   9.079  14.301  12.878
 4530SOL     OW15422   0.283   2.427   9.334
 4530SOL    HW115423   0.348   2.456   9.398
 4530SOL    HW215424   0.329   2.361   9.282
 4531SOL     OW15425   7.485   5.019   3.417
 4531SOL    HW115426   7.531   5.014   3.501
 4531SOL    HW215427   7.554   5.017   3.351
 4532SOL     OW15428  12.815   0.276   2.141
 4532SOL    HW115429  12.734   0.312   2.177
 4532SOL    HW215430  12.819   0.187   2.175
 4533SOL     OW15431   4.644   7.151   2.148
 4533SOL    HW115432   4.710   7.220   2.146
 4533SOL    HW215433   4.612   7.146   2.058
 4534SOL     OW15434   9.345   5.690  13.499
 4534SOL    HW115435   9.316   5.715  13.587
 4534SOL    HW215436   9.272   5.714  13.442
 4535SOL     OW15437   1.858   7.296  13.450
 4535SOL    HW115438   1.852   7.389  13.426
 4535SOL    HW215439   1.801   7.251  13.388
 4536SOL     OW15440  11.180   4.679  14.556
 4536SOL    HW115441  11.136   4.764  14.566
 4536SOL    HW215442  11.242   4.676  14.628
 4537SOL     OW15443  10.974  10.500   1.358
 4537SOL    HW115444  10.936  10.481   1.272
 4537SOL    HW215445  10.899  10.502   1.417
 4538SOL     OW15446   3.727  13.784  13.622
 4538SOL    HW115447   3.692  13.780  13.533
 4538SOL    HW215448   3.651  13.803  13.677
 4539SOL     OW15449   7.162   9.915   9.451
 4539SOL    HW115450   7.118   9.999   9.438
 4539SOL    HW215451   7.154   9.898   9.545
 4540SOL     OW15452   2.242   4.930   8.492
 4540SOL    HW115453   2.197   4.999   8.442
 4540SOL    HW215454   2.282   4.976   8.566
 4541SOL     OW15455   3.431   2.498   3.771
 4541SOL    HW115456   3.524   2.507   3.748
 4541SOL    HW215457   3.412   2.577   3.823
 4542SOL     OW15458  10.330   0.014  11.797
 4542SOL    HW115459  10.405   0.074  11.800
 4542SOL    HW215460  10.295   0.015  11.886
 4543SOL     OW15461  13.905   9.777   3.669
 4543SOL    HW115462  13.843   9.851   3.664
 4543SOL    HW215463  13.956   9.794   3.748
 4544SOL     OW15464   7.190   5.318   4.358
 4544SOL    HW115465   7.133   5.244   4.377
 4544SOL    HW215466   7.132   5.382   4.316
 4545SOL     OW15467   9.036   6.163  13.612
 4545SOL    HW115468   9.093   6.216  13.666
 4545SOL    HW215469   9.047   6.197  13.523
 4546SOL     OW15470   9.132   7.573   9.150
 4546SOL    HW115471   9.041   7.580   9.120
 4546SOL    HW215472   9.179   7.641   9.101
 4547SOL     OW15473   2.582  14.492   8.264
 4547SOL    HW115474   2.650  14.558   8.274
 4547SOL    HW215475   2.503  14.541   8.241
 4548SOL     OW15476   2.809   6.513   9.567
 4548SOL    HW115477   2.735   6.514   9.627
 4548SOL    HW215478   2.848   6.600   9.576
 4549SOL     OW15479   8.158   8.902   3.538
 4549SOL    HW115480   8.148   8.960   3.463
 4549SOL    HW215481   8.196   8.822   3.502
 4550SOL     OW15482   0.268   5.769   4.269
 4550SOL    HW115483   0.173   5.770   4.282
 4550SOL    HW215484   0.289   5.676   4.254
 4551SOL     OW15485   6.734  12.423   1.979
 4551SOL    HW115486   6.671  12.374   2.031
 4551SOL    HW215487   6.719  12.394   1.889
 4552SOL     OW15488   1.034  10.492   9.280
 4552SOL    HW115489   1.005  10.407   9.313
 4552SOL    HW215490   1.057  10.542   9.359
 4553SOL     OW15491  10.201  12.791  13.055
 4553SOL    HW115492  10.157  12.755  12.978
 4553SOL    HW215493  10.162  12.746  13.129
 4554SOL     OW15494   7.472  13.462  10.817
 4554SOL    HW115495   7.561  13.493  10.800
 4554SOL    HW215496   7.436  13.524  10.880
 4555SOL     OW15497   7.397   3.968  11.498
 4555SOL    HW115498   7.312   3.944  11.459
 4555SOL    HW215499   7.380   3.972  11.592
 4556SOL     OW15500   7.044   1.880  10.317
 4556SOL    HW115501   7.015   1.882  10.408
 4556SOL    HW215502   7.010   1.797  10.283
 4557SOL     OW15503   9.196  14.382   6.324
 4557SOL    HW115504   9.103  14.402   6.332
 4557SOL    HW215505   9.202  14.289   6.347
 4558SOL     OW15506   9.610  10.750   4.696
 4558SOL    HW115507   9.551  10.818   4.664
 4558SOL    HW215508   9.552  10.681   4.728
 4559SOL     OW15509   0.866  14.104   6.074
 4559SOL    HW115510   0.778  14.122   6.110
 4559SOL    HW215511   0.921  14.094   6.152
 4560SOL     OW15512   2.143   4.470   9.386
 4560SOL    HW115513   2.193   4.538   9.341
 4560SOL    HW215514   2.116   4.410   9.317
 4561SOL     OW15515   9.965   4.974   0.816
 4561SOL    HW115516   9.995   5.043   0.756
 4561SOL    HW215517  10.025   4.901   0.800
 4562SOL     OW15518  10.146   3.623  11.030
 4562SOL    HW115519  10.221   3.606  10.973
 4562SOL    HW215520  10.077   3.568  10.995
 4563SOL     OW15521   9.217  12.219   5.433
 4563SOL    HW115522   9.271  12.200   5.509
 4563SOL    HW215523   9.246  12.304   5.402
 4564SOL     OW15524  12.746   3.245   3.353
 4564SOL    HW115525  12.733   3.312   3.421
 4564SOL    HW215526  12.758   3.295   3.273
 4565SOL     OW15527   5.089   2.226   4.934
 4565SOL    HW115528   5.086   2.318   4.911
 4565SOL    HW215529   5.098   2.225   5.030
 4566SOL     OW15530   6.582   8.858   6.696
 4566SOL    HW115531   6.523   8.930   6.715
 4566SOL    HW215532   6.577   8.848   6.601
 4567SOL     OW15533   4.766  10.542   4.169
 4567SOL    HW115534   4.811  10.459   4.184
 4567SOL    HW215535   4.817  10.606   4.219
 4568SOL     OW15536   1.460   0.453   2.791
 4568SOL    HW115537   1.458   0.400   2.871
 4568SOL    HW215538   1.525   0.410   2.735
 4569SOL     OW15539  13.393   2.513   8.176
 4569SOL    HW115540  13.395   2.529   8.270
 4569SOL    HW215541  13.302   2.532   8.151
 4570SOL     OW15542  12.998   4.052   6.358
 4570SOL    HW115543  13.060   4.110   6.315
 4570SOL    HW215544  13.043   3.967   6.362
 4571SOL     OW15545  13.137   9.452  14.036
 4571SOL    HW115546  13.098   9.432  13.951
 4571SOL    HW215547  13.208   9.388  14.046
 4572SOL     OW15548   8.303   3.616   7.736
 4572SOL    HW115549   8.219   3.624   7.781
 4572SOL    HW215550   8.337   3.531   7.762
 4573SOL     OW15551   9.214   4.072   8.962
 4573SOL    HW115552   9.167   4.155   8.954
 4573SOL    HW215553   9.146   4.007   8.981
 4574SOL     OW15554   1.569  11.258  11.623
 4574SOL    HW115555   1.588  11.169  11.594
 4574SOL    HW215556   1.493  11.285  11.572
 4575SOL     OW15557  12.037   5.424   0.822
 4575SOL    HW115558  12.087   5.405   0.901
 4575SOL    HW215559  11.947   5.399   0.843
 4576SOL     OW15560   3.566   8.867  13.112
 4576SOL    HW115561   3.471   8.855  13.104
 4576SOL    HW215562   3.596   8.875  13.021
 4577SOL     OW15563   2.170   8.126   9.698
 4577SOL    HW115564   2.198   8.055   9.640
 4577SOL    HW215565   2.145   8.196   9.638
 4578SOL     OW15566   4.791   3.783   9.229
 4578SOL    HW115567   4.723   3.843   9.196
 4578SOL    HW215568   4.795   3.714   9.163
 4579SOL     OW15569  14.545   8.236   7.644
 4579SOL    HW115570  14.498   8.251   7.726
 4579SOL    HW215571  14.589   8.152   7.656
 4580SOL     OW15572   9.041   1.884   3.038
 4580SOL    HW115573   9.090   1.925   3.110
 4580SOL    HW215574   8.973   1.833   3.082
 4581SOL     OW15575   8.530   6.599  13.463
 4581SOL    HW115576   8.619   6.563  13.472
 4581SOL    HW215577   8.474   6.522  13.457
 4582SOL     OW15578   8.015   1.860  11.926
 4582SOL    HW115579   8.005   1.940  11.977
 4582SOL    HW215580   8.021   1.791  11.992
 4583SOL     OW15581   0.678   3.013   3.489
 4583SOL    HW115582   0.642   2.936   3.533
 4583SOL    HW215583   0.672   2.992   3.396
 4584SOL     OW15584   1.636   5.194   0.511
 4584SOL    HW115585   1.541   5.201   0.518
 4584SOL    HW215586   1.668   5.208   0.601
 4585SOL     OW15587   9.104   7.892   4.778
 4585SOL    HW115588   9.083   7.890   4.872
 4585SOL    HW215589   9.186   7.941   4.773
 4586SOL     OW15590   7.926  12.620   8.275
 4586SOL    HW115591   7.833  12.600   8.283
 4586SOL    HW215592   7.930  12.694   8.214
 4587SOL     OW15593   4.123  12.620   3.365
 4587SOL    HW115594   4.067  12.553   3.326
 4587SOL    HW215595   4.094  12.626   3.456
 4588SOL     OW15596  12.274   8.793  11.356
 4588SOL    HW115597  12.342   8.857  11.379
 4588SOL    HW215598  12.227   8.777  11.438
 4589SOL     OW15599   0.380   6.759   3.110
 4589SOL    HW115600   0.393   6.800   3.196
 4589SOL    HW215601   0.358   6.668   3.130
 4590SOL     OW15602   9.598   4.022   7.130
 4590SOL    HW115603   9.678   3.978   7.100
 4590SOL    HW215604   9.544   4.029   7.052
 4591SOL     OW15605  13.743   8.319   1.244
 4591SOL    HW115606  13.667   8.272   1.210
 4591SOL    HW215607  13.816   8.290   1.188
 4592SOL     OW15608   9.040   9.173  13.737
 4592SOL    HW115609   9.017   9.226  13.814
 4592SOL    HW215610   8.971   9.106  13.733
 4593SOL     OW15611   2.234   8.589   2.266
 4593SOL    HW115612   2.298   8.525   2.234
 4593SOL    HW215613   2.149   8.550   2.243
 4594SOL     OW15614   8.172   3.418  11.118
 4594SOL    HW115615   8.154   3.329  11.089
 4594SOL    HW215616   8.188   3.467  11.037
 4595SOL     OW15617   2.101   7.263   3.825
 4595SOL    HW115618   2.108   7.168   3.831
 4595SOL    HW215619   2.083   7.291   3.915
 4596SOL     OW15620   1.449   7.652   8.028
 4596SOL    HW115621   1.364   7.692   8.049
 4596SOL    HW215622   1.456   7.579   8.088
 4597SOL     OW15623   9.521  13.474   4.604
 4597SOL    HW115624   9.616  13.478   4.601
 4597SOL    HW215625   9.496  13.429   4.524
 4598SOL     OW15626  12.255  13.653   0.810
 4598SOL    HW115627  12.210  13.657   0.894
 4598SOL    HW215628  12.327  13.591   0.823
 4599SOL     OW15629  13.105   8.132  10.586
 4599SOL    HW115630  13.155   8.161  10.662
 4599SOL    HW215631  13.044   8.067  10.621
 4600SOL     OW15632   7.664   4.175  11.208
 4600SOL    HW115633   7.619   4.231  11.271
 4600SOL    HW215634   7.619   4.091  11.215
 4601SOL     OW15635  10.693  13.236   5.023
 4601SOL    HW115636  10.696  13.143   5.047
 4601SOL    HW215637  10.634  13.239   4.948
 4602SOL     OW15638   1.469   5.434   4.512
 4602SOL    HW115639   1.489   5.349   4.473
 4602SOL    HW215640   1.468   5.495   4.438
 4603SOL     OW15641   9.840   5.643   3.043
 4603SOL    HW115642   9.897   5.643   2.966
 4603SOL    HW215643   9.770   5.581   3.021
 4604SOL     OW15644   7.570  10.341   9.074
 4604SOL    HW115645   7.592  10.418   9.021
 4604SOL    HW215646   7.524  10.378   9.149
 4605SOL     OW15647   8.201   1.603  14.177
 4605SOL    HW115648   8.160   1.687  14.161
 4605SOL    HW215649   8.196   1.557  14.093
 4606SOL     OW15650  12.196  11.030  11.841
 4606SOL    HW115651  12.129  11.045  11.907
 4606SOL    HW215652  12.245  11.112  11.838
 4607SOL     OW15653   5.757   6.421   4.470
 4607SOL    HW115654   5.667   6.392   4.456
 4607SOL    HW215655   5.784   6.377   4.551
 4608SOL     OW15656   2.350   0.909   7.415
 4608SOL    HW115657   2.293   0.943   7.345
 4608SOL    HW215658   2.402   0.984   7.442
 4609SOL     OW15659   7.447   3.698   4.774
 4609SOL    HW115660   7.378   3.764   4.783
 4609SOL    HW215661   7.502   3.730   4.703
 4610SOL     OW15662   9.689  12.131  11.389
 4610SOL    HW115663   9.634  12.057  11.417
 4610SOL    HW215664   9.716  12.173  11.471
 4611SOL     OW15665   8.245  14.712  11.614
 4611SOL    HW115666   8.288  14.797  11.609
 4611SOL    HW215667   8.152  14.732  11.610
 4612SOL     OW15668  12.176  14.357  14.042
 4612SOL    HW115669  12.112  14.380  14.110
 4612SOL    HW215670  12.171  14.262  14.035
 4613SOL     OW15671  12.772   2.839   9.556
 4613SOL    HW115672  12.695   2.840   9.613
 4613SOL    HW215673  12.779   2.928   9.522
 4614SOL     OW15674  14.355   7.716   5.077
 4614SOL    HW115675  14.348   7.805   5.112
 4614SOL    HW215676  14.277   7.705   5.023
 4615SOL     OW15677   1.284   8.669   7.714
 4615SOL    HW115678   1.228   8.670   7.637
 4615SOL    HW215679   1.350   8.735   7.696
 4616SOL     OW15680  12.577   3.609  13.122
 4616SOL    HW115681  12.557   3.585  13.032
 4616SOL    HW215682  12.627   3.535  13.156
 4617SOL     OW15683  10.019   0.695   4.965
 4617SOL    HW115684  10.078   0.666   5.035
 4617SOL    HW215685   9.936   0.651   4.984
 4618SOL     OW15686  14.189  11.910   6.552
 4618SOL    HW115687  14.225  11.915   6.464
 4618SOL    HW215688  14.250  11.961   6.606
 4619SOL     OW15689   9.718  10.020   1.290
 4619SOL    HW115690   9.799  10.066   1.312
 4619SOL    HW215691   9.659  10.039   1.363
 4620SOL     OW15692  13.606  10.595  13.327
 4620SOL    HW115693  13.700  10.603  13.306
 4620SOL    HW215694  13.604  10.586  13.422
 4621SOL     OW15695   4.624   4.440   7.389
 4621SOL    HW115696   4.555   4.374   7.402
 4621SOL    HW215697   4.577   4.523   7.389
 4622SOL     OW15698   2.502   9.034   6.154
 4622SOL    HW115699   2.464   9.066   6.072
 4622SOL    HW215700   2.428   9.002   6.205
 4623SOL     OW15701   9.511   4.989   1.721
 4623SOL    HW115702   9.447   5.044   1.766
 4623SOL    HW215703   9.595   5.032   1.735
 4624SOL     OW15704  11.007  12.053  14.029
 4624SOL    HW115705  11.083  12.108  14.047
 4624SOL    HW215706  11.044  11.970  14.000
 4625SOL     OW15707   0.941   6.555   8.794
 4625SOL    HW115708   0.977   6.488   8.735
 4625SOL    HW215709   0.874   6.600   8.742
 4626SOL     OW15710   3.991  12.962  10.680
 4626SOL    HW115711   3.946  12.895  10.627
 4626SOL    HW215712   3.977  13.044  10.632
 4627SOL     OW15713   8.070  11.504   6.772
 4627SOL    HW115714   7.997  11.565   6.762
 4627SOL    HW215715   8.146  11.561   6.783
 4628SOL     OW15716   0.917  12.142   9.275
 4628SOL    HW115717   1.002  12.130   9.232
 4628SOL    HW215718   0.874  12.057   9.267
 4629SOL     OW15719   8.167   2.148   0.182
 4629SOL    HW115720   8.088   2.193   0.213
 4629SOL    HW215721   8.134   2.074   0.131
 4630SOL     OW15722  12.626   0.306   7.072
 4630SOL    HW115723  12.666   0.377   7.022
 4630SOL    HW215724  12.533   0.326   7.072
 4631SOL     OW15725   0.892  12.186  14.339
 4631SOL    HW115726   0.878  12.257  14.276
 4631SOL    HW215727   0.883  12.106  14.288
 4632SOL     OW15728   6.457   7.975   0.033
 4632SOL    HW115729   6.387   7.959  14.843
 4632SOL    HW215730   6.501   7.891   0.042
 4633SOL     OW15731  14.223   9.975   4.400
 4633SOL    HW115732  14.191   9.999   4.313
 4633SOL    HW215733  14.203  10.051   4.455
 4634SOL     OW15734   4.124  13.919   3.640
 4634SOL    HW115735   4.047  13.894   3.588
 4634SOL    HW215736   4.096  13.995   3.690
 4635SOL     OW15737   2.659   9.618  13.088
 4635SOL    HW115738   2.749   9.588  13.100
 4635SOL    HW215739   2.656   9.650  12.998
 4636SOL     OW15740  10.315   1.691   2.620
 4636SOL    HW115741  10.362   1.709   2.701
 4636SOL    HW215742  10.339   1.761   2.561
 4637SOL     OW15743  13.306  14.402  10.305
 4637SOL    HW115744  13.224  14.442  10.277
 4637SOL    HW215745  13.282  14.313  10.332
 4638SOL     OW15746  14.096   7.418   0.782
 4638SOL    HW115747  14.037   7.353   0.820
 4638SOL    HW215748  14.082   7.497   0.834
 4639SOL     OW15749  13.466  14.353   6.193
 4639SOL    HW115750  13.489  14.263   6.214
 4639SOL    HW215751  13.452  14.353   6.098
 4640SOL     OW15752   0.596  11.900   4.318
 4640SOL    HW115753   0.549  11.851   4.386
 4640SOL    HW215754   0.654  11.959   4.367
 4641SOL     OW15755  11.268   6.836   2.221
 4641SOL    HW115756  11.190   6.840   2.166
 4641SOL    HW215757  11.278   6.743   2.242
 4642SOL     OW15758   6.093  14.062   1.198
 4642SOL    HW115759   6.048  14.137   1.159
 4642SOL    HW215760   6.118  14.092   1.286
 4643SOL     OW15761  12.997   0.913   1.486
 4643SOL    HW115762  12.993   0.904   1.582
 4643SOL    HW215763  13.034   1.000   1.472
 4644SOL     OW15764  10.382   9.053   2.430
 4644SOL    HW115765  10.334   8.995   2.490
 4644SOL    HW215766  10.338   9.137   2.439
 4645SOL     OW15767   2.229   1.083   8.460
 4645SOL    HW115768   2.309   1.072   8.408
 4645SOL    HW215769   2.240   1.023   8.534
 4646SOL     OW15770   8.534   4.630  11.566
 4646SOL    HW115771   8.491   4.686  11.502
 4646SOL    HW215772   8.530   4.679  11.648
 4647SOL     OW15773   1.989   9.275   6.439
 4647SOL    HW115774   1.932   9.274   6.361
 4647SOL    HW215775   1.929   9.289   6.512
 4648SOL     OW15776   3.189  10.865   5.502
 4648SOL    HW115777   3.270  10.916   5.512
 4648SOL    HW215778   3.218  10.777   5.479
 4649SOL     OW15779   3.832   5.553  10.367
 4649SOL    HW115780   3.807   5.643  10.392
 4649SOL    HW215781   3.842   5.507  10.450
 4650SOL     OW15782   4.126   5.742   3.449
 4650SOL    HW115783   4.091   5.662   3.411
 4650SOL    HW215784   4.062   5.810   3.427
 4651SOL     OW15785   1.372   6.005  10.885
 4651SOL    HW115786   1.320   6.053  10.949
 4651SOL    HW215787   1.345   6.041  10.800
 4652SOL     OW15788   2.820   6.235   8.681
 4652SOL    HW115789   2.852   6.274   8.762
 4652SOL    HW215790   2.885   6.262   8.615
 4653SOL     OW15791   3.897  11.111   3.341
 4653SOL    HW115792   3.963  11.168   3.302
 4653SOL    HW215793   3.816  11.134   3.296
 4654SOL     OW15794   8.727  14.453  10.329
 4654SOL    HW115795   8.710  14.378  10.272
 4654SOL    HW215796   8.726  14.416  10.417
 4655SOL     OW15797  13.649   6.032  11.515
 4655SOL    HW115798  13.684   6.105  11.567
 4655SOL    HW215799  13.611   5.973  11.580
 4656SOL     OW15800   3.411   0.177   5.646
 4656SOL    HW115801   3.381   0.197   5.557
 4656SOL    HW215802   3.494   0.225   5.655
 4657SOL     OW15803   9.257   0.968   2.303
 4657SOL    HW115804   9.342   0.925   2.314
 4657SOL    HW215805   9.195   0.897   2.290
 4658SOL     OW15806  14.651  12.651  13.578
 4658SOL    HW115807  14.579  12.688  13.628
 4658SOL    HW215808  14.610  12.591  13.517
 4659SOL     OW15809   7.396   2.046   5.460
 4659SOL    HW115810   7.345   2.081   5.388
 4659SOL    HW215811   7.478   2.095   5.459
 4660SOL     OW15812  11.722   0.481  10.503
 4660SOL    HW115813  11.671   0.463  10.581
 4660SOL    HW215814  11.737   0.576  10.505
 4661SOL     OW15815   8.560   2.659   5.509
 4661SOL    HW115816   8.517   2.745   5.506
 4661SOL    HW215817   8.504   2.606   5.565
 4662SOL     OW15818   7.539   7.337   2.055
 4662SOL    HW115819   7.485   7.393   2.000
 4662SOL    HW215820   7.498   7.251   2.050
 4663SOL     OW15821   0.626  12.735   2.609
 4663SOL    HW115822   0.663  12.718   2.696
 4663SOL    HW215823   0.695  12.782   2.562
 4664SOL     OW15824  11.760  12.548   4.950
 4664SOL    HW115825  11.673  12.588   4.943
 4664SOL    HW215826  11.755  12.469   4.896
 4665SOL     OW15827   4.052  12.785   9.441
 4665SOL    HW115828   4.095  12.804   9.524
 4665SOL    HW215829   4.019  12.870   9.411
 4666SOL     OW15830   0.119   2.530   7.165
 4666SOL    HW115831   0.135   2.590   7.093
 4666SOL    HW215832   0.203   2.522   7.210
 4667SOL     OW15833   5.540  10.035  12.130
 4667SOL    HW115834   5.602   9.969  12.100
 4667SOL    HW215835   5.460   9.985  12.151
 4668SOL     OW15836  11.683   6.106  10.673
 4668SOL    HW115837  11.684   6.021  10.717
 4668SOL    HW215838  11.669   6.169  10.743
 4669SOL     OW15839   1.343  10.654  13.016
 4669SOL    HW115840   1.278  10.599  12.971
 4669SOL    HW215841   1.295  10.694  13.088
 4670SOL     OW15842   2.483   9.481  12.369
 4670SOL    HW115843   2.438   9.542  12.427
 4670SOL    HW215844   2.474   9.396  12.411
 4671SOL     OW15845   9.073   9.280   6.609
 4671SOL    HW115846   9.040   9.367   6.633
 4671SOL    HW215847   9.006   9.244   6.551
 4672SOL     OW15848   2.926  13.723   8.563
 4672SOL    HW115849   2.833  13.735   8.542
 4672SOL    HW215850   2.959  13.813   8.573
 4673SOL     OW15851  12.140   5.611  13.578
 4673SOL    HW115852  12.055   5.644  13.608
 4673SOL    HW215853  12.118   5.537  13.521
 4674SOL     OW15854   3.250  11.705  12.664
 4674SOL    HW115855   3.293  11.694  12.749
 4674SOL    HW215856   3.320  11.689  12.600
 4675SOL     OW15857   6.325  11.626   7.210
 4675SOL    HW115858   6.392  11.603   7.146
 4675SOL    HW215859   6.243  11.597   7.171
 4676SOL     OW15860   6.598   4.669   3.803
 4676SOL    HW115861   6.587   4.578   3.830
 4676SOL    HW215862   6.669   4.667   3.739
 4677SOL     OW15863   5.867   5.396   1.605
 4677SOL    HW115864   5.790   5.400   1.662
 4677SOL    HW215865   5.838   5.434   1.522
 4678SOL     OW15866   3.451   5.385   5.669
 4678SOL    HW115867   3.525   5.325   5.669
 4678SOL    HW215868   3.488   5.470   5.645
 4679SOL     OW15869   9.254   5.580   1.408
 4679SOL    HW115870   9.335   5.542   1.442
 4679SOL    HW215871   9.223   5.636   1.479
 4680SOL     OW15872   4.540  11.997  12.966
 4680SOL    HW115873   4.610  12.060  12.946
 4680SOL    HW215874   4.464  12.052  12.985
 4681SOL     OW15875   9.171   1.986  10.733
 4681SOL    HW115876   9.223   2.043  10.790
 4681SOL    HW215877   9.228   1.968  10.658
 4682SOL     OW15878   9.034   5.585   1.636
 4682SOL    HW115879   9.025   5.641   1.559
 4682SOL    HW215880   9.002   5.499   1.608
 4683SOL     OW15881   8.390   9.916   0.734
 4683SOL    HW115882   8.377   9.901   0.828
 4683SOL    HW215883   8.480   9.945   0.726
 4684SOL     OW15884  14.682  14.330   3.399
 4684SOL    HW115885  14.605  14.327   3.342
 4684SOL    HW215886  14.707  14.422   3.402
 4685SOL     OW15887  14.732   8.142   4.592
 4685SOL    HW115888  14.757   8.225   4.632
 4685SOL    HW215889  14.769   8.075   4.649
 4686SOL     OW15890   5.905   8.985  12.689
 4686SOL    HW115891   5.822   8.956  12.651
 4686SOL    HW215892   5.879   9.044  12.761
 4687SOL     OW15893   9.734   8.506   1.928
 4687SOL    HW115894   9.691   8.432   1.884
 4687SOL    HW215895   9.803   8.465   1.981
 4688SOL     OW15896   7.336   2.512  11.193
 4688SOL    HW115897   7.268   2.451  11.165
 4688SOL    HW215898   7.397   2.459  11.243
 4689SOL     OW15899   6.708   2.357   7.648
 4689SOL    HW115900   6.700   2.400   7.563
 4689SOL    HW215901   6.649   2.406   7.706
 4690SOL     OW15902   6.429   7.454   7.049
 4690SOL    HW115903   6.450   7.380   6.992
 4690SOL    HW215904   6.350   7.492   7.010
 4691SOL     OW15905  10.930  10.703   7.452
 4691SOL    HW115906  10.943  10.686   7.359
 4691SOL    HW215907  10.975  10.786   7.468
 4692SOL     OW15908  10.529   8.184   6.785
 4692SOL    HW115909  10.495   8.129   6.715
 4692SOL    HW215910  10.617   8.210   6.757
 4693SOL     OW15911   9.159   5.897   4.423
 4693SOL    HW115912   9.081   5.892   4.367
 4693SOL    HW215913   9.126   5.920   4.509
 4694SOL     OW15914   5.494  12.443  12.683
 4694SOL    HW115915   5.556  12.509  12.717
 4694SOL    HW215916   5.504  12.448  12.588
 4695SOL     OW15917   9.592   8.998   1.106
 4695SOL    HW115918   9.501   9.024   1.113
 4695SOL    HW215919   9.589   8.903   1.098
 4696SOL     OW15920  12.900   1.013   4.536
 4696SOL    HW115921  12.951   1.092   4.552
 4696SOL    HW215922  12.940   0.947   4.592
 4697SOL     OW15923  13.040   9.037   1.803
 4697SOL    HW115924  12.990   8.961   1.833
 4697SOL    HW215925  13.095   9.003   1.732
 4698SOL     OW15926   3.357  13.906   1.888
 4698SOL    HW115927   3.396  13.983   1.845
 4698SOL    HW215928   3.345  13.932   1.979
 4699SOL     OW15929   4.453   3.346   6.463
 4699SOL    HW115930   4.359   3.355   6.451
 4699SOL    HW215931   4.463   3.268   6.518
 4700SOL     OW15932   2.058   8.850   6.508
 4700SOL    HW115933   2.098   8.782   6.562
 4700SOL    HW215934   2.008   8.903   6.571
 4701SOL     OW15935   3.189   0.636   6.926
 4701SOL    HW115936   3.147   0.722   6.930
 4701SOL    HW215937   3.120   0.576   6.899
 4702SOL     OW15938  13.765   9.142  13.954
 4702SOL    HW115939  13.761   9.136  13.858
 4702SOL    HW215940  13.776   9.051  13.983
 4703SOL     OW15941  11.902  13.659   5.048
 4703SOL    HW115942  11.816  13.663   5.090
 4703SOL    HW215943  11.903  13.575   5.002
 4704SOL     OW15944   4.556  10.221   4.443
 4704SOL    HW115945   4.528  10.261   4.525
 4704SOL    HW215946   4.553  10.292   4.379
 4705SOL     OW15947  13.864   4.978   3.216
 4705SOL    HW115948  13.922   4.902   3.214
 4705SOL    HW215949  13.900   5.039   3.152
 4706SOL     OW15950  11.805   4.109   8.455
 4706SOL    HW115951  11.803   4.111   8.360
 4706SOL    HW215952  11.804   4.016   8.478
 4707SOL     OW15953  14.358   6.233   7.512
 4707SOL    HW115954  14.341   6.326   7.498
 4707SOL    HW215955  14.296   6.188   7.455
 4708SOL     OW15956   1.796   1.495   0.484
 4708SOL    HW115957   1.785   1.464   0.394
 4708SOL    HW215958   1.741   1.573   0.490
 4709SOL     OW15959   2.429  12.867  14.559
 4709SOL    HW115960   2.461  12.951  14.525
 4709SOL    HW215961   2.388  12.824  14.484
 4710SOL     OW15962   3.645   6.079   3.489
 4710SOL    HW115963   3.661   6.036   3.573
 4710SOL    HW215964   3.733   6.104   3.458
 4711SOL     OW15965  14.341   6.707  11.614
 4711SOL    HW115966  14.295   6.681  11.534
 4711SOL    HW215967  14.317   6.799  11.626
 4712SOL     OW15968  13.508   3.050   7.738
 4712SOL    HW115969  13.576   3.044   7.671
 4712SOL    HW215970  13.510   3.141   7.768
 4713SOL     OW15971  12.042  14.423   5.622
 4713SOL    HW115972  12.090  14.503   5.642
 4713SOL    HW215973  11.953  14.441   5.651
 4714SOL     OW15974   1.222   5.111   1.598
 4714SOL    HW115975   1.274   5.191   1.596
 4714SOL    HW215976   1.201   5.093   1.506
 4715SOL     OW15977   9.781   1.735   7.229
 4715SOL    HW115978   9.720   1.753   7.158
 4715SOL    HW215979   9.726   1.735   7.308
 4716SOL     OW15980   3.401   7.413   9.786
 4716SOL    HW115981   3.314   7.410   9.746
 4716SOL    HW215982   3.460   7.428   9.712
 4717SOL     OW15983  10.263   9.418  11.376
 4717SOL    HW115984  10.329   9.474  11.414
 4717SOL    HW215985  10.192   9.477  11.350
 4718SOL     OW15986   6.099   6.467   8.078
 4718SOL    HW115987   6.116   6.528   8.006
 4718SOL    HW215988   6.126   6.515   8.156
 4719SOL     OW15989  13.205   6.924  10.564
 4719SOL    HW115990  13.159   6.840  10.569
 4719SOL    HW215991  13.298   6.902  10.568
 4720SOL     OW15992  14.778  11.208   1.104
 4720SOL    HW115993  14.793  11.122   1.064
 4720SOL    HW215994  14.810  11.270   1.038
 4721SOL     OW15995   6.331  13.228   0.960
 4721SOL    HW115996   6.306  13.140   0.932
 4721SOL    HW215997   6.382  13.263   0.887
 4722SOL     OW15998   1.525   9.213   6.539
 4722SOL    HW115999   1.576   9.144   6.497
 4722SOL    HW216000   1.498   9.175   6.622
 4723SOL     OW16001  14.218  11.346   2.353
 4723SOL    HW116002  14.158  11.353   2.427
 4723SOL    HW216003  14.217  11.254   2.329
 4724SOL     OW16004   4.887   6.546   2.928
 4724SOL    HW116005   4.960   6.496   2.963
 4724SOL    HW216006   4.828   6.559   3.003
 4725SOL     OW16007  13.024   4.112   8.514
 4725SOL    HW116008  13.091   4.084   8.452
 4725SOL    HW216009  12.960   4.042   8.514
 4726SOL     OW16010   3.878  12.478  11.977
 4726SOL    HW116011   3.846  12.550  12.033
 4726SOL    HW216012   3.824  12.483  11.899
 4727SOL     OW16013   8.944   9.793  12.762
 4727SOL    HW116014   9.033   9.809  12.792
 4727SOL    HW216015   8.895   9.773  12.843
 4728SOL     OW16016  10.226  12.440   0.632
 4728SOL    HW116017  10.131  12.430   0.622
 4728SOL    HW216018  10.240  12.534   0.640
 4729SOL     OW16019   4.427   8.114  13.534
 4729SOL    HW116020   4.418   8.034  13.483
 4729SOL    HW216021   4.477   8.173  13.478
 4730SOL     OW16022  12.508   0.530   0.998
 4730SOL    HW116023  12.425   0.569   0.973
 4730SOL    HW216024  12.517   0.550   1.092
 4731SOL     OW16025   9.478   6.699  10.130
 4731SOL    HW116026   9.407   6.736  10.077
 4731SOL    HW216027   9.434   6.666  10.209
 4732SOL     OW16028  10.944   6.398  14.255
 4732SOL    HW116029  11.027   6.445  14.261
 4732SOL    HW216030  10.968   6.311  14.224
 4733SOL     OW16031   9.973  13.800   6.560
 4733SOL    HW116032  10.002  13.860   6.491
 4733SOL    HW216033   9.899  13.845   6.601
 4734SOL     OW16034   5.900  14.548   5.170
 4734SOL    HW116035   5.954  14.547   5.249
 4734SOL    HW216036   5.910  14.461   5.133
 4735SOL     OW16037   6.943  14.321   4.170
 4735SOL    HW116038   7.004  14.386   4.203
 4735SOL    HW216039   6.858  14.347   4.206
 4736SOL     OW16040  11.959  12.546   2.815
 4736SOL    HW116041  11.971  12.625   2.867
 4736SOL    HW216042  11.959  12.576   2.724
 4737SOL     OW16043   5.229  13.892   8.719
 4737SOL    HW116044   5.214  13.837   8.796
 4737SOL    HW216045   5.233  13.829   8.646
 4738SOL     OW16046   5.776   4.132   4.446
 4738SOL    HW116047   5.840   4.200   4.425
 4738SOL    HW216048   5.770   4.133   4.541
 4739SOL     OW16049  11.159  12.778   2.358
 4739SOL    HW116050  11.169  12.768   2.263
 4739SOL    HW216051  11.064  12.782   2.372
 4740SOL     OW16052  14.450   3.707   2.378
 4740SOL    HW116053  14.409   3.668   2.301
 4740SOL    HW216054  14.389   3.775   2.406
 4741SOL     OW16055  12.128   3.388   0.094
 4741SOL    HW116056  12.168   3.461   0.142
 4741SOL    HW216057  12.081   3.338   0.161
 4742SOL     OW16058   0.279   5.730   3.394
 4742SOL    HW116059   0.257   5.696   3.307
 4742SOL    HW216060   0.234   5.671   3.454
 4743SOL     OW16061  12.218   0.701   4.241
 4743SOL    HW116062  12.163   0.702   4.319
 4743SOL    HW216063  12.290   0.761   4.261
 4744SOL     OW16064   6.887  12.608  11.791
 4744SOL    HW116065   6.923  12.686  11.835
 4744SOL    HW216066   6.955  12.584  11.727
 4745SOL     OW16067   3.390  14.150   6.111
 4745SOL    HW116068   3.405  14.057   6.096
 4745SOL    HW216069   3.435  14.193   6.038
 4746SOL     OW16070   8.588  12.577   4.313
 4746SOL    HW116071   8.621  12.650   4.366
 4746SOL    HW216072   8.528  12.618   4.251
 4747SOL     OW16073   0.320   3.132  13.355
 4747SOL    HW116074   0.278   3.107  13.273
 4747SOL    HW216075   0.403   3.172  13.328
 4748SOL     OW16076   7.085   8.619   0.654
 4748SOL    HW116077   6.990   8.608   0.652
 4748SOL    HW216078   7.120   8.532   0.639
 4749SOL     OW16079  12.439   5.350   9.216
 4749SOL    HW116080  12.466   5.261   9.237
 4749SOL    HW216081  12.379   5.374   9.287
 4750SOL     OW16082   6.443   2.641  11.075
 4750SOL    HW116083   6.437   2.547  11.055
 4750SOL    HW216084   6.405   2.684  10.998
 4751SOL     OW16085   4.176  13.379   7.537
 4751SOL    HW116086   4.271  13.363   7.529
 4751SOL    HW216087   4.165  13.471   7.514
 4752SOL     OW16088   4.117   7.420  12.868
 4752SOL    HW116089   4.211   7.431  12.878
 4752SOL    HW216090   4.107   7.342  12.813
 4753SOL     OW16091   7.258   6.726   4.386
 4753SOL    HW116092   7.306   6.653   4.346
 4753SOL    HW216093   7.313   6.752   4.460
 4754SOL     OW16094   0.248  14.543   4.348
 4754SOL    HW116095   0.292  14.470   4.391
 4754SOL    HW216096   0.284  14.545   4.259
 4755SOL     OW16097   4.126   7.942   8.726
 4755SOL    HW116098   4.196   8.007   8.737
 4755SOL    HW216099   4.140   7.880   8.798
 4756SOL     OW16100  13.816  12.737  14.285
 4756SOL    HW116101  13.801  12.654  14.241
 4756SOL    HW216102  13.905  12.731  14.320
 4757SOL     OW16103   2.512  14.344   5.370
 4757SOL    HW116104   2.520  14.250   5.386
 4757SOL    HW216105   2.486  14.381   5.455
 4758SOL     OW16106   1.522   7.650   2.274
 4758SOL    HW116107   1.522   7.557   2.296
 4758SOL    HW216108   1.609   7.667   2.237
 4759SOL     OW16109   9.766   5.287  11.060
 4759SOL    HW116110   9.744   5.264  10.969
 4759SOL    HW216111   9.796   5.204  11.098
 4760SOL     OW16112   0.989   3.620   8.159
 4760SOL    HW116113   1.073   3.665   8.151
 4760SOL    HW216114   0.934   3.682   8.208
 4761SOL     OW16115   6.604   1.678   2.007
 4761SOL    HW116116   6.623   1.755   2.060
 4761SOL    HW216117   6.564   1.711   1.927
 4762SOL     OW16118   3.148  13.850   5.500
 4762SOL    HW116119   3.189  13.926   5.541
 4762SOL    HW216120   3.054  13.862   5.515
 4763SOL     OW16121  13.779   3.867   6.053
 4763SOL    HW116122  13.751   3.776   6.064
 4763SOL    HW216123  13.733   3.915   6.122
 4764SOL     OW16124  13.376  10.727   1.063
 4764SOL    HW116125  13.321  10.655   1.095
 4764SOL    HW216126  13.340  10.748   0.977
 4765SOL     OW16127   7.332   6.167  13.570
 4765SOL    HW116128   7.372   6.129  13.492
 4765SOL    HW216129   7.388   6.139  13.642
 4766SOL     OW16130  10.407   7.962   4.083
 4766SOL    HW116131  10.501   7.974   4.069
 4766SOL    HW216132  10.381   8.037   4.136
 4767SOL     OW16133   7.015  12.358   3.336
 4767SOL    HW116134   6.975  12.431   3.384
 4767SOL    HW216135   7.109  12.375   3.340
 4768SOL     OW16136   2.265   3.844   7.304
 4768SOL    HW116137   2.188   3.899   7.317
 4768SOL    HW216138   2.249   3.767   7.359
 4769SOL     OW16139  10.083   2.182  14.713
 4769SOL    HW116140  10.128   2.211  14.633
 4769SOL    HW216141   9.992   2.167  14.685
 4770SOL     OW16142   0.625   0.323  10.404
 4770SOL    HW116143   0.532   0.341  10.417
 4770SOL    HW216144   0.669   0.404  10.430
 4771SOL     OW16145   7.500   1.821   6.579
 4771SOL    HW116146   7.583   1.814   6.533
 4771SOL    HW216147   7.523   1.860   6.664
 4772SOL     OW16148   7.123  12.828  12.553
 4772SOL    HW116149   7.185  12.768  12.511
 4772SOL    HW216150   7.162  12.847  12.638
 4773SOL     OW16151   7.453  14.072   4.295
 4773SOL    HW116152   7.510  14.035   4.227
 4773SOL    HW216153   7.496  14.154   4.320
 4774SOL     OW16154   9.305   7.229   3.373
 4774SOL    HW116155   9.247   7.297   3.405
 4774SOL    HW216156   9.309   7.165   3.445
 4775SOL     OW16157   3.111   0.191  14.165
 4775SOL    HW116158   3.019   0.215  14.152
 4775SOL    HW216159   3.120   0.181  14.260
 4776SOL     OW16160  11.917   7.940   4.183
 4776SOL    HW116161  11.912   7.946   4.279
 4776SOL    HW216162  11.853   7.873   4.160
 4777SOL     OW16163   8.295  13.316   4.187
 4777SOL    HW116164   8.246  13.395   4.209
 4777SOL    HW216165   8.387  13.343   4.192
 4778SOL     OW16166   0.624  13.016   7.214
 4778SOL    HW116167   0.717  12.997   7.215
 4778SOL    HW216168   0.586  12.953   7.153
 4779SOL     OW16169   1.224   1.636   3.197
 4779SOL    HW116170   1.152   1.673   3.248
 4779SOL    HW216171   1.228   1.544   3.224
 4780SOL     OW16172  14.503  12.334   0.119
 4780SOL    HW116173  14.464  12.402   0.064
 4780SOL    HW216174  14.487  12.253   0.071
 4781SOL     OW16175   3.168   0.470  12.832
 4781SOL    HW116176   3.234   0.486  12.764
 4781SOL    HW216177   3.122   0.554  12.841
 4782SOL     OW16178   2.794   1.933   2.084
 4782SOL    HW116179   2.745   2.012   2.106
 4782SOL    HW216180   2.770   1.870   2.153
 4783SOL     OW16181  11.946   9.946   3.237
 4783SOL    HW116182  11.938   9.958   3.143
 4783SOL    HW216183  11.990   9.862   3.247
 4784SOL     OW16184  10.158  13.337   7.702
 4784SOL    HW116185  10.145  13.247   7.672
 4784SOL    HW216186  10.250  13.340   7.729
 4785SOL     OW16187   2.451   1.638   3.978
 4785SOL    HW116188   2.376   1.662   4.032
 4785SOL    HW216189   2.415   1.618   3.892
 4786SOL     OW16190   5.551   9.001   6.295
 4786SOL    HW116191   5.461   9.025   6.270
 4786SOL    HW216192   5.580   8.942   6.226
 4787SOL     OW16193   6.266   0.976   5.885
 4787SOL    HW116194   6.176   0.998   5.909
 4787SOL    HW216195   6.262   0.956   5.791
 4788SOL     OW16196   2.044   2.033   6.344
 4788SOL    HW116197   2.003   2.075   6.419
 4788SOL    HW216198   1.979   1.969   6.314
 4789SOL     OW16199   5.061   1.603  10.220
 4789SOL    HW116200   5.132   1.615  10.283
 4789SOL    HW216201   4.984   1.643  10.262
 4790SOL     OW16202  10.086   6.309   3.955
 4790SOL    HW116203  10.105   6.237   4.015
 4790SOL    HW216204  10.087   6.269   3.868
 4791SOL     OW16205   8.653  10.399  14.191
 4791SOL    HW116206   8.644  10.458  14.265
 4791SOL    HW216207   8.686  10.317  14.228
 4792SOL     OW16208   0.720  12.221   1.861
 4792SOL    HW116209   0.783  12.217   1.789
 4792SOL    HW216210   0.697  12.130   1.879
 4793SOL     OW16211  13.430   5.662   7.302
 4793SOL    HW116212  13.447   5.575   7.266
 4793SOL    HW216213  13.347   5.653   7.348
 4794SOL     OW16214   4.443   4.428  14.370
 4794SOL    HW116215   4.428   4.339  14.401
 4794SOL    HW216216   4.486   4.472  14.444
 4795SOL     OW16217   4.712   2.025   4.081
 4795SOL    HW116218   4.732   2.004   4.172
 4795SOL    HW216219   4.705   2.120   4.079
 4796SOL     OW16220   6.839   0.236   3.962
 4796SOL    HW116221   6.748   0.206   3.954
 4796SOL    HW216222   6.868   0.204   4.048
 4797SOL     OW16223   2.515   6.535  12.622
 4797SOL    HW116224   2.500   6.465  12.685
 4797SOL    HW216225   2.550   6.491  12.545
 4798SOL     OW16226  12.919   0.799   2.457
 4798SOL    HW116227  12.902   0.862   2.387
 4798SOL    HW216228  12.910   0.851   2.538
 4799SOL     OW16229   9.460   2.109  13.412
 4799SOL    HW116230   9.364   2.111  13.413
 4799SOL    HW216231   9.482   2.078  13.324
 4800SOL     OW16232   4.231   7.268  12.648
 4800SOL    HW116233   4.270   7.336  12.593
 4800SOL    HW216234   4.304   7.212  12.673
 4801SOL     OW16235   4.303   9.677   5.797
 4801SOL    HW116236   4.368   9.737   5.832
 4801SOL    HW216237   4.351   9.623   5.734
 4802SOL     OW16238   7.474   5.934   1.057
 4802SOL    HW116239   7.462   5.839   1.045
 4802SOL    HW216240   7.444   5.951   1.146
 4803SOL     OW16241   4.051   9.024  12.679
 4803SOL    HW116242   4.100   8.946  12.654
 4803SOL    HW216243   3.998   8.997  12.754
 4804SOL     OW16244   5.730   3.336  11.841
 4804SOL    HW116245   5.681   3.370  11.766
 4804SOL    HW216246   5.820   3.362  11.824
 4805SOL     OW16247   2.571   2.290   4.889
 4805SOL    HW116248   2.605   2.256   4.806
 4805SOL    HW216249   2.610   2.234   4.956
 4806SOL     OW16250   6.627  12.165   5.472
 4806SOL    HW116251   6.699  12.139   5.529
 4806SOL    HW216252   6.658  12.245   5.429
 4807SOL     OW16253  10.258   7.723   0.338
 4807SOL    HW116254  10.309   7.685   0.409
 4807SOL    HW216255  10.313   7.794   0.304
 4808SOL     OW16256   0.822   4.818   4.131
 4808SOL    HW116257   0.734   4.811   4.094
 4808SOL    HW216258   0.809   4.854   4.218
 4809SOL     OW16259   2.282   9.571  13.355
 4809SOL    HW116260   2.361   9.625  13.359
 4809SOL    HW216261   2.308   9.494  13.305
 4810SOL     OW16262   4.568   8.142   7.747
 4810SOL    HW116263   4.521   8.224   7.761
 4810SOL    HW216264   4.636   8.142   7.814
 4811SOL     OW16265   8.205   1.066   1.138
 4811SOL    HW116266   8.200   1.141   1.078
 4811SOL    HW216267   8.135   1.008   1.108
 4812SOL     OW16268  10.767  13.186   3.079
 4812SOL    HW116269  10.748  13.107   3.030
 4812SOL    HW216270  10.862  13.196   3.074
 4813SOL     OW16271   1.821  13.071  11.139
 4813SOL    HW116272   1.730  13.068  11.107
 4813SOL    HW216273   1.865  13.133  11.081
 4814SOL     OW16274   9.727   0.492  11.295
 4814SOL    HW116275   9.817   0.490  11.262
 4814SOL    HW216276   9.709   0.585  11.310
 4815SOL     OW16277   6.186  12.206   9.223
 4815SOL    HW116278   6.189  12.112   9.208
 4815SOL    HW216279   6.211  12.245   9.139
 4816SOL     OW16280   7.150  12.346  14.738
 4816SOL    HW116281   7.242  12.373  14.732
 4816SOL    HW216282   7.116  12.394  14.813
 4817SOL     OW16283   8.165   4.139   5.098
 4817SOL    HW116284   8.261   4.143   5.094
 4817SOL    HW216285   8.142   4.058   5.053
 4818SOL     OW16286   4.107  12.989  12.227
 4818SOL    HW116287   4.138  12.958  12.142
 4818SOL    HW216288   4.022  12.946  12.240
 4819SOL     OW16289   0.395   0.627   6.967
 4819SOL    HW116290   0.428   0.600   6.882
 4819SOL    HW216291   0.307   0.590   6.972
 4820SOL     OW16292   2.001   9.786  11.759
 4820SOL    HW116293   1.984   9.880  11.749
 4820SOL    HW216294   2.059   9.780  11.834
 4821SOL     OW16295  12.611  10.242   5.859
 4821SOL    HW116296  12.626  10.151   5.884
 4821SOL    HW216297  12.516  10.252   5.864
 4822SOL     OW16298  11.745   1.421  11.911
 4822SOL    HW116299  11.657   1.386  11.903
 4822SOL    HW216300  11.747   1.496  11.852
 4823SOL     OW16301   7.763   2.424   4.373
 4823SOL    HW116302   7.856   2.427   4.395
 4823SOL    HW216303   7.745   2.331   4.357
 4824SOL     OW16304  13.800   5.750  10.307
 4824SOL    HW116305  13.776   5.790  10.390
 4824SOL    HW216306  13.844   5.820  10.258
 4825SOL     OW16307  14.628  13.048   9.990
 4825SOL    HW116308  14.645  12.992  10.066
 4825SOL    HW216309  14.603  13.133  10.028
 4826SOL     OW16310   0.013   3.699   7.281
 4826SOL    HW116311   0.108   3.712   7.283
 4826SOL    HW216312  14.871   3.646   7.203
 4827SOL     OW16313  10.077   6.785   4.613
 4827SOL    HW116314  10.077   6.718   4.681
 4827SOL    HW216315  10.069   6.735   4.531
 4828SOL     OW16316  12.436  11.271  13.001
 4828SOL    HW116317  12.341  11.264  13.002
 4828SOL    HW216318  12.457  11.301  12.913
 4829SOL     OW16319   3.145   0.902   9.603
 4829SOL    HW116320   3.206   0.852   9.656
 4829SOL    HW216321   3.201   0.958   9.549
 4830SOL     OW16322   2.496  12.919   6.210
 4830SOL    HW116323   2.409  12.879   6.213
 4830SOL    HW216324   2.480  13.009   6.184
 4831SOL     OW16325   6.985   8.962  14.722
 4831SOL    HW116326   6.929   9.023  14.770
 4831SOL    HW216327   7.033   9.017  14.660
 4832SOL     OW16328  12.957   6.687   8.773
 4832SOL    HW116329  13.043   6.677   8.733
 4832SOL    HW216330  12.928   6.775   8.746
 4833SOL     OW16331  10.735  13.579  12.509
 4833SOL    HW116332  10.752  13.486  12.498
 4833SOL    HW216333  10.653  13.583  12.558
 4834SOL     OW16334   8.045  14.387  10.566
 4834SOL    HW116335   7.952  14.394  10.590
 4834SOL    HW216336   8.064  14.294  10.570
 4835SOL     OW16337   4.873  12.418   1.345
 4835SOL    HW116338   4.951  12.365   1.332
 4835SOL    HW216339   4.800  12.359   1.326
 4836SOL     OW16340   3.766   0.379   3.334
 4836SOL    HW116341   3.755   0.474   3.342
 4836SOL    HW216342   3.853   0.368   3.296
 4837SOL     OW16343   2.588   0.445   0.961
 4837SOL    HW116344   2.581   0.528   1.007
 4837SOL    HW216345   2.672   0.450   0.915
 4838SOL     OW16346   5.925  11.464   5.587
 4838SOL    HW116347   5.888  11.477   5.499
 4838SOL    HW216348   6.019  11.477   5.576
 4839SOL     OW16349   9.708   2.559   1.493
 4839SOL    HW116350   9.775   2.554   1.424
 4839SOL    HW216351   9.758   2.562   1.574
 4840SOL     OW16352   8.931  12.978   9.625
 4840SOL    HW116353   8.903  13.029   9.701
 4840SOL    HW216354   8.883  13.016   9.551
 4841SOL     OW16355  10.923  14.278   3.769
 4841SOL    HW116356  10.864  14.349   3.795
 4841SOL    HW216357  10.873  14.198   3.783
 4842SOL     OW16358   2.666   9.456   1.717
 4842SOL    HW116359   2.672   9.423   1.806
 4842SOL    HW216360   2.731   9.405   1.668
 4843SOL     OW16361   7.410   4.846   9.261
 4843SOL    HW116362   7.316   4.859   9.260
 4843SOL    HW216363   7.425   4.769   9.205
 4844SOL     OW16364   5.168  12.444   4.726
 4844SOL    HW116365   5.210  12.360   4.740
 4844SOL    HW216366   5.121  12.462   4.807
 4845SOL     OW16367   0.650  11.352  13.577
 4845SOL    HW116368   0.681  11.431  13.622
 4845SOL    HW216369   0.563  11.336  13.614
 4846SOL     OW16370  12.417   4.271   8.088
 4846SOL    HW116371  12.358   4.333   8.045
 4846SOL    HW216372  12.482   4.250   8.021
 4847SOL     OW16373   7.098   1.496  11.016
 4847SOL    HW116374   7.065   1.559  11.081
 4847SOL    HW216375   7.182   1.532  10.988
 4848SOL     OW16376  12.656   0.644   3.755
 4848SOL    HW116377  12.642   0.676   3.844
 4848SOL    HW216378  12.743   0.603   3.757
 4849SOL     OW16379  12.465   3.228  11.114
 4849SOL    HW116380  12.465   3.155  11.177
 4849SOL    HW216381  12.373   3.254  11.108
 4850SOL     OW16382   5.016  14.796  14.643
 4850SOL    HW116383   4.992  14.809  14.735
 4850SOL    HW216384   4.961  14.725  14.613
 4851SOL     OW16385  10.055   1.320   3.091
 4851SOL    HW116386  10.017   1.235   3.113
 4851SOL    HW216387   9.996   1.357   3.026
 4852SOL     OW16388   3.083   1.997   6.615
 4852SOL    HW116389   3.035   1.922   6.652
 4852SOL    HW216390   3.053   2.072   6.667
 4853SOL     OW16391   4.924  12.018   5.863
 4853SOL    HW116392   4.895  11.927   5.875
 4853SOL    HW216393   4.881  12.047   5.783
 4854SOL     OW16394   2.835   1.651   6.237
 4854SOL    HW116395   2.793   1.703   6.305
 4854SOL    HW216396   2.860   1.714   6.170
 4855SOL     OW16397  13.734   1.050   0.623
 4855SOL    HW116398  13.657   1.001   0.653
 4855SOL    HW216399  13.806   1.017   0.675
 4856SOL     OW16400   7.373   6.370  12.403
 4856SOL    HW116401   7.445   6.307  12.392
 4856SOL    HW216402   7.396   6.418  12.482
 4857SOL     OW16403   0.189   8.550  13.170
 4857SOL    HW116404   0.276   8.543  13.131
 4857SOL    HW216405   0.141   8.608  13.111
 4858SOL     OW16406  10.620   1.174   3.896
 4858SOL    HW116407  10.642   1.266   3.877
 4858SOL    HW216408  10.628   1.167   3.991
 4859SOL     OW16409   6.455  14.038   2.811
 4859SOL    HW116410   6.496  14.026   2.726
 4859SOL    HW216411   6.373  13.989   2.805
 4860SOL     OW16412   7.854  12.918   6.306
 4860SOL    HW116413   7.871  13.012   6.303
 4860SOL    HW216414   7.771  12.907   6.259
 4861SOL     OW16415  13.399   9.214  10.706
 4861SOL    HW116416  13.314   9.201  10.664
 4861SOL    HW216417  13.463   9.199  10.636
 4862SOL     OW16418   3.086  13.817  10.635
 4862SOL    HW116419   3.095  13.722  10.630
 4862SOL    HW216420   3.036  13.833  10.715
 4863SOL     OW16421   2.845   0.269   1.718
 4863SOL    HW116422   2.799   0.241   1.638
 4863SOL    HW216423   2.823   0.362   1.726
 4864SOL     OW16424   2.138   2.404   2.522
 4864SOL    HW116425   2.199   2.360   2.462
 4864SOL    HW216426   2.191   2.470   2.567
 4865SOL     OW16427   1.165  11.621   2.399
 4865SOL    HW116428   1.258  11.614   2.376
 4865SOL    HW216429   1.124  11.660   2.322
 4866SOL     OW16430   3.802   5.639   6.835
 4866SOL    HW116431   3.773   5.709   6.893
 4866SOL    HW216432   3.727   5.623   6.778
 4867SOL     OW16433   6.051   2.254   7.273
 4867SOL    HW116434   6.107   2.176   7.274
 4867SOL    HW216435   6.030   2.268   7.366
 4868SOL     OW16436  14.601   7.546   3.801
 4868SOL    HW116437  14.643   7.470   3.760
 4868SOL    HW216438  14.673   7.608   3.814
 4869SOL     OW16439   5.777   5.436   3.993
 4869SOL    HW116440   5.775   5.367   4.059
 4869SOL    HW216441   5.867   5.434   3.960
 4870SOL     OW16442  11.089   5.993   9.761
 4870SOL    HW116443  11.006   5.982   9.806
 4870SOL    HW216444  11.083   5.936   9.684
 4871SOL     OW16445   2.208  14.579   5.691
 4871SOL    HW116446   2.126  14.608   5.651
 4871SOL    HW216447   2.251  14.660   5.718
 4872SOL     OW16448   9.888  13.832   7.178
 4872SOL    HW116449   9.818  13.898   7.176
 4872SOL    HW216450   9.956  13.872   7.233
 4873SOL     OW16451   8.004  12.249   0.613
 4873SOL    HW116452   8.002  12.256   0.709
 4873SOL    HW216453   8.037  12.334   0.584
 4874SOL     OW16454   0.516  11.932   3.179
 4874SOL    HW116455   0.491  11.840   3.184
 4874SOL    HW216456   0.547  11.953   3.267
 4875SOL     OW16457   7.632   6.905   6.663
 4875SOL    HW116458   7.605   6.866   6.580
 4875SOL    HW216459   7.726   6.889   6.668
 4876SOL     OW16460   7.387   6.821   7.202
 4876SOL    HW116461   7.366   6.842   7.111
 4876SOL    HW216462   7.324   6.754   7.226
 4877SOL     OW16463  10.212  10.549   3.755
 4877SOL    HW116464  10.304  10.530   3.738
 4877SOL    HW216465  10.173  10.561   3.669
 4878SOL     OW16466  14.156  11.585   2.614
 4878SOL    HW116467  14.160  11.530   2.692
 4878SOL    HW216468  14.124  11.527   2.545
 4879SOL     OW16469   5.981  10.899   0.574
 4879SOL    HW116470   5.991  10.889   0.479
 4879SOL    HW216471   5.995  10.811   0.609
 4880SOL     OW16472   5.822  14.660  10.078
 4880SOL    HW116473   5.761  14.591  10.102
 4880SOL    HW216474   5.792  14.737  10.127
 4881SOL     OW16475   4.921   8.918   7.603
 4881SOL    HW116476   4.886   8.850   7.661
 4881SOL    HW216477   5.012   8.893   7.589
 4882SOL     OW16478   1.614  12.860   8.238
 4882SOL    HW116479   1.606  12.882   8.331
 4882SOL    HW216480   1.568  12.930   8.193
 4883SOL     OW16481   7.587   7.247   8.426
 4883SOL    HW116482   7.559   7.199   8.504
 4883SOL    HW216483   7.675   7.213   8.407
 4884SOL     OW16484   8.723  10.332   8.275
 4884SOL    HW116485   8.757  10.419   8.295
 4884SOL    HW216486   8.650  10.349   8.215
 4885SOL     OW16487   4.050   4.028   8.482
 4885SOL    HW116488   4.098   4.056   8.559
 4885SOL    HW216489   4.060   4.100   8.419
 4886SOL     OW16490  11.528   4.404   7.998
 4886SOL    HW116491  11.563   4.459   7.928
 4886SOL    HW216492  11.563   4.317   7.979
 4887SOL     OW16493   4.815   0.486  12.924
 4887SOL    HW116494   4.746   0.433  12.885
 4887SOL    HW216495   4.823   0.452  13.013
 4888SOL     OW16496   1.754   3.498  10.067
 4888SOL    HW116497   1.802   3.431  10.019
 4888SOL    HW216498   1.689   3.531  10.004
 4889SOL     OW16499   1.224  11.231  14.820
 4889SOL    HW116500   1.270  11.268   0.023
 4889SOL    HW216501   1.277  11.156  14.793
 4890SOL     OW16502   1.504  10.993   8.787
 4890SOL    HW116503   1.443  11.064   8.806
 4890SOL    HW216504   1.469  10.952   8.707
 4891SOL     OW16505   7.835  13.217   7.951
 4891SOL    HW116506   7.764  13.264   7.908
 4891SOL    HW216507   7.871  13.280   8.015
 4892SOL     OW16508   4.403   9.230  12.841
 4892SOL    HW116509   4.352   9.171  12.896
 4892SOL    HW216510   4.467   9.173  12.798
 4893SOL     OW16511  10.553   1.057   7.339
 4893SOL    HW116512  10.637   1.043   7.383
 4893SOL    HW216513  10.564   1.016   7.253
 4894SOL     OW16514  14.736   2.064   9.728
 4894SOL    HW116515  14.694   2.123   9.666
 4894SOL    HW216516  14.680   1.987   9.730
 4895SOL     OW16517  13.952   9.474   0.394
 4895SOL    HW116518  13.901   9.402   0.355
 4895SOL    HW216519  13.943   9.461   0.488
 4896SOL     OW16520  14.559   4.368   1.505
 4896SOL    HW116521  14.550   4.429   1.432
 4896SOL    HW216522  14.615   4.413   1.568
 4897SOL     OW16523   6.545   5.153   9.625
 4897SOL    HW116524   6.473   5.193   9.576
 4897SOL    HW216525   6.503   5.083   9.676
 4898SOL     OW16526  11.325   2.897  12.669
 4898SOL    HW116527  11.367   2.904  12.583
 4898SOL    HW216528  11.365   2.820  12.709
 4899SOL     OW16529   6.869   5.601  10.946
 4899SOL    HW116530   6.938   5.611  10.880
 4899SOL    HW216531   6.789   5.584  10.895
 4900SOL     OW16532  12.037   3.867   0.887
 4900SOL    HW116533  12.023   3.828   0.800
 4900SOL    HW216534  12.008   3.799   0.948
 4901SOL     OW16535   6.706   6.474   7.515
 4901SOL    HW116536   6.734   6.559   7.548
 4901SOL    HW216537   6.614   6.485   7.493
 4902SOL     OW16538   2.583  13.945   8.002
 4902SOL    HW116539   2.679  13.948   8.010
 4902SOL    HW216540   2.554  14.033   8.023
 4903SOL     OW16541   5.585   6.963   2.206
 4903SOL    HW116542   5.654   6.903   2.178
 4903SOL    HW216543   5.632   7.040   2.238
 4904SOL     OW16544   8.524   6.139   3.829
 4904SOL    HW116545   8.544   6.137   3.923
 4904SOL    HW216546   8.464   6.213   3.819
 4905SOL     OW16547  11.152   7.437   7.814
 4905SOL    HW116548  11.194   7.517   7.782
 4905SOL    HW216549  11.060   7.448   7.792
 4906SOL     OW16550   6.156   0.532   3.342
 4906SOL    HW116551   6.240   0.489   3.361
 4906SOL    HW216552   6.102   0.512   3.418
 4907SOL     OW16553  11.538   6.095  13.097
 4907SOL    HW116554  11.469   6.142  13.049
 4907SOL    HW216555  11.618   6.143  13.076
 4908SOL     OW16556  13.372   9.504   9.212
 4908SOL    HW116557  13.459   9.466   9.218
 4908SOL    HW216558  13.347   9.522   9.303
 4909SOL     OW16559   6.661   5.182   8.463
 4909SOL    HW116560   6.597   5.188   8.535
 4909SOL    HW216561   6.708   5.100   8.480
 4910SOL     OW16562  13.531  13.180   4.475
 4910SOL    HW116563  13.560  13.112   4.414
 4910SOL    HW216564  13.586  13.255   4.456
 4911SOL     OW16565   1.590   4.298  11.633
 4911SOL    HW116566   1.534   4.223  11.614
 4911SOL    HW216567   1.628   4.279  11.719
 4912SOL     OW16568  12.704   0.481   4.638
 4912SOL    HW116569  12.665   0.505   4.554
 4912SOL    HW216570  12.739   0.393   4.624
 4913SOL     OW16571   0.946   3.068   3.532
 4913SOL    HW116572   0.974   3.137   3.473
 4913SOL    HW216573   0.851   3.062   3.519
 4914SOL     OW16574   2.338   0.129  13.175
 4914SOL    HW116575   2.417   0.168  13.138
 4914SOL    HW216576   2.353   0.035  13.168
 4915SOL     OW16577   5.637   4.427   8.478
 4915SOL    HW116578   5.714   4.374   8.494
 4915SOL    HW216579   5.626   4.425   8.383
 4916SOL     OW16580   2.791   2.989   9.115
 4916SOL    HW116581   2.757   2.911   9.159
 4916SOL    HW216582   2.801   2.963   9.023
 4917SOL     OW16583   7.457  10.300   4.364
 4917SOL    HW116584   7.437  10.266   4.452
 4917SOL    HW216585   7.437  10.227   4.305
 4918SOL     OW16586  11.018   5.628   9.615
 4918SOL    HW116587  11.030   5.600   9.706
 4918SOL    HW216588  10.925   5.647   9.608
 4919SOL     OW16589   5.812   6.611   9.784
 4919SOL    HW116590   5.899   6.641   9.809
 4919SOL    HW216591   5.775   6.577   9.866
 4920SOL     OW16592   6.146   7.072   1.406
 4920SOL    HW116593   6.093   7.124   1.467
 4920SOL    HW216594   6.194   7.137   1.355
 4921SOL     OW16595  10.441   2.745  14.686
 4921SOL    HW116596  10.533   2.734  14.711
 4921SOL    HW216597  10.412   2.823  14.733
 4922SOL     OW16598   3.093  13.535   2.958
 4922SOL    HW116599   3.040  13.567   3.031
 4922SOL    HW216600   3.033  13.479   2.908
 4923SOL     OW16601   0.940   1.683   5.295
 4923SOL    HW116602   0.985   1.760   5.262
 4923SOL    HW216603   0.900   1.712   5.377
 4924SOL     OW16604  12.572  14.224  10.088
 4924SOL    HW116605  12.562  14.130  10.096
 4924SOL    HW216606  12.488  14.255  10.055
 4925SOL     OW16607  10.810  12.560   8.649
 4925SOL    HW116608  10.838  12.627   8.587
 4925SOL    HW216609  10.715  12.571   8.656
 4926SOL     OW16610   8.604  11.617   0.353
 4926SOL    HW116611   8.510  11.623   0.339
 4926SOL    HW216612   8.641  11.608   0.266
 4927SOL     OW16613  12.935  13.825   2.849
 4927SOL    HW116614  12.990  13.867   2.914
 4927SOL    HW216615  12.857  13.799   2.897
 4928SOL     OW16616   3.671  12.121   6.164
 4928SOL    HW116617   3.608  12.186   6.131
 4928SOL    HW216618   3.650  12.113   6.257
 4929SOL     OW16619   6.484  13.009   6.693
 4929SOL    HW116620   6.547  13.032   6.761
 4929SOL    HW216621   6.425  13.084   6.689
 4930SOL     OW16622  14.485   5.808   7.449
 4930SOL    HW116623  14.523   5.896   7.457
 4930SOL    HW216624  14.561   5.750   7.450
 4931SOL     OW16625   8.543  12.243  14.812
 4931SOL    HW116626   8.571  12.309  14.749
 4931SOL    HW216627   8.584  12.270   0.022
 4932SOL     OW16628  12.722   7.850   5.041
 4932SOL    HW116629  12.653   7.881   4.982
 4932SOL    HW216630  12.802   7.857   4.990
 4933SOL     OW16631   9.424   3.116   1.827
 4933SOL    HW116632   9.388   3.202   1.807
 4933SOL    HW216633   9.418   3.109   1.923
 4934SOL     OW16634   0.802  10.205   5.535
 4934SOL    HW116635   0.792  10.120   5.576
 4934SOL    HW216636   0.753  10.198   5.453
 4935SOL     OW16637   0.844  10.222   3.256
 4935SOL    HW116638   0.757  10.188   3.234
 4935SOL    HW216639   0.905  10.157   3.221
 4936SOL     OW16640  11.548   3.138   0.027
 4936SOL    HW116641  11.516   3.115  14.813
 4936SOL    HW216642  11.643   3.140   0.019
 4937SOL     OW16643  12.644  11.890   8.886
 4937SOL    HW116644  12.726  11.925   8.920
 4937SOL    HW216645  12.610  11.835   8.956
 4938SOL     OW16646  14.122   2.706   6.401
 4938SOL    HW116647  14.161   2.664   6.324
 4938SOL    HW216648  14.196   2.744   6.448
 4939SOL     OW16649   2.691  14.263   8.091
 4939SOL    HW116650   2.671  14.323   8.162
 4939SOL    HW216651   2.633  14.289   8.020
 4940SOL     OW16652   4.159   8.334   1.792
 4940SOL    HW116653   4.213   8.330   1.871
 4940SOL    HW216654   4.212   8.291   1.725
 4941SOL     OW16655  14.446   2.034   8.555
 4941SOL    HW116656  14.490   1.970   8.611
 4941SOL    HW216657  14.512   2.102   8.540
 4942SOL     OW16658   9.125  11.965  10.310
 4942SOL    HW116659   9.145  11.945  10.401
 4942SOL    HW216660   9.082  11.885  10.277
 4943SOL     OW16661   2.268   3.679  10.167
 4943SOL    HW116662   2.209   3.672  10.091
 4943SOL    HW216663   2.285   3.588  10.192
 4944SOL     OW16664  10.771   7.563   1.099
 4944SOL    HW116665  10.768   7.518   1.184
 4944SOL    HW216666  10.771   7.493   1.034
 4945SOL     OW16667  14.184   1.632  11.043
 4945SOL    HW116668  14.139   1.683  10.976
 4945SOL    HW216669  14.254   1.690  11.074
 4946SOL     OW16670   2.697  10.358   1.210
 4946SOL    HW116671   2.668  10.281   1.259
 4946SOL    HW216672   2.703  10.327   1.120
 4947SOL     OW16673  11.452   9.947  14.083
 4947SOL    HW116674  11.413   9.864  14.110
 4947SOL    HW216675  11.414  10.012  14.142
 4948SOL     OW16676  14.520   6.435   8.710
 4948SOL    HW116677  14.590   6.493   8.742
 4948SOL    HW216678  14.455   6.494   8.673
 4949SOL     OW16679  13.584   5.612   0.244
 4949SOL    HW116680  13.510   5.666   0.271
 4949SOL    HW216681  13.573   5.603   0.149
 4950SOL     OW16682   8.574  12.828   9.368
 4950SOL    HW116683   8.526  12.745   9.370
 4950SOL    HW216684   8.637  12.821   9.439
 4951SOL     OW16685  14.101   4.902   9.194
 4951SOL    HW116686  14.017   4.863   9.219
 4951SOL    HW216687  14.076   4.975   9.137
 4952SOL     OW16688   2.557   3.704   7.125
 4952SOL    HW116689   2.503   3.641   7.173
 4952SOL    HW216690   2.617   3.739   7.190
 4953SOL     OW16691   8.490   3.637  13.216
 4953SOL    HW116692   8.571   3.678  13.185
 4953SOL    HW216693   8.503   3.626  13.310
 4954SOL     OW16694   9.555   7.045  12.306
 4954SOL    HW116695   9.554   7.002  12.221
 4954SOL    HW216696   9.594   7.131  12.290
 4955SOL     OW16697  11.209   5.985   1.444
 4955SOL    HW116698  11.146   5.913   1.453
 4955SOL    HW216699  11.227   5.989   1.350
 4956SOL     OW16700   8.871   6.356   5.462
 4956SOL    HW116701   8.788   6.336   5.506
 4956SOL    HW216702   8.914   6.271   5.451
 4957SOL     OW16703  13.884   9.624   6.721
 4957SOL    HW116704  13.936   9.623   6.802
 4957SOL    HW216705  13.913   9.703   6.676
 4958SOL     OW16706  13.374   8.415   9.855
 4958SOL    HW116707  13.422   8.472   9.796
 4958SOL    HW216708  13.363   8.333   9.806
 4959SOL     OW16709  11.609   2.341   6.742
 4959SOL    HW116710  11.572   2.305   6.822
 4959SOL    HW216711  11.701   2.359   6.764
 4960SOL     OW16712  14.472   9.311   9.823
 4960SOL    HW116713  14.498   9.355   9.904
 4960SOL    HW216714  14.540   9.246   9.808
 4961SOL     OW16715   4.168   0.748   7.104
 4961SOL    HW116716   4.257   0.748   7.139
 4961SOL    HW216717   4.179   0.741   7.009
 4962SOL     OW16718   6.477   9.989   6.558
 4962SOL    HW116719   6.483   9.895   6.540
 4962SOL    HW216720   6.399  10.017   6.510
 4963SOL     OW16721   1.124  14.089   1.067
 4963SOL    HW116722   1.159  14.178   1.061
 4963SOL    HW216723   1.048  14.090   1.008
 4964SOL     OW16724   0.002   9.583  12.777
 4964SOL    HW116725   0.023   9.660  12.829
 4964SOL    HW216726  14.779   9.586  12.767
 4965SOL     OW16727  10.912  11.266   9.055
 4965SOL    HW116728  10.865  11.187   9.029
 4965SOL    HW216729  10.869  11.294   9.136
 4966SOL     OW16730  12.521  13.039   3.716
 4966SOL    HW116731  12.468  13.033   3.636
 4966SOL    HW216732  12.467  12.999   3.784
 4967SOL     OW16733  11.700   7.436   0.383
 4967SOL    HW116734  11.776   7.442   0.442
 4967SOL    HW216735  11.635   7.494   0.423
 4968SOL     OW16736   1.535   1.697   6.697
 4968SOL    HW116737   1.573   1.733   6.618
 4968SOL    HW216738   1.593   1.626   6.723
 4969SOL     OW16739  12.795   6.818  10.348
 4969SOL    HW116740  12.882   6.814  10.309
 4969SOL    HW216741  12.739   6.768  10.287
 4970SOL     OW16742   0.655   5.292  12.266
 4970SOL    HW116743   0.652   5.299  12.362
 4970SOL    HW216744   0.747   5.274  12.247
 4971SOL     OW16745  14.100   7.896   0.346
 4971SOL    HW116746  14.166   7.827   0.356
 4971SOL    HW216747  14.138   7.957   0.283
 4972SOL     OW16748  14.561   6.890   0.934
 4972SOL    HW116749  14.490   6.954   0.925
 4972SOL    HW216750  14.612   6.901   0.853
 4973SOL     OW16751   5.980  11.927   1.324
 4973SOL    HW116752   6.009  12.009   1.283
 4973SOL    HW216753   5.890  11.945   1.351
 4974SOL     OW16754   7.258   8.627   4.215
 4974SOL    HW116755   7.286   8.680   4.140
 4974SOL    HW216756   7.164   8.618   4.205
 4975SOL     OW16757   0.717   2.838   6.914
 4975SOL    HW116758   0.726   2.927   6.947
 4975SOL    HW216759   0.805   2.814   6.884
 4976SOL     OW16760  10.554   4.173  12.307
 4976SOL    HW116761  10.494   4.199  12.377
 4976SOL    HW216762  10.514   4.096  12.269
 4977SOL     OW16763   2.391   9.099  11.977
 4977SOL    HW116764   2.316   9.091  11.919
 4977SOL    HW216765   2.441   9.172  11.942
 4978SOL     OW16766   0.227   2.249   3.759
 4978SOL    HW116767   0.187   2.320   3.708
 4978SOL    HW216768   0.170   2.174   3.745
 4979SOL     OW16769   9.861   7.705   9.823
 4979SOL    HW116770   9.876   7.634   9.760
 4979SOL    HW216771   9.826   7.777   9.771
 4980SOL     OW16772  12.520   1.094   9.384
 4980SOL    HW116773  12.518   1.028   9.314
 4980SOL    HW216774  12.438   1.142   9.376
 4981SOL     OW16775   7.422   9.513  13.320
 4981SOL    HW116776   7.505   9.469  13.303
 4981SOL    HW216777   7.359   9.467  13.265
 4982SOL     OW16778  14.342   5.293   5.582
 4982SOL    HW116779  14.348   5.232   5.656
 4982SOL    HW216780  14.324   5.378   5.623
 4983SOL     OW16781  11.367   6.609   3.458
 4983SOL    HW116782  11.328   6.526   3.429
 4983SOL    HW216783  11.455   6.608   3.421
 4984SOL     OW16784   4.980   4.040   0.230
 4984SOL    HW116785   5.017   3.969   0.283
 4984SOL    HW216786   5.003   4.120   0.278
 4985SOL     OW16787   4.094  12.711  14.300
 4985SOL    HW116788   4.009  12.752  14.283
 4985SOL    HW216789   4.154  12.785  14.311
 4986SOL     OW16790  10.169  11.106   7.261
 4986SOL    HW116791  10.251  11.062   7.239
 4986SOL    HW216792  10.133  11.055   7.333
 4987SOL     OW16793   5.409   5.665   1.388
 4987SOL    HW116794   5.335   5.711   1.349
 4987SOL    HW216795   5.482   5.679   1.327
 4988SOL     OW16796   9.569  14.116   7.645
 4988SOL    HW116797   9.651  14.159   7.618
 4988SOL    HW216798   9.532  14.081   7.564
 4989SOL     OW16799  14.689  13.027  13.279
 4989SOL    HW116800  14.728  13.109  13.311
 4989SOL    HW216801  14.595  13.041  13.290
 4990SOL     OW16802  13.796   1.893   1.348
 4990SOL    HW116803  13.883   1.864   1.375
 4990SOL    HW216804  13.738   1.862   1.418
 4991SOL     OW16805   0.684  14.639   6.051
 4991SOL    HW116806   0.611  14.700   6.056
 4991SOL    HW216807   0.644  14.553   6.045
 4992SOL     OW16808   6.410  14.287   4.849
 4992SOL    HW116809   6.491  14.338   4.843
 4992SOL    HW216810   6.387  14.289   4.941
 4993SOL     OW16811   3.738   8.281   5.180
 4993SOL    HW116812   3.649   8.299   5.208
 4993SOL    HW216813   3.732   8.268   5.085
 4994SOL     OW16814   9.725   5.108   4.070
 4994SOL    HW116815   9.746   5.200   4.055
 4994SOL    HW216816   9.789   5.080   4.136
 4995SOL     OW16817   7.694   6.777  13.702
 4995SOL    HW116818   7.787   6.756  13.704
 4995SOL    HW216819   7.667   6.777  13.794
 4996SOL     OW16820   0.145   4.380  13.411
 4996SOL    HW116821   0.106   4.292  13.410
 4996SOL    HW216822   0.220   4.373  13.352
 4997SOL     OW16823   1.210   8.218   7.282
 4997SOL    HW116824   1.124   8.248   7.313
 4997SOL    HW216825   1.216   8.250   7.192
 4998SOL     OW16826  12.422   3.338   3.307
 4998SOL    HW116827  12.433   3.408   3.372
 4998SOL    HW216828  12.454   3.259   3.352
 4999SOL     OW16829   0.871   3.789  14.021
 4999SOL    HW116830   0.942   3.846  14.050
 4999SOL    HW216831   0.792   3.832  14.052
 5000SOL     OW16832   8.095   1.783   3.846
 5000SOL    HW116833   8.061   1.828   3.769
 5000SOL    HW216834   8.022   1.729   3.877
 5001SOL     OW16835   0.040   9.618   0.273
 5001SOL    HW116836   0.097   9.680   0.317
 5001SOL    HW216837  14.843   9.672   0.234
 5002SOL     OW16838   4.744   1.453   0.180
 5002SOL    HW116839   4.705   1.422   0.098
 5002SOL    HW216840   4.837   1.466   0.159
 5003SOL     OW16841   4.267   9.146   1.994
 5003SOL    HW116842   4.205   9.109   2.057
 5003SOL    HW216843   4.292   9.230   2.032
 5004SOL     OW16844   9.197  12.326   0.498
 5004SOL    HW116845   9.174  12.416   0.522
 5004SOL    HW216846   9.119  12.275   0.520
 5005SOL     OW16847  10.896   7.419   4.440
 5005SOL    HW116848  10.833   7.351   4.415
 5005SOL    HW216849  10.885   7.429   4.534
 5006SOL     OW16850   4.720   0.894   8.406
 5006SOL    HW116851   4.810   0.928   8.404
 5006SOL    HW216852   4.697   0.880   8.315
 5007SOL     OW16853  11.567  13.807   6.783
 5007SOL    HW116854  11.541  13.860   6.858
 5007SOL    HW216855  11.508  13.731   6.785
 5008SOL     OW16856   2.760   8.209  13.430
 5008SOL    HW116857   2.698   8.171  13.367
 5008SOL    HW216858   2.834   8.237  13.376
 5009SOL     OW16859   3.709   3.917   4.675
 5009SOL    HW116860   3.653   3.987   4.708
 5009SOL    HW216861   3.661   3.837   4.692
 5010SOL     OW16862  11.055   2.331   9.511
 5010SOL    HW116863  11.056   2.243   9.548
 5010SOL    HW216864  11.000   2.324   9.433
 5011SOL     OW16865   7.605  13.414   6.155
 5011SOL    HW116866   7.581  13.354   6.225
 5011SOL    HW216867   7.555  13.385   6.079
 5012SOL     OW16868  10.740   7.159   6.003
 5012SOL    HW116869  10.785   7.111   5.934
 5012SOL    HW216870  10.789   7.139   6.083
 5013SOL     OW16871   7.426   7.680   8.022
 5013SOL    HW116872   7.356   7.701   8.084
 5013SOL    HW216873   7.391   7.707   7.937
 5014SOL     OW16874   6.754   5.573   7.940
 5014SOL    HW116875   6.788   5.502   7.995
 5014SOL    HW216876   6.832   5.618   7.909
 5015SOL     OW16877  10.946   1.237   1.400
 5015SOL    HW116878  10.901   1.321   1.417
 5015SOL    HW216879  10.941   1.226   1.305
 5016SOL     OW16880   9.848   3.325  12.821
 5016SOL    HW116881   9.927   3.272  12.822
 5016SOL    HW216882   9.808   3.311  12.906
 5017SOL     OW16883   1.982   9.485  12.332
 5017SOL    HW116884   1.890   9.467  12.353
 5017SOL    HW216885   1.991   9.460  12.240
 5018SOL     OW16886   4.086   3.075   9.135
 5018SOL    HW116887   4.172   3.075   9.177
 5018SOL    HW216888   4.033   3.017   9.190
 5019SOL     OW16889   5.732   7.010   5.289
 5019SOL    HW116890   5.772   6.967   5.365
 5019SOL    HW216891   5.652   6.960   5.273
 5020SOL     OW16892   0.291   2.224   3.401
 5020SOL    HW116893   0.369   2.185   3.442
 5020SOL    HW216894   0.310   2.220   3.307
 5021SOL     OW16895   0.485  12.432   0.047
 5021SOL    HW116896   0.459  12.474   0.128
 5021SOL    HW216897   0.406  12.386   0.017
 5022SOL     OW16898  10.434   4.628  11.992
 5022SOL    HW116899  10.375   4.656  12.062
 5022SOL    HW216900  10.520   4.659  12.018
 5023SOL     OW16901   4.161   8.810  10.353
 5023SOL    HW116902   4.127   8.835  10.267
 5023SOL    HW216903   4.228   8.875  10.373
 5024SOL     OW16904   2.722  11.938   8.349
 5024SOL    HW116905   2.680  11.853   8.338
 5024SOL    HW216906   2.665  11.986   8.409
 5025SOL     OW16907   7.245   8.508  12.236
 5025SOL    HW116908   7.239   8.479  12.327
 5025SOL    HW216909   7.302   8.584  12.238
 5026SOL     OW16910   4.469   8.814   2.304
 5026SOL    HW116911   4.544   8.787   2.250
 5026SOL    HW216912   4.495   8.899   2.340
 5027SOL     OW16913   2.172   9.226   6.249
 5027SOL    HW116914   2.127   9.240   6.332
 5027SOL    HW216915   2.213   9.140   6.258
 5028SOL     OW16916   6.283  11.212   9.202
 5028SOL    HW116917   6.322  11.126   9.185
 5028SOL    HW216918   6.252  11.208   9.292
 5029SOL     OW16919   3.539   7.610  11.299
 5029SOL    HW116920   3.461   7.619  11.244
 5029SOL    HW216921   3.578   7.697  11.298
 5030SOL     OW16922  12.415   1.460   3.107
 5030SOL    HW116923  12.331   1.504   3.119
 5030SOL    HW216924  12.414   1.388   3.170
 5031SOL     OW16925   0.645   1.524  13.497
 5031SOL    HW116926   0.733   1.498  13.524
 5031SOL    HW216927   0.601   1.549  13.578
 5032SOL     OW16928   8.103   0.889   6.725
 5032SOL    HW116929   8.132   0.840   6.802
 5032SOL    HW216930   8.061   0.824   6.669
 5033SOL     OW16931  10.991   3.294   4.678
 5033SOL    HW116932  11.046   3.230   4.631
 5033SOL    HW216933  11.054   3.356   4.715
 5034SOL     OW16934  13.775   2.044   9.986
 5034SOL    HW116935  13.807   1.981   9.922
 5034SOL    HW216936  13.847   2.106   9.997
 5035SOL     OW16937   8.894   9.024   6.948
 5035SOL    HW116938   8.965   9.084   6.971
 5035SOL    HW216939   8.838   9.075   6.890
 5036SOL     OW16940  10.334   2.397  12.379
 5036SOL    HW116941  10.380   2.481  12.369
 5036SOL    HW216942  10.380   2.353  12.450
 5037SOL     OW16943   1.920   5.724  10.919
 5037SOL    HW116944   2.007   5.730  10.880
 5037SOL    HW216945   1.861   5.720  10.843
 5038SOL     OW16946  11.919   3.819   4.181
 5038SOL    HW116947  11.925   3.845   4.273
 5038SOL    HW216948  11.945   3.727   4.181
 5039SOL     OW16949   7.074   1.362   0.067
 5039SOL    HW116950   7.032   1.434   0.021
 5039SOL    HW216951   7.002   1.307   0.098
 5040SOL     OW16952   3.298  11.726   8.810
 5040SOL    HW116953   3.285  11.761   8.721
 5040SOL    HW216954   3.210  11.709   8.843
 5041SOL     OW16955  14.682   5.248  14.207
 5041SOL    HW116956  14.716   5.317  14.265
 5041SOL    HW216957  14.700   5.167  14.253
 5042SOL     OW16958   6.697  11.987  12.131
 5042SOL    HW116959   6.676  12.034  12.051
 5042SOL    HW216960   6.678  11.895  12.110
 5043SOL     OW16961  13.281   4.865   3.938
 5043SOL    HW116962  13.226   4.791   3.963
 5043SOL    HW216963  13.328   4.889   4.018
 5044SOL     OW16964   1.582   2.161   3.693
 5044SOL    HW116965   1.539   2.242   3.664
 5044SOL    HW216966   1.557   2.153   3.785
 5045SOL     OW16967  11.167  12.003   4.049
 5045SOL    HW116968  11.080  12.027   4.082
 5045SOL    HW216969  11.179  12.058   3.972
 5046SOL     OW16970  12.878   6.984   3.018
 5046SOL    HW116971  12.783   6.985   3.012
 5046SOL    HW216972  12.904   6.900   2.979
 5047SOL     OW16973  12.899   5.073   3.511
 5047SOL    HW116974  12.916   5.166   3.527
 5047SOL    HW216975  12.902   5.065   3.415
 5048SOL     OW16976   1.932  13.030   3.135
 5048SOL    HW116977   1.842  13.062   3.129
 5048SOL    HW216978   1.963  13.063   3.220
 5049SOL     OW16979  13.948   6.575   3.137
 5049SOL    HW116980  13.890   6.650   3.121
 5049SOL    HW216981  13.921   6.510   3.071
 5050SOL     OW16982   7.627   9.115   3.745
 5050SOL    HW116983   7.560   9.092   3.681
 5050SOL    HW216984   7.590   9.091   3.829
 5051SOL     OW16985  14.024   6.721   2.802
 5051SOL    HW116986  14.087   6.729   2.874
 5051SOL    HW216987  14.052   6.642   2.755
 5052SOL     OW16988  10.575  11.607   4.058
 5052SOL    HW116989  10.483  11.616   4.083
 5052SOL    HW216990  10.619  11.578   4.138
 5053SOL     OW16991  10.594   9.417   6.625
 5053SOL    HW116992  10.684   9.426   6.657
 5053SOL    HW216993  10.541   9.408   6.704
 5054SOL     OW16994  12.224  10.641   5.977
 5054SOL    HW116995  12.154  10.581   6.001
 5054SOL    HW216996  12.264  10.601   5.900
 5055SOL     OW16997   3.704   1.939   4.992
 5055SOL    HW116998   3.680   1.878   4.922
 5055SOL    HW216999   3.762   1.889   5.049
 5056SOL     OW17000   2.941   0.784   1.778
 5056SOL    HW117001   2.996   0.710   1.752
 5056SOL    HW217002   2.861   0.743   1.813
 5057SOL     OW17003  12.946   5.653   1.936
 5057SOL    HW117004  12.985   5.590   1.874
 5057SOL    HW217005  12.945   5.736   1.888
 5058SOL     OW17006   6.563   8.742  14.629
 5058SOL    HW117007   6.470   8.753  14.648
 5058SOL    HW217008   6.566   8.698  14.544
 5059SOL     OW17009   1.295   0.782   5.771
 5059SOL    HW117010   1.263   0.867   5.801
 5059SOL    HW217011   1.314   0.734   5.852
 5060SOL     OW17012   1.987  12.925  13.408
 5060SOL    HW117013   1.923  12.992  13.385
 5060SOL    HW217014   2.058  12.973  13.450
 5061SOL     OW17015   8.848   3.285  11.315
 5061SOL    HW117016   8.796   3.293  11.235
 5061SOL    HW217017   8.783   3.277  11.385
 5062SOL     OW17018   3.571   9.544   4.499
 5062SOL    HW117019   3.571   9.633   4.463
 5062SOL    HW217020   3.515   9.550   4.577
 5063SOL     OW17021   3.407   3.884   6.517
 5063SOL    HW117022   3.355   3.819   6.565
 5063SOL    HW217023   3.410   3.960   6.575
 5064SOL     OW17024   9.291   0.698  12.141
 5064SOL    HW117025   9.292   0.634  12.213
 5064SOL    HW217026   9.249   0.651  12.068
 5065SOL     OW17027   4.999  12.822  10.665
 5065SOL    HW117028   5.032  12.830  10.754
 5065SOL    HW217029   5.074  12.790  10.614
 5066SOL     OW17030   6.683  14.070   2.306
 5066SOL    HW117031   6.758  14.018   2.336
 5066SOL    HW217032   6.665  14.036   2.218
 5067SOL     OW17033  10.845  10.688   9.901
 5067SOL    HW117034  10.918  10.654   9.850
 5067SOL    HW217035  10.864  10.782   9.910
 5068SOL     OW17036   3.808   9.290  10.768
 5068SOL    HW117037   3.732   9.234  10.752
 5068SOL    HW217038   3.841   9.261  10.854
 5069SOL     OW17039  10.829   7.981  11.169
 5069SOL    HW117040  10.759   8.028  11.214
 5069SOL    HW217041  10.790   7.897  11.145
 5070SOL     OW17042   7.275   3.724  13.665
 5070SOL    HW117043   7.304   3.801  13.714
 5070SOL    HW217044   7.180   3.726  13.673
 5071SOL     OW17045  10.483   4.445   4.920
 5071SOL    HW117046  10.564   4.459   4.871
 5071SOL    HW217047  10.512   4.409   5.004
 5072SOL     OW17048   0.592   5.657   3.294
 5072SOL    HW117049   0.534   5.733   3.303
 5072SOL    HW217050   0.679   5.691   3.317
 5073SOL     OW17051   7.770   4.220   3.362
 5073SOL    HW117052   7.818   4.184   3.437
 5073SOL    HW217053   7.687   4.172   3.362
 5074SOL     OW17054   4.367  14.473   6.054
 5074SOL    HW117055   4.338  14.449   6.141
 5074SOL    HW217056   4.358  14.393   6.002
 5075SOL     OW17057   9.594   4.577  14.359
 5075SOL    HW117058   9.643   4.656  14.381
 5075SOL    HW217059   9.509   4.610  14.330
 5076SOL     OW17060   0.277  14.742   1.179
 5076SOL    HW117061   0.229  14.817   1.144
 5076SOL    HW217062   0.239  14.727   1.265
 5077SOL     OW17063   0.699   0.031   2.363
 5077SOL    HW117064   0.635  14.843   2.326
 5077SOL    HW217065   0.680   0.115   2.320
 5078SOL     OW17066  14.372   7.293  12.536
 5078SOL    HW117067  14.356   7.243  12.456
 5078SOL    HW217068  14.395   7.226  12.601
 5079SOL     OW17069   0.507   1.577  10.873
 5079SOL    HW117070   0.530   1.504  10.815
 5079SOL    HW217071   0.584   1.589  10.928
 5080SOL     OW17072   9.155   8.076   5.641
 5080SOL    HW117073   9.094   8.139   5.600
 5080SOL    HW217074   9.125   8.070   5.732
 5081SOL     OW17075   8.079   1.622   6.324
 5081SOL    HW117076   7.991   1.587   6.308
 5081SOL    HW217077   8.137   1.550   6.299
 5082SOL     OW17078   3.122   1.901   8.771
 5082SOL    HW117079   3.051   1.877   8.711
 5082SOL    HW217080   3.161   1.817   8.797
 5083SOL     OW17081  11.343   8.336   1.361
 5083SOL    HW117082  11.378   8.334   1.450
 5083SOL    HW217083  11.337   8.245   1.335
 5084SOL     OW17084   2.797   0.415   3.089
 5084SOL    HW117085   2.713   0.394   3.131
 5084SOL    HW217086   2.825   0.497   3.129
 5085SOL     OW17087   1.918   9.911   9.312
 5085SOL    HW117088   2.006   9.927   9.277
 5085SOL    HW217089   1.906   9.816   9.306
 5086SOL     OW17090  14.414  11.441   3.086
 5086SOL    HW117091  14.461  11.493   3.151
 5086SOL    HW217092  14.465  11.450   3.006
 5087SOL     OW17093   3.180   5.742  10.238
 5087SOL    HW117094   3.276   5.743  10.232
 5087SOL    HW217095   3.155   5.832  10.215
 5088SOL     OW17096   0.788  10.997   1.551
 5088SOL    HW117097   0.734  11.048   1.491
 5088SOL    HW217098   0.813  10.919   1.501
 5089SOL     OW17099  13.029  13.054  13.562
 5089SOL    HW117100  13.102  13.108  13.532
 5089SOL    HW217101  13.016  13.080  13.653
 5090SOL     OW17102  12.335  13.250  10.696
 5090SOL    HW117103  12.368  13.163  10.673
 5090SOL    HW217104  12.352  13.304  10.619
 5091SOL     OW17105   6.231   7.622   1.699
 5091SOL    HW117106   6.295   7.557   1.728
 5091SOL    HW217107   6.184   7.579   1.627
 5092SOL     OW17108   2.219   2.170   3.933
 5092SOL    HW117109   2.129   2.135   3.930
 5092SOL    HW217110   2.273   2.097   3.904
 5093SOL     OW17111   5.846   1.023  12.702
 5093SOL    HW117112   5.828   0.989  12.789
 5093SOL    HW217113   5.941   1.010  12.691
 5094SOL     OW17114  10.060   7.858   2.316
 5094SOL    HW117115  10.011   7.934   2.347
 5094SOL    HW217116  10.065   7.800   2.392
 5095SOL     OW17117   7.334   1.979   3.676
 5095SOL    HW117118   7.376   2.052   3.631
 5095SOL    HW217119   7.281   2.020   3.745
 5096SOL     OW17120   9.268   1.948   2.819
 5096SOL    HW117121   9.247   2.036   2.787
 5096SOL    HW217122   9.264   1.893   2.741
 5097SOL     OW17123   9.439   3.713   2.064
 5097SOL    HW117124   9.382   3.768   2.011
 5097SOL    HW217125   9.473   3.648   2.003
 5098SOL     OW17126   6.902   4.677   6.283
 5098SOL    HW117127   6.946   4.601   6.244
 5098SOL    HW217128   6.895   4.656   6.376
 5099SOL     OW17129   9.742   1.422  10.973
 5099SOL    HW117130   9.764   1.396  10.884
 5099SOL    HW217131   9.739   1.340  11.023
 5100SOL     OW17132  10.923   6.969   4.422
 5100SOL    HW117133  10.899   6.932   4.337
 5100SOL    HW217134  11.018   6.979   4.418
 5101SOL     OW17135   0.607  10.869  12.804
 5101SOL    HW117136   0.651  10.906  12.880
 5101SOL    HW217137   0.673  10.868  12.735
 5102SOL     OW17138   5.172  11.130  14.043
 5102SOL    HW117139   5.262  11.120  14.012
 5102SOL    HW217140   5.175  11.107  14.136
 5103SOL     OW17141   0.327  12.380  14.247
 5103SOL    HW117142   0.240  12.345  14.268
 5103SOL    HW217143   0.322  12.402  14.154
 5104SOL     OW17144  11.958  10.266  14.230
 5104SOL    HW117145  12.000  10.184  14.208
 5104SOL    HW217146  11.926  10.301  14.147
 5105SOL     OW17147  14.336   5.140   1.983
 5105SOL    HW117148  14.363   5.072   1.922
 5105SOL    HW217149  14.389   5.216   1.960
 5106SOL     OW17150   7.071   5.764   1.375
 5106SOL    HW117151   7.143   5.712   1.340
 5106SOL    HW217152   7.049   5.723   1.459
 5107SOL     OW17153   4.252   7.661   3.701
 5107SOL    HW117154   4.267   7.711   3.781
 5107SOL    HW217155   4.183   7.709   3.655
 5108SOL     OW17156   6.188  14.330   3.117
 5108SOL    HW117157   6.102  14.297   3.090
 5108SOL    HW217158   6.173  14.422   3.139
 5109SOL     OW17159  11.629   1.978   4.623
 5109SOL    HW117160  11.635   1.884   4.605
 5109SOL    HW217161  11.682   2.020   4.556
 5110SOL     OW17162   5.714  14.372   5.998
 5110SOL    HW117163   5.717  14.309   5.926
 5110SOL    HW217164   5.719  14.458   5.956
 5111SOL     OW17165   6.307   6.924  13.745
 5111SOL    HW117166   6.355   6.963  13.818
 5111SOL    HW217167   6.374   6.879  13.693
 5112SOL     OW17168   1.994   7.235   7.142
 5112SOL    HW117169   1.964   7.262   7.229
 5112SOL    HW217170   2.084   7.266   7.137
 5113SOL     OW17171   4.962  14.610  12.519
 5113SOL    HW117172   5.021  14.546  12.558
 5113SOL    HW217173   4.996  14.695  12.547
 5114SOL     OW17174  13.382   1.152  12.245
 5114SOL    HW117175  13.287   1.145  12.256
 5114SOL    HW217176  13.393   1.233  12.194
 5115SOL     OW17177   7.168   7.415   3.103
 5115SOL    HW117178   7.138   7.326   3.089
 5115SOL    HW217179   7.255   7.406   3.142
 5116SOL     OW17180  12.639   6.007   3.350
 5116SOL    HW117181  12.691   6.072   3.396
 5116SOL    HW217182  12.595   5.958   3.420
 5117SOL     OW17183  10.613   9.871   9.346
 5117SOL    HW117184  10.597   9.791   9.396
 5117SOL    HW217185  10.536   9.925   9.363
 5118SOL     OW17186   4.680   2.303  12.377
 5118SOL    HW117187   4.697   2.209  12.375
 5118SOL    HW217188   4.689   2.330  12.286
 5119SOL     OW17189   6.780   5.830  10.691
 5119SOL    HW117190   6.762   5.743  10.655
 5119SOL    HW217191   6.864   5.820  10.736
 5120SOL     OW17192  11.940   7.130  11.487
 5120SOL    HW117193  11.888   7.137  11.567
 5120SOL    HW217194  11.875   7.117  11.417
 5121SOL     OW17195   6.685  11.340   4.708
 5121SOL    HW117196   6.610  11.315   4.761
 5121SOL    HW217197   6.682  11.283   4.631
 5122SOL     OW17198   3.893  14.404   4.055
 5122SOL    HW117199   3.800  14.405   4.033
 5122SOL    HW217200   3.905  14.321   4.102
 5123SOL     OW17201  11.190   1.459  14.792
 5123SOL    HW117202  11.098   1.482  14.794
 5123SOL    HW217203  11.230   1.526  14.736
 5124SOL     OW17204  11.745  13.279  14.509
 5124SOL    HW117205  11.651  13.288  14.525
 5124SOL    HW217206  11.784  13.354  14.554
 5125SOL     OW17207  13.482   5.150   6.910
 5125SOL    HW117208  13.437   5.082   6.861
 5125SOL    HW217209  13.412   5.208   6.941
 5126SOL     OW17210   7.130   2.737   0.925
 5126SOL    HW117211   7.086   2.821   0.935
 5126SOL    HW217212   7.219   2.759   0.898
 5127SOL     OW17213  10.254   0.315  10.233
 5127SOL    HW117214  10.283   0.235  10.189
 5127SOL    HW217215  10.301   0.385  10.187
 5128SOL     OW17216   2.680   3.645   1.485
 5128SOL    HW117217   2.590   3.678   1.483
 5128SOL    HW217218   2.705   3.650   1.578
 5129SOL     OW17219   0.610   0.224   8.206
 5129SOL    HW117220   0.675   0.173   8.157
 5129SOL    HW217221   0.534   0.228   8.148
 5130SOL     OW17222   2.796  12.550   1.359
 5130SOL    HW117223   2.721  12.547   1.300
 5130SOL    HW217224   2.760  12.577   1.444
 5131SOL     OW17225  11.120   6.977   0.009
 5131SOL    HW117226  11.052   7.040  14.858
 5131SOL    HW217227  11.144   6.999   0.099
 5132SOL     OW17228   4.426   5.762  14.047
 5132SOL    HW117229   4.464   5.790  13.963
 5132SOL    HW217230   4.395   5.673  14.030
 5133SOL     OW17231   2.547  14.568  10.219
 5133SOL    HW117232   2.538  14.583  10.313
 5133SOL    HW217233   2.606  14.493  10.212
 5134SOL     OW17234  13.525   8.658  11.895
 5134SOL    HW117235  13.513   8.563  11.899
 5134SOL    HW217236  13.576   8.672  11.815
 5135SOL     OW17237   1.497   3.806  10.402
 5135SOL    HW117238   1.551   3.875  10.440
 5135SOL    HW217239   1.519   3.806  10.309
 5136SOL     OW17240   0.797   8.988   6.774
 5136SOL    HW117241   0.816   9.079   6.799
 5136SOL    HW217242   0.876   8.959   6.729
 5137SOL     OW17243  14.226   0.115   7.148
 5137SOL    HW117244  14.294   0.080   7.090
 5137SOL    HW217245  14.254   0.091   7.236
 5138SOL     OW17246   4.152   8.782  10.959
 5138SOL    HW117247   4.089   8.815  11.023
 5138SOL    HW217248   4.237   8.809  10.994
 5139SOL     OW17249  11.224   6.450   9.018
 5139SOL    HW117250  11.207   6.522   9.079
 5139SOL    HW217251  11.317   6.459   8.996
 5140SOL     OW17252  10.708   4.573   9.784
 5140SOL    HW117253  10.706   4.485   9.747
 5140SOL    HW217254  10.696   4.559   9.878
 5141SOL     OW17255   8.686   5.149  10.081
 5141SOL    HW117256   8.765   5.200  10.061
 5141SOL    HW217257   8.690   5.074  10.022
 5142SOL     OW17258   8.311   1.631   4.359
 5142SOL    HW117259   8.387   1.574   4.350
 5142SOL    HW217260   8.242   1.588   4.308
 5143SOL     OW17261   7.773   3.258  13.228
 5143SOL    HW117262   7.860   3.229  13.254
 5143SOL    HW217263   7.783   3.351  13.210
 5144SOL     OW17264  12.855   1.448   5.795
 5144SOL    HW117265  12.918   1.397   5.845
 5144SOL    HW217266  12.897   1.463   5.711
 5145SOL     OW17267   4.421   7.000   2.012
 5145SOL    HW117268   4.365   7.076   1.994
 5145SOL    HW217269   4.481   6.996   1.937
 5146SOL     OW17270   1.057   8.391  13.180
 5146SOL    HW117271   1.001   8.390  13.102
 5146SOL    HW217272   1.076   8.299  13.197
 5147SOL     OW17273  10.838   8.844   8.124
 5147SOL    HW117274  10.923   8.860   8.083
 5147SOL    HW217275  10.784   8.917   8.094
 5148SOL     OW17276  10.169  10.997   8.829
 5148SOL    HW117277  10.076  10.979   8.815
 5148SOL    HW217278  10.175  11.022   8.921
 5149SOL     OW17279   8.590  10.582   4.940
 5149SOL    HW117280   8.544  10.571   5.023
 5149SOL    HW217281   8.657  10.514   4.940
 5150SOL     OW17282   6.722   4.357   6.802
 5150SOL    HW117283   6.687   4.286   6.855
 5150SOL    HW217284   6.816   4.359   6.822
 5151SOL     OW17285   7.918   5.094  10.433
 5151SOL    HW117286   7.951   5.010  10.466
 5151SOL    HW217287   7.846   5.070  10.375
 5152SOL     OW17288  11.285  12.802  13.998
 5152SOL    HW117289  11.287  12.884  13.950
 5152SOL    HW217290  11.308  12.735  13.934
 5153SOL     OW17291   2.769   9.428   8.814
 5153SOL    HW117292   2.781   9.520   8.841
 5153SOL    HW217293   2.674   9.417   8.810
 5154SOL     OW17294  14.014   1.410  12.350
 5154SOL    HW117295  13.929   1.376  12.321
 5154SOL    HW217296  14.072   1.394  12.275
 5155SOL     OW17297   1.080   7.830   6.168
 5155SOL    HW117298   1.024   7.757   6.139
 5155SOL    HW217299   1.169   7.797   6.157
 5156SOL     OW17300   7.616   1.651   0.429
 5156SOL    HW117301   7.697   1.616   0.393
 5156SOL    HW217302   7.643   1.730   0.477
 5157SOL     OW17303   7.158   0.641   2.258
 5157SOL    HW117304   7.217   0.666   2.187
 5157SOL    HW217305   7.117   0.560   2.228
 5158SOL     OW17306   8.005  11.157  12.601
 5158SOL    HW117307   8.085  11.129  12.646
 5158SOL    HW217308   7.979  11.237  12.646
 5159SOL     OW17309   8.020   6.874   7.592
 5159SOL    HW117310   8.100   6.914   7.558
 5159SOL    HW217311   7.951   6.937   7.570
 5160SOL     OW17312   6.983   4.267   1.962
 5160SOL    HW117313   7.058   4.289   2.017
 5160SOL    HW217314   6.976   4.172   1.970
 5161SOL     OW17315   0.259  12.406  11.944
 5161SOL    HW117316   0.213  12.349  11.882
 5161SOL    HW217317   0.303  12.346  12.004
 5162SOL     OW17318  12.110   7.893   3.325
 5162SOL    HW117319  12.110   7.969   3.267
 5162SOL    HW217320  12.149   7.925   3.406
 5163SOL     OW17321   5.173   3.913   7.339
 5163SOL    HW117322   5.188   3.877   7.251
 5163SOL    HW217323   5.130   3.997   7.323
 5164SOL     OW17324   6.499   3.814  14.748
 5164SOL    HW117325   6.406   3.798  14.730
 5164SOL    HW217326   6.529   3.868  14.674
 5165SOL     OW17327  14.423   8.262   4.089
 5165SOL    HW117328  14.453   8.289   4.002
 5165SOL    HW217329  14.351   8.321   4.109
 5166SOL     OW17330   0.876   1.771  13.683
 5166SOL    HW117331   0.953   1.823  13.705
 5166SOL    HW217332   0.872   1.704  13.751
 5167SOL     OW17333  14.802   8.265  12.070
 5167SOL    HW117334   0.024   8.266  12.056
 5167SOL    HW217335  14.786   8.181  12.113
 5168SOL     OW17336   5.459  11.164   6.223
 5168SOL    HW117337   5.387  11.146   6.163
 5168SOL    HW217338   5.445  11.255   6.249
 5169SOL     OW17339   6.980   6.158  12.295
 5169SOL    HW117340   6.913   6.195  12.352
 5169SOL    HW217341   7.053   6.139  12.354
 5170SOL     OW17342  11.114   1.367  12.911
 5170SOL    HW117343  11.188   1.372  12.849
 5170SOL    HW217344  11.052   1.308  12.869
 5171SOL     OW17345  12.608   0.654  14.707
 5171SOL    HW117346  12.615   0.562  14.684
 5171SOL    HW217347  12.541   0.658  14.775
 5172SOL     OW17348   3.607   3.975  11.275
 5172SOL    HW117349   3.678   4.034  11.250
 5172SOL    HW217350   3.562   4.020  11.347
 5173SOL     OW17351   8.896  14.285   0.508
 5173SOL    HW117352   8.921  14.194   0.527
 5173SOL    HW217353   8.893  14.327   0.594
 5174SOL     OW17354   2.934  10.728   4.917
 5174SOL    HW117355   3.003  10.724   4.850
 5174SOL    HW217356   2.941  10.816   4.953
 5175SOL     OW17357  10.936   3.735   3.434
 5175SOL    HW117358  10.949   3.795   3.360
 5175SOL    HW217359  10.842   3.718   3.435
 5176SOL     OW17360   7.364  12.294  12.787
 5176SOL    HW117361   7.283  12.244  12.792
 5176SOL    HW217362   7.428  12.232  12.752
 5177SOL     OW17363  14.259   4.628   5.830
 5177SOL    HW117364  14.235   4.691   5.763
 5177SOL    HW217365  14.318   4.676   5.889
 5178SOL     OW17366  11.064   9.199   9.001
 5178SOL    HW117367  11.017   9.194   8.918
 5178SOL    HW217368  11.002   9.168   9.066
 5179SOL     OW17369   1.179  10.306   6.926
 5179SOL    HW117370   1.265  10.282   6.961
 5179SOL    HW217371   1.168  10.248   6.850
 5180SOL     OW17372   3.666   8.126  10.386
 5180SOL    HW117373   3.648   8.089  10.299
 5180SOL    HW217374   3.701   8.052  10.436
 5181SOL     OW17375  10.881   3.341  12.342
 5181SOL    HW117376  10.955   3.281  12.340
 5181SOL    HW217377  10.872   3.365  12.434
 5182SOL     OW17378   1.945  14.042  10.435
 5182SOL    HW117379   1.943  14.047  10.340
 5182SOL    HW217380   1.978  14.128  10.463
 5183SOL     OW17381   2.679   0.151   0.268
 5183SOL    HW117382   2.670   0.058   0.289
 5183SOL    HW217383   2.769   0.172   0.292
 5184SOL     OW17384   1.970   8.527   5.757
 5184SOL    HW117385   1.904   8.562   5.697
 5184SOL    HW217386   2.039   8.492   5.699
 5185SOL     OW17387   2.336   2.722  12.184
 5185SOL    HW117388   2.353   2.713  12.278
 5185SOL    HW217389   2.267   2.787  12.178
 5186SOL     OW17390   5.038  12.613  12.230
 5186SOL    HW117391   5.064  12.560  12.305
 5186SOL    HW217392   5.088  12.577  12.156
 5187SOL     OW17393   3.825   1.446  13.252
 5187SOL    HW117394   3.911   1.432  13.290
 5187SOL    HW217395   3.777   1.365  13.270
 5188SOL     OW17396   4.545  13.426   7.960
 5188SOL    HW117397   4.556  13.336   7.930
 5188SOL    HW217398   4.634  13.458   7.972
 5189SOL     OW17399   6.589  14.296   1.606
 5189SOL    HW117400   6.522  14.230   1.625
 5189SOL    HW217401   6.668  14.264   1.649
 5190SOL     OW17402   4.305   7.130   6.624
 5190SOL    HW117403   4.336   7.063   6.685
 5190SOL    HW217404   4.261   7.194   6.680
 5191SOL     OW17405  11.140   9.003   3.731
 5191SOL    HW117406  11.217   8.948   3.743
 5191SOL    HW217407  11.071   8.959   3.781
 5192SOL     OW17408  10.949   1.086   5.426
 5192SOL    HW117409  10.933   1.014   5.486
 5192SOL    HW217410  10.874   1.144   5.438
 5193SOL     OW17411  12.734  10.154  14.590
 5193SOL    HW117412  12.692  10.129  14.508
 5193SOL    HW217413  12.810  10.096  14.596
 5194SOL     OW17414   0.251  12.634  14.567
 5194SOL    HW117415   0.277  12.542  14.570
 5194SOL    HW217416   0.158  12.631  14.543
 5195SOL     OW17417   9.486   8.891  10.842
 5195SOL    HW117418   9.498   8.838  10.921
 5195SOL    HW217419   9.438   8.834  10.782
 5196SOL     OW17420   6.021   9.266   8.767
 5196SOL    HW117421   5.944   9.289   8.819
 5196SOL    HW217422   5.989   9.265   8.676
 5197SOL     OW17423   2.293   8.490   4.548
 5197SOL    HW117424   2.238   8.535   4.612
 5197SOL    HW217425   2.283   8.398   4.568
 5198SOL     OW17426  13.149  11.784   7.180
 5198SOL    HW117427  13.243  11.790   7.167
 5198SOL    HW217428  13.127  11.861   7.233
 5199SOL     OW17429   7.655   3.212   0.727
 5199SOL    HW117430   7.596   3.207   0.803
 5199SOL    HW217431   7.736   3.247   0.762
 5200SOL     OW17432  13.563   7.770  12.097
 5200SOL    HW117433  13.653   7.738  12.101
 5200SOL    HW217434  13.510   7.691  12.100
 5201SOL     OW17435   1.862   5.559   5.474
 5201SOL    HW117436   1.770   5.558   5.445
 5201SOL    HW217437   1.909   5.598   5.400
 5202SOL     OW17438   1.648   9.900  13.013
 5202SOL    HW117439   1.717   9.834  13.026
 5202SOL    HW217440   1.681   9.978  13.059
 5203SOL     OW17441   0.166  13.928   7.044
 5203SOL    HW117442   0.088  13.956   7.092
 5203SOL    HW217443   0.203  13.857   7.096
 5204SOL     OW17444  10.630  14.261   1.925
 5204SOL    HW117445  10.689  14.220   1.988
 5204SOL    HW217446  10.543  14.227   1.949
 5205SOL     OW17447   0.533   7.160   2.484
 5205SOL    HW117448   0.528   7.147   2.389
 5205SOL    HW217449   0.455   7.212   2.505
 5206SOL     OW17450   0.858   8.327  11.258
 5206SOL    HW117451   0.812   8.371  11.186
 5206SOL    HW217452   0.929   8.279  11.216
 5207SOL     OW17453   3.892  12.586  12.739
 5207SOL    HW117454   3.909  12.628  12.823
 5207SOL    HW217455   3.836  12.511  12.761
 5208SOL     OW17456  14.183   0.815  13.253
 5208SOL    HW117457  14.193   0.783  13.163
 5208SOL    HW217458  14.255   0.773  13.301
 5209SOL     OW17459   7.159  14.293   2.154
 5209SOL    HW117460   7.204  14.296   2.070
 5209SOL    HW217461   7.202  14.361   2.206
 5210SOL     OW17462   6.018   3.081   2.184
 5210SOL    HW117463   5.944   3.043   2.232
 5210SOL    HW217464   6.004   3.175   2.190
 5211SOL     OW17465   8.062   6.971  12.026
 5211SOL    HW117466   7.983   7.017  11.996
 5211SOL    HW217467   8.049   6.881  11.998
 5212SOL     OW17468   9.704   5.680   0.930
 5212SOL    HW117469   9.752   5.663   0.849
 5212SOL    HW217470   9.701   5.595   0.974
 5213SOL     OW17471   1.527  11.710   0.950
 5213SOL    HW117472   1.500  11.769   1.020
 5213SOL    HW217473   1.623  11.719   0.947
 5214SOL     OW17474   5.611   3.818   7.215
 5214SOL    HW117475   5.555   3.880   7.262
 5214SOL    HW217476   5.577   3.732   7.241
 5215SOL     OW17477   3.467  10.019   2.813
 5215SOL    HW117478   3.526  10.092   2.828
 5215SOL    HW217479   3.426  10.037   2.729
 5216SOL     OW17480   8.086  12.277   6.637
 5216SOL    HW117481   8.076  12.222   6.715
 5216SOL    HW217482   8.113  12.216   6.568
 5217SOL     OW17483   3.557   3.724   3.023
 5217SOL    HW117484   3.608   3.676   3.089
 5217SOL    HW217485   3.499   3.658   2.986
 5218SOL     OW17486   5.352   0.003  13.778
 5218SOL    HW117487   5.292  14.804  13.800
 5218SOL    HW217488   5.316   0.078  13.825
 5219SOL     OW17489  14.154   6.357   1.405
 5219SOL    HW117490  14.211   6.291   1.445
 5219SOL    HW217491  14.176   6.354   1.311
 5220SOL     OW17492   5.611   6.955   4.213
 5220SOL    HW117493   5.591   6.871   4.254
 5220SOL    HW217494   5.669   6.934   4.141
 5221SOL     OW17495  14.711   8.157  10.807
 5221SOL    HW117496  14.757   8.075  10.822
 5221SOL    HW217497  14.618   8.136  10.820
 5222SOL     OW17498   5.018  12.713   4.236
 5222SOL    HW117499   4.938  12.726   4.288
 5222SOL    HW217500   5.081  12.677   4.298
 5223SOL     OW17501  13.438   8.397  10.922
 5223SOL    HW117502  13.490   8.324  10.954
 5223SOL    HW217503  13.503   8.465  10.902
 5224SOL     OW17504   8.980   9.600   7.235
 5224SOL    HW117505   8.910   9.658   7.206
 5224SOL    HW217506   9.005   9.551   7.157
 5225SOL     OW17507  12.163   8.842  11.059
 5225SOL    HW117508  12.105   8.913  11.088
 5225SOL    HW217509  12.208   8.814  11.138
 5226SOL     OW17510   3.098   7.297  12.390
 5226SOL    HW117511   3.156   7.228  12.358
 5226SOL    HW217512   3.094   7.361  12.319
 5227SOL     OW17513  13.866  11.569  12.592
 5227SOL    HW117514  13.894  11.488  12.636
 5227SOL    HW217515  13.772  11.558  12.580
 5228SOL     OW17516   7.002   2.575   2.726
 5228SOL    HW117517   6.964   2.614   2.805
 5228SOL    HW217518   6.980   2.482   2.733
 5229SOL     OW17519   2.121   1.445   3.702
 5229SOL    HW117520   2.039   1.465   3.747
 5229SOL    HW217521   2.108   1.478   3.613
 5230SOL     OW17522  10.436   6.224   6.111
 5230SOL    HW117523  10.476   6.137   6.098
 5230SOL    HW217524  10.434   6.235   6.206
 5231SOL     OW17525   6.877  11.301   8.371
 5231SOL    HW117526   6.839  11.319   8.457
 5231SOL    HW217527   6.968  11.332   8.378
 5232SOL     OW17528  10.704   3.581   0.035
 5232SOL    HW117529  10.758   3.564  14.830
 5232SOL    HW217530  10.761   3.558   0.109
 5233SOL     OW17531  13.325  13.279   5.526
 5233SOL    HW117532  13.284  13.328   5.598
 5233SOL    HW217533  13.314  13.187   5.551
 5234SOL     OW17534  12.293  14.463   8.451
 5234SOL    HW117535  12.343  14.403   8.396
 5234SOL    HW217536  12.325  14.446   8.540
 5235SOL     OW17537  10.431   1.403   7.534
 5235SOL    HW117538  10.507   1.462   7.536
 5235SOL    HW217539  10.429   1.370   7.444
 5236SOL     OW17540   6.768   4.341   9.467
 5236SOL    HW117541   6.786   4.370   9.556
 5236SOL    HW217542   6.818   4.401   9.412
 5237SOL     OW17543   4.088   6.650   3.993
 5237SOL    HW117544   4.137   6.671   4.072
 5237SOL    HW217545   4.025   6.584   4.021
 5238SOL     OW17546   5.395  10.998   1.314
 5238SOL    HW117547   5.324  11.006   1.251
 5238SOL    HW217548   5.428  10.908   1.303
 5239SOL     OW17549   5.761   6.435   1.038
 5239SOL    HW117550   5.844   6.469   1.005
 5239SOL    HW217551   5.741   6.360   0.982
 5240SOL     OW17552  12.065   1.869   9.524
 5240SOL    HW117553  12.016   1.854   9.605
 5240SOL    HW217554  12.078   1.964   9.522
 5241SOL     OW17555   5.750  13.772  10.358
 5241SOL    HW117556   5.818  13.705  10.350
 5241SOL    HW217557   5.739  13.783  10.453
 5242SOL     OW17558  13.501   7.394   7.508
 5242SOL    HW117559  13.447   7.332   7.459
 5242SOL    HW217560  13.439   7.461   7.537
 5243SOL     OW17561  13.420   0.940   2.054
 5243SOL    HW117562  13.367   1.014   2.023
 5243SOL    HW217563  13.384   0.864   2.010
 5244SOL     OW17564   3.499  10.874   0.620
 5244SOL    HW117565   3.502  10.782   0.646
 5244SOL    HW217566   3.555  10.880   0.543
 5245SOL     OW17567  13.352  13.021   5.629
 5245SOL    HW117568  13.429  13.045   5.680
 5245SOL    HW217569  13.283  13.009   5.694
 5246SOL     OW17570   1.396  11.258   7.907
 5246SOL    HW117571   1.386  11.349   7.936
 5246SOL    HW217572   1.382  11.262   7.812
 5247SOL     OW17573   5.774  11.650  13.114
 5247SOL    HW117574   5.859  11.631  13.151
 5247SOL    HW217575   5.790  11.724  13.054
 5248SOL     OW17576  12.675   7.606   0.082
 5248SOL    HW117577  12.751   7.655   0.114
 5248SOL    HW217578  12.696   7.586  14.864
 5249SOL     OW17579   1.239   2.264   6.210
 5249SOL    HW117580   1.315   2.316   6.235
 5249SOL    HW217581   1.194   2.246   6.292
 5250SOL     OW17582  10.682  13.791   3.279
 5250SOL    HW117583  10.673  13.866   3.339
 5250SOL    HW217584  10.626  13.724   3.317
 5251SOL     OW17585   1.281   9.010   0.386
 5251SOL    HW117586   1.297   9.103   0.369
 5251SOL    HW217587   1.306   8.966   0.305
 5252SOL     OW17588  11.299   2.181  10.058
 5252SOL    HW117589  11.232   2.160  10.123
 5252SOL    HW217590  11.303   2.104  10.002
 5253SOL     OW17591   8.779   8.718  12.351
 5253SOL    HW117592   8.833   8.728  12.429
 5253SOL    HW217593   8.841   8.711  12.279
 5254SOL     OW17594   1.752  10.749   6.075
 5254SOL    HW117595   1.792  10.689   6.012
 5254SOL    HW217596   1.746  10.833   6.028
 5255SOL     OW17597   0.913   6.181  10.842
 5255SOL    HW117598   1.006   6.166  10.859
 5255SOL    HW217599   0.870   6.165  10.926
 5256SOL     OW17600   0.195   9.016   4.475
 5256SOL    HW117601   0.110   9.054   4.497
 5256SOL    HW217602   0.207   8.946   4.540
 5257SOL     OW17603   8.896   8.969  14.795
 5257SOL    HW117604   8.985   8.960  14.829
 5257SOL    HW217605   8.891   9.059  14.763
 5258SOL     OW17606  11.084  11.359   9.562
 5258SOL    HW117607  10.993  11.389   9.566
 5258SOL    HW217608  11.134  11.437   9.537
 5259SOL     OW17609  11.099  10.289  14.305
 5259SOL    HW117610  11.082  10.369  14.255
 5259SOL    HW217611  11.127  10.225  14.240
 5260SOL     OW17612  12.230   7.728   5.407
 5260SOL    HW117613  12.146   7.753   5.370
 5260SOL    HW217614  12.211   7.706   5.498
 5261SOL     OW17615   6.147   8.359   2.461
 5261SOL    HW117616   6.189   8.375   2.376
 5261SOL    HW217617   6.151   8.264   2.473
 5262SOL     OW17618   9.918  11.034   2.930
 5262SOL    HW117619   9.833  10.994   2.948
 5262SOL    HW217620   9.981  10.977   2.973
 5263SOL     OW17621   8.738  13.309  14.072
 5263SOL    HW117622   8.738  13.329  14.166
 5263SOL    HW217623   8.744  13.394  14.029
 5264SOL     OW17624   6.297  13.183  12.497
 5264SOL    HW117625   6.374  13.228  12.531
 5264SOL    HW217626   6.326  13.093  12.485
 5265SOL     OW17627   6.822   2.921   9.467
 5265SOL    HW117628   6.756   2.939   9.534
 5265SOL    HW217629   6.771   2.905   9.387
 5266SOL     OW17630   3.151  14.113   5.188
 5266SOL    HW117631   3.183  14.135   5.100
 5266SOL    HW217632   3.198  14.173   5.246
 5267SOL     OW17633   6.692   7.248  14.644
 5267SOL    HW117634   6.783   7.223  14.659
 5267SOL    HW217635   6.656   7.177  14.591
 5268SOL     OW17636   1.301   0.093   3.579
 5268SOL    HW117637   1.276   0.175   3.537
 5268SOL    HW217638   1.295   0.027   3.510
 5269SOL     OW17639   5.462  14.371  10.439
 5269SOL    HW117640   5.428  14.460  10.437
 5269SOL    HW217641   5.548  14.377  10.398
 5270SOL     OW17642  12.031  12.685   1.915
 5270SOL    HW117643  12.077  12.616   1.963
 5270SOL    HW217644  11.950  12.698   1.965
 5271SOL     OW17645   5.338   0.756   8.996
 5271SOL    HW117646   5.311   0.829   8.941
 5271SOL    HW217647   5.434   0.756   8.991
 5272SOL     OW17648   8.332   7.772   5.383
 5272SOL    HW117649   8.273   7.727   5.322
 5272SOL    HW217650   8.376   7.839   5.329
 5273SOL     OW17651  13.782   7.376   8.045
 5273SOL    HW117652  13.743   7.403   8.129
 5273SOL    HW217653  13.801   7.458   8.000
 5274SOL     OW17654  12.544   4.818  11.098
 5274SOL    HW117655  12.483   4.808  11.171
 5274SOL    HW217656  12.512   4.895  11.050
 5275SOL     OW17657  12.245   1.050   8.873
 5275SOL    HW117658  12.261   1.144   8.871
 5275SOL    HW217659  12.197   1.035   8.954
 5276SOL     OW17660   3.397   3.634   0.820
 5276SOL    HW117661   3.317   3.582   0.828
 5276SOL    HW217662   3.373   3.706   0.761
 5277SOL     OW17663   8.033   1.205   8.128
 5277SOL    HW117664   7.964   1.230   8.067
 5277SOL    HW217665   8.100   1.165   8.073
 5278SOL     OW17666  11.761   2.613   8.686
 5278SOL    HW117667  11.675   2.588   8.718
 5278SOL    HW217668  11.777   2.700   8.723
 5279SOL     OW17669   4.882  13.232   7.713
 5279SOL    HW117670   4.895  13.323   7.738
 5279SOL    HW217671   4.964  13.189   7.736
 5280SOL     OW17672   6.278  14.855   7.022
 5280SOL    HW117673   6.306   0.017   7.107
 5280SOL    HW217674   6.200   0.032   6.999
 5281SOL     OW17675  10.268   2.187   8.016
 5281SOL    HW117676  10.278   2.202   8.110
 5281SOL    HW217677  10.311   2.102   8.001
 5282SOL     OW17678   6.629  11.920   5.849
 5282SOL    HW117679   6.602  11.853   5.912
 5282SOL    HW217680   6.693  11.973   5.897
 5283SOL     OW17681   7.067  13.165  12.981
 5283SOL    HW117682   7.141  13.217  13.013
 5283SOL    HW217683   7.006  13.230  12.946
 5284SOL     OW17684  12.554   4.855   8.805
 5284SOL    HW117685  12.543   4.919   8.876
 5284SOL    HW217686  12.466   4.820   8.792
 5285SOL     OW17687   9.925  12.511   0.641
 5285SOL    HW117688   9.878  12.445   0.591
 5285SOL    HW217689   9.894  12.594   0.605
 5286SOL     OW17690   2.367   0.162   2.993
 5286SOL    HW117691   2.313   0.240   2.982
 5286SOL    HW217692   2.445   0.179   2.940
 5287SOL     OW17693  13.977   8.031   7.583
 5287SOL    HW117694  13.988   7.959   7.646
 5287SOL    HW217695  13.930   7.992   7.509
 5288SOL     OW17696   3.010  10.764  13.844
 5288SOL    HW117697   2.982  10.756  13.753
 5288SOL    HW217698   3.105  10.750  13.841
 5289SOL     OW17699   0.573  14.641  14.225
 5289SOL    HW117700   0.591  14.581  14.152
 5289SOL    HW217701   0.659  14.665  14.259
 5290SOL     OW17702   0.966   2.396  10.024
 5290SOL    HW117703   1.041   2.337  10.015
 5290SOL    HW217704   0.891   2.342   9.999
 5291SOL     OW17705   8.118   8.495  10.580
 5291SOL    HW117706   8.025   8.481  10.563
 5291SOL    HW217707   8.159   8.413  10.552
 5292SOL     OW17708   1.325   9.333   6.410
 5292SOL    HW117709   1.364   9.416   6.383
 5292SOL    HW217710   1.399   9.274   6.423
 5293SOL     OW17711   3.766   8.007  13.345
 5293SOL    HW117712   3.760   7.920  13.384
 5293SOL    HW217713   3.693   8.011  13.283
 5294SOL     OW17714   9.877   5.333  14.183
 5294SOL    HW117715   9.959   5.357  14.140
 5294SOL    HW217716   9.887   5.364  14.273
 5295SOL     OW17717  13.731  13.815  12.103
 5295SOL    HW117718  13.638  13.794  12.095
 5295SOL    HW217719  13.735  13.910  12.099
 5296SOL     OW17720   9.624   7.028   1.166
 5296SOL    HW117721   9.690   7.042   1.098
 5296SOL    HW217722   9.578   6.949   1.138
 5297SOL     OW17723   5.429   0.557  10.162
 5297SOL    HW117724   5.428   0.650  10.185
 5297SOL    HW217725   5.498   0.520  10.218
 5298SOL     OW17726  14.141   6.064   0.036
 5298SOL    HW117727  14.226   6.021   0.031
 5298SOL    HW217728  14.158   6.156   0.014
 5299SOL     OW17729   6.654  12.679   8.045
 5299SOL    HW117730   6.561  12.677   8.066
 5299SOL    HW217731   6.697  12.629   8.114
 5300SOL     OW17732   2.607   0.743   3.981
 5300SOL    HW117733   2.634   0.653   3.961
 5300SOL    HW217734   2.558   0.735   4.063
 5301SOL     OW17735  13.133  10.746  11.127
 5301SOL    HW117736  13.043  10.763  11.099
 5301SOL    HW217737  13.150  10.656  11.101
 5302SOL     OW17738  14.282   2.625   5.757
 5302SOL    HW117739  14.334   2.630   5.677
 5302SOL    HW217740  14.340   2.654   5.826
 5303SOL     OW17741  13.811  10.058   6.800
 5303SOL    HW117742  13.758  10.049   6.879
 5303SOL    HW217743  13.852   9.972   6.788
 5304SOL     OW17744  12.944  13.348   9.955
 5304SOL    HW117745  13.022  13.309   9.916
 5304SOL    HW217746  12.871  13.311   9.906
 5305SOL     OW17747  12.718   7.931  11.219
 5305SOL    HW117748  12.740   7.869  11.289
 5305SOL    HW217749  12.623   7.934  11.218
 5306SOL     OW17750   6.474   7.361   5.919
 5306SOL    HW117751   6.447   7.306   5.992
 5306SOL    HW217752   6.570   7.357   5.919
 5307SOL     OW17753   4.471   7.437   6.276
 5307SOL    HW117754   4.508   7.504   6.334
 5307SOL    HW217755   4.431   7.374   6.336
 5308SOL     OW17756  12.908   9.746  13.681
 5308SOL    HW117757  12.974   9.811  13.656
 5308SOL    HW217758  12.886   9.767  13.772
 5309SOL     OW17759   1.653   1.624   6.096
 5309SOL    HW117760   1.669   1.634   6.190
 5309SOL    HW217761   1.738   1.642   6.055
 5310SOL     OW17762   2.644  10.849  13.812
 5310SOL    HW117763   2.576  10.796  13.855
 5310SOL    HW217764   2.600  10.886  13.736
 5311SOL     OW17765  10.015  13.980   9.764
 5311SOL    HW117766  10.057  13.909   9.716
 5311SOL    HW217767   9.925  13.950   9.777
 5312SOL     OW17768   2.806  14.108  14.699
 5312SOL    HW117769   2.829  14.198  14.722
 5312SOL    HW217770   2.851  14.054  14.765
 5313SOL     OW17771   0.439   0.803  14.314
 5313SOL    HW117772   0.350   0.838  14.306
 5313SOL    HW217773   0.464   0.823  14.405
 5314SOL     OW17774   7.861  11.283  11.579
 5314SOL    HW117775   7.792  11.253  11.519
 5314SOL    HW217776   7.866  11.377  11.564
 5315SOL     OW17777   7.857   3.653  14.623
 5315SOL    HW117778   7.778   3.707  14.635
 5315SOL    HW217779   7.855   3.592  14.697
 5316SOL     OW17780   0.137  11.264   2.243
 5316SOL    HW117781   0.071  11.207   2.283
 5316SOL    HW217782   0.178  11.209   2.176
 5317SOL     OW17783   4.326  11.556   1.376
 5317SOL    HW117784   4.326  11.589   1.287
 5317SOL    HW217785   4.398  11.493   1.378
 5318SOL     OW17786  14.344  10.877  13.026
 5318SOL    HW117787  14.366  10.788  12.998
 5318SOL    HW217788  14.249  10.876  13.038
 5319SOL     OW17789  14.609  10.064   8.893
 5319SOL    HW117790  14.701  10.039   8.901
 5319SOL    HW217791  14.571  10.041   8.978
 5320SOL     OW17792   8.948  11.211   2.712
 5320SOL    HW117793   8.862  11.239   2.744
 5320SOL    HW217794   8.930  11.166   2.630
 5321SOL     OW17795   0.186   4.467  11.188
 5321SOL    HW117796   0.109   4.422  11.153
 5321SOL    HW217797   0.199   4.429  11.275
 5322SOL     OW17798  11.354   5.009   6.364
 5322SOL    HW117799  11.261   5.011   6.341
 5322SOL    HW217800  11.358   5.044   6.453
 5323SOL     OW17801   1.686   4.078  13.768
 5323SOL    HW117802   1.656   4.119  13.849
 5323SOL    HW217803   1.689   3.984  13.789
 5324SOL     OW17804  13.906   0.783   7.276
 5324SOL    HW117805  13.978   0.721   7.290
 5324SOL    HW217806  13.921   0.852   7.339
 5325SOL     OW17807  14.544  10.043   6.249
 5325SOL    HW117808  14.582  10.131   6.241
 5325SOL    HW217809  14.544  10.008   6.160
 5326SOL     OW17810   7.880  10.926   9.529
 5326SOL    HW117811   7.787  10.934   9.508
 5326SOL    HW217812   7.925  10.931   9.445
 5327SOL     OW17813   0.820  14.309   2.299
 5327SOL    HW117814   0.860  14.390   2.267
 5327SOL    HW217815   0.785  14.333   2.385
 5328SOL     OW17816   2.583   8.977   7.401
 5328SOL    HW117817   2.627   9.052   7.442
 5328SOL    HW217818   2.654   8.923   7.367
 5329SOL     OW17819   5.006   7.869  10.198
 5329SOL    HW117820   5.099   7.873  10.178
 5329SOL    HW217821   4.989   7.777  10.217
 5330SOL     OW17822  11.528   4.037   7.724
 5330SOL    HW117823  11.552   4.026   7.632
 5330SOL    HW217824  11.533   3.949   7.761
 5331SOL     OW17825   0.166   9.085   7.875
 5331SOL    HW117826   0.226   9.013   7.854
 5331SOL    HW217827   0.108   9.049   7.942
 5332SOL     OW17828   1.931   8.634   6.701
 5332SOL    HW117829   1.987   8.558   6.720
 5332SOL    HW217830   1.903   8.621   6.610
 5333SOL     OW17831   4.374  12.663   3.208
 5333SOL    HW117832   4.319  12.643   3.284
 5333SOL    HW217833   4.317  12.649   3.132
 5334SOL     OW17834  13.125   1.460   0.515
 5334SOL    HW117835  13.174   1.490   0.438
 5334SOL    HW217836  13.133   1.365   0.513
 5335SOL     OW17837  13.393   1.262   5.545
 5335SOL    HW117838  13.335   1.327   5.505
 5335SOL    HW217839  13.345   1.179   5.539
 5336SOL     OW17840   1.658   0.343   2.139
 5336SOL    HW117841   1.593   0.332   2.208
 5336SOL    HW217842   1.679   0.436   2.139
 5337SOL     OW17843   5.500  12.601  14.603
 5337SOL    HW117844   5.553  12.665  14.652
 5337SOL    HW217845   5.562  12.562  14.541
 5338SOL     OW17846   0.812  13.657  14.386
 5338SOL    HW117847   0.832  13.568  14.356
 5338SOL    HW217848   0.815  13.710  14.307
 5339SOL     OW17849   9.542  13.279   7.971
 5339SOL    HW117850   9.588  13.229   8.038
 5339SOL    HW217851   9.453  13.289   8.005
 5340SOL     OW17852  13.148   4.232  14.112
 5340SOL    HW117853  13.194   4.198  14.189
 5340SOL    HW217854  13.207   4.216  14.039
 5341SOL     OW17855   6.546  14.562  12.356
 5341SOL    HW117856   6.500  14.611  12.287
 5341SOL    HW217857   6.636  14.595  12.351
 5342SOL     OW17858   9.808   4.561   6.278
 5342SOL    HW117859   9.718   4.592   6.292
 5342SOL    HW217860   9.841   4.542   6.366
 5343SOL     OW17861   0.751   3.400   5.979
 5343SOL    HW117862   0.843   3.421   5.993
 5343SOL    HW217863   0.751   3.336   5.908
 5344SOL     OW17864  12.401   0.553  11.360
 5344SOL    HW117865  12.378   0.523  11.448
 5344SOL    HW217866  12.327   0.527  11.306
 5345SOL     OW17867  12.736   5.952  12.551
 5345SOL    HW117868  12.757   5.864  12.519
 5345SOL    HW217869  12.751   5.949  12.645
 5346SOL     OW17870   5.114   9.616  10.831
 5346SOL    HW117871   5.050   9.544  10.839
 5346SOL    HW217872   5.077   9.686  10.885
 5347SOL     OW17873   8.895   5.997  12.512
 5347SOL    HW117874   8.923   5.910  12.542
 5347SOL    HW217875   8.914   5.997  12.418
 5348SOL     OW17876  14.825  13.755   4.138
 5348SOL    HW117877   0.030  13.809   4.152
 5348SOL    HW217878  14.814  13.755   4.043
 5349SOL     OW17879   4.508   5.508  10.683
 5349SOL    HW117880   4.531   5.587  10.634
 5349SOL    HW217881   4.579   5.497  10.746
 5350SOL     OW17882   2.755   2.010   0.217
 5350SOL    HW117883   2.747   2.105   0.218
 5350SOL    HW217884   2.665   1.978   0.230
 5351SOL     OW17885  12.872  13.284   5.151
 5351SOL    HW117886  12.935  13.225   5.193
 5351SOL    HW217887  12.787  13.252   5.180
 5352SOL     OW17888   6.422  12.274   2.772
 5352SOL    HW117889   6.437  12.368   2.780
 5352SOL    HW217890   6.337  12.267   2.730
 5353SOL     OW17891  14.278   9.445   1.902
 5353SOL    HW117892  14.325   9.449   1.986
 5353SOL    HW217893  14.210   9.379   1.916
 5354SOL     OW17894  12.578   3.552  11.280
 5354SOL    HW117895  12.487   3.545  11.306
 5354SOL    HW217896  12.627   3.539  11.361
 5355SOL     OW17897   8.195  14.507  11.898
 5355SOL    HW117898   8.117  14.458  11.871
 5355SOL    HW217899   8.180  14.595  11.863
 5356SOL     OW17900  10.580   9.105   0.114
 5356SOL    HW117901  10.484   9.115   0.118
 5356SOL    HW217902  10.604   9.136   0.027
 5357SOL     OW17903   4.398   2.365  14.164
 5357SOL    HW117904   4.408   2.282  14.210
 5357SOL    HW217905   4.460   2.360  14.091
 5358SOL     OW17906   5.015  11.911   5.399
 5358SOL    HW117907   5.096  11.922   5.448
 5358SOL    HW217908   5.020  11.977   5.329
 5359SOL     OW17909  13.627  13.889  10.677
 5359SOL    HW117910  13.653  13.799  10.697
 5359SOL    HW217911  13.602  13.926  10.762
 5360SOL     OW17912   7.485  11.118   2.536
 5360SOL    HW117913   7.554  11.070   2.490
 5360SOL    HW217914   7.528  11.198   2.567
 5361SOL     OW17915   8.897  11.058   7.315
 5361SOL    HW117916   8.902  10.968   7.349
 5361SOL    HW217917   8.838  11.052   7.240
 5362SOL     OW17918  13.478   9.191   4.369
 5362SOL    HW117919  13.553   9.135   4.386
 5362SOL    HW217920  13.402   9.134   4.382
 5363SOL     OW17921   3.210   8.050   5.962
 5363SOL    HW117922   3.126   8.046   5.916
 5363SOL    HW217923   3.212   8.137   6.001
 5364SOL     OW17924   4.375   9.361  13.953
 5364SOL    HW117925   4.344   9.281  13.912
 5364SOL    HW217926   4.299   9.419  13.953
 5365SOL     OW17927  13.154   2.945   8.898
 5365SOL    HW117928  13.198   2.934   8.982
 5365SOL    HW217929  13.154   3.039   8.883
 5366SOL     OW17930   2.974   2.797   8.637
 5366SOL    HW117931   3.057   2.832   8.669
 5366SOL    HW217932   2.944   2.861   8.573
 5367SOL     OW17933   7.347   3.734   1.216
 5367SOL    HW117934   7.441   3.748   1.221
 5367SOL    HW217935   7.338   3.645   1.182
 5368SOL     OW17936  10.085   8.472   0.559
 5368SOL    HW117937  10.177   8.491   0.580
 5368SOL    HW217938  10.037   8.494   0.639
 5369SOL     OW17939   2.175   8.889   3.430
 5369SOL    HW117940   2.212   8.829   3.495
 5369SOL    HW217941   2.244   8.954   3.415
 5370SOL     OW17942   9.206   4.153   0.661
 5370SOL    HW117943   9.193   4.095   0.736
 5370SOL    HW217944   9.140   4.124   0.598
 5371SOL     OW17945  10.786   0.089   5.733
 5371SOL    HW117946  10.839   0.161   5.766
 5371SOL    HW217947  10.849   0.031   5.690
 5372SOL     OW17948   7.878   9.704  10.171
 5372SOL    HW117949   7.837   9.709  10.257
 5372SOL    HW217950   7.887   9.610  10.155
 5373SOL     OW17951   9.540   9.295   5.639
 5373SOL    HW117952   9.535   9.238   5.715
 5373SOL    HW217953   9.628   9.280   5.604
 5374SOL     OW17954   5.995  11.819   8.157
 5374SOL    HW117955   5.917  11.865   8.189
 5374SOL    HW217956   5.969  11.785   8.071
 5375SOL     OW17957   9.360   8.337   4.971
 5375SOL    HW117958   9.373   8.351   5.065
 5375SOL    HW217959   9.439   8.292   4.943
 5376SOL     OW17960  12.139  10.356  12.981
 5376SOL    HW117961  12.082  10.318  13.049
 5376SOL    HW217962  12.220  10.377  13.027
 5377SOL     OW17963   9.835  11.492  13.999
 5377SOL    HW117964   9.795  11.443  14.072
 5377SOL    HW217965   9.828  11.433  13.924
 5378SOL     OW17966   8.589   0.416   0.329
 5378SOL    HW117967   8.591   0.496   0.278
 5378SOL    HW217968   8.621   0.348   0.269
 5379SOL     OW17969  13.013   8.559   8.005
 5379SOL    HW117970  13.076   8.628   8.026
 5379SOL    HW217971  12.954   8.558   8.080
 5380SOL     OW17972   1.704   4.376   6.292
 5380SOL    HW117973   1.671   4.455   6.337
 5380SOL    HW217974   1.670   4.384   6.203
 5381SOL     OW17975   3.087  11.860  12.345
 5381SOL    HW117976   3.126  11.843  12.431
 5381SOL    HW217977   3.098  11.954  12.332
 5382SOL     OW17978   0.672   1.667   4.891
 5382SOL    HW117979   0.682   1.606   4.964
 5382SOL    HW217980   0.689   1.615   4.813
 5383SOL     OW17981   6.352   7.920   6.227
 5383SOL    HW117982   6.410   7.896   6.299
 5383SOL    HW217983   6.274   7.955   6.270
 5384SOL     OW17984  10.752   6.710   8.606
 5384SOL    HW117985  10.765   6.689   8.698
 5384SOL    HW217986  10.829   6.762   8.582
 5385SOL     OW17987  10.043   4.586   2.320
 5385SOL    HW117988  10.115   4.642   2.290
 5385SOL    HW217989  10.018   4.536   2.243
 5386SOL     OW17990  14.415   1.250  14.689
 5386SOL    HW117991  14.387   1.264  14.780
 5386SOL    HW217992  14.493   1.195  14.696
 5387SOL     OW17993  13.330  10.906   2.643
 5387SOL    HW117994  13.331  10.821   2.598
 5387SOL    HW217995  13.294  10.967   2.578
 5388SOL     OW17996   2.440   5.109   5.692
 5388SOL    HW117997   2.418   5.067   5.609
 5388SOL    HW217998   2.473   5.038   5.747
 5389SOL     OW17999   7.668   4.559  14.079
 5389SOL    HW118000   7.611   4.491  14.113
 5389SOL    HW218001   7.753   4.516  14.066
 5390SOL     OW18002   8.439  11.727   8.515
 5390SOL    HW118003   8.368  11.666   8.535
 5390SOL    HW218004   8.438  11.736   8.420
 5391SOL     OW18005  13.960  12.041   7.468
 5391SOL    HW118006  14.054  12.040   7.482
 5391SOL    HW218007  13.923  12.001   7.546
 5392SOL     OW18008   1.200   6.200  10.232
 5392SOL    HW118009   1.154   6.283  10.240
 5392SOL    HW218010   1.134   6.133  10.252
 5393SOL     OW18011   7.523   7.976   8.652
 5393SOL    HW118012   7.502   8.057   8.699
 5393SOL    HW218013   7.440   7.950   8.612
 5394SOL     OW18014   5.439  11.404   5.273
 5394SOL    HW118015   5.500  11.412   5.346
 5394SOL    HW218016   5.376  11.474   5.287
 5395SOL     OW18017   8.279   3.303  12.566
 5395SOL    HW118018   8.194   3.327  12.604
 5395SOL    HW218019   8.256   3.256  12.486
 5396SOL     OW18020   9.573   4.031   9.925
 5396SOL    HW118021   9.602   4.036   9.833
 5396SOL    HW218022   9.486   3.993   9.921
 5397SOL     OW18023   8.338   5.589  11.984
 5397SOL    HW118024   8.306   5.552  11.901
 5397SOL    HW218025   8.380   5.514  12.028
 5398SOL     OW18026  14.796  11.221  11.776
 5398SOL    HW118027   0.002  11.196  11.728
 5398SOL    HW218028  14.762  11.138  11.810
 5399SOL     OW18029   3.623   5.298   0.766
 5399SOL    HW118030   3.588   5.227   0.821
 5399SOL    HW218031   3.647   5.367   0.828
 5400SOL     OW18032  12.119  11.813  13.067
 5400SOL    HW118033  12.154  11.735  13.111
 5400SOL    HW218034  12.145  11.885  13.123
 5401SOL     OW18035   6.194  11.610  12.068
 5401SOL    HW118036   6.173  11.587  11.978
 5401SOL    HW218037   6.282  11.574  12.083
 5402SOL     OW18038   3.711  12.006   1.497
 5402SOL    HW118039   3.746  12.002   1.408
 5402SOL    HW218040   3.637  12.066   1.491
 5403SOL     OW18041  13.839   8.686   3.722
 5403SOL    HW118042  13.837   8.617   3.788
 5403SOL    HW218043  13.758   8.672   3.672
 5404SOL     OW18044   6.884   1.312   4.785
 5404SOL    HW118045   6.936   1.317   4.705
 5404SOL    HW218046   6.793   1.311   4.755
 5405SOL     OW18047  11.824  11.056  12.614
 5405SOL    HW118048  11.894  11.005  12.572
 5405SOL    HW218049  11.757  10.992  12.636
 5406SOL     OW18050  12.387  12.718   6.351
 5406SOL    HW118051  12.447  12.644   6.359
 5406SOL    HW218052  12.306  12.688   6.393
 5407SOL     OW18053  11.196   5.820  11.027
 5407SOL    HW118054  11.270   5.822  11.088
 5407SOL    HW218055  11.213   5.891  10.966
 5408SOL     OW18056   5.652  11.052   9.130
 5408SOL    HW118057   5.625  11.123   9.189
 5408SOL    HW218058   5.573  11.029   9.082
 5409SOL     OW18059  11.470   8.898   8.012
 5409SOL    HW118060  11.541   8.843   7.978
 5409SOL    HW218061  11.506   8.936   8.092
 5410SOL     OW18062  10.867  14.402  14.005
 5410SOL    HW118063  10.839  14.415  13.914
 5410SOL    HW218064  10.865  14.307  14.016
 5411SOL     OW18065  12.868   1.100  13.545
 5411SOL    HW118066  12.914   1.158  13.486
 5411SOL    HW218067  12.928   1.087  13.619
 5412SOL     OW18068   8.578  13.145   4.820
 5412SOL    HW118069   8.664  13.172   4.853
 5412SOL    HW218070   8.549  13.218   4.766
 5413SOL     OW18071   7.497   0.832  11.092
 5413SOL    HW118072   7.478   0.763  11.028
 5413SOL    HW218073   7.436   0.815  11.164
 5414SOL     OW18074   4.138  14.139  14.115
 5414SOL    HW118075   4.091  14.170  14.037
 5414SOL    HW218076   4.070  14.099  14.169
 5415SOL     OW18077   3.775  11.742   3.658
 5415SOL    HW118078   3.804  11.823   3.700
 5415SOL    HW218079   3.698  11.715   3.708
 5416SOL     OW18080   0.546   7.569   6.928
 5416SOL    HW118081   0.500   7.553   7.010
 5416SOL    HW218082   0.573   7.660   6.933
 5417SOL     OW18083   0.801  10.547  10.168
 5417SOL    HW118084   0.821  10.484  10.238
 5417SOL    HW218085   0.719  10.515  10.130
 5418SOL     OW18086   6.178   6.453  13.787
 5418SOL    HW118087   6.160   6.398  13.863
 5418SOL    HW218088   6.114   6.524  13.793
 5419SOL     OW18089   4.065  11.868   9.459
 5419SOL    HW118090   4.116  11.934   9.411
 5419SOL    HW218091   4.006  11.831   9.393
 5420SOL     OW18092  13.922  13.965  14.681
 5420SOL    HW118093  13.922  14.060  14.664
 5420SOL    HW218094  13.843  13.933  14.638
 5421SOL     OW18095  11.396   8.523  14.694
 5421SOL    HW118096  11.358   8.543  14.779
 5421SOL    HW218097  11.387   8.604  14.644
 5422SOL     OW18098  10.234   0.086   3.102
 5422SOL    HW118099  10.165   0.077   3.168
 5422SOL    HW218100  10.290   0.156   3.135
 5423SOL     OW18101   6.616   0.877   3.357
 5423SOL    HW118102   6.665   0.843   3.282
 5423SOL    HW218103   6.551   0.936   3.319
 5424SOL     OW18104   9.611   2.522   4.820
 5424SOL    HW118105   9.648   2.610   4.818
 5424SOL    HW218106   9.673   2.469   4.769
 5425SOL     OW18107   6.800   9.392   6.180
 5425SOL    HW118108   6.895   9.400   6.180
 5425SOL    HW218109   6.771   9.431   6.098
 5426SOL     OW18110   1.148  12.846   7.954
 5426SOL    HW118111   1.072  12.905   7.951
 5426SOL    HW218112   1.197  12.874   8.031
 5427SOL     OW18113   2.846   6.068  14.572
 5427SOL    HW118114   2.827   6.097  14.661
 5427SOL    HW218115   2.895   6.140  14.533
 5428SOL     OW18116   1.902   3.500  11.560
 5428SOL    HW118117   1.844   3.546  11.619
 5428SOL    HW218118   1.990   3.526  11.588
 5429SOL     OW18119   4.297   0.534   0.808
 5429SOL    HW118120   4.321   0.542   0.715
 5429SOL    HW218121   4.343   0.456   0.838
 5430SOL     OW18122  10.910   4.237   3.075
 5430SOL    HW118123  10.834   4.227   3.131
 5430SOL    HW218124  10.917   4.153   3.029
 5431SOL     OW18125   1.960   9.020   7.884
 5431SOL    HW118126   2.036   8.980   7.840
 5431SOL    HW218127   1.976   9.006   7.977
 5432SOL     OW18128   9.012   9.485   6.961
 5432SOL    HW118129   9.088   9.534   6.930
 5432SOL    HW218130   9.044   9.396   6.974
 5433SOL     OW18131   7.206   3.531   0.150
 5433SOL    HW118132   7.175   3.457   0.099
 5433SOL    HW218133   7.132   3.592   0.152
 5434SOL     OW18134   2.408   2.235  11.251
 5434SOL    HW118135   2.366   2.317  11.225
 5434SOL    HW218136   2.344   2.192  11.307
 5435SOL     OW18137   0.876   1.930   4.596
 5435SOL    HW118138   0.905   1.860   4.538
 5435SOL    HW218139   0.957   1.972   4.625
 5436SOL     OW18140  12.345   4.631   4.352
 5436SOL    HW118141  12.354   4.537   4.365
 5436SOL    HW218142  12.340   4.667   4.440
 5437SOL     OW18143   2.419  11.383   3.026
 5437SOL    HW118144   2.379  11.298   3.010
 5437SOL    HW218145   2.471  11.401   2.947
 5438SOL     OW18146  12.598   9.671   8.684
 5438SOL    HW118147  12.575   9.676   8.591
 5438SOL    HW218148  12.691   9.648   8.685
 5439SOL     OW18149  12.775  11.213  10.905
 5439SOL    HW118150  12.773  11.241  10.997
 5439SOL    HW218151  12.840  11.271  10.865
 5440SOL     OW18152   3.571   3.391  13.085
 5440SOL    HW118153   3.475   3.395  13.089
 5440SOL    HW218154   3.598   3.483  13.081
 5441SOL     OW18155   1.821  11.289  13.531
 5441SOL    HW118156   1.855  11.376  13.511
 5441SOL    HW218157   1.885  11.252  13.591
 5442SOL     OW18158   5.131  12.915  12.240
 5442SOL    HW118159   5.126  12.846  12.306
 5442SOL    HW218160   5.156  12.870  12.159
 5443SOL     OW18161  10.109   8.306  12.235
 5443SOL    HW118162  10.026   8.350  12.255
 5443SOL    HW218163  10.173   8.349  12.291
 5444SOL     OW18164   1.349  10.598   0.193
 5444SOL    HW118165   1.359  10.689   0.222
 5444SOL    HW218166   1.411  10.589   0.120
 5445SOL     OW18167   4.470  11.109   7.144
 5445SOL    HW118168   4.401  11.046   7.124
 5445SOL    HW218169   4.424  11.192   7.157
 5446SOL     OW18170  11.539   8.295   9.142
 5446SOL    HW118171  11.624   8.316   9.102
 5446SOL    HW218172  11.505   8.222   9.090
 5447SOL     OW18173   8.315  13.284   8.514
 5447SOL    HW118174   8.311  13.345   8.589
 5447SOL    HW218175   8.223  13.263   8.497
 5448SOL     OW18176  12.612   9.127   7.334
 5448SOL    HW118177  12.552   9.151   7.264
 5448SOL    HW218178  12.570   9.053   7.378
 5449SOL     OW18179  10.791   6.049   6.210
 5449SOL    HW118180  10.715   6.024   6.157
 5449SOL    HW218181  10.849   5.973   6.207
 5450SOL     OW18182  11.229   5.226   8.953
 5450SOL    HW118183  11.283   5.160   8.910
 5450SOL    HW218184  11.252   5.308   8.910
 5451SOL     OW18185  13.074  13.124   7.282
 5451SOL    HW118186  13.162  13.126   7.243
 5451SOL    HW218187  13.065  13.035   7.317
 5452SOL     OW18188   3.566   5.510  10.273
 5452SOL    HW118189   3.647   5.480  10.316
 5452SOL    HW218190   3.574   5.476  10.184
 5453SOL     OW18191  12.639   8.213  11.461
 5453SOL    HW118192  12.590   8.263  11.395
 5453SOL    HW218193  12.730   8.240  11.449
 5454SOL     OW18194   0.523   5.229   3.470
 5454SOL    HW118195   0.522   5.178   3.390
 5454SOL    HW218196   0.537   5.165   3.540
 5455SOL     OW18197   9.971  13.220   5.616
 5455SOL    HW118198   9.936  13.149   5.670
 5455SOL    HW218199   9.915  13.295   5.634
 5456SOL     OW18200   6.234  12.876   0.454
 5456SOL    HW118201   6.248  12.795   0.504
 5456SOL    HW218202   6.284  12.943   0.501
 5457SOL     OW18203   5.645   1.289  11.923
 5457SOL    HW118204   5.689   1.330  11.997
 5457SOL    HW218205   5.658   1.195  11.936
 5458SOL     OW18206  11.274   0.904   0.584
 5458SOL    HW118207  11.231   0.923   0.501
 5458SOL    HW218208  11.224   0.829   0.620
 5459SOL     OW18209   7.905   9.757   7.478
 5459SOL    HW118210   7.846   9.721   7.412
 5459SOL    HW218211   7.847   9.802   7.540
 5460SOL     OW18212   9.823   9.004   1.307
 5460SOL    HW118213   9.791   8.985   1.219
 5460SOL    HW218214   9.917   8.986   1.303
 5461SOL     OW18215   3.700   2.233   9.948
 5461SOL    HW118216   3.641   2.303   9.974
 5461SOL    HW218217   3.681   2.218   9.855
 5462SOL     OW18218  10.205   4.728   3.757
 5462SOL    HW118219  10.138   4.795   3.753
 5462SOL    HW218220  10.276   4.761   3.701
 5463SOL     OW18221   6.970   3.790  11.622
 5463SOL    HW118222   6.925   3.706  11.634
 5463SOL    HW218223   7.001   3.813  11.709
 5464SOL     OW18224   0.091  11.234   6.850
 5464SOL    HW118225   0.070  11.326   6.834
 5464SOL    HW218226   0.073  11.221   6.943
 5465SOL     OW18227   8.036  10.786   1.888
 5465SOL    HW118228   8.056  10.878   1.874
 5465SOL    HW218229   8.121  10.742   1.885
 5466SOL     OW18230  13.296  14.366   7.568
 5466SOL    HW118231  13.311  14.404   7.482
 5466SOL    HW218232  13.365  14.402   7.623
 5467SOL     OW18233   2.980  10.514   9.561
 5467SOL    HW118234   2.899  10.549   9.596
 5467SOL    HW218235   2.971  10.419   9.569
 5468SOL     OW18236   5.876   2.885   3.729
 5468SOL    HW118237   5.792   2.877   3.774
 5468SOL    HW218238   5.931   2.818   3.771
 5469SOL     OW18239  13.675  13.952  13.991
 5469SOL    HW118240  13.658  14.011  13.917
 5469SOL    HW218241  13.679  14.009  14.067
 5470SOL     OW18242   1.626   5.708  14.864
 5470SOL    HW118243   1.657   5.735  14.777
 5470SOL    HW218244   1.531   5.703  14.855
 5471SOL     OW18245   9.213   7.738   7.366
 5471SOL    HW118246   9.193   7.795   7.292
 5471SOL    HW218247   9.169   7.778   7.440
 5472SOL     OW18248  11.145   5.226   5.570
 5472SOL    HW118249  11.075   5.200   5.631
 5472SOL    HW218250  11.099   5.256   5.492
 5473SOL     OW18251   6.810   0.518  14.853
 5473SOL    HW118252   6.776   0.445  14.801
 5473SOL    HW218253   6.732   0.570   0.002
 5474SOL     OW18254  11.639   8.862  12.723
 5474SOL    HW118255  11.684   8.935  12.767
 5474SOL    HW218256  11.624   8.798  12.793
 5475SOL     OW18257  13.223   9.548   3.527
 5475SOL    HW118258  13.220   9.644   3.527
 5475SOL    HW218259  13.299   9.526   3.473
 5476SOL     OW18260   3.066   8.236  11.118
 5476SOL    HW118261   3.021   8.165  11.166
 5476SOL    HW218262   3.007   8.256  11.045
 5477SOL     OW18263   7.643   9.196   3.452
 5477SOL    HW118264   7.614   9.110   3.422
 5477SOL    HW218265   7.730   9.180   3.488
 5478SOL     OW18266  11.381   8.404  14.452
 5478SOL    HW118267  11.391   8.315  14.485
 5478SOL    HW218268  11.352   8.455  14.528
 5479SOL     OW18269   4.296  13.950  11.860
 5479SOL    HW118270   4.382  13.981  11.832
 5479SOL    HW218271   4.305  13.855  11.865
 5480SOL     OW18272   8.368  11.737  13.948
 5480SOL    HW118273   8.335  11.694  14.027
 5480SOL    HW218274   8.453  11.772  13.973
 5481SOL     OW18275   1.092  13.917   0.404
 5481SOL    HW118276   1.175  13.869   0.401
 5481SOL    HW218277   1.116  14.003   0.439
 5482SOL     OW18278  10.074   1.089   9.609
 5482SOL    HW118279  10.009   1.158   9.625
 5482SOL    HW218280  10.157   1.136   9.602
 5483SOL     OW18281   7.001   5.863   7.272
 5483SOL    HW118282   6.976   5.771   7.265
 5483SOL    HW218283   7.086   5.861   7.315
 5484SOL     OW18284   0.276  13.752   8.655
 5484SOL    HW118285   0.281  13.844   8.629
 5484SOL    HW218286   0.203  13.748   8.717
 5485SOL     OW18287   7.083   6.998   1.291
 5485SOL    HW118288   7.097   6.980   1.383
 5485SOL    HW218289   7.165   6.974   1.248
 5486SOL     OW18290  10.007   9.883   8.025
 5486SOL    HW118291   9.976   9.900   7.936
 5486SOL    HW218292   9.999   9.789   8.035
 5487SOL     OW18293   0.386   3.350   8.329
 5487SOL    HW118294   0.390   3.287   8.257
 5487SOL    HW218295   0.412   3.434   8.290
 5488SOL     OW18296   6.023   3.220   9.368
 5488SOL    HW118297   6.113   3.186   9.364
 5488SOL    HW218298   6.029   3.292   9.432
 5489SOL     OW18299   8.344   9.257   8.819
 5489SOL    HW118300   8.253   9.282   8.836
 5489SOL    HW218301   8.395   9.305   8.884
 5490SOL     OW18302   4.522   2.611  11.635
 5490SOL    HW118303   4.450   2.549  11.637
 5490SOL    HW218304   4.484   2.690  11.597
 5491SOL     OW18305   8.628  10.864   7.506
 5491SOL    HW118306   8.713  10.833   7.473
 5491SOL    HW218307   8.606  10.802   7.575
 5492SOL     OW18308   7.058  10.649   0.778
 5492SOL    HW118309   7.017  10.734   0.793
 5492SOL    HW218310   6.991  10.597   0.733
 5493SOL     OW18311  12.301   1.933  13.052
 5493SOL    HW118312  12.250   2.013  13.038
 5493SOL    HW218313  12.377   1.943  12.995
 5494SOL     OW18314   2.257   8.015  11.877
 5494SOL    HW118315   2.210   8.065  11.811
 5494SOL    HW218316   2.330   8.071  11.902
 5495SOL     OW18317  11.479   3.743   7.558
 5495SOL    HW118318  11.497   3.715   7.469
 5495SOL    HW218319  11.395   3.788   7.553
 5496SOL     OW18320  10.317   5.033  13.392
 5496SOL    HW118321  10.278   4.955  13.352
 5496SOL    HW218322  10.250   5.065  13.452
 5497SOL     OW18323  11.434   9.494   5.615
 5497SOL    HW118324  11.484   9.544   5.680
 5497SOL    HW218325  11.480   9.509   5.532
 5498SOL     OW18326  10.213   3.107   6.225
 5498SOL    HW118327  10.189   3.186   6.272
 5498SOL    HW218328  10.243   3.139   6.139
 5499SOL     OW18329  12.072  12.622   8.951
 5499SOL    HW118330  12.101  12.533   8.969
 5499SOL    HW218331  11.994  12.611   8.897
 5500SOL     OW18332   4.384   1.180   7.730
 5500SOL    HW118333   4.377   1.146   7.641
 5500SOL    HW218334   4.309   1.239   7.739
 5501SOL     OW18335   1.285  10.244   9.342
 5501SOL    HW118336   1.296  10.180   9.272
 5501SOL    HW218337   1.216  10.207   9.397
 5502SOL     OW18338   8.000   6.763   5.066
 5502SOL    HW118339   8.035   6.796   4.983
 5502SOL    HW218340   7.906   6.780   5.060
 5503SOL     OW18341  12.305   5.755   8.089
 5503SOL    HW118342  12.394   5.790   8.094
 5503SOL    HW218343  12.307   5.677   8.144
 5504SOL     OW18344  14.104  11.371  10.658
 5504SOL    HW118345  14.096  11.283  10.694
 5504SOL    HW218346  14.052  11.426  10.718
 5505SOL     OW18347   7.061   9.343  12.209
 5505SOL    HW118348   7.147   9.341  12.252
 5505SOL    HW218349   7.018   9.420  12.246
 5506SOL     OW18350   9.905   9.196  10.730
 5506SOL    HW118351   9.816   9.171  10.755
 5506SOL    HW218352   9.958   9.178  10.808
 5507SOL     OW18353  12.032   1.374   2.158
 5507SOL    HW118354  12.118   1.409   2.136
 5507SOL    HW218355  11.998   1.338   2.076
 5508SOL     OW18356  11.786  13.675  11.523
 5508SOL    HW118357  11.826  13.588  11.518
 5508SOL    HW218358  11.698  13.663  11.486
 5509SOL     OW18359   1.056   0.883   0.104
 5509SOL    HW118360   1.095   0.851   0.023
 5509SOL    HW218361   1.123   0.939   0.143
 5510SOL     OW18362   6.452   1.149  13.149
 5510SOL    HW118363   6.381   1.100  13.189
 5510SOL    HW218364   6.409   1.216  13.096
 5511SOL     OW18365   7.338  12.590   9.232
 5511SOL    HW118366   7.371  12.507   9.266
 5511SOL    HW218367   7.371  12.656   9.293
 5512SOL     OW18368   6.280  12.369  13.654
 5512SOL    HW118369   6.314  12.413  13.576
 5512SOL    HW218370   6.222  12.301  13.620
 5513SOL     OW18371   9.563  11.230  14.512
 5513SOL    HW118372   9.604  11.183  14.440
 5513SOL    HW218373   9.632  11.286  14.548
 5514SOL     OW18374  14.167  13.279   7.736
 5514SOL    HW118375  14.132  13.258   7.650
 5514SOL    HW218376  14.092  13.271   7.795
 5515SOL     OW18377  14.814   8.026  12.209
 5515SOL    HW118378  14.859   8.036  12.125
 5515SOL    HW218379  14.766   7.944  12.200
 5516SOL     OW18380   0.521  13.619   0.943
 5516SOL    HW118381   0.608  13.631   0.906
 5516SOL    HW218382   0.482  13.707   0.944
 5517SOL     OW18383   6.651   7.575   3.402
 5517SOL    HW118384   6.572   7.535   3.364
 5517SOL    HW218385   6.724   7.533   3.357
 5518SOL     OW18386   3.351   1.403   8.970
 5518SOL    HW118387   3.267   1.449   8.975
 5518SOL    HW218388   3.337   1.323   9.021
 5519SOL     OW18389   1.192   6.988   4.772
 5519SOL    HW118390   1.257   6.923   4.798
 5519SOL    HW218391   1.237   7.072   4.785
 5520SOL     OW18392   3.212  12.746  10.814
 5520SOL    HW118393   3.299  12.780  10.791
 5520SOL    HW218394   3.187  12.798  10.891
 5521SOL     OW18395  14.547  11.178  13.807
 5521SOL    HW118396  14.464  11.131  13.812
 5521SOL    HW218397  14.556  11.221  13.891
 5522SOL     OW18398   5.376  11.664   6.905
 5522SOL    HW118399   5.358  11.727   6.974
 5522SOL    HW218400   5.386  11.580   6.950
 5523SOL     OW18401   8.734   3.872  13.829
 5523SOL    HW118402   8.815   3.923  13.838
 5523SOL    HW218403   8.671   3.917  13.884
 5524SOL     OW18404  14.496   5.102   3.198
 5524SOL    HW118405  14.438   5.045   3.248
 5524SOL    HW218406  14.533   5.162   3.263
 5525SOL     OW18407   2.046  14.381   5.423
 5525SOL    HW118408   2.010  14.469   5.434
 5525SOL    HW218409   1.985  14.324   5.469
 5526SOL     OW18410   7.758  12.868   1.020
 5526SOL    HW118411   7.850  12.841   1.024
 5526SOL    HW218412   7.762  12.964   1.013
 5527SOL     OW18413   5.988   7.114   1.660
 5527SOL    HW118414   5.988   7.144   1.751
 5527SOL    HW218415   5.964   7.021   1.666
 5528SOL     OW18416   5.826   0.855  13.739
 5528SOL    HW118417   5.816   0.929  13.799
 5528SOL    HW218418   5.767   0.875  13.667
 5529SOL     OW18419  12.288   2.530  13.500
 5529SOL    HW118420  12.382   2.541  13.515
 5529SOL    HW218421  12.249   2.610  13.535
 5530SOL     OW18422   4.920   9.312   5.799
 5530SOL    HW118423   4.967   9.256   5.737
 5530SOL    HW218424   4.828   9.291   5.785
 5531SOL     OW18425   6.195   6.827   4.316
 5531SOL    HW118426   6.208   6.777   4.397
 5531SOL    HW218427   6.208   6.918   4.341
 5532SOL     OW18428  13.156   2.493  13.747
 5532SOL    HW118429  13.231   2.444  13.781
 5532SOL    HW218430  13.194   2.563  13.695
 5533SOL     OW18431  12.655   3.259   6.824
 5533SOL    HW118432  12.654   3.200   6.749
 5533SOL    HW218433  12.598   3.331   6.799
 5534SOL     OW18434   4.277   6.656  14.790
 5534SOL    HW118435   4.216   6.588  14.762
 5534SOL    HW218436   4.274   6.653   0.013
 5535SOL     OW18437   3.882   8.477   1.207
 5535SOL    HW118438   3.831   8.397   1.195
 5535SOL    HW218439   3.852   8.535   1.137
 5536SOL     OW18440  11.014  12.920   4.669
 5536SOL    HW118441  10.935  12.959   4.707
 5536SOL    HW218442  11.076  12.918   4.742
 5537SOL     OW18443   0.500  12.133  10.012
 5537SOL    HW118444   0.455  12.217  10.000
 5537SOL    HW218445   0.584  12.156  10.052
 5538SOL     OW18446  13.471   5.824   4.419
 5538SOL    HW118447  13.432   5.845   4.505
 5538SOL    HW218448  13.499   5.733   4.427
 5539SOL     OW18449  14.215   0.229   5.996
 5539SOL    HW118450  14.154   0.182   6.053
 5539SOL    HW218451  14.230   0.312   6.041
 5540SOL     OW18452   3.005   3.531  14.369
 5540SOL    HW118453   2.982   3.475  14.442
 5540SOL    HW218454   2.937   3.514  14.303
 5541SOL     OW18455   3.301   2.634   4.328
 5541SOL    HW118456   3.216   2.624   4.286
 5541SOL    HW218457   3.316   2.728   4.331
 5542SOL     OW18458  11.344   4.708  12.963
 5542SOL    HW118459  11.334   4.781  12.903
 5542SOL    HW218460  11.413   4.653  12.924
 5543SOL     OW18461  12.042  11.243  14.008
 5543SOL    HW118462  12.116  11.202  14.052
 5543SOL    HW218463  12.002  11.299  14.074
 5544SOL     OW18464   9.711  10.198   5.997
 5544SOL    HW118465   9.792  10.216   5.949
 5544SOL    HW218466   9.666  10.133   5.944
 5545SOL     OW18467   9.321  14.771  13.424
 5545SOL    HW118468   9.329  14.676  13.419
 5545SOL    HW218469   9.313  14.799  13.333
 5546SOL     OW18470  12.438  10.965   4.898
 5546SOL    HW118471  12.533  10.961   4.886
 5546SOL    HW218472  12.405  10.891   4.847
 5547SOL     OW18473  12.430   9.170  10.268
 5547SOL    HW118474  12.484   9.090  10.264
 5547SOL    HW218475  12.494   9.241  10.270
 5548SOL     OW18476  11.533  10.769  14.461
 5548SOL    HW118477  11.484  10.691  14.485
 5548SOL    HW218478  11.561  10.807  14.545
 5549SOL     OW18479   6.665   9.448   8.100
 5549SOL    HW118480   6.708   9.395   8.167
 5549SOL    HW218481   6.732   9.461   8.033
 5550SOL     OW18482   0.628  13.247  14.356
 5550SOL    HW118483   0.703  13.202  14.395
 5550SOL    HW218484   0.553  13.193  14.379
 5551SOL     OW18485  14.544  14.372   2.844
 5551SOL    HW118486  14.555  14.287   2.886
 5551SOL    HW218487  14.534  14.352   2.751
 5552SOL     OW18488   9.641   3.621   1.394
 5552SOL    HW118489   9.674   3.628   1.483
 5552SOL    HW218490   9.625   3.527   1.382
 5553SOL     OW18491   7.815   8.523  11.716
 5553SOL    HW118492   7.864   8.508  11.635
 5553SOL    HW218493   7.772   8.440  11.735
 5554SOL     OW18494  12.386  12.083   1.874
 5554SOL    HW118495  12.464  12.096   1.820
 5554SOL    HW218496  12.322  12.143   1.838
 5555SOL     OW18497   5.471   6.858  12.778
 5555SOL    HW118498   5.466   6.838  12.871
 5555SOL    HW218499   5.511   6.944  12.774
 5556SOL     OW18500  13.408  11.270  11.111
 5556SOL    HW118501  13.357  11.225  11.044
 5556SOL    HW218502  13.492  11.288  11.069
 5557SOL     OW18503   8.922   5.034   2.883
 5557SOL    HW118504   8.937   5.126   2.908
 5557SOL    HW218505   8.978   4.984   2.942
 5558SOL     OW18506  12.819   1.631  14.429
 5558SOL    HW118507  12.841   1.723  14.443
 5558SOL    HW218508  12.851   1.587  14.507
 5559SOL     OW18509   3.401  13.963   7.296
 5559SOL    HW118510   3.370  13.911   7.222
 5559SOL    HW218511   3.496  13.952   7.295
 5560SOL     OW18512   3.819   7.810   9.910
 5560SOL    HW118513   3.736   7.833   9.869
 5560SOL    HW218514   3.852   7.893   9.944
 5561SOL     OW18515   5.355   5.984   1.390
 5561SOL    HW118516   5.269   5.991   1.348
 5561SOL    HW218517   5.336   5.984   1.483
 5562SOL     OW18518   5.083  12.930   2.711
 5562SOL    HW118519   5.088  12.919   2.616
 5562SOL    HW218520   5.146  12.999   2.730
 5563SOL     OW18521   9.098  14.053   4.847
 5563SOL    HW118522   9.069  14.089   4.764
 5563SOL    HW218523   9.027  13.995   4.875
 5564SOL     OW18524  10.308   9.689  13.201
 5564SOL    HW118525  10.323   9.597  13.179
 5564SOL    HW218526  10.392   9.719  13.236
 5565SOL     OW18527  13.049   5.406   3.301
 5565SOL    HW118528  13.017   5.495   3.290
 5565SOL    HW218529  13.139   5.408   3.270
 5566SOL     OW18530   0.678  12.149   3.905
 5566SOL    HW118531   0.619  12.074   3.914
 5566SOL    HW218532   0.620  12.225   3.896
 5567SOL     OW18533   1.229   8.177  11.382
 5567SOL    HW118534   1.152   8.234  11.380
 5567SOL    HW218535   1.285   8.210  11.312
 5568SOL     OW18536  10.842   1.157   2.001
 5568SOL    HW118537  10.825   1.192   2.088
 5568SOL    HW218538  10.826   1.063   2.009
 5569SOL     OW18539   2.177   8.198   4.622
 5569SOL    HW118540   2.248   8.148   4.580
 5569SOL    HW218541   2.118   8.219   4.549
 5570SOL     OW18542   3.424  10.398  11.473
 5570SOL    HW118543   3.435  10.351  11.556
 5570SOL    HW218544   3.512  10.426  11.449
 5571SOL     OW18545   4.033  10.431   9.816
 5571SOL    HW118546   4.106  10.375   9.843
 5571SOL    HW218547   3.965  10.415   9.881
 5572SOL     OW18548   7.955   8.803  11.590
 5572SOL    HW118549   7.926   8.713  11.577
 5572SOL    HW218550   7.929   8.824  11.679
 5573SOL     OW18551  12.872  12.096  14.401
 5573SOL    HW118552  12.853  12.138  14.484
 5573SOL    HW218553  12.802  12.123  14.343
 5574SOL     OW18554   3.662   7.139   5.635
 5574SOL    HW118555   3.710   7.110   5.712
 5574SOL    HW218556   3.724   7.132   5.563
 5575SOL     OW18557   4.101   2.689   5.538
 5575SOL    HW118558   4.027   2.641   5.501
 5575SOL    HW218559   4.121   2.757   5.473
 5576SOL     OW18560   2.096   9.998  12.571
 5576SOL    HW118561   2.066   9.907  12.573
 5576SOL    HW218562   2.020  10.050  12.598
 5577SOL     OW18563   7.088  13.642  11.181
 5577SOL    HW118564   7.165  13.587  11.194
 5577SOL    HW218565   7.063  13.628  11.090
 5578SOL     OW18566  14.447   0.430  12.977
 5578SOL    HW118567  14.476   0.406  13.065
 5578SOL    HW218568  14.406   0.350  12.943
 5579SOL     OW18569   4.031  14.495   4.314
 5579SOL    HW118570   3.988  14.459   4.236
 5579SOL    HW218571   4.124  14.492   4.293
 5580SOL     OW18572   6.636  10.277  10.745
 5580SOL    HW118573   6.573  10.337  10.706
 5580SOL    HW218574   6.614  10.192  10.707
 5581SOL     OW18575  10.056   9.810   9.923
 5581SOL    HW118576  10.070   9.870   9.849
 5581SOL    HW218577  10.140   9.765   9.934
 5582SOL     OW18578  10.110  11.555   2.792
 5582SOL    HW118579  10.175  11.555   2.862
 5582SOL    HW218580  10.047  11.622   2.817
 5583SOL     OW18581  13.405  10.767  11.822
 5583SOL    HW118582  13.463  10.739  11.751
 5583SOL    HW218583  13.390  10.688  11.873
 5584SOL     OW18584   0.914   2.536   5.746
 5584SOL    HW118585   0.969   2.463   5.773
 5584SOL    HW218586   0.973   2.612   5.745
 5585SOL     OW18587  14.662  11.859   1.746
 5585SOL    HW118588  14.632  11.911   1.671
 5585SOL    HW218589  14.726  11.798   1.709
 5586SOL     OW18590   7.209   4.180   0.563
 5586SOL    HW118591   7.131   4.218   0.603
 5586SOL    HW218592   7.280   4.204   0.622
 5587SOL     OW18593   6.089   2.156   1.965
 5587SOL    HW118594   6.155   2.150   2.035
 5587SOL    HW218595   6.138   2.140   1.884
 5588SOL     OW18596   9.290   7.871  10.474
 5588SOL    HW118597   9.206   7.917  10.473
 5588SOL    HW218598   9.266   7.778  10.479
 5589SOL     OW18599   3.378   0.850   2.211
 5589SOL    HW118600   3.454   0.877   2.160
 5589SOL    HW218601   3.402   0.869   2.302
 5590SOL     OW18602   8.668   7.981  11.421
 5590SOL    HW118603   8.711   7.956  11.339
 5590SOL    HW218604   8.581   8.010  11.394
 5591SOL     OW18605   5.734  12.490   8.064
 5591SOL    HW118606   5.654  12.501   8.013
 5591SOL    HW218607   5.703  12.476   8.154
 5592SOL     OW18608  13.001  13.413   1.077
 5592SOL    HW118609  12.953  13.422   1.159
 5592SOL    HW218610  12.953  13.346   1.029
 5593SOL     OW18611   6.869  12.900   3.450
 5593SOL    HW118612   6.827  12.963   3.392
 5593SOL    HW218613   6.819  12.904   3.531
 5594SOL     OW18614   7.655   7.710   6.983
 5594SOL    HW118615   7.560   7.704   6.971
 5594SOL    HW218616   7.670   7.682   7.073
 5595SOL     OW18617   5.820   1.295  10.116
 5595SOL    HW118618   5.842   1.259  10.202
 5595SOL    HW218619   5.730   1.267  10.101
 5596SOL     OW18620  14.277  11.910  14.062
 5596SOL    HW118621  14.327  11.855  14.002
 5596SOL    HW218622  14.222  11.850  14.111
 5597SOL     OW18623  13.648  11.491   4.206
 5597SOL    HW118624  13.583  11.422   4.192
 5597SOL    HW218625  13.657  11.497   4.301
 5598SOL     OW18626   8.159  10.753   7.559
 5598SOL    HW118627   8.112  10.729   7.639
 5598SOL    HW218628   8.192  10.670   7.525
 5599SOL     OW18629   4.649   0.264   9.453
 5599SOL    HW118630   4.619   0.327   9.388
 5599SOL    HW218631   4.625   0.179   9.416
 5600SOL     OW18632   3.211   1.266   4.077
 5600SOL    HW118633   3.217   1.273   4.172
 5600SOL    HW218634   3.297   1.295   4.045
 5601SOL     OW18635   7.779   7.542  14.847
 5601SOL    HW118636   7.766   7.609   0.042
 5601SOL    HW218637   7.808   7.592  14.771
 5602SOL     OW18638   6.328  12.555  14.105
 5602SOL    HW118639   6.247  12.586  14.064
 5602SOL    HW218640   6.313  12.564  14.199
 5603SOL     OW18641   0.339   1.369   6.704
 5603SOL    HW118642   0.352   1.436   6.771
 5603SOL    HW218643   0.416   1.313   6.711
 5604SOL     OW18644   5.231   7.962  10.555
 5604SOL    HW118645   5.234   7.912  10.636
 5604SOL    HW218646   5.274   7.906  10.490
 5605SOL     OW18647  11.154   3.110   4.511
 5605SOL    HW118648  11.140   3.143   4.423
 5605SOL    HW218649  11.249   3.099   4.518
 5606SOL     OW18650   8.731   6.372   9.075
 5606SOL    HW118651   8.755   6.348   8.985
 5606SOL    HW218652   8.758   6.296   9.127
 5607SOL     OW18653  13.771   6.503  11.212
 5607SOL    HW118654  13.827   6.515  11.288
 5607SOL    HW218655  13.685   6.536  11.241
 5608SOL     OW18656   6.943   9.052   5.091
 5608SOL    HW118657   6.919   8.976   5.144
 5608SOL    HW218658   6.865   9.106   5.089
 5609SOL     OW18659   4.413   6.152   3.003
 5609SOL    HW118660   4.346   6.096   3.043
 5609SOL    HW218661   4.447   6.101   2.930
 5610SOL     OW18662   0.111   1.633   5.813
 5610SOL    HW118663   0.092   1.580   5.736
 5610SOL    HW218664   0.207   1.632   5.820
 5611SOL     OW18665  13.480   5.446   3.513
 5611SOL    HW118666  13.387   5.426   3.519
 5611SOL    HW218667  13.494   5.470   3.422
 5612SOL     OW18668   7.640   2.256   1.523
 5612SOL    HW118669   7.604   2.325   1.468
 5612SOL    HW218670   7.621   2.284   1.613
 5613SOL     OW18671   1.186   6.008   2.207
 5613SOL    HW118672   1.261   5.948   2.207
 5613SOL    HW218673   1.199   6.063   2.284
 5614SOL     OW18674  13.949   1.278   7.667
 5614SOL    HW118675  13.887   1.279   7.740
 5614SOL    HW218676  13.895   1.253   7.591
 5615SOL     OW18677   7.050   0.017   3.005
 5615SOL    HW118678   6.965   0.056   2.985
 5615SOL    HW218679   7.114   0.080   2.972
 5616SOL     OW18680   9.566   4.648   1.782
 5616SOL    HW118681   9.495   4.647   1.717
 5616SOL    HW218682   9.594   4.739   1.786
 5617SOL     OW18683   2.003   4.376  12.905
 5617SOL    HW118684   1.984   4.394  12.813
 5617SOL    HW218685   2.087   4.418  12.921
 5618SOL     OW18686   4.953   9.983  12.789
 5618SOL    HW118687   4.872   9.936  12.768
 5618SOL    HW218688   4.949   9.997  12.884
 5619SOL     OW18689   2.965  11.181  12.201
 5619SOL    HW118690   2.967  11.106  12.142
 5619SOL    HW218691   3.054  11.187  12.235
 5620SOL     OW18692   6.857   3.988   7.486
 5620SOL    HW118693   6.880   4.073   7.524
 5620SOL    HW218694   6.829   3.935   7.560
 5621SOL     OW18695   5.558  11.478  13.052
 5621SOL    HW118696   5.626  11.543  13.067
 5621SOL    HW218697   5.486  11.528  13.013
 5622SOL     OW18698   8.114   7.389  12.473
 5622SOL    HW118699   8.141   7.479  12.491
 5622SOL    HW218700   8.019   7.390  12.483
 5623SOL     OW18701   9.027   0.128  13.625
 5623SOL    HW118702   9.057   0.210  13.586
 5623SOL    HW218703   8.974   0.087  13.557
 5624SOL     OW18704   5.530   5.855   1.731
 5624SOL    HW118705   5.595   5.898   1.676
 5624SOL    HW218706   5.573   5.844   1.815
 5625SOL     OW18707   8.617  10.694   5.416
 5625SOL    HW118708   8.579  10.781   5.433
 5625SOL    HW218709   8.585  10.639   5.487
 5626SOL     OW18710  12.744  14.020   7.223
 5626SOL    HW118711  12.820  14.035   7.279
 5626SOL    HW218712  12.718  14.107   7.193
 5627SOL     OW18713   3.080  11.641   5.066
 5627SOL    HW118714   3.008  11.682   5.017
 5627SOL    HW218715   3.159  11.676   5.026
 5628SOL     OW18716   5.441   4.395  12.732
 5628SOL    HW118717   5.400   4.335  12.669
 5628SOL    HW218718   5.436   4.349  12.816
 5629SOL     OW18719   6.879  11.704   1.872
 5629SOL    HW118720   6.805  11.700   1.933
 5629SOL    HW218721   6.905  11.613   1.860
 5630SOL     OW18722   2.301   0.159   0.924
 5630SOL    HW118723   2.232   0.213   0.961
 5630SOL    HW218724   2.369   0.157   0.991
 5631SOL     OW18725   6.694   3.708   9.613
 5631SOL    HW118726   6.775   3.684   9.656
 5631SOL    HW218727   6.690   3.804   9.619
 5632SOL     OW18728  12.296   7.253   9.534
 5632SOL    HW118729  12.390   7.272   9.542
 5632SOL    HW218730  12.286   7.222   9.444
 5633SOL     OW18731  12.565  14.458   4.652
 5633SOL    HW118732  12.521  14.406   4.584
 5633SOL    HW218733  12.658  14.442   4.638
 5634SOL     OW18734  13.948   8.118   6.335
 5634SOL    HW118735  13.906   8.198   6.368
 5634SOL    HW218736  13.979   8.073   6.413
 5635SOL     OW18737   8.885   0.639   1.478
 5635SOL    HW118738   8.935   0.563   1.448
 5635SOL    HW218739   8.912   0.651   1.569
 5636SOL     OW18740  13.622   6.367   0.347
 5636SOL    HW118741  13.581   6.392   0.264
 5636SOL    HW218742  13.568   6.295   0.379
 5637SOL     OW18743   0.418  13.122  14.468
 5637SOL    HW118744   0.368  13.201  14.491
 5637SOL    HW218745   0.356  13.050  14.481
 5638SOL     OW18746  13.933   1.799  14.273
 5638SOL    HW118747  14.025   1.823  14.283
 5638SOL    HW218748  13.924   1.716  14.320
 5639SOL     OW18749  10.670   7.677  11.445
 5639SOL    HW118750  10.756   7.698  11.482
 5639SOL    HW218751  10.608   7.702  11.513
 5640SOL     OW18752   7.068   1.807   9.969
 5640SOL    HW118753   7.118   1.883   9.996
 5640SOL    HW218754   7.114   1.733  10.009
 5641SOL     OW18755  13.039   9.354   1.608
 5641SOL    HW118756  13.103   9.419   1.638
 5641SOL    HW218757  12.975   9.350   1.679
 5642SOL     OW18758   3.989  14.047   5.357
 5642SOL    HW118759   4.030  14.043   5.443
 5642SOL    HW218760   4.060  14.023   5.296
 5643SOL     OW18761   0.868  11.589  14.374
 5643SOL    HW118762   0.886  11.497  14.393
 5643SOL    HW218763   0.950  11.634  14.394
 5644SOL     OW18764  13.428   8.887   5.196
 5644SOL    HW118765  13.493   8.891   5.125
 5644SOL    HW218766  13.417   8.793   5.212
 5645SOL     OW18767   2.617   6.869   4.760
 5645SOL    HW118768   2.579   6.833   4.679
 5645SOL    HW218769   2.635   6.961   4.739
 5646SOL     OW18770   5.342   8.093  12.213
 5646SOL    HW118771   5.386   8.011  12.239
 5646SOL    HW218772   5.414   8.153  12.192
 5647SOL     OW18773  11.607   8.198   0.377
 5647SOL    HW118774  11.651   8.233   0.454
 5647SOL    HW218775  11.663   8.124   0.350
 5648SOL     OW18776   4.114   1.567  14.158
 5648SOL    HW118777   4.182   1.578  14.092
 5648SOL    HW218778   4.049   1.634  14.137
 5649SOL     OW18779   0.433   1.661  14.359
 5649SOL    HW118780   0.349   1.701  14.381
 5649SOL    HW218781   0.498   1.724  14.389
 5650SOL     OW18782   5.638   7.472   6.007
 5650SOL    HW118783   5.617   7.543   5.946
 5650SOL    HW218784   5.681   7.406   5.952
 5651SOL     OW18785  10.071  14.377   4.542
 5651SOL    HW118786  10.052  14.444   4.476
 5651SOL    HW218787  10.128  14.421   4.605
 5652SOL     OW18788   0.612   0.542  13.828
 5652SOL    HW118789   0.564   0.575  13.905
 5652SOL    HW218790   0.704   0.549  13.854
 5653SOL     OW18791  12.796   5.373  11.393
 5653SOL    HW118792  12.809   5.404  11.303
 5653SOL    HW218793  12.705   5.342  11.395
 5654SOL     OW18794   3.653   6.950  11.958
 5654SOL    HW118795   3.660   7.041  11.987
 5654SOL    HW218796   3.723   6.905  12.006
 5655SOL     OW18797   6.512  13.565   7.310
 5655SOL    HW118798   6.425  13.536   7.338
 5655SOL    HW218799   6.557  13.484   7.288
 5656SOL     OW18800   1.100   7.229   0.237
 5656SOL    HW118801   1.176   7.274   0.274
 5656SOL    HW218802   1.114   7.231   0.143
 5657SOL     OW18803  14.278   5.705  12.897
 5657SOL    HW118804  14.326   5.773  12.943
 5657SOL    HW218805  14.227   5.662  12.966
 5658SOL     OW18806   0.777   9.786   9.749
 5658SOL    HW118807   0.819   9.721   9.805
 5658SOL    HW218808   0.735   9.735   9.679
 5659SOL     OW18809  10.328   0.157  10.457
 5659SOL    HW118810  10.329   0.212  10.379
 5659SOL    HW218811  10.237   0.162  10.488
 5660SOL     OW18812   6.232   0.780   8.424
 5660SOL    HW118813   6.247   0.842   8.353
 5660SOL    HW218814   6.283   0.814   8.497
 5661SOL     OW18815   2.892   0.337   6.807
 5661SOL    HW118816   2.862   0.314   6.895
 5661SOL    HW218817   2.949   0.264   6.782
 5662SOL     OW18818   2.423  13.816  13.803
 5662SOL    HW118819   2.512  13.852  13.811
 5662SOL    HW218820   2.434  13.723  13.824
 5663SOL     OW18821   2.967  14.387   8.084
 5663SOL    HW118822   2.899  14.320   8.074
 5663SOL    HW218823   2.992  14.410   7.995
 5664SOL     OW18824   1.259  13.665   7.869
 5664SOL    HW118825   1.270  13.614   7.949
 5664SOL    HW218826   1.290  13.753   7.891
 5665SOL     OW18827   4.924  14.595   0.229
 5665SOL    HW118828   4.898  14.582   0.321
 5665SOL    HW218829   4.997  14.656   0.234
 5666SOL     OW18830   2.750   9.044   8.376
 5666SOL    HW118831   2.829   9.085   8.340
 5666SOL    HW218832   2.731   8.972   8.316
 5667SOL     OW18833   6.645   0.060  10.960
 5667SOL    HW118834   6.591   0.122  10.912
 5667SOL    HW218835   6.585   0.019  11.023
 5668SOL     OW18836  11.275   0.697   4.653
 5668SOL    HW118837  11.277   0.608   4.618
 5668SOL    HW218838  11.362   0.711   4.689
 5669SOL     OW18839   8.741   1.212   3.454
 5669SOL    HW118840   8.702   1.287   3.409
 5669SOL    HW218841   8.725   1.228   3.547
 5670SOL     OW18842   2.543   1.784   2.840
 5670SOL    HW118843   2.581   1.826   2.917
 5670SOL    HW218844   2.618   1.770   2.781
 5671SOL     OW18845   8.856   0.370   1.035
 5671SOL    HW118846   8.900   0.323   0.964
 5671SOL    HW218847   8.825   0.451   0.994
 5672SOL     OW18848  14.780   5.776  10.913
 5672SOL    HW118849  14.845   5.713  10.945
 5672SOL    HW218850  14.804   5.789  10.821
 5673SOL     OW18851   4.090   7.278  13.114
 5673SOL    HW118852   4.094   7.315  13.025
 5673SOL    HW218853   4.095   7.183  13.100
 5674SOL     OW18854  12.475  11.489   8.585
 5674SOL    HW118855  12.390  11.496   8.542
 5674SOL    HW218856  12.472  11.553   8.656
 5675SOL     OW18857  13.456   7.970   0.717
 5675SOL    HW118858  13.491   8.015   0.794
 5675SOL    HW218859  13.517   7.990   0.647
 5676SOL     OW18860   2.362   0.533   9.537
 5676SOL    HW118861   2.442   0.537   9.484
 5676SOL    HW218862   2.344   0.623   9.562
 5677SOL     OW18863   3.880  13.339   5.107
 5677SOL    HW118864   3.862  13.433   5.101
 5677SOL    HW218865   3.794  13.298   5.107
 5678SOL     OW18866   3.829   6.644   9.756
 5678SOL    HW118867   3.871   6.690   9.828
 5678SOL    HW218868   3.883   6.567   9.741
 5679SOL     OW18869   0.578  13.830   4.873
 5679SOL    HW118870   0.642  13.767   4.839
 5679SOL    HW218871   0.603  13.843   4.965
 5680SOL     OW18872   3.998   3.227   0.002
 5680SOL    HW118873   3.973   3.192   0.088
 5680SOL    HW218874   4.094   3.228   0.004
 5681SOL     OW18875   7.945   9.447  14.344
 5681SOL    HW118876   7.924   9.541  14.348
 5681SOL    HW218877   8.040   9.443  14.354
 5682SOL     OW18878  13.053   2.193  13.868
 5682SOL    HW118879  13.074   2.278  13.907
 5682SOL    HW218880  13.065   2.205  13.774
 5683SOL     OW18881   0.866   5.212   5.239
 5683SOL    HW118882   0.811   5.232   5.163
 5683SOL    HW218883   0.948   5.258   5.222
 5684SOL     OW18884   5.734   9.149   2.779
 5684SOL    HW118885   5.660   9.166   2.721
 5684SOL    HW218886   5.737   9.053   2.787
 5685SOL     OW18887   3.282  12.625   9.065
 5685SOL    HW118888   3.327  12.544   9.087
 5685SOL    HW218889   3.352  12.689   9.052
 5686SOL     OW18890   8.467  10.972   9.341
 5686SOL    HW118891   8.412  10.996   9.416
 5686SOL    HW218892   8.404  10.955   9.271
 5687SOL     OW18893  11.490   0.044   2.672
 5687SOL    HW118894  11.512   0.129   2.710
 5687SOL    HW218895  11.573   0.010   2.640
 5688SOL     OW18896   1.793   4.505   4.039
 5688SOL    HW118897   1.843   4.495   4.120
 5688SOL    HW218898   1.712   4.457   4.056
 5689SOL     OW18899  14.286  12.058   1.961
 5689SOL    HW118900  14.295  11.963   1.953
 5689SOL    HW218901  14.221  12.070   2.031
 5690SOL     OW18902   5.757   0.387   9.433
 5690SOL    HW118903   5.752   0.383   9.338
 5690SOL    HW218904   5.673   0.353   9.463
 5691SOL     OW18905   2.504   3.652   6.165
 5691SOL    HW118906   2.564   3.684   6.233
 5691SOL    HW218907   2.561   3.619   6.096
 5692SOL     OW18908  11.932   4.046   1.967
 5692SOL    HW118909  11.954   4.135   1.996
 5692SOL    HW218910  12.010   3.994   1.989
 5693SOL     OW18911  11.748   6.696  14.631
 5693SOL    HW118912  11.748   6.715  14.724
 5693SOL    HW218913  11.820   6.747  14.595
 5694SOL     OW18914  11.086   1.682   8.099
 5694SOL    HW118915  11.019   1.627   8.059
 5694SOL    HW218916  11.167   1.634   8.086
 5695SOL     OW18917  13.034   8.146   7.401
 5695SOL    HW118918  13.061   8.233   7.372
 5695SOL    HW218919  13.068   8.139   7.490
 5696SOL     OW18920  13.203  13.660   0.383
 5696SOL    HW118921  13.268  13.667   0.313
 5696SOL    HW218922  13.183  13.566   0.388
 5697SOL     OW18923  14.629   6.174   4.625
 5697SOL    HW118924  14.685   6.220   4.687
 5697SOL    HW218925  14.632   6.083   4.655
 5698SOL     OW18926   8.832  10.231  12.368
 5698SOL    HW118927   8.759  10.262  12.422
 5698SOL    HW218928   8.846  10.301  12.304
 5699SOL     OW18929   8.351   5.678   3.749
 5699SOL    HW118930   8.380   5.716   3.832
 5699SOL    HW218931   8.256   5.686   3.751
 5700SOL     OW18932  13.583   7.214  12.709
 5700SOL    HW118933  13.521   7.226  12.780
 5700SOL    HW218934  13.554   7.274  12.641
 5701SOL     OW18935   3.440   9.372   1.313
 5701SOL    HW118936   3.510   9.399   1.371
 5701SOL    HW218937   3.457   9.279   1.296
 5702SOL     OW18938   9.692   8.179  14.765
 5702SOL    HW118939   9.773   8.189  14.815
 5702SOL    HW218940   9.710   8.221  14.681
 5703SOL     OW18941  11.501   8.297   5.735
 5703SOL    HW118942  11.413   8.278   5.704
 5703SOL    HW218943  11.534   8.213   5.768
 5704SOL     OW18944  13.873   8.469  12.096
 5704SOL    HW118945  13.872   8.565  12.100
 5704SOL    HW218946  13.829   8.441  12.176
 5705SOL     OW18947   3.015   3.722  12.982
 5705SOL    HW118948   3.007   3.776  12.904
 5705SOL    HW218949   2.925   3.711  13.013
 5706SOL     OW18950   4.374  13.865  14.214
 5706SOL    HW118951   4.314  13.795  14.188
 5706SOL    HW218952   4.381  13.921  14.137
 5707SOL     OW18953  11.066  12.099  12.678
 5707SOL    HW118954  11.020  12.180  12.700
 5707SOL    HW218955  11.014  12.030  12.720
 5708SOL     OW18956   1.634  11.392   0.870
 5708SOL    HW118957   1.651  11.456   0.939
 5708SOL    HW218958   1.679  11.426   0.793
 5709SOL     OW18959  10.233  13.192   3.512
 5709SOL    HW118960  10.324  13.166   3.524
 5709SOL    HW218961  10.192  13.177   3.597
 5710SOL     OW18962   5.229  11.846   3.986
 5710SOL    HW118963   5.199  11.757   3.966
 5710SOL    HW218964   5.250  11.883   3.900
 5711SOL     OW18965  10.782   7.109  13.769
 5711SOL    HW118966  10.781   7.052  13.692
 5711SOL    HW218967  10.772   7.050  13.843
 5712SOL     OW18968   5.475   2.105   0.237
 5712SOL    HW118969   5.569   2.103   0.219
 5712SOL    HW218970   5.459   2.193   0.272
 5713SOL     OW18971  12.807   1.678   1.426
 5713SOL    HW118972  12.874   1.747   1.428
 5713SOL    HW218973  12.835   1.621   1.355
 5714SOL     OW18974  10.406   2.555  11.596
 5714SOL    HW118975  10.326   2.504  11.610
 5714SOL    HW218976  10.439   2.526  11.511
 5715SOL     OW18977   2.613   7.183   5.752
 5715SOL    HW118978   2.528   7.226   5.751
 5715SOL    HW218979   2.639   7.181   5.660
 5716SOL     OW18980   6.694   1.067   5.090
 5716SOL    HW118981   6.668   1.008   5.161
 5716SOL    HW218982   6.635   1.046   5.018
 5717SOL     OW18983   4.671   1.527   4.708
 5717SOL    HW118984   4.618   1.504   4.632
 5717SOL    HW218985   4.638   1.612   4.736
 5718SOL     OW18986   7.735  12.680   9.018
 5718SOL    HW118987   7.830  12.690   9.020
 5718SOL    HW218988   7.718  12.616   8.948
 5719SOL     OW18989   8.522  12.424   1.859
 5719SOL    HW118990   8.507  12.357   1.927
 5719SOL    HW218991   8.576  12.380   1.794
 5720SOL     OW18992   9.888   2.093   9.477
 5720SOL    HW118993   9.878   2.176   9.431
 5720SOL    HW218994   9.965   2.106   9.533
 5721SOL     OW18995   4.700   4.995  12.463
 5721SOL    HW118996   4.761   4.941  12.413
 5721SOL    HW218997   4.620   4.943  12.467
 5722SOL     OW18998  10.112  11.247   9.862
 5722SOL    HW118999  10.200  11.210   9.855
 5722SOL    HW219000  10.105  11.306   9.787
 5723SOL     OW19001   8.235   4.784   3.075
 5723SOL    HW119002   8.319   4.740   3.066
 5723SOL    HW219003   8.197   4.780   2.987
 5724SOL     OW19004  14.798  13.691  14.859
 5724SOL    HW119005  14.736  13.619   0.000
 5724SOL    HW219006  14.774  13.726  14.773
 5725SOL     OW19007   1.354   7.522   7.576
 5725SOL    HW119008   1.297   7.599   7.576
 5725SOL    HW219009   1.342   7.484   7.489
 5726SOL     OW19010   1.160  13.535   5.395
 5726SOL    HW119011   1.232  13.487   5.435
 5726SOL    HW219012   1.110  13.469   5.347
 5727SOL     OW19013   6.412   5.853  11.484
 5727SOL    HW119014   6.335   5.825  11.434
 5727SOL    HW219015   6.382   5.930  11.532
 5728SOL     OW19016   1.184   0.900   1.249
 5728SOL    HW119017   1.209   0.992   1.255
 5728SOL    HW219018   1.237   0.866   1.177
 5729SOL     OW19019   3.099   9.058  14.482
 5729SOL    HW119020   3.038   9.066  14.556
 5729SOL    HW219021   3.043   9.037  14.408
 5730SOL     OW19022   3.163   0.570  12.150
 5730SOL    HW119023   3.151   0.525  12.234
 5730SOL    HW219024   3.140   0.661  12.168
 5731SOL     OW19025   7.639  11.752  11.540
 5731SOL    HW119026   7.648  11.774  11.447
 5731SOL    HW219027   7.707  11.804  11.583
 5732SOL     OW19028  12.687  12.582   5.976
 5732SOL    HW119029  12.681  12.488   5.958
 5732SOL    HW219030  12.738  12.588   6.057
 5733SOL     OW19031   4.638   9.642   7.419
 5733SOL    HW119032   4.679   9.555   7.421
 5733SOL    HW219033   4.589   9.646   7.502
 5734SOL     OW19034  13.092  11.964  12.825
 5734SOL    HW119035  13.186  11.953  12.837
 5734SOL    HW219036  13.073  12.051  12.862
 5735SOL     OW19037   6.188   5.587  14.476
 5735SOL    HW119038   6.110   5.568  14.424
 5735SOL    HW219039   6.154   5.625  14.557
 5736SOL     OW19040  11.683  11.761   3.761
 5736SOL    HW119041  11.593  11.733   3.740
 5736SOL    HW219042  11.691  11.847   3.720
 5737SOL     OW19043  14.561  10.445   2.532
 5737SOL    HW119044  14.613  10.468   2.455
 5737SOL    HW219045  14.553  10.349   2.528
 5738SOL     OW19046   1.052  10.654  13.324
 5738SOL    HW119047   1.022  10.702  13.401
 5738SOL    HW219048   1.059  10.563  13.353
 5739SOL     OW19049   0.341   2.360   2.474
 5739SOL    HW119050   0.377   2.424   2.412
 5739SOL    HW219051   0.347   2.402   2.559
 5740SOL     OW19052   1.692   1.500  13.023
 5740SOL    HW119053   1.659   1.589  13.032
 5740SOL    HW219054   1.709   1.472  13.113
 5741SOL     OW19055   1.912   9.642   5.323
 5741SOL    HW119056   1.955   9.568   5.281
 5741SOL    HW219057   1.820   9.634   5.298
 5742SOL     OW19058  10.452  14.031   8.296
 5742SOL    HW119059  10.539  14.068   8.279
 5742SOL    HW219060  10.420  14.080   8.372
 5743SOL     OW19061  10.922   4.313  10.506
 5743SOL    HW119062  10.879   4.289  10.588
 5743SOL    HW219063  10.877   4.393  10.479
 5744SOL     OW19064  11.363   9.543  11.975
 5744SOL    HW119065  11.274   9.512  11.991
 5744SOL    HW219066  11.389   9.585  12.057
 5745SOL     OW19067   3.229   7.253  12.787
 5745SOL    HW119068   3.262   7.244  12.877
 5745SOL    HW219069   3.272   7.332  12.754
 5746SOL     OW19070  12.096   9.691   1.225
 5746SOL    HW119071  12.061   9.767   1.272
 5746SOL    HW219072  12.105   9.721   1.134
 5747SOL     OW19073   6.306  11.189   1.134
 5747SOL    HW119074   6.394  11.183   1.172
 5747SOL    HW219075   6.316  11.240   1.054
 5748SOL     OW19076  13.582  10.370  11.991
 5748SOL    HW119077  13.659  10.391  12.044
 5748SOL    HW219078  13.512  10.359  12.055
 5749SOL     OW19079  13.023  10.617   4.936
 5749SOL    HW119080  13.107  10.601   4.977
 5749SOL    HW219081  13.000  10.706   4.963
 5750SOL     OW19082  13.333   0.907   7.924
 5750SOL    HW119083  13.277   0.967   7.875
 5750SOL    HW219084  13.279   0.829   7.937
 5751SOL     OW19085   2.957   2.291   2.061
 5751SOL    HW119086   3.040   2.268   2.020
 5751SOL    HW219087   2.948   2.229   2.134
 5752SOL     OW19088   2.796  14.059  12.028
 5752SOL    HW119089   2.748  14.142  12.033
 5752SOL    HW219090   2.774  14.013  12.109
 5753SOL     OW19091   1.827   9.984   5.066
 5753SOL    HW119092   1.803   9.933   5.144
 5753SOL    HW219093   1.909   9.945   5.036
 5754SOL     OW19094   3.670   2.541   3.679
 5754SOL    HW119095   3.694   2.537   3.587
 5754SOL    HW219096   3.746   2.508   3.726
 5755SOL     OW19097   4.525   2.155   5.589
 5755SOL    HW119098   4.457   2.107   5.637
 5755SOL    HW219099   4.605   2.103   5.602
 5756SOL     OW19100  12.053   6.227   1.969
 5756SOL    HW119101  12.115   6.161   2.001
 5756SOL    HW219102  12.033   6.200   1.879
 5757SOL     OW19103  10.901  12.901  10.443
 5757SOL    HW119104  10.828  12.895  10.505
 5757SOL    HW219105  10.859  12.900  10.357
 5758SOL     OW19106   7.951  14.463   6.633
 5758SOL    HW119107   7.996  14.547   6.630
 5758SOL    HW219108   8.012  14.402   6.592
 5759SOL     OW19109   5.831  13.518  11.121
 5759SOL    HW119110   5.781  13.438  11.107
 5759SOL    HW219111   5.766  13.582  11.151
 5760SOL     OW19112   7.542   4.430  12.463
 5760SOL    HW119113   7.583   4.510  12.495
 5760SOL    HW219114   7.537   4.373  12.540
 5761SOL     OW19115   0.278   4.718  13.772
 5761SOL    HW119116   0.252   4.696  13.682
 5761SOL    HW219117   0.232   4.655  13.827
 5762SOL     OW19118   5.409   6.763   9.836
 5762SOL    HW119119   5.394   6.811   9.917
 5762SOL    HW219120   5.414   6.671   9.862
 5763SOL     OW19121   1.406  11.228   8.871
 5763SOL    HW119122   1.424  11.206   8.963
 5763SOL    HW219123   1.489  11.260   8.837
 5764SOL     OW19124   8.903   1.883   1.931
 5764SOL    HW119125   8.952   1.961   1.906
 5764SOL    HW219126   8.812   1.904   1.910
 5765SOL     OW19127  14.269   1.189  13.205
 5765SOL    HW119128  14.289   1.270  13.251
 5765SOL    HW219129  14.178   1.169  13.228
 5766SOL     OW19130   6.008   3.555   4.285
 5766SOL    HW119131   5.978   3.465   4.290
 5766SOL    HW219132   5.937   3.602   4.242
 5767SOL     OW19133  10.764   7.444   0.473
 5767SOL    HW119134  10.733   7.483   0.555
 5767SOL    HW219135  10.686   7.406   0.433
 5768SOL     OW19136   1.432   5.059   5.305
 5768SOL    HW119137   1.513   5.031   5.263
 5768SOL    HW219138   1.363   5.031   5.245
 5769SOL     OW19139  13.787  12.381   8.026
 5769SOL    HW119140  13.872  12.389   7.982
 5769SOL    HW219141  13.753  12.297   7.997
 5770SOL     OW19142   1.831   8.285   5.539
 5770SOL    HW119143   1.900   8.267   5.603
 5770SOL    HW219144   1.809   8.200   5.501
 5771SOL     OW19145   6.393   6.650  12.044
 5771SOL    HW119146   6.382   6.570  12.096
 5771SOL    HW219147   6.333   6.639  11.971
 5772SOL     OW19148  11.357  11.255  12.984
 5772SOL    HW119149  11.327  11.244  12.894
 5772SOL    HW219150  11.317  11.183  13.032
 5773SOL     OW19151  12.771  12.104   3.321
 5773SOL    HW119152  12.735  12.035   3.265
 5773SOL    HW219153  12.861  12.076   3.338
 5774SOL     OW19154   8.080   2.911   9.597
 5774SOL    HW119155   8.107   2.908   9.505
 5774SOL    HW219156   8.155   2.877   9.645
 5775SOL     OW19157   7.620   9.113   8.042
 5775SOL    HW119158   7.632   9.131   7.949
 5775SOL    HW219159   7.525   9.109   8.053
 5776SOL     OW19160   6.312   1.357  12.792
 5776SOL    HW119161   6.378   1.406  12.743
 5776SOL    HW219162   6.233   1.412  12.788
 5777SOL     OW19163  10.363   9.196   7.369
 5777SOL    HW119164  10.348   9.208   7.463
 5777SOL    HW219165  10.318   9.115   7.348
 5778SOL     OW19166   2.938  11.878   7.096
 5778SOL    HW119167   2.897  11.913   7.175
 5778SOL    HW219168   2.979  11.953   7.055
 5779SOL     OW19169   5.851   7.251   4.239
 5779SOL    HW119170   5.834   7.327   4.295
 5779SOL    HW219171   5.830   7.281   4.151
 5780SOL     OW19172   6.180   4.503  10.808
 5780SOL    HW119173   6.155   4.584  10.763
 5780SOL    HW219174   6.275   4.500  10.799
 5781SOL     OW19175   0.192   9.717   6.530
 5781SOL    HW119176   0.185   9.739   6.623
 5781SOL    HW219177   0.248   9.785   6.493
 5782SOL     OW19178   6.364   4.866  11.939
 5782SOL    HW119179   6.301   4.804  11.901
 5782SOL    HW219180   6.426   4.883  11.868
 5783SOL     OW19181   5.276  11.095   6.059
 5783SOL    HW119182   5.307  11.027   5.999
 5783SOL    HW219183   5.188  11.066   6.084
 5784SOL     OW19184  13.329   0.602   3.559
 5784SOL    HW119185  13.391   0.553   3.613
 5784SOL    HW219186  13.380   0.673   3.522
 5785SOL     OW19187   6.393  14.084   9.158
 5785SOL    HW119188   6.405  14.163   9.211
 5785SOL    HW219189   6.305  14.092   9.122
 5786SOL     OW19190  11.346   1.529  10.881
 5786SOL    HW119191  11.439   1.511  10.875
 5786SOL    HW219192  11.304   1.443  10.877
 5787SOL     OW19193   4.569   8.578   5.666
 5787SOL    HW119194   4.607   8.541   5.585
 5787SOL    HW219195   4.576   8.507   5.730
 5788SOL     OW19196   2.572   8.744   9.993
 5788SOL    HW119197   2.568   8.722   9.900
 5788SOL    HW219198   2.658   8.713  10.021
 5789SOL     OW19199   0.453  14.021   4.733
 5789SOL    HW119200   0.367  13.979   4.731
 5789SOL    HW219201   0.510  13.956   4.774
 5790SOL     OW19202   1.952  13.226  10.961
 5790SOL    HW119203   2.045  13.244  10.949
 5790SOL    HW219204   1.908  13.303  10.924
 5791SOL     OW19205  11.565   4.032   7.450
 5791SOL    HW119206  11.603   4.120   7.451
 5791SOL    HW219207  11.627   3.979   7.399
 5792SOL     OW19208  10.327  13.396  13.379
 5792SOL    HW119209  10.394  13.410  13.312
 5792SOL    HW219210  10.277  13.320  13.348
 5793SOL     OW19211  14.165   2.322  13.839
 5793SOL    HW119212  14.261   2.326  13.846
 5793SOL    HW219213  14.149   2.286  13.752
 5794SOL     OW19214  13.817  13.072  14.074
 5794SOL    HW119215  13.897  13.090  14.123
 5794SOL    HW219216  13.807  13.147  14.016
 5795SOL     OW19217   6.192   4.690  11.848
 5795SOL    HW119218   6.131   4.757  11.819
 5795SOL    HW219219   6.142   4.637  11.911
 5796SOL     OW19220   7.784  11.041   5.175
 5796SOL    HW119221   7.781  11.047   5.270
 5796SOL    HW219222   7.874  11.065   5.152
 5797SOL     OW19223  14.310   9.080   3.644
 5797SOL    HW119224  14.291   9.116   3.731
 5797SOL    HW219225  14.278   9.146   3.583
 5798SOL     OW19226   9.977  10.854  10.890
 5798SOL    HW119227  10.022  10.842  10.807
 5798SOL    HW219228   9.993  10.945  10.913
 5799SOL     OW19229   1.727  10.991  10.661
 5799SOL    HW119230   1.759  10.978  10.750
 5799SOL    HW219231   1.804  11.018  10.611
 5800SOL     OW19232  11.184  12.604   5.449
 5800SOL    HW119233  11.137  12.580   5.529
 5800SOL    HW219234  11.239  12.529   5.430
 5801SOL     OW19235   4.699   9.304   7.426
 5801SOL    HW119236   4.768   9.244   7.397
 5801SOL    HW219237   4.633   9.246   7.465
 5802SOL     OW19238  12.926  10.222   7.832
 5802SOL    HW119239  13.002  10.187   7.786
 5802SOL    HW219240  12.959  10.299   7.878
 5803SOL     OW19241   1.124   6.717   5.314
 5803SOL    HW119242   1.166   6.764   5.242
 5803SOL    HW219243   1.030   6.721   5.292
 5804SOL     OW19244   2.502  10.414   4.938
 5804SOL    HW119245   2.445  10.360   4.883
 5804SOL    HW219246   2.443  10.479   4.978
 5805SOL     OW19247   0.651  12.356   1.335
 5805SOL    HW119248   0.636  12.276   1.285
 5805SOL    HW219249   0.609  12.424   1.284
 5806SOL     OW19250   8.991  12.175   0.124
 5806SOL    HW119251   8.980  12.251   0.182
 5806SOL    HW219252   9.053  12.205   0.057
 5807SOL     OW19253   3.194  12.678  10.552
 5807SOL    HW119254   3.183  12.759  10.502
 5807SOL    HW219255   3.192  12.707  10.643
 5808SOL     OW19256   1.264   9.283  12.176
 5808SOL    HW119257   1.190   9.305  12.233
 5808SOL    HW219258   1.293   9.368  12.141
 5809SOL     OW19259   6.782  10.564   3.428
 5809SOL    HW119260   6.815  10.475   3.439
 5809SOL    HW219261   6.849  10.609   3.376
 5810SOL     OW19262   0.184   6.379   5.066
 5810SOL    HW119263   0.243   6.322   5.116
 5810SOL    HW219264   0.189   6.346   4.976
 5811SOL     OW19265   9.920   7.185  14.025
 5811SOL    HW119266   9.901   7.276  14.000
 5811SOL    HW219267   9.900   7.181  14.118
 5812SOL     OW19268   6.097   5.815   0.968
 5812SOL    HW119269   6.188   5.840   0.984
 5812SOL    HW219270   6.054   5.897   0.944
 5813SOL     OW19271   3.653   2.993  13.856
 5813SOL    HW119272   3.733   3.024  13.813
 5813SOL    HW219273   3.639   2.905  13.820
 5814SOL     OW19274   7.616   9.709   8.981
 5814SOL    HW119275   7.683   9.669   8.926
 5814SOL    HW219276   7.553   9.639   8.997
 5815SOL     OW19277  13.935   9.111  13.206
 5815SOL    HW119278  13.982   9.074  13.281
 5815SOL    HW219279  13.960   9.203  13.204
 5816SOL     OW19280   8.287  14.251   1.549
 5816SOL    HW119281   8.330  14.267   1.465
 5816SOL    HW219282   8.351  14.279   1.614
 5817SOL     OW19283   6.873  12.722   0.600
 5817SOL    HW119284   6.916  12.747   0.518
 5817SOL    HW219285   6.789  12.686   0.572
 5818SOL     OW19286   8.305   6.187  10.441
 5818SOL    HW119287   8.281   6.206  10.350
 5818SOL    HW219288   8.330   6.095  10.440
 5819SOL     OW19289   3.916   1.849   4.857
 5819SOL    HW119290   3.928   1.943   4.859
 5819SOL    HW219291   3.905   1.823   4.948
 5820SOL     OW19292   7.404   7.076   2.060
 5820SOL    HW119293   7.488   7.031   2.074
 5820SOL    HW219294   7.371   7.092   2.149
 5821SOL     OW19295  12.052   5.548  10.874
 5821SOL    HW119296  12.110   5.489  10.826
 5821SOL    HW219297  11.999   5.591  10.806
 5822SOL     OW19298   7.709  10.192   7.361
 5822SOL    HW119299   7.622  10.232   7.366
 5822SOL    HW219300   7.741  10.214   7.273
 5823SOL     OW19301   5.961  12.854  13.256
 5823SOL    HW119302   6.037  12.882  13.205
 5823SOL    HW219303   5.911  12.934  13.271
 5824SOL     OW19304   2.884   9.961  13.351
 5824SOL    HW119305   2.798   9.973  13.391
 5824SOL    HW219306   2.922  10.049  13.346
 5825SOL     OW19307  14.585  14.457  11.533
 5825SOL    HW119308  14.615  14.443  11.443
 5825SOL    HW219309  14.620  14.382  11.582
 5826SOL     OW19310   2.161   4.382  10.994
 5826SOL    HW119311   2.205   4.456  11.036
 5826SOL    HW219312   2.071   4.386  11.027
 5827SOL     OW19313   8.861   5.641   4.504
 5827SOL    HW119314   8.888   5.727   4.471
 5827SOL    HW219315   8.939   5.587   4.493
 5828SOL     OW19316   2.194   9.691   3.737
 5828SOL    HW119317   2.227   9.604   3.716
 5828SOL    HW219318   2.100   9.685   3.721
 5829SOL     OW19319  13.873   6.938   4.030
 5829SOL    HW119320  13.804   6.973   4.086
 5829SOL    HW219321  13.922   6.878   4.086
 5830SOL     OW19322  12.156   4.880   5.422
 5830SOL    HW119323  12.113   4.929   5.352
 5830SOL    HW219324  12.098   4.888   5.497
 5831SOL     OW19325   4.683   0.117   3.912
 5831SOL    HW119326   4.770   0.157   3.917
 5831SOL    HW219327   4.623   0.191   3.919
 5832SOL     OW19328  11.918   8.417  10.274
 5832SOL    HW119329  11.868   8.369  10.209
 5832SOL    HW219330  11.853   8.446  10.338
 5833SOL     OW19331   9.776  12.130   0.957
 5833SOL    HW119332   9.869  12.124   0.979
 5833SOL    HW219333   9.774  12.148   0.863
 5834SOL     OW19334   0.240   8.013  11.297
 5834SOL    HW119335   0.229   8.082  11.362
 5834SOL    HW219336   0.212   8.052  11.215
 5835SOL     OW19337   1.360   4.460   6.059
 5835SOL    HW119338   1.396   4.453   5.971
 5835SOL    HW219339   1.293   4.391   6.063
 5836SOL     OW19340   0.980   3.984  13.558
 5836SOL    HW119341   1.074   3.996  13.565
 5836SOL    HW219342   0.942   4.065  13.590
 5837SOL     OW19343   2.039   8.128   3.489
 5837SOL    HW119344   2.046   8.155   3.397
 5837SOL    HW219345   2.071   8.204   3.538
 5838SOL     OW19346   8.105   5.888   7.406
 5838SOL    HW119347   8.185   5.921   7.364
 5838SOL    HW219348   8.132   5.865   7.495
 5839SOL     OW19349   1.895   0.124   2.279
 5839SOL    HW119350   1.950   0.046   2.290
 5839SOL    HW219351   1.890   0.136   2.185
 5840SOL     OW19352   6.082  12.957   6.677
 5840SOL    HW119353   6.020  12.974   6.606
 5840SOL    HW219354   6.133  13.038   6.685
 5841SOL     OW19355   0.749  11.582   3.108
 5841SOL    HW119356   0.764  11.534   3.026
 5841SOL    HW219357   0.822  11.557   3.164
 5842SOL     OW19358   6.866   0.455  11.161
 5842SOL    HW119359   6.810   0.426  11.089
 5842SOL    HW219360   6.859   0.385  11.226
 5843SOL     OW19361  10.474  11.030   7.568
 5843SOL    HW119362  10.486  11.008   7.660
 5843SOL    HW219363  10.382  11.011   7.550
 5844SOL     OW19364   7.367   9.072   8.033
 5844SOL    HW119365   7.286   9.066   7.981
 5844SOL    HW219366   7.343   9.128   8.107
 5845SOL     OW19367   5.049   9.446   6.869
 5845SOL    HW119368   4.985   9.514   6.847
 5845SOL    HW219369   5.022   9.416   6.956
 5846SOL     OW19370   2.479   6.846   5.033
 5846SOL    HW119371   2.518   6.850   4.946
 5846SOL    HW219372   2.495   6.757   5.063
 5847SOL     OW19373   4.267  12.600  13.229
 5847SOL    HW119374   4.304  12.651  13.157
 5847SOL    HW219375   4.325  12.616  13.303
 5848SOL     OW19376  13.857  10.522   7.326
 5848SOL    HW119377  13.767  10.502   7.300
 5848SOL    HW219378  13.853  10.529   7.421
 5849SOL     OW19379  10.049  14.850   2.293
 5849SOL    HW119380  10.119   0.041   2.286
 5849SOL    HW219381  10.048  14.825   2.385
 5850SOL     OW19382   9.866   3.971   6.480
 5850SOL    HW119383   9.864   3.879   6.453
 5850SOL    HW219384   9.918   4.014   6.413
 5851SOL     OW19385  12.347  11.765   7.408
 5851SOL    HW119386  12.443  11.763   7.409
 5851SOL    HW219387  12.324  11.756   7.316
 5852SOL     OW19388   6.509  14.106  13.806
 5852SOL    HW119389   6.527  14.119  13.713
 5852SOL    HW219390   6.495  14.194  13.841
 5853SOL     OW19391   5.668   0.411  10.626
 5853SOL    HW119392   5.637   0.339  10.681
 5853SOL    HW219393   5.755   0.384  10.597
 5854SOL     OW19394   8.537   7.962  12.853
 5854SOL    HW119395   8.519   7.997  12.940
 5854SOL    HW219396   8.569   8.037  12.803
 5855SOL     OW19397   8.428  14.247  14.292
 5855SOL    HW119398   8.361  14.296  14.340
 5855SOL    HW219399   8.511  14.281  14.328
 5856SOL     OW19400   8.233   1.568   3.730
 5856SOL    HW119401   8.180   1.643   3.757
 5856SOL    HW219402   8.293   1.605   3.664
 5857SOL     OW19403   7.322  13.797  13.330
 5857SOL    HW119404   7.315  13.762  13.241
 5857SOL    HW219405   7.350  13.722  13.383
 5858SOL     OW19406  11.144   1.799   1.937
 5858SOL    HW119407  11.121   1.849   2.016
 5858SOL    HW219408  11.093   1.841   1.867
 5859SOL     OW19409   4.301   4.870  12.804
 5859SOL    HW119410   4.301   4.955  12.848
 5859SOL    HW219411   4.392   4.839  12.812
 5860SOL     OW19412   4.252   5.294   2.200
 5860SOL    HW119413   4.293   5.208   2.211
 5860SOL    HW219414   4.160   5.275   2.185
 5861SOL     OW19415  11.969   5.825   8.802
 5861SOL    HW119416  11.971   5.921   8.810
 5861SOL    HW219417  11.881   5.800   8.828
 5862SOL     OW19418   8.649   8.327   4.069
 5862SOL    HW119419   8.663   8.303   4.161
 5862SOL    HW219420   8.613   8.247   4.030
 5863SOL     OW19421  13.486   4.113   6.993
 5863SOL    HW119422  13.455   4.073   7.074
 5863SOL    HW219423  13.458   4.205   6.999
 5864SOL     OW19424   7.999   7.738   3.037
 5864SOL    HW119425   8.067   7.679   3.068
 5864SOL    HW219426   8.047   7.808   2.991
 5865SOL     OW19427  12.082   5.087   9.174
 5865SOL    HW119428  12.115   5.000   9.152
 5865SOL    HW219429  12.081   5.090   9.269
 5866SOL     OW19430   5.749   6.650  13.819
 5866SOL    HW119431   5.820   6.657  13.755
 5866SOL    HW219432   5.740   6.738  13.854
 5867SOL     OW19433   4.562  13.302   0.437
 5867SOL    HW119434   4.634  13.265   0.386
 5867SOL    HW219435   4.526  13.229   0.486
 5868SOL     OW19436   8.059   1.635   5.535
 5868SOL    HW119437   8.100   1.567   5.482
 5868SOL    HW219438   7.981   1.594   5.571
 5869SOL     OW19439   3.048   2.866   3.580
 5869SOL    HW119440   3.105   2.943   3.582
 5869SOL    HW219441   2.996   2.877   3.500
 5870SOL     OW19442  10.532   7.092  12.212
 5870SOL    HW119443  10.443   7.058  12.217
 5870SOL    HW219444  10.575   7.059  12.291
 5871SOL     OW19445  13.012   3.738   0.928
 5871SOL    HW119446  13.023   3.741   1.023
 5871SOL    HW219447  12.933   3.789   0.912
 5872SOL     OW19448  12.059   6.390   9.311
 5872SOL    HW119449  11.977   6.386   9.261
 5872SOL    HW219450  12.093   6.477   9.294
 5873SOL     OW19451   4.132   4.167   0.220
 5873SOL    HW119452   4.167   4.217   0.146
 5873SOL    HW219453   4.049   4.132   0.187
 5874SOL     OW19454  11.285   6.233  11.258
 5874SOL    HW119455  11.229   6.160  11.284
 5874SOL    HW219456  11.226   6.309  11.257
 5875SOL     OW19457   1.464   6.034   8.690
 5875SOL    HW119458   1.398   6.033   8.621
 5875SOL    HW219459   1.467   6.125   8.719
 5876SOL     OW19460   6.690   2.764   0.289
 5876SOL    HW119461   6.610   2.752   0.340
 5876SOL    HW219462   6.668   2.736   0.201
 5877SOL     OW19463   9.759   7.158  12.525
 5877SOL    HW119464   9.762   7.091  12.594
 5877SOL    HW219465   9.674   7.201  12.537
 5878SOL     OW19466   9.990   9.150   7.694
 5878SOL    HW119467  10.004   9.198   7.613
 5878SOL    HW219468   9.956   9.215   7.755
 5879SOL     OW19469   0.832   1.355   8.932
 5879SOL    HW119470   0.919   1.354   8.892
 5879SOL    HW219471   0.780   1.295   8.878
 5880SOL     OW19472   2.447  13.286   2.783
 5880SOL    HW119473   2.512  13.355   2.793
 5880SOL    HW219474   2.422  13.290   2.691
 5881SOL     OW19475  12.843   9.295   6.182
 5881SOL    HW119476  12.756   9.325   6.156
 5881SOL    HW219477  12.890   9.282   6.100
 5882SOL     OW19478   2.564   3.582   0.043
 5882SOL    HW119479   2.554   3.495   0.005
 5882SOL    HW219480   2.654   3.606   0.025
 5883SOL     OW19481   1.420   8.082   9.329
 5883SOL    HW119482   1.368   8.152   9.290
 5883SOL    HW219483   1.362   8.006   9.331
 5884SOL     OW19484   9.418  13.018   9.582
 5884SOL    HW119485   9.463  13.053   9.659
 5884SOL    HW219486   9.336  13.068   9.578
 5885SOL     OW19487   9.907   5.935   6.163
 5885SOL    HW119488   9.933   6.011   6.111
 5885SOL    HW219489   9.990   5.892   6.186
 5886SOL     OW19490   8.145   0.429   6.582
 5886SOL    HW119491   8.200   0.505   6.560
 5886SOL    HW219492   8.207   0.358   6.598
 5887SOL     OW19493  10.954   4.619   6.414
 5887SOL    HW119494  10.865   4.629   6.448
 5887SOL    HW219495  11.005   4.685   6.462
 5888SOL     OW19496   7.369   9.420  11.867
 5888SOL    HW119497   7.298   9.394  11.807
 5888SOL    HW219498   7.447   9.379  11.829
 5889SOL     OW19499   6.947  14.168  10.707
 5889SOL    HW119500   6.905  14.137  10.788
 5889SOL    HW219501   6.910  14.255  10.693
 5890SOL     OW19502   8.203   2.641   8.578
 5890SOL    HW119503   8.166   2.711   8.633
 5890SOL    HW219504   8.293   2.632   8.608
 5891SOL     OW19505  11.188  11.737   1.351
 5891SOL    HW119506  11.276  11.712   1.380
 5891SOL    HW219507  11.197  11.829   1.327
 5892SOL     OW19508   4.705  10.932  10.242
 5892SOL    HW119509   4.670  11.007  10.289
 5892SOL    HW219510   4.789  10.914  10.285
 5893SOL     OW19511  10.272   3.145   1.633
 5893SOL    HW119512  10.188   3.156   1.678
 5893SOL    HW219513  10.307   3.234   1.626
 5894SOL     OW19514   6.284   0.018  14.859
 5894SOL    HW119515   6.316   0.007  14.769
 5894SOL    HW219516   6.344  14.841   0.040
 5895SOL     OW19517  10.527  12.052   8.186
 5895SOL    HW119518  10.572  12.045   8.102
 5895SOL    HW219519  10.563  12.131   8.226
 5896SOL     OW19520   2.343   4.754  10.606
 5896SOL    HW119521   2.301   4.713  10.682
 5896SOL    HW219522   2.425   4.705  10.596
 5897SOL     OW19523   1.491  12.792   2.852
 5897SOL    HW119524   1.440  12.729   2.800
 5897SOL    HW219525   1.548  12.738   2.906
 5898SOL     OW19526   0.225   8.476  11.867
 5898SOL    HW119527   0.135   8.505  11.857
 5898SOL    HW219528   0.275   8.557  11.879
 5899SOL     OW19529  11.305   9.374   0.764
 5899SOL    HW119530  11.274   9.422   0.841
 5899SOL    HW219531  11.376   9.319   0.797
 5900SOL     OW19532   4.548   8.286  14.453
 5900SOL    HW119533   4.577   8.320  14.537
 5900SOL    HW219534   4.628   8.261  14.407
 5901SOL     OW19535   5.487   5.525   9.704
 5901SOL    HW119536   5.481   5.598   9.642
 5901SOL    HW219537   5.415   5.467   9.680
 5902SOL     OW19538   8.790   2.972  11.176
 5902SOL    HW119539   8.701   2.940  11.165
 5902SOL    HW219540   8.787   3.062  11.143
 5903SOL     OW19541   8.946  14.287   1.082
 5903SOL    HW119542   8.885  14.215   1.096
 5903SOL    HW219543   8.901  14.364   1.115
 5904SOL     OW19544   3.693   8.390   0.057
 5904SOL    HW119545   3.695   8.431   0.143
 5904SOL    HW219546   3.728   8.302   0.071
 5905SOL     OW19547  12.145   6.687   1.006
 5905SOL    HW119548  12.152   6.639   0.923
 5905SOL    HW219549  12.075   6.643   1.054
 5906SOL     OW19550  12.770   8.233   5.212
 5906SOL    HW119551  12.789   8.217   5.304
 5906SOL    HW219552  12.692   8.289   5.214
 5907SOL     OW19553   0.249   9.717   8.724
 5907SOL    HW119554   0.200   9.682   8.649
 5907SOL    HW219555   0.341   9.704   8.701
 5908SOL     OW19556   4.382   0.746   5.180
 5908SOL    HW119557   4.450   0.730   5.114
 5908SOL    HW219558   4.301   0.746   5.130
 5909SOL     OW19559  13.249  10.074   5.216
 5909SOL    HW119560  13.310  10.144   5.191
 5909SOL    HW219561  13.211  10.044   5.134
 5910SOL     OW19562   6.962  14.631  10.272
 5910SOL    HW119563   6.875  14.627  10.313
 5910SOL    HW219564   6.951  14.692  10.199
 5911SOL     OW19565   5.778  14.540   9.018
 5911SOL    HW119566   5.823  14.586   9.089
 5911SOL    HW219567   5.785  14.599   8.943
 5912SOL     OW19568  12.051   9.455   7.471
 5912SOL    HW119569  12.087   9.430   7.556
 5912SOL    HW219570  12.128   9.470   7.416
 5913SOL     OW19571  10.515   7.451   9.795
 5913SOL    HW119572  10.515   7.414   9.883
 5913SOL    HW219573  10.535   7.544   9.809
 5914SOL     OW19574  11.451   4.933   5.721
 5914SOL    HW119575  11.509   4.937   5.645
 5914SOL    HW219576  11.472   5.012   5.771
 5915SOL     OW19577  12.527  11.782  14.636
 5915SOL    HW119578  12.520  11.736  14.552
 5915SOL    HW219579  12.545  11.873  14.612
 5916SOL     OW19580   3.094   7.060  12.669
 5916SOL    HW119581   3.005   7.047  12.701
 5916SOL    HW219582   3.130   7.130  12.723
 5917SOL     OW19583  11.414   4.187   9.683
 5917SOL    HW119584  11.376   4.202   9.770
 5917SOL    HW219585  11.506   4.169   9.699
 5918SOL     OW19586   1.435   2.095  12.548
 5918SOL    HW119587   1.457   2.168  12.491
 5918SOL    HW219588   1.381   2.037  12.495
 5919SOL     OW19589   4.554  10.052   3.314
 5919SOL    HW119590   4.615   9.978   3.313
 5919SOL    HW219591   4.478  10.021   3.264
 5920SOL     OW19592   3.825   4.216  12.042
 5920SOL    HW119593   3.847   4.173  12.125
 5920SOL    HW219594   3.753   4.164  12.006
 5921SOL     OW19595  14.743  14.635   0.802
 5921SOL    HW119596  14.815  14.694   0.824
 5921SOL    HW219597  14.771  14.591   0.721
 5922SOL     OW19598  12.621   2.927  13.587
 5922SOL    HW119599  12.561   2.856  13.608
 5922SOL    HW219600  12.683   2.889  13.525
 5923SOL     OW19601   6.755   5.226  10.265
 5923SOL    HW119602   6.845   5.226  10.297
 5923SOL    HW219603   6.753   5.158  10.198
 5924SOL     OW19604   8.728   5.300   1.242
 5924SOL    HW119605   8.659   5.325   1.303
 5924SOL    HW219606   8.685   5.243   1.179
 5925SOL     OW19607   8.968   1.734  13.196
 5925SOL    HW119608   8.874   1.713  13.193
 5925SOL    HW219609   8.974   1.806  13.260
 5926SOL     OW19610  11.019   6.825  11.117
 5926SOL    HW119611  10.985   6.908  11.084
 5926SOL    HW219612  10.941   6.773  11.137
 5927SOL     OW19613   3.066   1.108   0.235
 5927SOL    HW119614   3.092   1.197   0.258
 5927SOL    HW219615   2.979   1.097   0.272
 5928SOL     OW19616   6.717   2.788   4.882
 5928SOL    HW119617   6.812   2.797   4.887
 5928SOL    HW219618   6.701   2.694   4.889
 5929SOL     OW19619   3.021   0.450   5.110
 5929SOL    HW119620   2.960   0.519   5.137
 5929SOL    HW219621   2.969   0.370   5.116
 5930SOL     OW19622   7.980  13.179   9.741
 5930SOL    HW119623   8.073  13.171   9.718
 5930SOL    HW219624   7.976  13.153   9.833
 5931SOL     OW19625  12.869   6.052   1.586
 5931SOL    HW119626  12.870   6.145   1.607
 5931SOL    HW219627  12.817   6.046   1.506
 5932SOL     OW19628   4.461   8.555   5.237
 5932SOL    HW119629   4.471   8.536   5.144
 5932SOL    HW219630   4.400   8.489   5.269
 5933SOL     OW19631  13.896  11.308   2.280
 5933SOL    HW119632  13.866  11.300   2.371
 5933SOL    HW219633  13.894  11.218   2.246
 5934SOL     OW19634   9.103   2.088   8.077
 5934SOL    HW119635   9.081   1.999   8.106
 5934SOL    HW219636   9.098   2.084   7.982
 5935SOL     OW19637  10.267   3.463   9.813
 5935SOL    HW119638  10.299   3.528   9.751
 5935SOL    HW219639  10.332   3.462   9.883
 5936SOL     OW19640  12.834   2.024  10.362
 5936SOL    HW119641  12.868   1.955  10.419
 5936SOL    HW219642  12.743   1.999  10.347
 5937SOL     OW19643  13.664  13.219  13.059
 5937SOL    HW119644  13.594  13.234  12.996
 5937SOL    HW219645  13.739  13.267  13.023
 5938SOL     OW19646   2.429   9.166  13.806
 5938SOL    HW119647   2.418   9.150  13.900
 5938SOL    HW219648   2.340   9.178  13.773
 5939SOL     OW19649   5.962  10.824   0.309
 5939SOL    HW119650   5.888  10.797   0.256
 5939SOL    HW219651   6.004  10.894   0.259
 5940SOL     OW19652   5.076  13.527   9.134
 5940SOL    HW119653   5.048  13.453   9.080
 5940SOL    HW219654   5.095  13.488   9.220
 5941SOL     OW19655   1.142  12.663   2.536
 5941SOL    HW119656   1.159  12.614   2.455
 5941SOL    HW219657   1.163  12.754   2.513
 5942SOL     OW19658  13.073  13.402  11.720
 5942SOL    HW119659  13.059  13.324  11.773
 5942SOL    HW219660  13.143  13.449  11.764
 5943SOL     OW19661  13.557   1.148  10.812
 5943SOL    HW119662  13.568   1.104  10.727
 5943SOL    HW219663  13.464   1.139  10.831
 5944SOL     OW19664   8.294  13.534   1.882
 5944SOL    HW119665   8.354  13.547   1.809
 5944SOL    HW219666   8.306  13.443   1.909
 5945SOL     OW19667  12.455  12.607   8.576
 5945SOL    HW119668  12.365  12.587   8.551
 5945SOL    HW219669  12.502  12.524   8.563
 5946SOL     OW19670   6.768  13.593  11.560
 5946SOL    HW119671   6.703  13.620  11.495
 5946SOL    HW219672   6.843  13.650  11.545
 5947SOL     OW19673   0.130  12.513  13.447
 5947SOL    HW119674   0.184  12.482  13.374
 5947SOL    HW219675   0.083  12.589  13.412
 5948SOL     OW19676   4.819   3.692   0.140
 5948SOL    HW119677   4.797   3.772   0.093
 5948SOL    HW219678   4.802   3.622   0.077
 5949SOL     OW19679  14.191   5.827   3.542
 5949SOL    HW119680  14.115   5.882   3.524
 5949SOL    HW219681  14.205   5.834   3.637
 5950SOL     OW19682   2.181   5.080   1.752
 5950SOL    HW119683   2.123   5.032   1.693
 5950SOL    HW219684   2.191   5.022   1.828
 5951SOL     OW19685   2.035   0.669   2.474
 5951SOL    HW119686   2.057   0.699   2.386
 5951SOL    HW219687   2.075   0.734   2.532
 5952SOL     OW19688  10.271   4.444   3.522
 5952SOL    HW119689  10.204   4.445   3.453
 5952SOL    HW219690  10.222   4.449   3.604
 5953SOL     OW19691   7.061   4.870  13.682
 5953SOL    HW119692   7.099   4.934  13.622
 5953SOL    HW219693   7.007   4.814  13.625
 5954SOL     OW19694  10.802   8.592   2.088
 5954SOL    HW119695  10.764   8.505   2.088
 5954SOL    HW219696  10.728   8.651   2.077
 5955SOL     OW19697  14.466  12.789  10.247
 5955SOL    HW119698  14.539  12.765  10.191
 5955SOL    HW219699  14.399  12.724  10.229
 5956SOL     OW19700   1.369  10.909  12.486
 5956SOL    HW119701   1.362  10.913  12.582
 5956SOL    HW219702   1.374  10.815  12.467
 5957SOL     OW19703   4.349  13.529  12.204
 5957SOL    HW119704   4.370  13.483  12.286
 5957SOL    HW219705   4.269  13.486  12.173
 5958SOL     OW19706  11.773  11.164   8.199
 5958SOL    HW119707  11.784  11.087   8.143
 5958SOL    HW219708  11.778  11.238   8.140
 5959SOL     OW19709   6.982  14.714   9.376
 5959SOL    HW119710   6.920  14.730   9.447
 5959SOL    HW219711   7.068  14.733   9.415
 5960SOL     OW19712  13.497  13.578  11.586
 5960SOL    HW119713  13.527  13.616  11.504
 5960SOL    HW219714  13.409  13.614  11.598
 5961SOL     OW19715   6.574   6.135  12.321
 5961SOL    HW119716   6.612   6.220  12.299
 5961SOL    HW219717   6.512   6.117  12.250
 5962SOL     OW19718  12.215   2.496   9.820
 5962SOL    HW119719  12.239   2.542   9.740
 5962SOL    HW219720  12.147   2.551   9.860
 5963SOL     OW19721  10.028  12.619   0.263
 5963SOL    HW119722   9.995  12.615   0.173
 5963SOL    HW219723  10.123  12.615   0.254
 5964SOL     OW19724   5.520   9.808   4.314
 5964SOL    HW119725   5.443   9.852   4.279
 5964SOL    HW219726   5.578   9.796   4.239
 5965SOL     OW19727  10.694  11.684   0.823
 5965SOL    HW119728  10.703  11.613   0.759
 5965SOL    HW219729  10.635  11.649   0.889
 5966SOL     OW19730   5.862   4.524   7.500
 5966SOL    HW119731   5.863   4.487   7.412
 5966SOL    HW219732   5.831   4.614   7.488
 5967SOL     OW19733  10.578   0.840   2.363
 5967SOL    HW119734  10.596   0.874   2.275
 5967SOL    HW219735  10.587   0.745   2.354
 5968SOL     OW19736   4.473   0.790   0.884
 5968SOL    HW119737   4.543   0.797   0.819
 5968SOL    HW219738   4.514   0.747   0.959
 5969SOL     OW19739   3.518  10.779   1.881
 5969SOL    HW119740   3.493  10.687   1.880
 5969SOL    HW219741   3.612  10.778   1.902
 5970SOL     OW19742   4.907   8.602  13.925
 5970SOL    HW119743   4.828   8.613  13.871
 5970SOL    HW219744   4.877   8.617  14.015
 5971SOL     OW19745   2.807   9.003   6.810
 5971SOL    HW119746   2.743   9.056   6.762
 5971SOL    HW219747   2.795   9.028   6.901
 5972SOL     OW19748   9.922   6.919   7.267
 5972SOL    HW119749   9.837   6.899   7.229
 5972SOL    HW219750   9.954   6.835   7.301
 5973SOL     OW19751   5.454   4.341   3.305
 5973SOL    HW119752   5.462   4.275   3.236
 5973SOL    HW219753   5.529   4.325   3.363
 5974SOL     OW19754  13.185   4.656  10.958
 5974SOL    HW119755  13.116   4.618  11.013
 5974SOL    HW219756  13.157   4.637  10.868
 5975SOL     OW19757   9.780  13.623   0.767
 5975SOL    HW119758   9.727  13.690   0.810
 5975SOL    HW219759   9.717  13.561   0.731
 5976SOL     OW19760   0.852   7.706   4.452
 5976SOL    HW119761   0.817   7.792   4.470
 5976SOL    HW219762   0.866   7.666   4.538
 5977SOL     OW19763   7.633  12.223   8.601
 5977SOL    HW119764   7.600  12.138   8.571
 5977SOL    HW219765   7.582  12.288   8.553
 5978SOL     OW19766   8.234   5.537   4.837
 5978SOL    HW119767   8.206   5.562   4.925
 5978SOL    HW219768   8.317   5.583   4.824
 5979SOL     OW19769   7.872  12.931   1.784
 5979SOL    HW119770   7.826  12.950   1.703
 5979SOL    HW219771   7.959  12.902   1.757
 5980SOL     OW19772   7.290  11.216  12.719
 5980SOL    HW119773   7.270  11.310  12.715
 5980SOL    HW219774   7.204  11.173  12.718
 5981SOL     OW19775   3.676   1.889   4.638
 5981SOL    HW119776   3.719   1.916   4.556
 5981SOL    HW219777   3.713   1.803   4.658
 5982SOL     OW19778   5.060   9.759   4.868
 5982SOL    HW119779   5.052   9.682   4.813
 5982SOL    HW219780   5.025   9.732   4.953
 5983SOL     OW19781   6.207   2.784  11.592
 5983SOL    HW119782   6.234   2.772  11.501
 5983SOL    HW219783   6.161   2.868  11.592
 5984SOL     OW19784   1.309  13.618   3.844
 5984SOL    HW119785   1.273  13.642   3.759
 5984SOL    HW219786   1.400  13.592   3.826
 5985SOL     OW19787   4.683   8.073   2.292
 5985SOL    HW119788   4.696   7.988   2.334
 5985SOL    HW219789   4.590   8.074   2.267
 5986SOL     OW19790  11.357   7.832   8.940
 5986SOL    HW119791  11.335   7.739   8.949
 5986SOL    HW219792  11.292   7.878   8.993
 5987SOL     OW19793   8.257   8.939  10.433
 5987SOL    HW119794   8.223   8.968  10.349
 5987SOL    HW219795   8.339   8.987  10.444
 5988SOL     OW19796  10.383   9.935   6.099
 5988SOL    HW119797  10.468   9.946   6.058
 5988SOL    HW219798  10.360  10.023   6.131
 5989SOL     OW19799   4.630   6.303  14.849
 5989SOL    HW119800   4.631   6.245  14.773
 5989SOL    HW219801   4.715   6.288   0.018
 5990SOL     OW19802   7.172   6.450   8.070
 5990SOL    HW119803   7.097   6.467   8.127
 5990SOL    HW219804   7.159   6.360   8.040
 5991SOL     OW19805   2.395   2.596  13.979
 5991SOL    HW119806   2.399   2.509  13.940
 5991SOL    HW219807   2.438   2.586  14.064
 5992SOL     OW19808   5.706  11.162   5.284
 5992SOL    HW119809   5.710  11.107   5.362
 5992SOL    HW219810   5.779  11.223   5.293
 5993SOL     OW19811   4.447   7.008  14.470
 5993SOL    HW119812   4.363   6.982  14.507
 5993SOL    HW219813   4.427   7.086  14.418
 5994SOL     OW19814   2.219   8.934   9.391
 5994SOL    HW119815   2.192   8.871   9.458
 5994SOL    HW219816   2.145   8.938   9.330
 5995SOL     OW19817   0.163  12.491   7.234
 5995SOL    HW119818   0.108  12.532   7.301
 5995SOL    HW219819   0.102  12.465   7.166
 5996SOL     OW19820  14.528   8.545   2.137
 5996SOL    HW119821  14.460   8.608   2.112
 5996SOL    HW219822  14.487   8.491   2.205
 5997SOL     OW19823   7.222  14.289   2.692
 5997SOL    HW119824   7.267  14.210   2.721
 5997SOL    HW219825   7.188  14.329   2.773
 5998SOL     OW19826   7.234   2.816  14.122
 5998SOL    HW119827   7.182   2.866  14.059
 5998SOL    HW219828   7.254   2.734  14.077
 5999SOL     OW19829   4.281   0.509  10.720
 5999SOL    HW119830   4.255   0.428  10.764
 5999SOL    HW219831   4.375   0.517  10.738
 6000SOL     OW19832   7.034  13.623  10.899
 6000SOL    HW119833   7.079  13.582  10.825
 6000SOL    HW219834   6.951  13.576  10.905
 6001SOL     OW19835   6.760   4.108  12.204
 6001SOL    HW119836   6.721   4.077  12.286
 6001SOL    HW219837   6.805   4.189  12.228
 6002SOL     OW19838   4.877   6.089   9.551
 6002SOL    HW119839   4.812   6.155   9.576
 6002SOL    HW219840   4.825   6.017   9.515
 6003SOL     OW19841  11.410   3.734   5.058
 6003SOL    HW119842  11.341   3.675   5.088
 6003SOL    HW219843  11.364   3.813   5.029
 6004SOL     OW19844  12.772  11.047   8.662
 6004SOL    HW119845  12.802  10.956   8.667
 6004SOL    HW219846  12.731  11.054   8.575
 6005SOL     OW19847   1.625  13.601   8.787
 6005SOL    HW119848   1.619  13.515   8.743
 6005SOL    HW219849   1.715  13.629   8.772
 6006SOL     OW19850  10.731   5.174  12.329
 6006SOL    HW119851  10.719   5.088  12.369
 6006SOL    HW219852  10.645   5.195  12.292
 6007SOL     OW19853   9.915  11.730   0.309
 6007SOL    HW119854   9.969  11.740   0.230
 6007SOL    HW219855   9.917  11.636   0.327
 6008SOL     OW19856   3.053  14.410   0.519
 6008SOL    HW119857   3.040  14.315   0.512
 6008SOL    HW219858   2.987  14.438   0.583
 6009SOL     OW19859   0.075   0.597  10.765
 6009SOL    HW119860   0.036   0.619  10.680
 6009SOL    HW219861   0.167   0.619  10.756
 6010SOL     OW19862   1.262   8.836   6.835
 6010SOL    HW119863   1.243   8.895   6.908
 6010SOL    HW219864   1.352   8.858   6.809
 6011SOL     OW19865   1.764   8.127   4.552
 6011SOL    HW119866   1.841   8.154   4.502
 6011SOL    HW219867   1.798   8.104   4.638
 6012SOL     OW19868   6.410   2.185   8.128
 6012SOL    HW119869   6.425   2.199   8.035
 6012SOL    HW219870   6.498   2.180   8.166
 6013SOL     OW19871   7.788   3.247   0.489
 6013SOL    HW119872   7.787   3.161   0.447
 6013SOL    HW219873   7.721   3.242   0.557
 6014SOL     OW19874   2.153  13.967  11.081
 6014SOL    HW119875   2.196  14.025  11.018
 6014SOL    HW219876   2.147  14.019  11.161
 6015SOL     OW19877  12.163   3.430   8.525
 6015SOL    HW119878  12.178   3.519   8.494
 6015SOL    HW219879  12.090   3.398   8.473
 6016SOL     OW19880  11.571   4.232  10.106
 6016SOL    HW119881  11.630   4.284  10.161
 6016SOL    HW219882  11.608   4.144  10.107
 6017SOL     OW19883  12.096  12.983   3.503
 6017SOL    HW119884  12.089  13.042   3.428
 6017SOL    HW219885  12.016  12.931   3.500
 6018SOL     OW19886  11.685   1.548   7.728
 6018SOL    HW119887  11.665   1.623   7.786
 6018SOL    HW219888  11.671   1.582   7.640
 6019SOL     OW19889  13.686   2.401   3.112
 6019SOL    HW119890  13.745   2.429   3.182
 6019SOL    HW219891  13.725   2.321   3.078
 6020SOL     OW19892  12.048  12.754   3.770
 6020SOL    HW119893  12.128  12.727   3.816
 6020SOL    HW219894  11.977  12.730   3.830
 6021SOL     OW19895   1.412   4.034   6.985
 6021SOL    HW119896   1.436   3.950   7.022
 6021SOL    HW219897   1.403   4.092   7.061
 6022SOL     OW19898   8.421   7.451   0.717
 6022SOL    HW119899   8.455   7.390   0.783
 6022SOL    HW219900   8.475   7.529   0.727
 6023SOL     OW19901   7.483   1.393  14.509
 6023SOL    HW119902   7.489   1.333  14.583
 6023SOL    HW219903   7.475   1.337  14.432
 6024SOL     OW19904   1.411  12.666  11.962
 6024SOL    HW119905   1.324  12.696  11.935
 6024SOL    HW219906   1.424  12.707  12.048
 6025SOL     OW19907   2.794   1.571   9.699
 6025SOL    HW119908   2.804   1.643   9.636
 6025SOL    HW219909   2.734   1.605   9.765
 6026SOL     OW19910  13.466   1.342  10.135
 6026SOL    HW119911  13.506   1.408  10.078
 6026SOL    HW219912  13.540   1.304  10.183
 6027SOL     OW19913   4.276   5.439  13.130
 6027SOL    HW119914   4.222   5.513  13.104
 6027SOL    HW219915   4.353   5.443  13.072
 6028SOL     OW19916   0.709   1.267   0.249
 6028SOL    HW119917   0.731   1.186   0.203
 6028SOL    HW219918   0.630   1.246   0.299
 6029SOL     OW19919  14.647   6.644  10.813
 6029SOL    HW119920  14.730   6.655  10.859
 6029SOL    HW219921  14.644   6.718  10.752
 6030SOL     OW19922   6.426   5.726   8.349
 6030SOL    HW119923   6.448   5.643   8.308
 6030SOL    HW219924   6.510   5.770   8.361
 6031SOL     OW19925  11.697   7.768  10.974
 6031SOL    HW119926  11.614   7.816  10.971
 6031SOL    HW219927  11.750   7.815  11.038
 6032SOL     OW19928  11.351   3.999  10.726
 6032SOL    HW119929  11.384   4.016  10.638
 6032SOL    HW219930  11.275   4.057  10.735
 6033SOL     OW19931   1.964  13.806   6.435
 6033SOL    HW119932   1.945  13.717   6.465
 6033SOL    HW219933   2.035  13.796   6.372
 6034SOL     OW19934   6.075   9.352  12.531
 6034SOL    HW119935   5.993   9.328  12.573
 6034SOL    HW219936   6.089   9.444  12.556
 6035SOL     OW19937  12.830   7.238   7.094
 6035SOL    HW119938  12.810   7.151   7.128
 6035SOL    HW219939  12.807   7.297   7.165
 6036SOL     OW19940   4.711  13.894  10.321
 6036SOL    HW119941   4.628  13.866  10.284
 6036SOL    HW219942   4.694  13.901  10.415
 6037SOL     OW19943   9.055   5.698  10.099
 6037SOL    HW119944   8.966   5.726  10.080
 6037SOL    HW219945   9.063   5.706  10.194
 6038SOL     OW19946   8.220   7.644  12.173
 6038SOL    HW119947   8.241   7.573  12.112
 6038SOL    HW219948   8.144   7.612  12.222
 6039SOL     OW19949  13.828   5.522   4.615
 6039SOL    HW119950  13.856   5.486   4.699
 6039SOL    HW219951  13.905   5.568   4.582
 6040SOL     OW19952   8.680   4.520   9.112
 6040SOL    HW119953   8.650   4.475   9.191
 6040SOL    HW219954   8.657   4.612   9.126
 6041SOL     OW19955   4.659   1.820  11.162
 6041SOL    HW119956   4.589   1.886  11.160
 6041SOL    HW219957   4.738   1.871  11.178
 6042SOL     OW19958   1.752   8.731   7.878
 6042SOL    HW119959   1.760   8.826   7.868
 6042SOL    HW219960   1.691   8.705   7.809
 6043SOL     OW19961   4.085  14.085   8.094
 6043SOL    HW119962   4.134  14.087   8.013
 6043SOL    HW219963   4.121  14.011   8.143
 6044SOL     OW19964   9.019   3.389   4.254
 6044SOL    HW119965   9.068   3.471   4.244
 6044SOL    HW219966   9.053   3.332   4.185
 6045SOL     OW19967   2.632   8.415  11.165
 6045SOL    HW119968   2.566   8.443  11.228
 6045SOL    HW219969   2.583   8.375  11.094
 6046SOL     OW19970  12.834   3.486   7.446
 6046SOL    HW119971  12.918   3.458   7.481
 6046SOL    HW219972  12.780   3.504   7.524
 6047SOL     OW19973  12.388  14.818  13.718
 6047SOL    HW119974  12.414  14.866  13.797
 6047SOL    HW219975  12.345   0.010  13.663
 6048SOL     OW19976   5.678  14.357  13.927
 6048SOL    HW119977   5.748  14.333  13.867
 6048SOL    HW219978   5.639  14.273  13.954
 6049SOL     OW19979   5.084   0.762  13.526
 6049SOL    HW119980   5.046   0.713  13.598
 6049SOL    HW219981   5.041   0.848  13.530
 6050SOL     OW19982   7.933  11.635   5.754
 6050SOL    HW119983   7.841  11.649   5.775
 6050SOL    HW219984   7.933  11.609   5.662
 6051SOL     OW19985   6.570  10.012   3.149
 6051SOL    HW119986   6.632  10.034   3.218
 6051SOL    HW219987   6.532   9.928   3.176
 6052SOL     OW19988   5.228   3.848   4.772
 6052SOL    HW119989   5.188   3.817   4.854
 6052SOL    HW219990   5.183   3.930   4.754
 6053SOL     OW19991   6.696   2.303   7.183
 6053SOL    HW119992   6.700   2.261   7.097
 6053SOL    HW219993   6.604   2.299   7.207
 6054SOL     OW19994  10.552  12.557   3.884
 6054SOL    HW119995  10.509  12.613   3.948
 6054SOL    HW219996  10.507  12.576   3.801
 6055SOL     OW19997   1.332   5.845   5.909
 6055SOL    HW119998   1.301   5.873   5.823
 6055SOL    HW219999   1.384   5.919   5.941
 6056SOL     OW20000  14.402   1.058   6.774
 6056SOL    HW120001  14.328   1.019   6.728
 6056SOL    HW220002  14.466   1.076   6.705
 6057SOL     OW20003  11.122  13.438   7.622
 6057SOL    HW120004  11.080  13.501   7.680
 6057SOL    HW220005  11.050  13.390   7.581
 6058SOL     OW20006   5.054   3.064  10.081
 6058SOL    HW120007   5.086   3.154  10.086
 6058SOL    HW220008   5.040   3.048   9.988
 6059SOL     OW20009   3.289  12.363   7.179
 6059SOL    HW120010   3.360  12.394   7.123
 6059SOL    HW220011   3.269  12.438   7.235
 6060SOL     OW20012   8.408   2.493   0.415
 6060SOL    HW120013   8.377   2.447   0.493
 6060SOL    HW220014   8.492   2.530   0.441
 6061SOL     OW20015   1.788   6.123  13.178
 6061SOL    HW120016   1.804   6.153  13.088
 6061SOL    HW220017   1.830   6.037  13.182
 6062SOL     OW20018   0.127  13.731   2.012
 6062SOL    HW120019   0.154  13.696   2.097
 6062SOL    HW220020   0.184  13.686   1.949
 6063SOL     OW20021   0.371  12.665  11.879
 6063SOL    HW120022   0.344  12.581  11.916
 6063SOL    HW220023   0.412  12.641  11.796
 6064SOL     OW20024  12.772   7.640   9.204
 6064SOL    HW120025  12.717   7.593   9.267
 6064SOL    HW220026  12.746   7.606   9.119
 6065SOL     OW20027  14.283  11.027   9.747
 6065SOL    HW120028  14.349  10.958   9.744
 6065SOL    HW220029  14.294  11.066   9.834
 6066SOL     OW20030  13.260   3.665  10.571
 6066SOL    HW120031  13.227   3.720  10.642
 6066SOL    HW220032  13.312   3.598  10.615
 6067SOL     OW20033   6.381   8.817   1.334
 6067SOL    HW120034   6.330   8.773   1.402
 6067SOL    HW220035   6.463   8.768   1.329
 6068SOL     OW20036   1.786   8.633  10.133
 6068SOL    HW120037   1.722   8.567  10.162
 6068SOL    HW220038   1.871   8.592  10.150
 6069SOL     OW20039   9.894   1.727   2.774
 6069SOL    HW120040   9.904   1.822   2.767
 6069SOL    HW220041   9.804   1.710   2.746
 6070SOL     OW20042  10.628   0.586   2.002
 6070SOL    HW120043  10.534   0.602   2.002
 6070SOL    HW220044  10.640   0.506   1.950
 6071SOL     OW20045   9.734   8.744  11.688
 6071SOL    HW120046   9.826   8.766  11.705
 6071SOL    HW220047   9.730   8.725  11.595
 6072SOL     OW20048   6.414  14.571  12.616
 6072SOL    HW120049   6.460  14.615  12.687
 6072SOL    HW220050   6.469  14.585  12.539
 6073SOL     OW20051   1.356  11.888   6.987
 6073SOL    HW120052   1.280  11.893   7.046
 6073SOL    HW220053   1.411  11.962   7.012
 6074SOL     OW20054   6.938   3.629   7.954
 6074SOL    HW120055   6.960   3.613   7.862
 6074SOL    HW220056   6.908   3.544   7.987
 6075SOL     OW20057   2.433   3.993  11.076
 6075SOL    HW120058   2.496   4.034  11.018
 6075SOL    HW220059   2.350   4.038  11.057
 6076SOL     OW20060   2.413   9.351   3.050
 6076SOL    HW120061   2.452   9.436   3.029
 6076SOL    HW220062   2.488   9.295   3.071
 6077SOL     OW20063   9.088   7.224   8.354
 6077SOL    HW120064   9.056   7.220   8.444
 6077SOL    HW220065   9.009   7.217   8.300
 6078SOL     OW20066  13.031   4.570   9.530
 6078SOL    HW120067  12.954   4.624   9.549
 6078SOL    HW220068  13.029   4.560   9.434
 6079SOL     OW20069   7.309   1.487   8.244
 6079SOL    HW120070   7.234   1.447   8.289
 6079SOL    HW220071   7.274   1.512   8.158
 6080SOL     OW20072  14.280   4.546  14.471
 6080SOL    HW120073  14.296   4.452  14.476
 6080SOL    HW220074  14.272   4.564  14.377
 6081SOL     OW20075   6.336   5.712   4.917
 6081SOL    HW120076   6.428   5.693   4.935
 6081SOL    HW220077   6.314   5.657   4.841
 6082SOL     OW20078  12.873   8.788  10.583
 6082SOL    HW120079  12.778   8.801  10.574
 6082SOL    HW220080  12.891   8.804  10.675
 6083SOL     OW20081   7.725   3.166   1.990
 6083SOL    HW120082   7.743   3.258   2.006
 6083SOL    HW220083   7.632   3.163   1.970
 6084SOL     OW20084   2.815   9.314   3.340
 6084SOL    HW120085   2.751   9.243   3.354
 6084SOL    HW220086   2.885   9.295   3.402
 6085SOL     OW20087   0.193   0.102   1.818
 6085SOL    HW120088   0.241   0.150   1.886
 6085SOL    HW220089   0.234   0.015   1.817
 6086SOL     OW20090   2.321  12.281  12.540
 6086SOL    HW120091   2.304  12.364  12.586
 6086SOL    HW220092   2.234  12.250  12.513
 6087SOL     OW20093   6.489   9.267  14.072
 6087SOL    HW120094   6.520   9.314  13.995
 6087SOL    HW220095   6.412   9.219  14.040
 6088SOL     OW20096   1.465  14.296   6.818
 6088SOL    HW120097   1.485  14.219   6.765
 6088SOL    HW220098   1.375  14.282   6.847
 6089SOL     OW20099   8.157   5.072   9.983
 6089SOL    HW120100   8.148   5.017  10.061
 6089SOL    HW220101   8.111   5.023   9.914
 6090SOL     OW20102   8.540   7.430   6.987
 6090SOL    HW120103   8.578   7.394   7.067
 6090SOL    HW220104   8.449   7.449   7.010
 6091SOL     OW20105   0.261   9.137   6.591
 6091SOL    HW120106   0.181   9.190   6.589
 6091SOL    HW220107   0.288   9.139   6.682
 6092SOL     OW20108  14.862   5.671   1.409
 6092SOL    HW120109  14.852   5.579   1.433
 6092SOL    HW220110  14.873   5.670   1.314
 6093SOL     OW20111   8.178  11.114   8.397
 6093SOL    HW120112   8.156  11.206   8.378
 6093SOL    HW220113   8.130  11.095   8.478
 6094SOL     OW20114   6.849   0.995   4.801
 6094SOL    HW120115   6.849   1.090   4.787
 6094SOL    HW220116   6.796   0.960   4.730
 6095SOL     OW20117  12.907  11.623  10.490
 6095SOL    HW120118  12.815  11.604  10.505
 6095SOL    HW220119  12.909  11.713  10.458
 6096SOL     OW20120   8.678   3.347   0.868
 6096SOL    HW120121   8.614   3.362   0.799
 6096SOL    HW220122   8.656   3.411   0.936
 6097SOL     OW20123  14.863  13.661   1.063
 6097SOL    HW120124   0.048  13.586   1.083
 6097SOL    HW220125  14.779  13.621   1.042
 6098SOL     OW20126  14.538  13.954   9.276
 6098SOL    HW120127  14.472  13.985   9.215
 6098SOL    HW220128  14.580  14.033   9.309
 6099SOL     OW20129  14.417   6.865  13.862
 6099SOL    HW120130  14.409   6.777  13.827
 6099SOL    HW220131  14.401   6.922  13.787
 6100SOL     OW20132   4.908   7.973  11.127
 6100SOL    HW120133   4.982   7.930  11.171
 6100SOL    HW220134   4.831   7.926  11.159
 6101SOL     OW20135   2.252   9.206   4.843
 6101SOL    HW120136   2.215   9.246   4.922
 6101SOL    HW220137   2.315   9.271   4.811
 6102SOL     OW20138   2.237  14.583   7.973
 6102SOL    HW120139   2.215  14.494   8.000
 6102SOL    HW220140   2.153  14.629   7.974
 6103SOL     OW20141   1.756  12.302   9.087
 6103SOL    HW120142   1.664  12.280   9.099
 6103SOL    HW220143   1.788  12.320   9.175
 6104SOL     OW20144   9.377   9.192   7.814
 6104SOL    HW120145   9.334   9.274   7.790
 6104SOL    HW220146   9.326   9.160   7.889
 6105SOL     OW20147   7.912   3.828   7.508
 6105SOL    HW120148   7.929   3.901   7.567
 6105SOL    HW220149   7.994   3.779   7.505
 6106SOL     OW20150   5.541   5.445   2.105
 6106SOL    HW120151   5.580   5.516   2.156
 6106SOL    HW220152   5.451   5.440   2.137
 6107SOL     OW20153   9.621   1.283   9.410
 6107SOL    HW120154   9.658   1.369   9.430
 6107SOL    HW220155   9.651   1.264   9.321
 6108SOL     OW20156  11.003   4.166   7.198
 6108SOL    HW120157  10.928   4.224   7.191
 6108SOL    HW220158  10.986   4.096   7.135
 6109SOL     OW20159  11.556   6.580   4.667
 6109SOL    HW120160  11.645   6.546   4.676
 6109SOL    HW220161  11.513   6.554   4.749
 6110SOL     OW20162   8.001   3.193  13.416
 6110SOL    HW120163   8.026   3.107  13.382
 6110SOL    HW220164   7.992   3.180  13.511
 6111SOL     OW20165   5.133  14.816   9.014
 6111SOL    HW120166   5.106  14.788   9.101
 6111SOL    HW220167   5.197   0.013   9.030
 6112SOL     OW20168   0.408   3.198   4.236
 6112SOL    HW120169   0.331   3.210   4.181
 6112SOL    HW220170   0.392   3.253   4.313
 6113SOL     OW20171  11.965   9.644  14.330
 6113SOL    HW120172  11.943   9.711  14.395
 6113SOL    HW220173  12.050   9.610  14.358
 6114SOL     OW20174  10.217   7.691   2.192
 6114SOL    HW120175  10.299   7.730   2.163
 6114SOL    HW220176  10.165   7.764   2.224
 6115SOL     OW20177   6.993   6.202   1.869
 6115SOL    HW120178   7.008   6.280   1.922
 6115SOL    HW220179   6.956   6.138   1.929
 6116SOL     OW20180  14.310  12.236  13.323
 6116SOL    HW120181  14.302  12.235  13.227
 6116SOL    HW220182  14.283  12.325  13.347
 6117SOL     OW20183  13.866  10.222   7.188
 6117SOL    HW120184  13.855  10.130   7.166
 6117SOL    HW220185  13.794  10.242   7.248
 6118SOL     OW20186  10.320   8.593   7.762
 6118SOL    HW120187  10.276   8.609   7.846
 6118SOL    HW220188  10.352   8.503   7.768
 6119SOL     OW20189  10.811   0.219  10.213
 6119SOL    HW120190  10.799   0.304  10.256
 6119SOL    HW220191  10.866   0.169  10.274
 6120SOL     OW20192  11.132  10.937   7.777
 6120SOL    HW120193  11.047  10.980   7.787
 6120SOL    HW220194  11.119  10.851   7.817
 6121SOL     OW20195   1.978   1.931   8.787
 6121SOL    HW120196   1.999   1.855   8.733
 6121SOL    HW220197   1.954   2.000   8.724
 6122SOL     OW20198   6.384  13.363  13.081
 6122SOL    HW120199   6.359  13.310  13.156
 6122SOL    HW220200   6.457  13.316  13.041
 6123SOL     OW20201   3.681   0.755   7.872
 6123SOL    HW120202   3.677   0.735   7.966
 6123SOL    HW220203   3.758   0.810   7.862
 6124SOL     OW20204   4.316   8.283   4.845
 6124SOL    HW120205   4.294   8.349   4.779
 6124SOL    HW220206   4.304   8.199   4.801
 6125SOL     OW20207   8.357   3.902  12.661
 6125SOL    HW120208   8.399   3.913  12.575
 6125SOL    HW220209   8.407   3.832  12.703
 6126SOL     OW20210  14.863  14.338   9.909
 6126SOL    HW120211  14.807  14.267   9.939
 6126SOL    HW220212  14.860  14.403   9.980
 6127SOL     OW20213   3.097   9.527   4.425
 6127SOL    HW120214   3.007   9.516   4.454
 6127SOL    HW220215   3.132   9.596   4.481
 6128SOL     OW20216  12.915  10.600   3.323
 6128SOL    HW120217  12.875  10.665   3.380
 6128SOL    HW220218  12.923  10.522   3.379
 6129SOL     OW20219   9.714  13.925   8.349
 6129SOL    HW120220   9.703  13.863   8.278
 6129SOL    HW220221   9.666  13.885   8.423
 6130SOL     OW20222  13.777  14.399   8.720
 6130SOL    HW120223  13.711  14.465   8.700
 6130SOL    HW220224  13.729  14.330   8.766
 6131SOL     OW20225   8.942  13.157   1.882
 6131SOL    HW120226   8.991  13.081   1.912
 6131SOL    HW220227   8.938  13.214   1.959
 6132SOL     OW20228   7.015  12.784   0.815
 6132SOL    HW120229   7.040  12.873   0.790
 6132SOL    HW220230   6.966  12.751   0.740
 6133SOL     OW20231  10.522   7.568   5.325
 6133SOL    HW120232  10.427   7.565   5.336
 6133SOL    HW220233  10.538   7.519   5.245
 6134SOL     OW20234   4.404   0.733   7.250
 6134SOL    HW120235   4.486   0.775   7.226
 6134SOL    HW220236   4.429   0.668   7.317
 6135SOL     OW20237  13.853  14.300   5.565
 6135SOL    HW120238  13.937  14.255   5.561
 6135SOL    HW220239  13.796  14.248   5.508
 6136SOL     OW20240   2.708   9.714   5.584
 6136SOL    HW120241   2.752   9.781   5.532
 6136SOL    HW220242   2.737   9.631   5.547
 6137SOL     OW20243   3.074  10.423   1.160
 6137SOL    HW120244   3.084  10.338   1.119
 6137SOL    HW220245   3.163  10.459   1.164
 6138SOL     OW20246  12.515   3.442  14.639
 6138SOL    HW120247  12.589   3.502  14.627
 6138SOL    HW220248  12.459   3.485  14.704
 6139SOL     OW20249  10.109   1.167  11.817
 6139SOL    HW120250  10.097   1.076  11.793
 6139SOL    HW220251  10.144   1.209  11.738
 6140SOL     OW20252  11.681   7.747   5.212
 6140SOL    HW120253  11.676   7.713   5.123
 6140SOL    HW220254  11.721   7.677   5.263
 6141SOL     OW20255  14.020  10.817  12.185
 6141SOL    HW120256  14.110  10.784  12.177
 6141SOL    HW220257  14.027  10.911  12.170
 6142SOL     OW20258  14.426   0.115   3.088
 6142SOL    HW120259  14.404   0.081   3.001
 6142SOL    HW220260  14.482   0.191   3.071
 6143SOL     OW20261   4.234   0.814   7.836
 6143SOL    HW120262   4.295   0.866   7.783
 6143SOL    HW220263   4.289   0.749   7.879
 6144SOL     OW20264   7.721   1.673  12.546
 6144SOL    HW120265   7.730   1.747  12.606
 6144SOL    HW220266   7.662   1.613  12.590
 6145SOL     OW20267   8.943  11.210  10.973
 6145SOL    HW120268   8.897  11.210  11.057
 6145SOL    HW220269   9.020  11.156  10.988
 6146SOL     OW20270   6.461  14.430   7.071
 6146SOL    HW120271   6.392  14.478   7.025
 6146SOL    HW220272   6.470  14.348   7.023
 6147SOL     OW20273   1.794   1.674   4.078
 6147SOL    HW120274   1.768   1.693   3.988
 6147SOL    HW220275   1.851   1.598   4.071
 6148SOL     OW20276  11.513   0.156   7.171
 6148SOL    HW120277  11.459   0.221   7.124
 6148SOL    HW220278  11.603   0.181   7.150
 6149SOL     OW20279   6.128  13.883   8.952
 6149SOL    HW120280   6.098  13.922   8.870
 6149SOL    HW220281   6.144  13.958   9.010
 6150SOL     OW20282  11.617  13.049   9.611
 6150SOL    HW120283  11.613  13.068   9.517
 6150SOL    HW220284  11.710  13.039   9.629
 6151SOL     OW20285  10.305   2.484   6.270
 6151SOL    HW120286  10.270   2.572   6.263
 6151SOL    HW220287  10.248   2.440   6.333
 6152SOL     OW20288   2.374   3.862   0.411
 6152SOL    HW120289   2.278   3.864   0.419
 6152SOL    HW220290   2.396   3.945   0.369
 6153SOL     OW20291   8.679   9.484   9.918
 6153SOL    HW120292   8.759   9.515   9.874
 6153SOL    HW220293   8.710   9.449  10.001
 6154SOL     OW20294  14.167   4.938   6.980
 6154SOL    HW120295  14.261   4.946   6.997
 6154SOL    HW220296  14.126   4.951   7.066
 6155SOL     OW20297   9.361   5.733  13.773
 6155SOL    HW120298   9.323   5.818  13.751
 6155SOL    HW220299   9.293   5.670  13.752
 6156SOL     OW20300   1.127   9.921   5.857
 6156SOL    HW120301   1.204   9.909   5.802
 6156SOL    HW220302   1.054   9.887   5.805
 6157SOL     OW20303   0.901   6.901   7.828
 6157SOL    HW120304   0.808   6.877   7.822
 6157SOL    HW220305   0.908   6.946   7.913
 6158SOL     OW20306   3.480  10.463  10.221
 6158SOL    HW120307   3.476  10.518  10.143
 6158SOL    HW220308   3.473  10.373  10.187
 6159SOL     OW20309  13.738  10.201   2.725
 6159SOL    HW120310  13.824  10.242   2.714
 6159SOL    HW220311  13.755  10.124   2.779
 6160SOL     OW20312  11.530  11.544   0.134
 6160SOL    HW120313  11.451  11.493   0.151
 6160SOL    HW220314  11.601  11.488   0.166
 6161SOL     OW20315   9.614   2.916   2.604
 6161SOL    HW120316   9.562   2.882   2.677
 6161SOL    HW220317   9.621   3.010   2.621
 6162SOL     OW20318  12.925   3.887  10.495
 6162SOL    HW120319  12.838   3.850  10.479
 6162SOL    HW220320  12.908   3.979  10.516
 6163SOL     OW20321   3.566  10.849   7.015
 6163SOL    HW120322   3.613  10.923   6.977
 6163SOL    HW220323   3.579  10.859   7.110
 6164SOL     OW20324   0.689  13.570  11.747
 6164SOL    HW120325   0.748  13.496  11.759
 6164SOL    HW220326   0.620  13.557  11.812
 6165SOL     OW20327  10.300  14.410   0.852
 6165SOL    HW120328  10.263  14.356   0.782
 6165SOL    HW220329  10.348  14.479   0.806
 6166SOL     OW20330  13.194  14.603   3.824
 6166SOL    HW120331  13.227  14.691   3.842
 6166SOL    HW220332  13.099  14.612   3.830
 6167SOL     OW20333  13.033  12.045   6.778
 6167SOL    HW120334  13.081  11.962   6.773
 6167SOL    HW220335  13.011  12.066   6.688
 6168SOL     OW20336   2.737   4.661   3.591
 6168SOL    HW120337   2.730   4.595   3.659
 6168SOL    HW220338   2.650   4.703   3.588
 6169SOL     OW20339   4.288   8.103   2.311
 6169SOL    HW120340   4.307   8.023   2.361
 6169SOL    HW220341   4.226   8.151   2.366
 6170SOL     OW20342   4.094   6.233   0.270
 6170SOL    HW120343   4.041   6.311   0.290
 6170SOL    HW220344   4.032   6.161   0.266
 6171SOL     OW20345   7.176   6.210   7.606
 6171SOL    HW120346   7.130   6.279   7.654
 6171SOL    HW220347   7.197   6.145   7.673
 6172SOL     OW20348   5.584   5.103  13.826
 6172SOL    HW120349   5.657   5.055  13.865
 6172SOL    HW220350   5.530   5.035  13.786
 6173SOL     OW20351   0.538   3.221   7.088
 6173SOL    HW120352   0.518   3.146   7.032
 6173SOL    HW220353   0.548   3.184   7.175
 6174SOL     OW20354   7.969  14.529   9.791
 6174SOL    HW120355   7.939  14.585   9.720
 6174SOL    HW220356   7.924  14.445   9.777
 6175SOL     OW20357   3.341   3.043  10.225
 6175SOL    HW120358   3.349   3.128  10.269
 6175SOL    HW220359   3.412   2.990  10.263
 6176SOL     OW20360   4.376   0.329   1.977
 6176SOL    HW120361   4.370   0.251   2.032
 6176SOL    HW220362   4.376   0.402   2.040
 6177SOL     OW20363   2.168   6.165  13.973
 6177SOL    HW120364   2.100   6.229  13.993
 6177SOL    HW220365   2.226   6.168  14.050
 6178SOL     OW20366   6.878   0.677  11.811
 6178SOL    HW120367   6.894   0.651  11.902
 6178SOL    HW220368   6.786   0.654  11.795
 6179SOL     OW20369   1.756   2.628   5.853
 6179SOL    HW120370   1.691   2.599   5.788
 6179SOL    HW220371   1.715   2.703   5.895
 6180SOL     OW20372   3.761   8.661   9.616
 6180SOL    HW120373   3.758   8.570   9.645
 6180SOL    HW220374   3.810   8.707   9.684
 6181SOL     OW20375   2.976  11.333   4.096
 6181SOL    HW120376   2.882  11.346   4.080
 6181SOL    HW220377   3.019  11.400   4.044
 6182SOL     OW20378   2.178  11.916   2.029
 6182SOL    HW120379   2.238  11.984   2.058
 6182SOL    HW220380   2.140  11.882   2.110
 6183SOL     OW20381   7.988  10.777   4.665
 6183SOL    HW120382   7.915  10.838   4.659
 6183SOL    HW220383   7.949  10.695   4.695
 6184SOL     OW20384   6.108  10.151   4.336
 6184SOL    HW120385   6.020  10.132   4.305
 6184SOL    HW220386   6.111  10.247   4.342
 6185SOL     OW20387   8.222   3.662  11.631
 6185SOL    HW120388   8.138   3.615  11.628
 6185SOL    HW220389   8.209   3.731  11.696
 6186SOL     OW20390   0.272   5.498   4.203
 6186SOL    HW120391   0.318   5.445   4.138
 6186SOL    HW220392   0.190   5.523   4.161
 6187SOL     OW20393  14.632   5.896   6.430
 6187SOL    HW120394  14.591   5.892   6.517
 6187SOL    HW220395  14.626   5.988   6.405
 6188SOL     OW20396   5.960  12.046   6.387
 6188SOL    HW120397   5.906  12.058   6.309
 6188SOL    HW220398   5.961  11.951   6.401
 6189SOL     OW20399   6.581  13.087   4.627
 6189SOL    HW120400   6.548  13.018   4.568
 6189SOL    HW220401   6.595  13.162   4.571
 6190SOL     OW20402   6.600   4.561   8.244
 6190SOL    HW120403   6.554   4.600   8.170
 6190SOL    HW220404   6.693   4.582   8.229
 6191SOL     OW20405   9.447   7.933   5.034
 6191SOL    HW120406   9.420   7.996   5.101
 6191SOL    HW220407   9.394   7.955   4.958
 6192SOL     OW20408   5.239  10.692   2.666
 6192SOL    HW120409   5.287  10.701   2.584
 6192SOL    HW220410   5.152  10.728   2.647
 6193SOL     OW20411   5.066   6.324   2.523
 6193SOL    HW120412   5.024   6.384   2.585
 6193SOL    HW220413   5.160   6.344   2.531
 6194SOL     OW20414  11.066   0.807  10.057
 6194SOL    HW120415  11.083   0.715  10.036
 6194SOL    HW220416  11.093   0.816  10.149
 6195SOL     OW20417   3.831   8.525   3.258
 6195SOL    HW120418   3.816   8.433   3.238
 6195SOL    HW220419   3.882   8.557   3.183
 6196SOL     OW20420  14.031   7.729   4.179
 6196SOL    HW120421  13.941   7.701   4.194
 6196SOL    HW220422  14.066   7.664   4.118
 6197SOL     OW20423  13.537  10.103   8.682
 6197SOL    HW120424  13.620  10.058   8.664
 6197SOL    HW220425  13.560  10.170   8.747
 6198SOL     OW20426   0.094   0.951   4.903
 6198SOL    HW120427   0.095   0.859   4.879
 6198SOL    HW220428   0.017   0.961   4.959
 6199SOL     OW20429   8.538   1.149  14.510
 6199SOL    HW120430   8.586   1.221  14.551
 6199SOL    HW220431   8.467   1.192  14.463
 6200SOL     OW20432   0.957  12.052   8.954
 6200SOL    HW120433   1.048  12.076   8.966
 6200SOL    HW220434   0.949  11.966   8.995
 6201SOL     OW20435   8.089   6.615   6.827
 6201SOL    HW120436   8.043   6.689   6.787
 6201SOL    HW220437   8.172   6.609   6.780
 6202SOL     OW20438   3.725   7.098   9.507
 6202SOL    HW120439   3.725   7.080   9.601
 6202SOL    HW220440   3.818   7.111   9.485
 6203SOL     OW20441   1.479  12.121   4.764
 6203SOL    HW120442   1.416  12.055   4.792
 6203SOL    HW220443   1.441  12.204   4.792
 6204SOL     OW20444   6.053   1.677  14.261
 6204SOL    HW120445   6.010   1.701  14.342
 6204SOL    HW220446   6.098   1.595  14.281
 6205SOL     OW20447  14.450  11.712  12.684
 6205SOL    HW120448  14.507  11.655  12.631
 6205SOL    HW220449  14.468  11.687  12.774
 6206SOL     OW20450   2.368  14.673   9.254
 6206SOL    HW120451   2.350  14.601   9.314
 6206SOL    HW220452   2.283  14.715   9.240
 6207SOL     OW20453   8.256   0.385   5.944
 6207SOL    HW120454   8.238   0.431   5.862
 6207SOL    HW220455   8.180   0.404   5.999
 6208SOL     OW20456   8.646  13.457  11.451
 6208SOL    HW120457   8.586  13.515  11.497
 6208SOL    HW220458   8.727  13.462  11.501
 6209SOL     OW20459   5.950   3.407  12.565
 6209SOL    HW120460   6.000   3.464  12.624
 6209SOL    HW220461   5.862   3.445  12.563
 6210SOL     OW20462  13.757  10.334   1.127
 6210SOL    HW120463  13.730  10.248   1.095
 6210SOL    HW220464  13.699  10.396   1.083
 6211SOL     OW20465   0.704  11.660   4.849
 6211SOL    HW120466   0.758  11.669   4.927
 6211SOL    HW220467   0.617  11.636   4.882
 6212SOL     OW20468   0.532  11.820  13.541
 6212SOL    HW120469   0.476  11.743  13.555
 6212SOL    HW220470   0.574  11.834  13.625
 6213SOL     OW20471   5.229  10.434   5.708
 6213SOL    HW120472   5.144  10.444   5.751
 6213SOL    HW220473   5.208  10.418   5.616
 6214SOL     OW20474   2.686  14.798   7.609
 6214SOL    HW120475   2.604  14.836   7.577
 6214SOL    HW220476   2.722  14.863   7.668
 6215SOL     OW20477  12.622  14.110   5.591
 6215SOL    HW120478  12.575  14.189   5.617
 6215SOL    HW220479  12.708  14.140   5.562
 6216SOL     OW20480   2.097  13.729   5.176
 6216SOL    HW120481   2.063  13.778   5.251
 6216SOL    HW220482   2.159  13.790   5.135
 6217SOL     OW20483   7.701   7.274   6.270
 6217SOL    HW120484   7.611   7.240   6.276
 6217SOL    HW220485   7.732   7.276   6.360
 6218SOL     OW20486  13.860   8.499   5.491
 6218SOL    HW120487  13.893   8.517   5.579
 6218SOL    HW220488  13.766   8.515   5.497
 6219SOL     OW20489  12.456  10.473  14.412
 6219SOL    HW120490  12.513  10.547  14.433
 6219SOL    HW220491  12.455  10.420  14.492
 6220SOL     OW20492   2.860  12.764  13.544
 6220SOL    HW120493   2.874  12.824  13.471
 6220SOL    HW220494   2.866  12.677  13.505
 6221SOL     OW20495   2.264  12.140   5.139
 6221SOL    HW120496   2.355  12.112   5.131
 6221SOL    HW220497   2.231  12.095   5.217
 6222SOL     OW20498   1.861  10.745   3.390
 6222SOL    HW120499   1.802  10.772   3.461
 6222SOL    HW220500   1.877  10.826   3.341
 6223SOL     OW20501   1.770  12.636   2.762
 6223SOL    HW120502   1.817  12.698   2.819
 6223SOL    HW220503   1.687  12.621   2.807
 6224SOL     OW20504   6.935   0.818   0.968
 6224SOL    HW120505   6.934   0.735   0.922
 6224SOL    HW220506   6.940   0.884   0.898
 6225SOL     OW20507   6.459  11.303   7.306
 6225SOL    HW120508   6.546  11.343   7.297
 6225SOL    HW220509   6.416  11.355   7.374
 6226SOL     OW20510   6.447   0.778   1.095
 6226SOL    HW120511   6.455   0.684   1.085
 6226SOL    HW220512   6.534   0.806   1.126
 6227SOL     OW20513   4.571   3.872   2.143
 6227SOL    HW120514   4.569   3.922   2.061
 6227SOL    HW220515   4.540   3.933   2.209
 6228SOL     OW20516   2.777   7.132   7.910
 6228SOL    HW120517   2.710   7.181   7.957
 6228SOL    HW220518   2.783   7.048   7.956
 6229SOL     OW20519   1.289   8.615   7.985
 6229SOL    HW120520   1.283   8.634   7.891
 6229SOL    HW220521   1.353   8.544   7.991
 6230SOL     OW20522   7.480  12.413  12.303
 6230SOL    HW120523   7.511  12.352  12.370
 6230SOL    HW220524   7.422  12.360  12.248
 6231SOL     OW20525  10.990  11.087  12.349
 6231SOL    HW120526  11.080  11.107  12.375
 6231SOL    HW220527  10.963  11.016  12.408
 6232SOL     OW20528   1.161   0.451  10.520
 6232SOL    HW120529   1.128   0.362  10.534
 6232SOL    HW220530   1.223   0.442  10.447
 6233SOL     OW20531  14.579   8.747   5.319
 6233SOL    HW120532  14.512   8.814   5.328
 6233SOL    HW220533  14.658   8.795   5.295
 6234SOL     OW20534  14.728  14.660  10.741
 6234SOL    HW120535  14.759  14.631  10.827
 6234SOL    HW220536  14.633  14.652  10.746
 6235SOL     OW20537   8.677   7.568  14.016
 6235SOL    HW120538   8.600   7.596  14.065
 6235SOL    HW220539   8.673   7.472  14.017
 6236SOL     OW20540  10.414   0.446  10.973
 6236SOL    HW120541  10.346   0.398  10.925
 6236SOL    HW220542  10.435   0.521  10.918
 6237SOL     OW20543   5.173   9.476   7.875
 6237SOL    HW120544   5.091   9.510   7.910
 6237SOL    HW220545   5.148   9.395   7.830
 6238SOL     OW20546  10.260  10.837   3.612
 6238SOL    HW120547  10.339  10.839   3.558
 6238SOL    HW220548  10.215  10.757   3.586
 6239SOL     OW20549   6.492  12.300   4.195
 6239SOL    HW120550   6.482  12.332   4.105
 6239SOL    HW220551   6.535  12.215   4.185
 6240SOL     OW20552   9.478  10.465   0.287
 6240SOL    HW120553   9.457  10.526   0.358
 6240SOL    HW220554   9.412  10.481   0.220
 6241SOL     OW20555   3.351   7.490  12.702
 6241SOL    HW120556   3.318   7.493  12.612
 6241SOL    HW220557   3.445   7.506  12.694
 6242SOL     OW20558   1.563   3.431   2.713
 6242SOL    HW120559   1.582   3.338   2.701
 6242SOL    HW220560   1.642   3.466   2.754
 6243SOL     OW20561   3.538   5.104  11.134
 6243SOL    HW120562   3.457   5.053  11.140
 6243SOL    HW220563   3.509   5.193  11.115
 6244SOL     OW20564  13.425  12.797   0.239
 6244SOL    HW120565  13.515  12.775   0.214
 6244SOL    HW220566  13.373  12.721   0.212
 6245SOL     OW20567   5.216   5.809   4.274
 6245SOL    HW120568   5.263   5.794   4.357
 6245SOL    HW220569   5.245   5.896   4.246
 6246SOL     OW20570  13.561   3.813   8.890
 6246SOL    HW120571  13.579   3.829   8.797
 6246SOL    HW220572  13.532   3.722   8.893
 6247SOL     OW20573  10.031   3.012  12.066
 6247SOL    HW120574  10.016   2.917  12.066
 6247SOL    HW220575   9.954   3.048  12.109
 6248SOL     OW20576   7.425  10.771   2.332
 6248SOL    HW120577   7.374  10.786   2.411
 6248SOL    HW220578   7.480  10.849   2.323
 6249SOL     OW20579   7.794   9.148   0.252
 6249SOL    HW120580   7.736   9.096   0.307
 6249SOL    HW220581   7.863   9.178   0.311
 6250SOL     OW20582   0.954   6.547   4.052
 6250SOL    HW120583   0.896   6.622   4.063
 6250SOL    HW220584   0.896   6.471   4.055
 6251SOL     OW20585  11.854  10.681   2.215
 6251SOL    HW120586  11.888  10.729   2.290
 6251SOL    HW220587  11.815  10.602   2.252
 6252SOL     OW20588   1.912   4.396  11.143
 6252SOL    HW120589   1.840   4.339  11.118
 6252SOL    HW220590   1.876   4.485  11.136
 6253SOL     OW20591   9.172   4.525  11.902
 6253SOL    HW120592   9.106   4.494  11.964
 6253SOL    HW220593   9.123   4.538  11.821
 6254SOL     OW20594   3.476   9.940   9.157
 6254SOL    HW120595   3.438  10.028   9.154
 6254SOL    HW220596   3.402   9.882   9.142
 6255SOL     OW20597  10.230   1.970   2.804
 6255SOL    HW120598  10.239   1.898   2.866
 6255SOL    HW220599  10.164   1.940   2.741
 6256SOL     OW20600   8.938  10.198   7.850
 6256SOL    HW120601   8.927  10.175   7.942
 6256SOL    HW220602   8.865  10.257   7.831
 6257SOL     OW20603  10.467  10.662  10.022
 6257SOL    HW120604  10.536  10.599  10.042
 6257SOL    HW220605  10.402  10.647  10.090
 6258SOL     OW20606  12.308   1.191   9.990
 6258SOL    HW120607  12.308   1.270   9.935
 6258SOL    HW220608  12.268   1.124   9.935
 6259SOL     OW20609  13.980   5.729  11.324
 6259SOL    HW120610  13.979   5.737  11.420
 6259SOL    HW220611  14.014   5.642  11.307
 6260SOL     OW20612  12.866   9.855  10.120
 6260SOL    HW120613  12.866   9.794  10.194
 6260SOL    HW220614  12.781   9.899  10.124
 6261SOL     OW20615  12.783  11.402   2.894
 6261SOL    HW120616  12.715  11.459   2.928
 6261SOL    HW220617  12.862  11.457   2.891
 6262SOL     OW20618   2.968  11.724  12.632
 6262SOL    HW120619   2.948  11.653  12.693
 6262SOL    HW220620   3.055  11.754  12.658
 6263SOL     OW20621   0.647   5.182  11.996
 6263SOL    HW120622   0.637   5.218  12.084
 6263SOL    HW220623   0.736   5.208  11.970
 6264SOL     OW20624  11.004   4.650   0.248
 6264SOL    HW120625  11.052   4.641   0.331
 6264SOL    HW220626  10.938   4.581   0.252
 6265SOL     OW20627   1.328   5.858  13.891
 6265SOL    HW120628   1.304   5.802  13.965
 6265SOL    HW220629   1.252   5.857  13.834
 6266SOL     OW20630  11.024   3.163   1.948
 6266SOL    HW120631  10.982   3.127   1.870
 6266SOL    HW220632  11.097   3.103   1.966
 6267SOL     OW20633   6.942   8.289   8.066
 6267SOL    HW120634   7.030   8.265   8.038
 6267SOL    HW220635   6.887   8.214   8.043
 6268SOL     OW20636  14.488   3.784   3.531
 6268SOL    HW120637  14.410   3.797   3.477
 6268SOL    HW220638  14.517   3.695   3.512
 6269SOL     OW20639   3.506   2.331   2.975
 6269SOL    HW120640   3.506   2.424   2.999
 6269SOL    HW220641   3.462   2.287   3.048
 6270SOL     OW20642  14.623   2.613   6.126
 6270SOL    HW120643  14.660   2.700   6.110
 6270SOL    HW220644  14.678   2.576   6.195
 6271SOL     OW20645  13.454   4.199  14.557
 6271SOL    HW120646  13.439   4.191  14.463
 6271SOL    HW220647  13.481   4.112  14.585
 6272SOL     OW20648   2.431   6.710  14.604
 6272SOL    HW120649   2.459   6.619  14.593
 6272SOL    HW220650   2.342   6.704  14.639
 6273SOL     OW20651  10.368  10.008   1.261
 6273SOL    HW120652  10.347   9.993   1.168
 6273SOL    HW220653  10.355   9.923   1.303
 6274SOL     OW20654  13.395  10.855   3.667
 6274SOL    HW120655  13.427  10.826   3.581
 6274SOL    HW220656  13.398  10.950   3.662
 6275SOL     OW20657   3.455   0.337  13.464
 6275SOL    HW120658   3.398   0.368  13.394
 6275SOL    HW220659   3.534   0.307  13.419
 6276SOL     OW20660   2.795   3.579   2.155
 6276SOL    HW120661   2.728   3.596   2.090
 6276SOL    HW220662   2.859   3.524   2.110
 6277SOL     OW20663   2.148   6.528   7.941
 6277SOL    HW120664   2.106   6.452   7.979
 6277SOL    HW220665   2.102   6.603   7.979
 6278SOL     OW20666   5.809   1.525  12.204
 6278SOL    HW120667   5.882   1.585  12.221
 6278SOL    HW220668   5.740   1.580  12.167
 6279SOL     OW20669   0.804  13.796  11.686
 6279SOL    HW120670   0.884  13.801  11.738
 6279SOL    HW220671   0.775  13.705  11.694
 6280SOL     OW20672   4.985   1.035   4.963
 6280SOL    HW120673   5.008   1.019   4.871
 6280SOL    HW220674   5.045   1.103   4.991
 6281SOL     OW20675  12.030   3.633   3.185
 6281SOL    HW120676  11.995   3.641   3.096
 6281SOL    HW220677  11.953   3.614   3.239
 6282SOL     OW20678  12.471   5.430   3.777
 6282SOL    HW120679  12.417   5.362   3.816
 6282SOL    HW220680  12.530   5.384   3.717
 6283SOL     OW20681  10.087  14.028  11.440
 6283SOL    HW120682  10.079  14.116  11.404
 6283SOL    HW220683  10.096  14.040  11.534
 6284SOL     OW20684  12.925   8.298   1.986
 6284SOL    HW120685  12.963   8.383   1.964
 6284SOL    HW220686  12.986   8.234   1.950
 6285SOL     OW20687  12.236   5.529   2.481
 6285SOL    HW120688  12.306   5.522   2.416
 6285SOL    HW220689  12.282   5.536   2.565
 6286SOL     OW20690   2.025   3.743  11.210
 6286SOL    HW120691   2.098   3.709  11.262
 6286SOL    HW220692   1.996   3.821  11.259
 6287SOL     OW20693   6.268   1.886  10.679
 6287SOL    HW120694   6.230   1.899  10.591
 6287SOL    HW220695   6.273   1.792  10.689
 6288SOL     OW20696   1.471  11.481   0.166
 6288SOL    HW120697   1.495  11.392   0.141
 6288SOL    HW220698   1.538  11.507   0.230
 6289SOL     OW20699   2.825   3.518  11.516
 6289SOL    HW120700   2.813   3.434  11.471
 6289SOL    HW220701   2.913   3.514  11.552
 6290SOL     OW20702   1.317  12.277   7.576
 6290SOL    HW120703   1.245  12.254   7.517
 6290SOL    HW220704   1.378  12.204   7.569
 6291SOL     OW20705  11.609   1.451  10.913
 6291SOL    HW120706  11.621   1.361  10.944
 6291SOL    HW220707  11.679   1.463  10.849
 6292SOL     OW20708   3.459   0.914   7.474
 6292SOL    HW120709   3.488   0.825   7.457
 6292SOL    HW220710   3.419   0.911   7.561
 6293SOL     OW20711   7.031   7.544  13.162
 6293SOL    HW120712   6.941   7.574  13.169
 6293SOL    HW220713   7.045   7.492  13.241
 6294SOL     OW20714  13.289   9.329   0.799
 6294SOL    HW120715  13.272   9.379   0.719
 6294SOL    HW220716  13.221   9.357   0.859
 6295SOL     OW20717   4.932   3.731   6.216
 6295SOL    HW120718   4.869   3.790   6.174
 6295SOL    HW220719   4.878   3.663   6.257
 6296SOL     OW20720   1.553   4.332   0.507
 6296SOL    HW120721   1.524   4.307   0.595
 6296SOL    HW220722   1.563   4.427   0.511
 6297SOL     OW20723   4.395  11.868  12.075
 6297SOL    HW120724   4.309  11.903  12.097
 6297SOL    HW220725   4.410  11.897  11.985
 6298SOL     OW20726   1.988  13.951   2.609
 6298SOL    HW120727   1.923  13.888   2.641
 6298SOL    HW220728   1.949  13.988   2.530
 6299SOL     OW20729   7.737   1.840  12.774
 6299SOL    HW120730   7.808   1.890  12.816
 6299SOL    HW220731   7.687   1.804  12.847
 6300SOL     OW20732  12.254   3.385  12.635
 6300SOL    HW120733  12.321   3.367  12.569
 6300SOL    HW220734  12.199   3.454  12.596
 6301SOL     OW20735   2.922   0.228   5.921
 6301SOL    HW120736   2.903   0.302   5.864
 6301SOL    HW220737   3.007   0.196   5.890
 6302SOL     OW20738   7.877  14.728  12.840
 6302SOL    HW120739   7.965  14.714  12.803
 6302SOL    HW220740   7.826  14.654  12.807
 6303SOL     OW20741   3.737  14.169   3.527
 6303SOL    HW120742   3.720  14.132   3.614
 6303SOL    HW220743   3.828  14.198   3.531
 6304SOL     OW20744  11.610  14.102   7.259
 6304SOL    HW120745  11.702  14.083   7.273
 6304SOL    HW220746  11.573  14.020   7.225
 6305SOL     OW20747   6.952   1.463   5.798
 6305SOL    HW120748   6.871   1.444   5.846
 6305SOL    HW220749   6.977   1.550   5.829
 6306SOL     OW20750   4.349   0.271   4.567
 6306SOL    HW120751   4.310   0.193   4.607
 6306SOL    HW220752   4.274   0.315   4.526
 6307SOL     OW20753   8.630  13.901   5.253
 6307SOL    HW120754   8.633  13.824   5.196
 6307SOL    HW220755   8.536  13.918   5.266
 6308SOL     OW20756   5.516  14.775   7.569
 6308SOL    HW120757   5.516  14.869   7.588
 6308SOL    HW220758   5.493  14.770   7.476
 6309SOL     OW20759   0.649  14.335   1.807
 6309SOL    HW120760   0.578  14.271   1.813
 6309SOL    HW220761   0.715  14.304   1.868
 6310SOL     OW20762  10.681  14.399   2.542
 6310SOL    HW120763  10.651  14.486   2.566
 6310SOL    HW220764  10.637  14.340   2.604
 6311SOL     OW20765  10.333   4.620   8.150
 6311SOL    HW120766  10.421   4.655   8.142
 6311SOL    HW220767  10.343   4.525   8.141
 6312SOL     OW20768   3.175   8.872  10.072
 6312SOL    HW120769   3.268   8.893  10.067
 6312SOL    HW220770   3.131   8.957  10.077
 6313SOL     OW20771   0.669  10.399  14.659
 6313SOL    HW120772   0.650  10.413  14.566
 6313SOL    HW220773   0.657  10.305  14.672
 6314SOL     OW20774   3.056   2.355  10.238
 6314SOL    HW120775   3.049   2.445  10.271
 6314SOL    HW220776   2.966   2.330  10.217
 6315SOL     OW20777  10.624   1.280   4.670
 6315SOL    HW120778  10.547   1.262   4.617
 6315SOL    HW220779  10.626   1.210   4.735
 6316SOL     OW20780  13.161   5.300   9.335
 6316SOL    HW120781  13.089   5.352   9.371
 6316SOL    HW220782  13.230   5.306   9.400
 6317SOL     OW20783   4.325  10.533   2.117
 6317SOL    HW120784   4.252  10.498   2.066
 6317SOL    HW220785   4.302  10.625   2.130
 6318SOL     OW20786   8.672   4.198   5.059
 6318SOL    HW120787   8.719   4.162   4.984
 6318SOL    HW220788   8.730   4.185   5.134
 6319SOL     OW20789   3.723   7.441   5.961
 6319SOL    HW120790   3.799   7.383   5.953
 6319SOL    HW220791   3.673   7.405   6.034
 6320SOL     OW20792   6.549  11.635   4.623
 6320SOL    HW120793   6.469  11.621   4.675
 6320SOL    HW220794   6.604  11.689   4.679
 6321SOL     OW20795   2.370  14.435   3.627
 6321SOL    HW120796   2.394  14.346   3.602
 6321SOL    HW220797   2.309  14.424   3.700
 6322SOL     OW20798   3.368   1.841   4.127
 6322SOL    HW120799   3.359   1.788   4.206
 6322SOL    HW220800   3.279   1.866   4.104
 6323SOL     OW20801   6.699  11.412   6.762
 6323SOL    HW120802   6.676  11.446   6.676
 6323SOL    HW220803   6.792  11.392   6.755
 6324SOL     OW20804   5.287   4.776   0.134
 6324SOL    HW120805   5.355   4.770   0.067
 6324SOL    HW220806   5.316   4.847   0.191
 6325SOL     OW20807   6.708   2.577  12.627
 6325SOL    HW120808   6.660   2.569  12.544
 6325SOL    HW220809   6.644   2.555  12.694
 6326SOL     OW20810   6.364  11.849  11.173
 6326SOL    HW120811   6.345  11.757  11.194
 6326SOL    HW220812   6.303  11.870  11.102
 6327SOL     OW20813   2.046   1.246  11.028
 6327SOL    HW120814   2.005   1.174  11.077
 6327SOL    HW220815   2.026   1.226  10.936
 6328SOL     OW20816  11.785  10.961   9.371
 6328SOL    HW120817  11.778  11.052   9.341
 6328SOL    HW220818  11.737  10.910   9.306
 6329SOL     OW20819   1.682   2.685   0.993
 6329SOL    HW120820   1.625   2.711   1.066
 6329SOL    HW220821   1.656   2.742   0.921
 6330SOL     OW20822   6.693   3.123   3.703
 6330SOL    HW120823   6.613   3.120   3.755
 6330SOL    HW220824   6.730   3.036   3.712
 6331SOL     OW20825   8.374   1.634   1.448
 6331SOL    HW120826   8.318   1.673   1.380
 6331SOL    HW220827   8.348   1.679   1.528
 6332SOL     OW20828   7.112   3.806   5.531
 6332SOL    HW120829   7.088   3.717   5.505
 6332SOL    HW220830   7.084   3.813   5.622
 6333SOL     OW20831  14.067   8.413  14.161
 6333SOL    HW120832  13.994   8.417  14.100
 6333SOL    HW220833  14.145   8.416  14.106
 6334SOL     OW20834   1.213  11.574   3.639
 6334SOL    HW120835   1.248  11.494   3.599
 6334SOL    HW220836   1.119  11.570   3.623
 6335SOL     OW20837   9.568   5.767  10.679
 6335SOL    HW120838   9.647   5.726  10.643
 6335SOL    HW220839   9.566   5.854  10.639
 6336SOL     OW20840   0.328   5.886   6.488
 6336SOL    HW120841   0.256   5.930   6.532
 6336SOL    HW220842   0.386   5.957   6.459
 6337SOL     OW20843  14.681   1.496   3.928
 6337SOL    HW120844  14.651   1.523   4.014
 6337SOL    HW220845  14.601   1.475   3.879
 6338SOL     OW20846  10.114  10.628   7.950
 6338SOL    HW120847  10.049  10.560   7.932
 6338SOL    HW220848  10.122  10.629   8.046
 6339SOL     OW20849   7.323   4.671   8.621
 6339SOL    HW120850   7.400   4.719   8.593
 6339SOL    HW220851   7.250   4.730   8.601
 6340SOL     OW20852  10.199  14.354  10.623
 6340SOL    HW120853  10.168  14.339  10.713
 6340SOL    HW220854  10.217  14.267  10.589
 6341SOL     OW20855   7.458  10.772   4.222
 6341SOL    HW120856   7.396  10.846   4.222
 6341SOL    HW220857   7.413  10.704   4.272
 6342SOL     OW20858   6.118  12.957   5.302
 6342SOL    HW120859   6.093  13.044   5.271
 6342SOL    HW220860   6.202  12.940   5.258
 6343SOL     OW20861  11.608  13.517   7.902
 6343SOL    HW120862  11.538  13.582   7.894
 6343SOL    HW220863  11.685  13.566   7.929
 6344SOL     OW20864   4.630   8.534   0.350
 6344SOL    HW120865   4.607   8.441   0.353
 6344SOL    HW220866   4.637   8.554   0.257
 6345SOL     OW20867  10.811   7.257  10.079
 6345SOL    HW120868  10.896   7.249  10.038
 6345SOL    HW220869  10.830   7.288  10.168
 6346SOL     OW20870   5.619   5.337   5.896
 6346SOL    HW120871   5.701   5.295   5.870
 6346SOL    HW220872   5.567   5.266   5.934
 6347SOL     OW20873  10.945  13.775   6.342
 6347SOL    HW120874  10.997  13.696   6.359
 6347SOL    HW220875  10.859  13.742   6.318
 6348SOL     OW20876   8.020  11.552   4.454
 6348SOL    HW120877   8.024  11.561   4.549
 6348SOL    HW220878   7.961  11.479   4.439
 6349SOL     OW20879   0.633   3.014   1.730
 6349SOL    HW120880   0.540   3.007   1.751
 6349SOL    HW220881   0.663   2.923   1.722
 6350SOL     OW20882  14.140   3.678   9.313
 6350SOL    HW120883  14.174   3.735   9.244
 6350SOL    HW220884  14.146   3.731   9.392
 6351SOL     OW20885  14.089   7.075   6.793
 6351SOL    HW120886  13.998   7.095   6.815
 6351SOL    HW220887  14.121   7.025   6.868
 6352SOL     OW20888   4.964   2.259   4.664
 6352SOL    HW120889   4.969   2.275   4.758
 6352SOL    HW220890   4.895   2.194   4.654
 6353SOL     OW20891   1.867   6.231  10.747
 6353SOL    HW120892   1.849   6.283  10.825
 6353SOL    HW220893   1.902   6.294  10.684
 6354SOL     OW20894   4.674  11.947   8.781
 6354SOL    HW120895   4.720  11.892   8.717
 6354SOL    HW220896   4.685  11.902   8.864
 6355SOL     OW20897   0.048  11.388   0.542
 6355SOL    HW120898   0.143  11.373   0.544
 6355SOL    HW220899   0.010  11.302   0.558
 6356SOL     OW20900   3.432  10.871   0.328
 6356SOL    HW120901   3.392  10.785   0.344
 6356SOL    HW220902   3.525  10.858   0.346
 6357SOL     OW20903   1.024  10.759   6.944
 6357SOL    HW120904   1.067  10.752   6.859
 6357SOL    HW220905   0.995  10.669   6.964
 6358SOL     OW20906   7.007   7.008   4.713
 6358SOL    HW120907   7.048   7.063   4.780
 6358SOL    HW220908   6.993   6.924   4.756
 6359SOL     OW20909  10.631   1.789   8.505
 6359SOL    HW120910  10.625   1.696   8.485
 6359SOL    HW220911  10.598   1.832   8.425
 6360SOL     OW20912   2.590   8.537  10.535
 6360SOL    HW120913   2.608   8.465  10.476
 6360SOL    HW220914   2.507   8.574  10.504
 6361SOL     OW20915  11.109   0.614   3.311
 6361SOL    HW120916  11.095   0.708   3.325
 6361SOL    HW220917  11.201   0.607   3.284
 6362SOL     OW20918   4.795   6.011   4.567
 6362SOL    HW120919   4.730   5.947   4.594
 6362SOL    HW220920   4.762   6.095   4.601
 6363SOL     OW20921   1.229   5.083   0.173
 6363SOL    HW120922   1.296   5.137   0.131
 6363SOL    HW220923   1.250   5.086   0.266
 6364SOL     OW20924  13.926  11.825  12.664
 6364SOL    HW120925  14.002  11.775  12.693
 6364SOL    HW220926  13.874  11.762  12.614
 6365SOL     OW20927   5.227  13.237   4.329
 6365SOL    HW120928   5.222  13.141   4.321
 6365SOL    HW220929   5.320  13.257   4.318
 6366SOL     OW20930   7.326   5.671   5.023
 6366SOL    HW120931   7.258   5.611   5.054
 6366SOL    HW220932   7.284   5.721   4.954
 6367SOL     OW20933   0.217   4.974   3.639
 6367SOL    HW120934   0.211   4.923   3.720
 6367SOL    HW220935   0.144   5.036   3.644
 6368SOL     OW20936   7.504   8.417   5.478
 6368SOL    HW120937   7.418   8.385   5.507
 6368SOL    HW220938   7.486   8.464   5.397
 6369SOL     OW20939   1.465   3.610   9.634
 6369SOL    HW120940   1.446   3.571   9.548
 6369SOL    HW220941   1.424   3.696   9.631
 6370SOL     OW20942   4.109   3.805   7.280
 6370SOL    HW120943   4.154   3.847   7.354
 6370SOL    HW220944   4.169   3.814   7.207
 6371SOL     OW20945   0.913  13.331  13.757
 6371SOL    HW120946   0.861  13.262  13.799
 6371SOL    HW220947   0.972  13.284  13.698
 6372SOL     OW20948  14.745  12.184   4.725
 6372SOL    HW120949  14.811  12.161   4.791
 6372SOL    HW220950  14.700  12.102   4.707
 6373SOL     OW20951   7.030  11.549   9.020
 6373SOL    HW120952   7.105  11.491   9.008
 6373SOL    HW220953   7.054  11.630   8.975
 6374SOL     OW20954   7.163   0.062   2.422
 6374SOL    HW120955   7.077   0.098   2.446
 6374SOL    HW220956   7.165  14.849   2.464
 6375SOL     OW20957  11.617  13.447  11.060
 6375SOL    HW120958  11.583  13.456  10.971
 6375SOL    HW220959  11.698  13.398  11.050
 6376SOL     OW20960   5.663  11.988  13.214
 6376SOL    HW120961   5.600  12.012  13.146
 6376SOL    HW220962   5.623  11.914  13.259
 6377SOL     OW20963   5.050   2.760  14.326
 6377SOL    HW120964   5.077   2.678  14.285
 6377SOL    HW220965   5.012   2.733  14.410
 6378SOL     OW20966  13.587   5.603  11.794
 6378SOL    HW120967  13.523   5.589  11.864
 6378SOL    HW220968  13.667   5.562  11.827
 6379SOL     OW20969   5.156   2.767   9.959
 6379SOL    HW120970   5.141   2.742   9.868
 6379SOL    HW220971   5.118   2.855   9.967
 6380SOL     OW20972  13.644  14.451   3.135
 6380SOL    HW120973  13.637  14.495   3.220
 6380SOL    HW220974  13.676  14.519   3.076
 6381SOL     OW20975  10.819  13.480   1.602
 6381SOL    HW120976  10.785  13.429   1.676
 6381SOL    HW220977  10.816  13.571   1.631
 6382SOL     OW20978  10.424  11.030   2.438
 6382SOL    HW120979  10.484  11.076   2.497
 6382SOL    HW220980  10.415  11.087   2.362
 6383SOL     OW20981   1.711   3.273   3.714
 6383SOL    HW120982   1.682   3.302   3.800
 6383SOL    HW220983   1.637   3.225   3.678
 6384SOL     OW20984  12.232  11.208   7.278
 6384SOL    HW120985  12.232  11.199   7.183
 6384SOL    HW220986  12.140  11.209   7.302
 6385SOL     OW20987   3.574   9.491  11.458
 6385SOL    HW120988   3.643   9.549  11.491
 6385SOL    HW220989   3.514   9.480  11.531
 6386SOL     OW20990   8.089  12.301  10.517
 6386SOL    HW120991   8.008  12.347  10.495
 6386SOL    HW220992   8.063  12.210  10.529
 6387SOL     OW20993   5.774   4.278   0.843
 6387SOL    HW120994   5.689   4.322   0.854
 6387SOL    HW220995   5.793   4.285   0.750
 6388SOL     OW20996   7.580   9.320  13.823
 6388SOL    HW120997   7.509   9.349  13.880
 6388SOL    HW220998   7.655   9.374  13.848
 6389SOL     OW20999   6.111   4.346   3.955
 6389SOL    HW121000   6.019   4.319   3.963
 6389SOL    HW221001   6.143   4.349   4.045
 6390SOL     OW21002   3.930   5.059   2.560
 6390SOL    HW121003   4.025   5.061   2.550
 6390SOL    HW221004   3.898   5.126   2.500
 6391SOL     OW21005   2.589   9.822   0.915
 6391SOL    HW121006   2.510   9.771   0.930
 6391SOL    HW221007   2.559   9.904   0.877
 6392SOL     OW21008   7.221   0.749   0.155
 6392SOL    HW121009   7.265   0.833   0.163
 6392SOL    HW221010   7.141   0.768   0.106
 6393SOL     OW21011   2.685   6.431   6.527
 6393SOL    HW121012   2.650   6.502   6.579
 6393SOL    HW221013   2.610   6.400   6.475
 6394SOL     OW21014   6.974   9.685   6.125
 6394SOL    HW121015   7.013   9.612   6.077
 6394SOL    HW221016   7.003   9.763   6.079
 6395SOL     OW21017   6.405  11.367   0.925
 6395SOL    HW121018   6.487  11.351   0.877
 6395SOL    HW221019   6.415  11.455   0.961
 6396SOL     OW21020   4.190   3.374   6.884
 6396SOL    HW121021   4.125   3.309   6.910
 6396SOL    HW221022   4.157   3.410   6.802
 6397SOL     OW21023   8.663   7.241  14.035
 6397SOL    HW121024   8.736   7.185  14.062
 6397SOL    HW221025   8.607   7.246  14.112
 6398SOL     OW21026   4.829  10.251   6.176
 6398SOL    HW121027   4.827  10.159   6.201
 6398SOL    HW221028   4.922  10.272   6.169
 6399SOL     OW21029  11.616  12.295  13.607
 6399SOL    HW121030  11.574  12.345  13.677
 6399SOL    HW221031  11.626  12.207  13.643
 6400SOL     OW21032  11.074   2.678   0.005
 6400SOL    HW121033  11.034   2.591   0.002
 6400SOL    HW221034  11.168   2.661  14.868
 6401SOL     OW21035  11.576   7.017  12.608
 6401SOL    HW121036  11.533   6.937  12.637
 6401SOL    HW221037  11.664   7.012  12.646
 6402SOL     OW21038   6.546  12.054   8.991
 6402SOL    HW121039   6.633  12.089   9.005
 6402SOL    HW221040   6.489  12.109   9.045
 6403SOL     OW21041   1.618   5.973   0.317
 6403SOL    HW121042   1.551   5.905   0.325
 6403SOL    HW221043   1.694   5.929   0.279
 6404SOL     OW21044  12.223  13.813  13.217
 6404SOL    HW121045  12.274  13.820  13.297
 6404SOL    HW221046  12.142  13.769  13.243
 6405SOL     OW21047  12.013  13.035  12.188
 6405SOL    HW121048  11.919  13.043  12.171
 6405SOL    HW221049  12.034  12.944  12.165
 6406SOL     OW21050  14.241   0.794   3.629
 6406SOL    HW121051  14.237   0.775   3.723
 6406SOL    HW221052  14.298   0.727   3.593
 6407SOL     OW21053  12.682   1.355  14.212
 6407SOL    HW121054  12.624   1.408  14.266
 6407SOL    HW221055  12.770   1.387  14.232
 6408SOL     OW21056  12.332   9.190   0.967
 6408SOL    HW121057  12.370   9.103   0.962
 6408SOL    HW221058  12.407   9.250   0.963
 6409SOL     OW21059   4.270   1.446  13.243
 6409SOL    HW121060   4.255   1.537  13.216
 6409SOL    HW221061   4.365   1.434  13.234
 6410SOL     OW21062  11.535   4.201  12.139
 6410SOL    HW121063  11.613   4.222  12.088
 6410SOL    HW221064  11.530   4.106  12.136
 6411SOL     OW21065   8.402  10.667  12.287
 6411SOL    HW121066   8.487  10.697  12.319
 6411SOL    HW221067   8.339  10.705  12.349
 6412SOL     OW21068  10.110   0.724   1.598
 6412SOL    HW121069  10.184   0.683   1.643
 6412SOL    HW221070  10.081   0.794   1.657
 6413SOL     OW21071   2.757  14.064   5.789
 6413SOL    HW121072   2.663  14.082   5.783
 6413SOL    HW221073   2.798  14.150   5.780
 6414SOL     OW21074   7.964   2.165  14.652
 6414SOL    HW121075   7.905   2.230  14.612
 6414SOL    HW221076   7.978   2.101  14.583
 6415SOL     OW21077   1.021   8.484  10.869
 6415SOL    HW121078   1.098   8.484  10.925
 6415SOL    HW221079   1.033   8.559  10.811
 6416SOL     OW21080   8.122   9.700  14.283
 6416SOL    HW121081   8.114   9.696  14.188
 6416SOL    HW221082   8.156   9.614  14.308
 6417SOL     OW21083   2.970   9.770  13.934
 6417SOL    HW121084   2.894   9.816  13.970
 6417SOL    HW221085   3.043   9.795  13.990
 6418SOL     OW21086   6.365   5.457   9.101
 6418SOL    HW121087   6.296   5.435   9.164
 6418SOL    HW221088   6.422   5.517   9.148
 6419SOL     OW21089   6.056  14.445   6.320
 6419SOL    HW121090   6.048  14.468   6.227
 6419SOL    HW221091   6.038  14.526   6.367
 6420SOL     OW21092   5.312   7.567   3.790
 6420SOL    HW121093   5.340   7.520   3.712
 6420SOL    HW221094   5.242   7.513   3.828
 6421SOL     OW21095   9.198   1.598   1.983
 6421SOL    HW121096   9.206   1.639   1.897
 6421SOL    HW221097   9.199   1.504   1.965
 6422SOL     OW21098   7.929  11.949  14.698
 6422SOL    HW121099   7.859  11.999  14.739
 6422SOL    HW221100   7.988  12.015  14.662
 6423SOL     OW21101   1.350   6.351   1.697
 6423SOL    HW121102   1.363   6.428   1.753
 6423SOL    HW221103   1.255   6.341   1.692
 6424SOL     OW21104  12.025  10.448   1.045
 6424SOL    HW121105  11.994  10.471   1.133
 6424SOL    HW221106  11.992  10.519   0.989
 6425SOL     OW21107   6.048   8.323   8.494
 6425SOL    HW121108   6.005   8.396   8.539
 6425SOL    HW221109   6.086   8.362   8.416
 6426SOL     OW21110  12.587   6.626   5.180
 6426SOL    HW121111  12.521   6.691   5.156
 6426SOL    HW221112  12.638   6.668   5.248
 6427SOL     OW21113   9.342   0.815   6.404
 6427SOL    HW121114   9.341   0.748   6.472
 6427SOL    HW221115   9.410   0.877   6.432
 6428SOL     OW21116   7.374  12.676   5.924
 6428SOL    HW121117   7.315  12.750   5.943
 6428SOL    HW221118   7.383  12.677   5.829
 6429SOL     OW21119   7.440   1.777  10.068
 6429SOL    HW121120   7.438   1.682  10.055
 6429SOL    HW221121   7.392   1.790  10.150
 6430SOL     OW21122   1.076   6.108   8.630
 6430SOL    HW121123   1.012   6.113   8.559
 6430SOL    HW221124   1.158   6.082   8.588
 6431SOL     OW21125   5.998   7.660  10.434
 6431SOL    HW121126   5.975   7.637  10.524
 6431SOL    HW221127   6.093   7.649  10.430
 6432SOL     OW21128   5.933  13.676   9.098
 6432SOL    HW121129   5.945  13.770   9.089
 6432SOL    HW221130   5.863  13.654   9.037
 6433SOL     OW21131   1.705   7.843   0.949
 6433SOL    HW121132   1.739   7.869   0.863
 6433SOL    HW221133   1.719   7.749   0.952
 6434SOL     OW21134  14.538  10.806   3.589
 6434SOL    HW121135  14.509  10.734   3.645
 6434SOL    HW221136  14.633  10.806   3.596
 6435SOL     OW21137   3.285   2.442   0.491
 6435SOL    HW121138   3.350   2.414   0.556
 6435SOL    HW221139   3.323   2.419   0.407
 6436SOL     OW21140   1.750   0.147   1.597
 6436SOL    HW121141   1.772   0.055   1.589
 6436SOL    HW221142   1.799   0.190   1.527
 6437SOL     OW21143  13.895  12.429  13.515
 6437SOL    HW121144  13.800  12.419  13.529
 6437SOL    HW221145  13.909  12.402  13.424
 6438SOL     OW21146   9.065   4.881   7.852
 6438SOL    HW121147   9.160   4.888   7.863
 6438SOL    HW221148   9.036   4.969   7.829
 6439SOL     OW21149  12.259   7.554  12.249
 6439SOL    HW121150  12.207   7.560  12.329
 6439SOL    HW221151  12.239   7.635  12.201
 6440SOL     OW21152   3.511   7.468   7.227
 6440SOL    HW121153   3.538   7.558   7.242
 6440SOL    HW221154   3.564   7.439   7.153
 6441SOL     OW21155   1.741  13.892   8.245
 6441SOL    HW121156   1.662  13.902   8.298
 6441SOL    HW221157   1.759  13.979   8.211
 6442SOL     OW21158   4.520  13.718   0.558
 6442SOL    HW121159   4.561  13.770   0.628
 6442SOL    HW221160   4.499  13.782   0.490
 6443SOL     OW21161   8.655   1.016  10.036
 6443SOL    HW121162   8.635   1.076   9.964
 6443SOL    HW221163   8.571   0.978  10.061
 6444SOL     OW21164  10.244   4.075  10.588
 6444SOL    HW121165  10.183   4.063  10.515
 6444SOL    HW221166  10.190   4.106  10.660
 6445SOL     OW21167   4.855   9.240   0.846
 6445SOL    HW121168   4.859   9.246   0.941
 6445SOL    HW221169   4.802   9.163   0.829
 6446SOL     OW21170   3.452  13.739   8.151
 6446SOL    HW121171   3.465  13.830   8.123
 6446SOL    HW221172   3.361  13.736   8.180
 6447SOL     OW21173  14.137  12.825   6.420
 6447SOL    HW121174  14.068  12.763   6.447
 6447SOL    HW221175  14.196  12.828   6.495
 6448SOL     OW21176   5.678   3.420   9.401
 6448SOL    HW121177   5.709   3.378   9.320
 6448SOL    HW221178   5.598   3.465   9.376
 6449SOL     OW21179  10.878   9.064  10.869
 6449SOL    HW121180  10.888   9.081  10.776
 6449SOL    HW221181  10.871   9.151  10.909
 6450SOL     OW21182  11.496   4.301  13.952
 6450SOL    HW121183  11.434   4.333  14.018
 6450SOL    HW221184  11.571   4.360  13.960
 6451SOL     OW21185   2.341   6.190  10.098
 6451SOL    HW121186   2.292   6.135  10.160
 6451SOL    HW221187   2.304   6.169  10.013
 6452SOL     OW21188   6.270   1.195  11.410
 6452SOL    HW121189   6.179   1.214  11.390
 6452SOL    HW221190   6.313   1.190  11.324
 6453SOL     OW21191   9.597   7.925  12.652
 6453SOL    HW121192   9.634   8.006  12.616
 6453SOL    HW221193   9.654   7.904  12.726
 6454SOL     OW21194   5.019  13.738  12.533
 6454SOL    HW121195   4.941  13.683  12.521
 6454SOL    HW221196   5.087  13.678  12.562
 6455SOL     OW21197   3.851   1.223  11.571
 6455SOL    HW121198   3.909   1.207  11.497
 6455SOL    HW221199   3.908   1.219  11.648
 6456SOL     OW21200   0.144   2.270   0.181
 6456SOL    HW121201   0.057   2.311   0.174
 6456SOL    HW221202   0.129   2.179   0.154
 6457SOL     OW21203   5.922   1.611   6.591
 6457SOL    HW121204   5.830   1.593   6.569
 6457SOL    HW221205   5.928   1.588   6.684
 6458SOL     OW21206   4.049   6.797   4.669
 6458SOL    HW121207   4.065   6.818   4.760
 6458SOL    HW221208   3.960   6.828   4.652
 6459SOL     OW21209  13.810   7.527  12.529
 6459SOL    HW121210  13.815   7.536  12.625
 6459SOL    HW221211  13.893   7.487  12.505
 6460SOL     OW21212   2.138   7.487  10.048
 6460SOL    HW121213   2.217   7.450  10.087
 6460SOL    HW221214   2.100   7.415   9.997
 6461SOL     OW21215   7.839  14.140   3.567
 6461SOL    HW121216   7.859  14.050   3.540
 6461SOL    HW221217   7.830  14.188   3.484
 6462SOL     OW21218   9.491   0.775  11.934
 6462SOL    HW121219   9.526   0.857  11.968
 6462SOL    HW221220   9.413   0.758  11.987
 6463SOL     OW21221   2.434  14.121   1.388
 6463SOL    HW121222   2.381  14.085   1.317
 6463SOL    HW221223   2.505  14.167   1.343
 6464SOL     OW21224   7.938   0.359  14.848
 6464SOL    HW121225   8.017   0.305  14.839
 6464SOL    HW221226   7.878   0.304   0.027
 6465SOL     OW21227  10.975   2.084  13.021
 6465SOL    HW121228  11.050   2.130  13.059
 6465SOL    HW221229  10.958   2.013  13.083
 6466SOL     OW21230   9.770  12.216  12.754
 6466SOL    HW121231   9.856  12.257  12.742
 6466SOL    HW221232   9.784  12.124  12.730
 6467SOL     OW21233   1.297  13.724   2.429
 6467SOL    HW121234   1.331  13.659   2.369
 6467SOL    HW221235   1.217  13.756   2.388
 6468SOL     OW21236   8.103   3.873   7.295
 6468SOL    HW121237   8.029   3.868   7.234
 6468SOL    HW221238   8.106   3.787   7.336
 6469SOL     OW21239   7.875   7.495  11.194
 6469SOL    HW121240   7.862   7.413  11.242
 6469SOL    HW221241   7.799   7.549  11.217
 6470SOL     OW21242  14.616  10.682   4.657
 6470SOL    HW121243  14.696  10.656   4.703
 6470SOL    HW221244  14.547  10.675   4.722
 6471SOL     OW21245   2.903   6.495   8.817
 6471SOL    HW121246   2.997   6.508   8.827
 6471SOL    HW221247   2.879   6.551   8.743
 6472SOL     OW21248   7.362  11.934   0.638
 6472SOL    HW121249   7.289  11.901   0.691
 6472SOL    HW221250   7.423  11.970   0.702
 6473SOL     OW21251  10.793  13.285  12.488
 6473SOL    HW121252  10.770  13.193  12.474
 6473SOL    HW221253  10.792  13.295  12.583
 6474SOL     OW21254   9.004   1.315  10.173
 6474SOL    HW121255   9.016   1.304  10.268
 6474SOL    HW221256   9.092   1.321  10.138
 6475SOL     OW21257   5.709   2.454   7.801
 6475SOL    HW121258   5.706   2.493   7.714
 6475SOL    HW221259   5.670   2.367   7.790
 6476SOL     OW21260   9.964   2.355  14.871
 6476SOL    HW121261  10.017   2.293  14.821
 6476SOL    HW221262   9.873   2.331  14.849
 6477SOL     OW21263  13.047  10.715   5.292
 6477SOL    HW121264  13.008  10.780   5.350
 6477SOL    HW221265  13.085  10.650   5.352
 6478SOL     OW21266   7.837   3.705   9.400
 6478SOL    HW121267   7.821   3.741   9.488
 6478SOL    HW221268   7.924   3.667   9.405
 6479SOL     OW21269   8.412   2.733  14.141
 6479SOL    HW121270   8.427   2.765  14.052
 6479SOL    HW221271   8.417   2.812  14.196
 6480SOL     OW21272   2.371  11.269   1.063
 6480SOL    HW121273   2.410  11.261   1.150
 6480SOL    HW221274   2.282  11.234   1.073
 6481SOL     OW21275  12.988   3.343  13.439
 6481SOL    HW121276  12.923   3.395  13.486
 6481SOL    HW221277  12.970   3.252  13.466
 6482SOL     OW21278   0.405   4.436  11.605
 6482SOL    HW121279   0.324   4.454  11.558
 6482SOL    HW221280   0.425   4.519  11.650
 6483SOL     OW21281  11.939   5.761   7.492
 6483SOL    HW121282  11.964   5.681   7.446
 6483SOL    HW221283  11.960   5.743   7.584
 6484SOL     OW21284  13.955   8.915   5.916
 6484SOL    HW121285  13.940   8.872   6.000
 6484SOL    HW221286  14.019   8.860   5.871
 6485SOL     OW21287  12.545   5.757  11.382
 6485SOL    HW121288  12.491   5.807  11.442
 6485SOL    HW221289  12.590   5.693  11.437
 6486SOL     OW21290   7.078   6.694  10.900
 6486SOL    HW121291   7.100   6.752  10.826
 6486SOL    HW221292   7.017   6.746  10.953
 6487SOL     OW21293   0.101   6.938   4.901
 6487SOL    HW121294   0.156   6.940   4.980
 6487SOL    HW221295   0.018   6.976   4.929
 6488SOL     OW21296   4.568   6.396   4.105
 6488SOL    HW121297   4.574   6.333   4.177
 6488SOL    HW221298   4.546   6.343   4.028
 6489SOL     OW21299   1.935  13.329   1.439
 6489SOL    HW121300   1.900  13.317   1.351
 6489SOL    HW221301   1.868  13.379   1.485
 6490SOL     OW21302   4.720   8.251   8.167
 6490SOL    HW121303   4.732   8.211   8.081
 6490SOL    HW221304   4.726   8.345   8.152
 6491SOL     OW21305   8.160   8.424   9.316
 6491SOL    HW121306   8.219   8.492   9.347
 6491SOL    HW221307   8.157   8.438   9.221
 6492SOL     OW21308   4.540  12.229   2.029
 6492SOL    HW121309   4.493  12.309   2.052
 6492SOL    HW221310   4.481  12.159   2.053
 6493SOL     OW21311  11.932  14.722   0.623
 6493SOL    HW121312  11.916  14.629   0.640
 6493SOL    HW221313  12.024  14.727   0.598
 6494SOL     OW21314   7.750   2.752   5.061
 6494SOL    HW121315   7.832   2.801   5.058
 6494SOL    HW221316   7.756   2.701   5.142
 6495SOL     OW21317   2.868   0.881   9.282
 6495SOL    HW121318   2.848   0.876   9.376
 6495SOL    HW221319   2.881   0.974   9.265
 6496SOL     OW21320  11.198   4.246  13.596
 6496SOL    HW121321  11.182   4.187  13.669
 6496SOL    HW221322  11.272   4.299  13.624
 6497SOL     OW21323  14.663   7.076   4.272
 6497SOL    HW121324  14.757   7.064   4.260
 6497SOL    HW221325  14.640   7.016   4.343
 6498SOL     OW21326   8.597  12.443  11.040
 6498SOL    HW121327   8.656  12.518  11.039
 6498SOL    HW221328   8.578  12.428  11.132
 6499SOL     OW21329  13.065  10.365   5.285
 6499SOL    HW121330  13.003  10.311   5.235
 6499SOL    HW221331  13.124  10.401   5.219
 6500SOL     OW21332   5.230   3.285   4.602
 6500SOL    HW121333   5.319   3.288   4.639
 6500SOL    HW221334   5.176   3.331   4.667
 6501SOL     OW21335  12.218  14.709   5.350
 6501SOL    HW121336  12.139  14.679   5.305
 6501SOL    HW221337  12.209  14.675   5.439
 6502SOL     OW21338   1.113  14.771   2.978
 6502SOL    HW121339   1.179  14.712   3.015
 6502SOL    HW221340   1.138  14.858   3.011
 6503SOL     OW21341   1.125   6.694   8.954
 6503SOL    HW121342   1.062   6.640   8.907
 6503SOL    HW221343   1.131   6.655   9.041
 6504SOL     OW21344   6.358   6.364   8.090
 6504SOL    HW121345   6.397   6.330   8.170
 6504SOL    HW221346   6.266   6.378   8.111
 6505SOL     OW21347   1.291   5.098  13.514
 6505SOL    HW121348   1.382   5.082  13.491
 6505SOL    HW221349   1.291   5.099  13.610
 6506SOL     OW21350   4.579   8.732  13.907
 6506SOL    HW121351   4.588   8.673  13.832
 6506SOL    HW221352   4.574   8.674  13.983
 6507SOL     OW21353  12.094   4.077  14.737
 6507SOL    HW121354  12.184   4.108  14.727
 6507SOL    HW221355  12.104   3.983  14.755
 6508SOL     OW21356  13.016  11.647  11.315
 6508SOL    HW121357  13.088  11.694  11.357
 6508SOL    HW221358  12.946  11.646  11.380
 6509SOL     OW21359   8.012  12.886  14.165
 6509SOL    HW121360   7.980  12.829  14.235
 6509SOL    HW221361   7.941  12.888  14.101
 6510SOL     OW21362   0.620   2.411  12.920
 6510SOL    HW121363   0.541   2.463  12.937
 6510SOL    HW221364   0.692   2.466  12.952
 6511SOL     OW21365   1.657   6.143   6.899
 6511SOL    HW121366   1.746   6.129   6.931
 6511SOL    HW221367   1.652   6.094   6.818
 6512SOL     OW21368  10.813   8.763   4.584
 6512SOL    HW121369  10.904   8.758   4.553
 6512SOL    HW221370  10.761   8.758   4.504
 6513SOL     OW21371  12.908  10.203   4.186
 6513SOL    HW121372  12.922  10.298   4.191
 6513SOL    HW221373  12.828  10.189   4.238
 6514SOL     OW21374   1.552  12.825   4.165
 6514SOL    HW121375   1.501  12.811   4.245
 6514SOL    HW221376   1.488  12.815   4.094
 6515SOL     OW21377  10.386   9.192  14.129
 6515SOL    HW121378  10.456   9.254  14.112
 6515SOL    HW221379  10.315   9.219  14.070
 6516SOL     OW21380   7.489  11.177   7.463
 6516SOL    HW121381   7.511  11.261   7.423
 6516SOL    HW221382   7.548  11.114   7.421
 6517SOL     OW21383   4.848  12.491  11.976
 6517SOL    HW121384   4.943  12.477  11.969
 6517SOL    HW221385   4.812  12.444  11.900
 6518SOL     OW21386   8.225  14.201  12.305
 6518SOL    HW121387   8.306  14.152  12.322
 6518SOL    HW221388   8.240  14.244  12.221
 6519SOL     OW21389  12.320   7.006  14.746
 6519SOL    HW121390  12.381   7.080  14.738
 6519SOL    HW221391  12.294   6.987  14.656
 6520SOL     OW21392  12.883   2.438   4.446
 6520SOL    HW121393  12.916   2.446   4.357
 6520SOL    HW221394  12.952   2.390   4.493
 6521SOL     OW21395   4.702  11.667  14.071
 6521SOL    HW121396   4.734  11.632  14.154
 6521SOL    HW221397   4.675  11.757  14.092
 6522SOL     OW21398   9.156  14.224  12.348
 6522SOL    HW121399   9.236  14.251  12.304
 6522SOL    HW221400   9.088  14.280  12.311
 6523SOL     OW21401   2.177   8.990  13.230
 6523SOL    HW121402   2.263   8.999  13.189
 6523SOL    HW221403   2.150   8.901  13.209
 6524SOL     OW21404   4.763   1.333   4.375
 6524SOL    HW121405   4.848   1.335   4.331
 6524SOL    HW221406   4.704   1.380   4.316
 6525SOL     OW21407  14.301  14.145  12.916
 6525SOL    HW121408  14.228  14.193  12.877
 6525SOL    HW221409  14.340  14.206  12.978
 6526SOL     OW21410   6.830  13.653   7.133
 6526SOL    HW121411   6.740  13.626   7.121
 6526SOL    HW221412   6.828  13.748   7.122
 6527SOL     OW21413  11.090   6.626   6.453
 6527SOL    HW121414  11.059   6.537   6.471
 6527SOL    HW221415  11.011   6.678   6.442
 6528SOL     OW21416   1.707   2.475   2.611
 6528SOL    HW121417   1.626   2.493   2.658
 6528SOL    HW221418   1.681   2.416   2.540
 6529SOL     OW21419   6.412  11.279  13.330
 6529SOL    HW121420   6.458  11.196  13.338
 6529SOL    HW221421   6.366  11.272  13.246
 6530SOL     OW21422  14.413   5.737   4.584
 6530SOL    HW121423  14.360   5.797   4.637
 6530SOL    HW221424  14.442   5.670   4.645
 6531SOL     OW21425   3.120   9.427   3.184
 6531SOL    HW121426   3.065   9.386   3.251
 6531SOL    HW221427   3.192   9.467   3.232
 6532SOL     OW21428   5.556  14.531   6.789
 6532SOL    HW121429   5.616  14.571   6.853
 6532SOL    HW221430   5.588  14.442   6.779
 6533SOL     OW21431   2.131  13.298   6.540
 6533SOL    HW121432   2.151  13.252   6.622
 6533SOL    HW221433   2.201  13.271   6.480
 6534SOL     OW21434  12.076   9.487   9.060
 6534SOL    HW121435  12.159   9.442   9.047
 6534SOL    HW221436  12.092   9.576   9.026
 6535SOL     OW21437  11.486  13.357  14.787
 6535SOL    HW121438  11.504  13.370  14.694
 6535SOL    HW221439  11.534  13.278  14.810
 6536SOL     OW21440   4.923  10.331   9.173
 6536SOL    HW121441   4.849  10.363   9.225
 6536SOL    HW221442   4.911  10.237   9.169
 6537SOL     OW21443   7.794  13.922   5.939
 6537SOL    HW121444   7.707  13.943   5.974
 6537SOL    HW221445   7.787  13.944   5.846
 6538SOL     OW21446   2.887   5.871   3.449
 6538SOL    HW121447   2.902   5.803   3.515
 6538SOL    HW221448   2.845   5.825   3.377
 6539SOL     OW21449   6.328   2.934   6.440
 6539SOL    HW121450   6.374   2.854   6.414
 6539SOL    HW221451   6.377   2.967   6.515
 6540SOL     OW21452  11.623  11.875  13.861
 6540SOL    HW121453  11.542  11.920  13.886
 6540SOL    HW221454  11.627  11.884  13.766
 6541SOL     OW21455  14.217   5.959   6.417
 6541SOL    HW121456  14.287   6.018   6.390
 6541SOL    HW221457  14.153   5.965   6.346
 6542SOL     OW21458  12.796  13.343   5.926
 6542SOL    HW121459  12.782  13.313   6.016
 6542SOL    HW221460  12.882  13.309   5.903
 6543SOL     OW21461   9.888  14.260   5.428
 6543SOL    HW121462   9.831  14.231   5.357
 6543SOL    HW221463   9.861  14.207   5.503
 6544SOL     OW21464   8.707   0.322   2.170
 6544SOL    HW121465   8.729   0.386   2.103
 6544SOL    HW221466   8.629   0.358   2.213
 6545SOL     OW21467   0.088  14.426   9.668
 6545SOL    HW121468   0.061  14.405   9.758
 6545SOL    HW221469   0.030  14.373   9.613
 6546SOL     OW21470  14.261  12.659   6.633
 6546SOL    HW121471  14.237  12.599   6.563
 6546SOL    HW221472  14.347  12.629   6.662
 6547SOL     OW21473  12.659   9.558   6.553
 6547SOL    HW121474  12.648   9.495   6.624
 6547SOL    HW221475  12.753   9.576   6.551
 6548SOL     OW21476  14.414  14.286   7.527
 6548SOL    HW121477  14.482  14.240   7.477
 6548SOL    HW221478  14.338  14.287   7.469
 6549SOL     OW21479   1.776  13.478  12.176
 6549SOL    HW121480   1.870  13.492  12.188
 6549SOL    HW221481   1.739  13.496  12.262
 6550SOL     OW21482   6.182   7.702  13.545
 6550SOL    HW121483   6.252   7.763  13.522
 6550SOL    HW221484   6.101   7.751  13.530
 6551SOL     OW21485  10.378   0.030  10.845
 6551SOL    HW121486  10.378  14.867  10.756
 6551SOL    HW221487  10.470   0.029  10.871
 6552SOL     OW21488   1.196   5.669   4.366
 6552SOL    HW121489   1.124   5.606   4.363
 6552SOL    HW221490   1.153   5.754   4.380
 6553SOL     OW21491  10.111   9.888   9.004
 6553SOL    HW121492  10.126   9.982   9.002
 6553SOL    HW221493  10.102   9.863   8.912
 6554SOL     OW21494   8.969   9.712   2.735
 6554SOL    HW121495   8.891   9.668   2.769
 6554SOL    HW221496   8.937   9.796   2.702
 6555SOL     OW21497  10.402   3.220  10.503
 6555SOL    HW121498  10.403   3.286  10.434
 6555SOL    HW221499  10.478   3.241  10.558
 6556SOL     OW21500   1.159  11.621   6.426
 6556SOL    HW121501   1.214  11.584   6.495
 6556SOL    HW221502   1.084  11.561   6.421
 6557SOL     OW21503   1.143   4.078  14.304
 6557SOL    HW121504   1.222   4.047  14.348
 6557SOL    HW221505   1.174   4.145  14.243
 6558SOL     OW21506   4.006   3.192  12.489
 6558SOL    HW121507   3.915   3.222  12.495
 6558SOL    HW221508   4.027   3.160  12.576
 6559SOL     OW21509   5.999  14.701   0.483
 6559SOL    HW121510   5.998  14.766   0.413
 6559SOL    HW221511   6.026  14.620   0.440
 6560SOL     OW21512  14.841  11.395  12.759
 6560SOL    HW121513  14.826  11.455  12.687
 6560SOL    HW221514   0.012  11.320  12.720
 6561SOL     OW21515   5.693   6.814   7.412
 6561SOL    HW121516   5.610   6.816   7.461
 6561SOL    HW221517   5.697   6.725   7.377
 6562SOL     OW21518   9.835   2.602  14.013
 6562SOL    HW121519   9.867   2.519  13.979
 6562SOL    HW221520   9.748   2.582  14.048
 6563SOL     OW21521   4.021   2.441   4.403
 6563SOL    HW121522   4.006   2.536   4.405
 6563SOL    HW221523   4.107   2.431   4.363
 6564SOL     OW21524   1.315   0.827  14.114
 6564SOL    HW121525   1.320   0.761  14.044
 6564SOL    HW221526   1.325   0.777  14.195
 6565SOL     OW21527   0.309  10.280   2.348
 6565SOL    HW121528   0.311  10.286   2.444
 6565SOL    HW221529   0.246  10.210   2.330
 6566SOL     OW21530   0.603   1.605   6.756
 6566SOL    HW121531   0.582   1.597   6.849
 6566SOL    HW221532   0.575   1.693   6.732
 6567SOL     OW21533  12.666  11.214  11.696
 6567SOL    HW121534  12.745  11.218  11.751
 6567SOL    HW221535  12.700  11.202  11.607
 6568SOL     OW21536   1.269   2.886   6.331
 6568SOL    HW121537   1.346   2.934   6.361
 6568SOL    HW221538   1.304   2.803   6.298
 6569SOL     OW21539   5.570   0.360  13.132
 6569SOL    HW121540   5.531   0.343  13.046
 6569SOL    HW221541   5.586   0.455  13.132
 6570SOL     OW21542   0.358   0.194   8.085
 6570SOL    HW121543   0.299   0.255   8.128
 6570SOL    HW221544   0.314   0.109   8.091
 6571SOL     OW21545  12.863   0.177  10.418
 6571SOL    HW121546  12.811   0.152  10.495
 6571SOL    HW221547  12.954   0.167  10.445
 6572SOL     OW21548   4.322   0.167   2.194
 6572SOL    HW121549   4.254   0.107   2.164
 6572SOL    HW221550   4.342   0.138   2.283
 6573SOL     OW21551   2.549  11.305   0.391
 6573SOL    HW121552   2.456  11.285   0.401
 6573SOL    HW221553   2.566  11.372   0.457
 6574SOL     OW21554   8.251   7.632  11.369
 6574SOL    HW121555   8.256   7.557  11.310
 6574SOL    HW221556   8.323   7.689  11.342
 6575SOL     OW21557  11.760   8.678   3.140
 6575SOL    HW121558  11.757   8.732   3.219
 6575SOL    HW221559  11.852   8.660   3.126
 6576SOL     OW21560   8.119   8.182   0.787
 6576SOL    HW121561   8.085   8.163   0.874
 6576SOL    HW221562   8.214   8.179   0.797
 6577SOL     OW21563   3.656  12.877   4.337
 6577SOL    HW121564   3.630  12.846   4.250
 6577SOL    HW221565   3.732  12.933   4.321
 6578SOL     OW21566   6.687   9.250   8.712
 6578SOL    HW121567   6.740   9.231   8.635
 6578SOL    HW221568   6.629   9.321   8.684
 6579SOL     OW21569   3.515  12.054   2.225
 6579SOL    HW121570   3.533  12.117   2.154
 6579SOL    HW221571   3.497  11.972   2.180
 6580SOL     OW21572   7.375  10.873  10.710
 6580SOL    HW121573   7.391  10.779  10.708
 6580SOL    HW221574   7.282  10.881  10.687
 6581SOL     OW21575  13.000   5.856   0.091
 6581SOL    HW121576  13.041   5.859   0.004
 6581SOL    HW221577  13.060   5.803   0.144
 6582SOL     OW21578  12.663   8.092   0.922
 6582SOL    HW121579  12.714   8.134   0.853
 6582SOL    HW221580  12.663   8.156   0.994
 6583SOL     OW21581   5.350  14.123   7.642
 6583SOL    HW121582   5.287  14.090   7.578
 6583SOL    HW221583   5.416  14.169   7.589
 6584SOL     OW21584  14.011   1.682  13.589
 6584SOL    HW121585  14.105   1.668  13.581
 6584SOL    HW221586  13.972   1.619  13.528
 6585SOL     OW21587   2.880   1.021   6.144
 6585SOL    HW121588   2.911   1.085   6.208
 6585SOL    HW221589   2.830   0.958   6.196
 6586SOL     OW21590   7.902   7.979   9.152
 6586SOL    HW121591   7.974   8.040   9.138
 6586SOL    HW221592   7.942   7.892   9.140
 6587SOL     OW21593  10.014   4.797   4.534
 6587SOL    HW121594  10.010   4.748   4.452
 6587SOL    HW221595   9.941   4.858   4.529
 6588SOL     OW21596   5.135   5.232   0.956
 6588SOL    HW121597   5.093   5.219   1.041
 6588SOL    HW221598   5.101   5.317   0.925
 6589SOL     OW21599  10.791   1.200  14.385
 6589SOL    HW121600  10.741   1.190  14.466
 6589SOL    HW221601  10.762   1.126  14.330
 6590SOL     OW21602  13.229  12.681  13.310
 6590SOL    HW121603  13.208  12.608  13.369
 6590SOL    HW221604  13.150  12.736  13.312
 6591SOL     OW21605   3.655   1.583   1.003
 6591SOL    HW121606   3.586   1.574   0.937
 6591SOL    HW221607   3.630   1.520   1.071
 6592SOL     OW21608  14.355   2.205   9.296
 6592SOL    HW121609  14.432   2.209   9.239
 6592SOL    HW221610  14.333   2.297   9.312
 6593SOL     OW21611  13.852   2.200   1.655
 6593SOL    HW121612  13.890   2.199   1.566
 6593SOL    HW221613  13.869   2.288   1.687
 6594SOL     OW21614   3.566  10.235   6.717
 6594SOL    HW121615   3.545  10.229   6.624
 6594SOL    HW221616   3.641  10.294   6.720
 6595SOL     OW21617   8.718  11.594   7.479
 6595SOL    HW121618   8.676  11.509   7.495
 6595SOL    HW221619   8.663  11.657   7.525
 6596SOL     OW21620  10.849   1.171   4.455
 6596SOL    HW121621  10.787   1.244   4.469
 6596SOL    HW221622  10.794   1.093   4.458
 6597SOL     OW21623  10.151   1.219   8.505
 6597SOL    HW121624  10.126   1.306   8.537
 6597SOL    HW221625  10.154   1.164   8.583
 6598SOL     OW21626   3.324  14.773   9.859
 6598SOL    HW121627   3.413  14.800   9.838
 6598SOL    HW221628   3.269  14.845   9.826
 6599SOL     OW21629  10.213   7.709  10.225
 6599SOL    HW121630  10.144   7.653  10.188
 6599SOL    HW221631  10.276   7.648  10.263
 6600SOL     OW21632   2.247   7.110   8.190
 6600SOL    HW121633   2.227   7.142   8.102
 6600SOL    HW221634   2.266   7.017   8.179
 6601SOL     OW21635  10.978   7.448   0.311
 6601SOL    HW121636  10.950   7.528   0.268
 6601SOL    HW221637  10.911   7.432   0.377
 6602SOL     OW21638   0.761  11.317   6.215
 6602SOL    HW121639   0.804  11.347   6.134
 6602SOL    HW221640   0.801  11.233   6.234
 6603SOL     OW21641  14.867   4.567   4.132
 6603SOL    HW121642  14.793   4.506   4.128
 6603SOL    HW221643  14.832   4.649   4.097
 6604SOL     OW21644  11.670  12.735   7.228
 6604SOL    HW121645  11.675  12.814   7.175
 6604SOL    HW221646  11.576  12.720   7.239
 6605SOL     OW21647  12.902   6.470   9.262
 6605SOL    HW121648  12.961   6.534   9.301
 6605SOL    HW221649  12.876   6.508   9.179
 6606SOL     OW21650   6.531   9.801   0.799
 6606SOL    HW121651   6.440   9.783   0.776
 6606SOL    HW221652   6.581   9.778   0.721
 6607SOL     OW21653  12.075   1.955   3.042
 6607SOL    HW121654  12.050   1.871   3.080
 6607SOL    HW221655  12.047   2.020   3.107
 6608SOL     OW21656  12.799   2.318   1.002
 6608SOL    HW121657  12.718   2.324   0.952
 6608SOL    HW221658  12.818   2.408   1.030
 6609SOL     OW21659   7.385  14.636   6.511
 6609SOL    HW121660   7.381  14.730   6.497
 6609SOL    HW221661   7.376  14.598   6.423
 6610SOL     OW21662   7.278  13.747  12.398
 6610SOL    HW121663   7.261  13.661  12.438
 6610SOL    HW221664   7.357  13.733  12.345
 6611SOL     OW21665   4.314   9.005   7.853
 6611SOL    HW121666   4.408   8.996   7.842
 6611SOL    HW221667   4.281   8.915   7.847
 6612SOL     OW21668   7.521  13.517  12.042
 6612SOL    HW121669   7.513  13.422  12.046
 6612SOL    HW221670   7.536  13.536  11.949
 6613SOL     OW21671   1.191  11.290   1.911
 6613SOL    HW121672   1.212  11.213   1.858
 6613SOL    HW221673   1.271  11.306   1.962
 6614SOL     OW21674  11.275   5.154   9.641
 6614SOL    HW121675  11.236   5.240   9.631
 6614SOL    HW221676  11.285   5.121   9.552
 6615SOL     OW21677   9.909   8.119  10.297
 6615SOL    HW121678   9.952   8.138  10.380
 6615SOL    HW221679   9.852   8.045  10.315
 6616SOL     OW21680   5.421  11.810   0.866
 6616SOL    HW121681   5.429  11.735   0.925
 6616SOL    HW221682   5.471  11.785   0.788
 6617SOL     OW21683  14.541   0.669   4.242
 6617SOL    HW121684  14.561   0.727   4.169
 6617SOL    HW221685  14.626   0.640   4.274
 6618SOL     OW21686   5.682   1.905   4.650
 6618SOL    HW121687   5.608   1.917   4.590
 6618SOL    HW221688   5.670   1.974   4.716
 6619SOL     OW21689   8.679   6.541   4.290
 6619SOL    HW121690   8.672   6.616   4.231
 6619SOL    HW221691   8.616   6.561   4.360
 6620SOL     OW21692  14.634   6.081   4.371
 6620SOL    HW121693  14.648   6.150   4.306
 6620SOL    HW221694  14.653   6.123   4.455
 6621SOL     OW21695   5.800   8.681   3.578
 6621SOL    HW121696   5.816   8.744   3.649
 6621SOL    HW221697   5.884   8.635   3.569
 6622SOL     OW21698   6.064  14.572  14.363
 6622SOL    HW121699   6.118  14.642  14.398
 6622SOL    HW221700   6.002  14.616  14.304
 6623SOL     OW21701  14.825   7.666  11.818
 6623SOL    HW121702  14.786   7.745  11.782
 6623SOL    HW221703  14.753   7.604  11.825
 6624SOL     OW21704   5.672  13.801   7.931
 6624SOL    HW121705   5.750  13.853   7.910
 6624SOL    HW221706   5.673  13.729   7.869
 6625SOL     OW21707   1.513   9.597  13.104
 6625SOL    HW121708   1.463   9.587  13.023
 6625SOL    HW221709   1.590   9.648  13.078
 6626SOL     OW21710  12.836  10.673   3.059
 6626SOL    HW121711  12.822  10.767   3.066
 6626SOL    HW221712  12.883  10.649   3.139
 6627SOL     OW21713  14.325   9.748   3.725
 6627SOL    HW121714  14.311   9.825   3.669
 6627SOL    HW221715  14.395   9.699   3.682
 6628SOL     OW21716  10.913   1.868  14.223
 6628SOL    HW121717  10.917   1.941  14.286
 6628SOL    HW221718  10.821   1.863  14.198
 6629SOL     OW21719   5.178  12.090  11.083
 6629SOL    HW121720   5.150  12.025  11.147
 6629SOL    HW221721   5.225  12.156  11.134
 6630SOL     OW21722   9.299  14.855   8.298
 6630SOL    HW121723   9.336  14.816   8.219
 6630SOL    HW221724   9.205  14.858   8.281
 6631SOL     OW21725   8.212  12.449   5.527
 6631SOL    HW121726   8.266  12.497   5.464
 6631SOL    HW221727   8.273  12.422   5.596
 6632SOL     OW21728   7.842  14.731   7.779
 6632SOL    HW121729   7.831  14.751   7.872
 6632SOL    HW221730   7.821  14.637   7.772
 6633SOL     OW21731  11.420   1.421   6.492
 6633SOL    HW121732  11.417   1.516   6.488
 6633SOL    HW221733  11.328   1.394   6.503
 6634SOL     OW21734   8.269   7.970   1.969
 6634SOL    HW121735   8.270   7.893   1.912
 6634SOL    HW221736   8.262   7.934   2.057
 6635SOL     OW21737   7.418  14.293   9.402
 6635SOL    HW121738   7.426  14.369   9.345
 6635SOL    HW221739   7.469  14.225   9.358
 6636SOL     OW21740  14.334   5.366   4.524
 6636SOL    HW121741  14.277   5.443   4.519
 6636SOL    HW221742  14.416   5.393   4.484
 6637SOL     OW21743   3.659  10.192  10.668
 6637SOL    HW121744   3.730  10.253  10.688
 6637SOL    HW221745   3.676  10.117  10.724
 6638SOL     OW21746   9.732  10.674   3.081
 6638SOL    HW121747   9.668  10.697   3.149
 6638SOL    HW221748   9.806  10.637   3.130
 6639SOL     OW21749  12.428   8.781   6.658
 6639SOL    HW121750  12.494   8.802   6.592
 6639SOL    HW221751  12.472   8.794   6.742
 6640SOL     OW21752  11.934   2.004  11.912
 6640SOL    HW121753  11.886   2.050  11.843
 6640SOL    HW221754  11.901   1.914  11.908
 6641SOL     OW21755  14.764  13.834   9.479
 6641SOL    HW121756  14.690  13.882   9.441
 6641SOL    HW221757  14.825  13.823   9.406
 6642SOL     OW21758   5.320   7.819  14.167
 6642SOL    HW121759   5.227   7.839  14.173
 6642SOL    HW221760   5.343   7.839  14.076
 6643SOL     OW21761   3.136   5.145   2.037
 6643SOL    HW121762   3.055   5.168   2.083
 6643SOL    HW221763   3.173   5.230   2.011
 6644SOL     OW21764  10.290  10.172   3.351
 6644SOL    HW121765  10.310  10.265   3.348
 6644SOL    HW221766  10.374  10.130   3.328
 6645SOL     OW21767  10.342   7.805   3.478
 6645SOL    HW121768  10.423   7.846   3.508
 6645SOL    HW221769  10.313   7.752   3.552
 6646SOL     OW21770  14.760  14.000  10.822
 6646SOL    HW121771  14.748  13.920  10.771
 6646SOL    HW221772  14.677  14.047  10.813
 6647SOL     OW21773   1.647   4.520  14.186
 6647SOL    HW121774   1.678   4.429  14.193
 6647SOL    HW221775   1.688   4.564  14.260
 6648SOL     OW21776   8.583   0.836  10.359
 6648SOL    HW121777   8.613   0.913  10.407
 6648SOL    HW221778   8.540   0.782  10.426
 6649SOL     OW21779  13.496   4.830  11.705
 6649SOL    HW121780  13.458   4.860  11.623
 6649SOL    HW221781  13.422   4.824  11.765
 6650SOL     OW21782  10.312   5.845  10.397
 6650SOL    HW121783  10.274   5.852  10.485
 6650SOL    HW221784  10.240   5.867  10.338
 6651SOL     OW21785   3.137   4.383  12.714
 6651SOL    HW121786   3.170   4.346  12.633
 6651SOL    HW221787   3.060   4.435  12.689
 6652SOL     OW21788  12.489   2.620   3.152
 6652SOL    HW121789  12.521   2.530   3.139
 6652SOL    HW221790  12.568   2.673   3.157
 6653SOL     OW21791  12.640   5.354   7.246
 6653SOL    HW121792  12.726   5.394   7.241
 6653SOL    HW221793  12.579   5.425   7.228
 6654SOL     OW21794  12.465   3.654   8.319
 6654SOL    HW121795  12.509   3.629   8.238
 6654SOL    HW221796  12.523   3.719   8.359
 6655SOL     OW21797   1.458   0.435  14.217
 6655SOL    HW121798   1.453   0.439  14.121
 6655SOL    HW221799   1.437   0.524  14.246
 6656SOL     OW21800   1.871   3.333   1.712
 6656SOL    HW121801   1.839   3.253   1.755
 6656SOL    HW221802   1.935   3.302   1.649
 6657SOL     OW21803   6.605   5.694   2.056
 6657SOL    HW121804   6.643   5.660   1.975
 6657SOL    HW221805   6.512   5.673   2.049
 6658SOL     OW21806   4.434  11.395  11.451
 6658SOL    HW121807   4.383  11.337  11.393
 6658SOL    HW221808   4.398  11.482  11.434
 6659SOL     OW21809  13.456   3.613   9.519
 6659SOL    HW121810  13.545   3.581   9.503
 6659SOL    HW221811  13.442   3.598   9.612
 6660SOL     OW21812   8.267   5.908  12.296
 6660SOL    HW121813   8.207   5.833  12.295
 6660SOL    HW221814   8.328   5.890  12.367
 6661SOL     OW21815   2.357  12.013   7.262
 6661SOL    HW121816   2.352  11.935   7.318
 6661SOL    HW221817   2.434  11.998   7.207
 6662SOL     OW21818   3.730   1.870   9.681
 6662SOL    HW121819   3.704   1.962   9.688
 6662SOL    HW221820   3.742   1.842   9.772
 6663SOL     OW21821   3.012   8.874   3.654
 6663SOL    HW121822   3.060   8.798   3.686
 6663SOL    HW221823   3.080   8.930   3.615
 6664SOL     OW21824   2.003   3.388   0.305
 6664SOL    HW121825   2.058   3.310   0.309
 6664SOL    HW221826   2.060   3.456   0.270
 6665SOL     OW21827   3.606   8.628  14.338
 6665SOL    HW121828   3.632   8.664  14.254
 6665SOL    HW221829   3.568   8.703  14.385
 6666SOL     OW21830  14.298   4.482  10.974
 6666SOL    HW121831  14.213   4.527  10.975
 6666SOL    HW221832  14.324   4.478  11.066
 6667SOL     OW21833   8.454   6.283   1.324
 6667SOL    HW121834   8.503   6.300   1.243
 6667SOL    HW221835   8.469   6.360   1.378
 6668SOL     OW21836  12.074   2.281   4.217
 6668SOL    HW121837  12.125   2.311   4.142
 6668SOL    HW221838  12.084   2.186   4.217
 6669SOL     OW21839   8.513  14.106   6.931
 6669SOL    HW121840   8.605  14.129   6.915
 6669SOL    HW221841   8.497  14.032   6.872
 6670SOL     OW21842  14.334  10.122   2.089
 6670SOL    HW121843  14.427  10.121   2.068
 6670SOL    HW221844  14.294  10.062   2.026
 6671SOL     OW21845  11.420   5.678   8.397
 6671SOL    HW121846  11.474   5.692   8.320
 6671SOL    HW221847  11.340   5.638   8.364
 6672SOL     OW21848  13.591   6.867   9.093
 6672SOL    HW121849  13.530   6.849   9.022
 6672SOL    HW221850  13.590   6.962   9.103
 6673SOL     OW21851   5.404   2.392   6.266
 6673SOL    HW121852   5.330   2.447   6.292
 6673SOL    HW221853   5.444   2.439   6.193
 6674SOL     OW21854  11.026   4.125  12.762
 6674SOL    HW121855  11.058   4.097  12.847
 6674SOL    HW221856  11.021   4.221  12.768
 6675SOL     OW21857   2.067   5.982   6.239
 6675SOL    HW121858   2.113   6.025   6.167
 6675SOL    HW221859   2.134   5.929   6.282
 6676SOL     OW21860   4.224  13.846   3.892
 6676SOL    HW121861   4.210  13.897   3.972
 6676SOL    HW221862   4.166  13.885   3.827
 6677SOL     OW21863   1.019  11.014   3.925
 6677SOL    HW121864   1.028  10.962   3.845
 6677SOL    HW221865   1.108  11.024   3.957
 6678SOL     OW21866   2.925   8.216   4.963
 6678SOL    HW121867   2.835   8.223   4.997
 6678SOL    HW221868   2.915   8.223   4.868
 6679SOL     OW21869   4.086   7.668  12.690
 6679SOL    HW121870   4.106   7.636  12.602
 6679SOL    HW221871   4.100   7.592  12.746
 6680SOL     OW21872  10.557   3.987  10.898
 6680SOL    HW121873  10.519   3.965  10.983
 6680SOL    HW221874  10.494   3.955  10.834
 6681SOL     OW21875   6.117  12.201   0.983
 6681SOL    HW121876   6.111  12.131   0.918
 6681SOL    HW221877   6.067  12.273   0.945
 6682SOL     OW21878   3.415   7.184   2.948
 6682SOL    HW121879   3.422   7.097   2.908
 6682SOL    HW221880   3.322   7.205   2.945
 6683SOL     OW21881   3.368  11.177   8.192
 6683SOL    HW121882   3.312  11.222   8.129
 6683SOL    HW221883   3.307  11.143   8.258
 6684SOL     OW21884   6.520   8.742   7.020
 6684SOL    HW121885   6.541   8.674   7.084
 6684SOL    HW221886   6.598   8.750   6.966
 6685SOL     OW21887   4.702   2.579   7.550
 6685SOL    HW121888   4.734   2.492   7.528
 6685SOL    HW221889   4.776   2.622   7.593
 6686SOL     OW21890   9.387   8.053   1.989
 6686SOL    HW121891   9.471   8.048   2.035
 6686SOL    HW221892   9.321   8.044   2.059
 6687SOL     OW21893  13.256  12.186   8.406
 6687SOL    HW121894  13.278  12.259   8.349
 6687SOL    HW221895  13.244  12.112   8.348
 6688SOL     OW21896  11.835  11.801  14.662
 6688SOL    HW121897  11.780  11.727  14.687
 6688SOL    HW221898  11.815  11.869  14.727
 6689SOL     OW21899   4.280   3.371  10.158
 6689SOL    HW121900   4.257   3.284  10.190
 6689SOL    HW221901   4.204   3.425  10.178
 6690SOL     OW21902   5.248   2.982  12.055
 6690SOL    HW121903   5.282   2.973  12.144
 6690SOL    HW221904   5.297   2.917  12.004
 6691SOL     OW21905   4.123   0.942  11.611
 6691SOL    HW121906   4.148   0.861  11.656
 6691SOL    HW221907   4.203   0.995  11.611
 6692SOL     OW21908  12.030   1.698   6.551
 6692SOL    HW121909  12.068   1.785   6.537
 6692SOL    HW221910  12.088   1.657   6.616
 6693SOL     OW21911  10.347  12.193  13.306
 6693SOL    HW121912  10.304  12.150  13.232
 6693SOL    HW221913  10.318  12.143  13.382
 6694SOL     OW21914   4.862  10.551   5.359
 6694SOL    HW121915   4.794  10.575   5.423
 6694SOL    HW221916   4.829  10.583   5.275
 6695SOL     OW21917   8.096   4.319  14.201
 6695SOL    HW121918   8.126   4.388  14.261
 6695SOL    HW221919   8.167   4.311  14.138
 6696SOL     OW21920   0.211   6.604   2.032
 6696SOL    HW121921   0.179   6.519   2.003
 6696SOL    HW221922   0.211   6.598   2.128
 6697SOL     OW21923   5.337   3.918  14.866
 6697SOL    HW121924   5.368   3.929   0.083
 6697SOL    HW221925   5.355   4.002  14.824
 6698SOL     OW21926   0.888   2.317   4.350
 6698SOL    HW121927   0.862   2.230   4.322
 6698SOL    HW221928   0.867   2.320   4.443
 6699SOL     OW21929  12.021   2.321   5.493
 6699SOL    HW121930  12.004   2.415   5.489
 6699SOL    HW221931  11.945   2.285   5.539
 6700SOL     OW21932   9.274  14.526   6.712
 6700SOL    HW121933   9.275  14.566   6.625
 6700SOL    HW221934   9.205  14.459   6.707
 6701SOL     OW21935  10.133  12.375   6.283
 6701SOL    HW121936  10.130  12.282   6.305
 6701SOL    HW221937  10.198  12.412   6.342
 6702SOL     OW21938   8.400  14.049   0.263
 6702SOL    HW121939   8.486  14.020   0.294
 6702SOL    HW221940   8.338  14.003   0.320
 6703SOL     OW21941  12.988  12.537  11.774
 6703SOL    HW121942  13.033  12.621  11.776
 6703SOL    HW221943  12.931  12.543  11.697
 6704SOL     OW21944   5.131  13.451  10.880
 6704SOL    HW121945   5.116  13.540  10.850
 6704SOL    HW221946   5.053  13.429  10.931
 6705SOL     OW21947   7.513   7.195   9.291
 6705SOL    HW121948   7.455   7.118   9.284
 6705SOL    HW221949   7.460   7.260   9.338
 6706SOL     OW21950  10.971   7.128  13.506
 6706SOL    HW121951  10.879   7.106  13.491
 6706SOL    HW221952  10.988   7.203  13.449
 6707SOL     OW21953   0.050   8.654   7.143
 6707SOL    HW121954   0.110   8.593   7.185
 6707SOL    HW221955   0.006   8.698   7.215
 6708SOL     OW21956   8.490   9.213   4.869
 6708SOL    HW121957   8.519   9.246   4.784
 6708SOL    HW221958   8.559   9.241   4.930
 6709SOL     OW21959  13.364   6.812   1.246
 6709SOL    HW121960  13.435   6.867   1.212
 6709SOL    HW221961  13.394   6.723   1.231
 6710SOL     OW21962   0.991  11.428   7.808
 6710SOL    HW121963   0.969  11.419   7.901
 6710SOL    HW221964   1.054  11.358   7.792
 6711SOL     OW21965   0.151   6.081   7.806
 6711SOL    HW121966   0.212   6.147   7.772
 6711SOL    HW221967   0.177   6.068   7.897
 6712SOL     OW21968   8.000  10.286   8.003
 6712SOL    HW121969   8.089  10.266   8.034
 6712SOL    HW221970   7.963  10.201   7.981
 6713SOL     OW21971   8.256  11.945  12.067
 6713SOL    HW121972   8.332  12.003  12.063
 6713SOL    HW221973   8.200  11.974  11.995
 6714SOL     OW21974   9.647   6.336   2.744
 6714SOL    HW121975   9.717   6.381   2.791
 6714SOL    HW221976   9.572   6.340   2.803
 6715SOL     OW21977   3.474   8.812  10.389
 6715SOL    HW121978   3.487   8.744  10.324
 6715SOL    HW221979   3.561   8.849  10.403
 6716SOL     OW21980  13.793   2.325   4.393
 6716SOL    HW121981  13.854   2.337   4.465
 6716SOL    HW221982  13.740   2.405   4.393
 6717SOL     OW21983   9.352   2.283  13.819
 6717SOL    HW121984   9.267   2.270  13.860
 6717SOL    HW221985   9.414   2.240  13.878
 6718SOL     OW21986   8.971   5.714   5.710
 6718SOL    HW121987   8.905   5.781   5.699
 6718SOL    HW221988   9.055   5.761   5.708
 6719SOL     OW21989   4.927  10.873  12.395
 6719SOL    HW121990   4.948  10.830  12.478
 6719SOL    HW221991   4.843  10.836  12.370
 6720SOL     OW21992  11.516   8.569  12.614
 6720SOL    HW121993  11.429   8.585  12.577
 6720SOL    HW221994  11.499   8.540  12.703
 6721SOL     OW21995   6.106   8.940  14.017
 6721SOL    HW121996   6.092   8.852  14.050
 6721SOL    HW221997   6.019   8.980  14.017
 6722SOL     OW21998   2.740   6.480  12.929
 6722SOL    HW121999   2.703   6.418  12.992
 6722SOL    HW222000   2.668   6.540  12.909
 6723SOL     OW22001   8.698   1.607  12.254
 6723SOL    HW122002   8.736   1.538  12.200
 6723SOL    HW222003   8.750   1.685  12.235
 6724SOL     OW22004   4.137  11.194  11.527
 6724SOL    HW122005   4.065  11.197  11.591
 6724SOL    HW222006   4.216  11.196  11.581
 6725SOL     OW22007  14.407  11.215   4.880
 6725SOL    HW122008  14.378  11.306   4.881
 6725SOL    HW222009  14.328  11.165   4.900
 6726SOL     OW22010  12.341   2.953   3.211
 6726SOL    HW122011  12.392   2.872   3.208
 6726SOL    HW222012  12.392   3.011   3.266
 6727SOL     OW22013   2.630  13.036   3.536
 6727SOL    HW122014   2.615  12.970   3.604
 6727SOL    HW222015   2.631  13.119   3.583
 6728SOL     OW22016   8.036   8.672   4.330
 6728SOL    HW122017   8.067   8.680   4.240
 6728SOL    HW222018   8.031   8.577   4.345
 6729SOL     OW22019   5.479   1.320   1.439
 6729SOL    HW122020   5.563   1.289   1.473
 6729SOL    HW222021   5.417   1.252   1.465
 6730SOL     OW22022  13.155  12.590   7.042
 6730SOL    HW122023  13.215  12.664   7.028
 6730SOL    HW222024  13.080  12.629   7.087
 6731SOL     OW22025   4.796   3.785   4.881
 6731SOL    HW122026   4.829   3.868   4.916
 6731SOL    HW222027   4.702   3.787   4.899
 6732SOL     OW22028  12.464   8.037   2.272
 6732SOL    HW122029  12.454   8.040   2.177
 6732SOL    HW222030  12.375   8.020   2.305
 6733SOL     OW22031   4.242  13.536   8.792
 6733SOL    HW122032   4.279  13.501   8.873
 6733SOL    HW222033   4.258  13.467   8.727
 6734SOL     OW22034   5.228   2.100  14.330
 6734SOL    HW122035   5.201   2.028  14.272
 6734SOL    HW222036   5.266   2.057  14.406
 6735SOL     OW22037   2.044   7.185   2.416
 6735SOL    HW122038   2.094   7.247   2.469
 6735SOL    HW222039   2.101   7.167   2.341
 6736SOL     OW22040  14.806   1.150  11.848
 6736SOL    HW122041  14.761   1.202  11.913
 6736SOL    HW222042  14.790   1.059  11.875
 6737SOL     OW22043  13.331  10.696   0.012
 6737SOL    HW122044  13.376  10.691   0.096
 6737SOL    HW222045  13.259  10.633   0.019
 6738SOL     OW22046  10.646   9.278  12.418
 6738SOL    HW122047  10.665   9.368  12.395
 6738SOL    HW222048  10.551   9.271  12.415
 6739SOL     OW22049  11.629  12.137   4.373
 6739SOL    HW122050  11.714  12.135   4.330
 6739SOL    HW222051  11.580  12.204   4.325
 6740SOL     OW22052   8.446   3.659   0.321
 6740SOL    HW122053   8.457   3.573   0.281
 6740SOL    HW222054   8.379   3.645   0.389
 6741SOL     OW22055   3.294  14.564   6.112
 6741SOL    HW122056   3.293  14.492   6.048
 6741SOL    HW222057   3.205  14.568   6.145
 6742SOL     OW22058   4.375  13.298   1.577
 6742SOL    HW122059   4.313  13.283   1.505
 6742SOL    HW222060   4.377  13.215   1.625
 6743SOL     OW22061   2.259  12.595   6.406
 6743SOL    HW122062   2.319  12.526   6.436
 6743SOL    HW222063   2.225  12.562   6.323
 6744SOL     OW22064  10.386  12.562  11.510
 6744SOL    HW122065  10.400  12.584  11.602
 6744SOL    HW222066  10.320  12.624  11.481
 6745SOL     OW22067  11.917   2.660  14.046
 6745SOL    HW122068  11.944   2.580  14.091
 6745SOL    HW222069  11.989   2.680  13.986
 6746SOL     OW22070   3.814   6.518   0.108
 6746SOL    HW122071   3.830   6.536   0.016
 6746SOL    HW222072   3.741   6.576   0.131
 6747SOL     OW22073   7.674   2.847   3.736
 6747SOL    HW122074   7.701   2.756   3.727
 6747SOL    HW222075   7.716   2.892   3.662
 6748SOL     OW22076  11.902   6.111   2.338
 6748SOL    HW122077  11.883   6.038   2.278
 6748SOL    HW222078  11.816   6.139   2.369
 6749SOL     OW22079   8.807   7.265   4.210
 6749SOL    HW122080   8.873   7.203   4.241
 6749SOL    HW222081   8.855   7.329   4.158
 6750SOL     OW22082   8.051  11.555  10.127
 6750SOL    HW122083   7.989  11.594  10.189
 6750SOL    HW222084   8.127  11.613  10.129
 6751SOL     OW22085  14.053   7.052  12.967
 6751SOL    HW122086  14.024   7.096  13.047
 6751SOL    HW222087  14.039   7.117  12.898
 6752SOL     OW22088   9.376   4.132   5.230
 6752SOL    HW122089   9.463   4.091   5.236
 6752SOL    HW222090   9.393   4.225   5.241
 6753SOL     OW22091  13.415   3.799   3.856
 6753SOL    HW122092  13.364   3.725   3.822
 6753SOL    HW222093  13.505   3.767   3.858
 6754SOL     OW22094  12.449   1.200  14.852
 6754SOL    HW122095  12.482   1.128   0.034
 6754SOL    HW222096  12.382   1.159  14.797
 6755SOL     OW22097  12.814  10.726   3.576
 6755SOL    HW122098  12.805  10.642   3.623
 6755SOL    HW222099  12.869  10.780   3.634
 6756SOL     OW22100   9.002   8.534  10.721
 6756SOL    HW122101   8.943   8.565  10.789
 6756SOL    HW222102   9.086   8.522  10.766
 6757SOL     OW22103   1.450   7.174   0.667
 6757SOL    HW122104   1.413   7.262   0.676
 6757SOL    HW222105   1.422   7.145   0.580
 6758SOL     OW22106   5.976   8.033   0.918
 6758SOL    HW122107   6.061   8.013   0.957
 6758SOL    HW222108   5.949   8.116   0.957
 6759SOL     OW22109   7.266  13.922   2.386
 6759SOL    HW122110   7.319  13.905   2.464
 6759SOL    HW222111   7.199  13.983   2.415
 6760SOL     OW22112  11.229  14.332   7.351
 6760SOL    HW122113  11.164  14.313   7.283
 6760SOL    HW222114  11.232  14.427   7.355
 6761SOL     OW22115   2.251   4.420  12.397
 6761SOL    HW122116   2.275   4.332  12.369
 6761SOL    HW222117   2.315   4.443  12.464
 6762SOL     OW22118   6.297  12.891   6.874
 6762SOL    HW122119   6.227  12.899   6.809
 6762SOL    HW222120   6.377  12.903   6.824
 6763SOL     OW22121  10.719   5.137   4.788
 6763SOL    HW122122  10.797   5.164   4.740
 6763SOL    HW222123  10.669   5.217   4.801
 6764SOL     OW22124   8.554   9.340   3.042
 6764SOL    HW122125   8.467   9.311   3.016
 6764SOL    HW222126   8.570   9.419   2.989
 6765SOL     OW22127   3.805  12.948  14.503
 6765SOL    HW122128   3.729  12.981  14.552
 6765SOL    HW222129   3.844  13.026  14.464
 6766SOL     OW22130   8.353  12.362   5.747
 6766SOL    HW122131   8.440  12.402   5.741
 6766SOL    HW222132   8.327  12.374   5.838
 6767SOL     OW22133   8.689  13.186  14.529
 6767SOL    HW122134   8.661  13.278  14.524
 6767SOL    HW222135   8.780  13.191  14.557
 6768SOL     OW22136   9.559  10.296   3.365
 6768SOL    HW122137   9.504  10.343   3.301
 6768SOL    HW222138   9.646  10.298   3.326
 6769SOL     OW22139   2.051   8.231   0.475
 6769SOL    HW122140   2.080   8.306   0.423
 6769SOL    HW222141   2.005   8.270   0.550
 6770SOL     OW22142   3.601  14.078   3.826
 6770SOL    HW122143   3.556  14.034   3.898
 6770SOL    HW222144   3.531  14.108   3.769
 6771SOL     OW22145   3.780   5.131   0.493
 6771SOL    HW122146   3.779   5.218   0.453
 6771SOL    HW222147   3.782   5.149   0.587
 6772SOL     OW22148   4.038   4.146  11.595
 6772SOL    HW122149   4.041   4.240  11.576
 6772SOL    HW222150   4.016   4.140  11.688
 6773SOL     OW22151   8.040   1.418   3.228
 6773SOL    HW122152   8.090   1.396   3.150
 6773SOL    HW222153   8.057   1.347   3.289
 6774SOL     OW22154  10.795   7.692   8.300
 6774SOL    HW122155  10.838   7.682   8.215
 6774SOL    HW222156  10.702   7.700   8.279
 6775SOL     OW22157   8.716   5.083  11.849
 6775SOL    HW122158   8.708   4.988  11.842
 6775SOL    HW222159   8.751   5.110  11.764
 6776SOL     OW22160  10.745   3.413   7.247
 6776SOL    HW122161  10.741   3.475   7.319
 6776SOL    HW222162  10.730   3.327   7.288
 6777SOL     OW22163  14.798   6.436   1.813
 6777SOL    HW122164  14.745   6.475   1.882
 6777SOL    HW222165   0.005   6.490   1.811
 6778SOL     OW22166   2.847  12.915   1.928
 6778SOL    HW122167   2.798  12.996   1.937
 6778SOL    HW222168   2.857  12.883   2.018
 6779SOL     OW22169   4.181   2.484   9.851
 6779SOL    HW122170   4.187   2.391   9.827
 6779SOL    HW222171   4.263   2.522   9.819
 6780SOL     OW22172   2.882   3.786  10.509
 6780SOL    HW122173   2.930   3.773  10.427
 6780SOL    HW222174   2.894   3.705  10.558
 6781SOL     OW22175  10.539   8.589   0.842
 6781SOL    HW122176  10.489   8.605   0.923
 6781SOL    HW222177  10.628   8.571   0.872
 6782SOL     OW22178  10.610   1.770   1.288
 6782SOL    HW122179  10.516   1.782   1.277
 6782SOL    HW222180  10.646   1.780   1.200
 6783SOL     OW22181   7.277   7.014  12.317
 6783SOL    HW122182   7.190   7.043  12.343
 6783SOL    HW222183   7.261   6.945  12.253
 6784SOL     OW22184   3.532   6.283  12.554
 6784SOL    HW122185   3.520   6.259  12.462
 6784SOL    HW222186   3.449   6.323  12.580
 6785SOL     OW22187  14.485   1.083   3.910
 6785SOL    HW122188  14.477   1.178   3.919
 6785SOL    HW222189  14.447   1.064   3.824
 6786SOL     OW22190  10.088   5.402  10.088
 6786SOL    HW122191  10.045   5.488  10.084
 6786SOL    HW222192  10.107   5.390  10.181
 6787SOL     OW22193  10.814   5.035   5.218
 6787SOL    HW122194  10.730   5.025   5.174
 6787SOL    HW222195  10.817   4.963   5.281
 6788SOL     OW22196   0.666  14.649  13.601
 6788SOL    HW122197   0.647  14.660  13.508
 6788SOL    HW222198   0.670  14.554  13.614
 6789SOL     OW22199   7.915  12.802  13.785
 6789SOL    HW122200   7.848  12.831  13.846
 6789SOL    HW222201   7.867  12.767  13.711
 6790SOL     OW22202  11.737   9.068   7.235
 6790SOL    HW122203  11.807   9.039   7.177
 6790SOL    HW222204  11.767   9.153   7.268
 6791SOL     OW22205  11.467   3.394   2.582
 6791SOL    HW122206  11.431   3.457   2.520
 6791SOL    HW222207  11.551   3.368   2.545
 6792SOL     OW22208   7.098  13.782   9.300
 6792SOL    HW122209   7.067  13.753   9.215
 6792SOL    HW222210   7.188  13.809   9.286
 6793SOL     OW22211   3.766  10.187   6.940
 6793SOL    HW122212   3.747  10.107   6.890
 6793SOL    HW222213   3.685  10.238   6.935
 6794SOL     OW22214   5.874  14.206   2.124
 6794SOL    HW122215   5.900  14.295   2.102
 6794SOL    HW222216   5.807  14.184   2.059
 6795SOL     OW22217   2.263   9.448   9.874
 6795SOL    HW122218   2.305   9.374   9.919
 6795SOL    HW222219   2.211   9.491   9.942
 6796SOL     OW22220  12.768   1.315   8.530
 6796SOL    HW122221  12.852   1.276   8.505
 6796SOL    HW222222  12.749   1.378   8.461
 6797SOL     OW22223   0.560   6.193  12.598
 6797SOL    HW122224   0.633   6.156  12.648
 6797SOL    HW222225   0.528   6.120  12.546
 6798SOL     OW22226   8.975   3.790  11.317
 6798SOL    HW122227   8.974   3.748  11.231
 6798SOL    HW222228   8.883   3.811  11.334
 6799SOL     OW22229   2.935  12.588   3.655
 6799SOL    HW122230   2.874  12.515   3.652
 6799SOL    HW222231   2.880  12.665   3.640
 6800SOL     OW22232   3.396   4.614  11.949
 6800SOL    HW122233   3.393   4.601  12.044
 6800SOL    HW222234   3.476   4.663  11.934
 6801SOL     OW22235  11.795   4.894   7.885
 6801SOL    HW122236  11.762   4.978   7.853
 6801SOL    HW222237  11.868   4.873   7.826
 6802SOL     OW22238   0.332  10.428  13.396
 6802SOL    HW122239   0.314  10.355  13.337
 6802SOL    HW222240   0.352  10.387  13.480
 6803SOL     OW22241  12.323   5.433   8.363
 6803SOL    HW122242  12.386   5.434   8.435
 6803SOL    HW222243  12.282   5.520   8.366
 6804SOL     OW22244   2.715   9.269   6.757
 6804SOL    HW122245   2.634   9.247   6.710
 6804SOL    HW222246   2.693   9.255   6.849
 6805SOL     OW22247   4.580   9.018   1.651
 6805SOL    HW122248   4.552   9.023   1.742
 6805SOL    HW222249   4.499   9.010   1.601
 6806SOL     OW22250   5.676   1.658   1.562
 6806SOL    HW122251   5.685   1.594   1.491
 6806SOL    HW222252   5.620   1.613   1.627
 6807SOL     OW22253  13.647   8.455   7.785
 6807SOL    HW122254  13.598   8.389   7.735
 6807SOL    HW222255  13.722   8.407   7.820
 6808SOL     OW22256   3.992   1.399  12.536
 6808SOL    HW122257   3.940   1.474  12.566
 6808SOL    HW222258   4.072   1.437  12.500
 6809SOL     OW22259   3.095   3.909   5.021
 6809SOL    HW122260   3.035   3.872   4.955
 6809SOL    HW222261   3.042   3.974   5.067
 6810SOL     OW22262   6.253   7.126   4.087
 6810SOL    HW122263   6.241   7.216   4.115
 6810SOL    HW222264   6.324   7.093   4.143
 6811SOL     OW22265   5.908   3.708   4.898
 6811SOL    HW122266   5.928   3.774   4.831
 6811SOL    HW222267   5.834   3.745   4.947
 6812SOL     OW22268   5.505   1.513   3.684
 6812SOL    HW122269   5.530   1.594   3.639
 6812SOL    HW222270   5.506   1.536   3.777
 6813SOL     OW22271  13.571   9.802  13.979
 6813SOL    HW122272  13.515   9.732  14.013
 6813SOL    HW222273  13.597   9.772  13.891
 6814SOL     OW22274   2.375   3.408   0.957
 6814SOL    HW122275   2.330   3.492   0.964
 6814SOL    HW222276   2.462   3.423   0.994
 6815SOL     OW22277   4.056  13.791   7.049
 6815SOL    HW122278   4.093  13.751   7.127
 6815SOL    HW222279   4.105  13.873   7.039
 6816SOL     OW22280   5.575   4.729   1.171
 6816SOL    HW122281   5.523   4.730   1.252
 6816SOL    HW222282   5.543   4.804   1.121
 6817SOL     OW22283   3.019  10.262   8.980
 6817SOL    HW122284   2.959  10.196   9.014
 6817SOL    HW222285   3.026  10.327   9.050
 6818SOL     OW22286   3.246  14.579   2.117
 6818SOL    HW122287   3.318  14.560   2.177
 6818SOL    HW222288   3.183  14.509   2.132
 6819SOL     OW22289  10.227  13.384  10.630
 6819SOL    HW122290  10.193  13.392  10.719
 6819SOL    HW222291  10.196  13.462  10.585
 6820SOL     OW22292  11.079  13.296  10.161
 6820SOL    HW122293  11.100  13.280  10.253
 6820SOL    HW222294  10.992  13.336  10.163
 6821SOL     OW22295   6.647   4.075   3.218
 6821SOL    HW122296   6.660   4.168   3.238
 6821SOL    HW222297   6.583   4.046   3.283
 6822SOL     OW22298   9.821   0.367   8.376
 6822SOL    HW122299   9.818   0.417   8.458
 6822SOL    HW222300   9.733   0.375   8.340
 6823SOL     OW22301   7.716   1.892   0.959
 6823SOL    HW122302   7.801   1.850   0.944
 6823SOL    HW222303   7.654   1.819   0.964
 6824SOL     OW22304   7.628   0.638   4.481
 6824SOL    HW122305   7.587   0.695   4.416
 6824SOL    HW222306   7.718   0.669   4.486
 6825SOL     OW22307  11.505   2.150  10.521
 6825SOL    HW122308  11.549   2.070  10.493
 6825SOL    HW222309  11.499   2.143  10.616
 6826SOL     OW22310  12.330   5.495   4.098
 6826SOL    HW122311  12.340   5.590   4.105
 6826SOL    HW222312  12.263   5.482   4.031
 6827SOL     OW22313   1.387   3.045  14.448
 6827SOL    HW122314   1.329   2.975  14.417
 6827SOL    HW222315   1.342   3.080  14.525
 6828SOL     OW22316   6.910   1.139   7.592
 6828SOL    HW122317   6.971   1.207   7.564
 6828SOL    HW222318   6.915   1.140   7.688
 6829SOL     OW22319   8.513  13.826  12.658
 6829SOL    HW122320   8.517  13.745  12.709
 6829SOL    HW222321   8.458  13.884  12.711
 6830SOL     OW22322   6.480   8.812  14.143
 6830SOL    HW122323   6.467   8.820  14.049
 6830SOL    HW222324   6.403   8.853  14.182
 6831SOL     OW22325   8.675  13.850   6.155
 6831SOL    HW122326   8.598  13.874   6.208
 6831SOL    HW222327   8.644  13.777   6.100
 6832SOL     OW22328  10.115   9.094   4.909
 6832SOL    HW122329  10.142   9.151   4.982
 6832SOL    HW222330  10.033   9.133   4.878
 6833SOL     OW22331   0.882  12.951   7.245
 6833SOL    HW122332   0.859  12.935   7.337
 6833SOL    HW222333   0.937  13.029   7.247
 6834SOL     OW22334   5.016   6.169  10.415
 6834SOL    HW122335   4.991   6.251  10.459
 6834SOL    HW222336   5.008   6.189  10.322
 6835SOL     OW22337   0.182  14.644   2.942
 6835SOL    HW122338   0.140  14.592   2.873
 6835SOL    HW222339   0.255  14.589   2.971
 6836SOL     OW22340   8.335  10.034   5.154
 6836SOL    HW122341   8.275   9.960   5.161
 6836SOL    HW222342   8.396  10.008   5.084
 6837SOL     OW22343   0.482   6.917   7.047
 6837SOL    HW122344   0.506   6.869   6.968
 6837SOL    HW222345   0.439   6.996   7.015
 6838SOL     OW22346  11.594   6.047   3.229
 6838SOL    HW122347  11.660   6.022   3.294
 6838SOL    HW222348  11.555   5.964   3.201
 6839SOL     OW22349   1.571   8.823   9.096
 6839SOL    HW122350   1.567   8.919   9.098
 6839SOL    HW222351   1.629   8.801   9.169
 6840SOL     OW22352  12.817   2.720   5.452
 6840SOL    HW122353  12.783   2.801   5.489
 6840SOL    HW222354  12.748   2.689   5.393
 6841SOL     OW22355   0.158  12.907   6.677
 6841SOL    HW122356   0.247  12.929   6.702
 6841SOL    HW222357   0.136  12.829   6.729
 6842SOL     OW22358  10.003   9.243  10.125
 6842SOL    HW122359  10.029   9.253  10.033
 6842SOL    HW222360   9.980   9.150  10.133
 6843SOL     OW22361  10.457   2.606   9.575
 6843SOL    HW122362  10.544   2.619   9.538
 6843SOL    HW222363  10.467   2.623   9.669
 6844SOL     OW22364  11.319  14.786   9.686
 6844SOL    HW122365  11.339  14.782   9.779
 6844SOL    HW222366  11.229  14.817   9.681
 6845SOL     OW22367   8.256  12.775  13.262
 6845SOL    HW122368   8.307  12.767  13.343
 6845SOL    HW222369   8.317  12.812  13.199
 6846SOL     OW22370   0.239   7.883   6.940
 6846SOL    HW122371   0.197   7.798   6.931
 6846SOL    HW222372   0.177   7.944   6.899
 6847SOL     OW22373  13.247   4.295   7.778
 6847SOL    HW122374  13.226   4.210   7.817
 6847SOL    HW222375  13.231   4.358   7.848
 6848SOL     OW22376  12.222   6.825   6.242
 6848SOL    HW122377  12.157   6.894   6.254
 6848SOL    HW222378  12.273   6.826   6.324
 6849SOL     OW22379  10.158   1.339   1.105
 6849SOL    HW122380  10.139   1.252   1.069
 6849SOL    HW222381  10.073   1.382   1.110
 6850SOL     OW22382   8.528   2.057   2.875
 6850SOL    HW122383   8.605   2.110   2.855
 6850SOL    HW222384   8.511   2.073   2.968
 6851SOL     OW22385  13.036   7.963  14.323
 6851SOL    HW122386  13.058   8.000  14.238
 6851SOL    HW222387  12.967   7.899  14.304
 6852SOL     OW22388   6.320  14.190   2.439
 6852SOL    HW122389   6.227  14.213   2.433
 6852SOL    HW222390   6.324  14.100   2.408
 6853SOL     OW22391  12.491   3.695   9.335
 6853SOL    HW122392  12.568   3.752   9.339
 6853SOL    HW222393  12.425   3.741   9.387
 6854SOL     OW22394  14.602  11.228  10.704
 6854SOL    HW122395  14.655  11.150  10.720
 6854SOL    HW222396  14.555  11.208  10.622
 6855SOL     OW22397   3.525   7.298   7.644
 6855SOL    HW122398   3.453   7.260   7.694
 6855SOL    HW222399   3.597   7.236   7.654
 6856SOL     OW22400  10.015   2.472   9.273
 6856SOL    HW122401  10.013   2.568   9.279
 6856SOL    HW222402  10.098   2.447   9.312
 6857SOL     OW22403   8.704   5.448   8.337
 6857SOL    HW122404   8.709   5.370   8.392
 6857SOL    HW222405   8.702   5.414   8.247
 6858SOL     OW22406  13.091   4.226   9.036
 6858SOL    HW122407  13.007   4.181   9.028
 6858SOL    HW222408  13.093   4.258   9.126
 6859SOL     OW22409   1.310   0.272   9.328
 6859SOL    HW122410   1.369   0.246   9.399
 6859SOL    HW222411   1.340   0.359   9.303
 6860SOL     OW22412   6.206   8.462   6.466
 6860SOL    HW122413   6.194   8.380   6.419
 6860SOL    HW222414   6.173   8.529   6.406
 6861SOL     OW22415   6.173   2.930   6.194
 6861SOL    HW122416   6.219   2.935   6.278
 6861SOL    HW222417   6.126   2.847   6.198
 6862SOL     OW22418   4.417   3.359   3.536
 6862SOL    HW122419   4.429   3.322   3.448
 6862SOL    HW222420   4.497   3.410   3.551
 6863SOL     OW22421   7.999  12.175  11.937
 6863SOL    HW122422   7.951  12.254  11.912
 6863SOL    HW222423   8.025  12.190  12.028
 6864SOL     OW22424   1.897   6.527   6.785
 6864SOL    HW122425   1.888   6.614   6.823
 6864SOL    HW222426   1.985   6.526   6.747
 6865SOL     OW22427  14.793   3.109   7.679
 6865SOL    HW122428  14.732   3.071   7.742
 6865SOL    HW222429  14.747   3.105   7.595
 6866SOL     OW22430  10.549   7.422   4.119
 6866SOL    HW122431  10.635   7.404   4.082
 6866SOL    HW222432  10.566   7.487   4.187
 6867SOL     OW22433   4.905   1.797  11.695
 6867SOL    HW122434   4.990   1.787  11.653
 6867SOL    HW222435   4.877   1.886  11.673
 6868SOL     OW22436   2.645   5.977   3.536
 6868SOL    HW122437   2.740   5.983   3.537
 6868SOL    HW222438   2.627   5.883   3.538
 6869SOL     OW22439  11.480  14.608  14.055
 6869SOL    HW122440  11.554  14.669  14.060
 6869SOL    HW222441  11.521  14.521  14.054
 6870SOL     OW22442   2.345  10.068   7.283
 6870SOL    HW122443   2.366  10.015   7.360
 6870SOL    HW222444   2.311  10.151   7.318
 6871SOL     OW22445  10.470   4.557   4.605
 6871SOL    HW122446  10.407   4.624   4.634
 6871SOL    HW222447  10.546   4.607   4.576
 6872SOL     OW22448   7.766   7.408  12.534
 6872SOL    HW122449   7.687   7.436  12.489
 6872SOL    HW222450   7.817   7.488  12.545
 6873SOL     OW22451  10.126   2.966  11.813
 6873SOL    HW122452  10.097   3.009  11.894
 6873SOL    HW222453  10.182   2.895  11.843
 6874SOL     OW22454   4.291  11.315   0.635
 6874SOL    HW122455   4.383  11.343   0.639
 6874SOL    HW222456   4.296  11.219   0.641
 6875SOL     OW22457   8.541   0.438   9.544
 6875SOL    HW122458   8.465   0.490   9.519
 6875SOL    HW222459   8.615   0.483   9.502
 6876SOL     OW22460  14.015   3.396   7.099
 6876SOL    HW122461  14.064   3.473   7.129
 6876SOL    HW222462  14.079   3.344   7.050
 6877SOL     OW22463  12.037  10.667  14.052
 6877SOL    HW122464  12.043  10.753  14.093
 6877SOL    HW222465  11.945  10.659  14.028
 6878SOL     OW22466  10.364   4.064   6.496
 6878SOL    HW122467  10.346   4.127   6.565
 6878SOL    HW222468  10.459   4.071   6.482
 6879SOL     OW22469   3.775   2.918   0.011
 6879SOL    HW122470   3.840   2.863  14.840
 6879SOL    HW222471   3.695   2.865   0.010
 6880SOL     OW22472   0.559   0.075   8.585
 6880SOL    HW122473   0.535   0.016   8.513
 6880SOL    HW222474   0.610   0.020   8.644
 6881SOL     OW22475   7.660   6.657   5.330
 6881SOL    HW122476   7.721   6.620   5.394
 6881SOL    HW222477   7.629   6.738   5.371
 6882SOL     OW22478   8.452   0.009  11.696
 6882SOL    HW122479   8.529   0.065  11.695
 6882SOL    HW222480   8.458  14.834  11.779
 6883SOL     OW22481  12.658   2.480  10.478
 6883SOL    HW122482  12.674   2.402  10.532
 6883SOL    HW222483  12.620   2.445  10.398
 6884SOL     OW22484   9.310  12.912   5.893
 6884SOL    HW122485   9.281  13.003   5.895
 6884SOL    HW222486   9.400  12.915   5.926
 6885SOL     OW22487   2.687   3.717   6.359
 6885SOL    HW122488   2.780   3.705   6.382
 6885SOL    HW222489   2.640   3.685   6.436
 6886SOL     OW22490  11.049   0.079   1.184
 6886SOL    HW122491  11.042   0.168   1.149
 6886SOL    HW222492  11.142   0.058   1.176
 6887SOL     OW22493  11.905   3.500  10.068
 6887SOL    HW122494  11.939   3.412  10.053
 6887SOL    HW222495  11.846   3.491  10.143
 6888SOL     OW22496  13.342   4.867  11.922
 6888SOL    HW122497  13.404   4.919  11.973
 6888SOL    HW222498  13.256   4.896  11.952
 6889SOL     OW22499   5.874   4.186   1.659
 6889SOL    HW122500   5.870   4.094   1.685
 6889SOL    HW222501   5.913   4.185   1.572
 6890SOL     OW22502  12.044   2.728  13.093
 6890SOL    HW122503  12.014   2.705  13.182
 6890SOL    HW222504  11.977   2.789  13.061
 6891SOL     OW22505   2.916   5.934   6.010
 6891SOL    HW122506   2.886   5.877   6.081
 6891SOL    HW222507   2.848   5.925   5.943
 6892SOL     OW22508   8.688   3.062   4.705
 6892SOL    HW122509   8.607   3.045   4.752
 6892SOL    HW222510   8.680   3.011   4.624
 6893SOL     OW22511   2.578   9.896  12.312
 6893SOL    HW122512   2.607   9.979  12.274
 6893SOL    HW222513   2.657   9.858  12.349
 6894SOL     OW22514   5.783   0.837   9.836
 6894SOL    HW122515   5.701   0.878   9.810
 6894SOL    HW222516   5.834   0.909   9.874
 6895SOL     OW22517  14.421  12.673  14.243
 6895SOL    HW122518  14.456  12.587  14.268
 6895SOL    HW222519  14.429  12.676  14.148
 6896SOL     OW22520   4.206   6.589   4.584
 6896SOL    HW122521   4.167   6.664   4.629
 6896SOL    HW222522   4.170   6.513   4.630
 6897SOL     OW22523   3.516  13.366   9.786
 6897SOL    HW122524   3.585  13.395   9.726
 6897SOL    HW222525   3.495  13.277   9.758
 6898SOL     OW22526  13.378   0.460  12.084
 6898SOL    HW122527  13.460   0.498  12.053
 6898SOL    HW222528  13.357   0.392  12.020
 6899SOL     OW22529   7.500   3.868   8.497
 6899SOL    HW122530   7.541   3.943   8.538
 6899SOL    HW222531   7.413   3.864   8.536
 6900SOL     OW22532   8.655   6.346   1.155
 6900SOL    HW122533   8.736   6.382   1.191
 6900SOL    HW222534   8.631   6.405   1.083
 6901SOL     OW22535   8.253   4.619   4.577
 6901SOL    HW122536   8.246   4.568   4.497
 6901SOL    HW222537   8.203   4.699   4.559
 6902SOL     OW22538  12.761  14.225   6.725
 6902SOL    HW122539  12.768  14.315   6.692
 6902SOL    HW222540  12.851  14.201   6.747
 6903SOL     OW22541  10.280   5.221   4.152
 6903SOL    HW122542  10.282   5.202   4.246
 6903SOL    HW222543  10.261   5.315   4.148
 6904SOL     OW22544  10.298   5.032   4.777
 6904SOL    HW122545  10.207   5.050   4.798
 6904SOL    HW222546  10.296   4.995   4.689
 6905SOL     OW22547   1.503  14.305   2.842
 6905SOL    HW122548   1.514  14.392   2.805
 6905SOL    HW222549   1.418  14.308   2.887
 6906SOL     OW22550  14.844   3.465   2.177
 6906SOL    HW122551   0.017   3.514   2.110
 6906SOL    HW222552   0.016   3.380   2.180
 6907SOL     OW22553   3.763   6.392   3.199
 6907SOL    HW122554   3.839   6.352   3.241
 6907SOL    HW222555   3.708   6.422   3.272
 6908SOL     OW22556  14.510  13.079  11.421
 6908SOL    HW122557  14.550  13.165  11.426
 6908SOL    HW222558  14.551  13.029  11.493
 6909SOL     OW22559  14.308  11.967  12.237
 6909SOL    HW122560  14.257  12.043  12.265
 6909SOL    HW222561  14.344  11.931  12.319
 6910SOL     OW22562  10.746  11.722   9.818
 6910SOL    HW122563  10.774  11.803   9.776
 6910SOL    HW222564  10.714  11.748   9.904
 6911SOL     OW22565   7.081   7.742  14.224
 6911SOL    HW122566   7.103   7.683  14.152
 6911SOL    HW222567   7.009   7.698  14.269
 6912SOL     OW22568   3.635   7.064  14.379
 6912SOL    HW122569   3.550   7.077  14.422
 6912SOL    HW222570   3.680   7.000  14.434
 6913SOL     OW22571   9.177   4.139  10.951
 6913SOL    HW122572   9.094   4.157  10.907
 6913SOL    HW222573   9.220   4.224  10.955
 6914SOL     OW22574   9.934   0.022   3.781
 6914SOL    HW122575   9.894   0.026   3.867
 6914SOL    HW222576  10.002   0.089   3.783
 6915SOL     OW22577   8.099  13.470   1.600
 6915SOL    HW122578   8.178  13.497   1.553
 6915SOL    HW222579   8.111  13.504   1.689
 6916SOL     OW22580   8.289   2.510   6.563
 6916SOL    HW122581   8.340   2.447   6.512
 6916SOL    HW222582   8.238   2.558   6.497
 6917SOL     OW22583   4.724   2.200   0.371
 6917SOL    HW122584   4.701   2.258   0.298
 6917SOL    HW222585   4.780   2.253   0.428
 6918SOL     OW22586   8.602  12.664   6.000
 6918SOL    HW122587   8.636  12.582   6.035
 6918SOL    HW222588   8.654  12.732   6.044
 6919SOL     OW22589   2.049  11.771   5.340
 6919SOL    HW122590   1.970  11.792   5.390
 6919SOL    HW222591   2.089  11.699   5.388
 6920SOL     OW22592  13.808  13.303  13.931
 6920SOL    HW122593  13.829  13.294  13.839
 6920SOL    HW222594  13.890  13.328  13.973
 6921SOL     OW22595   2.234  11.615  12.797
 6921SOL    HW122596   2.279  11.692  12.833
 6921SOL    HW222597   2.288  11.541  12.826
 6922SOL     OW22598   0.011   5.466  10.311
 6922SOL    HW122599   0.028   5.413  10.233
 6922SOL    HW222600   0.098   5.496  10.338
 6923SOL     OW22601  12.666  14.379   2.117
 6923SOL    HW122602  12.646  14.293   2.155
 6923SOL    HW222603  12.595  14.395   2.055
 6924SOL     OW22604  11.280  11.136   0.082
 6924SOL    HW122605  11.296  11.195   0.008
 6924SOL    HW222606  11.293  11.048   0.045
 6925SOL     OW22607  10.479  12.922   9.857
 6925SOL    HW122608  10.392  12.960   9.862
 6925SOL    HW222609  10.537  12.987   9.897
 6926SOL     OW22610  11.607   8.039  10.383
 6926SOL    HW122611  11.627   8.076  10.468
 6926SOL    HW222612  11.691   8.031  10.339
 6927SOL     OW22613  11.403  10.435   4.765
 6927SOL    HW122614  11.401  10.490   4.843
 6927SOL    HW222615  11.489  10.453   4.726
 6928SOL     OW22616   3.974  13.285  10.978
 6928SOL    HW122617   4.036  13.212  10.979
 6928SOL    HW222618   3.914  13.265  11.050
 6929SOL     OW22619  13.211   7.820  10.183
 6929SOL    HW122620  13.164   7.804  10.264
 6929SOL    HW222621  13.304   7.817  10.207
 6930SOL     OW22622   9.029   1.490   9.873
 6930SOL    HW122623   9.003   1.556   9.809
 6930SOL    HW222624   8.999   1.407   9.835
 6931SOL     OW22625  13.230   9.723   7.382
 6931SOL    HW122626  13.149   9.680   7.409
 6931SOL    HW222627  13.203   9.811   7.354
 6932SOL     OW22628  10.314  11.367  12.996
 6932SOL    HW122629  10.280  11.337  13.080
 6932SOL    HW222630  10.331  11.461  13.008
 6933SOL     OW22631  12.244   6.553  10.271
 6933SOL    HW122632  12.322   6.576  10.221
 6933SOL    HW222633  12.181   6.524  10.205
 6934SOL     OW22634   4.256   3.726   8.141
 6934SOL    HW122635   4.264   3.811   8.184
 6934SOL    HW222636   4.163   3.707   8.141
 6935SOL     OW22637   4.724   8.681   1.927
 6935SOL    HW122638   4.784   8.715   1.993
 6935SOL    HW222639   4.735   8.586   1.931
 6936SOL     OW22640  11.449   7.902  10.986
 6936SOL    HW122641  11.503   7.980  10.975
 6936SOL    HW222642  11.398   7.919  11.066
 6937SOL     OW22643  11.092   3.670   9.079
 6937SOL    HW122644  11.080   3.735   9.010
 6937SOL    HW222645  11.047   3.592   9.047
 6938SOL     OW22646   0.999  11.288   5.926
 6938SOL    HW122647   0.969  11.200   5.949
 6938SOL    HW222648   0.997  11.291   5.831
 6939SOL     OW22649   4.963  11.612   9.304
 6939SOL    HW122650   5.011  11.583   9.226
 6939SOL    HW222651   4.872  11.585   9.288
 6940SOL     OW22652  11.098   4.920   6.265
 6940SOL    HW122653  11.024   4.981   6.272
 6940SOL    HW222654  11.092   4.866   6.343
 6941SOL     OW22655  11.863   7.749   6.744
 6941SOL    HW122656  11.952   7.738   6.712
 6941SOL    HW222657  11.866   7.717   6.835
 6942SOL     OW22658   1.350   7.868   5.460
 6942SOL    HW122659   1.343   7.811   5.537
 6942SOL    HW222660   1.325   7.955   5.492
 6943SOL     OW22661  12.963   5.415   9.508
 6943SOL    HW122662  12.920   5.329   9.509
 6943SOL    HW222663  12.937   5.456   9.591
 6944SOL     OW22664   0.317   2.691  12.074
 6944SOL    HW122665   0.386   2.748  12.039
 6944SOL    HW222666   0.335   2.606  12.034
 6945SOL     OW22667   1.121  14.713   5.209
 6945SOL    HW122668   1.074  14.796   5.199
 6945SOL    HW222669   1.169  14.703   5.127
 6946SOL     OW22670   2.633   8.986   1.060
 6946SOL    HW122671   2.553   8.978   1.007
 6946SOL    HW222672   2.602   8.986   1.150
 6947SOL     OW22673   7.727   8.613   2.207
 6947SOL    HW122674   7.664   8.608   2.278
 6947SOL    HW222675   7.691   8.679   2.147
 6948SOL     OW22676   1.983   3.135   7.797
 6948SOL    HW122677   2.000   3.053   7.842
 6948SOL    HW222678   1.905   3.171   7.840
 6949SOL     OW22679  12.369   6.001   9.189
 6949SOL    HW122680  12.449   5.953   9.211
 6949SOL    HW222681  12.298   5.939   9.203
 6950SOL     OW22682  14.293  12.867   9.188
 6950SOL    HW122683  14.278  12.940   9.249
 6950SOL    HW222684  14.378  12.833   9.213
 6951SOL     OW22685   4.185   3.421   7.716
 6951SOL    HW122686   4.231   3.485   7.769
 6951SOL    HW222687   4.234   3.339   7.728
 6952SOL     OW22688  10.166   4.426   5.562
 6952SOL    HW122689  10.105   4.456   5.629
 6952SOL    HW222690  10.140   4.335   5.546
 6953SOL     OW22691   1.159  12.520   1.508
 6953SOL    HW122692   1.175  12.614   1.497
 6953SOL    HW222693   1.244  12.479   1.492
 6954SOL     OW22694   6.866   4.341   8.406
 6954SOL    HW122695   6.820   4.295   8.336
 6954SOL    HW222696   6.818   4.317   8.485
 6955SOL     OW22697   6.169  13.891  11.665
 6955SOL    HW122698   6.176  13.821  11.601
 6955SOL    HW222699   6.259  13.918  11.682
 6956SOL     OW22700   0.325   9.894   2.418
 6956SOL    HW122701   0.321   9.848   2.502
 6956SOL    HW222702   0.414   9.929   2.414
 6957SOL     OW22703   7.764  13.130  13.719
 6957SOL    HW122704   7.732  13.220  13.718
 6957SOL    HW222705   7.689  13.078  13.750
 6958SOL     OW22706   7.636   4.370   2.896
 6958SOL    HW122707   7.660   4.336   2.982
 6958SOL    HW222708   7.556   4.323   2.873
 6959SOL     OW22709   8.115   4.970  13.457
 6959SOL    HW122710   8.193   5.023  13.440
 6959SOL    HW222711   8.051   5.031  13.492
 6960SOL     OW22712   8.735  14.609  12.666
 6960SOL    HW122713   8.693  14.604  12.580
 6960SOL    HW222714   8.817  14.562  12.655
 6961SOL     OW22715   5.036   6.777  11.825
 6961SOL    HW122716   5.097   6.728  11.879
 6961SOL    HW222717   5.050   6.744  11.736
 6962SOL     OW22718   2.216   1.539   1.442
 6962SOL    HW122719   2.169   1.486   1.507
 6962SOL    HW222720   2.191   1.501   1.358
 6963SOL     OW22721   3.582   8.412   0.634
 6963SOL    HW122722   3.644   8.341   0.616
 6963SOL    HW222723   3.496   8.375   0.611
 6964SOL     OW22724   5.980   7.724   6.807
 6964SOL    HW122725   5.902   7.673   6.786
 6964SOL    HW222726   5.997   7.778   6.730
 6965SOL     OW22727   4.346   0.898  14.422
 6965SOL    HW122728   4.274   0.848  14.461
 6965SOL    HW222729   4.308   0.941  14.346
 6966SOL     OW22730   0.727   9.862   6.725
 6966SOL    HW122731   0.724   9.953   6.755
 6966SOL    HW222732   0.636   9.842   6.702
 6967SOL     OW22733   7.997   4.538   0.650
 6967SOL    HW122734   8.014   4.494   0.567
 6967SOL    HW222735   7.944   4.614   0.626
 6968SOL     OW22736  13.928   9.739   9.928
 6968SOL    HW122737  13.944   9.763  10.019
 6968SOL    HW222738  13.884   9.815   9.890
 6969SOL     OW22739   3.057   3.881   4.301
 6969SOL    HW122740   3.009   3.962   4.316
 6969SOL    HW222741   3.030   3.853   4.214
 6970SOL     OW22742   5.679  13.860   9.075
 6970SOL    HW122743   5.588  13.859   9.106
 6970SOL    HW222744   5.688  13.779   9.025
 6971SOL     OW22745   1.579   2.960   4.890
 6971SOL    HW122746   1.551   3.043   4.927
 6971SOL    HW222747   1.662   2.941   4.933
 6972SOL     OW22748   2.899  11.676  14.790
 6972SOL    HW122749   2.836  11.738  14.828
 6972SOL    HW222750   2.847  11.600  14.765
 6973SOL     OW22751  10.700  12.378   2.104
 6973SOL    HW122752  10.681  12.327   2.183
 6973SOL    HW222753  10.648  12.335   2.036
 6974SOL     OW22754   2.218  11.842  14.586
 6974SOL    HW122755   2.181  11.799  14.663
 6974SOL    HW222756   2.229  11.933  14.612
 6975SOL     OW22757   0.023   3.526   3.916
 6975SOL    HW122758   0.003   3.487   4.002
 6975SOL    HW222759  14.814   3.569   3.891
 6976SOL     OW22760   6.915   7.651   2.570
 6976SOL    HW122761   6.938   7.735   2.531
 6976SOL    HW222762   6.821   7.656   2.586
 6977SOL     OW22763  10.375   0.054   0.593
 6977SOL    HW122764  10.284   0.049   0.623
 6977SOL    HW222765  10.422   0.096   0.666
 6978SOL     OW22766   4.327  12.185   1.249
 6978SOL    HW122767   4.409  12.139   1.267
 6978SOL    HW222768   4.296  12.147   1.167
 6979SOL     OW22769  12.569   9.530   7.686
 6979SOL    HW122770  12.560   9.617   7.726
 6979SOL    HW222771  12.629   9.544   7.612
 6980SOL     OW22772   9.420   4.527  13.346
 6980SOL    HW122773   9.463   4.441  13.345
 6980SOL    HW222774   9.474   4.580  13.405
 6981SOL     OW22775   3.767  10.210  11.950
 6981SOL    HW122776   3.821  10.282  11.919
 6981SOL    HW222777   3.810  10.131  11.918
 6982SOL     OW22778   7.485   2.579   6.371
 6982SOL    HW122779   7.471   2.484   6.369
 6982SOL    HW222780   7.441   2.608   6.451
 6983SOL     OW22781   9.028   3.368  12.510
 6983SOL    HW122782   8.998   3.338  12.424
 6983SOL    HW222783   9.022   3.290  12.566
 6984SOL     OW22784   1.485  12.677  12.340
 6984SOL    HW122785   1.474  12.585  12.365
 6984SOL    HW222786   1.477  12.725  12.422
 6985SOL     OW22787  13.608   9.574   4.554
 6985SOL    HW122788  13.698   9.540   4.555
 6985SOL    HW222789  13.618   9.668   4.541
 6986SOL     OW22790  10.506   2.708  12.614
 6986SOL    HW122791  10.490   2.800  12.592
 6986SOL    HW222792  10.555   2.711  12.696
 6987SOL     OW22793   2.344  11.360   8.071
 6987SOL    HW122794   2.381  11.278   8.039
 6987SOL    HW222795   2.343  11.418   7.994
 6988SOL     OW22796   2.462   3.866   2.044
 6988SOL    HW122797   2.466   3.772   2.060
 6988SOL    HW222798   2.485   3.905   2.128
 6989SOL     OW22799   8.976  11.778   1.600
 6989SOL    HW122800   8.903  11.805   1.544
 6989SOL    HW222801   9.053  11.816   1.559
 6990SOL     OW22802   9.201  13.070  11.373
 6990SOL    HW122803   9.296  13.069  11.376
 6990SOL    HW222804   9.175  13.145  11.427
 6991SOL     OW22805  13.343  13.231  10.083
 6991SOL    HW122806  13.316  13.140  10.066
 6991SOL    HW222807  13.293  13.257  10.161
 6992SOL     OW22808   1.339   3.238   7.057
 6992SOL    HW122809   1.277   3.174   7.090
 6992SOL    HW222810   1.297   3.323   7.072
 6993SOL     OW22811   1.270  10.577  14.503
 6993SOL    HW122812   1.220  10.495  14.503
 6993SOL    HW222813   1.348  10.556  14.554
 6994SOL     OW22814   6.097   8.521   1.882
 6994SOL    HW122815   6.109   8.512   1.788
 6994SOL    HW222816   6.155   8.592   1.908
 6995SOL     OW22817   3.767   7.928  10.599
 6995SOL    HW122818   3.859   7.905  10.606
 6995SOL    HW222819   3.731   7.865  10.536
 6996SOL     OW22820  12.976   7.102   3.853
 6996SOL    HW122821  12.932   7.142   3.778
 6996SOL    HW222822  12.992   7.174   3.913
 6997SOL     OW22823   8.595   0.175   4.618
 6997SOL    HW122824   8.667   0.238   4.609
 6997SOL    HW222825   8.638   0.093   4.643
 6998SOL     OW22826   3.964   0.057   2.699
 6998SOL    HW122827   3.877   0.020   2.685
 6998SOL    HW222828   3.971   0.128   2.635
 6999SOL     OW22829  12.744  14.646  11.025
 6999SOL    HW122830  12.712  14.558  11.047
 6999SOL    HW222831  12.668  14.703  11.040
 7000SOL     OW22832   8.576   0.619   2.991
 7000SOL    HW122833   8.670   0.634   2.999
 7000SOL    HW222834   8.566   0.524   2.995
 7001SOL     OW22835  10.405  13.989   1.454
 7001SOL    HW122836  10.391  14.053   1.384
 7001SOL    HW222837  10.401  14.040   1.535
 7002SOL     OW22838   7.871   8.450   0.441
 7002SOL    HW122839   7.948   8.484   0.487
 7002SOL    HW222840   7.798   8.502   0.475
 7003SOL     OW22841   1.610  10.355  11.050
 7003SOL    HW122842   1.677  10.313  10.996
 7003SOL    HW222843   1.660  10.413  11.108
 7004SOL     OW22844   6.705   2.978   7.968
 7004SOL    HW122845   6.632   2.968   8.030
 7004SOL    HW222846   6.705   2.895   7.920
 7005SOL     OW22847  11.764   2.075   4.406
 7005SOL    HW122848  11.849   2.036   4.386
 7005SOL    HW222849  11.704   2.035   4.344
 7006SOL     OW22850   5.846  10.835  12.302
 7006SOL    HW122851   5.819  10.745  12.320
 7006SOL    HW222852   5.806  10.856  12.218
 7007SOL     OW22853  13.419  12.547   9.956
 7007SOL    HW122854  13.465  12.602  10.019
 7007SOL    HW222855  13.489  12.506   9.905
 7008SOL     OW22856   9.464   1.817  14.542
 7008SOL    HW122857   9.527   1.853  14.605
 7008SOL    HW222858   9.478   1.867  14.462
 7009SOL     OW22859   0.263  10.804  10.047
 7009SOL    HW122860   0.348  10.837  10.075
 7009SOL    HW222861   0.281  10.759   9.964
 7010SOL     OW22862  14.449  12.175  12.445
 7010SOL    HW122863  14.537  12.148  12.419
 7010SOL    HW222864  14.407  12.096  12.478
 7011SOL     OW22865   2.422  12.687   1.432
 7011SOL    HW122866   2.394  12.643   1.512
 7011SOL    HW222867   2.455  12.772   1.462
 7012SOL     OW22868  13.658   9.298   1.790
 7012SOL    HW122869  13.595   9.291   1.718
 7012SOL    HW222870  13.633   9.227   1.849
 7013SOL     OW22871   9.170   3.269   9.785
 7013SOL    HW122872   9.121   3.338   9.741
 7013SOL    HW222873   9.260   3.278   9.752
 7014SOL     OW22874   3.493   7.816  12.962
 7014SOL    HW122875   3.442   7.864  12.897
 7014SOL    HW222876   3.485   7.869  13.042
 7015SOL     OW22877   3.268  10.353  13.085
 7015SOL    HW122878   3.350  10.309  13.105
 7015SOL    HW222879   3.200  10.288  13.105
 7016SOL     OW22880   3.373  10.854  12.166
 7016SOL    HW122881   3.315  10.787  12.203
 7016SOL    HW222882   3.365  10.843  12.071
 7017SOL     OW22883  10.450   9.918   0.428
 7017SOL    HW122884  10.478  10.009   0.419
 7017SOL    HW222885  10.432   9.889   0.339
 7018SOL     OW22886  10.761   6.932   1.942
 7018SOL    HW122887  10.720   6.862   1.891
 7018SOL    HW222888  10.764   6.898   2.032
 7019SOL     OW22889   3.338   8.516   2.786
 7019SOL    HW122890   3.285   8.489   2.862
 7019SOL    HW222891   3.363   8.433   2.744
 7020SOL     OW22892  14.838  14.076   2.429
 7020SOL    HW122893  14.800  14.123   2.354
 7020SOL    HW222894  14.809  13.985   2.417
 7021SOL     OW22895   8.195  13.850   4.959
 7021SOL    HW122896   8.117  13.816   4.914
 7021SOL    HW222897   8.215  13.784   5.025
 7022SOL     OW22898   6.944   6.087   1.127
 7022SOL    HW122899   6.925   6.078   1.221
 7022SOL    HW222900   7.014   6.025   1.111
 7023SOL     OW22901  14.783   1.205  10.894
 7023SOL    HW122902  14.816   1.271  10.955
 7023SOL    HW222903  14.688   1.204  10.910
 7024SOL     OW22904   0.321  14.708  14.760
 7024SOL    HW122905   0.258  14.730  14.828
 7024SOL    HW222906   0.302  14.768  14.689
 7025SOL     OW22907  14.269  11.251   6.246
 7025SOL    HW122908  14.361  11.251   6.272
 7025SOL    HW222909  14.220  11.256   6.328
 7026SOL     OW22910  14.176   4.604  11.894
 7026SOL    HW122911  14.250   4.645  11.849
 7026SOL    HW222912  14.204   4.595  11.985
 7027SOL     OW22913   4.993   8.207  13.638
 7027SOL    HW122914   5.041   8.215  13.721
 7027SOL    HW222915   4.909   8.170  13.663
 7028SOL     OW22916  10.376   0.772  13.121
 7028SOL    HW122917  10.301   0.826  13.095
 7028SOL    HW222918  10.449   0.833  13.126
 7029SOL     OW22919   4.543   8.215   6.587
 7029SOL    HW122920   4.595   8.137   6.570
 7029SOL    HW222921   4.578   8.281   6.526
 7030SOL     OW22922   0.121   7.455  14.627
 7030SOL    HW122923   0.034   7.440  14.591
 7030SOL    HW222924   0.107   7.520  14.697
 7031SOL     OW22925  12.689  11.073   4.285
 7031SOL    HW122926  12.603  11.109   4.304
 7031SOL    HW222927  12.696  10.996   4.342
 7032SOL     OW22928   8.081   2.088   9.237
 7032SOL    HW122929   8.056   2.065   9.326
 7032SOL    HW222930   8.166   2.132   9.247
 7033SOL     OW22931  12.642  14.518   9.328
 7033SOL    HW122932  12.650  14.458   9.401
 7033SOL    HW222933  12.580  14.584   9.357
 7034SOL     OW22934   2.072   0.110   7.976
 7034SOL    HW122935   2.124   0.098   7.896
 7034SOL    HW222936   2.062   0.205   7.983
 7035SOL     OW22937   0.230   8.766  12.563
 7035SOL    HW122938   0.296   8.702  12.590
 7035SOL    HW222939   0.214   8.819  12.642
 7036SOL     OW22940   2.275  10.196   8.881
 7036SOL    HW122941   2.267  10.268   8.819
 7036SOL    HW222942   2.257  10.117   8.830
 7037SOL     OW22943  10.637   5.239   2.565
 7037SOL    HW122944  10.661   5.331   2.557
 7037SOL    HW222945  10.661   5.201   2.480
 7038SOL     OW22946   3.640   6.635  13.823
 7038SOL    HW122947   3.692   6.715  13.831
 7038SOL    HW222948   3.670   6.580  13.895
 7039SOL     OW22949   8.784   9.619   0.630
 7039SOL    HW122950   8.721   9.616   0.703
 7039SOL    HW222951   8.746   9.682   0.568
 7040SOL     OW22952   1.423  14.754  13.264
 7040SOL    HW122953   1.423  14.810  13.186
 7040SOL    HW222954   1.496  14.787  13.317
 7041SOL     OW22955   9.412   1.358   2.372
 7041SOL    HW122956   9.486   1.301   2.351
 7041SOL    HW222957   9.404   1.352   2.467
 7042SOL     OW22958  13.999   2.164   0.352
 7042SOL    HW122959  14.036   2.223   0.286
 7042SOL    HW222960  14.010   2.211   0.434
 7043SOL     OW22961  12.155  14.091   3.303
 7043SOL    HW122962  12.127  14.175   3.266
 7043SOL    HW222963  12.251  14.096   3.303
 7044SOL     OW22964   3.681   1.897  11.307
 7044SOL    HW122965   3.651   1.910  11.397
 7044SOL    HW222966   3.764   1.850  11.316
 7045SOL     OW22967   9.091   2.271  14.270
 7045SOL    HW122968   9.109   2.227  14.354
 7045SOL    HW222969   9.145   2.349  14.272
 7046SOL     OW22970   9.434  10.032   2.588
 7046SOL    HW122971   9.462   9.956   2.537
 7046SOL    HW222972   9.468  10.107   2.540
 7047SOL     OW22973   9.279  14.001  10.583
 7047SOL    HW122974   9.295  14.033  10.494
 7047SOL    HW222975   9.355  14.030  10.633
 7048SOL     OW22976   9.906   8.626   7.862
 7048SOL    HW122977   9.894   8.590   7.950
 7048SOL    HW222978   9.882   8.719   7.872
 7049SOL     OW22979   9.311  12.477   7.174
 7049SOL    HW122980   9.273  12.422   7.242
 7049SOL    HW222981   9.310  12.423   7.095
 7050SOL     OW22982   2.310  12.400   9.852
 7050SOL    HW122983   2.256  12.331   9.891
 7050SOL    HW222984   2.373  12.353   9.797
 7051SOL     OW22985   8.483  12.662   3.430
 7051SOL    HW122986   8.418  12.724   3.397
 7051SOL    HW222987   8.434  12.581   3.443
 7052SOL     OW22988   0.495  10.256   5.945
 7052SOL    HW122989   0.400  10.265   5.946
 7052SOL    HW222990   0.522  10.298   5.863
 7053SOL     OW22991  13.780   0.903   7.911
 7053SOL    HW122992  13.725   0.824   7.907
 7053SOL    HW222993  13.750   0.950   7.988
 7054SOL     OW22994  12.750  12.944   9.461
 7054SOL    HW122995  12.692  12.877   9.424
 7054SOL    HW222996  12.718  12.958   9.550
 7055SOL     OW22997   2.093   4.577   8.207
 7055SOL    HW122998   2.092   4.493   8.252
 7055SOL    HW222999   2.117   4.640   8.275
 7056SOL     OW23000  12.306   2.529   4.773
 7056SOL    HW123001  12.282   2.562   4.686
 7056SOL    HW223002  12.305   2.606   4.830
 7057SOL     OW23003   3.438   6.516   0.807
 7057SOL    HW123004   3.494   6.447   0.772
 7057SOL    HW223005   3.497   6.591   0.819
 7058SOL     OW23006   4.817   0.487   6.230
 7058SOL    HW123007   4.747   0.540   6.268
 7058SOL    HW223008   4.773   0.405   6.205
 7059SOL     OW23009   0.423   0.359   4.380
 7059SOL    HW123010   0.379   0.275   4.394
 7059SOL    HW223011   0.467   0.349   4.296
 7060SOL     OW23012  13.531   8.336  13.355
 7060SOL    HW123013  13.457   8.348  13.295
 7060SOL    HW223014  13.608   8.355  13.302
 7061SOL     OW23015   6.883   7.332  14.018
 7061SOL    HW123016   6.940   7.348  13.943
 7061SOL    HW223017   6.886   7.238  14.032
 7062SOL     OW23018   7.343   0.418  13.297
 7062SOL    HW123019   7.263   0.368  13.308
 7062SOL    HW223020   7.317   0.509  13.314
 7063SOL     OW23021   4.982   8.907   8.830
 7063SOL    HW123022   4.959   8.844   8.899
 7063SOL    HW223023   5.001   8.852   8.754
 7064SOL     OW23024  14.042   4.705  12.947
 7064SOL    HW123025  13.994   4.623  12.956
 7064SOL    HW223026  13.984   4.762  12.897
 7065SOL     OW23027   5.853   8.753   5.419
 7065SOL    HW123028   5.810   8.789   5.497
 7065SOL    HW223029   5.918   8.819   5.395
 7066SOL     OW23030   6.210  10.421   6.418
 7066SOL    HW123031   6.154  10.478   6.366
 7066SOL    HW223032   6.169  10.420   6.505
 7067SOL     OW23033   5.966   7.852   0.303
 7067SOL    HW123034   6.050   7.813   0.326
 7067SOL    HW223035   5.967   7.856   0.207
 7068SOL     OW23036  13.554   1.636   2.174
 7068SOL    HW123037  13.565   1.699   2.245
 7068SOL    HW223038  13.634   1.643   2.122
 7069SOL     OW23039  13.230   4.501   2.240
 7069SOL    HW123040  13.144   4.542   2.241
 7069SOL    HW223041  13.219   4.421   2.189
 7070SOL     OW23042  10.753   2.945   4.663
 7070SOL    HW123043  10.815   2.969   4.593
 7070SOL    HW223044  10.722   3.029   4.696
 7071SOL     OW23045   0.968  12.779   3.499
 7071SOL    HW123046   1.030  12.738   3.559
 7071SOL    HW223047   0.935  12.706   3.446
 7072SOL     OW23048  13.798  10.258  11.690
 7072SOL    HW123049  13.815  10.245  11.783
 7072SOL    HW223050  13.708  10.291  11.686
 7073SOL     OW23051   7.281  12.073   5.856
 7073SOL    HW123052   7.362  12.031   5.827
 7073SOL    HW223053   7.253  12.126   5.781
 7074SOL     OW23054   6.169   5.341  10.924
 7074SOL    HW123055   6.127   5.408  10.978
 7074SOL    HW223056   6.132   5.354  10.837
 7075SOL     OW23057   5.214   1.712  10.710
 7075SOL    HW123058   5.274   1.723  10.636
 7075SOL    HW223059   5.156   1.641  10.682
 7076SOL     OW23060   8.136   6.151   9.860
 7076SOL    HW123061   8.050   6.188   9.880
 7076SOL    HW223062   8.195   6.227   9.863
 7077SOL     OW23063   3.353   1.156  12.106
 7077SOL    HW123064   3.384   1.195  12.025
 7077SOL    HW223065   3.345   1.063  12.088
 7078SOL     OW23066   6.883   8.946  10.922
 7078SOL    HW123067   6.809   9.005  10.939
 7078SOL    HW223068   6.932   8.946  11.004
 7079SOL     OW23069  12.786  13.398   8.654
 7079SOL    HW123070  12.792  13.494   8.645
 7079SOL    HW223071  12.735  13.385   8.734
 7080SOL     OW23072   8.406   8.428   1.113
 7080SOL    HW123073   8.342   8.359   1.130
 7080SOL    HW223074   8.438   8.453   1.200
 7081SOL     OW23075   5.837   8.738   2.606
 7081SOL    HW123076   5.830   8.774   2.518
 7081SOL    HW223077   5.884   8.655   2.595
 7082SOL     OW23078  10.896   7.176   6.255
 7082SOL    HW123079  10.861   7.248   6.308
 7082SOL    HW223080  10.982   7.159   6.293
 7083SOL     OW23081   8.539   8.675   1.685
 7083SOL    HW123082   8.508   8.585   1.678
 7083SOL    HW223083   8.629   8.673   1.651
 7084SOL     OW23084  10.412  14.211   4.880
 7084SOL    HW123085  10.455  14.254   4.806
 7084SOL    HW223086  10.389  14.124   4.846
 7085SOL     OW23087   9.751   7.324   3.688
 7085SOL    HW123088   9.684   7.363   3.632
 7085SOL    HW223089   9.831   7.374   3.670
 7086SOL     OW23090  10.063   8.640   0.928
 7086SOL    HW123091  10.012   8.634   0.847
 7086SOL    HW223092  10.008   8.693   0.986
 7087SOL     OW23093   1.869  13.647  11.365
 7087SOL    HW123094   1.875  13.555  11.339
 7087SOL    HW223095   1.894  13.695  11.286
 7088SOL     OW23096  13.040   5.630  12.691
 7088SOL    HW123097  13.036   5.539  12.718
 7088SOL    HW223098  13.049   5.679  12.772
 7089SOL     OW23099  11.683   9.524  13.413
 7089SOL    HW123100  11.615   9.513  13.346
 7089SOL    HW223101  11.765   9.517  13.365
 7090SOL     OW23102   5.772  10.957   7.928
 7090SOL    HW123103   5.794  10.872   7.890
 7090SOL    HW223104   5.799  11.021   7.863
 7091SOL     OW23105   8.305   1.820   9.802
 7091SOL    HW123106   8.359   1.817   9.881
 7091SOL    HW223107   8.295   1.913   9.783
 7092SOL     OW23108   9.211  10.617  12.262
 7092SOL    HW123109   9.231  10.670  12.339
 7092SOL    HW223110   9.115  10.623  12.253
 7093SOL     OW23111  13.924   4.483  12.667
 7093SOL    HW123112  13.926   4.387  12.665
 7093SOL    HW223113  13.998   4.510  12.613
 7094SOL     OW23114   0.078  11.660   8.848
 7094SOL    HW123115   0.082  11.592   8.780
 7094SOL    HW223116   0.007  11.632   8.906
 7095SOL     OW23117   6.474   4.073   9.717
 7095SOL    HW123118   6.463   4.070   9.812
 7095SOL    HW223119   6.557   4.030   9.701
 7096SOL     OW23120   6.849   3.404  10.349
 7096SOL    HW123121   6.900   3.342  10.401
 7096SOL    HW223122   6.796   3.349  10.291
 7097SOL     OW23123   4.591  14.551   7.019
 7097SOL    HW123124   4.572  14.631   6.969
 7097SOL    HW223125   4.653  14.503   6.964
 7098SOL     OW23126  12.631  12.196   5.449
 7098SOL    HW123127  12.574  12.257   5.495
 7098SOL    HW223128  12.573  12.128   5.416
 7099SOL     OW23129   2.879   3.110   3.960
 7099SOL    HW123130   2.867   3.062   3.878
 7099SOL    HW223131   2.863   3.045   4.029
 7100SOL     OW23132   7.487  10.327   0.362
 7100SOL    HW123133   7.529  10.389   0.422
 7100SOL    HW223134   7.559  10.294   0.308
 7101SOL     OW23135  10.295  12.486   6.607
 7101SOL    HW123136  10.361  12.552   6.625
 7101SOL    HW223137  10.212  12.527   6.631
 7102SOL     OW23138   8.888   9.932  12.039
 7102SOL    HW123139   8.947   9.990  12.087
 7102SOL    HW223140   8.811   9.923  12.096
 7103SOL     OW23141  11.701   6.722  11.850
 7103SOL    HW123142  11.677   6.643  11.802
 7103SOL    HW223143  11.727   6.784  11.782
 7104SOL     OW23144  11.207   9.769   7.404
 7104SOL    HW123145  11.118   9.801   7.388
 7104SOL    HW223146  11.195   9.683   7.443
 7105SOL     OW23147  14.525   2.793  13.355
 7105SOL    HW123148  14.584   2.845  13.409
 7105SOL    HW223149  14.498   2.721  13.412
 7106SOL     OW23150  11.985  13.114   6.610
 7106SOL    HW123151  11.894  13.118   6.640
 7106SOL    HW223152  11.984  13.155   6.524
 7107SOL     OW23153   0.985   5.507   1.794
 7107SOL    HW123154   0.940   5.585   1.828
 7107SOL    HW223155   0.977   5.513   1.699
 7108SOL     OW23156  13.285  11.271   3.849
 7108SOL    HW123157  13.189  11.279   3.849
 7108SOL    HW223158  13.310  11.296   3.938
 7109SOL     OW23159   5.210   6.853   1.881
 7109SOL    HW123160   5.224   6.766   1.918
 7109SOL    HW223161   5.199   6.838   1.787
 7110SOL     OW23162   6.174  11.475   7.502
 7110SOL    HW123163   6.193  11.481   7.596
 7110SOL    HW223164   6.124  11.554   7.483
 7111SOL     OW23165   5.722   4.698   5.615
 7111SOL    HW123166   5.640   4.742   5.636
 7111SOL    HW223167   5.749   4.658   5.698
 7112SOL     OW23168  13.028   4.624   1.742
 7112SOL    HW123169  13.076   4.549   1.777
 7112SOL    HW223170  13.075   4.700   1.775
 7113SOL     OW23171   7.601   4.288  13.944
 7113SOL    HW123172   7.651   4.295  13.863
 7113SOL    HW223173   7.519   4.247  13.918
 7114SOL     OW23174   7.185   3.142   6.746
 7114SOL    HW123175   7.270   3.099   6.751
 7114SOL    HW223176   7.184   3.184   6.660
 7115SOL     OW23177  12.251   1.651   6.702
 7115SOL    HW123178  12.335   1.697   6.700
 7115SOL    HW223179  12.243   1.619   6.792
 7116SOL     OW23180  10.863  12.766   6.792
 7116SOL    HW123181  10.937  12.725   6.837
 7116SOL    HW223182  10.899  12.848   6.756
 7117SOL     OW23183   1.155   3.582  13.555
 7117SOL    HW123184   1.087   3.514  13.558
 7117SOL    HW223185   1.141   3.632  13.635
 7118SOL     OW23186  11.902   4.060   0.336
 7118SOL    HW123187  11.863   3.992   0.281
 7118SOL    HW223188  11.930   4.014   0.415
 7119SOL     OW23189   2.518   7.989  14.507
 7119SOL    HW123190   2.556   8.018  14.424
 7119SOL    HW223191   2.447   8.052  14.523
 7120SOL     OW23192  13.275   5.078   6.463
 7120SOL    HW123193  13.229   5.104   6.542
 7120SOL    HW223194  13.237   4.994   6.439
 7121SOL     OW23195   1.631   6.351   3.383
 7121SOL    HW123196   1.677   6.426   3.420
 7121SOL    HW223197   1.589   6.309   3.459
 7122SOL     OW23198   4.821   6.663   7.387
 7122SOL    HW123199   4.849   6.705   7.306
 7122SOL    HW223200   4.868   6.579   7.388
 7123SOL     OW23201   4.824   5.186   7.277
 7123SOL    HW123202   4.732   5.210   7.270
 7123SOL    HW223203   4.845   5.147   7.192
 7124SOL     OW23204  11.177  11.697   6.164
 7124SOL    HW123205  11.199  11.683   6.073
 7124SOL    HW223206  11.200  11.616   6.208
 7125SOL     OW23207   8.598   4.205   9.063
 7125SOL    HW123208   8.530   4.268   9.040
 7125SOL    HW223209   8.653   4.198   8.985
 7126SOL     OW23210   3.441  12.709   1.271
 7126SOL    HW123211   3.427  12.634   1.328
 7126SOL    HW223212   3.534  12.707   1.250
 7127SOL     OW23213  10.404   9.782   7.937
 7127SOL    HW123214  10.348   9.778   7.859
 7127SOL    HW223215  10.447   9.697   7.940
 7128SOL     OW23216  12.888   2.014  12.530
 7128SOL    HW123217  12.878   2.057  12.445
 7128SOL    HW223218  12.935   1.933  12.511
 7129SOL     OW23219   8.183   4.467  10.349
 7129SOL    HW123220   8.194   4.437  10.439
 7129SOL    HW223221   8.106   4.420  10.317
 7130SOL     OW23222   7.878   2.912   0.740
 7130SOL    HW123223   7.958   2.898   0.790
 7130SOL    HW223224   7.808   2.915   0.806
 7131SOL     OW23225  10.716  12.152   3.109
 7131SOL    HW123226  10.760  12.196   3.036
 7131SOL    HW223227  10.636  12.117   3.071
 7132SOL     OW23228  12.744  13.345  14.050
 7132SOL    HW123229  12.720  13.369  14.139
 7132SOL    HW223230  12.835  13.316  14.058
 7133SOL     OW23231   7.047  10.792  12.484
 7133SOL    HW123232   7.078  10.734  12.553
 7133SOL    HW223233   6.970  10.748  12.448
 7134SOL     OW23234   3.495   6.946  11.075
 7134SOL    HW123235   3.471   7.039  11.076
 7134SOL    HW223236   3.503   6.922  11.167
 7135SOL     OW23237   0.987   5.589   6.794
 7135SOL    HW123238   0.978   5.623   6.883
 7135SOL    HW223239   0.929   5.644   6.741
 7136SOL     OW23240  10.839   7.512   9.177
 7136SOL    HW123241  10.846   7.597   9.132
 7136SOL    HW223242  10.756   7.476   9.148
 7137SOL     OW23243  13.128   0.890  12.743
 7137SOL    HW123244  13.086   0.809  12.714
 7137SOL    HW223245  13.080   0.915  12.822
 7138SOL     OW23246  10.847   2.550   0.776
 7138SOL    HW123247  10.807   2.473   0.734
 7138SOL    HW223248  10.813   2.549   0.866
 7139SOL     OW23249   2.909   2.138   7.371
 7139SOL    HW123250   2.959   2.206   7.324
 7139SOL    HW223251   2.925   2.157   7.463
 7140SOL     OW23252  11.704   7.031   5.826
 7140SOL    HW123253  11.664   6.975   5.759
 7140SOL    HW223254  11.667   7.000   5.909
 7141SOL     OW23255  13.401   0.644   0.074
 7141SOL    HW123256  13.309   0.624   0.054
 7141SOL    HW223257  13.437   0.562   0.107
 7142SOL     OW23258   8.221   1.677  12.592
 7142SOL    HW123259   8.258   1.590  12.597
 7142SOL    HW223260   8.160   1.673  12.518
 7143SOL     OW23261   8.695   7.705   5.047
 7143SOL    HW123262   8.761   7.644   5.082
 7143SOL    HW223263   8.736   7.742   4.969
 7144SOL     OW23264   4.331   3.742   4.532
 7144SOL    HW123265   4.329   3.815   4.469
 7144SOL    HW223266   4.240   3.730   4.558
 7145SOL     OW23267  12.081  11.175  11.647
 7145SOL    HW123268  12.104  11.128  11.727
 7145SOL    HW223269  12.162  11.180  11.597
 7146SOL     OW23270   5.282  12.507   0.505
 7146SOL    HW123271   5.258  12.520   0.597
 7146SOL    HW223272   5.321  12.591   0.478
 7147SOL     OW23273   9.317  12.557   3.257
 7147SOL    HW123274   9.336  12.488   3.193
 7147SOL    HW223275   9.346  12.522   3.341
 7148SOL     OW23276   6.038   6.502  13.152
 7148SOL    HW123277   6.126   6.466  13.141
 7148SOL    HW223278   5.993   6.481  13.070
 7149SOL     OW23279  14.782   3.533  12.009
 7149SOL    HW123280  14.744   3.603  12.062
 7149SOL    HW223281   0.004   3.546  12.016
 7150SOL     OW23282   3.094   7.982   4.288
 7150SOL    HW123283   3.087   7.907   4.348
 7150SOL    HW223284   3.178   8.021   4.310
 7151SOL     OW23285   3.252   2.259  14.510
 7151SOL    HW123286   3.230   2.284  14.599
 7151SOL    HW223287   3.177   2.207  14.480
 7152SOL     OW23288   5.194  12.645   7.547
 7152SOL    HW123289   5.252  12.622   7.475
 7152SOL    HW223290   5.156  12.729   7.522
 7153SOL     OW23291  12.090  13.348  12.848
 7153SOL    HW123292  12.126  13.436  12.837
 7153SOL    HW223293  12.140  13.294  12.788
 7154SOL     OW23294   4.890   8.209   7.473
 7154SOL    HW123295   4.911   8.246   7.388
 7154SOL    HW223296   4.800   8.177   7.464
 7155SOL     OW23297   0.365   0.684   8.692
 7155SOL    HW123298   0.426   0.735   8.639
 7155SOL    HW223299   0.309   0.639   8.629
 7156SOL     OW23300   1.654  12.779   1.239
 7156SOL    HW123301   1.702  12.855   1.205
 7156SOL    HW223302   1.721  12.718   1.269
 7157SOL     OW23303  11.331   7.441   2.411
 7157SOL    HW123304  11.257   7.388   2.379
 7157SOL    HW223305  11.371   7.476   2.331
 7158SOL     OW23306   0.437   9.371   9.371
 7158SOL    HW123307   0.357   9.330   9.404
 7158SOL    HW223308   0.407   9.424   9.297
 7159SOL     OW23309   9.866  13.716   2.026
 7159SOL    HW123310   9.839  13.807   2.036
 7159SOL    HW223311   9.826  13.670   2.100
 7160SOL     OW23312  10.968  11.489  10.443
 7160SOL    HW123313  11.046  11.524  10.485
 7160SOL    HW223314  10.964  11.398  10.471
 7161SOL     OW23315  11.298   7.766   1.058
 7161SOL    HW123316  11.243   7.694   1.087
 7161SOL    HW223317  11.377   7.761   1.113
 7162SOL     OW23318   6.868   2.561  14.060
 7162SOL    HW123319   6.914   2.623  14.003
 7162SOL    HW223320   6.782   2.551  14.021
 7163SOL     OW23321   0.816   6.764  10.358
 7163SOL    HW123322   0.784   6.718  10.436
 7163SOL    HW223323   0.911   6.762  10.366
 7164SOL     OW23324  13.830  11.723   9.548
 7164SOL    HW123325  13.864  11.806   9.585
 7164SOL    HW223326  13.895  11.658   9.575
 7165SOL     OW23327   3.828   4.784  13.922
 7165SOL    HW123328   3.880   4.715  13.963
 7165SOL    HW223329   3.752   4.739  13.885
 7166SOL     OW23330   5.336   7.504  13.183
 7166SOL    HW123331   5.310   7.530  13.095
 7166SOL    HW223332   5.345   7.409  13.179
 7167SOL     OW23333  10.157   7.098   7.232
 7167SOL    HW123334  10.076   7.047   7.230
 7167SOL    HW223335  10.150   7.156   7.157
 7168SOL     OW23336   5.674   5.702   6.336
 7168SOL    HW123337   5.600   5.641   6.331
 7168SOL    HW223338   5.657   5.766   6.267
 7169SOL     OW23339  12.944   3.084  11.300
 7169SOL    HW123340  12.929   3.083  11.206
 7169SOL    HW223341  12.982   2.998  11.319
 7170SOL     OW23342   3.500  13.792   1.495
 7170SOL    HW123343   3.527  13.748   1.575
 7170SOL    HW223344   3.405  13.801   1.504
 7171SOL     OW23345   8.128  10.435   6.406
 7171SOL    HW123346   8.097  10.513   6.452
 7171SOL    HW223347   8.099  10.447   6.316
 7172SOL     OW23348   4.060  10.999   1.688
 7172SOL    HW123349   4.148  11.017   1.723
 7172SOL    HW223350   4.002  11.014   1.763
 7173SOL     OW23351   3.973   3.193  14.299
 7173SOL    HW123352   3.921   3.219  14.223
 7173SOL    HW223353   3.912   3.200  14.373
 7174SOL     OW23354   3.721   1.655  13.133
 7174SOL    HW123355   3.701   1.719  13.201
 7174SOL    HW223356   3.765   1.583  13.180
 7175SOL     OW23357   2.696   0.938  14.297
 7175SOL    HW123358   2.788   0.937  14.270
 7175SOL    HW223359   2.680   0.851  14.332
 7176SOL     OW23360  11.841   5.612   3.681
 7176SOL    HW123361  11.829   5.593   3.588
 7176SOL    HW223362  11.848   5.527   3.723
 7177SOL     OW23363   4.228  13.627   2.736
 7177SOL    HW123364   4.212  13.535   2.756
 7177SOL    HW223365   4.316  13.644   2.770
 7178SOL     OW23366   9.705  13.264   1.233
 7178SOL    HW123367   9.798  13.273   1.213
 7178SOL    HW223368   9.661  13.295   1.154
 7179SOL     OW23369   2.422   9.408   0.534
 7179SOL    HW123370   2.477   9.486   0.542
 7179SOL    HW223371   2.350   9.423   0.594
 7180SOL     OW23372  11.829   1.108   8.565
 7180SOL    HW123373  11.787   1.133   8.483
 7180SOL    HW223374  11.806   1.179   8.626
 7181SOL     OW23375  14.241   2.462   4.013
 7181SOL    HW123376  14.188   2.542   4.017
 7181SOL    HW223377  14.305   2.478   3.944
 7182SOL     OW23378   6.999   1.291  13.979
 7182SOL    HW123379   6.945   1.320  13.906
 7182SOL    HW223380   6.986   1.358  14.046
 7183SOL     OW23381   4.788  11.871   3.346
 7183SOL    HW123382   4.837  11.893   3.267
 7183SOL    HW223383   4.837  11.912   3.417
 7184SOL     OW23384  14.657   4.206   9.327
 7184SOL    HW123385  14.705   4.234   9.405
 7184SOL    HW223386  14.649   4.111   9.338
 7185SOL     OW23387  11.838  13.888   2.232
 7185SOL    HW123388  11.911  13.924   2.284
 7185SOL    HW223389  11.781  13.846   2.297
 7186SOL     OW23390   9.489  14.484  11.773
 7186SOL    HW123391   9.402  14.473  11.734
 7186SOL    HW223392   9.548  14.490  11.698
 7187SOL     OW23393  12.380   9.611   3.669
 7187SOL    HW123394  12.364   9.598   3.762
 7187SOL    HW223395  12.297   9.590   3.626
 7188SOL     OW23396   3.832   9.225   3.881
 7188SOL    HW123397   3.857   9.197   3.793
 7188SOL    HW223398   3.909   9.208   3.935
 7189SOL     OW23399   6.434   9.173   9.543
 7189SOL    HW123400   6.452   9.261   9.510
 7189SOL    HW223401   6.383   9.131   9.473
 7190SOL     OW23402  13.475  12.824   2.591
 7190SOL    HW123403  13.512  12.822   2.503
 7190SOL    HW223404  13.380  12.826   2.577
 7191SOL     OW23405   0.575   2.072   1.205
 7191SOL    HW123406   0.495   2.124   1.209
 7191SOL    HW223407   0.604   2.078   1.114
 7192SOL     OW23408  13.786   9.855   4.855
 7192SOL    HW123409  13.862   9.895   4.813
 7192SOL    HW223410  13.822   9.786   4.910
 7193SOL     OW23411  10.261   3.258  10.078
 7193SOL    HW123412  10.177   3.233  10.041
 7193SOL    HW223413  10.325   3.207  10.028
 7194SOL     OW23414   1.600   5.599   7.427
 7194SOL    HW123415   1.527   5.587   7.487
 7194SOL    HW223416   1.570   5.665   7.365
 7195SOL     OW23417   7.167  11.631   0.004
 7195SOL    HW123418   7.242  11.684   0.031
 7195SOL    HW223419   7.119  11.687  14.816
 7196SOL     OW23420  10.787   4.329   7.156
 7196SOL    HW123421  10.759   4.370   7.238
 7196SOL    HW223422  10.723   4.360   7.092
 7197SOL     OW23423  12.124   6.364   7.288
 7197SOL    HW123424  12.127   6.455   7.319
 7197SOL    HW223425  12.215   6.336   7.288
 7198SOL     OW23426  10.588   2.657   4.940
 7198SOL    HW123427  10.561   2.738   4.983
 7198SOL    HW223428  10.651   2.617   5.001
 7199SOL     OW23429   2.055  12.868  12.251
 7199SOL    HW123430   2.068  12.775  12.270
 7199SOL    HW223431   2.061  12.874  12.156
 7200SOL     OW23432  13.405   2.151   3.058
 7200SOL    HW123433  13.481   2.182   3.007
 7200SOL    HW223434  13.396   2.215   3.129
 7201SOL     OW23435   8.300   7.457  11.152
 7201SOL    HW123436   8.296   7.389  11.084
 7201SOL    HW223437   8.333   7.534  11.105
 7202SOL     OW23438   4.680   0.523   8.669
 7202SOL    HW123439   4.709   0.614   8.675
 7202SOL    HW223440   4.742   0.482   8.608
 7203SOL     OW23441   4.150   1.493   5.274
 7203SOL    HW123442   4.116   1.501   5.185
 7203SOL    HW223443   4.072   1.479   5.328
 7204SOL     OW23444  12.275  11.893  14.328
 7204SOL    HW123445  12.223  11.834  14.382
 7204SOL    HW223446  12.243  11.980  14.351
 7205SOL     OW23447   0.025   9.190  11.275
 7205SOL    HW123448  14.855   9.276  11.275
 7205SOL    HW223449  14.825   9.128  11.285
 7206SOL     OW23450   1.831   3.000  12.373
 7206SOL    HW123451   1.922   3.001  12.403
 7206SOL    HW223452   1.836   3.023  12.280
 7207SOL     OW23453   4.742   5.376   0.429
 7207SOL    HW123454   4.737   5.467   0.458
 7207SOL    HW223455   4.652   5.344   0.436
 7208SOL     OW23456   9.396  12.840   3.429
 7208SOL    HW123457   9.444  12.763   3.399
 7208SOL    HW223458   9.339  12.863   3.356
 7209SOL     OW23459   3.261   5.917   6.830
 7209SOL    HW123460   3.257   6.008   6.802
 7209SOL    HW223461   3.297   5.920   6.919
 7210SOL     OW23462   5.002   4.363   8.931
 7210SOL    HW123463   4.921   4.408   8.909
 7210SOL    HW223464   4.995   4.278   8.888
 7211SOL     OW23465   4.239  11.313   7.292
 7211SOL    HW123466   4.258  11.361   7.372
 7211SOL    HW223467   4.272  11.369   7.222
 7212SOL     OW23468   8.979   3.659  13.031
 7212SOL    HW123469   9.047   3.609  13.076
 7212SOL    HW223470   9.014   3.674  12.943
 7213SOL     OW23471  12.952  12.829  14.570
 7213SOL    HW123472  12.967  12.742  14.532
 7213SOL    HW223473  13.038  12.871  14.567
 7214SOL     OW23474   1.264  14.352   2.953
 7214SOL    HW123475   1.180  14.396   2.946
 7214SOL    HW223476   1.242  14.261   2.972
 7215SOL     OW23477   0.500   9.736   5.551
 7215SOL    HW123478   0.502   9.758   5.644
 7215SOL    HW223479   0.460   9.649   5.549
 7216SOL     OW23480   3.907   6.911   8.734
 7216SOL    HW123481   3.941   7.000   8.744
 7216SOL    HW223482   3.829   6.908   8.790
 7217SOL     OW23483  14.685  12.805  14.351
 7217SOL    HW123484  14.685  12.850  14.267
 7217SOL    HW223485  14.601  12.760  14.355
 7218SOL     OW23486   7.424   1.297   0.273
 7218SOL    HW123487   7.458   1.295   0.363
 7218SOL    HW223488   7.479   1.236   0.225
 7219SOL     OW23489  12.977   8.941   1.033
 7219SOL    HW123490  13.026   8.888   1.095
 7219SOL    HW223491  12.967   9.026   1.076
 7220SOL     OW23492  10.733   6.733  11.986
 7220SOL    HW123493  10.695   6.816  11.960
 7220SOL    HW223494  10.738   6.682  11.906
 7221SOL     OW23495  10.565   7.454  13.728
 7221SOL    HW123496  10.603   7.477  13.643
 7221SOL    HW223497  10.472   7.473  13.719
 7222SOL     OW23498   7.999   7.717   1.893
 7222SOL    HW123499   8.093   7.717   1.872
 7222SOL    HW223500   7.996   7.743   1.985
 7223SOL     OW23501   1.233  13.432   0.062
 7223SOL    HW123502   1.264  13.389   0.142
 7223SOL    HW223503   1.148  13.469   0.087
 7224SOL     OW23504   4.771   7.204  12.845
 7224SOL    HW123505   4.825   7.181  12.769
 7224SOL    HW223506   4.711   7.271  12.813
 7225SOL     OW23507   3.167  10.026   6.250
 7225SOL    HW123508   3.262  10.032   6.240
 7225SOL    HW223509   3.138  10.116   6.261
 7226SOL     OW23510   8.472   6.174  12.593
 7226SOL    HW123511   8.463   6.080  12.576
 7226SOL    HW223512   8.557   6.182  12.637
 7227SOL     OW23513   7.291  10.550   3.893
 7227SOL    HW123514   7.244  10.486   3.947
 7227SOL    HW223515   7.383  10.523   3.897
 7228SOL     OW23516  13.414   4.022  11.810
 7228SOL    HW123517  13.494   4.008  11.861
 7228SOL    HW223518  13.395   3.937  11.771
 7229SOL     OW23519   9.438   0.424  13.982
 7229SOL    HW123520   9.499   0.408  14.055
 7229SOL    HW223521   9.390   0.342  13.973
 7230SOL     OW23522  13.743   6.320   6.719
 7230SOL    HW123523  13.828   6.335   6.759
 7230SOL    HW223524  13.699   6.257   6.776
 7231SOL     OW23525   5.465   9.929  11.591
 7231SOL    HW123526   5.506   9.976  11.518
 7231SOL    HW223527   5.436   9.846  11.553
 7232SOL     OW23528  11.286  12.654   7.894
 7232SOL    HW123529  11.227  12.722   7.924
 7232SOL    HW223530  11.272  12.649   7.800
 7233SOL     OW23531   1.377   8.721   3.152
 7233SOL    HW123532   1.381   8.800   3.098
 7233SOL    HW223533   1.461   8.678   3.137
 7234SOL     OW23534   4.035  12.803   2.789
 7234SOL    HW123535   4.078  12.876   2.834
 7234SOL    HW223536   4.107  12.756   2.747
 7235SOL     OW23537   9.742  14.157   6.018
 7235SOL    HW123538   9.821  14.170   6.070
 7235SOL    HW223539   9.769  14.100   5.947
 7236SOL     OW23540  13.519   0.251  13.407
 7236SOL    HW123541  13.509   0.215  13.494
 7236SOL    HW223542  13.455   0.204  13.353
 7237SOL     OW23543   0.112   2.407   4.810
 7237SOL    HW123544   0.067   2.324   4.821
 7237SOL    HW223545   0.204   2.387   4.831
 7238SOL     OW23546  12.750   5.989   4.052
 7238SOL    HW123547  12.804   5.999   3.974
 7238SOL    HW223548  12.812   5.996   4.125
 7239SOL     OW23549   8.571   8.986   7.452
 7239SOL    HW123550   8.663   8.961   7.466
 7239SOL    HW223551   8.546   9.031   7.532
 7240SOL     OW23552   4.900   8.768   5.845
 7240SOL    HW123553   4.992   8.742   5.850
 7240SOL    HW223554   4.874   8.749   5.755
 7241SOL     OW23555  11.046  11.385  11.943
 7241SOL    HW123556  11.087  11.438  12.011
 7241SOL    HW223557  10.978  11.442  11.906
 7242SOL     OW23558  10.681  12.257  13.440
 7242SOL    HW123559  10.688  12.344  13.479
 7242SOL    HW223560  10.587  12.238  13.440
 7243SOL     OW23561   3.821   7.900  12.860
 7243SOL    HW123562   3.792   7.837  12.925
 7243SOL    HW223563   3.806   7.857  12.776
 7244SOL     OW23564   6.087   5.893   3.842
 7244SOL    HW123565   6.166   5.880   3.790
 7244SOL    HW223566   6.031   5.950   3.789
 7245SOL     OW23567  10.319   7.467  10.330
 7245SOL    HW123568  10.325   7.447  10.423
 7245SOL    HW223569  10.249   7.409  10.298
 7246SOL     OW23570   4.318   0.964   5.345
 7246SOL    HW123571   4.339   0.911   5.421
 7246SOL    HW223572   4.330   0.905   5.270
 7247SOL     OW23573   5.277   4.987   3.194
 7247SOL    HW123574   5.192   4.987   3.238
 7247SOL    HW223575   5.341   4.990   3.265
 7248SOL     OW23576   0.081   1.889   7.428
 7248SOL    HW123577  14.868   1.920   7.456
 7248SOL    HW223578   0.065   1.799   7.398
 7249SOL     OW23579   9.502   5.003   5.661
 7249SOL    HW123580   9.533   4.977   5.574
 7249SOL    HW223581   9.580   5.002   5.716
 7250SOL     OW23582  14.336   2.261   0.419
 7250SOL    HW123583  14.350   2.187   0.479
 7250SOL    HW223584  14.389   2.332   0.456
 7251SOL     OW23585   4.814   0.560   9.376
 7251SOL    HW123586   4.759   0.503   9.323
 7251SOL    HW223587   4.890   0.577   9.321
 7252SOL     OW23588  13.117   2.952  11.644
 7252SOL    HW123589  13.196   2.899  11.655
 7252SOL    HW223590  13.073   2.914  11.568
 7253SOL     OW23591   1.805   4.644  14.381
 7253SOL    HW123592   1.884   4.594  14.360
 7253SOL    HW223593   1.817   4.727  14.336
 7254SOL     OW23594  12.102   5.863   5.324
 7254SOL    HW123595  12.077   5.815   5.403
 7254SOL    HW223596  12.057   5.817   5.253
 7255SOL     OW23597  12.212   7.464  13.784
 7255SOL    HW123598  12.276   7.404  13.746
 7255SOL    HW223599  12.248   7.485  13.870
 7256SOL     OW23600   1.472   8.729  14.071
 7256SOL    HW123601   1.461   8.739  13.976
 7256SOL    HW223602   1.383   8.725  14.105
 7257SOL     OW23603  12.438  14.793   5.240
 7257SOL    HW123604  12.490  14.717   5.216
 7257SOL    HW223605  12.365  14.758   5.291
 7258SOL     OW23606   3.132   6.550  13.323
 7258SOL    HW123607   3.171   6.481  13.269
 7258SOL    HW223608   3.128   6.626  13.265
 7259SOL     OW23609   6.599   8.318   7.152
 7259SOL    HW123610   6.658   8.245   7.169
 7259SOL    HW223611   6.622   8.383   7.219
 7260SOL     OW23612   7.794   6.300  13.608
 7260SOL    HW123613   7.732   6.338  13.670
 7260SOL    HW223614   7.797   6.207  13.632
 7261SOL     OW23615  12.033   4.082   5.640
 7261SOL    HW123616  12.007   4.030   5.563
 7261SOL    HW223617  12.052   4.169   5.604
 7262SOL     OW23618  14.610  12.640   9.679
 7262SOL    HW123619  14.684  12.592   9.717
 7262SOL    HW223620  14.621  12.729   9.713
 7263SOL     OW23621   0.366   5.701   4.640
 7263SOL    HW123622   0.446   5.649   4.647
 7263SOL    HW223623   0.295   5.637   4.634
 7264SOL     OW23624   1.289  12.617   7.075
 7264SOL    HW123625   1.294  12.540   7.019
 7264SOL    HW223626   1.244  12.683   7.021
 7265SOL     OW23627   5.674   2.662   4.032
 7265SOL    HW123628   5.722   2.621   4.104
 7265SOL    HW223629   5.613   2.595   4.002
 7266SOL     OW23630   4.215   2.175   6.107
 7266SOL    HW123631   4.147   2.233   6.142
 7266SOL    HW223632   4.185   2.087   6.129
 7267SOL     OW23633   1.594  13.845  12.262
 7267SOL    HW123634   1.595  13.840  12.358
 7267SOL    HW223635   1.683  13.822  12.236
 7268SOL     OW23636  14.092   1.491   5.505
 7268SOL    HW123637  14.183   1.518   5.509
 7268SOL    HW223638  14.043   1.573   5.501
 7269SOL     OW23639   4.847   5.719   9.899
 7269SOL    HW123640   4.905   5.794   9.887
 7269SOL    HW223641   4.819   5.696   9.810
 7270SOL     OW23642   9.236   1.994   5.360
 7270SOL    HW123643   9.205   1.938   5.431
 7270SOL    HW223644   9.165   1.992   5.296
 7271SOL     OW23645   7.330  14.641   8.282
 7271SOL    HW123646   7.252  14.694   8.267
 7271SOL    HW223647   7.343  14.644   8.377
 7272SOL     OW23648   1.371   2.426  11.685
 7272SOL    HW123649   1.454   2.383  11.664
 7272SOL    HW223650   1.380   2.455  11.775
 7273SOL     OW23651   4.538  10.734   0.544
 7273SOL    HW123652   4.470  10.668   0.560
 7273SOL    HW223653   4.538  10.746   0.449
 7274SOL     OW23654   8.780  14.116   3.213
 7274SOL    HW123655   8.707  14.147   3.158
 7274SOL    HW223656   8.853  14.106   3.152
 7275SOL     OW23657  14.171  13.159  13.280
 7275SOL    HW123658  14.117  13.090  13.242
 7275SOL    HW223659  14.172  13.229  13.215
 7276SOL     OW23660  14.189   9.927   1.602
 7276SOL    HW123661  14.137   9.933   1.683
 7276SOL    HW223662  14.126   9.907   1.534
 7277SOL     OW23663  13.365  13.926   6.002
 7277SOL    HW123664  13.329  14.014   5.988
 7277SOL    HW223665  13.335  13.875   5.927
 7278SOL     OW23666   8.307   3.132   6.931
 7278SOL    HW123667   8.320   3.190   7.006
 7278SOL    HW223668   8.395   3.106   6.905
 7279SOL     OW23669   2.715  12.961  11.364
 7279SOL    HW123670   2.626  12.925  11.356
 7279SOL    HW223671   2.744  12.972  11.273
 7280SOL     OW23672   9.568   3.429  11.905
 7280SOL    HW123673   9.557   3.489  11.831
 7280SOL    HW223674   9.587   3.345  11.864
 7281SOL     OW23675   6.783  10.951  13.752
 7281SOL    HW123676   6.778  10.959  13.847
 7281SOL    HW223677   6.713  10.890  13.729
 7282SOL     OW23678   6.291   1.093  13.975
 7282SOL    HW123679   6.242   1.070  13.897
 7282SOL    HW223680   6.381   1.065  13.956
 7283SOL     OW23681  12.952  10.991  10.402
 7283SOL    HW123682  13.003  10.930  10.455
 7283SOL    HW223683  12.910  11.049  10.465
 7284SOL     OW23684   5.879  12.183  12.150
 7284SOL    HW123685   5.801  12.193  12.203
 7284SOL    HW223686   5.847  12.154  12.064
 7285SOL     OW23687   7.276   0.115   7.683
 7285SOL    HW123688   7.339   0.159   7.740
 7285SOL    HW223689   7.199   0.171   7.685
 7286SOL     OW23690  13.841   7.853  11.083
 7286SOL    HW123691  13.764   7.797  11.073
 7286SOL    HW223692  13.876   7.861  10.994
 7287SOL     OW23693   5.930   1.270   1.891
 7287SOL    HW123694   5.902   1.198   1.947
 7287SOL    HW223695   5.852   1.295   1.842
 7288SOL     OW23696   1.574   4.137   9.148
 7288SOL    HW123697   1.627   4.208   9.185
 7288SOL    HW223698   1.484   4.161   9.169
 7289SOL     OW23699  10.905   7.478   7.739
 7289SOL    HW123700  10.880   7.486   7.647
 7289SOL    HW223701  10.827   7.505   7.787
 7290SOL     OW23702   6.927   0.644  12.075
 7290SOL    HW123703   6.972   0.598  12.145
 7290SOL    HW223704   6.837   0.655  12.107
 7291SOL     OW23705  14.441   3.883   4.452
 7291SOL    HW123706  14.387   3.962   4.448
 7291SOL    HW223707  14.529   3.915   4.473
 7292SOL     OW23708   8.005   7.547   7.255
 7292SOL    HW123709   8.060   7.626   7.251
 7292SOL    HW223710   8.030   7.505   7.338
 7293SOL     OW23711   0.438  12.968  11.866
 7293SOL    HW123712   0.396  12.948  11.783
 7293SOL    HW223713   0.459  12.883  11.904
 7294SOL     OW23714   3.534  10.669   5.435
 7294SOL    HW123715   3.540  10.618   5.355
 7294SOL    HW223716   3.453  10.640   5.476
 7295SOL     OW23717  13.655  14.066  11.302
 7295SOL    HW123718  13.690  13.992  11.352
 7295SOL    HW223719  13.689  14.143  11.348
 7296SOL     OW23720  10.837   5.096   0.676
 7296SOL    HW123721  10.922   5.139   0.691
 7296SOL    HW223722  10.824   5.043   0.754
 7297SOL     OW23723   7.004   5.902  11.897
 7297SOL    HW123724   7.085   5.859  11.924
 7297SOL    HW223725   6.960   5.838  11.841
 7298SOL     OW23726  11.050   2.433   7.082
 7298SOL    HW123727  11.021   2.413   6.993
 7298SOL    HW223728  11.101   2.356   7.109
 7299SOL     OW23729  13.930  12.284   0.095
 7299SOL    HW123730  13.880  12.235   0.030
 7299SOL    HW223731  14.004  12.320   0.046
 7300SOL     OW23732   0.868   0.873   1.426
 7300SOL    HW123733   0.910   0.858   1.511
 7300SOL    HW223734   0.780   0.837   1.436
 7301SOL     OW23735   0.754   7.593   4.869
 7301SOL    HW123736   0.826   7.601   4.806
 7301SOL    HW223737   0.722   7.682   4.881
 7302SOL     OW23738   4.944   6.382   9.860
 7302SOL    HW123739   4.886   6.450   9.893
 7302SOL    HW223740   4.996   6.426   9.792
 7303SOL     OW23741   1.084   8.865   7.443
 7303SOL    HW123742   1.106   8.958   7.439
 7303SOL    HW223743   1.014   8.854   7.379
 7304SOL     OW23744   4.473   7.508   3.194
 7304SOL    HW123745   4.490   7.601   3.178
 7304SOL    HW223746   4.506   7.464   3.116
 7305SOL     OW23747  13.647  10.267   9.392
 7305SOL    HW123748  13.651  10.173   9.373
 7305SOL    HW223749  13.591  10.302   9.322
 7306SOL     OW23750  11.681   5.794  14.670
 7306SOL    HW123751  11.682   5.826  14.760
 7306SOL    HW223752  11.744   5.850  14.625
 7307SOL     OW23753   2.808  10.994   0.594
 7307SOL    HW123754   2.735  10.956   0.642
 7307SOL    HW223755   2.881  10.934   0.609
 7308SOL     OW23756   9.738  12.563   6.260
 7308SOL    HW123757   9.764  12.655   6.259
 7308SOL    HW223758   9.730  12.541   6.352
 7309SOL     OW23759   4.473   9.234  14.808
 7309SOL    HW123760   4.487   9.324  14.777
 7309SOL    HW223761   4.407   9.199  14.749
 7310SOL     OW23762  10.856   6.299   8.615
 7310SOL    HW123763  10.922   6.273   8.551
 7310SOL    HW223764  10.907   6.330   8.690
 7311SOL     OW23765   7.084   7.403   8.552
 7311SOL    HW123766   7.076   7.429   8.460
 7311SOL    HW223767   7.154   7.338   8.552
 7312SOL     OW23768   0.145   4.515   5.109
 7312SOL    HW123769   0.066   4.497   5.058
 7312SOL    HW223770   0.124   4.481   5.197
 7313SOL     OW23771  13.886   0.982  11.221
 7313SOL    HW123772  13.818   0.996  11.287
 7313SOL    HW223773  13.843   0.929  11.153
 7314SOL     OW23774  13.111  14.870   1.282
 7314SOL    HW123775  13.071  14.787   1.257
 7314SOL    HW223776  13.038   0.058   1.292
 7315SOL     OW23777  11.011   4.477   8.734
 7315SOL    HW123778  11.098   4.489   8.696
 7315SOL    HW223779  10.953   4.532   8.681
 7316SOL     OW23780  14.571   4.827  14.576
 7316SOL    HW123781  14.533   4.897  14.522
 7316SOL    HW223782  14.579   4.753  14.517
 7317SOL     OW23783   6.506   8.916   5.981
 7317SOL    HW123784   6.509   9.011   5.993
 7317SOL    HW223785   6.415   8.898   5.960
 7318SOL     OW23786   7.563   5.740   6.184
 7318SOL    HW123787   7.581   5.683   6.109
 7318SOL    HW223788   7.563   5.828   6.148
 7319SOL     OW23789   6.208   9.758   4.727
 7319SOL    HW123790   6.174   9.669   4.730
 7319SOL    HW223791   6.166   9.798   4.651
 7320SOL     OW23792  12.315   0.764   9.436
 7320SOL    HW123793  12.241   0.794   9.489
 7320SOL    HW223794  12.282   0.686   9.391
 7321SOL     OW23795   7.320   0.385   2.366
 7321SOL    HW123796   7.366   0.335   2.299
 7321SOL    HW223797   7.339   0.477   2.345
 7322SOL     OW23798  11.764   5.070  10.952
 7322SOL    HW123799  11.680   5.114  10.939
 7322SOL    HW223800  11.826   5.141  10.970
 7323SOL     OW23801   7.317   9.076   5.007
 7323SOL    HW123802   7.273   8.991   4.998
 7323SOL    HW223803   7.259   9.127   5.064
 7324SOL     OW23804   9.978   8.472   5.579
 7324SOL    HW123805   9.965   8.497   5.487
 7324SOL    HW223806   9.925   8.535   5.628
 7325SOL     OW23807  10.443   2.907   8.667
 7325SOL    HW123808  10.385   2.830   8.661
 7325SOL    HW223809  10.404   2.970   8.607
 7326SOL     OW23810   8.697   6.905  14.390
 7326SOL    HW123811   8.680   6.826  14.338
 7326SOL    HW223812   8.711   6.874  14.479
 7327SOL     OW23813   9.846   9.928   5.013
 7327SOL    HW123814   9.827  10.020   5.000
 7327SOL    HW223815   9.906   9.926   5.088
 7328SOL     OW23816   8.554   3.660  14.614
 7328SOL    HW123817   8.503   3.621  14.684
 7328SOL    HW223818   8.546   3.755  14.628
 7329SOL     OW23819   2.611   6.164  13.593
 7329SOL    HW123820   2.641   6.205  13.674
 7329SOL    HW223821   2.532   6.213  13.569
 7330SOL     OW23822   1.264   6.913   5.461
 7330SOL    HW123823   1.230   6.827   5.437
 7330SOL    HW223824   1.223   6.974   5.399
 7331SOL     OW23825   7.947   4.990   2.101
 7331SOL    HW123826   8.031   4.945   2.113
 7331SOL    HW223827   7.917   4.962   2.015
 7332SOL     OW23828   5.447   3.953   6.872
 7332SOL    HW123829   5.401   3.921   6.949
 7332SOL    HW223830   5.445   3.880   6.811
 7333SOL     OW23831   9.560   0.793   2.909
 7333SOL    HW123832   9.648   0.799   2.946
 7333SOL    HW223833   9.573   0.804   2.815
 7334SOL     OW23834   6.395   3.920   1.506
 7334SOL    HW123835   6.469   3.940   1.563
 7334SOL    HW223836   6.381   3.826   1.518
 7335SOL     OW23837  12.668   8.554   2.990
 7335SOL    HW123838  12.625   8.472   3.013
 7335SOL    HW223839  12.744   8.528   2.939
 7336SOL     OW23840  14.631   6.420  10.655
 7336SOL    HW123841  14.695   6.450  10.590
 7336SOL    HW223842  14.633   6.487  10.724
 7337SOL     OW23843  10.020   0.165   2.536
 7337SOL    HW123844   9.983   0.173   2.624
 7337SOL    HW223845  10.112   0.186   2.546
 7338SOL     OW23846  11.610  11.457   9.205
 7338SOL    HW123847  11.662  11.516   9.151
 7338SOL    HW223848  11.520  11.481   9.188
 7339SOL     OW23849  13.177   0.673  12.083
 7339SOL    HW123850  13.232   0.596  12.072
 7339SOL    HW223851  13.232   0.735  12.131
 7340SOL     OW23852   5.394  11.555  13.503
 7340SOL    HW123853   5.304  11.539  13.533
 7340SOL    HW223854   5.429  11.619  13.564
 7341SOL     OW23855   4.905   4.908   1.176
 7341SOL    HW123856   4.839   4.840   1.163
 7341SOL    HW223857   4.982   4.861   1.208
 7342SOL     OW23858   8.754  14.414   9.299
 7342SOL    HW123859   8.765  14.409   9.394
 7342SOL    HW223860   8.842  14.429   9.265
 7343SOL     OW23861   5.288   3.550   3.565
 7343SOL    HW123862   5.202   3.508   3.572
 7343SOL    HW223863   5.345   3.482   3.528
 7344SOL     OW23864   6.683   4.219   6.075
 7344SOL    HW123865   6.646   4.134   6.053
 7344SOL    HW223866   6.679   4.269   5.994
 7345SOL     OW23867   6.319   8.594   4.772
 7345SOL    HW123868   6.232   8.588   4.811
 7345SOL    HW223869   6.307   8.642   4.691
 7346SOL     OW23870   5.364   4.176  14.744
 7346SOL    HW123871   5.452   4.210  14.726
 7346SOL    HW223872   5.307   4.227  14.687
 7347SOL     OW23873   0.201   4.468  10.049
 7347SOL    HW123874   0.294   4.464  10.030
 7347SOL    HW223875   0.190   4.547  10.102
 7348SOL     OW23876   0.626   5.978  10.798
 7348SOL    HW123877   0.626   6.074  10.797
 7348SOL    HW223878   0.566   5.953  10.728
 7349SOL     OW23879  14.190   6.763   0.466
 7349SOL    HW123880  14.274   6.746   0.423
 7349SOL    HW223881  14.163   6.678   0.500
 7350SOL     OW23882   9.631  12.998   1.273
 7350SOL    HW123883   9.539  13.004   1.297
 7350SOL    HW223884   9.663  13.088   1.278
 7351SOL     OW23885   9.058   5.791  12.777
 7351SOL    HW123886   9.111   5.841  12.716
 7351SOL    HW223887   9.114   5.717  12.802
 7352SOL     OW23888   8.432   6.704   0.031
 7352SOL    HW123889   8.339   6.688   0.019
 7352SOL    HW223890   8.475   6.638  14.849
 7353SOL     OW23891   4.761   8.761   6.147
 7353SOL    HW123892   4.814   8.682   6.154
 7353SOL    HW223893   4.695   8.739   6.081
 7354SOL     OW23894   4.516   7.187  11.957
 7354SOL    HW123895   4.441   7.137  11.925
 7354SOL    HW223896   4.575   7.121  11.993
 7355SOL     OW23897   7.687   1.219   5.452
 7355SOL    HW123898   7.622   1.207   5.382
 7355SOL    HW223899   7.757   1.269   5.410
 7356SOL     OW23900   9.511  11.856   4.608
 7356SOL    HW123901   9.557  11.816   4.534
 7356SOL    HW223902   9.554  11.819   4.685
 7357SOL     OW23903  10.818   1.014  11.685
 7357SOL    HW123904  10.776   0.946  11.738
 7357SOL    HW223905  10.880   1.056  11.745
 7358SOL     OW23906   2.512  14.381  11.359
 7358SOL    HW123907   2.576  14.387  11.288
 7358SOL    HW223908   2.430  14.411  11.320
 7359SOL     OW23909  14.748   7.594   3.533
 7359SOL    HW123910  14.670   7.631   3.493
 7359SOL    HW223911  14.762   7.648   3.611
 7360SOL     OW23912  12.934   3.199   8.649
 7360SOL    HW123913  12.899   3.216   8.737
 7360SOL    HW223914  12.928   3.104   8.639
 7361SOL     OW23915  13.653   6.842   2.223
 7361SOL    HW123916  13.663   6.782   2.149
 7361SOL    HW223917  13.566   6.823   2.257
 7362SOL     OW23918  11.283   5.534  13.204
 7362SOL    HW123919  11.304   5.627  13.205
 7362SOL    HW223920  11.348   5.495  13.144
 7363SOL     OW23921   9.875  14.282   1.447
 7363SOL    HW123922   9.966  14.284   1.477
 7363SOL    HW223923   9.865  14.197   1.405
 7364SOL     OW23924   2.705   1.676   4.968
 7364SOL    HW123925   2.756   1.604   5.006
 7364SOL    HW223926   2.770   1.730   4.922
 7365SOL     OW23927   8.048   0.671  13.894
 7365SOL    HW123928   8.114   0.633  13.952
 7365SOL    HW223929   8.020   0.751  13.938
 7366SOL     OW23930   5.394  14.237   8.112
 7366SOL    HW123931   5.425  14.223   8.202
 7366SOL    HW223932   5.305  14.203   8.112
 7367SOL     OW23933   7.208   2.838   6.169
 7367SOL    HW123934   7.228   2.858   6.260
 7367SOL    HW223935   7.260   2.761   6.148
 7368SOL     OW23936   9.837   7.960   9.696
 7368SOL    HW123937   9.895   7.999   9.631
 7368SOL    HW223938   9.836   8.024   9.768
 7369SOL     OW23939   5.695   8.009  10.511
 7369SOL    HW123940   5.651   7.990  10.594
 7369SOL    HW223941   5.630   8.057  10.460
 7370SOL     OW23942   4.962   7.738   6.096
 7370SOL    HW123943   5.055   7.758   6.096
 7370SOL    HW223944   4.958   7.642   6.098
 7371SOL     OW23945  13.207   2.717  10.408
 7371SOL    HW123946  13.282   2.704  10.350
 7371SOL    HW223947  13.139   2.659  10.373
 7372SOL     OW23948  14.415   0.111   3.751
 7372SOL    HW123949  14.441   0.081   3.838
 7372SOL    HW223950  14.418   0.033   3.696
 7373SOL     OW23951  10.261   0.930   7.109
 7373SOL    HW123952  10.236   0.915   7.200
 7373SOL    HW223953  10.322   1.003   7.112
 7374SOL     OW23954   1.970  14.559   2.009
 7374SOL    HW123955   1.883  14.579   2.043
 7374SOL    HW223956   2.016  14.520   2.084
 7375SOL     OW23957  10.166   0.819   8.325
 7375SOL    HW123958  10.174   0.857   8.237
 7375SOL    HW223959  10.196   0.729   8.315
 7376SOL     OW23960  13.033  11.808   1.530
 7376SOL    HW123961  13.104  11.748   1.553
 7376SOL    HW223962  13.073  11.895   1.533
 7377SOL     OW23963   2.584   3.582   1.988
 7377SOL    HW123964   2.532   3.646   1.939
 7377SOL    HW223965   2.523   3.513   2.011
 7378SOL     OW23966  13.024  12.290   4.451
 7378SOL    HW123967  12.930  12.278   4.442
 7378SOL    HW223968  13.063  12.212   4.411
 7379SOL     OW23969  14.064   1.388  13.074
 7379SOL    HW123970  14.080   1.303  13.115
 7379SOL    HW223971  14.060   1.450  13.147
 7380SOL     OW23972  12.521   3.626  12.012
 7380SOL    HW123973  12.557   3.596  12.095
 7380SOL    HW223974  12.427   3.631  12.026
 7381SOL     OW23975  11.281   5.020  10.998
 7381SOL    HW123976  11.359   4.972  10.970
 7381SOL    HW223977  11.263   5.081  10.927
 7382SOL     OW23978   9.027  14.432   7.658
 7382SOL    HW123979   8.941  14.412   7.621
 7382SOL    HW223980   9.029  14.385   7.742
 7383SOL     OW23981   5.875   0.321   7.658
 7383SOL    HW123982   5.783   0.347   7.666
 7383SOL    HW223983   5.873   0.226   7.656
 7384SOL     OW23984  13.019  13.344   5.694
 7384SOL    HW123985  13.009  13.251   5.671
 7384SOL    HW223986  13.062  13.343   5.780
 7385SOL     OW23987   2.906   2.806   5.227
 7385SOL    HW123988   2.861   2.871   5.172
 7385SOL    HW223989   2.858   2.808   5.310
 7386SOL     OW23990  13.888  10.939  11.411
 7386SOL    HW123991  13.937  10.978  11.484
 7386SOL    HW223992  13.797  10.940  11.440
 7387SOL     OW23993   0.151   9.177  13.276
 7387SOL    HW123994   0.217   9.214  13.217
 7387SOL    HW223995   0.073   9.230  13.260
 7388SOL     OW23996   0.547   6.936   0.895
 7388SOL    HW123997   0.502   6.987   0.828
 7388SOL    HW223998   0.476   6.896   0.946
 7389SOL     OW23999  14.628   5.792  13.295
 7389SOL    HW124000  14.645   5.870  13.348
 7389SOL    HW224001  14.640   5.718  13.355
 7390SOL     OW24002  13.124   0.099   7.965
 7390SOL    HW124003  13.158   0.101   8.054
 7390SOL    HW224004  13.190   0.050   7.915
 7391SOL     OW24005   9.319   7.438  10.139
 7391SOL    HW124006   9.225   7.428  10.122
 7391SOL    HW224007   9.361   7.378  10.078
 7392SOL     OW24008   2.927   7.559  13.440
 7392SOL    HW124009   2.865   7.604  13.383
 7392SOL    HW224010   2.967   7.492  13.384
 7393SOL     OW24011  11.111  13.997   9.453
 7393SOL    HW124012  11.186  14.051   9.429
 7393SOL    HW224013  11.107  13.930   9.385
 7394SOL     OW24014  11.968  10.101   9.550
 7394SOL    HW124015  11.977  10.197   9.555
 7394SOL    HW224016  12.048  10.068   9.592
 7395SOL     OW24017   1.999  13.193   0.987
 7395SOL    HW124018   1.995  13.138   1.066
 7395SOL    HW224019   2.014  13.282   1.019
 7396SOL     OW24020   2.579  10.994   5.911
 7396SOL    HW124021   2.502  11.047   5.887
 7396SOL    HW224022   2.609  11.033   5.993
 7397SOL     OW24023   5.063   7.771   2.678
 7397SOL    HW124024   5.005   7.845   2.695
 7397SOL    HW224025   5.143   7.811   2.642
 7398SOL     OW24026   8.105  14.220   5.388
 7398SOL    HW124027   8.037  14.286   5.378
 7398SOL    HW224028   8.180  14.268   5.423
 7399SOL     OW24029   8.340   9.606   1.988
 7399SOL    HW124030   8.296   9.521   1.982
 7399SOL    HW224031   8.432   9.584   2.001
 7400SOL     OW24032   8.252   8.685   3.402
 7400SOL    HW124033   8.202   8.638   3.335
 7400SOL    HW224034   8.334   8.708   3.359
 7401SOL     OW24035   6.041  12.895  11.764
 7401SOL    HW124036   6.136  12.883  11.754
 7401SOL    HW224037   6.010  12.918  11.676
 7402SOL     OW24038  12.998   2.514   7.450
 7402SOL    HW124039  13.044   2.558   7.378
 7402SOL    HW224040  13.059   2.447   7.481
 7403SOL     OW24041   2.005   2.806   8.369
 7403SOL    HW124042   1.955   2.725   8.357
 7403SOL    HW224043   1.949   2.861   8.424
 7404SOL     OW24044  11.968  14.701   4.518
 7404SOL    HW124045  12.054  14.659   4.512
 7404SOL    HW224046  11.960  14.751   4.436
 7405SOL     OW24047   5.623  13.991  12.661
 7405SOL    HW124048   5.602  13.939  12.738
 7405SOL    HW224049   5.580  13.946  12.589
 7406SOL     OW24050   7.623   5.762   7.184
 7406SOL    HW124051   7.632   5.700   7.256
 7406SOL    HW224052   7.594   5.843   7.225
 7407SOL     OW24053   8.174   4.189   1.776
 7407SOL    HW124054   8.268   4.192   1.764
 7407SOL    HW224055   8.163   4.161   1.867
 7408SOL     OW24056   8.986  12.375  11.505
 7408SOL    HW124057   8.971  12.470  11.506
 7408SOL    HW224058   9.081  12.366  11.513
 7409SOL     OW24059  12.470   6.343   7.777
 7409SOL    HW124060  12.461   6.249   7.792
 7409SOL    HW224061  12.503   6.377   7.860
 7410SOL     OW24062   9.008  10.174   8.475
 7410SOL    HW124063   8.971  10.215   8.397
 7410SOL    HW224064   8.976  10.084   8.472
 7411SOL     OW24065   8.653   7.799   5.573
 7411SOL    HW124066   8.613   7.843   5.648
 7411SOL    HW224067   8.613   7.712   5.573
 7412SOL     OW24068  13.843  12.527  14.116
 7412SOL    HW124069  13.938  12.541  14.124
 7412SOL    HW224070  13.831  12.435  14.137
 7413SOL     OW24071  12.330   5.204   3.905
 7413SOL    HW124072  12.287   5.119   3.912
 7413SOL    HW224073  12.261   5.267   3.926
 7414SOL     OW24074   9.609   7.490   2.736
 7414SOL    HW124075   9.532   7.463   2.686
 7414SOL    HW224076   9.625   7.581   2.708
 7415SOL     OW24077   9.657   1.754   1.828
 7415SOL    HW124078   9.592   1.823   1.817
 7415SOL    HW224079   9.620   1.679   1.781
 7416SOL     OW24080   8.047   1.726   7.191
 7416SOL    HW124081   8.057   1.631   7.193
 7416SOL    HW224082   8.122   1.759   7.240
 7417SOL     OW24083   8.806  14.401   8.660
 7417SOL    HW124084   8.879  14.443   8.614
 7417SOL    HW224085   8.826  14.415   8.753
 7418SOL     OW24086   8.768   9.265   9.519
 7418SOL    HW124087   8.863   9.265   9.536
 7418SOL    HW224088   8.733   9.201   9.581
 7419SOL     OW24089   0.451   3.925   9.269
 7419SOL    HW124090   0.438   4.019   9.284
 7419SOL    HW224091   0.542   3.909   9.294
 7420SOL     OW24092   4.673   6.742   4.678
 7420SOL    HW124093   4.766   6.764   4.676
 7420SOL    HW224094   4.631   6.822   4.708
 7421SOL     OW24095  11.499   3.910   9.817
 7421SOL    HW124096  11.581   3.895   9.863
 7421SOL    HW224097  11.521   3.974   9.749
 7422SOL     OW24098   4.316   9.292  11.279
 7422SOL    HW124099   4.294   9.370  11.228
 7422SOL    HW224100   4.406   9.272  11.255
 7423SOL     OW24101  13.354  11.863   3.070
 7423SOL    HW124102  13.368  11.937   3.129
 7423SOL    HW224103  13.430  11.865   3.012
 7424SOL     OW24104   1.435  11.517   7.436
 7424SOL    HW124105   1.426  11.589   7.374
 7424SOL    HW224106   1.396  11.442   7.391
 7425SOL     OW24107   9.557  13.703   0.376
 7425SOL    HW124108   9.488  13.637   0.390
 7425SOL    HW224109   9.639  13.655   0.391
 7426SOL     OW24110   3.042  13.515   3.693
 7426SOL    HW124111   3.127  13.483   3.662
 7426SOL    HW224112   2.978  13.468   3.640
 7427SOL     OW24113  10.867   3.710   8.389
 7427SOL    HW124114  10.876   3.627   8.341
 7427SOL    HW224115  10.946   3.715   8.443
 7428SOL     OW24116   1.030   1.019   5.045
 7428SOL    HW124117   1.088   1.006   4.970
 7428SOL    HW224118   1.059   1.102   5.084
 7429SOL     OW24119  12.369   7.408  13.419
 7429SOL    HW124120  12.464   7.418  13.426
 7429SOL    HW224121  12.349   7.435  13.330
 7430SOL     OW24122  13.403   4.470   6.326
 7430SOL    HW124123  13.373   4.480   6.416
 7430SOL    HW224124  13.366   4.545   6.280
 7431SOL     OW24125   9.671   0.263  11.042
 7431SOL    HW124126   9.726   0.299  11.111
 7431SOL    HW224127   9.597   0.323  11.037
 7432SOL     OW24128   7.971   5.702  13.278
 7432SOL    HW124129   7.950   5.688  13.370
 7432SOL    HW224130   7.888   5.730  13.239
 7433SOL     OW24131   8.096   5.374   0.852
 7433SOL    HW124132   8.144   5.456   0.841
 7433SOL    HW224133   8.013   5.389   0.807
 7434SOL     OW24134  11.190   6.305  10.439
 7434SOL    HW124135  11.179   6.214  10.411
 7434SOL    HW224136  11.267   6.303  10.495
 7435SOL     OW24137  12.201  14.680  12.614
 7435SOL    HW124138  12.168  14.695  12.703
 7435SOL    HW224139  12.193  14.766  12.572
 7436SOL     OW24140   1.158   8.901  10.059
 7436SOL    HW124141   1.098   8.976  10.052
 7436SOL    HW224142   1.187   8.885   9.969
 7437SOL     OW24143   6.896  13.265   1.978
 7437SOL    HW124144   6.831  13.305   2.035
 7437SOL    HW224145   6.932  13.338   1.928
 7438SOL     OW24146   9.819  10.290  11.818
 7438SOL    HW124147   9.883  10.266  11.752
 7438SOL    HW224148   9.853  10.370  11.858
 7439SOL     OW24149   2.644  14.778   5.601
 7439SOL    HW124150   2.551  14.788   5.622
 7439SOL    HW224151   2.649  14.796   5.507
 7440SOL     OW24152  12.930  12.954   0.260
 7440SOL    HW124153  12.953  12.861   0.254
 7440SOL    HW224154  12.965  12.992   0.179
 7441SOL     OW24155   7.831   8.539   6.369
 7441SOL    HW124156   7.738   8.528   6.349
 7441SOL    HW224157   7.833   8.564   6.461
 7442SOL     OW24158  13.219   7.181  12.749
 7442SOL    HW124159  13.282   7.120  12.712
 7442SOL    HW224160  13.219   7.162  12.842
 7443SOL     OW24161   0.906   1.216   3.515
 7443SOL    HW124162   0.877   1.141   3.567
 7443SOL    HW224163   0.859   1.207   3.432
 7444SOL     OW24164  13.368   3.002  13.402
 7444SOL    HW124165  13.334   2.931  13.456
 7444SOL    HW224166  13.359   2.971  13.312
 7445SOL     OW24167  13.400   9.885   6.593
 7445SOL    HW124168  13.388   9.884   6.688
 7445SOL    HW224169  13.334   9.823   6.560
 7446SOL     OW24170   4.527   6.964   6.291
 7446SOL    HW124171   4.541   6.975   6.385
 7446SOL    HW224172   4.611   6.988   6.251
 7447SOL     OW24173   7.131   6.359   2.337
 7447SOL    HW124174   7.070   6.420   2.295
 7447SOL    HW224175   7.088   6.334   2.419
 7448SOL     OW24176   9.895   4.172   9.861
 7448SOL    HW124177   9.858   4.245   9.911
 7448SOL    HW224178   9.967   4.210   9.811
 7449SOL     OW24179  12.027   6.129   1.693
 7449SOL    HW124180  12.009   6.076   1.615
 7449SOL    HW224181  12.016   6.219   1.664
 7450SOL     OW24182   4.599  12.104   1.048
 7450SOL    HW124183   4.694  12.112   1.040
 7450SOL    HW224184   4.564  12.173   0.992
 7451SOL     OW24185   9.307   5.669   3.458
 7451SOL    HW124186   9.304   5.683   3.553
 7451SOL    HW224187   9.215   5.660   3.432
 7452SOL     OW24188  10.832  10.374  12.499
 7452SOL    HW124189  10.829  10.469  12.511
 7452SOL    HW224190  10.828  10.339  12.589
 7453SOL     OW24191   8.906  14.771   5.417
 7453SOL    HW124192   8.812  14.754   5.424
 7453SOL    HW224193   8.944  14.686   5.392
 7454SOL     OW24194   2.792   3.479   3.003
 7454SOL    HW124195   2.825   3.553   3.054
 7454SOL    HW224196   2.710   3.511   2.965
 7455SOL     OW24197   6.272  12.569   9.839
 7455SOL    HW124198   6.219  12.590   9.915
 7455SOL    HW224199   6.280  12.652   9.792
 7456SOL     OW24200   6.217   1.431   7.967
 7456SOL    HW124201   6.246   1.522   7.971
 7456SOL    HW224202   6.131   1.432   8.010
 7457SOL     OW24203   9.577  13.204  10.091
 7457SOL    HW124204   9.632  13.276  10.059
 7457SOL    HW224205   9.489  13.226  10.061
 7458SOL     OW24206   0.992   3.927   3.429
 7458SOL    HW124207   1.075   3.923   3.381
 7458SOL    HW224208   0.984   3.841   3.470
 7459SOL     OW24209   5.437  11.102   2.862
 7459SOL    HW124210   5.430  11.191   2.828
 7459SOL    HW224211   5.406  11.108   2.952
 7460SOL     OW24212   3.795  11.861  13.854
 7460SOL    HW124213   3.701  11.879  13.849
 7460SOL    HW224214   3.818  11.830  13.766
 7461SOL     OW24215  12.660   9.842   6.126
 7461SOL    HW124216  12.677   9.926   6.084
 7461SOL    HW224217  12.655   9.779   6.054
 7462SOL     OW24218   0.872  10.352   3.506
 7462SOL    HW124219   0.890  10.439   3.470
 7462SOL    HW224220   0.888  10.292   3.434
 7463SOL     OW24221   4.714  10.495   4.611
 7463SOL    HW124222   4.760  10.446   4.679
 7463SOL    HW224223   4.628  10.454   4.605
 7464SOL     OW24224   0.600   8.190  10.465
 7464SOL    HW124225   0.599   8.105  10.420
 7464SOL    HW224226   0.691   8.202  10.492
 7465SOL     OW24227   9.595   4.648   8.762
 7465SOL    HW124228   9.560   4.616   8.845
 7465SOL    HW224229   9.572   4.580   8.698
 7466SOL     OW24230   2.786   6.522   8.199
 7466SOL    HW124231   2.862   6.499   8.146
 7466SOL    HW224232   2.721   6.553   8.135
 7467SOL     OW24233   0.836   0.266   6.768
 7467SOL    HW124234   0.781   0.204   6.719
 7467SOL    HW224235   0.775   0.313   6.823
 7468SOL     OW24236  14.417  10.553  13.044
 7468SOL    HW124237  14.498  10.585  13.084
 7468SOL    HW224238  14.438  10.546  12.951
 7469SOL     OW24239   7.964  11.804   7.428
 7469SOL    HW124240   7.962  11.711   7.453
 7469SOL    HW224241   8.023  11.807   7.353
 7470SOL     OW24242   9.095   4.008  12.539
 7470SOL    HW124243   9.115   4.012  12.445
 7470SOL    HW224244   9.000   4.012  12.543
 7471SOL     OW24245   1.109   6.825   0.380
 7471SOL    HW124246   1.097   6.731   0.390
 7471SOL    HW224247   1.049   6.864   0.443
 7472SOL     OW24248  14.227  10.183   8.157
 7472SOL    HW124249  14.165  10.119   8.121
 7472SOL    HW224250  14.260  10.142   8.237
 7473SOL     OW24251  14.115   7.220  11.192
 7473SOL    HW124252  14.181   7.217  11.260
 7473SOL    HW224253  14.146   7.159  11.125
 7474SOL     OW24254  12.890  13.583   5.857
 7474SOL    HW124255  12.847  13.504   5.890
 7474SOL    HW224256  12.824  13.626   5.803
 7475SOL     OW24257   9.219  11.784   1.384
 7475SOL    HW124258   9.283  11.753   1.320
 7475SOL    HW224259   9.165  11.846   1.335
 7476SOL     OW24260  10.516  11.699   9.495
 7476SOL    HW124261  10.579  11.678   9.425
 7476SOL    HW224262  10.562  11.675   9.576
 7477SOL     OW24263   7.472   9.313   7.863
 7477SOL    HW124264   7.428   9.236   7.900
 7477SOL    HW224265   7.405   9.381   7.864
 7478SOL     OW24266  14.792   1.748  12.614
 7478SOL    HW124267  14.774   1.723  12.705
 7478SOL    HW224268  14.729   1.817  12.594
 7479SOL     OW24269   2.867   2.912   4.632
 7479SOL    HW124270   2.939   2.973   4.641
 7479SOL    HW224271   2.854   2.903   4.538
 7480SOL     OW24272   8.322  12.781   0.936
 7480SOL    HW124273   8.305  12.815   1.024
 7480SOL    HW224274   8.240  12.793   0.889
 7481SOL     OW24275   1.078   3.251  12.394
 7481SOL    HW124276   1.093   3.193  12.470
 7481SOL    HW224277   1.128   3.330  12.414
 7482SOL     OW24278   2.994   6.041   8.284
 7482SOL    HW124279   2.963   5.958   8.246
 7482SOL    HW224280   2.945   6.050   8.366
 7483SOL     OW24281   1.477  13.600  12.607
 7483SOL    HW124282   1.513  13.684  12.579
 7483SOL    HW224283   1.515  13.586  12.694
 7484SOL     OW24284   3.981  11.913   9.020
 7484SOL    HW124285   4.007  11.895   8.929
 7484SOL    HW224286   4.057  11.887   9.072
 7485SOL     OW24287   0.764   9.306   5.966
 7485SOL    HW124288   0.789   9.245   5.897
 7485SOL    HW224289   0.762   9.391   5.923
 7486SOL     OW24290   1.583   9.990   0.407
 7486SOL    HW124291   1.576  10.030   0.320
 7486SOL    HW224292   1.581   9.896   0.389
 7487SOL     OW24293   1.615   9.868  12.744
 7487SOL    HW124294   1.591   9.954  12.710
 7487SOL    HW224295   1.651   9.886  12.831
 7488SOL     OW24296   0.520   2.815  10.497
 7488SOL    HW124297   0.510   2.853  10.584
 7488SOL    HW224298   0.608   2.777  10.497
 7489SOL     OW24299   2.634   5.585   1.244
 7489SOL    HW124300   2.569   5.639   1.200
 7489SOL    HW224301   2.718   5.626   1.222
 7490SOL     OW24302  13.815   0.492   4.219
 7490SOL    HW124303  13.764   0.428   4.169
 7490SOL    HW224304  13.768   0.574   4.207
 7491SOL     OW24305   5.151   2.813  13.492
 7491SOL    HW124306   5.201   2.864  13.428
 7491SOL    HW224307   5.072   2.786  13.445
 7492SOL     OW24308   7.396   1.214   3.146
 7492SOL    HW124309   7.439   1.239   3.064
 7492SOL    HW224310   7.416   1.121   3.156
 7493SOL     OW24311   1.789  14.231   2.768
 7493SOL    HW124312   1.752  14.162   2.711
 7493SOL    HW224313   1.714  14.260   2.821
 7494SOL     OW24314   8.473  11.253   0.016
 7494SOL    HW124315   8.420  11.329  14.864
 7494SOL    HW224316   8.471  11.252   0.111
 7495SOL     OW24317   7.719   9.067   7.121
 7495SOL    HW124318   7.628   9.046   7.144
 7495SOL    HW224319   7.752   8.988   7.079
 7496SOL     OW24320  11.847  12.009   0.478
 7496SOL    HW124321  11.815  11.919   0.486
 7496SOL    HW224322  11.862  12.037   0.568
 7497SOL     OW24323   4.143   4.759   2.679
 7497SOL    HW124324   4.228   4.719   2.658
 7497SOL    HW224325   4.159   4.808   2.759
 7498SOL     OW24326  11.516  11.882  14.758
 7498SOL    HW124327  11.586  11.947  14.764
 7498SOL    HW224328  11.561  11.798  14.755
 7499SOL     OW24329  10.943   6.954   9.810
 7499SOL    HW124330  10.961   6.946   9.717
 7499SOL    HW224331  10.913   6.867   9.837
 7500SOL     OW24332   2.207   7.875   3.922
 7500SOL    HW124333   2.275   7.909   3.864
 7500SOL    HW224334   2.155   7.817   3.866
 7501SOL     OW24335   8.400   9.628   0.500
 7501SOL    HW124336   8.319   9.639   0.549
 7501SOL    HW224337   8.424   9.536   0.513
 7502SOL     OW24338   6.432   1.377  10.801
 7502SOL    HW124339   6.428   1.396  10.894
 7502SOL    HW224340   6.358   1.424  10.763
 7503SOL     OW24341  12.665   6.529   0.662
 7503SOL    HW124342  12.727   6.518   0.591
 7503SOL    HW224343  12.627   6.615   0.648
 7504SOL     OW24344   6.410   3.214   6.135
 7504SOL    HW124345   6.442   3.291   6.086
 7504SOL    HW224346   6.320   3.203   6.105
 7505SOL     OW24347  14.515  12.379   2.147
 7505SOL    HW124348  14.526  12.287   2.172
 7505SOL    HW224349  14.448  12.378   2.079
 7506SOL     OW24350  13.799   6.560  13.069
 7506SOL    HW124351  13.780   6.557  13.163
 7506SOL    HW224352  13.827   6.650  13.053
 7507SOL     OW24353   2.333   6.067   1.299
 7507SOL    HW124354   2.378   6.018   1.368
 7507SOL    HW224355   2.313   6.152   1.340
 7508SOL     OW24356   8.566   3.860   7.013
 7508SOL    HW124357   8.506   3.882   7.084
 7508SOL    HW224358   8.653   3.865   7.052
 7509SOL     OW24359   1.009   0.663   7.369
 7509SOL    HW124360   0.990   0.570   7.360
 7509SOL    HW224361   1.105   0.668   7.369
 7510SOL     OW24362  12.512   8.139  12.610
 7510SOL    HW124363  12.423   8.141  12.645
 7510SOL    HW224364  12.501   8.121  12.517
 7511SOL     OW24365  14.120   8.552   3.129
 7511SOL    HW124366  14.123   8.512   3.215
 7511SOL    HW224367  14.142   8.481   3.068
 7512SOL     OW24368   0.557   4.646  11.461
 7512SOL    HW124369   0.635   4.643  11.517
 7512SOL    HW224370   0.545   4.739  11.442
 7513SOL     OW24371   4.014  11.728  10.566
 7513SOL    HW124372   4.000  11.815  10.529
 7513SOL    HW224373   4.108  11.724  10.585
 7514SOL     OW24374  13.455   3.638  12.659
 7514SOL    HW124375  13.442   3.544  12.648
 7514SOL    HW224376  13.377   3.667  12.707
 7515SOL     OW24377   0.790   0.400   5.086
 7515SOL    HW124378   0.801   0.361   5.173
 7515SOL    HW224379   0.827   0.487   5.093
 7516SOL     OW24380   2.742  13.755  13.241
 7516SOL    HW124381   2.749  13.824  13.175
 7516SOL    HW224382   2.655  13.717  13.227
 7517SOL     OW24383   6.978   7.362   4.692
 7517SOL    HW124384   7.026   7.427   4.640
 7517SOL    HW224385   7.036   7.286   4.696
 7518SOL     OW24386  12.028   6.848   6.629
 7518SOL    HW124387  11.969   6.866   6.555
 7518SOL    HW224388  12.104   6.904   6.614
 7519SOL     OW24389  12.507   7.170   7.852
 7519SOL    HW124390  12.536   7.236   7.915
 7519SOL    HW224391  12.415   7.192   7.836
 7520SOL     OW24392   9.814   0.528   8.610
 7520SOL    HW124393   9.905   0.547   8.632
 7520SOL    HW224394   9.779   0.485   8.688
 7521SOL     OW24395   9.384  14.674   3.138
 7521SOL    HW124396   9.410  14.765   3.155
 7521SOL    HW224397   9.467  14.627   3.127
 7522SOL     OW24398   1.388  10.916   0.250
 7522SOL    HW124399   1.460  10.893   0.310
 7522SOL    HW224400   1.428  10.976   0.187
 7523SOL     OW24401   7.503  12.022   6.788
 7523SOL    HW124402   7.514  12.003   6.881
 7523SOL    HW224403   7.560  12.097   6.773
 7524SOL     OW24404   5.553   1.566   5.762
 7524SOL    HW124405   5.546   1.530   5.850
 7524SOL    HW224406   5.471   1.614   5.749
 7525SOL     OW24407   1.275   2.808  14.330
 7525SOL    HW124408   1.281   2.713  14.340
 7525SOL    HW224409   1.198   2.833  14.380
 7526SOL     OW24410   4.288   2.394  10.962
 7526SOL    HW124411   4.218   2.439  11.009
 7526SOL    HW224412   4.292   2.307  11.002
 7527SOL     OW24413   0.075   2.706   1.929
 7527SOL    HW124414   0.091   2.614   1.949
 7527SOL    HW224415   0.019   2.704   1.851
 7528SOL     OW24416   6.950  11.448  12.185
 7528SOL    HW124417   7.004  11.488  12.117
 7528SOL    HW224418   6.980  11.357  12.189
 7529SOL     OW24419   2.607  12.250   1.030
 7529SOL    HW124420   2.522  12.210   1.049
 7529SOL    HW224421   2.638  12.205   0.952
 7530SOL     OW24422   8.800   3.424  12.945
 7530SOL    HW124423   8.867   3.462  13.002
 7530SOL    HW224424   8.721   3.421  12.999
 7531SOL     OW24425   9.281  14.219  14.356
 7531SOL    HW124426   9.220  14.183  14.292
 7531SOL    HW224427   9.362  14.234  14.307
 7532SOL     OW24428   6.584   8.852   6.432
 7532SOL    HW124429   6.549   8.877   6.347
 7532SOL    HW224430   6.614   8.762   6.420
 7533SOL     OW24431   2.556   3.468   7.848
 7533SOL    HW124432   2.566   3.417   7.928
 7533SOL    HW224433   2.611   3.422   7.784
 7534SOL     OW24434   7.326   5.663   3.471
 7534SOL    HW124435   7.373   5.656   3.554
 7534SOL    HW224436   7.291   5.752   3.469
 7535SOL     OW24437   3.908   5.113   6.740
 7535SOL    HW124438   3.948   5.143   6.658
 7535SOL    HW224439   3.817   5.093   6.716
 7536SOL     OW24440   2.318   9.719   3.268
 7536SOL    HW124441   2.266   9.771   3.329
 7536SOL    HW224442   2.368   9.783   3.217
 7537SOL     OW24443  12.650   1.999   2.469
 7537SOL    HW124444  12.739   1.993   2.436
 7537SOL    HW224445  12.660   2.031   2.558
 7538SOL     OW24446   4.711   8.432   7.168
 7538SOL    HW124447   4.638   8.493   7.170
 7538SOL    HW224448   4.671   8.346   7.183
 7539SOL     OW24449   1.297   6.122  12.235
 7539SOL    HW124450   1.342   6.169  12.165
 7539SOL    HW224451   1.275   6.038  12.197
 7540SOL     OW24452   3.897   5.024  13.103
 7540SOL    HW124453   3.836   4.999  13.172
 7540SOL    HW224454   3.899   5.120  13.106
 7541SOL     OW24455   4.756   3.447   8.594
 7541SOL    HW124456   4.799   3.531   8.605
 7541SOL    HW224457   4.665   3.469   8.576
 7542SOL     OW24458   1.479   9.350   8.329
 7542SOL    HW124459   1.444   9.271   8.287
 7542SOL    HW224460   1.569   9.356   8.297
 7543SOL     OW24461   9.365   9.652   8.156
 7543SOL    HW124462   9.280   9.643   8.200
 7543SOL    HW224463   9.397   9.737   8.185
 7544SOL     OW24464   6.210  13.862  11.174
 7544SOL    HW124465   6.173  13.919  11.107
 7544SOL    HW224466   6.157  13.782  11.171
 7545SOL     OW24467   7.019  11.388  14.706
 7545SOL    HW124468   6.969  11.438  14.643
 7545SOL    HW224469   7.016  11.439  14.787
 7546SOL     OW24470  14.639   4.526   1.710
 7546SOL    HW124471  14.601   4.596   1.656
 7546SOL    HW224472  14.582   4.521   1.786
 7547SOL     OW24473   6.741  12.730  12.500
 7547SOL    HW124474   6.804  12.659  12.486
 7547SOL    HW224475   6.672  12.689  12.552
 7548SOL     OW24476  14.454   6.799   3.762
 7548SOL    HW124477  14.406   6.835   3.836
 7548SOL    HW224478  14.387   6.781   3.696
 7549SOL     OW24479  13.487   0.532   7.387
 7549SOL    HW124480  13.514   0.561   7.474
 7549SOL    HW224481  13.473   0.612   7.338
 7550SOL     OW24482  13.417   1.788   8.816
 7550SOL    HW124483  13.452   1.819   8.733
 7550SOL    HW224484  13.473   1.714   8.840
 7551SOL     OW24485   2.444   5.817  13.766
 7551SOL    HW124486   2.527   5.846  13.804
 7551SOL    HW224487   2.380   5.831  13.836
 7552SOL     OW24488  13.963  11.584   0.502
 7552SOL    HW124489  13.885  11.537   0.529
 7552SOL    HW224490  14.030  11.516   0.492
 7553SOL     OW24491  10.715   9.712   7.904
 7553SOL    HW124492  10.707   9.732   7.811
 7553SOL    HW224493  10.804   9.739   7.927
 7554SOL     OW24494   1.669   4.210   8.588
 7554SOL    HW124495   1.598   4.173   8.536
 7554SOL    HW224496   1.648   4.186   8.678
 7555SOL     OW24497  13.952  13.524  12.871
 7555SOL    HW124498  14.006  13.598  12.843
 7555SOL    HW224499  13.875  13.528  12.815
 7556SOL     OW24500   3.487   7.899  12.249
 7556SOL    HW124501   3.458   7.980  12.290
 7556SOL    HW224502   3.462   7.908  12.158
 7557SOL     OW24503  11.026   9.820   2.310
 7557SOL    HW124504  10.995   9.907   2.286
 7557SOL    HW224505  10.954   9.781   2.360
 7558SOL     OW24506  11.800   1.922  11.298
 7558SOL    HW124507  11.826   1.922  11.391
 7558SOL    HW224508  11.799   2.014  11.273
 7559SOL     OW24509   7.535  10.448  10.368
 7559SOL    HW124510   7.587  10.395  10.308
 7559SOL    HW224511   7.585  10.530  10.377
 7560SOL     OW24512   1.588   6.835  12.791
 7560SOL    HW124513   1.645   6.843  12.867
 7560SOL    HW224514   1.609   6.912  12.737
 7561SOL     OW24515   3.209   8.663   6.477
 7561SOL    HW124516   3.199   8.569   6.460
 7561SOL    HW224517   3.302   8.680   6.459
 7562SOL     OW24518   9.573   6.483   7.534
 7562SOL    HW124519   9.479   6.466   7.539
 7562SOL    HW224520   9.609   6.435   7.608
 7563SOL     OW24521   5.802  11.490  14.493
 7563SOL    HW124522   5.871  11.522  14.435
 7563SOL    HW224523   5.764  11.415  14.447
 7564SOL     OW24524   1.163  14.152   5.556
 7564SOL    HW124525   1.165  14.066   5.597
 7564SOL    HW224526   1.120  14.138   5.471
 7565SOL     OW24527   4.481  14.740  10.510
 7565SOL    HW124528   4.418  14.774  10.574
 7565SOL    HW224529   4.439  14.663  10.474
 7566SOL     OW24530  10.727   8.928   5.309
 7566SOL    HW124531  10.687   8.985   5.374
 7566SOL    HW224532  10.679   8.845   5.318
 7567SOL     OW24533  10.972   7.554   2.262
 7567SOL    HW124534  11.027   7.494   2.213
 7567SOL    HW224535  10.915   7.593   2.196
 7568SOL     OW24536   8.174  13.008  11.887
 7568SOL    HW124537   8.235  12.990  11.816
 7568SOL    HW224538   8.088  12.990  11.850
 7569SOL     OW24539   9.359   7.332  10.387
 7569SOL    HW124540   9.341   7.392  10.460
 7569SOL    HW224541   9.335   7.383  10.309
 7570SOL     OW24542  13.577   2.945   8.692
 7570SOL    HW124543  13.614   3.022   8.649
 7570SOL    HW224544  13.516   2.981   8.757
 7571SOL     OW24545  11.520   6.953  12.274
 7571SOL    HW124546  11.494   6.932  12.364
 7571SOL    HW224547  11.614   6.936  12.272
 7572SOL     OW24548   9.929  10.913  10.368
 7572SOL    HW124549   9.846  10.943  10.406
 7572SOL    HW224550   9.912  10.822  10.344
 7573SOL     OW24551   3.863   5.906   6.407
 7573SOL    HW124552   3.805   5.842   6.366
 7573SOL    HW224553   3.882   5.969   6.338
 7574SOL     OW24554  12.616   0.653   8.237
 7574SOL    HW124555  12.596   0.669   8.330
 7574SOL    HW224556  12.624   0.558   8.231
 7575SOL     OW24557   3.902   4.831   2.920
 7575SOL    HW124558   3.995   4.855   2.914
 7575SOL    HW224559   3.868   4.884   2.992
 7576SOL     OW24560  11.866  11.443  10.066
 7576SOL    HW124561  11.855  11.395  10.148
 7576SOL    HW224562  11.888  11.376  10.002
 7577SOL     OW24563   2.675  10.568   4.191
 7577SOL    HW124564   2.594  10.609   4.222
 7577SOL    HW224565   2.651  10.527   4.108
 7578SOL     OW24566   0.326   6.583   6.935
 7578SOL    HW124567   0.290   6.500   6.903
 7578SOL    HW224568   0.336   6.569   7.030
 7579SOL     OW24569   3.052   9.411  10.439
 7579SOL    HW124570   2.962   9.416  10.407
 7579SOL    HW224571   3.073   9.500  10.468
 7580SOL     OW24572   8.565   2.543   6.773
 7580SOL    HW124573   8.535   2.521   6.684
 7580SOL    HW224574   8.561   2.460   6.820
 7581SOL     OW24575  14.511  14.079   0.257
 7581SOL    HW124576  14.562  14.008   0.219
 7581SOL    HW224577  14.452  14.106   0.187
 7582SOL     OW24578  13.633  14.386   5.076
 7582SOL    HW124579  13.683  14.385   4.995
 7582SOL    HW224580  13.543  14.368   5.048
 7583SOL     OW24581   3.338  14.197   8.540
 7583SOL    HW124582   3.408  14.202   8.606
 7583SOL    HW224583   3.287  14.121   8.565
 7584SOL     OW24584   4.491   9.072   5.734
 7584SOL    HW124585   4.500   9.132   5.808
 7584SOL    HW224586   4.533   8.991   5.764
 7585SOL     OW24587  12.992   8.102   3.144
 7585SOL    HW124588  12.939   8.181   3.158
 7585SOL    HW224589  13.043   8.121   3.066
 7586SOL     OW24590   7.545  13.374   3.456
 7586SOL    HW124591   7.526  13.436   3.385
 7586SOL    HW224592   7.503  13.292   3.428
 7587SOL     OW24593   0.944   6.482   8.373
 7587SOL    HW124594   1.006   6.443   8.435
 7587SOL    HW224595   0.912   6.408   8.321
 7588SOL     OW24596   4.276   1.550   0.260
 7588SOL    HW124597   4.228   1.632   0.267
 7588SOL    HW224598   4.276   1.530   0.167
 7589SOL     OW24599   6.857  14.834   9.633
 7589SOL    HW124600   6.816   0.019   9.569
 7589SOL    HW224601   6.815  14.749   9.618
 7590SOL     OW24602   3.543   7.454  11.699
 7590SOL    HW124603   3.561   7.441  11.606
 7590SOL    HW224604   3.501   7.373  11.727
 7591SOL     OW24605   0.461  11.591   8.723
 7591SOL    HW124606   0.439  11.515   8.778
 7591SOL    HW224607   0.454  11.665   8.783
 7592SOL     OW24608   8.386  14.077   0.649
 7592SOL    HW124609   8.448  14.006   0.633
 7592SOL    HW224610   8.422  14.152   0.602
 7593SOL     OW24611   9.820  12.786  10.493
 7593SOL    HW124612   9.907  12.760  10.523
 7593SOL    HW224613   9.765  12.780  10.571
 7594SOL     OW24614  11.171  11.186   6.117
 7594SOL    HW124615  11.178  11.248   6.045
 7594SOL    HW224616  11.097  11.130   6.094
 7595SOL     OW24617  13.620   4.518   2.975
 7595SOL    HW124618  13.671   4.483   2.903
 7595SOL    HW224619  13.593   4.441   3.025
 7596SOL     OW24620   0.025   1.459   4.692
 7596SOL    HW124621   0.032   1.416   4.607
 7596SOL    HW224622   0.060   1.396   4.754
 7597SOL     OW24623  13.817   9.300   0.219
 7597SOL    HW124624  13.874   9.248   0.162
 7597SOL    HW224625  13.761   9.235   0.262
 7598SOL     OW24626  11.824  12.706  13.474
 7598SOL    HW124627  11.798  12.614  13.483
 7598SOL    HW224628  11.743  12.752  13.454
 7599SOL     OW24629   0.394   1.077   1.884
 7599SOL    HW124630   0.376   1.162   1.925
 7599SOL    HW224631   0.408   1.098   1.791
 7600SOL     OW24632   8.695   8.745   4.679
 7600SOL    HW124633   8.704   8.750   4.584
 7600SOL    HW224634   8.622   8.804   4.699
 7601SOL     OW24635  10.332   9.815   2.596
 7601SOL    HW124636  10.250   9.827   2.548
 7601SOL    HW224637  10.381   9.752   2.544
 7602SOL     OW24638   5.216   6.834   3.233
 7602SOL    HW124639   5.299   6.790   3.215
 7602SOL    HW224640   5.167   6.830   3.151
 7603SOL     OW24641  14.534  13.685   5.132
 7603SOL    HW124642  14.530  13.778   5.156
 7603SOL    HW224643  14.508  13.639   5.212
 7604SOL     OW24644   8.447  11.753  13.242
 7604SOL    HW124645   8.389  11.824  13.215
 7604SOL    HW224646   8.398  11.705  13.308
 7605SOL     OW24647  14.179  10.439  13.087
 7605SOL    HW124648  14.185  10.354  13.129
 7605SOL    HW224649  14.270  10.469  13.081
 7606SOL     OW24650   3.293   9.776   2.257
 7606SOL    HW124651   3.308   9.794   2.350
 7606SOL    HW224652   3.238   9.698   2.256
 7607SOL     OW24653   9.436   1.988   9.871
 7607SOL    HW124654   9.399   1.900   9.886
 7607SOL    HW224655   9.361   2.047   9.878
 7608SOL     OW24656   3.687   4.379   4.424
 7608SOL    HW124657   3.614   4.327   4.458
 7608SOL    HW224658   3.681   4.370   4.329
 7609SOL     OW24659  11.372  12.790   1.468
 7609SOL    HW124660  11.349  12.808   1.377
 7609SOL    HW224661  11.309  12.724   1.497
 7610SOL     OW24662   8.572   0.628   4.389
 7610SOL    HW124663   8.582   0.539   4.423
 7610SOL    HW224664   8.503   0.620   4.323
 7611SOL     OW24665   0.788  13.811   9.839
 7611SOL    HW124666   0.741  13.770   9.912
 7611SOL    HW224667   0.721  13.829   9.774
 7612SOL     OW24668  14.255   3.338   9.676
 7612SOL    HW124669  14.192   3.375   9.614
 7612SOL    HW224670  14.224   3.366   9.762
 7613SOL     OW24671   0.306   1.939   1.959
 7613SOL    HW124672   0.391   1.966   1.926
 7613SOL    HW224673   0.283   2.006   2.024
 7614SOL     OW24674  10.652   4.700   1.003
 7614SOL    HW124675  10.567   4.722   0.964
 7614SOL    HW224676  10.663   4.765   1.073
 7615SOL     OW24677  14.224   0.582   0.558
 7615SOL    HW124678  14.234   0.636   0.480
 7615SOL    HW224679  14.145   0.530   0.541
 7616SOL     OW24680  12.480   9.745  12.961
 7616SOL    HW124681  12.423   9.759  12.886
 7616SOL    HW224682  12.493   9.832  12.998
 7617SOL     OW24683   0.780  11.243   9.719
 7617SOL    HW124684   0.856  11.227   9.662
 7617SOL    HW224685   0.815  11.234   9.808
 7618SOL     OW24686   4.221   4.345  13.924
 7618SOL    HW124687   4.142   4.368  13.972
 7618SOL    HW224688   4.235   4.252  13.943
 7619SOL     OW24689   6.504  11.631   5.050
 7619SOL    HW124690   6.422  11.640   5.098
 7619SOL    HW224691   6.509  11.709   4.995
 7620SOL     OW24692  13.896   1.471   0.814
 7620SOL    HW124693  13.816   1.443   0.770
 7620SOL    HW224694  13.959   1.401   0.795
 7621SOL     OW24695   4.717  10.690   5.152
 7621SOL    HW124696   4.706  10.784   5.160
 7621SOL    HW224697   4.674  10.668   5.069
 7622SOL     OW24698   6.873   3.607   2.120
 7622SOL    HW124699   6.910   3.562   2.196
 7622SOL    HW224700   6.780   3.583   2.120
 7623SOL     OW24701   9.226   1.225  12.614
 7623SOL    HW124702   9.253   1.309  12.579
 7623SOL    HW224703   9.151   1.245  12.670
 7624SOL     OW24704   3.475   2.581   8.891
 7624SOL    HW124705   3.504   2.490   8.886
 7624SOL    HW224706   3.457   2.596   8.984
 7625SOL     OW24707  12.265  12.328  11.545
 7625SOL    HW124708  12.350  12.290  11.524
 7625SOL    HW224709  12.253  12.398  11.481
 7626SOL     OW24710   0.917   9.771   5.709
 7626SOL    HW124711   0.891   9.721   5.632
 7626SOL    HW224712   0.842   9.827   5.728
 7627SOL     OW24713  12.134   7.934   2.909
 7627SOL    HW124714  12.124   8.009   2.967
 7627SOL    HW224715  12.183   7.870   2.961
 7628SOL     OW24716  11.632   8.489   0.216
 7628SOL    HW124717  11.628   8.466   0.308
 7628SOL    HW224718  11.604   8.580   0.213
 7629SOL     OW24719   2.683   0.375   7.296
 7629SOL    HW124720   2.761   0.419   7.331
 7629SOL    HW224721   2.675   0.295   7.347
 7630SOL     OW24722  10.915   8.540   8.683
 7630SOL    HW124723  10.904   8.449   8.708
 7630SOL    HW224724  10.987   8.539   8.620
 7631SOL     OW24725   3.817  12.085   4.233
 7631SOL    HW124726   3.795  12.106   4.324
 7631SOL    HW224727   3.911  12.104   4.226
 7632SOL     OW24728  10.699   8.100   4.395
 7632SOL    HW124729  10.765   8.116   4.462
 7632SOL    HW224730  10.623   8.068   4.443
 7633SOL     OW24731   3.883  13.346   1.076
 7633SOL    HW124732   3.804  13.325   1.124
 7633SOL    HW224733   3.932  13.264   1.072
 7634SOL     OW24734   5.367  12.049  10.090
 7634SOL    HW124735   5.383  12.021  10.000
 7634SOL    HW224736   5.315  11.979  10.129
 7635SOL     OW24737  11.385   6.967   6.745
 7635SOL    HW124738  11.422   6.879   6.742
 7635SOL    HW224739  11.290   6.953   6.750
 7636SOL     OW24740   0.340   9.347   1.205
 7636SOL    HW124741   0.291   9.405   1.263
 7636SOL    HW224742   0.417   9.322   1.255
 7637SOL     OW24743  10.713   5.683  14.724
 7637SOL    HW124744  10.659   5.724  14.656
 7637SOL    HW224745  10.665   5.603  14.747
 7638SOL     OW24746  12.842   1.141  12.641
 7638SOL    HW124747  12.862   1.061  12.689
 7638SOL    HW224748  12.919   1.156  12.586
 7639SOL     OW24749   1.813   6.229  14.328
 7639SOL    HW124750   1.763   6.251  14.249
 7639SOL    HW224751   1.748   6.224  14.398
 7640SOL     OW24752   0.524   6.270  12.190
 7640SOL    HW124753   0.614   6.240  12.196
 7640SOL    HW224754   0.524   6.332  12.117
 7641SOL     OW24755   2.036   8.639   0.687
 7641SOL    HW124756   2.088   8.585   0.627
 7641SOL    HW224757   2.100   8.694   0.732
 7642SOL     OW24758   3.989  13.110  11.434
 7642SOL    HW124759   3.916  13.075  11.484
 7642SOL    HW224760   3.972  13.204  11.430
 7643SOL     OW24761  13.998   3.553  12.597
 7643SOL    HW124762  13.923   3.579  12.543
 7643SOL    HW224763  14.019   3.631  12.648
 7644SOL     OW24764   0.069  14.378  14.191
 7644SOL    HW124765   0.075  14.321  14.115
 7644SOL    HW224766   0.146  14.355  14.244
 7645SOL     OW24767   6.827   3.323   1.207
 7645SOL    HW124768   6.750   3.340   1.152
 7645SOL    HW224769   6.791   3.278   1.284
 7646SOL     OW24770   4.453   3.010  11.786
 7646SOL    HW124771   4.391   2.985  11.717
 7646SOL    HW224772   4.426   2.958  11.862
 7647SOL     OW24773   1.721  13.379   7.570
 7647SOL    HW124774   1.694  13.298   7.528
 7647SOL    HW224775   1.678  13.448   7.519
 7648SOL     OW24776  11.905  10.316   8.139
 7648SOL    HW124777  11.991  10.350   8.164
 7648SOL    HW224778  11.853  10.393   8.118
 7649SOL     OW24779   7.493  13.758  12.716
 7649SOL    HW124780   7.588  13.757  12.705
 7649SOL    HW224781   7.471  13.668  12.740
 7650SOL     OW24782   6.235   8.548   8.699
 7650SOL    HW124783   6.224   8.620   8.761
 7650SOL    HW224784   6.174   8.569   8.627
 7651SOL     OW24785   3.440   7.837   2.504
 7651SOL    HW124786   3.459   7.866   2.415
 7651SOL    HW224787   3.362   7.887   2.529
 7652SOL     OW24788  10.394   6.832   3.138
 7652SOL    HW124789  10.436   6.869   3.060
 7652SOL    HW224790  10.362   6.909   3.186
 7653SOL     OW24791   2.281   4.127   8.355
 7653SOL    HW124792   2.295   4.215   8.390
 7653SOL    HW224793   2.201   4.096   8.398
 7654SOL     OW24794   8.330   0.622   7.764
 7654SOL    HW124795   8.329   0.537   7.808
 7654SOL    HW224796   8.335   0.686   7.836
 7655SOL     OW24797  13.578  14.713  13.854
 7655SOL    HW124798  13.660  14.715  13.803
 7655SOL    HW224799  13.509  14.713  13.788
 7656SOL     OW24800   6.637   4.393   4.656
 7656SOL    HW124801   6.550   4.408   4.694
 7656SOL    HW224802   6.698   4.428   4.721
 7657SOL     OW24803   5.643   6.223   0.891
 7657SOL    HW124804   5.705   6.153   0.869
 7657SOL    HW224805   5.568   6.178   0.930
 7658SOL     OW24806  14.190   8.728   4.324
 7658SOL    HW124807  14.209   8.636   4.344
 7658SOL    HW224808  14.123   8.723   4.255
 7659SOL     OW24809   1.696  11.876   2.403
 7659SOL    HW124810   1.720  11.824   2.480
 7659SOL    HW224811   1.600  11.879   2.405
 7660SOL     OW24812   4.960   5.108   5.475
 7660SOL    HW124813   4.942   5.121   5.382
 7660SOL    HW224814   4.891   5.158   5.520
 7661SOL     OW24815   6.332  10.885   4.601
 7661SOL    HW124816   6.404  10.827   4.575
 7661SOL    HW224817   6.366  10.974   4.587
 7662SOL     OW24818  11.345  14.246   1.943
 7662SOL    HW124819  11.413  14.288   1.890
 7662SOL    HW224820  11.339  14.299   2.022
 7663SOL     OW24821   1.667  12.686   0.350
 7663SOL    HW124822   1.698  12.638   0.426
 7663SOL    HW224823   1.641  12.619   0.287
 7664SOL     OW24824   5.942   2.467  10.886
 7664SOL    HW124825   5.951   2.460  10.791
 7664SOL    HW224826   6.032   2.472  10.918
 7665SOL     OW24827   2.629   1.956   3.080
 7665SOL    HW124828   2.566   2.027   3.091
 7665SOL    HW224829   2.611   1.896   3.152
 7666SOL     OW24830  14.842   8.206  11.576
 7666SOL    HW124831   0.039   8.220  11.512
 7666SOL    HW224832  14.818   8.294  11.604
 7667SOL     OW24833  12.751   9.481   4.696
 7667SOL    HW124834  12.685   9.482   4.765
 7667SOL    HW224835  12.820   9.424   4.730
 7668SOL     OW24836   0.797   9.534  11.744
 7668SOL    HW124837   0.832   9.620  11.723
 7668SOL    HW224838   0.836   9.512  11.829
 7669SOL     OW24839   1.188   8.334  10.649
 7669SOL    HW124840   1.113   8.327  10.590
 7669SOL    HW224841   1.191   8.250  10.694
 7670SOL     OW24842  11.521  11.421   3.730
 7670SOL    HW124843  11.460  11.368   3.679
 7670SOL    HW224844  11.489  11.413   3.820
 7671SOL     OW24845   0.153   9.458   1.388
 7671SOL    HW124846   0.098   9.497   1.320
 7671SOL    HW224847   0.094   9.400   1.437
 7672SOL     OW24848   2.313   7.542   8.660
 7672SOL    HW124849   2.400   7.530   8.622
 7672SOL    HW224850   2.327   7.591   8.740
 7673SOL     OW24851  13.828  12.726   2.610
 7673SOL    HW124852  13.848  12.759   2.523
 7673SOL    HW224853  13.771  12.651   2.595
 7674SOL     OW24854   5.618   3.547   2.642
 7674SOL    HW124855   5.622   3.476   2.578
 7674SOL    HW224856   5.685   3.609   2.613
 7675SOL     OW24857   1.352   6.108   5.993
 7675SOL    HW124858   1.434   6.128   5.949
 7675SOL    HW224859   1.288   6.165   5.950
 7676SOL     OW24860   2.595   4.727   7.509
 7676SOL    HW124861   2.678   4.691   7.476
 7676SOL    HW224862   2.568   4.665   7.577
 7677SOL     OW24863   7.678   4.661  11.614
 7677SOL    HW124864   7.583   4.657  11.605
 7677SOL    HW224865   7.711   4.661  11.524
 7678SOL     OW24866   3.640   7.891   2.279
 7678SOL    HW124867   3.656   7.797   2.285
 7678SOL    HW224868   3.683   7.917   2.198
 7679SOL     OW24869   7.329   7.874  12.563
 7679SOL    HW124870   7.246   7.839  12.530
 7679SOL    HW224871   7.360   7.807  12.624
 7680SOL     OW24872   9.373   8.099  10.661
 7680SOL    HW124873   9.418   8.063  10.738
 7680SOL    HW224874   9.306   8.034  10.640
 7681SOL     OW24875   9.459   0.725  14.846
 7681SOL    HW124876   9.443   0.807  14.799
 7681SOL    HW224877   9.478   0.661  14.777
 7682SOL     OW24878  13.081  14.781   1.968
 7682SOL    HW124879  13.112  14.778   1.877
 7682SOL    HW224880  12.986  14.792   1.960
 7683SOL     OW24881   6.180   7.027  14.652
 7683SOL    HW124882   6.132   7.109  14.655
 7683SOL    HW224883   6.258   7.042  14.705
 7684SOL     OW24884   3.478   2.270  12.848
 7684SOL    HW124885   3.560   2.242  12.807
 7684SOL    HW224886   3.462   2.205  12.916
 7685SOL     OW24887   6.871   9.239   9.219
 7685SOL    HW124888   6.788   9.196   9.238
 7685SOL    HW224889   6.904   9.267   9.305
 7686SOL     OW24890  13.888   0.883   8.852
 7686SOL    HW124891  13.869   0.972   8.825
 7686SOL    HW224892  13.803   0.839   8.851
 7687SOL     OW24893  13.567  14.436   7.687
 7687SOL    HW124894  13.580  14.521   7.645
 7687SOL    HW224895  13.599  14.372   7.622
 7688SOL     OW24896   9.217   3.216   8.409
 7688SOL    HW124897   9.289   3.158   8.384
 7688SOL    HW224898   9.224   3.223   8.504
 7689SOL     OW24899   8.550  13.283   8.815
 7689SOL    HW124900   8.551  13.242   8.728
 7689SOL    HW224901   8.552  13.209   8.876
 7690SOL     OW24902   5.261   1.545  12.834
 7690SOL    HW124903   5.284   1.608  12.903
 7690SOL    HW224904   5.254   1.598  12.755
 7691SOL     OW24905   2.140  10.794   5.564
 7691SOL    HW124906   2.054  10.834   5.572
 7691SOL    HW224907   2.123  10.700   5.572
 7692SOL     OW24908  11.005  12.063   3.494
 7692SOL    HW124909  11.019  11.981   3.541
 7692SOL    HW224910  10.948  12.040   3.421
 7693SOL     OW24911   8.676   1.987   6.243
 7693SOL    HW124912   8.654   1.895   6.253
 7693SOL    HW224913   8.600   2.025   6.198
 7694SOL     OW24914  14.436  10.956   6.135
 7694SOL    HW124915  14.417  11.033   6.188
 7694SOL    HW224916  14.487  10.899   6.192
 7695SOL     OW24917   9.194   1.179   6.403
 7695SOL    HW124918   9.280   1.208   6.434
 7695SOL    HW224919   9.214   1.115   6.334
 7696SOL     OW24920   1.560   9.862  14.423
 7696SOL    HW124921   1.504   9.928  14.383
 7696SOL    HW224922   1.643   9.907  14.439
 7697SOL     OW24923   4.126  10.193   6.265
 7697SOL    HW124924   4.168  10.276   6.239
 7697SOL    HW224925   4.192  10.126   6.244
 7698SOL     OW24926  13.696   7.376   6.330
 7698SOL    HW124927  13.690   7.300   6.388
 7698SOL    HW224928  13.719   7.449   6.388
 7699SOL     OW24929   5.181  14.836  12.503
 7699SOL    HW124930   5.109  14.855  12.442
 7699SOL    HW224931   5.223   0.048  12.517
 7700SOL     OW24932   5.315  14.864   4.606
 7700SOL    HW124933   5.342   0.015   4.695
 7700SOL    HW224934   5.285  14.773   4.614
 7701SOL     OW24935   7.960   9.557   0.821
 7701SOL    HW124936   7.964   9.605   0.904
 7701SOL    HW224937   8.023   9.602   0.765
 7702SOL     OW24938   6.186   9.243  12.990
 7702SOL    HW124939   6.119   9.176  12.976
 7702SOL    HW224940   6.247   9.232  12.917
 7703SOL     OW24941   3.583   6.233  11.737
 7703SOL    HW124942   3.625   6.315  11.762
 7703SOL    HW224943   3.626   6.166  11.790
 7704SOL     OW24944   0.040  13.139  13.663
 7704SOL    HW124945   0.066  13.050  13.638
 7704SOL    HW224946  14.826  13.150  13.626
 7705SOL     OW24947   2.412   7.515  13.318
 7705SOL    HW124948   2.337   7.571  13.296
 7705SOL    HW224949   2.423   7.527  13.412
 7706SOL     OW24950   7.339   2.090  11.177
 7706SOL    HW124951   7.256   2.122  11.213
 7706SOL    HW224952   7.314   2.016  11.121
 7707SOL     OW24953  11.580   5.300  12.263
 7707SOL    HW124954  11.617   5.214  12.285
 7707SOL    HW224955  11.485   5.288  12.269
 7708SOL     OW24956   4.189  14.393   4.996
 7708SOL    HW124957   4.252  14.348   4.940
 7708SOL    HW224958   4.160  14.327   5.058
 7709SOL     OW24959  12.673   1.402  12.956
 7709SOL    HW124960  12.755   1.411  12.908
 7709SOL    HW224961  12.697   1.361  13.039
 7710SOL     OW24962   7.048   4.811   3.014
 7710SOL    HW124963   6.982   4.820   3.083
 7710SOL    HW224964   6.998   4.788   2.936
 7711SOL     OW24965   7.189   7.061   6.732
 7711SOL    HW124966   7.135   7.117   6.788
 7711SOL    HW224967   7.129   6.995   6.699
 7712SOL     OW24968   4.034   9.860   0.013
 7712SOL    HW124969   4.063   9.891  14.800
 7712SOL    HW224970   3.944   9.832  14.872
 7713SOL     OW24971  10.329  11.015   8.423
 7713SOL    HW124972  10.266  11.048   8.487
 7713SOL    HW224973  10.281  11.016   8.340
 7714SOL     OW24974   7.775   9.488   1.454
 7714SOL    HW124975   7.753   9.506   1.546
 7714SOL    HW224976   7.867   9.513   1.446
 7715SOL     OW24977  12.790   4.727  11.165
 7715SOL    HW124978  12.827   4.816  11.169
 7715SOL    HW224979  12.700   4.740  11.135
 7716SOL     OW24980   1.685   7.138   8.802
 7716SOL    HW124981   1.746   7.136   8.729
 7716SOL    HW224982   1.735   7.108   8.878
 7717SOL     OW24983   3.846  13.524   9.032
 7717SOL    HW124984   3.903  13.549   9.105
 7717SOL    HW224985   3.893  13.452   8.988
 7718SOL     OW24986  11.183  11.604   3.177
 7718SOL    HW124987  11.107  11.604   3.117
 7718SOL    HW224988  11.144  11.597   3.264
 7719SOL     OW24989   8.578   6.304   5.486
 7719SOL    HW124990   8.552   6.392   5.460
 7719SOL    HW224991   8.497   6.253   5.481
 7720SOL     OW24992   8.728   5.138  14.711
 7720SOL    HW124993   8.654   5.080  14.694
 7720SOL    HW224994   8.721   5.159  14.804
 7721SOL     OW24995   5.677  14.478   2.774
 7721SOL    HW124996   5.611  14.543   2.798
 7721SOL    HW224997   5.627  14.407   2.734
 7722SOL     OW24998   5.887  11.256   7.492
 7722SOL    HW124999   5.832  11.305   7.431
 7722SOL    HW225000   5.977  11.280   7.469
 7723SOL     OW25001   6.061   3.929   3.392
 7723SOL    HW125002   6.076   4.016   3.431
 7723SOL    HW225003   6.132   3.875   3.428
 7724SOL     OW25004   6.763   5.148  14.025
 7724SOL    HW125005   6.811   5.156  13.943
 7724SOL    HW225006   6.799   5.070  14.067
 7725SOL     OW25007   8.275   8.720   7.685
 7725SOL    HW125008   8.233   8.797   7.647
 7725SOL    HW225009   8.208   8.681   7.741
 7726SOL     OW25010   7.888  12.522  13.327
 7726SOL    HW125011   7.981  12.500  13.318
 7726SOL    HW225012   7.886  12.588  13.397
 7727SOL     OW25013   7.588  10.603   8.983
 7727SOL    HW125014   7.668  10.610   8.931
 7727SOL    HW225015   7.562  10.694   8.999
 7728SOL     OW25016  13.042   0.722   3.533
 7728SOL    HW125017  13.130   0.685   3.525
 7728SOL    HW225018  13.047   0.782   3.607
 7729SOL     OW25019  13.684   2.908   0.026
 7729SOL    HW125020  13.778   2.892   0.034
 7729SOL    HW225021  13.664   2.968   0.098
 7730SOL     OW25022   5.403   7.548  10.755
 7730SOL    HW125023   5.486   7.580  10.791
 7730SOL    HW225024   5.339   7.614  10.779
 7731SOL     OW25025   4.129   1.829  10.771
 7731SOL    HW125026   4.137   1.913  10.726
 7731SOL    HW225027   4.088   1.771  10.706
 7732SOL     OW25028   5.843   5.822   1.103
 7732SOL    HW125029   5.927   5.787   1.076
 7732SOL    HW225030   5.865   5.895   1.162
 7733SOL     OW25031   2.700   6.994  12.269
 7733SOL    HW125032   2.730   6.934  12.338
 7733SOL    HW225033   2.763   7.066  12.272
 7734SOL     OW25034   8.870   1.478   2.017
 7734SOL    HW125035   8.935   1.498   1.950
 7734SOL    HW225036   8.907   1.515   2.097
 7735SOL     OW25037   2.277   2.775   2.277
 7735SOL    HW125038   2.310   2.853   2.234
 7735SOL    HW225039   2.238   2.723   2.207
 7736SOL     OW25040  14.858  11.531   4.783
 7736SOL    HW125041   0.051  11.498   4.846
 7736SOL    HW225042  14.826  11.612   4.823
 7737SOL     OW25043   8.935   8.457  11.153
 7737SOL    HW125044   8.931   8.362  11.152
 7737SOL    HW225045   8.934   8.480  11.246
 7738SOL     OW25046   7.378   0.035   5.947
 7738SOL    HW125047   7.417  14.844   6.006
 7738SOL    HW225048   7.423   0.021   5.863
 7739SOL     OW25049   5.013   3.774   0.337
 7739SOL    HW125050   4.947   3.723   0.291
 7739SOL    HW225051   4.983   3.775   0.428
 7740SOL     OW25052  13.789   3.528   2.030
 7740SOL    HW125053  13.842   3.527   2.110
 7740SOL    HW225054  13.735   3.449   2.036
 7741SOL     OW25055   1.285   2.455   7.752
 7741SOL    HW125056   1.317   2.437   7.663
 7741SOL    HW225057   1.240   2.539   7.744
 7742SOL     OW25058  13.542  10.954   7.621
 7742SOL    HW125059  13.603  10.970   7.548
 7742SOL    HW225060  13.585  10.993   7.697
 7743SOL     OW25061  10.074   2.407  12.725
 7743SOL    HW125062  10.029   2.454  12.795
 7743SOL    HW225063  10.164   2.396  12.757
 7744SOL     OW25064  12.722  14.804  14.634
 7744SOL    HW125065  12.802  14.756  14.655
 7744SOL    HW225066  12.749   0.023  14.631
 7745SOL     OW25067   2.323   7.177   9.227
 7745SOL    HW125068   2.325   7.146   9.137
 7745SOL    HW225069   2.413   7.204   9.245
 7746SOL     OW25070  11.659  13.795   3.961
 7746SOL    HW125071  11.588  13.827   3.907
 7746SOL    HW225072  11.735  13.848   3.936
 7747SOL     OW25073  14.631   2.815   9.313
 7747SOL    HW125074  14.572   2.798   9.387
 7747SOL    HW225075  14.596   2.894   9.272
 7748SOL     OW25076   6.546  10.036   7.692
 7748SOL    HW125077   6.539  10.038   7.787
 7748SOL    HW225078   6.628   9.990   7.675
 7749SOL     OW25079   6.489   8.544   2.381
 7749SOL    HW125080   6.538   8.511   2.306
 7749SOL    HW225081   6.555   8.586   2.436
 7750SOL     OW25082   2.896   1.944  14.864
 7750SOL    HW125083   2.967   1.972   0.050
 7750SOL    HW225084   2.817   1.978   0.032
 7751SOL     OW25085  13.209   7.470   6.808
 7751SOL    HW125086  13.211   7.544   6.747
 7751SOL    HW225087  13.115   7.453   6.820
 7752SOL     OW25088  10.393  12.149   4.162
 7752SOL    HW125089  10.446  12.219   4.200
 7752SOL    HW225090  10.452  12.107   4.099
 7753SOL     OW25091   5.486   8.988   8.617
 7753SOL    HW125092   5.553   9.005   8.683
 7753SOL    HW225093   5.461   8.897   8.631
 7754SOL     OW25094   8.603   3.271   3.725
 7754SOL    HW125095   8.601   3.302   3.815
 7754SOL    HW225096   8.572   3.180   3.729
 7755SOL     OW25097   6.567   9.760  10.022
 7755SOL    HW125098   6.531   9.731  10.106
 7755SOL    HW225099   6.501   9.735   9.957
 7756SOL     OW25100  13.172   8.180  10.341
 7756SOL    HW125101  13.158   8.156  10.433
 7756SOL    HW225102  13.258   8.144  10.320
 7757SOL     OW25103   6.664   6.265   0.341
 7757SOL    HW125104   6.710   6.287   0.260
 7757SOL    HW225105   6.710   6.187   0.373
 7758SOL     OW25106   1.058   8.464   9.394
 7758SOL    HW125107   1.143   8.499   9.368
 7758SOL    HW225108   1.056   8.376   9.357
 7759SOL     OW25109   9.959   7.365   8.751
 7759SOL    HW125110   9.943   7.303   8.821
 7759SOL    HW225111  10.054   7.381   8.753
 7760SOL     OW25112   7.172   9.796  10.359
 7760SOL    HW125113   7.154   9.868  10.419
 7760SOL    HW225114   7.123   9.722  10.395
 7761SOL     OW25115   2.441  12.062  12.104
 7761SOL    HW125116   2.397  11.988  12.145
 7761SOL    HW225117   2.514  12.082  12.162
 7762SOL     OW25118  14.215   0.655  11.190
 7762SOL    HW125119  14.207   0.571  11.236
 7762SOL    HW225120  14.125   0.686  11.182
 7763SOL     OW25121  10.413   7.565   8.014
 7763SOL    HW125122  10.417   7.583   7.920
 7763SOL    HW225123  10.336   7.510   8.025
 7764SOL     OW25124  11.883   9.397   6.357
 7764SOL    HW125125  11.907   9.412   6.449
 7764SOL    HW225126  11.918   9.310   6.337
 7765SOL     OW25127   7.924   5.168  13.547
 7765SOL    HW125128   7.850   5.224  13.569
 7765SOL    HW225129   8.001   5.219  13.574
 7766SOL     OW25130  10.718   7.502  13.952
 7766SOL    HW125131  10.669   7.510  13.870
 7766SOL    HW225132  10.696   7.414  13.984
 7767SOL     OW25133   1.884   3.668   0.610
 7767SOL    HW125134   1.839   3.584   0.599
 7767SOL    HW225135   1.824   3.721   0.662
 7768SOL     OW25136   8.769  14.125  14.267
 7768SOL    HW125137   8.706  14.137  14.196
 7768SOL    HW225138   8.737  14.049  14.316
 7769SOL     OW25139   5.636   8.248  11.127
 7769SOL    HW125140   5.649   8.212  11.040
 7769SOL    HW225141   5.697   8.321  11.134
 7770SOL     OW25142   3.492  14.201  13.417
 7770SOL    HW125143   3.396  14.195  13.423
 7770SOL    HW225144   3.513  14.167  13.330
 7771SOL     OW25145   6.387   0.715  12.308
 7771SOL    HW125146   6.298   0.684  12.291
 7771SOL    HW225147   6.443   0.639  12.293
 7772SOL     OW25148   5.272   6.616  12.750
 7772SOL    HW125149   5.290   6.528  12.718
 7772SOL    HW225150   5.352   6.643  12.794
 7773SOL     OW25151   9.699   8.868   7.247
 7773SOL    HW125152   9.789   8.864   7.215
 7773SOL    HW225153   9.704   8.834   7.337
 7774SOL     OW25154  12.029   4.622   9.558
 7774SOL    HW125155  11.934   4.623   9.571
 7774SOL    HW225156  12.055   4.714   9.570
 7775SOL     OW25157   4.912   3.807   5.182
 7775SOL    HW125158   4.917   3.728   5.236
 7775SOL    HW225159   4.915   3.879   5.246
 7776SOL     OW25160  10.868   8.034  13.882
 7776SOL    HW125161  10.962   8.020  13.886
 7776SOL    HW225162  10.844   8.069  13.967
 7777SOL     OW25163   2.483   6.975   7.433
 7777SOL    HW125164   2.546   7.012   7.371
 7777SOL    HW225165   2.443   6.902   7.387
 7778SOL     OW25166   2.363   2.647   8.444
 7778SOL    HW125167   2.429   2.655   8.513
 7778SOL    HW225168   2.283   2.622   8.490
 7779SOL     OW25169  13.362   0.098   2.427
 7779SOL    HW125170  13.423   0.024   2.432
 7779SOL    HW225171  13.276   0.060   2.445
 7780SOL     OW25172   6.123   6.465   9.566
 7780SOL    HW125173   6.176   6.387   9.549
 7780SOL    HW225174   6.186   6.531   9.595
 7781SOL     OW25175   6.444   8.351   9.517
 7781SOL    HW125176   6.452   8.428   9.460
 7781SOL    HW225177   6.395   8.288   9.465
 7782SOL     OW25178   2.675   6.965  11.816
 7782SOL    HW125179   2.657   7.057  11.797
 7782SOL    HW225180   2.639   6.951  11.903
 7783SOL     OW25181  12.615  12.361   0.986
 7783SOL    HW125182  12.667  12.435   0.955
 7783SOL    HW225183  12.674  12.313   1.043
 7784SOL     OW25184  11.448  14.125   5.387
 7784SOL    HW125185  11.407  14.042   5.413
 7784SOL    HW225186  11.437  14.182   5.463
 7785SOL     OW25187   9.643   5.434   1.518
 7785SOL    HW125188   9.696   5.371   1.568
 7785SOL    HW225189   9.556   5.426   1.556
 7786SOL     OW25190   2.959  11.324   9.400
 7786SOL    HW125191   2.883  11.313   9.457
 7786SOL    HW225192   2.937  11.275   9.321
 7787SOL     OW25193  12.118  10.853   1.576
 7787SOL    HW125194  12.181  10.838   1.647
 7787SOL    HW225195  12.142  10.790   1.509
 7788SOL     OW25196   2.578   6.869  14.114
 7788SOL    HW125197   2.552   6.885  14.204
 7788SOL    HW225198   2.670   6.893  14.110
 7789SOL     OW25199   1.361   5.151   3.768
 7789SOL    HW125200   1.286   5.149   3.708
 7789SOL    HW225201   1.355   5.237   3.810
 7790SOL     OW25202   4.824  14.858   2.631
 7790SOL    HW125203   4.842   0.009   2.722
 7790SOL    HW225204   4.899   0.019   2.582
 7791SOL     OW25205  13.530  10.473   3.933
 7791SOL    HW125206  13.601  10.482   3.998
 7791SOL    HW225207  13.543  10.546   3.873
 7792SOL     OW25208  11.564   3.944   3.449
 7792SOL    HW125209  11.499   3.908   3.389
 7792SOL    HW225210  11.551   3.896   3.530
 7793SOL     OW25211   9.743  12.245  11.633
 7793SOL    HW125212   9.667  12.302  11.646
 7793SOL    HW225213   9.752  12.198  11.716
 7794SOL     OW25214  14.838   6.528   5.152
 7794SOL    HW125215  14.764   6.499   5.098
 7794SOL    HW225216   0.037   6.471   5.127
 7795SOL     OW25217   2.269   8.880   8.953
 7795SOL    HW125218   2.320   8.917   8.881
 7795SOL    HW225219   2.188   8.932   8.955
 7796SOL     OW25220   0.696  11.626   6.272
 7796SOL    HW125221   0.754  11.595   6.202
 7796SOL    HW225222   0.613  11.645   6.227
 7797SOL     OW25223   5.844  12.364  12.494
 7797SOL    HW125224   5.785  12.439  12.489
 7797SOL    HW225225   5.799  12.301  12.550
 7798SOL     OW25226   4.943  13.132   4.157
 7798SOL    HW125227   5.024  13.181   4.172
 7798SOL    HW225228   4.900  13.130   4.242
 7799SOL     OW25229   0.282   2.455   7.472
 7799SOL    HW125230   0.339   2.472   7.547
 7799SOL    HW225231   0.199   2.427   7.511
 7800SOL     OW25232   8.725   0.637   2.438
 7800SOL    HW125233   8.747   0.638   2.531
 7800SOL    HW225234   8.684   0.722   2.422
 7801SOL     OW25235   3.992   6.880   9.072
 7801SOL    HW125236   4.081   6.885   9.107
 7801SOL    HW225237   3.972   6.970   9.047
 7802SOL     OW25238  13.653   9.943   0.802
 7802SOL    HW125239  13.739   9.926   0.762
 7802SOL    HW225240  13.592   9.936   0.729
 7803SOL     OW25241   4.777   9.469   4.848
 7803SOL    HW125242   4.865   9.480   4.812
 7803SOL    HW225243   4.776   9.381   4.885
 7804SOL     OW25244  10.991  10.365   7.252
 7804SOL    HW125245  10.946  10.326   7.328
 7804SOL    HW225246  10.979  10.301   7.182
 7805SOL     OW25247  11.400  13.073   9.158
 7805SOL    HW125248  11.308  13.046   9.153
 7805SOL    HW225249  11.420  13.105   9.071
 7806SOL     OW25250   3.139  12.546   0.469
 7806SOL    HW125251   3.162  12.527   0.560
 7806SOL    HW225252   3.047  12.522   0.462
 7807SOL     OW25253   1.655   7.150   0.425
 7807SOL    HW125254   1.607   7.080   0.469
 7807SOL    HW225255   1.651   7.224   0.486
 7808SOL     OW25256  10.678  12.644   3.450
 7808SOL    HW125257  10.599  12.657   3.397
 7808SOL    HW225258  10.698  12.551   3.442
 7809SOL     OW25259   8.567  11.340   8.604
 7809SOL    HW125260   8.656  11.369   8.628
 7809SOL    HW225261   8.579  11.290   8.523
 7810SOL     OW25262  14.823   9.761  10.829
 7810SOL    HW125263  14.824   9.840  10.775
 7810SOL    HW225264  14.824   9.794  10.919
 7811SOL     OW25265  10.171   1.648  11.909
 7811SOL    HW125266  10.215   1.604  11.982
 7811SOL    HW225267  10.126   1.723  11.949
 7812SOL     OW25268   5.845   1.154  11.570
 7812SOL    HW125269   5.775   1.114  11.622
 7812SOL    HW225270   5.840   1.109  11.485
 7813SOL     OW25271  11.640  10.622   4.705
 7813SOL    HW125272  11.704  10.622   4.776
 7813SOL    HW225273  11.694  10.620   4.625
 7814SOL     OW25274   9.914   9.718   5.609
 7814SOL    HW125275   9.901   9.751   5.520
 7814SOL    HW225276   9.912   9.797   5.664
 7815SOL     OW25277   7.605  11.562   1.768
 7815SOL    HW125278   7.648  11.499   1.825
 7815SOL    HW225279   7.593  11.516   1.685
 7816SOL     OW25280   0.733   5.457   8.070
 7816SOL    HW125281   0.733   5.431   8.162
 7816SOL    HW225282   0.703   5.380   8.023
 7817SOL     OW25283   7.390   9.973   8.107
 7817SOL    HW125284   7.354  10.008   8.026
 7817SOL    HW225285   7.467  10.026   8.124
 7818SOL     OW25286   3.855  11.551  13.756
 7818SOL    HW125287   3.781  11.538  13.815
 7818SOL    HW225288   3.826  11.619  13.695
 7819SOL     OW25289  14.615   2.155  13.001
 7819SOL    HW125290  14.697   2.116  13.033
 7819SOL    HW225291  14.585   2.093  12.934
 7820SOL     OW25292   6.789   2.833   2.744
 7820SOL    HW125293   6.784   2.738   2.752
 7820SOL    HW225294   6.698   2.862   2.741
 7821SOL     OW25295   4.289   4.936   6.890
 7821SOL    HW125296   4.330   4.965   6.808
 7821SOL    HW225297   4.299   4.841   6.888
 7822SOL     OW25298   8.097   9.010  12.792
 7822SOL    HW125299   8.156   9.073  12.752
 7822SOL    HW225300   8.152   8.932  12.806
 7823SOL     OW25301   8.486  13.266   7.671
 7823SOL    HW125302   8.493  13.331   7.741
 7823SOL    HW225303   8.474  13.183   7.716
 7824SOL     OW25304  14.140   3.104   3.743
 7824SOL    HW125305  14.067   3.044   3.758
 7824SOL    HW225306  14.211   3.048   3.712
 7825SOL     OW25307   7.244  11.821  12.497
 7825SOL    HW125308   7.193  11.744  12.471
 7825SOL    HW225309   7.254  11.813  12.592
 7826SOL     OW25310   1.074  14.714   9.810
 7826SOL    HW125311   1.073  14.741   9.718
 7826SOL    HW225312   1.106  14.790   9.858
 7827SOL     OW25313  14.725  11.887   8.084
 7827SOL    HW125314  14.746  11.953   8.018
 7827SOL    HW225315  14.651  11.839   8.046
 7828SOL     OW25316   8.906   6.830  10.711
 7828SOL    HW125317   8.843   6.858  10.778
 7828SOL    HW225318   8.975   6.786  10.760
 7829SOL     OW25319   7.545   7.720   8.773
 7829SOL    HW125320   7.450   7.713   8.783
 7829SOL    HW225321   7.557   7.797   8.717
 7830SOL     OW25322   3.503  14.388  11.991
 7830SOL    HW125323   3.555  14.386  11.911
 7830SOL    HW225324   3.553  14.443  12.051
 7831SOL     OW25325   0.877  11.949  14.024
 7831SOL    HW125326   0.858  11.909  14.109
 7831SOL    HW225327   0.966  11.920  14.003
 7832SOL     OW25328   0.663  14.570   4.161
 7832SOL    HW125329   0.742  14.522   4.184
 7832SOL    HW225330   0.641  14.619   4.240
 7833SOL     OW25331  13.797  11.190   4.381
 7833SOL    HW125332  13.795  11.144   4.465
 7833SOL    HW225333  13.747  11.270   4.397
 7834SOL     OW25334  11.562   3.180  12.684
 7834SOL    HW125335  11.626   3.230  12.633
 7834SOL    HW225336  11.482   3.232  12.680
 7835SOL     OW25337   5.375   2.700   5.520
 7835SOL    HW125338   5.392   2.794   5.511
 7835SOL    HW225339   5.306   2.681   5.457
 7836SOL     OW25340  12.205   5.592   5.710
 7836SOL    HW125341  12.251   5.656   5.765
 7836SOL    HW225342  12.134   5.559   5.766
 7837SOL     OW25343   7.915  10.996  14.605
 7837SOL    HW125344   7.981  10.998  14.675
 7837SOL    HW225345   7.956  11.040  14.531
 7838SOL     OW25346   0.205   4.048  12.003
 7838SOL    HW125347   0.286   4.083  12.040
 7838SOL    HW225348   0.136   4.094  12.051
 7839SOL     OW25349   9.916   4.683  13.947
 7839SOL    HW125350   9.975   4.683  14.022
 7839SOL    HW225351   9.838   4.637  13.977
 7840SOL     OW25352  12.215   3.948   7.274
 7840SOL    HW125353  12.149   3.969   7.340
 7840SOL    HW225354  12.197   4.008   7.202
 7841SOL     OW25355  14.032  12.580  11.564
 7841SOL    HW125356  14.097  12.514  11.542
 7841SOL    HW225357  13.957  12.529  11.595
 7842SOL     OW25358   8.493  13.138  11.339
 7842SOL    HW125359   8.584  13.132  11.367
 7842SOL    HW225360   8.484  13.227  11.303
 7843SOL     OW25361   9.633   6.730   8.092
 7843SOL    HW125362   9.643   6.779   8.174
 7843SOL    HW225363   9.675   6.646   8.108
 7844SOL     OW25364   9.362   6.792   6.995
 7844SOL    HW125365   9.279   6.786   7.044
 7844SOL    HW225366   9.390   6.883   7.007
 7845SOL     OW25367   2.504   8.715   8.867
 7845SOL    HW125368   2.563   8.718   8.791
 7845SOL    HW225369   2.505   8.804   8.901
 7846SOL     OW25370   2.958  12.179   3.778
 7846SOL    HW125371   2.979  12.266   3.812
 7846SOL    HW225372   3.019  12.166   3.705
 7847SOL     OW25373   6.261   5.308  13.937
 7847SOL    HW125374   6.287   5.388  13.983
 7847SOL    HW225375   6.282   5.238  13.999
 7848SOL     OW25376   9.271   2.708   6.477
 7848SOL    HW125377   9.284   2.792   6.520
 7848SOL    HW225378   9.176   2.698   6.471
 7849SOL     OW25379   6.415  14.869   2.660
 7849SOL    HW125380   6.492  14.861   2.604
 7849SOL    HW225381   6.354  14.803   2.627
 7850SOL     OW25382  14.684   3.733  13.232
 7850SOL    HW125383  14.711   3.713  13.142
 7850SOL    HW225384  14.764   3.726  13.284
 7851SOL     OW25385   8.183   0.462   5.267
 7851SOL    HW125386   8.273   0.430   5.263
 7851SOL    HW225387   8.189   0.554   5.241
 7852SOL     OW25388   7.219   2.533   4.462
 7852SOL    HW125389   7.231   2.518   4.368
 7852SOL    HW225390   7.145   2.478   4.486
 7853SOL     OW25391   7.243   4.780   9.952
 7853SOL    HW125392   7.312   4.812   9.894
 7853SOL    HW225393   7.286   4.714  10.006
 7854SOL     OW25394   6.156   4.312  13.079
 7854SOL    HW125395   6.114   4.281  13.160
 7854SOL    HW225396   6.108   4.268  13.009
 7855SOL     OW25397   0.309  12.247   2.875
 7855SOL    HW125398   0.364  12.181   2.918
 7855SOL    HW225399   0.369  12.319   2.855
 7856SOL     OW25400   0.889  10.048  10.432
 7856SOL    HW125401   0.883   9.956  10.455
 7856SOL    HW225402   0.896  10.094  10.516
 7857SOL     OW25403   4.248  12.008  10.124
 7857SOL    HW125404   4.276  12.069  10.055
 7857SOL    HW225405   4.182  12.056  10.173
 7858SOL     OW25406   8.660  12.482  14.709
 7858SOL    HW125407   8.597  12.475  14.637
 7858SOL    HW225408   8.713  12.560  14.687
 7859SOL     OW25409   6.705   4.515   7.270
 7859SOL    HW125410   6.787   4.472   7.294
 7859SOL    HW225411   6.642   4.483   7.334
 7860SOL     OW25412  12.501  10.938  13.219
 7860SOL    HW125413  12.445  10.932  13.141
 7860SOL    HW225414  12.522  11.031  13.226
 7861SOL     OW25415  13.079  13.328   0.659
 7861SOL    HW125416  13.012  13.264   0.635
 7861SOL    HW225417  13.131  13.338   0.579
 7862SOL     OW25418   3.559  13.115  12.845
 7862SOL    HW125419   3.490  13.130  12.780
 7862SOL    HW225420   3.515  13.122  12.929
 7863SOL     OW25421   9.554   5.279  10.345
 7863SOL    HW125422   9.560   5.314  10.434
 7863SOL    HW225423   9.574   5.186  10.354
 7864SOL     OW25424   0.354   2.956   3.583
 7864SOL    HW125425   0.349   2.939   3.489
 7864SOL    HW225426   0.268   2.930   3.617
 7865SOL     OW25427  13.995  10.639  11.963
 7865SOL    HW125428  13.907  10.603  11.957
 7865SOL    HW225429  13.989  10.706  12.031
 7866SOL     OW25430   9.688   6.537  10.100
 7866SOL    HW125431   9.598   6.565  10.087
 7866SOL    HW225432   9.739   6.588  10.037
 7867SOL     OW25433   1.622   6.733  10.367
 7867SOL    HW125434   1.666   6.662  10.414
 7867SOL    HW225435   1.647   6.813  10.414
 7868SOL     OW25436  14.451  11.230   1.962
 7868SOL    HW125437  14.536  11.250   1.924
 7868SOL    HW225438  14.471  11.182   2.042
 7869SOL     OW25439   1.464   4.271   5.785
 7869SOL    HW125440   1.475   4.244   5.694
 7869SOL    HW225441   1.455   4.366   5.781
 7870SOL     OW25442   8.967   0.484  14.150
 7870SOL    HW125443   8.965   0.576  14.176
 7870SOL    HW225444   8.944   0.437  14.230
 7871SOL     OW25445   8.101   7.613   9.943
 7871SOL    HW125446   8.029   7.649   9.996
 7871SOL    HW225447   8.133   7.687   9.892
 7872SOL     OW25448   4.447   5.998   2.775
 7872SOL    HW125449   4.352   5.987   2.782
 7872SOL    HW225450   4.478   5.912   2.744
 7873SOL     OW25451  14.871   2.111  11.331
 7873SOL    HW125452  14.783   2.141  11.354
 7873SOL    HW225453   0.022   2.164  11.254
 7874SOL     OW25454  13.866  10.978  13.494
 7874SOL    HW125455  13.925  10.926  13.550
 7874SOL    HW225456  13.778  10.956  13.524
 7875SOL     OW25457  13.450   9.717   3.238
 7875SOL    HW125458  13.414   9.633   3.267
 7875SOL    HW225459  13.462   9.767   3.319
 7876SOL     OW25460  11.683  13.185  13.666
 7876SOL    HW125461  11.616  13.144  13.612
 7876SOL    HW225462  11.667  13.279  13.658
 7877SOL     OW25463   0.928   8.594   4.045
 7877SOL    HW125464   0.927   8.678   4.092
 7877SOL    HW225465   0.837   8.564   4.047
 7878SOL     OW25466   9.166   1.498   6.947
 7878SOL    HW125467   9.251   1.516   6.907
 7878SOL    HW225468   9.182   1.421   7.002
 7879SOL     OW25469   9.727   7.527  12.555
 7879SOL    HW125470   9.731   7.574  12.639
 7879SOL    HW225471   9.805   7.472  12.555
 7880SOL     OW25472   5.749   3.768   5.505
 7880SOL    HW125473   5.735   3.822   5.582
 7880SOL    HW225474   5.828   3.803   5.465
 7881SOL     OW25475   2.117  10.385   8.219
 7881SOL    HW125476   2.212  10.378   8.220
 7881SOL    HW225477   2.100  10.474   8.188
 7882SOL     OW25478   7.374   4.923  13.973
 7882SOL    HW125479   7.402   4.908  13.883
 7882SOL    HW225480   7.448   4.894  14.027
 7883SOL     OW25481   7.556   6.144   3.036
 7883SOL    HW125482   7.507   6.202   3.095
 7883SOL    HW225483   7.515   6.059   3.048
 7884SOL     OW25484   9.712   0.331  11.535
 7884SOL    HW125485   9.741   0.360  11.621
 7884SOL    HW225486   9.691   0.412  11.488
 7885SOL     OW25487   4.782   2.482  13.488
 7885SOL    HW125488   4.696   2.509  13.519
 7885SOL    HW225489   4.786   2.515  13.398
 7886SOL     OW25490  11.873  13.717   4.155
 7886SOL    HW125491  11.823  13.709   4.074
 7886SOL    HW225492  11.888  13.811   4.165
 7887SOL     OW25493   0.922   3.621   3.984
 7887SOL    HW125494   0.875   3.553   3.936
 7887SOL    HW225495   1.011   3.587   3.992
 7888SOL     OW25496  11.584   4.554   2.196
 7888SOL    HW125497  11.508   4.504   2.165
 7888SOL    HW225498  11.655   4.490   2.196
 7889SOL     OW25499   0.879  12.871   0.067
 7889SOL    HW125500   0.974  12.861   0.057
 7889SOL    HW225501   0.868  12.962   0.094
 7890SOL     OW25502  13.043  13.657   8.710
 7890SOL    HW125503  13.066  13.749   8.698
 7890SOL    HW225504  12.947  13.657   8.712
 7891SOL     OW25505   9.101   0.459   2.170
 7891SOL    HW125506   9.023   0.514   2.173
 7891SOL    HW225507   9.151   0.492   2.096
 7892SOL     OW25508   3.224   1.357   4.382
 7892SOL    HW125509   3.220   1.286   4.445
 7892SOL    HW225510   3.134   1.391   4.379
 7893SOL     OW25511   4.812  12.952  12.827
 7893SOL    HW125512   4.855  13.021  12.876
 7893SOL    HW225513   4.820  12.874  12.882
 7894SOL     OW25514   7.362   9.937   2.816
 7894SOL    HW125515   7.322   9.941   2.729
 7894SOL    HW225516   7.314   9.868   2.862
 7895SOL     OW25517  10.113  10.088   2.251
 7895SOL    HW125518  10.060  10.098   2.172
 7895SOL    HW225519  10.199  10.059   2.218
 7896SOL     OW25520   7.840   8.705   7.657
 7896SOL    HW125521   7.766   8.649   7.678
 7896SOL    HW225522   7.845   8.702   7.561
 7897SOL     OW25523   8.288   1.054   8.952
 7897SOL    HW125524   8.280   0.975   9.006
 7897SOL    HW225525   8.242   1.122   9.001
 7898SOL     OW25526   4.308   1.918  10.473
 7898SOL    HW125527   4.237   1.976  10.500
 7898SOL    HW225528   4.336   1.875  10.554
 7899SOL     OW25529   0.430   5.802  11.605
 7899SOL    HW125530   0.491   5.765  11.540
 7899SOL    HW225531   0.473   5.884  11.633
 7900SOL     OW25532   8.409  11.230   6.199
 7900SOL    HW125533   8.368  11.182   6.127
 7900SOL    HW225534   8.372  11.191   6.278
 7901SOL     OW25535  11.757   5.395   6.957
 7901SOL    HW125536  11.772   5.327   7.023
 7901SOL    HW225537  11.762   5.348   6.874
 7902SOL     OW25538  14.831   4.591   2.535
 7902SOL    HW125539  14.762   4.618   2.596
 7902SOL    HW225540  14.797   4.512   2.494
 7903SOL     OW25541   7.037   6.064  14.079
 7903SOL    HW125542   6.953   6.049  14.035
 7903SOL    HW225543   7.057   5.982  14.123
 7904SOL     OW25544   3.933   1.906  10.317
 7904SOL    HW125545   3.981   1.984  10.291
 7904SOL    HW225546   3.997   1.854  10.366
 7905SOL     OW25547  10.527  10.241   9.403
 7905SOL    HW125548  10.558  10.246   9.494
 7905SOL    HW225549  10.510  10.332   9.379
 7906SOL     OW25550   5.739   1.530   3.407
 7906SOL    HW125551   5.672   1.477   3.363
 7906SOL    HW225552   5.728   1.618   3.370
 7907SOL     OW25553   2.865   4.285   6.982
 7907SOL    HW125554   2.844   4.317   7.070
 7907SOL    HW225555   2.868   4.190   6.991
 7908SOL     OW25556  12.696   8.516   2.049
 7908SOL    HW125557  12.663   8.528   1.960
 7908SOL    HW225558  12.704   8.422   2.059
 7909SOL     OW25559   6.021   7.225   5.285
 7909SOL    HW125560   6.058   7.157   5.342
 7909SOL    HW225561   5.984   7.177   5.211
 7910SOL     OW25562  11.137   5.342   1.433
 7910SOL    HW125563  11.149   5.345   1.338
 7910SOL    HW225564  11.197   5.275   1.464
 7911SOL     OW25565  10.256   1.713  10.678
 7911SOL    HW125566  10.273   1.622  10.701
 7911SOL    HW225567  10.181   1.738  10.732
 7912SOL     OW25568   0.390  14.472   8.392
 7912SOL    HW125569   0.469  14.526   8.399
 7912SOL    HW225570   0.415  14.400   8.334
 7913SOL     OW25571   2.254   5.203  11.055
 7913SOL    HW125572   2.222   5.150  10.982
 7913SOL    HW225573   2.340   5.167  11.076
 7914SOL     OW25574   9.243  14.154  11.740
 7914SOL    HW125575   9.199  14.181  11.821
 7914SOL    HW225576   9.234  14.228  11.681
 7915SOL     OW25577   2.040  11.806  11.465
 7915SOL    HW125578   2.120  11.791  11.416
 7915SOL    HW225579   1.972  11.763  11.413
 7916SOL     OW25580   9.624  13.086  14.664
 7916SOL    HW125581   9.622  12.997  14.698
 7916SOL    HW225582   9.532  13.113  14.662
 7917SOL     OW25583   1.095   8.988   3.187
 7917SOL    HW125584   1.094   9.003   3.092
 7917SOL    HW225585   1.015   8.940   3.205
 7918SOL     OW25586   1.998  13.647   5.645
 7918SOL    HW125587   1.954  13.652   5.730
 7918SOL    HW225588   2.038  13.733   5.634
 7919SOL     OW25589  14.363   4.070   8.685
 7919SOL    HW125590  14.376   3.982   8.719
 7919SOL    HW225591  14.311   4.058   8.605
 7920SOL     OW25592  13.891   3.615  14.366
 7920SOL    HW125593  13.866   3.681  14.301
 7920SOL    HW225594  13.861   3.532  14.329
 7921SOL     OW25595   7.243  13.687   7.042
 7921SOL    HW125596   7.274  13.735   7.119
 7921SOL    HW225597   7.229  13.754   6.975
 7922SOL     OW25598   5.131   1.444   5.059
 7922SOL    HW125599   5.126   1.539   5.076
 7922SOL    HW225600   5.040   1.416   5.052
 7923SOL     OW25601   2.078   0.315   3.276
 7923SOL    HW125602   2.086   0.267   3.193
 7923SOL    HW225603   1.984   0.318   3.293
 7924SOL     OW25604   2.170   3.054  10.064
 7924SOL    HW125605   2.220   3.027  10.141
 7924SOL    HW225606   2.079   3.036  10.087
 7925SOL     OW25607   2.947  10.536   3.637
 7925SOL    HW125608   2.854  10.539   3.616
 7925SOL    HW225609   2.954  10.578   3.723
 7926SOL     OW25610  12.739  13.314  12.270
 7926SOL    HW125611  12.658  13.277  12.235
 7926SOL    HW225612  12.710  13.377  12.337
 7927SOL     OW25613  10.809   4.591  11.717
 7927SOL    HW125614  10.722   4.558  11.737
 7927SOL    HW225615  10.850   4.605  11.802
 7928SOL     OW25616   0.353  11.332   8.559
 7928SOL    HW125617   0.375  11.261   8.499
 7928SOL    HW225618   0.398  11.309   8.641
 7929SOL     OW25619   6.099  12.805   5.596
 7929SOL    HW125620   6.144  12.724   5.573
 7929SOL    HW225621   6.018  12.776   5.638
 7930SOL     OW25622  13.283  14.672   5.836
 7930SOL    HW125623  13.212  14.715   5.882
 7930SOL    HW225624  13.337  14.743   5.802
 7931SOL     OW25625   3.404   5.340  12.432
 7931SOL    HW125626   3.406   5.245  12.418
 7931SOL    HW225627   3.435   5.377  12.349
 7932SOL     OW25628  14.659   8.292  12.384
 7932SOL    HW125629  14.685   8.210  12.426
 7932SOL    HW225630  14.737   8.348  12.389
 7933SOL     OW25631  12.459   7.228   2.604
 7933SOL    HW125632  12.492   7.183   2.526
 7933SOL    HW225633  12.413   7.159   2.653
 7934SOL     OW25634   9.540  13.112   5.627
 7934SOL    HW125635   9.461  13.147   5.586
 7934SOL    HW225636   9.551  13.025   5.588
 7935SOL     OW25637   6.200   7.357   5.797
 7935SOL    HW125638   6.197   7.423   5.728
 7935SOL    HW225639   6.294   7.349   5.817
 7936SOL     OW25640  12.776   5.150   7.118
 7936SOL    HW125641  12.736   5.225   7.164
 7936SOL    HW225642  12.707   5.084   7.115
 7937SOL     OW25643  13.492  13.558   3.093
 7937SOL    HW125644  13.542  13.511   3.159
 7937SOL    HW225645  13.401  13.552   3.122
 7938SOL     OW25646   7.429  11.713  14.671
 7938SOL    HW125647   7.379  11.772  14.614
 7938SOL    HW225648   7.410  11.625  14.638
 7939SOL     OW25649  12.304   0.503   6.595
 7939SOL    HW125650  12.219   0.536   6.622
 7939SOL    HW225651  12.301   0.502   6.499
 7940SOL     OW25652   2.688   1.977  13.887
 7940SOL    HW125653   2.639   1.895  13.890
 7940SOL    HW225654   2.621   2.046  13.893
 7941SOL     OW25655  13.780   6.619   9.370
 7941SOL    HW125656  13.782   6.557   9.444
 7941SOL    HW225657  13.740   6.569   9.299
 7942SOL     OW25658  12.982  14.736   2.326
 7942SOL    HW125659  13.038  14.793   2.272
 7942SOL    HW225660  13.036  14.658   2.341
 7943SOL     OW25661   2.175   7.946  12.305
 7943SOL    HW125662   2.119   7.875  12.337
 7943SOL    HW225663   2.250   7.901  12.266
 7944SOL     OW25664  14.852  14.758   1.706
 7944SOL    HW125665   0.026  14.821   1.652
 7944SOL    HW225666  14.761  14.787   1.703
 7945NA      NA25667   8.077  12.183   9.472
 7946NA      NA25668   5.301   9.587  10.665
 7947NA      NA25669   3.675   7.709   6.464
 7948NA      NA25670   4.010   5.541   6.877
 7949NA      NA25671   6.210   9.551  10.967
 7950NA      NA25672   4.855   7.292   7.573
 7951NA      NA25673   5.487   6.915   9.613
 7952NA      NA25674  10.529   7.063   7.803
 7953NA      NA25675   3.969   5.821   4.617
 7954NA      NA25676   3.993   6.903   8.091
 7955NA      NA25677   5.511   9.982   8.490
 7956NA      NA25678   5.921   8.205   9.512
 7957NA      NA25679   8.468  12.385  10.853
 7958NA      NA25680  11.635   7.575  10.219
 7959NA      NA25681   4.018   4.556   5.213
 7960NA      NA25682   9.227  10.171  12.187
 7961NA      NA25683   2.515   5.526   4.622
 7962NA      NA25684   5.078   8.496   9.572
 7963NA      NA25685   4.350   8.680   8.195
 7964NA      NA25686   5.541   6.532   5.635
 7965NA      NA25687   4.278   9.995   6.845
 7966NA      NA25688   5.380   5.858   6.809
 7967NA      NA25689   4.945  10.205  11.234
 7968NA      NA25690   4.370   6.793   6.248
 7969NA      NA25691   2.820   5.131   6.009
 7970NA      NA25692   9.721   3.911  14.571
 7971NA      NA25693   5.471  13.136   6.796
 7972NA      NA25694   6.711  10.144   8.873
 7973NA      NA25695   7.578   8.813  10.973
 7974NA      NA25696   5.862   6.337   4.260
 7975NA      NA25697   9.646   4.231  11.882
 7976NA      NA25698   8.776   3.078   0.331
 7977NA      NA25699   2.970   8.810   6.777
 7978NA      NA25700   4.358  12.929   6.389
 7979NA      NA25701   3.911   4.283   6.646
 7980NA      NA25702   6.810   1.681   5.410
 7981NA      NA25703   2.783   7.214   7.705
 7982NA      NA25704   6.575   6.232  13.292
 7983NA      NA25705   5.537   6.450   8.230
 7984NA      NA25706  12.152  10.259   3.637
 7985NA      NA25707   6.403   8.039   8.278
 7986NA      NA25708  12.510   3.265  14.805
 7987NA      NA25709   3.045  12.775   7.136
 7988NA      NA25710   3.321   4.993   2.728
 7989NA      NA25711  13.045  11.419  11.207
 7990NA      NA25712   8.555   1.164  13.072
 7991NA      NA25713   3.758   6.119   6.113
 7992NA      NA25714   2.818   6.719   4.763
 7993NA      NA25715   5.439   6.204   9.116
 7994NA      NA25716  13.288   4.010   3.849
 7995NA      NA25717   1.418   0.765  10.681
 7996NA      NA25718   3.379  10.205   6.860
 7997NA      NA25719   4.027   8.731  10.572
 7998NA      NA25720   2.833  10.838  10.493
 7999NA      NA25721   0.843   9.623   5.322
 8000NA      NA25722   3.370   6.359   5.114
 8001NA      NA25723   4.826   9.507   9.669
 8002NA      NA25724   6.523   3.238   2.383
 8003NA      NA25725   3.456  10.145   8.665
 8004NA      NA25726  13.041   9.560   4.996
 8005NA      NA25727   4.098   7.862   8.504
 8006NA      NA25728   5.383   9.088   8.415
  14.87278  14.87278  14.87278
